G5NPncore-PETIM betagalactose in water
199847
    1aaa     N1    1   8.953   9.806   7.474  0.6071  0.2275  0.8668
    1aaa     C1    2   8.966   9.664   7.438  0.8546  0.4853  0.0593
    1aaa     H1    3   8.982   9.601   7.526  0.2874 -0.8381 -0.7621
    1aaa     H2    4   8.871   9.630   7.396 -0.0165  2.4352  0.3143
    1aaa     C2    5   8.897   9.907   7.372  0.0547  0.7263 -0.3826
    1aaa     H3    6   8.951   9.894   7.277  2.4450 -2.5385  1.2307
    1aaa     H4    7   8.794   9.875   7.356  0.8312 -1.2613 -1.7451
    1aaa     C3    8   8.914   9.830   7.617  0.0937 -0.5921 -0.6547
    1aaa     H5    9   8.965   9.755   7.678  0.5811  1.7053  1.9662
    1aaa     H6   10   8.950   9.927   7.654 -0.1645 -0.2408 -1.3127
    1aaa     C4   11   8.765   9.827   7.638 -0.4526  0.5570  0.2489
    1aaa     H7   12   8.710   9.907   7.586  3.3095  3.1383 -0.1764
    1aaa     H8   13   8.727   9.729   7.606 -2.0235  1.3843 -0.5773
    1aaa     C5   14   9.071   9.643   7.330  0.2639  0.3332 -0.1473
    1aaa     H9   15   9.033   9.677   7.234  1.4883  0.7779 -0.4963
    1aaa    H10   16   9.160   9.702   7.358 -0.4620  1.2536  0.2582
    1aaa     C6   17   8.913  10.054   7.415  0.4212  0.4499 -0.5867
    1aaa    H11   18   8.867  10.118   7.339  3.2977  1.4608 -1.6338
    1aaa    H12   19   8.848  10.062   7.503  1.5474  0.2198  0.2840
    1aaa     C7   20   9.053  10.106   7.456 -0.3371 -0.2143  0.0892
    1aaa    H13   21   9.039  10.211   7.484  1.3548  0.0081  0.1829
    1aaa    H14   22   9.065  10.054   7.552 -0.1712 -0.1755  0.0885
    1aaa     C8   23   8.736   9.836   7.786  0.4705 -0.3411  0.2256
    1aaa    H15   24   8.632   9.807   7.805  0.6398  0.2968  2.4316
    1aaa    H16   25   8.792   9.753   7.832  1.8734  0.6295  0.3384
    1aaa     C9   26   9.113   9.486   7.309  0.4404  0.1465 -0.1779
    1aaa    H17   27   9.026   9.429   7.273 -0.4739  2.1873 -1.3556
    1aaa    H18   28   9.190   9.472   7.232  1.4097  1.5452  0.4992
    2bbb     N1   29   9.403   9.860   7.117 -0.0297  0.4718  0.2743
    2bbb     C1   30   9.425   9.711   7.094  0.3104  0.3170 -0.6312
    2bbb     H1   31   9.503   9.703   7.018 -0.1160  0.0132 -1.0484
    2bbb     H2   32   9.336   9.667   7.046  0.1487  0.7025 -0.6886
    2bbb     C2   33   9.358   9.930   7.000 -0.3694  0.0190 -0.1131
    2bbb     H3   34   9.415   9.883   6.918 -0.1605  1.7064 -0.9667
    2bbb     H4   35   9.377  10.037   6.992 -0.5888  0.0647 -0.0134
    2bbb     C3   36   9.335   9.902   7.241  0.1012  0.5122  0.1474
    2bbb     H5   37   9.378   9.851   7.328 -1.1470 -1.3679 -0.2810
    2bbb     H6   38   9.228   9.880   7.237 -0.1084  1.6881 -2.8150
    2bbb     C4   39   9.352  10.061   7.268 -0.8592  0.2400 -0.3148
    2bbb     H7   40   9.316  10.124   7.185 -0.3549 -0.0180 -0.7384
    2bbb     H8   41   9.461  10.075   7.277 -0.8353 -0.6468  0.9722
    2bbb     C5   42   9.450   9.624   7.218 -0.2222 -0.0127 -0.3255
    2bbb     H9   43   9.374   9.625   7.297  1.0085 -0.5811  0.8995
    2bbb    H10   44   9.537   9.666   7.269  0.3780  0.9206 -2.0485
    2bbb     C6   45   9.206   9.907   6.972 -0.7555 -0.2436 -0.0012
    2bbb    H11   46   9.145   9.974   7.034 -0.0770  1.7620 -1.4018
    2bbb    H12   47   9.183   9.802   6.995  1.4975 -0.8456 -0.1851
    2bbb     C7   48   9.284  10.107   7.392 -0.9101 -0.1347 -0.4239
    2bbb    H13   49   9.286  10.215   7.409 -0.0485 -0.2191  0.0486
    2bbb    H14   50   9.321  10.052   7.480  0.1802  1.9850  0.5141
    2bbb     C8   51   9.155   9.931   6.826 -0.6394 -0.1588 -0.4871
    2bbb    H15   52   9.169  10.038   6.811  1.9240 -0.2717  0.6367
    2bbb    H16   53   9.050   9.901   6.814 -0.6049 -1.2858  1.6638
    2bbb     C9   54   9.487   9.484   7.175  0.1765 -0.4153 -0.4187
    2bbb    H17   55   9.510   9.424   7.263 -0.1279  2.9293  2.1178
    2bbb    H18   56   9.581   9.487   7.118  1.1599 -2.2995  0.9940
    2bbb     O1   57   9.152  10.081   7.351 -0.1631  0.2449 -0.3492
    3bbb     N1   58   8.833  10.387   7.777  0.0261 -0.7886 -0.1449
    3bbb     C1   59   8.916  10.433   7.660  0.2855  0.3935 -0.0348
    3bbb     H1   60   8.862  10.385   7.577 -0.5195  0.3834  0.4848
    3bbb     H2   61   9.014  10.384   7.659  1.3499  2.4066 -1.1101
    3bbb     C2   62   8.888  10.424   7.911  0.0828  0.2525 -0.2781
    3bbb     H3   63   8.818  10.390   7.988  2.3973 -0.7035  1.5532
    3bbb     H4   64   8.891  10.533   7.917  1.0757  0.2452 -0.4282
    3bbb     C3   65   8.802  10.246   7.772  0.1926  0.2945  0.0756
    3bbb     H5   66   8.893  10.184   7.770  0.1251  0.2148 -1.5253
    3bbb     H6   67   8.748  10.244   7.677 -1.3016 -0.0674  0.8980
    3bbb     C4   68   8.711  10.189   7.886  0.3207 -0.5720 -0.1690
    3bbb     H7   69   8.628  10.259   7.906  0.4167  0.1276 -1.9396
    3bbb     H8   70   8.775  10.194   7.974  0.5700  0.9580 -0.4124
    3bbb     C5   71   8.924  10.589   7.635  0.3101 -0.7106  0.0541
    3bbb     H9   72   8.940  10.645   7.728 -1.2451  0.5361 -0.3696
    3bbb    H10   73   8.825  10.626   7.603 -0.0055  0.7525  2.4785
    3bbb     C6   74   9.034  10.372   7.948  0.3555 -0.1521 -0.7336
    3bbb    H11   75   9.102  10.414   7.872  0.8416  0.9485  0.2683
    3bbb    H12   76   9.041  10.265   7.927  1.7945 -0.0046 -1.1288
    3bbb     C7   77   8.659  10.044   7.857 -0.2835  0.0250  0.2040
    3bbb    H13   78   8.595  10.046   7.768  1.5584  1.6027 -1.1562
    3bbb    H14   79   8.609  10.013   7.950  1.2615  0.2784  1.1658
    3bbb     C8   80   9.094  10.412   8.088  0.3565  0.1556 -0.0504
    3bbb    H15   81   9.082  10.519   8.108  1.4923  0.3008 -0.0659
    3bbb    H16   82   9.202  10.392   8.094  0.4078  0.7726  1.8093
    3bbb     C9   83   9.040  10.622   7.537  0.4659  0.0625 -0.2693
    3bbb    H17   84   9.137  10.585   7.572  0.0876  0.5715  1.4099
    3bbb    H18   85   9.029  10.727   7.507 -1.5022 -0.0876 -0.1683
    3bbb     O1   86   8.773   9.965   7.841  0.2957 -0.1427  0.3097
    4bbb     N1   87   9.060   9.193   7.689 -0.0422  0.1347  0.2334
    4bbb     C1   88   9.090   9.051   7.723  0.4884 -0.7709 -0.6328
    4bbb     H1   89   9.140   9.006   7.636  0.6215  2.4493 -2.3996
    4bbb     H2   90   9.004   8.986   7.743 -0.4026 -0.0501 -1.9329
    4bbb     C2   91   8.967   9.221   7.566  0.9391  0.3351 -0.1452
    4bbb     H3   92   9.008   9.160   7.485  1.1127 -2.8774  2.1796
    4bbb     H4   93   8.963   9.328   7.543  3.4424  0.3671 -0.6042
    4bbb     C3   94   9.166   9.298   7.692  0.0416 -0.4803  0.2395
    4bbb     H5   95   9.212   9.307   7.791 -0.2696  2.1074  0.2054
    4bbb     H6   96   9.119   9.395   7.672 -0.8300 -1.1752 -1.2844
    4bbb     C4   97   9.276   9.278   7.580 -0.0612  0.0235  0.2167
    4bbb     H7   98   9.309   9.173   7.585 -0.6173 -0.0991  3.3898
    4bbb     H8   99   9.362   9.339   7.610  0.3444 -0.2612 -0.3375
    4bbb     C5  100   9.191   9.043   7.841 -0.5637  0.0501 -0.4934
    4bbb     H9  101   9.285   9.095   7.819  0.7905 -1.0204  2.1817
    4bbb    H10  102   9.207   8.937   7.865 -0.9782  0.1467  0.2472
    4bbb     C6  103   8.828   9.169   7.578 -0.1699 -0.2096 -0.0637
    4bbb    H11  104   8.760   9.248   7.612 -0.9702 -1.1242  0.5249
    4bbb    H12  105   8.824   9.100   7.663 -0.2982  0.0444  0.1367
    4bbb     C7  106   9.238   9.321   7.435 -0.8329 -0.7475 -0.3084
    4bbb    H13  107   9.177   9.243   7.387 -0.9522 -0.1733 -1.1219
    4bbb    H14  108   9.334   9.324   7.382 -0.2800 -0.1585  0.7002
    4bbb     C8  109   8.780   9.091   7.452  0.0844 -0.7088  1.0796
    4bbb    H15  110   8.800   9.150   7.362 -0.5031 -2.1790 -0.0579
    4bbb    H16  111   8.672   9.074   7.451  0.0339 -0.9354 -2.4622
    4bbb     C9  112   9.142   9.108   7.973  0.1904  0.0830 -0.1188
    4bbb    H17  113   9.064   9.038   8.005 -1.6471  1.4685 -1.3671
    4bbb    H18  114   9.104   9.207   7.946 -0.7361 -0.7740 -2.1940
    4bbb     O1  115   9.178   9.451   7.435  0.2962 -0.5713  1.1641
    5bbb     N1  116   9.464   9.521   6.550 -0.3055 -0.1525 -0.3028
    5bbb     C1  117   9.529   9.589   6.435  0.3547 -0.4138  0.6267
    5bbb     H1  118   9.591   9.671   6.473 -0.7933 -0.0858  1.9054
    5bbb     H2  119   9.455   9.635   6.368  0.1521 -2.1467 -0.3886
    5bbb     C2  120   9.555   9.438   6.626  0.3122  0.8710  0.2791
    5bbb     H3  121   9.594   9.363   6.556  0.6258  0.9274  0.3926
    5bbb     H4  122   9.500   9.376   6.699  0.5291 -0.6590 -0.8083
    5bbb     C3  123   9.383   9.609   6.635  0.6044 -0.7974  0.1357
    5bbb     H5  124   9.449   9.682   6.686  0.0440 -1.0160  1.2057
    5bbb     H6  125   9.341   9.552   6.719 -0.2730  0.2032  0.3956
    5bbb     C4  126   9.280   9.697   6.559 -0.6233  0.7614 -0.7636
    5bbb     H7  127   9.240   9.621   6.491  0.5365 -1.0320  0.4865
    5bbb     H8  128   9.331   9.770   6.496  1.0717  0.4913  0.2508
    5bbb     C5  129   9.604   9.489   6.351 -0.0153 -0.0378  0.5141
    5bbb     H9  130   9.541   9.402   6.329  1.0857 -0.2733 -2.1507
    5bbb    H10  131   9.693   9.452   6.403  0.5336  0.3802 -0.1002
    5bbb     C6  132   9.668   9.515   6.698  0.2729  0.2266 -0.7488
    5bbb    H11  133   9.619   9.590   6.762 -0.0803 -0.1043 -0.6280
    5bbb    H12  134   9.734   9.569   6.629 -0.7198 -0.5173 -2.3562
    5bbb     C7  135   9.174   9.755   6.653  0.2514 -0.7615 -0.9489
    5bbb    H13  136   9.127   9.681   6.718  0.0289 -0.7920 -1.1438
    5bbb    H14  137   9.101   9.804   6.587  1.5321 -0.2972 -2.0628
    5bbb     C8  138   9.754   9.423   6.781 -0.3582  0.5035 -0.1588
    5bbb    H15  139   9.785   9.338   6.718 -1.1125  0.1263 -0.0325
    5bbb    H16  140   9.706   9.368   6.862  1.6029 -1.5376 -0.2566
    5bbb     C9  141   9.640   9.533   6.204  0.4448 -0.0728 -1.0676
    5bbb    H17  142   9.549   9.564   6.152  0.1758 -1.4455 -1.4462
    5bbb    H18  143   9.679   9.447   6.148 -1.2199 -2.6070  1.3808
    5bbb     O1  144   9.234   9.870   6.728  0.3476  0.2156  0.4886
    6bbb     N1  145   9.023   9.228   6.943  0.1912 -0.6374  0.2813
    6bbb     C1  146   9.000   9.307   6.825  0.8497  0.4736  0.1065
    6bbb     H1  147   8.918   9.258   6.770  0.4659  1.4625 -0.2222
    6bbb     H2  148   9.083   9.292   6.755 -0.7603 -2.9172 -1.2918
    6bbb     C2  149   8.918   9.203   7.037  0.1481 -0.2205  0.5047
    6bbb     H3  150   8.894   9.295   7.091 -0.0751 -0.3389  0.6091
    6bbb     H4  151   8.965   9.147   7.118 -1.5736 -2.3482  0.1333
    6bbb     C3  152   9.147   9.274   7.019 -0.6411  0.8420  0.2882
    6bbb     H5  153   9.164   9.207   7.104 -0.0227  0.9552  0.2586
    6bbb     H6  154   9.133   9.376   7.056 -1.3280  1.3545 -1.2648
    6bbb     C4  155   9.282   9.281   6.939 -0.6167  0.4106 -0.7768
    6bbb     H7  156   9.282   9.361   6.864  1.4682  1.4093  0.2059
    6bbb     H8  157   9.303   9.182   6.897 -1.0224 -0.2591  0.5373
    6bbb     C5  158   8.982   9.458   6.841 -0.2573  0.8803 -0.3598
    6bbb     H9  159   9.078   9.510   6.837  0.6859 -0.7196  0.3536
    6bbb    H10  160   8.943   9.483   6.940  1.9703  1.9303  0.3197
    6bbb     C6  161   8.793   9.128   6.984 -0.8291  0.1557 -0.2914
    6bbb    H11  162   8.727   9.188   6.919 -1.9915  0.4732  1.1383
    6bbb    H12  163   8.733   9.095   7.069  1.0075 -0.1779  0.9188
    6bbb     C7  164   9.402   9.305   7.030  0.7487  0.0265  0.9291
    6bbb    H13  165   9.490   9.304   6.965 -0.0716 -1.2821 -0.2255
    6bbb    H14  166   9.417   9.222   7.100 -0.9850  0.2521  1.6315
    6bbb     C8  167   8.809   9.000   6.894  0.1937  0.3525 -0.6147
    6bbb    H15  168   8.871   9.033   6.810  0.5685  0.9419 -0.1165
    6bbb    H16  169   8.708   8.971   6.862  0.3438 -0.4053 -0.4148
    6bbb     C9  170   8.889   9.523   6.741  0.1710  0.2230  0.0740
    6bbb    H17  171   8.934   9.507   6.642 -1.4621 -1.7740 -0.4043
    6bbb    H18  172   8.890   9.631   6.763 -0.2675 -0.3664  3.4534
    6bbb     O1  173   9.382   9.434   7.090 -0.1667 -0.1992 -0.7908
    7bbb     N1  174   8.957  10.089   8.544  0.4777  0.1140  0.2286
    7bbb     C1  175   8.810  10.123   8.523  0.8173  0.3287 -0.2258
    7bbb     H1  176   8.783  10.072   8.430 -1.3402  0.5564  0.2295
    7bbb     H2  177   8.784  10.229   8.512 -1.6744 -0.4462 -3.1886
    7bbb     C2  178   9.010  10.099   8.682  0.6044 -0.7034  0.4433
    7bbb     H3  179   8.960  10.028   8.749  1.5564 -1.0639  0.7832
    7bbb     H4  180   8.979  10.197   8.720  1.9793 -0.0160 -0.1592
    7bbb     C3  181   9.037  10.169   8.439  0.1766 -0.4551 -0.6283
    7bbb     H5  182   9.146  10.169   8.451  0.1352  1.3968  0.0109
    7bbb     H6  183   9.004  10.273   8.441 -0.7625 -0.7464  0.0648
    7bbb     C4  184   9.014  10.113   8.299 -0.4113 -0.8653  0.7854
    7bbb     H7  185   8.908  10.104   8.274  0.2183 -0.3718 -2.4781
    7bbb     H8  186   9.055  10.013   8.277  1.5059  0.0078  0.1638
    7bbb     C5  187   8.708  10.056   8.623  0.2372  0.4896 -0.7700
    7bbb     H9  188   8.717  10.093   8.726  0.2171  0.0738 -0.6197
    7bbb    H10  189   8.723   9.948   8.619  2.0552  0.7291 -2.1550
    7bbb     C6  190   9.169  10.085   8.687 -0.8348 -0.3278  0.2242
    7bbb    H11  191   9.225  10.175   8.660 -0.9067 -0.7315 -1.4169
    7bbb    H12  192   9.204  10.001   8.625 -0.1551  0.9338 -1.1605
    7bbb     C7  193   9.083  10.197   8.184  0.4854  0.6146 -0.0227
    7bbb    H13  194   9.054  10.136   8.097  0.2821  0.3620  0.2213
    7bbb    H14  195   9.191  10.189   8.198  0.3847  0.0282  0.4404
    7bbb     C8  196   9.202  10.058   8.840  0.1594  0.4477  0.4263
    7bbb    H15  197   9.160   9.964   8.879 -1.9405  2.0945  2.4071
    7bbb    H16  198   9.154  10.134   8.902  0.6182 -0.4750  1.9467
    7bbb     C9  199   8.565  10.090   8.584  0.0791  0.0907  0.1169
    7bbb    H17  200   8.494  10.048   8.656 -1.4707  1.8814 -0.2652
    7bbb    H18  201   8.546  10.058   8.481 -0.2937  0.7928 -0.0449
    7bbb     O1  202   9.035  10.327   8.182 -0.2982 -0.1346 -0.7633
    8bbb     N1  203   9.213  10.424   6.998  0.2481  0.0280 -0.1231
    8bbb     C1  204   9.248  10.571   6.984  0.8014 -0.2588 -0.5834
    8bbb     H1  205   9.354  10.598   6.998  0.2829  1.4533  0.2217
    8bbb     H2  206   9.204  10.636   7.060  1.8138 -0.7539  0.4638
    8bbb     C2  207   9.296  10.336   6.918 -0.0128 -0.5904 -0.7979
    8bbb     H3  208   9.298  10.363   6.812  2.4447  1.6943 -0.2687
    8bbb     H4  209   9.268  10.231   6.932  3.2305 -1.8333 -2.5288
    8bbb     C3  210   9.197  10.376   7.143  0.6361 -0.9804  0.2208
    8bbb     H5  211   9.291  10.379   7.199  0.9247  0.8663 -0.2903
    8bbb     H6  212   9.176  10.270   7.158  1.8899 -0.9377  2.8745
    8bbb     C4  213   9.075  10.443   7.212  0.3295 -0.1785 -0.1168
    8bbb     H7  214   8.998  10.371   7.243  0.5450  0.8078  3.0637
    8bbb     H8  215   9.029  10.526   7.158 -0.0673 -0.1107  0.3226
    8bbb     C5  216   9.201  10.635   6.847  0.8135  0.4809  0.0687
    8bbb     H9  217   9.234  10.571   6.764 -1.0979  0.2251 -0.5395
    8bbb    H10  218   9.239  10.738   6.844 -1.5299  1.4538  1.2434
    8bbb     C6  219   9.446  10.312   6.970 -0.2524 -0.6698  0.2307
    8bbb    H11  220   9.442  10.268   7.071 -1.7024  0.0502  0.5162
    8bbb    H12  221   9.491  10.411   6.989 -0.2296 -0.0736 -2.4945
    8bbb     C7  222   9.122  10.513   7.340  0.7247 -0.0025  0.6673
    8bbb    H13  223   9.175  10.602   7.305 -1.7661  1.1166 -0.5743
    8bbb    H14  224   9.180  10.440   7.399  1.8115  0.7969  0.6173
    8bbb     C8  225   9.528  10.236   6.860  0.4234  0.5666  0.1725
    8bbb    H15  226   9.554  10.294   6.771  2.3387 -1.4385 -0.6737
    8bbb    H16  227   9.466  10.152   6.826  0.2756  1.9115 -3.2863
    8bbb     C9  228   9.045  10.634   6.855 -0.0612 -0.1126 -0.1529
    8bbb    H17  229   9.007  10.575   6.940 -0.9449 -1.0174 -1.1523
    8bbb    H18  230   9.010  10.588   6.762  1.9023 -1.6859 -0.1999
    8bbb     O1  231   9.006  10.558   7.410  0.7391  0.4263 -1.0488
    9bbb     N1  232   9.128   8.644   7.410  0.4834  0.1849 -0.0062
    9bbb     C1  233   9.076   8.506   7.419  0.2607  0.2704 -1.0247
    9bbb     H1  234   8.975   8.498   7.376 -0.1283  1.2780 -0.3470
    9bbb     H2  235   9.072   8.484   7.526 -1.4507  1.4861 -0.7866
    9bbb     C2  236   9.270   8.669   7.444 -0.6368  0.1463  0.7266
    9bbb     H3  237   9.297   8.773   7.421 -1.2544  0.2190  0.3189
    9bbb     H4  238   9.337   8.612   7.378 -0.8682 -0.0548  0.6641
    9bbb     C3  239   9.025   8.747   7.462 -0.1477 -0.3534  0.1400
    9bbb     H5  240   9.073   8.845   7.468  0.6826 -0.6495 -1.1197
    9bbb     H6  241   8.985   8.717   7.560 -2.2413  1.2881 -0.1558
    9bbb     C4  242   8.914   8.752   7.350  0.5042  0.4526 -0.1095
    9bbb     H7  243   8.835   8.679   7.373 -0.8247  1.4248 -1.3897
    9bbb     H8  244   8.942   8.731   7.246 -1.0690 -0.4075 -0.4036
    9bbb     C5  245   9.148   8.392   7.350  0.0397 -0.2416  0.2341
    9bbb     H9  246   9.242   8.376   7.404 -0.6428  0.6431  1.7590
    9bbb    H10  247   9.176   8.425   7.250  2.7368 -1.6259  0.4367
    9bbb     C6  248   9.307   8.630   7.591 -0.1151 -0.4250 -0.0725
    9bbb    H11  249   9.293   8.522   7.582  1.1799 -0.4891 -2.0328
    9bbb    H12  250   9.235   8.678   7.658 -1.4053 -1.4124 -0.6916
    9bbb     C7  251   8.860   8.898   7.327  0.1106 -0.1350 -0.1138
    9bbb    H13  252   8.759   8.895   7.283 -0.1758 -0.4241  0.5391
    9bbb    H14  253   8.928   8.955   7.263  4.5417 -0.8583  3.4425
    9bbb     C8  254   9.452   8.643   7.630  0.7456 -0.0041  0.3560
    9bbb    H15  255   9.466   8.631   7.738  1.4543  2.1770  0.5433
    9bbb    H16  256   9.487   8.743   7.602  0.9764 -0.1019  0.2966
    9bbb     C9  257   9.080   8.259   7.338  0.9527 -0.1334  0.3707
    9bbb    H17  258   9.064   8.215   7.437  0.8779  0.3270  0.5656
    9bbb    H18  259   9.138   8.195   7.271  3.0760  1.3643  0.6775
    9bbb     O1  260   8.849   8.966   7.452  0.1411 -0.1690 -0.1583
   10bbb     N1  261   9.195   9.032   8.551  0.3388  0.2591  0.5949
   10bbb     C1  262   9.052   9.053   8.581 -0.0650 -0.8838  0.1989
   10bbb     H1  263   9.032   8.987   8.666  0.3173  0.9079  1.7323
   10bbb     H2  264   8.986   9.031   8.496  1.2803 -1.7141 -0.6641
   10bbb     C2  265   9.272   9.018   8.678  0.1730 -0.2061 -0.3867
   10bbb     H3  266   9.210   8.956   8.744 -1.9776  1.3291 -0.8493
   10bbb     H4  267   9.275   9.119   8.720  0.7222 -0.6910  0.7861
   10bbb     C3  268   9.258   9.113   8.440  0.2118  0.1034 -0.3024
   10bbb     H5  269   9.361   9.086   8.416  0.7885  1.5510  0.3987
   10bbb     H6  270   9.250   9.219   8.466 -1.0844  0.4018 -1.7967
   10bbb     C4  271   9.179   9.097   8.304 -0.0430 -0.0824 -0.0084
   10bbb     H7  272   9.075   9.128   8.316 -0.0171 -0.5719  1.8460
   10bbb     H8  273   9.175   8.990   8.280  1.0054  0.0220 -0.7327
   10bbb     C5  274   9.020   9.201   8.629  0.0279 -0.2318  0.2117
   10bbb     H9  275   8.988   9.247   8.535 -0.0083  1.3105  0.9455
   10bbb    H10  276   9.107   9.261   8.659  0.1139 -1.1692  2.0002
   10bbb     C6  277   9.416   8.968   8.670  0.2932  0.5163  0.2638
   10bbb    H11  278   9.480   9.025   8.602 -0.9152  0.2240 -1.1787
   10bbb    H12  279   9.416   8.864   8.635 -0.0303  0.7500 -0.4586
   10bbb     C7  280   9.244   9.183   8.190  0.3287  0.1575  0.0226
   10bbb    H13  281   9.345   9.209   8.223 -0.1946 -1.4723  3.2418
   10bbb    H14  282   9.188   9.277   8.180  0.5213  0.2957  0.2313
   10bbb     C8  283   9.492   8.978   8.807 -0.4211 -0.5170  0.3821
   10bbb    H15  284   9.592   8.935   8.797  0.7296  1.8566  1.1056
   10bbb    H16  285   9.438   8.932   8.892  0.1519  0.5536  1.3589
   10bbb     C9  286   8.913   9.207   8.737  0.0194 -0.4035 -0.1302
   10bbb    H17  287   8.821   9.152   8.712  0.0852 -1.1648  1.2035
   10bbb    H18  288   8.878   9.308   8.762  2.1222 -0.2109  2.4609
   10bbb     O1  289   9.253   9.109   8.069  0.6523 -0.2167  0.3788
   11bbb     N1  290  10.266   9.610   6.710  0.2208 -0.0361  0.3525
   11bbb     C1  291  10.294   9.749   6.664  0.0175 -0.0865 -0.0887
   11bbb     H1  292  10.256   9.763   6.562  1.4419 -1.8998 -0.9460
   11bbb     H2  293  10.404   9.752   6.653  0.0050 -1.7432 -1.0315
   11bbb     C2  294  10.321   9.502   6.629  0.1034  0.1125  0.6415
   11bbb     H3  295  10.420   9.535   6.594 -0.2783  1.2002  0.5447
   11bbb     H4  296  10.268   9.507   6.533  1.2186  0.6132  0.0254
   11bbb     C3  297  10.125   9.593   6.745  0.0424  0.2798 -0.3251
   11bbb     H5  298  10.074   9.536   6.666 -1.4854  0.4920  0.4663
   11bbb     H6  299  10.073   9.690   6.747 -0.9095 -0.2213  0.1421
   11bbb     C4  300  10.105   9.527   6.891 -0.7385 -0.5282  0.2893
   11bbb     H7  301  10.093   9.604   6.969 -0.0061  0.5630 -0.6469
   11bbb     H8  302  10.189   9.467   6.928 -0.0137  0.3936  0.1779
   11bbb     C5  303  10.244   9.862   6.757 -0.1350 -0.7268 -0.5218
   11bbb     H9  304  10.135   9.874   6.761  0.1299  2.2258 -0.1281
   11bbb    H10  305  10.278   9.952   6.705 -1.4373 -0.7858 -1.5231
   11bbb     C6  306  10.325   9.361   6.695 -0.2688 -0.2108 -0.4721
   11bbb    H11  307  10.225   9.319   6.711 -0.9812  2.4429  3.5963
   11bbb    H12  308  10.362   9.369   6.798  0.0372  0.5343 -0.6360
   11bbb     C7  309   9.976   9.441   6.886 -0.3479 -1.1830 -0.1509
   11bbb    H13  310   9.952   9.410   6.988 -3.5946 -2.3305 -1.1576
   11bbb    H14  311  10.004   9.348   6.834  1.2736  0.0330 -1.5588
   11bbb     C8  312  10.414   9.264   6.616 -0.1256 -0.1209  0.9653
   11bbb    H15  313  10.369   9.239   6.520 -0.7433  0.3964  1.1155
   11bbb    H16  314  10.414   9.170   6.673  1.3836 -2.3312 -2.3884
   11bbb     C9  315  10.289   9.856   6.910 -0.2970 -0.0375 -0.2490
   11bbb    H17  316  10.392   9.820   6.916  0.3367  1.5407 -1.1200
   11bbb    H18  317  10.224   9.783   6.960  0.7670  0.6822  2.3457
   11bbb     O1  318   9.864   9.506   6.827 -0.1556 -0.3645 -0.8552
   12bbb     N1  319   9.454   9.904   6.021  0.2743  0.2232  0.8935
   12bbb     C1  320   9.371   9.984   6.114 -0.2055  0.1324 -0.3294
   12bbb     H1  321   9.296  10.041   6.057 -0.1813  0.6668  0.1566
   12bbb     H2  322   9.434  10.069   6.146  1.2570  0.6296 -3.9755
   12bbb     C2  323   9.468   9.975   5.890  0.4864 -0.1748 -0.9712
   12bbb     H3  324   9.532   9.915   5.823  0.3764 -1.4981  0.0660
   12bbb     H4  325   9.510  10.075   5.903  1.7031 -0.8623  0.7475
   12bbb     C3  326   9.583   9.853   6.080  0.7041 -0.0464 -0.1383
   12bbb     H5  327   9.551   9.814   6.177 -1.3444  1.6459 -0.0368
   12bbb     H6  328   9.650   9.938   6.099  0.8362 -0.2701  0.4033
   12bbb     C4  329   9.665   9.745   5.996  0.6607 -0.0608 -0.0906
   12bbb     H7  330   9.700   9.785   5.900 -0.0958  0.9613  0.0457
   12bbb     H8  331   9.595   9.664   5.975  1.7322 -1.4557  1.3862
   12bbb     C5  332   9.311   9.915   6.239  0.7283 -0.5600  0.3276
   12bbb     H9  333   9.396   9.892   6.305  0.3654  0.9724  1.3963
   12bbb    H10  334   9.269   9.819   6.208  1.1213 -0.4851 -0.4643
   12bbb     C6  335   9.346   9.998   5.803  0.2375  0.5304  0.1180
   12bbb    H11  336   9.278  10.071   5.847 -1.4451 -0.9461  0.0502
   12bbb    H12  337   9.290   9.905   5.785  1.7426 -0.2704 -0.6812
   12bbb     C7  338   9.786   9.679   6.072  0.5710  0.2256  0.3931
   12bbb    H13  339   9.862   9.758   6.080 -0.6553  1.4156  0.5300
   12bbb    H14  340   9.824   9.599   6.007 -1.3028 -0.3466 -0.0448
   12bbb     C8  341   9.386  10.042   5.663 -0.5757 -0.9771  0.0098
   12bbb    H15  342   9.448   9.960   5.626  1.4928 -0.0344  1.2152
   12bbb    H16  343   9.441  10.137   5.666  0.3107 -1.5021  1.1246
   12bbb     C9  344   9.204  10.005   6.306  0.8104 -0.7109 -0.7950
   12bbb    H17  345   9.140   9.944   6.372  0.8951 -0.3554 -0.3837
   12bbb    H18  346   9.136  10.054   6.235  0.1256 -1.4280 -0.6586
   12bbb     O1  347   9.740   9.632   6.205 -0.4711  0.1408  0.2808
   13bbb     N1  348   8.920   8.477   6.794 -0.5302 -0.1507 -0.7382
   13bbb     C1  349   8.882   8.531   6.662 -0.4384  0.9524  0.0552
   13bbb     H1  350   8.939   8.624   6.647  1.1595 -0.3309 -2.6437
   13bbb     H2  351   8.775   8.550   6.652 -0.5908 -0.6384 -2.0517
   13bbb     C2  352   9.068   8.457   6.813  0.0685 -0.8596 -0.5779
   13bbb     H3  353   9.113   8.555   6.832 -1.6157 -0.7781  4.6526
   13bbb     H4  354   9.113   8.419   6.720  1.9634 -1.3079  0.4609
   13bbb     C3  355   8.837   8.515   6.909  0.5169  0.5575 -0.4024
   13bbb     H5  356   8.851   8.437   6.985 -0.4062 -1.4409 -2.1961
   13bbb     H6  357   8.734   8.508   6.873  0.0236  3.3260  0.2086
   13bbb     C4  358   8.878   8.647   6.983 -0.1926 -0.5778 -0.1259
   13bbb     H7  359   8.984   8.639   7.008  0.2312 -2.4211 -2.2549
   13bbb     H8  360   8.831   8.653   7.082  2.6296  0.6559  1.2546
   13bbb     C5  361   8.921   8.442   6.544  0.2549 -0.2219 -0.6477
   13bbb     H9  362   9.031   8.439   6.539  0.2095 -0.4393 -1.5745
   13bbb    H10  363   8.891   8.493   6.452 -2.2834 -0.3656  0.0248
   13bbb     C6  364   9.109   8.360   6.928 -0.1141  0.6288  0.2658
   13bbb    H11  365   9.070   8.260   6.904  1.0414  0.7612 -2.4730
   13bbb    H12  366   9.057   8.388   7.021 -1.1176 -0.5520  0.0934
   13bbb     C7  367   8.849   8.764   6.895  0.3074 -0.3238 -0.3072
   13bbb    H13  368   8.752   8.747   6.847  0.3287 -2.1193  0.1995
   13bbb    H14  369   8.921   8.767   6.812 -0.8478  3.9378 -1.4170
   13bbb     C8  370   9.257   8.359   6.948 -0.0811  0.2552  0.3331
   13bbb    H15  371   9.277   8.455   6.996 -2.0912  0.8197  0.1403
   13bbb    H16  372   9.306   8.357   6.850 -1.1313  1.3793 -0.2371
   13bbb     C9  373   8.850   8.306   6.542 -0.2177  0.0622  0.0682
   13bbb    H17  374   8.745   8.325   6.515 -0.2047 -1.6224 -1.3190
   13bbb    H18  375   8.858   8.275   6.647 -0.0305  2.8045  0.9351
   13bbb     O1  376   8.862   8.888   6.976 -0.4784 -0.1947 -0.4523
   14bbb     N1  377   8.315   9.374   6.712 -0.2615  0.5434  0.5067
   14bbb     C1  378   8.231   9.350   6.588 -0.7833  0.2389  1.1014
   14bbb     H1  379   8.235   9.441   6.526 -2.2739 -0.7168 -0.4931
   14bbb     H2  380   8.126   9.339   6.618 -1.1788  1.5701  0.3215
   14bbb     C2  381   8.262   9.479   6.804  0.3567  0.4566 -0.0129
   14bbb     H3  382   8.157   9.493   6.777  0.2062 -0.6663 -0.0177
   14bbb     H4  383   8.321   9.572   6.798  0.0512  0.8766  2.3747
   14bbb     C3  384   8.469   9.367   6.713  0.4860 -1.4999  0.1039
   14bbb     H5  385   8.504   9.283   6.651  1.4172 -0.2671 -1.0816
   14bbb     H6  386   8.507   9.350   6.815  2.0770  0.2199 -0.1490
   14bbb     C4  387   8.526   9.494   6.656  0.0008 -0.3791  0.2394
   14bbb     H7  388   8.514   9.587   6.714  0.8331  0.4167 -0.8109
   14bbb     H8  389   8.481   9.497   6.556  0.4653 -1.0152  0.0084
   14bbb     C5  390   8.282   9.224   6.501 -0.0196 -0.2038 -0.8839
   14bbb     H9  391   8.286   9.135   6.564  2.0168  1.4812  1.5685
   14bbb    H10  392   8.386   9.236   6.471 -0.0121 -0.9844 -1.1931
   14bbb     C6  393   8.266   9.446   6.956  0.2830  0.4381 -0.2242
   14bbb    H11  394   8.340   9.366   6.969 -0.5069 -0.5629 -1.5345
   14bbb    H12  395   8.168   9.399   6.968  0.1553  0.6740 -0.3295
   14bbb     C7  396   8.676   9.474   6.630 -0.4247  0.5000  0.2265
   14bbb    H13  397   8.708   9.557   6.566  0.1252 -0.8883 -1.3784
   14bbb    H14  398   8.688   9.379   6.576 -0.3064  1.4354 -1.4402
   14bbb     C8  399   8.272   9.555   7.064 -0.6024 -0.3577 -0.0674
   14bbb    H15  400   8.365   9.610   7.047 -0.8080  0.5880  1.7044
   14bbb    H16  401   8.275   9.516   7.167  1.0728  0.7720  0.3506
   14bbb     C9  402   8.189   9.190   6.381 -0.2441  0.0515  0.2776
   14bbb    H17  403   8.150   9.284   6.341 -1.5872 -0.8078 -0.4809
   14bbb    H18  404   8.100   9.136   6.415  1.9162 -3.0122  1.5404
   14bbb     O1  405   8.753   9.482   6.760 -0.5976  0.3794 -0.5885
   15bbb     N1  406   9.752   9.967   9.108  0.2581  0.0200  0.0659
   15bbb     C1  407   9.761   9.823   9.057  0.2628 -0.1457  0.2837
   15bbb     H1  408   9.735   9.813   8.951  4.3729  1.0049 -1.0305
   15bbb     H2  409   9.687   9.767   9.115 -0.7070  0.2163 -0.5779
   15bbb     C2  410   9.850  10.058   9.041  0.4844  0.5025  0.1866
   15bbb     H3  411   9.845  10.048   8.932  1.9101 -0.5387  0.1905
   15bbb     H4  412   9.950  10.026   9.072 -0.9539 -1.5011  3.1451
   15bbb     C3  413   9.608  10.013   9.115  0.0570 -0.4693 -0.2233
   15bbb     H5  414   9.592  10.098   9.182 -2.3759 -2.5418  2.0465
   15bbb     H6  415   9.552   9.944   9.179  0.8890  0.8138  1.9667
   15bbb     C4  416   9.549  10.050   8.981 -0.4265 -0.9179 -0.1162
   15bbb     H7  417   9.561   9.974   8.903 -0.0837 -0.1241 -0.8569
   15bbb     H8  418   9.580  10.149   8.946 -2.8612 -0.0474 -0.0271
   15bbb     C5  419   9.894   9.745   9.072 -0.2825  0.1410  0.4030
   15bbb     H9  420   9.926   9.763   9.175  0.4528  1.6546 -0.0475
   15bbb    H10  421   9.972   9.793   9.011 -0.3733 -1.3001 -0.9205
   15bbb     C6  422   9.844  10.204   9.083 -0.3459  0.6912  0.0706
   15bbb    H11  423   9.835  10.203   9.193  0.5443 -0.6866  0.1555
   15bbb    H12  424   9.751  10.240   9.038 -0.6839  0.1544  0.3283
   15bbb     C7  425   9.395  10.053   8.988  0.1039  0.5061  0.1194
   15bbb    H13  426   9.351  10.124   9.058 -2.7080  0.1543 -1.1682
   15bbb    H14  427   9.368   9.951   9.017 -0.2598 -0.2400 -2.5518
   15bbb     C8  428   9.971  10.278   9.031 -0.0346 -0.0288 -0.5749
   15bbb    H15  429   9.966  10.264   8.922 -1.5735 -1.1281 -0.3842
   15bbb    H16  430  10.060  10.225   9.069  0.5703  0.4284 -1.3179
   15bbb     C9  431   9.893   9.591   9.047  0.4297 -0.2402  0.4558
   15bbb    H17  432   9.868   9.558   8.945 -0.6186 -2.6688  1.4280
   15bbb    H18  433   9.824   9.543   9.117  0.3130  0.1597  0.6178
   15bbb     O1  434   9.348  10.067   8.854  0.3698  0.5333 -0.0486
   16bbb     N1  435   8.439  10.680   8.728  0.0228  0.4326 -0.5350
   16bbb     C1  436   8.309  10.698   8.781  0.4491 -0.2550 -0.0937
   16bbb     H1  437   8.236  10.660   8.709  0.3859  0.5346 -0.4683
   16bbb     H2  438   8.290  10.806   8.789  1.0303 -0.2009  0.7115
   16bbb     C2  439   8.433  10.715   8.581 -0.1283 -0.1201 -0.3100
   16bbb     H3  440   8.386  10.635   8.523 -1.7405  0.3842  0.2286
   16bbb     H4  441   8.538  10.711   8.548  0.9025 -2.3577  2.7654
   16bbb     C3  442   8.515  10.559   8.759 -0.6314 -0.3790 -0.8271
   16bbb     H5  443   8.520  10.539   8.867 -0.2677 -0.3682 -0.8388
   16bbb     H6  444   8.620  10.576   8.732 -0.5188  3.3192  1.3451
   16bbb     C4  445   8.462  10.442   8.671  0.0822 -0.1170  0.3700
   16bbb     H7  446   8.502  10.463   8.571 -1.8137  1.3601 -0.1464
   16bbb     H8  447   8.353  10.434   8.658 -0.1843  1.8675  1.0139
   16bbb     C5  448   8.287  10.632   8.918  0.0098 -0.0359 -0.1241
   16bbb     H9  449   8.297  10.524   8.903  0.2606 -0.0416  0.0864
   16bbb    H10  450   8.180  10.640   8.942  0.3547  0.2720  1.4192
   16bbb     C6  451   8.375  10.853   8.547 -0.2859 -0.1895  0.5598
   16bbb    H11  452   8.406  10.932   8.616 -1.3753 -1.0728  2.1087
   16bbb    H12  453   8.266  10.856   8.553 -0.4190 -0.7568 -0.9702
   16bbb     C7  454   8.516  10.303   8.703  0.2019  0.1989  0.1003
   16bbb    H13  455   8.440  10.257   8.768  1.5483 -0.4306  1.2648
   16bbb    H14  456   8.606  10.315   8.764  0.8411  1.1111 -0.9846
   16bbb     C8  457   8.405  10.902   8.401 -0.4945 -0.2191 -0.0111
   16bbb    H15  458   8.347  10.988   8.365 -2.1124 -2.0489 -2.0697
   16bbb    H16  459   8.380  10.823   8.328 -1.6325 -1.8358  2.0214
   16bbb     C9  460   8.369  10.673   9.039  0.4458  0.1085 -0.6319
   16bbb    H17  461   8.341  10.776   9.062 -2.4567 -0.3519 -1.7311
   16bbb    H18  462   8.477  10.667   9.021  0.7416 -0.2631  1.1039
   16bbb     O1  463   8.551  10.239   8.571 -0.1141  0.3418 -0.4740
   17bbb     N1  464   9.775  10.000   6.549 -0.0609 -0.2629  0.5454
   17bbb     C1  465   9.827   9.916   6.437 -1.3501  0.6054 -0.1824
   17bbb     H1  466   9.835   9.979   6.347 -2.0086  0.7415 -0.1457
   17bbb     H2  467   9.761   9.830   6.424 -0.8041  0.2082 -0.3934
   17bbb     C2  468   9.642  10.062   6.511  0.0172  0.0058  0.4649
   17bbb     H3  469   9.600  10.108   6.602 -0.8604 -0.5943  0.3847
   17bbb     H4  470   9.568   9.982   6.496 -0.4174  0.3824  0.5699
   17bbb     C3  471   9.779   9.917   6.676  0.9925  0.0619 -0.0306
   17bbb     H5  472   9.884   9.919   6.707  0.9766 -3.0997  0.5296
   17bbb     H6  473   9.761   9.810   6.664 -0.3113  0.2479  0.0929
   17bbb     C4  474   9.700   9.983   6.797  0.4644 -0.3451  0.7611
   17bbb     H7  475   9.726   9.924   6.885 -0.5865 -2.0975 -0.0650
   17bbb     H8  476   9.592   9.963   6.790  0.8195 -2.7881  1.4546
   17bbb     C5  477   9.974   9.868   6.464 -0.1803  0.8141  0.3731
   17bbb     H9  478   9.975   9.780   6.528  0.3463 -0.0770 -0.8164
   17bbb    H10  479  10.039   9.939   6.517 -0.4269  1.3545 -0.0315
   17bbb     C6  480   9.625  10.165   6.390  0.4703 -0.2191  0.5132
   17bbb    H11  481   9.519  10.192   6.395  0.6152  0.6683 -0.7993
   17bbb    H12  482   9.648  10.123   6.291 -1.2945 -0.7142  0.2646
   17bbb     C7  483   9.745  10.125   6.840  0.4079 -0.4462  0.3178
   17bbb    H13  484   9.766  10.187   6.751 -0.4040  0.0818  0.4801
   17bbb    H14  485   9.839  10.107   6.894 -0.9398  1.1735  3.3916
   17bbb     C8  486   9.712  10.290   6.391 -0.0465  0.6395 -0.3307
   17bbb    H15  487   9.813  10.247   6.399 -0.6075 -0.8437 -0.8796
   17bbb    H16  488   9.684  10.352   6.476  0.1189  1.0598 -0.5786
   17bbb     C9  489  10.046   9.815   6.330  0.0709  0.1758 -0.2219
   17bbb    H17  490   9.996   9.730   6.284  0.0286  1.6456 -3.1134
   17bbb    H18  491  10.151   9.790   6.348  0.2792  0.8576 -0.4502
   17bbb     O1  492   9.648  10.189   6.923 -0.3195  0.1405 -1.1363
   18bbb     N1  493   8.647  11.114   6.846 -0.4338  0.3018 -0.2810
   18bbb     C1  494   8.680  11.198   6.732  0.0145  0.0971 -0.1488
   18bbb     H1  495   8.693  11.142   6.638  1.3312  1.8414 -1.0732
   18bbb     H2  496   8.780  11.238   6.753 -0.1153  0.4588 -0.2122
   18bbb     C2  497   8.668  11.167   6.982  0.7600  0.0357  0.7279
   18bbb     H3  498   8.604  11.256   6.986 -1.1015 -1.1123 -1.2865
   18bbb     H4  499   8.776  11.183   6.990  1.3589 -3.8074  2.3996
   18bbb     C3  500   8.686  10.975   6.816  0.1710  0.3992  0.1169
   18bbb     H5  501   8.663  10.938   6.716 -1.2251 -1.8842  1.2052
   18bbb     H6  502   8.623  10.904   6.871 -1.0861  0.3572 -1.3117
   18bbb     C4  503   8.834  10.937   6.855 -0.2152 -0.1095  0.0595
   18bbb     H7  504   8.858  10.974   6.955  1.9262  1.3220 -0.9095
   18bbb     H8  505   8.907  10.983   6.787 -0.1302 -1.3761 -0.7394
   18bbb     C5  506   8.585  11.320   6.710 -0.1651 -0.5148  0.3435
   18bbb     H9  507   8.553  11.352   6.810 -0.7625 -2.1273  0.7053
   18bbb    H10  508   8.504  11.277   6.650  0.0688  1.4351 -1.4702
   18bbb     C6  509   8.629  11.067   7.096  0.2472  0.5649 -0.3421
   18bbb    H11  510   8.672  11.098   7.192 -0.6519  2.5657 -0.5312
   18bbb    H12  511   8.663  10.964   7.087  0.2096  0.5119  0.0753
   18bbb     C7  512   8.864  10.785   6.860  0.1542 -0.0726  0.3529
   18bbb    H13  513   8.819  10.739   6.771  1.2587 -1.5769  0.5308
   18bbb    H14  514   8.811  10.752   6.950 -1.8084 -1.1663 -1.1065
   18bbb     C8  515   8.478  11.064   7.120  0.9438 -0.9437 -0.4495
   18bbb    H15  516   8.450  10.958   7.115  0.9244 -1.0378  1.0460
   18bbb    H16  517   8.436  11.104   7.027 -1.1413 -1.1788  0.3284
   18bbb     C9  518   8.645  11.444   6.632  0.1725  0.3553  0.3824
   18bbb    H17  519   8.567  11.512   6.595 -1.4497  0.0590  2.9992
   18bbb    H18  520   8.704  11.411   6.546  0.5230 -1.4101  1.2435
   18bbb     O1  521   9.005  10.772   6.871 -0.2795  0.1698  0.2755
   19bbb     N1  522   9.975   8.395   7.402 -0.2045  0.0695  0.6638
   19bbb     C1  523   9.902   8.313   7.303 -0.3134 -0.4960 -0.5355
   19bbb     H1  524   9.810   8.267   7.343  0.2473 -1.1530  0.0197
   19bbb     H2  525   9.969   8.231   7.274 -0.2779 -0.7121  0.1272
   19bbb     C2  526  10.041   8.324   7.518 -0.0710  0.5211  0.1462
   19bbb     H3  527   9.965   8.297   7.592 -0.1200 -0.0098 -0.1033
   19bbb     H4  528  10.107   8.396   7.570  0.9134 -0.4893  0.3450
   19bbb     C3  529   9.895   8.515   7.459  0.4450 -0.4113  0.2538
   19bbb     H5  530   9.893   8.595   7.385 -0.0905  0.9070  1.6476
   19bbb     H6  531   9.953   8.550   7.545  1.6042  0.8072 -0.9795
   19bbb     C4  532   9.751   8.478   7.506 -1.0032  0.1490  0.5829
   19bbb     H7  533   9.751   8.403   7.587  0.7109  0.0335  0.5121
   19bbb     H8  534   9.692   8.437   7.423  0.1748 -1.1371  0.3319
   19bbb     C5  535   9.864   8.385   7.171 -0.5658 -0.7114 -0.5237
   19bbb     H9  536   9.945   8.450   7.134  0.1869 -1.8924 -1.0272
   19bbb    H10  537   9.782   8.456   7.186  0.7681  1.0081 -1.0270
   19bbb     C6  538  10.133   8.206   7.483  0.2884  0.4597 -0.3001
   19bbb    H11  539  10.191   8.236   7.395 -1.0109  3.8015 -0.1664
   19bbb    H12  540  10.075   8.115   7.462 -1.7121  1.2399  1.4601
   19bbb     C7  541   9.665   8.591   7.555  0.0347 -0.3783 -1.0848
   19bbb    H13  542   9.676   8.672   7.481  1.6040 -0.3017 -0.7981
   19bbb    H14  543   9.694   8.618   7.657 -1.0508  0.0081 -0.8627
   19bbb     C8  544  10.217   8.168   7.604 -0.0090  0.2242 -0.4277
   19bbb    H15  545  10.266   8.072   7.586  0.6617  0.6239 -0.7736
   19bbb    H16  546  10.156   8.162   7.695  1.2297  0.1811  0.4261
   19bbb     C9  547   9.828   8.288   7.055  0.2026  0.0850 -0.3560
   19bbb    H17  548   9.729   8.241   7.051  0.4410 -0.5333  0.7364
   19bbb    H18  549   9.896   8.203   7.046  3.0479  2.2866 -0.8364
   19bbb     O1  550   9.524   8.555   7.557 -0.0830  0.2156 -0.2548
   20bbb     N1  551   8.553   8.266   7.298 -0.2470 -0.0842  0.1845
   20bbb     C1  552   8.484   8.393   7.318  0.3630  0.9070 -0.0493
   20bbb     H1  553   8.389   8.377   7.371  0.6110 -0.8900 -0.1133
   20bbb     H2  554   8.461   8.439   7.221  2.9167  1.2171 -0.5901
   20bbb     C2  555   8.465   8.149   7.293 -0.1362 -0.0033 -0.0002
   20bbb     H3  556   8.410   8.139   7.387 -0.3147 -0.0560 -0.1087
   20bbb     H4  557   8.524   8.058   7.277  1.0540  0.5030  1.3119
   20bbb     C3  558   8.657   8.269   7.190  0.4204  0.2149 -0.1757
   20bbb     H5  559   8.717   8.360   7.199  1.0618 -0.4096  3.2584
   20bbb     H6  560   8.596   8.276   7.099 -0.0946  0.6917  0.2058
   20bbb     C4  561   8.747   8.150   7.183  0.8258  0.6967  0.8504
   20bbb     H7  562   8.792   8.154   7.083 -0.3810 -0.4075  0.2348
   20bbb     H8  563   8.693   8.054   7.184  0.7034  0.6177 -2.2299
   20bbb     C5  564   8.560   8.495   7.402  0.5409 -0.3072  0.1515
   20bbb     H9  565   8.663   8.486   7.364  0.3971 -0.3223 -0.2363
   20bbb    H10  566   8.558   8.464   7.507 -0.3405 -0.3003  0.1409
   20bbb     C6  567   8.353   8.153   7.179  0.1290 -0.3952  0.6901
   20bbb    H11  568   8.381   8.122   7.078 -0.4092  3.1307 -0.6787
   20bbb    H12  569   8.319   8.257   7.165  2.5729  0.2853 -0.6917
   20bbb     C7  570   8.865   8.158   7.285  0.2080 -0.1258 -0.0178
   20bbb    H13  571   8.917   8.071   7.246 -1.8978 -0.5033 -2.1840
   20bbb    H14  572   8.832   8.147   7.389  0.6750  1.1897  0.2916
   20bbb     C8  573   8.224   8.065   7.212  0.1946 -0.0773 -0.0173
   20bbb    H15  574   8.275   7.971   7.239  0.3915 -0.3744 -1.3346
   20bbb    H16  575   8.155   8.051   7.128 -1.1240  0.3405  0.9657
   20bbb     C9  576   8.498   8.638   7.398 -0.3900 -0.5027 -0.4919
   20bbb    H17  577   8.554   8.690   7.477 -1.3445 -2.3623  1.5067
   20bbb    H18  578   8.393   8.634   7.426 -0.0331  2.0155  1.6033
   20bbb     O1  579   8.947   8.280   7.273  0.0197  0.3367 -0.2399
   21bbb     N1  580   9.427   9.486   8.998 -0.0883  0.1996 -0.0948
   21bbb     C1  581   9.477   9.550   9.124 -0.1930 -0.4245  0.5534
   21bbb     H1  582   9.471   9.659   9.123 -0.5024 -0.4393  0.6633
   21bbb     H2  583   9.586   9.535   9.117  0.0081  1.3008 -0.8653
   21bbb     C2  584   9.300   9.554   8.947  0.4943  0.3864  0.2145
   21bbb     H3  585   9.294   9.660   8.975 -2.3267  0.3582 -0.0655
   21bbb     H4  586   9.209   9.517   8.995 -0.4247  0.0519 -1.7030
   21bbb     C3  587   9.426   9.338   8.995  0.5502  0.0841 -0.5805
   21bbb     H5  588   9.383   9.314   8.897 -1.2925 -0.6834  0.3697
   21bbb     H6  589   9.364   9.298   9.076 -0.2842 -0.3663 -1.4328
   21bbb     C4  590   9.563   9.274   9.003 -0.1152 -0.1122 -0.6345
   21bbb     H7  591   9.610   9.295   9.100  0.0640 -0.4550 -0.6469
   21bbb     H8  592   9.627   9.320   8.927 -0.6476 -0.7386 -1.4757
   21bbb     C5  593   9.424   9.497   9.267  0.2238 -0.2129 -0.4390
   21bbb     H9  594   9.442   9.388   9.268  0.9217 -0.1019 -0.4205
   21bbb    H10  595   9.318   9.521   9.282  0.0140 -0.7896 -0.9473
   21bbb     C6  596   9.273   9.532   8.798 -0.8464 -0.0653 -0.4735
   21bbb    H11  597   9.250   9.426   8.781  0.9837 -0.2705 -2.0412
   21bbb    H12  598   9.361   9.534   8.733  0.2556 -0.1625  0.9597
   21bbb     C7  599   9.548   9.126   8.983  0.3009  0.4791  0.8889
   21bbb    H13  600   9.480   9.077   9.052 -0.1170  0.9200  0.8004
   21bbb    H14  601   9.643   9.071   8.989 -1.0571 -2.4723 -1.6571
   21bbb     C8  602   9.169   9.625   8.739 -0.1386 -0.3242 -0.3263
   21bbb    H15  603   9.140   9.596   8.637 -0.2157  1.4567 -0.8485
   21bbb    H16  604   9.211   9.726   8.736 -0.7500 -0.0770 -1.7634
   21bbb     C9  605   9.496   9.549   9.390  0.1189  0.2539  0.1799
   21bbb    H17  606   9.457   9.487   9.471  0.9209 -1.9931 -1.0518
   21bbb    H18  607   9.476   9.654   9.413 -0.9676 -0.0911  0.8963
   21bbb     O1  608   9.499   9.111   8.852  0.1093 -0.9215  0.6095
   22bbb     N1  609   9.093   8.967   9.226  0.0694  0.5233 -0.1434
   22bbb     C1  610   8.954   8.936   9.264  0.0415  0.3922 -0.2979
   22bbb     H1  611   8.907   9.035   9.269  0.5749  0.6366  0.0364
   22bbb     H2  612   8.963   8.889   9.363  1.0910  1.4840  0.1528
   22bbb     C2  613   9.154   9.047   9.337 -0.5039  0.2485  0.5621
   22bbb     H3  614   9.140   8.985   9.426 -0.7883 -2.3292 -1.1778
   22bbb     H4  615   9.108   9.146   9.350  1.8785  1.3864  0.9531
   22bbb     C3  616   9.112   9.017   9.085 -0.0078 -0.0659 -0.5009
   22bbb     H5  617   9.054   8.961   9.010 -2.3035  0.8212  0.5025
   22bbb     H6  618   9.215   9.009   9.051 -0.2725 -1.1845 -1.0947
   22bbb     C4  619   9.062   9.166   9.078 -0.1465 -0.1646  0.2806
   22bbb     H7  620   9.130   9.221   9.144 -1.4101 -0.0366  1.5164
   22bbb     H8  621   8.963   9.169   9.124  0.2286 -1.4135  1.2275
   22bbb     C5  622   8.886   8.833   9.168 -0.7262 -0.2313  0.3685
   22bbb     H9  623   8.960   8.752   9.168  0.4893  0.8394 -0.2122
   22bbb    H10  624   8.891   8.871   9.065 -0.8758  1.2884  0.8856
   22bbb     C6  625   9.304   9.068   9.316  0.1247  0.1763  0.6712
   22bbb    H11  626   9.327   9.147   9.243  0.9494  0.2675  1.0271
   22bbb    H12  627   9.354   8.982   9.272 -1.1402  0.5716 -1.6919
   22bbb     C7  628   9.057   9.215   8.937 -0.6777  0.7621 -0.2707
   22bbb    H13  629   9.153   9.211   8.885 -0.3712  0.8661  0.2738
   22bbb    H14  630   9.038   9.323   8.938  1.5024  1.1852 -0.1266
   22bbb     C8  631   9.375   9.100   9.452 -0.1370  0.0055 -0.0409
   22bbb    H15  632   9.481   9.114   9.428 -0.2949  0.2402 -0.6346
   22bbb    H16  633   9.370   9.016   9.521  3.8665 -1.0710 -0.8059
   22bbb     C9  634   8.747   8.789   9.202  0.0498  0.6043 -0.5351
   22bbb    H17  635   8.687   8.882   9.202  0.6734  1.0222  0.3237
   22bbb    H18  636   8.742   8.755   9.307  1.0957 -0.4039 -0.7987
   22bbb     O1  637   8.959   9.146   8.860  0.0619 -0.2650 -0.4402
   23bbb     N1  638  10.943   9.320   6.490 -0.1638  0.1550 -0.4294
   23bbb     C1  639  11.001   9.216   6.401 -0.3788  0.2594 -0.8782
   23bbb     H1  640  11.005   9.122   6.456 -0.5080  0.1568 -1.0431
   23bbb     H2  641  11.102   9.236   6.362  0.7069  0.9409  1.9917
   23bbb     C2  642  10.947   9.462   6.448  0.0173 -0.5813  0.1658
   23bbb     H3  643  10.889   9.534   6.506 -0.1848 -1.3832  0.9816
   23bbb     H4  644  10.920   9.477   6.343  1.9497  1.4494 -0.1318
   23bbb     C3  645  10.807   9.293   6.539  0.6939  0.2983  0.4272
   23bbb     H5  646  10.815   9.185   6.551  3.9691  0.2808 -0.8756
   23bbb     H6  647  10.737   9.323   6.460 -0.3932  1.1490  1.6684
   23bbb     C4  648  10.772   9.349   6.680  0.5327 -0.1519 -0.5581
   23bbb     H7  649  10.767   9.458   6.689  1.6093 -0.0592 -1.0370
   23bbb     H8  650  10.852   9.317   6.747  1.6906  1.8413 -0.9145
   23bbb     C5  651  10.907   9.177   6.286  0.6955 -0.1768 -0.2978
   23bbb     H9  652  10.865   9.270   6.246 -0.4475 -0.5766 -0.0620
   23bbb    H10  653  10.821   9.117   6.320  1.3812 -1.6414 -1.0233
   23bbb     C6  654  11.088   9.511   6.454  0.3832  0.0913 -0.0364
   23bbb    H11  655  11.151   9.467   6.376  0.6229 -0.7153  0.5997
   23bbb    H12  656  11.125   9.465   6.546 -1.9754 -0.2672  0.8034
   23bbb     C7  657  10.635   9.289   6.714 -0.3851  0.4067 -0.5637
   23bbb    H13  658  10.613   9.332   6.812 -0.6664 -0.0892 -0.4059
   23bbb    H14  659  10.656   9.181   6.719  1.1313  0.5634 -2.3103
   23bbb     C8  660  11.096   9.661   6.457  0.8191 -0.2607 -0.3808
   23bbb    H15  661  11.069   9.702   6.555  1.5693  1.3751 -0.8195
   23bbb    H16  662  11.031   9.711   6.383  2.7048  0.2122 -1.8125
   23bbb     C9  663  10.985   9.102   6.173  0.2153 -0.3873  0.2720
   23bbb    H17  664  11.039   9.012   6.203 -0.3995 -1.1626 -0.8512
   23bbb    H18  665  11.057   9.173   6.131 -0.1143 -0.8781 -1.1810
   23bbb     O1  666  10.544   9.318   6.606 -0.7004 -0.1628  0.5140
   24bbb     N1  667  10.231  10.411   7.093 -0.1367  0.0564  0.1232
   24bbb     C1  668  10.272  10.414   7.235  1.0373  0.6043  0.7231
   24bbb     H1  669  10.371  10.366   7.243  0.7717 -0.2713 -0.7861
   24bbb     H2  670  10.203  10.345   7.285  2.4735 -1.4326  0.0355
   24bbb     C2  671  10.280  10.516   7.012  0.2813  0.0799  0.0711
   24bbb     H3  672  10.258  10.612   7.060  0.1430  0.5061 -0.8219
   24bbb     H4  673  10.219  10.524   6.921  1.6205 -0.4302 -0.9035
   24bbb     C3  674  10.248  10.279   7.024  0.3918 -0.6635  0.4529
   24bbb     H5  675  10.350  10.243   7.005  0.7608  0.6483 -0.1843
   24bbb     H6  676  10.219  10.294   6.919  1.5105 -0.0500  0.2131
   24bbb     C4  677  10.163  10.171   7.081 -0.6134 -0.4515  0.0084
   24bbb     H7  678  10.059  10.207   7.089  0.1882  1.5311  3.2895
   24bbb     H8  679  10.201  10.146   7.181 -0.0951 -1.3626 -0.4033
   24bbb     C5  680  10.283  10.548   7.309 -0.0195  0.2744 -0.3839
   24bbb     H9  681  10.200  10.618   7.291  1.9599  2.6117 -0.9625
   24bbb    H10  682  10.374  10.601   7.276  0.2608 -0.8941 -1.5417
   24bbb     C6  683  10.435  10.511   6.994 -0.2766  0.3528  0.0657
   24bbb    H11  684  10.468  10.424   6.935  2.3941 -0.2297  2.1935
   24bbb    H12  685  10.482  10.499   7.093 -0.4405 -0.7231  0.0161
   24bbb     C7  686  10.152  10.039   6.995 -0.3045 -0.3601  0.6989
   24bbb    H13  687  10.120  10.081   6.899  3.1698 -1.5698 -1.1683
   24bbb    H14  688  10.087   9.969   7.049  0.1306 -0.8567  0.5799
   24bbb     C8  689  10.479  10.641   6.916  0.3636  0.0989 -0.1140
   24bbb    H15  690  10.419  10.663   6.827  1.0312  0.5152 -0.4711
   24bbb    H16  691  10.584  10.634   6.885  0.3547 -1.6215  0.1513
   24bbb     C9  692  10.270  10.535   7.463 -0.3471 -0.6459 -0.0212
   24bbb    H17  693  10.177  10.484   7.487 -0.4666 -0.0232  0.8756
   24bbb    H18  694  10.266  10.632   7.515  0.9728 -0.2419 -0.6197
   24bbb     O1  695  10.287   9.985   6.978  0.5825 -0.2433  0.8369
   25bbb     N1  696   9.172  10.040   5.165  0.3765  0.5106  0.1465
   25bbb     C1  697   9.160  10.057   5.021  0.2691 -0.8265  0.0423
   25bbb     H1  698   9.066  10.104   4.989 -0.1697 -1.0958  0.9120
   25bbb     H2  699   9.166   9.957   4.976 -0.8401 -1.5922  1.5214
   25bbb     C2  700   9.095   9.925   5.213 -0.5760 -0.4480 -0.2000
   25bbb     H3  701   8.988   9.952   5.212 -0.2986  0.7249  0.5284
   25bbb     H4  702   9.129   9.905   5.315 -0.4230  1.4912  0.1491
   25bbb     C3  703   9.135  10.161   5.240  0.1908 -0.3062  0.3631
   25bbb     H5  704   9.028  10.179   5.222 -0.4030 -2.3563  1.4390
   25bbb     H6  705   9.203  10.243   5.215  2.7126 -1.5667  2.5001
   25bbb     C4  706   9.141  10.149   5.391 -0.3995 -0.3889  0.0318
   25bbb     H7  707   9.062  10.077   5.417 -1.5950  1.0161  0.4892
   25bbb     H8  708   9.091  10.236   5.435 -0.7277  0.3440 -1.6745
   25bbb     C5  709   9.280  10.139   4.972  0.0963  0.1994  0.9902
   25bbb     H9  710   9.366  10.079   5.003  1.0316  1.0702  0.1512
   25bbb    H10  711   9.292  10.240   5.014  2.4339  0.8288 -0.9329
   25bbb     C6  712   9.121   9.794   5.132 -0.4329  0.5585 -0.1275
   25bbb    H11  713   9.224   9.781   5.098 -1.2770  0.1320 -2.7147
   25bbb    H12  714   9.080   9.798   5.030  1.1069  0.6045 -0.7606
   25bbb     C7  715   9.281  10.118   5.450 -0.3247  0.0663 -0.6254
   25bbb    H13  716   9.358  10.196   5.455 -0.1843 -0.1609  1.4500
   25bbb    H14  717   9.332  10.047   5.384  0.6230 -1.0392  1.2135
   25bbb     C8  718   9.058   9.674   5.200  0.4477 -0.0182 -0.0905
   25bbb    H15  719   9.091   9.679   5.305  2.3668  2.4972 -0.7073
   25bbb    H16  720   9.104   9.585   5.155  1.6272 -0.2061  1.3766
   25bbb     C9  721   9.283  10.147   4.816 -0.8208 -0.2301  0.0881
   25bbb    H17  722   9.203  10.214   4.782  0.0918  0.8564  0.0434
   25bbb    H18  723   9.272  10.046   4.775  3.3242 -0.5456 -0.6143
   25bbb     O1  724   9.264  10.067   5.590 -0.5363  0.9142 -0.1474
   26bbb     N1  725   8.931  10.461   6.426  0.9260 -0.4594 -0.2392
   26bbb     C1  726   8.961  10.513   6.290  0.3683  0.0661 -0.1983
   26bbb     H1  727   8.874  10.557   6.239  1.4674  0.9171 -1.4131
   26bbb     H2  728   8.979  10.425   6.228 -2.2107 -0.8960  0.2902
   26bbb     C2  729   8.881  10.568   6.526  0.2564  0.1240  0.2192
   26bbb     H3  730   8.961  10.638   6.553  0.8907  0.7946 -2.9507
   26bbb     H4  731   8.844  10.510   6.611  1.9834 -2.0568 -0.4262
   26bbb     C3  732   9.033  10.381   6.485 -0.3863  0.1268  0.2373
   26bbb     H5  733   8.998  10.332   6.576  0.1409  0.2815  0.5259
   26bbb     H6  734   9.098  10.457   6.529 -1.0123  0.4750  0.5836
   26bbb     C4  735   9.105  10.283   6.390  0.3470 -0.2542 -0.0233
   26bbb     H7  736   9.158  10.346   6.317 -1.5996  1.0022 -0.4197
   26bbb     H8  737   9.028  10.218   6.346 -1.6600  0.6410  1.9591
   26bbb     C5  738   9.074  10.617   6.303 -0.3595 -0.1580 -0.0991
   26bbb     H9  739   9.164  10.563   6.336 -0.5210  0.3203  1.1922
   26bbb    H10  740   9.037  10.693   6.373 -2.2578 -0.7975 -0.3624
   26bbb     C6  741   8.753  10.650   6.482 -0.2280 -0.5104  0.4156
   26bbb    H11  742   8.771  10.676   6.377  0.6519 -1.3352  0.3552
   26bbb    H12  743   8.763  10.746   6.535  0.2870 -0.1340 -0.3472
   26bbb     C7  744   9.193  10.195   6.479  0.2697 -0.2866  0.2453
   26bbb    H13  745   9.119  10.135   6.532 -4.1324  1.4556 -3.3021
   26bbb    H14  746   9.262  10.258   6.537  1.4339 -0.1597 -1.2162
   26bbb     C8  747   8.616  10.578   6.492  0.2284  0.0861  0.3935
   26bbb    H15  748   8.612  10.541   6.595 -0.8126  0.7912  0.6224
   26bbb    H16  749   8.605  10.498   6.418 -0.3785  1.5496 -1.1776
   26bbb     C9  750   9.096  10.689   6.173 -1.3899  0.4536 -0.1634
   26bbb    H17  751   9.001  10.729   6.138 -1.5968 -0.4453 -0.6429
   26bbb    H18  752   9.120  10.607   6.104  0.1490  0.1629  0.6525
   26bbb     O1  753   9.273  10.108   6.386  0.4312  0.1026  0.4529
   27bbb     N1  754   9.446   7.891   7.210 -0.5274 -0.1105  0.4941
   27bbb     C1  755   9.590   7.853   7.194  0.7284  0.0203  0.0112
   27bbb     H1  756   9.646   7.943   7.223 -1.6001  1.3003  0.7482
   27bbb     H2  757   9.607   7.844   7.086 -0.4365  2.3237 -0.4346
   27bbb     C2  758   9.356   7.775   7.174 -0.1582 -0.0376  0.3927
   27bbb     H3  759   9.403   7.680   7.203 -2.8264 -1.4440  0.4353
   27bbb     H4  760   9.344   7.776   7.065  2.9730  1.6786 -0.0611
   27bbb     C3  761   9.416   8.016   7.142  0.0825  0.1973  0.3250
   27bbb     H5  762   9.307   8.027   7.138 -0.3254 -3.0503 -0.0055
   27bbb     H6  763   9.448   8.012   7.037 -0.6269  0.0417  0.1093
   27bbb     C4  764   9.462   8.157   7.190  0.1879 -0.0172 -0.3384
   27bbb     H7  765   9.565   8.155   7.227  0.4162 -1.2197 -0.9852
   27bbb     H8  766   9.399   8.189   7.274  2.5212 -2.1318  2.3881
   27bbb     C5  767   9.649   7.726   7.265  0.5374  0.4118 -0.2809
   27bbb     H9  768   9.758   7.718   7.255  0.5273 -0.2079  0.0237
   27bbb    H10  769   9.605   7.635   7.223 -1.6708  0.3730  1.9206
   27bbb     C6  770   9.219   7.786   7.246  0.4575 -0.7510  0.2558
   27bbb    H11  771   9.190   7.891   7.249  1.4281 -0.4049 -1.3498
   27bbb    H12  772   9.225   7.759   7.352  0.0435  0.6857  0.6662
   27bbb     C7  773   9.434   8.267   7.074 -0.4562  0.0940  0.3237
   27bbb    H13  774   9.498   8.252   6.985  0.1413 -1.5070  0.9832
   27bbb    H14  775   9.453   8.369   7.111 -0.8966  0.6519 -0.9487
   27bbb     C8  776   9.110   7.707   7.171  0.0629  0.1102 -0.2118
   27bbb    H15  777   9.013   7.727   7.218  0.1786 -0.9068  0.4773
   27bbb    H16  778   9.131   7.600   7.178  0.2613  0.0014 -2.0815
   27bbb     C9  779   9.613   7.727   7.416  0.3918 -0.3331  0.2806
   27bbb    H17  780   9.582   7.625   7.445  1.6523 -0.3519  1.7007
   27bbb    H18  781   9.530   7.794   7.441  0.8946 -0.2981  1.9953
   27bbb     O1  782   9.297   8.255   7.039  0.0694  0.0032  0.0291
   28bbb     N1  783   8.969   7.855   6.207  0.5735 -0.0469  0.2191
   28bbb     C1  784   8.972   7.729   6.275  1.1695  0.0474 -0.0585
   28bbb     H1  785   9.035   7.662   6.215 -1.0868 -0.4133 -2.0556
   28bbb     H2  786   8.872   7.684   6.271  2.0549 -2.0565 -0.2031
   28bbb     C2  787   8.918   7.850   6.068  0.6586  0.0939 -0.0270
   28bbb     H3  788   8.938   7.943   6.014  0.1256  0.7697  0.8963
   28bbb     H4  789   8.809   7.841   6.066  0.7906 -1.8110 -1.3062
   28bbb     C3  790   8.923   7.973   6.292  0.1184  0.4409 -0.4769
   28bbb     H5  791   8.991   7.995   6.376  1.0246  0.0929 -1.0996
   28bbb     H6  792   8.827   7.948   6.338 -0.7963  4.1474 -0.0266
   28bbb     C4  793   8.911   8.108   6.223  0.2404 -0.2200  0.5650
   28bbb     H7  794   8.849   8.103   6.132  2.5254 -1.5970 -1.0339
   28bbb     H8  795   9.007   8.140   6.181  0.5399 -0.0840  1.3443
   28bbb     C5  796   9.037   7.730   6.415 -0.4103  0.3720 -0.6873
   28bbb     H9  797   9.035   7.626   6.451 -1.9122  0.5204 -0.2398
   28bbb    H10  798   8.977   7.782   6.491  1.6581 -0.6761  1.8251
   28bbb     C6  799   8.977   7.734   5.986 -0.6308 -0.3967  0.2022
   28bbb    H11  800   8.952   7.635   6.026 -0.1017 -0.3287  0.7030
   28bbb    H12  801   9.086   7.739   5.990 -0.5322 -0.1741 -1.7334
   28bbb     C7  802   8.853   8.215   6.313 -0.8553 -0.4161  0.2772
   28bbb    H13  803   8.748   8.185   6.328 -1.8773  2.7561  0.3368
   28bbb    H14  804   8.860   8.311   6.261  1.9652 -0.8360 -0.2448
   28bbb     C8  805   8.929   7.739   5.838  0.0440 -0.1341 -0.0904
   28bbb    H15  806   8.987   7.671   5.774  2.5261  2.2413 -0.5257
   28bbb    H16  807   8.954   7.836   5.794  0.1246 -0.8344 -1.6599
   28bbb     C9  808   9.181   7.796   6.420 -0.0585 -0.0562 -0.0742
   28bbb    H17  809   9.181   7.904   6.399  0.9126  0.0767  0.5466
   28bbb    H18  810   9.209   7.779   6.525 -1.5119  0.2995  0.3901
   28bbb     O1  811   8.921   8.218   6.441  0.4242  0.1518 -0.5668
   29bbb     N1  812   8.043  10.022   6.851 -0.0270 -0.3136 -0.2427
   29bbb     C1  813   7.901  10.050   6.807  0.1270 -0.0562  0.4485
   29bbb     H1  814   7.895  10.116   6.720 -3.0878  1.1558  1.4256
   29bbb     H2  815   7.847  10.114   6.878  0.5653  1.4854 -0.5572
   29bbb     C2  816   8.129  10.139   6.877  0.1545 -0.3139 -0.4541
   29bbb     H3  817   8.231  10.103   6.895  0.9232  3.0508  3.8447
   29bbb     H4  818   8.100  10.186   6.972  1.5876 -0.3157  0.0120
   29bbb     C3  819   8.039   9.925   6.965 -0.2914  0.6868  0.9623
   29bbb     H5  820   7.988   9.833   6.935  1.6903 -0.4050  0.7152
   29bbb     H6  821   7.989   9.973   7.050 -1.2704  0.3056  0.6045
   29bbb     C4  822   8.176   9.883   7.011 -0.1952 -0.2329  0.1134
   29bbb     H7  823   8.237   9.965   7.051  0.8437 -1.0473  0.2518
   29bbb     H8  824   8.240   9.839   6.933  0.8053  0.7636  0.3344
   29bbb     C5  825   7.797   9.936   6.773 -0.0868 -0.7133 -0.3370
   29bbb     H9  826   7.707   9.987   6.737 -0.8793 -0.6895  1.5592
   29bbb    H10  827   7.764   9.884   6.864  0.5549 -1.6208 -0.6117
   29bbb     C6  828   8.135  10.235   6.765 -0.4965 -0.0680  0.2523
   29bbb    H11  829   8.218  10.302   6.791  2.1424 -2.4545 -1.3320
   29bbb    H12  830   8.043  10.293   6.767 -0.6744 -0.3593  0.5436
   29bbb     C7  831   8.162   9.779   7.121  0.2115  0.3188 -0.0186
   29bbb    H13  832   8.071   9.806   7.177 -0.1173  2.2445 -1.3892
   29bbb    H14  833   8.245   9.779   7.193 -2.0763 -1.8286  2.9135
   29bbb     C8  834   8.145  10.181   6.622 -0.8469  0.1093 -0.1991
   29bbb    H15  835   8.103  10.081   6.606 -1.3626 -0.0396  1.8818
   29bbb    H16  836   8.252  10.173   6.600 -0.6121 -0.2402  1.0463
   29bbb     C9  837   7.841   9.848   6.655  0.2825 -0.3786 -0.5804
   29bbb    H17  838   7.950   9.849   6.644  0.0894 -1.0995 -3.1626
   29bbb    H18  839   7.806   9.895   6.562  2.0871  1.4536 -0.3975
   29bbb     O1  840   8.158   9.649   7.049  0.0497 -0.0823  0.1249
   30bbb     N1  841   8.488   8.961   5.948 -0.0615  0.1078  0.2922
   30bbb     C1  842   8.440   8.817   5.936  0.2390  0.7561 -0.3256
   30bbb     H1  843   8.486   8.760   5.855  0.4733  1.8876 -1.0071
   30bbb     H2  844   8.335   8.828   5.906 -0.0280  1.5273  0.8211
   30bbb     C2  845   8.635   8.976   5.951 -0.0273 -0.1387 -0.5430
   30bbb     H3  846   8.675   8.926   6.040  2.0544 -0.4612 -1.5975
   30bbb     H4  847   8.668   9.080   5.961 -1.5615  0.3304 -0.0896
   30bbb     C3  848   8.413   9.047   6.044  0.6451  0.1167  0.2542
   30bbb     H5  849   8.429   9.152   6.016  0.2753 -0.0614 -0.6871
   30bbb     H6  850   8.470   9.042   6.138  0.6983  0.0352  0.2189
   30bbb     C4  851   8.262   9.017   6.059  0.0370  0.8662  0.0579
   30bbb     H7  852   8.249   8.911   6.083  3.0782  0.6792  1.3877
   30bbb     H8  853   8.209   9.039   5.966 -1.2418  0.2083  0.6084
   30bbb     C5  854   8.457   8.733   6.056 -0.0224  0.5637  0.1628
   30bbb     H9  855   8.426   8.781   6.150  0.6798  0.0417  0.6759
   30bbb    H10  856   8.565   8.715   6.064 -0.0110 -0.7508 -2.1149
   30bbb     C6  857   8.704   8.921   5.819 -0.7457 -0.2762  0.3618
   30bbb    H11  858   8.641   8.945   5.732 -3.1231 -2.9670  1.1782
   30bbb    H12  859   8.720   8.812   5.817 -1.1206 -0.3258 -0.3361
   30bbb     C7  860   8.189   9.094   6.167 -0.0245  0.0013  0.6863
   30bbb    H13  861   8.103   9.034   6.198 -1.7210  2.1440  0.3673
   30bbb    H14  862   8.154   9.192   6.131  0.2900  0.6187  2.0142
   30bbb     C8  863   8.837   9.001   5.802 -0.1206 -0.1912  0.1343
   30bbb    H15  864   8.891   9.010   5.897 -0.4214  3.3472  0.0705
   30bbb    H16  865   8.810   9.101   5.768 -0.1948  0.2593  1.4913
   30bbb     C9  866   8.397   8.593   6.051 -0.5162  0.1343 -0.1457
   30bbb    H17  867   8.289   8.614   6.051 -0.6026 -0.1578  1.7664
   30bbb    H18  868   8.431   8.538   6.139  0.6254 -0.9993 -1.2479
   30bbb     O1  869   8.265   9.120   6.282 -0.1728  0.3414  0.2760
   31bbb     N1  870  10.173  10.794   8.991 -0.5767  0.3548 -0.6249
   31bbb     C1  871  10.315  10.774   8.947  0.1694  0.2346 -0.1971
   31bbb     H1  872  10.343  10.676   8.990  0.2241  0.4849  0.3502
   31bbb     H2  873  10.375  10.850   8.999  0.2614 -0.2878  0.4832
   31bbb     C2  874  10.131  10.933   8.969 -0.5880  0.3750  0.5498
   31bbb     H3  875  10.148  10.973   8.869 -0.1011 -0.8074  0.1427
   31bbb     H4  876  10.182  11.006   9.034 -0.1743  1.4592 -0.9446
   31bbb     C3  877  10.143  10.750   9.127 -0.0237  0.1215 -0.2840
   31bbb     H5  878  10.110  10.834   9.190  2.8628  1.3179 -0.2314
   31bbb     H6  879  10.230  10.702   9.173  0.3261  0.6522 -0.3867
   31bbb     C4  880  10.042  10.634   9.133  0.6404 -0.2013 -0.0224
   31bbb     H7  881   9.946  10.672   9.095  0.6657 -0.7189 -0.6291
   31bbb     H8  882  10.025  10.610   9.238  2.9252  0.1768  0.4918
   31bbb     C5  883  10.348  10.772   8.796 -0.3070 -0.8548 -0.3146
   31bbb     H9  884  10.440  10.714   8.781  1.7876  2.4305 -1.1794
   31bbb    H10  885  10.367  10.873   8.757 -1.9571 -0.5408 -0.3582
   31bbb     C6  886   9.981  10.947   8.988  0.4095 -0.3325 -0.0558
   31bbb    H11  887   9.965  10.946   9.096  1.4511  1.7802  0.1847
   31bbb    H12  888   9.933  10.866   8.933  0.8256 -0.7713  0.2223
   31bbb     C7  889  10.068  10.505   9.048  0.0780 -0.0340  0.1189
   31bbb    H13  890  10.168  10.472   9.079 -0.2615 -0.4298  0.8019
   31bbb    H14  891  10.078  10.528   8.941 -0.1389  2.2375  0.5578
   31bbb     C8  892   9.913  11.078   8.934  0.3863 -0.7143 -0.0581
   31bbb    H15  893   9.938  11.162   9.000  0.2109 -0.6408 -0.0847
   31bbb    H16  894   9.804  11.071   8.947  0.2830  1.6972  0.8665
   31bbb     C9  895  10.241  10.698   8.702 -0.2748  0.3446  0.4278
   31bbb    H17  896  10.158  10.768   8.690 -0.1222  0.3461 -0.7842
   31bbb    H18  897  10.214  10.605   8.755  0.6150 -0.0972  0.1302
   31bbb     O1  898   9.962  10.416   9.073 -0.5163  0.2443  0.2696
   32bbb     N1  899  10.196   9.136   9.047  0.1152 -0.2684 -0.1764
   32bbb     C1  900  10.247   9.138   8.908  0.3115 -0.5771 -0.2380
   32bbb     H1  901  10.223   9.234   8.861 -0.1759 -0.6407 -0.1217
   32bbb     H2  902  10.200   9.064   8.843 -0.4499  1.0465 -1.5887
   32bbb     C2  903  10.223   9.006   9.111 -0.4283  0.4370  0.1440
   32bbb     H3  904  10.330   9.004   9.131 -0.1523  0.1166 -1.2342
   32bbb     H4  905  10.190   8.928   9.041 -0.7343  1.0022 -0.3564
   32bbb     C3  906  10.249   9.246   9.127  0.3283 -0.5055  0.3125
   32bbb     H5  907  10.359   9.247   9.125  0.3354  1.1652 -0.9366
   32bbb     H6  908  10.232   9.224   9.233  1.4324 -0.1984  0.5680
   32bbb     C4  909  10.201   9.387   9.085  0.5028  0.3740  0.3974
   32bbb     H7  910  10.224   9.400   8.979  0.5637  1.3946  0.5287
   32bbb     H8  911  10.252   9.464   9.144 -0.7075  1.2774  0.3059
   32bbb     C5  912  10.396   9.104   8.879  0.0186 -0.6522  0.4184
   32bbb     H9  913  10.405   8.996   8.895 -1.9201 -0.6757  1.7715
   32bbb    H10  914  10.460   9.152   8.954 -0.3148 -0.8352  0.8262
   32bbb     C6  915  10.145   8.993   9.241  0.5357  0.2592 -0.3680
   32bbb    H11  916  10.194   9.043   9.326 -0.0948  2.6341 -1.3190
   32bbb    H12  917  10.148   8.887   9.266  0.4045  0.2021 -0.5923
   32bbb     C7  918  10.052   9.415   9.097 -0.3922  0.5760  0.4567
   32bbb    H13  919  10.020   9.393   9.200 -0.4631  1.1278  0.5529
   32bbb    H14  920  10.001   9.350   9.024  2.0621  0.8675 -1.6718
   32bbb     C8  921   9.988   9.033   9.233 -0.4836  0.4677  0.5188
   32bbb    H15  922   9.954   8.989   9.139  3.2258  1.1402 -1.2926
   32bbb    H16  923   9.987   9.141   9.219 -2.5276  0.3374 -0.6724
   32bbb     C9  924  10.444   9.143   8.746  0.3064 -0.1768  0.1788
   32bbb    H17  925  10.475   9.248   8.752 -0.3088  0.0286 -0.1143
   32bbb    H18  926  10.361   9.124   8.676  1.2475  0.1569 -1.0667
   32bbb     O1  927  10.031   9.553   9.068 -0.2084  0.0445 -0.2121
   33bbb     N1  928   8.670  11.182   8.045 -0.4053  0.2121 -0.1226
   33bbb     C1  929   8.796  11.249   8.011  0.4713 -0.4543 -0.3324
   33bbb     H1  930   8.775  11.352   8.042  1.0619 -0.1449 -0.9364
   33bbb     H2  931   8.813  11.255   7.903 -0.6516  2.4573 -0.4587
   33bbb     C2  932   8.550  11.228   7.964 -0.2962  0.6477  0.2569
   33bbb     H3  933   8.466  11.157   7.969  1.1413 -1.0935  1.8379
   33bbb     H4  934   8.574  11.234   7.858 -0.6644 -2.3919 -0.0963
   33bbb     C3  935   8.670  11.035   8.061  0.8400 -0.0537 -0.2430
   33bbb     H5  936   8.769  10.998   8.087  0.8078  1.9578  3.2675
   33bbb     H6  937   8.636  10.991   7.966 -0.2847  0.4739 -0.1087
   33bbb     C4  938   8.575  10.968   8.164  0.1820 -0.1765 -0.3243
   33bbb     H7  939   8.588  10.859   8.169  0.1486 -0.1384  1.3366
   33bbb     H8  940   8.472  10.972   8.127 -0.7400 -0.2403  2.0241
   33bbb     C5  941   8.924  11.211   8.087 -0.4713  0.1113 -0.3124
   33bbb     H9  942   8.975  11.134   8.028 -0.8772  0.0348 -0.5633
   33bbb    H10  943   8.888  11.171   8.183  0.4093  2.1703  0.9256
   33bbb     C6  944   8.512  11.371   8.013  0.3333 -0.5637 -0.5096
   33bbb    H11  945   8.417  11.397   7.965 -2.2108  0.2646  4.3709
   33bbb    H12  946   8.581  11.453   7.990 -0.6610  0.0901 -1.2063
   33bbb     C7  947   8.596  11.030   8.303 -0.6090  0.5131 -1.0168
   33bbb    H13  948   8.527  11.115   8.305 -2.4918 -0.9336 -1.7483
   33bbb    H14  949   8.699  11.056   8.331 -0.6881  1.0277 -1.1918
   33bbb     C8  950   8.481  11.365   8.168 -0.4813 -0.3104 -0.0736
   33bbb    H15  951   8.570  11.322   8.215  0.6670  1.0781 -0.9181
   33bbb    H16  952   8.409  11.284   8.186 -1.0454 -0.5316 -2.8609
   33bbb     C9  953   9.022  11.332   8.123  0.4925 -0.8347 -0.0732
   33bbb    H17  954   8.979  11.404   8.193  1.6142  3.0252 -2.9525
   33bbb    H18  955   9.038  11.397   8.035  0.4880 -1.6071 -0.6520
   33bbb     O1  956   8.544  10.942   8.405  0.5756 -0.2246  0.5319
   34bbb     N1  957   8.420  10.540   9.642 -0.0739  0.5722  0.5272
   34bbb     C1  958   8.445  10.614   9.765 -0.0596  0.1344 -0.0196
   34bbb     H1  959   8.494  10.708   9.738  0.2962 -0.3728 -1.1894
   34bbb     H2  960   8.508  10.562   9.838  0.7641  1.2830  0.1091
   34bbb     C2  961   8.504  10.419   9.628 -0.2068  0.4488  0.2824
   34bbb     H3  962   8.609  10.450   9.620 -0.7958  3.2836  1.9448
   34bbb     H4  963   8.476  10.359   9.540  2.1761 -0.2011 -0.1066
   34bbb     C3  964   8.413  10.616   9.521  0.3924 -0.3629  0.0071
   34bbb     H5  965   8.513  10.659   9.504  1.4983 -1.3841  3.3285
   34bbb     H6  966   8.344  10.700   9.539 -0.1667 -0.8992  0.3722
   34bbb     C4  967   8.367  10.553   9.387 -0.1281 -0.7761  0.0378
   34bbb     H7  968   8.262  10.522   9.395  0.4031 -2.4983  1.0216
   34bbb     H8  969   8.423  10.464   9.354  0.7568 -0.8308  1.5734
   34bbb     C5  970   8.314  10.647   9.838  0.1770 -0.1361  0.8321
   34bbb     H9  971   8.247  10.699   9.768  0.9862  0.0539  0.1807
   34bbb    H10  972   8.346  10.720   9.914 -0.6784  0.3635  0.7268
   34bbb     C6  973   8.497  10.312   9.747 -0.5127  0.3404 -0.1180
   34bbb    H11  974   8.395  10.304   9.784 -0.2709 -1.8607  0.2002
   34bbb    H12  975   8.563  10.349   9.827 -1.2383 -1.6028  1.4454
   34bbb     C7  976   8.387  10.661   9.279 -0.2243  0.2695  0.3483
   34bbb    H13  977   8.494  10.679   9.268 -0.3426  0.9270  0.2298
   34bbb    H14  978   8.335  10.756   9.296 -0.9368  0.0285 -0.3994
   34bbb     C8  979   8.561  10.174   9.710 -0.7969  0.4391  0.1610
   34bbb    H15  980   8.575  10.106   9.795  1.1021  0.4148 -0.1151
   34bbb    H16  981   8.666  10.201   9.688  0.0558 -0.6201  2.5855
   34bbb     C9  982   8.249  10.533   9.914  0.2922  0.9784  0.2212
   34bbb    H17  983   8.228  10.458   9.837  2.5870  0.4611  0.0172
   34bbb    H18  984   8.157  10.565   9.963 -0.2402 -0.5461  0.2670
   34bbb     O1  985   8.334  10.602   9.157 -0.7265  0.0422 -0.2550
   35bbb     N1  986   9.693  10.547   5.898  0.2626  0.7447  0.0419
   35bbb     C1  987   9.753  10.424   5.846 -0.1021  0.3680  0.1922
   35bbb     H1  988   9.833  10.405   5.919  0.9038  1.4409 -0.5995
   35bbb     H2  989   9.795  10.434   5.746 -1.0466 -0.2167 -0.2761
   35bbb     C2  990   9.775  10.668   5.861 -0.0645  0.4824  0.2794
   35bbb     H3  991   9.795  10.652   5.754  0.3886  0.6425  0.3389
   35bbb     H4  992   9.877  10.660   5.899  0.5000 -0.0064 -1.2699
   35bbb     C3  993   9.643  10.542   6.042  0.4408 -0.5213  0.6560
   35bbb     H5  994   9.606  10.441   6.062 -1.1398  0.3953  2.6971
   35bbb     H6  995   9.554  10.604   6.058  0.7623  0.0854  0.1752
   35bbb     C4  996   9.766  10.557   6.137  0.5223  0.4454 -0.4175
   35bbb     H7  997   9.789  10.663   6.153 -3.0671  1.0677  1.7383
   35bbb     H8  998   9.855  10.504   6.102  0.7220  0.3245  0.2534
   35bbb     C5  999   9.673  10.291   5.848 -0.1191 -0.0525 -0.0907
   35bbb     H9 1000   9.598  10.291   5.768  0.6800 -1.3672 -0.8850
   35bbb    H10 1001   9.626  10.267   5.944 -1.3330  0.4353 -0.5379
   35bbb     C6 1002   9.703  10.801   5.876 -0.3339 -0.2990 -0.1315
   35bbb    H11 1003   9.696  10.814   5.984  1.0344 -0.3584 -0.0151
   35bbb    H12 1004   9.602  10.794   5.833 -0.4907  3.0125 -0.5458
   35bbb     C7 1005   9.730  10.499   6.283 -0.3727 -0.7406  1.2537
   35bbb    H13 1006   9.652  10.554   6.338 -1.6749 -1.2034 -0.0382
   35bbb    H14 1007   9.824  10.511   6.338 -0.5738  1.0196  1.2630
   35bbb     C8 1008   9.787  10.916   5.818  0.0667  0.5656 -0.2850
   35bbb    H15 1009   9.895  10.898   5.814  0.3578  1.1021  2.9673
   35bbb    H16 1010   9.772  11.010   5.872  1.7210  1.2334 -0.9256
   35bbb     C9 1011   9.763  10.171   5.804 -0.2491  0.0387 -0.6692
   35bbb    H17 1012   9.705  10.078   5.800  1.7237 -1.2665 -0.2142
   35bbb    H18 1013   9.840  10.156   5.881  0.8309  1.2985 -1.4510
   35bbb     O1 1014   9.699  10.365   6.271 -0.0254  0.5647 -0.4196
   36bbb     N1 1015  10.445  10.008   6.362 -0.3123  0.7876  0.2793
   36bbb     C1 1016  10.504   9.872   6.373 -0.2239 -0.6004  0.6458
   36bbb     H1 1017  10.445   9.796   6.320  0.0489 -0.2056 -0.2501
   36bbb     H2 1018  10.496   9.849   6.480 -1.4168 -0.5705  0.5767
   36bbb     C2 1019  10.514  10.109   6.442  0.4080  0.2067  0.4401
   36bbb     H3 1020  10.598  10.135   6.375 -2.1082 -2.1707 -4.0990
   36bbb     H4 1021  10.549  10.061   6.534 -1.9358  0.0439  1.2976
   36bbb     C3 1022  10.408  10.047   6.226  0.4491 -0.1187  0.5409
   36bbb     H5 1023  10.479  10.030   6.145 -1.4528 -0.0900 -1.2199
   36bbb     H6 1024  10.371  10.150   6.221  2.0225  0.4910  0.8275
   36bbb     C4 1025  10.286   9.959   6.177 -0.7002 -0.1538 -0.3147
   36bbb     H7 1026  10.308   9.855   6.206  1.9094  0.3249 -0.2977
   36bbb     H8 1027  10.275   9.960   6.068 -0.3082  0.0048 -0.3537
   36bbb     C5 1028  10.647   9.870   6.309  0.0475 -0.3369 -0.8200
   36bbb     H9 1029  10.700   9.961   6.338  0.7644 -0.8515 -0.4878
   36bbb    H10 1030  10.648   9.874   6.199 -2.1306 -1.5947 -0.9534
   36bbb     C6 1031  10.424  10.233   6.480  0.2186 -0.5903  0.9684
   36bbb    H11 1032  10.385  10.280   6.389 -1.6052 -2.1873  0.8701
   36bbb    H12 1033  10.492  10.298   6.537  2.1808 -1.3398 -0.4416
   36bbb     C7 1034  10.153  10.010   6.236  0.4028 -0.9086 -0.3298
   36bbb    H13 1035  10.123  10.099   6.180 -0.0372 -1.2791 -0.6887
   36bbb    H14 1036  10.163  10.044   6.339  0.5145 -1.2690 -0.2208
   36bbb     C8 1037  10.301  10.200   6.572 -0.7720 -0.4363  0.4142
   36bbb    H15 1038  10.325  10.203   6.678  1.5127 -1.3708 -0.0181
   36bbb    H16 1039  10.259  10.100   6.549 -0.2284 -0.9702  1.6555
   36bbb     C9 1040  10.726   9.746   6.349 -0.5660  0.3158  0.2591
   36bbb    H17 1041  10.666   9.656   6.334  0.1773  0.0244 -1.1589
   36bbb    H18 1042  10.810   9.736   6.279 -0.8630 -1.5404  0.1408
   36bbb     O1 1043  10.043   9.920   6.227  0.4103  0.4803  0.3147
   37bbb     N1 1044   8.071  11.384   7.168  0.3812 -0.2768  0.8982
   37bbb     C1 1045   7.931  11.368   7.129 -0.1870  0.7069 -0.9212
   37bbb     H1 1046   7.904  11.409   7.031  0.1365 -3.0295 -2.7399
   37bbb     H2 1047   7.867  11.418   7.203 -1.6074  1.5013 -2.6156
   37bbb     C2 1048   8.127  11.510   7.120 -0.4168 -0.4321 -0.1006
   37bbb     H3 1049   8.110  11.521   7.012 -2.8639  1.6242  0.4144
   37bbb     H4 1050   8.235  11.517   7.140 -0.5390 -0.1406  0.4713
   37bbb     C3 1051   8.112  11.347   7.310 -0.2125  0.2449 -0.9180
   37bbb     H5 1052   8.057  11.260   7.348 -0.5954 -0.1053 -2.2477
   37bbb     H6 1053   8.096  11.432   7.377 -2.5430 -0.8700  0.0821
   37bbb     C4 1054   8.257  11.288   7.320 -0.9366  0.0593 -0.3352
   37bbb     H7 1055   8.281  11.268   7.425 -0.7116  1.3379 -0.1353
   37bbb     H8 1056   8.325  11.367   7.287 -2.5584  0.6826 -2.3899
   37bbb     C5 1057   7.887  11.215   7.125 -0.8865 -0.2805 -0.5202
   37bbb     H9 1058   7.886  11.169   7.225 -0.2551  0.0941 -0.3381
   37bbb    H10 1059   7.954  11.154   7.062  2.3808 -0.0421  2.4061
   37bbb     C6 1060   8.067  11.628   7.193  0.2595 -0.1879 -0.4710
   37bbb    H11 1061   8.075  11.616   7.302 -1.7581 -3.6692 -0.5640
   37bbb    H12 1062   7.959  11.618   7.175 -0.0832  0.4764  1.0954
   37bbb     C7 1063   8.285  11.171   7.223  0.2281  0.2868 -0.6260
   37bbb    H13 1064   8.265  11.200   7.119 -0.1792  1.9725 -0.1142
   37bbb    H14 1065   8.220  11.088   7.254 -1.0480  0.9825 -1.3522
   37bbb     C8 1066   8.123  11.761   7.140  0.6176  0.8404  0.0596
   37bbb    H15 1067   8.121  11.762   7.031  0.7654 -0.0038  0.0447
   37bbb    H16 1068   8.232  11.762   7.154  0.6080  0.5860  0.1527
   37bbb     C9 1069   7.746  11.188   7.066  1.1839 -0.1203  0.1176
   37bbb    H17 1070   7.675  11.248   7.123  1.2359 -0.5164  0.6059
   37bbb    H18 1071   7.718  11.082   7.073  0.8768 -0.1734 -1.4644
   37bbb     O1 1072   8.424  11.136   7.240 -0.1506 -0.3779 -0.1009
   38bbb     N1 1073   8.776  11.666   7.147 -0.3660 -0.3762  0.1340
   38bbb     C1 1074   8.839  11.803   7.153 -0.4609 -0.0315  0.3255
   38bbb     H1 1075   8.836  11.845   7.254 -3.2264 -2.1519  1.2645
   38bbb     H2 1076   8.790  11.867   7.079 -3.0961 -1.0366  1.0916
   38bbb     C2 1077   8.635  11.672   7.207 -0.2023 -0.2139  0.3358
   38bbb     H3 1078   8.564  11.721   7.140  0.8184 -1.1592 -1.5090
   38bbb     H4 1079   8.630  11.732   7.299 -1.5335  2.2753 -1.2714
   38bbb     C3 1080   8.780  11.607   7.008  0.6871 -0.3474  0.0040
   38bbb     H5 1081   8.735  11.507   7.017  2.2904 -0.9850  1.7049
   38bbb     H6 1082   8.879  11.576   6.973 -0.1410 -1.7554 -1.2245
   38bbb     C4 1083   8.720  11.694   6.904  0.0356 -0.3155 -0.3633
   38bbb     H7 1084   8.800  11.754   6.857 -0.2848  0.8576  0.5349
   38bbb     H8 1085   8.650  11.767   6.946  2.5851  0.6420  2.6369
   38bbb     C5 1086   8.989  11.808   7.123  0.4889  0.9764 -0.2347
   38bbb     H9 1087   9.005  11.723   7.057  1.3790 -0.4335  1.7019
   38bbb    H10 1088   9.040  11.792   7.219 -1.0514 -0.0415  0.4685
   38bbb     C6 1089   8.576  11.532   7.227 -0.4848  0.2451 -0.6698
   38bbb    H11 1090   8.524  11.497   7.137 -1.9198 -0.5053  0.4202
   38bbb    H12 1091   8.499  11.540   7.304 -0.7976  0.1213 -0.9695
   38bbb     C7 1092   8.644  11.626   6.791 -0.1276 -0.1497 -0.3969
   38bbb    H13 1093   8.621  11.705   6.718 -0.5459 -0.2394 -0.3645
   38bbb    H14 1094   8.551  11.593   6.840 -0.8403  2.1977 -0.0335
   38bbb     C8 1095   8.672  11.422   7.277  0.1169 -0.6465 -0.6803
   38bbb    H15 1096   8.762  11.425   7.214  0.8532  0.3060  0.3793
   38bbb    H16 1097   8.616  11.328   7.262 -2.6105  0.2100  2.8106
   38bbb     C9 1098   9.027  11.935   7.048 -0.7970 -0.6357  0.7738
   38bbb    H17 1099   8.970  12.019   7.088  0.0860  0.7260 -0.6531
   38bbb    H18 1100   9.010  11.918   6.941 -0.7955 -0.3282  0.7248
   38bbb     O1 1101   8.728  11.524   6.729  0.3767 -0.3180  0.3549
   39bbb     N1 1102  10.659   8.239   7.862  0.0174  0.8024  0.0032
   39bbb     C1 1103  10.633   8.355   7.946  0.3270  0.2005 -0.9320
   39bbb     H1 1104  10.599   8.436   7.880 -0.8223 -0.1865 -0.8354
   39bbb     H2 1105  10.729   8.386   7.988  1.3291 -1.1177 -2.1461
   39bbb     C2 1106  10.709   8.124   7.943 -0.7558 -0.2672 -0.2060
   39bbb     H3 1107  10.627   8.058   7.974  0.2184 -1.5621 -0.3133
   39bbb     H4 1108  10.745   8.161   8.040 -3.8514 -0.7075  1.2336
   39bbb     C3 1109  10.560   8.214   7.756  0.5776  0.7516 -0.5782
   39bbb     H5 1110  10.460   8.208   7.799 -0.1951 -0.1731 -2.4099
   39bbb     H6 1111  10.578   8.117   7.708 -1.7061  0.3794 -0.7846
   39bbb     C4 1112  10.537   8.326   7.648 -1.0650  0.2541 -0.5318
   39bbb     H7 1113  10.636   8.345   7.606 -0.8549 -1.2300 -0.7569
   39bbb     H8 1114  10.503   8.419   7.694  1.0953  0.4057  0.8926
   39bbb     C5 1115  10.531   8.328   8.067  0.3737 -0.7225 -0.1411
   39bbb     H9 1116  10.569   8.245   8.129  2.6030  1.0787  1.0661
   39bbb    H10 1117  10.434   8.297   8.027  1.3382 -1.5053 -2.0332
   39bbb     C6 1118  10.818   8.048   7.872  0.1762 -0.0540 -0.6829
   39bbb    H11 1119  10.883   8.122   7.824 -0.2976  0.8740  0.0822
   39bbb    H12 1120  10.770   7.983   7.797 -1.0807  0.4929 -0.3932
   39bbb     C7 1121  10.427   8.283   7.553 -0.5923  0.5506  0.1638
   39bbb    H13 1122  10.432   8.182   7.511  0.8585  1.1836 -1.2915
   39bbb    H14 1123  10.407   8.359   7.477  1.3128  1.4811  0.5276
   39bbb     C8 1124  10.907   7.971   7.973 -0.2211 -0.2332  0.3577
   39bbb    H15 1125  10.973   7.916   7.905  0.7289 -0.0183  1.0802
   39bbb    H16 1126  10.853   7.894   8.030 -0.6305 -0.0635  0.2038
   39bbb     C9 1127  10.513   8.456   8.157  0.0346  0.2528  0.2310
   39bbb    H17 1128  10.438   8.436   8.235  0.5233  0.3874  0.7367
   39bbb    H18 1129  10.476   8.542   8.099  1.6530  1.4619  0.9192
   39bbb     O1 1130  10.311   8.274   7.630  0.5009  0.2807 -0.0993
   40bbb     N1 1131   9.822   8.312   6.488  0.0158 -0.7512  0.1551
   40bbb     C1 1132   9.963   8.269   6.462 -0.3899 -0.6207 -0.0600
   40bbb     H1 1133   9.971   8.188   6.389 -1.2214  1.0238 -2.0859
   40bbb     H2 1134   9.999   8.227   6.556 -2.0512 -1.6418  0.1629
   40bbb     C2 1135   9.724   8.208   6.466  0.6636  0.1476 -0.3729
   40bbb     H3 1136   9.742   8.130   6.541 -3.3877  1.0498  1.7699
   40bbb     H4 1137   9.728   8.178   6.360 -1.8537  0.1409 -0.5192
   40bbb     C3 1138   9.795   8.431   6.573  0.4007 -0.2825  0.5812
   40bbb     H5 1139   9.689   8.453   6.588  0.5006  1.2692 -0.7504
   40bbb     H6 1140   9.821   8.512   6.505  0.0128 -0.2608  0.4578
   40bbb     C4 1141   9.867   8.449   6.706  0.3157  1.2225 -0.1059
   40bbb     H7 1142   9.842   8.544   6.753 -3.1822  1.0258 -1.2488
   40bbb     H8 1143   9.974   8.448   6.683  0.9868 -0.3544  2.5856
   40bbb     C5 1144  10.065   8.383   6.419 -0.7275 -0.3834 -0.1578
   40bbb     H9 1145  10.069   8.475   6.479  0.8920  0.1929 -1.0882
   40bbb    H10 1146  10.051   8.419   6.316 -2.0448  1.3082  0.5678
   40bbb     C6 1147   9.580   8.241   6.488  0.4009 -0.3986  0.3529
   40bbb    H11 1148   9.551   8.338   6.446 -2.3266 -0.8410  1.0275
   40bbb    H12 1149   9.568   8.252   6.597  3.7364 -1.1045  0.8944
   40bbb     C7 1150   9.839   8.327   6.803  0.5254 -0.0006 -1.1211
   40bbb    H13 1151   9.911   8.251   6.773 -0.6116 -1.5490 -0.1327
   40bbb    H14 1152   9.740   8.283   6.782  0.2336  0.4835 -0.7902
   40bbb     C8 1153   9.486   8.128   6.437 -0.0787 -0.8925  0.1507
   40bbb    H15 1154   9.388   8.146   6.484  0.0121 -3.2348  1.3930
   40bbb    H16 1155   9.520   8.033   6.481  0.8342 -1.1018 -0.9777
   40bbb     C9 1156  10.212   8.331   6.435  0.3862 -0.0691 -0.2774
   40bbb    H17 1157  10.231   8.255   6.358  1.9400  0.3118 -0.2884
   40bbb    H18 1158  10.225   8.273   6.527 -0.8975  1.5792  1.0056
   40bbb     O1 1159   9.845   8.379   6.942 -0.1453 -0.0784  0.1236
   41bbb     N1 1160   7.946   8.261   7.688  0.4472  0.2797  0.0445
   41bbb     C1 1161   8.062   8.265   7.774 -0.2098 -0.1587 -0.4314
   41bbb     H1 1162   8.110   8.167   7.779  0.2410  0.0180 -1.1633
   41bbb     H2 1163   8.029   8.277   7.878  0.1345  0.3411 -0.3760
   41bbb     C2 1164   7.867   8.383   7.685  0.7132  0.1141 -0.8782
   41bbb     H3 1165   7.776   8.370   7.624 -0.0229  1.4071 -0.1048
   41bbb     H4 1166   7.923   8.463   7.635  1.9644 -0.3438 -0.2433
   41bbb     C3 1167   7.968   8.216   7.545 -0.0844  0.2880  0.1090
   41bbb     H5 1168   8.028   8.284   7.484  0.9700  0.3815  1.2182
   41bbb     H6 1169   7.876   8.203   7.486  1.5157  0.1422 -2.5377
   41bbb     C4 1170   8.049   8.081   7.542 -0.0257  0.0733  0.3123
   41bbb     H7 1171   7.996   8.006   7.601  2.1520 -0.5961  1.5044
   41bbb     H8 1172   8.143   8.107   7.591 -0.1015 -0.0133  0.5072
   41bbb     C5 1173   8.166   8.377   7.749  0.3574  0.1506 -0.8857
   41bbb     H9 1174   8.116   8.473   7.768 -1.1670 -0.9049  0.7252
   41bbb    H10 1175   8.189   8.371   7.642 -2.3170 -0.2205 -1.5001
   41bbb     C6 1176   7.829   8.437   7.824  0.9950 -0.1438 -0.0543
   41bbb    H11 1177   7.784   8.536   7.809  0.8925 -0.2798 -0.7095
   41bbb    H12 1178   7.910   8.447   7.897  0.1686 -1.0041  1.0133
   41bbb     C7 1179   8.071   8.030   7.397 -0.0441  0.2573  0.0182
   41bbb    H13 1180   7.974   8.019   7.348 -0.0033  1.5833 -0.4110
   41bbb    H14 1181   8.119   7.932   7.399 -1.5188 -0.5465 -1.5352
   41bbb     C8 1182   7.722   8.343   7.895 -0.1390 -0.1341  0.0943
   41bbb    H15 1183   7.744   8.236   7.891  0.6355  0.0058  0.4183
   41bbb    H16 1184   7.627   8.354   7.842  0.5646  0.7796 -1.0390
   41bbb     C9 1185   8.289   8.366   7.843  0.2617  0.5212  0.0804
   41bbb    H17 1186   8.257   8.366   7.948  1.7795  1.3803  0.5756
   41bbb    H18 1187   8.348   8.458   7.833  0.5868  0.3831  0.6646
   41bbb     O1 1188   8.157   8.121   7.322 -0.0071  0.4324  0.5094
   42bbb     N1 1189   8.465   8.905   6.843  0.1068  0.1281 -0.0661
   42bbb     C1 1190   8.416   8.832   6.720 -0.7216  0.6226 -0.1202
   42bbb     H1 1191   8.411   8.904   6.638  0.3280  0.8336 -0.0040
   42bbb     H2 1192   8.311   8.803   6.732 -0.7245  0.8900  0.5102
   42bbb     C2 1193   8.414   9.049   6.850 -0.3723  0.5560  0.4279
   42bbb     H3 1194   8.434   9.088   6.749  3.2693  1.6481  1.4068
   42bbb     H4 1195   8.469   9.113   6.921  1.9804  0.5109 -1.2466
   42bbb     C3 1196   8.450   8.822   6.966 -0.2434  0.5958  0.2386
   42bbb     H5 1197   8.509   8.731   6.949 -0.6758  0.0418  1.6046
   42bbb     H6 1198   8.345   8.795   6.979 -0.6389  0.5752 -2.4250
   42bbb     C4 1199   8.517   8.879   7.095  0.9021  0.4633 -0.9316
   42bbb     H7 1200   8.509   8.988   7.097 -0.6750  0.3798 -1.0838
   42bbb     H8 1201   8.624   8.861   7.082  0.8883 -0.0157 -0.4303
   42bbb     C5 1202   8.504   8.714   6.666 -0.2888  0.1278  0.0267
   42bbb     H9 1203   8.539   8.644   6.742 -2.6666 -2.5322 -1.1486
   42bbb    H10 1204   8.591   8.755   6.613 -0.1329  1.3056  1.1411
   42bbb     C6 1205   8.261   9.064   6.874  0.3714  0.1646 -0.4994
   42bbb    H11 1206   8.201   9.004   6.805 -1.6809  2.6611 -1.0190
   42bbb    H12 1207   8.221   9.162   6.845  1.9767  1.7668  2.3013
   42bbb     C7 1208   8.468   8.824   7.239 -0.4486 -0.3137 -0.5402
   42bbb    H13 1209   8.359   8.813   7.231 -0.6454  1.2556 -0.3730
   42bbb    H14 1210   8.502   8.884   7.324  0.4725 -1.4560 -0.0814
   42bbb     C8 1211   8.215   9.036   7.018 -0.8944 -0.1807 -0.3034
   42bbb    H15 1212   8.216   8.928   7.038 -0.6818 -0.2175 -0.5128
   42bbb    H16 1213   8.112   9.070   7.036 -0.1360  1.4017  1.4986
   42bbb     C9 1214   8.427   8.620   6.562  0.1641  0.4236 -0.6238
   42bbb    H17 1215   8.363   8.687   6.504 -0.6872 -0.4047 -0.6700
   42bbb    H18 1216   8.363   8.559   6.627  0.8304  1.6907  1.3156
   42bbb     O1 1217   8.517   8.691   7.262 -0.2293 -0.1311 -0.0620
   43bbb     N1 1218   8.891   9.879   9.003  0.2687  0.0307 -0.3093
   43bbb     C1 1219   8.766   9.942   8.950 -0.2213  0.2691  0.1215
   43bbb     H1 1220   8.758   9.916   8.843 -0.4618 -2.9263  0.8134
   43bbb     H2 1221   8.775  10.051   8.945 -2.4565  0.4661 -2.4187
   43bbb     C2 1222   8.939   9.941   9.132 -0.1061 -0.3948  0.4138
   43bbb     H3 1223   8.870   9.918   9.215 -0.4276  1.5966  0.7312
   43bbb     H4 1224   8.930  10.049   9.116  1.8979 -0.4864 -1.8291
   43bbb     C3 1225   8.875   9.734   9.020  0.3644 -0.4925 -1.0264
   43bbb     H5 1226   8.804   9.708   9.100 -0.7494  1.5290 -1.3159
   43bbb     H6 1227   8.972   9.686   9.040  0.7780 -0.0330 -1.8753
   43bbb     C4 1228   8.835   9.660   8.889 -0.4286  0.6328  0.1266
   43bbb     H7 1229   8.742   9.694   8.841  0.3194  0.3533 -1.5843
   43bbb     H8 1230   8.842   9.553   8.910  0.5251  0.4105 -1.1907
   43bbb     C5 1231   8.639   9.897   9.036  0.1271  0.1609 -0.4671
   43bbb     H9 1232   8.657   9.907   9.144 -2.0600  0.8582 -0.1152
   43bbb    H10 1233   8.614   9.792   9.018  0.9945  0.1116 -1.4944
   43bbb     C6 1234   9.079   9.897   9.173 -0.4761 -0.3774  0.1510
   43bbb    H11 1235   9.147   9.950   9.105 -2.1613  0.7228 -0.7395
   43bbb    H12 1236   9.097   9.789   9.173 -0.0661 -0.3135  0.8008
   43bbb     C7 1237   8.953   9.688   8.785  0.0169 -0.1493 -0.5871
   43bbb    H13 1238   8.976   9.793   8.761 -0.3460 -0.6600 -3.6147
   43bbb    H14 1239   8.922   9.639   8.692 -1.9036  0.3887 -0.2739
   43bbb     C8 1240   9.121   9.951   9.312 -0.3782 -0.1561  0.0510
   43bbb    H15 1241   9.069   9.900   9.394  0.7872 -0.6258  0.5188
   43bbb    H16 1242   9.097  10.057   9.317 -1.0437 -0.3248  0.5208
   43bbb     C9 1243   8.506   9.967   9.006 -0.7022 -0.2888 -0.0077
   43bbb    H17 1244   8.425   9.955   9.080  0.4287  0.0985  1.3214
   43bbb    H18 1245   8.469   9.925   8.912 -0.8616 -0.6436  0.2102
   43bbb     O1 1246   9.063   9.619   8.829 -0.0722  0.3897 -0.7743
   44bbb     N1 1247  10.087   9.475   9.568  0.5845 -0.2101  0.1224
   44bbb     C1 1248  10.172   9.543   9.464  0.6061 -0.1577  0.4603
   44bbb     H1 1249  10.155   9.504   9.362 -1.4716  0.1354  0.6517
   44bbb     H2 1250  10.277   9.516   9.481  0.4633 -0.3789  0.9877
   44bbb     C2 1251  10.104   9.329   9.563  0.6359 -0.6122  0.5698
   44bbb     H3 1252  10.210   9.302   9.572  1.4182  1.9340  0.0415
   44bbb     H4 1253  10.078   9.294   9.462  0.7116 -3.4596  1.4711
   44bbb     C3 1254   9.953   9.525   9.583  0.6700 -0.3799 -0.0739
   44bbb     H5 1255   9.954   9.631   9.611  0.5254  0.2155 -2.2007
   44bbb     H6 1256   9.907   9.478   9.671 -0.8886  1.6508  0.2703
   44bbb     C4 1257   9.864   9.510   9.457  0.2242  0.8586  0.4829
   44bbb     H7 1258   9.874   9.403   9.433 -2.0446  0.7326 -0.1474
   44bbb     H8 1259   9.912   9.568   9.377  0.3246 -0.0963 -0.1682
   44bbb     C5 1260  10.162   9.699   9.454  0.3724  0.0665  0.0100
   44bbb     H9 1261  10.131   9.748   9.547  0.6933  0.4112 -0.0634
   44bbb    H10 1262  10.077   9.719   9.388  0.8092 -1.0370 -0.9277
   44bbb     C6 1263  10.018   9.250   9.664 -0.3300 -0.0875 -0.1990
   44bbb    H11 1264   9.911   9.261   9.644 -0.3321 -1.6235 -1.1682
   44bbb    H12 1265  10.041   9.297   9.760 -0.8931  0.2229 -0.2133
   44bbb     C7 1266   9.716   9.548   9.486 -0.3351  0.3686  0.2481
   44bbb    H13 1267   9.705   9.653   9.515  2.0811  1.3289 -1.9271
   44bbb    H14 1268   9.689   9.482   9.570  1.5411  0.0428  0.6372
   44bbb     C8 1269  10.047   9.092   9.669 -0.7717 -0.0838  0.4052
   44bbb    H15 1270  10.155   9.076   9.682 -0.1647  1.5421 -2.0329
   44bbb    H16 1271  10.025   9.047   9.571  3.0695 -0.8324 -0.2795
   44bbb     C9 1272  10.292   9.754   9.397 -0.7962 -0.1692  0.2163
   44bbb    H17 1273  10.306   9.859   9.426  1.7389 -0.6960  1.1656
   44bbb    H18 1274  10.380   9.712   9.448  0.6847  2.1080 -0.2691
   44bbb     O1 1275   9.635   9.516   9.371  0.1239  0.5910 -0.3367
   45bbb     N1 1276   9.006   9.462   9.635 -0.0647 -0.1636  0.2661
   45bbb     C1 1277   9.023   9.569   9.740  0.6752  0.6304 -0.1404
   45bbb     H1 1278   9.120   9.618   9.728  0.1985  1.0860 -2.6755
   45bbb     H2 1279   9.028   9.516   9.836 -1.4141  0.8431  0.1519
   45bbb     C2 1280   8.988   9.515   9.498  0.4814 -0.1999  0.4978
   45bbb     H3 1281   9.083   9.564   9.472 -0.2735  0.7138 -0.6890
   45bbb     H4 1282   8.908   9.591   9.503 -0.2004 -0.5920 -2.4565
   45bbb     C3 1283   9.109   9.348   9.651 -0.2261  0.2529  0.4643
   45bbb     H5 1284   9.094   9.281   9.565 -1.1527  1.2750 -0.1981
   45bbb     H6 1285   9.093   9.284   9.738 -2.0633  0.4221  0.2869
   45bbb     C4 1286   9.261   9.397   9.649  0.0799 -0.6036  0.3833
   45bbb     H7 1287   9.287   9.444   9.745 -2.3007  1.3593  0.1404
   45bbb     H8 1288   9.276   9.472   9.570  0.7527 -1.6491 -0.5080
   45bbb     C5 1289   8.911   9.668   9.762 -0.6862  0.8307 -0.4379
   45bbb     H9 1290   8.908   9.739   9.679 -1.6413  0.1678 -0.9774
   45bbb    H10 1291   8.932   9.735   9.847 -0.9474  1.6680 -1.0200
   45bbb     C6 1292   8.956   9.403   9.390  0.1313 -0.4567  0.5889
   45bbb    H11 1293   8.908   9.316   9.438  0.0769 -1.4243 -1.1407
   45bbb    H12 1294   9.053   9.375   9.347  0.6502  1.4961  0.4068
   45bbb     C7 1295   9.349   9.264   9.631 -0.5162  0.0100  0.0513
   45bbb    H13 1296   9.318   9.189   9.705 -0.0029 -0.5019 -0.2382
   45bbb    H14 1297   9.454   9.292   9.647 -0.7791  0.7175  0.5626
   45bbb     C8 1298   8.872   9.450   9.267  0.4045 -0.5305 -0.2554
   45bbb    H15 1299   8.838   9.362   9.212 -0.3660  0.8554 -2.0830
   45bbb    H16 1300   8.927   9.510   9.194 -3.7576 -0.2379 -3.5636
   45bbb     C9 1301   8.775   9.608   9.787 -0.5021  0.4379  0.0508
   45bbb    H17 1302   8.787   9.519   9.850  3.8174 -0.8332 -2.1903
   45bbb    H18 1303   8.724   9.568   9.698 -0.8296 -0.3573  0.5800
   45bbb     O1 1304   9.317   9.225   9.499 -0.2993 -0.6983 -0.1474
   46bbb     N1 1305   8.687   8.259   9.168 -0.7746  0.2052  0.1564
   46bbb     C1 1306   8.536   8.258   9.162  0.4716 -0.0413 -0.1592
   46bbb     H1 1307   8.483   8.202   9.085  0.1775 -1.6319  1.1413
   46bbb     H2 1308   8.484   8.354   9.155 -1.7342 -1.0412  1.3998
   46bbb     C2 1309   8.748   8.124   9.197 -0.9378  0.0273 -0.8935
   46bbb     H3 1310   8.708   8.083   9.290  0.1458  0.2726 -0.2919
   46bbb     H4 1311   8.854   8.129   9.227 -0.8890 -5.7417  1.1043
   46bbb     C3 1312   8.748   8.315   9.042 -0.5969 -1.0182 -0.1433
   46bbb     H5 1313   8.712   8.259   8.956  1.3228  0.3085 -1.9057
   46bbb     H6 1314   8.857   8.302   9.034 -0.4405 -0.0693  0.2768
   46bbb     C4 1315   8.711   8.468   9.022 -0.1927 -0.6789 -0.0290
   46bbb     H7 1316   8.603   8.481   9.006 -0.0126  0.5993 -0.3349
   46bbb     H8 1317   8.750   8.508   8.928 -0.0105  0.2931  0.4442
   46bbb     C5 1318   8.466   8.200   9.286 -0.6606 -0.1963  0.2314
   46bbb     H9 1319   8.471   8.090   9.285  0.1287 -0.1928 -1.8259
   46bbb    H10 1320   8.361   8.228   9.272 -0.2969 -0.0193 -2.6545
   46bbb     C6 1321   8.747   8.018   9.090 -0.9995 -1.2239  0.3523
   46bbb    H11 1322   8.819   8.051   9.015 -2.1238 -0.9807 -0.6590
   46bbb    H12 1323   8.647   8.021   9.044 -0.5769  3.5869 -0.7309
   46bbb     C7 1324   8.753   8.553   9.139  0.7075  0.3184  0.4726
   46bbb    H13 1325   8.862   8.546   9.135  0.6941  0.1147 -3.6314
   46bbb    H14 1326   8.710   8.513   9.231 -3.8887  3.9154  0.3131
   46bbb     C8 1327   8.791   7.878   9.140  0.3783  1.1424  0.0003
   46bbb    H15 1328   8.773   7.801   9.063 -2.0250  0.8206  0.8102
   46bbb    H16 1329   8.712   7.847   9.209  1.1362  1.0926  0.8586
   46bbb     C9 1330   8.521   8.254   9.425 -0.1940 -0.4790 -0.2086
   46bbb    H17 1331   8.508   8.361   9.443 -0.5946 -0.6491  0.5230
   46bbb    H18 1332   8.629   8.237   9.423 -0.4351 -2.2310 -2.0435
   46bbb     O1 1333   8.707   8.685   9.113  0.5897 -0.1248 -0.2704
   47bbb     N1 1334  11.614   9.614   6.202  0.1826  0.1497 -0.3780
   47bbb     C1 1335  11.617   9.516   6.094  0.1616  0.0583 -0.4819
   47bbb     H1 1336  11.604   9.413   6.131  0.6994  0.4069  0.7535
   47bbb     H2 1337  11.722   9.519   6.061  0.2301  1.1964 -0.2089
   47bbb     C2 1338  11.685   9.746   6.188  0.8579  0.4245 -0.2701
   47bbb     H3 1339  11.682   9.815   6.273 -2.8484  1.8616 -1.3590
   47bbb     H4 1340  11.635   9.798   6.105 -0.1610 -1.1884 -0.7076
   47bbb     C3 1341  11.485   9.613   6.276 -0.2105 -0.4794  0.3098
   47bbb     H5 1342  11.464   9.506   6.291  1.2874 -0.6143  1.6777
   47bbb     H6 1343  11.409   9.652   6.207 -0.1777 -3.5618 -1.6443
   47bbb     C4 1344  11.477   9.679   6.414  0.2769 -0.3150  0.6525
   47bbb     H7 1345  11.494   9.787   6.399  0.4522 -0.4337 -0.0612
   47bbb     H8 1346  11.565   9.651   6.473 -1.2690  0.7495  3.6814
   47bbb     C5 1347  11.525   9.554   5.974  0.2708  0.9306 -0.3027
   47bbb     H9 1348  11.554   9.654   5.940  2.3106  0.7096  0.6297
   47bbb    H10 1349  11.418   9.546   5.994 -0.0015  0.1816 -1.8484
   47bbb     C6 1350  11.837   9.748   6.150  1.0954 -0.6268 -0.2850
   47bbb    H11 1351  11.839   9.695   6.054  0.7835  0.8805 -1.1598
   47bbb    H12 1352  11.912   9.696   6.211  3.7718  0.6896 -2.2287
   47bbb     C7 1353  11.349   9.649   6.498 -0.3879  0.4614  0.0230
   47bbb    H13 1354  11.353   9.708   6.591 -0.3918 -0.9106  0.9203
   47bbb    H14 1355  11.352   9.540   6.506  0.8716  0.5197  0.6024
   47bbb     C8 1356  11.889   9.895   6.130  0.3529  0.1455 -0.1209
   47bbb    H15 1357  11.875   9.934   6.029 -0.5909 -1.3906 -0.6178
   47bbb    H16 1358  11.996   9.896   6.153  0.2096 -2.3929  1.0610
   47bbb     C9 1359  11.540   9.445   5.861  0.6536 -0.0823 -0.3703
   47bbb    H17 1360  11.535   9.347   5.910 -0.2408  0.1961  0.1093
   47bbb    H18 1361  11.635   9.440   5.807 -0.5837  1.1200 -2.8281
   47bbb     O1 1362  11.234   9.700   6.422 -0.9085 -0.4006 -0.2662
   48bbb     N1 1363  10.998   8.663   5.931  0.2483  0.0898  0.4050
   48bbb     C1 1364  10.896   8.548   5.969 -0.1245  0.5679  0.0796
   48bbb     H1 1365  10.867   8.552   6.075  0.8651  0.4618  0.3683
   48bbb     H2 1366  10.939   8.448   5.957 -2.2830 -0.3020 -0.8569
   48bbb     C2 1367  11.132   8.642   5.989  0.5505  0.2320  0.3901
   48bbb     H3 1368  11.208   8.692   5.928  1.0720 -1.6462 -0.6012
   48bbb     H4 1369  11.144   8.533   5.991 -0.9767  0.0564  1.9176
   48bbb     C3 1370  10.936   8.797   5.957  0.2085 -0.1203 -0.3129
   48bbb     H5 1371  10.908   8.818   6.061  0.6199  1.3894 -0.4802
   48bbb     H6 1372  10.845   8.801   5.895  1.3000 -0.8539 -2.0354
   48bbb     C4 1373  11.021   8.917   5.915 -0.5073 -0.1913 -0.1838
   48bbb     H7 1374  11.047   8.898   5.810  0.3104  0.4173 -0.1051
   48bbb     H8 1375  11.111   8.923   5.977 -2.2334 -0.5723  2.5396
   48bbb     C5 1376  10.774   8.538   5.877  0.4372  0.1867 -0.2948
   48bbb     H9 1377  10.713   8.628   5.889 -1.0299 -0.8248  0.1145
   48bbb    H10 1378  10.714   8.451   5.907 -1.0993  1.8035  1.5906
   48bbb     C6 1379  11.147   8.683   6.140 -0.4570  0.5239  0.4523
   48bbb    H11 1380  11.078   8.632   6.208 -2.6312  1.7940 -0.7214
   48bbb    H12 1381  11.133   8.791   6.146 -1.4803  0.5836 -2.0831
   48bbb     C7 1382  10.943   9.051   5.928 -1.0024  0.3075  0.9217
   48bbb    H13 1383  10.871   9.057   5.845  0.1957  0.2407 -0.1549
   48bbb    H14 1384  11.009   9.136   5.909 -0.6951 -0.0807  0.2319
   48bbb     C8 1385  11.288   8.645   6.186 -0.2358 -0.1663  0.5707
   48bbb    H15 1386  11.354   8.720   6.139 -0.8507  0.1859  0.2553
   48bbb    H16 1387  11.311   8.547   6.142 -0.3191  0.6169 -1.3315
   48bbb     C9 1388  10.816   8.514   5.734  0.2282 -0.2352  0.0829
   48bbb    H17 1389  10.879   8.425   5.723  3.1365  1.7022 -0.0048
   48bbb    H18 1390  10.889   8.588   5.700  0.7490 -0.8208 -0.0907
   48bbb     O1 1391  10.890   9.069   6.066  0.4610  0.5079 -0.1267
   49bbb     N1 1392  10.248  10.982   7.223  0.5810 -0.5116 -0.5282
   49bbb     C1 1393  10.321  10.930   7.346 -0.0975 -0.1798 -0.8233
   49bbb     H1 1394  10.419  10.888   7.322 -0.5912 -1.2012 -1.0825
   49bbb     H2 1395  10.267  10.847   7.392 -1.3589  1.4267  0.7610
   49bbb     C2 1396  10.101  11.002   7.238  0.0115 -0.5808  0.0644
   49bbb     H3 1397  10.083  11.041   7.339  2.8222 -0.3361  0.5433
   49bbb     H4 1398  10.048  10.906   7.229 -0.2696 -0.4352  0.1626
   49bbb     C3 1399  10.273  10.914   7.105 -0.2630  0.1303  0.0351
   49bbb     H5 1400  10.197  10.946   7.032  1.1682  2.8029 -0.4312
   49bbb     H6 1401  10.276  10.805   7.114 -1.3599  0.1589  1.0144
   49bbb     C4 1402  10.408  10.968   7.051  0.3212  0.3052  0.1561
   49bbb     H7 1403  10.478  10.975   7.135  1.3028  1.2294 -0.7093
   49bbb     H8 1404  10.388  11.069   7.012 -0.9134 -0.1010 -0.3201
   49bbb     C5 1405  10.345  11.032   7.461  0.1266  0.1764 -0.6472
   49bbb     H9 1406  10.348  10.984   7.560 -1.5400 -2.3244 -1.6941
   49bbb    H10 1407  10.256  11.096   7.465  0.3703  0.4950 -0.3185
   49bbb     C6 1408  10.041  11.107   7.139  0.2901 -0.2198 -0.2853
   49bbb    H11 1409  10.070  11.100   7.033 -1.4466 -0.3445 -0.7828
   49bbb    H12 1410  10.075  11.204   7.177 -0.5216  0.1103 -0.3921
   49bbb     C7 1411  10.458  10.878   6.945  0.5902  0.0132 -0.3078
   49bbb    H13 1412  10.557  10.917   6.918  0.3313 -0.0517 -1.3767
   49bbb    H14 1413  10.391  10.882   6.859 -0.0941 -4.6172 -0.2449
   49bbb     C8 1414   9.887  11.112   7.124 -0.1971  0.3331  0.1865
   49bbb    H15 1415   9.845  11.119   7.225  0.7486 -1.0273  0.7122
   49bbb    H16 1416   9.855  11.013   7.087  0.4314 -1.1442  3.2521
   49bbb     C9 1417  10.469  11.113   7.446 -0.3814  0.3062 -0.4256
   49bbb    H17 1418  10.465  11.207   7.502  0.8313 -0.2198  0.6025
   49bbb    H18 1419  10.488  11.141   7.341  2.5934  1.8082  0.4036
   49bbb     O1 1420  10.462  10.751   7.003  0.6231  0.1590  0.3354
   50bbb     N1 1421  10.730  10.451   7.832 -0.3875  0.1960  0.2255
   50bbb     C1 1422  10.826  10.559   7.868  0.1421 -0.5499  0.5298
   50bbb     H1 1423  10.822  10.633   7.786  2.4478 -1.1838 -0.2225
   50bbb     H2 1424  10.929  10.524   7.878  0.8375  1.1364 -0.2683
   50bbb     C2 1425  10.715  10.333   7.926  0.2820 -0.0392  0.1363
   50bbb     H3 1426  10.663  10.252   7.874 -0.1948  0.8893 -0.8602
   50bbb     H4 1427  10.648  10.353   8.011  2.3966  0.0097  1.8885
   50bbb     C3 1428  10.602  10.500   7.783 -0.1813 -0.0352 -0.0592
   50bbb     H5 1429  10.614  10.573   7.702 -2.3923 -0.5563 -0.9072
   50bbb     H6 1430  10.551  10.553   7.865  0.9915 -1.1974  1.4850
   50bbb     C4 1431  10.506  10.400   7.721 -0.5175 -0.4202  0.0384
   50bbb     H7 1432  10.471  10.328   7.797 -0.5767 -0.0656  0.3505
   50bbb     H8 1433  10.554  10.336   7.646  0.5783  0.2359  0.1706
   50bbb     C5 1434  10.795  10.643   7.990  0.2242 -0.8851 -0.0746
   50bbb     H9 1435  10.700  10.693   7.969  1.1134  1.0516  0.2857
   50bbb    H10 1436  10.869  10.724   7.982  0.0031 -0.7370 -0.6740
   50bbb     C6 1437  10.850  10.262   7.971  0.0259  0.8424  0.1299
   50bbb    H11 1438  10.905  10.326   8.041 -1.1416 -0.0568  1.9558
   50bbb    H12 1439  10.918  10.247   7.886  1.6891  0.5484  1.4580
   50bbb     C7 1440  10.380  10.463   7.661  0.1923  0.4312  0.2386
   50bbb    H13 1441  10.371  10.566   7.696  2.7996  0.2623  1.7163
   50bbb    H14 1442  10.288  10.417   7.698  0.5479  1.0874  2.0596
   50bbb     C8 1443  10.821  10.131   8.044  1.4753 -0.2700 -0.4005
   50bbb    H15 1444  10.742  10.085   7.982  1.1654  0.5125 -0.6037
   50bbb    H16 1445  10.774  10.166   8.137  0.1812 -1.6008 -0.4988
   50bbb     C9 1446  10.789  10.578   8.132  0.1645  0.2646  0.2541
   50bbb    H17 1447  10.720  10.493   8.132 -0.5808  0.8288  1.7639
   50bbb    H18 1448  10.746  10.655   8.198 -0.0191  0.8992 -0.5939
   50bbb     O1 1449  10.382  10.461   7.519 -0.3877 -0.1601  0.3039
   51bbb     N1 1450   8.496   9.621   5.105  0.3283 -0.1328  0.1982
   51bbb     C1 1451   8.397   9.528   5.166 -0.9602  0.6484 -0.1146
   51bbb     H1 1452   8.444   9.430   5.151 -0.3235  1.0657 -0.9198
   51bbb     H2 1453   8.310   9.535   5.099 -1.1464  2.7242  0.2953
   51bbb     C2 1454   8.508   9.620   4.957 -0.7903 -0.1621 -0.0456
   51bbb     H3 1455   8.514   9.516   4.923 -3.6186 -0.0168 -1.2975
   51bbb     H4 1456   8.602   9.672   4.936  0.1233 -1.7018  0.0375
   51bbb     C3 1457   8.621   9.645   5.180  0.2544  0.0014  0.1462
   51bbb     H5 1458   8.605   9.663   5.287  0.4534  1.7264 -0.0851
   51bbb     H6 1459   8.684   9.730   5.149  0.9986 -0.8525 -0.7712
   51bbb     C4 1460   8.722   9.528   5.166  0.1095 -0.3624 -0.6839
   51bbb     H7 1461   8.747   9.503   5.062  1.5609 -1.3221 -0.1371
   51bbb     H8 1462   8.667   9.444   5.209 -1.9943  0.7208 -1.1454
   51bbb     C5 1463   8.340   9.557   5.307 -0.2019  0.0386  0.7609
   51bbb     H9 1464   8.264   9.637   5.305 -1.2264 -0.9329 -0.2255
   51bbb    H10 1465   8.417   9.596   5.376  0.4153  1.1841 -0.5371
   51bbb     C6 1466   8.382   9.682   4.893  0.6110  0.0185 -0.1906
   51bbb    H11 1467   8.356   9.778   4.940 -0.9470 -0.5463  0.1626
   51bbb    H12 1468   8.298   9.614   4.914  0.7531 -1.0313 -2.6490
   51bbb     C7 1469   8.859   9.554   5.237  0.1633 -0.2866 -0.1821
   51bbb    H13 1470   8.923   9.466   5.227  0.3678 -0.4126  1.8276
   51bbb    H14 1471   8.832   9.574   5.342  1.5004  0.4159  0.0579
   51bbb     C8 1472   8.396   9.713   4.735 -0.1954  0.3325 -0.2236
   51bbb    H15 1473   8.296   9.740   4.702 -0.3459  1.3150  0.9687
   51bbb    H16 1474   8.426   9.618   4.688  3.1710  0.2358  1.7739
   51bbb     C9 1475   8.265   9.429   5.368  1.1371  0.5871  0.3602
   51bbb    H17 1476   8.326   9.343   5.397 -0.2114 -1.0612 -1.4830
   51bbb    H18 1477   8.199   9.378   5.298  2.3104 -2.0974  1.0975
   51bbb     O1 1478   8.917   9.674   5.183 -0.0072 -0.1199  0.2058
   52bbb     N1 1479   9.745  10.482   4.827 -0.5442  0.4443 -0.0706
   52bbb     C1 1480   9.843  10.425   4.926 -0.4570 -0.5548  0.3816
   52bbb     H1 1481   9.803  10.428   5.028  3.4184 -0.9302  2.1102
   52bbb     H2 1482   9.933  10.488   4.934 -1.0936  0.4075  0.0598
   52bbb     C2 1483   9.726  10.628   4.837 -0.0546 -0.2404  0.1766
   52bbb     H3 1484   9.825  10.674   4.838  0.8536 -2.1015  0.8308
   52bbb     H4 1485   9.683  10.648   4.936 -0.6959 -0.6402 -0.0121
   52bbb     C3 1486   9.621  10.398   4.825  0.0686 -0.2100  0.6067
   52bbb     H5 1487   9.538  10.448   4.876 -0.1219  0.1631 -0.0519
   52bbb     H6 1488   9.637  10.303   4.878 -1.7817 -0.9157 -0.0271
   52bbb     C4 1489   9.579  10.345   4.683  0.2948 -0.5214 -0.2152
   52bbb     H7 1490   9.643  10.259   4.662  0.9674 -0.1352  0.2360
   52bbb     H8 1491   9.591  10.418   4.602  0.2201  0.5292  0.7038
   52bbb     C5 1492   9.890  10.278   4.892  0.1182  0.1245 -1.1078
   52bbb     H9 1493   9.923  10.281   4.788  0.3042  2.0240 -1.0254
   52bbb    H10 1494   9.805  10.209   4.891  2.3447 -2.8109 -1.9251
   52bbb     C6 1495   9.655  10.700   4.721  0.2422 -0.5894 -0.5486
   52bbb    H11 1496   9.563  10.643   4.701 -0.0917  0.1841 -1.2488
   52bbb    H12 1497   9.701  10.699   4.622 -0.6755  0.9626 -1.0237
   52bbb     C7 1498   9.427  10.297   4.677 -0.3725 -0.0746  0.5243
   52bbb    H13 1499   9.393  10.261   4.579  0.3936 -1.0228  0.5918
   52bbb    H14 1500   9.359  10.379   4.702  0.0639  0.6635 -0.6128
   52bbb     C8 1501   9.605  10.843   4.764  0.1071  0.0242 -0.2357
   52bbb    H15 1502   9.686  10.916   4.774 -0.4404  1.0128 -2.4744
   52bbb    H16 1503   9.544  10.834   4.854  0.6746  1.8578  0.3694
   52bbb     C9 1504   9.992  10.214   4.992 -0.1212  0.1291 -0.4290
   52bbb    H17 1505   9.989  10.259   5.092  0.7333 -4.5746  1.9605
   52bbb    H18 1506  10.094  10.237   4.957 -0.1654  0.1024 -0.5759
   52bbb     O1 1507   9.415  10.190   4.775 -0.3795 -0.0679  0.4419
   53bbb     N1 1508   8.195  10.803   6.749  0.4135  0.3701 -0.7125
   53bbb     C1 1509   8.184  10.789   6.893  0.1975 -0.6815 -0.5492
   53bbb     H1 1510   8.276  10.836   6.932  0.3384  0.1640 -1.8169
   53bbb     H2 1511   8.195  10.686   6.926  1.5033 -0.2270  0.5308
   53bbb     C2 1512   8.210  10.946   6.714  0.2305  0.0464  0.0270
   53bbb     H3 1513   8.132  10.998   6.771 -0.5094 -1.6269  0.5955
   53bbb     H4 1514   8.192  10.952   6.606  1.0114  2.0166 -0.0490
   53bbb     C3 1515   8.288  10.715   6.678  0.1184  0.0922 -0.8495
   53bbb     H5 1516   8.269  10.610   6.705 -1.9508  0.4390 -0.8212
   53bbb     H6 1517   8.390  10.729   6.717  0.5609  0.6946 -2.1886
   53bbb     C4 1518   8.278  10.714   6.529 -0.3823  0.0563  0.0229
   53bbb     H7 1519   8.302  10.812   6.486 -1.6367  0.7436  0.8369
   53bbb     H8 1520   8.179  10.682   6.496  0.0992  0.4743 -1.9594
   53bbb     C5 1521   8.060  10.844   6.970  0.0833 -0.4903  0.2172
   53bbb     H9 1522   8.065  10.951   6.995 -1.1261 -0.2873 -0.3796
   53bbb    H10 1523   8.085  10.801   7.068  1.3959  1.0212  0.5978
   53bbb     C6 1524   8.338  11.025   6.755  0.0463  0.5104  0.2690
   53bbb    H11 1525   8.402  11.041   6.667  1.3298  1.3903  1.3154
   53bbb    H12 1526   8.404  10.969   6.823 -1.3992  0.1552  1.4520
   53bbb     C7 1527   8.385  10.618   6.469 -0.1472 -0.1613 -0.0016
   53bbb    H13 1528   8.372  10.607   6.360  0.3849  0.8345 -0.1753
   53bbb    H14 1529   8.383  10.519   6.515 -0.4735 -0.9086 -1.5486
   53bbb     C8 1530   8.300  11.159   6.819 -0.5356 -0.3247  0.0634
   53bbb    H15 1531   8.397  11.200   6.851 -0.6395 -0.6706  0.8494
   53bbb    H16 1532   8.232  11.150   6.905  0.8168 -0.0504  1.2074
   53bbb     C9 1533   7.927  10.783   6.917  0.6654 -0.2134  0.0683
   53bbb    H17 1534   7.936  10.673   6.917 -2.2127 -0.5220 -1.0189
   53bbb    H18 1535   7.905  10.807   6.812 -3.8543 -1.5022  0.5196
   53bbb     O1 1536   8.513  10.673   6.475 -0.2384 -0.5202  0.2594
   54bbb     N1 1537   9.490  11.128   6.161 -0.2212  1.1015  0.8161
   54bbb     C1 1538   9.511  11.205   6.035 -0.5900 -1.0606 -0.5959
   54bbb     H1 1539   9.428  11.273   6.014  1.0784  1.3410  0.1689
   54bbb     H2 1540   9.530  11.135   5.952 -0.4076  0.1277 -1.5872
   54bbb     C2 1541   9.614  11.056   6.216  0.7873 -0.1373 -0.5589
   54bbb     H3 1542   9.688  11.133   6.241  0.3983 -0.0216  0.2578
   54bbb     H4 1543   9.648  10.986   6.138 -0.0483 -0.9607 -0.1957
   54bbb     C3 1544   9.369  11.042   6.156 -0.7173  0.4238  0.5538
   54bbb     H5 1545   9.285  11.104   6.121  0.0363  0.6749 -0.8819
   54bbb     H6 1546   9.350  11.015   6.260  1.8923  0.3266  1.0740
   54bbb     C4 1547   9.383  10.913   6.071  0.8670 -0.0729 -0.0227
   54bbb     H7 1548   9.459  10.845   6.111 -1.0438 -2.6183 -0.4827
   54bbb     H8 1549   9.418  10.927   5.969  0.7607  0.0388 -0.0446
   54bbb     C5 1550   9.621  11.315   6.044 -0.0569  0.9831  0.5499
   54bbb     H9 1551   9.718  11.262   6.040  0.4357  1.9291 -0.8792
   54bbb    H10 1552   9.618  11.379   6.132 -0.4429  1.0991  0.4563
   54bbb     C6 1553   9.590  10.974   6.348 -0.0411  0.1045 -0.5905
   54bbb    H11 1554   9.522  10.892   6.323 -2.0596  2.2101 -2.5399
   54bbb    H12 1555   9.541  11.029   6.429 -0.5399 -3.3665  1.6667
   54bbb     C7 1556   9.238  10.849   6.062  0.1362  0.2117  0.8231
   54bbb    H13 1557   9.242  10.761   5.997 -1.9753 -1.4597  2.7963
   54bbb    H14 1558   9.161  10.919   6.025 -0.1925 -0.6652 -0.1984
   54bbb     C8 1559   9.728  10.918   6.405  0.7150  0.0419  0.4192
   54bbb    H15 1560   9.697  10.854   6.489  1.6763 -1.0484 -0.0184
   54bbb    H16 1561   9.789  11.002   6.441  1.2732  0.3547 -1.1713
   54bbb     C9 1562   9.621  11.409   5.926  0.8024  0.0982  0.2988
   54bbb    H17 1563   9.703  11.482   5.928 -0.3289  1.4404 -0.7239
   54bbb    H18 1564   9.532  11.473   5.927 -1.5870 -2.9422  2.6037
   54bbb     O1 1565   9.193  10.796   6.185  0.9048  0.2902 -0.1227
   55bbb     N1 1566   8.842   7.868   6.778 -0.4225  0.3306 -0.2955
   55bbb     C1 1567   8.781   8.003   6.739  0.2363  0.0042 -0.2460
   55bbb     H1 1568   8.782   8.008   6.629  0.0236  1.9067 -0.1962
   55bbb     H2 1569   8.847   8.085   6.770  0.6787 -0.3452 -0.2448
   55bbb     C2 1570   8.768   7.751   6.715 -0.3790  0.7907 -0.3703
   55bbb     H3 1571   8.817   7.696   6.634 -0.6539 -1.9288  1.1838
   55bbb     H4 1572   8.671   7.783   6.676 -0.8697 -0.4784 -0.2609
   55bbb     C3 1573   8.988   7.852   6.763  0.3175 -0.2168  0.2439
   55bbb     H5 1574   9.013   7.890   6.663 -0.8139 -0.0807 -0.0064
   55bbb     H6 1575   9.014   7.746   6.770  0.2957 -0.2444 -0.0844
   55bbb     C4 1576   9.084   7.918   6.869 -0.5163 -0.5437  0.1364
   55bbb     H7 1577   9.079   8.028   6.871  0.0987 -0.5252  0.7268
   55bbb     H8 1578   9.187   7.885   6.851  0.0949  0.5790  1.3358
   55bbb     C5 1579   8.638   8.028   6.793 -0.7635  0.5255 -0.5975
   55bbb     H9 1580   8.630   7.995   6.898 -0.5628  1.5359 -0.2574
   55bbb    H10 1581   8.566   7.963   6.741 -0.0756 -1.9033  1.3081
   55bbb     C6 1582   8.754   7.643   6.821  0.4884  0.1585 -0.6429
   55bbb    H11 1583   8.714   7.683   6.915 -2.5752 -1.3990 -1.1521
   55bbb    H12 1584   8.858   7.618   6.845  0.9270  1.3243 -1.2408
   55bbb     C7 1585   9.052   7.874   7.014  0.2058  0.5622 -0.4738
   55bbb    H13 1586   8.946   7.880   7.041  0.4491 -2.1524  1.5820
   55bbb    H14 1587   9.113   7.946   7.070 -0.4398  2.4170 -2.0545
   55bbb     C8 1588   8.672   7.515   6.781  0.5203  0.3325  0.4097
   55bbb    H15 1589   8.568   7.528   6.814 -1.4120 -0.7379 -4.3459
   55bbb    H16 1590   8.712   7.428   6.834  0.8641 -1.4777 -2.5825
   55bbb     C9 1591   8.600   8.177   6.784  0.3193 -0.0660  0.3387
   55bbb    H17 1592   8.584   8.199   6.678  0.6527 -3.6995 -0.6101
   55bbb    H18 1593   8.688   8.238   6.810  1.5194 -2.2132  1.6037
   55bbb     O1 1594   9.102   7.735   7.031  0.0253  0.1457 -0.1541
   56bbb     N1 1595   9.481   8.099   7.680  0.0542 -0.6303  0.9935
   56bbb     C1 1596   9.377   8.133   7.573 -0.2174  0.0447 -0.4666
   56bbb     H1 1597   9.427   8.172   7.484 -0.2070 -0.8860 -0.8854
   56bbb     H2 1598   9.309   8.216   7.597 -1.8520 -0.0878 -4.0864
   56bbb     C2 1599   9.542   8.223   7.731 -0.0056 -0.3256  0.3856
   56bbb     H3 1600   9.593   8.280   7.653 -1.6318 -1.1440 -1.3735
   56bbb     H4 1601   9.623   8.192   7.798  0.5244 -0.6741 -0.4057
   56bbb     C3 1602   9.584   7.998   7.644  0.0775  0.6259 -0.5704
   56bbb     H5 1603   9.528   7.904   7.635  0.4010  0.5631 -2.4105
   56bbb     H6 1604   9.662   7.997   7.721  1.5168 -2.4895 -1.9087
   56bbb     C4 1605   9.660   8.014   7.510 -0.3642  0.4108  0.0711
   56bbb     H7 1606   9.708   8.113   7.502  0.6764 -0.2332 -2.4663
   56bbb     H8 1607   9.594   8.010   7.423  1.5768  2.7467 -1.6535
   56bbb     C5 1608   9.299   8.011   7.524 -0.0671 -0.2023  0.2019
   56bbb     H9 1609   9.360   7.946   7.460 -0.2871  0.8951 -1.1619
   56bbb    H10 1610   9.224   8.046   7.452  0.1320 -0.4629 -0.1366
   56bbb     C6 1611   9.452   8.315   7.823 -0.0413 -0.0873  0.6377
   56bbb    H11 1612   9.376   8.254   7.875  0.0567 -0.5307  0.2708
   56bbb    H12 1613   9.393   8.377   7.754 -0.5246 -1.6411 -0.4141
   56bbb     C7 1614   9.775   7.907   7.484  0.2411 -0.2750  0.1885
   56bbb    H13 1615   9.858   7.920   7.554 -0.1135 -2.0150  0.9853
   56bbb    H14 1616   9.806   7.927   7.381 -2.7060  0.5013 -0.6693
   56bbb     C8 1617   9.526   8.403   7.927  0.9493 -0.1086 -0.6251
   56bbb    H15 1618   9.450   8.463   7.979 -0.3680 -1.3649 -1.0310
   56bbb    H16 1619   9.594   8.470   7.872  1.5197 -0.2897 -0.1487
   56bbb     C9 1620   9.224   7.937   7.636 -0.4321 -0.0275 -0.2707
   56bbb    H17 1621   9.279   7.928   7.730  0.0052  1.5900 -0.3458
   56bbb    H18 1622   9.183   7.839   7.606 -0.3874  0.4366 -1.9799
   56bbb     O1 1623   9.721   7.770   7.499  0.3561  0.4907  0.2680
   57bbb     N1 1624   8.562   8.076   5.694  0.0377 -0.5693 -0.3126
   57bbb     C1 1625   8.559   8.113   5.547 -0.5018  0.1897  0.0925
   57bbb     H1 1626   8.659   8.095   5.504 -1.4926  0.0616 -2.3363
   57bbb     H2 1627   8.529   8.217   5.533 -2.9324 -0.5196 -0.5057
   57bbb     C2 1628   8.639   8.171   5.777  0.0344 -0.0876  0.7619
   57bbb     H3 1629   8.607   8.276   5.770  0.6160 -0.0246 -1.7219
   57bbb     H4 1630   8.743   8.165   5.743 -0.5380 -0.5873 -0.9759
   57bbb     C3 1631   8.580   7.931   5.724 -1.0561  0.0319  0.4577
   57bbb     H5 1632   8.493   7.870   5.696 -0.0843 -0.7662 -0.9882
   57bbb     H6 1633   8.590   7.910   5.831  0.5009 -3.3109 -0.2157
   57bbb     C4 1634   8.709   7.875   5.651  0.7323 -0.3797  0.4204
   57bbb     H7 1635   8.801   7.933   5.664  1.4684 -1.5040  0.3353
   57bbb     H8 1636   8.687   7.876   5.543  0.5577  2.4340  0.3996
   57bbb     C5 1637   8.465   8.030   5.462  0.1671  0.1239  0.0270
   57bbb     H9 1638   8.369   8.022   5.513 -0.2734  0.7129 -0.6815
   57bbb    H10 1639   8.498   7.926   5.449  0.5182  0.2211  0.1360
   57bbb     C6 1640   8.634   8.146   5.935  0.5441 -0.0997 -0.3205
   57bbb    H11 1641   8.704   8.069   5.969 -0.1025  0.8513  3.6784
   57bbb    H12 1642   8.543   8.091   5.961  1.0080 -1.2521 -1.0484
   57bbb     C7 1643   8.737   7.728   5.695 -0.5728 -0.1495 -0.2966
   57bbb    H13 1644   8.815   7.686   5.630  0.1649 -1.2802  1.2284
   57bbb    H14 1645   8.641   7.677   5.680 -0.6161  0.5434 -2.7788
   57bbb     C8 1646   8.647   8.266   6.030  0.1428 -0.6183  0.7193
   57bbb    H15 1647   8.643   8.231   6.134 -0.1063 -1.5282  0.4032
   57bbb    H16 1648   8.567   8.336   6.003  0.8649  0.9403  2.3429
   57bbb     C9 1649   8.454   8.098   5.323 -0.3644 -0.5567  0.2727
   57bbb    H17 1650   8.427   8.205   5.326 -0.7878 -0.6650  0.3641
   57bbb    H18 1651   8.369   8.053   5.271 -2.0263 -0.5786  2.8100
   57bbb     O1 1652   8.785   7.726   5.829 -0.1799 -0.3496 -0.2129
   58bbb     N1 1653   9.510   7.619   6.018  0.1051 -0.0605 -1.2397
   58bbb     C1 1654   9.638   7.540   6.044 -0.0156  0.8266 -0.7903
   58bbb     H1 1655   9.634   7.484   6.138 -1.5175  1.3255 -0.5224
   58bbb     H2 1656   9.732   7.597   6.050  0.8032 -0.4828 -0.8460
   58bbb     C2 1657   9.500   7.659   5.876 -0.2024  0.3160  0.1584
   58bbb     H3 1658   9.469   7.572   5.816 -0.2326  0.4088  0.0392
   58bbb     H4 1659   9.596   7.694   5.837 -1.3566 -0.3889 -3.7960
   58bbb     C3 1660   9.480   7.720   6.123 -0.6025  0.7514 -0.6251
   58bbb     H5 1661   9.378   7.756   6.104 -0.7498 -0.0935 -1.5104
   58bbb     H6 1662   9.561   7.793   6.116  0.9074 -0.8831 -1.1404
   58bbb     C4 1663   9.491   7.658   6.264  0.2102  0.3067 -0.3236
   58bbb     H7 1664   9.597   7.647   6.286  0.6234 -0.7742 -2.5838
   58bbb     H8 1665   9.448   7.557   6.262 -0.7850  0.6592  1.3462
   58bbb     C5 1666   9.662   7.421   5.945  0.2161  0.9625  0.1188
   58bbb     H9 1667   9.747   7.362   5.981 -0.5116 -0.3577 -0.2829
   58bbb    H10 1668   9.686   7.454   5.843 -0.5999 -0.3587 -0.5177
   58bbb     C6 1669   9.409   7.780   5.833 -0.3916 -0.6965 -0.2552
   58bbb    H11 1670   9.467   7.870   5.855 -0.6572 -1.0887  2.3824
   58bbb    H12 1671   9.320   7.784   5.896  1.1330  0.9567  1.9563
   58bbb     C7 1672   9.405   7.747   6.366 -0.0419  0.0767 -0.4566
   58bbb    H13 1673   9.439   7.851   6.365 -1.6087  0.6322  0.2186
   58bbb    H14 1674   9.424   7.707   6.466  0.5194  2.0606  0.2869
   58bbb     C8 1675   9.372   7.772   5.685 -0.4362  0.1528  0.6658
   58bbb    H15 1676   9.330   7.864   5.644 -0.0006 -0.6687 -1.8218
   58bbb    H16 1677   9.297   7.692   5.676  0.5632 -0.6441 -1.2405
   58bbb     C9 1678   9.539   7.325   5.947  0.2264 -0.2742 -0.2925
   58bbb    H17 1679   9.449   7.376   5.910 -0.2185  0.2788  1.4842
   58bbb    H18 1680   9.518   7.297   6.051  0.2398 -0.8518 -0.4435
   58bbb     O1 1681   9.264   7.731   6.333 -0.3844  0.0719 -0.2698
   59bbb     N1 1682   7.924  10.490   6.153  0.2161  0.0906  0.6289
   59bbb     C1 1683   7.848  10.611   6.194 -0.3062  0.5373 -0.8082
   59bbb     H1 1684   7.764  10.586   6.259 -0.7428  0.3607 -1.4227
   59bbb     H2 1685   7.814  10.658   6.100  1.3304  0.8959 -1.2549
   59bbb     C2 1686   7.854  10.387   6.071 -0.1042  0.5207  0.5889
   59bbb     H3 1687   7.752  10.370   6.111 -0.0173  0.2531  0.7000
   59bbb     H4 1688   7.910  10.293   6.072 -3.9609 -2.0439  1.2291
   59bbb     C3 1689   7.996  10.418   6.263 -0.4280 -0.1797  0.1127
   59bbb     H5 1690   8.061  10.484   6.322  0.8590 -1.7573  0.5373
   59bbb     H6 1691   8.062  10.337   6.229  0.5728  1.1963 -1.3671
   59bbb     C4 1692   7.902  10.355   6.379 -0.2746  0.2356  0.4299
   59bbb     H7 1693   7.814  10.308   6.332  1.5268 -1.0307 -1.9070
   59bbb     H8 1694   7.860  10.434   6.443 -0.2512  1.2139 -0.7274
   59bbb     C5 1695   7.941  10.722   6.253 -0.4958 -0.3205 -0.1748
   59bbb     H9 1696   8.002  10.685   6.337 -3.2089 -1.0176  1.6175
   59bbb    H10 1697   7.873  10.798   6.294 -1.0533 -0.5336 -0.7012
   59bbb     C6 1698   7.845  10.439   5.923 -0.1371 -0.8260 -0.1331
   59bbb    H11 1699   7.941  10.483   5.894 -0.3179 -0.8281 -0.7456
   59bbb    H12 1700   7.766  10.515   5.923 -0.4237 -1.0601 -2.1440
   59bbb     C7 1701   7.960  10.251   6.481  0.6539 -0.0162  0.6516
   59bbb    H13 1702   7.976  10.155   6.430 -0.4028  1.1993 -2.1730
   59bbb    H14 1703   7.887  10.233   6.561  0.0109  0.0168  0.0827
   59bbb     C8 1704   7.797  10.331   5.826  0.2358  0.2502 -0.1349
   59bbb    H15 1705   7.703  10.294   5.867  1.9659  0.3507  4.4437
   59bbb    H16 1706   7.873  10.252   5.820  2.4765  2.1007  1.7151
   59bbb     C9 1707   8.033  10.784   6.146 -0.1415  0.1923  0.5440
   59bbb    H17 1708   8.046  10.719   6.059 -1.0503  0.2501  0.3624
   59bbb    H18 1709   8.136  10.777   6.185 -1.1448 -3.1129  3.0192
   59bbb     O1 1710   8.094  10.281   6.531 -0.2928 -0.5260  0.6087
   60bbb     N1 1711   7.791   9.323   6.804 -1.2295  0.4372 -0.1970
   60bbb     C1 1712   7.853   9.294   6.937  0.8106  0.3544  0.0378
   60bbb     H1 1713   7.957   9.276   6.906  1.1859  2.3915 -0.0240
   60bbb     H2 1714   7.818   9.200   6.981  1.5776 -0.2671 -0.6676
   60bbb     C2 1715   7.765   9.200   6.729  0.1394 -0.4320  0.4034
   60bbb     H3 1716   7.730   9.225   6.628  0.9008 -0.5664  0.0989
   60bbb     H4 1717   7.684   9.141   6.773 -1.2014  1.8370  1.1371
   60bbb     C3 1718   7.867   9.431   6.731  0.1433 -0.7668 -0.5722
   60bbb     H5 1719   7.969   9.401   6.706  1.3955  1.7826  1.1480
   60bbb     H6 1720   7.892   9.514   6.798 -0.0771  0.1715 -1.6188
   60bbb     C4 1721   7.800   9.488   6.607 -0.2125  0.0902 -0.3200
   60bbb     H7 1722   7.693   9.493   6.631  0.3923 -0.3093  2.8581
   60bbb     H8 1723   7.813   9.419   6.523 -0.0111 -0.0636 -0.1587
   60bbb     C5 1724   7.841   9.417   7.037 -0.1734  0.2744  0.1948
   60bbb     H9 1725   7.741   9.463   7.040  0.3109  1.3012  2.0357
   60bbb    H10 1726   7.913   9.496   7.012  1.1588 -0.2229  2.2278
   60bbb     C6 1727   7.883   9.109   6.706 -0.5305  0.3161 -0.6527
   60bbb    H11 1728   7.935   9.069   6.794  1.5711  2.7088 -0.6878
   60bbb    H12 1729   7.960   9.177   6.667  0.4614 -0.0480  0.6166
   60bbb     C7 1730   7.843   9.625   6.563 -0.1105  0.4674 -0.2454
   60bbb    H13 1731   7.793   9.654   6.470 -0.3316 -1.0424 -0.6250
   60bbb    H14 1732   7.950   9.629   6.544 -0.1380 -0.6043 -0.7159
   60bbb     C8 1733   7.858   8.998   6.602 -0.1433 -0.1370 -0.1161
   60bbb    H15 1734   7.801   9.029   6.513 -0.1297 -2.0227 -0.8119
   60bbb    H16 1735   7.790   8.921   6.640  1.2020 -1.2453  0.1026
   60bbb     C9 1736   7.888   9.381   7.182  0.1072 -0.1888  0.7282
   60bbb    H17 1737   7.985   9.331   7.171 -0.8852 -2.5021  1.6191
   60bbb    H18 1738   7.821   9.306   7.226 -0.1398 -0.9609 -0.8900
   60bbb     O1 1739   7.795   9.707   6.669  0.1798 -0.1075 -0.4307
   61bbb     N1 1740   9.175   9.074   5.407  0.3256 -0.1705  0.1831
   61bbb     C1 1741   9.062   9.103   5.316  0.2118  0.3719 -0.2824
   61bbb     H1 1742   9.037   9.210   5.313  0.7285  0.5459  1.0449
   61bbb     H2 1743   8.970   9.077   5.370  0.9446  0.7347  1.1866
   61bbb     C2 1744   9.304   9.128   5.365 -0.1628  0.2937  0.6685
   61bbb     H3 1745   9.347   9.055   5.294 -0.6301  0.3931  0.2764
   61bbb     H4 1746   9.370   9.138   5.452 -1.3756  3.1178  1.3707
   61bbb     C3 1747   9.189   8.936   5.446  0.8109  1.0689  0.3396
   61bbb     H5 1748   9.285   8.915   5.496  1.0515 -1.6864 -1.1168
   61bbb     H6 1749   9.187   8.878   5.353 -2.5804  1.4222  0.0631
   61bbb     C4 1750   9.074   8.890   5.532 -0.3349 -0.5575 -0.3689
   61bbb     H7 1751   9.094   8.785   5.557 -1.2974 -0.5849  0.3551
   61bbb     H8 1752   8.986   8.889   5.468  1.1509  0.1712 -2.5481
   61bbb     C5 1753   9.072   9.049   5.170  0.4831 -0.7852 -0.1690
   61bbb     H9 1754   9.048   8.942   5.165  0.0201 -0.6975  0.0527
   61bbb    H10 1755   9.170   9.072   5.128  0.1189  1.6369  0.1680
   61bbb     C6 1756   9.299   9.269   5.294 -0.0266 -0.0872  0.0920
   61bbb    H11 1757   9.227   9.334   5.345  0.2479  0.6641 -0.4579
   61bbb    H12 1758   9.256   9.273   5.193 -1.9944  2.3460  0.9274
   61bbb     C7 1759   9.039   8.968   5.662  0.1595 -0.5133 -0.3975
   61bbb    H13 1760   9.044   9.074   5.635  0.4213 -0.3008  0.4319
   61bbb    H14 1761   9.123   8.953   5.731  1.6997 -1.1629 -2.3106
   61bbb     C8 1762   9.437   9.341   5.297 -0.0783 -0.0937  0.1001
   61bbb    H15 1763   9.469   9.369   5.398 -0.0587 -1.9553  0.6327
   61bbb    H16 1764   9.421   9.437   5.245  0.7028 -0.8903 -1.6869
   61bbb     C9 1765   8.962   9.114   5.082  0.4201 -0.5471  0.9113
   61bbb    H17 1766   8.865   9.115   5.132 -0.1526  2.3042 -0.0523
   61bbb    H18 1767   8.950   9.065   4.984  1.8256  1.9802 -0.6411
   61bbb     O1 1768   8.909   8.926   5.702 -0.0846 -0.4757 -0.3311
   62bbb     N1 1769   8.077   8.184   5.974 -0.2046  0.3065  0.2319
   62bbb     C1 1770   8.154   8.086   6.049 -0.1286  0.9040  0.3456
   62bbb     H1 1771   8.090   8.027   6.115  1.1570  1.3355  2.0190
   62bbb     H2 1772   8.224   8.137   6.116 -2.4760 -0.4320  4.1558
   62bbb     C2 1773   7.958   8.136   5.902 -0.5476  0.2873 -0.1124
   62bbb     H3 1774   7.988   8.084   5.810 -0.4562 -0.8123  0.5150
   62bbb     H4 1775   7.911   8.228   5.864 -3.3049 -0.9129  0.1181
   62bbb     C3 1776   8.166   8.273   5.884  0.0929  0.3536  0.3429
   62bbb     H5 1777   8.107   8.341   5.821  0.7396 -1.7274 -2.7521
   62bbb     H6 1778   8.220   8.211   5.811 -1.5897 -2.4170  1.2826
   62bbb     C4 1779   8.264   8.359   5.964  0.3509  0.1853  0.7411
   62bbb     H7 1780   8.327   8.297   6.028  0.1820 -2.2487 -1.2987
   62bbb     H8 1781   8.199   8.415   6.034 -0.4152 -0.9342  0.9620
   62bbb     C5 1782   8.234   7.992   5.945  0.1852 -0.5395  0.8686
   62bbb     H9 1783   8.333   8.033   5.923 -0.9156  1.2179 -1.2348
   62bbb    H10 1784   8.177   7.980   5.852 -0.5916  1.4416  1.0417
   62bbb     C6 1785   7.859   8.052   5.987 -0.1287  0.3327 -0.3410
   62bbb    H11 1786   7.853   8.096   6.088  1.1066 -0.9949  0.3487
   62bbb    H12 1787   7.890   7.948   6.001 -2.2555 -0.3392 -0.3087
   62bbb     C7 1788   8.344   8.450   5.864 -0.1724 -0.4076 -0.2618
   62bbb    H13 1789   8.274   8.517   5.812 -1.1657 -0.7797  0.5596
   62bbb    H14 1790   8.392   8.386   5.790 -1.6830  0.3221 -1.9469
   62bbb     C8 1791   7.716   8.067   5.935  0.5633  0.3548  0.5999
   62bbb    H15 1792   7.689   8.168   5.901  0.7638 -0.6800 -3.1294
   62bbb    H16 1793   7.649   8.044   6.019 -0.3963  1.6952  0.2415
   62bbb     C9 1794   8.264   7.846   6.006  0.4580 -0.1010 -0.6286
   62bbb    H17 1795   8.325   7.854   6.096 -0.6081 -0.2814  0.1230
   62bbb    H18 1796   8.338   7.799   5.940  2.5889  1.9606  0.1708
   62bbb     O1 1797   8.442   8.526   5.938  0.2856  0.6676  0.0934
   63bbb     N1 1798   9.938  11.153   8.360 -0.5344  0.2875 -0.6115
   63bbb     C1 1799   9.854  11.251   8.288 -0.3364 -0.0520  0.4846
   63bbb     H1 1800   9.869  11.252   8.179 -0.3122  1.4114  0.4885
   63bbb     H2 1801   9.874  11.352   8.324 -2.3985  0.3508  0.6089
   63bbb     C2 1802  10.086  11.182   8.331 -0.0356  0.1530  0.0670
   63bbb     H3 1803  10.118  11.277   8.375  3.0168 -0.6448 -0.2231
   63bbb     H4 1804  10.106  11.198   8.224 -0.8776 -0.7275 -0.2396
   63bbb     C3 1805   9.906  11.122   8.504 -0.2821  0.2693 -0.1599
   63bbb     H5 1806   9.958  11.029   8.526 -1.7338 -1.1084 -2.1977
   63bbb     H6 1807   9.798  11.110   8.515 -0.4147  1.9789  0.8665
   63bbb     C4 1808   9.929  11.247   8.599 -0.0490  0.6051  0.0510
   63bbb     H7 1809   9.897  11.345   8.561 -1.4045 -0.0257 -0.5068
   63bbb     H8 1810  10.037  11.261   8.603  0.0416  0.7395 -1.8042
   63bbb     C5 1811   9.704  11.225   8.297 -0.0257 -0.7801  0.4496
   63bbb     H9 1812   9.690  11.117   8.308 -0.9951 -0.9448 -1.9405
   63bbb    H10 1813   9.657  11.240   8.200 -0.4776  1.0076  0.9173
   63bbb     C6 1814  10.188  11.077   8.365 -0.9095  0.1922 -0.9855
   63bbb    H11 1815  10.152  10.979   8.330 -3.0782  0.6135 -0.1063
   63bbb    H12 1816  10.207  11.073   8.473  0.1739 -0.7138 -1.1870
   63bbb     C7 1817   9.877  11.229   8.741 -0.1503 -0.4027 -0.1400
   63bbb    H13 1818   9.767  11.225   8.737 -0.1584 -1.0915  0.3945
   63bbb    H14 1819   9.908  11.311   8.807  1.6947 -2.6875  2.0542
   63bbb     C8 1820  10.321  11.121   8.311  0.4295 -0.7319  0.4909
   63bbb    H15 1821  10.340  11.227   8.331 -0.2385 -0.4642 -0.2955
   63bbb    H16 1822  10.311  11.110   8.203  0.0358 -1.7586  0.6217
   63bbb     C9 1823   9.627  11.307   8.400  0.4066 -0.0404  1.2252
   63bbb    H17 1824   9.662  11.293   8.503  0.6751 -0.7588  1.0484
   63bbb    H18 1825   9.521  11.279   8.406  1.0257 -2.5871  1.3987
   63bbb     O1 1826   9.931  11.107   8.799  0.2256 -0.1434 -0.5269
   64bbb     N1 1827  10.324  10.625   8.116  0.1191  0.4050  0.0095
   64bbb     C1 1828  10.381  10.710   8.012 -0.6304 -0.7579  0.0344
   64bbb     H1 1829  10.388  10.659   7.915 -1.4352  2.1951 -1.7094
   64bbb     H2 1830  10.487  10.729   8.037 -0.9328  0.3893  0.5208
   64bbb     C2 1831  10.381  10.492   8.119 -0.7424 -0.4523  0.7779
   64bbb     H3 1832  10.478  10.500   8.170 -0.4457  0.8409  0.0615
   64bbb     H4 1833  10.402  10.451   8.019 -1.9080  0.7055  0.0303
   64bbb     C3 1834  10.285  10.690   8.247 -0.8209 -0.2702 -0.7614
   64bbb     H5 1835  10.205  10.632   8.296  0.3230  0.0877  1.6787
   64bbb     H6 1836  10.234  10.786   8.233  0.1891  0.1838 -1.3966
   64bbb     C4 1837  10.398  10.705   8.352 -0.2149  0.2010  0.1526
   64bbb     H7 1838  10.467  10.781   8.312  0.5392  1.0343  2.8142
   64bbb     H8 1839  10.461  10.619   8.378 -0.6219  0.5614  2.5917
   64bbb     C5 1840  10.316  10.846   8.002 -0.0494 -0.3090 -0.3927
   64bbb     H9 1841  10.344  10.898   8.094 -0.3473  1.7941 -1.4314
   64bbb    H10 1842  10.207  10.832   7.995  0.0975 -1.4972 -0.5376
   64bbb     C6 1843  10.296  10.387   8.198 -0.0238  0.3023 -0.4141
   64bbb    H11 1844  10.199  10.378   8.148 -0.9889 -0.9955  1.5564
   64bbb    H12 1845  10.274  10.412   8.303 -2.8556  0.2158 -0.9203
   64bbb     C7 1846  10.341  10.766   8.485 -1.1125 -0.2978  0.2574
   64bbb    H13 1847  10.259  10.835   8.461 -0.5285  1.4197  2.7511
   64bbb    H14 1848  10.419  10.830   8.528  1.4636 -2.2196 -1.2850
   64bbb     C8 1849  10.362  10.252   8.197 -0.5076  0.6925  0.1413
   64bbb    H15 1850  10.409  10.232   8.100 -1.3452  1.7851 -0.5214
   64bbb    H16 1851  10.281  10.178   8.200  1.0148 -1.0252  0.6695
   64bbb     C9 1852  10.369  10.941   7.891  0.2643 -0.2158  0.1544
   64bbb    H17 1853  10.326  10.915   7.793  0.0891  0.7662 -0.0435
   64bbb    H18 1854  10.478  10.927   7.889  0.3364  0.1282  1.2815
   64bbb     O1 1855  10.310  10.662   8.578 -0.2968  0.6098 -0.4769
   65bbb     N1 1856   9.662   8.651   9.384  0.6302 -0.6969 -0.2212
   65bbb     C1 1857   9.679   8.608   9.530 -0.0791 -0.0881  0.4854
   65bbb     H1 1858   9.597   8.539   9.555  0.0373 -0.7214 -0.7877
   65bbb     H2 1859   9.670   8.697   9.594  0.7635  0.2328  0.1727
   65bbb     C2 1860   9.516   8.663   9.332 -0.7183  0.1597  0.2511
   65bbb     H3 1861   9.466   8.753   9.370 -1.6065 -1.4494  3.2197
   65bbb     H4 1862   9.453   8.580   9.368 -2.4010  2.0480  1.9295
   65bbb     C3 1863   9.751   8.769   9.354 -0.1857 -0.0665 -0.7635
   65bbb     H5 1864   9.758   8.779   9.245  1.3586  0.5910 -0.6303
   65bbb     H6 1865   9.856   8.761   9.384  0.2744  1.1242 -1.9357
   65bbb     C4 1866   9.701   8.908   9.402 -0.1276  0.1902 -0.9252
   65bbb     H7 1867   9.709   8.912   9.512  1.0267  1.3337 -1.0333
   65bbb     H8 1868   9.595   8.922   9.381 -0.1725  1.0580 -0.1947
   65bbb     C5 1869   9.819   8.538   9.569 -0.4998  0.0501 -0.1152
   65bbb     H9 1870   9.833   8.526   9.677 -2.7585 -1.5547  0.0529
   65bbb    H10 1871   9.902   8.597   9.527  0.6437 -1.5923 -0.2271
   65bbb     C6 1872   9.519   8.676   9.176 -0.3435  0.1333  0.4457
   65bbb    H11 1873   9.599   8.614   9.134 -1.6137 -1.0982 -0.2416
   65bbb    H12 1874   9.538   8.779   9.145  0.4226 -0.3089 -0.6166
   65bbb     C7 1875   9.787   9.031   9.359 -0.4028  0.6150 -0.3255
   65bbb    H13 1876   9.768   9.116   9.426  0.5449 -0.5856  1.5512
   65bbb    H14 1877   9.766   9.068   9.258  1.7410  2.0284 -0.3318
   65bbb     C8 1878   9.387   8.631   9.117 -0.0492 -0.0156 -0.0400
   65bbb    H15 1879   9.309   8.703   9.145 -0.0889 -0.4986  1.1357
   65bbb    H16 1880   9.360   8.534   9.159  0.1481  0.0807  0.3169
   65bbb     C9 1881   9.820   8.402   9.508 -0.0799  0.1640  0.5056
   65bbb    H17 1882   9.785   8.413   9.405 -1.3832  0.7090  0.9844
   65bbb    H18 1883   9.741   8.337   9.548 -1.4649  1.0544 -0.6581
   65bbb     O1 1884   9.925   8.989   9.352 -0.5615 -0.4705 -0.0626
   66bbb     N1 1885  10.920   9.099   8.465  0.4311  0.5989 -0.0491
   66bbb     C1 1886  11.056   9.056   8.492  0.4780  0.5652  0.5455
   66bbb     H1 1887  11.127   9.139   8.477  1.0286 -0.0040 -0.0749
   66bbb     H2 1888  11.079   8.983   8.414 -2.0017  0.0384  0.2329
   66bbb     C2 1889  10.905   9.201   8.367  0.3614  0.1486 -0.3409
   66bbb     H3 1890  10.796   9.209   8.355  0.4427  0.4668 -0.9005
   66bbb     H4 1891  10.939   9.166   8.269 -2.8081 -1.8453 -0.8695
   66bbb     C3 1892  10.824   8.984   8.458 -0.2369  0.0387  0.7709
   66bbb     H5 1893  10.866   8.885   8.438 -1.3976 -0.8516  2.5514
   66bbb     H6 1894  10.760   9.005   8.371  0.9291  0.4680 -0.0023
   66bbb     C4 1895  10.737   8.972   8.584  0.0373 -0.0416 -0.3114
   66bbb     H7 1896  10.806   8.996   8.666  0.0131 -0.1727 -0.2530
   66bbb     H8 1897  10.713   8.865   8.589 -1.9940  0.2349 -2.6956
   66bbb     C5 1898  11.071   8.991   8.634  0.2314 -0.1556 -0.1503
   66bbb     H9 1899  10.997   8.915   8.663  0.9859  0.1253  2.8763
   66bbb    H10 1900  11.064   9.066   8.714  1.3105  1.3648 -1.4231
   66bbb     C6 1901  10.958   9.343   8.397  0.2127  0.0591  0.6932
   66bbb    H11 1902  10.946   9.405   8.306 -0.3194 -1.9655 -0.6846
   66bbb    H12 1903  11.065   9.341   8.422  0.2693 -0.2767  0.4213
   66bbb     C7 1904  10.614   9.059   8.591  0.0130  0.4189  0.4846
   66bbb    H13 1905  10.540   9.035   8.514  1.5015  0.9740 -1.2088
   66bbb    H14 1906  10.648   9.160   8.565 -1.2625  0.6333 -0.4125
   66bbb     C8 1907  10.888   9.416   8.511 -0.1255 -0.2570 -0.2476
   66bbb    H15 1908  10.925   9.518   8.527 -1.3624  0.7724 -3.2231
   66bbb    H16 1909  10.904   9.353   8.599  1.7631 -1.7612 -1.5708
   66bbb     C9 1910  11.201   8.916   8.634  0.2071  0.0582 -0.1464
   66bbb    H17 1911  11.285   8.977   8.599  0.7975 -0.5634  0.1683
   66bbb    H18 1912  11.203   8.850   8.547 -0.0831  0.2297 -0.2877
   66bbb     O1 1913  10.561   9.057   8.726 -0.1241 -0.4677  0.2875
   67bbb     N1 1914   8.248  11.831   8.081  0.3606  0.3336  0.0260
   67bbb     C1 1915   8.339  11.948   8.090  0.6739  0.3539 -0.2081
   67bbb     H1 1916   8.434  11.915   8.131  2.6122  2.5589 -2.5488
   67bbb     H2 1917   8.296  12.029   8.150  0.7461 -0.1813  0.5719
   67bbb     C2 1918   8.129  11.856   7.985 -0.4296  0.6001  0.6316
   67bbb     H3 1919   8.057  11.774   7.979  0.5230 -0.1508 -1.8415
   67bbb     H4 1920   8.167  11.870   7.883 -2.8899 -1.6506 -0.7082
   67bbb     C3 1921   8.213  11.780   8.224  0.0353 -0.1909  0.8484
   67bbb     H5 1922   8.117  11.728   8.230 -0.1845  0.3018  1.7195
   67bbb     H6 1923   8.194  11.873   8.279  0.4907 -0.1267  0.8985
   67bbb     C4 1924   8.324  11.687   8.272  0.3208  0.4084 -0.1378
   67bbb     H7 1925   8.312  11.670   8.380  1.3437  3.2805  0.5205
   67bbb     H8 1926   8.424  11.732   8.280  0.6796 -0.3755 -0.0701
   67bbb     C5 1927   8.377  12.014   7.952  0.2064  0.1617  0.0585
   67bbb     H9 1928   8.286  12.056   7.906  1.3824  2.8514 -0.0390
   67bbb    H10 1929   8.414  11.934   7.887 -1.1554 -0.5638  0.1568
   67bbb     C6 1930   8.036  11.972   8.024 -0.4222 -0.0230  0.2586
   67bbb    H11 1931   8.079  12.069   7.997 -2.0846  0.8672  0.6721
   67bbb    H12 1932   8.033  11.982   8.133 -0.4996 -1.7715  0.4403
   67bbb     C7 1933   8.331  11.560   8.188  0.9027 -0.6339 -0.1709
   67bbb    H13 1934   8.350  11.584   8.082  0.5500 -0.9336 -0.3040
   67bbb    H14 1935   8.238  11.502   8.193  0.9655 -0.6984  0.2326
   67bbb     C8 1936   7.897  11.965   7.955 -0.4727 -0.1163  0.6657
   67bbb    H15 1937   7.843  12.055   7.985 -1.2083 -0.1129 -0.5984
   67bbb    H16 1938   7.836  11.879   7.987 -1.5999  0.1389 -0.7549
   67bbb     C9 1939   8.488  12.124   7.964  0.2709  0.4911 -0.1084
   67bbb    H17 1940   8.541  12.134   7.869  0.3182  2.7201  0.1159
   67bbb    H18 1941   8.568  12.098   8.035  1.1702  2.4118 -0.3579
   67bbb     O1 1942   8.441  11.487   8.232  0.0923 -0.6917 -0.1164
   68bbb     N1 1943   9.155  11.559   8.553  0.1318  0.3978  0.1277
   68bbb     C1 1944   9.066  11.675   8.575 -0.3313  0.3082  0.2578
   68bbb     H1 1945   8.969  11.651   8.622 -1.2103  1.7468 -0.7295
   68bbb     H2 1946   9.048  11.710   8.473 -0.2750 -1.8496 -0.5446
   68bbb     C2 1947   9.217  11.505   8.677 -0.2085  0.3191 -0.1855
   68bbb     H3 1948   9.275  11.583   8.728 -0.0030  0.3876 -0.5267
   68bbb     H4 1949   9.291  11.430   8.649 -0.2412 -0.1521  0.9181
   68bbb     C3 1950   9.103  11.464   8.456 -0.2982 -0.2569  0.4113
   68bbb     H5 1951   9.074  11.515   8.363 -1.0703 -1.3584  0.0270
   68bbb     H6 1952   9.013  11.414   8.494 -0.2299 -1.1906 -0.6276
   68bbb     C4 1953   9.209  11.366   8.397  0.7918  0.4911 -0.0658
   68bbb     H7 1954   9.278  11.326   8.473  0.5739  1.1531  0.4919
   68bbb     H8 1955   9.271  11.431   8.333  0.2312  0.8094 -0.2897
   68bbb     C5 1956   9.125  11.794   8.652  0.0626 -0.3461  0.2951
   68bbb     H9 1957   9.150  11.765   8.755 -1.8840 -0.1922  0.8505
   68bbb    H10 1958   9.037  11.860   8.657 -1.4333 -1.9677 -2.3963
   68bbb     C6 1959   9.117  11.443   8.780 -0.6768  0.5779 -0.2640
   68bbb    H11 1960   9.089  11.341   8.752  0.4787 -0.5445  2.3545
   68bbb    H12 1961   9.019  11.492   8.771 -1.1000 -0.4701 -1.7589
   68bbb     C7 1962   9.153  11.239   8.316  0.1828 -0.3169  0.2841
   68bbb    H13 1963   9.056  11.204   8.355  0.6964 -0.3996  1.5240
   68bbb    H14 1964   9.223  11.158   8.337 -0.0123 -0.4915  0.2651
   68bbb     C8 1965   9.171  11.461   8.930 -0.1887  0.0855 -0.4050
   68bbb    H15 1966   9.146  11.561   8.967  1.8525 -0.1283  1.7802
   68bbb    H16 1967   9.280  11.451   8.931 -0.1796 -0.2334 -2.2015
   68bbb     C9 1968   9.234  11.874   8.578 -0.3092  0.2014 -0.5483
   68bbb    H17 1969   9.193  11.922   8.489 -2.8858  1.0470  0.9739
   68bbb    H18 1970   9.305  11.795   8.551  0.5363  1.5614 -2.5414
   68bbb     O1 1971   9.145  11.282   8.177  0.2346  0.4439  0.0642
   69bbb     N1 1972   8.203   9.868   9.373 -0.0205 -0.9064 -0.0626
   69bbb     C1 1973   8.063   9.852   9.426 -0.3435 -0.1603  0.1088
   69bbb     H1 1974   8.001   9.820   9.341 -0.2651  0.3426 -0.1382
   69bbb     H2 1975   8.023   9.948   9.462 -0.2662 -0.0438 -0.1197
   69bbb     C2 1976   8.250   9.772   9.266 -0.3529  0.4429  0.3458
   69bbb     H3 1977   8.253   9.673   9.314 -3.1671 -0.8945 -1.9230
   69bbb     H4 1978   8.351   9.797   9.233 -0.6570 -0.3982 -1.2939
   69bbb     C3 1979   8.314   9.899   9.471 -0.2445  0.5762 -0.3787
   69bbb     H5 1980   8.320   9.814   9.541  0.0576  2.1716  1.6205
   69bbb     H6 1981   8.279   9.987   9.526  0.0512  0.7834 -0.5211
   69bbb     C4 1982   8.458   9.944   9.422 -0.0207  0.0443 -0.2369
   69bbb     H7 1983   8.443  10.005   9.333  3.3897  0.0990 -0.9392
   69bbb     H8 1984   8.495   9.847   9.388  0.3531  0.0934  0.0147
   69bbb     C5 1985   8.046   9.737   9.531  0.5015  0.1390  0.2701
   69bbb     H9 1986   8.106   9.760   9.620  0.4918 -0.9372  0.5769
   69bbb    H10 1987   8.087   9.643   9.490  0.1027  0.0003  0.1768
   69bbb     C6 1988   8.161   9.757   9.140  0.0499 -0.0577 -0.1225
   69bbb    H11 1989   8.110   9.853   9.131 -1.2707 -0.5785  1.2360
   69bbb    H12 1990   8.091   9.674   9.153 -0.7179  0.2260 -2.1703
   69bbb     C7 1991   8.547  10.004   9.533  0.0516 -0.6168  0.3116
   69bbb    H13 1992   8.649  10.020   9.495  1.1385 -2.0231  2.3870
   69bbb    H14 1993   8.563   9.929   9.612 -2.1895 -1.1595  0.3137
   69bbb     C8 1994   8.245   9.710   9.016  0.7068  0.1571  0.2167
   69bbb    H15 1995   8.280   9.801   8.964 -0.3732  0.4629 -0.0164
   69bbb    H16 1996   8.177   9.652   8.953  1.7681 -0.7389 -0.1377
   69bbb     C9 1997   7.898   9.696   9.568 -0.4675 -0.6704 -0.4293
   69bbb    H17 1998   7.895   9.617   9.644  2.1198  0.2049  0.6996
   69bbb    H18 1999   7.856   9.654   9.476  2.4127  0.6482 -2.5388
   69bbb     O1 2000   8.493  10.126   9.595  0.2318  0.5253 -0.3674
   70bbb     N1 2001   8.620  10.394  10.324 -0.2154 -0.7538 -1.1944
   70bbb     C1 2002   8.743  10.477  10.304 -0.6658 -0.5805  0.6333
   70bbb     H1 2003   8.719  10.581  10.278  0.7789 -0.6216 -1.0298
   70bbb     H2 2004   8.795  10.437  10.217  1.8755  3.3398  0.0953
   70bbb     C2 2005   8.639  10.260  10.382 -0.2248 -0.5865 -0.3518
   70bbb     H3 2006   8.543  10.215  10.410 -0.5560  1.1851  1.5679
   70bbb     H4 2007   8.695  10.267  10.475  2.0228 -1.9767 -1.5147
   70bbb     C3 2008   8.537  10.401  10.196 -0.4092 -0.5956  0.3467
   70bbb     H5 2009   8.590  10.356  10.111  1.7328  0.7716  0.8633
   70bbb     H6 2010   8.513  10.507  10.180  0.0265 -0.4251  0.7935
   70bbb     C4 2011   8.397  10.338  10.215 -0.0608 -0.3047  0.3632
   70bbb     H7 2012   8.340  10.372  10.303 -2.2948 -0.0716 -1.0751
   70bbb     H8 2013   8.410  10.229  10.221  2.0117 -0.2534 -1.7897
   70bbb     C5 2014   8.836  10.489  10.431  0.2173  0.3515  0.5617
   70bbb     H9 2015   8.887  10.395  10.456  1.0875  0.6648  0.0077
   70bbb    H10 2016   8.767  10.513  10.513 -0.1729 -3.4143  1.5395
   70bbb     C6 2017   8.716  10.160  10.294  0.6013 -0.2834 -0.1214
   70bbb    H11 2018   8.817  10.197  10.275  0.9841 -1.3846 -0.2904
   70bbb    H12 2019   8.663  10.150  10.199 -2.0327 -0.6613  1.2691
   70bbb     C7 2020   8.295  10.376  10.105  0.1691  0.1285 -0.0742
   70bbb    H13 2021   8.203  10.413  10.152  0.0819 -0.4384  0.2077
   70bbb    H14 2022   8.266  10.291  10.041 -0.6761 -0.0363  0.5121
   70bbb     C8 2023   8.731  10.020  10.362 -0.7514 -0.2314 -0.1654
   70bbb    H15 2024   8.638   9.976  10.400 -1.2460  0.0832 -0.9786
   70bbb    H16 2025   8.791  10.038  10.452 -1.5067 -1.3881  0.5855
   70bbb     C9 2026   8.957  10.579  10.422  0.6651 -0.0439  0.4251
   70bbb    H17 2027   9.011  10.602  10.514  0.4515  3.1955 -0.1582
   70bbb    H18 2028   8.925  10.681  10.398  1.9682  0.6710  1.5799
   70bbb     O1 2029   8.343  10.476  10.012 -0.1063  0.2870  0.7174
   71bbb     N1 2030   9.691  10.818   5.270 -0.1141  0.0744 -0.2016
   71bbb     C1 2031   9.547  10.844   5.286 -0.0973 -0.1551  0.5093
   71bbb     H1 2032   9.499  10.817   5.191  0.5803 -1.1790  0.4482
   71bbb     H2 2033   9.519  10.947   5.309 -2.2721 -0.1973 -1.4637
   71bbb     C2 2034   9.740  10.871   5.149 -0.1423 -0.1545 -0.8010
   71bbb     H3 2035   9.726  10.980   5.146 -0.1897 -0.1644 -0.9809
   71bbb     H4 2036   9.687  10.831   5.062 -1.0001  0.0647 -0.3880
   71bbb     C3 2037   9.772  10.837   5.401  0.5036  0.3432  0.1571
   71bbb     H5 2038   9.874  10.798   5.389  0.4482  0.3261 -0.3018
   71bbb     H6 2039   9.741  10.777   5.487  0.3533 -2.7788 -1.9164
   71bbb     C4 2040   9.788  10.990   5.438  0.2263  0.3124  0.1522
   71bbb     H7 2041   9.694  11.046   5.431  0.5795  0.8567 -0.2744
   71bbb     H8 2042   9.866  11.024   5.368 -2.0812  0.9166 -2.2983
   71bbb     C5 2043   9.490  10.754   5.399  0.4177  0.3954  0.3828
   71bbb     H9 2044   9.544  10.775   5.492  1.8218 -0.0891 -0.2953
   71bbb    H10 2045   9.514  10.651   5.371  1.2296  0.6589  0.0800
   71bbb     C6 2046   9.896  10.850   5.132  0.0944 -0.4903 -0.3320
   71bbb    H11 2047   9.932  10.748   5.149  0.5873  0.1063  2.7721
   71bbb    H12 2048   9.947  10.909   5.209 -1.6987 -0.3098  0.7905
   71bbb     C7 2049   9.837  11.010   5.588 -0.0266  0.4379  0.0358
   71bbb    H13 2050   9.838  11.117   5.613  3.0079  0.9467 -1.8360
   71bbb    H14 2051   9.942  10.980   5.586  0.0121  0.6154 -1.0248
   71bbb     C8 2052   9.941  10.901   4.991  0.2174 -1.2254 -0.5232
   71bbb    H15 2053   9.884  10.991   4.966  0.5437 -1.1478 -0.9919
   71bbb    H16 2054   9.920  10.828   4.912 -3.6715 -0.9530  0.0791
   71bbb     C9 2055   9.338  10.773   5.442 -0.9602 -0.0668  0.1830
   71bbb    H17 2056   9.302  10.693   5.507 -1.6500  0.6440  0.6946
   71bbb    H18 2057   9.276  10.758   5.352  0.9292 -3.4721 -0.7494
   71bbb     O1 2058   9.754  10.928   5.676  0.3849  0.1655  0.3429
   72bbb     N1 2059   9.848   9.914   5.428  0.2819  0.3914 -0.4412
   72bbb     C1 2060   9.722   9.884   5.357  0.5631 -0.6790  0.1826
   72bbb     H1 2061   9.738   9.894   5.249 -1.9292  1.5512 -0.1026
   72bbb     H2 2062   9.645   9.956   5.388  0.1971 -0.5558 -0.9850
   72bbb     C2 2063   9.949   9.807   5.412 -0.4308 -0.1667 -0.0045
   72bbb     H3 2064  10.000   9.819   5.316  2.4883  3.8648  1.7404
   72bbb     H4 2065   9.903   9.707   5.418 -0.8759 -0.0165 -0.7741
   72bbb     C3 2066   9.895  10.050   5.400 -0.4666 -0.6084  0.3443
   72bbb     H5 2067   9.921  10.044   5.294  2.3112  0.1914  0.9049
   72bbb     H6 2068   9.982  10.067   5.464 -0.4666  0.1051  0.1681
   72bbb     C4 2069   9.798  10.169   5.419  0.1000 -0.2872  0.3134
   72bbb     H7 2070   9.724  10.179   5.339 -0.6354 -1.4842  0.8211
   72bbb     H8 2071   9.857  10.261   5.424  1.2716 -0.7937 -2.4940
   72bbb     C5 2072   9.663   9.744   5.379 -0.2892 -0.4982  0.7279
   72bbb     H9 2073   9.715   9.656   5.339 -1.3262 -0.2596 -1.2850
   72bbb    H10 2074   9.570   9.745   5.320  0.0912 -1.3297  0.0855
   72bbb     C6 2075  10.065   9.820   5.517  0.2589 -0.2922  0.2634
   72bbb    H11 2076  10.114   9.919   5.515 -0.1293 -0.1034 -0.2963
   72bbb    H12 2077  10.143   9.744   5.506  0.0598 -0.5343  0.5308
   72bbb     C7 2078   9.720  10.183   5.554 -0.8814 -0.1367  0.1844
   72bbb    H13 2079   9.646  10.103   5.569 -2.0830  1.0944  0.9564
   72bbb    H14 2080   9.660  10.275   5.556 -0.4081  0.2816 -1.9809
   72bbb     C8 2081  10.009   9.803   5.664 -0.0207 -0.1593  0.3091
   72bbb    H15 2082   9.916   9.745   5.655 -0.9656  0.9794  2.2527
   72bbb    H16 2083   9.994   9.900   5.711 -1.2075 -0.5022  0.6626
   72bbb     C9 2084   9.617   9.722   5.524 -0.6485  0.1581  0.3043
   72bbb    H17 2085   9.509   9.742   5.532 -0.8909 -1.1665  0.6023
   72bbb    H18 2086   9.675   9.803   5.571 -0.8602  1.7865 -2.0709
   72bbb     O1 2087   9.813  10.193   5.668  0.3503  0.6081  0.6828
   73bbb     N1 2088   9.895  10.552   6.781 -0.2017  0.3274 -0.0782
   73bbb     C1 2089   9.928  10.678   6.709 -0.2745  0.2123  0.0024
   73bbb     H1 2090   9.846  10.751   6.718 -0.0243  0.3788  1.1379
   73bbb     H2 2091   9.938  10.654   6.603 -0.8427 -2.5478  0.4802
   73bbb     C2 2092   9.749  10.519   6.763  0.4137 -0.8171 -0.7686
   73bbb     H3 2093   9.725  10.428   6.819 -3.2294  0.2490 -0.3311
   73bbb     H4 2094   9.728  10.507   6.656  0.3118  0.0200 -0.8501
   73bbb     C3 2095   9.982  10.433   6.746  0.3208 -0.8682 -0.5668
   73bbb     H5 2096   9.982  10.366   6.833 -0.5407 -0.0066  0.1303
   73bbb     H6 2097  10.083  10.475   6.737  0.0902  0.0611  0.7382
   73bbb     C4 2098   9.962  10.358   6.610 -0.1766 -0.3747  0.2564
   73bbb     H7 2099   9.985  10.422   6.524 -0.2266  0.5517  0.9274
   73bbb     H8 2100   9.860  10.318   6.598 -0.7767  0.8977  0.8631
   73bbb     C5 2101  10.052  10.752   6.759  0.1378  0.0923  0.2797
   73bbb     H9 2102  10.141  10.688   6.773 -2.0352 -3.3262 -0.4323
   73bbb    H10 2103  10.026  10.796   6.856 -2.0679 -2.8743  1.1657
   73bbb     C6 2104   9.653  10.626   6.822  0.3388  0.0814  0.4186
   73bbb    H11 2105   9.553  10.582   6.810  0.5389 -0.3593  0.3448
   73bbb    H12 2106   9.650  10.718   6.763 -1.0253 -1.3228 -1.8489
   73bbb     C7 2107  10.055  10.237   6.587 -0.3956  0.5652 -0.4846
   73bbb    H13 2108  10.014  10.175   6.506  1.3892 -0.0780 -0.9441
   73bbb    H14 2109  10.065  10.177   6.678 -1.8265 -1.8853 -1.8235
   73bbb     C8 2110   9.669  10.658   6.969 -1.2625 -0.5908 -0.5546
   73bbb    H15 2111   9.774  10.682   6.986 -0.9274 -0.3642 -2.7202
   73bbb    H16 2112   9.650  10.566   7.026  1.5770 -1.5990 -1.0907
   73bbb     C9 2113  10.081  10.860   6.658 -0.8134 -1.0102 -0.2749
   73bbb    H17 2114   9.991  10.908   6.620 -0.4088  2.3045  2.4823
   73bbb    H18 2115  10.132  10.801   6.581  1.5732 -2.5508  2.2612
   73bbb     O1 2116  10.190  10.285   6.538  0.4805  0.4738  0.0069
   74bbb     N1 2117  10.839  10.065   6.801  0.0101  0.4146  0.4232
   74bbb     C1 2118  10.803  10.047   6.943 -0.3960 -0.0744 -0.2879
   74bbb     H1 2119  10.867  10.104   7.011  3.0843 -3.4064 -0.4105
   74bbb     H2 2120  10.828   9.948   6.984  0.7000  0.6315  0.8364
   74bbb     C2 2121  10.988  10.055   6.778  0.3594 -1.1787  0.1113
   74bbb     H3 2122  11.028   9.961   6.820  0.3152 -0.6065  1.4810
   74bbb     H4 2123  11.037  10.133   6.837  0.2762 -1.0637  0.0295
   74bbb     C3 2124  10.758   9.983   6.703 -0.3513 -0.1713 -0.5024
   74bbb     H5 2125  10.775  10.018   6.600  3.0755 -0.4773 -0.1515
   74bbb     H6 2126  10.651  10.002   6.711  0.0455  2.3922 -0.5148
   74bbb     C4 2127  10.787   9.825   6.708  0.7407  0.8996  0.3975
   74bbb     H7 2128  10.750   9.795   6.807  0.4128  0.1398  0.0496
   74bbb     H8 2129  10.894   9.805   6.711  0.3060 -1.6856  1.0071
   74bbb     C5 2130  10.654  10.064   6.974 -0.5304  0.3526  0.2300
   74bbb     H9 2131  10.600   9.977   6.935  0.2553  0.0163 -0.1241
   74bbb    H10 2132  10.617  10.149   6.915  2.4747 -0.0924 -2.5129
   74bbb     C6 2133  11.035  10.071   6.629  0.1361 -0.1197 -0.1333
   74bbb    H11 2134  10.981  10.160   6.595  1.4648  0.3917 -0.9632
   74bbb    H12 2135  11.010   9.978   6.576  1.1666 -0.6102  0.2191
   74bbb     C7 2136  10.712   9.743   6.598  0.2372 -0.0041  0.1390
   74bbb    H13 2137  10.606   9.770   6.603  0.2147 -0.2836  1.4797
   74bbb    H14 2138  10.726   9.638   6.623  1.3345  0.3723  1.2064
   74bbb     C8 2139  11.184  10.092   6.615  0.1605 -0.4597 -0.4038
   74bbb    H15 2140  11.226   9.994   6.638  0.0484 -0.4763 -0.2682
   74bbb    H16 2141  11.223  10.178   6.672 -0.6579  1.6606 -2.8183
   74bbb     C9 2142  10.619  10.084   7.123  0.7006  0.1774 -0.6330
   74bbb    H17 2143  10.655   9.991   7.169  0.6074  0.1141 -0.6874
   74bbb    H18 2144  10.510  10.088   7.124  0.7016  0.1757  0.9275
   74bbb     O1 2145  10.787   9.766   6.475  0.1774 -0.0855 -0.1295
   75bbb     N1 2146   8.261  12.075   7.470  0.5517  0.1370 -0.9927
   75bbb     C1 2147   8.378  11.983   7.456 -0.2168  0.3010  0.6720
   75bbb     H1 2148   8.454  12.019   7.526  0.2660  0.8675 -0.1268
   75bbb     H2 2149   8.420  11.988   7.355 -0.5653  0.5187  0.5347
   75bbb     C2 2150   8.310  12.214   7.498  0.2760  0.1086 -0.3987
   75bbb     H3 2151   8.362  12.250   7.409  0.4147  0.2056 -0.2786
   75bbb     H4 2152   8.380  12.221   7.582  0.5618  0.2088 -0.6447
   75bbb     C3 2153   8.143  12.055   7.382 -0.1817 -0.1484  0.7535
   75bbb     H5 2154   8.060  12.124   7.397 -1.8101 -1.7058 -0.5719
   75bbb     H6 2155   8.106  11.954   7.406 -0.5533  0.5339  3.3392
   75bbb     C4 2156   8.175  12.057   7.228 -0.5585  0.4440  0.3553
   75bbb     H7 2157   8.265  12.000   7.202  0.3858  2.0509  0.0007
   75bbb     H8 2158   8.173  12.162   7.197 -1.1483  0.0801 -0.9023
   75bbb     C5 2159   8.344  11.832   7.473  0.2426  0.1971 -0.8788
   75bbb     H9 2160   8.427  11.764   7.450 -0.3833 -1.0967  0.4901
   75bbb    H10 2161   8.260  11.813   7.404 -1.4864  0.1148  1.1412
   75bbb     C6 2162   8.204  12.325   7.542  0.5171  0.1727  1.1928
   75bbb    H11 2163   8.140  12.340   7.454  0.2245 -0.7110  1.2476
   75bbb    H12 2164   8.257  12.420   7.554 -0.3088  0.6209  1.3145
   75bbb     C7 2165   8.047  11.995   7.156 -0.6010  0.3181  0.2533
   75bbb    H13 2166   8.055  12.006   7.047 -1.4185 -1.3272 -0.0073
   75bbb    H14 2167   7.953  12.045   7.183 -2.0635 -2.9826  1.8106
   75bbb     C8 2168   8.133  12.292   7.675  0.1823 -0.1184  0.4064
   75bbb    H15 2169   8.209  12.304   7.754  0.2882 -2.6751  0.7782
   75bbb    H16 2170   8.098  12.188   7.671 -2.6806  0.7903 -0.2669
   75bbb     C9 2171   8.303  11.795   7.616  0.0745 -0.3460  0.2975
   75bbb    H17 2172   8.227  11.868   7.646 -1.5333 -0.3342 -3.3197
   75bbb    H18 2173   8.393  11.797   7.679  1.8219  0.1636 -2.0353
   75bbb     O1 2174   8.037  11.857   7.199  0.8521 -0.3191 -0.5961
   76bbb     N1 2175   7.848  11.091   6.459 -0.6102 -0.0973 -0.1182
   76bbb     C1 2176   7.732  11.006   6.435  0.4260  0.6334 -0.7576
   76bbb     H1 2177   7.714  10.985   6.329 -1.4228  0.4085 -0.4403
   76bbb     H2 2178   7.646  11.068   6.465  0.2057 -0.6004  1.3496
   76bbb     C2 2179   7.832  11.220   6.384 -0.1725  0.5574 -0.7360
   76bbb     H3 2180   7.925  11.271   6.410 -0.8845  0.3296  2.8608
   76bbb     H4 2181   7.752  11.272   6.438 -1.2269 -0.2690 -1.4687
   76bbb     C3 2182   7.895  11.111   6.601 -0.1217  0.0130  0.6869
   76bbb     H5 2183   7.979  11.181   6.605  0.3832 -0.6022  0.9095
   76bbb     H6 2184   7.930  11.016   6.643  0.0409  0.3565  1.3419
   76bbb     C4 2185   7.796  11.175   6.701  0.5931 -0.0316  0.2359
   76bbb     H7 2186   7.698  11.127   6.690  0.1771  0.5823  1.2169
   76bbb     H8 2187   7.785  11.281   6.677 -0.3530  0.1772  1.5100
   76bbb     C5 2188   7.737  10.873   6.520  0.1908 -0.5186  0.0893
   76bbb     H9 2189   7.770  10.896   6.622  1.0771 -0.6433 -0.1622
   76bbb    H10 2190   7.817  10.801   6.498  0.5232 -0.5255  1.2387
   76bbb     C6 2191   7.808  11.216   6.233  0.1828  0.0279 -0.1522
   76bbb    H11 2192   7.737  11.140   6.197 -1.0824  0.7683  0.7345
   76bbb    H12 2193   7.908  11.186   6.197  0.1812  0.8564 -0.8789
   76bbb     C7 2194   7.838  11.155   6.850  0.2694  0.2214  0.2372
   76bbb    H13 2195   7.935  11.205   6.866  0.0432  0.5457  0.6135
   76bbb    H14 2196   7.852  11.048   6.872  2.1395 -0.2667 -2.7301
   76bbb     C8 2197   7.759  11.354   6.172  0.0123 -0.4117  0.2674
   76bbb    H15 2198   7.655  11.367   6.205  0.3605 -2.7158  2.6298
   76bbb    H16 2199   7.753  11.344   6.063  0.4646 -1.4581  0.3267
   76bbb     C9 2200   7.601  10.798   6.520 -0.3208  0.3784 -0.2353
   76bbb    H17 2201   7.544  10.866   6.584  0.2746  1.5960 -0.9538
   76bbb    H18 2202   7.614  10.695   6.555 -2.0165 -1.6685 -4.8353
   76bbb     O1 2203   7.739  11.220   6.925  0.6004  0.2679 -0.8514
   77bbb     N1 2204   8.749  11.708   7.727  0.0534  0.4685 -0.8269
   77bbb     C1 2205   8.764  11.653   7.869  0.1990  0.2484 -0.0059
   77bbb     H1 2206   8.764  11.543   7.876 -1.8710  0.1502 -0.7962
   77bbb     H2 2207   8.678  11.690   7.927  1.0537  0.9745  0.8377
   77bbb     C2 2208   8.710  11.846   7.723  0.1981  0.2678  0.0530
   77bbb     H3 2209   8.773  11.898   7.796 -1.1492  3.2091 -0.7621
   77bbb     H4 2210   8.610  11.869   7.762 -0.0532 -0.1052 -0.3533
   77bbb     C3 2211   8.656  11.626   7.643  0.4301  0.3720 -0.2306
   77bbb     H5 2212   8.644  11.661   7.539 -2.6615 -1.4865 -0.6086
   77bbb     H6 2213   8.556  11.627   7.689  0.6305 -0.3618  0.2289
   77bbb     C4 2214   8.688  11.469   7.644  0.2721  0.2822 -0.0440
   77bbb     H7 2215   8.632  11.419   7.724 -1.3172 -1.0290 -1.8533
   77bbb     H8 2216   8.794  11.445   7.653  0.2355 -0.6571 -1.7217
   77bbb     C5 2217   8.894  11.703   7.941 -0.0566  0.4902  0.6350
   77bbb     H9 2218   8.922  11.805   7.911 -0.1568  0.6411  1.0418
   77bbb    H10 2219   8.978  11.648   7.899 -2.4047 -2.0106 -1.1434
   77bbb     C6 2220   8.733  11.911   7.577  0.0189 -0.0805  1.1156
   77bbb    H11 2221   8.657  11.874   7.507  1.0822 -0.8391  0.3339
   77bbb    H12 2222   8.827  11.873   7.537 -1.7528 -1.1519 -2.4486
   77bbb     C7 2223   8.640  11.397   7.521 -0.6447  0.3896  0.1459
   77bbb    H13 2224   8.531  11.410   7.524 -0.6416  0.2069  1.5836
   77bbb    H14 2225   8.653  11.289   7.517 -0.2424  0.4389  0.0721
   77bbb     C8 2226   8.751  12.066   7.578 -0.2214  0.0375  0.3024
   77bbb    H15 2227   8.659  12.114   7.613  0.9449  3.6792 -1.1288
   77bbb    H16 2228   8.763  12.101   7.475 -1.4465 -0.7354 -0.1220
   77bbb     C9 2229   8.891  11.665   8.089 -0.8664  0.5314 -0.2317
   77bbb    H17 2230   8.992  11.685   8.126 -0.3576 -1.5154 -0.4003
   77bbb    H18 2231   8.864  11.561   8.113  0.3658 -0.2223 -1.9348
   77bbb     O1 2232   8.715  11.455   7.410 -0.3511  0.2876  0.3844
   78bbb     N1 2233   9.444  12.201   6.833 -0.6752  0.3195  0.4719
   78bbb     C1 2234   9.467  12.336   6.766  0.0368  0.2031  0.0311
   78bbb     H1 2235   9.384  12.399   6.801 -0.1998  0.7041 -1.3754
   78bbb     H2 2236   9.448  12.328   6.658 -0.3717  2.6362 -0.1413
   78bbb     C2 2237   9.518  12.083   6.761  0.2464  0.0768 -0.1048
   78bbb     H3 2238   9.508  12.095   6.653  1.0489  0.5527 -0.1300
   78bbb     H4 2239   9.472  11.987   6.789  1.4439 -0.1395  1.2112
   78bbb     C3 2240   9.446  12.208   6.980  0.5183  0.0613 -0.4038
   78bbb     H5 2241   9.385  12.295   7.007  1.4786  0.6374 -0.0178
   78bbb     H6 2242   9.541  12.217   7.033 -0.3887 -1.2670  1.5321
   78bbb     C4 2243   9.377  12.081   7.039 -0.1480  0.4921 -0.1803
   78bbb     H7 2244   9.410  12.071   7.143  0.6039  0.6787 -0.3931
   78bbb     H8 2245   9.424  11.995   6.990  1.3769  0.3059  1.4729
   78bbb     C5 2246   9.592  12.421   6.790 -0.3480 -0.9445 -0.4226
   78bbb     H9 2247   9.597  12.504   6.719  2.0489  0.3824  1.1769
   78bbb    H10 2248   9.677  12.353   6.781 -0.0842 -0.4911 -1.5644
   78bbb     C6 2249   9.664  12.061   6.807  0.0296 -0.3635 -0.4473
   78bbb    H11 2250   9.667  12.050   6.916  0.7170 -1.9510 -0.6046
   78bbb    H12 2251   9.739  12.138   6.784 -0.2819  0.6376  1.6696
   78bbb     C7 2252   9.219  12.088   7.023  0.6415 -1.0276 -0.9634
   78bbb    H13 2253   9.199  12.100   6.916  2.5870  3.4332 -1.0420
   78bbb    H14 2254   9.170  12.172   7.074 -0.0991 -0.2032 -2.9249
   78bbb     C8 2255   9.722  11.932   6.758 -0.3266 -0.4711 -0.2753
   78bbb    H15 2256   9.724  11.927   6.648 -0.1603 -0.9624 -0.2553
   78bbb    H16 2257   9.680  11.836   6.790  1.7613 -1.1217  0.6627
   78bbb     C9 2258   9.599  12.491   6.925  0.5327 -0.2605  0.0245
   78bbb    H17 2259   9.567  12.426   7.007  0.5240  1.9087  1.8474
   78bbb    H18 2260   9.521  12.568   6.929  0.3151 -0.4819  0.0066
   78bbb     O1 2261   9.171  11.962   7.063 -0.4333 -0.5807  0.4037
   79bbb     N1 2262  11.208   7.993   8.418  0.1819 -0.5844 -0.2473
   79bbb     C1 2263  11.313   7.922   8.495 -0.5394  0.4446 -0.3726
   79bbb     H1 2264  11.379   7.868   8.427  0.1324 -2.3909  2.3272
   79bbb     H2 2265  11.269   7.845   8.559  2.2105 -0.9519 -0.0517
   79bbb     C2 2266  11.102   8.066   8.504  0.5484  0.1865  0.1252
   79bbb     H3 2267  11.023   8.113   8.444 -0.2463  0.0136  1.0171
   79bbb     H4 2268  11.153   8.142   8.565  3.8492 -1.5659 -0.2378
   79bbb     C3 2269  11.263   8.075   8.311 -0.3042  0.1019  0.3761
   79bbb     H5 2270  11.328   8.013   8.249 -2.0151 -1.0445 -0.3255
   79bbb     H6 2271  11.313   8.166   8.347  1.2077  0.1925 -1.7712
   79bbb     C4 2272  11.161   8.122   8.207 -0.5457  0.2061  0.2666
   79bbb     H7 2273  11.209   8.185   8.131  0.1463 -1.5261 -0.7699
   79bbb     H8 2274  11.080   8.179   8.256 -0.5703 -0.4290  0.9745
   79bbb     C5 2275  11.401   8.009   8.589  0.5282 -0.1892 -0.2850
   79bbb     H9 2276  11.342   8.070   8.658  0.8118 -0.4083  0.1492
   79bbb    H10 2277  11.453   8.077   8.520 -1.3967 -0.1964 -1.8423
   79bbb     C6 2278  11.014   7.970   8.598 -0.4073 -0.2614 -0.7378
   79bbb    H11 2279  11.025   7.879   8.537  0.4803 -0.1034 -0.8291
   79bbb    H12 2280  10.910   8.003   8.608  0.8752  3.3729  3.0679
   79bbb     C7 2281  11.089   8.003   8.138  0.7782 -0.6053 -0.1946
   79bbb    H13 2282  11.031   7.938   8.205 -2.0400  0.8604 -1.0410
   79bbb    H14 2283  11.166   7.938   8.094 -0.1072 -0.3840 -2.1826
   79bbb     C8 2284  11.078   7.953   8.741 -0.4551 -0.0196  0.7223
   79bbb    H15 2285  11.181   7.919   8.725 -0.8137 -0.0225 -2.1405
   79bbb    H16 2286  11.025   7.869   8.788  0.4351 -1.5819 -0.9173
   79bbb     C9 2287  11.504   7.938   8.681  0.2936  0.2615  0.2910
   79bbb    H17 2288  11.585   7.889   8.624  1.7099  0.7082  1.8322
   79bbb    H18 2289  11.445   7.867   8.739 -0.6994  0.4733 -0.4337
   79bbb     O1 2290  10.990   8.062   8.049 -0.2641 -0.0067  0.3409
   80bbb     N1 2291  10.826   8.510   8.641  0.1537 -0.0024  0.9121
   80bbb     C1 2292  10.818   8.412   8.753  0.2580  0.0529 -0.6411
   80bbb     H1 2293  10.885   8.436   8.836 -1.2049  0.5727  0.4400
   80bbb     H2 2294  10.857   8.313   8.727  0.1229 -0.7566  1.8988
   80bbb     C2 2295  10.969   8.536   8.607  0.3168 -0.0429 -0.4598
   80bbb     H3 2296  11.032   8.556   8.695  2.0577 -1.5258 -1.2838
   80bbb     H4 2297  10.987   8.622   8.541 -0.9818 -0.1189 -0.9258
   80bbb     C3 2298  10.738   8.486   8.527  0.1931 -0.2622  0.7985
   80bbb     H5 2299  10.634   8.464   8.553  0.1002  0.6300  1.1890
   80bbb     H6 2300  10.765   8.397   8.469  1.2466  0.0222  0.8362
   80bbb     C4 2301  10.742   8.599   8.421 -0.1187 -0.8010 -0.1999
   80bbb     H7 2302  10.833   8.597   8.359  0.6241  0.9080  0.7480
   80bbb     H8 2303  10.731   8.696   8.471 -1.6893 -0.7491 -0.5798
   80bbb     C5 2304  10.680   8.406   8.825 -0.2047  0.1183 -0.3079
   80bbb     H9 2305  10.680   8.328   8.902 -1.6624  0.8973  0.5423
   80bbb    H10 2306  10.603   8.369   8.755 -1.3672 -0.1878  1.0821
   80bbb     C6 2307  11.039   8.415   8.551 -0.4282  0.4316 -0.3031
   80bbb    H11 2308  10.975   8.351   8.490 -0.1020 -0.0092 -0.1878
   80bbb    H12 2309  11.068   8.345   8.631  3.7174  2.1797  0.0011
   80bbb     C7 2310  10.621   8.596   8.318  0.1819  0.9054  0.2671
   80bbb    H13 2311  10.625   8.685   8.253  0.4889 -0.0769 -1.0957
   80bbb    H14 2312  10.531   8.596   8.381  0.3360  1.2358  0.4911
   80bbb     C8 2313  11.171   8.442   8.466  0.6348  0.4243 -0.2903
   80bbb    H15 2314  11.218   8.345   8.443 -0.5962 -1.2605  3.4218
   80bbb    H16 2315  11.236   8.507   8.525  1.1132  1.0217 -1.4544
   80bbb     C9 2316  10.658   8.545   8.887 -0.1180  0.0950 -0.4223
   80bbb    H17 2317  10.647   8.614   8.803  0.4963 -0.4813 -0.9873
   80bbb    H18 2318  10.739   8.587   8.947 -0.6590 -0.4391  0.7381
   80bbb     O1 2319  10.634   8.484   8.229  0.1635 -0.0504 -0.0763
   81bbb     N1 2320   9.398   8.223   5.876  0.3274  0.0150  0.0666
   81bbb     C1 2321   9.530   8.166   5.820 -0.0705 -0.5989  0.5909
   81bbb     H1 2322   9.549   8.208   5.721  0.9499 -1.3873  0.4500
   81bbb     H2 2323   9.521   8.059   5.802  0.6580 -0.1041 -3.6582
   81bbb     C2 2324   9.284   8.164   5.798 -0.2831 -0.2767  0.0229
   81bbb     H3 2325   9.283   8.055   5.811 -0.1523 -0.2599  0.1936
   81bbb     H4 2326   9.301   8.175   5.690 -2.3533 -0.6281 -0.3691
   81bbb     C3 2327   9.378   8.216   6.023  0.6398  0.0148 -0.7105
   81bbb     H5 2328   9.286   8.268   6.050 -0.7817 -1.5614 -2.2703
   81bbb     H6 2329   9.463   8.263   6.074  1.3922 -1.4024 -0.5956
   81bbb     C4 2330   9.357   8.078   6.089 -0.0198  1.0317 -0.3995
   81bbb     H7 2331   9.442   8.016   6.057 -1.2724 -2.0910  1.8168
   81bbb     H8 2332   9.264   8.034   6.052  0.2813 -0.4211  0.4896
   81bbb     C5 2333   9.659   8.189   5.905  0.6219 -0.0093 -0.6706
   81bbb     H9 2334   9.654   8.140   6.003  1.2567 -0.0043 -0.6328
   81bbb    H10 2335   9.665   8.296   5.931  4.0909 -0.7982  2.6174
   81bbb     C6 2336   9.143   8.219   5.840  0.0707 -0.4985  0.3104
   81bbb    H11 2337   9.147   8.328   5.840  0.0324 -0.4946  0.7667
   81bbb    H12 2338   9.116   8.186   5.941 -0.9620 -2.7907 -0.6332
   81bbb     C7 2339   9.344   8.086   6.241  0.4865 -0.9163  0.2301
   81bbb    H13 2340   9.319   7.987   6.279 -1.5553 -0.9800 -1.1439
   81bbb    H14 2341   9.260   8.149   6.274 -0.7829 -2.1126 -0.6536
   81bbb     C8 2342   9.035   8.187   5.726  0.3659 -0.3142  0.3013
   81bbb    H15 2343   8.946   8.249   5.738 -1.5193 -3.2211  2.6249
   81bbb    H16 2344   9.000   8.084   5.742 -1.0229 -0.3076 -2.2812
   81bbb     C9 2345   9.786   8.149   5.828  1.0461 -0.0253  0.7009
   81bbb    H17 2346   9.802   8.219   5.746  1.7542  1.4682  2.0451
   81bbb    H18 2347   9.777   8.052   5.776  2.6465 -0.6245  1.4574
   81bbb     O1 2348   9.470   8.129   6.296 -0.0147  0.7407 -0.2824
   82bbb     N1 2349  10.754   8.603   6.479 -0.2525 -0.5494 -0.7287
   82bbb     C1 2350  10.897   8.566   6.447 -0.3397 -0.1684  0.5315
   82bbb     H1 2351  10.977   8.619   6.501  0.7501 -1.0020 -0.2066
   82bbb     H2 2352  10.906   8.573   6.337 -0.1066  1.2979  0.6285
   82bbb     C2 2353  10.723   8.747   6.461  0.5210  0.1826  0.0054
   82bbb     H3 2354  10.624   8.772   6.502 -0.1944 -0.3755 -1.3063
   82bbb     H4 2355  10.709   8.769   6.355 -1.7891  1.8369  0.5752
   82bbb     C3 2356  10.659   8.513   6.412 -0.2979 -0.2032  0.0596
   82bbb     H5 2357  10.683   8.412   6.446 -0.8999 -0.5526 -0.5354
   82bbb     H6 2358  10.658   8.506   6.303 -2.5817 -1.0119  0.0852
   82bbb     C4 2359  10.519   8.542   6.452  0.2381  0.3543  0.3196
   82bbb     H7 2360  10.471   8.623   6.395 -1.8064  0.4893  2.0770
   82bbb     H8 2361  10.503   8.566   6.558  0.3504 -0.2217  0.4719
   82bbb     C5 2362  10.927   8.416   6.484 -0.5189 -0.6084  0.6544
   82bbb     H9 2363  10.888   8.344   6.411  1.6678 -1.8754  0.6432
   82bbb    H10 2364  10.860   8.393   6.567 -1.0280 -4.1646 -0.5615
   82bbb     C6 2365  10.826   8.845   6.523  0.7530 -0.2110 -0.2957
   82bbb    H11 2366  10.788   8.947   6.507  0.5120  0.1306  2.0120
   82bbb    H12 2367  10.917   8.850   6.461  0.5317 -0.2957 -0.6281
   82bbb     C7 2368  10.440   8.415   6.426 -0.2189  0.3989 -0.1049
   82bbb    H13 2369  10.470   8.349   6.508 -0.4337  0.0554 -0.3020
   82bbb    H14 2370  10.475   8.369   6.332  2.1205 -0.4290  1.0955
   82bbb     C8 2371  10.848   8.818   6.672  0.8970  0.3652 -0.8555
   82bbb    H15 2372  10.911   8.730   6.689  0.7967  0.5556  0.5705
   82bbb    H16 2373  10.747   8.789   6.703  1.7339 -0.5736  1.1535
   82bbb     C9 2374  11.080   8.383   6.498  0.7243 -0.0536 -0.4628
   82bbb    H17 2375  11.112   8.435   6.590 -0.4705  0.0556 -0.0845
   82bbb    H18 2376  11.133   8.439   6.420 -0.1502  0.8232 -0.4594
   82bbb     O1 2377  10.301   8.440   6.428 -0.2489 -0.4638  0.4407
   83bbb     N1 2378   7.824   8.332   8.499 -0.6321  0.2121  0.2305
   83bbb     C1 2379   7.768   8.462   8.555 -0.0809 -0.0496  0.2595
   83bbb     H1 2380   7.702   8.440   8.639 -0.0365 -3.2444 -0.4145
   83bbb     H2 2381   7.708   8.522   8.487 -0.1896  0.8779  1.1500
   83bbb     C2 2382   7.902   8.244   8.594 -0.0087  0.0446 -0.0984
   83bbb     H3 2383   8.001   8.288   8.606 -0.2043  1.0453 -1.8535
   83bbb     H4 2384   7.919   8.145   8.549  1.5047 -0.0743  0.6722
   83bbb     C3 2385   7.875   8.329   8.362  0.7388 -0.4399  0.2275
   83bbb     H5 2386   7.907   8.230   8.327  0.1392  0.1501 -2.1940
   83bbb     H6 2387   7.962   8.393   8.346  1.6394 -1.7446 -0.2398
   83bbb     C4 2388   7.768   8.379   8.262  0.9210 -0.3365 -1.1112
   83bbb     H7 2389   7.729   8.481   8.274 -0.6350 -0.9635 -0.5337
   83bbb     H8 2390   7.678   8.316   8.264  0.0704  0.8539  0.3291
   83bbb     C5 2391   7.874   8.561   8.610 -0.1246  0.0158 -0.1330
   83bbb     H9 2392   7.934   8.616   8.536  1.5421 -0.1446  1.0263
   83bbb    H10 2393   7.949   8.502   8.665 -1.1983 -0.2983  1.0491
   83bbb     C6 2394   7.844   8.231   8.740  0.0635  0.4334  0.2335
   83bbb    H11 2395   7.799   8.321   8.782  1.2333  1.2613 -0.2408
   83bbb    H12 2396   7.928   8.219   8.811  0.1540  3.7795  0.8571
   83bbb     C7 2397   7.814   8.366   8.119 -0.3016 -0.4312  0.2520
   83bbb    H13 2398   7.864   8.269   8.107 -0.9099 -0.7344  0.0989
   83bbb    H14 2399   7.882   8.451   8.107 -2.9433  1.6364 -1.1686
   83bbb     C8 2400   7.750   8.110   8.762 -0.2467 -0.1975 -0.4320
   83bbb    H15 2401   7.740   8.078   8.867  1.4872 -1.6566 -0.6704
   83bbb    H16 2402   7.785   8.027   8.699  0.5943 -0.3712  0.2398
   83bbb     C9 2403   7.813   8.656   8.717  0.7313  0.2386  0.5894
   83bbb    H17 2404   7.708   8.678   8.695  0.8758  0.3597  0.0170
   83bbb    H18 2405   7.867   8.751   8.723  0.0345  0.6162  1.0021
   83bbb     O1 2406   7.704   8.383   8.030  0.3792 -0.0224  0.9538
   84bbb     N1 2407   8.526   7.880   7.664 -0.1909  0.3209  0.4317
   84bbb     C1 2408   8.601   7.852   7.540 -0.6945  0.2612  0.4972
   84bbb     H1 2409   8.652   7.948   7.520  1.8833 -1.4345 -1.8645
   84bbb     H2 2410   8.540   7.833   7.450  1.5552 -1.5237 -0.7622
   84bbb     C2 2411   8.441   7.765   7.706 -0.8274 -0.2123  0.3913
   84bbb     H3 2412   8.489   7.679   7.657  1.3920  0.9268  0.3877
   84bbb     H4 2413   8.340   7.764   7.664  0.2587 -0.5526 -2.5189
   84bbb     C3 2414   8.448   8.005   7.663 -0.1851 -0.4918 -0.3253
   84bbb     H5 2415   8.376   7.996   7.745  0.1939 -1.6166 -0.0927
   84bbb     H6 2416   8.394   8.007   7.567  0.1668 -1.4758 -0.5609
   84bbb     C4 2417   8.543   8.124   7.695  0.6176 -0.0976 -0.5291
   84bbb     H7 2418   8.624   8.137   7.622  0.2843 -3.1981 -1.5927
   84bbb     H8 2419   8.582   8.110   7.796  0.9548  0.1610 -0.6202
   84bbb     C5 2420   8.711   7.745   7.559  0.3146  0.3107  0.5593
   84bbb     H9 2421   8.671   7.643   7.563 -0.5431  0.4242 -2.6227
   84bbb    H10 2422   8.761   7.739   7.656  0.8291 -0.9601  0.2455
   84bbb     C6 2423   8.438   7.745   7.859  0.1082 -0.2216 -0.4143
   84bbb    H11 2424   8.343   7.722   7.908  0.1039  0.4397 -0.0938
   84bbb    H12 2425   8.478   7.839   7.899  3.0721 -1.6010  0.1705
   84bbb     C7 2426   8.460   8.254   7.704 -0.8448 -0.1548 -0.2265
   84bbb    H13 2427   8.404   8.263   7.610 -1.3050  1.1583  0.1474
   84bbb    H14 2428   8.528   8.340   7.707 -1.9426  0.7166  1.0412
   84bbb     C8 2429   8.549   7.650   7.912  0.2270 -0.3892  0.4292
   84bbb    H15 2430   8.563   7.653   8.021 -0.5828 -0.1896  0.5362
   84bbb    H16 2431   8.641   7.695   7.872  0.4608 -2.4928 -1.5876
   84bbb     C9 2432   8.821   7.755   7.451 -0.3793  0.0894  0.1709
   84bbb    H17 2433   8.855   7.859   7.444 -0.2950  0.0511  0.0193
   84bbb    H18 2434   8.788   7.733   7.349 -0.5721  1.9877 -0.2130
   84bbb     O1 2435   8.368   8.247   7.818  0.6288 -0.5754  0.1647
   85bbb     N1 2436   8.538   9.390   7.350  0.7388  0.6038 -0.0089
   85bbb     C1 2437   8.540   9.382   7.500  0.1835  0.8480 -0.0421
   85bbb     H1 2438   8.630   9.427   7.542  0.3362  0.2193  0.3142
   85bbb     H2 2439   8.538   9.277   7.529 -0.4236  1.0363  0.6201
   85bbb     C2 2440   8.584   9.519   7.303 -0.0897 -0.7938  0.0785
   85bbb     H3 2441   8.662   9.562   7.368  0.2566 -2.3707  0.7415
   85bbb     H4 2442   8.510   9.600   7.291  1.0700 -0.0634 -3.5182
   85bbb     C3 2443   8.417   9.338   7.279 -0.5005  0.2248 -0.1755
   85bbb     H5 2444   8.424   9.349   7.170 -2.3209  0.5171 -0.2829
   85bbb     H6 2445   8.333   9.399   7.314  1.5304  1.9170  2.1129
   85bbb     C4 2446   8.394   9.185   7.309 -0.7994  0.2968 -0.0960
   85bbb     H7 2447   8.381   9.170   7.416  0.9848  0.6833  0.2048
   85bbb     H8 2448   8.483   9.123   7.296  0.5712  2.2382 -0.2867
   85bbb     C5 2449   8.415   9.446   7.573  1.2465 -0.1816 -0.4746
   85bbb     H9 2450   8.431   9.441   7.682 -3.0053 -0.9662  0.2637
   85bbb    H10 2451   8.333   9.377   7.551 -0.4945  2.1803 -1.8039
   85bbb     C6 2452   8.640   9.504   7.157  0.0981  0.3681 -0.0517
   85bbb    H11 2453   8.556   9.480   7.091  0.2648 -0.8401  0.1503
   85bbb    H12 2454   8.703   9.415   7.160 -1.1025 -0.5533 -1.0470
   85bbb     C7 2455   8.271   9.128   7.237 -0.6574  1.2511  0.0469
   85bbb    H13 2456   8.186   9.197   7.242 -2.3953 -0.4986 -2.4192
   85bbb    H14 2457   8.246   9.029   7.276  0.1049  0.2543 -1.8738
   85bbb     C8 2458   8.722   9.636   7.109  0.0035  1.4262  0.0048
   85bbb    H15 2459   8.791   9.608   7.028 -0.2683  1.1896 -0.1459
   85bbb    H16 2460   8.777   9.673   7.197 -0.0211 -1.8382  1.5624
   85bbb     C9 2461   8.380   9.600   7.548  0.1780 -0.1554 -0.4219
   85bbb    H17 2462   8.378   9.625   7.442 -0.6142 -0.1101 -0.4026
   85bbb    H18 2463   8.447   9.671   7.598  0.6995 -0.9597  0.0463
   85bbb     O1 2464   8.306   9.108   7.103  0.0758  0.5413  0.4189
   86bbb     N1 2465   8.339   8.064   6.395 -0.5000  0.0238  0.4180
   86bbb     C1 2466   8.305   8.033   6.539  0.1133 -0.7696 -0.2443
   86bbb     H1 2467   8.370   8.091   6.605 -2.7384  0.6440  1.5631
   86bbb     H2 2468   8.326   7.928   6.565  1.7261 -0.7703 -1.4197
   86bbb     C2 2469   8.460   7.989   6.340  0.2117 -0.3421 -0.3829
   86bbb     H3 2470   8.545   8.045   6.381 -1.2866  0.7062  1.4144
   86bbb     H4 2471   8.463   8.000   6.231 -1.7132 -1.7398 -0.6209
   86bbb     C3 2472   8.340   8.211   6.359 -0.2109  0.0241 -0.3949
   86bbb     H5 2473   8.241   8.256   6.370  1.1139  2.5261  3.6460
   86bbb     H6 2474   8.369   8.223   6.254 -1.6760  2.1396 -0.6208
   86bbb     C4 2475   8.433   8.308   6.445 -0.9253  0.1005  0.2812
   86bbb     H7 2476   8.524   8.257   6.481  0.0326  0.2757 -1.7370
   86bbb     H8 2477   8.379   8.340   6.535  1.2890  1.4826  1.2157
   86bbb     C5 2478   8.165   8.074   6.587 -0.7284  0.1082  0.2879
   86bbb     H9 2479   8.153   8.182   6.573 -1.0637  0.1135  0.5907
   86bbb    H10 2480   8.154   8.047   6.693  0.2013  0.1544  0.4043
   86bbb     C6 2481   8.471   7.838   6.378  0.6527 -0.2920  0.3159
   86bbb    H11 2482   8.373   7.794   6.356 -0.4772  2.4508 -0.5222
   86bbb    H12 2483   8.491   7.831   6.485  0.3340  0.4818  0.4343
   86bbb     C7 2484   8.470   8.443   6.375 -0.6958  0.4409  0.3336
   86bbb    H13 2485   8.373   8.480   6.340 -0.2066  1.3106 -0.1252
   86bbb    H14 2486   8.544   8.415   6.299  1.4632  0.8114  2.1974
   86bbb     C8 2487   8.583   7.761   6.308  0.1248 -0.4938  0.4747
   86bbb    H15 2488   8.640   7.695   6.375  0.7865 -1.2175 -0.7560
   86bbb    H16 2489   8.654   7.830   6.261  2.3555 -2.8145  0.2114
   86bbb     C9 2490   8.056   7.997   6.501 -0.5805  0.8463  0.1231
   86bbb    H17 2491   8.067   7.898   6.547  1.7593  0.7281 -0.5372
   86bbb    H18 2492   8.090   7.989   6.397 -1.4583 -0.0192 -0.1149
   86bbb     O1 2493   8.514   8.536   6.483 -0.1844 -0.2078 -0.0457
   87bbb     N1 2494   9.220   9.902   9.777 -0.3763  0.1415 -0.7394
   87bbb     C1 2495   9.115  10.000   9.814 -0.3061  0.3473 -0.5468
   87bbb     H1 2496   9.020   9.983   9.763  0.2558 -0.6811 -1.2806
   87bbb     H2 2497   9.150  10.103   9.794 -0.9153  0.9046  1.0618
   87bbb     C2 2498   9.335   9.880   9.866 -0.2457  0.6605 -0.1499
   87bbb     H3 2499   9.322   9.922   9.967  0.8639 -1.6020  0.9984
   87bbb     H4 2500   9.428   9.928   9.833  0.5579  0.4685  1.7085
   87bbb     C3 2501   9.239   9.886   9.631 -0.4568 -0.8975  0.1579
   87bbb     H5 2502   9.147   9.846   9.587  0.0221 -2.7569  0.7768
   87bbb     H6 2503   9.322   9.820   9.604 -0.1574  0.5418 -2.8647
   87bbb     C4 2504   9.275  10.018   9.565 -0.1850  0.0141  0.7946
   87bbb     H7 2505   9.337  10.078   9.632 -0.7117  0.4317  0.9221
   87bbb     H8 2506   9.185  10.079   9.550  0.6736  0.9200 -0.9357
   87bbb     C5 2507   9.082  10.012   9.959 -0.2245 -0.0511  0.2713
   87bbb     H9 2508   9.167  10.049  10.018  1.8122 -1.8610 -1.3555
   87bbb    H10 2509   9.076   9.909   9.996 -0.8918  0.1179  0.6625
   87bbb     C6 2510   9.372   9.732   9.894 -0.0943 -0.1821  0.3717
   87bbb    H11 2511   9.469   9.734   9.944 -0.3764  1.5044  0.9319
   87bbb    H12 2512   9.383   9.674   9.802  0.6135 -0.7688  0.8255
   87bbb     C7 2513   9.338  10.015   9.423 -0.2006 -0.8630 -1.0036
   87bbb    H13 2514   9.435   9.964   9.431  0.0051 -0.2175  1.0202
   87bbb    H14 2515   9.347  10.116   9.380  2.3063 -0.8612 -0.6438
   87bbb     C8 2516   9.276   9.663   9.990  0.4700 -0.3493 -0.6065
   87bbb    H15 2517   9.323   9.565   9.999 -0.8977 -0.9907 -0.1549
   87bbb    H16 2518   9.173   9.668   9.953 -0.0724  1.9744  0.9484
   87bbb     C9 2519   8.957  10.094   9.987  0.0078  0.2972  1.3902
   87bbb    H17 2520   8.936  10.091  10.095  0.9480  1.7750  1.6383
   87bbb    H18 2521   8.872  10.054   9.931  0.5500  0.4845  0.4038
   87bbb     O1 2522   9.264   9.933   9.329  0.3185 -0.4410  0.2034
   88bbb     N1 2523   8.802  10.366   9.174 -0.4737 -0.4619  0.2297
   88bbb     C1 2524   8.878  10.438   9.064  0.3234 -0.1039  0.4854
   88bbb     H1 2525   8.886  10.547   9.072  0.9399 -0.0340 -0.7957
   88bbb     H2 2526   8.813  10.433   8.976  0.1020 -0.9694  0.6916
   88bbb     C2 2527   8.869  10.381   9.307  0.4984  0.0249 -0.6332
   88bbb     H3 2528   8.835  10.468   9.365 -0.1866 -1.1434  0.7720
   88bbb     H4 2529   8.978  10.386   9.295  0.4210  1.9629 -0.8411
   88bbb     C3 2530   8.661  10.413   9.174  0.2744  0.0024  0.2666
   88bbb     H5 2531   8.653  10.517   9.142  3.0798 -0.2716 -1.6882
   88bbb     H6 2532   8.613  10.409   9.273  1.0995  1.1238  0.7334
   88bbb     C4 2533   8.576  10.332   9.071 -0.2362  0.4668 -0.2030
   88bbb     H7 2534   8.617  10.338   8.969  0.4931 -0.4691  0.0253
   88bbb     H8 2535   8.474  10.371   9.070 -0.2517  0.5326  1.4972
   88bbb     C5 2536   9.011  10.378   9.013  0.5781  0.2326  0.0111
   88bbb     H9 2537   8.989  10.272   8.997  0.3306  0.1324  0.9555
   88bbb    H10 2538   9.084  10.385   9.094 -0.1760 -0.5011  0.7806
   88bbb     C6 2539   8.839  10.262   9.396 -0.9598 -0.4610 -0.0774
   88bbb    H11 2540   8.881  10.173   9.348  0.5849  1.4289 -2.4479
   88bbb    H12 2541   8.731  10.249   9.407 -1.0220 -0.2019 -0.3708
   88bbb     C7 2542   8.566  10.185   9.112  0.1981  0.0073  0.1376
   88bbb    H13 2543   8.503  10.174   9.200  0.9018 -0.7609  0.5607
   88bbb    H14 2544   8.659  10.137   9.147 -1.1000 -2.3561  0.4970
   88bbb     C8 2545   8.901  10.279   9.534 -0.2840  1.0486 -0.5195
   88bbb    H15 2546   8.875  10.198   9.604 -0.3117  1.1718 -0.3876
   88bbb    H16 2547   8.868  10.369   9.587 -0.2301  0.3722  0.6819
   88bbb     C9 2548   9.067  10.448   8.885 -0.3126  0.4744  0.3562
   88bbb    H17 2549   9.148  10.391   8.837 -1.0854  1.8086 -2.7382
   88bbb    H18 2550   9.109  10.546   8.912 -1.7289  0.9656  0.8594
   88bbb     O1 2551   8.534  10.106   8.994 -0.8130 -0.1215  0.7987
   89bbb     N1 2552   9.600   8.880   9.936  0.0286 -0.8617  0.6781
   89bbb     C1 2553   9.624   8.947  10.060  0.1257 -0.0671  0.1163
   89bbb     H1 2554   9.547   9.024  10.073 -0.3733 -0.9626  3.5499
   89bbb     H2 2555   9.712   9.010  10.078 -0.9644  0.6498  3.7682
   89bbb     C2 2556   9.461   8.882   9.886 -0.2441 -0.5123 -0.1229
   89bbb     H3 2557   9.422   8.984   9.888  0.7073 -0.1115 -0.8837
   89bbb     H4 2558   9.403   8.826   9.960 -1.7171 -0.6711 -1.3615
   89bbb     C3 2559   9.708   8.912   9.839  0.3687  0.4454  0.4844
   89bbb     H5 2560   9.734   9.018   9.831  1.2893  0.2794  1.1015
   89bbb     H6 2561   9.683   8.888   9.735 -1.1287  0.2086  0.8816
   89bbb     C4 2562   9.837   8.839   9.869  0.2867 -0.0630 -0.3488
   89bbb     H7 2563   9.807   8.734   9.868 -1.1514  0.2331  2.5861
   89bbb     H8 2564   9.872   8.863   9.970 -0.5406  2.3129 -0.5702
   89bbb     C5 2565   9.594   8.864  10.188  0.3024  0.1021  0.5177
   89bbb     H9 2566   9.488   8.836  10.188  0.0069  1.1909  0.9115
   89bbb    H10 2567   9.617   8.919  10.280  1.7037 -0.0683  0.2927
   89bbb     C6 2568   9.428   8.811   9.752 -0.5399 -0.3778  0.4579
   89bbb    H11 2569   9.482   8.715   9.746 -0.0290 -0.7759  6.0096
   89bbb    H12 2570   9.465   8.876   9.672  0.0034 -0.6112  0.5114
   89bbb     C7 2571   9.955   8.875   9.773 -0.0978 -0.2965 -0.4735
   89bbb    H13 2572   9.922   8.848   9.672 -1.3670 -0.2301 -0.0917
   89bbb    H14 2573  10.041   8.816   9.807 -0.5435 -1.2877 -1.0318
   89bbb     C8 2574   9.273   8.794   9.722 -0.3473  0.2839  0.5751
   89bbb    H15 2575   9.238   8.890   9.681 -0.3029 -0.7447 -2.0661
   89bbb    H16 2576   9.223   8.774   9.817 -0.4281 -1.8910  0.1279
   89bbb     C9 2577   9.684   8.739  10.189  0.7969 -0.5033  0.0328
   89bbb    H17 2578   9.792   8.758  10.196  0.6743  0.3748 -0.3427
   89bbb    H18 2579   9.676   8.690  10.091  2.5814  0.1924 -0.5106
   89bbb     O1 2580   9.979   9.023   9.776 -0.4861  0.1905 -0.3375
   90bbb     N1 2581  10.630   9.491   9.186  0.3873  1.0294  0.4142
   90bbb     C1 2582  10.670   9.378   9.098 -0.6721  0.0971 -0.0580
   90bbb     H1 2583  10.577   9.332   9.061  0.0381 -1.6014  0.1741
   90bbb     H2 2584  10.711   9.295   9.156  0.8894  0.6597 -0.3131
   90bbb     C2 2585  10.579   9.441   9.319  0.0862  0.6972  0.0103
   90bbb     H3 2586  10.504   9.363   9.302 -2.3147  2.7236  0.7188
   90bbb     H4 2587  10.531   9.521   9.376  1.3261  0.9075  0.8041
   90bbb     C3 2588  10.546   9.593   9.118 -0.3513  0.3972 -0.6802
   90bbb     H5 2589  10.446   9.548   9.106  0.2283 -0.9075 -0.8217
   90bbb     H6 2590  10.577   9.610   9.015 -0.4711 -2.5556 -1.2838
   90bbb     C4 2591  10.532   9.730   9.193 -0.5813  0.0805 -0.8594
   90bbb     H7 2592  10.613   9.795   9.158 -0.5713  0.8610  0.5471
   90bbb     H8 2593  10.548   9.725   9.302  0.5002 -1.8794 -1.0433
   90bbb     C5 2594  10.762   9.396   8.974 -0.5511 -0.2998  0.7079
   90bbb     H9 2595  10.856   9.445   9.002  0.3084 -0.3393 -1.8701
   90bbb    H10 2596  10.706   9.455   8.901 -0.3087  1.0587  1.5665
   90bbb     C6 2597  10.689   9.386   9.407 -0.5203  0.4367 -0.5455
   90bbb    H11 2598  10.763   9.334   9.344 -0.8081  0.1633 -0.6631
   90bbb    H12 2599  10.638   9.311   9.469 -0.2212  1.8278  1.4846
   90bbb     C7 2600  10.397   9.794   9.179  0.0155 -0.0838  0.2523
   90bbb    H13 2601  10.373   9.800   9.072  1.6604 -0.0447 -0.1418
   90bbb    H14 2602  10.402   9.899   9.213  2.6590 -0.0861  0.0632
   90bbb     C8 2603  10.756   9.491   9.508  0.7209 -0.8503 -0.3847
   90bbb    H15 2604  10.809   9.566   9.448  4.6362 -2.5363  0.6258
   90bbb    H16 2605  10.829   9.449   9.579  0.1523  0.6826  1.1701
   90bbb     C9 2606  10.797   9.265   8.902 -0.2313 -0.7683  0.3684
   90bbb    H17 2607  10.882   9.271   8.832 -0.0652 -1.2793  0.5255
   90bbb    H18 2608  10.705   9.249   8.844 -0.2537 -0.6399  0.3672
   90bbb     O1 2609  10.297   9.726   9.256  0.5842 -0.1510 -0.2317
   91bbb     N1 2610   8.392   9.387   9.502 -0.0461  0.1458  0.4014
   91bbb     C1 2611   8.294   9.424   9.399  0.2314 -0.3324 -0.0913
   91bbb     H1 2612   8.343   9.486   9.323 -1.9023  1.1183 -0.3489
   91bbb     H2 2613   8.216   9.485   9.446 -1.0173 -0.1445 -2.2485
   91bbb     C2 2614   8.352   9.278   9.601 -0.1088 -0.6975  0.2179
   91bbb     H3 2615   8.440   9.236   9.652 -0.1129 -0.6198  0.2894
   91bbb     H4 2616   8.304   9.194   9.549 -1.4832  0.9337 -1.2685
   91bbb     C3 2617   8.481   9.503   9.550  0.8410  0.4345 -0.9786
   91bbb     H5 2618   8.531   9.461   9.638 -1.7671 -2.0977 -0.5485
   91bbb     H6 2619   8.421   9.591   9.577 -0.4221 -0.3927 -0.9947
   91bbb     C4 2620   8.568   9.565   9.450  0.4583  0.3211 -0.0671
   91bbb     H7 2621   8.633   9.643   9.491  2.8721  0.0523 -2.9933
   91bbb     H8 2622   8.504   9.617   9.377 -1.9741 -3.9891 -1.3177
   91bbb     C5 2623   8.229   9.306   9.332 -0.0891  0.3339 -0.3107
   91bbb     H9 2624   8.166   9.255   9.405  0.0350 -0.8830 -1.0270
   91bbb    H10 2625   8.309   9.232   9.318  0.0548  0.4931 -0.3469
   91bbb     C6 2626   8.251   9.325   9.708  0.3180 -0.3693 -0.6593
   91bbb    H11 2627   8.171   9.391   9.671  0.9176  0.2420 -0.8742
   91bbb    H12 2628   8.302   9.387   9.783  0.0772 -0.5815 -0.3153
   91bbb     C7 2629   8.656   9.454   9.385  0.9211  0.0571  0.3719
   91bbb    H13 2630   8.600   9.385   9.320  0.5311  1.6717 -1.0958
   91bbb    H14 2631   8.710   9.401   9.465 -0.1962 -1.0981  0.4036
   91bbb     C8 2632   8.184   9.201   9.782  0.7350  0.4032  0.1022
   91bbb    H15 2633   8.124   9.237   9.866 -1.1080 -0.3627 -0.8267
   91bbb    H16 2634   8.263   9.134   9.819  0.8820  1.2570  1.4188
   91bbb     C9 2635   8.155   9.339   9.201 -0.5883 -0.0465 -0.3881
   91bbb    H17 2636   8.137   9.244   9.148 -0.6149  0.2999 -1.0081
   91bbb    H18 2637   8.222   9.397   9.137  1.3817 -2.5999 -0.8117
   91bbb     O1 2638   8.747   9.528   9.304 -0.0802 -0.0310 -0.0954
   92bbb     N1 2639   8.242   9.889   9.913  0.1503 -0.2168 -0.2630
   92bbb     C1 2640   8.240   9.981   9.802 -1.0858 -0.3488  0.0133
   92bbb     H1 2641   8.234   9.919   9.712 -0.3182  0.3041 -0.4971
   92bbb     H2 2642   8.335  10.036   9.800 -1.5563  0.4628 -0.3559
   92bbb     C2 2643   8.231   9.954  10.046  0.4261  0.8486  0.1197
   92bbb     H3 2644   8.126   9.985  10.055 -0.0465 -1.0135  1.6340
   92bbb     H4 2645   8.291  10.045  10.056  0.5134  0.6132  2.1201
   92bbb     C3 2646   8.330   9.769   9.899  0.2395 -0.1036  0.1570
   92bbb     H5 2647   8.307   9.725   9.801 -0.8529  0.1901  0.2630
   92bbb     H6 2648   8.301   9.695   9.974 -1.6057  0.5664  0.1835
   92bbb     C4 2649   8.476   9.808   9.905 -0.2074  0.2815  0.3191
   92bbb     H7 2650   8.513   9.820  10.008  2.9116  0.1854 -0.6872
   92bbb     H8 2651   8.500   9.897   9.846 -2.5931  0.5234 -0.4017
   92bbb     C5 2652   8.125  10.087   9.790  0.3423 -0.0448  0.3043
   92bbb     H9 2653   8.122  10.149   9.881 -1.0304 -0.2646  0.4305
   92bbb    H10 2654   8.036  10.024   9.782  0.0301  0.6661 -4.2680
   92bbb     C6 2655   8.264   9.868  10.175 -0.4405 -0.3314  0.0998
   92bbb    H11 2656   8.364   9.822  10.179 -0.9057 -1.2666  1.7799
   92bbb    H12 2657   8.191   9.788  10.188 -1.3113  0.4336  0.0774
   92bbb     C7 2658   8.555   9.682   9.860  0.2319 -0.6623  0.2150
   92bbb    H13 2659   8.522   9.647   9.761  0.4753  1.3881 -0.6486
   92bbb    H14 2660   8.549   9.605   9.937  2.8320  2.0761  3.4858
   92bbb     C8 2661   8.249   9.954  10.303 -0.3535 -0.5796 -0.4090
   92bbb    H15 2662   8.336  10.021  10.304 -0.4284 -0.3389 -3.0205
   92bbb    H16 2663   8.252   9.896  10.395  1.6711  0.9057  0.5346
   92bbb     C9 2664   8.138  10.180   9.668 -0.8665  0.4163  0.5018
   92bbb    H17 2665   8.136  10.127   9.572  0.1691 -1.8472  1.6790
   92bbb    H18 2666   8.240  10.220   9.676 -0.5663  0.0563 -1.1192
   92bbb     O1 2667   8.692   9.712   9.847  0.3019  0.1055  0.1972
   93bbb     N1 2668   9.139   7.447   9.034  0.2514 -0.0331 -0.3151
   93bbb     C1 2669   9.058   7.421   8.903 -0.5627 -0.3728 -0.3950
   93bbb     H1 2670   8.983   7.501   8.894  1.8630  2.1181  0.3663
   93bbb     H2 2671   8.997   7.330   8.911  1.3209 -1.6238  0.4694
   93bbb     C2 2672   9.213   7.325   9.086  0.2814  1.1736 -0.5198
   93bbb     H3 2673   9.243   7.256   9.006  1.2655 -1.1815  1.7322
   93bbb     H4 2674   9.149   7.256   9.142 -0.0520  1.4930 -0.5028
   93bbb     C3 2675   9.067   7.520   9.147 -0.5919 -0.2592 -0.6268
   93bbb     H5 2676   9.147   7.547   9.217 -1.6679  0.2788  0.4462
   93bbb     H6 2677   8.997   7.448   9.192 -1.0874  0.8967  0.5298
   93bbb     C4 2678   8.990   7.651   9.102 -0.3957 -0.4421  0.2674
   93bbb     H7 2679   8.886   7.641   9.071 -0.6540  0.5981  0.7583
   93bbb     H8 2680   9.048   7.694   9.020  0.1359 -1.4656  0.0854
   93bbb     C5 2681   9.145   7.431   8.773  0.0858  0.3270 -0.0211
   93bbb     H9 2682   9.208   7.341   8.765  0.1926  0.3678  0.3426
   93bbb    H10 2683   9.211   7.517   8.788 -1.3051  1.7972 -1.8917
   93bbb     C6 2684   9.340   7.361   9.169  0.1401  0.0207  0.3832
   93bbb    H11 2685   9.339   7.284   9.247  0.6092 -0.5684 -0.1811
   93bbb    H12 2686   9.332   7.452   9.229 -0.4521 -1.2591  2.3689
   93bbb     C7 2687   8.984   7.751   9.218 -0.6875 -0.6721  0.2714
   93bbb    H13 2688   9.084   7.785   9.248 -0.5285 -0.8505 -0.0485
   93bbb    H14 2689   8.950   7.700   9.309 -0.7736 -1.2916 -0.0978
   93bbb     C8 2690   9.465   7.356   9.081  0.1103  0.7679  0.3237
   93bbb    H15 2691   9.437   7.407   8.988 -1.4475  2.0674  1.4595
   93bbb    H16 2692   9.505   7.259   9.049  0.6461  1.5397 -1.4756
   93bbb     C9 2693   9.056   7.432   8.645  0.1125  0.4260 -0.3407
   93bbb    H17 2694   9.007   7.334   8.649  1.2271 -0.1062  1.0558
   93bbb    H18 2695   9.111   7.435   8.551  0.5166 -0.0962 -0.1252
   93bbb     O1 2696   8.922   7.879   9.191  0.0439  0.1048 -0.4493
   94bbb     N1 2697   8.458   8.030   9.997  0.8093 -0.3790  0.0587
   94bbb     C1 2698   8.527   8.030  10.128  0.2814 -0.0630  0.0667
   94bbb     H1 2699   8.632   8.021  10.099  0.6017  3.5520 -0.3694
   94bbb     H2 2700   8.489   7.958  10.202 -1.0928 -0.3485 -0.8787
   94bbb     C2 2701   8.404   7.901   9.949  0.1975  0.4672 -0.3705
   94bbb     H3 2702   8.327   7.905   9.872 -1.4301  1.0092  1.2197
   94bbb     H4 2703   8.350   7.854  10.032 -1.8023  1.8100 -0.8612
   94bbb     C3 2704   8.522   8.114   9.891  0.1947  0.3088  0.1909
   94bbb     H5 2705   8.622   8.076   9.866  0.1314  2.0637 -3.2344
   94bbb     H6 2706   8.534   8.219   9.921 -2.7414  0.5507  0.7606
   94bbb     C4 2707   8.444   8.112   9.761  0.2995  0.2825 -0.0398
   94bbb     H7 2708   8.351   8.171   9.758  0.2368  0.1870 -3.1480
   94bbb     H8 2709   8.414   8.015   9.720  0.7136  0.0124  0.2952
   94bbb     C5 2710   8.529   8.167  10.197 -0.6961  0.3203 -0.2560
   94bbb     H9 2711   8.580   8.240  10.134 -1.4318  1.8974  0.9121
   94bbb    H10 2712   8.594   8.144  10.283  0.3144 -3.1459 -1.7579
   94bbb     C6 2713   8.498   7.791   9.908 -0.7949  0.4777 -1.0579
   94bbb    H11 2714   8.563   7.770   9.993 -3.1949 -0.6008  0.6430
   94bbb    H12 2715   8.548   7.830   9.818 -1.6076 -1.0256 -2.2061
   94bbb     C7 2716   8.522   8.182   9.657  0.5274 -0.7897  0.1095
   94bbb    H13 2717   8.622   8.139   9.652  0.4384 -1.2188  1.5698
   94bbb    H14 2718   8.539   8.288   9.679 -2.0382 -0.4191  0.7288
   94bbb     C8 2719   8.441   7.659   9.869 -0.1219  0.3623  0.3823
   94bbb    H15 2720   8.372   7.631   9.950  0.5625  1.2570  1.2998
   94bbb    H16 2721   8.513   7.576   9.861  0.1595  0.6558 -0.1844
   94bbb     C9 2722   8.392   8.232  10.239  0.4156  0.1459  0.2848
   94bbb    H17 2723   8.346   8.156  10.303 -2.9713  1.2625 -0.6027
   94bbb    H18 2724   8.341   8.230  10.142  0.1518 -2.0522  0.4376
   94bbb     O1 2725   8.460   8.177   9.529  0.2573  0.2922 -0.3994
   95bbb     N1 2726  11.799  10.207   6.592  0.7780 -0.0281 -0.2558
   95bbb     C1 2727  11.854  10.333   6.650  0.7653 -0.4584  0.7438
   95bbb     H1 2728  11.830  10.343   6.756 -1.0766 -1.4413  0.4693
   95bbb     H2 2729  11.792  10.404   6.593  2.3048  1.2164  1.1007
   95bbb     C2 2730  11.647  10.206   6.579 -0.7087 -0.3627 -0.6429
   95bbb     H3 2731  11.608  10.278   6.506  1.0734 -0.0979 -1.3980
   95bbb     H4 2732  11.604  10.238   6.675  0.2453  0.9172 -0.6117
   95bbb     C3 2733  11.861  10.146   6.470 -0.2431  0.8512 -0.5821
   95bbb     H5 2734  11.814  10.047   6.472  1.9750 -0.2680  0.9590
   95bbb     H6 2735  11.970  10.141   6.482 -0.3056  0.3651 -0.1682
   95bbb     C4 2736  11.830  10.211   6.338  0.7607 -0.1012  0.6762
   95bbb     H7 2737  11.867  10.314   6.326  2.2868 -0.6895 -0.0643
   95bbb     H8 2738  11.723  10.214   6.318  0.9412 -1.6896 -0.7690
   95bbb     C5 2739  12.002  10.366   6.612  0.2537  0.0280 -0.0997
   95bbb     H9 2740  12.014  10.467   6.651 -0.0285 -1.1470  3.4302
   95bbb    H10 2741  12.016  10.372   6.504  0.3566  0.8636 -0.0409
   95bbb     C6 2742  11.578  10.076   6.542 -0.7309  0.5236 -0.1880
   95bbb    H11 2743  11.598  10.060   6.435 -0.6830  0.6994 -0.2047
   95bbb    H12 2744  11.472  10.106   6.550 -1.0767 -0.1893 -1.6638
   95bbb     C7 2745  11.887  10.126   6.219 -0.4209 -1.0502 -0.3513
   95bbb    H13 2746  11.995  10.131   6.233 -0.7401 -1.0274  2.7695
   95bbb    H14 2747  11.861  10.161   6.118  2.1429 -1.8367 -1.3753
   95bbb     C8 2748  11.622   9.956   6.623  0.7309  0.0047  0.2689
   95bbb    H15 2749  11.719   9.975   6.672  0.7768  2.1728 -0.5503
   95bbb    H16 2750  11.645   9.875   6.553  1.7448  0.0630  0.5164
   95bbb     C9 2751  12.107  10.268   6.676  0.2351 -0.3894 -0.1930
   95bbb    H17 2752  12.096  10.172   6.624 -0.3357 -0.3803 -0.0945
   95bbb    H18 2753  12.081  10.251   6.781  0.3327 -0.4515 -0.1794
   95bbb     O1 2754  11.833   9.988   6.226 -0.3637  0.0445 -0.1865
   96bbb     N1 2755  11.236   9.609   5.408 -0.0424 -0.0400 -0.2682
   96bbb     C1 2756  11.095   9.620   5.453 -0.6846 -0.5221 -0.3217
   96bbb     H1 2757  11.079   9.702   5.525  0.8018  0.5787 -1.1925
   96bbb     H2 2758  11.061   9.537   5.516 -0.6489 -0.0088  0.3865
   96bbb     C2 2759  11.285   9.710   5.314  0.9428  0.2550 -0.1005
   96bbb     H3 2760  11.220   9.707   5.225 -0.4874  0.6518  0.9041
   96bbb     H4 2761  11.387   9.682   5.284  1.8777  1.5635  1.6850
   96bbb     C3 2762  11.330   9.585   5.519 -0.0116 -0.5923  0.5672
   96bbb     H5 2763  11.300   9.651   5.602  1.0181  0.7033 -0.0491
   96bbb     H6 2764  11.434   9.606   5.493 -0.1164 -0.9534 -0.1547
   96bbb     C4 2765  11.323   9.432   5.551 -0.1799 -0.5615 -0.2687
   96bbb     H7 2766  11.328   9.367   5.463 -1.1341 -0.3733 -0.4808
   96bbb     H8 2767  11.233   9.405   5.608 -1.2703  3.7074  0.3703
   96bbb     C5 2768  10.989   9.644   5.341 -0.7748  0.0014 -0.2472
   96bbb     H9 2769  11.004   9.736   5.284 -0.8501  0.6854  0.7980
   96bbb    H10 2770  10.903   9.651   5.408  0.8997 -0.6618  2.1228
   96bbb     C6 2771  11.290   9.852   5.371  0.0315 -0.2978  0.0019
   96bbb    H11 2772  11.345   9.851   5.466  1.2694 -1.1938 -0.6983
   96bbb    H12 2773  11.188   9.875   5.407 -0.3295 -1.1177 -0.4800
   96bbb     C7 2774  11.450   9.395   5.635 -0.7935  0.1710 -0.1075
   96bbb    H13 2775  11.542   9.424   5.583  0.5790 -1.8407  1.0686
   96bbb    H14 2776  11.452   9.286   5.647 -0.3468  0.0085 -1.4569
   96bbb     C8 2777  11.350   9.952   5.273 -0.2027 -0.5658  0.8455
   96bbb    H15 2778  11.303   9.951   5.174  2.7013 -0.4333 -0.6535
   96bbb    H16 2779  11.452   9.922   5.246  0.2658  0.1407  1.7911
   96bbb     C9 2780  10.977   9.527   5.244  0.5294 -0.2921  0.0184
   96bbb    H17 2781  10.993   9.437   5.304 -0.2006  0.9915  2.2428
   96bbb    H18 2782  11.046   9.527   5.159 -1.9571 -1.0158 -2.1647
   96bbb     O1 2783  11.435   9.462   5.765 -0.4791  0.3233  0.5804
   97bbb     N1 2784  11.452   8.569   6.697  0.4580  0.5878  0.1685
   97bbb     C1 2785  11.533   8.470   6.625 -0.0304  0.1679  0.1409
   97bbb     H1 2786  11.552   8.495   6.520  1.1387 -1.0108  0.0521
   97bbb     H2 2787  11.466   8.385   6.610 -0.1368  0.0045  1.4526
   97bbb     C2 2788  11.387   8.526   6.827  0.4443 -0.8567  0.9324
   97bbb     H3 2789  11.461   8.475   6.891 -1.0337  0.2559  3.7324
   97bbb     H4 2790  11.319   8.445   6.796  0.8303 -0.9068  0.2123
   97bbb     C3 2791  11.350   8.622   6.606 -0.0131 -0.2593  0.6899
   97bbb     H5 2792  11.256   8.662   6.648 -0.9875 -2.5660  0.8524
   97bbb     H6 2793  11.316   8.531   6.555 -0.4652  0.3864 -0.1871
   97bbb     C4 2794  11.404   8.740   6.522 -0.2543 -0.1220  0.5401
   97bbb     H7 2795  11.502   8.712   6.480  0.3005  1.1313  0.9454
   97bbb     H8 2796  11.416   8.831   6.582  3.0601  0.3025 -0.5484
   97bbb     C5 2797  11.658   8.424   6.706 -0.1376  0.5759  0.1263
   97bbb     H9 2798  11.641   8.317   6.724  2.4235  0.0488 -0.1513
   97bbb    H10 2799  11.656   8.473   6.804  1.3248 -1.1617  1.0836
   97bbb     C6 2800  11.304   8.635   6.904  0.5732 -0.1182  0.4518
   97bbb    H11 2801  11.258   8.586   6.990 -0.0097 -1.7191 -0.7226
   97bbb    H12 2802  11.213   8.670   6.852  0.6689 -0.4845  0.0314
   97bbb     C7 2803  11.309   8.768   6.399 -0.0935 -0.1127 -0.3057
   97bbb    H13 2804  11.364   8.839   6.337 -1.6045  2.8891  1.5081
   97bbb    H14 2805  11.212   8.809   6.430 -0.4338 -1.4434  0.4611
   97bbb     C8 2806  11.396   8.753   6.933 -0.0085 -0.5559 -0.5868
   97bbb    H15 2807  11.443   8.786   6.839 -0.6950  0.4589 -0.5878
   97bbb    H16 2808  11.485   8.721   6.989 -0.6648 -0.8997  0.2779
   97bbb     C9 2809  11.798   8.442   6.646  0.1962  0.5780  0.7546
   97bbb    H17 2810  11.886   8.406   6.701  1.5031  0.3908 -1.3250
   97bbb    H18 2811  11.818   8.549   6.634 -0.1230  0.4586 -1.3202
   97bbb     O1 2812  11.300   8.647   6.327  0.5923  0.7957 -0.2546
   98bbb     N1 2813  10.338   8.382   5.473 -0.2891 -0.3912 -0.1342
   98bbb     C1 2814  10.320   8.358   5.329  0.1458 -0.6406  0.0379
   98bbb     H1 2815  10.391   8.284   5.289 -1.5656 -2.0221 -0.5392
   98bbb     H2 2816  10.341   8.454   5.279  0.2836 -0.7321 -0.0845
   98bbb     C2 2817  10.261   8.502   5.523  0.5060  0.0182  0.3736
   98bbb     H3 2818  10.168   8.504   5.466 -1.5739  0.1106  3.5066
   98bbb     H4 2819  10.318   8.593   5.502  1.1556 -0.0038  1.8545
   98bbb     C3 2820  10.473   8.353   5.520 -0.0059 -0.3864 -0.4319
   98bbb     H5 2821  10.499   8.256   5.478 -0.6731 -1.3271  1.2312
   98bbb     H6 2822  10.481   8.343   5.629 -1.1188  1.0177 -0.1877
   98bbb     C4 2823  10.575   8.454   5.466 -0.4933  0.0164 -0.4457
   98bbb     H7 2824  10.532   8.554   5.478 -1.7562 -0.6297  0.7348
   98bbb     H8 2825  10.583   8.440   5.358  0.1698  0.6765 -0.4866
   98bbb     C5 2826  10.180   8.313   5.285  0.3155 -0.1755 -0.0159
   98bbb     H9 2827  10.106   8.393   5.293  0.5983  0.1052 -0.1906
   98bbb    H10 2828  10.129   8.237   5.345 -1.8051 -0.4425 -1.9957
   98bbb     C6 2829  10.233   8.514   5.672 -0.1248 -0.3398  0.2972
   98bbb    H11 2830  10.329   8.528   5.723 -0.0211  2.7962 -0.5444
   98bbb    H12 2831  10.182   8.424   5.710  0.8610 -0.5886  1.0693
   98bbb     C7 2832  10.717   8.447   5.531  0.1135  0.1320  0.5900
   98bbb    H13 2833  10.797   8.488   5.469  2.3951 -2.6243  1.4666
   98bbb    H14 2834  10.737   8.341   5.554 -2.4970 -0.9145 -1.4485
   98bbb     C8 2835  10.136   8.632   5.693 -0.0987  0.2043  0.0243
   98bbb    H15 2836  10.084   8.615   5.788  0.9777 -1.1663  0.3985
   98bbb    H16 2837  10.055   8.628   5.620  1.8191  0.3041 -2.2479
   98bbb     C9 2838  10.165   8.273   5.131  0.4159  0.2945 -0.0164
   98bbb    H17 2839  10.186   8.360   5.067 -1.4879  0.9533  0.1969
   98bbb    H18 2840  10.058   8.251   5.122  0.3155  1.0214 -0.7876
   98bbb     O1 2841  10.701   8.516   5.658  0.1381  0.4899  0.1500
   99bbb     N1 2842   9.468  11.548   6.939  0.2811  0.1178 -0.2891
   99bbb     C1 2843   9.334  11.552   6.883 -0.1827  0.2685 -0.2974
   99bbb     H1 2844   9.249  11.537   6.952 -2.9139  3.2568 -2.6611
   99bbb     H2 2845   9.324  11.465   6.818  0.4147 -0.3596  0.4254
   99bbb     C2 2846   9.507  11.659   7.029 -0.1634 -0.4816  0.1106
   99bbb     H3 2847   9.478  11.752   6.977  0.6279  0.9627  2.1039
   99bbb     H4 2848   9.616  11.668   7.039 -0.3684  3.5888  0.4638
   99bbb     C3 2849   9.516  11.412   6.979 -0.4237  0.1615  0.3376
   99bbb     H5 2850   9.506  11.346   6.892 -0.3789  1.6760 -0.8394
   99bbb     H6 2851   9.459  11.366   7.061 -0.6174  1.0533  0.7166
   99bbb     C4 2852   9.660  11.396   7.031  0.0224  0.4692 -0.0922
   99bbb     H7 2853   9.671  11.451   7.126 -1.1426  1.1651 -0.3501
   99bbb     H8 2854   9.722  11.448   6.957 -0.4035  0.3443 -0.5314
   99bbb     C5 2855   9.298  11.686   6.812  0.0487  0.2093 -0.0069
   99bbb     H9 2856   9.388  11.708   6.753 -0.3640  3.0401  0.2517
   99bbb    H10 2857   9.284  11.774   6.876 -0.6866  0.5255 -0.5829
   99bbb     C6 2858   9.448  11.651   7.174 -0.3440  0.7938 -0.1377
   99bbb    H11 2859   9.493  11.563   7.221 -1.6286  0.6609  0.8915
   99bbb    H12 2860   9.339  11.642   7.174 -0.5441  2.7020 -0.1187
   99bbb     C7 2861   9.703  11.247   7.036 -0.9151  0.7831  0.8504
   99bbb    H13 2862   9.691  11.201   6.938 -0.4886 -2.4917  2.2163
   99bbb    H14 2863   9.644  11.188   7.107 -0.4987 -0.7843 -0.0545
   99bbb     C8 2864   9.472  11.784   7.261  0.5122  0.0991  0.0539
   99bbb    H15 2865   9.402  11.862   7.228 -0.2442 -0.4425  0.3309
   99bbb    H16 2866   9.569  11.830   7.240  1.1608 -1.7644 -1.2185
   99bbb     C9 2867   9.178  11.670   6.711 -0.0298  0.0990  0.3009
   99bbb    H17 2868   9.100  11.621   6.771  2.8416 -2.3819  2.3413
   99bbb    H18 2869   9.204  11.598   6.633 -1.0972 -1.7173  1.5191
   99bbb     O1 2870   9.845  11.234   7.060  0.0168  0.0782  0.0060
  100bbb     N1 2871  10.949  10.934   7.774  0.2629 -0.3563 -0.6389
  100bbb     C1 2872  11.015  10.830   7.687 -0.4982  0.1157  0.0312
  100bbb     H1 2873  10.948  10.809   7.603 -1.1131  1.2265  0.2186
  100bbb     H2 2874  11.021  10.742   7.752  3.5934  0.1255 -0.0609
  100bbb     C2 2875  11.022  10.965   7.900 -0.2902  0.3880  0.6857
  100bbb     H3 2876  11.123  10.997   7.873 -0.5843 -0.2813 -1.3729
  100bbb     H4 2877  11.037  10.873   7.958 -1.6474 -1.2405 -1.3661
  100bbb     C3 2878  10.798  10.942   7.782  0.3151 -0.4938  0.6418
  100bbb     H5 2879  10.769  11.038   7.826 -1.2703 -0.5162 -0.2749
  100bbb     H6 2880  10.758  10.862   7.846 -0.8269 -0.8056 -0.4145
  100bbb     C4 2881  10.730  10.935   7.641 -0.0121 -0.2430  0.6511
  100bbb     H7 2882  10.703  10.835   7.604  0.5538  0.6574 -2.4581
  100bbb     H8 2883  10.810  10.966   7.573  0.0933  0.0384  0.8984
  100bbb     C5 2884  11.157  10.865   7.640 -0.4621  0.0847 -0.6623
  100bbb     H9 2885  11.228  10.857   7.724  0.6358  0.9442 -1.4824
  100bbb    H10 2886  11.160  10.973   7.626  0.4748  0.3928  1.5273
  100bbb     C6 2887  10.964  11.082   7.977 -0.4822 -0.2258 -0.2649
  100bbb    H11 2888  10.864  11.063   8.018 -0.4537  0.0640 -0.0582
  100bbb    H12 2889  10.941  11.165   7.909 -0.1911  0.9932  1.0888
  100bbb     C7 2890  10.614  11.034   7.620  0.6483  0.4506  0.3126
  100bbb    H13 2891  10.654  11.135   7.634  1.7839 -0.1772  1.8326
  100bbb    H14 2892  10.532  11.002   7.685  0.5326 -0.7284 -0.3878
  100bbb     C8 2893  11.051  11.133   8.098  0.6821 -0.5377 -0.3135
  100bbb    H15 2894  11.064  11.051   8.170  0.8476 -0.8565 -0.7030
  100bbb    H16 2895  11.003  11.215   8.154  0.4650 -1.2751  0.6031
  100bbb     C9 2896  11.202  10.784   7.518 -0.2755  0.4564  0.8278
  100bbb    H17 2897  11.189  10.677   7.540 -2.5900  0.3787 -0.5654
  100bbb    H18 2898  11.310  10.791   7.507 -0.1285 -0.1618  1.7500
  100bbb     O1 2899  10.577  11.024   7.482  0.4851 -0.2132 -0.1508
  101bbb     N1 2900  11.240   9.769   8.306 -0.7683  0.0505 -0.0804
  101bbb     C1 2901  11.359   9.852   8.321  0.1288  0.3432 -0.6837
  101bbb     H1 2902  11.381   9.911   8.231 -2.2225  0.4733 -1.2303
  101bbb     H2 2903  11.448   9.789   8.333  1.1091  1.7775 -0.0780
  101bbb     C2 2904  11.267   9.675   8.192 -0.1211 -0.0084  0.5917
  101bbb     H3 2905  11.303   9.736   8.109 -0.0443  0.2004  0.7751
  101bbb     H4 2906  11.170   9.629   8.169 -1.2681 -0.3551  5.0968
  101bbb     C3 2907  11.112   9.840   8.301  0.0156  0.0876 -0.6408
  101bbb     H5 2908  11.094   9.889   8.398  1.7266  0.4586 -0.4609
  101bbb     H6 2909  11.036   9.762   8.290  0.7915 -1.0223  1.3869
  101bbb     C4 2910  11.103   9.945   8.191  0.3818 -0.1569 -0.0353
  101bbb     H7 2911  11.132   9.895   8.098 -1.8390 -1.1762 -0.2380
  101bbb     H8 2912  11.161  10.036   8.208 -2.8043  2.1937 -0.7640
  101bbb     C5 2913  11.355   9.945   8.445  0.0678  0.2247 -0.1292
  101bbb     H9 2914  11.268  10.012   8.441  0.1604  0.4247  0.9970
  101bbb    H10 2915  11.446  10.006   8.439  0.2551  0.1971  1.8123
  101bbb     C6 2916  11.362   9.559   8.231 -0.1461 -0.7320 -0.2006
  101bbb    H11 2917  11.306   9.497   8.302  0.6127 -1.8819 -0.5749
  101bbb    H12 2918  11.444   9.600   8.291  0.3358 -1.0185 -0.6439
  101bbb     C7 2919  10.952   9.981   8.192  0.0835 -0.7013  0.3582
  101bbb    H13 2920  10.924  10.030   8.287  0.9943 -1.0191  0.8006
  101bbb    H14 2921  10.891   9.892   8.176  1.5060 -1.9352  1.5493
  101bbb     C8 2922  11.405   9.461   8.113 -0.7927 -0.1516  0.4336
  101bbb    H15 2923  11.431   9.361   8.150 -2.1442 -0.4687  0.6039
  101bbb    H16 2924  11.495   9.508   8.072 -0.4007 -1.1147  0.1649
  101bbb     C9 2925  11.351   9.857   8.569  0.1713 -0.5126  0.0574
  101bbb    H17 2926  11.450   9.810   8.581 -0.1824 -0.8494  1.9682
  101bbb    H18 2927  11.272   9.785   8.543  0.0943 -0.2064 -0.5653
  101bbb     O1 2928  10.948  10.063   8.071  0.5176 -0.1490  0.4186
  102bbb     N1 2929  11.257  10.408   8.093  0.8475  0.4255 -0.1216
  102bbb     C1 2930  11.342  10.303   8.031 -0.0950  0.3830 -0.1830
  102bbb     H1 2931  11.386  10.244   8.112 -1.0048 -0.4832 -0.2953
  102bbb     H2 2932  11.424  10.351   7.977  0.7123 -0.4429  0.2781
  102bbb     C2 2933  11.190  10.494   7.991  0.1623 -0.1552  0.3915
  102bbb     H3 2934  11.139  10.575   8.044  0.4299  0.0057  0.4024
  102bbb     H4 2935  11.115  10.434   7.938  0.7952 -0.6998  0.1029
  102bbb     C3 2936  11.163  10.358   8.200  0.7988  0.0838  0.4896
  102bbb     H5 2937  11.215  10.290   8.268  0.3335  0.1053  0.8770
  102bbb     H6 2938  11.082  10.291   8.168  2.3333 -2.0112  0.8071
  102bbb     C4 2939  11.113  10.473   8.295 -0.0469 -0.2012 -1.0301
  102bbb     H7 2940  11.158  10.565   8.257  0.3823 -0.3783 -0.9593
  102bbb     H8 2941  11.148  10.471   8.399 -2.5459  0.1558 -0.1201
  102bbb     C5 2942  11.261  10.202   7.953  0.1016  0.0097 -0.1954
  102bbb     H9 2943  11.248  10.242   7.851 -0.6761  0.1880 -0.0309
  102bbb    H10 2944  11.168  10.176   8.005 -1.3221  2.0412 -1.5525
  102bbb     C6 2945  11.281  10.562   7.883  0.5202 -0.2735 -0.0398
  102bbb    H11 2946  11.206  10.609   7.818  1.6382 -1.2493 -2.1701
  102bbb    H12 2947  11.338  10.484   7.831  0.0993 -0.8242  0.3032
  102bbb     C7 2948  10.958  10.479   8.284 -0.4210  0.0596 -0.4636
  102bbb    H13 2949  10.915  10.537   8.367 -0.1495  0.6071 -0.7027
  102bbb    H14 2950  10.915  10.379   8.273  1.9911 -0.9719 -1.1560
  102bbb     C8 2951  11.370  10.670   7.937 -0.1676 -0.4953  0.4587
  102bbb    H15 2952  11.421  10.612   8.015  1.8476 -0.0944 -0.5192
  102bbb    H16 2953  11.296  10.740   7.979 -0.1267 -1.0356  1.4687
  102bbb     C9 2954  11.331  10.069   7.940 -0.5384  0.2934  0.4316
  102bbb    H17 2955  11.336  10.012   8.034  2.0035 -1.6344 -0.7610
  102bbb    H18 2956  11.439  10.089   7.937 -0.1793 -0.0293  4.7246
  102bbb     O1 2957  10.927  10.551   8.164 -0.7174 -0.0617 -0.4526
  103bbb     N1 2958   8.609   9.941   4.305  0.4812  0.1409  0.4020
  103bbb     C1 2959   8.559  10.082   4.328 -0.1545  0.1866 -0.2433
  103bbb     H1 2960   8.638  10.158   4.326  1.8652 -1.7302  1.2032
  103bbb     H2 2961   8.515  10.086   4.428 -2.5250  1.3584 -1.2593
  103bbb     C2 2962   8.693   9.924   4.186 -0.0108  0.1452  0.4627
  103bbb     H3 2963   8.767  10.005   4.186  2.3913 -1.9050  1.6739
  103bbb     H4 2964   8.640   9.930   4.090  1.3428  1.1683 -0.2575
  103bbb     C3 2965   8.503   9.842   4.325  0.1214 -0.1319  0.6265
  103bbb     H5 2966   8.535   9.740   4.299  0.1231 -0.2234  0.9782
  103bbb     H6 2967   8.414   9.861   4.263 -0.4159 -0.2166  1.3517
  103bbb     C4 2968   8.441   9.831   4.463 -0.3197  0.2290  0.0419
  103bbb     H7 2969   8.378   9.742   4.459 -0.5460  0.4311 -2.2380
  103bbb     H8 2970   8.378   9.918   4.485 -1.2753  0.0877 -1.9067
  103bbb     C5 2971   8.449  10.137   4.227  0.8048 -0.4964  0.5614
  103bbb     H9 2972   8.376  10.058   4.211  0.4943  0.2064 -1.9238
  103bbb    H10 2973   8.496  10.148   4.128  0.9204 -1.8921  0.4473
  103bbb     C6 2974   8.772   9.786   4.179 -0.3771  0.4368  0.2379
  103bbb    H11 2975   8.831   9.781   4.086  0.9793  0.4674  1.0713
  103bbb    H12 2976   8.701   9.702   4.173 -0.8489  0.8689 -0.3500
  103bbb     C7 2977   8.549   9.809   4.573 -0.8799  0.3316  0.8100
  103bbb    H13 2978   8.629   9.885   4.569 -3.5562  3.3370 -2.4786
  103bbb    H14 2979   8.604   9.715   4.556 -0.1658  0.5293  1.8974
  103bbb     C8 2980   8.863   9.768   4.305 -0.3913 -0.2647  0.1925
  103bbb    H15 2981   8.806   9.753   4.397  1.3795  0.8152  1.5453
  103bbb    H16 2982   8.921   9.861   4.312 -1.3148  0.2772  0.7392
  103bbb     C9 2983   8.383  10.267   4.278 -0.9408 -0.2303  0.0681
  103bbb    H17 2984   8.302  10.247   4.350 -0.4468 -0.0641  0.6845
  103bbb    H18 2985   8.335  10.319   4.195  1.4739  0.5932 -0.9089
  103bbb     O1 2986   8.494   9.814   4.702  0.6078 -0.5382 -0.0133
  104bbb     N1 2987   7.783   9.297   5.530 -0.8780 -0.5577 -0.4779
  104bbb     C1 2988   7.668   9.391   5.530  0.3852  0.1877 -0.0491
  104bbb     H1 2989   7.676   9.460   5.615  1.1505 -0.3053  0.2895
  104bbb     H2 2990   7.580   9.328   5.545  1.1251 -0.9353 -0.2658
  104bbb     C2 2991   7.771   9.165   5.463  0.3364  0.1757 -0.0425
  104bbb     H3 2992   7.854   9.106   5.502  0.9610 -0.3536 -2.0830
  104bbb     H4 2993   7.785   9.181   5.355  1.2781 -0.0637  0.0352
  104bbb     C3 2994   7.902   9.379   5.511  0.7112  0.0180  0.6222
  104bbb     H5 2995   7.911   9.455   5.590  0.3353 -0.0728  0.7557
  104bbb     H6 2996   7.895   9.425   5.412  0.0420 -1.8206 -0.2266
  104bbb     C4 2997   8.033   9.297   5.522 -0.5955  0.3894  0.0090
  104bbb     H7 2998   8.055   9.246   5.427 -0.4629  0.4256  0.0205
  104bbb     H8 2999   8.024   9.218   5.597  2.5467 -0.0691  0.0426
  104bbb     C5 3000   7.633   9.480   5.411  0.5988  0.7177 -0.6689
  104bbb     H9 3001   7.725   9.517   5.365  1.0359 -0.2790 -0.6388
  104bbb    H10 3002   7.573   9.559   5.457 -0.2004 -0.1997 -0.0874
  104bbb     C6 3003   7.637   9.087   5.489 -0.3649  0.4746  0.4094
  104bbb    H11 3004   7.640   8.991   5.437 -1.9016  0.6462 -0.0602
  104bbb    H12 3005   7.553   9.138   5.441 -0.5870  0.7059  1.0344
  104bbb     C7 3006   8.153   9.378   5.569 -0.3105 -0.1958  0.4864
  104bbb    H13 3007   8.240   9.319   5.598 -0.3893 -0.6282 -0.1656
  104bbb    H14 3008   8.130   9.432   5.663 -1.0754 -0.0536  0.2303
  104bbb     C8 3009   7.601   9.050   5.635  0.3638 -0.0823 -0.0471
  104bbb    H15 3010   7.591   9.136   5.703 -0.0409 -0.7957  0.8208
  104bbb    H16 3011   7.687   8.995   5.676  1.8141  2.0304 -0.1226
  104bbb     C9 3012   7.545   9.421   5.298  0.2436 -0.0857  0.6585
  104bbb    H17 3013   7.555   9.487   5.211 -1.5190 -0.2300  0.3198
  104bbb    H18 3014   7.441   9.414   5.332  0.0899 -2.5362 -0.1757
  104bbb     O1 3015   8.190   9.480   5.480 -0.0980  0.2743 -0.1248
  105bbb     N1 3016   9.116  10.991   4.753  0.8267  0.2430  0.4360
  105bbb     C1 3017   9.046  10.890   4.838 -0.3415 -0.0115  0.4047
  105bbb     H1 3018   9.013  10.812   4.768  1.3030  0.3187 -0.7787
  105bbb     H2 3019   8.958  10.927   4.892 -0.6999 -0.6520  0.2729
  105bbb     C2 3020   9.018  11.067   4.672  0.0884 -0.3906  0.0801
  105bbb     H3 3021   8.954  10.993   4.623  0.9946 -1.9617  1.1716
  105bbb     H4 3022   9.060  11.117   4.583  0.8294  2.0641  1.6878
  105bbb     C3 3023   9.223  10.928   4.666 -0.4672 -0.0311 -0.2292
  105bbb     H5 3024   9.182  10.875   4.579  0.1277  0.0745 -0.5762
  105bbb     H6 3025   9.264  10.853   4.735 -3.5091 -0.5171  1.2186
  105bbb     C4 3026   9.326  11.029   4.614  0.2853  0.6948 -0.9540
  105bbb     H7 3027   9.286  11.129   4.595  1.2263  1.5309  1.1927
  105bbb     H8 3028   9.343  10.994   4.512 -1.4976  0.8833 -1.3439
  105bbb     C5 3029   9.137  10.833   4.951 -0.4911  0.4802 -0.6499
  105bbb     H9 3030   9.211  10.906   4.986 -0.7190  0.2065  0.4449
  105bbb    H10 3031   9.196  10.753   4.903 -1.1554  1.0809 -2.5645
  105bbb     C6 3032   8.928  11.168   4.745  0.5082  0.4129 -0.7523
  105bbb    H11 3033   8.918  11.132   4.849 -2.0566 -0.7401 -1.3231
  105bbb    H12 3034   8.822  11.168   4.717 -0.5214  1.6707  2.6155
  105bbb     C7 3035   9.466  11.024   4.683  0.5697  0.6166  0.1489
  105bbb    H13 3036   9.458  11.039   4.792  1.9480  1.8298  0.1246
  105bbb    H14 3037   9.533  11.103   4.647 -0.2797  2.6907  2.7822
  105bbb     C8 3038   8.998  11.309   4.734 -0.1644  0.7683  0.0119
  105bbb    H15 3039   8.976  11.351   4.636 -0.6255 -1.4915 -0.9127
  105bbb    H16 3040   9.108  11.307   4.740  0.0031 -0.3040 -2.4416
  105bbb     C9 3041   9.054  10.772   5.063 -0.1988 -0.4688  0.0508
  105bbb    H17 3042   9.000  10.857   5.108 -1.2111 -1.7915  1.4610
  105bbb    H18 3043   9.119  10.725   5.137 -1.6374 -0.0280  1.6649
  105bbb     O1 3044   9.520  10.894   4.663 -0.2078  0.6588 -0.9527
  106bbb     N1 3045   9.986   9.596   4.873 -0.1502 -0.3369 -0.3221
  106bbb     C1 3046  10.058   9.505   4.780  0.3586  0.7160 -0.3828
  106bbb     H1 3047  10.090   9.416   4.834 -1.1949 -0.1163 -0.7740
  106bbb     H2 3048  10.153   9.554   4.753  1.4340 -1.0458  0.0784
  106bbb     C2 3049  10.016   9.549   5.013 -0.5291 -0.4384 -0.3905
  106bbb     H3 3050   9.987   9.444   5.023 -0.5714 -0.3911  0.0145
  106bbb     H4 3051   9.956   9.603   5.088 -0.0025 -1.3387  0.7210
  106bbb     C3 3052  10.009   9.741   4.837  0.2481  0.0727  0.3791
  106bbb     H5 3053   9.945   9.758   4.750 -1.0428  0.6164  1.3883
  106bbb     H6 3054  10.113   9.772   4.821  0.8962 -2.4833 -0.7864
  106bbb     C4 3055   9.967   9.838   4.946  0.3170 -0.4659  0.0967
  106bbb     H7 3056  10.031   9.821   5.034 -0.2928  1.2155  0.8958
  106bbb     H8 3057   9.861   9.820   4.972  0.5063  0.2101  1.3819
  106bbb     C5 3058   9.979   9.445   4.657  0.5396 -0.0849  0.2881
  106bbb     H9 3059   9.954   9.532   4.596  0.6188 -0.0365  0.3258
  106bbb    H10 3060   9.881   9.404   4.685  1.1540 -1.5138  0.4609
  106bbb     C6 3061  10.170   9.559   5.049 -0.1868 -1.4017  0.2617
  106bbb    H11 3062  10.196   9.661   5.020  0.1827 -1.6943 -0.4503
  106bbb    H12 3063  10.232   9.495   4.986 -1.7186 -0.7382 -2.0289
  106bbb     C7 3064   9.985   9.982   4.897 -0.0693  0.2800  0.5048
  106bbb    H13 3065   9.923  10.005   4.809 -0.2444  0.4174  0.6624
  106bbb    H14 3066  10.088   9.997   4.861 -0.2913  0.8654  0.0943
  106bbb     C8 3067  10.202   9.541   5.198  0.7154 -1.0674 -0.9877
  106bbb    H15 3068  10.143   9.613   5.256 -0.2136 -2.9554  0.5448
  106bbb    H16 3069  10.306   9.561   5.223  0.2338  0.2892  0.0762
  106bbb     C9 3070  10.063   9.353   4.565  0.5127 -0.1902  0.4288
  106bbb    H17 3071  10.117   9.416   4.493 -0.4039 -0.3403 -0.4104
  106bbb    H18 3072  10.004   9.295   4.493  3.0492 -0.9120 -1.1876
  106bbb     O1 3073   9.962  10.078   5.008  0.1302 -0.0992  0.1738
  107bbb     N1 3074   8.080  11.706   6.616 -0.1255 -0.1551  0.2039
  107bbb     C1 3075   7.965  11.672   6.532  0.4841 -0.4266  0.1739
  107bbb     H1 3076   7.977  11.574   6.484  1.8963 -1.1026  1.7892
  107bbb     H2 3077   7.974  11.745   6.451  0.0702 -1.3745 -0.7572
  107bbb     C2 3078   8.201  11.751   6.539  0.0825  0.1625 -0.4715
  107bbb     H3 3079   8.166  11.820   6.461 -1.2056  0.7703  0.5952
  107bbb     H4 3080   8.246  11.666   6.486 -0.8096 -0.3846 -0.3785
  107bbb     C3 3081   8.107  11.594   6.706 -0.2761 -0.7742 -0.2162
  107bbb     H5 3082   8.018  11.571   6.766 -1.4330 -0.6149 -1.8033
  107bbb     H6 3083   8.180  11.628   6.781 -0.1324  0.5705 -0.9354
  107bbb     C4 3084   8.158  11.460   6.655  0.0429  0.0341 -0.1867
  107bbb     H7 3085   8.245  11.470   6.588  1.2960 -1.4279  1.1348
  107bbb     H8 3086   8.089  11.401   6.594  0.2136  1.3363 -1.7092
  107bbb     C5 3087   7.817  11.679   6.591  0.4157  0.5737  0.0477
  107bbb     H9 3088   7.811  11.754   6.671 -2.0153 -1.7853  2.2364
  107bbb    H10 3089   7.797  11.588   6.647  2.6503 -0.8268 -1.2560
  107bbb     C6 3090   8.312  11.818   6.626  0.5629 -0.3417  0.2369
  107bbb    H11 3091   8.351  11.758   6.708 -0.1910 -3.5636 -1.6036
  107bbb    H12 3092   8.265  11.909   6.665  1.8771  0.2735  0.4425
  107bbb     C7 3093   8.207  11.370   6.770  0.1031  0.2868 -0.1810
  107bbb    H13 3094   8.119  11.357   6.833  1.6699  0.4547  2.1773
  107bbb    H14 3095   8.287  11.403   6.838 -0.0390  0.8384 -0.2779
  107bbb     C8 3096   8.444  11.844   6.548 -0.2597 -0.1762  0.5704
  107bbb    H15 3097   8.433  11.893   6.450  1.0768  0.2057  0.5889
  107bbb    H16 3098   8.489  11.748   6.520 -1.9666 -0.5676 -1.0915
  107bbb     C9 3099   7.705  11.682   6.485  0.3121 -0.3026 -0.4340
  107bbb    H17 3100   7.692  11.587   6.433 -0.7930 -0.6683  0.4608
  107bbb    H18 3101   7.737  11.759   6.413 -0.0962  1.4016  1.1144
  107bbb     O1 3102   8.255  11.245   6.716  0.0970  0.8082 -0.1675
  108bbb     N1 3103   7.345  10.870   6.944  0.5544  0.0394  0.0793
  108bbb     C1 3104   7.378  10.971   6.830 -0.0087  0.1882 -0.0741
  108bbb     H1 3105   7.369  10.915   6.736  0.7793  1.1853 -0.7635
  108bbb     H2 3106   7.481  11.004   6.849 -0.3413  1.1761  0.0448
  108bbb     C2 3107   7.202  10.822   6.941 -0.0248  0.8887 -0.4811
  108bbb     H3 3108   7.193  10.750   6.860  2.0152  0.0125  0.0069
  108bbb     H4 3109   7.119  10.893   6.932 -2.2869 -1.5247  0.3109
  108bbb     C3 3110   7.443  10.764   6.968  0.5587  0.0129  0.2504
  108bbb     H5 3111   7.472  10.727   6.869  1.1372 -0.6340  0.6523
  108bbb     H6 3112   7.414  10.681   7.033  1.2529  0.8533  1.6741
  108bbb     C4 3113   7.568  10.814   7.037  0.9102  0.1728 -0.3238
  108bbb     H7 3114   7.571  10.785   7.142  1.3174 -1.7065 -0.8110
  108bbb     H8 3115   7.566  10.923   7.048 -2.5539  0.3020 -1.0189
  108bbb     C5 3116   7.299  11.100   6.807  0.2350 -0.4420 -0.5731
  108bbb     H9 3117   7.207  11.070   6.755  0.2245  1.6355 -1.8339
  108bbb    H10 3118   7.347  11.162   6.730 -2.3066 -0.9517 -2.7245
  108bbb     C6 3119   7.156  10.735   7.060  0.6523 -0.4209 -0.4622
  108bbb    H11 3120   7.203  10.636   7.061  0.4976 -0.4908  0.1049
  108bbb    H12 3121   7.052  10.706   7.041  0.6328 -1.6044  1.2507
  108bbb     C7 3122   7.696  10.765   6.962  0.3062 -0.8388  0.0195
  108bbb    H13 3123   7.684  10.791   6.856  2.8749  0.6120  0.0040
  108bbb    H14 3124   7.706  10.657   6.972 -1.1282 -0.8596  1.6009
  108bbb     C8 3125   7.184  10.809   7.192 -1.0023 -0.5644  0.3209
  108bbb    H15 3126   7.132  10.906   7.188 -1.0564 -0.6260 -0.5894
  108bbb    H16 3127   7.288  10.839   7.212 -0.5766  0.5376 -2.9329
  108bbb     C9 3128   7.276  11.184   6.933  0.0414 -0.7261  0.0972
  108bbb    H17 3129   7.381  11.200   6.961  0.4608  0.7823 -2.0635
  108bbb    H18 3130   7.216  11.127   7.005 -0.8979  1.4092  1.1053
  108bbb     O1 3131   7.816  10.829   6.998 -0.3971  0.5649  0.0263
  109bbb     N1 3132  10.197  10.683   6.329  0.4642 -0.0551  0.4844
  109bbb     C1 3133  10.335  10.682   6.376 -0.6423 -0.5609 -0.3825
  109bbb     H1 3134  10.357  10.783   6.415  2.3920 -0.7127 -1.3953
  109bbb     H2 3135  10.403  10.671   6.290 -0.2723 -2.0020  0.0805
  109bbb     C2 3136  10.149  10.548   6.278 -0.0211  0.1858  0.4680
  109bbb     H3 3137  10.043  10.555   6.251  0.4075 -1.9715 -2.2714
  109bbb     H4 3138  10.172  10.472   6.354  1.4800  0.6521  0.5210
  109bbb     C3 3139  10.186  10.797   6.230  0.0079  0.3233 -0.0080
  109bbb     H5 3140  10.260  10.781   6.150  1.3884  2.4069  0.7460
  109bbb     H6 3141  10.235  10.883   6.278  2.7483 -0.0433 -1.9052
  109bbb     C4 3142  10.040  10.830   6.200  0.4276  0.1987 -0.2164
  109bbb     H7 3143   9.991  10.756   6.136 -0.3040  1.3996 -1.0863
  109bbb     H8 3144  10.040  10.924   6.143 -0.2428  1.7202  2.1433
  109bbb     C5 3145  10.376  10.585   6.484 -0.6261  0.5529  0.0866
  109bbb     H9 3146  10.384  10.486   6.436 -0.8816  0.6726 -0.2079
  109bbb    H10 3147  10.293  10.581   6.556 -0.5891 -0.7829  0.0892
  109bbb     C6 3148  10.228  10.508   6.141  0.3327  0.0624 -0.3370
  109bbb    H11 3149  10.336  10.515   6.163 -0.2898  0.1787  3.4912
  109bbb    H12 3150  10.192  10.580   6.068 -1.6021  0.8248  1.2676
  109bbb     C7 3151   9.947  10.837   6.329 -0.0340 -0.7355 -0.2786
  109bbb    H13 3152   9.993  10.915   6.391  1.8996 -0.8241 -1.5047
  109bbb    H14 3153   9.949  10.741   6.382  2.1636 -0.2120  0.6952
  109bbb     C8 3154  10.192  10.366   6.096  0.3151 -0.3307 -0.3638
  109bbb    H15 3155  10.082  10.372   6.088  0.4295  0.8073 -1.5453
  109bbb    H16 3156  10.214  10.294   6.175  2.0517  0.8672  0.2822
  109bbb     C9 3157  10.503  10.623   6.560 -0.5663 -0.4986 -0.7489
  109bbb    H17 3158  10.537  10.551   6.636  0.1469  1.0566  0.4712
  109bbb    H18 3159  10.487  10.712   6.622 -0.5168 -1.3824  0.5701
  109bbb     O1 3160   9.805  10.853   6.297 -0.5050 -0.1301 -0.1833
  110bbb     N1 3161   9.618  11.333   5.313  0.4054  0.4259 -0.0085
  110bbb     C1 3162   9.643  11.413   5.197  0.1990 -0.2592  0.1238
  110bbb     H1 3163   9.733  11.471   5.217  0.3463 -0.5149  0.2037
  110bbb     H2 3164   9.554  11.474   5.178 -1.0591 -2.1261 -0.2696
  110bbb     C2 3165   9.525  11.217   5.285 -0.2477  0.3686 -0.2498
  110bbb     H3 3166   9.495  11.163   5.376 -1.7329  0.5301 -0.6257
  110bbb     H4 3167   9.579  11.144   5.223  0.9152  0.1048  1.0118
  110bbb     C3 3168   9.582  11.415   5.430  0.4594  0.6350 -0.2170
  110bbb     H5 3169   9.474  11.433   5.429  0.5061  0.9821 -2.2930
  110bbb     H6 3170   9.630  11.513   5.423 -0.4544  1.0142 -1.4488
  110bbb     C4 3171   9.619  11.333   5.558 -0.7292  1.2269 -0.4691
  110bbb     H7 3172   9.724  11.299   5.562 -0.5436  1.8808  1.2158
  110bbb     H8 3173   9.569  11.236   5.558 -1.1052  1.4112  0.3674
  110bbb     C5 3174   9.671  11.336   5.063  0.0576  0.1438  0.6883
  110bbb     H9 3175   9.587  11.276   5.026  1.2087  0.4936 -2.9238
  110bbb    H10 3176   9.747  11.258   5.079  1.6190  1.6149  0.6831
  110bbb     C6 3177   9.386  11.243   5.223  0.1442 -0.1518 -0.0869
  110bbb    H11 3178   9.385  11.308   5.135  0.5859 -3.8549 -3.1027
  110bbb    H12 3179   9.327  11.285   5.305  1.5793 -1.0399  1.4749
  110bbb     C7 3180   9.588  11.413   5.688 -0.2430 -0.0788 -0.3267
  110bbb    H13 3181   9.480  11.433   5.684 -0.7797 -1.5391  3.1183
  110bbb    H14 3182   9.644  11.508   5.685 -0.2183 -0.0472  0.8596
  110bbb     C8 3183   9.324  11.104   5.184  0.8910 -0.1429 -0.2227
  110bbb    H15 3184   9.321  11.030   5.265 -0.2403 -1.3060 -1.2769
  110bbb    H16 3185   9.379  11.065   5.097  2.2904  2.4594 -0.6249
  110bbb     C9 3186   9.715  11.432   4.943 -0.6661 -0.3049 -0.1512
  110bbb    H17 3187   9.736  11.369   4.857  0.6301 -1.3892  0.9242
  110bbb    H18 3188   9.806  11.488   4.969 -1.6148  1.5932 -0.6779
  110bbb     O1 3189   9.617  11.335   5.804  0.0704 -0.1409  0.3888
  111bbb     N1 3190   8.312   7.416   6.493 -0.6490  0.2825 -0.6485
  111bbb     C1 3191   8.281   7.272   6.475  0.5570 -0.6301  0.6907
  111bbb     H1 3192   8.206   7.239   6.548 -1.8217 -0.1431 -1.3771
  111bbb     H2 3193   8.370   7.210   6.492  0.7683 -1.3089 -2.3350
  111bbb     C2 3194   8.210   7.519   6.483 -0.4445 -0.1154 -0.5557
  111bbb     H3 3195   8.169   7.517   6.381 -1.7444  0.4780 -0.0691
  111bbb     H4 3196   8.255   7.619   6.490 -0.5154 -0.1561  0.6582
  111bbb     C3 3197   8.433   7.467   6.431 -0.5158 -0.2175  0.0874
  111bbb     H5 3198   8.441   7.568   6.472  0.6287  0.9342 -2.7282
  111bbb     H6 3199   8.412   7.480   6.325 -0.2248  1.6420  0.2310
  111bbb     C4 3200   8.563   7.391   6.458  0.3918  0.6665  0.7486
  111bbb     H7 3201   8.643   7.446   6.406 -0.4980 -1.1900 -2.8646
  111bbb     H8 3202   8.552   7.294   6.408 -0.2103  0.3069  1.5467
  111bbb     C5 3203   8.223   7.236   6.332 -0.6609 -1.3062 -0.3227
  111bbb     H9 3204   8.290   7.280   6.258  0.1996  0.9252  1.6804
  111bbb    H10 3205   8.126   7.286   6.319 -0.0004  0.1997  0.3370
  111bbb     C6 3206   8.095   7.499   6.584 -0.5316  0.4606 -0.3161
  111bbb    H11 3207   8.144   7.472   6.679  1.4930 -0.9829 -1.6766
  111bbb    H12 3208   8.048   7.405   6.553  2.7792 -1.3724 -0.2768
  111bbb     C7 3209   8.600   7.377   6.607  0.5498 -0.4553  0.5638
  111bbb    H13 3210   8.674   7.296   6.611  0.9796 -0.0395  1.4040
  111bbb    H14 3211   8.508   7.353   6.661 -0.1407 -2.0977 -1.2237
  111bbb     C8 3212   8.000   7.618   6.606 -0.3590  0.0207 -0.3450
  111bbb    H15 3213   7.943   7.640   6.515 -1.1102 -1.9942 -0.4071
  111bbb    H16 3214   8.063   7.706   6.625 -0.0272 -0.3199  0.1577
  111bbb     C9 3215   8.204   7.083   6.312  0.3459  0.1227  0.6016
  111bbb    H17 3216   8.185   7.031   6.407  0.8674 -2.2028 -0.4961
  111bbb    H18 3217   8.293   7.046   6.260 -0.9640 -2.8012  0.2755
  111bbb     O1 3218   8.654   7.503   6.640 -0.7172 -0.0477 -0.1653
  112bbb     N1 3219   8.106   8.507   6.887 -0.2151  0.6373  0.7873
  112bbb     C1 3220   8.008   8.413   6.952  0.1372  0.5201 -0.0324
  112bbb     H1 3221   8.033   8.308   6.931 -0.4970  0.8058 -2.5069
  112bbb     H2 3222   7.914   8.423   6.897  0.8943  1.4787 -1.2249
  112bbb     C2 3223   8.068   8.648   6.887 -0.6444  0.5492 -0.5227
  112bbb     H3 3224   8.149   8.709   6.845 -0.5731 -0.3041 -1.6795
  112bbb     H4 3225   8.071   8.687   6.990  0.6322 -2.2822  0.6055
  112bbb     C3 3226   8.247   8.489   6.921 -0.0362 -0.0708  0.4971
  112bbb     H5 3227   8.267   8.500   7.028 -1.7069  2.3633  0.6452
  112bbb     H6 3228   8.308   8.570   6.877 -1.7209  1.6392  1.1871
  112bbb     C4 3229   8.296   8.350   6.866  0.5195 -0.7215 -0.5493
  112bbb     H7 3230   8.247   8.345   6.769 -2.4780  2.4116  0.5946
  112bbb     H8 3231   8.257   8.278   6.939 -1.2980  0.0537 -0.7057
  112bbb     C5 3232   7.991   8.433   7.102  0.3705 -0.4875  0.9238
  112bbb     H9 3233   7.958   8.537   7.113  1.5457  0.2453 -1.5447
  112bbb    H10 3234   8.086   8.412   7.153  0.2084 -2.1421  0.5934
  112bbb     C6 3235   7.929   8.684   6.823 -0.2008 -0.2501 -0.2057
  112bbb    H11 3236   7.910   8.607   6.747  0.6150  0.6362 -1.3335
  112bbb    H12 3237   7.936   8.775   6.763  0.9990 -0.9961 -1.2328
  112bbb     C7 3238   8.444   8.352   6.857 -0.4682 -0.5589 -0.0644
  112bbb    H13 3239   8.502   8.411   6.929  0.9884  1.1641 -2.5241
  112bbb    H14 3240   8.471   8.397   6.761  1.9993  0.9792  1.2352
  112bbb     C8 3241   7.809   8.704   6.919  0.2014  0.7370  0.6737
  112bbb    H15 3242   7.778   8.611   6.966 -2.7743  0.3705 -1.6735
  112bbb    H16 3243   7.718   8.721   6.860 -1.8052 -4.2047  1.8701
  112bbb     C9 3244   7.897   8.330   7.157  0.5043 -0.6768 -0.2336
  112bbb    H17 3245   7.886   8.358   7.263  2.1275  1.3342 -0.5264
  112bbb    H18 3246   7.942   8.231   7.165 -1.8070 -1.8108 -0.3330
  112bbb     O1 3247   8.483   8.214   6.856  0.2520 -0.1573  0.1193
  113bbb     N1 3248  10.030   8.322   7.991  0.3541 -0.0680 -0.7863
  113bbb     C1 3249  10.108   8.205   7.980 -0.3328  0.1627 -0.2034
  113bbb     H1 3250  10.200   8.209   7.921  0.6535 -2.2179  1.0383
  113bbb     H2 3251  10.067   8.117   7.928 -0.2955  0.1454 -0.2039
  113bbb     C2 3252  10.058   8.417   7.881 -0.1759 -0.7945 -0.0855
  113bbb     H3 3253   9.973   8.485   7.871  0.3353 -0.1436 -0.0772
  113bbb     H4 3254  10.062   8.361   7.786  0.2028  0.6815 -0.9667
  113bbb     C3 3255   9.883   8.301   8.025 -0.4483  0.5121 -0.8660
  113bbb     H5 3256   9.875   8.221   8.100  0.0123  1.0363 -0.2466
  113bbb     H6 3257   9.830   8.255   7.940  0.8101 -0.6437 -1.0621
  113bbb     C4 3258   9.805   8.424   8.074 -0.0504 -0.0178  0.3377
  113bbb     H7 3259   9.781   8.497   7.996 -0.6838 -0.2030  0.3517
  113bbb     H8 3260   9.858   8.478   8.154  1.4188 -0.0712 -0.5588
  113bbb     C5 3261  10.147   8.177   8.129 -1.1538 -0.1689  0.3539
  113bbb     H9 3262  10.065   8.167   8.201 -1.4697  1.4206  0.2478
  113bbb    H10 3263  10.205   8.261   8.170 -0.1986 -0.7431  0.2059
  113bbb     C6 3264  10.192   8.496   7.896 -0.0809 -0.0458  0.7971
  113bbb    H11 3265  10.279   8.432   7.914  1.6258  2.0644  0.5041
  113bbb    H12 3266  10.193   8.562   7.984  2.5622 -0.2935  1.0454
  113bbb     C7 3267   9.664   8.386   8.130 -0.5085  0.0817 -0.2865
  113bbb    H13 3268   9.612   8.480   8.156  0.5684  0.4324  0.6858
  113bbb    H14 3269   9.683   8.323   8.217 -1.5440 -0.0232 -0.1265
  113bbb     C8 3270  10.222   8.594   7.779 -1.1188 -0.2432  0.3320
  113bbb    H15 3271  10.146   8.672   7.784  1.5745  2.4854  4.1075
  113bbb    H16 3272  10.207   8.545   7.682 -3.9337 -0.6028  0.8559
  113bbb     C9 3273  10.241   8.049   8.148  0.3497 -0.2567 -0.1707
  113bbb    H17 3274  10.332   8.064   8.089  0.9484  1.4877  1.1103
  113bbb    H18 3275  10.187   7.957   8.122  0.5968 -0.5197  0.2318
  113bbb     O1 3276   9.592   8.318   8.022  0.5685  0.3944 -0.1340
  114bbb     N1 3277   8.944   8.345   7.886 -0.0838  0.0071 -0.8035
  114bbb     C1 3278   8.855   8.344   8.004 -0.3406  0.4453  0.2746
  114bbb     H1 3279   8.880   8.424   8.075  1.0163  0.6201 -0.3748
  114bbb     H2 3280   8.858   8.241   8.041 -1.0270  0.5691  0.6916
  114bbb     C2 3281   9.019   8.471   7.880  0.1687 -0.0200 -0.0922
  114bbb     H3 3282   8.958   8.559   7.903  1.3504  1.1516 -1.1610
  114bbb     H4 3283   9.055   8.477   7.776 -2.7784 -1.1809 -1.2722
  114bbb     C3 3284   9.023   8.223   7.856  0.5303  0.3532  0.4228
  114bbb     H5 3285   9.064   8.190   7.953 -0.8648  0.0490  0.9299
  114bbb     H6 3286   9.102   8.246   7.784 -1.4952  2.7241 -1.2194
  114bbb     C4 3287   8.936   8.115   7.793  0.5255  0.1689 -0.2475
  114bbb     H7 3288   8.891   8.161   7.704  1.9367 -0.4401 -1.3279
  114bbb     H8 3289   8.853   8.083   7.858 -0.3226 -1.9392 -2.1881
  114bbb     C5 3290   8.708   8.365   7.953  0.5385 -0.3311 -0.2354
  114bbb     H9 3291   8.680   8.280   7.889  1.4688 -1.5032  0.8648
  114bbb    H10 3292   8.716   8.466   7.911  2.5946  0.5692  2.1134
  114bbb     C6 3293   9.140   8.485   7.973  0.6632  0.5182  0.1798
  114bbb    H11 3294   9.222   8.425   7.932 -0.8195 -0.2052 -1.8689
  114bbb    H12 3295   9.127   8.438   8.072 -0.9965 -1.2221 -0.8133
  114bbb     C7 3296   9.021   7.983   7.757 -0.0880 -0.7267 -0.5675
  114bbb    H13 3297   8.959   7.900   7.723  0.7422 -2.1633  1.2502
  114bbb    H14 3298   9.073   7.948   7.846 -1.7217 -2.1290 -0.1217
  114bbb     C8 3299   9.200   8.631   7.978 -0.2036  0.3972 -0.3807
  114bbb    H15 3300   9.122   8.707   7.986  0.0655  0.4926  2.1889
  114bbb    H16 3301   9.251   8.648   7.882  1.7559 -1.1396  0.3213
  114bbb     C9 3302   8.588   8.383   8.063 -0.1384  0.0503  0.6522
  114bbb    H17 3303   8.499   8.411   8.006  0.4153  1.6616  0.5436
  114bbb    H18 3304   8.610   8.460   8.138  0.0075 -0.9654  1.6807
  114bbb     O1 3305   9.112   8.018   7.659  0.0745  0.1938 -0.0528
  115bbb     N1 3306   9.133   8.696   6.042  0.2714  0.3945  0.0872
  115bbb     C1 3307   9.149   8.845   6.044 -0.5583  0.6170  0.3832
  115bbb     H1 3308   9.121   8.879   5.943 -1.1442  0.7801  0.5943
  115bbb     H2 3309   9.256   8.860   6.064  0.0029  0.3222 -2.0526
  115bbb     C2 3310   9.245   8.625   5.964 -0.2835 -0.1302  0.1947
  115bbb     H3 3311   9.248   8.518   5.988 -0.4544  0.5452  3.8009
  115bbb     H4 3312   9.342   8.664   6.000 -0.1217  0.7944 -1.1347
  115bbb     C3 3313   8.989   8.650   6.014  0.1622 -0.7602  0.2127
  115bbb     H5 3314   8.961   8.651   5.908 -3.7209  0.4592  1.0896
  115bbb     H6 3315   8.924   8.726   6.058 -0.0082 -1.0806  0.5180
  115bbb     C4 3316   8.948   8.504   6.060  0.2068 -0.8252  0.3425
  115bbb     H7 3317   8.973   8.492   6.166 -0.7490 -1.5419  0.4957
  115bbb     H8 3318   9.023   8.436   6.020  2.6621  2.3529 -0.9145
  115bbb     C5 3319   9.071   8.913   6.162  0.2476  0.4625  0.3552
  115bbb     H9 3320   9.126   8.900   6.256  1.2631  0.6875 -0.1895
  115bbb    H10 3321   8.967   8.882   6.173 -0.8146  3.2211 -0.8752
  115bbb     C6 3322   9.240   8.650   5.816  0.6502 -0.4381 -0.4449
  115bbb    H11 3323   9.243   8.759   5.804 -1.1270 -0.1158  1.3860
  115bbb    H12 3324   9.142   8.623   5.776 -0.3614  1.1567  0.8246
  115bbb     C7 3325   8.798   8.471   6.031  0.1977 -0.2400 -0.1407
  115bbb    H13 3326   8.777   8.517   5.933  0.2261 -1.6928 -0.8530
  115bbb    H14 3327   8.733   8.504   6.113  1.4494  1.5096  0.2027
  115bbb     C8 3328   9.354   8.571   5.748 -0.0409 -0.1614 -0.1372
  115bbb    H15 3329   9.338   8.463   5.761 -2.2226  0.2082  0.7065
  115bbb    H16 3330   9.450   8.606   5.788  0.4898  0.9299 -2.1919
  115bbb     C9 3331   9.080   9.069   6.136  0.8813  0.8219  0.5448
  115bbb    H17 3332   9.092   9.083   6.028 -0.3375 -2.0196 -0.0475
  115bbb    H18 3333   9.157   9.116   6.198  0.1200 -0.1519  2.3153
  115bbb     O1 3334   8.783   8.328   6.006  0.5075  0.2115 -0.2045
  116bbb     N1 3335   9.024   8.036   5.243  0.6244 -0.3481 -0.0276
  116bbb     C1 3336   9.018   7.922   5.141 -0.0185 -0.3335  0.1880
  116bbb     H1 3337   9.114   7.909   5.090 -0.8448 -2.4772 -0.9943
  116bbb     H2 3338   8.938   7.931   5.065  1.5871 -1.7313 -1.7883
  116bbb     C2 3339   9.130   8.033   5.346 -0.1901  0.3518 -0.2534
  116bbb     H3 3340   9.097   7.983   5.438  0.4053  1.4493  0.5752
  116bbb     H4 3341   9.162   8.135   5.370  1.2498 -0.2390  0.4457
  116bbb     C3 3342   8.891   8.082   5.297 -0.2999  1.3096 -0.2873
  116bbb     H5 3343   8.908   8.154   5.378  0.9761  0.9824 -0.2307
  116bbb     H6 3344   8.840   8.001   5.351 -0.4724  1.1829 -0.6398
  116bbb     C4 3345   8.802   8.142   5.186  0.2280 -0.4737 -0.6889
  116bbb     H7 3346   8.785   8.069   5.105 -1.2612  0.2360 -1.0570
  116bbb     H8 3347   8.851   8.229   5.141 -0.5711  1.1986  1.5272
  116bbb     C5 3348   8.984   7.788   5.208 -0.0014  0.2786  0.2788
  116bbb     H9 3349   9.042   7.771   5.299  0.3298  2.2896  0.4952
  116bbb    H10 3350   9.032   7.725   5.132  0.8934  1.7691 -0.4239
  116bbb     C6 3351   9.266   7.970   5.305 -0.0361  0.1010  0.2746
  116bbb    H11 3352   9.241   7.875   5.256 -1.1282  1.1201 -1.2452
  116bbb    H12 3353   9.323   7.941   5.394 -2.8505  0.6416  2.3973
  116bbb     C7 3354   8.665   8.179   5.247  0.1976  0.8684  0.1400
  116bbb    H13 3355   8.613   8.259   5.194  0.0554 -0.5338 -1.9468
  116bbb    H14 3356   8.677   8.216   5.350  1.0873  0.7030  0.1075
  116bbb     C8 3357   9.351   8.047   5.198 -0.9697 -0.0019  0.2144
  116bbb    H15 3358   9.386   8.142   5.240  2.9055 -0.8679 -0.6584
  116bbb    H16 3359   9.292   8.076   5.111  1.9362 -1.0678 -2.2909
  116bbb     C9 3360   8.841   7.759   5.230  0.7115 -0.3267 -0.5577
  116bbb    H17 3361   8.791   7.761   5.132  0.1424  0.8230 -0.2557
  116bbb    H18 3362   8.785   7.828   5.295  1.2834 -1.0176  0.6852
  116bbb     O1 3363   8.576   8.069   5.253 -0.0352  0.5328  0.6853
  117bbb     N1 3364   9.982   7.682   5.581  0.3645  0.2798  0.5304
  117bbb     C1 3365  10.114   7.754   5.569  0.0290  0.0460  0.0852
  117bbb     H1 3366  10.156   7.786   5.665  0.9345  0.8839 -0.5678
  117bbb     H2 3367  10.107   7.846   5.509 -1.5374 -0.8404 -1.1926
  117bbb     C2 3368   9.981   7.559   5.659  0.4794 -0.7204  0.5156
  117bbb     H3 3369  10.073   7.505   5.629  0.2637  0.7885 -3.5076
  117bbb     H4 3370   9.903   7.487   5.632  0.3926 -0.5358  0.2712
  117bbb     C3 3371   9.858   7.772   5.594  0.0872  0.6509 -0.0220
  117bbb     H5 3372   9.856   7.860   5.529  0.1848  1.0865  0.5538
  117bbb     H6 3373   9.867   7.815   5.694  0.7774 -0.9203  0.6383
  117bbb     C4 3374   9.717   7.717   5.586  0.1900 -0.6607  0.6996
  117bbb     H7 3375   9.707   7.630   5.652 -0.2488 -1.7640 -0.7765
  117bbb     H8 3376   9.705   7.684   5.482  0.5433  0.8010  0.1725
  117bbb     C5 3377  10.232   7.679   5.516  0.3598  0.1699 -0.2071
  117bbb     H9 3378  10.254   7.588   5.572  3.4239  1.8699  1.6279
  117bbb    H10 3379  10.319   7.744   5.534 -0.0177  1.0437 -1.3739
  117bbb     C6 3380   9.991   7.576   5.817 -0.0812  0.5001  0.1685
  117bbb    H11 3381   9.895   7.616   5.851 -0.6104 -0.0124 -0.6572
  117bbb    H12 3382  10.064   7.655   5.838 -0.5030  0.5816  1.3700
  117bbb     C7 3383   9.606   7.821   5.600  0.1674 -0.4283 -0.2722
  117bbb    H13 3384   9.595   7.884   5.512  4.1101 -0.5575 -1.0391
  117bbb    H14 3385   9.620   7.886   5.688 -0.3443  2.4338 -2.1849
  117bbb     C8 3386  10.021   7.449   5.889 -0.1585  0.4924 -0.0498
  117bbb    H15 3387  10.110   7.409   5.839 -0.8395 -0.8480 -0.2486
  117bbb    H16 3388   9.942   7.375   5.869 -1.0895  1.1664  0.9980
  117bbb     C9 3389  10.220   7.654   5.367  1.0389  0.7228 -0.1364
  117bbb    H17 3390  10.321   7.664   5.325  0.8074  1.6001 -0.5004
  117bbb    H18 3391  10.167   7.734   5.315  0.7003 -2.1805 -4.9599
  117bbb     O1 3392   9.493   7.735   5.603  0.1755  0.0153 -0.7887
  118bbb     N1 3393   9.575   6.864   5.600 -1.1505 -0.3974  0.1884
  118bbb     C1 3394   9.710   6.817   5.642 -0.4630 -0.1726 -0.3288
  118bbb     H1 3395   9.715   6.785   5.747 -0.8526 -1.8402 -0.7725
  118bbb     H2 3396   9.781   6.899   5.632  1.0535 -1.2683  0.8107
  118bbb     C2 3397   9.546   6.863   5.456  0.4227 -0.5317  0.3603
  118bbb     H3 3398   9.556   6.765   5.408 -2.4038  0.2395 -2.1141
  118bbb     H4 3399   9.620   6.917   5.397  1.4394 -1.6987  0.5364
  118bbb     C3 3400   9.540   6.993   5.676  0.3686  0.1288  0.3044
  118bbb     H5 3401   9.432   7.012   5.667  0.3116  0.1965  1.0687
  118bbb     H6 3402   9.601   7.076   5.640  0.2570  0.5567  1.0641
  118bbb     C4 3403   9.551   6.972   5.830 -0.0869 -0.7385  0.4598
  118bbb     H7 3404   9.655   6.962   5.862  0.2420  0.3832 -0.1760
  118bbb     H8 3405   9.499   6.881   5.861 -1.6914  0.1043  0.3519
  118bbb     C5 3406   9.765   6.696   5.560 -0.3193 -0.1497  0.5005
  118bbb     H9 3407   9.863   6.682   5.609  1.1225 -0.6825 -2.3313
  118bbb    H10 3408   9.774   6.727   5.456 -1.0927  0.2071  0.5322
  118bbb     C6 3409   9.402   6.917   5.422  0.0609 -0.2949  1.2178
  118bbb    H11 3410   9.326   6.889   5.497 -0.5281 -0.6940  0.4787
  118bbb    H12 3411   9.371   6.867   5.329 -0.5805  2.4059 -0.1043
  118bbb     C7 3412   9.489   7.093   5.899 -0.0061  0.1094 -0.1666
  118bbb    H13 3413   9.494   7.069   6.006 -1.1654 -2.4298 -0.6248
  118bbb    H14 3414   9.384   7.108   5.872 -0.7854 -3.2125  0.5650
  118bbb     C8 3415   9.401   7.070   5.388  0.1346  0.2060 -0.1802
  118bbb    H15 3416   9.477   7.097   5.314 -1.2610 -2.1008 -2.6479
  118bbb    H16 3417   9.417   7.121   5.484  1.1528 -2.1065  0.9483
  118bbb     C9 3418   9.683   6.566   5.569 -0.7258  1.0380  0.1455
  118bbb    H17 3419   9.578   6.583   5.540 -1.1973 -2.5461 -0.6564
  118bbb    H18 3420   9.676   6.541   5.675 -0.1792 -0.0349 -0.0597
  118bbb     O1 3421   9.577   7.205   5.883 -0.4890 -0.0857 -0.0439
  119bbb     N1 3422   7.997  10.048   5.383 -0.4530  0.7671  0.3073
  119bbb     C1 3423   8.102  10.149   5.341 -0.4693  0.5561 -0.4614
  119bbb     H1 3424   8.190  10.088   5.316 -1.1086  0.1116 -1.7312
  119bbb     H2 3425   8.132  10.214   5.424 -2.2612 -0.0060  0.6938
  119bbb     C2 3426   7.986   9.939   5.281  0.0569 -0.5849  0.5472
  119bbb     H3 3427   8.083   9.928   5.231 -0.4394 -2.6256 -0.0808
  119bbb     H4 3428   7.917   9.964   5.199  1.3351 -1.6494 -0.9257
  119bbb     C3 3429   7.872  10.104   5.435  0.1336  0.2723 -0.3619
  119bbb     H5 3430   7.803  10.023   5.460  1.8416 -1.2187 -0.3174
  119bbb     H6 3431   7.825  10.161   5.353 -1.5970 -1.1433 -0.3932
  119bbb     C4 3432   7.896  10.197   5.563  0.2268 -0.3370 -0.4498
  119bbb     H7 3433   7.971  10.277   5.551 -1.4870  1.8071  1.9905
  119bbb     H8 3434   7.921  10.136   5.651 -1.0081  1.5344  1.2852
  119bbb     C5 3435   8.074  10.242   5.215 -0.6490 -0.0390 -0.5298
  119bbb     H9 3436   7.977  10.294   5.215 -2.0120 -2.4112 -0.4497
  119bbb    H10 3437   8.070  10.180   5.124  0.0115  1.5718 -1.6968
  119bbb     C6 3438   7.954   9.807   5.354 -0.1641 -0.2920 -0.1549
  119bbb    H11 3439   7.861   9.812   5.411 -0.4670  1.1760 -0.7148
  119bbb    H12 3440   8.043   9.791   5.416 -0.9846  0.6127  1.3184
  119bbb     C7 3441   7.765  10.273   5.591  0.7933  0.4427 -0.2222
  119bbb    H13 3442   7.678  10.214   5.623  1.0881  0.6554  0.9863
  119bbb    H14 3443   7.738  10.330   5.501 -0.5346 -0.9026 -0.7251
  119bbb     C8 3444   7.936   9.694   5.247  0.6148 -0.0778  0.2543
  119bbb    H15 3445   7.940   9.597   5.298  4.0408  0.6205  1.6010
  119bbb    H16 3446   8.024   9.689   5.181  0.6395 -0.2741  0.3000
  119bbb     C9 3447   8.186  10.357   5.202 -0.3248  0.3116  0.3712
  119bbb    H17 3448   8.207  10.412   5.295 -0.8339  1.7352 -0.3366
  119bbb    H18 3449   8.136  10.429   5.137 -1.5992  0.4153  1.4165
  119bbb     O1 3450   7.789  10.373   5.686  0.1514  0.2003  0.2861
  120bbb     N1 3451   7.930  10.862   5.658 -0.1935  0.2137 -0.1630
  120bbb     C1 3452   7.983  10.958   5.559 -0.4512 -0.2810 -0.0871
  120bbb     H1 3453   8.091  10.940   5.571 -0.3768 -0.4045 -0.9124
  120bbb     H2 3454   7.958  11.062   5.582  0.5719 -0.3232  1.3741
  120bbb     C2 3455   7.957  10.710   5.625  0.0371 -0.5624  0.4606
  120bbb     H3 3456   7.928  10.683   5.524  2.4619 -0.1479 -0.4216
  120bbb     H4 3457   7.905  10.645   5.696 -2.8198  0.0939 -0.9003
  120bbb     C3 3458   7.955  10.908   5.796 -0.2694  0.8408  0.0201
  120bbb     H5 3459   7.954  11.018   5.790 -0.4212  0.8753  0.5956
  120bbb     H6 3460   8.058  10.882   5.824 -0.1275  1.5212  0.1650
  120bbb     C4 3461   7.856  10.850   5.900 -0.2890 -0.5963  0.3510
  120bbb     H7 3462   7.878  10.744   5.915  0.2746 -0.7998 -1.5573
  120bbb     H8 3463   7.756  10.850   5.855 -0.7088 -1.2547  1.2540
  120bbb     C5 3464   7.951  10.935   5.410  0.0798  0.2559 -0.5327
  120bbb     H9 3465   7.841  10.934   5.403 -0.0574 -0.5468  1.2674
  120bbb    H10 3466   7.994  10.840   5.375  1.7502  1.1093 -0.8899
  120bbb     C6 3467   8.098  10.670   5.651 -0.7876  0.1239 -0.1643
  120bbb    H11 3468   8.125  10.678   5.757 -0.0774  0.3632 -0.3593
  120bbb    H12 3469   8.167  10.737   5.598  2.4632 -1.5803  1.6362
  120bbb     C7 3470   7.862  10.936   6.035 -0.5285 -0.0122  0.8279
  120bbb    H13 3471   7.779  10.908   6.101 -1.2756 -1.8642 -0.7906
  120bbb    H14 3472   7.844  11.039   6.000  0.3004 -0.6019 -1.5594
  120bbb     C8 3473   8.118  10.521   5.612  0.0597 -0.1947 -0.2079
  120bbb    H15 3474   8.079  10.509   5.510  0.8935  1.7351 -0.7887
  120bbb    H16 3475   8.063  10.454   5.680 -0.4426  0.3510 -0.0741
  120bbb     C9 3476   8.018  11.049   5.322  0.1092  0.9376  0.7194
  120bbb    H17 3477   7.982  11.039   5.219  0.6954  0.7289  0.5274
  120bbb    H18 3478   8.127  11.036   5.331  0.1798  0.1923 -0.9139
  120bbb     O1 3479   7.991  10.914   6.104 -0.1029 -0.2406 -0.3833
  121bbb     N1 3480   8.034   8.595   6.364  0.0347 -0.4589 -0.0250
  121bbb     C1 3481   8.005   8.497   6.253  0.1621  0.1199  0.0488
  121bbb     H1 3482   7.922   8.431   6.277  1.8302 -2.7828 -1.5575
  121bbb     H2 3483   8.090   8.430   6.233 -0.9875 -1.2564 -0.3481
  121bbb     C2 3484   8.063   8.524   6.494 -0.0737 -0.5548 -0.9733
  121bbb     H3 3485   8.064   8.598   6.575 -1.2156 -0.3621 -1.1272
  121bbb     H4 3486   8.167   8.488   6.490  0.4918  0.6283  1.1369
  121bbb     C3 3487   8.126   8.706   6.324 -0.3379  0.3215  0.4160
  121bbb     H5 3488   8.098   8.753   6.229  0.0491  1.8697  1.0402
  121bbb     H6 3489   8.228   8.666   6.322 -0.2001  0.4688  2.4061
  121bbb     C4 3490   8.120   8.813   6.428 -1.2036  0.3509  1.0638
  121bbb     H7 3491   8.172   8.904   6.394 -2.8795  0.7090 -0.7338
  121bbb     H8 3492   8.156   8.779   6.526 -1.4321  0.3704  1.1552
  121bbb     C5 3493   7.946   8.572   6.127  0.6741  0.0312 -0.7941
  121bbb     H9 3494   8.031   8.608   6.068  1.5884 -0.2837  0.3114
  121bbb    H10 3495   7.890   8.663   6.153 -1.1104 -0.1390 -3.5759
  121bbb     C6 3496   7.965   8.414   6.539  0.6476  0.5615 -0.6653
  121bbb    H11 3497   7.984   8.387   6.644  0.2687  2.3169 -0.1185
  121bbb    H12 3498   7.973   8.320   6.484 -0.5671 -0.8284  1.3622
  121bbb     C7 3499   7.976   8.858   6.441 -0.3579  0.8018  0.4523
  121bbb    H13 3500   7.904   8.775   6.441 -2.3717  2.4413 -1.4232
  121bbb    H14 3501   7.941   8.917   6.355  0.7966  0.7196 -0.0965
  121bbb     C8 3502   7.817   8.458   6.536  0.2895  0.5792  0.2657
  121bbb    H15 3503   7.778   8.439   6.436  4.2763 -0.6551 -1.2593
  121bbb    H16 3504   7.809   8.566   6.547  0.0008  0.4372  1.7130
  121bbb     C9 3505   7.860   8.494   6.029  1.2279 -0.9322  0.9018
  121bbb    H17 3506   7.769   8.458   6.079 -0.3365 -0.5467 -1.4854
  121bbb    H18 3507   7.915   8.410   5.984  0.7291 -0.5600 -0.4424
  121bbb     O1 3508   7.983   8.936   6.567 -0.1080 -1.0255  0.1922
  122bbb     N1 3509   7.803   9.459   7.701  0.3863 -0.5392 -0.4543
  122bbb     C1 3510   7.724   9.545   7.794 -0.1293  0.3159  0.2990
  122bbb     H1 3511   7.758   9.650   7.799  0.3974  0.1873 -0.4892
  122bbb     H2 3512   7.738   9.509   7.897 -0.3862  2.1557  1.0227
  122bbb     C2 3513   7.774   9.312   7.712  0.6943  0.0573 -0.0393
  122bbb     H3 3514   7.827   9.254   7.636 -1.5113 -1.6684 -0.3670
  122bbb     H4 3515   7.667   9.298   7.695  0.5901  2.1031 -1.4339
  122bbb     C3 3516   7.814   9.513   7.564 -0.1167  0.4200  0.5100
  122bbb     H5 3517   7.832   9.621   7.571 -0.4724  0.5083  0.1033
  122bbb     H6 3518   7.728   9.487   7.501  1.0098 -2.7284  0.0897
  122bbb     C4 3519   7.947   9.456   7.492  0.0241 -0.1258 -0.6271
  122bbb     H7 3520   7.946   9.347   7.475  0.8534 -0.4350  1.1210
  122bbb     H8 3521   8.024   9.474   7.567 -1.1677 -1.7665  1.0873
  122bbb     C5 3522   7.573   9.525   7.783  1.1491  0.0424  0.3843
  122bbb     H9 3523   7.537   9.530   7.680 -1.7314  1.9524  1.3663
  122bbb    H10 3524   7.540   9.626   7.811  0.3767  0.4147 -1.6796
  122bbb     C6 3525   7.819   9.244   7.844 -0.0460  0.8437 -1.2260
  122bbb    H11 3526   7.788   9.302   7.932 -0.9660 -0.5171 -0.6185
  122bbb    H12 3527   7.929   9.247   7.855  0.2441 -2.4910 -2.0026
  122bbb     C7 3528   7.976   9.534   7.365  0.4299  0.7820  0.8746
  122bbb    H13 3529   8.080   9.518   7.333 -0.1190  0.7715 -1.0212
  122bbb    H14 3530   7.975   9.642   7.387 -0.7497  1.2145 -1.1362
  122bbb     C8 3531   7.763   9.101   7.862 -0.1646 -1.5642 -0.4969
  122bbb    H15 3532   7.831   9.038   7.803  0.7351 -0.8788 -0.2174
  122bbb    H16 3533   7.659   9.092   7.829 -1.3374 -0.4704  2.5006
  122bbb     C9 3534   7.499   9.412   7.863  0.5725 -0.7414 -0.0111
  122bbb    H17 3535   7.529   9.323   7.807  0.8605  0.3661 -1.7138
  122bbb    H18 3536   7.390   9.426   7.857  0.1842 -1.8330  2.9764
  122bbb     O1 3537   7.883   9.504   7.255 -0.5979  0.3533  0.0579
  123bbb     N1 3538   9.752   9.054   4.898 -0.2550 -0.5171 -0.2651
  123bbb     C1 3539   9.741   8.921   4.971 -0.3356  0.3353 -0.1332
  123bbb     H1 3540   9.641   8.878   4.957 -0.6685  1.2851 -0.8265
  123bbb     H2 3541   9.775   8.950   5.071  1.2827 -0.2183 -0.4862
  123bbb     C2 3542   9.707   9.040   4.759  0.0444  0.0562 -0.1123
  123bbb     H3 3543   9.599   9.021   4.765 -0.4839  1.3753 -3.5175
  123bbb     H4 3544   9.757   8.953   4.714  2.4581  1.1159  0.3625
  123bbb     C3 3545   9.668   9.157   4.983 -1.1137  0.2602  0.7535
  123bbb     H5 3546   9.571   9.111   5.002 -0.5166 -1.7225 -0.6261
  123bbb     H6 3547   9.657   9.254   4.933 -1.1695 -0.9583 -1.7403
  123bbb     C4 3548   9.727   9.194   5.124  0.3214 -0.7884  0.8939
  123bbb     H7 3549   9.830   9.230   5.114  1.0336 -2.9659 -0.4174
  123bbb     H8 3550   9.722   9.107   5.191 -1.8657 -1.6961 -0.3366
  123bbb     C5 3551   9.840   8.813   4.936 -0.3173  0.1833  0.0478
  123bbb     H9 3552   9.841   8.797   4.827  0.7293  1.4204 -0.1539
  123bbb    H10 3553   9.805   8.718   4.977 -1.4835  0.6177  0.0999
  123bbb     C6 3554   9.744   9.161   4.675  0.4543  0.0538  0.0407
  123bbb    H11 3555   9.852   9.173   4.665  0.2854  0.9202 -1.0036
  123bbb    H12 3556   9.716   9.252   4.729  2.2720  0.6881 -0.0395
  123bbb     C7 3557   9.650   9.309   5.186  1.2192 -0.0889 -0.0353
  123bbb    H13 3558   9.630   9.391   5.117 -3.2513 -0.2663  0.7598
  123bbb    H14 3559   9.703   9.343   5.275  2.4682 -2.3706  0.1834
  123bbb     C8 3560   9.680   9.151   4.532 -0.0953 -0.0855 -0.0981
  123bbb    H15 3561   9.572   9.133   4.537 -0.1019  0.0353  0.2147
  123bbb    H16 3562   9.716   9.069   4.468  0.4780  1.1257 -1.3576
  123bbb     C9 3563   9.979   8.834   5.001  0.3753 -0.1106  0.1730
  123bbb    H17 3564   9.980   8.868   5.105  0.0028  1.0842 -0.1841
  123bbb    H18 3565  10.029   8.920   4.955  2.2311 -1.5412 -0.5794
  123bbb     O1 3566   9.524   9.252   5.231 -0.0139  0.4049  0.1820
  124bbb     N1 3567   8.865   9.534   4.704 -0.6809 -0.1506 -0.5231
  124bbb     C1 3568   8.827   9.664   4.762  0.1063  1.0254  0.1067
  124bbb     H1 3569   8.820   9.656   4.871  0.7899  0.4949  0.1203
  124bbb     H2 3570   8.729   9.699   4.728  0.4332  0.3779 -1.6202
  124bbb     C2 3571   8.750   9.439   4.679 -0.5722  0.6142 -0.3032
  124bbb     H3 3572   8.685   9.503   4.619  0.1591  2.0134  0.3567
  124bbb     H4 3573   8.710   9.396   4.772  1.6237  1.9532  1.3511
  124bbb     C3 3574   8.994   9.475   4.736  0.0427  0.1533 -0.6983
  124bbb     H5 3575   9.074   9.550   4.724 -0.3089  0.1733 -3.4011
  124bbb     H6 3576   9.025   9.389   4.675  0.9417 -0.8300  1.0676
  124bbb     C4 3577   9.004   9.438   4.894  0.2871  0.0379  0.1294
  124bbb     H7 3578   8.959   9.525   4.944 -0.5621 -0.2989 -0.0370
  124bbb     H8 3579   9.107   9.432   4.930  0.5111  0.3241 -0.4527
  124bbb     C5 3580   8.923   9.783   4.730 -0.7774  0.3137  0.6299
  124bbb     H9 3581   8.930   9.794   4.621 -3.4367 -0.0109  0.3603
  124bbb    H10 3582   9.026   9.760   4.760 -1.2215 -2.0724  0.5023
  124bbb     C6 3583   8.788   9.312   4.590  0.4842  0.1827  0.5922
  124bbb    H11 3584   8.846   9.243   4.653  0.3023 -0.1315  0.4207
  124bbb    H12 3585   8.831   9.350   4.497 -1.5659  0.2467 -0.4008
  124bbb     C7 3586   8.931   9.310   4.936  0.6869  0.1051 -0.7629
  124bbb    H13 3587   8.943   9.233   4.860 -0.0250 -3.4394  2.4189
  124bbb    H14 3588   8.824   9.317   4.959  0.3019 -0.6027 -2.2231
  124bbb     C8 3589   8.665   9.230   4.549 -0.1562  0.0538 -0.7257
  124bbb    H15 3590   8.621   9.299   4.476  0.5128  0.1916 -1.0042
  124bbb    H16 3591   8.595   9.225   4.633  0.0579  3.0928 -0.2765
  124bbb     C9 3592   8.877   9.910   4.796 -0.3360 -0.1832 -0.2439
  124bbb    H17 3593   8.913   9.904   4.900 -1.1057  0.9081  0.1026
  124bbb    H18 3594   8.768   9.917   4.788 -0.2645  1.5043 -0.0013
  124bbb     O1 3595   8.996   9.254   5.053  0.1598 -0.6626 -0.5677
  125bbb     N1 3596   7.344   7.826   5.640 -0.2685  0.2578  0.0100
  125bbb     C1 3597   7.365   7.682   5.697 -0.4232 -0.2472 -0.1269
  125bbb     H1 3598   7.473   7.665   5.690 -0.3788 -1.5744  2.6129
  125bbb     H2 3599   7.312   7.607   5.638  0.2675 -0.9836  0.1780
  125bbb     C2 3600   7.204   7.853   5.582  0.1107  0.0182 -0.6187
  125bbb     H3 3601   7.179   7.958   5.562 -0.8340 -0.4667 -2.1100
  125bbb     H4 3602   7.125   7.814   5.647  0.0511  1.7097  0.3743
  125bbb     C3 3603   7.454   7.887   5.553 -0.7093  0.4136  0.0375
  125bbb     H5 3604   7.412   7.978   5.509 -3.0468  0.7993  2.7412
  125bbb     H6 3605   7.491   7.828   5.469  2.8271  1.4887  0.6546
  125bbb     C4 3606   7.588   7.920   5.616  0.2793 -0.3061 -1.1359
  125bbb     H7 3607   7.655   7.981   5.553  0.5041  0.4020 -0.2304
  125bbb     H8 3608   7.651   7.831   5.630  1.0462  0.5623  1.6907
  125bbb     C5 3609   7.305   7.673   5.841  0.0831  0.2487 -0.3962
  125bbb     H9 3610   7.207   7.719   5.859  0.0399  0.2610 -0.6696
  125bbb    H10 3611   7.368   7.736   5.905 -1.9108  1.9924 -0.0288
  125bbb     C6 3612   7.185   7.790   5.446 -1.2426  0.4413  0.4232
  125bbb    H11 3613   7.087   7.740   5.442 -0.8096 -0.5316  1.4581
  125bbb    H12 3614   7.258   7.709   5.434 -1.5363 -0.3213  3.1949
  125bbb     C7 3615   7.568   7.990   5.751 -0.7637 -0.1986  0.2121
  125bbb    H13 3616   7.503   7.931   5.817  2.0083 -1.5307  1.9724
  125bbb    H14 3617   7.530   8.092   5.742 -0.5992 -0.1677 -0.1411
  125bbb     C8 3618   7.183   7.896   5.339  0.3622 -0.0194  0.3844
  125bbb    H15 3619   7.263   7.965   5.368  0.6342 -0.2936  0.2888
  125bbb    H16 3620   7.088   7.946   5.360  0.0938 -1.1774  2.0726
  125bbb     C9 3621   7.308   7.522   5.893 -0.0915 -0.3031 -0.5469
  125bbb    H17 3622   7.235   7.466   5.833  1.0211 -1.1689 -1.1267
  125bbb    H18 3623   7.281   7.503   5.998 -0.9010 -2.3109 -1.0770
  125bbb     O1 3624   7.702   7.982   5.819 -0.1665 -0.1595  0.1789
  126bbb     N1 3625   7.787   7.584   6.159  0.3512 -0.7904 -0.1568
  126bbb     C1 3626   7.678   7.671   6.220 -0.7557  0.4011 -0.2322
  126bbb     H1 3627   7.710   7.775   6.205  3.1206 -0.3383  1.8284
  126bbb     H2 3628   7.666   7.659   6.328  0.5820  0.6864 -0.0395
  126bbb     C2 3629   7.776   7.438   6.189 -0.1535  0.0543 -0.2549
  126bbb     H3 3630   7.823   7.376   6.112 -1.6248  1.6143 -2.5400
  126bbb     H4 3631   7.671   7.406   6.192  0.1825 -1.1068 -0.2641
  126bbb     C3 3632   7.915   7.645   6.187 -0.6912 -0.4933  0.4707
  126bbb     H5 3633   7.933   7.651   6.295  1.5230 -1.5026  0.1999
  126bbb     H6 3634   7.926   7.742   6.136 -0.2437 -0.3180  0.8963
  126bbb     C4 3635   8.031   7.563   6.122 -0.0403  0.1490 -0.2047
  126bbb     H7 3636   8.000   7.535   6.020  0.1231 -0.2640 -0.1457
  126bbb     H8 3637   8.058   7.475   6.182 -1.4820 -0.1918 -0.0166
  126bbb     C5 3638   7.543   7.642   6.145 -0.5116 -0.8262 -0.5417
  126bbb     H9 3639   7.533   7.541   6.104 -0.9281 -0.6304 -0.9378
  126bbb    H10 3640   7.546   7.711   6.059 -2.6110  0.0471  0.0294
  126bbb     C6 3641   7.824   7.398   6.337 -0.4889 -0.1691 -0.5209
  126bbb    H11 3642   7.754   7.449   6.403 -0.6138  1.4682 -1.8556
  126bbb    H12 3643   7.923   7.442   6.355  0.1102 -1.4234 -0.6524
  126bbb     C7 3644   8.162   7.650   6.115  0.4466 -0.3204 -0.3293
  126bbb    H13 3645   8.243   7.581   6.089  1.5075  1.5182 -2.1624
  126bbb    H14 3646   8.187   7.684   6.216  0.9684  0.3045 -0.6623
  126bbb     C8 3647   7.826   7.245   6.366  0.4390 -0.5461  0.3346
  126bbb    H15 3648   7.893   7.190   6.299 -1.4648 -0.4799 -1.7711
  126bbb    H16 3649   7.731   7.202   6.330  1.3090 -0.2647 -2.5520
  126bbb     C9 3650   7.420   7.680   6.227 -0.5456  0.8437 -0.5450
  126bbb    H17 3651   7.332   7.700   6.165  0.1110  1.6844 -1.2371
  126bbb    H18 3652   7.439   7.776   6.275 -0.9638  0.6488  0.0103
  126bbb     O1 3653   8.150   7.756   6.018  0.0379 -0.0044  0.3837
  127bbb     N1 3654  10.800  10.904   8.545 -0.1431  0.3474  0.0459
  127bbb     C1 3655  10.887  10.813   8.467 -0.4938  0.4316 -0.9001
  127bbb     H1 3656  10.894  10.847   8.363  0.5431  0.1500 -0.9413
  127bbb     H2 3657  10.853  10.709   8.468  0.4621  0.1035 -0.8998
  127bbb     C2 3658  10.799  10.891   8.689 -0.0390 -0.1053 -0.3715
  127bbb     H3 3659  10.747  10.971   8.743  1.4563  1.2310 -0.8580
  127bbb     H4 3660  10.902  10.893   8.725  1.0827  1.9979 -3.3278
  127bbb     C3 3661  10.665  10.933   8.483 -0.0193 -0.1210  0.1404
  127bbb     H5 3662  10.605  10.994   8.551  1.2305  2.5730 -1.0212
  127bbb     H6 3663  10.612  10.837   8.478  0.4003 -0.4183  1.1591
  127bbb     C4 3664  10.666  11.010   8.347 -0.0525  0.2311 -0.4985
  127bbb     H7 3665  10.665  10.927   8.275  0.0653  0.7799 -1.1443
  127bbb     H8 3666  10.760  11.062   8.326  0.2442  0.2019  0.7026
  127bbb     C5 3667  11.039  10.816   8.516  0.1732 -0.1581  0.1113
  127bbb     H9 3668  11.095  10.739   8.463 -0.3900  0.2253 -1.0825
  127bbb    H10 3669  11.038  10.773   8.617 -3.2581 -2.5758 -0.7614
  127bbb     C6 3670  10.736  10.761   8.747  0.0091  0.4533 -0.0158
  127bbb    H11 3671  10.806  10.677   8.738  0.3505  0.8288 -0.9037
  127bbb    H12 3672  10.642  10.732   8.698 -0.7625  1.5744  0.7343
  127bbb     C7 3673  10.552  11.102   8.314  0.2412  0.1396  0.1384
  127bbb    H13 3674  10.551  11.115   8.206 -2.7110 -2.5638 -0.3212
  127bbb    H14 3675  10.565  11.195   8.371 -1.6539  0.1398  0.6554
  127bbb     C8 3676  10.706  10.775   8.903 -0.4311 -0.6268  0.4970
  127bbb    H15 3677  10.667  10.684   8.951  0.8236 -1.0392  0.7826
  127bbb    H16 3678  10.637  10.859   8.915  0.7877  0.5915 -0.6980
  127bbb     C9 3679  11.102  10.958   8.508 -0.3595 -0.0427  0.1449
  127bbb    H17 3680  11.025  11.030   8.538  0.8084  2.8554 -3.1064
  127bbb    H18 3681  11.129  10.996   8.409  0.2701  0.0982  0.3623
  127bbb     O1 3682  10.430  11.036   8.353 -0.4395  0.2253  0.0531
  128bbb     N1 3683   9.682  11.644   8.822 -0.2272 -0.2181  0.0436
  128bbb     C1 3684   9.604  11.734   8.917  0.3988  0.1310 -0.1838
  128bbb     H1 3685   9.633  11.839   8.902 -0.8605  0.2166 -2.4905
  128bbb     H2 3686   9.627  11.714   9.022 -1.3915  0.5273  0.3233
  128bbb     C2 3687   9.823  11.638   8.857 -0.1693  0.4156 -0.5986
  128bbb     H3 3688   9.869  11.737   8.855 -2.1462  1.3674 -0.4844
  128bbb     H4 3689   9.860  11.564   8.784 -1.6103 -1.8890  0.8668
  128bbb     C3 3690   9.649  11.667   8.680 -0.6875  0.4440  0.4916
  128bbb     H5 3691   9.708  11.755   8.650  0.9580 -0.5823  0.6012
  128bbb     H6 3692   9.544  11.692   8.663 -0.8318 -2.2044 -4.1557
  128bbb     C4 3693   9.676  11.545   8.588  0.0668 -0.2659 -0.0168
  128bbb     H7 3694   9.659  11.459   8.654 -2.2000 -0.6625 -1.0354
  128bbb     H8 3695   9.781  11.548   8.555 -0.8180  2.0570 -3.1169
  128bbb     C5 3696   9.448  11.738   8.910  0.4796  0.4594  0.2816
  128bbb     H9 3697   9.413  11.634   8.905 -1.8516  1.1689  0.5945
  128bbb    H10 3698   9.420  11.778   8.812 -1.7040 -0.3226  0.5274
  128bbb     C6 3699   9.840  11.577   8.999  0.3846  0.0747  0.1948
  128bbb    H11 3700   9.778  11.487   9.013  0.2390  0.0479 -0.5808
  128bbb    H12 3701   9.799  11.640   9.079 -1.1128  3.3578 -2.8906
  128bbb     C7 3702   9.587  11.543   8.464 -0.1733 -0.5672 -0.0789
  128bbb    H13 3703   9.568  11.642   8.420  2.3262 -0.3129 -0.7052
  128bbb    H14 3704   9.484  11.522   8.496 -0.1511 -0.1616  0.2597
  128bbb     C8 3705   9.988  11.555   9.048 -0.3772 -1.6217  0.5032
  128bbb    H15 3706  10.031  11.654   9.068 -0.9247 -0.4474 -3.2490
  128bbb    H16 3707  10.052  11.513   8.969  1.5377  1.2343  0.4108
  128bbb     C9 3708   9.385  11.806   9.031  0.3384 -0.2372 -0.1421
  128bbb    H17 3709   9.344  11.902   8.998  1.7667  0.3795 -0.1577
  128bbb    H18 3710   9.451  11.839   9.113 -1.2982 -1.2316  1.6770
  128bbb     O1 3711   9.630  11.449   8.365  0.3697  0.3934 -0.3191
  129bbb     N1 3712  10.777  10.075   8.599  0.0822 -0.1149  0.3355
  129bbb     C1 3713  10.926  10.113   8.606  0.0421  0.1934 -0.2202
  129bbb     H1 3714  10.967  10.070   8.514  1.0463 -0.3045  0.4496
  129bbb     H2 3715  10.974  10.054   8.685  2.2451 -1.0793 -2.3828
  129bbb     C2 3716  10.703  10.095   8.726 -0.5719 -0.0979 -0.9006
  129bbb     H3 3717  10.611  10.038   8.708 -0.5832 -0.3395 -0.1197
  129bbb     H4 3718  10.679  10.203   8.729  0.8992  0.2336  0.2401
  129bbb     C3 3719  10.708  10.140   8.478  0.6205  0.0556 -0.2398
  129bbb     H5 3720  10.771  10.127   8.389 -0.0184  1.2527 -0.8890
  129bbb     H6 3721  10.695  10.249   8.485  0.3294 -0.0106  0.2488
  129bbb     C4 3722  10.576  10.075   8.456  0.3719 -0.3852 -0.4037
  129bbb     H7 3723  10.504  10.118   8.527 -1.0575  0.5656 -2.3638
  129bbb     H8 3724  10.585   9.968   8.481  2.6663  0.1962  1.6385
  129bbb     C5 3725  10.961  10.262   8.630  0.0533  0.5094  0.5582
  129bbb     H9 3726  10.925  10.283   8.731 -1.6917 -1.5205  0.4405
  129bbb    H10 3727  10.903  10.322   8.560 -0.9796 -0.2789  0.7093
  129bbb     C6 3728  10.776  10.047   8.860  0.0907 -0.0066 -0.0017
  129bbb    H11 3729  10.865  10.110   8.867  0.9414 -1.2867  1.2042
  129bbb    H12 3730  10.801   9.943   8.840 -2.3502 -1.1783  2.3037
  129bbb     C7 3731  10.511  10.100   8.311  0.4165 -0.7250  0.2206
  129bbb    H13 3732  10.439  10.022   8.282  0.1998 -0.3525 -0.2578
  129bbb    H14 3733  10.584  10.092   8.230 -1.6083  1.7616 -2.0552
  129bbb     C8 3734  10.677  10.067   8.987  0.6295  0.3712  0.0052
  129bbb    H15 3735  10.585  10.011   8.967  0.6580  0.4803 -0.4461
  129bbb    H16 3736  10.722  10.003   9.064  1.5580 -2.1180 -2.4236
  129bbb     C9 3737  11.119  10.271   8.609 -0.2402  0.3561  0.6147
  129bbb    H17 3738  11.151  10.254   8.506 -1.0548 -1.2403  0.6044
  129bbb    H18 3739  11.174  10.194   8.665 -0.4925  0.6568  1.2942
  129bbb     O1 3740  10.445  10.232   8.312  0.4666 -0.3726 -0.0935
  130bbb     N1 3741  10.234  11.479   8.055  0.1320  0.4185  0.3331
  130bbb     C1 3742  10.346  11.499   8.149 -0.0900 -0.7622  0.7361
  130bbb     H1 3743  10.438  11.501   8.089 -1.4740  0.8504 -1.5008
  130bbb     H2 3744  10.352  11.433   8.236  1.6043  1.0357  2.0565
  130bbb     C2 3745  10.092  11.519   8.099 -0.4386 -0.4231 -0.1930
  130bbb     H3 3746  10.081  11.623   8.132  3.3711  0.0777 -0.1176
  130bbb     H4 3747  10.068  11.459   8.188  0.9782 -0.3714  0.2498
  130bbb     C3 3748  10.235  11.349   7.982  0.4032 -0.3209  0.0161
  130bbb     H5 3749  10.164  11.345   7.899  1.4430 -0.0468 -0.9179
  130bbb     H6 3750  10.205  11.277   8.059  1.6653  0.2284  1.0713
  130bbb     C4 3751  10.371  11.307   7.915 -0.2435 -0.1294  0.3967
  130bbb     H7 3752  10.459  11.290   7.978 -0.5564  0.1958  0.9342
  130bbb     H8 3753  10.407  11.389   7.852 -1.4515 -0.4860 -0.8174
  130bbb     C5 3754  10.344  11.641   8.205 -0.2171  0.2570  0.2439
  130bbb     H9 3755  10.437  11.651   8.263  0.4961 -1.4879 -0.5377
  130bbb    H10 3756  10.257  11.654   8.271 -1.4435 -2.0026 -0.8223
  130bbb     C6 3757   9.977  11.492   7.997  0.2859 -0.1598  0.0722
  130bbb    H11 3758   9.882  11.494   8.052  0.4595 -0.9190  0.4185
  130bbb    H12 3759   9.963  11.394   7.949  0.6976 -0.5457  0.7289
  130bbb     C7 3760  10.354  11.176   7.828 -0.0303  0.8527 -0.4038
  130bbb    H13 3761  10.445  11.164   7.769 -1.5267  0.6720 -2.7919
  130bbb    H14 3762  10.267  11.187   7.762 -0.3974  0.0283 -0.0704
  130bbb     C8 3763   9.992  11.592   7.880 -0.5504 -0.3025 -0.3142
  130bbb    H15 3764  10.060  11.549   7.806 -0.9227 -0.5418 -0.5198
  130bbb    H16 3765  10.036  11.683   7.924 -1.6727 -0.5498  1.4563
  130bbb     C9 3766  10.357  11.743   8.093  0.2881 -0.5746  0.3527
  130bbb    H17 3767  10.288  11.725   8.009  1.4223  0.8125 -0.9417
  130bbb    H18 3768  10.455  11.732   8.045 -0.3392 -0.1823 -1.0833
  130bbb     O1 3769  10.328  11.071   7.930  0.1872  0.0915  0.4142
  131bbb     N1 3770   9.422   8.408   8.602  0.0638  0.6964  0.3202
  131bbb     C1 3771   9.402   8.479   8.481  0.2783  1.0385  0.3158
  131bbb     H1 3772   9.485   8.465   8.411  0.1064 -0.6884  0.4235
  131bbb     H2 3773   9.399   8.587   8.503 -4.0324  0.8577  1.5328
  131bbb     C2 3774   9.415   8.263   8.584 -0.4004  1.0907  0.4198
  131bbb     H3 3775   9.314   8.239   8.549  0.2916  0.7453 -1.4050
  131bbb     H4 3776   9.445   8.209   8.675 -0.1238 -0.9398 -0.8347
  131bbb     C3 3777   9.349   8.457   8.729  0.5927 -0.4246  0.2971
  131bbb     H5 3778   9.384   8.404   8.819  0.5650 -2.8858 -1.0531
  131bbb     H6 3779   9.248   8.415   8.730  0.6448 -0.5576  0.1347
  131bbb     C4 3780   9.329   8.612   8.751  0.5848 -0.6233 -0.0266
  131bbb     H7 3781   9.272   8.675   8.681  0.8296 -1.1283 -0.6908
  131bbb     H8 3782   9.427   8.661   8.737 -0.8208  2.0736 -1.2584
  131bbb     C5 3783   9.281   8.439   8.390 -0.3753 -0.0857  0.0873
  131bbb     H9 3784   9.287   8.345   8.333 -1.9901  1.3154 -2.5905
  131bbb    H10 3785   9.283   8.506   8.303  4.0030 -1.7951 -1.4499
  131bbb     C6 3786   9.516   8.196   8.487 -0.2875 -0.3656 -0.5657
  131bbb    H11 3787   9.616   8.212   8.530 -0.4817  0.7383 -0.4929
  131bbb    H12 3788   9.508   8.243   8.388 -3.2688  1.0373  0.2289
  131bbb     C7 3789   9.281   8.637   8.897 -0.9012  0.0432  0.2178
  131bbb    H13 3790   9.220   8.551   8.926 -0.4874  0.7276  3.5630
  131bbb    H14 3791   9.240   8.739   8.905  1.1271  1.0076 -0.9053
  131bbb     C8 3792   9.492   8.044   8.481 -0.2181  0.4536 -0.3385
  131bbb    H15 3793   9.389   8.036   8.444  0.2533 -1.7737 -1.3341
  131bbb    H16 3794   9.502   7.999   8.581 -1.1237  2.5483  0.7652
  131bbb     C9 3795   9.142   8.444   8.460  0.2721 -0.3134 -0.1248
  131bbb    H17 3796   9.112   8.545   8.490  1.6875  0.1375 -0.1388
  131bbb    H18 3797   9.138   8.371   8.542 -2.4871 -1.8011 -1.4285
  131bbb     O1 3798   9.407   8.633   8.974  0.2071 -1.1980  0.1104
  132bbb     N1 3799   9.810   7.879   9.578  0.0812 -0.3231 -0.3591
  132bbb     C1 3800   9.898   7.840   9.685 -0.2748  0.1579  0.2800
  132bbb     H1 3801   9.846   7.812   9.777 -0.0072  3.8462  1.7017
  132bbb     H2 3802   9.958   7.928   9.712 -1.1536  1.4819 -1.8380
  132bbb     C2 3803   9.715   7.775   9.528 -0.4059 -0.1103  0.6362
  132bbb     H3 3804   9.766   7.724   9.445 -0.9441  2.4336 -1.3703
  132bbb     H4 3805   9.635   7.831   9.479  2.1456  0.8126 -2.8429
  132bbb     C3 3806   9.874   7.962   9.474 -0.0695  0.4326  0.2594
  132bbb     H5 3807   9.799   7.993   9.400 -0.2866  1.2400  0.8022
  132bbb     H6 3808   9.962   7.921   9.423  0.5169  0.5665  1.1319
  132bbb     C4 3809   9.929   8.092   9.533  0.5705  0.4825  0.4166
  132bbb     H7 3810  10.030   8.072   9.572  1.4707  1.2091 -1.3933
  132bbb     H8 3811   9.866   8.125   9.616  0.2340 -2.8840  1.6281
  132bbb     C5 3812  10.000   7.729   9.636  0.1441 -0.1427  0.6167
  132bbb     H9 3813  10.060   7.753   9.547  0.9435 -3.7016  0.0542
  132bbb    H10 3814   9.945   7.638   9.611  0.1850 -0.3224  1.1638
  132bbb     C6 3815   9.656   7.674   9.630 -0.2707  0.0430  0.4613
  132bbb    H11 3816   9.605   7.731   9.710 -1.0777 -1.1672  0.8394
  132bbb    H12 3817   9.737   7.616   9.674 -0.5016  0.0238  0.8689
  132bbb     C7 3818   9.945   8.203   9.436 -0.1643  0.4441  0.3327
  132bbb    H13 3819   9.861   8.207   9.366  0.4669  3.5427 -0.3756
  132bbb    H14 3820  10.035   8.192   9.375 -1.8515 -0.9423 -2.0864
  132bbb     C8 3821   9.552   7.583   9.565 -0.2833  0.6867  0.0107
  132bbb    H15 3822   9.590   7.527   9.478  1.1561 -2.0722  2.2309
  132bbb    H16 3823   9.469   7.651   9.545  0.6369  2.0302  0.6340
  132bbb     C9 3824  10.096   7.695   9.747 -0.0585  0.2119 -0.7714
  132bbb    H17 3825  10.124   7.791   9.793  2.2611 -0.8172  0.1471
  132bbb    H18 3826  10.190   7.654   9.707 -0.1343  0.9889 -1.7832
  132bbb     O1 3827   9.949   8.337   9.500  0.1409 -0.1093  0.5204
  133bbb     N1 3828  10.313   9.601   8.597 -0.0057 -0.1160  0.1488
  133bbb     C1 3829  10.256   9.521   8.480  0.6383  0.6087  0.4999
  133bbb     H1 3830  10.320   9.521   8.392  0.4304 -0.0697  0.3420
  133bbb     H2 3831  10.165   9.573   8.449  1.4929  1.7912 -0.0902
  133bbb     C2 3832  10.225   9.614   8.712  0.1591  0.2345 -0.1789
  133bbb     H3 3833  10.201   9.515   8.752  0.5453  0.3720  0.4086
  133bbb     H4 3834  10.130   9.663   8.689  0.1049  0.4811  0.5673
  133bbb     C3 3835  10.434   9.533   8.640 -0.1131 -0.2733 -0.1899
  133bbb     H5 3836  10.406   9.442   8.694 -0.2354 -0.8040 -1.1249
  133bbb     H6 3837  10.485   9.602   8.709  1.6935  0.2559 -1.9401
  133bbb     C4 3838  10.531   9.504   8.527  0.1987  0.9612 -0.0527
  133bbb     H7 3839  10.526   9.585   8.453 -1.8248  0.0448 -0.9782
  133bbb     H8 3840  10.484   9.420   8.476 -0.7814  0.2976  1.8323
  133bbb     C5 3841  10.202   9.373   8.500  0.3656 -0.9323 -0.8341
  133bbb     H9 3842  10.131   9.373   8.584  0.2755  0.1191 -0.8912
  133bbb    H10 3843  10.285   9.318   8.545 -0.4195 -0.9506  0.6395
  133bbb     C6 3844  10.287   9.696   8.829  0.5070  0.2804  0.4881
  133bbb    H11 3845  10.371   9.646   8.879  0.5236  0.9472  1.1623
  133bbb    H12 3846  10.212   9.708   8.908  1.5622  1.8413  1.3330
  133bbb     C7 3847  10.674   9.476   8.578 -0.6391  0.3669  0.4818
  133bbb    H13 3848  10.663   9.402   8.659  0.0111 -0.0031  0.2381
  133bbb    H14 3849  10.725   9.566   8.614 -1.2258 -0.5095  3.8081
  133bbb     C8 3850  10.338   9.834   8.784 -0.0063  0.0357 -0.3638
  133bbb    H15 3851  10.398   9.823   8.693  2.4901  1.2498  1.0536
  133bbb    H16 3852  10.396   9.885   8.861 -1.6110  1.4314 -0.0263
  133bbb     C9 3853  10.155   9.306   8.368  0.2525 -0.0170 -0.2184
  133bbb    H17 3854  10.123   9.202   8.386  0.5037 -0.1409 -0.4729
  133bbb    H18 3855  10.241   9.299   8.301 -0.9402  0.8322 -1.8825
  133bbb     O1 3856  10.751   9.422   8.471  0.4330 -0.2255 -0.2372
  134bbb     N1 3857  11.563   8.564   8.786  0.6854 -0.4151 -0.6258
  134bbb     C1 3858  11.471   8.444   8.775 -0.1162 -1.0294  0.3238
  134bbb     H1 3859  11.366   8.465   8.754 -0.2975 -1.6986  0.5283
  134bbb     H2 3860  11.463   8.396   8.873 -2.5572  0.4940  0.9357
  134bbb     C2 3861  11.698   8.519   8.801  0.0090 -0.1863  0.3598
  134bbb     H3 3862  11.744   8.485   8.708 -1.7093  2.5386 -1.6595
  134bbb     H4 3863  11.696   8.449   8.885 -1.0698 -1.3995 -0.6506
  134bbb     C3 3864  11.521   8.651   8.898 -0.1952 -0.1743  0.4637
  134bbb     H5 3865  11.581   8.743   8.906  0.1244 -0.3549  0.1521
  134bbb     H6 3866  11.526   8.592   8.990  1.1105  1.1860  1.3117
  134bbb     C4 3867  11.372   8.704   8.884 -0.7351 -0.3135  0.8333
  134bbb     H7 3868  11.353   8.786   8.954 -0.5676  1.2481 -0.8680
  134bbb     H8 3869  11.304   8.624   8.917 -0.5063  0.2057  2.7027
  134bbb     C5 3870  11.504   8.347   8.664 -0.0854 -0.2850  0.3535
  134bbb     H9 3871  11.415   8.283   8.654  0.2983 -0.6051 -1.1158
  134bbb    H10 3872  11.586   8.280   8.692 -1.1950 -2.9875 -2.3934
  134bbb     C6 3873  11.804   8.627   8.845  0.0156 -0.1929 -0.3848
  134bbb    H11 3874  11.791   8.669   8.945 -1.8532 -0.5068 -0.4730
  134bbb    H12 3875  11.802   8.715   8.780  1.7241  1.4885  1.6652
  134bbb     C7 3876  11.338   8.758   8.742  0.5395  0.0778 -0.5146
  134bbb    H13 3877  11.322   8.675   8.672 -1.5297  2.5134 -3.1638
  134bbb    H14 3878  11.425   8.809   8.700 -0.0431 -0.3277 -2.3135
  134bbb     C8 3879  11.948   8.571   8.840 -0.3276  0.4393  0.1717
  134bbb    H15 3880  11.940   8.469   8.878 -0.6017  0.5419  0.4003
  134bbb    H16 3881  12.012   8.628   8.909  0.2029 -1.9888  1.7815
  134bbb     C9 3882  11.542   8.398   8.523 -0.2568 -0.3828  0.1492
  134bbb    H17 3883  11.504   8.334   8.444 -0.3126 -0.9951  0.6648
  134bbb    H18 3884  11.652   8.394   8.515 -0.0370  3.7045 -1.2579
  134bbb     O1 3885  11.219   8.835   8.749 -0.0345  0.2080 -0.2895
  135bbb     N1 3886   7.667  11.802   7.495 -0.1252 -0.0396  0.5503
  135bbb     C1 3887   7.786  11.714   7.473  0.6636  1.1376  0.0484
  135bbb     H1 3888   7.866  11.739   7.543  0.3482 -0.1281  0.8945
  135bbb     H2 3889   7.816  11.723   7.367 -1.0543 -2.9307 -0.9652
  135bbb     C2 3890   7.552  11.770   7.402  0.2465 -0.7468 -0.3654
  135bbb     H3 3891   7.522  11.665   7.416  0.8690 -0.8583  0.1716
  135bbb     H4 3892   7.582  11.783   7.297  1.5372 -1.8531 -0.1574
  135bbb     C3 3893   7.705  11.946   7.489 -0.3222 -0.8412 -1.2615
  135bbb     H5 3894   7.614  12.007   7.501 -0.1290 -0.3286 -2.2934
  135bbb     H6 3895   7.741  11.964   7.387 -0.5659 -2.8910 -1.7465
  135bbb     C4 3896   7.819  12.000   7.584 -0.5055 -0.2095  0.1006
  135bbb     H7 3897   7.833  12.106   7.558 -0.8372 -0.4590 -1.1399
  135bbb     H8 3898   7.917  11.964   7.552  0.9456  1.3389  2.4670
  135bbb     C5 3899   7.753  11.566   7.490  0.3430  0.1061 -0.4413
  135bbb     H9 3900   7.833  11.500   7.455 -0.5152 -0.7805 -0.7797
  135bbb    H10 3901   7.666  11.537   7.430 -1.0603  1.4632  0.8312
  135bbb     C6 3902   7.427  11.866   7.412 -0.8942  0.2838 -0.4175
  135bbb    H11 3903   7.446  11.966   7.371 -2.4336  1.0479  0.6522
  135bbb    H12 3904   7.407  11.880   7.519 -1.8172 -0.3176 -0.4973
  135bbb     C7 3905   7.794  11.970   7.737 -0.1913  0.2023 -0.0643
  135bbb    H13 3906   7.746  11.874   7.758 -0.6483 -0.2790 -2.8723
  135bbb    H14 3907   7.717  12.039   7.772 -0.7835 -0.2026 -0.5528
  135bbb     C8 3908   7.304  11.803   7.353  0.0705  0.3092  0.4652
  135bbb    H15 3909   7.227  11.880   7.336  0.5682  0.4788 -1.2558
  135bbb    H16 3910   7.264  11.729   7.422 -0.1623 -2.7713 -2.6888
  135bbb     C9 3911   7.712  11.533   7.643  0.0419  0.4358  0.1828
  135bbb    H17 3912   7.649  11.617   7.674  0.6203  0.6117  0.8903
  135bbb    H18 3913   7.797  11.518   7.711  0.6259  2.3504 -0.0507
  135bbb     O1 3914   7.916  11.974   7.815 -0.2383 -0.6808  0.2357
  136bbb     N1 3915   8.692  12.546   7.731 -0.8680 -0.0867 -0.0369
  136bbb     C1 3916   8.801  12.650   7.722  0.4475 -0.4904  0.4787
  136bbb     H1 3917   8.755  12.749   7.705 -2.4585 -2.0446 -1.5384
  136bbb     H2 3918   8.859  12.642   7.629  0.2026 -1.3226  0.3980
  136bbb     C2 3919   8.612  12.540   7.608  0.0839 -0.1763 -0.0449
  136bbb     H3 3920   8.553  12.633   7.608 -0.2591 -0.3861 -0.9190
  136bbb     H4 3921   8.535  12.463   7.615 -0.4842  0.4739  1.3621
  136bbb     C3 3922   8.610  12.548   7.854  0.0572 -0.0108 -0.1350
  136bbb     H5 3923   8.559  12.644   7.853  1.7536  1.0874 -5.0133
  136bbb     H6 3924   8.678  12.556   7.940  1.9097  2.0686 -1.6853
  136bbb     C4 3925   8.526  12.423   7.862 -0.1759 -0.2144  1.0012
  136bbb     H7 3926   8.561  12.344   7.794 -0.3985  0.1670  0.4298
  136bbb     H8 3927   8.423  12.443   7.832 -0.4631 -2.5531  0.2416
  136bbb     C5 3928   8.897  12.660   7.841  0.6553  0.7958  0.5307
  136bbb     H9 3929   8.939  12.564   7.872 -1.5448 -0.5854 -0.5461
  136bbb    H10 3930   8.833  12.685   7.926 -0.2898  3.9202 -0.9592
  136bbb     C6 3931   8.675  12.532   7.465 -0.1944  0.2373 -0.3014
  136bbb    H11 3932   8.732  12.439   7.461 -0.7670 -0.3030  2.4899
  136bbb    H12 3933   8.750  12.612   7.454  1.2852 -1.2039 -1.1466
  136bbb     C7 3934   8.520  12.361   8.004 -0.1817 -0.3785 -0.3269
  136bbb    H13 3935   8.492  12.437   8.078  1.7764 -0.7816  0.8807
  136bbb    H14 3936   8.618  12.329   8.041 -2.1097 -2.3851  3.6221
  136bbb     C8 3937   8.568  12.538   7.356  0.5794 -0.0919  0.5497
  136bbb    H15 3938   8.491  12.462   7.378 -0.4481  0.0398 -2.1841
  136bbb    H16 3939   8.618  12.513   7.261  0.8306  0.4616  0.5320
  136bbb     C9 3940   9.003  12.772   7.832  0.2792 -0.3786 -0.3360
  136bbb    H17 3941   8.957  12.869   7.813 -0.5087 -0.5257  0.7697
  136bbb    H18 3942   9.062  12.745   7.743  0.6611 -2.3512  0.4546
  136bbb     O1 3943   8.430  12.251   8.000  0.1502  0.1581  0.5352
  137bbb     N1 3944   9.097  11.052   9.350  0.2591 -0.2453 -0.6556
  137bbb     C1 3945   8.978  10.973   9.302 -0.1942 -0.3373  0.0617
  137bbb     H1 3946   9.021  10.922   9.215 -1.3428 -3.0977  0.9760
  137bbb     H2 3947   8.890  11.030   9.274  0.1807 -0.0090 -0.4630
  137bbb     C2 3948   9.078  11.096   9.489  0.7291  0.4882 -0.6257
  137bbb     H3 3949   9.077  11.004   9.549 -4.0023  1.0897  0.5693
  137bbb     H4 3950   8.985  11.152   9.503  0.6216  0.1339  0.1554
  137bbb     C3 3951   9.124  11.166   9.262  0.4510 -0.0176  0.2595
  137bbb     H5 3952   9.224  11.207   9.278  1.4146 -2.0580 -0.2282
  137bbb     H6 3953   9.050  11.246   9.270  0.5810  0.2764 -1.2155
  137bbb     C4 3954   9.136  11.137   9.117  0.4365  0.1812  0.4780
  137bbb     H7 3955   9.040  11.113   9.071  1.3833 -1.6263 -0.6636
  137bbb     H8 3956   9.208  11.057   9.094  1.7495  2.1371 -3.0057
  137bbb     C5 3957   8.921  10.865   9.406 -0.6077 -0.3012  0.8795
  137bbb     H9 3958   8.886  10.910   9.500  2.5819  0.9336  1.6264
  137bbb    H10 3959   9.007  10.800   9.426  0.9135  0.6645 -1.9610
  137bbb     C6 3960   9.200  11.173   9.546  0.0427  0.9514 -0.2633
  137bbb    H11 3961   9.187  11.196   9.652 -1.2199  1.5367 -0.5205
  137bbb    H12 3962   9.208  11.273   9.500 -1.7116  1.7796  1.1204
  137bbb     C7 3963   9.201  11.256   9.039 -0.4904  0.0142  0.1371
  137bbb    H13 3964   9.225  11.210   8.943  1.6090 -0.1914  0.7074
  137bbb    H14 3965   9.296  11.282   9.087 -0.7155 -3.0018  2.5722
  137bbb     C8 3966   9.332  11.089   9.537  0.1926 -0.3471 -0.1880
  137bbb    H15 3967   9.363  11.064   9.434  2.0474  1.6532 -0.1774
  137bbb    H16 3968   9.314  10.984   9.566 -1.6848 -0.4407 -1.5209
  137bbb     C9 3969   8.812  10.776   9.339  0.0313 -0.2067  0.4336
  137bbb    H17 3970   8.757  10.710   9.407 -3.1413  2.3028  0.5437
  137bbb    H18 3971   8.866  10.723   9.260  1.2738  1.3283  0.1930
  137bbb     O1 3972   9.114  11.366   9.027 -0.2223 -0.2573 -0.1845
  138bbb     N1 3973   9.681  12.254   8.769 -0.6072  0.1052 -0.5863
  138bbb     C1 3974   9.604  12.377   8.801  0.6180  0.6073 -0.4915
  138bbb     H1 3975   9.671  12.425   8.873 -1.3894 -0.4852  2.2571
  138bbb     H2 3976   9.500  12.359   8.832  1.3940 -0.2595  1.8294
  138bbb     C2 3977   9.727  12.181   8.894  0.1295  0.0941 -1.0241
  138bbb     H3 3978   9.645  12.126   8.942  2.2046 -1.9880  0.3349
  138bbb     H4 3979   9.769  12.258   8.960 -0.9754  1.1632 -1.5200
  138bbb     C3 3980   9.614  12.165   8.670 -0.0016  0.2112 -0.0653
  138bbb     H5 3981   9.670  12.071   8.665  0.3456  0.4243 -0.1925
  138bbb     H6 3982   9.617  12.219   8.574  1.3412 -0.9569 -0.7142
  138bbb     C4 3983   9.472  12.134   8.702 -0.0751  0.4844  0.2280
  138bbb     H7 3984   9.415  12.227   8.692  0.8082  0.9431 -0.8271
  138bbb     H8 3985   9.454  12.091   8.801  1.9405  0.8386  0.7990
  138bbb     C5 3986   9.591  12.463   8.676 -0.5666 -0.1275 -0.7351
  138bbb     H9 3987   9.512  12.414   8.618 -1.8516  0.2392  0.6220
  138bbb    H10 3988   9.685  12.458   8.620 -0.4932 -1.2882 -0.5367
  138bbb     C6 3989   9.827  12.060   8.879  0.4664 -0.0929 -0.2130
  138bbb    H11 3990   9.785  11.978   8.821 -0.5739 -0.9702  1.6785
  138bbb    H12 3991   9.834  12.015   8.979 -0.9310  0.2367  0.0544
  138bbb     C7 3992   9.409  12.024   8.607  0.0463 -0.2145 -0.2278
  138bbb    H13 3993   9.479  11.940   8.595 -1.1804 -1.0537 -2.0135
  138bbb    H14 3994   9.388  12.068   8.508 -2.3337 -0.3931  0.1315
  138bbb     C8 3995   9.967  12.107   8.833 -0.3400  0.1798 -0.6201
  138bbb    H15 3996   9.995  12.189   8.900 -0.8585 -1.3421  1.5452
  138bbb    H16 3997   9.969  12.141   8.728 -1.6892  0.0259 -0.7082
  138bbb     C9 3998   9.539  12.604   8.716 -0.0768 -0.9501 -0.8392
  138bbb    H17 3999   9.602  12.672   8.774 -1.2610  0.8929 -1.6412
  138bbb    H18 4000   9.453  12.595   8.783  1.1399  1.0118  1.0898
  138bbb     O1 4001   9.286  11.971   8.668 -0.6637 -0.6746 -0.3066
  139bbb     N1 4002   8.523   9.278   8.839  0.5968  0.3707  0.0669
  139bbb     C1 4003   8.539   9.267   8.695 -0.9592 -0.3526 -0.1475
  139bbb     H1 4004   8.487   9.186   8.642 -1.1743  0.5723 -1.3925
  139bbb     H2 4005   8.644   9.246   8.670 -1.5633 -2.0874 -1.4694
  139bbb     C2 4006   8.557   9.139   8.891 -0.2210 -0.1620  0.3932
  139bbb     H3 4007   8.666   9.135   8.880 -0.2659  1.3967 -1.0301
  139bbb     H4 4008   8.503   9.068   8.826 -2.8780  0.7726  1.4466
  139bbb     C3 4009   8.606   9.380   8.911  0.6477  0.0913  0.1005
  139bbb     H5 4010   8.649   9.449   8.837  1.9289  0.1808  0.8859
  139bbb     H6 4011   8.687   9.334   8.968 -0.5648 -0.5568  1.3449
  139bbb     C4 4012   8.527   9.466   9.015 -0.3227 -0.4964 -0.2900
  139bbb     H7 4013   8.593   9.532   9.074  0.2562 -0.1775 -1.2681
  139bbb     H8 4014   8.478   9.397   9.085  3.7321 -1.7608  1.6070
  139bbb     C5 4015   8.493   9.397   8.621 -0.2065 -0.0950  0.4125
  139bbb     H9 4016   8.560   9.482   8.639 -0.8595  0.7683 -0.9831
  139bbb    H10 4017   8.393   9.426   8.655  0.3652  0.0803  2.0230
  139bbb     C6 4018   8.514   9.115   9.038 -0.2756  0.4831 -0.3997
  139bbb    H11 4019   8.525   9.206   9.097 -0.8083 -0.0927  0.6114
  139bbb    H12 4020   8.586   9.040   9.074 -1.2377 -0.1527  0.2509
  139bbb     C7 4021   8.429   9.564   8.946 -0.8141 -0.4177 -0.0906
  139bbb    H13 4022   8.359   9.505   8.886 -0.8071 -1.0937  0.5578
  139bbb    H14 4023   8.493   9.632   8.889  0.6564 -0.8037  1.0268
  139bbb     C8 4024   8.368   9.065   9.047 -0.3526  0.5327  0.3990
  139bbb    H15 4025   8.356   8.989   8.969 -0.9505 -0.2827  1.2520
  139bbb    H16 4026   8.297   9.144   9.023 -1.2358 -0.1598  0.6428
  139bbb     C9 4027   8.492   9.369   8.474 -0.0985  0.1764  0.2989
  139bbb    H17 4028   8.436   9.276   8.458 -0.0411 -0.3145  2.6177
  139bbb    H18 4029   8.589   9.348   8.427 -0.9523 -1.8612 -0.6500
  139bbb     O1 4030   8.361   9.637   9.053  0.0368  0.8078 -0.3409
  140bbb     N1 4031   7.637  10.156   9.786  0.0682 -0.7134 -0.4237
  140bbb     C1 4032   7.526  10.143   9.882 -0.1043 -0.0763  0.1273
  140bbb     H1 4033   7.572  10.107   9.976 -1.0390  1.0161  1.0295
  140bbb     H2 4034   7.472  10.053   9.851  1.6717 -0.8796 -0.7678
  140bbb     C2 4035   7.722  10.273   9.822  0.3948  0.1966 -1.1354
  140bbb     H3 4036   7.672  10.370   9.828 -0.0516  0.1206 -3.0171
  140bbb     H4 4037   7.793  10.278   9.740  0.6090 -1.3196 -1.0751
  140bbb     C3 4038   7.717  10.029   9.765  0.5189  0.1602 -0.2592
  140bbb     H5 4039   7.765   9.990   9.855 -0.5420 -0.2761  0.1264
  140bbb     H6 4040   7.797  10.050   9.692  0.7818  0.5392  0.1311
  140bbb     C4 4041   7.631   9.912   9.715 -0.5613  0.6886  0.0666
  140bbb     H7 4042   7.586   9.938   9.618  0.0854 -2.2018 -1.1188
  140bbb     H8 4043   7.559   9.881   9.791  1.1783 -2.0446  0.7117
  140bbb     C5 4044   7.437  10.269   9.891  0.5424  0.0231 -0.0770
  140bbb     H9 4045   7.413  10.287   9.785  1.7590 -2.3046 -0.8359
  140bbb    H10 4046   7.500  10.347   9.934  1.7046 -0.2453 -1.2215
  140bbb     C6 4047   7.811  10.246   9.947  0.1491 -0.3937  0.0696
  140bbb    H11 4048   7.882  10.167   9.920  2.0556  0.8510  1.2037
  140bbb    H12 4049   7.747  10.220  10.033  1.4588 -0.9168  0.9103
  140bbb     C7 4050   7.714   9.784   9.689  0.1652 -0.0677  0.8286
  140bbb    H13 4051   7.652   9.707   9.643  0.8837  0.1919 -0.6146
  140bbb    H14 4052   7.747   9.741   9.785 -0.8844  0.7321  1.5676
  140bbb     C8 4053   7.894  10.370   9.998  0.1404 -0.0228 -0.2186
  140bbb    H15 4054   7.981  10.383   9.931 -0.0397  2.6100 -0.0403
  140bbb    H16 4055   7.926  10.344  10.099  0.3137 -0.3743 -0.3625
  140bbb     C9 4056   7.303  10.245   9.966 -0.1176 -0.2885 -0.2279
  140bbb    H17 4057   7.243  10.336   9.958  1.9201  1.0556 -0.9209
  140bbb    H18 4058   7.312  10.233  10.075 -0.6386  2.4338  0.1893
  140bbb     O1 4059   7.827   9.814   9.605  0.2360 -0.0431 -0.2316
  141bbb     N1 4060   8.822   9.481  10.248  0.2349 -0.1785 -0.6155
  141bbb     C1 4061   8.939   9.456  10.161 -0.4323 -0.1427 -0.4913
  141bbb     H1 4062   9.021   9.507  10.213 -1.3689 -0.7309  1.7216
  141bbb     H2 4063   8.921   9.507  10.066 -0.5790  0.9405  0.0898
  141bbb     C2 4064   8.810   9.403  10.374 -0.4660  0.4242 -0.2125
  141bbb     H3 4065   8.826   9.297  10.355 -0.4731  0.6796 -1.7575
  141bbb     H4 4066   8.707   9.413  10.410 -1.3808 -0.6998 -2.3941
  141bbb     C3 4067   8.809   9.629  10.273 -0.0587  0.2756  0.0406
  141bbb     H5 4068   8.902   9.678  10.302 -0.6615  0.0187  2.6616
  141bbb     H6 4069   8.742   9.664  10.354  1.4166  1.8015  0.6611
  141bbb     C4 4070   8.778   9.714  10.148 -0.3233  0.4565 -0.0095
  141bbb     H7 4071   8.699   9.656  10.098  0.1573 -0.0687 -0.1807
  141bbb     H8 4072   8.861   9.724  10.077  0.3168 -2.0835  0.2563
  141bbb     C5 4073   8.985   9.313  10.135 -0.5129  0.3985  0.0518
  141bbb     H9 4074   9.016   9.271  10.231 -2.2190  0.4238  0.6525
  141bbb    H10 4075   9.078   9.313  10.077 -0.6978  0.9950 -0.2617
  141bbb     C6 4076   8.916   9.431  10.483 -0.2600 -0.1712  0.6183
  141bbb    H11 4077   8.923   9.534  10.521 -1.0677 -0.4173  1.4697
  141bbb    H12 4078   9.016   9.403  10.448 -0.7386 -1.3580  0.1434
  141bbb     C7 4079   8.721   9.846  10.176  0.4821 -0.5705 -0.1595
  141bbb    H13 4080   8.619   9.838  10.217  1.2096 -1.6310  1.5255
  141bbb    H14 4081   8.719   9.897  10.078  0.1181 -1.4143 -0.6024
  141bbb     C8 4082   8.898   9.354  10.616 -0.0361  0.1077 -0.1940
  141bbb    H15 4083   8.793   9.371  10.643  0.3748 -0.4816  1.9581
  141bbb    H16 4084   8.948   9.409  10.697 -2.8171  2.4274  0.0897
  141bbb     C9 4085   8.883   9.225  10.066 -0.5990 -0.5902  0.4629
  141bbb    H17 4086   8.866   9.266   9.966  0.3540 -1.2709  0.0099
  141bbb    H18 4087   8.789   9.226  10.123  0.7408  0.1215  2.8041
  141bbb     O1 4088   8.802   9.924  10.278  0.1005 -0.5943  0.9540
  142bbb     N1 4089   9.385  10.384  10.053 -0.5065 -0.0256  0.1927
  142bbb     C1 4090   9.427  10.238  10.027 -0.4311  0.2627  0.1591
  142bbb     H1 4091   9.530  10.247   9.990 -0.5935 -0.5781 -0.5549
  142bbb     H2 4092   9.365  10.201   9.944 -0.1822 -1.9635  0.9062
  142bbb     C2 4093   9.371  10.461   9.922 -0.6350 -0.8144  0.4404
  142bbb     H3 4094   9.310  10.550   9.944 -1.8166 -2.3978  4.4417
  142bbb     H4 4095   9.317  10.393   9.854 -0.0404 -1.0457  0.1893
  142bbb     C3 4096   9.276  10.402  10.156  0.1279 -0.6991 -0.3620
  142bbb     H5 4097   9.320  10.358  10.246  0.0252 -0.2705 -0.0939
  142bbb     H6 4098   9.197  10.339  10.113  1.3632 -0.8484 -2.5067
  142bbb     C4 4099   9.236  10.548  10.178 -0.1417 -0.2045 -0.1487
  142bbb     H7 4100   9.180  10.602  10.101  0.7463  2.8419  1.1868
  142bbb     H8 4101   9.329  10.605  10.176 -0.8196  1.0379  1.2091
  142bbb     C5 4102   9.435  10.128  10.139  0.2402 -0.6991 -0.1955
  142bbb     H9 4103   9.457  10.034  10.088 -3.1200 -0.9036 -1.4698
  142bbb    H10 4104   9.336  10.118  10.184  0.1376 -1.0612 -0.4973
  142bbb     C6 4105   9.505  10.512   9.858 -0.4747  0.1781 -0.8047
  142bbb    H11 4106   9.482  10.570   9.769 -2.7087  0.9204  0.1970
  142bbb    H12 4107   9.570  10.430   9.823 -2.6027 -1.4612 -1.1240
  142bbb     C7 4108   9.166  10.589  10.309  0.1255 -0.4353 -0.0248
  142bbb    H13 4109   9.141  10.696  10.301 -1.3655 -0.8985 -3.4114
  142bbb    H14 4110   9.229  10.561  10.394  0.9523  0.2284 -0.3982
  142bbb     C8 4111   9.589  10.605   9.960 -0.3025 -0.0955  0.4115
  142bbb    H15 4112   9.615  10.554  10.053 -0.8587  2.3749  2.0260
  142bbb    H16 4113   9.528  10.690   9.994 -0.2426 -0.3179  1.0876
  142bbb     C9 4114   9.532  10.158  10.254 -0.5117 -0.0615  0.4464
  142bbb    H17 4115   9.505  10.259  10.288 -0.6334  0.4363 -1.0499
  142bbb    H18 4116   9.635  10.165  10.216 -0.9383  2.5194 -0.4433
  142bbb     O1 4117   9.038  10.525  10.317 -1.2282  0.0560  0.0051
  143bbb     N1 4118  10.462  11.083   5.077 -0.5192  0.3181  0.0388
  143bbb     C1 4119  10.508  10.940   5.107  0.8373  0.2476  0.3487
  143bbb     H1 4120  10.521  10.889   5.011  0.1186  1.3318 -0.3347
  143bbb     H2 4121  10.428  10.878   5.149  1.1486 -0.8444 -0.6175
  143bbb     C2 4122  10.559  11.148   4.988 -0.8751 -1.5573  0.3087
  143bbb     H3 4123  10.556  11.101   4.889  2.8531  1.4442 -1.5012
  143bbb     H4 4124  10.659  11.137   5.032  0.0343  1.9792 -0.5816
  143bbb     C3 4125  10.321  11.095   5.041  0.5028  0.5333  0.6516
  143bbb     H5 4126  10.287  11.199   5.029  0.1909  0.4710  0.9757
  143bbb     H6 4127  10.254  11.057   5.119 -0.3236  2.7817  1.1340
  143bbb     C4 4128  10.291  11.026   4.906  0.4750 -0.6583  0.4061
  143bbb     H7 4129  10.346  10.931   4.907  0.0591 -0.9379 -1.1146
  143bbb     H8 4130  10.331  11.083   4.821 -0.5983  1.7930  1.4463
  143bbb     C5 4131  10.626  10.935   5.202 -0.2216  0.2066  0.3880
  143bbb     H9 4132  10.604  11.000   5.288 -0.6793  1.2733 -0.5117
  143bbb    H10 4133  10.711  10.970   5.142 -2.5091  2.0027 -2.0317
  143bbb     C6 4134  10.540  11.301   4.976 -0.1145 -0.1887  0.1631
  143bbb    H11 4135  10.547  11.349   5.075  1.7271 -0.6665  0.3097
  143bbb    H12 4136  10.436  11.322   4.951  0.0773  0.8511  0.1914
  143bbb     C7 4137  10.137  11.000   4.890 -0.4447 -0.5091  0.1497
  143bbb    H13 4138  10.121  10.952   4.792 -1.0915 -0.6740  0.3327
  143bbb    H14 4139  10.087  11.097   4.882  0.4175  0.0046  0.7946
  143bbb     C8 4140  10.648  11.365   4.880 -0.6589  0.9423 -0.3603
  143bbb    H15 4141  10.746  11.318   4.888 -0.1458  2.2763  2.4676
  143bbb    H16 4142  10.670  11.461   4.929  0.3871  1.1729 -1.2551
  143bbb     C9 4143  10.653  10.782   5.239 -0.6790  0.2777  0.0042
  143bbb    H17 4144  10.679  10.735   5.144  3.4151  0.2547  0.9776
  143bbb    H18 4145  10.564  10.731   5.278 -0.2332 -1.8666 -1.6375
  143bbb     O1 4146  10.080  10.931   5.004 -0.1779  0.4968  0.2259
  144bbb     N1 4147   9.148  11.233   5.746 -0.5140  0.2816  0.5643
  144bbb     C1 4148   9.223  11.365   5.721 -0.2342  0.9104 -0.1237
  144bbb     H1 4149   9.328  11.354   5.752 -0.1750  1.4745 -0.1174
  144bbb     H2 4150   9.191  11.443   5.791 -0.6294  0.3618  0.3111
  144bbb     C2 4151   9.110  11.198   5.888 -0.1260  0.3880  0.4608
  144bbb     H3 4152   9.205  11.185   5.941  1.1009 -1.1155 -1.9488
  144bbb     H4 4153   9.059  11.101   5.883 -0.0871  0.3852  0.1076
  144bbb     C3 4154   9.191  11.119   5.659  0.3143  0.1989  0.0255
  144bbb     H5 4155   9.192  11.140   5.552  0.0067  1.5194  0.2646
  144bbb     H6 4156   9.114  11.042   5.672  1.9659 -1.4713  0.5220
  144bbb     C4 4157   9.335  11.059   5.700  0.3413  0.0330  0.3776
  144bbb     H7 4158   9.343  11.063   5.810 -1.4439  1.6142  0.5060
  144bbb     H8 4159   9.408  11.127   5.657  0.2914  0.5485  1.0848
  144bbb     C5 4160   9.216  11.419   5.582 -0.2131 -0.3423  0.4761
  144bbb     H9 4161   9.293  11.383   5.513 -0.1140 -0.0664  0.4416
  144bbb    H10 4162   9.253  11.521   5.599 -2.2967  0.5049  0.3150
  144bbb     C6 4163   9.035  11.312   5.967 -0.7794 -0.4594  0.7016
  144bbb    H11 4164   9.102  11.397   5.983 -1.8862  0.9327 -1.5047
  144bbb    H12 4165   9.022  11.276   6.070 -0.8490 -1.2532  0.4226
  144bbb     C7 4166   9.349  10.911   5.651  0.1832 -0.0528  0.1013
  144bbb    H13 4167   9.281  10.839   5.699  1.1565 -0.8858  0.2655
  144bbb    H14 4168   9.452  10.876   5.667 -0.2865 -1.3934  0.3650
  144bbb     C8 4169   8.910  11.370   5.894 -1.0123  0.6367 -0.5078
  144bbb    H15 4170   8.839  11.289   5.873  1.8500 -1.8987 -1.0090
  144bbb    H16 4171   8.945  11.399   5.794  0.4673 -1.0082 -0.5062
  144bbb     C9 4172   9.076  11.428   5.521 -0.2063  0.5591  0.2288
  144bbb    H17 4173   9.022  11.501   5.581 -2.4208 -0.5615 -0.2953
  144bbb    H18 4174   9.012  11.340   5.536 -2.9296  1.8776 -2.6567
  144bbb     O1 4175   9.319  10.904   5.505  0.2106 -0.1323 -0.0471
  145bbb     N1 4176  10.192   9.437   6.137  0.2879 -0.0480 -0.1419
  145bbb     C1 4177  10.335   9.448   6.125  0.3237  0.4642  0.3890
  145bbb     H1 4178  10.373   9.537   6.175  0.2690  1.1284 -0.7122
  145bbb     H2 4179  10.377   9.450   6.023  1.8407 -1.5150  0.8933
  145bbb     C2 4180  10.143   9.414   6.282 -0.6069 -0.4880 -0.0249
  145bbb     H3 4181  10.178   9.500   6.340  0.4353 -0.1933 -1.0430
  145bbb     H4 4182  10.191   9.321   6.316  0.7520  0.5932  1.1090
  145bbb     C3 4183  10.116   9.541   6.069 -0.4858 -0.0442  0.3599
  145bbb     H5 4184  10.128   9.641   6.113 -1.0531  0.4683 -0.6193
  145bbb     H6 4185  10.008   9.524   6.070 -0.4672 -0.3077 -0.8349
  145bbb     C4 4186  10.148   9.571   5.920  0.6189  0.0008  0.1639
  145bbb     H7 4187  10.131   9.488   5.851  1.4889  1.0459 -1.3555
  145bbb     H8 4188  10.254   9.601   5.917  0.0689  2.0092 -1.4077
  145bbb     C5 4189  10.418   9.323   6.181 -0.0408 -0.1600 -0.3713
  145bbb     H9 4190  10.369   9.232   6.145 -0.9227 -1.0002  2.6721
  145bbb    H10 4191  10.409   9.325   6.290 -0.5725  0.8439 -0.4244
  145bbb     C6 4192   9.990   9.389   6.312  0.5160  0.3634 -0.5961
  145bbb    H11 4193   9.957   9.317   6.236  1.7933 -1.1442  0.2072
  145bbb    H12 4194   9.935   9.483   6.298  2.7967  1.8457 -0.1122
  145bbb     C7 4195  10.051   9.684   5.870 -0.7016  0.6052 -0.2568
  145bbb    H13 4196  10.054   9.772   5.935  0.3326 -1.2491  2.3884
  145bbb    H14 4197   9.947   9.652   5.867 -0.3051 -1.1959  2.3200
  145bbb     C8 4198   9.959   9.327   6.456 -0.2626 -1.0736  1.0027
  145bbb    H15 4199   9.850   9.314   6.461 -0.3021 -0.7882  0.9199
  145bbb    H16 4200   9.978   9.400   6.536 -0.1129  1.4942 -1.2144
  145bbb     C9 4201  10.568   9.343   6.155  0.2064 -0.0148 -0.0072
  145bbb    H17 4202  10.618   9.255   6.196 -0.6511 -0.1055  0.8728
  145bbb    H18 4203  10.599   9.434   6.208  0.1346 -0.7779  1.3939
  145bbb     O1 4204  10.101   9.721   5.737 -0.3038 -0.0287  0.1255
  146bbb     N1 4205   9.410   9.260   5.806  0.6911 -1.0332  0.5172
  146bbb     C1 4206   9.275   9.277   5.734  0.8504 -0.1968  0.3940
  146bbb     H1 4207   9.219   9.183   5.732  1.1871 -0.3928 -1.2381
  146bbb     H2 4208   9.291   9.291   5.626  0.5224 -1.8457  0.0949
  146bbb     C2 4209   9.500   9.144   5.773  0.0337 -1.1619  0.1581
  146bbb     H3 4210   9.595   9.148   5.828 -0.6664 -0.2842  1.3547
  146bbb     H4 4211   9.526   9.135   5.667 -3.0383 -0.2182 -0.7766
  146bbb     C3 4212   9.482   9.390   5.824 -0.4216 -0.6957 -0.1916
  146bbb     H5 4213   9.575   9.377   5.881  0.2667 -1.1851 -1.3778
  146bbb     H6 4214   9.431   9.475   5.872  1.2062  0.7523 -0.8715
  146bbb     C4 4215   9.535   9.433   5.684  0.3560 -0.1338 -1.4243
  146bbb     H7 4216   9.450   9.445   5.616 -0.6464 -1.1862 -0.4080
  146bbb     H8 4217   9.592   9.355   5.631 -1.0760 -1.2353 -1.4149
  146bbb     C5 4218   9.174   9.375   5.799 -0.4928  0.4410  0.7284
  146bbb     H9 4219   9.197   9.480   5.775  1.2406 -0.2747 -1.0541
  146bbb    H10 4220   9.197   9.378   5.907  1.2750 -0.1545  0.4102
  146bbb     C6 4221   9.435   9.009   5.814 -0.1869  0.2588  0.1792
  146bbb    H11 4222   9.370   8.977   5.731 -0.1821 -2.1769  1.0561
  146bbb    H12 4223   9.366   9.033   5.896 -0.6393 -2.1177  0.5510
  146bbb     C7 4224   9.612   9.561   5.695  0.3366 -0.3039 -1.0151
  146bbb    H13 4225   9.703   9.543   5.754 -0.0908 -0.6777 -0.4685
  146bbb    H14 4226   9.549   9.639   5.739  0.7559 -0.6059  0.1643
  146bbb     C8 4227   9.526   8.888   5.854 -0.3730  0.1272  1.2303
  146bbb    H15 4228   9.589   8.861   5.768 -0.6735 -1.2011  1.4047
  146bbb    H16 4229   9.464   8.798   5.869  1.6933 -1.9268 -1.4348
  146bbb     C9 4230   9.019   9.350   5.786 -0.8400 -0.2554  0.6977
  146bbb    H17 4231   8.996   9.268   5.854 -1.2509  1.1046  2.2757
  146bbb    H18 4232   8.989   9.310   5.688 -0.2854 -0.9643  0.8057
  146bbb     O1 4233   9.655   9.596   5.566 -0.1255 -0.2769 -0.2600
  147bbb     N1 4234   9.222  10.949   7.195  0.0337  0.0452  0.0665
  147bbb     C1 4235   9.203  11.081   7.132  0.5322 -0.1421 -0.2053
  147bbb     H1 4236   9.290  11.144   7.157  0.2904  0.9864 -2.0481
  147bbb     H2 4237   9.121  11.135   7.180  0.3125 -1.4544  0.9424
  147bbb     C2 4238   9.092  10.875   7.205 -0.3802 -0.4556 -0.1398
  147bbb     H3 4239   9.112  10.784   7.263  0.8503 -1.4887 -2.0609
  147bbb     H4 4240   9.068  10.847   7.102 -1.7627 -0.0870  0.0535
  147bbb     C3 4241   9.339  10.862   7.150  0.6249 -0.1924 -0.7795
  147bbb     H5 4242   9.325  10.824   7.049  2.0930  0.6615 -1.3275
  147bbb     H6 4243   9.355  10.775   7.215  1.2250 -0.9161 -1.8667
  147bbb     C4 4244   9.475  10.928   7.160 -0.2831 -0.1519  0.2818
  147bbb     H7 4245   9.477  10.972   7.261 -0.8660  0.3421  0.0826
  147bbb     H8 4246   9.495  11.010   7.089  2.1714 -0.5199  0.4550
  147bbb     C5 4247   9.179  11.080   6.980  0.1528  0.3620 -0.3903
  147bbb     H9 4248   9.080  11.038   6.960  0.1697  1.0429 -2.0084
  147bbb    H10 4249   9.257  11.020   6.931  0.2749  0.0309  0.1987
  147bbb     C6 4250   8.972  10.951   7.263  0.0066 -0.6871 -0.6530
  147bbb    H11 4251   8.933  11.022   7.189  0.1802 -1.0716 -1.1182
  147bbb    H12 4252   9.012  11.010   7.346  1.5670 -0.4613 -1.5187
  147bbb     C7 4253   9.584  10.818   7.132 -0.3247  0.3280  0.4010
  147bbb    H13 4254   9.586  10.737   7.206  1.4103  0.7536  0.8843
  147bbb    H14 4255   9.680  10.868   7.149 -0.8834  1.0294  1.6958
  147bbb     C8 4256   8.863  10.853   7.295 -0.3479  0.4604  0.2255
  147bbb    H15 4257   8.905  10.767   7.350 -0.9186 -0.0047 -0.0585
  147bbb    H16 4258   8.829  10.807   7.201  2.0241  0.1688 -0.5513
  147bbb     C9 4259   9.176  11.221   6.921 -0.1091 -0.4184  0.1785
  147bbb    H17 4260   9.275  11.263   6.900 -0.9484 -0.0205 -3.6964
  147bbb    H18 4261   9.120  11.283   6.993 -0.5787 -2.2080  1.4272
  147bbb     O1 4262   9.578  10.768   6.996  0.2613 -0.3900  0.4991
  148bbb     N1 4263  10.342  11.348   6.765 -0.0091 -0.0344  0.2440
  148bbb     C1 4264  10.331  11.449   6.653  0.1325  0.3623  0.1981
  148bbb     H1 4265  10.234  11.498   6.669 -1.2550 -1.5384 -1.7436
  148bbb     H2 4266  10.325  11.390   6.561  0.8134 -4.0548  2.7144
  148bbb     C2 4267  10.354  11.400   6.905  0.3032  0.2023  0.0172
  148bbb     H3 4268  10.433  11.475   6.913  2.4784 -2.0177  0.8314
  148bbb     H4 4269  10.375  11.308   6.962 -2.5279 -0.8539 -0.4962
  148bbb     C3 4270  10.255  11.225   6.752 -0.5413 -0.1634  0.4972
  148bbb     H5 4271  10.158  11.259   6.714  0.8939  2.8847 -0.7647
  148bbb     H6 4272  10.249  11.176   6.850 -0.4836 -0.6595  0.2552
  148bbb     C4 4273  10.324  11.126   6.654 -0.3394 -0.0871  0.2596
  148bbb     H7 4274  10.407  11.076   6.706  1.2092 -0.3136 -2.2664
  148bbb     H8 4275  10.364  11.177   6.566 -3.4579 -0.0392 -1.2600
  148bbb     C5 4276  10.440  11.548   6.634  0.0612 -0.0274 -0.2317
  148bbb     H9 4277  10.444  11.610   6.724 -0.7883  0.8862 -0.7987
  148bbb    H10 4278  10.404  11.615   6.555 -1.3619 -0.2276  0.2328
  148bbb     C6 4279  10.223  11.450   6.967  0.1378  0.2873 -0.4097
  148bbb    H11 4280  10.147  11.378   6.934  0.8666 -0.6314 -0.1060
  148bbb    H12 4281  10.187  11.548   6.934  0.2247  1.6810  3.1592
  148bbb     C7 4282  10.218  11.029   6.598 -0.2195  0.1621  0.0489
  148bbb    H13 4283  10.253  10.979   6.507  1.2484 -1.3167  1.3648
  148bbb    H14 4284  10.129  11.085   6.566 -0.8586 -0.6682  0.3271
  148bbb     C8 4285  10.234  11.449   7.119  0.4952 -0.5879  0.7199
  148bbb    H15 4286  10.265  11.349   7.152  0.1969  0.0692  3.2088
  148bbb    H16 4287  10.134  11.452   7.165 -1.2907 -0.7731 -2.8037
  148bbb     C9 4288  10.573  11.479   6.618  0.0461  0.7606  0.8626
  148bbb    H17 4289  10.563  11.416   6.529 -1.3859  0.5950  1.1043
  148bbb    H18 4290  10.602  11.417   6.704  0.3775 -1.4425 -0.7460
  148bbb     O1 4291  10.177  10.948   6.709 -0.1936  0.4108 -0.1100
  149bbb     N1 4292  11.301   9.988   6.021  0.2561 -0.4574 -0.3719
  149bbb     C1 4293  11.448  10.014   5.994  0.1407 -0.5067  0.0255
  149bbb     H1 4294  11.489   9.916   5.966  1.9398 -0.2249  1.5618
  149bbb     H2 4295  11.490  10.057   6.085  0.6057  1.2879 -0.9854
  149bbb     C2 4296  11.229   9.910   5.922  0.0033 -0.2874 -0.1288
  149bbb     H3 4297  11.144   9.860   5.970 -0.1418 -0.3878 -0.4855
  149bbb     H4 4298  11.283   9.823   5.883  0.8455  1.0917 -2.2388
  149bbb     C3 4299  11.273   9.940   6.158 -0.0869  0.0283 -1.2628
  149bbb     H5 4300  11.343   9.860   6.184  0.3930 -0.4806 -3.8294
  149bbb     H6 4301  11.172   9.899   6.171  0.7612 -1.4908  1.2825
  149bbb     C4 4302  11.304  10.052   6.259 -0.8741  0.1423  0.1655
  149bbb     H7 4303  11.286  10.149   6.211 -2.4989 -0.1979  0.0359
  149bbb     H8 4304  11.404  10.029   6.298 -1.2378 -1.3753  0.2973
  149bbb     C5 4305  11.477  10.119   5.889  0.3421  0.0462 -0.1590
  149bbb     H9 4306  11.437  10.100   5.789 -1.2684  2.1397  0.0349
  149bbb    H10 4307  11.583  10.130   5.863 -0.1515  0.6462 -2.0688
  149bbb     C6 4308  11.180  10.001   5.803  0.2852 -0.8457 -0.3276
  149bbb    H11 4309  11.251  10.001   5.719  0.0457  1.3554 -0.5916
  149bbb    H12 4310  11.171  10.104   5.839 -0.4552 -1.3023  0.8307
  149bbb     C7 4311  11.206  10.030   6.376 -0.0768  0.1164 -0.4191
  149bbb    H13 4312  11.244   9.937   6.420  2.7046  1.5163  0.4096
  149bbb    H14 4313  11.103  10.024   6.339  0.1823 -0.6745 -1.0412
  149bbb     C8 4314  11.041   9.960   5.748 -0.5127  0.0104 -0.4470
  149bbb    H15 4315  10.976   9.953   5.837  0.1773 -2.2827 -0.0585
  149bbb    H16 4316  11.048   9.862   5.701 -0.6099 -1.4009  2.2651
  149bbb     C9 4317  11.417  10.261   5.937 -0.1302 -0.1660 -0.1230
  149bbb    H17 4318  11.452  10.296   6.035  1.0831 -1.0593 -0.2256
  149bbb    H18 4319  11.311  10.238   5.950 -0.1594 -0.3169 -0.5953
  149bbb     O1 4320  11.223  10.129   6.478 -0.4868  0.6707 -0.3976
  150bbb     N1 4321  10.906  10.503   7.392  0.1050 -0.1626  0.1385
  150bbb     C1 4322  10.931  10.494   7.535  0.5962  0.2878  0.3550
  150bbb     H1 4323  10.832  10.486   7.581  0.4211 -1.1377 -0.2368
  150bbb     H2 4324  10.977  10.586   7.574 -0.3215  0.1719  1.7578
  150bbb     C2 4325  10.845  10.641   7.365  0.3709  0.1472 -0.3131
  150bbb     H3 4326  10.899  10.720   7.418  0.6049 -0.4054  0.2923
  150bbb     H4 4327  10.739  10.637   7.393 -0.0426  2.5892 -1.2504
  150bbb     C3 4328  10.844  10.382   7.328 -0.1301 -0.8840  0.1432
  150bbb     H5 4329  10.907  10.295   7.351  0.0666 -0.6792  0.3875
  150bbb     H6 4330  10.850  10.399   7.220  2.2758  3.1087  0.6730
  150bbb     C4 4331  10.697  10.355   7.377 -0.9695 -0.3005  0.4268
  150bbb     H7 4332  10.631  10.440   7.356  1.9423  1.3457 -3.4325
  150bbb     H8 4333  10.692  10.336   7.485 -1.0605 -1.8816  0.1623
  150bbb     C5 4334  11.015  10.372   7.583 -0.8418 -0.1595  0.1019
  150bbb     H9 4335  10.950  10.284   7.579  1.4086 -1.9013 -0.7652
  150bbb    H10 4336  11.043  10.387   7.688 -1.3449  0.7063  0.1282
  150bbb     C6 4337  10.828  10.666   7.215 -0.7835  0.2263  1.1897
  150bbb    H11 4338  10.769  10.586   7.170 -0.5819  0.3041  0.7749
  150bbb    H12 4339  10.923  10.660   7.159 -2.9077 -0.9018 -2.6411
  150bbb     C7 4340  10.650  10.221   7.317  0.2038  0.4128 -0.1914
  150bbb    H13 4341  10.546  10.214   7.350  0.8016  0.4755  1.8594
  150bbb    H14 4342  10.707  10.136   7.358  0.6755 -0.2557 -2.1104
  150bbb     C8 4343  10.754  10.798   7.183 -0.2770 -0.7564 -0.1055
  150bbb    H15 4344  10.658  10.802   7.235  0.1451  0.8695  0.5989
  150bbb    H16 4345  10.720  10.809   7.079 -0.1291 -1.1744 -0.2007
  150bbb     C9 4346  11.138  10.343   7.493  0.1189  0.1058 -0.0135
  150bbb    H17 4347  11.163  10.429   7.430  0.5286 -1.1845 -1.6775
  150bbb    H18 4348  11.107  10.264   7.424  0.1584 -0.3587  0.4887
  150bbb     O1 4349  10.668  10.205   7.174 -0.3385  0.2777  0.3010
  151bbb     N1 4350   7.582  12.415   7.759  0.1298 -0.1316 -0.0807
  151bbb     C1 4351   7.578  12.556   7.720  0.1770 -0.5671 -0.1759
  151bbb     H1 4352   7.584  12.559   7.610 -0.8110  1.1898 -0.2230
  151bbb     H2 4353   7.660  12.621   7.753 -0.4988  0.3272 -0.2102
  151bbb     C2 4354   7.469  12.330   7.703 -0.2254 -0.0873  0.4468
  151bbb     H3 4355   7.471  12.337   7.594 -2.3014  0.2071  0.3916
  151bbb     H4 4356   7.381  12.389   7.729  1.1868  2.0802  0.5431
  151bbb     C3 4357   7.715  12.354   7.756 -0.4229  0.9882 -0.7766
  151bbb     H5 4358   7.744  12.339   7.651  1.8755  0.3546 -0.1029
  151bbb     H6 4359   7.709  12.257   7.807 -3.4146  1.2643 -0.4071
  151bbb     C4 4360   7.827  12.435   7.833  0.1032  0.3272  0.4662
  151bbb     H7 4361   7.800  12.443   7.939 -1.2882  0.0570  0.1596
  151bbb     H8 4362   7.836  12.534   7.786  0.4833 -0.7483 -1.8585
  151bbb     C5 4363   7.453  12.643   7.749  0.2149 -0.2919  0.1227
  151bbb     H9 4364   7.455  12.673   7.854  1.6063 -1.2683  0.3940
  151bbb    H10 4365   7.362  12.581   7.748 -0.3388  0.4314 -2.1874
  151bbb     C6 4366   7.454  12.182   7.741  0.3644 -0.0392 -0.0045
  151bbb    H11 4367   7.538  12.131   7.692  1.8846  1.6451  0.7230
  151bbb    H12 4368   7.361  12.141   7.701 -0.1115 -0.2027  1.2158
  151bbb     C7 4369   7.958  12.357   7.821  0.5961  0.1006 -0.5573
  151bbb    H13 4370   7.948  12.251   7.844 -0.0308  0.4486  0.8794
  151bbb    H14 4371   8.039  12.399   7.882  1.5557 -1.9943 -0.2917
  151bbb     C8 4372   7.452  12.157   7.898 -0.3142  0.4992  0.1720
  151bbb    H15 4373   7.367  12.199   7.954 -0.6959 -2.9066  2.4905
  151bbb    H16 4374   7.535  12.207   7.950 -1.3281  1.5800  0.8192
  151bbb     C9 4375   7.422  12.757   7.649  0.4133  0.0287 -0.0118
  151bbb    H17 4376   7.327  12.801   7.684  0.1064 -0.7259  0.1253
  151bbb    H18 4377   7.408  12.701   7.556 -0.8205  0.1381  0.0839
  151bbb     O1 4378   8.013  12.371   7.689 -0.2251 -0.0318  0.2057
  152bbb     N1 4379   8.115  11.254   7.815 -0.0616  0.1039 -0.1148
  152bbb     C1 4380   8.096  11.200   7.949 -0.0862 -0.5260  0.1416
  152bbb     H1 4381   8.001  11.233   7.992  0.9889  1.0770  1.4187
  152bbb     H2 4382   8.168  11.251   8.013 -0.5578 -0.0844  0.3266
  152bbb     C2 4383   8.047  11.183   7.707 -0.4130  0.6028  0.4728
  152bbb     H3 4384   8.066  11.075   7.705  1.8563  0.9746 -0.1548
  152bbb     H4 4385   8.075  11.217   7.606 -0.9883 -0.9116 -0.2390
  152bbb     C3 4386   8.097  11.397   7.817  0.1073 -0.2260 -0.5670
  152bbb     H5 4387   8.127  11.437   7.914 -0.7050 -0.5675 -0.1743
  152bbb     H6 4388   7.990  11.419   7.811  0.2174 -0.0304 -4.7244
  152bbb     C4 4389   8.173  11.471   7.701  0.3691 -0.7892 -0.1896
  152bbb     H7 4390   8.124  11.444   7.606 -0.0835 -0.8961  0.0686
  152bbb     H8 4391   8.280  11.449   7.704  0.7603  0.8642 -1.1176
  152bbb     C5 4392   8.111  11.049   7.968 -0.0431 -0.4488  0.3885
  152bbb     H9 4393   8.209  11.019   7.931 -0.8331 -1.9485 -0.5918
  152bbb    H10 4394   8.034  11.002   7.906  1.1493  0.1574 -1.6333
  152bbb     C6 4395   7.894  11.201   7.708  0.3204  0.0535  0.1679
  152bbb    H11 4396   7.871  11.307   7.692  0.1161 -0.3594 -3.0183
  152bbb    H12 4397   7.846  11.177   7.803  0.0301  1.0172  0.2712
  152bbb     C7 4398   8.170  11.625   7.718  0.8190  0.5228  0.7927
  152bbb    H13 4399   8.223  11.649   7.811 -3.4289 -0.6525  3.8206
  152bbb    H14 4400   8.076  11.681   7.731 -0.2740 -1.0313 -0.0610
  152bbb     C8 4401   7.836  11.124   7.583  0.6384  0.4594 -0.2623
  152bbb    H15 4402   7.885  11.149   7.488 -0.7007  0.8008 -0.8785
  152bbb    H16 4403   7.729  11.147   7.581  0.3615 -0.1166  2.6048
  152bbb     C9 4404   8.113  10.994   8.113  0.1119  0.5290 -0.4428
  152bbb    H17 4405   8.189  11.039   8.178  1.3369 -0.2889 -1.2755
  152bbb    H18 4406   8.149  10.891   8.101 -2.3732 -0.4825  0.1071
  152bbb     O1 4407   8.255  11.664   7.605  0.2774  0.0307  0.5136
  153bbb     N1 4408   8.070  11.872   6.055  0.2815 -0.2287  0.2356
  153bbb     C1 4409   8.073  11.970   5.948  0.8208 -0.0644 -0.1496
  153bbb     H1 4410   8.022  11.934   5.858 -0.2113 -0.4867  0.5850
  153bbb     H2 4411   8.175  11.998   5.919  0.8604  0.9466  0.8855
  153bbb     C2 4412   8.143  11.900   6.182  0.4768 -0.7705  0.5301
  153bbb     H3 4413   8.156  11.806   6.238  0.5850  0.0778  1.9953
  153bbb     H4 4414   8.087  11.973   6.242  2.5680  0.3352  1.2243
  153bbb     C3 4415   7.946  11.801   6.074 -0.1531  0.0047 -0.2225
  153bbb     H5 4416   7.899  11.787   5.976  0.5121 -1.6186 -0.3394
  153bbb     H6 4417   7.874  11.859   6.133 -1.0911 -1.1126 -0.2167
  153bbb     C4 4418   7.955  11.667   6.148  1.0589  0.7585  0.4278
  153bbb     H7 4419   7.970  11.688   6.254 -2.5673 -1.5709  1.5777
  153bbb     H8 4420   8.037  11.608   6.105 -0.4121 -2.2468  1.4775
  153bbb     C5 4421   8.006  12.104   5.984  0.5669 -0.2424 -0.0630
  153bbb     H9 4422   8.046  12.144   6.078 -0.7236 -0.2870  0.5347
  153bbb    H10 4423   7.900  12.083   6.007  0.6357 -0.7213 -0.1557
  153bbb     C6 4424   8.279  11.959   6.159  0.2476 -0.3743 -0.1667
  153bbb    H11 4425   8.326  11.996   6.252  0.0059 -1.4798  0.4208
  153bbb    H12 4426   8.261  12.048   6.098  1.2075 -0.6463 -0.8678
  153bbb     C7 4427   7.827  11.586   6.138  0.2234  0.5563  0.0370
  153bbb    H13 4428   7.809  11.570   6.031 -2.4880  1.0615  0.3396
  153bbb    H14 4429   7.740  11.642   6.176 -1.1010 -1.1153 -0.3814
  153bbb     C8 4430   8.379  11.858   6.109  0.3127  0.3305 -0.5332
  153bbb    H15 4431   8.324  11.809   6.028 -1.1039 -0.7007  0.9861
  153bbb    H16 4432   8.407  11.785   6.185 -1.2478 -0.5737 -0.7960
  153bbb     C9 4433   8.000  12.203   5.867 -0.0618 -0.3021  0.3558
  153bbb    H17 4434   7.941  12.287   5.905  1.9555 -0.0237  3.2588
  153bbb    H18 4435   7.953  12.144   5.788  0.3270 -3.1538  2.0911
  153bbb     O1 4436   7.850  11.457   6.205 -0.8964 -0.4028 -0.3267
  154bbb     N1 4437   7.406  10.628   6.000  0.2190  0.6171 -0.0643
  154bbb     C1 4438   7.429  10.736   5.904 -0.6246 -0.2382 -0.3360
  154bbb     H1 4439   7.524  10.789   5.914 -1.8198  1.9877 -0.0553
  154bbb     H2 4440   7.354  10.814   5.924  0.2127  0.9165 -1.5072
  154bbb     C2 4441   7.442  10.489   5.946  0.5065  0.0681  0.3367
  154bbb     H3 4442   7.536  10.484   5.889  1.2556 -0.3491  1.5651
  154bbb     H4 4443   7.364  10.460   5.874  0.7629 -0.7896  0.3830
  154bbb     C3 4444   7.462  10.661   6.138  0.2381 -0.0143  0.3676
  154bbb     H5 4445   7.571  10.658   6.135  0.2227 -2.2025  0.2500
  154bbb     H6 4446   7.436  10.588   6.216 -0.6609  1.8737  1.9187
  154bbb     C4 4447   7.407  10.795   6.191 -0.0528  0.4327  0.3083
  154bbb     H7 4448   7.298  10.798   6.178 -0.0658 -3.0688 -1.6709
  154bbb     H8 4449   7.458  10.876   6.138  1.4468  1.0836  2.5833
  154bbb     C5 4450   7.416  10.698   5.753  0.1827 -0.7721  0.1360
  154bbb     H9 4451   7.320  10.646   5.746 -0.7945  1.0309 -0.4983
  154bbb    H10 4452   7.485  10.626   5.707  1.0719 -0.7108  1.3141
  154bbb     C6 4453   7.452  10.378   6.052  0.6334  0.5401  0.1028
  154bbb    H11 4454   7.530  10.401   6.125  0.3787 -1.0803  0.9282
  154bbb    H12 4455   7.492  10.297   5.990 -0.1292 -0.0922  0.4097
  154bbb     C7 4456   7.429  10.822   6.342 -0.0436 -0.0951 -0.0918
  154bbb    H13 4457   7.349  10.772   6.397 -2.5307  1.9404 -1.6430
  154bbb    H14 4458   7.411  10.929   6.356 -0.3283 -0.2723  0.9326
  154bbb     C8 4459   7.316  10.325   6.107  0.0952 -0.3377 -1.0101
  154bbb    H15 4460   7.260  10.273   6.028  1.0517  0.4382 -2.2298
  154bbb    H16 4461   7.257  10.411   6.142 -0.8013 -0.9398 -0.9940
  154bbb     C9 4462   7.401  10.833   5.672  0.5185  0.2989  0.0169
  154bbb    H17 4463   7.310  10.886   5.703  0.3632  0.7768 -1.1871
  154bbb    H18 4464   7.388  10.808   5.566  0.3557  1.2732 -0.2017
  154bbb     O1 4465   7.562  10.781   6.383 -0.0379  0.2437  0.1119
  155bbb     N1 4466   9.055  12.273   8.035  0.7808  0.4780 -0.1902
  155bbb     C1 4467   9.171  12.186   8.012  0.3304 -0.7025  0.1945
  155bbb     H1 4468   9.237  12.206   8.098 -0.2670  2.3191  0.0667
  155bbb     H2 4469   9.224  12.202   7.917 -0.0752 -0.1052  0.0652
  155bbb     C2 4470   9.028  12.280   8.178 -0.2722 -0.0834 -0.2465
  155bbb     H3 4471   9.106  12.344   8.223  0.5182 -0.5190 -0.9657
  155bbb     H4 4472   9.037  12.183   8.229 -0.4247  0.5653  1.0479
  155bbb     C3 4473   8.940  12.256   7.938  0.0850  0.1417  0.2863
  155bbb     H5 4474   8.863  12.332   7.950  0.4764  0.6952 -0.6151
  155bbb     H6 4475   8.888  12.160   7.948 -0.0927 -0.1741 -2.7018
  155bbb     C4 4476   8.985  12.268   7.790  0.2027 -0.3166  0.1674
  155bbb     H7 4477   9.066  12.196   7.772 -0.1635 -1.0308  1.2883
  155bbb     H8 4478   9.028  12.368   7.777 -0.4875 -0.1230 -0.8012
  155bbb     C5 4479   9.148  12.035   8.040 -0.2297 -0.1769  0.3162
  155bbb     H9 4480   9.085  11.989   7.963  0.1390 -1.1125  0.5572
  155bbb    H10 4481   9.092  12.018   8.133 -0.1779  0.8548  0.5471
  155bbb     C6 4482   8.891  12.339   8.225  0.2254  0.3072 -0.0104
  155bbb    H11 4483   8.868  12.314   8.329  0.9909 -1.9113 -0.3236
  155bbb    H12 4484   8.823  12.280   8.163  1.4378  1.3778 -2.5010
  155bbb     C7 4485   8.876  12.249   7.685  0.2214 -0.0842  0.7406
  155bbb    H13 4486   8.922  12.289   7.593 -0.2690  1.5240  1.1555
  155bbb    H14 4487   8.781  12.299   7.708 -0.4861 -0.9128 -0.2699
  155bbb     C8 4488   8.870  12.489   8.191 -0.5524 -0.2873 -0.1777
  155bbb    H15 4489   8.875  12.509   8.083  0.3794  0.6474  0.0281
  155bbb    H16 4490   8.946  12.553   8.237  0.5987 -1.3757 -0.5074
  155bbb     C9 4491   9.274  11.951   8.048 -0.2807  0.8850 -0.5832
  155bbb    H17 4492   9.244  11.845   8.055  0.1433  0.6926 -1.5687
  155bbb    H18 4493   9.325  11.977   8.141  2.0264  0.2608 -1.6188
  155bbb     O1 4494   8.860  12.110   7.661  0.4660  0.2965  0.1597
  156bbb     N1 4495   8.619  11.987   8.474  0.5430  0.0729  0.6605
  156bbb     C1 4496   8.567  11.926   8.597  0.5857 -0.1585  0.1105
  156bbb     H1 4497   8.471  11.879   8.575  1.8823 -1.7520 -2.7148
  156bbb     H2 4498   8.546  12.003   8.672  0.4060 -0.2406  0.1443
  156bbb     C2 4499   8.525  12.083   8.414  0.1406  0.2780 -0.0952
  156bbb     H3 4500   8.428  12.035   8.393 -1.2148  1.7673  2.2578
  156bbb     H4 4501   8.561  12.121   8.318 -2.6119 -1.4602 -1.9718
  156bbb     C3 4502   8.693  11.902   8.375  0.1708 -0.4326  0.4109
  156bbb     H5 4503   8.620  11.835   8.329  2.7904 -0.9740 -3.3885
  156bbb     H6 4504   8.767  11.838   8.423  1.2629  0.4661 -0.0219
  156bbb     C4 4505   8.755  11.976   8.263 -0.2934 -0.3223 -0.2483
  156bbb     H7 4506   8.806  12.066   8.300  1.9338 -1.5114 -0.2871
  156bbb     H8 4507   8.677  12.008   8.193  0.0604 -2.3232 -1.6305
  156bbb     C5 4508   8.647  11.816   8.659 -0.0428  0.4779  0.9566
  156bbb     H9 4509   8.752  11.842   8.673  0.1977  0.7897 -1.1097
  156bbb    H10 4510   8.644  11.730   8.592  1.0058  1.7687 -0.8109
  156bbb     C6 4511   8.503  12.207   8.492  0.1361 -0.3541  0.1601
  156bbb    H11 4512   8.596  12.264   8.506 -0.1855 -0.3488  2.7321
  156bbb    H12 4513   8.481  12.190   8.598 -1.9140  0.0673 -0.1522
  156bbb     C7 4514   8.854  11.886   8.186 -0.4004  0.1551 -0.0931
  156bbb    H13 4515   8.941  11.866   8.250  0.4061 -1.7826 -1.6979
  156bbb    H14 4516   8.883  11.940   8.095  1.0422 -2.4061 -1.2251
  156bbb     C8 4517   8.404  12.304   8.436  0.8683 -0.2984 -0.0548
  156bbb    H15 4518   8.310  12.249   8.422  0.1883  0.4505  1.3846
  156bbb    H16 4519   8.430  12.331   8.333 -1.8779 -1.1875 -1.0675
  156bbb     C9 4520   8.588  11.771   8.797  0.3439 -0.1619  0.4648
  156bbb    H17 4521   8.482  11.742   8.792  0.9977 -2.6800 -1.6046
  156bbb    H18 4522   8.600  11.841   8.880 -0.2860 -0.4501  0.8102
  156bbb     O1 4523   8.803  11.749   8.163  0.1974 -0.0551 -0.2100
  157bbb     N1 4524  10.251  12.034   6.932  0.2112  0.1474 -0.4032
  157bbb     C1 4525  10.381  11.966   6.925 -0.6076  0.9879  0.0091
  157bbb     H1 4526  10.363  11.859   6.945  2.5529  0.2828 -0.4784
  157bbb     H2 4527  10.446  12.008   7.002  0.2342 -0.4312  0.1047
  157bbb     C2 4528  10.210  12.037   7.073  0.1042 -0.2374 -0.8209
  157bbb     H3 4529  10.300  12.050   7.135  0.3053  0.7409 -1.2817
  157bbb     H4 4530  10.174  11.941   7.111 -0.6064  0.2721 -0.1735
  157bbb     C3 4531  10.144  11.998   6.837 -0.2326 -0.3483 -0.5520
  157bbb     H5 4532  10.160  12.026   6.732  0.6959  0.3721 -0.2322
  157bbb     H6 4533  10.058  12.066   6.847 -1.4624 -1.6387 -1.9557
  157bbb     C4 4534  10.089  11.854   6.838  0.5579  0.0173 -0.2123
  157bbb     H7 4535  10.067  11.835   6.944 -1.9690  1.0344 -0.4671
  157bbb     H8 4536  10.164  11.780   6.809  1.5120  1.0202 -0.3503
  157bbb     C5 4537  10.444  11.981   6.789  0.0795 -0.7070 -0.1204
  157bbb     H9 4538  10.444  12.089   6.768 -2.3210 -0.3861  1.1469
  157bbb    H10 4539  10.376  11.933   6.718  0.6235  1.0829 -1.9356
  157bbb     C6 4540  10.099  12.133   7.115 -0.0825 -0.5972 -0.0810
  157bbb    H11 4541  10.020  12.133   7.039  0.3802 -1.2794 -0.5706
  157bbb    H12 4542  10.140  12.234   7.100 -0.4978 -0.6501 -1.8550
  157bbb     C7 4543   9.957  11.842   6.758  0.2958 -0.0192 -0.2439
  157bbb    H13 4544   9.929  11.736   6.762  1.9574 -0.4957 -0.6305
  157bbb    H14 4545   9.964  11.871   6.652 -0.3183  1.7092  0.1689
  157bbb     C8 4546  10.036  12.130   7.248 -0.4522 -0.2795 -1.1112
  157bbb    H15 4547  10.112  12.161   7.322 -0.0633  0.3758 -1.7678
  157bbb    H16 4548  10.025  12.023   7.268  0.4694  0.0538  1.7744
  157bbb     C9 4549  10.587  11.923   6.774 -0.8008  0.0227 -0.2256
  157bbb    H17 4550  10.619  11.962   6.676  0.5523 -2.8107 -1.0054
  157bbb    H18 4551  10.571  11.816   6.761 -1.7705  0.0287  0.7789
  157bbb     O1 4552   9.859  11.934   6.811 -0.0108 -0.2262 -0.2032
  158bbb     N1 4553   9.981  12.612   7.303  0.0683 -0.4592  0.6272
  158bbb     C1 4554  10.113  12.533   7.308  0.1555 -0.6280 -0.4511
  158bbb     H1 4555  10.161  12.517   7.211 -1.2937  2.3960 -1.7823
  158bbb     H2 4556  10.092  12.434   7.351 -0.2487  0.4071  1.8966
  158bbb     C2 4557   9.930  12.658   7.431  0.4388  0.0992  0.4634
  158bbb     H3 4558   9.867  12.747   7.420  0.2955  0.1168  1.3766
  158bbb     H4 4559  10.017  12.698   7.485  0.3478  0.3555  0.4227
  158bbb     C3 4560   9.877  12.570   7.204  0.1584  0.0270  0.6762
  158bbb     H5 4561   9.819  12.662   7.189  0.0986  0.1486  1.5788
  158bbb     H6 4562   9.807  12.493   7.239  0.4295 -1.3616 -1.6787
  158bbb     C4 4563   9.933  12.510   7.068  0.0329  0.1917 -0.0817
  158bbb     H7 4564   9.994  12.421   7.090 -1.2728 -1.1420 -1.5949
  158bbb     H8 4565   9.997  12.576   7.008  1.0851 -0.8461 -0.1404
  158bbb     C5 4566  10.223  12.596   7.399  0.1444 -0.2053 -0.0600
  158bbb     H9 4567  10.211  12.576   7.506 -0.6818  1.0712  0.1132
  158bbb    H10 4568  10.215  12.706   7.395  0.5125 -0.0549  2.0672
  158bbb     C6 4569   9.862  12.556   7.517  0.8122  0.5245  0.1277
  158bbb    H11 4570   9.919  12.463   7.510 -1.7163 -1.0248 -1.3891
  158bbb    H12 4571   9.760  12.540   7.479  0.5372  1.7523  0.2994
  158bbb     C7 4572   9.827  12.437   6.982 -0.7783  0.1527 -0.2565
  158bbb    H13 4573   9.783  12.357   7.043 -2.2203 -0.0661 -1.5151
  158bbb    H14 4574   9.873  12.386   6.897 -0.0121 -0.1993  0.3571
  158bbb     C8 4575   9.852  12.592   7.665  0.7476  0.3470  0.4590
  158bbb    H15 4576   9.823  12.697   7.672 -0.8919 -0.0841  0.5637
  158bbb    H16 4577   9.947  12.573   7.715  0.5309 -1.0845  0.3742
  158bbb     C9 4578  10.373  12.553   7.365  0.1997 -0.1731  0.4329
  158bbb    H17 4579  10.437  12.599   7.442  0.7080 -1.0006  0.5154
  158bbb    H18 4580  10.397  12.582   7.262  0.9046 -2.1963 -0.0097
  158bbb     O1 4581   9.734  12.539   6.943 -0.1260  0.4608 -0.4570
  159bbb     N1 4582  11.071   8.396   9.146  0.1152 -0.5092  0.0030
  159bbb     C1 4583  10.972   8.393   9.261  0.4866 -0.2430  0.0710
  159bbb     H1 4584  10.995   8.468   9.338 -2.6441  0.8937 -0.0018
  159bbb     H2 4585  10.985   8.297   9.313  0.4511 -0.0712  0.4025
  159bbb     C2 4586  11.071   8.523   9.066  0.1961 -0.5103  0.2665
  159bbb     H3 4587  10.977   8.536   9.010  0.8053  0.9513 -0.4666
  159bbb     H4 4588  11.144   8.509   8.985 -1.4843 -0.1601 -1.3895
  159bbb     C3 4589  11.064   8.274   9.064  0.0010  0.3321  0.0965
  159bbb     H5 4590  10.962   8.255   9.027 -1.0012  1.4828  2.0784
  159bbb     H6 4591  11.089   8.200   9.140  0.7054  1.2960  0.8348
  159bbb     C4 4592  11.173   8.255   8.956  0.5339 -0.7714  0.1200
  159bbb     H7 4593  11.261   8.305   8.997 -0.7483  0.0860  1.9549
  159bbb     H8 4594  11.149   8.311   8.865  1.5422  0.2920  0.4900
  159bbb     C5 4595  10.821   8.413   9.224  0.5780 -0.0360 -0.0333
  159bbb     H9 4596  10.811   8.372   9.123 -0.0691 -0.0643  0.0409
  159bbb    H10 4597  10.797   8.520   9.232 -0.4703 -0.3858  2.3527
  159bbb     C6 4598  11.112   8.646   9.155 -0.0140 -0.2163 -0.0273
  159bbb    H11 4599  11.029   8.666   9.224 -0.3471  3.3959 -1.2191
  159bbb    H12 4600  11.109   8.732   9.087 -2.7885  1.1874  1.6776
  159bbb     C7 4601  11.182   8.106   8.908 -0.1822 -0.6855 -0.5705
  159bbb    H13 4602  11.165   8.038   8.992 -0.3606 -0.3044 -0.2930
  159bbb    H14 4603  11.283   8.089   8.868  1.2211  3.0664  0.9068
  159bbb     C8 4604  11.236   8.629   9.242 -0.7380  0.0453  0.6904
  159bbb    H15 4605  11.315   8.582   9.182 -0.2739 -2.0176  2.7807
  159bbb    H16 4606  11.212   8.559   9.323 -1.9912  1.5872  1.7011
  159bbb     C9 4607  10.717   8.348   9.326 -0.4023  0.8579  0.0349
  159bbb    H17 4608  10.615   8.387   9.315 -0.8699  0.1810  1.6681
  159bbb    H18 4609  10.745   8.373   9.429 -2.6714 -1.6811  1.3799
  159bbb     O1 4610  11.086   8.086   8.800 -0.0210  0.2991  0.0976
  160bbb     N1 4611  11.577   8.211   9.171 -0.1702  0.3064  0.0347
  160bbb     C1 4612  11.655   8.336   9.136 -0.4974  0.1040 -0.2219
  160bbb     H1 4613  11.607   8.383   9.050 -2.9330 -0.9570  0.4577
  160bbb     H2 4614  11.757   8.314   9.104 -1.6380 -1.6016 -3.0761
  160bbb     C2 4615  11.453   8.247   9.240 -0.3272  0.5035  0.5955
  160bbb     H3 4616  11.398   8.317   9.176  0.9011  0.2826 -0.7294
  160bbb     H4 4617  11.477   8.300   9.333  2.0471  0.8041 -0.1287
  160bbb     C3 4618  11.566   8.114   9.065  0.3505  0.6887 -0.0187
  160bbb     H5 4619  11.508   8.149   8.979 -2.3854 -0.1128  1.4002
  160bbb     H6 4620  11.518   8.022   9.097 -0.0542  0.1986 -1.9040
  160bbb     C4 4621  11.684   8.071   8.979 -0.5104 -0.2746  0.5410
  160bbb     H7 4622  11.768   8.036   9.041  1.2010 -0.5283 -1.7674
  160bbb     H8 4623  11.719   8.157   8.921 -1.1758 -0.4515 -0.1311
  160bbb     C5 4624  11.676   8.433   9.259  0.1866 -0.1878 -0.5409
  160bbb     H9 4625  11.740   8.387   9.336 -1.4841  0.2779  1.1934
  160bbb    H10 4626  11.589   8.464   9.317  0.8944 -2.0400  1.6494
  160bbb     C6 4627  11.368   8.122   9.281 -0.2808  0.5822  0.0816
  160bbb    H11 4628  11.442   8.050   9.319 -0.9479 -0.1160  0.0627
  160bbb    H12 4629  11.328   8.075   9.190  2.0456 -2.8050  0.6175
  160bbb     C7 4630  11.645   7.960   8.879 -1.1138 -0.3212  0.3083
  160bbb    H13 4631  11.605   7.872   8.932 -1.2191  1.1986  2.9301
  160bbb    H14 4632  11.727   7.929   8.813 -1.2428  0.2856 -0.1412
  160bbb     C8 4633  11.254   8.154   9.377  0.1103  0.5166  0.1796
  160bbb    H15 4634  11.207   8.244   9.335  0.6789  0.5631 -0.3628
  160bbb    H16 4635  11.282   8.174   9.482 -1.6802 -1.7046  1.1680
  160bbb     C9 4636  11.747   8.565   9.210 -0.2217 -0.0020 -0.1471
  160bbb    H17 4637  11.677   8.636   9.166 -0.5553 -0.2714 -0.0611
  160bbb    H18 4638  11.818   8.538   9.131 -0.3495  2.2812 -1.1074
  160bbb     O1 4639  11.558   8.026   8.783  0.2257 -0.3751 -0.0517
  161bbb     N1 4640  11.038   8.624   7.945 -0.3360  0.8256 -0.1270
  161bbb     C1 4641  10.954   8.540   7.850  0.3920  0.3657 -0.8061
  161bbb     H1 4642  10.939   8.585   7.751  0.5029  0.2781 -0.8628
  161bbb     H2 4643  10.858   8.531   7.902  0.3705 -0.3719 -0.9618
  161bbb     C2 4644  10.982   8.759   7.972  0.3073  1.1346 -0.1285
  161bbb     H3 4645  10.941   8.805   7.882  1.8931  1.7712 -0.5721
  161bbb     H4 4646  11.067   8.819   8.009  0.7294  0.5586 -0.1508
  161bbb     C3 4647  11.086   8.543   8.066  0.8638 -0.1282  0.3129
  161bbb     H5 4648  11.134   8.449   8.036 -1.3260 -1.7968  1.7743
  161bbb     H6 4649  10.999   8.520   8.129 -0.7306  2.2589 -0.8857
  161bbb     C4 4650  11.180   8.627   8.151  0.7022 -0.9273 -0.3434
  161bbb     H7 4651  11.119   8.714   8.182  1.1574 -0.4808 -0.6901
  161bbb     H8 4652  11.269   8.656   8.094  2.1027 -1.2474  1.5847
  161bbb     C5 4653  10.997   8.397   7.821 -0.9803 -0.3270 -0.0554
  161bbb     H9 4654  10.918   8.355   7.758 -0.5505 -1.2444 -0.0131
  161bbb    H10 4655  11.010   8.339   7.914  1.7462  2.8484  1.7657
  161bbb     C6 4656  10.858   8.748   8.070 -0.2483  0.7380 -0.1187
  161bbb    H11 4657  10.886   8.694   8.161 -1.4739 -1.0561 -0.7412
  161bbb    H12 4658  10.778   8.686   8.026  0.0319 -0.9016  1.5434
  161bbb     C7 4659  11.229   8.542   8.267  0.0942  0.7179 -0.5428
  161bbb    H13 4660  11.304   8.603   8.319  0.2093 -0.1092  0.2835
  161bbb    H14 4661  11.271   8.446   8.233 -0.1348  0.2120  0.5641
  161bbb     C8 4662  10.797   8.886   8.100  0.0411 -0.1917 -0.0105
  161bbb    H15 4663  10.705   8.873   8.158 -1.6073 -1.3906 -2.7095
  161bbb    H16 4664  10.878   8.927   8.162  0.9897 -0.1745 -1.2189
  161bbb     C9 4665  11.136   8.401   7.737 -0.6286 -0.5816  0.1622
  161bbb    H17 4666  11.221   8.424   7.803 -0.7703  0.7743 -0.1023
  161bbb    H18 4667  11.125   8.478   7.659 -1.0920 -0.8514 -0.0446
  161bbb     O1 4668  11.122   8.507   8.347 -0.1799  0.0086  0.0053
  162bbb     N1 4669  10.261   8.578   9.325 -0.3745  0.3314  0.3600
  162bbb     C1 4670  10.295   8.687   9.425  0.5957 -0.1851  0.1443
  162bbb     H1 4671  10.307   8.778   9.365  0.6413 -0.6534 -0.5762
  162bbb     H2 4672  10.392   8.670   9.473  1.2110 -1.2278 -1.3596
  162bbb     C2 4673  10.135   8.591   9.254 -0.1111 -0.0330  0.2243
  162bbb     H3 4674  10.138   8.684   9.194 -0.1343  0.4394  0.9403
  162bbb     H4 4675  10.064   8.585   9.337  2.3656 -1.6276  2.3723
  162bbb     C3 4676  10.371   8.557   9.227 -0.5056  0.8222  0.5167
  162bbb     H5 4677  10.359   8.463   9.173 -1.1831  1.9534 -1.4031
  162bbb     H6 4678  10.462   8.555   9.288 -0.4701  1.8110  0.5143
  162bbb     C4 4679  10.390   8.666   9.115  0.2347  0.2678  0.1162
  162bbb     H7 4680  10.376   8.763   9.164  1.0160  0.6582 -0.4011
  162bbb     H8 4681  10.311   8.658   9.039 -0.5349  3.2271  0.4775
  162bbb     C5 4682  10.195   8.712   9.540 -0.0099  0.1142 -0.6839
  162bbb     H9 4683  10.105   8.757   9.495 -0.1882 -1.0997 -1.6017
  162bbb    H10 4684  10.244   8.783   9.608 -2.5340  1.3242 -0.0070
  162bbb     C6 4685  10.080   8.474   9.174  0.2633 -0.0125 -0.1313
  162bbb    H11 4686  10.073   8.379   9.229 -0.9074 -0.1533 -0.4906
  162bbb    H12 4687  10.143   8.464   9.085 -0.3251  3.4048 -1.0363
  162bbb     C7 4688  10.528   8.668   9.049  0.5385 -0.3302  0.6362
  162bbb    H13 4689  10.610   8.678   9.121  0.8952 -0.5982  0.2713
  162bbb    H14 4690  10.535   8.757   8.986  2.2973 -1.1905 -0.4697
  162bbb     C8 4691   9.931   8.493   9.129  1.1110  0.4178  0.4070
  162bbb    H15 4692   9.902   8.589   9.084 -0.5414 -0.6535 -0.9275
  162bbb    H16 4693   9.864   8.482   9.215 -0.8279 -2.5007 -1.2832
  162bbb     C9 4694  10.168   8.578   9.618 -1.1474 -0.0961  0.7466
  162bbb    H17 4695  10.128   8.507   9.545  1.3551 -0.9041  0.0744
  162bbb    H18 4696  10.088   8.587   9.693 -0.0795  1.3559  1.7848
  162bbb     O1 4697  10.548   8.542   8.975 -0.1336  0.1953 -0.6948
  163bbb     N1 4698   8.849   8.523   5.379  0.2115 -0.2394  0.3401
  163bbb     C1 4699   8.757   8.607   5.462  0.1898  0.0176 -0.4333
  163bbb     H1 4700   8.698   8.676   5.400 -0.4025  1.1447  1.3042
  163bbb     H2 4701   8.818   8.673   5.524  2.0980 -2.4342  0.4583
  163bbb     C2 4702   8.924   8.626   5.299  0.0203  0.6483  0.0234
  163bbb     H3 4703   8.986   8.684   5.368  1.2182 -0.9332  0.3411
  163bbb     H4 4704   8.849   8.692   5.254  1.7810  0.4119 -3.5828
  163bbb     C3 4705   8.916   8.407   5.437 -0.1294 -0.5862 -0.2037
  163bbb     H5 4706   8.956   8.351   5.352 -1.1107 -2.0720  0.2749
  163bbb     H6 4707   8.847   8.335   5.482  0.4661 -0.0143  1.7305
  163bbb     C4 4708   9.025   8.439   5.538 -0.1663 -0.7378  0.8068
  163bbb     H7 4709   8.971   8.468   5.629  0.0933  0.3202  0.6383
  163bbb     H8 4710   9.079   8.530   5.509  0.7094 -1.5806 -0.3245
  163bbb     C5 4711   8.657   8.523   5.548 -0.3197 -0.2616  0.1801
  163bbb     H9 4712   8.708   8.467   5.627  0.9517 -0.0908 -0.4937
  163bbb    H10 4713   8.607   8.449   5.484  0.8968 -0.1708 -0.9201
  163bbb     C6 4714   9.027   8.573   5.193  0.2828  0.0611  0.1525
  163bbb    H11 4715   8.957   8.519   5.128  0.2634  0.5844 -0.2770
  163bbb    H12 4716   9.104   8.510   5.239  0.2542  1.0389  1.5943
  163bbb     C7 4717   9.134   8.336   5.559 -0.0268 -0.7393 -0.0512
  163bbb    H13 4718   9.203   8.375   5.635 -0.1462 -0.5003 -0.0637
  163bbb    H14 4719   9.204   8.318   5.476  0.7272  0.3757  0.3180
  163bbb     C8 4720   9.095   8.682   5.112  0.2202  0.0190  0.5511
  163bbb    H15 4721   9.167   8.727   5.181  0.9327 -1.1914  0.6222
  163bbb    H16 4722   9.027   8.760   5.073 -1.1743 -1.1374  0.5665
  163bbb     C9 4723   8.551   8.617   5.609 -0.1888 -0.3567  0.5483
  163bbb    H17 4724   8.590   8.671   5.696 -2.2575 -1.4184  2.2202
  163bbb    H18 4725   8.474   8.554   5.657 -3.1240  2.8878  0.4727
  163bbb     O1 4726   9.084   8.205   5.594 -0.3851  0.1085  0.2010
  164bbb     N1 4727  10.153   8.002   6.231 -0.7269 -0.7819 -0.2020
  164bbb     C1 4728  10.300   7.959   6.204  0.4033  1.1194 -0.2598
  164bbb     H1 4729  10.366   8.036   6.164 -0.0389  1.0654 -1.1021
  164bbb     H2 4730  10.296   7.874   6.135 -0.3373  1.5155 -0.7224
  164bbb     C2 4731  10.059   7.888   6.256  0.3389 -0.0593 -0.3799
  164bbb     H3 4732  10.091   7.829   6.343  1.7561 -0.3402 -1.0602
  164bbb     H4 4733  10.050   7.822   6.170 -0.3763 -0.5481  0.0560
  164bbb     C3 4734  10.120   8.097   6.118  0.2213  0.6200 -0.6389
  164bbb     H5 4735  10.207   8.162   6.101  2.3267 -0.7576  3.4513
  164bbb     H6 4736  10.034   8.161   6.143  0.6696  0.6139  1.0787
  164bbb     C4 4737  10.095   8.019   5.985 -0.1674 -0.0160 -0.7673
  164bbb     H7 4738  10.028   7.936   6.011 -0.9032  0.5509 -0.8016
  164bbb     H8 4739  10.189   7.977   5.948  0.9189 -1.9279  3.5995
  164bbb     C5 4740  10.372   7.898   6.323  0.4308 -0.3930 -0.5299
  164bbb     H9 4741  10.475   7.879   6.290  1.4840 -1.3221  2.8182
  164bbb    H10 4742  10.322   7.803   6.344  1.1620 -0.6325  0.1664
  164bbb     C6 4743   9.913   7.937   6.291  0.2775  0.2509 -0.3820
  164bbb    H11 4744   9.877   8.001   6.209 -0.1362  0.9477  0.3320
  164bbb    H12 4745   9.906   7.997   6.383 -1.7729 -0.2767 -0.1603
  164bbb     C7 4746  10.024   8.104   5.877 -0.3551  0.2920  0.6164
  164bbb    H13 4747  10.015   8.050   5.783  1.0717 -0.3930  0.8552
  164bbb    H14 4748  10.090   8.191   5.863 -1.6090  1.1256 -0.4160
  164bbb     C8 4749   9.816   7.819   6.298 -0.1014 -0.3985 -0.2129
  164bbb    H15 4750   9.798   7.788   6.195 -0.0327  0.5617 -0.5285
  164bbb    H16 4751   9.717   7.855   6.328  0.0978  1.4998 -1.6313
  164bbb     C9 4752  10.368   7.987   6.453  0.1211  0.6010 -0.1763
  164bbb    H17 4753  10.263   8.008   6.476  0.0362 -0.0952  0.0966
  164bbb    H18 4754  10.425   8.077   6.427  3.9080 -0.5739  3.1009
  164bbb     O1 4755   9.895   8.140   5.927 -0.6137 -0.0118  0.0277
  165bbb     N1 4756  11.408   9.134   7.019  0.5145  0.5950  0.1750
  165bbb     C1 4757  11.543   9.072   6.975 -0.3617 -0.7199  0.6814
  165bbb     H1 4758  11.528   9.006   6.889 -2.1236  1.4079 -0.7667
  165bbb     H2 4759  11.580   9.011   7.059 -1.6406 -0.9578  1.0900
  165bbb     C2 4760  11.423   9.240   7.122 -0.0495 -0.0908  0.2250
  165bbb     H3 4761  11.329   9.281   7.162  0.8801  1.6379  0.7360
  165bbb     H4 4762  11.490   9.316   7.081  0.1159 -0.0090  0.6403
  165bbb     C3 4763  11.318   9.176   6.905  0.4801 -0.0526  0.3204
  165bbb     H5 4764  11.400   9.213   6.842  0.7927  0.5298  1.0588
  165bbb     H6 4765  11.316   9.276   6.948  1.1207 -1.2513  3.3994
  165bbb     C4 4766  11.093   9.076   6.805  0.6509  0.0576  0.6347
  165bbb     H7 4767  11.031   9.138   6.739  0.7182 -0.2236  0.3034
  165bbb     H8 4768  11.005   9.072   6.869  0.0265  1.5073 -0.0740
  165bbb     C5 4769  11.657   9.170   6.929 -0.2859 -0.1543  0.0796
  165bbb     H9 4770  11.680   9.237   7.012  1.5934 -0.4988 -0.1343
  165bbb    H10 4771  11.621   9.233   6.847  0.2114  1.1059  0.8131
  165bbb     C6 4772  11.496   9.184   7.248 -0.0182  0.0216 -0.7690
  165bbb    H11 4773  11.509   9.270   7.315  3.2109  0.4395 -1.7183
  165bbb    H12 4774  11.602   9.159   7.232 -0.5992 -2.1289 -1.5698
  165bbb     C7 4775  11.052   8.942   6.726 -0.0310  0.0599  0.8004
  165bbb    H13 4776  11.102   8.849   6.754  2.2194  1.2604  0.9652
  165bbb    H14 4777  11.082   8.958   6.622 -1.3925  0.1405  0.3978
  165bbb     C8 4778  11.422   9.066   7.315 -0.3113 -0.3748 -0.1537
  165bbb    H15 4779  11.423   8.984   7.241 -0.8302  0.5144 -1.1747
  165bbb    H16 4780  11.319   9.098   7.333  0.5266  1.4425  1.7149
  165bbb     C9 4781  11.786   9.105   6.890  0.6488  0.3804 -0.0888
  165bbb    H17 4782  11.785   9.056   6.792 -0.2759 -0.4001  0.2861
  165bbb    H18 4783  11.807   9.017   6.952 -0.0884  0.8756  0.8947
  165bbb     O1 4784  10.907   8.926   6.741  0.3369  0.2102 -0.4680
  166bbb     N1 4785  11.269   8.084   6.747 -0.4111  0.7853  0.1677
  166bbb     C1 4786  11.198   8.203   6.800  0.3690  0.1564 -0.1184
  166bbb     H1 4787  11.200   8.281   6.723  1.4978 -0.3974 -0.6804
  166bbb     H2 4788  11.255   8.245   6.883  2.8195 -1.4790 -0.8389
  166bbb     C2 4789  11.416   8.115   6.745  0.9749 -1.2461  0.3805
  166bbb     H3 4790  11.442   8.173   6.834 -0.3070 -0.8917  0.5559
  166bbb     H4 4791  11.435   8.177   6.657  1.3074 -0.8357  0.7377
  166bbb     C3 4792  11.228   8.004   6.633  0.5622 -0.1302  1.0251
  166bbb     H5 4793  11.119   8.000   6.641  0.3577  0.0440 -1.1356
  166bbb     H6 4794  11.266   7.900   6.632  0.7786 -0.1491 -2.7433
  166bbb     C4 4795  11.258   8.056   6.488  0.1799  0.4871  0.4812
  166bbb     H7 4796  11.199   7.984   6.431 -0.6137  0.6650  1.0691
  166bbb     H8 4797  11.363   8.034   6.462 -0.5270 -0.9693 -1.3653
  166bbb     C5 4798  11.054   8.177   6.848  0.4631  0.1585 -0.8117
  166bbb     H9 4799  11.052   8.103   6.930 -1.0737  1.7396  0.6671
  166bbb    H10 4800  10.988   8.146   6.766 -2.7023  1.8286  0.8884
  166bbb     C6 4801  11.503   7.997   6.756 -0.4019  0.8582 -0.1625
  166bbb    H11 4802  11.606   8.032   6.752  0.1620 -0.7172 -0.0034
  166bbb    H12 4803  11.498   7.928   6.670 -0.5773 -0.6909  1.0464
  166bbb     C7 4804  11.234   8.209   6.465 -0.1326 -0.1860 -0.4068
  166bbb    H13 4805  11.266   8.238   6.364 -0.4788 -0.4948 -0.6093
  166bbb    H14 4806  11.293   8.261   6.541 -0.2163 -0.4546 -0.1577
  166bbb     C8 4807  11.484   7.921   6.893 -0.1360  0.2264  0.3165
  166bbb    H15 4808  11.533   7.822   6.888 -1.9630 -0.7794  1.2939
  166bbb    H16 4809  11.375   7.914   6.883 -0.7789  6.1074 -0.3980
  166bbb     C9 4810  11.004   8.315   6.904  0.6153  0.1079  0.0235
  166bbb    H17 4811  10.895   8.308   6.912  0.5933 -0.6443 -0.8088
  166bbb    H18 4812  11.025   8.391   6.828 -0.1193  1.1321  0.8216
  166bbb     O1 4813  11.099   8.243   6.489  0.2183  0.7329 -0.4858
  167bbb     N1 4814   7.338   8.414   8.522 -0.2040 -0.1128  0.4531
  167bbb     C1 4815   7.393   8.524   8.443  0.4503 -1.0879 -0.4157
  167bbb     H1 4816   7.477   8.496   8.378  2.0984 -0.4277  1.3356
  167bbb     H2 4817   7.432   8.595   8.516 -0.3597  0.1402 -1.1333
  167bbb     C2 4818   7.264   8.306   8.446  0.8541 -0.0662 -0.0524
  167bbb     H3 4819   7.169   8.340   8.403 -0.9772 -2.2087  2.0117
  167bbb     H4 4820   7.230   8.228   8.515 -2.1415 -1.4132 -2.8298
  167bbb     C3 4821   7.447   8.372   8.612 -0.7159  0.6318  0.4755
  167bbb     H5 4822   7.487   8.464   8.656 -2.2896  1.3460  0.5009
  167bbb     H6 4823   7.519   8.323   8.546  0.1678  3.5902 -0.9292
  167bbb     C4 4824   7.408   8.278   8.726  0.6508 -0.1054  0.4443
  167bbb     H7 4825   7.354   8.191   8.686 -0.0723  0.8810 -0.8016
  167bbb     H8 4826   7.339   8.322   8.798  0.7189 -0.6412  0.8460
  167bbb     C5 4827   7.291   8.612   8.368 -0.0077 -0.3070 -0.2262
  167bbb     H9 4828   7.198   8.625   8.424  1.0754 -3.9808  2.8444
  167bbb    H10 4829   7.266   8.553   8.279  2.5291  0.4667 -1.5392
  167bbb     C6 4830   7.341   8.248   8.329  0.4204 -0.0062 -0.2952
  167bbb    H11 4831   7.446   8.247   8.362  0.5306  0.3829 -0.6367
  167bbb    H12 4832   7.337   8.310   8.240  0.0843  1.5044  0.7374
  167bbb     C7 4833   7.532   8.220   8.804 -0.2131 -0.2052  0.2847
  167bbb    H13 4834   7.506   8.178   8.903 -0.9529  2.1178  1.1294
  167bbb    H14 4835   7.590   8.308   8.832 -2.9819  2.3623 -1.5192
  167bbb     C8 4836   7.294   8.105   8.283  0.9465  0.1675  0.3545
  167bbb    H15 4837   7.353   8.070   8.197  1.1560 -0.8796  0.9101
  167bbb    H16 4838   7.190   8.107   8.248  1.2438  1.8636 -0.5657
  167bbb     C9 4839   7.344   8.755   8.334  0.2178 -0.4230 -0.5480
  167bbb    H17 4840   7.280   8.794   8.255  0.3941 -1.3988 -1.1881
  167bbb    H18 4841   7.446   8.747   8.294  0.2577 -0.0970 -0.5129
  167bbb     O1 4842   7.617   8.143   8.711 -0.2303 -0.2914 -0.1776
  168bbb     N1 4843   7.754   8.436   9.255 -0.3408  0.0909  0.2026
  168bbb     C1 4844   7.741   8.533   9.365 -0.4472 -0.6637 -0.6898
  168bbb     H1 4845   7.655   8.594   9.334  0.5762  0.7265 -0.9119
  168bbb     H2 4846   7.826   8.601   9.376 -0.9664  0.0325 -0.8802
  168bbb     C2 4847   7.651   8.326   9.246  0.0179 -0.4780 -0.4001
  168bbb     H3 4848   7.553   8.364   9.217  0.0621 -1.7592 -2.3409
  168bbb     H4 4849   7.639   8.279   9.345  0.6478  1.1505  0.5012
  168bbb     C3 4850   7.798   8.491   9.128 -0.3701 -0.2799 -0.2449
  168bbb     H5 4851   7.847   8.418   9.063  1.1230 -0.3242  0.8693
  168bbb     H6 4852   7.872   8.571   9.139 -0.6273  0.0632 -0.9952
  168bbb     C4 4853   7.680   8.563   9.064  1.0939 -0.5130  0.4408
  168bbb     H7 4854   7.631   8.631   9.135  0.2287 -0.2645 -0.3816
  168bbb     H8 4855   7.599   8.500   9.025  0.7244 -0.0772  0.4927
  168bbb     C5 4856   7.708   8.473   9.501 -0.3963  0.4068 -1.0050
  168bbb     H9 4857   7.774   8.386   9.518 -1.4999 -0.3999 -0.7123
  168bbb    H10 4858   7.611   8.423   9.511  0.3994 -1.3037 -1.5005
  168bbb     C6 4859   7.685   8.214   9.145  0.6109  0.7803  0.2156
  168bbb    H11 4860   7.787   8.178   9.131 -0.5432 -2.3219 -1.1626
  168bbb    H12 4861   7.663   8.246   9.042 -0.2320 -2.5984 -0.7988
  168bbb     C7 4862   7.723   8.659   8.950  0.0297  0.0903  0.3714
  168bbb    H13 4863   7.776   8.751   8.979  1.5154  0.5193 -3.2342
  168bbb    H14 4864   7.628   8.689   8.904  1.0120  1.1634 -1.0336
  168bbb     C8 4865   7.590   8.095   9.181  0.4105 -0.0836 -0.3470
  168bbb    H15 4866   7.492   8.144   9.184  1.0411  1.1869  1.3429
  168bbb    H16 4867   7.605   8.056   9.282 -1.1279  1.7402  0.6459
  168bbb     C9 4868   7.729   8.561   9.625 -0.2427 -0.1449  0.4417
  168bbb    H17 4869   7.700   8.509   9.718  1.0033  0.2672  1.0841
  168bbb    H18 4870   7.665   8.647   9.603  1.7185  0.8320 -1.8589
  168bbb     O1 4871   7.807   8.588   8.850 -0.6431 -0.3405 -0.3251
  169bbb     N1 4872   8.487   7.218   7.580 -0.6150 -0.1002 -0.6597
  169bbb     C1 4873   8.345   7.246   7.589 -0.2233 -0.5474 -0.2173
  169bbb     H1 4874   8.312   7.228   7.692 -0.5812  1.6863  0.1157
  169bbb     H2 4875   8.290   7.165   7.540 -0.7415 -1.1582  1.3194
  169bbb     C2 4876   8.517   7.074   7.600 -0.3122  0.6480  0.5077
  169bbb     H3 4877   8.482   7.052   7.702 -0.0704  0.1161  0.4780
  169bbb     H4 4878   8.625   7.057   7.609 -0.4667 -0.0918  1.0710
  169bbb     C3 4879   8.576   7.301   7.666  0.3082  0.0839 -0.3149
  169bbb     H5 4880   8.557   7.407   7.645  1.5718  0.0652 -1.7055
  169bbb     H6 4881   8.684   7.294   7.649  0.2478  1.4264 -1.3964
  169bbb     C4 4882   8.550   7.284   7.815  0.1656 -0.3513  0.1538
  169bbb     H7 4883   8.600   7.193   7.851  0.6700  0.7713  2.4870
  169bbb     H8 4884   8.443   7.288   7.837  0.4101  3.5032  1.3472
  169bbb     C5 4885   8.297   7.375   7.536  0.1869 -1.1649 -0.6384
  169bbb     H9 4886   8.331   7.401   7.435 -2.4506  1.7432 -0.9324
  169bbb    H10 4887   8.339   7.454   7.599 -2.3494 -0.8112  0.7418
  169bbb     C6 4888   8.463   6.974   7.490 -0.8434 -0.2229 -0.4198
  169bbb    H11 4889   8.354   6.963   7.497 -0.6611 -1.8476  0.2548
  169bbb    H12 4890   8.505   6.875   7.508  3.4317  1.3017 -0.9498
  169bbb     C7 4891   8.605   7.404   7.898 -0.3202  0.5551 -0.3781
  169bbb    H13 4892   8.706   7.435   7.871 -0.2022 -0.2843 -0.9287
  169bbb    H14 4893   8.601   7.376   8.004 -0.3645 -1.2878 -0.8374
  169bbb     C8 4894   8.507   7.021   7.351  0.0188 -0.3191 -0.9708
  169bbb    H15 4895   8.615   7.030   7.338  0.2629  1.7857  1.6669
  169bbb    H16 4896   8.455   7.116   7.330  1.0140  0.3085 -0.6392
  169bbb     C9 4897   8.146   7.383   7.540  0.0719  0.7734 -0.1739
  169bbb    H17 4898   8.114   7.415   7.640  0.2001  1.6896 -0.4167
  169bbb    H18 4899   8.092   7.287   7.537  0.7236  0.4046 -0.4895
  169bbb     O1 4900   8.514   7.517   7.871 -0.5562  0.2484 -0.1719
  170bbb     N1 4901   9.106   7.414   7.784 -0.5821 -0.4270  0.0031
  170bbb     C1 4902   9.242   7.453   7.736 -0.2870 -0.2460 -0.1450
  170bbb     H1 4903   9.251   7.419   7.632 -0.0460  0.8849 -0.5111
  170bbb     H2 4904   9.329   7.406   7.784 -0.4857 -2.0354 -1.4089
  170bbb     C2 4905   9.080   7.425   7.928 -0.7729  0.6243  0.2510
  170bbb     H3 4906   9.002   7.350   7.948 -1.4130  1.1376 -0.2817
  170bbb     H4 4907   9.052   7.527   7.956  0.7276  0.8442  1.0286
  170bbb     C3 4908   8.988   7.460   7.705  0.1128  0.5279  0.2310
  170bbb     H5 4909   8.973   7.569   7.716 -1.3671  0.7371 -2.8015
  170bbb     H6 4910   8.896   7.408   7.735  0.7317 -0.5208  0.3533
  170bbb     C4 4911   9.004   7.447   7.546  0.3515  0.1053  0.4846
  170bbb     H7 4912   8.989   7.340   7.531  0.3924 -0.4437  3.6081
  170bbb     H8 4913   9.105   7.471   7.512  1.2691 -1.1981  2.1213
  170bbb     C5 4914   9.272   7.599   7.749 -0.2815 -0.1522  0.5172
  170bbb     H9 4915   9.241   7.640   7.846  1.8286  0.0882  1.1350
  170bbb    H10 4916   9.214   7.651   7.672  1.0571 -1.3812 -1.4124
  170bbb     C6 4917   9.202   7.375   8.014  0.2457  0.2720  0.1424
  170bbb    H11 4918   9.285   7.444   8.000 -1.2491  2.1797  0.1979
  170bbb    H12 4919   9.228   7.280   7.965 -0.3820 -0.7458  1.6858
  170bbb     C7 4920   8.900   7.516   7.456  0.6875 -0.1383 -0.4806
  170bbb    H13 4921   8.802   7.486   7.495  0.8798  0.7332  0.7424
  170bbb    H14 4922   8.900   7.493   7.349 -2.4010 -1.0930 -0.3602
  170bbb     C8 4923   9.176   7.356   8.162  0.7123  0.7854 -0.0758
  170bbb    H15 4924   9.269   7.328   8.211 -0.4731 -1.6512  0.9221
  170bbb    H16 4925   9.110   7.269   8.172  2.0609 -0.2316  0.2836
  170bbb     C9 4926   9.421   7.631   7.709  0.1387 -0.2552  0.1081
  170bbb    H17 4927   9.423   7.737   7.682 -1.4153 -0.9171 -3.0960
  170bbb    H18 4928   9.454   7.587   7.614 -0.0417 -0.6428  0.2227
  170bbb     O1 4929   8.928   7.664   7.484  0.1658 -0.0156  0.2791
  171bbb     N1 4930   8.620   9.966   6.681  0.2920  0.2183 -0.5274
  171bbb     C1 4931   8.672   9.913   6.554 -0.2994 -0.1597 -0.5154
  171bbb     H1 4932   8.626   9.971   6.473  0.7335  1.0271 -0.2737
  171bbb     H2 4933   8.645   9.807   6.548  0.0326 -0.2719 -0.0857
  171bbb     C2 4934   8.477  10.012   6.690  0.4422 -1.3367  0.5274
  171bbb     H3 4935   8.457  10.077   6.603  3.2266 -0.5580  0.3893
  171bbb     H4 4936   8.460  10.079   6.775 -2.0681  3.0573 -2.9908
  171bbb     C3 4937   8.664   9.888   6.804  0.2034 -0.4417 -0.8058
  171bbb     H5 4938   8.772   9.877   6.787  0.1367  0.9436 -2.3209
  171bbb     H6 4939   8.620   9.787   6.799  1.9765 -1.2467 -0.9734
  171bbb     C4 4940   8.631   9.943   6.945  0.8372 -0.0469  0.1629
  171bbb     H7 4941   8.521   9.945   6.956  0.0091  3.2133 -5.1735
  171bbb     H8 4942   8.669  10.045   6.954  2.5699 -0.7132  0.6483
  171bbb     C5 4943   8.822   9.910   6.532 -0.5800  0.0524  0.1933
  171bbb     H9 4944   8.845   9.819   6.589  0.6773  1.0582  1.3619
  171bbb    H10 4945   8.869  10.002   6.571  1.6628 -0.5717 -0.8642
  171bbb     C6 4946   8.375   9.895   6.700 -0.1976  0.3709  0.3366
  171bbb    H11 4947   8.277   9.943   6.708 -2.5726 -4.0966  1.4113
  171bbb    H12 4948   8.398   9.836   6.790  1.8710  2.0272  0.9953
  171bbb     C7 4949   8.711   9.861   7.048 -0.3610  0.0821  1.1347
  171bbb    H13 4950   8.704   9.902   7.149  2.4533  2.1245  0.6192
  171bbb    H14 4951   8.813   9.844   7.011 -0.5772  0.6117  0.2744
  171bbb     C8 4952   8.362   9.805   6.573  0.2807  0.0638  0.3305
  171bbb    H15 4953   8.274   9.740   6.584 -0.4556  0.9792 -0.0378
  171bbb    H16 4954   8.457   9.751   6.568  0.5350  0.4400  0.9821
  171bbb     C9 4955   8.837   9.887   6.388 -0.3388 -0.2026 -0.2293
  171bbb    H17 4956   8.769   9.811   6.350 -0.2329  0.4736 -1.8458
  171bbb    H18 4957   8.944   9.865   6.375 -0.0348  1.8350 -1.7574
  171bbb     O1 4958   8.638   9.733   7.050  0.4021 -0.1699 -0.9284
  172bbb     N1 4959   7.978   9.976   7.591 -0.0601  0.1949 -0.0173
  172bbb     C1 4960   7.876   9.907   7.505  0.1776 -0.2201  0.3338
  172bbb     H1 4961   7.787   9.899   7.568  1.6031 -2.1585  2.2544
  172bbb     H2 4962   7.909   9.805   7.481  2.5241  0.7578 -0.9377
  172bbb     C2 4963   7.976  10.124   7.595 -0.5384 -0.3432  0.2546
  172bbb     H3 4964   7.992  10.167   7.495 -0.4318 -1.9583 -0.4553
  172bbb     H4 4965   8.054  10.174   7.653 -1.5818  1.1987  0.3727
  172bbb     C3 4966   8.031   9.911   7.713 -1.1076 -0.0595  0.3695
  172bbb     H5 4967   7.950   9.915   7.787 -0.2346 -0.0556  1.3481
  172bbb     H6 4968   8.119   9.967   7.748  0.6924 -0.9149 -2.4147
  172bbb     C4 4969   8.088   9.772   7.694  0.0827  0.3205  0.1527
  172bbb     H7 4970   8.001   9.707   7.679  0.0075  0.3571  0.4248
  172bbb     H8 4971   8.134   9.743   7.789  0.9061  0.5332 -0.1754
  172bbb     C5 4972   7.844   9.977   7.369 -0.0612 -0.2093 -0.0170
  172bbb     H9 4973   7.937  10.018   7.329 -1.2962  0.8751 -1.9374
  172bbb    H10 4974   7.778  10.061   7.393 -0.6906 -0.7621  0.2277
  172bbb     C6 4975   7.842  10.185   7.646  0.2464 -0.8604 -0.3572
  172bbb    H11 4976   7.759  10.117   7.622 -0.2458  0.1898 -1.8146
  172bbb    H12 4977   7.818  10.279   7.593  0.6873  0.3995  1.5737
  172bbb     C7 4978   8.184   9.750   7.585  0.5937 -0.1990  0.0544
  172bbb    H13 4979   8.257   9.833   7.588 -0.8482  1.2814 -2.2782
  172bbb    H14 4980   8.136   9.772   7.489  0.2998  1.0528  0.4657
  172bbb     C8 4981   7.836  10.225   7.792  0.2389 -0.4913 -0.2040
  172bbb    H15 4982   7.886  10.321   7.808  0.8506 -0.6095 -1.2896
  172bbb    H16 4983   7.901  10.157   7.848  0.8220  1.0371  1.0198
  172bbb     C9 4984   7.766   9.891   7.262  0.2405 -0.7789  0.0978
  172bbb    H17 4985   7.822   9.799   7.240  0.2273 -0.4235 -1.5403
  172bbb    H18 4986   7.766   9.938   7.164  3.6266  1.0466  0.8019
  172bbb     O1 4987   8.239   9.620   7.596 -0.0693  0.0169  0.2519
  173bbb     N1 4988   8.502   7.289   5.993  0.6861 -0.0786  0.0860
  173bbb     C1 4989   8.392   7.288   5.897  0.2177 -0.8726 -0.9442
  173bbb     H1 4990   8.411   7.212   5.821 -2.1012 -0.0790 -2.4055
  173bbb     H2 4991   8.395   7.388   5.851  0.3613 -0.8440 -0.8736
  173bbb     C2 4992   8.511   7.168   6.071  0.3314  0.4981 -0.0070
  173bbb     H3 4993   8.466   7.094   6.003 -0.4132  0.5985  0.3604
  173bbb     H4 4994   8.455   7.169   6.166 -0.0784  0.1773 -0.2406
  173bbb     C3 4995   8.497   7.411   6.078 -0.4688 -0.4617 -0.9018
  173bbb     H5 4996   8.558   7.399   6.169 -1.5128  1.0508  0.0336
  173bbb     H6 4997   8.394   7.428   6.110  0.0976 -0.0712  0.8278
  173bbb     C4 4998   8.551   7.534   6.006 -0.4096 -0.0729 -0.0931
  173bbb     H7 4999   8.468   7.573   5.946  0.1438  0.5044 -0.4993
  173bbb     H8 5000   8.627   7.510   5.930 -2.0538  2.6749 -2.8531
  173bbb     C5 5001   8.245   7.267   5.950 -0.4811  0.5142  0.0758
  173bbb     H9 5002   8.220   7.340   6.027  0.7161 -0.4605  1.4375
  173bbb    H10 5003   8.250   7.174   6.008 -1.2927  0.2547 -0.2478
  173bbb     C6 5004   8.657   7.138   6.099  0.6315  0.5353  0.4066
  173bbb    H11 5005   8.696   7.185   6.190  1.5481  0.0867  0.2516
  173bbb    H12 5006   8.722   7.167   6.016  0.5759 -1.4750 -0.4020
  173bbb     C7 5007   8.613   7.636   6.103  0.4065  0.5448  0.0447
  173bbb    H13 5008   8.633   7.730   6.049 -2.2335  2.2225  1.7261
  173bbb    H14 5009   8.701   7.591   6.149 -1.5301 -3.2464  0.4064
  173bbb     C8 5010   8.678   6.982   6.112  0.0495 -0.2546 -0.0222
  173bbb    H15 5011   8.781   6.974   6.149 -0.8031  1.3157  3.0522
  173bbb    H16 5012   8.664   6.925   6.019 -0.2373  1.3263 -0.9792
  173bbb     C9 5013   8.140   7.268   5.826  0.3962 -1.1908  0.3835
  173bbb    H17 5014   8.034   7.257   5.848  0.0747 -0.8511 -0.9209
  173bbb    H18 5015   8.161   7.170   5.781  2.2587 -0.4620 -0.4785
  173bbb     O1 5016   8.520   7.678   6.206 -0.9077  0.0881 -0.0540
  174bbb     N1 5017   7.475   8.138   6.323  0.5307  0.1359 -0.1874
  174bbb     C1 5018   7.516   8.260   6.249 -0.3344  0.4180  0.1886
  174bbb     H1 5019   7.578   8.233   6.163 -0.5633 -2.1633  0.7340
  174bbb     H2 5020   7.587   8.316   6.310 -0.2985 -0.2474  0.7700
  174bbb     C2 5021   7.353   8.079   6.258 -0.4657  0.6106  0.2128
  174bbb     H3 5022   7.262   8.140   6.269 -1.3866 -0.5258 -0.8656
  174bbb     H4 5023   7.323   7.987   6.310 -0.9657  0.2840 -0.6468
  174bbb     C3 5024   7.582   8.037   6.335 -0.5166 -0.1446  0.2329
  174bbb     H5 5025   7.622   8.006   6.238 -0.6452 -0.6746  0.3489
  174bbb     H6 5026   7.531   7.949   6.375 -2.2902 -0.3032 -2.2115
  174bbb     C4 5027   7.707   8.086   6.429  0.0727 -0.2852 -0.1336
  174bbb     H7 5028   7.671   8.113   6.529  1.7565 -0.6297  0.6068
  174bbb     H8 5029   7.736   8.183   6.387 -1.0452 -0.3207 -1.0309
  174bbb     C5 5030   7.413   8.359   6.202 -0.0072 -0.0043  0.3194
  174bbb     H9 5031   7.375   8.411   6.291  1.7504 -2.4810  2.6685
  174bbb    H10 5032   7.328   8.305   6.159 -0.0771 -0.7418  1.3576
  174bbb     C6 5033   7.369   8.035   6.111 -0.2262 -0.6082 -0.1430
  174bbb    H11 5034   7.450   7.961   6.115 -0.5506 -0.9055  1.2677
  174bbb    H12 5035   7.411   8.118   6.053  0.0678  0.5660  1.6900
  174bbb     C7 5036   7.820   7.983   6.434 -0.1786 -0.2832 -0.2946
  174bbb    H13 5037   7.861   7.953   6.337  0.5097 -1.0987  0.2311
  174bbb    H14 5038   7.797   7.894   6.494  1.7464  0.1625  1.2186
  174bbb     C8 5039   7.234   7.990   6.049  0.3136  0.1470 -0.3156
  174bbb    H15 5040   7.211   7.891   6.089  0.8549  0.1841  0.0924
  174bbb    H16 5041   7.253   7.981   5.941 -0.5548 -1.8760 -0.3486
  174bbb     C9 5042   7.477   8.462   6.103 -0.1082 -0.5264 -1.1416
  174bbb    H17 5043   7.518   8.409   6.016  2.3342 -1.4586  0.4450
  174bbb    H18 5044   7.555   8.528   6.143  0.3090  0.2042 -3.0629
  174bbb     O1 5045   7.929   8.059   6.497  0.1400  0.2156  0.2795
  175bbb     N1 5046   9.121   9.878  10.560 -0.6427  0.2424 -0.1598
  175bbb     C1 5047   9.187  10.009  10.549 -0.2337  0.7202 -0.0728
  175bbb     H1 5048   9.273  10.000  10.482  0.4046  1.0812  0.6727
  175bbb     H2 5049   9.229  10.043  10.645 -1.2654 -0.6748  0.9170
  175bbb     C2 5050   9.001   9.869  10.646 -0.1170 -0.5905 -0.3197
  175bbb     H3 5051   8.981   9.761  10.657 -0.2908 -0.3648  2.2405
  175bbb     H4 5052   8.909   9.913  10.607 -0.4422  0.4445  1.4951
  175bbb     C3 5053   9.111   9.812  10.430  0.2156  0.0341 -0.5246
  175bbb     H5 5054   9.028   9.862  10.379 -1.6717 -0.0687  2.1844
  175bbb     H6 5055   9.070   9.714  10.454  0.9620 -0.3106 -0.6287
  175bbb     C4 5056   9.235   9.802  10.332 -0.2463 -0.0116 -0.3117
  175bbb     H7 5057   9.324   9.785  10.393  0.4792  1.4867 -0.8852
  175bbb     H8 5058   9.262   9.899  10.287  0.2598 -0.0292 -0.0551
  175bbb     C5 5059   9.107  10.117  10.472 -0.5017  0.2451  0.7850
  175bbb     H9 5060   9.003  10.136  10.500 -0.7872 -1.4806  0.9834
  175bbb    H10 5061   9.096  10.077  10.370 -0.4456  0.9492  0.4965
  175bbb     C6 5062   9.013   9.935  10.783 -0.1238  0.6306 -1.5101
  175bbb    H11 5063   9.042  10.040  10.780  1.5847  0.3161  0.8195
  175bbb    H12 5064   9.100   9.893  10.836 -0.9925  1.0893  0.3617
  175bbb     C7 5065   9.203   9.694  10.227  0.6023 -0.1298 -0.0135
  175bbb    H13 5066   9.098   9.692  10.195  0.8331  0.4719 -0.8509
  175bbb    H14 5067   9.237   9.598  10.268  4.1201  0.4939 -1.1316
  175bbb     C8 5068   8.886   9.916  10.871 -0.3661 -0.3601  0.0080
  175bbb    H15 5069   8.810   9.980  10.824 -1.8432 -0.7032  1.7918
  175bbb    H16 5070   8.903   9.949  10.974  1.0139 -2.3200  0.4617
  175bbb     C9 5071   9.171  10.253  10.466 -0.1273 -0.4636 -0.1688
  175bbb    H17 5072   9.109  10.329  10.416  1.0469  1.3969  1.0800
  175bbb    H18 5073   9.264  10.249  10.408  0.7232 -1.8689  1.2235
  175bbb     O1 5074   9.291   9.736  10.118  0.5523  0.5449 -0.3864
  176bbb     N1 5075   8.834  10.684   9.886  0.5666 -0.3045 -0.1254
  176bbb     C1 5076   8.739  10.791   9.916  0.8258 -0.5634 -0.0519
  176bbb     H1 5077   8.644  10.787   9.861 -1.5659 -2.5190  3.7306
  176bbb     H2 5078   8.785  10.888   9.897 -0.0261  0.0268  0.8143
  176bbb     C2 5079   8.904  10.707   9.757  0.2614  0.5073 -0.1354
  176bbb     H3 5080   8.833  10.736   9.679 -0.6191 -1.9625 -0.3419
  176bbb     H4 5081   8.947  10.615   9.717 -0.3208 -0.4353  1.3241
  176bbb     C3 5082   8.797  10.543   9.918 -0.4677  0.4898  0.0762
  176bbb     H5 5083   8.736  10.497   9.839 -1.2263 -0.0769  0.9588
  176bbb     H6 5084   8.731  10.532  10.005 -1.0520  0.3719 -0.3743
  176bbb     C4 5085   8.914  10.454   9.952 -0.2563 -0.1440 -0.1988
  176bbb     H7 5086   8.965  10.486  10.044 -1.5576 -0.3646  0.6214
  176bbb     H8 5087   8.989  10.455   9.871  3.5285  0.0693  2.9894
  176bbb     C5 5088   8.675  10.795  10.054 -0.3361  0.3411 -1.1254
  176bbb     H9 5089   8.611  10.710  10.081 -0.5597  0.6038 -0.8182
  176bbb    H10 5090   8.607  10.882  10.059 -1.7736 -0.8181  0.9539
  176bbb     C6 5091   9.001  10.819   9.751  0.1462 -0.9619  0.2601
  176bbb    H11 5092   8.952  10.915   9.737  2.3151  0.1276 -0.3244
  176bbb    H12 5093   9.076  10.795   9.675  0.0468 -1.4497  0.3130
  176bbb     C7 5094   8.867  10.308   9.969 -0.8586 -0.5062  0.4177
  176bbb    H13 5095   8.787  10.290   9.895  0.1257  1.6227 -1.2887
  176bbb    H14 5096   8.822  10.297  10.068  2.5003 -3.3658  1.8467
  176bbb     C8 5097   9.077  10.825   9.881  0.4871 -0.4454 -0.4831
  176bbb    H15 5098   9.129  10.736   9.919 -0.4079 -0.3457  1.0982
  176bbb    H16 5099   8.995  10.847   9.951  0.8572  0.3004 -0.2776
  176bbb     C9 5100   8.794  10.821  10.151  0.1018  0.6100  0.6144
  176bbb    H17 5101   8.851  10.907  10.116 -0.3776  0.1399 -1.4865
  176bbb    H18 5102   8.864  10.738  10.133 -1.3372 -0.7288  0.9292
  176bbb     O1 5103   8.982  10.229   9.942  0.5386  0.0243 -0.3652
  177bbb     N1 5104   9.404  10.477   9.391 -0.7758  0.0966  0.0815
  177bbb     C1 5105   9.523  10.387   9.423 -0.1478 -0.2624  0.0793
  177bbb     H1 5106   9.524  10.296   9.361  0.5091 -0.8400  0.9166
  177bbb     H2 5107   9.517  10.358   9.529  0.4627 -0.1234  0.1560
  177bbb     C2 5108   9.398  10.518   9.252 -0.2258  0.7447  0.2738
  177bbb     H3 5109   9.474  10.593   9.228 -1.2838  1.9194  0.4690
  177bbb     H4 5110   9.304  10.570   9.232  0.7086  1.9968 -1.0363
  177bbb     C3 5111   9.281  10.416   9.441  0.3082 -0.2816  0.0893
  177bbb     H5 5112   9.261  10.325   9.382 -0.5719 -0.3798  0.5113
  177bbb     H6 5113   9.196  10.480   9.413  1.0817  0.8053  0.2039
  177bbb     C4 5114   9.262  10.374   9.592  0.4395 -0.0132 -0.1401
  177bbb     H7 5115   9.296  10.464   9.645 -1.4257  1.2466 -0.9831
  177bbb     H8 5116   9.332  10.291   9.610  0.7087 -0.1147 -1.5661
  177bbb     C5 5117   9.659  10.455   9.407  0.8130  0.8798 -0.5673
  177bbb     H9 5118   9.665  10.481   9.300 -0.7922 -0.9914 -1.1789
  177bbb    H10 5119   9.742  10.384   9.421  1.2827  1.4836 -0.2400
  177bbb     C6 5120   9.398  10.395   9.156  0.0573  0.0205 -0.5362
  177bbb    H11 5121   9.306  10.339   9.174  2.3686 -3.1480  3.0147
  177bbb    H12 5122   9.476  10.321   9.176  1.0194  0.4818 -2.2951
  177bbb     C7 5123   9.115  10.357   9.630 -0.0996 -0.5179  0.0992
  177bbb    H13 5124   9.077  10.459   9.646  0.1657 -0.3544 -0.3038
  177bbb    H14 5125   9.107  10.302   9.725  0.8720 -1.4184 -0.3162
  177bbb     C8 5126   9.416  10.451   9.007  0.2199  0.1202 -0.6173
  177bbb    H15 5127   9.351  10.539   8.998  0.8022  0.4756 -1.4092
  177bbb    H16 5128   9.374  10.375   8.941  1.2145  0.6419 -1.8958
  177bbb     C9 5129   9.673  10.576   9.495 -0.2550  0.0737  0.1503
  177bbb    H17 5130   9.635  10.562   9.597 -1.6602 -1.0040 -0.5002
  177bbb    H18 5131   9.598  10.650   9.464 -0.3942  0.3425  1.0731
  177bbb     O1 5132   9.046  10.292   9.526 -0.3746  0.1886  0.2044
  178bbb     N1 5133   8.832  10.682   8.370 -0.3048 -0.3500  0.1632
  178bbb     C1 5134   8.881  10.747   8.245 -0.5616  0.0512 -0.5640
  178bbb     H1 5135   8.788  10.785   8.200 -0.6833  1.9022  1.1517
  178bbb     H2 5136   8.920  10.665   8.184 -1.5525 -0.0780 -1.0559
  178bbb     C2 5137   8.713  10.592   8.349 -0.7999 -0.2325 -0.8367
  178bbb     H3 5138   8.640  10.649   8.290 -2.2264 -1.5418 -0.4073
  178bbb     H4 5139   8.673  10.569   8.448  3.1695 -3.0908  0.3567
  178bbb     C3 5140   8.944  10.615   8.441 -0.2002  0.7815 -0.8534
  178bbb     H5 5141   9.020  10.687   8.473  0.8811 -1.3537  1.6954
  178bbb     H6 5142   8.990  10.537   8.378  1.0092 -2.2786  3.3781
  178bbb     C4 5143   8.899  10.536   8.573 -0.6316 -0.6899  0.3275
  178bbb     H7 5144   8.839  10.449   8.543 -2.6658 -0.2310  2.6919
  178bbb     H8 5145   8.830  10.597   8.633 -0.6708 -0.8937  0.4905
  178bbb     C5 5146   8.985  10.864   8.249 -0.3779 -0.6525 -0.1392
  178bbb     H9 5147   9.075  10.860   8.311 -0.4371  2.3314  0.2725
  178bbb    H10 5148   8.930  10.955   8.276  3.7159  2.1224 -0.3075
  178bbb     C6 5149   8.737  10.459   8.279  0.3601 -0.6071  0.3683
  178bbb    H11 5150   8.817  10.405   8.332  1.2908 -1.1062 -1.4584
  178bbb    H12 5151   8.782  10.484   8.182  1.3622  1.7629  1.3824
  178bbb     C7 5152   9.017  10.493   8.660 -0.4489 -0.4575  0.3351
  178bbb    H13 5153   9.093  10.573   8.665 -0.1522 -0.8176  2.5844
  178bbb    H14 5154   9.060  10.408   8.605 -0.0064  1.3971 -2.4136
  178bbb     C8 5155   8.611  10.374   8.260 -0.4036 -1.1333 -0.6852
  178bbb    H15 5156   8.568  10.360   8.360 -0.6377  1.0661 -0.4180
  178bbb    H16 5157   8.639  10.274   8.224  1.7307 -1.6525  2.1298
  178bbb     C9 5158   9.047  10.881   8.112 -0.4721  0.1179  0.5013
  178bbb    H17 5159   9.114  10.794   8.103  0.5817  0.5338  3.4248
  178bbb    H18 5160   9.107  10.972   8.120  0.2232 -0.3835  1.1230
  178bbb     O1 5161   8.966  10.448   8.784  0.2605 -0.2378  0.1478
  179bbb     N1 5162   9.168   8.383   9.339 -0.7730  0.3715  0.5520
  179bbb     C1 5163   9.115   8.280   9.428  0.2951  0.2909  1.0509
  179bbb     H1 5164   9.063   8.197   9.377 -0.4391  0.3393  1.6857
  179bbb     H2 5165   9.033   8.320   9.489 -0.7985 -0.0172 -0.1607
  179bbb     C2 5166   9.089   8.398   9.218  1.1480 -0.1857 -0.6817
  179bbb     H3 5167   9.084   8.503   9.186  1.1986  0.0973  0.2033
  179bbb     H4 5168   8.984   8.370   9.235  1.0387  0.9991  0.7701
  179bbb     C3 5169   9.195   8.512   9.407  0.5850 -0.5161  0.7543
  179bbb     H5 5170   9.240   8.589   9.343  0.3645 -0.0484  1.1518
  179bbb     H6 5171   9.275   8.492   9.479  2.0898  1.6589 -0.2073
  179bbb     C4 5172   9.078   8.571   9.491  0.2194  0.9783  0.1732
  179bbb     H7 5173   9.042   8.501   9.568  1.6714 -0.3295 -0.2822
  179bbb     H8 5174   8.992   8.593   9.427  0.8298 -1.4342 -1.6183
  179bbb     C5 5175   9.221   8.231   9.532  0.8348  0.3927  0.1059
  179bbb     H9 5176   9.263   8.311   9.594 -0.1652  0.4553  0.7144
  179bbb    H10 5177   9.302   8.174   9.483  0.0488  0.1428 -0.9369
  179bbb     C6 5178   9.141   8.319   9.097  0.4284 -0.3223  0.4326
  179bbb    H11 5179   9.232   8.365   9.058 -0.4089 -0.3012 -1.6067
  179bbb    H12 5180   9.072   8.342   9.015  0.3355 -1.2092  0.2486
  179bbb     C7 5181   9.125   8.707   9.549 -0.4439 -0.1428 -0.4823
  179bbb    H13 5182   9.047   8.741   9.618 -0.2643  0.8343 -0.7451
  179bbb    H14 5183   9.140   8.782   9.470  2.0407  0.0248  0.0752
  179bbb     C8 5184   9.146   8.169   9.111 -1.0901  0.5471 -0.2573
  179bbb    H15 5185   9.047   8.124   9.123 -1.9965  2.4374 -0.3863
  179bbb    H16 5186   9.208   8.140   9.197  0.0848  0.5601 -1.0706
  179bbb     C9 5187   9.154   8.136   9.634 -0.5097  0.1480 -0.8096
  179bbb    H17 5188   9.075   8.191   9.686 -0.3635  1.4178 -1.8819
  179bbb    H18 5189   9.226   8.115   9.714 -0.4055 -2.2991 -1.4553
  179bbb     O1 5190   9.248   8.697   9.619  0.3495  0.0578 -0.8233
  180bbb     N1 5191   9.454   8.400  10.566  0.3467 -0.3749 -0.0020
  180bbb     C1 5192   9.507   8.278  10.630 -0.5768  0.4155  0.4750
  180bbb     H1 5193   9.478   8.282  10.736 -1.8051  3.8339  0.1318
  180bbb     H2 5194   9.616   8.284  10.633 -0.5301  0.6631 -0.9451
  180bbb     C2 5195   9.302   8.403  10.560 -0.2260 -0.3024 -0.4169
  180bbb     H3 5196   9.268   8.319  10.499  2.1090 -0.9663 -0.9308
  180bbb     H4 5197   9.268   8.497  10.514 -1.3887  1.0090  2.8510
  180bbb     C3 5198   9.517   8.426  10.432 -0.6116 -0.0729  0.0390
  180bbb     H5 5199   9.471   8.514  10.385  0.9633  0.2527 -0.9660
  180bbb     H6 5200   9.485   8.355  10.354 -4.2647  1.9989 -0.5950
  180bbb     C4 5201   9.673   8.462  10.444  0.1276  0.7292  0.4716
  180bbb     H7 5202   9.736   8.372  10.448  0.8251  1.2221  0.6898
  180bbb     H8 5203   9.686   8.515  10.539  0.4318 -1.5987  1.8226
  180bbb     C5 5204   9.459   8.151  10.551 -0.4893 -0.7713  0.4075
  180bbb     H9 5205   9.469   8.166  10.443  2.5081 -2.3415  0.3726
  180bbb    H10 5206   9.356   8.122  10.577 -0.3448 -1.4792  0.2076
  180bbb     C6 5207   9.237   8.393  10.705  0.8627  0.3338 -0.6225
  180bbb    H11 5208   9.274   8.469  10.775  1.4431 -1.9698  1.7728
  180bbb    H12 5209   9.260   8.291  10.740 -0.1516 -0.1768 -1.3911
  180bbb     C7 5210   9.717   8.548  10.326 -0.4642 -0.0138 -0.2794
  180bbb    H13 5211   9.713   8.489  10.234  0.9824 -0.8268  0.1509
  180bbb    H14 5212   9.820   8.585  10.336 -0.1453 -0.0606 -2.8046
  180bbb     C8 5213   9.083   8.379  10.698 -0.8623 -0.0194  0.4896
  180bbb    H15 5214   9.042   8.360  10.799 -1.2159  0.2657  0.4002
  180bbb    H16 5215   9.071   8.295  10.628  0.3934  0.9730 -0.9675
  180bbb     C9 5216   9.550   8.028  10.584 -0.3684 -0.7924 -0.1159
  180bbb    H17 5217   9.537   8.007  10.691 -0.9550 -0.4643 -0.1196
  180bbb    H18 5218   9.654   8.062  10.571 -0.2670 -1.0094  0.1218
  180bbb     O1 5219   9.638   8.661  10.294  0.1459 -0.4417 -0.0615
  181bbb     N1 5220  10.474   9.838   9.919 -1.0729  0.3131  0.6471
  181bbb     C1 5221  10.351   9.891   9.844 -0.3777 -0.4717 -0.6534
  181bbb     H1 5222  10.347   9.848   9.743 -0.2565  1.0479 -1.3324
  181bbb     H2 5223  10.370   9.998   9.834  0.6849 -0.6122 -0.2442
  181bbb     C2 5224  10.490   9.909  10.044 -0.5717  0.0687 -0.7366
  181bbb     H3 5225  10.402   9.918  10.108 -0.6146  2.4277 -1.0123
  181bbb     H4 5226  10.524  10.010  10.017  3.6521 -0.0053  3.1459
  181bbb     C3 5227  10.593   9.829   9.826 -0.1000 -0.1388  0.2717
  181bbb     H5 5228  10.681   9.788   9.878 -0.0916 -1.9737 -1.0848
  181bbb     H6 5229  10.621   9.924   9.780 -0.8976  0.2637  0.6041
  181bbb     C4 5230  10.565   9.734   9.713  0.3022  0.3120  0.3290
  181bbb     H7 5231  10.519   9.792   9.632 -0.2252  2.1547  1.8461
  181bbb     H8 5232  10.494   9.658   9.748 -0.0003  0.2857 -0.3250
  181bbb     C5 5233  10.213   9.881   9.927 -0.1060 -0.0557  0.4751
  181bbb     H9 5234  10.213   9.962  10.001 -0.5249 -0.5706  1.0432
  181bbb    H10 5235  10.208   9.783   9.974  1.7619 -0.2282  0.4065
  181bbb     C6 5236  10.594   9.862  10.141  0.0350  0.0369  0.1224
  181bbb    H11 5237  10.693   9.893  10.105  0.3462 -1.4081 -0.3467
  181bbb    H12 5238  10.604   9.752  10.145  1.3042  0.1109 -0.3375
  181bbb     C7 5239  10.687   9.676   9.645  0.7145  0.1469  0.3538
  181bbb    H13 5240  10.759   9.652   9.723  0.7537  0.6438  0.4722
  181bbb    H14 5241  10.736   9.742   9.572 -0.6281 -0.4219 -1.1373
  181bbb     C8 5242  10.585   9.924  10.287 -0.5551  0.3998 -0.1046
  181bbb    H15 5243  10.481   9.914  10.319 -1.7194 -0.5577 -3.7200
  181bbb    H16 5244  10.613  10.030  10.285  1.0432  0.0281  0.9431
  181bbb     C9 5245  10.101   9.894   9.823 -0.2852 -0.0944 -0.2315
  181bbb    H17 5246  10.017   9.922   9.889 -0.1865 -0.4431  0.0483
  181bbb    H18 5247  10.091   9.795   9.777  0.3424 -0.6485  0.7766
  181bbb     O1 5248  10.652   9.559   9.581 -0.0329 -0.2830  0.3626
  182bbb     N1 5249  10.693   8.885   9.284 -0.4861 -0.4478 -0.3223
  182bbb     C1 5250  10.568   8.912   9.362 -0.3876 -0.2210  0.1226
  182bbb     H1 5251  10.545   8.830   9.431 -1.0892 -0.6415 -0.6011
  182bbb     H2 5252  10.487   8.919   9.289  0.4420  0.3258 -0.7662
  182bbb     C2 5253  10.809   8.870   9.365 -0.7777  0.3333 -1.2273
  182bbb     H3 5254  10.837   8.960   9.421  0.4662 -1.4200  1.1890
  182bbb     H4 5255  10.893   8.852   9.297 -1.6888 -0.4297 -2.1916
  182bbb     C3 5256  10.698   8.975   9.165  0.2672  0.0863 -1.3124
  182bbb     H5 5257  10.731   9.070   9.208 -1.0166  0.0046 -0.0522
  182bbb     H6 5258  10.604   8.981   9.109  0.8934 -0.4812 -2.4627
  182bbb     C4 5259  10.808   8.934   9.071  0.5001  0.0130 -0.5649
  182bbb     H7 5260  10.795   8.827   9.049 -0.4346 -0.2162  0.9612
  182bbb     H8 5261  10.909   8.949   9.112  0.9970  2.3913 -2.4082
  182bbb     C5 5262  10.584   9.047   9.443 -0.0214  0.3085  0.1935
  182bbb     H9 5263  10.620   9.128   9.378  0.1112  0.3422  0.3104
  182bbb    H10 5264  10.659   9.038   9.522 -0.4985  0.9858  0.7371
  182bbb     C6 5265  10.792   8.756   9.459 -0.0318 -0.6277 -0.0367
  182bbb    H11 5266  10.752   8.665   9.413 -1.5802 -0.2585  0.4835
  182bbb    H12 5267  10.722   8.787   9.538 -0.5302 -0.3642 -0.5628
  182bbb     C7 5268  10.823   9.027   8.948  0.5714 -0.2762  0.0749
  182bbb    H13 5269  10.742   9.001   8.879 -0.5675  0.4055  1.1111
  182bbb    H14 5270  10.915   9.005   8.893  0.4210  0.9672 -0.6985
  182bbb     C8 5271  10.921   8.719   9.536 -0.4261  0.3825 -0.7193
  182bbb    H15 5272  10.993   8.684   9.460  0.0039 -0.9148  0.2472
  182bbb    H16 5273  10.899   8.636   9.604 -1.4675  0.4023 -1.0135
  182bbb     C9 5274  10.447   9.103   9.496 -0.1095  1.0815  0.5093
  182bbb    H17 5275  10.388   9.019   9.535 -0.6240  1.3801  0.3709
  182bbb    H18 5276  10.393   9.148   9.412  1.0257 -0.6133 -1.2456
  182bbb     O1 5277  10.819   9.161   8.998 -0.0062  0.1587 -0.3621
  183bbb     N1 5278   7.848   8.970   9.400 -0.2255 -0.0424 -0.0142
  183bbb     C1 5279   7.740   8.871   9.416 -0.2703  0.1967  0.0488
  183bbb     H1 5280   7.765   8.800   9.496 -0.5808 -0.7134 -0.6397
  183bbb     H2 5281   7.717   8.818   9.322 -0.3665  0.1561  0.0938
  183bbb     C2 5282   7.968   8.911   9.327  0.1885  0.1339 -0.3778
  183bbb     H3 5283   7.997   8.817   9.376  0.3708 -0.0620 -0.8587
  183bbb     H4 5284   8.048   8.985   9.333 -0.4121  0.7259  0.7664
  183bbb     C3 5285   7.891   9.043   9.523  0.5857  0.4795 -0.1627
  183bbb     H5 5286   7.805   9.071   9.585  2.1317  0.6575  2.0013
  183bbb     H6 5287   7.959   9.126   9.501 -1.0436  2.1001  0.7571
  183bbb     C4 5288   7.980   8.945   9.615 -0.2777 -0.2899 -0.0875
  183bbb     H7 5289   8.058   8.888   9.563  1.0432 -0.0039  1.5088
  183bbb     H8 5290   7.915   8.861   9.641 -1.9171  0.6937 -0.8276
  183bbb     C5 5291   7.599   8.936   9.448  0.8994 -0.2753  0.4337
  183bbb     H9 5292   7.581   9.031   9.397  2.7980  0.5167  1.1366
  183bbb    H10 5293   7.590   8.961   9.555 -0.0016  0.3592  0.2245
  183bbb     C6 5294   7.943   8.877   9.181  0.1814  0.3070 -0.4166
  183bbb    H11 5295   7.856   8.810   9.177  1.2062 -1.2233  1.5697
  183bbb    H12 5296   8.029   8.829   9.134 -0.0880  0.1098 -0.7101
  183bbb     C7 5297   8.051   9.019   9.737  1.1206  0.0745 -1.1902
  183bbb    H13 5298   8.128   8.959   9.787  1.6659  0.7750 -1.1672
  183bbb    H14 5299   7.979   9.053   9.813  2.1321 -0.3072 -0.0372
  183bbb     C8 5300   7.920   9.012   9.101 -0.1990 -0.1160  0.4578
  183bbb    H15 5301   8.009   9.073   9.119 -1.8652  2.4044  0.7729
  183bbb    H16 5302   7.836   9.068   9.145 -2.3851 -0.1817 -3.1367
  183bbb     C9 5303   7.480   8.847   9.421 -0.1062  0.1258  0.5424
  183bbb    H17 5304   7.395   8.894   9.471  1.0836  2.1133  0.8094
  183bbb    H18 5305   7.504   8.748   9.460 -1.2263 -0.0752  0.7527
  183bbb     O1 5306   8.112   9.136   9.684  0.4726  0.3389  0.3317
  184bbb     N1 5307   7.580   9.368   9.434 -0.8434 -0.1443  0.3199
  184bbb     C1 5308   7.443   9.307   9.420  0.4951 -0.6177  0.2643
  184bbb     H1 5309   7.372   9.375   9.468  2.0133 -0.1514  1.9889
  184bbb     H2 5310   7.433   9.214   9.478 -2.3032  0.4722  1.7141
  184bbb     C2 5311   7.628   9.384   9.577 -0.0162 -0.7742  0.1304
  184bbb     H3 5312   7.722   9.440   9.576  0.3045 -1.2763  0.8655
  184bbb     H4 5313   7.659   9.283   9.608 -0.8424 -0.8030  0.9000
  184bbb     C3 5314   7.686   9.298   9.347  0.8398 -0.8742  0.3037
  184bbb     H5 5315   7.634   9.291   9.251  1.0086 -0.5838  0.1877
  184bbb     H6 5316   7.715   9.204   9.394 -1.8634 -1.6030  0.6714
  184bbb     C4 5317   7.807   9.388   9.321 -0.7285 -0.8188 -0.3344
  184bbb     H7 5318   7.851   9.432   9.412 -0.8344 -1.5160  0.0576
  184bbb     H8 5319   7.779   9.471   9.255  2.8292  1.6594  0.9663
  184bbb     C5 5320   7.398   9.282   9.275  0.2051 -0.0675  0.4264
  184bbb     H9 5321   7.294   9.248   9.288  0.2764 -0.8839 -0.9636
  184bbb    H10 5322   7.451   9.202   9.222 -2.0096 -0.0540 -2.0393
  184bbb     C6 5323   7.526   9.446   9.681 -0.2784  0.8117 -0.1144
  184bbb    H11 5324   7.436   9.384   9.691  0.3565 -0.0613  0.2918
  184bbb    H12 5325   7.497   9.542   9.638  1.6228  1.0832 -0.8716
  184bbb     C7 5326   7.921   9.309   9.250 -0.4008  0.0873 -0.6839
  184bbb    H13 5327   7.888   9.284   9.148 -0.8205  1.4268 -0.8933
  184bbb    H14 5328   7.941   9.216   9.304 -1.5649  0.7034  0.8758
  184bbb     C8 5329   7.599   9.444   9.824 -0.4234 -0.2992  0.7672
  184bbb    H15 5330   7.697   9.491   9.811 -0.7005  0.3619  1.0079
  184bbb    H16 5331   7.612   9.337   9.846  0.0999 -0.2726  0.5942
  184bbb     C9 5332   7.390   9.412   9.191 -0.3930 -0.1380  0.7048
  184bbb    H17 5333   7.491   9.439   9.157 -0.0617 -2.3198 -0.1813
  184bbb    H18 5334   7.349   9.491   9.256  1.4225  0.6101  0.9810
  184bbb     O1 5335   8.034   9.406   9.241 -0.2923  0.0475  0.1743
  185bbb     N1 5336   7.750  10.250  10.396  0.0677 -0.4777 -0.3854
  185bbb     C1 5337   7.751  10.376  10.319 -0.2774  0.3143  0.4886
  185bbb     H1 5338   7.751  10.354  10.212 -0.7589  0.2451  0.4992
  185bbb     H2 5339   7.851  10.420  10.332  0.2336 -0.4975 -0.5540
  185bbb     C2 5340   7.619  10.170  10.386  0.2560 -0.5696  0.3809
  185bbb     H3 5341   7.536  10.226  10.430  0.1731 -0.8332  0.5591
  185bbb     H4 5342   7.617  10.078  10.445  0.0493 -1.4649 -0.9612
  185bbb     C3 5343   7.865  10.161  10.364 -0.6556 -0.3651 -0.5080
  185bbb     H5 5344   7.870  10.143  10.256  2.9495 -0.1097 -0.5065
  185bbb     H6 5345   7.852  10.072  10.427 -2.1116  1.2016  1.5080
  185bbb     C4 5346   8.004  10.223  10.404 -0.2974 -0.2559  0.0147
  185bbb     H7 5347   7.989  10.279  10.497  0.5333 -0.1209  0.0749
  185bbb     H8 5348   8.033  10.300  10.332 -0.5834 -1.2048 -1.1473
  185bbb     C5 5349   7.634  10.475  10.357 -0.7460 -0.1229 -0.2217
  185bbb     H9 5350   7.539  10.429  10.326 -2.1601  1.5457  1.4273
  185bbb    H10 5351   7.643  10.577  10.320 -2.6950 -0.2623 -1.2001
  185bbb     C6 5352   7.583  10.132  10.237  0.1627  0.1464  0.2347
  185bbb    H11 5353   7.669  10.087  10.186 -0.2277 -0.0579 -0.2509
  185bbb    H12 5354   7.565  10.215  10.167 -1.3911 -0.2067  0.1964
  185bbb     C7 5355   8.121  10.124  10.419 -0.2721  0.3127 -0.2024
  185bbb    H13 5356   8.107  10.066  10.511 -2.0486 -0.9231 -1.1760
  185bbb    H14 5357   8.214  10.176  10.442 -0.4517  0.7998 -0.5650
  185bbb     C8 5358   7.464  10.030  10.229  0.0737 -0.7540 -0.2601
  185bbb    H15 5359   7.496   9.941  10.286  0.6845 -0.8592 -0.7532
  185bbb    H16 5360   7.448  10.001  10.125 -1.0961 -1.8911  0.2126
  185bbb     C9 5361   7.627  10.495  10.514  0.2726 -0.1088  0.0614
  185bbb    H17 5362   7.726  10.530  10.545  0.3717 -0.4095  0.0931
  185bbb    H18 5363   7.606  10.401  10.568 -3.0777  0.6983  0.3820
  185bbb     O1 5364   8.129  10.034  10.305  0.2472 -0.1821 -0.1797
  186bbb     N1 5365   7.915  10.665   9.428  0.4590 -0.4553  0.4313
  186bbb     C1 5366   7.986  10.614   9.310  0.6324 -0.2480  0.3961
  186bbb     H1 5367   7.990  10.505   9.320  1.7620 -0.1742  0.9203
  186bbb     H2 5368   8.089  10.650   9.305  0.4470  0.1127 -2.5896
  186bbb     C2 5369   7.767  10.643   9.427 -0.3483  0.3347  0.0588
  186bbb     H3 5370   7.746  10.535   9.436 -0.4397  0.2422 -1.1117
  186bbb     H4 5371   7.716  10.661   9.331 -2.5083  1.2213  1.2918
  186bbb     C3 5372   7.978  10.636   9.561 -0.1836 -1.4709 -0.0606
  186bbb     H5 5373   7.949  10.713   9.633 -0.5547 -1.7077  0.0424
  186bbb     H6 5374   8.085  10.645   9.539 -0.6673  1.9210 -1.5463
  186bbb     C4 5375   7.953  10.495   9.622 -0.1278 -1.1369 -0.4405
  186bbb     H7 5376   7.851  10.461   9.598 -2.0787  2.7469  1.4395
  186bbb     H8 5377   7.957  10.507   9.731 -0.0834 -1.1725 -0.4381
  186bbb     C5 5378   7.930  10.651   9.167  0.0801 -0.7033  0.1249
  186bbb     H9 5379   7.829  10.609   9.165  0.4298 -1.6040  0.7625
  186bbb    H10 5380   7.991  10.600   9.091  3.5992  1.2636  1.3905
  186bbb     C6 5381   7.672  10.717   9.529 -0.0054 -0.2740 -0.3138
  186bbb    H11 5382   7.713  10.703   9.630 -0.6261  2.7914  0.4689
  186bbb    H12 5383   7.579  10.660   9.516  0.3223 -0.5338 -1.6902
  186bbb     C7 5384   8.067  10.399   9.582 -0.2299  0.2517 -0.3487
  186bbb    H13 5385   8.160  10.448   9.614  0.2110 -0.6095 -0.2906
  186bbb    H14 5386   8.082  10.375   9.476 -3.2995 -0.1754 -0.7785
  186bbb     C8 5387   7.664  10.879   9.507  0.2105  0.5115  0.1247
  186bbb    H15 5388   7.625  10.909   9.408 -1.7045 -0.4650  0.5560
  186bbb    H16 5389   7.768  10.915   9.509  0.0459  1.1543 -1.1630
  186bbb     C9 5390   7.919  10.797   9.129 -0.4873 -0.3137  0.2749
  186bbb    H17 5391   7.872  10.844   9.217  0.9809 -2.1119  2.1386
  186bbb    H18 5392   7.854  10.805   9.041 -0.3691  0.0514  0.2205
  186bbb     O1 5393   8.038  10.285   9.667 -0.5615 -0.1204  0.2421
  187bbb     N1 5394  10.015   7.643   9.141  0.4125  0.5107  0.3410
  187bbb     C1 5395   9.971   7.776   9.172  0.6127 -0.3741 -0.0310
  187bbb     H1 5396  10.047   7.836   9.224 -0.1152 -0.6856  1.4465
  187bbb     H2 5397   9.888   7.774   9.245 -0.1725  2.3569 -0.7053
  187bbb     C2 5398  10.072   7.570   9.249  0.4424  0.5443 -0.0282
  187bbb     H3 5399  10.082   7.468   9.211 -0.8617 -0.0172  1.0706
  187bbb     H4 5400   9.995   7.564   9.327  0.3782  3.0188  0.1646
  187bbb     C3 5401   9.908   7.566   9.065 -1.0788  0.2212 -0.4360
  187bbb     H5 5402   9.956   7.470   9.041 -1.1378  0.8580 -3.5598
  187bbb     H6 5403   9.883   7.616   8.971  0.2440  0.8569 -0.4712
  187bbb     C4 5404   9.780   7.540   9.149  0.4285 -0.7435 -0.1674
  187bbb     H7 5405   9.735   7.637   9.175  3.5199  0.9397 -0.6233
  187bbb     H8 5406   9.801   7.488   9.243 -3.9403  1.8473  2.6261
  187bbb     C5 5407   9.929   7.870   9.050  0.3529  0.2149  0.2149
  187bbb     H9 5408   9.920   7.976   9.075  0.4047  0.4879 -0.8525
  187bbb    H10 5409   9.832   7.840   9.007 -0.0317  0.6895  0.7474
  187bbb     C6 5410  10.207   7.618   9.300 -0.0153 -0.0068  0.3268
  187bbb    H11 5411  10.180   7.717   9.341  1.2150  0.3020  0.4556
  187bbb    H12 5412  10.283   7.625   9.221 -0.9421 -2.4914 -0.8812
  187bbb     C7 5413   9.679   7.456   9.067 -0.0811  0.2037 -0.5611
  187bbb    H13 5414   9.720   7.354   9.058  0.0847 -0.0705  2.3663
  187bbb    H14 5415   9.655   7.510   8.975  0.1382  1.1241 -0.0942
  187bbb     C8 5416  10.269   7.524   9.407  0.0221  0.2528 -0.5966
  187bbb    H15 5417  10.273   7.420   9.374 -0.6406  0.5656 -1.7067
  187bbb    H16 5418  10.207   7.521   9.497  1.0608  0.2912  0.1374
  187bbb     C9 5419  10.040   7.865   8.942 -0.8740 -0.6169  0.3645
  187bbb    H17 5420  10.045   7.765   8.898  0.3392  0.2415 -1.5944
  187bbb    H18 5421  10.137   7.893   8.987 -0.9755 -0.3211  0.4004
  187bbb     O1 5422   9.564   7.440   9.147 -0.3156  0.4018 -0.4358
  188bbb     N1 5423   8.588   7.383   8.800 -0.7952  0.0761  0.2522
  188bbb     C1 5424   8.454   7.395   8.734  0.1852 -0.3009 -0.0988
  188bbb     H1 5425   8.448   7.502   8.710  0.5478  0.2043  1.9491
  188bbb     H2 5426   8.372   7.364   8.800  1.3436 -2.1594  0.5349
  188bbb     C2 5427   8.612   7.473   8.919 -0.0016  0.0990 -0.1188
  188bbb     H3 5428   8.614   7.577   8.884  0.9168  0.0521 -0.2179
  188bbb     H4 5429   8.712   7.460   8.962 -0.7588  0.6414  1.9050
  188bbb     C3 5430   8.711   7.389   8.709  0.4090  0.1390  0.2016
  188bbb     H5 5431   8.713   7.301   8.644  0.4807 -0.6363  1.2184
  188bbb     H6 5432   8.802   7.367   8.767  1.7420  0.5677 -1.6697
  188bbb     C4 5433   8.721   7.528   8.643 -0.8397  0.5188  0.3190
  188bbb     H7 5434   8.737   7.611   8.712  0.4301  1.3465 -0.9287
  188bbb     H8 5435   8.629   7.547   8.587 -0.1043 -0.3082 -1.2348
  188bbb     C5 5436   8.432   7.315   8.610 -0.1968  0.3136  0.2385
  188bbb     H9 5437   8.429   7.210   8.641  1.4160  0.7829  2.1652
  188bbb    H10 5438   8.522   7.317   8.548  0.0006  0.1938  0.5208
  188bbb     C6 5439   8.511   7.457   9.035  0.4627 -0.3770 -0.0463
  188bbb    H11 5440   8.507   7.353   9.068 -0.0066 -0.6512 -0.9166
  188bbb    H12 5441   8.408   7.487   9.014  0.6912  1.4473  1.2293
  188bbb     C7 5442   8.850   7.531   8.561 -0.1530 -0.1309 -0.5494
  188bbb    H13 5443   8.847   7.617   8.493 -0.4775 -0.3165 -0.7781
  188bbb    H14 5444   8.865   7.448   8.490 -0.4976  1.2654 -2.3357
  188bbb     C8 5445   8.568   7.542   9.157 -0.1958 -0.1423 -0.3035
  188bbb    H15 5446   8.563   7.650   9.135 -0.7036 -0.9495 -5.3927
  188bbb    H16 5447   8.678   7.534   9.165 -0.0513  0.9353 -0.9925
  188bbb     C9 5448   8.307   7.355   8.529 -0.6340  0.5331  0.6175
  188bbb    H17 5449   8.218   7.355   8.594 -1.4669  0.2817 -0.4981
  188bbb    H18 5450   8.277   7.273   8.463 -1.2026  0.8457  0.4740
  188bbb     O1 5451   8.961   7.542   8.654  1.0657  0.2216 -0.0955
  189bbb     N1 5452   8.048   7.845   9.532  0.5474  0.1780 -0.2997
  189bbb     C1 5453   8.088   7.812   9.393  0.0649  0.2850  0.5659
  189bbb     H1 5454   8.024   7.859   9.317 -0.0488 -2.3250 -1.0873
  189bbb     H2 5455   8.089   7.707   9.362 -0.1624  0.1133  1.1417
  189bbb     C2 5456   7.899   7.844   9.570 -0.7246  0.6938 -1.1518
  189bbb     H3 5457   7.876   7.881   9.670 -1.3247 -0.4874 -0.8295
  189bbb     H4 5458   7.863   7.741   9.577  1.9630 -0.2050  0.9426
  189bbb     C3 5459   8.125   7.790   9.641 -0.3016  0.0293  0.3396
  189bbb     H5 5460   8.061   7.798   9.729  1.8484 -1.4910  2.1745
  189bbb     H6 5461   8.216   7.850   9.652 -0.0794 -0.4446  1.1729
  189bbb     C4 5462   8.165   7.637   9.632  0.5084  0.1235 -0.0602
  189bbb     H7 5463   8.224   7.633   9.540  0.0837  2.1269 -0.4602
  189bbb     H8 5464   8.073   7.578   9.622  0.5105 -0.2523  1.7802
  189bbb     C5 5465   8.228   7.876   9.372 -0.0953  0.0058  0.8339
  189bbb     H9 5466   8.288   7.861   9.463 -0.8644 -1.3114  1.1417
  189bbb    H10 5467   8.234   7.985   9.365  1.1150 -0.1385 -1.3133
  189bbb     C6 5468   7.813   7.916   9.472 -0.0123 -0.6415  0.2936
  189bbb    H11 5469   7.710   7.897   9.503  1.0845 -3.0829  2.9433
  189bbb    H12 5470   7.823   7.867   9.374  0.5212 -1.5321  0.7730
  189bbb     C7 5471   8.248   7.595   9.757  0.3815 -0.2581 -0.3253
  189bbb    H13 5472   8.273   7.488   9.749 -0.3548 -0.5887  1.2821
  189bbb    H14 5473   8.192   7.617   9.849  1.5157  1.1581  0.0507
  189bbb     C8 5474   7.860   8.062   9.474  0.6490 -0.2436 -0.0166
  189bbb    H15 5475   7.795   8.123   9.410 -0.3852 -0.1650  1.0669
  189bbb    H16 5476   7.957   8.077   9.427  0.6755  0.5802  0.2801
  189bbb     C9 5477   8.304   7.815   9.249  0.0122 -0.2622 -0.5390
  189bbb    H17 5478   8.329   7.711   9.271 -0.1460 -0.8163 -2.7948
  189bbb    H18 5479   8.395   7.871   9.223 -0.3985 -0.5905 -2.9353
  189bbb     O1 5480   8.365   7.668   9.746 -0.0864 -0.3119  0.3548
  190bbb     N1 5481   8.194   8.831  10.291  0.2343  0.0705  0.1603
  190bbb     C1 5482   8.079   8.905  10.346  0.7224  0.5831  0.2640
  190bbb     H1 5483   8.080   9.002  10.295  0.4083  0.9894  1.0117
  190bbb     H2 5484   8.089   8.928  10.453  3.1166 -0.8714  0.4412
  190bbb     C2 5485   8.318   8.886  10.351 -0.5593  0.5613 -0.3632
  190bbb     H3 5486   8.411   8.829  10.335 -0.9517 -1.2530  2.9365
  190bbb     H4 5487   8.310   8.881  10.460 -0.1350 -0.5926 -0.3681
  190bbb     C3 5488   8.180   8.678  10.313 -0.0610  0.0007  0.1070
  190bbb     H5 5489   8.098   8.642  10.249 -1.1455 -2.6185  2.7482
  190bbb     H6 5490   8.145   8.656  10.414 -0.8006 -0.1594 -0.1765
  190bbb     C4 5491   8.312   8.600  10.297  0.5407  0.0856  0.2360
  190bbb     H7 5492   8.382   8.629  10.376  1.5053 -0.6067 -0.3436
  190bbb     H8 5493   8.357   8.624  10.200  2.3124  1.8454  1.4028
  190bbb     C5 5494   7.941   8.849  10.316 -0.0239  0.0578  0.3909
  190bbb     H9 5495   7.867   8.913  10.365 -1.3763 -1.1770 -0.0013
  190bbb    H10 5496   7.924   8.751  10.362 -1.1763  0.7996  1.6253
  190bbb     C6 5497   8.342   9.030  10.305  0.0287  0.1605 -0.1412
  190bbb    H11 5498   8.270   9.097  10.353 -0.2406  0.1107 -0.4783
  190bbb    H12 5499   8.323   9.028  10.197  0.7487 -0.0338 -0.2687
  190bbb     C7 5500   8.289   8.441  10.316  0.3003  0.0747  0.4300
  190bbb    H13 5501   8.211   8.409  10.246  0.9195  0.0814 -0.2870
  190bbb    H14 5502   8.261   8.416  10.419 -1.4294  0.0067 -0.0384
  190bbb     C8 5503   8.487   9.086  10.320 -0.7028  0.0834  0.3506
  190bbb    H15 5504   8.498   9.190  10.290  2.1728 -0.1367  0.4510
  190bbb    H16 5505   8.560   9.034  10.257  0.5951 -1.6423  3.0567
  190bbb     C9 5506   7.908   8.866  10.164 -0.2381 -0.7234  0.5154
  190bbb    H17 5507   7.986   8.837  10.092 -1.0689  0.8034 -1.0758
  190bbb    H18 5508   7.881   8.971  10.143  0.9908 -0.5618 -0.4221
  190bbb     O1 5509   8.411   8.367  10.284 -0.2069 -0.0383  0.1025
  191ccc     C1 5510  11.680   9.618   6.856 -0.5472  0.3458  0.1467
  191ccc     C2 5511  11.560   9.537   6.912 -0.0736 -0.1181  0.7842
  191ccc     H1 5512  11.720   9.685   6.932 -0.3728  0.6725 -0.2271
  191ccc     H2 5513  11.605   9.469   6.985  0.7983 -0.5741 -0.1433
  191ccc     C3 5514  11.459   9.633   6.976  0.3268 -0.6346  0.5256
  191ccc     C4 5515  11.416   9.748   6.884 -0.1894  0.3043  0.8495
  191ccc     C5 5516  11.540   9.817   6.812 -0.4499  0.2526 -0.1441
  191ccc     H3 5517  11.353   9.704   6.806  1.6120  0.4301 -0.7437
  191ccc     H4 5518  11.497   9.677   7.069 -0.5593 -0.9884  1.0637
  191ccc     H5 5519  11.595   9.870   6.890  0.2901 -1.8846  0.8514
  191ccc     O1 5520  11.513   9.914   6.705 -0.1022 -0.0009 -0.0369
  191ccc     O2 5521  11.339   9.838   6.959  0.1629  0.6007  0.6030
  191ccc     O3 5522  11.341   9.566   7.016 -0.2611 -0.4633 -0.0280
  191ccc     O4 5523  11.505   9.467   6.800  0.7011 -0.2767  0.1044
  191ccc     C6 5524  11.784   9.528   6.794  0.7835 -0.1010  0.3651
  191ccc     H6 5525  11.335   9.586   7.111 -0.8278  1.7230 -0.4601
  191ccc     H7 5526  11.414   9.444   6.826  1.2161 -1.6794  0.7600
  191ccc     H8 5527  11.259   9.792   6.988 -0.8903  2.6642  1.1922
  191ccc     H9 5528  11.800   9.451   6.871 -0.9669 -0.4399  0.4139
  191ccc    H10 5529  11.874   9.579   6.756  1.0411 -0.9321 -0.1703
  191ccc     O5 5530  11.731   9.468   6.678 -0.6460 -0.2562  0.5960
  191ccc    H11 5531  11.639   9.462   6.709 -0.6968 -0.0622  0.4818
  191ccc     O6 5532  11.636   9.716   6.763  0.0750  0.2041  0.0262
  192ccc     C1 5533  12.378  10.266   6.321 -0.0355  0.2864 -0.5720
  192ccc     C2 5534  12.515  10.347   6.321  0.9939  0.2419  0.3899
  192ccc     H1 5535  12.311  10.315   6.249  0.1462 -1.5967 -2.0955
  192ccc     H2 5536  12.554  10.369   6.221  0.6122 -0.4091  0.0868
  192ccc     C3 5537  12.491  10.472   6.404  0.3108 -0.7935 -0.0291
  192ccc     C4 5538  12.424  10.441   6.549  0.1949  0.0161 -0.4790
  192ccc     C5 5539  12.287  10.365   6.532 -0.3967 -0.2229 -0.4551
  192ccc     H3 5540  12.492  10.384   6.613  0.0153  1.8460  1.4419
  192ccc     H4 5541  12.422  10.534   6.345  1.3960  1.8743  1.3651
  192ccc     H5 5542  12.224  10.439   6.481 -0.9988  0.3966  1.1271
  192ccc     O1 5543  12.242  10.326   6.661  0.0537 -0.4343  0.1907
  192ccc     O2 5544  12.393  10.566   6.617 -0.0996  0.0314 -0.2023
  192ccc     O3 5545  12.611  10.551   6.426 -0.0531 -0.2550  0.0848
  192ccc     O4 5546  12.600  10.269   6.404 -0.6014  0.1924 -0.5243
  192ccc     C6 5547  12.387  10.120   6.261 -0.2786  0.3901  0.3127
  192ccc     H6 5548  12.569  10.633   6.458 -3.6245 -2.1016  0.7181
  192ccc     H7 5549  12.668  10.331   6.434  0.1795  0.3687 -2.4769
  192ccc     H8 5550  12.472  10.582   6.672 -1.3030  1.1552  1.2883
  192ccc     H9 5551  12.435  10.129   6.163 -0.6734  1.5088  0.1991
  192ccc    H10 5552  12.285  10.083   6.265 -0.5766  1.2246  0.7952
  192ccc     O5 5553  12.473  10.045   6.349  0.5118 -0.0659  0.2479
  192ccc    H11 5554  12.531  10.118   6.374  1.4338  0.3668 -2.7920
  192ccc     O6 5555  12.306  10.250   6.452  0.0411  0.6395  0.8889
  193ccc     C1 5556  11.591  10.284   5.154  1.1128 -0.0197 -0.4473
  193ccc     C2 5557  11.590  10.410   5.254  0.2789 -0.2546 -0.6984
  193ccc     H1 5558  11.524  10.310   5.071 -0.5778 -2.0098  0.1967
  193ccc     H2 5559  11.624  10.498   5.198 -1.3206  0.5906 -0.3696
  193ccc     C3 5560  11.453  10.444   5.313  0.0819  0.5091  0.7233
  193ccc     C4 5561  11.373  10.317   5.353 -0.9678 -0.3174  0.2217
  193ccc     C5 5562  11.390  10.190   5.260 -1.2065 -0.8357 -0.4107
  193ccc     H3 5563  11.415  10.296   5.452  0.7216  0.4386 -0.2941
  193ccc     H4 5564  11.396  10.482   5.227  1.6646 -0.0902 -0.6628
  193ccc     H5 5565  11.331  10.197   5.168 -0.8681 -1.9379 -0.7265
  193ccc     O1 5566  11.341  10.079   5.330 -0.5300  0.1536 -0.3391
  193ccc     O2 5567  11.235  10.342   5.369  0.8880  0.3869  0.4433
  193ccc     O3 5568  11.465  10.542   5.416  0.2404  0.8189 -0.0695
  193ccc     O4 5569  11.695  10.387   5.354 -0.3176  0.2527 -0.0848
  193ccc     C6 5570  11.729  10.248   5.105  0.5730  0.5343 -0.7815
  193ccc     H6 5571  11.373  10.572   5.427 -1.2422 -3.0999 -0.3529
  193ccc     H7 5572  11.661  10.404   5.443 -0.6651  0.0768 -0.1833
  193ccc     H8 5573  11.228  10.312   5.462 -0.9259  2.9589  1.2548
  193ccc     H9 5574  11.806  10.253   5.184  0.5727  0.7001 -0.7926
  193ccc    H10 5575  11.760  10.322   5.030  0.1069 -0.2584 -1.7673
  193ccc     O5 5576  11.720  10.118   5.043 -0.4942 -0.0148 -0.4940
  193ccc    H11 5577  11.730  10.061   5.121  2.7520  0.5269 -0.3564
  193ccc     O6 5578  11.530  10.170   5.222 -0.0292  0.3704  0.6353
  194ccc     C1 5579  10.691   9.249   5.365 -0.2343 -0.3425  0.4386
  194ccc     C2 5580  10.570   9.222   5.279  0.0479  0.0085 -0.0858
  194ccc     H1 5581  10.643   9.309   5.443 -2.1903  0.4980 -1.2980
  194ccc     H2 5582  10.493   9.182   5.346 -0.3762 -0.7071 -0.9813
  194ccc     C3 5583  10.512   9.351   5.210 -0.1222  0.2562 -0.5629
  194ccc     C4 5584  10.620   9.437   5.146 -0.1083 -0.2753 -0.1132
  194ccc     C5 5585  10.733   9.461   5.245 -0.5671  0.1699  0.2228
  194ccc     H3 5586  10.660   9.384   5.059  2.4209  0.0723  0.7538
  194ccc     H4 5587  10.485   9.417   5.294 -2.1491 -1.5884  0.3394
  194ccc     H5 5588  10.710   9.523   5.332  2.2374 -1.1082  2.0238
  194ccc     O1 5589  10.844   9.536   5.182 -0.0488  0.2705  0.2842
  194ccc     O2 5590  10.560   9.563   5.110  0.1848 -0.5515 -0.2463
  194ccc     O3 5591  10.392   9.326   5.129 -0.3886  0.6500  0.2713
  194ccc     O4 5592  10.604   9.131   5.182  0.5195 -0.3047 -0.3215
  194ccc     C6 5593  10.758   9.121   5.421  0.2244  0.2578  0.2172
  194ccc     H6 5594  10.320   9.387   5.151  0.9690  3.2360 -1.9855
  194ccc     H7 5595  10.522   9.108   5.136  0.5440  1.1812 -1.1781
  194ccc     H8 5596  10.524   9.544   5.021  2.3832  0.9913 -1.5668
  194ccc     H9 5597  10.810   9.057   5.349  1.6596 -2.7193  3.5718
  194ccc    H10 5598  10.680   9.060   5.470 -0.3208  1.7274  1.2442
  194ccc     O5 5599  10.849   9.164   5.521 -0.1938  0.3065 -0.6248
  194ccc    H11 5600  10.936   9.130   5.491  0.2336  0.9180 -0.1114
  194ccc     O6 5601  10.783   9.331   5.287 -0.7402 -0.1300  0.1867
  195ccc     C1 5602  11.265   9.163   6.673  0.1168 -0.1142 -0.6497
  195ccc     C2 5603  11.168   9.306   6.774 -0.2689  0.8415 -0.4434
  195ccc     H1 5604  11.200   9.142   6.587  1.1525  1.6239 -1.9270
  195ccc     H2 5605  11.072   9.330   6.726  0.0589 -0.2993 -1.7232
  195ccc     C3 5606  11.103   9.259   6.956 -0.8505  0.5475 -0.4916
  195ccc     C4 5607  11.142   9.086   7.044  0.7887  1.1984 -0.0357
  195ccc     C5 5608  11.244   8.949   6.935  0.5191  0.5892 -0.9049
  195ccc     H3 5609  11.202   9.105   7.134 -0.0733 -0.1823  0.8591
  195ccc     H4 5610  10.994   9.258   6.942 -0.8715 -2.7595 -0.6829
  195ccc     H5 5611  11.169   8.870   6.923  0.0676  0.7259  0.6771
  195ccc     O1 5612  11.332   8.858   7.014  0.2127 -0.1502  0.3636
  195ccc     O2 5613  11.015   9.028   7.096 -0.3246  0.0737 -0.0904
  195ccc     O3 5614  11.123   9.373   7.043  0.7003 -0.1034  0.4675
  195ccc     O4 5615  11.244   9.424   6.776 -0.2771 -0.0374  0.2824
  195ccc     C6 5616  11.376   9.218   6.591 -0.5986 -0.9336  0.4024
  195ccc     H6 5617  11.202   9.410   6.999  0.8923 -0.5233  0.4564
  195ccc     H7 5618  11.176   9.492   6.791 -1.2188 -0.3924 -2.0252
  195ccc     H8 5619  11.038   8.941   7.132 -0.1644  0.3762  0.5367
  195ccc     H9 5620  11.454   9.260   6.656  0.1440  0.1351 -1.1369
  195ccc    H10 5621  11.341   9.296   6.524 -2.6130 -0.0450  2.3595
  195ccc     O5 5622  11.439   9.112   6.525 -0.2301  0.7105  0.2195
  195ccc    H11 5623  11.426   9.047   6.596 -1.3844  0.8431  0.1511
  195ccc     O6 5624  11.306   8.997   6.763 -0.0700 -0.3835 -0.2032
  196ccc     C1 5625  12.040   8.587   6.313 -0.0538  0.5148 -0.4263
  196ccc     C2 5626  12.017   8.499   6.185 -0.2633 -0.5469  0.0442
  196ccc     H1 5627  12.140   8.563   6.350  1.0320  1.4370 -2.5508
  196ccc     H2 5628  12.096   8.529   6.114  0.5218  1.4115  1.6649
  196ccc     C3 5629  12.030   8.347   6.203  0.5544  0.2099 -0.0182
  196ccc     C4 5630  11.926   8.303   6.318 -0.6675 -0.2604 -0.2660
  196ccc     C5 5631  11.929   8.403   6.438 -0.3428 -1.1750  0.2506
  196ccc     H3 5632  11.823   8.317   6.282 -0.9047  0.9073  0.8059
  196ccc     H4 5633  12.127   8.326   6.250 -0.0139  0.6095  1.3894
  196ccc     H5 5634  12.016   8.374   6.499  1.3734  0.1187 -1.4530
  196ccc     O1 5635  11.809   8.379   6.514 -0.2984 -0.4853  0.0140
  196ccc     O2 5636  11.945   8.169   6.363  0.4923  0.8247 -0.0894
  196ccc     O3 5637  12.016   8.267   6.088  0.8100  0.4280  0.4045
  196ccc     O4 5638  11.883   8.537   6.141  0.0446  0.6957  0.4350
  196ccc     C6 5639  12.034   8.741   6.297 -0.0740 -0.3657 -0.1706
  196ccc     H6 5640  11.930   8.296   6.053  1.5438  0.0633 -1.8720
  196ccc     H7 5641  11.868   8.615   6.198 -0.5022 -0.2949  1.7113
  196ccc     H8 5642  11.943   8.115   6.282 -1.3721 -0.6509  0.8364
  196ccc     H9 5643  12.104   8.774   6.219 -1.1048  0.4077 -0.7949
  196ccc    H10 5644  12.068   8.791   6.388 -1.2841 -1.2879  0.8161
  196ccc     O5 5645  11.906   8.784   6.268 -0.0075  0.3761  0.6611
  196ccc    H11 5646  11.854   8.771   6.349 -0.8938  0.8696  0.1862
  196ccc     O6 5647  11.934   8.545   6.409  0.2168  0.1786 -0.2918
  197ccc     C1 5648  10.408   8.736   6.012 -1.1326 -0.1024  0.3677
  197ccc     C2 5649  10.321   8.824   6.111 -0.1039 -1.1639  0.1822
  197ccc     H1 5650  10.487   8.801   5.970 -0.4762  0.5329  2.4781
  197ccc     H2 5651  10.374   8.861   6.199 -0.6656 -0.8143  0.3747
  197ccc     C3 5652  10.271   8.947   6.029  0.4560 -0.1396  0.5221
  197ccc     C4 5653  10.203   8.901   5.888  0.2594 -0.0066 -0.5787
  197ccc     C5 5654  10.284   8.803   5.805 -0.2393 -0.3262 -0.8614
  197ccc     H3 5655  10.113   8.843   5.913 -0.0307  1.3134  1.7998
  197ccc     H4 5656  10.359   9.000   5.989 -0.9879  0.1165 -2.5936
  197ccc     H5 5657  10.374   8.852   5.765 -0.0580  0.3422  0.3197
  197ccc     O1 5658  10.204   8.758   5.697 -0.3847 -0.3341  0.4141
  197ccc     O2 5659  10.183   9.022   5.810 -0.2824  0.3959  0.4613
  197ccc     O3 5660  10.182   9.031   6.104  0.7816  0.8192 -0.0618
  197ccc     O4 5661  10.218   8.737   6.160  0.3970 -0.4008 -0.5994
  197ccc     C6 5662  10.489   8.622   6.075 -0.2138  0.0752 -0.8929
  197ccc     H6 5663  10.226   9.040   6.191  2.8002 -3.1224 -0.4337
  197ccc     H7 5664  10.271   8.656   6.173 -0.1161 -0.7514 -0.6158
  197ccc     H8 5665  10.089   9.047   5.813 -0.5576 -0.4771 -0.1988
  197ccc     H9 5666  10.574   8.667   6.128 -0.9185  2.1830 -1.4673
  197ccc    H10 5667  10.523   8.555   5.994 -0.2578 -2.0128  0.7204
  197ccc     O5 5668  10.394   8.549   6.148 -0.0270 -0.0866  0.1006
  197ccc    H11 5669  10.432   8.459   6.141  2.8318  1.1078 -1.2392
  197ccc     O6 5670  10.333   8.694   5.896  0.5591 -0.4984  0.8219
  198ccc     C1 5671  10.216   8.186   4.715 -0.4374 -0.0249  0.6786
  198ccc     C2 5672  10.115   8.068   4.697 -0.2024  0.0534  0.0828
  198ccc     H1 5673  10.317   8.150   4.690 -1.0130 -0.6156 -0.9672
  198ccc     H2 5674  10.110   8.038   4.592  0.5058 -2.0405  0.6003
  198ccc     C3 5675  10.147   7.939   4.782 -0.8976 -0.9054 -0.3858
  198ccc     C4 5676  10.146   7.993   4.925  0.0137  0.3108 -0.2215
  198ccc     C5 5677  10.240   8.115   4.944  0.0140 -0.1026 -0.1937
  198ccc     H3 5678  10.049   8.034   4.954 -0.2475 -0.2789 -0.2372
  198ccc     H4 5679  10.252   7.914   4.762 -0.5323  0.0797  0.1877
  198ccc     H5 5680  10.341   8.080   4.921 -0.1078 -1.0686  0.6430
  198ccc     O1 5681  10.238   8.161   5.088  0.3333  0.8886  0.3423
  198ccc     O2 5682  10.181   7.880   5.008  0.4520 -0.0133 -0.6869
  198ccc     O3 5683  10.062   7.837   4.738 -0.0020 -0.0497 -0.1813
  198ccc     O4 5684   9.986   8.119   4.722  0.6289  0.6540  0.2612
  198ccc     C6 5685  10.198   8.309   4.620 -0.1336 -0.0148  0.4471
  198ccc     H6 5686   9.978   7.852   4.785 -0.4115 -0.2491 -0.8350
  198ccc     H7 5687   9.991   8.213   4.694  0.6812  1.1583  1.8864
  198ccc     H8 5688  10.108   7.819   4.989 -0.2526  0.8088 -0.7065
  198ccc     H9 5689  10.211   8.277   4.516 -2.5809 -0.8952  0.3417
  198ccc    H10 5690  10.275   8.381   4.650 -0.7569  0.6936  0.3707
  198ccc     O5 5691  10.068   8.359   4.635  0.1528 -0.0339 -0.4351
  198ccc    H11 5692  10.064   8.438   4.579 -2.5656 -0.0335 -0.3812
  198ccc     O6 5693  10.219   8.231   4.858 -0.0216  0.5172 -0.0172
  199ccc     C1 5694   9.136  11.920   7.474  0.2515 -0.0868  0.2062
  199ccc     C2 5695   9.143  11.918   7.635 -0.2632 -0.0016  1.0343
  199ccc     H1 5696   9.066  11.840   7.444 -1.4619  0.5576  2.2585
  199ccc     H2 5697   9.037  11.931   7.662 -1.5673 -2.4397 -2.1906
  199ccc     C3 5698   9.188  11.782   7.683  0.1674  0.2192  0.5653
  199ccc     C4 5699   9.327  11.743   7.614  0.1932  0.1712 -0.3132
  199ccc     C5 5700   9.328  11.755   7.461 -0.0032 -0.3337  0.2346
  199ccc     H3 5701   9.403  11.811   7.653  0.4449 -0.7470  0.8538
  199ccc     H4 5702   9.110  11.713   7.648 -0.2334  1.6514 -1.5248
  199ccc     H5 5703   9.269  11.673   7.418  1.4559 -0.5447 -1.4722
  199ccc     O1 5704   9.460  11.750   7.402  0.1790  0.2486  0.3692
  199ccc     O2 5705   9.363  11.619   7.674  0.0748  0.1873  0.7490
  199ccc     O3 5706   9.196  11.775   7.828  0.3072 -0.1527  0.1139
  199ccc     O4 5707   9.230  12.015   7.683 -0.2180 -0.1544  0.1069
  199ccc     C6 5708   9.086  12.050   7.417  0.6677 -0.9327  0.1360
  199ccc     H6 5709   9.215  11.869   7.844 -3.6974  0.8956 -0.3311
  199ccc     H7 5710   9.202  12.083   7.619 -1.1364 -0.2450  0.3970
  199ccc     H8 5711   9.459  11.625   7.685  0.2683  0.1361 -0.6690
  199ccc     H9 5712   8.978  12.062   7.432  0.5865  0.0123 -1.0207
  199ccc    H10 5713   9.094  12.051   7.308 -1.8232 -0.0844 -0.0966
  199ccc     O5 5714   9.143  12.157   7.481 -0.5345 -0.5346 -0.3455
  199ccc    H11 5715   9.229  12.185   7.445 -0.5614  1.6501  1.0574
  199ccc     O6 5716   9.266  11.884   7.421  0.0598 -0.2735  0.2011
  200ccc     C1 5717   8.895  11.689   6.408 -0.3590  0.5997  0.6265
  200ccc     C2 5718   8.831  11.821   6.356  0.0965 -0.0909 -0.3056
  200ccc     H1 5719   8.817  11.648   6.474  1.0300 -0.8321  1.4478
  200ccc     H2 5720   8.723  11.812   6.345 -0.7468  1.1920  4.6449
  200ccc     C3 5721   8.837  11.937   6.456  0.8903 -0.0807 -0.1230
  200ccc     C4 5722   8.962  11.934   6.545  0.8568  0.2041  0.2179
  200ccc     C5 5723   9.000  11.792   6.599 -0.5255 -0.1312 -0.4700
  200ccc     H3 5724   9.040  11.973   6.478 -2.4507  3.1792 -2.2880
  200ccc     H4 5725   8.753  11.928   6.526 -0.8682 -2.0058 -2.2960
  200ccc     H5 5726   8.925  11.762   6.672 -0.1075  1.3244  0.5885
  200ccc     O1 5727   9.128  11.798   6.663 -0.4454  0.1688  0.0082
  200ccc     O2 5728   8.939  12.018   6.663 -0.1921 -0.0074  0.0548
  200ccc     O3 5729   8.821  12.065   6.395  0.1578 -0.3388  0.2597
  200ccc     O4 5730   8.890  11.875   6.237 -0.2670  0.5220 -0.4213
  200ccc     C6 5731   8.913  11.578   6.297  0.4068  0.2006 -0.4750
  200ccc     H6 5732   8.738  12.070   6.342 -1.2756  0.6478  2.4526
  200ccc     H7 5733   8.877  11.966   6.269 -0.7445  0.6146 -0.8692
  200ccc     H8 5734   9.025  12.058   6.682  1.0898 -2.4502 -0.1062
  200ccc     H9 5735   8.977  11.615   6.216 -1.8324  1.9972 -1.5601
  200ccc    H10 5736   8.811  11.570   6.256  0.1077 -3.1429  0.6009
  200ccc     O5 5737   8.961  11.455   6.352 -0.2300  0.5992  0.4209
  200ccc    H11 5738   9.050  11.482   6.380  0.1927 -1.2258  1.0024
  200ccc     O6 5739   9.014  11.707   6.484  0.0559 -0.4291 -0.3299
  201ccc     C1 5740  11.274  11.320   8.380 -0.0468 -0.0593  0.0771
  201ccc     C2 5741  11.370  11.428   8.326 -0.1746  0.8528 -0.1798
  201ccc     H1 5742  11.337  11.238   8.415  0.6811 -0.2414 -1.5580
  201ccc     H2 5743  11.434  11.466   8.407  1.3983 -1.4698 -0.2305
  201ccc     C3 5744  11.466  11.380   8.216  0.4848 -0.0560  0.2318
  201ccc     C4 5745  11.394  11.301   8.101  0.6464 -1.0557 -0.0964
  201ccc     C5 5746  11.271  11.210   8.162 -0.2085  0.4564 -0.0143
  201ccc     H3 5747  11.353  11.375   8.030  0.5656 -0.9707  0.0396
  201ccc     H4 5748  11.528  11.311   8.274  0.6099  1.3597  1.8663
  201ccc     H5 5749  11.312  11.117   8.201 -1.6503 -0.4610 -0.5930
  201ccc     O1 5750  11.177  11.186   8.053  0.8369  0.3927 -0.0819
  201ccc     O2 5751  11.498  11.229   8.034 -0.2299  0.2337 -0.2647
  201ccc     O3 5752  11.554  11.492   8.171 -0.4478 -0.0663  0.1295
  201ccc     O4 5753  11.289  11.528   8.275 -0.1500 -0.5086 -0.2473
  201ccc     C6 5754  11.180  11.354   8.493 -0.0693  0.2407  0.0506
  201ccc     H6 5755  11.631  11.445   8.134  0.1374 -0.6184  1.9460
  201ccc     H7 5756  11.218  11.528   8.341 -0.7981  2.8454 -0.7529
  201ccc     H8 5757  11.490  11.134   8.054 -0.7770  0.2754 -0.2671
  201ccc     H9 5758  11.238  11.346   8.586 -3.6451  1.3623  2.5574
  201ccc    H10 5759  11.098  11.284   8.477  0.1813  0.1474 -0.9294
  201ccc     O5 5760  11.133  11.488   8.477 -0.5723 -0.2320 -0.5443
  201ccc    H11 5761  11.135  11.527   8.566  1.9045 -1.0548 -0.1481
  201ccc     O6 5762  11.198  11.269   8.273 -0.3774  0.3679 -0.7378
  202ccc     C1 5763  11.231  10.605   7.135  0.0643  0.3574  0.4685
  202ccc     C2 5764  11.353  10.676   7.084  0.2313 -0.0961 -0.6087
  202ccc     H1 5765  11.152  10.628   7.062  0.2968 -1.3082 -0.3433
  202ccc     H2 5766  11.370  10.645   6.980  1.5266 -1.7668  0.0454
  202ccc     C3 5767  11.339  10.828   7.096  0.1270  0.1794  0.7527
  202ccc     C4 5768  11.284  10.862   7.238  0.4019  0.2038 -0.8812
  202ccc     C5 5769  11.155  10.785   7.271 -0.2576 -0.2979  0.4729
  202ccc     H3 5770  11.359  10.837   7.314 -0.0198  0.0635 -0.5057
  202ccc     H4 5771  11.263  10.864   7.025  0.1008 -0.7238  0.3084
  202ccc     H5 5772  11.087  10.816   7.191  0.7879  0.7362 -0.0548
  202ccc     O1 5773  11.119  10.821   7.399 -0.0095  0.5556 -0.6814
  202ccc     O2 5774  11.265  11.008   7.246  0.9868 -0.2383  0.3773
  202ccc     O3 5775  11.472  10.898   7.062 -0.3598  0.2162 -0.3709
  202ccc     O4 5776  11.469  10.637   7.150 -0.0815 -0.1581 -0.1002
  202ccc     C6 5777  11.238  10.456   7.138  0.6418  0.1715  0.3190
  202ccc     H6 5778  11.468  10.995   7.063 -1.0653  0.2475  2.0919
  202ccc     H7 5779  11.523  10.714   7.127 -1.1745 -0.0916 -2.8045
  202ccc     H8 5780  11.227  11.029   7.159  3.2619 -0.0062 -0.6218
  202ccc     H9 5781  11.309  10.429   7.216  0.9729 -0.1501 -0.0900
  202ccc    H10 5782  11.281  10.426   7.042 -0.5600  3.7944 -1.5780
  202ccc     O5 5783  11.105  10.408   7.157 -0.0818  0.8011 -0.1839
  202ccc    H11 5784  11.077  10.438   7.245  1.0273  0.5914  0.2612
  202ccc     O6 5785  11.193  10.646   7.270 -0.1132 -0.0423 -0.1997
  203ccc     C1 5786  11.411   9.277   7.715 -0.5241  0.3026 -0.3338
  203ccc     C2 5787  11.287   9.270   7.635  0.1917 -0.8001 -0.3565
  203ccc     H1 5788  11.432   9.177   7.756  0.5756  0.3254 -0.8208
  203ccc     H2 5789  11.293   9.185   7.566 -0.0601 -2.2242  1.2940
  203ccc     C3 5790  11.165   9.251   7.718 -0.6842 -0.2840  0.1576
  203ccc     C4 5791  11.162   9.354   7.840 -0.2400  0.0961 -0.1859
  203ccc     C5 5792  11.297   9.337   7.916 -0.4915 -0.6289 -0.8436
  203ccc     H3 5793  11.155   9.458   7.806  1.7530 -0.2413 -1.8549
  203ccc     H4 5794  11.177   9.154   7.768  2.7032  0.2539  0.6336
  203ccc     H5 5795  11.313   9.241   7.966  1.4480 -0.4432 -1.0246
  203ccc     O1 5796  11.292   9.443   8.018  0.5560  0.0932 -0.5402
  203ccc     O2 5797  11.058   9.306   7.935 -0.2171  0.4328  0.0203
  203ccc     O3 5798  11.049   9.269   7.641 -0.4082  0.3140  0.1774
  203ccc     O4 5799  11.275   9.395   7.567 -0.1861  0.0068  0.3619
  203ccc     C6 5800  11.536   9.310   7.624  0.5760  0.9289  0.0611
  203ccc     H6 5801  10.972   9.249   7.697 -0.4534  0.6233  0.2324
  203ccc     H7 5802  11.179   9.398   7.556 -0.0798 -0.6130 -0.8240
  203ccc     H8 5803  11.035   9.389   7.980  0.7757  0.0421  1.3465
  203ccc     H9 5804  11.533   9.417   7.599  3.2401  0.5470 -2.2679
  203ccc    H10 5805  11.528   9.252   7.532 -0.3910 -0.2901  0.8798
  203ccc     O5 5806  11.654   9.277   7.692 -0.2706  0.0918 -0.4008
  203ccc    H11 5807  11.664   9.346   7.760  0.8869 -0.6596  0.2289
  203ccc     O6 5808  11.403   9.371   7.825  0.0006  0.1040 -0.0958
  204ccc     C1 5809  11.254   9.643   8.906 -0.0739 -0.6600  0.2434
  204ccc     C2 5810  11.155   9.700   9.007  0.2533  0.6337 -0.1736
  204ccc     H1 5811  11.357   9.642   8.946  0.8691 -0.1880 -2.0298
  204ccc     H2 5812  11.162   9.651   9.105 -1.5556  0.6929  0.0287
  204ccc     C3 5813  11.158   9.855   9.039  0.3864  0.5730  0.6046
  204ccc     C4 5814  11.187   9.937   8.900  0.0165  0.0610 -0.2841
  204ccc     C5 5815  11.290   9.866   8.807  0.0801 -0.0318 -0.5480
  204ccc     H3 5816  11.090   9.944   8.850 -0.4279 -2.5451  0.0703
  204ccc     H4 5817  11.239   9.875   9.110 -0.6580 -2.0325  2.7199
  204ccc     H5 5818  11.387   9.860   8.857 -0.3200 -2.1271  0.0364
  204ccc     O1 5819  11.306   9.939   8.683  0.1340 -0.1252  0.2600
  204ccc     O2 5820  11.240  10.065   8.933 -0.7337 -0.6368 -0.5374
  204ccc     O3 5821  11.032   9.898   9.103  0.0119  0.2660  0.5742
  204ccc     O4 5822  11.023   9.686   8.947  0.1506 -0.2252 -0.4478
  204ccc     C6 5823  11.222   9.493   8.864 -0.3712 -0.2226  0.8767
  204ccc     H6 5824  11.039   9.995   9.104  0.1149  0.2592  0.6072
  204ccc     H7 5825  10.979   9.739   9.016  1.9714 -1.4521  1.8101
  204ccc     H8 5826  11.316  10.082   8.876 -2.4193  0.9576 -2.4666
  204ccc     H9 5827  11.159   9.485   8.775 -0.9267 -1.1956  1.3440
  204ccc    H10 5828  11.164   9.449   8.946 -0.9381  0.2028  0.7166
  204ccc     O5 5829  11.344   9.421   8.841  0.1014  0.1442  0.0569
  204ccc    H11 5830  11.362   9.458   8.752 -1.4692  1.1940  0.1387
  204ccc     O6 5831  11.250   9.728   8.786 -0.1209 -0.1886 -0.0101
  205ccc     C1 5832  11.754  10.507   7.897 -1.0361  0.0464 -0.0010
  205ccc     C2 5833  11.864  10.595   7.824 -0.8695  0.8241 -0.1277
  205ccc     H1 5834  11.744  10.422   7.828 -0.0562 -3.9273  4.1990
  205ccc     H2 5835  11.953  10.532   7.810 -0.4655  1.3747 -0.0536
  205ccc     C3 5836  11.803  10.653   7.692  0.2462  0.0914  0.4467
  205ccc     C4 5837  11.662  10.724   7.714 -0.3932  0.5606  0.3056
  205ccc     C5 5838  11.565  10.633   7.789  0.4252  0.3348  0.0381
  205ccc     H3 5839  11.671  10.814   7.776 -1.6276 -0.6958  2.4403
  205ccc     H4 5840  11.778  10.564   7.634 -0.2307  0.0921  0.6482
  205ccc     H5 5841  11.521  10.556   7.726 -0.7822  1.2200 -0.2216
  205ccc     O1 5842  11.449  10.718   7.834  0.2066  0.2980  0.5083
  205ccc     O2 5843  11.599  10.767   7.590  0.3733 -0.5983 -0.0034
  205ccc     O3 5844  11.898  10.736   7.614  0.1182 -0.1822 -0.1287
  205ccc     O4 5845  11.896  10.692   7.914  0.4832 -0.4169 -0.0291
  205ccc     C6 5846  11.805  10.456   8.028  0.2212 -0.4517 -0.2119
  205ccc     H6 5847  11.873  10.827   7.636 -0.7901 -0.4615  0.0441
  205ccc     H7 5848  11.993  10.698   7.912  0.5670 -1.6704 -0.5706
  205ccc     H8 5849  11.535  10.832   7.625  1.0258 -0.6175  1.3051
  205ccc     H9 5850  11.823  10.536   8.101 -1.0439 -1.6374  1.4828
  205ccc    H10 5851  11.905  10.413   8.012  0.6785  1.1078 -1.8442
  205ccc     O5 5852  11.705  10.371   8.082  0.2773 -0.1492  0.4916
  205ccc    H11 5853  11.679  10.317   8.006 -0.5350  1.4853 -0.4441
  205ccc     O6 5854  11.628  10.577   7.911  0.0370  0.2936 -0.0544
  206ccc     C1 5855  11.573   9.743   7.854 -0.6204 -0.5724  0.4871
  206ccc     C2 5856  11.557   9.681   7.714  0.2263  0.5445  0.4444
  206ccc     H1 5857  11.535   9.675   7.931  0.6934 -0.8722  0.8909
  206ccc     H2 5858  11.598   9.580   7.710  0.7962  0.7598  0.8049
  206ccc     C3 5859  11.407   9.666   7.678  0.3176  0.6946  0.0385
  206ccc     C4 5860  11.327   9.792   7.700 -0.2126 -0.3344 -0.2337
  206ccc     C5 5861  11.360   9.858   7.835 -0.1173  0.1200  0.3762
  206ccc     H3 5862  11.356   9.859   7.618  2.0740 -1.1074 -0.1197
  206ccc     H4 5863  11.363   9.591   7.745 -0.1254  0.7065 -0.2383
  206ccc     H5 5864  11.315   9.797   7.914 -2.5952 -1.8290 -2.3297
  206ccc     O1 5865  11.295   9.984   7.836  0.6291 -0.2016 -0.7319
  206ccc     O2 5866  11.190   9.759   7.704  0.8633 -0.1456 -0.0200
  206ccc     O3 5867  11.391   9.631   7.534  0.2016  0.3595 -0.2483
  206ccc     O4 5868  11.625   9.748   7.610  0.3205 -0.7304 -0.0077
  206ccc     C6 5869  11.718   9.760   7.893 -0.2462  0.2197  0.3897
  206ccc     H6 5870  11.340   9.548   7.535 -3.4266  2.3891  1.4098
  206ccc     H7 5871  11.559   9.735   7.539  0.6025  0.7581 -0.5732
  206ccc     H8 5872  11.156   9.725   7.619 -1.4313  1.1939  0.2854
  206ccc     H9 5873  11.762   9.848   7.844 -0.9760 -0.4406 -1.5294
  206ccc    H10 5874  11.769   9.667   7.864 -1.2307 -0.1247 -0.2930
  206ccc     O5 5875  11.723   9.776   8.039 -0.8859 -0.1547 -0.1081
  206ccc    H11 5876  11.662   9.848   8.061 -1.7026 -1.1245  0.9129
  206ccc     O6 5877  11.506   9.874   7.857  0.0908  0.4655  0.1193
  207ccc     C1 5878   9.245   9.700   4.496 -0.1646 -0.4745  0.0711
  207ccc     C2 5879   9.335   9.591   4.434  1.1326 -0.8151 -0.1807
  207ccc     H1 5880   9.208   9.665   4.593  1.2570 -0.7663  0.5308
  207ccc     H2 5881   9.413   9.562   4.506 -0.0237  1.0126  1.9047
  207ccc     C3 5882   9.253   9.463   4.408  0.6389 -0.2438 -0.6764
  207ccc     C4 5883   9.128   9.502   4.328  0.0725  0.1234 -0.1448
  207ccc     C5 5884   9.047   9.621   4.382 -0.0194 -0.0494 -0.1671
  207ccc     H3 5885   9.154   9.526   4.224 -0.2501  2.9372  0.3418
  207ccc     H4 5886   9.224   9.433   4.510  2.5261  1.0074  0.2978
  207ccc     H5 5887   8.988   9.595   4.471 -0.1512  1.0218  0.0732
  207ccc     O1 5888   8.951   9.658   4.284  0.2551  0.0181 -0.0694
  207ccc     O2 5889   9.048   9.390   4.334 -1.1834  0.5114 -0.1155
  207ccc     O3 5890   9.325   9.352   4.356  1.0361 -0.4000  0.0681
  207ccc     O4 5891   9.396   9.652   4.314 -0.2915  0.0181  0.0994
  207ccc     C6 5892   9.325   9.821   4.535 -0.0486 -0.2779 -0.0645
  207ccc     H6 5893   9.299   9.344   4.262  0.4575  0.9355  0.1017
  207ccc     H7 5894   9.483   9.609   4.310 -0.1530  0.3792 -1.1933
  207ccc     H8 5895   8.991   9.400   4.256  0.0954  2.5945 -0.8788
  207ccc     H9 5896   9.424   9.798   4.575 -0.2714  0.6759  1.0982
  207ccc    H10 5897   9.276   9.898   4.596 -0.0888  0.5766 -1.1506
  207ccc     O5 5898   9.351   9.880   4.409  0.6918 -0.3287  0.1672
  207ccc    H11 5899   9.368   9.799   4.358  1.3688  0.6974 -1.3116
  207ccc     O6 5900   9.135   9.737   4.412  1.2058  0.0604  0.6355
  208ccc     C1 5901   8.270  10.666   4.405 -0.1310 -0.5610 -0.5606
  208ccc     C2 5902   8.386  10.759   4.457 -0.4331  0.0383 -0.0630
  208ccc     H1 5903   8.207  10.626   4.486 -0.0708 -0.9951 -0.7282
  208ccc     H2 5904   8.342  10.835   4.524  0.3723 -0.3374  0.9280
  208ccc     C3 5905   8.489  10.689   4.553  0.7112  0.2592 -0.0785
  208ccc     C4 5906   8.532  10.553   4.490 -0.4060  0.0623  0.0635
  208ccc     C5 5907   8.423  10.469   4.417  0.2299 -0.8104  0.4946
  208ccc     H3 5908   8.601  10.575   4.408 -0.0539 -0.8139  0.1132
  208ccc     H4 5909   8.427  10.658   4.638 -0.5417 -0.6493 -1.2638
  208ccc     H5 5910   8.364  10.423   4.497  0.6237 -0.0970  1.2038
  208ccc     O1 5911   8.483  10.360   4.342  0.3777  0.1819  0.4581
  208ccc     O2 5912   8.608  10.471   4.586 -0.0461  0.0713 -0.6741
  208ccc     O3 5913   8.600  10.766   4.594  0.2828 -0.3496  0.2734
  208ccc     O4 5914   8.462  10.810   4.346  0.4510 -0.9737  0.5341
  208ccc     C6 5915   8.180  10.734   4.302  0.2512 -0.1454  0.5599
  208ccc     H6 5916   8.664  10.713   4.645 -0.0110 -1.4904 -0.5024
  208ccc     H7 5917   8.546  10.841   4.383 -0.3192 -0.4863  1.9698
  208ccc     H8 5918   8.697  10.465   4.548  0.6354  0.9513  0.7036
  208ccc     H9 5919   8.241  10.759   4.215  2.1595  1.7559  2.3325
  208ccc    H10 5920   8.155  10.829   4.350  3.3709  0.5901  0.8890
  208ccc     O5 5921   8.062  10.656   4.264 -0.0097  0.4385 -0.1049
  208ccc    H11 5922   7.990  10.717   4.241  0.2135 -0.3228 -3.2300
  208ccc     O6 5923   8.339  10.563   4.334 -0.9712  0.5011  0.6528
  209ccc     C1 5924   7.213   9.194   5.613 -0.1297 -0.4120  0.5770
  209ccc     C2 5925   7.109   9.117   5.695  0.4101 -0.8054 -0.6913
  209ccc     H1 5926   7.185   9.194   5.507 -0.6592 -0.8380  0.7111
  209ccc     H2 5927   7.006   9.153   5.682 -0.0463 -2.0759 -0.7781
  209ccc     C3 5928   7.107   8.964   5.663 -0.6662 -0.1118  0.0785
  209ccc     C4 5929   7.256   8.910   5.673 -0.0387  0.2033 -0.0194
  209ccc     C5 5930   7.358   9.001   5.602 -0.4116  0.6916 -0.0388
  209ccc     H3 5931   7.285   8.907   5.779  2.3737 -2.1681 -0.6076
  209ccc     H4 5932   7.069   8.964   5.560  1.2173  0.6176 -0.6633
  209ccc     H5 5933   7.352   8.978   5.494  0.9646  0.5905 -0.1093
  209ccc     O1 5934   7.491   8.958   5.646  1.1102 -0.4163 -0.1730
  209ccc     O2 5935   7.254   8.771   5.628 -0.2982 -0.3964  0.2398
  209ccc     O3 5936   7.011   8.891   5.746 -0.3046  0.1846 -0.6162
  209ccc     O4 5937   7.146   9.132   5.835 -0.4313 -0.3522  0.3502
  209ccc     C6 5938   7.230   9.342   5.649 -0.5928 -0.3771 -0.2822
  209ccc     H6 5939   7.013   8.795   5.731 -2.4689 -0.0117  0.0391
  209ccc     H7 5940   7.081   9.078   5.883  0.1242 -0.0371  1.5077
  209ccc     H8 5941   7.186   8.764   5.559 -0.7293  2.8470  0.2005
  209ccc     H9 5942   7.251   9.357   5.755  0.8001  0.9826 -0.7098
  209ccc    H10 5943   7.140   9.399   5.622 -0.0324  0.1620 -1.0816
  209ccc     O5 5944   7.323   9.389   5.556 -0.1971  0.4222 -0.3308
  209ccc    H11 5945   7.376   9.308   5.546  2.8275  1.8697  2.3839
  209ccc     O6 5946   7.344   9.135   5.629 -0.1483 -0.5530 -0.1448
  210ccc     C1 5947   7.315   9.089   5.154  0.6636  0.6756  0.9602
  210ccc     C2 5948   7.390   8.955   5.112 -0.7796 -0.5940 -0.3723
  210ccc     H1 5949   7.284   9.134   5.059 -0.0704 -0.9359  0.3948
  210ccc     H2 5950   7.326   8.900   5.042  1.4299 -0.4510 -2.5931
  210ccc     C3 5951   7.535   8.978   5.048 -0.3035 -0.3149 -0.3601
  210ccc     C4 5952   7.606   9.090   5.116  0.2310  0.2670 -0.7086
  210ccc     C5 5953   7.524   9.218   5.160  0.5710  0.3660 -0.0925
  210ccc     H3 5954   7.640   9.044   5.210 -2.7159 -1.1550 -0.2146
  210ccc     H4 5955   7.505   9.025   4.953  1.5459 -0.4669 -1.0658
  210ccc     H5 5956   7.494   9.273   5.069  0.5228 -0.7686 -0.7833
  210ccc     O1 5957   7.598   9.297   5.251  0.3898 -0.2797  0.0213
  210ccc     O2 5958   7.729   9.126   5.040  0.0987  0.3151 -0.6305
  210ccc     O3 5959   7.616   8.864   5.022 -0.3094  0.1513 -0.1946
  210ccc     O4 5960   7.418   8.891   5.236 -0.2254 -0.4005  0.0595
  210ccc     C6 5961   7.176   9.070   5.225  0.1536  0.6872  0.6251
  210ccc     H6 5962   7.563   8.783   5.009 -1.3608  0.9461 -1.0190
  210ccc     H7 5963   7.331   8.913   5.274 -0.0991 -1.0411  0.7356
  210ccc     H8 5964   7.697   9.178   4.965 -0.3254  0.2761 -0.4788
  210ccc     H9 5965   7.095   9.088   5.153 -0.1122 -0.3774  0.6469
  210ccc    H10 5966   7.170   9.151   5.299 -0.4689  0.1750  1.1557
  210ccc     O5 5967   7.162   8.941   5.293  0.1685 -0.0260  0.3081
  210ccc    H11 5968   7.068   8.938   5.319 -0.1662  1.6762 -0.5508
  210ccc     O6 5969   7.407   9.178   5.229  0.0585 -0.1757  0.3308
  211ccc     C1 5970   8.853  11.692   4.659 -0.1152 -0.1161  0.4289
  211ccc     C2 5971   8.794  11.787   4.766  0.3918 -0.2451 -0.8274
  211ccc     H1 5972   8.775  11.652   4.594  1.4629 -1.7495 -0.5681
  211ccc     H2 5973   8.713  11.851   4.730  0.1900 -0.0413 -0.0465
  211ccc     C3 5974   8.721  11.702   4.882  0.2993  0.5916  0.3759
  211ccc     C4 5975   8.811  11.583   4.928 -0.5185  0.2552  0.1700
  211ccc     C5 5976   8.853  11.499   4.800  0.5264 -0.1191  0.3361
  211ccc     H3 5977   8.903  11.632   4.964 -1.1782  2.0293 -0.4732
  211ccc     H4 5978   8.623  11.674   4.842  0.1289 -1.0556  1.8305
  211ccc     H5 5979   8.769  11.457   4.742  2.0279 -1.0080 -1.2868
  211ccc     O1 5980   8.935  11.384   4.836 -0.1297 -0.2705 -0.2989
  211ccc     O2 5981   8.742  11.499   5.031  0.0844  0.0378  0.2233
  211ccc     O3 5982   8.699  11.778   4.998  0.2389  0.0904  0.1920
  211ccc     O4 5983   8.888  11.876   4.825  0.0057 -0.3635  0.1157
  211ccc     C6 5984   8.953  11.752   4.561  0.5371  0.2162 -0.0069
  211ccc     H6 5985   8.625  11.835   4.972 -0.1987 -0.8552 -0.6947
  211ccc     H7 5986   8.957  11.869   4.757  0.3059  1.8892  0.0927
  211ccc     H8 5987   8.670  11.558   5.059  1.1525  1.6686 -0.3383
  211ccc     H9 5988   8.898  11.823   4.497 -0.9972 -0.1507  0.8639
  211ccc    H10 5989   8.991  11.672   4.497 -0.0974 -0.4913  0.4923
  211ccc     O5 5990   9.062  11.814   4.640 -0.3506  0.3771  0.1489
  211ccc    H11 5991   9.128  11.851   4.579 -1.7037  0.3941 -1.3779
  211ccc     O6 5992   8.929  11.583   4.715 -0.5151  0.0651 -0.0859
  212ccc     C1 5993   8.636  10.699   5.154  0.5086  0.0286  0.0606
  212ccc     C2 5994   8.565  10.584   5.083  0.7113 -0.2633 -0.0791
  212ccc     H1 5995   8.581  10.789   5.126 -0.4164 -0.4662  0.2426
  212ccc     H2 5996   8.458  10.596   5.103  0.1755 -0.6487 -2.4462
  212ccc     C3 5997   8.602  10.598   4.932  0.6793 -0.7384 -0.1307
  212ccc     C4 5998   8.752  10.607   4.905 -0.1910 -0.1906  0.6415
  212ccc     C5 5999   8.826  10.712   4.997  0.5099  0.0823  0.4021
  212ccc     H3 6000   8.791  10.508   4.932  0.6880 -0.2298 -0.6521
  212ccc     H4 6001   8.564  10.695   4.899  0.1950 -0.3705  1.4151
  212ccc     H5 6002   8.816  10.814   4.958  1.0071  0.2289  0.6548
  212ccc     O1 6003   8.965  10.671   5.015 -0.1662  0.5195 -0.0073
  212ccc     O2 6004   8.771  10.638   4.763 -0.1980  0.8530 -0.5937
  212ccc     O3 6005   8.537  10.499   4.849 -0.5146  0.6135 -0.5555
  212ccc     O4 6006   8.626  10.469   5.140 -0.4395  0.5180  0.2229
  212ccc     C6 6007   8.609  10.677   5.306  0.1438 -0.3574 -0.1507
  212ccc     H6 6008   8.570  10.494   4.757  0.7254 -2.4734 -0.0686
  212ccc     H7 6009   8.595  10.393   5.087  1.1169  0.8468 -1.2665
  212ccc     H8 6010   8.849  10.588   4.735 -1.2472 -0.7372 -0.8212
  212ccc     H9 6011   8.696  10.624   5.346  0.7153  1.7950  1.7037
  212ccc    H10 6012   8.521  10.612   5.318  0.5054 -0.7053  0.6729
  212ccc     O5 6013   8.607  10.810   5.380  0.1371 -0.3177  0.3891
  212ccc    H11 6014   8.587  10.783   5.471  0.6997 -0.8615  0.3538
  212ccc     O6 6015   8.779  10.696   5.129 -0.0020 -0.5019  0.0742
  213ccc     C1 6016  10.261   9.420   5.586 -0.2416 -0.1908  0.4525
  213ccc     C2 6017  10.282   9.276   5.615  0.2157  0.3483  0.7745
  213ccc     H1 6018  10.165   9.457   5.625  1.3540  3.2750  1.5377
  213ccc     H2 6019  10.265   9.253   5.721 -1.4124  0.2023  0.4994
  213ccc     C3 6020  10.182   9.179   5.540  0.1155  0.2081  0.7962
  213ccc     C4 6021  10.158   9.221   5.391  0.3766 -0.4382  0.6501
  213ccc     C5 6022  10.130   9.373   5.381  0.2403 -0.8088  0.3683
  213ccc     H3 6023  10.255   9.204   5.342  1.3701  1.4239  1.8706
  213ccc     H4 6024  10.087   9.178   5.595 -0.8720  1.1516 -0.7875
  213ccc     H5 6025  10.035   9.402   5.428 -0.1551 -2.2957  0.5246
  213ccc     O1 6026  10.137   9.411   5.236  0.5748  0.4271  0.8715
  213ccc     O2 6027  10.048   9.140   5.334  0.0349  0.0782 -0.2216
  213ccc     O3 6028  10.243   9.045   5.541 -0.6355  0.1658 -0.4267
  213ccc     O4 6029  10.416   9.245   5.574 -0.4477 -0.4424  0.3189
  213ccc     C6 6030  10.368   9.522   5.639 -0.0662  0.4741 -0.2395
  213ccc     H6 6031  10.234   9.014   5.633 -1.2477  2.2963  0.3009
  213ccc     H7 6032  10.450   9.163   5.615 -1.0378  1.0298  4.0917
  213ccc     H8 6033  10.067   9.134   5.239  0.5952  1.3447 -0.2057
  213ccc     H9 6034  10.387   9.503   5.746 -1.1288  0.7762  0.0242
  213ccc    H10 6035  10.332   9.626   5.633 -1.2765  0.1077  0.3051
  213ccc     O5 6036  10.491   9.506   5.572  0.0477 -0.2211  0.1891
  213ccc    H11 6037  10.486   9.413   5.546  1.5648  0.4383 -2.9259
  213ccc     O6 6038  10.242   9.440   5.448 -0.3830 -0.0510  0.3155
  214ccc     C1 6039  10.090   8.952   4.425  0.1532 -0.4393  0.1194
  214ccc     C2 6040  10.181   8.858   4.507  0.7094  0.9800 -0.2369
  214ccc     H1 6041  10.151   8.981   4.338 -0.3891 -0.7954 -0.3837
  214ccc     H2 6042  10.174   8.770   4.442 -0.3340  1.6638 -1.1038
  214ccc     C3 6043  10.319   8.923   4.522 -0.8582  0.0591  0.9705
  214ccc     C4 6044  10.299   9.060   4.604 -0.0371  0.0884 -0.0937
  214ccc     C5 6045  10.185   9.147   4.542  0.1766  0.0123  0.3075
  214ccc     H3 6046  10.269   9.034   4.707 -0.0718  0.5001  0.0004
  214ccc     H4 6047  10.340   8.958   4.420  0.3534  0.4495  1.3425
  214ccc     H5 6048  10.223   9.191   4.450  3.2717 -0.7732  1.0994
  214ccc     O1 6049  10.155   9.261   4.628  0.1395 -0.3062 -0.2067
  214ccc     O2 6050  10.417   9.142   4.603  0.0539 -0.3491  0.2471
  214ccc     O3 6051  10.415   8.823   4.567 -0.1902  0.6875 -0.5852
  214ccc     O4 6052  10.118   8.826   4.628  0.2575 -0.6873  0.1841
  214ccc     C6 6053   9.952   8.900   4.381  0.0450 -0.7053  0.4736
  214ccc     H6 6054  10.414   8.821   4.664  0.8540  0.3513 -0.5690
  214ccc     H7 6055  10.024   8.848   4.613 -0.5079 -2.8886  1.3944
  214ccc     H8 6056  10.417   9.188   4.689 -1.1266  3.4277 -1.5105
  214ccc     H9 6057   9.967   8.838   4.292 -0.3262  1.6758 -1.3697
  214ccc    H10 6058   9.890   8.984   4.348 -0.7102 -1.0687  0.9453
  214ccc     O5 6059   9.890   8.829   4.491 -0.2199 -0.3712  0.6311
  214ccc    H11 6060   9.802   8.804   4.458 -0.0504  1.1216 -1.0787
  214ccc     O6 6061  10.066   9.072   4.504  0.3722  0.4037 -0.2402
  215ccc     C1 6062   8.418  12.262   6.586 -0.0342 -0.4878 -0.1158
  215ccc     C2 6063   8.549  12.343   6.622  0.2682 -0.0814 -0.3262
  215ccc     H1 6064   8.343  12.270   6.665 -1.0474  2.4532 -1.2129
  215ccc     H2 6065   8.521  12.447   6.641  1.3453 -0.0364  1.2062
  215ccc     C3 6066   8.641  12.277   6.735  0.1548  0.0111 -0.0049
  215ccc     C4 6067   8.654  12.122   6.711  0.0912 -0.0945 -0.4839
  215ccc     C5 6068   8.516  12.055   6.675 -0.8593  0.2221  0.2213
  215ccc     H3 6069   8.713  12.106   6.620  1.5687  0.0031  0.4234
  215ccc     H4 6070   8.588  12.285   6.831  0.4415 -2.3862  0.4300
  215ccc     H5 6071   8.448  12.065   6.760 -1.2584 -1.2498  0.1012
  215ccc     O1 6072   8.546  11.919   6.626 -0.2257 -0.3894  0.8375
  215ccc     O2 6073   8.729  12.060   6.824  0.0699 -0.0028  0.2781
  215ccc     O3 6074   8.779  12.334   6.722  0.1688 -0.4965 -0.2846
  215ccc     O4 6075   8.634  12.339   6.502  0.8000  0.4429 -0.1355
  215ccc     C6 6076   8.342  12.320   6.462 -0.2767 -0.0740 -0.3191
  215ccc     H6 6077   8.813  12.348   6.812 -0.5370 -0.2752 -0.0510
  215ccc     H7 6078   8.721  12.332   6.544  1.7644  0.2596 -2.0849
  215ccc     H8 6079   8.810  12.044   6.772 -0.8176  2.4752 -2.0975
  215ccc     H9 6080   8.302  12.420   6.483 -1.6466 -1.0111  2.0358
  215ccc    H10 6081   8.258  12.251   6.446 -1.3590  1.1202  0.0439
  215ccc     O5 6082   8.426  12.309   6.350  0.1959  0.3217 -0.3852
  215ccc    H11 6083   8.512  12.338   6.385  0.2004 -1.3980  1.1465
  215ccc     O6 6084   8.463  12.124   6.559 -0.0149 -0.8179 -0.2964
  216ccc     C1 6085   7.441  11.918   6.258  0.2761 -0.2329 -0.4706
  216ccc     C2 6086   7.518  12.049   6.298 -0.4073 -0.2292  0.0377
  216ccc     H1 6087   7.334  11.921   6.281 -0.3960  1.0485 -3.2684
  216ccc     H2 6088   7.480  12.137   6.245 -0.5497  0.6708  1.5681
  216ccc     C3 6089   7.493  12.088   6.450  0.1834  0.4462  0.0391
  216ccc     C4 6090   7.561  11.977   6.531 -0.1895  0.3331  0.2453
  216ccc     C5 6091   7.502  11.838   6.485 -0.0172  0.0122  0.2811
  216ccc     H3 6092   7.668  11.976   6.505  0.1854  1.2970  1.6722
  216ccc     H4 6093   7.386  12.088   6.478 -0.6207  0.2351 -2.7667
  216ccc     H5 6094   7.398  11.846   6.520 -0.1272  1.9138 -0.3258
  216ccc     O1 6095   7.583  11.733   6.553  0.1134 -0.1220 -0.2357
  216ccc     O2 6096   7.537  11.997   6.669 -0.3627 -0.0907  0.0100
  216ccc     O3 6097   7.543  12.207   6.485 -0.3627 -0.2038  0.3660
  216ccc     O4 6098   7.657  12.029   6.272 -0.4804  0.0201 -0.5820
  216ccc     C6 6099   7.450  11.882   6.114  0.1035 -1.2718  0.5374
  216ccc     H6 6100   7.575  12.185   6.575  4.4303 -0.1949 -1.0295
  216ccc     H7 6101   7.645  11.980   6.188  2.0228 -0.1517 -0.8975
  216ccc     H8 6102   7.622  11.982   6.713  0.0621  0.8974 -0.4576
  216ccc     H9 6103   7.407  11.961   6.050 -0.3291 -1.6967  0.3010
  216ccc    H10 6104   7.384  11.796   6.099 -0.6231 -0.7540  0.6706
  216ccc     O5 6105   7.583  11.867   6.070  0.3073  0.0964  0.5146
  216ccc    H11 6106   7.571  11.830   5.981 -0.6497  2.0990 -0.2617
  216ccc     O6 6107   7.504  11.812   6.344  0.3453 -0.0887  0.2309
  217ccc     C1 6108   6.974  10.958   7.543 -0.1703  0.1931  0.2466
  217ccc     C2 6109   7.099  11.010   7.621  0.7524  0.1068 -0.0747
  217ccc     H1 6110   6.923  10.881   7.603  0.3102  0.3715  0.8942
  217ccc     H2 6111   7.064  11.031   7.723  0.0053 -0.9267 -0.1080
  217ccc     C3 6112   7.214  10.907   7.627 -0.7485  0.1622  0.1689
  217ccc     C4 6113   7.239  10.844   7.486 -0.4916  1.0610 -0.3972
  217ccc     C5 6114   7.104  10.786   7.435 -0.1635 -0.4411  0.1122
  217ccc     H3 6115   7.276  10.911   7.408  2.8312 -1.0209 -0.7958
  217ccc     H4 6116   7.171  10.829   7.691  0.3640  0.2923  1.1328
  217ccc     H5 6117   7.078  10.709   7.509 -0.8597  0.6365  1.0140
  217ccc     O1 6118   7.125  10.729   7.300  0.0052  0.9617 -0.8182
  217ccc     O2 6119   7.332  10.736   7.513  0.6095  0.1842 -0.0168
  217ccc     O3 6120   7.326  10.972   7.694 -0.6365 -0.4604  0.1458
  217ccc     O4 6121   7.143  11.133   7.558  0.3985 -0.0781 -0.3201
  217ccc     C6 6122   6.863  11.060   7.522  0.4714 -0.2073 -0.2518
  217ccc     H6 6123   7.405  10.941   7.646 -0.5918 -0.3575  0.1533
  217ccc     H7 6124   7.060  11.152   7.510 -0.8920  0.2649  1.8781
  217ccc     H8 6125   7.349  10.685   7.431 -1.8132  1.9665 -1.7644
  217ccc     H9 6126   6.829  11.095   7.620  0.7339  1.3000 -0.6847
  217ccc    H10 6127   6.780  11.014   7.468 -0.8621  0.8228  0.8693
  217ccc     O5 6128   6.900  11.172   7.452 -0.0454  0.1222 -0.0654
  217ccc    H11 6129   6.834  11.240   7.473  0.1438 -0.2646  1.9855
  217ccc     O6 6130   7.016  10.896   7.420  0.2581  0.3736 -0.1495
  218ccc     C1 6131   7.485  11.560   6.839  0.2659 -0.3556  0.1711
  218ccc     C2 6132   7.395  11.686   6.813  0.1167 -0.6026 -0.3600
  218ccc     H1 6133   7.518  11.519   6.743  0.1289  0.1337 -0.0884
  218ccc     H2 6134   7.452  11.755   6.750  1.9797 -0.3823  1.4662
  218ccc     C3 6135   7.265  11.644   6.727 -0.6096  0.5311  0.2642
  218ccc     C4 6136   7.187  11.520   6.782  0.8924 -0.1740  0.1743
  218ccc     C5 6137   7.289  11.409   6.820 -0.0596  0.0286  0.1262
  218ccc     H3 6138   7.136  11.538   6.877 -0.3037 -0.8591 -0.3277
  218ccc     H4 6139   7.307  11.624   6.627 -0.6717  0.4112  0.2629
  218ccc     H5 6140   7.338  11.365   6.733 -0.4479  0.9605 -0.5856
  218ccc     O1 6141   7.213  11.313   6.893  0.1200 -0.1650 -0.4246
  218ccc     O2 6142   7.101  11.470   6.673  0.4143 -0.0074  0.1939
  218ccc     O3 6143   7.184  11.761   6.709 -0.0813 -0.2538 -0.0575
  218ccc     O4 6144   7.366  11.747   6.932  0.6069 -0.2659 -0.1472
  218ccc     C6 6145   7.624  11.578   6.908  0.1141  0.2369 -0.6654
  218ccc     H6 6146   7.093  11.731   6.689 -0.0939 -0.0706 -0.2896
  218ccc     H7 6147   7.446  11.720   6.980 -0.1669 -1.4839  0.5047
  218ccc     H8 6148   7.032  11.538   6.661  1.1756  1.2439  2.3380
  218ccc     H9 6149   7.692  11.641   6.849  1.1054 -1.6329 -1.6101
  218ccc    H10 6150   7.673  11.480   6.917  0.0221  0.3577  1.7268
  218ccc     O5 6151   7.600  11.636   7.037 -0.0596  0.0513  0.1252
  218ccc    H11 6152   7.556  11.571   7.094  1.3107  0.6366  1.9288
  218ccc     O6 6153   7.401  11.458   6.900 -0.1673  0.7118 -0.2369
  219ccc     C1 6154  10.600  10.305   6.034  0.4064  0.1968 -0.5902
  219ccc     C2 6155  10.656  10.312   5.888 -0.5227  0.3229  0.0427
  219ccc     H1 6156  10.617  10.205   6.077  0.6714 -0.0752 -1.3181
  219ccc     H2 6157  10.751  10.257   5.886 -0.5030  0.3523 -2.1795
  219ccc     C3 6158  10.563  10.239   5.785  0.0645  0.1587 -0.1748
  219ccc     C4 6159  10.417  10.282   5.801  0.2260 -0.6756 -0.8513
  219ccc     C5 6160  10.371  10.274   5.948 -0.1671 -0.3747  0.1883
  219ccc     H3 6161  10.399  10.386   5.772  0.8196 -0.2829  0.1154
  219ccc     H4 6162  10.559  10.132   5.808 -2.2376  0.4359  1.0035
  219ccc     H5 6163  10.363  10.171   5.986 -1.2443 -0.0238  0.9643
  219ccc     O1 6164  10.242  10.337   5.961  0.1222  0.0383 -0.2879
  219ccc     O2 6165  10.342  10.196   5.712  0.5551 -0.1579 -0.3830
  219ccc     O3 6166  10.606  10.251   5.648  0.4213 -0.0362  0.7298
  219ccc     O4 6167  10.695  10.441   5.842  0.4687  0.4452 -0.0120
  219ccc     C6 6168  10.678  10.403   6.136 -0.1344 -0.2257  0.2101
  219ccc     H6 6169  10.524  10.232   5.599 -0.8785 -1.5198  3.2601
  219ccc     H7 6170  10.738  10.430   5.755  0.9964  3.5242 -0.2429
  219ccc     H8 6171  10.246  10.210   5.717  0.7180  0.8235  0.4874
  219ccc     H9 6172  10.781  10.366   6.140  0.0908  0.2085 -1.0608
  219ccc    H10 6173  10.631  10.385   6.234  0.5973 -0.1734  0.5752
  219ccc     O5 6174  10.689  10.540   6.085  0.3458  1.1706  0.1429
  219ccc    H11 6175  10.706  10.513   5.993 -1.5501  0.6807 -0.1145
  219ccc     O6 6176  10.460  10.348   6.042  0.3788  0.0029 -0.9369
  220ccc     C1 6177  10.861  10.860   6.625 -0.7704  0.0060 -0.0867
  220ccc     C2 6178  10.954  10.890   6.505  0.1345  0.6392  0.3865
  220ccc     H1 6179  10.917  10.792   6.691  2.9128  2.5311 -0.2907
  220ccc     H2 6180  11.053  10.915   6.545  0.4578 -1.1555  0.8166
  220ccc     C3 6181  10.973  10.760   6.419 -0.2647 -0.4145  0.4204
  220ccc     C4 6182  10.832  10.706   6.383  0.0235  0.3800  0.1456
  220ccc     C5 6183  10.742  10.677   6.506  0.7123 -0.6118  0.0109
  220ccc     H3 6184  10.777  10.779   6.323  1.0472 -0.7443 -2.3050
  220ccc     H4 6185  11.012  10.682   6.485 -0.8531 -0.4357  0.7533
  220ccc     H5 6186  10.775  10.601   6.577  0.0332 -0.2725  0.7106
  220ccc     O1 6187  10.608  10.640   6.462 -0.0365 -0.3980 -0.8271
  220ccc     O2 6188  10.842  10.584   6.300  0.0035 -0.3794 -0.3788
  220ccc     O3 6189  11.051  10.768   6.300  0.1869 -0.0237  0.1221
  220ccc     O4 6190  10.894  10.995   6.431  0.3745  0.4157  0.3201
  220ccc     C6 6191  10.831  10.982   6.717 -0.1963 -0.4638  0.1089
  220ccc     H6 6192  11.003  10.817   6.230 -1.8261  0.0556  1.4928
  220ccc     H7 6193  10.812  11.004   6.482  0.5972 -1.8642  1.1999
  220ccc     H8 6194  10.776  10.593   6.229 -0.1694 -4.1399 -0.8894
  220ccc     H9 6195  10.920  11.042   6.742 -1.0285  0.2985  1.3775
  220ccc    H10 6196  10.786  10.941   6.809  1.0044 -2.5449 -0.1545
  220ccc     O5 6197  10.739  11.066   6.641 -0.3063  0.5577 -0.0011
  220ccc    H11 6198  10.734  11.135   6.709  0.8005  1.5806 -0.9098
  220ccc     O6 6199  10.735  10.803   6.574  0.6146 -0.1539  0.0655
  221ccc     C1 6200   8.924  11.013   5.396 -0.0600 -0.7576  0.8462
  221ccc     C2 6201   8.800  11.081   5.326  0.2207  0.2344  0.4756
  221ccc     H1 6202   8.953  11.073   5.483  0.4430 -0.6624  0.6191
  221ccc     H2 6203   8.710  11.099   5.386 -0.2397 -0.4298 -0.0001
  221ccc     C3 6204   8.840  11.218   5.264  0.4933  0.3036  0.0383
  221ccc     C4 6205   8.969  11.202   5.165  0.4795 -0.0987 -0.3561
  221ccc     C5 6206   9.082  11.136   5.247  0.0615 -0.4777 -0.4476
  221ccc     H3 6207   8.945  11.135   5.081  0.0610  1.6572 -1.7138
  221ccc     H4 6208   8.873  11.285   5.345  0.3973 -0.1157  0.4329
  221ccc     H5 6209   9.113  11.211   5.321 -0.4660  1.7373 -2.3199
  221ccc     O1 6210   9.183  11.114   5.149 -0.2885  0.5416 -0.5414
  221ccc     O2 6211   9.015  11.328   5.108  0.2715 -0.3734  0.1000
  221ccc     O3 6212   8.729  11.285   5.203  0.1628  0.3866  0.1715
  221ccc     O4 6213   8.762  10.988   5.222 -0.0660  0.1349  0.9701
  221ccc     C6 6214   8.898  10.866   5.449 -0.7127 -0.3968 -0.4001
  221ccc     H6 6215   8.766  11.356   5.148  0.5533 -1.1125 -1.5802
  221ccc     H7 6216   8.708  10.920   5.266 -1.3607  0.0451 -0.6883
  221ccc     H8 6217   8.982  11.334   5.017 -1.4105 -0.2448  0.6839
  221ccc     H9 6218   8.883  10.802   5.362 -0.1362 -0.5715 -0.3759
  221ccc    H10 6219   8.824  10.866   5.530 -1.5721 -0.6008 -1.1678
  221ccc     O5 6220   9.021  10.832   5.515 -1.0936  0.0544 -0.0220
  221ccc    H11 6221   9.091  10.870   5.460 -0.8241 -0.8483 -0.3171
  221ccc     O6 6222   9.038  11.015   5.301 -0.0594 -0.4969  0.4319
  222ccc     C1 6223   9.389  11.408   4.661  0.1658 -0.4448 -0.6492
  222ccc     C2 6224   9.274  11.515   4.677  0.2318  0.7399 -0.1692
  222ccc     H1 6225   9.358  11.318   4.717  0.6738  0.6751  1.5519
  222ccc     H2 6226   9.175  11.486   4.640 -0.0547  0.1902  0.9646
  222ccc     C3 6227   9.257  11.560   4.823 -0.3608 -0.0163 -0.6063
  222ccc     C4 6228   9.392  11.611   4.879  0.5829 -0.3892 -0.8227
  222ccc     C5 6229   9.497  11.495   4.865  0.2614 -0.1910  0.5052
  222ccc     H3 6230   9.423  11.698   4.819 -0.4078 -0.1619 -1.0182
  222ccc     H4 6231   9.226  11.469   4.877  1.1351 -0.7761 -0.9860
  222ccc     H5 6232   9.460  11.402   4.910 -0.1511 -0.2553  0.0493
  222ccc     O1 6233   9.623  11.534   4.907 -0.5978  0.1143  0.0854
  222ccc     O2 6234   9.373  11.655   5.015 -0.5597  0.0092 -0.3663
  222ccc     O3 6235   9.158  11.662   4.839  0.4991  0.2404  0.2053
  222ccc     O4 6236   9.318  11.623   4.597  0.1000  0.2806 -0.2046
  222ccc     C6 6237   9.418  11.362   4.517 -1.0435  0.3115 -0.2162
  222ccc     H6 6238   9.128  11.689   4.751  0.4837  1.6890  0.6204
  222ccc     H7 6239   9.383  11.579   4.540  1.3249  2.4018 -0.5300
  222ccc     H8 6240   9.292  11.612   5.048  1.1201 -2.1481  1.3141
  222ccc     H9 6241   9.332  11.311   4.471 -0.7074  0.2842 -0.8227
  222ccc    H10 6242   9.504  11.294   4.526 -2.3878 -1.6456 -1.1951
  222ccc     O5 6243   9.460  11.476   4.440  0.0015 -0.0939  0.1464
  222ccc    H11 6244   9.460  11.448   4.347 -0.7079  1.4826 -0.3705
  222ccc     O6 6245   9.509  11.463   4.726 -0.0482  0.2196 -0.0028
  223ccc     C1 6246   7.550   7.609   6.657 -0.2165  0.3389  0.5997
  223ccc     C2 6247   7.503   7.593   6.803 -0.1517  0.0717 -0.2152
  223ccc     H1 6248   7.519   7.521   6.599  1.2518  1.5055 -2.1311
  223ccc     H2 6249   7.394   7.582   6.801 -0.0420 -1.1308 -1.6473
  223ccc     C3 6250   7.571   7.462   6.855 -0.5070  0.6208 -0.0737
  223ccc     C4 6251   7.730   7.467   6.835  0.4374 -0.5784 -0.2006
  223ccc     C5 6252   7.782   7.518   6.697 -0.4396  0.7599 -1.0355
  223ccc     H3 6253   7.779   7.538   6.903 -0.1979  1.8664 -2.1199
  223ccc     H4 6254   7.533   7.386   6.786 -1.9611  2.0509 -0.9126
  223ccc     H5 6255   7.787   7.431   6.631 -0.4468  1.3066 -1.7691
  223ccc     O1 6256   7.915   7.583   6.727 -0.0777  0.3403  0.5374
  223ccc     O2 6257   7.795   7.339   6.873  0.4988  0.2255  0.6607
  223ccc     O3 6258   7.538   7.423   6.992  0.3460 -0.6453 -0.3276
  223ccc     O4 6259   7.542   7.703   6.884 -0.2217 -0.2350  0.2674
  223ccc     C6 6260   7.488   7.739   6.600 -0.3848 -0.2904 -0.2389
  223ccc     H6 6261   7.441   7.414   7.002  0.1936  0.1307 -0.9519
  223ccc     H7 6262   7.533   7.767   6.810  0.3354 -0.2829  0.1589
  223ccc     H8 6263   7.793   7.333   6.970  2.7048  0.8332  0.8010
  223ccc     H9 6264   7.381   7.723   6.580 -0.1681 -0.3789 -1.3814
  223ccc    H10 6265   7.541   7.764   6.508  0.9967 -0.1782  0.5662
  223ccc     O5 6266   7.507   7.850   6.687  0.0361  0.6061  0.1309
  223ccc    H11 6267   7.469   7.926   6.639  0.1218  0.6251  0.0933
  223ccc     O6 6268   7.696   7.620   6.650  0.0058 -0.6759 -0.1726
  224ccc     C1 6269   8.204   6.829   5.996 -0.4119 -0.4413 -0.1889
  224ccc     C2 6270   8.092   6.824   5.888  0.0698 -0.6255  0.1533
  224ccc     H1 6271   8.187   6.740   6.058 -0.4292  0.2339  0.7994
  224ccc     H2 6272   8.089   6.732   5.828 -0.9250 -0.9158  0.6310
  224ccc     C3 6273   7.954   6.838   5.957 -0.3689  0.6383  0.1839
  224ccc     C4 6274   7.947   6.956   6.061  0.6637 -0.3264  0.3823
  224ccc     C5 6275   8.073   6.957   6.153  0.1849  0.0275  0.3917
  224ccc     H3 6276   7.959   7.047   6.001  1.8136  0.2441  1.4350
  224ccc     H4 6277   7.942   6.740   6.006 -0.8015 -0.4182 -1.9390
  224ccc     H5 6278   8.069   6.870   6.219  0.1736  0.5647  1.0994
  224ccc     O1 6279   8.090   7.080   6.223 -0.2046 -0.1175 -0.2759
  224ccc     O2 6280   7.821   6.944   6.130 -0.2649 -0.0185  0.0700
  224ccc     O3 6281   7.843   6.845   5.867 -0.4133  0.2387 -0.5353
  224ccc     O4 6282   8.118   6.938   5.797  0.1375  0.6914 -0.3745
  224ccc     C6 6283   8.349   6.823   5.943  0.6258 -0.0079 -0.4253
  224ccc     H6 6284   7.820   6.939   5.854 -0.3622  0.6506  1.9944
  224ccc     H7 6285   8.043   6.936   5.735  0.3738  0.0658 -0.6437
  224ccc     H8 6286   7.826   6.874   6.197  1.5071  0.4287  0.4678
  224ccc     H9 6287   8.358   6.732   5.884  0.7412 -0.4956  0.3287
  224ccc    H10 6288   8.431   6.819   6.016  0.8089  0.5734 -0.5939
  224ccc     O5 6289   8.383   6.921   5.849  0.5354 -0.3972 -0.4129
  224ccc    H11 6290   8.297   6.929   5.802  0.5599 -0.0774 -0.4056
  224ccc     O6 6291   8.194   6.944   6.078  0.2208 -0.4908  0.3168
  225ccc     C1 6292   7.503   8.949   7.113  0.1280 -0.0540 -0.2289
  225ccc     C2 6293   7.538   9.056   7.217  0.0722  0.0128  0.4449
  225ccc     H1 6294   7.476   8.859   7.169 -0.8112  0.4506  0.1517
  225ccc     H2 6295   7.450   9.071   7.281 -0.2956 -0.9536  0.1838
  225ccc     C3 6296   7.660   9.012   7.300  0.0286  0.4813  0.2983
  225ccc     C4 6297   7.777   8.956   7.209 -0.5633 -0.4613  0.8168
  225ccc     C5 6298   7.729   8.848   7.106 -0.1979 -0.4259  0.0907
  225ccc     H3 6299   7.819   9.040   7.152 -0.3749  0.0967  1.7547
  225ccc     H4 6300   7.624   8.921   7.351 -0.2467  1.4685  1.9527
  225ccc     H5 6301   7.698   8.755   7.154  1.6126 -1.7869 -1.2374
  225ccc     O1 6302   7.839   8.804   7.019  0.2288 -0.2677 -0.0885
  225ccc     O2 6303   7.877   8.904   7.294  0.0285  0.0497 -0.5982
  225ccc     O3 6304   7.711   9.104   7.406  0.1631  0.8815 -1.0996
  225ccc     O4 6305   7.569   9.174   7.142 -0.0526 -0.1216 -0.6645
  225ccc     C6 6306   7.386   8.992   7.012  0.3442 -0.0441  0.3393
  225ccc     H6 6307   7.647   9.104   7.479  2.5162  1.9196  1.1147
  225ccc     H7 6308   7.601   9.233   7.213  0.9466  0.5009 -1.6120
  225ccc     H8 6309   7.904   8.986   7.337 -0.7685 -0.3521  0.7322
  225ccc     H9 6310   7.421   9.035   6.917 -0.4743 -1.3263 -0.5722
  225ccc    H10 6311   7.310   9.059   7.054 -2.4271 -1.9190 -1.3348
  225ccc     O5 6312   7.325   8.864   6.985  0.0332  0.4532  0.1088
  225ccc    H11 6313   7.393   8.799   6.959  0.0660  1.1730 -1.7165
  225ccc     O6 6314   7.624   8.910   7.034 -0.2079  0.2829 -0.3022
  226ccc     C1 6315   7.559   8.091   7.246  0.0501  0.1726  0.7944
  226ccc     C2 6316   7.617   7.960   7.188 -0.1163  0.0938  0.2560
  226ccc     H1 6317   7.468   8.113   7.189  0.2901 -0.6388  0.0726
  226ccc     H2 6318   7.540   7.883   7.200 -1.6350  1.8994  3.3897
  226ccc     C3 6319   7.658   7.969   7.036 -0.5497  0.0215 -0.6380
  226ccc     C4 6320   7.740   8.092   7.017  0.1634 -0.1708 -0.1748
  226ccc     C5 6321   7.681   8.220   7.089  0.2957  0.3696  0.1110
  226ccc     H3 6322   7.833   8.078   7.072 -1.0566 -2.6518  1.4539
  226ccc     H4 6323   7.568   7.972   6.973 -0.4256 -0.8322 -0.8615
  226ccc     H5 6324   7.585   8.248   7.045  1.0614  0.4634 -1.6001
  226ccc     O1 6325   7.769   8.337   7.080 -0.2220  0.2454 -0.3041
  226ccc     O2 6326   7.761   8.109   6.873  0.3055  0.7075 -0.4328
  226ccc     O3 6327   7.730   7.855   6.998 -0.2229  1.0828  0.9350
  226ccc     O4 6328   7.738   7.927   7.261 -0.0672  0.3327  0.5403
  226ccc     C6 6329   7.513   8.085   7.388 -0.0758 -0.0795 -0.0201
  226ccc     H6 6330   7.660   7.805   6.952  0.0431  1.2844  0.3001
  226ccc     H7 6331   7.714   7.954   7.351  2.0856  0.7801  1.0562
  226ccc     H8 6332   7.814   8.032   6.845  0.5649  0.5665  0.4174
  226ccc     H9 6333   7.407   8.059   7.383 -0.2241  0.3797  0.6087
  226ccc    H10 6334   7.526   8.182   7.438  1.6585 -0.6937  0.7931
  226ccc     O5 6335   7.590   7.999   7.477  0.9937  0.5539 -0.2522
  226ccc    H11 6336   7.523   7.942   7.518  0.4197  1.1481 -0.3542
  226ccc     O6 6337   7.662   8.190   7.230  0.7596 -0.2629 -0.6226
  227ccc     C1 6338  10.519   8.710   7.472 -0.1536 -0.7101 -0.5077
  227ccc     C2 6339  10.655   8.775   7.520 -0.9272 -0.1334  0.4287
  227ccc     H1 6340  10.461   8.798   7.441  1.1672  0.6549  0.7103
  227ccc     H2 6341  10.701   8.837   7.441 -1.1791 -0.3750  0.0874
  227ccc     C3 6342  10.644   8.861   7.648  0.2144 -0.6802  0.3168
  227ccc     C4 6343  10.559   8.788   7.761 -0.5751 -0.2665  1.0326
  227ccc     C5 6344  10.426   8.731   7.695 -0.3390  1.0599  1.1167
  227ccc     H3 6345  10.618   8.701   7.793  0.1859 -0.6019 -1.0980
  227ccc     H4 6346  10.601   8.960   7.628  0.3254 -0.7894 -0.5119
  227ccc     H5 6347  10.358   8.812   7.665 -1.5822 -0.9418 -1.7869
  227ccc     O1 6348  10.359   8.653   7.793 -0.0010  0.5480  0.4254
  227ccc     O2 6349  10.539   8.881   7.874  0.2284  0.3223  0.0820
  227ccc     O3 6350  10.778   8.884   7.701 -0.1417 -0.3905 -0.4211
  227ccc     O4 6351  10.753   8.671   7.550 -0.3875  0.2217  0.5679
  227ccc     C6 6352  10.543   8.620   7.349  0.2435  0.2432 -0.5838
  227ccc     H6 6353  10.818   8.803   7.665 -2.3474 -2.3723  1.2417
  227ccc     H7 6354  10.728   8.612   7.476  0.0798  0.7539 -0.0342
  227ccc     H8 6355  10.624   8.892   7.922  0.5404  1.8490 -0.7582
  227ccc     H9 6356  10.564   8.680   7.260 -1.2372  1.9142  0.1429
  227ccc    H10 6357  10.452   8.562   7.329  1.0110 -1.3721  0.3583
  227ccc     O5 6358  10.655   8.531   7.369  0.1183  0.6973 -0.1453
  227ccc    H11 6359  10.629   8.447   7.327 -4.6444  0.2998  2.8158
  227ccc     O6 6360  10.455   8.641   7.585 -0.4680 -0.2335  0.5004
  228ccc     C1 6361  10.142   7.629   8.406 -0.2071 -0.0747 -0.4880
  228ccc     C2 6362  10.196   7.624   8.599 -0.5812  0.4763 -0.5841
  228ccc     H1 6363  10.201   7.550   8.359  1.8048  1.0123  0.1122
  228ccc     H2 6364  10.241   7.525   8.612  1.0807  1.4617  1.9785
  228ccc     C3 6365  10.329   7.764   8.665 -0.7053 -0.3345 -0.2630
  228ccc     C4 6366  10.375   7.918   8.546 -0.1818  0.1558 -0.7915
  228ccc     C5 6367  10.318   7.919   8.354  0.0693  0.8968  0.4870
  228ccc     H3 6368  10.327   8.000   8.600  0.8469 -1.0950  2.2150
  228ccc     H4 6369  10.427   7.715   8.675 -0.8895 -0.7622 -0.5512
  228ccc     H5 6370  10.408   7.886   8.300 -0.9629 -0.3026 -0.5759
  228ccc     O1 6371  10.288   8.043   8.288  0.1380 -0.2752 -0.6953
  228ccc     O2 6372  10.514   7.952   8.559  0.3154 -0.4815  0.2883
  228ccc     O3 6373  10.309   7.807   8.806  0.3555 -0.2852  0.2490
  228ccc     O4 6374  10.079   7.620   8.685 -0.1508 -0.2094  0.5831
  228ccc     C6 6375  10.005   7.582   8.379  0.4157 -0.0156 -0.1644
  228ccc     H6 6376  10.225   7.856   8.801 -0.4330 -1.4621  1.3676
  228ccc     H7 6377  10.115   7.571   8.761  0.6884  1.7020  1.4691
  228ccc     H8 6378  10.554   7.869   8.528 -1.6346 -1.0850 -0.7605
  228ccc     H9 6379   9.925   7.647   8.416  0.5567 -0.8618  1.7248
  228ccc    H10 6380  10.009   7.493   8.442 -1.1050  0.8752  1.2611
  228ccc     O5 6381   9.977   7.563   8.234  0.2472  0.5889  0.0890
  228ccc    H11 6382   9.962   7.650   8.194  1.2612 -0.3752 -2.6173
  228ccc     O6 6383  10.194   7.780   8.303 -0.2337  0.4035 -0.3013
  229ccc     C1 6384   9.555   8.875   8.003 -0.1463  0.5824 -0.2822
  229ccc     C2 6385   9.635   8.876   8.136 -0.5066  0.4405  0.4595
  229ccc     H1 6386   9.504   8.973   8.005 -0.7779  0.2668  1.5068
  229ccc     H2 6387   9.695   8.967   8.139 -0.9291  0.7054  1.5642
  229ccc     C3 6388   9.537   8.879   8.250  0.5064 -0.7005 -0.6351
  229ccc     C4 6389   9.431   8.768   8.244 -0.4144  0.2957 -0.2528
  229ccc     C5 6390   9.363   8.772   8.107  0.5945  0.3973 -0.4159
  229ccc     H3 6391   9.479   8.670   8.256  2.1347  1.3297 -1.4433
  229ccc     H4 6392   9.480   8.974   8.250  1.1545 -0.2422  1.8740
  229ccc     H5 6393   9.300   8.862   8.113 -0.7419 -0.6226  2.9117
  229ccc     O1 6394   9.284   8.650   8.093 -0.1860  0.0973  0.3235
  229ccc     O2 6395   9.341   8.785   8.352  0.1565  0.2582 -0.3982
  229ccc     O3 6396   9.596   8.869   8.380 -0.4309 -0.2794 -0.1172
  229ccc     O4 6397   9.709   8.753   8.146 -0.4173 -0.1792  0.1349
  229ccc     C6 6398   9.633   8.884   7.876 -0.1903 -0.1549  0.0537
  229ccc     H6 6399   9.636   8.955   8.403  1.0741 -0.7247 -0.9801
  229ccc     H7 6400   9.779   8.769   8.211  0.1909  1.0768 -0.7893
  229ccc     H8 6401   9.403   8.798   8.426 -2.7954  0.6699  2.2409
  229ccc     H9 6402   9.690   8.978   7.878 -1.7394  0.8080  0.4022
  229ccc    H10 6403   9.564   8.884   7.790  1.4967  1.9736 -1.4201
  229ccc     O5 6404   9.715   8.773   7.872 -0.2421  0.0671 -0.0484
  229ccc    H11 6405   9.682   8.738   7.957  1.1751  2.9359  1.8777
  229ccc     O6 6406   9.461   8.773   7.996  0.2762 -0.1534 -0.6582
  230ccc     C1 6407   8.253   8.333   8.318  0.0539  0.2472 -0.1125
  230ccc     C2 6408   8.261   8.231   8.430  0.1089  0.2778 -0.0828
  230ccc     H1 6409   8.177   8.306   8.243  0.6820  2.0931 -1.4762
  230ccc     H2 6410   8.161   8.228   8.474  0.9285  1.0944  1.9219
  230ccc     C3 6411   8.296   8.091   8.356  0.3336  0.0508 -0.5124
  230ccc     C4 6412   8.428   8.101   8.275  0.2990 -0.2804  0.0374
  230ccc     C5 6413   8.425   8.227   8.183 -0.0026 -0.3416  0.1208
  230ccc     H3 6414   8.512   8.121   8.342  1.0855 -1.2784 -0.6134
  230ccc     H4 6415   8.211   8.086   8.286  1.3670  4.7993 -2.4524
  230ccc     H5 6416   8.361   8.207   8.096 -1.2970  0.5280  0.8318
  230ccc     O1 6417   8.562   8.249   8.128  0.2044  0.4035  0.2920
  230ccc     O2 6418   8.450   7.982   8.194  0.6528  0.0984  0.1324
  230ccc     O3 6419   8.305   7.983   8.454  0.1610  0.1557  0.1286
  230ccc     O4 6420   8.364   8.268   8.523  0.0597  0.0407 -0.0514
  230ccc     C6 6421   8.230   8.479   8.368 -0.1541  0.0605 -0.0730
  230ccc     H6 6422   8.324   7.902   8.403 -2.5978  0.5965 -1.8010
  230ccc     H7 6423   8.319   8.303   8.602 -1.6601  0.5355 -1.1888
  230ccc     H8 6424   8.546   7.981   8.177  0.5396  0.5917 -0.5920
  230ccc     H9 6425   8.326   8.510   8.411 -1.4467  0.5667  2.6868
  230ccc    H10 6426   8.156   8.483   8.449 -0.8295  0.7186 -0.6998
  230ccc     O5 6427   8.198   8.558   8.252 -0.3112 -0.1760  0.8366
  230ccc    H11 6428   8.290   8.578   8.225 -0.5575 -0.8978 -0.6775
  230ccc     O6 6429   8.382   8.341   8.252 -0.4911 -0.5014 -0.0950
  231ccc     C1 6430   9.595   8.750   5.385  0.2274  0.0922 -0.1357
  231ccc     C2 6431   9.551   8.677   5.257  0.2565 -0.2172  0.1124
  231ccc     H1 6432   9.694   8.719   5.418 -0.7741 -0.8680  2.1679
  231ccc     H2 6433   9.635   8.682   5.186  0.0408 -1.8493 -0.2801
  231ccc     C3 6434   9.535   8.527   5.291  0.1375  0.0917 -0.0834
  231ccc     C4 6435   9.419   8.503   5.388  0.2949 -0.2079  0.1476
  231ccc     C5 6436   9.448   8.585   5.522 -0.0622 -0.3963  0.2668
  231ccc     H3 6437   9.322   8.535   5.350 -0.9370 -3.6960 -0.0436
  231ccc     H4 6438   9.622   8.492   5.347 -0.2063 -0.8030 -0.0930
  231ccc     H5 6439   9.532   8.535   5.572 -0.3759 -3.1173 -1.7498
  231ccc     O1 6440   9.332   8.595   5.606 -0.2941  0.2401  0.3931
  231ccc     O2 6441   9.416   8.360   5.408  0.5014 -0.5448 -0.0934
  231ccc     O3 6442   9.531   8.435   5.174 -0.0652 -0.2882  0.2699
  231ccc     O4 6443   9.426   8.721   5.200 -0.6392 -0.2338 -0.5921
  231ccc     C6 6444   9.596   8.900   5.368  0.5742  0.1123  0.7589
  231ccc     H6 6445   9.625   8.423   5.154 -0.4460 -1.9979 -0.6691
  231ccc     H7 6446   9.441   8.704   5.105  1.7357 -0.0087 -0.3116
  231ccc     H8 6447   9.461   8.336   5.324  0.2484  1.0380 -0.7111
  231ccc     H9 6448   9.492   8.921   5.343  0.4564  0.1506  1.2745
  231ccc    H10 6449   9.658   8.936   5.285  0.1506 -0.6189  0.1165
  231ccc     O5 6450   9.632   8.951   5.493 -0.6461  0.3156 -0.2611
  231ccc    H11 6451   9.576   8.898   5.552 -2.8773  1.3896 -1.3056
  231ccc     O6 6452   9.493   8.722   5.489 -0.0792  0.5441  0.2272
  232ccc     C1 6453   9.079   9.478   6.180  0.0003  0.1286  0.3281
  232ccc     C2 6454   8.976   9.555   6.264  0.4230 -0.7291 -0.0165
  232ccc     H1 6455   9.065   9.516   6.078  0.5390 -2.6967 -0.9124
  232ccc     H2 6456   8.972   9.660   6.233  1.0984 -0.7073 -0.0444
  232ccc     C3 6457   8.835   9.495   6.237 -0.6263  0.5746  0.7768
  232ccc     C4 6458   8.829   9.335   6.233 -0.1007 -0.3332  0.1768
  232ccc     C5 6459   8.947   9.276   6.156  0.7161 -0.1641  0.3574
  232ccc     H3 6460   8.843   9.308   6.338 -1.1678  1.5702  0.8638
  232ccc     H4 6461   8.800   9.514   6.135 -1.2715 -0.8996  0.6950
  232ccc     H5 6462   8.935   9.292   6.049  1.9188  0.5664  0.3106
  232ccc     O1 6463   8.955   9.130   6.186  0.7048 -0.5237  0.1087
  232ccc     O2 6464   8.691   9.294   6.190 -0.0465 -0.3278 -0.9838
  232ccc     O3 6465   8.739   9.558   6.325  0.1351  0.0976 -0.0810
  232ccc     O4 6466   8.999   9.532   6.397 -0.9557  0.5358 -0.0028
  232ccc     C6 6467   9.220   9.516   6.217  0.6417  0.6523 -0.1531
  232ccc     H6 6468   8.684   9.608   6.262  0.7079  0.8115 -0.0330
  232ccc     H7 6469   8.911   9.556   6.431 -0.7355  0.3189  0.7398
  232ccc     H8 6470   8.679   9.208   6.234 -1.2158 -0.4517 -1.5009
  232ccc     H9 6471   9.255   9.458   6.304  2.2584  2.6245  0.5927
  232ccc    H10 6472   9.214   9.625   6.229 -1.5750  0.7607 -1.6229
  232ccc     O5 6473   9.305   9.497   6.111 -0.0316 -0.4357  0.0407
  232ccc    H11 6474   9.334   9.405   6.106  0.2174 -0.2953 -3.0343
  232ccc     O6 6475   9.068   9.335   6.203 -0.3205  0.0551  0.2574
  233ccc     C1 6476   9.567   8.158   4.851 -0.6510  0.6922  0.9090
  233ccc     C2 6477   9.665   8.055   4.788  0.3364 -0.4786 -0.1755
  233ccc     H1 6478   9.623   8.240   4.898  0.4403  0.5004 -0.0128
  233ccc     H2 6479   9.735   8.101   4.717  0.9583 -0.0932  0.6669
  233ccc     C3 6480   9.749   7.988   4.899  1.1369 -0.6785 -0.5796
  233ccc     C4 6481   9.662   7.931   5.017  0.6700 -0.5657  0.2370
  233ccc     C5 6482   9.562   8.032   5.070  0.3215 -0.4025  0.7726
  233ccc     H3 6483   9.607   7.846   4.973  2.8283 -0.0880 -3.8708
  233ccc     H4 6484   9.820   8.066   4.930  2.0129 -1.6807  0.0030
  233ccc     H5 6485   9.607   8.115   5.126 -1.5991  1.4608 -0.2978
  233ccc     O1 6486   9.468   7.967   5.159 -0.4054 -0.4438 -0.2605
  233ccc     O2 6487   9.746   7.879   5.120 -0.3458  0.6814 -0.3244
  233ccc     O3 6488   9.818   7.878   4.842  0.3060 -0.3432 -0.4884
  233ccc     O4 6489   9.603   7.958   4.712 -0.2119 -0.5119  0.0198
  233ccc     C6 6490   9.465   8.220   4.753 -0.0906 -0.2865 -0.3956
  233ccc     H6 6491   9.748   7.857   4.778  0.3825 -1.4048 -0.2486
  233ccc     H7 6492   9.522   8.006   4.687  0.4303  0.2704 -0.6344
  233ccc     H8 6493   9.718   7.786   5.129 -1.6170  0.9550 -1.0909
  233ccc     H9 6494   9.515   8.294   4.690 -1.2471  0.9287  0.0636
  233ccc    H10 6495   9.396   8.285   4.808  1.5648  1.7160 -0.5695
  233ccc     O5 6496   9.405   8.116   4.674  0.1146 -0.5235 -0.1044
  233ccc    H11 6497   9.317   8.109   4.716 -0.4184  0.8163 -0.9330
  233ccc     O6 6498   9.492   8.090   4.954  0.0322  0.0083 -0.5285
  234ccc     C1 6499   8.477   7.561   5.181 -1.4434 -0.1520  0.1997
  234ccc     C2 6500   8.422   7.537   5.323 -0.2122  0.9078 -0.1503
  234ccc     H1 6501   8.483   7.468   5.122 -1.4363 -0.1809  0.2462
  234ccc     H2 6502   8.326   7.487   5.308 -0.0500  0.8858 -1.2152
  234ccc     C3 6503   8.518   7.448   5.411  0.1996 -0.7461 -0.3283
  234ccc     C4 6504   8.663   7.515   5.414  0.4932  0.9418 -1.3108
  234ccc     C5 6505   8.715   7.539   5.272  1.0179 -0.0248  0.8440
  234ccc     H3 6506   8.645   7.606   5.473  1.4654  0.4157 -0.1446
  234ccc     H4 6507   8.537   7.354   5.358 -2.5829 -1.0409 -0.9690
  234ccc     H5 6508   8.729   7.443   5.221  0.0463 -0.1346  0.7821
  234ccc     O1 6509   8.841   7.624   5.278  0.2987 -0.1674 -0.2563
  234ccc     O2 6510   8.759   7.428   5.479 -0.1156 -0.2804  0.0839
  234ccc     O3 6511   8.454   7.425   5.541 -0.2426  0.1762 -0.0940
  234ccc     O4 6512   8.400   7.657   5.390 -0.5972  0.1257 -0.1551
  234ccc     C6 6513   8.394   7.658   5.102 -0.2380 -0.5571 -0.1136
  234ccc     H6 6514   8.410   7.506   5.572  1.1956  0.4569  1.3920
  234ccc     H7 6515   8.384   7.710   5.309 -0.6489 -1.7150 -1.4198
  234ccc     H8 6516   8.722   7.397   5.563 -0.2402 -2.3020 -0.6497
  234ccc     H9 6517   8.298   7.612   5.077  0.1484 -1.2719 -0.2923
  234ccc    H10 6518   8.450   7.678   5.010 -1.0558  1.3493 -0.2582
  234ccc     O5 6519   8.375   7.781   5.173 -0.3481  0.6804  0.6401
  234ccc    H11 6520   8.408   7.847   5.110  1.0631  1.3864  2.0523
  234ccc     O6 6521   8.616   7.617   5.195 -0.2232 -0.2615 -0.6133
  235ccc     C1 6522   9.948   7.175   6.207 -0.2958 -0.5518 -0.3531
  235ccc     C2 6523   9.937   7.237   6.354  0.1047  0.3560 -0.3764
  235ccc     H1 6524  10.036   7.109   6.201  0.1370  0.0966 -1.4389
  235ccc     H2 6525   9.956   7.156   6.425  0.3580  0.8806  0.1609
  235ccc     C3 6526  10.047   7.348   6.375 -0.2627  0.7880 -0.8837
  235ccc     C4 6527  10.040   7.456   6.263  0.1643 -0.0058 -0.2165
  235ccc     C5 6528  10.060   7.381   6.132 -0.0066 -0.1023  0.2405
  235ccc     H3 6529   9.944   7.506   6.252  0.4035  0.5806  0.2800
  235ccc     H4 6530  10.142   7.295   6.370 -0.6028  0.2706 -2.1287
  235ccc     H5 6531  10.161   7.338   6.130  0.2601  0.3976  1.6209
  235ccc     O1 6532  10.056   7.488   6.027  0.0055 -0.0373 -0.1644
  235ccc     O2 6533  10.148   7.554   6.286  0.5632  0.0595  0.3174
  235ccc     O3 6534  10.027   7.397   6.508  0.1615 -0.6878  0.0407
  235ccc     O4 6535   9.798   7.280   6.365 -0.4080  0.3097  0.6449
  235ccc     C6 6536   9.834   7.076   6.178 -0.2032  0.3435  0.0220
  235ccc     H6 6537  10.081   7.478   6.507 -1.8351  0.7189 -1.0663
  235ccc     H7 6538   9.792   7.327   6.450 -2.1348  1.8496 -0.2573
  235ccc     H8 6539  10.184   7.586   6.201  0.8063 -0.3894  0.2473
  235ccc     H9 6540   9.737   7.123   6.155 -0.4581 -0.3022 -0.2639
  235ccc    H10 6541   9.818   7.013   6.267 -1.4988 -0.5007 -0.7815
  235ccc     O5 6542   9.872   7.008   6.061 -0.0483 -0.0526  0.1434
  235ccc    H11 6543   9.854   7.076   5.994  0.8680  1.9275  1.8112
  235ccc     O6 6544   9.959   7.281   6.109 -0.5979  0.7410  0.3566
  236ccc     C1 6545  10.064   7.484   5.008  0.1896  0.0468  0.5666
  236ccc     C2 6546   9.934   7.567   5.000 -0.4007  0.1163 -0.2298
  236ccc     H1 6547  10.040   7.378   5.002  0.4771  0.0442 -1.2942
  236ccc     H2 6548   9.871   7.527   4.920  0.3299 -2.3390  0.3422
  236ccc     C3 6549   9.852   7.546   5.129 -0.2663  0.1882 -0.1702
  236ccc     C4 6550   9.940   7.580   5.256  0.4968  0.0626 -0.0332
  236ccc     C5 6551  10.068   7.492   5.253 -0.1090 -0.4819  0.7424
  236ccc     H3 6552   9.966   7.684   5.234  0.3215  0.2168  0.4902
  236ccc     H4 6553   9.818   7.442   5.129 -0.2248  0.1578 -1.6241
  236ccc     H5 6554  10.032   7.390   5.240 -0.1622 -0.2836 -0.8506
  236ccc     O1 6555  10.159   7.519   5.359 -0.7125 -0.6233  0.5489
  236ccc     O2 6556   9.868   7.551   5.374  0.2056  0.1320  0.4972
  236ccc     O3 6557   9.730   7.617   5.108 -0.3302 -0.0011  0.3651
  236ccc     O4 6558   9.969   7.699   4.977  0.1401  0.0514 -0.4650
  236ccc     C6 6559  10.140   7.488   4.875  0.3664  0.6785 -0.0714
  236ccc     H6 6560   9.663   7.567   5.157 -1.1668  0.1615 -0.5696
  236ccc     H7 6561   9.882   7.742   4.976 -1.8299 -3.5834  0.4401
  236ccc     H8 6562   9.918   7.586   5.450  0.2344 -0.8327  0.9376
  236ccc     H9 6563  10.178   7.591   4.876 -2.2083  1.8755 -3.3831
  236ccc    H10 6564  10.069   7.477   4.792 -0.8922  0.8908  0.9304
  236ccc     O5 6565  10.254   7.393   4.863 -0.2371 -0.1285  0.2540
  236ccc    H11 6566  10.313   7.414   4.939 -1.5454  1.0184  1.0042
  236ccc     O6 6567  10.137   7.522   5.127  0.0486 -0.5507 -0.0969
  237ccc     C1 6568   9.334   7.474   5.317  0.2110  0.1184 -0.0320
  237ccc     C2 6569   9.240   7.513   5.432  0.4625  0.9384  0.5988
  237ccc     H1 6570   9.283   7.508   5.226  1.0561 -1.7074 -1.2511
  237ccc     H2 6571   9.227   7.622   5.434  0.4416  1.0087 -1.5145
  237ccc     C3 6572   9.101   7.449   5.419 -0.1383  0.7345  0.0698
  237ccc     C4 6573   9.123   7.291   5.412  0.1508  0.1339 -0.7546
  237ccc     C5 6574   9.235   7.246   5.311 -0.7808 -0.2067 -0.3222
  237ccc     H3 6575   9.146   7.252   5.512 -2.0403 -0.6253 -0.5017
  237ccc     H4 6576   9.054   7.491   5.329 -1.2183  0.8372  0.6766
  237ccc     H5 6577   9.201   7.263   5.208  1.9916  1.5417 -1.0788
  237ccc     O1 6578   9.276   7.105   5.330  0.5160 -0.8207 -0.6508
  237ccc     O2 6579   8.997   7.230   5.368 -0.8533  0.6902  0.5702
  237ccc     O3 6580   9.022   7.490   5.534  0.0624 -0.6207 -0.0372
  237ccc     O4 6581   9.296   7.466   5.557  0.4109 -0.3883  0.1955
  237ccc     C6 6582   9.469   7.541   5.332 -0.5968 -0.2099 -0.2227
  237ccc     H6 6583   8.932   7.464   5.509  0.5589 -2.0507 -0.4871
  237ccc     H7 6584   9.224   7.451   5.620  0.0641 -0.3035 -0.1781
  237ccc     H8 6585   8.958   7.227   5.457  1.2684  2.5014  1.6592
  237ccc     H9 6586   9.513   7.530   5.432 -1.3790 -1.3060  0.0064
  237ccc    H10 6587   9.459   7.650   5.323 -1.7096 -0.3246 -0.5278
  237ccc     O5 6588   9.551   7.486   5.231  0.0543 -0.2906 -0.3937
  237ccc    H11 6589   9.498   7.411   5.200 -1.3934  0.7805 -0.6473
  237ccc     O6 6590   9.351   7.336   5.324 -0.0515  0.8229  0.4779
  238ccc     C1 6591   9.629   6.570   5.152  0.5548 -0.3333 -0.6030
  238ccc     C2 6592   9.490   6.500   5.148 -0.3719  0.1445  0.1459
  238ccc     H1 6593   9.685   6.510   5.079  0.7488 -0.8702 -0.0207
  238ccc     H2 6594   9.463   6.482   5.043 -0.7958 -0.6287  0.3854
  238ccc     C3 6595   9.483   6.362   5.219 -0.0803  0.2648 -0.0843
  238ccc     C4 6596   9.542   6.377   5.369 -0.2046  0.2185  0.5613
  238ccc     C5 6597   9.687   6.428   5.361 -0.0660  0.8753 -0.6727
  238ccc     H3 6598   9.482   6.449   5.426 -1.1627  2.6228 -3.0866
  238ccc     H4 6599   9.554   6.293   5.173  1.1233  0.1307  1.8499
  238ccc     H5 6600   9.742   6.352   5.305 -1.4158  0.2379 -1.1735
  238ccc     O1 6601   9.742   6.456   5.493 -0.2328 -0.1744  0.1043
  238ccc     O2 6602   9.536   6.247   5.429 -0.2441  0.4262 -0.1773
  238ccc     O3 6603   9.349   6.319   5.209  0.0530  0.5040 -0.0045
  238ccc     O4 6604   9.401   6.587   5.213  0.4020 -0.0644  0.5488
  238ccc     C6 6605   9.647   6.719   5.102 -0.6288  0.6187 -0.9469
  238ccc     H6 6606   9.329   6.283   5.297  1.6810 -0.2854  0.0836
  238ccc     H7 6607   9.348   6.622   5.139  1.8428  2.7194  0.6994
  238ccc     H8 6608   9.546   6.255   5.525 -3.0697 -1.6351  0.3982
  238ccc     H9 6609   9.633   6.794   5.181 -0.1815 -0.1419 -0.1116
  238ccc    H10 6610   9.585   6.743   5.015 -1.5521 -0.6213 -0.6690
  238ccc     O5 6611   9.791   6.711   5.071  0.0084 -0.0076  0.5919
  238ccc    H11 6612   9.825   6.648   5.137 -0.8252  0.1445  1.1878
  238ccc     O6 6613   9.690   6.556   5.287 -0.5930 -0.3401 -0.5269
  239ccc     C1 6614   7.911   9.463   4.897 -0.3597 -0.3744 -0.2074
  239ccc     C2 6615   7.799   9.494   4.793 -0.6027 -0.4756 -0.3365
  239ccc     H1 6616   7.886   9.366   4.941  1.3135 -0.9508 -0.4486
  239ccc     H2 6617   7.792   9.410   4.722  0.5833  0.0488 -1.1052
  239ccc     C3 6618   7.666   9.520   4.862  0.2337  0.8139 -0.1892
  239ccc     C4 6619   7.675   9.629   4.965 -1.0650  0.2325 -0.5789
  239ccc     C5 6620   7.789   9.596   5.062 -0.4747  0.2202  0.0249
  239ccc     H3 6621   7.707   9.726   4.925 -0.7582 -0.0595 -1.0515
  239ccc     H4 6622   7.652   9.432   4.926  1.0913 -1.3721 -2.8411
  239ccc     H5 6623   7.765   9.500   5.111 -1.7344 -1.0866 -2.9318
  239ccc     O1 6624   7.814   9.704   5.162  0.5281 -0.5269  0.4889
  239ccc     O2 6625   7.545   9.638   5.029  0.0237 -0.3388 -0.2059
  239ccc     O3 6626   7.550   9.546   4.770  0.3331  0.0709  0.2798
  239ccc     O4 6627   7.845   9.608   4.725 -0.1456 -0.6274 -0.3104
  239ccc     C6 6628   8.055   9.444   4.842  0.3842 -0.7605 -0.1360
  239ccc     H6 6629   7.565   9.503   4.684  2.3633 -2.9217  1.9419
  239ccc     H7 6630   7.884   9.569   4.645  1.3350 -2.0099  1.0228
  239ccc     H8 6631   7.483   9.631   4.954  0.2166 -0.6118 -0.3418
  239ccc     H9 6632   8.101   9.543   4.828  1.5985 -0.8366  2.5441
  239ccc    H10 6633   8.047   9.382   4.752 -1.7155 -1.4284  0.4540
  239ccc     O5 6634   8.119   9.366   4.936 -0.3398 -0.0483 -0.4955
  239ccc    H11 6635   8.068   9.383   5.017 -1.0604  0.5271 -1.0467
  239ccc     O6 6636   7.910   9.566   4.992 -0.5170  0.4196 -0.1086
  240ccc     C1 6637   8.249  10.242   4.787  0.3591 -0.1968  0.5981
  240ccc     C2 6638   8.345  10.137   4.743  0.2309  0.4182 -0.1579
  240ccc     H1 6639   8.293  10.342   4.774 -2.3645  1.0241  0.0451
  240ccc     H2 6640   8.362  10.149   4.635  1.8440 -0.9635 -0.0943
  240ccc     C3 6641   8.472  10.167   4.826  0.3680  0.1847  0.7614
  240ccc     C4 6642   8.450  10.187   4.984  0.0812  0.3372  0.3022
  240ccc     C5 6643   8.332  10.278   5.011  0.0851 -0.0629  0.8889
  240ccc     H3 6644   8.436  10.085   5.023  2.5005  0.1272  0.7480
  240ccc     H4 6645   8.499  10.265   4.785 -1.5991  0.3496 -0.2530
  240ccc     H5 6646   8.345  10.379   4.972  1.7631 -0.3209  0.7103
  240ccc     O1 6647   8.303  10.283   5.154  0.1582  0.7717 -0.0588
  240ccc     O2 6648   8.576  10.248   5.020  0.3758  0.4287  0.2705
  240ccc     O3 6649   8.577  10.069   4.817  0.1150  0.1734 -0.3235
  240ccc     O4 6650   8.296  10.003   4.772  0.4810  0.1688 -0.9333
  240ccc     C6 6651   8.125  10.262   4.693 -0.0895  0.0269 -0.7412
  240ccc     H6 6652   8.626  10.100   4.739  0.9069  2.0182  0.8243
  240ccc     H7 6653   8.366   9.943   4.742  0.4773 -0.4183  0.1989
  240ccc     H8 6654   8.624  10.170   4.986  1.9603  1.7602 -0.7217
  240ccc     H9 6655   8.038  10.272   4.759 -1.3831  0.6538 -2.4581
  240ccc    H10 6656   8.111  10.178   4.624  2.2892 -0.1614 -1.0600
  240ccc     O5 6657   8.145  10.379   4.619 -0.3508 -0.8333 -0.1822
  240ccc    H11 6658   8.130  10.456   4.677  0.2530 -1.6731  1.1503
  240ccc     O6 6659   8.218  10.223   4.928 -1.2048  0.4883  0.7310
  241ccc     C1 6660   8.309  10.168   5.757  0.4106  0.2476 -0.0834
  241ccc     C2 6661   8.456  10.186   5.797  0.5706 -0.3089  0.1315
  241ccc     H1 6662   8.308  10.091   5.678  0.7264  1.7543 -1.6058
  241ccc     H2 6663   8.504  10.093   5.830  0.4538  0.2667  2.0070
  241ccc     C3 6664   8.529  10.240   5.671  0.3153 -0.0525 -0.1999
  241ccc     C4 6665   8.465  10.381   5.634 -0.5246 -0.2500  0.0347
  241ccc     C5 6666   8.312  10.365   5.604 -0.2722  0.8662 -0.7164
  241ccc     H3 6667   8.466  10.443   5.724 -3.0758 -1.2405  0.8455
  241ccc     H4 6668   8.517  10.170   5.588 -1.0700  0.9069 -0.8571
  241ccc     H5 6669   8.306  10.323   5.503 -0.6805 -0.6794 -0.0774
  241ccc     O1 6670   8.260  10.495   5.616  0.2445  0.1985 -0.0535
  241ccc     O2 6671   8.531  10.442   5.523  0.6046  0.1612  0.1482
  241ccc     O3 6672   8.676  10.249   5.698  0.1175  0.4480  0.2496
  241ccc     O4 6673   8.465  10.286   5.899  0.1165 -0.2796 -0.2344
  241ccc     C6 6674   8.219  10.127   5.871 -0.2284  0.8390  0.4692
  241ccc     H6 6675   8.723  10.192   5.634  2.3893  0.6516  1.6120
  241ccc     H7 6676   8.383  10.262   5.945 -0.1833  1.8990  0.4525
  241ccc     H8 6677   8.529  10.373   5.454  1.3454 -0.6367  0.9078
  241ccc     H9 6678   8.246  10.023   5.893  3.8197  1.1699 -1.9269
  241ccc    H10 6679   8.119  10.120   5.826  1.7516 -1.4557 -4.1785
  241ccc     O5 6680   8.234  10.212   5.988  0.0968 -0.7499 -0.3183
  241ccc    H11 6681   8.167  10.188   6.055  1.2817 -0.8462  0.8845
  241ccc     O6 6682   8.247  10.284   5.700 -0.1260 -0.4499 -0.2824
  242ccc     C1 6683   8.293  11.363   5.314  0.0315 -0.5310 -0.3826
  242ccc     C2 6684   8.253  11.493   5.386 -0.8849  0.6662 -0.1340
  242ccc     H1 6685   8.287  11.384   5.207 -0.6939  0.7011 -0.1324
  242ccc     H2 6686   8.321  11.573   5.355  1.2760 -1.1899 -0.4136
  242ccc     C3 6687   8.110  11.538   5.377 -0.9461  0.0764  0.1516
  242ccc     C4 6688   8.011  11.422   5.401  0.2156  0.5876 -0.5331
  242ccc     C5 6689   8.059  11.291   5.328 -0.5546  0.1048 -0.4096
  242ccc     H3 6690   8.026  11.405   5.508  0.5279  1.1167 -0.4886
  242ccc     H4 6691   8.086  11.574   5.276 -2.1641 -3.1531 -0.8473
  242ccc     H5 6692   8.048  11.305   5.220  1.8495 -0.3267 -0.7760
  242ccc     O1 6693   7.979  11.179   5.369  0.1531 -0.0685 -0.2305
  242ccc     O2 6694   7.869  11.445   5.383  0.3809 -0.6605 -0.0623
  242ccc     O3 6695   8.099  11.643   5.481  0.1153  0.2129  0.3895
  242ccc     O4 6696   8.282  11.464   5.525  0.1956  0.0707 -0.2397
  242ccc     C6 6697   8.443  11.311   5.347  0.5331 -0.8408  0.1463
  242ccc     H6 6698   8.020  11.690   5.451 -1.1734 -2.0184  0.0834
  242ccc     H7 6699   8.214  11.523   5.564  0.6405  0.8419 -0.6137
  242ccc     H8 6700   7.825  11.404   5.460 -0.5914  1.0934  0.3768
  242ccc     H9 6701   8.445  11.273   5.450 -0.2678  1.6546  1.1768
  242ccc    H10 6702   8.517  11.392   5.356  0.8648 -1.0566 -0.6270
  242ccc     O5 6703   8.466  11.206   5.247 -0.2301 -0.1244 -0.4530
  242ccc    H11 6704   8.555  11.227   5.214 -0.8697  0.7855 -1.6766
  242ccc     O6 6705   8.200  11.263   5.353 -0.1060  0.4199  0.3654
  243ccc     C1 6706   7.480   8.648   6.687  0.0149  0.4936  0.5675
  243ccc     C2 6707   7.404   8.590   6.812  0.4741 -0.2649 -0.0915
  243ccc     H1 6708   7.417   8.617   6.604  0.0466  1.9013 -0.0144
  243ccc     H2 6709   7.308   8.634   6.784  0.8548  0.2216 -0.6798
  243ccc     C3 6710   7.410   8.430   6.820 -0.3693 -0.0646  0.4953
  243ccc     C4 6711   7.555   8.377   6.786 -0.1866 -0.4518 -0.0866
  243ccc     C5 6712   7.606   8.447   6.664 -0.6181 -0.4221  0.2269
  243ccc     H3 6713   7.623   8.411   6.864 -0.4301  1.1175 -0.5283
  243ccc     H4 6714   7.343   8.390   6.742  0.4624  1.4748 -1.1031
  243ccc     H5 6715   7.547   8.419   6.576  0.6022  0.1539 -0.8103
  243ccc     O1 6716   7.741   8.393   6.640 -0.2030 -0.6871  0.0672
  243ccc     O2 6717   7.552   8.239   6.766  0.6391 -0.2225 -0.3378
  243ccc     O3 6718   7.382   8.388   6.951  0.6967 -0.1971 -0.3496
  243ccc     O4 6719   7.461   8.634   6.936 -0.1720  0.2277  0.3774
  243ccc     C6 6720   7.499   8.806   6.695  0.0414 -0.3849  0.1895
  243ccc     H6 6721   7.392   8.293   6.933  0.4675  0.0409 -1.8498
  243ccc     H7 6722   7.451   8.556   6.994 -0.8881 -0.5951 -0.8144
  243ccc     H8 6723   7.645   8.217   6.784  0.9331  1.6614  0.7231
  243ccc     H9 6724   7.571   8.832   6.773  0.6865 -0.3134 -0.4178
  243ccc    H10 6725   7.405   8.856   6.720  0.9157  1.4837 -0.1216
  243ccc     O5 6726   7.529   8.851   6.565  0.1654  0.5235  0.1688
  243ccc    H11 6727   7.500   8.944   6.572 -2.0019 -0.0600 -0.3696
  243ccc     O6 6728   7.607   8.582   6.679 -0.1220 -0.0942  0.1744
  244ccc     C1 6729   7.688   8.390   5.634 -0.3308 -0.0187 -0.1338
  244ccc     C2 6730   7.642   8.502   5.548 -0.4698  0.1530  0.3160
  244ccc     H1 6731   7.595   8.352   5.678 -0.2425 -0.2348 -0.1289
  244ccc     H2 6732   7.578   8.453   5.474 -0.7539  0.9227  0.0373
  244ccc     C3 6733   7.577   8.614   5.631  0.1840 -0.7171 -0.1137
  244ccc     C4 6734   7.672   8.669   5.739 -0.7437  0.3063 -0.4783
  244ccc     C5 6735   7.710   8.548   5.830 -0.5864  0.2189  0.3689
  244ccc     H3 6736   7.762   8.712   5.694  0.6752  0.8667  2.6410
  244ccc     H4 6737   7.492   8.576   5.689 -2.0661  4.2359  0.3636
  244ccc     H5 6738   7.616   8.515   5.876 -1.6150  0.9205 -1.1453
  244ccc     O1 6739   7.816   8.583   5.921  0.3375 -0.2237 -0.0821
  244ccc     O2 6740   7.609   8.771   5.821  0.0459 -0.3563 -0.2247
  244ccc     O3 6741   7.524   8.721   5.544 -0.1087 -0.0329  0.3241
  244ccc     O4 6742   7.750   8.560   5.475  0.0784 -0.1564 -0.3068
  244ccc     C6 6743   7.765   8.274   5.564  0.3054 -1.3579  0.2774
  244ccc     H6 6744   7.428   8.730   5.560 -0.7854 -1.5120 -2.2463
  244ccc     H7 6745   7.717   8.626   5.411 -0.7097  0.2257  0.4633
  244ccc     H8 6746   7.586   8.838   5.755  2.0953  1.4940  0.8024
  244ccc     H9 6747   7.706   8.244   5.476 -2.2396  0.8568  1.0933
  244ccc    H10 6748   7.780   8.198   5.642  0.2933 -0.6110  1.0089
  244ccc     O5 6749   7.889   8.319   5.525 -0.3541 -0.1448 -0.0471
  244ccc    H11 6750   7.865   8.413   5.514 -0.5015 -0.2011 -0.2042
  244ccc     O6 6751   7.765   8.444   5.743 -0.4577 -0.4957  0.1667
  245ccc     C1 6752   8.069   8.860   8.033  0.5330  0.2102 -0.4020
  245ccc     C2 6753   8.066   8.831   8.189 -0.9200  0.4880  0.3885
  245ccc     H1 6754   8.144   8.936   8.008  0.0485  0.8475  0.0420
  245ccc     H2 6755   8.167   8.822   8.232 -0.9649 -1.9556  0.1451
  245ccc     C3 6756   7.998   8.947   8.277  0.0144  0.2088  0.2954
  245ccc     C4 6757   7.866   8.994   8.210 -0.3399  0.4461 -0.3920
  245ccc     C5 6758   7.893   9.026   8.061 -0.6256 -0.5774 -0.1846
  245ccc     H3 6759   7.795   8.911   8.214  0.1033 -0.0299 -1.6897
  245ccc     H4 6760   8.055   9.040   8.277 -1.4401  1.1308  0.5064
  245ccc     H5 6761   7.974   9.099   8.053  0.2691 -0.9741  3.6367
  245ccc     O1 6762   7.767   9.064   8.000  0.1852 -0.0792 -0.2722
  245ccc     O2 6763   7.808   9.111   8.286  0.0686  0.2335  0.5468
  245ccc     O3 6764   7.980   8.899   8.408 -0.4209  0.2809 -0.5202
  245ccc     O4 6765   8.000   8.710   8.213  0.2653 -0.8454 -0.4250
  245ccc     C6 6766   8.111   8.746   7.936  0.9241 -0.3376 -0.3109
  245ccc     H6 6767   7.971   8.803   8.398  0.1621  0.1148  0.4263
  245ccc     H7 6768   8.067   8.640   8.215  0.9459 -0.2131  1.9131
  245ccc     H8 6769   7.801   9.064   8.371  0.7216 -0.7365  0.0780
  245ccc     H9 6770   8.030   8.672   7.931 -0.4000  0.9821  0.7013
  245ccc    H10 6771   8.194   8.688   7.980  0.5342 -2.1465 -1.8383
  245ccc     O5 6772   8.144   8.804   7.814 -0.5068  0.5575 -0.6287
  245ccc    H11 6773   8.062   8.847   7.784 -2.0387 -0.0580  2.2473
  245ccc     O6 6774   7.942   8.908   7.994  0.5719  0.7438  0.0402
  246ccc     C1 6775   7.297   9.155   8.119  0.3068 -0.0197  0.0460
  246ccc     C2 6776   7.317   9.157   8.272  0.0246  0.4197 -0.2358
  246ccc     H1 6777   7.341   9.060   8.087  0.9594 -0.4401  2.0460
  246ccc     H2 6778   7.281   9.059   8.305 -1.3514  0.0273 -2.6562
  246ccc     C3 6779   7.468   9.178   8.303 -0.5805  0.4871 -0.4251
  246ccc     C4 6780   7.518   9.310   8.226  0.3413 -0.5138  0.4538
  246ccc     C5 6781   7.501   9.288   8.079  0.5557 -0.4591 -0.4472
  246ccc     H3 6782   7.460   9.397   8.260  2.8436  1.9285 -1.1531
  246ccc     H4 6783   7.525   9.097   8.255  1.0883 -0.3706  2.7868
  246ccc     H5 6784   7.553   9.196   8.050  1.6975 -1.0191  2.9583
  246ccc     O1 6785   7.544   9.405   8.005 -0.0769  0.4180 -0.1442
  246ccc     O2 6786   7.659   9.317   8.267  0.1883 -0.1958  0.1343
  246ccc     O3 6787   7.495   9.180   8.444 -0.2952 -0.5527 -0.6637
  246ccc     O4 6788   7.234   9.260   8.320  0.4426 -0.1685 -0.7270
  246ccc     C6 6789   7.149   9.134   8.087 -0.2269 -0.4283  0.2106
  246ccc     H6 6790   7.453   9.262   8.475  0.4787 -0.5617  0.4817
  246ccc     H7 6791   7.231   9.241   8.415  0.7072  2.5311 -0.0850
  246ccc     H8 6792   7.701   9.229   8.261 -1.4738 -0.9579 -1.0558
  246ccc     H9 6793   7.088   9.219   8.118  1.1718  0.5428  0.3685
  246ccc    H10 6794   7.113   9.042   8.136 -2.0384 -1.7394 -3.2024
  246ccc     O5 6795   7.139   9.112   7.946 -0.2817  0.3247  0.1411
  246ccc    H11 6796   7.230   9.088   7.921  0.1669  2.6762 -0.7001
  246ccc     O6 6797   7.355   9.274   8.060 -0.1165 -0.4543  0.0949
  247ccc     C1 6798   9.832   9.201   4.125 -0.1292  0.1731 -0.4653
  247ccc     C2 6799   9.856   9.344   4.079  0.1430 -0.2681 -0.1742
  247ccc     H1 6800   9.745   9.161   4.071 -1.0478  1.4550  0.0117
  247ccc     H2 6801   9.833   9.345   3.972 -0.4941 -1.6284 -0.0837
  247ccc     C3 6802   9.753   9.444   4.132  0.4369 -0.5406  0.1372
  247ccc     C4 6803   9.739   9.432   4.284 -0.1668  0.6711  0.5675
  247ccc     C5 6804   9.704   9.286   4.323 -0.3535  0.0167 -0.3937
  247ccc     H3 6805   9.836   9.449   4.331 -1.0552  1.7160  2.1191
  247ccc     H4 6806   9.655   9.420   4.088 -0.2095 -1.3104  1.8779
  247ccc     H5 6807   9.608   9.245   4.289 -0.5493 -0.1209  0.3073
  247ccc     O1 6808   9.704   9.276   4.467 -0.4549 -0.5436  0.3759
  247ccc     O2 6809   9.633   9.518   4.330  0.2123  0.4111  0.2486
  247ccc     O3 6810   9.794   9.579   4.092 -0.3123  0.4088  0.2003
  247ccc     O4 6811   9.993   9.384   4.115  0.8287  0.3993  0.4502
  247ccc     C6 6812   9.945   9.095   4.086  0.6550  0.5219 -0.2146
  247ccc     H6 6813   9.737   9.647   4.133  1.7201  2.9303 -0.8868
  247ccc     H7 6814   9.989   9.481   4.121  2.0360  0.5589 -0.8053
  247ccc     H8 6815   9.639   9.523   4.427 -0.9158  2.7715  0.2518
  247ccc     H9 6816  10.008   9.104   4.176 -1.2176  1.9903  1.0322
  247ccc    H10 6817  10.003   9.125   3.997  0.1427 -1.1746 -1.1645
  247ccc     O5 6818   9.895   8.966   4.057  0.2773 -0.1298 -0.1027
  247ccc    H11 6819   9.817   8.968   4.114  0.7022  1.6325  0.5106
  247ccc     O6 6820   9.806   9.196   4.265  0.1481  0.1205 -0.1806
  248ccc     C1 6821  10.355   8.791   5.175 -0.0124  0.4557  0.4562
  248ccc     C2 6822  10.432   8.864   5.063 -0.4455 -0.4515  0.7516
  248ccc     H1 6823  10.404   8.694   5.189 -0.5689  0.0335 -0.4616
  248ccc     H2 6824  10.536   8.881   5.092  0.0035  1.7706 -1.7624
  248ccc     C3 6825  10.419   8.794   4.928  0.8888 -0.5790  0.2952
  248ccc     C4 6826  10.266   8.766   4.900  0.8686 -0.0352 -0.7861
  248ccc     C5 6827  10.188   8.701   5.016 -0.1394 -0.6247 -0.3342
  248ccc     H3 6828  10.225   8.866   4.881  1.1576  0.0759 -0.8284
  248ccc     H4 6829  10.468   8.696   4.920  0.7558 -0.4833 -2.7095
  248ccc     H5 6830  10.219   8.596   5.029  0.7148 -0.2979  0.4134
  248ccc     O1 6831  10.043   8.706   4.979  0.3129  0.1282  0.1818
  248ccc     O2 6832  10.247   8.675   4.791 -0.0865 -0.3278  0.4846
  248ccc     O3 6833  10.471   8.875   4.817  0.5740 -0.2911 -0.2118
  248ccc     O4 6834  10.380   8.999   5.064  0.1751 -0.0769  0.4762
  248ccc     C6 6835  10.366   8.842   5.312 -0.3283 -0.6266  0.1218
  248ccc     H6 6836  10.560   8.904   4.845  0.8818 -0.3623 -1.0979
  248ccc     H7 6837  10.357   9.000   5.159  0.6116  0.5562  0.5738
  248ccc     H8 6838  10.175   8.705   4.734 -0.7305 -1.8115  0.5011
  248ccc     H9 6839  10.462   8.817   5.358  0.0703  0.8661  0.1690
  248ccc    H10 6840  10.288   8.800   5.376  0.3290  1.2410  2.2795
  248ccc     O5 6841  10.360   8.983   5.315  0.6350 -0.1109  0.2671
  248ccc    H11 6842  10.324   9.014   5.400 -2.1375 -0.3388 -0.7236
  248ccc     O6 6843  10.216   8.773   5.143  0.1252  0.5328  0.0873
  249ccc     C1 6844   8.854   9.163   4.170  0.1550 -0.8722  0.2576
  249ccc     C2 6845   8.828   9.028   4.097 -0.4458 -0.0738  0.5185
  249ccc     H1 6846   8.958   9.165   4.204  1.2231 -0.6377 -2.7197
  249ccc     H2 6847   8.903   9.007   4.020 -0.3417 -2.9732  1.3173
  249ccc     C3 6848   8.841   8.918   4.193  0.5749 -1.2808 -0.9347
  249ccc     C4 6849   8.776   8.934   4.333  0.5160 -0.1683 -0.2715
  249ccc     C5 6850   8.789   9.078   4.382 -0.2458 -0.1483  0.2022
  249ccc     H3 6851   8.669   8.908   4.332  1.0166 -2.6373  1.6851
  249ccc     H4 6852   8.949   8.912   4.214  0.5137  2.4564  1.4216
  249ccc     H5 6853   8.893   9.093   4.412 -0.1558 -0.6256  0.1216
  249ccc     O1 6854   8.696   9.098   4.489 -0.3132 -1.1164  0.7615
  249ccc     O2 6855   8.848   8.846   4.418  0.1430  0.1492 -0.5472
  249ccc     O3 6856   8.808   8.791   4.130 -0.0152  0.3400 -0.1462
  249ccc     O4 6857   8.700   9.043   4.037 -0.3060  0.4258  0.2753
  249ccc     C6 6858   8.825   9.287   4.083  0.6532 -1.0324 -0.5091
  249ccc     H6 6859   8.882   8.771   4.070  1.1489  1.8835  0.7027
  249ccc     H7 6860   8.730   9.060   3.945 -0.0166  2.4754  0.7018
  249ccc     H8 6861   8.865   8.766   4.365  0.5332  1.1158 -1.9438
  249ccc     H9 6862   8.716   9.294   4.089  0.5619 -2.7047  0.2029
  249ccc    H10 6863   8.856   9.269   3.979  2.9144  1.8940 -0.4780
  249ccc     O5 6864   8.893   9.402   4.129 -0.5081 -0.0848  0.3360
  249ccc    H11 6865   8.889   9.448   4.044 -1.0706 -4.3161 -2.2024
  249ccc     O6 6866   8.755   9.166   4.275  0.2852  0.4711 -0.2870
  250ccc     C1 6867   9.026  10.127   4.402 -0.3927 -0.2142  0.3237
  250ccc     C2 6868   9.001  10.280   4.426 -0.2082 -0.1610 -0.0880
  250ccc     H1 6869   8.948  10.092   4.334  0.8554 -4.3093  0.7502
  250ccc     H2 6870   8.995  10.332   4.329  0.2248  0.4514  0.2106
  250ccc     C3 6871   8.864  10.304   4.502 -0.3178  0.1595  0.2502
  250ccc     C4 6872   8.847  10.210   4.627  0.1191 -0.4009 -0.3404
  250ccc     C5 6873   8.910  10.067   4.617  0.2155  0.0966  0.1150
  250ccc     H3 6874   8.895  10.263   4.711  0.3038 -0.9757 -0.0823
  250ccc     H4 6875   8.790  10.267   4.430  0.0957 -0.5764  0.1969
  250ccc     H5 6876   8.832   9.998   4.582  1.2911 -0.2923 -1.6609
  250ccc     O1 6877   8.954  10.025   4.742 -0.2229 -0.1803 -0.1939
  250ccc     O2 6878   8.708  10.201   4.654  0.8250  0.5504  0.2073
  250ccc     O3 6879   8.845  10.444   4.533  0.0010  0.5557 -0.3372
  250ccc     O4 6880   9.107  10.315   4.507 -0.3480 -0.0631  0.2099
  250ccc     C6 6881   9.154  10.097   4.319  1.3216  0.5148  0.4238
  250ccc     H6 6882   8.933  10.478   4.558  0.8300 -1.6696 -0.0724
  250ccc     H7 6883   9.175  10.251   4.479  0.8117  0.7903  0.9976
  250ccc     H8 6884   8.666  10.279   4.614 -2.0719 -0.0063  1.8899
  250ccc     H9 6885   9.158  10.157   4.227  1.8740  0.7274  0.5753
  250ccc    H10 6886   9.156   9.990   4.294 -0.9861  0.3798  0.6752
  250ccc     O5 6887   9.262  10.134   4.402  0.5757 -0.2262 -0.1686
  250ccc    H11 6888   9.301  10.045   4.407 -0.6551 -0.7772  0.1676
  250ccc     O6 6889   9.026  10.049   4.526 -0.2837  0.4183  0.1813
  251ccc     C1 6890   7.555   7.891   5.145 -0.3398 -0.2353  0.2012
  251ccc     C2 6891   7.568   7.827   5.008 -1.0413  0.1853  0.2506
  251ccc     H1 6892   7.603   7.820   5.214  2.1490 -0.8425 -1.9757
  251ccc     H2 6893   7.672   7.793   5.005 -0.4818  1.6677 -3.8964
  251ccc     C3 6894   7.476   7.705   4.986  0.0041  0.5113 -0.7443
  251ccc     C4 6895   7.330   7.743   5.029  0.6279  0.7684 -0.0731
  251ccc     C5 6896   7.329   7.801   5.172 -0.0557 -0.4230 -1.1669
  251ccc     H3 6897   7.288   7.821   4.964  0.1688 -0.6570 -1.5227
  251ccc     H4 6898   7.504   7.631   5.062  0.0482  0.9962 -0.2795
  251ccc     H5 6899   7.366   7.723   5.239  0.9616  3.2391  2.9461
  251ccc     O1 6900   7.196   7.843   5.210  0.0169  0.0002 -0.1618
  251ccc     O2 6901   7.238   7.624   5.020 -0.9225 -0.4303  0.0744
  251ccc     O3 6902   7.490   7.663   4.853 -0.3887  0.4384  0.3878
  251ccc     O4 6903   7.530   7.927   4.910 -0.6159  0.1137  0.3048
  251ccc     C6 6904   7.645   8.017   5.160 -0.1021  0.8731 -0.5092
  251ccc     H6 6905   7.507   7.568   4.869 -0.0665  0.1173 -1.6723
  251ccc     H7 6906   7.538   7.877   4.826  2.1806  2.2853 -0.8889
  251ccc     H8 6907   7.146   7.656   5.020 -1.3445 -1.5375  1.5648
  251ccc     H9 6908   7.605   8.110   5.119 -1.7919  1.1478  1.5859
  251ccc    H10 6909   7.739   8.002   5.105 -0.1182 -0.4543 -0.2177
  251ccc     O5 6910   7.661   8.031   5.304 -0.1145 -0.2441  0.2185
  251ccc    H11 6911   7.583   8.076   5.340 -2.2428 -1.1372 -2.8902
  251ccc     O6 6912   7.416   7.920   5.171  0.4112 -0.0387  0.0370
  252ccc     C1 6913   7.419   7.133   6.029  0.6552 -0.2753  0.4923
  252ccc     C2 6914   7.562   7.081   6.007 -0.0016 -1.1141 -0.0110
  252ccc     H1 6915   7.348   7.073   5.970 -0.2251  1.4478 -0.2807
  252ccc     H2 6916   7.576   6.974   6.027  1.1483 -1.1540 -0.9517
  252ccc     C3 6917   7.603   7.114   5.858 -0.1921 -0.3354 -0.0819
  252ccc     C4 6918   7.579   7.266   5.834 -0.4835 -0.5406  1.4232
  252ccc     C5 6919   7.443   7.313   5.869  0.4864  0.6437  0.0430
  252ccc     H3 6920   7.649   7.326   5.892  1.6898  1.2087 -2.6011
  252ccc     H4 6921   7.539   7.061   5.786 -0.6589 -0.0894  0.1465
  252ccc     H5 6922   7.375   7.268   5.796  0.4549  1.2742 -0.3293
  252ccc     O1 6923   7.432   7.462   5.863  0.1563  0.1184 -0.3728
  252ccc     O2 6924   7.605   7.299   5.691 -0.1158  0.4795  0.3654
  252ccc     O3 6925   7.745   7.081   5.827  0.1097  0.2413  0.3676
  252ccc     O4 6926   7.654   7.145   6.097 -0.1641  0.1385  0.2976
  252ccc     C6 6927   7.375   7.098   6.179  0.0371 -0.0719 -0.2695
  252ccc     H6 6928   7.769   7.134   5.749  0.9469  0.4378  0.7421
  252ccc     H7 6929   7.730   7.086   6.112 -1.8060 -1.7499  1.8071
  252ccc     H8 6930   7.634   7.392   5.689  0.6426  0.2370 -0.0694
  252ccc     H9 6931   7.388   6.991   6.202 -0.1877 -0.1650 -0.5585
  252ccc    H10 6932   7.268   7.125   6.180  0.6061  2.3950 -0.7489
  252ccc     O5 6933   7.456   7.176   6.266 -0.0871  0.9685  0.1590
  252ccc    H11 6934   7.537   7.171   6.212 -0.7529 -1.5570 -0.7123
  252ccc     O6 6935   7.409   7.272   6.001  0.1540 -0.2847 -0.7452
  253ccc     C1 6936   7.865   6.837   6.511  0.2290  0.0049  0.5297
  253ccc     C2 6937   7.862   6.809   6.660  0.1237  0.7486 -0.2465
  253ccc     H1 6938   7.965   6.816   6.473 -0.3857 -0.7457 -0.7408
  253ccc     H2 6939   7.910   6.712   6.683 -1.0094  0.5244  1.2562
  253ccc     C3 6940   7.940   6.918   6.736  0.8052  0.0482 -0.2539
  253ccc     C4 6941   7.879   7.064   6.699 -0.0568 -0.8032  1.1995
  253ccc     C5 6942   7.898   7.085   6.545  0.3912 -0.5638  0.3810
  253ccc     H3 6943   7.776   7.073   6.735 -0.5208  0.1495 -0.2736
  253ccc     H4 6944   8.042   6.918   6.696  0.9443 -0.3866  0.1001
  253ccc     H5 6945   8.005   7.088   6.525  0.3795 -0.3416  0.3503
  253ccc     O1 6946   7.852   7.218   6.506  0.2098 -0.2948 -0.2713
  253ccc     O2 6947   7.961   7.153   6.777  0.2968  0.6797  0.3413
  253ccc     O3 6948   7.956   6.895   6.884 -0.0296  0.2132  0.1558
  253ccc     O4 6949   7.728   6.805   6.713 -0.4424 -0.1226 -0.0804
  253ccc     C6 6950   7.780   6.737   6.436 -0.3076  1.0099 -0.5630
  253ccc     H6 6951   7.864   6.884   6.916 -0.5147  0.8503 -0.9437
  253ccc     H7 6952   7.704   6.711   6.708  0.0761 -0.2283 -0.7089
  253ccc     H8 6953   7.907   7.231   6.796 -0.0837  0.7643 -0.9649
  253ccc     H9 6954   7.675   6.769   6.441 -0.3018  1.2403 -1.6098
  253ccc    H10 6955   7.807   6.640   6.478  1.9413  0.7265 -2.4497
  253ccc     O5 6956   7.825   6.736   6.302 -0.3875  0.4011 -0.1191
  253ccc    H11 6957   7.918   6.706   6.307 -0.1156  1.0276 -1.2169
  253ccc     O6 6958   7.830   6.974   6.473  0.3193 -0.4487 -0.3393
  254ccc     C1 6959   7.078   7.431   6.208 -0.0195  0.3926 -0.2622
  254ccc     C2 6960   7.042   7.364   6.339  0.8562  0.8395 -0.0422
  254ccc     H1 6961   7.114   7.353   6.140  1.2317  1.2751 -0.6432
  254ccc     H2 6962   6.970   7.286   6.311  2.1216 -0.2372 -0.4484
  254ccc     C3 6963   7.159   7.292   6.409 -0.2633 -0.4381 -0.2933
  254ccc     C4 6964   7.276   7.390   6.436  0.7524 -0.3125 -0.1660
  254ccc     C5 6965   7.300   7.468   6.304  0.2616 -0.1254 -0.7133
  254ccc     H3 6966   7.251   7.462   6.515 -2.8216 -1.0831 -0.4216
  254ccc     H4 6967   7.200   7.219   6.339  0.1965  0.0689 -0.5561
  254ccc     H5 6968   7.349   7.398   6.237  1.2144 -0.1156 -0.0457
  254ccc     O1 6969   7.401   7.576   6.324  0.4517  0.4004 -0.1787
  254ccc     O2 6970   7.389   7.312   6.473  0.3364 -0.1818 -0.0610
  254ccc     O3 6971   7.111   7.220   6.524 -0.1288  0.4053  0.6456
  254ccc     O4 6972   6.988   7.451   6.427 -0.0893  0.0006 -0.1420
  254ccc     C6 6973   6.965   7.515   6.143  0.1540 -0.2333 -0.1985
  254ccc     H6 6974   7.034   7.172   6.489  0.0680  1.2095 -0.9890
  254ccc     H7 6975   6.958   7.398   6.502 -2.7032  2.6183  0.8680
  254ccc     H8 6976   7.410   7.256   6.396  1.0114 -0.6350  0.4437
  254ccc     H9 6977   6.893   7.446   6.096  1.0795  0.0116 -2.0450
  254ccc    H10 6978   7.008   7.571   6.059  1.1452 -0.7207 -0.0342
  254ccc     O5 6979   6.901   7.612   6.233 -0.0934  0.3824  0.1546
  254ccc    H11 6980   6.922   7.586   6.324 -1.6058  1.7053  0.9333
  254ccc     O6 6981   7.184   7.522   6.243 -0.1577 -0.4539 -0.3916
  255ccc     C1 6982  10.693  10.729   9.326  0.0803 -0.6588  0.1172
  255ccc     C2 6983  10.619  10.865   9.358  0.6916  0.0990 -0.1654
  255ccc     H1 6984  10.787  10.727   9.381 -0.3269 -1.0557  0.8063
  255ccc     H2 6985  10.611  10.883   9.465 -0.2198 -3.3160  0.4355
  255ccc     C3 6986  10.700  10.990   9.306  0.0326  1.0484  0.1547
  255ccc     C4 6987  10.743  10.971   9.156  0.2369 -0.6925 -0.3723
  255ccc     C5 6988  10.814  10.838   9.130 -0.6882  0.7645  0.1142
  255ccc     H3 6989  10.649  10.962   9.101 -0.0020 -1.5522  0.1556
  255ccc     H4 6990  10.783  11.011   9.376  0.1478  3.7174 -0.6707
  255ccc     H5 6991  10.910  10.849   9.181  0.3150 -0.2717 -1.4578
  255ccc     O1 6992  10.828  10.811   8.984 -0.2470  0.0230 -0.1129
  255ccc     O2 6993  10.804  11.095   9.108 -0.0977  0.5528  0.2479
  255ccc     O3 6994  10.603  11.089   9.321  0.5971 -0.1589 -0.2941
  255ccc     O4 6995  10.492  10.865   9.293  0.3303  0.0501 -0.1745
  255ccc     C6 6996  10.594  10.610   9.355  0.1950 -0.3200 -0.3937
  255ccc     H6 6997  10.650  11.174   9.317 -0.5869  0.5196 -0.1766
  255ccc     H7 6998  10.471  10.960   9.288 -0.4461 -0.1807 -1.9674
  255ccc     H8 6999  10.878  11.108   9.170 -1.2111  0.8239  1.5648
  255ccc     H9 7000  10.534  10.583   9.268  0.3780 -1.1329 -0.2783
  255ccc    H10 7001  10.523  10.632   9.436 -0.5352 -0.9569 -0.8455
  255ccc     O5 7002  10.668  10.491   9.395 -0.0230 -0.6625 -1.0479
  255ccc    H11 7003  10.761  10.517   9.384 -0.5176  2.4339  0.7983
  255ccc     O6 7004  10.728  10.731   9.182 -0.7332  0.6790 -0.1743
  256ccc     C1 7005  11.067  11.132   8.897 -0.1602 -0.6592 -0.9142
  256ccc     C2 7006  11.205  11.168   8.958  1.4444  0.6284  0.5053
  256ccc     H1 7007  11.011  11.058   8.956 -2.2465  0.7296 -1.0142
  256ccc     H2 7008  11.174  11.206   9.056  0.1773  1.1414 -0.0663
  256ccc     C3 7009  11.302  11.048   8.965 -0.0628 -0.6302  0.0803
  256ccc     C4 7010  11.325  11.004   8.822  0.1817  0.3096 -0.8355
  256ccc     C5 7011  11.190  10.973   8.741 -0.3035  0.1232 -0.6408
  256ccc     H3 7012  11.380  11.081   8.766  2.5296 -1.5417 -1.2109
  256ccc     H4 7013  11.253  10.964   9.015  0.4028 -2.6827 -2.7220
  256ccc     H5 7014  11.148  10.877   8.775  2.2716 -1.0307 -0.5192
  256ccc     O1 7015  11.220  10.967   8.598  0.1962  0.1419 -0.2857
  256ccc     O2 7016  11.405  10.880   8.827  0.5542  0.4396 -0.1919
  256ccc     O3 7017  11.421  11.092   9.024 -1.2156 -1.2732 -0.1427
  256ccc     O4 7018  11.278  11.270   8.893  0.1448  0.0487  0.3442
  256ccc     C6 7019  10.969  11.249   8.896 -0.6478 -0.4878 -0.4965
  256ccc     H6 7020  11.486  11.020   9.013 -1.1283 -1.0675 -1.0308
  256ccc     H7 7021  11.359  11.259   8.946  1.6265  1.6385 -1.3882
  256ccc     H8 7022  11.342  10.806   8.819  2.7240 -1.6144  0.5055
  256ccc     H9 7023  10.988  11.319   8.813 -1.3197  0.2699 -0.0335
  256ccc    H10 7024  10.975  11.312   8.986  0.8061  1.0725 -1.6109
  256ccc     O5 7025  10.836  11.212   8.881  0.7750 -0.3995  0.1490
  256ccc    H11 7026  10.817  11.152   8.955 -0.2175 -1.7343 -1.1374
  256ccc     O6 7027  11.089  11.082   8.766  0.1915 -0.1701 -0.2249
  257ccc     C1 7028  10.336  11.358   9.204  0.5803  0.3440  1.4814
  257ccc     C2 7029  10.318  11.252   9.316  0.2680 -1.0894  0.1412
  257ccc     H1 7030  10.378  11.448   9.252  1.1175  1.5759 -1.1114
  257ccc     H2 7031  10.412  11.237   9.371  0.8869  3.1021  0.5783
  257ccc     C3 7032  10.223  11.311   9.422  0.1560  0.1107 -0.6268
  257ccc     C4 7033  10.088  11.339   9.352  0.1990 -0.1187 -0.7259
  257ccc     C5 7034  10.104  11.447   9.239  0.1257 -1.3458  0.3464
  257ccc     H3 7035  10.041  11.248   9.311 -0.4647 -0.1984  0.1872
  257ccc     H4 7036  10.253  11.411   9.453 -1.1943  0.3013  0.1547
  257ccc     H5 7037  10.142  11.538   9.287  0.3635 -0.4574 -1.4185
  257ccc     O1 7038   9.980  11.476   9.164 -0.0847 -0.0124  0.8156
  257ccc     O2 7039  10.002  11.387   9.451  0.7011  0.5697  0.5931
  257ccc     O3 7040  10.210  11.214   9.537  0.4309  0.1751 -0.0903
  257ccc     O4 7041  10.268  11.144   9.252 -0.3479 -0.3213  0.2292
  257ccc     C6 7042  10.431  11.329   9.087  0.1690 -0.1621 -0.3654
  257ccc     H6 7043  10.295  11.221   9.584 -0.3731  0.5205  1.3815
  257ccc     H7 7044  10.317  11.141   9.168  1.2521 -0.2136  1.1082
  257ccc     H8 7045  10.011  11.321   9.522  1.2369  0.9926  0.9225
  257ccc     H9 7046  10.533  11.319   9.126 -0.4029 -0.3247  1.1606
  257ccc    H10 7047  10.438  11.420   9.026 -1.1208  0.0681 -0.1852
  257ccc     O5 7048  10.386  11.212   9.015 -0.0046 -0.6177 -0.1880
  257ccc    H11 7049  10.434  11.224   8.931  0.7401  0.9932  0.4168
  257ccc     O6 7050  10.205  11.390   9.150 -0.4223 -0.0298  0.0262
  258ccc     C1 7051   9.248  11.831   9.436 -0.7129  0.4960  0.0804
  258ccc     C2 7052   9.149  11.727   9.495 -0.1038 -0.0558 -0.2943
  258ccc     H1 7053   9.195  11.924   9.412 -2.3173 -0.7598 -1.5757
  258ccc     H2 7054   9.087  11.780   9.569  0.3231  0.9915 -0.6700
  258ccc     C3 7055   9.045  11.679   9.385 -0.0400 -0.2496 -0.3701
  258ccc     C4 7056   9.104  11.659   9.245  0.1614 -0.3427 -0.9606
  258ccc     C5 7057   9.208  11.765   9.205 -0.5723 -0.1238  0.7457
  258ccc     H3 7058   9.164  11.568   9.243  1.2688  0.3660 -1.0316
  258ccc     H4 7059   8.972  11.758   9.365 -0.8757 -1.0491 -0.5161
  258ccc     H5 7060   9.165  11.863   9.181  0.7896  0.4535  0.5688
  258ccc     O1 7061   9.283  11.719   9.087  0.3067  0.0095 -0.4171
  258ccc     O2 7062   9.002  11.664   9.149 -0.1298  0.0093 -0.1017
  258ccc     O3 7063   8.978  11.561   9.431  0.4772 -0.1240 -0.2479
  258ccc     O4 7064   9.223  11.615   9.543 -0.7066 -0.4501  0.4780
  258ccc     C6 7065   9.373  11.871   9.521  0.5371 -1.0722 -0.2436
  258ccc     H6 7066   8.934  11.512   9.359  0.3151 -1.4857  0.7351
  258ccc     H7 7067   9.153  11.562   9.587  1.3468 -1.5890  2.5792
  258ccc     H8 7068   8.935  11.596   9.168  1.2485 -2.1719 -2.4514
  258ccc     H9 7069   9.345  11.918   9.616  1.5501  0.5086 -0.7039
  258ccc    H10 7070   9.433  11.941   9.463 -0.7442  0.4638  0.2346
  258ccc     O5 7071   9.449  11.757   9.541 -0.3109 -0.4695 -0.4421
  258ccc    H11 7072   9.373  11.697   9.545 -0.3931 -0.3641  3.3616
  258ccc     O6 7073   9.302  11.779   9.309 -0.2735  0.1948 -0.3627
  259ccc     C1 7074  10.731  10.153   9.383  0.0461 -0.1018  0.7410
  259ccc     C2 7075  10.586  10.116   9.433 -0.3621  0.4513 -0.5128
  259ccc     H1 7076  10.759  10.256   9.408 -0.9160  0.6518 -1.1024
  259ccc     H2 7077  10.574  10.132   9.540 -1.7625  0.6820 -0.6855
  259ccc     C3 7078  10.474  10.193   9.362  0.0024  0.0743  0.0562
  259ccc     C4 7079  10.500  10.221   9.210 -0.3540 -0.3582 -0.4840
  259ccc     C5 7080  10.645  10.249   9.167  0.5392  0.3272  0.0432
  259ccc     H3 7081  10.464  10.131   9.158 -1.2502 -0.5925  0.4836
  259ccc     H4 7082  10.467  10.288   9.417  1.1821 -0.2355  0.7669
  259ccc     H5 7083  10.670  10.353   9.190  0.5518  0.0439  1.3888
  259ccc     O1 7084  10.661  10.214   9.024 -0.7755 -0.0941  0.1161
  259ccc     O2 7085  10.418  10.328   9.177  0.5883  0.3867  0.2113
  259ccc     O3 7086  10.347  10.119   9.385 -0.1341 -0.0465  0.0324
  259ccc     O4 7087  10.558   9.979   9.418 -0.3362  0.4694  0.2833
  259ccc     C6 7088  10.844  10.065   9.437  0.1896  0.3051 -0.0498
  259ccc     H6 7089  10.320  10.169   9.464 -0.0174 -0.9294  0.6543
  259ccc     H7 7090  10.466   9.990   9.388 -0.4394  0.7311  0.6895
  259ccc     H8 7091  10.366  10.308   9.097  0.7148  1.8903 -0.2745
  259ccc     H9 7092  10.838  10.080   9.546 -2.0639 -0.5283 -0.0058
  259ccc    H10 7093  10.939  10.098   9.393  1.8796 -3.0283  0.7285
  259ccc     O5 7094  10.821   9.926   9.396  0.1224 -0.0559  0.4427
  259ccc    H11 7095  10.724   9.913   9.395 -0.1295  0.6520  3.5633
  259ccc     O6 7096  10.733  10.157   9.240 -0.0908  0.2712  0.0588
  260ccc     C1 7097  11.103  10.380   9.015  0.4065  1.1237 -1.1441
  260ccc     C2 7098  11.060  10.524   9.045  0.0175 -0.1330 -0.0569
  260ccc     H1 7099  11.206  10.363   9.047  0.3279  3.1360  0.3743
  260ccc     H2 7100  11.069  10.543   9.153  0.1109  0.4120 -0.1584
  260ccc     C3 7101  11.159  10.622   8.966 -0.9050 -0.2616 -0.2167
  260ccc     C4 7102  11.166  10.586   8.816 -0.9414 -0.7023 -0.0239
  260ccc     C5 7103  11.186  10.429   8.794  0.0454 -0.8169 -0.4566
  260ccc     H3 7104  11.074  10.622   8.768 -1.4441 -0.0853  1.3499
  260ccc     H4 7105  11.260  10.601   9.003 -1.3308 -1.2644  0.4099
  260ccc     H5 7106  11.287  10.400   8.822  0.0011 -0.8346 -0.3163
  260ccc     O1 7107  11.165  10.399   8.650 -0.3381  0.1193 -0.2028
  260ccc     O2 7108  11.283  10.658   8.769 -0.4239 -0.1232 -0.0786
  260ccc     O3 7109  11.124  10.760   8.986  0.0923 -0.4649 -0.7779
  260ccc     O4 7110  10.927  10.546   8.996  0.7815 -0.4441  0.3609
  260ccc     C6 7111  11.001  10.286   9.097 -0.4512  0.5299 -0.3371
  260ccc     H6 7112  11.129  10.774   9.082 -0.5424 -0.6486 -0.7101
  260ccc     H7 7113  10.906  10.641   8.997 -1.5748 -0.8585 -1.0316
  260ccc     H8 7114  11.300  10.626   8.679 -1.1556 -0.4694 -0.1067
  260ccc     H9 7115  10.901  10.284   9.052 -1.2514 -0.1887  1.4011
  260ccc    H10 7116  10.988  10.327   9.197  1.3093  2.9752 -1.0317
  260ccc     O5 7117  11.071  10.155   9.109  0.9570 -0.3608 -0.2567
  260ccc    H11 7118  11.110  10.136   9.022 -0.3804  0.9265 -1.1912
  260ccc     O6 7119  11.100  10.353   8.877 -0.5871 -1.1425 -0.5604
  261ccc     C1 7120   9.910  11.373   7.544 -0.3744  1.1591  0.4703
  261ccc     C2 7121   9.841  11.446   7.422  0.0133 -0.4403 -0.9681
  261ccc     H1 7122   9.840  11.299   7.583 -0.5880  0.9144 -0.3563
  261ccc     H2 7123   9.798  11.385   7.341  0.0488  0.0007 -1.3277
  261ccc     C3 7124   9.728  11.535   7.468  0.6477  0.0044  0.0552
  261ccc     C4 7125   9.753  11.620   7.601 -0.7992 -0.6549  0.4463
  261ccc     C5 7126   9.828  11.536   7.710  0.6544 -0.3028 -0.0512
  261ccc     H3 7127   9.822  11.701   7.575 -0.8849 -1.0612 -1.1957
  261ccc     H4 7128   9.644  11.465   7.478  0.4916  0.5090  3.5451
  261ccc     H5 7129   9.755  11.465   7.752 -0.9038  0.4301 -1.3874
  261ccc     O1 7130   9.874  11.624   7.814 -0.0118  0.2426 -0.0077
  261ccc     O2 7131   9.634  11.686   7.643 -0.2978 -0.2947  0.7327
  261ccc     O3 7132   9.703  11.632   7.362  0.1512  0.4087  0.0807
  261ccc     O4 7133   9.934  11.529   7.354 -0.4579  0.0034  0.0492
  261ccc     C6 7134  10.036  11.296   7.504  0.0070  0.8315 -0.4931
  261ccc     H6 7135   9.613  11.669   7.369  0.7614  1.6870  2.5549
  261ccc     H7 7136   9.874  11.587   7.303 -0.8883 -1.9629 -1.8005
  261ccc     H8 7137   9.644  11.776   7.606  0.1617 -1.2207 -1.5622
  261ccc     H9 7138  10.013  11.232   7.418  2.0756 -0.4110 -0.1912
  261ccc    H10 7139  10.063  11.230   7.587 -2.1796  0.0614 -0.3559
  261ccc     O5 7140  10.128  11.392   7.463  0.0398  0.1852 -0.2915
  261ccc    H11 7141  10.066  11.457   7.426 -0.6315 -0.8590 -1.0628
  261ccc     O6 7142   9.941  11.467   7.647 -0.5841 -0.2406 -0.1679
  262ccc     C1 7143  10.473  12.046   7.828 -0.0343 -0.0650 -0.9889
  262ccc     C2 7144  10.461  12.197   7.862  0.6026  0.4718 -0.1548
  262ccc     H1 7145  10.396  12.011   7.759  1.7251 -3.4699 -1.4274
  262ccc     H2 7146  10.452  12.249   7.766  0.3605 -0.1049 -0.4464
  262ccc     C3 7147  10.339  12.216   7.956 -0.3682  0.6063  0.2599
  262ccc     C4 7148  10.333  12.114   8.078 -0.0146  0.1874 -0.2526
  262ccc     C5 7149  10.339  11.970   8.022 -0.1539 -0.4408  0.0690
  262ccc     H3 7150  10.414  12.142   8.146  0.8785 -0.5957 -0.9742
  262ccc     H4 7151  10.254  12.191   7.892 -0.8210 -0.1079  1.1209
  262ccc     H5 7152  10.261  11.947   7.947  0.5777  2.2431 -1.6461
  262ccc     O1 7153  10.342  11.872   8.134 -0.5079 -0.0475  0.1921
  262ccc     O2 7154  10.208  12.140   8.150 -0.7452 -0.2751 -0.0720
  262ccc     O3 7155  10.325  12.354   7.988  0.2856  0.1711  0.5195
  262ccc     O4 7156  10.590  12.223   7.920 -0.3889 -0.0110  0.7855
  262ccc     C6 7157  10.603  12.019   7.748  0.2360  1.3665  0.1219
  262ccc     H6 7158  10.399  12.391   8.040 -1.1711  1.6296  1.6631
  262ccc     H7 7159  10.626  12.305   7.881 -0.6592 -0.2165  0.0787
  262ccc     H8 7160  10.230  12.100   8.236  3.6485  2.0397  0.1559
  262ccc     H9 7161  10.698  12.026   7.803 -0.3435  1.6281  1.1213
  262ccc    H10 7162  10.602  12.095   7.669  0.5290 -0.5936 -1.8548
  262ccc     O5 7163  10.583  11.886   7.692  0.2790  0.5882 -0.7680
  262ccc    H11 7164  10.592  11.816   7.758 -0.2751 -0.1019 -1.4072
  262ccc     O6 7165  10.464  11.962   7.951  0.3494  0.1146 -0.8170
  263ccc     C1 7166   9.421   8.025   8.077 -0.0008 -0.0717 -0.0237
  263ccc     C2 7167   9.490   7.929   7.980  0.3396 -0.0438  0.2240
  263ccc     H1 7168   9.466   8.123   8.055  2.5033 -1.3038 -0.7154
  263ccc     H2 7169   9.475   7.961   7.876 -0.4635 -0.3367  0.2465
  263ccc     C3 7170   9.643   7.936   8.010  0.5995  0.2171 -0.4112
  263ccc     C4 7171   9.674   7.921   8.166  0.5368 -0.1531  0.3874
  263ccc     C5 7172   9.587   8.016   8.249 -0.3889 -0.2132 -0.1563
  263ccc     H3 7173   9.659   7.816   8.194 -1.7165 -0.4013 -1.5053
  263ccc     H4 7174   9.673   8.038   7.984 -0.5764  0.6652 -0.0566
  263ccc     H5 7175   9.632   8.114   8.226 -0.7621 -0.0967 -0.3992
  263ccc     O1 7176   9.595   7.989   8.393 -0.3806  0.1021  0.3737
  263ccc     O2 7177   9.814   7.955   8.186  0.1629 -0.1268 -0.1018
  263ccc     O3 7178   9.711   7.834   7.940  0.2553 -0.1545  0.1375
  263ccc     O4 7179   9.447   7.797   8.005  0.5088  0.0572 -0.1848
  263ccc     C6 7180   9.265   8.033   8.059  0.2340 -0.5068  0.1620
  263ccc     H6 7181   9.697   7.750   7.987 -1.7589 -0.9529 -1.7114
  263ccc     H7 7182   9.487   7.744   7.934  1.2469  2.6058 -1.7969
  263ccc     H8 7183   9.864   7.897   8.125 -0.2535 -0.9635  0.3378
  263ccc     H9 7184   9.244   8.073   7.959 -0.1931  2.1189  1.2086
  263ccc    H10 7185   9.227   8.118   8.118  0.8140 -0.1880  0.0836
  263ccc     O5 7186   9.217   7.903   8.078 -0.6416  0.1613  0.1587
  263ccc    H11 7187   9.302   7.856   8.066 -0.1457  1.1679 -0.3159
  263ccc     O6 7188   9.450   8.005   8.214 -0.0828  0.2981  0.1346
  264ccc     C1 7189   8.740   8.568   8.498 -0.1598  0.1523  0.1355
  264ccc     C2 7190   8.671   8.452   8.575  0.2760 -0.3755  0.1132
  264ccc     H1 7191   8.677   8.591   8.412  1.8978 -1.0549 -1.7930
  264ccc     H2 7192   8.567   8.489   8.583  0.8676  1.6842 -0.9961
  264ccc     C3 7193   8.688   8.320   8.485 -0.0527  0.3198  0.0264
  264ccc     C4 7194   8.838   8.293   8.454  0.4789  0.3651  0.1780
  264ccc     C5 7195   8.900   8.419   8.386  0.1750  0.0755 -0.4783
  264ccc     H3 7196   8.890   8.281   8.550 -1.3468 -0.2857  1.1466
  264ccc     H4 7197   8.631   8.344   8.394 -2.0191 -1.9353  0.5453
  264ccc     H5 7198   8.840   8.429   8.294 -0.5390 -3.2177 -0.5073
  264ccc     O1 7199   9.042   8.408   8.360  0.2852  0.5566 -0.4485
  264ccc     O2 7200   8.848   8.168   8.379 -0.3485 -0.4804 -0.3136
  264ccc     O3 7201   8.616   8.198   8.536  0.0568 -0.3331  0.3851
  264ccc     O4 7202   8.730   8.427   8.704  0.2352  0.4920  0.5270
  264ccc     C6 7203   8.746   8.702   8.581  0.0265 -0.2029 -0.3337
  264ccc     H6 7204   8.524   8.229   8.546  0.5362  1.0591  0.6448
  264ccc     H7 7205   8.655   8.383   8.749 -0.2560  1.7063  0.9179
  264ccc     H8 7206   8.822   8.099   8.442 -0.6435 -0.2748 -0.2055
  264ccc     H9 7207   8.790   8.693   8.681 -2.0133  2.9606  1.0145
  264ccc    H10 7208   8.645   8.741   8.597  0.5569  1.5020 -0.8935
  264ccc     O5 7209   8.821   8.791   8.504  0.6629 -0.1591 -0.1614
  264ccc    H11 7210   8.908   8.748   8.500 -0.4496 -2.6805  0.7186
  264ccc     O6 7211   8.877   8.535   8.468  0.2126  0.5420  0.2922
  265ccc     C1 7212   9.208   7.344   9.552 -0.2576  0.2113  0.5578
  265ccc     C2 7213   9.161   7.271   9.680  0.3806  0.4900 -0.4534
  265ccc     H1 7214   9.237   7.266   9.481 -1.4938  1.3393 -1.2570
  265ccc     H2 7215   9.073   7.210   9.657 -1.5539  3.1117 -0.4596
  265ccc     C3 7216   9.276   7.193   9.741  0.7928 -0.0944 -0.6240
  265ccc     C4 7217   9.390   7.292   9.760 -0.2446 -0.8168 -0.0989
  265ccc     C5 7218   9.433   7.374   9.633 -0.7114  0.2319 -0.1229
  265ccc     H3 7219   9.361   7.372   9.829  1.5583  0.7031 -1.0209
  265ccc     H4 7220   9.308   7.112   9.674  2.1488  0.2097 -0.3652
  265ccc     H5 7221   9.478   7.305   9.562 -2.7934 -2.1194  0.7017
  265ccc     O1 7222   9.516   7.485   9.665  0.1031 -0.0063 -0.0099
  265ccc     O2 7223   9.499   7.216   9.819  0.7401 -0.0453  0.2632
  265ccc     O3 7224   9.244   7.144   9.875  0.1133  0.1332 -0.0315
  265ccc     O4 7225   9.125   7.365   9.779 -0.0798 -0.3631 -0.1447
  265ccc     C6 7226   9.089   7.412   9.487  0.2977 -0.2507  0.6878
  265ccc     H6 7227   9.167   7.200   9.897 -1.0023 -1.9113  1.6173
  265ccc     H7 7228   9.101   7.434   9.714 -0.6680 -1.9781 -1.7489
  265ccc     H8 7229   9.465   7.135   9.861 -2.8004  0.5973 -1.0360
  265ccc     H9 7230   8.999   7.352   9.467  0.8752 -1.1622  0.7416
  265ccc    H10 7231   9.119   7.441   9.385 -0.7829 -0.4938  0.2839
  265ccc     O5 7232   9.058   7.527   9.566  0.5548 -0.1308  0.0929
  265ccc    H11 7233   9.130   7.589   9.543 -0.5081  0.2061 -2.7019
  265ccc     O6 7234   9.318   7.430   9.568  0.0562 -0.1651 -0.7211
  266ccc     C1 7235  10.309   7.507  10.060 -0.1400  0.0019 -0.3397
  266ccc     C2 7236  10.240   7.382  10.124 -0.4820 -0.1722 -0.2658
  266ccc     H1 7237  10.312   7.588  10.134  1.7355 -1.3172  1.1217
  266ccc     H2 7238  10.273   7.365  10.227  1.0551 -1.3151 -0.9045
  266ccc     C3 7239  10.096   7.416  10.153 -0.6766 -0.0629  0.3932
  266ccc     C4 7240  10.016   7.480  10.040 -0.3493  0.2304  0.0179
  266ccc     C5 7241  10.094   7.591   9.969 -0.1918 -0.3320 -0.3751
  266ccc     H3 7242  10.003   7.403   9.964  0.5976 -2.0552  2.0548
  266ccc     H4 7243  10.094   7.493  10.231 -1.9778  1.4791 -1.1040
  266ccc     H5 7244  10.096   7.682  10.029  1.4221  0.2562 -1.2639
  266ccc     O1 7245  10.029   7.614   9.843 -0.1145  0.4324 -0.3536
  266ccc     O2 7246   9.893   7.541  10.101  0.0712 -0.3068 -0.2142
  266ccc     O3 7247  10.031   7.305  10.207  0.0368  0.6683 -0.6641
  266ccc     O4 7248  10.268   7.264  10.047  0.1596 -0.4345 -0.0564
  266ccc     C6 7249  10.455   7.485  10.016 -0.2488 -0.0720  0.0137
  266ccc     H6 7250  10.012   7.248  10.129 -1.0653 -0.9841  0.7280
  266ccc     H7 7251  10.265   7.196  10.117  0.7928 -0.7935 -0.3641
  266ccc     H8 7252   9.837   7.569  10.026 -2.2282 -0.1006  1.4577
  266ccc     H9 7253  10.481   7.388   9.972 -2.8645 -0.2537 -1.3469
  266ccc    H10 7254  10.525   7.494  10.100 -0.4150 -1.9250  0.3944
  266ccc     O5 7255  10.482   7.586   9.915  0.1743 -0.3115  0.5935
  266ccc    H11 7256  10.433   7.666   9.939 -1.2372 -0.3618 -1.7789
  266ccc     O6 7257  10.225   7.544   9.943  0.1497  0.4507 -0.7674
  267ccc     C1 7258  10.334  10.256   8.721  0.6935 -0.6656 -0.2844
  267ccc     C2 7259  10.210  10.321   8.653  0.0996 -0.8498  0.4661
  267ccc     H1 7260  10.421  10.258   8.654  1.8832  0.2721  1.2094
  267ccc     H2 7261  10.232  10.412   8.596  1.1467 -0.3129  1.6661
  267ccc     C3 7262  10.142  10.225   8.553  0.0208 -0.4929 -0.0794
  267ccc     C4 7263  10.108  10.091   8.622  0.2924 -0.2843  0.7037
  267ccc     C5 7264  10.240  10.033   8.669  0.1213 -0.3589  0.2412
  267ccc     H3 7265  10.037  10.106   8.705  0.7467  1.6499  0.7885
  267ccc     H4 7266  10.208  10.196   8.471  0.3166 -0.4772  0.1516
  267ccc     H5 7267  10.308  10.021   8.584  0.7023  0.3412  0.5907
  267ccc     O1 7268  10.220   9.910   8.744 -0.3540  0.2802 -0.3150
  267ccc     O2 7269  10.052  10.006   8.516  0.0928 -0.0633  0.7720
  267ccc     O3 7270  10.017  10.283   8.500 -0.3024  0.2674 -0.3403
  267ccc     O4 7271  10.122  10.355   8.760 -0.2710  0.5058 -0.2976
  267ccc     C6 7272  10.380  10.336   8.845  0.6340  0.1050  0.2521
  267ccc     H6 7273   9.997  10.240   8.415 -1.7396  2.4427 -1.2215
  267ccc     H7 7274  10.059  10.421   8.725 -1.0318 -0.0625 -0.0205
  267ccc     H8 7275   9.981   9.958   8.562  2.0161 -3.0001  0.9518
  267ccc     H9 7276  10.383  10.444   8.825 -2.3542  0.3621  0.7837
  267ccc    H10 7277  10.480  10.304   8.877 -0.2039 -2.1480  0.8122
  267ccc     O5 7278  10.285  10.300   8.951  0.0566  0.1563 -0.5025
  267ccc    H11 7279  10.200  10.316   8.907 -0.8441  0.2738  1.1962
  267ccc     O6 7280  10.304  10.114   8.758  0.2533 -0.5250  0.5044
  268ccc     C1 7281   9.767   9.313   8.535  0.2750  0.1472  0.0373
  268ccc     C2 7282   9.670   9.233   8.442 -0.0823  0.2194 -0.5353
  268ccc     H1 7283   9.726   9.414   8.538  0.6041  0.4011 -2.1595
  268ccc     H2 7284   9.566   9.248   8.473  0.0107  0.1601 -0.1999
  268ccc     C3 7285   9.688   9.290   8.294  0.1632 -0.2145 -0.1999
  268ccc     C4 7286   9.837   9.293   8.244 -0.3898  0.9636 -0.6805
  268ccc     C5 7287   9.919   9.379   8.348 -0.2157  0.2349 -0.0592
  268ccc     H3 7288   9.869   9.188   8.251 -3.0839  0.1747  2.4999
  268ccc     H4 7289   9.653   9.394   8.295  1.6593  0.3056  0.5786
  268ccc     H5 7290   9.879   9.479   8.371 -0.2463 -0.1756  1.8263
  268ccc     O1 7291  10.060   9.393   8.305 -0.4426 -0.5854 -0.4656
  268ccc     O2 7292   9.855   9.347   8.105  0.0378 -0.0277  0.1223
  268ccc     O3 7293   9.597   9.226   8.200 -0.2392  0.7426 -0.4061
  268ccc     O4 7294   9.710   9.096   8.448 -0.2837  0.4429  0.2686
  268ccc     C6 7295   9.757   9.262   8.682 -0.0421  0.1558  0.1269
  268ccc     H6 7296   9.554   9.297   8.151 -1.5710  1.1097  1.2012
  268ccc     H7 7297   9.750   9.087   8.536  0.9417  1.3615 -0.1670
  268ccc     H8 7298   9.829   9.441   8.113 -3.3364 -0.9421  1.7677
  268ccc     H9 7299   9.650   9.266   8.705  0.2778  0.0872  1.6970
  268ccc    H10 7300   9.810   9.347   8.726  0.3887  0.8698 -1.6494
  268ccc     O5 7301   9.807   9.124   8.694  0.2181 -0.3802 -0.3505
  268ccc    H11 7302   9.849   9.141   8.780  0.3061  3.4359 -0.9655
  268ccc     O6 7303   9.906   9.319   8.481 -0.0845 -0.3257 -0.6647
  269ccc     C1 7304  12.348   8.546   8.690  0.2498  0.1710 -0.8274
  269ccc     C2 7305  12.371   8.590   8.545 -1.1842 -0.4896  0.5374
  269ccc     H1 7306  12.358   8.437   8.694  0.1177  0.1313 -1.4473
  269ccc     H2 7307  12.464   8.544   8.509  0.7782  1.2548  2.9906
  269ccc     C3 7308  12.251   8.548   8.454 -0.6095 -0.4365  0.3328
  269ccc     C4 7309  12.118   8.595   8.516 -0.0258 -0.6014  0.4169
  269ccc     C5 7310  12.108   8.529   8.654  0.2427  0.0026  0.4163
  269ccc     H3 7311  12.119   8.704   8.532  0.2894 -0.4468 -0.5971
  269ccc     H4 7312  12.243   8.438   8.449 -1.9566 -0.3798  1.0226
  269ccc     H5 7313  12.110   8.419   8.645 -1.5155 -0.0147 -0.1886
  269ccc     O1 7314  11.983   8.583   8.702 -0.1184  0.0177 -0.1708
  269ccc     O2 7315  12.011   8.557   8.427 -0.3028  0.1837  0.0095
  269ccc     O3 7316  12.265   8.613   8.322 -0.0140 -0.3322  1.1017
  269ccc     O4 7317  12.386   8.732   8.543  0.1274 -0.1601 -0.4438
  269ccc     C6 7318  12.457   8.589   8.793  0.4986 -0.0152 -0.1670
  269ccc     H6 7319  12.336   8.570   8.270  1.2344  1.7280  0.9979
  269ccc     H7 7320  12.396   8.742   8.447  2.1091  0.8738 -0.1963
  269ccc     H8 7321  11.957   8.493   8.475 -0.2439  0.3365  0.2853
  269ccc     H9 7322  12.458   8.698   8.806  1.8480 -0.0793  0.3420
  269ccc    H10 7323  12.559   8.571   8.758  0.4503  2.0328 -1.5615
  269ccc     O5 7324  12.443   8.521   8.923  0.3154  0.2847 -0.3836
  269ccc    H11 7325  12.484   8.436   8.901 -2.6679 -1.6977  0.9295
  269ccc     O6 7326  12.212   8.581   8.737  0.4219  0.2184  0.0273
  270ccc     C1 7327  11.583   8.582   8.151 -0.2101 -0.0869 -0.6678
  270ccc     C2 7328  11.726   8.626   8.176  0.3864  0.2907  0.4503
  270ccc     H1 7329  11.520   8.669   8.129  1.9816  0.9583 -3.3713
  270ccc     H2 7330  11.766   8.680   8.090  0.3806 -0.2840  0.0798
  270ccc     C3 7331  11.736   8.723   8.302  0.4419  0.3418 -0.0003
  270ccc     C4 7332  11.677   8.652   8.432  0.1991  0.2325  0.3758
  270ccc     C5 7333  11.533   8.603   8.392 -0.5555  0.2445 -0.3365
  270ccc     H3 7334  11.737   8.567   8.466 -0.4486 -0.1296  0.6277
  270ccc     H4 7335  11.668   8.806   8.284 -0.8346 -0.8967 -1.1066
  270ccc     H5 7336  11.474   8.694   8.380 -0.6804  0.5190  1.8372
  270ccc     O1 7337  11.482   8.527   8.502  0.1988  0.8225  0.2230
  270ccc     O2 7338  11.674   8.735   8.553  0.2734 -0.4513  0.5611
  270ccc     O3 7339  11.874   8.754   8.320 -0.8006 -0.6941 -0.0639
  270ccc     O4 7340  11.803   8.514   8.205 -0.3187  0.3260  0.5186
  270ccc     C6 7341  11.572   8.476   8.038 -0.2379 -0.3782 -0.3560
  270ccc     H6 7342  11.923   8.674   8.348  0.6959  0.8801  2.1421
  270ccc     H7 7343  11.895   8.538   8.186 -0.2865 -0.6486 -0.7168
  270ccc     H8 7344  11.633   8.671   8.614 -2.0385  0.8270  0.4634
  270ccc     H9 7345  11.467   8.476   8.004 -0.2602 -0.6894 -0.2933
  270ccc    H10 7346  11.604   8.383   8.086  0.6424 -0.3826 -0.9463
  270ccc     O5 7347  11.654   8.511   7.932  0.3328 -0.8634  0.1543
  270ccc    H11 7348  11.734   8.460   7.951  0.1645 -0.9277  0.7121
  270ccc     O6 7349  11.540   8.516   8.275 -0.3790 -0.4716 -0.3262
  271ccc     C1 7350   7.071  11.493   7.214  0.2118  0.0232 -0.0474
  271ccc     C2 7351   7.122  11.368   7.290 -0.0500 -0.1237 -0.3142
  271ccc     H1 7352   7.081  11.478   7.106  0.6450  2.7575 -0.4548
  271ccc     H2 7353   7.069  11.283   7.245 -0.8548  0.7427 -1.0510
  271ccc     C3 7354   7.272  11.357   7.267  0.0731 -0.6028 -0.4114
  271ccc     C4 7355   7.352  11.490   7.265  0.4176  0.0629 -0.4226
  271ccc     C5 7356   7.273  11.609   7.202  0.6760 -0.0068  0.6272
  271ccc     H3 7357   7.366  11.521   7.369 -2.0789 -0.6242  0.1800
  271ccc     H4 7358   7.281  11.320   7.164 -2.1331  2.8294 -2.0028
  271ccc     H5 7359   7.271  11.605   7.093 -0.5069 -0.0255  0.6355
  271ccc     O1 7360   7.329  11.734   7.234 -0.0253 -0.1334 -0.5347
  271ccc     O2 7361   7.483  11.473   7.201  0.0780 -0.5724 -0.7068
  271ccc     O3 7362   7.336  11.268   7.363  0.1886  0.7137  0.4099
  271ccc     O4 7363   7.101  11.389   7.425  0.5732 -0.5799 -0.0855
  271ccc     C6 7364   6.920  11.511   7.239 -0.4073  0.1251  0.1289
  271ccc     H6 7365   7.283  11.288   7.442 -1.8033 -0.9749 -0.4166
  271ccc     H7 7366   7.019  11.441   7.418 -0.3137 -1.9612 -0.4778
  271ccc     H8 7367   7.531  11.401   7.245 -0.5660 -0.1552  0.7432
  271ccc     H9 7368   6.861  11.428   7.197  0.5174  0.3139 -1.6403
  271ccc    H10 7369   6.905  11.605   7.185 -2.2023  0.4132  1.0641
  271ccc     O5 7370   6.889  11.537   7.371  0.1696  0.5532 -0.0661
  271ccc    H11 7371   6.919  11.628   7.388 -3.3794  1.5442  1.9417
  271ccc     O6 7372   7.137  11.611   7.250 -0.1353 -0.8214  0.4773
  272ccc     C1 7373   7.585  11.344   7.997 -0.2610 -0.0414  0.2995
  272ccc     C2 7374   7.482  11.224   8.000  0.0953 -0.4431  0.2407
  272ccc     H1 7375   7.536  11.437   8.026 -0.5662 -0.6057  1.6314
  272ccc     H2 7376   7.432  11.221   8.097 -0.9678  0.2595 -0.2723
  272ccc     C3 7377   7.377  11.241   7.890 -0.4923 -0.0624  0.1732
  272ccc     C4 7378   7.441  11.268   7.747  0.2618 -0.1528 -0.0992
  272ccc     C5 7379   7.546  11.389   7.768  0.3410  0.4245  0.2024
  272ccc     H3 7380   7.503  11.182   7.721  0.7461  0.1970 -0.1254
  272ccc     H4 7381   7.314  11.329   7.913 -0.1813  0.3312 -0.4549
  272ccc     H5 7382   7.496  11.484   7.789 -2.6817 -0.9524 -0.2169
  272ccc     O1 7383   7.620  11.421   7.646 -0.0553 -0.4928  0.1714
  272ccc     O2 7384   7.331  11.294   7.655  0.1905  0.5377  0.2923
  272ccc     O3 7385   7.286  11.126   7.888  0.3134 -0.5172  0.0119
  272ccc     O4 7386   7.549  11.107   7.974 -0.1835 -0.1852 -0.4625
  272ccc     C6 7387   7.698  11.338   8.095 -0.3532 -0.7196 -0.5591
  272ccc     H6 7388   7.300  11.076   7.806  2.7908 -0.3532  0.2514
  272ccc     H7 7389   7.482  11.038   7.988  2.3911 -2.6370  0.7674
  272ccc     H8 7390   7.273  11.217   7.641  0.3298 -0.2150  3.1518
  272ccc     H9 7391   7.658  11.356   8.196  1.0589  0.7506 -0.2298
  272ccc    H10 7392   7.767  11.420   8.072 -1.5588  0.0091 -1.7100
  272ccc     O5 7393   7.763  11.214   8.082 -1.2374 -0.2535  0.0657
  272ccc    H11 7394   7.705  11.165   8.021 -2.6797  2.4452 -0.8871
  272ccc     O6 7395   7.641  11.355   7.869 -0.2208 -0.6274  0.0543
  273ccc     C1 7396   8.296  12.714   7.064  0.0516 -0.7079 -0.1495
  273ccc     C2 7397   8.248  12.856   7.086 -0.4849 -0.5320  0.6426
  273ccc     H1 7398   8.211  12.648   7.086 -1.1245  0.9501  0.4451
  273ccc     H2 7399   8.153  12.861   7.031 -0.2505 -0.0605  0.2764
  273ccc     C3 7400   8.217  12.888   7.236  0.2390  0.3201 -0.7302
  273ccc     C4 7401   8.342  12.849   7.317  0.5569 -0.2560  0.6218
  273ccc     C5 7402   8.396  12.703   7.292 -0.6652 -0.7356  0.2194
  273ccc     H3 7403   8.418  12.913   7.271 -1.2970  0.1446 -2.1693
  273ccc     H4 7404   8.140  12.813   7.259 -0.0827  1.4176  2.1233
  273ccc     H5 7405   8.321  12.631   7.328  0.6717 -1.1395  2.3717
  273ccc     O1 7406   8.517  12.676   7.358 -0.2951 -0.7004  0.2575
  273ccc     O2 7407   8.316  12.877   7.456  0.0455  0.2556  0.2944
  273ccc     O3 7408   8.170  13.024   7.268  0.2513 -0.4083 -0.4991
  273ccc     O4 7409   8.349  12.940   7.042 -0.1556 -0.2270 -0.0454
  273ccc     C6 7410   8.328  12.687   6.914  0.2165 -0.8789 -0.1189
  273ccc     H6 7411   8.080  13.037   7.233 -0.5208  1.8034  1.9669
  273ccc     H7 7412   8.307  13.005   6.983  0.6279 -1.7443 -2.3987
  273ccc     H8 7413   8.250  12.946   7.437 -0.3008 -0.4617 -1.2078
  273ccc     H9 7414   8.412  12.751   6.884 -0.3037  0.6886  1.6010
  273ccc    H10 7415   8.250  12.704   6.839  0.8258 -1.3393 -0.8758
  273ccc     O5 7416   8.373  12.549   6.903 -0.0337  0.6797 -0.2303
  273ccc    H11 7417   8.461  12.569   6.939 -0.5624  2.6908  0.0381
  273ccc     O6 7418   8.412  12.682   7.146  0.1992  0.1298 -0.0233
  274ccc     C1 7419   9.362  12.991   7.825  0.3586  0.6686 -0.3386
  274ccc     C2 7420   9.468  12.965   7.936 -0.2626 -0.9517  0.4467
  274ccc     H1 7421   9.305  13.083   7.846  0.9875  1.2277 -1.0284
  274ccc     H2 7422   9.528  13.056   7.932 -1.3039 -0.2740 -0.5825
  274ccc     C3 7423   9.412  12.933   8.070 -0.4899 -0.4542 -0.4930
  274ccc     C4 7424   9.289  12.843   8.063  0.1070 -0.0508 -0.0544
  274ccc     C5 7425   9.191  12.873   7.948  0.0446 -0.0814 -0.2066
  274ccc     H3 7426   9.332  12.744   8.043  0.6402 -0.0484  1.0346
  274ccc     H4 7427   9.371  13.020   8.122 -0.5978  0.1127 -1.5130
  274ccc     H5 7428   9.154  12.975   7.965 -0.7689  0.0408 -2.3947
  274ccc     O1 7429   9.081  12.780   7.955  0.3539 -0.3408  0.3270
  274ccc     O2 7430   9.216  12.841   8.192 -0.3098  0.0349  0.4021
  274ccc     O3 7431   9.516  12.866   8.156 -0.5781  0.5988  0.5814
  274ccc     O4 7432   9.546  12.850   7.891  0.4467  0.0599 -0.5219
  274ccc     C6 7433   9.420  13.018   7.682  0.2551  0.1600  0.5760
  274ccc     H6 7434   9.565  12.828   8.082 -4.9941 -1.1880 -1.7623
  274ccc     H7 7435   9.506  12.829   7.805  0.1330 -0.7181 -0.1925
  274ccc     H8 7436   9.224  12.750   8.225 -0.8591 -0.0805  0.2359
  274ccc     H9 7437   9.500  13.092   7.695  0.4705 -0.0939  0.6947
  274ccc    H10 7438   9.336  13.056   7.623  0.2091  1.3549  1.3708
  274ccc     O5 7439   9.448  12.891   7.629  0.0640  0.0396  0.0875
  274ccc    H11 7440   9.360  12.859   7.605  0.8819 -2.4633  0.0908
  274ccc     O6 7441   9.268  12.877   7.822 -0.8122 -0.5404  0.4937
  275ccc     C1 7442   9.509  11.451   9.373 -0.2391 -0.7856 -0.4724
  275ccc     C2 7443   9.648  11.493   9.413  0.0623 -0.0697 -0.8311
  275ccc     H1 7444   9.450  11.526   9.427  0.8154 -0.1950 -0.1159
  275ccc     H2 7445   9.666  11.599   9.388  0.9738  0.1740  0.7129
  275ccc     C3 7446   9.663  11.483   9.569  0.2487 -0.0794  0.2152
  275ccc     C4 7447   9.624  11.341   9.617  0.4887  0.5319  0.2315
  275ccc     C5 7448   9.487  11.295   9.564  0.8958 -0.1975  0.0349
  275ccc     H3 7449   9.692  11.271   9.568  0.8086  1.8402 -1.3044
  275ccc     H4 7450   9.580  11.549   9.597  0.1196 -0.4568  0.7275
  275ccc     H5 7451   9.409  11.355   9.612  1.4136  0.4847  0.0424
  275ccc     O1 7452   9.455  11.151   9.585 -0.1721  0.2519 -0.8314
  275ccc     O2 7453   9.638  11.334   9.762 -0.6051  0.3182  0.4499
  275ccc     O3 7454   9.795  11.521   9.623 -0.2536  0.0386 -0.0241
  275ccc     O4 7455   9.748  11.416   9.349  0.0887 -0.3435  0.1385
  275ccc     C6 7456   9.471  11.463   9.229 -0.4531 -0.1352 -0.3047
  275ccc     H6 7457   9.769  11.557   9.710 -2.9526  0.8824 -1.0798
  275ccc     H7 7458   9.829  11.440   9.398  1.5649 -0.4456 -2.1200
  275ccc     H8 7459   9.581  11.406   9.793 -1.6228 -0.0061 -0.5790
  275ccc     H9 7460   9.500  11.563   9.196  0.9828  0.6719  2.9498
  275ccc    H10 7461   9.367  11.432   9.215 -0.4183  0.5932 -2.5302
  275ccc     O5 7462   9.555  11.373   9.160 -0.7225  0.5216  0.5130
  275ccc    H11 7463   9.635  11.375   9.216  0.2971  0.0715 -0.8704
  275ccc     O6 7464   9.485  11.323   9.425  0.8861  0.7207 -0.0580
  276ccc     C1 7465   8.757  10.838   8.915 -0.1996 -0.0478 -0.4183
  276ccc     C2 7466   8.690  10.965   8.869  0.5163 -0.3409  0.4135
  276ccc     H1 7467   8.684  10.759   8.898  1.1064 -1.6245  0.9185
  276ccc     H2 7468   8.650  10.951   8.768 -0.5411  0.6086  0.6763
  276ccc     C3 7469   8.567  10.992   8.969 -0.1681  0.4543 -0.5636
  276ccc     C4 7470   8.606  10.994   9.118  0.5883 -0.0030 -0.0312
  276ccc     C5 7471   8.672  10.854   9.147 -0.2851 -0.5400 -0.2371
  276ccc     H3 7472   8.677  11.076   9.132  0.1545  0.2384  0.8413
  276ccc     H4 7473   8.493  10.914   8.952  1.7342 -1.8594  1.1177
  276ccc     H5 7474   8.604  10.769   9.134 -0.2014 -0.3841 -2.0082
  276ccc     O1 7475   8.707  10.863   9.286 -0.2238 -0.2870  0.0188
  276ccc     O2 7476   8.492  11.007   9.213 -0.6266  0.0296 -0.7542
  276ccc     O3 7477   8.514  11.120   8.933  0.4094  0.9603  0.7388
  276ccc     O4 7478   8.792  11.066   8.887 -0.2961  0.1775 -0.1169
  276ccc     C6 7479   8.887  10.808   8.836 -0.0212 -0.1914  0.3224
  276ccc     H6 7480   8.588  11.174   8.901  1.1093 -0.0760  0.5686
  276ccc     H7 7481   8.872  11.029   8.847  0.5312 -0.5915  2.1318
  276ccc     H8 7482   8.528  11.017   9.303  1.2597  2.8818 -1.6908
  276ccc     H9 7483   8.854  10.772   8.738 -0.2146 -1.2649  0.7602
  276ccc    H10 7484   8.937  10.720   8.879 -0.1248 -0.3979  0.0280
  276ccc     O5 7485   8.980  10.915   8.833  0.5107  0.6053  0.6184
  276ccc    H11 7486   9.062  10.875   8.867 -0.0846 -0.6142  0.6596
  276ccc     O6 7487   8.789  10.833   9.059 -0.6468  0.6463 -0.3381
  277ccc     C1 7488  10.349  12.065   8.625 -0.3857  0.2661 -0.0833
  277ccc     C2 7489  10.406  11.929   8.624 -0.4353  0.8120 -0.0864
  277ccc     H1 7490  10.404  12.131   8.693  1.0739 -2.1358  1.2022
  277ccc     H2 7491  10.511  11.944   8.597 -0.2439  2.5049  1.3728
  277ccc     C3 7492  10.400  11.870   8.774 -0.1956  0.1403  0.3548
  277ccc     C4 7493  10.259  11.873   8.823  0.5895  0.0056 -0.2489
  277ccc     C5 7494  10.196  12.013   8.809 -0.0139  0.7653  0.3705
  277ccc     H3 7495  10.193  11.805   8.769  0.3807  1.1868 -1.5248
  277ccc     H4 7496  10.461  11.949   8.819 -0.4177  1.0786 -0.9085
  277ccc     H5 7497  10.242  12.089   8.873  1.6049  0.4914 -0.4004
  277ccc     O1 7498  10.058  11.996   8.849  0.2506  0.5681  0.3520
  277ccc     O2 7499  10.262  11.848   8.964 -0.9465  0.4741 -0.4459
  277ccc     O3 7500  10.473  11.740   8.780 -0.3202 -0.1691  0.7685
  277ccc     O4 7501  10.341  11.849   8.529  0.1363  0.3265  0.1333
  277ccc     C6 7502  10.346  12.135   8.482 -0.5657  0.2841  0.6476
  277ccc     H6 7503  10.491  11.715   8.873  1.9254 -1.7734 -0.0031
  277ccc     H7 7504  10.377  11.759   8.543 -0.4942  0.0721  0.1161
  277ccc     H8 7505  10.312  11.764   8.968  0.3142  1.1606  4.3698
  277ccc     H9 7506  10.448  12.153   8.445 -1.2158  1.7615 -0.5565
  277ccc    H10 7507  10.303  12.236   8.486  0.7563  0.8249  3.5398
  277ccc     O5 7508  10.276  12.055   8.390 -0.2179  0.2464 -0.3207
  277ccc    H11 7509  10.298  11.968   8.429  1.5883  0.3455 -1.0229
  277ccc     O6 7510  10.213  12.052   8.670 -0.0718  0.0554 -0.4036
  278ccc     C1 7511   9.209  12.866   8.702  0.6681 -0.0143 -0.4521
  278ccc     C2 7512   9.161  12.922   8.570  0.7953  0.3383  0.3543
  278ccc     H1 7513   9.271  12.942   8.752  0.3107  1.0426 -1.5567
  278ccc     H2 7514   9.100  13.012   8.589 -0.7592 -0.6111 -0.0299
  278ccc     C3 7515   9.282  12.962   8.489 -0.0115 -0.7383  0.3976
  278ccc     C4 7516   9.396  12.857   8.471 -0.0114  0.7040 -0.1598
  278ccc     C5 7517   9.412  12.784   8.605 -0.3424  0.1132 -0.9237
  278ccc     H3 7518   9.357  12.777   8.406  2.1309 -0.0973 -0.5429
  278ccc     H4 7519   9.325  13.039   8.554 -2.6889  0.8439  0.4034
  278ccc     H5 7520   9.464  12.857   8.667 -0.3065 -1.4010  0.9205
  278ccc     O1 7521   9.497  12.668   8.589 -0.8979  0.5399 -0.4645
  278ccc     O2 7522   9.524  12.915   8.420 -0.3988  0.0466  1.2252
  278ccc     O3 7523   9.261  13.035   8.366 -0.9792  0.0330 -0.1140
  278ccc     O4 7524   9.083  12.829   8.503 -0.3085  0.1072  0.5733
  278ccc     C6 7525   9.095  12.824   8.798 -0.3176  0.2766 -0.5388
  278ccc     H6 7526   9.245  12.967   8.298 -1.0220  0.6673 -0.7531
  278ccc     H7 7527   9.027  12.879   8.441 -0.6750  0.4905  1.2046
  278ccc     H8 7528   9.522  12.903   8.324  0.6092  1.2814  1.0262
  278ccc     H9 7529   9.046  12.733   8.758  2.2268 -0.3322 -2.5443
  278ccc    H10 7530   9.022  12.905   8.812 -2.0849 -1.5291  1.4661
  278ccc     O5 7531   9.155  12.800   8.926 -0.3574 -0.0044 -0.0043
  278ccc    H11 7532   9.078  12.788   8.985 -0.5352  0.8897 -0.0519
  278ccc     O6 7533   9.291  12.748   8.674 -0.0605 -0.2792 -0.2054
  279ccc     C1 7534   8.311   8.622   9.121 -0.7490  0.5502  0.4804
  279ccc     C2 7535   8.300   8.582   9.273  0.5940  0.1095  0.6318
  279ccc     H1 7536   8.412   8.611   9.081 -0.4043  1.9321  0.9145
  279ccc     H2 7537   8.337   8.479   9.282  1.3087  0.1519 -1.2477
  279ccc     C3 7538   8.397   8.667   9.359  0.2929 -0.0598 -0.0073
  279ccc     C4 7539   8.368   8.816   9.336  1.0564  0.0111  0.4328
  279ccc     C5 7540   8.368   8.856   9.181 -0.1268  0.2802 -0.7907
  279ccc     H3 7541   8.267   8.837   9.374  1.9486  1.1632  2.2533
  279ccc     H4 7542   8.495   8.656   9.311 -0.7465 -0.7079 -2.1534
  279ccc     H5 7543   8.467   8.830   9.143 -0.1256 -0.4134 -0.3344
  279ccc     O1 7544   8.338   8.998   9.171 -0.3668  0.1696  0.1218
  279ccc     O2 7545   8.461   8.887   9.415  0.2236 -0.0831  0.2394
  279ccc     O3 7546   8.396   8.614   9.496  0.6733 -0.6154  0.3718
  279ccc     O4 7547   8.157   8.585   9.309 -0.6820  0.0490 -0.1713
  279ccc     C6 7548   8.216   8.545   9.037  0.1029 -0.8958 -0.0434
  279ccc     H6 7549   8.490   8.626   9.520  1.4564  1.6406 -3.1324
  279ccc     H7 7550   8.155   8.602   9.405  0.9271 -1.6079  0.1964
  279ccc     H8 7551   8.430   8.877   9.507  0.9290 -0.5344  0.4398
  279ccc     H9 7552   8.117   8.584   9.065  0.1629  0.3624 -1.4505
  279ccc    H10 7553   8.219   8.437   9.056  0.2344 -1.4558 -2.8319
  279ccc     O5 7554   8.243   8.593   8.901  0.0812  0.7511  0.3666
  279ccc    H11 7555   8.212   8.685   8.896 -2.5711 -0.0657  0.1045
  279ccc     O6 7556   8.281   8.767   9.110 -0.1441  0.1903 -0.2735
  280ccc     C1 7557   8.507   9.495   8.061  0.1644  0.1731 -0.0267
  280ccc     C2 7558   8.422   9.614   8.008 -0.3312  0.3208 -0.4991
  280ccc     H1 7559   8.451   9.409   8.021  1.9877 -0.1317 -2.1338
  280ccc     H2 7560   8.398   9.597   7.902 -0.2841  0.0019 -0.4596
  280ccc     C3 7561   8.284   9.602   8.076 -0.5629 -0.1713  0.3355
  280ccc     C4 7562   8.299   9.587   8.229 -0.5980 -0.6794 -0.5432
  280ccc     C5 7563   8.398   9.469   8.266  1.0397 -0.4673 -0.2189
  280ccc     H3 7564   8.353   9.669   8.278 -0.5692  0.4524 -2.3866
  280ccc     H4 7565   8.245   9.504   8.046 -0.3741 -0.7092  1.7945
  280ccc     H5 7566   8.351   9.375   8.236 -1.0307 -0.1677  1.8005
  280ccc     O1 7567   8.414   9.477   8.413 -0.1989  0.0947 -0.2011
  280ccc     O2 7568   8.166   9.568   8.278  0.2719 -0.8122 -0.1845
  280ccc     O3 7569   8.197   9.710   8.035  0.5770 -0.1827 -0.0798
  280ccc     O4 7570   8.503   9.728   8.036  0.4373 -0.5582  0.0546
  280ccc     C6 7571   8.652   9.480   8.006  0.2263 -0.0154  0.1455
  280ccc     H6 7572   8.253   9.786   8.012 -1.1969  0.7813 -1.4068
  280ccc     H7 7573   8.461   9.813   8.012 -1.2158 -0.5158  2.6567
  280ccc     H8 7574   8.151   9.606   8.367 -0.1266 -2.0212  0.2813
  280ccc     H9 7575   8.725   9.538   8.065  0.4206 -0.1879  0.0756
  280ccc    H10 7576   8.649   9.521   7.905 -0.6058 -0.0384  0.1526
  280ccc     O5 7577   8.689   9.342   8.004  0.1366 -0.5190  0.5914
  280ccc    H11 7578   8.773   9.348   7.954 -1.5168 -0.1401 -2.4141
  280ccc     O6 7579   8.518   9.489   8.201 -0.3680  0.2653  0.1600
  281ccc     C1 7580   8.033  10.765  10.114 -0.3567  0.2629  0.4071
  281ccc     C2 7581   7.921  10.876  10.135  0.0046  1.0106  0.3357
  281ccc     H1 7582   8.080  10.782  10.016  0.0876 -2.8441 -0.0268
  281ccc     H2 7583   7.982  10.966  10.154  0.7879  0.1860  1.9967
  281ccc     C3 7584   7.824  10.871  10.015  0.1875 -0.1411 -0.6299
  281ccc     C4 7585   7.766  10.730   9.999  0.1312 -0.0450  0.0100
  281ccc     C5 7586   7.870  10.612   9.988  0.1686 -0.5474 -0.2835
  281ccc     H3 7587   7.713  10.706  10.092  0.5739  1.2217  0.6017
  281ccc     H4 7588   7.872  10.906   9.923 -0.8211  1.1884 -0.6669
  281ccc     H5 7589   7.922  10.626   9.892  0.9016  0.9855  0.3087
  281ccc     O1 7590   7.811  10.479  10.002 -0.3424 -0.2803 -0.3587
  281ccc     O2 7591   7.695  10.716   9.876 -0.7186  0.1403 -0.4178
  281ccc     O3 7592   7.708  10.956  10.036  0.1667  0.5901  0.2210
  281ccc     O4 7593   7.859  10.842  10.254  0.2819  0.3804 -0.4662
  281ccc     C6 7594   8.148  10.768  10.218 -0.2631 -0.3841 -0.3840
  281ccc     H6 7595   7.667  10.936  10.122 -1.3325  0.3841 -0.4997
  281ccc     H7 7596   7.938  10.805  10.296  1.4183  0.8730 -2.0594
  281ccc     H8 7597   7.605  10.691   9.905 -1.4357  0.0784 -2.5105
  281ccc     H9 7598   8.216  10.847  10.184 -0.0744 -0.1967  0.4168
  281ccc    H10 7599   8.207  10.675  10.219  1.3997  0.6367  0.6735
  281ccc     O5 7600   8.089  10.798  10.342 -0.0136  0.5491 -0.2922
  281ccc    H11 7601   8.163  10.830  10.395 -1.2309  1.5825  0.8504
  281ccc     O6 7602   7.966  10.631  10.095 -0.5260 -0.3331 -0.5472
  282ccc     C1 7603   6.968  10.301   9.726 -0.2159  0.5973 -0.4897
  282ccc     C2 7604   6.882  10.178   9.699 -0.0728  0.0626  0.9367
  282ccc     H1 7605   7.000  10.333   9.626  0.7027 -1.6674 -0.9940
  282ccc     H2 7606   6.809  10.202   9.621  0.4853  3.4060  1.2939
  282ccc     C3 7607   6.969  10.060   9.660  0.4411  0.0935 -0.5100
  282ccc     C4 7608   7.075  10.030   9.763 -0.2695  0.1070 -0.1752
  282ccc     C5 7609   7.168  10.155   9.783  0.5123 -0.1658 -0.2055
  282ccc     H3 7610   7.024  10.011   9.859 -2.6693 -1.2173 -1.6165
  282ccc     H4 7611   7.020  10.096   9.569  0.2580 -0.4272 -0.8225
  282ccc     H5 7612   7.229  10.168   9.693 -0.8222 -0.3074 -1.1588
  282ccc     O1 7613   7.233  10.131   9.910 -1.0987 -0.2044  0.1145
  282ccc     O2 7614   7.163   9.916   9.725 -0.0590 -0.1999  0.0263
  282ccc     O3 7615   6.893   9.942   9.633  0.5813  0.1027 -0.2914
  282ccc     O4 7616   6.823  10.153   9.823 -0.0485 -0.0910 -0.0561
  282ccc     C6 7617   6.895  10.421   9.782  0.3201 -0.2793  0.0294
  282ccc     H6 7618   6.804   9.980   9.624 -0.0345 -1.3588 -0.7347
  282ccc     H7 7619   6.834  10.240   9.865  2.7703 -1.3031  2.1352
  282ccc     H8 7620   7.096   9.848   9.704 -0.5131 -0.0275  0.8740
  282ccc     H9 7621   6.806  10.449   9.725 -1.0453  1.3050  2.7644
  282ccc    H10 7622   6.956  10.510   9.804 -0.4504  0.0182  1.0355
  282ccc     O5 7623   6.856  10.383   9.912 -0.2437 -0.2104  0.5254
  282ccc    H11 7624   6.942  10.378   9.957  0.2264  1.0767 -0.2007
  282ccc     O6 7625   7.081  10.268   9.811  0.0369 -0.2797  0.2090
  283ccc     C1 7626   9.039   9.117  10.947  0.2991  0.1090  0.0224
  283ccc     C2 7627   9.042   8.962  10.922 -0.0039 -0.3376 -0.3435
  283ccc     H1 7628   8.950   9.140  11.007 -0.4259  0.5006 -1.1632
  283ccc     H2 7629   9.023   8.926  11.023 -2.9646  0.2916 -0.5924
  283ccc     C3 7630   8.933   8.911  10.832  0.5649 -0.4982 -0.6051
  283ccc     C4 7631   8.924   8.985  10.700  0.7009  0.3106 -0.4414
  283ccc     C5 7632   8.912   9.137  10.729 -0.0181 -0.3588 -0.1660
  283ccc     H3 7633   9.022   8.967  10.653  0.8672  0.9251 -0.3435
  283ccc     H4 7634   8.837   8.906  10.884  0.2102 -0.9600 -1.2769
  283ccc     H5 7635   8.816   9.149  10.781 -0.8682 -0.2604 -1.6928
  283ccc     O1 7636   8.908   9.216  10.609 -0.0199 -0.4682 -0.7654
  283ccc     O2 7637   8.800   8.933  10.634 -0.1074 -0.1642  0.2140
  283ccc     O3 7638   8.956   8.767  10.818 -0.1066  0.0885 -0.0413
  283ccc     O4 7639   9.166   8.921  10.870 -0.0591  0.2774  0.0892
  283ccc     C6 7640   9.161   9.190  11.004 -0.2575  0.1827  0.2917
  283ccc     H6 7641   8.881   8.728  10.771  0.4772 -0.1417 -0.7943
  283ccc     H7 7642   9.134   8.838  10.832 -2.3969  1.5303 -0.8244
  283ccc     H8 7643   8.801   8.837  10.649 -2.5270 -0.3644 -0.5995
  283ccc     H9 7644   9.172   9.176  11.113 -0.9809  0.5333  0.4156
  283ccc    H10 7645   9.147   9.297  10.990 -0.8950 -0.0668 -1.0858
  283ccc     O5 7646   9.279   9.144  10.930 -0.0355 -0.4402 -0.0038
  283ccc    H11 7647   9.244   9.056  10.906 -1.7136 -0.4151  2.0015
  283ccc     O6 7648   9.023   9.177  10.815  0.3086 -0.4068 -0.1787
  284ccc     C1 7649   8.722   8.920   9.801 -0.2663 -0.0453  0.4746
  284ccc     C2 7650   8.612   8.872   9.898 -0.3657 -0.2097  0.7895
  284ccc     H1 7651   8.788   8.837   9.776  1.9692  2.0038 -0.9177
  284ccc     H2 7652   8.556   8.792   9.848  0.8694  0.0822 -1.1902
  284ccc     C3 7653   8.687   8.809  10.018 -0.4464 -0.5816  0.1952
  284ccc     C4 7654   8.779   8.922  10.086 -0.1651 -0.3519  0.4250
  284ccc     C5 7655   8.881   8.984   9.984 -0.6053  0.3386 -0.4077
  284ccc     H3 7656   8.716   8.999  10.131 -0.7589 -1.1789  1.0225
  284ccc     H4 7657   8.755   8.734   9.977 -1.3662 -1.3141 -0.0242
  284ccc     H5 7658   8.963   8.913   9.964 -2.4513 -1.3946 -2.4747
  284ccc     O1 7659   8.945   9.098  10.049  0.4927  0.2369 -0.0836
  284ccc     O2 7660   8.853   8.853  10.187  0.6467 -0.4437 -0.0906
  284ccc     O3 7661   8.587   8.751  10.112  0.0779  0.1187 -0.1442
  284ccc     O4 7662   8.522   8.979   9.931  0.8006 -0.4648  0.0903
  284ccc     C6 7663   8.658   8.990   9.677 -0.1721  0.0979 -0.0639
  284ccc     H6 7664   8.618   8.736  10.203 -2.0927  0.5770  0.7331
  284ccc     H7 7665   8.439   8.930   9.944  0.1471  0.5285 -0.2089
  284ccc     H8 7666   8.883   8.922  10.249 -0.0399 -0.4555  0.2675
  284ccc     H9 7667   8.573   9.056   9.696 -0.6586 -0.5293 -0.0005
  284ccc    H10 7668   8.621   8.909   9.613  1.9143  0.0179 -1.2638
  284ccc     O5 7669   8.761   9.061   9.599  0.6578  0.2820 -0.7831
  284ccc    H11 7670   8.704   9.094   9.527 -0.8303 -0.5380 -0.0299
  284ccc     O6 7671   8.808   9.019   9.864 -0.3517  0.6096 -0.0769
  285ccc     C1 7672   9.924  10.812  10.150 -0.2159 -0.8227  0.3074
  285ccc     C2 7673   9.854  10.950  10.167 -0.0736  0.2664 -0.1675
  285ccc     H1 7674  10.026  10.812  10.110 -0.0311  0.0583  0.7592
  285ccc     H2 7675   9.917  11.028  10.210  2.5446 -0.1895 -2.8356
  285ccc     C3 7676   9.802  11.000  10.029 -0.7332  0.0381  0.1521
  285ccc     C4 7677   9.724  10.900   9.937 -0.4077  0.8746  0.3326
  285ccc     C5 7678   9.798  10.755   9.942  0.1002  0.2850  0.3366
  285ccc     H3 7679   9.629  10.878   9.987  0.8970 -1.4340  1.9891
  285ccc     H4 7680   9.890  11.041   9.979 -0.0868  0.3473  1.5027
  285ccc     H5 7681   9.890  10.753   9.882 -0.6654 -0.2006 -0.8379
  285ccc     O1 7682   9.710  10.645   9.891  0.1030 -0.4235 -0.2501
  285ccc     O2 7683   9.706  10.957   9.806  0.1638 -0.2806 -0.0845
  285ccc     O3 7684   9.716  11.117  10.038 -0.1465 -0.4206 -0.6238
  285ccc     O4 7685   9.741  10.931  10.250 -0.1832  0.1048 -0.1232
  285ccc     C6 7686   9.967  10.751  10.282 -0.4115  0.5262  0.0582
  285ccc     H6 7687   9.702  11.126  10.134 -0.1048 -1.5524 -0.5063
  285ccc     H7 7688   9.776  10.851  10.293  1.4152 -0.5770 -2.5000
  285ccc     H8 7689   9.627  10.913   9.770  0.0932  0.3905 -0.7773
  285ccc     H9 7690  10.037  10.822  10.327 -0.5154  2.1315 -2.1535
  285ccc    H10 7691  10.022  10.659  10.259 -2.1240 -1.2295  2.4841
  285ccc     O5 7692   9.848  10.719  10.359 -0.3067 -0.2705 -0.3488
  285ccc    H11 7693   9.871  10.665  10.436 -0.3314  0.8105  0.4345
  285ccc     O6 7694   9.834  10.725  10.082  0.1859  0.0516 -0.9702
  286ccc     C1 7695   9.826  10.168  10.563 -0.5816  0.2971  0.1229
  286ccc     C2 7696   9.846  10.058  10.674  0.1860 -0.0139  0.6712
  286ccc     H1 7697   9.781  10.251  10.619 -0.3387  0.6469 -0.1950
  286ccc     H2 7698   9.902  10.100  10.758 -1.3120  1.5955  0.9248
  286ccc     C3 7699   9.695  10.019  10.711 -0.3971 -0.3584  0.4643
  286ccc     C4 7700   9.611   9.985  10.584 -0.4060  0.3115 -0.0148
  286ccc     C5 7701   9.611  10.101  10.485 -0.3100 -0.3194 -0.0811
  286ccc     H3 7702   9.658   9.901  10.530 -1.0456 -0.0017 -0.0872
  286ccc     H4 7703   9.654  10.106  10.763 -0.3927  0.0678 -0.2334
  286ccc     H5 7704   9.583  10.194  10.536  2.4847  2.0400 -2.4823
  286ccc     O1 7705   9.529  10.068  10.368 -1.2548  0.5168 -0.3410
  286ccc     O2 7706   9.479   9.944  10.612 -0.4864  0.7880 -0.1681
  286ccc     O3 7707   9.708   9.915  10.801  0.2775 -0.6137  0.5104
  286ccc     O4 7708   9.907   9.948  10.612 -0.2962 -0.2913 -0.1238
  286ccc     C6 7709   9.968  10.206  10.519  0.6117  0.2359  0.3014
  286ccc     H6 7710   9.701   9.829  10.756 -2.7517  0.8793 -2.3290
  286ccc     H7 7711   9.924   9.883  10.683 -2.4495 -0.8567 -0.0404
  286ccc     H8 7712   9.417   9.962  10.541 -1.5591  0.7292  0.7266
  286ccc     H9 7713  10.007  10.139  10.442 -0.3187 -0.5104  0.4596
  286ccc    H10 7714  10.036  10.203  10.605  0.1025 -0.3255  0.6923
  286ccc     O5 7715   9.973  10.339  10.468  0.5935 -0.4092 -0.9365
  286ccc    H11 7716   9.904  10.337  10.399 -0.1763 -0.1151 -0.1985
  286ccc     O6 7717   9.749  10.126  10.449  0.5410 -0.0360 -0.0481
  287ccc     C1 7718  10.783  11.109   4.571  0.5904  0.4986  0.0355
  287ccc     C2 7719  10.736  11.129   4.424 -0.2912  0.0903 -0.0473
  287ccc     H1 7720  10.725  11.033   4.626 -1.3959  1.9260 -0.0078
  287ccc     H2 7721  10.743  11.037   4.364 -0.9636  0.2806 -0.4336
  287ccc     C3 7722  10.589  11.190   4.410 -0.3886  0.0670 -0.4021
  287ccc     C4 7723  10.569  11.306   4.512  0.0482 -0.3386 -0.4799
  287ccc     C5 7724  10.629  11.269   4.654  0.0767  0.1987  0.0322
  287ccc     H3 7725  10.628  11.390   4.474  0.0629  0.0320  0.3251
  287ccc     H4 7726  10.513  11.114   4.430  0.3413 -0.5024  0.2489
  287ccc     H5 7727  10.572  11.181   4.686  1.1257 -0.2654  0.7223
  287ccc     O1 7728  10.609  11.382   4.746  0.1173 -0.1323  0.2694
  287ccc     O2 7729  10.429  11.342   4.521 -0.4757 -0.0437 -0.2715
  287ccc     O3 7730  10.559  11.229   4.274 -0.1824 -0.3401  0.2851
  287ccc     O4 7731  10.833  11.228   4.378  0.0207  0.2382 -0.3986
  287ccc     C6 7732  10.929  11.049   4.585 -0.4037  0.0123 -0.6385
  287ccc     H6 7733  10.644  11.229   4.227  0.2863  0.1740  1.1096
  287ccc     H7 7734  10.909  11.214   4.438  0.4572 -1.0625 -1.2121
  287ccc     H8 7735  10.406  11.367   4.430  0.2027 -0.6405 -0.6179
  287ccc     H9 7736  10.945  10.949   4.542 -1.0270 -1.1999  1.7646
  287ccc    H10 7737  10.944  11.036   4.693 -0.5687  0.0629 -0.6102
  287ccc     O5 7738  11.030  11.136   4.530  0.0076  0.5631 -0.1629
  287ccc    H11 7739  11.113  11.098   4.565 -1.0112 -0.1841  1.6553
  287ccc     O6 7740  10.770  11.225   4.648  0.1727 -0.1791  0.5292
  288ccc     C1 7741  11.035  10.672   5.080 -0.1969 -0.0545  0.1151
  288ccc     C2 7742  11.126  10.604   5.188  0.5346 -0.1568 -0.0620
  288ccc     H1 7743  11.069  10.771   5.048 -0.4593 -0.0770 -0.2420
  288ccc     H2 7744  11.229  10.588   5.156  1.4321 -1.8498  3.2184
  288ccc     C3 7745  11.140  10.696   5.312  0.7188  0.0283  0.1320
  288ccc     C4 7746  10.997  10.708   5.372 -0.8842 -0.6153 -0.3980
  288ccc     C5 7747  10.898  10.773   5.267 -0.0102 -0.1949 -0.0008
  288ccc     H3 7748  10.972  10.605   5.401 -0.2124 -1.1784 -1.7139
  288ccc     H4 7749  11.173  10.795   5.281  1.7987 -0.3593  0.0043
  288ccc     H5 7750  10.923  10.875   5.235 -0.7458 -0.2344 -0.7356
  288ccc     O1 7751  10.765  10.759   5.323 -0.0397 -0.0978  0.1927
  288ccc     O2 7752  11.005  10.804   5.495  0.5066  0.3158  0.4437
  288ccc     O3 7753  11.230  10.635   5.407 -0.0572  0.5656 -0.1598
  288ccc     O4 7754  11.070  10.476   5.229  0.1865 -0.2528 -0.0591
  288ccc     C6 7755  11.019  10.576   4.964 -0.5371 -0.1632 -0.0332
  288ccc     H6 7756  11.241  10.701   5.478 -0.6418  1.2556 -0.6946
  288ccc     H7 7757  11.132  10.444   5.296 -2.1008 -1.4937  1.6135
  288ccc     H8 7758  10.917  10.808   5.536  0.4040  0.0422  0.2554
  288ccc     H9 7759  10.939  10.503   4.983 -1.8348  1.1574 -0.2299
  288ccc    H10 7760  11.108  10.512   4.956  0.2752  0.4113  3.0847
  288ccc     O5 7761  10.998  10.647   4.843 -0.2396 -0.1226  0.4852
  288ccc    H11 7762  10.955  10.572   4.798 -1.0163  0.2680  0.5565
  288ccc     O6 7763  10.906  10.686   5.146  0.2499 -0.3226 -0.5171
  289ccc     C1 7764   8.486  11.425   5.936 -0.2930 -0.1328  0.0451
  289ccc     C2 7765   8.462  11.436   5.785 -0.2218 -0.1399  0.3299
  289ccc     H1 7766   8.461  11.517   5.990 -0.4480  0.0765 -0.3761
  289ccc     H2 7767   8.354  11.445   5.768 -0.0572  1.8062  0.0288
  289ccc     C3 7768   8.540  11.560   5.733 -0.1942  0.0939 -0.2520
  289ccc     C4 7769   8.691  11.550   5.773  0.5387 -0.3130 -0.1442
  289ccc     C5 7770   8.712  11.514   5.927  0.4289 -0.6466 -0.4622
  289ccc     H3 7771   8.742  11.468   5.721  1.4979  0.2681 -0.1419
  289ccc     H4 7772   8.492  11.653   5.766  0.7571  0.9240 -1.1566
  289ccc     H5 7773   8.685  11.598   5.992  3.2859  1.2919 -1.5524
  289ccc     O1 7774   8.853  11.481   5.960 -0.5132  0.3640 -0.1686
  289ccc     O2 7775   8.749  11.677   5.742 -0.7556  0.8736 -0.1720
  289ccc     O3 7776   8.532  11.563   5.592  0.1257 -0.0641 -0.0038
  289ccc     O4 7777   8.510  11.327   5.715 -0.0671  0.7349  0.1224
  289ccc     C6 7778   8.412  11.308   6.005  0.6015  0.5196  0.2283
  289ccc     H6 7779   8.444  11.533   5.565  0.3895  1.0280 -2.3616
  289ccc     H7 7780   8.493  11.246   5.766 -1.7746  0.9751 -0.0312
  289ccc     H8 7781   8.836  11.688   5.784 -1.3153  0.3147  1.1921
  289ccc     H9 7782   8.304  11.315   5.982  0.6151  2.4830  0.5948
  289ccc    H10 7783   8.417  11.329   6.112 -0.6499  1.3459  0.1576
  289ccc     O5 7784   8.445  11.175   5.958 -0.2801 -0.4794  0.0654
  289ccc    H11 7785   8.531  11.168   6.003 -0.3414  1.3316  0.5393
  289ccc     O6 7786   8.630  11.406   5.965 -0.2221  0.4625 -0.2890
  290ccc     C1 7787   9.054  11.836   5.425 -0.0471 -1.1849 -0.1661
  290ccc     C2 7788   9.031  11.875   5.273  0.2934 -0.0285 -0.5093
  290ccc     H1 7789   9.154  11.878   5.440 -0.3403 -0.3258 -0.5442
  290ccc     H2 7790   9.064  11.978   5.254  1.3852 -0.1368  0.6886
  290ccc     C3 7791   9.102  11.776   5.177 -0.6769  0.1978 -0.3839
  290ccc     C4 7792   9.077  11.626   5.214 -0.7032 -0.8682 -0.0221
  290ccc     C5 7793   9.122  11.603   5.356  0.1409 -0.0332  0.5531
  290ccc     H3 7794   8.971  11.597   5.206 -1.1445  0.3618  0.9831
  290ccc     H4 7795   9.209  11.791   5.197 -0.8463  0.6181  0.2486
  290ccc     H5 7796   9.231  11.605   5.344  0.0336 -0.8358 -0.7285
  290ccc     O1 7797   9.085  11.467   5.387 -0.3571 -0.1557  0.6212
  290ccc     O2 7798   9.163  11.546   5.134 -0.3390 -0.1482 -0.2364
  290ccc     O3 7799   9.064  11.812   5.043 -0.4382 -0.3262  0.4924
  290ccc     O4 7800   8.888  11.877   5.259  0.1632 -0.0411  0.4836
  290ccc     C6 7801   8.965  11.911   5.532  0.3931  0.3602  0.2187
  290ccc     H6 7802   9.107  11.747   4.985 -1.4294  0.2185 -0.8991
  290ccc     H7 7803   8.847  11.896   5.346 -0.8709 -1.1868  0.2815
  290ccc     H8 7804   9.119  11.459   5.140 -0.3344 -0.1586 -0.3496
  290ccc     H9 7805   8.981  12.020   5.534 -0.7053  0.5126  0.9835
  290ccc    H10 7806   8.995  11.873   5.630  0.5179 -1.4959 -0.5087
  290ccc     O5 7807   8.834  11.878   5.502 -0.0628  0.0879  0.2479
  290ccc    H11 7808   8.778  11.948   5.540 -0.2542 -0.1932  0.4922
  290ccc     O6 7809   9.056  11.698   5.452 -0.0471 -0.1657  0.2890
  291ccc     C1 7810  10.160   8.943   6.695  0.1354  0.4948  0.3775
  291ccc     C2 7811  10.073   8.838   6.628  0.4177  0.3231  0.0257
  291ccc     H1 7812  10.110   8.956   6.792 -1.2873  0.3919 -0.3054
  291ccc     H2 7813  10.076   8.739   6.674 -1.3251  0.4242  0.4384
  291ccc     C3 7814   9.923   8.881   6.617 -0.5333  0.1986 -0.0847
  291ccc     C4 7815   9.906   9.020   6.552 -0.0386 -0.9105  0.1728
  291ccc     C5 7816  10.015   9.122   6.590  1.0309  0.0034  0.0994
  291ccc     H3 7817   9.926   9.015   6.444 -0.9513  2.3120 -0.2343
  291ccc     H4 7818   9.882   8.886   6.719  1.5863 -1.3920  0.9283
  291ccc     H5 7819   9.983   9.180   6.678  0.6108 -0.7879  0.4832
  291ccc     O1 7820  10.039   9.207   6.471 -0.8380 -0.0217  0.0413
  291ccc     O2 7821   9.771   9.061   6.576 -0.1492 -0.6004 -0.3263
  291ccc     O3 7822   9.853   8.783   6.546  0.5617 -0.4468  0.5242
  291ccc     O4 7823  10.133   8.829   6.494  0.3656 -0.1133 -0.0556
  291ccc     C6 7824  10.307   8.914   6.721  0.0676  0.4789  0.5956
  291ccc     H6 7825   9.769   8.776   6.594 -0.8549  0.8484 -1.5420
  291ccc     H7 7826  10.075   8.774   6.439  0.5511 -0.3093 -0.0553
  291ccc     H8 7827   9.739   9.083   6.487 -2.1597  0.4869  0.6012
  291ccc     H9 7828  10.367   8.938   6.632  0.3574 -1.1630  0.3016
  291ccc    H10 7829  10.321   8.810   6.755 -0.6711 -1.0453 -3.2344
  291ccc     O5 7830  10.347   9.000   6.827 -0.2179 -0.1869  0.3193
  291ccc    H11 7831  10.434   8.969   6.856 -0.5754 -0.4141  1.1782
  291ccc     O6 7832  10.146   9.064   6.611  0.0452 -0.1465 -0.1889
  292ccc     C1 7833  10.937   9.502   5.967 -0.5206 -0.2348  0.4619
  292ccc     C2 7834  10.929   9.519   5.815  0.3616  0.3930 -0.3886
  292ccc     H1 7835  11.003   9.421   5.998 -0.8061  0.2330  2.4107
  292ccc     H2 7836  11.029   9.542   5.776  1.2004 -0.5766  1.1108
  292ccc     C3 7837  10.880   9.387   5.749  0.0432 -0.2455  0.0145
  292ccc     C4 7838  10.738   9.351   5.809 -0.5918 -0.5037  0.8861
  292ccc     C5 7839  10.734   9.348   5.960  0.1113 -0.1138  0.0681
  292ccc     H3 7840  10.664   9.423   5.771 -0.5211 -0.4953  0.7666
  292ccc     H4 7841  10.949   9.305   5.773  0.3703  0.8406  3.2211
  292ccc     H5 7842  10.788   9.257   5.990 -1.3110 -0.4794  1.6998
  292ccc     O1 7843  10.591   9.351   6.010 -0.5020 -0.1888  0.4974
  292ccc     O2 7844  10.714   9.216   5.759  0.3200 -0.0042 -0.7696
  292ccc     O3 7845  10.867   9.415   5.603 -0.2299 -0.2699  0.0115
  292ccc     O4 7846  10.839   9.627   5.784  0.4911  0.0400  0.1395
  292ccc     C6 7847  11.005   9.623   6.041  0.2861  0.1781 -0.5137
  292ccc     H6 7848  10.864   9.328   5.559 -0.9417  1.1007 -2.8486
  292ccc     H7 7849  10.814   9.613   5.691 -2.8268 -0.5110  0.9705
  292ccc     H8 7850  10.734   9.214   5.664 -2.2988  0.1385 -1.3916
  292ccc     H9 7851  11.111   9.626   6.014  0.6105  0.1962  0.7428
  292ccc    H10 7852  11.005   9.611   6.150  2.7799 -3.1650 -0.7433
  292ccc     O5 7853  10.934   9.745   6.002 -0.1821 -0.5872 -0.2408
  292ccc    H11 7854  10.891   9.705   5.924  1.1896 -0.3015 -1.1752
  292ccc     O6 7855  10.807   9.469   6.009  0.3797 -0.1701 -0.1503
  293ccc     C1 7856   9.684   8.596   6.128 -0.1279  0.5947 -0.3900
  293ccc     C2 7857   9.789   8.643   6.228 -0.0530 -0.2773 -0.5737
  293ccc     H1 7858   9.732   8.535   6.050  0.6541  0.0331  0.5010
  293ccc     H2 7859   9.844   8.552   6.255 -1.1707 -1.4516 -2.0614
  293ccc     C3 7860   9.887   8.749   6.170  0.0685  0.0954  0.5031
  293ccc     C4 7861   9.799   8.868   6.116  0.0282  0.0991  0.3702
  293ccc     C5 7862   9.698   8.811   6.014 -0.1126  0.4898 -0.4009
  293ccc     H3 7863   9.750   8.911   6.204 -0.7712 -0.0460  0.0072
  293ccc     H4 7864   9.937   8.708   6.082  2.5436  0.5226  1.6413
  293ccc     H5 7865   9.755   8.778   5.927  0.5911 -0.1326  0.2841
  293ccc     O1 7866   9.610   8.919   5.968 -0.3912  0.1786  0.2925
  293ccc     O2 7867   9.891   8.965   6.054  0.2399 -0.2932  0.0543
  293ccc     O3 7868   9.989   8.799   6.259 -0.0847  0.3537  0.0594
  293ccc     O4 7869   9.718   8.696   6.334 -0.1816 -0.5215 -0.1663
  293ccc     C6 7870   9.584   8.491   6.190 -0.2773 -0.1029  0.5218
  293ccc     H6 7871  10.077   8.779   6.223 -0.0817  0.5550 -0.0465
  293ccc     H7 7872   9.785   8.726   6.398  0.6764 -3.0528  0.2495
  293ccc     H8 7873   9.949   8.984   6.130  0.7490  0.8766 -0.5998
  293ccc     H9 7874   9.633   8.410   6.245 -1.1285 -1.4826 -0.6719
  293ccc    H10 7875   9.531   8.446   6.105  2.1718 -3.7812  0.6900
  293ccc     O5 7876   9.501   8.559   6.281 -0.3582  0.4749  0.4754
  293ccc    H11 7877   9.563   8.629   6.309  1.0474 -0.2321 -0.7745
  293ccc     O6 7878   9.616   8.708   6.072 -0.2173 -0.4003 -0.4442
  294ccc     C1 7879   8.609   9.362   5.674 -0.3217 -0.6912 -0.0236
  294ccc     C2 7880   8.541   9.503   5.661 -0.9756  0.1150 -0.4987
  294ccc     H1 7881   8.572   9.315   5.766 -0.1228  1.2909  1.1398
  294ccc     H2 7882   8.432   9.492   5.656 -0.9710 -1.1887  1.3043
  294ccc     C3 7883   8.573   9.589   5.788 -0.2003 -0.2510  0.0273
  294ccc     C4 7884   8.729   9.597   5.809 -0.3273  0.4964  0.4004
  294ccc     C5 7885   8.794   9.455   5.804  0.2222  0.3545  0.4515
  294ccc     H3 7886   8.774   9.648   5.723  0.7095  0.6531  1.0275
  294ccc     H4 7887   8.542   9.537   5.879  0.5583 -0.8446 -0.0462
  294ccc     H5 7888   8.749   9.406   5.892  0.7962  0.9001  1.0640
  294ccc     O1 7889   8.939   9.470   5.814  0.5374 -0.1786  0.0613
  294ccc     O2 7890   8.762   9.663   5.934  0.5675  0.4706  0.1160
  294ccc     O3 7891   8.516   9.719   5.783  0.1273 -0.2124 -0.1960
  294ccc     O4 7892   8.593   9.561   5.547 -0.2435 -0.7794 -0.2756
  294ccc     C6 7893   8.580   9.262   5.559 -0.0745 -0.3587 -0.1911
  294ccc     H6 7894   8.478   9.733   5.695  1.4042  0.5984 -0.6385
  294ccc     H7 7895   8.611   9.487   5.487  1.8516 -0.4371 -0.1464
  294ccc     H8 7896   8.858   9.680   5.928  0.4423  0.8452 -1.0797
  294ccc     H9 7897   8.474   9.233   5.561  0.0798 -0.9900 -0.8089
  294ccc    H10 7898   8.641   9.172   5.572 -1.6655 -1.4336  0.0626
  294ccc     O5 7899   8.614   9.327   5.438  0.3910 -0.1214 -0.1227
  294ccc    H11 7900   8.590   9.269   5.364 -0.4231  1.5372 -1.2142
  294ccc     O6 7901   8.748   9.374   5.694  0.0635 -0.3552 -0.1593
  295ccc     C1 7902   8.485  10.672   7.356  0.4283  0.6655 -0.9758
  295ccc     C2 7903   8.369  10.750   7.427 -0.0453 -0.2496 -0.0003
  295ccc     H1 7904   8.520  10.612   7.442 -3.4952 -0.5267  0.0107
  295ccc     H2 7905   8.298  10.681   7.475  0.5094 -0.0314  1.1643
  295ccc     C3 7906   8.421  10.845   7.539 -0.1495  0.2558  0.8435
  295ccc     C4 7907   8.541  10.936   7.491 -0.1792 -0.1514 -0.9275
  295ccc     C5 7908   8.645  10.840   7.419 -0.6346  0.8630  0.6167
  295ccc     H3 7909   8.510  11.011   7.417 -0.6064  0.4753 -0.1207
  295ccc     H4 7910   8.459  10.785   7.622 -2.0221 -1.2390  0.6760
  295ccc     H5 7911   8.680  10.771   7.497 -1.3210 -1.7816 -1.2621
  295ccc     O1 7912   8.757  10.917   7.373 -0.5348  0.0962  0.0983
  295ccc     O2 7913   8.600  11.000   7.606 -0.4047 -0.1539 -0.1459
  295ccc     O3 7914   8.316  10.930   7.591 -0.7311  0.1056  0.3723
  295ccc     O4 7915   8.298  10.818   7.320 -0.3827  0.1345  0.6595
  295ccc     C6 7916   8.436  10.574   7.248 -0.2036  1.1397 -0.3867
  295ccc     H6 7917   8.240  10.874   7.615 -0.4136 -0.6641 -0.3744
  295ccc     H7 7918   8.238  10.877   7.369 -0.3588  0.1828  0.6319
  295ccc     H8 7919   8.548  11.074   7.642 -0.2082 -0.3194  0.4974
  295ccc     H9 7920   8.345  10.523   7.283 -0.4846  2.1619  0.4120
  295ccc    H10 7921   8.514  10.501   7.223 -0.6862 -0.1350  1.5968
  295ccc     O5 7922   8.406  10.660   7.144 -0.6275 -0.3494 -0.0902
  295ccc    H11 7923   8.379  10.735   7.200  0.6934 -0.8356  1.2548
  295ccc     O6 7924   8.591  10.755   7.313 -0.2603  0.6399 -0.4473
  296ccc     C1 7925   9.362  11.262   6.531 -0.6194  0.2735  0.2015
  296ccc     C2 7926   9.263  11.297   6.417  1.1257 -0.5228 -0.0373
  296ccc     H1 7927   9.413  11.165   6.530 -2.1693 -0.5683 -0.1043
  296ccc     H2 7928   9.309  11.274   6.320  1.3903  1.5612 -0.4419
  296ccc     C3 7929   9.147  11.198   6.424  0.2494 -0.3498  0.0844
  296ccc     C4 7930   9.077  11.196   6.563 -0.4670  0.1170 -0.3692
  296ccc     C5 7931   9.179  11.194   6.680  0.3818 -0.5802 -0.2019
  296ccc     H3 7932   9.012  11.282   6.582 -1.9016 -1.5383  2.9315
  296ccc     H4 7933   9.190  11.097   6.416 -1.2911 -1.1027  0.9049
  296ccc     H5 7934   9.232  11.098   6.686  1.0076 -0.1915  0.6728
  296ccc     O1 7935   9.104  11.221   6.800 -0.2742 -0.3889 -0.2254
  296ccc     O2 7936   8.993  11.080   6.571  0.4332 -0.5357 -0.1574
  296ccc     O3 7937   9.052  11.212   6.319  0.4717 -0.1636 -0.4237
  296ccc     O4 7938   9.222  11.432   6.426 -0.2675 -0.2851  0.5274
  296ccc     C6 7939   9.487  11.353   6.547  0.1671 -0.2031 -0.5254
  296ccc     H6 7940   9.018  11.303   6.320  0.1241 -0.3013  0.1019
  296ccc     H7 7941   9.288  11.462   6.491  0.9053  0.2140 -0.8263
  296ccc     H8 7942   8.918  11.104   6.513  0.4846  1.5484  0.5418
  296ccc     H9 7943   9.572  11.326   6.483  0.3452  0.2155 -0.4689
  296ccc    H10 7944   9.534  11.347   6.646  1.6946  1.6102 -1.0871
  296ccc     O5 7945   9.448  11.491   6.531  0.3288  0.0315 -0.1550
  296ccc    H11 7946   9.519  11.539   6.576 -1.3379  1.7161  0.8184
  296ccc     O6 7947   9.289  11.289   6.649  0.2424 -0.0061 -0.2036
  297ccc     C1 7948  10.232  11.711   7.477 -0.1488  0.0901  0.5399
  297ccc     C2 7949  10.343  11.813   7.478  0.6195  0.2231 -0.3322
  297ccc     H1 7950  10.258  11.626   7.542 -1.1645 -0.4361  0.2868
  297ccc     H2 7951  10.350  11.856   7.578  3.3218  1.2011 -0.8355
  297ccc     C3 7952  10.479  11.744   7.438  0.5859  0.2441  0.0471
  297ccc     C4 7953  10.459  11.663   7.302  0.4703 -0.5974  0.6255
  297ccc     C5 7954  10.323  11.587   7.295  0.1974 -0.2232 -0.0385
  297ccc     H3 7955  10.462  11.741   7.225 -0.9463 -0.3928  0.7474
  297ccc     H4 7956  10.503  11.666   7.511  0.1459 -2.2888 -2.3446
  297ccc     H5 7957  10.328  11.504   7.366  1.6205  0.8520  1.1842
  297ccc     O1 7958  10.305  11.564   7.151 -0.3374  0.3556 -0.3849
  297ccc     O2 7959  10.571  11.576   7.286 -0.1789 -0.0633 -0.6557
  297ccc     O3 7960  10.588  11.840   7.436 -0.4553 -0.3976  0.0480
  297ccc     O4 7961  10.294  11.919   7.390 -0.4157 -0.3014 -0.3360
  297ccc     C6 7962  10.096  11.752   7.545 -0.6092 -0.1468  1.0083
  297ccc     H6 7963  10.603  11.850   7.532 -1.1576  0.1483  0.1108
  297ccc     H7 7964  10.200  11.895   7.378 -0.0442 -2.0816  0.0066
  297ccc     H8 7965  10.595  11.590   7.193 -1.6506  0.9727 -0.9112
  297ccc     H9 7966  10.117  11.795   7.644 -1.0486  0.5527  0.8011
  297ccc    H10 7967  10.042  11.659   7.567 -0.8170  0.4384  3.2081
  297ccc     O5 7968  10.020  11.850   7.463  0.5243 -0.4096 -0.8932
  297ccc    H11 7969   9.953  11.882   7.526  1.5053 -0.7578  0.3458
  297ccc     O6 7970  10.210  11.657   7.339 -0.2317 -0.3519 -0.4067
  298ccc     C1 7971  10.839  11.705   6.957 -1.0859  0.0802 -0.1923
  298ccc     C2 7972  11.035  11.846   6.821 -0.4311  0.1058 -0.5244
  298ccc     H1 7973  10.874  11.624   7.022 -1.5846  3.2360  4.4560
  298ccc     H2 7974  11.141  11.820   6.831 -0.1526  1.2376 -0.3969
  298ccc     C3 7975  11.032  11.807   6.640  0.3254  0.0047 -0.0319
  298ccc     C4 7976  10.911  11.695   6.570  0.5637  0.6429  0.6998
  298ccc     C5 7977  10.793  11.588   6.664 -0.1749 -0.3499  0.4084
  298ccc     H3 7978  10.839  11.765   6.528  2.6426  0.6933 -3.3159
  298ccc     H4 7979  11.128  11.760   6.616  0.6064  0.0158  1.0188
  298ccc     H5 7980  10.832  11.485   6.663 -1.0795 -0.7903 -3.2823
  298ccc     O1 7981  10.668  11.579   6.582 -0.4375  0.4258 -0.0803
  298ccc     O2 7982  10.963  11.623   6.450  0.6099 -0.3878  0.6405
  298ccc     O3 7983  11.036  11.932   6.566 -0.3035  0.5107  0.3312
  298ccc     O4 7984  11.059  11.987   6.820  0.0185 -0.6049  0.1847
  298ccc     C6 7985  10.718  11.730   7.055 -0.8437  0.1681  0.1708
  298ccc     H6 7986  11.058  11.906   6.475 -0.2744 -0.6144  0.6481
  298ccc     H7 7987  11.055  12.006   6.724 -2.4253 -1.0521  0.1186
  298ccc     H8 7988  10.918  11.666   6.376  1.1875 -0.1351  0.4303
  298ccc     H9 7989  10.653  11.818   7.049  0.0074  0.7525 -1.0551
  298ccc    H10 7990  10.755  11.727   7.158  1.0825  1.1109 -0.4431
  298ccc     O5 7991  10.642  11.609   7.042 -0.0554 -0.1367  0.1832
  298ccc    H11 7992  10.666  11.588   6.950  0.6144  1.3588  0.0006
  298ccc     O6 7993  10.750  11.612   6.827  0.3941  0.1342 -0.3008
  299ccc     C1 7994  10.671   9.940   5.542  0.3894 -0.4931  0.6897
  299ccc     C2 7995  10.673   9.979   5.392 -0.4626  0.0703 -0.4114
  299ccc     H1 7996  10.620  10.024   5.592  1.0417  0.0356  0.4809
  299ccc     H2 7997  10.570   9.973   5.353 -0.2093 -0.1498 -1.0709
  299ccc     C3 7998  10.756  10.109   5.366  0.9040 -0.7244  0.0703
  299ccc     C4 7999  10.892  10.124   5.448  0.3203 -0.2650  0.0306
  299ccc     C5 8000  10.878  10.074   5.594  0.2037  0.1387 -0.2535
  299ccc     H3 8001  10.967  10.057   5.404  0.3334 -0.1571 -0.1113
  299ccc     H4 8002  10.697  10.196   5.397 -0.4308 -0.6013 -2.5481
  299ccc     H5 8003  10.817  10.141   5.656 -0.4529  1.7823 -2.5477
  299ccc     O1 8004  11.011  10.067   5.656 -0.0109  0.0688 -0.0367
  299ccc     O2 8005  10.935  10.260   5.445  0.0557  0.7359  0.0880
  299ccc     O3 8006  10.773  10.133   5.221 -0.0258  0.5399 -0.3011
  299ccc     O4 8007  10.744   9.867   5.330  0.3845 -0.1450 -0.8892
  299ccc     C6 8008  10.594   9.811   5.578 -0.1117 -0.0205 -0.4875
  299ccc     H6 8009  10.799  10.227   5.225  3.8366 -0.3237 -1.5570
  299ccc     H7 8010  10.745   9.797   5.396  4.4191  1.9098  1.5823
  299ccc     H8 8011  10.980  10.269   5.360  1.6887  1.3540  0.9779
  299ccc     H9 8012  10.489   9.831   5.555 -0.6001 -3.4778 -1.9320
  299ccc    H10 8013  10.595   9.792   5.686 -0.1996 -0.5179 -0.5720
  299ccc     O5 8014  10.650   9.698   5.512  0.6483  0.1116  0.3689
  299ccc    H11 8015  10.591   9.626   5.541 -0.5056  1.0073  0.2926
  299ccc     O6 8016  10.814   9.944   5.592  0.7347  0.1868  0.2150
  300ccc     C1 8017  11.163  10.598   5.926 -0.6085  0.9223 -0.0515
  300ccc     C2 8018  11.158  10.686   5.802 -0.2338  0.4580  0.2070
  300ccc     H1 8019  11.209  10.645   6.014  0.0747 -0.7386  0.5141
  300ccc     H2 8020  11.105  10.778   5.830 -1.1416 -0.8752  3.2427
  300ccc     C3 8021  11.301  10.713   5.741  0.7908 -0.1957 -0.4294
  300ccc     C4 8022  11.379  10.583   5.728 -0.5167  0.3167 -0.2105
  300ccc     C5 8023  11.372  10.495   5.857 -0.4436  0.1371  0.9575
  300ccc     H3 8024  11.325  10.525   5.652 -0.4602 -0.0419  0.0222
  300ccc     H4 8025  11.354  10.780   5.810 -2.3683 -0.5154  2.5652
  300ccc     H5 8026  11.437  10.542   5.932 -0.1493  3.1368 -1.0347
  300ccc     O1 8027  11.432  10.364   5.829 -0.3935 -0.0145 -0.2730
  300ccc     O2 8028  11.515  10.604   5.676  0.2182  0.1779  0.0448
  300ccc     O3 8029  11.289  10.787   5.614 -0.1641 -0.2253  0.0257
  300ccc     O4 8030  11.092  10.625   5.697 -0.1255  0.0586  0.4292
  300ccc     C6 8031  11.018  10.560   5.969 -0.0214 -0.3004 -0.1620
  300ccc     H6 8032  11.345  10.866   5.629 -0.4011  0.1515 -1.0115
  300ccc     H7 8033  11.078  10.693   5.628  1.6923 -0.1104 -0.1412
  300ccc     H8 8034  11.511  10.562   5.588 -1.6977  2.1917 -0.9169
  300ccc     H9 8035  10.956  10.525   5.886 -0.0103  0.8520 -0.6641
  300ccc    H10 8036  10.973  10.651   6.010 -0.6505 -0.4424 -0.5298
  300ccc     O5 8037  11.031  10.478   6.079 -0.2607 -0.3909 -0.0243
  300ccc    H11 8038  11.034  10.389   6.039  1.7898 -0.4113  0.0757
  300ccc     O6 8039  11.238  10.478   5.897  0.4359 -0.5229 -0.4725
  301ccc     C1 8040  10.728  11.221   7.077  0.5640 -0.2886  0.1426
  301ccc     C2 8041  10.839  11.318   7.120 -0.4069  0.1949 -0.0970
  301ccc     H1 8042  10.639  11.238   7.138 -1.6476 -1.0285 -2.6420
  301ccc     H2 8043  10.803  11.418   7.145  0.6879  0.9854 -1.5210
  301ccc     C3 8044  10.892  11.274   7.259  0.0753 -0.5787 -0.3283
  301ccc     C4 8045  10.926  11.128   7.264  0.0835  0.8303 -0.8041
  301ccc     C5 8046  10.799  11.048   7.228  0.0837  0.4836 -0.2448
  301ccc     H3 8047  11.004  11.115   7.189 -0.6936  0.8845 -1.6357
  301ccc     H4 8048  10.809  11.294   7.328  1.4026  0.7225  0.9978
  301ccc     H5 8049  10.720  11.060   7.302  0.8171  0.4217  0.5602
  301ccc     O1 8050  10.847  10.908   7.223 -0.3406 -0.0512 -0.2315
  301ccc     O2 8051  10.979  11.095   7.392  0.3727  0.4111 -0.1094
  301ccc     O3 8052  11.003  11.358   7.308  0.0786  0.0721 -0.1715
  301ccc     O4 8053  10.941  11.320   7.027 -0.3450  0.3513  0.1831
  301ccc     C6 8054  10.668  11.251   6.939 -0.0304 -0.3914  1.1206
  301ccc     H6 8055  11.081  11.343   7.251  1.9753 -0.4437  2.3936
  301ccc     H7 8056  10.996  11.397   7.049  0.1246  0.5018 -1.4058
  301ccc     H8 8057  10.967  11.002   7.416 -0.7452  0.9360  1.5229
  301ccc     H9 8058  10.619  11.348   6.948  0.1309 -0.3668  1.7243
  301ccc    H10 8059  10.589  11.178   6.915  0.0846 -0.5223  1.1370
  301ccc     O5 8060  10.770  11.242   6.841  0.2378 -0.1474  0.4972
  301ccc    H11 8061  10.844  11.262   6.902  1.9486 -0.6386 -1.3113
  301ccc     O6 8062  10.763  11.080   7.088 -0.3517  0.2755 -0.2394
  302ccc     C1 8063  11.467  10.157   7.320 -0.6580  0.5180 -0.6575
  302ccc     C2 8064  11.559  10.069   7.407 -0.4339  0.3866 -0.0961
  302ccc     H1 8065  11.517  10.251   7.295 -1.4710  0.4352 -2.8256
  302ccc     H2 8066  11.646  10.042   7.346 -1.3596 -2.2724 -0.3589
  302ccc     C3 8067  11.595  10.138   7.542 -0.2316  0.4257 -0.2696
  302ccc     C4 8068  11.482  10.205   7.619 -0.7361  0.1248  0.2072
  302ccc     C5 8069  11.380  10.275   7.518  0.8926  0.8396 -0.7701
  302ccc     H3 8070  11.421  10.131   7.672 -0.7597  0.0740  0.1098
  302ccc     H4 8071  11.662  10.223   7.524  1.4717 -0.5325  1.1233
  302ccc     H5 8072  11.420  10.370   7.481  1.6847  0.9047  0.2046
  302ccc     O1 8073  11.250  10.305   7.582 -0.0637 -0.0579 -0.0357
  302ccc     O2 8074  11.538  10.305   7.706  0.0352  0.3383 -0.3000
  302ccc     O3 8075  11.685  10.049   7.624 -1.0224 -0.6424 -0.4718
  302ccc     O4 8076  11.497   9.944   7.432  0.9257 -0.1937 -0.1108
  302ccc     C6 8077  11.426  10.094   7.188  0.1245  0.0018  0.0187
  302ccc     H6 8078  11.643   9.961   7.616 -2.7198  0.0973 -0.1924
  302ccc     H7 8079  11.454   9.931   7.346  0.0306  0.2754  0.2511
  302ccc     H8 8080  11.590  10.250   7.767 -0.4526  1.1769  0.9158
  302ccc     H9 8081  11.519  10.096   7.129 -0.2870  2.4223 -0.6528
  302ccc    H10 8082  11.363  10.165   7.133  1.4328  1.2384  0.0648
  302ccc     O5 8083  11.375   9.956   7.196 -0.3735 -0.2328 -0.0288
  302ccc    H11 8084  11.358   9.930   7.103 -0.4044  1.7733 -0.6237
  302ccc     O6 8085  11.354  10.199   7.394  0.0314  0.3901  0.5911
  303ccc     C1 8086   7.599  11.993   8.262 -0.2447  0.1456 -0.2342
  303ccc     C2 8087   7.615  11.839   8.275  1.1283 -0.2063  0.1484
  303ccc     H1 8088   7.509  12.029   8.314  0.2379 -0.1628  0.8213
  303ccc     H2 8089   7.604  11.815   8.382 -1.9051 -1.9664 -0.4395
  303ccc     C3 8090   7.487  11.772   8.211 -0.5897  0.3717  0.4786
  303ccc     C4 8091   7.478  11.819   8.064  0.3219 -0.7537 -0.2345
  303ccc     C5 8092   7.473  11.975   8.063 -0.6275  0.1975 -0.1174
  303ccc     H3 8093   7.568  11.786   8.011  1.3417 -0.3072  1.1384
  303ccc     H4 8094   7.403  11.819   8.265 -0.4890 -0.6551  1.5506
  303ccc     H5 8095   7.393  12.023   8.120  0.0671  0.9995  0.1995
  303ccc     O1 8096   7.466  12.016   7.924 -0.4766 -0.4043 -0.7060
  303ccc     O2 8097   7.354  11.767   8.001  0.0758  0.5580 -0.0014
  303ccc     O3 8098   7.487  11.630   8.238 -0.6860 -0.6213  0.3270
  303ccc     O4 8099   7.742  11.807   8.229 -0.1989 -0.3781 -0.4497
  303ccc     C6 8100   7.708  12.080   8.329 -0.4136  0.3813 -0.4453
  303ccc     H6 8101   7.408  11.592   8.197 -0.6570 -1.6546  1.1684
  303ccc     H7 8102   7.758  11.720   8.269  0.1682 -0.6070 -1.0739
  303ccc     H8 8103   7.367  11.773   7.905  0.5552  0.1874  0.0354
  303ccc     H9 8104   7.691  12.056   8.435  0.6990  1.5980  0.0331
  303ccc    H10 8105   7.691  12.188   8.322  0.1101  0.3535 -2.6353
  303ccc     O5 8106   7.827  12.038   8.279  0.0297 -0.0677  0.0072
  303ccc    H11 8107   7.799  11.953   8.241  2.1003 -0.6610 -0.3351
  303ccc     O6 8108   7.591  12.023   8.125 -0.6064 -0.2950  0.1722
  304ccc     C1 8109   7.512  13.050   7.952  0.1743 -0.5494  0.1549
  304ccc     C2 8110   7.570  13.192   7.904  1.4136 -0.1695 -0.6176
  304ccc     H1 8111   7.596  13.000   8.002  2.2752  1.5999 -1.0572
  304ccc     H2 8112   7.615  13.244   7.989 -1.7994 -0.9915  1.7955
  304ccc     C3 8113   7.679  13.163   7.798  0.4470 -1.2286 -0.0021
  304ccc     C4 8114   7.645  13.066   7.684  0.4912  0.9813 -0.0869
  304ccc     C5 8115   7.572  12.937   7.742 -0.2856  0.2973  0.1468
  304ccc     H3 8116   7.559  13.101   7.625  1.7868  2.5480 -1.1346
  304ccc     H4 8117   7.769  13.129   7.851  1.2532  0.8092  0.0542
  304ccc     H5 8118   7.651  12.889   7.801 -0.6398  2.3370  2.4443
  304ccc     O1 8119   7.526  12.854   7.632  0.0496 -0.1889 -0.6024
  304ccc     O2 8120   7.761  13.042   7.600 -0.5518 -0.4031 -0.3710
  304ccc     O3 8121   7.725  13.288   7.743 -0.4263  0.4429  0.2443
  304ccc     O4 8122   7.459  13.264   7.851  0.5028  0.2860  0.7661
  304ccc     C6 8123   7.392  13.061   8.055 -0.5225  1.0054  0.1681
  304ccc     H6 8124   7.643  13.337   7.731 -2.1317 -2.5457 -1.6765
  304ccc     H7 8125   7.385  13.222   7.897 -0.7732  1.3921 -0.1675
  304ccc     H8 8126   7.791  13.131   7.574 -1.0953 -0.8345 -2.6809
  304ccc     H9 8127   7.437  13.112   8.141 -1.4150 -0.0907  1.3398
  304ccc    H10 8128   7.367  12.958   8.083  2.3114  0.3431  0.5310
  304ccc     O5 8129   7.280  13.122   7.993 -0.0184 -0.2963  0.7825
  304ccc    H11 8130   7.221  13.046   7.976 -1.1466  0.7706 -0.2105
  304ccc     O6 8131   7.467  12.969   7.839  0.4848 -0.1079  0.4246
  305ccc     C1 8132   7.794  10.787   7.918 -0.1068  0.1990 -0.6038
  305ccc     C2 8133   7.661  10.714   7.885 -0.0836  0.3438 -0.1276
  305ccc     H1 8134   7.764  10.869   7.984 -1.9642  0.5871 -1.8521
  305ccc     H2 8135   7.601  10.702   7.976 -0.9476  2.2889 -0.3830
  305ccc     C3 8136   7.567  10.785   7.782  0.1439 -0.0264 -0.4800
  305ccc     C4 8137   7.649  10.846   7.672 -0.4807  0.4578  0.4213
  305ccc     C5 8138   7.771  10.929   7.720  0.2995  0.6614  0.1107
  305ccc     H3 8139   7.691  10.761   7.617  1.0087  1.9235 -0.8191
  305ccc     H4 8140   7.508  10.860   7.836 -0.8458 -0.8450 -0.3905
  305ccc     H5 8141   7.737  11.008   7.789  0.2498 -1.6124  2.9043
  305ccc     O1 8142   7.853  10.980   7.607 -0.3544  0.2212  0.3452
  305ccc     O2 8143   7.558  10.910   7.585  0.5469  0.1231 -0.3987
  305ccc     O3 8144   7.472  10.682   7.734  0.0263  0.2887 -0.0672
  305ccc     O4 8145   7.683  10.583   7.830  0.0615 -0.0749  0.0655
  305ccc     C6 8146   7.909  10.705   7.981  1.0519 -0.2207 -0.0397
  305ccc     H6 8147   7.422  10.707   7.655 -1.4360 -4.0136 -0.7647
  305ccc     H7 8148   7.598  10.584   7.782 -0.4367 -0.2307  0.9325
  305ccc     H8 8149   7.609  10.925   7.503 -0.1479 -0.6895 -0.9982
  305ccc     H9 8150   7.887  10.680   8.086  0.4636  0.1481 -0.0690
  305ccc    H10 8151   8.004  10.759   7.985  0.8714  0.1550 -0.7489
  305ccc     O5 8152   7.928  10.582   7.908 -0.1005 -0.1611  0.1930
  305ccc    H11 8153   7.842  10.583   7.863 -0.0984  0.3147  0.1857
  305ccc     O6 8154   7.855  10.843   7.797  0.3856  0.1286  0.0248
  306ccc     C1 8155   8.026  10.718   8.412 -0.3233  0.9826 -0.0270
  306ccc     C2 8156   7.884  10.673   8.435  0.4298  0.1898  0.0554
  306ccc     H1 8157   8.066  10.781   8.492  2.9962 -0.4180 -0.4180
  306ccc     H2 8158   7.889  10.630   8.536 -0.0165  1.6213  0.7007
  306ccc     C3 8159   7.791  10.797   8.430  0.2098 -0.8347 -0.7823
  306ccc     C4 8160   7.806  10.875   8.300 -0.1986 -0.3679  0.1738
  306ccc     C5 8161   7.955  10.912   8.294 -0.6070 -1.5210 -0.3783
  306ccc     H3 8162   7.783  10.797   8.226 -0.5228  0.0143 -0.1361
  306ccc     H4 8163   7.813  10.867   8.511 -0.8661  0.2224 -1.3651
  306ccc     H5 8164   7.985  10.973   8.380 -0.3491 -0.2525 -1.3412
  306ccc     O1 8165   7.980  10.991   8.171  0.1537 -0.1509 -0.3445
  306ccc     O2 8166   7.729  10.997   8.290 -0.3407  0.0689 -0.0989
  306ccc     O3 8167   7.649  10.770   8.456  0.3331 -0.8519  0.7408
  306ccc     O4 8168   7.846  10.582   8.343  1.0155  0.7931  0.2468
  306ccc     C6 8169   8.122  10.596   8.405 -0.7558 -0.9625 -0.5217
  306ccc     H6 8170   7.647  10.736   8.547  0.2786  0.9736  1.4815
  306ccc     H7 8171   7.930  10.543   8.315  0.9810 -0.8030  2.1551
  306ccc     H8 8172   7.761  11.051   8.215  0.7296  1.6052  1.3883
  306ccc     H9 8173   8.116  10.534   8.495  0.1355 -0.4272 -0.0934
  306ccc    H10 8174   8.224  10.630   8.385 -0.3753 -0.9249  1.3655
  306ccc     O5 8175   8.090  10.518   8.295 -1.2159 -0.1835  0.1880
  306ccc    H11 8176   8.157  10.525   8.225  2.4837 -3.0666  3.0453
  306ccc     O6 8177   8.042  10.796   8.292 -0.4298 -0.3201  0.5077
  307ccc     C1 8178   8.364  11.977   5.703 -0.3318  0.3305  0.6320
  307ccc     C2 8179   8.495  11.997   5.618 -0.5542  0.0610  0.2155
  307ccc     H1 8180   8.326  12.077   5.728  0.9566  0.7409  1.0438
  307ccc     H2 8181   8.474  12.050   5.524  0.0559  0.2600  0.1848
  307ccc     C3 8182   8.602  12.070   5.706 -0.3617  0.6456  0.4066
  307ccc     C4 8183   8.622  11.999   5.843  0.6272  0.3850 -0.2270
  307ccc     C5 8184   8.486  11.981   5.915  0.1345  0.4327  0.1153
  307ccc     H3 8185   8.647  11.892   5.838 -0.7696  0.0375 -0.3676
  307ccc     H4 8186   8.569  12.171   5.732 -0.9163  0.6564 -0.3064
  307ccc     H5 8187   8.441  12.078   5.940 -1.7151 -0.6906  1.4230
  307ccc     O1 8188   8.498  11.909   6.042  0.7873 -0.0899 -0.1996
  307ccc     O2 8189   8.713  12.083   5.919 -0.4465 -0.0461 -1.0068
  307ccc     O3 8190   8.732  12.076   5.637  0.2424 -0.1860 -0.2217
  307ccc     O4 8191   8.535  11.862   5.584 -0.1005 -0.8185  0.1583
  307ccc     C6 8192   8.257  11.892   5.625  0.1573 -0.1142  0.3428
  307ccc     H6 8193   8.780  12.140   5.691  1.2370  0.6506 -2.0338
  307ccc     H7 8194   8.456  11.809   5.603 -0.1333 -0.9442 -0.3115
  307ccc     H8 8195   8.804  12.048   5.911 -0.0357  0.7832 -0.1092
  307ccc     H9 8196   8.248  11.925   5.521 -0.6583 -3.0256 -0.6097
  307ccc    H10 8197   8.159  11.904   5.673  1.1801  0.9532  2.2900
  307ccc     O5 8198   8.292  11.752   5.627  0.2189 -0.5795 -0.1002
  307ccc    H11 8199   8.225  11.713   5.567 -0.6388 -2.2652  1.8121
  307ccc     O6 8200   8.394  11.909   5.830  0.1558 -0.6800 -0.9037
  308ccc     C1 8201   8.233  12.491   6.087  0.6935  0.2983  0.3102
  308ccc     C2 8202   8.281  12.599   5.993 -0.2158 -0.5332 -0.0240
  308ccc     H1 8203   8.327  12.454   6.131  0.7217 -0.7932 -0.6287
  308ccc     H2 8204   8.337  12.674   6.050 -1.3187  0.6467 -0.4608
  308ccc     C3 8205   8.369  12.525   5.893  0.5636  0.0036 -0.0673
  308ccc     C4 8206   8.309  12.405   5.823  0.4234  0.4733  0.6539
  308ccc     C5 8207   8.231  12.311   5.914  0.0131 -0.4020  0.1241
  308ccc     H3 8208   8.239  12.453   5.753  0.9322  0.4735  0.1433
  308ccc     H4 8209   8.456  12.487   5.948  0.9170 -0.2623 -0.7982
  308ccc     H5 8210   8.300  12.238   5.958  0.6117  0.8575  1.3409
  308ccc     O1 8211   8.136  12.242   5.826  0.1374 -0.1755  0.0651
  308ccc     O2 8212   8.404  12.339   5.746 -0.0265  0.0478  0.5336
  308ccc     O3 8213   8.414  12.616   5.787  0.0119 -0.4072  0.3604
  308ccc     O4 8214   8.166  12.651   5.918 -0.4072  0.1004  0.1260
  308ccc     C6 8215   8.134  12.551   6.197 -0.3589  0.4557  0.0440
  308ccc     H6 8216   8.501  12.653   5.810  0.0858  1.8747 -3.0125
  308ccc     H7 8217   8.091  12.622   5.974  0.3154 -0.6052  0.7463
  308ccc     H8 8218   8.417  12.388   5.663 -0.9636  0.4042  0.5816
  308ccc     H9 8219   8.175  12.627   6.266 -3.5411  0.7502  1.8098
  308ccc    H10 8220   8.100  12.469   6.261  1.8456 -0.8958 -0.4208
  308ccc     O5 8221   8.018  12.609   6.136  0.4145  0.4802  0.5270
  308ccc    H11 8222   7.971  12.650   6.211 -1.1896 -0.0144 -0.1666
  308ccc     O6 8223   8.156  12.388   6.013 -0.6711  0.1150 -0.1349
  309ccc     C1 8224   7.137  10.358   6.493  0.6779 -0.6581 -0.2022
  309ccc     C2 8225   7.150  10.255   6.604 -0.8401  1.0594 -0.4451
  309ccc     H1 8226   7.045  10.337   6.438  0.5036 -1.6533  0.4369
  309ccc     H2 8227   7.068  10.274   6.674  1.3816  2.1245  2.0613
  309ccc     C3 8228   7.152  10.118   6.535 -0.4378  0.0435  0.3318
  309ccc     C4 8229   7.251  10.107   6.416 -0.5756  0.0634 -0.0466
  309ccc     C5 8230   7.237  10.225   6.316 -0.5020 -0.8608  0.0659
  309ccc     H3 8231   7.358  10.110   6.440 -0.1086 -0.9829 -1.8145
  309ccc     H4 8232   7.055  10.113   6.484  0.3735 -1.4526 -1.1796
  309ccc     H5 8233   7.141  10.213   6.264 -1.1127 -1.8321  1.3496
  309ccc     O1 8234   7.347  10.240   6.224 -0.3958 -0.2592 -0.0119
  309ccc     O2 8235   7.212   9.986   6.344  0.5485  0.4407  0.5454
  309ccc     O3 8236   7.170  10.006   6.629 -0.8527  0.1601  0.6319
  309ccc     O4 8237   7.267  10.275   6.672 -0.0699  0.1972  0.1706
  309ccc     C6 8238   7.116  10.505   6.543 -0.2372 -0.2354  0.0088
  309ccc     H6 8239   7.173  10.045   6.718  0.1748 -1.0170  1.1348
  309ccc     H7 8240   7.267  10.372   6.680  1.8844  0.2652 -0.3008
  309ccc     H8 8241   7.252   9.926   6.409  0.0209  2.1190  2.5322
  309ccc     H9 8242   7.033  10.521   6.612 -0.8397  2.3729 -1.1849
  309ccc    H10 8243   7.112  10.577   6.460 -2.3318  0.2970  0.5258
  309ccc     O5 8244   7.232  10.539   6.619 -0.6581  0.1093  0.5203
  309ccc    H11 8245   7.236  10.636   6.610  0.0482  0.2726  2.2385
  309ccc     O6 8246   7.235  10.347   6.390 -0.8515 -0.1983  0.2913
  310ccc     C1 8247   7.462  11.163   5.408 -0.0358 -0.1679  0.5144
  310ccc     C2 8248   7.601  11.236   5.426 -0.3088  1.1687  0.3035
  310ccc     H1 8249   7.395  11.245   5.438  2.0143  1.2342  1.5174
  310ccc     H2 8250   7.590  11.331   5.372 -2.5271  1.6255  1.4407
  310ccc     C3 8251   7.637  11.263   5.578  0.0184  0.6219 -0.0012
  310ccc     C4 8252   7.639  11.121   5.644  0.3015 -0.0534 -0.0087
  310ccc     C5 8253   7.498  11.055   5.637  0.1185 -0.0031  0.3802
  310ccc     H3 8254   7.705  11.062   5.579 -0.3097  0.5512 -1.1925
  310ccc     H4 8255   7.553  11.327   5.607  1.2110  2.1890  0.1108
  310ccc     H5 8256   7.426  11.116   5.693  1.0639  0.6400  0.9164
  310ccc     O1 8257   7.506  10.926   5.699  0.1586 -0.0451  0.7097
  310ccc     O2 8258   7.679  11.133   5.782 -0.3582  0.4003  0.6943
  310ccc     O3 8259   7.754  11.335   5.592 -0.2773  0.4360  0.0406
  310ccc     O4 8260   7.706  11.160   5.355 -0.5185 -0.5228 -0.5900
  310ccc     C6 8261   7.439  11.119   5.259  0.0943  0.2025 -0.4152
  310ccc     H6 8262   7.753  11.363   5.685 -0.6355  1.5384 -0.2768
  310ccc     H7 8263   7.783  11.171   5.413 -1.9438  1.1371  1.1068
  310ccc     H8 8264   7.609  11.089   5.833  0.0565  0.0351  0.9554
  310ccc     H9 8265   7.449  11.206   5.192 -0.9632  1.1567  0.6267
  310ccc    H10 8266   7.341  11.070   5.251  1.3150 -2.4628 -0.2789
  310ccc     O5 8267   7.539  11.016   5.229  0.2484 -0.2402 -0.1944
  310ccc    H11 8268   7.622  11.056   5.263 -0.3636 -0.5374  1.7864
  310ccc     O6 8269   7.462  11.042   5.493 -0.3609  0.1891  0.2142
  311ccc     C1 8270   8.716  12.892   8.195 -0.6803 -0.2553  0.4399
  311ccc     C2 8271   8.770  12.937   8.338 -0.1793 -0.0975 -0.2089
  311ccc     H1 8272   8.607  12.904   8.193 -0.8600 -1.4690 -2.3110
  311ccc     H2 8273   8.745  13.039   8.371 -2.3475 -0.7977  0.5143
  311ccc     C3 8274   8.709  12.844   8.446  0.0558 -0.2606 -0.1395
  311ccc     C4 8275   8.736  12.697   8.419 -0.6560  0.0650 -0.3348
  311ccc     C5 8276   8.695  12.660   8.276  0.5842  0.0222 -0.4578
  311ccc     H3 8277   8.844  12.682   8.414 -0.5444  0.2836  1.0757
  311ccc     H4 8278   8.600  12.855   8.436  0.0884 -0.4497 -0.7005
  311ccc     H5 8279   8.585  12.659   8.279  0.5457 -3.1268  0.5171
  311ccc     O1 8280   8.741  12.522   8.241  0.1233 -0.1335  0.1149
  311ccc     O2 8281   8.670  12.621   8.526 -0.5821  0.5444  0.4347
  311ccc     O3 8282   8.736  12.886   8.586 -0.0781 -0.7565  0.0518
  311ccc     O4 8283   8.910  12.929   8.333 -0.3086  0.6005 -1.2064
  311ccc     C6 8284   8.777  12.971   8.071  0.4990 -0.3456 -0.3872
  311ccc     H6 8285   8.651  12.857   8.623 -0.7698 -1.0717 -1.6845
  311ccc     H7 8286   8.934  12.929   8.238  0.8812 -0.1069 -0.9319
  311ccc     H8 8287   8.719  12.537   8.527  0.5416  1.0713 -2.1902
  311ccc     H9 8288   8.736  13.072   8.088 -1.3904 -1.5362  3.1411
  311ccc    H10 8289   8.739  12.936   7.975  0.2395  0.9396 -0.7807
  311ccc     O5 8290   8.918  12.958   8.086 -0.1092 -0.0767  0.1728
  311ccc    H11 8291   8.943  12.866   8.066  0.6689 -0.0247  0.8683
  311ccc     O6 8292   8.746  12.756   8.180  0.3544 -0.0304 -0.1421
  312ccc     C1 8293   9.594  11.692   7.970  0.2585 -0.0414 -0.7376
  312ccc     C2 8294   9.702  11.758   8.061 -0.4984 -0.0544 -0.0865
  312ccc     H1 8295   9.622  11.682   7.864 -0.0811  0.8411 -0.9195
  312ccc     H2 8296   9.797  11.705   8.053 -0.7618 -1.0300  2.5083
  312ccc     C3 8297   9.723  11.906   8.009 -0.3856 -0.4919 -0.2976
  312ccc     C4 8298   9.591  11.992   8.001 -0.7755  0.2534 -0.4244
  312ccc     C5 8299   9.486  11.915   7.923 -0.2701 -0.3687  0.1040
  312ccc     H3 8300   9.543  12.002   8.099 -1.9234  3.2501 -1.1694
  312ccc     H4 8301   9.765  11.921   7.908 -2.6755  1.4985 -1.0631
  312ccc     H5 8302   9.518  11.926   7.819 -0.1378 -0.0133  0.1802
  312ccc     O1 8303   9.353  11.983   7.930  0.1005  0.3977 -0.7432
  312ccc     O2 8304   9.610  12.121   7.955  0.2442  0.1753  1.0700
  312ccc     O3 8305   9.812  11.966   8.105 -0.0209  0.7275 -0.5736
  312ccc     O4 8306   9.656  11.755   8.192 -0.2702 -0.5454 -0.3869
  312ccc     C6 8307   9.552  11.562   8.036 -0.1926  0.1599  0.3899
  312ccc     H6 8308   9.895  11.968   8.055  0.8172 -2.1476  0.4491
  312ccc     H7 8309   9.734  11.728   8.242  0.3067 -1.6989 -1.8329
  312ccc     H8 8310   9.661  12.163   8.026 -0.9035  1.9626  0.9061
  312ccc     H9 8311   9.490  11.569   8.126  0.7478 -1.1978  1.1803
  312ccc    H10 8312   9.638  11.505   8.073 -0.6522 -0.2943  0.7888
  312ccc     O5 8313   9.482  11.500   7.928  0.4289 -0.1225 -0.1021
  312ccc    H11 8314   9.494  11.404   7.939 -1.1447 -0.8224 -3.4312
  312ccc     O6 8315   9.473  11.777   7.964 -0.2224  0.7669 -0.0699
  313ccc     C1 8316   8.187  12.363   8.798 -0.0928 -0.2743 -0.1725
  313ccc     C2 8317   8.161  12.510   8.848  0.0948  1.0182  0.0082
  313ccc     H1 8318   8.259  12.317   8.866 -1.5778  0.9064  2.3479
  313ccc     H2 8319   8.124  12.498   8.951  0.6987 -0.4403  0.0830
  313ccc     C3 8320   8.296  12.578   8.851  0.2268 -0.4528  0.3568
  313ccc     C4 8321   8.366  12.572   8.711  0.2371 -0.4772 -0.1788
  313ccc     C5 8322   8.366  12.422   8.657  0.1347  0.2993 -0.4988
  313ccc     H3 8323   8.305  12.621   8.634  0.0735 -1.1502 -0.4825
  313ccc     H4 8324   8.353  12.521   8.926 -0.0591 -2.0416 -0.5854
  313ccc     H5 8325   8.433  12.360   8.718 -1.3432 -0.2463  0.6004
  313ccc     O1 8326   8.403  12.427   8.518  0.0845  0.3587  0.7148
  313ccc     O2 8327   8.493  12.637   8.731 -0.2513  0.1898  0.3433
  313ccc     O3 8328   8.280  12.713   8.888 -0.1031 -0.6539  0.0618
  313ccc     O4 8329   8.060  12.570   8.766 -0.0480 -0.2143  0.1195
  313ccc     C6 8330   8.064  12.272   8.816 -0.4540 -0.4115 -0.4870
  313ccc     H6 8331   8.351  12.727   8.952  0.0354  1.8127 -0.5187
  313ccc     H7 8332   8.015  12.494   8.727  0.2431  0.0901 -0.8281
  313ccc     H8 8333   8.541  12.611   8.651 -1.7712 -2.0015  0.0437
  313ccc     H9 8334   8.044  12.287   8.923  4.0343 -0.1648  0.5455
  313ccc    H10 8335   8.098  12.168   8.806  1.8675  0.1374  0.8263
  313ccc     O5 8336   7.964  12.322   8.729  0.2987  0.3081  0.2936
  313ccc    H11 8337   7.890  12.302   8.789  0.4433 -1.1660  0.0278
  313ccc     O6 8338   8.236  12.372   8.662 -0.3303  0.3802  0.0817
  314ccc     C1 8339   8.627  11.570   9.188  0.3067 -0.0962  0.2790
  314ccc     C2 8340   8.714  11.441   9.198 -0.0293 -0.9010  0.0293
  314ccc     H1 8341   8.525  11.534   9.206 -0.6537  2.8391  1.3268
  314ccc     H2 8342   8.672  11.385   9.282 -1.6313 -2.5452 -1.7751
  314ccc     C3 8343   8.702  11.357   9.068 -0.7293  0.4775 -0.5212
  314ccc     C4 8344   8.716  11.436   8.933 -0.1956  0.0242 -0.2294
  314ccc     C5 8345   8.619  11.560   8.934  0.0581  0.5392 -0.2918
  314ccc     H3 8346   8.823  11.459   8.927  0.0018 -0.5949  0.6765
  314ccc     H4 8347   8.607  11.301   9.068 -0.8383  0.6525 -1.4102
  314ccc     H5 8348   8.521  11.518   8.911  0.8277 -0.8934 -1.0598
  314ccc     O1 8349   8.658  11.645   8.828 -0.0601 -0.6347 -0.4464
  314ccc     O2 8350   8.670  11.334   8.840 -0.0983 -0.9319  0.3653
  314ccc     O3 8351   8.817  11.266   9.077 -0.3475  0.6014 -0.2541
  314ccc     O4 8352   8.852  11.459   9.224  0.1105 -0.2257 -0.5363
  314ccc     C6 8353   8.646  11.677   9.292  0.0293  0.2686  0.0944
  314ccc     H6 8354   8.808  11.207   9.001 -0.4986 -0.3733  0.4963
  314ccc     H7 8355   8.879  11.373   9.186  0.8516 -0.4431  0.4386
  314ccc     H8 8356   8.688  11.360   8.748 -3.9706 -0.6646 -0.4864
  314ccc     H9 8357   8.728  11.743   9.262  0.6278 -1.1588 -1.5406
  314ccc    H10 8358   8.690  11.633   9.382  0.5878 -1.5001 -0.9829
  314ccc     O5 8359   8.528  11.745   9.336 -0.4198 -0.1701  0.2649
  314ccc    H11 8360   8.520  11.824   9.280  1.5241 -0.4601 -0.4921
  314ccc     O6 8361   8.620  11.632   9.058  0.1238  0.3376  0.5224
  315ccc     C1 8362   9.879  12.200   7.621  0.3127  0.0694  0.1956
  315ccc     C2 8363   9.798  12.073   7.647 -0.5316  0.6185  0.0415
  315ccc     H1 8364   9.810  12.286   7.611  0.9173  0.4085 -1.5204
  315ccc     H2 8365   9.748  12.075   7.745  0.7936  0.2391  0.7461
  315ccc     C3 8366   9.695  12.055   7.533 -0.3164 -0.1869  0.2131
  315ccc     C4 8367   9.755  12.072   7.391 -0.1476  0.2876 -0.9401
  315ccc     C5 8368   9.846  12.201   7.377  0.0903 -0.3736  0.4993
  315ccc     H3 8369   9.826  11.991   7.375 -2.0209 -1.7549  0.5404
  315ccc     H4 8370   9.626  12.140   7.542 -1.0091 -0.4717 -1.9112
  315ccc     H5 8371   9.781  12.289   7.385  1.1473  0.3732  1.1963
  315ccc     O1 8372   9.918  12.210   7.253 -0.2726 -0.1132  0.5298
  315ccc     O2 8373   9.637  12.079   7.302 -0.3009  0.2627 -0.0928
  315ccc     O3 8374   9.623  11.927   7.532 -0.6955  0.5549  0.3931
  315ccc     O4 8375   9.889  11.961   7.656  0.4402  0.0507  0.6690
  315ccc     C6 8376   9.984  12.242   7.724 -0.7116 -0.0645 -0.0127
  315ccc     H6 8377   9.583  11.927   7.443  1.5053 -2.6354 -0.8078
  315ccc     H7 8378   9.963  12.018   7.684 -0.8925  1.4465  1.5305
  315ccc     H8 8379   9.675  12.045   7.219  0.1841  0.1478  0.1702
  315ccc     H9 8380   9.934  12.263   7.819 -0.5732 -0.6331  0.1901
  315ccc    H10 8381  10.033  12.336   7.696  0.6224 -1.2031 -1.7569
  315ccc     O5 8382  10.081  12.130   7.731 -0.7116 -0.3723 -0.1667
  315ccc    H11 8383  10.153  12.177   7.686  1.4273  0.2965  3.6164
  315ccc     O6 8384   9.939  12.201   7.488 -0.2805 -0.0747  0.3156
  316ccc     C1 8385  10.991  11.623   6.811  0.5955 -0.1253 -0.6283
  316ccc     C2 8386  11.085  11.659   6.970  0.1956  0.0973  0.2350
  316ccc     H1 8387  10.945  11.531   6.850 -1.4203  0.4325 -1.5668
  316ccc     H2 8388  11.192  11.673   6.955  0.0688  1.9890  0.8695
  316ccc     C3 8389  11.041  11.811   7.065  0.2725  0.4528 -1.0928
  316ccc     C4 8390  10.908  11.934   7.026 -1.1568 -0.3118  0.0852
  316ccc     C5 8391  10.808  11.934   6.870 -0.1732  0.4139 -0.0902
  316ccc     H3 8392  10.842  11.925   7.113  2.2481 -0.9886  2.8203
  316ccc     H4 8393  11.132  11.870   7.050  1.0998 -1.1686 -2.9014
  316ccc     H5 8394  10.840  12.027   6.821 -0.2279  1.8640  2.4130
  316ccc     O1 8395  10.666  11.963   6.889  0.1443  0.2625  0.1170
  316ccc     O2 8396  10.969  12.060   7.050  0.4726  0.4127  0.4106
  316ccc     O3 8397  11.039  11.784   7.209 -0.3716  0.2479 -0.4665
  316ccc     O4 8398  11.072  11.539   7.054 -0.6299 -0.6357 -0.3517
  316ccc     C6 8399  11.090  11.530   6.729  0.3064  0.3477 -0.6857
  316ccc     H6 8400  10.993  11.859   7.250 -1.3619 -0.8193  0.4520
  316ccc     H7 8401  11.082  11.579   7.142 -0.6577 -2.4445  0.5311
  316ccc     H8 8402  11.021  12.070   6.968 -1.0896  0.6014 -0.5902
  316ccc     H9 8403  11.056  11.504   6.628  1.0597 -0.5804 -0.7086
  316ccc    H10 8404  11.094  11.429   6.772  3.1367  0.2742 -0.9599
  316ccc     O5 8405  11.222  11.585   6.731  0.2063 -0.9338 -0.0966
  316ccc    H11 8406  11.272  11.539   6.661 -0.9719 -0.7789 -1.0734
  316ccc     O6 8407  10.834  11.802   6.764  0.1215 -0.5601  0.8471
  317ccc     C1 8408   9.854  12.461   8.078 -0.0885 -0.1222  0.5418
  317ccc     C2 8409   9.724  12.405   8.145 -0.6254 -0.1721 -0.1586
  317ccc     H1 8410   9.866  12.567   8.103 -1.9722  0.2174  0.1676
  317ccc     H2 8411   9.728  12.441   8.249  1.5654  0.7957 -0.5337
  317ccc     C3 8412   9.604  12.475   8.078  0.3796  0.1765 -1.0260
  317ccc     C4 8413   9.602  12.464   7.924 -0.2473  1.0337  0.3011
  317ccc     C5 8414   9.735  12.524   7.871 -0.4842  0.6759 -0.9485
  317ccc     H3 8415   9.613  12.358   7.897 -1.6479  0.6404  1.1448
  317ccc     H4 8416   9.614  12.582   8.100 -0.7683 -0.0460  0.7879
  317ccc     H5 8417   9.736  12.630   7.896 -1.3191  0.2610  1.0423
  317ccc     O1 8418   9.748  12.507   7.724  0.1115  0.3477 -0.3079
  317ccc     O2 8419   9.486  12.529   7.888 -0.0081 -0.3023  0.7243
  317ccc     O3 8420   9.472  12.439   8.134 -0.5111 -0.1917 -0.0596
  317ccc     O4 8421   9.724  12.262   8.132  0.0031 -0.2669  0.2184
  317ccc     C6 8422   9.986  12.398   8.129  0.5231  0.1516 -0.2603
  317ccc     H6 8423   9.485  12.359   8.189 -0.4643 -0.3664 -0.3250
  317ccc     H7 8424   9.819  12.245   8.132  0.1910  0.2949  3.0584
  317ccc     H8 8425   9.437  12.536   7.972 -0.4681  1.9737  0.3375
  317ccc     H9 8426  10.002  12.413   8.237 -2.2616 -1.1057  0.4316
  317ccc    H10 8427  10.068  12.450   8.077 -0.4164  1.3357 -0.6108
  317ccc     O5 8428   9.987  12.257   8.107 -0.1163 -0.1092  0.5411
  317ccc    H11 8429  10.080  12.232   8.125 -0.6878 -3.1799 -0.1954
  317ccc     O6 8430   9.842  12.451   7.932  0.0851  0.3067  0.1929
  318ccc     C1 8431  10.725  12.357   7.215  1.0197  0.0755  0.4892
  318ccc     C2 8432  10.703  12.210   7.174 -0.1770 -0.5467  0.4609
  318ccc     H1 8433  10.787  12.372   7.304  0.9866  0.3847  0.4609
  318ccc     H2 8434  10.799  12.158   7.163  0.0482 -0.0560  0.1101
  318ccc     C3 8435  10.630  12.120   7.278  0.3693 -0.3572 -0.1252
  318ccc     C4 8436  10.499  12.198   7.324 -0.7494  0.7621 -0.1288
  318ccc     C5 8437  10.524  12.351   7.341  0.3570  0.7502 -0.9065
  318ccc     H3 8438  10.423  12.195   7.245  1.6997 -1.9127 -2.6348
  318ccc     H4 8439  10.702  12.106   7.360 -0.1699  0.4851  0.5109
  318ccc     H5 8440  10.568  12.382   7.436 -1.1401  0.6770 -0.1541
  318ccc     O1 8441  10.393  12.408   7.365  0.4712  0.3891 -0.2157
  318ccc     O2 8442  10.442  12.133   7.446  0.1041 -0.3208  0.4255
  318ccc     O3 8443  10.604  11.993   7.221 -0.3715  0.1515  0.3587
  318ccc     O4 8444  10.622  12.204   7.050  0.2553 -0.3233  0.2634
  318ccc     C6 8445  10.799  12.434   7.096 -0.0448 -0.5098  0.7679
  318ccc     H6 8446  10.611  11.936   7.299 -1.4573  0.7793  0.9364
  318ccc     H7 8447  10.598  12.109   7.046 -1.5387  0.1538 -2.3536
  318ccc     H8 8448  10.397  12.057   7.403  0.9894 -0.4740 -0.2618
  318ccc     H9 8449  10.759  12.438   6.994  1.4682  0.7601  0.1731
  318ccc    H10 8450  10.893  12.378   7.092 -1.3023 -2.7116  0.2629
  318ccc     O5 8451  10.828  12.563   7.140  0.1312 -0.2522  0.2209
  318ccc    H11 8452  10.903  12.553   7.201  0.2143  0.5250  0.2491
  318ccc     O6 8453  10.591  12.410   7.231 -0.1275 -0.0879  0.6119
  319ccc     C1 8454  11.551   8.691   9.528 -0.0135  0.5779  0.5472
  319ccc     C2 8455  11.567   8.828   9.599  0.2370  0.2787  0.8962
  319ccc     H1 8456  11.623   8.680   9.446 -0.2420  0.7717  0.3244
  319ccc     H2 8457  11.669   8.828   9.640 -0.0658  2.8476  1.8613
  319ccc     C3 8458  11.551   8.947   9.495 -0.1334  0.5405 -0.1360
  319ccc     C4 8459  11.430   8.923   9.400  0.1311  0.0338  0.2773
  319ccc     C5 8460  11.401   8.778   9.355 -0.3479  0.1125  0.4473
  319ccc     H3 8461  11.343   8.959   9.457  2.2877  2.9963  2.0085
  319ccc     H4 8462  11.636   8.955   9.426  0.5565  1.4103  0.7963
  319ccc     H5 8463  11.466   8.750   9.271 -1.0842  1.3782 -0.5873
  319ccc     O1 8464  11.265   8.764   9.299 -0.3088  0.0708 -0.0233
  319ccc     O2 8465  11.449   9.011   9.287 -0.0017  0.4974 -0.3361
  319ccc     O3 8466  11.545   9.073   9.567  0.1709 -0.1405  0.2522
  319ccc     O4 8467  11.469   8.834   9.704  0.1336  0.2119 -0.9415
  319ccc     C6 8468  11.578   8.562   9.608 -0.3026 -0.6490 -0.7846
  319ccc     H6 8469  11.637   9.102   9.580 -0.3912  0.9201  2.1655
  319ccc     H7 8470  11.467   8.740   9.728  1.2254  0.0577 -1.3887
  319ccc     H8 8471  11.367   9.018   9.236  0.2541  1.5168 -0.6361
  319ccc     H9 8472  11.686   8.561   9.632 -0.1804  0.6714 -1.2100
  319ccc    H10 8473  11.568   8.466   9.555  0.0938 -1.5864  0.7592
  319ccc     O5 8474  11.503   8.569   9.727 -0.4422  0.3972 -0.0895
  319ccc    H11 8475  11.472   8.478   9.734  0.9308 -0.0108  1.0245
  319ccc     O6 8476  11.420   8.690   9.467  0.2349  0.2711  0.1178
  320ccc     C1 8477  10.421   8.074   9.147  0.1687  0.4243 -0.1416
  320ccc     C2 8478  10.449   7.922   9.149 -0.6306 -0.2798 -0.1522
  320ccc     H1 8479  10.430   8.105   9.042  1.1867 -0.4794 -0.3302
  320ccc     H2 8480  10.383   7.875   9.075 -2.5522 -0.0817  1.3402
  320ccc     C3 8481  10.596   7.905   9.105 -0.3113  0.3334  0.4466
  320ccc     C4 8482  10.681   7.993   9.198  0.3064 -0.6164  0.2211
  320ccc     C5 8483  10.640   8.142   9.207  0.4907  0.7642 -0.5610
  320ccc     H3 8484  10.667   7.964   9.303 -3.1476 -1.9819 -0.4739
  320ccc     H4 8485  10.600   7.956   9.008  1.2929  2.2422  1.4455
  320ccc     H5 8486  10.658   8.194   9.113 -0.4372  2.1656 -0.0001
  320ccc     O1 8487  10.711   8.201   9.315  0.3053 -0.4845 -0.1601
  320ccc     O2 8488  10.813   7.985   9.153 -0.0653 -0.1826 -0.0244
  320ccc     O3 8489  10.633   7.760   9.108 -0.4459 -0.3339  0.5933
  320ccc     O4 8490  10.423   7.864   9.276  0.1666  0.3132 -0.0754
  320ccc     C6 8491  10.271   8.099   9.180  0.7009  0.4631 -0.1300
  320ccc     H6 8492  10.725   7.749   9.078 -0.8255 -1.5941 -0.2026
  320ccc     H7 8493  10.363   7.930   9.314  0.6028 -0.2841  1.7218
  320ccc     H8 8494  10.859   7.941   9.227  1.1945  2.6582  1.0065
  320ccc     H9 8495  10.196   8.049   9.119 -0.3859  1.9831 -0.1042
  320ccc    H10 8496  10.252   8.207   9.167  0.1456  0.7432  2.4729
  320ccc     O5 8497  10.246   8.069   9.318 -0.1487  0.2695  0.2377
  320ccc    H11 8498  10.284   8.139   9.373  0.2226 -0.3337  0.7660
  320ccc     O6 8499  10.505   8.144   9.243  0.2678  0.4160  0.0176
  321ccc     C1 8500  10.943   8.175   9.653  0.0611  0.2832  1.0913
  321ccc     C2 8501  10.907   8.033   9.706 -0.2019 -0.0742 -0.1500
  321ccc     H1 8502  10.858   8.219   9.598 -0.1998  1.8828  2.6922
  321ccc     H2 8503  10.814   8.034   9.765  0.1687 -1.5779  0.5194
  321ccc     C3 8504  10.860   7.939   9.584  0.7375 -0.6118  0.0014
  321ccc     C4 8505  10.976   7.923   9.481 -0.1834 -0.9369 -0.0040
  321ccc     C5 8506  11.035   8.062   9.440 -0.3764  0.2696  0.4063
  321ccc     H3 8507  11.058   7.879   9.539  0.1395  1.0174  1.1002
  321ccc     H4 8508  10.781   7.998   9.535  2.0288  1.9062  0.7734
  321ccc     H5 8509  10.969   8.107   9.365 -0.2502 -2.3017 -1.3719
  321ccc     O1 8510  11.164   8.049   9.377  0.3236 -0.1456 -0.2333
  321ccc     O2 8511  10.924   7.850   9.369  0.1388  0.3889 -0.0056
  321ccc     O3 8512  10.818   7.804   9.619  0.8701  0.4411 -0.4116
  321ccc     O4 8513  11.017   7.975   9.770  0.3804 -0.2352 -0.4981
  321ccc     C6 8514  10.986   8.274   9.762 -0.2470  0.2622 -0.3158
  321ccc     H6 8515  10.760   7.781   9.544 -0.0590  0.0678  0.3894
  321ccc     H7 8516  11.007   7.884   9.802  0.9368  0.7641  2.9114
  321ccc     H8 8517  10.921   7.756   9.395 -2.4467  0.3655 -0.1066
  321ccc     H9 8518  11.087   8.254   9.797 -0.8505 -0.9425  0.8286
  321ccc    H10 8519  10.915   8.258   9.844 -0.2597 -2.1606 -0.7163
  321ccc     O5 8520  10.974   8.411   9.715 -0.2238 -1.3129  0.1277
  321ccc    H11 8521  11.050   8.430   9.656  0.7358  0.2040  1.7327
  321ccc     O6 8522  11.055   8.156   9.556 -0.4568 -0.3067  1.0189
  322ccc     C1 8523  12.143   8.770   9.178 -0.1455  0.0315  0.3143
  322ccc     C2 8524  12.212   8.777   9.312 -0.1720 -0.4955 -0.2176
  322ccc     H1 8525  12.115   8.870   9.141 -1.3566 -0.2293  0.5086
  322ccc     H2 8526  12.309   8.828   9.316  0.6661 -2.0935  2.2855
  322ccc     C3 8527  12.127   8.851   9.412 -0.3651  0.7769  0.0763
  322ccc     C4 8528  11.992   8.769   9.423  0.9188 -0.5823 -0.1554
  322ccc     C5 8529  11.919   8.737   9.286  0.4455  0.2146  0.0217
  322ccc     H3 8530  12.024   8.671   9.460 -1.2534 -1.0191  0.7095
  322ccc     H4 8531  12.101   8.953   9.379 -0.8966  0.5699 -0.1622
  322ccc     H5 8532  11.862   8.822   9.248  1.1675  0.4504 -0.5558
  322ccc     O1 8533  11.832   8.618   9.318 -0.7505  0.1657  0.0863
  322ccc     O2 8534  11.899   8.848   9.503 -0.1256  0.4123  0.1379
  322ccc     O3 8535  12.201   8.856   9.536  0.5991  0.6335  0.5870
  322ccc     O4 8536  12.238   8.646   9.351 -0.3235 -0.5835 -0.3730
  322ccc     C6 8537  12.236   8.704   9.067 -0.0653 -0.5734  0.1847
  322ccc     H6 8538  12.247   8.941   9.538 -0.8221  1.4383  0.6880
  322ccc     H7 8539  12.254   8.606   9.264 -0.4082 -0.4208 -0.4631
  322ccc     H8 8540  11.932   8.833   9.593 -1.3313  0.6891  0.6446
  322ccc     H9 8541  12.322   8.768   9.045 -1.5566  0.9664 -1.5307
  322ccc    H10 8542  12.175   8.709   8.976  0.8568 -1.6202 -0.5233
  322ccc     O5 8543  12.254   8.573   9.100  1.0297  0.3563 -0.1662
  322ccc    H11 8544  12.323   8.558   9.033  2.5240  0.8080  1.2179
  322ccc     O6 8545  12.022   8.692   9.192 -0.1606  0.2170  0.4574
  323ccc     C1 8546  10.670   9.291   8.115 -0.0825 -0.0722 -0.0121
  323ccc     C2 8547  10.631   9.371   7.989 -0.1055  0.2416  0.1202
  323ccc     H1 8548  10.766   9.334   8.147 -0.2571  0.9426 -0.8193
  323ccc     H2 8549  10.646   9.478   8.007  1.6055  0.4967 -2.3103
  323ccc     C3 8550  10.717   9.339   7.864  0.1269  1.0075 -0.1645
  323ccc     C4 8551  10.732   9.185   7.852 -0.4965  0.0184  0.2415
  323ccc     C5 8552  10.773   9.111   7.983  0.4643 -0.0260  0.4155
  323ccc     H3 8553  10.632   9.140   7.839 -1.4308  1.9073  0.5345
  323ccc     H4 8554  10.817   9.383   7.874  0.5283  0.2153 -0.6134
  323ccc     H5 8555  10.875   9.139   8.013  0.7824  0.4323 -1.0200
  323ccc     O1 8556  10.766   8.963   7.979 -0.0942 -0.7152 -0.3343
  323ccc     O2 8557  10.823   9.144   7.745  0.4772 -0.3194  0.1766
  323ccc     O3 8558  10.650   9.396   7.753 -0.5157  0.4069 -0.1716
  323ccc     O4 8559  10.494   9.343   7.958 -0.4977  0.2535  0.4764
  323ccc     C6 8560  10.583   9.320   8.239  0.3620  0.2860 -0.1341
  323ccc     H6 8561  10.555   9.377   7.766 -0.6738  0.4935 -1.1179
  323ccc     H7 8562  10.455   9.325   8.045  0.2112  1.5010  1.0862
  323ccc     H8 8563  10.809   9.049   7.733 -0.9181 -0.0812 -0.2318
  323ccc     H9 8564  10.584   9.426   8.267 -0.5726  0.3743 -0.4088
  323ccc    H10 8565  10.616   9.259   8.324  1.0007 -0.1470 -0.6790
  323ccc     O5 8566  10.457   9.275   8.212  0.4874 -0.3244 -0.1169
  323ccc    H11 8567  10.450   9.180   8.230 -1.4827 -0.0183  0.9417
  323ccc     O6 8568  10.681   9.148   8.092 -0.2755 -0.3284 -0.3386
  324ccc     C1 8569  11.370   8.083   7.892  0.4315  0.1037 -0.3217
  324ccc     C2 8570  11.400   7.967   7.794 -0.1178  0.6009 -0.2744
  324ccc     H1 8571  11.285   8.052   7.954 -0.6032 -1.0859 -2.2297
  324ccc     H2 8572  11.435   7.881   7.851  0.9127  1.5509  0.5914
  324ccc     C3 8573  11.273   7.931   7.713 -0.5371  0.6530 -0.4792
  324ccc     C4 8574  11.210   8.046   7.645  0.0719  0.4383  0.2698
  324ccc     C5 8575  11.195   8.163   7.743 -0.1258  0.5427 -0.4399
  324ccc     H3 8576  11.281   8.085   7.571  1.2689 -0.2040  1.0538
  324ccc     H4 8577  11.204   7.892   7.789  1.2706 -2.2257 -0.1243
  324ccc     H5 8578  11.119   8.140   7.818 -1.2549  2.4196 -0.9277
  324ccc     O1 8579  11.150   8.275   7.670  0.6702  0.2357 -0.3253
  324ccc     O2 8580  11.095   8.005   7.579  0.1536  0.1554 -0.2821
  324ccc     O3 8581  11.306   7.826   7.616  0.0616 -0.0104 -0.9246
  324ccc     O4 8582  11.502   7.997   7.701 -0.4521  0.2155 -0.4222
  324ccc     C6 8583  11.491   8.117   7.972 -0.3231 -0.7046  0.2730
  324ccc     H6 8584  11.218   7.797   7.586 -0.1853 -0.5506  0.2639
  324ccc     H7 8585  11.474   7.939   7.628 -0.9258 -1.5906  1.1152
  324ccc     H8 8586  11.038   8.084   7.584  0.7982  0.5955  3.8671
  324ccc     H9 8587  11.536   8.030   8.022  0.8533  0.5989  1.5936
  324ccc    H10 8588  11.480   8.187   8.055 -0.7865 -1.2556  0.6865
  324ccc     O5 8589  11.582   8.173   7.876  0.2129  0.5843 -0.2884
  324ccc    H11 8590  11.560   8.106   7.809 -1.1830  0.8211 -0.1031
  324ccc     O6 8591  11.318   8.198   7.812 -0.3751 -0.2379  0.2570
  325ccc     C1 8592   9.568   8.300   9.157 -0.4495 -0.2454 -0.2931
  325ccc     C2 8593   9.545   8.174   9.071  0.4445 -0.0925  0.5536
  325ccc     H1 8594   9.522   8.387   9.108 -1.4285 -0.9134 -0.5873
  325ccc     H2 8595   9.437   8.154   9.071  0.5970 -0.9871  1.5623
  325ccc     C3 8596   9.597   8.187   8.924  0.6312  0.1070 -0.3030
  325ccc     C4 8597   9.747   8.228   8.941  0.2574  0.0784  0.1462
  325ccc     C5 8598   9.755   8.356   9.029 -0.2271  0.4846  0.2539
  325ccc     H3 8599   9.794   8.142   8.991 -0.9281 -0.6549  0.0465
  325ccc     H4 8600   9.549   8.272   8.874  1.5141  0.4509 -0.5696
  325ccc     H5 8601   9.705   8.441   8.982 -2.4938 -2.1077 -2.4152
  325ccc     O1 8602   9.894   8.381   9.038 -0.2653 -0.0109 -0.2276
  325ccc     O2 8603   9.794   8.248   8.805 -0.2095  0.1259  0.5568
  325ccc     O3 8604   9.592   8.060   8.847 -0.0601 -0.5045 -0.2153
  325ccc     O4 8605   9.600   8.056   9.132  0.2657 -0.2376 -0.4145
  325ccc     C6 8606   9.516   8.290   9.297  0.0571  0.3901 -0.1214
  325ccc     H6 8607   9.661   8.072   8.780  0.2131  0.4541  0.2316
  325ccc     H7 8608   9.575   7.980   9.077 -0.1920  0.1714 -0.7845
  325ccc     H8 8609   9.890   8.233   8.803  0.0083  1.3471  0.4972
  325ccc     H9 8610   9.408   8.301   9.309  0.3271  2.2203  1.0472
  325ccc    H10 8611   9.566   8.374   9.345  0.9162  0.2241 -0.6974
  325ccc     O5 8612   9.562   8.169   9.360  0.0565  0.2309  0.0790
  325ccc    H11 8613   9.607   8.123   9.287 -0.2866 -0.1375  0.0960
  325ccc     O6 8614   9.703   8.329   9.159 -0.3996 -0.0398 -0.4741
  326ccc     C1 8615  10.407   8.259   9.865 -0.6635  0.6414 -0.1782
  326ccc     C2 8616  10.489   8.182   9.760 -0.7891 -0.4719 -0.0177
  326ccc     H1 8617  10.316   8.201   9.881  1.1771 -2.6389 -0.7500
  326ccc     H2 8618  10.506   8.079   9.796 -0.7280 -0.7913 -0.9351
  326ccc     C3 8619  10.409   8.171   9.630 -0.2738  0.2931 -0.5011
  326ccc     C4 8620  10.366   8.310   9.582 -0.0174 -0.0869 -0.0410
  326ccc     C5 8621  10.292   8.390   9.696 -0.0592 -0.1002  0.8301
  326ccc     H3 8622  10.457   8.371   9.570  0.6125 -1.0692 -0.4767
  326ccc     H4 8623  10.316   8.114   9.638 -0.4597  0.0349 -3.3190
  326ccc     H5 8624  10.193   8.353   9.726 -0.4730 -1.1205 -1.5251
  326ccc     O1 8625  10.297   8.531   9.669  0.3093  0.4516 -0.5943
  326ccc     O2 8626  10.300   8.300   9.453 -0.4501 -0.0296 -0.3588
  326ccc     O3 8627  10.489   8.104   9.534 -0.2841 -0.1921  0.0381
  326ccc     O4 8628  10.614   8.252   9.752 -0.1738  0.1475  0.3421
  326ccc     C6 8629  10.466   8.265  10.011  0.5153  0.8271 -0.2121
  326ccc     H6 8630  10.483   8.158   9.453  0.3790 -0.9850 -0.5620
  326ccc     H7 8631  10.631   8.267   9.846  3.2491  0.8929 -0.2685
  326ccc     H8 8632  10.280   8.392   9.427  1.8250  0.4205 -0.7401
  326ccc     H9 8633  10.444   8.170  10.061 -1.6775  0.9607 -0.8206
  326ccc    H10 8634  10.406   8.340  10.065  1.4208  2.0126 -0.8128
  326ccc     O5 8635  10.605   8.296  10.010  0.3434 -0.7165 -0.1442
  326ccc    H11 8636  10.626   8.276  10.103  0.7831 -2.4221 -0.5584
  326ccc     O6 8637  10.371   8.389   9.812 -0.1007 -0.1958 -0.3878
  327ccc     C1 8638   9.198   8.867   4.733  0.4505 -0.3725  0.2502
  327ccc     C2 8639   9.302   8.796   4.645  0.3911  0.2539  0.0869
  327ccc     H1 8640   9.244   8.956   4.779  2.8997  0.5467 -3.5148
  327ccc     H2 8641   9.339   8.864   4.567 -1.6990 -1.1032 -2.2459
  327ccc     C3 8642   9.418   8.745   4.736 -0.3436 -0.5327  0.3535
  327ccc     C4 8643   9.371   8.675   4.862 -0.4607 -0.1333  0.6730
  327ccc     C5 8644   9.247   8.730   4.934  1.2277 -0.7469  0.4396
  327ccc     H3 8645   9.336   8.577   4.826 -0.3191 -0.5217  1.5710
  327ccc     H4 8646   9.472   8.838   4.758  0.2748 -0.1480 -2.3273
  327ccc     H5 8647   9.271   8.815   4.999  0.9469 -0.8386  0.6670
  327ccc     O1 8648   9.180   8.628   5.010 -0.3521 -0.2750 -0.2083
  327ccc     O2 8649   9.484   8.668   4.952 -0.5390 -0.0313  0.1644
  327ccc     O3 8650   9.517   8.671   4.657 -0.5381 -0.2739 -0.0419
  327ccc     O4 8651   9.241   8.681   4.591 -1.3673 -0.5417 -0.0747
  327ccc     C6 8652   9.075   8.916   4.655 -0.5545 -0.6143  0.2310
  327ccc     H6 8653   9.469   8.600   4.611 -1.2762 -0.3948  0.8874
  327ccc     H7 8654   9.148   8.711   4.593 -1.2543 -0.2181  1.5964
  327ccc     H8 8655   9.546   8.598   4.927 -0.1099  1.1195 -2.3179
  327ccc     H9 8656   9.116   8.965   4.566 -1.1791  0.2102  0.3794
  327ccc    H10 8657   9.027   8.997   4.713  0.5275 -0.0469  0.3552
  327ccc     O5 8658   9.004   8.798   4.625  0.0230 -0.1643  0.3169
  327ccc    H11 8659   8.953   8.815   4.543 -0.2494 -1.6038  0.1680
  327ccc     O6 8660   9.153   8.780   4.841  0.2920  0.4026 -0.4730
  328ccc     C1 8661   8.163   8.809   5.681 -0.0812 -0.4722  0.0593
  328ccc     C2 8662   8.083   8.869   5.560 -0.3808 -0.0666 -0.2459
  328ccc     H1 8663   8.198   8.900   5.733  0.4403 -0.1041 -0.9152
  328ccc     H2 8664   8.015   8.941   5.606  0.5524  0.2681  0.6535
  328ccc     C3 8665   8.177   8.942   5.456  0.1373  0.9515 -0.6311
  328ccc     C4 8666   8.297   8.855   5.421 -0.2611 -0.4409  0.9470
  328ccc     C5 8667   8.373   8.796   5.547 -0.6676  0.5148  0.1586
  328ccc     H3 8668   8.271   8.776   5.350  2.3527 -0.8229  0.2904
  328ccc     H4 8669   8.210   9.037   5.498 -0.5416  1.6666 -1.6665
  328ccc     H5 8670   8.404   8.887   5.601  1.2242  0.1603 -0.2535
  328ccc     O1 8671   8.481   8.702   5.502 -1.1420 -0.3770 -0.1913
  328ccc     O2 8672   8.381   8.937   5.343 -0.0741 -0.1197  0.0279
  328ccc     O3 8673   8.103   8.967   5.331 -0.0181 -0.0573 -0.3013
  328ccc     O4 8674   8.021   8.758   5.496  0.7883 -0.1008 -0.5647
  328ccc     C6 8675   8.082   8.731   5.787 -0.2794  0.2250 -0.1861
  328ccc     H6 8676   8.172   9.009   5.276  0.9571 -1.0390  0.1242
  328ccc     H7 8677   8.001   8.693   5.565 -0.2470 -0.5727 -1.2922
  328ccc     H8 8678   8.437   8.880   5.288 -0.1077  0.5099 -0.6796
  328ccc     H9 8679   8.007   8.795   5.835  0.3717  1.6005 -0.9410
  328ccc    H10 8680   8.155   8.698   5.862  0.0059 -0.0095 -0.5658
  328ccc     O5 8681   8.029   8.621   5.715  0.5351  0.0780  0.0448
  328ccc    H11 8682   7.967   8.582   5.779 -0.2277  0.8815 -0.1931
  328ccc     O6 8683   8.280   8.729   5.636 -0.0371 -0.0901  0.2371
  329ccc     C1 8684   9.752   7.798   6.717 -0.0079 -0.4681  0.0042
  329ccc     C2 8685   9.882   7.838   6.785 -0.0250  0.4409  0.0784
  329ccc     H1 8686   9.720   7.700   6.754 -1.3957  0.0374  0.1963
  329ccc     H2 8687   9.874   7.812   6.892  0.4288 -2.6734 -0.5269
  329ccc     C3 8688  10.009   7.758   6.736 -0.5210  0.4836 -0.4074
  329ccc     C4 8689  10.010   7.743   6.581 -0.1917  0.3142 -0.3048
  329ccc     C5 8690   9.870   7.701   6.522 -0.2553  0.7709  0.2405
  329ccc     H3 8691  10.041   7.842   6.543  0.9083  0.0533 -0.1105
  329ccc     H4 8692  10.007   7.657   6.779  1.4627  0.6439  0.1651
  329ccc     H5 8693   9.843   7.599   6.552  0.5393 -0.1384 -1.9599
  329ccc     O1 8694   9.864   7.704   6.373  0.9160 -0.5598 -0.3911
  329ccc     O2 8695  10.109   7.638   6.541  0.4785  0.2145 -0.7162
  329ccc     O3 8696  10.126   7.811   6.799  0.1556 -0.2504 -0.1745
  329ccc     O4 8697   9.906   7.972   6.754  0.2493  0.1089  0.3883
  329ccc     C6 8698   9.625   7.885   6.746  0.0022 -0.1198  0.1855
  329ccc     H6 8699  10.093   7.902   6.801 -1.8770 -0.9460 -0.0820
  329ccc     H7 8700   9.813   7.995   6.734  1.0953  2.0594 -1.8721
  329ccc     H8 8701  10.113   7.637   6.444  1.6459  0.5491 -0.6881
  329ccc     H9 8702   9.587   7.871   6.848 -3.6313  0.6638 -0.9097
  329ccc    H10 8703   9.540   7.850   6.686  0.0676 -0.8447  0.5089
  329ccc     O5 8704   9.644   8.026   6.726  0.1682  0.4457  0.4682
  329ccc    H11 8705   9.558   8.068   6.741 -2.0340 -1.6783 -4.2479
  329ccc     O6 8706   9.776   7.791   6.573  0.2401 -0.0434 -0.1394
  330ccc     C1 8707  10.490   8.149   6.838  0.2170  0.0915  1.0277
  330ccc     C2 8708  10.574   8.062   6.928 -0.3843  0.3581  0.4037
  330ccc     H1 8709  10.382   8.154   6.855  0.2646  1.2754  1.1370
  330ccc     H2 8710  10.557   8.109   7.026  1.1171  0.1632  0.7760
  330ccc     C3 8711  10.534   7.914   6.928  0.8079  1.0291  0.3456
  330ccc     C4 8712  10.505   7.864   6.784  1.2195 -0.3206  0.3800
  330ccc     C5 8713  10.427   7.964   6.693  0.1793 -0.0107  0.4660
  330ccc     H3 8714  10.600   7.860   6.730 -0.0719  1.9913 -2.3210
  330ccc     H4 8715  10.435   7.911   6.975  0.5061  1.6483 -0.2260
  330ccc     H5 8716  10.321   7.957   6.719  0.0274 -2.5502 -0.5711
  330ccc     O1 8717  10.444   7.923   6.555 -0.6837 -0.3726 -0.8661
  330ccc     O2 8718  10.431   7.743   6.793 -0.1144  0.4023  0.3391
  330ccc     O3 8719  10.630   7.822   7.000 -0.7676  0.8317 -0.1454
  330ccc     O4 8720  10.707   8.072   6.877 -0.7794 -0.2611  0.0720
  330ccc     C6 8721  10.536   8.295   6.828  0.8211 -0.3384  0.6455
  330ccc     H6 8722  10.715   7.812   6.953 -2.5062 -0.8794 -3.2675
  330ccc     H7 8723  10.765   8.048   6.951  2.6645 -1.7786 -2.8627
  330ccc     H8 8724  10.503   7.681   6.810  1.3363  2.0836  0.5429
  330ccc     H9 8725  10.550   8.341   6.927  2.0003  0.6133  0.0723
  330ccc    H10 8726  10.453   8.354   6.785 -0.0805 -2.6822 -1.0571
  330ccc     O5 8727  10.656   8.302   6.757 -0.1060  0.2534 -0.1554
  330ccc    H11 8728  10.684   8.218   6.797  4.1089  0.5545 -1.9393
  330ccc     O6 8729  10.493   8.093   6.707  0.4632  0.4390 -0.3145
  331ccc     C1 8730  11.249   8.839   7.642 -0.5211  0.3594  0.4147
  331ccc     C2 8731  11.330   8.826   7.772 -0.6358 -0.1330 -0.5096
  331ccc     H1 8732  11.259   8.737   7.601 -0.4097  0.0939  1.0885
  331ccc     H2 8733  11.290   8.747   7.836 -1.1150 -0.0408 -0.6902
  331ccc     C3 8734  11.479   8.806   7.749 -0.3751 -0.8979 -0.4622
  331ccc     C4 8735  11.532   8.905   7.643 -0.6438 -0.0542  0.5180
  331ccc     C5 8736  11.446   8.909   7.515  0.5658 -0.3082 -0.4085
  331ccc     H3 8737  11.522   9.005   7.687  1.4187  0.0434  0.8646
  331ccc     H4 8738  11.507   8.706   7.713  0.3161 -0.9943  0.3200
  331ccc     H5 8739  11.440   8.825   7.445  0.3813  1.7660 -3.0544
  331ccc     O1 8740  11.492   9.022   7.435 -0.0612  0.5721  0.3399
  331ccc     O2 8741  11.672   8.866   7.608  0.3385 -0.0354  1.0150
  331ccc     O3 8742  11.534   8.821   7.877 -0.2357  0.0200  0.3545
  331ccc     O4 8743  11.326   8.953   7.844  0.0871 -0.0663 -0.3123
  331ccc     C6 8744  11.104   8.866   7.676  0.0753 -0.3688  0.2850
  331ccc     H6 8745  11.619   8.774   7.868  0.2732  1.1234 -1.0263
  331ccc     H7 8746  11.404   8.941   7.901  0.3491  0.1046 -0.6316
  331ccc     H8 8747  11.726   8.918   7.670 -0.8808  1.1836  1.1092
  331ccc     H9 8748  11.085   8.973   7.694 -1.3637 -0.7300  1.0525
  331ccc    H10 8749  11.077   8.802   7.761 -0.5633 -1.4923 -0.7367
  331ccc     O5 8750  11.036   8.836   7.555 -0.3458 -0.2202 -0.1956
  331ccc    H11 8751  11.036   8.917   7.501 -0.4000  1.4639  2.1710
  331ccc     O6 8752  11.308   8.936   7.554 -0.1510 -0.0173 -0.1405
  332ccc     C1 8753  12.179   9.068   7.028 -0.3638  0.3218 -0.1810
  332ccc     C2 8754  12.237   9.208   7.076  0.7203  0.5014 -0.2486
  332ccc     H1 8755  12.237   9.015   6.951  0.7915 -0.0221  0.8987
  332ccc     H2 8756  12.339   9.193   7.113 -0.5446 -0.9733  2.9712
  332ccc     C3 8757  12.242   9.293   6.950  0.0452 -0.4102  0.7505
  332ccc     C4 8758  12.100   9.322   6.901  0.3819 -0.0085 -0.6226
  332ccc     C5 8759  12.015   9.186   6.872 -0.2160 -0.1713  0.3046
  332ccc     H3 8760  12.050   9.378   6.980  0.2883 -0.7880 -0.1198
  332ccc     H4 8761  12.299   9.231   6.880 -0.6901 -0.3910  0.1154
  332ccc     H5 8762  12.029   9.152   6.769 -0.9071  0.9754 -0.1902
  332ccc     O1 8763  11.881   9.217   6.888  0.3663  0.1484 -0.1800
  332ccc     O2 8764  12.110   9.403   6.778  0.0744  0.0967 -0.3785
  332ccc     O3 8765  12.312   9.424   6.974  0.0610 -0.1542 -0.0088
  332ccc     O4 8766  12.156   9.258   7.180  0.0653 -0.0760  0.2166
  332ccc     C6 8767  12.179   8.957   7.143  0.0090  0.1872  0.2884
  332ccc     H6 8768  12.354   9.444   6.889 -1.3082 -2.9072 -1.4513
  332ccc     H7 8769  12.156   9.175   7.232  1.7294 -1.3938 -1.7160
  332ccc     H8 8770  12.133   9.496   6.798  1.0555 -0.1714 -0.2371
  332ccc     H9 8771  12.280   8.914   7.145  0.8225  1.9266 -0.4850
  332ccc    H10 8772  12.111   8.875   7.117  1.2096 -0.8645  0.3411
  332ccc     O5 8773  12.153   9.017   7.270 -0.0949 -0.1472  0.3139
  332ccc    H11 8774  12.147   8.941   7.330 -0.8183  0.0502  0.4942
  332ccc     O6 8775  12.044   9.092   6.978  0.2018 -0.3204 -0.2555
  333ccc     C1 8776  11.343   7.826   7.273  0.0270  0.2629 -0.0717
  333ccc     C2 8777  11.201   7.887   7.243  0.6299 -0.1608 -0.8815
  333ccc     H1 8778  11.390   7.873   7.360  2.6041  1.4524 -1.9839
  333ccc     H2 8779  11.138   7.878   7.333  2.4592 -0.5558  0.4340
  333ccc     C3 8780  11.213   8.042   7.226 -0.3013  0.3632 -0.0634
  333ccc     C4 8781  11.320   8.079   7.113  0.0505  0.5054  0.0649
  333ccc     C5 8782  11.454   7.994   7.127 -0.0486  0.1408 -0.5309
  333ccc     H3 8783  11.284   8.063   7.011 -1.4413  1.6214  0.3811
  333ccc     H4 8784  11.253   8.078   7.321 -3.0618 -1.6174  1.9862
  333ccc     H5 8785  11.520   8.026   7.208 -0.8505 -1.1913  0.7170
  333ccc     O1 8786  11.525   8.002   7.003 -0.2906  0.3647  0.7008
  333ccc     O2 8787  11.343   8.218   7.121 -0.8905 -0.1730 -0.3501
  333ccc     O3 8788  11.084   8.104   7.209 -0.2745 -0.2281 -0.5164
  333ccc     O4 8789  11.144   7.826   7.124 -0.1419  0.1328  0.2139
  333ccc     C6 8790  11.331   7.673   7.295  0.3016  0.6395 -0.5839
  333ccc     H6 8791  11.093   8.193   7.246  0.0865 -0.6179  0.3554
  333ccc     H7 8792  11.202   7.748   7.116  0.2666  0.2647  1.5148
  333ccc     H8 8793  11.256   8.257   7.097 -1.7739 -1.3795  0.7346
  333ccc     H9 8794  11.271   7.649   7.383  1.5750  0.8329  0.3713
  333ccc    H10 8795  11.432   7.641   7.323  0.3863  0.8949 -0.5869
  333ccc     O5 8796  11.279   7.595   7.186  0.3632  0.4674 -0.1609
  333ccc    H11 8797  11.306   7.503   7.205 -2.4578 -0.3622  0.3378
  333ccc     O6 8798  11.427   7.854   7.155 -0.2348 -0.0837  0.2730
  334ccc     C1 8799  10.885   8.655   7.149 -0.0692 -0.0147  0.4684
  334ccc     C2 8800  10.979   8.701   7.254 -0.3656  0.4482 -0.2114
  334ccc     H1 8801  10.806   8.598   7.199 -0.1332 -0.2613  0.0878
  334ccc     H2 8802  10.941   8.775   7.326  0.9776  1.2876 -0.3418
  334ccc     C3 8803  11.039   8.575   7.334  0.4224 -0.3264  0.4945
  334ccc     C4 8804  11.089   8.460   7.245  0.0303 -0.0639  0.2230
  334ccc     C5 8805  10.993   8.432   7.119  0.1061  0.2951 -0.2172
  334ccc     H3 8806  11.181   8.491   7.194 -0.6953 -0.9353 -1.7579
  334ccc     H4 8807  10.954   8.546   7.397  0.4305 -0.8352  0.2734
  334ccc     H5 8808  10.907   8.371   7.151 -0.2374  0.1029 -1.4720
  334ccc     O1 8809  11.073   8.355   7.026  0.3229 -0.0040  0.3263
  334ccc     O2 8810  11.112   8.341   7.321 -0.3563 -0.0318  0.1230
  334ccc     O3 8811  11.144   8.615   7.428  0.0174  0.0953 -0.2572
  334ccc     O4 8812  11.081   8.778   7.193 -0.4062  0.1973  0.0598
  334ccc     C6 8813  10.809   8.757   7.066 -0.3906 -0.2677  0.6883
  334ccc     H6 8814  11.118   8.699   7.470  1.8979  0.2190  0.7561
  334ccc     H7 8815  11.165   8.745   7.230 -0.7316 -0.6635  0.0303
  334ccc     H8 8816  11.193   8.369   7.368 -0.2216  1.0379 -0.7331
  334ccc     H9 8817  10.878   8.819   7.009  0.6331 -2.1076 -0.1609
  334ccc    H10 8818  10.757   8.825   7.135 -1.7152  2.5301 -2.7618
  334ccc     O5 8819  10.706   8.689   6.999 -0.5705 -0.7202 -0.1892
  334ccc    H11 8820  10.742   8.652   6.917 -1.3152  2.9878 -2.4049
  334ccc     O6 8821  10.948   8.559   7.060  0.2014 -0.3028 -0.6198
  335ccc     C1 8822   7.662   7.978   8.407 -0.4229 -0.2266 -0.7285
  335ccc     C2 8823   7.685   7.838   8.478 -0.8720 -0.2822 -0.1304
  335ccc     H1 8824   7.685   8.061   8.475 -0.9161  1.2837 -2.3283
  335ccc     H2 8825   7.784   7.842   8.526 -1.1780  2.2612  0.4290
  335ccc     C3 8826   7.577   7.821   8.584 -0.0210  0.9676 -0.7758
  335ccc     C4 8827   7.436   7.847   8.528  0.4202  0.4092  0.3348
  335ccc     C5 8828   7.432   7.986   8.465 -0.2029 -0.7444  0.6943
  335ccc     H3 8829   7.417   7.767   8.457 -0.0948  1.3856 -0.6652
  335ccc     H4 8830   7.599   7.895   8.662  0.3592  1.8450 -1.6891
  335ccc     H5 8831   7.446   8.064   8.541 -1.2179  1.0826 -0.8972
  335ccc     O1 8832   7.306   8.009   8.399  0.5109  0.1556 -0.1384
  335ccc     O2 8833   7.340   7.838   8.641  0.2990  0.6742  0.3226
  335ccc     O3 8834   7.581   7.687   8.641  0.7556 -0.2511  0.2320
  335ccc     O4 8835   7.682   7.736   8.381 -0.0864 -0.0924 -0.3573
  335ccc     C6 8836   7.766   7.991   8.292 -0.6489  0.4244 -0.2661
  335ccc     H6 8837   7.580   7.627   8.565 -2.0468  0.7615 -0.6684
  335ccc     H7 8838   7.715   7.770   8.296 -0.8123 -1.8371 -1.3873
  335ccc     H8 8839   7.255   7.873   8.609 -2.1648 -4.0713  0.7475
  335ccc     H9 8840   7.865   7.972   8.336 -0.2664 -1.3821 -1.7542
  335ccc    H10 8841   7.755   8.096   8.262 -1.6244  0.7557  1.1774
  335ccc     O5 8842   7.751   7.893   8.184  0.5154  0.2396 -0.1087
  335ccc    H11 8843   7.802   7.931   8.110  0.9189  1.6930  0.8576
  335ccc     O6 8844   7.531   7.992   8.357  0.6063  0.1916  0.0599
  336ccc     C1 8845   7.024   8.980   8.545 -0.4259  0.0691 -0.1277
  336ccc     C2 8846   7.071   9.065   8.670  0.1934 -0.7508 -0.7188
  336ccc     H1 8847   6.989   8.882   8.581 -0.8882 -0.0301 -0.8279
  336ccc     H2 8848   6.990   9.084   8.742  0.0653  0.0370 -1.0555
  336ccc     C3 8849   7.186   8.992   8.750  0.1016 -0.4497  0.0487
  336ccc     C4 8850   7.296   8.950   8.649  0.0498  0.3035 -0.5257
  336ccc     C5 8851   7.239   8.872   8.534  0.4970 -0.0180  0.1910
  336ccc     H3 8852   7.341   9.041   8.607 -0.3528  0.3774 -0.8000
  336ccc     H4 8853   7.149   8.902   8.800  0.1246 -0.6086 -0.2208
  336ccc     H5 8854   7.190   8.786   8.581  0.1889  0.6605  1.1529
  336ccc     O1 8855   7.353   8.844   8.448 -0.7779 -0.5232 -0.8284
  336ccc     O2 8856   7.395   8.870   8.718 -0.4566  0.4663  0.1573
  336ccc     O3 8857   7.247   9.081   8.851  0.2991 -0.2148  0.0542
  336ccc     O4 8858   7.117   9.183   8.604  0.1464 -0.9501  0.3037
  336ccc     C6 8859   6.917   9.034   8.444 -0.0346 -0.2956 -0.5436
  336ccc     H6 8860   7.318   9.035   8.898  0.1150  0.3162  0.8765
  336ccc     H7 8861   7.139   9.248   8.673 -0.5625 -0.4174  0.0302
  336ccc     H8 8862   7.475   8.925   8.725  0.6488 -1.1591  0.9999
  336ccc     H9 8863   6.819   8.996   8.477  1.5158 -1.4318  3.3157
  336ccc    H10 8864   6.939   8.991   8.345 -0.0709  1.1142 -1.1826
  336ccc     O5 8865   6.931   9.175   8.443  0.1870  0.0653 -0.0446
  336ccc    H11 8866   7.015   9.191   8.491 -0.3351  1.2023  0.5261
  336ccc     O6 8867   7.137   8.952   8.471 -0.1664  0.0098 -0.0988
  337ccc     C1 8868   7.591   7.650   9.169  0.2719  0.1992  0.1071
  337ccc     C2 8869   7.563   7.594   9.026 -0.1145 -0.3232 -0.6588
  337ccc     H1 8870   7.503   7.637   9.233 -1.2138 -0.8798 -2.0526
  337ccc     H2 8871   7.551   7.485   9.025 -0.5280 -0.3485  1.6081
  337ccc     C3 8872   7.447   7.672   8.960  0.7191 -0.5620  0.3855
  337ccc     C4 8873   7.485   7.823   8.953 -0.0390 -0.3547  0.0443
  337ccc     C5 8874   7.521   7.879   9.099 -0.4300  0.0469 -0.3141
  337ccc     H3 8875   7.575   7.828   8.891 -1.7812  0.8664 -2.5758
  337ccc     H4 8876   7.360   7.656   9.025  0.0080  0.3442 -0.3101
  337ccc     H5 8877   7.439   7.899   9.168  2.0361  1.0364  2.5257
  337ccc     O1 8878   7.601   8.001   9.075  0.1355 -0.2317 -0.3841
  337ccc     O2 8879   7.375   7.907   8.888 -0.0720 -0.2061  0.1168
  337ccc     O3 8880   7.412   7.612   8.835  0.6781  0.0502 -0.5115
  337ccc     O4 8881   7.686   7.618   8.955  0.2513  0.1195  0.3476
  337ccc     C6 8882   7.709   7.590   9.248  0.3375  0.5473 -0.1947
  337ccc     H6 8883   7.479   7.641   8.771  0.5591 -2.2853 -1.8139
  337ccc     H7 8884   7.746   7.638   9.029 -2.7635  1.5021  2.6025
  337ccc     H8 8885   7.375   7.870   8.798 -2.1349  1.6281 -0.7304
  337ccc     H9 8886   7.706   7.483   9.226  1.7541  0.0966  1.4869
  337ccc    H10 8887   7.704   7.599   9.358 -1.0837 -0.4622 -0.1533
  337ccc     O5 8888   7.834   7.645   9.205 -0.2642 -0.0742  1.0835
  337ccc    H11 8889   7.907   7.586   9.231 -0.4964  0.0924  2.1595
  337ccc     O6 8890   7.612   7.794   9.163  0.2238 -0.1470 -0.4719
  338ccc     C1 8891   8.036   8.427   9.899 -0.2815 -0.2374  0.1308
  338ccc     C2 8892   8.170   8.506   9.922  0.5810 -0.3727  1.1256
  338ccc     H1 8893   8.062   8.336   9.843  3.4899 -0.3222  1.6823
  338ccc     H2 8894   8.235   8.431   9.969  1.7353  1.3676  2.4398
  338ccc     C3 8895   8.213   8.549   9.779  0.2635  0.1478 -0.3749
  338ccc     C4 8896   8.100   8.627   9.699 -0.3534  0.1924 -0.7254
  338ccc     C5 8897   7.974   8.538   9.688 -0.1108 -0.3178  0.3742
  338ccc     H3 8898   8.069   8.721   9.746 -0.4541  0.7374 -1.8351
  338ccc     H4 8899   8.256   8.461   9.729  0.3329 -0.1479  0.1958
  338ccc     H5 8900   7.993   8.444   9.635 -3.1435 -1.4652  1.1190
  338ccc     O1 8901   7.866   8.619   9.633 -0.0426  0.4163 -0.1167
  338ccc     O2 8902   8.153   8.652   9.567  0.1563 -0.4916 -0.3744
  338ccc     O3 8903   8.328   8.640   9.793 -0.2743  0.3255 -0.2363
  338ccc     O4 8904   8.146   8.618   9.999 -0.2610  0.2197  0.1257
  338ccc     C6 8905   7.974   8.389  10.038 -0.2698 -0.4166  0.1911
  338ccc     H6 8906   8.399   8.585   9.833 -0.5378 -0.1765 -0.4457
  338ccc     H7 8907   8.217   8.681   9.980 -0.9460  0.4934 -1.8748
  338ccc     H8 8908   8.246   8.627   9.572  0.2294  0.0266  1.9546
  338ccc     H9 8909   8.052   8.345  10.101  1.0685  0.6691 -0.6662
  338ccc    H10 8910   7.897   8.314  10.014 -0.3176  0.2194 -1.8456
  338ccc     O5 8911   7.924   8.508  10.098 -0.0477  0.5821 -0.2896
  338ccc    H11 8912   8.001   8.562  10.072  0.1920  0.3128 -0.1407
  338ccc     O6 8913   7.940   8.503   9.823 -0.6590 -0.2897 -0.7458
  339ccc     C1 8914   8.626   7.096   6.970 -0.0322 -0.2635 -0.8988
  339ccc     C2 8915   8.510   7.153   6.895  0.4251  0.4856  0.8407
  339ccc     H1 8916   8.666   7.006   6.921  2.7917 -0.8068  2.0308
  339ccc     H2 8917   8.536   7.161   6.789  0.8621  1.7303  1.0186
  339ccc     C3 8918   8.385   7.059   6.906 -0.0887  0.3436  0.1560
  339ccc     C4 8919   8.358   7.032   7.058  0.9579  0.0879  0.2492
  339ccc     C5 8920   8.483   6.956   7.111 -0.6838 -0.1853 -0.0405
  339ccc     H3 8921   8.350   7.125   7.116  2.0851 -0.4620  1.3392
  339ccc     H4 8922   8.415   6.966   6.858  3.3439  0.9446  0.8742
  339ccc     H5 8923   8.504   6.856   7.072 -0.1867 -0.7388  1.5445
  339ccc     O1 8924   8.458   6.927   7.252 -0.0714 -0.4145 -0.4200
  339ccc     O2 8925   8.240   6.950   7.064  0.3271 -0.4773  0.2019
  339ccc     O3 8926   8.281   7.130   6.836 -0.0425  0.6215 -0.3472
  339ccc     O4 8927   8.478   7.277   6.958 -0.1830  0.3926 -0.2716
  339ccc     C6 8928   8.757   7.190   6.985 -0.4461 -0.8330 -0.0834
  339ccc     H6 8929   8.268   7.211   6.887 -0.5497  0.4183 -0.1458
  339ccc     H7 8930   8.562   7.291   7.005  0.1281  1.7016 -1.1674
  339ccc     H8 8931   8.212   6.935   7.156  0.3784  1.3321  0.5526
  339ccc     H9 8932   8.787   7.211   6.882  3.3853 -1.4634  0.7278
  339ccc    H10 8933   8.840   7.135   7.031  0.4490  0.3325 -0.2502
  339ccc     O5 8934   8.729   7.304   7.060 -0.1685  0.0860  0.1281
  339ccc    H11 8935   8.804   7.363   7.043  1.2678 -2.2152 -1.9756
  339ccc     O6 8936   8.591   7.054   7.108  0.7475 -0.1443  0.4238
  340ccc     C1 8937   7.769   7.341   7.405 -0.2412  0.3941  0.3302
  340ccc     C2 8938   7.717   7.413   7.278 -0.3790 -0.5197  0.7697
  340ccc     H1 8939   7.718   7.388   7.489 -0.2433  2.1572 -0.6226
  340ccc     H2 8940   7.611   7.423   7.303 -0.5879 -0.3406 -0.1680
  340ccc     C3 8941   7.771   7.557   7.276  0.4407 -0.2367 -0.7637
  340ccc     C4 8942   7.924   7.560   7.288  0.2282  0.7287 -0.3034
  340ccc     C5 8943   7.959   7.486   7.419  0.1372  0.1471 -0.3216
  340ccc     H3 8944   7.978   7.510   7.206  1.4302  0.8543  0.3746
  340ccc     H4 8945   7.724   7.597   7.367 -1.0859  0.5798 -1.8769
  340ccc     H5 8946   7.918   7.531   7.510 -0.1360 -0.6740 -0.0263
  340ccc     O1 8947   8.103   7.473   7.432  0.4911  0.2761 -0.2251
  340ccc     O2 8948   7.972   7.698   7.291 -0.2037 -0.2657  0.4447
  340ccc     O3 8949   7.732   7.635   7.162  0.0501  0.5636  0.0860
  340ccc     O4 8950   7.737   7.341   7.152  0.6769 -0.0150  0.0159
  340ccc     C6 8951   7.718   7.188   7.400 -0.2734  0.2528  0.4136
  340ccc     H6 8952   7.635   7.630   7.162  0.0822 -0.6402 -1.2504
  340ccc     H7 8953   7.667   7.384   7.100  0.4859 -0.6494 -0.2527
  340ccc     H8 8954   8.069   7.690   7.286 -0.1462  0.7244 -0.2352
  340ccc     H9 8955   7.785   7.120   7.346  1.4323  0.4307  2.1883
  340ccc    H10 8956   7.623   7.180   7.347 -1.5272 -3.4804  2.8603
  340ccc     O5 8957   7.706   7.148   7.535 -0.1113  0.4013 -0.2878
  340ccc    H11 8958   7.794   7.154   7.577  0.2291 -2.2917 -0.4816
  340ccc     O6 8959   7.912   7.348   7.420 -0.4123 -0.2406 -0.7062
  341ccc     C1 8960   9.443   7.636   8.311  0.1946 -0.5054 -0.1902
  341ccc     C2 8961   9.389   7.716   8.432  0.8254 -0.2945 -0.0983
  341ccc     H1 8962   9.480   7.694   8.226  0.9301  0.7717  0.9564
  341ccc     H2 8963   9.467   7.786   8.466 -0.1319  0.2472  1.0617
  341ccc     C3 8964   9.255   7.789   8.396  0.4159 -0.0327 -1.0087
  341ccc     C4 8965   9.156   7.695   8.323 -0.1665 -0.0506  0.3075
  341ccc     C5 8966   9.217   7.587   8.224 -0.1615 -0.1249 -0.8271
  341ccc     H3 8967   9.104   7.646   8.407  2.6748  1.1811  2.9879
  341ccc     H4 8968   9.274   7.865   8.319 -0.3568 -0.2011 -1.3688
  341ccc     H5 8969   9.230   7.640   8.129  1.6573  1.9662  0.4758
  341ccc     O1 8970   9.127   7.480   8.220  0.1453 -0.0726 -0.1702
  341ccc     O2 8971   9.062   7.770   8.254 -0.0670  0.1681  0.2056
  341ccc     O3 8972   9.201   7.853   8.518  0.6068 -0.1028  0.0507
  341ccc     O4 8973   9.360   7.619   8.531 -0.3526 -0.4639 -0.3831
  341ccc     C6 8974   9.571   7.556   8.360 -0.1853 -0.1950  1.0100
  341ccc     H6 8975   9.142   7.922   8.482 -2.9038 -2.6287  0.4784
  341ccc     H7 8976   9.359   7.677   8.609  0.3840  1.0107 -1.4186
  341ccc     H8 8977   9.106   7.824   8.186 -1.6029  1.9518  0.5516
  341ccc     H9 8978   9.531   7.472   8.418 -0.5950 -0.3389  0.5256
  341ccc    H10 8979   9.647   7.608   8.419 -0.3285  0.1862  0.8583
  341ccc     O5 8980   9.622   7.492   8.251 -0.5099 -0.1714  0.0351
  341ccc    H11 8981   9.556   7.421   8.260 -1.1895  0.4165 -0.2137
  341ccc     O6 8982   9.348   7.541   8.268  0.8086  0.2099 -0.3482
  342ccc     C1 8983   9.773   7.359   7.680  0.2112  0.3789 -0.2653
  342ccc     C2 8984   9.819   7.312   7.824  0.5893  0.3111 -0.0790
  342ccc     H1 8985   9.846   7.432   7.643 -0.4285  0.4157 -1.5007
  342ccc     H2 8986   9.920   7.269   7.814 -0.0341 -0.8501 -1.9313
  342ccc     C3 8987   9.820   7.430   7.930  0.1237  0.8213 -0.5458
  342ccc     C4 8988   9.686   7.495   7.933  0.8306  0.3397  1.2082
  342ccc     C5 8989   9.637   7.537   7.792 -0.8899 -0.2077  0.2694
  342ccc     H3 8990   9.617   7.414   7.960  0.3804 -0.2461 -1.4003
  342ccc     H4 8991   9.896   7.502   7.896 -1.2124  2.2760 -0.5434
  342ccc     H5 8992   9.698   7.618   7.751 -1.3477 -0.1829 -0.3770
  342ccc     O1 8993   9.501   7.582   7.812 -0.8044 -0.3108  0.1203
  342ccc     O2 8994   9.678   7.601   8.030  0.2734  0.1179 -0.2871
  342ccc     O3 8995   9.857   7.371   8.063  0.4512 -0.1976  0.4587
  342ccc     O4 8996   9.729   7.210   7.878  0.2842 -0.0422  0.0264
  342ccc     C6 8997   9.776   7.243   7.575 -0.1325 -0.4562  0.7962
  342ccc     H6 8998   9.877   7.444   8.125  0.0078 -2.1295  3.0510
  342ccc     H7 8999   9.784   7.178   7.952  0.1651  0.4869  0.3476
  342ccc     H8 9000   9.654   7.547   8.108  1.2075 -3.3896 -2.2225
  342ccc     H9 9001   9.680   7.191   7.577 -0.3741 -0.0341  0.2916
  342ccc    H10 9002   9.858   7.176   7.605  0.2677 -0.4949 -0.3390
  342ccc     O5 9003   9.776   7.311   7.447 -0.2057 -0.5523 -0.3488
  342ccc    H11 9004   9.809   7.254   7.375  0.4231 -1.0139  0.2888
  342ccc     O6 9005   9.643   7.425   7.701 -0.1429  0.0475  0.1692
  343ccc     C1 9006   8.374   9.607   6.223  0.8338 -0.2688 -0.1249
  343ccc     C2 9007   8.450   9.676   6.107 -0.8687  0.5721  0.1808
  343ccc     H1 9008   8.269   9.610   6.190  1.0019  3.4941 -0.7731
  343ccc     H2 9009   8.429   9.621   6.015 -2.3734  2.4012 -0.6445
  343ccc     C3 9010   8.404   9.820   6.089 -0.2357 -0.0549 -0.6012
  343ccc     C4 9011   8.418   9.903   6.210  0.1160 -0.5138 -0.4374
  343ccc     C5 9012   8.346   9.826   6.325 -0.1928 -0.0625 -0.6856
  343ccc     H3 9013   8.525   9.908   6.236 -0.2472  0.5134  1.0110
  343ccc     H4 9014   8.296   9.811   6.069 -0.6595  0.8657  1.1310
  343ccc     H5 9015   8.238   9.827   6.307  0.1134  0.8035 -2.6911
  343ccc     O1 9016   8.361   9.882   6.456 -0.6406 -0.0583  0.5071
  343ccc     O2 9017   8.368  10.037   6.201 -0.5947 -0.1152  0.3040
  343ccc     O3 9018   8.468   9.884   5.979  0.4922 -0.0397  1.0113
  343ccc     O4 9019   8.592   9.676   6.146  0.1471 -0.1023 -0.2247
  343ccc     C6 9020   8.427   9.465   6.253  0.7310 -0.1690  0.1745
  343ccc     H6 9021   8.484   9.821   5.907  0.7003  1.6670 -0.5265
  343ccc     H7 9022   8.639   9.683   6.061  2.2594  0.3891  0.9045
  343ccc     H8 9023   8.412  10.073   6.122 -0.5876 -0.4836  0.1351
  343ccc     H9 9024   8.364   9.389   6.300  0.4915  0.2113  0.4773
  343ccc    H10 9025   8.514   9.479   6.319  3.1614 -0.3770 -2.7881
  343ccc     O5 9026   8.463   9.411   6.130  0.8312 -0.5848  0.2068
  343ccc    H11 9027   8.549   9.366   6.138  2.2339  1.9609  0.6025
  343ccc     O6 9028   8.392   9.693   6.338 -0.1080 -0.5244  0.2287
  344ccc     C1 9029   8.899   9.955   5.978 -0.5636 -0.8571 -0.8794
  344ccc     C2 9030   8.899  10.102   5.929 -0.0141  0.1035 -0.3192
  344ccc     H1 9031   8.807   9.904   5.947 -0.3477 -3.1971  1.8969
  344ccc     H2 9032   8.899  10.097   5.819 -1.7579 -0.7250 -0.3293
  344ccc     C3 9033   8.774  10.173   5.984 -0.0163  0.9662  0.5237
  344ccc     C4 9034   8.779  10.174   6.138  0.5263  0.4891 -0.1344
  344ccc     C5 9035   8.788  10.021   6.186 -0.6183 -0.2446  0.0017
  344ccc     H3 9036   8.866  10.232   6.173 -1.2728  2.8852  0.6470
  344ccc     H4 9037   8.685  10.117   5.954 -0.4620  1.8277  0.1919
  344ccc     H5 9038   8.703   9.958   6.156 -0.7598 -1.0790  1.9866
  344ccc     O1 9039   8.809  10.022   6.335  0.4621 -0.0267  1.0492
  344ccc     O2 9040   8.661  10.240   6.188  0.3646  0.8886 -0.5305
  344ccc     O3 9041   8.764  10.307   5.926 -0.4450  0.0573 -0.2047
  344ccc     O4 9042   9.018  10.169   5.971 -0.3811  0.3622 -0.2188
  344ccc     C6 9043   9.025   9.881   5.916 -0.1776  0.0197  0.1283
  344ccc     H6 9044   8.723  10.296   5.839 -1.7804  0.4462  0.3591
  344ccc     H7 9045   9.048  10.202   5.885  1.9355 -0.9922 -0.0300
  344ccc     H8 9046   8.666  10.246   6.285 -1.5250 -0.2595 -0.3077
  344ccc     H9 9047   9.112   9.911   5.975 -0.4653  1.0730  0.0454
  344ccc    H10 9048   9.041   9.919   5.814 -2.8172  0.1887 -0.3017
  344ccc     O5 9049   9.006   9.741   5.913 -0.1945  0.7525  0.1621
  344ccc    H11 9050   9.097   9.706   5.903 -0.9208 -0.9595 -0.8613
  344ccc     O6 9051   8.902   9.956   6.122 -0.1496 -0.1681  0.2845
  345ccc     C1 9052   7.784  10.224   8.217  0.7348  0.1446  0.7470
  345ccc     C2 9053   7.673  10.115   8.254 -0.1675  0.2902 -0.6497
  345ccc     H1 9054   7.756  10.327   8.244  0.4152  0.4647 -0.7445
  345ccc     H2 9055   7.649  10.113   8.361  0.2356 -0.5678 -0.5618
  345ccc     C3 9056   7.539  10.151   8.181  0.2381 -0.2623 -0.5516
  345ccc     C4 9057   7.559  10.167   8.030 -0.1861 -0.1471 -0.1521
  345ccc     C5 9058   7.679  10.251   7.986 -0.5973 -0.1774 -0.3359
  345ccc     H3 9059   7.577  10.065   7.996 -1.5781 -0.1787 -0.8788
  345ccc     H4 9060   7.507  10.249   8.217 -0.7439 -0.7229 -0.1209
  345ccc     H5 9061   7.656  10.358   7.991  1.5437  0.2999  3.0021
  345ccc     O1 9062   7.705  10.210   7.852  0.8063  0.4000  0.2574
  345ccc     O2 9063   7.437  10.220   7.968  0.3180 -0.1087 -0.0482
  345ccc     O3 9064   7.430  10.065   8.219  0.1198 -0.2427 -0.0231
  345ccc     O4 9065   7.715   9.978   8.211  0.3568  0.0992 -0.0341
  345ccc     C6 9066   7.920  10.203   8.285  0.2966  0.1612  0.1821
  345ccc     H6 9067   7.392  10.031   8.136  2.4663 -0.0331 -1.2798
  345ccc     H7 9068   7.649   9.911   8.238  1.7298 -1.5344 -0.5412
  345ccc     H8 9069   7.403  10.161   7.898  0.5829 -2.1925  1.4715
  345ccc     H9 9070   7.906  10.226   8.392 -1.5966  1.1924 -0.2374
  345ccc    H10 9071   7.990  10.279   8.248 -0.3058  0.5185 -0.2483
  345ccc     O5 9072   7.966  10.072   8.262  0.0052  0.3949  0.3848
  345ccc    H11 9073   7.881  10.025   8.250  0.0509  0.1449  1.0037
  345ccc     O6 9074   7.800  10.229   8.072  0.2920 -0.4836 -0.1095
  346ccc     C1 9075   7.531   9.681   7.015 -0.3275  0.1023 -0.4324
  346ccc     C2 9076   7.379   9.702   7.015 -0.4591 -0.5669  0.1005
  346ccc     H1 9077   7.542   9.581   7.059  0.4251 -0.0445 -0.9361
  346ccc     H2 9078   7.337   9.611   6.969 -1.2655 -2.1428  3.5947
  346ccc     C3 9079   7.318   9.700   7.159  0.8951  0.6550 -0.0579
  346ccc     C4 9080   7.405   9.799   7.246 -0.6029 -1.2192  0.2448
  346ccc     C5 9081   7.559   9.768   7.242  0.2519  0.1379 -0.1079
  346ccc     H3 9082   7.409   9.899   7.202  1.3710 -0.8221  1.1962
  346ccc     H4 9083   7.323   9.598   7.199 -1.8588  1.3218  2.3059
  346ccc     H5 9084   7.584   9.669   7.283  1.2510 -0.1194 -1.2777
  346ccc     O1 9085   7.632   9.867   7.313 -0.4518  0.7564 -0.6509
  346ccc     O2 9086   7.352   9.796   7.380  0.5303 -0.3385  0.2419
  346ccc     O3 9087   7.178   9.734   7.161  0.1010  0.2886 -0.0122
  346ccc     O4 9088   7.349   9.815   6.941 -0.2065  0.4868  0.5094
  346ccc     C6 9089   7.592   9.655   6.877  0.1294 -0.0922  0.6825
  346ccc     H6 9090   7.154   9.740   7.067  0.6509  1.1117 -0.1027
  346ccc     H7 9091   7.422   9.821   6.877 -2.5419 -0.2440 -2.4564
  346ccc     H8 9092   7.256   9.793   7.366  0.7972 -2.2922 -1.4635
  346ccc     H9 9093   7.558   9.563   6.828  1.3367  0.2469 -0.8548
  346ccc    H10 9094   7.701   9.646   6.888  0.1378 -0.9325  0.0489
  346ccc     O5 9095   7.562   9.771   6.801  0.2359  0.4052 -0.4833
  346ccc    H11 9096   7.637   9.785   6.741  0.8438  1.1719  0.4228
  346ccc     O6 9097   7.596   9.776   7.105  0.9604 -0.0619  0.0212
  347ccc     C1 9098   8.619   6.552   6.157 -0.6630 -0.7646  0.5661
  347ccc     C2 9099   8.476   6.514   6.217  0.3254  0.1789 -0.1847
  347ccc     H1 9100   8.697   6.526   6.229  0.9432 -0.6783 -1.0701
  347ccc     H2 9101   8.479   6.410   6.253  0.5502 -0.2796 -1.4990
  347ccc     C3 9102   8.429   6.605   6.331 -0.4192  0.2056 -0.0639
  347ccc     C4 9103   8.442   6.753   6.297 -0.6089 -0.5439  0.8452
  347ccc     C5 9104   8.585   6.785   6.237  0.0334  0.3239 -0.0306
  347ccc     H3 9105   8.365   6.793   6.229  2.3537  3.2079 -0.6084
  347ccc     H4 9106   8.496   6.584   6.415  1.7788 -0.1776 -1.7828
  347ccc     H5 9107   8.662   6.767   6.312  1.2169 -0.7165 -1.4227
  347ccc     O1 9108   8.578   6.929   6.205 -0.3130 -0.2801  0.3088
  347ccc     O2 9109   8.435   6.828   6.423  0.0566  0.2682  0.9858
  347ccc     O3 9110   8.301   6.559   6.378  0.4357  0.3207 -0.4631
  347ccc     O4 9111   8.376   6.516   6.118  0.3744  0.1727  0.1641
  347ccc     C6 9112   8.655   6.475   6.023 -0.3465  0.3807 -0.0124
  347ccc     H6 9113   8.304   6.555   6.475  1.0626 -0.1705 -0.4951
  347ccc     H7 9114   8.295   6.504   6.170  0.3520 -0.6462 -0.0485
  347ccc     H8 9115   8.341   6.852   6.428 -0.2384 -0.7864  0.7518
  347ccc     H9 9116   8.663   6.368   6.047  0.8395  0.1064 -1.4591
  347ccc    H10 9117   8.755   6.496   5.982 -0.2975 -2.1361 -1.3801
  347ccc     O5 9118   8.553   6.498   5.928  0.2087 -0.8046  0.2376
  347ccc    H11 9119   8.487   6.499   5.999 -0.9869 -3.1236 -0.7335
  347ccc     O6 9120   8.614   6.692   6.125  0.3692  0.3217 -0.0449
  348ccc     C1 9121   7.910   7.635   5.777  0.1170  0.3522  0.5550
  348ccc     C2 9122   7.944   7.733   5.656  0.7405 -0.4208 -0.7217
  348ccc     H1 9123   7.957   7.689   5.860  1.1323 -0.5784  0.6102
  348ccc     H2 9124   7.902   7.833   5.675  2.3688 -0.2415  2.8106
  348ccc     C3 9125   8.104   7.739   5.630  0.6041 -0.1536  0.0687
  348ccc     C4 9126   8.170   7.602   5.643 -0.3857 -0.4641  0.8895
  348ccc     C5 9127   8.122   7.505   5.752  0.4011  0.4981 -0.1222
  348ccc     H3 9128   8.144   7.550   5.551 -0.6444  1.7996 -0.3876
  348ccc     H4 9129   8.130   7.799   5.718 -1.6542  0.6017  0.2915
  348ccc     H5 9130   8.166   7.538   5.847 -0.9503 -0.3240  0.8290
  348ccc     O1 9131   8.166   7.371   5.731 -0.3032 -0.3013 -0.2180
  348ccc     O2 9132   8.314   7.635   5.650  0.8979 -0.4819  0.1183
  348ccc     O3 9133   8.133   7.810   5.507 -0.2346  0.2779  0.3331
  348ccc     O4 9134   7.895   7.671   5.542  0.7272 -0.3243 -0.4714
  348ccc     C6 9135   7.759   7.613   5.801  0.2432 -0.6302  0.2399
  348ccc     H6 9136   8.107   7.904   5.504  0.2744  0.4206  0.3156
  348ccc     H7 9137   7.881   7.743   5.478 -0.1589 -0.2525 -0.2213
  348ccc     H8 9138   8.318   7.689   5.569  1.0919 -2.3627 -1.1938
  348ccc     H9 9139   7.700   7.705   5.801 -1.2444 -1.5410 -0.8877
  348ccc    H10 9140   7.726   7.568   5.895 -1.5433 -2.2627 -1.0680
  348ccc     O5 9141   7.712   7.547   5.691 -0.2729 -0.1026 -0.0797
  348ccc    H11 9142   7.783   7.573   5.630 -1.3019 -1.1494 -1.8050
  348ccc     O6 9143   7.978   7.508   5.764 -0.2814 -0.1623 -0.1132
  349ccc     C1 9144   6.859   8.012   5.838 -0.6760  0.6031  0.4613
  349ccc     C2 9145   6.756   8.110   5.897 -0.0756 -0.2746 -0.5733
  349ccc     H1 9146   6.827   7.908   5.851 -1.4047  0.6902 -0.5406
  349ccc     H2 9147   6.662   8.086   5.845 -0.2718 -3.2002  0.9150
  349ccc     C3 9148   6.748   8.082   6.056  0.3947 -0.8962  0.6453
  349ccc     C4 9149   6.885   8.108   6.111 -0.2879 -0.4559 -0.2434
  349ccc     C5 9150   6.992   8.018   6.040 -0.2249  0.2799  0.1868
  349ccc     H3 9151   6.922   8.208   6.088  2.4714 -1.5533 -1.0124
  349ccc     H4 9152   6.728   7.975   6.071 -2.2943 -0.6831 -0.8866
  349ccc     H5 9153   6.977   7.915   6.076  0.0935 -0.2447 -1.1114
  349ccc     O1 9154   7.123   8.071   6.083  0.4774 -0.3772  1.0122
  349ccc     O2 9155   6.893   8.099   6.253  0.7733  0.2666  0.4976
  349ccc     O3 9156   6.640   8.165   6.123 -0.5902 -0.0262  0.1225
  349ccc     O4 9157   6.799   8.243   5.873  0.8944  0.4484 -0.1530
  349ccc     C6 9158   6.881   8.032   5.684 -0.6832  0.0187  0.2365
  349ccc     H6 9159   6.690   8.231   6.174  0.4854  0.7480 -1.8489
  349ccc     H7 9160   6.747   8.298   5.934  0.4162 -0.2853  0.1145
  349ccc     H8 9161   6.832   8.031   6.287  0.5151 -0.5889 -1.4789
  349ccc     H9 9162   6.786   8.025   5.629 -0.8170 -2.4851  0.6635
  349ccc    H10 9163   6.929   7.943   5.642 -1.7391 -1.1901  1.4903
  349ccc     O5 9164   6.951   8.157   5.676  0.5961  0.2584  0.1486
  349ccc    H11 9165   6.915   8.192   5.760  0.1300 -0.0433  0.0813
  349ccc     O6 9166   6.988   8.028   5.897  0.1445  0.3207 -0.2631
  350ccc     C1 9167   7.210   8.324   5.808 -0.6804 -0.0933  0.1834
  350ccc     C2 9168   7.138   8.425   5.726 -0.7869 -0.7144 -1.0211
  350ccc     H1 9169   7.133   8.284   5.875 -0.7755  1.3491  0.9763
  350ccc     H2 9170   7.057   8.375   5.672 -0.4693 -1.7991 -0.5268
  350ccc     C3 9171   7.082   8.538   5.818  0.6040 -0.3185 -0.2603
  350ccc     C4 9172   7.195   8.601   5.900 -0.7742 -0.2906 -0.0540
  350ccc     C5 9173   7.270   8.494   5.980 -0.1486 -0.4431 -0.0661
  350ccc     H3 9174   7.271   8.651   5.838 -0.3331  0.8884  1.3857
  350ccc     H4 9175   7.019   8.491   5.894  1.4317  1.6076  1.7069
  350ccc     H5 9176   7.205   8.452   6.058  1.2794 -0.3429  1.2077
  350ccc     O1 9177   7.379   8.553   6.059 -0.1165  0.1927 -0.0947
  350ccc     O2 9178   7.141   8.710   5.987 -0.4394  0.0494  0.5722
  350ccc     O3 9179   7.012   8.634   5.736 -0.2513 -0.1011 -0.0133
  350ccc     O4 9180   7.221   8.484   5.623  0.6085 -0.5494 -0.0083
  350ccc     C6 9181   7.267   8.210   5.720  0.4382 -0.3286  0.5116
  350ccc     H6 9182   6.941   8.575   5.704  0.0167 -0.5105  0.1382
  350ccc     H7 9183   7.173   8.568   5.612 -1.4882 -1.1989  2.8786
  350ccc     H8 9184   7.222   8.755   6.018 -0.2281  0.8940 -1.0742
  350ccc     H9 9185   7.194   8.164   5.653 -0.7122  1.3238  0.5711
  350ccc    H10 9186   7.315   8.131   5.780 -1.1600 -0.4876  1.6366
  350ccc     O5 9187   7.365   8.271   5.635  0.4420  0.5959  0.0295
  350ccc    H11 9188   7.333   8.361   5.617 -0.2227  0.7953  1.9174
  350ccc     O6 9189   7.319   8.391   5.892 -0.3424  0.0667  0.0644
  351ccc     C1 9190   8.516   9.831  11.078 -1.0105  0.0678  0.1988
  351ccc     C2 9191   8.501   9.687  11.126 -0.3275 -0.3873  0.3287
  351ccc     H1 9192   8.444   9.840  10.995 -0.7514 -2.2808 -0.3526
  351ccc     H2 9193   8.394   9.670  11.142 -0.6825 -1.0841 -2.3717
  351ccc     C3 9194   8.543   9.588  11.021 -0.1983  0.9461  0.1523
  351ccc     C4 9195   8.692   9.609  10.979 -0.8319 -0.1155  0.6846
  351ccc     C5 9196   8.705   9.754  10.923  0.4035  0.2397 -0.2349
  351ccc     H3 9197   8.752   9.624  11.070 -0.0964  2.0645 -0.1193
  351ccc     H4 9198   8.484   9.596  10.929  0.5109  0.3782 -0.3554
  351ccc     H5 9199   8.632   9.778  10.845 -0.0604 -0.1246  0.0777
  351ccc     O1 9200   8.841   9.783  10.868  0.1710 -0.4076  0.0512
  351ccc     O2 9201   8.743   9.510  10.884 -0.1810 -0.1136 -0.2541
  351ccc     O3 9202   8.535   9.451  11.079 -0.0390 -0.6254  0.0710
  351ccc     O4 9203   8.567   9.672  11.253 -0.1397 -0.0758  0.1446
  351ccc     C6 9204   8.490   9.946  11.181 -0.1386  0.3870  0.0382
  351ccc     H6 9205   8.568   9.384  11.017  1.2528 -0.5227  0.6121
  351ccc     H7 9206   8.543   9.587  11.293 -2.3531  1.4039  2.2063
  351ccc     H8 9207   8.834   9.538  10.866 -0.3497 -0.1616 -1.2546
  351ccc     H9 9208   8.391   9.930  11.226 -0.2447 -0.6953 -0.5441
  351ccc    H10 9209   8.493  10.043  11.131 -2.0744  0.4914  0.0620
  351ccc     O5 9210   8.594   9.945  11.282  0.3562  0.5689 -0.0004
  351ccc    H11 9211   8.608   9.849  11.285 -3.1426 -0.1480 -1.4257
  351ccc     O6 9212   8.659   9.850  11.027  0.4212 -0.2792  0.0035
  352ccc     C1 9213   9.457  10.552  10.552 -0.2449 -0.9615 -0.5884
  352ccc     C2 9214   9.508  10.563  10.701 -0.8599  0.2302  0.4094
  352ccc     H1 9215   9.392  10.636  10.523 -0.5235 -1.4631 -1.4695
  352ccc     H2 9216   9.568  10.654  10.715 -1.3883  1.0043 -1.8276
  352ccc     C3 9217   9.394  10.565  10.812 -0.3738 -0.1047  0.4629
  352ccc     C4 9218   9.300  10.444  10.781 -0.7403  0.2312 -0.0495
  352ccc     C5 9219   9.258  10.423  10.627  0.0133 -0.5473 -0.0511
  352ccc     H3 9220   9.365  10.358  10.803  0.0248  0.7526 -0.2201
  352ccc     H4 9221   9.339  10.658  10.795  0.4445  0.6554  1.7794
  352ccc     H5 9222   9.195  10.506  10.594  0.5699 -0.3629 -0.6892
  352ccc     O1 9223   9.194  10.293  10.601 -0.0359 -0.0186 -0.1400
  352ccc     O2 9224   9.184  10.452  10.873 -0.3681  0.3638 -0.3406
  352ccc     O3 9225   9.450  10.577  10.945  0.1130 -0.6653 -0.1271
  352ccc     O4 9226   9.595  10.453  10.717  0.1651  0.1071  0.4606
  352ccc     C6 9227   9.570  10.550  10.446 -0.1654  0.1959  0.8911
  352ccc     H6 9228   9.483  10.493  10.980  1.4189 -0.8902 -1.7525
  352ccc     H7 9229   9.599  10.420  10.626  0.6723 -1.5871  1.0584
  352ccc     H8 9230   9.131  10.522  10.831  0.5516  0.5983 -1.1427
  352ccc     H9 9231   9.636  10.638  10.450 -1.5541  1.3410 -0.2070
  352ccc    H10 9232   9.513  10.556  10.353 -1.7684 -0.8309  1.7622
  352ccc     O5 9233   9.643  10.426  10.454 -0.1225  0.5952  0.2420
  352ccc    H11 9234   9.688  10.403  10.371  0.3488 -1.1885  0.9597
  352ccc     O6 9235   9.379  10.430  10.543 -0.5460  0.1859 -0.1475
  353ccc     C1 9236   9.169  11.129  10.189  0.1703 -0.1472  0.8864
  353ccc     C2 9237   9.266  11.238  10.152 -0.4523 -0.0431  0.8469
  353ccc     H1 9238   9.232  11.066  10.253  1.7559 -1.1564 -1.4941
  353ccc     H2 9239   9.315  11.283  10.239 -0.8630  1.9207  0.1286
  353ccc     C3 9240   9.378  11.184  10.061 -0.5582 -0.8459  0.0680
  353ccc     C4 9241   9.318  11.119   9.931 -0.2426 -0.1670  0.4321
  353ccc     C5 9242   9.226  11.000   9.981 -0.4833 -0.3243  0.0757
  353ccc     H3 9243   9.248  11.186   9.879  0.7703  1.2424  0.8070
  353ccc     H4 9244   9.435  11.106  10.114  0.2869 -0.7996 -0.7355
  353ccc     H5 9245   9.289  10.924  10.030 -1.3641  0.6436  2.8734
  353ccc     O1 9246   9.156  10.945   9.867 -0.1215 -0.3283  0.1039
  353ccc     O2 9247   9.425  11.067   9.846  0.2576  0.7274  0.7204
  353ccc     O3 9248   9.474  11.287  10.017 -0.1034 -0.1938  0.4048
  353ccc     O4 9249   9.193  11.347  10.099  0.2448 -0.1750 -0.3386
  353ccc     C6 9250   9.033  11.166  10.265 -0.0308 -0.3110 -0.4224
  353ccc     H6 9251   9.478  11.356  10.086 -0.6170  0.0086  0.2415
  353ccc     H7 9252   9.101  11.322  10.118 -0.3830  1.6763 -0.6837
  353ccc     H8 9253   9.367  11.036   9.774 -0.5459 -1.2637  2.1373
  353ccc     H9 9254   9.050  11.213  10.363 -0.6160 -1.3285  0.1859
  353ccc    H10 9255   8.971  11.078  10.286 -0.8972  0.0677 -1.3274
  353ccc     O5 9256   8.970  11.272  10.184 -0.1073  0.3206 -0.2198
  353ccc    H11 9257   8.897  11.301  10.240  0.6715 -0.7308  1.4396
  353ccc     O6 9258   9.120  11.049  10.072  0.0331 -0.3770 -0.1293
  354ccc     C1 9259   8.597  11.155  10.367  0.0802  0.5237  0.1408
  354ccc     C2 9260   8.630  11.165  10.517  0.5219  0.2240 -0.2113
  354ccc     H1 9261   8.491  11.131  10.350  0.1608 -0.2036  0.6161
  354ccc     H2 9262   8.560  11.239  10.558 -0.1935 -1.7362  2.3333
  354ccc     C3 9263   8.597  11.030  10.584 -0.1631  0.2391 -0.3774
  354ccc     C4 9264   8.679  10.917  10.513  0.4999 -0.5013 -0.1063
  354ccc     C5 9265   8.667  10.912  10.355  0.8146 -0.8749 -0.5711
  354ccc     H3 9266   8.783  10.947  10.532 -0.5649  2.0830  2.3922
  354ccc     H4 9267   8.490  11.011  10.574 -0.3099  0.1719  1.0969
  354ccc     H5 9268   8.562  10.888  10.338  0.9172 -3.1938  1.6251
  354ccc     O1 9269   8.765  10.819  10.290  0.4834 -0.5680 -0.1186
  354ccc     O2 9270   8.639  10.789  10.577 -0.9492  0.3984 -0.1023
  354ccc     O3 9271   8.629  11.030  10.720  0.2326 -0.0246  0.2049
  354ccc     O4 9272   8.773  11.193  10.543  0.7880 -0.0793  0.1934
  354ccc     C6 9273   8.633  11.292  10.296  0.1354  0.3812 -0.0351
  354ccc     H6 9274   8.617  11.121  10.752  0.1003 -0.0587  0.2486
  354ccc     H7 9275   8.797  11.259  10.475  0.9236 -0.2321  0.0928
  354ccc     H8 9276   8.665  10.792  10.671  1.3688  0.2992 -0.6780
  354ccc     H9 9277   8.555  11.366  10.317  2.9380  2.9720  2.2185
  354ccc    H10 9278   8.642  11.285  10.187  1.3856 -2.3561  0.1656
  354ccc     O5 9279   8.763  11.341  10.329  0.0745 -0.4998  0.4261
  354ccc    H11 9280   8.746  11.437  10.330  0.7216 -0.2975 -2.0622
  354ccc     O6 9281   8.679  11.048  10.302  0.0205 -0.8107 -0.0194
  355ccc     C1 9282   9.607  10.349   8.649  0.2989 -0.1197 -0.1783
  355ccc     C2 9283   9.757  10.377   8.635  0.0342 -0.1412  0.9453
  355ccc     H1 9284   9.555  10.423   8.586  0.5176 -0.9327 -1.3441
  355ccc     H2 9285   9.786  10.394   8.530 -2.0063  0.8619  0.4893
  355ccc     C3 9286   9.793  10.509   8.697 -0.1120  0.1600  0.4538
  355ccc     C4 9287   9.732  10.528   8.840  0.0382 -0.0308  0.1179
  355ccc     C5 9288   9.580  10.496   8.842 -0.2432  0.0688  0.1467
  355ccc     H3 9289   9.776  10.460   8.914 -0.4473 -0.3829  0.0914
  355ccc     H4 9290   9.745  10.589   8.638 -1.6129 -1.6419 -0.8988
  355ccc     H5 9291   9.520  10.577   8.799 -0.9109 -1.1356 -1.2523
  355ccc     O1 9292   9.550  10.485   8.984 -0.3264  0.7547  0.3373
  355ccc     O2 9293   9.759  10.658   8.888  0.4034  0.0149  0.0916
  355ccc     O3 9294   9.939  10.544   8.696  0.0792 -0.0943  0.0659
  355ccc     O4 9295   9.829  10.272   8.697 -0.6399 -0.0762  0.2585
  355ccc     C6 9296   9.552  10.215   8.609 -0.7789 -0.1460  0.1278
  355ccc     H6 9297   9.944  10.624   8.751 -0.4324 -0.1141  0.1481
  355ccc     H7 9298   9.906  10.259   8.639  0.9466 -1.9191  2.5901
  355ccc     H8 9299   9.737  10.659   8.983 -1.3374  0.8022 -0.2754
  355ccc     H9 9300   9.548  10.212   8.499 -1.1489 -0.6806  0.1530
  355ccc    H10 9301   9.450  10.196   8.643 -1.1650  1.2090 -0.2381
  355ccc     O5 9302   9.636  10.114   8.656  0.2755 -0.0363 -0.4148
  355ccc    H11 9303   9.705  10.165   8.701 -1.2267  1.1934  0.5923
  355ccc     O6 9304   9.562  10.370   8.780  0.0501  1.0086 -0.9665
  356ccc     C1 9305   9.771  10.977   9.457  0.1051  0.0303  0.6451
  356ccc     C2 9306   9.923  11.010   9.464 -0.1610  0.7115 -0.4801
  356ccc     H1 9307   9.720  11.017   9.545 -0.4092  0.6320  0.0780
  356ccc     H2 9308   9.928  11.115   9.494 -0.7604  0.9464 -1.1726
  356ccc     C3 9309  10.013  10.933   9.572 -0.2598  0.2655  0.0603
  356ccc     C4 9310   9.982  10.783   9.551 -0.2933 -0.5435 -0.4532
  356ccc     C5 9311   9.827  10.758   9.542  0.1464  0.2366  0.3953
  356ccc     H3 9312  10.030  10.752   9.457 -0.0749  0.3807 -0.6622
  356ccc     H4 9313   9.980  10.969   9.670 -0.3591  2.2689 -0.6731
  356ccc     H5 9314   9.774  10.779   9.636  1.5037  0.1586  1.2105
  356ccc     O1 9315   9.814  10.623   9.497  0.1754 -1.0274 -0.3183
  356ccc     O2 9316  10.040  10.706   9.656 -0.2672 -0.1595 -0.0550
  356ccc     O3 9317  10.152  10.961   9.542 -0.1364 -0.4202  0.0932
  356ccc     O4 9318   9.980  11.005   9.331  0.2478 -0.1712  0.6024
  356ccc     C6 9319   9.698  11.055   9.346 -0.4714 -0.0813 -0.6967
  356ccc     H6 9320  10.171  11.056   9.549  1.2654 -0.6003 -0.8643
  356ccc     H7 9321  10.075  11.003   9.353  1.2730 -1.6956 -3.2004
  356ccc     H8 9322  10.060  10.619   9.617 -2.7669 -0.6903 -0.3277
  356ccc     H9 9323   9.720  11.161   9.363 -4.2082  0.6431  0.7054
  356ccc    H10 9324   9.589  11.047   9.356 -0.3606  0.3104  1.2117
  356ccc     O5 9325   9.747  11.013   9.222 -0.5821  0.2715 -0.2243
  356ccc    H11 9326   9.843  11.025   9.233 -0.5434  1.8741 -1.8964
  356ccc     O6 9327   9.761  10.835   9.433 -0.2753 -0.0473  0.1424
  357ccc     C1 9328   8.307  10.147   8.107 -0.5863  0.2637  0.9112
  357ccc     C2 9329   8.236  10.190   7.977  0.3929  0.0223  0.6295
  357ccc     H1 9330   8.243  10.170   8.194  1.4526  0.8369  2.3466
  357ccc     H2 9331   8.138  10.143   7.964  0.0920  0.9478 -0.5561
  357ccc     C3 9332   8.202  10.341   7.990  0.3314 -1.4345  0.1686
  357ccc     C4 9333   8.320  10.433   8.038  0.3986 -0.1493 -1.1585
  357ccc     C5 9334   8.406  10.362   8.150  0.4554 -0.3372  0.4547
  357ccc     H3 9335   8.391  10.445   7.955  2.2635 -1.6258  0.1608
  357ccc     H4 9336   8.129  10.350   8.072  1.4126  3.9228  0.9182
  357ccc     H5 9337   8.359  10.376   8.248 -0.2226  1.6462 -0.1180
  357ccc     O1 9338   8.526  10.437   8.163  0.3704  0.0575  0.4869
  357ccc     O2 9339   8.264  10.558   8.089  0.0524 -0.2574 -0.1821
  357ccc     O3 9340   8.130  10.395   7.869  0.2084 -0.7169  0.1104
  357ccc     O4 9341   8.322  10.160   7.865 -0.2540 -0.3205  1.0511
  357ccc     C6 9342   8.324  10.000   8.124  0.0646  0.0208  0.0387
  357ccc     H6 9343   8.056  10.446   7.908 -1.4295 -2.4414 -0.6219
  357ccc     H7 9344   8.301  10.231   7.801 -1.0068 -0.4243  1.1732
  357ccc     H8 9345   8.328  10.626   8.061 -0.4583  0.5386  0.5336
  357ccc     H9 9346   8.224   9.964   8.152 -0.0937  1.1914  1.0755
  357ccc    H10 9347   8.400   9.985   8.202 -0.6777  0.7721  0.9304
  357ccc     O5 9348   8.352   9.941   7.998 -0.2361  0.0730  0.2372
  357ccc    H11 9349   8.357  10.017   7.937  2.2755 -0.4769 -0.3418
  357ccc     O6 9350   8.429  10.222   8.124 -0.0482  0.0297  0.1503
  358ccc     C1 9351   9.184  11.009   7.751 -0.2761 -0.6334 -0.5139
  358ccc     C2 9352   9.085  11.088   7.670 -0.3760  0.1005  0.5170
  358ccc     H1 9353   9.203  10.915   7.698 -2.2384 -1.8578  0.8204
  358ccc     H2 9354   9.126  11.091   7.569 -1.7935 -2.0190 -0.1933
  358ccc     C3 9355   8.957  11.010   7.642  0.6258 -0.4779 -0.2720
  358ccc     C4 9356   8.897  10.955   7.773 -0.0882  0.5599  0.0364
  358ccc     C5 9357   9.009  10.895   7.870  0.7505  0.6311 -0.5608
  358ccc     H3 9358   8.861  11.044   7.826 -1.3823  0.2119 -0.2436
  358ccc     H4 9359   8.968  10.927   7.571 -1.4946  0.4520 -1.8187
  358ccc     H5 9360   9.036  10.792   7.843  0.5591 -0.0139  1.5088
  358ccc     O1 9361   8.949  10.871   8.004 -0.1606 -0.2085  0.0249
  358ccc     O2 9362   8.784  10.864   7.743  0.1135  0.0720  0.5594
  358ccc     O3 9363   8.862  11.103   7.574 -0.0979  0.4366 -0.0431
  358ccc     O4 9364   9.051  11.214   7.723 -0.3214  0.2275  0.1230
  358ccc     C6 9365   9.317  11.088   7.771 -0.4517 -0.0842  0.0199
  358ccc     H6 9366   8.783  11.057   7.541  1.7219 -2.1520 -1.1087
  358ccc     H7 9367   8.967  11.216   7.674  0.7280 -0.9574 -1.8345
  358ccc     H8 9368   8.722  10.916   7.688  0.0872  0.5976  1.0707
  358ccc     H9 9369   9.299  11.192   7.802 -0.5679 -0.1842  0.2904
  358ccc    H10 9370   9.371  11.088   7.676  2.4349 -1.9331  1.5165
  358ccc     O5 9371   9.393  11.026   7.869 -0.0784 -0.2505  0.0916
  358ccc    H11 9372   9.327  10.995   7.933  0.5508  2.0813  1.9851
  358ccc     O6 9373   9.128  10.985   7.882  0.5750  0.1367  0.7969
  359ccc     C1 9374   9.345   7.780   9.132 -0.1880  0.8639 -0.2295
  359ccc     C2 9375   9.424   7.736   9.010 -0.4477  0.3493 -0.6749
  359ccc     H1 9376   9.256   7.716   9.145  0.2901  0.2379 -0.0072
  359ccc     H2 9377   9.447   7.629   9.005  1.9694  0.6868  1.2110
  359ccc     C3 9378   9.335   7.762   8.884 -0.2987 -0.5697  0.0895
  359ccc     C4 9379   9.276   7.909   8.867  0.2229 -0.5874 -0.4051
  359ccc     C5 9380   9.217   7.958   9.002 -0.7756 -0.5117 -0.8827
  359ccc     H3 9381   9.367   7.969   8.853  0.3365 -0.3048  1.3425
  359ccc     H4 9382   9.249   7.697   8.906  0.4817 -2.1007 -1.1633
  359ccc     H5 9383   9.116   7.922   9.025 -1.8938  1.4357 -2.4123
  359ccc     O1 9384   9.208   8.103   8.997  0.2323  0.0589 -0.4224
  359ccc     O2 9385   9.174   7.927   8.761 -0.5437 -0.3071 -0.1258
  359ccc     O3 9386   9.391   7.719   8.761 -0.1174  0.0049 -0.2321
  359ccc     O4 9387   9.547   7.812   9.003  0.0313 -0.1274  0.0138
  359ccc     C6 9388   9.427   7.769   9.258 -0.0872  0.2612  0.1551
  359ccc     H6 9389   9.483   7.751   8.757 -0.2546  0.7444  1.5534
  359ccc     H7 9390   9.596   7.783   8.924 -1.5388 -3.2898  0.0333
  359ccc     H8 9391   9.214   7.875   8.690 -0.6968 -1.1393  0.3889
  359ccc     H9 9392   9.523   7.822   9.256 -0.2230  0.6314  1.8437
  359ccc    H10 9393   9.442   7.664   9.285 -0.0274  0.2783  0.1886
  359ccc     O5 9394   9.356   7.844   9.358  0.2820  0.4188  0.1156
  359ccc    H11 9395   9.347   7.932   9.318 -1.1057  0.2535  0.0304
  359ccc     O6 9396   9.305   7.925   9.114  0.7372  0.4414  0.3525
  360ccc     C1 9397   8.998   7.856   9.887 -0.2553  0.4796 -0.6168
  360ccc     C2 9398   9.129   7.779   9.926 -0.5730 -0.2561  0.1775
  360ccc     H1 9399   8.941   7.778   9.836  0.7462 -3.1669  3.2169
  360ccc     H2 9400   9.112   7.697   9.997  0.1674 -2.3796 -1.9499
  360ccc     C3 9401   9.201   7.719   9.805 -0.2558 -0.5614  0.3177
  360ccc     C4 9402   9.210   7.807   9.686  0.2898 -0.1342  0.5209
  360ccc     C5 9403   9.086   7.900   9.662  0.8610 -0.5075  0.1677
  360ccc     H3 9404   9.287   7.882   9.702 -1.8122  1.8476  1.9581
  360ccc     H4 9405   9.134   7.636   9.779  0.0997 -1.0580  0.9369
  360ccc     H5 9406   9.012   7.840   9.608 -0.2952  1.4158 -0.4696
  360ccc     O1 9407   9.119   8.012   9.571  0.2360 -0.5233 -0.7592
  360ccc     O2 9408   9.238   7.728   9.569  0.1837 -0.4753  0.2551
  360ccc     O3 9409   9.332   7.663   9.845  0.3734 -0.8203  0.5172
  360ccc     O4 9410   9.213   7.895   9.981  0.0240  0.1863 -0.0909
  360ccc     C6 9411   8.920   7.905  10.008  0.0345  0.5641  0.4445
  360ccc     H6 9412   9.367   7.631   9.759 -0.8836 -0.4734 -0.1501
  360ccc     H7 9413   9.303   7.866   9.959  0.0999  0.2303  0.1576
  360ccc     H8 9414   9.267   7.795   9.505 -1.1544 -0.2496 -0.1507
  360ccc     H9 9415   8.910   7.820  10.076  0.8284 -0.4482 -0.6662
  360ccc    H10 9416   8.816   7.930   9.983 -0.1139 -0.3425  0.1166
  360ccc     O5 9417   8.996   8.012  10.066 -0.0221 -0.0916 -0.3982
  360ccc    H11 9418   9.085   7.981  10.043  0.0958  0.6835 -1.0428
  360ccc     O6 9419   9.038   7.956   9.787  0.0291 -0.0504 -0.5746
  361ccc     C1 9420   8.806   8.370  10.360  0.0662  0.4283 -0.0676
  361ccc     C2 9421   8.747   8.508  10.313  0.2634  0.1574  0.6142
  361ccc     H1 9422   8.729   8.306  10.403  0.4835 -0.9179 -1.2673
  361ccc     H2 9423   8.657   8.469  10.263  0.1006 -1.1556  1.8853
  361ccc     C3 9424   8.712   8.601  10.432  0.3122 -0.1612  0.2092
  361ccc     C4 9425   8.815   8.604  10.553 -0.9897 -0.1074  0.4721
  361ccc     C5 9426   8.884   8.467  10.585 -0.0646 -0.3425 -0.1354
  361ccc     H3 9427   8.896   8.668  10.515 -0.8816 -0.5683 -0.0993
  361ccc     H4 9428   8.619   8.554  10.467  0.0170 -1.2111 -1.7767
  361ccc     H5 9429   8.821   8.404  10.648  0.3327  1.5667  2.3305
  361ccc     O1 9430   9.013   8.492  10.646  0.1663 -0.5334 -0.2560
  361ccc     O2 9431   8.763   8.663  10.673 -0.1696  0.0978  0.1779
  361ccc     O3 9432   8.666   8.732  10.390  0.6722 -0.1215  0.0182
  361ccc     O4 9433   8.830   8.572  10.212  0.5110  0.1903  0.5622
  361ccc     C6 9434   8.878   8.278  10.261  0.0257 -0.3450  0.4249
  361ccc     H6 9435   8.635   8.779  10.469  0.2557 -1.5240  0.7117
  361ccc     H7 9436   8.834   8.666  10.237  1.7742  0.0306  1.0273
  361ccc     H8 9437   8.687   8.610  10.701  0.5545 -0.5454  0.9981
  361ccc     H9 9438   8.965   8.334  10.225 -0.9132  1.4099  0.7386
  361ccc    H10 9439   8.821   8.274  10.167  1.4791 -0.1913 -0.4968
  361ccc     O5 9440   8.914   8.152  10.317  0.0067 -0.1158 -0.1056
  361ccc    H11 9441   8.965   8.111  10.245 -0.9169 -0.2468 -0.6914
  361ccc     O6 9442   8.914   8.395  10.461  0.3383  0.2617  0.9209
  362ccc     C1 9443   9.839   7.751  10.507  0.0102 -0.8200 -0.1594
  362ccc     C2 9444   9.844   7.662  10.384  0.1443 -0.2229  0.9915
  362ccc     H1 9445   9.817   7.697  10.601 -1.1455 -1.2649 -0.6631
  362ccc     H2 9446   9.918   7.583  10.401 -0.4030 -1.0292 -0.1898
  362ccc     C3 9447   9.706   7.595  10.359 -0.1484  0.3944 -0.1823
  362ccc     C4 9448   9.590   7.692  10.372  0.0477 -0.2065  0.0046
  362ccc     C5 9449   9.600   7.795  10.496  0.0877  0.2777  0.8178
  362ccc     H3 9450   9.601   7.758  10.285  2.3593 -0.7193 -0.1459
  362ccc     H4 9451   9.688   7.527  10.444 -1.2756 -0.8238 -1.3514
  362ccc     H5 9452   9.571   7.748  10.591 -1.3005 -0.9438 -0.1619
  362ccc     O1 9453   9.519   7.916  10.493 -0.0373 -0.1588 -0.0431
  362ccc     O2 9454   9.460   7.625  10.374 -0.3877  0.4325 -0.2784
  362ccc     O3 9455   9.701   7.501  10.248  0.0604  0.0394 -0.2397
  362ccc     O4 9456   9.881   7.742  10.273  0.0486 -0.4317 -0.1600
  362ccc     C6 9457   9.969   7.823  10.536 -0.3893 -0.0864  0.6509
  362ccc     H6 9458   9.788   7.494  10.206  1.0087  0.9884  1.4404
  362ccc     H7 9459   9.895   7.675  10.204  0.1259 -0.7360  0.1450
  362ccc     H8 9460   9.391   7.693  10.381 -1.1493 -0.3690  0.2225
  362ccc     H9 9461  10.049   7.754  10.564 -0.5883 -0.2211  0.8889
  362ccc    H10 9462   9.961   7.880  10.629  1.9808 -0.2805  1.0446
  362ccc     O5 9463   9.996   7.920  10.432 -0.0866  0.1937 -0.2051
  362ccc    H11 9464   9.940   7.884  10.361 -0.9685 -1.3048  1.1839
  362ccc     O6 9465   9.734   7.849  10.499  0.1381  0.0162  0.3808
  363ccc     C1 9466  10.480   9.980  10.667 -0.1806  0.0078  0.5755
  363ccc     C2 9467  10.584  10.091  10.721  0.6471  0.0023  0.0332
  363ccc     H1 9468  10.487   9.899  10.740  0.0742  0.2801  0.8575
  363ccc     H2 9469  10.561  10.108  10.826 -0.5795 -2.5047  0.2550
  363ccc     C3 9470  10.731  10.047  10.695 -0.0362  0.2507 -0.4690
  363ccc     C4 9471  10.750  10.000  10.553  0.6217 -0.7186 -0.0664
  363ccc     C5 9472  10.649   9.885  10.517 -0.1823  0.6042  0.0433
  363ccc     H3 9473  10.725  10.086  10.491 -2.0092 -0.1147  1.6223
  363ccc     H4 9474  10.747   9.965  10.767  1.3007  0.3415 -0.6393
  363ccc     H5 9475  10.669   9.798  10.581 -0.1494  0.4193 -0.2160
  363ccc     O1 9476  10.666   9.846  10.380 -0.2394  0.0861 -0.3008
  363ccc     O2 9477  10.885   9.956  10.530 -0.0545  0.5358  0.1374
  363ccc     O3 9478  10.810  10.161  10.721  0.3331 -0.6039 -0.3280
  363ccc     O4 9479  10.566  10.215  10.662  0.8698 -0.3246 -0.4123
  363ccc     C6 9480  10.338  10.037  10.668 -0.5116  0.0365  0.1620
  363ccc     H6 9481  10.901  10.140  10.695  1.4127  0.5454  2.1685
  363ccc     H7 9482  10.658  10.248  10.662  0.4005  1.2718  2.3085
  363ccc     H8 9483  10.890   9.989  10.439 -0.9794  1.3039  0.3418
  363ccc     H9 9484  10.330  10.114  10.590 -0.3468 -1.1909 -1.1076
  363ccc    H10 9485  10.305  10.085  10.761  0.7335 -0.3193  0.7977
  363ccc     O5 9486  10.252   9.927  10.630 -0.5440  0.5500 -0.6218
  363ccc    H11 9487  10.261   9.927  10.533 -0.5587 -0.4161 -0.6239
  363ccc     O6 9488  10.512   9.927  10.536  0.0245  0.0761  0.1112
  364ccc     C1 9489   9.925  10.257   9.855 -0.0023  0.1313  0.2110
  364ccc     C2 9490   9.936  10.379   9.761 -0.9357  0.3320  0.8481
  364ccc     H1 9491   9.996  10.268   9.938  0.8431  0.8857 -0.5879
  364ccc     H2 9492   9.927  10.475   9.811 -2.1019  0.1434  1.0144
  364ccc     C3 9493  10.071  10.376   9.678 -0.3344 -0.6312  0.1340
  364ccc     C4 9494  10.117  10.229   9.632 -0.4831 -0.1848 -1.0624
  364ccc     C5 9495  10.098  10.134   9.755 -0.5656  0.6360  0.5189
  364ccc     H3 9496  10.054  10.183   9.555 -2.0328  1.8451 -1.1122
  364ccc     H4 9497  10.140  10.415   9.753 -2.1044  0.7247  1.1449
  364ccc     H5 9498  10.153  10.164   9.845 -1.8590 -0.5351  1.7588
  364ccc     O1 9499  10.135   9.993   9.725  0.0313 -0.1298  0.0719
  364ccc     O2 9500  10.256  10.244   9.593 -0.2849 -0.2930 -0.3696
  364ccc     O3 9501  10.074  10.463   9.554 -0.1803  0.3651 -0.0090
  364ccc     O4 9502   9.821  10.378   9.671  0.0023  0.1694  0.2841
  364ccc     C6 9503   9.787  10.239   9.915  0.2091  0.5652 -0.1639
  364ccc     H6 9504  10.056  10.401   9.481  1.6274 -2.0119  1.4352
  364ccc     H7 9505   9.823  10.458   9.616  0.8569 -0.0776 -0.0435
  364ccc     H8 9506  10.307  10.265   9.673 -1.0158 -0.4419  0.1434
  364ccc     H9 9507   9.711  10.214   9.839 -0.0116  2.3368 -0.5888
  364ccc    H10 9508   9.758  10.343   9.938 -1.5552  0.4846 -1.7465
  364ccc     O5 9509   9.790  10.157  10.029 -0.0171  0.0814 -0.1171
  364ccc    H11 9510   9.739  10.081   9.994  0.3509 -0.1691 -0.1151
  364ccc     O6 9511   9.956  10.139   9.777  0.2095  0.0066 -0.0723
  365ccc     C1 9512  11.086   8.702   9.923  0.0318  0.1012  0.5239
  365ccc     C2 9513  11.137   8.835   9.990  0.2982 -0.4920  0.7072
  365ccc     H1 9514  11.170   8.641   9.889 -1.1046  0.0737 -2.5261
  365ccc     H2 9515  11.205   8.811  10.073  1.1299  2.2077  0.9265
  365ccc     C3 9516  11.222   8.919   9.886  0.4769  0.5971  0.0388
  365ccc     C4 9517  11.135   8.945   9.755 -0.6374  0.3782 -0.0909
  365ccc     C5 9518  11.073   8.813   9.706  0.0329 -0.2002  0.1817
  365ccc     H3 9519  11.045   9.004   9.779 -1.4804  0.2762 -2.6971
  365ccc     H4 9520  11.305   8.852   9.858 -0.1905 -0.3123  0.2011
  365ccc     H5 9521  11.157   8.756   9.667  1.9603  1.2838  1.9075
  365ccc     O1 9522  10.966   8.834   9.604 -1.4562 -0.3766 -0.2538
  365ccc     O2 9523  11.217   9.009   9.659 -0.0970 -0.6616  0.3283
  365ccc     O3 9524  11.286   9.045   9.931 -0.9128  0.4209  0.2505
  365ccc     O4 9525  11.022   8.917  10.027  0.5982  0.6163 -0.3315
  365ccc     C6 9526  10.997   8.616  10.026 -0.6498 -0.2291 -0.4669
  365ccc     H6 9527  11.328   9.028  10.017 -2.2312  1.7936  1.2176
  365ccc     H7 9528  11.051   8.973  10.101  3.0186 -0.6013 -0.2441
  365ccc     H8 9529  11.159   9.013   9.581 -1.6281  2.1636  1.4645
  365ccc     H9 9530  10.895   8.652  10.044 -0.0502  0.9146  0.8728
  365ccc    H10 9531  11.058   8.611  10.117  1.8125 -0.5670 -2.0289
  365ccc     O5 9532  11.009   8.478   9.979 -0.1367 -0.1215 -0.7193
  365ccc    H11 9533  10.994   8.495   9.884 -2.6290  0.1848 -0.3318
  365ccc     O6 9534  11.008   8.738   9.809 -0.1513  0.5281 -0.2079
  366ccc     C1 9535  10.399   9.081   9.926 -0.1001 -0.0043 -0.4213
  366ccc     C2 9536  10.397   9.224   9.990 -0.8956 -0.4737  0.4502
  366ccc     H1 9537  10.493   9.033   9.955 -0.0570 -0.5445 -1.3986
  366ccc     H2 9538  10.373   9.212  10.096 -3.4593 -0.2500 -0.0191
  366ccc     C3 9539  10.536   9.283   9.967 -0.1571  0.3610  0.7785
  366ccc     C4 9540  10.555   9.307   9.811 -0.4959 -0.5524 -0.7410
  366ccc     C5 9541  10.514   9.179   9.732  0.3180  0.4595 -0.1457
  366ccc     H3 9542  10.474   9.375   9.784 -0.5437 -1.0063 -1.7852
  366ccc     H4 9543  10.614   9.211   9.994  1.0340  0.2505 -2.4077
  366ccc     H5 9544  10.595   9.107   9.738 -1.5576 -1.6594  1.3126
  366ccc     O1 9545  10.472   9.209   9.592  0.2382 -0.0689 -0.1840
  366ccc     O2 9546  10.680   9.364   9.776  0.2737  0.6930  0.3806
  366ccc     O3 9547  10.545   9.409  10.040 -0.3011  0.5305 -0.0149
  366ccc     O4 9548  10.284   9.298   9.925 -0.0525 -0.2842  0.3002
  366ccc     C6 9549  10.279   8.992   9.954 -0.2802 -0.4411  0.1342
  366ccc     H6 9550  10.469   9.464  10.015  0.2904  0.6911 -1.6071
  366ccc     H7 9551  10.206   9.244   9.946 -1.8452  1.5633 -1.1645
  366ccc     H8 9552  10.668   9.406   9.689 -1.0093  2.4550  1.3402
  366ccc     H9 9553  10.196   9.036   9.896 -1.0674 -1.2423  0.6214
  366ccc    H10 9554  10.254   8.994  10.060 -0.4178 -2.8019  0.1910
  366ccc     O5 9555  10.308   8.859   9.926 -0.0456  0.5712  0.3317
  366ccc    H11 9556  10.361   8.854   9.844  0.7310  0.2623  0.8417
  366ccc     O6 9557  10.404   9.100   9.782  0.5058 -0.6274 -0.9136
  367ccc     C1 9558   7.700   9.263   8.837  0.3664  0.0448  0.3233
  367ccc     C2 9559   7.645   9.186   8.713 -0.0591 -0.1242 -0.2055
  367ccc     H1 9560   7.776   9.335   8.805  0.5613 -0.0382  0.5906
  367ccc     H2 9561   7.600   9.276   8.669 -1.3104  0.2232  1.6488
  367ccc     C3 9562   7.765   9.117   8.639  0.1378 -0.2322 -1.3375
  367ccc     C4 9563   7.837   9.024   8.734  0.2614  0.4769 -0.5603
  367ccc     C5 9564   7.865   9.086   8.875 -0.1962  0.5252  0.0162
  367ccc     H3 9565   7.773   8.937   8.748 -0.8886  1.7157  2.7087
  367ccc     H4 9566   7.842   9.192   8.617 -0.3164  1.4420  2.1556
  367ccc     H5 9567   7.961   9.137   8.868  0.5378 -0.9949 -1.5325
  367ccc     O1 9568   7.891   8.979   8.964  0.2999  0.6835 -0.5316
  367ccc     O2 9569   7.959   8.986   8.665 -0.1607  0.0389  0.0754
  367ccc     O3 9570   7.718   9.055   8.519 -0.3167  0.0520 -0.3756
  367ccc     O4 9571   7.554   9.091   8.754 -0.7352  0.7236 -0.4273
  367ccc     C6 9572   7.599   9.339   8.922  0.7003  0.3162  0.3255
  367ccc     H6 9573   7.634   9.097   8.495 -0.1586  0.0731 -0.9113
  367ccc     H7 9574   7.509   9.149   8.819  1.2446  2.2172 -0.2840
  367ccc     H8 9575   7.933   8.954   8.577 -0.5889  0.2157  0.1383
  367ccc     H9 9576   7.574   9.433   8.873 -0.0953 -1.2186 -2.4507
  367ccc    H10 9577   7.648   9.349   9.020 -1.3688 -0.7894  1.5440
  367ccc     O5 9578   7.486   9.256   8.941  0.8168 -0.3132  0.2121
  367ccc    H11 9579   7.425   9.305   8.999 -2.1944 -1.6724 -1.5524
  367ccc     O6 9580   7.760   9.174   8.928 -0.5532  0.2896 -0.8072
  368ccc     C1 9581   7.221   8.568   9.217  0.1938  0.1969  0.3716
  368ccc     C2 9582   7.227   8.556   9.060 -0.4989 -0.5738 -0.3568
  368ccc     H1 9583   7.129   8.627   9.226 -1.8896 -2.2185 -2.9197
  368ccc     H2 9584   7.132   8.522   9.018  1.2223 -3.1525 -2.4462
  368ccc     C3 9585   7.269   8.689   8.993  0.4541 -0.6988  0.1269
  368ccc     C4 9586   7.359   8.779   9.078  0.1637 -0.1178  0.5586
  368ccc     C5 9587   7.336   8.776   9.227 -0.0591  0.2547  0.5475
  368ccc     H3 9588   7.464   8.750   9.063  0.4724  1.6613 -1.0712
  368ccc     H4 9589   7.180   8.752   8.979  0.5013 -0.5544  0.4665
  368ccc     H5 9590   7.248   8.835   9.254 -0.3189 -0.3734  1.0953
  368ccc     O1 9591   7.459   8.839   9.274  0.1294  0.0758 -0.5173
  368ccc     O2 9592   7.360   8.913   9.025 -0.4201 -0.4748 -0.0662
  368ccc     O3 9593   7.319   8.662   8.865  0.3915  0.6021 -0.4175
  368ccc     O4 9594   7.329   8.464   9.031 -0.1334  0.0837 -0.2832
  368ccc     C6 9595   7.196   8.432   9.291  0.5322  0.0707 -0.2440
  368ccc     H6 9596   7.351   8.744   8.823 -0.1455  1.8660  1.4998
  368ccc     H7 9597   7.346   8.486   8.938 -2.3569 -0.2826 -0.8409
  368ccc     H8 9598   7.449   8.945   9.047  0.0767 -1.8919  0.0718
  368ccc     H9 9599   7.110   8.371   9.261 -0.1666  0.2900  1.2178
  368ccc    H10 9600   7.178   8.462   9.395  0.5292 -1.0519  0.0937
  368ccc     O5 9601   7.312   8.360   9.273 -0.2584  0.0646 -0.4683
  368ccc    H11 9602   7.342   8.388   9.185  0.7199  0.6481  0.0383
  368ccc     O6 9603   7.330   8.640   9.275 -0.1350 -0.2756 -0.1708
  369ccc     C1 9604   7.640   9.333  10.230 -0.1144 -0.4841  0.2139
  369ccc     C2 9605   7.578   9.417  10.341  0.0019 -0.1936 -0.0035
  369ccc     H1 9606   7.746   9.359  10.218  0.1109 -1.4161  0.1058
  369ccc     H2 9607   7.643   9.401  10.428 -0.9327  1.9462  1.1579
  369ccc     C3 9608   7.582   9.568  10.304  0.0906 -0.4012 -1.0184
  369ccc     C4 9609   7.513   9.594  10.164  0.1624 -0.4189  0.1278
  369ccc     C5 9610   7.582   9.497  10.057 -0.1162  0.6289 -0.2088
  369ccc     H3 9611   7.407   9.566  10.168 -0.4110  1.4225 -0.6851
  369ccc     H4 9612   7.687   9.598  10.292 -0.1177  0.3001 -1.1255
  369ccc     H5 9613   7.682   9.542  10.059  0.1157  0.1104  0.3180
  369ccc     O1 9614   7.530   9.516   9.925  0.3012 -0.3405 -0.0670
  369ccc     O2 9615   7.522   9.730  10.130 -0.6166  0.2771 -0.0434
  369ccc     O3 9616   7.535   9.637  10.421 -0.1738 -0.1716 -0.2959
  369ccc     O4 9617   7.447   9.379  10.370 -0.4529 -0.8082  0.6726
  369ccc     C6 9618   7.637   9.180  10.250  0.1948 -0.0960 -0.5390
  369ccc     H6 9619   7.438   9.643  10.415 -0.4674 -3.4469 -0.6499
  369ccc     H7 9620   7.449   9.286  10.340 -2.2213 -0.8256  0.5070
  369ccc     H8 9621   7.474   9.743  10.046  1.0480  0.4900 -1.0169
  369ccc     H9 9622   7.702   9.145  10.331  0.8057 -0.0805 -1.0075
  369ccc    H10 9623   7.671   9.125  10.162 -0.1175  1.9866 -2.0569
  369ccc     O5 9624   7.504   9.136  10.280 -0.3948 -0.1341  0.0989
  369ccc    H11 9625   7.519   9.043  10.304 -1.9125 -1.2011 -2.5664
  369ccc     O6 9626   7.577   9.362  10.101  0.0307 -0.0401 -0.8352
  370ccc     C1 9627   7.067   9.663   9.035 -0.3405  0.1018  0.4241
  370ccc     C2 9628   6.973   9.605   8.932 -0.0517 -0.4733  0.0580
  370ccc     H1 9629   7.134   9.734   8.985 -0.9823  1.1410  0.9896
  370ccc     H2 9630   6.907   9.684   8.893 -1.6333 -1.7701  0.0216
  370ccc     C3 9631   7.058   9.533   8.828 -0.2523  0.1752 -0.1311
  370ccc     C4 9632   7.152   9.419   8.888  0.1188 -0.5303 -0.4252
  370ccc     C5 9633   7.240   9.479   9.000  0.1761 -0.0158 -0.2576
  370ccc     H3 9634   7.084   9.347   8.936 -0.1337 -0.9210 -1.3293
  370ccc     H4 9635   7.132   9.610   8.802 -0.3141  0.9177  1.7130
  370ccc     H5 9636   7.306   9.552   8.952  1.6460 -1.0805  0.0699
  370ccc     O1 9637   7.302   9.378   9.074 -0.3592 -0.0787 -0.1940
  370ccc     O2 9638   7.223   9.338   8.792 -0.5708  0.2798  0.4882
  370ccc     O3 9639   6.984   9.482   8.715  0.2811 -0.2068 -0.5122
  370ccc     O4 9640   6.886   9.524   9.007 -0.2136  0.3854  0.3905
  370ccc     C6 9641   7.013   9.760   9.142  0.3939 -0.5203 -0.1835
  370ccc     H6 9642   7.042   9.528   8.652  0.2461  1.1771  0.4075
  370ccc     H7 9643   6.876   9.584   9.083  0.9192  2.2576 -0.8563
  370ccc     H8 9644   7.224   9.253   8.840 -1.3493 -0.0665 -0.0758
  370ccc     H9 9645   6.982   9.857   9.103 -0.7814 -0.4980  0.7166
  370ccc    H10 9646   7.085   9.785   9.221 -1.6210  0.4073  1.4842
  370ccc     O5 9647   6.895   9.696   9.192  0.7311 -0.4446 -0.3485
  370ccc    H11 9648   6.870   9.770   9.250  0.8877 -0.9065  0.3155
  370ccc     O6 9649   7.157   9.559   9.091 -0.2103 -0.1485  0.2982
  371ccc     C1 9650   7.133   9.830  10.407 -0.0812 -0.4657  0.1857
  371ccc     C2 9651   7.068   9.785  10.273 -0.1170  0.6336  0.3751
  371ccc     H1 9652   7.077   9.896  10.475 -2.1952 -1.0476 -0.9285
  371ccc     H2 9653   6.980   9.721  10.289 -1.0710  0.6907 -3.7575
  371ccc     C3 9654   7.031   9.898  10.183  0.4533  0.0428  0.3598
  371ccc     C4 9655   7.136  10.010  10.180 -0.2137 -0.7001  0.0898
  371ccc     C5 9656   7.222  10.030  10.309 -0.0769 -0.1845  0.1393
  371ccc     H3 9657   7.211   9.984  10.105  1.3586 -0.3060  1.4574
  371ccc     H4 9658   6.942   9.940  10.232  2.0710  1.8296  1.8942
  371ccc     H5 9659   7.175  10.099  10.380 -0.6133 -0.0964 -0.2959
  371ccc     O1 9660   7.345  10.096  10.279 -0.1691 -0.5706 -0.1711
  371ccc     O2 9661   7.070  10.135  10.140  0.0143 -0.2175  0.0509
  371ccc     O3 9662   6.994   9.845  10.057 -0.3386  0.3196  0.3922
  371ccc     O4 9663   7.149   9.694  10.201  0.8450  0.8281 -0.6137
  371ccc     C6 9664   7.185   9.713  10.492 -0.1276  0.1668 -0.3364
  371ccc     H6 9665   7.052   9.768  10.049  0.3005  0.8157  0.1448
  371ccc     H7 9666   7.217   9.673  10.267  0.5560  0.4299 -0.4381
  371ccc     H8 9667   7.124  10.153  10.061  1.0413  1.7971  1.1348
  371ccc     H9 9668   7.098   9.653  10.519 -0.6299  0.6251 -0.8967
  371ccc    H10 9669   7.235   9.748  10.583 -0.9029 -2.7580  1.3264
  371ccc     O5 9670   7.265   9.622  10.414  0.3167 -0.6362 -0.9604
  371ccc    H11 9671   7.253   9.535  10.456 -0.5874  0.3325  0.9219
  371ccc     O6 9672   7.252   9.900  10.371  0.0532  0.5241 -0.4747
  372ccc     C1 9673   7.444  10.499  10.897 -0.2080  0.0798 -0.8591
  372ccc     C2 9674   7.301  10.553  10.893  0.0162  0.2667  0.1388
  372ccc     H1 9675   7.503  10.567  10.960 -1.1178  0.8175 -0.7910
  372ccc     H2 9676   7.274  10.566  10.999  1.6411  3.3148  0.2948
  372ccc     C3 9677   7.277  10.688  10.824 -0.7584  0.4349  0.3171
  372ccc     C4 9678   7.343  10.687  10.683  0.0421  0.3778 -0.9054
  372ccc     C5 9679   7.481  10.615  10.685  0.6244  0.4351  0.1180
  372ccc     H3 9680   7.279  10.621  10.624  1.0912 -1.0759 -0.4517
  372ccc     H4 9681   7.330  10.761  10.887  3.4528  0.5375 -2.9066
  372ccc     H5 9682   7.563  10.675  10.727  2.6299 -2.3770  0.4873
  372ccc     O1 9683   7.512  10.587  10.547 -0.3381 -0.6448  0.2188
  372ccc     O2 9684   7.332  10.817  10.629 -0.2609 -0.7433 -0.1235
  372ccc     O3 9685   7.134  10.709  10.827  0.8361 -0.1294 -0.5127
  372ccc     O4 9686   7.213  10.459  10.823 -0.0606 -0.4763 -0.6070
  372ccc     C6 9687   7.463  10.356  10.961 -0.0548  0.7740  0.2183
  372ccc     H6 9688   7.114  10.804  10.824  0.7355  0.0235  2.3353
  372ccc     H7 9689   7.250  10.371  10.842 -3.0765 -2.2430 -2.1603
  372ccc     H8 9690   7.401  10.868  10.674 -1.6758  0.5550  0.6715
  372ccc     H9 9691   7.427  10.365  11.065 -1.8441 -0.0476 -0.2838
  372ccc    H10 9692   7.563  10.312  10.961  0.2271  1.3989  0.3871
  372ccc     O5 9693   7.371  10.258  10.905 -0.0809  0.0995  0.2551
  372ccc    H11 9694   7.403  10.175  10.943  1.1695 -0.1218 -1.1731
  372ccc     O6 9695   7.491  10.494  10.760  0.0949 -0.3491 -0.4978
  373ccc     C1 9696   7.243  10.932   9.470  0.0007 -0.1752  0.0990
  373ccc     C2 9697   7.175  11.017   9.583  0.1077 -0.1723  0.3536
  373ccc     H1 9698   7.205  10.830   9.484 -2.4247  0.7134  0.6067
  373ccc     H2 9699   7.065  11.016   9.583  0.1019  0.0739 -0.2652
  373ccc     C3 9700   7.221  10.969   9.724  0.7814  0.0477  0.2885
  373ccc     C4 9701   7.371  10.977   9.729  0.2711 -0.5109 -0.0590
  373ccc     C5 9702   7.444  10.899   9.621  0.4642 -0.0450  0.6602
  373ccc     H3 9703   7.395  11.080   9.697  0.5449 -0.7467 -0.6278
  373ccc     H4 9704   7.193  10.863   9.733  1.6136 -0.0875  1.4712
  373ccc     H5 9705   7.434  10.793   9.648  0.1674  0.0278  0.8424
  373ccc     O1 9706   7.585  10.938   9.616 -0.8055 -0.5784 -0.2599
  373ccc     O2 9707   7.427  10.945   9.858 -0.0518 -0.0820  0.0016
  373ccc     O3 9708   7.160  11.047   9.822 -0.3833  0.5523  0.4319
  373ccc     O4 9709   7.214  11.144   9.558 -0.0125  0.2166  0.4655
  373ccc     C6 9710   7.216  10.973   9.324 -0.1032 -0.0538  0.0699
  373ccc     H6 9711   7.065  11.027   9.817  0.0925 -1.5482 -1.4600
  373ccc     H7 9712   7.146  11.192   9.610 -1.1385 -0.8056 -0.0156
  373ccc     H8 9713   7.360  10.990   9.911  0.3931  1.9069 -1.0408
  373ccc     H9 9714   7.110  10.982   9.296 -0.0599  1.7272  0.3546
  373ccc    H10 9715   7.262  10.907   9.249  0.3505 -2.0252  1.9947
  373ccc     O5 9716   7.280  11.097   9.310 -0.0553  0.3181  0.0430
  373ccc    H11 9717   7.269  11.118   9.404  0.7155 -1.7424  0.6446
  373ccc     O6 9718   7.388  10.934   9.488 -0.1827 -0.3726 -0.1264
  374ccc     C1 9719   7.991  11.131   8.878 -0.3893  0.1706  0.2247
  374ccc     C2 9720   8.134  11.195   8.873  0.1134 -0.0899 -0.2691
  374ccc     H1 9721   7.918  11.200   8.921 -1.6390 -0.3743 -0.9542
  374ccc     H2 9722   8.118  11.300   8.850 -0.9162  0.0186  0.8302
  374ccc     C3 9723   8.191  11.195   9.020  0.0025 -0.1081 -0.1731
  374ccc     C4 9724   8.196  11.054   9.081 -0.2953  0.1453  0.8691
  374ccc     C5 9725   8.056  10.994   9.071  0.0288 -0.0293  0.4659
  374ccc     H3 9726   8.265  10.998   9.016 -1.3007 -0.0097 -0.0935
  374ccc     H4 9727   8.117  11.254   9.075  0.1802 -0.5731  0.5805
  374ccc     H5 9728   7.989  11.046   9.141 -0.6725  0.6522 -0.6816
  374ccc     O1 9729   8.051  10.855   9.106 -0.2976  0.0404 -0.1801
  374ccc     O2 9730   8.241  11.065   9.223  0.4299 -0.3524  0.2726
  374ccc     O3 9731   8.323  11.256   9.020 -0.1393 -0.5791 -0.7456
  374ccc     O4 9732   8.225  11.130   8.779 -0.5875 -0.3095  0.1880
  374ccc     C6 9733   7.930  11.102   8.741 -0.1567 -0.2977  0.6108
  374ccc     H6 9734   8.389  11.197   8.982  0.3950  0.9430 -2.3193
  374ccc     H7 9735   8.299  11.192   8.764 -1.1022 -0.0572 -1.5516
  374ccc     H8 9736   8.338  11.057   9.223  0.4182 -0.8635 -1.6343
  374ccc     H9 9737   7.925  11.195   8.684 -1.7976 -0.4598  0.4596
  374ccc    H10 9738   7.826  11.071   8.753 -0.1530 -0.3234  0.5728
  374ccc     O5 9739   8.019  11.007   8.668  0.4481 -0.2617  0.1371
  374ccc    H11 9740   8.100  11.049   8.701  0.5129  0.3096 -0.6986
  374ccc     O6 9741   8.002  11.009   8.945  0.6364  0.3548  0.2331
  375ccc     C1 9742  10.631   7.374   9.249  0.2316  0.0746 -0.0803
  375ccc     C2 9743  10.755   7.408   9.326 -0.0678  0.4648  0.7709
  375ccc     H1 9744  10.625   7.438   9.159  0.2074 -0.0325 -0.1541
  375ccc     H2 9745  10.841   7.389   9.262 -1.7484 -0.8319 -1.2523
  375ccc     C3 9746  10.762   7.558   9.362  0.7071 -0.2143 -0.3965
  375ccc     C4 9747  10.632   7.600   9.431 -0.6027  0.3113 -0.2188
  375ccc     C5 9748  10.505   7.552   9.354  0.5947 -0.2419 -0.2987
  375ccc     H3 9749  10.623   7.556   9.531 -1.3610  0.7920 -0.0713
  375ccc     H4 9750  10.775   7.612   9.268  2.4873 -0.0255 -0.0787
  375ccc     H5 9751  10.492   7.604   9.259 -0.1666 -0.3139 -0.2381
  375ccc     O1 9752  10.392   7.586   9.445 -0.5555  0.2511 -0.2218
  375ccc     O2 9753  10.632   7.743   9.437  0.1081  0.0758 -0.0924
  375ccc     O3 9754  10.885   7.579   9.435  0.8354  0.4881 -0.2009
  375ccc     O4 9755  10.746   7.332   9.448 -0.2357 -1.0659  0.2352
  375ccc     C6 9756  10.622   7.231   9.211  0.1591  0.6798  0.4231
  375ccc     H6 9757  10.882   7.510   9.504 -2.1396 -0.8002 -1.4660
  375ccc     H7 9758  10.706   7.249   9.418  1.3040 -2.8062  2.6389
  375ccc     H8 9759  10.569   7.785   9.375 -1.2841  0.0710  1.2734
  375ccc     H9 9760  10.702   7.196   9.145 -0.6863 -0.5553  0.0025
  375ccc    H10 9761  10.527   7.216   9.158  0.4793  0.3907 -0.0793
  375ccc     O5 9762  10.624   7.134   9.321  0.1092 -0.4207 -0.0213
  375ccc    H11 9763  10.604   7.049   9.278 -0.0940 -0.8233  0.8544
  375ccc     O6 9764  10.519   7.409   9.328  0.2882  0.0721 -0.1627
  376ccc     C1 9765  10.155   7.846   8.517  0.5440 -0.2117  0.2905
  376ccc     C2 9766  10.072   7.971   8.442  0.0794  0.6478  0.4551
  376ccc     H1 9767  10.060   7.791   8.515  0.0123  0.7054 -0.2120
  376ccc     H2 9768  10.066   7.960   8.333  0.9677  1.4711  0.2982
  376ccc     C3 9769   9.922   7.988   8.473 -0.3364  0.5798  0.6626
  376ccc     C4 9770   9.909   8.009   8.621  0.3294  0.2988  0.2274
  376ccc     C5 9771   9.990   7.910   8.704 -0.2650 -0.1260  0.5663
  376ccc     H3 9772   9.940   8.113   8.640 -3.9943  1.3581  2.8374
  376ccc     H4 9773   9.868   7.896   8.448 -0.0816  1.0806 -2.0361
  376ccc     H5 9774   9.943   7.811   8.695 -0.0297 -0.2698  0.9045
  376ccc     O1 9775   9.996   7.956   8.837 -0.4189 -0.2312  0.1654
  376ccc     O2 9776   9.774   8.001   8.654  0.2573 -0.2321 -0.6427
  376ccc     O3 9777   9.869   8.099   8.394  0.7432 -0.1038 -0.3971
  376ccc     O4 9778  10.142   8.089   8.480 -0.2422  0.6991  0.8155
  376ccc     C6 9779  10.363   7.703   8.438  0.1725 -0.6959  0.0912
  376ccc     H6 9780   9.841   8.059   8.309  0.3687  0.3703 -0.4973
  376ccc     H7 9781  10.186   8.118   8.398  0.1521  1.5691  1.3244
  376ccc     H8 9782   9.731   8.025   8.570 -0.7381 -1.9789 -0.6964
  376ccc     H9 9783  10.369   7.675   8.332  0.2102  1.7919 -0.6158
  376ccc    H10 9784  10.360   7.596   8.462 -1.1062 -0.6498  0.1559
  376ccc     O5 9785  10.513   7.725   8.448  0.0933 -0.0740  0.9413
  376ccc    H11 9786  10.558   7.653   8.401  3.9728  2.2491  0.5986
  376ccc     O6 9787  10.129   7.903   8.654  0.0205  0.4830 -0.6420
  377ccc     C1 9788   8.599   7.737   9.531  0.1382 -0.2274  0.9625
  377ccc     C2 9789   8.707   7.653   9.599 -0.3556 -0.3329  0.1646
  377ccc     H1 9790   8.503   7.726   9.582  0.7658  0.5698  2.3951
  377ccc     H2 9791   8.727   7.692   9.699  1.9636 -1.3647  0.1722
  377ccc     C3 9792   8.681   7.496   9.603 -0.0023 -0.4423 -0.0705
  377ccc     C4 9793   8.643   7.449   9.468  0.0705 -0.0097  0.5975
  377ccc     C5 9794   8.537   7.546   9.408  0.5296  0.2096  0.3880
  377ccc     H3 9795   8.723   7.462   9.394 -2.4039  3.5730 -1.7923
  377ccc     H4 9796   8.593   7.490   9.668  1.2552 -0.9767  1.6639
  377ccc     H5 9797   8.458   7.532   9.482 -1.5259 -0.7942 -1.8914
  377ccc     O1 9798   8.498   7.493   9.278  0.1115 -0.1032 -0.0227
  377ccc     O2 9799   8.607   7.313   9.481  0.3146  0.0796 -0.9811
  377ccc     O3 9800   8.796   7.426   9.653 -0.0010 -0.3514  0.1032
  377ccc     O4 9801   8.831   7.666   9.527 -0.2799  0.6466  0.5699
  377ccc     C6 9802   8.628   7.885   9.514  0.3415 -0.2739  0.2246
  377ccc     H6 9803   8.781   7.333   9.629  0.5886 -0.3070 -0.4417
  377ccc     H7 9804   8.892   7.592   9.539  0.8542  1.4654  0.0204
  377ccc     H8 9805   8.592   7.278   9.391 -1.2101 -1.2583 -0.2472
  377ccc     H9 9806   8.607   7.933   9.610 -1.9137  1.2800 -0.9440
  377ccc    H10 9807   8.557   7.925   9.441  1.9273  1.0268 -0.6552
  377ccc     O5 9808   8.764   7.905   9.469 -0.2609 -0.4263 -0.2949
  377ccc    H11 9809   8.806   7.818   9.482  2.9060  1.1726  1.1888
  377ccc     O6 9810   8.592   7.681   9.398 -0.1297  0.0704 -0.2495
  378ccc     C1 9811   8.006   7.548   8.292  0.5657  0.0444 -0.0775
  378ccc     C2 9812   8.044   7.647   8.175 -0.4643  0.2432 -1.2454
  378ccc     H1 9813   7.959   7.613   8.366  0.7716 -0.1478  0.2229
  378ccc     H2 9814   7.955   7.707   8.153  0.1861  3.7618  3.9968
  378ccc     C3 9815   8.159   7.735   8.234 -0.2297 -0.0993 -0.1147
  378ccc     C4 9816   8.276   7.659   8.299  0.4916  0.3495  0.4272
  378ccc     C5 9817   8.219   7.564   8.405 -0.0737  0.6316  0.2032
  378ccc     H3 9818   8.324   7.599   8.221  1.6014  1.0708  0.5387
  378ccc     H4 9819   8.118   7.793   8.318 -0.9394 -2.2207  1.0800
  378ccc     H5 9820   8.167   7.623   8.481  0.3628  1.6265 -0.2496
  378ccc     O1 9821   8.327   7.480   8.455  0.2013 -0.4148  0.1784
  378ccc     O2 9822   8.368   7.753   8.361  0.6683 -0.4332 -0.6516
  378ccc     O3 9823   8.210   7.828   8.131  0.0824  0.7938 -0.0210
  378ccc     O4 9824   8.104   7.566   8.070  0.3260 -0.2892 -0.3124
  378ccc     C6 9825   7.893   7.457   8.239  0.8098 -0.2878  0.1346
  378ccc     H6 9826   8.299   7.852   8.161 -0.7934  2.6404  1.2931
  378ccc     H7 9827   8.106   7.617   7.988  0.3979  0.6979  0.2916
  378ccc     H8 9828   8.455   7.716   8.337  0.8717  0.0986 -0.7482
  378ccc     H9 9829   7.944   7.388   8.170  3.8591 -0.4497  2.3512
  378ccc    H10 9830   7.822   7.518   8.183  0.4724  0.6718  1.5719
  378ccc     O5 9831   7.842   7.391   8.351  0.1476  0.8087  0.0104
  378ccc    H11 9832   7.921   7.354   8.394  0.2061 -0.6350 -1.2217
  378ccc     O6 9833   8.114   7.481   8.354 -0.3086 -0.0494 -0.8115
  379ccc     C1 9834   7.477   8.151   9.655  0.0955 -0.2580 -0.5601
  379ccc     C2 9835   7.480   8.213   9.798 -0.2147 -0.0737 -0.0741
  379ccc     H1 9836   7.461   8.046   9.679  0.6460 -0.0264  0.9080
  379ccc     H2 9837   7.386   8.183   9.846 -1.0102  1.7220 -0.4112
  379ccc     C3 9838   7.593   8.164   9.885 -0.0980  0.1074  0.1301
  379ccc     C4 9839   7.727   8.176   9.814 -0.1462  0.1138  0.2486
  379ccc     C5 9840   7.720   8.112   9.671  0.0551  0.0030  0.2015
  379ccc     H3 9841   7.757   8.279   9.790  1.4449 -0.6335 -1.1556
  379ccc     H4 9842   7.569   8.057   9.897  2.7142 -0.6177  0.1010
  379ccc     H5 9843   7.704   8.004   9.679  0.3932 -0.1089 -0.5828
  379ccc     O1 9844   7.843   8.127   9.604 -0.0273  0.4167  0.2060
  379ccc     O2 9845   7.839   8.105   9.880  0.5191 -0.3734  0.0312
  379ccc     O3 9846   7.580   8.222  10.016  0.3799 -0.1092  0.1724
  379ccc     O4 9847   7.482   8.360   9.789 -0.1576  0.4280  0.3864
  379ccc     C6 9848   7.360   8.202   9.567  0.3613  0.0430 -0.3056
  379ccc     H6 9849   7.624   8.161  10.078 -1.9061 -0.2709  1.7622
  379ccc     H7 9850   7.440   8.371   9.703  0.2611  0.6901  0.2104
  379ccc     H8 9851   7.911   8.101   9.814 -0.1102  1.6707 -0.8912
  379ccc     H9 9852   7.265   8.178   9.615  0.8138 -1.4120 -0.0685
  379ccc    H10 9853   7.357   8.139   9.477  0.8280 -2.6013  1.3926
  379ccc     O5 9854   7.366   8.342   9.545 -0.0230  0.0597  0.3453
  379ccc    H11 9855   7.374   8.343   9.448  3.6831 -0.8748  0.5083
  379ccc     O6 9856   7.609   8.167   9.600  0.0222 -0.2382  0.1537
  380ccc     C1 9857   8.421   7.779   8.828 -0.0455  0.2593  0.0017
  380ccc     C2 9858   8.309   7.793   8.721 -0.0634 -0.3393  0.1917
  380ccc     H1 9859   8.452   7.674   8.818 -1.4965 -0.0927 -1.0892
  380ccc     H2 9860   8.338   7.764   8.619 -1.3872  2.7296 -1.1909
  380ccc     C3 9861   8.180   7.717   8.768 -0.2045 -0.1742 -0.1482
  380ccc     C4 9862   8.130   7.760   8.915 -0.5599 -0.3201  0.0638
  380ccc     C5 9863   8.249   7.756   9.013 -0.4953  0.1165 -1.3276
  380ccc     H3 9864   8.104   7.867   8.908  0.1494 -0.1640 -0.2705
  380ccc     H4 9865   8.209   7.612   8.777  0.5213 -0.0890 -1.2457
  380ccc     H5 9866   8.267   7.654   9.048  3.0429  0.6919 -1.0697
  380ccc     O1 9867   8.216   7.824   9.141  0.5164  0.1568 -0.6450
  380ccc     O2 9868   8.025   7.683   8.968  0.4345  0.4445 -0.0299
  380ccc     O3 9869   8.072   7.717   8.672 -0.0508  0.6602  0.5340
  380ccc     O4 9870   8.291   7.932   8.718 -0.0407 -0.7930  0.3273
  380ccc     C6 9871   8.552   7.858   8.799  0.0175  0.4870  0.3029
  380ccc     H6 9872   8.008   7.663   8.722  0.4647  1.5117  2.2183
  380ccc     H7 9873   8.287   7.952   8.623 -0.4073 -2.4424 -0.0370
  380ccc     H8 9874   7.959   7.743   9.006  1.1515 -0.4535  2.9325
  380ccc     H9 9875   8.602   7.839   8.703  0.5274  0.0641  0.6532
  380ccc    H10 9876   8.625   7.841   8.879 -0.5562  1.4449  1.0546
  380ccc     O5 9877   8.528   7.992   8.802  0.2111 -0.1187  0.6244
  380ccc    H11 9878   8.437   8.002   8.768  0.4075  0.4926  0.2476
  380ccc     O6 9879   8.371   7.816   8.958  0.0270  0.2507 -0.3387
  381ccc     C1 9880   8.369   9.365  10.625  0.2744  0.3654 -0.4742
  381ccc     C2 9881   8.466   9.384  10.737 -0.2930 -0.0431 -0.0495
  381ccc     H1 9882   8.279   9.328  10.676  1.2806 -0.8518  0.5090
  381ccc     H2 9883   8.420   9.439  10.819  0.1405  1.8078 -0.9826
  381ccc     C3 9884   8.512   9.249  10.800 -0.6471  0.4499  0.3292
  381ccc     C4 9885   8.558   9.147  10.691  0.1742  0.0134 -0.6078
  381ccc     C5 9886   8.459   9.144  10.566  0.0828  0.2211 -0.3979
  381ccc     H3 9887   8.653   9.195  10.662  0.7330 -0.7710 -0.0999
  381ccc     H4 9888   8.419   9.208  10.842 -0.2988  0.5730  1.2440
  381ccc     H5 9889   8.362   9.105  10.596 -0.6487  1.0350 -1.6276
  381ccc     O1 9890   8.524   9.064  10.462  0.4535 -1.0955  0.2981
  381ccc     O2 9891   8.587   9.026  10.766  0.2142  0.7245 -0.5310
  381ccc     O3 9892   8.603   9.259  10.914  0.3588 -0.5479  0.3883
  381ccc     O4 9893   8.576   9.464  10.696 -0.1917 -0.4761  0.6063
  381ccc     C6 9894   8.319   9.490  10.564  0.4799 -0.6722  0.6068
  381ccc     H6 9895   8.631   9.168  10.935 -0.6886 -0.7974  0.7690
  381ccc     H7 9896   8.640   9.473  10.769  0.0220  0.7497  0.2881
  381ccc     H8 9897   8.658   8.987  10.711  1.4199  0.6734  1.0104
  381ccc     H9 9898   8.295   9.565  10.639 -0.2906 -0.4929  0.1841
  381ccc    H10 9899   8.238   9.476  10.492  1.1016  1.1343 -0.5193
  381ccc     O5 9900   8.427   9.538  10.496  0.0193 -0.3597  0.0969
  381ccc    H11 9901   8.506   9.510  10.545  0.2738  1.4562  0.8415
  381ccc     O6 9902   8.426   9.277  10.521 -0.4750  0.0395  0.6654
  382ccc     C1 9903   7.619   8.907   9.857  0.3253  0.1177  0.4227
  382ccc     C2 9904   7.491   8.827   9.861  0.8010  0.5395 -0.0429
  382ccc     H1 9905   7.684   8.872   9.776  0.3447  0.2289  0.3891
  382ccc     H2 9906   7.447   8.830   9.761  1.0023 -1.4713 -0.2309
  382ccc     C3 9907   7.514   8.680   9.898 -0.0875  0.1257 -1.1658
  382ccc     C4 9908   7.612   8.668  10.025 -0.0117 -0.0113  0.0639
  382ccc     C5 9909   7.738   8.764  10.012 -0.3962 -0.1351  0.2138
  382ccc     H3 9910   7.577   8.715  10.118 -1.5872 -2.4600  0.8191
  382ccc     H4 9911   7.557   8.627   9.813 -0.7191 -0.8651 -0.8787
  382ccc     H5 9912   7.809   8.719   9.941 -0.9290  1.1982 -1.2004
  382ccc     O1 9913   7.797   8.785  10.142  0.4917  0.1373 -0.3992
  382ccc     O2 9914   7.645   8.523  10.045  0.3818 -0.2353  0.2835
  382ccc     O3 9915   7.387   8.611   9.940  0.5725  0.0044 -0.2479
  382ccc     O4 9916   7.410   8.892   9.956 -0.2510  0.2646  0.7297
  382ccc     C6 9917   7.597   9.058   9.826  0.4956  0.5449 -0.1744
  382ccc     H6 9918   7.334   8.579   9.864 -1.8537  0.1147  1.2790
  382ccc     H7 9919   7.324   8.847   9.949  0.0134 -0.6644  2.6963
  382ccc     H8 9920   7.742   8.512  10.044  0.2959 -1.0741 -1.4076
  382ccc     H9 9921   7.535   9.099   9.907 -1.3152  0.9503 -1.6860
  382ccc    H10 9922   7.547   9.081   9.731  0.7135  1.0743 -0.1664
  382ccc     O5 9923   7.726   9.112   9.828 -0.0365 -0.0193 -0.3487
  382ccc    H11 9924   7.770   9.072   9.905 -2.5942  0.3252  1.4149
  382ccc     O6 9925   7.697   8.896   9.969 -0.0316  0.6227  0.0543
  383SOL     OW 9926   8.788   6.883   9.449  0.6727  0.2986 -0.4231
  383SOL    HW1 9927   8.693   6.883   9.454  0.7186  1.2226  0.8849
  383SOL    HW2 9928   8.808   6.954   9.387  0.5187  1.0479  0.3557
  384SOL     OW 9929   4.951   6.392   2.792  0.1105  0.0256  0.2262
  384SOL    HW1 9930   5.029   6.358   2.835  0.8554  1.8376  0.4029
  384SOL    HW2 9931   4.885   6.324   2.805  1.8865 -2.0332 -0.7813
  385SOL     OW 9932   6.520   4.576   2.343 -0.0581 -0.6228 -0.2133
  385SOL    HW1 9933   6.453   4.642   2.361 -0.3430 -0.2417 -2.4005
  385SOL    HW2 9934   6.557   4.556   2.429 -1.3495  0.8835  0.7616
  386SOL     OW 9935   9.763   9.072   1.234  0.0826  0.3308  0.1123
  386SOL    HW1 9936   9.746   9.105   1.146 -1.5981 -1.9655 -0.5165
  386SOL    HW2 9937   9.732   9.142   1.292 -3.2286  0.1151 -1.1445
  387SOL     OW 9938   5.899   0.498   9.168 -0.2948 -0.5636  0.0365
  387SOL    HW1 9939   5.941   0.421   9.129  0.8218  0.3086 -0.5553
  387SOL    HW2 9940   5.938   0.505   9.255 -0.4331 -0.6916  0.1094
  388SOL     OW 9941   0.862   0.710  11.796 -0.7410 -0.3335  0.0896
  388SOL    HW1 9942   0.941   0.682  11.750  0.0186  0.3589  0.9480
  388SOL    HW2 9943   0.886   0.710  11.888 -1.6451  0.1902  0.3391
  389SOL     OW 9944   1.224   0.138   2.869  0.2083 -0.0113 -0.3278
  389SOL    HW1 9945   1.236   0.191   2.948  0.5362 -0.8599  0.2041
  389SOL    HW2 9946   1.140   0.094   2.882  1.4113 -2.1516  0.7824
  390SOL     OW 9947   7.164   0.859   6.471 -0.0201 -0.0827  0.1525
  390SOL    HW1 9948   7.156   0.919   6.396 -0.7156  1.3599  1.3289
  390SOL    HW2 9949   7.182   0.774   6.431 -2.5769  0.1663 -1.8280
  391SOL     OW 9950   1.668   1.298   1.332  0.3635 -0.2339  0.0195
  391SOL    HW1 9951   1.693   1.391   1.326  1.9626 -0.6989 -1.2180
  391SOL    HW2 9952   1.710   1.257   1.257 -1.6469 -1.7084 -0.3723
  392SOL     OW 9953   9.495   0.030   0.188  0.2506  0.8746 -0.1850
  392SOL    HW1 9954   9.533   0.039   0.275  1.6214 -0.3390 -0.6197
  392SOL    HW2 9955   9.408  -0.007   0.204  0.1904  1.3741  0.6993
  393SOL     OW 9956   3.978   9.274   9.604 -0.4163 -0.1452 -0.1131
  393SOL    HW1 9957   3.907   9.211   9.591 -1.3019  0.7005  0.4290
  393SOL    HW2 9958   4.054   9.221   9.628 -1.2356 -0.9896  0.6910
  394SOL     OW 9959   8.823   5.041   4.265  0.1521 -0.0788  0.1398
  394SOL    HW1 9960   8.894   5.037   4.201  1.1663 -1.1092  1.2719
  394SOL    HW2 9961   8.840   4.967   4.324 -1.1546  0.4094  1.1751
  395SOL     OW 9962   1.412  11.898   1.889 -0.1468  0.5978  0.0638
  395SOL    HW1 9963   1.377  11.843   1.959  1.3201 -1.3064 -0.6105
  395SOL    HW2 9964   1.365  11.870   1.810 -0.5763  1.5195 -0.0240
  396SOL     OW 9965  10.278  11.380  12.462  0.0659  0.2945  0.1970
  396SOL    HW1 9966  10.266  11.422  12.377  0.3124 -0.2430 -0.1057
  396SOL    HW2 9967  10.269  11.286  12.444  0.5826  0.1488  0.6833
  397SOL     OW 9968   1.305   7.712  11.552 -0.1298 -0.1432  0.2017
  397SOL    HW1 9969   1.306   7.802  11.585  0.6228 -0.2919  0.6308
  397SOL    HW2 9970   1.396   7.683  11.561 -0.2737 -0.7947 -0.3581
  398SOL     OW 9971   4.723   1.088  10.023 -0.7190 -0.6152 -0.6372
  398SOL    HW1 9972   4.641   1.077  10.072 -2.2062  2.3745 -2.1289
  398SOL    HW2 9973   4.694   1.107   9.933  1.4881  1.6778 -0.9771
  399SOL     OW 9974   0.614   9.934   0.139  0.3860 -0.0220  0.0744
  399SOL    HW1 9975   0.550   9.954   0.071  0.2642 -0.1941  0.1373
  399SOL    HW2 9976   0.589   9.847   0.170 -0.7535  0.8225  1.6933
  400SOL     OW 9977   1.531   5.288  12.016 -0.0428 -0.0946 -0.4511
  400SOL    HW1 9978   1.522   5.330  12.102  0.3350 -1.7352  0.4282
  400SOL    HW2 9979   1.502   5.198  12.030 -1.5978  0.0305 -2.4762
  401SOL     OW 9980   0.692  10.995  11.841  0.4317 -0.8984 -0.6058
  401SOL    HW1 9981   0.761  11.061  11.851 -0.1101 -0.4876  0.7373
  401SOL    HW2 9982   0.686  10.980  11.747  0.0125  1.6112 -1.0541
  402SOL     OW 9983   6.967  10.890   6.390 -0.2530  0.5715 -0.4974
  402SOL    HW1 9984   6.981  10.810   6.339 -2.5489 -1.0057  1.1222
  402SOL    HW2 9985   7.030  10.953   6.354  3.2471 -2.5443 -0.4635
  403SOL     OW 9986   6.696  10.915   6.371  0.4022  0.1474  0.3374
  403SOL    HW1 9987   6.789  10.933   6.385  1.3153 -1.6688 -2.3244
  403SOL    HW2 9988   6.687  10.913   6.275 -1.5748 -3.0009  0.4466
  404SOL     OW 9989  10.519   2.756   0.683  0.2623 -0.5056 -0.2407
  404SOL    HW1 9990  10.470   2.785   0.606 -0.4932 -0.1169  0.3675
  404SOL    HW2 9991  10.458   2.697   0.729 -0.7085  1.9381  1.8705
  405SOL     OW 9992   1.765   9.758   2.428  0.5404 -0.0172  0.2023
  405SOL    HW1 9993   1.751   9.680   2.482  0.9454 -0.7564 -0.7358
  405SOL    HW2 9994   1.756   9.727   2.338 -2.6504  1.6639 -0.1922
  406SOL     OW 9995   4.780   0.836   9.897  0.7173 -0.4881  0.1078
  406SOL    HW1 9996   4.829   0.762   9.933 -1.8133 -2.4480 -0.2167
  406SOL    HW2 9997   4.784   0.902   9.966  0.6680 -2.0192  1.6396
  407SOL     OW 9998   2.806  12.380   4.351  0.3704 -0.2363  0.1518
  407SOL    HW1 9999   2.847  12.467   4.343  1.2038 -0.5056  1.2665
  407SOL    HW210000   2.764  12.381   4.436 -0.1753 -0.7095 -0.1074
  408SOL     OW10001   2.080   6.371   1.028 -0.2523 -0.3889  0.2568
  408SOL    HW110002   2.160   6.319   1.018  0.5760  1.1466 -1.8528
  408SOL    HW210003   2.110   6.455   1.062 -1.0171  0.0184 -0.0393
  409SOL     OW10004   2.726   6.283  10.859 -0.1011  0.3157  0.7218
  409SOL    HW110005   2.768   6.351  10.806 -0.4217  0.2951  0.4327
  409SOL    HW210006   2.650   6.256  10.806  0.4336 -0.7839  0.4846
  410SOL     OW10007   3.243   0.375   9.301 -0.2898 -0.0416 -0.5054
  410SOL    HW110008   3.273   0.464   9.282 -0.3716 -0.3601 -2.3143
  410SOL    HW210009   3.192   0.350   9.224  0.4166 -1.9607 -0.4063
  411SOL     OW10010   7.882   6.756   0.625 -0.2184 -0.6607  0.0867
  411SOL    HW110011   7.809   6.695   0.631 -0.9932  0.3123  0.9184
  411SOL    HW210012   7.951   6.708   0.579 -1.2072 -1.7564 -0.2664
  412SOL     OW10013  10.462  10.577  10.721 -0.1583  0.2128 -0.1403
  412SOL    HW110014  10.552  10.605  10.740  0.0017 -1.1187  1.3093
  412SOL    HW210015  10.471  10.510  10.653 -0.0499  0.1718 -0.0856
  413SOL     OW10016   0.547   9.225   0.523  0.3731  0.2486  0.3700
  413SOL    HW110017   0.462   9.182   0.514  0.7140 -0.6418  1.1344
  413SOL    HW210018   0.552   9.286   0.450 -0.7884  0.0911  0.1401
  414SOL     OW10019   7.585  11.675  10.212  0.2348  0.3693 -0.5109
  414SOL    HW110020   7.670  11.654  10.173  0.1076  1.1183 -1.2297
  414SOL    HW210021   7.607  11.724  10.292  0.5030  1.7444 -1.3851
  415SOL     OW10022   9.904   1.596   3.451 -0.2458  0.2182 -0.2711
  415SOL    HW110023   9.913   1.688   3.428 -0.0642 -0.2208 -2.1240
  415SOL    HW210024   9.833   1.594   3.515 -1.1016  1.5262 -1.1336
  416SOL     OW10025   2.335  11.070   0.753  0.3271 -1.0371 -0.0439
  416SOL    HW110026   2.277  11.027   0.690 -2.1828  3.7388 -1.5032
  416SOL    HW210027   2.403  11.111   0.699  0.0365  0.4361  0.6555
  417SOL     OW10028   4.327   0.377   0.322  0.0329 -0.0880  0.2519
  417SOL    HW110029   4.334   0.467   0.353  0.7617 -0.4266  1.1046
  417SOL    HW210030   4.412   0.359   0.282 -0.5423  0.0088 -1.0985
  418SOL     OW10031   7.108   5.432   2.064  0.4721 -0.0302  0.2324
  418SOL    HW110032   7.083   5.355   2.115  0.1592  0.9065  1.5403
  418SOL    HW210033   7.169   5.398   1.998  0.1434 -1.4281  0.6147
  419SOL     OW10034   8.108   6.821  11.316  0.1370 -0.5079 -0.0200
  419SOL    HW110035   8.083   6.866  11.235 -2.5971 -0.1159  0.9379
  419SOL    HW210036   8.070   6.733  11.307  0.4939 -0.7198  0.5232
  420SOL     OW10037   7.961  10.153   2.580  0.5579  0.6463  0.3995
  420SOL    HW110038   7.943  10.123   2.669 -2.2833  1.4631  0.1870
  420SOL    HW210039   8.038  10.208   2.588 -0.0464  1.2570  2.4854
  421SOL     OW10040   0.881   9.954  12.489  0.2513  0.0697 -0.4456
  421SOL    HW110041   0.898  10.027  12.430 -0.4006  0.5331 -0.0821
  421SOL    HW210042   0.881   9.993  12.577 -1.5283 -0.0740 -0.3431
  422SOL     OW10043   6.109   8.159   1.052  0.1084  0.3625  0.1314
  422SOL    HW110044   6.095   8.121   1.139 -2.5417 -3.1323 -1.5647
  422SOL    HW210045   6.071   8.247   1.059 -0.2004  0.1292  2.4341
  423SOL     OW10046   1.044   1.356  11.763 -0.0422 -0.0072  0.4306
  423SOL    HW110047   0.993   1.436  11.749  0.0488 -0.2439 -1.5098
  423SOL    HW210048   1.108   1.356  11.692  1.2663 -0.8215  1.5617
  424SOL     OW10049   1.908   9.383   7.181 -0.0605  0.5859  0.0540
  424SOL    HW110050   2.002   9.379   7.167 -0.0681  0.2120  0.0991
  424SOL    HW210051   1.898   9.431   7.264  0.1868 -1.0359  1.0599
  425SOL     OW10052  10.371   7.067   6.632 -0.5073  0.1627 -0.2356
  425SOL    HW110053  10.372   7.072   6.727  0.1175  0.8987 -0.2738
  425SOL    HW210054  10.407   6.980   6.612 -2.7063 -0.9171  0.2305
  426SOL     OW10055   2.034  12.321   5.772 -0.4155  0.0756 -0.5238
  426SOL    HW110056   1.998  12.382   5.837 -0.8858 -0.8281  0.0869
  426SOL    HW210057   2.085  12.376   5.713 -0.6751  1.0339  0.1238
  427SOL     OW10058   1.895   3.224   6.487 -0.3805  0.4027 -0.2239
  427SOL    HW110059   1.933   3.294   6.434 -0.2034  1.4225  1.1666
  427SOL    HW210060   1.967   3.163   6.502 -0.1868  0.5942 -0.3714
  428SOL     OW10061   5.862   9.782   5.198 -0.6165 -0.5864  0.3464
  428SOL    HW110062   5.859   9.858   5.140 -1.9375 -0.6163  0.3527
  428SOL    HW210063   5.824   9.813   5.280 -1.7935 -1.4171  0.1359
  429SOL     OW10064   3.803   1.010   5.621  0.3768 -0.4116 -0.4036
  429SOL    HW110065   3.791   0.920   5.649 -1.2157  0.3484  1.6766
  429SOL    HW210066   3.857   1.005   5.543  3.1917 -2.9636  1.4826
  430SOL     OW10067   4.837  11.358   3.477  0.0323  0.2734  0.5874
  430SOL    HW110068   4.911  11.399   3.433 -0.8542  2.6865  1.2339
  430SOL    HW210069   4.796  11.304   3.410 -0.0791  2.2202 -0.9679
  431SOL     OW10070   3.550   3.965   5.420 -0.6242  0.2214  0.2410
  431SOL    HW110071   3.580   4.019   5.493 -0.6059 -0.6855  0.9171
  431SOL    HW210072   3.615   3.980   5.351 -0.2010  0.4694  0.6895
  432SOL     OW10073  10.335   2.637   6.143  0.7813 -0.0538  0.7134
  432SOL    HW110074  10.339   2.689   6.223 -1.1390  3.7515 -1.3894
  432SOL    HW210075  10.377   2.692   6.077 -1.3929 -1.1228 -1.7313
  433SOL     OW10076   7.633   0.598   0.527 -0.7583  0.0307 -0.2882
  433SOL    HW110077   7.566   0.588   0.460 -1.3660 -2.0946  0.5651
  433SOL    HW210078   7.706   0.543   0.496  1.4041  3.4436 -1.9842
  434SOL     OW10079   1.044   2.365   4.297 -0.4083  0.4914 -0.6729
  434SOL    HW110080   1.078   2.319   4.221  1.5919  1.0783 -0.1733
  434SOL    HW210081   0.963   2.406   4.265 -1.4352 -1.9857 -1.5351
  435SOL     OW10082   8.179   3.322   0.977 -0.5634  0.0763  0.3896
  435SOL    HW110083   8.261   3.320   0.928 -0.0640  1.1119  1.1456
  435SOL    HW210084   8.201   3.283   1.062 -0.7846  0.5884  0.6866
  436SOL     OW10085  10.436  10.606   3.568 -0.0713 -0.1189  0.5443
  436SOL    HW110086  10.387  10.564   3.497 -0.2059 -0.1023  0.6282
  436SOL    HW210087  10.460  10.533   3.626 -1.7334  0.1182  1.5639
  437SOL     OW10088   5.123   7.201  10.480 -0.1113 -0.1272 -0.0443
  437SOL    HW110089   5.128   7.295  10.464 -1.7702 -0.0710 -0.3991
  437SOL    HW210090   5.126   7.193  10.576  2.0734  0.0950 -0.0413
  438SOL     OW10091  10.121   8.166   2.382 -0.3210  0.0186 -0.0966
  438SOL    HW110092  10.156   8.138   2.297  1.2311 -0.8737  0.7894
  438SOL    HW210093  10.194   8.212   2.424  0.1766 -2.5571  2.1249
  439SOL     OW10094  11.918   1.446   4.693  0.1515  0.9057 -0.5164
  439SOL    HW110095  11.828   1.479   4.691 -0.3071 -0.2856 -1.1558
  439SOL    HW210096  11.970   1.516   4.654 -0.8504  0.7060 -2.3315
  440SOL     OW10097   2.429   6.744   6.958  0.1848  0.2452  0.0914
  440SOL    HW110098   2.431   6.672   7.022  1.9524 -1.3231 -1.5994
  440SOL    HW210099   2.502   6.800   6.984 -0.3717  0.7492  0.6158
  441SOL     OW10100  12.473   3.544  11.050  0.1154 -0.1116  0.7028
  441SOL    HW110101  12.534   3.481  11.012 -0.2385  0.3251 -0.6331
  441SOL    HW210102  12.416   3.491  11.106 -0.2467 -1.0096 -0.4766
  442SOL     OW10103   5.412   8.509  11.707 -0.0092  0.6405  0.1263
  442SOL    HW110104   5.345   8.557  11.755  0.4439  0.7036  0.7093
  442SOL    HW210105   5.380   8.419  11.703  0.6096  0.2900  1.8645
  443SOL     OW10106   1.141   6.482   3.016 -0.0598  0.1859 -0.2958
  443SOL    HW110107   1.177   6.395   3.001  0.8325  0.8136 -2.0472
  443SOL    HW210108   1.129   6.487   3.111  1.0537 -1.3738 -0.0391
  444SOL     OW10109   9.091   3.241   6.857  0.0615 -0.5148 -0.2492
  444SOL    HW110110   9.030   3.271   6.924  1.0118 -0.6362  0.7069
  444SOL    HW210111   9.157   3.191   6.906  0.0465 -1.7465 -1.4585
  445SOL     OW10112   5.899   6.872  10.430 -0.4727  0.4619  0.7939
  445SOL    HW110113   5.838   6.902  10.362  1.1638 -0.9752 -1.4422
  445SOL    HW210114   5.849   6.805  10.478 -0.9786 -0.0643 -0.4168
  446SOL     OW10115   2.740  11.363  11.720  0.1218 -0.8650  0.3609
  446SOL    HW110116   2.823  11.372  11.767 -0.1386 -1.8046  1.0370
  446SOL    HW210117   2.746  11.425  11.648  1.8460 -1.6313 -0.2161
  447SOL     OW10118   5.798   8.243   1.086  0.0795  0.4273 -0.1479
  447SOL    HW110119   5.861   8.292   1.139  1.6887 -1.1587 -0.4614
  447SOL    HW210120   5.772   8.304   1.017  2.5511  0.6884 -0.9491
  448SOL     OW10121   2.893   9.854   7.656 -0.0391 -0.2630  0.4339
  448SOL    HW110122   2.815   9.873   7.604  0.8362  1.7281 -0.2479
  448SOL    HW210123   2.873   9.770   7.698 -1.5479 -1.0524 -1.6310
  449SOL     OW10124   3.174  11.301   0.365  0.1734  0.1062  0.1174
  449SOL    HW110125   3.152  11.376   0.419  2.6746  0.2736  1.0020
  449SOL    HW210126   3.156  11.330   0.275 -1.8255  0.6182  0.6370
  450SOL     OW10127   0.714   6.859   4.157  0.2008 -0.9446  0.0933
  450SOL    HW110128   0.631   6.814   4.173 -0.8060  0.4300 -1.0314
  450SOL    HW210129   0.773   6.790   4.127 -0.3038 -2.0674  1.5846
  451SOL     OW10130  10.349   3.325   8.811 -0.4108  0.4875 -0.5526
  451SOL    HW110131  10.414   3.325   8.881 -0.2080  0.1045 -0.7381
  451SOL    HW210132  10.303   3.241   8.821 -0.6630  0.6166 -0.6188
  452SOL     OW10133   8.212   5.171   7.965 -0.2335 -0.2564 -0.3224
  452SOL    HW110134   8.188   5.253   7.923 -0.2842 -0.1544 -0.0934
  452SOL    HW210135   8.230   5.195   8.056  0.0321 -0.4486 -0.3209
  453SOL     OW10136   0.478   0.240   5.095 -0.4559  0.3761 -0.2534
  453SOL    HW110137   0.445   0.179   5.161  0.3353  0.0380 -0.1654
  453SOL    HW210138   0.551   0.285   5.138 -0.0662  0.3039 -0.8315
  454SOL     OW10139   4.691   2.733   6.280  0.2445  0.4219 -0.2121
  454SOL    HW110140   4.681   2.674   6.355  0.1770  1.3411  0.5162
  454SOL    HW210141   4.772   2.706   6.238  0.0490 -0.3938 -0.0782
  455SOL     OW10142   2.483   6.909   6.054 -0.4723 -0.2470  0.1221
  455SOL    HW110143   2.551   6.843   6.037 -0.5437 -0.3339  0.1723
  455SOL    HW210144   2.403   6.858   6.066 -0.3190 -0.2312  1.2884
  456SOL     OW10145  10.952   2.197   5.478 -0.3466 -0.3910  0.3581
  456SOL    HW110146  11.012   2.224   5.408 -1.6391 -1.2062 -1.1492
  456SOL    HW210147  10.905   2.277   5.502 -0.0976 -0.1567  0.0737
  457SOL     OW10148   1.089   6.179   5.937 -0.0745 -0.2787 -0.0234
  457SOL    HW110149   1.071   6.253   5.880 -1.0041 -0.6017 -0.1604
  457SOL    HW210150   1.068   6.102   5.884  2.6473 -0.7621 -0.5463
  458SOL     OW10151  10.113   0.267   8.828 -0.0682 -0.2315  0.5514
  458SOL    HW110152  10.135   0.254   8.921 -0.0611 -1.3410  0.4097
  458SOL    HW210153  10.125   0.180   8.789  0.7022  0.3915 -0.6524
  459SOL     OW10154   2.484   7.519   5.386 -0.8123 -0.3252 -0.3010
  459SOL    HW110155   2.410   7.491   5.440  0.2394 -2.6517  0.0633
  459SOL    HW210156   2.515   7.438   5.344  2.1507  0.3346  0.3736
  460SOL     OW10157   0.136   0.760   0.228  1.0056 -0.1554 -0.4498
  460SOL    HW110158   0.081   0.763   0.149 -0.4970 -2.0336  0.4505
  460SOL    HW210159   0.184   0.678   0.221  0.3252 -0.7024  0.8879
  461SOL     OW10160   1.532   3.857   0.213  0.5528 -0.0208  0.1507
  461SOL    HW110161   1.508   3.870   0.305  3.7831  1.1847  0.9524
  461SOL    HW210162   1.485   3.777   0.188  1.5669 -1.9538  3.6824
  462SOL     OW10163   3.704  11.846   8.019  0.0108 -0.4989 -0.2635
  462SOL    HW110164   3.626  11.857   8.074 -1.2331  1.4063 -2.2368
  462SOL    HW210165   3.690  11.762   7.974  0.8873 -1.9090  1.9486
  463SOL     OW10166  11.551  10.174   0.619 -0.1707 -0.1789 -0.1115
  463SOL    HW110167  11.638  10.146   0.590 -0.2558 -1.6601  0.9530
  463SOL    HW210168  11.509  10.094   0.651 -0.9170  0.9450  1.9385
  464SOL     OW10169   3.922   4.229   0.727 -0.3197 -0.2564  0.3054
  464SOL    HW110170   3.851   4.191   0.779  0.0568 -0.5962  0.5770
  464SOL    HW210171   3.903   4.202   0.637 -1.4376  1.0363  0.1174
  465SOL     OW10172   8.566   9.072   3.379 -0.1114  0.1076  0.6835
  465SOL    HW110173   8.583   8.992   3.329 -0.4604 -0.0819  0.8571
  465SOL    HW210174   8.633   9.133   3.351 -0.8568  0.3302 -0.7254
  466SOL     OW10175  11.232   4.762  11.355  0.1737 -0.1560 -0.4655
  466SOL    HW110176  11.140   4.755  11.382  0.0374 -0.3686 -0.9787
  466SOL    HW210177  11.266   4.673  11.368 -0.1712 -0.5417 -1.9713
  467SOL     OW10178   5.993   0.520   3.178  0.1019  0.0767 -0.3044
  467SOL    HW110179   6.081   0.515   3.141 -0.5600 -0.1369 -1.9288
  467SOL    HW210180   5.971   0.430   3.201  0.5692  0.2287  0.8129
  468SOL     OW10181  11.399   0.727   5.360  0.5061 -0.0842 -0.1803
  468SOL    HW110182  11.369   0.655   5.305 -0.6446  0.3505 -0.1486
  468SOL    HW210183  11.365   0.707   5.447 -2.6208  1.9868 -0.7510
  469SOL     OW10184  10.027   8.061   5.526  0.4707  0.1178  0.0551
  469SOL    HW110185   9.953   8.110   5.489  0.8695  0.0086 -0.9182
  469SOL    HW210186  10.067   8.017   5.450  0.2803 -1.5169  0.8580
  470SOL     OW10187   5.867  11.119  12.391 -0.2425 -0.2448  0.2318
  470SOL    HW110188   5.885  11.128  12.485  2.6457 -1.2785 -0.1143
  470SOL    HW210189   5.777  11.088  12.387 -1.3327  2.2049  2.4852
  471SOL     OW10190  11.310   8.258  11.604  0.2033 -0.0148 -0.6978
  471SOL    HW110191  11.306   8.238  11.510  1.7399  1.4258 -1.1264
  471SOL    HW210192  11.399   8.293  11.617  0.6864 -1.8710  1.6687
  472SOL     OW10193  11.027   5.573   0.994  0.3050  0.5541  0.1897
  472SOL    HW110194  11.086   5.614   1.059  0.2870  1.7369 -0.5058
  472SOL    HW210195  11.035   5.479   1.010  0.8599  0.7884  1.4237
  473SOL     OW10196  12.249   0.332   3.749 -0.3343 -0.0767 -0.3858
  473SOL    HW110197  12.262   0.388   3.825  2.0036 -1.6059  0.4621
  473SOL    HW210198  12.195   0.259   3.781  0.2019 -0.4498 -0.3176
  474SOL     OW10199   1.479   9.250   3.300  0.1230  0.4486  0.1643
  474SOL    HW110200   1.443   9.244   3.389  0.4280  1.6704  0.3855
  474SOL    HW210201   1.411   9.211   3.245  0.8742 -2.4310  1.1186
  475SOL     OW10202   4.115   6.390   6.192 -0.7879  0.8341  0.3327
  475SOL    HW110203   4.200   6.427   6.170 -1.0342  0.6231 -1.0324
  475SOL    HW210204   4.122   6.297   6.169 -1.6557  0.9907 -0.6260
  476SOL     OW10205   3.963   7.163   0.272  0.2879  0.0708 -0.4543
  476SOL    HW110206   3.927   7.224   0.337 -1.0624 -0.8124 -0.3492
  476SOL    HW210207   4.050   7.199   0.252  0.9568  0.1248  2.1755
  477SOL     OW10208  10.769  12.594   1.315 -0.0302 -0.0509 -0.1341
  477SOL    HW110209  10.789  12.501   1.304 -2.4271 -0.8436  1.4065
  477SOL    HW210210  10.777  12.609   1.409 -0.8454  1.0142 -0.2229
  478SOL     OW10211   4.219   7.094   1.239  0.5339  0.5221 -0.2721
  478SOL    HW110212   4.196   7.013   1.285  0.0622  1.6899  1.6092
  478SOL    HW210213   4.313   7.104   1.254  0.1574  1.5775  1.6368
  479SOL     OW10214   1.734  11.027   3.588  0.1985  0.3776 -0.2443
  479SOL    HW110215   1.736  11.115   3.627  0.6531 -0.7942  2.6239
  479SOL    HW210216   1.644  11.018   3.556 -0.9120  0.7704  2.4621
  480SOL     OW10217   0.037  12.291   6.860  0.0980  0.4525 -0.0754
  480SOL    HW110218  -0.050  12.305   6.824 -0.4406 -1.4836  0.3802
  480SOL    HW210219   0.089  12.259   6.787  0.0185  0.1690 -0.0094
  481SOL     OW10220   9.332   1.287   6.524  0.4163 -0.3395  0.0326
  481SOL    HW110221   9.254   1.234   6.539 -0.6599  0.7931 -1.3067
  481SOL    HW210222   9.354   1.322   6.611 -0.5384 -0.6883  0.4316
  482SOL     OW10223  11.877   6.780  10.496 -0.5751 -0.0101  0.9434
  482SOL    HW110224  11.934   6.841  10.450 -0.3406  0.4472  1.8167
  482SOL    HW210225  11.926   6.755  10.575 -0.0152 -2.5489 -0.1268
  483SOL     OW10226   4.806   0.215  11.766 -0.1916  0.1266  0.1799
  483SOL    HW110227   4.891   0.172  11.756 -0.7186 -0.5706 -1.9301
  483SOL    HW210228   4.765   0.171  11.840  0.7570 -0.4132  0.4030
  484SOL     OW10229  11.622   2.286  11.111  0.0753  0.4379 -0.3931
  484SOL    HW110230  11.651   2.228  11.181 -3.0561 -0.6204  0.1721
  484SOL    HW210231  11.574   2.229  11.051 -0.1517  1.8881 -1.6394
  485SOL     OW10232   9.217   5.561   4.963  0.2592 -0.0807  0.3385
  485SOL    HW110233   9.284   5.630   4.962  0.4972 -0.3099  0.2488
  485SOL    HW210234   9.267   5.480   4.957  0.1536 -0.3815  2.4823
  486SOL     OW10235  11.917   0.618   6.808 -0.5824 -0.1394 -0.5209
  486SOL    HW110236  11.847   0.665   6.853 -1.0230 -0.9655 -0.3227
  486SOL    HW210237  11.925   0.535   6.856  0.4741 -0.0960 -0.5901
  487SOL     OW10238   3.857   1.197   7.947  0.1045  0.0904 -0.0727
  487SOL    HW110239   3.929   1.251   7.979 -0.8161  1.9881 -1.0551
  487SOL    HW210240   3.859   1.209   7.852  0.2179 -2.1218 -0.4075
  488SOL     OW10241   9.067   1.241   4.055  0.1242  1.1038 -0.4809
  488SOL    HW110242   8.979   1.229   4.017  0.5973  0.4113 -1.4055
  488SOL    HW210243   9.120   1.173   4.013  0.2913 -0.9934  2.8123
  489SOL     OW10244   3.496  11.347   4.972  0.4127 -0.6094 -0.3635
  489SOL    HW110245   3.526  11.333   4.882  1.4389  2.3691 -0.5972
  489SOL    HW210246   3.425  11.410   4.964 -0.6103 -1.5773  0.8193
  490SOL     OW10247   1.194  11.460   8.252  0.7150  0.0996  0.9028
  490SOL    HW110248   1.123  11.396   8.256  0.8444 -0.2552 -1.0702
  490SOL    HW210249   1.239  11.451   8.336 -1.2150 -0.0449  1.9803
  491SOL     OW10250   8.895   3.447   8.937 -0.3057  0.2937 -0.7522
  491SOL    HW110251   8.817   3.470   8.987  0.5980 -1.5025  1.6838
  491SOL    HW210252   8.860   3.404   8.858 -1.7596  1.6132 -0.8836
  492SOL     OW10253  12.004   0.704  11.736  0.5030  0.4718  0.7960
  492SOL    HW110254  12.066   0.637  11.765 -1.8840 -2.1594  0.3079
  492SOL    HW210255  12.006   0.699  11.640 -0.9473 -0.2326  0.7720
  493SOL     OW10256   8.601  10.051   0.236  0.0040  0.2910 -0.9490
  493SOL    HW110257   8.545  10.067   0.312 -0.8415 -1.1351 -1.2359
  493SOL    HW210258   8.666  10.121   0.239 -0.2514  0.5037  0.8690
  494SOL     OW10259   6.908   6.558   7.836  0.2584  0.0083 -0.0454
  494SOL    HW110260   6.974   6.523   7.897 -2.2318 -4.3201  0.5563
  494SOL    HW210261   6.917   6.503   7.758 -2.4653 -0.6204  0.0112
  495SOL     OW10262   6.772   2.038   9.249  0.4039 -0.0801  0.0115
  495SOL    HW110263   6.750   1.990   9.329  2.2312 -0.5885  0.2622
  495SOL    HW210264   6.864   2.062   9.260  1.2368 -1.6272 -2.6072
  496SOL     OW10265   5.189  12.018   8.443  0.2330  0.1910 -0.3616
  496SOL    HW110266   5.118  12.083   8.448  1.7463  1.8725  0.6791
  496SOL    HW210267   5.184  11.971   8.526  0.5735  0.6214 -0.0875
  497SOL     OW10268  12.473   9.002   8.807  0.1655  0.0703  0.0185
  497SOL    HW110269  12.536   8.943   8.847  1.9194  1.8919  0.0847
  497SOL    HW210270  12.509   9.022   8.721  0.1880  1.8486  0.4024
  498SOL     OW10271  10.966   4.644   3.630 -0.2712  0.0599  0.1936
  498SOL    HW110272  10.932   4.649   3.720  1.6966 -1.0463  1.0525
  498SOL    HW210273  11.054   4.681   3.636 -0.2649  0.3671 -1.3967
  499SOL     OW10274   7.328   8.016   0.296  0.4384  0.4956 -0.8947
  499SOL    HW110275   7.401   7.997   0.356 -0.1028 -0.4263 -0.5128
  499SOL    HW210276   7.370   8.026   0.210  1.0572  0.3183 -0.6204
  500SOL     OW10277   6.367   5.789  12.225  0.0849  0.0545 -0.0480
  500SOL    HW110278   6.386   5.754  12.138  0.3712  0.7406 -0.2700
  500SOL    HW210279   6.349   5.882  12.210 -0.7413 -0.0064  0.5178
  501SOL     OW10280   2.890   9.259   1.911  0.0977 -0.4735  0.4061
  501SOL    HW110281   2.945   9.291   1.982 -0.5934  1.5775  0.0896
  501SOL    HW210282   2.902   9.164   1.912  2.4025 -0.2357  1.3141
  502SOL     OW10283   9.992   4.478   0.609  0.7397 -0.2168 -0.1613
  502SOL    HW110284   9.954   4.509   0.527  2.0149  1.7710 -0.0401
  502SOL    HW210285   9.982   4.382   0.605 -1.5273 -0.0043 -1.4387
  503SOL     OW10286   9.305  11.549   0.988  0.1092 -1.0240  0.4873
  503SOL    HW110287   9.346  11.634   1.006 -0.6790 -0.5506  0.0993
  503SOL    HW210288   9.253  11.530   1.066  0.2496 -1.1306  0.5552
  504SOL     OW10289   8.075   8.688   7.519 -0.6597 -0.2469 -0.0158
  504SOL    HW110290   8.089   8.745   7.444 -0.4406 -1.2523 -0.7440
  504SOL    HW210291   8.161   8.654   7.541 -0.7258  0.0074  0.6743
  505SOL     OW10292  10.486   5.296  10.399  0.0123  0.0273  0.0983
  505SOL    HW110293  10.565   5.244  10.411  0.3714  0.2300 -1.2259
  505SOL    HW210294  10.498   5.339  10.314 -0.0751  2.6074  1.2771
  506SOL     OW10295   7.592   8.855   0.245 -0.2114  0.1432  0.0879
  506SOL    HW110296   7.535   8.778   0.248 -0.5992  0.4668  1.9219
  506SOL    HW210297   7.636   8.848   0.160 -0.9139 -1.6101 -0.1827
  507SOL     OW10298   0.625  12.305   7.722  0.0819  0.1816 -0.2064
  507SOL    HW110299   0.609  12.221   7.678  0.3644 -0.0159  0.0640
  507SOL    HW210300   0.685  12.352   7.664  0.7302 -0.2184  0.1257
  508SOL     OW10301   9.431   0.697  11.789 -0.1273 -0.3771 -0.1376
  508SOL    HW110302   9.354   0.729  11.835  1.1953  1.7535  0.7378
  508SOL    HW210303   9.465   0.626  11.844 -0.6577 -0.3614  0.2148
  509SOL     OW10304   3.789   4.444   1.652 -0.1676  1.1575  0.0544
  509SOL    HW110305   3.838   4.524   1.671  2.0090 -0.2262  0.6762
  509SOL    HW210306   3.855   4.384   1.616 -1.4544 -0.7575  0.7480
  510SOL     OW10307   8.931   6.776   8.078 -0.2954  0.2716  0.0485
  510SOL    HW110308   8.999   6.821   8.028 -0.3963 -0.5524 -0.8709
  510SOL    HW210309   8.877   6.846   8.116  1.2710  0.9528  1.1244
  511SOL     OW10310   5.020   2.976   1.654  0.3146  0.0065 -0.0867
  511SOL    HW110311   4.953   3.032   1.693 -0.1410  0.6859 -1.7359
  511SOL    HW210312   4.971   2.920   1.594  1.3056  1.5347 -2.4747
  512SOL     OW10313   5.709   3.179   3.076 -0.6805  0.2548 -0.3622
  512SOL    HW110314   5.677   3.145   3.159 -0.7727  0.1123 -0.4550
  512SOL    HW210315   5.704   3.104   3.016 -3.2190  1.0310 -1.2361
  513SOL     OW10316   3.167   4.606   0.513 -0.3743  0.0362  0.1308
  513SOL    HW110317   3.246   4.651   0.543 -1.1309  2.2390 -0.9640
  513SOL    HW210318   3.180   4.594   0.419 -1.3660  0.4641 -0.0677
  514SOL     OW10319   0.642   8.922  12.248 -0.6305  0.2950 -0.1971
  514SOL    HW110320   0.653   8.900  12.155 -0.6388  0.1788 -0.1716
  514SOL    HW210321   0.654   8.838  12.293  0.4535  0.5496 -0.0104
  515SOL     OW10322   3.765   5.777   4.660 -0.2388 -0.0233  0.1655
  515SOL    HW110323   3.800   5.688   4.670 -0.3261  0.0245  0.9740
  515SOL    HW210324   3.765   5.793   4.565  2.4063  0.1574  0.1263
  516SOL     OW10325   3.933   8.403   1.012  0.1122  0.2067 -0.0089
  516SOL    HW110326   3.905   8.314   1.034 -1.3617  0.5358 -0.4209
  516SOL    HW210327   3.898   8.457   1.083 -0.4654  0.6548 -0.6230
  517SOL     OW10328   3.397   9.592   4.358 -0.0416 -0.1725 -1.1027
  517SOL    HW110329   3.444   9.630   4.284  0.5856  0.8433 -0.2140
  517SOL    HW210330   3.432   9.504   4.366  0.6003  0.0515 -1.4036
  518SOL     OW10331   7.239   7.385   2.479 -0.0901 -0.1513  0.0505
  518SOL    HW110332   7.317   7.373   2.532 -0.2589 -0.0131  0.3285
  518SOL    HW210333   7.190   7.303   2.490 -1.2033  0.7059  1.8847
  519SOL     OW10334   2.328   0.197   8.075 -0.1673 -0.1244 -0.2567
  519SOL    HW110335   2.391   0.260   8.109  0.1922 -0.6648  0.1086
  519SOL    HW210336   2.253   0.249   8.049 -0.2278  0.3630  0.8480
  520SOL     OW10337   8.830   1.425   4.271 -0.0974  0.2295 -0.1858
  520SOL    HW110338   8.923   1.445   4.284 -0.4899  0.8093  2.2278
  520SOL    HW210339   8.807   1.371   4.347 -1.8851  0.6196 -0.4115
  521SOL     OW10340  11.655   5.832   5.612 -0.3372  0.1279 -0.5093
  521SOL    HW110341  11.562   5.851   5.625 -0.0428  1.9931 -0.8904
  521SOL    HW210342  11.697   5.918   5.611  1.4186 -0.6946 -0.2148
  522SOL     OW10343   6.787   5.012  11.609  0.0850 -0.3347 -0.2875
  522SOL    HW110344   6.763   5.070  11.681  0.6261 -0.9447  0.3872
  522SOL    HW210345   6.863   5.055  11.569  0.9722 -0.9611  0.6968
  523SOL     OW10346   6.799   8.504   2.062  0.0549  0.3203 -0.3959
  523SOL    HW110347   6.895   8.512   2.066  0.0077  0.4104  1.1051
  523SOL    HW210348   6.773   8.491   2.153 -1.6154  3.0474 -0.4112
  524SOL     OW10349   9.411   5.988   9.791 -0.8887  0.3055 -0.2451
  524SOL    HW110350   9.397   6.050   9.720 -1.2433 -0.2015 -0.6235
  524SOL    HW210351   9.324   5.970   9.825 -0.6770  0.9602  0.6896
  525SOL     OW10352   6.954   3.689  10.673 -0.5054  0.2579 -0.3368
  525SOL    HW110353   6.929   3.776  10.642 -0.4292  0.9144  1.3641
  525SOL    HW210354   7.047   3.697  10.694 -0.3844 -0.3806 -0.5991
  526SOL     OW10355   1.944   1.683   7.381  0.4847  0.0023 -0.7195
  526SOL    HW110356   1.962   1.617   7.314 -0.1692  0.1299 -1.0302
  526SOL    HW210357   1.850   1.675   7.397  0.5829  0.1829 -0.0329
  527SOL     OW10358   6.234   2.216   4.979  0.2607 -0.1029 -0.3938
  527SOL    HW110359   6.200   2.242   5.065 -1.3626 -0.8811 -0.7627
  527SOL    HW210360   6.282   2.135   4.996  0.0123 -0.2135 -0.2240
  528SOL     OW10361   6.685   9.454   2.273 -0.1227 -0.0356 -0.0990
  528SOL    HW110362   6.683   9.362   2.298  0.3714  0.1798  0.8089
  528SOL    HW210363   6.656   9.501   2.352 -0.1665  0.5900 -0.4772
  529SOL     OW10364   7.907   7.272   0.536  0.7128 -0.3659  0.1391
  529SOL    HW110365   7.985   7.261   0.482  1.0417  1.0159  0.3096
  529SOL    HW210366   7.906   7.194   0.592  2.0080 -0.3845  0.1704
  530SOL     OW10367   3.790   8.111   1.785 -0.0558  0.3952 -0.1028
  530SOL    HW110368   3.797   8.020   1.814 -2.3007  0.4988  0.9830
  530SOL    HW210369   3.840   8.161   1.850 -1.7973  0.2305  1.4625
  531SOL     OW10370   9.972   5.265   5.691  0.0916  0.2558 -0.6175
  531SOL    HW110371  10.020   5.346   5.705 -0.1804  0.2017  0.7209
  531SOL    HW210372  10.023   5.198   5.737  1.2360 -0.7085 -3.0740
  532SOL     OW10373   4.723  10.515   6.140 -0.2181 -0.3663 -0.2294
  532SOL    HW110374   4.675  10.490   6.061  0.3869 -1.4449 -0.2673
  532SOL    HW210375   4.812  10.482   6.126  0.4552  1.2311  0.0142
  533SOL     OW10376   4.711   3.401   4.046  0.3171  0.4375 -0.2824
  533SOL    HW110377   4.680   3.488   4.018  1.1581  0.5193 -1.0057
  533SOL    HW210378   4.803   3.415   4.067  0.1535 -0.0312  0.8095
  534SOL     OW10379   3.953   9.918   0.911  0.0059 -0.0819 -0.0896
  534SOL    HW110380   4.012   9.890   0.981  0.7362  1.5239 -0.0408
  534SOL    HW210381   4.007   9.918   0.832 -0.0393  0.9141 -0.1304
  535SOL     OW10382   3.088   1.751  11.917  0.0627 -0.1841 -0.3065
  535SOL    HW110383   3.062   1.727  12.007  1.1363  2.0295  0.6738
  535SOL    HW210384   3.131   1.673  11.883  1.6624 -0.4131  1.9657
  536SOL     OW10385   7.481  12.430   2.073 -0.4483  0.9577 -0.0524
  536SOL    HW110386   7.521  12.344   2.065 -0.5163  0.8640  0.5537
  536SOL    HW210387   7.533  12.487   2.016 -0.3342  0.5415 -0.3651
  537SOL     OW10388  11.435   4.717  11.749 -0.1201  0.2279 -0.3427
  537SOL    HW110389  11.477   4.660  11.684 -1.2241 -1.8140  0.6334
  537SOL    HW210390  11.410   4.795  11.700 -0.2930 -0.9555 -2.2268
  538SOL     OW10391   8.489   2.653  10.792 -0.1599  0.0636  0.1479
  538SOL    HW110392   8.470   2.576  10.845 -1.6512 -0.5440 -1.2056
  538SOL    HW210393   8.423   2.652  10.722  0.6501  1.7946 -0.7154
  539SOL     OW10394   6.135   5.057  10.544 -0.2564 -0.0102  0.6604
  539SOL    HW110395   6.106   4.986  10.488  0.1469  0.1810  0.2040
  539SOL    HW210396   6.143   5.018  10.631 -1.6275 -0.1284  0.7637
  540SOL     OW10397   7.991   7.186   8.520  0.0181  0.0792  0.0983
  540SOL    HW110398   7.974   7.257   8.582  1.3718  1.1438 -0.6574
  540SOL    HW210399   7.989   7.106   8.572 -0.2965  0.7998  1.2245
  541SOL     OW10400   8.747   5.421   8.466  0.1343  0.0071 -0.1223
  541SOL    HW110401   8.659   5.452   8.444  0.0531  0.2242  0.4990
  541SOL    HW210402   8.735   5.327   8.485 -0.1273  0.2229  0.8324
  542SOL     OW10403   4.181   0.911   1.554  0.2006  0.4417 -0.2313
  542SOL    HW110404   4.220   0.880   1.472 -2.1697  1.6303 -1.9235
  542SOL    HW210405   4.178   0.833   1.610 -0.9323 -1.1978 -2.4265
  543SOL     OW10406   0.660   3.870  12.454 -0.0301  0.1651 -0.3819
  543SOL    HW110407   0.575   3.846  12.490 -0.0733  0.3656 -0.3479
  543SOL    HW210408   0.646   3.957  12.415  0.1618  0.2042 -0.3650
  544SOL     OW10409   3.165   6.354  10.066  0.0787  0.2865 -0.5361
  544SOL    HW110410   3.086   6.320  10.108  0.6130 -0.9621 -0.4946
  544SOL    HW210411   3.135   6.429  10.015 -1.0133  0.2550  0.0338
  545SOL     OW10412   8.889   3.457   5.940 -0.1945 -0.6099  0.5766
  545SOL    HW110413   8.812   3.403   5.922  0.7684 -2.0819  0.7424
  545SOL    HW210414   8.943   3.448   5.861 -0.7070  1.4426 -0.0875
  546SOL     OW10415  12.216  10.346   5.323  0.1673 -0.4295  0.1453
  546SOL    HW110416  12.200  10.257   5.292  1.4501 -0.4362 -0.5815
  546SOL    HW210417  12.304  10.344   5.361 -0.2666  0.2587  1.2386
  547SOL     OW10418   3.882   4.220   7.204 -0.1638 -0.2127 -0.2000
  547SOL    HW110419   3.879   4.189   7.113 -1.6195  1.0891 -0.6500
  547SOL    HW210420   3.790   4.227   7.229  0.2227 -0.4538  1.3532
  548SOL     OW10421   1.725   8.286   7.728 -0.1651  0.0403 -0.2115
  548SOL    HW110422   1.785   8.268   7.801  0.9430 -2.0226 -1.5542
  548SOL    HW210423   1.647   8.322   7.770  1.9867  3.1350  1.6104
  549SOL     OW10424   1.904  11.476   4.399  0.0619  0.2194 -0.5181
  549SOL    HW110425   1.932  11.566   4.384  0.2051  0.5842  1.5981
  549SOL    HW210426   1.918  11.432   4.315  0.6910  1.9756 -1.3863
  550SOL     OW10427   4.949   2.520  10.995  0.4744 -0.8741  0.0794
  550SOL    HW110428   5.023   2.573  10.968  0.9432 -1.4671  0.1908
  550SOL    HW210429   4.928   2.550  11.083  0.0318 -0.1215 -0.2696
  551SOL     OW10430   1.890   3.404   3.079 -0.1918 -0.2001 -0.4841
  551SOL    HW110431   1.939   3.393   2.997 -1.0023 -1.2265 -0.8450
  551SOL    HW210432   1.873   3.315   3.109  0.2640  0.1608  0.9279
  552SOL     OW10433   0.991   2.267   7.260  0.5943  0.4737 -0.6145
  552SOL    HW110434   1.082   2.253   7.288 -0.0052 -2.3794  0.2923
  552SOL    HW210435   0.996   2.338   7.197  3.0948  2.1420  1.2495
  553SOL     OW10436  11.883   8.164   3.696  0.3050  0.0568  0.0139
  553SOL    HW110437  11.933   8.170   3.614 -1.5578 -2.5142 -1.4768
  553SOL    HW210438  11.806   8.219   3.680  0.6311  0.7029  0.6390
  554SOL     OW10439   6.825   3.510   0.564 -0.4983  0.3422  0.3786
  554SOL    HW110440   6.731   3.492   0.568 -0.3577 -1.1288 -1.5752
  554SOL    HW210441   6.865   3.425   0.546  1.1855  1.0312  0.6744
  555SOL     OW10442   8.904   6.501  10.463  0.1711 -0.0032  0.3970
  555SOL    HW110443   8.993   6.488  10.429  1.4284  2.2473  2.4680
  555SOL    HW210444   8.850   6.519  10.386  1.3880 -1.7985 -0.9506
  556SOL     OW10445  11.947   2.538   2.440 -0.0949  0.3180 -0.6067
  556SOL    HW110446  11.962   2.616   2.387  0.0114  0.8655  0.2094
  556SOL    HW210447  11.885   2.567   2.508 -0.1441 -0.3356 -0.3659
  557SOL     OW10448  11.155   1.632   6.271 -0.6477  0.3290  0.6667
  557SOL    HW110449  11.152   1.727   6.287 -3.2059  0.3025  0.8763
  557SOL    HW210450  11.140   1.623   6.177  1.1456  0.1384  0.3755
  558SOL     OW10451  11.206   8.277   1.185  0.7201  0.2678 -0.0911
  558SOL    HW110452  11.206   8.361   1.139 -1.6233  0.0064 -0.6959
  558SOL    HW210453  11.220   8.301   1.277  0.1927  1.3218 -0.2694
  559SOL     OW10454   2.294  12.015   7.348  0.5050  0.1426  0.0494
  559SOL    HW110455   2.274  12.107   7.366  0.3839 -0.1192  1.2850
  559SOL    HW210456   2.224  11.986   7.289  0.7180  0.9142 -0.6104
  560SOL     OW10457   6.484   9.206   8.056 -0.3775 -0.3189  0.2666
  560SOL    HW110458   6.515   9.233   7.969  1.4190 -1.9024  0.3408
  560SOL    HW210459   6.404   9.157   8.039 -0.3273 -0.1661 -0.4415
  561SOL     OW10460   5.128   5.503   6.640  0.2876  0.3016 -0.4689
  561SOL    HW110461   5.037   5.480   6.658  0.6050 -0.1295  0.7158
  561SOL    HW210462   5.162   5.430   6.588  0.4324 -0.4285  0.6187
  562SOL     OW10463   1.901  11.512  10.212  0.3877 -0.3095  0.1175
  562SOL    HW110464   1.841  11.520  10.285 -0.9524  0.7808 -1.0409
  562SOL    HW210465   1.927  11.601  10.191  1.4085 -0.6652 -0.2233
  563SOL     OW10466   4.048  10.506   6.626 -0.0974  0.0114 -0.0363
  563SOL    HW110467   4.064  10.443   6.556 -0.2559 -0.5601  0.4316
  563SOL    HW210468   3.955  10.496   6.647 -0.4002  1.2299 -0.7445
  564SOL     OW10469   4.751   1.542   0.173  0.7065 -0.5354  0.2500
  564SOL    HW110470   4.790   1.465   0.132 -0.3703 -0.7499 -0.4009
  564SOL    HW210471   4.761   1.526   0.267  0.3122 -1.5828  0.1309
  565SOL     OW10472   2.956   7.306   4.211  0.0133  0.3865 -0.7016
  565SOL    HW110473   2.938   7.387   4.259  0.3128  0.2989 -0.4416
  565SOL    HW210474   2.995   7.248   4.276  0.7788  0.3985 -1.1482
  566SOL     OW10475   1.703  10.508   6.521 -0.0396 -0.3718  0.2002
  566SOL    HW110476   1.662  10.428   6.489  1.4628 -1.3429  0.6086
  566SOL    HW210477   1.727  10.490   6.611 -1.6073  1.3257  1.0148
  567SOL     OW10478  10.561   8.635  11.952  0.7150 -0.8072 -0.4473
  567SOL    HW110479  10.607   8.716  11.933  0.8173 -0.9024 -0.6075
  567SOL    HW210480  10.580   8.618  12.045 -0.7036  0.2434  0.0549
  568SOL     OW10481   1.294   5.822   2.511 -0.4270  0.1256  0.2498
  568SOL    HW110482   1.364   5.885   2.493  2.0116 -2.3835  0.2102
  568SOL    HW210483   1.334   5.737   2.495 -2.8348 -1.5811  2.4697
  569SOL     OW10484   4.119   9.104   9.757 -0.3749 -0.7097 -0.1481
  569SOL    HW110485   4.190   9.059   9.711  0.9234 -0.5696  1.5811
  569SOL    HW210486   4.158   9.128   9.841 -1.6571  1.7860 -0.1869
  570SOL     OW10487  11.296  12.562   5.306 -0.4872  0.0060 -0.5250
  570SOL    HW110488  11.320  12.608   5.386 -1.6956  0.1162 -0.2012
  570SOL    HW210489  11.303  12.628   5.237 -0.4518  0.1943 -0.3415
  571SOL     OW10490   0.076   1.993   7.174 -0.6388 -0.0860  0.2850
  571SOL    HW110491   0.014   1.974   7.104 -2.1171  1.1674  1.2068
  571SOL    HW210492   0.095   2.086   7.165 -0.1393 -0.1097  1.0055
  572SOL     OW10493   0.964  11.493  11.177  0.4315  0.3672 -0.1757
  572SOL    HW110494   0.960  11.587  11.193 -1.7969  0.7097 -2.2350
  572SOL    HW210495   1.014  11.485  11.095  0.9039 -0.2994  0.1626
  573SOL     OW10496  11.179   0.190  10.776  0.3511  0.3124  0.5283
  573SOL    HW110497  11.124   0.230  10.843  0.0612  0.6540  0.0937
  573SOL    HW210498  11.154   0.098  10.777 -2.4845  0.8987 -1.7148
  574SOL     OW10499   7.620   3.105   8.841 -0.1000  0.2238  0.3164
  574SOL    HW110500   7.562   3.046   8.890  0.6593 -0.6900  0.1374
  574SOL    HW210501   7.639   3.176   8.903 -0.0819 -0.3236  0.9482
  575SOL     OW10502   2.003   4.217   3.490  0.1901  0.0762  0.0987
  575SOL    HW110503   1.952   4.226   3.410 -0.5205  0.0453  0.5310
  575SOL    HW210504   1.940   4.184   3.555  0.8446 -0.2843  0.5652
  576SOL     OW10505   0.097   9.238  10.922 -0.1749  0.3902  0.2434
  576SOL    HW110506   0.049   9.171  10.872  0.7375  0.0478 -0.2043
  576SOL    HW210507   0.166   9.188  10.968  0.7745  1.0615 -0.4158
  577SOL     OW10508   1.311  10.890   8.756 -0.1430  0.1048  0.0814
  577SOL    HW110509   1.353  10.976   8.749  1.0262 -0.1662  2.6986
  577SOL    HW210510   1.324  10.864   8.847 -0.8635 -2.6629 -0.5099
  578SOL     OW10511   2.096   7.724   1.216  0.1738  0.1344  0.1865
  578SOL    HW110512   2.029   7.662   1.248 -0.0356 -1.6629 -3.2912
  578SOL    HW210513   2.110   7.699   1.125  1.8482  3.8213 -0.7384
  579SOL     OW10514  10.156   6.872   7.520 -0.0223 -0.2837  0.1315
  579SOL    HW110515  10.075   6.838   7.482  1.1972 -1.4276 -1.5930
  579SOL    HW210516  10.157   6.964   7.496 -0.9932 -0.1512  0.5463
  580SOL     OW10517   4.106  12.041   6.175  0.2792 -0.0630 -0.9370
  580SOL    HW110518   4.197  12.041   6.147  0.2144  1.3896 -1.2786
  580SOL    HW210519   4.095  12.125   6.220 -0.5184 -0.8614  0.4360
  581SOL     OW10520  11.187   5.611   7.447 -0.4953 -0.0689 -0.0923
  581SOL    HW110521  11.182   5.525   7.490 -1.2108  1.1671  2.4580
  581SOL    HW210522  11.227   5.668   7.512 -0.8125  1.7414 -1.4246
  582SOL     OW10523   0.233   1.127  11.257 -1.1732 -0.3695  0.1380
  582SOL    HW110524   0.257   1.054  11.314 -0.4026  0.4317  0.8679
  582SOL    HW210525   0.141   1.112  11.236 -1.2760 -1.0469  1.0408
  583SOL     OW10526   8.048   4.819  12.250  0.1619 -0.0090 -0.0388
  583SOL    HW110527   7.954   4.839  12.248  0.2433  0.9356  2.4316
  583SOL    HW210528   8.083   4.863  12.172 -1.1988  1.1827 -0.0293
  584SOL     OW10529   2.523   0.609   8.255 -0.4602  0.6736 -0.5021
  584SOL    HW110530   2.493   0.698   8.279  0.6321  0.9270 -0.0139
  584SOL    HW210531   2.595   0.624   8.195  0.9682  0.1899  1.0262
  585SOL     OW10532   8.561   6.226   1.842  0.1835  0.5103  0.1760
  585SOL    HW110533   8.620   6.248   1.915 -1.0358 -0.2623  1.4357
  585SOL    HW210534   8.515   6.147   1.871 -1.7815  1.3154 -0.5751
  586SOL     OW10535   5.939   8.442   4.971 -0.2647 -0.3365  0.2014
  586SOL    HW110536   5.960   8.402   4.886  0.2717 -0.0571  0.1948
  586SOL    HW210537   5.899   8.371   5.021  1.3247 -1.1142  0.4353
  587SOL     OW10538   0.382   6.372   4.695 -0.1939  0.1607 -0.3837
  587SOL    HW110539   0.469   6.349   4.726  0.0941 -0.9008 -1.8886
  587SOL    HW210540   0.387   6.466   4.676  1.2923 -0.2571 -2.3820
  588SOL     OW10541  10.394   7.283  12.439  0.4374 -0.9440  0.2740
  588SOL    HW110542  10.402   7.190  12.420  1.3520 -0.6535 -0.9262
  588SOL    HW210543  10.430   7.293  12.527 -1.9255 -2.0386  1.4376
  589SOL     OW10544   5.462   2.184  10.147  0.0661  0.0344  0.0623
  589SOL    HW110545   5.429   2.100  10.116  0.1293 -0.4145  1.1627
  589SOL    HW210546   5.542   2.162  10.194 -0.1248  0.6641  0.6993
  590SOL     OW10547   5.967   2.594  11.871 -0.1418  0.0110  0.3453
  590SOL    HW110548   5.932   2.522  11.819  3.3259  0.1009 -2.4323
  590SOL    HW210549   6.051   2.563  11.904 -0.2919  1.5277  2.4121
  591SOL     OW10550   5.065   8.825   1.892 -0.2649  0.2158 -0.2998
  591SOL    HW110551   5.022   8.845   1.975 -0.5511 -0.3509 -0.3056
  591SOL    HW210552   5.079   8.910   1.851 -0.3097  0.4878  0.2349
  592SOL     OW10553  11.460   6.418   7.595  0.2762  0.6226 -0.1548
  592SOL    HW110554  11.408   6.338   7.607 -1.3875  0.9343 -3.8079
  592SOL    HW210555  11.401   6.489   7.622 -0.1952  0.8067 -1.5591
  593SOL     OW10556  10.860   2.108   4.628 -0.0913  0.2420  0.3719
  593SOL    HW110557  10.780   2.147   4.593  0.6197  3.1832  1.7909
  593SOL    HW210558  10.833   2.019   4.655 -2.5757  0.7461 -0.1808
  594SOL     OW10559  11.655  12.429   5.356 -0.4505  0.0507 -0.2971
  594SOL    HW110560  11.577  12.379   5.331  0.6514 -0.8125 -2.2171
  594SOL    HW210561  11.651  12.508   5.302 -0.5279  0.5269  0.3908
  595SOL     OW10562   6.274   2.478   6.687 -0.0439 -0.0642  0.0737
  595SOL    HW110563   6.303   2.568   6.672 -0.6937 -0.0963 -1.5152
  595SOL    HW210564   6.350   2.435   6.728  2.2206 -0.0749 -3.6556
  596SOL     OW10565   3.648   9.946   2.575  0.4510  0.7422  0.0523
  596SOL    HW110566   3.666   9.998   2.653  1.6959 -0.6771  0.7630
  596SOL    HW210567   3.730   9.949   2.525  0.3292 -0.0093 -0.2000
  597SOL     OW10568   7.667   3.430   5.594  0.3927 -0.2216 -0.2138
  597SOL    HW110569   7.600   3.375   5.635 -0.4424 -1.0917 -2.5913
  597SOL    HW210570   7.619   3.503   5.557  0.4848 -1.3549 -2.8214
  598SOL     OW10571  10.934   9.568   7.683  0.0773 -0.2712 -0.6492
  598SOL    HW110572  10.910   9.480   7.652 -0.6102  0.3029 -1.8230
  598SOL    HW210573  10.951   9.617   7.602  1.7180  0.3453  0.0300
  599SOL     OW10574   6.331   7.996   5.906 -0.0404 -0.3890  0.6958
  599SOL    HW110575   6.266   8.017   5.973  0.7814 -2.0976  2.1395
  599SOL    HW210576   6.406   7.964   5.956  0.5031 -1.9998 -1.0478
  600SOL     OW10577   0.975  11.766  11.162  0.0163 -0.0445 -0.3755
  600SOL    HW110578   0.967  11.829  11.089 -0.3577 -1.3506 -1.5053
  600SOL    HW210579   0.885  11.742  11.182  0.1313  0.1801  0.4182
  601SOL     OW10580   1.835   1.840   7.752 -0.3457 -0.7345 -0.4863
  601SOL    HW110581   1.772   1.911   7.736 -1.1207 -1.2733  0.1260
  601SOL    HW210582   1.821   1.816   7.844  0.3468 -1.2621 -0.5162
  602SOL     OW10583   8.889   6.441  10.889 -1.0722  0.0059  0.3752
  602SOL    HW110584   8.903   6.496  10.967 -0.0327 -1.5952  1.3735
  602SOL    HW210585   8.973   6.399  10.874 -1.8391 -1.3222 -0.3510
  603SOL     OW10586  10.397   5.827   3.836 -0.5383  0.1449 -0.4010
  603SOL    HW110587  10.437   5.758   3.783  1.0148  0.3562  0.4526
  603SOL    HW210588  10.369   5.782   3.916 -0.0367  0.4047 -0.0811
  604SOL     OW10589  10.557   8.106   1.187 -0.4749 -0.2622 -0.0525
  604SOL    HW110590  10.532   8.041   1.121 -0.9901  0.3615 -0.4861
  604SOL    HW210591  10.652   8.116   1.176 -0.5290 -0.2982 -0.5783
  605SOL     OW10592   4.831   4.399   9.093 -0.0428 -0.2418  0.1062
  605SOL    HW110593   4.756   4.407   9.151  0.6739 -0.8460  1.1561
  605SOL    HW210594   4.812   4.323   9.039  0.6122 -1.5880  1.6762
  606SOL     OW10595   1.296   9.616  10.163 -0.0715 -0.3005 -0.0112
  606SOL    HW110596   1.388   9.642  10.166 -0.0002 -0.2545 -1.7843
  606SOL    HW210597   1.298   9.522  10.144 -0.4005 -0.8101  2.1443
  607SOL     OW10598   6.142  12.282   4.871 -0.0590  0.1509 -0.1951
  607SOL    HW110599   6.052  12.291   4.900 -0.5724 -2.2385 -0.8346
  607SOL    HW210600   6.163  12.367   4.831 -1.3139  1.4160  1.6705
  608SOL     OW10601   8.467   2.364  11.332 -0.1314  0.2045  0.9117
  608SOL    HW110602   8.504   2.384  11.247  0.3751  0.3867  1.1694
  608SOL    HW210603   8.443   2.271  11.327 -0.9026  0.4310  0.2916
  609SOL     OW10604   8.338   9.711   0.629  0.1862  0.0732 -0.0259
  609SOL    HW110605   8.258   9.658   0.635  0.5061 -0.3323  0.8684
  609SOL    HW210606   8.345   9.733   0.537 -0.7312 -0.2467 -0.1848
  610SOL     OW10607   2.345   4.301   2.215 -0.0901 -0.4890  0.3191
  610SOL    HW110608   2.429   4.308   2.168 -1.4653 -1.5671 -2.5574
  610SOL    HW210609   2.369   4.266   2.301  2.3902 -1.1350 -0.5350
  611SOL     OW10610   7.963   6.134   1.071 -0.3733  0.4609  0.5119
  611SOL    HW110611   7.916   6.059   1.108 -0.5051  1.1002  1.7007
  611SOL    HW210612   7.976   6.111   0.979  0.3822 -1.4071  1.0294
  612SOL     OW10613   4.614   2.088   1.203  0.4942 -0.2577  0.3702
  612SOL    HW110614   4.632   2.070   1.111  1.4320  1.2361  0.2222
  612SOL    HW210615   4.628   2.004   1.247 -1.1380 -1.2900 -0.9683
  613SOL     OW10616   9.846   4.004   9.227  0.5519 -0.5094 -0.0481
  613SOL    HW110617   9.867   3.978   9.137  0.6352 -0.7451  0.0378
  613SOL    HW210618   9.764   4.052   9.219  0.4614 -0.6888 -0.2319
  614SOL     OW10619   3.252   8.854   3.379  0.3143  0.3171 -0.4785
  614SOL    HW110620   3.236   8.943   3.347 -1.6527  0.0499 -0.3299
  614SOL    HW210621   3.285   8.866   3.468  1.8199  0.9160 -1.0728
  615SOL     OW10622   1.046   8.766   0.372  0.1410  0.3795  0.0326
  615SOL    HW110623   1.077   8.731   0.456 -0.9785  0.3404  0.4475
  615SOL    HW210624   1.057   8.694   0.311 -2.8644 -1.0802  1.0336
  616SOL     OW10625   3.299  11.898   5.283 -0.1535 -0.1433  0.3930
  616SOL    HW110626   3.318  11.855   5.199 -2.4043  1.3943 -1.0225
  616SOL    HW210627   3.221  11.854   5.316  0.5777 -0.5752  1.5899
  617SOL     OW10628  11.828   0.974   4.213  0.3199 -0.2846  0.0016
  617SOL    HW110629  11.867   1.006   4.131 -0.6909 -2.6170 -1.4917
  617SOL    HW210630  11.757   1.036   4.231 -0.5158 -0.6344 -1.8506
  618SOL     OW10631   0.161   4.204   8.875 -0.7186 -0.1616 -0.4348
  618SOL    HW110632   0.225   4.210   8.804  2.0920 -2.3612  1.6615
  618SOL    HW210633   0.106   4.129   8.852  1.0047 -1.6785  0.2241
  619SOL     OW10634   9.392   2.727   1.388 -0.4599  0.2325  0.0092
  619SOL    HW110635   9.440   2.689   1.461  0.2829  1.4678  0.2046
  619SOL    HW210636   9.395   2.661   1.319 -0.2764 -0.5293  0.7393
  620SOL     OW10637   2.697   7.627   3.671  0.4424  0.2522 -0.0633
  620SOL    HW110638   2.602   7.626   3.684  0.1592  2.1129 -1.4725
  620SOL    HW210639   2.709   7.606   3.578  1.5595 -1.5388  0.4338
  621SOL     OW10640   4.998   1.372   4.557 -0.2200  0.2446 -0.3815
  621SOL    HW110641   5.065   1.401   4.495  0.1131  1.0071  0.3145
  621SOL    HW210642   4.992   1.443   4.621 -0.6928 -0.4341  0.3465
  622SOL     OW10643   2.748   4.153   4.817  0.1567  0.2094 -0.3928
  622SOL    HW110644   2.808   4.182   4.886 -0.1217 -1.4759  0.6086
  622SOL    HW210645   2.802   4.097   4.761 -0.2940 -0.8471  0.1875
  623SOL     OW10646   8.568   9.136   0.139  0.4816  0.0052  0.6478
  623SOL    HW110647   8.508   9.093   0.201  0.5260 -2.1047 -0.6465
  623SOL    HW210648   8.551   9.229   0.150 -2.0310 -0.4475  1.3506
  624SOL     OW10649   7.073   2.313   3.986 -0.2058  0.0152 -0.7302
  624SOL    HW110650   7.026   2.394   3.965 -1.8681 -1.0786 -1.4244
  624SOL    HW210651   7.166   2.339   3.986 -0.7373  2.1465  0.2214
  625SOL     OW10652   0.178   4.286   9.368  0.2648  0.1109  0.2350
  625SOL    HW110653   0.084   4.271   9.362  0.3187 -0.1247 -0.0770
  625SOL    HW210654   0.202   4.319   9.281  0.3023  1.1449  0.6213
  626SOL     OW10655   0.999   9.936   5.988 -0.2035 -0.0729 -0.1920
  626SOL    HW110656   1.029   9.977   6.069 -1.0315  1.0682 -0.4483
  626SOL    HW210657   1.064   9.867   5.972  0.7586  0.5799  0.6951
  627SOL     OW10658   4.553   1.023   1.547  0.1854 -0.5402 -0.2572
  627SOL    HW110659   4.495   0.990   1.616  0.6366 -5.0289 -1.7330
  627SOL    HW210660   4.495   1.061   1.482 -0.6374 -0.6435  0.4062
  628SOL     OW10661   6.546   5.910   3.842 -0.4713  0.3304 -0.5630
  628SOL    HW110662   6.550   5.969   3.917 -0.7161  1.2392 -1.2418
  628SOL    HW210663   6.524   5.825   3.880 -0.4476  0.7400  0.4081
  629SOL     OW10664   1.783   6.041   4.979  0.4828  0.4826 -0.6749
  629SOL    HW110665   1.835   6.077   4.908  1.5561  0.3155  0.0027
  629SOL    HW210666   1.844   5.986   5.029 -0.1686  0.8011  0.5236
  630SOL     OW10667   1.989  11.900   2.692 -0.2950  0.7208 -0.2838
  630SOL    HW110668   1.893  11.902   2.690 -0.3200 -0.2898 -0.4342
  630SOL    HW210669   2.011  11.807   2.695  0.6392  0.9582  2.0734
  631SOL     OW10670   9.908   6.988   6.901  0.3708 -0.2606  0.1164
  631SOL    HW110671   9.863   6.935   6.836  0.2242  1.0056 -0.8519
  631SOL    HW210672   9.849   6.991   6.976 -0.5272  0.2056 -0.5975
  632SOL     OW10673   5.460  10.194  12.372 -0.2255 -0.3376  0.5584
  632SOL    HW110674   5.522  10.121  12.372  0.2745  0.0759 -0.0569
  632SOL    HW210675   5.506  10.264  12.419 -0.2211 -0.0275  0.0964
  633SOL     OW10676   8.704   2.616   2.526 -0.0178 -0.1714 -0.1208
  633SOL    HW110677   8.784   2.655   2.561 -0.0297  0.0377 -0.3276
  633SOL    HW210678   8.691   2.659   2.442 -0.8484  0.4652  0.3171
  634SOL     OW10679  11.957   3.157   8.593  0.0518 -0.2753 -0.4077
  634SOL    HW110680  11.941   3.089   8.658  1.4459  1.3007  1.7537
  634SOL    HW210681  12.049   3.181   8.606  0.4699 -0.0249 -3.1773
  635SOL     OW10682   2.195   8.774   0.752 -0.0999 -0.2331  0.3414
  635SOL    HW110683   2.099   8.778   0.747 -0.0613 -0.1123 -0.3860
  635SOL    HW210684   2.218   8.695   0.702  0.3307  1.2190 -1.8892
  636SOL     OW10685   9.668   6.534  11.170  0.2321  0.2943 -0.2089
  636SOL    HW110686   9.635   6.445  11.166  0.2299  0.3261 -0.9876
  636SOL    HW210687   9.672   6.563  11.079 -0.1601  1.2313  0.0498
  637SOL     OW10688  10.451   4.383   1.247  0.0231 -0.0708  0.2280
  637SOL    HW110689  10.381   4.337   1.201  0.4260 -0.5853  0.1207
  637SOL    HW210690  10.523   4.320   1.251  0.8022  0.7420 -0.4645
  638SOL     OW10691  11.379   5.849  10.645  0.6957 -0.2222 -0.1923
  638SOL    HW110692  11.367   5.769  10.696 -3.1984  0.4175  0.2124
  638SOL    HW210693  11.358   5.919  10.707 -0.1462  0.8136 -1.6063
  639SOL     OW10694   2.103   3.725   2.585 -0.9250 -0.8765  0.4743
  639SOL    HW110695   2.045   3.800   2.575 -0.2789 -0.5871 -1.8036
  639SOL    HW210696   2.114   3.692   2.495  2.0141 -1.2141  0.8674
  640SOL     OW10697   9.503   0.915   1.672 -0.4830 -0.3291  0.0500
  640SOL    HW110698   9.475   0.942   1.760  1.5502  0.2898  0.5645
  640SOL    HW210699   9.552   0.835   1.687  0.5046  0.1725 -0.3921
  641SOL     OW10700   7.050  11.613   1.277 -0.1974 -0.2712  0.0594
  641SOL    HW110701   7.060  11.708   1.285 -1.2898 -0.2349  1.4213
  641SOL    HW210702   7.104  11.589   1.203 -1.0871  1.6253 -1.2828
  642SOL     OW10703   6.878   4.361   4.861  0.0290  0.2268  0.3320
  642SOL    HW110704   6.943   4.367   4.790 -0.3363 -0.2353 -0.0472
  642SOL    HW210705   6.800   4.403   4.825  0.4734  1.8920  1.2323
  643SOL     OW10706   0.223   8.441  10.631 -0.0233 -0.6433 -0.7445
  643SOL    HW110707   0.209   8.371  10.567  2.3349 -0.7489 -1.2276
  643SOL    HW210708   0.243   8.518  10.579  1.0605 -0.5195 -0.1736
  644SOL     OW10709  10.043   2.275   6.710  0.1367  0.5717  0.3181
  644SOL    HW110710   9.969   2.248   6.656  0.5673 -0.0763  0.0564
  644SOL    HW210711  10.104   2.316   6.649  0.8589 -0.6288  0.2133
  645SOL     OW10712  11.993  10.161  10.544 -0.0261  0.1598  0.2029
  645SOL    HW110713  11.955  10.100  10.481 -0.8250  0.5276  0.3079
  645SOL    HW210714  12.086  10.143  10.542 -0.1822 -0.6564 -0.2053
  646SOL     OW10715   9.138   6.031   5.350  0.8198 -0.4148  0.9615
  646SOL    HW110716   9.207   6.094   5.371  0.6030  0.2498 -0.2531
  646SOL    HW210717   9.057   6.078   5.367  0.6552 -0.8200  1.3131
  647SOL     OW10718  11.417   2.492   0.328  0.4102 -0.2589  0.1130
  647SOL    HW110719  11.344   2.441   0.292  0.5335 -0.7301  0.5159
  647SOL    HW210720  11.468   2.428   0.379  0.2925  0.3780  1.0395
  648SOL     OW10721   7.160   0.790   7.693  0.4238  0.0294 -0.3470
  648SOL    HW110722   7.241   0.840   7.694  0.6637 -0.3466  1.3418
  648SOL    HW210723   7.102   0.839   7.635  0.4317  2.6322  1.6751
  649SOL     OW10724   1.068   9.913   2.485  0.3118 -0.3090 -0.2687
  649SOL    HW110725   1.092   9.998   2.524  2.0163 -0.3333 -1.1598
  649SOL    HW210726   0.983   9.893   2.523  0.2366  1.4130  0.6000
  650SOL     OW10727   2.031   5.010   7.547  0.0240 -0.5551 -0.3893
  650SOL    HW110728   2.042   5.104   7.533  1.4684 -0.6968 -0.3550
  650SOL    HW210729   1.936   4.996   7.544 -0.1855  0.8266 -0.8289
  651SOL     OW10730   8.446   1.480   0.815  0.5052  0.3211  0.1986
  651SOL    HW110731   8.487   1.450   0.896  1.4865 -0.2256 -0.4730
  651SOL    HW210732   8.495   1.436   0.746 -0.9728 -0.0362 -0.6703
  652SOL     OW10733  10.793  12.441   5.227  0.4532 -0.1087 -0.1216
  652SOL    HW110734  10.791  12.536   5.216 -1.3032 -0.1249 -0.1626
  652SOL    HW210735  10.752  12.425   5.312 -2.6383 -0.9611 -1.6252
  653SOL     OW10736   0.339   4.940   8.327  0.2654 -0.3943 -0.3472
  653SOL    HW110737   0.282   4.869   8.355 -0.9572  0.6353 -0.1251
  653SOL    HW210738   0.374   4.911   8.243 -1.2303 -0.7388 -0.8814
  654SOL     OW10739   6.745   2.784   3.837 -0.2286 -0.2210 -0.1221
  654SOL    HW110740   6.734   2.755   3.747 -1.9798  0.2058 -0.0620
  654SOL    HW210741   6.800   2.716   3.877 -2.9047 -2.7174 -0.4077
  655SOL     OW10742   5.522  11.969   6.368 -0.2453  0.3967  0.2469
  655SOL    HW110743   5.586  11.934   6.431 -0.5336 -0.8579 -0.1164
  655SOL    HW210744   5.566  12.044   6.328  0.9652 -0.3701  0.0789
  656SOL     OW10745  12.587   0.505   2.840 -0.2943 -0.2257  0.2204
  656SOL    HW110746  12.680   0.501   2.821  0.0009 -0.7436  1.6855
  656SOL    HW210747  12.578   0.573   2.907 -0.9234 -0.3847  0.3072
  657SOL     OW10748   5.652  11.697   2.795  0.2159 -0.3206  0.1967
  657SOL    HW110749   5.563  11.695   2.760 -0.2305 -0.0699  1.2982
  657SOL    HW210750   5.649  11.640   2.871  1.3710 -1.4623 -0.5801
  658SOL     OW10751  10.171   7.994   2.784 -0.0132 -0.3264 -0.6315
  658SOL    HW110752  10.242   8.017   2.844 -1.4475 -2.5050  2.1779
  658SOL    HW210753  10.199   7.912   2.744  0.2853  0.3469 -1.8388
  659SOL     OW10754   7.283  10.073  11.463  0.0871 -0.1170 -0.0657
  659SOL    HW110755   7.217  10.024  11.413 -0.1289  0.2669 -0.1631
  659SOL    HW210756   7.360  10.017  11.462  0.0442 -0.1802 -0.7158
  660SOL     OW10757   3.403   0.014   7.774  0.2094 -0.3761 -0.1147
  660SOL    HW110758   3.443   0.089   7.817 -0.1501 -0.2179 -0.0522
  660SOL    HW210759   3.442   0.013   7.686  1.2519 -0.9428  0.3326
  661SOL     OW10760   6.036   2.332   4.195 -0.1553 -0.7951  0.6777
  661SOL    HW110761   6.112   2.378   4.162  0.2224 -1.5427  0.4756
  661SOL    HW210762   6.060   2.239   4.190 -1.1238 -1.0480  0.4874
  662SOL     OW10763   6.728   2.044   3.176 -0.3687 -0.1604 -0.1194
  662SOL    HW110764   6.703   2.095   3.099  0.8217  0.4483 -0.1225
  662SOL    HW210765   6.659   2.062   3.241 -0.7255  0.2800 -0.6190
  663SOL     OW10766   4.751  11.830   6.466 -0.7026 -0.0497  0.3882
  663SOL    HW110767   4.724  11.851   6.556 -2.3796 -1.1950  0.2109
  663SOL    HW210768   4.746  11.734   6.462  1.2880 -0.1601 -0.3888
  664SOL     OW10769   6.766   1.816   5.678 -0.2140  0.0980 -0.1530
  664SOL    HW110770   6.790   1.894   5.729  2.2928  0.0584 -1.1425
  664SOL    HW210771   6.703   1.848   5.614 -0.5409  0.9261  0.5470
  665SOL     OW10772   8.975   0.352  11.708 -0.4942  0.1065  0.1430
  665SOL    HW110773   8.940   0.436  11.738 -0.3614  0.9460 -1.9351
  665SOL    HW210774   8.899   0.294  11.705 -0.4289 -0.2389  2.5813
  666SOL     OW10775  10.466  12.275  11.510  1.0893 -0.2570 -0.1303
  666SOL    HW110776  10.432  12.274  11.599 -0.6442  0.7363 -0.7458
  666SOL    HW210777  10.432  12.195  11.470 -0.7519  0.8026 -0.7865
  667SOL     OW10778   2.003   1.810  11.188  0.2520 -0.8276  0.3350
  667SOL    HW110779   1.940   1.743  11.162  1.0936 -1.5702  0.1772
  667SOL    HW210780   2.085   1.785  11.145  0.7731 -0.1175  0.8826
  668SOL     OW10781   1.308   5.274   1.792 -0.8629 -0.1443 -0.1646
  668SOL    HW110782   1.258   5.352   1.815 -2.0142 -1.1715  1.0069
  668SOL    HW210783   1.318   5.227   1.875  1.7231 -0.2106 -0.4246
  669SOL     OW10784   4.538  12.502   6.478  0.9056 -0.0410 -0.0666
  669SOL    HW110785   4.545  12.582   6.426  1.2037 -1.5360 -2.4470
  669SOL    HW210786   4.575  12.434   6.423 -0.3151 -2.0441  1.4565
  670SOL     OW10787   9.335  10.398   8.357 -0.3009 -0.3215  0.1806
  670SOL    HW110788   9.401  10.421   8.292  1.3660 -3.0163  0.7524
  670SOL    HW210789   9.258  10.375   8.306  0.7304 -1.6249 -0.8434
  671SOL     OW10790   0.924   4.982  11.378 -0.0234 -0.3704 -0.1950
  671SOL    HW110791   1.016   5.006  11.378 -0.3393  0.9577  0.4457
  671SOL    HW210792   0.915   4.918  11.448  0.4077 -0.4968 -0.2562
  672SOL     OW10793   6.137   2.509   6.431  0.3384  0.4245 -0.2738
  672SOL    HW110794   6.118   2.417   6.413  0.8146  0.5521 -1.5371
  672SOL    HW210795   6.211   2.507   6.492  1.9577 -0.0643 -2.1528
  673SOL     OW10796   9.746   9.549   2.644  0.0653  0.0836  0.4402
  673SOL    HW110797   9.661   9.566   2.604  0.0723 -2.1777 -0.6599
  673SOL    HW210798   9.733   9.566   2.737 -1.5062  0.0126  0.2494
  674SOL     OW10799   7.146  11.376   4.462 -0.2516 -0.3892  0.3072
  674SOL    HW110800   7.074  11.318   4.486 -0.7940  0.5010  0.8692
  674SOL    HW210801   7.115  11.423   4.385 -0.2004 -0.1530  0.4285
  675SOL     OW10802  10.240   4.288   2.452  0.0870  0.2147 -0.1785
  675SOL    HW110803  10.271   4.270   2.363 -1.4597 -0.9227 -0.5344
  675SOL    HW210804  10.147   4.265   2.450 -0.0786  0.5633  1.6369
  676SOL     OW10805   5.211   1.184  10.198  0.6674  0.4617  0.1960
  676SOL    HW110806   5.211   1.279  10.214 -0.0603  0.6537 -0.8366
  676SOL    HW210807   5.124   1.166  10.162  0.4820 -0.7585  1.2177
  677SOL     OW10808  10.517   4.723  10.246 -0.4009  0.2447 -0.0276
  677SOL    HW110809  10.608   4.720  10.219  0.6303  0.8221  2.9232
  677SOL    HW210810  10.497   4.634  10.275  0.0713  0.6244  1.5695
  678SOL     OW10811   4.285   2.852  10.918 -0.0978 -0.1534  0.4753
  678SOL    HW110812   4.364   2.898  10.891 -0.3019  1.0081  1.7420
  678SOL    HW210813   4.240   2.914  10.976 -1.1240 -1.3975  1.0562
  679SOL     OW10814   6.776   7.227   2.105  0.4702  0.1359  0.2518
  679SOL    HW110815   6.715   7.253   2.035  0.7235  0.9253  0.3083
  679SOL    HW210816   6.809   7.310   2.139 -0.9588 -0.1216  2.5020
  680SOL     OW10817   3.606   0.472  10.442  0.0500 -0.1548  0.4226
  680SOL    HW110818   3.606   0.528  10.520  2.4432 -0.6609  0.8592
  680SOL    HW210819   3.699   0.466  10.417 -0.6174 -0.1953 -2.3508
  681SOL     OW10820  11.979   0.225  10.149  0.1580  0.3218  0.2863
  681SOL    HW110821  11.960   0.207  10.057  1.9497  0.3074 -0.1270
  681SOL    HW210822  11.897   0.207  10.195 -0.4839 -0.6387 -1.1719
  682SOL     OW10823   3.894   3.024   0.528  0.0557  0.0627 -0.0682
  682SOL    HW110824   3.907   3.059   0.616 -1.8176 -0.8957  0.6346
  682SOL    HW210825   3.799   3.028   0.515  0.2176 -0.7335 -1.6593
  683SOL     OW10826  10.586   3.161  10.441  0.4305 -0.0650 -0.4068
  683SOL    HW110827  10.678   3.144  10.464  0.2522 -0.5857 -0.0480
  683SOL    HW210828  10.590   3.207  10.358  0.9994 -0.5905 -0.6795
  684SOL     OW10829   6.804  11.007  10.524  0.2092  0.5479  0.5677
  684SOL    HW110830   6.897  11.012  10.546 -0.0622  0.9012  1.7044
  684SOL    HW210831   6.759  11.037  10.603 -0.9066 -0.7116  0.4557
  685SOL     OW10832   4.264   8.600   8.644  0.1265  0.2599  0.2021
  685SOL    HW110833   4.199   8.594   8.714 -0.5831  0.7712 -0.3904
  685SOL    HW210834   4.344   8.562   8.681  0.5572  2.8406  2.2105
  686SOL     OW10835   0.305   0.410   3.258  0.4128  0.0681 -0.1785
  686SOL    HW110836   0.358   0.415   3.338 -1.6368  1.5018  1.1937
  686SOL    HW210837   0.283   0.317   3.250  0.3455 -0.0530  1.1540
  687SOL     OW10838   4.376   0.742   7.352  0.1122  0.2137  0.7153
  687SOL    HW110839   4.455   0.792   7.332  0.4771 -0.7839 -0.4843
  687SOL    HW210840   4.305   0.792   7.313  0.3765  0.1937  0.2022
  688SOL     OW10841   7.497   9.293   6.903  0.1740 -0.9685 -0.1693
  688SOL    HW110842   7.574   9.287   6.847 -0.2231 -1.0333 -0.7232
  688SOL    HW210843   7.519   9.242   6.981  0.4480 -1.5229 -0.6061
  689SOL     OW10844  10.670   7.297   7.689 -0.1779  0.2228  0.2361
  689SOL    HW110845  10.752   7.269   7.648 -0.4582  0.9337 -0.8475
  689SOL    HW210846  10.653   7.231   7.756 -0.4525 -1.8349 -1.7514
  690SOL     OW10847   0.780  11.462   1.769 -0.0843  0.6883 -0.1422
  690SOL    HW110848   0.736  11.472   1.854  0.6665 -1.2055  0.5246
  690SOL    HW210849   0.713  11.428   1.710 -0.0600 -0.2246  0.3347
  691SOL     OW10850   2.887   9.860   3.418  0.4561 -0.5098 -0.4998
  691SOL    HW110851   2.967   9.912   3.426 -0.1380  0.6056 -1.6039
  691SOL    HW210852   2.831   9.892   3.489  0.8506 -1.0903  0.0922
  692SOL     OW10853   4.778   0.077   1.413  0.7010  0.4397 -0.5507
  692SOL    HW110854   4.819   0.137   1.475  1.4453  0.1532 -0.7621
  692SOL    HW210855   4.693   0.055   1.453  1.1383  0.3244  0.3231
  693SOL     OW10856   3.444   9.099   5.298  0.1404  0.0650 -0.2821
  693SOL    HW110857   3.475   9.112   5.388 -2.6465  1.3255  0.6151
  693SOL    HW210858   3.517   9.129   5.243  1.8489 -0.5610  1.5156
  694SOL     OW10859   8.650   3.398   1.523  0.4581  0.2094  0.4433
  694SOL    HW110860   8.744   3.399   1.505  0.3743  0.6195  0.0295
  694SOL    HW210861   8.626   3.490   1.535  0.6280 -0.0237  3.3318
  695SOL     OW10862   3.297   7.310   5.020  0.3985  0.1151 -0.2697
  695SOL    HW110863   3.255   7.301   4.934 -0.0474  2.3021 -0.3208
  695SOL    HW210864   3.315   7.403   5.029  0.3671 -0.0378  2.0546
  696SOL     OW10865   4.565  10.816   9.390  0.3871 -0.6039 -0.0023
  696SOL    HW110866   4.600  10.743   9.340  0.0003 -0.5854 -0.3041
  696SOL    HW210867   4.470  10.808   9.381  0.3191 -0.4800  0.5568
  697SOL     OW10868   7.907   7.176   1.530 -0.3115 -0.1047  0.0503
  697SOL    HW110869   7.979   7.115   1.545 -0.3393  0.2256  1.6946
  697SOL    HW210870   7.923   7.247   1.591 -2.5459 -0.4815  1.1561
  698SOL     OW10871   1.977   0.440   2.215  0.2641 -1.3330  0.5246
  698SOL    HW110872   1.989   0.500   2.290  0.1567 -0.8965  0.1983
  698SOL    HW210873   2.060   0.446   2.167 -0.6044  0.4524 -0.8543
  699SOL     OW10874   3.577   8.672   1.980 -0.1322 -0.4601 -0.3268
  699SOL    HW110875   3.605   8.712   2.063 -0.8292  0.3750 -0.4754
  699SOL    HW210876   3.656   8.669   1.927  0.3247 -1.0028  0.3593
  700SOL     OW10877   3.921  10.684   3.301  0.5608 -0.1521 -0.0768
  700SOL    HW110878   4.016  10.680   3.295  0.4966  0.0339 -1.8036
  700SOL    HW210879   3.899  10.773   3.273 -0.2372 -1.0790 -2.7331
  701SOL     OW10880   2.529  10.586   1.596 -0.1159  0.4031 -0.0673
  701SOL    HW110881   2.479  10.553   1.521 -1.1123 -0.2501  0.8442
  701SOL    HW210882   2.462  10.615   1.659  0.5223 -1.7581  1.7638
  702SOL     OW10883  11.674  10.737   5.331  0.4142 -0.2111 -0.3074
  702SOL    HW110884  11.590  10.706   5.367  0.7657 -0.3303  0.4399
  702SOL    HW210885  11.653  10.766   5.242 -0.6610  0.8629  0.2586
  703SOL     OW10886  11.535  10.604   3.983 -0.3497  0.1225 -0.1542
  703SOL    HW110887  11.484  10.650   4.049 -0.0173 -1.0273  0.9392
  703SOL    HW210888  11.577  10.532   4.030 -1.2633 -1.6284 -1.8836
  704SOL     OW10889  10.453   3.406   8.424 -0.0530 -0.4434 -0.1649
  704SOL    HW110890  10.402   3.487   8.419 -1.5228 -1.2870  0.4953
  704SOL    HW210891  10.389   3.336   8.408  0.8895 -1.5515  0.7173
  705SOL     OW10892   4.054  12.373   0.883  0.1677  0.2993 -0.3968
  705SOL    HW110893   4.108  12.438   0.928 -1.2529 -0.3970  2.5194
  705SOL    HW210894   4.093  12.289   0.907  0.5707 -0.0887 -2.2122
  706SOL     OW10895   4.017   7.026   4.514  0.2953  0.3705 -0.0119
  706SOL    HW110896   4.072   7.098   4.484  0.2453  0.1079 -0.7451
  706SOL    HW210897   4.054   6.948   4.473 -0.6869  0.2043 -0.6155
  707SOL     OW10898   9.434   7.042   4.863  0.3489 -0.3235  0.1011
  707SOL    HW110899   9.388   7.015   4.942  2.1100  0.0643  1.3214
  707SOL    HW210900   9.503   6.976   4.851 -0.1345 -0.6155 -1.3810
  708SOL     OW10901   7.966   5.415  10.524  0.3632  0.6354 -0.3516
  708SOL    HW110902   7.933   5.489  10.472  1.3220  0.6682 -0.9443
  708SOL    HW210903   7.985   5.347  10.459 -0.1103  0.0273  0.1484
  709SOL     OW10904   4.679   0.467   0.460  0.3687  0.1416 -0.0658
  709SOL    HW110905   4.599   0.519   0.466  0.4704  0.2743  0.1491
  709SOL    HW210906   4.655   0.392   0.406  0.1194  0.2184 -0.0626
  710SOL     OW10907   4.076   9.682   6.735  0.3083 -0.0335 -0.0355
  710SOL    HW110908   3.996   9.630   6.728  1.0277 -1.7229  2.7805
  710SOL    HW210909   4.145   9.626   6.701  0.7010  0.1528  0.4357
  711SOL     OW10910  12.031  10.404   1.818 -0.5771  0.0973 -0.6807
  711SOL    HW110911  12.115  10.400   1.772 -0.7187 -1.3444 -0.8740
  711SOL    HW210912  11.995  10.315   1.810 -2.2339  0.7376 -0.8222
  712SOL     OW10913   5.037   8.922   0.922 -0.2817 -0.1066  0.8756
  712SOL    HW110914   5.009   9.000   0.970  0.7954  0.4015  0.7102
  712SOL    HW210915   5.095   8.876   0.983  0.2111 -0.0321  0.4662
  713SOL     OW10916   9.692  11.243   4.293 -0.8525  0.0918 -0.6160
  713SOL    HW110917   9.781  11.219   4.270 -0.6630  1.3729 -1.2958
  713SOL    HW210918   9.694  11.339   4.302 -2.1294  0.1330 -0.5659
  714SOL     OW10919   3.038  11.898   0.326 -0.0641 -0.1422  0.5517
  714SOL    HW110920   3.051  11.886   0.420 -1.8271  0.7574  0.9604
  714SOL    HW210921   3.044  11.993   0.312  1.9265 -0.3779 -0.5758
  715SOL     OW10922   4.041  10.713   6.231  0.3557  0.4829  0.1410
  715SOL    HW110923   4.126  10.713   6.276  0.5599 -0.1791 -0.2341
  715SOL    HW210924   3.980  10.676   6.294  0.7920 -1.2004 -0.3703
  716SOL     OW10925   3.117   6.997   2.736 -0.3392  0.1911 -0.3699
  716SOL    HW110926   3.088   7.060   2.669  0.5598  1.6515  0.5665
  716SOL    HW210927   3.202   7.030   2.765  0.2338 -1.5687  0.0567
  717SOL     OW10928   3.866   0.883  10.728  0.3868  0.3583  0.7016
  717SOL    HW110929   3.906   0.917  10.808  0.8691  0.3423  0.4713
  717SOL    HW210930   3.881   0.951  10.662  1.1719 -0.1997  0.2908
  718SOL     OW10931   8.196   5.750  11.711 -0.1641  0.1122  0.0909
  718SOL    HW110932   8.261   5.749  11.641 -1.0557 -1.5106 -0.7826
  718SOL    HW210933   8.203   5.663  11.751 -1.5242  0.0443  0.2240
  719SOL     OW10934   6.133   5.338   9.957  0.2704 -0.3806 -0.0892
  719SOL    HW110935   6.065   5.397   9.925  0.8436  1.0980  1.3298
  719SOL    HW210936   6.176   5.306   9.877 -0.3011  0.8076 -0.8970
  720SOL     OW10937   5.556   1.654  10.750 -0.4847  0.0539  0.3031
  720SOL    HW110938   5.507   1.573  10.736  1.0993 -0.7777 -0.7153
  720SOL    HW210939   5.544   1.673  10.843 -2.3412 -0.3380  0.1958
  721SOL     OW10940  10.641   9.640   3.226  0.0472 -0.1725  0.1448
  721SOL    HW110941  10.683   9.662   3.309  1.1705 -0.8852 -0.2105
  721SOL    HW210942  10.550   9.670   3.236  0.8554  2.3059  0.5640
  722SOL     OW10943   2.217   9.461   4.282 -0.3600 -0.5457 -0.5140
  722SOL    HW110944   2.300   9.502   4.259  0.6901 -0.3211  3.1418
  722SOL    HW210945   2.215   9.379   4.232  0.3360  1.0295 -3.3009
  723SOL     OW10946   2.401   8.446   4.945 -0.0351  0.2561 -0.5185
  723SOL    HW110947   2.431   8.362   4.980  0.1522 -0.2745 -1.8756
  723SOL    HW210948   2.480   8.501   4.946  0.0845  0.0873 -0.5675
  724SOL     OW10949   3.796   8.419   7.104  0.5750 -0.3347  0.1463
  724SOL    HW110950   3.773   8.500   7.057 -0.3453 -1.4744 -1.4719
  724SOL    HW210951   3.759   8.430   7.191 -1.6549  0.0403 -0.7983
  725SOL     OW10952   0.097   6.671  10.364 -0.4845  0.2763 -0.6432
  725SOL    HW110953   0.080   6.605  10.296 -0.4960 -1.4174  0.9150
  725SOL    HW210954   0.185   6.650  10.395 -2.0248 -1.9467  2.8505
  726SOL     OW10955   1.944   8.873   4.718 -0.4744  0.6766  0.2061
  726SOL    HW110956   1.959   8.813   4.790  0.0866  0.1883 -0.3063
  726SOL    HW210957   1.887   8.826   4.658  0.5178  0.3588 -0.5267
  727SOL     OW10958   4.096  11.046   8.477 -0.0540 -0.3857 -0.1640
  727SOL    HW110959   4.021  11.086   8.521  0.9508 -0.1660  1.4119
  727SOL    HW210960   4.087  11.074   8.386 -1.2936  0.5160  0.2015
  728SOL     OW10961   9.293   3.128  10.182 -0.5035 -0.0682 -0.0844
  728SOL    HW110962   9.296   3.169  10.268  0.2295  1.2252 -0.6760
  728SOL    HW210963   9.386   3.115  10.159 -0.7213 -1.5626 -0.1521
  729SOL     OW10964   3.342   5.876  11.822 -0.1143  0.3543  0.7743
  729SOL    HW110965   3.274   5.916  11.876  0.1122 -0.4337  1.6702
  729SOL    HW210966   3.329   5.782  11.833  0.8172  0.1924  0.5811
  730SOL     OW10967  11.845   1.373   5.219  0.2062  0.4340 -0.1529
  730SOL    HW110968  11.874   1.388   5.129  1.5188  0.9472  0.3258
  730SOL    HW210969  11.867   1.454   5.265  2.3998 -0.8567  1.2795
  731SOL     OW10970   5.581   6.694   2.748 -0.1920  0.2522 -0.2065
  731SOL    HW110971   5.539   6.776   2.723  0.5149  0.6370 -0.1644
  731SOL    HW210972   5.559   6.633   2.678 -1.0055  0.3753 -0.0680
  732SOL     OW10973  11.773   5.047   9.256 -0.1629  0.2433  0.0718
  732SOL    HW110974  11.732   5.133   9.263 -0.7737  0.0286 -0.6688
  732SOL    HW210975  11.769   5.011   9.345 -1.8857  0.1203 -0.0133
  733SOL     OW10976   8.569   1.292   8.898 -1.2831  0.4366 -0.5040
  733SOL    HW110977   8.519   1.251   8.827 -0.9733 -1.0307  0.1089
  733SOL    HW210978   8.644   1.236   8.911 -1.0090  1.0247  0.5886
  734SOL     OW10979  11.904   9.493   3.519 -0.0673 -0.0858  0.4545
  734SOL    HW110980  11.892   9.438   3.597 -0.8707  0.3457  0.6597
  734SOL    HW210981  11.990   9.534   3.531 -0.0961 -0.1839  1.0182
  735SOL     OW10982  11.433   6.750   3.651  0.1960  0.3952 -0.7481
  735SOL    HW110983  11.421   6.845   3.651  2.1068  0.6655 -0.1199
  735SOL    HW210984  11.521   6.737   3.685  0.3273 -1.5746 -1.7453
  736SOL     OW10985   5.971   1.921   5.114  0.0813 -0.2785 -0.3392
  736SOL    HW110986   5.944   1.937   5.024  0.5228 -2.4754 -0.9271
  736SOL    HW210987   5.964   1.826   5.125 -0.6770 -0.0084  2.1915
  737SOL     OW10988   6.366   4.581  10.804  0.1120  0.7509  0.5264
  737SOL    HW110989   6.328   4.660  10.842 -1.7201  0.7399 -1.1809
  737SOL    HW210990   6.404   4.609  10.721  0.8971  0.1062  0.6478
  738SOL     OW10991  12.439   9.496   6.337 -0.1085 -0.0965 -0.4020
  738SOL    HW110992  12.385   9.436   6.287 -0.9250 -1.5936  2.0670
  738SOL    HW210993  12.388   9.577   6.341 -0.7021 -0.4458 -0.7524
  739SOL     OW10994   8.709   9.069  11.062  0.1866  0.5730 -0.2898
  739SOL    HW110995   8.742   9.115  11.139  1.4175  2.0307 -1.6287
  739SOL    HW210996   8.665   8.991  11.097  1.8386  0.5034  1.7932
  740SOL     OW10997   6.472   7.877   6.157 -0.2950 -0.3292 -0.2884
  740SOL    HW110998   6.538   7.813   6.131  0.6064  0.3900  0.1287
  740SOL    HW210999   6.519   7.935   6.218 -0.9181  1.0373 -1.0621
  741SOL     OW11000   9.571   9.270  12.527  0.0571  0.4015  0.0502
  741SOL    HW111001   9.589   9.187  12.482  0.3915 -0.7422  2.1745
  741SOL    HW211002   9.601   9.337  12.466  1.7099 -1.1136 -0.8921
  742SOL     OW11003   4.323  11.350   6.334  0.7424 -0.0164 -0.4316
  742SOL    HW111004   4.386  11.411   6.295 -2.1849  2.3746 -1.8496
  742SOL    HW211005   4.287  11.302   6.259  1.7414 -2.4107  0.4952
  743SOL     OW11006   6.793  12.154   0.684 -0.2430  0.3034 -0.4132
  743SOL    HW111007   6.824  12.239   0.715  0.8507 -0.2169 -0.0290
  743SOL    HW211008   6.699  12.155   0.700  0.1261  0.4192  2.0842
  744SOL     OW11009   4.779   7.163   2.309  0.3131 -0.0336  0.8710
  744SOL    HW111010   4.721   7.094   2.340  1.0459 -0.1170  2.1359
  744SOL    HW211011   4.866   7.123   2.309  0.3490 -0.1101 -1.5946
  745SOL     OW11012  12.543  12.201  11.956 -0.0479 -0.1577  0.1613
  745SOL    HW111013  12.501  12.287  11.968 -0.5766 -0.4164  0.1915
  745SOL    HW211014  12.470  12.139  11.956  0.1692 -0.4528 -1.5538
  746SOL     OW11015  10.878   5.801   2.081  0.2895 -0.1984 -0.2897
  746SOL    HW111016  10.792   5.763   2.063 -0.8184  2.4641 -1.0715
  746SOL    HW211017  10.893   5.862   2.010  0.8271  2.5628  2.0224
  747SOL     OW11018   6.805   2.458   9.133 -0.3068 -0.2425  0.0553
  747SOL    HW111019   6.746   2.385   9.152 -0.3585  0.0840  1.2283
  747SOL    HW211020   6.837   2.486   9.219 -0.1730  1.0211 -0.3885
  748SOL     OW11021   7.325   6.837   0.895  0.8657 -0.1459  0.1177
  748SOL    HW111022   7.236   6.808   0.914  0.9307 -1.1542 -1.0146
  748SOL    HW211023   7.322   6.933   0.904 -0.3305 -0.1648  0.0401
  749SOL     OW11024   3.922  10.485   8.832 -0.0072  0.0524 -0.1338
  749SOL    HW111025   4.017  10.481   8.825  0.2724  2.3455  1.3089
  749SOL    HW211026   3.895  10.554   8.772 -0.4956  0.8362  0.9421
  750SOL     OW11027   4.351  11.346  12.322 -0.4721  0.3216 -0.1083
  750SOL    HW111028   4.283  11.345  12.389  0.2469  0.5220  0.6308
  750SOL    HW211029   4.330  11.422  12.268 -1.0726  0.1365 -0.1392
  751SOL     OW11030   7.709   0.020   0.944 -0.3062  0.9584  0.2411
  751SOL    HW111031   7.675  -0.062   0.908  1.3310  0.1996  0.3626
  751SOL    HW211032   7.696   0.084   0.874 -0.4020  0.3020 -0.3519
  752SOL     OW11033  11.821   6.316   5.948 -0.5931  0.0971  0.6060
  752SOL    HW111034  11.827   6.244   6.011 -1.0808  0.2155  0.7904
  752SOL    HW211035  11.817   6.395   6.003 -0.1914  0.2574  0.4077
  753SOL     OW11036   5.345   2.238   2.279  0.1216  0.0092 -0.2247
  753SOL    HW111037   5.428   2.213   2.319  0.4289  2.0780  0.5585
  753SOL    HW211038   5.367   2.256   2.188 -0.4749 -4.1651 -1.3921
  754SOL     OW11039   3.093   7.774   6.211 -0.0104  0.8099  0.3009
  754SOL    HW111040   3.020   7.750   6.155  0.1955  1.1932 -0.1387
  754SOL    HW211041   3.158   7.812   6.152  0.8313 -0.1242  0.5836
  755SOL     OW11042  12.281   0.115   5.424 -0.2045 -0.4610 -0.4112
  755SOL    HW111043  12.215   0.101   5.356  1.0906 -1.1254 -1.5803
  755SOL    HW211044  12.331   0.034   5.426 -0.9586 -0.9738  2.2552
  756SOL     OW11045   9.984   3.945   1.414  0.1231  0.1396 -0.0792
  756SOL    HW111046   9.927   3.976   1.485 -1.0568 -0.5611 -0.6871
  756SOL    HW211047  10.065   3.995   1.426 -0.3363  0.6420  1.2559
  757SOL     OW11048   6.176   3.688   2.506 -1.0850  0.8285 -0.0307
  757SOL    HW111049   6.259   3.686   2.459 -0.8318 -0.3859  0.4210
  757SOL    HW211050   6.111   3.661   2.440 -0.5283 -2.4783  0.5763
  758SOL     OW11051   2.221   1.588   1.143 -0.2452  0.2627  0.5424
  758SOL    HW111052   2.305   1.550   1.117  0.6392  0.8482  2.4159
  758SOL    HW211053   2.206   1.659   1.081  0.0337 -0.5867 -0.5268
  759SOL     OW11054  10.200   9.293   4.236  0.4316 -0.8708  0.0648
  759SOL    HW111055  10.109   9.322   4.226  0.2890 -1.4745 -0.4172
  759SOL    HW211056  10.251   9.369   4.208  0.1479  0.3496  2.5404
  760SOL     OW11057   4.234   5.715   6.586  0.0130  0.2521 -0.0805
  760SOL    HW111058   4.218   5.793   6.533 -1.1544 -0.2334 -0.4697
  760SOL    HW211059   4.149   5.671   6.591  0.1737  0.0528  1.8485
  761SOL     OW11060  11.871   5.068   8.156 -0.6792  0.0910  0.4027
  761SOL    HW111061  11.956   5.031   8.132 -0.4267  2.1314 -2.3922
  761SOL    HW211062  11.891   5.137   8.219 -0.7822 -1.8901  2.7605
  762SOL     OW11063   6.061   8.757   4.049 -0.5767  0.0050  0.1159
  762SOL    HW111064   6.122   8.686   4.030 -0.0611  0.0404  1.4742
  762SOL    HW211065   6.049   8.752   4.144 -1.6448  0.8491  0.0386
  763SOL     OW11066   0.347  10.195   0.798 -0.2383 -0.4383 -0.1743
  763SOL    HW111067   0.412  10.152   0.853 -1.5588 -1.8047  0.3703
  763SOL    HW211068   0.291  10.242   0.859 -0.8143 -0.7232 -0.4821
  764SOL     OW11069  11.282   1.563   9.650  0.4558  0.0805  0.0397
  764SOL    HW111070  11.368   1.568   9.692  0.3340 -0.9786  0.4307
  764SOL    HW211071  11.234   1.497   9.700 -0.0446 -0.4722 -1.1174
  765SOL     OW11072   7.338   4.382  12.488  0.2370  0.0469 -0.2172
  765SOL    HW111073   7.264   4.334  12.450 -0.7371  1.8027 -0.6776
  765SOL    HW211074   7.398   4.314  12.517 -1.2394 -1.4465 -0.4618
  766SOL     OW11075   6.587   1.473  11.202 -0.1698 -0.2801 -0.2730
  766SOL    HW111076   6.678   1.442  11.203 -0.1369 -0.2954 -1.4820
  766SOL    HW211077   6.593   1.566  11.223  0.0295 -0.4604  0.5004
  767SOL     OW11078  11.274   1.243   4.236 -0.6295  0.3576 -0.5108
  767SOL    HW111079  11.222   1.321   4.258 -0.9225 -0.0080  0.1238
  767SOL    HW211080  11.299   1.207   4.321  0.3637  0.3274 -0.8109
  768SOL     OW11081   5.389  10.641   2.291  0.3545  0.5393 -0.0053
  768SOL    HW111082   5.421  10.732   2.298  0.0003  0.4946  3.8543
  768SOL    HW211083   5.328  10.631   2.363 -2.4997 -1.7996 -2.4694
  769SOL     OW11084   1.117   5.368   3.519  0.6851  0.1858 -0.4448
  769SOL    HW111085   1.032   5.325   3.522 -0.2251  1.7712 -1.8803
  769SOL    HW211086   1.098   5.460   3.500  2.5419  1.3077  2.4004
  770SOL     OW11087  11.076   7.132   6.491 -0.2602 -0.1624  0.7490
  770SOL    HW111088  11.041   7.101   6.407  1.0009  1.3912 -0.4302
  770SOL    HW211089  11.075   7.227   6.483  1.2412 -0.0124  1.9247
  771SOL     OW11090   4.795  11.116   0.025 -0.5413  0.7089 -0.3232
  771SOL    HW111091   4.762  11.153   0.106  0.0967  1.3212 -0.3304
  771SOL    HW211092   4.717  11.093  -0.025 -0.9754  2.1272 -0.3402
  772SOL     OW11093  10.905   1.929  11.011  0.2019  0.3244 -0.3099
  772SOL    HW111094  10.815   1.895  11.011  0.0579  0.7016 -0.3718
  772SOL    HW211095  10.937   1.909  10.923 -0.3842  1.6363 -0.8507
  773SOL     OW11096  10.360  11.074   6.000  0.0532  0.1164  0.3635
  773SOL    HW111097  10.349  11.099   6.092  0.4306  0.6385  0.2740
  773SOL    HW211098  10.409  11.147   5.962  0.3013 -0.3126 -0.1430
  774SOL     OW11099   8.809   1.138   3.941  0.0192 -0.0481  0.0187
  774SOL    HW111100   8.759   1.059   3.920 -1.0186 -0.1523  2.5309
  774SOL    HW211101   8.835   1.173   3.856 -1.1093 -2.0481 -1.2371
  775SOL     OW11102   7.736  12.505  11.699 -0.5051  0.1643  0.2973
  775SOL    HW111103   7.686  12.491  11.618  0.4145  1.2176 -0.4886
  775SOL    HW211104   7.741  12.419  11.739 -1.1241 -0.3544 -0.6880
  776SOL     OW11105   9.274   5.265   5.331 -0.6699  0.3195  0.4812
  776SOL    HW111106   9.333   5.285   5.258 -2.0320 -0.0951 -0.7940
  776SOL    HW211107   9.252   5.350   5.368  0.1131  0.5343  0.4713
  777SOL     OW11108   9.747   7.173   8.782 -0.5624 -0.4317  0.3529
  777SOL    HW111109   9.766   7.101   8.842 -0.4836  0.8070  1.8902
  777SOL    HW211110   9.653   7.167   8.767 -0.2433 -2.1709 -1.3788
  778SOL     OW11111   6.045   5.801   4.357 -0.4198  0.0205 -0.4024
  778SOL    HW111112   6.045   5.852   4.277 -0.8709  0.1666 -0.3143
  778SOL    HW211113   6.048   5.710   4.328 -1.9093  0.0239 -0.6380
  779SOL     OW11114   0.346   0.699  11.595  0.0382 -0.0680  0.6146
  779SOL    HW111115   0.439   0.704  11.619  0.3763  0.0092 -0.6560
  779SOL    HW211116   0.300   0.730  11.673  1.0102 -1.2049  1.6760
  780SOL     OW11117   7.138   2.100   3.655 -0.3395  0.5124 -0.5561
  780SOL    HW111118   7.206   2.082   3.720 -2.0290 -1.2989  0.8226
  780SOL    HW211119   7.164   2.183   3.616  2.6289 -0.0956 -0.0975
  781SOL     OW11120   3.300   7.535   4.369 -0.5266  0.2268  0.0807
  781SOL    HW111121   3.365   7.524   4.299  0.5097  3.1495  0.4026
  781SOL    HW211122   3.310   7.457   4.424  2.4106  0.2902 -0.1832
  782SOL     OW11123   9.811   1.971   4.179  0.8619  0.6284 -0.3296
  782SOL    HW111124   9.832   1.881   4.204  0.7237  0.5278 -0.5705
  782SOL    HW211125   9.872   2.025   4.230  0.6293  0.4265  0.1677
  783SOL     OW11126   2.869   8.620  10.254  0.3571  0.6026 -0.1122
  783SOL    HW111127   2.818   8.546  10.287  0.5557  1.0195  1.1731
  783SOL    HW211128   2.900   8.591  10.168 -0.2594 -0.4770  0.0090
  784SOL     OW11129   9.610   3.519   3.648  0.2454 -0.0179 -0.4655
  784SOL    HW111130   9.539   3.475   3.600  0.9194 -0.8104 -0.7539
  784SOL    HW211131   9.690   3.478   3.615  0.8462  0.9134 -0.1811
  785SOL     OW11132   1.662   5.262   0.595 -0.0767  0.3076  0.4973
  785SOL    HW111133   1.744   5.212   0.598 -1.4943 -2.2319  0.3378
  785SOL    HW211134   1.646   5.277   0.502 -0.3335 -0.1918  0.4583
  786SOL     OW11135   1.065   4.954   4.224  0.5117  0.1145  0.8133
  786SOL    HW111136   1.048   4.892   4.294 -1.6878 -0.0417  0.2184
  786SOL    HW211137   1.098   4.901   4.152  0.7170 -0.0385  1.0191
  787SOL     OW11138  10.567   9.564  11.640  0.4669  0.3236 -0.3008
  787SOL    HW111139  10.649   9.514  11.634 -0.1256 -0.6037 -0.8769
  787SOL    HW211140  10.575   9.632  11.573  0.4326 -0.2685 -0.9112
  788SOL     OW11141   9.568   5.365  11.951 -0.4732 -0.3135 -0.0572
  788SOL    HW111142   9.528   5.424  11.888  0.0070  0.0606 -0.0155
  788SOL    HW211143   9.639   5.322  11.903  0.5616  0.7357  0.4995
  789SOL     OW11144   9.861   7.465  12.494  0.1070 -0.1983 -0.3806
  789SOL    HW111145   9.923   7.441  12.425 -0.3798 -1.5396 -0.3697
  789SOL    HW211146   9.913   7.471  12.573 -0.1005 -4.0067  0.1941
  790SOL     OW11147   4.226   9.364  10.324 -0.1541  0.3047 -0.0999
  790SOL    HW111148   4.195   9.339  10.237 -2.1186  0.5915  0.4741
  790SOL    HW211149   4.298   9.304  10.342 -0.3340 -0.3801 -1.5285
  791SOL     OW11150   0.012   0.397   6.568  0.0114  0.2501 -0.0251
  791SOL    HW111151   0.050   0.313   6.542 -0.1149 -0.0212  0.6698
  791SOL    HW211152  -0.029   0.430   6.488 -0.7876 -0.8002 -0.0555
  792SOL     OW11153   3.694   4.865  10.660 -0.7332  0.0202 -0.0990
  792SOL    HW111154   3.664   4.934  10.602  1.3627  1.5781  0.5311
  792SOL    HW211155   3.625   4.857  10.726 -1.7834  0.2935 -1.1455
  793SOL     OW11156   2.623   7.795   9.163  0.2872  0.1272 -1.0831
  793SOL    HW111157   2.596   7.713   9.205  2.1507  0.5759  1.2385
  793SOL    HW211158   2.541   7.839   9.139 -0.8164 -1.1697  0.1663
  794SOL     OW11159   7.742  11.415   9.665 -0.4047 -0.0691  0.0027
  794SOL    HW111160   7.733  11.324   9.693 -1.0268 -0.2730 -0.8170
  794SOL    HW211161   7.653  11.449   9.663 -0.2586  0.2992 -0.5310
  795SOL     OW11162  11.656   1.773   7.190  0.0247  0.3114 -0.3546
  795SOL    HW111163  11.653   1.761   7.095  1.4951  1.3537 -0.5486
  795SOL    HW211164  11.619   1.691   7.225 -0.5155 -0.0972 -1.8056
  796SOL     OW11165   7.795   8.120   0.139 -0.3725 -0.2663 -0.3678
  796SOL    HW111166   7.883   8.129   0.104 -0.1179  0.5196  0.4453
  796SOL    HW211167   7.790   8.029   0.168  0.1857 -0.3009 -0.3659
  797SOL     OW11168   0.111   3.948   0.464 -0.3347  0.3163 -0.2861
  797SOL    HW111169   0.136   3.878   0.403 -1.0690  0.3985 -0.6961
  797SOL    HW211170   0.015   3.943   0.468 -0.2656 -1.6142  3.1619
  798SOL     OW11171   9.860   5.222   8.639  0.3672  0.5464  0.2785
  798SOL    HW111172   9.898   5.135   8.632  1.3051  1.0249 -0.8896
  798SOL    HW211173   9.853   5.253   8.549 -3.0812  0.4182  0.3602
  799SOL     OW11174   2.426   2.522   6.245  0.1649  0.1026  0.2557
  799SOL    HW111175   2.381   2.606   6.245  0.3968  0.2911  2.6543
  799SOL    HW211176   2.506   2.537   6.195 -0.9340  0.5942 -1.4297
  800SOL     OW11177   9.071  11.434   2.809 -0.3466 -0.1860  0.1243
  800SOL    HW111178   9.042  11.438   2.717  0.6410 -1.0781 -0.2434
  800SOL    HW211179   9.164  11.413   2.804  0.3659  2.3209  1.2886
  801SOL     OW11180  10.444   1.056   4.933  0.1371  0.0583 -0.2593
  801SOL    HW111181  10.532   1.067   4.968  0.3605  1.3998 -1.1740
  801SOL    HW211182  10.395   1.013   5.004  0.5624  2.6803  1.7835
  802SOL     OW11183  10.476  10.918  10.472  0.1536  0.5554 -0.2486
  802SOL    HW111184  10.446  10.951  10.387  0.9559  0.4233 -0.5893
  802SOL    HW211185  10.401  10.932  10.531 -1.1531 -1.1398 -1.3920
  803SOL     OW11186   1.700   7.904   7.392 -0.5485  0.4927  0.4621
  803SOL    HW111187   1.768   7.937   7.333 -0.3076 -0.2519  0.3080
  803SOL    HW211188   1.629   7.877   7.334  0.4114 -1.9587  0.3183
  804SOL     OW11189  11.297   3.120  11.556 -0.5148  0.1512 -0.4610
  804SOL    HW111190  11.226   3.070  11.516  0.1184 -0.6806 -0.5616
  804SOL    HW211191  11.369   3.058  11.564  1.5131  1.8486 -3.7214
  805SOL     OW11192   9.369   3.250   3.216 -0.1688  0.0953  0.1803
  805SOL    HW111193   9.315   3.272   3.291 -0.0394  0.8892  0.0467
  805SOL    HW211194   9.458   3.276   3.242  0.1983 -1.3593  0.4682
  806SOL     OW11195   4.921   6.472   3.374  0.1041 -0.0478 -0.1560
  806SOL    HW111196   5.001   6.486   3.424 -0.4066  1.1962  0.3385
  806SOL    HW211197   4.854   6.455   3.440 -0.1969 -0.3352 -0.5285
  807SOL     OW11198   8.761   4.198   9.745 -0.3122  0.0784  0.1299
  807SOL    HW111199   8.751   4.157   9.659  0.9100  0.6680 -0.3146
  807SOL    HW211200   8.780   4.125   9.804 -0.6123 -0.2643 -0.1899
  808SOL     OW11201   6.367   5.417   7.084  0.7125 -0.0330 -0.8313
  808SOL    HW111202   6.285   5.376   7.110  0.6083 -0.9372 -2.4644
  808SOL    HW211203   6.433   5.348   7.090  1.1701  0.4187 -0.5040
  809SOL     OW11204   1.118   2.701  11.854  0.3238 -0.5533  0.5715
  809SOL    HW111205   1.116   2.730  11.945 -2.1691 -1.7846  1.0163
  809SOL    HW211206   1.205   2.726  11.822  0.4855  1.8724  2.6021
  810SOL     OW11207  10.240   0.921  11.010 -0.5090  0.1234  0.1822
  810SOL    HW111208  10.147   0.920  10.987 -0.3109 -0.7459 -0.6115
  810SOL    HW211209  10.252   0.841  11.062 -0.4136  0.7671  1.1754
  811SOL     OW11210   6.658   3.002   3.198  0.3866 -0.0443  0.1399
  811SOL    HW111211   6.745   3.021   3.163 -0.5679  0.6678 -2.0252
  811SOL    HW211212   6.666   2.913   3.234  2.0104  0.0388  0.0654
  812SOL     OW11213   0.041   6.245   3.310 -0.6708  0.0359  0.0846
  812SOL    HW111214   0.075   6.226   3.398 -0.5734  0.1709  0.0757
  812SOL    HW211215  -0.040   6.194   3.305 -0.6106 -0.0721  0.2060
  813SOL     OW11216  12.110  11.692   2.742 -0.2239 -0.0763  0.1169
  813SOL    HW111217  12.167  11.619   2.766  1.2704  1.3075  1.0394
  813SOL    HW211218  12.136  11.713   2.652  0.7425  0.5211  0.5177
  814SOL     OW11219   6.021   9.639   2.672  0.2238 -0.2402 -0.2222
  814SOL    HW111220   6.032   9.557   2.720  2.0622 -0.8318 -1.5297
  814SOL    HW211221   6.110   9.664   2.647 -0.6164 -0.3376 -3.8337
  815SOL     OW11222   1.448   5.377   5.131 -0.2061  0.1394 -0.8102
  815SOL    HW111223   1.466   5.349   5.220  1.2400 -1.5207 -1.5655
  815SOL    HW211224   1.479   5.467   5.127 -0.3062  0.2403  0.3437
  816SOL     OW11225  11.604   0.237   3.624  0.6120  0.9620 -0.4936
  816SOL    HW111226  11.686   0.188   3.627  0.5425  0.6921 -2.3319
  816SOL    HW211227  11.577   0.234   3.533 -1.7731  0.5218  0.1538
  817SOL     OW11228   0.489   3.288   2.682  0.1188 -0.0584  0.4630
  817SOL    HW111229   0.401   3.254   2.667  0.5188 -0.7151 -0.5157
  817SOL    HW211230   0.499   3.287   2.777 -0.7393 -0.4668  0.5601
  818SOL     OW11231   1.239   1.106   6.475 -0.0367 -0.3926  0.0161
  818SOL    HW111232   1.261   1.197   6.455 -3.1195 -0.0773 -2.7210
  818SOL    HW211233   1.167   1.113   6.539  0.9820 -1.0559  1.2882
  819SOL     OW11234  11.609   5.440   6.654  0.7518 -0.3256 -0.4866
  819SOL    HW111235  11.596   5.400   6.568  0.2973 -0.7854 -0.2064
  819SOL    HW211236  11.637   5.368   6.710 -2.6197 -0.9014  0.6856
  820SOL     OW11237   3.949   1.603  10.176  0.2418  0.0979 -0.1849
  820SOL    HW111238   3.862   1.579  10.208  0.4574 -1.5967 -0.8048
  820SOL    HW211239   4.008   1.579  10.248  0.3185  0.1100 -0.2438
  821SOL     OW11240  12.255   9.695   6.364 -0.3982  0.6211 -0.5981
  821SOL    HW111241  12.221   9.769   6.314 -1.1597  1.8448  1.5744
  821SOL    HW211242  12.178   9.640   6.380 -0.0826  0.0225 -1.0959
  822SOL     OW11243   7.525   0.667  12.580  0.0366 -0.0631 -0.5385
  822SOL    HW111244   7.595   0.694  12.521  0.0021  2.2811  0.4060
  822SOL    HW211245   7.569   0.615  12.647  0.7692  0.7145 -0.3970
  823SOL     OW11246   9.899   3.221   7.037  0.5294 -0.4162 -0.3140
  823SOL    HW111247   9.910   3.273   7.116 -1.3305 -1.4462  0.6965
  823SOL    HW211248   9.945   3.270   6.969  2.2159  0.4822  1.3823
  824SOL     OW11249   7.901   9.618   6.193  0.2364  0.0909  0.7085
  824SOL    HW111250   7.945   9.540   6.161  3.2543  0.7702  2.8317
  824SOL    HW211251   7.841   9.586   6.261  0.5865 -0.4832  0.7510
  825SOL     OW11252   8.474   6.987   2.719  0.2314 -0.0580  0.6016
  825SOL    HW111253   8.401   6.975   2.780 -0.1678  2.2682  0.6775
  825SOL    HW211254   8.553   6.978   2.774  0.1484 -3.2742  0.3976
  826SOL     OW11255  12.262   6.853   7.152  0.8984 -0.7754 -0.3507
  826SOL    HW111256  12.206   6.888   7.221  1.5553 -1.5642  0.6126
  826SOL    HW211257  12.312   6.929   7.120 -0.3932 -0.1492 -0.9331
  827SOL     OW11258   6.310  12.173  10.167 -0.2566  0.5890 -0.9474
  827SOL    HW111259   6.368  12.243  10.136  2.3930 -0.5991  0.9196
  827SOL    HW211260   6.338  12.096  10.118 -1.6039  0.3525 -1.3734
  828SOL     OW11261   2.385  11.897   0.496 -0.6486 -0.1817 -0.5250
  828SOL    HW111262   2.480  11.903   0.510 -0.9210 -0.0913  1.6334
  828SOL    HW211263   2.375  11.886   0.401  1.6684 -3.0236 -0.5750
  829SOL     OW11264   1.328   0.763   5.821 -0.1304 -0.4046 -0.8167
  829SOL    HW111265   1.341   0.856   5.838 -0.1772 -0.4110 -0.7438
  829SOL    HW211266   1.376   0.719   5.891 -0.5090 -0.4283 -0.5664
  830SOL     OW11267   2.079   5.932   9.604  0.9575 -0.4014 -0.3500
  830SOL    HW111268   2.089   6.021   9.637  0.3529 -0.0741 -1.0274
  830SOL    HW211269   2.035   5.885   9.675  2.0928 -0.4139  0.3778
  831SOL     OW11270   0.191   6.048   3.885  0.5784 -0.8369 -0.2718
  831SOL    HW111271   0.232   5.977   3.835 -0.3101 -0.8792 -0.9628
  831SOL    HW211272   0.126   6.005   3.940 -0.3996 -0.5221 -1.1480
  832SOL     OW11273   5.951  11.394   7.426 -0.1901 -0.7840  0.6090
  832SOL    HW111274   5.897  11.449   7.370 -0.4964 -0.4343  1.2367
  832SOL    HW211275   6.040  11.409   7.396 -0.2326  0.3243  0.9842
  833SOL     OW11276   2.333   1.033   7.018 -0.0914  0.3316 -0.5460
  833SOL    HW111277   2.343   0.944   7.051  1.5525  0.4570 -0.6482
  833SOL    HW211278   2.282   1.023   6.938 -0.7555 -0.3919 -0.0574
  834SOL     OW11279   7.300   3.041   0.592 -0.1894  0.0072  0.2628
  834SOL    HW111280   7.360   3.106   0.631  1.3199 -0.2454 -1.4717
  834SOL    HW211281   7.319   3.046   0.498 -0.8931 -2.1063 -0.0290
  835SOL     OW11282   4.343   6.882   1.460  0.2742 -0.7000  0.7213
  835SOL    HW111283   4.439   6.880   1.454  0.1996 -0.6899 -1.1816
  835SOL    HW211284   4.323   6.969   1.494  0.9081  0.3643 -1.4329
  836SOL     OW11285   8.692   6.212   6.381 -0.0383 -0.3483 -0.3118
  836SOL    HW111286   8.690   6.135   6.324  1.9394 -0.9548  0.3610
  836SOL    HW211287   8.754   6.271   6.339 -0.3713  0.2290 -0.0109
  837SOL     OW11288   1.621   0.976   1.285  0.1836 -0.0353 -0.3408
  837SOL    HW111289   1.649   0.889   1.256 -1.5745 -0.6189 -0.4139
  837SOL    HW211290   1.661   1.036   1.222 -0.6968 -1.0226 -1.9438
  838SOL     OW11291   2.866  10.676   6.512  0.4388 -0.4196  0.4328
  838SOL    HW111292   2.902  10.743   6.455  0.0581 -0.4111  0.1982
  838SOL    HW211293   2.883  10.708   6.601  0.4092 -0.0954  0.3238
  839SOL     OW11294  11.696   5.960   8.370 -0.1352 -0.0879 -0.3478
  839SOL    HW111295  11.670   6.025   8.435 -0.2824 -0.2301 -0.2636
  839SOL    HW211296  11.791   5.966   8.366  0.2630 -2.4097  2.3442
  840SOL     OW11297   2.439   4.966   1.674  0.5901  0.2533 -0.1845
  840SOL    HW111298   2.523   4.998   1.640  0.7623 -0.3711 -0.3544
  840SOL    HW211299   2.461   4.925   1.758 -0.0362  3.1605  1.5433
  841SOL     OW11300   1.744   9.053   4.244  0.0877  0.3150  0.3481
  841SOL    HW111301   1.834   9.031   4.218  0.4058 -0.3804  1.9388
  841SOL    HW211302   1.734   9.145   4.217  0.7453 -0.0395 -1.1952
  842SOL     OW11303   8.046   1.290   9.838 -0.1687 -0.3424 -0.4376
  842SOL    HW111304   7.998   1.220   9.882 -0.1424  0.5219  1.0127
  842SOL    HW211305   8.122   1.305   9.894  0.5212 -0.0380 -1.4339
  843SOL     OW11306   1.770  12.005  12.417  0.1537 -0.1142 -0.1619
  843SOL    HW111307   1.678  12.028  12.428  0.3285  0.0200  1.1557
  843SOL    HW211308   1.814  12.087  12.396 -0.1306 -0.3158 -1.6744
  844SOL     OW11309   8.382   1.366   3.669  0.0603 -0.8388  0.8701
  844SOL    HW111310   8.310   1.314   3.705 -0.2559  0.1642  1.7238
  844SOL    HW211311   8.440   1.382   3.743  0.8715 -1.1402  0.3091
  845SOL     OW11312   7.153  10.207   4.463 -0.3674  0.4500 -0.2444
  845SOL    HW111313   7.086  10.149   4.425 -0.1432  0.0572 -0.0392
  845SOL    HW211314   7.234  10.157   4.456 -0.1481  0.8031 -0.2058
  846SOL     OW11315   3.052   9.314  11.974  0.0097 -0.1824  0.2270
  846SOL    HW111316   3.024   9.229  11.939 -0.8587  0.2441 -0.1406
  846SOL    HW211317   3.072   9.296  12.066  0.0585 -0.8336  0.0925
  847SOL     OW11318   4.977   6.551   8.026 -0.0563  0.2165  0.0575
  847SOL    HW111319   5.000   6.465   8.060 -0.8216  0.7053  1.9396
  847SOL    HW211320   4.958   6.536   7.934  2.0000 -1.2119 -0.1910
  848SOL     OW11321   5.108   8.113   8.271 -0.2088  0.1470 -0.1203
  848SOL    HW111322   5.040   8.052   8.299  0.6750 -1.7690 -1.8494
  848SOL    HW211323   5.060   8.192   8.244 -1.5147 -0.2579  0.9120
  849SOL     OW11324  11.560   3.568   9.824  0.0113  0.5747 -0.2943
  849SOL    HW111325  11.600   3.571   9.911  0.1396  3.2868 -0.3412
  849SOL    HW211326  11.535   3.477   9.811 -0.8845  0.2565  2.9679
  850SOL     OW11327   8.977   2.687   4.816 -0.7085  0.5864 -0.8835
  850SOL    HW111328   8.937   2.741   4.883 -1.2856 -0.5137 -0.3027
  850SOL    HW211329   9.071   2.694   4.831 -0.5953  3.2203 -2.2665
  851SOL     OW11330   6.346   9.728   9.804 -0.1402  0.0545  0.1488
  851SOL    HW111331   6.405   9.752   9.876  2.7229 -2.7294 -1.0248
  851SOL    HW211332   6.366   9.791   9.735  0.8476 -0.3149  0.0795
  852SOL     OW11333   9.391   1.931   7.660 -0.1569  0.3250 -0.4953
  852SOL    HW111334   9.364   1.921   7.568 -1.6452  0.1201 -0.0666
  852SOL    HW211335   9.331   1.873   7.708 -1.8834  3.1376  0.9863
  853SOL     OW11336   1.329  11.884   0.256  0.0514  0.3563  0.4884
  853SOL    HW111337   1.412  11.916   0.290 -0.8724 -0.6186  4.1810
  853SOL    HW211338   1.268  11.956   0.269 -0.0527  0.5344 -0.8007
  854SOL     OW11339   5.996   2.709   3.171 -0.3800 -0.3676 -0.6572
  854SOL    HW111340   6.045   2.665   3.101  1.1458  1.2353 -0.6493
  854SOL    HW211341   6.040   2.793   3.182 -1.8939  0.2816  0.8075
  855SOL     OW11342   2.640   4.723   1.114 -0.1731  0.2789 -0.5121
  855SOL    HW111343   2.631   4.757   1.203  0.8741 -0.3740 -0.1381
  855SOL    HW211344   2.734   4.717   1.101 -0.3319 -0.5332 -1.3276
  856SOL     OW11345   1.340   1.863   6.821 -0.0796  0.1663  0.7758
  856SOL    HW111346   1.314   1.826   6.906  1.8496  1.4852  2.0536
  856SOL    HW211347   1.430   1.833   6.809 -0.3465 -0.0345 -0.8532
  857SOL     OW11348   6.084   7.064   8.018  0.1049 -0.1074 -0.6401
  857SOL    HW111349   6.036   7.119   8.080  0.1697 -0.2408 -0.4710
  857SOL    HW211350   6.026   7.059   7.941  0.7290  1.3566 -1.2251
  858SOL     OW11351   3.388   1.327   7.426 -0.1913  0.1996  0.0411
  858SOL    HW111352   3.398   1.242   7.470 -0.0909  1.0168  1.6865
  858SOL    HW211353   3.346   1.306   7.343 -0.4025 -1.4376  0.5111
  859SOL     OW11354   2.816   0.954  11.902  0.3569  0.3047 -0.5046
  859SOL    HW111355   2.737   0.961  11.848 -0.4586  1.4309  0.7892
  859SOL    HW211356   2.793   0.994  11.985  2.1416  0.1798  0.1029
  860SOL     OW11357   6.837   9.880  12.484 -0.6553  0.2278 -0.2350
  860SOL    HW111358   6.859   9.808  12.426 -1.6386  0.2627 -0.6645
  860SOL    HW211359   6.762   9.923  12.443 -1.1687  0.4521  0.8715
  861SOL     OW11360  10.902   7.262   0.803 -0.3047  0.3432  0.0921
  861SOL    HW111361  10.986   7.223   0.779  0.4722  1.5508  0.7231
  861SOL    HW211362  10.887   7.232   0.893 -0.4617  0.2557  0.0361
  862SOL     OW11363   1.646   4.830  11.039  0.3843  0.9763  0.2690
  862SOL    HW111364   1.735   4.864  11.028  0.2803  1.4269  0.7424
  862SOL    HW211365   1.591   4.892  10.990  0.5057 -0.4590 -1.8134
  863SOL     OW11366   3.231  11.578   5.722 -0.0519 -0.2683 -0.0450
  863SOL    HW111367   3.210  11.646   5.658 -0.1456 -0.4775 -0.2346
  863SOL    HW211368   3.145  11.546   5.751 -0.0018 -1.2185 -0.9174
  864SOL     OW11369   0.177   5.731   1.664  0.3867  0.4355  0.0315
  864SOL    HW111370   0.144   5.642   1.659  0.9966  0.1629  0.7519
  864SOL    HW211371   0.139   5.775   1.588 -1.6204  0.1333  0.7937
  865SOL     OW11372   4.121   6.413   3.484  0.1689 -0.0934  0.8041
  865SOL    HW111373   4.129   6.508   3.477 -0.3723 -0.1223 -0.3415
  865SOL    HW211374   4.164   6.392   3.567  2.5778  0.8565 -0.1248
  866SOL     OW11375   9.259   6.701   4.988  0.1297  0.4092 -0.3450
  866SOL    HW111376   9.243   6.795   4.992 -0.6587  0.3005 -0.7161
  866SOL    HW211377   9.211   6.671   4.910  2.1604  0.0266 -1.5147
  867SOL     OW11378  11.294   0.510   1.918 -0.5656 -0.4716 -0.1022
  867SOL    HW111379  11.246   0.546   1.992 -0.0736  0.2319 -0.1095
  867SOL    HW211380  11.333   0.587   1.875  0.4042 -0.9916 -0.1939
  868SOL     OW11381   6.626   0.854   7.619  0.0967  0.1405  0.3893
  868SOL    HW111382   6.559   0.919   7.640  1.1244  1.1935  0.5218
  868SOL    HW211383   6.582   0.793   7.559 -0.8946  0.9507  0.2649
  869SOL     OW11384   8.790   1.905   0.008  0.3409 -0.0122 -0.1916
  869SOL    HW111385   8.824   1.958   0.080  2.1633  1.2809 -1.9224
  869SOL    HW211386   8.822   1.816   0.027  0.8353  0.3184  0.5575
  870SOL     OW11387   1.977   0.192   6.304 -0.2122 -0.8282 -0.0309
  870SOL    HW111388   2.056   0.215   6.353 -0.3445 -1.0229  0.2764
  870SOL    HW211389   1.999   0.109   6.261 -0.7790 -1.6932  1.3080
  871SOL     OW11390   4.882  12.406   1.729  0.5121  0.0290  0.1864
  871SOL    HW111391   4.888  12.378   1.638 -2.5388 -0.1514 -0.0644
  871SOL    HW211392   4.920  12.495   1.730 -0.4333  0.4827 -1.5076
  872SOL     OW11393   5.351   2.767  11.594  0.3540  0.0405  0.4682
  872SOL    HW111394   5.393   2.700  11.647  0.2061  1.1498  2.0455
  872SOL    HW211395   5.404   2.846  11.607 -1.5153  1.1840  1.6129
  873SOL     OW11396  11.769   5.063   8.766  0.3167 -0.0818  0.6518
  873SOL    HW111397  11.706   5.130   8.791  0.4288 -0.0679  0.8985
  873SOL    HW211398  11.731   4.981   8.796  0.3363 -0.0923  0.6475
  874SOL     OW11399   8.342   1.547  11.707 -0.3033 -0.4681 -0.2062
  874SOL    HW111400   8.289   1.519  11.632 -0.9376  1.2849 -0.4479
  874SOL    HW211401   8.278   1.580  11.770  0.4368  1.6869 -0.5003
  875SOL     OW11402   4.984   6.600   3.918 -0.6347 -0.5808 -0.0646
  875SOL    HW111403   5.022   6.677   3.874 -1.3947 -0.0974  0.1097
  875SOL    HW211404   5.055   6.535   3.917  0.0166  0.1104 -0.2289
  876SOL     OW11405  11.819   7.609   8.158 -0.8771 -0.3493 -0.6162
  876SOL    HW111406  11.886   7.541   8.151 -0.3365 -0.0974  1.4493
  876SOL    HW211407  11.745   7.566   8.201 -0.2195  0.5135  1.4796
  877SOL     OW11408   6.879   0.176   5.238 -0.1906  0.4812 -0.0773
  877SOL    HW111409   6.934   0.253   5.225  0.2989  0.1808  0.1938
  877SOL    HW211410   6.939   0.102   5.231 -0.4353  0.1771  0.8778
  878SOL     OW11411   4.074   1.570   2.055 -0.1906  0.0243  0.9027
  878SOL    HW111412   4.026   1.642   2.015  0.2730  0.0838  0.4287
  878SOL    HW211413   4.161   1.606   2.073  0.5785 -0.8138 -0.7962
  879SOL     OW11414  12.174   4.191   6.140  0.0191 -0.3197 -0.2904
  879SOL    HW111415  12.141   4.190   6.050 -1.1329 -1.2939  0.1206
  879SOL    HW211416  12.203   4.101   6.156 -0.7115 -0.3995  0.6384
  880SOL     OW11417   0.699   8.136  12.003  0.0238 -1.0040  0.4273
  880SOL    HW111418   0.791   8.114  11.995  0.6166  0.4581  2.4215
  880SOL    HW211419   0.674   8.104  12.090 -0.4118  1.4897  1.2908
  881SOL     OW11420   0.837   6.533   4.446  0.2769  0.0823  0.0757
  881SOL    HW111421   0.795   6.450   4.424 -1.9946  0.3641  2.8262
  881SOL    HW211422   0.917   6.508   4.492 -1.3179 -0.7145  2.5448
  882SOL     OW11423   4.123   4.932   5.657  0.1176  0.3413  0.2003
  882SOL    HW111424   4.213   4.929   5.687  0.2245 -0.1182 -0.1570
  882SOL    HW211425   4.077   4.985   5.722  0.9439  1.8361 -0.3898
  883SOL     OW11426   2.463   7.640   0.955 -0.7618 -0.3802  0.2769
  883SOL    HW111427   2.438   7.712   0.897 -0.6751  0.5537  1.3693
  883SOL    HW211428   2.553   7.620   0.930 -0.9145 -0.3827 -0.2942
  884SOL     OW11429   5.663   2.920   5.973 -0.0315  0.4505 -0.4363
  884SOL    HW111430   5.580   2.954   5.939 -0.3837 -1.5386 -1.7409
  884SOL    HW211431   5.728   2.945   5.907  0.4652  2.0593  0.6137
  885SOL     OW11432   5.879   9.047  10.081 -0.2393 -0.0161 -0.1832
  885SOL    HW111433   5.883   9.117  10.016  1.7446 -0.2317 -0.3751
  885SOL    HW211434   5.923   9.083  10.158  1.4926 -1.2315 -0.5368
  886SOL     OW11435   1.204   2.000   8.654 -0.6738 -0.1154 -0.5723
  886SOL    HW111436   1.224   2.087   8.618  0.5457 -0.8065 -1.6567
  886SOL    HW211437   1.190   2.015   8.747  3.1685  0.7959  0.0283
  887SOL     OW11438   1.869   1.962   7.319 -0.5013  0.1915 -0.5338
  887SOL    HW111439   1.928   1.984   7.247  0.1342 -0.1502 -0.1294
  887SOL    HW211440   1.901   1.878   7.352 -0.1554  0.8114  0.7953
  888SOL     OW11441   9.415   4.987  10.871 -0.4792 -0.1284  0.1756
  888SOL    HW111442   9.451   4.997  10.959 -0.1616 -2.0345  0.3160
  888SOL    HW211443   9.457   5.056  10.820  0.9614 -0.3095  1.0598
  889SOL     OW11444   6.134   5.181   6.540  0.0763 -0.4369  0.3398
  889SOL    HW111445   6.043   5.199   6.517  0.7327  1.7528 -0.8182
  889SOL    HW211446   6.184   5.249   6.495  2.2080 -0.9329  1.8224
  890SOL     OW11447   1.316  11.567   8.680 -0.2096 -0.2100  0.1921
  890SOL    HW111448   1.377  11.506   8.639 -0.2287 -0.1173  0.0223
  890SOL    HW211449   1.322  11.646   8.626 -0.9747 -0.4304 -0.2249
  891SOL     OW11450   8.841   5.305   0.197 -0.0546 -0.0286  0.0162
  891SOL    HW111451   8.781   5.256   0.140  0.3687 -0.2618 -0.2309
  891SOL    HW211452   8.803   5.393   0.201 -0.0358  0.0197 -0.7122
  892SOL     OW11453   4.376  10.944   9.012  0.3259  0.7257  0.5892
  892SOL    HW111454   4.469  10.964   9.012  0.5591 -0.2693  0.3500
  892SOL    HW211455   4.333  11.024   9.043  1.1769  1.5530 -0.3095
  893SOL     OW11456   4.469   6.134  12.314  0.1558 -0.2981  0.4078
  893SOL    HW111457   4.501   6.128  12.224 -0.2949  2.3331 -0.0240
  893SOL    HW211458   4.496   6.052  12.355  3.0965 -0.3238 -1.2732
  894SOL     OW11459   3.978  10.532   9.789 -0.1283 -0.2213  0.2732
  894SOL    HW111460   3.935  10.598   9.733  1.7196  0.2929 -0.6265
  894SOL    HW211461   4.059  10.575   9.817  0.3309 -1.5431  1.0186
  895SOL     OW11462   4.125   0.304   7.404 -0.1104 -0.2752  0.1371
  895SOL    HW111463   4.105   0.305   7.498 -0.6798 -0.7801  0.0325
  895SOL    HW211464   4.165   0.218   7.389  0.8245  0.1560  0.0712
  896SOL     OW11465   1.999  11.501   0.400 -0.3358  0.9219 -0.6937
  896SOL    HW111466   1.991  11.573   0.337 -3.0587  1.8129  0.5054
  896SOL    HW211467   1.908  11.476   0.419  0.2550  1.3136  3.5131
  897SOL     OW11468   1.619  11.512  11.619  0.0140  0.4408 -0.0978
  897SOL    HW111469   1.623  11.506  11.523 -0.9707  2.6151 -0.3394
  897SOL    HW211470   1.645  11.602  11.638 -1.9945  0.7649  1.4666
  898SOL     OW11471  11.083   0.335   7.912 -0.0934  0.2274 -0.3557
  898SOL    HW111472  11.151   0.298   7.968 -0.9815 -0.2876  0.4248
  898SOL    HW211473  11.128   0.398   7.857  1.2263 -1.0280 -0.7608
  899SOL     OW11474  11.206  11.513   8.792 -0.7316 -0.2417  0.4492
  899SOL    HW111475  11.210  11.553   8.879 -0.0922 -0.9010  0.7266
  899SOL    HW211476  11.226  11.421   8.806 -0.8231 -0.4002 -0.3744
  900SOL     OW11477  10.090   3.593   0.052 -0.1242  0.3569  0.3890
  900SOL    HW111478  10.159   3.587   0.118 -0.9609 -4.1799  1.2070
  900SOL    HW211479  10.010   3.603   0.103 -0.5465 -0.2107 -0.1575
  901SOL     OW11480  12.535   0.876   3.525 -0.0849 -0.0262  0.0606
  901SOL    HW111481  12.449   0.918   3.522  0.0927  0.3467  0.1293
  901SOL    HW211482  12.597   0.948   3.519  0.2742 -0.4264 -3.3803
  902SOL     OW11483  12.011   9.967  11.852  0.0778  0.1551 -0.6201
  902SOL    HW111484  11.944  10.036  11.851 -0.2778 -0.1728  0.1631
  902SOL    HW211485  12.071   9.992  11.782 -1.3847 -0.0615 -2.0368
  903SOL     OW11486  10.645   4.940   6.397  0.6849 -0.2671 -0.1276
  903SOL    HW111487  10.655   4.854   6.439  3.5367  0.6278  1.2870
  903SOL    HW211488  10.551   4.960   6.405 -0.2061 -3.4648 -1.1194
  904SOL     OW11489   2.526   8.408   3.253 -0.2252 -0.1530  0.3858
  904SOL    HW111490   2.477   8.361   3.185  1.0542 -1.1983  0.1342
  904SOL    HW211491   2.540   8.343   3.322 -0.2263  0.4776  0.9919
  905SOL     OW11492   7.337   2.614   9.484  0.0235 -1.3167  0.4963
  905SOL    HW111493   7.293   2.683   9.533 -0.6649 -0.9340 -0.6292
  905SOL    HW211494   7.266   2.559   9.451  0.5485 -2.4330  1.1572
  906SOL     OW11495  10.998   3.078  10.146  0.6773  0.2237  0.0387
  906SOL    HW111496  11.084   3.093  10.184  0.9990  2.7682 -1.5283
  906SOL    HW211497  11.003   2.990  10.108  2.5908  0.3488 -0.0608
  907SOL     OW11498   2.739   0.865   6.846 -0.5791 -0.0869 -0.1291
  907SOL    HW111499   2.735   0.772   6.824 -1.8693  0.2689 -1.5228
  907SOL    HW211500   2.792   0.868   6.926 -0.2558 -1.9749 -0.2242
  908SOL     OW11501   4.190   3.910  10.667 -0.6192  0.1358 -0.4833
  908SOL    HW111502   4.161   3.892  10.757  0.3803 -0.6418 -0.2922
  908SOL    HW211503   4.110   3.935  10.620 -1.1194  0.7905  0.6731
  909SOL     OW11504   1.778  11.413  12.167 -0.5430 -0.0596  0.5156
  909SOL    HW111505   1.836  11.453  12.232 -1.0211 -1.0632  1.5848
  909SOL    HW211506   1.830  11.342  12.130  0.3137  1.4455 -1.3996
  910SOL     OW11507  10.727   2.600   3.273 -0.2995  0.5408  0.7624
  910SOL    HW111508  10.638   2.632   3.269  0.1311  1.6933  0.1916
  910SOL    HW211509  10.769   2.631   3.193  0.9303  1.0103  1.5486
  911SOL     OW11510   1.911   2.549   9.508  0.7711  0.5813 -0.2671
  911SOL    HW111511   1.974   2.599   9.560 -0.9969  2.1174  0.4939
  911SOL    HW211512   1.873   2.486   9.569  0.9135  0.2643 -0.4999
  912SOL     OW11513   4.475   1.116   2.496  0.4910  0.8122  0.8559
  912SOL    HW111514   4.541   1.048   2.510  0.5196  1.0903  2.2507
  912SOL    HW211515   4.523   1.188   2.455  0.7889  0.5547  0.7451
  913SOL     OW11516  12.278   5.775   8.851  0.1902  0.3520 -0.7610
  913SOL    HW111517  12.363   5.802   8.885  0.2424 -0.2568 -0.4024
  913SOL    HW211518  12.290   5.773   8.756 -0.1731  2.8236 -0.9232
  914SOL     OW11519   0.328   2.280  11.497  0.5912 -0.2776 -0.5508
  914SOL    HW111520   0.325   2.299  11.591  0.4431 -1.9333 -0.1910
  914SOL    HW211521   0.240   2.250  11.475  0.5888  0.2179 -1.2586
  915SOL     OW11522   0.726   0.059   4.643  0.8695 -0.0993 -0.0925
  915SOL    HW111523   0.648   0.104   4.611  0.6490 -0.3784  0.0442
  915SOL    HW211524   0.692  -0.017   4.691  1.2252 -0.2521 -0.0755
  916SOL     OW11525   2.499   1.526   1.813 -0.2955 -0.1632  0.1748
  916SOL    HW111526   2.542   1.584   1.749  0.0818 -0.1550  0.4288
  916SOL    HW211527   2.449   1.586   1.869 -1.1663 -0.2291 -0.5100
  917SOL     OW11528   9.939   3.334   8.637  0.1807  0.4490  0.3357
  917SOL    HW111529   9.873   3.385   8.591 -0.8479  0.3357  1.6285
  917SOL    HW211530  10.018   3.388   8.633 -0.5638  1.6007  0.6197
  918SOL     OW11531   9.343   4.611  12.033  0.8664  0.9326  0.1263
  918SOL    HW111532   9.422   4.626  11.981  0.5395  1.9113 -0.1199
  918SOL    HW211533   9.282   4.569  11.972  1.7575 -1.4512  0.7908
  919SOL     OW11534   1.082   5.001   2.815  0.1503 -0.1220  0.0197
  919SOL    HW111535   1.076   5.031   2.906 -1.2765 -0.5149  0.0808
  919SOL    HW211536   1.032   4.920   2.813  1.2022 -0.7759 -0.8670
  920SOL     OW11537   1.104   7.849   7.118 -0.4690  0.1019 -0.6359
  920SOL    HW111538   1.011   7.825   7.115 -0.7195  0.9919 -0.3009
  920SOL    HW211539   1.115   7.910   7.045  0.4165 -1.7911 -2.1926
  921SOL     OW11540   8.007  11.403   4.311  0.2943  0.4031 -0.3225
  921SOL    HW111541   8.055  11.457   4.374 -0.9090  1.5157 -0.3210
  921SOL    HW211542   8.064  11.327   4.296  2.0006  1.6249 -0.2754
  922SOL     OW11543  10.472   4.290   2.925  0.6109  0.0099  0.2558
  922SOL    HW111544  10.404   4.230   2.957 -0.9229  1.3404 -0.3974
  922SOL    HW211545  10.455   4.298   2.831  3.4117 -1.7548 -0.5520
  923SOL     OW11546   6.733   7.219   9.142  0.4077  0.0562 -0.4370
  923SOL    HW111547   6.718   7.241   9.050 -0.2050 -0.8840 -0.5716
  923SOL    HW211548   6.815   7.263   9.164 -0.4960  2.0248 -0.8213
  924SOL     OW11549   8.988   1.828   5.292  0.0629 -0.3736  0.1664
  924SOL    HW111550   9.046   1.762   5.330 -0.2624 -0.2456  0.8960
  924SOL    HW211551   9.045   1.902   5.275  0.1281 -0.2556  0.8621
  925SOL     OW11552   9.162   6.092   2.895 -0.2947  0.2182 -0.5649
  925SOL    HW111553   9.253   6.071   2.920 -0.4271 -0.4781 -0.6476
  925SOL    HW211554   9.150   6.047   2.811 -0.6303  0.5410 -0.6885
  926SOL     OW11555   4.565   1.506   8.076  0.6177 -0.3837  0.6347
  926SOL    HW111556   4.535   1.556   8.152  2.8493  3.4371 -0.7359
  926SOL    HW211557   4.509   1.536   8.004  1.2954 -0.6727 -0.0201
  927SOL     OW11558   6.262  11.911   2.087 -0.3304  0.3904  0.0500
  927SOL    HW111559   6.172  11.881   2.082 -0.2347 -0.4856  2.4786
  927SOL    HW211560   6.265  11.965   2.166  1.3430  0.0725  0.2410
  928SOL     OW11561   2.577   3.572   0.593  0.6396 -0.3078 -0.1067
  928SOL    HW111562   2.621   3.522   0.525  0.5913  0.3566 -0.6386
  928SOL    HW211563   2.607   3.662   0.580 -0.7821  0.1503 -0.4304
  929SOL     OW11564   6.748   1.288   1.679 -0.0834 -0.0539 -0.0123
  929SOL    HW111565   6.670   1.327   1.639 -0.8380  0.0450  1.4892
  929SOL    HW211566   6.726   1.195   1.688 -0.9067  0.2913  2.2523
  930SOL     OW11567   5.295   6.369   4.255 -0.3164 -0.2445  0.1217
  930SOL    HW111568   5.224   6.433   4.259  0.5229  0.6971  0.0415
  930SOL    HW211569   5.276   6.318   4.176 -1.4727 -0.6964  0.6633
  931SOL     OW11570   5.723   3.902   9.825 -0.2654  0.4030  0.0439
  931SOL    HW111571   5.723   3.969   9.894 -1.5814  1.9725 -1.4087
  931SOL    HW211572   5.796   3.927   9.768  0.5022 -0.5986  0.5612
  932SOL     OW11573  11.114   2.436   3.595 -0.0492 -0.4336  0.3542
  932SOL    HW111574  11.147   2.359   3.549 -2.0774  0.2359 -2.5623
  932SOL    HW211575  11.166   2.509   3.561 -1.2228  0.0121 -0.5616
  933SOL     OW11576   8.766   6.538   8.241  0.3349 -0.2992  0.2447
  933SOL    HW111577   8.703   6.476   8.279 -0.1521  0.2771  0.3874
  933SOL    HW211578   8.792   6.498   8.158  0.9481 -1.2857  0.8793
  934SOL     OW11579  12.328  12.418   1.303  0.4283 -0.0134 -0.2439
  934SOL    HW111580  12.258  12.483   1.313 -0.4182 -1.0934  1.3701
  934SOL    HW211581  12.338  12.408   1.208  0.3530  2.1788 -0.5347
  935SOL     OW11582   6.478   8.972   6.820  0.1635 -0.5051 -0.0113
  935SOL    HW111583   6.435   8.944   6.900 -1.0885 -1.9233 -1.1228
  935SOL    HW211584   6.487   9.067   6.829 -0.6013 -0.5614  1.4831
  936SOL     OW11585  10.160   7.229   0.361  0.3460  0.4104 -0.5673
  936SOL    HW111586  10.195   7.176   0.289 -0.9357 -1.5777  0.1550
  936SOL    HW211587  10.068   7.241   0.339 -0.2147 -0.7244  0.9390
  937SOL     OW11588   7.295   1.878   3.035 -0.5576 -0.7707 -0.0479
  937SOL    HW111589   7.332   1.797   3.070  0.2148  0.1702  1.3944
  937SOL    HW211590   7.371   1.933   3.014 -1.0200  0.8681  2.1749
  938SOL     OW11591   3.276   0.075   4.088 -0.1582  0.1050 -0.1832
  938SOL    HW111592   3.233  -0.011   4.085  1.5102 -0.7671 -1.0710
  938SOL    HW211593   3.233   0.126   4.019 -1.1691  0.0069  0.3564
  939SOL     OW11594   3.277   2.770  11.411 -0.2209  0.0065 -0.0136
  939SOL    HW111595   3.251   2.707  11.343  0.7800  0.2667 -0.6548
  939SOL    HW211596   3.360   2.737  11.444 -0.5686  0.0338  0.9027
  940SOL     OW11597   6.733   3.139  10.681  0.5872  0.3126 -0.1577
  940SOL    HW111598   6.816   3.185  10.693  0.2148  0.3306  3.3064
  940SOL    HW211599   6.759   3.050  10.654  1.7252  0.5174  0.1947
  941SOL     OW11600   2.040   1.288   5.259 -0.0953 -0.0426 -0.5546
  941SOL    HW111601   2.091   1.366   5.238  1.6190 -1.5483 -2.3957
  941SOL    HW211602   1.950   1.319   5.264  0.5959  2.1345 -0.6470
  942SOL     OW11603   6.276   7.073   9.281  0.2163  0.6505  0.6601
  942SOL    HW111604   6.365   7.094   9.309  1.6412 -0.4411 -2.5829
  942SOL    HW211605   6.283   6.989   9.237 -2.4832  0.4575  0.3899
  943SOL     OW11606  11.521   8.306   3.250 -0.0316  0.2823  0.5971
  943SOL    HW111607  11.594   8.355   3.288 -0.7062  1.0020  0.9943
  943SOL    HW211608  11.534   8.216   3.279  1.1405  0.2435 -0.0030
  944SOL     OW11609   8.649   7.847  10.551 -0.6019  0.1081  0.3345
  944SOL    HW111610   8.653   7.880  10.641  0.7108 -1.0904  0.7438
  944SOL    HW211611   8.629   7.754  10.560  0.3961 -0.2072 -0.5636
  945SOL     OW11612   4.244   4.166   1.737 -0.3942  0.0385  0.5005
  945SOL    HW111613   4.325   4.145   1.690 -0.4078  0.1477  0.4283
  945SOL    HW211614   4.274   4.211   1.816 -0.3177 -0.9048  1.0312
  946SOL     OW11615   3.669  12.041  11.160  0.2069  0.1501  0.2990
  946SOL    HW111616   3.700  11.951  11.170 -1.7729 -0.6467 -0.2033
  946SOL    HW211617   3.690  12.063  11.069  1.1340  0.4056  0.5612
  947SOL     OW11618   7.000   6.767   8.860 -0.4808  0.0449 -0.0835
  947SOL    HW111619   7.071   6.766   8.925 -2.1092 -0.5923  1.7687
  947SOL    HW211620   6.979   6.674   8.846 -0.1741  0.1722 -1.5489
  948SOL     OW11621   0.774  11.215   9.150  0.5326  0.2997 -0.5877
  948SOL    HW111622   0.796  11.176   9.066  0.4404 -0.5966 -0.2070
  948SOL    HW211623   0.683  11.192   9.165  0.9550 -0.8204  0.4248
  949SOL     OW11624   5.318   5.779   1.257  0.4291 -0.7409  0.8210
  949SOL    HW111625   5.370   5.768   1.177 -0.5502  0.4404 -0.0285
  949SOL    HW211626   5.370   5.838   1.311 -0.4297  1.3160 -0.4835
  950SOL     OW11627   5.001   7.455   2.052 -0.0955  0.4673  0.0962
  950SOL    HW111628   5.027   7.386   2.113 -0.4002  0.1880 -0.0812
  950SOL    HW211629   4.938   7.412   1.994 -1.3031  1.2441  0.7963
  951SOL     OW11630   6.417   4.410   1.674 -0.7455 -0.1384 -0.2456
  951SOL    HW111631   6.390   4.494   1.639 -0.3830 -0.4928 -1.4397
  951SOL    HW211632   6.467   4.370   1.603  1.1321 -0.3676  1.1359
  952SOL     OW11633   9.738   7.413   2.469  0.0776  0.2698  0.1092
  952SOL    HW111634   9.786   7.354   2.527  1.0191 -0.7750 -1.6416
  952SOL    HW211635   9.687   7.355   2.412 -0.5846  1.2475 -0.3237
  953SOL     OW11636  12.174   0.358   5.884 -0.3585  0.0257  0.8441
  953SOL    HW111637  12.155   0.320   5.969 -1.8011 -0.8045  0.1785
  953SOL    HW211638  12.235   0.297   5.843 -1.2220 -0.6296  0.5119
  954SOL     OW11639   7.045   2.641   2.936 -0.2476 -0.0593  0.3087
  954SOL    HW111640   6.955   2.615   2.955 -0.0230 -0.5676  0.7123
  954SOL    HW211641   7.044   2.737   2.937 -0.7810 -0.0640  0.2990
  955SOL     OW11642   0.117   2.912   1.359 -0.3400 -0.0776 -0.2446
  955SOL    HW111643   0.084   2.955   1.280  0.6802  0.7212 -0.2519
  955SOL    HW211644   0.087   2.822   1.351  0.8603 -0.3576 -2.2219
  956SOL     OW11645  11.555   9.940   4.217 -0.2631 -0.5974 -0.0081
  956SOL    HW111646  11.538   9.924   4.124  2.4954 -0.0615 -0.6951
  956SOL    HW211647  11.621   9.874   4.240  0.9084  0.8216  0.8621
  957SOL     OW11648   2.637   9.778   2.049  0.2447 -0.1453  0.3083
  957SOL    HW111649   2.646   9.871   2.025 -2.6141 -0.1471 -1.2346
  957SOL    HW211650   2.542   9.764   2.053  0.6090 -2.9872  0.6569
  958SOL     OW11651  11.897   0.554   1.146 -0.1217  0.8650  0.6155
  958SOL    HW111652  11.986   0.575   1.119 -0.1105  0.8111  0.6105
  958SOL    HW211653  11.852   0.639   1.150  0.2594  1.0175  1.8252
  959SOL     OW11654  12.420  11.907  10.725  0.3731 -0.0981 -0.0162
  959SOL    HW111655  12.424  11.996  10.690 -0.4606 -0.2955 -0.6722
  959SOL    HW211656  12.416  11.918  10.820  3.1030  0.4467  0.1107
  960SOL     OW11657   3.974   6.025   9.467  0.0322 -0.0991  0.0052
  960SOL    HW111658   4.007   6.044   9.555  0.1551  0.0182 -0.0649
  960SOL    HW211659   3.998   6.103   9.415  1.2094 -0.7505 -0.4712
  961SOL     OW11660   3.596   9.967   1.508 -0.7669 -0.3994  0.4491
  961SOL    HW111661   3.656   9.999   1.441 -2.0517 -0.8214 -0.9499
  961SOL    HW211662   3.635   9.885   1.538  1.1799  1.0594  2.1780
  962SOL     OW11663   0.603   9.059   3.900  0.0878  0.2352  0.0889
  962SOL    HW111664   0.531   9.078   3.840  2.4106  1.0059 -2.6579
  962SOL    HW211665   0.682   9.081   3.852  2.2172  0.3003  3.2637
  963SOL     OW11666  10.760   7.526   1.378  0.5184  0.4847 -0.5508
  963SOL    HW111667  10.738   7.545   1.287  2.1279 -1.5403 -1.4589
  963SOL    HW211668  10.827   7.458   1.372  2.1741  1.7220  2.1074
  964SOL     OW11669   1.948   0.715   3.882 -0.0707 -0.3920 -0.5107
  964SOL    HW111670   1.974   0.625   3.864  3.1165 -0.5562  3.4624
  964SOL    HW211671   2.031   0.763   3.885 -1.6098  2.6427 -1.7760
  965SOL     OW11672   0.518   1.882   9.655  0.4702 -0.2853  0.0391
  965SOL    HW111673   0.513   1.966   9.700 -0.9040 -0.8663  1.0431
  965SOL    HW211674   0.434   1.840   9.673  0.3352 -1.0786 -2.0545
  966SOL     OW11675   5.869   9.808   1.050 -0.3518  0.3012  0.3973
  966SOL    HW111676   5.872   9.784   1.143 -1.1677  1.3198  0.7102
  966SOL    HW211677   5.816   9.888   1.048 -0.3025  0.3195 -0.9448
  967SOL     OW11678  10.541   1.774   8.449 -0.5448  0.0543  0.0874
  967SOL    HW111679  10.617   1.724   8.418  0.0361  1.2247 -0.4322
  967SOL    HW211680  10.473   1.758   8.383 -0.1112  0.5517 -0.4906
  968SOL     OW11681   5.435   7.208   1.025 -0.2771  0.7354 -0.0877
  968SOL    HW111682   5.526   7.224   1.000 -0.0692  1.6729  1.1338
  968SOL    HW211683   5.398   7.159   0.952  1.0713  0.7698 -0.8307
  969SOL     OW11684   1.405  11.772   5.715  0.9208 -0.0168 -0.3854
  969SOL    HW111685   1.397  11.867   5.721 -0.6468 -0.2089  2.1129
  969SOL    HW211686   1.325  11.744   5.670  0.7986 -0.2179 -0.0483
  970SOL     OW11687   8.784   0.586   1.366  0.1795 -0.0490 -0.1465
  970SOL    HW111688   8.762   0.513   1.309  1.4721 -1.1037  0.6339
  970SOL    HW211689   8.790   0.547   1.453 -1.5745  1.4794  0.7260
  971SOL     OW11690   0.358   8.800   5.826 -0.1497 -0.3143  0.3140
  971SOL    HW111691   0.299   8.870   5.797  0.3295 -0.5977 -1.4306
  971SOL    HW211692   0.413   8.782   5.750  1.4375 -0.8469  1.5426
  972SOL     OW11693   8.322  11.673   1.315  0.2114 -0.1461 -0.6499
  972SOL    HW111694   8.312  11.626   1.398  1.0831  0.4116 -0.2102
  972SOL    HW211695   8.313  11.766   1.338 -0.2844 -0.0264 -1.3034
  973SOL     OW11696   0.021   6.821   8.873  0.0727 -0.7865 -0.2875
  973SOL    HW111697  -0.069   6.789   8.869 -0.7414  1.3718 -0.3359
  973SOL    HW211698   0.057   6.781   8.952 -1.3375 -0.6812  0.4392
  974SOL     OW11699   0.905   4.131  11.062 -0.1384  0.4223  0.2525
  974SOL    HW111700   0.954   4.100  10.985  2.8075  0.0957  2.1083
  974SOL    HW211701   0.845   4.197  11.027  1.8338  1.0610 -2.1921
  975SOL     OW11702   0.778  10.337  12.277  0.1642 -0.2392 -0.1648
  975SOL    HW111703   0.706  10.289  12.318  0.0151  0.0835 -0.0459
  975SOL    HW211704   0.851  10.275  12.276  0.4456  0.0201  1.3823
  976SOL     OW11705  10.308   3.384   6.292  0.1212  0.1241  0.4926
  976SOL    HW111706  10.311   3.306   6.348  2.2303 -0.1173  0.1205
  976SOL    HW211707  10.308   3.350   6.203  2.8375  0.4915  0.2921
  977SOL     OW11708   5.694   6.594   6.947 -0.8016 -0.1751  0.0360
  977SOL    HW111709   5.740   6.674   6.971  1.1934 -0.9840 -0.8695
  977SOL    HW211710   5.621   6.623   6.892 -0.8750  1.0755  0.7513
  978SOL     OW11711   4.191   4.731   4.114 -0.3724 -0.5792 -0.0496
  978SOL    HW111712   4.229   4.666   4.054  0.6760 -0.1194  0.0967
  978SOL    HW211713   4.140   4.680   4.175 -3.8438 -0.9220 -2.9165
  979SOL     OW11714   4.638   8.896   8.782  0.2145  0.0305 -0.3310
  979SOL    HW111715   4.610   8.854   8.701  0.8883 -1.8340  0.3562
  979SOL    HW211716   4.622   8.831   8.851 -0.0888  1.4534  1.0139
  980SOL     OW11717   9.236   1.800   1.675  0.0345  0.0023  0.1167
  980SOL    HW111718   9.235   1.732   1.608  1.7118  0.3714 -0.3135
  980SOL    HW211719   9.157   1.851   1.659 -0.0133 -0.4211 -1.0405
  981SOL     OW11720   4.038   0.107  12.415  0.0748 -0.5332 -0.6741
  981SOL    HW111721   4.087   0.156  12.349 -1.6452  0.1384 -1.5104
  981SOL    HW211722   4.006   0.174  12.475  0.1605 -0.9619 -0.1444
  982SOL     OW11723  10.275  10.504  12.470 -0.3003  0.5411  0.0543
  982SOL    HW111724  10.351  10.557  12.493 -0.4578  0.8301 -0.0984
  982SOL    HW211725  10.237  10.546  12.393  0.1046 -0.3135 -0.6331
  983SOL     OW11726  10.020  10.666   7.604 -0.2418  0.2486 -0.3157
  983SOL    HW111727   9.970  10.592   7.640 -0.5269  0.4178 -0.3661
  983SOL    HW211728  10.015  10.654   7.509  2.5463 -1.5899 -0.3595
  984SOL     OW11729  12.550   7.380   2.165 -0.3807  0.5097 -0.3800
  984SOL    HW111730  12.510   7.294   2.177  3.1649 -1.3274 -0.3381
  984SOL    HW211731  12.565   7.386   2.071 -1.8953  1.8249 -0.5810
  985SOL     OW11732   1.000   5.816  12.478 -0.2604  0.3720  0.4422
  985SOL    HW111733   1.025   5.840  12.568  0.0121 -2.6602  1.2880
  985SOL    HW211734   0.905   5.806  12.481 -0.1754 -0.4059  0.5814
  986SOL     OW11735   8.070  10.920   9.457 -0.3569 -0.8079 -0.7477
  986SOL    HW111736   8.082  10.973   9.378  0.8340 -1.3712 -0.9797
  986SOL    HW211737   8.027  10.840   9.426 -1.0534 -0.4932 -0.6029
  987SOL     OW11738  11.749   4.540   2.230  0.0978  0.0474 -0.0116
  987SOL    HW111739  11.774   4.631   2.210  0.7669  0.1889  1.3898
  987SOL    HW211740  11.793   4.489   2.162 -0.5601  0.7756 -1.0223
  988SOL     OW11741   4.292   6.132   8.626  0.3518  0.1936 -0.0273
  988SOL    HW111742   4.305   6.212   8.576 -1.0378 -0.5394 -1.6900
  988SOL    HW211743   4.207   6.144   8.668  1.2252  0.5423  1.7372
  989SOL     OW11744   7.407   5.174  10.266 -0.8380  0.3819 -0.3983
  989SOL    HW111745   7.381   5.236  10.198  0.4197  1.6279  0.2193
  989SOL    HW211746   7.352   5.196  10.341 -0.5720  0.5646 -0.2591
  990SOL     OW11747   0.174   4.570   5.424 -0.3710 -0.3311  0.0058
  990SOL    HW111748   0.136   4.514   5.491 -0.2943  0.3501  0.6351
  990SOL    HW211749   0.187   4.654   5.468 -2.0983  0.7277 -1.3901
  991SOL     OW11750   9.445   1.759   3.309 -0.5950 -0.3220 -0.0485
  991SOL    HW111751   9.516   1.697   3.295  0.2697  0.8414 -1.0802
  991SOL    HW211752   9.481   1.824   3.369 -1.0734 -0.1561  0.0678
  992SOL     OW11753   3.107   1.794  10.728 -0.3397  0.0190  0.2888
  992SOL    HW111754   3.060   1.782  10.645 -0.5910 -2.6231  0.7251
  992SOL    HW211755   3.044   1.838  10.785 -0.8275  0.1963 -0.3681
  993SOL     OW11756  10.622   4.930   7.545  0.1621 -0.2529 -0.3328
  993SOL    HW111757  10.677   4.918   7.623  0.0605  1.5330  0.0576
  993SOL    HW211758  10.645   4.857   7.488  0.3856 -1.4974  1.2777
  994SOL     OW11759   1.133   9.852  11.087  0.1165  0.4470 -0.5929
  994SOL    HW111760   1.143   9.928  11.144  0.2760 -0.4607  0.6648
  994SOL    HW211761   1.204   9.793  11.114 -0.2254 -0.2899 -1.2686
  995SOL     OW11762   1.746  10.573  11.579  1.0298  0.3414 -0.0124
  995SOL    HW111763   1.797  10.515  11.521  0.0003 -0.5612 -0.0427
  995SOL    HW211764   1.734  10.653  11.528 -0.5609 -0.7338 -1.4401
  996SOL     OW11765   8.870   5.027   6.736  0.2468  0.6468 -0.5019
  996SOL    HW111766   8.807   4.968   6.777 -0.6549  1.4097 -0.7586
  996SOL    HW211767   8.955   4.986   6.752 -0.2801 -0.2342  0.1320
  997SOL     OW11768   1.985  12.607  12.416 -0.3718 -0.4213  0.1738
  997SOL    HW111769   1.900  12.613  12.458 -0.3560 -1.2082  0.3376
  997SOL    HW211770   1.984  12.522  12.371 -0.7733  0.8164 -2.2979
  998SOL     OW11771   7.430   1.902  10.703 -0.2840 -0.2128 -0.3153
  998SOL    HW111772   7.489   1.866  10.636 -0.4935 -0.7089 -0.2386
  998SOL    HW211773   7.347   1.916  10.657 -0.1338  0.4144 -0.4047
  999SOL     OW11774   6.676   7.991  10.001  0.4510  0.5252  0.1044
  999SOL    HW111775   6.768   7.964   9.993  0.1504 -0.1687 -1.4685
  999SOL    HW211776   6.680   8.077  10.043  1.7815  0.3019  0.5120
 1000SOL     OW11777   0.831  11.147   6.994  0.6887 -0.5486 -0.7031
 1000SOL    HW111778   0.763  11.135   6.927  1.5770 -1.8810 -1.4071
 1000SOL    HW211779   0.884  11.068   6.989  2.2223  0.3941 -0.0720
 1001SOL     OW11780   5.853   6.031   3.346  0.1749  0.3700 -0.2810
 1001SOL    HW111781   5.863   6.106   3.405  1.3483  0.0504 -0.0546
 1001SOL    HW211782   5.765   5.998   3.365  0.4235  0.4296  1.1189
 1002SOL     OW11783   3.321   5.274   6.573 -0.0840 -0.1752 -0.4066
 1002SOL    HW111784   3.372   5.351   6.549  1.2652 -0.9760 -0.2142
 1002SOL    HW211785   3.386   5.207   6.593 -1.2079 -0.8988  1.0430
 1003SOL     OW11786   2.712  11.976  10.858  0.2893  0.2332 -0.5161
 1003SOL    HW111787   2.783  12.021  10.812 -0.4419  0.7124 -1.1923
 1003SOL    HW211788   2.677  12.042  10.918  0.4856 -0.0456 -0.0833
 1004SOL     OW11789  11.172   0.534   7.705 -0.0242  0.4085  0.3008
 1004SOL    HW111790  11.223   0.595   7.759 -0.2964  0.2040  0.8026
 1004SOL    HW211791  11.144   0.585   7.630 -0.1542  0.8687  0.6584
 1005SOL     OW11792   0.010   2.919   3.406  0.1401 -0.7961 -0.1519
 1005SOL    HW111793   0.006   2.920   3.311 -2.6318 -1.7706 -0.1353
 1005SOL    HW211794   0.087   2.971   3.428 -0.0800  0.8106 -2.8621
 1006SOL     OW11795   6.378   1.260   6.676 -0.4450  0.1393 -0.6354
 1006SOL    HW111796   6.304   1.250   6.736 -0.7910 -0.1004 -1.0955
 1006SOL    HW211797   6.418   1.174   6.672  1.1853  0.7252  1.2664
 1007SOL     OW11798   6.406   0.359   6.401  0.1061 -0.2801  0.3159
 1007SOL    HW111799   6.496   0.328   6.398  0.3242  0.2301  1.1841
 1007SOL    HW211800   6.364   0.317   6.326  1.1893 -0.1108 -0.4111
 1008SOL     OW11801   3.887   9.248   0.936 -0.2848  0.4060 -0.2217
 1008SOL    HW111802   3.958   9.205   0.889 -0.8303  1.3390 -1.9594
 1008SOL    HW211803   3.927   9.278   1.018  1.4490  1.3102 -1.3659
 1009SOL     OW11804   6.006   5.897   6.742 -0.6383 -0.0429  0.0781
 1009SOL    HW111805   5.999   5.816   6.690  2.0705 -1.3744  1.5656
 1009SOL    HW211806   6.006   5.867   6.833 -1.8261  1.9023  0.7707
 1010SOL     OW11807   5.918   4.743   1.077 -0.1641  0.0950 -0.0432
 1010SOL    HW111808   5.983   4.712   1.140 -0.0694 -1.0692 -0.6812
 1010SOL    HW211809   5.837   4.698   1.102 -0.1938 -0.1548 -0.5527
 1011SOL     OW11810   7.605  12.515  10.320 -0.0754 -0.2490  0.0277
 1011SOL    HW111811   7.606  12.577  10.392 -0.3625 -1.1357  0.8097
 1011SOL    HW211812   7.531  12.541  10.266  0.7301  1.0307 -0.5195
 1012SOL     OW11813   2.952  10.134  12.399 -0.6672 -0.4601  0.3165
 1012SOL    HW111814   2.905  10.081  12.464 -1.6299  0.2358  0.2085
 1012SOL    HW211815   2.964  10.074  12.325  0.1503 -1.1600  0.9965
 1013SOL     OW11816   2.684   2.820   1.989 -0.0677  0.5392 -0.4684
 1013SOL    HW111817   2.739   2.879   2.040  1.1677 -2.3494  1.8252
 1013SOL    HW211818   2.600   2.820   2.035  0.2973 -0.2752  0.2312
 1014SOL     OW11819   0.545  11.282   2.388  0.2992 -1.0377 -0.0485
 1014SOL    HW111820   0.540  11.303   2.481 -1.9852 -2.9376  0.3514
 1014SOL    HW211821   0.564  11.188   2.386  1.5077 -0.8170 -1.5677
 1015SOL     OW11822   3.624   7.466   4.585 -0.1013 -0.1130  0.2974
 1015SOL    HW111823   3.627   7.552   4.543  0.1234 -0.4422 -0.3638
 1015SOL    HW211824   3.542   7.467   4.636 -0.1451  0.4525  0.2186
 1016SOL     OW11825   8.443   5.903  10.221 -0.8632  0.9698 -0.3617
 1016SOL    HW111826   8.506   5.965  10.183  1.8541 -0.8153  0.8947
 1016SOL    HW211827   8.448   5.918  10.315 -1.3930 -0.0468 -0.1554
 1017SOL     OW11828   7.718  11.695   0.855 -0.4898 -0.0175  0.3457
 1017SOL    HW111829   7.786  11.701   0.788 -0.0920 -1.5975  0.5522
 1017SOL    HW211830   7.763  11.716   0.937 -0.5361  0.1192  0.3358
 1018SOL     OW11831   9.749   2.913   5.176  0.5276  0.1961 -0.7538
 1018SOL    HW111832   9.717   2.871   5.256  0.7959  0.3445 -0.5680
 1018SOL    HW211833   9.706   2.999   5.176  0.8655  0.3673 -0.5422
 1019SOL     OW11834   4.309   1.294   5.249 -0.2297  0.3404  0.3363
 1019SOL    HW111835   4.231   1.270   5.199 -0.1181 -0.8629  0.7295
 1019SOL    HW211836   4.367   1.333   5.184 -0.7405  0.3134 -0.1493
 1020SOL     OW11837  10.967   6.520   6.360 -0.6136  0.5593  0.5070
 1020SOL    HW111838  10.944   6.475   6.441  0.0069 -0.1646  0.2982
 1020SOL    HW211839  11.046   6.570   6.382 -1.1661  1.3665  0.6749
 1021SOL     OW11840   9.693   9.818   1.113  0.3903  0.9369  0.3507
 1021SOL    HW111841   9.641   9.859   1.045 -0.1156  1.7849  1.2183
 1021SOL    HW211842   9.784   9.832   1.086  0.1967  0.7004 -0.4524
 1022SOL     OW11843   6.002   5.376   4.851 -0.1358  0.0220  0.0693
 1022SOL    HW111844   6.005   5.288   4.888  1.3739 -0.2255 -0.5811
 1022SOL    HW211845   6.052   5.430   4.912  1.1509 -0.1055 -0.8494
 1023SOL     OW11846  11.961  12.601   3.182 -0.3090 -0.2675  0.5090
 1023SOL    HW111847  12.022  12.639   3.246 -1.0008  3.0950 -0.6120
 1023SOL    HW211848  12.009  12.603   3.099 -0.6158 -1.2881  0.2991
 1024SOL     OW11849   1.520   2.795   8.613 -0.0552  0.6997 -0.0065
 1024SOL    HW111850   1.544   2.886   8.631 -0.5579  1.4341 -2.5979
 1024SOL    HW211851   1.578   2.768   8.542 -2.0465  0.1831 -1.5565
 1025SOL     OW11852   5.665  11.286   3.680 -0.7459 -0.6405  0.2282
 1025SOL    HW111853   5.575  11.312   3.699 -0.6591 -1.0532  1.2967
 1025SOL    HW211854   5.712  11.368   3.667 -1.0145 -0.3611  0.9752
 1026SOL     OW11855   1.782  10.094   1.427 -0.0450  0.6564 -0.3093
 1026SOL    HW111856   1.825  10.169   1.470 -1.4537  1.7381 -0.7249
 1026SOL    HW211857   1.768  10.123   1.337  1.3670 -0.9724 -1.1055
 1027SOL     OW11858   2.780  11.981  12.127 -0.1083  0.1317  0.1565
 1027SOL    HW111859   2.689  11.984  12.099 -0.2533 -1.8743  0.2352
 1027SOL    HW211860   2.830  11.973  12.046  0.0339  1.3860  0.1043
 1028SOL     OW11861   0.514   3.262   3.458 -0.2808  0.1483  0.1787
 1028SOL    HW111862   0.465   3.193   3.503 -1.6799  0.3494 -0.9424
 1028SOL    HW211863   0.583   3.216   3.410 -0.4835 -0.3439  0.3582
 1029SOL     OW11864   1.887   0.494  11.214  0.0243 -0.2030  0.2949
 1029SOL    HW111865   1.947   0.465  11.145  1.0037  1.1830  0.5319
 1029SOL    HW211866   1.838   0.566  11.175 -0.9837 -0.8212  0.3637
 1030SOL     OW11867   7.292   1.025   4.329 -0.5765 -0.3384  0.7014
 1030SOL    HW111868   7.291   1.027   4.233  0.8228  3.4096  0.5691
 1030SOL    HW211869   7.374   0.981   4.352  0.3761  1.0008  0.0103
 1031SOL     OW11870   2.987  12.128   7.844  0.1952  0.2839  0.1825
 1031SOL    HW111871   3.015  12.219   7.836  1.5766 -0.2430 -1.7330
 1031SOL    HW211872   2.892  12.131   7.830  0.0738  1.5027  1.0928
 1032SOL     OW11873   2.466  11.960   7.014 -0.3634  0.0024 -0.5928
 1032SOL    HW111874   2.373  11.950   7.037 -0.4271  0.6854 -0.5281
 1032SOL    HW211875   2.499  12.025   7.077  0.8306 -2.1418  1.1607
 1033SOL     OW11876  11.890   7.727   6.832 -0.1126 -0.3683 -0.8190
 1033SOL    HW111877  11.870   7.794   6.898  1.7036 -2.7522  2.4493
 1033SOL    HW211878  11.960   7.767   6.780 -0.1956  0.9003 -0.0239
 1034SOL     OW11879  12.322   2.972   2.504  0.5790  0.3964  0.6958
 1034SOL    HW111880  12.262   2.904   2.533  0.9053 -0.2440 -0.1038
 1034SOL    HW211881  12.319   2.969   2.409  3.3259 -1.0208  0.5459
 1035SOL     OW11882   9.311   6.569  12.169  0.0713 -0.1572  1.1370
 1035SOL    HW111883   9.313   6.511  12.093  1.2260  0.3687  0.7408
 1035SOL    HW211884   9.351   6.518  12.239 -1.3145 -0.7719  1.5213
 1036SOL     OW11885   1.255  11.864   9.508 -0.2045 -0.5124 -0.5216
 1036SOL    HW111886   1.196  11.799   9.470  0.4490 -1.1467 -0.4791
 1036SOL    HW211887   1.321  11.879   9.440 -0.1184 -0.2075 -0.3714
 1037SOL     OW11888   0.752   3.373  11.198 -0.2572  0.1068 -0.2611
 1037SOL    HW111889   0.784   3.391  11.286  1.1560  0.1252 -0.7659
 1037SOL    HW211890   0.658   3.391  11.203 -0.0251  1.0991  0.9696
 1038SOL     OW11891   8.862   1.869   6.169 -0.6893 -0.1006  0.1715
 1038SOL    HW111892   8.950   1.844   6.196 -0.7792 -0.8119 -0.1627
 1038SOL    HW211893   8.856   1.962   6.189  0.3116  0.0693 -0.2635
 1039SOL     OW11894   5.922   3.363   1.542  0.6319  0.8451  0.1291
 1039SOL    HW111895   5.863   3.300   1.501  1.1294 -0.7329  1.7263
 1039SOL    HW211896   5.951   3.418   1.470 -1.9256  1.0110 -0.8843
 1040SOL     OW11897  12.555   4.709   6.844 -0.2482 -0.0374 -0.2045
 1040SOL    HW111898  12.558   4.794   6.800 -0.9139  0.2764  0.3468
 1040SOL    HW211899  12.643   4.672   6.830  0.9507  1.8668  1.7661
 1041SOL     OW11900   3.046  10.270   9.651  0.2273  0.4764 -0.0081
 1041SOL    HW111901   2.993  10.337   9.694  0.5866  1.2406 -0.7279
 1041SOL    HW211902   3.132  10.275   9.694 -0.4534 -1.3061  1.7140
 1042SOL     OW11903  10.728   0.218   7.652 -0.2305  0.0712 -0.3425
 1042SOL    HW111904  10.677   0.152   7.605 -0.0479 -0.3492  0.0371
 1042SOL    HW211905  10.814   0.216   7.610 -0.9314  1.9029 -2.0470
 1043SOL     OW11906   8.493   4.490   7.227 -0.5549 -0.0751 -0.3146
 1043SOL    HW111907   8.472   4.578   7.195  0.5690 -0.2344 -1.5689
 1043SOL    HW211908   8.420   4.468   7.286  0.1388  2.4920  1.6951
 1044SOL     OW11909  12.296   8.893   1.948 -0.0237 -1.0821  0.0430
 1044SOL    HW111910  12.319   8.928   1.862 -1.7445 -1.1673 -0.5005
 1044SOL    HW211911  12.223   8.949   1.977 -0.2886 -1.8423  0.8689
 1045SOL     OW11912  12.350  11.395   0.172  0.2548  0.0314 -0.3939
 1045SOL    HW111913  12.290  11.322   0.165 -1.0187  1.1564 -2.3619
 1045SOL    HW211914  12.432  11.363   0.133  0.1902 -0.7978  0.1537
 1046SOL     OW11915   7.922   6.304  11.456  0.1123 -0.0589 -0.3285
 1046SOL    HW111916   7.934   6.218  11.497  2.3621  0.3641  0.0596
 1046SOL    HW211917   7.906   6.364  11.528 -2.2445 -0.1964 -0.6566
 1047SOL     OW11918   4.876   4.205   0.269 -0.8704  0.3250  0.2528
 1047SOL    HW111919   4.940   4.150   0.314  0.4471  0.0976 -1.7553
 1047SOL    HW211920   4.893   4.293   0.302 -0.5886  0.0483  0.8742
 1048SOL     OW11921   2.262   5.228   5.849  0.0047 -0.3550  0.7416
 1048SOL    HW111922   2.330   5.287   5.818  0.9524 -2.2099 -0.9214
 1048SOL    HW211923   2.182   5.260   5.807  0.4291  0.0159  0.1948
 1049SOL     OW11924  10.427   8.644   3.192  0.2766 -0.0667  0.1651
 1049SOL    HW111925  10.516   8.658   3.160  0.0059  1.9245  0.1477
 1049SOL    HW211926  10.373   8.705   3.141 -1.1375 -1.3038  0.0908
 1050SOL     OW11927   8.944   4.433   8.123  0.5609  0.2233 -0.1775
 1050SOL    HW111928   8.908   4.428   8.212  2.1173  0.2584  0.4765
 1050SOL    HW211929   8.903   4.512   8.086 -3.7955 -2.1995 -1.2748
 1051SOL     OW11930   2.424  11.445   8.978  0.0558 -0.0310 -0.0212
 1051SOL    HW111931   2.377  11.527   8.990  2.7640  1.5768  0.4811
 1051SOL    HW211932   2.373  11.381   9.027 -1.4769  1.5921  0.6322
 1052SOL     OW11933   4.215   6.672   3.581 -0.6333  0.1976 -0.2367
 1052SOL    HW111934   4.231   6.744   3.521  0.4535  0.6170  0.5275
 1052SOL    HW211935   4.143   6.702   3.637 -1.6344 -0.1888 -1.2820
 1053SOL     OW11936   1.623   0.293  10.180  0.6451 -0.1204 -0.5219
 1053SOL    HW111937   1.629   0.388  10.167  0.3911  0.3790  2.3848
 1053SOL    HW211938   1.541   0.268  10.138  0.4457  1.0375 -0.8588
 1054SOL     OW11939   3.571   5.118   6.263  0.5128 -0.5533  0.4261
 1054SOL    HW111940   3.643   5.058   6.286  0.2789 -1.8588 -1.8945
 1054SOL    HW211941   3.579   5.129   6.168 -1.1449  0.9052  0.4143
 1055SOL     OW11942  11.733   9.050   7.810  0.2136  0.1413  0.5776
 1055SOL    HW111943  11.812   9.060   7.864  0.1343  1.2025  0.5171
 1055SOL    HW211944  11.718   9.137   7.772 -0.0443 -0.4505 -0.7350
 1056SOL     OW11945  12.556   3.014   2.604  0.7121  0.2147 -0.0417
 1056SOL    HW111946  12.472   2.991   2.563  0.3009  0.5624  0.5929
 1056SOL    HW211947  12.540   3.100   2.644  0.9265 -0.3715  1.3449
 1057SOL     OW11948   3.852   1.905   6.592 -0.3572  0.1738 -0.4365
 1057SOL    HW111949   3.834   1.848   6.516  0.2129  0.1606 -0.5664
 1057SOL    HW211950   3.936   1.873   6.626  1.1400  2.3612 -1.8665
 1058SOL     OW11951   6.583   4.029  10.324 -0.3544 -0.3193 -0.3237
 1058SOL    HW111952   6.502   4.040  10.273 -0.0418 -1.1845 -1.0418
 1058SOL    HW211953   6.641   3.979  10.266  0.4008 -0.4100  0.4904
 1059SOL     OW11954  11.561   4.511   3.776 -0.2373 -0.1889 -0.1562
 1059SOL    HW111955  11.584   4.460   3.854 -2.5269 -1.7046 -0.3791
 1059SOL    HW211956  11.640   4.508   3.722  0.1997 -2.3249  0.4777
 1060SOL     OW11957  11.961  12.043   3.201 -0.4315  0.1704 -0.4966
 1060SOL    HW111958  11.965  12.130   3.162 -1.4888 -0.3555 -1.8634
 1060SOL    HW211959  12.017  11.989   3.146  0.5068  0.0447  0.5592
 1061SOL     OW11960  12.142  11.633   0.580  0.1828  0.0388  0.5206
 1061SOL    HW111961  12.123  11.606   0.490 -1.3215  2.0650  0.1493
 1061SOL    HW211962  12.227  11.677   0.573  0.0593  0.2196  0.0718
 1062SOL     OW11963   9.679   0.213   9.989 -0.5924 -0.0850 -0.0709
 1062SOL    HW111964   9.628   0.217   9.908  0.6777  1.4819 -0.8550
 1062SOL    HW211965   9.621   0.252  10.055 -0.5121  1.6153 -0.9340
 1063SOL     OW11966   1.410   3.681  12.362  0.6959  0.0562 -0.0270
 1063SOL    HW111967   1.366   3.610  12.316  0.2903  0.7701 -0.7568
 1063SOL    HW211968   1.403   3.657  12.455 -0.3214 -0.3485 -0.2021
 1064SOL     OW11969   7.910   9.706   2.566  0.1157  0.5650 -0.1358
 1064SOL    HW111970   7.823   9.743   2.582 -0.6673 -0.6342 -1.3962
 1064SOL    HW211971   7.935   9.739   2.480  0.2039 -0.3376 -0.4691
 1065SOL     OW11972   1.382   1.784  11.593  0.0613 -0.4920  0.1815
 1065SOL    HW111973   1.348   1.872  11.609  1.4094  0.0002  0.5050
 1065SOL    HW211974   1.469   1.799  11.557 -0.7288 -1.6762 -2.4507
 1066SOL     OW11975  11.904  11.830   4.874 -0.4318  0.0322  0.0288
 1066SOL    HW111976  11.866  11.891   4.937 -2.4816  0.5869 -1.6141
 1066SOL    HW211977  11.868  11.858   4.790  1.5802 -1.1535 -1.3109
 1067SOL     OW11978  12.018   6.955   2.010 -0.5632  0.4393 -0.1146
 1067SOL    HW111979  12.042   7.017   2.079 -0.6390 -0.2786  0.5695
 1067SOL    HW211980  11.925   6.939   2.023 -0.4730 -0.0756 -0.0682
 1068SOL     OW11981   0.697   7.191   1.531 -0.1714  0.5255  0.4858
 1068SOL    HW111982   0.703   7.136   1.453  2.3866  0.6989  0.4663
 1068SOL    HW211983   0.706   7.280   1.498 -0.6722  0.7173  0.8523
 1069SOL     OW11984   3.935   2.219   4.524  0.4732  0.0652  0.6212
 1069SOL    HW111985   3.967   2.203   4.435 -0.0422  3.3461 -0.2723
 1069SOL    HW211986   4.005   2.267   4.567  0.5872 -1.2203  1.9400
 1070SOL     OW11987  10.550   6.180   2.572  0.8770  0.3369  0.0051
 1070SOL    HW111988  10.582   6.210   2.487 -1.3991 -2.9055 -2.2231
 1070SOL    HW211989  10.488   6.248   2.600  0.9514  1.0088 -1.3921
 1071SOL     OW11990   0.535  10.555   1.255 -0.4459 -0.3408  0.4372
 1071SOL    HW111991   0.535  10.650   1.264  0.1181 -0.4727  2.4968
 1071SOL    HW211992   0.450  10.527   1.287 -0.2127 -0.5738  0.8727
 1072SOL     OW11993   4.981  10.794   9.193  0.3869  0.3564 -0.0899
 1072SOL    HW111994   4.933  10.862   9.239  0.2051  1.3592 -1.6979
 1072SOL    HW211995   5.062  10.785   9.242 -0.1843  0.7022  0.9652
 1073SOL     OW11996   2.395   6.455  10.320 -0.1421  0.4450 -0.1078
 1073SOL    HW111997   2.312   6.501  10.310  0.9674  2.0235 -2.8963
 1073SOL    HW211998   2.436   6.496  10.396 -1.2605  0.6337  0.4136
 1074SOL     OW11999   4.007  12.185   6.917 -0.2973  0.2558  0.6318
 1074SOL    HW112000   4.087  12.223   6.954  1.0309 -1.2340 -0.5623
 1074SOL    HW212001   4.015  12.198   6.823 -1.4362  0.0035  0.4831
 1075SOL     OW12002   6.173   6.199   5.301  0.4249  0.1730 -0.1946
 1075SOL    HW112003   6.213   6.163   5.222  0.0699 -0.4296 -0.1098
 1075SOL    HW212004   6.234   6.174   5.371 -0.1840 -0.9411 -0.0347
 1076SOL     OW12005   4.492   9.447   4.248 -0.7694  0.1087  0.3561
 1076SOL    HW112006   4.451   9.474   4.330  1.5689 -0.3355  1.7498
 1076SOL    HW212007   4.527   9.360   4.266 -0.8295 -0.3027 -1.3707
 1077SOL     OW12008   4.527   6.047   6.749 -0.3720 -0.7882 -0.1698
 1077SOL    HW112009   4.560   6.047   6.659  1.2187 -0.9108  0.3744
 1077SOL    HW212010   4.433   6.063   6.740 -0.0263  0.7248 -1.7634
 1078SOL     OW12011   8.278  10.188   8.995  0.2117  0.1238  0.0416
 1078SOL    HW112012   8.218  10.152   8.930  0.0106  0.3658  0.0899
 1078SOL    HW212013   8.357  10.134   8.987  1.4394  2.0598 -2.6442
 1079SOL     OW12014  10.420   9.829   4.551 -0.4116  0.0134  0.4017
 1079SOL    HW112015  10.510   9.798   4.541 -0.3701 -0.0606  0.9660
 1079SOL    HW212016  10.368   9.772   4.494 -0.0039  0.5458 -0.5070
 1080SOL     OW12017   9.164  10.608   4.451 -0.0667  0.2111  0.1362
 1080SOL    HW112018   9.173  10.514   4.436 -1.0005  0.1917 -0.3655
 1080SOL    HW212019   9.254  10.639   4.463  0.4237 -0.4672 -1.4941
 1081SOL     OW12020   7.243   4.594   1.212 -0.2477  0.5584  0.1130
 1081SOL    HW112021   7.250   4.640   1.128 -1.0777  0.0879 -0.2269
 1081SOL    HW212022   7.198   4.512   1.191 -1.7102  1.0336  1.2144
 1082SOL     OW12023   2.866   3.577   3.293 -0.8528  0.0649 -0.3203
 1082SOL    HW112024   2.905   3.572   3.380  2.4809  1.8798 -1.5422
 1082SOL    HW212025   2.932   3.538   3.235 -3.0667 -1.3046 -2.0989
 1083SOL     OW12026   9.308   4.298   4.034 -0.3238 -0.4031  0.2371
 1083SOL    HW112027   9.361   4.219   4.021  1.2757  0.4248  1.3399
 1083SOL    HW212028   9.356   4.367   3.989 -2.3511 -0.2116 -1.7930
 1084SOL     OW12029   2.860   7.145   8.528 -0.3219  0.0542  0.3535
 1084SOL    HW112030   2.774   7.188   8.523 -0.8281 -1.0694 -2.3328
 1084SOL    HW212031   2.922   7.217   8.524 -1.1566  0.7698 -0.2939
 1085SOL     OW12032   5.441   3.756   5.771 -0.3393  0.2995  0.4538
 1085SOL    HW112033   5.420   3.730   5.861  0.3742 -0.8777  0.2996
 1085SOL    HW212034   5.533   3.732   5.760 -0.8244 -0.9851 -1.0633
 1086SOL     OW12035   5.460   6.096  11.724 -0.5195  0.0856 -0.2273
 1086SOL    HW112036   5.426   6.183  11.746 -1.5072  0.1381 -1.8300
 1086SOL    HW212037   5.533   6.113  11.665 -1.6864 -0.1738 -1.7987
 1087SOL     OW12038  12.483  10.052   8.487  0.7478 -0.1868 -0.3065
 1087SOL    HW112039  12.442   9.965   8.487 -1.0172  0.4492 -4.2360
 1087SOL    HW212040  12.410  10.113   8.500  1.5976  0.7998 -0.0489
 1088SOL     OW12041   2.699   9.998  10.191  0.7835 -0.7523 -0.5723
 1088SOL    HW112042   2.630   9.948  10.147  0.3546 -0.3840 -0.3130
 1088SOL    HW212043   2.734  10.055  10.122 -0.2210  0.1812 -0.3397
 1089SOL     OW12044   5.650   6.467   2.020  1.1034  0.0721  0.0133
 1089SOL    HW112045   5.557   6.478   2.039  1.4004  0.7297  1.1813
 1089SOL    HW212046   5.688   6.554   2.031  2.3223 -0.6818  2.3523
 1090SOL     OW12047   9.921   8.860   8.929  0.1569  0.3420 -0.0174
 1090SOL    HW112048  10.000   8.821   8.891 -0.1990  0.4170 -0.8646
 1090SOL    HW212049   9.849   8.817   8.882 -0.2644  1.4297 -0.3962
 1091SOL     OW12050   2.061   0.417   0.853 -0.0524  0.2706  0.0358
 1091SOL    HW112051   2.027   0.470   0.780 -1.3389  2.1815  1.8942
 1091SOL    HW212052   2.156   0.421   0.844 -0.1859 -0.2850 -2.0105
 1092SOL     OW12053   1.826   2.799   5.850  0.1994 -0.0170  0.5348
 1092SOL    HW112054   1.880   2.827   5.776  0.0900  0.5224  0.6522
 1092SOL    HW212055   1.885   2.746   5.904 -0.2610 -2.1511 -0.9418
 1093SOL     OW12056   5.859   9.737   7.377 -0.1899 -0.3692  0.3722
 1093SOL    HW112057   5.826   9.814   7.422  0.0856  0.0747 -0.1809
 1093SOL    HW212058   5.911   9.691   7.444  0.9637  0.7520  0.2843
 1094SOL     OW12059  10.303   3.019   9.858  0.4869 -0.6674 -0.2103
 1094SOL    HW112060  10.359   3.083   9.814  0.0257  0.4952  0.8337
 1094SOL    HW212061  10.363   2.951   9.889  1.0865 -0.3192 -0.5918
 1095SOL     OW12062   1.825   6.888  11.290 -0.0693  0.3265 -0.7693
 1095SOL    HW112063   1.820   6.795  11.265  0.6026  0.3217 -0.9117
 1095SOL    HW212064   1.850   6.886  11.382 -0.8240  0.3624 -0.5595
 1096SOL     OW12065  12.261  11.200   9.412 -0.2334 -0.9267 -0.4197
 1096SOL    HW112066  12.344  11.244   9.398 -0.0640 -1.0766  0.1037
 1096SOL    HW212067  12.281  11.107   9.408 -0.5002 -0.9654 -0.9914
 1097SOL     OW12068  10.011   0.034   5.334 -0.0361 -0.0128 -0.4725
 1097SOL    HW112069  10.074   0.008   5.401  0.3592 -1.4348 -1.3671
 1097SOL    HW212070  10.033   0.125   5.315 -2.3066  1.7274  3.7074
 1098SOL     OW12071   0.681  12.365   8.162 -0.0823  0.5171 -0.1961
 1098SOL    HW112072   0.698  12.360   8.256  2.1190  0.8989 -0.5151
 1098SOL    HW212073   0.607  12.306   8.147  1.0505 -1.4498  1.4461
 1099SOL     OW12074   0.148   1.142   7.220 -0.7159  0.6582  0.2628
 1099SOL    HW112075   0.221   1.141   7.282 -0.4640  1.7866  0.0089
 1099SOL    HW212076   0.074   1.175   7.270 -0.5346  1.4823  0.0077
 1100SOL     OW12077   6.685   5.448  12.113 -0.5757  0.3299 -0.0898
 1100SOL    HW112078   6.647   5.457  12.201  0.1576 -1.3879  0.4471
 1100SOL    HW212079   6.612   5.419  12.059 -0.6051 -0.5795  0.4105
 1101SOL     OW12080   0.709   8.871   7.272  0.0580  0.1998  0.4257
 1101SOL    HW112081   0.788   8.839   7.317  0.4843  1.4958  0.6306
 1101SOL    HW212082   0.741   8.938   7.212 -0.4122 -1.8426 -2.3156
 1102SOL     OW12083   1.568   3.822   5.985  0.2402 -0.4121  0.4145
 1102SOL    HW112084   1.564   3.903   6.037 -2.4462 -0.5785  0.6333
 1102SOL    HW212085   1.566   3.852   5.894 -1.7143 -0.1673  0.4922
 1103SOL     OW12086   4.282   3.832  11.842  0.0677 -0.1921 -0.3274
 1103SOL    HW112087   4.243   3.753  11.880 -1.2785  0.5962 -0.0158
 1103SOL    HW212088   4.207   3.886  11.817  0.9649  0.7027 -1.1479
 1104SOL     OW12089   2.158   6.861   3.521  0.3813 -0.0079  0.2108
 1104SOL    HW112090   2.136   6.832   3.432  2.0132 -0.4448 -0.0822
 1104SOL    HW212091   2.249   6.889   3.516  0.6139 -0.3536  1.8177
 1105SOL     OW12092   4.248   1.972   5.109  0.2334 -0.3523 -0.0780
 1105SOL    HW112093   4.242   2.041   5.043  1.2105 -1.6302 -1.5715
 1105SOL    HW212094   4.257   2.019   5.192 -0.6384  1.3009 -0.8574
 1106SOL     OW12095  12.156   9.878   9.135 -0.2554 -0.1023 -0.2210
 1106SOL    HW112096  12.245   9.903   9.113 -0.2687  0.8976  0.7374
 1106SOL    HW212097  12.165   9.792   9.176  0.1535 -0.3950 -0.9055
 1107SOL     OW12098   0.605   4.082   8.568  0.1029  0.3006  0.1543
 1107SOL    HW112099   0.555   4.160   8.592  2.4011  2.1755 -0.7615
 1107SOL    HW212100   0.669   4.072   8.638  0.3519 -0.3091 -0.1520
 1108SOL     OW12101   6.719   1.160   3.195  1.0515 -0.1913 -0.5832
 1108SOL    HW112102   6.697   1.213   3.118 -0.1721 -0.7659 -0.6730
 1108SOL    HW212103   6.779   1.094   3.161  2.6948  1.1758 -0.4387
 1109SOL     OW12104   5.393   7.185  10.598 -0.2708  0.2857  0.0930
 1109SOL    HW112105   5.301   7.196  10.573 -1.4090 -3.5877  1.8633
 1109SOL    HW212106   5.418   7.100  10.563  1.4828 -0.3521  2.5915
 1110SOL     OW12107  12.507   6.952   8.155  0.8571 -0.1365 -0.3372
 1110SOL    HW112108  12.522   6.919   8.244 -0.3241 -0.0763 -0.0950
 1110SOL    HW212109  12.511   6.875   8.099  0.4113 -0.3599 -0.0675
 1111SOL     OW12110   6.013   2.419  12.559  0.1874 -0.4132 -0.2266
 1111SOL    HW112111   5.939   2.479  12.546  0.3740 -0.4952 -1.7964
 1111SOL    HW212112   5.973   2.332  12.556  0.3854 -0.4753 -1.5455
 1112SOL     OW12113   6.017   5.408   7.698  0.3614  0.0288 -0.1774
 1112SOL    HW112114   6.061   5.413   7.783 -1.6454 -0.3190  0.9456
 1112SOL    HW212115   6.059   5.335   7.653  1.5154  0.2735  0.4691
 1113SOL     OW12116   4.083   5.545   2.563 -0.9723 -0.1383 -0.3856
 1113SOL    HW112117   4.018   5.483   2.529 -0.5220  0.0894 -1.7403
 1113SOL    HW212118   4.148   5.552   2.493 -1.0921  1.9781 -0.3496
 1114SOL     OW12119   2.348   9.879   1.288  0.1925  0.6814 -0.6407
 1114SOL    HW112120   2.320   9.827   1.363  2.7803  1.1657  0.7709
 1114SOL    HW212121   2.312   9.966   1.304  0.8823  0.8273  0.1507
 1115SOL     OW12122  10.464   7.284   2.061 -1.2074  0.8093  0.4645
 1115SOL    HW112123  10.478   7.356   2.001  1.0443 -0.8680 -1.1669
 1115SOL    HW212124  10.549   7.268   2.101 -1.7058 -0.7770  0.9858
 1116SOL     OW12125   2.432   4.434   0.844  0.0038  0.2270  0.2550
 1116SOL    HW112126   2.391   4.410   0.760  1.0943 -0.4440 -0.1126
 1116SOL    HW212127   2.468   4.521   0.828 -0.2424  0.3192  0.1960
 1117SOL     OW12128   5.846   9.910   7.818  0.0878  0.2494 -0.2043
 1117SOL    HW112129   5.861  10.000   7.789 -0.7781  0.6232  0.4572
 1117SOL    HW212130   5.934   9.872   7.826  0.4474  0.9636 -0.7147
 1118SOL     OW12131   5.469   2.021   9.430 -0.0493  0.0940 -0.2074
 1118SOL    HW112132   5.456   1.927   9.414  0.1911 -0.1770  1.0426
 1118SOL    HW212133   5.540   2.024   9.495 -0.6566  1.0989  0.4344
 1119SOL     OW12134   2.651   1.714   7.982  0.2766  1.0311 -0.2517
 1119SOL    HW112135   2.564   1.696   8.017 -0.0042  0.5534 -1.1611
 1119SOL    HW212136   2.636   1.738   7.890  1.1159  0.5773 -0.5236
 1120SOL     OW12137   3.370   1.855  11.755  0.0656 -0.1929  0.2378
 1120SOL    HW112138   3.419   1.783  11.794  0.7368  0.0651 -0.1068
 1120SOL    HW212139   3.315   1.814  11.688  0.5718 -0.3728 -0.0733
 1121SOL     OW12140   6.592   7.512   5.207 -0.5133 -0.9046  0.1813
 1121SOL    HW112141   6.659   7.581   5.213  0.1632 -1.5928  0.7058
 1121SOL    HW212142   6.575   7.504   5.113  0.9069 -1.4227 -0.0565
 1122SOL     OW12143  10.974   3.835  10.543  0.9710  0.2887 -0.0764
 1122SOL    HW112144  10.960   3.882  10.461 -0.5120 -1.0279 -0.6107
 1122SOL    HW212145  10.993   3.904  10.607 -2.0410  1.7808 -0.6268
 1123SOL     OW12146   5.296  12.531   7.055 -0.2249 -0.5943  0.1307
 1123SOL    HW112147   5.202  12.514   7.055 -0.4309  0.4469 -0.8338
 1123SOL    HW212148   5.306  12.612   7.105 -0.0869  0.3850 -1.4209
 1124SOL     OW12149   6.397   2.780   5.721  0.2446 -0.2353 -0.1995
 1124SOL    HW112150   6.375   2.688   5.709  0.3925 -0.3808  0.6071
 1124SOL    HW212151   6.421   2.787   5.813  1.3944  0.3652 -0.5242
 1125SOL     OW12152   2.077   3.907   1.639  0.1018  0.5716 -0.6304
 1125SOL    HW112153   2.082   3.925   1.733  2.0203  1.4412 -0.8629
 1125SOL    HW212154   2.083   3.993   1.597 -0.6651  0.1875 -1.5749
 1126SOL     OW12155  11.255  12.612  12.531  0.6364  0.0366  0.6480
 1126SOL    HW112156  11.297  12.639  12.613  1.3980  2.1294 -0.3438
 1126SOL    HW212157  11.328  12.586  12.474  0.1777 -0.6907  0.3768
 1127SOL     OW12158   6.420   6.141  12.034  0.3943  0.1941  0.0147
 1127SOL    HW112159   6.505   6.158  12.075  0.4743 -1.4953  0.6500
 1127SOL    HW212160   6.379   6.227  12.026  1.6496  0.9013  0.8534
 1128SOL     OW12161   7.969   7.139   4.935  0.2570 -0.5417 -0.0592
 1128SOL    HW112162   8.059   7.114   4.916  0.5964  0.7356 -0.2191
 1128SOL    HW212163   7.943   7.194   4.860 -0.4423 -0.3874  0.2849
 1129SOL     OW12164   5.287   0.037   7.844  0.3575  0.9022 -0.0108
 1129SOL    HW112165   5.348   0.000   7.780  1.0624  2.4729 -0.2876
 1129SOL    HW212166   5.201   0.006   7.816  0.7978  0.5127 -0.9636
 1130SOL     OW12167   8.090   9.975   1.837  0.1219 -0.1437 -0.0157
 1130SOL    HW112168   8.133   9.998   1.919  1.0333 -1.5166 -0.0724
 1130SOL    HW212169   8.001   9.948   1.863 -0.2464  1.2816  0.2724
 1131SOL     OW12170  11.556   7.008   9.062  0.0067 -0.4189  0.0531
 1131SOL    HW112171  11.616   7.063   9.112  2.0562  0.2847 -2.9097
 1131SOL    HW212172  11.478   7.063   9.051  0.2163  0.0888  0.9729
 1132SOL     OW12173   7.525   3.714   8.170  0.1512  0.4618 -0.1114
 1132SOL    HW112174   7.604   3.767   8.181 -0.0177  0.9444 -1.0901
 1132SOL    HW212175   7.466   3.768   8.117 -0.1311 -0.5748 -0.9026
 1133SOL     OW12176   0.364   7.673   0.243 -0.4556  0.4977  0.0936
 1133SOL    HW112177   0.396   7.728   0.315  0.0780 -0.0723  0.3076
 1133SOL    HW212178   0.444   7.649   0.196 -0.3729 -1.9737  1.3555
 1134SOL     OW12179   7.627   4.496   4.259  0.2119  0.0217 -0.0958
 1134SOL    HW112180   7.605   4.527   4.171 -0.4055  0.9866  0.3772
 1134SOL    HW212181   7.722   4.508   4.266  0.0547  1.3876 -0.1021
 1135SOL     OW12182  11.146   7.396   6.738 -0.0982 -0.0253  1.1532
 1135SOL    HW112183  11.120   7.480   6.699 -2.0836 -1.5480 -1.0603
 1135SOL    HW212184  11.064   7.347   6.746  0.9398 -1.5858  2.9594
 1136SOL     OW12185   1.216   8.613  12.215  0.1486  0.3285 -0.2585
 1136SOL    HW112186   1.300   8.642  12.250  0.1146 -1.2956  1.2810
 1136SOL    HW212187   1.163   8.592  12.292 -1.4232  0.5749 -1.2100
 1137SOL     OW12188   6.596   1.661   9.852 -0.0355 -0.3807 -0.0655
 1137SOL    HW112189   6.641   1.741   9.882  0.2647 -0.5304 -0.1110
 1137SOL    HW212190   6.625   1.593   9.912 -0.4642 -0.4148  0.1061
 1138SOL     OW12191   3.547  10.123  10.862  0.0987 -0.2841  0.0928
 1138SOL    HW112192   3.593  10.192  10.814 -1.1995  0.9358  0.4960
 1138SOL    HW212193   3.613  10.086  10.920  0.6852  1.1736  0.4125
 1139SOL     OW12194   8.903   2.088  11.930 -0.5965  0.4099 -0.3410
 1139SOL    HW112195   8.850   2.094  11.851 -2.1145 -3.1938  0.1909
 1139SOL    HW212196   8.935   1.997  11.930 -0.3473  0.3921  2.9706
 1140SOL     OW12197   1.204  12.131   7.782  0.3067 -0.2186 -0.1729
 1140SOL    HW112198   1.214  12.218   7.743  2.4320  0.2047  1.1800
 1140SOL    HW212199   1.272  12.078   7.741  1.3106 -0.2768  1.4879
 1141SOL     OW12200   4.207   1.172   1.700 -0.6710 -0.5422  0.0891
 1141SOL    HW112201   4.205   1.112   1.626  0.2963 -0.9316  0.3609
 1141SOL    HW212202   4.169   1.122   1.772 -0.2027 -0.7041  0.2258
 1142SOL     OW12203   1.715   2.294   0.640  0.0897  0.1091 -0.2510
 1142SOL    HW112204   1.807   2.310   0.663  0.3766  0.6747 -1.6296
 1142SOL    HW212205   1.670   2.375   0.666  0.1107  0.0971 -0.1770
 1143SOL     OW12206   9.324   7.379  11.486 -0.0013  0.3427 -0.4964
 1143SOL    HW112207   9.406   7.400  11.531  0.2062 -0.5147 -0.4426
 1143SOL    HW212208   9.310   7.286  11.505 -0.8634  0.4192 -0.7042
 1144SOL     OW12209   1.510   0.746   1.104  0.4562 -0.3043  0.3937
 1144SOL    HW112210   1.473   0.683   1.041 -1.4901 -1.9448  2.9396
 1144SOL    HW212211   1.434   0.776   1.154  1.8851  1.0819  1.8331
 1145SOL     OW12212   6.858  10.121   1.476  0.1553  0.3870  0.1215
 1145SOL    HW112213   6.786  10.074   1.519 -0.8544 -0.2048 -2.0620
 1145SOL    HW212214   6.914  10.151   1.547 -2.1330  0.6590  1.9020
 1146SOL     OW12215   3.710  10.809   5.042  0.7674 -0.4472  0.7368
 1146SOL    HW112216   3.721  10.899   5.072 -1.4339 -0.7420  2.7262
 1146SOL    HW212217   3.755  10.755   5.107  1.3251 -0.8643  0.0301
 1147SOL     OW12218   4.999   7.265   7.385 -0.1087  0.0475  0.0765
 1147SOL    HW112219   4.938   7.219   7.327 -0.2256  0.6027 -0.2444
 1147SOL    HW212220   4.949   7.281   7.465 -0.4883  0.7689 -0.2970
 1148SOL     OW12221   5.391   1.054   3.328  0.1409 -0.2810 -0.3542
 1148SOL    HW112222   5.361   1.050   3.237 -3.3327  1.1912  0.5664
 1148SOL    HW212223   5.435   1.139   3.334 -0.8697  0.2615 -0.3809
 1149SOL     OW12224   6.256   6.850   4.100 -0.0639 -0.1073 -0.2885
 1149SOL    HW112225   6.247   6.832   4.193 -1.4356 -2.7148 -0.8321
 1149SOL    HW212226   6.334   6.802   4.073 -0.4846 -0.5795 -0.7094
 1150SOL     OW12227   4.854   6.873   3.622  0.2141 -0.3176  0.3177
 1150SOL    HW112228   4.862   6.779   3.637 -0.6391 -0.8606 -2.0986
 1150SOL    HW212229   4.800   6.906   3.694  1.7316 -1.3645  2.0097
 1151SOL     OW12230   5.258   2.669   3.409  1.1745  0.0532 -0.6425
 1151SOL    HW112231   5.257   2.603   3.479 -0.6755  2.3872  1.7181
 1151SOL    HW212232   5.189   2.642   3.349 -0.2237  0.2779  0.8134
 1152SOL     OW12233   9.882  11.896   1.444 -0.3538 -0.2837  0.0425
 1152SOL    HW112234   9.851  11.873   1.356 -1.5089 -0.1017  0.3891
 1152SOL    HW212235   9.970  11.857   1.449  0.5014  1.2236 -1.8344
 1153SOL     OW12236   0.984  11.271   5.352 -0.0426  0.1233 -0.6848
 1153SOL    HW112237   0.922  11.278   5.280 -1.5612  0.7581  0.6049
 1153SOL    HW212238   0.948  11.329   5.420  0.9311 -0.9717  0.8375
 1154SOL     OW12239   5.628   2.390   4.417 -0.3328 -0.0984 -1.0140
 1154SOL    HW112240   5.571   2.313   4.423 -0.9332  0.2147 -2.2613
 1154SOL    HW212241   5.604   2.444   4.492  2.1921 -2.4033  1.7030
 1155SOL     OW12242   4.532  11.297   1.748 -0.1630  0.5118 -0.1566
 1155SOL    HW112243   4.484  11.234   1.694  0.0012  0.9010 -0.7675
 1155SOL    HW212244   4.488  11.381   1.731 -0.9969  0.4162  1.3897
 1156SOL     OW12245   5.929  12.295  10.996 -0.2523 -0.2580 -0.0735
 1156SOL    HW112246   5.847  12.307  11.043 -0.0489 -1.9898  0.7757
 1156SOL    HW212247   5.908  12.319  10.905 -1.4197  0.2628  0.3167
 1157SOL     OW12248   0.071   4.272   6.264 -0.3085  0.3133  0.3465
 1157SOL    HW112249   0.025   4.189   6.252 -0.2402  0.5989 -2.7355
 1157SOL    HW212250   0.164   4.249   6.252 -0.2837  0.8003 -0.4457
 1158SOL     OW12251   8.194   5.733   6.316 -0.4521 -0.0779  0.4791
 1158SOL    HW112252   8.287   5.712   6.330  0.0323  0.7298 -1.2951
 1158SOL    HW212253   8.181   5.815   6.363  0.0571  0.4278 -0.2432
 1159SOL     OW12254   4.667   1.227   1.917  0.3503  0.0841 -0.1461
 1159SOL    HW112255   4.667   1.268   1.831 -0.2665  2.1613  0.7713
 1159SOL    HW212256   4.594   1.268   1.963  0.4231 -1.2606  1.2491
 1160SOL     OW12257  12.277  10.236   1.183  0.3893  0.4572 -0.1006
 1160SOL    HW112258  12.351  10.293   1.206  1.8967 -0.7649 -1.6339
 1160SOL    HW212259  12.244  10.272   1.101  0.9113 -0.4121 -0.7162
 1161SOL     OW12260   0.586   4.393   5.497  0.0503 -0.3728  0.5776
 1161SOL    HW112261   0.605   4.474   5.450  1.5028 -0.4998  0.8742
 1161SOL    HW212262   0.662   4.337   5.480  0.8238 -0.3056  3.2357
 1162SOL     OW12263   7.691  10.347   0.408 -0.1724 -0.0904 -0.4177
 1162SOL    HW112264   7.766  10.397   0.375  1.4305 -1.6322  0.7175
 1162SOL    HW212265   7.682  10.376   0.499 -1.5239  0.6850 -0.7737
 1163SOL     OW12266   5.830   8.209   3.623  0.1225  0.3920  0.5346
 1163SOL    HW112267   5.752   8.262   3.640 -0.7274 -0.6593  0.0269
 1163SOL    HW212268   5.885   8.222   3.700 -0.9663  0.4364  1.3216
 1164SOL     OW12269   8.912   4.247   5.748  0.1148  0.3863 -0.2034
 1164SOL    HW112270   8.913   4.157   5.715  1.8951  0.5006 -0.5615
 1164SOL    HW212271   8.854   4.244   5.824 -0.2590 -0.9344 -0.5118
 1165SOL     OW12272   0.962   9.582   5.585  0.1711 -0.3939  0.3213
 1165SOL    HW112273   1.052   9.614   5.577 -0.5861  1.5337 -1.3008
 1165SOL    HW212274   0.932   9.572   5.495 -1.7790  0.6426  0.8119
 1166SOL     OW12275   7.816   1.415   4.424 -0.8683 -0.3516 -0.0955
 1166SOL    HW112276   7.761   1.368   4.362 -2.0910  1.2404 -0.3021
 1166SOL    HW212277   7.762   1.424   4.503  0.3595 -1.6282  0.9255
 1167SOL     OW12278   4.532   6.569   7.507  0.0693  0.2973  0.0869
 1167SOL    HW112279   4.542   6.650   7.458  0.2813  1.5401  2.0446
 1167SOL    HW212280   4.615   6.523   7.495  0.4750  1.0253  0.0536
 1168SOL     OW12281   8.957   3.214   8.329 -0.0482 -0.4648  0.2688
 1168SOL    HW112282   9.000   3.150   8.386 -0.0364 -0.2360  0.5162
 1168SOL    HW212283   9.008   3.211   8.248 -0.7520 -1.6253 -0.1598
 1169SOL     OW12284  10.158   5.642  10.786  0.3212 -0.5063 -0.6826
 1169SOL    HW112285  10.131   5.577  10.722 -0.7977 -1.0106  0.2772
 1169SOL    HW212286  10.236   5.605  10.827 -0.7830 -1.6908  0.4526
 1170SOL     OW12287   1.354  10.941  10.824 -0.2003  0.1699  0.1168
 1170SOL    HW112288   1.428  10.881  10.830  0.4249  0.6995 -1.6299
 1170SOL    HW212289   1.282  10.896  10.869  0.5702 -1.3370 -0.1094
 1171SOL     OW12290   2.330   4.615   3.716  0.2521  0.5621  0.4740
 1171SOL    HW112291   2.413   4.569   3.726 -0.6637 -0.8507  2.3289
 1171SOL    HW212292   2.266   4.545   3.698 -0.8428  1.3222  1.2396
 1172SOL     OW12293   1.633  10.684   6.138 -0.3856 -0.6309  0.1393
 1172SOL    HW112294   1.569  10.721   6.200 -0.7252 -1.2970  0.1893
 1172SOL    HW212295   1.595  10.600   6.112 -0.0708 -0.5164 -0.7022
 1173SOL     OW12296   3.472   8.164   0.231 -0.6030  0.0919  0.3866
 1173SOL    HW112297   3.389   8.201   0.201  0.2723  1.7055 -0.1817
 1173SOL    HW212298   3.468   8.170   0.327 -1.8935 -1.6378  0.4846
 1174SOL     OW12299  10.475   8.081   4.067  0.0335  0.2340 -0.3801
 1174SOL    HW112300  10.404   8.146   4.074 -0.3400 -0.0941 -1.0148
 1174SOL    HW212301  10.440   8.014   4.008 -0.1603 -1.3217  1.4041
 1175SOL     OW12302   5.284   1.195   7.553  0.1208  0.8465  0.4163
 1175SOL    HW112303   5.283   1.219   7.461 -1.0410  0.3623  0.2930
 1175SOL    HW212304   5.377   1.197   7.577  0.5165  0.2564 -0.9509
 1176SOL     OW12305   9.877   5.211   4.775  0.1474 -0.2798  0.2080
 1176SOL    HW112306   9.877   5.231   4.869  1.1181  1.6727 -0.1356
 1176SOL    HW212307   9.838   5.289   4.734 -1.0083 -1.4342 -0.9852
 1177SOL     OW12308   6.715   4.923   9.979 -0.5180  0.3870 -0.1820
 1177SOL    HW112309   6.743   4.844   9.933 -0.3342  0.9373 -1.0295
 1177SOL    HW212310   6.627   4.903  10.010 -1.0964  0.3931 -1.7447
 1178SOL     OW12311  10.359   1.563  10.757  0.0199 -0.6849 -0.4546
 1178SOL    HW112312  10.439   1.588  10.711  0.2514 -1.3834 -0.4341
 1178SOL    HW212313  10.384   1.488  10.810 -0.2409  0.0818  0.8074
 1179SOL     OW12314  12.012   0.813   7.112 -0.6590 -0.0609 -0.2239
 1179SOL    HW112315  12.078   0.753   7.077 -0.2848 -0.2681  0.7936
 1179SOL    HW212316  11.952   0.757   7.161 -0.5612  0.3502  0.3683
 1180SOL     OW12317   3.178  12.094   8.516 -0.0016 -0.0595  0.4582
 1180SOL    HW112318   3.145  12.138   8.438 -0.8406 -0.5165  0.5374
 1180SOL    HW212319   3.112  12.112   8.583 -0.3249 -1.3175  0.5177
 1181SOL     OW12320  10.731   3.429  11.187 -0.1408 -0.4770 -0.4666
 1181SOL    HW112321  10.741   3.446  11.093  1.7460 -3.4269 -0.9403
 1181SOL    HW212322  10.819   3.440  11.223 -1.1929  2.9149  1.5777
 1182SOL     OW12323   2.803  11.816   2.271  0.2995 -0.0503 -1.2199
 1182SOL    HW112324   2.851  11.811   2.353  0.3987  1.0732 -1.1962
 1182SOL    HW212325   2.727  11.759   2.285 -0.5357  1.3502  0.2554
 1183SOL     OW12326  10.698   1.808   5.580 -0.2434 -0.2819  0.1984
 1183SOL    HW112327  10.668   1.778   5.665 -0.6347  0.5509  0.3544
 1183SOL    HW212328  10.761   1.877   5.599 -1.0223  0.5562 -0.1881
 1184SOL     OW12329   5.003   3.241   5.607  0.0732  0.1223 -0.0602
 1184SOL    HW112330   5.088   3.239   5.652 -0.4471  1.4268  1.0252
 1184SOL    HW212331   5.003   3.161   5.554  2.5285  0.7549 -1.1403
 1185SOL     OW12332   9.764   0.098   8.262  0.0416  0.2350 -0.5267
 1185SOL    HW112333   9.770   0.092   8.358 -1.1941 -0.2623 -0.4527
 1185SOL    HW212334   9.762   0.192   8.244 -1.1061  0.3445  0.0670
 1186SOL     OW12335   7.252   7.782   3.268  0.1605 -0.2434 -0.9625
 1186SOL    HW112336   7.210   7.701   3.296  0.8962 -0.7991 -1.4472
 1186SOL    HW212337   7.318   7.800   3.334 -0.4788  0.3642 -0.4685
 1187SOL     OW12338   1.905   8.007   9.945  0.3306 -0.3799 -0.6814
 1187SOL    HW112339   1.821   8.049   9.925  0.0408 -0.3553  0.4915
 1187SOL    HW212340   1.962   8.030   9.872 -0.5890 -0.1175 -1.3344
 1188SOL     OW12341   9.303   6.035  12.188  0.0720 -0.9045  0.5837
 1188SOL    HW112342   9.256   5.952  12.179  1.8168 -1.7075 -1.9881
 1188SOL    HW212343   9.277   6.086  12.111  2.0879 -0.7102 -0.0046
 1189SOL     OW12344   8.998   5.144   4.055  0.0715  0.2231 -0.2134
 1189SOL    HW112345   9.025   5.233   4.080 -1.1986  0.4169  0.5449
 1189SOL    HW212346   9.080   5.094   4.053  0.4727  0.6508  2.5110
 1190SOL     OW12347  10.572  10.794  11.779  0.0492 -0.1888 -0.1237
 1190SOL    HW112348  10.509  10.726  11.800 -0.0441 -0.3562 -0.9273
 1190SOL    HW212349  10.554  10.864  11.841 -1.6741  0.2339 -1.0518
 1191SOL     OW12350   0.679   6.899   3.025 -0.5359  0.1336  0.5446
 1191SOL    HW112351   0.723   6.818   3.000  0.8142  0.9566  0.1160
 1191SOL    HW212352   0.587   6.875   3.035 -0.1400 -1.4702  0.5764
 1192SOL     OW12353   3.909   1.047   1.818 -0.2962  0.0858  0.1051
 1192SOL    HW112354   3.984   0.999   1.851 -1.6645 -1.1411  1.6149
 1192SOL    HW212355   3.882   1.103   1.890  0.3420  2.0628 -1.1206
 1193SOL     OW12356   0.404   7.444   1.394  0.3714 -0.0572  0.1370
 1193SOL    HW112357   0.400   7.408   1.305  1.9028 -0.4871  0.2126
 1193SOL    HW212358   0.353   7.384   1.447 -1.7269  0.9431 -0.6512
 1194SOL     OW12359   2.923  11.958   6.970  0.3306  0.3120  0.6453
 1194SOL    HW112360   2.890  12.037   7.013 -0.2462  1.3152 -1.4877
 1194SOL    HW212361   3.018  11.966   6.975  0.3025 -0.1057  2.5363
 1195SOL     OW12362   5.275   3.908   7.758 -0.0001  0.5945  0.4752
 1195SOL    HW112363   5.183   3.931   7.765 -0.0024  0.7520 -0.0199
 1195SOL    HW212364   5.315   3.940   7.839 -0.5466 -0.3152  1.1277
 1196SOL     OW12365   6.798   4.222  10.964 -0.0240 -0.7848 -0.5950
 1196SOL    HW112366   6.746   4.302  10.968  0.9848 -0.1132 -0.5638
 1196SOL    HW212367   6.762   4.167  11.033 -1.4732 -0.8385 -1.3555
 1197SOL     OW12368   0.029  11.772   7.846 -0.5084  0.4518  0.2266
 1197SOL    HW112369  -0.052  11.798   7.889 -0.8605 -0.2898  0.0298
 1197SOL    HW212370   0.097  11.790   7.910 -0.9794 -0.2292  0.9268
 1198SOL     OW12371   1.367  11.492   7.085  0.0856 -0.3919 -0.0572
 1198SOL    HW112372   1.288  11.517   7.132 -0.2670 -1.0620 -0.2858
 1198SOL    HW212373   1.394  11.409   7.125  0.3694 -0.4395 -0.3373
 1199SOL     OW12374   2.445   8.211   6.492  0.4879 -0.3984  0.1922
 1199SOL    HW112375   2.488   8.173   6.568  2.3041  0.3296 -0.4164
 1199SOL    HW212376   2.491   8.174   6.417  1.2512  1.6971 -0.4520
 1200SOL     OW12377  12.105   0.004   6.110  0.1045 -0.1884  0.3611
 1200SOL    HW112378  12.127  -0.048   6.187 -1.8289  1.5584  2.2201
 1200SOL    HW212379  12.010  -0.005   6.102  0.2409 -0.3283 -1.9017
 1201SOL     OW12380   0.416   0.901   5.918  0.0760  0.3055  0.0435
 1201SOL    HW112381   0.445   0.905   5.827 -0.3959 -1.5155 -0.2261
 1201SOL    HW212382   0.334   0.950   5.919 -0.6293 -0.7971 -0.8507
 1202SOL     OW12383   6.063  11.584   2.700  0.2450 -0.3890 -0.1008
 1202SOL    HW112384   6.116  11.622   2.630  2.3024  0.9751  2.0503
 1202SOL    HW212385   6.016  11.658   2.738 -0.5570 -1.0483  0.2354
 1203SOL     OW12386   6.974   8.626   1.555 -0.0085  0.1061 -0.0747
 1203SOL    HW112387   6.925   8.582   1.624  0.8051  1.4558  1.4399
 1203SOL    HW212388   6.970   8.566   1.480 -1.1509 -1.2776  1.0394
 1204SOL     OW12389   7.996  10.759   8.773  0.9954 -0.7106  0.4061
 1204SOL    HW112390   8.005  10.848   8.740 -2.3026 -0.4981 -0.3145
 1204SOL    HW212391   7.971  10.769   8.865  1.0494 -0.9016  0.4425
 1205SOL     OW12392   9.938  11.376   5.709  0.8624  0.4903 -0.2383
 1205SOL    HW112393   9.860  11.408   5.663  1.9709  1.0682 -1.8186
 1205SOL    HW212394   9.961  11.447   5.769 -1.4015 -0.8233  2.4276
 1206SOL     OW12395  11.902   9.748  11.948 -0.1556 -0.3806 -0.0578
 1206SOL    HW112396  11.964   9.685  11.912  1.2835  0.3918  0.9763
 1206SOL    HW212397  11.922   9.830  11.903 -0.1111 -0.0311  0.5765
 1207SOL     OW12398   9.611   2.191   5.911 -0.4459 -0.1923 -0.5699
 1207SOL    HW112399   9.525   2.149   5.902 -0.9392  0.7528 -0.3965
 1207SOL    HW212400   9.618   2.211   6.005 -0.5379  0.7369 -0.7504
 1208SOL     OW12401   8.738   4.367  11.354  0.1488  0.4466 -0.6989
 1208SOL    HW112402   8.732   4.454  11.394  0.5241 -0.4743  1.4787
 1208SOL    HW212403   8.647   4.341  11.338  0.0309  1.1614 -1.2435
 1209SOL     OW12404   7.815   6.129  10.102  0.5434  0.4617  0.4406
 1209SOL    HW112405   7.889   6.120  10.161  0.2167  1.8573  1.1172
 1209SOL    HW212406   7.753   6.062  10.131  0.9205  0.2844  0.8509
 1210SOL     OW12407   5.971  12.131   8.649  0.2878 -0.0502  0.1152
 1210SOL    HW112408   5.944  12.066   8.715 -1.3790  0.2269 -0.2572
 1210SOL    HW212409   5.951  12.215   8.689 -1.3109  0.1106 -0.9382
 1211SOL     OW12410   8.795  10.924  11.814 -0.1780  0.3952  0.5229
 1211SOL    HW112411   8.749  10.924  11.898  0.4076  0.4862  0.8504
 1211SOL    HW212412   8.857  10.996  11.821 -0.7482  0.9904 -0.3430
 1212SOL     OW12413   3.941  10.032  12.286 -0.2852 -0.2314 -0.5241
 1212SOL    HW112414   3.927   9.964  12.353  1.0301 -0.2528 -0.2399
 1212SOL    HW212415   4.017  10.081  12.318 -2.0107  2.2879 -0.0137
 1213SOL     OW12416   4.858   8.527  12.271  0.0223  0.2177  0.0532
 1213SOL    HW112417   4.803   8.584  12.216 -0.3969  0.6518  0.9022
 1213SOL    HW212418   4.878   8.580  12.348  2.5050  0.4249 -0.6733
 1214SOL     OW12419   9.995   6.177   0.344  0.1808  0.1774 -0.0831
 1214SOL    HW112420  10.057   6.248   0.327  1.7569 -1.3094 -0.8855
 1214SOL    HW212421   9.968   6.148   0.257 -1.6127  0.7239  0.2608
 1215SOL     OW12422   1.133   3.220   2.566 -0.0260 -0.0002  0.2263
 1215SOL    HW112423   1.174   3.170   2.637 -1.8584  0.1666  1.4732
 1215SOL    HW212424   1.204   3.234   2.503  2.2710  1.6161  2.9229
 1216SOL     OW12425   2.304   0.465  12.216 -0.1636 -0.1737  0.5592
 1216SOL    HW112426   2.310   0.376  12.181  1.9898 -0.3151  1.1495
 1216SOL    HW212427   2.222   0.465  12.265 -1.8812 -0.7926 -2.0737
 1217SOL     OW12428  11.222   0.663   8.193 -0.0637 -0.0012  0.1363
 1217SOL    HW112429  11.276   0.600   8.144  0.1961  0.1008  0.2875
 1217SOL    HW212430  11.275   0.684   8.270 -0.5241 -0.2564  0.5224
 1218SOL     OW12431   9.196   1.427   6.939  0.2615  0.1009 -0.0330
 1218SOL    HW112432   9.229   1.360   6.879 -0.3694  0.0475 -0.3277
 1218SOL    HW212433   9.129   1.473   6.889 -0.5365 -0.1803  0.7575
 1219SOL     OW12434   2.009   1.977   3.081  0.0972  0.2825 -1.0159
 1219SOL    HW112435   1.962   2.049   3.122  1.4100  0.3275  0.4872
 1219SOL    HW212436   2.092   2.015   3.051 -0.4095  0.0246 -2.8909
 1220SOL     OW12437  10.819   4.728   5.954  0.2683  0.7362  0.3050
 1220SOL    HW112438  10.775   4.813   5.957 -0.4082  0.6769 -3.0988
 1220SOL    HW212439  10.912   4.750   5.948  0.0618  1.3295 -1.1798
 1221SOL     OW12440   2.427   2.627   4.917 -0.5056 -0.0030 -0.4472
 1221SOL    HW112441   2.368   2.628   4.842 -0.7151  1.3337 -0.2778
 1221SOL    HW212442   2.382   2.678   4.985  0.9985  1.4273 -0.4629
 1222SOL     OW12443  10.465   9.987  12.045 -0.4504  0.3334 -0.1759
 1222SOL    HW112444  10.448  10.077  12.020 -2.4870  0.3296  1.0507
 1222SOL    HW212445  10.402   9.935  11.996 -0.3270 -0.2767  0.2875
 1223SOL     OW12446   1.949   9.565   5.653 -0.4490 -0.0086  0.0360
 1223SOL    HW112447   2.028   9.514   5.639 -0.9492 -0.7531 -0.1303
 1223SOL    HW212448   1.958   9.601   5.741  1.1172  1.8292 -0.7854
 1224SOL     OW12449  12.221   2.375   6.183 -0.2715 -0.0683  0.1630
 1224SOL    HW112450  12.145   2.342   6.134 -0.5027 -0.2114  0.6141
 1224SOL    HW212451  12.199   2.465   6.204 -0.4394 -0.1948  0.5361
 1225SOL     OW12452   5.572   1.231  10.949  0.3911 -0.2840 -0.4053
 1225SOL    HW112453   5.582   1.136  10.944 -1.3881 -0.4836 -0.9704
 1225SOL    HW212454   5.636   1.259  11.014  1.3237 -1.7974 -0.6265
 1226SOL     OW12455   6.232   6.986   1.340  0.8143  0.0225 -0.3403
 1226SOL    HW112456   6.172   6.912   1.346  0.6599  0.2176  0.6575
 1226SOL    HW212457   6.180   7.062   1.364  1.2028  0.3377 -0.4804
 1227SOL     OW12458   1.995   5.741   8.556 -0.0255 -0.3020  0.1509
 1227SOL    HW112459   2.062   5.769   8.494  0.7498  1.1366  1.5645
 1227SOL    HW212460   2.040   5.681   8.614 -0.0200  0.4205  0.9096
 1228SOL     OW12461   4.443   7.819   8.654  0.1467  0.1196 -0.0542
 1228SOL    HW112462   4.477   7.900   8.617  0.4631  0.0328  0.0452
 1228SOL    HW212463   4.473   7.819   8.745 -0.8228  0.4438  0.2854
 1229SOL     OW12464   5.970   2.982   1.468  0.2504 -0.2838  0.3341
 1229SOL    HW112465   5.970   2.971   1.563 -1.3046  1.7755  0.6321
 1229SOL    HW212466   5.928   3.067   1.453 -0.7622 -1.1226 -2.2455
 1230SOL     OW12467   3.085   7.205   8.848  0.1439  0.0119  0.6484
 1230SOL    HW112468   3.062   7.114   8.832  0.6846 -0.1595  0.8140
 1230SOL    HW212469   3.095   7.243   8.761  2.2844 -0.7113  0.5133
 1231SOL     OW12470   7.854   0.772   1.023 -0.1744 -0.3697  0.2904
 1231SOL    HW112471   7.846   0.695   1.079 -0.7678 -0.4983  0.0353
 1231SOL    HW212472   7.898   0.837   1.077 -2.5403  0.2229  1.6367
 1232SOL     OW12473   7.179   3.948  11.941 -0.1376  0.1030  0.3728
 1232SOL    HW112474   7.160   4.037  11.970  1.4997  0.4632  0.4392
 1232SOL    HW212475   7.114   3.894  11.985 -1.6354  1.3402 -0.2571
 1233SOL     OW12476  10.728   4.241   7.851 -0.3703  0.2659  0.1972
 1233SOL    HW112477  10.669   4.225   7.778 -0.0681 -0.3233  0.0752
 1233SOL    HW212478  10.746   4.335   7.848  0.2968  0.1178 -1.0095
 1234SOL     OW12479   2.913   2.268   4.506  0.4936  0.2290 -0.1041
 1234SOL    HW112480   2.856   2.191   4.509  0.7115  0.0769  0.3439
 1234SOL    HW212481   2.864   2.336   4.551 -0.5428  0.9591 -2.2040
 1235SOL     OW12482   2.673  10.375   3.878 -0.2174  1.1645 -0.9444
 1235SOL    HW112483   2.616  10.424   3.819 -2.3215  0.2215  0.1746
 1235SOL    HW212484   2.626  10.375   3.961  1.8176  0.9511  0.2529
 1236SOL     OW12485   3.510  11.535   8.141  0.5839 -0.1948  0.8846
 1236SOL    HW112486   3.432  11.518   8.088  0.3527 -1.1636  1.4931
 1236SOL    HW212487   3.478  11.534   8.231  1.1061  0.6121  1.0873
 1237SOL     OW12488   7.995   0.830   4.114 -0.2745  0.3023  0.0326
 1237SOL    HW112489   7.937   0.905   4.118 -1.8740 -0.5201 -3.3825
 1237SOL    HW212490   8.079   0.866   4.084 -0.6044  0.9242 -0.1637
 1238SOL     OW12491   2.451   3.488   4.242 -0.0794  0.2356 -0.5700
 1238SOL    HW112492   2.389   3.415   4.248  0.8789 -0.6469 -1.1069
 1238SOL    HW212493   2.534   3.447   4.219  0.1733  1.6230 -2.3454
 1239SOL     OW12494   3.318   1.562  10.287 -0.2765 -0.0356 -0.1820
 1239SOL    HW112495   3.272   1.645  10.299 -0.5500 -0.0606 -1.0297
 1239SOL    HW212496   3.385   1.562  10.356  0.2368  1.2267 -0.6513
 1240SOL     OW12497  12.070   1.047   2.062  0.6352  0.5917  0.0955
 1240SOL    HW112498  12.096   0.960   2.031 -0.5056  0.5300 -0.7428
 1240SOL    HW212499  12.032   1.031   2.148  1.4078  0.4184  0.4168
 1241SOL     OW12500   8.733   8.274   0.774  0.5876  0.1896  0.7657
 1241SOL    HW112501   8.641   8.275   0.750  0.5142  1.3164  1.0297
 1241SOL    HW212502   8.733   8.259   0.869  0.7319 -0.8655  0.6109
 1242SOL     OW12503   9.861   5.575  10.571  0.8228  0.5651  0.0516
 1242SOL    HW112504   9.786   5.627  10.601  0.8384  0.2976  0.5644
 1242SOL    HW212505   9.823   5.508  10.515  0.5569 -0.1953  1.1227
 1243SOL     OW12506   1.599   9.060  11.261  0.1885 -0.1383 -0.4289
 1243SOL    HW112507   1.570   9.145  11.226  0.7006 -0.0563 -0.6777
 1243SOL    HW212508   1.583   9.066  11.355  0.2397  0.2482 -0.4408
 1244SOL     OW12509  11.981   5.034  10.719 -0.6004 -0.1597 -0.1568
 1244SOL    HW112510  11.919   5.093  10.762  1.6173  1.6459  0.7617
 1244SOL    HW212511  12.053   5.091  10.690  1.1291 -2.2544 -0.2661
 1245SOL     OW12512   1.255   2.572   6.874 -0.8136  0.8967 -0.0401
 1245SOL    HW112513   1.302   2.639   6.824 -0.8713  0.2533 -0.9779
 1245SOL    HW212514   1.163   2.595   6.865 -0.7853  1.1210  0.2629
 1246SOL     OW12515  11.282   6.722   8.488 -0.2064  0.6804  0.3630
 1246SOL    HW112516  11.370   6.725   8.452 -0.6520  0.1356 -0.8468
 1246SOL    HW212517  11.293   6.736   8.582  1.1576  0.5908  0.2319
 1247SOL     OW12518  10.230   4.908  10.013  0.7833 -0.2593  0.4113
 1247SOL    HW112519  10.199   4.824   9.978 -0.2938 -0.1361  1.0383
 1247SOL    HW212520  10.233   4.894  10.108 -1.1379  0.9411  0.6968
 1248SOL     OW12521   5.324   4.881   7.602  0.2236 -0.0614  0.0890
 1248SOL    HW112522   5.237   4.861   7.568 -0.3516  0.8943  0.9477
 1248SOL    HW212523   5.374   4.911   7.527 -0.3722 -0.0332 -0.2981
 1249SOL     OW12524   2.396   5.381   8.012  0.2903 -0.1195 -0.5790
 1249SOL    HW112525   2.308   5.417   8.024  1.1625  1.7072  0.9251
 1249SOL    HW212526   2.437   5.439   7.948  1.3346  0.9467  0.9854
 1250SOL     OW12527  10.604   4.349   1.590  0.2430 -0.4474  0.2690
 1250SOL    HW112528  10.621   4.280   1.655 -1.9371 -0.5893  0.7468
 1250SOL    HW212529  10.595   4.302   1.508 -3.3078 -1.1111  0.8977
 1251SOL     OW12530   7.023   5.238   6.554  0.4224 -0.2097 -0.5516
 1251SOL    HW112531   6.981   5.283   6.627  1.2110 -0.2390 -0.0741
 1251SOL    HW212532   6.951   5.191   6.511 -0.1179  0.1423 -0.0481
 1252SOL     OW12533  12.596   0.122  11.143  0.2445  0.1736 -0.3778
 1252SOL    HW112534  12.509   0.156  11.120 -0.8427 -3.0729 -1.6534
 1252SOL    HW212535  12.641   0.114  11.059  1.7569  1.5670  0.2485
 1253SOL     OW12536   6.593   8.025   7.362 -0.1475  0.3359  0.0332
 1253SOL    HW112537   6.634   8.111   7.379 -0.1514  0.2483  0.4986
 1253SOL    HW212538   6.521   8.045   7.302 -0.2360  0.6815  0.2472
 1254SOL     OW12539   9.781   2.618   7.963  0.7773  0.5585 -0.3702
 1254SOL    HW112540   9.751   2.680   7.897 -0.6501  0.0211 -0.2575
 1254SOL    HW212541   9.782   2.534   7.918 -1.7038 -0.0866  0.6319
 1255SOL     OW12542   1.441  11.105   2.941  0.2930 -0.2832  0.5148
 1255SOL    HW112543   1.510  11.045   2.968 -0.4998 -0.6199  1.9170
 1255SOL    HW212544   1.361  11.052   2.944  0.0051 -0.0290 -1.5335
 1256SOL     OW12545   0.756  12.393   0.087  0.1739 -0.0669 -0.1898
 1256SOL    HW112546   0.711  12.312   0.112 -1.2260  0.9083  0.5510
 1256SOL    HW212547   0.694  12.437   0.029  0.9792  0.4272 -0.6838
 1257SOL     OW12548   0.716   0.192  10.415 -0.5641  0.0010 -0.0798
 1257SOL    HW112549   0.792   0.197  10.473 -0.3003 -0.2007 -0.4115
 1257SOL    HW212550   0.654   0.136  10.462 -0.4459  0.0295  0.1117
 1258SOL     OW12551   0.340   1.482   6.029  0.1256  0.6716  0.4970
 1258SOL    HW112552   0.376   1.473   5.941 -1.8310 -1.8430 -0.2074
 1258SOL    HW212553   0.265   1.421   6.030  0.7826 -0.3539  4.2683
 1259SOL     OW12554   8.763   5.753   6.873 -0.5267 -0.0919 -0.1235
 1259SOL    HW112555   8.668   5.751   6.882 -0.5112 -1.7413  0.0412
 1259SOL    HW212556   8.778   5.793   6.787 -1.3370  0.5396  0.0147
 1260SOL     OW12557   1.127   0.951   8.389  0.2410 -0.3520 -0.1235
 1260SOL    HW112558   1.215   0.917   8.376  1.0306  1.2690  0.5672
 1260SOL    HW212559   1.140   1.029   8.444 -1.4845  0.6636 -1.0788
 1261SOL     OW12560   4.232  12.024   1.291  0.1654 -0.3316 -0.4412
 1261SOL    HW112561   4.140  12.001   1.300  0.3250 -1.0202 -0.4663
 1261SOL    HW212562   4.234  12.091   1.223 -0.3434 -0.1051 -0.2365
 1262SOL     OW12563   4.688  10.774   6.187  0.6527  0.3792  0.2460
 1262SOL    HW112564   4.703  10.681   6.172  0.2503  0.2489  0.6096
 1262SOL    HW212565   4.639  10.803   6.110 -0.6760 -0.0955  0.8773
 1263SOL     OW12566  11.135   5.596   3.847  0.7866  0.0191 -0.5863
 1263SOL    HW112567  11.219   5.552   3.860  0.4838 -0.7159 -1.0558
 1263SOL    HW212568  11.074   5.550   3.905  1.1297  1.9710  1.4936
 1264SOL     OW12569   0.480   3.962  11.448  0.1833 -0.1501  0.1601
 1264SOL    HW112570   0.532   3.884  11.467  0.4489 -0.1337 -0.4688
 1264SOL    HW212571   0.406   3.957  11.508  0.0908 -0.9995 -0.0110
 1265SOL     OW12572   9.981   3.920   7.825  0.1993 -0.2706 -0.1779
 1265SOL    HW112573   9.892   3.913   7.790 -0.4319 -0.0384  1.3217
 1265SOL    HW212574  10.012   3.830   7.831  0.5780 -0.2978 -1.8707
 1266SOL     OW12575   1.609  11.323  10.313  0.5013 -0.7745 -0.1637
 1266SOL    HW112576   1.649  11.386  10.374 -2.2921  1.5026 -0.4692
 1266SOL    HW212577   1.643  11.349  10.227  1.6441 -1.6546  0.0039
 1267SOL     OW12578   5.848   4.505   1.676 -0.0600  0.4557  0.1705
 1267SOL    HW112579   5.771   4.562   1.678 -1.7908 -1.6213 -1.7013
 1267SOL    HW212580   5.837   4.447   1.752  0.0802  0.6776  0.3593
 1268SOL     OW12581   2.997   6.669   3.113  0.2953  0.4112 -0.2609
 1268SOL    HW112582   2.966   6.583   3.085 -1.4249  0.6441  0.7307
 1268SOL    HW212583   3.006   6.720   3.033  0.6983 -0.4880 -0.7952
 1269SOL     OW12584   2.629   4.083   7.862 -0.1694  0.0546  0.0588
 1269SOL    HW112585   2.554   4.141   7.870 -0.7708 -0.7631  0.5859
 1269SOL    HW212586   2.615   4.016   7.929  0.8239 -0.3400 -0.1042
 1270SOL     OW12587   5.560  10.777   0.549 -0.1311 -0.1076 -0.1712
 1270SOL    HW112588   5.541  10.714   0.479  0.1676 -2.0164  1.3864
 1270SOL    HW212589   5.564  10.862   0.504 -1.2416 -1.0767 -2.2485
 1271SOL     OW12590   9.873   6.979   9.403 -0.4324 -0.1019  0.1230
 1271SOL    HW112591   9.944   6.924   9.436 -0.4627  0.6978  1.6002
 1271SOL    HW212592   9.918   7.050   9.356 -0.4166 -2.0940 -3.1856
 1272SOL     OW12593   5.175  11.524   6.811  0.0490 -0.2551 -0.2535
 1272SOL    HW112594   5.106  11.468   6.776 -1.1308 -0.7923  2.6712
 1272SOL    HW212595   5.217  11.561   6.733 -2.1952 -1.4784 -2.1909
 1273SOL     OW12596   3.994   3.888   9.015 -0.6127  0.1544 -0.1707
 1273SOL    HW112597   4.079   3.919   8.983 -0.2118  0.6101  1.2882
 1273SOL    HW212598   3.995   3.794   8.997 -0.0741  0.2672 -0.7646
 1274SOL     OW12599   7.555   1.499  11.665  0.7833 -0.1385 -0.0155
 1274SOL    HW112600   7.479   1.441  11.670  1.7214 -1.3731  0.1665
 1274SOL    HW212601   7.549   1.553  11.744 -0.8445  1.0154 -0.8499
 1275SOL     OW12602   4.867   4.513   7.004 -0.3886 -0.3799  0.3524
 1275SOL    HW112603   4.881   4.507   7.098 -1.6276 -1.4235  0.4904
 1275SOL    HW212604   4.888   4.426   6.971  1.4139  0.3435 -0.5706
 1276SOL     OW12605   9.459   8.569   0.340 -0.0160 -0.1433  0.1033
 1276SOL    HW112606   9.400   8.644   0.346  1.3228  0.8834  1.1510
 1276SOL    HW212607   9.402   8.494   0.328 -1.4089  1.0335 -1.0139
 1277SOL     OW12608   1.984   7.366  12.133  0.3600  0.6980 -0.0126
 1277SOL    HW112609   1.945   7.298  12.188 -2.4063  2.7077  0.6939
 1277SOL    HW212610   1.931   7.366  12.053  0.3711  1.9246 -0.0373
 1278SOL     OW12611   1.188  10.104   1.644  0.0738 -0.4617 -0.0292
 1278SOL    HW112612   1.119  10.117   1.579  0.0260 -1.2066 -0.1351
 1278SOL    HW212613   1.268  10.092   1.592  0.3278  0.5593  0.0950
 1279SOL     OW12614   2.855   0.049   8.181 -0.1574 -0.5058 -0.2888
 1279SOL    HW112615   2.850   0.144   8.177 -1.3310 -0.5949 -1.3047
 1279SOL    HW212616   2.768   0.021   8.210 -0.2521 -1.3296 -1.2986
 1280SOL     OW12617   5.443  12.141  11.589  0.0760  0.2174  0.1251
 1280SOL    HW112618   5.359  12.186  11.579  0.7803  1.4500 -0.5716
 1280SOL    HW212619   5.502  12.190  11.532  1.5027  0.0006  1.3685
 1281SOL     OW12620   1.700  11.061   8.676 -0.8418 -0.4794 -0.1437
 1281SOL    HW112621   1.629  11.091   8.619 -0.7271  0.5383  0.2180
 1281SOL    HW212622   1.669  11.080   8.765  0.3178  1.0741 -0.0202
 1282SOL     OW12623   4.124   5.922   3.804  0.0786 -0.1490  0.0204
 1282SOL    HW112624   4.055   5.894   3.743  0.3551 -1.6643  0.3713
 1282SOL    HW212625   4.077   5.970   3.872 -0.5310 -0.4666 -0.1693
 1283SOL     OW12626   8.854   5.153   2.722 -0.5484  0.1712 -0.2098
 1283SOL    HW112627   8.897   5.163   2.807 -0.6702 -2.2429  0.2053
 1283SOL    HW212628   8.927   5.139   2.661 -0.4893  1.4260 -0.4528
 1284SOL     OW12629   8.162   9.460   7.808  0.0252 -0.1591  0.2866
 1284SOL    HW112630   8.175   9.514   7.730  0.0072 -0.9584 -0.2838
 1284SOL    HW212631   8.207   9.378   7.788 -0.5150 -0.6050  0.8633
 1285SOL     OW12632   8.521  12.325   4.614  0.7765  0.0009  0.3412
 1285SOL    HW112633   8.601  12.361   4.576  0.0410  0.3775 -0.9039
 1285SOL    HW212634   8.451  12.380   4.580 -0.2059 -1.5151 -0.2135
 1286SOL     OW12635   5.127   5.105   0.536 -0.2025  0.3449 -0.0098
 1286SOL    HW112636   5.167   5.031   0.490  1.2035  1.3018 -0.3982
 1286SOL    HW212637   5.171   5.107   0.621  0.7660  1.4963 -0.4958
 1287SOL     OW12638   6.435   8.161   3.857  0.2737  0.4384  0.2914
 1287SOL    HW112639   6.387   8.220   3.798  1.7261  2.0039  0.6189
 1287SOL    HW212640   6.524   8.196   3.858  1.0016 -1.3619  1.0821
 1288SOL     OW12641   3.247  12.115  10.597 -0.4560 -0.1054 -0.4460
 1288SOL    HW112642   3.235  12.023  10.618  1.9402 -0.4842 -0.5354
 1288SOL    HW212643   3.288  12.153  10.674 -0.4507  0.6674 -0.8106
 1289SOL     OW12644   3.489   9.953   8.652  0.1028  0.0321 -0.0294
 1289SOL    HW112645   3.481  10.048   8.649 -0.2282 -0.0007 -2.5222
 1289SOL    HW212646   3.510   9.933   8.743  2.6032  2.6693  0.1089
 1290SOL     OW12647   9.573  10.486  12.156 -0.4367  0.4635  0.0343
 1290SOL    HW112648   9.530  10.543  12.220 -3.9492 -1.8425  0.0035
 1290SOL    HW212649   9.610  10.416  12.209  0.8636  0.9676 -0.1776
 1291SOL     OW12650  10.059  12.076   5.326 -0.2313 -0.5990 -0.1872
 1291SOL    HW112651  10.143  12.114   5.352  0.5016 -2.4545  0.2398
 1291SOL    HW212652  10.053  11.994   5.374 -2.5487 -0.2796  0.1809
 1292SOL     OW12653   3.657   6.721   4.479 -0.2976  0.1132 -0.5949
 1292SOL    HW112654   3.619   6.807   4.459  1.0607  0.7475 -0.6074
 1292SOL    HW212655   3.737   6.718   4.426  0.4188 -0.5529  0.4944
 1293SOL     OW12656   0.816  11.990   5.149 -0.7804 -0.5445 -0.6851
 1293SOL    HW112657   0.834  12.083   5.137 -3.3688 -0.0034 -1.0919
 1293SOL    HW212658   0.793  11.958   5.062  1.6351 -2.0363 -0.8687
 1294SOL     OW12659   0.763   3.119  10.111  0.4847  0.4942  0.2725
 1294SOL    HW112660   0.721   3.054  10.056  0.7013  1.8103 -1.5195
 1294SOL    HW212661   0.849   3.133  10.071  2.2578 -1.1907  3.1009
 1295SOL     OW12662  11.837   0.068   1.762 -0.1027  0.1120 -0.1874
 1295SOL    HW112663  11.932   0.084   1.761  0.1172 -1.1146 -0.8585
 1295SOL    HW212664  11.807   0.102   1.677 -0.0240 -0.7457 -0.5706
 1296SOL     OW12665   2.490   5.152   3.442  0.7202 -0.2374 -0.0205
 1296SOL    HW112666   2.441   5.217   3.494  1.0651  0.4801 -0.5679
 1296SOL    HW212667   2.471   5.175   3.351 -1.1551 -2.4462 -0.2802
 1297SOL     OW12668   3.614   2.135   7.335  0.8732 -0.6305 -0.0414
 1297SOL    HW112669   3.572   2.071   7.277 -0.5226  0.3380 -0.1433
 1297SOL    HW212670   3.652   2.083   7.406  0.8061 -1.6572 -0.7405
 1298SOL     OW12671   6.762  12.545   4.768 -0.0042  0.3223 -0.4849
 1298SOL    HW112672   6.738  12.521   4.679  0.6887  2.5156 -1.3281
 1298SOL    HW212673   6.684  12.525   4.820  0.1642 -2.6424 -1.1838
 1299SOL     OW12674   1.997   0.429   6.119 -0.5600 -0.2148 -0.1090
 1299SOL    HW112675   2.034   0.512   6.151 -0.9908  0.0413 -0.2738
 1299SOL    HW212676   2.059   0.400   6.053 -0.0678 -0.3540  0.3983
 1300SOL     OW12677   1.642   8.689  10.052 -0.6832 -0.4671 -0.0395
 1300SOL    HW112678   1.672   8.778  10.032  0.1223 -0.5793  0.6238
 1300SOL    HW212679   1.710   8.653  10.109 -3.1428  0.1476  3.6653
 1301SOL     OW12680  10.387   5.130   8.890  0.4087 -0.0202  0.4924
 1301SOL    HW112681  10.454   5.197   8.900  0.6370  0.4100 -2.7806
 1301SOL    HW212682  10.312   5.177   8.852 -0.4884 -1.1317  0.8291
 1302SOL     OW12683   1.643  10.323  11.005  0.0615  0.1027 -0.0607
 1302SOL    HW112684   1.563  10.365  10.973  1.1578  1.3543 -1.3108
 1302SOL    HW212685   1.688  10.391  11.055 -0.0997 -0.8889  1.4769
 1303SOL     OW12686   5.205  11.882   5.978  0.3609 -0.0554  0.0929
 1303SOL    HW112687   5.203  11.858   6.071 -0.2522  1.2300  0.4306
 1303SOL    HW212688   5.116  11.864   5.947  0.6372 -0.7462 -0.3387
 1304SOL     OW12689  11.488   3.283  12.537  0.2727  0.0635  0.0503
 1304SOL    HW112690  11.415   3.246  12.486  1.5955 -1.6076 -0.7431
 1304SOL    HW212691  11.494   3.374  12.508 -2.2255  0.6332  1.0329
 1305SOL     OW12692   5.768  12.139   9.068  0.0017  0.3086  0.1530
 1305SOL    HW112693   5.772  12.174   8.979 -1.6267 -0.2397 -0.1769
 1305SOL    HW212694   5.675  12.143   9.090 -0.0751 -2.4669  0.6325
 1306SOL     OW12695   5.795  10.310   3.630  0.5788 -0.0396  0.1301
 1306SOL    HW112696   5.793  10.235   3.570  0.1778  0.2978 -0.2859
 1306SOL    HW212697   5.708  10.311   3.669  0.2911  0.7205 -0.5102
 1307SOL     OW12698   3.463   8.525   5.902 -0.3942 -0.2162 -0.0142
 1307SOL    HW112699   3.447   8.431   5.907  1.8435 -0.7442 -1.1100
 1307SOL    HW212700   3.397   8.558   5.841 -1.4051 -1.0064  0.6295
 1308SOL     OW12701   3.871   1.776   1.189  0.2770  0.2439  0.4475
 1308SOL    HW112702   3.897   1.686   1.171  0.0508  0.2084  0.2904
 1308SOL    HW212703   3.869   1.818   1.103 -1.7293 -0.1688  0.2534
 1309SOL     OW12704  12.246  12.149  10.773 -0.2994  0.1655  0.0222
 1309SOL    HW112705  12.212  12.141  10.862 -0.2761 -1.8378 -0.1065
 1309SOL    HW212706  12.307  12.223  10.777 -1.3135  0.9709  1.3111
 1310SOL     OW12707   0.175   0.964  10.722 -0.1256 -0.4058  0.0213
 1310SOL    HW112708   0.212   0.958  10.634  0.3259  2.5330 -0.1106
 1310SOL    HW212709   0.084   0.938  10.711  0.2056 -1.1780 -1.0816
 1311SOL     OW12710   6.418  10.266   6.831 -0.2548  0.3409  0.2389
 1311SOL    HW112711   6.390  10.244   6.742  2.3705  0.5054 -0.7174
 1311SOL    HW212712   6.400  10.187   6.882 -2.7567  0.5919 -0.1081
 1312SOL     OW12713   8.315   0.385   0.041 -0.3559 -0.5367  0.3974
 1312SOL    HW112714   8.310   0.342  -0.044  1.0347 -1.2432  0.6382
 1312SOL    HW212715   8.224   0.404   0.065 -0.7502 -0.1616 -1.3119
 1313SOL     OW12716   2.353   7.484   0.299  0.2788  0.0590 -0.6209
 1313SOL    HW112717   2.356   7.468   0.393  1.5950  2.0056 -0.2859
 1313SOL    HW212718   2.375   7.399   0.259  0.3181 -0.6271  0.8112
 1314SOL     OW12719   1.156   4.686   5.659 -0.4009  0.0778 -0.1085
 1314SOL    HW112720   1.115   4.739   5.591 -1.6053 -1.7873 -0.9247
 1314SOL    HW212721   1.249   4.686   5.636 -0.5213  1.0155 -0.6445
 1315SOL     OW12722  11.634   1.883   8.489 -0.5492  0.1844  0.0895
 1315SOL    HW112723  11.551   1.930   8.484 -1.3382 -0.9893  1.3331
 1315SOL    HW212724  11.614   1.795   8.457 -0.1564 -0.5186  1.6579
 1316SOL     OW12725   3.159   1.788   1.499  0.1153 -0.2304  0.2182
 1316SOL    HW112726   3.105   1.711   1.485 -0.4057  0.1459  0.1316
 1316SOL    HW212727   3.177   1.821   1.411 -1.7904  1.1965  0.3132
 1317SOL     OW12728   1.851   9.191  10.187  0.0238  0.3054 -0.1310
 1317SOL    HW112729   1.860   9.267  10.130  0.4163 -0.1850 -0.7421
 1317SOL    HW212730   1.757   9.179  10.196 -0.0646 -0.1934 -1.4914
 1318SOL     OW12731  12.360   6.665   9.065  0.1756 -0.3075  0.0240
 1318SOL    HW112732  12.414   6.618   9.129 -1.4390 -1.3190  0.6868
 1318SOL    HW212733  12.384   6.625   8.981  2.2210  0.9491 -0.0514
 1319SOL     OW12734   5.008  11.478   6.338 -0.2639  0.0775 -0.3112
 1319SOL    HW112735   4.926  11.517   6.368 -0.5873  0.0899 -1.1692
 1319SOL    HW212736   5.076  11.520   6.392 -0.6766  1.2554 -0.6686
 1320SOL     OW12737   7.294   9.664   9.458  0.4683 -0.1359 -0.2146
 1320SOL    HW112738   7.274   9.758   9.466  0.0629 -0.0567 -1.6884
 1320SOL    HW212739   7.211   9.620   9.479  0.5616 -0.1522  0.1272
 1321SOL     OW12740   7.518   5.762   6.939 -0.5004 -0.0869 -0.3653
 1321SOL    HW112741   7.572   5.836   6.968  1.1314 -1.2018 -0.4993
 1321SOL    HW212742   7.428   5.793   6.951  0.1402  1.4161  0.8820
 1322SOL     OW12743   6.020   9.936   9.799  0.5521 -0.3824 -1.2600
 1322SOL    HW112744   6.036  10.014   9.746  0.8308 -0.5172 -1.3756
 1322SOL    HW212745   6.083   9.941   9.870 -0.5230  0.3524 -0.3194
 1323SOL     OW12746   5.343   0.772   5.694 -0.0862  0.3100 -0.2281
 1323SOL    HW112747   5.294   0.702   5.651 -2.2794  2.5757 -1.6549
 1323SOL    HW212748   5.301   0.782   5.779  0.6442 -0.4797  0.2406
 1324SOL     OW12749   3.210   6.352  12.557 -0.2131 -0.2541 -0.0903
 1324SOL    HW112750   3.287   6.346  12.613 -0.4092  0.7118  0.3085
 1324SOL    HW212751   3.216   6.438  12.516 -0.0552 -0.9604 -1.6090
 1325SOL     OW12752   8.533   6.704  10.514  0.4086  0.1372 -0.5515
 1325SOL    HW112753   8.443   6.737  10.514 -0.3759 -1.7577  1.7358
 1325SOL    HW212754   8.524   6.609  10.508  2.2073 -0.1510  0.5290
 1326SOL     OW12755  11.147   6.007   9.507 -0.1588 -0.1987 -0.5203
 1326SOL    HW112756  11.218   5.945   9.524 -0.1569 -0.0587 -0.0224
 1326SOL    HW212757  11.109   5.977   9.424  1.2998  0.4886 -1.4883
 1327SOL     OW12758  10.923   7.455   3.552 -0.1934  0.4799 -0.2966
 1327SOL    HW112759  10.979   7.406   3.612 -0.3697  0.0657 -0.4677
 1327SOL    HW212760  10.943   7.419   3.466 -0.5576  0.4862 -0.3854
 1328SOL     OW12761   0.096   0.716   3.639 -0.2443  0.4251  0.3409
 1328SOL    HW112762   0.059   0.628   3.637 -2.0570  1.1646 -1.0442
 1328SOL    HW212763   0.026   0.773   3.607  0.8209  2.4136  1.3512
 1329SOL     OW12764   1.061   2.740   7.206  0.0787 -0.0522 -0.4766
 1329SOL    HW112765   1.027   2.653   7.188 -1.8527  0.4075  0.7038
 1329SOL    HW212766   1.074   2.742   7.301 -1.5346  1.4508 -0.2367
 1330SOL     OW12767   3.910   3.800   5.382 -0.2042  0.0989 -0.2808
 1330SOL    HW112768   3.944   3.796   5.472 -1.7732  0.2193  0.3436
 1330SOL    HW212769   3.867   3.885   5.376 -0.8234 -0.2436 -0.8768
 1331SOL     OW12770   5.869   2.180   6.672  0.3665 -0.6035 -0.4393
 1331SOL    HW112771   5.861   2.114   6.741  0.5711 -0.6010 -0.4134
 1331SOL    HW212772   5.852   2.263   6.717  2.3688 -0.4009  0.0236
 1332SOL     OW12773   2.250   5.544   0.756  0.1985  0.6360  0.1671
 1332SOL    HW112774   2.254   5.506   0.668 -1.7706  0.5145  0.0800
 1332SOL    HW212775   2.298   5.626   0.748 -1.5943  1.6083 -1.6243
 1333SOL     OW12776  12.123   1.117   9.616 -0.1748  0.6897 -0.5073
 1333SOL    HW112777  12.062   1.120   9.690  1.3545 -0.7371  0.8892
 1333SOL    HW212778  12.169   1.201   9.620 -1.4275  1.4384 -1.0791
 1334SOL     OW12779   7.623   2.666   3.397  0.3945  0.2115 -0.5263
 1334SOL    HW112780   7.569   2.745   3.403  1.6281  0.9487  1.4012
 1334SOL    HW212781   7.573   2.599   3.444 -0.2363  0.0212 -1.4163
 1335SOL     OW12782   3.877   3.028   2.298  0.5329  0.0594  0.2213
 1335SOL    HW112783   3.873   2.956   2.234 -0.6033 -0.0721  0.4084
 1335SOL    HW212784   3.795   3.020   2.346  1.7148 -0.3318  2.2576
 1336SOL     OW12785   3.878   4.201  10.764 -0.6230  0.4099  0.1364
 1336SOL    HW112786   3.927   4.280  10.787 -1.3248  0.8058  0.3000
 1336SOL    HW212787   3.821   4.185  10.839 -0.0092 -0.6504  0.3934
 1337SOL     OW12788   8.579   5.309  10.466 -0.3683  0.1869  0.0828
 1337SOL    HW112789   8.525   5.295  10.388 -0.3153  0.0710  0.0672
 1337SOL    HW212790   8.516   5.318  10.537 -0.3856 -0.6253  0.1751
 1338SOL     OW12791   0.962   2.709   6.916 -0.3293 -0.1064  0.3776
 1338SOL    HW112792   1.019   2.784   6.898 -0.0776 -0.3548  0.1452
 1338SOL    HW212793   0.884   2.726   6.863 -0.8485  0.6717  1.3529
 1339SOL     OW12794   4.396   1.598   6.924 -0.4502  0.5487  0.1869
 1339SOL    HW112795   4.304   1.570   6.925 -0.5855  0.9715 -0.1228
 1339SOL    HW212796   4.395   1.682   6.970 -0.3761  1.0261 -0.6687
 1340SOL     OW12797   7.091   4.935   4.634 -0.1944  0.2215  0.0569
 1340SOL    HW112798   7.092   4.851   4.680  0.5668  0.2396  0.0799
 1340SOL    HW212799   7.180   4.969   4.644 -0.8665  1.7340  1.3079
 1341SOL     OW12800   5.191   4.557   1.581  0.1640 -0.1220  0.0227
 1341SOL    HW112801   5.141   4.624   1.627 -0.6368 -1.6648  1.5018
 1341SOL    HW212802   5.254   4.524   1.646 -0.1098 -1.4477 -0.3511
 1342SOL     OW12803   0.668   7.672   0.563  0.0747  0.2172  0.0142
 1342SOL    HW112804   0.718   7.642   0.487  0.1862 -1.3138  0.6643
 1342SOL    HW212805   0.591   7.614   0.566 -0.7728  1.3149  0.1373
 1343SOL     OW12806   8.813  12.341   2.393 -0.0206 -0.1698  0.5208
 1343SOL    HW112807   8.741  12.315   2.335 -0.2674 -0.1985  0.8308
 1343SOL    HW212808   8.809  12.437   2.395 -0.3272 -0.1873  0.8750
 1344SOL     OW12809  11.393   4.963   6.076 -0.3779  0.4174 -0.3017
 1344SOL    HW112810  11.487   4.947   6.083 -0.1327  1.1067 -1.6981
 1344SOL    HW212811  11.375   4.958   5.982 -1.3386  2.4106 -0.2650
 1345SOL     OW12812   1.532   5.051  10.244  0.5873  0.5248  0.3454
 1345SOL    HW112813   1.513   4.978  10.303 -0.4118  0.2217 -0.3160
 1345SOL    HW212814   1.566   5.120  10.301  2.2573 -0.6898  0.8953
 1346SOL     OW12815   8.211   4.775   9.835 -0.3834 -0.0396 -0.6038
 1346SOL    HW112816   8.281   4.835   9.859 -0.2345 -0.0111 -1.0906
 1346SOL    HW212817   8.183   4.804   9.748 -0.9308 -0.1142 -0.4597
 1347SOL     OW12818   0.359   5.784   1.862 -0.6507  0.4534  0.0283
 1347SOL    HW112819   0.373   5.877   1.840 -0.8921  0.3671 -0.5177
 1347SOL    HW212820   0.300   5.753   1.794  1.8115 -0.8874 -1.6831
 1348SOL     OW12821   2.452   7.681   3.266  0.7790 -0.1574 -0.5194
 1348SOL    HW112822   2.396   7.723   3.331  1.4735  1.2068 -0.7635
 1348SOL    HW212823   2.413   7.595   3.253 -0.2509  0.1154  0.5745
 1349SOL     OW12824   9.261  10.860  12.329  0.4920 -0.2879  0.3008
 1349SOL    HW112825   9.191  10.840  12.392  0.5089 -0.8117  0.1529
 1349SOL    HW212826   9.331  10.897  12.383 -0.0467  0.6301  0.3995
 1350SOL     OW12827   9.289   3.104   6.687 -0.1246 -0.8466  0.1357
 1350SOL    HW112828   9.300   3.123   6.780 -2.8945 -2.3548  0.8663
 1350SOL    HW212829   9.319   3.184   6.643 -2.2469  1.4723  2.5304
 1351SOL     OW12830   9.940   6.305   2.723 -0.0073 -0.5627  0.1404
 1351SOL    HW112831   9.948   6.289   2.817  1.7038 -2.4122 -0.2442
 1351SOL    HW212832  10.023   6.275   2.687 -0.3367  0.7727 -1.9148
 1352SOL     OW12833   2.065   1.276   5.724  0.2933 -0.5062  0.7630
 1352SOL    HW112834   2.142   1.245   5.772  0.7861  1.5846  1.4148
 1352SOL    HW212835   2.101   1.320   5.647 -0.3147 -0.5638  0.4380
 1353SOL     OW12836   9.206   8.505   3.355  0.3814 -0.3759  0.4928
 1353SOL    HW112837   9.219   8.600   3.353 -0.4232 -0.2513 -1.9933
 1353SOL    HW212838   9.199   8.484   3.448  0.2814  2.0438  1.0976
 1354SOL     OW12839  11.645   6.415  11.719 -0.4084  0.3079  0.3639
 1354SOL    HW112840  11.708   6.360  11.672 -1.0541  0.9876 -1.3629
 1354SOL    HW212841  11.564   6.365  11.719 -0.7647  0.8522 -0.4559
 1355SOL     OW12842   6.797   7.156   3.105  0.5775  0.4942  0.9028
 1355SOL    HW112843   6.760   7.085   3.052  0.8830 -0.0913  1.4572
 1355SOL    HW212844   6.734   7.166   3.178 -1.0289  2.7753 -0.6422
 1356SOL     OW12845   7.518   4.150  11.025 -0.1027 -0.1391 -0.5480
 1356SOL    HW112846   7.429   4.153  10.989 -0.1434 -1.0524 -0.5473
 1356SOL    HW212847   7.506   4.134  11.118  0.0539  0.0472 -0.4961
 1357SOL     OW12848   5.307  10.259  10.978  0.6664  0.9253  0.0055
 1357SOL    HW112849   5.301  10.325  10.908  1.5312  1.8116  0.7328
 1357SOL    HW212850   5.239  10.284  11.040  1.1738  1.3120  0.4146
 1358SOL     OW12851   0.684   1.598   0.566 -0.0607  0.2762  0.8231
 1358SOL    HW112852   0.640   1.653   0.502 -1.0801 -1.8930 -0.4284
 1358SOL    HW212853   0.614   1.552   0.612  0.7635 -1.6894  0.2314
 1359SOL     OW12854   8.857   8.307   4.821 -0.0688  0.3473 -0.0993
 1359SOL    HW112855   8.914   8.276   4.891 -0.1820  0.1923 -0.0747
 1359SOL    HW212856   8.901   8.385   4.786  0.9820 -0.6776 -1.1480
 1360SOL     OW12857  11.146   7.840   9.158 -0.3279 -0.1731  0.5447
 1360SOL    HW112858  11.175   7.919   9.204  1.8920 -0.4928 -0.1693
 1360SOL    HW212859  11.073   7.808   9.210  0.7300  0.6334  2.6662
 1361SOL     OW12860   1.361   7.548  10.851  0.1831 -0.1713 -0.4304
 1361SOL    HW112861   1.411   7.541  10.770 -1.6881 -1.5517 -1.5538
 1361SOL    HW212862   1.287   7.606  10.828 -0.4624 -0.7179  0.2199
 1362SOL     OW12863   4.665   7.586   3.809 -0.2303  0.3321 -0.4420
 1362SOL    HW112864   4.652   7.504   3.858  0.0895  1.2749  1.3079
 1362SOL    HW212865   4.676   7.652   3.877 -1.7508  2.0690 -1.7979
 1363SOL     OW12866   7.077   0.934   8.612  0.6726  0.8695 -0.8402
 1363SOL    HW112867   7.163   0.946   8.652 -0.0090  1.1906  0.5979
 1363SOL    HW212868   7.067   1.009   8.554  1.0032  1.3376 -0.3079
 1364SOL     OW12869   6.879   6.978   0.789 -0.4526  0.1099 -0.3771
 1364SOL    HW112870   6.924   7.047   0.838 -0.1782 -0.7316  0.6082
 1364SOL    HW212871   6.916   6.982   0.701  0.0034  0.8145 -0.1602
 1365SOL     OW12872   7.188   7.918   7.104  0.5762 -0.6072 -0.1477
 1365SOL    HW112873   7.162   7.953   7.019  1.0277  0.6320  0.2096
 1365SOL    HW212874   7.237   7.838   7.083 -1.3243 -1.6364 -0.9288
 1366SOL     OW12875   5.502   8.230   2.490 -0.1706 -0.0868 -0.0986
 1366SOL    HW112876   5.503   8.134   2.496 -1.9432 -0.2407 -1.4856
 1366SOL    HW212877   5.451   8.258   2.566 -1.4924 -0.4153 -0.8366
 1367SOL     OW12878   0.136   0.569   6.724  0.5439  0.0065 -0.4471
 1367SOL    HW112879   0.218   0.573   6.675 -0.1320  0.8848 -1.5386
 1367SOL    HW212880   0.085   0.501   6.680  0.1314  0.4464 -0.6434
 1368SOL     OW12881   0.904   8.356   5.683  0.3283  0.1660 -0.0981
 1368SOL    HW112882   0.828   8.413   5.677 -0.9450 -1.5429 -1.1856
 1368SOL    HW212883   0.869   8.268   5.667  2.0008 -1.1080  2.5582
 1369SOL     OW12884   5.373  10.640   3.532  0.4219  0.3159  0.4123
 1369SOL    HW112885   5.361  10.618   3.625 -0.8079 -1.2990 -0.0919
 1369SOL    HW212886   5.306  10.705   3.513  1.3130  1.4014  0.8643
 1370SOL     OW12887   9.525   0.243  11.121  0.1889 -0.4197 -0.1163
 1370SOL    HW112888   9.534   0.338  11.120  0.3765 -0.4312  0.4009
 1370SOL    HW212889   9.512   0.220  11.029  2.6392 -0.1357 -0.5950
 1371SOL     OW12890   3.121   8.598   8.450 -0.6643  0.2715 -0.1578
 1371SOL    HW112891   3.159   8.593   8.538 -0.1037  0.8895 -0.3623
 1371SOL    HW212892   3.173   8.664   8.405 -2.5480  1.8448 -0.1743
 1372SOL     OW12893   1.716  12.577   3.935 -0.2507  0.6830  0.0149
 1372SOL    HW112894   1.774  12.645   3.901  0.6309 -0.0762 -0.0085
 1372SOL    HW212895   1.699  12.520   3.860 -0.7915  0.7325  0.0939
 1373SOL     OW12896   6.272   0.854  11.892 -0.3102 -0.5035 -0.2303
 1373SOL    HW112897   6.217   0.779  11.868  0.1323 -1.9199  2.7528
 1373SOL    HW212898   6.214   0.911  11.943 -0.0072 -0.0508 -0.3860
 1374SOL     OW12899   3.799   3.480   9.032  0.6723 -0.1063  0.0556
 1374SOL    HW112900   3.767   3.564   8.999 -1.4816  0.0246  2.1786
 1374SOL    HW212901   3.756   3.414   8.978  0.0663  0.1532  0.2071
 1375SOL     OW12902   5.611   8.825   3.318  0.2233 -0.7511 -0.5129
 1375SOL    HW112903   5.595   8.920   3.324 -0.6917 -0.9773  1.7309
 1375SOL    HW212904   5.705   8.816   3.332  0.1825 -0.2102  0.1950
 1376SOL     OW12905   4.834   9.094   2.757  0.4913 -0.2294 -0.1963
 1376SOL    HW112906   4.788   9.009   2.758  0.0134 -0.0452 -2.1359
 1376SOL    HW212907   4.872   9.099   2.669  2.9427  0.3430  0.8358
 1377SOL     OW12908   2.577   5.789   5.205  0.6239  0.1224 -0.0587
 1377SOL    HW112909   2.632   5.860   5.239  0.6826  0.6051 -1.1371
 1377SOL    HW212910   2.584   5.720   5.271  0.3731  1.1921  1.1470
 1378SOL     OW12911  11.922   3.276  11.252 -0.0264  0.3672  0.6777
 1378SOL    HW112912  11.867   3.204  11.222  0.6110 -0.4381  1.3829
 1378SOL    HW212913  11.966   3.307  11.172 -0.1991 -0.1215  0.3878
 1379SOL     OW12914   7.068   2.596   8.731  0.1563  0.1042  0.4326
 1379SOL    HW112915   6.989   2.649   8.736  0.3369  0.3694  0.4696
 1379SOL    HW212916   7.051   2.535   8.659  0.5841  1.2852 -0.7183
 1380SOL     OW12917  12.102   2.063   2.885  0.0362  0.2979  0.3958
 1380SOL    HW112918  12.141   2.150   2.895 -0.4271  0.4458  0.9572
 1380SOL    HW212919  12.066   2.043   2.971 -0.5280 -0.1290  0.0641
 1381SOL     OW12920   3.500   6.149  12.227  0.7886 -0.2857 -0.2470
 1381SOL    HW112921   3.493   6.155  12.322 -0.5696  0.6859 -0.3732
 1381SOL    HW212922   3.570   6.210  12.204 -0.2568  1.0539 -0.0009
 1382SOL     OW12923   2.724   6.045  12.118 -0.1430  0.7467  0.6094
 1382SOL    HW112924   2.649   6.046  12.058  1.0864  1.8017 -0.9734
 1382SOL    HW212925   2.748   6.137  12.127  0.5523  0.4726  1.6615
 1383SOL     OW12926   2.844   7.584  12.030  0.5651 -0.0455 -0.1228
 1383SOL    HW112927   2.925   7.541  12.055  0.4086  0.4191  1.2720
 1383SOL    HW212928   2.813   7.535  11.954  1.7903 -0.6525 -0.2568
 1384SOL     OW12929   8.446   5.301   5.121 -0.2416 -0.0088 -0.0630
 1384SOL    HW112930   8.480   5.220   5.158  0.3856 -0.0337 -0.6759
 1384SOL    HW212931   8.351   5.287   5.116 -0.2010 -0.4717  0.3739
 1385SOL     OW12932   3.896   9.374   5.203  0.3632 -0.7507 -0.3141
 1385SOL    HW112933   3.846   9.314   5.148  0.3131 -1.6042  0.6305
 1385SOL    HW212934   3.842   9.387   5.281  0.9461 -0.4954  0.0548
 1386SOL     OW12935   6.531   4.621   6.030  0.1352  0.1712  0.2245
 1386SOL    HW112936   6.571   4.626   5.943 -1.1098 -0.9243 -0.4487
 1386SOL    HW212937   6.549   4.706   6.070  1.8439  0.2334 -0.5892
 1387SOL     OW12938   3.240   8.426   7.694  0.2114  0.0747 -0.1805
 1387SOL    HW112939   3.230   8.344   7.646  1.1438  0.3218 -0.8406
 1387SOL    HW212940   3.230   8.402   7.786 -3.1110 -0.1631 -0.4938
 1388SOL     OW12941  11.137   3.273   5.891  0.0493 -0.1344 -0.0027
 1388SOL    HW112942  11.121   3.367   5.882  0.6959  0.0712  0.8164
 1388SOL    HW212943  11.193   3.266   5.969 -2.0046 -1.3959  1.4558
 1389SOL     OW12944   5.690  12.367  11.110  0.3784 -0.0703 -0.1047
 1389SOL    HW112945   5.684  12.327  11.196 -0.6669  1.1198  0.4131
 1389SOL    HW212946   5.624  12.322  11.058  0.2587 -0.0564  0.0336
 1390SOL     OW12947  10.536   8.102   1.505 -0.1281  0.7188  0.5704
 1390SOL    HW112948  10.523   8.085   1.412 -0.7661  0.9037  0.6221
 1390SOL    HW212949  10.604   8.169   1.508  1.4969 -0.8629  0.3271
 1391SOL     OW12950   2.509   3.458   7.262  0.1144  0.5556 -0.1727
 1391SOL    HW112951   2.536   3.372   7.232  0.4457  0.2726  0.9016
 1391SOL    HW212952   2.583   3.489   7.315 -0.4061  1.0794  0.2561
 1392SOL     OW12953   4.302   8.036   0.257 -0.3493 -0.0380  0.4321
 1392SOL    HW112954   4.223   8.036   0.204  1.3584 -1.7952 -2.3697
 1392SOL    HW212955   4.319   7.944   0.276  2.1659  0.0061 -1.0822
 1393SOL     OW12956   0.799   6.385  11.595  0.3694 -0.4158  0.0559
 1393SOL    HW112957   0.834   6.380  11.685 -1.4287  0.4789  0.8424
 1393SOL    HW212958   0.845   6.459  11.556 -0.1095  0.3295  0.8567
 1394SOL     OW12959   9.754   0.333  10.506  0.6717  0.3769 -0.4086
 1394SOL    HW112960   9.788   0.392  10.573  0.3787  0.6969 -0.5378
 1394SOL    HW212961   9.724   0.257  10.554  2.1446 -0.2012 -0.3389
 1395SOL     OW12962  12.441   5.671  10.730 -0.5280 -0.8322 -0.3508
 1395SOL    HW112963  12.493   5.591  10.719 -1.6665 -1.5166 -0.9291
 1395SOL    HW212964  12.451   5.716  10.646  0.9643  0.1938  0.3284
 1396SOL     OW12965   2.827   1.562   8.455 -0.8298 -0.1758 -0.6161
 1396SOL    HW112966   2.794   1.527   8.538 -0.3189  1.5802  0.3758
 1396SOL    HW212967   2.815   1.490   8.392 -2.7830 -0.9773  0.5769
 1397SOL     OW12968   3.082   7.469   1.671 -0.3967  0.0252 -0.0572
 1397SOL    HW112969   3.027   7.425   1.736  2.7224 -3.8428  0.3378
 1397SOL    HW212970   3.120   7.543   1.718 -0.8112 -0.6906  1.4613
 1398SOL     OW12971  11.684   2.838   1.046  0.4251 -0.4032 -0.4697
 1398SOL    HW112972  11.616   2.905   1.046 -0.5005 -1.2881  0.7410
 1398SOL    HW212973  11.702   2.822   0.953 -1.7821 -0.8721 -0.8791
 1399SOL     OW12974   5.651   5.397   1.584 -0.4218 -0.1581 -0.2619
 1399SOL    HW112975   5.699   5.475   1.610  0.3996 -0.4675 -0.7999
 1399SOL    HW212976   5.579   5.391   1.646  0.6363 -0.0618  1.0270
 1400SOL     OW12977   6.989   1.393   7.884 -0.2739  0.4397 -0.7951
 1400SOL    HW112978   7.031   1.323   7.833 -0.4183  0.7822 -1.3945
 1400SOL    HW212979   7.049   1.410   7.956  0.2912  0.4509 -1.2618
 1401SOL     OW12980   1.988   8.062   1.646 -0.2505 -0.3592 -0.4298
 1401SOL    HW112981   2.035   8.024   1.571  3.2122 -0.2925  1.4906
 1401SOL    HW212982   1.970   8.152   1.618  0.8468 -0.3681 -1.2756
 1402SOL     OW12983   1.540   4.250   6.935  0.5264  0.5846  0.2493
 1402SOL    HW112984   1.633   4.273   6.927  0.2273  1.2723 -2.1095
 1402SOL    HW212985   1.517   4.215   6.848 -1.8110  2.0202  0.2187
 1403SOL     OW12986   8.725   4.109   1.340 -0.3460 -0.9317 -0.3077
 1403SOL    HW112987   8.741   4.073   1.428  0.4497  0.9248  0.3639
 1403SOL    HW212988   8.680   4.039   1.293 -1.5581 -1.6789  1.8418
 1404SOL     OW12989   7.023  11.556   8.169  0.1527  0.1806  0.0765
 1404SOL    HW112990   6.967  11.489   8.208  0.1128  0.8413  1.2049
 1404SOL    HW212991   6.987  11.639   8.201  2.7723  0.6028  2.3766
 1405SOL     OW12992  12.409   1.020   4.184  0.2834 -0.2373 -0.3105
 1405SOL    HW112993  12.468   1.022   4.109 -0.0898 -0.8517 -0.6303
 1405SOL    HW212994  12.346   0.951   4.163 -0.3105  0.1319  0.2016
 1406SOL     OW12995   0.187   9.575   9.951  0.2940  0.3776  0.0397
 1406SOL    HW112996   0.112   9.581  10.011  0.0163 -1.3401 -0.0862
 1406SOL    HW212997   0.246   9.644   9.980 -1.3845  1.9008  0.0430
 1407SOL     OW12998  10.321   0.119   9.267 -0.2225  0.4364  0.4192
 1407SOL    HW112999  10.366   0.101   9.349  2.4968  2.8055 -0.3981
 1407SOL    HW213000  10.359   0.056   9.205  0.0568  0.7343  0.2881
 1408SOL     OW13001   6.036   5.937   6.201  0.0253 -0.2336  0.2991
 1408SOL    HW113002   6.065   5.871   6.138 -0.8141  0.2197 -0.6062
 1408SOL    HW213003   5.947   5.958   6.173 -0.0100  0.6927  1.0646
 1409SOL     OW13004   1.177   9.706   1.631  0.2312 -0.0590 -0.2505
 1409SOL    HW113005   1.230   9.710   1.711  1.3053 -0.2432 -0.9338
 1409SOL    HW213006   1.219   9.639   1.577 -0.0232  0.5700 -1.2726
 1410SOL     OW13007   9.088   5.262   0.568  0.0747 -0.1610  0.1330
 1410SOL    HW113008   9.162   5.208   0.592  0.3651  0.1559 -0.0330
 1410SOL    HW213009   9.012   5.205   0.576  0.4006 -0.6529 -0.2518
 1411SOL     OW13010   0.660  11.731  12.298  0.4983  0.0875  0.0180
 1411SOL    HW113011   0.589  11.680  12.259  0.6283  0.0559 -0.1767
 1411SOL    HW213012   0.722  11.665  12.330 -0.6205  0.0298  2.2356
 1412SOL     OW13013   1.375   3.464   2.089  0.0467 -0.8376 -0.0354
 1412SOL    HW113014   1.281   3.449   2.080  0.1725 -1.0991 -1.0610
 1412SOL    HW213015   1.382   3.555   2.118 -0.5115 -0.7327 -0.2185
 1413SOL     OW13016  11.990   4.326  10.274 -0.5827  0.0264 -0.2832
 1413SOL    HW113017  12.077   4.327  10.314 -0.7836 -0.2528  0.1748
 1413SOL    HW213018  11.946   4.251  10.314 -0.7926 -0.2649 -1.0430
 1414SOL     OW13019  11.199   7.135   1.935 -0.3659 -0.0282  0.9486
 1414SOL    HW113020  11.129   7.198   1.922  0.1753  0.1083 -2.0475
 1414SOL    HW213021  11.257   7.176   1.999 -1.3029  1.3335  0.9747
 1415SOL     OW13022  10.194   6.072  11.890  0.5433  0.2858  0.2681
 1415SOL    HW113023  10.224   6.116  11.969  0.8492 -1.4221  1.1568
 1415SOL    HW213024  10.199   5.979  11.911 -0.6228 -0.1860 -1.3169
 1416SOL     OW13025   6.151   7.851   2.257 -0.4725 -0.1952 -0.0487
 1416SOL    HW113026   6.107   7.808   2.331 -1.0656  1.3753  0.5582
 1416SOL    HW213027   6.196   7.926   2.296 -0.0009  0.1156 -1.1574
 1417SOL     OW13028   1.124   3.368  11.602  0.3242  0.5211 -0.1425
 1417SOL    HW113029   1.049   3.392  11.548 -0.2664  0.5382  0.6589
 1417SOL    HW213030   1.187   3.330  11.541 -0.8605 -0.6893 -0.6587
 1418SOL     OW13031  11.340   5.591  10.745 -0.5674  0.1060 -0.2256
 1418SOL    HW113032  11.354   5.497  10.752  2.9731  0.5659  0.2169
 1418SOL    HW213033  11.262   5.607  10.798  0.3717 -2.2152  2.0883
 1419SOL     OW13034   7.113   9.605   2.329  0.7075 -0.3832 -0.5107
 1419SOL    HW113035   7.172   9.679   2.339  0.3811  0.1280 -2.1617
 1419SOL    HW213036   7.033   9.641   2.291  0.0405 -1.3772 -0.1194
 1420SOL     OW13037   7.592   8.376  12.291  0.0559  0.2705  0.2184
 1420SOL    HW113038   7.625   8.292  12.260 -0.4245  0.9025 -2.2124
 1420SOL    HW213039   7.593   8.368  12.386  0.6415 -2.2294  0.0831
 1421SOL     OW13040  10.555   5.004   5.366 -0.0948 -0.3633 -0.2483
 1421SOL    HW113041  10.563   4.911   5.345 -0.2014 -0.3439 -0.3780
 1421SOL    HW213042  10.513   5.042   5.288  2.0701  0.2059 -1.2235
 1422SOL     OW13043   9.280  10.651   7.801 -0.2986 -0.3099 -0.3204
 1422SOL    HW113044   9.278  10.741   7.770 -2.2015  0.2952  1.3388
 1422SOL    HW213045   9.360  10.645   7.853 -0.3330  0.5187 -0.1567
 1423SOL     OW13046   6.354   5.820  10.927 -0.2598  0.1840  0.5494
 1423SOL    HW113047   6.447   5.845  10.924  0.0488 -0.7099  1.7103
 1423SOL    HW213048   6.351   5.733  10.888 -1.1912  1.5192 -2.6522
 1424SOL     OW13049   7.783   0.840   3.603  0.5502  0.2311  0.6993
 1424SOL    HW113050   7.707   0.832   3.545  0.8395 -0.5092  0.4148
 1424SOL    HW213051   7.746   0.839   3.691  0.1413  0.9639  0.5450
 1425SOL     OW13052   9.120  10.924   1.597  0.7620  0.0926  0.1822
 1425SOL    HW113053   9.134  10.971   1.515 -2.1299 -1.2260 -1.2496
 1425SOL    HW213054   9.040  10.873   1.581  1.7249 -2.5123  2.8274
 1426SOL     OW13055   7.287   7.939  10.058  0.1304 -0.5232 -0.3911
 1426SOL    HW113056   7.380   7.921  10.073 -0.1239 -0.6644  1.1796
 1426SOL    HW213057   7.279   7.942   9.963  1.8236 -0.0944 -0.5700
 1427SOL     OW13058   6.945   1.010  10.361  0.3250  0.5146  0.0632
 1427SOL    HW113059   6.953   1.105  10.366  0.2622  0.4851  0.8177
 1427SOL    HW213060   7.024   0.982  10.315  0.6399  0.8902  0.3645
 1428SOL     OW13061   0.024   4.185   8.387 -0.4197 -0.9206 -0.1107
 1428SOL    HW113062  -0.039   4.133   8.437 -0.7189 -3.8024 -3.1100
 1428SOL    HW213063  -0.029   4.249   8.339 -0.3868  0.1750  1.2442
 1429SOL     OW13064  11.106   1.422   9.837 -0.0972  0.1997 -0.3801
 1429SOL    HW113065  11.062   1.477   9.903  0.6228  0.1677  0.1374
 1429SOL    HW213066  11.035   1.371   9.798 -0.4718 -0.1947  0.7655
 1430SOL     OW13067   9.619   1.511   0.998  0.1345 -0.2390  0.0475
 1430SOL    HW113068   9.652   1.581   0.942 -2.4029  0.0198 -1.2949
 1430SOL    HW213069   9.524   1.526   1.001 -0.1711 -2.1024  1.8847
 1431SOL     OW13070   8.263   1.809   7.231 -0.2325 -0.0208 -0.2814
 1431SOL    HW113071   8.186   1.832   7.179  1.3862  1.5519 -2.1406
 1431SOL    HW213072   8.291   1.891   7.270 -0.1228 -0.7954  1.3624
 1432SOL     OW13073  11.336  11.083  10.148  0.3937  0.0693  0.1302
 1432SOL    HW113074  11.312  11.169  10.182  2.0783 -0.2969  2.6060
 1432SOL    HW213075  11.422  11.096  10.108  0.7393 -0.4646  0.6756
 1433SOL     OW13076   5.678   4.662   3.399 -0.4914  0.0766  0.1169
 1433SOL    HW113077   5.674   4.655   3.495 -1.9660 -2.0250 -0.0352
 1433SOL    HW213078   5.757   4.615   3.374 -1.4099 -1.6050  0.2078
 1434SOL     OW13079   6.390   3.503  11.841 -0.0085 -0.5064 -0.1561
 1434SOL    HW113080   6.376   3.595  11.819 -1.4774 -1.0453 -1.6581
 1434SOL    HW213081   6.475   3.482  11.802  0.4071  0.2302  0.3230
 1435SOL     OW13082  12.360   8.579   6.207 -0.0695  0.0040  0.1262
 1435SOL    HW113083  12.344   8.652   6.266  0.6465  0.5522 -0.3414
 1435SOL    HW213084  12.455   8.570   6.205 -0.1779 -1.8854  1.2909
 1436SOL     OW13085  10.247   4.943   1.231  0.0248 -0.4336 -0.0374
 1436SOL    HW113086  10.178   5.003   1.260  0.5787 -0.6691  1.8648
 1436SOL    HW213087  10.248   4.873   1.297  2.0713 -0.4353 -0.0158
 1437SOL     OW13088   7.728   7.974   1.461  0.0107 -0.0709  0.0849
 1437SOL    HW113089   7.772   8.003   1.381 -0.1948 -1.2888 -0.4853
 1437SOL    HW213090   7.798   7.938   1.515 -0.0069 -0.2137  0.0116
 1438SOL     OW13091   1.412  11.171   9.576  0.0278  0.1107  0.2438
 1438SOL    HW113092   1.471  11.102   9.606  0.2157  0.0917 -0.1686
 1438SOL    HW213093   1.354  11.127   9.514 -0.8841 -0.0366  1.1642
 1439SOL     OW13094   8.918   0.373  10.741  0.1483 -0.2706 -0.7916
 1439SOL    HW113095   8.947   0.298  10.793  1.2636  0.9045  0.3675
 1439SOL    HW213096   8.823   0.362  10.734  0.0321 -0.8334  0.9947
 1440SOL     OW13097   1.893  10.031   4.224 -0.2140  0.1126 -0.1532
 1440SOL    HW113098   1.819  10.031   4.164 -0.8480 -2.4403  0.5101
 1440SOL    HW213099   1.967  10.062   4.172 -1.1805 -0.0097 -1.6465
 1441SOL     OW13100   4.451  10.167   0.560 -0.3190  0.2395 -0.2942
 1441SOL    HW113101   4.366  10.131   0.533 -1.1325  0.9714  1.1533
 1441SOL    HW213102   4.513  10.132   0.497 -1.6488 -0.5982 -1.1912
 1442SOL     OW13103   5.527   5.165  11.219 -0.2958 -0.1071  0.5658
 1442SOL    HW113104   5.586   5.152  11.145 -0.9981  0.0057 -0.0269
 1442SOL    HW213105   5.495   5.255  11.210 -0.8071 -0.2719  0.6921
 1443SOL     OW13106  11.984  11.039   9.368 -0.5353  0.3522 -0.5785
 1443SOL    HW113107  11.970  11.128   9.400 -0.9423 -0.1239  0.5988
 1443SOL    HW213108  12.080  11.030   9.364 -0.3756 -0.2116  2.4520
 1444SOL     OW13109   7.219   4.001   4.275  0.1045 -0.2563 -0.0837
 1444SOL    HW113110   7.220   4.037   4.364 -0.0154 -0.3784 -0.0328
 1444SOL    HW213111   7.299   4.036   4.235  1.0398 -1.5078  0.5964
 1445SOL     OW13112  10.246  10.198   0.871 -0.2682  0.4919  0.4871
 1445SOL    HW113113  10.182  10.191   0.800  0.2707  0.6631 -0.0254
 1445SOL    HW213114  10.193  10.221   0.948 -1.1924 -2.1919  0.7503
 1446SOL     OW13115   2.510   2.197  10.356  0.0017 -0.6832  0.0724
 1446SOL    HW113116   2.425   2.155  10.347 -0.6738  0.9268 -2.1320
 1446SOL    HW213117   2.554   2.181  10.272  0.0633  2.0718 -0.5220
 1447SOL     OW13118   1.604   0.942   8.141 -0.0440 -0.1545 -0.1567
 1447SOL    HW113119   1.558   0.900   8.069  0.3251 -0.5121 -0.1848
 1447SOL    HW213120   1.562   0.906   8.220  1.3692 -1.8958 -0.1321
 1448SOL     OW13121  10.416   7.102   9.853  0.1050 -0.0779  0.1840
 1448SOL    HW113122  10.446   7.014   9.877 -0.1809 -0.1991  0.0934
 1448SOL    HW213123  10.409   7.148   9.937 -0.1339 -0.2635  0.2658
 1449SOL     OW13124  11.612  12.062   5.182 -0.2654 -0.3129 -0.0065
 1449SOL    HW113125  11.613  12.007   5.260  1.7053 -1.2132 -0.5898
 1449SOL    HW213126  11.576  12.005   5.114  0.1314 -0.2933 -0.2343
 1450SOL     OW13127  11.145  10.682   2.012  0.5582 -0.3599  0.0370
 1450SOL    HW113128  11.136  10.741   2.087  0.2296 -1.4109  0.8441
 1450SOL    HW213129  11.206  10.727   1.953 -0.3261  1.1706  0.2339
 1451SOL     OW13130   8.280  11.418   3.511 -0.1305  0.0438  0.4316
 1451SOL    HW113131   8.310  11.478   3.579 -2.7958  2.4291 -0.3256
 1451SOL    HW213132   8.360  11.371   3.484  1.5246  1.1076  3.0986
 1452SOL     OW13133   4.284   7.134   1.861  0.3322  0.7304 -0.1551
 1452SOL    HW113134   4.223   7.203   1.888 -0.4514  0.1939 -0.4956
 1452SOL    HW213135   4.237   7.088   1.792  0.6006 -0.5111  0.4727
 1453SOL     OW13136  11.882   8.110   4.039  0.3972 -0.0002 -0.1536
 1453SOL    HW113137  11.918   8.165   3.969 -0.9714 -0.5949 -1.3654
 1453SOL    HW213138  11.839   8.172   4.098  1.4398  0.4931  0.1147
 1454SOL     OW13139   3.750  10.855   6.117 -0.0759 -0.2214 -0.7014
 1454SOL    HW113140   3.708  10.878   6.200  1.6954  2.3056 -0.3969
 1454SOL    HW213141   3.681  10.867   6.052 -0.6795  0.7909  0.0931
 1455SOL     OW13142   0.636   9.541   6.110  0.1951 -0.0255  0.7299
 1455SOL    HW113143   0.721   9.576   6.082 -0.2702  0.1178 -0.5335
 1455SOL    HW213144   0.634   9.557   6.205  0.8472  1.5765  0.5060
 1456SOL     OW13145   2.157  12.510   3.325  0.3382 -0.0866  0.2348
 1456SOL    HW113146   2.120  12.506   3.413 -2.1445  1.3199 -0.6448
 1456SOL    HW213147   2.150  12.421   3.292  1.4991 -0.6824  1.4766
 1457SOL     OW13148   7.576  10.266  12.440  0.3653  0.4685  0.0825
 1457SOL    HW113149   7.507  10.302  12.496 -0.4117  0.5049 -0.8652
 1457SOL    HW213150   7.619  10.200  12.493 -0.5848  0.2528  0.5950
 1458SOL     OW13151  11.396   6.310  11.797  0.7861 -0.2035 -0.1865
 1458SOL    HW113152  11.388   6.223  11.760  0.3274  0.0663 -0.7355
 1458SOL    HW213153  11.392   6.297  11.892  2.0358 -0.9056 -0.2181
 1459SOL     OW13154   0.953   1.096   9.637 -0.1743 -0.0147 -0.4671
 1459SOL    HW113155   1.017   1.059   9.698 -1.3159  0.0015  0.7758
 1459SOL    HW213156   0.922   1.020   9.586  0.0390 -0.1974 -0.3259
 1460SOL     OW13157   8.920   5.029  11.139  0.2151 -0.6731  0.0891
 1460SOL    HW113158   8.843   5.059  11.186  0.9589 -0.5753  1.2669
 1460SOL    HW213159   8.976   5.106  11.132 -0.1655 -0.4924 -1.6128
 1461SOL     OW13160   8.910   1.013   9.322  0.1178  0.2542  0.9593
 1461SOL    HW113161   8.966   0.983   9.394 -0.0169 -0.8893  0.6106
 1461SOL    HW213162   8.966   1.008   9.245 -0.1049  0.2486  0.7966
 1462SOL     OW13163  10.074   8.458   3.695 -0.5285 -0.3473 -0.1034
 1462SOL    HW113164  10.166   8.432   3.699 -0.6966 -0.9092  0.2241
 1462SOL    HW213165  10.039   8.413   3.618 -0.5765 -0.2800 -0.1216
 1463SOL     OW13166   0.427   8.623   6.053  0.2073  0.9170  0.1801
 1463SOL    HW113167   0.411   8.689   5.986  0.3087  0.6047 -0.1545
 1463SOL    HW213168   0.457   8.546   6.004 -0.0231  0.5877  0.5544
 1464SOL     OW13169   8.443   2.951   2.476  0.3807  0.3658  0.6108
 1464SOL    HW113170   8.374   2.937   2.411 -0.4191  0.7258  1.3487
 1464SOL    HW213171   8.523   2.923   2.433 -0.4322 -1.6561  0.2740
 1465SOL     OW13172   9.836   3.343   9.192  0.2371 -0.2284  0.5811
 1465SOL    HW113173   9.808   3.258   9.227 -1.5707 -0.6583 -1.6248
 1465SOL    HW213174   9.893   3.320   9.118 -0.5433  0.4127 -0.2493
 1466SOL     OW13175   6.533   0.622   5.306 -0.2238 -0.4925 -0.8738
 1466SOL    HW113176   6.594   0.677   5.257 -0.1016 -0.5972 -0.8370
 1466SOL    HW213177   6.450   0.671   5.303 -0.3566 -0.7414 -1.6269
 1467SOL     OW13178   0.055  11.918   9.381  0.8090 -0.3950 -0.3564
 1467SOL    HW113179   0.069  12.012   9.368 -1.7622  0.1193  0.0651
 1467SOL    HW213180  -0.003  11.913   9.457  0.3831 -2.2890 -0.7677
 1468SOL     OW13181   0.457   9.424  12.229 -0.1608 -0.2677  0.9794
 1468SOL    HW113182   0.499   9.455  12.309  0.0062 -2.7631  1.9581
 1468SOL    HW213183   0.465   9.329  12.233 -1.1381 -0.5397 -1.4916
 1469SOL     OW13184   6.635   2.832   2.886  0.1987 -0.3206  0.2541
 1469SOL    HW113185   6.550   2.809   2.923  0.5201 -1.0035  0.5919
 1469SOL    HW213186   6.634   2.927   2.879 -0.4288 -0.2934  0.6570
 1470SOL     OW13187   5.196   0.893   9.196  0.1726 -0.0365 -0.1685
 1470SOL    HW113188   5.292   0.888   9.196  0.1443 -0.9230 -0.6986
 1470SOL    HW213189   5.176   0.978   9.233  1.1511 -0.2138  0.8050
 1471SOL     OW13190   4.126  10.496   4.823  0.8226 -0.8989  0.3417
 1471SOL    HW113191   4.183  10.511   4.898 -0.9114 -0.7329  1.6974
 1471SOL    HW213192   4.056  10.561   4.833  0.0927 -1.4383 -0.9594
 1472SOL     OW13193  12.429  11.212   2.240 -0.1324 -0.0768  0.3288
 1472SOL    HW113194  12.493  11.170   2.299 -1.6525  1.2548  3.1287
 1472SOL    HW213195  12.482  11.256   2.174  1.7626 -0.5969  1.4312
 1473SOL     OW13196   8.058  11.569   0.238  0.4785  0.1021 -0.3440
 1473SOL    HW113197   8.003  11.646   0.251  1.8221  1.2403 -1.1165
 1473SOL    HW213198   8.096  11.551   0.324  1.5839  1.4703 -0.5098
 1474SOL     OW13199   7.523   3.131   4.070  0.7664  0.6638  0.2084
 1474SOL    HW113200   7.547   3.086   3.990 -0.2520 -1.2626  0.9274
 1474SOL    HW213201   7.509   3.222   4.043 -3.2560 -0.5229 -2.6843
 1475SOL     OW13202   3.980  10.741  12.047 -0.0439 -0.2182 -0.1695
 1475SOL    HW113203   3.997  10.650  12.071  0.4593  0.2651  1.4440
 1475SOL    HW213204   4.066  10.778  12.030 -0.3431 -0.3846 -2.3243
 1476SOL     OW13205   0.291   2.273   7.294  0.1098 -0.1394  0.2355
 1476SOL    HW113206   0.208   2.294   7.250  0.7684 -0.4765 -1.2505
 1476SOL    HW213207   0.277   2.298   7.385 -0.1628  3.9177 -0.7459
 1477SOL     OW13208   6.567   7.106   6.885  0.4817  0.3514 -0.1491
 1477SOL    HW113209   6.555   7.028   6.832  0.3119 -0.1127  0.5668
 1477SOL    HW213210   6.480   7.144   6.894  0.2890 -0.3130  0.9174
 1478SOL     OW13211   4.158   1.065   8.130 -0.0434  0.0246  0.4945
 1478SOL    HW113212   4.163   1.143   8.186  0.4132  1.3586 -1.2896
 1478SOL    HW213213   4.249   1.042   8.112 -0.1739  0.1438 -0.3602
 1479SOL     OW13214   5.247  10.905   6.599 -0.0145 -0.0668  0.2487
 1479SOL    HW113215   5.239  10.909   6.503 -3.3696  0.2520  0.4149
 1479SOL    HW213216   5.275  10.993   6.624  1.5702 -0.3359 -0.3992
 1480SOL     OW13217   9.928  12.280  10.678  0.0994 -0.5198 -0.2416
 1480SOL    HW113218   9.910  12.372  10.660  1.5209 -0.5866 -2.3162
 1480SOL    HW213219  10.020  12.278  10.704 -0.2850 -1.2205  1.1588
 1481SOL     OW13220   5.611  10.981   0.367 -0.0976  1.0718  0.1347
 1481SOL    HW113221   5.585  11.036   0.441  1.1093 -0.9336  2.1992
 1481SOL    HW213222   5.606  11.038   0.291 -2.5481  2.9319  1.5629
 1482SOL     OW13223   7.904   7.838   0.475  0.7447  0.5607 -0.4053
 1482SOL    HW113224   7.853   7.913   0.444 -0.4170  0.6531  1.5338
 1482SOL    HW213225   7.839   7.772   0.497  1.5569  0.0738  0.6322
 1483SOL     OW13226   8.898   9.813   2.942 -0.2661 -0.0549 -0.4974
 1483SOL    HW113227   8.834   9.884   2.933  0.7458  1.0415  0.5997
 1483SOL    HW213228   8.953   9.820   2.865  2.0695  2.7599  1.2324
 1484SOL     OW13229   2.923   6.610   9.171  0.0316 -0.0075  0.0353
 1484SOL    HW113230   2.938   6.693   9.126 -0.9012  2.1290  3.2736
 1484SOL    HW213231   3.008   6.566   9.170  1.4920  2.5682  0.9999
 1485SOL     OW13232   7.858   8.441   5.244  0.6274 -0.7155  0.0474
 1485SOL    HW113233   7.804   8.472   5.317  0.7496 -1.9692  0.7014
 1485SOL    HW213234   7.921   8.512   5.229  0.8357 -0.5850  1.4273
 1486SOL     OW13235   5.711   1.164   8.159 -0.6148  0.2370  0.1158
 1486SOL    HW113236   5.650   1.235   8.176  0.1000  1.0128 -0.4937
 1486SOL    HW213237   5.782   1.177   8.222 -0.1323  0.5092 -0.4671
 1487SOL     OW13238   7.704  11.859  11.147 -0.3081  0.2269 -0.1264
 1487SOL    HW113239   7.783  11.904  11.115  0.1159 -0.7370 -0.4790
 1487SOL    HW213240   7.687  11.899  11.232  1.5570 -0.6574  0.7300
 1488SOL     OW13241   8.677   0.815   7.007 -0.0362 -0.1309  0.1806
 1488SOL    HW113242   8.739   0.833   6.936 -0.9832  1.6561 -0.2581
 1488SOL    HW213243   8.613   0.755   6.969 -0.8345  1.2251 -0.6983
 1489SOL     OW13244  11.048   4.132   2.887 -0.5199 -0.2804 -0.0608
 1489SOL    HW113245  11.012   4.177   2.963 -1.6473 -0.3142 -0.5536
 1489SOL    HW213246  10.977   4.076   2.856  0.7651 -2.2273  0.3753
 1490SOL     OW13247   5.027   6.453   7.498 -0.0517  0.1063 -0.2290
 1490SOL    HW113248   5.115   6.477   7.528 -0.5915 -0.6885  2.2690
 1490SOL    HW213249   5.034   6.359   7.477 -0.5589 -0.2885  1.2556
 1491SOL     OW13250   0.141   2.686  11.107 -0.2805  0.3471 -0.3969
 1491SOL    HW113251   0.203   2.656  11.174  0.4427  2.7783  0.1008
 1491SOL    HW213252   0.192   2.745  11.052 -1.1820 -0.6611 -2.4340
 1492SOL     OW13253   1.951   5.624   3.222  0.2899  0.5176 -0.1664
 1492SOL    HW113254   1.987   5.667   3.144  0.1564  0.0331 -0.5070
 1492SOL    HW213255   1.970   5.531   3.207  2.1785  0.5882  1.3792
 1493SOL     OW13256   5.067  12.495   6.305  0.2855 -0.6878 -0.4364
 1493SOL    HW113257   5.146  12.441   6.298 -0.0434 -1.0849 -1.1328
 1493SOL    HW213258   5.080  12.545   6.386  1.0249 -1.1110 -0.2813
 1494SOL     OW13259   4.194   2.138   6.421 -0.0349  0.2306 -0.4174
 1494SOL    HW113260   4.204   2.228   6.390 -0.2666  1.2180  2.1779
 1494SOL    HW213261   4.100   2.126   6.431  0.0824  0.5476  1.4228
 1495SOL     OW13262   9.622   4.594   0.577 -0.0329  0.3374 -0.2902
 1495SOL    HW113263   9.534   4.625   0.557 -0.0788  0.7352  0.5061
 1495SOL    HW213264   9.616   4.499   0.569 -0.5659  0.3529 -0.1040
 1496SOL     OW13265   2.625   2.850   6.772  0.5139 -0.5175  0.2878
 1496SOL    HW113266   2.689   2.884   6.710  0.7212 -0.2672  0.6332
 1496SOL    HW213267   2.603   2.763   6.740  0.0684 -0.1121 -0.5483
 1497SOL     OW13268   7.127  10.801   8.656  0.7573  0.5010  0.5049
 1497SOL    HW113269   7.207  10.801   8.708  0.6404  0.5798  0.6874
 1497SOL    HW213270   7.087  10.715   8.672  0.6888  0.5493  0.5994
 1498SOL     OW13271  11.986   2.376  11.513  0.7717 -0.3613  0.4741
 1498SOL    HW113272  11.925   2.432  11.560 -1.5104 -2.9964  0.8711
 1498SOL    HW213273  11.956   2.379  11.422 -0.8537 -2.5819  0.8575
 1499SOL     OW13274   1.198  10.292  11.006  0.2547 -0.2231  0.5616
 1499SOL    HW113275   1.234  10.263  10.922 -0.2198  0.2511  0.1858
 1499SOL    HW213276   1.137  10.222  11.031 -0.8686  0.3975 -0.3305
 1500SOL     OW13277   3.494   2.615   0.391 -0.1576 -0.1199 -0.8581
 1500SOL    HW113278   3.434   2.582   0.324 -2.5862 -2.2770  2.0791
 1500SOL    HW213279   3.568   2.554   0.389 -1.7314 -2.2061  0.4031
 1501SOL     OW13280   8.785   9.246   3.347 -0.0619  0.6964 -0.1327
 1501SOL    HW113281   8.825   9.325   3.385  0.5959  1.9293 -3.1344
 1501SOL    HW213282   8.855   9.205   3.297 -0.3840 -1.9471  1.4050
 1502SOL     OW13283  12.566   8.037   0.733 -0.1207 -0.0091  0.6477
 1502SOL    HW113284  12.550   7.955   0.780  0.3876 -0.2470  0.4175
 1502SOL    HW213285  12.590   8.009   0.644  1.4613  0.3055  0.9509
 1503SOL     OW13286  11.513  11.232   1.901 -0.2469 -0.3953  0.1027
 1503SOL    HW113287  11.528  11.248   1.994  1.0352  0.6740 -0.2583
 1503SOL    HW213288  11.585  11.277   1.857 -0.8815 -0.8057 -1.4175
 1504SOL     OW13289   6.264  11.922   1.181  0.6521  0.0013  0.4449
 1504SOL    HW113290   6.311  11.860   1.125  0.9646  0.2913  0.3784
 1504SOL    HW213291   6.307  11.915   1.266  0.1515 -0.4695  0.6603
 1505SOL     OW13292  10.385   0.733   0.355  0.4754 -0.2537 -0.4702
 1505SOL    HW113293  10.404   0.802   0.292  1.7468  0.9466  1.1376
 1505SOL    HW213294  10.470   0.709   0.391 -0.2237 -0.6682  1.0001
 1506SOL     OW13295   3.063   7.341   8.620 -0.2792  0.1861  0.0870
 1506SOL    HW113296   3.041   7.422   8.666 -0.2366  0.4454 -0.3499
 1506SOL    HW213297   3.136   7.364   8.563 -0.4764 -0.0809 -0.2767
 1507SOL     OW13298  12.138  10.705   9.476  0.0480  0.4665 -0.2918
 1507SOL    HW113299  12.186  10.778   9.436  2.0212  0.6398  2.1301
 1507SOL    HW213300  12.108  10.739   9.560  1.1963 -1.4825  0.9937
 1508SOL     OW13301   4.258   4.947   4.992  0.6135  0.2095 -0.2133
 1508SOL    HW113302   4.268   5.031   5.035 -0.6666  0.1923  0.1621
 1508SOL    HW213303   4.164   4.928   4.998  1.0240 -1.7362  0.6358
 1509SOL     OW13304   8.046   4.236   5.030 -0.4695 -0.4214  0.5061
 1509SOL    HW113305   8.013   4.313   4.983 -1.0999  0.9259  2.9866
 1509SOL    HW213306   8.141   4.243   5.024 -0.5319  0.1584  0.1165
 1510SOL     OW13307   4.419   2.906   7.768 -0.3127 -0.3012 -0.1701
 1510SOL    HW113308   4.437   2.987   7.722  0.3640  0.1754  0.8983
 1510SOL    HW213309   4.490   2.847   7.743 -0.9536 -0.6822 -1.1623
 1511SOL     OW13310   7.178  11.050  12.595  0.6359  0.0668 -0.2536
 1511SOL    HW113311   7.261  11.070  12.638  0.2815  0.5859  0.1939
 1511SOL    HW213312   7.130  10.998  12.659  0.3247  0.3887 -0.2209
 1512SOL     OW13313  11.430   2.651  12.304 -0.1764 -0.9049 -0.2285
 1512SOL    HW113314  11.391   2.583  12.359  0.8297 -1.6109 -0.3418
 1512SOL    HW213315  11.444   2.725  12.363 -2.2016 -0.4048 -0.3299
 1513SOL     OW13316  10.091  11.305   1.979  0.3677  0.4296 -0.4036
 1513SOL    HW113317  10.058  11.260   1.902 -1.0405 -0.3370  0.6011
 1513SOL    HW213318  10.184  11.321   1.960  0.2501 -0.4946 -1.8915
 1514SOL     OW13319   3.759   9.965   8.551  0.3006  0.3749  0.4523
 1514SOL    HW113320   3.819  10.011   8.609  0.1628  0.7821  0.2767
 1514SOL    HW213321   3.672   9.980   8.589  0.3361 -0.5390  0.9244
 1515SOL     OW13322  10.800  10.842  10.503  0.2268  0.3827  0.5978
 1515SOL    HW113323  10.711  10.808  10.517  0.2450  0.3342  0.5979
 1515SOL    HW213324  10.826  10.877  10.588  0.2792  0.2283  0.6454
 1516SOL     OW13325   9.616   9.338   1.947 -0.3048  0.0342  0.3403
 1516SOL    HW113326   9.645   9.259   1.900  0.8389  0.9805 -0.5912
 1516SOL    HW213327   9.529   9.355   1.912  0.0972  0.1024 -0.6452
 1517SOL     OW13328   6.107   5.604   1.747 -0.1443 -0.3999  0.5567
 1517SOL    HW113329   6.196   5.630   1.769  0.1195  0.6246 -1.5247
 1517SOL    HW213330   6.117   5.529   1.689 -0.4008  1.4309 -2.0536
 1518SOL     OW13331   2.497   8.738  11.567 -0.0144 -0.3059  0.2028
 1518SOL    HW113332   2.506   8.687  11.648 -2.0921 -0.7830  0.1991
 1518SOL    HW213333   2.567   8.803  11.572  1.8133 -2.1998  0.9097
 1519SOL     OW13334   6.013  10.933  10.580 -0.0752 -0.2034 -0.0518
 1519SOL    HW113335   6.077  10.867  10.552  0.8825  0.9428 -0.6956
 1519SOL    HW213336   5.988  10.977  10.498  0.2935  1.0626  0.4911
 1520SOL     OW13337  11.930   1.000   1.766  0.1212 -0.0368  0.0700
 1520SOL    HW113338  11.951   1.022   1.857 -0.5919 -1.6610  0.6573
 1520SOL    HW213339  11.836   0.981   1.767  0.3373 -1.2530 -0.7464
 1521SOL     OW13340   8.779   5.856   8.634  0.2544 -1.0151 -0.2792
 1521SOL    HW113341   8.820   5.790   8.578 -1.0563 -2.2209  0.1298
 1521SOL    HW213342   8.798   5.827   8.723 -1.8496 -1.9085 -0.0605
 1522SOL     OW13343  11.382   5.251   1.351 -0.6094 -0.6263  0.4666
 1522SOL    HW113344  11.388   5.157   1.369 -0.8677 -0.6875  0.2371
 1522SOL    HW213345  11.413   5.261   1.261 -1.9622 -0.6838 -0.0178
 1523SOL     OW13346   0.344   6.049  11.234 -0.2417  0.4432 -0.2463
 1523SOL    HW113347   0.351   5.964  11.190 -1.5632 -0.4889  1.2127
 1523SOL    HW213348   0.435   6.079  11.242  0.2852 -0.9571 -0.5818
 1524SOL     OW13349   5.821  11.717   3.855  0.1503  0.8272 -0.0165
 1524SOL    HW113350   5.802  11.810   3.863  1.1711  1.0823 -0.3373
 1524SOL    HW213351   5.881  11.698   3.927 -0.5936  0.2420  0.4735
 1525SOL     OW13352   6.700   0.862  11.917 -0.4135 -0.2408  0.0338
 1525SOL    HW113353   6.742   0.869  12.003 -0.1996  0.1930 -0.1036
 1525SOL    HW213354   6.770   0.835  11.858  0.2758  2.6467 -0.6405
 1526SOL     OW13355   3.217   8.485   3.426 -0.1148 -0.0910  0.0862
 1526SOL    HW113356   3.289   8.451   3.374  1.0836  0.9395  1.0236
 1526SOL    HW213357   3.157   8.410   3.435  0.3131 -0.6716 -1.5389
 1527SOL     OW13358  10.781  12.030   6.368 -0.0113  0.2735  0.2587
 1527SOL    HW113359  10.709  11.968   6.383  1.5156 -1.4447  0.9050
 1527SOL    HW213360  10.854  11.975   6.340  1.5257  1.7551  1.1892
 1528SOL     OW13361   5.264  11.587  11.687 -0.3891  0.9032 -0.2004
 1528SOL    HW113362   5.283  11.657  11.750 -1.0233 -0.0002  1.0222
 1528SOL    HW213363   5.350  11.550  11.667 -0.3187  0.1074  1.4448
 1529SOL     OW13364   2.560   7.046   9.669 -0.4396 -0.1749  0.1548
 1529SOL    HW113365   2.510   7.042   9.588  0.0725  0.1765 -0.1858
 1529SOL    HW213366   2.494   7.043   9.738 -0.8236 -5.0596 -0.0548
 1530SOL     OW13367   9.479   1.853   3.896 -0.3250  0.0108  0.5003
 1530SOL    HW113368   9.402   1.797   3.898  0.6055 -1.3436  0.1881
 1530SOL    HW213369   9.515   1.846   3.985 -0.4278  0.4601  0.5809
 1531SOL     OW13370  11.917  10.771   2.068  0.1105  0.5606 -0.3261
 1531SOL    HW113371  11.890  10.683   2.095  1.6409 -0.3147 -1.5014
 1531SOL    HW213372  11.841  10.826   2.087 -0.3223 -0.6988  1.9024
 1532SOL     OW13373   0.808   1.976   9.303  0.4229  0.0364 -0.4288
 1532SOL    HW113374   0.725   1.930   9.291 -0.1210 -0.0385  2.8542
 1532SOL    HW213375   0.868   1.933   9.243 -1.4343 -1.1525 -1.5419
 1533SOL     OW13376   9.667   0.383   3.018 -0.6353  0.5442  0.1921
 1533SOL    HW113377   9.689   0.325   2.944 -0.6347 -0.6896  1.1227
 1533SOL    HW213378   9.750   0.424   3.041 -0.3712 -0.0380  0.3025
 1534SOL     OW13379   8.110   6.405   6.883  0.2842 -0.6170 -0.0619
 1534SOL    HW113380   8.120   6.489   6.929 -2.4755 -0.4791  0.4533
 1534SOL    HW213381   8.179   6.350   6.920  1.1637  0.9378  0.7372
 1535SOL     OW13382   0.647   6.240   1.626  0.0095 -0.3376  0.1084
 1535SOL    HW113383   0.557   6.272   1.636 -0.0087 -0.7415  1.5135
 1535SOL    HW213384   0.677   6.225   1.716  2.2047  1.6788 -0.1750
 1536SOL     OW13385   0.637   0.829  10.581  1.0471 -0.0324  0.6112
 1536SOL    HW113386   0.730   0.831  10.602  0.9473 -1.1250  1.2245
 1536SOL    HW213387   0.611   0.738  10.592  0.0611  0.1153 -0.2804
 1537SOL     OW13388   0.776   9.350   1.297 -0.2515 -0.0635 -0.3348
 1537SOL    HW113389   0.790   9.274   1.240  0.0840 -1.1214  1.0789
 1537SOL    HW213390   0.686   9.341   1.327  0.1178 -0.5545  0.6890
 1538SOL     OW13391   6.091  11.246   3.690  0.1278  0.5782 -0.3674
 1538SOL    HW113392   6.053  11.310   3.750 -0.2767  0.4442 -0.4792
 1538SOL    HW213393   6.018  11.216   3.637  0.7721  1.9575 -2.1081
 1539SOL     OW13394  11.597   4.677   5.105  0.0602 -0.1188 -0.3434
 1539SOL    HW113395  11.507   4.707   5.113 -0.1544  0.1654 -2.9920
 1539SOL    HW213396  11.651   4.752   5.129 -0.4235  0.2908 -0.5397
 1540SOL     OW13397   7.355   0.830   2.757  0.0143 -0.4187  0.0352
 1540SOL    HW113398   7.365   0.923   2.778 -3.3451  0.0786 -0.1026
 1540SOL    HW213399   7.424   0.814   2.692  1.9090  1.4154  1.4336
 1541SOL     OW13400   4.907  12.309  10.160  0.7149 -0.2762 -0.0137
 1541SOL    HW113401   4.830  12.254  10.149  1.4328 -1.2785 -0.2057
 1541SOL    HW213402   4.887  12.389  10.112 -0.2747 -0.4419  0.1027
 1542SOL     OW13403   3.683  10.358  11.040  0.3291 -0.0093 -0.4325
 1542SOL    HW113404   3.670  10.343  10.946 -1.3817 -0.7739 -0.1097
 1542SOL    HW213405   3.702  10.270  11.075 -0.1935  0.0891  0.1035
 1543SOL     OW13406   7.135   8.132   7.251  0.4309  0.2578  0.0549
 1543SOL    HW113407   7.075   8.127   7.326  0.7741 -0.4787  0.2859
 1543SOL    HW213408   7.143   8.042   7.221 -0.1190  0.6084 -1.2129
 1544SOL     OW13409   6.955   8.145   2.035 -0.0604 -0.2641  0.5509
 1544SOL    HW113410   6.978   8.226   1.990 -1.3368  0.0870  0.4894
 1544SOL    HW213411   7.012   8.143   2.111  0.4184  0.3802  0.2191
 1545SOL     OW13412   6.990   1.037   0.770 -0.1524  0.3083  0.5324
 1545SOL    HW113413   6.965   1.092   0.696  1.8782  0.2763 -0.2281
 1545SOL    HW213414   7.061   0.982   0.737 -0.6667 -1.2620  1.8920
 1546SOL     OW13415   7.594  10.117  10.789 -0.1370 -0.7109  0.7373
 1546SOL    HW113416   7.513  10.105  10.739 -0.2654  1.2643  0.4243
 1546SOL    HW213417   7.577  10.071  10.872 -2.0625  0.6593  1.1622
 1547SOL     OW13418   5.693   4.552   6.716  0.1094 -0.8276  0.2640
 1547SOL    HW113419   5.763   4.575   6.778 -2.7161 -1.1087  3.9009
 1547SOL    HW213420   5.717   4.465   6.684  2.0127 -0.4056  0.4026
 1548SOL     OW13421   8.033   0.915   5.223 -0.5289  0.1916  0.0493
 1548SOL    HW113422   8.019   0.986   5.160 -0.2420  0.8681  0.7362
 1548SOL    HW213423   8.092   0.855   5.178 -1.4930 -0.0927 -0.8928
 1549SOL     OW13424   0.926   9.556  11.222 -0.2299  0.3119 -0.2924
 1549SOL    HW113425   0.887   9.642  11.205  0.4164  0.9315  1.1410
 1549SOL    HW213426   1.007   9.556  11.171 -1.5947 -0.6492 -2.6136
 1550SOL     OW13427   9.902   3.930   8.955  0.0791 -0.4847 -0.0675
 1550SOL    HW113428   9.904   4.000   8.890  1.7474  0.3695  0.8554
 1550SOL    HW213429   9.989   3.931   8.995 -1.2897  0.1005  3.2881
 1551SOL     OW13430  12.588   8.157   5.925  0.0440 -0.6407  0.0165
 1551SOL    HW113431  12.675   8.123   5.949  0.7233  1.1422  0.1867
 1551SOL    HW213432  12.593   8.170   5.830  0.4062  0.5909  0.1861
 1552SOL     OW13433   1.017   7.655   6.204  0.0972  0.0170  0.2465
 1552SOL    HW113434   0.987   7.595   6.135  2.1639 -0.0582 -0.6522
 1552SOL    HW213435   1.006   7.605   6.285  0.4033 -1.0188 -0.3360
 1553SOL     OW13436   6.149   5.722   3.682  0.1503 -0.5569 -0.1925
 1553SOL    HW113437   6.141   5.697   3.590  0.7027  0.3471 -0.5001
 1553SOL    HW213438   6.227   5.777   3.685  0.4657 -1.0318  0.9253
 1554SOL     OW13439   8.521   4.414   3.619 -0.3696  0.2030 -0.5602
 1554SOL    HW113440   8.540   4.496   3.573 -1.0947  1.1495  0.7674
 1554SOL    HW213441   8.427   4.417   3.636 -0.2535 -0.4940  0.2574
 1555SOL     OW13442   1.577   0.572   8.625  0.4795 -0.5173  0.0174
 1555SOL    HW113443   1.519   0.637   8.585 -0.1010 -2.1348 -1.9478
 1555SOL    HW213444   1.540   0.556   8.712  0.4796  1.5137  0.4361
 1556SOL     OW13445  10.727   4.322   2.617  0.0300  0.8416 -0.2290
 1556SOL    HW113446  10.687   4.390   2.671 -1.0194  0.0094  0.0847
 1556SOL    HW213447  10.820   4.341   2.620  0.4089 -0.6568  4.1013
 1557SOL     OW13448   5.646   3.712  12.401 -0.4398 -0.6108 -0.4441
 1557SOL    HW113449   5.655   3.752  12.314 -0.4080  1.4311  0.4290
 1557SOL    HW213450   5.711   3.642  12.402  1.7540  1.2810 -1.0480
 1558SOL     OW13451   7.241  11.057   2.934 -0.6438  0.0569 -0.4155
 1558SOL    HW113452   7.292  10.983   2.900  1.0850  0.4384  1.2103
 1558SOL    HW213453   7.304  11.129   2.940 -1.7840  1.0396  0.0854
 1559SOL     OW13454   3.645   2.084   6.325  0.1075 -0.2111  0.0613
 1559SOL    HW113455   3.641   2.034   6.406 -0.5774  0.8381  0.7075
 1559SOL    HW213456   3.559   2.126   6.319  0.5987  0.7372 -0.5391
 1560SOL     OW13457  12.604   9.875   5.303 -0.0322  0.4695  0.0756
 1560SOL    HW113458  12.618   9.937   5.232 -0.3151 -0.8775 -1.1987
 1560SOL    HW213459  12.689   9.867   5.346 -0.0141  1.7789  0.3274
 1561SOL     OW13460   0.912  10.511   9.561 -0.5027  0.1407  0.2243
 1561SOL    HW113461   0.890  10.536   9.471  0.9346 -1.9096 -0.7664
 1561SOL    HW213462   0.900  10.416   9.563  0.6541 -0.0088  1.8691
 1562SOL     OW13463   0.957   3.202   6.369 -0.3174 -0.2163  0.0621
 1562SOL    HW113464   0.951   3.283   6.320 -0.8795  0.5572  1.3546
 1562SOL    HW213465   1.037   3.211   6.421 -2.3314  1.3872  3.2604
 1563SOL     OW13466   2.077   8.133  12.302  0.5439  0.3734  0.1611
 1563SOL    HW113467   2.143   8.093  12.358  0.3670  0.4282  0.4087
 1563SOL    HW213468   2.114   8.218  12.278  0.5887  0.3775  0.2461
 1564SOL     OW13469   6.606   9.682   3.928 -1.0784  0.2894 -0.3550
 1564SOL    HW113470   6.526   9.638   3.901 -0.9445 -0.9542  1.0684
 1564SOL    HW213471   6.605   9.676   4.024  1.6565 -1.6681 -0.3192
 1565SOL     OW13472   2.264   1.789  10.837 -0.1176  0.5553  0.2870
 1565SOL    HW113473   2.249   1.709  10.788 -0.4387  0.3816  0.6575
 1565SOL    HW213474   2.341   1.828  10.797 -0.0023  0.0991  0.0559
 1566SOL     OW13475   8.510   8.784   5.154  0.4468  0.2292 -0.1397
 1566SOL    HW113476   8.568   8.711   5.130 -0.7826 -0.5500 -0.8365
 1566SOL    HW213477   8.481   8.820   5.071 -0.3273  0.3949  0.1950
 1567SOL     OW13478   9.186   5.114  12.451  0.7053  0.7740  0.0190
 1567SOL    HW113479   9.156   5.151  12.534  0.2263  1.7218 -0.5565
 1567SOL    HW213480   9.132   5.158  12.385  0.2822 -0.7972 -0.7218
 1568SOL     OW13481   8.912   6.527  12.139  0.1531 -0.1143 -0.1320
 1568SOL    HW113482   8.928   6.597  12.076 -1.4298 -0.8838 -1.4661
 1568SOL    HW213483   8.852   6.566  12.203  1.9712  0.7514  1.1254
 1569SOL     OW13484   1.303   4.230   1.488 -0.0710  0.1580  0.3357
 1569SOL    HW113485   1.333   4.311   1.447 -1.0717  0.4589  0.1622
 1569SOL    HW213486   1.222   4.256   1.534  0.1433 -0.5259  1.1168
 1570SOL     OW13487  10.422  11.679   6.245  0.0259  0.3122 -0.0767
 1570SOL    HW113488  10.506  11.682   6.200  0.9122 -0.1461  1.4473
 1570SOL    HW213489  10.360  11.650   6.179  1.1823  0.0896 -1.1008
 1571SOL     OW13490   7.741   7.722  11.579 -0.2121 -0.1258 -0.1286
 1571SOL    HW113491   7.802   7.659  11.617 -0.2798  0.7455  1.4817
 1571SOL    HW213492   7.656   7.677  11.581 -0.1834 -0.1578  0.5976
 1572SOL     OW13493   0.217   8.709   8.364  0.3523 -0.2415  0.1487
 1572SOL    HW113494   0.221   8.623   8.322  1.6562 -0.1485  0.0592
 1572SOL    HW213495   0.254   8.769   8.299 -0.0559  0.3118  0.4178
 1573SOL     OW13496  10.752   2.264   9.703 -0.5109  1.2363  0.0316
 1573SOL    HW113497  10.744   2.178   9.743  0.8862  0.8624 -0.4292
 1573SOL    HW213498  10.734   2.326   9.774 -1.4064  0.5884  0.3881
 1574SOL     OW13499  10.428  12.181   4.112 -0.3355 -0.2001  0.5897
 1574SOL    HW113500  10.422  12.238   4.035  3.7591 -0.5922 -0.2975
 1574SOL    HW213501  10.430  12.241   4.186  0.0613  0.5494 -0.0080
 1575SOL     OW13502   0.714  12.115  12.066 -0.3560 -0.0987 -0.5320
 1575SOL    HW113503   0.804  12.116  12.099 -0.8247  1.0373  0.8276
 1575SOL    HW213504   0.723  12.132  11.972  0.8142  0.7967 -0.2825
 1576SOL     OW13505   7.665   2.654  12.021 -0.3848  0.4274  0.1705
 1576SOL    HW113506   7.636   2.632  11.932 -4.7259 -0.7415  1.6394
 1576SOL    HW213507   7.720   2.580  12.047 -1.3409 -0.5877 -0.5996
 1577SOL     OW13508  10.390   5.545   5.111 -0.4445 -0.0709 -0.0387
 1577SOL    HW113509  10.460   5.481   5.104 -0.5098 -0.1012 -0.4494
 1577SOL    HW213510  10.430   5.628   5.083 -0.1699  0.2171  1.1410
 1578SOL     OW13511  12.486   7.572   9.695  0.0851  0.1933 -0.0393
 1578SOL    HW113512  12.509   7.531   9.611 -1.9410  0.9409 -1.0113
 1578SOL    HW213513  12.485   7.499   9.757  3.7431 -0.0817 -0.0991
 1579SOL     OW13514  11.052   3.064   7.684 -0.9289  0.1186 -0.3995
 1579SOL    HW113515  11.052   2.974   7.716  1.5461 -0.5812 -2.1251
 1579SOL    HW213516  11.143   3.091   7.689 -1.2688  1.7202 -2.0453
 1580SOL     OW13517   6.840   4.599  11.345 -0.0540  0.2026 -0.6416
 1580SOL    HW113518   6.838   4.683  11.298  1.3677 -1.0234 -3.1194
 1580SOL    HW213519   6.748   4.578  11.361 -0.5302  1.3491 -1.6723
 1581SOL     OW13520  11.802   5.004  12.057 -0.1628 -0.2386 -0.4778
 1581SOL    HW113521  11.897   5.010  12.046 -0.0963 -0.3320  0.0459
 1581SOL    HW213522  11.767   5.011  11.968  0.2239  1.5525 -0.5080
 1582SOL     OW13523   7.048  11.892   0.202  0.2220  0.1251 -0.6195
 1582SOL    HW113524   7.115  11.850   0.257  1.0043  1.0114 -0.8683
 1582SOL    HW213525   7.077  11.877   0.112 -2.0441 -2.9839 -0.9846
 1583SOL     OW13526   8.182   4.157   6.083  0.6310 -0.4012 -0.3839
 1583SOL    HW113527   8.114   4.223   6.095  0.9678  0.2621 -1.9678
 1583SOL    HW213528   8.141   4.075   6.113 -0.6724  0.0765 -0.7933
 1584SOL     OW13529   5.278   1.670   3.292 -0.0236 -0.6446  0.2728
 1584SOL    HW113530   5.206   1.692   3.351 -0.7566 -0.7991 -0.5472
 1584SOL    HW213531   5.273   1.736   3.223  0.8862 -0.4070  0.4212
 1585SOL     OW13532  12.445   9.049   2.097 -0.4596 -0.0032 -0.4367
 1585SOL    HW113533  12.385   9.122   2.083 -0.8668 -0.7425 -2.8637
 1585SOL    HW213534  12.407   8.976   2.048  1.2708 -1.1204 -0.2068
 1586SOL     OW13535  12.227   1.230   0.131  0.1347  0.0716  0.2096
 1586SOL    HW113536  12.180   1.153   0.164  1.5099 -0.5558  0.7680
 1586SOL    HW213537  12.301   1.241   0.190  0.5187  1.2398 -0.4484
 1587SOL     OW13538   4.403   3.398  12.610 -0.1688  0.1549 -0.0029
 1587SOL    HW113539   4.429   3.399  12.518 -0.8291  2.1366 -0.2143
 1587SOL    HW213540   4.470   3.450  12.655  0.3377 -1.0848  0.7201
 1588SOL     OW13541   0.390  11.472   2.282 -0.0322  0.1156  0.1908
 1588SOL    HW113542   0.442  11.413   2.337  0.3203 -1.7063 -1.9860
 1588SOL    HW213543   0.319  11.419   2.249 -1.5467  1.7802  0.6014
 1589SOL     OW13544  12.193  10.703   1.579  0.9985 -0.5028 -0.0062
 1589SOL    HW113545  12.207  10.645   1.505  0.5251 -0.8249  0.1493
 1589SOL    HW213546  12.238  10.784   1.556  2.9585 -1.4167  0.4290
 1590SOL     OW13547   0.569   0.790   1.368  0.4984 -0.2004 -0.4704
 1590SOL    HW113548   0.496   0.809   1.427  1.6866  0.1076  0.9528
 1590SOL    HW213549   0.609   0.711   1.403  1.0433 -0.1917 -1.0463
 1591SOL     OW13550   4.079   4.469  10.600  0.6809 -0.3143  0.3601
 1591SOL    HW113551   4.119   4.387  10.572 -0.2940 -0.3578 -1.0090
 1591SOL    HW213552   3.985   4.456  10.588  0.4879  0.8975  0.3886
 1592SOL     OW13553   0.227  11.444  10.455  0.3101 -0.5526  0.4928
 1592SOL    HW113554   0.315  11.418  10.429  0.0868 -0.3075 -0.5548
 1592SOL    HW213555   0.223  11.538  10.435 -1.0114 -1.0396 -2.0372
 1593SOL     OW13556   5.998   5.079   7.072  0.1951 -0.3018 -0.0997
 1593SOL    HW113557   6.087   5.112   7.055 -0.2677  0.3298 -1.4252
 1593SOL    HW213558   6.001   5.048   7.162  2.0472 -1.2375 -0.4442
 1594SOL     OW13559   5.884   3.797   2.966 -0.4807  0.0102  0.3413
 1594SOL    HW113560   5.874   3.891   2.975 -0.4303 -0.0279  0.8000
 1594SOL    HW213561   5.940   3.771   3.039 -0.0670 -0.3013 -0.0735
 1595SOL     OW13562   6.635  11.719  10.030  0.1093  0.1643  0.8534
 1595SOL    HW113563   6.719  11.681  10.055  1.1045  1.1336 -0.8445
 1595SOL    HW213564   6.656  11.782   9.961 -2.2117 -1.1340 -1.2094
 1596SOL     OW13565   3.601   1.359  12.182 -0.0207 -0.8313 -0.4726
 1596SOL    HW113566   3.615   1.453  12.171  1.1537 -1.0140 -0.6804
 1596SOL    HW213567   3.650   1.337  12.261 -1.5919 -1.0007  0.4707
 1597SOL     OW13568   4.848   7.381   5.070 -0.3098 -0.0165  0.0323
 1597SOL    HW113569   4.771   7.324   5.078  0.0540 -0.6503 -0.8329
 1597SOL    HW213570   4.904   7.337   5.007  1.1151  0.0737  1.1955
 1598SOL     OW13571   2.539  12.182   3.897  0.3147  0.5310 -0.4396
 1598SOL    HW113572   2.623  12.226   3.909 -0.1137  0.9981  0.9875
 1598SOL    HW213573   2.546  12.102   3.950 -0.4539  1.0077  0.3843
 1599SOL     OW13574   2.198   3.527   2.732 -0.1377  0.2555  0.7418
 1599SOL    HW113575   2.138   3.513   2.805  0.0599 -1.0810  0.6616
 1599SOL    HW213576   2.156   3.596   2.680  0.2097  1.9764  2.6146
 1600SOL     OW13577   8.893  11.861  11.689  0.3270 -0.0251 -0.2010
 1600SOL    HW113578   8.886  11.811  11.608  0.3657 -1.0249  0.4082
 1600SOL    HW213579   8.939  11.941  11.663 -0.3432  0.0185 -1.3132
 1601SOL     OW13580   9.967   9.100  12.411  0.0535 -0.1615 -0.0893
 1601SOL    HW113581   9.960   9.062  12.499 -1.2098  2.0983  0.8747
 1601SOL    HW213582   9.882   9.082  12.371  0.2461 -0.2706 -0.4464
 1602SOL     OW13583  11.976   4.285   8.859  0.1147 -0.6740 -0.2046
 1602SOL    HW113584  11.888   4.296   8.897  1.4507  0.9870  2.7086
 1602SOL    HW213585  11.985   4.359   8.799 -0.2044 -0.4080  0.0691
 1603SOL     OW13586   4.003   2.993  10.081  0.6972  0.1676 -0.6076
 1603SOL    HW113587   3.940   2.927  10.055  1.2791 -1.2542  1.3607
 1603SOL    HW213588   3.950   3.070  10.103 -0.1852 -0.3746 -0.7959
 1604SOL     OW13589   0.107   6.299   2.284 -0.4344  0.4050  0.0873
 1604SOL    HW113590   0.024   6.303   2.331 -1.8375  1.4781 -2.3153
 1604SOL    HW213591   0.165   6.250   2.343 -3.1085 -1.6012  1.2986
 1605SOL     OW13592  12.282   5.308   3.820 -0.0536 -0.2391 -0.1456
 1605SOL    HW113593  12.369   5.343   3.840 -0.7342  1.4666  0.0159
 1605SOL    HW213594  12.247   5.368   3.755 -0.6501 -1.6268 -1.1452
 1606SOL     OW13595  10.032   8.428  11.639  0.2821  0.2448 -0.1620
 1606SOL    HW113596  10.101   8.380  11.684  0.1908  0.8337  0.6299
 1606SOL    HW213597  10.020   8.381  11.557  0.0127 -1.2334  0.6919
 1607SOL     OW13598   8.720   8.382   2.900  0.0455 -0.2290 -0.0655
 1607SOL    HW113599   8.751   8.459   2.853  0.2861 -0.6570 -0.6121
 1607SOL    HW213600   8.784   8.313   2.880  0.5570 -0.2340  1.4596
 1608SOL     OW13601   0.725   5.364   6.602  0.1698  0.5403 -0.2216
 1608SOL    HW113602   0.633   5.359   6.575 -0.5743  0.8934  2.0144
 1608SOL    HW213603   0.752   5.273   6.610 -0.4494  0.4037  0.4566
 1609SOL     OW13604   2.619   3.139   8.066 -0.4776  0.2566  0.8310
 1609SOL    HW113605   2.573   3.139   8.150  0.2258  1.1241  1.2289
 1609SOL    HW213606   2.613   3.049   8.035 -1.9829  0.2328  1.1262
 1610SOL     OW13607   6.680   2.932   1.496  0.1521 -0.2799  0.3347
 1610SOL    HW113608   6.769   2.904   1.515 -0.1029 -0.5893  1.0931
 1610SOL    HW213609   6.638   2.854   1.458  0.5703  0.2433 -1.3015
 1611SOL     OW13610   0.153  11.084  11.075 -0.3531 -0.7735 -0.2696
 1611SOL    HW113611   0.117  11.089  10.986  1.3891  2.2921 -0.9730
 1611SOL    HW213612   0.245  11.062  11.062  0.2397  0.9771  0.5871
 1612SOL     OW13613  10.613   4.294  12.112 -0.2738  0.5622  0.3121
 1612SOL    HW113614  10.530   4.309  12.157  0.0283  1.1329  0.6999
 1612SOL    HW213615  10.594   4.309  12.019 -0.9312 -0.7477  0.2100
 1613SOL     OW13616   0.780   2.618   7.443  0.6030  0.2935 -0.4270
 1613SOL    HW113617   0.865   2.660   7.460  0.6146  0.3068 -0.5188
 1613SOL    HW213618   0.716   2.687   7.457  0.4849 -0.1163  1.2498
 1614SOL     OW13619   7.092   2.189  11.576  0.2697  0.2075 -0.6752
 1614SOL    HW113620   7.124   2.135  11.504  0.5999 -0.9777  0.3395
 1614SOL    HW213621   6.996   2.182  11.571  0.3144 -0.4932 -0.5304
 1615SOL     OW13622   9.631   0.224   3.438  0.2666 -0.3725 -0.0609
 1615SOL    HW113623   9.608   0.203   3.348 -0.6335 -0.2323  0.1313
 1615SOL    HW213624   9.549   0.249   3.479  0.8451  0.6868  0.5000
 1616SOL     OW13625  10.994   6.129   5.924 -0.4584 -0.2036 -0.1738
 1616SOL    HW113626  11.006   6.069   5.997 -1.1666 -0.7038 -0.4547
 1616SOL    HW213627  10.990   6.216   5.964  2.4416 -0.0964  0.0929
 1617SOL     OW13628  11.530   8.242   4.106  0.1864 -0.4809 -0.3250
 1617SOL    HW113629  11.624   8.262   4.106 -0.0787  0.8260 -0.0055
 1617SOL    HW213630  11.487   8.327   4.099 -1.0286 -0.7764  2.2919
 1618SOL     OW13631   4.229   1.011  12.575 -0.0953 -0.1445 -0.0521
 1618SOL    HW113632   4.187   0.964  12.502 -0.0243 -0.6230  0.2141
 1618SOL    HW213633   4.289   1.072  12.532  1.7800 -2.1214 -0.3750
 1619SOL     OW13634   9.375   0.611   7.457 -0.0168 -0.3806  0.3724
 1619SOL    HW113635   9.322   0.653   7.389  0.6379  1.4825  0.9556
 1619SOL    HW213636   9.465   0.618   7.424  0.2072 -0.3153  0.9939
 1620SOL     OW13637   4.759   5.835   6.353  0.2386 -0.2926 -0.3411
 1620SOL    HW113638   4.854   5.828   6.341  0.2848  0.0823 -0.2212
 1620SOL    HW213639   4.749   5.895   6.427 -0.0814 -0.7536 -0.0007
 1621SOL     OW13640  10.843   3.327  10.101 -0.0345 -0.1892 -0.3063
 1621SOL    HW113641  10.815   3.328  10.009  3.0128 -0.5084 -1.3633
 1621SOL    HW213642  10.929   3.285  10.099  0.8090  1.1593  2.4996
 1622SOL     OW13643   8.091  11.749  10.155 -0.4680  0.4138  0.6469
 1622SOL    HW113644   8.085  11.814  10.085 -0.9552 -0.4301 -0.1169
 1622SOL    HW213645   8.142  11.678  10.116 -2.4415 -0.9413  0.4253
 1623SOL     OW13646  10.014   2.360   4.377  0.5078 -0.2022 -0.1085
 1623SOL    HW113647  10.094   2.375   4.428  0.5936 -1.8083  0.2642
 1623SOL    HW213648   9.952   2.424   4.412  1.3538  0.4817  0.1980
 1624SOL     OW13649  10.421   1.622   0.265 -0.0606 -0.2460 -0.0233
 1624SOL    HW113650  10.495   1.675   0.294 -2.3500  2.9069  0.7034
 1624SOL    HW213651  10.425   1.542   0.317  0.9932  1.3147  2.4495
 1625SOL     OW13652   9.206   2.461  10.197  0.1750  0.2077 -0.2090
 1625SOL    HW113653   9.167   2.535  10.243 -0.4952  0.6163 -1.4149
 1625SOL    HW213654   9.185   2.385  10.253  2.2947  1.0602  1.9097
 1626SOL     OW13655   7.503   7.828   0.954 -0.6293 -0.0322  0.2336
 1626SOL    HW113656   7.587   7.794   0.985  1.0209  2.9822 -0.5263
 1626SOL    HW213657   7.457   7.856   1.034 -1.1256 -1.9671  0.6766
 1627SOL     OW13658  11.596   5.775   9.758 -0.1552  0.4791  0.1948
 1627SOL    HW113659  11.670   5.810   9.808 -0.4297  1.7831 -0.2842
 1627SOL    HW213660  11.526   5.766   9.822  0.1027  0.2264  0.4437
 1628SOL     OW13661  10.526   8.811   1.072 -1.0227 -0.5454 -0.2787
 1628SOL    HW113662  10.486   8.867   1.138 -0.2124 -1.2468  0.8518
 1628SOL    HW213663  10.518   8.722   1.108  0.6916 -0.7968 -0.4341
 1629SOL     OW13664   4.127   9.820   1.454  0.2146  0.2436  0.4205
 1629SOL    HW113665   4.073   9.859   1.386 -0.0098  1.8960  1.4951
 1629SOL    HW213666   4.066   9.797   1.524  0.5904 -0.3355  0.5718
 1630SOL     OW13667   3.621   8.889   7.988 -0.0069  0.0955 -0.1522
 1630SOL    HW113668   3.615   8.819   7.922  0.3930  0.5511 -0.6797
 1630SOL    HW213669   3.708   8.876   8.028  0.0175  0.2163 -0.1665
 1631SOL     OW13670  12.374  11.197  10.049 -0.5738  0.4873 -0.4386
 1631SOL    HW113671  12.396  11.289  10.037  1.0053  0.1107 -0.5416
 1631SOL    HW213672  12.441  11.163  10.107  0.5116 -1.2482 -2.5747
 1632SOL     OW13673   6.206   2.764   7.656  0.0683 -0.0521  0.3766
 1632SOL    HW113674   6.250   2.707   7.719  0.5096  1.2690  1.3236
 1632SOL    HW213675   6.205   2.714   7.575 -1.1601 -2.0965  1.5788
 1633SOL     OW13676   3.212  11.831   2.227 -0.0131 -0.2795 -0.1647
 1633SOL    HW113677   3.196  11.857   2.318 -1.1764 -0.5304 -0.2782
 1633SOL    HW213678   3.209  11.913   2.178  1.2292 -0.0684  0.0879
 1634SOL     OW13679   8.033   0.402   5.990  1.1110 -0.3735 -0.1536
 1634SOL    HW113680   8.110   0.395   6.047  0.4656  0.0404  0.8064
 1634SOL    HW213681   8.065   0.381   5.903  2.3957  0.1463  0.1697
 1635SOL     OW13682   4.713   5.209   9.873  0.0139  0.2782 -0.1543
 1635SOL    HW113683   4.693   5.263   9.796  0.1786  0.0862 -0.3312
 1635SOL    HW213684   4.699   5.119   9.844 -0.4849  0.2329  0.2071
 1636SOL     OW13685   8.737  12.355   4.995  0.1375 -0.1522 -0.1614
 1636SOL    HW113686   8.663  12.336   4.938  0.4856 -0.4532 -0.5133
 1636SOL    HW213687   8.703  12.418   5.058 -0.8198 -1.3040  0.5259
 1637SOL     OW13688   2.010   2.366   6.064 -0.3472  0.4087 -0.1857
 1637SOL    HW113689   2.041   2.371   6.154 -1.2233  0.2126  0.1312
 1637SOL    HW213690   1.947   2.294   6.063  1.0948 -0.9378 -1.4000
 1638SOL     OW13691   8.528   6.327   9.856 -0.6322 -0.1193  0.5033
 1638SOL    HW113692   8.608   6.378   9.866  0.1617 -1.2264  0.1091
 1638SOL    HW213693   8.467   6.363   9.920  0.4525  0.2511  1.3583
 1639SOL     OW13694   6.508  10.369  11.271  0.5270  0.2736  0.3549
 1639SOL    HW113695   6.412  10.376  11.269  0.6438  3.7802 -1.8839
 1639SOL    HW213696   6.530  10.377  11.364 -1.3257 -0.4987  0.9126
 1640SOL     OW13697  11.370   3.748   8.682 -0.5030 -0.3857 -0.0703
 1640SOL    HW113698  11.428   3.739   8.607 -0.0767 -0.1390  0.2244
 1640SOL    HW213699  11.401   3.682   8.744  1.3754  1.6400  1.2903
 1641SOL     OW13700   1.935  10.234   7.455  0.2774 -0.4016  0.3831
 1641SOL    HW113701   1.846  10.225   7.487 -0.3477  0.0502 -1.1122
 1641SOL    HW213702   1.941  10.171   7.383  1.2302 -0.5756  0.6016
 1642SOL     OW13703  12.385  11.426  10.215  0.3137 -0.7278 -0.5596
 1642SOL    HW113704  12.419  11.363  10.279 -0.2626  0.6331  1.1600
 1642SOL    HW213705  12.418  11.511  10.245 -2.8473  0.4288  0.0439
 1643SOL     OW13706  10.223   2.326  10.668  0.0815  0.1543  0.2617
 1643SOL    HW113707  10.204   2.382  10.593 -0.1240 -0.0279  0.1746
 1643SOL    HW213708  10.141   2.277  10.683  0.5247 -0.7645 -0.2248
 1644SOL     OW13709   7.599   2.683   8.186 -0.0838  0.2269 -0.0382
 1644SOL    HW113710   7.658   2.739   8.136  2.5842 -0.9176  1.6087
 1644SOL    HW213711   7.565   2.740   8.256  0.9199  0.3586  0.3554
 1645SOL     OW13712   2.751  11.156   8.975  0.3918  0.2286 -0.1408
 1645SOL    HW113713   2.681  11.120   9.030  0.5886  1.3385  0.8835
 1645SOL    HW213714   2.706  11.217   8.917  0.3821  0.1560 -0.2106
 1646SOL     OW13715   7.585   6.814   0.103  0.2501 -0.2694 -0.9313
 1646SOL    HW113716   7.664   6.795   0.154 -0.8247  2.0156  1.8503
 1646SOL    HW213717   7.521   6.749   0.132 -0.2508  0.8072  0.4851
 1647SOL     OW13718   0.604   6.906   8.567 -0.4140 -0.4379 -0.0537
 1647SOL    HW113719   0.656   6.881   8.643 -1.5941 -1.2831  0.5114
 1647SOL    HW213720   0.598   6.826   8.515 -0.5625 -0.1626 -0.4609
 1648SOL     OW13721  11.807   9.090   4.640 -0.1121 -0.2469 -0.0736
 1648SOL    HW113722  11.856   9.131   4.568 -0.0077 -2.1003 -1.1320
 1648SOL    HW213723  11.860   9.014   4.665 -0.7253 -0.2780  1.1988
 1649SOL     OW13724   2.078   7.458   6.368 -0.2784  0.6621  0.1655
 1649SOL    HW113725   2.014   7.501   6.312 -2.3429 -2.1576  0.1309
 1649SOL    HW213726   2.028   7.433   6.446  0.4310 -2.4230 -0.2355
 1650SOL     OW13727   6.375   7.301   4.647  0.4480  0.4018 -0.5439
 1650SOL    HW113728   6.341   7.351   4.722 -3.9379 -0.4385 -1.6622
 1650SOL    HW213729   6.386   7.366   4.578 -0.2739  0.5567 -0.5234
 1651SOL     OW13730   5.898   1.138  10.237  0.3501  0.1551 -0.1452
 1651SOL    HW113731   5.918   1.200  10.308  0.8498 -0.8321  0.5982
 1651SOL    HW213732   5.804   1.145  10.225  0.4491  1.3663 -0.3718
 1652SOL     OW13733   9.575   1.621  12.000  0.3469  0.4778  0.0953
 1652SOL    HW113734   9.534   1.554  11.945  1.1142 -0.8017  1.0160
 1652SOL    HW213735   9.551   1.704  11.960 -1.5622 -0.3031 -0.4497
 1653SOL     OW13736   0.945   6.926   1.779 -0.1148  1.0087 -0.1381
 1653SOL    HW113737   1.017   6.987   1.763  0.1824  0.2316 -2.0721
 1653SOL    HW213738   0.886   6.973   1.838  2.9857  0.8323  3.4036
 1654SOL     OW13739  11.344   7.827   4.340  0.0860  0.1360  0.3409
 1654SOL    HW113740  11.323   7.893   4.275 -2.5502 -0.7231  0.2079
 1654SOL    HW213741  11.429   7.792   4.313 -0.6827  0.1791 -2.3306
 1655SOL     OW13742  11.314   5.792   4.647 -0.4259 -0.2580  0.2947
 1655SOL    HW113743  11.392   5.739   4.633  0.0988  0.3332  0.8773
 1655SOL    HW213744  11.304   5.842   4.566 -0.5308 -0.7526  0.0030
 1656SOL     OW13745  11.935   2.771   2.242  0.3456 -0.5820 -0.2404
 1656SOL    HW113746  11.874   2.840   2.266  0.2566 -0.4443 -0.8543
 1656SOL    HW213747  11.913   2.750   2.151 -0.1302 -1.9268  0.1435
 1657SOL     OW13748   1.888  10.612   7.022  0.0459  0.2128 -0.5019
 1657SOL    HW113749   1.919  10.608   6.932 -0.9701  0.3279 -0.8713
 1657SOL    HW213750   1.864  10.704   7.035 -1.6910 -0.1491 -0.8002
 1658SOL     OW13751   5.443   9.228   8.472  0.1982  0.6862  0.5217
 1658SOL    HW113752   5.522   9.280   8.460  0.6107  0.1170  0.7156
 1658SOL    HW213753   5.407   9.218   8.384  1.3881 -0.6448  0.1454
 1659SOL     OW13754   6.685  11.850   4.422  0.1166 -0.0482 -0.5035
 1659SOL    HW113755   6.700  11.769   4.374  1.5682 -0.8328  1.1615
 1659SOL    HW213756   6.596  11.841   4.455  0.5205 -1.3797  0.3292
 1660SOL     OW13757   4.700   9.882  11.714 -0.0984 -0.2387 -0.2995
 1660SOL    HW113758   4.645   9.959  11.732  0.4145  0.0929 -0.1225
 1660SOL    HW213759   4.638   9.810  11.703 -0.6687  0.4175 -1.6420
 1661SOL     OW13760   3.197  12.006   0.532  0.5282  0.3377 -0.0674
 1661SOL    HW113761   3.241  12.057   0.464 -0.4367  1.0763 -0.1766
 1661SOL    HW213762   3.156  12.073   0.588  0.9097 -0.2744  0.9627
 1662SOL     OW13763   6.013   2.340  11.717 -0.3721 -0.1405  0.4953
 1662SOL    HW113764   5.973   2.377  11.638 -0.7975 -0.0385  0.7612
 1662SOL    HW213765   6.102   2.316  11.689 -0.6202 -0.3794 -0.0924
 1663SOL     OW13766   6.404  10.617   4.110 -0.3898  0.0371 -0.2772
 1663SOL    HW113767   6.338  10.575   4.054 -0.9132  2.6962 -1.8361
 1663SOL    HW213768   6.469  10.652   4.048  0.1129  1.2657  0.8969
 1664SOL     OW13769  10.449   6.084  10.207 -0.7625 -0.7642  0.0563
 1664SOL    HW113770  10.411   6.026  10.273  1.2457 -0.9315  1.1519
 1664SOL    HW213771  10.511   6.139  10.256 -0.3488  0.1869 -1.4437
 1665SOL     OW13772   1.001   5.737   2.694 -0.3407 -0.0552  0.6533
 1665SOL    HW113773   1.049   5.773   2.769  0.7580 -1.8008  0.8394
 1665SOL    HW213774   0.996   5.809   2.632  1.4391  0.5593  1.1684
 1666SOL     OW13775  11.504   6.942   0.848  0.0162  0.2560  0.1225
 1666SOL    HW113776  11.519   6.852   0.822 -2.5177 -0.0719 -0.4537
 1666SOL    HW213777  11.519   6.993   0.768  0.8457  0.3031  0.2966
 1667SOL     OW13778  11.587  12.188   5.879  0.0134  0.0967 -0.4409
 1667SOL    HW113779  11.559  12.255   5.817 -0.0636  1.4318  0.9926
 1667SOL    HW213780  11.675  12.165   5.851  0.1341  0.9745 -0.8037
 1668SOL     OW13781   5.626   0.750  11.889 -0.0302  0.3031 -0.3847
 1668SOL    HW113782   5.551   0.702  11.925 -0.5443  0.3124 -1.3843
 1668SOL    HW213783   5.587   0.831  11.854  0.3177 -0.0060 -1.5377
 1669SOL     OW13784   0.098   3.367   4.199  0.2607 -0.9073  0.1742
 1669SOL    HW113785   0.158   3.293   4.200  0.0490 -1.0970 -0.6371
 1669SOL    HW213786   0.110   3.407   4.113 -1.6450 -1.6817 -0.4932
 1670SOL     OW13787  11.013  12.195  12.302 -0.0442  0.1948  0.2988
 1670SOL    HW113788  11.046  12.154  12.222 -0.7101 -2.0935  1.1164
 1670SOL    HW213789  11.042  12.286  12.296  1.6249 -0.3866 -1.5802
 1671SOL     OW13790   4.371   9.164   0.821  0.0554  0.2789  0.4053
 1671SOL    HW113791   4.444   9.220   0.849  0.9433 -0.3244 -0.5887
 1671SOL    HW213792   4.409   9.076   0.816 -1.0606 -0.2608  0.9856
 1672SOL     OW13793   4.261   2.554   5.790  0.7325  0.1235 -0.0554
 1672SOL    HW113794   4.177   2.568   5.747  0.3575  1.1066  0.9383
 1672SOL    HW213795   4.244   2.573   5.883  1.9086 -0.2473  0.2534
 1673SOL     OW13796   1.367   3.596  12.599 -0.4550  0.2852  0.1217
 1673SOL    HW113797   1.417   3.519  12.628 -0.9551  0.1113  0.5263
 1673SOL    HW213798   1.340   3.639  12.679 -0.3447  0.7853 -0.1057
 1674SOL     OW13799   0.783   3.466   4.891 -0.0720 -0.0318  0.0938
 1674SOL    HW113800   0.708   3.406   4.900  0.0840 -0.3759 -0.8385
 1674SOL    HW213801   0.754   3.530   4.825  0.6383 -0.4624 -0.6449
 1675SOL     OW13802   2.816  10.727  10.535  0.6426 -0.1887 -0.1813
 1675SOL    HW113803   2.884  10.784  10.571  0.5324  0.2704 -0.6805
 1675SOL    HW213804   2.783  10.775  10.459 -1.4162  0.4173  1.0021
 1676SOL     OW13805   4.175   2.744   4.683 -0.0525  0.1576  0.5386
 1676SOL    HW113806   4.248   2.763   4.625  2.6385 -2.5294  2.7288
 1676SOL    HW213807   4.128   2.673   4.640 -0.3956  0.7498 -0.0827
 1677SOL     OW13808   3.444   5.522   5.616 -0.6108  0.2414 -0.2097
 1677SOL    HW113809   3.477   5.612   5.615  0.6767 -0.0807  2.6881
 1677SOL    HW213810   3.519   5.469   5.589 -0.2270 -0.1346  1.4563
 1678SOL     OW13811   9.294  11.277   1.158  0.2689 -0.2193 -0.3937
 1678SOL    HW113812   9.255  11.220   1.092 -0.0418 -0.1629 -0.2619
 1678SOL    HW213813   9.227  11.344   1.175  0.3951 -0.1608 -0.1157
 1679SOL     OW13814   9.765  11.822  10.361  0.4527 -0.1617  0.7992
 1679SOL    HW113815   9.806  11.906  10.383  1.9258 -1.0774  1.6895
 1679SOL    HW213816   9.692  11.814  10.422  1.4067 -0.3241  1.9597
 1680SOL     OW13817   8.581   6.382  10.171 -0.4107 -0.2347 -0.3720
 1680SOL    HW113818   8.547   6.462  10.211  1.1647 -0.4968  1.6598
 1680SOL    HW213819   8.676   6.396  10.165  0.0382 -2.2712  0.9173
 1681SOL     OW13820   6.885   5.129   1.625  0.3180  0.4240  0.2629
 1681SOL    HW113821   6.882   5.073   1.547  0.7219 -0.6045  0.9504
 1681SOL    HW213822   6.809   5.103   1.676  1.1482 -0.3629  1.1375
 1682SOL     OW13823   5.907   9.384   0.151  0.0921 -0.3680 -0.1848
 1682SOL    HW113824   5.931   9.291   0.154  1.2326 -0.0669  1.6923
 1682SOL    HW213825   5.932   9.418   0.237 -0.3387  1.6791 -0.8142
 1683SOL     OW13826   6.966   9.629   5.764 -0.3098  0.0282 -0.0038
 1683SOL    HW113827   7.050   9.675   5.765  1.2711 -2.4981 -1.6640
 1683SOL    HW213828   6.923   9.659   5.683 -1.1817  1.5031  0.9685
 1684SOL     OW13829   1.932   5.260   5.125 -0.4580 -0.1787  0.1115
 1684SOL    HW113830   1.960   5.174   5.157 -2.9150 -1.0880  0.0268
 1684SOL    HW213831   1.946   5.319   5.200  2.3692 -0.3002 -0.2064
 1685SOL     OW13832   5.955   3.227   2.720 -0.4810 -0.5194 -0.6343
 1685SOL    HW113833   5.901   3.301   2.746  0.0241 -0.3751  0.0231
 1685SOL    HW213834   6.040   3.266   2.697  0.1122 -0.9824  0.6979
 1686SOL     OW13835   7.711   9.604   0.723  0.3508 -0.2884  0.0885
 1686SOL    HW113836   7.771   9.658   0.672  3.0314 -2.8284  0.2752
 1686SOL    HW213837   7.650   9.568   0.659  0.6009  0.3760 -0.5263
 1687SOL     OW13838   1.702   3.557   2.746 -0.1455 -0.1515  0.0207
 1687SOL    HW113839   1.634   3.542   2.812 -0.0783 -0.6055 -0.0097
 1687SOL    HW213840   1.656   3.599   2.674 -0.0302  1.2847  0.7493
 1688SOL     OW13841   7.563  12.530   8.945 -0.2031 -0.1508 -0.2200
 1688SOL    HW113842   7.505  12.498   9.014  2.0484  0.4586  2.1274
 1688SOL    HW213843   7.571  12.624   8.963  1.0243 -0.1153 -0.8300
 1689SOL     OW13844   5.347   8.975   1.323 -0.1415  0.0165  0.1107
 1689SOL    HW113845   5.362   8.977   1.229  2.0822 -0.3958  0.4131
 1689SOL    HW213846   5.273   8.914   1.335  0.3596 -0.8987 -1.2746
 1690SOL     OW13847  12.427   8.188  10.657 -0.1069 -0.3172  0.1743
 1690SOL    HW113848  12.501   8.207  10.715 -0.7988 -0.8614  1.2733
 1690SOL    HW213849  12.355   8.167  10.717 -1.5016  1.3652 -0.8140
 1691SOL     OW13850  11.005   0.541   6.844 -0.2430 -0.2743 -0.1758
 1691SOL    HW113851  10.912   0.519   6.841 -0.2498 -0.5745  1.3370
 1691SOL    HW213852  11.007   0.634   6.866 -0.1884 -0.3516  0.1522
 1692SOL     OW13853   5.254  11.020   7.561  0.4494 -0.0611  0.0664
 1692SOL    HW113854   5.329  11.073   7.586 -1.4020  2.8886 -0.1411
 1692SOL    HW213855   5.201  11.015   7.640  0.0839 -0.7132 -0.2145
 1693SOL     OW13856  10.560  11.027   9.950 -0.0725 -0.3212  0.1268
 1693SOL    HW113857  10.525  11.083  10.019 -0.4437 -1.5784  0.9940
 1693SOL    HW213858  10.638  11.073   9.919  0.7618 -0.2373  2.1772
 1694SOL     OW13859   0.870   5.800   3.469 -0.1132  0.0346 -0.2031
 1694SOL    HW113860   0.862   5.837   3.557 -0.2081  1.1336 -0.6574
 1694SOL    HW213861   0.824   5.862   3.413 -2.5638 -2.0601 -0.7147
 1695SOL     OW13862  11.769   3.793   1.087 -0.7332  0.1013 -0.2978
 1695SOL    HW113863  11.780   3.708   1.043 -1.2104  0.1042 -0.4256
 1695SOL    HW213864  11.811   3.856   1.027 -0.2633 -0.0564 -0.1408
 1696SOL     OW13865   0.274   5.261  11.130  0.1876  0.9142 -0.1491
 1696SOL    HW113866   0.335   5.190  11.151 -2.3993 -1.4359  0.0671
 1696SOL    HW213867   0.230   5.280  11.213  0.2074  2.1630 -0.4033
 1697SOL     OW13868   4.759   4.657   8.315  0.4484  0.2306 -0.2997
 1697SOL    HW113869   4.824   4.652   8.385 -0.3023 -0.3182  0.3897
 1697SOL    HW213870   4.685   4.703   8.355  0.2247  0.4179 -0.9193
 1698SOL     OW13871   3.750   6.020  10.316 -0.4748 -0.0408 -0.0788
 1698SOL    HW113872   3.722   5.987  10.401  0.1392  2.4017  1.1357
 1698SOL    HW213873   3.699   6.100  10.303  1.8744  1.4814 -0.3685
 1699SOL     OW13874   6.204   6.469   4.269 -0.4236  0.7267 -0.0826
 1699SOL    HW113875   6.216   6.378   4.297  0.4296  1.2148  1.2229
 1699SOL    HW213876   6.264   6.480   4.195 -0.2750  0.3363 -0.0202
 1700SOL     OW13877   8.262   4.916   0.610 -0.3511  0.2167 -0.0328
 1700SOL    HW113878   8.283   4.831   0.569 -0.4270  1.7149 -3.5456
 1700SOL    HW213879   8.236   4.893   0.699 -1.3536 -3.5722 -1.0907
 1701SOL     OW13880   3.407   3.788   2.599 -0.2632 -0.3536 -0.4955
 1701SOL    HW113881   3.462   3.720   2.560 -1.1574 -1.0291 -0.6071
 1701SOL    HW213882   3.413   3.773   2.693 -0.7496 -0.8171 -0.5380
 1702SOL     OW13883   8.059   5.014   3.361  0.1452 -0.0973  0.2230
 1702SOL    HW113884   8.039   4.937   3.415  2.3177 -1.6312 -0.9955
 1702SOL    HW213885   7.977   5.062   3.356 -0.7133 -1.0466  2.9992
 1703SOL     OW13886   7.088   2.642   1.714 -0.0849 -0.5686  0.3426
 1703SOL    HW113887   7.146   2.571   1.686  1.1192  0.4247  0.2284
 1703SOL    HW213888   7.024   2.650   1.643 -1.7874 -3.1375  1.4570
 1704SOL     OW13889   0.447   0.312  10.299 -0.5431  0.2427  0.8720
 1704SOL    HW113890   0.517   0.246  10.302  0.3260  0.9863 -1.1930
 1704SOL    HW213891   0.375   0.267  10.255 -0.0825  0.5289 -0.1991
 1705SOL     OW13892   1.399   6.520   8.148  0.5793 -0.0640 -0.1872
 1705SOL    HW113893   1.355   6.484   8.226 -0.8226 -2.0565 -1.7871
 1705SOL    HW213894   1.466   6.456   8.126  0.2168 -0.1006 -1.2474
 1706SOL     OW13895   3.746   1.874   0.403  0.5743 -0.0624  0.5386
 1706SOL    HW113896   3.796   1.953   0.382 -1.6990  1.3402 -0.0077
 1706SOL    HW213897   3.675   1.873   0.338  0.2647 -2.3172  0.8352
 1707SOL     OW13898   8.984   2.171   6.679 -0.0079  0.0184  0.4702
 1707SOL    HW113899   8.998   2.261   6.652 -1.2460  0.1325  0.1374
 1707SOL    HW213900   9.014   2.168   6.770  1.0270  0.4789  0.1607
 1708SOL     OW13901   4.691   9.285   2.320  0.4647  0.5369  0.3955
 1708SOL    HW113902   4.622   9.334   2.365  0.1809 -0.6216  1.2719
 1708SOL    HW213903   4.761   9.276   2.384  1.4095  1.5906 -0.4464
 1709SOL     OW13904   0.162   4.670   1.280 -0.8349 -0.4072  0.2422
 1709SOL    HW113905   0.123   4.672   1.193 -2.2235  2.0141  0.8422
 1709SOL    HW213906   0.241   4.723   1.272 -0.4836 -0.9121  0.2845
 1710SOL     OW13907  12.609   7.566   3.084  0.0262 -0.1171  0.6477
 1710SOL    HW113908  12.580   7.655   3.064  0.2238 -0.3507 -0.7728
 1710SOL    HW213909  12.529   7.521   3.113 -0.4766  0.0068 -0.5042
 1711SOL     OW13910   1.960   4.620   9.716  0.6983  0.1833  0.3476
 1711SOL    HW113911   1.867   4.597   9.722 -0.0050  2.6445  0.1140
 1711SOL    HW213912   2.000   4.545   9.672 -1.2855 -0.6737 -0.1354
 1712SOL     OW13913  12.107   4.894   9.021 -0.0686 -0.5276  0.0998
 1712SOL    HW113914  12.127   4.839   9.096 -0.8017 -2.0151 -0.7493
 1712SOL    HW213915  12.036   4.848   8.976 -0.4980  0.9690 -0.8134
 1713SOL     OW13916  10.865   9.366   0.388  0.0176 -0.3654 -0.0942
 1713SOL    HW113917  10.917   9.328   0.459  0.0847  1.7641  1.0741
 1713SOL    HW213918  10.814   9.435   0.430 -1.2767 -0.2050 -1.8266
 1714SOL     OW13919   4.294   9.302   1.133 -0.4537 -0.0022  0.1441
 1714SOL    HW113920   4.334   9.353   1.203  2.4823 -1.1635 -0.5689
 1714SOL    HW213921   4.287   9.363   1.060 -2.9430  1.0348  1.1267
 1715SOL     OW13922   4.513  11.325   7.490 -0.0314  0.1666  0.0091
 1715SOL    HW113923   4.460  11.381   7.547  1.7318  0.4578  1.4389
 1715SOL    HW213924   4.535  11.250   7.545  1.6872  0.4439 -0.2349
 1716SOL     OW13925   5.256   8.298   8.370 -0.5617  0.8901 -0.4071
 1716SOL    HW113926   5.300   8.261   8.446 -0.0755 -2.6018 -2.1650
 1716SOL    HW213927   5.210   8.223   8.331 -2.1531  2.8840 -2.6260
 1717SOL     OW13928   7.331   3.026   1.903 -0.3698 -1.1512  0.2862
 1717SOL    HW113929   7.341   3.100   1.843  0.5394 -0.0656  1.7073
 1717SOL    HW213930   7.247   2.987   1.880 -1.2408  0.8078  0.0031
 1718SOL     OW13931   9.764   4.895  10.452  0.6655 -0.1272  0.2069
 1718SOL    HW113932   9.830   4.939  10.399 -0.6266 -0.2576 -1.5708
 1718SOL    HW213933   9.728   4.963  10.508 -2.3094  1.6433 -3.4610
 1719SOL     OW13934   6.965   9.009   5.980 -0.3869  0.2123 -0.5321
 1719SOL    HW113935   6.983   8.948   5.908 -1.9666 -0.7517 -0.1653
 1719SOL    HW213936   6.948   8.952   6.055 -2.0734  1.0747 -0.2158
 1720SOL     OW13937   2.272   6.876   0.749  0.0889 -0.4677  0.7595
 1720SOL    HW113938   2.316   6.802   0.791  1.5778 -0.3920 -0.5681
 1720SOL    HW213939   2.325   6.952   0.775 -0.5088 -0.0752  0.8375
 1721SOL     OW13940   3.338   1.219   2.100 -0.5853 -0.4876  0.3596
 1721SOL    HW113941   3.272   1.168   2.053 -0.3046  0.4879 -1.1633
 1721SOL    HW213942   3.421   1.191   2.061 -0.5259  2.6503 -2.2570
 1722SOL     OW13943   6.440   7.885   2.958 -0.5158  0.0227  0.2817
 1722SOL    HW113944   6.442   7.978   2.978 -0.1904  0.9600 -3.3567
 1722SOL    HW213945   6.532   7.859   2.956 -0.4414  0.3057 -1.1001
 1723SOL     OW13946   1.074  10.066   6.220 -0.4613  0.0834  0.4293
 1723SOL    HW113947   1.132  10.025   6.283  0.9062 -0.0004 -0.8267
 1723SOL    HW213948   0.989  10.068   6.263  0.4384  0.1241  2.2881
 1724SOL     OW13949  12.157   8.173   4.240  0.2856  0.5324 -0.5601
 1724SOL    HW113950  12.135   8.108   4.173  0.1200  0.8779 -0.8471
 1724SOL    HW213951  12.252   8.178   4.237  0.3076  0.2018 -0.4397
 1725SOL     OW13952   3.683   3.876   3.342 -0.4653 -0.1815  0.0029
 1725SOL    HW113953   3.716   3.966   3.344  0.1627 -0.4172  0.2882
 1725SOL    HW213954   3.628   3.869   3.420 -0.6938  0.0240 -0.1401
 1726SOL     OW13955   0.825   9.136   3.355  0.2647 -0.4561 -0.3351
 1726SOL    HW113956   0.840   9.093   3.439  1.9184 -1.1392 -0.9450
 1726SOL    HW213957   0.786   9.068   3.300  0.1837 -0.3196 -0.4472
 1727SOL     OW13958   9.520   0.235   5.677 -0.1164  0.1300  0.0276
 1727SOL    HW113959   9.611   0.222   5.651  1.0682  2.9287  2.1608
 1727SOL    HW213960   9.484   0.292   5.608  0.8490  1.7479  0.7850
 1728SOL     OW13961   3.355   3.059   0.154  0.1313  0.3963  0.3015
 1728SOL    HW113962   3.290   3.079   0.087 -1.7681 -1.4056  1.4975
 1728SOL    HW213963   3.357   3.136   0.210  1.3872  1.7268 -1.4601
 1729SOL     OW13964   2.645  12.022   8.226  0.5276  0.0286  0.3539
 1729SOL    HW113965   2.730  12.023   8.270  0.2548  1.0585  0.8688
 1729SOL    HW213966   2.655  12.080   8.151  0.5075 -0.4742 -0.0485
 1730SOL     OW13967   1.104   8.340   2.939  0.1796  0.2866  0.0201
 1730SOL    HW113968   1.174   8.295   2.892  0.2446  0.1965  0.2031
 1730SOL    HW213969   1.032   8.278   2.939  0.5476 -0.1612  1.0096
 1731SOL     OW13970  12.328   4.400   9.070 -0.1803  0.3029  0.0354
 1731SOL    HW113971  12.361   4.425   8.983 -2.7233 -0.0473 -1.1180
 1731SOL    HW213972  12.318   4.483   9.116  0.1229  0.5956 -0.4105
 1732SOL     OW13973  11.413  12.522   3.184  0.1566 -0.1717  0.0228
 1732SOL    HW113974  11.502  12.524   3.218 -0.2129 -2.2222  1.3208
 1732SOL    HW213975  11.421  12.482   3.097  0.7406  2.1241 -1.0543
 1733SOL     OW13976  11.806   6.805   7.374 -0.8046 -0.1404 -0.0424
 1733SOL    HW113977  11.871   6.749   7.416 -0.9174  0.1430  0.5200
 1733SOL    HW213978  11.722   6.768   7.402 -0.8788  0.1751  0.1552
 1734SOL     OW13979   2.523   6.654   0.235 -0.4220 -0.0682 -0.1604
 1734SOL    HW113980   2.522   6.750   0.228  1.0856  0.1858  2.2009
 1734SOL    HW213981   2.616   6.631   0.239 -0.7822 -1.4486  1.1187
 1735SOL     OW13982   5.717   7.261  12.453 -0.5080 -0.0136 -0.1481
 1735SOL    HW113983   5.677   7.346  12.471 -0.9765 -0.6264  1.9946
 1735SOL    HW213984   5.805   7.267  12.490 -1.1458 -0.9764  1.6769
 1736SOL     OW13985   0.469   7.470   8.248  0.1065  0.0215  0.4275
 1736SOL    HW113986   0.425   7.394   8.210  0.9369  0.5337 -1.7219
 1736SOL    HW213987   0.505   7.517   8.173  0.7254  1.8598  1.7923
 1737SOL     OW13988   8.731   3.395  11.559 -0.2075  0.1552 -0.2399
 1737SOL    HW113989   8.719   3.304  11.583 -0.3293  0.1137 -0.4535
 1737SOL    HW213990   8.656   3.416  11.502 -0.9482  0.7991  0.9417
 1738SOL     OW13991   9.803   2.792  11.017 -0.5906 -0.8130 -0.5259
 1738SOL    HW113992   9.884   2.841  11.001 -0.5695 -0.9841 -0.9649
 1738SOL    HW213993   9.734   2.859  11.015 -0.4453 -0.6462  0.0043
 1739SOL     OW13994   3.910   0.213   1.287 -0.3508 -0.1854 -0.4415
 1739SOL    HW113995   3.915   0.261   1.204 -1.6791  0.6276 -0.0898
 1739SOL    HW213996   3.816   0.205   1.304 -0.1147  0.8193  1.6140
 1740SOL     OW13997  10.850  11.361  11.727 -0.3878  0.0458 -0.2593
 1740SOL    HW113998  10.776  11.407  11.767  0.6155 -0.0463  1.8527
 1740SOL    HW213999  10.926  11.387  11.780  1.0168 -0.3628 -1.9555
 1741SOL     OW14000   3.831   7.435   6.197 -0.7359  0.1524 -0.3320
 1741SOL    HW114001   3.834   7.508   6.259  1.5376 -1.0705  1.1254
 1741SOL    HW214002   3.738   7.428   6.173 -1.0225  3.5869 -0.6992
 1742SOL     OW14003   8.058  11.510   2.003  0.7956 -0.2592 -0.1113
 1742SOL    HW114004   8.062  11.426   2.050 -1.9009 -0.3259  0.1787
 1742SOL    HW214005   7.971  11.545   2.024  1.4973  2.2156 -0.9356
 1743SOL     OW14006   2.074  11.381   2.161 -0.5407 -0.4723 -0.3473
 1743SOL    HW114007   2.131  11.308   2.183  1.6995  1.0759 -0.6878
 1743SOL    HW214008   2.080  11.441   2.236 -2.0686 -0.4428 -0.2147
 1744SOL     OW14009   6.016  11.372  10.742  0.1533 -0.0225 -0.3140
 1744SOL    HW114010   5.986  11.417  10.662 -0.1088 -1.6550 -1.1840
 1744SOL    HW214011   5.941  11.376  10.801  0.6952  2.1213  0.3216
 1745SOL     OW14012   5.669   2.417  10.637 -0.0224 -0.1781  0.4834
 1745SOL    HW114013   5.743   2.466  10.673  1.3539 -2.8463  1.5801
 1745SOL    HW214014   5.675   2.331  10.677 -1.7176 -1.6146 -2.0186
 1746SOL     OW14015   3.478   1.430  10.523  0.1758 -0.5042 -0.3472
 1746SOL    HW114016   3.455   1.350  10.476 -3.1266  0.3376 -0.4080
 1746SOL    HW214017   3.465   1.407  10.616 -0.2131 -0.2354 -0.3310
 1747SOL     OW14018   9.579   3.851   6.092 -0.5436 -0.4692  0.2067
 1747SOL    HW114019   9.659   3.840   6.143 -0.4597 -1.2507 -0.0887
 1747SOL    HW214020   9.564   3.766   6.051 -0.4708  0.1998 -1.2601
 1748SOL     OW14021   8.125  10.042   2.137 -0.7270  0.2019  0.1788
 1748SOL    HW114022   8.159   9.954   2.120 -0.3523  0.5196 -0.7943
 1748SOL    HW214023   8.089  10.037   2.225 -1.5316 -1.1788 -0.1992
 1749SOL     OW14024   0.239   2.067  12.314  0.5241 -0.8636 -0.3543
 1749SOL    HW114025   0.331   2.040  12.309  1.0418  0.7966 -0.5620
 1749SOL    HW214026   0.211   2.075  12.223  0.8286  0.6231 -0.3408
 1750SOL     OW14027   4.345   1.846   1.537  0.2048  0.5630  0.9151
 1750SOL    HW114028   4.334   1.926   1.589  0.1706  0.6788  0.7290
 1750SOL    HW214029   4.257   1.829   1.501  0.2803  0.6135  0.7049
 1751SOL     OW14030   1.625   8.368   9.214  0.7142  0.4382  0.7509
 1751SOL    HW114031   1.624   8.399   9.123 -0.0625 -0.1595  0.5374
 1751SOL    HW214032   1.552   8.306   9.218  1.2744 -0.1828  1.5619
 1752SOL     OW14033   7.652   5.723  12.559 -0.0372 -0.2123  0.2474
 1752SOL    HW114034   7.668   5.817  12.560  3.6482 -0.7060  0.3714
 1752SOL    HW214035   7.682   5.693  12.645  0.8694 -1.7191 -0.5579
 1753SOL     OW14036   4.643   6.963   5.730 -0.6840 -0.2840 -0.6241
 1753SOL    HW114037   4.728   6.944   5.770 -0.3454 -0.3887 -1.3651
 1753SOL    HW214038   4.646   7.057   5.712 -1.4052  0.0483  0.8719
 1754SOL     OW14039  10.195   2.710   7.960 -0.0907  0.0830 -0.4963
 1754SOL    HW114040  10.180   2.799   7.992 -1.3113 -0.6849  1.2339
 1754SOL    HW214041  10.185   2.654   8.037 -1.0690 -1.7089 -1.8255
 1755SOL     OW14042   9.136   9.257   0.383 -0.3657  0.1736 -0.2144
 1755SOL    HW114043   9.068   9.246   0.317 -0.3754  3.3512 -0.8695
 1755SOL    HW214044   9.091   9.236   0.466 -1.8243  1.0535 -0.7422
 1756SOL     OW14045   9.165   8.731  11.459  0.1785 -0.2440  0.2671
 1756SOL    HW114046   9.070   8.737  11.452  0.2870  0.0804 -1.2155
 1756SOL    HW214047   9.198   8.803  11.405  1.2747 -0.5065  0.5565
 1757SOL     OW14048   7.982   7.919   2.887  0.1036 -0.0093  0.0124
 1757SOL    HW114049   7.945   8.000   2.852  3.4666  2.6033  1.8483
 1757SOL    HW214050   8.077   7.931   2.880  0.7759 -3.2425  1.6272
 1758SOL     OW14051   0.485   4.904  10.986  0.2787  0.1924  0.3007
 1758SOL    HW114052   0.525   4.902  10.899  2.6558 -0.3966  1.3302
 1758SOL    HW214053   0.485   4.813  11.015 -1.5561  0.2114  0.5169
 1759SOL     OW14054   1.880   4.618   6.149  0.0901 -0.1817 -0.4073
 1759SOL    HW114055   1.974   4.640   6.153  0.3976 -1.5679  0.3528
 1759SOL    HW214056   1.838   4.702   6.129  1.4597  0.5288 -0.4921
 1760SOL     OW14057   3.128   8.765  10.350 -0.0594  0.5148 -0.0565
 1760SOL    HW114058   3.093   8.799  10.432  0.2575  1.8093 -0.4303
 1760SOL    HW214059   3.052   8.758  10.293 -0.0396  1.2837 -0.1916
 1761SOL     OW14060   0.698   0.484   1.759 -0.3259  0.0232 -0.4357
 1761SOL    HW114061   0.681   0.556   1.820  0.1781  1.6541 -2.1092
 1761SOL    HW214062   0.661   0.407   1.801  2.8192  0.3578  3.4602
 1762SOL     OW14063   9.761   0.155   8.553  0.0653 -0.3014 -0.3772
 1762SOL    HW114064   9.727   0.085   8.608 -0.6760  0.4939  0.2035
 1762SOL    HW214065   9.684   0.194   8.512  0.3966  0.5679 -0.2097
 1763SOL     OW14066   8.442  10.638   3.580  0.6712  0.8050  0.3723
 1763SOL    HW114067   8.352  10.669   3.579  0.4793  0.2296 -0.4092
 1763SOL    HW214068   8.476  10.659   3.493  0.9977  0.1758  0.3424
 1764SOL     OW14069   9.582   3.395   5.285 -0.5291  0.1872 -0.3526
 1764SOL    HW114070   9.648   3.460   5.308 -0.1712 -0.9063  2.1155
 1764SOL    HW214071   9.503   3.423   5.332 -0.3966 -1.0262  0.6537
 1765SOL     OW14072  11.378   7.351   7.209  0.4894  0.6440  0.2571
 1765SOL    HW114073  11.419   7.316   7.288 -0.8406  0.3821  0.8642
 1765SOL    HW214074  11.403   7.289   7.140  1.9441  1.0668  0.3824
 1766SOL     OW14075   2.647  10.997  10.950 -0.6237 -0.0285 -0.1622
 1766SOL    HW114076   2.570  10.946  10.977 -1.9825  0.1735 -3.2444
 1766SOL    HW214077   2.722  10.945  10.982 -1.9833 -1.2937  1.1465
 1767SOL     OW14078  10.350   4.780   1.698 -0.0807  0.5290 -0.0875
 1767SOL    HW114079  10.443   4.782   1.678 -0.3159  1.2765 -1.1974
 1767SOL    HW214080  10.345   4.752   1.790  1.1792 -0.3555 -0.2714
 1768SOL     OW14081   8.653   3.457   2.655 -0.5741 -1.0134  0.0485
 1768SOL    HW114082   8.625   3.393   2.721  0.8822 -1.8758 -0.1455
 1768SOL    HW214083   8.571   3.490   2.618 -1.5955  0.9286  3.5539
 1769SOL     OW14084   5.213   5.680   9.371  0.7588  0.0538  0.0441
 1769SOL    HW114085   5.213   5.760   9.319 -0.1911  0.9668  1.3570
 1769SOL    HW214086   5.134   5.634   9.343  0.4389  0.3751  0.3908
 1770SOL     OW14087   3.807  11.126   7.751 -0.1565 -0.3015  0.0216
 1770SOL    HW114088   3.902  11.126   7.755 -0.1747 -0.3251  0.6249
 1770SOL    HW214089   3.784  11.034   7.739 -0.1336 -0.4571  1.0918
 1771SOL     OW14090   3.436   7.295   0.362 -0.1827  0.5007  0.1542
 1771SOL    HW114091   3.447   7.201   0.351 -0.5826  0.6778 -2.2160
 1771SOL    HW214092   3.507   7.334   0.312 -0.7736  1.4549  0.0277
 1772SOL     OW14093   7.824   4.436   9.570 -0.1398  0.2888  0.0153
 1772SOL    HW114094   7.805   4.409   9.660  1.1142  2.7887  1.1343
 1772SOL    HW214095   7.912   4.402   9.553 -0.3670 -0.1620 -0.2591
 1773SOL     OW14096   0.707   1.216  10.872  0.1778  0.0042  0.3309
 1773SOL    HW114097   0.733   1.161  10.946  1.4409  0.8991  0.5736
 1773SOL    HW214098   0.668   1.154  10.809 -0.5016 -0.8280  1.5259
 1774SOL     OW14099   3.780   7.500  10.269 -0.7010 -0.1767  0.1110
 1774SOL    HW114100   3.721   7.566  10.233  0.0093  0.0849 -0.6015
 1774SOL    HW214101   3.855   7.499  10.209  0.9154  0.8525  1.9924
 1775SOL     OW14102   3.489   6.423   9.975 -0.5894  0.2682 -0.1187
 1775SOL    HW114103   3.427   6.477   9.926 -0.0592  1.5212  0.5559
 1775SOL    HW214104   3.467   6.438  10.067  1.7520  2.1481  0.2517
 1776SOL     OW14105   5.034   2.355   4.854 -0.2754  0.1828 -0.3988
 1776SOL    HW114106   5.040   2.299   4.777  0.0462 -0.7377  0.2800
 1776SOL    HW214107   5.050   2.443   4.821  2.4244 -0.4522 -1.0395
 1777SOL     OW14108  11.483   5.214   5.605 -0.5729 -0.1136  0.7195
 1777SOL    HW114109  11.571   5.250   5.610  0.0186 -1.2904 -0.6134
 1777SOL    HW214110  11.431   5.269   5.665  0.9809  0.7695  1.3094
 1778SOL     OW14111   1.399  11.072   7.668  0.2065 -0.4134  0.6331
 1778SOL    HW114112   1.420  10.984   7.700  1.4759 -0.2006  0.4273
 1778SOL    HW214113   1.483  11.108   7.639 -0.3373  0.7704  0.4636
 1779SOL     OW14114   2.690   8.429   8.706 -0.0740  0.0183 -0.0708
 1779SOL    HW114115   2.670   8.512   8.750  0.2149 -0.8037  1.6909
 1779SOL    HW214116   2.759   8.451   8.643  0.0820  1.0981  0.4609
 1780SOL     OW14117   7.443   1.124   2.503 -0.0689  0.4929  0.5586
 1780SOL    HW114118   7.472   1.034   2.521 -2.9206 -1.4421 -3.0499
 1780SOL    HW214119   7.358   1.131   2.545 -1.6081 -0.0713 -2.1875
 1781SOL     OW14120   8.360   1.118  11.600 -0.0760 -0.1291  0.1472
 1781SOL    HW114121   8.378   1.168  11.521  0.0011 -0.5017 -0.0696
 1781SOL    HW214122   8.409   1.037  11.590 -1.6357 -1.0586 -0.3365
 1782SOL     OW14123  11.664   2.948   7.972  0.1000 -0.6583  0.7765
 1782SOL    HW114124  11.620   3.025   8.008  0.2366 -0.3034  0.1938
 1782SOL    HW214125  11.605   2.875   7.990 -0.0200 -0.4200  1.3518
 1783SOL     OW14126   1.514  11.395  12.198  0.8014  0.1671 -0.2460
 1783SOL    HW114127   1.607  11.407  12.179  0.6404 -0.7117 -1.6910
 1783SOL    HW214128   1.497  11.303  12.179  0.3115 -0.5480  3.1175
 1784SOL     OW14129   6.870  10.793   0.947  0.3751  0.0704 -0.2410
 1784SOL    HW114130   6.823  10.869   0.982  1.8922  0.4156  1.1433
 1784SOL    HW214131   6.841  10.788   0.855 -0.5265  1.6883 -0.0949
 1785SOL     OW14132   3.226   7.051   8.219  0.3443  0.2815 -0.4908
 1785SOL    HW114133   3.238   7.004   8.301  1.7849  2.2563  0.5101
 1785SOL    HW214134   3.235   7.143   8.242  0.0077  0.9531 -2.7489
 1786SOL     OW14135   0.812   9.178   6.350 -0.3237 -0.1723 -0.4256
 1786SOL    HW114136   0.830   9.091   6.314 -0.5754  0.4543 -2.1519
 1786SOL    HW214137   0.761   9.161   6.429  1.4640 -1.6696  0.4833
 1787SOL     OW14138  10.671   6.599   5.977 -0.1739 -0.5452 -0.4749
 1787SOL    HW114139  10.597   6.576   5.921 -1.9690 -1.9306  2.2018
 1787SOL    HW214140  10.630   6.643   6.052  1.9468  0.1590  0.3470
 1788SOL     OW14141  12.139   9.655   0.249  0.2589  0.3457  0.2642
 1788SOL    HW114142  12.052   9.647   0.210  1.3344  0.6216 -2.3729
 1788SOL    HW214143  12.159   9.748   0.242  1.1469  0.1374 -0.0445
 1789SOL     OW14144  10.420  11.574   8.523  0.5579 -0.1945  0.0287
 1789SOL    HW114145  10.397  11.511   8.591  0.5142 -1.0528 -0.7670
 1789SOL    HW214146  10.514  11.561   8.508  0.3870 -0.6339 -0.6960
 1790SOL     OW14147   0.154  11.236   9.171  0.4936  0.5393 -0.1972
 1790SOL    HW114148   0.215  11.163   9.161  0.7862  0.7921 -0.2792
 1790SOL    HW214149   0.135  11.238   9.265  1.1157  0.8529 -0.0685
 1791SOL     OW14150   5.718   4.936   0.267  0.4801 -0.3279 -0.0201
 1791SOL    HW114151   5.769   5.012   0.296  0.3207 -0.0652 -0.4217
 1791SOL    HW214152   5.648   4.929   0.332  0.7771 -0.4311  0.2931
 1792SOL     OW14153   3.614   4.430   5.516  0.1993  0.3076 -0.0737
 1792SOL    HW114154   3.563   4.437   5.434 -0.5549  0.3666  0.3867
 1792SOL    HW214155   3.577   4.354   5.560  0.2363  0.5926  0.4538
 1793SOL     OW14156   6.833  11.436   8.581  0.4891 -0.8095  0.1009
 1793SOL    HW114157   6.744  11.400   8.585  0.5415 -1.0015 -0.3278
 1793SOL    HW214158   6.857  11.429   8.488  0.2751  0.9066 -0.1023
 1794SOL     OW14159   5.836   2.247  10.077 -0.2099 -1.0106  0.4430
 1794SOL    HW114160   5.894   2.244  10.001  1.4404  0.4288  1.5492
 1794SOL    HW214161   5.762   2.301  10.048  1.4263  1.3602  0.4159
 1795SOL     OW14162   3.732   6.750   1.694  0.2436 -0.1852  0.5120
 1795SOL    HW114163   3.679   6.681   1.734  0.4793 -0.7794 -0.1732
 1795SOL    HW214164   3.742   6.722   1.603 -0.3788  1.1901 -0.0090
 1796SOL     OW14165   6.650   6.654   4.460  0.1163  0.2901  0.1443
 1796SOL    HW114166   6.602   6.580   4.496 -2.7608  1.7820 -0.3458
 1796SOL    HW214167   6.732   6.656   4.510 -0.0350 -2.7008  0.6639
 1797SOL     OW14168   3.934   8.256  10.198 -0.1363 -0.0223 -0.3466
 1797SOL    HW114169   4.008   8.230  10.144 -0.4044  2.5179 -2.1095
 1797SOL    HW214170   3.862   8.200  10.169  0.3132 -0.3090 -0.9283
 1798SOL     OW14171   7.878   4.178   6.797 -0.1465 -0.6008  0.1001
 1798SOL    HW114172   7.919   4.228   6.869  1.8761 -1.7626 -0.1624
 1798SOL    HW214173   7.864   4.091   6.834 -1.8424 -0.4259 -0.0499
 1799SOL     OW14174   9.679   5.621   1.650 -0.3226 -0.2842 -0.2415
 1799SOL    HW114175   9.664   5.640   1.743  2.7276 -3.1533  1.0702
 1799SOL    HW214176   9.774   5.607   1.644 -0.0359  1.9548 -4.3340
 1800SOL     OW14177  10.056  11.822   3.246  0.1950 -0.5545  0.3219
 1800SOL    HW114178  10.151  11.832   3.255  0.1616 -0.6559  0.8804
 1800SOL    HW214179  10.029  11.781   3.329 -0.7336  2.1439  1.4667
 1801SOL     OW14180   3.491  12.137   2.466 -0.4139  0.6735 -0.9051
 1801SOL    HW114181   3.526  12.158   2.553 -1.3359 -0.9574 -0.0929
 1801SOL    HW214182   3.396  12.136   2.478 -0.5274 -0.2897 -1.7347
 1802SOL     OW14183   1.309   2.800   2.220  0.2600  0.2394  0.4639
 1802SOL    HW114184   1.277   2.759   2.300  1.0299 -0.7919  0.2763
 1802SOL    HW214185   1.389   2.751   2.198 -0.9861 -0.8608 -2.0266
 1803SOL     OW14186   1.364   7.546  12.439  0.1080  0.6951  0.3967
 1803SOL    HW114187   1.438   7.582  12.389  0.3540  1.7641  1.5105
 1803SOL    HW214188   1.322   7.621  12.478 -0.5409 -0.0666  1.1945
 1804SOL     OW14189  10.637   1.806   6.971 -0.1208  0.4452  0.2089
 1804SOL    HW114190  10.624   1.824   7.064 -0.0200 -0.1759  0.3538
 1804SOL    HW214191  10.648   1.892   6.930 -1.3335  0.7875  0.5833
 1805SOL     OW14192   5.158   3.674   9.336  0.0449  0.2843  0.0384
 1805SOL    HW114193   5.241   3.631   9.319  0.4642  0.4727  1.4799
 1805SOL    HW214194   5.148   3.671   9.431 -2.2090 -0.8378 -0.1673
 1806SOL     OW14195   9.758   4.860   4.465 -0.0887  0.2617  0.1890
 1806SOL    HW114196   9.703   4.939   4.460 -0.3497  0.1086  0.6188
 1806SOL    HW214197   9.828   4.884   4.526  1.0207  0.8686 -1.2572
 1807SOL     OW14198   4.965   4.531  11.829  0.1532 -0.1690 -0.1066
 1807SOL    HW114199   4.981   4.501  11.739 -1.1421  0.5469 -0.5983
 1807SOL    HW214200   5.030   4.600  11.843 -0.4854  0.6366 -0.9859
 1808SOL     OW14201   1.229   6.270   3.579 -0.0924 -0.0305  0.4127
 1808SOL    HW114202   1.287   6.216   3.631  2.4728  0.4487 -1.6955
 1808SOL    HW214203   1.185   6.209   3.520  3.4080 -0.0255 -2.5350
 1809SOL     OW14204   8.095   8.969  10.974 -0.1813 -0.6909 -0.2034
 1809SOL    HW114205   8.099   9.017  10.892 -0.1574  0.6115  0.5231
 1809SOL    HW214206   8.038   9.022  11.030  0.3586 -1.1805  0.8502
 1810SOL     OW14207   2.060   5.991   6.423 -0.6380  0.4552 -0.2994
 1810SOL    HW114208   2.070   5.912   6.475 -1.3280  0.9866  0.6934
 1810SOL    HW214209   2.147   6.031   6.422 -0.4140 -0.0255 -0.3397
 1811SOL     OW14210   8.290   4.073  11.235 -0.3498  0.9535  0.6732
 1811SOL    HW114211   8.201   4.099  11.258 -0.4614  0.4436  0.8340
 1811SOL    HW214212   8.309   3.999  11.292  0.0887  0.9070  0.4708
 1812SOL     OW14213  11.008   7.031  12.092 -0.7417  0.2874  0.0532
 1812SOL    HW114214  10.969   6.993  12.014  1.7546 -0.4116 -0.9434
 1812SOL    HW214215  11.066   7.099  12.060 -1.8117  1.9912  1.5403
 1813SOL     OW14216   7.305   5.756   9.421 -0.5642  0.2030 -0.0023
 1813SOL    HW114217   7.390   5.712   9.411 -0.2155  0.8090  0.3068
 1813SOL    HW214218   7.265   5.714   9.497  0.2644  1.1917  1.0148
 1814SOL     OW14219  11.677   9.920   1.583  0.0178  0.0541  0.0020
 1814SOL    HW114220  11.736   9.845   1.572  1.0922  0.3862  2.7425
 1814SOL    HW214221  11.730   9.996   1.561 -0.3011  0.1898 -0.3146
 1815SOL     OW14222   4.757  11.554   7.579 -0.3077 -0.5199 -0.6000
 1815SOL    HW114223   4.715  11.469   7.568 -0.3876 -0.6494  0.6275
 1815SOL    HW214224   4.803  11.548   7.662  0.3573  0.3676 -0.8922
 1816SOL     OW14225   0.013  11.409   3.695  0.0371  0.2499  0.3072
 1816SOL    HW114226   0.031  11.344   3.763 -1.2749 -0.9352 -0.4373
 1816SOL    HW214227   0.060  11.377   3.618  0.7468  1.0938  0.3716
 1817SOL     OW14228   2.666   6.652   9.691  0.2000  0.4392  0.4849
 1817SOL    HW114229   2.575   6.679   9.689 -0.0528 -0.3915  0.7101
 1817SOL    HW214230   2.706   6.699   9.617 -0.9321 -1.0247 -1.1524
 1818SOL     OW14231  10.272   3.356   0.809 -0.1584 -0.2404 -0.1957
 1818SOL    HW114232  10.333   3.375   0.880 -0.4891  0.8611 -0.1799
 1818SOL    HW214233  10.311   3.396   0.732  1.1300 -3.0447 -1.0869
 1819SOL     OW14234  11.363   5.325   4.996 -0.1868 -0.3868  0.6692
 1819SOL    HW114235  11.384   5.253   5.056  0.8404 -1.0821 -0.4744
 1819SOL    HW214236  11.296   5.376   5.042 -0.1185 -1.4303  1.9872
 1820SOL     OW14237   5.719   5.892  11.934 -0.3243  0.7093 -0.4590
 1820SOL    HW114238   5.728   5.892  12.029  0.9969  0.5591 -0.5549
 1820SOL    HW214239   5.626   5.906  11.918 -0.3134  2.5415  0.8222
 1821SOL     OW14240   9.723   3.233  12.196  0.0446  0.1166 -0.1853
 1821SOL    HW114241   9.705   3.234  12.290 -0.8407  1.6941 -0.3508
 1821SOL    HW214242   9.802   3.180  12.189  0.7685  0.8512  1.5771
 1822SOL     OW14243   9.664   4.778   7.717 -0.0379 -0.3834  0.2981
 1822SOL    HW114244   9.710   4.729   7.649 -1.2068 -0.6814 -0.2969
 1822SOL    HW214245   9.597   4.827   7.670  0.1618  0.6468  1.0620
 1823SOL     OW14246   3.865   8.653  11.029 -0.0529 -0.0174 -0.1705
 1823SOL    HW114247   3.936   8.593  11.053  0.3638  0.9933  1.2893
 1823SOL    HW214248   3.909   8.721  10.977 -0.0315  0.3421  0.3101
 1824SOL     OW14249   9.309  10.902   7.486  0.1672 -0.3859  0.6829
 1824SOL    HW114250   9.286  10.927   7.397 -0.0871  0.4331  0.9671
 1824SOL    HW214251   9.391  10.854   7.477 -0.1903 -0.8845 -0.0510
 1825SOL     OW14252   6.230   4.993   9.974 -0.1640 -0.6972 -0.1912
 1825SOL    HW114253   6.268   5.067   9.926 -0.8471 -1.0288 -1.2728
 1825SOL    HW214254   6.302   4.959  10.027  0.0608  0.9907  0.6643
 1826SOL     OW14255   1.493   3.967   6.611  0.0189 -0.2738  0.0614
 1826SOL    HW114256   1.584   3.978   6.637 -0.0544  1.6193 -0.3059
 1826SOL    HW214257   1.497   3.944   6.518  0.1388  0.1729 -0.0491
 1827SOL     OW14258   0.590   3.433  11.787  0.4188 -0.2347  0.1915
 1827SOL    HW114259   0.551   3.375  11.853  1.5296  1.3355  2.3297
 1827SOL    HW214260   0.533   3.423  11.710 -1.7585 -1.0827  1.8136
 1828SOL     OW14261  11.766   6.011   7.882  1.1854  0.8661  0.0446
 1828SOL    HW114262  11.723   6.083   7.835  2.5990  0.3759 -2.1976
 1828SOL    HW214263  11.765   5.938   7.820  2.5399 -0.0657  1.0526
 1829SOL     OW14264   1.235   2.036   2.853 -0.5786  0.3036  0.5298
 1829SOL    HW114265   1.297   2.109   2.856 -0.1236 -0.1054  2.6422
 1829SOL    HW214266   1.289   1.959   2.833 -1.0973  0.5287 -1.9740
 1830SOL     OW14267   2.569   6.545   7.184 -0.1356 -0.3026 -0.1717
 1830SOL    HW114268   2.555   6.473   7.245 -0.8687  0.6608  0.8533
 1830SOL    HW214269   2.651   6.585   7.212  0.1120 -0.5433 -0.5444
 1831SOL     OW14270   9.880   5.236   9.182 -0.3501 -0.6455  0.5940
 1831SOL    HW114271   9.807   5.263   9.238  0.9457  1.0082  1.5558
 1831SOL    HW214272   9.839   5.218   9.097 -1.8906  0.1360  1.1402
 1832SOL     OW14273   1.159   3.100   9.277  0.6972  0.0922 -0.0206
 1832SOL    HW114274   1.219   3.158   9.323  1.8577  0.1834 -1.5448
 1832SOL    HW214275   1.215   3.031   9.242 -0.1841 -0.1960 -0.9148
 1833SOL     OW14276   7.426   1.726   1.681  0.1470  0.5084 -0.1806
 1833SOL    HW114277   7.406   1.812   1.716 -3.4527 -0.4817  0.6427
 1833SOL    HW214278   7.379   1.722   1.598 -0.7672 -0.9936  0.3640
 1834SOL     OW14279   7.095   4.686  12.418 -0.7918  0.2581  0.0523
 1834SOL    HW114280   7.190   4.670  12.418 -0.5337  1.5235  1.1979
 1834SOL    HW214281   7.073   4.702  12.327  0.0923 -0.1492 -0.2399
 1835SOL     OW14282   4.014   4.951   2.801  0.1534 -0.6523 -0.2013
 1835SOL    HW114283   4.017   5.000   2.719  1.0973 -0.6785 -0.1894
 1835SOL    HW214284   3.991   4.862   2.776  0.8205 -0.7486 -0.4854
 1836SOL     OW14285   2.109   5.497   6.325 -0.6076  0.2546 -0.1227
 1836SOL    HW114286   2.159   5.571   6.289  0.2381  0.3808  1.2398
 1836SOL    HW214287   2.112   5.431   6.256  2.1852 -0.0506  0.1666
 1837SOL     OW14288   2.376   4.455   8.952 -0.6120 -0.6581  0.3321
 1837SOL    HW114289   2.347   4.544   8.973  2.3368  0.9350 -1.6970
 1837SOL    HW214290   2.383   4.454   8.856  1.1447 -2.4656  0.4225
 1838SOL     OW14291  10.345   9.994   2.053 -0.1941 -0.6349 -0.6715
 1838SOL    HW114292  10.371   9.974   2.143 -1.3983  1.2028  0.1487
 1838SOL    HW214293  10.406  10.063   2.026 -0.0130 -0.9896 -1.1684
 1839SOL     OW14294   2.149   7.617   1.531  0.4306 -0.1326 -0.2227
 1839SOL    HW114295   2.128   7.529   1.562 -1.1593 -0.1929 -1.3495
 1839SOL    HW214296   2.116   7.620   1.441 -0.2443  1.8290  0.0265
 1840SOL     OW14297   8.364   4.213   6.373  0.3061 -0.3665 -0.3229
 1840SOL    HW114298   8.399   4.260   6.297  1.0723  0.6124  0.6172
 1840SOL    HW214299   8.338   4.128   6.337 -0.4284  0.4758 -1.9115
 1841SOL     OW14300  11.327   3.669   2.968 -0.7099 -0.0889 -0.7241
 1841SOL    HW114301  11.309   3.757   3.001 -0.1206  0.5268 -1.9706
 1841SOL    HW214302  11.361   3.684   2.880  1.3638 -1.4559 -0.2015
 1842SOL     OW14303   9.895   6.756  12.183  0.1172  0.2961  0.2670
 1842SOL    HW114304   9.920   6.705  12.260 -0.2987  0.7965  0.7437
 1842SOL    HW214305   9.947   6.836  12.190 -1.6956  1.4602  1.3984
 1843SOL     OW14306   1.475  10.725   6.635 -0.1565  0.1660  0.3943
 1843SOL    HW114307   1.398  10.672   6.617 -0.9019  0.8241  1.4847
 1843SOL    HW214308   1.541  10.694   6.573 -1.6668  0.4359 -1.4630
 1844SOL     OW14309   7.537  11.147  10.471  0.0170 -0.4286 -0.4630
 1844SOL    HW114310   7.557  11.228  10.425 -1.0197 -0.7024 -1.4490
 1844SOL    HW214311   7.568  11.161  10.560 -1.2799  1.5551 -0.2677
 1845SOL     OW14312  10.792   1.895   8.587 -0.3965  0.5591 -0.2419
 1845SOL    HW114313  10.711   1.852   8.615  0.7015 -0.7169  1.1860
 1845SOL    HW214314  10.830   1.929   8.668  1.9536 -1.5575 -0.2939
 1846SOL     OW14315  11.404   3.578  10.291  0.8205 -0.6293  0.0138
 1846SOL    HW114316  11.460   3.561  10.366  0.9345  2.0542  0.6242
 1846SOL    HW214317  11.357   3.658  10.313  1.1677  0.5096 -2.9222
 1847SOL     OW14318   5.916   1.244   3.324 -0.5292  0.1387  0.3443
 1847SOL    HW114319   5.975   1.201   3.386 -0.1475 -1.2644 -0.9260
 1847SOL    HW214320   5.865   1.305   3.378  0.3955 -0.3675  1.8698
 1848SOL     OW14321   2.187  11.351   4.287  0.2028  0.2504 -0.2108
 1848SOL    HW114322   2.120  11.385   4.227  0.4190  0.7990 -0.1463
 1848SOL    HW214323   2.245  11.425   4.303  0.5877 -0.1046  0.0726
 1849SOL     OW14324   5.905  11.119   1.706 -0.0506  0.0780  0.0362
 1849SOL    HW114325   5.887  11.032   1.668  0.1860  0.2540 -0.4970
 1849SOL    HW214326   5.818  11.155   1.724 -0.2943  0.7884 -2.2057
 1850SOL     OW14327   5.863   2.484   1.135  0.7553  0.5290 -0.2057
 1850SOL    HW114328   5.866   2.560   1.193 -0.0570 -1.7248  3.0634
 1850SOL    HW214329   5.955   2.466   1.114  1.6587 -0.9331  3.9994
 1851SOL     OW14330  11.443   6.269  10.514  0.0201  0.2225  0.6405
 1851SOL    HW114331  11.402   6.253  10.429 -1.9839 -2.0909  1.8921
 1851SOL    HW214332  11.537   6.272  10.496 -0.3908  0.9271 -1.7612
 1852SOL     OW14333   1.480   4.015   7.711  0.4822 -0.1430 -0.6001
 1852SOL    HW114334   1.397   3.986   7.672 -0.8700  2.1433  0.3930
 1852SOL    HW214335   1.484   3.971   7.796 -0.9570  1.4937  0.3775
 1853SOL     OW14336  11.759   7.250   2.545  0.0662  0.3862 -0.0698
 1853SOL    HW114337  11.795   7.234   2.458 -0.6960 -0.3515 -0.2649
 1853SOL    HW214338  11.673   7.290   2.528  1.2597  3.3997  0.3892
 1854SOL     OW14339   8.868   3.408   4.344  0.6882 -0.1886  0.0473
 1854SOL    HW114340   8.803   3.467   4.382  1.5306  0.9547 -0.2556
 1854SOL    HW214341   8.816   3.335   4.310 -0.4390  0.6764 -0.1590
 1855SOL     OW14342   5.748   1.452   2.870  0.1475 -0.4079  0.3895
 1855SOL    HW114343   5.842   1.431   2.875  0.4468  0.3419 -1.4559
 1855SOL    HW214344   5.737   1.524   2.933  0.3538 -1.8312  2.1400
 1856SOL     OW14345   0.651   4.855   7.731  0.3675  0.1245 -0.1632
 1856SOL    HW114346   0.646   4.950   7.743 -1.1552  0.1188 -0.4721
 1856SOL    HW214347   0.559   4.827   7.725  0.7682 -1.4604  0.6068
 1857SOL     OW14348   7.287   1.167   0.159  0.2380  0.7055  0.1279
 1857SOL    HW114349   7.335   1.190   0.238 -1.4251  1.3336  0.9883
 1857SOL    HW214350   7.348   1.187   0.088  2.1107 -0.7400  1.2347
 1858SOL     OW14351   3.650   6.942   5.596 -0.0341  0.2633 -0.4967
 1858SOL    HW114352   3.637   6.886   5.519  1.5154  0.6751 -1.0959
 1858SOL    HW214353   3.703   7.015   5.564 -1.4151  1.7364  0.4353
 1859SOL     OW14354   2.792  12.367   0.997  0.6616 -0.6995  0.0938
 1859SOL    HW114355   2.776  12.434   0.931  0.6888 -1.1813 -0.4033
 1859SOL    HW214356   2.882  12.338   0.981  0.8826 -0.3860  0.7319
 1860SOL     OW14357   1.882   9.487   8.695 -0.0073  0.0927 -0.7591
 1860SOL    HW114358   1.969   9.450   8.711 -1.1999 -2.9598 -0.6175
 1860SOL    HW214359   1.865   9.543   8.771  1.0300 -0.9166  0.2507
 1861SOL     OW14360   0.221   4.098  10.558  0.2792  0.1833  0.0644
 1861SOL    HW114361   0.135   4.085  10.518  1.1494 -1.7499 -1.3406
 1861SOL    HW214362   0.218   4.049  10.640  1.0398 -2.8797 -1.5864
 1862SOL     OW14363   4.334   0.489   9.215 -0.0383  0.2987  0.6341
 1862SOL    HW114364   4.391   0.497   9.139  0.1972 -1.3581  0.5848
 1862SOL    HW214365   4.352   0.401   9.249 -0.5058  0.8047  2.3111
 1863SOL     OW14366   2.309   5.983   4.793  0.3192  0.2547 -0.5971
 1863SOL    HW114367   2.356   6.058   4.755  1.7852  0.4005  1.3336
 1863SOL    HW214368   2.355   5.966   4.875 -1.6559 -1.0812  0.2986
 1864SOL     OW14369   5.109  10.818  10.989 -0.0084 -0.0982 -0.0634
 1864SOL    HW114370   5.156  10.818  11.072  1.4033  0.6149 -0.8180
 1864SOL    HW214371   5.044  10.748  10.998  1.4382 -1.3903  0.8980
 1865SOL     OW14372  11.123   0.625  11.709  0.4398  0.0286  0.1323
 1865SOL    HW114373  11.187   0.674  11.760  1.0276  0.1491 -0.7063
 1865SOL    HW214374  11.125   0.536  11.746  0.6885  0.1715  0.4642
 1866SOL     OW14375   4.099   4.838   4.734  0.1456  0.5691  0.0763
 1866SOL    HW114376   4.147   4.921   4.733 -0.3005  0.8273 -0.0268
 1866SOL    HW214377   4.012   4.860   4.703 -0.6554  0.4882  2.0829
 1867SOL     OW14378  10.110   1.457  11.301 -0.2616 -0.7403 -0.7428
 1867SOL    HW114379  10.129   1.380  11.248  0.4001  0.9180 -3.1041
 1867SOL    HW214380  10.182   1.518  11.282 -0.4582  0.2663  1.4656
 1868SOL     OW14381  11.835   1.037   7.121  0.7628 -0.4614  0.0187
 1868SOL    HW114382  11.808   1.064   7.209 -0.9095 -3.3613  0.5310
 1868SOL    HW214383  11.887   0.959   7.135 -0.6831 -1.7841 -1.5755
 1869SOL     OW14384   0.221   0.555   5.418 -0.4371  0.0739 -0.2036
 1869SOL    HW114385   0.298   0.610   5.401  0.0045 -0.6968 -0.7761
 1869SOL    HW214386   0.258   0.471   5.447 -1.1142  0.3481  1.5819
 1870SOL     OW14387   7.459   1.769   9.948 -0.0286 -0.1348  0.5024
 1870SOL    HW114388   7.508   1.745  10.027  0.2359  0.4142  0.5050
 1870SOL    HW214389   7.370   1.738   9.966 -0.1722  0.7264  1.3623
 1871SOL     OW14390  12.498   9.343  10.236  0.2274  0.5560 -0.1488
 1871SOL    HW114391  12.518   9.251  10.251 -1.0287  0.4479  0.9967
 1871SOL    HW214392  12.505   9.383  10.323 -0.2902  1.3293 -0.4598
 1872SOL     OW14393  12.594   0.305   0.634  0.0009 -0.2791 -0.3092
 1872SOL    HW114394  12.634   0.392   0.633  0.5916 -0.5405 -0.3785
 1872SOL    HW214395  12.581   0.284   0.541  0.4727 -0.5270 -0.3263
 1873SOL     OW14396   3.019   8.328   4.524  0.2550 -0.4574 -0.4252
 1873SOL    HW114397   3.011   8.248   4.576  0.0585  0.4364  1.0016
 1873SOL    HW214398   3.073   8.304   4.449  1.5314 -1.5541  0.7985
 1874SOL     OW14399   5.150   8.725   1.090 -0.3117 -0.0868 -0.2377
 1874SOL    HW114400   5.147   8.742   1.184 -2.8028  0.4835 -0.3745
 1874SOL    HW214401   5.129   8.632   1.082  1.5637 -0.5636 -0.1946
 1875SOL     OW14402   1.131   2.464   2.397  0.0632 -0.6942  0.0374
 1875SOL    HW114403   1.121   2.417   2.480 -2.0773 -0.0176  0.2284
 1875SOL    HW214404   1.224   2.487   2.393  0.4146 -1.6864  1.7125
 1876SOL     OW14405   0.508   8.168   0.489 -0.3308  0.2306 -0.2250
 1876SOL    HW114406   0.470   8.081   0.478 -2.4023  0.9561  0.5951
 1876SOL    HW214407   0.570   8.159   0.562 -0.1904 -0.6482 -0.4491
 1877SOL     OW14408  11.844   6.642   9.941 -0.4087 -0.3683  0.4202
 1877SOL    HW114409  11.877   6.632  10.031 -0.6293 -0.6656  0.4713
 1877SOL    HW214410  11.869   6.560   9.898  2.2906  0.8911 -0.6410
 1878SOL     OW14411   9.554   2.906  11.040  0.2315 -0.6142  0.2239
 1878SOL    HW114412   9.498   2.906  10.963  0.5908 -0.1825 -0.0408
 1878SOL    HW214413   9.526   2.984  11.089  0.2961 -0.6462  0.3109
 1879SOL     OW14414   2.684   4.741   6.503 -0.2140  0.1956 -0.3691
 1879SOL    HW114415   2.637   4.822   6.483  0.9231  1.4736  1.7491
 1879SOL    HW214416   2.618   4.682   6.537 -1.1343  0.0244 -2.3190
 1880SOL     OW14417   9.666   9.329   1.340  0.6507  0.3749 -0.4384
 1880SOL    HW114418   9.587   9.333   1.286  0.4140  1.6176 -0.0263
 1880SOL    HW214419   9.634   9.302   1.426  0.9333 -0.8936 -0.7121
 1881SOL     OW14420   8.810   2.030   8.158  0.9325  0.3662  0.0902
 1881SOL    HW114421   8.818   2.002   8.067  1.7251  0.8770 -0.0042
 1881SOL    HW214422   8.750   2.104   8.155  0.1059 -0.2828  0.1347
 1882SOL     OW14423   0.564  10.579  11.188 -0.2860  0.0524 -0.2098
 1882SOL    HW114424   0.594  10.540  11.271  2.8410  1.0419 -0.7273
 1882SOL    HW214425   0.583  10.512  11.122  1.0868  0.7491 -0.5650
 1883SOL     OW14426   7.736   1.785  11.964  0.1932  0.0531  0.4035
 1883SOL    HW114427   7.795   1.717  11.932  1.2820  1.3868 -0.5268
 1883SOL    HW214428   7.655   1.772  11.915  0.6345 -0.1611 -0.2801
 1884SOL     OW14429  11.379   3.358   5.546 -0.1468  0.4506 -0.5592
 1884SOL    HW114430  11.473   3.362   5.527 -0.2700  1.8899 -0.9747
 1884SOL    HW214431  11.364   3.268   5.575  1.3701  0.2252 -0.4109
 1885SOL     OW14432  10.032   7.447   1.195  0.4636 -0.5645 -0.5156
 1885SOL    HW114433  10.019   7.355   1.173 -0.4951 -0.4923 -0.2640
 1885SOL    HW214434  10.124   7.463   1.173  0.1738 -1.0855 -2.2958
 1886SOL     OW14435   7.902   5.184   9.967 -0.2788 -0.0432 -0.2736
 1886SOL    HW114436   7.938   5.100   9.941  0.7127  0.3409 -0.1883
 1886SOL    HW214437   7.843   5.163  10.040  0.8071 -0.5536  0.4870
 1887SOL     OW14438   1.510   1.861   5.556  0.0697  0.0599 -0.0566
 1887SOL    HW114439   1.437   1.887   5.500  0.1860  1.8873  0.5858
 1887SOL    HW214440   1.526   1.937   5.612  1.6648 -0.7633  0.6722
 1888SOL     OW14441   4.250   6.867  11.432 -0.1208  0.4085 -0.2101
 1888SOL    HW114442   4.228   6.780  11.398 -1.4713  0.9286 -0.7025
 1888SOL    HW214443   4.190   6.880  11.506  0.6461  0.5866  0.3950
 1889SOL     OW14444   7.471   5.640   8.795 -0.5468  0.2659  0.0886
 1889SOL    HW114445   7.405   5.692   8.840 -1.4683 -0.0354 -0.9007
 1889SOL    HW214446   7.528   5.704   8.752 -0.3137  0.5163  0.7565
 1890SOL     OW14447   2.041   1.831  10.678  0.2132  0.1489 -0.0006
 1890SOL    HW114448   2.094   1.794  10.608 -0.5297 -1.8704  0.4553
 1890SOL    HW214449   2.105   1.866  10.741  0.9476 -0.3424 -0.4598
 1891SOL     OW14450  12.249   2.066   3.656 -0.0086 -0.2060 -0.3714
 1891SOL    HW114451  12.191   1.990   3.661 -0.1425 -0.0494  3.2517
 1891SOL    HW214452  12.313   2.044   3.588 -1.3613 -2.5278 -0.9878
 1892SOL     OW14453   9.505   3.802   9.926  0.5642 -0.1280  0.6091
 1892SOL    HW114454   9.518   3.766  10.014  0.7163 -0.3193  0.5095
 1892SOL    HW214455   9.582   3.774   9.877 -0.0013 -0.8957  0.1338
 1893SOL     OW14456   7.386   2.182   3.297  0.2105 -0.0972  0.8473
 1893SOL    HW114457   7.294   2.170   3.274  0.2052 -0.2420  0.9499
 1893SOL    HW214458   7.397   2.135   3.379  0.2498  0.3655  1.1092
 1894SOL     OW14459   7.774   9.829  10.055  0.1747  0.0002 -0.4046
 1894SOL    HW114460   7.811   9.835  10.143  0.4299  1.3911 -0.5855
 1894SOL    HW214461   7.684   9.801  10.068  0.4598 -0.6838  0.2239
 1895SOL     OW14462  12.027   9.872   1.096 -0.0065 -0.2637 -0.1944
 1895SOL    HW114463  12.062   9.943   1.042  0.4126  0.4071  0.9148
 1895SOL    HW214464  11.994   9.808   1.033 -0.3766  0.8985 -1.2347
 1896SOL     OW14465  11.454  10.102   4.550  0.5973  0.1538 -0.3332
 1896SOL    HW114466  11.533  10.077   4.503  0.5254 -1.0748  0.1428
 1896SOL    HW214467  11.485  10.128   4.637  0.3633 -2.2528  0.5357
 1897SOL     OW14468  12.258   1.714   5.978  0.3974  0.0372  0.5294
 1897SOL    HW114469  12.173   1.708   6.021  0.4895 -0.5359  0.6394
 1897SOL    HW214470  12.321   1.709   6.050  0.5271  0.2712  0.4310
 1898SOL     OW14471   5.423   7.353   5.678  0.5896  0.2977  0.2067
 1898SOL    HW114472   5.461   7.372   5.764  0.1250 -1.5011  0.8517
 1898SOL    HW214473   5.481   7.397   5.616  2.0579  0.0368  1.3352
 1899SOL     OW14474   6.045   6.778   1.369 -0.4544  0.3155 -0.5566
 1899SOL    HW114475   6.025   6.684   1.366 -0.9895  0.3823  0.6389
 1899SOL    HW214476   5.971   6.817   1.414  0.0478  1.2457 -0.5177
 1900SOL     OW14477  12.571  10.987   9.292  0.1233 -0.3735 -0.1157
 1900SOL    HW114478  12.625  11.049   9.341 -0.1979  1.0300 -1.4514
 1900SOL    HW214479  12.631  10.947   9.229 -0.4306  1.7905 -2.1647
 1901SOL     OW14480   0.266   2.206  10.785  0.2547 -0.2352  0.0809
 1901SOL    HW114481   0.285   2.125  10.738  2.8781  0.7534 -0.7369
 1901SOL    HW214482   0.209   2.255  10.726  1.0279 -0.2977 -0.7476
 1902SOL     OW14483   2.355   1.481  10.210  0.1273 -0.1813  0.2444
 1902SOL    HW114484   2.319   1.399  10.175 -1.5862  1.1593 -1.3074
 1902SOL    HW214485   2.280   1.522  10.254  0.4821  1.3665 -0.5507
 1903SOL     OW14486  10.933  11.072   0.753  0.0959 -0.2219  0.3021
 1903SOL    HW114487  11.007  11.092   0.810 -0.0525  0.2504  0.3334
 1903SOL    HW214488  10.911  10.981   0.772  0.3119 -0.1911  0.6956
 1904SOL     OW14489  11.564   5.226   8.149 -0.0357 -0.5044 -0.3903
 1904SOL    HW114490  11.641   5.195   8.198 -0.9556 -1.5532  0.4659
 1904SOL    HW214491  11.565   5.175   8.068  0.8153  0.3485 -0.9327
 1905SOL     OW14492   5.548   4.442  10.850 -0.4606 -0.2095  0.1521
 1905SOL    HW114493   5.505   4.372  10.901  0.5817 -1.5696 -0.7534
 1905SOL    HW214494   5.478   4.504  10.832 -1.8565 -1.8531 -0.4369
 1906SOL     OW14495  11.149   5.682   3.606  0.0207 -0.1966  0.0845
 1906SOL    HW114496  11.154   5.664   3.700 -0.0346 -0.5864  0.0155
 1906SOL    HW214497  11.207   5.757   3.593  1.2623 -1.1083  0.1963
 1907SOL     OW14498  10.958   3.547   0.109  0.3732  0.0549  0.3676
 1907SOL    HW114499  10.992   3.561   0.198  0.2650 -1.2359  0.6380
 1907SOL    HW214500  10.870   3.512   0.122  0.3627 -0.1606 -0.2440
 1908SOL     OW14501   2.838   8.667   2.692 -0.1482 -0.3157 -0.5599
 1908SOL    HW114502   2.905   8.599   2.695 -1.5680 -1.7182  1.2420
 1908SOL    HW214503   2.874   8.738   2.746  1.0088  0.1003 -1.8240
 1909SOL     OW14504   1.826   1.187   6.792 -0.5808  0.1676  0.2587
 1909SOL    HW114505   1.772   1.132   6.735  1.1446  0.6131 -1.9158
 1909SOL    HW214506   1.916   1.165   6.769  0.1706  2.3870  0.8110
 1910SOL     OW14507   6.613  12.484   3.711  0.0540  0.0015 -0.3495
 1910SOL    HW114508   6.601  12.524   3.625  0.8916  0.2733 -0.3539
 1910SOL    HW214509   6.661  12.550   3.761 -0.2346 -0.2423  0.2603
 1911SOL     OW14510  10.662   5.436   9.364 -0.0879  0.3641  0.2865
 1911SOL    HW114511  10.630   5.503   9.304  0.3490 -0.3298 -0.7533
 1911SOL    HW214512  10.619   5.356   9.336  1.8555 -0.4304 -0.6050
 1912SOL     OW14513   3.906   0.170   7.329  0.1563 -0.3735  0.3343
 1912SOL    HW114514   3.858   0.221   7.264  2.3292 -0.2589 -1.3050
 1912SOL    HW214515   3.956   0.235   7.378  0.0422 -0.6300  0.7959
 1913SOL     OW14516   2.216  12.382   7.044  0.4460  0.2283  0.1863
 1913SOL    HW114517   2.259  12.408   6.963  3.7406 -0.6560  1.4987
 1913SOL    HW214518   2.137  12.437   7.048  1.2175  1.7215 -2.5901
 1914SOL     OW14519   8.575  10.634  10.892 -0.1576 -0.4270  0.1130
 1914SOL    HW114520   8.631  10.708  10.915 -0.5329  0.5767 -1.9076
 1914SOL    HW214521   8.634  10.570  10.853 -0.2993  0.5430 -1.8255
 1915SOL     OW14522   0.758   1.554   7.766  0.1060  0.0456  0.1185
 1915SOL    HW114523   0.769   1.623   7.701 -1.3015 -0.1970 -0.4077
 1915SOL    HW214524   0.838   1.558   7.819  1.6501 -0.2186 -2.0547
 1916SOL     OW14525   1.181   5.268   8.127 -0.3717 -0.2875  0.3994
 1916SOL    HW114526   1.152   5.305   8.043  1.3271 -1.7669 -0.9104
 1916SOL    HW214527   1.100   5.250   8.175 -1.3477  1.3278 -0.5711
 1917SOL     OW14528   7.732   3.851   3.421 -0.0838 -0.0660 -0.0467
 1917SOL    HW114529   7.664   3.855   3.354 -1.4256  0.8675  1.2981
 1917SOL    HW214530   7.746   3.758   3.437 -2.4647 -0.3274  0.9549
 1918SOL     OW14531  10.934   3.614  11.791 -0.1519  0.6396 -0.6417
 1918SOL    HW114532  11.024   3.608  11.761  0.7348  0.5519  1.8139
 1918SOL    HW214533  10.931   3.693  11.844 -1.4503  0.4622 -0.4062
 1919SOL     OW14534   2.174   0.980   0.736  0.1670 -0.4239 -0.4662
 1919SOL    HW114535   2.118   0.936   0.800 -0.6938  1.7075  0.3431
 1919SOL    HW214536   2.236   1.032   0.788  0.6186 -0.0438 -1.3491
 1920SOL     OW14537   3.173  11.907   3.329 -0.5673  0.6198 -0.4920
 1920SOL    HW114538   3.267  11.900   3.347 -0.2541  3.8934 -0.3416
 1920SOL    HW214539   3.131  11.882   3.411  0.0762 -1.2683 -0.6777
 1921SOL     OW14540   3.932   3.251   2.442 -0.1504 -0.1398  0.5468
 1921SOL    HW114541   4.018   3.220   2.472 -0.7330 -1.0102  1.3809
 1921SOL    HW214542   3.906   3.188   2.374  1.2855  1.9685 -2.1876
 1922SOL     OW14543  10.755   1.299   3.318  0.4133  0.0122 -0.0683
 1922SOL    HW114544  10.807   1.291   3.238  0.7092 -1.7110  0.2568
 1922SOL    HW214545  10.666   1.315   3.287  0.7995  1.1449 -0.6680
 1923SOL     OW14546   5.289  11.860  11.772  0.5313  0.4694 -0.7497
 1923SOL    HW114547   5.203  11.899  11.786 -0.0723 -1.2654  0.8027
 1923SOL    HW214548   5.335  11.873  11.856  0.0353 -2.6316  0.1180
 1924SOL     OW14549   0.107   3.167   0.661 -0.2986 -0.5540  0.4670
 1924SOL    HW114550   0.125   3.074   0.648 -1.3290 -0.9443  1.6883
 1924SOL    HW214551   0.066   3.195   0.579 -0.8778 -1.4204  0.4493
 1925SOL     OW14552   8.536   4.829   6.471 -0.4270 -0.0752 -0.0100
 1925SOL    HW114553   8.471   4.775   6.425 -0.6256  0.0022  0.1774
 1925SOL    HW214554   8.539   4.792   6.559  1.0908 -1.2183 -0.5016
 1926SOL     OW14555   1.725   6.459   7.221  0.1551  0.1450  0.4954
 1926SOL    HW114556   1.731   6.363   7.226 -1.1172  0.0678  1.0254
 1926SOL    HW214557   1.656   6.475   7.157  0.5216  0.7199  0.2410
 1927SOL     OW14558  10.143  11.931   9.510  0.4810  0.3977  0.5382
 1927SOL    HW114559  10.072  11.899   9.566  1.3823 -1.8873  0.5139
 1927SOL    HW214560  10.099  11.973   9.437 -0.9908 -2.0120 -0.0885
 1928SOL     OW14561   4.848  10.965   4.195  0.8471  0.4613  0.3559
 1928SOL    HW114562   4.893  10.980   4.112  1.1637  0.2727  0.4922
 1928SOL    HW214563   4.787  11.039   4.203 -1.6286 -1.1612 -1.6479
 1929SOL     OW14564  11.012   3.292   2.120 -0.7625  0.1314  0.0558
 1929SOL    HW114565  10.953   3.217   2.110  0.2049 -0.6405 -0.0586
 1929SOL    HW214566  11.052   3.303   2.033  0.8957 -0.7802  0.6587
 1930SOL     OW14567   5.277  10.672   6.912 -0.0101 -0.2804 -0.5099
 1930SOL    HW114568   5.346  10.624   6.958 -0.6157 -1.2006 -0.5365
 1930SOL    HW214569   5.320  10.708   6.834  0.7474  0.2994  0.1601
 1931SOL     OW14570   2.522  12.566  11.248  0.0482 -0.3177  0.4193
 1931SOL    HW114571   2.549  12.608  11.166 -1.8182  0.2254  0.0488
 1931SOL    HW214572   2.585  12.495  11.259  1.4118  0.6701 -0.5462
 1932SOL     OW14573   5.362   4.729  11.602  0.1405 -0.0657 -0.5555
 1932SOL    HW114574   5.269   4.725  11.580 -0.2715  0.3317  1.0101
 1932SOL    HW214575   5.404   4.671  11.538 -1.4072 -1.8312 -0.0744
 1933SOL     OW14576   9.736   7.427  10.993  0.0843 -0.6081  0.3072
 1933SOL    HW114577   9.683   7.465  10.923 -0.0904  1.1595  1.3440
 1933SOL    HW214578   9.823   7.465  10.981  0.5415 -1.7155 -0.0092
 1934SOL     OW14579   8.400   5.960   2.236  0.1661  0.3466 -0.5412
 1934SOL    HW114580   8.492   5.963   2.262 -0.1536 -1.4869  1.0399
 1934SOL    HW214581   8.385   5.869   2.212 -1.6107  0.2285  0.8109
 1935SOL     OW14582   1.090  11.334   0.213 -0.1673 -0.3939 -0.0442
 1935SOL    HW114583   1.008  11.302   0.175  0.4333 -2.9239  0.6109
 1935SOL    HW214584   1.098  11.287   0.297  0.1081  2.6443  1.7765
 1936SOL     OW14585   1.736   1.741   8.364  0.1019 -0.2299  0.3430
 1936SOL    HW114586   1.795   1.671   8.336 -0.8394 -0.4584 -1.2365
 1936SOL    HW214587   1.680   1.701   8.430 -0.7413 -1.1546 -0.8869
 1937SOL     OW14588   4.203   0.534   4.615  0.0014 -0.5495 -0.6830
 1937SOL    HW114589   4.137   0.466   4.625 -0.3904 -0.3132 -1.5801
 1937SOL    HW214590   4.168   0.610   4.662 -0.6624 -0.2302 -1.6729
 1938SOL     OW14591  11.049  11.690   9.904  0.5206 -0.4572  0.4705
 1938SOL    HW114592  11.113  11.761   9.913 -0.0188  0.3403 -1.4616
 1938SOL    HW214593  10.970  11.725   9.945 -0.1195  0.6275 -1.5939
 1939SOL     OW14594   0.457   3.228   1.678  0.3845  0.2353  0.5150
 1939SOL    HW114595   0.383   3.170   1.662 -0.7004  1.5439  0.5273
 1939SOL    HW214596   0.534   3.177   1.655 -0.5372 -1.0802  0.2354
 1940SOL     OW14597   9.220   8.374   0.381 -0.1743 -0.1245  0.4344
 1940SOL    HW114598   9.231   8.358   0.287  3.1407  1.3160  0.4521
 1940SOL    HW214599   9.236   8.289   0.421 -2.6198 -0.9960 -0.2460
 1941SOL     OW14600  10.098   5.563   2.977  0.5871 -0.0973 -0.6257
 1941SOL    HW114601  10.042   5.621   2.925  0.1181  0.6979  0.7165
 1941SOL    HW214602  10.186   5.600   2.968  0.4782  0.1447 -0.6919
 1942SOL     OW14603   9.882   2.309   4.096  0.5195 -0.2344  0.1941
 1942SOL    HW114604   9.865   2.329   4.188  1.0807  1.0582  0.0258
 1942SOL    HW214605   9.929   2.385   4.062  3.3201 -2.0526 -0.3381
 1943SOL     OW14606   4.974   1.313   4.971  0.5693 -0.3182  0.1925
 1943SOL    HW114607   4.944   1.403   4.981  0.5362 -0.4132  0.9953
 1943SOL    HW214608   5.070   1.319   4.977  0.6948 -0.1265 -1.5031
 1944SOL     OW14609   2.603   5.052   3.111  0.2287  0.5660  0.9106
 1944SOL    HW114610   2.537   5.120   3.119 -0.6114 -0.1862  0.5642
 1944SOL    HW214611   2.553   4.970   3.104  1.1887 -0.0236  0.6882
 1945SOL     OW14612  12.337   0.338   5.142 -0.0241  0.0812  0.0107
 1945SOL    HW114613  12.282   0.383   5.206  0.1670 -0.5561  0.6396
 1945SOL    HW214614  12.300   0.250   5.136 -0.0117  0.1177 -0.7335
 1946SOL     OW14615   1.515   3.768  10.758  0.6391  0.1237  0.1521
 1946SOL    HW114616   1.560   3.747  10.840 -1.5362 -0.9248  1.1775
 1946SOL    HW214617   1.479   3.684  10.728  0.8367  0.6156 -1.5284
 1947SOL     OW14618   9.082   5.864  12.157 -0.0488  0.2756 -0.2255
 1947SOL    HW114619   8.991   5.891  12.148  0.2667  1.0101 -1.5512
 1947SOL    HW214620   9.105   5.829  12.071  0.9857  0.3028  0.0217
 1948SOL     OW14621   3.561  10.317   5.254 -0.2396 -0.3217  0.0769
 1948SOL    HW114622   3.506  10.395   5.247 -2.0110 -1.6346 -1.7005
 1948SOL    HW214623   3.610  10.330   5.335 -0.2769  2.7104 -0.2567
 1949SOL     OW14624   9.030   1.871   3.897 -0.2839 -0.4146  0.0401
 1949SOL    HW114625   9.065   1.897   3.982  2.2655  0.3545 -1.1393
 1949SOL    HW214626   9.017   1.953   3.850 -1.3380 -0.8499 -0.4502
 1950SOL     OW14627   3.986   0.127   6.982  0.8046 -0.3975 -0.5766
 1950SOL    HW114628   3.973   0.070   6.907  1.2120 -1.1949 -0.0548
 1950SOL    HW214629   4.048   0.080   7.038  1.0233  0.4800 -0.0534
 1951SOL     OW14630   4.939  10.663   4.660 -0.1785 -0.4784  0.5316
 1951SOL    HW114631   4.849  10.696   4.650  0.4026  1.1284  0.3351
 1951SOL    HW214632   4.974  10.665   4.571  0.3816 -0.1196  0.7621
 1952SOL     OW14633   6.124   9.654   1.330 -0.3751 -0.3319  0.4184
 1952SOL    HW114634   6.118   9.560   1.345  0.8378 -0.1878  2.1650
 1952SOL    HW214635   6.190   9.663   1.261  0.7767 -0.7372  1.4247
 1953SOL     OW14636   0.864   6.229   3.587  0.3258 -0.1478  0.0528
 1953SOL    HW114637   0.794   6.164   3.592 -0.0115  0.1459 -0.6698
 1953SOL    HW214638   0.907   6.226   3.672  0.8130 -1.8872 -0.2110
 1954SOL     OW14639   8.430  11.615  11.784 -0.0597 -0.4101  0.0012
 1954SOL    HW114640   8.411  11.688  11.844 -3.1946 -0.4925 -0.7293
 1954SOL    HW214641   8.345  11.587  11.753  1.3053 -2.0329 -2.6053
 1955SOL     OW14642   4.472   0.695   2.360 -0.1466 -0.3412 -0.2932
 1955SOL    HW114643   4.544   0.752   2.384 -2.2287  0.8282  4.2715
 1955SOL    HW214644   4.507   0.606   2.370  1.1118  0.1837  0.1698
 1956SOL     OW14645   5.400   5.684   0.442  0.0348 -0.3595 -0.4319
 1956SOL    HW114646   5.423   5.625   0.370  1.4279 -0.4479  0.0545
 1956SOL    HW214647   5.429   5.770   0.412  2.3352 -0.6617  0.6994
 1957SOL     OW14648  11.803  11.023   9.917  0.0670 -0.2471  0.2699
 1957SOL    HW114649  11.842  10.983   9.996 -1.9021 -0.2555  1.3085
 1957SOL    HW214650  11.878  11.041   9.860  1.5775 -0.1776  2.1627
 1958SOL     OW14651  11.855   8.990   2.766  0.3971  0.1422 -0.1925
 1958SOL    HW114652  11.918   9.000   2.695  0.6605 -0.6934 -0.0840
 1958SOL    HW214653  11.788   9.057   2.749  1.8602  1.8143  0.3057
 1959SOL     OW14654   0.991   5.842   6.394 -0.2390  0.0613  0.1380
 1959SOL    HW114655   1.030   5.797   6.320 -0.8481  0.3593 -0.3731
 1959SOL    HW214656   0.951   5.772   6.446 -0.3574 -0.0879 -0.1500
 1960SOL     OW14657   4.057   3.673  11.441  0.2578 -0.0907  0.2919
 1960SOL    HW114658   4.108   3.617  11.383 -0.3267 -1.2607  0.8729
 1960SOL    HW214659   4.122   3.724  11.489  0.7752  0.1996 -0.6954
 1961SOL     OW14660  12.070  12.379   7.804  0.0713 -0.5833  0.2715
 1961SOL    HW114661  12.031  12.303   7.848  1.2034 -1.2615  0.1495
 1961SOL    HW214662  12.113  12.428   7.875 -0.0089 -0.4572  0.2342
 1962SOL     OW14663   1.548  10.007   5.598 -0.1827  0.6491  0.0293
 1962SOL    HW114664   1.454   9.994   5.587 -0.2222  0.4175  0.5850
 1962SOL    HW214665   1.588   9.962   5.524 -0.4803  0.1956  0.1383
 1963SOL     OW14666   0.431   0.251   2.079 -0.0925  0.0157 -0.5368
 1963SOL    HW114667   0.514   0.260   2.032 -0.6872  0.9401 -1.4318
 1963SOL    HW214668   0.366   0.235   2.011 -0.5995 -1.1619  0.1986
 1964SOL     OW14669   8.501   6.932   3.135 -0.3653  0.0477  0.6100
 1964SOL    HW114670   8.445   6.955   3.210 -2.7644 -0.8408 -0.8112
 1964SOL    HW214671   8.447   6.876   3.081  1.1620  0.9273 -2.0144
 1965SOL     OW14672   4.492   9.715   4.684 -0.1204  0.0056  0.3197
 1965SOL    HW114673   4.465   9.708   4.776 -1.1509 -0.1946  0.0087
 1965SOL    HW214674   4.496   9.625   4.653 -1.7648  0.1411 -0.3814
 1966SOL     OW14675   7.928   8.311   2.344  0.1563  0.6496  0.4483
 1966SOL    HW114676   7.945   8.375   2.413  0.9389  1.2995 -0.3304
 1966SOL    HW214677   7.959   8.228   2.380  0.0322  0.8688  1.0860
 1967SOL     OW14678   6.235   2.132   0.761  0.1986  0.5523 -0.1488
 1967SOL    HW114679   6.218   2.038   0.759  1.7687  0.2483 -1.0249
 1967SOL    HW214680   6.227   2.156   0.853  0.2022 -0.5307  0.1485
 1968SOL     OW14681   6.851  11.690   0.589  0.1617 -0.5435 -0.0974
 1968SOL    HW114682   6.915  11.627   0.556  1.0188 -1.0716  2.3516
 1968SOL    HW214683   6.874  11.701   0.681 -2.3364  0.4773  0.4786
 1969SOL     OW14684  10.937   1.107  11.902  0.6835  0.4325 -0.7745
 1969SOL    HW114685  10.970   1.149  11.823  0.6829 -0.3815 -1.2129
 1969SOL    HW214686  10.929   1.015  11.880 -2.7535  0.6344 -1.0160
 1970SOL     OW14687   8.221   4.801   5.807  0.1554 -0.3936 -0.0450
 1970SOL    HW114688   8.178   4.717   5.821 -0.6304 -0.0143 -0.1420
 1970SOL    HW214689   8.296   4.780   5.751 -0.5041 -0.9249 -0.7604
 1971SOL     OW14690   1.287   8.884   7.139  0.0752  0.5933 -0.1305
 1971SOL    HW114691   1.248   8.864   7.224 -0.1266  2.0896  0.1441
 1971SOL    HW214692   1.330   8.802   7.113  0.2184  0.1374  1.4479
 1972SOL     OW14693  11.369   8.003  12.482  0.2686  0.0729 -0.0145
 1972SOL    HW114694  11.371   8.066  12.554  1.5958  0.0183  0.0274
 1972SOL    HW214695  11.285   7.958  12.491  0.0849  0.5962  1.0323
 1973SOL     OW14696   9.928   6.367   1.227  0.1969  0.6089 -0.2673
 1973SOL    HW114697   9.880   6.307   1.284  1.3547  0.3084  0.4315
 1973SOL    HW214698   9.862   6.430   1.197 -0.7173 -0.0672  0.2643
 1974SOL     OW14699   9.283   0.788   3.759  0.2603 -0.2217 -0.2101
 1974SOL    HW114700   9.301   0.834   3.677  3.6574  1.3562  1.1813
 1974SOL    HW214701   9.309   0.698   3.742 -0.4812 -0.2547 -1.2498
 1975SOL     OW14702   0.418   9.280   4.738 -0.0227 -0.0691 -0.1369
 1975SOL    HW114703   0.465   9.210   4.784 -0.8461 -0.5185  0.0376
 1975SOL    HW214704   0.370   9.234   4.669 -2.3505 -0.0084  1.3512
 1976SOL     OW14705  10.152   3.336   6.610 -0.0838 -0.3207  0.6931
 1976SOL    HW114706  10.219   3.329   6.542  0.6661 -0.4194  1.4344
 1976SOL    HW214707  10.118   3.248   6.620  2.3559 -1.1456  2.9678
 1977SOL     OW14708   4.688   5.743   1.161 -0.4409 -0.5978 -0.0343
 1977SOL    HW114709   4.684   5.696   1.244  0.2402  1.1513  1.0332
 1977SOL    HW214710   4.776   5.724   1.128 -0.1439 -0.0571  0.4255
 1978SOL     OW14711   1.546   6.363   1.341  0.0768 -0.3901  0.2159
 1978SOL    HW114712   1.543   6.449   1.299 -0.4051  0.0190  1.0575
 1978SOL    HW214713   1.464   6.356   1.389  0.0392 -1.3966  0.0291
 1979SOL     OW14714   3.303   2.503   7.190  0.0291 -0.0094 -0.7524
 1979SOL    HW114715   3.282   2.514   7.283 -0.1985  0.9586 -0.9037
 1979SOL    HW214716   3.315   2.409   7.178 -1.9098 -0.3695 -0.1476
 1980SOL     OW14717   8.292   3.165  11.106 -0.0230  0.1806 -0.6471
 1980SOL    HW114718   8.350   3.205  11.041 -0.1703  1.0419 -0.2610
 1980SOL    HW214719   8.315   3.072  11.104  0.9384  0.4096 -0.9473
 1981SOL     OW14720   8.726   6.660   9.874 -0.1271  0.2673 -0.0175
 1981SOL    HW114721   8.681   6.683   9.955  0.8677 -1.0703  0.9649
 1981SOL    HW214722   8.657   6.655   9.808 -1.0966  0.3672  0.9684
 1982SOL     OW14723   7.857   2.746   3.255 -0.6192 -0.2113  0.4268
 1982SOL    HW114724   7.916   2.673   3.236  1.5755  1.7377 -0.8150
 1982SOL    HW214725   7.781   2.705   3.297 -0.2364 -3.3749 -1.6157
 1983SOL     OW14726  10.907   9.685   4.387 -0.2479 -0.5938  0.2946
 1983SOL    HW114727  10.997   9.719   4.386  0.2068 -1.6186  1.9211
 1983SOL    HW214728  10.917   9.591   4.374 -1.4281 -0.3460 -3.4105
 1984SOL     OW14729   8.331   6.000   8.934 -0.6401 -0.2470 -0.1265
 1984SOL    HW114730   8.293   5.949   8.862  0.2829 -0.9407 -0.1380
 1984SOL    HW214731   8.425   5.982   8.930 -0.5249 -0.0069  1.0314
 1985SOL     OW14732   2.625   3.867   0.547  0.0812 -0.5171  0.3111
 1985SOL    HW114733   2.599   3.952   0.511 -0.4692 -0.8110 -0.0073
 1985SOL    HW214734   2.716   3.879   0.575  0.0098  0.1750  0.2731
 1986SOL     OW14735   2.302   2.720   6.849  0.0813  0.8629  0.0201
 1986SOL    HW114736   2.257   2.775   6.785  1.4389  1.3452 -0.5584
 1986SOL    HW214737   2.353   2.659   6.796 -0.8993 -0.5796  0.6608
 1987SOL     OW14738   8.434   0.283   2.155  0.2520 -0.0951 -0.1796
 1987SOL    HW114739   8.417   0.350   2.090 -0.5155  0.8283  0.9216
 1987SOL    HW214740   8.487   0.327   2.222  0.4821 -0.8358  0.1467
 1988SOL     OW14741   1.156   2.955  10.195  0.4893  0.2153 -0.6056
 1988SOL    HW114742   1.113   2.982  10.277  0.9930 -2.4351  0.6215
 1988SOL    HW214743   1.247   2.940  10.220  0.9401  0.5471 -1.9797
 1989SOL     OW14744   1.826  10.438   0.218  0.1373  0.4446 -0.2324
 1989SOL    HW114745   1.798  10.530   0.221 -1.4421 -0.0187  2.2697
 1989SOL    HW214746   1.776  10.401   0.145 -0.1955  1.2979 -0.4593
 1990SOL     OW14747  11.179  11.663   0.847 -0.5765  0.0228 -0.6697
 1990SOL    HW114748  11.213  11.735   0.901 -2.2037  0.0069  0.4399
 1990SOL    HW214749  11.212  11.584   0.889 -1.3835  0.0296 -0.0117
 1991SOL     OW14750   6.209  11.034   8.933  0.0375  0.2968 -0.2780
 1991SOL    HW114751   6.266  11.021   9.009 -1.4110 -0.0769  0.7874
 1991SOL    HW214752   6.189  10.946   8.902  0.5174  0.4430 -1.0539
 1992SOL     OW14753   1.440   1.587   5.633  0.2520  0.1266 -0.3063
 1992SOL    HW114754   1.485   1.664   5.599 -0.8964  0.5289 -0.9427
 1992SOL    HW214755   1.386   1.621   5.704  1.2200 -0.4219  0.7315
 1993SOL     OW14756   2.211   2.875   2.008  0.1886  0.2585 -0.0521
 1993SOL    HW114757   2.280   2.868   2.075 -1.9175 -0.4024  2.1816
 1993SOL    HW214758   2.147   2.934   2.046 -1.0617 -0.0963 -1.5358
 1994SOL     OW14759   7.157   7.427   7.810  0.4639 -0.0512  0.1318
 1994SOL    HW114760   7.065   7.429   7.783 -0.0617  2.2037  1.7813
 1994SOL    HW214761   7.160   7.365   7.883  0.2499 -0.1506  0.0558
 1995SOL     OW14762   5.308  11.088  11.174  0.0681 -0.3474  0.0828
 1995SOL    HW114763   5.394  11.088  11.217 -1.2193  0.2336  2.8727
 1995SOL    HW214764   5.317  11.152  11.103  1.5188  0.8964  1.3112
 1996SOL     OW14765   4.136  10.513   7.686 -0.6045 -1.2430 -0.0016
 1996SOL    HW114766   4.134  10.530   7.780 -0.5468 -0.0506 -0.1969
 1996SOL    HW214767   4.228  10.497   7.666 -0.4453 -0.3315 -0.0346
 1997SOL     OW14768   8.061   6.684   3.070 -0.2691 -1.2161 -0.4042
 1997SOL    HW114769   8.055   6.591   3.049  0.0017 -0.5224 -4.0896
 1997SOL    HW214770   7.988   6.724   3.024  0.4249  0.5864 -0.0262
 1998SOL     OW14771   4.289  12.100   4.070 -0.1561 -0.6202 -0.0447
 1998SOL    HW114772   4.221  12.037   4.046 -0.4525 -0.4535  0.3535
 1998SOL    HW214773   4.250  12.186   4.053  0.4807 -0.5389 -1.2257
 1999SOL     OW14774   4.456   3.287   6.892  0.0314 -0.0805  0.0275
 1999SOL    HW114775   4.407   3.310   6.814 -0.0888 -2.2533 -0.5993
 1999SOL    HW214776   4.396   3.303   6.965 -0.4926  0.2038 -0.4634
 2000SOL     OW14777   6.245   0.994  10.051  0.1249  0.0025  0.1559
 2000SOL    HW114778   6.338   1.004  10.031 -0.0372 -0.0514 -0.6486
 2000SOL    HW214779   6.218   0.915  10.004 -0.1587 -0.4185  1.0101
 2001SOL     OW14780   9.927   6.585   3.721 -0.4326  0.1019  0.2104
 2001SOL    HW114781   9.981   6.664   3.725 -0.5494  0.2957 -1.3100
 2001SOL    HW214782   9.988   6.515   3.700 -0.5175  0.0127  0.2602
 2002SOL     OW14783   0.953   4.490   7.369  0.3735 -0.4747  0.4893
 2002SOL    HW114784   0.906   4.545   7.306 -1.0576 -0.7977  1.2183
 2002SOL    HW214785   0.968   4.408   7.321 -3.5755 -1.9598  1.3951
 2003SOL     OW14786   7.701  12.317  10.489  0.5149 -0.7485  0.3935
 2003SOL    HW114787   7.661  12.344  10.571  0.2998 -0.9758  0.3660
 2003SOL    HW214788   7.661  12.373  10.423  3.0319  1.7640  0.7803
 2004SOL     OW14789   8.245   5.386   0.359  0.6057  0.5672 -0.4149
 2004SOL    HW114790   8.206   5.313   0.407 -0.0105  0.7415 -0.6439
 2004SOL    HW214791   8.184   5.404   0.288  1.1347  0.8096 -0.8162
 2005SOL     OW14792   4.969   6.946   5.132  0.4856 -0.1510  0.1488
 2005SOL    HW114793   4.890   6.946   5.079  0.3840 -1.6453  0.2663
 2005SOL    HW214794   5.036   6.987   5.076 -0.3013  0.9797 -0.0025
 2006SOL     OW14795   1.278   3.207   5.514 -1.0042  0.0027 -0.5591
 2006SOL    HW114796   1.195   3.194   5.468 -0.6132 -0.8128 -1.0596
 2006SOL    HW214797   1.282   3.135   5.577 -0.6181 -0.0482 -0.6379
 2007SOL     OW14798   4.658   4.200   0.875  0.0370  0.2777 -0.3178
 2007SOL    HW114799   4.582   4.225   0.823  0.6503 -1.6188 -2.2672
 2007SOL    HW214800   4.682   4.280   0.922 -1.8033  1.5217 -1.3594
 2008SOL     OW14801   9.041   5.003   7.824  0.2299 -0.1428 -0.3294
 2008SOL    HW114802   9.004   5.090   7.840  0.6608  0.0136 -0.1628
 2008SOL    HW214803   9.045   4.962   7.910 -1.5629 -0.9970 -0.5958
 2009SOL     OW14804   8.950   9.122   3.509 -0.1416  0.0590 -0.1577
 2009SOL    HW114805   8.866   9.132   3.464  0.2734 -0.7819 -1.1588
 2009SOL    HW214806   8.962   9.028   3.517  0.1724  0.1792  1.0346
 2010SOL     OW14807   1.912   4.683   2.591 -0.3245  0.1024 -0.3633
 2010SOL    HW114808   2.002   4.706   2.615 -0.0876  0.8815 -1.8678
 2010SOL    HW214809   1.862   4.694   2.672  0.6863  0.9985  0.1704
 2011SOL     OW14810   3.982   4.310   8.043  0.5550 -0.7672  0.0097
 2011SOL    HW114811   3.958   4.355   8.124 -1.7754 -1.4058 -0.2596
 2011SOL    HW214812   3.954   4.220   8.056 -1.5423 -0.5144 -2.1070
 2012SOL     OW14813   2.690   2.337   5.813  0.3709  0.2342 -0.3806
 2012SOL    HW114814   2.723   2.425   5.800 -0.3043  0.5917  0.2358
 2012SOL    HW214815   2.595   2.345   5.802  0.3474 -0.4983 -0.7762
 2013SOL     OW14816   2.425   0.894   0.642 -0.4144 -0.3286 -0.0432
 2013SOL    HW114817   2.447   0.908   0.734 -1.4838 -1.7135  0.4674
 2013SOL    HW214818   2.482   0.822   0.614 -1.1721 -0.9663  0.0137
 2014SOL     OW14819  11.163   2.064  11.399  0.0651  0.2449 -0.1322
 2014SOL    HW114820  11.219   2.135  11.428 -0.3636  0.2187  0.8068
 2014SOL    HW214821  11.083   2.074  11.451 -0.1040 -0.7582 -0.1729
 2015SOL     OW14822   5.795   1.495   1.335 -0.2394  0.1462  0.0685
 2015SOL    HW114823   5.819   1.585   1.316  2.4645 -0.2719  1.1271
 2015SOL    HW214824   5.831   1.478   1.422  1.3511 -2.6237 -1.0180
 2016SOL     OW14825   0.253   7.780   0.019  0.4909 -0.0989  0.3968
 2016SOL    HW114826   0.348   7.789   0.010  0.5447 -0.8279  0.2187
 2016SOL    HW214827   0.241   7.724   0.095  0.1873  0.2474  0.6102
 2017SOL     OW14828   6.140   4.001   6.868 -0.2903 -0.0975 -0.1238
 2017SOL    HW114829   6.196   4.072   6.836 -0.3561  0.3821  0.7894
 2017SOL    HW214830   6.190   3.963   6.941 -0.7679 -0.2276  0.1342
 2018SOL     OW14831   0.234  10.922   8.913  0.4911  0.4242  0.0558
 2018SOL    HW114832   0.213  10.874   8.833 -1.3234  4.0005 -1.8167
 2018SOL    HW214833   0.164  10.898   8.974  0.7746 -0.8031 -0.0719
 2019SOL     OW14834   5.250  10.860   6.299 -0.1109  0.6002 -0.0254
 2019SOL    HW114835   5.326  10.810   6.330  1.1427  1.9276 -0.8150
 2019SOL    HW214836   5.246  10.842   6.205 -0.4495  0.9466 -0.0815
 2020SOL     OW14837   7.640   1.565   6.298 -0.1846  0.1927  0.6204
 2020SOL    HW114838   7.546   1.562   6.282 -0.3078  0.2091  1.3249
 2020SOL    HW214839   7.654   1.506   6.371  0.3371  0.3050  0.6165
 2021SOL     OW14840   6.680  11.435   7.715 -0.6892 -0.1439  0.0242
 2021SOL    HW114841   6.643  11.407   7.631 -0.7882 -0.3621  0.1391
 2021SOL    HW214842   6.765  11.390   7.720 -0.9220 -0.5573  0.2849
 2022SOL     OW14843   4.323   5.607   2.379  0.4903 -0.7504  0.3607
 2022SOL    HW114844   4.411   5.569   2.381 -0.4581 -3.1690 -0.4023
 2022SOL    HW214845   4.316   5.647   2.292  1.2856  0.7347  0.9454
 2023SOL     OW14846  12.504   6.444  12.153 -0.4323 -0.3663 -0.1664
 2023SOL    HW114847  12.521   6.532  12.186  0.0090 -0.0000 -1.3184
 2023SOL    HW214848  12.416   6.423  12.185 -0.5827  0.5357  0.0346
 2024SOL     OW14849  10.054   2.158   0.191  0.6115  0.0436 -0.0490
 2024SOL    HW114850  10.131   2.214   0.202  0.6562  0.1555 -0.8247
 2024SOL    HW214851  10.066   2.118   0.105 -0.5696  0.6702 -0.5334
 2025SOL     OW14852   0.349  11.907  10.020  0.0400 -0.0308 -0.5939
 2025SOL    HW114853   0.401  11.962   9.961 -0.1540  0.5965 -0.1912
 2025SOL    HW214854   0.288  11.861   9.962 -1.0209  1.5458 -0.7809
 2026SOL     OW14855  10.188   2.259   4.729 -0.0150  0.0199  0.4086
 2026SOL    HW114856  10.180   2.308   4.647  1.2284 -1.5028 -0.6882
 2026SOL    HW214857  10.127   2.302   4.788 -1.6291  0.6391 -1.5722
 2027SOL     OW14858  10.278  12.543  10.918 -0.2214  0.3648 -0.4770
 2027SOL    HW114859  10.256  12.477  10.853 -1.4393  0.3232 -0.0438
 2027SOL    HW214860  10.249  12.626  10.880 -0.6938  0.3729 -0.1128
 2028SOL     OW14861  10.867   8.433   4.273 -0.1199  0.2218 -0.1999
 2028SOL    HW114862  10.782   8.477   4.272  0.1220  0.8284  1.8159
 2028SOL    HW214863  10.900   8.446   4.361  1.1087 -1.9024 -0.2779
 2029SOL     OW14864   7.702   8.419   7.408  0.4879 -0.6160 -0.3166
 2029SOL    HW114865   7.766   8.490   7.405 -0.1472  0.0198  0.6138
 2029SOL    HW214866   7.721   8.366   7.331  0.9276  0.6042 -1.0731
 2030SOL     OW14867   6.561   5.901   2.983  0.1779 -0.0160 -0.5166
 2030SOL    HW114868   6.609   5.974   3.020 -1.4860  0.1440  1.5470
 2030SOL    HW214869   6.520   5.936   2.903 -0.2182  1.1785  0.1931
 2031SOL     OW14870   2.768   0.781   8.700  0.3596  0.4721  0.2587
 2031SOL    HW114871   2.861   0.787   8.720  0.8725 -2.7000 -0.6072
 2031SOL    HW214872   2.760   0.809   8.609  0.3369  1.3471  0.5230
 2032SOL     OW14873   5.744   0.602  10.248  0.4362  0.1499 -0.6201
 2032SOL    HW114874   5.766   0.695  10.245  0.9246  0.0747  0.3725
 2032SOL    HW214875   5.676   0.591  10.181  1.5380  0.8929 -1.9028
 2033SOL     OW14876   3.045  11.851   6.244 -0.2596  0.9888  0.0662
 2033SOL    HW114877   3.007  11.843   6.332  2.4612  1.4316  1.4052
 2033SOL    HW214878   3.130  11.806   6.251 -0.1403  0.6876 -2.4851
 2034SOL     OW14879   4.088   1.352   8.910  0.5294 -0.1415  0.2437
 2034SOL    HW114880   4.133   1.424   8.955 -0.8823  0.2641  1.0690
 2034SOL    HW214881   3.996   1.363   8.934 -0.1522 -0.5166 -1.9367
 2035SOL     OW14882  11.869   6.511   3.454  0.7234 -0.0848 -0.0756
 2035SOL    HW114883  11.901   6.557   3.377 -0.3842 -0.7072 -0.9314
 2035SOL    HW214884  11.777   6.493   3.435  0.3161  0.0943  1.5600
 2036SOL     OW14885   8.579   4.680   8.770 -0.0410 -0.2839  0.1609
 2036SOL    HW114886   8.615   4.766   8.750 -1.0901  0.2827  0.6345
 2036SOL    HW214887   8.565   4.680   8.865  0.9687 -1.3953  0.3403
 2037SOL     OW14888   7.409   4.751   3.312  0.5432  0.1583  0.1498
 2037SOL    HW114889   7.435   4.675   3.364 -1.9235 -0.2797  0.8870
 2037SOL    HW214890   7.362   4.807   3.374  2.4746  2.4564 -0.3162
 2038SOL     OW14891   4.095   7.002   9.680 -0.0707 -0.4540  0.0949
 2038SOL    HW114892   4.088   6.912   9.711  0.3699 -0.0325  1.5308
 2038SOL    HW214893   4.189   7.022   9.686 -0.2948  0.4467  0.9147
 2039SOL     OW14894  10.807   6.360  10.659  0.0112  0.0496  0.2687
 2039SOL    HW114895  10.755   6.287  10.693  0.8985 -1.2527 -1.0379
 2039SOL    HW214896  10.874   6.319  10.605  2.5430  1.6390  1.9702
 2040SOL     OW14897   4.986   3.051   4.098 -0.7165  0.3526 -0.6716
 2040SOL    HW114898   5.031   3.027   4.179  0.5192 -1.7900 -1.9011
 2040SOL    HW214899   4.894   3.032   4.115 -0.3738 -0.8016  0.0278
 2041SOL     OW14900   1.999   0.947   1.551 -0.1476 -0.2555  0.6524
 2041SOL    HW114901   2.008   0.884   1.480  1.2751  0.3564  0.2613
 2041SOL    HW214902   1.905   0.948   1.570 -0.4191 -1.1772 -0.5171
 2042SOL     OW14903   7.611   4.972   5.681 -0.4441 -0.1844 -0.0457
 2042SOL    HW114904   7.581   5.062   5.670  0.7708  0.0241 -2.0601
 2042SOL    HW214905   7.704   4.973   5.658 -0.4072 -1.9556 -0.1718
 2043SOL     OW14906   5.225   9.779  10.009  0.0683 -0.8769  0.2439
 2043SOL    HW114907   5.265   9.806  10.092 -0.6813 -1.7100  0.8947
 2043SOL    HW214908   5.180   9.858   9.978  2.4086  0.1703 -0.6672
 2044SOL     OW14909   5.215   8.926   5.314  0.4889 -0.5875 -0.1939
 2044SOL    HW114910   5.302   8.957   5.339  0.5405 -0.6170 -0.3388
 2044SOL    HW214911   5.218   8.919   5.219 -0.2254  1.0960 -0.3731
 2045SOL     OW14912   2.816   4.932  11.183  0.7893  0.1693 -0.2559
 2045SOL    HW114913   2.878   4.993  11.221  0.9191  0.8710 -1.5205
 2045SOL    HW214914   2.738   4.939  11.238  2.1102 -1.4970  1.9883
 2046SOL     OW14915  11.334   2.163   2.269 -0.0393 -0.0484 -0.3588
 2046SOL    HW114916  11.404   2.114   2.227  1.7868  1.2165  1.0536
 2046SOL    HW214917  11.362   2.255   2.263 -2.0235  0.5996 -0.5174
 2047SOL     OW14918   1.548   6.095   5.080  0.4493  0.4906  0.2488
 2047SOL    HW114919   1.640   6.101   5.054  0.4757 -0.2474  0.1615
 2047SOL    HW214920   1.500   6.125   5.003  0.6215  1.1523  0.3938
 2048SOL     OW14921   6.401   4.010   8.752  0.0648 -0.0915  0.4646
 2048SOL    HW114922   6.491   4.032   8.730  0.2356 -0.4538  0.7769
 2048SOL    HW214923   6.351   4.088   8.732  0.5571  0.3591  0.9649
 2049SOL     OW14924   8.199   4.980  10.371  0.3918  0.4367  0.1045
 2049SOL    HW114925   8.186   4.938  10.456  1.0630 -0.5063 -0.2380
 2049SOL    HW214926   8.285   4.949  10.342 -1.0305 -1.7675 -2.2640
 2050SOL     OW14927   9.900   7.289   2.082  0.0016  0.2220 -0.2529
 2050SOL    HW114928   9.947   7.372   2.090  1.2005 -0.4482 -0.1505
 2050SOL    HW214929   9.921   7.240   2.161 -1.5450  0.2093  0.1915
 2051SOL     OW14930   8.237   5.159   3.527  0.2295 -0.5253 -0.5800
 2051SOL    HW114931   8.309   5.131   3.471  0.6422 -0.0622 -0.2859
 2051SOL    HW214932   8.159   5.125   3.483  0.5588 -0.3566 -1.3171
 2052SOL     OW14933   5.484   8.170   9.498  0.5339  0.2336  0.0815
 2052SOL    HW114934   5.471   8.237   9.565  0.4999 -0.2998  0.6106
 2052SOL    HW214935   5.404   8.174   9.445  0.7434  0.9404 -0.1878
 2053SOL     OW14936   4.255   9.642   8.032  0.3081  0.3958  0.5886
 2053SOL    HW114937   4.316   9.713   8.050 -1.0230  1.6109  0.5140
 2053SOL    HW214938   4.175   9.686   8.003  0.1633 -1.2171 -1.7790
 2054SOL     OW14939   3.172   6.359  11.338  0.0652 -0.3339  0.5490
 2054SOL    HW114940   3.096   6.303  11.321 -0.4549  1.0053 -2.0340
 2054SOL    HW214941   3.246   6.311  11.300  0.0542 -0.4552  0.6826
 2055SOL     OW14942   3.553   8.825   2.707  0.0222 -0.3886  0.8622
 2055SOL    HW114943   3.487   8.885   2.742  0.5856  0.3764  0.6442
 2055SOL    HW214944   3.504   8.766   2.650 -0.2040  1.5024 -0.9940
 2056SOL     OW14945  12.197   4.801   5.571 -0.1848  0.2235  0.2774
 2056SOL    HW114946  12.267   4.775   5.512 -0.8398 -0.1734 -0.3322
 2056SOL    HW214947  12.161   4.718   5.604 -0.0908  0.4320  0.9162
 2057SOL     OW14948   8.423   1.180   8.685 -0.6607  0.6346  0.0741
 2057SOL    HW114949   8.484   1.107   8.674 -1.3673  0.0325  0.1083
 2057SOL    HW214950   8.412   1.215   8.597  0.8416  1.6697  0.2662
 2058SOL     OW14951   1.066   6.472   9.183 -0.0080 -0.9821 -0.1102
 2058SOL    HW114952   1.071   6.479   9.278 -0.5772 -1.2698 -0.0565
 2058SOL    HW214953   1.157   6.482   9.153  0.0292  0.3314  0.3694
 2059SOL     OW14954   6.829   5.965   5.063  0.2178  0.3654  0.1370
 2059SOL    HW114955   6.791   6.040   5.019  1.3551 -0.0526 -1.6602
 2059SOL    HW214956   6.785   5.962   5.149 -0.3969  2.5704 -0.0560
 2060SOL     OW14957   6.338   2.753   6.888 -0.1362  0.1100 -0.8789
 2060SOL    HW114958   6.349   2.754   6.983 -2.5251 -1.3757 -0.5044
 2060SOL    HW214959   6.417   2.711   6.855 -0.2047 -1.3315  0.6658
 2061SOL     OW14960   5.613  11.153   9.891  0.3221  0.1395 -0.3532
 2061SOL    HW114961   5.671  11.078   9.874  1.3191  0.7000  0.5006
 2061SOL    HW214962   5.662  11.228   9.858 -0.7379  0.4157 -1.3300
 2062SOL     OW14963   2.057   1.716   4.553  0.0227  0.1791 -0.3853
 2062SOL    HW114964   2.012   1.671   4.481  0.0099 -1.1777  0.4394
 2062SOL    HW214965   2.141   1.743   4.515 -0.4543  0.5291 -1.2270
 2063SOL     OW14966  12.500   7.851   6.307  0.2769  0.6608 -0.1189
 2063SOL    HW114967  12.511   7.940   6.274 -0.3863  0.5298 -0.7205
 2063SOL    HW214968  12.529   7.795   6.235 -0.0917  0.3847 -0.0573
 2064SOL     OW14969   8.574  12.052   6.296 -0.3614  0.2962 -0.0317
 2064SOL    HW114970   8.527  12.118   6.347 -1.2244  0.1908 -0.6668
 2064SOL    HW214971   8.507  12.015   6.238  0.4284 -0.1322 -0.6795
 2065SOL     OW14972   7.010   9.538   4.401  0.1593  0.3694  0.7936
 2065SOL    HW114973   6.997   9.566   4.311 -0.5816 -0.5619  0.5930
 2065SOL    HW214974   7.041   9.616   4.447  0.5957  0.8371 -0.2687
 2066SOL     OW14975  10.474   3.677   4.704 -0.1689 -0.5831  0.1257
 2066SOL    HW114976  10.398   3.690   4.647 -2.0692 -0.5844  2.5208
 2066SOL    HW214977  10.546   3.718   4.657 -2.2981  2.4061 -0.8160
 2067SOL     OW14978  10.554   0.106   5.948  0.3200  0.3145  0.1862
 2067SOL    HW114979  10.612   0.124   6.022 -1.6006 -1.2274  2.2139
 2067SOL    HW214980  10.469   0.139   5.976 -0.1559  1.3077 -2.1456
 2068SOL     OW14981   1.986   7.536   8.669 -0.1611 -0.0443 -0.2606
 2068SOL    HW114982   2.050   7.473   8.702  0.4333  0.9639  0.5532
 2068SOL    HW214983   2.025   7.621   8.686 -0.5461  0.5650 -2.1565
 2069SOL     OW14984   7.079   4.431   0.918 -0.0127 -0.3129  0.2210
 2069SOL    HW114985   7.017   4.361   0.896  1.8403 -1.9301 -0.1339
 2069SOL    HW214986   7.119   4.404   1.000 -0.5408  1.2791  1.0504
 2070SOL     OW14987   2.696   3.334  10.569  0.6339 -0.4063 -0.1942
 2070SOL    HW114988   2.751   3.410  10.589 -0.2612 -0.0632  1.0756
 2070SOL    HW214989   2.758   3.268  10.539  1.5352  0.5280 -0.4719
 2071SOL     OW14990   2.801   9.404  10.311  0.1770 -0.4435 -0.7686
 2071SOL    HW114991   2.896   9.400  10.303  0.0841 -0.2949 -2.1542
 2071SOL    HW214992   2.775   9.471  10.248 -0.6043  1.8936  1.8743
 2072SOL     OW14993   7.929   7.268   5.613 -0.3769 -0.1422 -0.1427
 2072SOL    HW114994   7.978   7.314   5.680 -2.3440  1.5438  0.2142
 2072SOL    HW214995   7.939   7.321   5.534 -0.3324 -0.6473 -0.4883
 2073SOL     OW14996   4.195   0.747   4.243  0.7031  0.2407 -0.1781
 2073SOL    HW114997   4.244   0.681   4.291 -0.5070 -0.6273 -0.0996
 2073SOL    HW214998   4.203   0.826   4.296 -0.1793 -0.5739  1.2017
 2074SOL     OW14999   6.489   6.765   4.001  0.2042 -0.1760  0.5051
 2074SOL    HW115000   6.445   6.750   3.917  2.3978 -0.3033 -0.7062
 2074SOL    HW215001   6.512   6.858   4.000  0.4317 -0.2261  0.8881
 2075SOL     OW15002  10.716  12.378  11.613  0.2220  0.6396  0.6974
 2075SOL    HW115003  10.639  12.366  11.557 -0.2258 -0.2610  1.4941
 2075SOL    HW215004  10.726  12.473  11.618  0.8869  0.7668 -1.7230
 2076SOL     OW15005   4.983   6.298   9.703 -0.1517  0.2425  0.3388
 2076SOL    HW115006   4.952   6.365   9.642  1.8254  0.3672 -0.6226
 2076SOL    HW215007   4.904   6.252   9.731 -1.2789  1.2243 -1.0870
 2077SOL     OW15008   2.731  10.327   7.529  0.0019 -0.2823 -0.3450
 2077SOL    HW115009   2.818  10.343   7.493 -0.1119 -0.7252 -0.8279
 2077SOL    HW215010   2.673  10.327   7.453 -0.6332  1.3407  0.0904
 2078SOL     OW15011   3.146   3.193   1.026  0.1037 -0.2735 -0.4409
 2078SOL    HW115012   3.129   3.111   1.072  1.9588 -0.6867 -0.4002
 2078SOL    HW215013   3.075   3.201   0.963 -2.6515  0.4039  2.5340
 2079SOL     OW15014   0.123   4.002   5.460 -0.0847  0.4795 -0.1602
 2079SOL    HW115015   0.095   4.030   5.372  0.3524 -1.4675 -0.9582
 2079SOL    HW215016   0.048   4.021   5.516 -0.8787  0.5436 -1.2068
 2080SOL     OW15017   3.891  10.690   0.823 -0.0163 -0.5489  0.1339
 2080SOL    HW115018   3.908  10.777   0.859 -3.2729  0.1998  0.1666
 2080SOL    HW215019   3.978  10.655   0.802  1.3919  3.1848 -1.0868
 2081SOL     OW15020   3.359   2.335  12.051  0.0451 -0.3494  0.0125
 2081SOL    HW115021   3.301   2.263  12.028 -0.5040  0.7737 -2.5288
 2081SOL    HW215022   3.314   2.413  12.017  0.8201  1.1675  2.2394
 2082SOL     OW15023   1.196   8.785   0.063 -0.4073 -0.4518 -0.1621
 2082SOL    HW115024   1.190   8.858   0.125 -1.2070 -2.3143  2.0941
 2082SOL    HW215025   1.286   8.789   0.031  0.0873  0.5049  1.2350
 2083SOL     OW15026  12.477   8.619   5.487  0.1584  0.2088  0.1095
 2083SOL    HW115027  12.526   8.541   5.462 -0.9420 -0.6292  0.4456
 2083SOL    HW215028  12.512   8.642   5.573 -0.9929 -1.2878  1.0487
 2084SOL     OW15029   3.029   3.656  10.942 -0.4817  0.0153 -0.5473
 2084SOL    HW115030   2.970   3.631  11.013  0.2661  1.4100  0.6197
 2084SOL    HW215031   2.984   3.728  10.897  0.3078  1.1365  0.3943
 2085SOL     OW15032   1.522   8.380  10.057  0.7968 -0.2526  0.0527
 2085SOL    HW115033   1.538   8.467  10.021 -1.7133  0.7184  1.0354
 2085SOL    HW215034   1.457   8.341   9.998  0.9973 -0.9791  0.3015
 2086SOL     OW15035   6.563   0.048   0.888  0.2358 -0.2673  0.6066
 2086SOL    HW115036   6.518   0.051   0.972 -0.2295  1.1312  0.3234
 2086SOL    HW215037   6.653   0.074   0.908  0.3490 -0.7939  0.8003
 2087SOL     OW15038   4.557   0.705   7.077  0.3270 -0.2934 -0.2883
 2087SOL    HW115039   4.628   0.765   7.055  1.5641 -0.4395  2.7157
 2087SOL    HW215040   4.591   0.654   7.151 -1.8855 -2.4180 -0.5873
 2088SOL     OW15041   4.586   5.337   6.211  0.2520 -0.2902 -0.0732
 2088SOL    HW115042   4.653   5.302   6.152  0.7660 -0.3918  0.5608
 2088SOL    HW215043   4.599   5.431   6.210 -0.3083 -0.2121 -0.7934
 2089SOL     OW15044  12.423  12.426  11.931  0.5653 -0.4180 -0.3027
 2089SOL    HW115045  12.458  12.507  11.894 -1.0307  0.1652 -0.6113
 2089SOL    HW215046  12.339  12.414  11.888 -0.0220 -1.2956  1.0194
 2090SOL     OW15047  11.933   3.289   2.164  0.5213 -0.4484 -0.6636
 2090SOL    HW115048  11.952   3.346   2.089 -0.4637  0.3489 -0.3393
 2090SOL    HW215049  11.848   3.250   2.143  0.6847 -0.9560 -0.3839
 2091SOL     OW15050   2.780  11.977  10.035  0.7191  0.0992  0.4307
 2091SOL    HW115051   2.776  12.000   9.942  2.1428 -0.0434  0.3034
 2091SOL    HW215052   2.840  11.902  10.038 -0.6802 -1.0508  1.2799
 2092SOL     OW15053   6.765   4.263   4.006 -0.0826  0.1407  0.0280
 2092SOL    HW115054   6.683   4.225   4.038  0.4241 -0.2699  0.8876
 2092SOL    HW215055   6.833   4.215   4.053  0.6570  0.4250 -0.7322
 2093SOL     OW15056   0.145   9.914  10.020  0.0013 -0.3426  0.2442
 2093SOL    HW115057   0.087   9.976  10.064  0.4251  1.7083 -1.8776
 2093SOL    HW215058   0.209   9.889  10.086 -0.1291  1.6154  1.1811
 2094SOL     OW15059   2.523  11.244  10.311  0.1706 -0.4405 -0.1700
 2094SOL    HW115060   2.451  11.220  10.253 -1.0277  1.1927  0.5561
 2094SOL    HW215061   2.567  11.162  10.330 -1.4139 -1.4753 -0.7547
 2095SOL     OW15062   6.803   7.892   8.532  0.3068 -1.0697 -0.2107
 2095SOL    HW115063   6.863   7.863   8.601  1.6711  0.8560 -0.4874
 2095SOL    HW215064   6.860   7.916   8.459 -0.9681 -1.1444 -1.2640
 2096SOL     OW15065   9.986   3.638   7.840  0.2995  0.4408  0.2976
 2096SOL    HW115066   9.952   3.602   7.758 -0.3361  2.4241 -0.3896
 2096SOL    HW215067   9.948   3.583   7.908 -1.2180  0.2633 -0.6481
 2097SOL     OW15068   5.851   7.172   5.504  0.4821 -0.1480  0.3606
 2097SOL    HW115069   5.799   7.209   5.433 -0.7314 -2.5191 -0.1173
 2097SOL    HW215070   5.787   7.148   5.571  1.1573 -1.2149  0.6617
 2098SOL     OW15071   8.737   6.857  10.594  0.3167 -0.3078 -0.1792
 2098SOL    HW115072   8.805   6.862  10.527  0.4834  0.0095  0.0119
 2098SOL    HW215073   8.665   6.812  10.551 -0.3709  1.6773 -1.2624
 2099SOL     OW15074   7.886   0.916   0.086 -0.1201 -0.4061 -0.0264
 2099SOL    HW115075   7.921   0.901  -0.002  2.5779 -0.6058  0.9960
 2099SOL    HW215076   7.921   1.002   0.111 -0.4479 -0.5744  1.0494
 2100SOL     OW15077   5.846   1.320  10.786 -0.6820 -0.1333  0.0348
 2100SOL    HW115078   5.805   1.266  10.853 -0.4474 -0.5774 -0.1772
 2100SOL    HW215079   5.903   1.260  10.737  1.9841  0.8358  1.6964
 2101SOL     OW15080   8.999  11.322  11.839 -0.3390  0.4228  0.0183
 2101SOL    HW115081   8.929  11.267  11.874  0.2974  0.2117  1.0057
 2101SOL    HW215082   9.008  11.294  11.748 -0.7461 -0.3708  0.2117
 2102SOL     OW15083   2.488  10.386  12.368  0.2476 -0.5762 -0.4154
 2102SOL    HW115084   2.402  10.423  12.386  0.5918 -0.1583  0.4183
 2102SOL    HW215085   2.470  10.296  12.341 -0.3946 -0.8876  0.9538
 2103SOL     OW15086  11.307   4.111   2.785 -0.0202 -0.0021 -0.5519
 2103SOL    HW115087  11.225   4.156   2.806  1.4395  2.0181  1.1650
 2103SOL    HW215088  11.328   4.062   2.865 -0.6318 -2.3733 -1.7600
 2104SOL     OW15089   0.660   3.120   5.757 -0.4249 -0.2173  0.3937
 2104SOL    HW115090   0.744   3.098   5.717 -0.6155 -0.7331  0.2659
 2104SOL    HW215091   0.683   3.169   5.835 -0.0140 -0.0902  0.1961
 2105SOL     OW15092  10.626   2.280   2.266  0.1385 -0.2057  0.3399
 2105SOL    HW115093  10.583   2.278   2.351 -0.7590 -1.2120 -0.1319
 2105SOL    HW215094  10.571   2.227   2.208  1.0593 -0.0578 -0.7222
 2106SOL     OW15095   4.724   8.988   8.240  0.5506  0.2525  0.1472
 2106SOL    HW115096   4.729   8.903   8.195 -0.1056  0.1132  0.3235
 2106SOL    HW215097   4.740   8.967   8.332  0.9822  0.4098  0.1117
 2107SOL     OW15098   3.239   0.938   6.874  0.0666  0.4652 -0.1451
 2107SOL    HW115099   3.329   0.943   6.907 -0.3124  1.5037  0.8051
 2107SOL    HW215100   3.197   1.017   6.909 -0.8833  0.6344 -1.6019
 2108SOL     OW15101   7.804   0.082  10.184 -0.4036 -0.2010  0.5903
 2108SOL    HW115102   7.793   0.176  10.199 -1.6608  0.0223 -1.3363
 2108SOL    HW215103   7.760   0.040  10.258 -2.2032  0.7670  0.1412
 2109SOL     OW15104   2.829   0.846   1.831 -0.1950  0.5463 -0.1233
 2109SOL    HW115105   2.749   0.822   1.878  0.6198  1.3683  1.8301
 2109SOL    HW215106   2.814   0.935   1.801 -0.2250  0.4961 -0.2570
 2110SOL     OW15107   1.080   0.330   1.241  0.0944 -0.2990  0.2552
 2110SOL    HW115108   1.103   0.297   1.327 -0.3158  0.7472  0.7848
 2110SOL    HW215109   1.144   0.400   1.224 -1.0354  0.8440  0.5924
 2111SOL     OW15110  11.011   0.659   9.791 -0.0382 -0.5092  0.1610
 2111SOL    HW115111  11.095   0.703   9.808 -1.3875  1.5782  1.8134
 2111SOL    HW215112  10.948   0.730   9.784 -1.7231 -2.0526 -0.9955
 2112SOL     OW15113   1.300   7.438   3.047  0.6600  0.0946  0.6520
 2112SOL    HW115114   1.287   7.531   3.032 -0.4368 -0.0527  0.6155
 2112SOL    HW215115   1.212   7.400   3.044  1.1127 -0.9806  0.4070
 2113SOL     OW15116   9.621   1.837   6.402  0.0827 -0.1263 -0.2876
 2113SOL    HW115117   9.585   1.871   6.320  1.0931 -0.1887 -0.7673
 2113SOL    HW215118   9.559   1.867   6.469  0.9399  2.7878 -0.6499
 2114SOL     OW15119   9.555   0.583   1.245 -0.2607 -0.2210 -0.0337
 2114SOL    HW115120   9.459   0.581   1.246 -0.3594  1.6190  1.9612
 2114SOL    HW215121   9.581   0.545   1.329  0.7666 -0.7035 -0.5494
 2115SOL     OW15122   7.391   5.983   0.107 -0.4672  0.4629  0.1976
 2115SOL    HW115123   7.375   6.034   0.027 -0.8072 -1.8326 -1.2864
 2115SOL    HW215124   7.482   5.954   0.099 -1.3883 -2.3736 -1.0222
 2116SOL     OW15125  10.684   8.860   4.474 -0.0787  0.0895 -0.2106
 2116SOL    HW115126  10.703   8.937   4.420 -0.3513  0.0286 -0.3920
 2116SOL    HW215127  10.610   8.886   4.528  0.9586  0.5912  1.0414
 2117SOL     OW15128   5.445   3.293   9.504 -0.5353  0.9285 -0.4860
 2117SOL    HW115129   5.503   3.344   9.561  0.7376 -0.9775 -0.0169
 2117SOL    HW215130   5.404   3.229   9.562  0.0556 -0.4215 -1.5002
 2118SOL     OW15131   7.399   2.315  12.250  0.1697  0.1922  0.0842
 2118SOL    HW115132   7.312   2.284  12.224 -0.6736  0.0453  2.7702
 2118SOL    HW215133   7.405   2.403  12.212 -1.7561  0.7411  0.9116
 2119SOL     OW15134  11.272   8.925   0.285 -0.1266 -0.1595 -0.4119
 2119SOL    HW115135  11.273   8.831   0.268 -1.3832 -0.5111  1.1565
 2119SOL    HW215136  11.219   8.962   0.215 -2.7509 -1.1607  0.9056
 2120SOL     OW15137   5.658   8.624  10.178  0.0267 -0.4902  0.0269
 2120SOL    HW115138   5.671   8.579  10.261 -0.3061  0.6210  0.7037
 2120SOL    HW215139   5.581   8.583  10.139 -0.2095 -0.5733  0.5790
 2121SOL     OW15140   7.034  11.804   5.036  0.4701  0.9652 -0.3727
 2121SOL    HW115141   7.007  11.747   5.109  2.1822  1.1129  0.4125
 2121SOL    HW215142   7.023  11.750   4.958  0.5807  0.0892  0.2041
 2122SOL     OW15143  12.408   4.744  11.070  0.3440 -0.0140  0.4758
 2122SOL    HW115144  12.421   4.752  11.165 -0.1719  0.2070  0.5318
 2122SOL    HW215145  12.317   4.714  11.061 -0.3467  2.0842 -0.0174
 2123SOL     OW15146  10.262   3.966   3.753  0.1922  0.5950 -0.9192
 2123SOL    HW115147  10.339   3.946   3.806 -0.3461  1.4468  0.2324
 2123SOL    HW215148  10.242   4.058   3.773  0.6388  1.3381 -3.4882
 2124SOL     OW15149   1.404   7.271  10.927 -0.3367  0.4838 -0.3651
 2124SOL    HW115150   1.386   7.227  10.843  1.5728 -0.2967 -0.4077
 2124SOL    HW215151   1.358   7.354  10.920 -1.5541 -0.2462 -1.5220
 2125SOL     OW15152   5.227   7.015   6.395 -0.1725  0.5013  0.2625
 2125SOL    HW115153   5.249   6.955   6.466  0.6929  1.5520  0.9068
 2125SOL    HW215154   5.177   7.085   6.437 -2.5540 -0.4987 -0.7390
 2126SOL     OW15155  10.753   0.483   5.042 -0.5465  0.5169 -0.3157
 2126SOL    HW115156  10.789   0.505   5.128  1.1500  0.4113 -0.9451
 2126SOL    HW215157  10.702   0.404   5.056 -0.6277  0.7236  0.6517
 2127SOL     OW15158  10.420   0.646   9.976  0.5508 -0.4315 -0.2050
 2127SOL    HW115159  10.357   0.709   9.942  1.2271  0.9155  0.9321
 2127SOL    HW215160  10.496   0.654   9.918  0.9019  0.3464  0.3362
 2128SOL     OW15161   8.078   1.321  10.443 -0.7235 -0.6519  0.1816
 2128SOL    HW115162   8.109   1.230  10.452 -1.4125 -0.7668  1.6842
 2128SOL    HW215163   8.100   1.362  10.527 -0.2166  0.6588 -0.5595
 2129SOL     OW15164   7.469   3.352   7.214 -0.2345 -0.0618  0.1900
 2129SOL    HW115165   7.495   3.416   7.148 -0.1453 -0.4248 -0.1310
 2129SOL    HW215166   7.378   3.373   7.233 -0.8610 -1.1066 -1.4294
 2130SOL     OW15167   9.847   0.076   8.875 -0.2299 -0.4794 -0.4110
 2130SOL    HW115168   9.886   0.144   8.820 -1.2013 -1.0210 -1.8583
 2130SOL    HW215169   9.823   0.120   8.956  1.3653  0.3294 -0.3482
 2131SOL     OW15170   7.974   9.003  12.128 -0.0289  0.1581  0.3473
 2131SOL    HW115171   8.058   9.008  12.173  1.1280 -2.7717 -1.2091
 2131SOL    HW215172   7.918   8.950  12.185  0.2932 -0.6379 -0.0624
 2132SOL     OW15173   2.363   1.142   0.944  0.0185 -0.2371  0.0239
 2132SOL    HW115174   2.423   1.205   0.985 -0.8140  1.8320 -1.7442
 2132SOL    HW215175   2.278   1.161   0.982 -0.4194  0.4168 -1.2446
 2133SOL     OW15176   5.007   4.349   5.251 -0.3426  0.3886  0.1827
 2133SOL    HW115177   4.921   4.312   5.230  1.1668 -2.5222 -1.4787
 2133SOL    HW215178   5.032   4.306   5.332  0.0289  0.3417  0.0449
 2134SOL     OW15179   6.412  12.278  10.726  0.6332 -0.0837 -0.1828
 2134SOL    HW115180   6.338  12.226  10.694 -0.0348  0.0167  1.1349
 2134SOL    HW215181   6.490  12.232  10.694  0.0269  0.0274 -1.9405
 2135SOL     OW15182   1.794  11.665   1.513  0.1078  0.0643 -0.2416
 2135SOL    HW115183   1.833  11.640   1.429  0.2646 -0.1033 -0.1188
 2135SOL    HW215184   1.726  11.728   1.489 -0.2914 -0.4742 -0.5570
 2136SOL     OW15185   6.549   4.142  12.293 -0.4867 -0.4174  0.2671
 2136SOL    HW115186   6.474   4.171  12.241  0.3866  1.8313  0.1620
 2136SOL    HW215187   6.549   4.199  12.370  0.6361 -0.9583  0.6894
 2137SOL     OW15188   6.885   1.529  11.338 -0.7522  0.7578  0.1383
 2137SOL    HW115189   6.934   1.579  11.273 -1.9943 -1.1825 -2.4894
 2137SOL    HW215190   6.896   1.578  11.419  2.6841  2.1839 -0.9967
 2138SOL     OW15191   0.065   0.192   5.960 -0.2463  0.1364  0.1494
 2138SOL    HW115192   0.007   0.268   5.953  0.1856  0.3654 -1.0787
 2138SOL    HW215193   0.145   0.218   5.915  0.9156 -0.1151  1.9428
 2139SOL     OW15194   2.936   8.629   1.154  0.1613  0.3949 -0.6025
 2139SOL    HW115195   2.896   8.710   1.184 -2.2327 -0.8405 -0.2212
 2139SOL    HW215196   3.011   8.616   1.212  2.1955  3.5198 -2.2392
 2140SOL     OW15197   3.187   2.240   5.489  0.1261  0.0771 -0.0581
 2140SOL    HW115198   3.248   2.299   5.444  0.2357 -0.1913 -0.2643
 2140SOL    HW215199   3.244   2.182   5.540 -0.0008  0.4383  0.5074
 2141SOL     OW15200   2.109   1.186   1.032  0.3522  0.0532  0.1821
 2141SOL    HW115201   2.108   1.282   1.028  0.2421  0.0564  0.2644
 2141SOL    HW215202   2.028   1.160   0.988  1.7208 -0.1065 -2.3888
 2142SOL     OW15203  11.927   6.787  11.885 -0.0607 -0.3624 -0.2836
 2142SOL    HW115204  12.017   6.815  11.898 -0.4218  0.7230  0.0227
 2142SOL    HW215205  11.930   6.729  11.810  0.6920  0.8351 -1.2190
 2143SOL     OW15206   9.679   6.358   4.757  0.1085 -0.3588  0.6598
 2143SOL    HW115207   9.650   6.298   4.688  1.0134 -0.1271  0.0645
 2143SOL    HW215208   9.762   6.393   4.725  0.0114  0.5658  1.3910
 2144SOL     OW15209   7.874   9.674  11.078 -0.0247  0.0523  0.6849
 2144SOL    HW115210   7.793   9.657  11.126 -0.0610 -2.3366 -0.0970
 2144SOL    HW215211   7.847   9.672  10.986  0.8513 -0.3126  0.4324
 2145SOL     OW15212   4.613   8.013   4.677  0.1480  0.3537  0.0720
 2145SOL    HW115213   4.597   8.095   4.632 -0.4921  0.3946  0.3682
 2145SOL    HW215214   4.708   8.006   4.683  0.1997  1.1034  0.1082
 2146SOL     OW15215   0.150  12.233   7.242  0.5717  0.5551  0.2160
 2146SOL    HW115216   0.104  12.209   7.323  1.6260 -0.8152  0.4457
 2146SOL    HW215217   0.085  12.282   7.192 -0.9099 -0.6468  0.8681
 2147SOL     OW15218   3.610  10.740   5.404  0.2243 -0.0207 -0.1787
 2147SOL    HW115219   3.621  10.699   5.490  0.4725 -0.2379 -0.3097
 2147SOL    HW215220   3.518  10.729   5.384  0.0773  0.4131  0.2500
 2148SOL     OW15221   9.758  12.476   3.784 -0.3825  0.4301  0.2124
 2148SOL    HW115222   9.747  12.525   3.702 -0.3811 -0.3226 -0.2486
 2148SOL    HW215223   9.844  12.502   3.817  0.4416 -0.6324 -0.9903
 2149SOL     OW15224   2.079   6.288  10.515  0.2310  0.3165 -0.0640
 2149SOL    HW115225   2.132   6.340  10.575  1.6519 -1.6338  0.4788
 2149SOL    HW215226   2.129   6.287  10.433  0.8898 -1.1928  0.3220
 2150SOL     OW15227   8.427   6.655   1.883 -0.3608  0.2518  0.2338
 2150SOL    HW115228   8.417   6.661   1.788 -0.2642 -0.4315  0.1724
 2150SOL    HW215229   8.338   6.670   1.917 -1.1407 -2.7944 -0.1637
 2151SOL     OW15230   2.693  12.393   7.394  0.3130  0.1214  0.3920
 2151SOL    HW115231   2.661  12.433   7.314 -2.0331 -0.1364  1.1325
 2151SOL    HW215232   2.637  12.428   7.463 -0.7936 -3.0725  1.2929
 2152SOL     OW15233   9.123   4.726   5.940 -0.0040 -0.5292  0.2918
 2152SOL    HW115234   9.215   4.713   5.918  0.1546 -0.0997  0.6758
 2152SOL    HW215235   9.125   4.773   6.023 -0.5045  2.1510 -1.0834
 2153SOL     OW15236   0.713  11.679  11.196  0.2777  0.1545 -0.1198
 2153SOL    HW115237   0.651  11.739  11.237  0.7424  0.8449 -0.4023
 2153SOL    HW215238   0.659  11.614  11.153 -0.2931  1.2746 -1.1583
 2154SOL     OW15239   2.353  11.695   9.038  0.1510  0.0610 -0.4954
 2154SOL    HW115240   2.264  11.673   9.066  0.2147  0.3825 -0.0271
 2154SOL    HW215241   2.396  11.729   9.117  0.1291  1.6159 -1.1063
 2155SOL     OW15242   6.292  11.122  10.383  0.5247  0.3435 -0.2057
 2155SOL    HW115243   6.379  11.119  10.423  0.1414 -1.0166  0.6081
 2155SOL    HW215244   6.292  11.048  10.321  0.3512  1.0932 -1.1268
 2156SOL     OW15245  10.659  11.655  11.570  0.5434 -0.1711  0.3464
 2156SOL    HW115246  10.650  11.593  11.643 -0.0517 -0.7958 -0.2523
 2156SOL    HW215247  10.644  11.741  11.610 -0.4772 -0.5634  0.8299
 2157SOL     OW15248   4.481   0.687   7.673 -0.1265 -0.0883 -0.3350
 2157SOL    HW115249   4.566   0.698   7.631  0.8571 -0.8253  1.3961
 2157SOL    HW215250   4.451   0.600   7.645  1.2400 -1.2494  1.6109
 2158SOL     OW15251  12.077   3.368   0.670  0.1386 -0.3929  0.3865
 2158SOL    HW115252  12.056   3.314   0.746  0.2406  1.3282  1.6946
 2158SOL    HW215253  12.089   3.456   0.705 -3.4474  1.3000 -1.9936
 2159SOL     OW15254   3.266   3.090  12.249 -0.4824 -0.0292 -0.6454
 2159SOL    HW115255   3.308   3.138  12.179 -0.2897  0.8940  0.0845
 2159SOL    HW215256   3.179   3.069  12.216 -0.8344  1.4639 -0.7115
 2160SOL     OW15257   0.954   9.350   4.327  0.1779 -0.1470  0.0384
 2160SOL    HW115258   0.859   9.357   4.339  0.2397  0.9820  0.0532
 2160SOL    HW215259   0.965   9.321   4.237 -0.1975  3.3493 -1.3121
 2161SOL     OW15260  11.091   5.040  11.814 -0.0715  0.0697 -0.4143
 2161SOL    HW115261  11.059   4.951  11.797  0.5797 -0.2905  0.2286
 2161SOL    HW215262  11.155   5.055  11.744  0.2421 -0.1875 -0.1848
 2162SOL     OW15263   6.281   9.940   2.030  0.7145  0.5474 -0.0001
 2162SOL    HW115264   6.276   9.970   1.939  0.9579  0.6674  0.0253
 2162SOL    HW215265   6.373   9.915   2.042  1.4980  3.5494  1.1344
 2163SOL     OW15266   1.748   6.968  12.261 -0.4900  0.5106  0.0787
 2163SOL    HW115267   1.741   7.004  12.349  0.8573  0.5072  0.2017
 2163SOL    HW215268   1.781   6.879  12.274  0.0798  0.6401 -0.4487
 2164SOL     OW15269  11.658   2.056  11.277  0.0135 -0.3370  0.4407
 2164SOL    HW115270  11.637   2.121  11.345 -1.8584  2.3943 -2.4868
 2164SOL    HW215271  11.572   2.028  11.244  0.7659  0.5389 -2.5495
 2165SOL     OW15272   6.371   0.700   2.226  0.0179 -0.3115  0.3030
 2165SOL    HW115273   6.344   0.785   2.193  0.8055 -0.3224 -0.4192
 2165SOL    HW215274   6.301   0.640   2.200 -0.1413 -0.0260  0.0695
 2166SOL     OW15275   6.025   3.173   9.078 -0.4770 -0.3113  0.0219
 2166SOL    HW115276   6.076   3.217   9.010  1.9485  1.8006  2.9313
 2166SOL    HW215277   6.083   3.104   9.110 -0.9330 -0.2866  0.9363
 2167SOL     OW15278   7.654   8.157  11.853  0.0014  0.4833 -0.4274
 2167SOL    HW115279   7.566   8.158  11.816  0.2018 -1.6683 -1.0922
 2167SOL    HW215280   7.705   8.212  11.793 -0.7205  1.1498 -0.4487
 2168SOL     OW15281   7.959   1.200   3.932 -0.6417 -0.7022 -0.2691
 2168SOL    HW115282   7.951   1.140   3.858  0.0037 -2.6847  1.1999
 2168SOL    HW215283   7.908   1.159   4.002 -1.5428  1.3067  0.3122
 2169SOL     OW15284   1.766   9.422   7.449  0.3902 -1.1070 -0.0674
 2169SOL    HW115285   1.784   9.484   7.521  0.1471 -0.1578 -0.7978
 2169SOL    HW215286   1.714   9.353   7.490  2.8572 -2.2352  1.3590
 2170SOL     OW15287  12.413   6.687   0.738  0.5969 -0.2190  0.4660
 2170SOL    HW115288  12.350   6.615   0.727  0.6412 -0.6753  2.7406
 2170SOL    HW215289  12.424   6.722   0.650 -2.6332 -0.2968 -0.0942
 2171SOL     OW15290   0.108   5.326   1.202  0.2728  0.4577 -0.1227
 2171SOL    HW115291   0.070   5.297   1.118  1.1399 -0.2153 -0.2943
 2171SOL    HW215292   0.053   5.284   1.268  1.0476 -1.0041 -0.3722
 2172SOL     OW15293   1.806   1.661   9.021  0.1798 -0.2821  0.3834
 2172SOL    HW115294   1.764   1.742   9.050  1.7661  0.2309  1.3881
 2172SOL    HW215295   1.778   1.651   8.930 -1.0965  0.6674  0.6306
 2173SOL     OW15296   1.617   2.513  12.419  0.1123 -0.2232  0.0266
 2173SOL    HW115297   1.690   2.557  12.462  0.8761 -0.1418 -1.3268
 2173SOL    HW215298   1.610   2.429  12.465 -0.4654  0.6986  1.6951
 2174SOL     OW15299   6.171   6.795   3.411  0.0811  0.3462  0.2072
 2174SOL    HW115300   6.234   6.868   3.409 -0.7883  1.1566  1.0712
 2174SOL    HW215301   6.187   6.747   3.330  2.7105 -0.2510  0.9938
 2175SOL     OW15302   0.172  10.396   2.363  0.3052 -0.8191 -0.4976
 2175SOL    HW115303   0.264  10.401   2.335  0.2214  1.3519 -0.5568
 2175SOL    HW215304   0.122  10.398   2.281  0.1818  0.9142 -0.4267
 2176SOL     OW15305   9.281   2.517   0.087  0.0382 -0.1954 -0.1567
 2176SOL    HW115306   9.311   2.525   0.177  2.0463  0.8942 -0.8593
 2176SOL    HW215307   9.355   2.477   0.041 -1.7206 -2.8024 -0.9775
 2177SOL     OW15308   3.190   5.956  10.300  0.1670 -0.7740  0.1860
 2177SOL    HW115309   3.118   5.907  10.261  0.4471 -0.7299 -0.3976
 2177SOL    HW215310   3.156   6.045  10.309 -0.0467 -0.8811  0.4502
 2178SOL     OW15311  10.580   4.805   4.588  0.0191  0.4606  0.2094
 2178SOL    HW115312  10.575   4.743   4.515  0.2504 -0.9995  1.3893
 2178SOL    HW215313  10.664   4.786   4.630 -0.5742  0.5239  1.4818
 2179SOL     OW15314   6.567   4.592   9.599  0.2571 -0.6471  0.0251
 2179SOL    HW115315   6.655   4.625   9.581  0.7842 -1.5376  0.8902
 2179SOL    HW215316   6.578   4.497   9.608 -1.0258 -0.9568 -1.2152
 2180SOL     OW15317   1.145   7.013   2.141  0.5446 -0.0290 -0.0388
 2180SOL    HW115318   1.218   7.040   2.196 -0.8582 -1.3036  2.6222
 2180SOL    HW215319   1.094   7.093   2.129  0.8398  0.2597  0.5884
 2181SOL     OW15320   7.454   9.270   3.930 -0.2708  0.1929  0.8118
 2181SOL    HW115321   7.534   9.273   3.878 -1.0801  0.1586 -0.4601
 2181SOL    HW215322   7.460   9.348   3.986  0.7374  0.0826  0.8816
 2182SOL     OW15323   4.081   7.672   0.407 -0.4454  0.3634  0.2039
 2182SOL    HW115324   4.170   7.638   0.407 -0.1665  1.0304 -0.9935
 2182SOL    HW215325   4.062   7.690   0.499  1.1200  1.3739  0.3645
 2183SOL     OW15326   8.588   4.005  10.779  0.1309 -0.0484 -0.1266
 2183SOL    HW115327   8.619   3.953  10.705 -1.4228 -0.3988 -0.5592
 2183SOL    HW215328   8.558   3.940  10.843  0.0952  0.2813  0.1953
 2184SOL     OW15329  11.201  11.719  12.570 -0.1161 -0.3823  0.9179
 2184SOL    HW115330  11.247  11.788  12.522  1.8077 -0.5973  2.3401
 2184SOL    HW215331  11.112  11.754  12.583  0.2535  0.9920 -0.0505
 2185SOL     OW15332   8.723   4.421   7.056  0.1673 -0.7492 -0.0893
 2185SOL    HW115333   8.643   4.471   7.075  1.2989  0.2793  2.3690
 2185SOL    HW215334   8.761   4.404   7.142  1.7994 -2.6209 -1.1120
 2186SOL     OW15335   6.157   0.612  10.454  0.0045  0.2765  0.0902
 2186SOL    HW115336   6.133   0.622  10.362 -0.3945  1.7886  0.3221
 2186SOL    HW215337   6.227   0.547  10.454  0.0187  0.2600 -1.2762
 2187SOL     OW15338   4.572   9.279  10.990  0.2499 -0.0487 -0.5543
 2187SOL    HW115339   4.611   9.234  11.065  0.3885  0.2435 -0.4476
 2187SOL    HW215340   4.638   9.274  10.921  0.9066  1.3207 -0.0561
 2188SOL     OW15341   6.875  10.308   4.369  0.4976  0.5049 -0.2720
 2188SOL    HW115342   6.925  10.386   4.394  0.5234  0.8687 -1.4249
 2188SOL    HW215343   6.828  10.333   4.290 -0.4094 -0.2906 -0.0091
 2189SOL     OW15344   5.673  11.998  10.027  0.6703 -0.0125 -0.7172
 2189SOL    HW115345   5.696  11.905  10.033  0.9905 -0.0277 -2.0068
 2189SOL    HW215346   5.597  12.000   9.969  0.7634  0.5524 -0.8239
 2190SOL     OW15347   3.441   4.680  11.647 -0.0180  0.1726  0.0081
 2190SOL    HW115348   3.531   4.709  11.630 -0.3664  0.8640 -0.7530
 2190SOL    HW215349   3.412   4.735  11.720  0.4081 -0.5675  0.7576
 2191SOL     OW15350   3.903   1.034   1.482  0.0033 -0.2570 -0.4998
 2191SOL    HW115351   3.980   1.009   1.533  0.4738  1.5778 -0.2385
 2191SOL    HW215352   3.911   0.985   1.400  0.5686 -1.3147  0.1515
 2192SOL     OW15353  10.587   5.939   7.516 -0.3673 -0.1910  0.3007
 2192SOL    HW115354  10.550   6.000   7.452 -0.7268 -0.4655  0.2454
 2192SOL    HW215355  10.573   5.852   7.478 -0.1032 -0.3258  0.5045
 2193SOL     OW15356  10.019   0.388   7.645  0.0075 -0.0083 -0.1248
 2193SOL    HW115357  10.074   0.315   7.621 -1.1279  0.2125 -4.0125
 2193SOL    HW215358   9.939   0.348   7.680 -0.2055 -0.6588 -1.2974
 2194SOL     OW15359  12.303   2.172   8.960 -0.5218  0.5094 -0.0100
 2194SOL    HW115360  12.333   2.082   8.975 -1.4197  0.2725  0.5133
 2194SOL    HW215361  12.242   2.165   8.887  0.1872  0.8739 -0.6455
 2195SOL     OW15362  11.826  10.108   3.591 -0.1943 -0.8967  0.4674
 2195SOL    HW115363  11.764  10.123   3.519  0.0972  3.3573  0.8204
 2195SOL    HW215364  11.900  10.063   3.550 -0.9655 -0.5706 -1.3985
 2196SOL     OW15365   4.733   8.616   5.243  0.0032  0.5889  0.3073
 2196SOL    HW115366   4.696   8.664   5.317 -1.1397 -0.4036  0.4098
 2196SOL    HW215367   4.656   8.591   5.190  0.8285  2.0048 -1.6937
 2197SOL     OW15368   2.425  10.980   4.179  0.6348  0.0407  0.1100
 2197SOL    HW115369   2.500  10.960   4.124  0.8969 -2.1940  1.1441
 2197SOL    HW215370   2.409  11.073   4.166  2.3638  0.1521 -1.6116
 2198SOL     OW15371   3.560   5.886   4.818 -0.4528 -0.0857 -0.4413
 2198SOL    HW115372   3.489   5.898   4.755 -2.4386 -0.1018  1.6451
 2198SOL    HW215373   3.617   5.821   4.777 -3.0832 -2.1353 -1.1678
 2199SOL     OW15374   2.183   3.061   6.424 -0.0565  0.0882 -0.5895
 2199SOL    HW115375   2.272   3.026   6.427  0.0710  0.4251  1.6872
 2199SOL    HW215376   2.193   3.153   6.448 -1.1438 -0.3549  1.9353
 2200SOL     OW15377   7.644   9.664   3.298 -0.4060 -0.1154  0.7308
 2200SOL    HW115378   7.688   9.663   3.213 -0.6222  0.1730  0.6119
 2200SOL    HW215379   7.691   9.729   3.349 -0.3275 -0.2294  0.8021
 2201SOL     OW15380   1.365   8.438   7.323 -0.3635 -0.3142 -0.0975
 2201SOL    HW115381   1.425   8.422   7.250  0.5439 -2.6324  1.0235
 2201SOL    HW215382   1.399   8.516   7.366  0.7686 -0.5301 -0.5726
 2202SOL     OW15383   1.591  10.588   4.577  0.4012 -0.7942  0.2889
 2202SOL    HW115384   1.513  10.618   4.530 -0.7174 -1.5168  1.6065
 2202SOL    HW215385   1.660  10.588   4.511 -0.9456 -1.1360 -1.1973
 2203SOL     OW15386   6.474   0.973   9.896  0.6594 -0.3118 -0.1396
 2203SOL    HW115387   6.559   0.962   9.939  1.4931  1.6326 -1.1523
 2203SOL    HW215388   6.493   0.964   9.802 -0.0235  1.1415 -0.4511
 2204SOL     OW15389  12.059  12.015  10.215  0.0864 -0.4917 -0.3777
 2204SOL    HW115390  12.032  11.989  10.304  1.8969 -1.1839  0.0142
 2204SOL    HW215391  12.010  12.096  10.199 -0.6113 -0.5738  1.0807
 2205SOL     OW15392   8.531  11.836  10.939 -0.2858  0.3964 -0.1131
 2205SOL    HW115393   8.478  11.767  10.979  0.1717 -1.0941 -1.9090
 2205SOL    HW215394   8.468  11.890  10.892 -0.4304 -0.2797 -0.7189
 2206SOL     OW15395   4.175  11.269  10.356 -0.2080  0.3487 -0.5710
 2206SOL    HW115396   4.159  11.270  10.450 -2.1494 -2.0740 -0.7631
 2206SOL    HW215397   4.203  11.358  10.335  0.8073  0.8075  2.3447
 2207SOL     OW15398  11.490   3.639   7.582  0.6020  0.1157 -0.6225
 2207SOL    HW115399  11.471   3.714   7.525 -0.8611  0.5324  0.3595
 2207SOL    HW215400  11.454   3.564   7.534 -0.4331  0.4353 -0.3640
 2208SOL     OW15401   9.532   9.367   0.456  0.4637 -0.9228 -0.6657
 2208SOL    HW115402   9.482   9.320   0.523  0.2830  1.4465  0.9921
 2208SOL    HW215403   9.621   9.373   0.491  0.4399  0.0759 -0.7309
 2209SOL     OW15404  12.368   3.024  10.305  0.2193  0.4556 -0.1637
 2209SOL    HW115405  12.449   3.067  10.279 -0.9399  1.2360 -2.8181
 2209SOL    HW215406  12.346   2.967  10.232 -1.8677  0.6304  0.2653
 2210SOL     OW15407   3.864  10.097   0.083  0.0740 -0.5526  0.2843
 2210SOL    HW115408   3.892  10.188   0.080 -1.6577 -0.0090 -0.3650
 2210SOL    HW215409   3.838  10.083   0.174  1.5939 -0.8270  0.7016
 2211SOL     OW15410  12.365   1.145   3.760  0.2335  0.8082  0.6270
 2211SOL    HW115411  12.342   1.123   3.670  0.0862  0.7292  0.6844
 2211SOL    HW215412  12.294   1.202   3.789  0.8762  1.8093  0.2996
 2212SOL     OW15413  12.512   1.960  11.994 -0.5024  0.0414  0.5267
 2212SOL    HW115414  12.493   1.908  11.915  0.4949  0.3149  0.0850
 2212SOL    HW215415  12.533   2.047  11.961 -0.5440  0.2860  1.1353
 2213SOL     OW15416  12.253   9.858   7.476 -0.1514  0.5085 -0.1547
 2213SOL    HW115417  12.263   9.951   7.493  0.1193  0.6266 -0.9187
 2213SOL    HW215418  12.158   9.846   7.468 -0.1149  1.2269 -2.5916
 2214SOL     OW15419   5.014   7.146  12.447 -0.4791  0.2355  0.5558
 2214SOL    HW115420   5.021   7.083  12.375  0.4735  0.5176  0.3853
 2214SOL    HW215421   4.967   7.099  12.515 -1.0963 -0.1502 -0.1244
 2215SOL     OW15422   8.435   3.204   8.376 -0.4239  0.1646  0.4887
 2215SOL    HW115423   8.519   3.250   8.376 -0.1275 -0.3695  0.1169
 2215SOL    HW215424   8.370   3.273   8.360 -0.1383  0.7117  1.5616
 2216SOL     OW15425  12.514   7.459   0.310 -0.5048  0.8329  0.1140
 2216SOL    HW115426  12.485   7.431   0.224  1.7737 -0.9781 -0.1683
 2216SOL    HW215427  12.550   7.380   0.350  0.9640  2.1853  1.6323
 2217SOL     OW15428  10.375   6.151   1.050  0.1409  0.1231 -0.1736
 2217SOL    HW115429  10.324   6.161   1.130  0.5766 -0.0737  0.1254
 2217SOL    HW215430  10.311   6.168   0.980 -0.8232 -1.9288  0.1190
 2218SOL     OW15431   3.387   5.849   4.148 -0.0408  0.4344 -0.5252
 2218SOL    HW115432   3.377   5.841   4.053  0.6874 -1.8040 -0.4615
 2218SOL    HW215433   3.481   5.861   4.161  0.0947 -1.0616 -0.0207
 2219SOL     OW15434   7.371   5.177   8.507  0.0453  0.1059  0.0838
 2219SOL    HW115435   7.457   5.173   8.465  0.7740  0.7407  1.4508
 2219SOL    HW215436   7.374   5.257   8.561 -1.3472  0.0615  0.2669
 2220SOL     OW15437   3.807   6.756   9.241 -0.1907 -0.4297  0.0198
 2220SOL    HW115438   3.796   6.851   9.250 -0.4661 -0.6315  2.2543
 2220SOL    HW215439   3.870   6.732   9.308 -0.6530 -1.9373 -0.0483
 2221SOL     OW15440   0.883   9.760  11.034 -0.1392  0.1213  0.2684
 2221SOL    HW115441   0.844   9.846  11.047 -0.7071 -0.2366  0.9909
 2221SOL    HW215442   0.977   9.775  11.045 -0.0894  0.8763 -0.9158
 2222SOL     OW15443  11.698  10.167   7.875 -0.2290 -0.0364 -0.3699
 2222SOL    HW115444  11.717  10.119   7.795  0.5991  0.0887 -0.2623
 2222SOL    HW215445  11.764  10.135   7.938 -0.4755  0.3118  0.0712
 2223SOL     OW15446   7.177   6.622  10.357  0.9358 -0.1916  0.3763
 2223SOL    HW115447   7.081   6.616  10.358  1.0368 -2.3861  0.3389
 2223SOL    HW215448   7.207   6.531  10.357  3.0169  0.3340 -2.6907
 2224SOL     OW15449   6.390   5.721   6.191 -0.2109  0.5629 -0.4253
 2224SOL    HW115450   6.403   5.633   6.155  1.6493  0.8564 -0.5501
 2224SOL    HW215451   6.428   5.780   6.126 -2.6952  1.6384 -1.0300
 2225SOL     OW15452   6.687  10.164   1.097  0.0985  0.4589  0.4896
 2225SOL    HW115453   6.679  10.228   1.168 -0.6605  0.2439  0.6084
 2225SOL    HW215454   6.689  10.079   1.142 -0.1603  0.3333  0.2683
 2226SOL     OW15455   4.588   8.955   9.326  0.5470 -0.0901 -0.3984
 2226SOL    HW115456   4.592   8.859   9.321  1.0459 -0.1928  1.2180
 2226SOL    HW215457   4.661   8.978   9.383 -0.3242  1.1624  0.2469
 2227SOL     OW15458  11.243   0.208  11.480 -0.0155 -0.1140 -0.0262
 2227SOL    HW115459  11.277   0.119  11.469 -2.1906 -1.1117  0.7387
 2227SOL    HW215460  11.310   0.252  11.533  1.5320 -0.9781 -1.1641
 2228SOL     OW15461  12.194   6.356   3.444  0.7575 -0.3491  0.2710
 2228SOL    HW115462  12.121   6.414   3.422  1.2987  0.4796  0.5955
 2228SOL    HW215463  12.237   6.338   3.360  0.6795 -0.1390  0.1838
 2229SOL     OW15464   3.969   0.336   5.506 -0.2189 -0.2273  0.5263
 2229SOL    HW115465   4.036   0.392   5.545 -0.5391  1.1584 -0.8169
 2229SOL    HW215466   4.014   0.253   5.490  0.8863  0.3277  0.6356
 2230SOL     OW15467   1.948  11.743   2.015 -0.2207 -0.2480  0.3525
 2230SOL    HW115468   1.989  11.777   2.095 -1.8323  1.4775  0.5146
 2230SOL    HW215469   1.860  11.781   2.015 -1.7168 -3.3477 -0.2347
 2231SOL     OW15470   1.166   9.815  12.435  0.2408  0.7578  0.1726
 2231SOL    HW115471   1.114   9.889  12.404 -0.0773  0.5246  0.1491
 2231SOL    HW215472   1.193   9.840  12.524 -0.2895  0.6872  0.3584
 2232SOL     OW15473   5.010   8.543   4.923  0.4852 -0.0923  0.4583
 2232SOL    HW115474   5.044   8.463   4.966 -0.3939 -1.9541 -2.0862
 2232SOL    HW215475   5.079   8.568   4.862  0.7492  1.1686  1.2311
 2233SOL     OW15476   7.028   2.926   2.909 -0.1456  0.4923 -0.1529
 2233SOL    HW115477   6.974   3.003   2.890  1.8552  2.5975  2.0076
 2233SOL    HW215478   7.097   2.928   2.843  0.2296  0.9467  0.2402
 2234SOL     OW15479   3.492   1.167  10.388  0.0780  0.2986  0.4647
 2234SOL    HW115480   3.407   1.185  10.348  0.0975  0.7834  0.6312
 2234SOL    HW215481   3.553   1.163  10.314  0.1803  1.5935  0.4641
 2235SOL     OW15482   6.881   6.212   2.358 -0.4034 -0.5339 -0.4598
 2235SOL    HW115483   6.834   6.129   2.348  1.2952 -1.8662  1.6335
 2235SOL    HW215484   6.945   6.213   2.288  1.6210 -2.5872  1.2140
 2236SOL     OW15485   3.896  12.494   7.238  0.0958 -0.2278  0.3260
 2236SOL    HW115486   3.838  12.501   7.313 -2.0891 -0.1189 -1.2979
 2236SOL    HW215487   3.947  12.575   7.239 -1.7156  0.9545  0.2639
 2237SOL     OW15488   4.875   1.549   6.391  0.3551 -0.1525  0.2270
 2237SOL    HW115489   4.873   1.453   6.397 -1.0360 -0.2109 -0.7650
 2237SOL    HW215490   4.842   1.568   6.304 -2.2451  1.3339  1.4353
 2238SOL     OW15491   4.148   5.571   9.892  0.0218 -0.3368  0.5253
 2238SOL    HW115492   4.174   5.620   9.970  0.4143 -0.3059  0.3774
 2238SOL    HW215493   4.167   5.480   9.914 -3.2530 -0.8147  1.8681
 2239SOL     OW15494   8.491   8.265  10.945  0.4417 -0.0914 -0.5434
 2239SOL    HW115495   8.480   8.357  10.920 -0.3963 -0.0070  0.0697
 2239SOL    HW215496   8.576   8.240  10.910  0.7928  0.9916 -0.5020
 2240SOL     OW15497   8.751   0.454   7.664 -0.7336 -0.4246 -0.4586
 2240SOL    HW115498   8.686   0.440   7.733  0.8452 -1.4636  0.9139
 2240SOL    HW215499   8.772   0.547   7.670 -1.8769 -0.1313 -0.7519
 2241SOL     OW15500   2.288   4.981   6.986 -0.3090  0.0227  0.1034
 2241SOL    HW115501   2.372   4.936   6.996 -1.7757 -2.4957  2.5773
 2241SOL    HW215502   2.307   5.073   7.008  1.8725 -0.3774  0.0991
 2242SOL     OW15503   3.893   4.456   8.251  0.6447  0.2504 -0.4902
 2242SOL    HW115504   3.844   4.525   8.206  1.6776  1.2462 -0.1319
 2242SOL    HW215505   3.949   4.503   8.313  1.7869 -0.8742 -0.6394
 2243SOL     OW15506   4.407   5.832   7.329  0.0228 -0.0234 -0.1179
 2243SOL    HW115507   4.480   5.894   7.320 -1.6677  2.0153 -0.5242
 2243SOL    HW215508   4.373   5.822   7.240  0.2756 -1.6368 -0.0672
 2244SOL     OW15509   3.116   8.873   4.663  0.3210  0.6360 -0.2597
 2244SOL    HW115510   3.059   8.914   4.727  1.2260 -0.6128  1.4238
 2244SOL    HW215511   3.104   8.779   4.676 -0.6770  0.2665 -3.0587
 2245SOL     OW15512   5.224   1.208   2.891  0.1146 -0.1185  0.2652
 2245SOL    HW115513   5.168   1.283   2.869  0.1218 -0.1093  0.2769
 2245SOL    HW215514   5.311   1.247   2.905  0.1408 -0.1425  0.1701
 2246SOL     OW15515   6.365   6.067   6.363 -0.4066  0.7413 -0.0730
 2246SOL    HW115516   6.448   6.021   6.377 -0.9377 -1.2857 -2.8919
 2246SOL    HW215517   6.300   6.012   6.407 -0.6927  0.3582 -0.9708
 2247SOL     OW15518  10.673  12.066   8.495 -0.1951 -0.3466 -0.5613
 2247SOL    HW115519  10.623  12.003   8.444 -0.2055 -3.2357  2.6913
 2247SOL    HW215520  10.762  12.063   8.458 -0.4391 -1.5582 -1.0742
 2248SOL     OW15521   2.170   5.518   5.291  0.0127 -0.1505  0.6272
 2248SOL    HW115522   2.248   5.479   5.330  0.0190 -1.1546 -0.3259
 2248SOL    HW215523   2.101   5.453   5.306  0.4899 -1.7265 -2.8931
 2249SOL     OW15524   4.127   3.216   1.069 -0.7423  0.1619  0.3893
 2249SOL    HW115525   4.086   3.286   1.120  0.6775  0.3226  1.3759
 2249SOL    HW215526   4.215   3.207   1.107 -0.9695 -2.3577  0.4983
 2250SOL     OW15527  10.651   3.185   4.610 -0.3906 -0.1718 -0.0112
 2250SOL    HW115528  10.656   3.144   4.523  0.0306 -1.4694  0.6052
 2250SOL    HW215529  10.560   3.171   4.637 -0.3038 -0.5121  0.1078
 2251SOL     OW15530  11.226   5.171   4.346 -0.0921 -0.3847  0.5063
 2251SOL    HW115531  11.131   5.165   4.334 -0.3006  1.1517  1.1468
 2251SOL    HW215532  11.237   5.235   4.416  1.3787 -1.9624  1.8102
 2252SOL     OW15533   7.445   6.797   8.585  0.0829 -0.0869 -0.2464
 2252SOL    HW115534   7.498   6.859   8.636 -0.2926  2.3913 -2.6629
 2252SOL    HW215535   7.508   6.734   8.550  0.7833  0.1546  0.5495
 2253SOL     OW15536  10.544   8.314   6.104  0.0868  0.2977  0.4248
 2253SOL    HW115537  10.507   8.275   6.025 -0.2885  2.7850 -0.7432
 2253SOL    HW215538  10.556   8.241   6.164 -0.0931 -1.6229 -1.7392
 2254SOL     OW15539   3.421   1.622   9.742  0.1150  0.3099 -0.4660
 2254SOL    HW115540   3.419   1.592   9.833  1.1184 -0.1845 -0.5822
 2254SOL    HW215541   3.330   1.622   9.714 -0.0248 -1.8885 -0.1863
 2255SOL     OW15542   1.769   0.105   5.618  0.7572  0.1665  0.5790
 2255SOL    HW115543   1.762   0.033   5.555 -0.4301  0.5382  0.2486
 2255SOL    HW215544   1.719   0.076   5.694  1.4534  0.0750  1.0051
 2256SOL     OW15545   7.397   8.837   1.463  0.6364  0.0582  0.2831
 2256SOL    HW115546   7.458   8.766   1.443  0.4733 -0.2470  0.8409
 2256SOL    HW215547   7.454   8.908   1.495  0.8811  0.4927 -1.0419
 2257SOL     OW15548   3.744   7.532   7.722 -0.0081  0.6400 -0.3992
 2257SOL    HW115549   3.666   7.499   7.768  0.8050 -3.2437 -1.4029
 2257SOL    HW215550   3.712   7.557   7.635 -0.4218  0.9933 -0.1500
 2258SOL     OW15551   3.503   4.900   3.891 -0.0300 -0.5759 -0.0168
 2258SOL    HW115552   3.465   4.812   3.887  0.2356 -0.7400  0.8637
 2258SOL    HW215553   3.475   4.935   3.975  2.2747 -0.9731  1.0038
 2259SOL     OW15554   1.449   6.070  11.444  0.9560  0.0641 -0.2805
 2259SOL    HW115555   1.404   6.148  11.478 -2.0142 -1.4834 -0.3672
 2259SOL    HW215556   1.468   6.017  11.521  0.9947 -0.1030 -0.4039
 2260SOL     OW15557   9.448   3.598   2.849  0.0972  0.1151 -0.1964
 2260SOL    HW115558   9.414   3.619   2.762  1.0356 -0.0291 -0.6062
 2260SOL    HW215559   9.401   3.519   2.875  0.8145 -0.6530 -1.1722
 2261SOL     OW15560   0.383   6.727   3.932 -0.1975 -0.0750  0.6422
 2261SOL    HW115561   0.409   6.712   4.023  0.1618  1.0533  0.7370
 2261SOL    HW215562   0.319   6.658   3.914 -0.4425 -0.1802  1.8172
 2262SOL     OW15563   1.675   7.144   6.792  0.0293 -0.3051 -0.1508
 2262SOL    HW115564   1.610   7.124   6.859 -0.9623 -0.0217 -0.9983
 2262SOL    HW215565   1.692   7.238   6.802  1.6811 -0.7046  1.2263
 2263SOL     OW15566   9.104   8.201   4.329 -0.1240 -0.1598  0.2883
 2263SOL    HW115567   9.194   8.233   4.338  0.3072 -1.3907  0.6286
 2263SOL    HW215568   9.092   8.190   4.235 -0.1919  0.7162  0.1855
 2264SOL     OW15569   0.086   2.227  11.870 -0.3165  0.2219 -0.7686
 2264SOL    HW115570   0.110   2.304  11.817  1.8670  0.2288  0.1276
 2264SOL    HW215571   0.045   2.264  11.948  2.2169  0.6959  0.4470
 2265SOL     OW15572   8.106   4.968   3.104  0.8504  0.2618  0.3922
 2265SOL    HW115573   8.096   4.967   3.199  1.5499 -1.6862  0.5061
 2265SOL    HW215574   8.162   5.043   3.085 -0.3757  1.4589  1.3531
 2266SOL     OW15575   3.859   6.121   4.824  1.0354  0.2568 -1.0288
 2266SOL    HW115576   3.875   6.029   4.844 -0.2743  0.1022 -0.5875
 2266SOL    HW215577   3.796   6.149   4.890  0.7633  1.2358 -1.6910
 2267SOL     OW15578  11.565  12.416   2.673  0.3819  0.4310 -0.1545
 2267SOL    HW115579  11.493  12.463   2.632 -1.0279 -1.6551 -0.2440
 2267SOL    HW215580  11.642  12.439   2.620 -0.6088  1.0807 -1.3623
 2268SOL     OW15581   3.734   9.333   1.360 -0.1347  0.1246  0.0308
 2268SOL    HW115582   3.704   9.358   1.447  0.1715 -0.8984  0.4478
 2268SOL    HW215583   3.719   9.238   1.356 -1.1828  0.3118 -1.4408
 2269SOL     OW15584   0.441   9.653   0.623  0.1010 -0.4171  0.0991
 2269SOL    HW115585   0.462   9.665   0.530  0.4485 -0.9063  0.1095
 2269SOL    HW215586   0.346   9.655   0.626  0.0935 -0.1519 -0.2366
 2270SOL     OW15587   9.270   6.380   7.958  0.0861 -0.1046  0.2618
 2270SOL    HW115588   9.243   6.415   7.873  0.1044 -1.8142 -0.4840
 2270SOL    HW215589   9.189   6.365   8.006  0.0669  0.6473  0.4806
 2271SOL     OW15590  10.874  11.622   0.197  0.5699  0.0859 -0.0511
 2271SOL    HW115591  10.785  11.658   0.205  0.8845  0.8398  0.1460
 2271SOL    HW215592  10.861  11.527   0.190 -0.3431  0.2972 -1.6379
 2272SOL     OW15593   8.648   5.398   1.292 -0.2054 -0.1204  0.6228
 2272SOL    HW115594   8.660   5.413   1.386 -0.6232 -0.2636  0.7031
 2272SOL    HW215595   8.638   5.485   1.255  1.9604  0.0910  0.4031
 2273SOL     OW15596   5.517  10.216   3.558 -0.2891 -0.3340 -0.1691
 2273SOL    HW115597   5.478  10.217   3.645  1.0383  1.2505  0.4676
 2273SOL    HW215598   5.540  10.124   3.542 -0.5950 -0.6468  1.1185
 2274SOL     OW15599   4.125   5.223   0.605  0.2052 -0.1866  0.1827
 2274SOL    HW115600   4.207   5.271   0.595  0.3232 -0.2491  0.8349
 2274SOL    HW215601   4.114   5.212   0.699 -1.0436  0.6436  0.1620
 2275SOL     OW15602   6.288   8.520   8.772 -0.0543 -0.3067 -0.5006
 2275SOL    HW115603   6.261   8.612   8.774  2.1644  0.3863  0.3475
 2275SOL    HW215604   6.206   8.471   8.773 -1.3101  1.6537 -1.6049
 2276SOL     OW15605   1.846   5.852   3.567 -0.1001  0.6944 -0.7528
 2276SOL    HW115606   1.758   5.866   3.602  0.2237 -0.3779  0.5853
 2276SOL    HW215607   1.900   5.836   3.644  0.7435 -1.2640 -1.6836
 2277SOL     OW15608  11.942  10.887   9.134  0.1838  0.0997 -0.5926
 2277SOL    HW115609  11.929  10.925   9.221 -0.0044  1.1556 -1.0605
 2277SOL    HW215610  12.036  10.891   9.119  0.4345 -1.6272  0.2057
 2278SOL     OW15611  12.087   5.400   0.749  0.3122 -0.8311 -0.3850
 2278SOL    HW115612  12.045   5.330   0.698  1.2298 -0.0480 -2.2906
 2278SOL    HW215613  12.047   5.481   0.718 -1.3884 -0.4742  2.4393
 2279SOL     OW15614  10.957  11.174  11.993  0.5221  0.8972 -0.4914
 2279SOL    HW115615  10.869  11.164  12.028  0.0998  0.6202 -1.5855
 2279SOL    HW215616  10.991  11.085  11.990 -0.0199  0.7141 -2.1737
 2280SOL     OW15617  11.975   2.108  11.979  0.0904 -0.2160  0.3912
 2280SOL    HW115618  12.061   2.066  11.980  0.4648  0.5356  0.5494
 2280SOL    HW215619  11.991   2.193  11.937 -0.3681  0.3626  1.3734
 2281SOL     OW15620   1.814   1.471  11.694  0.5008 -0.3120  0.0564
 2281SOL    HW115621   1.832   1.468  11.600  2.0960  0.4572  0.2923
 2281SOL    HW215622   1.764   1.392  11.712  0.4612 -0.6410 -1.3827
 2282SOL     OW15623   7.726   6.137   8.940  0.1309 -0.1671 -0.1210
 2282SOL    HW115624   7.665   6.114   8.869  0.2836 -0.9537 -0.0088
 2282SOL    HW215625   7.680   6.113   9.020  0.2699 -0.0176  0.0028
 2283SOL     OW15626   9.323   2.742   9.158  0.2514 -0.0357  0.0090
 2283SOL    HW115627   9.290   2.711   9.074 -0.3179  0.4106  0.0624
 2283SOL    HW215628   9.367   2.666   9.197 -0.8657 -0.6910  0.0193
 2284SOL     OW15629   7.659   1.462   6.880  0.0467  0.7650 -0.1857
 2284SOL    HW115630   7.674   1.386   6.824  0.7537  0.2759  0.6465
 2284SOL    HW215631   7.577   1.443   6.925  1.2307 -0.5237  1.5775
 2285SOL     OW15632   4.885   1.900  10.817 -0.7016  0.3991 -0.4163
 2285SOL    HW115633   4.878   1.995  10.811  0.7355  0.4632 -1.8865
 2285SOL    HW215634   4.956   1.884  10.879  0.3750  0.3899 -1.5929
 2286SOL     OW15635  10.460  10.143   3.053 -0.5026 -0.7302 -0.1420
 2286SOL    HW115636  10.509  10.160   2.973  1.3115 -1.9743  0.6396
 2286SOL    HW215637  10.527  10.133   3.121 -1.9726  0.0291  1.5009
 2287SOL     OW15638   5.810   0.659   0.763  0.4726 -0.2540 -0.6352
 2287SOL    HW115639   5.779   0.592   0.702  4.1735 -1.7474 -1.1452
 2287SOL    HW215640   5.794   0.622   0.849 -0.3263 -0.3614 -0.8237
 2288SOL     OW15641   4.776   0.451  11.318  0.5563  0.6382 -0.2016
 2288SOL    HW115642   4.682   0.437  11.330  0.3070  2.0003 -0.3954
 2288SOL    HW215643   4.811   0.364  11.301 -0.5363 -0.0144  0.7221
 2289SOL     OW15644   6.576  12.488   5.694 -0.1913  0.4949 -0.0944
 2289SOL    HW115645   6.492  12.442   5.696  0.2172 -0.2497  1.0668
 2289SOL    HW215646   6.553  12.581   5.691 -1.0643  0.3169  0.7577
 2290SOL     OW15647   1.101   1.616   2.349 -0.1965 -0.4014  0.5595
 2290SOL    HW115648   1.079   1.680   2.282  1.1140 -1.6523 -1.1465
 2290SOL    HW215649   1.086   1.663   2.432  1.2698  2.3275 -0.5792
 2291SOL     OW15650   6.720   7.587   1.654  0.4075 -0.6114 -0.4019
 2291SOL    HW115651   6.707   7.495   1.678  0.5220 -0.2419  1.1556
 2291SOL    HW215652   6.699   7.636   1.733  0.3498  0.7212 -1.2054
 2292SOL     OW15653   9.226   3.040  10.629 -0.1601 -0.4932  0.6996
 2292SOL    HW115654   9.295   3.078  10.683  0.9621 -1.0948 -0.2617
 2292SOL    HW215655   9.167   2.998  10.691  0.2287  0.2143  1.5586
 2293SOL     OW15656  10.098  12.106   5.063  0.3542 -0.6425  0.1138
 2293SOL    HW115657  10.041  12.095   5.139  0.8329  0.3941  0.6467
 2293SOL    HW215658  10.159  12.176   5.088  0.0732  0.2311 -1.4656
 2294SOL     OW15659   8.695  10.155   2.734 -0.1263 -0.6314  0.0232
 2294SOL    HW115660   8.709  10.141   2.827 -2.3537  1.9918  0.8876
 2294SOL    HW215661   8.779  10.187   2.701  0.2905 -0.1675  1.4813
 2295SOL     OW15662   2.542   4.942   7.058 -0.7846  0.4921  0.3668
 2295SOL    HW115663   2.615   4.881   7.053 -0.2052  1.2651 -1.7654
 2295SOL    HW215664   2.505   4.929   7.145  0.1857 -1.8653  0.4870
 2296SOL     OW15665   1.593   6.631   6.028  0.4183  0.7011 -0.3909
 2296SOL    HW115666   1.549   6.677   5.957  0.5893 -0.0218 -0.9852
 2296SOL    HW215667   1.607   6.697   6.095 -0.2582  1.2698 -0.7968
 2297SOL     OW15668  10.978  10.908   0.117  0.3027  0.5804  0.1653
 2297SOL    HW115669  10.950  10.824   0.154 -0.8902  1.7310  2.0685
 2297SOL    HW215670  11.051  10.935   0.173 -0.6120  1.7014  0.8624
 2298SOL     OW15671   1.624   6.715   3.839  0.0341 -0.8604 -0.2037
 2298SOL    HW115672   1.707   6.698   3.795  0.2494  1.3664 -0.7942
 2298SOL    HW215673   1.643   6.700   3.932  0.7077 -1.7100 -0.4683
 2299SOL     OW15674   0.262   6.842   8.546 -0.3222  0.0894  0.7743
 2299SOL    HW115675   0.293   6.928   8.574 -1.4025 -0.0211  2.5036
 2299SOL    HW215676   0.287   6.784   8.618  0.2747 -1.0368 -0.3091
 2300SOL     OW15677   4.070   1.409   2.466  0.5601 -0.1085 -0.2836
 2300SOL    HW115678   4.133   1.339   2.452  0.4564 -0.2274 -0.1538
 2300SOL    HW215679   4.089   1.440   2.555 -0.5502 -1.1473  0.3407
 2301SOL     OW15680   3.614   1.451   9.651 -0.0258 -0.3335 -0.2865
 2301SOL    HW115681   3.546   1.511   9.680 -1.2078 -1.7895  0.0807
 2301SOL    HW215682   3.618   1.462   9.556 -0.4061  0.1262 -0.2504
 2302SOL     OW15683  11.774   6.643  11.214 -0.0504  0.4361 -0.5401
 2302SOL    HW115684  11.868   6.636  11.201 -0.1480 -0.7632 -0.6897
 2302SOL    HW215685  11.740   6.556  11.191 -1.1091  0.6472  0.1783
 2303SOL     OW15686   7.669   0.027  12.282 -0.1345  0.3605 -0.5344
 2303SOL    HW115687   7.580   0.010  12.311 -0.2124 -1.6240 -1.7067
 2303SOL    HW215688   7.696   0.105  12.329 -1.3894 -0.7507  2.2037
 2304SOL     OW15689   9.242   3.287   9.335 -0.0452  0.4261 -0.0570
 2304SOL    HW115690   9.201   3.243   9.409  0.0893 -0.2720 -0.3866
 2304SOL    HW215691   9.171   3.299   9.272 -0.3159  1.6682  0.4644
 2305SOL     OW15692   8.163   8.270  10.672  0.0072  0.1352 -0.2426
 2305SOL    HW115693   8.201   8.236  10.591  2.1581  1.6679  0.0237
 2305SOL    HW215694   8.230   8.253  10.738 -1.5615 -0.7756  1.1893
 2306SOL     OW15695   2.307  11.370  12.402 -0.2107 -0.2864 -0.5702
 2306SOL    HW115696   2.306  11.444  12.340 -1.3832 -0.2585 -0.5351
 2306SOL    HW215697   2.381  11.317  12.374  0.0138  0.3647 -1.2492
 2307SOL     OW15698   3.162   2.105   3.180  0.5846 -0.2054 -0.2636
 2307SOL    HW115699   3.076   2.078   3.147  0.6918 -2.7727  1.3152
 2307SOL    HW215700   3.143   2.178   3.240 -0.3090  0.1980 -1.0242
 2308SOL     OW15701  10.590   1.258   3.020 -0.2204  0.2945  0.3500
 2308SOL    HW115702  10.533   1.289   2.950 -0.7728  0.8307  1.0183
 2308SOL    HW215703  10.538   1.268   3.100  0.2638 -0.6451  0.7967
 2309SOL     OW15704   3.110   8.222   6.722  0.2750 -0.6871 -0.0613
 2309SOL    HW115705   3.126   8.309   6.756 -1.0729 -0.1268 -0.7637
 2309SOL    HW215706   3.195   8.192   6.689  1.5622 -1.0979  3.2634
 2310SOL     OW15707   8.434   3.711   1.169  0.2060 -0.0720 -0.3584
 2310SOL    HW115708   8.399   3.643   1.227  0.0771  0.5971  0.3685
 2310SOL    HW215709   8.444   3.667   1.084  1.2651 -1.3422  0.3672
 2311SOL     OW15710   8.326   3.384  11.388 -0.0783  1.1097  0.3345
 2311SOL    HW115711   8.306   3.294  11.360 -0.2407  0.3598  2.6586
 2311SOL    HW215712   8.377   3.420  11.315 -0.7704 -0.5445 -1.0617
 2312SOL     OW15713   7.815   1.782   6.275  0.6322 -0.0093 -0.2936
 2312SOL    HW115714   7.748   1.716   6.290  0.7957 -0.4250 -1.3000
 2312SOL    HW215715   7.766   1.864   6.270  0.5433  0.1524  2.1103
 2313SOL     OW15716   6.007   5.114   4.904 -0.1119  0.5073 -0.2111
 2313SOL    HW115717   6.022   5.103   4.998  1.0804 -0.2702 -0.4636
 2313SOL    HW215718   6.070   5.054   4.863 -0.3356  1.1292 -1.5078
 2314SOL     OW15719   6.116  10.360   5.794 -0.2532 -0.1574  0.1246
 2314SOL    HW115720   6.130  10.453   5.811  0.5463 -0.5754  1.9794
 2314SOL    HW215721   6.098  10.355   5.700 -2.3726  2.0862  0.3002
 2315SOL     OW15722   3.862  11.014   6.505  0.0464  0.3339 -0.4710
 2315SOL    HW115723   3.840  11.093   6.456  0.4023  1.3738  0.9614
 2315SOL    HW215724   3.877  11.045   6.595 -0.9669 -1.5143  0.4079
 2316SOL     OW15725   2.689  12.499   2.253  0.2674  0.2255 -0.1755
 2316SOL    HW115726   2.777  12.480   2.288  0.5611  2.0238  0.1658
 2316SOL    HW215727   2.678  12.435   2.182  0.7750 -1.7293  1.3868
 2317SOL     OW15728  11.731   4.373  12.183 -0.5912 -0.1676 -0.1530
 2317SOL    HW115729  11.811   4.375  12.235 -0.4606 -3.1527 -0.0601
 2317SOL    HW215730  11.760   4.385  12.093  0.0659 -1.5097 -0.1471
 2318SOL     OW15731   5.746   7.656   6.307 -0.2084  0.1352  0.1587
 2318SOL    HW115732   5.662   7.618   6.333 -0.6520  1.0265  0.0643
 2318SOL    HW215733   5.729   7.750   6.302  0.4557  0.1971 -1.1844
 2319SOL     OW15734   3.759  11.414   8.599  0.1096  0.2992  0.6341
 2319SOL    HW115735   3.742  11.489   8.656  3.6202  2.1653 -0.4628
 2319SOL    HW215736   3.827  11.445   8.539  0.0695 -3.0914 -1.3991
 2320SOL     OW15737   6.184  11.559   2.242 -0.0046  0.1064  0.3304
 2320SOL    HW115738   6.188  11.635   2.183  1.2658  0.8465  1.3176
 2320SOL    HW215739   6.188  11.483   2.185 -0.6019  0.7839 -0.6361
 2321SOL     OW15740   8.622  10.530   7.672 -0.0010  0.2575 -0.0375
 2321SOL    HW115741   8.687  10.472   7.711 -1.6924 -0.9705  1.0951
 2321SOL    HW215742   8.598  10.590   7.743 -2.8118 -1.7367  0.8929
 2322SOL     OW15743   3.052   2.924   1.105 -0.0044  0.4136  0.3591
 2322SOL    HW115744   3.110   2.924   1.029  1.5250  3.2106  1.3797
 2322SOL    HW215745   3.003   2.842   1.098  3.0634 -1.4621 -1.3251
 2323SOL     OW15746   8.410   5.734   9.114 -0.0279  0.2254 -0.2828
 2323SOL    HW115747   8.323   5.751   9.150  0.5021  0.1258  1.0899
 2323SOL    HW215748   8.396   5.664   9.051 -0.7385 -0.7603  0.9344
 2324SOL     OW15749   3.088   3.816   1.613 -0.3014 -0.6174  0.4784
 2324SOL    HW115750   3.117   3.742   1.560 -1.0778  0.6922 -1.9428
 2324SOL    HW215751   3.035   3.777   1.682 -0.7956 -2.3480 -0.7950
 2325SOL     OW15752   7.703   1.013   9.552  0.1116  0.4114 -0.1316
 2325SOL    HW115753   7.745   1.052   9.476  0.6416  0.7957  0.3431
 2325SOL    HW215754   7.730   1.069   9.625 -0.7415  0.3059  0.2764
 2326SOL     OW15755   3.621   6.422   8.182  0.1966 -0.3219 -0.5188
 2326SOL    HW115756   3.549   6.382   8.133  0.8277 -3.1533  0.6904
 2326SOL    HW215757   3.700   6.380   8.149  0.8881 -0.2940  1.0045
 2327SOL     OW15758   0.705  11.937   7.820  0.3022 -0.2886 -0.2414
 2327SOL    HW115759   0.654  11.977   7.891  1.8556 -0.2589  0.9171
 2327SOL    HW215760   0.781  11.994   7.811  1.2213 -1.5056 -0.4033
 2328SOL     OW15761   0.179   8.696   7.066 -0.4456  0.0040 -0.3823
 2328SOL    HW115762   0.117   8.729   7.131  1.0129  0.5769  0.7777
 2328SOL    HW215763   0.164   8.751   6.989 -0.8071  0.7141  0.1827
 2329SOL     OW15764   9.874   2.322   0.315  0.2127 -0.5149 -0.0215
 2329SOL    HW115765   9.930   2.248   0.293  0.5748 -1.0473  2.4594
 2329SOL    HW215766   9.933   2.386   0.354 -0.5215 -0.0935  0.4217
 2330SOL     OW15767  11.727  11.368   6.910  0.1784 -0.1683  0.1670
 2330SOL    HW115768  11.799  11.420   6.873  0.3110  0.0174  0.6876
 2330SOL    HW215769  11.707  11.304   6.841 -0.4150  0.9675 -0.7574
 2331SOL     OW15770  11.584   1.976   4.775  0.2596 -0.5092 -0.5656
 2331SOL    HW115771  11.571   2.004   4.685  1.9323  0.2821 -0.5889
 2331SOL    HW215772  11.547   1.888   4.778 -0.6431 -0.1976 -1.7708
 2332SOL     OW15773   9.797   1.006  10.642  0.6782 -0.0514 -0.4609
 2332SOL    HW115774   9.794   1.093  10.680  0.3451  0.0410 -0.6981
 2332SOL    HW215775   9.860   1.014  10.570  1.3618 -0.2440  0.1019
 2333SOL     OW15776  10.097   0.401   6.765 -0.5114 -0.1715  0.4265
 2333SOL    HW115777  10.172   0.383   6.709 -0.1049 -1.4484  1.3212
 2333SOL    HW215778  10.094   0.327   6.826 -3.9870 -1.5284 -1.1115
 2334SOL     OW15779   6.412   7.954   1.322  0.6282 -0.1358  0.1553
 2334SOL    HW115780   6.467   8.026   1.354 -1.0973  0.6529  1.4868
 2334SOL    HW215781   6.430   7.951   1.228  2.8802  0.1157  0.5116
 2335SOL     OW15782   7.792   6.706   3.190 -0.2431 -0.1185 -0.5349
 2335SOL    HW115783   7.833   6.645   3.252  2.1618  0.5442 -1.4002
 2335SOL    HW215784   7.751   6.772   3.246  0.0615 -0.6603  0.3553
 2336SOL     OW15785   8.191   6.180   5.577 -0.0757  0.4349  0.4818
 2336SOL    HW115786   8.104   6.174   5.537 -0.6557 -1.3007  1.8683
 2336SOL    HW215787   8.221   6.269   5.555 -1.5963  0.6021 -1.1784
 2337SOL     OW15788   8.517  11.246  11.271 -0.1745 -0.3622  0.8937
 2337SOL    HW115789   8.480  11.327  11.235  0.5121 -0.3692  0.1220
 2337SOL    HW215790   8.474  11.177  11.221  0.5165 -0.3867  0.3072
 2338SOL     OW15791   6.534   4.494   2.629 -0.2481  0.1915  0.0004
 2338SOL    HW115792   6.486   4.440   2.692 -1.6250 -0.1136 -1.2578
 2338SOL    HW215793   6.617   4.513   2.673 -1.1431  0.0109  1.9143
 2339SOL     OW15794   7.088   2.619  11.229 -0.3664  0.4549  0.1113
 2339SOL    HW115795   7.103   2.699  11.179 -2.6902  0.7818 -0.1781
 2339SOL    HW215796   7.108   2.548  11.169  1.5297  0.7868  0.3082
 2340SOL     OW15797   8.286   2.976   5.087  0.6795  0.2255  0.0152
 2340SOL    HW115798   8.299   3.054   5.141  0.3389  0.4480 -0.2190
 2340SOL    HW215799   8.216   3.000   5.027 -1.9240 -1.3511  2.1617
 2341SOL     OW15800   6.711  10.512   8.299 -0.4273 -0.3272 -0.1442
 2341SOL    HW115801   6.787  10.460   8.274 -0.5906  0.0681 -1.5817
 2341SOL    HW215802   6.718  10.592   8.247 -0.4131  0.9306  1.6969
 2342SOL     OW15803   4.020   6.895   5.104 -0.3105  0.0839  0.1370
 2342SOL    HW115804   3.952   6.887   5.037 -0.3496 -0.5390  0.2437
 2342SOL    HW215805   4.022   6.809   5.146 -0.7939  0.6667  1.4180
 2343SOL     OW15806   9.445   7.635   1.918 -0.3852 -0.3502  0.9696
 2343SOL    HW115807   9.373   7.608   1.860 -0.5260 -0.7022  1.3074
 2343SOL    HW215808   9.474   7.718   1.881 -0.2985 -0.6974  0.2325
 2344SOL     OW15809  10.997   7.533   3.204 -0.0887  0.2234 -0.0285
 2344SOL    HW115810  10.974   7.605   3.145 -0.7625 -0.0497 -0.1026
 2344SOL    HW215811  10.981   7.567   3.292  1.1048  0.6992  0.0244
 2345SOL     OW15812   4.503   4.634   8.837 -0.5753  0.6140  0.4677
 2345SOL    HW115813   4.432   4.661   8.779 -0.8521  0.1896  0.6052
 2345SOL    HW215814   4.502   4.539   8.833 -2.6002  0.3725  3.5128
 2346SOL     OW15815  12.074   5.135   3.051  0.2066 -0.4098  0.2913
 2346SOL    HW115816  12.025   5.053   3.051  1.3242 -1.1096  0.1561
 2346SOL    HW215817  12.055   5.174   3.136 -0.4815 -0.7211  0.2883
 2347SOL     OW15818   9.986   5.529   9.267 -0.3723 -0.0394  0.6719
 2347SOL    HW115819   9.901   5.566   9.290 -1.3160  0.3595 -2.7888
 2347SOL    HW215820   9.967   5.440   9.240  0.2084  0.1421 -0.3986
 2348SOL     OW15821   9.888   0.433   6.033  0.2940  0.4704  0.3813
 2348SOL    HW115822   9.900   0.345   6.070  0.2711 -0.8412 -2.4712
 2348SOL    HW215823   9.957   0.440   5.967  0.0132  2.4520  0.2567
 2349SOL     OW15824   2.703   5.890   4.876 -0.1041 -0.1691 -0.0638
 2349SOL    HW115825   2.625   5.884   4.821 -0.8232  1.3064  0.7284
 2349SOL    HW215826   2.705   5.808   4.924 -1.1418 -0.2427 -0.1315
 2350SOL     OW15827   5.956   8.373   9.310 -0.1641  0.0904 -0.1620
 2350SOL    HW115828   6.025   8.333   9.258 -1.7373 -1.1605 -1.3983
 2350SOL    HW215829   5.877   8.362   9.257 -0.9489  3.8534 -0.0785
 2351SOL     OW15830   1.194   3.055  10.467  0.1817 -0.2036  0.5412
 2351SOL    HW115831   1.270   3.053  10.525 -0.0341 -2.4864  0.8362
 2351SOL    HW215832   1.135   2.988  10.503 -1.0261  0.0097 -0.9393
 2352SOL     OW15833   4.197   3.334   5.848 -0.1838  0.3966  0.3388
 2352SOL    HW115834   4.238   3.378   5.923 -0.1659 -0.6308  0.9446
 2352SOL    HW215835   4.153   3.259   5.886 -0.8202  0.2864 -0.5967
 2353SOL     OW15836   8.172  10.504  10.878  0.5248 -0.3202  0.1751
 2353SOL    HW115837   8.203  10.561  10.949 -1.6725  1.2365 -0.0020
 2353SOL    HW215838   8.251  10.466  10.841  1.9827  1.4447  1.3015
 2354SOL     OW15839   4.524   2.449  11.857  0.2914 -0.1366  0.8114
 2354SOL    HW115840   4.520   2.358  11.827  0.3563 -1.3684  4.1985
 2354SOL    HW215841   4.581   2.492  11.793 -2.1400 -1.5732 -2.6984
 2355SOL     OW15842   7.484   5.390   4.227 -0.1684  0.0585 -0.5983
 2355SOL    HW115843   7.567   5.435   4.243 -1.9414  2.2247  4.2964
 2355SOL    HW215844   7.432   5.453   4.176 -0.1432  0.4668 -0.1272
 2356SOL     OW15845   9.475   0.123   1.252 -0.0621  0.5652  0.3718
 2356SOL    HW115846   9.468   0.161   1.164  0.5037  0.1553  0.1470
 2356SOL    HW215847   9.420   0.180   1.306 -0.6623  0.6460 -0.3001
 2357SOL     OW15848   7.252   2.319   2.376  0.4320  0.1876 -0.0419
 2357SOL    HW115849   7.190   2.392   2.384 -0.9693 -0.7340 -1.8571
 2357SOL    HW215850   7.307   2.343   2.302 -0.2592 -0.7161 -0.8703
 2358SOL     OW15851   8.585   5.447   9.842  0.0667 -0.5610  0.1295
 2358SOL    HW115852   8.543   5.437   9.757 -0.5496  1.0966  0.2004
 2358SOL    HW215853   8.644   5.522   9.831 -0.0831 -0.2712  1.1766
 2359SOL     OW15854   4.933   5.940   0.092  0.1040  0.3969  0.2159
 2359SOL    HW115855   4.931   6.035   0.092  1.0176  0.4759 -1.8310
 2359SOL    HW215856   5.025   5.918   0.077 -0.3697 -0.7375 -1.3021
 2360SOL     OW15857   1.944  12.563   8.627  0.0919 -0.0909 -0.1316
 2360SOL    HW115858   1.885  12.544   8.700  0.4311 -1.4243 -0.1755
 2360SOL    HW215859   2.024  12.594   8.669  0.7366 -2.0403  0.1832
 2361SOL     OW15860   8.797  10.094   5.525 -0.1523 -0.4592  0.5442
 2361SOL    HW115861   8.813  10.003   5.547 -0.9960 -0.9852 -0.8672
 2361SOL    HW215862   8.789  10.094   5.429 -0.4416  1.0427  0.5434
 2362SOL     OW15863   6.193   7.638   5.058  0.1965 -0.3170  0.2105
 2362SOL    HW115864   6.098   7.628   5.072  0.1899  0.3343  0.6477
 2362SOL    HW215865   6.203   7.727   5.025  0.7565  0.0265  1.2452
 2363SOL     OW15866   6.288   5.459   5.677 -0.6435  0.0524  0.0157
 2363SOL    HW115867   6.239   5.382   5.647 -0.2685 -0.3512  0.4110
 2363SOL    HW215868   6.237   5.492   5.751 -0.0510 -0.7000  0.7867
 2364SOL     OW15869  12.127   3.675   4.516  0.7197 -0.0446 -0.9124
 2364SOL    HW115870  12.047   3.721   4.491  0.4608 -0.3219 -0.5950
 2364SOL    HW215871  12.163   3.643   4.433  0.8078  0.5721 -1.1141
 2365SOL     OW15872   9.621   7.916  11.389  0.5188 -0.6533 -0.8957
 2365SOL    HW115873   9.537   7.912  11.343 -0.6705  0.8398  1.0294
 2365SOL    HW215874   9.605   7.872  11.472  0.7126  2.1947  0.7396
 2366SOL     OW15875  10.649   4.693   5.300 -0.2536 -0.0466 -0.3881
 2366SOL    HW115876  10.651   4.682   5.205 -0.7925  0.2012 -0.4311
 2366SOL    HW215877  10.567   4.653   5.327 -0.7620  1.1011 -0.1907
 2367SOL     OW15878   8.996   4.995   3.138 -0.0957  0.4283  0.0845
 2367SOL    HW115879   9.028   4.912   3.101 -1.3125  0.6646 -1.6116
 2367SOL    HW215880   8.946   4.969   3.215  0.1968 -0.3483  0.0272
 2368SOL     OW15881  12.428   0.603   8.992 -0.1261  0.1948 -0.0425
 2368SOL    HW115882  12.434   0.689   8.950 -1.9520 -0.2228 -1.2460
 2368SOL    HW215883  12.409   0.543   8.920 -0.3269 -1.0101  0.9973
 2369SOL     OW15884   3.589   3.206   5.885 -0.4563  0.4157  0.2775
 2369SOL    HW115885   3.622   3.239   5.968 -1.6242 -0.4646  1.1178
 2369SOL    HW215886   3.559   3.118   5.904 -0.8341  0.2300 -1.0656
 2370SOL     OW15887   4.728   6.333   0.404  0.1156 -0.1503 -0.1334
 2370SOL    HW115888   4.644   6.287   0.416  0.8706 -1.3576  0.7240
 2370SOL    HW215889   4.714   6.386   0.325 -0.5929 -2.3871 -1.6321
 2371SOL     OW15890   2.871   7.863   9.084  0.4220 -0.5000 -0.4299
 2371SOL    HW115891   2.851   7.954   9.064 -0.2678 -0.6350 -0.3569
 2371SOL    HW215892   2.791   7.828   9.124  0.2685 -1.4642 -1.5244
 2372SOL     OW15893   0.477   4.285   7.590  0.5707  0.3331  0.2740
 2372SOL    HW115894   0.499   4.378   7.598  1.2088  0.1897  0.1984
 2372SOL    HW215895   0.390   4.278   7.630  1.0919  0.7161  1.5014
 2373SOL     OW15896   9.886   0.703   4.967 -0.0113 -0.5143 -0.5585
 2373SOL    HW115897   9.884   0.615   4.930 -0.3398 -1.1553  0.9073
 2373SOL    HW215898   9.973   0.710   5.007 -0.3760 -0.5980  0.2723
 2374SOL     OW15899   0.693   1.438   9.131 -0.8015  0.0114 -0.1163
 2374SOL    HW115900   0.699   1.364   9.071  0.4274  1.2141 -1.5750
 2374SOL    HW215901   0.732   1.406   9.213  0.2736 -0.7993 -0.9100
 2375SOL     OW15902   7.045   6.958  11.710  0.0272  0.4371 -0.5336
 2375SOL    HW115903   7.092   6.878  11.735 -0.6046  0.1102 -0.3658
 2375SOL    HW215904   6.984   6.929  11.642  0.4675  0.9700 -1.1742
 2376SOL     OW15905   7.504   6.033   8.632  0.6970 -0.2364 -0.5318
 2376SOL    HW115906   7.558   6.055   8.557 -0.0947  0.4135 -0.9312
 2376SOL    HW215907   7.438   5.973   8.597  0.8011 -0.5603 -0.1798
 2377SOL     OW15908   8.409   7.006   9.326  0.1945  0.5769  0.9118
 2377SOL    HW115909   8.466   6.945   9.373 -1.1744 -0.7977  0.8870
 2377SOL    HW215910   8.334   7.017   9.383 -0.5646  0.5059 -0.0486
 2378SOL     OW15911  10.392   1.247   0.718  0.2714 -0.2256  0.1286
 2378SOL    HW115912  10.457   1.207   0.661  1.5483 -0.7012  1.8528
 2378SOL    HW215913  10.314   1.255   0.663  2.2659  2.2285 -2.6852
 2379SOL     OW15914  12.115   3.446   1.437  0.0731 -0.3331 -0.4103
 2379SOL    HW115915  12.152   3.532   1.418  0.7233 -0.6408 -0.5786
 2379SOL    HW215916  12.191   3.389   1.446 -0.3752 -1.1080 -1.3313
 2380SOL     OW15917   8.379   1.710   0.653 -0.0662 -0.2611 -0.5232
 2380SOL    HW115918   8.424   1.646   0.708  0.9039 -0.8203 -1.8812
 2380SOL    HW215919   8.431   1.790   0.663  0.8616 -0.7083 -1.5385
 2381SOL     OW15920   2.785   8.948   6.535 -0.3881 -0.1057  0.6775
 2381SOL    HW115921   2.751   9.008   6.469 -1.9629 -0.6141  0.9789
 2381SOL    HW215922   2.841   9.003   6.591 -2.5948  1.3776  1.5660
 2382SOL     OW15923   9.294   7.064   4.080 -0.2810 -0.2970  0.8262
 2382SOL    HW115924   9.302   7.104   3.993 -1.1106  0.8460  1.2548
 2382SOL    HW215925   9.329   6.976   4.068  0.4924  0.1456 -0.4425
 2383SOL     OW15926   8.980   0.337   5.006 -0.1312  0.4569  0.1787
 2383SOL    HW115927   8.920   0.336   4.931 -1.7007 -1.4048  1.3554
 2383SOL    HW215928   9.024   0.252   5.002  1.4498  1.2452  0.1356
 2384SOL     OW15929   0.355  11.911   0.636 -0.1543  0.0222  0.0610
 2384SOL    HW115930   0.274  11.953   0.663 -0.4497 -1.1498  1.0768
 2384SOL    HW215931   0.330  11.820   0.618  0.8189 -0.2056 -0.1988
 2385SOL     OW15932   5.104   3.133   8.335 -0.3053  0.4923 -0.1422
 2385SOL    HW115933   5.073   3.223   8.343  1.3260  1.0335  0.4188
 2385SOL    HW215934   5.158   3.119   8.413 -0.7144 -1.0642 -0.0946
 2386SOL     OW15935   9.150   2.684  12.066 -0.8785  0.0458  0.0386
 2386SOL    HW115936   9.080   2.634  12.108 -0.2086 -0.0059  1.1492
 2386SOL    HW215937   9.190   2.734  12.138 -0.0171  0.3478 -0.6305
 2387SOL     OW15938   4.409  10.941   6.675 -0.3833  0.3505 -0.6562
 2387SOL    HW115939   4.432  10.939   6.582 -0.8595 -0.6876 -0.7693
 2387SOL    HW215940   4.453  10.864   6.712 -1.1180  0.1080 -0.2603
 2388SOL     OW15941  11.058   8.165   4.408  0.2203 -0.0765  0.1473
 2388SOL    HW115942  10.975   8.179   4.454  0.3590  1.6486 -0.0636
 2388SOL    HW215943  11.034   8.118   4.328 -0.7573  1.4485 -0.4983
 2389SOL     OW15944  11.220   1.543   0.807 -0.0913  0.6897  0.3992
 2389SOL    HW115945  11.215   1.486   0.731 -1.9799  1.7852 -0.3833
 2389SOL    HW215946  11.276   1.497   0.869 -0.3932 -1.3233 -0.7486
 2390SOL     OW15947   0.662   5.384   0.387 -0.4885 -0.1136 -0.1928
 2390SOL    HW115948   0.569   5.377   0.366 -0.5968 -1.6865  0.6259
 2390SOL    HW215949   0.707   5.357   0.307 -0.8137 -1.8748  0.1832
 2391SOL     OW15950   0.530  12.025   4.098 -0.4318  0.0773  0.0239
 2391SOL    HW115951   0.491  12.056   4.016  0.1738  1.2416  0.1534
 2391SOL    HW215952   0.574  11.943   4.075 -1.7030 -0.5030 -0.4289
 2392SOL     OW15953   6.660  11.897   9.836 -0.3283  0.2959 -0.0879
 2392SOL    HW115954   6.598  11.966   9.815 -1.1493 -0.5504 -0.5148
 2392SOL    HW215955   6.707  11.881   9.755 -1.0992 -0.5859 -0.3726
 2393SOL     OW15956   0.404  12.442   0.443  0.9081  0.1290 -0.3495
 2393SOL    HW115957   0.308  12.452   0.444  0.7272 -0.7919 -2.3699
 2393SOL    HW215958   0.420  12.363   0.493  0.6341  0.3724  0.1325
 2394SOL     OW15959  11.218  10.268   5.621 -0.5487  0.4738  0.1189
 2394SOL    HW115960  11.148  10.203   5.619  1.8870 -2.3193  0.4216
 2394SOL    HW215961  11.224  10.295   5.712 -0.9781  0.4978  0.1433
 2395SOL     OW15962   4.237   4.750   0.085  0.3401 -0.0988 -0.1325
 2395SOL    HW115963   4.240   4.654   0.084 -2.8699 -0.3705  1.4602
 2395SOL    HW215964   4.268   4.774   0.173  0.0388  0.2049 -0.1053
 2396SOL     OW15965   7.625   4.343   2.759 -0.2685  0.4024  0.1923
 2396SOL    HW115966   7.701   4.293   2.789  1.4031  1.7964 -1.4694
 2396SOL    HW215967   7.657   4.433   2.753 -1.5252  0.7419 -2.2382
 2397SOL     OW15968   1.319   7.381  11.567 -0.1242 -0.4583  0.6809
 2397SOL    HW115969   1.397   7.328  11.550  1.6752  1.5888  1.9896
 2397SOL    HW215970   1.270   7.332  11.632  0.2582 -1.6170  0.1110
 2398SOL     OW15971   5.050   1.976   9.854 -0.1725  0.2279 -0.2911
 2398SOL    HW115972   4.970   1.941   9.892 -1.0433  0.5830 -1.7507
 2398SOL    HW215973   5.089   1.902   9.807 -0.5774  0.5144 -1.0774
 2399SOL     OW15974   8.186   3.364   8.062 -0.6589  0.2632 -0.0217
 2399SOL    HW115975   8.221   3.348   8.149  1.2990  1.2264 -0.5678
 2399SOL    HW215976   8.262   3.389   8.010 -1.7721 -0.2520 -2.0101
 2400SOL     OW15977   6.868   7.739  12.322  0.2877  0.2066 -0.2295
 2400SOL    HW115978   6.861   7.745  12.226 -0.1853 -4.0164 -0.6317
 2400SOL    HW215979   6.782   7.768  12.353 -0.8185 -1.6181 -1.4039
 2401SOL     OW15980   9.767  12.463  11.305 -0.4354 -0.0444  0.2384
 2401SOL    HW115981   9.697  12.515  11.265  0.9891  1.3611 -0.5054
 2401SOL    HW215982   9.797  12.406  11.234  1.5114  1.8476 -0.5471
 2402SOL     OW15983   7.048   8.259   4.411 -0.7111 -0.2223  0.6192
 2402SOL    HW115984   7.078   8.224   4.327 -1.1290  2.1850 -0.6246
 2402SOL    HW215985   7.120   8.314   4.440 -0.5313 -1.1145  1.9432
 2403SOL     OW15986   1.704   5.289   2.637  0.3506 -0.4946 -1.4750
 2403SOL    HW115987   1.689   5.344   2.561  1.9349  0.1253 -1.3602
 2403SOL    HW215988   1.762   5.219   2.606 -0.1621 -1.0670 -1.1771
 2404SOL     OW15989   0.445   9.475   8.120  0.0755  0.2101 -0.6216
 2404SOL    HW115990   0.446   9.394   8.171 -1.6862  0.6863  0.2707
 2404SOL    HW215991   0.465   9.447   8.031  1.6050 -0.8801  0.0245
 2405SOL     OW15992   0.020  10.583   6.743 -0.8340  0.2245  0.2979
 2405SOL    HW115993   0.058  10.654   6.692  1.2699 -1.2209 -0.2872
 2405SOL    HW215994   0.076  10.574   6.820 -0.6839 -1.1359  0.0712
 2406SOL     OW15995  11.762  12.186  11.989 -0.4025 -0.2431  0.0788
 2406SOL    HW115996  11.683  12.133  11.974  0.1906 -0.6664 -1.7387
 2406SOL    HW215997  11.814  12.132  12.049 -0.2791 -1.2738 -0.9111
 2407SOL     OW15998   4.821   7.709   6.809 -0.4042 -0.1329 -0.0392
 2407SOL    HW115999   4.807   7.701   6.715  0.4708 -2.4594 -0.0432
 2407SOL    HW216000   4.910   7.744   6.816 -0.3286 -0.3202 -0.0709
 2408SOL     OW16001   6.863   2.561  12.447  0.0027  0.1098  0.0586
 2408SOL    HW116002   6.800   2.525  12.510 -0.9904  0.4089 -0.7468
 2408SOL    HW216003   6.948   2.550  12.490 -0.5673 -0.4997  1.0741
 2409SOL     OW16004   1.606   7.950  11.162  0.1020  0.2932 -0.6381
 2409SOL    HW116005   1.554   7.877  11.196 -0.4743  0.6152 -0.8164
 2409SOL    HW216006   1.643   7.991  11.241  0.2765 -0.0743 -0.5258
 2410SOL     OW16007   4.661   8.309   8.441  0.0357 -0.1224 -0.0266
 2410SOL    HW116008   4.634   8.399   8.421 -2.2633 -0.5641  0.7401
 2410SOL    HW216009   4.619   8.256   8.373  2.2808 -0.5714 -1.1313
 2411SOL     OW16010   3.143   3.905   9.050  0.0764 -0.4650  0.3257
 2411SOL    HW116011   3.115   3.933   8.963 -0.2947 -0.0305  0.5793
 2411SOL    HW216012   3.123   3.812   9.052  0.6811 -0.6160 -0.2825
 2412SOL     OW16013   7.385   2.238   6.431  0.1413  0.1094 -0.7908
 2412SOL    HW116014   7.289   2.247   6.427  0.0795 -0.9655 -2.3408
 2412SOL    HW216015   7.399   2.162   6.487  0.2679  2.0393  2.0418
 2413SOL     OW16016   9.480   2.168   0.647 -0.3211  0.7549  0.6835
 2413SOL    HW116017   9.445   2.085   0.614  0.1312  0.7208  0.2804
 2413SOL    HW216018   9.571   2.170   0.616  0.1674  0.6563  2.0370
 2414SOL     OW16019   0.458   7.249   0.254  0.0321 -0.2356  0.1994
 2414SOL    HW116020   0.365   7.269   0.262 -0.0209 -0.5179  0.2813
 2414SOL    HW216021   0.499   7.334   0.238 -0.4138 -0.2941 -1.4550
 2415SOL     OW16022   3.582   5.529   9.216  0.3044  0.4705 -0.4509
 2415SOL    HW116023   3.487   5.541   9.216  0.4998  2.3607  1.2122
 2415SOL    HW216024   3.602   5.502   9.126 -1.9604 -1.8502 -0.3856
 2416SOL     OW16025   9.701   3.648   5.198  0.0505  0.1500  0.0585
 2416SOL    HW116026   9.795   3.667   5.209  0.1305  0.7321 -1.3269
 2416SOL    HW216027   9.657   3.720   5.243  0.2632 -0.1245  0.7179
 2417SOL     OW16028  10.607  11.780   4.474  0.2561 -0.0615  0.3637
 2417SOL    HW116029  10.694  11.803   4.441 -0.5430 -0.8008 -2.5443
 2417SOL    HW216030  10.617  11.779   4.569  3.5146 -0.4577  0.1370
 2418SOL     OW16031   3.034   6.870  11.365 -0.9573  0.2038 -0.2172
 2418SOL    HW116032   3.126   6.860  11.388 -0.9399 -0.3761 -0.5144
 2418SOL    HW216033   3.029   6.840  11.274 -1.7090 -1.2454  0.2797
 2419SOL     OW16034   8.308   2.148   5.867  0.2829 -0.0746  0.1523
 2419SOL    HW116035   8.365   2.071   5.869  0.8121  0.2531 -1.0881
 2419SOL    HW216036   8.279   2.154   5.776 -1.4597 -0.0175  0.6748
 2420SOL     OW16037   2.304   0.106   5.657  0.1298  0.5229  0.1172
 2420SOL    HW116038   2.288   0.012   5.644 -1.5988  0.9520 -1.3251
 2420SOL    HW216039   2.394   0.111   5.688  0.4886 -1.5731 -0.4060
 2421SOL     OW16040  11.910   2.051   4.328  0.6092  0.0309  0.1007
 2421SOL    HW116041  12.004   2.068   4.320  0.7593 -1.3952 -1.9642
 2421SOL    HW216042  11.903   1.991   4.402  1.2200  0.7377  0.7469
 2422SOL     OW16043  10.878  10.852   5.802  0.1987 -0.0246 -0.2697
 2422SOL    HW116044  10.808  10.843   5.737  0.0319 -1.7623  0.0985
 2422SOL    HW216045  10.832  10.857   5.886  0.2552  4.7571 -0.2705
 2423SOL     OW16046  10.326   3.078   0.838  0.6052  0.1302 -0.0972
 2423SOL    HW116047  10.300   3.169   0.850 -0.6322 -0.3153  0.6828
 2423SOL    HW216048  10.264   3.027   0.889  1.4387 -1.1525 -0.2981
 2424SOL     OW16049   5.665   6.749   1.935 -0.2811 -0.2125  0.1339
 2424SOL    HW116050   5.631   6.795   2.012  2.4521  0.9018  0.7776
 2424SOL    HW216051   5.694   6.818   1.876  4.1875 -0.8446  1.2373
 2425SOL     OW16052  10.345   2.205   5.131 -0.3157 -0.1303  0.4803
 2425SOL    HW116053  10.285   2.220   5.205  0.3215 -0.6728  1.1211
 2425SOL    HW216054  10.294   2.155   5.068 -0.6658 -0.2405  0.8468
 2426SOL     OW16055   6.532   2.093   0.918  0.2782 -0.9022 -0.0937
 2426SOL    HW116056   6.503   2.015   0.871  0.8329 -1.1202 -0.0784
 2426SOL    HW216057   6.627   2.089   0.915  0.3997  1.1446 -2.4217
 2427SOL     OW16058   0.714   9.985  11.141  0.1853 -0.3916  0.0432
 2427SOL    HW116059   0.709  10.045  11.215  1.3805  0.6435 -0.6801
 2427SOL    HW216060   0.646   9.919  11.159 -1.7125  1.5629  0.4742
 2428SOL     OW16061  10.915   1.376   3.587  0.4171 -0.2124  0.6503
 2428SOL    HW116062  10.840   1.434   3.581  1.7421  1.6644  1.3099
 2428SOL    HW216063  10.889   1.297   3.539 -1.2989  1.0573 -0.6001
 2429SOL     OW16064   9.597   6.191   0.950  0.4240 -0.3619  0.1606
 2429SOL    HW116065   9.554   6.257   1.004  0.7430 -0.8344  1.0237
 2429SOL    HW216066   9.560   6.108   0.980  0.5878 -0.6313 -0.3741
 2430SOL     OW16067   8.524  11.580   6.295 -0.0093  0.1527 -0.0688
 2430SOL    HW116068   8.431  11.556   6.294  0.1656 -0.5400 -1.1324
 2430SOL    HW216069   8.570  11.497   6.308  0.5100  0.2618 -1.1128
 2431SOL     OW16070   6.822   2.278   5.611 -0.3252  0.5898  0.0362
 2431SOL    HW116071   6.873   2.200   5.592 -0.5073  1.1773 -3.4137
 2431SOL    HW216072   6.882   2.335   5.660  0.8652 -0.4388 -0.1876
 2432SOL     OW16073   4.043   6.590   1.459 -0.2724 -0.2518 -0.3063
 2432SOL    HW116074   3.992   6.528   1.407  0.5975  1.3152 -3.1945
 2432SOL    HW216075   3.995   6.673   1.452  1.2089  0.6004 -0.8415
 2433SOL     OW16076  12.297   5.746  12.258  0.0271 -0.2786  0.2808
 2433SOL    HW116077  12.255   5.742  12.344  0.7381 -2.1295  0.5736
 2433SOL    HW216078  12.260   5.825  12.218 -2.2596 -0.7365  1.2856
 2434SOL     OW16079   2.314   8.687   8.763  0.0246 -0.0409 -0.0282
 2434SOL    HW116080   2.244   8.697   8.827 -1.2372 -0.8043 -1.2353
 2434SOL    HW216081   2.326   8.593   8.753  2.1465  0.0379  1.0697
 2435SOL     OW16082  11.636  11.362   5.910  0.5206  0.5496 -0.3434
 2435SOL    HW116083  11.727  11.372   5.883  0.3934  1.6861 -0.4308
 2435SOL    HW216084  11.608  11.452   5.931  0.0354 -0.0269  1.6848
 2436SOL     OW16085   8.064   1.881  11.114  0.0421  0.1965  0.4235
 2436SOL    HW116086   8.022   1.818  11.056 -0.1683 -0.2018  0.9927
 2436SOL    HW216087   8.099   1.948  11.056 -2.0193  0.9273 -0.0514
 2437SOL     OW16088   9.277   5.550   1.673 -0.8579  0.0591  0.2967
 2437SOL    HW116089   9.255   5.579   1.762 -1.1520 -1.0183  0.5929
 2437SOL    HW216090   9.360   5.503   1.683 -1.2445 -0.6794  0.1409
 2438SOL     OW16091   1.907   2.703   6.958  0.0689 -0.0141  0.0564
 2438SOL    HW116092   1.927   2.613   6.934 -1.6406 -0.5777  0.6054
 2438SOL    HW216093   1.980   2.730   7.014  1.3010 -0.5504 -1.2322
 2439SOL     OW16094  12.238  12.599  10.304  0.2599 -0.2405 -0.0782
 2439SOL    HW116095  12.222  12.542  10.379 -1.3429 -0.7385 -0.7440
 2439SOL    HW216096  12.152  12.608  10.262  0.9239  0.8272 -1.2892
 2440SOL     OW16097   1.234  10.148   6.726 -0.0508  0.1085 -0.0358
 2440SOL    HW116098   1.169  10.122   6.661 -0.2513  0.3669  0.0590
 2440SOL    HW216099   1.318  10.119   6.689 -0.1240  0.5675 -0.5759
 2441SOL     OW16100   3.134   0.555   8.688  0.1253 -0.3478  0.3730
 2441SOL    HW116101   3.182   0.625   8.731 -1.1261  0.3773  0.6367
 2441SOL    HW216102   3.056   0.542   8.743  0.2479 -1.8368  0.2423
 2442SOL     OW16103   8.556   6.864   7.925 -0.7603  0.2791 -0.5920
 2442SOL    HW116104   8.636   6.908   7.898 -1.4994  2.0690  0.0076
 2442SOL    HW216105   8.493   6.934   7.939 -2.3593 -1.0606 -0.7324
 2443SOL     OW16106   5.734   9.449   8.826  0.5355 -0.5999 -0.0200
 2443SOL    HW116107   5.817   9.492   8.809 -0.8199  2.2045 -0.2245
 2443SOL    HW216108   5.699   9.494   8.903 -1.5849 -0.3460 -1.0418
 2444SOL     OW16109   0.637   9.307   5.459  0.7061 -0.5849 -0.0316
 2444SOL    HW116110   0.632   9.299   5.555 -0.1401  0.6500  0.0527
 2444SOL    HW216111   0.688   9.387   5.445  2.1471 -1.5809 -0.6601
 2445SOL     OW16112  12.520   1.634   9.825 -0.1415 -0.3021 -0.3957
 2445SOL    HW116113  12.534   1.583   9.745 -0.6307  0.2558 -0.8390
 2445SOL    HW216114  12.528   1.725   9.797  2.4261 -0.1238  0.7050
 2446SOL     OW16115   9.012   6.547  11.611  0.2737 -0.2627 -0.7999
 2446SOL    HW116116   9.036   6.530  11.702 -1.4251 -1.5474 -0.5398
 2446SOL    HW216117   9.090   6.523  11.561  0.0896 -3.1624  0.0916
 2447SOL     OW16118   1.333   9.629  12.575 -0.5083  0.2359  0.4595
 2447SOL    HW116119   1.288   9.658  12.496 -0.8743 -2.2375 -0.3156
 2447SOL    HW216120   1.280   9.556  12.607  1.4899 -1.0401  1.0165
 2448SOL     OW16121   3.463   1.663   9.250  0.1169  0.3407 -0.5593
 2448SOL    HW116122   3.543   1.710   9.227 -0.0603  1.3790  0.8282
 2448SOL    HW216123   3.399   1.732   9.268 -0.9300 -0.4692 -1.0438
 2449SOL     OW16124   3.836   3.968   8.439 -0.2714  0.1249  0.4060
 2449SOL    HW116125   3.877   4.022   8.507 -1.1111  0.6734  0.4954
 2449SOL    HW216126   3.871   3.880   8.453  3.2506  1.0533 -1.4118
 2450SOL     OW16127  11.480   6.025   2.583 -0.2241 -0.1779  0.5511
 2450SOL    HW116128  11.546   6.004   2.517 -0.8698 -0.8111  0.0900
 2450SOL    HW216129  11.531   6.052   2.660  0.5380  0.5912 -0.1948
 2451SOL     OW16130   0.342  11.055   0.125 -0.1150  0.7929 -0.0327
 2451SOL    HW116131   0.399  11.130   0.141 -0.3532  0.7491  1.0943
 2451SOL    HW216132   0.257  11.082   0.161  0.0166 -0.3296  1.1582
 2452SOL     OW16133   6.663   2.370   7.798  0.3952 -1.1005  0.1712
 2452SOL    HW116134   6.698   2.458   7.810 -0.7349 -0.7893  1.4685
 2452SOL    HW216135   6.670   2.353   7.704 -1.3308  1.2367 -0.4735
 2453SOL     OW16136   4.558  11.480  12.095  0.1731 -0.1044 -0.1294
 2453SOL    HW116137   4.552  11.549  12.160 -0.6604  0.7646 -1.0852
 2453SOL    HW216138   4.476  11.486  12.046  1.2079  0.0136 -1.9540
 2454SOL     OW16139  11.658   7.110   4.494 -0.5216 -0.5874  0.2623
 2454SOL    HW116140  11.642   7.145   4.406 -0.4096  0.0139  0.4742
 2454SOL    HW216141  11.723   7.170   4.532 -1.2742 -0.2752  1.0947
 2455SOL     OW16142   2.498   6.946   0.255  0.7515  0.3282 -0.1864
 2455SOL    HW116143   2.479   6.951   0.348  0.3960 -0.9240 -0.1838
 2455SOL    HW216144   2.577   6.999   0.244  0.0604  1.5718  0.5943
 2456SOL     OW16145   3.008  10.552   4.876  0.3395 -0.0586  0.3817
 2456SOL    HW116146   3.044  10.575   4.961  1.5460 -1.0287  0.1501
 2456SOL    HW216147   3.084  10.534   4.821 -0.4107  0.5862 -0.9274
 2457SOL     OW16148   1.417   0.263   8.089  0.3547  0.0613  0.4345
 2457SOL    HW116149   1.327   0.247   8.116  0.1547 -0.4201 -0.4756
 2457SOL    HW216150   1.437   0.191   8.029  0.5628  1.3962 -1.1574
 2458SOL     OW16151   8.333   8.668   7.651 -0.5478 -0.7252  0.0144
 2458SOL    HW116152   8.278   8.675   7.729 -2.0735 -2.0609 -0.8800
 2458SOL    HW216153   8.418   8.640   7.685 -1.6172 -2.8758  1.1364
 2459SOL     OW16154   0.139   0.792  10.933 -0.1389 -0.0717 -0.8669
 2459SOL    HW116155   0.180   0.867  10.890 -1.3237 -0.5974 -3.0531
 2459SOL    HW216156   0.190   0.717  10.902 -0.2465 -0.3672 -0.3388
 2460SOL     OW16157   3.853   6.675   5.455 -0.2788  0.4955  0.1826
 2460SOL    HW116158   3.785   6.715   5.401  1.0862 -0.3155 -2.3030
 2460SOL    HW216159   3.850   6.582   5.432 -0.8583 -0.2498  2.9737
 2461SOL     OW16160   4.044   7.643   5.704  0.2891  0.4099  0.1064
 2461SOL    HW116161   4.032   7.721   5.650  3.3560  1.6641  1.0189
 2461SOL    HW216162   3.987   7.657   5.780 -1.2463  0.4002 -1.0080
 2462SOL     OW16163   7.519   8.129   1.577  0.4987  0.3842  0.0488
 2462SOL    HW116164   7.551   8.186   1.507 -1.4815  1.3154 -0.1735
 2462SOL    HW216165   7.549   8.042   1.553 -0.6296  0.5760 -2.3467
 2463SOL     OW16166   1.710   5.654   6.745 -0.1693  0.6474 -0.6486
 2463SOL    HW116167   1.644   5.719   6.768  0.7584  1.0769  0.9784
 2463SOL    HW216168   1.785   5.676   6.800 -0.4394 -2.9113  1.3753
 2464SOL     OW16169   5.630  10.292   5.548  0.1124 -0.0105 -0.2729
 2464SOL    HW116170   5.543  10.274   5.514  0.7618 -1.0555 -1.4675
 2464SOL    HW216171   5.618  10.292   5.643 -1.6217  2.3820 -0.3966
 2465SOL     OW16172   3.926   8.704   7.299  0.2373 -0.0852 -0.1511
 2465SOL    HW116173   3.961   8.655   7.225 -2.1449 -0.6843 -0.9723
 2465SOL    HW216174   3.978   8.784   7.302  2.3201 -1.3702 -0.5701
 2466SOL     OW16175  10.035   5.876   3.194  0.0712 -0.8410 -0.1256
 2466SOL    HW116176  10.034   5.784   3.220  1.1590 -0.7485  0.3088
 2466SOL    HW216177   9.983   5.921   3.260 -0.4103 -1.1360 -0.3060
 2467SOL     OW16178   0.107   5.264   6.984  0.0813 -0.1538  0.1520
 2467SOL    HW116179   0.046   5.286   7.055  1.6583  0.3296  1.4014
 2467SOL    HW216180   0.154   5.345   6.967  0.3407 -0.5022 -0.8498
 2468SOL     OW16181   4.371   6.476   0.316  0.4190 -0.2294 -0.2713
 2468SOL    HW116182   4.407   6.500   0.401 -0.1993 -1.0724  0.2384
 2468SOL    HW216183   4.408   6.389   0.298  0.8382  0.0910 -1.0456
 2469SOL     OW16184   8.173   8.635   2.255 -0.1587 -0.0894 -0.3186
 2469SOL    HW116185   8.196   8.546   2.282 -1.3855 -0.4180 -0.3117
 2469SOL    HW216186   8.211   8.691   2.323 -2.1828 -0.8221  1.5197
 2470SOL     OW16187   8.685   4.645   2.057 -0.1765  0.8069  0.2257
 2470SOL    HW116188   8.662   4.552   2.051  0.7254  0.2167  3.6955
 2470SOL    HW216189   8.740   4.661   1.981 -0.9034 -1.3012 -0.8268
 2471SOL     OW16190   7.107  10.608   5.994  0.3494  0.3637  0.3461
 2471SOL    HW116191   7.197  10.642   5.996 -0.3214  2.5966 -1.9123
 2471SOL    HW216192   7.082  10.612   5.902 -1.8882 -0.7783  0.8300
 2472SOL     OW16193   0.552  10.490  11.732 -0.1358 -0.4007  0.0586
 2472SOL    HW116194   0.532  10.547  11.658 -1.6875  0.3171  0.9802
 2472SOL    HW216195   0.507  10.408  11.711  0.9820 -0.8479 -0.6441
 2473SOL     OW16196   8.072   7.276  11.934  0.0012 -0.6020  0.1058
 2473SOL    HW116197   8.002   7.339  11.919  0.2582 -0.9598 -3.2875
 2473SOL    HW216198   8.028   7.191  11.935  0.1521 -0.6851 -0.0969
 2474SOL     OW16199   0.398   1.264   2.125  0.5787  0.2158  0.1613
 2474SOL    HW116200   0.340   1.199   2.088  1.2097  0.2586 -0.9483
 2474SOL    HW216201   0.485   1.225   2.118  0.8088  0.6128  0.7573
 2475SOL     OW16202  10.147   5.851   4.547 -0.3372  0.4067 -0.0057
 2475SOL    HW116203  10.107   5.886   4.467 -0.6740  0.0628  0.0064
 2475SOL    HW216204  10.083   5.788   4.580 -1.2549  2.1950  1.8155
 2476SOL     OW16205  12.023  10.316   7.134 -0.0962 -0.8767 -0.3547
 2476SOL    HW116206  12.048  10.408   7.142 -0.9254 -0.5120 -1.7076
 2476SOL    HW216207  12.105  10.271   7.112 -0.0170 -0.1681 -1.5840
 2477SOL     OW16208   7.560   3.400   4.923  0.5982  0.4719  0.6685
 2477SOL    HW116209   7.637   3.442   4.964  1.9393 -1.4442  0.2215
 2477SOL    HW216210   7.519   3.351   4.994 -0.0058  1.1445  0.8038
 2478SOL     OW16211   3.972   6.656   7.943 -0.2112 -0.2995  0.0023
 2478SOL    HW116212   4.041   6.716   7.970  0.0846 -0.9285  0.6569
 2478SOL    HW216213   3.944   6.690   7.858  0.6014  0.2103 -0.0768
 2479SOL     OW16214   9.033  10.227  10.979 -0.2136 -0.2077  0.0403
 2479SOL    HW116215   9.074  10.314  10.973 -1.5538  0.6382  2.1248
 2479SOL    HW216216   9.065  10.190  11.061 -1.5992 -0.5916  0.4423
 2480SOL     OW16217   9.168   7.935  12.254 -0.5134  0.2423  0.1021
 2480SOL    HW116218   9.169   8.030  12.266 -0.8409  0.4078 -1.0762
 2480SOL    HW216219   9.078   7.910  12.275 -1.8689  0.8847 -4.1535
 2481SOL     OW16220   0.739   9.908   7.124 -0.3660 -0.1399  0.3706
 2481SOL    HW116221   0.704   9.942   7.206 -0.9256 -0.0213  0.0848
 2481SOL    HW216222   0.722   9.978   7.060 -0.0135 -0.2674  0.1354
 2482SOL     OW16223   5.389   9.002   6.029  0.3792  0.2518 -0.1843
 2482SOL    HW116224   5.414   8.996   5.937  0.3194  2.8684 -0.4413
 2482SOL    HW216225   5.305   9.047   6.028 -0.0593 -0.4974  1.1307
 2483SOL     OW16226   1.340  10.720   1.964  0.2467 -0.0370  0.0405
 2483SOL    HW116227   1.320  10.809   1.934  1.3781  0.0341 -0.5421
 2483SOL    HW216228   1.255  10.683   1.987 -0.5265  0.4100 -1.9243
 2484SOL     OW16229   4.676   9.531  11.783 -0.1411 -0.3396 -0.0397
 2484SOL    HW116230   4.755   9.527  11.729 -0.2312  2.4083 -0.5194
 2484SOL    HW216231   4.614   9.584  11.732 -0.7360  1.1645  2.0767
 2485SOL     OW16232   1.781   8.499   9.837 -0.1505  0.1709  0.1903
 2485SOL    HW116233   1.855   8.519   9.894  0.5974 -1.6622 -0.0786
 2485SOL    HW216234   1.711   8.555   9.869  1.4134  2.2229  0.2406
 2486SOL     OW16235   7.447   8.717   3.616 -0.5709 -0.6245 -0.2669
 2486SOL    HW116236   7.539   8.718   3.641 -0.8368 -0.4879  0.7201
 2486SOL    HW216237   7.447   8.741   3.523  0.4935 -2.0316 -0.6623
 2487SOL     OW16238   2.890   3.882   8.447 -0.1688  0.5086 -0.6322
 2487SOL    HW116239   2.950   3.949   8.478  1.0178 -0.3919 -0.8758
 2487SOL    HW216240   2.814   3.888   8.505  1.3443 -0.1531  1.5244
 2488SOL     OW16241   0.398   1.838   0.187 -0.0579  0.6186  0.5609
 2488SOL    HW116242   0.373   1.786   0.110 -1.3124 -0.0029  1.3501
 2488SOL    HW216243   0.318   1.886   0.209  0.2097  0.5826  1.6318
 2489SOL     OW16244   4.806   0.701   0.422 -0.1024 -0.4298 -0.3104
 2489SOL    HW116245   4.852   0.700   0.338 -0.8279  0.5913 -0.7451
 2489SOL    HW216246   4.762   0.616   0.427  1.3429 -1.2052 -0.1347
 2490SOL     OW16247   8.984   6.923   1.904  0.0425 -0.0592  0.2042
 2490SOL    HW116248   8.903   6.872   1.913  0.4428 -0.7608 -0.1212
 2490SOL    HW216249   8.973   6.995   1.966 -1.0886  0.1914 -0.2506
 2491SOL     OW16250   5.231   4.095   3.040  0.2693 -0.3636  0.3536
 2491SOL    HW116251   5.228   4.008   3.001  2.0100 -0.5783  0.6021
 2491SOL    HW216252   5.174   4.148   2.986 -0.5739 -1.5802  0.0074
 2492SOL     OW16253  11.666   4.369   4.837 -0.2434 -0.2880 -0.7116
 2492SOL    HW116254  11.746   4.331   4.871  0.0380  1.0939  0.2530
 2492SOL    HW216255  11.693   4.453   4.799 -1.0969 -0.2113 -1.1936
 2493SOL     OW16256  11.705   2.804  10.815 -0.1695 -0.2208 -0.3865
 2493SOL    HW116257  11.679   2.820  10.725 -0.4489  1.0643 -0.1011
 2493SOL    HW216258  11.776   2.741  10.809 -0.0380  0.0246 -1.5288
 2494SOL     OW16259   7.221   4.090   4.522  0.1173 -0.5141  0.6299
 2494SOL    HW116260   7.178   4.022   4.572  2.0886 -1.6768  0.8477
 2494SOL    HW216261   7.263   4.146   4.587  0.1698 -0.2399  0.3693
 2495SOL     OW16262  10.095   2.851   8.884  0.1276 -0.4197  0.0091
 2495SOL    HW116263  10.009   2.833   8.846 -0.1707  2.2321 -0.7332
 2495SOL    HW216264  10.078   2.861   8.977 -0.4772  0.4863 -0.1816
 2496SOL     OW16265   3.544   4.560   0.747  0.0063  0.4489 -0.6359
 2496SOL    HW116266   3.640   4.556   0.747  0.0503  0.7312  1.0950
 2496SOL    HW216267   3.523   4.636   0.693  0.8006  0.8597 -0.3864
 2497SOL     OW16268   3.056   0.793   8.435 -0.0116 -0.0098 -0.0762
 2497SOL    HW116269   3.089   0.714   8.392  1.7642  0.4073  0.4308
 2497SOL    HW216270   3.119   0.861   8.412 -1.3382  1.2125 -0.2335
 2498SOL     OW16271  10.777   5.942   9.989  0.3411 -0.1295  0.3501
 2498SOL    HW116272  10.830   5.947   9.910  2.0696  1.7461  1.5327
 2498SOL    HW216273  10.840   5.951  10.061 -1.4271  0.7691  1.8801
 2499SOL     OW16274  10.102   1.857   0.905  0.0298 -0.0607 -0.2977
 2499SOL    HW116275  10.129   1.825   0.818 -0.6542  0.8221 -0.8551
 2499SOL    HW216276  10.025   1.911   0.887 -0.6910 -0.6329  0.9849
 2500SOL     OW16277   5.070   0.157  10.736  0.7180  0.5069 -0.0536
 2500SOL    HW116278   4.992   0.153  10.791 -0.3548 -0.8300 -1.6157
 2500SOL    HW216279   5.044   0.210  10.661  1.6095  0.7979 -0.1720
 2501SOL     OW16280   7.410   4.832   7.925 -0.2217 -0.6789 -0.0528
 2501SOL    HW116281   7.408   4.826   7.830  1.3979 -0.7595 -0.1082
 2501SOL    HW216282   7.416   4.741   7.955 -0.0775 -0.6215  0.0953
 2502SOL     OW16283   9.693   3.208  10.350 -0.4258 -0.0563 -0.0920
 2502SOL    HW116284   9.701   3.265  10.274  1.7874 -0.9336 -0.5914
 2502SOL    HW216285   9.694   3.119  10.314 -1.2152 -0.4723  0.8503
 2503SOL     OW16286   2.243   5.217   4.038  0.0450 -0.8012  0.2283
 2503SOL    HW116287   2.276   5.175   3.958  0.0902 -0.1300 -0.1107
 2503SOL    HW216288   2.303   5.190   4.107 -0.8149 -2.5936  0.3460
 2504SOL     OW16289   6.642   8.443   0.295 -0.0418  0.0410 -0.4337
 2504SOL    HW116290   6.644   8.468   0.203  0.4680 -1.3289 -0.8118
 2504SOL    HW216291   6.656   8.526   0.342 -0.2064  0.7431 -1.5744
 2505SOL     OW16292  10.574   0.394   9.748 -0.2263  0.1822  0.3834
 2505SOL    HW116293  10.521   0.329   9.795 -0.0371  0.3374  0.8076
 2505SOL    HW216294  10.564   0.369   9.656  0.6677 -1.0875  0.5917
 2506SOL     OW16295   6.428  10.879   3.780 -0.6520  0.6547  1.0416
 2506SOL    HW116296   6.424  10.873   3.685  2.3115 -0.5656  0.9014
 2506SOL    HW216297   6.405  10.970   3.799  0.1352  1.3346 -0.9678
 2507SOL     OW16298   1.867   2.390  11.717  0.2085 -0.1520 -0.0010
 2507SOL    HW116299   1.834   2.310  11.759  1.1404 -0.0775  0.8975
 2507SOL    HW216300   1.889   2.448  11.790 -1.8798  1.5562 -0.6215
 2508SOL     OW16301   6.306  10.783   0.033 -0.1525  0.6594 -0.0116
 2508SOL    HW116302   6.300  10.876   0.053  1.7975  0.8323 -0.0799
 2508SOL    HW216303   6.331  10.779  -0.059 -0.2852  0.0640 -0.0289
 2509SOL     OW16304  10.667  12.117   0.270  0.4349  0.4845  0.4648
 2509SOL    HW116305  10.584  12.094   0.312  0.3123  0.7786  0.3863
 2509SOL    HW216306  10.687  12.205   0.302 -0.8933  1.7613 -1.9068
 2510SOL     OW16307   9.300   5.363   8.079  0.1114 -0.3200  0.2727
 2510SOL    HW116308   9.288   5.440   8.023 -0.2198 -0.9885 -0.5996
 2510SOL    HW216309   9.389   5.333   8.060  0.1191 -0.3471  0.3532
 2511SOL     OW16310   3.316  11.958  11.563 -0.5578  0.2972 -0.1436
 2511SOL    HW116311   3.234  11.917  11.535  0.1772  0.1161 -2.1939
 2511SOL    HW216312   3.378  11.939  11.493  1.0695  1.0262  1.0280
 2512SOL     OW16313  12.368   6.933   2.794 -0.3394 -0.5781  0.3459
 2512SOL    HW116314  12.283   6.973   2.813 -0.7096 -0.0231 -2.0941
 2512SOL    HW216315  12.432   7.002   2.814 -0.8258  0.5907 -1.7868
 2513SOL     OW16316  10.564   2.529  10.097 -0.6410 -0.3906  0.5693
 2513SOL    HW116317  10.596   2.519  10.007 -0.3855 -1.0997  0.7333
 2513SOL    HW216318  10.506   2.605  10.094  1.6745  1.5117  0.4123
 2514SOL     OW16319  10.780   1.094   6.102 -0.0104 -0.4142 -0.4056
 2514SOL    HW116320  10.852   1.158   6.102  1.1516 -1.6435 -1.1608
 2514SOL    HW216321  10.824   1.010   6.087 -1.4378 -1.4523  0.9828
 2515SOL     OW16322   0.325   2.822   8.384 -0.1816  0.0549 -0.5910
 2515SOL    HW116323   0.309   2.850   8.474 -1.2981  0.2141 -0.8233
 2515SOL    HW216324   0.414   2.787   8.385 -0.9175 -1.9415  1.0550
 2516SOL     OW16325   2.380   6.880   8.938  0.1831  0.5251 -0.0734
 2516SOL    HW116326   2.361   6.786   8.936  0.9230  0.3881 -1.0765
 2516SOL    HW216327   2.453   6.892   8.877  0.4750  1.6723  0.4599
 2517SOL     OW16328   4.079  10.179   8.862 -0.1251  0.3687  0.2563
 2517SOL    HW116329   4.009  10.194   8.799 -1.5059 -0.3420  1.5614
 2517SOL    HW216330   4.073  10.086   8.882  1.9663  0.0322 -0.4507
 2518SOL     OW16331   5.365  11.947   1.404 -0.3126  0.3985 -0.3837
 2518SOL    HW116332   5.326  11.912   1.485 -0.3674  2.5159  0.5856
 2518SOL    HW216333   5.454  11.912   1.402 -0.2844  0.3871  0.6535
 2519SOL     OW16334  10.228   3.439   9.168  0.1265  0.4654  0.0083
 2519SOL    HW116335  10.314   3.473   9.141 -0.1342 -0.8503 -2.8515
 2519SOL    HW216336  10.243   3.346   9.184 -0.6126  0.3991  0.3657
 2520SOL     OW16337   6.394   2.141   0.346 -0.0233 -0.1944  0.5277
 2520SOL    HW116338   6.479   2.176   0.318  0.1779 -0.7179  0.4843
 2520SOL    HW216339   6.414   2.085   0.421 -0.7035  2.2888  2.7231
 2521SOL     OW16340   3.670   8.951   2.415 -0.1504 -0.3948 -0.2316
 2521SOL    HW116341   3.651   8.927   2.324 -2.3525  0.0193  0.0648
 2521SOL    HW216342   3.621   8.888   2.467  0.1616  0.0808  0.6583
 2522SOL     OW16343   3.131   6.644   5.294 -0.1456 -0.3395  0.1801
 2522SOL    HW116344   3.185   6.716   5.261  0.1947 -0.9115 -0.5168
 2522SOL    HW216345   3.071   6.687   5.356 -0.2491  0.6160 -0.5551
 2523SOL     OW16346   8.549   4.542   9.585  0.2740  0.4401 -0.1362
 2523SOL    HW116347   8.635   4.510   9.557 -0.2628  0.6340 -2.1807
 2523SOL    HW216348   8.567   4.593   9.664  1.7780 -0.9478  0.4811
 2524SOL     OW16349   9.611   7.042  10.017  0.0949 -0.2345  0.2929
 2524SOL    HW116350   9.679   6.980  10.044 -0.2192 -0.3873  0.7428
 2524SOL    HW216351   9.576   7.005   9.936  0.2718 -0.3649  0.2740
 2525SOL     OW16352   6.467   5.056   3.761  0.3864  0.0480 -0.4129
 2525SOL    HW116353   6.458   5.076   3.855 -0.8904  1.1853 -0.7428
 2525SOL    HW216354   6.379   5.030   3.733  0.8579 -0.7481 -1.2133
 2526SOL     OW16355   3.028  10.266   3.499  0.3815 -0.0653  0.1093
 2526SOL    HW116356   3.042  10.235   3.409  0.6329 -0.9586  0.4427
 2526SOL    HW216357   3.030  10.361   3.493 -0.9121 -0.0786 -1.0427
 2527SOL     OW16358  12.307   9.302   3.152  0.1428  0.3414  0.0695
 2527SOL    HW116359  12.396   9.335   3.137  0.1205 -0.2981 -1.6901
 2527SOL    HW216360  12.317   9.239   3.224  1.1817 -0.0282 -0.3789
 2528SOL     OW16361   7.126   1.592   4.542  0.0848  0.2698  0.0940
 2528SOL    HW116362   7.042   1.627   4.573  0.3570  0.8838  0.1528
 2528SOL    HW216363   7.171   1.667   4.503  1.2849  0.3352  1.5120
 2529SOL     OW16364   7.247   8.625  11.978  0.2674  0.0967  0.1195
 2529SOL    HW116365   7.247   8.532  12.002  1.7985  0.0159 -0.1321
 2529SOL    HW216366   7.337   8.644  11.954 -0.2011  1.4527 -0.6626
 2530SOL     OW16367   7.491   2.397   1.240  0.1532  0.9381 -0.2981
 2530SOL    HW116368   7.456   2.456   1.307 -0.5302 -1.0761  1.1924
 2530SOL    HW216369   7.575   2.367   1.276 -0.3502 -0.3749 -0.1843
 2531SOL     OW16370  12.064   5.658   4.132 -0.4976 -0.4727 -0.0124
 2531SOL    HW116371  12.039   5.750   4.142 -0.4048 -0.3793 -0.5757
 2531SOL    HW216372  12.155   5.654   4.161 -0.6001 -0.4461  0.3075
 2532SOL     OW16373   4.238   4.048   7.239  0.2250  0.0042 -0.0409
 2532SOL    HW116374   4.222   3.987   7.311  1.3882 -0.1322  0.1244
 2532SOL    HW216375   4.333   4.064   7.242  0.0654  1.1706 -0.5996
 2533SOL     OW16376   2.376  11.389  11.479  0.0610  0.1962  0.0623
 2533SOL    HW116377   2.451  11.411  11.424  0.1798 -0.9746 -0.2716
 2533SOL    HW216378   2.310  11.357  11.419 -0.7694  1.3018  0.3470
 2534SOL     OW16379   5.045   1.164   5.358  0.2845  0.3873 -0.6817
 2534SOL    HW116380   5.029   1.131   5.269  1.4735  0.5427 -0.9741
 2534SOL    HW216381   5.065   1.086   5.410 -1.2148  0.2096 -0.3495
 2535SOL     OW16382  12.248   6.176   2.982  0.1741  0.6051 -0.6239
 2535SOL    HW116383  12.266   6.203   2.892  0.9522 -1.5409 -1.1723
 2535SOL    HW216384  12.160   6.137   2.978  1.3643 -2.3178 -1.2473
 2536SOL     OW16385   7.932   4.978   0.004  0.4989 -0.4821  0.7216
 2536SOL    HW116386   8.001   4.940  -0.050  0.9981  0.5939  0.5866
 2536SOL    HW216387   7.850   4.948  -0.037  0.7818 -4.0614  2.4649
 2537SOL     OW16388   1.444   7.906   9.296  0.5060  0.8962  0.1642
 2537SOL    HW116389   1.395   7.859   9.228 -0.9590  0.9015  1.1742
 2537SOL    HW216390   1.402   7.882   9.378  2.1691  0.9820  1.0925
 2538SOL     OW16391   8.708   1.274  10.133  0.3624 -0.1651  0.7867
 2538SOL    HW116392   8.645   1.253  10.202 -0.5372  0.5060  0.1908
 2538SOL    HW216393   8.772   1.331  10.175  0.5874 -0.8496  1.3998
 2539SOL     OW16394   0.993   7.346   5.778  0.4085 -0.0844 -0.1084
 2539SOL    HW116395   0.994   7.383   5.690  0.2753 -1.2310 -0.6139
 2539SOL    HW216396   1.025   7.416   5.834 -1.7658  1.5088 -0.7318
 2540SOL     OW16397   1.205  10.858   6.387  0.4709  0.4728  0.1200
 2540SOL    HW116398   1.140  10.856   6.317 -0.0904 -1.1662  0.6413
 2540SOL    HW216399   1.182  10.936   6.438 -0.5216  0.4232 -0.2220
 2541SOL     OW16400   3.953  11.122  10.297 -0.2526 -0.1917 -0.3450
 2541SOL    HW116401   4.034  11.171  10.297  0.6833 -1.6230 -1.9192
 2541SOL    HW216402   3.978  11.035  10.329 -1.3731 -0.3700  0.0928
 2542SOL     OW16403   1.755   1.766   4.480 -0.0421 -0.8665 -0.1073
 2542SOL    HW116404   1.834   1.811   4.448  1.2599 -2.0485  1.2891
 2542SOL    HW216405   1.692   1.775   4.409  1.0513  0.8706 -0.9191
 2543SOL     OW16406   2.237   6.420   5.329 -0.1779  0.1199  0.2380
 2543SOL    HW116407   2.230   6.466   5.412 -1.6987  1.0320 -0.3450
 2543SOL    HW216408   2.216   6.329   5.349 -2.4974  0.6813  0.5756
 2544SOL     OW16409   1.658  10.620   8.881 -0.1692 -0.0512  0.1905
 2544SOL    HW116410   1.716  10.695   8.892 -0.1074 -0.1213  0.3332
 2544SOL    HW216411   1.601  10.622   8.958  1.9451 -2.0634  1.9176
 2545SOL     OW16412   1.190  11.770   2.841  0.2336 -0.5216  0.0965
 2545SOL    HW116413   1.129  11.844   2.841  0.0908 -0.6420  0.0942
 2545SOL    HW216414   1.251  11.791   2.912 -0.0815 -0.6315  0.4008
 2546SOL     OW16415   9.869   2.959   2.806 -0.1177  0.0459  0.3625
 2546SOL    HW116416   9.835   3.042   2.772  0.7937  0.2315 -0.1244
 2546SOL    HW216417   9.793   2.901   2.809 -0.5249  0.5163 -0.4938
 2547SOL     OW16418   2.898   0.778   9.498  0.0542  0.1339 -0.4464
 2547SOL    HW116419   2.828   0.834   9.530  0.0534  0.3526 -0.8372
 2547SOL    HW216420   2.975   0.803   9.550  0.2466  1.0307 -1.1349
 2548SOL     OW16421   3.978   5.109   9.099 -0.4326 -0.3076 -0.2114
 2548SOL    HW116422   4.052   5.056   9.069 -0.5455 -0.6313  0.0828
 2548SOL    HW216423   3.974   5.094   9.193  0.5143  1.4272  0.1567
 2549SOL     OW16424   2.599  10.694  10.690 -0.7367  0.3495  0.2161
 2549SOL    HW116425   2.533  10.753  10.652  1.0869  1.9169 -0.7161
 2549SOL    HW216426   2.681  10.720  10.648  0.1073 -3.4442 -0.8453
 2550SOL     OW16427   9.994  10.551  11.093  0.2374 -0.1240  0.4922
 2550SOL    HW116428  10.004  10.458  11.112 -0.3282 -0.4263 -0.6228
 2550SOL    HW216429   9.919  10.555  11.033  1.2412  0.8892 -0.7460
 2551SOL     OW16430   7.298   5.894   7.719 -0.3990  0.0020 -0.2714
 2551SOL    HW116431   7.315   5.971   7.664 -1.3315  0.2625 -0.2158
 2551SOL    HW216432   7.223   5.919   7.772  0.1457 -0.4497  0.7458
 2552SOL     OW16433   8.103   0.367  11.510 -0.0030 -0.1627  0.2379
 2552SOL    HW116434   8.064   0.432  11.568 -1.2463  0.4133 -1.1767
 2552SOL    HW216435   8.113   0.289  11.564 -0.1728  0.6492  1.4724
 2553SOL     OW16436   8.215   4.239   4.010 -0.1226 -0.0286  0.7120
 2553SOL    HW116437   8.245   4.191   3.933  0.5138  0.2867  0.7507
 2553SOL    HW216438   8.286   4.301   4.028  0.7249 -1.4857  2.8016
 2554SOL     OW16439   2.746   0.784  12.252  0.0262  0.3451  0.4399
 2554SOL    HW116440   2.670   0.725  12.256 -0.3659  0.5639 -2.0283
 2554SOL    HW216441   2.795   0.755  12.175 -0.7210  3.7297 -1.5463
 2555SOL     OW16442   0.391   4.660  11.338 -0.0704  0.3772  0.1486
 2555SOL    HW116443   0.416   4.635  11.249  0.4904 -0.0483  0.4215
 2555SOL    HW216444   0.451   4.730  11.362  0.1505  0.1051  0.3990
 2556SOL     OW16445   4.772  10.445   7.142 -0.0283  0.6852  0.1254
 2556SOL    HW116446   4.693  10.391   7.135  0.1114 -0.2726  3.8949
 2556SOL    HW216447   4.844  10.384   7.125  0.0469  1.3043 -2.1452
 2557SOL     OW16448   3.918   7.913   0.014 -0.4257  0.1189 -0.6114
 2557SOL    HW116449   3.988   7.848   0.018 -1.3376 -0.9059 -1.2417
 2557SOL    HW216450   3.930   7.965   0.095  0.7932 -0.2939 -0.5062
 2558SOL     OW16451  12.342   9.598   8.695  0.2401  0.3477 -0.3735
 2558SOL    HW116452  12.361   9.522   8.749 -1.4792 -0.7728 -1.2489
 2558SOL    HW216453  12.249   9.591   8.674  0.2447  2.1738 -1.2860
 2559SOL     OW16454   2.377   7.198   9.095 -0.1125 -0.3850  0.3112
 2559SOL    HW116455   2.375   7.175   9.002  0.9466 -0.5433  0.3128
 2559SOL    HW216456   2.447   7.263   9.102 -0.0132 -0.5594  1.0357
 2560SOL     OW16457   5.393   9.335  12.075 -0.6416 -0.0400  0.4805
 2560SOL    HW116458   5.421   9.426  12.074 -0.2318 -0.1611  0.6210
 2560SOL    HW216459   5.337   9.326  11.998  2.0529 -0.5109 -1.5684
 2561SOL     OW16460   0.634   6.864   8.969 -0.1442  0.3087 -0.0875
 2561SOL    HW116461   0.638   6.772   8.996  0.7724  0.5692  0.7432
 2561SOL    HW216462   0.716   6.879   8.921 -0.5005  0.5763 -0.6245
 2562SOL     OW16463   9.647   9.719   3.822  0.4227 -0.3681 -0.0562
 2562SOL    HW116464   9.703   9.675   3.757 -0.5476  0.3123 -1.3881
 2562SOL    HW216465   9.649   9.811   3.797  1.4900  0.2308  2.0056
 2563SOL     OW16466   8.430   8.547   2.430  0.0959  0.3669 -0.1472
 2563SOL    HW116467   8.390   8.470   2.388  0.3501  0.1766 -0.0433
 2563SOL    HW216468   8.499   8.573   2.370  1.4397 -0.7991  0.8317
 2564SOL     OW16469   5.408   4.281   4.896  0.2674 -0.5256  0.5693
 2564SOL    HW116470   5.383   4.204   4.846 -1.2954  0.2615  0.1046
 2564SOL    HW216471   5.488   4.254   4.942  0.4711 -1.9879 -0.5713
 2565SOL     OW16472  11.808   4.029  10.766 -0.0761 -0.3527 -0.0842
 2565SOL    HW116473  11.845   4.103  10.814  0.2009 -0.5370 -0.0117
 2565SOL    HW216474  11.876   3.961  10.770 -1.1395 -1.4147  1.7261
 2566SOL     OW16475   3.097   0.813   7.493 -0.4206  0.5405 -0.7566
 2566SOL    HW116476   3.103   0.906   7.516  0.3764  0.7540 -1.7658
 2566SOL    HW216477   3.079   0.769   7.576  0.0685  1.5117 -0.1167
 2567SOL     OW16478  11.518   3.972   6.198  0.6215 -0.0553 -0.1729
 2567SOL    HW116479  11.455   3.984   6.127 -0.3974 -0.1011  0.6989
 2567SOL    HW216480  11.542   3.880   6.194 -1.0452 -0.5820  0.8037
 2568SOL     OW16481   9.875  11.423   6.678 -0.1903  0.0209  0.5439
 2568SOL    HW116482   9.899  11.352   6.737  1.4455 -0.4056 -0.5831
 2568SOL    HW216483   9.855  11.380   6.595  2.7230  0.9168 -0.7439
 2569SOL     OW16484  12.313   7.439   7.981 -0.4996 -0.2023 -1.0024
 2569SOL    HW116485  12.253   7.398   8.043 -1.9712  0.8714 -1.6482
 2569SOL    HW216486  12.393   7.386   7.985 -0.9354 -0.7844  0.9949
 2570SOL     OW16487   6.299   1.990   3.833 -0.0700 -0.0660  0.1127
 2570SOL    HW116488   6.251   1.924   3.783 -2.3703  1.6930 -0.1153
 2570SOL    HW216489   6.385   1.994   3.790 -1.7824  1.0876 -3.6531
 2571SOL     OW16490   3.079   5.607   7.705  0.1797  0.3048  0.1488
 2571SOL    HW116491   3.016   5.665   7.748 -0.2946  1.0246 -1.4596
 2571SOL    HW216492   3.156   5.662   7.691 -1.0347  1.3200 -3.3548
 2572SOL     OW16493   9.219   3.922  11.759 -0.4126 -0.4847 -0.1919
 2572SOL    HW116494   9.254   3.843  11.798 -0.1401 -0.9189 -1.2767
 2572SOL    HW216495   9.284   3.948  11.694 -1.0185 -0.0043 -0.6216
 2573SOL     OW16496  10.382   7.419   7.663  0.0457  0.0014  0.0228
 2573SOL    HW116497  10.369   7.394   7.571 -0.2914 -0.2680  0.1416
 2573SOL    HW216498  10.476   7.436   7.670 -0.2385  2.2046 -0.9024
 2574SOL     OW16499  11.943   1.378   2.910  0.1931 -0.0740 -0.7544
 2574SOL    HW116500  11.893   1.455   2.882  1.5527  0.6398 -1.3118
 2574SOL    HW216501  11.981   1.404   2.994  1.1532  0.1121 -1.2324
 2575SOL     OW16502  12.139  10.573   5.103  1.2187  0.3396 -0.1861
 2575SOL    HW116503  12.200  10.626   5.153 -0.1703  0.9712  0.8840
 2575SOL    HW216504  12.083  10.531   5.168  1.2338 -1.1760 -1.0803
 2576SOL     OW16505   6.211   8.773   8.793 -0.4042 -0.2945 -0.0470
 2576SOL    HW116506   6.118   8.772   8.770 -0.3283  0.2610 -0.4055
 2576SOL    HW216507   6.245   8.851   8.749  0.1816 -0.3667  0.2738
 2577SOL     OW16508   8.049   8.068   5.470  0.1034 -0.0246 -0.2382
 2577SOL    HW116509   8.049   8.105   5.381  0.2573 -0.5573 -0.4620
 2577SOL    HW216510   8.025   8.142   5.526  2.4561  1.0116 -0.4573
 2578SOL     OW16511   2.537   5.292   2.066 -0.0519 -0.4905 -0.4397
 2578SOL    HW116512   2.557   5.206   2.103 -1.5963 -1.3796 -1.5500
 2578SOL    HW216513   2.495   5.272   1.982  0.7558  1.3800 -1.3449
 2579SOL     OW16514  10.701   9.993  11.026 -0.0464 -0.2710  0.1363
 2579SOL    HW116515  10.779  10.039  10.997  0.5001  0.6310  2.7624
 2579SOL    HW216516  10.726   9.951  11.108 -2.4784  0.7581  1.5326
 2580SOL     OW16517   3.856   2.006   5.551  0.0259  0.2718  0.6322
 2580SOL    HW116518   3.816   1.949   5.485  2.5670 -0.5599 -0.2820
 2580SOL    HW216519   3.847   1.957   5.633  0.3063 -0.4780  0.2202
 2581SOL     OW16520   6.279   4.732   7.938 -0.2472  1.0115  0.0034
 2581SOL    HW116521   6.268   4.685   8.021 -1.1328  2.1045  0.5292
 2581SOL    HW216522   6.351   4.687   7.894  0.4206  0.5865  1.4881
 2582SOL     OW16523   3.725   3.488  11.317  0.1742 -0.1091 -0.1780
 2582SOL    HW116524   3.765   3.554  11.261  0.2728  0.0222  0.0457
 2582SOL    HW216525   3.640   3.525  11.342 -0.1165 -0.4098 -0.6947
 2583SOL     OW16526  11.929   7.637   9.595 -0.2934 -0.0245  0.3370
 2583SOL    HW116527  11.952   7.586   9.517 -0.1920  1.7269 -0.8537
 2583SOL    HW216528  12.000   7.701   9.603 -1.3150  1.1062  0.6598
 2584SOL     OW16529  12.524  11.144   1.589  0.0297 -0.2206  0.4120
 2584SOL    HW116530  12.557  11.167   1.502  1.4877 -0.0618  0.9812
 2584SOL    HW216531  12.516  11.229   1.634 -0.6595 -0.3083  0.4648
 2585SOL     OW16532  12.580   4.974  10.657 -0.0037  0.1173  0.0378
 2585SOL    HW116533  12.524   4.941  10.728 -0.6971  0.3565 -0.3882
 2585SOL    HW216534  12.669   4.964  10.690 -0.2322 -1.3591  0.2702
 2586SOL     OW16535  12.034   2.575   7.021 -0.2740  0.1463 -0.5169
 2586SOL    HW116536  12.084   2.591   7.101  0.6564 -2.3969 -0.4905
 2586SOL    HW216537  11.943   2.572   7.049 -0.1185  1.0225  0.1129
 2587SOL     OW16538  12.314   5.817   6.118  0.2895  0.0978  0.0158
 2587SOL    HW116539  12.281   5.805   6.207  0.6865  0.3615  0.2026
 2587SOL    HW216540  12.282   5.741   6.070 -0.6956  0.4123  0.1600
 2588SOL     OW16541   4.534   3.369  10.278  0.0708  0.7271 -0.1215
 2588SOL    HW116542   4.542   3.423  10.357 -0.9523 -0.0243  0.5200
 2588SOL    HW216543   4.617   3.381  10.232  0.4517  1.6428  0.7719
 2589SOL     OW16544   3.856   9.261   7.750 -0.4168 -0.4802 -0.9624
 2589SOL    HW116545   3.927   9.321   7.772 -1.8579  0.9867 -0.1561
 2589SOL    HW216546   3.883   9.177   7.787  0.9405  0.0140 -0.7916
 2590SOL     OW16547  10.815   3.851   6.254 -0.3097  0.5478 -0.1585
 2590SOL    HW116548  10.851   3.767   6.225  0.0567  0.1842  1.2979
 2590SOL    HW216549  10.721   3.842   6.241 -0.4354 -0.6803  1.3751
 2591SOL     OW16550   9.894  10.423  11.720 -0.2501 -0.4022 -0.2345
 2591SOL    HW116551   9.815  10.448  11.770 -1.9353  0.9302 -3.2821
 2591SOL    HW216552   9.865  10.352  11.663  1.6850 -2.0626  0.7221
 2592SOL     OW16553  10.058   3.901  12.568 -0.1282 -0.7714 -0.3821
 2592SOL    HW116554  10.069   3.870  12.478  2.6862  1.0415 -0.7846
 2592SOL    HW216555  10.105   3.836  12.620  1.8627  0.2737 -0.7543
 2593SOL     OW16556   1.554  10.853   3.020  0.4221  0.4262 -0.5684
 2593SOL    HW116557   1.477  10.805   2.990  0.7058 -0.0577 -0.5271
 2593SOL    HW216558   1.628  10.813   2.974  0.6321  1.0120 -0.7543
 2594SOL     OW16559   1.655  12.468   1.929  0.4595 -0.1616  0.7797
 2594SOL    HW116560   1.696  12.465   1.843 -0.7524  2.4866  0.0095
 2594SOL    HW216561   1.568  12.431   1.916  0.1289  0.6121  0.7579
 2595SOL     OW16562   1.361   0.630   1.728 -0.2867 -0.1448  0.0055
 2595SOL    HW116563   1.456   0.640   1.720 -0.5538  2.7523 -0.4494
 2595SOL    HW216564   1.345   0.628   1.822  0.1787 -0.2139  0.0870
 2596SOL     OW16565   8.450  12.585  10.572 -0.4449  0.0281  0.0639
 2596SOL    HW116566   8.498  12.578  10.654 -1.3481 -1.4693  0.4943
 2596SOL    HW216567   8.466  12.502  10.528 -1.6316  0.0053 -0.3551
 2597SOL     OW16568  10.558   4.952   4.365 -0.3276 -0.1814  0.3867
 2597SOL    HW116569  10.563   4.929   4.458  0.2578  1.1345  0.7046
 2597SOL    HW216570  10.649   4.947   4.335 -0.1217  1.7611  0.5233
 2598SOL     OW16571   9.302   6.062   4.118 -0.0311 -0.5742  0.2316
 2598SOL    HW116572   9.278   6.056   4.210 -2.5141  1.2241 -0.1872
 2598SOL    HW216573   9.394   6.088   4.118  0.0001 -0.5808  2.1986
 2599SOL     OW16574   0.251   2.125   0.974 -0.1140  0.1305 -0.4352
 2599SOL    HW116575   0.268   2.085   0.889  1.6593 -0.9548  0.3650
 2599SOL    HW216576   0.238   2.218   0.955  1.4244  0.1060 -1.7937
 2600SOL     OW16577   4.584   3.867   4.295 -0.0135 -0.1019 -0.5786
 2600SOL    HW116578   4.643   3.892   4.225 -0.0536  0.1008 -0.5390
 2600SOL    HW216579   4.636   3.807   4.350  0.0536 -0.1699 -0.7162
 2601SOL     OW16580   7.225  11.054   9.037 -0.3719  0.3021 -0.4143
 2601SOL    HW116581   7.287  11.083   9.105  0.2129 -0.6530 -0.5214
 2601SOL    HW216582   7.154  11.118   9.041  0.8034  1.6848 -0.5692
 2602SOL     OW16583   9.267   0.973  10.398  0.0070 -0.1517 -0.1188
 2602SOL    HW116584   9.212   0.913  10.449 -0.4857  1.0129  0.7761
 2602SOL    HW216585   9.213   0.996  10.322  0.1566 -0.7513 -0.4110
 2603SOL     OW16586   1.850   1.330   0.745  0.0939 -0.8994 -0.5178
 2603SOL    HW116587   1.839   1.412   0.794 -1.1472 -2.1441  1.4249
 2603SOL    HW216588   1.781   1.333   0.679 -0.5731 -0.7748  0.1648
 2604SOL     OW16589   3.807   5.077   8.634  0.5418  0.4507 -0.1324
 2604SOL    HW116590   3.784   5.134   8.708  0.2978  0.7777 -0.4541
 2604SOL    HW216591   3.723   5.060   8.591  0.8064  1.1100 -0.9390
 2605SOL     OW16592   1.366   2.302   5.622 -0.1810 -0.2328 -0.2061
 2605SOL    HW116593   1.309   2.351   5.681  0.3901  0.8867 -0.5687
 2605SOL    HW216594   1.344   2.335   5.535  0.4646 -0.3621 -0.4219
 2606SOL     OW16595   5.535   8.866   8.543 -0.4412 -0.3181 -0.3045
 2606SOL    HW116596   5.607   8.821   8.588 -1.0318 -0.7551  0.2063
 2606SOL    HW216597   5.549   8.959   8.564  0.7514 -0.2422 -1.3272
 2607SOL     OW16598   5.160   1.076   8.492 -0.0392  0.1020 -0.0005
 2607SOL    HW116599   5.133   0.998   8.444 -2.6650  0.4146  0.8211
 2607SOL    HW216600   5.103   1.146   8.459  0.8973  1.2327  0.6777
 2608SOL     OW16601   0.483   9.729   2.055  0.1190  0.3889  0.0524
 2608SOL    HW116602   0.393   9.698   2.044  0.8113 -2.0482  0.6500
 2608SOL    HW216603   0.488   9.809   2.001 -1.8783 -0.4311 -1.4784
 2609SOL     OW16604   1.188   1.021   1.944 -0.0713  0.2459  0.0990
 2609SOL    HW116605   1.115   1.004   1.884 -0.5477 -0.0716  0.7498
 2609SOL    HW216606   1.152   1.082   2.008  0.3909  0.4765  0.1378
 2610SOL     OW16607   3.699  12.496  10.107 -0.3434 -0.2468  0.1694
 2610SOL    HW116608   3.780  12.444  10.098 -0.3706 -0.2994  0.2223
 2610SOL    HW216609   3.630  12.439  10.073 -0.2578  0.0875 -0.5702
 2611SOL     OW16610  11.307   2.926   0.131  0.3364  0.2185 -0.3507
 2611SOL    HW116611  11.399   2.950   0.143  0.5751 -0.8461  0.0439
 2611SOL    HW216612  11.271   2.927   0.220  0.3921 -0.9599 -0.2945
 2612SOL     OW16613   4.979   5.471   7.727 -0.1667  0.3396 -0.5971
 2612SOL    HW116614   4.949   5.391   7.683 -1.7847  1.0926 -0.9608
 2612SOL    HW216615   5.071   5.479   7.701 -0.4274 -0.5196 -1.9260
 2613SOL     OW16616   2.192   5.273  12.051  0.0013 -0.3507  0.7001
 2613SOL    HW116617   2.171   5.223  12.129 -1.9049 -2.2929 -0.9150
 2613SOL    HW216618   2.115   5.330  12.038 -0.5725 -1.3983 -0.7147
 2614SOL     OW16619   6.768   3.395   0.149  0.2891  0.3447  0.0663
 2614SOL    HW116620   6.754   3.305   0.180  2.2031 -0.1774 -0.4696
 2614SOL    HW216621   6.748   3.449   0.226  1.6360 -0.7058  1.2150
 2615SOL     OW16622   9.873  12.238   5.917  0.3368  0.5345 -0.1982
 2615SOL    HW116623   9.827  12.248   5.833 -1.3310 -1.3395  0.4229
 2615SOL    HW216624   9.963  12.217   5.892  0.2058  1.3257 -1.4789
 2616SOL     OW16625   3.608   3.165   2.093  0.3965  0.2973 -0.0609
 2616SOL    HW116626   3.569   3.174   2.180 -0.3602 -3.9028  0.2709
 2616SOL    HW216627   3.684   3.223   2.095 -1.2188  2.5953  2.2517
 2617SOL     OW16628   5.520   2.284   9.352  0.0129 -0.1560  0.0872
 2617SOL    HW116629   5.492   2.193   9.358  0.2610 -0.1503  2.0211
 2617SOL    HW216630   5.441   2.332   9.328 -0.8002 -0.5709  1.8119
 2618SOL     OW16631   0.583   2.186  10.839  0.1950 -0.2130  0.2571
 2618SOL    HW116632   0.536   2.112  10.878  0.2836 -0.9403 -0.9523
 2618SOL    HW216633   0.570   2.258  10.900 -1.9086 -0.5821  0.3119
 2619SOL     OW16634  12.474  12.295   5.816  0.9574  0.0021 -0.3654
 2619SOL    HW116635  12.408  12.354   5.851  1.2782 -0.1549  0.5190
 2619SOL    HW216636  12.495  12.332   5.730  0.2580  0.4633 -0.3489
 2620SOL     OW16637   9.120   7.477  10.626 -0.0316  0.5962  0.3648
 2620SOL    HW116638   9.040   7.426  10.638  0.4767 -0.5632 -0.9663
 2620SOL    HW216639   9.094   7.567  10.644 -1.4113  0.1232  0.8486
 2621SOL     OW16640  10.221   8.271   2.687 -0.6446  0.4283  0.2929
 2621SOL    HW116641  10.315   8.284   2.674 -0.5422 -1.2774 -1.0918
 2621SOL    HW216642  10.212   8.177   2.702 -2.1301  0.5888  0.5239
 2622SOL     OW16643   6.694   7.063   4.348  0.0654  0.3400 -0.2372
 2622SOL    HW116644   6.755   7.135   4.363 -0.7182  0.6854  1.6422
 2622SOL    HW216645   6.643   7.090   4.272  0.9342  0.9492 -0.6179
 2623SOL     OW16646   5.642   6.944  12.081  0.0102 -0.4728  0.1330
 2623SOL    HW116647   5.642   6.873  12.018  0.3550  1.4714 -2.2142
 2623SOL    HW216648   5.584   7.010  12.043  1.7056  1.5610  0.8431
 2624SOL     OW16649   0.084   9.285   8.442 -0.7510  0.6543  0.6345
 2624SOL    HW116650  -0.001   9.264   8.480 -0.8610  0.7753  0.4497
 2624SOL    HW216651   0.072   9.369   8.399 -0.6790  0.4255  0.1579
 2625SOL     OW16652   4.410   5.839  10.571  0.3341  0.2373 -0.1890
 2625SOL    HW116653   4.373   5.815  10.656  1.6039  1.2054  0.6672
 2625SOL    HW216654   4.478   5.773  10.556  0.1257  0.0805 -0.4601
 2626SOL     OW16655   6.772   6.186   6.597 -0.1604  0.2241 -0.1430
 2626SOL    HW116656   6.860   6.162   6.569 -0.2374 -0.2766  0.0421
 2626SOL    HW216657   6.744   6.115   6.654 -0.7412  0.3098 -0.3123
 2627SOL     OW16658   6.352  11.025   2.413 -0.2025  0.3629  0.5124
 2627SOL    HW116659   6.298  10.998   2.488 -2.3451  1.5378 -0.5130
 2627SOL    HW216660   6.290  11.035   2.341  1.6295  0.4097 -1.1388
 2628SOL     OW16661  11.295  11.425   2.002 -0.1621  0.2965 -0.1622
 2628SOL    HW116662  11.369  11.367   1.985 -1.3116 -1.3259  0.1973
 2628SOL    HW216663  11.239  11.416   1.925  0.0422  1.6515 -0.5124
 2629SOL     OW16664   8.010   3.341   3.071 -0.2278  0.0851  0.4382
 2629SOL    HW116665   8.011   3.282   3.145 -0.7111  0.2369  0.5686
 2629SOL    HW216666   7.969   3.421   3.104  0.3635  0.4753  0.2523
 2630SOL     OW16667   7.423   4.478   3.369  0.0430 -0.4060 -0.2326
 2630SOL    HW116668   7.392   4.417   3.302 -1.7935 -0.8822  0.9845
 2630SOL    HW216669   7.348   4.492   3.426  1.1346  1.1220  0.9175
 2631SOL     OW16670   5.610  10.477   6.287  0.1321  0.3443  0.0380
 2631SOL    HW116671   5.657  10.508   6.365  0.1524  1.1578 -0.2788
 2631SOL    HW216672   5.677  10.474   6.219 -0.0408  0.4141 -0.1367
 2632SOL     OW16673   4.226   8.293  11.634  0.6219 -0.1045  0.5182
 2632SOL    HW116674   4.274   8.308  11.553 -0.8831 -1.3371 -0.6430
 2632SOL    HW216675   4.137   8.273  11.607  0.4336 -2.1982  2.3292
 2633SOL     OW16676  12.598   2.604   8.295 -0.1572  0.0904  0.1938
 2633SOL    HW116677  12.618   2.597   8.388  1.9513 -0.2849 -0.2196
 2633SOL    HW216678  12.608   2.698   8.275  0.2785  0.0467  0.1919
 2634SOL     OW16679   5.312   6.023  11.125  0.2859 -0.4740  0.5930
 2634SOL    HW116680   5.235   6.053  11.077  0.1469 -1.2950  0.2901
 2634SOL    HW216681   5.326   6.090  11.192 -0.7903 -0.4013  0.7641
 2635SOL     OW16682   3.964   2.974   0.025 -0.5403  0.7663  0.1101
 2635SOL    HW116683   3.876   3.010   0.021 -1.7553 -1.9966 -0.2849
 2635SOL    HW216684   3.991   2.967  -0.067 -0.7521 -0.2070  0.1087
 2636SOL     OW16685   0.733   8.210   3.472 -0.8313  0.2844  0.1179
 2636SOL    HW116686   0.739   8.160   3.391  1.0976 -0.2117  0.5244
 2636SOL    HW216687   0.675   8.159   3.528 -1.4730  0.1907 -0.6154
 2637SOL     OW16688   9.027   8.110  11.116  0.2728  0.5255  0.5083
 2637SOL    HW116689   8.989   8.129  11.201  0.1531  0.3813  0.4866
 2637SOL    HW216690   9.089   8.182  11.101  1.7656 -0.4834  1.5962
 2638SOL     OW16691  12.031  10.647   6.271 -0.0941 -0.2798 -1.0179
 2638SOL    HW116692  11.954  10.699   6.293  0.8994  0.6183  0.5067
 2638SOL    HW216693  12.101  10.683   6.325  1.2067 -1.6361 -1.7154
 2639SOL     OW16694   7.141  10.747   1.732 -0.0521 -0.0513  0.5672
 2639SOL    HW116695   7.092  10.827   1.747 -1.2364 -0.9941  1.9936
 2639SOL    HW216696   7.077  10.684   1.699  0.6943 -0.6351  0.1721
 2640SOL     OW16697   1.217   6.078  11.073  0.0943 -0.5605 -0.5727
 2640SOL    HW116698   1.246   6.169  11.080 -0.8772 -0.2779 -0.0180
 2640SOL    HW216699   1.130   6.078  11.113  0.1582 -1.7671 -0.4124
 2641SOL     OW16700   6.139   4.676   7.207 -0.4939 -0.1334  0.8139
 2641SOL    HW116701   6.115   4.588   7.176  0.2079  0.6782 -2.3776
 2641SOL    HW216702   6.104   4.735   7.141  1.5895  1.7904  1.2998
 2642SOL     OW16703   3.743   8.252   3.443  0.2643  0.0673 -0.1959
 2642SOL    HW116704   3.836   8.265   3.427  0.7616 -0.1606  2.1562
 2642SOL    HW216705   3.700   8.322   3.393  1.6715  0.2183 -1.2518
 2643SOL     OW16706   8.621  10.252   7.164 -0.4881  0.2350  0.2018
 2643SOL    HW116707   8.660  10.309   7.230 -2.9133  1.5620  0.6331
 2643SOL    HW216708   8.580  10.181   7.215  0.2785 -0.4719 -0.1449
 2644SOL     OW16709   4.196  11.698   6.628  0.3111 -0.4582 -0.5402
 2644SOL    HW116710   4.210  11.628   6.692 -0.4712  0.6599  0.9281
 2644SOL    HW216711   4.138  11.658   6.562  1.7201 -1.8524 -0.9922
 2645SOL     OW16712   4.396   9.337   8.398 -0.2846  0.2075  0.5432
 2645SOL    HW116713   4.407   9.273   8.468  0.3335 -0.4272 -0.1102
 2645SOL    HW216714   4.421   9.289   8.318  0.5070  1.3475  0.0797
 2646SOL     OW16715   8.166   4.049  10.551 -0.1435  0.2432  0.6001
 2646SOL    HW116716   8.152   4.112  10.480  2.4462  1.6168  1.1897
 2646SOL    HW216717   8.187   3.967  10.506 -0.9237  0.4596 -0.1864
 2647SOL     OW16718   1.705   9.216   5.647  0.0366  0.2184 -0.5680
 2647SOL    HW116719   1.630   9.238   5.591 -0.8604  1.2892  0.9894
 2647SOL    HW216720   1.672   9.225   5.736  1.3826 -1.6308  0.1678
 2648SOL     OW16721  12.349   5.001   9.220 -0.0219  0.1388 -0.2275
 2648SOL    HW116722  12.275   5.053   9.250 -0.1636 -1.4413  2.4098
 2648SOL    HW216723  12.365   4.938   9.290  2.2165 -1.2409 -1.8371
 2649SOL     OW16724  10.339   9.431  11.524 -0.3207 -0.3854  0.0206
 2649SOL    HW116725  10.415   9.433  11.581 -0.2882 -0.7980 -0.0066
 2649SOL    HW216726  10.278   9.371  11.567 -0.8009  0.2602  0.2565
 2650SOL     OW16727  10.344  11.663  12.468 -0.1453  0.9135 -0.7437
 2650SOL    HW116728  10.320  11.571  12.479  0.2113  1.0026  1.0735
 2650SOL    HW216729  10.394  11.665  12.386  2.3119 -1.0622  0.5570
 2651SOL     OW16730   6.115   9.324  10.002 -0.2054  0.3079  0.2220
 2651SOL    HW116731   6.058   9.310  10.077 -0.7728  0.0114 -0.2585
 2651SOL    HW216732   6.116   9.419   9.989  0.3196  0.4035  0.9225
 2652SOL     OW16733  11.415  12.294  12.590 -0.1192  0.1257 -0.2109
 2652SOL    HW116734  11.391  12.288  12.498 -0.2841  0.1784 -0.1735
 2652SOL    HW216735  11.353  12.236  12.635  0.8114 -0.9301 -0.2715
 2653SOL     OW16736  10.874   8.850   3.991 -0.0736 -0.3406 -0.3871
 2653SOL    HW116737  10.942   8.787   3.966 -0.8088 -0.1921 -3.1385
 2653SOL    HW216738  10.901   8.931   3.947 -1.3270  0.0650 -0.4409
 2654SOL     OW16739   0.144  11.035   5.270 -0.5718 -0.3136 -0.1523
 2654SOL    HW116740   0.153  11.053   5.176 -0.9258 -1.3723 -0.3942
 2654SOL    HW216741   0.159  11.120   5.312  2.4337 -0.3096 -0.9878
 2655SOL     OW16742  11.387   6.012   1.502 -0.2595 -0.3830  0.6062
 2655SOL    HW116743  11.434   6.089   1.534 -1.9440  1.3726 -0.9061
 2655SOL    HW216744  11.418   5.940   1.557  1.6652  1.2803  1.8215
 2656SOL     OW16745   5.216   8.143   6.341 -0.6079 -0.4762 -0.0769
 2656SOL    HW116746   5.280   8.198   6.385  0.4050 -1.3286 -0.4459
 2656SOL    HW216747   5.147   8.128   6.406  0.0810 -0.4196  0.6745
 2657SOL     OW16748   0.421  10.536   4.368 -0.3611 -0.6662  0.6999
 2657SOL    HW116749   0.470  10.482   4.430 -0.5853  0.2856  1.7379
 2657SOL    HW216750   0.401  10.616   4.416 -0.8204 -0.0222 -0.5060
 2658SOL     OW16751   7.152   9.519   8.299 -0.1779  0.7527  0.1154
 2658SOL    HW116752   7.194   9.434   8.296  1.5131  1.5721 -0.3399
 2658SOL    HW216753   7.058   9.499   8.300  0.1826 -1.0981  0.4163
 2659SOL     OW16754  12.014  12.503   5.259 -0.2417  0.2132 -0.0527
 2659SOL    HW116755  12.029  12.431   5.199  0.2658  0.7058 -0.5261
 2659SOL    HW216756  12.086  12.564   5.243 -0.2118  0.4540  0.9006
 2660SOL     OW16757   1.271   5.407   2.707 -0.2977 -0.2911 -0.6201
 2660SOL    HW116758   1.217   5.454   2.771 -0.2526  0.3652 -1.0482
 2660SOL    HW216759   1.291   5.323   2.748  0.5960  0.5208  0.6429
 2661SOL     OW16760   2.684   8.504  11.066  0.4180 -0.4878 -0.5777
 2661SOL    HW116761   2.659   8.595  11.047  2.1421  0.1349 -0.0978
 2661SOL    HW216762   2.677   8.496  11.161 -2.6809 -1.8553 -0.8078
 2662SOL     OW16763  11.257  12.247   2.612 -0.2789  0.4875 -0.2961
 2662SOL    HW116764  11.326  12.185   2.635 -1.5386 -0.7623  0.2380
 2662SOL    HW216765  11.257  12.311   2.683 -0.6866 -0.3995  0.5292
 2663SOL     OW16766   5.727   3.953  11.626  0.6695 -0.5695 -0.5362
 2663SOL    HW116767   5.677   3.989  11.554  0.9590 -0.7837 -0.8466
 2663SOL    HW216768   5.672   3.967  11.703  0.3876 -0.2878 -0.7885
 2664SOL     OW16769   5.268   2.621   2.050 -0.6136 -0.3097  0.0848
 2664SOL    HW116770   5.258   2.601   1.957 -0.4613 -2.2188  0.4325
 2664SOL    HW216771   5.320   2.549   2.084 -1.7030 -0.3157  1.8823
 2665SOL     OW16772   6.565  11.614   6.115  0.0912 -0.2096 -0.1364
 2665SOL    HW116773   6.522  11.690   6.076  0.7056 -1.1147 -2.7444
 2665SOL    HW216774   6.585  11.556   6.042  0.1948 -2.6582  1.6729
 2666SOL     OW16775   3.188   1.993   2.889  0.0827  1.0635 -0.8649
 2666SOL    HW116776   3.123   2.003   2.959 -0.6993 -0.8284 -1.2610
 2666SOL    HW216777   3.256   1.939   2.928 -1.6383 -2.3772 -2.2279
 2667SOL     OW16778   7.480   4.541   8.089  0.7036  0.3287  0.0548
 2667SOL    HW116779   7.454   4.463   8.137 -0.6181  0.1446 -0.9025
 2667SOL    HW216780   7.523   4.597   8.154  1.2572 -0.9873  0.8448
 2668SOL     OW16781  10.010   6.763   7.736  0.1594 -0.2683 -0.2243
 2668SOL    HW116782  10.001   6.845   7.785  1.1917 -0.6398  0.6319
 2668SOL    HW216783  10.060   6.787   7.658 -0.9157  0.1997 -0.7930
 2669SOL     OW16784  11.097   7.007   4.991 -0.1492 -0.0598  0.1140
 2669SOL    HW116785  11.024   7.002   4.929  0.4807 -3.0117 -0.5298
 2669SOL    HW216786  11.175   7.012   4.935  0.2617  1.7630  0.7821
 2670SOL     OW16787   5.860   6.409   2.794 -0.0593  0.2459  0.2686
 2670SOL    HW116788   5.773   6.402   2.834 -0.5749  0.0390 -0.8319
 2670SOL    HW216789   5.844   6.456   2.712  0.7466 -0.4268 -0.2896
 2671SOL     OW16790   4.599  12.005   9.254 -0.5138 -0.7989 -0.6355
 2671SOL    HW116791   4.625  12.074   9.315 -0.9514  0.3260 -1.6745
 2671SOL    HW216792   4.527  11.960   9.298 -1.4672  0.6097 -0.6993
 2672SOL     OW16793   2.599   7.127   3.126 -0.5251  0.0542 -0.3997
 2672SOL    HW116794   2.605   7.220   3.108 -0.2735 -0.0535 -0.8925
 2672SOL    HW216795   2.672   7.109   3.185 -0.2441  0.0731 -0.7368
 2673SOL     OW16796  11.737   9.116   1.948  0.2557 -0.3667 -0.2117
 2673SOL    HW116797  11.698   9.189   1.900  0.3971 -0.5440 -0.6002
 2673SOL    HW216798  11.780   9.062   1.881  1.2822 -0.1097  0.2092
 2674SOL     OW16799   0.192   0.247   3.601  0.2253  0.4024 -0.3877
 2674SOL    HW116800   0.282   0.268   3.625 -0.3059  0.1631  2.0979
 2674SOL    HW216801   0.194   0.155   3.577  0.3345 -0.3242  2.0582
 2675SOL     OW16802   3.684   5.239   4.881 -0.3985  0.5173  0.5326
 2675SOL    HW116803   3.659   5.182   4.954  0.3439  1.0524  1.2301
 2675SOL    HW216804   3.662   5.189   4.803  3.8484 -2.6247  0.9445
 2676SOL     OW16805   2.282   3.282   1.492 -0.1421 -0.4415  0.7152
 2676SOL    HW116806   2.269   3.321   1.578 -0.6298  0.5638  0.2005
 2676SOL    HW216807   2.337   3.205   1.508 -1.0223 -0.8199  2.0429
 2677SOL     OW16808   6.037   2.718   4.402  0.6090  0.0204 -0.0269
 2677SOL    HW116809   6.128   2.687   4.402  1.1589  1.3223 -2.7211
 2677SOL    HW216810   5.984   2.639   4.406  1.8476 -0.8071  0.5936
 2678SOL     OW16811  10.965   2.741   9.317  0.2071 -0.1683 -0.1852
 2678SOL    HW116812  10.929   2.730   9.405  0.5665 -0.3680 -0.0639
 2678SOL    HW216813  11.010   2.826   9.320  1.4631 -0.8211  0.2578
 2679SOL     OW16814  11.948  11.594   9.129  0.1073  0.3356 -0.3145
 2679SOL    HW116815  11.859  11.559   9.126  0.6479 -1.0695 -0.6179
 2679SOL    HW216816  11.973  11.605   9.037  0.4569  0.1752 -0.2404
 2680SOL     OW16817  12.524   4.225   0.158  0.3644 -0.3189 -0.3999
 2680SOL    HW116818  12.429   4.226   0.148  0.1750  1.5868  1.0668
 2680SOL    HW216819  12.551   4.316   0.143  1.7851 -0.5490  0.5485
 2681SOL     OW16820   0.044  11.313   0.466 -0.4189 -0.3137  0.2203
 2681SOL    HW116821   0.123  11.366   0.463 -0.5092 -0.2117 -1.6839
 2681SOL    HW216822  -0.018  11.364   0.518 -0.0938  0.8861 -0.5416
 2682SOL     OW16823   3.693   7.904   9.655  0.3624 -0.7433  0.2027
 2682SOL    HW116824   3.730   7.829   9.609  1.8219 -1.0763  1.8067
 2682SOL    HW216825   3.609   7.872   9.689 -0.1301 -0.8787 -1.0650
 2683SOL     OW16826   0.079   6.861   2.968 -0.3878 -0.5123  0.8613
 2683SOL    HW116827   0.123   6.928   2.917 -0.7211 -0.3466  0.7890
 2683SOL    HW216828   0.097   6.779   2.922 -0.8729 -0.3358  0.3494
 2684SOL     OW16829   1.487   5.547   1.838  0.4632 -0.1885  0.4198
 2684SOL    HW116830   1.408   5.602   1.840  1.2435  0.9954  2.8633
 2684SOL    HW216831   1.457   5.465   1.800 -1.4561  0.8900 -0.6077
 2685SOL     OW16832   4.864   1.303   0.029  0.2406  0.4104 -0.8170
 2685SOL    HW116833   4.895   1.266   0.113 -0.8591  0.4093 -0.3959
 2685SOL    HW216834   4.934   1.282  -0.033  0.4478 -0.8356 -0.1998
 2686SOL     OW16835   0.249   7.421   0.283  0.6016 -0.0654  0.8982
 2686SOL    HW116836   0.166   7.449   0.321 -0.7737 -1.8641 -0.6130
 2686SOL    HW216837   0.292   7.503   0.257 -1.0411  0.8726  0.9932
 2687SOL     OW16838   6.808   4.999   8.840  0.0760  0.0229  1.0341
 2687SOL    HW116839   6.864   5.043   8.775 -0.2635 -0.8519  0.1270
 2687SOL    HW216840   6.847   5.023   8.925  1.7378 -0.4328  0.4359
 2688SOL     OW16841   0.767   3.042   3.603 -0.0170  0.4714  0.5475
 2688SOL    HW116842   0.734   3.043   3.512  0.1890 -1.7988  0.3846
 2688SOL    HW216843   0.858   3.070   3.596  0.9004 -2.3589 -0.4672
 2689SOL     OW16844   9.645   2.270   7.638  0.3436  0.2612 -0.5786
 2689SOL    HW116845   9.565   2.314   7.664 -1.6565 -2.8590 -0.9057
 2689SOL    HW216846   9.643   2.269   7.543 -0.0002 -1.0270 -0.5778
 2690SOL     OW16847   0.781   2.864  10.950 -0.1518  0.5983 -0.2563
 2690SOL    HW116848   0.860   2.916  10.964  0.7282 -0.7490 -0.0357
 2690SOL    HW216849   0.758   2.832  11.038 -0.7154  0.6581 -0.3799
 2691SOL     OW16850   7.604   2.929  12.560  0.0875  0.1831 -0.0319
 2691SOL    HW116851   7.548   2.853  12.542  0.2012  0.4529 -1.6360
 2691SOL    HW216852   7.656   2.939  12.481  0.2987  1.7542  0.2855
 2692SOL     OW16853   6.013   3.532   5.268  0.2749 -0.0008 -0.3759
 2692SOL    HW116854   5.958   3.559   5.342  0.8848 -1.4952  0.6600
 2692SOL    HW216855   6.086   3.595   5.268 -0.8514  1.3866 -1.1556
 2693SOL     OW16856   2.151   3.161   4.828  0.0423 -0.3497 -0.2273
 2693SOL    HW116857   2.132   3.110   4.906 -1.4890  1.4127  0.6386
 2693SOL    HW216858   2.217   3.225   4.857 -1.2009  0.9074 -0.0608
 2694SOL     OW16859   3.502   3.963   1.675  0.0078 -0.3507 -0.4477
 2694SOL    HW116860   3.450   3.883   1.683 -1.0686  0.4336  1.0522
 2694SOL    HW216861   3.592   3.934   1.686 -0.5069 -1.1456  2.6376
 2695SOL     OW16862  10.624   4.431   4.817 -0.4621 -0.8053  0.1640
 2695SOL    HW116863  10.652   4.462   4.903 -1.3673 -0.5364  0.3771
 2695SOL    HW216864  10.649   4.339   4.815 -0.2494 -0.7581  0.6364
 2696SOL     OW16865   6.027   7.885   7.340 -0.4878 -0.4177  0.2747
 2696SOL    HW116866   6.033   7.794   7.308  0.3827 -0.2174 -0.1457
 2696SOL    HW216867   6.014   7.937   7.261  3.8986  0.3347 -0.1767
 2697SOL     OW16868   5.667   1.068   9.713 -0.3465  0.0305  0.4255
 2697SOL    HW116869   5.660   0.997   9.649 -0.2975  0.6328 -0.2650
 2697SOL    HW216870   5.758   1.098   9.705  0.2619 -1.1291  2.1586
 2698SOL     OW16871   4.914   0.640   8.898 -0.2239 -0.0669 -0.3586
 2698SOL    HW116872   4.947   0.707   8.838  0.5799 -1.2455 -1.2796
 2698SOL    HW216873   4.945   0.668   8.984  0.1751  0.6894 -0.7329
 2699SOL     OW16874   9.798   0.484   4.862  0.1317 -0.3864  0.3703
 2699SOL    HW116875   9.706   0.457   4.873  0.0285 -0.1427  0.1288
 2699SOL    HW216876   9.846   0.433   4.927  0.0249 -1.5880 -0.4643
 2700SOL     OW16877  10.580   8.897   3.881 -0.2141  0.7437 -0.1938
 2700SOL    HW116878  10.667   8.859   3.884 -0.1000  0.7685 -2.2281
 2700SOL    HW216879  10.589   8.976   3.828 -1.1322  1.7710  1.0930
 2701SOL     OW16880   4.057   7.392   3.172  0.1941  0.1502  0.0284
 2701SOL    HW116881   4.053   7.336   3.250  2.6821 -0.9562 -0.5203
 2701SOL    HW216882   3.966   7.405   3.146 -0.5737 -1.4856  1.7221
 2702SOL     OW16883  10.519  10.344   5.101  0.7346 -0.5106 -0.2646
 2702SOL    HW116884  10.449  10.396   5.140  1.1570  0.2668 -0.5241
 2702SOL    HW216885  10.584  10.334   5.171  1.1800  0.3077 -0.5420
 2703SOL     OW16886   6.977   7.853   3.240 -0.6672 -0.8081 -0.6682
 2703SOL    HW116887   6.978   7.914   3.313 -1.2849 -1.3782 -0.1673
 2703SOL    HW216888   7.066   7.819   3.235  0.0676  1.1409 -1.8440
 2704SOL     OW16889   3.056   4.282   0.272 -0.0424 -0.3196 -0.0197
 2704SOL    HW116890   3.083   4.231   0.348 -1.5648 -0.8890  0.1783
 2704SOL    HW216891   3.103   4.365   0.281  0.6308 -0.7902  0.9510
 2705SOL     OW16892   3.512   7.795   6.748 -0.4651  0.2136 -0.4269
 2705SOL    HW116893   3.598   7.809   6.787 -0.2504  0.2065 -0.8855
 2705SOL    HW216894   3.489   7.705   6.771 -0.5905  0.3957  0.1537
 2706SOL     OW16895  12.265   5.609   3.395 -0.1041  0.3434 -0.2447
 2706SOL    HW116896  12.331   5.545   3.369  0.2278  0.5402  0.1108
 2706SOL    HW216897  12.270   5.613   3.490 -0.4522  0.5505 -0.2296
 2707SOL     OW16898   2.927   9.376   9.737 -0.3250  0.0239 -0.0648
 2707SOL    HW116899   2.958   9.447   9.794 -2.4776  1.1231 -0.1525
 2707SOL    HW216900   2.835   9.365   9.761 -0.0833 -2.8056 -0.0514
 2708SOL     OW16901   7.097   3.645   7.569 -0.6103 -0.4415 -0.7152
 2708SOL    HW116902   7.069   3.556   7.547 -1.3861  0.1713 -2.3470
 2708SOL    HW216903   7.069   3.698   7.495 -1.2203  1.3907  0.7673
 2709SOL     OW16904   7.902   4.380   8.755 -0.9257  0.5839  0.0518
 2709SOL    HW116905   7.825   4.425   8.720 -3.0953 -1.9185  1.1972
 2709SOL    HW216906   7.912   4.413   8.844 -0.4901  1.1154 -0.1927
 2710SOL     OW16907  11.379   6.015   7.151  0.5753  0.5800 -0.6969
 2710SOL    HW116908  11.456   5.997   7.097 -0.5621 -3.0399 -1.3983
 2710SOL    HW216909  11.405   5.991   7.240 -0.2145 -3.0017 -1.2724
 2711SOL     OW16910   2.189   8.233   9.431  0.2417  0.2824  0.0351
 2711SOL    HW116911   2.162   8.223   9.340 -1.7013  0.3192  0.5652
 2711SOL    HW216912   2.112   8.268   9.476  1.3893  0.9904  1.5604
 2712SOL     OW16913   9.516   4.344   4.503 -0.0034  0.3025 -0.9002
 2712SOL    HW116914   9.426   4.362   4.530  0.5703  1.6932  0.1796
 2712SOL    HW216915   9.508   4.316   4.411 -1.4996  0.5800 -0.8841
 2713SOL     OW16916   8.365   4.742  11.708 -0.5042 -0.0556 -0.2141
 2713SOL    HW116917   8.314   4.823  11.711 -0.6938 -0.2060  1.4238
 2713SOL    HW216918   8.409   4.738  11.792 -0.0218 -1.3636 -0.5052
 2714SOL     OW16919   2.649   9.535   4.696  0.2145  0.2407 -0.2630
 2714SOL    HW116920   2.663   9.629   4.707 -0.3650  0.1707  1.2278
 2714SOL    HW216921   2.556   9.527   4.674  0.4418  0.0627 -1.1953
 2715SOL     OW16922   4.977   6.557  10.039 -0.0719  0.3122 -0.5335
 2715SOL    HW116923   4.922   6.580   9.965 -0.2203  2.3514  0.1600
 2715SOL    HW216924   5.039   6.629  10.047  0.5026 -0.2873  0.8006
 2716SOL     OW16925   1.722   6.772   5.554 -0.5277  0.0298  0.2244
 2716SOL    HW116926   1.762   6.686   5.567 -1.9471 -0.7603 -0.4189
 2716SOL    HW216927   1.789   6.823   5.509 -0.2085 -1.2518 -0.8093
 2717SOL     OW16928  11.414   5.611  11.770  0.7728 -0.5040  0.5260
 2717SOL    HW116929  11.327   5.612  11.810 -0.4253  0.5942 -1.8741
 2717SOL    HW216930  11.461   5.683  11.812 -0.8011  1.3148 -0.6589
 2718SOL     OW16931   7.082  10.974  10.818  0.0131  0.9529 -0.0916
 2718SOL    HW116932   7.164  11.016  10.844  1.0514 -0.2025 -1.3239
 2718SOL    HW216933   7.093  10.956  10.724 -0.2463 -2.2187  0.3728
 2719SOL     OW16934   6.450  11.348   6.904 -0.0588 -1.0322 -0.4499
 2719SOL    HW116935   6.475  11.407   6.833 -0.6093 -0.0386  0.1641
 2719SOL    HW216936   6.468  11.260   6.870  4.6695 -0.4976  0.0235
 2720SOL     OW16937   0.742   3.106   4.767 -0.0626  0.4487  0.4676
 2720SOL    HW116938   0.681   3.180   4.771  1.1643  1.4865  0.3164
 2720SOL    HW216939   0.783   3.104   4.853  1.3540  1.2323 -0.1531
 2721SOL     OW16940  11.671   4.106  11.587  0.0613 -0.3408 -0.1470
 2721SOL    HW116941  11.764   4.090  11.571  0.1629  0.1380 -0.0558
 2721SOL    HW216942  11.669   4.178  11.651 -0.3689  0.9365 -1.5345
 2722SOL     OW16943   5.759   2.454  11.567  0.3355  0.6067  0.2678
 2722SOL    HW116944   5.674   2.440  11.609  0.8818  1.2012  1.6423
 2722SOL    HW216945   5.740   2.454  11.473 -1.0196 -0.2470  0.5186
 2723SOL     OW16946   1.181   3.737   5.356  0.2782 -0.1552 -0.3094
 2723SOL    HW116947   1.205   3.658   5.405  1.0325  1.0630  1.3718
 2723SOL    HW216948   1.248   3.745   5.289  1.7546  0.4633  1.1858
 2724SOL     OW16949   5.502   0.153   5.542 -0.4068  0.4080  0.1291
 2724SOL    HW116950   5.589   0.114   5.537 -0.3933  0.4310  0.1808
 2724SOL    HW216951   5.509   0.234   5.491 -0.5843  0.0742 -0.4334
 2725SOL     OW16952   2.164  10.952  12.399  0.3467 -0.3326 -0.1124
 2725SOL    HW116953   2.083  10.906  12.376  0.4573 -0.4918 -0.1892
 2725SOL    HW216954   2.135  11.035  12.437  0.1511 -0.3159 -0.2946
 2726SOL     OW16955  10.757   8.398  10.777 -0.1688 -0.2327 -0.3265
 2726SOL    HW116956  10.694   8.356  10.836 -0.5243 -0.6349 -0.9804
 2726SOL    HW216957  10.749   8.491  10.796 -1.1130 -0.2558 -0.5270
 2727SOL     OW16958   2.685   9.408   7.983  0.0534 -0.4694 -0.3410
 2727SOL    HW116959   2.732   9.325   7.977 -1.4512 -1.4526  0.7404
 2727SOL    HW216960   2.601   9.391   7.940 -0.4201  0.3704  0.2307
 2728SOL     OW16961  12.250  10.420   8.116 -0.0461  0.3094  0.0551
 2728SOL    HW116962  12.260  10.492   8.054  0.9116 -1.5534 -2.0796
 2728SOL    HW216963  12.336  10.411   8.157  0.0337 -0.0439 -0.1868
 2729SOL     OW16964   7.751   5.327   8.591 -0.8555 -0.5397 -0.0509
 2729SOL    HW116965   7.699   5.367   8.521  0.4786 -1.9756 -1.9973
 2729SOL    HW216966   7.840   5.327   8.557  0.1152 -0.0180  2.3063
 2730SOL     OW16967   8.433   8.019  10.525  0.6374  0.7566 -0.2433
 2730SOL    HW116968   8.371   7.952  10.555 -0.7168  0.5432 -3.1483
 2730SOL    HW216969   8.518   7.974  10.526 -0.2828 -1.2656 -2.4877
 2731SOL     OW16970   2.822   9.365   2.375 -0.1134  0.2434 -0.3689
 2731SOL    HW116971   2.850   9.371   2.467  0.4651 -0.1001 -0.5197
 2731SOL    HW216972   2.889   9.412   2.326 -0.0331 -0.1950 -0.6898
 2732SOL     OW16973   5.679  11.264   1.718  0.5447  0.0814  0.9530
 2732SOL    HW116974   5.628  11.332   1.762 -0.4193  0.8045 -1.1604
 2732SOL    HW216975   5.612  11.206   1.680  1.2601  0.5901 -1.1881
 2733SOL     OW16976   1.148   9.996   9.396 -0.0885  0.2414 -0.2407
 2733SOL    HW116977   1.127   9.965   9.308 -3.4335  1.4717 -0.0275
 2733SOL    HW216978   1.194  10.078   9.382  0.3630 -0.1084 -0.8327
 2734SOL     OW16979  10.643   7.646  10.635 -0.2121  0.2042  0.0371
 2734SOL    HW116980  10.708   7.589  10.675 -1.9218 -0.0161  2.7946
 2734SOL    HW216981  10.648   7.727  10.686 -1.7433  0.3541 -0.0138
 2735SOL     OW16982   2.229   3.935   2.204 -0.1523  0.1718 -0.0390
 2735SOL    HW116983   2.317   3.972   2.205  0.9175 -2.1065  1.9376
 2735SOL    HW216984   2.172   4.007   2.228  1.1372  1.7346 -1.4441
 2736SOL     OW16985   7.769   8.869   1.877 -0.5130 -0.2448  0.0392
 2736SOL    HW116986   7.783   8.954   1.920 -1.2194 -0.3818  0.5391
 2736SOL    HW216987   7.767   8.806   1.949 -2.1693 -0.4190 -0.1223
 2737SOL     OW16988   2.910   9.627  12.176  0.6012 -0.2851 -0.3048
 2737SOL    HW116989   2.879   9.597  12.262 -1.6101  0.4848 -0.7636
 2737SOL    HW216990   2.846   9.693  12.149  1.8581  0.2884 -2.0780
 2738SOL     OW16991   2.353  10.750   6.494 -0.1499 -0.5301  0.1923
 2738SOL    HW116992   2.275  10.694   6.486 -0.3526 -0.1361 -0.7702
 2738SOL    HW216993   2.418  10.708   6.437 -0.4032  0.3616 -0.7803
 2739SOL     OW16994   0.616  11.109   6.823  0.2379  0.3307  0.1751
 2739SOL    HW116995   0.624  11.014   6.821  0.4200  0.3584 -1.6421
 2739SOL    HW216996   0.534  11.128   6.777 -0.0005  1.0500  0.8612
 2740SOL     OW16997   3.491   7.795   8.584 -0.0700 -0.0268 -0.0481
 2740SOL    HW116998   3.397   7.795   8.601 -0.4305 -0.8997 -1.8131
 2740SOL    HW216999   3.509   7.882   8.547  0.2053  0.8244  1.9450
 2741SOL     OW17000   4.028   8.611   7.566 -0.3935 -0.2231 -0.2979
 2741SOL    HW117001   3.955   8.553   7.589 -2.3488  2.5001  0.8120
 2741SOL    HW217002   4.006   8.642   7.478 -0.4731  0.4628 -0.0353
 2742SOL     OW17003   6.645   0.670   1.818 -0.1506  0.1990  0.1307
 2742SOL    HW117004   6.564   0.704   1.856 -0.5441 -2.0369  1.4549
 2742SOL    HW217005   6.622   0.649   1.728 -0.9122  0.0236  0.3602
 2743SOL     OW17006   6.482   5.673   0.087  0.1825 -0.3624  0.1707
 2743SOL    HW117007   6.444   5.604   0.032  1.0005 -1.9654  1.5263
 2743SOL    HW217008   6.568   5.690   0.047  1.1940 -2.2189  1.3815
 2744SOL     OW17009   7.309   1.068   4.628  0.4455 -0.0335  0.2791
 2744SOL    HW117010   7.306   0.990   4.684 -0.7445  0.3173  0.7496
 2744SOL    HW217011   7.255   1.045   4.553  1.9873 -0.4771 -0.7297
 2745SOL     OW17012  11.294  11.906   0.993 -0.5223  0.1663  0.9247
 2745SOL    HW117013  11.217  11.963   0.995 -0.0096  0.8542  2.3873
 2745SOL    HW217014  11.323  11.901   1.084  0.9996 -0.3181  0.4485
 2746SOL     OW17015   9.488   1.585   9.465  0.3370  0.1084  0.3169
 2746SOL    HW117016   9.481   1.568   9.559 -1.9855 -0.4553  0.0983
 2746SOL    HW217017   9.531   1.670   9.459  0.0528  0.3970  1.9082
 2747SOL     OW17018   4.116   0.469   8.866 -0.0795  0.2956 -0.1944
 2747SOL    HW117019   4.211   0.457   8.867 -0.0707  0.3552  0.6625
 2747SOL    HW217020   4.091   0.466   8.958 -0.3775  4.2776  0.0390
 2748SOL     OW17021   5.866   7.590   1.506  0.4937  0.3679 -0.3791
 2748SOL    HW117022   5.810   7.596   1.583  0.0096 -1.4127 -0.5662
 2748SOL    HW217023   5.810   7.556   1.437  1.3295  0.3990 -1.1038
 2749SOL     OW17024   8.566   8.211   3.761  0.0528  0.5061  0.4552
 2749SOL    HW117025   8.560   8.299   3.724 -1.4762  0.3121  0.1655
 2749SOL    HW217026   8.513   8.157   3.702  0.1535 -0.4181  1.1964
 2750SOL     OW17027   7.212   4.959   4.057 -0.1305 -0.0751  0.0926
 2750SOL    HW117028   7.220   4.917   4.143  3.1728  0.7923  0.3693
 2750SOL    HW217029   7.162   4.896   4.004 -1.2403 -1.1618  2.2854
 2751SOL     OW17030   4.938   9.819   1.640 -0.0348 -0.3542  0.6572
 2751SOL    HW117031   4.978   9.820   1.727  1.9026  0.2010 -0.1803
 2751SOL    HW217032   4.979   9.746   1.595 -1.0524 -0.6632  0.2122
 2752SOL     OW17033  11.377   0.650   9.004  0.2718  0.7726 -0.0951
 2752SOL    HW117034  11.445   0.682   9.064  0.3838  0.5564 -0.1055
 2752SOL    HW217035  11.320   0.596   9.058 -0.5855  1.9195  0.1703
 2753SOL     OW17036   5.415   3.570   9.317  0.0854  0.0201  0.3786
 2753SOL    HW117037   5.504   3.565   9.353 -0.0093 -0.8422  0.5247
 2753SOL    HW217038   5.374   3.487   9.343 -0.0230 -0.5887 -1.6053
 2754SOL     OW17039   5.845   9.672   5.537 -0.0921 -0.4210  0.0694
 2754SOL    HW117040   5.856   9.765   5.556 -0.8569  0.1306 -1.8951
 2754SOL    HW217041   5.920   9.650   5.482 -1.0201 -0.3658 -1.2722
 2755SOL     OW17042   1.087   8.456   0.903  0.1177 -0.2229 -0.0333
 2755SOL    HW117043   1.108   8.382   0.961 -0.0018 -0.5452 -0.3943
 2755SOL    HW217044   0.992   8.452   0.893 -0.0035  0.5509  0.6931
 2756SOL     OW17045   6.728   3.952   9.324 -0.5729  0.1326  0.0841
 2756SOL    HW117046   6.807   3.922   9.371 -0.9474 -0.3030  0.4476
 2756SOL    HW217047   6.664   3.883   9.340 -0.6109 -0.2087 -1.3817
 2757SOL     OW17048   3.592   3.300   4.893  0.0211  0.7434  0.2378
 2757SOL    HW117049   3.567   3.275   4.804  0.2642  0.9094  0.1232
 2757SOL    HW217050   3.529   3.369   4.917 -1.7895 -1.1170  1.2063
 2758SOL     OW17051   4.254   4.599  10.021 -0.1160  0.1280 -0.2645
 2758SOL    HW117052   4.277   4.524   9.965  0.3160  0.4732 -0.5627
 2758SOL    HW217053   4.259   4.564  10.110 -0.2695 -0.2882 -0.4123
 2759SOL     OW17054   5.154  12.246   0.054 -0.3596 -0.3500  0.8117
 2759SOL    HW117055   5.200  12.183  -0.002  1.1949  0.8767  0.6468
 2759SOL    HW217056   5.065  12.248   0.019  0.1953 -0.6889 -0.6869
 2760SOL     OW17057   6.637   8.228   4.137  0.1359  0.1309  0.2027
 2760SOL    HW117058   6.571   8.273   4.189 -0.3880 -0.4357  0.0374
 2760SOL    HW217059   6.625   8.261   4.048 -0.8816 -1.0111 -0.1065
 2761SOL     OW17060  12.012   8.915   0.080 -0.3904 -0.2278  0.1866
 2761SOL    HW117061  11.952   8.981   0.043 -0.5797 -0.6164 -0.2065
 2761SOL    HW217062  12.030   8.856   0.007  0.2927 -0.2485  0.3666
 2762SOL     OW17063   4.492   7.841   1.106 -0.1239 -0.3260 -0.0409
 2762SOL    HW117064   4.459   7.862   1.193  0.5704 -1.1895  0.4474
 2762SOL    HW217065   4.419   7.859   1.047 -0.5398  0.4422  0.6937
 2763SOL     OW17066   2.055   5.759   2.997  0.6036 -0.2044 -0.0448
 2763SOL    HW117067   2.098   5.844   2.992  0.4840 -0.1944 -1.5569
 2763SOL    HW217068   2.115   5.699   2.952  0.5503 -0.8733  0.7384
 2764SOL     OW17069  10.375   0.230   6.106  0.3930  0.1031  0.0126
 2764SOL    HW117070  10.318   0.303   6.083  0.0820 -0.9464 -3.0474
 2764SOL    HW217071  10.453   0.270   6.143 -0.1619  1.9246 -0.6915
 2765SOL     OW17072   8.540   6.825   9.483 -0.0150 -0.4474 -0.5688
 2765SOL    HW117073   8.537   6.811   9.578  0.6509  0.4775 -0.3922
 2765SOL    HW217074   8.557   6.739   9.446  3.1931 -0.3796  0.3932
 2766SOL     OW17075   8.181   2.140  11.781 -0.5673  0.5840  0.4117
 2766SOL    HW117076   8.126   2.166  11.855  0.3941  0.4540  1.1935
 2766SOL    HW217077   8.144   2.057  11.752 -0.0290 -0.1461  1.7516
 2767SOL     OW17078  10.286   0.767   1.198  0.3317 -0.3404  0.4169
 2767SOL    HW117079  10.201   0.750   1.238 -0.2598  1.2183 -0.1160
 2767SOL    HW217080  10.277   0.853   1.157  1.7163 -0.7540 -0.8661
 2768SOL     OW17081   7.084   2.435   9.082  0.5536 -0.4491 -0.3642
 2768SOL    HW117082   7.149   2.505   9.071 -0.1458  0.4222  0.7778
 2768SOL    HW217083   7.000   2.479   9.068  0.0844 -0.9854  0.6571
 2769SOL     OW17084  11.530  12.421   2.960  0.4883 -0.1182  0.0267
 2769SOL    HW117085  11.562  12.332   2.976 -1.1918 -0.4715  1.8006
 2769SOL    HW217086  11.558  12.442   2.871  1.3819 -2.2082 -0.2230
 2770SOL     OW17087   0.433   9.302  10.752  0.5822  0.1445  0.1270
 2770SOL    HW117088   0.362   9.252  10.711 -0.0612  0.3764  0.9229
 2770SOL    HW217089   0.475   9.239  10.811  1.6366 -0.2469 -0.9952
 2771SOL     OW17090   5.476   5.164   2.496 -0.0570 -0.2878 -0.0182
 2771SOL    HW117091   5.474   5.082   2.545  0.6214 -0.6800 -0.6285
 2771SOL    HW217092   5.566   5.171   2.464 -0.3462  0.2221 -0.7544
 2772SOL     OW17093   3.909   5.911   8.634  1.0811  0.0518 -0.0619
 2772SOL    HW117094   3.949   5.885   8.717  0.3015 -0.1652  0.2588
 2772SOL    HW217095   3.847   5.840   8.614  1.6038 -0.1279 -1.0727
 2773SOL     OW17096   5.032   5.353  10.412 -0.0933 -0.4566  0.4859
 2773SOL    HW117097   4.996   5.436  10.443 -1.9577 -0.8700 -0.3963
 2773SOL    HW217098   5.060   5.372  10.322 -0.5334 -0.7694  0.2791
 2774SOL     OW17099  12.186   0.239   6.740  0.1765 -0.1205 -0.3194
 2774SOL    HW117100  12.188   0.143   6.736  1.5062 -0.0922 -0.6844
 2774SOL    HW217101  12.134   0.265   6.664  0.1199 -0.5434 -0.4295
 2775SOL     OW17102   9.763  11.509   4.271  0.5680 -0.4602 -0.2996
 2775SOL    HW117103   9.827  11.486   4.203  1.5338 -1.3882  0.9007
 2775SOL    HW217104   9.729  11.594   4.242  1.1638 -0.6824 -1.7894
 2776SOL     OW17105   9.217   2.885  10.410  0.1854 -0.1415  0.6873
 2776SOL    HW117106   9.178   2.956  10.358 -0.2526  0.4128  1.7543
 2776SOL    HW217107   9.230   2.923  10.497  0.5553 -1.1713  1.0950
 2777SOL     OW17108  11.172   3.632   0.294  0.6804 -0.6122 -0.1771
 2777SOL    HW117109  11.211   3.710   0.332 -0.2113  0.1155 -0.7170
 2777SOL    HW217110  11.225   3.560   0.328  0.2042  0.0246  2.1211
 2778SOL     OW17111   4.905   9.968   3.590  0.4262  0.1658 -0.3926
 2778SOL    HW117112   4.818   9.941   3.560 -0.3966  0.0567  1.9047
 2778SOL    HW217113   4.896  10.061   3.610  0.6471 -0.0070  0.5200
 2779SOL     OW17114   7.385   6.657   0.151  0.3335  0.2722  0.0489
 2779SOL    HW117115   7.328   6.625   0.222  2.7090  0.6931  2.2966
 2779SOL    HW217116   7.331   6.720   0.104 -1.1248  0.5753  1.9752
 2780SOL     OW17117   5.386   5.760  10.696 -0.3233  0.7480  0.1759
 2780SOL    HW117118   5.429   5.794  10.775  0.3018 -0.2360  0.2724
 2780SOL    HW217119   5.423   5.673  10.685 -0.6309  0.7627 -1.0410
 2781SOL     OW17120   3.172   4.784   9.553  0.1058 -0.5960  0.3481
 2781SOL    HW117121   3.201   4.798   9.463  0.8814  1.3000  0.8559
 2781SOL    HW217122   3.253   4.783   9.604 -0.4336  0.0126  1.2281
 2782SOL     OW17123   6.273   6.448   6.865  0.0527  0.1265  0.3153
 2782SOL    HW117124   6.292   6.355   6.849  0.4043  0.4954 -1.7874
 2782SOL    HW217125   6.194   6.464   6.813  0.4317  1.1693  0.0493
 2783SOL     OW17126   8.041  10.745   2.400 -0.1279 -0.7480 -0.2977
 2783SOL    HW117127   8.079  10.778   2.319 -0.8833  1.3063  0.1087
 2783SOL    HW217128   8.103  10.679   2.431  2.1784  1.1396 -0.6104
 2784SOL     OW17129   5.198   1.924   5.074 -0.6287  0.4266 -0.8150
 2784SOL    HW117130   5.132   1.957   5.135 -1.0623 -2.7378  0.6207
 2784SOL    HW217131   5.172   1.834   5.057  0.9319  0.4018 -3.7588
 2785SOL     OW17132  11.009  12.580   4.763 -0.0442 -0.3039  0.0567
 2785SOL    HW117133  10.949  12.514   4.796  0.6631 -0.6056  0.7869
 2785SOL    HW217134  11.096  12.544   4.781  0.3529  0.8864  0.6008
 2786SOL     OW17135   4.046   2.997   3.446  0.2604 -0.8572 -0.2651
 2786SOL    HW117136   4.107   3.041   3.505 -1.0135 -0.8403  1.1035
 2786SOL    HW217137   4.063   2.904   3.459  1.5159 -0.8571 -1.6019
 2787SOL     OW17138   1.714  12.396   3.728 -0.5916 -0.3033  0.6138
 2787SOL    HW117139   1.629  12.403   3.684 -0.4485  0.6503  0.4608
 2787SOL    HW217140   1.765  12.338   3.672 -0.1374  1.5323 -0.9899
 2788SOL     OW17141   7.064   7.138  12.568  0.2931  0.2751 -0.4712
 2788SOL    HW117142   7.009   7.162  12.643  0.2639  1.0002 -0.7156
 2788SOL    HW217143   7.008   7.081  12.515  0.4757 -0.6294  0.2892
 2789SOL     OW17144  11.436   1.316   8.190  0.3878  0.0214  0.2695
 2789SOL    HW117145  11.417   1.334   8.098  1.0350 -1.7290 -0.2467
 2789SOL    HW217146  11.380   1.376   8.239 -0.4860  0.4949 -1.2599
 2790SOL     OW17147   5.230   3.491   0.864  0.7513 -0.6748 -0.0652
 2790SOL    HW117148   5.204   3.533   0.946 -0.5874 -0.6400 -0.4700
 2790SOL    HW217149   5.286   3.418   0.890  2.3058  0.7489  0.7105
 2791SOL     OW17150   2.868   9.336   0.020  0.2004 -0.0345 -0.4992
 2791SOL    HW117151   2.947   9.359   0.069  0.8270  1.0632 -1.9567
 2791SOL    HW217152   2.797   9.381   0.066  0.8899  1.7096 -1.0653
 2792SOL     OW17153   8.091  11.451   5.049 -0.0534 -0.3304 -0.2258
 2792SOL    HW117154   8.167  11.432   4.994 -0.6550 -1.9838 -0.5728
 2792SOL    HW217155   8.022  11.474   4.987 -0.5063 -1.3826 -0.1482
 2793SOL     OW17156  10.761   7.460  11.540  0.1040 -0.3116  0.1053
 2793SOL    HW117157  10.668   7.439  11.553 -0.4028  0.3995 -1.9757
 2793SOL    HW217158  10.778   7.531  11.601 -0.8790 -0.0979  0.1564
 2794SOL     OW17159   1.259   5.628   8.818 -0.3844  0.0401 -0.1509
 2794SOL    HW117160   1.292   5.592   8.736 -3.0571 -3.5343  0.1046
 2794SOL    HW217161   1.329   5.611   8.881  0.3441 -0.2929 -1.0214
 2795SOL     OW17162   5.610   0.258  12.474  0.6508 -0.2754  0.7630
 2795SOL    HW117163   5.576   0.245  12.562  1.5106 -1.1845  0.9766
 2795SOL    HW217164   5.623   0.353  12.468 -1.1338  0.0154  0.9334
 2796SOL     OW17165   6.272   0.560   5.658  0.0266  0.1294 -0.1183
 2796SOL    HW117166   6.242   0.490   5.601  0.9240 -1.0347  0.8070
 2796SOL    HW217167   6.367   0.558   5.653  0.0761  1.9801 -0.8764
 2797SOL     OW17168  10.474   5.815  10.598  0.1017 -0.1150  0.2853
 2797SOL    HW117169  10.387   5.854  10.602 -0.0583 -0.5427  0.9614
 2797SOL    HW217170  10.460   5.728  10.561  0.1119 -0.5653  1.3318
 2798SOL     OW17171   0.563   0.413   1.203 -0.3879  0.6324 -0.4058
 2798SOL    HW117172   0.596   0.375   1.284 -0.0087  2.0515  0.1494
 2798SOL    HW217173   0.567   0.342   1.139 -0.4561 -0.4416  0.7482
 2799SOL     OW17174   7.793   9.064   6.104 -0.1052  0.0694 -0.2696
 2799SOL    HW117175   7.756   8.978   6.121  0.7347 -0.3671 -0.6012
 2799SOL    HW217176   7.725   9.125   6.132  0.2994 -0.6223  2.5296
 2800SOL     OW17177   1.170   1.806   6.616  0.3852  0.0070  0.1745
 2800SOL    HW117178   1.204   1.883   6.570 -0.2646  1.0174  1.3258
 2800SOL    HW217179   1.219   1.803   6.698  1.3314 -1.6104 -0.4234
 2801SOL     OW17180   6.651  11.449   4.058 -0.7189 -0.0857 -0.2081
 2801SOL    HW117181   6.688  11.426   3.973 -1.4054  1.0667 -0.8465
 2801SOL    HW217182   6.705  11.401   4.122  0.7719  0.2205 -1.1869
 2802SOL     OW17183   1.572   4.102   8.124  0.3272 -0.2372  0.6910
 2802SOL    HW117184   1.599   4.193   8.115  0.3164 -0.3131 -0.2100
 2802SOL    HW217185   1.558   4.090   8.218  2.1487  0.1576  1.0401
 2803SOL     OW17186   8.374   6.832   5.073 -0.2508 -0.5698 -0.1869
 2803SOL    HW117187   8.416   6.857   4.991 -1.0434 -0.9121 -0.7109
 2803SOL    HW217188   8.291   6.792   5.047 -0.2086 -1.3134  0.7499
 2804SOL     OW17189  11.251   1.507   3.088 -0.4616 -0.7813 -0.2567
 2804SOL    HW117190  11.319   1.559   3.131  0.4800 -1.5054 -0.8287
 2804SOL    HW217191  11.179   1.505   3.151  0.5469 -1.0850  0.9257
 2805SOL     OW17192   3.978   2.541   6.647 -0.0519  0.0548 -0.5570
 2805SOL    HW117193   3.981   2.486   6.569 -0.6999 -0.5516 -0.1649
 2805SOL    HW217194   4.070   2.550   6.673  0.1843  0.4402 -1.5035
 2806SOL     OW17195  11.225   6.263  10.709  0.0743 -0.0271  0.5280
 2806SOL    HW117196  11.199   6.351  10.736 -1.2821 -0.5105  0.8727
 2806SOL    HW217197  11.314   6.273  10.676 -0.2513  1.5812  0.0543
 2807SOL     OW17198   8.804   4.146   0.002 -0.2182  0.8840 -0.3454
 2807SOL    HW117199   8.798   4.143  -0.094  1.2023 -0.7696 -0.4184
 2807SOL    HW217200   8.870   4.213   0.019 -0.0894  0.8076 -0.5430
 2808SOL     OW17201   8.119  10.742   7.681  0.2961  0.3968  0.1322
 2808SOL    HW117202   8.100  10.709   7.768 -0.9207  0.3416 -0.1318
 2808SOL    HW217203   8.049  10.707   7.626 -0.1781  2.1477 -0.4487
 2809SOL     OW17204  12.354   8.751   1.454 -0.4121  0.1333  0.2929
 2809SOL    HW117205  12.281   8.710   1.409 -1.4134 -0.3017  2.2351
 2809SOL    HW217206  12.352   8.715   1.542  1.5702  0.8394  0.6816
 2810SOL     OW17207   9.867   4.687  12.479 -0.6453 -0.0368 -0.1345
 2810SOL    HW117208   9.821   4.724  12.554 -0.7085  1.5138 -0.8977
 2810SOL    HW217209   9.798   4.671  12.414 -0.3399  0.6849 -0.6496
 2811SOL     OW17210   4.792   9.142  11.967  0.8028  0.2304  0.1180
 2811SOL    HW117211   4.730   9.214  11.957  1.2340  0.2882 -3.4419
 2811SOL    HW217212   4.738   9.064  11.966  0.5123  0.3873  1.6157
 2812SOL     OW17213   1.215  10.844   1.659 -0.1049 -0.5185 -0.1078
 2812SOL    HW117214   1.209  10.909   1.729  0.1817 -1.3109  0.6673
 2812SOL    HW217215   1.129  10.800   1.659  0.3266 -1.3820  0.6129
 2813SOL     OW17216   0.045   9.903   2.166  0.3335  0.0695  0.5603
 2813SOL    HW117217  -0.006   9.931   2.090  1.7220 -0.2691 -0.5357
 2813SOL    HW217218   0.003   9.822   2.195  1.6944 -1.6631 -1.9378
 2814SOL     OW17219   8.537   1.059  10.762 -0.1641 -0.4749  0.8760
 2814SOL    HW117220   8.547   1.048  10.856  2.2634 -1.8130  0.5335
 2814SOL    HW217221   8.564   0.975  10.724  0.1755  0.4320 -1.0546
 2815SOL     OW17222   3.549   8.352   1.322  0.1745  0.3902  0.8514
 2815SOL    HW117223   3.489   8.277   1.325  1.6458 -0.8602  0.0417
 2815SOL    HW217224   3.617   8.332   1.386  1.8197 -0.1280 -0.9587
 2816SOL     OW17225   1.797   8.653   7.333  0.1078  0.2887 -0.3869
 2816SOL    HW117226   1.704   8.634   7.341  0.4402 -2.1382 -1.2357
 2816SOL    HW217227   1.801   8.745   7.307 -2.1794 -0.1167 -2.5647
 2817SOL     OW17228   5.578   3.097   9.320 -0.6867 -0.3965 -0.4413
 2817SOL    HW117229   5.552   3.165   9.383  0.8040  0.4815 -0.7357
 2817SOL    HW217230   5.520   3.111   9.245 -0.1139  0.8461 -0.6770
 2818SOL     OW17231   2.773   0.144   7.437 -0.3480 -0.1537 -0.4869
 2818SOL    HW117232   2.820   0.065   7.461  0.0399  0.5377  1.1839
 2818SOL    HW217233   2.830   0.216   7.466 -1.1932  0.7318 -0.9393
 2819SOL     OW17234   6.062   9.646   5.330 -0.2609  0.2274  0.0770
 2819SOL    HW117235   6.130   9.588   5.296 -0.0431 -0.0746  0.9938
 2819SOL    HW217236   6.029   9.692   5.253  3.3478  3.0214 -0.0905
 2820SOL     OW17237   8.923   4.919   8.117  0.1500 -0.2378  0.0424
 2820SOL    HW117238   8.875   5.001   8.129  0.9037  0.9927 -3.8503
 2820SOL    HW217239   8.871   4.854   8.164 -3.3795  1.5943 -0.9791
 2821SOL     OW17240  11.871   2.396  11.269 -0.1545  0.5109 -0.1200
 2821SOL    HW117241  11.859   2.487  11.241 -1.4520 -0.2246 -2.2025
 2821SOL    HW217242  11.823   2.345  11.204 -0.4022 -1.6192  1.6217
 2822SOL     OW17243   7.562   8.931   2.136 -0.5869 -0.3391  0.6518
 2822SOL    HW117244   7.573   9.023   2.112 -0.9135  0.4992  3.3717
 2822SOL    HW217245   7.472   8.910   2.111 -1.3141  0.8444  2.1637
 2823SOL     OW17246   1.259   3.518  10.026  0.4084 -0.0395  0.2673
 2823SOL    HW117247   1.289   3.512  10.117  1.6335  1.7726  0.0303
 2823SOL    HW217248   1.167   3.492  10.030  0.1022  1.0788  2.2390
 2824SOL     OW17249   0.906   9.042   3.765 -0.5893 -0.1613 -0.1806
 2824SOL    HW117250   0.999   9.023   3.755 -0.1161  1.3376  0.9331
 2824SOL    HW217251   0.864   8.997   3.692  1.0758 -0.3912 -1.0469
 2825SOL     OW17252   5.013   7.741   5.467 -0.2004  0.1796  0.1220
 2825SOL    HW117253   5.079   7.718   5.532 -0.6632  0.6519  0.7704
 2825SOL    HW217254   5.023   7.675   5.398 -0.3906 -0.9600  1.1493
 2826SOL     OW17255  10.169   5.049   3.695 -0.1066  0.1237  0.3186
 2826SOL    HW117256  10.221   4.986   3.646 -1.1826  0.3642 -1.2250
 2826SOL    HW217257  10.103   4.996   3.740 -1.3446  0.1050 -1.3998
 2827SOL     OW17258   7.250   2.653   8.922  0.8731 -0.1831 -0.7590
 2827SOL    HW117259   7.277   2.742   8.901 -0.7574  0.2595 -1.0613
 2827SOL    HW217260   7.187   2.630   8.854  0.0527 -0.9640  0.2312
 2828SOL     OW17261  12.294   1.282   2.161 -0.3547 -0.4990 -0.3109
 2828SOL    HW117262  12.223   1.279   2.097 -0.1610 -0.4410 -0.5264
 2828SOL    HW217263  12.362   1.225   2.125 -0.3324 -0.6358 -0.0551
 2829SOL     OW17264   0.012   7.909   0.990 -0.0130 -0.0606  0.4063
 2829SOL    HW117265   0.071   7.886   1.062  0.6563  1.2816  0.3260
 2829SOL    HW217266   0.040   7.997   0.964  0.1536 -0.7292 -1.9007
 2830SOL     OW17267   6.809   4.898   1.919 -0.1633  0.8359  0.1234
 2830SOL    HW117268   6.902   4.894   1.895  0.0573  0.2229  1.0137
 2830SOL    HW217269   6.805   4.858   2.006 -1.2313  1.0824  0.2043
 2831SOL     OW17270   5.966   5.093   8.555 -0.4553 -0.4792  0.4216
 2831SOL    HW117271   6.007   5.087   8.468 -0.5087  1.3019  0.2361
 2831SOL    HW217272   6.033   5.135   8.609 -1.3032  0.7188  0.5859
 2832SOL     OW17273   3.621  11.250  12.540  0.3247 -0.0011  0.2131
 2832SOL    HW117274   3.556  11.308  12.500 -1.3716 -0.8617  1.6399
 2832SOL    HW217275   3.584  11.227  12.625  2.9729  0.2893  1.5452
 2833SOL     OW17276  11.752  10.394   1.586  0.1008 -0.3392  0.7799
 2833SOL    HW117277  11.704  10.311   1.584  0.4556 -0.5690  1.4393
 2833SOL    HW217278  11.691  10.455   1.629 -0.2973 -0.1580 -0.0203
 2834SOL     OW17279   6.876  12.455   5.627  0.0188  0.6908  0.1061
 2834SOL    HW117280   6.929  12.406   5.690 -1.8267 -2.5246 -0.5869
 2834SOL    HW217281   6.802  12.487   5.678 -1.6965 -2.2707 -0.2573
 2835SOL     OW17282   3.362   1.781   0.918 -0.3333  0.3342 -0.4239
 2835SOL    HW117283   3.267   1.784   0.915 -0.5497 -2.1550  1.1478
 2835SOL    HW217284   3.383   1.688   0.923  2.0607  0.8686  1.3052
 2836SOL     OW17285  10.216   7.025  11.901  0.3840  0.3914  0.4066
 2836SOL    HW117286  10.151   7.090  11.876  0.1049  0.1260  0.4435
 2836SOL    HW217287  10.298   7.058  11.864  0.0212  0.1126 -0.6808
 2837SOL     OW17288  11.571   0.203  10.492 -0.3554  0.3433  0.0440
 2837SOL    HW117289  11.523   0.282  10.517 -0.5886  0.0982  0.3941
 2837SOL    HW217290  11.638   0.192  10.559 -0.5034  0.0935  0.1554
 2838SOL     OW17291   1.242   6.144   0.758 -0.0328  0.5075 -0.3598
 2838SOL    HW117292   1.202   6.057   0.769 -0.6197  0.6505 -1.2613
 2838SOL    HW217293   1.327   6.136   0.800 -0.3740 -0.2820  0.2260
 2839SOL     OW17294   5.025   2.270   7.901 -0.5006 -0.2662  0.1249
 2839SOL    HW117295   4.936   2.267   7.937 -0.8897  1.4475 -0.6212
 2839SOL    HW217296   5.040   2.362   7.881  0.9988 -0.7000 -0.9117
 2840SOL     OW17297   0.349   6.629   9.985  0.0949  0.0278 -0.1585
 2840SOL    HW117298   0.405   6.567   9.938 -0.3805 -1.0080  0.5846
 2840SOL    HW217299   0.387   6.715   9.967  0.9164 -0.4940 -1.0268
 2841SOL     OW17300  10.911   1.454   1.055  0.1109 -0.4869 -0.1440
 2841SOL    HW117301  10.932   1.507   1.132  0.6308  0.2354 -0.7617
 2841SOL    HW217302  10.965   1.376   1.063 -0.6738 -0.9577  0.7871
 2842SOL     OW17303   3.226   5.905   2.958 -0.4295 -0.8083  0.1343
 2842SOL    HW117304   3.258   5.894   3.047 -0.1614  0.9079  0.2781
 2842SOL    HW217305   3.303   5.892   2.903 -0.0677  0.4188  0.3144
 2843SOL     OW17306  12.457   8.600   7.558 -1.1004  0.8112 -0.1437
 2843SOL    HW117307  12.433   8.545   7.483 -1.9811  0.2780  0.5120
 2843SOL    HW217308  12.416   8.684   7.540 -0.8018  0.8789 -0.5397
 2844SOL     OW17309   5.082  12.070  11.394 -0.7796  0.4354 -0.1414
 2844SOL    HW117310   5.053  11.990  11.438 -1.9638  0.6416 -0.5063
 2844SOL    HW217311   5.107  12.041  11.306  1.9828 -0.0455  0.7086
 2845SOL     OW17312   6.918  11.940  11.777 -0.1849  0.1169  0.3619
 2845SOL    HW117313   6.845  11.977  11.728  0.2077 -0.7946 -0.9687
 2845SOL    HW217314   6.996  11.968  11.728  0.4671  1.6743  2.1365
 2846SOL     OW17315   5.436   3.750   1.324 -0.6301 -0.7954  0.0993
 2846SOL    HW117316   5.495   3.822   1.305 -1.8304 -0.1076 -1.1500
 2846SOL    HW217317   5.492   3.685   1.368  0.8356  0.1754 -0.2466
 2847SOL     OW17318   0.988   7.154   6.434  0.1050 -0.8984 -0.2591
 2847SOL    HW117319   1.074   7.125   6.404  0.5850  0.6972 -0.5443
 2847SOL    HW217320   0.932   7.147   6.356 -0.1060 -2.1981 -0.0027
 2848SOL     OW17321   2.751   6.840   3.834  0.1682  0.1652 -0.0909
 2848SOL    HW117322   2.816   6.902   3.868 -0.9648  1.4518 -0.1782
 2848SOL    HW217323   2.771   6.758   3.878  2.1119  0.4084 -0.4273
 2849SOL     OW17324   3.083   2.556  10.207 -0.0038 -0.4964  0.4002
 2849SOL    HW117325   3.084   2.487  10.140 -0.1760 -0.7763  0.6818
 2849SOL    HW217326   3.026   2.522  10.275  3.1149 -1.9802  2.5386
 2850SOL     OW17327   6.441   7.080  10.577  0.2735  0.4045 -0.4694
 2850SOL    HW117328   6.526   7.039  10.564  0.9529  1.3070  0.9087
 2850SOL    HW217329   6.451   7.131  10.657 -1.1870  1.5490 -0.9793
 2851SOL     OW17330   3.597   1.253   8.627  0.2948 -0.1306 -0.1214
 2851SOL    HW117331   3.622   1.342   8.654 -1.2920  0.2519  0.2156
 2851SOL    HW217332   3.672   1.199   8.649  1.3461  1.1414 -0.4249
 2852SOL     OW17333  10.612   2.019   9.008 -0.7253  0.3978  0.3097
 2852SOL    HW117334  10.633   2.106   9.043 -0.9648 -0.2422  2.1544
 2852SOL    HW217335  10.567   2.037   8.926  0.8189  1.9650 -0.2572
 2853SOL     OW17336  11.783   7.390  10.265 -0.1605  0.1415 -0.7432
 2853SOL    HW117337  11.813   7.303  10.238 -1.5872 -0.3982 -0.6844
 2853SOL    HW217338  11.833   7.409  10.345 -1.5212 -1.7178  0.6370
 2854SOL     OW17339   0.748   0.004   6.186  0.4221  0.4704  0.0346
 2854SOL    HW117340   0.665   0.004   6.234  2.1939  1.2198  3.4448
 2854SOL    HW217341   0.761   0.096   6.162  0.1907  0.3220 -0.6679
 2855SOL     OW17342   4.583   5.313   2.749 -0.0008  0.0775  0.4123
 2855SOL    HW117343   4.538   5.396   2.759  1.7429  0.8859  2.2919
 2855SOL    HW217344   4.598   5.305   2.655 -0.6906  1.5955  0.1492
 2856SOL     OW17345  12.476   3.907   6.753  0.5727  0.5631  0.5265
 2856SOL    HW117346  12.458   3.817   6.726 -0.7847  0.9909 -0.0632
 2856SOL    HW217347  12.409   3.927   6.818  1.0259  1.0772  0.8486
 2857SOL     OW17348   8.831  10.596   3.550 -0.2134  0.0546 -0.6240
 2857SOL    HW117349   8.769  10.632   3.486 -0.4951  1.7492  0.5202
 2857SOL    HW217350   8.868  10.520   3.507 -1.7976  0.0172 -2.0428
 2858SOL     OW17351   9.757  10.519  10.930 -0.0699 -0.5915  0.3316
 2858SOL    HW117352   9.755  10.508  10.834 -0.3939 -0.7836  0.3592
 2858SOL    HW217353   9.694  10.455  10.963  0.0883 -0.5699  0.6813
 2859SOL     OW17354   5.995   0.764   4.289  0.4667 -0.0726 -0.4911
 2859SOL    HW117355   5.997   0.859   4.275  2.2001 -0.2882 -1.9911
 2859SOL    HW217356   6.024   0.753   4.380  0.0407  0.8189 -0.2251
 2860SOL     OW17357   3.731   7.414   3.490  0.1144  0.2122  0.1259
 2860SOL    HW117358   3.750   7.369   3.573 -1.7345  0.9191  0.9623
 2860SOL    HW217359   3.764   7.353   3.423  1.5308 -0.4301  1.3327
 2861SOL     OW17360  11.572   6.609   4.100 -0.2284 -0.0624  0.1016
 2861SOL    HW117361  11.628   6.580   4.028  0.1899  1.3355 -0.1688
 2861SOL    HW217362  11.516   6.534   4.118 -1.3679 -0.0010 -2.6912
 2862SOL     OW17363   5.715   4.450   5.964 -1.1406  0.0668  0.1373
 2862SOL    HW117364   5.716   4.398   6.045  0.7517  0.1963  0.2603
 2862SOL    HW217365   5.797   4.426   5.921 -3.1598 -1.8398 -2.9996
 2863SOL     OW17366   9.463   8.951   2.447  0.3985  0.5480 -0.5032
 2863SOL    HW117367   9.388   8.914   2.494  0.0955  0.4162 -1.0698
 2863SOL    HW217368   9.475   9.038   2.485  2.2480 -0.7097  2.1091
 2864SOL     OW17369   5.295  12.050   7.411 -0.0801  0.0280 -0.7428
 2864SOL    HW117370   5.227  12.093   7.360 -0.4423  0.4470  0.0716
 2864SOL    HW217371   5.370  12.044   7.352 -0.6583  0.0123 -1.4856
 2865SOL     OW17372  12.197   4.354   9.465  0.4082  0.1605 -0.1864
 2865SOL    HW117373  12.283   4.350   9.423  1.3505 -0.6002  1.7047
 2865SOL    HW217374  12.206   4.299   9.543 -1.3927  1.1236  0.7620
 2866SOL     OW17375   6.990   1.609   0.547 -0.6052 -0.3007  0.3989
 2866SOL    HW117376   7.001   1.608   0.452 -0.9803 -1.3724  0.3615
 2866SOL    HW217377   6.901   1.576   0.562  0.2918 -2.4922  1.2192
 2867SOL     OW17378   5.223   8.894  11.489 -0.0293 -0.3057 -0.4268
 2867SOL    HW117379   5.189   8.808  11.465 -0.3991 -0.1319 -0.5293
 2867SOL    HW217380   5.269   8.879  11.572 -1.7569 -0.2431  0.5836
 2868SOL     OW17381   0.445   1.527   9.184 -0.7834 -0.1990  0.2958
 2868SOL    HW117382   0.452   1.535   9.279 -0.0899  2.6479  0.0923
 2868SOL    HW217383   0.530   1.492   9.157 -0.8252 -0.6102  0.6906
 2869SOL     OW17384   7.432   6.297  12.211 -0.6028 -0.1106 -0.3140
 2869SOL    HW117385   7.502   6.346  12.254 -1.3262 -1.8060  3.1511
 2869SOL    HW217386   7.358   6.357  12.210 -0.2105  0.3797 -0.4316
 2870SOL     OW17387   6.417   4.460  11.884  0.2044  0.3619 -0.2105
 2870SOL    HW117388   6.505   4.423  11.872  0.4081  0.5885  0.5075
 2870SOL    HW217389   6.432   4.554  11.896 -0.0755  0.3178  0.5328
 2871SOL     OW17390   2.137   5.877   9.178 -0.3394  0.1787  0.2674
 2871SOL    HW117391   2.075   5.950   9.177 -1.0690 -0.3912  1.6675
 2871SOL    HW217392   2.099   5.814   9.239  0.2984 -1.3552 -0.8558
 2872SOL     OW17393   5.517  10.743   5.350 -0.0755 -0.5222  0.4868
 2872SOL    HW117394   5.538  10.690   5.426  0.5306  0.1498  0.7923
 2872SOL    HW217395   5.480  10.681   5.287 -0.3516 -1.1191  1.2290
 2873SOL     OW17396   2.115   1.336   2.110 -0.1880  0.1395 -0.4330
 2873SOL    HW117397   2.102   1.293   2.025 -2.0076  0.1965 -0.2222
 2873SOL    HW217398   2.180   1.403   2.092 -1.0937  0.6682 -1.9962
 2874SOL     OW17399   8.072   8.643   0.019  0.0412 -0.0827 -0.0077
 2874SOL    HW117400   8.013   8.717   0.030 -0.7153 -0.7846  0.7826
 2874SOL    HW217401   8.159   8.679   0.034 -0.4394  0.3315  2.0481
 2875SOL     OW17402  11.508   7.498   4.540  0.1680 -0.3411  0.4665
 2875SOL    HW117403  11.581   7.528   4.487  0.2990 -0.4266  0.5995
 2875SOL    HW217404  11.440   7.564   4.527 -0.1541 -0.8462 -0.5670
 2876SOL     OW17405   9.571   9.725   5.010 -0.5881  0.4409 -0.7359
 2876SOL    HW117406   9.517   9.776   5.069  1.5138  0.9990  0.7835
 2876SOL    HW217407   9.612   9.789   4.952  0.2491  0.2601 -0.3532
 2877SOL     OW17408   6.619  10.274   2.987  0.4444 -0.3349 -0.1439
 2877SOL    HW117409   6.528  10.243   2.978  1.1931 -3.0121  0.5459
 2877SOL    HW217410   6.669  10.217   2.930  1.8804  0.1002  0.6318
 2878SOL     OW17411   6.521   4.612   1.394  0.6159 -0.3950 -0.1466
 2878SOL    HW117412   6.441   4.607   1.446  1.1154  2.6574  1.1654
 2878SOL    HW217413   6.557   4.699   1.414  3.2236 -0.8619 -2.2123
 2879SOL     OW17414   2.901   3.222   7.369  0.0427  0.1402 -0.2636
 2879SOL    HW117415   2.955   3.244   7.293 -0.0416  0.1883 -0.3101
 2879SOL    HW217416   2.927   3.132   7.392  0.6584  0.4220  0.1617
 2880SOL     OW17417   2.646   1.801   8.336 -0.1626 -0.0076 -0.9609
 2880SOL    HW117418   2.698   1.754   8.401  0.4712  2.3202  0.3331
 2880SOL    HW217419   2.706   1.816   8.263 -0.3696 -1.1234 -1.3846
 2881SOL     OW17420  10.211  12.115   1.360  0.1995  0.0409  0.7245
 2881SOL    HW117421  10.216  12.019   1.364 -0.2866 -0.0015  0.4472
 2881SOL    HW217422  10.153  12.139   1.432 -0.0469  0.0876  0.5134
 2882SOL     OW17423   4.956   4.986  10.188  0.7575 -0.4091  0.0311
 2882SOL    HW117424   4.883   5.045  10.207  1.4461  0.5845 -0.2969
 2882SOL    HW217425   4.937   4.952  10.101  0.1321 -1.0451  0.4009
 2883SOL     OW17426   3.558   2.549  10.112 -0.2021 -1.0361  0.3962
 2883SOL    HW117427   3.632   2.586  10.160 -0.6643  0.8057 -0.2444
 2883SOL    HW217428   3.497   2.521  10.180  0.2555 -0.8294  0.8944
 2884SOL     OW17429   3.853   8.488   1.566 -0.2016  0.6516  0.8824
 2884SOL    HW117430   3.933   8.450   1.603 -0.7252 -0.6351  0.7634
 2884SOL    HW217431   3.884   8.535   1.488  0.5828  1.2221  1.5212
 2885SOL     OW17432   1.426   7.229   4.141  0.3912  0.1247 -0.2595
 2885SOL    HW117433   1.502   7.226   4.198  1.0679 -3.1231 -1.1388
 2885SOL    HW217434   1.457   7.272   4.061  0.8758  0.1267 -0.0701
 2886SOL     OW17435  12.523   1.915   6.962  0.6276 -0.0791 -0.0784
 2886SOL    HW117436  12.447   1.973   6.955  0.0632 -0.8517 -0.5813
 2886SOL    HW217437  12.561   1.914   6.874  0.8952 -0.1310  0.0361
 2887SOL     OW17438   0.474   4.046   9.266  0.4526 -0.8383  0.2135
 2887SOL    HW117439   0.553   4.022   9.218 -0.2362 -1.0246 -0.8776
 2887SOL    HW217440   0.410   4.065   9.198 -0.1110  0.4765  1.0717
 2888SOL     OW17441   5.554   0.364   5.378  0.3461  0.4395 -0.4482
 2888SOL    HW117442   5.600   0.442   5.407 -0.4010  0.9880 -0.6984
 2888SOL    HW217443   5.474   0.397   5.338 -2.0050 -0.5654  2.9645
 2889SOL     OW17444   3.400   3.271  12.440  0.6999 -0.6019 -0.4699
 2889SOL    HW117445   3.412   3.339  12.375  2.0097  0.9175  1.2836
 2889SOL    HW217446   3.464   3.204  12.417 -0.6884 -1.3948 -2.2818
 2890SOL     OW17447  11.433   5.348  12.563 -0.4054 -0.1224  0.2174
 2890SOL    HW117448  11.399   5.432  12.533 -0.8662 -0.0553  0.9082
 2890SOL    HW217449  11.428   5.353  12.658  2.2601  0.1926  0.4222
 2891SOL     OW17450  10.905  12.177   1.200 -0.2884  0.0558  0.7915
 2891SOL    HW117451  10.978  12.205   1.145 -0.8967  0.2630  0.0676
 2891SOL    HW217452  10.891  12.085   1.176 -0.5283  0.1353  0.6125
 2892SOL     OW17453  11.816  11.736   7.391 -0.1795  0.1054  0.1923
 2892SOL    HW117454  11.787  11.691   7.312  0.0468 -0.3811  0.3833
 2892SOL    HW217455  11.859  11.815   7.359  0.0190 -0.1499 -0.1801
 2893SOL     OW17456  11.174   6.763  11.717  0.1089 -0.0950  0.1509
 2893SOL    HW117457  11.142   6.844  11.756  3.0322  0.7928  0.9610
 2893SOL    HW217458  11.133   6.694  11.770  0.1780  0.9675  1.6725
 2894SOL     OW17459   1.848  10.292  11.716  0.5905 -0.0020 -0.2629
 2894SOL    HW117460   1.895  10.352  11.774 -0.9877 -0.6680  1.8616
 2894SOL    HW217461   1.876  10.205  11.745  0.4159 -0.3484 -1.1083
 2895SOL     OW17462  12.141   7.424   1.553 -0.1742 -0.2958  0.8317
 2895SOL    HW117463  12.227   7.396   1.521 -0.7350 -0.0802 -0.9776
 2895SOL    HW217464  12.107   7.479   1.483 -3.4104 -3.4222 -0.3656
 2896SOL     OW17465  11.065   8.918   5.156  0.0011 -0.6320  0.4499
 2896SOL    HW117466  11.064   8.846   5.092 -1.7133  0.7480 -1.2050
 2896SOL    HW217467  10.980   8.961   5.144  0.4973  0.9443  2.2393
 2897SOL     OW17468   6.280   6.874   9.102 -0.2592  0.3253  0.2011
 2897SOL    HW117469   6.217   6.880   9.031 -0.7908  0.0697  0.6491
 2897SOL    HW217470   6.365   6.864   9.058 -0.5489  0.4375 -0.3940
 2898SOL     OW17471   9.387   2.579  12.113 -0.2450 -0.0965  0.5204
 2898SOL    HW117472   9.294   2.600  12.105 -0.4101 -0.9063  0.1851
 2898SOL    HW217473   9.407   2.595  12.205 -0.6303  0.4096  0.5211
 2899SOL     OW17474   9.039   7.933   0.493 -0.1034 -0.5506  0.2724
 2899SOL    HW117475   8.954   7.890   0.506 -0.1212 -1.4962 -2.4154
 2899SOL    HW217476   9.016   8.024   0.474 -0.4075 -0.4911  0.8971
 2900SOL     OW17477   1.707  10.210   1.133 -0.6368 -0.2627  0.2548
 2900SOL    HW117478   1.701  10.173   1.044 -1.8136 -0.5092  0.4235
 2900SOL    HW217479   1.767  10.283   1.123 -0.0947 -0.7908 -0.5761
 2901SOL     OW17480   1.720  11.280   3.668  0.0087  0.4822  0.5173
 2901SOL    HW117481   1.758  11.365   3.647  0.6086  0.8796  2.9863
 2901SOL    HW217482   1.706  11.282   3.763 -1.4997 -1.5634  0.4078
 2902SOL     OW17483   2.788   5.810   1.427  0.1543 -0.0973 -0.1694
 2902SOL    HW117484   2.833   5.758   1.494 -2.1647 -0.2215  1.4459
 2902SOL    HW217485   2.817   5.900   1.444  0.1329 -0.2185  0.5847
 2903SOL     OW17486   2.821   9.239   5.753  0.1814  0.0903  0.3948
 2903SOL    HW117487   2.893   9.217   5.813 -1.3050 -1.1198  1.8330
 2903SOL    HW217488   2.770   9.304   5.800 -1.3135 -1.2785  0.7627
 2904SOL     OW17489  12.160   4.908   2.736  0.2018  0.6176  0.4943
 2904SOL    HW117490  12.155   4.866   2.822 -0.6448 -0.5556 -0.0959
 2904SOL    HW217491  12.097   4.859   2.682  2.1942 -0.0475 -1.3814
 2905SOL     OW17492  11.482   6.841   6.940  0.7213 -0.0810 -0.4621
 2905SOL    HW117493  11.534   6.789   6.878 -1.4017 -0.8613 -1.6988
 2905SOL    HW217494  11.475   6.927   6.899 -0.0010 -0.3578 -0.9414
 2906SOL     OW17495  12.550  12.297   3.166  0.6680 -0.1593  0.0901
 2906SOL    HW117496  12.622  12.339   3.118 -0.9197  0.0329 -2.3222
 2906SOL    HW217497  12.548  12.207   3.132 -0.2304 -0.1549  0.1150
 2907SOL     OW17498   4.341   1.145   5.906  0.2310  0.2913  0.5900
 2907SOL    HW117499   4.344   1.052   5.885  1.4053  0.8341 -2.0821
 2907SOL    HW217500   4.276   1.181   5.846  2.3659  1.6726 -1.0555
 2908SOL     OW17501   3.547   3.265  10.145  0.3670  0.1224 -0.2937
 2908SOL    HW117502   3.461   3.256  10.104 -0.1037  0.4443  0.5952
 2908SOL    HW217503   3.601   3.309  10.079  0.0452 -0.6708 -1.1133
 2909SOL     OW17504   3.045   8.757   6.567 -0.4231  0.3369 -0.5088
 2909SOL    HW117505   3.037   8.768   6.661  1.2032 -1.7278 -0.0513
 2909SOL    HW217506   2.982   8.688   6.545  1.9758 -2.1563 -0.1263
 2910SOL     OW17507   5.024   1.094   3.172  0.1076 -0.9081  0.0698
 2910SOL    HW117508   5.115   1.084   3.142  0.7501 -0.4997  1.7557
 2910SOL    HW217509   5.021   1.183   3.208 -0.7384 -1.2162  0.7841
 2911SOL     OW17510   1.830   5.970   5.601 -0.0086 -0.0485  0.0880
 2911SOL    HW117511   1.806   5.922   5.680  1.7411 -0.8648  0.1739
 2911SOL    HW217512   1.888   6.040   5.632 -0.7436  0.7440 -0.2884
 2912SOL     OW17513   0.776   4.715   7.270 -0.2787  0.3235 -0.1003
 2912SOL    HW117514   0.689   4.689   7.298  0.1011 -0.3391  0.4956
 2912SOL    HW217515   0.780   4.693   7.177 -1.0485  1.2023 -0.3569
 2913SOL     OW17516   3.404   5.026   7.348 -0.1347  0.3885  0.3105
 2913SOL    HW117517   3.422   4.959   7.282  1.6073 -0.7343  1.8111
 2913SOL    HW217518   3.488   5.038   7.393 -1.2173  1.1647  2.2448
 2914SOL     OW17519  10.145   5.971   2.933  0.0834 -0.3840 -0.2762
 2914SOL    HW117520  10.237   5.949   2.918  0.4935 -0.2281  1.6896
 2914SOL    HW217521  10.132   5.957   3.027 -1.2700  1.8563 -0.0532
 2915SOL     OW17522   3.614   9.871   4.961 -0.0884 -0.0525  0.4601
 2915SOL    HW117523   3.519   9.866   4.974 -0.0111  0.4118  1.3002
 2915SOL    HW217524   3.626   9.856   4.868 -0.8708 -1.6661  0.5813
 2916SOL     OW17525   4.771  10.355   1.499 -0.6722 -0.4152  0.4071
 2916SOL    HW117526   4.833  10.426   1.516 -1.1945  0.0731  0.3169
 2916SOL    HW217527   4.739  10.330   1.586 -1.8926  0.7605  0.3348
 2917SOL     OW17528   8.443  11.822  11.968  0.3257  0.2271  0.0152
 2917SOL    HW117529   8.529  11.820  11.927  0.8130 -2.1821  0.9681
 2917SOL    HW217530   8.458  11.861  12.054  0.2028  0.9502 -0.2839
 2918SOL     OW17531   7.089   6.051   7.708 -0.1712 -0.0275  0.2587
 2918SOL    HW117532   7.129   6.118   7.763 -1.6346  1.6457 -0.6211
 2918SOL    HW217533   7.002   6.038   7.747 -0.6689  0.1072 -0.7915
 2919SOL     OW17534   3.600   6.143   4.979 -0.2487 -0.4347 -0.2976
 2919SOL    HW117535   3.597   6.056   4.939  0.6796 -1.2197  1.2528
 2919SOL    HW217536   3.508   6.168   4.989 -0.5156 -1.0710 -1.0770
 2920SOL     OW17537   4.514   0.609   6.127  0.8233  0.1702 -0.2294
 2920SOL    HW117538   4.515   0.654   6.043 -0.1022 -1.0468 -0.9287
 2920SOL    HW217539   4.576   0.657   6.181  0.5500  1.7017 -1.2182
 2921SOL     OW17540  11.664   8.984   8.090 -0.3742 -0.2093  0.2633
 2921SOL    HW117541  11.571   8.991   8.110 -0.6263 -2.3964  0.1324
 2921SOL    HW217542  11.670   8.996   7.996 -0.9170 -2.3915 -0.1184
 2922SOL     OW17543  11.957   4.701   7.404  0.3927 -0.2111 -0.2174
 2922SOL    HW117544  11.985   4.793   7.408 -0.2277  0.1580 -2.6950
 2922SOL    HW217545  12.034   4.654   7.372  0.2066 -0.2496 -0.6199
 2923SOL     OW17546   6.372   8.060   1.017  0.1490  0.3940  0.5159
 2923SOL    HW117547   6.283   8.095   1.012 -0.0101 -0.0264  0.2711
 2923SOL    HW217548   6.426   8.128   0.977 -0.2178  0.1697 -0.4151
 2924SOL     OW17549   2.868   7.893  10.544 -0.0646  0.2606 -0.2419
 2924SOL    HW117550   2.870   7.895  10.639 -2.2702  0.9091 -0.1523
 2924SOL    HW217551   2.893   7.981  10.518  2.7192 -0.5020 -0.4089
 2925SOL     OW17552   6.416   0.520   3.875 -0.0055  0.0416 -0.8554
 2925SOL    HW117553   6.506   0.549   3.894 -0.5280  1.0220  0.3238
 2925SOL    HW217554   6.372   0.599   3.843 -0.8990  0.0672  0.3433
 2926SOL     OW17555   2.262  12.055   4.434 -0.0120 -0.3137 -0.1294
 2926SOL    HW117556   2.183  12.002   4.446 -0.2979 -0.0234 -0.6816
 2926SOL    HW217557   2.238  12.141   4.470  0.4273 -0.5301  0.7039
 2927SOL     OW17558  12.473   1.506   5.416  0.1861  0.1470  0.0205
 2927SOL    HW117559  12.448   1.554   5.337  0.0890  1.6823  0.9382
 2927SOL    HW217560  12.567   1.492   5.407  0.0742 -0.1943 -0.6279
 2928SOL     OW17561   9.437  11.765  11.905  0.2880 -0.1069  0.0018
 2928SOL    HW117562   9.430  11.706  11.981 -0.6661 -0.9742 -0.7326
 2928SOL    HW217563   9.346  11.788  11.885  0.3763 -1.1999 -1.8628
 2929SOL     OW17564   9.900   0.272   4.524 -0.1794 -0.4535  0.0612
 2929SOL    HW117565   9.950   0.191   4.534 -0.9818 -0.6970  2.8397
 2929SOL    HW217566   9.823   0.246   4.474 -0.1656 -1.2978  0.4573
 2930SOL     OW17567   2.485  10.128  11.523  0.2627 -0.8033  0.1306
 2930SOL    HW117568   2.417  10.175  11.572  0.9568  2.2587 -1.6024
 2930SOL    HW217569   2.445  10.113  11.437  1.4929  0.4205 -0.6804
 2931SOL     OW17570   3.999   6.695   5.694 -0.4962 -0.2816  0.3958
 2931SOL    HW117571   3.963   6.689   5.605  1.2246  1.5448 -0.5220
 2931SOL    HW217572   3.989   6.787   5.717 -2.2259 -0.9666  2.7797
 2932SOL     OW17573   0.277   5.925   2.874 -0.1460 -0.0531 -0.1347
 2932SOL    HW117574   0.367   5.943   2.903  0.0254  0.5690 -1.0131
 2932SOL    HW217575   0.247   5.854   2.931 -0.3387  2.0236  2.5350
 2933SOL     OW17576   3.485   4.287  11.345  0.6131 -0.5999 -0.2824
 2933SOL    HW117577   3.405   4.238  11.324 -0.8610  1.4687  0.2096
 2933SOL    HW217578   3.459   4.348  11.414  2.2450  1.1234 -1.0882
 2934SOL     OW17579   5.205  12.485   5.069  0.0368 -0.4669  0.4093
 2934SOL    HW117580   5.296  12.490   5.098  0.4284 -1.3604 -0.6082
 2934SOL    HW217581   5.208  12.510   4.977 -1.1031  1.7513  0.9011
 2935SOL     OW17582   1.525   7.152   8.974  0.1248 -0.5582  0.3532
 2935SOL    HW117583   1.617   7.169   8.953 -0.2722  1.0712 -0.2131
 2935SOL    HW217584   1.483   7.238   8.969 -1.7996 -1.5245 -1.2254
 2936SOL     OW17585   4.561  12.406   8.266 -0.2028 -0.3111  0.0216
 2936SOL    HW117586   4.489  12.346   8.286  1.1347 -1.7194  0.7530
 2936SOL    HW217587   4.578  12.393   8.173 -2.0261  1.3655 -0.6221
 2937SOL     OW17588  10.057   2.923  11.480  0.0861  0.1743 -0.5750
 2937SOL    HW117589  10.102   2.970  11.410  1.7889  1.5852  1.3264
 2937SOL    HW217590  10.019   2.992  11.534 -0.3454 -0.8125  0.4192
 2938SOL     OW17591   5.549   7.429   9.752 -0.2257  0.4194  0.1074
 2938SOL    HW117592   5.620   7.436   9.816  1.4482 -1.9470 -1.3253
 2938SOL    HW217593   5.587   7.464   9.671 -0.6978 -0.8144 -0.6703
 2939SOL     OW17594   0.352   4.303  12.384  0.3293  0.2475  0.2757
 2939SOL    HW117595   0.279   4.363  12.392  0.2650  0.3589 -0.9547
 2939SOL    HW217596   0.430   4.359  12.389  0.2554  0.7669 -2.8264
 2940SOL     OW17597  10.336   4.046   8.729  0.1178  0.0143  0.0605
 2940SOL    HW117598  10.402   4.003   8.782  3.2002  1.1298 -2.5411
 2940SOL    HW217599  10.339   4.000   8.645 -2.1408  0.4165 -0.3178
 2941SOL     OW17600   0.164   8.305   3.319 -0.7598 -0.1921  0.6815
 2941SOL    HW117601   0.241   8.278   3.268 -0.8256  2.0748 -0.7454
 2941SOL    HW217602   0.108   8.350   3.256 -0.9010  2.6887  2.6987
 2942SOL     OW17603   3.769   9.082  11.661 -0.3689  0.0679 -0.4585
 2942SOL    HW117604   3.800   9.001  11.703 -1.3987  1.1383  2.6213
 2942SOL    HW217605   3.849   9.127  11.634  0.2508 -1.5128 -1.4378
 2943SOL     OW17606   5.107  11.643   7.043  0.5657 -0.0093 -0.1186
 2943SOL    HW117607   5.140  11.602   6.963  0.3602  1.3032 -0.9020
 2943SOL    HW217608   5.173  11.709   7.064  1.0642 -0.9225  1.3149
 2944SOL     OW17609   4.011   2.069   0.084  0.4383  0.5751  0.1324
 2944SOL    HW117610   4.099   2.106   0.091  1.3475 -0.5432 -3.2474
 2944SOL    HW217611   3.982   2.096  -0.003 -1.5921 -1.0716  0.2408
 2945SOL     OW17612   3.398  10.964   4.968  0.0765 -0.0105 -0.2972
 2945SOL    HW117613   3.395  10.871   4.991  0.3317  0.2846  1.0368
 2945SOL    HW217614   3.472  10.998   5.019 -1.2983  1.3386  0.8801
 2946SOL     OW17615   4.329   5.159   7.662 -0.4206  0.4049  0.0726
 2946SOL    HW117616   4.337   5.250   7.634 -0.7042  1.3806  2.8616
 2946SOL    HW217617   4.415   5.138   7.699 -1.7734  1.4096  4.2195
 2947SOL     OW17618   5.421  11.923  12.006  0.5772  0.4226 -0.2791
 2947SOL    HW117619   5.398  12.012  12.033 -1.7523 -0.0073 -0.5966
 2947SOL    HW217620   5.461  11.884  12.084  0.0400  1.2151  0.4147
 2948SOL     OW17621   9.347   0.102   2.454  0.7623  0.1757 -0.7249
 2948SOL    HW117622   9.369   0.145   2.372  1.3499 -0.2414 -0.7900
 2948SOL    HW217623   9.300   0.169   2.504 -0.2202  0.2249 -1.6612
 2949SOL     OW17624   4.839   2.019   0.997 -0.1349  0.0459 -0.4881
 2949SOL    HW117625   4.922   1.995   1.037 -0.8996  0.0936  1.1831
 2949SOL    HW217626   4.852   2.002   0.903  1.4248 -0.8364 -0.1395
 2950SOL     OW17627   7.493   3.842   5.350 -0.3327 -0.0437  0.6351
 2950SOL    HW117628   7.451   3.841   5.264 -0.2976 -2.7379  0.5426
 2950SOL    HW217629   7.495   3.934   5.375  0.1264  0.9146 -2.4509
 2951SOL     OW17630   9.929   4.303  12.242 -0.0703 -0.3378 -0.2502
 2951SOL    HW117631  10.012   4.280  12.283  0.2827  0.8883 -0.2375
 2951SOL    HW217632   9.878   4.343  12.313 -0.3779 -0.3789 -0.4459
 2952SOL     OW17633   9.566   3.367   4.083 -0.2859  0.0935 -0.3971
 2952SOL    HW117634   9.550   3.346   4.176  0.5961  1.4675  0.0974
 2952SOL    HW217635   9.568   3.462   4.081  0.0649  0.0684 -1.7864
 2953SOL     OW17636   2.813   4.065  10.623 -0.1054  0.0164  0.2322
 2953SOL    HW117637   2.734   4.090  10.576 -1.4024  0.4323  2.5009
 2953SOL    HW217638   2.881   4.062  10.556 -2.0182 -0.3888 -1.8031
 2954SOL     OW17639   7.639   9.230   4.815  0.4368  0.0625 -0.0729
 2954SOL    HW117640   7.550   9.228   4.781  0.5469 -0.2463 -0.3465
 2954SOL    HW217641   7.688   9.172   4.757  1.0494  1.0750 -0.5983
 2955SOL     OW17642   9.952   0.490   3.048 -0.1314  0.6106  0.2705
 2955SOL    HW117643  10.034   0.513   3.004  0.9433 -1.6848  0.9294
 2955SOL    HW217644   9.921   0.572   3.085  1.5964  1.6369 -0.4192
 2956SOL     OW17645  10.434   3.948   6.439  0.1175  0.2780  0.0837
 2956SOL    HW117646  10.490   3.872   6.426  1.3148  0.8718  1.3493
 2956SOL    HW217647  10.346   3.913   6.452  0.5605 -0.8379  0.1222
 2957SOL     OW17648  10.137   3.954  12.101  0.2414  0.2937 -0.1873
 2957SOL    HW117649  10.210   4.000  12.059 -0.7256 -0.1747 -2.5425
 2957SOL    HW217650  10.159   3.862  12.091 -0.8230  0.1388 -1.3014
 2958SOL     OW17651   9.167   6.144  10.880  0.2435  0.1279 -0.1638
 2958SOL    HW117652   9.191   6.220  10.827  0.4727  1.2693  1.4931
 2958SOL    HW217653   9.082   6.117  10.846  0.8974  0.0943 -1.8445
 2959SOL     OW17654  12.401   4.207   3.836 -0.3837  0.1059  0.4943
 2959SOL    HW117655  12.329   4.153   3.868  0.2793 -0.1451  1.6530
 2959SOL    HW217656  12.407   4.279   3.899  1.0814 -0.4943  1.0806
 2960SOL     OW17657   2.473  12.105   7.761 -0.0322 -0.5360 -0.6482
 2960SOL    HW117658   2.446  12.014   7.761 -0.6602 -0.3642  0.2162
 2960SOL    HW217659   2.392  12.154   7.746  0.1107 -0.0846  0.0277
 2961SOL     OW17660   0.813   7.900   4.524  0.1839  0.0915  0.8982
 2961SOL    HW117661   0.732   7.855   4.502  0.3360 -0.0373  0.5863
 2961SOL    HW217662   0.820   7.970   4.459  0.9376 -0.6585  0.1326
 2962SOL     OW17663   9.146   2.929   6.505 -0.0004 -0.1755 -0.4870
 2962SOL    HW117664   9.148   2.834   6.500 -1.3123 -0.3595  1.2864
 2962SOL    HW217665   9.208   2.950   6.575 -1.0878  0.0666  0.4541
 2963SOL     OW17666   0.631  12.175   3.270 -0.3414  0.0498 -0.2447
 2963SOL    HW117667   0.642  12.099   3.214 -1.2098  0.2413 -0.6876
 2963SOL    HW217668   0.669  12.149   3.354 -2.6218 -1.7355  0.3280
 2964SOL     OW17669   0.351   3.762   8.749  0.3186 -0.3549  0.2710
 2964SOL    HW117670   0.326   3.678   8.711  2.4955 -0.9232 -0.0643
 2964SOL    HW217671   0.310   3.827   8.691 -0.7213 -1.1690  0.0628
 2965SOL     OW17672  10.760   2.200   3.476 -0.3832  0.1126 -0.0089
 2965SOL    HW117673  10.828   2.169   3.417 -0.6499  0.0901 -0.3118
 2965SOL    HW217674  10.798   2.195   3.563  0.0748  0.3099 -0.1981
 2966SOL     OW17675  11.621   2.189   7.545 -0.2477 -0.3112 -0.3206
 2966SOL    HW117676  11.637   2.095   7.557  2.3840  0.3311  1.9987
 2966SOL    HW217677  11.615   2.224   7.633  2.5327  2.1924 -0.9713
 2967SOL     OW17678   0.750  10.959  10.168  0.0777 -0.1810 -0.5657
 2967SOL    HW117679   0.728  10.938  10.077  0.8464 -0.7906 -0.6212
 2967SOL    HW217680   0.680  10.919  10.220 -0.1373 -0.1925 -0.8622
 2968SOL     OW17681   1.353   5.593   6.479 -0.0500  0.1753 -0.0101
 2968SOL    HW117682   1.362   5.650   6.403  2.5613  0.3397  0.3170
 2968SOL    HW217683   1.292   5.525   6.452  0.9172  0.1473 -2.3235
 2969SOL     OW17684   1.728   7.154   6.381 -0.2685  0.1304 -0.0171
 2969SOL    HW117685   1.662   7.147   6.450 -1.5193  1.4129 -1.0173
 2969SOL    HW217686   1.712   7.239   6.341  1.9726  0.4498 -0.3683
 2970SOL     OW17687   8.228  10.236  10.759  0.0879 -0.1545  0.3018
 2970SOL    HW117688   8.271  10.165  10.711 -0.3476 -0.8958  0.9853
 2970SOL    HW217689   8.251  10.315  10.709  1.6904 -0.5942  0.2611
 2971SOL     OW17690  11.888   9.771   5.349 -0.0223 -0.3728 -0.4095
 2971SOL    HW117691  11.904   9.789   5.257 -0.0474 -0.3859 -0.4163
 2971SOL    HW217692  11.940   9.836   5.397  0.3652 -0.6645 -0.4271
 2972SOL     OW17693   2.769   7.756   1.561  0.2386 -0.4408 -0.0715
 2972SOL    HW117694   2.702   7.687   1.556 -0.1912 -0.0760  0.5434
 2972SOL    HW217695   2.719   7.838   1.562  0.6363 -0.1858  1.1385
 2973SOL     OW17696   6.699   1.951   9.896  0.3363 -0.0758 -0.1911
 2973SOL    HW117697   6.630   1.943   9.961 -0.2250 -0.4645 -0.8208
 2973SOL    HW217698   6.660   2.002   9.825  1.1846  1.0090  0.0890
 2974SOL     OW17699   6.932   6.587   6.225 -0.1104 -0.6580  0.7118
 2974SOL    HW117700   7.016   6.599   6.270  0.4254 -1.2731 -0.0887
 2974SOL    HW217701   6.956   6.572   6.133 -1.0379 -1.6926  0.6149
 2975SOL     OW17702   7.362  12.037   8.902  0.1354  0.4851 -0.1680
 2975SOL    HW117703   7.284  12.025   8.847 -0.6101  0.7930  0.7952
 2975SOL    HW217704   7.361  11.962   8.961 -0.6064  1.5573  1.2216
 2976SOL     OW17705   2.847   3.901  11.265  0.0035 -0.1165  0.6570
 2976SOL    HW117706   2.802   3.857  11.337  0.0005 -1.0950  0.0676
 2976SOL    HW217707   2.804   3.868  11.186 -0.3624  1.3545  0.2015
 2977SOL     OW17708  11.780   7.798   5.198 -0.6140 -0.0663 -0.4427
 2977SOL    HW117709  11.855   7.783   5.142 -1.6326  2.0319 -2.5464
 2977SOL    HW217710  11.775   7.721   5.254  3.1213 -0.2220 -0.1010
 2978SOL     OW17711  12.036  10.993   6.416 -0.0832  0.1607 -0.4034
 2978SOL    HW117712  12.069  10.985   6.327  1.8520 -0.6049  0.3356
 2978SOL    HW217713  11.956  10.941   6.417  0.1199 -0.1888 -1.5748
 2979SOL     OW17714   4.416  12.018   1.987  0.8636 -0.2408  0.3271
 2979SOL    HW117715   4.388  11.933   1.955  1.2651 -0.6452  1.0367
 2979SOL    HW217716   4.351  12.079   1.954  0.7572 -0.7737 -0.4720
 2980SOL     OW17717   0.537   0.753   4.940 -0.2501 -1.1148  0.0366
 2980SOL    HW117718   0.452   0.797   4.929 -1.0363 -2.5779 -0.0318
 2980SOL    HW217719   0.601   0.824   4.940 -1.4532  0.0121 -0.1468
 2981SOL     OW17720   4.493   4.921   6.430 -0.0935 -0.2094 -0.2923
 2981SOL    HW117721   4.450   4.993   6.384 -0.1952  0.5039  0.8747
 2981SOL    HW217722   4.428   4.892   6.494  0.1778 -0.9362 -0.3449
 2982SOL     OW17723   5.726   0.934   0.672  0.5503  0.4672  0.0382
 2982SOL    HW117724   5.752   0.878   0.745  0.4080 -0.2896 -0.4807
 2982SOL    HW217725   5.703   0.873   0.601  0.5358  1.1796 -0.5892
 2983SOL     OW17726   7.688  12.169   0.870 -0.1308  0.3279  0.1291
 2983SOL    HW117727   7.760  12.106   0.873  0.2946  0.7609 -0.6249
 2983SOL    HW217728   7.682  12.203   0.959 -0.2448 -0.6268  0.5080
 2984SOL     OW17729   6.730   7.302  10.921  0.1199 -0.7227 -0.5122
 2984SOL    HW117730   6.757   7.377  10.973 -0.1406  0.7440 -2.3895
 2984SOL    HW217731   6.751   7.226  10.975 -0.6743  0.7023  1.9358
 2985SOL     OW17732   3.595   7.582  11.664 -0.0900 -0.7534 -0.3050
 2985SOL    HW117733   3.677   7.534  11.670  0.6998  0.5997  0.0670
 2985SOL    HW217734   3.547   7.540  11.593  1.6808 -0.4452 -1.7304
 2986SOL     OW17735   2.772   2.451  10.705  0.1733 -0.1552 -0.2115
 2986SOL    HW117736   2.764   2.537  10.665  0.3371  0.4720  1.0581
 2986SOL    HW217737   2.865   2.442  10.727  0.1550 -0.6439 -0.3058
 2987SOL     OW17738   7.607   2.524   5.382  0.0746  0.0480 -0.4757
 2987SOL    HW117739   7.635   2.480   5.462 -1.7076  0.6037  0.5034
 2987SOL    HW217740   7.687   2.563   5.347  0.9770 -0.6310  0.7599
 2988SOL     OW17741   9.924   2.261   2.976 -0.7061  0.1954  0.2618
 2988SOL    HW117742   9.929   2.347   2.936 -0.5675 -0.0516 -0.2611
 2988SOL    HW217743   9.892   2.203   2.907  0.9860 -0.5258  0.0112
 2989SOL     OW17744   5.477   1.245  11.795  0.1850  0.3206  0.0614
 2989SOL    HW117745   5.407   1.307  11.815 -1.0276 -0.7569 -0.7521
 2989SOL    HW217746   5.525   1.286  11.723 -0.7991  0.1952 -0.6866
 2990SOL     OW17747   7.427   6.624   2.461  0.3798 -0.3637 -0.1331
 2990SOL    HW117748   7.427   6.719   2.473  1.2102 -0.5087  1.2343
 2990SOL    HW217749   7.351   6.606   2.406 -0.5625  0.9568  0.7072
 2991SOL     OW17750   5.421   2.475  10.459  0.0786  0.3307  0.4286
 2991SOL    HW117751   5.405   2.402  10.519  0.6963  0.1634  0.3964
 2991SOL    HW217752   5.476   2.438  10.390 -0.7202  0.4910 -0.3129
 2992SOL     OW17753   2.128  10.599  10.414  0.3657  0.1242  0.6304
 2992SOL    HW117754   2.078  10.534  10.463  0.5050 -1.6318 -1.4157
 2992SOL    HW217755   2.085  10.603  10.328  1.1937  1.7288  0.2567
 2993SOL     OW17756   7.953   6.769   1.497  0.8024 -0.2544  0.0227
 2993SOL    HW117757   8.012   6.703   1.531  3.4633  1.1831 -1.4525
 2993SOL    HW217758   7.940   6.745   1.405  0.5447  0.4225 -0.1249
 2994SOL     OW17759  11.773   8.446   1.681  0.1517  0.7566 -0.2762
 2994SOL    HW117760  11.856   8.483   1.712 -1.2700  1.3775  3.3496
 2994SOL    HW217761  11.779   8.353   1.705 -0.5517  1.0211  1.0095
 2995SOL     OW17762   1.006   5.278   7.890 -0.2900 -0.2611 -0.6017
 2995SOL    HW117763   0.928   5.223   7.885 -0.0005 -0.7385  0.0590
 2995SOL    HW217764   0.982   5.357   7.841 -1.7375  0.2585  0.8452
 2996SOL     OW17765   8.115   2.892  10.069 -0.6563  0.0049 -0.1235
 2996SOL    HW117766   8.092   2.803  10.042  0.8505 -0.3644 -0.2454
 2996SOL    HW217767   8.057   2.948  10.017 -0.2526 -0.8311 -1.5214
 2997SOL     OW17768   1.455   5.980   0.490 -0.1845  0.6069 -0.7224
 2997SOL    HW117769   1.518   6.035   0.443  2.2957  0.2898  1.9137
 2997SOL    HW217770   1.454   6.016   0.579 -0.5905 -1.8740  0.3718
 2998SOL     OW17771   1.962  12.011   1.344 -0.3515 -0.2559 -0.0527
 2998SOL    HW117772   1.949  12.043   1.254 -0.0627  0.8444  0.2857
 2998SOL    HW217773   1.969  12.090   1.397  1.0584 -0.8528  0.7206
 2999SOL     OW17774   6.619   3.914   1.822 -0.0842  0.0602 -0.5367
 2999SOL    HW117775   6.621   3.954   1.909 -1.2361 -1.9846  0.4961
 2999SOL    HW217776   6.694   3.855   1.821  0.7389  1.0785 -1.4937
 3000SOL     OW17777   3.251  11.263   5.279 -0.1858 -0.3906  0.1206
 3000SOL    HW117778   3.257  11.173   5.308  1.1591 -1.0217 -1.8896
 3000SOL    HW217779   3.338  11.300   5.296 -0.2552  0.0420 -0.4135
 3001SOL     OW17780   5.567   5.214   6.532 -0.2047  0.6355 -0.2709
 3001SOL    HW117781   5.483   5.258   6.517 -0.6138  0.0085  0.1493
 3001SOL    HW217782   5.560   5.131   6.485  0.3390  0.7550 -0.5713
 3002SOL     OW17783  10.653   8.293   7.254  0.2665  0.2541 -0.2032
 3002SOL    HW117784  10.689   8.205   7.268  0.4005  0.5141  1.2983
 3002SOL    HW217785  10.561   8.278   7.232  0.2559 -0.2697  0.1694
 3003SOL     OW17786  11.425   5.149   5.175  0.2560  0.8383  0.4972
 3003SOL    HW117787  11.415   5.061   5.211  0.1643  0.9921  0.8529
 3003SOL    HW217788  11.508   5.180   5.211  0.5547  0.6958 -0.0590
 3004SOL     OW17789   0.598   5.790  12.282 -0.2208 -0.2622 -0.6453
 3004SOL    HW117790   0.671   5.835  12.239 -0.5023  0.7691 -0.0921
 3004SOL    HW217791   0.608   5.813  12.375  0.4573 -2.5503 -0.0803
 3005SOL     OW17792   5.453   6.408   7.001 -0.1785  0.4219 -0.8139
 3005SOL    HW117793   5.486   6.494   7.026 -0.3716  0.7041 -1.4871
 3005SOL    HW217794   5.360   6.409   7.024  0.0879 -0.0956  0.3799
 3006SOL     OW17795  11.807   3.585   2.725 -0.3100  0.5319 -0.5846
 3006SOL    HW117796  11.852   3.661   2.761 -0.1374  0.0739  0.1742
 3006SOL    HW217797  11.801   3.604   2.631 -0.0751  1.3766 -0.4393
 3007SOL     OW17798   5.255  12.183   9.448 -0.2851  0.2507  0.8580
 3007SOL    HW117799   5.301  12.194   9.365 -1.8530 -0.9983 -0.2274
 3007SOL    HW217800   5.313  12.128   9.501  0.5085  0.6552  0.4157
 3008SOL     OW17801  11.428   4.932   5.680 -0.0004 -0.0085  0.3274
 3008SOL    HW117802  11.475   4.855   5.712 -0.3741 -1.1060 -1.6056
 3008SOL    HW217803  11.493   5.002   5.682  1.0562 -0.9390 -0.1150
 3009SOL     OW17804   1.244  10.632   6.536  0.4114  0.2956 -0.3066
 3009SOL    HW117805   1.201  10.562   6.488  0.0292 -0.0896  0.5587
 3009SOL    HW217806   1.228  10.711   6.484 -0.6202  0.0153 -0.4434
 3010SOL     OW17807   2.875   3.751   1.161 -0.4657  0.9078  0.2463
 3010SOL    HW117808   2.802   3.766   1.221  1.1463 -0.8252  2.8599
 3010SOL    HW217809   2.943   3.811   1.191 -0.1436  1.1837 -0.9620
 3011SOL     OW17810   4.966  10.920  10.578 -0.0894 -0.1478  0.3843
 3011SOL    HW117811   5.060  10.904  10.586  0.4065  2.4199  0.5525
 3011SOL    HW217812   4.939  10.951  10.664 -0.5667  1.3206 -0.2539
 3012SOL     OW17813  11.174   3.884   1.244 -0.5041 -0.1308  0.0507
 3012SOL    HW117814  11.243   3.851   1.186  0.9407  0.2694  1.4953
 3012SOL    HW217815  11.093   3.847   1.208  0.5738 -1.5095 -1.0419
 3013SOL     OW17816   2.593   8.676   4.150 -0.5071  0.0424 -0.2155
 3013SOL    HW117817   2.619   8.602   4.205 -1.8027 -0.3758 -0.1354
 3013SOL    HW217818   2.619   8.753   4.201 -1.8496 -0.3271  1.1102
 3014SOL     OW17819   0.291   0.786   7.419  0.3259 -0.0585  0.1157
 3014SOL    HW117820   0.230   0.737   7.474 -1.2929  2.1199  0.3877
 3014SOL    HW217821   0.293   0.737   7.337 -0.2270 -1.2551  0.7842
 3015SOL     OW17822   9.497   2.508   3.569  0.5391  0.2296  0.0754
 3015SOL    HW117823   9.548   2.545   3.642  1.3201 -1.1525  0.2790
 3015SOL    HW217824   9.473   2.421   3.599  1.5019 -0.6650 -1.5715
 3016SOL     OW17825   0.141   4.630   9.529 -0.1146 -0.1884 -0.1407
 3016SOL    HW117826   0.205   4.570   9.566 -0.1045 -0.2257 -0.2196
 3016SOL    HW217827   0.101   4.672   9.605  0.0286 -0.1390 -0.0925
 3017SOL     OW17828   8.426   3.577  12.575  0.1771 -0.3197  0.0390
 3017SOL    HW117829   8.380   3.658  12.555  0.4096 -0.2562 -0.2484
 3017SOL    HW217830   8.468   3.552  12.493  3.1314  1.2308  0.9416
 3018SOL     OW17831  11.418  12.220   5.389 -0.2252  0.3552  0.2415
 3018SOL    HW117832  11.356  12.208   5.461 -1.4957 -0.9643 -1.0072
 3018SOL    HW217833  11.367  12.201   5.310  1.3824  0.7646 -0.9450
 3019SOL     OW17834   2.631  11.001   3.325 -0.3391  0.4372 -0.1896
 3019SOL    HW117835   2.663  11.023   3.412 -0.4012 -1.3886  0.3305
 3019SOL    HW217836   2.605  11.085   3.287 -1.1971  1.1811  1.9016
 3020SOL     OW17837   6.834   3.745   1.903 -0.1290 -0.2544  0.6512
 3020SOL    HW117838   6.910   3.737   1.845 -0.3269  1.9692  0.0229
 3020SOL    HW217839   6.871   3.778   1.985 -0.3794  0.7095  0.3845
 3021SOL     OW17840   3.751   3.447  10.315 -0.1733 -0.2833 -0.3020
 3021SOL    HW117841   3.829   3.400  10.285 -1.0384 -2.9098  1.2225
 3021SOL    HW217842   3.731   3.408  10.400 -4.6720 -1.7842 -1.7628
 3022SOL     OW17843   9.160  12.254   3.041 -0.0969  0.2001 -0.0238
 3022SOL    HW117844   9.092  12.320   3.026 -0.0558  0.4303  0.7163
 3022SOL    HW217845   9.128  12.176   2.997 -1.5770 -0.1399  1.5095
 3023SOL     OW17846   5.084   4.186   7.526  0.4241  0.7906  1.0324
 3023SOL    HW117847   5.163   4.145   7.561  1.3865  0.9093 -0.8417
 3023SOL    HW217848   5.115   4.269   7.489 -0.5663  0.8077  0.2036
 3024SOL     OW17849   1.978   8.656  12.373 -0.3781 -0.2130  0.3401
 3024SOL    HW117850   2.024   8.684  12.294 -0.4460 -0.5037  0.1977
 3024SOL    HW217851   2.026   8.578  12.402 -1.4663 -1.2300 -0.4614
 3025SOL     OW17852   1.951   1.272   2.883 -0.0271 -0.1506 -0.2321
 3025SOL    HW117853   1.942   1.177   2.874 -0.0286 -0.1025 -0.7452
 3025SOL    HW217854   1.957   1.305   2.793 -0.2474  0.3575 -0.0650
 3026SOL     OW17855   6.078   9.295   5.892 -0.3259  0.3792  0.1697
 3026SOL    HW117856   6.086   9.272   5.985  0.7710 -1.5849 -0.3550
 3026SOL    HW217857   5.990   9.265   5.867 -0.0546 -0.4999  0.2351
 3027SOL     OW17858  12.363   0.157   0.764 -0.9766 -0.0325 -0.0414
 3027SOL    HW117859  12.389   0.138   0.854  0.2830  0.3277 -0.3150
 3027SOL    HW217860  12.444   0.185   0.721 -2.0599  2.5520 -0.5689
 3028SOL     OW17861   5.673  11.666  11.513 -0.1504  0.0122  0.0147
 3028SOL    HW117862   5.722  11.637  11.590  0.6307 -0.8317 -0.7739
 3028SOL    HW217863   5.619  11.738  11.545  1.2683  0.6787  1.0303
 3029SOL     OW17864   2.843  11.437   1.700 -0.0220  0.3354 -0.2350
 3029SOL    HW117865   2.907  11.467   1.636 -0.7987  0.1184 -1.1304
 3029SOL    HW217866   2.811  11.354   1.666 -0.2242  0.0618  0.5918
 3030SOL     OW17867   7.381   6.668   7.725 -0.0764  0.5052 -0.1949
 3030SOL    HW117868   7.340   6.658   7.811 -1.0982 -1.5772 -0.8589
 3030SOL    HW217869   7.448   6.735   7.738 -0.5883  0.6524  2.0740
 3031SOL     OW17870   0.219   6.227   5.223 -0.2998 -0.7203 -0.9550
 3031SOL    HW117871   0.184   6.181   5.146 -0.9271 -0.6351 -0.7299
 3031SOL    HW217872   0.225   6.318   5.195 -1.8511 -0.4427 -0.4826
 3032SOL     OW17873   1.007   3.884   6.251  0.5415  0.3582  0.3977
 3032SOL    HW117874   1.045   3.875   6.164  1.1606  0.6078  0.6382
 3032SOL    HW217875   1.077   3.861   6.311 -0.6692 -2.5659  0.8223
 3033SOL     OW17876   3.433  10.259   2.056 -0.0324 -0.7440  0.1022
 3033SOL    HW117877   3.483  10.180   2.035  0.8888 -0.1496  0.0167
 3033SOL    HW217878   3.360  10.228   2.110 -1.6641 -2.1497 -2.6654
 3034SOL     OW17879   0.055   2.601   0.694 -0.9362 -0.2818 -0.4579
 3034SOL    HW117880   0.092   2.532   0.639 -0.3875  1.1045 -1.9072
 3034SOL    HW217881   0.061   2.566   0.783  1.8112 -1.0468 -0.8400
 3035SOL     OW17882  10.026  11.923  11.954 -0.4464 -0.1059  0.6497
 3035SOL    HW117883   9.967  11.984  11.910  0.6412  1.5398  1.3655
 3035SOL    HW217884  10.039  11.960  12.042  0.8671 -0.9399  0.8514
 3036SOL     OW17885   5.707   8.485  10.438  0.3374 -0.5955  0.1515
 3036SOL    HW117886   5.622   8.441  10.435 -0.3218  0.6433  0.1639
 3036SOL    HW217887   5.723   8.501  10.531 -0.6141  1.3739  0.0217
 3037SOL     OW17888   1.843  10.098   3.511  0.4831  0.4380 -0.6538
 3037SOL    HW117889   1.818  10.125   3.423 -0.6466  3.7267  0.5085
 3037SOL    HW217890   1.760  10.092   3.559  1.0598 -1.4473  0.2223
 3038SOL     OW17891   1.476   4.549  11.565  0.5405  0.5451 -0.1492
 3038SOL    HW117892   1.555   4.500  11.542 -0.4858 -0.7901 -0.9883
 3038SOL    HW217893   1.485   4.633  11.520  1.2894  0.2332 -0.5969
 3039SOL     OW17894  11.266   9.681   3.241 -0.8001 -0.4755  0.3876
 3039SOL    HW117895  11.259   9.596   3.286  1.1322 -1.3206 -0.7497
 3039SOL    HW217896  11.208   9.672   3.166 -2.0821 -0.0245  1.2967
 3040SOL     OW17897   2.605   0.406  10.828  0.3304 -0.2487 -0.1933
 3040SOL    HW117898   2.621   0.325  10.781  0.9230  0.4127 -1.1724
 3040SOL    HW217899   2.510   0.420  10.822  0.4454  0.0448 -1.5937
 3041SOL     OW17900  11.618   1.896   0.191 -0.4445 -0.4926  0.5864
 3041SOL    HW117901  11.579   1.960   0.132 -0.9239 -0.3572  1.0439
 3041SOL    HW217902  11.545   1.841   0.219  0.0763 -1.7425 -0.4017
 3042SOL     OW17903   1.526   5.450   4.861  0.3184  0.0045 -0.0952
 3042SOL    HW117904   1.526   5.377   4.799 -0.3188 -0.9510  0.9979
 3042SOL    HW217905   1.509   5.410   4.946  3.4445  0.9653  1.1209
 3043SOL     OW17906   6.025   3.492   1.325  0.3529  0.1809 -0.0318
 3043SOL    HW117907   6.007   3.578   1.287  1.3192 -0.7036 -2.7295
 3043SOL    HW217908   6.113   3.470   1.295 -0.1225 -2.0201  0.0008
 3044SOL     OW17909  10.846   3.934   4.810  0.0678 -0.2829  0.5972
 3044SOL    HW117910  10.909   3.863   4.799  0.8687  0.4032  0.6935
 3044SOL    HW217911  10.880   3.986   4.883  0.4853  1.2312 -0.6129
 3045SOL     OW17912   6.123  12.440   0.271  0.0859  0.2321  0.7395
 3045SOL    HW117913   6.081  12.507   0.217  0.7370  0.8036  0.9309
 3045SOL    HW217914   6.056  12.417   0.336 -0.5757 -0.2055 -0.0772
 3046SOL     OW17915  12.470   1.881  12.252  0.2654 -0.7553  0.0702
 3046SOL    HW117916  12.387   1.835  12.249  0.0007 -0.2327 -0.9539
 3046SOL    HW217917  12.488   1.905  12.161  0.6127  0.7452  0.5071
 3047SOL     OW17918   2.671   0.957   2.561  0.1540 -0.2724  0.0863
 3047SOL    HW117919   2.634   1.022   2.621 -2.4822 -2.4181  1.0275
 3047SOL    HW217920   2.693   0.882   2.618 -0.0758 -1.4368 -1.2973
 3048SOL     OW17921   3.523  11.104   7.818  0.1969  0.5242  0.2611
 3048SOL    HW117922   3.607  11.147   7.835 -0.3598  1.2092  1.4470
 3048SOL    HW217923   3.518  11.098   7.723  1.2623  1.1515  0.1465
 3049SOL     OW17924   1.570   4.702  10.387 -0.0995  0.1883  0.0696
 3049SOL    HW117925   1.477   4.679  10.382  0.1278 -0.7822  0.2667
 3049SOL    HW217926   1.612   4.627  10.429  0.8101  0.5256 -0.2119
 3050SOL     OW17927   2.118  10.291   0.150  0.1800  0.1283 -0.6290
 3050SOL    HW117928   2.039  10.339   0.125 -0.9306 -1.0343  0.4802
 3050SOL    HW217929   2.179  10.358   0.180 -0.2289  1.0808 -1.8508
 3051SOL     OW17930  11.645   2.179  11.878  0.1717 -0.1529 -0.4493
 3051SOL    HW117931  11.701   2.133  11.815 -0.8098 -1.3592 -0.4742
 3051SOL    HW217932  11.624   2.262  11.835  1.0240 -0.1567 -0.9058
 3052SOL     OW17933   8.376  10.156   1.127 -0.6090  0.0722  0.3374
 3052SOL    HW117934   8.337  10.238   1.097  0.8504  0.9913  0.8454
 3052SOL    HW217935   8.342  10.145   1.216 -0.8834  0.0750  0.2332
 3053SOL     OW17936  11.719   7.939   3.850 -0.3867  0.1319 -0.0836
 3053SOL    HW117937  11.767   8.008   3.894  1.0007 -0.9278  0.1248
 3053SOL    HW217938  11.783   7.896   3.793 -1.3923 -0.5112 -0.7897
 3054SOL     OW17939   7.210   0.516   7.659 -0.3415 -0.0924 -0.6463
 3054SOL    HW117940   7.209   0.471   7.744  2.3240 -1.8972 -1.4319
 3054SOL    HW217941   7.224   0.608   7.680  1.4824 -0.6644  0.9039
 3055SOL     OW17942  10.836   4.236   9.626  0.2011 -0.2216  0.6226
 3055SOL    HW117943  10.760   4.291   9.647 -0.7000 -0.8595 -0.8278
 3055SOL    HW217944  10.800   4.166   9.572  2.0159  0.1721 -1.1970
 3056SOL     OW17945  12.471   1.691   3.590 -0.0118  0.7901  0.4448
 3056SOL    HW117946  12.478   1.631   3.516 -1.2304  0.0614  0.8839
 3056SOL    HW217947  12.464   1.633   3.666  0.8823  1.5201  1.1025
 3057SOL     OW17948   5.219   8.092   0.799  0.0126  0.0991  0.3664
 3057SOL    HW117949   5.148   8.131   0.748  0.0285  0.5979  0.7166
 3057SOL    HW217950   5.239   8.010   0.754  0.5390  0.8725 -0.8794
 3058SOL     OW17951   8.163   8.743   3.656  0.3709  0.3928  0.5109
 3058SOL    HW117952   8.096   8.808   3.679  0.8177  1.1239 -0.2154
 3058SOL    HW217953   8.153   8.729   3.562  1.0998  0.3638  0.4271
 3059SOL     OW17954   7.160  11.868  10.432  0.4265  0.1146  0.1734
 3059SOL    HW117955   7.178  11.782  10.394 -2.0004  0.2538 -1.5335
 3059SOL    HW217956   7.119  11.848  10.517 -3.0691 -0.7048 -1.5114
 3060SOL     OW17957   0.953   4.258   7.253  0.1944  0.1698 -0.1333
 3060SOL    HW117958   0.892   4.185   7.269 -0.6279  0.3569 -2.1883
 3060SOL    HW217959   1.038   4.224   7.283 -0.6064 -0.6469  1.3924
 3061SOL     OW17960   5.445  11.199  10.095 -0.1848 -0.3408  0.1681
 3061SOL    HW117961   5.499  11.152  10.032 -0.7244 -1.1935  0.3187
 3061SOL    HW217962   5.445  11.143  10.173 -0.6857  0.0017  0.4240
 3062SOL     OW17963  10.903   1.536   5.783  0.4013 -0.1676  0.0924
 3062SOL    HW117964  10.933   1.528   5.693  1.4735  0.6358  0.3617
 3062SOL    HW217965  10.829   1.596   5.779  0.4937 -0.0753 -0.2468
 3063SOL     OW17966   8.444   6.937   4.503  0.0676  0.3038  0.0573
 3063SOL    HW117967   8.530   6.975   4.521  0.0432  0.3169  0.1483
 3063SOL    HW217968   8.382   7.007   4.524 -0.0931 -0.3649  2.0390
 3064SOL     OW17969   2.269   9.148  11.591  0.1009  0.7101 -0.1900
 3064SOL    HW117970   2.243   9.111  11.507  0.5331  0.8225 -0.3798
 3064SOL    HW217971   2.246   9.082  11.655 -0.3696  0.6867 -0.3822
 3065SOL     OW17972  11.928   2.772   5.450  0.0724  0.4127 -0.3822
 3065SOL    HW117973  11.927   2.787   5.544 -1.7861  1.4074 -0.5038
 3065SOL    HW217974  11.878   2.845   5.413 -0.4733 -0.6963 -1.9936
 3066SOL     OW17975   5.490   9.559  10.024 -0.1954  0.4861  0.3426
 3066SOL    HW117976   5.413   9.615  10.030 -0.7220 -0.0187 -1.2889
 3066SOL    HW217977   5.540   9.595   9.951  0.0099 -0.4946 -0.0123
 3067SOL     OW17978   3.150   2.476  10.572 -0.0281  0.3900  0.4415
 3067SOL    HW117979   3.122   2.418  10.501 -1.3737  2.0505 -0.4524
 3067SOL    HW217980   3.099   2.448  10.648  1.5855 -1.5495  0.8995
 3068SOL     OW17981   8.661   4.875   4.552  0.0009 -0.5087 -0.2074
 3068SOL    HW117982   8.588   4.860   4.491 -0.7347  0.6009  0.3581
 3068SOL    HW217983   8.671   4.970   4.553 -1.4668 -0.2712  3.0003
 3069SOL     OW17984  10.231   5.073  12.585 -0.1590  0.3724  0.3095
 3069SOL    HW117985  10.167   5.128  12.539  0.7910  0.3508 -1.1284
 3069SOL    HW217986  10.316   5.109  12.559  0.5401 -2.0642 -1.1657
 3070SOL     OW17987   6.043   4.131   1.270  0.2732  0.3965 -0.3668
 3070SOL    HW117988   6.123   4.156   1.316  0.0220 -1.4730  1.2004
 3070SOL    HW217989   5.981   4.109   1.340 -1.1390  0.3781 -1.5739
 3071SOL     OW17990   3.838   5.388   7.905 -0.0301  0.1262 -0.2877
 3071SOL    HW117991   3.754   5.369   7.862 -0.2328  0.3006  0.0348
 3071SOL    HW217992   3.827   5.475   7.942  1.0343  1.0734 -2.0853
 3072SOL     OW17993   7.804   8.626   1.593  0.4448 -0.1516 -0.0829
 3072SOL    HW117994   7.748   8.556   1.626  0.3012  0.6416  1.4742
 3072SOL    HW217995   7.875   8.632   1.657  0.4251  1.1417 -0.1502
 3073SOL     OW17996   8.152  10.498   4.069  0.2511  0.0575  0.0236
 3073SOL    HW117997   8.172  10.552   3.992  0.9385  1.1259  0.9129
 3073SOL    HW217998   8.147  10.561   4.141  1.5771 -1.1057  1.1899
 3074SOL     OW17999   0.365   5.308   1.370  0.0040 -0.2804  0.5710
 3074SOL    HW118000   0.302   5.336   1.304  0.0250  1.4356  1.2297
 3074SOL    HW218001   0.387   5.388   1.418  0.3490 -1.3886  2.3476
 3075SOL     OW18002   0.252   9.581   5.214  0.4571 -0.4251 -0.2661
 3075SOL    HW118003   0.191   9.607   5.145 -0.8313 -3.4568 -0.4324
 3075SOL    HW218004   0.290   9.664   5.246 -1.9888  1.3932 -1.7465
 3076SOL     OW18005   4.537   4.251   9.086  0.3574  0.4398  0.2204
 3076SOL    HW118006   4.539   4.160   9.055  2.8922  0.8021 -0.9731
 3076SOL    HW218007   4.547   4.244   9.181 -0.5892 -0.5240  0.2731
 3077SOL     OW18008   7.345   8.354   3.387 -0.3722  0.8597 -0.9996
 3077SOL    HW118009   7.303   8.383   3.468  1.0597 -0.9707  0.4986
 3077SOL    HW218010   7.437   8.340   3.412 -0.0812 -0.5770 -2.6926
 3078SOL     OW18011   0.309   1.598  10.347  0.7296 -0.3615 -0.1825
 3078SOL    HW118012   0.402   1.576  10.332  1.1375  1.0214  0.1925
 3078SOL    HW218013   0.312   1.676  10.402 -0.6657  0.4916 -1.2738
 3079SOL     OW18014   5.316   1.001   3.079 -0.1040 -0.0319 -0.1985
 3079SOL    HW118015   5.269   1.055   3.016 -1.4062 -1.3381 -0.3792
 3079SOL    HW218016   5.389   0.965   3.029 -0.3771 -0.0277 -0.6015
 3080SOL     OW18017   3.815   7.414   1.909 -0.5379 -0.1343  0.7479
 3080SOL    HW118018   3.788   7.325   1.930 -0.6986 -0.0556  0.8739
 3080SOL    HW218019   3.769   7.469   1.973 -0.6612  0.0648  0.4871
 3081SOL     OW18020   6.300   1.649   1.854  0.0446  0.0119 -0.2131
 3081SOL    HW118021   6.290   1.684   1.765 -1.3168 -2.5960 -1.1894
 3081SOL    HW218022   6.363   1.707   1.896 -1.4041  3.0625 -1.9027
 3082SOL     OW18023   2.672   9.548  12.337 -0.1695  1.0635 -0.5738
 3082SOL    HW118024   2.626   9.466  12.358 -0.2155  1.5775  1.5431
 3082SOL    HW218025   2.602   9.612  12.325 -0.0896  1.0619 -1.0945
 3083SOL     OW18026   0.568   0.188   1.386 -0.1813  0.6515  0.1869
 3083SOL    HW118027   0.622   0.156   1.458 -0.2984 -0.2661 -0.1227
 3083SOL    HW218028   0.583   0.126   1.315 -1.6756  0.3254  0.1109
 3084SOL     OW18029   2.408   1.099   7.751  0.5494 -0.3664  0.0326
 3084SOL    HW118030   2.394   1.139   7.665  0.6059 -0.2059  0.0979
 3084SOL    HW218031   2.325   1.110   7.797  1.2504  1.7747  0.9082
 3085SOL     OW18032  10.293   4.380   1.926 -0.4681  0.5479  0.9226
 3085SOL    HW118033  10.331   4.419   1.848 -0.8879  0.0439  0.4566
 3085SOL    HW218034  10.207   4.421   1.934 -0.5481  0.3779  0.9457
 3086SOL     OW18035  10.041  11.185   5.178  0.3879  0.1227 -0.3264
 3086SOL    HW118036  10.104  11.156   5.244  5.4317  2.9330 -3.2613
 3086SOL    HW218037  10.054  11.126   5.104 -2.0285 -0.3847 -0.4333
 3087SOL     OW18038   7.325   2.257  10.166 -0.0590 -0.4450 -0.1635
 3087SOL    HW118039   7.326   2.223  10.076 -0.5980 -0.0228 -0.3345
 3087SOL    HW218040   7.391   2.326  10.166 -1.2868  0.7985 -0.7522
 3088SOL     OW18041   6.810   3.564   9.708  0.3158  0.5507 -0.0260
 3088SOL    HW118042   6.882   3.612   9.669 -0.8388  0.8965 -1.8615
 3088SOL    HW218043   6.804   3.483   9.657  0.5792 -0.3540  1.3323
 3089SOL     OW18044  10.159   0.350   8.447  0.2902  0.2077  0.8221
 3089SOL    HW118045  10.102   0.281   8.481  0.9950 -0.4527  0.7165
 3089SOL    HW218046  10.157   0.339   8.352 -0.6556  1.2163  0.7099
 3090SOL     OW18047  12.575   7.637   7.410 -0.5340 -0.9625  0.0829
 3090SOL    HW118048  12.489   7.665   7.439 -0.3796 -0.7240  0.3154
 3090SOL    HW218049  12.560   7.593   7.326 -0.7502 -0.0281 -0.3697
 3091SOL     OW18050   2.213   4.419  10.998 -0.1238 -0.3579  0.5089
 3091SOL    HW118051   2.123   4.445  11.016  0.1043 -0.0486  1.2685
 3091SOL    HW218052   2.255   4.416  11.085  1.0787  1.3173  0.0472
 3092SOL     OW18053  10.893  11.631   8.855  0.4228  0.8594 -0.2220
 3092SOL    HW118054  10.848  11.667   8.779  2.0264 -1.6680 -2.5566
 3092SOL    HW218055  10.825  11.586   8.905 -0.2494  0.1568 -1.7267
 3093SOL     OW18056   4.939   2.547   2.026 -0.0337 -0.0960  0.0536
 3093SOL    HW118057   5.019   2.596   2.039  0.1476 -0.5328  0.6045
 3093SOL    HW218058   4.906   2.577   1.941 -0.5960  1.9018  0.9316
 3094SOL     OW18059   2.957   7.219  11.153  0.2815  0.1637 -0.0007
 3094SOL    HW118060   2.965   7.313  11.136  0.7011  0.2228  0.4916
 3094SOL    HW218061   3.012   7.178  11.086 -0.0440  0.2535 -0.3288
 3095SOL     OW18062   6.817  11.848   9.574  0.1153  0.1414 -0.1141
 3095SOL    HW118063   6.849  11.894   9.497  0.7784  0.0160  0.0773
 3095SOL    HW218064   6.892  11.847   9.634  0.3255 -1.6744 -0.3477
 3096SOL     OW18065   3.771   0.664  11.137 -0.7030 -0.1346 -0.2662
 3096SOL    HW118066   3.735   0.613  11.064 -2.0116  1.1695 -0.5835
 3096SOL    HW218067   3.698   0.718  11.167  0.6394  1.6442 -0.0212
 3097SOL     OW18068   6.074   1.543   7.331 -0.4533 -0.4977  0.3800
 3097SOL    HW118069   6.095   1.534   7.424  0.2594 -1.7179  0.1189
 3097SOL    HW218070   6.082   1.454   7.295  0.9383  0.2103 -1.1940
 3098SOL     OW18071   6.731   5.036  10.742 -0.2285  0.1026 -0.0531
 3098SOL    HW118072   6.764   5.110  10.794 -0.1195 -0.7380  1.1083
 3098SOL    HW218073   6.742   5.064  10.651 -1.1691  1.9451  0.3599
 3099SOL     OW18074   4.865  12.144  10.932 -0.1542  0.1662  0.1482
 3099SOL    HW118075   4.925  12.195  10.877  1.8202 -1.8698  0.2652
 3099SOL    HW218076   4.808  12.098  10.871  1.6924 -1.6816 -0.3025
 3100SOL     OW18077  10.980   2.956   9.510  0.2871  0.1313 -0.2993
 3100SOL    HW118078  10.903   2.927   9.559  1.5203 -0.2646  1.5582
 3100SOL    HW218079  10.984   3.050   9.525  0.0571  0.1762 -0.5327
 3101SOL     OW18080   4.609  10.117   3.467  0.5167 -0.2842 -0.1293
 3101SOL    HW118081   4.581  10.195   3.515  0.7248 -0.7659  0.7951
 3101SOL    HW218082   4.655  10.151   3.391 -0.1864  0.4991 -0.2216
 3102SOL     OW18083   7.169   0.252   0.176  0.4979 -0.3607  0.6078
 3102SOL    HW118084   7.175   0.158   0.159 -0.1234 -0.4906  1.0825
 3102SOL    HW218085   7.114   0.286   0.106 -0.0418 -0.5019  0.9608
 3103SOL     OW18086   1.092   6.154   1.118  0.4288  0.2739  0.2580
 3103SOL    HW118087   1.152   6.084   1.095  0.0187 -0.1080  0.3379
 3103SOL    HW218088   1.110   6.173   1.210  2.6099  2.3319 -0.4949
 3104SOL     OW18089   5.551   9.630   5.439 -0.1690 -0.2495 -0.6599
 3104SOL    HW118090   5.636   9.656   5.475 -1.0322  0.9954  0.5881
 3104SOL    HW218091   5.524   9.556   5.494 -0.4340  0.1466 -0.2511
 3105SOL     OW18092   7.974   1.423   5.794  0.5468  0.3500 -0.1017
 3105SOL    HW118093   7.999   1.410   5.703  0.5974 -0.0103 -0.0371
 3105SOL    HW218094   7.929   1.508   5.795 -0.8379 -0.3382 -0.7446
 3106SOL     OW18095  11.131   0.699   0.471 -0.0345  0.7354  0.0143
 3106SOL    HW118096  11.152   0.605   0.469 -1.5964  0.3594 -0.3268
 3106SOL    HW218097  11.163   0.729   0.556  3.8743  0.8014 -1.2924
 3107SOL     OW18098   9.475  12.201   8.278  0.2978 -0.4778 -0.2584
 3107SOL    HW118099   9.570  12.184   8.284  0.2215 -0.4603  2.1944
 3107SOL    HW218100   9.436  12.114   8.288  0.0524 -0.2698  0.6641
 3108SOL     OW18101  12.282   8.730   1.127  0.2865 -0.0282 -0.1460
 3108SOL    HW118102  12.224   8.807   1.121 -1.7609 -1.5018 -0.2384
 3108SOL    HW218103  12.241   8.675   1.194  0.6344 -1.9017 -1.4155
 3109SOL     OW18104   4.404   0.281   1.422  0.3677  0.2157 -0.2863
 3109SOL    HW118105   4.315   0.303   1.394  0.0265 -0.8896 -0.1123
 3109SOL    HW218106   4.460   0.336   1.367 -0.4148  1.0605 -0.2737
 3110SOL     OW18107   8.407   6.297   6.795 -0.2463 -0.0355  0.2942
 3110SOL    HW118108   8.443   6.248   6.720  0.4331 -0.5913  0.9704
 3110SOL    HW218109   8.483   6.313   6.851 -0.6850  0.7106  0.6910
 3111SOL     OW18110   0.546   5.607   5.310  0.1548  0.6313  0.4789
 3111SOL    HW118111   0.479   5.547   5.277  0.3185  1.4051 -1.3504
 3111SOL    HW218112   0.586   5.560   5.384  0.5545 -1.7116 -1.1320
 3112SOL     OW18113   5.523  11.806   3.654  0.1404 -0.0735 -0.4695
 3112SOL    HW118114   5.511  11.720   3.614  0.6081 -1.7337  2.6486
 3112SOL    HW218115   5.605  11.838   3.618 -0.9821  0.0371 -3.1391
 3113SOL     OW18116  11.087   3.543   5.834 -0.2670 -0.0855 -0.9582
 3113SOL    HW118117  10.999   3.575   5.853 -0.7315 -1.7020 -0.1431
 3113SOL    HW218118  11.089   3.533   5.739 -1.5355 -1.4553 -0.8837
 3114SOL     OW18119   9.959   5.937   6.105 -0.4240 -0.6758  0.1284
 3114SOL    HW118120  10.046   5.910   6.077 -0.9092 -0.4459 -1.6828
 3114SOL    HW218121   9.957   6.031   6.087 -0.3836 -0.2668  2.0267
 3115SOL     OW18122   8.223   0.397  10.648 -0.3425  0.4592 -0.0118
 3115SOL    HW118123   8.203   0.306  10.672 -1.1765  0.8477  0.8201
 3115SOL    HW218124   8.306   0.392  10.601 -1.0340 -0.9112 -1.1794
 3116SOL     OW18125   6.091   2.963   3.215 -0.2901 -0.1167 -0.3850
 3116SOL    HW118126   6.081   3.055   3.191 -0.6742 -0.4214 -1.4597
 3116SOL    HW218127   6.150   2.963   3.290 -0.3339  1.0056 -0.3455
 3117SOL     OW18128   7.880   0.138   8.755  0.1389  0.0083 -0.2667
 3117SOL    HW118129   7.810   0.079   8.727 -1.4751  0.7988  1.8516
 3117SOL    HW218130   7.954   0.080   8.771 -0.6254 -1.1207 -0.6498
 3118SOL     OW18131   9.168   4.029   2.152 -0.4150  0.2205  0.4136
 3118SOL    HW118132   9.170   4.057   2.061 -0.0959  2.4561  1.0568
 3118SOL    HW218133   9.255   4.048   2.186 -0.3702 -1.0427  1.0990
 3119SOL     OW18134   0.689   2.027  12.322  0.3107  0.2818  0.6491
 3119SOL    HW118135   0.702   1.971  12.399 -0.0709 -0.3363  0.2772
 3119SOL    HW218136   0.614   2.082  12.344  1.7138  1.8905  1.6951
 3120SOL     OW18137   0.588   4.903   6.022 -0.1218  0.6250 -0.7656
 3120SOL    HW118138   0.497   4.876   6.011  0.4323 -1.6544 -0.2317
 3120SOL    HW218139   0.635   4.860   5.950  0.8743 -0.2022  0.3468
 3121SOL     OW18140   3.864   7.120   5.229  0.7220  0.2902 -0.3201
 3121SOL    HW118141   3.947   7.072   5.230  0.6503  0.1808  0.2504
 3121SOL    HW218142   3.802   7.060   5.188  0.6033 -0.1647  0.5061
 3122SOL     OW18143   9.859  11.893   2.191  0.1587  0.0560  0.0643
 3122SOL    HW118144   9.797  11.932   2.252 -1.3187 -1.8322 -0.1618
 3122SOL    HW218145   9.937  11.876   2.244 -0.3976  0.2036  0.9521
 3123SOL     OW18146   8.567   1.049  12.134  0.3279  0.4665 -0.2299
 3123SOL    HW118147   8.607   0.992  12.200 -0.3205 -0.1516 -0.3571
 3123SOL    HW218148   8.491   1.087  12.178 -0.0005  0.1960 -0.5545
 3124SOL     OW18149   6.770   7.586   8.833  0.0865  0.2634 -0.3864
 3124SOL    HW118150   6.768   7.678   8.809  1.3277 -0.0040 -1.6503
 3124SOL    HW218151   6.704   7.545   8.777 -1.0262  0.4654  0.7253
 3125SOL     OW18152  10.988   1.673   9.419 -0.0459 -0.5500 -0.2510
 3125SOL    HW118153  10.944   1.751   9.453 -0.5378 -0.7670 -0.3673
 3125SOL    HW218154  11.058   1.656   9.482  2.0802  1.7447 -1.8083
 3126SOL     OW18155  10.482   4.179  10.427  0.3023  0.0113 -0.7318
 3126SOL    HW118156  10.564   4.168  10.475  0.7447 -0.9767 -1.6727
 3126SOL    HW218157  10.417   4.201  10.494  1.3579  0.9768  0.0021
 3127SOL     OW18158   6.151   9.468   8.986  0.5868 -0.8067  0.0738
 3127SOL    HW118159   6.223   9.456   8.924 -0.0363 -0.3507 -0.7542
 3127SOL    HW218160   6.113   9.381   8.996  2.6645 -1.5715  2.3384
 3128SOL     OW18161   7.173   6.635   4.739 -0.4668  0.0763  1.0203
 3128SOL    HW118162   7.269   6.636   4.741 -0.4478  1.8829  1.0619
 3128SOL    HW218163   7.149   6.559   4.792  0.9417 -0.3074  1.1473
 3129SOL     OW18164   0.528   6.031   6.771 -0.5153 -0.0610  0.5892
 3129SOL    HW118165   0.484   6.063   6.692  0.9130 -0.2282 -0.3108
 3129SOL    HW218166   0.458   6.020   6.835 -1.8305 -0.6662 -0.8881
 3130SOL     OW18167   3.838   9.630   9.706  0.4053 -0.0588  0.1264
 3130SOL    HW118168   3.903   9.660   9.769  0.7161 -0.9694  0.2560
 3130SOL    HW218169   3.800   9.551   9.746  0.0052 -0.1599 -0.4410
 3131SOL     OW18170   6.444   6.080   9.187  0.7222 -0.1746  0.5487
 3131SOL    HW118171   6.438   6.170   9.156 -0.1909 -0.5930 -0.5583
 3131SOL    HW218172   6.405   6.081   9.274  0.0400  0.3679  0.2421
 3132SOL     OW18173   5.019   0.374   3.911  0.0823  0.3470 -0.2473
 3132SOL    HW118174   4.964   0.418   3.977 -0.1667 -0.6906  0.2578
 3132SOL    HW218175   4.957   0.344   3.845  0.1578  0.0718 -0.1938
 3133SOL     OW18176   1.860   7.602  12.512 -0.0933 -0.1983 -0.1487
 3133SOL    HW118177   1.915   7.653  12.453  2.5277 -0.3720  1.9372
 3133SOL    HW218178   1.875   7.641  12.598 -2.9182 -0.6198  0.6394
 3134SOL     OW18179   8.433   4.613   2.567 -0.0979  0.1219  0.1214
 3134SOL    HW118180   8.515   4.600   2.519  0.1287  2.3353 -0.2325
 3134SOL    HW218181   8.366   4.573   2.512  0.7036 -1.7196  0.4081
 3135SOL     OW18182  11.250  10.107   2.519  0.0365  0.0870  0.3521
 3135SOL    HW118183  11.161  10.132   2.494 -0.9485 -2.9670  0.4009
 3135SOL    HW218184  11.243  10.086   2.612  1.2507  1.3600  0.7729
 3136SOL     OW18185   6.451   4.872  10.089  0.4940  0.1906 -0.1004
 3136SOL    HW118186   6.436   4.779  10.072 -1.7585  0.5021 -0.1068
 3136SOL    HW218187   6.434   4.882  10.183  0.0707  0.6916 -0.2266
 3137SOL     OW18188   2.456   3.610   2.904 -0.6918 -0.2794  0.3721
 3137SOL    HW118189   2.416   3.569   2.827  0.4479  0.8853 -0.9025
 3137SOL    HW218190   2.522   3.547   2.933  1.0616  0.5612 -1.5799
 3138SOL     OW18191   5.064   6.994   3.506 -0.3561  0.3026  0.1034
 3138SOL    HW118192   4.981   6.959   3.539 -0.2250  0.9723  1.1675
 3138SOL    HW218193   5.046   7.014   3.414 -1.4807  0.7632  0.4125
 3139SOL     OW18194  11.161  11.569  11.849  0.4916  0.2223 -0.0233
 3139SOL    HW118195  11.113  11.627  11.907  0.9788 -0.5454  1.1738
 3139SOL    HW218196  11.186  11.495  11.903  0.9351 -0.5424 -1.2207
 3140SOL     OW18197  10.147   1.731   9.735  0.0908 -0.0835  0.1573
 3140SOL    HW118198  10.061   1.708   9.700 -0.2032 -0.3629  1.0253
 3140SOL    HW218199  10.129   1.761   9.824  0.7617  1.0625 -0.0773
 3141SOL     OW18200   2.038  11.469  11.860  0.3489 -0.4410  0.6442
 3141SOL    HW118201   2.077  11.513  11.936 -0.4136 -0.7936  1.2480
 3141SOL    HW218202   2.009  11.385  11.894  0.6190 -0.8877 -0.2070
 3142SOL     OW18203   0.308   0.926   4.239  0.5093  0.2128 -0.6482
 3142SOL    HW118204   0.232   0.957   4.191  0.9633 -0.8827 -2.1340
 3142SOL    HW218205   0.272   0.886   4.319 -0.4957 -0.5121 -1.4469
 3143SOL     OW18206   0.832   4.030   9.397  0.5427  0.3680 -0.3533
 3143SOL    HW118207   0.923   4.059   9.396  0.8346 -0.5097 -0.5823
 3143SOL    HW218208   0.800   4.047   9.309  0.7198 -0.0134 -0.4939
 3144SOL     OW18209   1.865   6.683   6.850  0.1180 -0.1724  0.0903
 3144SOL    HW118210   1.893   6.772   6.829 -0.1361 -0.3404 -1.0229
 3144SOL    HW218211   1.821   6.691   6.934 -1.3490  1.0722 -0.7357
 3145SOL     OW18212  11.777  12.262   3.928  0.2343  0.0361  0.2806
 3145SOL    HW118213  11.706  12.313   3.968 -0.5221 -0.8284  0.0628
 3145SOL    HW218214  11.848  12.266   3.992  0.5250  2.0652 -0.0887
 3146SOL     OW18215   4.559   5.540   0.118  0.0634  0.0431 -0.4474
 3146SOL    HW118216   4.569   5.449   0.089  1.1848 -0.2089  0.6492
 3146SOL    HW218217   4.471   5.544   0.155  0.8758 -1.3172  1.8202
 3147SOL     OW18218   6.161   1.515   9.343  0.3365 -0.0120 -0.2786
 3147SOL    HW118219   6.224   1.531   9.272 -0.2149 -0.8460 -0.9801
 3147SOL    HW218220   6.093   1.461   9.302 -1.0304  1.1616  0.3734
 3148SOL     OW18221   4.661   8.910  11.927  1.1971 -0.0479 -0.1440
 3148SOL    HW118222   4.567   8.894  11.927  1.3498 -1.0168  0.2684
 3148SOL    HW218223   4.685   8.913  11.834  0.5810  1.4110 -0.2801
 3149SOL     OW18224  11.281   6.209   6.093 -0.3024  0.4955  0.3162
 3149SOL    HW118225  11.259   6.170   6.177 -1.2055  1.0871  0.3579
 3149SOL    HW218226  11.248   6.299   6.098  0.5140  0.8471 -0.2995
 3150SOL     OW18227   8.879   9.598   8.391  0.4429  0.1023  0.6698
 3150SOL    HW118228   8.928   9.671   8.429  0.9788  0.5432 -0.8191
 3150SOL    HW218229   8.789   9.631   8.386  0.8903  1.1509 -1.1065
 3151SOL     OW18230   1.651   0.984   1.561  0.2552 -0.4540 -0.8119
 3151SOL    HW118231   1.664   0.981   1.466 -0.0378 -0.4706 -0.8520
 3151SOL    HW218232   1.559   1.007   1.571  0.1084 -1.1790 -0.5259
 3152SOL     OW18233   9.790   3.513   8.501  0.4917  0.2404  0.2461
 3152SOL    HW118234   9.760   3.570   8.430  1.3691  0.2012 -0.1584
 3152SOL    HW218235   9.709   3.487   8.546 -0.2395 -0.9128 -1.6132
 3153SOL     OW18236   6.462   8.401   8.618  0.2431 -0.2848 -0.6460
 3153SOL    HW118237   6.425   8.470   8.674 -0.7428 -1.4341  0.1730
 3153SOL    HW218238   6.511   8.345   8.678  0.2618 -0.8180 -1.1463
 3154SOL     OW18239   4.849  11.972  10.282  0.0111 -0.2951  0.7649
 3154SOL    HW118240   4.792  12.032  10.233 -0.6411 -0.2168  1.6012
 3154SOL    HW218241   4.881  11.910  10.216 -1.8327 -0.9562  0.4264
 3155SOL     OW18242   2.296   0.725   7.692 -0.2125  0.6788 -0.2502
 3155SOL    HW118243   2.372   0.764   7.736  0.0779 -0.6690  0.4855
 3155SOL    HW218244   2.326   0.709   7.603 -0.0288  1.2421 -0.2941
 3156SOL     OW18245   9.056   2.897   1.398 -0.1687 -0.1274  0.4426
 3156SOL    HW118246   9.002   2.901   1.319  0.0321 -0.2482  0.2982
 3156SOL    HW218247   9.054   2.805   1.424  0.8331 -0.3487 -0.1775
 3157SOL     OW18248  12.155   0.118   5.175  0.2123  0.7406 -0.0920
 3157SOL    HW118249  12.147   0.055   5.103 -1.6846 -1.3441  1.8121
 3157SOL    HW218250  12.074   0.168   5.171  1.3659  2.6491 -1.0964
 3158SOL     OW18251   5.027  12.228   8.840 -0.3553 -0.4248  0.0845
 3158SOL    HW118252   5.009  12.161   8.905 -0.6763 -0.4645 -0.0416
 3158SOL    HW218253   5.047  12.307   8.891 -0.6740 -0.4372  0.2320
 3159SOL     OW18254  11.959   0.627   2.355  0.0664  0.1308  0.9581
 3159SOL    HW118255  11.986   0.624   2.264 -0.1147  1.1908  0.8576
 3159SOL    HW218256  11.976   0.538   2.388  1.5735  0.1464  0.3188
 3160SOL     OW18257   6.443   5.668   0.834 -0.1372 -0.4490  0.3283
 3160SOL    HW118258   6.435   5.713   0.918 -1.5026 -0.9454  0.4933
 3160SOL    HW218259   6.474   5.580   0.856 -2.1552 -1.1558  0.5315
 3161SOL     OW18260  11.843   3.658  11.619 -1.0367  0.0235  0.5196
 3161SOL    HW118261  11.907   3.637  11.552 -1.1387  0.5458  0.2552
 3161SOL    HW218262  11.880   3.622  11.700 -1.0615 -0.8871  0.1400
 3162SOL     OW18263   2.574  12.241   8.506 -0.0331  0.0826 -0.0183
 3162SOL    HW118264   2.505  12.299   8.537  0.2825  0.6191 -0.2913
 3162SOL    HW218265   2.568  12.164   8.562 -0.7337  0.1991  0.0749
 3163SOL     OW18266  12.113   9.062  10.993  0.0026 -0.0208  0.0370
 3163SOL    HW118267  12.081   9.151  11.006 -0.4869 -0.0445 -0.8883
 3163SOL    HW218268  12.113   9.050  10.898  0.6830 -0.7881  0.1144
 3164SOL     OW18269   2.095   2.605   0.299 -0.2013 -0.2670 -0.0052
 3164SOL    HW118270   2.063   2.686   0.258  0.6916  0.0347 -0.1147
 3164SOL    HW218271   2.190   2.611   0.294 -0.1174 -1.1395  0.3605
 3165SOL     OW18272  12.499  10.990   8.024 -0.6428 -0.1707 -0.0535
 3165SOL    HW118273  12.429  10.987   8.090 -0.9530 -1.8820 -0.4012
 3165SOL    HW218274  12.495  10.904   7.982  2.3806 -0.7778  0.6585
 3166SOL     OW18275  10.574   2.812   9.357  0.3946  0.3953 -0.3200
 3166SOL    HW118276  10.583   2.832   9.264  0.4346 -0.0213 -0.4077
 3166SOL    HW218277  10.486   2.775   9.365 -0.1960  1.8067  0.0593
 3167SOL     OW18278  12.462  11.380   1.690 -0.1950 -0.0791 -0.3409
 3167SOL    HW118279  12.552  11.410   1.675 -0.6538  0.6270 -1.9632
 3167SOL    HW218280  12.410  11.460   1.689 -0.9607 -0.5712 -0.4906
 3168SOL     OW18281   0.939   0.909   2.746 -0.3798 -0.4576  0.0051
 3168SOL    HW118282   0.856   0.875   2.713 -0.3005 -3.3104  2.2857
 3168SOL    HW218283   0.918   0.937   2.836  0.9725 -0.7409  0.4273
 3169SOL     OW18284   0.465   2.529   5.151 -0.2043 -0.3061  0.0019
 3169SOL    HW118285   0.377   2.556   5.178  0.3127  1.1941  0.3230
 3169SOL    HW218286   0.474   2.563   5.062  0.3723  0.3851  0.3151
 3170SOL     OW18287   6.284   3.146   2.892  0.3435  0.1429  0.3117
 3170SOL    HW118288   6.327   3.173   2.973  1.3343  1.1920 -0.5438
 3170SOL    HW218289   6.244   3.226   2.857  1.1803  0.0183 -0.9812
 3171SOL     OW18290  11.280   6.272   0.088  0.0927  0.0905 -0.3452
 3171SOL    HW118291  11.259   6.185   0.122  0.7532 -0.4798 -1.3267
 3171SOL    HW218292  11.352   6.256   0.026 -0.9588  1.0814 -1.8905
 3172SOL     OW18293   5.512   0.020   9.748 -0.4807  0.5721 -0.4294
 3172SOL    HW118294   5.561  -0.052   9.788  1.3622  1.8489 -0.2476
 3172SOL    HW218295   5.443  -0.023   9.698  0.6417 -1.3402 -0.4421
 3173SOL     OW18296   4.045   6.855   3.128 -0.0600  0.2649  0.0269
 3173SOL    HW118297   4.003   6.769   3.137 -0.9723  0.5431 -1.1951
 3173SOL    HW218298   4.114   6.841   3.063 -0.6802  0.5904 -0.7185
 3174SOL     OW18299   7.256   0.425   8.921 -0.5897  0.5615  0.0267
 3174SOL    HW118300   7.188   0.470   8.872 -2.8025 -1.7969  0.7014
 3174SOL    HW218301   7.327   0.410   8.858 -1.4024  1.5700 -1.1604
 3175SOL     OW18302   9.171  11.753   1.177  0.2919  0.2054  0.1166
 3175SOL    HW118303   9.129  11.743   1.263  0.5574 -0.5356  0.1655
 3175SOL    HW218304   9.211  11.840   1.180  1.2553 -0.2449  1.1804
 3176SOL     OW18305   1.695   6.200   7.245 -0.3371  1.0033 -0.0929
 3176SOL    HW118306   1.628   6.158   7.192  0.1663 -1.0207  0.7845
 3176SOL    HW218307   1.762   6.132   7.257  0.2901  1.8904  1.8210
 3177SOL     OW18308  10.090   2.920   3.508  0.3220 -0.0121 -0.4088
 3177SOL    HW118309  10.055   3.005   3.485  0.9269  0.1686 -0.6844
 3177SOL    HW218310  10.036   2.891   3.582 -1.6311 -0.5986 -1.9810
 3178SOL     OW18311  10.856   7.803   1.942 -0.4373 -0.2173 -0.1013
 3178SOL    HW118312  10.857   7.843   1.855  1.9011 -0.4386 -0.2296
 3178SOL    HW218313  10.794   7.857   1.992 -0.5797  0.9208 -1.4470
 3179SOL     OW18314   9.318  12.135   2.414 -0.7469 -0.1693 -0.2210
 3179SOL    HW118315   9.371  12.214   2.417 -0.7610 -0.1428 -0.6129
 3179SOL    HW218316   9.228  12.166   2.423 -0.8408 -0.0278 -1.4251
 3180SOL     OW18317   3.491   0.565   0.187  0.7841  0.2209 -0.2824
 3180SOL    HW118318   3.568   0.510   0.198  1.6183  1.4360  0.1096
 3180SOL    HW218319   3.468   0.594   0.275 -0.6520 -0.7962 -0.2847
 3181SOL     OW18320   7.980   5.689   0.247 -0.0509  0.6415 -0.3300
 3181SOL    HW118321   7.984   5.637   0.167 -0.2207  0.5619 -0.2870
 3181SOL    HW218322   7.925   5.639   0.306  0.5209  0.4339  0.0345
 3182SOL     OW18323   6.389   2.260   8.262  0.6430 -0.1043 -0.3434
 3182SOL    HW118324   6.327   2.241   8.332 -0.9902 -1.5692 -2.0690
 3182SOL    HW218325   6.475   2.246   8.302 -0.2076 -0.7149  1.4084
 3183SOL     OW18326  10.673   6.460   8.375 -0.0253  0.5594  0.2142
 3183SOL    HW118327  10.681   6.526   8.307  0.6549  0.1738 -0.0864
 3183SOL    HW218328  10.755   6.466   8.424  0.0376 -0.0459  0.1924
 3184SOL     OW18329   5.115   5.675   8.857 -0.7333  0.0010 -0.4448
 3184SOL    HW118330   5.156   5.749   8.901  0.2129 -0.4976 -0.4532
 3184SOL    HW218331   5.043   5.650   8.914  1.8041 -2.1037  2.1951
 3185SOL     OW18332  12.276   7.047   2.273 -0.3515 -0.1597  0.0842
 3185SOL    HW118333  12.310   6.960   2.256  1.2231  0.5885 -0.8457
 3185SOL    HW218334  12.323   7.077   2.351 -0.9136 -0.1464  0.4253
 3186SOL     OW18335  12.102  10.106   0.646 -0.3060  0.2415  0.4820
 3186SOL    HW118336  12.010  10.129   0.633 -0.2241  1.2554  1.5200
 3186SOL    HW218337  12.129  10.067   0.563 -0.9265  2.4575 -0.8282
 3187SOL     OW18338   6.187  10.426  11.624 -0.2630 -0.3441 -0.5422
 3187SOL    HW118339   6.112  10.372  11.650 -0.1476 -0.2741 -0.0516
 3187SOL    HW218340   6.251  10.364  11.592  0.5338 -0.7084  1.5891
 3188SOL     OW18341   7.258   6.452   3.018 -0.7318  0.4783 -0.3215
 3188SOL    HW118342   7.219   6.495   2.942 -2.7428 -1.2302 -0.3576
 3188SOL    HW218343   7.298   6.373   2.983 -0.2671  0.4743  0.2075
 3189SOL     OW18344   8.525   6.574   2.246  0.3206 -0.1856 -0.4874
 3189SOL    HW118345   8.441   6.588   2.290 -0.0029 -1.6067 -0.5824
 3189SOL    HW218346   8.591   6.596   2.311 -0.1168  1.0705 -0.4506
 3190SOL     OW18347  10.855  12.412   3.453  0.1366 -0.0716  0.3385
 3190SOL    HW118348  10.760  12.426   3.454 -0.1145 -1.5605  1.5148
 3190SOL    HW218349  10.892  12.499   3.441 -1.3447  0.7928  1.6114
 3191SOL     OW18350   2.378  12.323   0.273  0.2544 -0.6640 -0.3636
 3191SOL    HW118351   2.301  12.280   0.237 -0.2381 -0.9028  0.9274
 3191SOL    HW218352   2.447  12.257   0.270 -0.1239 -1.0954  0.2973
 3192SOL     OW18353  10.114   9.115   0.487 -0.1385  0.1602 -0.2515
 3192SOL    HW118354  10.160   9.055   0.427  1.1970 -0.7108  1.5543
 3192SOL    HW218355  10.182   9.145   0.547 -1.7096 -0.2649  1.8349
 3193SOL     OW18356   1.500   6.953   4.405  0.1475 -0.3569  0.0875
 3193SOL    HW118357   1.558   6.898   4.458 -0.6995  0.3389  1.8361
 3193SOL    HW218358   1.553   7.030   4.385 -0.1362  0.3061  1.7322
 3194SOL     OW18359   1.297   1.630  10.323  0.1440 -0.1619  0.0660
 3194SOL    HW118360   1.356   1.556  10.307  0.5525  0.2754 -0.5063
 3194SOL    HW218361   1.352   1.695  10.366 -0.7679 -1.0383  2.7901
 3195SOL     OW18362   6.369  11.002   5.767  0.1002 -0.5666 -0.1286
 3195SOL    HW118363   6.445  11.059   5.760 -0.2395 -0.0546  0.2613
 3195SOL    HW218364   6.327  11.028   5.849 -1.9132  0.9319 -1.5518
 3196SOL     OW18365  10.102   1.784   7.269 -0.3794  0.3726 -0.4768
 3196SOL    HW118366  10.030   1.748   7.321  0.3993 -0.7509 -0.1368
 3196SOL    HW218367  10.153   1.707   7.243  1.1234  1.1907 -0.0583
 3197SOL     OW18368   7.373   2.161   8.336  0.1731  0.4510 -0.4550
 3197SOL    HW118369   7.453   2.117   8.309 -0.7143 -0.7048 -1.3312
 3197SOL    HW218370   7.342   2.207   8.258 -0.4095  0.2493 -0.3507
 3198SOL     OW18371  10.103   6.726   0.211  0.2614 -0.0503  0.2732
 3198SOL    HW118372  10.186   6.684   0.236  0.8697  1.9882  1.8615
 3198SOL    HW218373  10.047   6.717   0.287 -0.0989  0.7552  0.1140
 3199SOL     OW18374   5.137   7.153   4.159  0.0984 -0.5371 -0.1460
 3199SOL    HW118375   5.076   7.121   4.092  1.0843 -0.0332 -1.3168
 3199SOL    HW218376   5.195   7.078   4.175  0.6695 -0.2428 -0.8219
 3200SOL     OW18377   6.307   7.931   4.463 -0.1264  0.1060 -0.3051
 3200SOL    HW118378   6.343   7.931   4.552 -0.4271 -1.3661 -0.1564
 3200SOL    HW218379   6.239   7.863   4.465 -0.6808  0.6055 -1.4545
 3201SOL     OW18380   6.027   9.202  10.485  0.1627 -0.1269  0.2250
 3201SOL    HW118381   6.032   9.250  10.568 -0.4941  0.7433 -0.2213
 3201SOL    HW218382   6.117   9.195  10.455  0.3593 -0.0745  0.8008
 3202SOL     OW18383  11.502   2.828   9.504  0.0396 -0.0355 -0.0781
 3202SOL    HW118384  11.440   2.895   9.533  1.5625  1.2963  0.3260
 3202SOL    HW218385  11.547   2.868   9.430 -0.7178 -1.6426 -1.4527
 3203SOL     OW18386   4.862   4.636  12.111  0.3984  0.4958  0.0978
 3203SOL    HW118387   4.875   4.566  12.175  1.2106  0.8199  0.3135
 3203SOL    HW218388   4.918   4.612  12.037 -1.2614 -0.3635 -0.9334
 3204SOL     OW18389   1.570   9.307   6.988 -0.1099  0.2329  0.2362
 3204SOL    HW118390   1.558   9.342   7.077 -1.0848 -0.9581  0.5985
 3204SOL    HW218391   1.539   9.377   6.931 -1.3729  0.2591  0.9217
 3205SOL     OW18392   8.315   0.439   9.279  0.0036  0.2571 -0.2776
 3205SOL    HW118393   8.391   0.382   9.289  1.1358  1.0410 -3.2444
 3205SOL    HW218394   8.349   0.527   9.293 -0.6717  0.5253 -0.3057
 3206SOL     OW18395  11.373   8.514   0.312  0.3611 -0.2313 -0.0367
 3206SOL    HW118396  11.449   8.493   0.367  1.3448 -0.2429 -1.3535
 3206SOL    HW218397  11.329   8.430   0.299  0.8068 -0.4304 -0.2556
 3207SOL     OW18398   0.810   7.254   8.883 -0.0061  0.0389 -0.4853
 3207SOL    HW118399   0.838   7.164   8.901 -1.5642  0.0398  2.4971
 3207SOL    HW218400   0.718   7.257   8.912  0.1613  2.7233 -0.0005
 3208SOL     OW18401   4.820  10.550   4.882 -0.1436  0.3304  0.8360
 3208SOL    HW118402   4.882  10.589   4.820  0.1281  0.2025  1.0217
 3208SOL    HW218403   4.831  10.603   4.961  1.3433 -1.0327  1.6048
 3209SOL     OW18404   2.727   3.411   9.347 -0.1859 -0.3018 -0.2194
 3209SOL    HW118405   2.789   3.338   9.340  0.6476  0.1792  1.4609
 3209SOL    HW218406   2.722   3.428   9.441 -3.1395 -0.5162 -0.2510
 3210SOL     OW18407   6.729  10.482   7.002  0.3325  0.1084  0.7268
 3210SOL    HW118408   6.718  10.390   6.979  0.0759 -0.0357  1.4118
 3210SOL    HW218409   6.678  10.529   6.936  1.3948 -0.1558 -0.3255
 3211SOL     OW18410   8.817   6.029  12.392  0.6497  0.5269  0.0952
 3211SOL    HW118411   8.897   6.070  12.424  1.3616  0.4486 -1.4832
 3211SOL    HW218412   8.844   5.982  12.313 -0.8341 -0.0499 -0.1088
 3212SOL     OW18413   2.757   0.361   5.232 -0.5680 -0.0607 -0.4023
 3212SOL    HW118414   2.828   0.352   5.295 -0.6286 -0.1868 -0.3527
 3212SOL    HW218415   2.679   0.331   5.278 -0.8219  0.9553 -0.1415
 3213SOL     OW18416   2.227   9.886   5.479 -0.2776  0.2524  0.1128
 3213SOL    HW118417   2.153   9.896   5.539  0.6276  1.8038  1.0069
 3213SOL    HW218418   2.230   9.968   5.430 -0.7665 -0.8391 -1.8503
 3214SOL     OW18419  11.752   6.833   2.045  0.1588  0.4671  0.8116
 3214SOL    HW118420  11.722   6.788   1.966 -0.7027 -0.0787  1.4147
 3214SOL    HW218421  11.680   6.892   2.067  0.0277  0.0078  1.6402
 3215SOL     OW18422   6.859   6.025   8.079  0.7146  0.6151  0.6601
 3215SOL    HW118423   6.863   6.003   7.986  0.9484  2.9767  0.0331
 3215SOL    HW218424   6.898   5.950   8.124  0.6146 -0.5676 -1.1407
 3216SOL     OW18425  12.077   6.240  11.526  0.0336  0.2388  0.5349
 3216SOL    HW118426  12.076   6.150  11.559  1.4951 -0.9527 -2.3131
 3216SOL    HW218427  12.037   6.234  11.440  0.7971  2.2062 -0.0169
 3217SOL     OW18428   3.981   3.257   8.704  0.5108 -0.1162  1.0701
 3217SOL    HW118429   4.017   3.180   8.747  0.0552 -0.6567  0.5059
 3217SOL    HW218430   3.901   3.225   8.661  0.7519  0.4819  0.1429
 3218SOL     OW18431   2.977   6.013   9.525 -0.7374 -0.2375 -0.1174
 3218SOL    HW118432   2.923   5.951   9.475  0.8051  0.2606 -2.5588
 3218SOL    HW218433   2.941   6.099   9.503 -0.8861 -0.0829  0.7286
 3219SOL     OW18434   1.635   3.353  10.935  0.2260  0.4418  0.3090
 3219SOL    HW118435   1.648   3.334  11.028 -0.2671 -3.3047 -0.2439
 3219SOL    HW218436   1.710   3.314  10.892 -0.7001  0.0570 -1.0195
 3220SOL     OW18437  10.052   5.650   6.875 -0.1724  0.4001 -0.2262
 3220SOL    HW118438  10.027   5.625   6.786  2.6916 -0.1596 -0.9995
 3220SOL    HW218439  10.033   5.572   6.927  1.7427 -0.8173 -1.1951
 3221SOL     OW18440   7.534   8.721  11.677  0.2949  0.0454 -0.3975
 3221SOL    HW118441   7.510   8.633  11.652 -0.0880  0.1005 -0.2200
 3221SOL    HW218442   7.622   8.733  11.641  0.3820 -0.4365 -0.3441
 3222SOL     OW18443   2.646   4.318   2.166  0.3060  0.8452 -0.0650
 3222SOL    HW118444   2.736   4.284   2.159  0.2327  0.6617 -0.1250
 3222SOL    HW218445   2.656   4.404   2.207  0.6629  1.5075 -1.4607
 3223SOL     OW18446   9.638   1.247   6.457  0.4805 -0.2446 -0.1995
 3223SOL    HW118447   9.634   1.342   6.449 -2.3597 -0.3869 -1.7335
 3223SOL    HW218448   9.724   1.224   6.422  0.8168  1.6518 -0.7616
 3224SOL     OW18449   0.399   2.185   1.461 -0.0679 -0.4583 -0.0120
 3224SOL    HW118450   0.365   2.268   1.427 -2.1224 -1.1118  0.2817
 3224SOL    HW218451   0.456   2.152   1.392 -0.5684  0.3915 -0.8582
 3225SOL     OW18452  11.050   2.052   6.078  0.8650  0.0591  0.3734
 3225SOL    HW118453  11.101   2.034   5.999  0.7779  1.9606 -0.1699
 3225SOL    HW218454  10.959   2.051   6.048  0.8427  0.9943  0.3662
 3226SOL     OW18455   5.404   3.413   8.924  0.2907  0.0194 -0.5982
 3226SOL    HW118456   5.352   3.450   8.995 -0.6867 -0.4270 -1.0607
 3226SOL    HW218457   5.478   3.371   8.968  0.9439  1.6765 -0.0022
 3227SOL     OW18458   2.931   8.283  11.074 -0.1111 -0.0466 -0.0597
 3227SOL    HW118459   2.948   8.324  11.160 -1.1808  0.4832 -0.0907
 3227SOL    HW218460   2.871   8.211  11.093 -0.0474 -0.1689 -0.3192
 3228SOL     OW18461   5.150   9.038  12.580 -0.2214  0.1508  0.6833
 3228SOL    HW118462   5.242   9.064  12.573 -0.5265  1.4912  1.2129
 3228SOL    HW218463   5.103   9.106  12.531 -0.9028 -0.8465 -0.0872
 3229SOL     OW18464   9.383   6.625  11.898 -0.6447  0.1970 -0.0789
 3229SOL    HW118465   9.398   6.708  11.944  0.8343  0.4278 -0.9196
 3229SOL    HW218466   9.453   6.568  11.929 -1.0684 -0.4253 -0.2595
 3230SOL     OW18467   4.422   3.952   1.548  0.2900  0.0840  0.0060
 3230SOL    HW118468   4.382   3.948   1.461 -0.9678  1.9577  0.4263
 3230SOL    HW218469   4.462   3.866   1.560 -0.3935 -0.5790 -1.9997
 3231SOL     OW18470   4.991   4.529   5.639 -0.4116  0.0066  0.2058
 3231SOL    HW118471   4.951   4.557   5.557  0.3357  1.7714  0.3762
 3231SOL    HW218472   5.044   4.605   5.666 -1.5818 -0.0279  2.9158
 3232SOL     OW18473  12.251   4.896   7.557  0.1425  0.1716  0.0915
 3232SOL    HW118474  12.236   4.990   7.565 -0.1809  0.0823  0.5587
 3232SOL    HW218475  12.346   4.888   7.550  0.0956  0.7374 -2.7841
 3233SOL     OW18476   2.891  11.485   7.029 -0.3632  0.3466 -0.0959
 3233SOL    HW118477   2.907  11.394   7.002 -1.4831 -0.3082  1.3062
 3233SOL    HW218478   2.958  11.535   6.984 -0.4533 -1.0099 -1.8666
 3234SOL     OW18479   8.683  11.695   2.932  0.4556  0.4776 -0.1998
 3234SOL    HW118480   8.595  11.731   2.938  0.1587  0.0132 -1.4731
 3234SOL    HW218481   8.713  11.719   2.844  1.5446  0.4983  0.1586
 3235SOL     OW18482  11.082   9.100   5.388 -0.4141 -0.3779 -0.6947
 3235SOL    HW118483  11.089   9.034   5.319  0.9830  2.6800 -3.8137
 3235SOL    HW218484  11.167   9.143   5.388 -1.3294  1.5942  1.0116
 3236SOL     OW18485  10.070   3.962   3.333  0.0587  0.7834  0.5597
 3236SOL    HW118486  10.021   3.893   3.289  1.0080 -0.0216  0.7369
 3236SOL    HW218487  10.034   3.965   3.422 -1.1673  1.7275  0.0744
 3237SOL     OW18488   8.677   5.951   3.258  0.2317 -0.4445  0.9049
 3237SOL    HW118489   8.673   6.035   3.304 -0.1337  0.6001 -0.9522
 3237SOL    HW218490   8.769   5.926   3.263  0.5783  0.6808  0.4504
 3238SOL     OW18491   7.261   8.034  12.373  0.4351  0.4006 -0.3784
 3238SOL    HW118492   7.207   8.079  12.439  1.9736 -0.5551  1.6419
 3238SOL    HW218493   7.224   7.946  12.368  2.2624 -0.5703  1.7384
 3239SOL     OW18494   5.866  11.483   8.277 -0.0520 -0.5221 -0.0411
 3239SOL    HW118495   5.941  11.448   8.324 -0.4438 -1.3695 -0.0360
 3239SOL    HW218496   5.790  11.441   8.318 -0.3961 -1.3727 -1.4970
 3240SOL     OW18497   9.534   7.996   0.111  0.4108 -0.3440 -0.1251
 3240SOL    HW118498   9.549   7.952   0.195  2.2747  0.2765 -0.0787
 3240SOL    HW218499   9.512   8.086   0.135  0.1218 -0.3713 -0.2874
 3241SOL     OW18500   5.774   2.667   9.382 -0.4760  0.2287  0.2552
 3241SOL    HW118501   5.726   2.746   9.408 -0.2214  0.8507 -1.0811
 3241SOL    HW218502   5.707   2.610   9.344 -0.5776  0.0019  0.7686
 3242SOL     OW18503   3.113   2.162   8.635 -0.2920 -0.2958 -0.0505
 3242SOL    HW118504   3.101   2.108   8.713 -1.2157  0.5364  0.3960
 3242SOL    HW218505   3.028   2.202   8.620 -0.2579 -0.8010 -1.7716
 3243SOL     OW18506   1.812   4.156  12.060  0.3500 -0.1337  0.1353
 3243SOL    HW118507   1.899   4.188  12.083  0.0850 -0.3461  1.4924
 3243SOL    HW218508   1.756   4.233  12.063  0.2516 -0.2195  0.5602
 3244SOL     OW18509   9.467  10.454   3.493  0.2399  0.3221 -0.0999
 3244SOL    HW118510   9.506  10.504   3.422  1.7793 -0.4741  0.1527
 3244SOL    HW218511   9.450  10.519   3.562 -0.3486  0.9259 -0.7911
 3245SOL     OW18512   4.409  10.395   3.126  0.2864  0.7975 -0.3043
 3245SOL    HW118513   4.390  10.467   3.065  1.9168 -0.0832 -1.9541
 3245SOL    HW218514   4.441  10.437   3.205 -0.3331  1.9288 -0.6410
 3246SOL     OW18515   8.651   0.200  10.105 -0.2250 -0.5164 -0.5563
 3246SOL    HW118516   8.655   0.108  10.077  0.5243 -0.6028 -0.1921
 3246SOL    HW218517   8.628   0.196  10.198  0.7227 -0.3860 -0.3031
 3247SOL     OW18518   0.446   3.113   5.605 -1.0420  0.1697  0.0417
 3247SOL    HW118519   0.402   3.195   5.582 -0.8342 -0.2676 -2.1466
 3247SOL    HW218520   0.518   3.139   5.662 -1.3250  1.4378 -0.1451
 3248SOL     OW18521   3.904   5.227   3.267 -0.2147  0.2236  0.0099
 3248SOL    HW118522   3.973   5.182   3.218 -1.0691 -1.0411 -0.0883
 3248SOL    HW218523   3.951   5.290   3.322  1.0169 -0.5977 -0.0606
 3249SOL     OW18524  11.955   4.347   7.965 -0.2399  0.4601  0.2598
 3249SOL    HW118525  11.886   4.294   8.005 -1.1011  1.7889  0.6302
 3249SOL    HW218526  12.035   4.296   7.976 -0.6734  0.1600  2.4871
 3250SOL     OW18527   6.719   0.208   7.609 -0.2153  0.1401 -0.3490
 3250SOL    HW118528   6.746   0.135   7.665  0.3486 -0.6034 -1.5428
 3250SOL    HW218529   6.797   0.265   7.605 -0.1730  0.0691 -0.5599
 3251SOL     OW18530   5.957   3.776   7.751  0.1308  0.2149  0.6070
 3251SOL    HW118531   5.910   3.694   7.761 -0.0405  0.5241  2.8440
 3251SOL    HW218532   5.923   3.832   7.821  0.5334  2.0639 -0.5950
 3252SOL     OW18533   2.249   7.979  11.476  0.2199  0.3773 -0.2742
 3252SOL    HW118534   2.282   7.948  11.560 -1.5332 -0.4283  0.1828
 3252SOL    HW218535   2.156   7.955  11.477  0.3992 -0.7788 -2.9545
 3253SOL     OW18536   6.684   9.621   6.405  0.3454  0.2556  0.3403
 3253SOL    HW118537   6.690   9.639   6.311 -0.6363  0.4177  0.2920
 3253SOL    HW218538   6.767   9.580   6.427  0.3363 -0.3902 -0.7392
 3254SOL     OW18539   8.849   1.016   7.619  0.0600 -0.3309  0.2362
 3254SOL    HW118540   8.872   1.109   7.623 -1.5410  0.0739  0.8887
 3254SOL    HW218541   8.754   1.015   7.625 -0.0125 -1.9894 -0.5716
 3255SOL     OW18542   0.451   9.760   4.889  0.0759 -0.4782 -0.1397
 3255SOL    HW118543   0.368   9.750   4.935  0.7033 -0.3320  1.0708
 3255SOL    HW218544   0.510   9.799   4.954  1.8274 -2.8884 -0.1284
 3256SOL     OW18545   6.194   0.262  10.169  0.2510 -0.1616 -0.3206
 3256SOL    HW118546   6.284   0.290  10.149  0.3980  0.9731  1.7379
 3256SOL    HW218547   6.149   0.264  10.084  1.6122  1.3268 -1.0523
 3257SOL     OW18548   2.680   0.640   1.217 -0.1435 -0.9950 -0.2920
 3257SOL    HW118549   2.718   0.616   1.301 -0.6344 -2.9189 -0.5742
 3257SOL    HW218550   2.687   0.735   1.214  3.2760 -1.0859  0.3093
 3258SOL     OW18551   3.020   1.741   1.248 -0.1329  0.4625  0.1846
 3258SOL    HW118552   2.944   1.725   1.191  0.2753 -0.3754 -0.1333
 3258SOL    HW218553   3.042   1.833   1.232 -0.3418  0.3847 -0.6182
 3259SOL     OW18554  10.220   7.112   1.735 -0.4050  0.3051 -0.1164
 3259SOL    HW118555  10.203   7.144   1.824 -2.2299  0.1107 -0.3541
 3259SOL    HW218556  10.133   7.092   1.700  0.2769  0.3688 -1.9519
 3260SOL     OW18557   3.664   9.981   9.924 -0.4166  0.1708  0.3929
 3260SOL    HW118558   3.633   9.915   9.862  0.6548  0.5229 -0.5559
 3260SOL    HW218559   3.585  10.029   9.950 -1.0119 -0.6035  0.0361
 3261SOL     OW18560   6.017  11.446   5.305 -0.1686  0.4375 -0.5015
 3261SOL    HW118561   6.052  11.416   5.388 -1.8244 -1.0353 -0.2784
 3261SOL    HW218562   6.062  11.393   5.239  0.4855  0.9811 -0.5109
 3262SOL     OW18563   7.556   7.019   7.879 -0.1917  0.3555 -0.0265
 3262SOL    HW118564   7.462   7.025   7.895 -0.1880  0.2776  0.0235
 3262SOL    HW218565   7.563   6.968   7.799 -0.1333 -0.9472  0.7920
 3263SOL     OW18566   2.878   1.686   9.450  0.1014  0.0639 -0.7787
 3263SOL    HW118567   2.837   1.668   9.535  1.0119  1.1472 -0.0842
 3263SOL    HW218568   2.962   1.640   9.454  0.4730  0.7389 -0.7860
 3264SOL     OW18569   1.213   1.461   5.019 -0.6649  0.0632  0.2059
 3264SOL    HW118570   1.129   1.458   5.065 -0.5103  0.7594  0.5477
 3264SOL    HW218571   1.194   1.508   4.937 -0.0951  2.8052  1.5063
 3265SOL     OW18572   3.093   0.622   5.469  0.5157 -0.1691 -0.3707
 3265SOL    HW118573   3.046   0.652   5.547  0.3427  0.1019 -0.5796
 3265SOL    HW218574   3.063   0.679   5.399  1.3837  0.2066 -0.4501
 3266SOL     OW18575  11.611   9.445   4.006  0.1130  0.2108  0.1641
 3266SOL    HW118576  11.685   9.416   4.059  1.1171  2.1039 -0.1281
 3266SOL    HW218577  11.570   9.515   4.057  0.4710  1.3493 -1.0533
 3267SOL     OW18578  12.584   9.542   4.538  0.7654  0.5649 -0.5033
 3267SOL    HW118579  12.552   9.457   4.568  2.6578 -0.1577 -0.4153
 3267SOL    HW218580  12.523   9.605   4.576 -0.1776 -0.6836  0.1312
 3268SOL     OW18581   3.721   5.221   9.264 -0.2327 -0.2666 -0.7874
 3268SOL    HW118582   3.634   5.257   9.246 -0.6078 -0.1606  1.0105
 3268SOL    HW218583   3.752   5.272   9.339  0.0097 -2.3953  0.6447
 3269SOL     OW18584   4.754   8.627  11.137  0.0896 -0.8311 -0.2957
 3269SOL    HW118585   4.820   8.693  11.159  0.0973 -0.8771 -0.1771
 3269SOL    HW218586   4.780   8.594  11.051  0.4271 -1.1042 -0.0934
 3270SOL     OW18587   5.589  10.654   1.777 -0.5698  0.2637  0.2407
 3270SOL    HW118588   5.555  10.578   1.825 -1.7481  0.5673 -0.0796
 3270SOL    HW218589   5.581  10.727   1.838  1.7252 -0.0305  1.0071
 3271SOL     OW18590   0.442   0.906   6.197  0.1134 -0.6619 -0.3488
 3271SOL    HW118591   0.437   0.905   6.101 -0.4777 -0.6965 -0.3207
 3271SOL    HW218592   0.352   0.923   6.225  0.1108 -1.5817  0.2217
 3272SOL     OW18593   0.529  10.128   2.336  0.3699  0.3733  0.0818
 3272SOL    HW118594   0.557  10.103   2.248  1.6425  1.0851  0.2612
 3272SOL    HW218595   0.497  10.046   2.375 -0.3259  0.0734 -1.0627
 3273SOL     OW18596   3.009   1.894  10.991  0.1327  0.1405  0.6621
 3273SOL    HW118597   2.957   1.814  10.996 -1.2552  1.0933  2.8868
 3273SOL    HW218598   3.060   1.895  11.072  3.5426 -0.6026 -1.3035
 3274SOL     OW18599   8.593   3.237   4.577 -0.1369 -0.5341  0.1153
 3274SOL    HW118600   8.543   3.229   4.496  1.1803  0.8606 -0.8775
 3274SOL    HW218601   8.674   3.190   4.560 -0.1359 -0.8393  0.9052
 3275SOL     OW18602   2.967   5.094   5.681  0.6060  0.3807  0.5008
 3275SOL    HW118603   3.061   5.075   5.676  0.9663  2.1919 -1.4500
 3275SOL    HW218604   2.961   5.173   5.734  0.1675  0.2908  0.5913
 3276SOL     OW18605   3.073   5.020   4.254 -0.4740  0.6814  0.1794
 3276SOL    HW118606   3.031   5.094   4.298 -0.7320  0.7174 -0.1213
 3276SOL    HW218607   3.164   5.023   4.284 -1.0376 -0.3900  2.1180
 3277SOL     OW18608   7.247   6.830   9.672  0.0823  0.6788  0.3828
 3277SOL    HW118609   7.172   6.804   9.618  2.6281 -3.2125 -1.7118
 3277SOL    HW218610   7.305   6.877   9.612  1.0132  0.1970  0.8842
 3278SOL     OW18611   1.277   7.382   7.125  0.0312  0.3107 -0.2471
 3278SOL    HW118612   1.236   7.315   7.181  0.2425  0.8686  0.5867
 3278SOL    HW218613   1.215   7.393   7.052 -1.1759  0.9271  0.8379
 3279SOL     OW18614  12.484   1.855   1.338 -0.5463 -0.0377 -0.2206
 3279SOL    HW118615  12.537   1.776   1.355  0.3401  0.9449  1.9427
 3279SOL    HW218616  12.474   1.856   1.243  1.2808 -1.5878 -0.5078
 3280SOL     OW18617  10.830  11.918   1.651 -0.0079 -0.1314 -0.3527
 3280SOL    HW118618  10.790  11.950   1.570 -1.4586  0.9101  0.7163
 3280SOL    HW218619  10.921  11.900   1.627 -0.1687  0.9850 -2.0085
 3281SOL     OW18620   1.832   0.190   8.647  0.6551 -0.2060  0.2732
 3281SOL    HW118621   1.890   0.114   8.636  0.9104  0.2562 -1.9490
 3281SOL    HW218622   1.744   0.154   8.637  0.7668 -0.2740 -0.5753
 3282SOL     OW18623  10.337   4.274  11.382 -0.2148  0.0082  0.1174
 3282SOL    HW118624  10.406   4.220  11.422 -0.3654  0.6473  1.2629
 3282SOL    HW218625  10.312   4.225  11.303 -1.6773 -2.6304  2.0513
 3283SOL     OW18626   2.501   9.037  10.289  0.0129  0.3323  0.3443
 3283SOL    HW118627   2.491   8.996  10.375 -1.0012 -0.8526 -0.3162
 3283SOL    HW218628   2.530   9.126  10.308  1.6075 -0.4497  1.8479
 3284SOL     OW18629  10.243  11.558  11.044  0.1819  0.2984  0.5075
 3284SOL    HW118630  10.333  11.563  11.009 -0.9244  0.6975 -2.6382
 3284SOL    HW218631  10.229  11.465  11.061  0.9388  0.1397  0.3145
 3285SOL     OW18632   8.792  11.022   2.985  0.0735 -0.3951 -0.4199
 3285SOL    HW118633   8.714  11.042   2.934  0.2414  1.0010 -0.1752
 3285SOL    HW218634   8.861  11.075   2.945  0.3559  0.2157  0.8121
 3286SOL     OW18635   1.323  12.027   6.863  0.0971 -0.6580 -0.2174
 3286SOL    HW118636   1.330  12.000   6.771 -0.5114 -1.8664  0.0690
 3286SOL    HW218637   1.337  11.946   6.913  0.5650  0.0104  0.7641
 3287SOL     OW18638   8.058   6.229   9.162 -0.0522 -0.3336 -0.0602
 3287SOL    HW118639   8.014   6.301   9.117 -0.8220 -1.8209 -1.8119
 3287SOL    HW218640   8.117   6.272   9.224  0.8582  1.8529 -2.2882
 3288SOL     OW18641  11.313   1.941   6.342 -0.0721 -0.2692  0.1157
 3288SOL    HW118642  11.223   1.948   6.372 -0.5891 -1.7316 -0.9598
 3288SOL    HW218643  11.315   1.989   6.259 -0.2060 -1.2788 -0.4901
 3289SOL     OW18644   5.578  10.381   3.778  0.6448  0.3685 -0.1648
 3289SOL    HW118645   5.490  10.412   3.800  0.6325  0.4836 -0.3756
 3289SOL    HW218646   5.627  10.388   3.860 -0.1085 -1.7331  0.5323
 3290SOL     OW18647   5.066  11.002   7.807  0.1334  0.4128  0.2244
 3290SOL    HW118648   5.015  11.010   7.888  0.8632 -0.5939  0.8038
 3290SOL    HW218649   5.020  10.935   7.756  2.0718 -2.3342  1.7868
 3291SOL     OW18650   6.838   9.140   7.420 -0.2363 -0.0756  0.0922
 3291SOL    HW118651   6.743   9.128   7.420 -0.2096 -0.3544  1.2297
 3291SOL    HW218652   6.871   9.061   7.377 -0.5019 -0.0276 -0.2117
 3292SOL     OW18653  10.036  11.943   0.636  0.1477 -0.5378 -0.1259
 3292SOL    HW118654  10.031  12.039   0.641  2.1051 -0.3255 -1.2506
 3292SOL    HW218655   9.948  11.916   0.611  0.1757  1.2256 -2.5238
 3293SOL     OW18656   1.312  12.513   2.033 -0.3684  0.1188 -0.0057
 3293SOL    HW118657   1.289  12.524   1.941  3.2472  0.4375 -1.0340
 3293SOL    HW218658   1.306  12.419   2.049  0.9999 -0.2226 -1.2674
 3294SOL     OW18659  11.178   8.781  12.341 -0.4380  0.0461  0.0487
 3294SOL    HW118660  11.120   8.785  12.417  1.0157  1.2115  1.1331
 3294SOL    HW218661  11.246   8.719  12.366  0.6828  1.2898  0.1899
 3295SOL     OW18662   6.441   0.044   0.221 -0.3668  0.8122  0.1426
 3295SOL    HW118663   6.374   0.007   0.163  0.0285 -0.2435  0.3385
 3295SOL    HW218664   6.492  -0.031   0.250 -0.1287  1.4005  1.3172
 3296SOL     OW18665   6.429  11.449  10.718  0.0213 -0.1293 -0.6657
 3296SOL    HW118666   6.380  11.371  10.741  0.5853 -0.4652 -0.5875
 3296SOL    HW218667   6.443  11.494  10.802  1.6842 -1.1244 -0.3569
 3297SOL     OW18668   7.286   0.749   3.255 -0.0768 -0.6163 -0.1214
 3297SOL    HW118669   7.363   0.769   3.309  1.1574  1.0084 -2.3289
 3297SOL    HW218670   7.215   0.800   3.295  0.4127 -0.6836  0.8683
 3298SOL     OW18671   2.619   3.793   0.258  0.2152 -0.1003  0.2290
 3298SOL    HW118672   2.657   3.857   0.318 -2.0572 -0.0465  1.7234
 3298SOL    HW218673   2.525   3.810   0.260  0.0160  0.7579 -4.4203
 3299SOL     OW18674   4.295   9.538   1.814  0.3819  0.1896 -0.1338
 3299SOL    HW118675   4.363   9.522   1.879  0.9691  2.5098 -0.0961
 3299SOL    HW218676   4.227   9.473   1.833  1.1864 -0.1154  1.8574
 3300SOL     OW18677  11.023   0.091   1.553  0.5171 -0.2274 -0.5576
 3300SOL    HW118678  11.036   0.048   1.469 -0.3085 -0.6510 -0.4884
 3300SOL    HW218679  10.971   0.028   1.604 -1.6313  1.2179 -0.8150
 3301SOL     OW18680   7.888   7.993   0.727  0.5095 -0.1228 -0.1618
 3301SOL    HW118681   7.876   8.044   0.647  1.9285  0.2605 -0.1688
 3301SOL    HW218682   7.894   7.902   0.698 -1.0289 -0.2241 -0.2531
 3302SOL     OW18683  10.738   0.183   0.135  0.4810  0.4585 -0.6255
 3302SOL    HW118684  10.706   0.193   0.225 -0.5391 -0.4522 -0.8644
 3302SOL    HW218685  10.660   0.198   0.080  0.7115 -0.6110 -1.2808
 3303SOL     OW18686   5.967   3.328   4.157  0.0080 -0.3695  0.5346
 3303SOL    HW118687   5.983   3.356   4.067 -2.1840 -0.5055  0.0577
 3303SOL    HW218688   5.880   3.362   4.178  0.1437 -1.0274  2.3314
 3304SOL     OW18689   5.709   3.672   0.326  0.0661 -1.1655  0.1186
 3304SOL    HW118690   5.614   3.655   0.322  0.1303 -1.5382  0.1230
 3304SOL    HW218691   5.715   3.762   0.357 -0.3038 -0.7423 -1.0002
 3305SOL     OW18692   2.091  12.033   7.132 -0.5198  0.3950  0.4591
 3305SOL    HW118693   2.065  12.006   7.043 -0.8953  0.6855  0.4778
 3305SOL    HW218694   2.078  12.127   7.133  1.6966  0.7556  0.0960
 3306SOL     OW18695   4.442  10.227   4.516  0.0298 -0.5608 -0.3662
 3306SOL    HW118696   4.353  10.197   4.498  0.1180 -1.1194  0.1063
 3306SOL    HW218697   4.471  10.174   4.590  0.4417  0.2238  0.0530
 3307SOL     OW18698   5.918   6.945   2.247  0.1307 -0.1607  0.8770
 3307SOL    HW118699   5.880   7.018   2.296  0.8385  1.0371 -0.2854
 3307SOL    HW218700   6.004   6.931   2.287  1.0109  1.2945 -0.4054
 3308SOL     OW18701   2.176   2.208   2.028  0.2053 -0.2063 -0.4809
 3308SOL    HW118702   2.114   2.207   1.955  0.1254  3.4528 -0.6374
 3308SOL    HW218703   2.125   2.175   2.102 -1.8204  2.0255 -0.7584
 3309SOL     OW18704   8.392  10.852  10.746  0.3181  0.4045  0.0035
 3309SOL    HW118705   8.475  10.885  10.782 -0.6873  1.1242  1.7999
 3309SOL    HW218706   8.381  10.766  10.785 -0.2456  0.7199  0.5490
 3310SOL     OW18707   9.362   6.573   8.620 -0.1625 -0.4797 -0.0978
 3310SOL    HW118708   9.383   6.566   8.527  0.8047  1.5883 -0.1023
 3310SOL    HW218709   9.426   6.635   8.655 -1.0851 -0.4814  1.7522
 3311SOL     OW18710   4.975   2.629   6.148 -0.3393 -0.3611  0.2188
 3311SOL    HW118711   5.012   2.656   6.064  2.3718  0.0393  1.4467
 3311SOL    HW218712   5.050   2.625   6.207 -2.4267  1.9842  3.3564
 3312SOL     OW18713   4.073   4.005   2.447 -0.3354 -0.2275  0.3237
 3312SOL    HW118714   4.148   4.006   2.507 -0.1772  0.8245  0.1311
 3312SOL    HW218715   3.997   3.994   2.504 -0.1901  0.8245  0.7439
 3313SOL     OW18716   9.106   4.318   3.744 -0.3307 -0.4512 -0.4943
 3313SOL    HW118717   9.035   4.359   3.695 -0.1875 -1.8090 -1.9191
 3313SOL    HW218718   9.076   4.317   3.835 -1.0438  1.2150 -0.6821
 3314SOL     OW18719  12.072   2.307   7.144 -0.7126 -0.5640  0.0419
 3314SOL    HW118720  12.022   2.347   7.074  0.7463  0.6852 -0.3476
 3314SOL    HW218721  12.100   2.380   7.199  1.9740 -0.9431 -0.6493
 3315SOL     OW18722   6.641   9.856   5.142  0.1821 -0.2842  0.8781
 3315SOL    HW118723   6.628   9.762   5.151  1.3249 -0.6039 -0.4415
 3315SOL    HW218724   6.591   9.880   5.064  1.2263 -0.1350  0.2287
 3316SOL     OW18725   3.752   4.740   9.175 -0.2340  0.0559 -0.2655
 3316SOL    HW118726   3.795   4.788   9.104  1.3246  1.0199  1.2729
 3316SOL    HW218727   3.782   4.650   9.165  0.3994  0.2925 -0.5159
 3317SOL     OW18728   9.993   3.572   6.759 -0.9413  0.0525 -0.6071
 3317SOL    HW118729  10.029   3.488   6.730 -1.2711  0.3791 -2.0535
 3317SOL    HW218730  10.030   3.585   6.846 -0.8451 -1.5634 -0.3718
 3318SOL     OW18731   8.514   7.269   2.311  0.2883  0.7119  0.1529
 3318SOL    HW118732   8.559   7.330   2.369 -0.2957  1.3499 -0.0505
 3318SOL    HW218733   8.486   7.198   2.368 -0.5609  1.4845  0.7346
 3319SOL     OW18734   6.344   4.653   9.814  0.2091  1.1219  0.0331
 3319SOL    HW118735   6.401   4.646   9.891  1.6929  2.7811 -0.8316
 3319SOL    HW218736   6.404   4.665   9.740 -1.0139 -2.7596 -1.8467
 3320SOL     OW18737   1.286   8.466  10.249  0.1390  0.1867 -0.3135
 3320SOL    HW118738   1.328   8.532  10.193 -0.1799 -0.2944 -1.1351
 3320SOL    HW218739   1.348   8.393  10.250  0.4638  0.4633  0.5434
 3321SOL     OW18740   5.953   1.032   9.974  0.3268  0.5479 -0.1314
 3321SOL    HW118741   5.973   1.048   9.882  3.0331 -0.8829  0.1173
 3321SOL    HW218742   5.879   0.971   9.973  1.9751 -1.5647 -1.4997
 3322SOL     OW18743   5.034   8.522   9.583  0.1411 -0.0220  0.2994
 3322SOL    HW118744   5.119   8.531   9.541  0.4277 -3.2296 -0.0151
 3322SOL    HW218745   4.974   8.497   9.512 -1.0368  1.6951  0.6058
 3323SOL     OW18746  10.334   3.065   6.833 -0.1681 -0.0306  0.0282
 3323SOL    HW118747  10.405   3.115   6.873 -0.0212  0.7802 -1.1928
 3323SOL    HW218748  10.283   3.033   6.907  1.0198  0.0211  0.9063
 3324SOL     OW18749   0.218   6.268   7.769  0.3706  0.3742 -0.1086
 3324SOL    HW118750   0.153   6.268   7.698  2.0221  1.5864 -1.7256
 3324SOL    HW218751   0.243   6.360   7.778  1.6708 -0.0314  0.6232
 3325SOL     OW18752   1.266   6.010   5.344  0.0370 -0.7089 -0.3180
 3325SOL    HW118753   1.228   5.935   5.298  0.8490 -0.9616 -0.5903
 3325SOL    HW218754   1.342   5.973   5.390  1.5906  0.2705 -1.9741
 3326SOL     OW18755   8.998   3.456  11.567 -0.5094  0.2201  0.6278
 3326SOL    HW118756   8.902   3.457  11.572 -0.4891  0.2730  1.0708
 3326SOL    HW218757   9.024   3.376  11.613 -0.2575  1.2593  2.3961
 3327SOL     OW18758   6.278   2.134   3.230  0.1749  0.1278  0.3278
 3327SOL    HW118759   6.258   2.188   3.154 -0.7947  0.8824  1.0764
 3327SOL    HW218760   6.330   2.190   3.287  0.5051 -0.2715  0.4258
 3328SOL     OW18761   8.655   2.552   6.646 -0.2998  0.1264 -0.3454
 3328SOL    HW118762   8.647   2.474   6.700  0.7462 -0.0012 -0.3450
 3328SOL    HW218763   8.687   2.519   6.562 -0.6097  0.4681 -0.5994
 3329SOL     OW18764   5.590  10.417   5.266  0.1092  0.2674  0.5097
 3329SOL    HW118765   5.535  10.456   5.197  0.8194  0.2455 -0.0823
 3329SOL    HW218766   5.564  10.325   5.268  2.1019 -0.4628 -1.8364
 3330SOL     OW18767   0.872   8.724   9.371  0.2880  0.1853 -0.6877
 3330SOL    HW118768   0.787   8.694   9.339 -0.8444  3.2534 -0.8349
 3330SOL    HW218769   0.859   8.735   9.465  1.2730 -1.4257 -0.3153
 3331SOL     OW18770   1.065   4.701   4.337  0.2587  0.0053 -0.7025
 3331SOL    HW118771   1.045   4.663   4.252  0.3484 -0.4609 -0.5174
 3331SOL    HW218772   1.022   4.643   4.400 -0.3539  0.7004 -0.4554
 3332SOL     OW18773   4.387   9.246   1.508 -0.3861 -0.3158 -0.4024
 3332SOL    HW118774   4.374   9.178   1.574 -0.9403  0.9341  0.8166
 3332SOL    HW218775   4.451   9.208   1.447 -0.1423 -1.6479  0.6354
 3333SOL     OW18776   1.412   5.388  10.483  0.5505  0.1011 -0.3841
 3333SOL    HW118777   1.400   5.432  10.399  1.3157  0.4988 -0.2896
 3333SOL    HW218778   1.458   5.452  10.537  0.4561 -0.3167  0.2002
 3334SOL     OW18779   8.971   1.103   8.386  0.5173 -0.0468 -0.4645
 3334SOL    HW118780   9.002   1.061   8.466 -0.7403 -1.0487 -0.4674
 3334SOL    HW218781   8.981   1.036   8.319  0.1667  0.2707 -0.8358
 3335SOL     OW18782   8.010   3.134   4.381  0.0184  0.3259  0.1930
 3335SOL    HW118783   7.915   3.144   4.377 -0.5390 -3.5021 -0.4390
 3335SOL    HW218784   8.033   3.093   4.297  1.9764 -0.1743  0.9067
 3336SOL     OW18785   4.770   5.708   8.759  0.1861  0.5227  0.1445
 3336SOL    HW118786   4.685   5.663   8.755  0.2212  0.4288  0.5138
 3336SOL    HW218787   4.797   5.715   8.667 -0.3845  0.8592 -0.0077
 3337SOL     OW18788  10.539   7.238   7.077 -0.6861 -0.1180 -0.4477
 3337SOL    HW118789  10.579   7.260   6.993 -0.6779  0.2491 -0.3471
 3337SOL    HW218790  10.533   7.321   7.124 -1.5338 -0.1748 -0.4402
 3338SOL     OW18791   5.022   1.245   8.711 -0.0565 -0.3916  0.0946
 3338SOL    HW118792   4.938   1.276   8.744  0.8731  0.2233  1.9860
 3338SOL    HW218793   5.025   1.153   8.735 -0.4183 -0.5660 -0.5023
 3339SOL     OW18794   4.557   4.906   3.505  0.0059  0.4274 -0.0987
 3339SOL    HW118795   4.649   4.905   3.482  0.1011  1.3563  0.2326
 3339SOL    HW218796   4.517   4.967   3.443 -0.0766  1.3912  0.8867
 3340SOL     OW18797   5.968   7.655   2.976  0.1096 -0.8709  0.3560
 3340SOL    HW118798   6.048   7.670   2.926  1.1973  0.0315  2.2510
 3340SOL    HW218799   5.965   7.728   3.039 -2.2863 -0.7891  0.2559
 3341SOL     OW18800   1.039   3.802  10.302  0.5075  0.4669 -0.1614
 3341SOL    HW118801   1.017   3.711  10.284  1.9263  0.1368 -0.3648
 3341SOL    HW218802   0.960   3.839  10.340 -1.3035  0.0924 -3.2452
 3342SOL     OW18803  11.533   9.890   3.917 -0.0885  0.0582 -0.5748
 3342SOL    HW118804  11.625   9.865   3.930 -0.1139 -1.7220 -3.0544
 3342SOL    HW218805  11.525   9.901   3.822 -2.1745  1.4421 -0.2996
 3343SOL     OW18806  10.272   2.995  12.482 -0.5041 -0.0579 -0.4389
 3343SOL    HW118807  10.307   2.922  12.430 -0.5643 -0.1680 -0.3231
 3343SOL    HW218808  10.256   3.064  12.417  2.9550  1.1995 -0.1716
 3344SOL     OW18809  10.117   0.352   8.169  0.2823  0.0271 -0.4399
 3344SOL    HW118810  10.130   0.430   8.115 -0.9305 -0.7377 -1.9094
 3344SOL    HW218811  10.109   0.280   8.106 -0.1378 -1.0579  0.8089
 3345SOL     OW18812   8.754   0.445   5.164  0.4516  0.1789  0.1002
 3345SOL    HW118813   8.665   0.413   5.149  0.8542 -0.6391 -0.6234
 3345SOL    HW218814   8.810   0.372   5.137  1.3371  0.5705  0.8458
 3346SOL     OW18815   4.691   2.157   6.482 -0.0645  0.2640 -0.0995
 3346SOL    HW118816   4.643   2.155   6.565  2.2255  0.1900  1.3051
 3346SOL    HW218817   4.697   2.065   6.456  2.7675 -0.2668  1.9449
 3347SOL     OW18818   4.101   8.955   8.366  0.0123 -0.3647 -0.4243
 3347SOL    HW118819   4.086   9.049   8.373  0.4085 -0.2405 -1.1718
 3347SOL    HW218820   4.169   8.937   8.431 -0.1641 -0.1661 -0.1793
 3348SOL     OW18821   4.718  10.544   0.213 -0.2678 -0.7385 -0.3421
 3348SOL    HW118822   4.710  10.552   0.308  0.0470 -1.3481 -0.2623
 3348SOL    HW218823   4.690  10.630   0.179 -0.9248 -0.7056  0.2630
 3349SOL     OW18824   7.640   2.224  10.988  0.3684 -0.0465  0.1489
 3349SOL    HW118825   7.633   2.143  10.939 -2.2602  0.4937 -0.4989
 3349SOL    HW218826   7.734   2.245  10.986  0.8774 -2.1386 -1.1130
 3350SOL     OW18827   3.028   4.422   6.884 -0.6460  0.6331  0.4195
 3350SOL    HW118828   2.999   4.347   6.936  0.6804 -1.3997 -1.5704
 3350SOL    HW218829   2.958   4.487   6.894 -2.7716 -1.5677  0.8015
 3351SOL     OW18830  10.230  11.858   1.507 -0.2139  0.1121 -0.0687
 3351SOL    HW118831  10.322  11.876   1.527 -0.1078 -1.3121  0.8501
 3351SOL    HW218832  10.184  11.871   1.590 -0.7540  0.2398 -0.3838
 3352SOL     OW18833   8.311   1.188   4.177 -0.0068 -0.2082  0.4928
 3352SOL    HW118834   8.312   1.242   4.098 -0.6953  1.4287  1.5602
 3352SOL    HW218835   8.403   1.179   4.201  0.1381  0.2853  0.1442
 3353SOL     OW18836   1.265   5.592   2.133  0.0997 -0.2198 -0.0800
 3353SOL    HW118837   1.244   5.512   2.182 -3.1655  0.7084  0.2964
 3353SOL    HW218838   1.333   5.635   2.184 -1.1770 -0.6936  2.1173
 3354SOL     OW18839  10.038   8.605  10.449 -0.3451  0.1327 -0.1455
 3354SOL    HW118840  10.034   8.585  10.356 -0.0014 -0.0278 -0.1271
 3354SOL    HW218841  10.112   8.666  10.458  1.4843 -2.0511  0.3937
 3355SOL     OW18842  11.242   1.430   7.184 -0.6788  0.7197  0.3798
 3355SOL    HW118843  11.310   1.364   7.196 -0.4625  1.0919  1.2854
 3355SOL    HW218844  11.249   1.456   7.093 -0.0770  0.2392  0.2835
 3356SOL     OW18845   0.172   5.400   1.928  0.2557 -0.1350 -0.5396
 3356SOL    HW118846   0.231   5.460   1.976 -1.2664  1.4469 -0.5625
 3356SOL    HW218847   0.161   5.326   1.988  0.1414  0.7876  0.6274
 3357SOL     OW18848   6.041   0.931   2.848  0.2287  0.1522  0.0988
 3357SOL    HW118849   5.984   0.969   2.782  0.8023  0.6599 -0.1103
 3357SOL    HW218850   6.006   0.843   2.862 -0.7756  0.5498  0.1881
 3358SOL     OW18851  11.422   3.028   6.101 -0.6198  0.1170  0.0692
 3358SOL    HW118852  11.376   3.001   6.022 -0.2740  0.0135 -0.0978
 3358SOL    HW218853  11.395   3.119   6.115  0.9277  0.8723 -1.3778
 3359SOL     OW18854   0.385   8.908   9.965  0.5034 -0.2066  0.6425
 3359SOL    HW118855   0.381   8.824   9.919 -0.4241  0.4652 -0.5816
 3359SOL    HW218856   0.474   8.913   9.999  0.9958 -1.0791 -0.4549
 3360SOL     OW18857   9.003   4.851   2.223  0.1140 -0.7610  0.2797
 3360SOL    HW118858   9.021   4.760   2.199  0.5999 -0.5566 -0.1719
 3360SOL    HW218859   8.988   4.895   2.139  1.4585 -0.1051  0.3574
 3361SOL     OW18860   6.876  10.437   4.968  0.5284  0.3893  0.4825
 3361SOL    HW118861   6.897  10.357   5.016  0.0962  1.2116  2.1159
 3361SOL    HW218862   6.868  10.409   4.876 -0.0362 -1.4888  1.0639
 3362SOL     OW18863   1.479  11.055   4.468  0.2879  0.1755  0.6777
 3362SOL    HW118864   1.559  11.079   4.515  0.3850  1.2443 -0.0020
 3362SOL    HW218865   1.409  11.086   4.525  0.3461 -0.7230  1.2542
 3363SOL     OW18866   4.855   5.798   7.718  0.4715 -0.3235 -0.0271
 3363SOL    HW118867   4.822   5.845   7.641  0.8738  1.1940  0.6883
 3363SOL    HW218868   4.946   5.777   7.695  0.1698 -1.1652 -0.5118
 3364SOL     OW18869   9.609   2.328   8.357 -0.0340  0.4264  0.3705
 3364SOL    HW118870   9.653   2.260   8.409  2.0462  0.4565 -1.2418
 3364SOL    HW218871   9.538   2.282   8.314  1.5878 -0.9216 -1.0220
 3365SOL     OW18872   5.035   7.353   0.770 -0.4505  0.5470  0.5062
 3365SOL    HW118873   4.952   7.316   0.740  0.5648 -0.9376 -0.5905
 3365SOL    HW218874   5.054   7.305   0.851  0.1011 -0.2529 -0.0876
 3366SOL     OW18875  11.091   2.193   0.007  0.6396 -0.8692 -0.5213
 3366SOL    HW118876  11.006   2.149   0.011  0.0143  0.3475  0.0706
 3366SOL    HW218877  11.125   2.173  -0.080 -0.3911 -1.1126 -0.8775
 3367SOL     OW18878  12.138  10.945  10.828 -0.1066  0.0641  0.6945
 3367SOL    HW118879  12.171  11.031  10.853 -1.1743  1.4780 -2.1905
 3367SOL    HW218880  12.074  10.923  10.895  1.0614  0.9208  2.1377
 3368SOL     OW18881   9.878   1.968   6.468  0.5605 -0.5945 -0.0360
 3368SOL    HW118882   9.821   1.911   6.416 -0.4862 -0.2517  0.6888
 3368SOL    HW218883   9.820   2.038   6.498  1.5270  0.1320  0.1921
 3369SOL     OW18884   6.896   5.149   2.925  0.4727 -0.0532  0.5544
 3369SOL    HW118885   6.842   5.070   2.918 -0.9783  0.9364  0.1004
 3369SOL    HW218886   6.849   5.205   2.987  1.6953  0.3063  1.1919
 3370SOL     OW18887  11.862   2.002   7.475  0.8402 -0.1898 -0.3024
 3370SOL    HW118888  11.886   1.928   7.420  1.3272 -0.2296 -0.0396
 3370SOL    HW218889  11.846   2.073   7.413  1.3250 -0.2523 -0.5041
 3371SOL     OW18890   4.540   0.443   2.302  0.1431  0.1788 -0.4992
 3371SOL    HW118891   4.633   0.424   2.305 -0.0344 -1.2460 -1.9574
 3371SOL    HW218892   4.509   0.398   2.223 -1.5343  1.7389 -0.8174
 3372SOL     OW18893   2.927   3.750   0.208  0.2678 -0.0568 -0.2114
 3372SOL    HW118894   2.891   3.673   0.164 -1.7631  0.0120  1.1572
 3372SOL    HW218895   2.851   3.807   0.221  0.9570  0.4160  2.2612
 3373SOL     OW18896  10.628   9.151   1.904  0.2690  0.4523  0.8890
 3373SOL    HW118897  10.715   9.189   1.914 -0.3642  2.2091  0.0725
 3373SOL    HW218898  10.573   9.224   1.876 -1.5967 -0.4917  1.9317
 3374SOL     OW18899  12.508  10.718   9.620  0.4961 -0.3986  0.0955
 3374SOL    HW118900  12.533  10.714   9.712 -0.4377  0.2051  0.3916
 3374SOL    HW218901  12.445  10.646   9.609 -0.4759  0.3921  0.3013
 3375SOL     OW18902   0.214   3.346   6.711  0.5024 -0.2300 -0.1590
 3375SOL    HW118903   0.143   3.305   6.661  0.1324  0.5929 -0.3177
 3375SOL    HW218904   0.230   3.429   6.667  0.5835  0.2373  0.7271
 3376SOL     OW18905   6.255   1.886  10.980  0.3228  0.3373  0.0058
 3376SOL    HW118906   6.319   1.815  10.971  0.3911  0.3890  0.0863
 3376SOL    HW218907   6.178   1.844  11.017  0.3631  0.3050  0.0529
 3377SOL     OW18908   3.166   8.379   9.176 -0.4556 -0.4344  0.5208
 3377SOL    HW118909   3.086   8.377   9.229 -0.3843 -1.4530  0.6258
 3377SOL    HW218910   3.221   8.310   9.213  0.0567 -0.4176 -0.1767
 3378SOL     OW18911  11.124  11.707   7.457 -0.0222 -0.0810  0.7210
 3378SOL    HW118912  11.183  11.782   7.454  1.1168 -0.9840 -0.3594
 3378SOL    HW218913  11.078  11.709   7.373 -0.4916 -0.2138  0.9676
 3379SOL     OW18914   5.507   8.292   4.749  0.4256 -0.0801  0.1754
 3379SOL    HW118915   5.518   8.252   4.662  0.0981 -0.9201  0.5177
 3379SOL    HW218916   5.592   8.332   4.767  0.7022 -0.4672 -0.2496
 3380SOL     OW18917   7.979   4.434   6.944  0.5529  0.3290  0.1142
 3380SOL    HW118918   7.921   4.490   6.996 -3.3380 -1.4221 -1.9679
 3380SOL    HW218919   8.000   4.487   6.867 -2.7123 -0.6751 -1.6111
 3381SOL     OW18920   3.012   2.578   1.750 -0.4828  0.5759 -0.0358
 3381SOL    HW118921   3.101   2.546   1.767 -0.2008  0.3646 -1.7434
 3381SOL    HW218922   3.001   2.650   1.812  0.9681  0.7452  0.0690
 3382SOL     OW18923  12.070   5.718   5.482  0.4889  0.5909 -0.0427
 3382SOL    HW118924  12.140   5.734   5.418  1.1808  0.6280  0.7056
 3382SOL    HW218925  12.044   5.627   5.466  1.6729  0.1095  0.5497
 3383SOL     OW18926  10.012   4.824   2.989  0.1384  0.1433  0.1469
 3383SOL    HW118927   9.960   4.868   2.922 -0.5186  0.7715  1.0437
 3383SOL    HW218928  10.004   4.880   3.067 -0.2409 -1.2539  1.1514
 3384SOL     OW18929   1.580   7.209   7.579  0.2829 -0.4990  0.0026
 3384SOL    HW118930   1.632   7.131   7.600  0.4015 -0.0567  1.4171
 3384SOL    HW218931   1.497   7.196   7.624  0.8139  0.8027  1.4597
 3385SOL     OW18932   9.970   8.901  10.244  0.1253 -0.5235 -0.7307
 3385SOL    HW118933  10.045   8.898  10.302  1.1485  0.8709 -1.9015
 3385SOL    HW218934   9.972   8.817  10.197 -0.2451 -1.3124  0.6259
 3386SOL     OW18935   4.452   2.535   4.822  0.3095 -0.0009  0.5101
 3386SOL    HW118936   4.470   2.629   4.817 -0.2294  0.0782  0.0828
 3386SOL    HW218937   4.497   2.507   4.903  2.1121  0.2385 -0.3587
 3387SOL     OW18938   1.637   3.011  11.302  0.3219 -0.2547  0.2477
 3387SOL    HW118939   1.681   2.927  11.300  0.0867 -0.3696 -1.1614
 3387SOL    HW218940   1.583   3.008  11.381  0.1539 -1.5065  0.1065
 3388SOL     OW18941   4.738  12.141   7.903  0.4210  0.1679  0.3483
 3388SOL    HW118942   4.790  12.147   7.823 -1.0029  0.5853 -0.5995
 3388SOL    HW218943   4.657  12.098   7.875 -0.2354  0.6286  1.4823
 3389SOL     OW18944   9.447  11.504   9.820  0.0553  0.3500  0.3541
 3389SOL    HW118945   9.452  11.592   9.856  0.7491 -0.4797  2.4820
 3389SOL    HW218946   9.357  11.476   9.836 -0.0602  0.5511  0.0359
 3390SOL     OW18947   8.975   3.142   1.542 -0.6619 -0.0158  0.3768
 3390SOL    HW118948   8.998   3.145   1.635 -2.1890 -0.7083  0.8257
 3390SOL    HW218949   9.000   3.054   1.513  0.5230  0.4571 -0.0979
 3391SOL     OW18950  12.263   5.212   7.303  0.9067 -0.9113 -0.5463
 3391SOL    HW118951  12.247   5.146   7.235 -0.6564  1.4017 -2.5933
 3391SOL    HW218952  12.181   5.262   7.308  1.3662 -0.2779  2.3070
 3392SOL     OW18953   9.277   3.525  10.467 -1.1433 -1.1820 -0.4158
 3392SOL    HW118954   9.186   3.516  10.496 -1.1203 -0.9927 -0.2822
 3392SOL    HW218955   9.279   3.609  10.420 -0.7339 -0.5172  0.7620
 3393SOL     OW18956  12.312  11.791  12.598  0.3303 -0.3235 -0.0135
 3393SOL    HW118957  12.401  11.758  12.582  0.3346 -0.7504  0.7911
 3393SOL    HW218958  12.301  11.863  12.537  0.7288 -1.1423 -1.0887
 3394SOL     OW18959  11.064   3.146   4.669 -0.0334 -0.4194  0.2758
 3394SOL    HW118960  11.132   3.087   4.637  2.3594  0.4307  3.2989
 3394SOL    HW218961  11.037   3.109   4.753 -0.9263  0.9929  0.6529
 3395SOL     OW18962   0.850   6.500   8.699  0.6086  0.5867 -0.1529
 3395SOL    HW118963   0.848   6.537   8.787 -0.5365  0.2720 -0.0244
 3395SOL    HW218964   0.763   6.460   8.688  1.3470 -0.9056 -0.7792
 3396SOL     OW18965  11.352   5.837   2.397  0.1745 -0.3961 -0.4487
 3396SOL    HW118966  11.399   5.765   2.439 -0.7255 -0.1693  0.9830
 3396SOL    HW218967  11.365   5.912   2.454 -0.3714  0.1462 -1.0134
 3397SOL     OW18968  11.426  12.509  10.771  0.5121 -0.3028 -0.4227
 3397SOL    HW118969  11.474  12.435  10.808 -0.3151 -1.1568 -1.0206
 3397SOL    HW218970  11.334  12.489  10.788  0.3457  1.5383  1.1141
 3398SOL     OW18971   7.253   0.060   8.968  0.5215 -0.4288  0.0541
 3398SOL    HW118972   7.264   0.132   9.030 -0.8052  1.2670 -1.5419
 3398SOL    HW218973   7.203  -0.006   9.016  1.5727 -0.2349  1.4842
 3399SOL     OW18974   7.871   5.311   1.735  0.1677  0.2407  0.2243
 3399SOL    HW118975   7.923   5.234   1.714  1.2109  0.9178  0.2294
 3399SOL    HW218976   7.873   5.364   1.655  0.6272  0.8889  0.6492
 3400SOL     OW18977   9.682   0.646   5.452 -0.0698  0.5472  0.6392
 3400SOL    HW118978   9.742   0.703   5.403 -0.7754  0.3673 -0.4842
 3400SOL    HW218979   9.738   0.598   5.512  0.9054  0.4679 -0.3027
 3401SOL     OW18980   6.167  11.634   6.213 -0.7419  0.4254  0.4285
 3401SOL    HW118981   6.116  11.561   6.181 -1.3587  0.3513  1.5261
 3401SOL    HW218982   6.126  11.712   6.175 -0.8532  0.2831  0.2602
 3402SOL     OW18983   6.308   3.029   4.171 -0.7519  0.0423 -0.0117
 3402SOL    HW118984   6.346   3.080   4.243 -1.8040 -1.0761  1.4067
 3402SOL    HW218985   6.221   3.006   4.202 -1.1626 -0.6289 -1.5944
 3403SOL     OW18986   2.600  11.304   8.809  0.1309 -0.2669 -0.2066
 3403SOL    HW118987   2.532  11.355   8.853 -0.0715  0.4061 -1.2612
 3403SOL    HW218988   2.570  11.298   8.718  1.9708  0.9773 -0.9543
 3404SOL     OW18989   8.664   6.360   3.158  0.3419  0.2647  0.3035
 3404SOL    HW118990   8.629   6.307   3.087  0.1605  0.7626  0.0129
 3404SOL    HW218991   8.693   6.441   3.116 -0.2472  0.7841  0.8591
 3405SOL     OW18992   1.269   6.904   1.142 -0.2309  0.3568  0.1591
 3405SOL    HW118993   1.215   6.936   1.214  1.3623  1.0267  1.0982
 3405SOL    HW218994   1.225   6.824   1.114 -1.6624  0.8318  0.9219
 3406SOL     OW18995   8.172  10.462   7.067 -0.1559 -0.3039  0.4296
 3406SOL    HW118996   8.208  10.514   7.139  0.3106  1.3093 -0.9070
 3406SOL    HW218997   8.245  10.407   7.039  0.7466  1.4824 -0.9333
 3407SOL     OW18998   4.319   8.120   7.325 -0.0513 -0.4234 -0.1540
 3407SOL    HW118999   4.343   8.190   7.387  1.6699 -0.5935 -0.5839
 3407SOL    HW219000   4.241   8.153   7.281 -1.1854 -0.1943  1.9174
 3408SOL     OW19001   6.809   0.012   1.002 -0.2563  0.0312 -0.6291
 3408SOL    HW119002   6.822   0.084   1.064  1.8394 -0.4793 -0.4070
 3408SOL    HW219003   6.888   0.012   0.948 -1.2543 -0.6540 -2.1818
 3409SOL     OW19004   0.045  10.085   5.759 -0.1623  0.3197 -0.5077
 3409SOL    HW119005   0.079  10.006   5.716  0.2142 -0.2133  0.7139
 3409SOL    HW219006  -0.041  10.060   5.792  1.2523 -0.7837  2.8413
 3410SOL     OW19007  10.594   0.174   3.267  0.5913 -0.5977 -0.7056
 3410SOL    HW119008  10.638   0.164   3.351  0.5995  1.0307 -0.4967
 3410SOL    HW219009  10.651   0.128   3.205  1.5476 -0.2367 -0.1159
 3411SOL     OW19010  10.327   3.661  11.373 -0.7695 -0.1359  0.0721
 3411SOL    HW119011  10.408   3.711  11.379 -0.7957 -0.2317  3.3146
 3411SOL    HW219012  10.332   3.616  11.289  0.8904  2.4992 -1.3717
 3412SOL     OW19013   6.307   7.149  10.013 -0.0016  0.4851 -0.1910
 3412SOL    HW119014   6.299   7.069   9.962  0.7162 -0.2892  0.8630
 3412SOL    HW219015   6.232   7.148  10.072  1.1328 -0.5784  1.3296
 3413SOL     OW19016   0.223   0.520   1.864 -0.2434  0.4780 -0.0645
 3413SOL    HW119017   0.161   0.463   1.909 -1.8182  1.4112 -0.9621
 3413SOL    HW219018   0.247   0.472   1.785  1.3218 -0.4815  0.9226
 3414SOL     OW19019   5.041  10.600   3.595 -0.1072 -0.1690  0.4015
 3414SOL    HW119020   5.106  10.606   3.665  1.0228  0.1723 -0.6389
 3414SOL    HW219021   5.078  10.652   3.524 -0.8105 -1.2291 -0.7678
 3415SOL     OW19022   4.971  12.484   3.469 -0.6971 -0.1077  0.3489
 3415SOL    HW119023   4.969  12.423   3.543  0.0535 -3.4365 -2.1579
 3415SOL    HW219024   4.880  12.489   3.439 -0.8395  0.4734  0.8484
 3416SOL     OW19025  12.154   9.444   3.925  0.6946  0.4695  0.5124
 3416SOL    HW119026  12.079   9.496   3.955  0.1460 -0.5759  1.0223
 3416SOL    HW219027  12.192   9.409   4.005 -0.0271 -1.3343  0.1201
 3417SOL     OW19028   3.362   4.745  12.159 -0.4563  0.2791  0.3759
 3417SOL    HW119029   3.356   4.650  12.155 -1.8804  0.3831 -1.6239
 3417SOL    HW219030   3.452   4.764  12.133  0.2322 -0.5178  2.0373
 3418SOL     OW19031   8.679   4.420   8.252  0.0590 -0.3559 -0.8955
 3418SOL    HW119032   8.604   4.480   8.253  1.3529  1.3321 -0.5333
 3418SOL    HW219033   8.673   4.373   8.335 -1.2145 -1.0957 -1.3680
 3419SOL     OW19034   9.290   5.427   2.605 -0.3506 -0.2437 -0.1591
 3419SOL    HW119035   9.288   5.339   2.568  2.5834 -0.2912 -0.4772
 3419SOL    HW219036   9.251   5.417   2.692 -2.5249 -1.2331 -1.1712
 3420SOL     OW19037   2.116   7.785   2.976  0.2150  0.1917 -0.1070
 3420SOL    HW119038   2.211   7.790   2.985  0.0766  0.9974  1.1178
 3420SOL    HW219039   2.082   7.825   3.055 -1.1839  3.6156 -2.2248
 3421SOL     OW19040   1.463   5.092   0.663 -0.4795 -0.1051  0.3221
 3421SOL    HW119041   1.540   5.145   0.642  0.0552 -0.1291  2.0443
 3421SOL    HW219042   1.410   5.148   0.720 -0.0944 -1.2082  1.8467
 3422SOL     OW19043   0.770   8.122   3.207 -0.4451  0.0152  0.4143
 3422SOL    HW119044   0.744   8.063   3.136  3.0788 -1.8284  0.4618
 3422SOL    HW219045   0.829   8.185   3.166  0.2111  0.0501  1.3750
 3423SOL     OW19046   9.560   8.218  12.459  0.0253 -0.1756 -0.1568
 3423SOL    HW119047   9.486   8.211  12.398  1.1370  0.2871 -1.6005
 3423SOL    HW219048   9.568   8.311  12.476  1.0616 -0.0972 -1.0230
 3424SOL     OW19049   3.784   4.789   0.287 -1.1217 -0.1029  0.4138
 3424SOL    HW119050   3.828   4.783   0.372  0.5670 -0.1226 -0.4077
 3424SOL    HW219051   3.767   4.882   0.275  0.4593  0.1670 -0.0469
 3425SOL     OW19052   7.013  10.989   1.764  0.0157 -0.0706  0.4031
 3425SOL    HW119053   7.025  11.025   1.852  1.7092  1.1628 -0.2975
 3425SOL    HW219054   7.010  11.065   1.706  1.1893 -0.9232 -0.8488
 3426SOL     OW19055   4.165   1.277   4.984 -0.5471  0.7104 -0.1071
 3426SOL    HW119056   4.118   1.347   4.939 -1.7585 -0.2571 -0.3930
 3426SOL    HW219057   4.175   1.208   4.918 -0.3769  0.1513  0.4927
 3427SOL     OW19058   8.555   4.412  12.243  0.2199 -0.0208  0.2173
 3427SOL    HW119059   8.517   4.432  12.328  0.8127  2.1643  0.0275
 3427SOL    HW219060   8.630   4.472  12.235 -0.4253  0.5889 -2.2312
 3428SOL     OW19061   8.211   1.740   5.979 -0.3829 -0.4256 -0.5378
 3428SOL    HW119062   8.213   1.655   6.023 -4.9047  0.4004  1.9472
 3428SOL    HW219063   8.147   1.728   5.908 -0.4499  0.7091 -0.6790
 3429SOL     OW19064   2.281   9.343   3.684 -0.2548 -0.0667  0.3425
 3429SOL    HW119065   2.347   9.379   3.625  0.4883  0.3264  1.3979
 3429SOL    HW219066   2.226   9.418   3.707  0.4208  0.1327  1.3895
 3430SOL     OW19067   7.722  10.541  11.469 -0.2427  0.1041 -0.2651
 3430SOL    HW119068   7.736  10.507  11.557 -1.9242  1.7426  0.7147
 3430SOL    HW219069   7.653  10.484  11.433  0.3559 -0.4876 -0.4934
 3431SOL     OW19070   9.629   4.689  10.666  0.1114  0.2929  0.0379
 3431SOL    HW119071   9.581   4.610  10.692 -0.1020  0.7974  1.2638
 3431SOL    HW219072   9.561   4.746  10.628 -0.0466  0.5374  0.6804
 3432SOL     OW19073  11.287  11.828   8.321 -0.3501 -0.2325 -0.2576
 3432SOL    HW119074  11.303  11.859   8.410  2.0630  1.1277 -1.0811
 3432SOL    HW219075  11.191  11.826   8.313 -0.6306 -0.2230  2.2717
 3433SOL     OW19076   1.358   1.196  11.206  0.0026 -0.0236 -0.0660
 3433SOL    HW119077   1.281   1.148  11.237 -0.3104 -0.8553 -1.9836
 3433SOL    HW219078   1.322   1.263  11.147  0.4222  2.7550  2.5947
 3434SOL     OW19079   3.437   6.152   0.699 -0.3210  0.4135 -0.1561
 3434SOL    HW119080   3.419   6.103   0.619 -0.3641  0.6204 -0.2719
 3434SOL    HW219081   3.351   6.162   0.740 -0.2746  0.1393  0.0150
 3435SOL     OW19082   1.565   6.024   1.720 -0.6476 -0.5288 -0.6137
 3435SOL    HW119083   1.638   5.965   1.737  0.1238 -0.0909 -2.2058
 3435SOL    HW219084   1.512   5.979   1.655 -2.0917 -1.0413  0.8519
 3436SOL     OW19085  11.823   1.626   3.217 -0.0492 -0.0316 -0.4374
 3436SOL    HW119086  11.837   1.532   3.211 -0.6868 -0.2258  0.9450
 3436SOL    HW219087  11.894   1.658   3.273 -0.9724  0.0122  0.7258
 3437SOL     OW19088   8.889  11.918  12.045 -0.6448 -0.1548 -0.0003
 3437SOL    HW119089   8.887  11.863  12.123  0.3533  0.0849  0.2091
 3437SOL    HW219090   8.849  12.000  12.073  0.6973  0.3343  0.6139
 3438SOL     OW19091  12.373   9.819  10.859  0.2884  0.2078 -0.3077
 3438SOL    HW119092  12.359   9.814  10.953 -2.1865  1.4990 -0.5095
 3438SOL    HW219093  12.441   9.885  10.848 -0.1611  0.8287  0.5452
 3439SOL     OW19094   8.571   2.120   6.894  0.2457  0.1571  0.1700
 3439SOL    HW119095   8.531   2.033   6.901 -0.1621  0.2783 -0.5790
 3439SOL    HW219096   8.497   2.179   6.881  0.5223  0.6258  0.6991
 3440SOL     OW19097   7.338   4.353  11.207  0.5420 -0.4673 -0.3525
 3440SOL    HW119098   7.260   4.338  11.261 -0.0244 -0.4825 -1.1664
 3440SOL    HW219099   7.304   4.388  11.125  1.4829  0.8926 -0.2107
 3441SOL     OW19100  11.247   9.295  10.188 -0.1561 -0.1285 -0.2517
 3441SOL    HW119101  11.182   9.273  10.121  1.8192 -0.7592 -2.0758
 3441SOL    HW219102  11.259   9.389  10.180 -0.9128  0.0151  0.1978
 3442SOL     OW19103   3.741   7.616   6.379 -0.5344 -0.2476 -0.4659
 3442SOL    HW119104   3.667   7.668   6.410  0.0400  0.8799 -0.9419
 3442SOL    HW219105   3.796   7.603   6.457 -1.6638 -1.9219  0.1172
 3443SOL     OW19106  11.341   6.968   5.940 -1.1520  0.2478 -0.1592
 3443SOL    HW119107  11.421   7.004   5.977 -0.8172 -1.4006  0.8210
 3443SOL    HW219108  11.369   6.925   5.860 -0.9650 -0.6761  0.3901
 3444SOL     OW19109   5.158  11.603   4.767 -0.2773  0.1237 -0.0665
 3444SOL    HW119110   5.120  11.673   4.714 -2.4356  1.5764  3.1538
 3444SOL    HW219111   5.242  11.638   4.797 -0.2170  0.3063 -0.4427
 3445SOL     OW19112   6.734   9.929   3.906  0.0265 -0.1097  0.3504
 3445SOL    HW119113   6.783   9.953   3.827 -1.6720  0.6013 -0.5564
 3445SOL    HW219114   6.702   9.840   3.888 -0.0642 -0.0832  0.3777
 3446SOL     OW19115  11.703   7.053   1.456 -0.2700  0.1002  0.2701
 3446SOL    HW119116  11.791   7.016   1.444 -1.0154 -1.6189 -0.1972
 3446SOL    HW219117  11.660   7.039   1.372 -1.1634  0.4731  0.6524
 3447SOL     OW19118   1.978  11.371   6.330  0.3958  0.2286  0.2334
 3447SOL    HW119119   1.988  11.457   6.371  2.2487  0.6986 -1.1087
 3447SOL    HW219120   2.055  11.321   6.359  0.7811 -0.0342 -1.1906
 3448SOL     OW19121   8.831   8.149   9.542  0.3809  0.1393 -0.2756
 3448SOL    HW119122   8.922   8.130   9.565  0.7737  1.0268 -1.0049
 3448SOL    HW219123   8.795   8.066   9.513  0.2487 -0.7469  2.1615
 3449SOL     OW19124   2.295   6.160  12.187  0.0126  0.3337  0.6682
 3449SOL    HW119125   2.376   6.160  12.237 -0.3816  1.2514  1.3382
 3449SOL    HW219126   2.299   6.080  12.134  2.0096  1.0813 -0.3993
 3450SOL     OW19127   5.418  10.107   9.626 -0.6744  0.5916 -0.3194
 3450SOL    HW119128   5.370  10.034   9.587 -0.0884 -0.3775  0.7207
 3450SOL    HW219129   5.371  10.127   9.707 -0.3245  0.7705 -0.1542
 3451SOL     OW19130   9.241   8.388  12.449  0.5262 -0.4516 -0.4822
 3451SOL    HW119131   9.235   8.349  12.536 -1.0024 -1.4585 -0.9943
 3451SOL    HW219132   9.280   8.319  12.395  0.4766 -0.2316 -0.7978
 3452SOL     OW19133   1.347   6.978   9.627  0.4210  0.0228 -0.1094
 3452SOL    HW119134   1.401   7.031   9.686 -0.3518 -1.0612  1.6702
 3452SOL    HW219135   1.408   6.917   9.585  0.8604  0.1704  0.3122
 3453SOL     OW19136   8.163   9.376   3.045  0.0740 -0.0998 -0.7611
 3453SOL    HW119137   8.079   9.370   2.998  0.0600 -0.7381 -0.6610
 3453SOL    HW219138   8.141   9.359   3.136 -0.0655  2.1758 -0.2983
 3454SOL     OW19139   2.185   0.157   5.896  0.3992 -0.0422  0.2380
 3454SOL    HW119140   2.248   0.150   5.824 -0.6858  0.7702 -0.8286
 3454SOL    HW219141   2.200   0.245   5.932 -1.7700  1.2380 -1.7001
 3455SOL     OW19142   7.898   1.688   2.768 -0.8012 -0.3112  0.1673
 3455SOL    HW119143   7.861   1.697   2.856 -0.0279 -2.0337  0.7199
 3455SOL    HW219144   7.891   1.594   2.749  1.2489 -0.3463 -0.5968
 3456SOL     OW19145   4.583   0.151   6.363  0.0919 -0.2289 -0.1771
 3456SOL    HW119146   4.572   0.102   6.282  2.4963 -0.2114 -0.5887
 3456SOL    HW219147   4.634   0.228   6.337  0.2376  0.1704  1.2209
 3457SOL     OW19148   9.022   1.061   9.063 -0.1611  0.2895 -0.4018
 3457SOL    HW119149   9.090   0.993   9.071 -0.4501  0.1753  1.4928
 3457SOL    HW219150   9.067   1.134   9.019  1.0753  0.0458  0.4028
 3458SOL     OW19151  10.302   0.928  11.709  0.0435  0.5760  0.0451
 3458SOL    HW119152  10.301   1.023  11.721 -0.9861  0.5825 -0.0041
 3458SOL    HW219153  10.238   0.895  11.772  1.3190 -0.2164  0.9639
 3459SOL     OW19154   5.113  11.684   9.895  0.1057  0.0480  0.4067
 3459SOL    HW119155   5.202  11.647   9.898 -0.0466 -0.3238  0.4741
 3459SOL    HW219156   5.056  11.607   9.883 -0.0990  0.4358 -1.2844
 3460SOL     OW19157   1.452   3.726   2.175  0.4329  0.3256 -0.4907
 3460SOL    HW119158   1.509   3.755   2.246 -1.3840  0.0267  1.1765
 3460SOL    HW219159   1.461   3.794   2.108  2.0609  0.7165  0.0917
 3461SOL     OW19160   2.428   4.843  10.517  0.5330  0.1597 -0.1452
 3461SOL    HW119161   2.342   4.877  10.492  1.1459  0.0517 -2.6194
 3461SOL    HW219162   2.413   4.749  10.530  0.2616  0.1451 -0.5441
 3462SOL     OW19163  10.662  12.262   6.032  0.0070 -0.2459  0.1766
 3462SOL    HW119164  10.666  12.180   5.983 -1.0488 -0.0611 -0.2274
 3462SOL    HW219165  10.620  12.324   5.972  0.2322  0.4307  0.7057
 3463SOL     OW19166   4.230   5.182   5.372 -0.3600 -0.3760 -0.0714
 3463SOL    HW119167   4.163   5.121   5.343 -0.2925 -0.9749  1.0131
 3463SOL    HW219168   4.305   5.127   5.397  0.0863  0.2080 -0.0805
 3464SOL     OW19169  11.637  11.252  11.135  0.4701  0.3475  0.0134
 3464SOL    HW119170  11.717  11.206  11.160  2.1609  2.3798 -1.2347
 3464SOL    HW219171  11.639  11.333  11.186 -1.5419 -0.1210  0.9368
 3465SOL     OW19172   5.245   0.685   5.184 -0.0161 -0.0770  0.0536
 3465SOL    HW119173   5.159   0.663   5.150  0.9327 -0.7132 -2.1672
 3465SOL    HW219174   5.286   0.600   5.203  0.5299  0.1451 -0.0843
 3466SOL     OW19175   0.195   5.564   1.095 -0.0517  1.0553  0.3212
 3466SOL    HW119176   0.113   5.607   1.069 -0.4802 -0.2532 -0.5621
 3466SOL    HW219177   0.167   5.486   1.143  0.7001  0.9292  0.5686
 3467SOL     OW19178   0.298   8.519  11.428 -0.3277 -0.1604 -0.1874
 3467SOL    HW119179   0.374   8.567  11.460 -0.0597 -0.4495 -0.3915
 3467SOL    HW219180   0.278   8.457  11.498 -1.4650  1.1041  0.6525
 3468SOL     OW19181  10.726  12.109   8.759 -0.2075  0.1369 -0.4584
 3468SOL    HW119182  10.699  12.087   8.670 -0.1574  0.3332 -0.5230
 3468SOL    HW219183  10.820  12.091   8.761 -0.0908  0.6950 -0.6266
 3469SOL     OW19184   1.996   8.344   3.539 -0.1635  0.8093 -0.4954
 3469SOL    HW119185   1.949   8.367   3.459 -1.6831  1.3259  0.5110
 3469SOL    HW219186   2.079   8.391   3.532 -0.2872  0.8651 -1.7490
 3470SOL     OW19187   8.700   3.857  10.583  0.0178  0.3367 -0.0648
 3470SOL    HW119188   8.683   3.906  10.503  3.8809  0.8822 -0.7675
 3470SOL    HW219189   8.662   3.770  10.568 -1.7290  1.2525 -1.2600
 3471SOL     OW19190   0.083  12.327   1.922 -0.0420 -0.2193  0.2814
 3471SOL    HW119191   0.081  12.240   1.962  2.4661  0.0930  1.2695
 3471SOL    HW219192   0.120  12.312   1.835 -1.6346 -0.3501 -0.4230
 3472SOL     OW19193   0.967   9.380   4.778 -0.4065  0.2853 -0.3265
 3472SOL    HW119194   0.879   9.360   4.744  0.1490 -0.4832 -1.3728
 3472SOL    HW219195   1.010   9.295   4.785  0.4206  0.6987 -0.2621
 3473SOL     OW19196   8.987   6.833  11.969 -0.0443  0.3814  0.1292
 3473SOL    HW119197   9.004   6.853  12.061  0.5601  0.4439  0.0101
 3473SOL    HW219198   9.026   6.906  11.921  0.0745  0.1023 -0.2015
 3474SOL     OW19199   1.468   1.857   4.743  0.1223  0.1722 -0.0405
 3474SOL    HW119200   1.426   1.888   4.824  1.6745 -0.4576  1.0526
 3474SOL    HW219201   1.453   1.927   4.680 -1.8648  0.3105  0.5112
 3475SOL     OW19202   7.676   0.959  10.926  0.1192  0.8306 -0.0206
 3475SOL    HW119203   7.760   0.925  10.897  0.1425  0.2192  0.7115
 3475SOL    HW219204   7.616   0.940  10.855  0.6525  1.5157 -0.6635
 3476SOL     OW19205   7.381   0.058   2.384  0.2499 -0.0603  0.4895
 3476SOL    HW119206   7.469   0.021   2.370  0.6560  0.9817  0.2038
 3476SOL    HW219207   7.347   0.009   2.460 -0.3906 -2.9827 -1.5158
 3477SOL     OW19208   9.586   3.585   8.693  0.3626 -0.3885  0.0439
 3477SOL    HW119209   9.647   3.565   8.764  1.5237 -0.0162 -0.8127
 3477SOL    HW219210   9.566   3.678   8.703  1.4461 -0.0483 -0.7698
 3478SOL     OW19211   7.738   9.298   3.800 -0.4098 -0.4711 -0.4318
 3478SOL    HW119212   7.791   9.218   3.804  0.1910 -0.1159 -1.0303
 3478SOL    HW219213   7.741   9.332   3.890 -1.3093 -1.5111  0.0087
 3479SOL     OW19214   3.418  11.724   4.199  0.1361 -0.3069  0.2497
 3479SOL    HW119215   3.435  11.633   4.224 -2.3343 -0.3361  2.1637
 3479SOL    HW219216   3.421  11.773   4.281 -3.3913  0.4597  0.0862
 3480SOL     OW19217   4.226   4.137   4.798 -0.2040  0.1878 -0.1829
 3480SOL    HW119218   4.195   4.142   4.708  1.1104  0.3516 -0.6432
 3480SOL    HW219219   4.231   4.043   4.816  3.6804 -0.1144 -1.8427
 3481SOL     OW19220   4.315  11.419  11.590 -0.1028 -0.8792 -0.0853
 3481SOL    HW119221   4.295  11.345  11.647 -1.0172 -1.3629 -1.0045
 3481SOL    HW219222   4.379  11.386  11.528 -0.5380 -0.9243 -0.5192
 3482SOL     OW19223   1.494   3.696   2.635 -0.1202  0.5557 -0.4258
 3482SOL    HW119224   1.433   3.639   2.683  0.8726 -0.4015 -0.2605
 3482SOL    HW219225   1.489   3.780   2.680  0.1227 -0.0660  0.8073
 3483SOL     OW19226   1.565   0.106   6.772 -0.6305  0.1951  0.1924
 3483SOL    HW119227   1.479   0.136   6.804 -1.7205  0.5165 -2.7211
 3483SOL    HW219228   1.565   0.129   6.679  2.4994 -0.1800  0.0004
 3484SOL     OW19229  10.518   1.085   6.218  0.1449 -0.1247 -0.1825
 3484SOL    HW119230  10.600   1.124   6.187 -0.3240  0.0097 -1.3121
 3484SOL    HW219231  10.456   1.101   6.147  0.4544 -4.9804 -1.9142
 3485SOL     OW19232   9.437   1.123   9.049  0.7180  0.8010  0.3398
 3485SOL    HW119233   9.502   1.169   8.996  3.2465 -1.7911  0.9414
 3485SOL    HW219234   9.473   1.125   9.138 -2.0501  2.6148  1.5645
 3486SOL     OW19235   2.842   0.517   0.694 -0.2139 -0.8515  0.3983
 3486SOL    HW119236   2.774   0.560   0.746 -1.5203 -1.8863 -0.4104
 3486SOL    HW219237   2.861   0.578   0.623  0.9142  0.1557  1.5001
 3487SOL     OW19238   9.136   6.051   1.942  0.6590 -0.7582 -0.1744
 3487SOL    HW119239   9.215   6.092   1.978 -0.5151  2.1124 -0.6055
 3487SOL    HW219240   9.166   6.007   1.863  1.8154  0.7397 -0.6362
 3488SOL     OW19241   4.444  12.146   5.441  0.5782 -0.0707 -0.0274
 3488SOL    HW119242   4.468  12.235   5.467  0.5639  0.1352 -0.7142
 3488SOL    HW219243   4.520  12.115   5.392 -0.1344  0.2211 -1.3444
 3489SOL     OW19244   7.223   3.244   6.941 -0.0484  0.6762  0.3996
 3489SOL    HW119245   7.199   3.196   6.862 -0.3528  1.7392 -0.1839
 3489SOL    HW219246   7.265   3.179   6.997  3.0333  0.4760 -1.8696
 3490SOL     OW19247   8.601   1.586  11.600  0.3016 -0.4432  0.0475
 3490SOL    HW119248   8.518   1.573  11.646  0.8742 -1.1628  0.9039
 3490SOL    HW219249   8.577   1.589  11.507 -0.5633 -1.7474  0.2039
 3491SOL     OW19250  12.226   6.282   2.246 -0.6552  0.0559  0.3648
 3491SOL    HW119251  12.204   6.201   2.200 -2.9717  0.0738  1.2779
 3491SOL    HW219252  12.204   6.264   2.338 -1.3271  1.7257  0.5710
 3492SOL     OW19253   4.771   5.525   7.551 -0.3653  0.1725  0.1523
 3492SOL    HW119254   4.852   5.540   7.600  1.5642 -0.2335 -2.7103
 3492SOL    HW219255   4.732   5.612   7.541  0.8394  0.6883 -0.2107
 3493SOL     OW19256   7.666   1.846   7.792  0.2076  0.3714 -0.2813
 3493SOL    HW119257   7.638   1.759   7.766  0.3077  0.2330  0.0673
 3493SOL    HW219258   7.656   1.899   7.713  0.4815 -0.0302 -0.5895
 3494SOL     OW19259   0.741   5.165   4.934  0.8671 -0.6874  0.7381
 3494SOL    HW119260   0.646   5.157   4.924  0.6350  0.7988  1.4673
 3494SOL    HW219261   0.762   5.111   5.010  0.4830 -0.3775  1.0682
 3495SOL     OW19262   6.226   8.119   9.948 -0.0965 -0.1185 -0.1920
 3495SOL    HW119263   6.195   8.154   9.864  4.3694 -0.1504 -2.0852
 3495SOL    HW219264   6.209   8.025   9.943 -1.1162  0.0597 -0.3788
 3496SOL     OW19265  10.743   7.353   6.626  0.5549 -0.1078 -0.1795
 3496SOL    HW119266  10.782   7.297   6.559 -0.0597 -0.0857 -0.5583
 3496SOL    HW219267  10.655   7.371   6.594  0.4732  0.4192  0.3327
 3497SOL     OW19268   9.666   3.245   5.752  0.1985 -0.0297  0.1143
 3497SOL    HW119269   9.679   3.282   5.839  2.8318  0.0194 -0.2286
 3497SOL    HW219270   9.633   3.157   5.768  0.7628 -0.0585  1.1637
 3498SOL     OW19271   8.198   0.284   8.707  0.3727  0.2212  0.0722
 3498SOL    HW119272   8.210   0.211   8.767 -0.3104 -0.6438 -0.8074
 3498SOL    HW219273   8.152   0.351   8.758  0.3736 -0.2489  0.6899
 3499SOL     OW19274   6.732   0.183   5.687  0.0446 -0.3039 -0.2628
 3499SOL    HW119275   6.828   0.186   5.687  0.0878  0.5422 -2.6515
 3499SOL    HW219276   6.710   0.136   5.607 -1.5413  0.3061 -0.2110
 3500SOL     OW19277   7.914  11.796   5.363  0.6983 -0.0888 -0.6258
 3500SOL    HW119278   7.823  11.765   5.359 -0.0044  1.7711 -0.1889
 3500SOL    HW219279   7.932  11.829   5.276  0.7013  0.2299 -0.5036
 3501SOL     OW19280   7.775   4.305  12.387 -0.3511 -0.5199  0.7567
 3501SOL    HW119281   7.802   4.275  12.300  0.9862 -1.8173  1.5906
 3501SOL    HW219282   7.729   4.231  12.425  0.1386 -0.3883  1.6203
 3502SOL     OW19283   6.831   5.514   6.486 -0.2342 -0.4671  0.4066
 3502SOL    HW119284   6.817   5.451   6.557  1.6498 -0.3151  0.9517
 3502SOL    HW219285   6.911   5.485   6.443  0.4084  1.2624  0.3658
 3503SOL     OW19286  11.928   1.465   0.184 -0.4208  0.4324 -0.1638
 3503SOL    HW119287  12.002   1.524   0.180  0.5527 -0.7278  0.0612
 3503SOL    HW219288  11.851   1.522   0.189  0.5636  1.6757  1.7522
 3504SOL     OW19289   4.759   4.315   0.020 -0.4295  0.3680 -0.4879
 3504SOL    HW119290   4.817   4.276   0.085  0.9887  2.6056 -0.3049
 3504SOL    HW219291   4.803   4.302  -0.064 -0.0449  1.3581 -0.4485
 3505SOL     OW19292   7.717  11.808  11.441  0.0071 -0.0867  0.6722
 3505SOL    HW119293   7.782  11.878  11.454 -0.4339  0.5927 -0.6321
 3505SOL    HW219294   7.765  11.728  11.461  0.8658  0.4930  1.0333
 3506SOL     OW19295   0.635   6.577   1.553  0.2496  0.1685 -0.0419
 3506SOL    HW119296   0.664   6.544   1.467 -0.2805 -1.1425  0.2441
 3506SOL    HW219297   0.697   6.539   1.615  0.0063  0.2379  0.2444
 3507SOL     OW19298   4.105   2.769   9.467 -0.1513  0.3043 -0.0596
 3507SOL    HW119299   4.200   2.768   9.460 -0.0872  0.9599  0.5422
 3507SOL    HW219300   4.086   2.847   9.519 -0.8409 -1.3566  2.3854
 3508SOL     OW19301   7.960   9.940  11.063 -0.0120  0.4711 -0.0699
 3508SOL    HW119302   7.948  10.006  10.994 -2.4897 -0.9905 -1.1653
 3508SOL    HW219303   7.945   9.856  11.019 -1.0402 -0.5677  2.0834
 3509SOL     OW19304   3.444   0.844   5.311 -0.0879 -0.4869  0.3262
 3509SOL    HW119305   3.359   0.877   5.282 -0.7709  0.5734  3.2222
 3509SOL    HW219306   3.423   0.765   5.361  0.8443 -1.1726 -0.3245
 3510SOL     OW19307   4.360   7.469   6.123 -0.2485 -0.0716  0.2504
 3510SOL    HW119308   4.351   7.553   6.079 -0.5032  0.0270  0.4876
 3510SOL    HW219309   4.346   7.489   6.216  1.8045  0.0109  0.5997
 3511SOL     OW19310   5.247   7.368   4.263  0.2667 -0.2387  0.0992
 3511SOL    HW119311   5.191   7.301   4.225 -0.4896 -0.6178  1.7751
 3511SOL    HW219312   5.305   7.320   4.323 -1.1135  0.6538  2.2681
 3512SOL     OW19313   4.400   2.858   0.987  0.1724 -0.1844  0.3452
 3512SOL    HW119314   4.353   2.780   0.956 -0.5341  0.0585  0.7690
 3512SOL    HW219315   4.336   2.903   1.043  0.8048  0.3391  0.6561
 3513SOL     OW19316   9.495   3.183   7.610 -0.1198  0.0617 -0.5531
 3513SOL    HW119317   9.533   3.099   7.584  0.0596  0.2632 -0.9532
 3513SOL    HW219318   9.488   3.178   7.705  0.6622 -0.0811 -0.5002
 3514SOL     OW19319   3.604   2.701   5.445  0.5666  0.2743  0.0426
 3514SOL    HW119320   3.631   2.685   5.354  0.8152  0.9961 -0.0184
 3514SOL    HW219321   3.604   2.614   5.486  1.4943  0.0652 -0.3685
 3515SOL     OW19322   4.417  10.146   9.239  0.0994  0.3605 -0.1604
 3515SOL    HW119323   4.332  10.171   9.203 -0.6663 -0.9567  0.6485
 3515SOL    HW219324   4.456  10.229   9.268 -0.9124  0.9759 -0.5151
 3516SOL     OW19325   4.340   3.217   3.298  0.4639 -0.6142  0.3695
 3516SOL    HW119326   4.277   3.250   3.362  2.3677 -0.3388  2.2446
 3516SOL    HW219327   4.304   3.241   3.213 -0.4364  2.3521  1.4633
 3517SOL     OW19328   3.175  10.174   9.382 -0.0697 -0.3750  0.2654
 3517SOL    HW119329   3.206  10.172   9.473  1.4883  0.5742 -0.2084
 3517SOL    HW219330   3.216  10.097   9.341 -1.6140 -1.4100  0.5858
 3518SOL     OW19331   4.881   1.010  10.351  0.6434 -0.6898  0.2755
 3518SOL    HW119332   4.831   1.056  10.283  2.6029 -2.3626 -2.4805
 3518SOL    HW219333   4.814   0.973  10.408 -1.0507  2.6034  0.6916
 3519SOL     OW19334   3.238   8.865   0.007 -0.0146 -0.1626 -0.1799
 3519SOL    HW119335   3.257   8.954   0.036  2.5367 -1.1742  1.7449
 3519SOL    HW219336   3.194   8.825   0.082 -1.3554 -0.5005 -1.1162
 3520SOL     OW19337  10.933   6.456  11.365 -0.4872  0.5461  0.3830
 3520SOL    HW119338  10.960   6.546  11.348 -0.5870  0.2242 -1.7069
 3520SOL    HW219339  10.924   6.451  11.460  3.9569  1.4567  1.0656
 3521SOL     OW19340   4.976   4.772   4.883  0.8821 -0.3718  0.0101
 3521SOL    HW119341   5.032   4.836   4.926  2.0024 -0.1475 -1.6909
 3521SOL    HW219342   4.993   4.690   4.929 -0.1313  0.3726  1.8295
 3522SOL     OW19343   4.930   2.696   2.469 -0.5673  0.1822  0.5857
 3522SOL    HW119344   4.931   2.607   2.504 -0.8184 -0.3965 -0.8236
 3522SOL    HW219345   4.995   2.743   2.521 -0.2854 -0.8713  1.2108
 3523SOL     OW19346   0.897   8.153   2.940  0.2566 -0.5132  0.0064
 3523SOL    HW119347   0.828   8.213   2.914 -0.0018 -0.9797 -0.3995
 3523SOL    HW219348   0.871   8.068   2.904  0.7879 -0.7995  0.2726
 3524SOL     OW19349   8.424  11.058  11.858 -0.3464  0.1965  0.2862
 3524SOL    HW119350   8.412  11.091  11.947  0.7340 -0.9793  0.9010
 3524SOL    HW219351   8.369  11.114  11.804 -1.2958  0.7168  1.7374
 3525SOL     OW19352   0.787  11.206   0.796 -0.0711 -0.2175  0.4948
 3525SOL    HW119353   0.724  11.193   0.726  0.4150 -0.1628  0.0348
 3525SOL    HW219354   0.783  11.126   0.848  0.0128 -0.5247  0.0334
 3526SOL     OW19355   0.610  10.907   0.322  0.4257  0.3708 -0.0565
 3526SOL    HW119356   0.560  10.975   0.277  2.1074  1.7355  0.0472
 3526SOL    HW219357   0.562  10.893   0.404  0.1572  1.6146  0.0229
 3527SOL     OW19358   7.293  12.199   5.910 -0.0709  0.0921 -0.0966
 3527SOL    HW119359   7.211  12.149   5.912 -0.4259  0.6831  0.2408
 3527SOL    HW219360   7.342  12.161   5.837 -0.4796 -0.5232 -0.0630
 3528SOL     OW19361   8.881   5.191   6.094 -0.0147 -0.1356  0.0115
 3528SOL    HW119362   8.849   5.237   6.017 -2.0918 -1.6162 -0.0957
 3528SOL    HW219363   8.875   5.255   6.165  0.6091  0.8226 -0.7849
 3529SOL     OW19364   1.693   1.580  11.928 -0.2605 -0.2433 -0.0113
 3529SOL    HW119365   1.598   1.593  11.929 -0.1514  0.7793 -1.0844
 3529SOL    HW219366   1.716   1.576  11.835  0.8054 -0.0652  0.2297
 3530SOL     OW19367  10.060  11.511  10.807  0.3911  0.8311  0.4242
 3530SOL    HW119368  10.106  11.580  10.856  1.9935  1.4665 -1.7798
 3530SOL    HW219369  10.010  11.464  10.873  0.6272  3.0135  2.2927
 3531SOL     OW19370  12.327   7.753   6.489  0.1882  0.3933  0.6395
 3531SOL    HW119371  12.401   7.756   6.550 -0.1619 -2.6366  1.3916
 3531SOL    HW219372  12.367   7.759   6.403  1.1166  0.8088  1.0856
 3532SOL     OW19373   2.048   8.062   2.189 -0.4234 -0.5680  0.0751
 3532SOL    HW119374   1.965   8.107   2.200 -0.8916 -1.1766 -0.9140
 3532SOL    HW219375   2.109   8.130   2.161 -0.4649 -0.0355  1.2245
 3533SOL     OW19376   4.711   0.067   9.739 -0.4958  0.8892  0.4435
 3533SOL    HW119377   4.729  -0.008   9.796  1.5087  1.0999  0.1593
 3533SOL    HW219378   4.618   0.059   9.717  0.2161 -3.2314 -1.9865
 3534SOL     OW19379   7.871   0.645   8.742 -0.0281  0.0814 -0.3589
 3534SOL    HW119380   7.915   0.700   8.807  2.7763 -0.8163 -1.3285
 3534SOL    HW219381   7.914   0.560   8.750 -0.5619 -0.4410 -2.4274
 3535SOL     OW19382   0.409   0.879   2.414  0.0929  0.4348  0.6110
 3535SOL    HW119383   0.378   0.832   2.491  0.9233 -0.1706  0.5974
 3535SOL    HW219384   0.497   0.843   2.398 -0.0868  0.5072 -0.6477
 3536SOL     OW19385   6.671  11.387   4.974  0.4143 -0.1323 -0.1973
 3536SOL    HW119386   6.738  11.359   4.912 -0.3871  2.4494 -2.4202
 3536SOL    HW219387   6.590  11.346   4.943  0.5818 -2.0428  1.6140
 3537SOL     OW19388  12.310   0.209  10.470  0.0705  0.0833  0.1869
 3537SOL    HW119389  12.311   0.143  10.401  0.8939  1.3441 -1.0432
 3537SOL    HW219390  12.318   0.158  10.551  2.0378 -1.2651 -0.7708
 3538SOL     OW19391   5.306   5.900  11.575 -0.4937 -0.8011  0.0293
 3538SOL    HW119392   5.377   5.943  11.621  0.0247 -1.7326  0.1081
 3538SOL    HW219393   5.233   5.962  11.580 -0.9723 -1.4750  3.4243
 3539SOL     OW19394   7.849  11.951   2.768 -0.2303 -0.0653 -0.0551
 3539SOL    HW119395   7.839  11.883   2.701  1.6685 -0.6409  0.1671
 3539SOL    HW219396   7.895  11.907   2.840  0.5730  1.3085  0.3030
 3540SOL     OW19397   3.159   6.894   6.489  0.1313  0.6284 -0.2928
 3540SOL    HW119398   3.248   6.861   6.500 -0.2763 -0.1526  0.8810
 3540SOL    HW219399   3.112   6.824   6.443  0.2266  1.2482 -1.3744
 3541SOL     OW19400   5.118  11.702   0.092 -1.0114 -0.3239  0.2334
 3541SOL    HW119401   5.071  11.637   0.039 -0.9241 -0.0231 -0.2158
 3541SOL    HW219402   5.075  11.698   0.178 -2.6207  0.7475 -0.4809
 3542SOL     OW19403   7.356   0.761   9.831  0.4557  0.3067 -0.0737
 3542SOL    HW119404   7.330   0.669   9.829  0.1362  0.3974 -1.7338
 3542SOL    HW219405   7.366   0.782   9.924 -1.3064 -0.8766  0.4182
 3543SOL     OW19406   8.035   4.257   3.264 -0.1801 -0.5285  0.1162
 3543SOL    HW119407   7.939   4.261   3.269 -0.1172 -0.0137  1.0926
 3543SOL    HW219408   8.053   4.185   3.202 -1.2019  0.4616 -1.3947
 3544SOL     OW19409   9.908   9.719   3.031 -0.6084 -0.0232 -0.3398
 3544SOL    HW119410   9.967   9.669   2.975  1.2287  1.5434  0.1014
 3544SOL    HW219411   9.875   9.656   3.095 -0.9696 -1.3372 -1.7689
 3545SOL     OW19412   8.047   8.869   3.235 -0.3491 -0.0517  0.5407
 3545SOL    HW119413   8.004   8.819   3.166 -0.0879 -1.7707  1.5581
 3545SOL    HW219414   8.100   8.934   3.188 -0.8693 -0.5849 -0.8411
 3546SOL     OW19415   8.447   6.052   1.186  0.1106 -0.3170  0.5443
 3546SOL    HW119416   8.404   5.968   1.170 -1.7099  0.5238  0.8429
 3546SOL    HW219417   8.471   6.049   1.279 -0.3754 -0.3144  0.6696
 3547SOL     OW19418   4.023  12.174  11.082  0.2948 -0.2259  0.1506
 3547SOL    HW119419   3.953  12.139  11.026 -0.6950  0.7549  0.7395
 3547SOL    HW219420   4.036  12.107  11.149 -1.9603  0.6787  1.5893
 3548SOL     OW19421   1.502   7.537   1.759 -0.5398 -0.2359  0.0997
 3548SOL    HW119422   1.445   7.461   1.773 -0.9255 -0.2333 -1.3234
 3548SOL    HW219423   1.452   7.610   1.796 -2.6844  0.1874 -3.1930
 3549SOL     OW19424   5.864   1.685   6.799  0.2527  0.5168  0.1829
 3549SOL    HW119425   5.954   1.661   6.778 -0.1814 -1.1385  0.1506
 3549SOL    HW219426   5.835   1.619   6.862 -1.9293 -0.8545 -2.1035
 3550SOL     OW19427  11.238  11.987   6.095 -0.0407  0.0890  0.2680
 3550SOL    HW119428  11.326  11.967   6.065 -0.1937 -0.5778  0.2658
 3550SOL    HW219429  11.220  12.074   6.058 -0.1372 -0.6016 -1.3793
 3551SOL     OW19430   8.182   0.661  10.546 -0.7680  0.3374 -0.1912
 3551SOL    HW119431   8.204   0.572  10.572 -0.6849  0.2751 -0.4721
 3551SOL    HW219432   8.102   0.652  10.494 -0.7928  0.4326 -0.1692
 3552SOL     OW19433   6.003  10.002   2.589  0.4344  0.2390 -0.0317
 3552SOL    HW119434   6.086   9.959   2.610  0.0880 -0.1711  0.5260
 3552SOL    HW219435   6.023  10.096   2.591  1.2163  0.1274 -1.3297
 3553SOL     OW19436   8.176   3.535   3.316 -0.5454  0.3621 -0.1934
 3553SOL    HW119437   8.137   3.585   3.244 -1.6848  0.3172  0.3637
 3553SOL    HW219438   8.262   3.511   3.285 -0.4763  1.5535 -0.9967
 3554SOL     OW19439   7.773   5.686   3.238 -0.1282  0.2125 -0.3102
 3554SOL    HW119440   7.854   5.721   3.201 -1.2405  0.9156 -2.2332
 3554SOL    HW219441   7.733   5.759   3.284 -0.7029  0.4976 -1.2373
 3555SOL     OW19442   1.113   5.063   3.064  0.3736  0.5128 -0.3972
 3555SOL    HW119443   1.162   5.122   3.121 -0.5970  1.8269 -0.8725
 3555SOL    HW219444   1.021   5.085   3.079  0.0709  0.5921 -2.1103
 3556SOL     OW19445   9.574   4.850   1.572 -0.3381  0.2550  0.0884
 3556SOL    HW119446   9.575   4.892   1.658  1.8170 -1.8014  1.1733
 3556SOL    HW219447   9.656   4.877   1.531 -0.4381 -0.3312 -0.5199
 3557SOL     OW19448  12.570   6.131   9.779  0.1836 -0.2570 -0.0674
 3557SOL    HW119449  12.539   6.044   9.754  1.3681 -0.6154 -0.3206
 3557SOL    HW219450  12.594   6.121   9.871  0.3828 -0.2190 -0.1151
 3558SOL     OW19451   6.004   1.109  10.669  0.0503  0.2550 -0.1034
 3558SOL    HW119452   6.084   1.064  10.698 -0.0697 -0.1836 -0.4508
 3558SOL    HW219453   5.936   1.043  10.675 -0.4697  0.8619  1.0287
 3559SOL     OW19454   3.799   3.413  10.594 -0.3324 -0.0621  0.2175
 3559SOL    HW119455   3.742   3.472  10.644 -1.2103  0.4901 -1.3606
 3559SOL    HW219456   3.794   3.330  10.641  0.3413  0.8875  2.0795
 3560SOL     OW19457   7.956  12.283  11.418  0.1584  0.2004 -0.1423
 3560SOL    HW119458   8.008  12.332  11.355  0.4243 -0.6253 -0.5807
 3560SOL    HW219459   7.991  12.310  11.504  0.7504  0.2693 -0.4008
 3561SOL     OW19460   3.447   0.153   1.731 -0.0212 -0.5352 -0.0113
 3561SOL    HW119461   3.404   0.073   1.762  0.6036 -1.1249 -0.6195
 3561SOL    HW219462   3.535   0.125   1.707 -0.3135 -0.0362 -1.8316
 3562SOL     OW19463   8.996   1.544   4.581 -0.5402 -0.3480 -0.0688
 3562SOL    HW119464   9.025   1.518   4.493  0.0978 -1.0740  0.3372
 3562SOL    HW219465   9.049   1.490   4.640 -1.7538 -0.6874  0.7428
 3563SOL     OW19466  10.187   8.391   5.991  0.0298  0.0520  0.0089
 3563SOL    HW119467  10.218   8.448   6.061 -0.0102 -1.6576  1.5211
 3563SOL    HW219468  10.096   8.418   5.977  0.5545  1.5472 -0.6253
 3564SOL     OW19469   1.347   2.087  11.667 -0.1034  0.6705  0.1024
 3564SOL    HW119470   1.255   2.112  11.675 -0.6697 -1.2221  0.0255
 3564SOL    HW219471   1.366   2.044  11.750 -0.6732 -2.9419 -1.4673
 3565SOL     OW19472   0.750   6.070  10.970  0.5701  0.0355  0.1768
 3565SOL    HW119473   0.780   6.000  11.028  1.6116  0.0839 -0.2989
 3565SOL    HW219474   0.778   6.150  11.013 -2.9321  0.4435  2.1509
 3566SOL     OW19475   2.715   8.550   4.497 -0.3214 -0.7464  0.3240
 3566SOL    HW119476   2.778   8.608   4.541  0.3431 -0.5043 -0.8795
 3566SOL    HW219477   2.755   8.533   4.411 -0.3458 -3.2452  0.7272
 3567SOL     OW19478   9.033   7.945   3.820 -0.2560  0.2737 -0.0245
 3567SOL    HW119479   8.950   7.980   3.851  0.0203  0.5175  0.4555
 3567SOL    HW219480   9.067   7.895   3.895  1.1395  2.1089  0.6439
 3568SOL     OW19481   6.226  11.017   6.013 -0.0344 -0.9606  0.1654
 3568SOL    HW119482   6.142  11.050   5.980  0.5179  0.2002 -0.1031
 3568SOL    HW219483   6.202  10.940   6.065 -1.1016 -1.7424 -1.3805
 3569SOL     OW19484   7.963   5.421   9.203  0.1922  0.5344  0.0612
 3569SOL    HW119485   8.055   5.424   9.180  0.7043  0.9332  1.9734
 3569SOL    HW219486   7.943   5.509   9.236 -1.2311  0.8466 -1.4483
 3570SOL     OW19487  11.532  11.509  12.181  0.3212 -0.3399  0.6708
 3570SOL    HW119488  11.493  11.434  12.135  0.3496 -0.6010  1.0640
 3570SOL    HW219489  11.533  11.579  12.117  0.3799 -0.7074  0.2663
 3571SOL     OW19490  11.897   1.852  11.574  0.0086  0.8735  0.2573
 3571SOL    HW119491  11.912   1.776  11.630  0.8522  1.8616  1.3966
 3571SOL    HW219492  11.811   1.835  11.534  0.0643 -0.5367  0.6874
 3572SOL     OW19493   0.902  12.253  10.046 -0.1780 -0.0787  0.4291
 3572SOL    HW119494   0.909  12.211   9.960  0.6301  0.9098 -0.0074
 3572SOL    HW219495   0.917  12.182  10.109 -0.9534 -0.8483 -0.2280
 3573SOL     OW19496   9.297   2.486   4.376 -0.3660 -0.1078 -0.2640
 3573SOL    HW119497   9.265   2.423   4.441 -0.9841 -0.0453 -0.4992
 3573SOL    HW219498   9.333   2.558   4.428 -1.0508  0.0403  0.0111
 3574SOL     OW19499   5.046  12.372  10.423 -0.5575 -0.4799  0.1129
 3574SOL    HW119500   5.039  12.467  10.433 -1.8251 -0.4897 -0.5406
 3574SOL    HW219501   4.998  12.352  10.343  0.6936 -1.5610 -0.4049
 3575SOL     OW19502   7.153   9.244   7.133  0.2712 -0.4995 -0.1437
 3575SOL    HW119503   7.148   9.154   7.166 -1.0541 -0.6316 -0.6419
 3575SOL    HW219504   7.159   9.298   7.212  0.6511 -0.9857  0.1725
 3576SOL     OW19505   8.522   0.026   2.151 -0.0133 -0.2154  0.0441
 3576SOL    HW119506   8.607   0.053   2.115  0.6745 -0.9658  1.0387
 3576SOL    HW219507   8.465   0.102   2.138  0.5731  0.0194 -1.3550
 3577SOL     OW19508   6.925   1.239   0.578 -0.1511  0.8080  0.1217
 3577SOL    HW119509   6.918   1.291   0.498 -1.3938  0.5443  0.0406
 3577SOL    HW219510   6.845   1.260   0.627  0.6721  1.1082  1.3811
 3578SOL     OW19511   6.080  12.348   7.147  0.1527  0.2646 -0.2481
 3578SOL    HW119512   6.160  12.321   7.102 -0.8498 -0.4146 -1.7178
 3578SOL    HW219513   6.018  12.276   7.131 -0.9817  1.1094  0.1816
 3579SOL     OW19514   5.356   9.631   1.196 -0.3300 -0.2801 -0.1453
 3579SOL    HW119515   5.408   9.561   1.236  0.3138 -0.6368 -1.5476
 3579SOL    HW219516   5.387   9.711   1.238  0.1014 -0.6757  0.2951
 3580SOL     OW19517  12.368   6.522   2.229  0.5772  0.4696  0.1752
 3580SOL    HW119518  12.343   6.431   2.247 -0.9090  0.6863 -0.6247
 3580SOL    HW219519  12.450   6.515   2.180  0.1323 -0.4871 -0.4566
 3581SOL     OW19520   0.940   4.307   3.741 -0.0547 -0.0887 -0.1053
 3581SOL    HW119521   0.860   4.299   3.689 -0.5302  0.3556  0.5474
 3581SOL    HW219522   0.987   4.380   3.701  0.2162 -0.5915 -0.7265
 3582SOL     OW19523   8.739   3.977   0.194 -0.1379  0.6922  0.1148
 3582SOL    HW119524   8.666   4.027   0.230 -1.1901  0.4229 -1.5400
 3582SOL    HW219525   8.764   4.024   0.114  1.3713  0.6506  0.5215
 3583SOL     OW19526  12.177   2.218   5.827 -0.1850 -0.1646  0.4981
 3583SOL    HW119527  12.268   2.247   5.820  0.0007 -0.7975  0.3111
 3583SOL    HW219528  12.182   2.132   5.868 -0.7474  0.0955  1.1453
 3584SOL     OW19529   5.842  11.716   1.177 -0.1484 -0.1841 -0.0060
 3584SOL    HW119530   5.884  11.797   1.207 -0.1334  0.5788 -1.9587
 3584SOL    HW219531   5.883  11.697   1.093 -0.5665 -1.9329  0.1372
 3585SOL     OW19532   8.213   1.983   0.791 -0.4832 -0.0163  0.4636
 3585SOL    HW119533   8.274   1.912   0.769  0.4452  0.4285  1.4869
 3585SOL    HW219534   8.266   2.062   0.788 -1.6854  0.7950 -1.4605
 3586SOL     OW19535  10.946   8.693  11.839 -0.2235  0.0954 -0.1988
 3586SOL    HW119536  11.040   8.712  11.841  0.3766 -2.4704  0.5851
 3586SOL    HW219537  10.910   8.756  11.777  1.9429  1.3915 -0.2693
 3587SOL     OW19538  12.531  10.803   6.467 -0.0693 -0.0673  0.3199
 3587SOL    HW119539  12.447  10.848   6.480  0.1414  0.1638  0.9159
 3587SOL    HW219540  12.571  10.850   6.394  0.2393  0.8687  1.0653
 3588SOL     OW19541   6.345   1.520  10.679  0.8319 -0.1523  0.0583
 3588SOL    HW119542   6.262   1.519  10.726 -0.0716  1.4380 -1.3773
 3588SOL    HW219543   6.400   1.458  10.726 -0.2649  0.6923  2.6567
 3589SOL     OW19544  12.174   4.135  11.298  0.1091 -0.2588  0.4238
 3589SOL    HW119545  12.114   4.190  11.247 -1.3323 -1.1540  1.0929
 3589SOL    HW219546  12.207   4.071  11.235  0.5320  0.3499  0.0103
 3590SOL     OW19547   1.072   7.368   7.945  0.5946 -0.5199 -0.4107
 3590SOL    HW119548   1.102   7.458   7.953 -3.7249  1.0126  1.7774
 3590SOL    HW219549   1.068   7.335   8.034 -2.0258 -1.2248 -0.7097
 3591SOL     OW19550   9.782   7.982   1.178  0.0704  0.0589  0.3617
 3591SOL    HW119551   9.721   8.014   1.245 -1.1099 -0.2225 -0.5514
 3591SOL    HW219552   9.759   7.890   1.166 -0.6618  0.4403 -1.3889
 3592SOL     OW19553   5.914   4.712   8.291  0.5380 -0.5264  0.0998
 3592SOL    HW119554   5.892   4.621   8.310 -0.7172 -0.2288  0.1434
 3592SOL    HW219555   5.838   4.746   8.243  1.3757  0.2487 -0.7137
 3593SOL     OW19556  11.252  11.956   7.390  0.0513  0.2413 -0.0834
 3593SOL    HW119557  11.241  12.033   7.334 -0.8674 -1.2368 -2.0432
 3593SOL    HW219558  11.334  11.917   7.362  0.5059  0.4574  0.8939
 3594SOL     OW19559   4.254   2.632   6.048  0.2405  0.7146  0.0087
 3594SOL    HW119560   4.253   2.724   6.075 -2.1335  1.3749 -2.0455
 3594SOL    HW219561   4.181   2.592   6.095  1.3396 -0.2220  0.9999
 3595SOL     OW19562   1.486   0.844   2.089  0.7437  0.7731 -0.3396
 3595SOL    HW119563   1.529   0.899   2.154 -0.5814  0.7492  0.6025
 3595SOL    HW219564   1.451   0.905   2.025 -0.5187  1.0558  0.5768
 3596SOL     OW19565  11.458   2.411   8.055 -0.1419  0.2058 -0.0281
 3596SOL    HW119566  11.500   2.496   8.040  0.2118 -0.0765 -0.6756
 3596SOL    HW219567  11.518   2.364   8.112 -0.6276  0.6087  0.8309
 3597SOL     OW19568   5.739  12.209   1.994  0.2238  0.0262  0.3924
 3597SOL    HW119569   5.700  12.131   2.032  0.0180 -0.6734 -1.1729
 3597SOL    HW219570   5.671  12.276   2.001 -0.2634 -0.4341  0.1339
 3598SOL     OW19571   1.259  12.439  11.784 -0.1178  0.3934  0.2455
 3598SOL    HW119572   1.205  12.497  11.730 -2.0987 -1.3446  0.2269
 3598SOL    HW219573   1.196  12.384  11.831  1.5504  1.2608  3.7742
 3599SOL     OW19574  11.613   7.465   8.266 -0.0837 -0.0898  0.0126
 3599SOL    HW119575  11.582   7.393   8.211 -0.3211 -0.3827  0.5168
 3599SOL    HW219576  11.538   7.524   8.273 -0.0077  0.0184 -0.1028
 3600SOL     OW19577   7.738   5.375  12.000  0.0589  0.3023  0.2748
 3600SOL    HW119578   7.721   5.285  11.974  1.0153  0.3264 -0.5236
 3600SOL    HW219579   7.800   5.408  11.934  1.1499  0.9734  1.5645
 3601SOL     OW19580   7.711   1.382   3.190  0.2551 -0.7112  0.9405
 3601SOL    HW119581   7.803   1.383   3.166  0.1324  1.3987  0.3689
 3601SOL    HW219582   7.665   1.403   3.109 -0.9363 -3.5232  0.7457
 3602SOL     OW19583   3.131   4.908   8.095 -0.0050 -0.1809 -0.2807
 3602SOL    HW119584   3.218   4.893   8.058 -0.3578 -0.4613 -1.0149
 3602SOL    HW219585   3.101   4.990   8.054 -0.2924 -0.3558 -0.4241
 3603SOL     OW19586   0.666   6.097  11.648 -0.4994 -0.0554 -0.5476
 3603SOL    HW119587   0.590   6.073  11.595 -0.9961  0.8757 -0.2910
 3603SOL    HW219588   0.656   6.191  11.662  0.6512  0.0607 -0.4132
 3604SOL     OW19589   7.727   7.597  12.029  0.4094 -0.3029  0.3392
 3604SOL    HW119590   7.633   7.581  12.031  0.5787 -1.9498 -1.6446
 3604SOL    HW219591   7.736   7.684  11.991 -0.2864  0.4332  1.7479
 3605SOL     OW19592   9.433   4.708  11.023 -0.1285  0.4089  0.1482
 3605SOL    HW119593   9.381   4.763  11.082 -0.6440  0.0275  0.0600
 3605SOL    HW219594   9.437   4.757  10.941 -1.0584  0.0751 -0.1079
 3606SOL     OW19595   4.216   2.866  10.502 -0.2226 -0.1685  0.2812
 3606SOL    HW119596   4.217   2.956  10.534  1.5142 -0.3880  0.8937
 3606SOL    HW219597   4.284   2.863  10.435 -1.1015 -0.7394 -0.6265
 3607SOL     OW19598   2.816   6.379   0.273 -0.4902  0.0388  0.0856
 3607SOL    HW119599   2.813   6.462   0.322  1.8127  0.7063 -0.7633
 3607SOL    HW219600   2.866   6.320   0.329 -0.8485 -0.3042  0.0445
 3608SOL     OW19601   9.702  11.905  10.755 -0.3948 -0.6060 -0.9602
 3608SOL    HW119602   9.620  11.939  10.721 -0.2085  1.5362  0.5652
 3608SOL    HW219603   9.677  11.850  10.829 -0.4708 -0.1670 -0.6594
 3609SOL     OW19604   1.404   4.251   2.678 -0.3082  0.2380  0.3317
 3609SOL    HW119605   1.404   4.347   2.672 -1.7080  0.2910  0.7786
 3609SOL    HW219606   1.371   4.234   2.766 -0.3414 -0.6655  0.1455
 3610SOL     OW19607   8.684   1.817   0.782  0.1956 -0.0197  0.0768
 3610SOL    HW119608   8.639   1.880   0.726  0.6124  0.0398 -0.1921
 3610SOL    HW219609   8.721   1.871   0.853 -1.4399 -0.2411  1.1566
 3611SOL     OW19610  11.777   6.071  11.860 -0.1940 -0.3750 -0.1028
 3611SOL    HW119611  11.810   5.982  11.852  1.7476  0.4141 -1.8697
 3611SOL    HW219612  11.709   6.077  11.792 -2.2084 -1.1837  1.7190
 3612SOL     OW19613   5.166   9.298  11.879 -0.5279  0.7791 -0.1792
 3612SOL    HW119614   5.135   9.246  11.804  0.5048  0.0573 -0.1154
 3612SOL    HW219615   5.128   9.254  11.955 -0.6361  0.8365 -0.1995
 3613SOL     OW19616   3.210  12.356   9.204  0.0688 -0.1001  0.3705
 3613SOL    HW119617   3.175  12.424   9.147  1.2947 -1.0101 -1.6052
 3613SOL    HW219618   3.287  12.396   9.245  0.8404 -0.2922 -0.8555
 3614SOL     OW19619   7.154   4.138   8.368  0.2737 -0.5790 -0.7719
 3614SOL    HW119620   7.156   4.228   8.402  1.3478 -1.5982  2.1184
 3614SOL    HW219621   7.065   4.107   8.388 -0.0824 -0.2207 -1.7297
 3615SOL     OW19622   9.503   3.085  11.639 -0.2962  0.3874 -0.0903
 3615SOL    HW119623   9.464   3.093  11.726 -2.2051  0.1378 -0.8729
 3615SOL    HW219624   9.441   3.127  11.580 -0.0451 -1.1967 -1.5811
 3616SOL     OW19625   2.485   7.503   6.707 -0.5080 -0.5809  0.0669
 3616SOL    HW119626   2.435   7.464   6.635 -1.2273  0.4156  0.0055
 3616SOL    HW219627   2.437   7.479   6.786  0.1423 -1.4593  0.2164
 3617SOL     OW19628  10.099   8.296   3.478  0.4033 -0.2577 -0.3806
 3617SOL    HW119629  10.154   8.218   3.475  1.9659  0.8382 -1.4765
 3617SOL    HW219630  10.135   8.354   3.411 -1.7082  0.7745 -0.7208
 3618SOL     OW19631   8.470   2.921   8.530 -0.9165  0.2252  0.2312
 3618SOL    HW119632   8.437   2.963   8.609 -1.7192  1.1198 -0.5521
 3618SOL    HW219633   8.528   2.852   8.562 -1.0165  0.7328  1.5873
 3619SOL     OW19634   8.401   6.367   0.994  0.2416 -0.4343 -0.0897
 3619SOL    HW119635   8.434   6.292   1.042 -0.6019 -0.5188  0.3663
 3619SOL    HW219636   8.412   6.441   1.054 -1.4626 -0.6519  0.5501
 3620SOL     OW19637   2.255   4.354  12.430 -0.1152 -0.1556 -0.1849
 3620SOL    HW119638   2.329   4.414  12.417 -0.3260  0.1175 -0.1366
 3620SOL    HW219639   2.248   4.307  12.347  0.9897 -1.1846  0.2709
 3621SOL     OW19640   9.147   3.267   0.908 -0.0471 -0.0956 -0.0631
 3621SOL    HW119641   9.136   3.299   0.818 -2.0433 -1.5684 -0.4117
 3621SOL    HW219642   9.171   3.175   0.898 -1.8068 -0.6978  0.8695
 3622SOL     OW19643   5.671   6.319   7.182 -0.0218 -0.0457 -0.5001
 3622SOL    HW119644   5.695   6.299   7.092  0.8574 -3.2414  0.2951
 3622SOL    HW219645   5.715   6.251   7.234 -1.7285  0.7369  2.1844
 3623SOL     OW19646  11.277   4.792   7.337  0.1385  0.4063 -0.2285
 3623SOL    HW119647  11.308   4.774   7.426 -1.2825  0.2945  0.2639
 3623SOL    HW219648  11.357   4.799   7.285  0.9873  0.2630  1.0134
 3624SOL     OW19649   5.211   8.556   6.347  0.3966 -0.1254  0.0092
 3624SOL    HW119650   5.119   8.565   6.374  0.2138 -0.4771 -0.4693
 3624SOL    HW219651   5.238   8.644   6.322  0.3879  0.0976  0.7545
 3625SOL     OW19652   6.582   5.541   8.524  0.0731  0.1783  0.2197
 3625SOL    HW119653   6.538   5.626   8.526  3.3655  2.1249 -0.7408
 3625SOL    HW219654   6.664   5.558   8.477 -0.5339 -4.3315 -3.2017
 3626SOL     OW19655   0.584  11.256  12.040  0.0866  0.0135  0.2258
 3626SOL    HW119656   0.658  11.315  12.049 -0.3257  1.1096 -2.5052
 3626SOL    HW219657   0.514  11.298  12.091  0.2722  1.0544 -0.3384
 3627SOL     OW19658   7.199   6.959   2.679 -0.3256 -0.1716 -0.1182
 3627SOL    HW119659   7.162   7.026   2.622 -1.0557 -1.1483 -0.8187
 3627SOL    HW219660   7.159   6.877   2.650  0.0604 -0.8377  1.1351
 3628SOL     OW19661   2.434   8.016   7.309 -0.2695  0.4878 -0.0697
 3628SOL    HW119662   2.527   8.025   7.287 -0.1287 -2.0251 -0.8200
 3628SOL    HW219663   2.396   7.970   7.234 -1.9232  0.5757  0.6736
 3629SOL     OW19664  12.024   0.076  11.783 -0.3633  0.1794 -0.0481
 3629SOL    HW119665  12.101   0.020  11.773  0.6818  1.8461 -1.9985
 3629SOL    HW219666  11.988   0.083  11.694 -0.5136  2.4372  0.1318
 3630SOL     OW19667   9.331   5.058   8.670  0.2781 -0.3679 -0.3139
 3630SOL    HW119668   9.381   4.991   8.717 -1.6141 -1.6865 -0.0406
 3630SOL    HW219669   9.298   5.115   8.739  2.0801  1.0581 -0.5649
 3631SOL     OW19670   1.546   2.201   5.833 -0.7352  0.2028 -0.8390
 3631SOL    HW119671   1.494   2.244   5.765 -1.2549  0.0057 -0.5747
 3631SOL    HW219672   1.525   2.108   5.824  1.7469 -0.2913 -2.5902
 3632SOL     OW19673  10.153   2.073   0.515  0.3609 -0.3860  0.0107
 3632SOL    HW119674  10.119   2.119   0.592  0.7361 -0.4579  0.2238
 3632SOL    HW219675  10.208   2.137   0.471 -0.9202  0.1006 -0.9644
 3633SOL     OW19676   5.208   3.191   6.304  0.1780  0.0360 -0.3310
 3633SOL    HW119677   5.232   3.111   6.256  0.3818 -0.3741  0.4245
 3633SOL    HW219678   5.272   3.256   6.275  2.3413 -1.0281  1.6189
 3634SOL     OW19679   8.622   0.249   6.952 -0.0794  0.0820  0.0219
 3634SOL    HW119680   8.681   0.312   6.992  0.2607  1.4466 -2.4143
 3634SOL    HW219681   8.535   0.275   6.982  0.2789  0.0944  1.0698
 3635SOL     OW19682   0.789   4.061   7.280  0.0597 -0.2175 -0.5317
 3635SOL    HW119683   0.760   4.003   7.210 -0.8355 -0.8540  0.3361
 3635SOL    HW219684   0.708   4.086   7.326  0.7162 -0.7655  0.9907
 3636SOL     OW19685   4.030   9.593  11.859  0.2276  0.2412 -0.4028
 3636SOL    HW119686   3.943   9.598  11.818  0.3284 -0.8025 -0.7827
 3636SOL    HW219687   4.015   9.620  11.949 -0.4373  0.3790 -0.5464
 3637SOL     OW19688   3.032   0.833   8.710  0.3460  0.0898 -0.0766
 3637SOL    HW119689   3.123   0.838   8.742 -0.0079  2.0342  0.7667
 3637SOL    HW219690   3.041   0.801   8.621  1.8920  0.2393 -0.0183
 3638SOL     OW19691   2.191   0.968   8.396 -0.2871  0.0649 -0.2543
 3638SOL    HW119692   2.182   0.873   8.404 -1.8663  0.2510  0.5460
 3638SOL    HW219693   2.281   0.986   8.425 -0.2891 -1.0890  0.5492
 3639SOL     OW19694   3.362   7.854   9.048 -0.3493 -0.3917 -0.0960
 3639SOL    HW119695   3.409   7.851   9.132  0.7100  1.8651 -0.5201
 3639SOL    HW219696   3.430   7.878   8.984 -1.2597 -1.4696 -1.5297
 3640SOL     OW19697   2.214   5.054   1.546  0.4117 -0.1775  0.5551
 3640SOL    HW119698   2.247   5.113   1.478  0.1366  0.6836  1.1651
 3640SOL    HW219699   2.293   5.025   1.592  0.4612  0.6034  0.9741
 3641SOL     OW19700   7.868   7.887  12.216 -0.4936  0.0155  0.3298
 3641SOL    HW119701   7.958   7.910  12.239 -1.0835  1.9961  0.9425
 3641SOL    HW219702   7.822   7.883  12.300 -0.8110 -1.9158  0.0965
 3642SOL     OW19703   6.911  10.043   4.430  0.1349 -0.8335  0.5415
 3642SOL    HW119704   6.931  10.012   4.342  3.1693 -0.0580  0.8519
 3642SOL    HW219705   6.897  10.137   4.420  0.1415 -0.8011  0.8264
 3643SOL     OW19706   9.693  12.190   3.256  0.0898  0.7015 -0.0477
 3643SOL    HW119707   9.648  12.236   3.328  0.1030 -1.0688  1.1608
 3643SOL    HW219708   9.624  12.175   3.191 -0.1733  1.3749  0.0656
 3644SOL     OW19709   6.589   7.925   4.217  0.2172  0.0349  0.1106
 3644SOL    HW119710   6.495   7.913   4.233  0.2712 -0.0271  0.3729
 3644SOL    HW219711   6.594   8.007   4.169  0.0694  0.2651  0.4866
 3645SOL     OW19712   7.752   1.635   2.998 -0.2560 -0.1105  0.3381
 3645SOL    HW119713   7.813   1.656   3.070 -0.4902  1.9201  0.0039
 3645SOL    HW219714   7.782   1.550   2.966  0.8922 -0.2906  1.7470
 3646SOL     OW19715   4.380  10.511  10.231  0.4054  0.0553  0.1905
 3646SOL    HW119716   4.406  10.483  10.319  0.9995  0.9886  0.3270
 3646SOL    HW219717   4.427  10.594  10.218 -0.7459  0.6153 -0.4727
 3647SOL     OW19718   9.629   9.815   4.160 -0.0176 -0.0615 -0.4093
 3647SOL    HW119719   9.633   9.879   4.231  1.5759 -0.7392  0.1604
 3647SOL    HW219720   9.572   9.855   4.094 -1.2912  0.7151  1.1094
 3648SOL     OW19721   9.480  10.289   1.246 -0.5339 -0.3325 -0.4951
 3648SOL    HW119722   9.448  10.237   1.173 -2.1129 -3.1143  1.9695
 3648SOL    HW219723   9.484  10.378   1.212 -0.0865 -1.6177 -4.2316
 3649SOL     OW19724   9.176   2.994   8.407 -0.2583 -0.9979 -0.3442
 3649SOL    HW119725   9.201   3.069   8.461 -0.6006 -0.0512 -1.4440
 3649SOL    HW219726   9.230   3.003   8.328  0.3706 -2.4511 -0.1170
 3650SOL     OW19727   8.080  11.035   6.321  0.2010  0.0931 -0.7635
 3650SOL    HW119728   8.054  10.975   6.252  0.7959 -1.8231  0.5914
 3650SOL    HW219729   8.005  11.037   6.381  0.4559  0.1270 -0.4391
 3651SOL     OW19730   5.219   7.538   2.385 -0.2016  0.9902  0.0402
 3651SOL    HW119731   5.279   7.495   2.324 -0.3003 -1.3224  1.4580
 3651SOL    HW219732   5.143   7.480   2.389  0.1471  0.6070  2.9122
 3652SOL     OW19733   4.437   7.000   5.965  0.8892  0.3204  0.3531
 3652SOL    HW119734   4.521   6.958   5.985 -0.3113 -1.9898  0.9233
 3652SOL    HW219735   4.433   7.001   5.869  2.0263  1.4929  0.2992
 3653SOL     OW19736   5.117   8.205  11.904  0.3035 -0.2532  0.3954
 3653SOL    HW119737   5.120   8.110  11.893  0.3126 -0.0829 -1.3307
 3653SOL    HW219738   5.189   8.238  11.850 -0.5534  0.8069 -0.1416
 3654SOL     OW19739   6.946   0.449   5.974 -0.6211  0.4166 -0.2166
 3654SOL    HW119740   7.013   0.419   6.034  0.7529 -0.9267 -2.2961
 3654SOL    HW219741   6.994   0.483   5.898 -2.2719  1.7601 -0.7500
 3655SOL     OW19742   6.858  10.705   7.243 -0.0853  0.7465  0.2679
 3655SOL    HW119743   6.935  10.760   7.238  0.7263 -0.3221  0.5857
 3655SOL    HW219744   6.788  10.763   7.272  0.6466  1.6804  0.1869
 3656SOL     OW19745   0.487   5.759   8.200  0.2712  0.6809  0.3400
 3656SOL    HW119746   0.549   5.759   8.273 -0.1804 -0.1938  0.7395
 3656SOL    HW219747   0.534   5.802   8.128  1.7217 -0.8038  0.3256
 3657SOL     OW19748  11.713   2.664   3.910 -0.3049 -0.1140  0.7295
 3657SOL    HW119749  11.717   2.652   3.815 -0.8222  2.6146  0.2926
 3657SOL    HW219750  11.764   2.743   3.926 -1.4326  0.2948  2.5472
 3658SOL     OW19751   3.401  10.001   9.293  0.0623 -0.2794 -0.3568
 3658SOL    HW119752   3.445   9.944   9.356  1.3493  0.9566 -0.0780
 3658SOL    HW219753   3.370   9.941   9.225 -3.1205 -1.9141  2.2772
 3659SOL     OW19754   9.274   1.625   6.743 -0.1258 -0.3418 -0.1464
 3659SOL    HW119755   9.179   1.620   6.730 -0.2760 -0.7184  0.9954
 3659SOL    HW219756   9.285   1.686   6.816  0.4930 -0.5165 -0.0849
 3660SOL     OW19757   4.091   1.000   4.409 -0.1788  0.0874 -0.2436
 3660SOL    HW119758   4.051   1.037   4.488 -0.3599 -0.4036 -0.1000
 3660SOL    HW219759   4.181   0.981   4.435 -0.6504 -1.5648  0.3698
 3661SOL     OW19760   8.319   4.675   1.908  0.3172  0.4967 -0.7038
 3661SOL    HW119761   8.354   4.647   1.823  0.9804  0.3564 -0.3890
 3661SOL    HW219762   8.333   4.600   1.966  1.6200  1.2619  0.0156
 3662SOL     OW19763   4.348   3.137   2.884 -0.5320 -0.0045  0.2485
 3662SOL    HW119764   4.387   3.079   2.949 -0.2324  0.4642  0.4944
 3662SOL    HW219765   4.355   3.089   2.802  1.6367  0.5145  0.0625
 3663SOL     OW19766   6.006  12.119   0.752 -0.1115 -0.1827  0.2256
 3663SOL    HW119767   5.975  12.066   0.825 -0.1990 -1.1409 -0.4919
 3663SOL    HW219768   5.965  12.081   0.674 -1.0960  1.6424 -0.2230
 3664SOL     OW19769   4.890   0.577   7.131  0.0251  0.4507 -0.1930
 3664SOL    HW119770   4.866   0.512   7.065  0.2105 -1.3244  1.3844
 3664SOL    HW219771   4.809   0.591   7.181  0.3654  0.2527  0.4198
 3665SOL     OW19772   9.555   1.696   9.989 -0.3412  0.1299  0.0062
 3665SOL    HW119773   9.471   1.682  10.033  0.8453 -1.2083  2.0275
 3665SOL    HW219774   9.573   1.613   9.945  0.4083  0.0082  0.5238
 3666SOL     OW19775   6.798  10.555   1.112 -0.3779 -0.4090 -0.0194
 3666SOL    HW119776   6.778  10.627   1.173  0.0049  0.2002 -0.5972
 3666SOL    HW219777   6.813  10.599   1.028  1.2585 -1.0293 -0.0782
 3667SOL     OW19778   8.908   1.778   4.235 -0.0132 -0.0682 -0.1098
 3667SOL    HW119779   8.846   1.849   4.250 -1.2639 -1.1456  0.0483
 3667SOL    HW219780   8.873   1.731   4.159  0.6436 -0.6635 -0.0580
 3668SOL     OW19781   7.237  10.502  10.337 -0.0516 -0.6218  0.1077
 3668SOL    HW119782   7.243  10.426  10.395  0.7517  0.3973  1.4385
 3668SOL    HW219783   7.325  10.513  10.302 -0.1029 -0.1623  0.1173
 3669SOL     OW19784   3.842   1.592   0.269  0.3941 -0.0284 -0.1931
 3669SOL    HW119785   3.921   1.605   0.217  0.1862 -0.2682 -0.5723
 3669SOL    HW219786   3.863   1.631   0.354  0.6604  0.5624 -0.5208
 3670SOL     OW19787   7.130   4.048  11.363 -1.1480  0.1308 -0.0707
 3670SOL    HW119788   7.081   3.988  11.418 -0.4030 -1.3661 -0.9537
 3670SOL    HW219789   7.221   4.017  11.369 -0.8035  0.9456 -0.8399
 3671SOL     OW19790   3.240  11.995   9.565  0.4124  0.1167 -0.4944
 3671SOL    HW119791   3.151  11.998   9.531 -0.5823 -0.0663  1.8708
 3671SOL    HW219792   3.292  12.044   9.501 -1.4421  0.6099 -1.7101
 3672SOL     OW19793   2.386   0.718   0.909 -0.4203 -0.5544 -0.1109
 3672SOL    HW119794   2.349   0.696   0.994  0.1141 -0.5740  0.1234
 3672SOL    HW219795   2.330   0.673   0.846  0.6251 -2.6477  0.3459
 3673SOL     OW19796   3.840  11.308   3.922  0.4252 -0.2954  0.0454
 3673SOL    HW119797   3.830  11.254   3.843  2.3057  0.0529 -0.4741
 3673SOL    HW219798   3.838  11.245   3.994  1.6498 -0.9876 -0.4916
 3674SOL     OW19799  11.967   7.350   5.348  0.0581 -0.0966  0.1097
 3674SOL    HW119800  12.047   7.331   5.397  0.4741 -1.2816 -0.9901
 3674SOL    HW219801  11.998   7.384   5.263 -0.6108 -0.1992 -0.1853
 3675SOL     OW19802   5.519   5.945   1.080 -0.0949 -0.0089  0.4422
 3675SOL    HW119803   5.528   5.923   0.987  0.7070 -0.7581  0.6734
 3675SOL    HW219804   5.476   6.030   1.081  0.8480  0.5128 -0.6564
 3676SOL     OW19805   3.773  10.970  11.760  0.4785 -0.0405 -0.1529
 3676SOL    HW119806   3.747  10.878  11.765 -2.8888  0.8420  2.1338
 3676SOL    HW219807   3.829  10.983  11.837  2.1494 -0.3664 -1.2421
 3677SOL     OW19808  12.225   9.547   4.388  0.7627 -0.1039 -0.4864
 3677SOL    HW119809  12.234   9.474   4.449  1.7505  0.0118 -0.4732
 3677SOL    HW219810  12.249   9.511   4.303 -0.9994 -0.3633 -0.8983
 3678SOL     OW19811  10.230   3.077  10.886 -0.1448 -0.4021  0.1855
 3678SOL    HW119812  10.282   3.112  10.959 -0.8788  3.4118 -0.8912
 3678SOL    HW219813  10.280   3.099  10.808 -1.9485  0.7678 -0.7169
 3679SOL     OW19814   9.442   9.355  11.304  0.6466  0.1497 -0.1950
 3679SOL    HW119815   9.536   9.355  11.321  0.7049  1.8673 -0.3358
 3679SOL    HW219816   9.434   9.388  11.214 -0.0785 -0.4702 -0.3701
 3680SOL     OW19817   4.203   8.153  12.301 -0.3387 -0.0950  0.2103
 3680SOL    HW119818   4.183   8.177  12.391  1.3009  0.8572  0.3462
 3680SOL    HW219819   4.270   8.215  12.273  1.1289 -1.9938 -0.7693
 3681SOL     OW19820   7.073   8.552   0.412 -0.1183 -0.0733  0.9916
 3681SOL    HW119821   7.033   8.632   0.445 -0.6153  0.3406 -0.5398
 3681SOL    HW219822   7.003   8.487   0.413 -0.3289  0.1334  0.1099
 3682SOL     OW19823   3.855   3.886   7.730 -0.3926 -0.2381 -0.3519
 3682SOL    HW119824   3.890   3.815   7.785  1.0334  0.6336 -0.1077
 3682SOL    HW219825   3.832   3.843   7.648  1.2447 -0.8667 -0.5121
 3683SOL     OW19826  11.469   9.830   4.806 -0.0674 -0.4250  0.6290
 3683SOL    HW119827  11.430   9.917   4.803 -1.1752 -0.9106  0.3439
 3683SOL    HW219828  11.560   9.845   4.832 -0.4606  0.7403  1.4283
 3684SOL     OW19829   4.044   4.306   8.536 -0.1780 -0.2360 -0.0424
 3684SOL    HW119830   4.092   4.296   8.454 -0.0167  1.8305 -0.2447
 3684SOL    HW219831   4.048   4.219   8.577  2.4715 -0.5264 -0.7370
 3685SOL     OW19832  10.863  11.691   8.252 -0.1426  0.3344 -0.1861
 3685SOL    HW119833  10.927  11.705   8.183 -1.1877  1.2205 -1.0179
 3685SOL    HW219834  10.779  11.715   8.212 -0.7498  1.0974  1.4630
 3686SOL     OW19835   9.439   3.504   5.025  0.8006  0.0161  0.2285
 3686SOL    HW119836   9.509   3.478   5.085 -0.0404  0.0480  1.2587
 3686SOL    HW219837   9.447   3.599   5.018  0.5759  0.0735  0.7199
 3687SOL     OW19838   6.409   2.384   6.003 -0.8030 -0.0312  0.1040
 3687SOL    HW119839   6.345   2.313   5.992 -0.4204 -0.5511  1.1653
 3687SOL    HW219840   6.492   2.347   5.974 -0.9270  0.5949 -1.1222
 3688SOL     OW19841   3.718   7.759   0.723  0.5939  0.0968  0.3148
 3688SOL    HW119842   3.690   7.757   0.815 -1.8289  1.4745 -0.2772
 3688SOL    HW219843   3.723   7.853   0.702  0.2007 -0.1854 -1.1739
 3689SOL     OW19844   3.866   9.396   8.397  0.2561  0.1408 -0.1030
 3689SOL    HW119845   3.936   9.338   8.366  0.0119  0.1404 -0.6690
 3689SOL    HW219846   3.896   9.484   8.373 -0.9490 -0.0036 -2.4744
 3690SOL     OW19847   0.609   5.116   5.212  0.2902 -0.3485 -0.7304
 3690SOL    HW119848   0.533   5.162   5.177  0.0494 -0.4543 -0.3502
 3690SOL    HW219849   0.670   5.186   5.236  0.6987 -0.2906 -1.8887
 3691SOL     OW19850  10.048   7.223  11.838  0.0947  0.0776 -0.1852
 3691SOL    HW119851  10.082   7.287  11.900 -0.9669  0.2739  0.2163
 3691SOL    HW219852   9.961   7.200  11.872  0.0762 -0.8773 -0.8311
 3692SOL     OW19853   6.070  10.068   6.681 -0.1473  0.0482  0.3134
 3692SOL    HW119854   5.999  10.073   6.746 -0.8611 -0.3265 -0.4137
 3692SOL    HW219855   6.150  10.065   6.733 -0.5536  1.8878  1.1382
 3693SOL     OW19856   1.212   6.859   7.227 -0.5859  0.5123 -0.3171
 3693SOL    HW119857   1.189   6.858   7.320 -0.2206  0.3110 -0.2262
 3693SOL    HW219858   1.292   6.912   7.224 -0.3611  0.1640 -0.4597
 3694SOL     OW19859   9.875   8.553  10.959 -0.0011  0.1152  0.4780
 3694SOL    HW119860   9.935   8.520  10.893 -1.1516 -0.2304 -0.4335
 3694SOL    HW219861   9.847   8.638  10.925  1.0970  0.9731  1.6356
 3695SOL     OW19862   1.807   0.172   9.908 -0.1040  0.1203 -0.0046
 3695SOL    HW119863   1.879   0.118   9.874 -1.6800 -1.8699 -0.3737
 3695SOL    HW219864   1.814   0.164  10.003  0.1280 -0.1428 -0.0408
 3696SOL     OW19865   0.051   8.187   5.254  0.1066 -0.0975  0.6773
 3696SOL    HW119866   0.029   8.113   5.310  0.2337 -1.4091 -0.9316
 3696SOL    HW219867  -0.024   8.195   5.195  0.5711  0.3811  0.1430
 3697SOL     OW19868  12.121   7.156   5.020 -0.0934 -0.3411  0.0550
 3697SOL    HW119869  12.097   7.131   4.931 -2.5790 -1.7944  1.0320
 3697SOL    HW219870  12.102   7.249   5.026  0.0194 -0.2522 -0.8955
 3698SOL     OW19871   7.671   4.451   9.102  0.2263 -0.3073  0.2363
 3698SOL    HW119872   7.699   4.514   9.035  0.8831 -0.0398  0.7574
 3698SOL    HW219873   7.580   4.474   9.120  0.7963  1.2745  1.2875
 3699SOL     OW19874   9.586  11.885   9.780  0.7026  0.1010  0.0469
 3699SOL    HW119875   9.499  11.865   9.816  0.4145 -0.3922 -0.9100
 3699SOL    HW219876   9.592  11.832   9.701  1.2220  1.3578 -0.7784
 3700SOL     OW19877  11.648  12.416  11.997 -0.4662 -0.1549  0.3683
 3700SOL    HW119878  11.700  12.336  12.008  0.7916  0.8101  1.7218
 3700SOL    HW219879  11.710  12.481  11.967 -1.0478  0.8239  1.2165
 3701SOL     OW19880  10.694   1.216   0.385  1.1248 -0.4447 -0.0710
 3701SOL    HW119881  10.716   1.125   0.406 -2.2843 -1.2435  0.6887
 3701SOL    HW219882  10.669   1.214   0.292 -0.1944 -0.6299  0.2636
 3702SOL     OW19883  11.157   5.321   7.116  0.2507 -0.3772 -0.3910
 3702SOL    HW119884  11.163   5.266   7.194  0.5086  0.2226  0.0194
 3702SOL    HW219885  11.090   5.279   7.063 -0.6780 -0.2214  0.6260
 3703SOL     OW19886   0.186   9.157   4.599  0.1239  0.1582 -0.5149
 3703SOL    HW119887   0.107   9.133   4.550 -1.1230  1.3571  0.8113
 3703SOL    HW219888   0.157   9.164   4.690  1.6077  1.2444 -0.0776
 3704SOL     OW19889   6.672   2.354  12.325 -0.2678  0.3193 -0.4823
 3704SOL    HW119890   6.746   2.413  12.338  0.8693 -1.1295 -0.1706
 3704SOL    HW219891   6.616   2.369  12.401  1.8759 -1.6251  1.6441
 3705SOL     OW19892   5.229  12.126   3.115  0.1072  0.2554  0.1867
 3705SOL    HW119893   5.161  12.190   3.138 -1.2493 -0.6626 -1.0680
 3705SOL    HW219894   5.267  12.160   3.034  0.8868  0.5569  0.6697
 3706SOL     OW19895   2.879   6.599   8.791  0.0529 -0.0154  0.6602
 3706SOL    HW119896   2.783   6.605   8.786  0.0759 -0.7304 -1.5920
 3706SOL    HW219897   2.901   6.640   8.875 -2.4263 -2.1233  2.5159
 3707SOL     OW19898   6.118   9.265   0.913  0.1204 -0.0134 -0.3475
 3707SOL    HW119899   6.151   9.355   0.917  0.7925 -0.3176  2.0790
 3707SOL    HW219900   6.042   9.265   0.972 -1.6101 -0.4303 -2.4373
 3708SOL     OW19901   2.446   7.041   7.648  0.9561 -0.0315  0.0429
 3708SOL    HW119902   2.459   7.054   7.554 -0.7232 -1.7892 -0.4880
 3708SOL    HW219903   2.435   6.947   7.658 -1.0837  0.3208  1.6752
 3709SOL     OW19904   7.616   1.106   4.255  0.2366 -0.6340 -0.1403
 3709SOL    HW119905   7.552   1.151   4.202  0.1750  0.1786  0.6022
 3709SOL    HW219906   7.589   1.123   4.346  2.4389  1.2455  0.2654
 3710SOL     OW19907  10.171   3.183   5.167  0.3334  0.1731  0.6822
 3710SOL    HW119908  10.146   3.105   5.218 -0.8452  0.4483  0.5492
 3710SOL    HW219909  10.263   3.198   5.190  0.3350 -0.7665  1.3520
 3711SOL     OW19910   5.170  12.302   8.076  0.3994 -0.5270  0.2392
 3711SOL    HW119911   5.134  12.360   8.142 -1.0048 -0.4715 -0.5382
 3711SOL    HW219912   5.184  12.358   8.000  0.4017 -0.9199 -0.0518
 3712SOL     OW19913   5.046   2.071   3.368 -0.0218  0.1884  0.5383
 3712SOL    HW119914   5.074   2.081   3.277  0.3823  0.2889  0.6708
 3712SOL    HW219915   4.957   2.106   3.370 -0.2861 -0.4397  0.0406
 3713SOL     OW19916   6.330  11.890  11.819 -0.0961  0.1918 -0.2850
 3713SOL    HW119917   6.362  11.978  11.799  0.7005 -0.1288 -0.4498
 3713SOL    HW219918   6.282  11.900  11.901  0.5205  0.6561  0.0235
 3714SOL     OW19919  11.155   9.214   3.893  0.4226 -0.3874 -0.3729
 3714SOL    HW119920  11.157   9.293   3.948 -0.0814  1.2838 -2.5893
 3714SOL    HW219921  11.247   9.196   3.875  0.5061  1.0212 -1.5402
 3715SOL     OW19922  11.646   2.176   6.427 -0.0882  0.6856 -0.2108
 3715SOL    HW119923  11.582   2.146   6.492  0.7091 -0.1438  0.1987
 3715SOL    HW219924  11.616   2.264   6.405 -0.5581  0.8665  1.0427
 3716SOL     OW19925   3.558  12.432  10.737 -0.5010  1.0163  0.6689
 3716SOL    HW119926   3.625  12.409  10.801  0.7297 -0.4874 -1.0495
 3716SOL    HW219927   3.573  12.525  10.718  1.4849  0.6141 -0.0164
 3717SOL     OW19928   7.420  11.810   4.299  0.2276  0.1179 -0.2401
 3717SOL    HW119929   7.500  11.758   4.302  1.1041  1.4256  0.1783
 3717SOL    HW219930   7.350  11.746   4.286  1.3931 -0.9948 -1.3265
 3718SOL     OW19931  12.070  11.555   4.251 -0.4641  0.4372 -0.5780
 3718SOL    HW119932  12.090  11.571   4.159 -1.2194  0.6921 -0.7063
 3718SOL    HW219933  12.002  11.487   4.249 -0.4987  0.4599 -0.2084
 3719SOL     OW19934  11.421   1.002   1.658 -0.1561  0.0450 -0.4032
 3719SOL    HW119935  11.426   0.969   1.569  1.5158  0.8847 -0.6409
 3719SOL    HW219936  11.468   1.085   1.657 -0.6147  0.3689  1.1316
 3720SOL     OW19937   6.944   1.541   2.456  0.1557 -0.3919 -0.1451
 3720SOL    HW119938   6.968   1.634   2.457 -0.4672 -0.1663 -1.7227
 3720SOL    HW219939   6.861   1.539   2.408 -1.4852 -1.4434  2.5467
 3721SOL     OW19940  10.588   9.276  12.528 -0.3140  0.0656  0.4300
 3721SOL    HW119941  10.630   9.208  12.476  1.8097  1.0573  0.7370
 3721SOL    HW219942  10.616   9.259  12.618 -0.2264  1.0036  0.5909
 3722SOL     OW19943   7.074   1.004   7.989  0.0032  0.0548  0.1546
 3722SOL    HW119944   7.035   1.032   8.072  2.0905 -1.5634  1.7842
 3722SOL    HW219945   7.077   0.909   7.995  0.7877 -0.0484 -1.5170
 3723SOL     OW19946  11.107   4.256   9.391 -0.7587 -0.1138  0.0521
 3723SOL    HW119947  11.127   4.163   9.381 -1.0334 -0.1195 -0.4466
 3723SOL    HW219948  11.179   4.301   9.346  0.9673  0.0250  2.6898
 3724SOL     OW19949   6.208  12.415   8.636 -0.2711 -0.2743  0.4196
 3724SOL    HW119950   6.231  12.406   8.728 -0.6695  1.3003  0.6986
 3724SOL    HW219951   6.142  12.483   8.634 -2.3765 -2.2114 -0.7530
 3725SOL     OW19952  12.184   9.341   1.448  0.8728  0.3386 -0.5300
 3725SOL    HW119953  12.182   9.349   1.543 -1.4029  0.8916 -0.5832
 3725SOL    HW219954  12.277   9.345   1.426  1.4926 -0.4667  1.7005
 3726SOL     OW19955   4.989   3.929   6.792  0.3381 -0.1183  0.3531
 3726SOL    HW119956   5.012   3.929   6.699 -1.7196 -0.3356 -0.2130
 3726SOL    HW219957   4.938   3.849   6.804  2.0124 -0.9948  2.0993
 3727SOL     OW19958   2.112   1.008   6.611  0.3556 -0.5867  0.4582
 3727SOL    HW119959   2.038   0.986   6.553  0.5271 -2.6389  0.9506
 3727SOL    HW219960   2.190   0.990   6.559  0.5217 -0.3979  0.6371
 3728SOL     OW19961   2.170   5.644   7.737 -0.0969 -0.1496  0.1922
 3728SOL    HW119962   2.137   5.666   7.650  0.2718  0.7460  0.2748
 3728SOL    HW219963   2.200   5.727   7.773  3.6485 -1.0579 -0.4395
 3729SOL     OW19964   2.321   9.272  12.563  0.0735  0.2246  0.3523
 3729SOL    HW119965   2.252   9.208  12.547 -0.2212  0.7685 -0.6996
 3729SOL    HW219966   2.311   9.297  12.655  0.2956 -1.3357  0.8136
 3730SOL     OW19967   9.261  11.155   0.402  0.4247  0.7086 -0.4131
 3730SOL    HW119968   9.307  11.235   0.375  1.0510  0.0924 -1.2334
 3730SOL    HW219969   9.210  11.130   0.325  0.4097  0.1982 -0.2396
 3731SOL     OW19970  12.152  10.143  10.206 -0.4713  0.1592  0.4592
 3731SOL    HW119971  12.072  10.118  10.159 -1.2369  0.7704  1.3925
 3731SOL    HW219972  12.223  10.119  10.147 -1.2553 -2.0534  0.3314
 3732SOL     OW19973   3.223   9.682   2.728 -0.3253  0.1869  0.5193
 3732SOL    HW119974   3.290   9.746   2.751  1.9935 -1.4112 -1.3272
 3732SOL    HW219975   3.205   9.636   2.810  0.9732  0.5616  1.0426
 3733SOL     OW19976   4.016   0.722   2.855  0.1749 -0.1739  0.2477
 3733SOL    HW119977   3.998   0.632   2.828  1.2125 -0.2445 -0.2647
 3733SOL    HW219978   4.049   0.765   2.776 -0.9167  0.8452  0.3260
 3734SOL     OW19979   5.803   3.863  12.056  0.1857  0.2845 -0.0381
 3734SOL    HW119980   5.894   3.882  12.078 -0.0411  0.4425  0.7812
 3734SOL    HW219981   5.785   3.779  12.097  0.3508 -0.4122 -1.3321
 3735SOL     OW19982   1.129   1.762   5.629  0.0546  0.2079  0.6031
 3735SOL    HW119983   1.194   1.762   5.699  0.4283 -0.6400  0.2826
 3735SOL    HW219984   1.158   1.692   5.570 -0.8104  0.2287  0.1309
 3736SOL     OW19985   8.382  12.291  11.766  0.0979  0.0974 -0.0243
 3736SOL    HW119986   8.323  12.216  11.770  0.3454 -0.0610  0.7964
 3736SOL    HW219987   8.449  12.264  11.703  0.8071 -0.8466  1.0835
 3737SOL     OW19988   5.947   5.417   2.094 -0.2073 -0.0997  0.7615
 3737SOL    HW119989   6.015   5.373   2.145  0.4017 -1.5468 -1.1936
 3737SOL    HW219990   5.905   5.347   2.044 -0.4029  1.2903 -1.1210
 3738SOL     OW19991   0.274   2.774   5.885  0.6895  0.0997  0.2152
 3738SOL    HW119992   0.358   2.818   5.880  1.3573 -0.9755  1.4968
 3738SOL    HW219993   0.291   2.685   5.853 -0.6410  0.6732 -2.4061
 3739SOL     OW19994   5.767   2.057   5.909  0.2566 -0.2331  0.6848
 3739SOL    HW119995   5.847   2.081   5.863  0.3290 -1.3734  0.1808
 3739SOL    HW219996   5.737   2.138   5.950 -0.3228  1.1251 -2.1658
 3740SOL     OW19997  10.037   1.278   9.014 -0.3276 -0.2356  0.4462
 3740SOL    HW119998  10.120   1.234   8.997 -0.4516 -0.0794 -0.6255
 3740SOL    HW219999  10.051   1.368   8.983 -0.1896  0.4141  2.2888
 3741SOL     OW20000   3.017   6.163   4.981  0.5196 -0.3966  0.1177
 3741SOL    HW120001   2.997   6.098   5.049 -0.0198 -1.0074 -0.6138
 3741SOL    HW220002   2.979   6.127   4.901  0.2185  0.8244 -0.3072
 3742SOL     OW20003   3.362   9.079   3.075 -0.6138 -0.1190  0.3323
 3742SOL    HW120004   3.273   9.070   3.110 -1.1433  2.1882 -0.2120
 3742SOL    HW220005   3.393   9.163   3.109  0.4543  0.2022 -1.2960
 3743SOL     OW20006   6.117   8.663   6.126 -0.0449  0.2478 -0.4361
 3743SOL    HW120007   6.157   8.727   6.068 -1.1926  0.7895 -0.6636
 3743SOL    HW220008   6.053   8.618   6.071  0.8143 -1.1801 -0.3074
 3744SOL     OW20009  12.232   3.180   1.764 -0.1193 -0.5792 -0.0304
 3744SOL    HW120010  12.248   3.171   1.670 -0.5052 -0.9682 -0.0634
 3744SOL    HW220011  12.142   3.147   1.776 -0.0986 -0.4600  0.4602
 3745SOL     OW20012   1.877   4.917   3.957  0.0574  0.7450 -0.4052
 3745SOL    HW120013   1.815   4.846   3.943  0.6256 -0.3739  2.2493
 3745SOL    HW220014   1.961   4.882   3.928  0.3176  0.3519  0.7956
 3746SOL     OW20015   0.449   6.199   0.081  0.3000  0.2721  0.0814
 3746SOL    HW120016   0.513   6.130   0.064  0.2651  0.8157 -2.6602
 3746SOL    HW220017   0.488   6.278   0.044 -0.4155  1.3971  1.6252
 3747SOL     OW20018   6.176  11.729   7.259  0.0428  0.3762 -0.7192
 3747SOL    HW120019   6.175  11.748   7.353 -2.5623 -2.9960  0.1514
 3747SOL    HW220020   6.267  11.706   7.240  0.4801  0.3450  1.1851
 3748SOL     OW20021   9.732   4.358   2.243  0.4716 -0.4122 -0.3370
 3748SOL    HW120022   9.716   4.268   2.272 -2.2856 -0.4284 -1.5419
 3748SOL    HW220023   9.712   4.412   2.320  0.4533 -0.7730 -0.0885
 3749SOL     OW20024   1.488  11.446   7.546  0.2192 -0.2852  0.2494
 3749SOL    HW120025   1.570  11.495   7.550  0.3830 -0.5923  0.8002
 3749SOL    HW220026   1.515  11.356   7.526  0.0245 -0.3884  0.4357
 3750SOL     OW20027   8.191  12.383   8.063 -0.0657 -0.0493 -0.0009
 3750SOL    HW120028   8.259  12.316   8.056 -1.0754 -0.9621 -1.4850
 3750SOL    HW220029   8.131  12.350   8.131  0.2943  0.1600  0.4264
 3751SOL     OW20030   2.917   8.173   8.410  0.6390 -0.2887 -0.1615
 3751SOL    HW120031   2.979   8.178   8.482  0.1193  0.2176  0.2587
 3751SOL    HW220032   2.851   8.111   8.439  0.7764 -0.5812 -0.4734
 3752SOL     OW20033   0.602   3.092   8.572  0.1159 -0.1100 -0.1085
 3752SOL    HW120034   0.671   3.099   8.638  1.0279  0.6156 -1.1022
 3752SOL    HW220035   0.576   3.000   8.574  1.8351 -0.6296 -0.3956
 3753SOL     OW20036   2.126   4.409   3.859 -0.4914 -0.0422  0.0494
 3753SOL    HW120037   2.173   4.416   3.942 -0.2375  0.8285 -0.1518
 3753SOL    HW220038   2.077   4.491   3.853  0.9992  0.8072 -1.5471
 3754SOL     OW20039   6.311   9.373  11.959  0.2429  0.1539  0.2895
 3754SOL    HW120040   6.368   9.331  12.024  1.0745  0.7207 -0.0527
 3754SOL    HW220041   6.370   9.429  11.908 -0.8973  2.2147  1.0973
 3755SOL     OW20042  11.886   9.948   2.497 -0.1275 -0.2255  0.2533
 3755SOL    HW120043  11.923  10.035   2.511 -0.3286  0.1544 -1.3348
 3755SOL    HW220044  11.915   9.924   2.409 -1.5167 -1.0120 -0.0180
 3756SOL     OW20045   0.271   9.617   6.120  0.2304  0.1977  0.5357
 3756SOL    HW120046   0.212   9.614   6.195 -0.0597 -2.6105  0.3068
 3756SOL    HW220047   0.305   9.528   6.113 -0.3591  0.1020 -3.0840
 3757SOL     OW20048   9.835  10.123  11.684  0.3177  0.5421  0.4890
 3757SOL    HW120049   9.873  10.038  11.664  3.2835  1.3074  2.1856
 3757SOL    HW220050   9.844  10.174  11.603  0.4940 -0.1210  0.0889
 3758SOL     OW20051   8.011   0.650  11.606  0.5007  0.0923 -0.1417
 3758SOL    HW120052   7.921   0.680  11.614  0.0355 -1.1997 -0.2019
 3758SOL    HW220053   8.032   0.616  11.693  0.4918 -0.7304 -0.4539
 3759SOL     OW20054   7.387  10.085   3.158  0.3601 -0.0526 -0.2581
 3759SOL    HW120055   7.350  10.172   3.175 -1.5151 -0.6920 -0.7854
 3759SOL    HW220056   7.321  10.025   3.193  0.8775 -1.2713 -1.3310
 3760SOL     OW20057   4.298   7.759   8.243 -0.8040 -0.1958  0.0296
 3760SOL    HW120058   4.221   7.754   8.186 -0.1707 -1.4515 -0.7647
 3760SOL    HW220059   4.320   7.668   8.263  1.9254 -0.1123 -1.8665
 3761SOL     OW20060   9.041   1.028   1.923 -0.3372 -0.0740 -0.5023
 3761SOL    HW120061   8.999   1.048   2.007  1.9209 -1.0721  0.9437
 3761SOL    HW220062   9.099   1.102   1.906  0.7142 -0.7931 -0.1267
 3762SOL     OW20063   3.253   5.154   5.890 -0.0082  0.4948 -0.4029
 3762SOL    HW120064   3.241   5.059   5.890  2.4441  0.0098  2.4954
 3762SOL    HW220065   3.186   5.186   5.952 -0.0998  0.5122 -0.5110
 3763SOL     OW20066   7.392   9.425  11.412  0.1319  0.4687  0.1761
 3763SOL    HW120067   7.336   9.491  11.453  0.8309  0.7268  0.7297
 3763SOL    HW220068   7.476   9.435  11.455  0.4006 -0.4176 -0.1325
 3764SOL     OW20069   6.557  12.079   5.920 -0.0274 -0.3747  0.8180
 3764SOL    HW120070   6.635  12.044   5.877 -0.8261 -0.7502 -0.3927
 3764SOL    HW220071   6.487  12.069   5.854 -1.0351  0.1903  1.7693
 3765SOL     OW20072   0.547   5.464   8.199  0.2597 -0.3106  0.2513
 3765SOL    HW120073   0.593   5.544   8.174 -0.0036  0.0075  0.7581
 3765SOL    HW220074   0.505   5.486   8.283 -1.2231 -0.4212 -0.4368
 3766SOL     OW20075  11.997  11.128  10.407 -0.2387  0.1727  0.2663
 3766SOL    HW120076  11.965  11.043  10.436 -0.4105 -0.0372 -0.5185
 3766SOL    HW220077  12.051  11.110  10.331  0.8859  0.6424  0.9261
 3767SOL     OW20078   5.139   9.051   3.185 -0.1570  0.2834 -0.5181
 3767SOL    HW120079   5.233   9.039   3.175 -0.0786 -0.0331  0.4822
 3767SOL    HW220080   5.104   9.043   3.097  0.5473 -1.5944 -0.6609
 3768SOL     OW20081   3.997  10.343  11.956  0.5391  0.4369 -0.0961
 3768SOL    HW120082   4.005  10.387  11.872  1.7642 -1.4162 -1.0281
 3768SOL    HW220083   3.912  10.299  11.953  0.7537  0.0473 -0.5510
 3769SOL     OW20084   2.413   9.589  12.532 -0.1005 -0.4513 -0.5823
 3769SOL    HW120085   2.493   9.596  12.583 -1.7451  0.3247  2.0543
 3769SOL    HW220086   2.376   9.504  12.557 -0.8917 -0.1003 -0.5381
 3770SOL     OW20087   5.711   8.001   0.984 -0.1665 -0.2189 -0.2375
 3770SOL    HW120088   5.736   8.058   1.056 -0.8134 -0.5089  0.2206
 3770SOL    HW220089   5.789   7.948   0.967 -0.5324 -1.3690  1.4265
 3771SOL     OW20090   3.507  11.190  10.733  0.3019 -0.3821 -0.4451
 3771SOL    HW120091   3.533  11.164  10.645 -0.0304 -3.0685  0.1510
 3771SOL    HW220092   3.435  11.131  10.756  0.0361  0.5769  1.4397
 3772SOL     OW20093   8.460  12.410   5.500 -0.4269  0.2396 -0.2858
 3772SOL    HW120094   8.539  12.373   5.461 -0.1366 -1.4394  1.6936
 3772SOL    HW220095   8.447  12.493   5.455  2.5126  0.6082 -0.6537
 3773SOL     OW20096   0.274   4.655   5.166  0.8006 -0.4325 -0.0876
 3773SOL    HW120097   0.359   4.610   5.170  1.0706  0.0813  0.0523
 3773SOL    HW220098   0.238   4.646   5.254  0.9100 -0.2795 -0.0255
 3774SOL     OW20099   9.717  11.637   3.326  0.0692 -0.3052 -0.0216
 3774SOL    HW120100   9.774  11.704   3.364  1.4745 -1.0489 -0.7389
 3774SOL    HW220101   9.672  11.683   3.254  1.0960 -0.1295 -0.5731
 3775SOL     OW20102   8.166   5.624   4.105  0.0856 -0.2476 -0.5261
 3775SOL    HW120103   8.092   5.564   4.114  0.8042 -0.9001  1.3973
 3775SOL    HW220104   8.126   5.710   4.094 -0.9531 -0.9051 -2.4962
 3776SOL     OW20105   4.851   4.940  10.850  0.0741  0.1440  0.1353
 3776SOL    HW120106   4.901   5.015  10.817 -1.0951  0.9894  0.2155
 3776SOL    HW220107   4.786   4.924  10.782 -0.0441 -0.4413  0.3827
 3777SOL     OW20108   8.156   5.477   3.151 -0.0459  0.3873 -0.3119
 3777SOL    HW120109   8.168   5.486   3.246  0.2216  0.6810 -0.3714
 3777SOL    HW220110   8.233   5.520   3.113  0.5934 -0.9913 -0.6394
 3778SOL     OW20111  10.660   4.185   1.292  0.2626 -0.3066  0.8148
 3778SOL    HW120112  10.680   4.174   1.199  1.2709  1.5474  0.7706
 3778SOL    HW220113  10.715   4.119   1.335 -0.1746 -1.1490  0.1293
 3779SOL     OW20114   3.131   7.293   8.309  0.0547 -0.5843 -0.2824
 3779SOL    HW120115   3.115   7.358   8.240 -1.1263  0.5467  1.0113
 3779SOL    HW220116   3.158   7.344   8.385  1.2722 -1.8050  0.1445
 3780SOL     OW20117   0.344   4.267   6.262 -0.0163 -0.0595  0.3473
 3780SOL    HW120118   0.361   4.231   6.349  1.3988  0.4125  0.2866
 3780SOL    HW220119   0.423   4.249   6.212 -1.3493 -1.6676 -1.3527
 3781SOL     OW20120   6.564   4.929  12.020 -0.2017 -0.3332  0.0230
 3781SOL    HW120121   6.603   5.011  12.052 -0.2120 -0.5884  0.7058
 3781SOL    HW220122   6.475   4.930  12.056  0.1628 -1.1735  0.9718
 3782SOL     OW20123   1.882   4.790   6.876 -0.0666  0.4542 -0.1905
 3782SOL    HW120124   1.977   4.783   6.866 -0.0214  1.3885 -0.4765
 3782SOL    HW220125   1.864   4.884   6.876 -1.1234  0.2897 -1.4884
 3783SOL     OW20126   9.468  11.407   4.173 -0.1562 -0.1906  0.8098
 3783SOL    HW120127   9.479  11.452   4.089  1.7278  2.4704  2.3284
 3783SOL    HW220128   9.478  11.314   4.152  1.7284  0.4647 -1.7086
 3784SOL     OW20129   8.864   9.064   1.345  0.0209  0.2074  0.1507
 3784SOL    HW120130   8.920   9.128   1.302  0.7729  0.5722  1.5903
 3784SOL    HW220131   8.921   8.989   1.360 -0.7415 -0.6689 -1.1389
 3785SOL     OW20132   0.350  10.902   8.327 -0.2329  0.9652 -0.4851
 3785SOL    HW120133   0.272  10.849   8.311 -0.7824  1.5664  0.1096
 3785SOL    HW220134   0.381  10.927   8.240  0.3054 -0.6774 -0.8027
 3786SOL     OW20135   1.787  10.073   7.770  0.0539  0.4170 -0.0788
 3786SOL    HW120136   1.696  10.066   7.799 -0.2332 -0.3320 -1.0997
 3786SOL    HW220137   1.829  10.128   7.836 -0.4821 -1.3914  1.8836
 3787SOL     OW20138   2.917   8.041   9.883 -0.0529  0.5760  0.0257
 3787SOL    HW120139   2.933   7.998   9.799 -0.0247  1.2096 -0.2959
 3787SOL    HW220140   2.869   8.121   9.861 -0.9861  0.2209  0.7118
 3788SOL     OW20141   7.040   5.737   0.840  0.2710  0.1149 -0.1645
 3788SOL    HW120142   7.125   5.749   0.797  0.2695 -0.1410 -0.2411
 3788SOL    HW220143   6.976   5.771   0.777  0.2730 -0.2138 -0.3468
 3789SOL     OW20144   1.722   6.701   9.064 -0.2327  0.4083  0.6482
 3789SOL    HW120145   1.694   6.667   8.979 -0.4637  1.7032  0.1814
 3789SOL    HW220146   1.817   6.706   9.058 -0.3669  2.9854 -0.5779
 3790SOL     OW20147  10.876   5.833  10.877  0.3707 -0.0304 -0.5326
 3790SOL    HW120148  10.796   5.790  10.847 -0.0401  0.2585  0.1486
 3790SOL    HW220149  10.870   5.922  10.843 -0.0277  0.2563  0.2806
 3791SOL     OW20150   0.527   7.688   3.774  0.3508 -0.2622  0.2240
 3791SOL    HW120151   0.559   7.772   3.740 -0.1387  0.1940  0.8609
 3791SOL    HW220152   0.554   7.624   3.708  1.8825  0.2045  0.3626
 3792SOL     OW20153   9.467   4.526   5.168  0.1007  0.0125 -0.5318
 3792SOL    HW120154   9.561   4.530   5.185 -0.1401  0.5676  0.8006
 3792SOL    HW220155   9.435   4.614   5.185 -0.8607 -0.4921  0.4162
 3793SOL     OW20156   0.990  10.895  11.730 -0.1891 -0.0835  0.1456
 3793SOL    HW120157   0.975  10.842  11.652 -1.4518  1.4985 -0.7197
 3793SOL    HW220158   1.044  10.968  11.700 -1.8167  1.2804  0.4030
 3794SOL     OW20159   7.085   9.663   6.897 -0.1701  0.3063  0.3815
 3794SOL    HW120160   7.019   9.596   6.920 -1.1975  1.5355  1.1449
 3794SOL    HW220161   7.047   9.708   6.822 -0.4747  1.3622  1.1471
 3795SOL     OW20162   3.975  12.380  12.082 -0.2911  0.6011  0.2609
 3795SOL    HW120163   3.941  12.358  12.169 -0.1057  0.0648  0.1981
 3795SOL    HW220164   3.900  12.420  12.037 -0.1239  1.7841  0.9814
 3796SOL     OW20165   5.527  11.999   2.009  0.4286  0.0557  0.2456
 3796SOL    HW120166   5.448  11.967   2.052  0.9307 -3.0595 -0.8527
 3796SOL    HW220167   5.495  12.050   1.935 -0.5495 -0.3865  0.3486
 3797SOL     OW20168   2.456   2.081   3.248 -0.0997  0.3403  0.1719
 3797SOL    HW120169   2.391   2.064   3.180  0.5479  0.8085 -0.5817
 3797SOL    HW220170   2.455   2.177   3.259 -0.1939  0.2728  0.8241
 3798SOL     OW20171   5.634   7.695   9.594 -0.3696  0.1572 -0.0438
 3798SOL    HW120172   5.595   7.732   9.674  0.2374  1.4484 -0.3157
 3798SOL    HW220173   5.711   7.648   9.626 -1.5818 -1.6060  0.3936
 3799SOL     OW20174  10.868   5.151   9.278  0.4225 -0.1478  0.2387
 3799SOL    HW120175  10.806   5.084   9.307 -0.1977  0.0244 -0.6315
 3799SOL    HW220176  10.921   5.170   9.355 -0.8587 -0.0219  1.1173
 3800SOL     OW20177   0.148   6.196  12.529 -0.1376 -0.4779  0.0997
 3800SOL    HW120178   0.155   6.286  12.562 -0.0732 -0.7966  0.9821
 3800SOL    HW220179   0.237   6.161  12.534 -0.3940 -1.0356  1.0997
 3801SOL     OW20180   3.357   4.232   4.806 -0.7827 -1.0715  0.1342
 3801SOL    HW120181   3.416   4.190   4.743 -2.4330 -0.0327 -2.2504
 3801SOL    HW220182   3.321   4.161   4.857  0.2687 -2.0087 -0.3828
 3802SOL     OW20183   6.183   9.054  12.259  0.0156  0.3147 -0.0215
 3802SOL    HW120184   6.184   9.141  12.219  2.5271 -0.4355 -1.7792
 3802SOL    HW220185   6.214   8.996  12.190 -1.6833 -2.0393  1.0843
 3803SOL     OW20186   5.176   4.674   2.037 -0.2403  0.6123 -0.3068
 3803SOL    HW120187   5.115   4.608   2.071  0.5172 -0.1460 -0.3727
 3803SOL    HW220188   5.256   4.662   2.088  0.2953  0.7037 -1.0928
 3804SOL     OW20189   2.676   6.612   6.124  0.7581 -0.0097  0.2605
 3804SOL    HW120190   2.678   6.557   6.202  0.2084 -0.3398  0.0458
 3804SOL    HW220191   2.760   6.659   6.126  0.2013  0.9961  1.7683
 3805SOL     OW20192   6.475   7.827  11.291 -0.0591  0.1021 -0.2186
 3805SOL    HW120193   6.451   7.877  11.213 -0.8379 -0.0555 -0.0801
 3805SOL    HW220194   6.510   7.893  11.352 -0.5776  0.3979 -0.2391
 3806SOL     OW20195   1.294  11.210   7.213 -0.2512  0.0525  0.0273
 3806SOL    HW120196   1.344  11.183   7.136  0.0863  1.3751 -0.2499
 3806SOL    HW220197   1.353  11.197   7.286  0.4103  1.2487 -0.2581
 3807SOL     OW20198   9.573  10.869   1.174  0.1296 -0.0515 -0.6766
 3807SOL    HW120199   9.547  10.925   1.248 -0.0673 -1.4996  0.4039
 3807SOL    HW220200   9.531  10.908   1.098  2.1267  2.8307 -0.5051
 3808SOL     OW20201   9.430   5.355   9.757  0.1448  0.1591 -0.1094
 3808SOL    HW120202   9.410   5.354   9.850  0.2029  0.1259 -0.0970
 3808SOL    HW220203   9.520   5.386   9.752  0.5886 -1.0638 -0.0595
 3809SOL     OW20204   2.547   9.729   5.675 -0.6831 -0.1866 -0.2502
 3809SOL    HW120205   2.486   9.782   5.726  0.1238  1.3240 -0.7598
 3809SOL    HW220206   2.499   9.706   5.596 -1.6908 -1.9143  0.8085
 3810SOL     OW20207   5.601  11.795   2.362 -0.2461 -0.1893 -0.2907
 3810SOL    HW120208   5.670  11.765   2.302  0.4431  0.1783  0.2882
 3810SOL    HW220209   5.580  11.718   2.414  1.9528  0.3748  1.6033
 3811SOL     OW20210   7.001   1.045   2.799 -0.2796  0.1200  0.4320
 3811SOL    HW120211   6.927   0.987   2.784 -0.5251  0.6929 -0.6767
 3811SOL    HW220212   6.988   1.078   2.887  0.1101 -1.8310  1.2760
 3812SOL     OW20213   4.915   6.461   0.561  0.3213  0.0253  0.1294
 3812SOL    HW120214   4.885   6.506   0.640  0.6563 -0.7358  0.6951
 3812SOL    HW220215   4.835   6.444   0.512  0.2728  2.3378 -0.7187
 3813SOL     OW20216   9.974   3.906  10.573 -0.5788  0.2527  0.2293
 3813SOL    HW120217   9.935   3.823  10.544  1.0408 -0.0509 -1.1758
 3813SOL    HW220218  10.065   3.885  10.591 -0.6088  1.3202  1.8375
 3814SOL     OW20219  10.496  11.700   3.474 -0.3367 -0.0042 -0.8689
 3814SOL    HW120220  10.579  11.670   3.437  0.5862  1.2058  0.1499
 3814SOL    HW220221  10.496  11.668   3.564 -1.6020 -1.1121 -1.2198
 3815SOL     OW20222   1.176   4.088   5.159  0.2040 -0.9523 -0.0370
 3815SOL    HW120223   1.157   4.007   5.112  2.5331 -0.5358 -1.8562
 3815SOL    HW220224   1.270   4.100   5.150 -0.0416  1.8889  0.2545
 3816SOL     OW20225  11.135  11.383   4.144  0.0834 -0.4835 -0.3330
 3816SOL    HW120226  11.205  11.346   4.091  0.7580 -1.1177  0.9702
 3816SOL    HW220227  11.179  11.418   4.222 -0.8074  0.9803 -0.4294
 3817SOL     OW20228   1.260   1.028   4.231  0.2583 -0.0481 -0.5008
 3817SOL    HW120229   1.184   1.049   4.176  1.5631  3.2118 -1.3373
 3817SOL    HW220230   1.334   1.068   4.185  2.8733 -4.2662 -0.4501
 3818SOL     OW20231   2.727   9.195   8.527 -0.2891 -0.4309  0.2128
 3818SOL    HW120232   2.639   9.211   8.493 -0.5486 -1.4780  0.3608
 3818SOL    HW220233   2.714   9.134   8.599  0.7239 -2.1998 -1.0134
 3819SOL     OW20234   0.173   4.902   7.903 -0.4618 -0.2910  0.0612
 3819SOL    HW120235   0.174   4.811   7.934 -0.9965 -0.6122 -0.8210
 3819SOL    HW220236   0.181   4.896   7.808 -2.5947  0.4456 -0.2275
 3820SOL     OW20237  10.385   5.053   0.429  0.0315 -0.1492  0.3447
 3820SOL    HW120238  10.340   5.098   0.358 -0.9864 -0.7808  0.5679
 3820SOL    HW220239  10.383   5.115   0.502 -1.5439 -0.5892  0.7146
 3821SOL     OW20240   3.407   1.005   6.067  0.1427 -0.6201 -0.0326
 3821SOL    HW120241   3.335   1.002   6.129  2.1394 -0.2366  2.4685
 3821SOL    HW220242   3.438   1.095   6.071  0.6037 -0.7089 -1.2770
 3822SOL     OW20243   5.451   1.377   0.526 -0.0270  0.1537  0.2616
 3822SOL    HW120244   5.439   1.446   0.461  2.1802  0.9913  0.6611
 3822SOL    HW220245   5.437   1.421   0.610 -0.0122 -0.2285  0.4651
 3823SOL     OW20246   3.794  10.102  11.061 -0.3657 -0.2524 -0.5096
 3823SOL    HW120247   3.842  10.080  10.981 -0.1091 -1.4587 -0.0507
 3823SOL    HW220248   3.845  10.060  11.131 -0.4767  0.9538  0.3131
 3824SOL     OW20249   0.445  10.878  10.552 -0.2704 -0.0848 -0.0047
 3824SOL    HW120250   0.512  10.838  10.607  1.5198  0.5437 -1.6072
 3824SOL    HW220251   0.468  10.971  10.551  0.0630 -0.1472 -2.1665
 3825SOL     OW20252   0.305   1.706   3.294 -0.1429 -0.6328  0.2246
 3825SOL    HW120253   0.373   1.767   3.324  0.8699 -1.5279 -0.2039
 3825SOL    HW220254   0.245   1.701   3.368  0.5382 -0.2297  0.8289
 3826SOL     OW20255   0.981   5.282   4.568  0.2353  0.2460 -0.5072
 3826SOL    HW120256   0.947   5.195   4.593 -0.7229  1.0726  1.2367
 3826SOL    HW220257   0.913   5.343   4.597  2.1381  1.8041  0.9441
 3827SOL     OW20258   5.223   7.234   2.502 -0.3523  0.0682  0.6738
 3827SOL    HW120259   5.164   7.158   2.498 -0.3783 -0.1600  3.6352
 3827SOL    HW220260   5.191   7.286   2.576  0.5427  2.2620 -0.3972
 3828SOL     OW20261   2.834   9.759   0.669 -0.1092  0.0169  0.4829
 3828SOL    HW120262   2.876   9.768   0.754 -0.4908 -1.3310  0.8366
 3828SOL    HW220263   2.881   9.687   0.626  0.4929  1.0896 -0.7165
 3829SOL     OW20264   7.396   3.369   4.183 -0.2696 -0.0041  0.0483
 3829SOL    HW120265   7.452   3.340   4.255 -1.0698 -0.8324  0.3703
 3829SOL    HW220266   7.309   3.337   4.207 -0.6160  0.0210 -1.1106
 3830SOL     OW20267  11.629   5.687   1.299 -0.1410 -0.6841 -0.1999
 3830SOL    HW120268  11.614   5.656   1.388  3.2104  0.0716  0.8104
 3830SOL    HW220269  11.616   5.610   1.243  0.2313 -1.8554  1.2671
 3831SOL     OW20270   8.396   5.199  10.238  0.0066  0.0802  0.1948
 3831SOL    HW120271   8.465   5.228  10.177  0.3716  0.9467  0.9983
 3831SOL    HW220272   8.402   5.104  10.236 -0.3602  0.0535 -1.5413
 3832SOL     OW20273   1.678   4.184   0.771  0.2503 -0.8162  0.2054
 3832SOL    HW120274   1.605   4.151   0.824  0.4547  0.3824  1.2953
 3832SOL    HW220275   1.726   4.242   0.831  1.0556 -0.1778 -1.0301
 3833SOL     OW20276  10.965   8.489   2.755  0.4492  0.0550  0.3177
 3833SOL    HW120277  10.903   8.473   2.685  1.8290 -1.6814 -0.5939
 3833SOL    HW220278  11.008   8.572   2.731 -0.7086  0.6918  0.3899
 3834SOL     OW20279   0.883   5.057   6.314 -0.1475 -0.1813  0.4032
 3834SOL    HW120280   0.874   5.150   6.339  0.4650  0.0165 -0.0944
 3834SOL    HW220281   0.801   5.017   6.343 -0.0310  0.3183  1.4920
 3835SOL     OW20282   2.639  12.319  10.798  0.7592  0.0310 -0.6704
 3835SOL    HW120283   2.716  12.282  10.754  0.6116 -1.1077  0.0263
 3835SOL    HW220284   2.675  12.384  10.858  1.0596  0.5625 -1.3986
 3836SOL     OW20285  11.476   3.855   9.258  0.6408 -0.5121  0.5565
 3836SOL    HW120286  11.513   3.771   9.229  0.9996 -0.7614  1.7221
 3836SOL    HW220287  11.381   3.840   9.258  0.7000 -0.9029  0.7039
 3837SOL     OW20288   8.948   1.450   5.593 -0.3760  0.9223 -0.1553
 3837SOL    HW120289   8.982   1.430   5.680 -0.1382  0.7779 -0.2781
 3837SOL    HW220290   8.996   1.528   5.566 -1.7534  2.0637  0.5832
 3838SOL     OW20291   5.744  10.068   0.958  0.1752 -0.6495  0.3039
 3838SOL    HW120292   5.764  10.054   0.866  1.8316 -1.3035  0.7213
 3838SOL    HW220293   5.663  10.020   0.974  0.7542 -1.9178 -0.4499
 3839SOL     OW20294   5.002   5.870   7.278  0.1806  0.0427  0.3410
 3839SOL    HW120295   5.081   5.875   7.224  0.5180 -1.2152  0.6967
 3839SOL    HW220296   5.024   5.921   7.356  0.4986  0.0171  0.2706
 3840SOL     OW20297  12.224   5.647  11.311 -0.8637 -0.2106  0.6480
 3840SOL    HW120298  12.151   5.603  11.268 -1.2525  0.5029  0.5815
 3840SOL    HW220299  12.278   5.575  11.345 -1.2374 -0.7499  0.1134
 3841SOL     OW20300  12.086   4.580   0.300  0.0950  0.1437 -0.2668
 3841SOL    HW120301  12.081   4.537   0.214  1.2154 -0.5815  0.0042
 3841SOL    HW220302  12.120   4.667   0.282 -1.0040  0.4967 -0.6965
 3842SOL     OW20303   4.644   9.756   4.360  0.0192 -0.3186 -0.5516
 3842SOL    HW120304   4.677   9.800   4.281  0.1731  0.1444 -0.2288
 3842SOL    HW220305   4.717   9.756   4.421 -0.3658  0.0914 -0.0884
 3843SOL     OW20306   2.312   3.788   0.193 -0.1172  0.3893 -0.6446
 3843SOL    HW120307   2.268   3.708   0.223  0.0379  0.2174 -0.8652
 3843SOL    HW220308   2.240   3.846   0.167 -0.2202  0.0514 -1.1474
 3844SOL     OW20309  11.019   4.392   5.009 -0.2948  0.2829  0.3811
 3844SOL    HW120310  11.068   4.365   5.087 -0.4731 -0.2491  0.3085
 3844SOL    HW220311  11.086   4.426   4.949  0.1327 -1.4191 -0.1455
 3845SOL     OW20312   5.131   5.828   7.934  0.1543  0.0367 -0.0020
 3845SOL    HW120313   5.099   5.880   7.860 -3.2142 -2.0999 -0.2573
 3845SOL    HW220314   5.222   5.808   7.912  0.2885  2.3263 -1.8430
 3846SOL     OW20315   8.476   9.728   0.862  0.3228 -0.6049  0.2748
 3846SOL    HW120316   8.456   9.640   0.893  0.4416 -1.3435 -1.5998
 3846SOL    HW220317   8.411   9.745   0.794 -0.4896  1.2943  1.4299
 3847SOL     OW20318   3.684   4.344   2.057 -0.0024 -0.2793  0.4338
 3847SOL    HW120319   3.638   4.303   1.984  0.7037  1.0257 -0.8043
 3847SOL    HW220320   3.777   4.334   2.035  0.5341 -3.6612  3.3009
 3848SOL     OW20321   3.033  10.143  11.059 -0.6223  0.0200 -0.3347
 3848SOL    HW120322   2.996  10.071  11.007 -0.0668 -0.9984  0.6395
 3848SOL    HW220323   3.111  10.170  11.010 -0.7522 -0.1380 -0.6332
 3849SOL     OW20324   1.478   0.594   4.913 -0.5028  0.2729  0.8642
 3849SOL    HW120325   1.547   0.641   4.865 -0.0008 -0.0560  1.2488
 3849SOL    HW220326   1.401   0.649   4.904 -0.0917  0.8454  0.7488
 3850SOL     OW20327   6.308   7.847  10.161  0.2895  0.5162  0.1953
 3850SOL    HW120328   6.320   7.939  10.186 -3.3644  1.1228  0.1878
 3850SOL    HW220329   6.228   7.820  10.205 -0.1906 -1.8924 -1.9155
 3851SOL     OW20330  10.232   5.740  12.572  0.7818 -0.0974 -0.0805
 3851SOL    HW120331  10.216   5.669  12.510 -2.1029  1.5498 -1.3930
 3851SOL    HW220332  10.155   5.742  12.628  0.9946  1.7097  0.2100
 3852SOL     OW20333   8.341   8.301   3.960 -0.5375  0.1520 -0.2528
 3852SOL    HW120334   8.376   8.346   3.882 -0.5418  0.4161 -0.1044
 3852SOL    HW220335   8.381   8.348   4.034  1.7109 -1.8385 -0.0826
 3853SOL     OW20336   2.029  11.879   1.574  0.0585  1.0435  0.1580
 3853SOL    HW120337   2.003  11.930   1.497 -0.3251  0.4539 -0.1081
 3853SOL    HW220338   1.950  11.829   1.598  1.0961 -1.4216 -1.1707
 3854SOL     OW20339   4.169   8.577   1.174 -0.4946 -0.2063 -0.4997
 3854SOL    HW120340   4.168   8.661   1.127 -3.5658  0.5820  0.7402
 3854SOL    HW220341   4.169   8.511   1.105 -0.4680  0.8448 -1.5396
 3855SOL     OW20342   9.833   6.529   9.033 -0.5313 -0.6758  0.0692
 3855SOL    HW120343   9.921   6.567   9.032 -0.9811  0.4441  0.7183
 3855SOL    HW220344   9.817   6.507   9.125 -0.2602 -2.5806 -0.2907
 3856SOL     OW20345   5.978   5.488  10.193 -0.0064  0.1412 -0.5548
 3856SOL    HW120346   5.985   5.400  10.229  2.6490 -0.3899 -2.0754
 3856SOL    HW220347   6.061   5.530  10.216 -0.6610  1.7806 -1.0293
 3857SOL     OW20348   1.598   3.014   5.946  0.0562 -0.6619 -0.5078
 3857SOL    HW120349   1.575   3.100   5.909 -1.9131 -0.7263  0.4468
 3857SOL    HW220350   1.632   2.964   5.872 -1.1710  0.1175 -1.6238
 3858SOL     OW20351   9.934   9.418   3.430  0.7219  0.5587 -0.0311
 3858SOL    HW120352   9.885   9.338   3.413 -0.3690  0.8973  1.4001
 3858SOL    HW220353   9.888   9.485   3.379  0.9245  0.4974 -0.2953
 3859SOL     OW20354   1.322   0.387   6.886 -0.2534  0.4262  0.3839
 3859SOL    HW120355   1.307   0.293   6.889 -0.6928  0.5027  0.8169
 3859SOL    HW220356   1.294   0.418   6.973  0.7200  0.8331  0.5607
 3860SOL     OW20357   7.710   6.523   0.454  0.2508  0.4590  0.7204
 3860SOL    HW120358   7.663   6.569   0.524 -0.8824  0.5803 -0.0779
 3860SOL    HW220359   7.724   6.435   0.488  0.4838  0.7631  1.4294
 3861SOL     OW20360   0.328  11.195   4.087  0.7600 -0.1245 -0.0626
 3861SOL    HW120361   0.236  11.170   4.083 -0.4292  3.5276  0.5500
 3861SOL    HW220362   0.346  11.238   4.004  0.9802  1.7296  0.8894
 3862SOL     OW20363   8.031  11.933  10.868 -0.5182  0.3068  0.1275
 3862SOL    HW120364   8.046  12.012  10.815  0.0918  0.6285  0.7616
 3862SOL    HW220365   7.993  11.966  10.950 -2.6016 -0.2929 -0.5463
 3863SOL     OW20366   3.409   2.316  10.011  0.0919  0.8301 -0.6166
 3863SOL    HW120367   3.475   2.270   9.958  0.2971  1.5170 -0.9624
 3863SOL    HW220368   3.456   2.389  10.050  0.2509 -0.3237  1.5137
 3864SOL     OW20369  11.524   8.823  11.155 -0.4740 -0.1475  0.3521
 3864SOL    HW120370  11.466   8.885  11.200 -0.4263  0.5821 -0.5682
 3864SOL    HW220371  11.475   8.796  11.078 -0.2950 -0.8960  0.4933
 3865SOL     OW20372  11.324  10.940  10.895 -0.0167 -0.1074 -0.3272
 3865SOL    HW120373  11.395  10.913  10.836  0.9061 -0.0206  0.7152
 3865SOL    HW220374  11.367  10.993  10.962 -1.3013  1.2201 -0.4927
 3866SOL     OW20375   4.392   1.470   2.490 -0.4221 -0.6088 -0.0380
 3866SOL    HW120376   4.474   1.453   2.536  0.6609 -2.4537 -2.4333
 3866SOL    HW220377   4.337   1.395   2.511  0.6769 -2.3438 -2.7792
 3867SOL     OW20378   6.460   9.476   6.577 -0.7814  0.5263 -0.4531
 3867SOL    HW120379   6.442   9.403   6.519 -0.8601  0.4209 -0.2968
 3867SOL    HW220380   6.460   9.553   6.520 -0.2079  0.3518 -0.7051
 3868SOL     OW20381   9.940  11.405   0.542 -0.1247 -0.3283 -0.1392
 3868SOL    HW120382   9.988  11.336   0.588  0.0255  1.2989  2.2917
 3868SOL    HW220383   9.848  11.382   0.552 -0.0363 -0.9130 -0.6093
 3869SOL     OW20384   5.454   3.754   9.908 -0.0812 -0.0896  0.0155
 3869SOL    HW120385   5.457   3.684   9.843 -0.4811 -1.3088  1.2553
 3869SOL    HW220386   5.531   3.808   9.889 -0.1374 -0.4563 -1.3809
 3870SOL     OW20387   1.603   4.849   2.238 -0.5421  0.0236 -0.8855
 3870SOL    HW120388   1.622   4.774   2.181 -1.3060 -1.2906  0.5047
 3870SOL    HW220389   1.634   4.822   2.325  0.0779  1.7407 -0.5336
 3871SOL     OW20390   8.311   7.511  11.768  1.1686  0.1309 -0.1877
 3871SOL    HW120391   8.286   7.439  11.711 -0.6218 -0.4058  1.1755
 3871SOL    HW220392   8.391   7.481  11.811  0.1022 -1.3753  0.8392
 3872SOL     OW20393  11.305   5.115   1.062  0.3948 -0.4616  0.3624
 3872SOL    HW120394  11.330   5.029   1.028 -0.2509 -0.4939 -0.0464
 3872SOL    HW220395  11.239   5.095   1.130  0.5715 -0.3146  0.5793
 3873SOL     OW20396  12.057   6.475   9.651  0.1291 -0.4072  0.2551
 3873SOL    HW120397  12.090   6.546   9.596 -1.5139  1.1296  1.1691
 3873SOL    HW220398  11.962   6.487   9.653  0.0026 -1.3294  2.1870
 3874SOL     OW20399   1.147   1.511  11.372 -0.2012 -0.4858  0.1106
 3874SOL    HW120400   1.177   1.435  11.422  0.3986  0.6458  1.5598
 3874SOL    HW220401   1.084   1.555  11.429  2.0517  2.0037  0.9075
 3875SOL     OW20402   8.764  10.539   1.004 -0.5213  0.5201  0.4586
 3875SOL    HW120403   8.776  10.456   0.960 -1.4436 -0.4478  1.9361
 3875SOL    HW220404   8.702  10.587   0.949 -0.3343  0.0383 -0.1739
 3876SOL     OW20405   5.386   2.954   5.839  0.1235 -0.1214 -0.6806
 3876SOL    HW120406   5.365   2.909   5.758 -1.3021  0.0916 -0.4537
 3876SOL    HW220407   5.349   2.899   5.908 -0.5487  0.7439 -0.3249
 3877SOL     OW20408   7.987   3.326  10.784 -0.8340  0.5011 -0.1278
 3877SOL    HW120409   8.066   3.284  10.749  0.0831  0.7005  1.5563
 3877SOL    HW220410   8.000   3.419  10.768 -0.8957  0.5012 -0.1763
 3878SOL     OW20411  11.304  10.077   9.225 -0.3097 -0.1497 -0.5936
 3878SOL    HW120412  11.290  10.086   9.319  0.8137  2.9044 -0.6290
 3878SOL    HW220413  11.218  10.093   9.186 -0.9516 -2.1729 -0.1534
 3879SOL     OW20414   3.900   7.358   9.788 -0.4412  0.0549 -0.2975
 3879SOL    HW120415   3.988   7.374   9.823 -0.5898  0.4841 -0.1114
 3879SOL    HW220416   3.862   7.446   9.779 -0.7470 -0.1130 -0.6439
 3880SOL     OW20417   0.310   7.927   1.464 -0.1785  0.2455  0.4192
 3880SOL    HW120418   0.396   7.969   1.474  0.0363  0.0923 -0.7488
 3880SOL    HW220419   0.293   7.888   1.550  1.3264 -0.4746  0.4220
 3881SOL     OW20420  10.642   8.555   9.962  0.1702 -0.0032  0.1074
 3881SOL    HW120421  10.683   8.555   9.876  0.4960  1.1677  0.2514
 3881SOL    HW220422  10.618   8.463   9.977 -0.0115 -0.2009 -1.2750
 3882SOL     OW20423   5.995   3.997   8.264  0.0295 -0.2940 -0.0634
 3882SOL    HW120424   6.023   3.992   8.355  0.7644  0.6494 -0.2208
 3882SOL    HW220425   5.920   4.057   8.265  0.6334  0.4878 -0.1868
 3883SOL     OW20426   1.231   9.402  11.441 -0.2205 -0.0124  0.2273
 3883SOL    HW120427   1.311   9.410  11.389 -0.5600 -0.3890 -0.3679
 3883SOL    HW220428   1.168   9.362  11.382  0.2239 -3.3366  1.7779
 3884SOL     OW20429   2.112   7.587   1.885  0.1609  0.1714 -0.1287
 3884SOL    HW120430   2.128   7.661   1.826 -1.6574  0.1032 -0.7615
 3884SOL    HW220431   2.145   7.511   1.837  0.1510  0.3096 -0.3557
 3885SOL     OW20432  10.249   4.321   6.050  0.2591  0.1735  0.9062
 3885SOL    HW120433  10.234   4.379   5.975  0.5312  0.0806  0.7786
 3885SOL    HW220434  10.169   4.328   6.103  0.3544  0.7828  0.9713
 3886SOL     OW20435   8.843   4.339   7.639  0.3524  0.4029  0.2826
 3886SOL    HW120436   8.785   4.362   7.567  2.2597  0.9496 -1.1690
 3886SOL    HW220437   8.918   4.398   7.630  2.3519 -1.9331  0.4621
 3887SOL     OW20438  12.138   0.301  11.928  0.5139 -0.4585 -0.1183
 3887SOL    HW120439  12.092   0.374  11.888 -0.7252 -0.4522  1.2284
 3887SOL    HW220440  12.088   0.224  11.903  0.3067 -0.5581  0.5707
 3888SOL     OW20441   0.293   8.950   7.537  0.4069 -0.1704 -0.4957
 3888SOL    HW120442   0.360   8.905   7.486  1.2215 -0.1508  0.5073
 3888SOL    HW220443   0.342   8.995   7.606 -0.5943  0.3274 -0.0858
 3889SOL     OW20444   5.326  11.848   1.653  0.0350 -0.1699 -0.2235
 3889SOL    HW120445   5.400  11.891   1.695 -0.5965  1.2470 -0.5009
 3889SOL    HW220446   5.249  11.890   1.693 -0.5975 -0.6230 -0.9415
 3890SOL     OW20447   7.314   5.134   1.389  0.1934 -0.3435  0.1050
 3890SOL    HW120448   7.240   5.160   1.443 -0.6526 -0.5876 -0.9003
 3890SOL    HW220449   7.358   5.066   1.440 -0.1811 -0.0891  0.7801
 3891SOL     OW20450   9.491   9.235   3.236  1.0605 -0.8106  0.4936
 3891SOL    HW120451   9.433   9.207   3.165  2.2089 -0.6472 -0.5390
 3891SOL    HW220452   9.443   9.306   3.279  0.3519 -0.9070 -0.1050
 3892SOL     OW20453   6.751   0.398   7.004  0.1721 -0.0626  0.2836
 3892SOL    HW120454   6.656   0.392   7.002  0.0589  1.3380 -1.1776
 3892SOL    HW220455   6.769   0.486   7.036  0.8917  0.3724 -1.2322
 3893SOL     OW20456   5.886   4.854   3.853 -0.8952  0.2061  0.1615
 3893SOL    HW120457   5.852   4.829   3.939  1.6489  0.8425  1.4503
 3893SOL    HW220458   5.937   4.933   3.870  0.5565 -0.2654 -1.7508
 3894SOL     OW20459   1.188   3.047   2.159 -0.1168  0.1377 -0.3884
 3894SOL    HW120460   1.139   3.082   2.233  0.9285  0.7866  0.0269
 3894SOL    HW220461   1.248   2.983   2.197 -0.8317 -0.8894 -0.9304
 3895SOL     OW20462   4.842  11.443   5.612  0.2455  0.1972  0.1105
 3895SOL    HW120463   4.817  11.531   5.639 -0.4333 -0.2309  0.9063
 3895SOL    HW220464   4.825  11.441   5.518  0.8425  1.0996 -0.0336
 3896SOL     OW20465   2.838   2.480   3.435  0.0312 -0.3332  0.6601
 3896SOL    HW120466   2.900   2.438   3.376 -0.1352 -0.1180  0.3253
 3896SOL    HW220467   2.892   2.533   3.493  0.1099  0.5920 -0.2323
 3897SOL     OW20468   2.668   4.925   8.368  0.1886  0.1153  0.4293
 3897SOL    HW120469   2.717   4.887   8.294  1.5200  0.4670  1.0889
 3897SOL    HW220470   2.733   4.979   8.414 -1.0222  1.1940  0.9405
 3898SOL     OW20471   6.043   5.063   1.797  0.0489  0.2284  0.0756
 3898SOL    HW120472   6.044   4.998   1.866  0.3686  1.6295  1.4423
 3898SOL    HW220473   5.980   5.029   1.733 -0.7988 -0.7658  1.3834
 3899SOL     OW20474   1.523   1.288   4.485  0.1030 -0.1594 -0.4201
 3899SOL    HW120475   1.553   1.229   4.554 -0.4581  1.4776  1.2914
 3899SOL    HW220476   1.559   1.251   4.404  2.9658 -0.7230  1.0033
 3900SOL     OW20477   4.559  10.466   4.425 -0.0386 -0.5010 -0.3023
 3900SOL    HW120478   4.501  10.396   4.457  2.0708 -2.3138 -0.2512
 3900SOL    HW220479   4.553  10.461   4.330  0.2083 -0.8463 -0.3005
 3901SOL     OW20480   5.992   7.668   6.815 -0.0503 -0.7355 -0.1011
 3901SOL    HW120481   6.005   7.743   6.756  0.2779  0.8548  1.8881
 3901SOL    HW220482   5.902   7.639   6.797 -0.1136 -0.0163 -1.0503
 3902SOL     OW20483   5.353   1.763   9.609 -0.0242 -0.4571  0.4138
 3902SOL    HW120484   5.424   1.826   9.598  1.3835 -1.9054  0.8383
 3902SOL    HW220485   5.324   1.744   9.520 -0.2294  0.5040  0.2644
 3903SOL     OW20486  11.227   3.873   7.977 -0.2927  0.5917 -0.1477
 3903SOL    HW120487  11.290   3.918   7.920 -0.2328  0.1139 -0.4645
 3903SOL    HW220488  11.267   3.876   8.064  0.5487 -0.3992 -0.4849
 3904SOL     OW20489   9.643   3.970   7.060  0.6675 -0.1068  0.4832
 3904SOL    HW120490   9.611   4.028   6.991 -1.9295 -1.1798  0.6782
 3904SOL    HW220491   9.583   3.984   7.133  2.1719 -0.4504  1.8450
 3905SOL     OW20492   9.556  11.782  10.527 -0.1238 -0.3253 -0.2697
 3905SOL    HW120493   9.601  11.737  10.599  0.6709  0.6919 -0.1032
 3905SOL    HW220494   9.554  11.874  10.555 -0.0090  0.0452 -1.4426
 3906SOL     OW20495   8.935   4.513  10.673 -0.4277 -0.3524  0.3377
 3906SOL    HW120496   8.984   4.551  10.746  0.4953 -0.6052 -0.1256
 3906SOL    HW220497   8.930   4.583  10.608  1.9455 -1.1434 -0.8368
 3907SOL     OW20498   9.523  10.981  12.136 -0.3454 -0.0395  0.2549
 3907SOL    HW120499   9.503  11.029  12.217 -1.5025  1.0766 -0.6486
 3907SOL    HW220500   9.466  10.904  12.139 -0.2895 -0.0719  0.5575
 3908SOL     OW20501  12.588   7.959   0.468  0.2773 -0.2740 -0.6458
 3908SOL    HW120502  12.653   7.982   0.402  0.9160 -1.1846 -0.3477
 3908SOL    HW220503  12.571   7.866   0.454 -0.8154 -0.1011 -0.5842
 3909SOL     OW20504  10.822   7.839   4.712 -0.5479 -0.5672 -0.4441
 3909SOL    HW120505  10.773   7.785   4.774 -0.0947 -0.3918  0.0835
 3909SOL    HW220506  10.886   7.885   4.767  0.3566 -0.9655 -1.1360
 3910SOL     OW20507  12.459   2.839   9.729  0.1694  0.5496 -0.1592
 3910SOL    HW120508  12.478   2.761   9.780 -0.2923 -0.1597 -1.0348
 3910SOL    HW220509  12.480   2.814   9.639  0.0279  1.4406 -0.4466
 3911SOL     OW20510   9.637  12.080   4.626  0.0322 -0.5567 -0.1796
 3911SOL    HW120511   9.637  12.023   4.702  0.1086 -1.2375 -0.6844
 3911SOL    HW220512   9.556  12.059   4.580  0.4860 -0.8910 -0.8364
 3912SOL     OW20513   6.047  10.766   8.445 -0.3057  0.1229  0.3802
 3912SOL    HW120514   5.979  10.812   8.495  0.7672  1.7460  0.4228
 3912SOL    HW220515   6.127  10.816   8.461  0.2814  0.1451 -2.1611
 3913SOL     OW20516   9.519   7.157   4.366 -0.3469  0.1288  0.1610
 3913SOL    HW120517   9.466   7.189   4.438  0.6569  1.0532  0.5130
 3913SOL    HW220518   9.456   7.116   4.306 -1.4546  1.2153  0.5415
 3914SOL     OW20519   4.643   0.593   7.324  0.4087  0.0874  0.1480
 3914SOL    HW120520   4.711   0.576   7.388  1.4581  0.3116 -0.8790
 3914SOL    HW220521   4.562   0.565   7.367  1.1013  0.0596  1.4842
 3915SOL     OW20522   5.941   2.301   0.230 -0.2921  0.5343  0.4292
 3915SOL    HW120523   6.008   2.234   0.223  0.5368  1.4295 -0.3669
 3915SOL    HW220524   5.891   2.296   0.149 -1.5848 -0.4940  1.2349
 3916SOL     OW20525   7.437  10.261   5.494 -0.5763 -0.6032  0.1079
 3916SOL    HW120526   7.489  10.215   5.429 -0.1413 -1.1012  0.7904
 3916SOL    HW220527   7.478  10.348   5.500  0.9390 -1.3439  1.4419
 3917SOL     OW20528   5.928   5.584  12.154  0.6262 -0.2100 -0.1368
 3917SOL    HW120529   5.934   5.521  12.226  0.3198 -0.2395 -0.1343
 3917SOL    HW220530   5.957   5.667  12.191  0.8410 -0.3068 -0.0861
 3918SOL     OW20531   0.556   8.382   1.200 -0.0950  0.0215 -0.1069
 3918SOL    HW120532   0.512   8.320   1.258 -1.3986  1.6868  0.7816
 3918SOL    HW220533   0.574   8.332   1.121 -1.4380 -1.3956  0.4246
 3919SOL     OW20534   9.695   1.726   4.618  0.0535  0.1777 -0.2607
 3919SOL    HW120535   9.764   1.778   4.660 -0.1659  0.5945 -0.4076
 3919SOL    HW220536   9.626   1.789   4.600  1.1452  0.6213 -3.6267
 3920SOL     OW20537  11.779   4.888   5.212  0.3672  0.9168 -0.2608
 3920SOL    HW120538  11.772   4.920   5.302 -0.0049  1.2202 -0.3918
 3920SOL    HW220539  11.856   4.832   5.212 -0.2003  0.1133  0.4822
 3921SOL     OW20540   9.476   0.238  12.058  1.1884 -0.2028 -0.6289
 3921SOL    HW120541   9.416   0.188  12.004 -0.7424  0.6149  0.6727
 3921SOL    HW220542   9.516   0.173  12.116 -0.1708 -0.4503  0.0458
 3922SOL     OW20543   9.823   3.114   3.802 -0.5327 -0.5115 -0.4008
 3922SOL    HW120544   9.899   3.058   3.785  2.0417  2.1754  1.2812
 3922SOL    HW220545   9.792   3.086   3.889  1.9099  1.6175  1.3018
 3923SOL     OW20546   1.902  11.982   3.004 -0.2580 -0.2388  0.5678
 3923SOL    HW120547   1.927  12.074   2.999 -0.7784 -0.0497  1.2218
 3923SOL    HW220548   1.941  11.942   2.927  0.1283  0.4934  0.3732
 3924SOL     OW20549   7.997   7.031   9.509  0.1682  0.5834  0.3987
 3924SOL    HW120550   7.911   7.014   9.546  0.4273  0.5535  1.0023
 3924SOL    HW220551   8.023   6.949   9.469  0.7944 -0.0704  2.0342
 3925SOL     OW20552   7.486   2.593   1.443 -0.1419 -0.1026 -0.1112
 3925SOL    HW120553   7.547   2.555   1.505 -4.4958 -2.9774  3.0033
 3925SOL    HW220554   7.464   2.679   1.479  0.8154  0.2421 -0.3434
 3926SOL     OW20555  12.558  10.092  10.115  0.2933  0.3011 -0.5002
 3926SOL    HW120556  12.498  10.128  10.050  0.1728  2.8773  0.8964
 3926SOL    HW220557  12.600  10.169  10.154  1.4137 -1.2071  1.4661
 3927SOL     OW20558   6.470  11.663   6.905 -0.1548  0.4037  0.2699
 3927SOL    HW120559   6.464  11.604   6.980  0.8869 -1.0103 -0.6921
 3927SOL    HW220560   6.382  11.663   6.867  0.0303 -1.3921 -0.2805
 3928SOL     OW20561   6.878   9.365   5.743  0.1530 -0.2637 -0.1851
 3928SOL    HW120562   6.911   9.452   5.763  0.5583 -0.4442 -0.0576
 3928SOL    HW220563   6.868   9.365   5.648  0.0047 -0.0280 -0.1700
 3929SOL     OW20564   4.154   8.795  10.072  0.3626  0.3979  0.1724
 3929SOL    HW120565   4.185   8.771   9.984  0.0887 -2.4258  0.7396
 3929SOL    HW220566   4.204   8.739  10.131  0.6386  2.3344  1.9050
 3930SOL     OW20567   2.682   5.050   9.887  0.2931  0.9384  0.0906
 3930SOL    HW120568   2.731   5.132   9.899 -2.3152  2.7424 -0.7172
 3930SOL    HW220569   2.659   5.023   9.976  0.5301  1.4956  0.3256
 3931SOL     OW20570  12.270   2.533  11.031  0.4219 -0.5805 -0.2325
 3931SOL    HW120571  12.257   2.578  11.114  2.8551 -0.2403  0.0278
 3931SOL    HW220572  12.301   2.446  11.054  2.5535 -0.0177 -0.6920
 3932SOL     OW20573   7.765   5.498   7.117 -0.2304 -0.0685  0.1335
 3932SOL    HW120574   7.734   5.473   7.204 -2.1154  1.7192  0.0468
 3932SOL    HW220575   7.718   5.441   7.057  1.5220 -1.7231  0.2420
 3933SOL     OW20576   3.092   7.110   5.615  0.1985 -0.3477 -0.8685
 3933SOL    HW120577   3.084   7.140   5.705  0.3534 -0.4122 -0.8338
 3933SOL    HW220578   3.184   7.084   5.605  0.4115  0.5395 -1.3235
 3934SOL     OW20579   4.102   7.899   2.080 -0.1667  0.2753 -0.4475
 3934SOL    HW120580   4.008   7.892   2.096 -0.0172  1.0306  0.9732
 3934SOL    HW220581   4.110   7.926   1.988 -1.3469  0.3993 -0.5222
 3935SOL     OW20582   2.283   2.739   5.855 -0.2990  0.3745  0.6152
 3935SOL    HW120583   2.213   2.677   5.876  0.8676 -1.3473 -0.3095
 3935SOL    HW220584   2.244   2.825   5.867 -2.4998 -0.5285  0.3042
 3936SOL     OW20585   5.413   4.643  11.876  0.1085  0.2945  0.0710
 3936SOL    HW120586   5.340   4.587  11.899  0.2037 -0.3971 -1.2132
 3936SOL    HW220587   5.384   4.690  11.798  0.9888  0.0649 -0.4138
 3937SOL     OW20588   9.777   6.445   4.228 -0.8531  0.1458  0.5620
 3937SOL    HW120589   9.731   6.516   4.185 -1.5942  0.3688  1.6903
 3937SOL    HW220590   9.740   6.441   4.316 -0.7584 -1.5611  0.5687
 3938SOL     OW20591  12.513   2.936   0.275 -0.0542  0.7149 -0.4526
 3938SOL    HW120592  12.584   2.922   0.213  0.2461  0.2742 -0.0208
 3938SOL    HW220593  12.433   2.932   0.223  0.0618 -1.5544 -0.5505
 3939SOL     OW20594   9.054  10.077   2.348 -0.1277  0.1621 -0.0435
 3939SOL    HW120595   9.126  10.021   2.378 -0.2771 -0.6833 -1.2054
 3939SOL    HW220596   9.085  10.166   2.363 -1.0628 -0.0154  4.8684
 3940SOL     OW20597   9.389   3.746   3.698  0.0940 -0.5225  0.0365
 3940SOL    HW120598   9.337   3.666   3.699 -1.7035  0.5722 -0.5959
 3940SOL    HW220599   9.409   3.760   3.605  2.1336 -1.2636  0.3218
 3941SOL     OW20600   9.845  12.475   3.339  0.4136  0.1108 -0.2233
 3941SOL    HW120601   9.864  12.504   3.250 -0.5755  0.8580 -0.2116
 3941SOL    HW220602   9.805  12.389   3.328 -0.6526  0.6331 -0.5988
 3942SOL     OW20603   0.900  11.435   7.688  0.5771 -0.5725  0.1040
 3942SOL    HW120604   0.983  11.479   7.708  0.8128 -0.9395 -0.0428
 3942SOL    HW220605   0.844  11.504   7.654  0.6892 -0.2392  0.5752
 3943SOL     OW20606  12.539   5.214   4.222 -0.4161  0.4952  0.1082
 3943SOL    HW120607  12.540   5.143   4.286  0.1829  1.3959  1.1374
 3943SOL    HW220608  12.465   5.269   4.248  0.1192  1.1249  0.3300
 3944SOL     OW20609   2.461   0.401   1.880 -0.9143  0.4687  0.1906
 3944SOL    HW120610   2.453   0.496   1.877  1.0421  0.6384 -1.8890
 3944SOL    HW220611   2.427   0.371   1.796 -1.8861 -0.7532  0.9777
 3945SOL     OW20612   8.138  11.179  10.084  0.4734 -0.0163 -0.3389
 3945SOL    HW120613   8.145  11.240  10.011  0.7418 -0.0032 -0.3037
 3945SOL    HW220614   8.172  11.096  10.050 -0.2787 -0.2597 -0.5141
 3946SOL     OW20615   4.735  11.015   3.112 -0.5199  0.3746 -0.5422
 3946SOL    HW120616   4.640  11.027   3.106 -0.2572  2.7252 -0.9952
 3946SOL    HW220617   4.760  10.982   3.025 -0.8011  0.7576 -0.7736
 3947SOL     OW20618  11.738  11.206  12.487 -0.2780 -0.3052  0.4276
 3947SOL    HW120619  11.753  11.219  12.580  0.7580  1.4455  0.0523
 3947SOL    HW220620  11.706  11.291  12.456 -0.2155 -0.7472 -0.8917
 3948SOL     OW20621  11.033   0.760   7.842  0.0604  0.6195  0.0033
 3948SOL    HW120622  11.089   0.830   7.809  1.1122 -0.9384 -1.7131
 3948SOL    HW220623  11.057   0.751   7.934  1.1956  1.2981 -0.2079
 3949SOL     OW20624   8.404   8.502   3.498 -0.1086  0.4692  0.6177
 3949SOL    HW120625   8.491   8.510   3.537  0.2515 -1.0416  0.1861
 3949SOL    HW220626   8.380   8.591   3.476  1.7487  0.8282 -0.1375
 3950SOL     OW20627  10.750   5.104   5.746  0.3198  0.0469 -0.3082
 3950SOL    HW120628  10.844   5.091   5.756  0.5132  1.1350 -0.6191
 3950SOL    HW220629  10.736   5.197   5.762 -0.5495  0.1210 -1.3180
 3951SOL     OW20630   9.752   4.267   4.620 -0.0939 -0.0201  0.0413
 3951SOL    HW120631   9.727   4.252   4.711  2.2983  1.0342  0.9691
 3951SOL    HW220632   9.670   4.284   4.574 -1.4092 -1.1497  1.8668
 3952SOL     OW20633   3.196  11.288   7.066  0.7436  0.6170 -0.2855
 3952SOL    HW120634   3.164  11.318   7.150  0.4351 -0.3324 -0.0602
 3952SOL    HW220635   3.123  11.301   7.006 -0.7783 -2.9998  0.5263
 3953SOL     OW20636   3.478   0.866   3.246  0.5347  0.1676  0.1867
 3953SOL    HW120637   3.408   0.926   3.220  0.6549  0.1670 -0.1487
 3953SOL    HW220638   3.558   0.906   3.211  0.9328  1.0208  1.9460
 3954SOL     OW20639   8.635   7.339   5.715  0.5496  0.7217 -0.5942
 3954SOL    HW120640   8.608   7.294   5.795  2.6511  2.5841  1.3110
 3954SOL    HW220641   8.554   7.374   5.678 -0.4701 -0.2177  0.6834
 3955SOL     OW20642  11.839   6.038  10.231 -0.7744 -0.0879  0.0526
 3955SOL    HW120643  11.885   6.112  10.270  0.4528 -1.2302  0.8687
 3955SOL    HW220644  11.905   5.995  10.176 -1.0588 -1.3544  0.6793
 3956SOL     OW20645   5.516   7.843   1.944  0.2793 -0.3216 -0.3345
 3956SOL    HW120646   5.533   7.936   1.931  1.5432 -0.2672  1.2770
 3956SOL    HW220647   5.565   7.800   1.874  0.4282  0.1988 -0.5609
 3957SOL     OW20648   1.577   2.959  10.400 -0.0797 -0.1522 -0.1307
 3957SOL    HW120649   1.606   3.044  10.366 -1.7722 -0.2150 -1.8820
 3957SOL    HW220650   1.509   2.980  10.463  0.1199 -0.1832  0.0962
 3958SOL     OW20651  10.481   8.539  11.478 -0.1683 -0.0145 -0.3427
 3958SOL    HW120652  10.417   8.471  11.455  0.1497 -0.1435 -0.8818
 3958SOL    HW220653  10.526   8.504  11.555 -0.4750 -0.1033 -0.2020
 3959SOL     OW20654   9.660   7.145   3.863 -0.1372  0.5310 -0.3621
 3959SOL    HW120655   9.690   7.235   3.870  0.3027  0.4542 -1.0340
 3959SOL    HW220656   9.630   7.122   3.950  0.7177  0.9954  0.0686
 3960SOL     OW20657   2.816  10.377   8.285  0.2422  0.2242 -0.1861
 3960SOL    HW120658   2.787  10.459   8.325  1.1831  0.5191 -0.0951
 3960SOL    HW220659   2.893  10.401   8.234 -0.0873 -0.4207 -1.0000
 3961SOL     OW20660   2.201  12.433   8.375 -0.6935 -0.1161  0.7292
 3961SOL    HW120661   2.255  12.461   8.449 -0.5079 -1.5621  1.1650
 3961SOL    HW220662   2.207  12.338   8.376 -0.4251 -0.1669 -1.3363
 3962SOL     OW20663   2.818   8.881   6.186 -0.1462  0.6497 -0.4509
 3962SOL    HW120664   2.764   8.822   6.238 -0.9297  1.3066 -0.5044
 3962SOL    HW220665   2.790   8.969   6.213  0.0825  0.9979 -1.3209
 3963SOL     OW20666   7.732   6.918   1.610 -0.2088  0.0954  0.2467
 3963SOL    HW120667   7.718   6.978   1.536 -2.5450 -1.2507 -0.5202
 3963SOL    HW220668   7.811   6.869   1.587  0.0537  0.8495 -0.5327
 3964SOL     OW20669   7.846   6.772   4.367 -0.2205  0.0880 -0.1283
 3964SOL    HW120670   7.815   6.700   4.312  0.2237 -1.7851  1.9140
 3964SOL    HW220671   7.787   6.771   4.443  1.9190 -0.5373  1.6291
 3965SOL     OW20672  12.426   4.568   8.474 -0.2396 -0.6782  0.2957
 3965SOL    HW120673  12.409   4.474   8.472 -0.5896 -0.6388  1.0981
 3965SOL    HW220674  12.465   4.588   8.388 -0.6462 -1.4554 -0.0713
 3966SOL     OW20675  12.577   5.789   8.732 -0.2482 -0.6207  0.2448
 3966SOL    HW120676  12.540   5.850   8.668 -0.7926  2.2182  2.9973
 3966SOL    HW220677  12.666   5.773   8.702 -0.6448  0.1668 -1.4509
 3967SOL     OW20678  11.177   2.077   7.051  0.4331  0.5321  0.1667
 3967SOL    HW120679  11.187   2.008   6.986  1.8954  0.5926  0.3017
 3967SOL    HW220680  11.155   2.031   7.132  2.7279  0.0393  0.5842
 3968SOL     OW20681   9.859   5.056   0.505  0.0978  0.0130  0.0247
 3968SOL    HW120682   9.795   5.105   0.452  2.1823  0.9384 -1.7941
 3968SOL    HW220683   9.833   4.964   0.492 -0.7490  0.3443 -0.8311
 3969SOL     OW20684   9.221  11.165   1.751  0.4441  0.0971 -0.1709
 3969SOL    HW120685   9.173  11.087   1.723  0.5082 -0.2113  0.5466
 3969SOL    HW220686   9.197  11.176   1.843  0.9131  0.5726 -0.1007
 3970SOL     OW20687   6.255   9.627   0.443 -0.2345  0.1446  0.0796
 3970SOL    HW120688   6.315   9.679   0.497  1.3186 -0.9277 -0.5476
 3970SOL    HW220689   6.311   9.588   0.376 -1.4516 -1.8257  0.1461
 3971SOL     OW20690  12.251   1.766  12.552  0.8219  0.4965  0.2233
 3971SOL    HW120691  12.254   1.812  12.636 -1.6485  1.0583  0.0652
 3971SOL    HW220692  12.267   1.674  12.575 -0.2680  0.5708  1.3780
 3972SOL     OW20693  10.931   7.361   5.236 -0.0841 -0.2449  0.1001
 3972SOL    HW120694  11.002   7.323   5.286  0.5773  0.0004 -0.6298
 3972SOL    HW220695  10.854   7.350   5.292  0.7358  0.6284  1.4637
 3973SOL     OW20696   4.126   8.508   0.597 -0.3590 -0.0078 -0.7142
 3973SOL    HW120697   4.215   8.541   0.583 -0.4881  0.8810  0.3634
 3973SOL    HW220698   4.133   8.413   0.585  1.3788 -0.3455  2.0085
 3974SOL     OW20699  12.373   0.317   3.515  0.4111  0.0780  0.0402
 3974SOL    HW120700  12.412   0.232   3.534 -0.9181 -0.4337  0.5870
 3974SOL    HW220701  12.321   0.337   3.593 -1.1469  0.2998 -1.0227
 3975SOL     OW20702   5.095   9.957  10.947  0.4981  0.1673  0.1408
 3975SOL    HW120703   5.022   9.895  10.938  0.0719  0.4121  1.7551
 3975SOL    HW220704   5.053  10.039  10.973  0.9708  1.4193 -2.6681
 3976SOL     OW20705   7.705   6.535   6.743 -0.0755  0.5075 -0.4196
 3976SOL    HW120706   7.686   6.452   6.700 -2.0587  0.7144 -0.0114
 3976SOL    HW220707   7.736   6.511   6.830 -0.2638  0.1858 -0.4402
 3977SOL     OW20708  11.795  10.515   2.797  0.3282  0.0257 -0.0852
 3977SOL    HW120709  11.835  10.593   2.837 -0.6555  0.8920 -0.7606
 3977SOL    HW220710  11.821  10.443   2.855  1.0663  0.8815  0.6781
 3978SOL     OW20711   9.086  11.784   0.152  0.1756 -0.6704  0.1034
 3978SOL    HW120712   9.040  11.702   0.172  0.4580 -1.1437 -1.0929
 3978SOL    HW220713   9.075  11.795   0.058  0.6099  0.3877  0.1654
 3979SOL     OW20714  11.250   9.254   9.380 -0.0644 -0.4298 -0.1446
 3979SOL    HW120715  11.336   9.216   9.400 -0.4330 -2.0947 -1.4403
 3979SOL    HW220716  11.192   9.178   9.374 -1.1847  0.4847 -1.3331
 3980SOL     OW20717   1.433   1.157   2.799  0.0485 -0.0522  0.0323
 3980SOL    HW120718   1.461   1.144   2.890  0.3687  0.2266 -0.0237
 3980SOL    HW220719   1.405   1.071   2.770 -0.1419 -0.1267  0.4257
 3981SOL     OW20720   3.794   3.403   6.570  0.0074 -0.1451 -0.4934
 3981SOL    HW120721   3.753   3.468   6.513  0.0251 -0.9419 -1.4367
 3981SOL    HW220722   3.724   3.376   6.630 -0.2634  0.0396 -0.7231
 3982SOL     OW20723   1.614   4.684   0.497  0.1559  0.0250  0.3830
 3982SOL    HW120724   1.692   4.634   0.519 -0.8263 -2.3011 -1.0990
 3982SOL    HW220725   1.645   4.753   0.439  1.1010 -0.9875 -0.3518
 3983SOL     OW20726   5.605   3.240   4.200 -0.5316 -0.3947 -0.5963
 3983SOL    HW120727   5.611   3.319   4.253 -2.8150  0.2427 -1.1694
 3983SOL    HW220728   5.693   3.203   4.201  0.0515  0.9062  1.5727
 3984SOL     OW20729   4.201   0.110   4.587 -0.4158 -0.6057  0.4884
 3984SOL    HW120730   4.242   0.164   4.654  1.2394 -1.6492  0.3724
 3984SOL    HW220731   4.201   0.022   4.624  1.3170 -1.3697 -1.1373
 3985SOL     OW20732   7.123   7.973   8.636  0.1684  0.3105  0.3991
 3985SOL    HW120733   7.126   8.024   8.716 -0.0732  0.9936 -0.0183
 3985SOL    HW220734   7.076   8.028   8.574 -0.5338 -0.6155  0.0770
 3986SOL     OW20735   4.824   9.688   5.896  0.7554  0.0511 -0.5502
 3986SOL    HW120736   4.744   9.740   5.892  1.9088  2.0676  0.8801
 3986SOL    HW220737   4.894   9.748   5.868  1.9823 -1.1400 -0.1608
 3987SOL     OW20738   1.788   9.525   6.116 -0.5864 -0.1517 -0.1659
 3987SOL    HW120739   1.866   9.481   6.082 -1.0225 -0.6323 -0.5886
 3987SOL    HW220740   1.794   9.515   6.211  0.6807  1.2557 -0.0800
 3988SOL     OW20741   2.117   8.435  12.443  0.5725 -0.3192 -0.1188
 3988SOL    HW120742   2.143   8.391  12.362 -0.2530 -1.5633  0.2655
 3988SOL    HW220743   2.158   8.382  12.512  1.7648  1.0709  0.2795
 3989SOL     OW20744   2.931   8.320   1.238  0.4963 -0.4637 -0.0132
 3989SOL    HW120745   2.857   8.378   1.220  0.0611 -1.5131 -1.8689
 3989SOL    HW220746   3.002   8.379   1.264 -1.3175  0.4699  3.3856
 3990SOL     OW20747  11.904   9.723   1.524 -0.0398 -0.1222 -0.6773
 3990SOL    HW120748  11.955   9.666   1.581  0.1806 -0.5313 -1.2697
 3990SOL    HW220749  11.952   9.724   1.441 -0.1316  0.7980 -0.7314
 3991SOL     OW20750   3.016  12.544   6.117 -0.7362 -0.3603 -0.5116
 3991SOL    HW120751   3.080  12.484   6.156 -0.3225 -0.8504 -1.8830
 3991SOL    HW220752   3.067  12.597   6.057 -1.3672  0.3464 -0.4295
 3992SOL     OW20753   1.819   5.499   5.255  0.0439 -0.2334 -0.4342
 3992SOL    HW120754   1.767   5.522   5.178 -0.1902 -0.9196 -0.4915
 3992SOL    HW220755   1.839   5.583   5.297  1.9753  0.3825 -2.3683
 3993SOL     OW20756   4.607  12.276   6.026  0.0339  0.0605  0.0195
 3993SOL    HW120757   4.674  12.279   6.095 -0.5424 -0.2907  0.6037
 3993SOL    HW220758   4.629  12.198   5.975 -0.0373 -0.1691  0.3330
 3994SOL     OW20759  10.582   4.641   8.825 -0.7396 -0.4593  0.2407
 3994SOL    HW120760  10.491   4.644   8.854 -0.1375 -1.6574  2.4630
 3994SOL    HW220761  10.606   4.549   8.829  1.2427  0.0546  2.1155
 3995SOL     OW20762   4.111   7.322  11.182  0.0113 -0.3983 -0.4170
 3995SOL    HW120763   4.119   7.417  11.187 -0.0499 -0.3842 -0.5726
 3995SOL    HW220764   4.141   7.291  11.267  0.1954 -0.2518 -0.4279
 3996SOL     OW20765   1.786  12.523   9.333  0.2667  0.5164  0.0690
 3996SOL    HW120766   1.739  12.457   9.281  0.3648  1.2968 -1.0436
 3996SOL    HW220767   1.793  12.484   9.420 -4.3776  1.1969  1.0022
 3997SOL     OW20768   9.590   9.010  11.315 -0.3455  0.9884  0.3004
 3997SOL    HW120769   9.622   8.963  11.392  0.0924  0.2197 -0.3412
 3997SOL    HW220770   9.503   9.041  11.341  0.2133  1.6620  1.4667
 3998SOL     OW20771  11.977  10.867   0.448 -0.4650  0.4040 -0.0644
 3998SOL    HW120772  11.958  10.903   0.535 -1.2354 -0.0466 -0.0379
 3998SOL    HW220773  12.065  10.899   0.428 -0.9657  1.9511  0.1235
 3999SOL     OW20774   1.828   7.299   8.598  0.0432  0.0353  0.3538
 3999SOL    HW120775   1.878   7.376   8.624  1.9376 -0.8464 -0.5315
 3999SOL    HW220776   1.892   7.228   8.596 -1.5248 -1.4405  0.4871
 4000SOL     OW20777   0.856   2.797   8.033  0.7669  0.3341 -0.1692
 4000SOL    HW120778   0.882   2.889   8.043 -0.4934  0.6610  0.2360
 4000SOL    HW220779   0.890   2.772   7.947  1.8623  0.9107  0.0715
 4001SOL     OW20780  11.187   8.788   1.853  0.1070 -0.0925 -0.0092
 4001SOL    HW120781  11.264   8.812   1.903  0.1080  0.4692 -0.2682
 4001SOL    HW220782  11.142   8.871   1.837 -1.3923 -0.5664  1.4840
 4002SOL     OW20783   2.151   5.125   1.012 -0.1322 -0.6851  0.9598
 4002SOL    HW120784   2.131   5.033   0.998  0.1082 -1.0162  2.6492
 4002SOL    HW220785   2.106   5.170   0.940  0.7848 -2.1886 -0.6471
 4003SOL     OW20786  11.014   6.211   5.658 -0.2693 -0.2390  0.3996
 4003SOL    HW120787  10.995   6.183   5.748  0.2429 -1.1507  0.2420
 4003SOL    HW220788  11.039   6.303   5.666 -0.6977 -0.1776  1.1270
 4004SOL     OW20789   5.338   8.868  11.735 -0.2341 -0.4008 -0.4795
 4004SOL    HW120790   5.423   8.825  11.727 -0.0330 -0.1754  0.3407
 4004SOL    HW220791   5.309   8.847  11.824 -0.1182  1.1668 -0.0467
 4005SOL     OW20792   9.510   0.413   9.286 -0.7087  0.1321 -0.3694
 4005SOL    HW120793   9.594   0.448   9.317 -0.7590 -0.8413  0.9542
 4005SOL    HW220794   9.501   0.448   9.198  1.2791 -0.0446 -0.6939
 4006SOL     OW20795  10.530  10.447   3.846 -0.3702 -0.2611  0.2061
 4006SOL    HW120796  10.576  10.400   3.776 -0.1185  0.0718  0.1482
 4006SOL    HW220797  10.450  10.396   3.860  1.2360 -2.4651  2.2133
 4007SOL     OW20798   4.325  12.451   1.924 -0.3786 -0.6344  1.0675
 4007SOL    HW120799   4.233  12.468   1.906 -0.2869  0.0062  1.1720
 4007SOL    HW220800   4.343  12.368   1.882 -0.1875  0.7179 -1.7235
 4008SOL     OW20801  11.928   7.946   4.649  0.2668  0.7004 -0.7656
 4008SOL    HW120802  11.964   7.907   4.728 -0.3029  1.3299 -0.1778
 4008SOL    HW220803  12.000   7.946   4.586  0.4818 -0.5764 -0.5306
 4009SOL     OW20804   3.709   7.224   8.665 -0.0352 -0.5788  0.2618
 4009SOL    HW120805   3.754   7.224   8.581  0.0862  0.5566  0.3015
 4009SOL    HW220806   3.678   7.134   8.677  0.4167 -0.8744 -0.7358
 4010SOL     OW20807   7.910   0.353   2.768  0.2212  0.7689 -0.4517
 4010SOL    HW120808   7.879   0.266   2.792  1.1282 -0.1273 -2.3056
 4010SOL    HW220809   7.900   0.405   2.848  0.7960 -1.3233  1.0748
 4011SOL     OW20810   9.612   9.976   4.851  0.4439  0.2840 -0.2180
 4011SOL    HW120811   9.608  10.010   4.940  0.2933 -1.7843  0.5939
 4011SOL    HW220812   9.576  10.047   4.797  1.0623  1.7843  1.2684
 4012SOL     OW20813   8.831   4.028   8.598 -0.1715 -0.0925  0.2463
 4012SOL    HW120814   8.897   3.973   8.641  1.0195  1.1165  0.0113
 4012SOL    HW220815   8.785   3.967   8.540 -0.2324 -1.2540  1.4562
 4013SOL     OW20816   8.883  10.342   0.504  0.2815  0.6587 -0.3313
 4013SOL    HW120817   8.794  10.322   0.476  0.4702 -0.1433 -0.3908
 4013SOL    HW220818   8.881  10.335   0.599 -0.3232  3.2344 -0.0965
 4014SOL     OW20819  11.244  10.951   2.527 -0.0627 -0.1037 -0.2800
 4014SOL    HW120820  11.326  10.936   2.574  0.2363  1.7814 -0.1259
 4014SOL    HW220821  11.253  10.897   2.448  0.9296 -0.6165  0.1551
 4015SOL     OW20822  12.081   2.844   7.457 -0.1509 -0.1673  0.2936
 4015SOL    HW120823  12.005   2.836   7.514  0.9091  0.1865  1.8349
 4015SOL    HW220824  12.095   2.938   7.447  0.8214 -0.1969  1.1291
 4016SOL     OW20825   5.919   0.942  12.589  0.3600  0.2694  0.2554
 4016SOL    HW120826   5.925   0.861  12.639  0.2368 -0.0179 -0.1870
 4016SOL    HW220827   5.893   0.914  12.501 -0.9555  0.8888  0.4123
 4017SOL     OW20828   3.994  11.538   5.885  0.1873 -0.5038  0.0980
 4017SOL    HW120829   3.904  11.535   5.917  0.7079 -0.3417  1.6460
 4017SOL    HW220830   4.004  11.626   5.848 -0.6653 -0.9731 -1.3330
 4018SOL     OW20831  10.195   3.940   7.232  0.0099  0.4174 -0.1915
 4018SOL    HW120832  10.206   3.907   7.322 -0.5270  0.7333 -0.0045
 4018SOL    HW220833  10.106   3.914   7.208  0.2761  0.0242 -0.7690
 4019SOL     OW20834   5.235   9.897   3.444 -0.4266  0.5486 -0.0491
 4019SOL    HW120835   5.243   9.990   3.463 -0.7387  0.5334  0.1713
 4019SOL    HW220836   5.142   9.878   3.458  0.1784 -0.5079  3.2372
 4020SOL     OW20837   0.763   6.195   5.995 -0.0138 -0.0773  0.5269
 4020SOL    HW120838   0.808   6.111   5.991 -0.3826 -0.2522  0.0450
 4020SOL    HW220839   0.696   6.190   5.928 -0.0692  0.5860  0.5263
 4021SOL     OW20840  12.320   6.838   5.008  0.9505 -0.5378 -0.6942
 4021SOL    HW120841  12.252   6.838   4.941  1.8729 -2.1224 -1.6997
 4021SOL    HW220842  12.311   6.753   5.051  0.2563  0.5217  1.3705
 4022SOL     OW20843   7.626   4.505   1.613  0.0632 -0.4646 -0.0219
 4022SOL    HW120844   7.626   4.601   1.605 -0.8097 -0.2631  1.9843
 4022SOL    HW220845   7.719   4.481   1.615  0.3043  0.4805  0.7225
 4023SOL     OW20846   3.320   9.390   4.718 -0.1760 -0.1380  0.1530
 4023SOL    HW120847   3.308   9.389   4.813 -2.2272  0.0848 -0.0473
 4023SOL    HW220848   3.231   9.382   4.683  0.5181 -0.0295 -1.7566
 4024SOL     OW20849   6.590  12.583   6.981  0.3491 -0.0059  0.6811
 4024SOL    HW120850   6.594  12.488   6.984 -0.4614 -0.0393  0.9880
 4024SOL    HW220851   6.647  12.612   7.052  1.2465 -0.2354  0.0662
 4025SOL     OW20852   3.340   1.948   5.385  0.4103  0.4744  0.2488
 4025SOL    HW120853   3.375   1.863   5.359  2.1972  0.6236  1.9054
 4025SOL    HW220854   3.274   1.928   5.451  1.3409  0.3483  1.1725
 4026SOL     OW20855  10.250   4.228   4.118  0.2781  0.1581 -0.0849
 4026SOL    HW120856  10.217   4.214   4.207 -1.3315 -0.4032 -0.7469
 4026SOL    HW220857  10.203   4.164   4.064  1.4909  0.2375 -1.3012
 4027SOL     OW20858  12.394   5.432  11.223 -0.0575  0.0612  0.4664
 4027SOL    HW120859  12.455   5.504  11.207  0.0760 -0.2578 -0.5538
 4027SOL    HW220860  12.379   5.394  11.136  0.0141 -1.2525  1.0079
 4028SOL     OW20861   2.067  11.763   4.183  0.6016  0.3731 -0.6120
 4028SOL    HW120862   2.017  11.773   4.103 -0.4021 -0.5011 -0.1213
 4028SOL    HW220863   2.156  11.791   4.160  0.2256  0.5566 -1.8920
 4029SOL     OW20864   0.695   6.385   5.081  0.0651  0.3495 -0.0386
 4029SOL    HW120865   0.650   6.317   5.031  0.3197  0.2263 -0.1040
 4029SOL    HW220866   0.763   6.339   5.130 -0.3600  0.4371  0.6365
 4030SOL     OW20867   7.859  12.230   3.138 -0.0874 -0.2354 -0.2938
 4030SOL    HW120868   7.848  12.322   3.161  0.6496 -0.4137  0.8643
 4030SOL    HW220869   7.777  12.188   3.165  0.2285 -0.1954  0.7625
 4031SOL     OW20870   9.511   5.544   7.174  0.4992 -1.1251 -0.7017
 4031SOL    HW120871   9.438   5.514   7.228  0.0562  0.8091 -0.1667
 4031SOL    HW220872   9.489   5.513   7.086  0.1994 -2.5227 -0.1651
 4032SOL     OW20873   2.629   5.369   7.237 -0.5751 -0.0796  0.0090
 4032SOL    HW120874   2.565   5.348   7.305  0.7833 -0.0475  1.3706
 4032SOL    HW220875   2.649   5.285   7.195 -2.6479  0.1393 -1.5575
 4033SOL     OW20876   2.395   2.979  12.433  0.0208 -0.6861  0.4655
 4033SOL    HW120877   2.306   3.001  12.406  0.4463 -0.3260 -0.7156
 4033SOL    HW220878   2.447   3.055  12.406  0.6667 -0.8452  1.2422
 4034SOL     OW20879   8.022   9.772   5.994  0.2457  0.0827 -0.1835
 4034SOL    HW120880   7.987   9.716   6.063  0.6580  2.0160  1.7095
 4034SOL    HW220881   7.985   9.858   6.012  1.8487  1.0475 -1.2356
 4035SOL     OW20882  11.851   8.201   4.923  0.2176  0.0175 -0.2790
 4035SOL    HW120883  11.804   8.244   4.994  1.9366  3.0738 -0.8288
 4035SOL    HW220884  11.788   8.197   4.851 -0.3278  0.5858  0.1579
 4036SOL     OW20885   5.664   6.846   4.137  0.3145  0.3026  0.1860
 4036SOL    HW120886   5.582   6.895   4.133 -0.2770 -0.6930 -0.4284
 4036SOL    HW220887   5.728   6.903   4.095 -0.0469  1.1110  0.7178
 4037SOL     OW20888   1.961   3.785   9.891  0.3054 -0.3687  0.2129
 4037SOL    HW120889   1.894   3.832   9.941 -0.5101 -1.6358  0.3636
 4037SOL    HW220890   1.941   3.693   9.905  1.2710 -0.7648 -0.8472
 4038SOL     OW20891   6.882   1.586   4.331  0.6531 -0.1566  0.3831
 4038SOL    HW120892   6.879   1.491   4.341  1.7005 -0.2286  0.1231
 4038SOL    HW220893   6.873   1.620   4.421  0.6649 -0.5038  0.5158
 4039SOL     OW20894   3.506  11.228   9.869 -0.0039 -0.0398 -0.2270
 4039SOL    HW120895   3.564  11.303   9.883 -1.4478  1.4884 -1.8810
 4039SOL    HW220896   3.441  11.260   9.807 -0.7532 -2.6642 -0.9133
 4040SOL     OW20897   3.235  12.160  11.153 -0.0986  0.2243 -0.2962
 4040SOL    HW120898   3.308  12.205  11.111 -1.0818  2.5635  0.3509
 4040SOL    HW220899   3.209  12.093  11.090  1.4308  0.5324 -1.3186
 4041SOL     OW20900   1.012   5.021   3.420 -0.0281  0.0471 -0.1730
 4041SOL    HW120901   0.989   5.003   3.329 -0.6689 -0.8561  0.1509
 4041SOL    HW220902   1.029   4.935   3.458  3.6712  0.5509 -0.2615
 4042SOL     OW20903  10.014  11.638   3.483  0.7723  0.4323  0.0548
 4042SOL    HW120904   9.964  11.626   3.564  2.0131  1.9834  1.1112
 4042SOL    HW220905  10.090  11.582   3.493 -0.0335 -0.9019 -0.9653
 4043SOL     OW20906   0.754   5.812   4.206  0.3608 -0.0813  0.0391
 4043SOL    HW120907   0.817   5.780   4.270  1.4177 -0.5819 -1.2053
 4043SOL    HW220908   0.729   5.734   4.156  0.3625  0.4706 -0.8339
 4044SOL     OW20909   3.282   6.674   4.930  0.0965  0.3232  0.0263
 4044SOL    HW120910   3.318   6.606   4.987  0.8523  1.7258  1.3148
 4044SOL    HW220911   3.196   6.641   4.904  0.1064 -0.7661  1.2635
 4045SOL     OW20912   4.676   1.640   1.721  0.0835  0.1056 -0.3264
 4045SOL    HW120913   4.736   1.707   1.689  0.4941  0.2330  0.6700
 4045SOL    HW220914   4.726   1.593   1.788 -0.5408 -0.5424 -0.2978
 4046SOL     OW20915   8.058   5.992   7.589 -0.2739  0.1518 -0.3667
 4046SOL    HW120916   8.061   5.926   7.658 -0.8688  1.0670  0.5636
 4046SOL    HW220917   7.966   6.019   7.586 -0.4636 -0.5798 -2.2164
 4047SOL     OW20918   5.393   3.891   3.195 -0.4708 -0.0788 -0.4110
 4047SOL    HW120919   5.406   3.812   3.142  2.4384  0.8510 -1.3065
 4047SOL    HW220920   5.372   3.959   3.131 -3.9721 -0.1794  0.4403
 4048SOL     OW20921   2.256  12.042   9.038 -0.1571 -0.2619 -0.0849
 4048SOL    HW120922   2.222  12.110   8.979  1.3340  1.3410  0.7898
 4048SOL    HW220923   2.181  12.021   9.095 -0.3909  1.5294  0.3638
 4049SOL     OW20924   7.828   9.172   1.723  0.0627  0.3115 -0.5231
 4049SOL    HW120925   7.865   9.106   1.663  1.6619  1.0123 -0.3621
 4049SOL    HW220926   7.733   9.159   1.717  0.2207 -0.3700 -2.3813
 4050SOL     OW20927   9.017  10.032   3.865  0.0010 -0.0405  0.6133
 4050SOL    HW120928   8.968  10.090   3.807 -0.0987 -0.8418 -0.1146
 4050SOL    HW220929   8.996  10.063   3.953 -1.6671 -0.2487  0.3204
 4051SOL     OW20930   6.925   1.673   5.372 -0.4417  0.1931  0.4600
 4051SOL    HW120931   6.839   1.712   5.355 -0.1708  0.3534 -0.6046
 4051SOL    HW220932   6.927   1.595   5.317  0.5354  0.8203 -0.4230
 4052SOL     OW20933   2.386  11.078   7.830  0.5006  0.4898 -0.4676
 4052SOL    HW120934   2.356  11.009   7.890  1.9006 -0.0193 -0.3158
 4052SOL    HW220935   2.378  11.038   7.743  3.2985 -0.7324 -0.2601
 4053SOL     OW20936   5.824   1.596  11.569 -0.1226  0.3331  0.1691
 4053SOL    HW120937   5.795   1.603  11.478 -0.3543  0.6950  0.2667
 4053SOL    HW220938   5.889   1.665  11.579 -0.4226  0.5858  0.3974
 4054SOL     OW20939   1.066  11.701   8.270  0.3431  0.3860  0.4294
 4054SOL    HW120940   1.118  11.737   8.342 -1.0024 -1.9814  2.7911
 4054SOL    HW220941   1.091  11.609   8.267 -0.4297  0.2079 -1.4731
 4055SOL     OW20942  11.542  12.114  12.388  0.3497 -0.7688  0.3467
 4055SOL    HW120943  11.561  12.099  12.480 -0.5648 -0.1343  0.6475
 4055SOL    HW220944  11.592  12.192  12.365  0.2860 -0.7139  0.3964
 4056SOL     OW20945  10.809   2.110  11.303 -0.3635 -0.2712  0.1845
 4056SOL    HW120946  10.765   2.053  11.241 -0.8180  0.3867 -0.1077
 4056SOL    HW220947  10.790   2.072  11.389  2.6480 -2.8781 -0.1280
 4057SOL     OW20948   1.848   0.783  10.096  0.4891 -0.4701  0.0842
 4057SOL    HW120949   1.802   0.773  10.179  1.4373 -0.4037  0.6284
 4057SOL    HW220950   1.783   0.824  10.038 -0.0529 -0.1271  0.9076
 4058SOL     OW20951  11.139   7.252   4.683 -0.0812  0.2555  0.0629
 4058SOL    HW120952  11.055   7.220   4.651  0.0429 -0.8420  0.7909
 4058SOL    HW220953  11.189   7.271   4.603 -0.1897 -1.3299 -0.4240
 4059SOL     OW20954   3.122   3.261   4.990 -0.0729 -0.2337  0.7632
 4059SOL    HW120955   3.060   3.190   4.974  0.7558 -1.0768  1.1434
 4059SOL    HW220956   3.119   3.277   5.084  0.0087 -0.0170  0.7310
 4060SOL     OW20957   5.114   2.803   2.634  0.0270  0.1827  0.2061
 4060SOL    HW120958   5.122   2.866   2.706  1.5184  0.2495  0.0279
 4060SOL    HW220959   5.200   2.806   2.591  0.8499 -3.2069  1.2701
 4061SOL     OW20960   2.944   8.973   4.833  0.1401 -0.6246 -0.1170
 4061SOL    HW120961   2.869   8.913   4.836  0.2954 -0.7801  1.0015
 4061SOL    HW220962   2.953   9.005   4.923 -0.7922  2.1567 -0.8879
 4062SOL     OW20963   8.700   2.444   5.142 -0.0044  0.0725 -0.2202
 4062SOL    HW120964   8.725   2.536   5.129 -2.1290  0.6427 -0.6811
 4062SOL    HW220965   8.608   2.448   5.167  0.3860 -1.8501  1.8242
 4063SOL     OW20966   7.794   7.160   4.410  0.2598  0.0136  0.3585
 4063SOL    HW120967   7.792   7.254   4.391 -0.5860  0.5336  2.6902
 4063SOL    HW220968   7.717   7.125   4.366  1.0369  0.2073 -1.2450
 4064SOL     OW20969   4.903   6.089   0.492  0.0064 -0.1531 -0.1868
 4064SOL    HW120970   4.960   6.123   0.561 -1.2521  0.9704  0.3616
 4064SOL    HW220971   4.865   6.168   0.453 -2.3985 -0.8652  0.5662
 4065SOL     OW20972  11.896   9.529   7.614 -0.3335 -0.0556 -0.3162
 4065SOL    HW120973  11.919   9.528   7.707 -1.3246  0.6137 -0.0541
 4065SOL    HW220974  11.855   9.445   7.598  0.0125 -0.2494 -0.2004
 4066SOL     OW20975   0.643   1.252   4.683  0.2798  0.2436 -0.0232
 4066SOL    HW120976   0.641   1.195   4.760 -1.3809 -0.3154 -0.4425
 4066SOL    HW220977   0.666   1.194   4.611  0.8490  0.5783 -0.1225
 4067SOL     OW20978  12.287  12.443   5.981 -0.1782 -0.6276  0.3638
 4067SOL    HW120979  12.247  12.509   6.036  1.6067  0.0958  0.8312
 4067SOL    HW220980  12.212  12.399   5.939 -1.4342  0.7862  1.0377
 4068SOL     OW20981   2.991  10.942  11.787 -0.2848 -0.1709  0.4145
 4068SOL    HW120982   2.997  10.860  11.835  0.6639  0.0923  0.7594
 4068SOL    HW220983   3.019  10.921  11.698  0.3578 -0.1379  0.6073
 4069SOL     OW20984   8.613   2.374  12.594  0.3125 -0.6691  0.3793
 4069SOL    HW120985   8.608   2.319  12.671  1.1885 -0.0694  0.8852
 4069SOL    HW220986   8.614   2.313  12.520 -0.9927 -1.2272  0.8012
 4070SOL     OW20987   8.606   9.045   0.573 -0.2677  0.5654 -0.6961
 4070SOL    HW120988   8.616   9.137   0.598 -1.3376  0.6470 -0.5424
 4070SOL    HW220989   8.681   9.001   0.614 -1.7689  0.7325  2.5228
 4071SOL     OW20990  11.949   2.546   3.484  0.6186 -0.0720 -0.4767
 4071SOL    HW120991  12.014   2.590   3.430  1.6675  0.3642  1.0672
 4071SOL    HW220992  11.990   2.463   3.508 -0.3444 -0.8215 -1.3401
 4072SOL     OW20993   8.000   7.339   3.429 -0.2455 -0.0756 -0.2356
 4072SOL    HW120994   7.919   7.343   3.378 -0.9192  0.3339  0.8323
 4072SOL    HW220995   7.982   7.273   3.497 -0.1119  0.8221  0.6934
 4073SOL     OW20996  11.575   2.430   6.392 -0.5701 -0.2067 -0.2982
 4073SOL    HW120997  11.583   2.501   6.456 -0.3772 -0.6757  0.2078
 4073SOL    HW220998  11.526   2.468   6.320 -1.0932  0.2355  0.2777
 4074SOL     OW20999   8.772   5.054   3.950  0.4871 -0.1499  0.2527
 4074SOL    HW121000   8.847   5.063   4.008  0.3483  1.3617  0.2244
 4074SOL    HW221001   8.764   5.138   3.906 -0.8903 -0.4618 -0.1633
 4075SOL     OW21002   4.869   1.452   9.432 -0.4473 -0.0097  0.7729
 4075SOL    HW121003   4.885   1.539   9.469  0.4620  0.2560 -0.1887
 4075SOL    HW221004   4.952   1.428   9.391 -1.3175 -0.4006 -0.8543
 4076SOL     OW21005   6.708   2.818   4.273  0.1426  0.2339 -0.2118
 4076SOL    HW121006   6.661   2.872   4.209  0.8335  0.0155 -0.9171
 4076SOL    HW221007   6.693   2.862   4.357 -1.0205  0.3651 -0.4672
 4077SOL     OW21008   4.830   8.360   4.492 -0.7344 -0.5433  0.1943
 4077SOL    HW121009   4.839   8.418   4.568 -0.0900  1.0894 -1.0603
 4077SOL    HW221010   4.752   8.393   4.446  0.8185  0.8061 -1.6607
 4078SOL     OW21011   2.570  11.299   7.883  0.7042  0.0775  0.8943
 4078SOL    HW121012   2.613  11.294   7.969  1.0262  0.1953  0.7424
 4078SOL    HW221013   2.519  11.218   7.878  0.7616  0.0213  1.1565
 4079SOL     OW21014   8.312   5.981  11.843  0.8214 -0.1796 -0.3445
 4079SOL    HW121015   8.294   5.894  11.809 -0.8725 -0.7887  1.8217
 4079SOL    HW221016   8.366   5.966  11.921  0.1143  0.6073  0.3294
 4080SOL     OW21017   7.744   3.908   7.899  0.1140  0.6538  0.3548
 4080SOL    HW121018   7.736   3.891   7.993  2.1386  2.5758  0.9731
 4080SOL    HW221019   7.680   3.978   7.882 -1.0731 -0.4760 -0.0038
 4081SOL     OW21020  10.496   2.979   2.227  0.2328  0.3642 -0.2398
 4081SOL    HW121021  10.560   2.922   2.184 -0.5743 -1.2074  0.5757
 4081SOL    HW221022  10.477   3.047   2.162  3.0479  1.1866 -0.3495
 4082SOL     OW21023   9.404   6.768   0.344  0.0467  0.1577  0.1935
 4082SOL    HW121024   9.499   6.763   0.352  0.1420 -1.1734 -1.2014
 4082SOL    HW221025   9.373   6.791   0.432  1.5694 -0.9096  1.0581
 4083SOL     OW21026  11.979  12.038   9.216 -0.3472  0.9121 -0.3219
 4083SOL    HW121027  12.027  11.967   9.175 -0.8070 -0.8090  1.9386
 4083SOL    HW221028  12.036  12.115   9.204  0.7641 -0.0683 -1.6865
 4084SOL     OW21029  11.918   4.913   5.769 -0.1785  0.0116  0.0808
 4084SOL    HW121030  11.912   4.897   5.675 -0.5134 -0.9762  0.2579
 4084SOL    HW221031  11.966   4.995   5.777  0.1935 -0.0985 -0.9395
 4085SOL     OW21032   6.888   9.109   3.333 -0.1031  0.3180  0.2453
 4085SOL    HW121033   6.958   9.173   3.342 -0.0471  0.2350  0.4048
 4085SOL    HW221034   6.830   9.146   3.266  1.2609 -0.6941 -1.5480
 4086SOL     OW21035  11.404   8.064  11.813 -0.0758  0.4660  0.1846
 4086SOL    HW121036  11.482   8.091  11.860  0.1835 -0.2204  0.1708
 4086SOL    HW221037  11.380   8.139  11.759  1.2925  0.2742 -0.7359
 4087SOL     OW21038  11.501  11.503   1.654 -0.1071 -0.2110  0.2821
 4087SOL    HW121039  11.541  11.533   1.736  1.2148  0.9530 -0.7476
 4087SOL    HW221040  11.573  11.501   1.591 -1.1051 -1.0601 -0.8869
 4088SOL     OW21041   4.734   5.435  10.659  0.0307  0.6167 -0.1376
 4088SOL    HW121042   4.664   5.372  10.645  0.2707  0.5822 -1.3210
 4088SOL    HW221043   4.766   5.416  10.747 -0.1955 -0.6233 -0.2977
 4089SOL     OW21044   4.747   2.302   4.710 -0.1614 -0.1045 -0.0343
 4089SOL    HW121045   4.733   2.382   4.660  0.9893  0.0890 -0.0839
 4089SOL    HW221046   4.808   2.328   4.780  0.1638 -0.9035 -0.0091
 4090SOL     OW21047   5.041   0.078   1.982 -0.1341  0.4928  0.2606
 4090SOL    HW121048   5.086   0.135   2.044 -0.2906 -0.5088  1.3295
 4090SOL    HW221049   5.008   0.006   2.035 -2.2517  0.7256 -0.6032
 4091SOL     OW21050   1.757   8.381   4.216  0.0337 -0.2544  0.4825
 4091SOL    HW121051   1.811   8.345   4.146 -1.2929 -0.0889 -0.6792
 4091SOL    HW221052   1.819   8.405   4.285  1.4318  0.0517 -0.8308
 4092SOL     OW21053   1.054   9.363   8.089  0.2122 -0.4949  0.4513
 4092SOL    HW121054   1.003   9.285   8.110 -0.9384  0.2485  0.5033
 4092SOL    HW221055   0.989   9.433   8.080  1.1698  0.3474 -0.1402
 4093SOL     OW21056   9.345  11.942   2.931  0.3187  0.3227 -0.2203
 4093SOL    HW121057   9.320  11.850   2.941 -0.6933  0.7260  1.2925
 4093SOL    HW221058   9.309  11.968   2.846  2.5364 -1.2143 -1.7673
 4094SOL     OW21059   6.507  10.381   5.091  0.3194 -0.3053  0.0413
 4094SOL    HW121060   6.498  10.396   4.997 -0.7151 -2.5361 -0.2870
 4094SOL    HW221061   6.458  10.301   5.107 -0.1246  0.3983  2.6310
 4095SOL     OW21062   7.806   1.650   8.877 -0.1890  0.1137  0.3322
 4095SOL    HW121063   7.853   1.572   8.906  1.1783  0.1212 -1.6522
 4095SOL    HW221064   7.807   1.709   8.952 -2.2028 -2.1164  2.2630
 4096SOL     OW21065   4.619   8.135   9.032  0.1302 -0.0919  0.4387
 4096SOL    HW121066   4.546   8.191   9.061 -0.8568 -1.2555  0.3013
 4096SOL    HW221067   4.617   8.141   8.937 -0.2554 -0.6910  0.4066
 4097SOL     OW21068  11.894   5.290   8.330  0.4289  0.0733  0.1971
 4097SOL    HW121069  11.960   5.351   8.296 -1.1420  1.6993 -0.0415
 4097SOL    HW221070  11.819   5.344   8.352 -0.6929 -1.6716  0.9254
 4098SOL     OW21071   1.958   0.311   7.602 -0.0064  1.0271 -0.2959
 4098SOL    HW121072   1.887   0.376   7.604 -1.1540 -0.1843  0.1365
 4098SOL    HW221073   1.957   0.278   7.512 -0.4812  0.5299 -0.1197
 4099SOL     OW21074  11.020   1.015   2.395  0.1008  0.2065 -0.3286
 4099SOL    HW121075  10.942   1.012   2.340 -0.7660  0.3495  0.8642
 4099SOL    HW221076  11.007   0.946   2.460  0.2157  1.2501  0.8436
 4100SOL     OW21077   0.160   2.297   4.374  0.0474  0.6573 -0.6043
 4100SOL    HW121078   0.194   2.321   4.460  1.5745  0.0295 -0.9938
 4100SOL    HW221079   0.138   2.204   4.382 -0.2240  0.7093 -0.7612
 4101SOL     OW21080   6.086   7.940  12.287 -0.2581  0.4408 -0.8087
 4101SOL    HW121081   6.110   7.882  12.215 -0.4426 -2.6456  1.3807
 4101SOL    HW221082   6.162   7.938  12.345 -1.9752 -1.7077  1.6245
 4102SOL     OW21083   8.718  11.772   2.668  0.0885  0.1183  0.5273
 4102SOL    HW121084   8.658  11.714   2.622  0.8371 -0.8794  0.7682
 4102SOL    HW221085   8.720  11.852   2.615  0.3879 -0.7315 -0.7964
 4103SOL     OW21086   7.091   0.623  10.367 -0.8154  0.0893 -0.0856
 4103SOL    HW121087   7.131   0.694  10.418 -2.4375 -0.3955  1.9835
 4103SOL    HW221088   7.091   0.548  10.426 -1.1044 -1.0501 -1.4798
 4104SOL     OW21089  12.214   5.965   9.517  0.3288 -0.1037 -0.2840
 4104SOL    HW121090  12.265   6.028   9.568 -1.2682 -0.0331  1.3740
 4104SOL    HW221091  12.146   6.018   9.475  0.2881 -0.4451 -0.6461
 4105SOL     OW21092  12.097   4.371   2.980 -0.0536 -0.0298  0.3071
 4105SOL    HW121093  12.074   4.402   3.067  1.1681 -0.0199  0.6378
 4105SOL    HW221094  12.190   4.390   2.971 -0.2457  0.3333 -1.1592
 4106SOL     OW21095   0.910   9.526  12.400  0.4524 -0.2498  0.0048
 4106SOL    HW121096   0.821   9.558  12.416  0.0710 -1.4101  0.3038
 4106SOL    HW221097   0.952   9.596  12.351 -0.6409  0.3010 -0.1758
 4107SOL     OW21098  12.351   4.517   3.006 -1.0074  0.6172  0.1279
 4107SOL    HW121099  12.376   4.554   2.922  0.5363 -0.7491 -0.0776
 4107SOL    HW221100  12.431   4.518   3.058 -0.2219 -3.9320 -0.5221
 4108SOL     OW21101  10.866   2.675   5.489 -0.0895  0.7022 -0.5744
 4108SOL    HW121102  10.923   2.680   5.413  0.5501 -1.2273 -0.2777
 4108SOL    HW221103  10.828   2.587   5.486 -0.7684  0.9058  0.8303
 4109SOL     OW21104  10.487   6.802   1.688  0.3858  0.3031 -0.5797
 4109SOL    HW121105  10.398   6.779   1.661 -0.3336  1.7052  0.4526
 4109SOL    HW221106  10.542   6.776   1.614 -0.9532  0.0387 -1.5301
 4110SOL     OW21107   7.967   1.046   1.556  0.3049  0.0621  0.7848
 4110SOL    HW121108   8.055   1.062   1.521  0.8125  0.8408  2.3099
 4110SOL    HW221109   7.908   1.073   1.486  1.2419 -1.9762 -0.9074
 4111SOL     OW21110   7.314   4.200  12.165 -0.4901 -0.4358 -0.1561
 4111SOL    HW121111   7.235   4.210  12.217 -0.2309 -0.5215  0.2557
 4111SOL    HW221112   7.355   4.286  12.164  0.6242 -0.9023  1.5949
 4112SOL     OW21113   9.567   9.624   8.536 -0.2292  0.0490 -0.1888
 4112SOL    HW121114   9.514   9.679   8.595 -0.2163  0.4075 -0.5113
 4112SOL    HW221115   9.503   9.569   8.491 -0.2399 -0.2177  0.1463
 4113SOL     OW21116   0.330   7.312  11.853 -0.0721  0.1087 -0.1204
 4113SOL    HW121117   0.349   7.402  11.824 -0.2068  0.5588  1.1257
 4113SOL    HW221118   0.354   7.257  11.778  1.5116  1.0483 -0.3550
 4114SOL     OW21119   5.755  12.105   3.128 -0.3545  0.0229  0.0553
 4114SOL    HW121120   5.801  12.022   3.137 -1.1796 -0.4848 -0.2717
 4114SOL    HW221121   5.670  12.090   3.169 -0.7002  0.5417 -0.4561
 4115SOL     OW21122   3.982  12.215  11.745  0.4600  0.1837  0.2409
 4115SOL    HW121123   3.968  12.127  11.780  2.1312 -1.2435 -2.3110
 4115SOL    HW221124   3.895  12.255  11.746 -0.2628 -1.2826  1.9172
 4116SOL     OW21125   2.074   2.252   1.709 -0.0391  0.5117  0.2141
 4116SOL    HW121126   2.080   2.298   1.625 -0.4095  0.7962  0.3450
 4116SOL    HW221127   2.133   2.177   1.699  0.7267  1.1254  0.0730
 4117SOL     OW21128   0.072  12.180   5.957  0.4612 -0.2240  0.0278
 4117SOL    HW121129  -0.013  12.224   5.948  0.0080 -0.5912  1.9679
 4117SOL    HW221130   0.127  12.218   5.889 -0.6763  1.4870  0.0130
 4118SOL     OW21131   0.821   8.712   6.944  0.3830  0.0989 -0.5873
 4118SOL    HW121132   0.801   8.794   6.990  1.0859  1.0993 -1.9740
 4118SOL    HW221133   0.871   8.660   7.007 -0.6804  0.4324  0.5528
 4119SOL     OW21134   6.398   0.683   8.742  0.1493  0.3177 -0.0147
 4119SOL    HW121135   6.372   0.598   8.778  1.2587  0.0142  0.0976
 4119SOL    HW221136   6.429   0.663   8.654 -1.2107  0.8658 -0.6645
 4120SOL     OW21137   4.770   7.422  10.780 -0.0280  0.1458 -0.2967
 4120SOL    HW121138   4.836   7.427  10.849  0.0295 -1.5106 -0.2026
 4120SOL    HW221139   4.754   7.514  10.755 -0.8131  0.8984  2.6021
 4121SOL     OW21140  10.769   3.222   9.303 -0.3143 -0.8200 -0.1459
 4121SOL    HW121141  10.860   3.251   9.308 -0.3133 -0.9387  0.5901
 4121SOL    HW221142  10.774   3.136   9.262 -0.1818 -0.4516 -0.9222
 4122SOL     OW21143  11.077   2.026   1.887 -0.0408 -0.7589  0.3518
 4122SOL    HW121144  11.157   2.079   1.882 -0.3002 -0.2958  0.9643
 4122SOL    HW221145  11.018   2.077   1.942 -0.1932 -1.8357  1.2130
 4123SOL     OW21146   8.384   0.216   3.864  0.0501  0.2325 -0.1205
 4123SOL    HW121147   8.372   0.194   3.772 -0.1937  1.3487 -0.3696
 4123SOL    HW221148   8.466   0.265   3.867  1.4158 -1.9509  0.6555
 4124SOL     OW21149   8.108   9.078  11.907  0.2213  0.5140  0.0730
 4124SOL    HW121150   8.165   9.001  11.912  1.7275  1.6414  0.9797
 4124SOL    HW221151   8.048   9.068  11.981 -2.3396 -1.7652 -2.0717
 4125SOL     OW21152  11.101   2.409   4.234  0.2560 -0.1184 -0.8480
 4125SOL    HW121153  11.075   2.488   4.282 -2.0835 -1.5498  0.3959
 4125SOL    HW221154  11.136   2.351   4.302 -2.3835 -1.8776 -0.8593
 4126SOL     OW21155  10.664   7.795   8.777 -0.5056  0.2601 -0.7366
 4126SOL    HW121156  10.711   7.847   8.843 -2.3010 -0.0572  0.8582
 4126SOL    HW221157  10.603   7.857   8.736  0.4804  0.4154 -2.0553
 4127SOL     OW21158   6.045   9.993   5.344 -0.0677  0.3708  0.3135
 4127SOL    HW121159   6.039   9.965   5.435 -1.9039 -1.2092 -0.2276
 4127SOL    HW221160   5.980  10.063   5.337 -0.5430 -0.0866  0.0488
 4128SOL     OW21161   4.634   1.895   6.380  0.0912 -0.0354 -0.6490
 4128SOL    HW121162   4.539   1.883   6.379  0.1254 -0.3123 -0.4967
 4128SOL    HW221163   4.665   1.839   6.450  0.2799  0.7303 -0.1077
 4129SOL     OW21164   5.764   4.329  11.711 -1.0881  0.1793  0.0448
 4129SOL    HW121165   5.714   4.411  11.707 -2.6543 -0.5330  2.4822
 4129SOL    HW221166   5.728   4.284  11.788  0.8739 -2.0530 -0.2585
 4130SOL     OW21167   9.104   5.657   3.908 -0.4770  0.1473 -0.3735
 4130SOL    HW121168   9.012   5.674   3.888 -1.0598 -0.2006  1.7377
 4130SOL    HW221169   9.149   5.737   3.882 -1.7155  1.1626  0.4697
 4131SOL     OW21170   8.296   5.247   6.767 -0.4554  0.0697  0.0586
 4131SOL    HW121171   8.219   5.304   6.770 -2.0543 -1.9247 -0.7301
 4131SOL    HW221172   8.266   5.165   6.807  0.6475 -1.3859 -1.9488
 4132SOL     OW21173   4.273   3.034  10.239  0.0950 -0.0099  0.5754
 4132SOL    HW121174   4.187   3.010  10.203  0.2399 -2.2886  1.5849
 4132SOL    HW221175   4.254   3.102  10.304 -1.2991 -1.9772  2.3503
 4133SOL     OW21176   8.634   0.938   3.432 -0.0254 -0.1356 -0.0251
 4133SOL    HW121177   8.562   0.883   3.402 -0.2451  0.2928 -0.2927
 4133SOL    HW221178   8.685   0.881   3.490 -0.9616 -0.2405  0.7198
 4134SOL     OW21179   6.277  12.038   3.368 -0.2819  0.1656  0.0647
 4134SOL    HW121180   6.243  11.949   3.362  3.0326 -1.3712  1.4924
 4134SOL    HW221181   6.277  12.057   3.462 -0.0604  1.2909 -0.1562
 4135SOL     OW21182   4.547   2.903  10.506  0.2816 -0.0417  0.6965
 4135SOL    HW121183   4.578   2.824  10.461  1.3322  0.0939  1.1415
 4135SOL    HW221184   4.514   2.959  10.436 -0.8756 -1.0359  0.4143
 4136SOL     OW21185   7.288  10.341   3.964  0.9568 -0.3517 -0.2261
 4136SOL    HW121186   7.209  10.376   3.923  0.9066  1.9048  1.5813
 4136SOL    HW221187   7.354  10.340   3.894  0.5693  2.2380 -0.7246
 4137SOL     OW21188   5.615  12.494   2.699 -0.0739  0.0344 -0.2080
 4137SOL    HW121189   5.630  12.400   2.690  0.5166  0.0411  0.5997
 4137SOL    HW221190   5.700  12.531   2.721 -0.8105  0.3039  2.7034
 4138SOL     OW21191   9.125   2.705   5.334  0.0591 -0.0566  0.0866
 4138SOL    HW121192   9.077   2.645   5.277 -0.1852 -0.0395  0.2719
 4138SOL    HW221193   9.213   2.709   5.297 -0.0136 -0.2829 -0.1098
 4139SOL     OW21194  12.181   8.513  11.799 -0.6962 -0.1513  0.4715
 4139SOL    HW121195  12.273   8.524  11.774 -1.0111 -1.8639 -1.6690
 4139SOL    HW221196  12.131   8.545  11.724 -1.8605 -0.2381  1.1796
 4140SOL     OW21197   8.614   3.061   2.739  0.5205  0.2660 -0.6138
 4140SOL    HW121198   8.539   3.026   2.691  0.6536  2.7910 -2.8824
 4140SOL    HW221199   8.689   3.043   2.682  1.3910 -0.4185  0.6835
 4141SOL     OW21200   0.132   0.962   0.948  0.5584  0.2168 -0.3889
 4141SOL    HW121201   0.048   0.924   0.971  0.5663 -0.3171 -1.2146
 4141SOL    HW221202   0.130   0.970   0.853  2.0378 -1.2609 -0.5979
 4142SOL     OW21203   9.067   3.133   7.629 -0.3484  0.5016 -0.0180
 4142SOL    HW121204   9.118   3.109   7.707 -0.9786  2.0840  0.9384
 4142SOL    HW221205   9.128   3.181   7.574 -0.7600  2.5918  1.2287
 4143SOL     OW21206   1.987   8.470   2.714 -0.2467 -0.2924 -0.2277
 4143SOL    HW121207   1.959   8.379   2.698 -2.8719  0.7557 -2.3980
 4143SOL    HW221208   2.022   8.499   2.630 -0.9752  1.1762 -0.0477
 4144SOL     OW21209   0.796   7.466  10.627  0.2510 -0.5759  0.0246
 4144SOL    HW121210   0.713   7.438  10.589  0.4196 -2.0932  0.7204
 4144SOL    HW221211   0.781   7.465  10.721  0.2720  1.7648  0.1123
 4145SOL     OW21212  12.081   3.188   5.399  0.0288 -0.1891  0.5133
 4145SOL    HW121213  12.129   3.134   5.461  1.2703 -1.0559 -1.1208
 4145SOL    HW221214  12.128   3.272   5.400  0.7863 -0.5892 -0.0812
 4146SOL     OW21215   4.262   2.410   6.420 -0.1876 -0.6426  0.5562
 4146SOL    HW121216   4.353   2.416   6.393  0.2264 -2.7696  1.2763
 4146SOL    HW221217   4.264   2.422   6.515 -0.8097  0.2986  0.4687
 4147SOL     OW21218   5.425  12.488   2.446  0.0962 -0.2209  0.2735
 4147SOL    HW121219   5.448  12.479   2.538 -1.7273 -1.8991  0.6320
 4147SOL    HW221220   5.423  12.398   2.412  1.2982  0.3879 -1.5845
 4148SOL     OW21221   9.273   5.020   0.687  0.3880 -0.2554  0.1141
 4148SOL    HW121222   9.221   4.940   0.700 -0.0312 -0.4250 -2.2179
 4148SOL    HW221223   9.364   4.990   0.689  0.2327 -0.8330 -0.7759
 4149SOL     OW21224   2.976  10.720  11.219  0.1004 -0.5557 -0.1445
 4149SOL    HW121225   2.928  10.666  11.283  0.9884 -1.4880 -0.2375
 4149SOL    HW221226   3.055  10.670  11.201  0.9560  0.7996 -0.2489
 4150SOL     OW21227   4.168   9.778   7.684  0.1150 -0.3180 -0.3585
 4150SOL    HW121228   4.153   9.699   7.633  0.5867  0.4983 -1.8147
 4150SOL    HW221229   4.254   9.810   7.656  0.1756  0.4243  0.5921
 4151SOL     OW21230   7.019   0.537   0.704 -0.2758  0.0943 -0.1362
 4151SOL    HW121231   6.928   0.519   0.684  0.5335 -2.5653 -1.9308
 4151SOL    HW221232   7.048   0.598   0.637 -0.2946 -0.4810 -0.6735
 4152SOL     OW21233   0.891   9.790  11.820  0.0696  0.5528 -0.7996
 4152SOL    HW121234   0.975   9.830  11.842  0.2006  0.0692 -0.4133
 4152SOL    HW221235   0.886   9.711  11.873 -0.6373  0.5763 -0.8119
 4153SOL     OW21236   3.796   1.082   8.738  0.9171 -0.6534  0.0050
 4153SOL    HW121237   3.844   1.090   8.656  0.6254 -2.1713 -0.3501
 4153SOL    HW221238   3.751   0.998   8.731 -0.2785 -0.1365  1.1180
 4154SOL     OW21239   5.960   6.183   2.667 -0.5185  0.0788 -0.3629
 4154SOL    HW121240   5.939   6.245   2.737 -1.4580 -1.1913  0.5441
 4154SOL    HW221241   5.889   6.194   2.604 -0.7184 -0.0982 -0.1728
 4155SOL     OW21242   8.874   3.878  12.003 -0.7255 -0.2921 -0.0119
 4155SOL    HW121243   8.928   3.812  11.960 -1.3439 -1.1438  0.4896
 4155SOL    HW221244   8.827   3.922  11.932 -0.8151 -0.8500 -0.2976
 4156SOL     OW21245   1.511   1.566   1.527 -0.1687  0.4492  0.1836
 4156SOL    HW121246   1.582   1.567   1.463 -0.3725  0.0232 -0.0611
 4156SOL    HW221247   1.432   1.553   1.474 -0.2749 -0.5764  0.5670
 4157SOL     OW21248   0.880   5.748   0.867  0.1983  0.2988  0.3590
 4157SOL    HW121249   0.930   5.689   0.810 -0.2122  0.2988 -0.0023
 4157SOL    HW221250   0.851   5.818   0.809 -0.4662  0.1508  0.5024
 4158SOL     OW21251   3.053   1.038  12.226 -0.1305  0.0189 -0.1623
 4158SOL    HW121252   3.126   0.979  12.209  0.4257  0.5684  0.2868
 4158SOL    HW221253   3.063   1.062  12.318 -0.9729 -0.0270 -0.0479
 4159SOL     OW21254  11.929   4.221   0.783  0.1541 -0.9317 -0.8557
 4159SOL    HW121255  11.982   4.299   0.797  1.4452 -1.7113 -1.1853
 4159SOL    HW221256  11.987   4.162   0.734 -0.9527 -1.9080 -1.0272
 4160SOL     OW21257   1.160   5.499   4.688 -0.0986  0.5240  0.1671
 4160SOL    HW121258   1.100   5.464   4.622 -1.1317  2.1349  0.1899
 4160SOL    HW221259   1.247   5.478   4.654 -0.6363 -0.7440 -0.5167
 4161SOL     OW21260   8.041  11.368   3.868  0.1424 -0.1630 -0.2247
 4161SOL    HW121261   8.122  11.318   3.856  0.4302  0.1130  0.5077
 4161SOL    HW221262   7.987  11.314   3.926  0.3318  0.2224  0.3221
 4162SOL     OW21263  11.966   1.823   2.776 -0.1282  0.1606 -0.5079
 4162SOL    HW121264  11.878   1.861   2.777 -0.2126  0.0551 -1.8945
 4162SOL    HW221265  12.006   1.858   2.697  1.0786  0.1827  0.0983
 4163SOL     OW21266  11.282   4.891  12.388  0.4696  0.0873  0.0413
 4163SOL    HW121267  11.264   4.816  12.332  0.6948  0.6254 -0.7606
 4163SOL    HW221268  11.272   4.857  12.477 -2.4944 -0.1756 -0.2880
 4164SOL     OW21269   5.303   5.235   1.966 -0.7003  0.0690  0.3192
 4164SOL    HW121270   5.392   5.235   2.001 -0.1065 -0.5131 -1.1145
 4164SOL    HW221271   5.283   5.326   1.947  0.5051 -0.0089 -1.5085
 4165SOL     OW21272   2.829   0.127   4.713  0.3900  0.6504 -0.1254
 4165SOL    HW121273   2.834   0.220   4.737  1.8031  1.2664 -2.5063
 4165SOL    HW221274   2.849   0.081   4.794 -1.9466  2.3213  1.5359
 4166SOL     OW21275  11.893  11.978   7.853 -0.0765  0.5066 -0.0234
 4166SOL    HW121276  11.931  11.899   7.892  0.1004 -0.1647 -1.4973
 4166SOL    HW221277  11.933  12.050   7.901 -0.1750 -0.2858  1.2906
 4167SOL     OW21278  11.866   0.454  11.483  0.1100 -0.2200  0.1731
 4167SOL    HW121279  11.940   0.392  11.488  0.1039 -0.3181 -0.8159
 4167SOL    HW221280  11.905   0.535  11.450  0.0864  0.2701  1.3261
 4168SOL     OW21281   7.028   2.686   9.539 -0.0262  0.0619 -0.4362
 4168SOL    HW121282   6.949   2.711   9.586 -0.0954  1.4215 -1.2197
 4168SOL    HW221283   7.070   2.769   9.517  0.3299 -0.5509 -2.2037
 4169SOL     OW21284   7.213  11.201   0.728 -0.0899  0.0792 -0.2421
 4169SOL    HW121285   7.183  11.167   0.643 -0.2686 -0.6299  0.1014
 4169SOL    HW221286   7.298  11.160   0.742  0.5574  1.2036 -0.6727
 4170SOL     OW21287   5.525   4.262   6.814  0.5096  0.2619 -0.0835
 4170SOL    HW121288   5.475   4.330   6.769 -0.4631 -0.5279 -0.2123
 4170SOL    HW221289   5.511   4.279   6.907 -1.7526 -1.1563 -0.0858
 4171SOL     OW21290   3.521   5.915   8.916 -0.0113 -0.0521 -0.2399
 4171SOL    HW121291   3.462   5.949   8.983 -0.3651 -1.0120 -0.0536
 4171SOL    HW221292   3.463   5.880   8.848  0.3164 -1.5496  0.2220
 4172SOL     OW21293   4.216   1.744  11.033  0.2157 -0.0642 -0.1971
 4172SOL    HW121294   4.124   1.752  11.005  0.4507 -1.0337 -1.3594
 4172SOL    HW221295   4.229   1.649  11.041  0.1737  0.1223  3.3895
 4173SOL     OW21296   8.389   5.235   6.489  0.6622 -0.0781 -0.3987
 4173SOL    HW121297   8.479   5.204   6.484  0.2828 -1.0002 -2.0884
 4173SOL    HW221298   8.366   5.226   6.582  1.8264 -1.2178 -0.1914
 4174SOL     OW21299  11.776   8.583   7.566  0.1408  0.5167 -0.4580
 4174SOL    HW121300  11.871   8.585   7.574  0.1154 -1.3784  0.7283
 4174SOL    HW221301  11.758   8.626   7.482  1.9922  1.1617 -0.5640
 4175SOL     OW21302   7.973   8.358   3.125  0.0222 -0.1292 -0.1752
 4175SOL    HW121303   7.891   8.311   3.135 -0.3798  0.1291 -1.9554
 4175SOL    HW221304   8.039   8.289   3.118 -0.3157 -0.4054 -0.7687
 4176SOL     OW21305   1.217   4.446   0.964 -0.1163  0.0159 -0.8840
 4176SOL    HW121306   1.301   4.441   1.010 -1.1243 -0.9092  0.9693
 4176SOL    HW221307   1.232   4.507   0.892  1.8688  0.6117 -0.0093
 4177SOL     OW21308   1.846   8.533   1.926 -0.6330  0.1801 -0.5498
 4177SOL    HW121309   1.919   8.472   1.934 -0.8804  0.0953  1.9600
 4177SOL    HW221310   1.888   8.618   1.911  0.0704  0.1681  1.0515
 4178SOL     OW21311   5.281  10.035  11.926  0.0487 -0.1389 -0.0511
 4178SOL    HW121312   5.374  10.025  11.944  0.4642 -3.6965 -2.8976
 4178SOL    HW221313   5.237   9.980  11.991  0.2374 -0.8542 -0.5171
 4179SOL     OW21314   0.987   7.877  11.969 -0.0556  0.7026  0.3767
 4179SOL    HW121315   1.080   7.883  11.990 -0.0988  0.0759  0.7920
 4179SOL    HW221316   0.985   7.849  11.877  0.1338  5.0750 -1.1815
 4180SOL     OW21317   0.532   1.067   4.144  0.2314  0.0143 -0.4033
 4180SOL    HW121318   0.487   0.983   4.157 -0.8286  0.6011 -0.2204
 4180SOL    HW221319   0.476   1.132   4.187  1.5109  0.7136  0.2744
 4181SOL     OW21320   0.562   3.561   1.854  0.7425 -0.0516  0.2554
 4181SOL    HW121321   0.516   3.644   1.838 -1.2412 -1.2844 -0.9811
 4181SOL    HW221322   0.637   3.585   1.908  1.3471  2.8358 -1.5998
 4182SOL     OW21323  10.490  10.083   4.538  0.0301  0.4029 -0.5058
 4182SOL    HW121324  10.461  10.004   4.583 -1.6744  2.0555  1.4684
 4182SOL    HW221325  10.427  10.095   4.467 -0.3401  0.5653 -0.1489
 4183SOL     OW21326  10.987   2.335   7.639  0.0036  0.5423 -0.7669
 4183SOL    HW121327  11.064   2.387   7.659  0.0027  0.5137 -0.6896
 4183SOL    HW221328  10.964   2.361   7.550 -0.4114  1.1867 -0.4769
 4184SOL     OW21329  11.691   3.007   8.297  0.2071 -0.2737 -0.1086
 4184SOL    HW121330  11.688   2.925   8.248 -1.1134  0.1852 -0.8568
 4184SOL    HW221331  11.715   2.981   8.386 -0.4923 -1.5183 -0.2589
 4185SOL     OW21332   1.910   3.275   2.017 -0.1549 -0.4013  0.0539
 4185SOL    HW121333   1.882   3.209   2.081  2.6968 -2.0875 -0.2788
 4185SOL    HW221334   1.960   3.338   2.069  0.9747 -1.0156 -0.2569
 4186SOL     OW21335   1.035   4.854   5.806  0.0003  0.3185  0.0377
 4186SOL    HW121336   1.051   4.820   5.894 -0.3436  0.8056  0.2924
 4186SOL    HW221337   1.084   4.796   5.748 -0.6386 -0.6670  0.4554
 4187SOL     OW21338   1.860   7.763   5.931  0.0380 -0.5646 -0.3924
 4187SOL    HW121339   1.844   7.832   5.996  1.0651 -1.5150  0.9104
 4187SOL    HW221340   1.829   7.801   5.849  0.1722  1.2846  0.3560
 4188SOL     OW21341   6.536  11.493  12.144  0.1660 -0.6878 -0.0548
 4188SOL    HW121342   6.573  11.518  12.059 -0.5561  0.2334 -0.1101
 4188SOL    HW221343   6.453  11.452  12.122  0.6290 -1.7752  0.1385
 4189SOL     OW21344   1.921   8.162   6.449  0.0185 -0.3158 -0.2032
 4189SOL    HW121345   1.963   8.078   6.430  0.9164  0.3691 -1.4064
 4189SOL    HW221346   1.969   8.196   6.525  1.1988  0.1158 -1.1064
 4190SOL     OW21347   4.603   3.366   5.923 -0.1809 -0.3483 -1.1035
 4190SOL    HW121348   4.543   3.345   5.851  1.1714 -2.1110 -1.8260
 4190SOL    HW221349   4.688   3.377   5.880  0.1270  1.6837 -0.0724
 4191SOL     OW21350  10.773   4.428  10.473  0.3122 -0.0253  0.1970
 4191SOL    HW121351  10.854   4.474  10.454  0.4052 -0.4722 -0.5511
 4191SOL    HW221352  10.800   4.339  10.494  0.0229 -0.1618 -0.0012
 4192SOL     OW21353   5.130   3.147  12.400  0.2850 -0.4242 -0.7443
 4192SOL    HW121354   5.196   3.163  12.333 -0.1964  0.6536 -0.9848
 4192SOL    HW221355   5.104   3.235  12.429 -3.7780 -0.5108 -3.3673
 4193SOL     OW21356   6.578   0.834   7.967  0.5155 -0.3939 -0.0131
 4193SOL    HW121357   6.531   0.916   7.981  1.2249  0.2238 -1.1452
 4193SOL    HW221358   6.514   0.777   7.924 -0.0601 -0.5581  1.0075
 4194SOL     OW21359   4.530  10.940   2.914 -0.0032 -0.3723  0.1756
 4194SOL    HW121360   4.480  10.904   2.841 -1.9143 -0.4189  1.4450
 4194SOL    HW221361   4.620  10.910   2.899 -0.6380 -1.6218 -1.3344
 4195SOL     OW21362   9.180  10.580   1.273 -0.1030 -0.0800  0.3456
 4195SOL    HW121363   9.171  10.509   1.337 -0.3094 -0.9831 -0.6522
 4195SOL    HW221364   9.130  10.550   1.197 -2.1642  2.1658  0.7100
 4196SOL     OW21365   8.519   5.911  10.524 -0.5451 -0.2158  0.2238
 4196SOL    HW121366   8.484   5.841  10.578  0.1313  0.7728  2.0215
 4196SOL    HW221367   8.460   5.985  10.539 -0.1289  0.1884 -0.0875
 4197SOL     OW21368  10.593   3.588   9.443 -0.4929 -0.3922  0.1785
 4197SOL    HW121369  10.575   3.506   9.397  0.7612 -0.6381  0.0860
 4197SOL    HW221370  10.507   3.618   9.473 -1.3541 -0.3146 -2.1385
 4198SOL     OW21371   8.443  12.536   1.463  0.3346 -0.2866  0.1070
 4198SOL    HW121372   8.429  12.587   1.543 -2.3443 -3.2931  1.8024
 4198SOL    HW221373   8.383  12.575   1.399 -1.6271 -1.1267  1.3501
 4199SOL     OW21374   5.052   7.200   5.847  0.0150 -0.4928  0.2640
 4199SOL    HW121375   5.075   7.159   5.763 -0.5617  1.3406 -0.8484
 4199SOL    HW221376   5.079   7.291   5.837 -0.4771 -0.1335  1.9308
 4200SOL     OW21377   4.379   5.353   0.293 -0.1509 -0.0043  0.1797
 4200SOL    HW121378   4.294   5.397   0.297 -0.6817 -1.0771  0.9519
 4200SOL    HW221379   4.399   5.330   0.384 -0.7169 -2.8720 -0.3300
 4201SOL     OW21380   5.240   1.471  10.219 -0.8073  0.0102  0.4331
 4201SOL    HW121381   5.184   1.526  10.273  1.3554  1.6095  1.1827
 4201SOL    HW221382   5.224   1.500  10.130 -1.4259  0.1978  0.6038
 4202SOL     OW21383   0.460  10.178   1.284  0.0344  0.3740  0.2224
 4202SOL    HW121384   0.455  10.141   1.196  0.5747  0.5237  0.1244
 4202SOL    HW221385   0.549  10.214   1.289 -0.0666  0.5455  0.7553
 4203SOL     OW21386   0.084   8.697   2.052 -0.1508  0.1072 -0.4476
 4203SOL    HW121387   0.144   8.766   2.025 -0.8861  0.5914 -0.8787
 4203SOL    HW221388   0.072   8.643   1.973  0.4017 -0.5084 -0.1217
 4204SOL     OW21389   6.108   3.429  10.400 -0.3141  0.2579 -0.2842
 4204SOL    HW121390   6.192   3.384  10.389 -1.3306 -1.5310 -1.3134
 4204SOL    HW221391   6.129   3.507  10.451  1.7279 -0.8635  0.7247
 4205SOL     OW21392   1.492   5.955  11.692  0.1115 -0.2127 -0.2401
 4205SOL    HW121393   1.492   6.047  11.718  2.2654  0.1116 -1.1282
 4205SOL    HW221394   1.461   5.908  11.770 -2.0081  1.2926 -0.1116
 4206SOL     OW21395  10.231   6.745   5.563  0.0994 -0.1253  0.3664
 4206SOL    HW121396  10.232   6.655   5.529 -0.3196 -0.5006  1.3338
 4206SOL    HW221397  10.192   6.738   5.650  0.9010  0.8642  0.8243
 4207SOL     OW21398   6.671   0.100   1.423  0.0669  0.4346  0.1314
 4207SOL    HW121399   6.692   0.136   1.509 -0.7873 -0.2980  0.6569
 4207SOL    HW221400   6.578   0.118   1.411  0.1729  0.5262 -0.6542
 4208SOL     OW21401   5.531   0.542   4.660 -0.3627 -0.4802 -0.0004
 4208SOL    HW121402   5.458   0.541   4.597  0.7739  1.5067 -1.4587
 4208SOL    HW221403   5.608   0.560   4.607  0.4995  2.5044  2.0172
 4209SOL     OW21404   7.539   0.953   7.926 -0.0617  0.4522 -0.0006
 4209SOL    HW121405   7.481   0.981   7.855 -0.0004  1.0531  0.1833
 4209SOL    HW221406   7.514   1.006   8.001 -1.3355 -1.4234  0.9681
 4210SOL     OW21407  12.114   5.646   3.861  0.4409 -0.4605 -0.4025
 4210SOL    HW121408  12.149   5.731   3.836  0.0620 -0.5501 -1.2869
 4210SOL    HW221409  12.098   5.653   3.955  2.3818 -0.2742 -0.0427
 4211SOL     OW21410  11.474   2.641   0.960 -0.1592  0.0800  0.1134
 4211SOL    HW121411  11.380   2.621   0.966 -0.2060  0.5501  1.2484
 4211SOL    HW221412  11.500   2.659   1.051  1.6332 -2.6320  0.2607
 4212SOL     OW21413   3.954   7.720  11.452 -0.4406 -0.0533  0.0138
 4212SOL    HW121414   3.897   7.671  11.392  0.3924  0.5890 -1.3639
 4212SOL    HW221415   3.937   7.812  11.431  0.0100  0.1818  0.6462
 4213SOL     OW21416  12.341   3.500   9.456  0.1580  0.4853  0.7672
 4213SOL    HW121417  12.279   3.456   9.515  0.9411 -0.5980  0.8080
 4213SOL    HW221418  12.424   3.500   9.505  1.7575 -3.4651 -1.4836
 4214SOL     OW21419  11.060   2.001   1.067 -0.3050  0.2543  0.4834
 4214SOL    HW121420  10.999   1.980   1.138 -1.1634 -0.5387 -0.4748
 4214SOL    HW221421  11.057   1.926   1.009 -1.8947  2.0701 -1.9587
 4215SOL     OW21422   3.503   4.460   4.670  0.2348 -0.3474 -0.4749
 4215SOL    HW121423   3.454   4.453   4.588  1.9883 -2.9526 -1.4065
 4215SOL    HW221424   3.461   4.397   4.729  0.8282 -0.6605 -0.3834
 4216SOL     OW21425   5.183   7.142   1.953  0.4640  0.3617  0.0400
 4216SOL    HW121426   5.257   7.202   1.944  1.6751 -1.3144 -2.0391
 4216SOL    HW221427   5.170   7.105   1.866 -0.9130 -1.5929  0.9818
 4217SOL     OW21428   6.475  10.145   9.420 -0.1864 -0.3978 -0.2534
 4217SOL    HW121429   6.509  10.145   9.331  0.7029  1.0222  0.0587
 4217SOL    HW221430   6.461  10.237   9.441  0.2713 -0.6541  1.3090
 4218SOL     OW21431   7.384   9.088  11.367  0.4583  0.1180  0.6046
 4218SOL    HW121432   7.368   9.156  11.433  0.8055 -0.5788  1.4309
 4218SOL    HW221433   7.333   9.013  11.398 -0.4892  0.1981 -0.6685
 4219SOL     OW21434   6.452  11.118   4.555 -0.5803  0.3073  0.5029
 4219SOL    HW121435   6.391  11.050   4.584 -0.6056  0.6661  1.2946
 4219SOL    HW221436   6.402  11.169   4.491 -0.1381 -1.2255 -1.1732
 4220SOL     OW21437   4.165   6.034   6.070  0.1101 -0.1028 -0.7663
 4220SOL    HW121438   4.195   6.001   6.154 -0.9406 -0.5975 -0.5681
 4220SOL    HW221439   4.232   6.098   6.043  0.2741  0.3270  0.6043
 4221SOL     OW21440   0.343  10.558   9.118  0.3263 -0.8395  0.0791
 4221SOL    HW121441   0.285  10.568   9.043  1.8942 -0.0827 -1.0788
 4221SOL    HW221442   0.345  10.464   9.135  1.1096 -1.2049 -1.8300
 4222SOL     OW21443   3.833   5.457  10.037 -0.2655 -0.4476  0.2088
 4222SOL    HW121444   3.767   5.522  10.012  1.1270  0.8308 -0.2718
 4222SOL    HW221445   3.809   5.432  10.126 -1.6263 -0.3305 -0.1005
 4223SOL     OW21446   2.500   8.655   0.253 -0.1333 -0.2377  0.1737
 4223SOL    HW121447   2.479   8.638   0.162  0.1246 -0.4783  0.1578
 4223SOL    HW221448   2.524   8.569   0.289 -1.3873 -0.3715  0.7790
 4224SOL     OW21449   3.176   7.519  11.557 -0.2425  0.5379  0.1059
 4224SOL    HW121450   3.153   7.536  11.466  0.5543  1.4599  0.0527
 4224SOL    HW221451   3.150   7.599  11.603 -3.4727 -1.0369  1.2873
 4225SOL     OW21452  10.931   6.728   6.056 -0.1887 -1.0598  0.9245
 4225SOL    HW121453  10.849   6.688   6.027 -0.6151  0.0222  0.6033
 4225SOL    HW221454  10.934   6.712   6.150 -0.7012 -1.2206  0.9157
 4226SOL     OW21455   9.677   3.002   3.180 -0.1468 -0.0994  0.1075
 4226SOL    HW121456   9.590   2.982   3.146 -0.1777 -1.2949  0.8466
 4226SOL    HW221457   9.662   3.022   3.272  0.4695 -1.3850  0.5070
 4227SOL     OW21458   7.335   3.151   9.749 -0.7214 -1.0360 -0.3398
 4227SOL    HW121459   7.331   3.101   9.830 -0.5577  0.2192  0.4562
 4227SOL    HW221460   7.427   3.148   9.724 -0.0441  1.5954  1.4997
 4228SOL     OW21461   5.936  10.236  10.751 -0.0421  0.4899  0.0326
 4228SOL    HW121462   6.026  10.263  10.735  0.1931 -0.2801  0.0597
 4228SOL    HW221463   5.920  10.262  10.842  0.1943  0.4949  0.0735
 4229SOL     OW21464   7.853   8.277  10.719  0.4166 -0.1833  0.2227
 4229SOL    HW121465   7.866   8.327  10.800 -0.3182 -0.6730  0.6552
 4229SOL    HW221466   7.791   8.208  10.743  0.7664 -0.7959 -0.5725
 4230SOL     OW21467   4.725   3.500   3.291 -0.8848  0.6322 -0.0842
 4230SOL    HW121468   4.648   3.448   3.314 -0.3591 -0.9009 -1.6084
 4230SOL    HW221469   4.730   3.494   3.195  1.1970  0.6094 -0.0104
 4231SOL     OW21470   6.377   8.084   7.950  0.0626 -0.0174 -0.3934
 4231SOL    HW121471   6.374   8.180   7.950 -1.6105 -0.0376  0.0548
 4231SOL    HW221472   6.340   8.059   7.866  3.1992 -0.3069 -1.8374
 4232SOL     OW21473   7.620   0.410   2.278 -0.5006  0.0398  0.8363
 4232SOL    HW121474   7.538   0.453   2.251 -1.1619 -1.8821 -0.4564
 4232SOL    HW221475   7.617   0.411   2.373  0.8531  5.1741  1.1243
 4233SOL     OW21476  12.467   3.241   3.414 -0.0075  0.5710  0.0250
 4233SOL    HW121477  12.418   3.317   3.444 -0.2288  0.5211 -0.2040
 4233SOL    HW221478  12.417   3.208   3.340  0.4546  0.6051 -0.3088
 4234SOL     OW21479  11.568   0.744   5.080  0.3224 -0.0928  0.1921
 4234SOL    HW121480  11.583   0.726   5.173 -0.2167  0.7716  0.4594
 4234SOL    HW221481  11.631   0.812   5.059 -0.0156  0.1955  0.1035
 4235SOL     OW21482   7.775  11.161   0.932 -0.0035 -0.2916 -0.3582
 4235SOL    HW121483   7.779  11.249   0.968 -1.4309 -0.3711  0.0370
 4235SOL    HW221484   7.711  11.167   0.861 -0.2664 -1.0601 -0.1891
 4236SOL     OW21485   9.800   2.014   6.118 -0.3920  0.8234  0.3430
 4236SOL    HW121486   9.826   2.089   6.065  0.2256  1.4362  1.4730
 4236SOL    HW221487   9.734   2.048   6.177 -0.8344  0.2250  0.1992
 4237SOL     OW21488   3.031   5.005   0.345  0.3249  0.1855 -0.6855
 4237SOL    HW121489   2.940   5.014   0.317 -0.6783 -0.0108  2.1886
 4237SOL    HW221490   3.076   4.968   0.269 -2.3188 -1.2250 -1.6925
 4238SOL     OW21491   5.639  11.646   9.469 -0.5193  0.0726 -0.2228
 4238SOL    HW121492   5.639  11.736   9.435 -0.8007  0.3177  0.3933
 4238SOL    HW221493   5.634  11.591   9.392  0.1465  0.5791 -0.6376
 4239SOL     OW21494   1.135   0.408   5.228  0.8231 -0.1607  0.3413
 4239SOL    HW121495   1.170   0.496   5.213  0.9960  0.0679  1.9003
 4239SOL    HW221496   1.061   0.401   5.167  0.0496  1.5313  1.0082
 4240SOL     OW21497   6.104   5.690   7.266  0.4044  0.3473  0.5640
 4240SOL    HW121498   6.198   5.696   7.252  0.5725 -0.7770  1.0975
 4240SOL    HW221499   6.094   5.669   7.359 -0.1913 -2.3819 -0.0046
 4241SOL     OW21500   3.523   0.718  11.888 -0.3191 -0.3249  0.1643
 4241SOL    HW121501   3.443   0.679  11.923 -0.8615  0.2180 -0.4426
 4241SOL    HW221502   3.517   0.811  11.911 -0.0129 -0.2228 -0.1536
 4242SOL     OW21503   3.052   5.742  12.049 -0.0093  0.4262 -1.0265
 4242SOL    HW121504   3.093   5.828  12.040  0.5879  0.1211 -1.2345
 4242SOL    HW221505   3.028   5.717  11.960 -0.1368  0.3534 -0.9718
 4243SOL     OW21506   7.546   7.714   0.291  0.3188 -0.5184  0.3557
 4243SOL    HW121507   7.553   7.800   0.332 -2.0157  0.3434 -0.9049
 4243SOL    HW221508   7.485   7.666   0.347 -2.1393  0.3458 -1.4187
 4244SOL     OW21509   3.321   1.489   2.162 -0.2755  0.4218  0.3340
 4244SOL    HW121510   3.261   1.515   2.093 -0.0722  0.2152  0.0743
 4244SOL    HW221511   3.337   1.396   2.146  1.6575  0.9002 -0.8182
 4245SOL     OW21512  12.280  10.104  10.505  0.6727  0.3379 -0.0124
 4245SOL    HW121513  12.326  10.020  10.498  1.3268  0.5843  1.0393
 4245SOL    HW221514  12.257  10.126  10.415 -0.4658 -1.4687 -0.2108
 4246SOL     OW21515   3.887   2.946   4.011  0.0070 -0.1901 -0.2561
 4246SOL    HW121516   3.901   3.020   4.071  0.2772 -0.6828  0.3029
 4246SOL    HW221517   3.865   2.986   3.927 -0.3647  0.5187  0.1724
 4247SOL     OW21518   6.280   9.575   6.778  0.3375  0.3243 -0.4412
 4247SOL    HW121519   6.314   9.498   6.733 -0.0193  0.5896 -1.1770
 4247SOL    HW221520   6.241   9.541   6.858  0.2503 -0.2526 -0.7272
 4248SOL     OW21521   2.175   4.431   1.766 -0.0776  0.5836 -0.4799
 4248SOL    HW121522   2.175   4.337   1.786  0.3777  1.1273  2.6007
 4248SOL    HW221523   2.267   4.455   1.762 -0.1773  1.1848  0.5344
 4249SOL     OW21524   5.881   1.964   7.917 -0.2557  0.1187  0.4105
 4249SOL    HW121525   5.815   1.954   7.848  1.0330 -0.7337 -0.7427
 4249SOL    HW221526   5.920   1.877   7.925  0.6795  0.5952  1.1290
 4250SOL     OW21527   2.278   3.716   1.575 -0.6067 -0.0411  0.1961
 4250SOL    HW121528   2.223   3.653   1.529 -1.8587  1.3717 -0.3581
 4250SOL    HW221529   2.216   3.783   1.605  0.7041  1.1316  0.3628
 4251SOL     OW21530   9.277   8.557   3.838  0.5690  0.9813  0.4187
 4251SOL    HW121531   9.320   8.627   3.790  0.2882  1.4108  0.7884
 4251SOL    HW221532   9.306   8.569   3.929 -0.0267  1.0374  0.6029
 4252SOL     OW21533   2.110   8.679   8.958 -0.0415  0.2760  0.1366
 4252SOL    HW121534   2.090   8.764   8.997 -1.7151  0.8137 -1.7084
 4252SOL    HW221535   2.035   8.660   8.902  0.8897 -1.8154 -0.5094
 4253SOL     OW21536   7.400   9.614   8.116 -0.6222 -0.2643 -0.6768
 4253SOL    HW121537   7.348   9.564   8.179  1.3011 -0.0356  1.2019
 4253SOL    HW221538   7.430   9.549   8.053 -0.1706 -1.0770  0.3446
 4254SOL     OW21539   6.848   9.446  11.420  0.0757 -0.2960 -0.0171
 4254SOL    HW121540   6.940   9.425  11.408 -0.2021 -1.7527  0.2768
 4254SOL    HW221541   6.816   9.469  11.333  1.0103  1.5994  0.0836
 4255SOL     OW21542   4.909   9.363   0.083 -0.5407 -0.1518  0.0642
 4255SOL    HW121543   4.959   9.421   0.140  1.8980 -1.7115 -0.3653
 4255SOL    HW221544   4.874   9.295   0.142 -0.5955 -0.0813  0.1132
 4256SOL     OW21545  10.344  11.377  10.270 -0.2315 -0.0407 -0.1260
 4256SOL    HW121546  10.372  11.447  10.329 -0.9305 -0.0261  0.1976
 4256SOL    HW221547  10.251  11.367  10.287 -0.5355  0.2356 -1.5182
 4257SOL     OW21548   9.761   5.522   7.266  0.7744 -0.1186  0.4331
 4257SOL    HW121549   9.675   5.532   7.224 -0.1948  1.9330  2.6703
 4257SOL    HW221550   9.776   5.427   7.267 -0.8538 -0.4579 -1.1045
 4258SOL     OW21551   6.241   8.888   9.397 -0.7283 -0.5572 -0.2113
 4258SOL    HW121552   6.327   8.910   9.434  0.0070 -1.1491 -1.4892
 4258SOL    HW221553   6.183   8.885   9.472  0.9884 -3.2024  1.2106
 4259SOL     OW21554   6.085   9.252   3.896 -0.2771 -0.0893  0.2150
 4259SOL    HW121555   6.125   9.339   3.887  1.5032 -0.7143  1.5020
 4259SOL    HW221556   6.147   9.193   3.852 -1.2464 -0.7688 -0.2631
 4260SOL     OW21557   4.644   7.516   6.126 -0.3620 -0.1240 -0.2564
 4260SOL    HW121558   4.612   7.431   6.096 -0.8370  0.8955 -2.9240
 4260SOL    HW221559   4.579   7.544   6.190 -2.5396 -0.0605 -2.3410
 4261SOL     OW21560   9.054   8.588   1.573 -1.0219 -0.1142  0.4023
 4261SOL    HW121561   9.025   8.529   1.503 -3.7595  0.8317  0.6435
 4261SOL    HW221562   9.106   8.532   1.631 -1.5648 -1.7222 -0.5925
 4262SOL     OW21563  10.680   6.170   5.691 -0.0112  0.0296  0.6763
 4262SOL    HW121564  10.758   6.114   5.688  0.6877  0.9798 -2.7636
 4262SOL    HW221565  10.617   6.127   5.633 -0.3515  1.5405 -0.1222
 4263SOL     OW21566   3.601   8.833   3.482  0.3462  0.2285 -0.2088
 4263SOL    HW121567   3.567   8.744   3.490 -1.3412  0.7174 -1.5595
 4263SOL    HW221568   3.651   8.832   3.401 -1.0062  0.8966 -1.0698
 4264SOL     OW21569   0.716   9.907   9.326 -0.4535 -0.1342  0.3267
 4264SOL    HW121570   0.705   9.832   9.268 -1.0257 -0.0986  0.3791
 4264SOL    HW221571   0.773   9.876   9.396 -1.0273 -0.6508  0.5708
 4265SOL     OW21572   5.516   9.656   3.787 -0.0657  0.0013 -0.3000
 4265SOL    HW121573   5.432   9.699   3.774 -1.1506 -1.8828  0.0856
 4265SOL    HW221574   5.556   9.654   3.700 -0.5983  0.5544 -0.5627
 4266SOL     OW21575   7.719   0.514  12.182 -0.3757  0.2990  0.1527
 4266SOL    HW121576   7.715   0.449  12.252  1.5844 -2.6146 -2.1753
 4266SOL    HW221577   7.653   0.485  12.119  0.5800  0.4665 -0.9633
 4267SOL     OW21578   3.993   3.209   6.798 -0.2999 -0.4568 -0.3038
 4267SOL    HW121579   4.055   3.276   6.826  0.7805 -1.6603  0.3416
 4267SOL    HW221580   4.005   3.138   6.862 -2.2102 -0.8169 -0.2934
 4268SOL     OW21581   2.691   2.028   8.979  0.2819  0.2940 -0.7957
 4268SOL    HW121582   2.686   2.032   9.074 -0.5650 -1.5578 -0.7245
 4268SOL    HW221583   2.632   2.098   8.949 -0.8261 -0.2410  0.0641
 4269SOL     OW21584   3.132   7.205   0.992  0.6926  0.5014  0.0542
 4269SOL    HW121585   3.049   7.186   1.036  0.6115  1.5461  0.3876
 4269SOL    HW221586   3.110   7.211   0.899  0.6864 -0.7584 -0.0412
 4270SOL     OW21587  10.560   5.799   1.212 -0.4897  0.7029  0.0257
 4270SOL    HW121588  10.496   5.811   1.143 -0.3616  1.0324 -0.0355
 4270SOL    HW221589  10.514   5.825   1.292 -0.1766  1.7377 -0.1205
 4271SOL     OW21590   7.166   3.913  10.284  0.5932  0.3868 -0.0605
 4271SOL    HW121591   7.099   3.915  10.353  0.0046  0.6423 -0.6341
 4271SOL    HW221592   7.159   3.825  10.247  1.5888 -0.1088  0.8430
 4272SOL     OW21593   5.996   9.045   6.934  0.5108  0.3744  0.0002
 4272SOL    HW121594   5.921   9.065   6.878 -0.8391 -0.0044  1.5833
 4272SOL    HW221595   6.011   8.951   6.921 -1.1498 -0.1981  1.7192
 4273SOL     OW21596   1.149   6.741   4.688 -0.2021 -0.3608 -0.1335
 4273SOL    HW121597   1.123   6.811   4.629  0.4868  0.5975  0.6737
 4273SOL    HW221598   1.111   6.766   4.773  2.6065  0.7061  0.9252
 4274SOL     OW21599   2.959   2.951   4.182 -0.2781 -0.1578  0.2086
 4274SOL    HW121600   2.930   2.868   4.221 -0.7538 -0.5791 -0.9994
 4274SOL    HW221601   2.921   3.018   4.239 -2.0028 -0.7399 -0.2096
 4275SOL     OW21602   6.757  11.963   4.971 -0.0261  0.1111  1.0266
 4275SOL    HW121603   6.704  11.938   5.047 -0.3908 -2.2906  0.0753
 4275SOL    HW221604   6.848  11.950   5.000 -0.0806  0.8149  1.5466
 4276SOL     OW21605   7.935   3.194  12.561  0.1171 -0.1857  0.7851
 4276SOL    HW121606   7.946   3.169  12.653  0.6454 -1.9586  0.2780
 4276SOL    HW221607   7.882   3.123  12.524 -0.8932  0.9899 -0.0863
 4277SOL     OW21608  10.039   2.944   3.855  1.2599  0.1955  0.6264
 4277SOL    HW121609  10.048   2.904   3.941  1.2697  1.7205  1.3755
 4277SOL    HW221610  10.022   2.871   3.795  3.5523 -1.1730  1.5272
 4278SOL     OW21611   8.516   3.091   3.151 -0.0261 -0.7079  0.2894
 4278SOL    HW121612   8.487   3.000   3.159 -2.4539 -0.1940 -1.6259
 4278SOL    HW221613   8.478   3.135   3.227 -1.6247 -0.7094 -0.4741
 4279SOL     OW21614   6.829  11.539   3.005  0.2800 -0.3744  0.6744
 4279SOL    HW121615   6.793  11.625   3.024  0.2119 -0.5126  1.2092
 4279SOL    HW221616   6.871  11.548   2.920  2.0230  0.7289  1.5897
 4280SOL     OW21617  11.914   0.434  11.818  0.2222 -0.1033 -0.2975
 4280SOL    HW121618  11.879   0.428  11.729 -1.6785 -0.4846  0.4367
 4280SOL    HW221619  11.871   0.511  11.855  0.9805  0.0330  0.3124
 4281SOL     OW21620  11.791  10.514   2.112  0.6438  0.0105 -0.4096
 4281SOL    HW121621  11.765  10.470   2.031 -1.4922 -0.0234  0.2420
 4281SOL    HW221622  11.794  10.445   2.178 -1.4999  0.5501  0.3454
 4282SOL     OW21623   5.888  10.106   8.154  0.2095  0.1516  0.2443
 4282SOL    HW121624   5.908  10.194   8.187 -0.5138 -0.0766  1.3708
 4282SOL    HW221625   5.913  10.109   8.062  1.5409  1.0966  0.5885
 4283SOL     OW21626   9.195   4.149   1.920  0.6656  0.6710  0.0291
 4283SOL    HW121627   9.281   4.190   1.932 -0.3127  2.2551  2.6227
 4283SOL    HW221628   9.137   4.223   1.899 -0.2612 -0.1976 -0.5167
 4284SOL     OW21629   6.557   7.890   9.776  0.0520 -0.0628 -0.0337
 4284SOL    HW121630   6.625   7.931   9.830  1.6064 -0.6398 -1.4712
 4284SOL    HW221631   6.489   7.865   9.839  0.8164  1.1927  1.3599
 4285SOL     OW21632   1.683  11.763   9.153 -0.1224  0.3940  0.0003
 4285SOL    HW121633   1.677  11.859   9.161  1.0651  0.3934  1.4597
 4285SOL    HW221634   1.719  11.748   9.066 -1.1723  1.2186 -0.6045
 4286SOL     OW21635   7.737   6.699  10.114  0.1567  0.8016  0.2375
 4286SOL    HW121636   7.646   6.669  10.121 -0.2001  1.6508 -0.4768
 4286SOL    HW221637   7.765   6.669  10.027  0.2747  1.2481  0.1165
 4287SOL     OW21638  10.602   2.586   9.549 -0.6058 -0.2705  0.1481
 4287SOL    HW121639  10.676   2.539   9.511 -0.7979 -0.1150 -0.4306
 4287SOL    HW221640  10.605   2.673   9.508  0.2179  0.5219  1.7855
 4288SOL     OW21641   1.801  11.692   6.028 -0.5853 -0.5158 -0.1039
 4288SOL    HW121642   1.755  11.739   5.957  1.6955  0.2632 -1.1640
 4288SOL    HW221643   1.889  11.679   5.994  0.6006 -0.1326  2.6086
 4289SOL     OW21644   4.523   0.554  11.096 -0.3854 -0.4299  0.1122
 4289SOL    HW121645   4.513   0.622  11.030  1.1229 -1.3405 -1.1212
 4289SOL    HW221646   4.538   0.603  11.178 -1.3373  0.7022 -0.3537
 4290SOL     OW21647   8.388   5.589   2.992 -0.3758  0.1450  0.2491
 4290SOL    HW121648   8.411   5.671   3.036 -2.6639  1.1024 -0.2135
 4290SOL    HW221649   8.470   5.539   2.990  1.1113  2.4359  0.4618
 4291SOL     OW21650   7.001  11.665  12.045 -0.7060  0.3455 -0.7243
 4291SOL    HW121651   7.070  11.613  12.087 -0.7516  0.8026 -0.0684
 4291SOL    HW221652   6.942  11.601  12.006 -0.6278 -0.0840 -0.1379
 4292SOL     OW21653   1.729   0.990  11.457  0.0476 -0.1471  0.1032
 4292SOL    HW121654   1.716   1.083  11.475 -1.4446 -0.3381  0.1025
 4292SOL    HW221655   1.708   0.946  11.539 -0.3028 -0.5571 -0.2006
 4293SOL     OW21656   1.627   2.570   3.667 -1.1621  0.1617  0.0025
 4293SOL    HW121657   1.541   2.605   3.690 -1.4174 -0.5281  0.1246
 4293SOL    HW221658   1.608   2.503   3.600 -0.7684 -0.3057  0.3508
 4294SOL     OW21659   3.354   1.107   4.325  0.1642 -0.0135 -0.4621
 4294SOL    HW121660   3.278   1.161   4.346 -0.4395 -0.9529 -0.1655
 4294SOL    HW221661   3.354   1.101   4.229  0.5350  0.9066 -0.5331
 4295SOL     OW21662  10.574   6.739   5.631 -0.7864  0.1597 -0.1775
 4295SOL    HW121663  10.548   6.658   5.674  0.8129  0.3356  1.2134
 4295SOL    HW221664  10.603   6.712   5.544 -1.2202 -0.6021 -0.0979
 4296SOL     OW21665   4.264   6.260   3.293  0.6033  0.5894 -0.2252
 4296SOL    HW121666   4.304   6.197   3.352  0.3948  1.1984  0.5823
 4296SOL    HW221667   4.205   6.311   3.348 -0.6748  0.2549 -1.2217
 4297SOL     OW21668   7.520   7.020  11.860  0.4146  0.2462 -0.2077
 4297SOL    HW121669   7.563   7.062  11.933 -0.3592  1.9388 -0.6826
 4297SOL    HW221670   7.530   7.081  11.787 -0.6061 -0.4517 -0.9640
 4298SOL     OW21671  11.456   2.962   0.684  0.1550 -0.4615 -0.4516
 4298SOL    HW121672  11.395   2.894   0.715  0.4146 -0.1933  0.6947
 4298SOL    HW221673  11.409   3.044   0.696  0.6932 -0.2565  0.3857
 4299SOL     OW21674  11.402  10.454   9.476  0.1604  0.0705 -0.3913
 4299SOL    HW121675  11.479  10.510   9.468  0.7445 -0.7982 -0.9055
 4299SOL    HW221676  11.413  10.387   9.408 -0.6623 -0.5206  0.0400
 4300SOL     OW21677   2.845   3.845   9.310  0.1521  0.1124 -0.3529
 4300SOL    HW121678   2.831   3.773   9.248  1.5349  1.0440 -1.8528
 4300SOL    HW221679   2.773   3.906   9.294 -0.9164 -0.8034  0.7899
 4301SOL     OW21680   0.273   8.112   7.168  0.0923  0.0420 -0.1179
 4301SOL    HW121681   0.345   8.158   7.123  0.1105  2.5978  2.2048
 4301SOL    HW221682   0.212   8.182   7.191 -1.4536 -1.5913  0.9526
 4302SOL     OW21683  12.216   1.484   5.510  0.2942  0.6212  0.5378
 4302SOL    HW121684  12.301   1.497   5.469  1.1263 -1.1605  1.5745
 4302SOL    HW221685  12.215   1.547   5.583  0.1027  1.6355 -0.3263
 4303SOL     OW21686   6.241   9.750   5.035 -0.3847  0.2055 -0.6549
 4303SOL    HW121687   6.312   9.791   4.987  0.7518  0.3802  1.0932
 4303SOL    HW221688   6.240   9.795   5.119 -2.2740 -0.1203 -0.4587
 4304SOL     OW21689  12.473  12.488   0.421 -0.2360 -0.1016  0.4665
 4304SOL    HW121690  12.423  12.413   0.387 -0.3976  0.3549 -0.3023
 4304SOL    HW221691  12.495  12.540   0.344  0.8118  0.0910  0.8790
 4305SOL     OW21692   7.045  12.156  10.485  0.0303  0.2845  0.4291
 4305SOL    HW121693   7.030  12.063  10.466 -0.3648 -0.1911  2.7404
 4305SOL    HW221694   6.966  12.200  10.455 -0.8292 -0.4888  1.5105
 4306SOL     OW21695   1.981  12.234   9.318 -0.1804 -0.7844 -0.0499
 4306SOL    HW121696   2.009  12.166   9.380  1.4512  0.5901  0.7870
 4306SOL    HW221697   1.936  12.299   9.372  3.1688  1.5411  0.2752
 4307SOL     OW21698  12.075  10.392   4.575  0.3915  0.1671 -0.4706
 4307SOL    HW121699  12.106  10.373   4.487  0.8861  0.5195 -0.3755
 4307SOL    HW221700  12.095  10.484   4.589 -1.3745  0.6084 -0.6677
 4308SOL     OW21701   0.593  11.656  12.581 -0.0738 -0.3333 -0.0314
 4308SOL    HW121702   0.593  11.680  12.489 -0.5463 -0.3759 -0.0443
 4308SOL    HW221703   0.518  11.598  12.591 -0.0638 -0.2795  0.3932
 4309SOL     OW21704   0.761   1.014  10.358  0.3223 -0.0649 -0.5861
 4309SOL    HW121705   0.755   1.055  10.445  3.5950  0.9722 -0.7356
 4309SOL    HW221706   0.706   1.070  10.303  1.0780  1.4820  0.1442
 4310SOL     OW21707   6.604   3.823   1.130  0.4854  0.0100 -0.3270
 4310SOL    HW121708   6.690   3.785   1.107  0.1924 -0.0470 -1.4161
 4310SOL    HW221709   6.541   3.758   1.100  0.0095  0.8508 -1.2038
 4311SOL     OW21710   8.761   2.030   1.582  0.4748  0.0103  0.1605
 4311SOL    HW121711   8.734   2.106   1.531  0.2873 -0.2121 -0.0726
 4311SOL    HW221712   8.706   2.033   1.660 -0.0115 -0.2723 -0.1714
 4312SOL     OW21713   6.688   7.120  10.388 -0.3105 -0.1293 -0.0137
 4312SOL    HW121714   6.715   7.211  10.373 -0.0259 -0.5439 -2.3559
 4312SOL    HW221715   6.753   7.087  10.450 -0.1599  1.1336  0.5435
 4313SOL     OW21716   1.423   8.413   5.478 -0.1656  0.2821  0.3930
 4313SOL    HW121717   1.335   8.413   5.514 -0.5473 -1.5262 -0.4216
 4313SOL    HW221718   1.414   8.456   5.392 -0.6336 -1.3199 -0.4058
 4314SOL     OW21719  10.679   9.785   1.116  0.1974 -0.3627  0.1993
 4314SOL    HW121720  10.637   9.773   1.031  0.5490  0.7785 -0.1600
 4314SOL    HW221721  10.773   9.792   1.096  0.3381 -0.6545  0.7432
 4315SOL     OW21722   8.066   1.230   4.299 -0.2213  0.7170  0.4283
 4315SOL    HW121723   8.074   1.323   4.321  3.1900 -0.2125  4.4015
 4315SOL    HW221724   8.144   1.211   4.247 -0.1490 -0.2033  0.8610
 4316SOL     OW21725  11.607   1.775   3.452 -0.2222 -0.5260 -0.3229
 4316SOL    HW121726  11.609   1.681   3.466  1.6549 -0.5511 -0.4973
 4316SOL    HW221727  11.611   1.786   3.357 -0.6250 -0.2741 -0.3115
 4317SOL     OW21728   9.766   3.452   7.894  0.0049 -0.0227 -0.5213
 4317SOL    HW121729   9.736   3.396   7.823 -0.2078  1.4621 -1.6583
 4317SOL    HW221730   9.757   3.541   7.860 -1.0030  0.8109  1.7078
 4318SOL     OW21731   3.823  12.277   2.490  0.3418 -0.4660 -0.2525
 4318SOL    HW121732   3.887  12.279   2.561  1.3268 -0.1954 -1.1313
 4318SOL    HW221733   3.816  12.185   2.466  1.0415 -0.4098 -0.7055
 4319SOL     OW21734   1.230  10.780   7.652 -0.0476  0.2833  0.0985
 4319SOL    HW121735   1.193  10.852   7.702 -0.9760 -0.4065  0.4310
 4319SOL    HW221736   1.297  10.743   7.709 -0.6638 -0.0986  0.5942
 4320SOL     OW21737   6.314   3.248   1.056 -0.2458 -0.1804  0.2614
 4320SOL    HW121738   6.248   3.312   1.082 -1.9002 -1.5860 -0.2767
 4320SOL    HW221739   6.264   3.170   1.032  1.4779 -0.7029 -2.0048
 4321SOL     OW21740   5.260  11.471   7.178 -0.3310  0.2021  0.2185
 4321SOL    HW121741   5.204  11.540   7.144  0.4481  0.8566  0.2465
 4321SOL    HW221742   5.202  11.395   7.185 -0.9072  0.5018 -0.9734
 4322SOL     OW21743   1.293   1.874  12.373 -0.4554  0.7363 -0.0764
 4322SOL    HW121744   1.340   1.799  12.409  0.2887  0.0278 -2.3528
 4322SOL    HW221745   1.217   1.836  12.330  0.2988  1.1733 -1.8542
 4323SOL     OW21746   1.538  12.067  12.299  0.5423  0.0563 -0.2355
 4323SOL    HW121747   1.495  12.010  12.363  1.1889  0.9201  1.0306
 4323SOL    HW221748   1.511  12.033  12.214 -0.2779 -1.2000  0.4905
 4324SOL     OW21749   6.385   8.284   6.146 -0.1481  0.2738  0.4215
 4324SOL    HW121750   6.476   8.258   6.131 -0.3711  0.8441 -2.6904
 4324SOL    HW221751   6.362   8.336   6.069 -3.1223  0.1884  1.1173
 4325SOL     OW21752   7.151  11.868   8.163 -0.5501 -0.1482 -0.2562
 4325SOL    HW121753   7.108  11.939   8.115  1.4121  0.4412 -1.2801
 4325SOL    HW221754   7.191  11.814   8.094  0.7525 -0.3568  0.6317
 4326SOL     OW21755   0.725   5.149   0.629 -0.3228 -0.2723  0.9411
 4326SOL    HW121756   0.792   5.124   0.692 -2.2691 -0.5718  2.9921
 4326SOL    HW221757   0.755   5.233   0.594  0.6200  0.1004  2.5615
 4327SOL     OW21758  12.013   6.287   0.170 -0.0213 -0.5819 -0.1490
 4327SOL    HW121759  12.037   6.379   0.160 -1.8586  0.0992  1.0706
 4327SOL    HW221760  11.996   6.256   0.081  1.7474 -0.1252 -0.6855
 4328SOL     OW21761  11.946  12.565   6.764 -0.2769  0.1491 -0.0648
 4328SOL    HW121762  12.036  12.567   6.731  0.5930  2.4055  2.1341
 4328SOL    HW221763  11.897  12.517   6.697  2.2077  0.3706 -2.1922
 4329SOL     OW21764   7.513   9.973   1.260 -1.2050 -0.1150  0.1509
 4329SOL    HW121765   7.587   9.912   1.263 -1.1554 -0.0313  1.4245
 4329SOL    HW221766   7.534  10.033   1.189  0.1142  0.1030  0.6978
 4330SOL     OW21767   5.986   5.357   3.384  0.7336  0.5542  0.3335
 4330SOL    HW121768   5.915   5.413   3.352 -0.2037  0.4665  2.0915
 4330SOL    HW221769   6.049   5.418   3.422 -0.0408  0.5021  1.7808
 4331SOL     OW21770  10.236   0.609   4.071 -0.0681  0.1196 -0.8194
 4331SOL    HW121771  10.182   0.673   4.025 -0.2571  0.6090  0.0664
 4331SOL    HW221772  10.325   0.626   4.041  0.2515  2.3906  1.1264
 4332SOL     OW21773   5.766   8.259   3.908  0.5461 -0.2636  0.0592
 4332SOL    HW121774   5.788   8.222   3.994  1.3414  4.1077  2.0336
 4332SOL    HW221775   5.670   8.256   3.905  0.2837  1.8358  2.4830
 4333SOL     OW21776   4.715   0.320   4.974 -0.5739 -0.2277 -0.2563
 4333SOL    HW121777   4.714   0.415   4.961  1.6325 -0.0141  0.6617
 4333SOL    HW221778   4.804   0.301   5.004 -0.3725 -2.8461 -2.2041
 4334SOL     OW21779  10.963   2.955   7.111 -0.0995 -0.0629 -0.2930
 4334SOL    HW121780  10.886   2.932   7.060 -0.2142 -2.3996  0.8013
 4334SOL    HW221781  10.949   3.047   7.136 -2.0234 -0.1375 -0.9549
 4335SOL     OW21782  11.443   0.388   6.200  0.2694 -0.3700 -0.3825
 4335SOL    HW121783  11.443   0.348   6.287  0.9702  0.2048 -0.1045
 4335SOL    HW221784  11.535   0.390   6.174 -0.0982 -2.6313 -2.1516
 4336SOL     OW21785   0.466   2.589  10.367 -0.4078  0.3239  0.0062
 4336SOL    HW121786   0.440   2.669  10.321 -1.7546  0.0683  0.2543
 4336SOL    HW221787   0.390   2.568  10.422  0.9644  0.3762  2.0273
 4337SOL     OW21788   3.752   4.376   3.364 -0.0954  0.1444 -0.5016
 4337SOL    HW121789   3.831   4.379   3.418 -0.5975  1.3206  0.2166
 4337SOL    HW221790   3.775   4.424   3.285  0.2827 -0.5824 -0.8394
 4338SOL     OW21791   0.213   9.537   4.126 -0.2341  0.7702  0.0778
 4338SOL    HW121792   0.247   9.618   4.088  0.9584  0.4718  0.4834
 4338SOL    HW221793   0.273   9.469   4.096 -2.5010 -0.3950 -2.2234
 4339SOL     OW21794   9.620   3.337   3.304  0.2214 -0.2608 -0.1490
 4339SOL    HW121795   9.692   3.359   3.244  0.4979  0.6805  0.5002
 4339SOL    HW221796   9.663   3.310   3.385 -0.1506 -0.1659  0.0826
 4340SOL     OW21797  10.730   2.844   4.598  0.5150  0.7121 -0.0368
 4340SOL    HW121798  10.702   2.899   4.672  1.0175  1.2138 -0.2115
 4340SOL    HW221799  10.685   2.880   4.522  1.2066  1.1933 -0.2316
 4341SOL     OW21800   5.195   2.686   4.978 -0.1960  0.2054 -0.5222
 4341SOL    HW121801   5.254   2.753   4.944  0.5968  0.4579  1.2410
 4341SOL    HW221802   5.125   2.679   4.912 -0.2161  2.6416 -0.8331
 4342SOL     OW21803   0.434   4.474  10.521 -0.4806 -0.5463  0.1481
 4342SOL    HW121804   0.438   4.533  10.597  0.5951  3.0592 -2.4632
 4342SOL    HW221805   0.518   4.486  10.477 -1.5067 -1.6510 -2.2629
 4343SOL     OW21806   8.720   4.025  11.794 -0.1671 -0.0024  0.0041
 4343SOL    HW121807   8.764   3.986  11.719  0.7435  0.8222  0.0839
 4343SOL    HW221808   8.629   3.996  11.787 -0.5179  1.3796 -2.3829
 4344SOL     OW21809  11.505   3.171   5.727 -0.1678  0.5381  0.0584
 4344SOL    HW121810  11.448   3.116   5.673  2.0636 -1.3236 -0.5756
 4344SOL    HW221811  11.459   3.178   5.811 -0.8126 -1.9384 -0.0056
 4345SOL     OW21812  10.085   0.136   7.961  0.0801  0.5669 -0.5052
 4345SOL    HW121813   9.994   0.150   7.933  0.4269  0.3050 -1.8677
 4345SOL    HW221814  10.109   0.053   7.921  1.1082  0.9298 -0.6588
 4346SOL     OW21815   7.980   9.908   6.332 -0.4205 -0.1888 -0.2798
 4346SOL    HW121816   7.970   9.814   6.314  0.1970 -0.5927  1.2482
 4346SOL    HW221817   7.896   9.934   6.371 -0.9919  0.1747 -1.7215
 4347SOL     OW21818   6.619   2.120   9.701 -0.9469 -0.1056  0.0042
 4347SOL    HW121819   6.580   2.198   9.739 -1.0334 -0.1605  0.0259
 4347SOL    HW221820   6.708   2.148   9.677 -1.4535  0.4299 -1.3395
 4348SOL     OW21821   7.362   4.737   3.671  0.1901 -0.5602  0.5202
 4348SOL    HW121822   7.298   4.716   3.738 -0.6093  0.5290  0.1324
 4348SOL    HW221823   7.428   4.668   3.677 -0.8202 -1.4800  1.1830
 4349SOL     OW21824   7.479  11.030   0.038 -0.3236 -0.2208  0.2774
 4349SOL    HW121825   7.455  10.937   0.042 -1.7357  0.1038 -0.1189
 4349SOL    HW221826   7.540  11.036  -0.035 -0.5199 -0.7765  0.0619
 4350SOL     OW21827   5.631  12.467   1.882  0.2131  0.2146 -0.6043
 4350SOL    HW121828   5.685  12.428   1.812  0.1100 -2.2268  0.5592
 4350SOL    HW221829   5.541  12.456   1.851  0.1600 -1.0148 -0.0572
 4351SOL     OW21830   1.538   1.024   1.895 -0.6197 -0.1639  0.3871
 4351SOL    HW121831   1.536   1.120   1.899 -0.7060 -0.1382 -0.1268
 4351SOL    HW221832   1.630   1.001   1.908 -0.4577  0.0413 -0.3179
 4352SOL     OW21833   8.652   2.215   3.700 -0.3652 -0.0638  0.1367
 4352SOL    HW121834   8.665   2.211   3.795 -1.3515  0.6610  0.3109
 4352SOL    HW221835   8.653   2.308   3.679 -0.5323 -0.2030 -0.5181
 4353SOL     OW21836  11.187   7.187   5.177 -0.4787 -0.6252 -0.7631
 4353SOL    HW121837  11.275   7.149   5.176 -0.3027 -0.2278 -2.3978
 4353SOL    HW221838  11.138   7.135   5.114 -1.4230 -0.8153  0.1126
 4354SOL     OW21839   4.676  11.344   6.049 -0.1745  0.0661 -0.8658
 4354SOL    HW121840   4.729  11.339   5.970  2.5714  1.3127  0.7476
 4354SOL    HW221841   4.695  11.263   6.097  0.5686  0.6417 -0.1506
 4355SOL     OW21842   5.359   2.752  10.116 -0.6080 -0.1186 -0.1523
 4355SOL    HW121843   5.338   2.845  10.126  0.0282  0.0563 -0.3515
 4355SOL    HW221844   5.276   2.707  10.127 -1.5659  0.6605 -3.3024
 4356SOL     OW21845   7.901   4.564   0.817 -0.1839 -0.1978  0.6705
 4356SOL    HW121846   7.987   4.541   0.854 -0.0903  0.5460  0.9210
 4356SOL    HW221847   7.921   4.607   0.734 -0.3234 -0.1464  0.6628
 4357SOL     OW21848   3.322   2.777   8.917  0.3599  0.4871  0.2284
 4357SOL    HW121849   3.352   2.691   8.889 -1.3889  0.1985 -0.8850
 4357SOL    HW221850   3.302   2.824   8.836  0.6893  1.7385  0.8372
 4358SOL     OW21851   2.918  11.866   5.714 -0.1826  0.2496  0.1857
 4358SOL    HW121852   2.993  11.906   5.758  0.8914  0.6244 -1.8520
 4358SOL    HW221853   2.877  11.811   5.781  1.7230  0.2695  1.4442
 4359SOL     OW21854   6.424   0.673   4.981 -0.3789 -0.2039 -0.2535
 4359SOL    HW121855   6.396   0.642   4.895  0.0785 -0.8522 -0.1778
 4359SOL    HW221856   6.518   0.652   4.984 -0.1623  0.7691 -0.0060
 4360SOL     OW21857  10.799  11.979   4.449  0.1916 -0.1568 -0.0689
 4360SOL    HW121858  10.780  12.065   4.487 -0.6661 -0.3379 -0.0542
 4360SOL    HW221859  10.757  11.981   4.363 -0.3615 -0.7669  0.1760
 4361SOL     OW21860  12.032   1.520   6.173 -0.1288  0.2201  0.2025
 4361SOL    HW121861  12.094   1.450   6.194 -1.1241 -0.9200 -0.4937
 4361SOL    HW221862  12.023   1.569   6.254  1.4076  0.2159  0.4194
 4362SOL     OW21863   8.538   9.252   9.925  0.2122  0.2292  1.1116
 4362SOL    HW121864   8.536   9.157   9.934  0.5442  0.3000  2.1010
 4362SOL    HW221865   8.606   9.270   9.861 -0.2217 -0.2168  0.5194
 4363SOL     OW21866   8.453   1.763  10.623 -0.7177  0.2009 -0.0388
 4363SOL    HW121867   8.519   1.826  10.596 -0.4463 -0.7122 -1.6747
 4363SOL    HW221868   8.375   1.787  10.573 -1.6240  1.1845  1.7714
 4364SOL     OW21869  10.712  10.491   2.632 -0.3111  0.6062 -0.0393
 4364SOL    HW121870  10.624  10.525   2.617 -0.2075  0.1948 -1.7929
 4364SOL    HW221871  10.704  10.396   2.618  0.8761  0.8405 -2.8916
 4365SOL     OW21872  11.065   5.348  10.311  0.2813  0.0904 -0.1560
 4365SOL    HW121873  10.989   5.339  10.253  0.1732  3.1033 -0.6167
 4365SOL    HW221874  11.067   5.265  10.359 -1.2625 -1.4518 -2.4806
 4366SOL     OW21875   3.948  10.451   5.152  0.0619  0.2184  0.2896
 4366SOL    HW121876   3.964  10.485   5.064  0.5944  0.5617  0.5078
 4366SOL    HW221877   3.905  10.524   5.197 -0.6861 -0.1431  0.1653
 4367SOL     OW21878   7.897  10.470  10.848 -0.1313 -0.3793 -0.2821
 4367SOL    HW121879   7.991  10.454  10.847  0.2880  1.5771  1.2928
 4367SOL    HW221880   7.862  10.415  10.778  1.9396 -2.4818  0.2312
 4368SOL     OW21881   3.280  11.339  10.511  0.2965  0.9060 -0.2169
 4368SOL    HW121882   3.287  11.244  10.509 -1.2752  0.7682 -1.0569
 4368SOL    HW221883   3.336  11.369  10.439 -0.4117  0.5000 -0.9475
 4369SOL     OW21884   8.319   6.060   4.724 -0.1132  0.0964 -0.4448
 4369SOL    HW121885   8.399   6.012   4.743  1.7766  3.2843  0.5297
 4369SOL    HW221886   8.347   6.131   4.665 -2.3095  1.0941 -0.4027
 4370SOL     OW21887   1.082   0.138   2.113  0.2367  0.3364 -0.3234
 4370SOL    HW121888   1.083   0.143   2.017  0.9813 -1.7863 -0.4811
 4370SOL    HW221889   1.172   0.117   2.136 -0.2945 -0.9310  0.7009
 4371SOL     OW21890   4.226   2.674   3.880  0.1203 -0.6520 -0.1788
 4371SOL    HW121891   4.173   2.643   3.807  0.8417  0.1580 -1.0840
 4371SOL    HW221892   4.294   2.607   3.890 -1.5433 -2.1530  1.5830
 4372SOL     OW21893   9.588   4.421   8.729 -0.2625  0.1684  0.2493
 4372SOL    HW121894   9.617   4.334   8.756  0.0716  0.2082  0.0245
 4372SOL    HW221895   9.505   4.434   8.775 -0.2079 -0.1813  0.4491
 4373SOL     OW21896   0.354   7.476   7.439  0.1677  0.5248 -0.1600
 4373SOL    HW121897   0.308   7.548   7.481 -0.1181  0.7267 -0.8007
 4373SOL    HW221898   0.421   7.519   7.385 -0.4140  0.3530 -1.0355
 4374SOL     OW21899   7.757   9.615  12.056 -0.1844 -0.0074  0.1012
 4374SOL    HW121900   7.847   9.634  12.030  0.2018 -0.6305  0.9157
 4374SOL    HW221901   7.736   9.683  12.121 -0.8459  1.0350 -1.1648
 4375SOL     OW21902   7.625   6.469   7.811 -0.7011 -0.2851  0.6489
 4375SOL    HW121903   7.587   6.492   7.895  0.4311  0.4018  0.9991
 4375SOL    HW221904   7.604   6.543   7.754 -0.5033 -0.2332  0.6429
 4376SOL     OW21905   2.835   0.799   0.698 -0.3736 -0.3360 -0.2380
 4376SOL    HW121906   2.811   0.779   0.608  2.2707 -0.5744 -0.9963
 4376SOL    HW221907   2.834   0.895   0.702 -0.3938 -0.3221 -0.5649
 4377SOL     OW21908   3.946   5.144   1.338  0.0444 -0.2920 -0.0981
 4377SOL    HW121909   3.862   5.175   1.303  0.7234  0.7735 -0.8587
 4377SOL    HW221910   3.995   5.116   1.261 -0.0116 -1.9824  0.4492
 4378SOL     OW21911  10.829   9.248   3.446  0.0548 -0.5069  0.5368
 4378SOL    HW121912  10.755   9.272   3.390  1.0097 -0.8297 -0.9241
 4378SOL    HW221913  10.904   9.293   3.406  0.6136  0.0338  2.1440
 4379SOL     OW21914  10.371   5.613   2.873 -0.1442  0.3054 -0.2614
 4379SOL    HW121915  10.420   5.587   2.795 -1.0246 -1.2669 -0.3388
 4379SOL    HW221916  10.433   5.664   2.925  1.5326 -1.4595 -0.4375
 4380SOL     OW21917   5.600   5.383   3.523  0.4570  0.2057  0.3973
 4380SOL    HW121918   5.616   5.305   3.470 -2.0212 -0.1525  0.0202
 4380SOL    HW221919   5.595   5.350   3.613 -0.1513 -0.0182  0.2870
 4381SOL     OW21920   6.426  10.499   3.623  0.3044 -0.3662  0.3481
 4381SOL    HW121921   6.499  10.554   3.651 -0.6419  1.3969 -0.4774
 4381SOL    HW221922   6.388  10.467   3.705  0.7511  0.3890  0.8597
 4382SOL     OW21923   2.041   0.751   5.918  0.4163 -0.3582 -0.2343
 4382SOL    HW121924   2.036   0.674   5.862  1.0504 -0.1935 -0.5317
 4382SOL    HW221925   1.950   0.779   5.929  0.1330 -1.4368  0.2994
 4383SOL     OW21926   4.512  12.223   0.242  0.4303  0.3327 -0.2122
 4383SOL    HW121927   4.574  12.181   0.302 -1.2541 -1.8368  0.1441
 4383SOL    HW221928   4.430  12.228   0.292 -0.4178  0.5954 -1.5805
 4384SOL     OW21929   2.148   1.380   8.037  0.3942 -0.3482  0.7407
 4384SOL    HW121930   2.142   1.476   8.037  0.3995 -0.3450  0.3222
 4384SOL    HW221931   2.184   1.358   8.122  2.8799  0.1871 -0.0978
 4385SOL     OW21932   3.732  11.749  11.163  0.0605 -0.1340  0.8121
 4385SOL    HW121933   3.653  11.696  11.176  0.2760 -0.3550  1.2488
 4385SOL    HW221934   3.804  11.686  11.168  0.1593 -0.4536 -2.6258
 4386SOL     OW21935   4.761   3.079   7.870 -0.7505  0.0128  0.2435
 4386SOL    HW121936   4.820   3.139   7.916 -1.1705 -0.2755  1.1976
 4386SOL    HW221937   4.724   3.131   7.799 -0.6552  0.7076  0.6942
 4387SOL     OW21938   2.070  10.444   0.451 -0.0449 -0.0589  0.1495
 4387SOL    HW121939   2.117  10.509   0.399  1.8248 -0.8460  0.7760
 4387SOL    HW221940   1.985  10.484   0.469  0.1598  1.1983 -1.4845
 4388SOL     OW21941   4.390   7.567  10.767  0.0221 -0.1305 -0.1813
 4388SOL    HW121942   4.388   7.472  10.774  0.7195 -0.0481  2.3491
 4388SOL    HW221943   4.480   7.588  10.743 -0.0035 -0.1057 -0.2548
 4389SOL     OW21944   7.380   1.473   5.504 -0.1544  0.1888 -0.0636
 4389SOL    HW121945   7.424   1.550   5.541 -2.3103  0.5777  1.8873
 4389SOL    HW221946   7.374   1.492   5.411  1.4678  1.2552 -0.0050
 4390SOL     OW21947   9.227   9.123   3.511 -0.1334 -0.3343 -0.0506
 4390SOL    HW121948   9.133   9.141   3.506  0.0632  0.7782 -0.1351
 4390SOL    HW221949   9.268   9.205   3.483  0.8589 -1.2159 -1.2854
 4391SOL     OW21950  12.303   7.756   0.893  0.3610 -0.0315  0.2982
 4391SOL    HW121951  12.335   7.768   0.983  1.9094  2.2027 -0.4719
 4391SOL    HW221952  12.210   7.736   0.903  0.6737 -0.7232  2.4129
 4392SOL     OW21953   1.322  11.869   5.079 -0.2134  0.4142 -0.4657
 4392SOL    HW121954   1.393  11.933   5.068  0.1844  0.3445  1.4544
 4392SOL    HW221955   1.261  11.911   5.140 -0.8038 -0.3590 -0.5110
 4393SOL     OW21956   4.145   4.594   5.842  0.1315 -0.5777 -0.4315
 4393SOL    HW121957   4.190   4.608   5.758 -0.6486  1.7015 -0.5174
 4393SOL    HW221958   4.061   4.555   5.817 -0.1786  0.2723 -0.7470
 4394SOL     OW21959   8.990   0.696   1.205  0.0199 -0.1654 -0.0497
 4394SOL    HW121960   9.008   0.602   1.199  0.4467 -0.0340 -1.0064
 4394SOL    HW221961   8.932   0.705   1.280  1.0825 -1.0379  0.9042
 4395SOL     OW21962   6.753   9.373   1.012  0.2540  0.2511 -0.6662
 4395SOL    HW121963   6.748   9.281   0.986  0.0523  0.7213 -2.4687
 4395SOL    HW221964   6.739   9.421   0.930  0.5018  1.8837  0.2148
 4396SOL     OW21965   8.041   5.627   9.645  0.4321 -0.0689  0.4777
 4396SOL    HW121966   8.086   5.591   9.569 -0.0869  1.5265 -0.6556
 4396SOL    HW221967   8.011   5.551   9.694  0.3888 -1.1556 -1.1543
 4397SOL     OW21968  10.498   9.302  11.352 -0.1738  0.1239 -0.1033
 4397SOL    HW121969  10.448   9.224  11.330 -0.0263 -0.4841  1.5222
 4397SOL    HW221970  10.442   9.352  11.412 -0.2646  1.2783 -1.1155
 4398SOL     OW21971   1.206   0.641   8.370 -0.4152  0.6551 -0.6194
 4398SOL    HW121972   1.167   0.633   8.457  1.7773  2.9545  0.7243
 4398SOL    HW221973   1.158   0.579   8.316 -0.5381 -2.4204  2.6659
 4399SOL     OW21974   6.198   3.801   8.780  0.3006 -0.0642 -0.0137
 4399SOL    HW121975   6.157   3.794   8.866 -1.0860  1.2197 -0.5206
 4399SOL    HW221976   6.263   3.871   8.790  0.7293 -0.4755  0.1706
 4400SOL     OW21977   7.546   5.054   0.935  0.1230  0.3665 -0.5377
 4400SOL    HW121978   7.510   5.080   0.850 -3.6159 -0.4245  0.6215
 4400SOL    HW221979   7.507   5.115   0.998  2.6075  0.7822  0.7692
 4401SOL     OW21980   5.507   9.346  10.453  0.3661  0.2045  0.1485
 4401SOL    HW121981   5.494   9.343  10.359 -0.9160  0.2270  0.3178
 4401SOL    HW221982   5.506   9.254  10.480  2.6133  0.0445 -0.0656
 4402SOL     OW21983   8.282   7.086   0.164  0.1677  0.0388  0.6868
 4402SOL    HW121984   8.378   7.084   0.173  0.2635 -0.2844 -0.2696
 4402SOL    HW221985   8.257   6.994   0.166 -0.0516  0.0910  0.1971
 4403SOL     OW21986   3.152   6.029   1.665  0.0727  0.1699  0.0166
 4403SOL    HW121987   3.068   6.076   1.658  0.0257  0.1729  0.5612
 4403SOL    HW221988   3.152   5.992   1.753  0.7316  0.3303  0.0900
 4404SOL     OW21989   8.247   5.127  11.998 -0.9598 -0.4182 -0.3943
 4404SOL    HW121990   8.239   5.150  12.091  0.5481  0.2621 -0.3878
 4404SOL    HW221991   8.178   5.064  11.982 -0.2749 -1.7755  1.6087
 4405SOL     OW21992   1.016   9.772   2.984  0.1520 -0.2387  0.1050
 4405SOL    HW121993   0.956   9.836   2.947  0.9198 -0.0099 -0.7735
 4405SOL    HW221994   1.103   9.801   2.956  0.5868 -1.1222  0.4986
 4406SOL     OW21995   8.501  11.756   3.815 -0.4582  0.0171 -0.6293
 4406SOL    HW121996   8.426  11.697   3.812 -0.3144 -0.2301  0.3207
 4406SOL    HW221997   8.574  11.706   3.779 -0.0374 -0.8840  1.3133
 4407SOL     OW21998   7.492   6.801   9.186 -0.0888 -0.3694  0.2780
 4407SOL    HW121999   7.481   6.707   9.175 -0.1018 -0.2079 -1.4663
 4407SOL    HW222000   7.585   6.813   9.206 -0.0656 -0.7443  0.3914
 4408SOL     OW22001   4.678   5.257   7.540  0.0402 -0.2558  0.5369
 4408SOL    HW122002   4.715   5.345   7.529 -1.0162  0.2431  0.7989
 4408SOL    HW222003   4.601   5.255   7.482  0.2570 -1.1356  0.2651
 4409SOL     OW22004   9.934   2.106   2.440  0.2837  0.2232  0.3625
 4409SOL    HW122005   9.927   2.098   2.345  0.5486  0.3894  0.3301
 4409SOL    HW222006   9.876   2.037   2.474  0.6218 -0.2073  0.0827
 4410SOL     OW22007   6.652  10.056   5.823 -0.1836  0.1232  0.0377
 4410SOL    HW122008   6.654  10.107   5.742  0.9663 -0.4839 -0.3273
 4410SOL    HW222009   6.665   9.966   5.795  1.5196  0.0359  0.9892
 4411SOL     OW22010  10.764   2.503   8.191  0.4737 -0.0412 -0.4198
 4411SOL    HW122011  10.814   2.578   8.221 -0.8624  2.0961 -3.1103
 4411SOL    HW222012  10.789   2.432   8.251  3.0482  2.0595  1.2265
 4412SOL     OW22013  10.616  10.643  11.291 -0.5502 -0.2905  0.0407
 4412SOL    HW122014  10.552  10.587  11.245 -0.1917 -0.7190  0.0605
 4412SOL    HW222015  10.566  10.722  11.313 -0.7796 -0.1428 -0.9444
 4413SOL     OW22016   8.052   9.366   3.608 -0.0859 -0.7874 -0.6274
 4413SOL    HW122017   8.083   9.276   3.618  0.0396 -0.8127 -1.2130
 4413SOL    HW222018   8.063   9.405   3.694 -0.6936 -1.5057 -0.2072
 4414SOL     OW22019   4.473   1.381   8.801  0.4359 -0.2295 -0.3703
 4414SOL    HW122020   4.569   1.382   8.805  0.4946 -2.6619  0.4506
 4414SOL    HW222021   4.445   1.364   8.890 -0.8221  0.9411 -0.5088
 4415SOL     OW22022  12.213   0.380   4.770  0.0937 -0.1552 -0.1341
 4415SOL    HW122023  12.304   0.375   4.798  0.1844  0.1751 -0.3586
 4415SOL    HW222024  12.169   0.428   4.840  0.0545 -0.4771  0.0625
 4416SOL     OW22025   2.628  12.281   6.993  0.8646 -0.3382 -1.1395
 4416SOL    HW122026   2.714  12.261   7.030  0.7013  0.6302 -0.1797
 4416SOL    HW222027   2.565  12.253   7.060  0.5302  0.7492 -0.9698
 4417SOL     OW22028   8.976   5.015   5.892  1.1815 -0.0242 -0.2599
 4417SOL    HW122029   8.971   5.096   5.943  0.3641  0.8556 -1.6941
 4417SOL    HW222030   9.049   4.967   5.931  0.8126  0.7662  1.4992
 4418SOL     OW22031   5.645   2.903   8.646  0.0014  0.6058  0.2353
 4418SOL    HW122032   5.559   2.914   8.605  0.5880  1.8677 -0.7155
 4418SOL    HW222033   5.626   2.872   8.734 -1.3540 -0.9819 -0.5501
 4419SOL     OW22034   6.700   1.663   9.578 -0.7993  0.0822 -0.3286
 4419SOL    HW122035   6.626   1.634   9.631 -0.2043  0.6178  0.8356
 4419SOL    HW222036   6.776   1.620   9.617 -0.2018  1.3770 -0.0326
 4420SOL     OW22037   3.930   1.871  10.118  0.8033  0.0546 -0.4826
 4420SOL    HW122038   3.926   1.779  10.145  1.0326  0.5774  1.5565
 4420SOL    HW222039   3.842   1.904  10.137  0.7445  0.2801 -1.1405
 4421SOL     OW22040  10.657   6.797   7.828 -0.3867 -0.1042  0.3387
 4421SOL    HW122041  10.579   6.743   7.819 -0.9999  1.0644 -2.2809
 4421SOL    HW222042  10.625   6.887   7.821  0.8945  0.5551  2.1999
 4422SOL     OW22043   0.727  10.912   2.813 -0.0929 -0.1649  0.2392
 4422SOL    HW122044   0.686  10.864   2.885  0.0249 -0.8776 -0.1612
 4422SOL    HW222045   0.799  10.856   2.785  0.5581  0.6220  0.2951
 4423SOL     OW22046  11.504  11.013  12.403  0.5551 -0.2269  0.6385
 4423SOL    HW122047  11.553  11.087  12.439  0.0454  0.3279  0.2130
 4423SOL    HW222048  11.435  10.996  12.468 -0.7616  1.1884 -0.3275
 4424SOL     OW22049  11.434   2.163   9.459 -0.3694  0.4287  0.0048
 4424SOL    HW122050  11.419   2.203   9.544  0.2444  1.1953 -0.2319
 4424SOL    HW222051  11.347   2.154   9.421 -0.7041 -0.5153  0.9643
 4425SOL     OW22052   8.554  11.702   2.101 -0.1521  0.2469  0.6332
 4425SOL    HW122053   8.524  11.658   2.180 -2.1813  1.6040  0.6727
 4425SOL    HW222054   8.623  11.761   2.131 -0.3200  0.1426  1.2377
 4426SOL     OW22055   5.283   9.290   4.077 -0.2800 -0.4576  0.5968
 4426SOL    HW122056   5.356   9.267   4.136  1.6132 -0.0894 -1.4761
 4426SOL    HW222057   5.253   9.375   4.109  3.4514  1.7760 -1.2036
 4427SOL     OW22058   2.359   5.667   5.558  0.0680  0.7328 -0.0067
 4427SOL    HW122059   2.301   5.734   5.522  1.2554  2.2892  0.8580
 4427SOL    HW222060   2.443   5.711   5.569  0.8025 -0.8043  0.9390
 4428SOL     OW22061   8.181   7.338  11.286 -0.0066  0.7664 -0.1277
 4428SOL    HW122062   8.113   7.395  11.252 -1.3267 -0.1301  0.8883
 4428SOL    HW222063   8.136   7.282  11.350  0.5844 -3.1512 -2.7856
 4429SOL     OW22064   9.334  11.951   2.654  0.1953 -0.4087 -0.1190
 4429SOL    HW122065   9.387  11.892   2.601  3.6236  1.3775  0.9607
 4429SOL    HW222066   9.326  12.030   2.601  1.7699  0.5928  1.0156
 4430SOL     OW22067   3.210  12.432   3.516 -0.1243 -0.0118  0.2184
 4430SOL    HW122068   3.204  12.516   3.560  0.4170  0.2098 -0.1193
 4430SOL    HW222069   3.194  12.452   3.424  0.1101 -0.2619  0.1222
 4431SOL     OW22070   6.853   0.318  11.874  0.2604 -0.4965  0.4533
 4431SOL    HW122071   6.810   0.400  11.898  0.7322  0.4334 -1.6354
 4431SOL    HW222072   6.785   0.251  11.882 -0.7940  0.4801 -0.0870
 4432SOL     OW22073   5.328  11.511   0.044 -0.2595 -0.2518  0.2684
 4432SOL    HW122074   5.261  11.572   0.012 -0.5344 -0.5554  0.2550
 4432SOL    HW222075   5.296  11.424   0.016 -0.2334 -0.4692  0.8980
 4433SOL     OW22076  10.425  12.166   4.811  0.1980  0.5064  0.3755
 4433SOL    HW122077  10.517  12.160   4.838  0.6556 -2.1666 -1.4300
 4433SOL    HW222078  10.418  12.108   4.735 -2.6894  1.7586 -0.4690
 4434SOL     OW22079   5.471   2.167   0.646  0.2158  0.2343 -0.4400
 4434SOL    HW122080   5.499   2.083   0.608 -0.8781 -0.6506  0.6442
 4434SOL    HW222081   5.549   2.223   0.641  2.3736 -2.1579  2.6416
 4435SOL     OW22082   9.116   2.581   9.463 -0.2553  0.1342  0.3385
 4435SOL    HW122083   9.047   2.645   9.445 -1.7986 -1.2980  0.8981
 4435SOL    HW222084   9.180   2.629   9.515  0.2433  2.0677 -1.8974
 4436SOL     OW22085   1.674   1.932   2.775 -0.3266  0.4619  0.1328
 4436SOL    HW122086   1.763   1.897   2.783 -0.2623  0.3890 -0.8117
 4436SOL    HW222087   1.637   1.921   2.862  0.7430  0.9130  0.6739
 4437SOL     OW22088   0.029   8.935  11.991 -0.3424  0.0794 -0.1163
 4437SOL    HW122089  -0.034   8.995  11.952  0.0221 -1.7633 -3.9897
 4437SOL    HW222090   0.114   8.975  11.974 -0.2102 -0.4460 -0.7448
 4438SOL     OW22091  10.330   9.458  12.519 -0.0791  0.2573  0.2827
 4438SOL    HW122092  10.392   9.385  12.516 -0.9601 -0.4752 -1.5130
 4438SOL    HW222093  10.244   9.417  12.512 -0.5646  1.4712 -1.8263
 4439SOL     OW22094  11.511  12.590  11.625  0.0622  0.8975 -0.2869
 4439SOL    HW122095  11.495  12.576  11.531 -0.6955 -1.5392  0.1312
 4439SOL    HW222096  11.595  12.547  11.642 -0.8118 -0.5970  0.4934
 4440SOL     OW22097   7.844   1.854   3.232 -0.2460  0.3907 -0.0230
 4440SOL    HW122098   7.824   1.929   3.289  0.0030 -0.0359  0.6376
 4440SOL    HW222099   7.820   1.777   3.284 -1.1047  0.0140 -0.9366
 4441SOL     OW22100   6.520   4.862  10.377 -0.2706 -0.4135  0.0965
 4441SOL    HW122101   6.497   4.792  10.439  0.6878 -0.3580  0.5287
 4441SOL    HW222102   6.503   4.943  10.426  0.9263 -0.3737  0.4591
 4442SOL     OW22103   0.588   7.775   4.493  0.5979 -0.0267 -0.2826
 4442SOL    HW122104   0.557   7.684   4.494 -0.7628  0.3436 -2.2212
 4442SOL    HW222105   0.533   7.819   4.558  0.6726 -0.4287  0.0575
 4443SOL     OW22106  10.278   4.384   9.116 -0.0431 -0.3270 -0.7085
 4443SOL    HW122107  10.303   4.296   9.145 -0.4816  0.0368  0.9344
 4443SOL    HW222108  10.243   4.425   9.196 -1.3834  0.7682 -1.8129
 4444SOL     OW22109   0.118  12.465   8.831 -0.0749 -0.1787  0.1242
 4444SOL    HW122110   0.179  12.505   8.769  0.3842 -2.2443 -0.8365
 4444SOL    HW222111   0.031  12.496   8.803  0.2718  0.2993 -0.4415
 4445SOL     OW22112   7.898   5.133   3.020  0.4263 -0.5830 -0.3252
 4445SOL    HW122113   7.903   5.131   2.924 -0.9278 -1.4038 -0.3984
 4445SOL    HW222114   7.957   5.062   3.047 -1.6542 -2.6018 -0.7299
 4446SOL     OW22115  10.789   2.970  12.003  0.0835  0.6248  0.3297
 4446SOL    HW122116  10.745   2.936  11.925  0.7036 -0.9985  0.6614
 4446SOL    HW222117  10.736   2.938  12.076  0.9251 -0.0040  0.6703
 4447SOL     OW22118  11.010   9.241   0.634  0.3214  0.8372  0.0926
 4447SOL    HW122119  11.039   9.305   0.698  0.1182  0.3192  0.7052
 4447SOL    HW222120  11.042   9.157   0.667  0.9130  0.6530 -0.8938
 4448SOL     OW22121  12.174   3.779   7.356 -0.1361  0.2851 -0.5015
 4448SOL    HW122122  12.268   3.763   7.356  0.2177  2.1582  0.3372
 4448SOL    HW222123  12.165   3.871   7.331 -1.8875 -0.3684 -2.6818
 4449SOL     OW22124   2.633   9.010   6.959  0.0724  0.6888 -0.4284
 4449SOL    HW122125   2.683   9.089   6.937 -0.6040  1.4060  0.4875
 4449SOL    HW222126   2.621   8.965   6.876  1.9908  0.6239 -0.7053
 4450SOL     OW22127   6.592   1.011   6.694  0.9401 -0.1092 -0.5846
 4450SOL    HW122128   6.538   0.945   6.651  1.6984 -0.1052 -1.5685
 4450SOL    HW222129   6.609   0.975   6.781 -0.7536 -0.0427 -0.1817
 4451SOL     OW22130   7.419   9.081  10.838  0.0034 -0.6548 -0.1698
 4451SOL    HW122131   7.449   8.998  10.874  2.5223  0.7709  1.2919
 4451SOL    HW222132   7.389   9.131  10.914 -1.5580 -0.2256 -1.0336
 4452SOL     OW22133   1.948   2.241   4.434  0.0301 -0.1832  0.1747
 4452SOL    HW122134   2.016   2.292   4.389  0.2932 -1.3187 -0.7520
 4452SOL    HW222135   1.996   2.188   4.497 -0.1888  0.2711  0.7344
 4453SOL     OW22136   4.840   8.352  11.945 -0.3192 -0.0937  0.1562
 4453SOL    HW122137   4.824   8.260  11.925 -2.4452 -0.2558  2.1824
 4453SOL    HW222138   4.934   8.355  11.966  0.4640 -1.1456 -2.7417
 4454SOL     OW22139   9.340  10.805   1.738 -0.2138  0.2770  0.4868
 4454SOL    HW122140   9.253  10.837   1.715 -0.9898 -1.4330  0.9182
 4454SOL    HW222141   9.375  10.769   1.656 -0.0298  0.6774  0.3863
 4455SOL     OW22142   4.325  11.521  10.298  0.6567 -0.2907  0.2143
 4455SOL    HW122143   4.307  11.615  10.305 -1.3762 -0.6234  0.0997
 4455SOL    HW222144   4.349  11.508  10.206  1.2235  0.1574  0.2974
 4456SOL     OW22145   6.296   6.781   1.538  0.2306 -0.2933 -0.1865
 4456SOL    HW122146   6.222   6.793   1.597  0.4913  1.1186 -0.1029
 4456SOL    HW222147   6.272   6.832   1.460  0.4271 -1.1248 -0.7966
 4457SOL     OW22148  12.189   4.693  10.801  0.0144  0.4291  0.1920
 4457SOL    HW122149  12.098   4.719  10.786  0.1682  0.8108 -0.0886
 4457SOL    HW222150  12.236   4.725  10.724  0.1548 -0.9944 -0.3410
 4458SOL     OW22151   6.930   7.566   6.772 -0.0696  0.4279  0.6764
 4458SOL    HW122152   6.864   7.549   6.705  1.5398  0.4076 -0.9536
 4458SOL    HW222153   6.972   7.482   6.787  0.9148  0.8284  0.2391
 4459SOL     OW22154  12.264   2.455   0.982  0.0752  0.0735 -0.1241
 4459SOL    HW122155  12.226   2.447   0.894  0.4596 -1.5495 -0.1732
 4459SOL    HW222156  12.213   2.395   1.036  1.2625 -0.6361  0.2446
 4460SOL     OW22157   4.229   4.853  10.109  0.3743  0.5293 -0.6614
 4460SOL    HW122158   4.256   4.764  10.084  1.3815  0.8471 -0.7566
 4460SOL    HW222159   4.242   4.905  10.029  0.8458  0.9746 -0.3040
 4461SOL     OW22160   9.738   5.223   5.834  0.7671  0.3420 -0.0164
 4461SOL    HW122161   9.810   5.263   5.786  1.3417 -0.5978  0.0462
 4461SOL    HW222162   9.669   5.210   5.769  0.9501  0.5111 -0.2443
 4462SOL     OW22163   8.519  10.294   7.541 -0.0545 -0.3659 -0.6450
 4462SOL    HW122164   8.427  10.311   7.565  0.3743 -1.0076  1.7483
 4462SOL    HW222165   8.568  10.364   7.584  0.7309 -1.1335 -0.2667
 4463SOL     OW22166   2.767   5.923   0.610 -0.3713  0.4004  0.2454
 4463SOL    HW122167   2.722   5.843   0.581 -2.2807  1.5639 -0.1429
 4463SOL    HW222168   2.701   5.972   0.657  0.6720  1.9363  0.1844
 4464SOL     OW22169  10.136  12.522   1.688 -0.4392  0.0009 -0.0545
 4464SOL    HW122170  10.201  12.571   1.638 -0.9823 -1.2139 -2.1058
 4464SOL    HW222171  10.187  12.467   1.748  0.2698  0.9893  0.2614
 4465SOL     OW22172   2.504   6.111   3.579  0.0415  0.5793 -0.0668
 4465SOL    HW122173   2.575   6.124   3.517 -1.0880  0.3423 -1.4685
 4465SOL    HW222174   2.443   6.053   3.534 -0.0898 -0.9143  1.9002
 4466SOL     OW22175   8.051   4.187   1.862 -0.0951 -0.2851  0.0925
 4466SOL    HW122176   8.040   4.282   1.860 -2.1889 -0.4981 -1.2184
 4466SOL    HW222177   8.140   4.172   1.829  0.3388  1.2005  0.5126
 4467SOL     OW22178   7.815   1.837   4.428  0.4704 -0.3742 -0.2480
 4467SOL    HW122179   7.791   1.748   4.403  1.6906 -0.5237 -0.9439
 4467SOL    HW222180   7.758   1.893   4.376  1.5258 -0.7217 -1.8430
 4468SOL     OW22181  11.253   8.174  10.353  0.4927 -0.3247 -0.1836
 4468SOL    HW122182  11.341   8.138  10.363  1.3399  0.8509 -2.6133
 4468SOL    HW222183  11.203   8.102  10.313  0.9920 -0.2772 -0.9223
 4469SOL     OW22184   7.877   0.206   9.413 -0.3032 -0.3920  0.3379
 4469SOL    HW122185   7.951   0.266   9.403 -1.2487  1.2278  2.2977
 4469SOL    HW222186   7.898   0.132   9.356  2.7356  0.0695  0.6969
 4470SOL     OW22187   6.721   6.728   4.102  0.0591 -0.2715 -0.2780
 4470SOL    HW122188   6.729   6.823   4.105 -0.1735 -0.2024 -1.4011
 4470SOL    HW222189   6.635   6.712   4.064 -0.4179 -0.9501  1.0216
 4471SOL     OW22190   5.216   6.742  11.623  0.7628 -0.0530  0.0480
 4471SOL    HW122191   5.154   6.807  11.589  1.3296  0.1216 -0.6842
 4471SOL    HW222192   5.265   6.713  11.546  1.4130 -0.3894  0.5738
 4472SOL     OW22193   0.039  10.786  10.253 -0.0712 -0.2943  1.0210
 4472SOL    HW122194   0.123  10.773  10.210 -0.2985 -1.1483  0.8074
 4472SOL    HW222195   0.023  10.880  10.247  0.2995 -0.2862 -0.0083
 4473SOL     OW22196   3.169   0.181   8.167 -0.4130 -0.1420  0.1926
 4473SOL    HW122197   3.183   0.276   8.175  0.5616 -0.2567 -0.0308
 4473SOL    HW222198   3.104   0.172   8.097  0.4584  0.3177 -0.6985
 4474SOL     OW22199   3.160   0.208  11.362  0.5580 -0.0513 -0.1760
 4474SOL    HW122200   3.231   0.193  11.426 -0.4284  0.6545  1.1218
 4474SOL    HW222201   3.107   0.278  11.400 -0.8064 -0.5018 -1.1658
 4475SOL     OW22202   8.283   3.967   6.305  0.4954  0.6302 -0.1054
 4475SOL    HW122203   8.204   3.943   6.256  0.1697  0.1829  0.6054
 4475SOL    HW222204   8.313   3.884   6.343  1.0623  0.8699 -0.0239
 4476SOL     OW22205   3.379  12.549   3.277 -0.5712  0.4753  0.1328
 4476SOL    HW122206   3.294  12.589   3.294 -1.1418 -1.5938  2.9485
 4476SOL    HW222207   3.442  12.608   3.318 -0.7018  1.4967 -1.0759
 4477SOL     OW22208   3.243   1.259   0.148 -0.1627 -0.4122 -0.4585
 4477SOL    HW122209   3.157   1.274   0.188 -0.3484 -0.4957 -0.8223
 4477SOL    HW222210   3.280   1.186   0.198 -0.5933 -0.8322 -0.7341
 4478SOL     OW22211   1.025   1.997  12.098 -0.0177 -0.1524 -0.3419
 4478SOL    HW122212   1.051   1.906  12.110  0.9775  0.2584  0.8352
 4478SOL    HW222213   1.037   2.037  12.184 -1.0943  0.9397 -0.6705
 4479SOL     OW22214   9.015   1.342   3.331  0.5912 -0.5230 -0.1547
 4479SOL    HW122215   8.965   1.394   3.394  1.9181 -2.9381  3.1014
 4479SOL    HW222216   9.070   1.406   3.286 -0.3703  1.3110  1.1443
 4480SOL     OW22217   8.472   8.374   4.174 -0.4896 -0.5687  0.0015
 4480SOL    HW122218   8.550   8.319   4.168  0.5543  0.4739  2.5615
 4480SOL    HW222219   8.491   8.436   4.244 -3.1944  0.4823 -0.0525
 4481SOL     OW22220   5.805   1.957   6.290 -0.3423  0.1956  0.4858
 4481SOL    HW122221   5.793   1.898   6.364 -0.1917 -0.0942  0.2804
 4481SOL    HW222222   5.847   1.903   6.222 -2.5068 -0.1894 -0.6479
 4482SOL     OW22223   8.651   3.715   5.508  0.0611 -0.5371 -0.4232
 4482SOL    HW122224   8.713   3.701   5.436  0.5938 -1.5878  0.2107
 4482SOL    HW222225   8.654   3.633   5.559 -1.4732 -0.4219 -0.0838
 4483SOL     OW22226   1.830   6.036   6.962  0.0419  0.1440  0.0397
 4483SOL    HW122227   1.894   6.108   6.955 -0.4685  0.4987 -1.1908
 4483SOL    HW222228   1.745   6.078   6.951 -0.3247 -0.5317  0.2238
 4484SOL     OW22229   5.611   2.727  12.135 -0.5744 -0.4362  0.2469
 4484SOL    HW122230   5.646   2.641  12.159 -1.5536 -1.0041 -0.3152
 4484SOL    HW222231   5.572   2.760  12.216 -0.6509 -0.7425  0.3376
 4485SOL     OW22232   4.906   9.349   3.789  0.3413  0.2561 -0.2136
 4485SOL    HW122233   4.821   9.306   3.782  0.0754  1.0468 -2.7177
 4485SOL    HW222234   4.968   9.279   3.807 -0.5829 -0.6054 -0.3314
 4486SOL     OW22235   6.727   9.890   6.539 -0.0851 -0.0292 -0.1255
 4486SOL    HW122236   6.812   9.922   6.512 -0.0983  0.6542  0.6126
 4486SOL    HW222237   6.715   9.808   6.490  0.7226  0.1755 -0.6773
 4487SOL     OW22238   6.360   0.886   3.238  0.5945  0.2578  0.2252
 4487SOL    HW122239   6.311   0.948   3.184 -0.5850 -0.5402  0.3464
 4487SOL    HW222240   6.431   0.854   3.182 -2.0598 -2.4959 -1.8586
 4488SOL     OW22241   0.922   2.640   3.742 -0.4116  0.2471  0.4561
 4488SOL    HW122242   0.990   2.691   3.696  1.2697 -1.2400  1.1886
 4488SOL    HW222243   0.841   2.663   3.696  0.0910  4.0048  1.0956
 4489SOL     OW22244   6.505   8.700   7.024 -0.9554  0.1262  0.2643
 4489SOL    HW122245   6.477   8.778   7.072 -0.7929  0.7730 -0.6721
 4489SOL    HW222246   6.601   8.703   7.027 -0.9411 -0.6719  1.2088
 4490SOL     OW22247  11.752   1.601   4.103  0.0301  0.5105  0.3379
 4490SOL    HW122248  11.712   1.619   4.018  1.0742  2.0360  0.1278
 4490SOL    HW222249  11.831   1.656   4.104  1.0029 -0.8410  1.5624
 4491SOL     OW22250   6.829   7.448   1.387  0.4445 -0.0323 -0.2532
 4491SOL    HW122251   6.848   7.436   1.480  0.0197  0.3262 -0.1145
 4491SOL    HW222252   6.746   7.495   1.386 -0.3624 -1.4156 -0.8337
 4492SOL     OW22253  10.316   1.063   2.584 -0.5153 -0.3866  0.3908
 4492SOL    HW122254  10.229   1.026   2.600 -0.7431 -0.4445 -0.8732
 4492SOL    HW222255  10.301   1.158   2.586 -0.4123 -0.3809  1.1416
 4493SOL     OW22256  10.184  12.066   4.141 -0.0126  0.2337 -0.1031
 4493SOL    HW122257  10.169  12.122   4.217  1.2597 -0.3184  0.5673
 4493SOL    HW222258  10.271  12.091   4.110  0.1178 -0.6251 -0.4475
 4494SOL     OW22259   5.576   4.347   0.172 -0.0203  0.0334  0.5167
 4494SOL    HW122260   5.533   4.291   0.236 -1.3584  1.0204  0.5350
 4494SOL    HW222261   5.595   4.428   0.220 -1.2465  0.8708 -0.3482
 4495SOL     OW22262  11.041   9.553   0.274  0.5635  0.1534 -0.1891
 4495SOL    HW122263  10.992   9.635   0.260  1.3737  0.5128 -0.9875
 4495SOL    HW222264  10.973   9.487   0.287 -0.1771  0.5699 -1.6744
 4496SOL     OW22265   2.330   8.181   2.705 -0.3122  0.0647 -0.2325
 4496SOL    HW122266   2.349   8.268   2.672 -1.2521  0.3529 -0.0329
 4496SOL    HW222267   2.278   8.139   2.636 -0.7394  0.0345  0.0955
 4497SOL     OW22268  11.241   1.646   4.083  0.1997  0.0293 -0.1349
 4497SOL    HW122269  11.265   1.601   4.002 -0.8071  0.3337 -0.6179
 4497SOL    HW222270  11.222   1.736   4.055  0.1299  0.2152  0.4913
 4498SOL     OW22271  12.497  11.122   7.309  0.1185 -0.0560  0.1395
 4498SOL    HW122272  12.486  11.121   7.404  2.0617  1.5738  0.4534
 4498SOL    HW222273  12.431  11.185   7.278  0.4821  0.5734  0.6103
 4499SOL     OW22274  11.948   8.411   6.980 -0.0091  0.1631 -0.3189
 4499SOL    HW122275  11.909   8.327   6.956  0.3533 -0.6461  1.6705
 4499SOL    HW222276  11.977   8.398   7.071  0.0320  2.4496  0.0435
 4500SOL     OW22277   6.529   0.529   2.882  0.0697 -0.1075  0.1008
 4500SOL    HW122278   6.568   0.488   2.805 -0.8078  0.3967 -0.6194
 4500SOL    HW222279   6.529   0.623   2.863 -0.7834 -0.0347  0.4097
 4501SOL     OW22280  11.821   0.220   2.553 -0.2582  0.5754  0.1018
 4501SOL    HW122281  11.776   0.236   2.471  1.8335  1.5651 -0.8993
 4501SOL    HW222282  11.807   0.299   2.605 -0.0916  0.6619  0.0117
 4502SOL     OW22283   2.157   4.726   4.339  0.2689 -0.3595  0.4027
 4502SOL    HW122284   2.115   4.807   4.311  0.6064 -0.5004 -0.5421
 4502SOL    HW222285   2.245   4.730   4.302 -0.3183 -2.0214 -1.3357
 4503SOL     OW22286  10.256   4.976   3.131  0.5214  0.0662  0.0750
 4503SOL    HW122287  10.237   5.054   3.183 -1.3609 -0.3953  0.1279
 4503SOL    HW222288  10.182   4.917   3.147  1.5158 -1.4290 -0.5761
 4504SOL     OW22289  10.685   0.142   1.824  0.1453 -0.5687  0.9593
 4504SOL    HW122290  10.669   0.072   1.887  1.3367 -1.0427  0.7537
 4504SOL    HW222291  10.612   0.135   1.762 -0.3368 -0.9173  1.5498
 4505SOL     OW22292   0.065   7.415   1.889  0.5930 -0.2640  0.0230
 4505SOL    HW122293   0.137   7.353   1.877 -0.8006 -1.7892 -1.0421
 4505SOL    HW222294  -0.007   7.377   1.838 -1.8975 -0.3912  3.2783
 4506SOL     OW22295   2.846   9.233  10.521 -0.4449 -0.4423  0.4153
 4506SOL    HW122296   2.834   9.280  10.603 -1.4082  0.7727 -0.3700
 4506SOL    HW222297   2.832   9.300  10.453 -0.1162 -1.4959 -0.7335
 4507SOL     OW22298  10.897  10.287  10.933 -0.3500 -0.0146  0.3525
 4507SOL    HW122299  10.855  10.246  10.857  1.2359 -2.8698  0.8347
 4507SOL    HW222300  10.830  10.288  11.001 -0.6740 -1.1576  0.0668
 4508SOL     OW22301   5.710   0.914   4.575 -0.2712  0.4928 -0.2609
 4508SOL    HW122302   5.660   0.892   4.497 -1.3723 -2.5278  1.1515
 4508SOL    HW222303   5.785   0.964   4.542 -2.1459  1.8012 -2.8673
 4509SOL     OW22304  11.300   7.209   8.251  0.1204  0.6145  0.6945
 4509SOL    HW122305  11.367   7.197   8.184 -0.4845 -0.8360  0.3094
 4509SOL    HW222306  11.270   7.120   8.272 -2.3499  1.2433  0.1620
 4510SOL     OW22307  11.956   8.594  11.967 -0.1899  0.1908 -0.0079
 4510SOL    HW122308  11.971   8.553  12.053 -2.1455 -1.3536 -0.3372
 4510SOL    HW222309  12.039   8.583  11.921  0.3231 -0.6008  1.0558
 4511SOL     OW22310   2.727   7.247   5.915  0.2259  0.0285  0.0653
 4511SOL    HW122311   2.683   7.330   5.899  0.7578  0.7618  2.0166
 4511SOL    HW222312   2.705   7.226   6.006  0.9364 -1.4522 -0.0710
 4512SOL     OW22313   9.349  10.300   3.274 -0.4817 -0.0249 -0.0463
 4512SOL    HW122314   9.348  10.353   3.353  0.9431  0.2468 -0.1781
 4512SOL    HW222315   9.306  10.218   3.299 -0.7041  0.3410  0.7994
 4513SOL     OW22316  12.349  11.393   3.113 -0.3874  0.3720  0.2907
 4513SOL    HW122317  12.327  11.320   3.170 -0.9103  0.3024  0.0030
 4513SOL    HW222318  12.353  11.469   3.171 -0.1645  0.1723  0.5379
 4514SOL     OW22319   7.145   9.048   9.430 -0.0259  0.1673 -0.1395
 4514SOL    HW122320   7.094   9.128   9.444  0.3679  0.7164 -1.6057
 4514SOL    HW222321   7.132   9.028   9.338  0.7704 -0.8496 -0.0434
 4515SOL     OW22322   4.362   5.710   8.110 -0.5477  0.1788  0.3823
 4515SOL    HW122323   4.287   5.655   8.086 -1.2464  1.2931 -0.0842
 4515SOL    HW222324   4.323   5.794   8.134  0.6454  1.2443 -1.2299
 4516SOL     OW22325   0.742   0.667   6.664 -0.0624  0.3102  0.1353
 4516SOL    HW122326   0.711   0.580   6.688 -1.1923  0.7126  0.1747
 4516SOL    HW222327   0.716   0.678   6.573  2.9977 -0.6580 -1.0036
 4517SOL     OW22328   4.033  11.683   9.820  0.3264 -0.7694 -0.5913
 4517SOL    HW122329   4.074  11.744   9.759  0.9722 -0.6865 -0.0948
 4517SOL    HW222330   4.060  11.715   9.907  2.9731 -3.2316 -0.3386
 4518SOL     OW22331  10.069   3.675   0.909 -0.6785  0.0855  0.1043
 4518SOL    HW122332  10.067   3.701   1.001 -0.6673  0.5424 -0.0206
 4518SOL    HW222333  10.139   3.729   0.870  0.1490 -0.9636  0.0787
 4519SOL     OW22334   7.322   0.116   0.620  0.2942  0.2320 -0.2542
 4519SOL    HW122335   7.249   0.173   0.643  0.2540 -0.7899  2.4754
 4519SOL    HW222336   7.398   0.153   0.665  1.2479  0.5166 -1.9724
 4520SOL     OW22337   0.366   0.776   0.910  0.5184 -0.0035  0.3459
 4520SOL    HW122338   0.446   0.795   0.862  1.2945  0.0730  1.6175
 4520SOL    HW222339   0.356   0.849   0.971 -3.0984  2.5545 -2.7759
 4521SOL     OW22340   6.308   4.259   6.547  0.2032  0.5610 -0.1952
 4521SOL    HW122341   6.232   4.294   6.501 -1.1665 -1.5639  0.3189
 4521SOL    HW222342   6.372   4.241   6.478 -0.5009  0.6182 -0.8748
 4522SOL     OW22343   1.319   3.358  11.396  0.1402  0.9296 -0.1926
 4522SOL    HW122344   1.337   3.266  11.376 -1.5756  0.3202  0.8413
 4522SOL    HW222345   1.312   3.400  11.311 -0.1804 -0.1374 -0.7140
 4523SOL     OW22346   8.842   3.300   8.716  0.1817 -0.3474 -0.5760
 4523SOL    HW122347   8.874   3.244   8.646  0.5872 -1.7079  0.6559
 4523SOL    HW222348   8.762   3.257   8.746 -0.1619  0.3954 -0.3971
 4524SOL     OW22349   3.709  10.137   7.639 -0.4397 -0.1283 -0.0683
 4524SOL    HW122350   3.694  10.197   7.712 -1.2225 -0.3010 -0.0869
 4524SOL    HW222351   3.804  10.121   7.641 -0.2307  1.0387 -0.0119
 4525SOL     OW22352   3.483   2.064   1.474  0.1463 -0.1538  0.0713
 4525SOL    HW122353   3.573   2.035   1.491 -0.0593 -0.0033  1.5005
 4525SOL    HW222354   3.436   1.983   1.453  0.1139 -0.5816  1.6646
 4526SOL     OW22355   7.582  10.444   4.442 -0.5349  0.0749 -0.0704
 4526SOL    HW122356   7.493  10.427   4.411 -0.5015 -0.5227  0.1491
 4526SOL    HW222357   7.604  10.529   4.405 -0.7797 -0.2800 -1.0634
 4527SOL     OW22358   3.520  11.188  11.755 -0.2391 -0.8988  0.3639
 4527SOL    HW122359   3.466  11.240  11.696  0.0789  0.1951  1.0018
 4527SOL    HW222360   3.495  11.098  11.737 -3.7617 -0.4195  1.9488
 4528SOL     OW22361   5.729   9.752   0.410 -0.0288 -0.3255  0.1856
 4528SOL    HW122362   5.764   9.705   0.335  0.5906  0.0227  0.2502
 4528SOL    HW222363   5.770   9.839   0.406  0.6409 -0.5623  1.3799
 4529SOL     OW22364  12.154   4.602   8.542  0.0737 -0.6614  0.3332
 4529SOL    HW122365  12.188   4.672   8.597  0.6076 -1.4948  1.0759
 4529SOL    HW222366  12.134   4.645   8.458  1.2016  0.2034  0.4949
 4530SOL     OW22367  12.186   6.932  11.113 -0.4272 -0.1442  0.7731
 4530SOL    HW122368  12.109   6.937  11.055  0.6604  0.3338 -0.7103
 4530SOL    HW222369  12.197   6.839  11.131 -1.7176 -0.1694  1.5488
 4531SOL     OW22370   1.304   6.978  11.886  0.0010 -0.4618 -0.8093
 4531SOL    HW122371   1.365   6.997  11.814  1.1475  0.3076  0.3326
 4531SOL    HW222372   1.331   7.035  11.957 -2.6615  0.6307 -0.5408
 4532SOL     OW22373   4.008   4.243   4.411 -0.0930 -0.2820  0.0621
 4532SOL    HW122374   3.920   4.275   4.395  1.2647  3.3120 -1.3183
 4532SOL    HW222375   4.042   4.219   4.324  1.0058  0.5902  0.2278
 4533SOL     OW22376   6.633   1.002   1.664 -0.3705 -0.2851 -0.6502
 4533SOL    HW122377   6.595   0.951   1.735 -1.0356 -0.0634 -0.8361
 4533SOL    HW222378   6.559   1.020   1.605  0.2026 -0.6075 -1.4809
 4534SOL     OW22379   8.594   9.790   2.429 -0.0707  0.4182  0.3124
 4534SOL    HW122380   8.634   9.874   2.448  1.7591 -0.4416  0.4386
 4534SOL    HW222381   8.539   9.772   2.506 -0.3457  1.4045  0.3557
 4535SOL     OW22382   1.136   6.154  10.548  0.0722 -0.0297  0.2763
 4535SOL    HW122383   1.219   6.183  10.584 -0.4573  1.1136  0.6374
 4535SOL    HW222384   1.073   6.168  10.619 -0.5400 -0.2489 -0.2142
 4536SOL     OW22385   3.901   8.848   4.183 -0.0368 -0.3077  0.2423
 4536SOL    HW122386   3.856   8.804   4.111 -1.8723  0.0369  1.1270
 4536SOL    HW222387   3.923   8.935   4.149  1.2867 -0.9535 -0.6526
 4537SOL     OW22388   1.455   3.579  11.803  0.2651  0.0825  0.1407
 4537SOL    HW122389   1.375   3.537  11.835 -0.9499  1.5347 -0.8414
 4537SOL    HW222390   1.483   3.635  11.876  0.7969 -0.9190  0.7316
 4538SOL     OW22391   0.895   5.631   0.115  0.0371 -0.3123 -0.4648
 4538SOL    HW122392   0.990   5.641   0.107 -0.0525  0.8881 -0.1915
 4538SOL    HW222393   0.878   5.637   0.209 -0.0891 -2.9261 -0.2475
 4539SOL     OW22394  11.494  12.536  11.369 -0.2213 -0.8255  0.4431
 4539SOL    HW122395  11.433  12.490  11.312 -0.8111 -1.6719  1.6959
 4539SOL    HW222396  11.500  12.624  11.332  0.8642 -1.8156 -1.9655
 4540SOL     OW22397   5.220   7.262   8.591 -0.1329 -0.0658 -0.0360
 4540SOL    HW122398   5.288   7.199   8.568  0.7441  0.3774  1.2193
 4540SOL    HW222399   5.261   7.348   8.579 -0.3181  0.2043  1.0738
 4541SOL     OW22400   6.526   1.595   8.078  0.1565  0.5927  0.4345
 4541SOL    HW122401   6.552   1.530   8.143  0.6687 -0.2119 -0.5434
 4541SOL    HW222402   6.559   1.678   8.112  2.9715 -0.1881 -0.1244
 4542SOL     OW22403   1.162   3.045   0.492 -0.3590 -0.3147 -0.3632
 4542SOL    HW122404   1.155   2.989   0.570 -0.1977 -1.4263 -1.1211
 4542SOL    HW222405   1.246   3.022   0.454 -0.4372  0.2284 -0.8643
 4543SOL     OW22406   0.577  12.290   9.270  0.0818 -0.4003 -0.6741
 4543SOL    HW122407   0.591  12.383   9.287  0.5645 -0.1747 -2.1481
 4543SOL    HW222408   0.663  12.257   9.245 -0.1124 -1.2271 -0.2733
 4544SOL     OW22409  10.257   1.715   9.461  0.0712 -0.0620 -0.2109
 4544SOL    HW122410  10.185   1.687   9.405 -0.4427 -0.2988  0.5498
 4544SOL    HW222411  10.220   1.714   9.550  0.8522  0.3450  0.1303
 4545SOL     OW22412  12.016   9.326   2.062  0.1684 -0.0727  0.2395
 4545SOL    HW122413  12.075   9.326   1.987  1.0454  0.0493  0.9000
 4545SOL    HW222414  11.929   9.342   2.026  0.2617 -1.9821 -0.9623
 4546SOL     OW22415   1.626   2.286  10.408 -0.5377 -0.3426  0.4116
 4546SOL    HW122416   1.686   2.270  10.335  1.4289 -2.1822  2.2562
 4546SOL    HW222417   1.629   2.380  10.422 -0.9696  0.0600 -1.8033
 4547SOL     OW22418   4.709   7.709  11.321  0.3778  0.1425  0.1772
 4547SOL    HW122419   4.629   7.747  11.357 -0.3511 -0.5497 -0.6685
 4547SOL    HW222420   4.748   7.661  11.394 -0.0150  0.4213  0.5745
 4548SOL     OW22421   5.207   3.862   4.813 -0.4780 -0.0234 -0.3556
 4548SOL    HW122422   5.239   3.829   4.729 -1.7395 -0.5338 -0.6602
 4548SOL    HW222423   5.123   3.902   4.792 -1.2105 -0.9103  0.7928
 4549SOL     OW22424   9.033   9.032   9.655 -0.3798 -0.2374  0.3519
 4549SOL    HW122425   8.940   9.013   9.651 -0.2157 -1.2495  0.9621
 4549SOL    HW222426   9.048   9.097   9.586 -1.1835 -1.5404 -1.0947
 4550SOL     OW22427   6.293  12.115   2.303 -0.0736  0.1990  0.4547
 4550SOL    HW122428   6.304  12.210   2.297 -0.9315  0.2392 -1.7455
 4550SOL    HW222429   6.327  12.092   2.389  0.3519  2.4653  0.9696
 4551SOL     OW22430   5.132   9.757   1.849 -0.0338  0.0806 -0.5148
 4551SOL    HW122431   5.224   9.781   1.840  0.6850 -1.2917  2.1205
 4551SOL    HW222432   5.134   9.663   1.867 -1.7685  0.3694  1.4769
 4552SOL     OW22433   0.153  11.073  10.468  0.2444  0.7193  0.0626
 4552SOL    HW122434   0.171  11.165  10.485 -0.9780  0.8731  0.7183
 4552SOL    HW222435   0.228  11.026  10.505  0.7146  1.4325  0.0264
 4553SOL     OW22436  12.237  12.355  10.057 -0.7046  0.2448  0.2657
 4553SOL    HW122437  12.176  12.418  10.095 -1.4744 -1.0546  1.2739
 4553SOL    HW222438  12.286  12.321  10.133 -0.4055 -0.4608 -0.2357
 4554SOL     OW22439   1.829   1.563   8.104 -0.1263  0.1096  0.3715
 4554SOL    HW122440   1.807   1.649   8.067  0.7048  0.7748  1.3667
 4554SOL    HW222441   1.770   1.502   8.060  1.1050  0.7619 -2.3606
 4555SOL     OW22442   9.076   5.935   6.307 -0.0340  0.1016  0.0928
 4555SOL    HW122443   9.109   5.846   6.320 -1.0360 -0.2263  0.5228
 4555SOL    HW222444   9.087   5.951   6.213 -0.2234 -0.6335 -0.0625
 4556SOL     OW22445   0.983   0.148   2.573 -0.3891 -0.1423  0.2520
 4556SOL    HW122446   0.914   0.196   2.527 -0.8794 -1.8879 -0.9623
 4556SOL    HW222447   1.052   0.213   2.589 -1.5288  1.2193 -0.1584
 4557SOL     OW22448   9.297   2.791  11.332  0.1020  0.3862  0.2529
 4557SOL    HW122449   9.277   2.718  11.390 -0.6442 -0.2754 -0.8023
 4557SOL    HW222450   9.392   2.801  11.339 -0.0107  0.5951  1.8766
 4558SOL     OW22451   2.288   4.209   2.615  0.0560 -0.4496  0.0846
 4558SOL    HW122452   2.310   4.120   2.641  0.9911 -0.3424 -0.3317
 4558SOL    HW222453   2.372   4.251   2.597 -0.3486  0.6079  0.5561
 4559SOL     OW22454   3.367   5.395  10.579 -0.3371 -0.2921  0.2415
 4559SOL    HW122455   3.273   5.410  10.590 -0.5481 -1.1580 -0.3435
 4559SOL    HW222456   3.374   5.315  10.528  0.7128  0.3729 -0.7183
 4560SOL     OW22457   5.739  12.452   7.880  0.4791  0.1872 -0.0398
 4560SOL    HW122458   5.685  12.390   7.830  1.2018 -0.8482  0.4177
 4560SOL    HW222459   5.678  12.519   7.909 -0.6631 -1.1568  0.7807
 4561SOL     OW22460   5.197   1.107   9.334  0.0979 -0.2000 -0.5854
 4561SOL    HW122461   5.121   1.095   9.391 -0.2872 -0.5885 -1.1667
 4561SOL    HW222462   5.249   1.174   9.377  0.7308 -1.7378  1.1787
 4562SOL     OW22463   0.009  10.481  10.361 -0.2707  0.2252 -0.6185
 4562SOL    HW122464  -0.014  10.389  10.348 -0.2968  0.4924 -2.7500
 4562SOL    HW222465   0.103  10.479  10.381 -0.5231 -0.3131  0.6724
 4563SOL     OW22466   1.925   5.783  11.265 -0.3137 -0.0060  0.3335
 4563SOL    HW122467   1.955   5.832  11.189  1.2673 -0.4206  0.6662
 4563SOL    HW222468   1.992   5.796  11.331 -0.5836 -1.3994  0.9285
 4564SOL     OW22469   7.293   2.255   5.328  0.0703 -0.1117  0.1356
 4564SOL    HW122470   7.376   2.229   5.368  0.8331  0.8173 -0.7903
 4564SOL    HW222471   7.294   2.351   5.331 -1.0944 -0.0870  0.3379
 4565SOL     OW22472   9.686  11.580   1.076  0.3059 -0.0365  0.1857
 4565SOL    HW122473   9.616  11.626   1.122  0.7108 -1.5314  2.4594
 4565SOL    HW222474   9.641  11.512   1.026 -0.0287  0.6386 -0.4494
 4566SOL     OW22475   4.742   5.831   5.563  0.5352  0.2738 -0.2212
 4566SOL    HW122476   4.649   5.831   5.542  0.9600 -1.1444 -2.4025
 4566SOL    HW222477   4.786   5.821   5.479  2.7836  2.9289  0.4761
 4567SOL     OW22478   5.293   9.623   7.740  0.4684 -0.6991 -0.9470
 4567SOL    HW122479   5.306   9.594   7.830 -0.1563 -1.1506 -0.9905
 4567SOL    HW222480   5.376   9.607   7.696  1.2268  0.7862 -0.1366
 4568SOL     OW22481   0.815  12.499   3.083 -0.6241 -0.2056 -0.4072
 4568SOL    HW122482   0.808  12.411   3.046 -0.7762 -0.4309  0.1506
 4568SOL    HW222483   0.855  12.486   3.169  0.4414  0.3894 -0.7896
 4569SOL     OW22484   3.937   9.813   0.386 -0.2806 -0.9400 -0.0508
 4569SOL    HW122485   4.027   9.845   0.388  0.0135 -1.6579 -0.9402
 4569SOL    HW222486   3.883   9.892   0.390  0.4147 -0.3681 -1.2542
 4570SOL     OW22487  12.265   9.775   5.052  0.5444 -0.1297 -0.8012
 4570SOL    HW122488  12.223   9.788   4.967 -0.1154 -1.6191 -0.7231
 4570SOL    HW222489  12.236   9.689   5.081  2.5529 -0.6230 -0.0791
 4571SOL     OW22490   7.508  10.664   4.997 -0.5741 -0.3787 -0.1794
 4571SOL    HW122491   7.576  10.601   4.973  0.9702  0.9818  0.4014
 4571SOL    HW222492   7.455  10.618   5.063  0.8548 -0.9097  0.6443
 4572SOL     OW22493   0.311   5.926  10.655 -0.0302  0.9329 -0.3221
 4572SOL    HW122494   0.256   5.988  10.607  0.3909  2.3981  0.9792
 4572SOL    HW222495   0.394   5.972  10.666  0.4642 -0.0734  0.2705
 4573SOL     OW22496   8.028   0.861   2.200 -0.2414 -0.3000  0.0354
 4573SOL    HW122497   8.029   0.785   2.258  1.0113 -0.5652 -0.3065
 4573SOL    HW222498   8.098   0.918   2.234 -1.2693  0.7985  0.3931
 4574SOL     OW22499   3.534   6.633   0.707 -0.0017 -0.3421  1.1121
 4574SOL    HW122500   3.509   6.561   0.764 -2.1809  0.1645  0.8777
 4574SOL    HW222501   3.468   6.633   0.638  0.4123  1.3865  0.6711
 4575SOL     OW22502   5.601   3.940   8.322 -0.5813  0.0321 -0.3856
 4575SOL    HW122503   5.546   3.901   8.389 -0.4702  0.9674  0.2698
 4575SOL    HW222504   5.614   3.871   8.258 -2.3331 -0.2867 -0.4484
 4576SOL     OW22505  11.499   1.058   6.243  0.7308 -0.0159  0.6163
 4576SOL    HW122506  11.564   1.004   6.288  0.6684  0.4327  1.2609
 4576SOL    HW222507  11.541   1.143   6.235  0.0317  0.4342  1.5325
 4577SOL     OW22508   7.560   2.859   9.657  0.6629 -0.2369 -0.0822
 4577SOL    HW122509   7.559   2.945   9.614 -3.1184 -0.4241 -0.6917
 4577SOL    HW222510   7.568   2.879   9.750 -1.3503  0.9464 -0.1089
 4578SOL     OW22511   5.233  11.867  12.295  0.2566  0.4806 -0.0849
 4578SOL    HW122512   5.173  11.839  12.363  0.7981  1.9466  1.0542
 4578SOL    HW222513   5.187  11.938  12.250 -0.4773 -1.0678 -1.9198
 4579SOL     OW22514   5.998  11.927   2.193 -0.2171 -0.4303 -0.0762
 4579SOL    HW122515   6.003  11.920   2.289  0.5974  1.1313  0.0256
 4579SOL    HW222516   5.945  11.852   2.167 -0.8818 -0.6191  1.6438
 4580SOL     OW22517   9.380   9.501   0.142 -0.5955  0.1005 -0.5466
 4580SOL    HW122518   9.382   9.416   0.186 -1.6439 -0.4255 -1.4550
 4580SOL    HW222519   9.407   9.482   0.052  0.5279  0.9836 -0.4268
 4581SOL     OW22520  12.202   0.735  10.011  0.4872  0.3475 -0.3247
 4581SOL    HW122521  12.146   0.659   9.995  1.8013 -0.8713  0.6207
 4581SOL    HW222522  12.165   0.804   9.955 -1.9695 -0.3518  0.3108
 4582SOL     OW22523  10.527   7.673   5.225 -0.1595  0.3105 -0.5615
 4582SOL    HW122524  10.570   7.716   5.299  0.2625 -0.3646 -0.3969
 4582SOL    HW222525  10.598   7.626   5.180 -0.5013  0.2890 -1.0862
 4583SOL     OW22526  10.087   3.147   2.828  0.1880  0.1666 -0.3407
 4583SOL    HW122527  10.013   3.086   2.834 -0.2603  0.8125  1.4901
 4583SOL    HW222528  10.164   3.091   2.828 -0.2616 -0.4734 -0.9892
 4584SOL     OW22529   9.675   5.562   3.940  0.2455 -0.0158  0.3019
 4584SOL    HW122530   9.721   5.536   3.860 -1.5009 -0.5673 -0.5924
 4584SOL    HW222531   9.726   5.524   4.011  1.4111 -0.1902 -0.6007
 4585SOL     OW22532   3.684   0.578   9.401  0.6652  1.0138  0.7490
 4585SOL    HW122533   3.688   0.600   9.308  1.1201  1.1720  0.8072
 4585SOL    HW222534   3.626   0.502   9.404  1.2002  0.5757  0.2550
 4586SOL     OW22535   4.970   1.047   5.150  0.4822 -0.2709  0.0426
 4586SOL    HW122536   4.957   1.121   5.092  0.0061  0.1463  0.6580
 4586SOL    HW222537   5.035   0.991   5.106 -1.3971 -1.0517 -1.8926
 4587SOL     OW22538   4.499   3.386   4.999  0.8814 -0.2333  0.2707
 4587SOL    HW122539   4.516   3.448   5.069 -0.9859  0.1039  0.4825
 4587SOL    HW222540   4.533   3.428   4.920  1.8468 -0.0577  0.7621
 4588SOL     OW22541  12.219   7.159   9.231 -0.2514  0.2102 -0.3461
 4588SOL    HW122542  12.182   7.246   9.219  0.0503  0.4353  0.3344
 4588SOL    HW222543  12.282   7.150   9.159 -1.6901 -0.2344 -1.6072
 4589SOL     OW22544   8.395   4.426  10.825 -0.1800  0.0525  0.3723
 4589SOL    HW122545   8.474   4.380  10.796 -0.6875 -0.5496 -0.0589
 4589SOL    HW222546   8.340   4.358  10.863 -1.8708 -0.1271 -2.1871
 4590SOL     OW22547   0.620  10.781  10.339  0.1822  0.1708 -0.0952
 4590SOL    HW122548   0.553  10.786  10.408 -0.9673 -1.9110 -0.9524
 4590SOL    HW222549   0.692  10.733  10.380  0.1750  0.3633  0.1447
 4591SOL     OW22550   5.635   6.674   6.034 -0.5456 -0.0738 -0.6120
 4591SOL    HW122551   5.609   6.651   6.123 -0.7701  0.9177 -0.4049
 4591SOL    HW222552   5.555   6.706   5.993 -0.4543 -0.5821 -1.1960
 4592SOL     OW22553   6.879  10.025   2.431  0.0264  0.6665 -0.6625
 4592SOL    HW122554   6.866  10.030   2.337  1.2002  0.7850 -0.8328
 4592SOL    HW222555   6.802   9.978   2.463  0.4727 -1.0306 -1.9075
 4593SOL     OW22556   8.076  11.292   1.391  1.0449  0.0243 -0.6345
 4593SOL    HW122557   8.040  11.226   1.330 -0.7135 -0.0176  0.3775
 4593SOL    HW222558   8.053  11.376   1.351  0.2710 -0.0021 -0.2606
 4594SOL     OW22559   9.204   6.853   7.657  0.1434  0.0639  0.1885
 4594SOL    HW122560   9.196   6.762   7.685  1.1416 -1.0122 -2.6170
 4594SOL    HW222561   9.126   6.869   7.604 -0.4111  1.1558  1.2755
 4595SOL     OW22562  12.108  10.574   2.023  0.0530  0.0469 -0.1243
 4595SOL    HW122563  12.076  10.513   1.957  2.0486  2.3220 -3.5070
 4595SOL    HW222564  12.036  10.636   2.036 -0.6099 -0.8254  0.4224
 4596SOL     OW22565   7.377  10.909  11.250 -0.0257 -0.6894  0.4459
 4596SOL    HW122566   7.286  10.882  11.233  0.7480 -3.1732 -0.2286
 4596SOL    HW222567   7.393  10.883  11.340 -0.3654  1.0620  1.0460
 4597SOL     OW22568   5.854   3.697   3.588  0.3834 -0.5072 -0.0072
 4597SOL    HW122569   5.858   3.784   3.549 -0.7550  0.2354  1.4298
 4597SOL    HW222570   5.938   3.686   3.633  1.2308 -0.9000 -1.6162
 4598SOL     OW22571   0.171   3.720   5.509 -0.1807  0.8998 -0.2044
 4598SOL    HW122572   0.187   3.785   5.441 -1.6854  2.3109  0.7207
 4598SOL    HW222573   0.205   3.760   5.589 -1.3273  0.6778  0.4194
 4599SOL     OW22574   9.005   7.512  11.056 -0.6217  0.8598 -0.3131
 4599SOL    HW122575   8.914   7.506  11.083 -0.2462  0.1798  0.8669
 4599SOL    HW222576   9.043   7.427  11.079  0.3996  1.2618 -0.4373
 4600SOL     OW22577  10.771  11.023  11.297 -0.1276 -0.1571  0.4567
 4600SOL    HW122578  10.793  11.082  11.225  0.1032 -0.1648  0.5207
 4600SOL    HW222579  10.803  11.068  11.376 -0.5855 -0.0435  0.5789
 4601SOL     OW22580   0.481   0.386   5.882  0.4729  0.5445  0.0964
 4601SOL    HW122581   0.576   0.382   5.890  0.5124 -0.6087 -0.7455
 4601SOL    HW222582   0.458   0.475   5.910  1.7893  0.8272  0.3189
 4602SOL     OW22583  11.657   1.030   7.552  0.4663 -0.7377 -0.0657
 4602SOL    HW122584  11.704   1.075   7.622  0.0975  0.0687 -0.3206
 4602SOL    HW222585  11.668   0.937   7.571  0.1600 -0.5293  1.2052
 4603SOL     OW22586   6.735   2.456   9.561  1.2211 -0.0752  0.5334
 4603SOL    HW122587   6.693   2.390   9.506  1.2550 -0.2971  0.7736
 4603SOL    HW222588   6.742   2.415   9.647  1.1248  0.2878  0.7177
 4604SOL     OW22589  10.938   8.756   8.827 -0.3996 -0.0533  0.2265
 4604SOL    HW122590  10.908   8.685   8.770 -0.6995  0.3443 -0.1147
 4604SOL    HW222591  11.019   8.788   8.786 -0.6438  0.2680 -0.0028
 4605SOL     OW22592   0.533   9.695   5.330 -0.0622  0.5268  0.5617
 4605SOL    HW122593   0.464   9.747   5.370 -2.1870 -0.5193 -1.5044
 4605SOL    HW222594   0.559   9.744   5.252 -1.2731 -0.8482 -0.7700
 4606SOL     OW22595   0.160  11.713   9.241  0.5616 -0.1695  0.6816
 4606SOL    HW122596   0.141  11.763   9.320  0.5036 -1.3409  1.4296
 4606SOL    HW222597   0.185  11.779   9.176 -0.0227  0.8612  1.4782
 4607SOL     OW22598   9.871   3.736  11.052  0.2554 -0.3887 -0.0432
 4607SOL    HW122599   9.939   3.672  11.074  1.0506  0.3372 -0.2869
 4607SOL    HW222600   9.858   3.725  10.958  0.0148 -0.5482  0.0093
 4608SOL     OW22601   8.268   5.035   6.351  0.3461 -0.1714  0.1924
 4608SOL    HW122602   8.300   5.121   6.380  1.7728 -0.9631  1.0980
 4608SOL    HW222603   8.313   5.020   6.268  0.5795 -0.2935  0.3380
 4609SOL     OW22604   5.034  10.008   1.959  0.1155 -0.1336  0.7275
 4609SOL    HW122605   5.072   9.930   1.919 -1.0629 -1.5597  2.2628
 4609SOL    HW222606   5.060  10.003   2.051 -1.6569  0.1714  1.2752
 4610SOL     OW22607   1.909  10.851   9.211  0.2758 -0.5455  0.6512
 4610SOL    HW122608   1.978  10.865   9.277  1.4186 -2.1227 -0.1255
 4610SOL    HW222609   1.892  10.757   9.216 -0.2316 -0.5353 -0.7172
 4611SOL     OW22610   2.857   2.933   6.622 -0.3639 -0.4508 -0.2119
 4611SOL    HW122611   2.942   2.892   6.639 -0.7442 -0.8020  0.9808
 4611SOL    HW222612   2.871   3.026   6.640 -0.5247 -0.6872  1.2943
 4612SOL     OW22613   1.907   5.039   0.086  0.3584  0.6002  0.2739
 4612SOL    HW122614   1.833   5.007   0.139  0.6949  0.8812  0.9302
 4612SOL    HW222615   1.878   5.125   0.055  0.1988  0.4801  0.0932
 4613SOL     OW22616   5.409   7.834   4.014 -0.6603  0.3092 -0.2633
 4613SOL    HW122617   5.329   7.877   3.984 -1.1976 -0.9341 -0.6830
 4613SOL    HW222618   5.381   7.746   4.039  0.4794  0.0398  0.1209
 4614SOL     OW22619   3.569  11.620   0.101  0.2904  0.0744 -0.1694
 4614SOL    HW122620   3.650  11.653   0.142  0.5170  1.5558 -1.7010
 4614SOL    HW222621   3.572  11.655   0.012 -2.8082  1.5156  0.1772
 4615SOL     OW22622   1.382  10.030   1.459 -0.0895 -1.1486 -0.2956
 4615SOL    HW122623   1.295   9.991   1.450 -0.5994 -0.4954  1.3578
 4615SOL    HW222624   1.424  10.016   1.374 -1.9251 -1.1990 -1.2506
 4616SOL     OW22625   7.083   6.444   7.492  0.2331 -0.4352  0.1443
 4616SOL    HW122626   7.000   6.492   7.496  0.7100  0.3520  1.2226
 4616SOL    HW222627   7.091   6.416   7.401 -0.9409 -0.0344 -0.0930
 4617SOL     OW22628   0.811   8.787   6.532  0.2042 -0.3872  0.1374
 4617SOL    HW122629   0.878   8.721   6.514  0.2891 -0.3175  0.1938
 4617SOL    HW222630   0.807   8.839   6.453 -0.0337 -0.6062  0.0027
 4618SOL     OW22631   7.984   4.376   3.916  0.2023 -0.4017 -0.2727
 4618SOL    HW122632   8.073   4.348   3.939  0.0272  1.4648  3.3533
 4618SOL    HW222633   7.927   4.311   3.955 -0.0641 -0.4379 -0.7149
 4619SOL     OW22634   0.055   2.197  10.239 -0.1100 -0.8802  0.2443
 4619SOL    HW122635   0.135   2.154  10.208  0.6322  0.1433  0.6676
 4619SOL    HW222636  -0.015   2.135  10.219  0.7314 -1.6090 -0.5470
 4620SOL     OW22637   3.457   5.737  11.492  0.6216  0.4588 -0.6007
 4620SOL    HW122638   3.375   5.691  11.512  0.1714  0.6573 -1.8949
 4620SOL    HW222639   3.488   5.696  11.412  1.2696  1.0550 -0.6611
 4621SOL     OW22640   8.352   6.385   1.927  0.3670  0.1527 -0.6177
 4621SOL    HW122641   8.399   6.469   1.926  0.5929  0.0313 -2.1485
 4621SOL    HW222642   8.414   6.323   1.889  0.0557 -0.6336  0.1393
 4622SOL     OW22643   9.965   4.516   3.337 -0.1187  0.4241  0.0042
 4622SOL    HW122644   9.884   4.515   3.388 -1.0345  1.1953 -1.3609
 4622SOL    HW222645   9.982   4.609   3.322  1.3360  0.2943  0.7177
 4623SOL     OW22646   4.693   0.621  12.358 -0.0228 -0.8365 -0.4700
 4623SOL    HW122647   4.642   0.697  12.331 -0.7228 -0.8592  0.7078
 4623SOL    HW222648   4.629   0.549  12.360  0.7978 -1.6865 -2.4063
 4624SOL     OW22649   6.353   1.017  12.473 -0.1897  0.0982 -0.2491
 4624SOL    HW122650   6.395   1.064  12.401 -0.7694  0.6321 -0.2535
 4624SOL    HW222651   6.420   1.009  12.540  0.1679  0.1652 -0.5985
 4625SOL     OW22652   1.184   4.129   6.855  0.4293  0.1198  0.5516
 4625SOL    HW122653   1.098   4.090   6.873  1.0518 -1.2658  0.6160
 4625SOL    HW222654   1.228   4.065   6.800  1.1447  1.1775 -0.1395
 4626SOL     OW22655  10.220   0.689   4.849  0.3558 -0.0928  0.5513
 4626SOL    HW122656  10.187   0.630   4.916  0.8937  0.5413  1.3953
 4626SOL    HW222657  10.216   0.638   4.768 -2.4621 -0.1549  0.6052
 4627SOL     OW22658   5.000  10.226   1.391 -0.2752  0.1178 -0.2499
 4627SOL    HW122659   4.953  10.143   1.386 -1.3583  0.7838 -2.3622
 4627SOL    HW222660   4.938  10.287   1.431  0.0211  0.2176  0.0605
 4628SOL     OW22661  10.223  11.223   4.639  0.1130  0.0185 -0.2558
 4628SOL    HW122662  10.221  11.128   4.633 -1.2749  0.0790 -1.4620
 4628SOL    HW222663  10.305  11.248   4.596  1.9633 -0.6791  2.5667
 4629SOL     OW22664   8.351   8.572   0.113 -0.4461  0.2001 -0.2149
 4629SOL    HW122665   8.375   8.636   0.180  1.1723 -0.0507 -0.5137
 4629SOL    HW222666   8.335   8.491   0.161  0.5450  0.0636 -0.0959
 4630SOL     OW22667   9.499   4.066   3.265  0.2043 -0.1706 -0.5652
 4630SOL    HW122668   9.551   3.993   3.230 -0.2609 -0.6580 -0.2499
 4630SOL    HW222669   9.477   4.118   3.189 -0.1539 -0.8077 -0.9055
 4631SOL     OW22670   7.048  10.541   8.727  0.0062  0.0724 -0.0013
 4631SOL    HW122671   7.135  10.511   8.754 -0.4565  0.3402  1.9660
 4631SOL    HW222672   7.025  10.484   8.654  0.4724 -2.3143  1.5758
 4632SOL     OW22673   9.056   6.507   3.079  0.5297 -0.1037 -0.2839
 4632SOL    HW122674   9.143   6.493   3.042  0.4274 -0.0541 -0.5488
 4632SOL    HW222675   9.063   6.591   3.125  0.8385 -0.4833  0.3702
 4633SOL     OW22676   4.700   6.721   6.444 -0.8983  0.6439 -0.3616
 4633SOL    HW122677   4.714   6.675   6.527 -4.7074 -2.0650 -0.9577
 4633SOL    HW222678   4.693   6.652   6.379 -0.7922  2.5302 -2.4869
 4634SOL     OW22679   5.276   2.813   4.238 -0.5704 -0.1926  0.0725
 4634SOL    HW122680   5.352   2.862   4.204  0.6430 -1.8576  0.2427
 4634SOL    HW222681   5.312   2.761   4.310 -2.1646 -0.1298  0.9582
 4635SOL     OW22682   2.300   4.105   7.387 -0.2067  0.3446  0.2779
 4635SOL    HW122683   2.342   4.100   7.301 -0.9028 -0.5173 -0.0200
 4635SOL    HW222684   2.229   4.041   7.384  2.8826 -3.7361  3.2525
 4636SOL     OW22685   4.719  10.461   7.458 -0.0784 -0.0343  0.4266
 4636SOL    HW122686   4.705  10.485   7.366  0.4595  0.1272  0.3850
 4636SOL    HW222687   4.701  10.367   7.460 -0.4343  0.0266  0.2293
 4637SOL     OW22688  11.116  10.884  11.619  0.2194  0.3560 -0.5071
 4637SOL    HW122689  11.036  10.880  11.671  0.7186 -0.0147  0.2599
 4637SOL    HW222690  11.104  10.960  11.561 -1.0121 -0.1691 -0.9789
 4638SOL     OW22691   2.094   0.969   6.313  0.0785 -0.1157 -0.1027
 4638SOL    HW122692   2.113   0.918   6.235  0.6502 -1.7995  1.0913
 4638SOL    HW222693   2.165   1.033   6.318 -0.9603  1.2822 -1.9264
 4639SOL     OW22694   3.106   9.118   1.512  0.5561 -0.5167  0.5203
 4639SOL    HW122695   3.153   9.075   1.440 -0.2354 -1.1734  0.3857
 4639SOL    HW222696   3.041   9.174   1.469  1.2952  0.5214  0.7041
 4640SOL     OW22697  12.114   1.244  11.758  0.0734  0.4276 -0.3074
 4640SOL    HW122698  12.043   1.262  11.697 -0.2552 -0.1458 -0.1058
 4640SOL    HW222699  12.075   1.255  11.844 -0.0309 -0.7757 -0.1830
 4641SOL     OW22700   8.695   4.481  12.543  0.0257 -0.2387  0.0754
 4641SOL    HW122701   8.667   4.563  12.584 -1.2895 -1.2499  1.2814
 4641SOL    HW222702   8.791   4.488  12.541  0.0146  0.7865  1.3304
 4642SOL     OW22703   0.959  12.018   4.095  0.0301  0.4983  1.1239
 4642SOL    HW122704   1.037  12.040   4.146  1.2412 -0.4320 -0.2271
 4642SOL    HW222705   0.927  11.937   4.134  1.2721 -0.5129  0.1635
 4643SOL     OW22706   1.525  11.377   3.072 -0.0827 -0.1689  0.2397
 4643SOL    HW122707   1.538  11.470   3.087  0.3144 -0.3889  1.4215
 4643SOL    HW222708   1.436  11.359   3.101 -0.3407 -0.0695 -0.4790
 4644SOL     OW22709   9.268   1.579   0.207  0.3113  0.5077 -0.7744
 4644SOL    HW122710   9.283   1.504   0.150 -0.8411  0.5206 -1.1257
 4644SOL    HW222711   9.201   1.549   0.269  1.7556  0.4021  0.7807
 4645SOL     OW22712   8.514   7.551  12.443  0.2778 -0.3259 -0.0625
 4645SOL    HW122713   8.584   7.507  12.395  0.6986  0.1601  0.0966
 4645SOL    HW222714   8.465   7.480  12.485  0.7405 -0.6622 -0.0889
 4646SOL     OW22715  12.338  10.071   0.432  0.1176  0.3721 -0.0989
 4646SOL    HW122716  12.410  10.130   0.454  0.7503 -0.5664  0.4370
 4646SOL    HW222717  12.344  10.001   0.497  1.0806 -1.6967 -2.2891
 4647SOL     OW22718  10.738   2.685   7.478  0.5370  0.1111 -0.4661
 4647SOL    HW122719  10.766   2.656   7.565  1.4066 -1.3590 -1.2169
 4647SOL    HW222720  10.750   2.780   7.480 -0.2591  0.2280  1.2859
 4648SOL     OW22721   5.693   7.995  10.935  0.0513 -0.0760 -0.1037
 4648SOL    HW122722   5.674   8.023  10.845  3.2544  2.4504 -0.1991
 4648SOL    HW222723   5.636   8.049  10.989 -1.3720 -1.0929 -0.5270
 4649SOL     OW22724  11.453   1.596  11.209  0.4953 -0.0018  0.2984
 4649SOL    HW122725  11.365   1.590  11.174  0.6920  0.9107 -0.3931
 4649SOL    HW222726  11.441   1.604  11.304 -0.1441 -0.1633  0.2305
 4650SOL     OW22727   5.902   7.618   3.287 -0.0344  0.4706  0.1912
 4650SOL    HW122728   5.970   7.685   3.280 -0.1111  0.4727 -0.5562
 4650SOL    HW222729   5.883   7.592   3.197 -0.9059  0.3420  0.3982
 4651SOL     OW22730   7.034  10.234   1.633  0.2258 -0.3038 -0.1832
 4651SOL    HW122731   7.038  10.323   1.596 -1.4179 -0.5898 -1.1345
 4651SOL    HW222732   7.037  10.247   1.728  0.6108  0.7144 -0.3237
 4652SOL     OW22733  10.983   0.153   3.227  0.0689  0.3396  0.0115
 4652SOL    HW122734  10.909   0.095   3.206  0.0201  1.0791 -2.1074
 4652SOL    HW222735  10.968   0.178   3.318 -0.8077 -1.6363  0.4818
 4653SOL     OW22736   4.758   5.189   9.536  0.7161  0.2744  0.5628
 4653SOL    HW122737   4.736   5.188   9.442 -0.5872  0.1819  0.8442
 4653SOL    HW222738   4.703   5.258   9.572  0.8899  0.0158  1.3286
 4654SOL     OW22739   1.677   9.796   7.298  0.5130  0.0784  0.0227
 4654SOL    HW122740   1.721   9.745   7.367  0.7693 -1.4908 -1.2499
 4654SOL    HW222741   1.594   9.823   7.338  1.1026  0.1015  1.2876
 4655SOL     OW22742   8.889   4.012   1.570 -0.1091  0.2228  0.2358
 4655SOL    HW122743   8.844   4.083   1.616  1.4765  0.9985  0.6442
 4655SOL    HW222744   8.898   3.943   1.636 -1.1943 -0.1841 -0.0179
 4656SOL     OW22745   7.799   3.487   7.388 -0.4042 -0.6617 -0.1021
 4656SOL    HW122746   7.885   3.486   7.346 -0.7820  1.3340 -1.0584
 4656SOL    HW222747   7.761   3.401   7.368  0.7364 -0.9729 -1.0191
 4657SOL     OW22748   9.502   4.574   1.788 -0.1309  0.3414  0.2687
 4657SOL    HW122749   9.471   4.523   1.713 -0.2160  1.2771 -0.3594
 4657SOL    HW222750   9.487   4.518   1.864  0.0893 -0.6826 -0.4312
 4658SOL     OW22751   5.470  11.151   5.240 -0.3296 -0.0842  0.2303
 4658SOL    HW122752   5.496  11.205   5.314 -2.2767  2.0557 -0.5296
 4658SOL    HW222753   5.535  11.171   5.172  0.0497 -0.1623  0.5695
 4659SOL     OW22754   6.003   6.759   7.744  0.0848  0.2498 -0.2205
 4659SOL    HW122755   6.093   6.759   7.710  0.4234  0.1029  0.6605
 4659SOL    HW222756   6.001   6.688   7.807 -0.6937  0.1767 -0.3183
 4660SOL     OW22757  10.465   1.184   9.455 -0.0356  0.6486  0.5324
 4660SOL    HW122758  10.426   1.182   9.368  0.5493 -1.1025  0.2529
 4660SOL    HW222759  10.512   1.100   9.462  1.3998  1.4987  1.8550
 4661SOL     OW22760   6.270  11.207   0.701 -0.0295  0.3112 -0.3458
 4661SOL    HW122761   6.341  11.205   0.637  1.5210 -0.0107  1.3121
 4661SOL    HW222762   6.242  11.299   0.702 -0.3112  0.2711 -1.6674
 4662SOL     OW22763   4.804   8.821   9.732 -0.0675  0.0723  0.3883
 4662SOL    HW122764   4.742   8.761   9.772 -1.2788  1.6106  0.9092
 4662SOL    HW222765   4.890   8.786   9.755 -0.7019 -2.1187 -0.3878
 4663SOL     OW22766   7.674   1.174   4.809 -0.2414 -0.4210 -0.4695
 4663SOL    HW122767   7.597   1.219   4.774 -0.5376 -0.8995 -0.4473
 4663SOL    HW222768   7.702   1.228   4.883 -1.2985 -0.8790  0.2981
 4664SOL     OW22769   1.760   0.677   5.906  0.1589 -0.7328  0.5696
 4664SOL    HW122770   1.691   0.742   5.899 -0.2416 -1.0693  1.2818
 4664SOL    HW222771   1.791   0.684   5.997  0.3438 -1.2910  0.5591
 4665SOL     OW22772   0.868   9.795   6.284  0.4220  0.1059  0.0525
 4665SOL    HW122773   0.780   9.833   6.285  0.0336 -0.7000 -1.3684
 4665SOL    HW222774   0.877   9.757   6.197  0.6097 -3.4440  1.4708
 4666SOL     OW22775   6.831   3.346   8.852  0.6063 -0.7216  0.1366
 4666SOL    HW122776   6.875   3.419   8.896 -0.6186  0.4530 -0.4807
 4666SOL    HW222777   6.772   3.310   8.918  0.2874 -0.3167  0.0755
 4667SOL     OW22778   9.257   6.383   7.626  0.1837  0.2235  0.1461
 4667SOL    HW122779   9.334   6.433   7.654  0.3299  0.7010 -1.0771
 4667SOL    HW222780   9.246   6.404   7.534 -1.7083  0.5383  0.3992
 4668SOL     OW22781   8.878   1.207   8.106  0.1232 -0.5712  0.8428
 4668SOL    HW122782   8.812   1.220   8.037 -0.8994 -1.6998  1.5704
 4668SOL    HW222783   8.842   1.251   8.183  1.2846  0.7220  0.6801
 4669SOL     OW22784   0.570  10.710   5.491 -0.2784  0.8591 -0.1165
 4669SOL    HW122785   0.645  10.674   5.443  0.4497  0.2421  1.4333
 4669SOL    HW222786   0.502  10.718   5.424 -0.4070 -3.0864 -0.7318
 4670SOL     OW22787   1.272   7.902   4.181 -0.6878  0.6562  0.1256
 4670SOL    HW122788   1.306   7.818   4.210 -0.5819  0.0698 -1.5908
 4670SOL    HW222789   1.203   7.923   4.243  0.1156 -0.0914  1.2969
 4671SOL     OW22790   8.877   3.732   9.936  0.8142  0.1537 -0.0525
 4671SOL    HW122791   8.965   3.718   9.971  0.1256 -4.3596  0.5293
 4671SOL    HW222792   8.870   3.670   9.863 -1.0650  2.3629 -1.9248
 4672SOL     OW22793   8.072   4.625  10.590  0.4119 -0.0060  0.8616
 4672SOL    HW122794   8.094   4.533  10.572 -0.7027  0.3459 -3.1737
 4672SOL    HW222795   7.993   4.621  10.643  0.5854 -1.3846  1.0491
 4673SOL     OW22796   1.555   9.721   6.140  0.1902 -0.6952  0.1789
 4673SOL    HW122797   1.511   9.665   6.204  1.4222  1.3318  3.0098
 4673SOL    HW222798   1.614   9.662   6.094 -0.8263 -2.2740  0.7834
 4674SOL     OW22799   6.556   4.952   5.342  0.3523  0.0825  0.7413
 4674SOL    HW122800   6.463   4.933   5.327  0.3068 -0.9052  2.1294
 4674SOL    HW222801   6.601   4.904   5.271 -0.1792  0.6078  0.0324
 4675SOL     OW22802  10.744   8.013   0.854 -0.4523  0.3669  0.6322
 4675SOL    HW122803  10.806   7.957   0.806 -0.7600  1.3628 -1.0065
 4675SOL    HW222804  10.799   8.072   0.905  0.0562  1.6593 -1.2853
 4676SOL     OW22805   7.286   7.379   2.797  0.3229 -0.2597 -0.3109
 4676SOL    HW122806   7.260   7.443   2.863  0.2069  0.1156 -0.7154
 4676SOL    HW222807   7.205   7.352   2.755  0.3435 -0.8848  0.0468
 4677SOL     OW22808   9.400   3.438   0.751 -0.3742 -0.1567  0.6772
 4677SOL    HW122809   9.474   3.494   0.728 -1.8684  1.1247 -1.3966
 4677SOL    HW222810   9.381   3.460   0.842  1.4361 -0.1505  1.0884
 4678SOL     OW22811   1.696   5.049  11.361 -0.0401  0.1930 -0.1698
 4678SOL    HW122812   1.674   5.122  11.420 -0.7567 -0.1994  0.0701
 4678SOL    HW222813   1.637   5.060  11.287  0.2043  0.1472 -0.3710
 4679SOL     OW22814   0.412   8.202   7.908  0.2464  0.0461 -0.2863
 4679SOL    HW122815   0.380   8.268   7.847  1.5227  1.4783  0.4999
 4679SOL    HW222816   0.405   8.244   7.994 -1.2761 -1.8196  0.5783
 4680SOL     OW22817  12.579   2.895  10.685  0.0572 -0.6303  0.3518
 4680SOL    HW122818  12.583   2.849  10.768  0.3918 -1.0269  0.1155
 4680SOL    HW222819  12.492   2.875  10.650  0.2197 -1.1237  0.2266
 4681SOL     OW22820  12.380   9.647   7.564 -0.8247  0.0783  0.8556
 4681SOL    HW122821  12.350   9.725   7.517  2.0428  0.1530 -1.1985
 4681SOL    HW222822  12.396   9.677   7.653 -1.4577  1.3696  0.5562
 4682SOL     OW22823   5.034   2.117   7.623  0.6215 -0.1756  0.2413
 4682SOL    HW122824   5.032   2.133   7.718 -1.7502  0.9843  0.0522
 4682SOL    HW222825   5.029   2.204   7.584 -0.3684 -0.7299 -0.9226
 4683SOL     OW22826   3.581  10.329   7.395  0.1902  0.7411 -0.4451
 4683SOL    HW122827   3.518  10.399   7.381 -0.2286  0.2807 -0.9263
 4683SOL    HW222828   3.527  10.250   7.405  0.7016 -0.0088 -2.9182
 4684SOL     OW22829   7.880   2.034   5.266 -0.0552 -0.1408  0.2717
 4684SOL    HW122830   7.905   2.094   5.335  0.5593  1.3122 -1.1494
 4684SOL    HW222831   7.927   2.065   5.188 -2.0882 -0.6132 -1.2368
 4685SOL     OW22832   0.797   8.749   3.149  0.4112  0.1860 -0.0117
 4685SOL    HW122833   0.867   8.809   3.177 -0.5678  1.1963  0.3496
 4685SOL    HW222834   0.722   8.774   3.203 -0.0944 -1.2182 -0.0362
 4686SOL     OW22835   0.007   0.231   0.377 -0.8239 -0.2467  0.1390
 4686SOL    HW122836  -0.064   0.208   0.317 -1.4239  0.7115  0.4616
 4686SOL    HW222837   0.067   0.157   0.372 -1.6377 -0.8871 -0.4563
 4687SOL     OW22838  11.009  12.102  11.819  0.1031 -0.6050  0.1838
 4687SOL    HW122839  11.003  12.190  11.782  1.0509 -0.5358  0.1805
 4687SOL    HW222840  10.933  12.096  11.877  0.3016  0.3996  0.5726
 4688SOL     OW22841   4.016   2.356   8.200 -0.2757  0.3198  1.4740
 4688SOL    HW122842   4.073   2.317   8.134 -1.2206  0.5299  0.5201
 4688SOL    HW222843   4.046   2.317   8.283 -0.0914 -1.1510  0.7544
 4689SOL     OW22844  11.753  12.078  10.996  0.0531 -0.4066 -0.4955
 4689SOL    HW122845  11.798  12.014  10.940  0.0869  0.1154 -1.0809
 4689SOL    HW222846  11.662  12.050  10.997  0.4441 -1.7688  1.1092
 4690SOL     OW22847   1.073  11.582  11.573  0.4632  0.2107 -0.3526
 4690SOL    HW122848   1.066  11.662  11.521  0.2743  0.3675 -0.0821
 4690SOL    HW222849   1.145  11.598  11.633 -1.1958  1.1803  1.4722
 4691SOL     OW22850  10.321   3.175   9.147 -0.1429  0.4013  0.0126
 4691SOL    HW122851  10.301   3.126   9.226 -0.6918  1.2645  0.4260
 4691SOL    HW222852  10.282   3.124   9.076  2.1407 -1.4965 -0.0073
 4692SOL     OW22853   3.101   4.409   2.067 -0.2920  0.3904 -0.9054
 4692SOL    HW122854   3.161   4.451   2.129 -0.6698 -0.3708  0.0110
 4692SOL    HW222855   3.158   4.353   2.014 -0.2571 -0.9890  0.5230
 4693SOL     OW22856   1.430   7.339  11.929 -0.1916  0.0098  0.6379
 4693SOL    HW122857   1.464   7.392  12.001  0.9717 -0.9730  0.8456
 4693SOL    HW222858   1.503   7.331  11.868 -1.0161  0.4220 -0.4348
 4694SOL     OW22859   6.650   6.978  11.401  0.1756 -0.0991 -1.5173
 4694SOL    HW122860   6.698   7.061  11.395 -1.3338  0.7279 -2.8757
 4694SOL    HW222861   6.654   6.942  11.313 -2.2657  0.3852 -1.8998
 4695SOL     OW22862   3.637   2.154   0.121 -0.1565  0.1537 -0.5031
 4695SOL    HW122863   3.622   2.248   0.121  0.2870  0.2410 -1.5235
 4695SOL    HW222864   3.584   2.121   0.049  0.3725 -0.2552 -0.7170
 4696SOL     OW22865   4.164   5.697   9.321  0.4310 -0.4230 -0.3429
 4696SOL    HW122866   4.192   5.633   9.254  0.3690  0.5668 -1.3457
 4696SOL    HW222867   4.069   5.687   9.325  0.3259  0.1531 -1.1052
 4697SOL     OW22868   7.537   5.542   6.653 -0.0038 -0.1282  0.2727
 4697SOL    HW122869   7.471   5.545   6.723 -0.5032  0.5060 -0.2132
 4697SOL    HW222870   7.544   5.632   6.623 -0.8795 -0.6088 -1.4853
 4698SOL     OW22871   7.861   3.740   4.330 -0.1109 -0.4929 -0.3804
 4698SOL    HW122872   7.949   3.771   4.309 -0.8239  2.0951  0.0650
 4698SOL    HW222873   7.804   3.809   4.297 -1.8768 -1.3182  0.8248
 4699SOL     OW22874   0.012   9.730   6.712 -0.4330 -0.2920  0.3338
 4699SOL    HW122875   0.101   9.763   6.697  0.0960 -1.2734  1.1926
 4699SOL    HW222876  -0.036   9.754   6.633  0.5166  0.5255 -0.0114
 4700SOL     OW22877   1.354   5.771   8.534 -0.0209 -0.3318  0.1875
 4700SOL    HW122878   1.391   5.859   8.531  0.0739 -0.1496  3.1130
 4700SOL    HW222879   1.426   5.716   8.565  0.1403 -1.6544 -2.3185
 4701SOL     OW22880   5.105   8.507   4.213 -0.0688  0.6067 -0.9606
 4701SOL    HW122881   5.073   8.597   4.216 -1.2805  0.1883 -0.3841
 4701SOL    HW222882   5.090   8.480   4.123 -1.4446  0.4137 -0.7001
 4702SOL     OW22883   6.519  11.649  10.271 -0.0844 -0.1357  0.0390
 4702SOL    HW122884   6.588  11.582  10.263 -0.8159 -0.9890  0.6906
 4702SOL    HW222885   6.518  11.692  10.186  1.7008  0.3379  0.2242
 4703SOL     OW22886   3.578  12.303   1.809  0.3750  0.0358  0.4453
 4703SOL    HW122887   3.515  12.358   1.761  0.3306 -0.2085  0.2207
 4703SOL    HW222888   3.590  12.227   1.753 -0.3591 -0.6780  1.2294
 4704SOL     OW22889  12.165   1.483  10.921 -0.0488 -0.1665  0.2585
 4704SOL    HW122890  12.108   1.507  10.848 -1.2316  1.2723  1.5867
 4704SOL    HW222891  12.105   1.460  10.992  1.0758 -1.3591  0.8590
 4705SOL     OW22892   4.871   1.128   3.954 -0.0271  0.1049 -0.1110
 4705SOL    HW122893   4.882   1.203   4.013 -1.0556 -0.1691  0.4512
 4705SOL    HW222894   4.832   1.060   4.009  2.8931 -1.6566  0.0027
 4706SOL     OW22895   2.439  12.427  12.473  0.3047 -0.4802 -0.2045
 4706SOL    HW122896   2.389  12.505  12.498  2.0755  0.2591  1.2554
 4706SOL    HW222897   2.496  12.410  12.548  1.9591 -1.4963 -1.6145
 4707SOL     OW22898   0.250   7.319   9.219  0.1328 -0.7060  0.5900
 4707SOL    HW122899   0.241   7.341   9.311 -2.7651 -0.1191  0.2556
 4707SOL    HW222900   0.287   7.398   9.179 -1.3514  0.1670  0.8571
 4708SOL     OW22901   2.887   8.607   7.781 -0.3183 -0.0462  0.0810
 4708SOL    HW122902   2.923   8.519   7.791  0.6783  0.5201  1.9636
 4708SOL    HW222903   2.820   8.613   7.848  0.4015  0.9802  0.7430
 4709SOL     OW22904   4.382   6.635   2.243  0.6243 -0.0405  0.3049
 4709SOL    HW122905   4.291   6.650   2.218  0.7568  0.6732  0.2268
 4709SOL    HW222906   4.384   6.546   2.277  0.1438 -0.5105 -0.8512
 4710SOL     OW22907   0.844   3.246   7.977  0.0647  0.4205 -0.1112
 4710SOL    HW122908   0.768   3.210   7.931 -1.0988  1.8233  0.6072
 4710SOL    HW222909   0.807   3.312   8.037  1.7992  0.7579  0.6680
 4711SOL     OW22910   0.694   0.747  11.317 -1.0281 -0.0728 -0.1976
 4711SOL    HW122911   0.630   0.803  11.273 -1.0215  1.2779  1.4147
 4711SOL    HW222912   0.752   0.808  11.363 -0.0707 -1.3654  0.3834
 4712SOL     OW22913   7.851   2.068   3.412 -0.0419  1.2025 -0.0828
 4712SOL    HW122914   7.814   2.071   3.500 -0.9635  1.1544 -0.4572
 4712SOL    HW222915   7.815   2.146   3.369  0.8946  1.5579 -0.2313
 4713SOL     OW22916  10.884   1.262   9.808 -0.3428 -0.3542  0.5362
 4713SOL    HW122917  10.916   1.178   9.777 -0.2251 -0.1227  0.0161
 4713SOL    HW222918  10.811   1.240   9.866 -1.8754 -0.7569 -1.4406
 4714SOL     OW22919   0.264  10.843   2.846 -0.5727 -0.1088  0.0748
 4714SOL    HW122920   0.299  10.775   2.903  0.4658 -0.4991 -0.9836
 4714SOL    HW222921   0.274  10.924   2.896 -1.4532 -0.6585  1.1873
 4715SOL     OW22922   1.758   0.036  12.565 -0.1192  0.5033 -0.4310
 4715SOL    HW122923   1.714  -0.043  12.597 -0.5780  0.3775 -1.3225
 4715SOL    HW222924   1.783   0.083  12.644  1.7307 -1.3639  0.1893
 4716SOL     OW22925  10.295   9.355   0.275 -0.2148 -0.0990 -0.2724
 4716SOL    HW122926  10.324   9.313   0.357 -0.3358  0.4054  0.0340
 4716SOL    HW222927  10.376   9.379   0.230 -0.1286 -1.2265 -0.7596
 4717SOL     OW22928   0.461   7.592   8.842 -0.1147 -0.1717 -0.1947
 4717SOL    HW122929   0.399   7.530   8.881 -0.9399 -0.7174 -2.2122
 4717SOL    HW222930   0.537   7.538   8.820  0.5585  0.2341  1.0855
 4718SOL     OW22931   9.312   4.003   2.818 -0.4864  0.0099  0.0755
 4718SOL    HW122932   9.268   3.936   2.869 -2.1016  0.5010 -0.5789
 4718SOL    HW222933   9.241   4.045   2.768  0.3601  2.4848  0.7791
 4719SOL     OW22934   9.318   7.130   6.687 -0.0603  0.3630 -0.0163
 4719SOL    HW122935   9.290   7.185   6.614 -0.0925  1.3474  0.7239
 4719SOL    HW222936   9.249   7.064   6.694  0.6837 -0.6781 -1.8205
 4720SOL     OW22937   8.319  10.190  11.474 -0.3478 -0.0048 -0.3981
 4720SOL    HW122938   8.263  10.122  11.511 -1.0738  1.5658  1.4937
 4720SOL    HW222939   8.259  10.254  11.436  0.1801  1.0576  0.5131
 4721SOL     OW22940   9.137   0.009   9.461 -0.2486  0.1580  0.2495
 4721SOL    HW122941   9.155  -0.027   9.548 -0.0868  1.8432  0.9522
 4721SOL    HW222942   9.059  -0.039   9.431 -0.3535 -0.3968  1.3517
 4722SOL     OW22943  11.570   7.448   3.036 -0.1573  0.2142 -0.1072
 4722SOL    HW122944  11.607   7.447   3.124 -0.7933 -0.5224  0.1630
 4722SOL    HW222945  11.522   7.531   3.032 -1.6449 -0.5447  0.9139
 4723SOL     OW22946  10.272  10.633  10.883 -0.5102 -0.3428  0.2576
 4723SOL    HW122947  10.290  10.591  10.968  1.7494  1.2443  0.6742
 4723SOL    HW222948  10.336  10.595  10.824 -0.6243  0.1231 -0.1733
 4724SOL     OW22949   1.618   0.964   0.969  0.1498 -0.3130  0.5706
 4724SOL    HW122950   1.585   0.889   1.019 -0.3487 -1.1257 -0.9254
 4724SOL    HW222951   1.540   1.018   0.952  0.5777  0.8478  2.0658
 4725SOL     OW22952   4.762   4.129   6.765  0.6443  0.0353 -0.3518
 4725SOL    HW122953   4.829   4.114   6.831  1.7608  3.2213 -0.5980
 4725SOL    HW222954   4.809   4.165   6.690 -1.0594  0.0723 -1.4656
 4726SOL     OW22955   3.022  11.293  12.208  0.0554 -0.4124  0.5506
 4726SOL    HW122956   2.954  11.242  12.165 -1.8750  1.0902  1.7001
 4726SOL    HW222957   3.026  11.259  12.297  1.3515 -0.9719  0.2978
 4727SOL     OW22958   5.795   1.981   0.334 -0.2208 -0.2037 -0.1292
 4727SOL    HW122959   5.878   1.966   0.379 -0.8959 -0.4498  1.1027
 4727SOL    HW222960   5.817   1.985   0.242  0.9547 -1.9424  0.0204
 4728SOL     OW22961   8.275   6.377   7.594  0.0686 -0.1628 -0.2508
 4728SOL    HW122962   8.209   6.313   7.567 -0.5404  0.1270  0.5072
 4728SOL    HW222963   8.263   6.384   7.689  0.6627  0.4897 -0.2205
 4729SOL     OW22964   5.184   1.688   6.962 -0.9276 -0.3079  0.1044
 4729SOL    HW122965   5.148   1.702   6.874 -0.5190 -0.1870 -0.0445
 4729SOL    HW222966   5.120   1.728   7.021 -1.0242 -0.0740 -0.1593
 4730SOL     OW22967   7.367   5.145   7.670 -0.1010  0.6221 -0.5472
 4730SOL    HW122968   7.277   5.172   7.652 -0.3954 -1.1829 -2.0608
 4730SOL    HW222969   7.400   5.212   7.731 -2.1701  1.7823 -0.5981
 4731SOL     OW22970   6.435   3.477   1.594 -0.0920  0.3521 -0.3054
 4731SOL    HW122971   6.458   3.407   1.656  0.5671  0.8534  0.0323
 4731SOL    HW222972   6.505   3.475   1.529 -1.1611 -0.6576 -1.4861
 4732SOL     OW22973   4.931  10.783   0.700 -0.1390 -0.0101 -0.4604
 4732SOL    HW122974   5.014  10.762   0.656  1.1216 -0.5802  2.0254
 4732SOL    HW222975   4.865  10.741   0.645  1.4432 -1.7336 -1.1902
 4733SOL     OW22976   7.452   0.165   9.339 -0.3962  0.1820 -0.5259
 4733SOL    HW122977   7.465   0.214   9.420  0.0765 -0.9276  0.0864
 4733SOL    HW222978   7.392   0.220   9.288 -1.3991  0.5015  0.9229
 4734SOL     OW22979  11.593   4.182   4.152 -0.1423 -0.0334 -0.5599
 4734SOL    HW122980  11.512   4.219   4.118 -0.7184 -1.9247 -1.3372
 4734SOL    HW222981  11.643   4.157   4.074  0.4239 -0.4784 -0.0625
 4735SOL     OW22982  10.274   8.797  12.290 -0.0303  0.4814 -0.0348
 4735SOL    HW122983  10.252   8.886  12.316  1.4583  0.1807  2.5599
 4735SOL    HW222984  10.365   8.802  12.261 -0.7281  0.2151 -2.5544
 4736SOL     OW22985   0.080   3.232   1.889 -0.0628  0.1676  0.0628
 4736SOL    HW122986   0.153   3.273   1.935  0.2964  1.3074 -1.4151
 4736SOL    HW222987   0.076   3.279   1.805 -0.9738 -1.4926 -0.8664
 4737SOL     OW22988   1.039   6.223  12.567  0.0644 -0.3685 -0.7407
 4737SOL    HW122989   1.030   6.270  12.650 -0.3209  0.0433 -1.0150
 4737SOL    HW222990   1.046   6.291  12.501  0.5762 -0.6968 -1.0301
 4738SOL     OW22991   8.821   2.812  11.012  0.4704  0.0741  0.4617
 4738SOL    HW122992   8.772   2.779  11.088 -0.6154 -0.2452 -0.3525
 4738SOL    HW222993   8.757   2.815  10.942  1.5523 -0.0439 -0.5697
 4739SOL     OW22994   0.112   6.563   8.752  0.6239 -0.2613 -0.1443
 4739SOL    HW122995   0.143   6.644   8.792  0.5098 -0.4084  0.2545
 4739SOL    HW222996   0.040   6.589   8.695  0.4547 -0.1043  0.1393
 4740SOL     OW22997   4.872   4.430  12.291  0.5559 -0.7999 -0.1297
 4740SOL    HW122998   4.897   4.373  12.363 -1.0069 -0.5622  0.6527
 4740SOL    HW222999   4.781   4.407  12.272 -0.5711  2.1334  1.0129
 4741SOL     OW23000   1.534   0.891   4.831  0.3866 -0.2025 -0.6890
 4741SOL    HW123001   1.611   0.850   4.868 -0.0581  0.0119  0.4973
 4741SOL    HW223002   1.461   0.856   4.882 -0.4872 -1.4770 -2.6635
 4742SOL     OW23003   2.240  10.803   8.984 -0.0834 -0.5118 -0.2129
 4742SOL    HW123004   2.282  10.830   8.902  1.6341 -1.6206  0.2646
 4742SOL    HW223005   2.243  10.882   9.039 -0.2232 -0.0888 -0.8007
 4743SOL     OW23006   8.135   2.595   3.180  0.4777 -0.6783  0.1105
 4743SOL    HW123007   8.191   2.520   3.161  3.2257  1.5517 -1.2507
 4743SOL    HW223008   8.057   2.581   3.125  2.4555 -0.9654 -2.8605
 4744SOL     OW23009   7.129   6.287   5.649 -0.2306  0.3313  0.1704
 4744SOL    HW123010   7.173   6.372   5.649  1.6544 -0.6065 -0.9581
 4744SOL    HW223011   7.116   6.268   5.742  0.1380  1.4305  0.4670
 4745SOL     OW23012  11.523   3.426   4.005  0.0201 -0.0501 -0.4084
 4745SOL    HW123013  11.575   3.478   3.945 -0.9084 -0.3566 -1.5268
 4745SOL    HW223014  11.497   3.349   3.954 -3.0382  0.9418 -0.5536
 4746SOL     OW23015   5.724   6.434   0.643 -0.3106  0.0453 -0.2068
 4746SOL    HW123016   5.700   6.459   0.554  2.6242  0.6553 -0.9321
 4746SOL    HW223017   5.795   6.494   0.667  1.5945 -2.4849  1.0484
 4747SOL     OW23018   7.046   9.024  12.544  0.1531  0.3929 -0.7489
 4747SOL    HW123019   7.047   8.930  12.559 -1.7955  0.5124  0.6083
 4747SOL    HW223020   7.079   9.035  12.455 -2.1944 -1.8157 -2.0104
 4748SOL     OW23021   2.039   0.446   3.822 -0.6599 -0.1765 -0.0037
 4748SOL    HW123022   2.058   0.384   3.751 -1.3013  0.5656 -0.8449
 4748SOL    HW223023   1.990   0.394   3.886  1.4520 -1.3384  0.8086
 4749SOL     OW23024  11.236  12.277   6.602  0.7223  0.6481 -0.3664
 4749SOL    HW123025  11.246  12.182   6.590  1.4269  0.8476 -1.4047
 4749SOL    HW223026  11.215  12.310   6.515  2.5142  1.6999 -0.4409
 4750SOL     OW23027   0.284   8.445   3.528 -0.1151  0.4880 -0.4173
 4750SOL    HW123028   0.332   8.511   3.479  0.4339  0.7163  0.3987
 4750SOL    HW223029   0.219   8.411   3.466  2.7427 -1.7252 -2.4303
 4751SOL     OW23030   8.662   3.860   4.547 -0.2055 -0.0070  0.3883
 4751SOL    HW123031   8.569   3.878   4.533 -0.0953 -0.0477 -0.4620
 4751SOL    HW223032   8.689   3.923   4.614 -1.1336 -0.8630  1.5898
 4752SOL     OW23033   0.173  11.504  10.911  0.3825 -0.3217 -0.1104
 4752SOL    HW123034   0.203  11.560  10.838  0.3430 -1.0216 -0.6737
 4752SOL    HW223035   0.081  11.528  10.922  0.6063  0.3888  0.2792
 4753SOL     OW23036   0.627  10.474   9.143  0.7129  0.4632  0.2770
 4753SOL    HW123037   0.673  10.405   9.096  1.6689 -0.0936  1.9375
 4753SOL    HW223038   0.571  10.515   9.078  1.3719 -0.7939 -1.1246
 4754SOL     OW23039   7.039   5.452   8.315 -0.1274 -0.1624  0.4865
 4754SOL    HW123040   7.096   5.455   8.237 -1.1259  0.6285 -0.2396
 4754SOL    HW223041   7.047   5.362   8.346  0.8635 -0.2971 -0.0926
 4755SOL     OW23042   5.316   6.824   3.502 -0.0516  0.3388 -0.3102
 4755SOL    HW123043   5.224   6.836   3.479 -0.9776 -1.2686  2.0871
 4755SOL    HW223044   5.358   6.906   3.477 -2.0721  1.0355 -1.6825
 4756SOL     OW23045   3.593   3.882   7.185  0.1079  0.1958 -0.2522
 4756SOL    HW123046   3.537   3.894   7.108  0.0908 -0.2397 -0.3105
 4756SOL    HW223047   3.533   3.854   7.254  0.4841 -2.1291 -0.7954
 4757SOL     OW23048   0.442   0.099   7.454  0.3902 -0.1355 -0.3789
 4757SOL    HW123049   0.406   0.011   7.468  1.4991 -0.6491 -0.7062
 4757SOL    HW223050   0.427   0.117   7.362  1.0432 -0.3914 -0.5396
 4758SOL     OW23051   1.645   4.444   2.371 -0.0520  0.3627 -1.2078
 4758SOL    HW123052   1.636   4.524   2.319 -0.0420 -0.2952 -2.2418
 4758SOL    HW223053   1.657   4.476   2.460  0.6983  1.5440 -1.6953
 4759SOL     OW23054   4.156   8.382   4.516  0.3282  0.3896  0.3763
 4759SOL    HW123055   4.074   8.419   4.484  0.5620  1.2352  0.7073
 4759SOL    HW223056   4.141   8.367   4.609  1.0310  2.0415  0.7941
 4760SOL     OW23057   3.883   9.707   8.241  0.1958 -0.1444  0.0802
 4760SOL    HW123058   3.912   9.637   8.182 -1.1900 -1.8388  1.3169
 4760SOL    HW223059   3.964   9.744   8.275  0.9950 -2.0019  0.3418
 4761SOL     OW23060   7.362   6.288  11.187 -0.3026 -0.0242  0.3393
 4761SOL    HW123061   7.424   6.242  11.244 -0.9963 -0.0339  1.1025
 4761SOL    HW223062   7.326   6.358  11.242  1.2992  1.9845 -1.0116
 4762SOL     OW23063  12.339   2.690   8.888  0.4120  0.4364  0.8363
 4762SOL    HW123064  12.348   2.596   8.905 -0.3045  0.4262  1.2080
 4762SOL    HW223065  12.416   2.713   8.835  0.4611 -0.4053  0.5386
 4763SOL     OW23066   5.484   3.652   5.437 -0.4192  0.3395 -0.3176
 4763SOL    HW123067   5.551   3.695   5.490  1.4430 -0.6784 -1.7096
 4763SOL    HW223068   5.455   3.719   5.375  0.2762  0.4451 -0.5351
 4764SOL     OW23069   2.769   1.063   0.690 -0.0992 -0.0728  0.5369
 4764SOL    HW123070   2.717   1.034   0.765  1.0144 -0.1593  1.3002
 4764SOL    HW223071   2.708   1.114   0.637 -0.7134  0.7165  1.9463
 4765SOL     OW23072   3.033   5.155   5.043 -0.4248  0.0272  0.1677
 4765SOL    HW123073   3.011   5.090   4.975 -0.4110 -0.4594  0.6214
 4765SOL    HW223074   3.117   5.125   5.078 -1.1090 -0.5141  1.3624
 4766SOL     OW23075   5.603   2.204   2.872  0.2805  0.1256  0.3879
 4766SOL    HW123076   5.632   2.115   2.891  1.8189  0.7686  1.2540
 4766SOL    HW223077   5.583   2.242   2.957  0.7769  0.9603  0.1493
 4767SOL     OW23078   0.787   0.231   3.969 -0.2844 -0.1763  0.1283
 4767SOL    HW123079   0.804   0.137   3.980 -0.2930 -0.1863  0.0599
 4767SOL    HW223080   0.716   0.250   4.030  0.8599  0.1473  1.4214
 4768SOL     OW23081  12.039   8.411   9.235  0.7619  1.0859  0.4785
 4768SOL    HW123082  11.959   8.456   9.263  0.7647  1.1776  0.3367
 4768SOL    HW223083  12.092   8.479   9.193  0.9833  1.0589  0.7119
 4769SOL     OW23084   3.301  12.261   2.187 -0.6734 -0.4921 -0.0582
 4769SOL    HW123085   3.384  12.246   2.142  1.0043  1.2216  2.2244
 4769SOL    HW223086   3.242  12.194   2.152  1.9431 -2.4667 -1.0135
 4770SOL     OW23087   2.457   8.634   6.919 -0.7112  0.6430 -0.5398
 4770SOL    HW123088   2.492   8.718   6.948  1.9484 -0.9260  1.3374
 4770SOL    HW223089   2.407   8.602   6.994  0.9041 -0.7135  0.0220
 4771SOL     OW23090  11.278  12.136   8.124 -0.6380 -0.1919 -0.1761
 4771SOL    HW123091  11.208  12.088   8.168 -1.8000  2.2601  0.8350
 4771SOL    HW223092  11.355  12.121   8.178 -0.9800 -0.8189  0.1547
 4772SOL     OW23093   6.195  10.345  11.321 -0.1515 -0.5162  0.1509
 4772SOL    HW123094   6.138  10.281  11.363 -0.6339 -0.0893  0.1676
 4772SOL    HW223095   6.147  10.370  11.241  1.3468 -2.3050 -1.3953
 4773SOL     OW23096   6.474   0.282   8.229  0.3829 -0.0409 -0.0795
 4773SOL    HW123097   6.425   0.280   8.147 -1.0923 -0.4977  0.7935
 4773SOL    HW223098   6.483   0.190   8.254  0.6243  0.1102  0.4055
 4774SOL     OW23099  12.262  11.653  11.169 -0.0995 -0.1121 -0.0331
 4774SOL    HW123100  12.174  11.664  11.207  0.0912  2.6669 -0.1375
 4774SOL    HW223101  12.267  11.723  11.103  2.6630  0.6944  0.9199
 4775SOL     OW23102  12.391   8.616   7.076 -0.7246 -0.4232  0.0314
 4775SOL    HW123103  12.427   8.637   6.989  1.0076 -2.3651  0.2218
 4775SOL    HW223104  12.303   8.653   7.074  0.7208  3.4732 -0.9169
 4776SOL     OW23105   9.805   4.769   0.478  0.5524 -0.1514  0.0374
 4776SOL    HW123106   9.742   4.732   0.540  0.3135  1.2263  0.6494
 4776SOL    HW223107   9.879   4.708   0.479 -0.1758 -1.0527  0.3613
 4777SOL     OW23108   0.342   2.597   2.229  0.1864  0.0324  0.1861
 4777SOL    HW123109   0.291   2.668   2.267 -0.4549  0.1310 -0.8048
 4777SOL    HW223110   0.279   2.525   2.220  0.4722 -0.1811 -0.1238
 4778SOL     OW23111   0.955  12.352   8.948 -0.0385  0.2588  0.0606
 4778SOL    HW123112   0.870  12.375   8.909  0.2905  0.8726 -0.3250
 4778SOL    HW223113   0.941  12.357   9.042 -0.4632  0.2335  0.0004
 4779SOL     OW23114   1.891   7.271  12.465 -0.3461 -0.1149 -0.1520
 4779SOL    HW123115   1.801   7.298  12.482 -0.9139 -1.9912  0.0502
 4779SOL    HW223116   1.942   7.314  12.535 -1.3660 -0.5417  0.8854
 4780SOL     OW23117   7.811   5.105   1.528 -0.6176 -0.4397  0.0837
 4780SOL    HW123118   7.750   5.081   1.598 -0.4082 -2.0090 -0.2385
 4780SOL    HW223119   7.757   5.103   1.449 -0.7954  1.0904  0.1247
 4781SOL     OW23120   0.434   0.531   9.472 -0.7982  0.0335 -0.1039
 4781SOL    HW123121   0.490   0.604   9.444  0.5058 -0.3402  1.4382
 4781SOL    HW223122   0.464   0.457   9.420 -0.8050  0.1480 -0.2731
 4782SOL     OW23123   4.884   7.612   7.708  0.1236 -0.0917  0.2770
 4782SOL    HW123124   4.866   7.662   7.629  0.0647  0.3127  0.5457
 4782SOL    HW223125   4.887   7.677   7.778 -0.1708 -0.4830  0.6609
 4783SOL     OW23126  11.726   1.178   4.641  0.4900 -0.0364 -0.0376
 4783SOL    HW123127  11.715   1.262   4.595  0.9110 -1.1578 -2.3429
 4783SOL    HW223128  11.661   1.121   4.602 -0.0931 -0.7028  1.8250
 4784SOL     OW23129   0.373   5.806   7.495  0.2586 -0.1506  0.2026
 4784SOL    HW123130   0.287   5.779   7.527  0.3671 -0.4327  0.2592
 4784SOL    HW223131   0.355   5.855   7.415  0.1318 -1.6385 -0.7292
 4785SOL     OW23132   5.770   2.940   4.042  0.6151 -0.0453  0.2547
 4785SOL    HW123133   5.742   2.971   3.956  0.4838 -1.1643 -0.1294
 4785SOL    HW223134   5.860   2.910   4.029  0.2855 -1.0890  0.2591
 4786SOL     OW23135   6.744   3.085   8.801  0.0832  0.4077 -0.4801
 4786SOL    HW123136   6.804   3.150   8.840 -0.0311  1.4694 -1.9848
 4786SOL    HW223137   6.778   3.071   8.713 -0.5938 -0.6964 -0.5777
 4787SOL     OW23138   6.227   3.285   8.584  0.0819 -0.6034 -0.4220
 4787SOL    HW123139   6.323   3.280   8.591  0.1516  0.9075 -0.1037
 4787SOL    HW223140   6.205   3.374   8.609 -1.7189 -1.8158  2.9533
 4788SOL     OW23141   4.594  11.982   3.520  0.0288 -1.0196  0.0746
 4788SOL    HW123142   4.570  12.009   3.608 -0.6802 -0.8725 -0.1573
 4788SOL    HW223143   4.612  12.063   3.473  2.4709 -1.1623  0.6261
 4789SOL     OW23144   1.812   8.683   1.574  0.2401 -0.1406  0.5666
 4789SOL    HW123145   1.847   8.596   1.587  0.4245 -0.0900  0.4050
 4789SOL    HW223146   1.741   8.691   1.638 -1.3280 -1.2707 -0.9344
 4790SOL     OW23147   0.289  11.254   5.943 -0.0006  0.4714  0.2903
 4790SOL    HW123148   0.363  11.242   6.002 -1.3691 -2.2864  1.6410
 4790SOL    HW223149   0.236  11.322   5.984  0.0160 -0.0935  1.2766
 4791SOL     OW23150   0.739   0.357   0.223  0.0156  0.5790 -0.2667
 4791SOL    HW123151   0.649   0.387   0.236 -0.2666  0.1142 -1.0879
 4791SOL    HW223152   0.739   0.267   0.256 -0.0152  0.3289 -0.9299
 4792SOL     OW23153   9.411   1.234   2.767 -0.3022 -0.2238 -0.4229
 4792SOL    HW123154   9.372   1.261   2.850  0.4125 -0.5166  0.0209
 4792SOL    HW223155   9.490   1.185   2.792  1.4730  1.9916 -1.2806
 4793SOL     OW23156   7.239  10.977   2.278 -0.3752  0.4401  0.0256
 4793SOL    HW123157   7.274  10.981   2.189  0.9504 -0.6328  0.4543
 4793SOL    HW223158   7.315  10.954   2.333 -1.3123  0.3182  1.3264
 4794SOL     OW23159   2.328   0.416   0.791 -0.2362 -0.1571 -0.3353
 4794SOL    HW123160   2.327   0.459   0.706  1.2193  2.7266  0.9710
 4794SOL    HW223161   2.416   0.381   0.800 -0.0608  0.4456  0.3722
 4795SOL     OW23162   8.695   5.530   6.118  0.2407 -0.6909 -0.8465
 4795SOL    HW123163   8.693   5.496   6.028 -0.8920 -1.1706 -0.6510
 4795SOL    HW223164   8.724   5.621   6.108 -1.2172 -0.2906 -1.8679
 4796SOL     OW23165   5.853   5.194   1.954  0.1054 -0.0983 -0.2174
 4796SOL    HW123166   5.918   5.177   1.886  0.0395  1.5946 -0.7428
 4796SOL    HW223167   5.883   5.142   2.029  1.4660 -0.1868 -0.7945
 4797SOL     OW23168   2.384  11.966   8.336  0.6466 -0.0684 -0.4675
 4797SOL    HW123169   2.323  11.984   8.264 -0.4899 -0.3912  0.3850
 4797SOL    HW223170   2.468  12.000   8.305 -0.7242  4.2693 -0.0397
 4798SOL     OW23171   4.169   5.530  10.914 -0.3169  0.0968 -0.0112
 4798SOL    HW123172   4.155   5.450  10.864  0.6119 -1.1055  1.5527
 4798SOL    HW223173   4.145   5.508  11.003  0.6903  1.3201  0.6052
 4799SOL     OW23174   3.365   1.842   2.399  0.1347 -0.2402  0.4610
 4799SOL    HW123175   3.324   1.824   2.315 -1.8033 -1.5353  1.5831
 4799SOL    HW223176   3.422   1.917   2.384  0.3299 -0.8274 -2.1113
 4800SOL     OW23177   8.888   8.526   0.715 -0.0101 -0.0393  0.1669
 4800SOL    HW123178   8.860   8.531   0.807 -1.8955 -1.2685 -0.2865
 4800SOL    HW223179   8.941   8.447   0.711  0.8334  0.5086  0.3650
 4801SOL     OW23180   9.468   2.797   8.214  0.3785  0.6442  0.2960
 4801SOL    HW123181   9.515   2.788   8.297 -2.5834  0.7297  2.1203
 4801SOL    HW223182   9.487   2.715   8.167  3.0938  1.1159  0.4253
 4802SOL     OW23183   3.539   7.483  10.529 -0.2478  0.1655  0.2678
 4802SOL    HW123184   3.591   7.406  10.506  0.8932  1.0408 -0.1799
 4802SOL    HW223185   3.468   7.484  10.465  1.2871  0.9890 -1.4878
 4803SOL     OW23186   6.647   8.425   1.830  0.4438  0.1237 -0.6284
 4803SOL    HW123187   6.658   8.453   1.921 -1.0939  0.1800 -0.4349
 4803SOL    HW223188   6.735   8.432   1.792  1.2764 -0.6012  1.0345
 4804SOL     OW23189   8.700  11.115   6.100  0.2892  0.0063 -0.3148
 4804SOL    HW123190   8.732  11.201   6.072  1.7557  0.1574  1.5851
 4804SOL    HW223191   8.636  11.135   6.169 -1.0941 -0.4014 -1.4563
 4805SOL     OW23192  10.876   4.018  11.204 -0.2003 -0.1017 -0.0127
 4805SOL    HW123193  10.855   3.927  11.184 -1.1107  0.4064 -1.5064
 4805SOL    HW223194  10.891   4.059  11.119  2.2986  0.6952  0.7416
 4806SOL     OW23195   8.278   2.056   9.719 -0.4523  0.3476 -0.1544
 4806SOL    HW123196   8.277   1.965   9.748 -1.5068  0.1816 -0.6569
 4806SOL    HW223197   8.270   2.107   9.800 -0.5002 -0.0249  0.0794
 4807SOL     OW23198  11.126   2.312   5.264  0.0212  0.1866 -0.1252
 4807SOL    HW123199  11.137   2.289   5.172  0.4856 -1.9561  0.4078
 4807SOL    HW223200  11.215   2.320   5.297  0.0259 -3.0355  0.9740
 4808SOL     OW23201   0.437   9.420   2.094 -0.0765 -0.1694  0.3734
 4808SOL    HW123202   0.359   9.425   2.150  0.8721 -1.0211  1.8299
 4808SOL    HW223203   0.418   9.348   2.034  0.0003 -1.0938  1.4266
 4809SOL     OW23204   7.258   6.410  10.497  0.0567 -0.1634 -0.1563
 4809SOL    HW123205   7.273   6.444  10.585 -1.0401 -0.6980  0.2594
 4809SOL    HW223206   7.330   6.349  10.482  1.0484  0.9976 -0.2090
 4810SOL     OW23207   4.202   1.891   0.390  0.1933 -0.3871 -0.7241
 4810SOL    HW123208   4.243   1.870   0.306 -0.9500  0.8388 -1.6244
 4810SOL    HW223209   4.271   1.875   0.454  1.6377  0.2255 -2.0515
 4811SOL     OW23210   9.697   7.106   4.141  0.0480  0.1873  0.0858
 4811SOL    HW123211   9.754   7.062   4.204  0.0420  1.9419  1.3828
 4811SOL    HW223212   9.610   7.070   4.157  0.6438 -2.2360 -1.6519
 4812SOL     OW23213  10.600   6.949   2.193  0.3515  0.1020 -0.6744
 4812SOL    HW123214  10.565   6.860   2.192  0.9752 -0.1428 -1.4812
 4812SOL    HW223215  10.680   6.944   2.142  1.0621  0.8641  0.3181
 4813SOL     OW23216   6.801   9.955   5.327  0.5653 -0.3873 -0.1814
 4813SOL    HW123217   6.871   9.964   5.261  0.9151 -0.9773  0.1026
 4813SOL    HW223218   6.725   9.925   5.277  0.8079 -0.7542 -0.3301
 4814SOL     OW23219   8.871  11.197   1.190  0.0512  0.0623  0.3966
 4814SOL    HW123220   8.880  11.258   1.263 -1.1945 -0.0770  0.6943
 4814SOL    HW223221   8.881  11.251   1.112 -1.7491  0.8141  0.6430
 4815SOL     OW23222   1.803   7.100   2.657 -0.0971  0.4633  0.4443
 4815SOL    HW123223   1.780   7.067   2.744  3.4785 -1.2142  0.9292
 4815SOL    HW223224   1.889   7.140   2.668  0.1365  0.8584 -2.1954
 4816SOL     OW23225   5.407   4.130   8.812 -0.0735  0.0172 -0.2355
 4816SOL    HW123226   5.415   4.167   8.724  1.0990 -1.2497 -0.7008
 4816SOL    HW223227   5.429   4.202   8.871  0.6492  0.4849 -1.0541
 4817SOL     OW23228  10.291   7.529   1.188  0.3294  0.1934  0.1231
 4817SOL    HW123229  10.339   7.585   1.249  3.7895 -1.3814 -0.8826
 4817SOL    HW223230  10.320   7.559   1.101 -2.0657  0.3660 -0.6874
 4818SOL     OW23231   2.761   8.083  11.154 -0.9355  0.5983  0.7577
 4818SOL    HW123232   2.797   8.004  11.114 -2.6606 -0.9664  2.1786
 4818SOL    HW223233   2.732   8.056  11.241 -1.0793  2.9376  1.5056
 4819SOL     OW23234   1.964   5.749  10.658 -0.1603 -0.0565 -0.0193
 4819SOL    HW123235   1.875   5.727  10.685 -0.6393  0.7258 -0.8935
 4819SOL    HW223236   1.988   5.824  10.712  0.3476 -0.8274  0.8705
 4820SOL     OW23237   9.747   3.384   4.726  0.1304 -0.3620 -0.0572
 4820SOL    HW123238   9.765   3.434   4.646 -1.2994 -0.9387 -0.7730
 4820SOL    HW223239   9.808   3.419   4.790 -0.9302  2.4383 -0.4576
 4821SOL     OW23240  12.599   8.305   0.193 -0.4112  0.3046  0.3535
 4821SOL    HW123241  12.645   8.372   0.242  0.9807 -0.3508  0.0002
 4821SOL    HW223242  12.538   8.267   0.256 -0.1714  0.9097  0.9623
 4822SOL     OW23243   8.505   8.185  11.411 -0.1333 -0.3893  0.6223
 4822SOL    HW123244   8.557   8.217  11.338 -1.0546  0.4492  0.3258
 4822SOL    HW223245   8.507   8.089  11.402  1.2224 -0.3745  0.5421
 4823SOL     OW23246   9.842   7.140   5.828 -0.6040  0.4554 -0.2850
 4823SOL    HW123247   9.753   7.174   5.830 -0.5596  0.6796 -1.4153
 4823SOL    HW223248   9.864   7.137   5.734  0.2484 -0.4395 -0.0636
 4824SOL     OW23249   2.054   0.937   4.624  0.3706 -0.5793  0.4374
 4824SOL    HW123250   2.000   1.015   4.637 -0.7018 -1.0952 -0.7062
 4824SOL    HW223251   2.118   0.964   4.557 -0.1696 -0.7558 -0.1531
 4825SOL     OW23252   3.778   0.301   6.144  0.0713  0.3331  0.3711
 4825SOL    HW123253   3.765   0.348   6.227  1.7998 -0.1077  0.9321
 4825SOL    HW223254   3.731   0.354   6.080 -1.6730  0.4674  1.6667
 4826SOL     OW23255   1.925   7.514   1.291 -0.3694 -0.5341 -0.1404
 4826SOL    HW123256   1.833   7.493   1.276 -0.4022 -0.9629  0.6274
 4826SOL    HW223257   1.967   7.431   1.313 -0.1922 -0.0792  1.4037
 4827SOL     OW23258   9.158  12.388  11.793  0.2575 -0.8531  0.0713
 4827SOL    HW123259   9.107  12.318  11.753 -0.2718 -1.7230  2.1234
 4827SOL    HW223260   9.247  12.353  11.798  0.9108  0.2147 -2.4441
 4828SOL     OW23261  11.801   9.122  12.338 -0.5234 -0.0318 -0.2871
 4828SOL    HW123262  11.816   9.192  12.275  0.4436 -1.2952 -1.5215
 4828SOL    HW223263  11.746   9.060  12.292  1.9357 -2.0208 -0.7614
 4829SOL     OW23264  10.168   5.684   8.406  0.2784  0.6141 -0.0264
 4829SOL    HW123265  10.200   5.617   8.346  1.1947 -0.8555  2.0128
 4829SOL    HW223266  10.086   5.715   8.365  0.0012 -1.4717 -1.2117
 4830SOL     OW23267   3.937   2.300  10.602 -0.3334 -0.3128 -0.5127
 4830SOL    HW123268   3.971   2.273  10.517 -0.6016  1.5799 -1.2451
 4830SOL    HW223269   3.842   2.306  10.590 -0.5847 -1.7418  0.4440
 4831SOL     OW23270   5.607   2.961   6.238  0.3868 -0.1021  0.0354
 4831SOL    HW123271   5.636   3.045   6.273 -1.6453  0.8018 -0.3191
 4831SOL    HW223272   5.634   2.963   6.146 -0.8509  0.8059 -0.3381
 4832SOL     OW23273   1.005   0.976   4.406 -0.5434  0.0731  0.1283
 4832SOL    HW123274   1.041   1.049   4.356 -2.3373 -0.1072 -1.5148
 4832SOL    HW223275   1.032   0.898   4.357 -1.5010 -0.1617 -0.0478
 4833SOL     OW23276  10.917   5.513   7.283 -0.4831 -0.3944  0.9598
 4833SOL    HW123277  10.943   5.497   7.192  0.4018  1.3518  0.8700
 4833SOL    HW223278  10.922   5.427   7.325  0.0966 -1.0461 -0.3920
 4834SOL     OW23279   3.101   3.873   3.701  0.6732  0.0975 -0.4822
 4834SOL    HW123280   3.058   3.886   3.785  1.4513  1.0060 -0.2032
 4834SOL    HW223281   3.031   3.880   3.637  0.0724 -0.6007  0.0721
 4835SOL     OW23282   6.155  10.450   8.918  0.5411  0.4229 -0.2704
 4835SOL    HW123283   6.076  10.481   8.874  0.5581 -0.0182 -0.6089
 4835SOL    HW223284   6.173  10.518   8.983 -0.0375  0.5929 -0.2804
 4836SOL     OW23285   8.621   1.361   2.688  0.1400 -0.0252 -0.0264
 4836SOL    HW123286   8.655   1.301   2.755  0.4089  0.2507  0.0885
 4836SOL    HW223287   8.616   1.308   2.609 -0.0990 -0.3332  0.1925
 4837SOL     OW23288   4.471   1.863   7.457  0.2545 -0.1482 -0.2678
 4837SOL    HW123289   4.381   1.894   7.450 -0.0219 -0.5769  1.0171
 4837SOL    HW223290   4.469   1.775   7.420  0.6792  0.6690 -2.3732
 4838SOL     OW23291  11.666   8.624  11.298  0.0853 -0.1354 -0.1996
 4838SOL    HW123292  11.599   8.684  11.267 -1.7270 -1.7555  0.3915
 4838SOL    HW223293  11.732   8.623  11.229 -0.1108  2.0383 -0.4703
 4839SOL     OW23294   4.514  10.711   7.395  0.3786 -0.0108  0.3221
 4839SOL    HW123295   4.575  10.716   7.321 -1.4430 -1.0643 -1.3645
 4839SOL    HW223296   4.442  10.769   7.370 -0.9432 -1.4850  0.5421
 4840SOL     OW23297  10.187   1.828   3.131  0.0264 -0.1310  0.0102
 4840SOL    HW123298  10.159   1.920   3.132 -0.1724 -0.1967  0.9377
 4840SOL    HW223299  10.279   1.832   3.157 -0.8229 -0.4329  3.5773
 4841SOL     OW23300   3.725   6.307   8.878  0.4623  0.2703 -0.0763
 4841SOL    HW123301   3.762   6.369   8.814  1.0377  0.5049  0.4747
 4841SOL    HW223302   3.631   6.314   8.867  0.5251 -1.0357 -2.2080
 4842SOL     OW23303   4.858   4.079   3.319  0.1665  0.2107 -0.1904
 4842SOL    HW123304   4.825   4.152   3.372 -1.1245  2.3577 -3.6026
 4842SOL    HW223305   4.779   4.035   3.287  0.8783 -0.9338 -0.4099
 4843SOL     OW23306   3.858   8.615   0.232 -0.6213 -0.4483 -0.1712
 4843SOL    HW123307   3.859   8.652   0.321 -0.4895  1.9754 -1.1058
 4843SOL    HW223308   3.906   8.532   0.240  1.1415  0.6486  1.6620
 4844SOL     OW23309   6.198   6.373   3.356 -0.1931 -0.1726 -0.2233
 4844SOL    HW123310   6.118   6.419   3.329  0.5015  1.2499  0.0056
 4844SOL    HW223311   6.263   6.399   3.292  0.0753 -1.3918 -0.4550
 4845SOL     OW23312   8.802   5.375  11.172  0.0447 -0.1421 -0.6329
 4845SOL    HW123313   8.781   5.314  11.243 -2.7315  0.5502 -0.7448
 4845SOL    HW223314   8.844   5.449  11.215  1.3372 -1.0843 -0.1977
 4846SOL     OW23315   0.572   5.091  10.142  0.0470 -0.5537  1.1168
 4846SOL    HW123316   0.636   5.136  10.198 -0.1601 -0.9361  1.6736
 4846SOL    HW223317   0.501   5.067  10.202 -0.6918 -0.0076  0.4817
 4847SOL     OW23318   6.373   2.477  11.415  0.2133 -0.2938 -0.0846
 4847SOL    HW123319   6.430   2.507  11.345 -2.0075  1.3101 -1.3613
 4847SOL    HW223320   6.398   2.529  11.491  0.4710  0.3528 -0.6050
 4848SOL     OW23321   6.809   4.163   1.722 -0.2990  0.3732  0.3737
 4848SOL    HW123322   6.732   4.105   1.724  0.8778 -1.3196 -0.6678
 4848SOL    HW223323   6.872   4.118   1.666  0.6188  2.8255 -0.7230
 4849SOL     OW23324   3.281   3.343   2.807 -0.2466 -0.2881 -0.2467
 4849SOL    HW123325   3.332   3.390   2.874  0.0306 -0.1483 -0.5547
 4849SOL    HW223326   3.262   3.410   2.741 -1.3261 -0.1979  0.1411
 4850SOL     OW23327   7.551   5.339   4.533  0.3496  0.2253 -0.1901
 4850SOL    HW123328   7.620   5.344   4.467  0.4103  1.0021 -0.0778
 4850SOL    HW223329   7.471   5.320   4.483  0.6646 -0.8291 -0.3024
 4851SOL     OW23330   8.735   2.233   1.375 -0.0095 -0.0074  0.2258
 4851SOL    HW123331   8.804   2.208   1.313  1.4120  0.4404  1.5694
 4851SOL    HW223332   8.688   2.304   1.331  0.5615 -0.1212 -0.5927
 4852SOL     OW23333   8.724   3.213  12.237  0.1133 -0.0938 -0.0617
 4852SOL    HW123334   8.791   3.225  12.171 -1.0266  1.7379 -0.9690
 4852SOL    HW223335   8.645   3.191  12.188 -0.3596 -0.4793  0.8382
 4853SOL     OW23336   1.933   0.059   4.464 -0.1429 -0.0193 -0.5226
 4853SOL    HW123337   1.915   0.114   4.540  1.0609  1.7360 -1.4269
 4853SOL    HW223338   1.947  -0.029   4.500  2.1075  1.0683  1.5545
 4854SOL     OW23339   9.152   5.231  10.849 -0.5364 -0.1438 -0.1212
 4854SOL    HW123340   9.188   5.310  10.888  0.8677 -1.4360  1.3634
 4854SOL    HW223341   9.228   5.184  10.814 -0.6301 -2.7074  2.6728
 4855SOL     OW23342   1.917   7.265   5.598 -0.5137  0.5261 -0.4119
 4855SOL    HW123343   1.972   7.276   5.676  0.8795  0.4888 -1.3401
 4855SOL    HW223344   1.832   7.237   5.631  0.7236 -1.8757  0.9596
 4856SOL     OW23345   8.282   2.541   6.919 -0.5576  0.0136  0.3479
 4856SOL    HW123346   8.222   2.605   6.958 -0.9872  0.1846 -0.5545
 4856SOL    HW223347   8.354   2.534   6.981 -0.0155  2.1008  0.0154
 4857SOL     OW23348   7.414  11.136   3.697 -0.1835 -0.3655 -0.1518
 4857SOL    HW123349   7.387  11.200   3.631  1.4797  2.7621  1.9492
 4857SOL    HW223350   7.493  11.095   3.661 -0.8072 -0.7058 -1.1724
 4858SOL     OW23351   8.480   3.591   0.945 -0.6644  0.7416  0.4375
 4858SOL    HW123352   8.419   3.543   0.889 -1.1103  0.1362  1.4314
 4858SOL    HW223353   8.562   3.544   0.936 -1.2189 -0.5331  1.7859
 4859SOL     OW23354   8.518   0.574   1.453  0.2002 -0.0144  0.2848
 4859SOL    HW123355   8.610   0.593   1.438  0.1799  0.7068  1.0194
 4859SOL    HW223356   8.501   0.603   1.542 -0.7385 -0.1445  0.1639
 4860SOL     OW23357   1.653   2.045   0.591 -0.1947  0.4346 -0.0544
 4860SOL    HW123358   1.701   2.034   0.509  1.5717  0.7155  0.8911
 4860SOL    HW223359   1.677   2.133   0.621 -0.7200  0.2889  0.8099
 4861SOL     OW23360   3.259   9.297   3.951 -0.2944  0.2694  0.1003
 4861SOL    HW123361   3.321   9.359   3.915  0.1882 -0.2801 -0.0280
 4861SOL    HW223362   3.261   9.312   4.046 -0.0164  0.3016  0.0888
 4862SOL     OW23363   4.373   3.676   6.686  0.0783 -0.4312 -0.3803
 4862SOL    HW123364   4.436   3.739   6.722  0.6027 -0.6904 -0.8237
 4862SOL    HW223365   4.325   3.643   6.762  0.1858  0.0902 -0.0854
 4863SOL     OW23366   6.882   3.188   3.395 -0.4990 -0.0667 -0.0943
 4863SOL    HW123367   6.810   3.173   3.334 -0.3692  0.6985 -0.4462
 4863SOL    HW223368   6.873   3.279   3.422  1.4060  0.6352 -1.6116
 4864SOL     OW23369   4.255  12.019   5.011 -0.7837  0.5353  0.5509
 4864SOL    HW123370   4.337  11.976   5.034  0.6138  2.5870 -0.3772
 4864SOL    HW223371   4.256  12.022   4.915 -2.1505  0.2541  0.5077
 4865SOL     OW23372   4.595   2.742  10.264  0.2083 -0.0095 -0.2938
 4865SOL    HW123373   4.652   2.670  10.289  0.4231  0.1053 -0.4471
 4865SOL    HW223374   4.620   2.762  10.174 -0.5085 -0.3691 -0.5730
 4866SOL     OW23375   5.462   2.207   8.503  0.2555  0.6440  0.2992
 4866SOL    HW123376   5.385   2.264   8.496  0.3843  1.5475  4.0834
 4866SOL    HW223377   5.441   2.148   8.576  1.8801 -1.3342 -0.7447
 4867SOL     OW23378   2.658   2.886  10.243  0.1337 -0.1563  0.1255
 4867SOL    HW123379   2.723   2.905  10.310  0.2005 -0.9573  0.3013
 4867SOL    HW223380   2.575   2.883  10.291  0.2813 -1.5533  0.3437
 4868SOL     OW23381   3.281  11.336   8.760 -0.0391  0.3287  0.1998
 4868SOL    HW123382   3.343  11.283   8.710 -2.8874 -2.9395 -0.2613
 4868SOL    HW223383   3.321  11.345   8.846  2.1826  0.6654 -0.7939
 4869SOL     OW23384   0.925   2.869   2.958 -0.0555  0.4582  0.0724
 4869SOL    HW123385   0.963   2.946   3.000  1.3493  0.6735 -1.4902
 4869SOL    HW223386   0.919   2.804   3.028 -0.1480  1.5867  1.1444
 4870SOL     OW23387   0.205  12.142   3.968 -0.0023 -0.3066  0.1746
 4870SOL    HW123388   0.198  12.237   3.977 -1.0339 -0.4993  2.0201
 4870SOL    HW223389   0.116  12.110   3.985  0.4930 -1.6451  0.3563
 4871SOL     OW23390   0.033   9.761   7.951  0.0189  0.0061 -0.1721
 4871SOL    HW123391  -0.056   9.796   7.946  0.3318  1.0979  1.1003
 4871SOL    HW223392   0.034   9.712   8.033  0.4096 -0.5761 -0.5208
 4872SOL     OW23393   0.295  11.580  11.214 -0.2797  0.4911 -0.5085
 4872SOL    HW123394   0.228  11.512  11.223 -1.2863  1.1830 -2.2379
 4872SOL    HW223395   0.245  11.662  11.217  0.8716  1.2038  1.2358
 4873SOL     OW23396   2.807   0.184   1.213  1.4010 -0.5732 -0.4704
 4873SOL    HW123397   2.803   0.218   1.124 -0.8244 -0.5543 -0.4289
 4873SOL    HW223398   2.750   0.107   1.212  2.2802 -1.2865  0.6706
 4874SOL     OW23399  11.549   6.350   5.819 -0.4082  0.0417 -0.3927
 4874SOL    HW123400  11.568   6.349   5.725  0.5194 -0.5189 -0.2096
 4874SOL    HW223401  11.520   6.261   5.839 -0.2156  0.0488 -0.0755
 4875SOL     OW23402   4.334   7.495   0.827  0.3856  0.0774  0.2759
 4875SOL    HW123403   4.363   7.467   0.914  0.8473  2.7297  1.0970
 4875SOL    HW223404   4.415   7.501   0.776  0.7683  2.5227  1.0153
 4876SOL     OW23405   4.794   5.436  10.927 -0.3842  0.2005  0.7761
 4876SOL    HW123406   4.816   5.528  10.941 -0.6825  0.3784  0.0988
 4876SOL    HW223407   4.768   5.404  11.014  0.5785  0.5137  1.1922
 4877SOL     OW23408   9.971   4.876  10.189 -0.1970 -0.7592  0.1497
 4877SOL    HW123409   9.970   4.788  10.153  0.9942 -1.7845  2.4150
 4877SOL    HW223410  10.010   4.866  10.276  1.6266  2.2554 -0.1644
 4878SOL     OW23411  11.697  10.190   1.275  0.1942 -0.0239 -0.2373
 4878SOL    HW123412  11.775  10.159   1.320  2.1216  3.3946 -0.8144
 4878SOL    HW223413  11.699  10.146   1.190  0.9966 -0.6641  0.1066
 4879SOL     OW23414   7.573   8.146   2.409 -0.0406 -0.2541 -0.0072
 4879SOL    HW123415   7.500   8.146   2.347  0.0362  1.8874 -0.1786
 4879SOL    HW223416   7.651   8.141   2.354  0.0013  0.6038 -0.0372
 4880SOL     OW23417  11.619   1.726   3.880  0.4304 -0.4081 -0.2250
 4880SOL    HW123418  11.570   1.807   3.896  0.1895 -0.2941 -1.4299
 4880SOL    HW223419  11.579   1.690   3.801  0.1548 -2.0148  0.6117
 4881SOL     OW23420   6.228   3.070  11.863  0.4661  0.3492  0.2883
 4881SOL    HW123421   6.156   3.130  11.886 -0.2701  0.0593 -1.1613
 4881SOL    HW223422   6.306   3.110  11.901 -0.2952  1.2458  0.9506
 4882SOL     OW23423   5.317   3.604   3.544 -0.4545 -0.2533  0.2123
 4882SOL    HW123424   5.355   3.516   3.553 -1.8598 -0.7299  2.1569
 4882SOL    HW223425   5.392   3.660   3.520  0.4536 -1.9540 -1.1119
 4883SOL     OW23426   7.224   4.497   2.225  0.1584 -0.1022 -0.0709
 4883SOL    HW123427   7.252   4.489   2.134  0.3878 -0.8280  0.0548
 4883SOL    HW223428   7.306   4.500   2.275  0.0434  0.6642  0.0954
 4884SOL     OW23429   3.281  11.511  11.001  0.5902  0.1695  0.0161
 4884SOL    HW123430   3.207  11.450  11.010  0.5398  0.2009 -0.1804
 4884SOL    HW223431   3.303  11.509  10.908  0.4213  0.6435 -0.0374
 4885SOL     OW23432   6.169  12.189   3.165  0.3362  0.2520 -0.4359
 4885SOL    HW123433   6.078  12.158   3.162 -0.3383  2.1477 -1.3563
 4885SOL    HW223434   6.204  12.151   3.245 -1.7542  0.6170  0.7506
 4886SOL     OW23435   2.223   1.357   1.313 -0.2481  0.2200 -0.2443
 4886SOL    HW123436   2.315   1.333   1.324 -0.2722 -0.2200 -0.9139
 4886SOL    HW223437   2.225   1.425   1.245 -0.4158  0.2463 -0.2224
 4887SOL     OW23438   5.348  12.466  12.079 -0.4256 -0.1762  0.4229
 4887SOL    HW123439   5.289  12.450  12.006  0.1541  0.2624 -0.1619
 4887SOL    HW223440   5.371  12.559  12.071 -0.6446 -0.0293  1.3895
 4888SOL     OW23441   5.467   2.673   7.708 -0.2228 -0.1347  0.0564
 4888SOL    HW123442   5.520   2.743   7.670 -1.7743  0.9919 -0.1552
 4888SOL    HW223443   5.439   2.621   7.633 -1.6639  0.9303 -0.1953
 4889SOL     OW23444   1.903   5.501   1.021  0.1242 -0.2021 -0.3396
 4889SOL    HW123445   1.857   5.492   1.105  0.6134  0.7766  0.0341
 4889SOL    HW223446   1.897   5.594   1.000  2.9364  0.1876  0.2943
 4890SOL     OW23447   3.153   9.832   0.971 -0.7543  0.3881  0.1030
 4890SOL    HW123448   3.218   9.876   0.916 -0.2464  1.5395  1.5650
 4890SOL    HW223449   3.168   9.739   0.954  0.6991  0.6520 -0.2486
 4891SOL     OW23450   4.243  11.926   7.509 -0.0079 -0.4775  0.3176
 4891SOL    HW123451   4.222  11.969   7.426  1.6572 -0.9803 -0.4075
 4891SOL    HW223452   4.175  11.955   7.569 -1.1646  0.0330 -1.1784
 4892SOL     OW23453  10.408   8.029  12.611  0.5097  0.3845  0.8127
 4892SOL    HW123454  10.433   8.007  12.521 -0.6433 -1.6469  0.9243
 4892SOL    HW223455  10.366   8.115  12.603  0.9945  0.5375 -0.4631
 4893SOL     OW23456   2.879   5.701   0.797  0.7501 -0.1829  0.0862
 4893SOL    HW123457   2.821   5.729   0.867  0.8296  1.3493 -0.4165
 4893SOL    HW223458   2.820   5.682   0.724  0.7442 -0.5948  0.2000
 4894SOL     OW23459   1.449   1.773   3.231  0.0274 -0.5254  0.1035
 4894SOL    HW123460   1.529   1.825   3.239 -0.2710  0.0253 -0.4776
 4894SOL    HW223461   1.478   1.687   3.201  0.4072 -0.3602  0.0041
 4895SOL     OW23462   6.791  12.011  10.715 -0.0334  0.5844  0.0252
 4895SOL    HW123463   6.804  12.091  10.765 -0.9566  0.7023  0.0908
 4895SOL    HW223464   6.812  12.035  10.625  1.8727  0.3102  0.3495
 4896SOL     OW23465   6.435  10.837   3.510  0.0129  0.1398 -0.4044
 4896SOL    HW123466   6.389  10.813   3.429  0.5907  1.1439 -1.0511
 4896SOL    HW223467   6.525  10.854   3.482 -0.0151  1.4745  0.2763
 4897SOL     OW23468  10.220   0.944  11.409 -0.1492 -0.0168  0.3992
 4897SOL    HW123469  10.303   0.908  11.376 -0.6512 -0.8938  0.0333
 4897SOL    HW223470  10.237   0.962  11.501  0.5602  0.1830  0.2436
 4898SOL     OW23471  12.111   1.033   4.791  0.1090 -0.4485  0.3045
 4898SOL    HW123472  12.066   0.983   4.858  0.4328  0.1610  0.9898
 4898SOL    HW223473  12.145   0.967   4.731  2.6519 -1.3039  2.4920
 4899SOL     OW23474   7.105   3.554   9.860  0.2721 -0.2383 -0.3235
 4899SOL    HW123475   7.085   3.468   9.896 -1.2990  0.2731  0.1231
 4899SOL    HW223476   7.182   3.584   9.909  0.3807 -1.0670  0.0219
 4900SOL     OW23477   1.499   7.102  10.462  0.0933 -0.1864 -0.3870
 4900SOL    HW123478   1.583   7.135  10.429  0.8759 -0.6917  1.0262
 4900SOL    HW223479   1.486   7.146  10.545 -1.7410  0.8929 -1.1837
 4901SOL     OW23480   3.653   0.378   1.015  0.1278 -0.8869  0.1957
 4901SOL    HW123481   3.575   0.331   0.988 -0.5874 -0.8859  2.1577
 4901SOL    HW223482   3.621   0.460   1.051  1.0178 -0.9103  1.0930
 4902SOL     OW23483   8.408  12.256  12.033  0.5387 -0.1238 -0.1049
 4902SOL    HW123484   8.316  12.233  12.040 -0.2441  3.0418  1.5099
 4902SOL    HW223485   8.428  12.246  11.940 -2.0906  1.2764 -0.8964
 4903SOL     OW23486   6.122   7.817   6.617  0.4317  0.0432 -0.6988
 4903SOL    HW123487   6.107   7.743   6.558  0.9895 -0.8186  0.2080
 4903SOL    HW223488   6.198   7.863   6.579 -0.3125  0.5519 -1.6191
 4904SOL     OW23489   6.908   0.592   4.118 -0.0300 -0.0556 -1.0634
 4904SOL    HW123490   6.907   0.496   4.113  0.8911 -0.0900 -0.7432
 4904SOL    HW223491   6.949   0.620   4.037  0.4888  0.0298 -0.7732
 4905SOL     OW23492   0.354   1.252   9.119 -0.4619 -0.5289 -0.1942
 4905SOL    HW123493   0.295   1.255   9.194 -1.6900  0.6060 -1.1509
 4905SOL    HW223494   0.398   1.337   9.119 -2.6668  0.7268 -2.3820
 4906SOL     OW23495   1.967   5.265  10.765 -0.5889  0.0401  0.0654
 4906SOL    HW123496   1.938   5.281  10.855  0.2496 -1.0923  0.5575
 4906SOL    HW223497   1.887   5.273  10.713 -1.0000  1.1693  0.8326
 4907SOL     OW23498   3.223  11.246   4.724  0.0173  0.1275  0.4898
 4907SOL    HW123499   3.142  11.254   4.674  0.9278 -0.7141 -1.1995
 4907SOL    HW223500   3.194  11.233   4.814 -1.7029  0.6717  0.0539
 4908SOL     OW23501   9.960  10.553   1.976  0.0402  0.0188  0.2092
 4908SOL    HW123502   9.952  10.648   1.968  0.1558 -0.0806 -1.1923
 4908SOL    HW223503   9.924  10.533   2.063  0.8293  1.4256  0.8903
 4909SOL     OW23504   0.241  10.026   6.416  0.3426 -0.2335 -0.2099
 4909SOL    HW123505   0.187   9.968   6.362 -1.0370  1.6371 -0.9612
 4909SOL    HW223506   0.296  10.073   6.353 -0.3969  1.0863  0.0999
 4910SOL     OW23507   9.246   4.383   7.037  0.4880  0.1797  0.4839
 4910SOL    HW123508   9.262   4.440   6.962  0.6086  0.2398  0.5551
 4910SOL    HW223509   9.224   4.298   6.999 -0.9254  0.5738  0.3385
 4911SOL     OW23510   7.812   9.403   3.248  0.4466 -0.1172 -0.1961
 4911SOL    HW123511   7.820   9.454   3.167 -0.2545 -1.1270 -0.9239
 4911SOL    HW223512   7.852   9.459   3.315 -0.2678  1.3717 -0.9623
 4912SOL     OW23513   5.139   9.944  12.607  0.3427 -0.0034 -0.3120
 4912SOL    HW123514   5.212   9.939  12.546  0.2722  1.1366 -0.5218
 4912SOL    HW223515   5.065   9.906  12.560  0.8034 -1.2542 -0.0603
 4913SOL     OW23516   1.707   0.349  12.104 -0.1720 -0.4923 -0.0024
 4913SOL    HW123517   1.649   0.413  12.064 -0.4225 -0.0111  1.0793
 4913SOL    HW223518   1.675   0.341  12.194 -0.7735 -2.8693 -0.3486
 4914SOL     OW23519   2.368  10.393   1.784  0.3798 -0.3563 -0.0782
 4914SOL    HW123520   2.348  10.483   1.809  0.0108  0.1091 -1.8889
 4914SOL    HW223521   2.370  10.395   1.688  0.2975 -2.2905 -0.1561
 4915SOL     OW23522   7.970   9.529   0.396 -0.4501 -0.3052  0.7693
 4915SOL    HW123523   7.983   9.434   0.394 -1.3294 -0.4260  0.2647
 4915SOL    HW223524   7.884   9.542   0.354  0.4549  0.8499 -0.8433
 4916SOL     OW23525   3.305   1.576   2.406 -0.5999 -0.0833 -0.0024
 4916SOL    HW123526   3.346   1.661   2.424 -1.6461  0.1339  1.5564
 4916SOL    HW223527   3.323   1.560   2.313 -1.3472  2.3882 -0.6451
 4917SOL     OW23528   1.390   6.955   5.963  0.2887  0.4526  0.5334
 4917SOL    HW123529   1.435   6.885   5.917  1.6505 -0.3878  2.9815
 4917SOL    HW223530   1.403   7.032   5.908  0.8789 -0.6982 -0.9997
 4918SOL     OW23531   3.829   2.337   6.491 -0.6661 -0.3236 -0.5678
 4918SOL    HW123532   3.811   2.317   6.399 -2.3143 -2.3359  0.1214
 4918SOL    HW223533   3.775   2.275   6.540 -0.9337  1.6466  1.7920
 4919SOL     OW23534   3.987   6.666   4.134 -0.1135  0.0056 -0.3275
 4919SOL    HW123535   3.903   6.694   4.171  0.4595  0.4731  0.6657
 4919SOL    HW223536   4.036   6.630   4.208  1.6347  2.3112 -0.2265
 4920SOL     OW23537   7.287   2.198   9.083  0.1646  0.4156  0.0301
 4920SOL    HW123538   7.259   2.286   9.056 -2.7739  0.3476  2.3057
 4920SOL    HW223539   7.377   2.210   9.113 -0.1563  2.7014  0.3232
 4921SOL     OW23540  11.998   8.017   1.373 -0.1302 -0.2160  0.0400
 4921SOL    HW123541  12.081   8.056   1.347  0.4457  0.8788  3.1407
 4921SOL    HW223542  11.931   8.075   1.335  0.6476  1.3044  0.9000
 4922SOL     OW23543   2.563   7.802   4.691  0.1380  0.3924  0.0897
 4922SOL    HW123544   2.556   7.731   4.754 -1.6806  1.0515  0.7029
 4922SOL    HW223545   2.519   7.768   4.612  0.0900  0.4995  0.0699
 4923SOL     OW23546  10.567   4.196   7.178  0.2975 -0.1598 -0.1338
 4923SOL    HW123547  10.651   4.227   7.146 -0.1293  0.8192 -0.3439
 4923SOL    HW223548  10.589   4.125   7.238  1.3240  0.5951  0.4191
 4924SOL     OW23549  11.273   5.512   6.713  0.3425  0.5076  0.3450
 4924SOL    HW123550  11.196   5.460   6.689  1.5626 -0.8693 -0.8956
 4924SOL    HW223551  11.315   5.461   6.782  1.4465 -0.1273 -0.7431
 4925SOL     OW23552   5.303   6.896   4.172 -0.1122 -0.4631  0.4114
 4925SOL    HW123553   5.343   6.906   4.085 -0.1120 -1.1464  0.3311
 4925SOL    HW223554   5.362   6.837   4.218 -1.3111 -1.9352  0.1028
 4926SOL     OW23555   3.879  10.645   9.106 -0.0877  0.2746  0.0449
 4926SOL    HW123556   3.892  10.584   9.034  0.4208  0.1629  0.2250
 4926SOL    HW223557   3.959  10.699   9.106  0.7123 -0.8350  1.5868
 4927SOL     OW23558  10.831   1.224   7.607  0.2080 -0.0768 -0.0358
 4927SOL    HW123559  10.882   1.265   7.536  0.7635 -1.0160 -0.1994
 4927SOL    HW223560  10.740   1.231   7.578  0.3973 -0.0611 -0.6394
 4928SOL     OW23561   8.325   2.922   9.105 -0.1985 -0.2011 -0.1987
 4928SOL    HW123562   8.321   2.925   9.009 -2.7811 -1.2741 -0.2067
 4928SOL    HW223563   8.242   2.961   9.133  1.3509  1.9518  1.7308
 4929SOL     OW23564  11.189   3.331   2.327  0.0411  0.0783  0.1607
 4929SOL    HW123565  11.124   3.330   2.256 -1.0627  0.8836  1.1301
 4929SOL    HW223566  11.228   3.244   2.325 -0.3797 -0.1004 -1.0640
 4930SOL     OW23567   8.803   8.092   3.896 -0.1476 -0.0441  0.5455
 4930SOL    HW123568   8.780   8.087   3.989 -0.8169 -1.6406  0.3264
 4930SOL    HW223569   8.724   8.125   3.853 -0.4058 -0.8640  0.3699
 4931SOL     OW23570   1.617   9.647   9.523  0.5318 -0.3394 -0.4419
 4931SOL    HW123571   1.547   9.708   9.496  1.2568  0.3133 -0.8754
 4931SOL    HW223572   1.694   9.703   9.535  0.9964 -1.0608  0.0039
 4932SOL     OW23573   0.366   4.325  11.225  0.3515  0.1345 -0.1224
 4932SOL    HW123574   0.280   4.283  11.213  0.1045  0.4371  0.5775
 4932SOL    HW223575   0.380   4.373  11.144 -0.1267  0.0586 -0.2553
 4933SOL     OW23576   8.097   0.053   3.743 -0.1393  0.2706 -0.5504
 4933SOL    HW123577   8.184   0.077   3.712  0.3165 -0.4921  0.1077
 4933SOL    HW223578   8.038   0.075   3.671  0.8817 -1.4513 -1.9666
 4934SOL     OW23579   2.230   9.846   6.072 -0.1111 -0.5202 -0.2785
 4934SOL    HW123580   2.242   9.824   5.979  0.2733 -0.0203 -0.3531
 4934SOL    HW223581   2.311   9.817   6.113 -0.1051 -0.3510 -0.1717
 4935SOL     OW23582  12.432   5.575   7.415  0.2142 -0.2561  0.0474
 4935SOL    HW123583  12.377   5.511   7.460 -1.7424  1.2502 -0.0860
 4935SOL    HW223584  12.517   5.567   7.458  0.3264 -3.4640 -0.5130
 4936SOL     OW23585   6.801  11.508   1.210 -0.2087  0.1231  0.3476
 4936SOL    HW123586   6.814  11.413   1.206 -0.4325  0.0634  1.0294
 4936SOL    HW223587   6.889  11.543   1.226  0.0298  0.1030 -0.8041
 4937SOL     OW23588   8.388   7.988   5.030 -0.1415 -0.6330  0.2251
 4937SOL    HW123589   8.448   8.061   5.044  0.1146 -1.0261  1.2518
 4937SOL    HW223590   8.322   8.022   4.970 -0.5866  0.7687  1.4765
 4938SOL     OW23591  10.508   3.278   4.297 -0.3420  0.4207 -0.0771
 4938SOL    HW123592  10.433   3.306   4.244  0.5913  1.5228 -0.8913
 4938SOL    HW223593  10.517   3.346   4.364  0.5321  0.8783 -0.6286
 4939SOL     OW23594   8.586   3.668   7.033 -0.4640 -0.5131  0.1546
 4939SOL    HW123595   8.505   3.650   6.985 -0.9468 -2.4644  1.5846
 4939SOL    HW223596   8.654   3.667   6.965 -1.4770 -0.0381 -0.9029
 4940SOL     OW23597   0.742   5.718   7.470 -0.0120 -0.0944 -0.6158
 4940SOL    HW123598   0.709   5.738   7.557 -0.5183  0.3500 -0.9002
 4940SOL    HW223599   0.774   5.802   7.436 -0.2059 -0.1736 -1.0093
 4941SOL     OW23600  10.134   0.419   2.062  0.4939 -0.3585  0.5963
 4941SOL    HW123601  10.051   0.372   2.055  1.7069 -2.4500 -0.4940
 4941SOL    HW223602  10.112   0.510   2.039 -1.5127 -0.7907  0.6429
 4942SOL     OW23603  11.626   1.902   3.216 -0.5880 -0.1009  0.2633
 4942SOL    HW123604  11.642   1.988   3.254  1.9188 -0.6558  0.6472
 4942SOL    HW223605  11.683   1.898   3.139  0.3780 -1.8534  0.9961
 4943SOL     OW23606   0.697   4.916   7.419  0.2901 -0.0084 -0.0878
 4943SOL    HW123607   0.749   4.865   7.357 -1.9089 -0.8405 -1.3344
 4943SOL    HW223608   0.753   4.922   7.497  2.7462  0.2508 -1.7453
 4944SOL     OW23609   4.325   2.435   5.122 -0.0987 -0.2358 -0.1942
 4944SOL    HW123610   4.351   2.445   5.030  0.1128 -1.7111 -0.3325
 4944SOL    HW223611   4.386   2.491   5.170  1.2416 -1.1096 -0.7952
 4945SOL     OW23612  11.610   8.317   7.038  0.2751 -0.6458 -0.8698
 4945SOL    HW123613  11.534   8.260   7.047 -0.6152  0.2867 -2.2354
 4945SOL    HW223614  11.670   8.269   6.981 -0.0124 -0.6549 -1.1616
 4946SOL     OW23615   0.483   2.965   2.759 -0.2327 -0.4377 -0.3718
 4946SOL    HW123616   0.405   2.958   2.703 -0.0423 -0.5922 -0.6226
 4946SOL    HW223617   0.448   2.976   2.847 -0.5387 -0.1842 -0.5222
 4947SOL     OW23618  10.105   0.234   7.185  0.5097  0.3003 -0.3420
 4947SOL    HW123619  10.045   0.167   7.216 -0.1597  0.8889 -0.3272
 4947SOL    HW223620  10.060   0.274   7.110  1.1236  0.3901 -0.6729
 4948SOL     OW23621   0.314  11.196   0.898 -0.0215  0.0749  0.4297
 4948SOL    HW123622   0.240  11.167   0.951  0.4887  0.0270  1.1264
 4948SOL    HW223623   0.348  11.272   0.946  1.0304 -0.5496  0.6860
 4949SOL     OW23624   2.066  12.208   0.649  0.3054  0.2943  0.4909
 4949SOL    HW123625   2.137  12.258   0.610 -0.4458  0.6868 -0.4037
 4949SOL    HW223626   2.095  12.191   0.738  1.0991  1.2765  0.4359
 4950SOL     OW23627   3.263   6.667   8.580  0.0161 -0.0509 -0.1222
 4950SOL    HW123628   3.195   6.654   8.514  0.4966 -1.5246 -0.3599
 4950SOL    HW223629   3.277   6.762   8.582 -0.5056  0.0835 -1.6390
 4951SOL     OW23630   9.796   7.254  10.324 -0.3521  0.5405 -0.1830
 4951SOL    HW123631   9.744   7.331  10.301  2.5547  2.8268  0.3673
 4951SOL    HW223632   9.868   7.254  10.261 -0.3088 -1.8772 -0.2359
 4952SOL     OW23633   6.146  12.572  10.493  0.2486  0.3362 -0.0508
 4952SOL    HW123634   6.165  12.658  10.456 -1.4940  1.4756  1.5264
 4952SOL    HW223635   6.188  12.510  10.433  1.6914  2.2640 -1.1348
 4953SOL     OW23636   2.762  10.249   5.656  0.6371  0.1064  0.2167
 4953SOL    HW123637   2.734  10.164   5.623 -2.1706  0.6641  0.9102
 4953SOL    HW223638   2.790  10.232   5.746  0.5178 -0.1555  0.2045
 4954SOL     OW23639   4.842  10.201  10.166 -0.4093 -0.1080 -0.2088
 4954SOL    HW123640   4.793  10.279  10.191  0.9174  0.9603 -0.8450
 4954SOL    HW223641   4.781  10.150  10.113 -1.7762 -0.2545  1.4114
 4955SOL     OW23642   1.893  11.246   2.695 -0.0498  0.7558  0.3276
 4955SOL    HW123643   1.861  11.159   2.673 -0.9163  1.1173  0.1272
 4955SOL    HW223644   1.855  11.264   2.781 -0.2151  1.1049  0.1809
 4956SOL     OW23645   7.357   3.634   5.019  0.3702 -0.4816 -0.1153
 4956SOL    HW123646   7.293   3.605   4.954  0.5931  0.8391 -0.9551
 4956SOL    HW223647   7.364   3.561   5.080 -0.2444 -1.5513 -1.2831
 4957SOL     OW23648   8.319   2.299   1.597  0.1522  0.3306  0.8142
 4957SOL    HW123649   8.231   2.316   1.630 -0.4676  1.7964 -1.3620
 4957SOL    HW223650   8.307   2.290   1.502  2.4033  1.1714  0.3946
 4958SOL     OW23651  12.386  10.802   0.834  0.1223  0.0228  0.2042
 4958SOL    HW123652  12.470  10.838   0.861  0.4300  0.3878 -1.1837
 4958SOL    HW223653  12.374  10.724   0.889  0.6760  0.7626  1.4069
 4959SOL     OW23654   4.779   2.994  10.322  0.3430 -0.2800  0.3777
 4959SOL    HW123655   4.685   3.003  10.310  0.6321  0.8169 -1.5215
 4959SOL    HW223656   4.791   2.905  10.354 -1.1677 -1.3917 -1.9167
 4960SOL     OW23657   9.735   2.955  10.273 -0.4903 -0.6232 -0.2875
 4960SOL    HW123658   9.710   2.876  10.321  0.5018 -0.4204  0.5965
 4960SOL    HW223659   9.728   2.929  10.181 -1.3395 -1.3626 -0.0383
 4961SOL     OW23660   1.019   7.026   2.460  0.2514 -0.3743 -0.0057
 4961SOL    HW123661   1.057   6.996   2.542 -0.6511  2.0036  1.3863
 4961SOL    HW223662   0.967   6.952   2.429  0.5794 -1.3168  1.6039
 4962SOL     OW23663   8.500   8.872   4.899 -0.4001 -0.2222 -0.1395
 4962SOL    HW123664   8.457   8.836   4.822  0.1028  0.5577 -0.8141
 4962SOL    HW223665   8.578   8.916   4.864 -0.3152  0.3874  0.7754
 4963SOL     OW23666   4.044  12.239   9.839 -0.0769 -0.0666  0.4812
 4963SOL    HW123667   4.135  12.242   9.811 -0.1072  1.2381  0.4624
 4963SOL    HW223668   3.997  12.200   9.764  0.0333  2.1553 -0.8461
 4964SOL     OW23669   1.079   0.422   0.477 -0.1874 -0.1431  0.0689
 4964SOL    HW123670   1.074   0.471   0.394 -0.5876  2.5286  1.5465
 4964SOL    HW223671   1.164   0.378   0.474  0.1508  0.5468 -1.4175
 4965SOL     OW23672   0.991  12.332   0.401 -0.2098  0.0478  0.1983
 4965SOL    HW123673   1.050  12.325   0.326  0.0499  1.1599  0.2817
 4965SOL    HW223674   0.910  12.291   0.371  0.1509 -0.2383 -0.4119
 4966SOL     OW23675  12.494   5.949   5.234 -0.5161  0.1565 -0.0048
 4966SOL    HW123676  12.584   5.921   5.220 -0.8893 -0.6666 -0.8393
 4966SOL    HW223677  12.486   5.957   5.329  0.3045 -0.2075  0.0999
 4967SOL     OW23678   3.277   4.534  11.878 -0.4643  0.3479 -0.0339
 4967SOL    HW123679   3.245   4.620  11.851  0.2500  0.3417 -1.0019
 4967SOL    HW223680   3.372   4.540  11.865 -0.4171 -0.6046 -0.1946
 4968SOL     OW23681  10.140   3.561   4.164 -0.2044 -0.2975 -0.0211
 4968SOL    HW123682  10.150   3.540   4.257 -1.4370 -1.4136 -0.1081
 4968SOL    HW223683  10.204   3.505   4.120 -1.4616 -1.7962 -0.0190
 4969SOL     OW23684   7.044  12.298   2.881 -0.0291 -0.5380 -0.2314
 4969SOL    HW123685   7.088  12.215   2.899 -0.8062 -0.7196  0.9399
 4969SOL    HW223686   7.112  12.364   2.895  0.8184 -0.9835 -1.9691
 4970SOL     OW23687   3.028  10.544   2.912  0.6419  0.2595 -0.2684
 4970SOL    HW123688   3.075  10.626   2.905 -0.4399  0.9647  0.3827
 4970SOL    HW223689   3.096  10.477   2.912  1.5388  1.1526 -0.7628
 4971SOL     OW23690   3.410   1.536  11.265  0.8510 -0.4823  0.1288
 4971SOL    HW123691   3.400   1.623  11.226 -0.7842 -0.5061  0.4450
 4971SOL    HW223692   3.455   1.485  11.198  1.8019  0.5793 -0.0773
 4972SOL     OW23693   1.643   1.050   0.511 -0.0911  0.9613  0.1106
 4972SOL    HW123694   1.669   1.092   0.430 -1.4125 -0.1860 -0.9726
 4972SOL    HW223695   1.641   1.120   0.576  2.7911  1.5864 -0.3447
 4973SOL     OW23696   3.066   6.821   4.043  0.4556  0.1673 -0.5585
 4973SOL    HW123697   3.139   6.784   4.093  1.1161 -0.1931 -1.7236
 4973SOL    HW223698   3.012   6.866   4.107  2.1529  1.1751  0.2416
 4974SOL     OW23699   1.563   7.469   5.148 -0.0871  0.1651 -0.0763
 4974SOL    HW123700   1.645   7.480   5.197 -0.3729  1.3660  0.1577
 4974SOL    HW223701   1.495   7.495   5.210 -0.3702  3.2776 -1.5255
 4975SOL     OW23702  11.320  10.361   4.948  0.3461 -0.1652 -0.1764
 4975SOL    HW123703  11.328  10.455   4.962 -1.1938 -0.0560  0.0964
 4975SOL    HW223704  11.370  10.344   4.868  0.4341  0.9121 -0.3661
 4976SOL     OW23705   3.474   0.293   0.356  0.4480 -0.2747  0.4455
 4976SOL    HW123706   3.512   0.268   0.272 -3.1333 -0.1894 -1.4418
 4976SOL    HW223707   3.525   0.246   0.422  1.7236 -2.5650 -1.9957
 4977SOL     OW23708  11.643   0.743   1.774  0.4164  0.1566 -0.1745
 4977SOL    HW123709  11.602   0.824   1.803 -0.6658 -0.1220 -0.8925
 4977SOL    HW223710  11.579   0.674   1.794  1.0117 -0.4323 -0.2466
 4978SOL     OW23711  12.596   3.385   5.878  0.5316  0.0462 -0.1534
 4978SOL    HW123712  12.668   3.356   5.822  0.1727  0.1617 -0.6826
 4978SOL    HW223713  12.575   3.308   5.931  0.7307 -0.1303 -0.3295
 4979SOL     OW23714   5.570   2.850   3.559  0.3297  0.0256  0.3958
 4979SOL    HW123715   5.581   2.895   3.643 -1.2906 -0.5730  0.9651
 4979SOL    HW223716   5.624   2.771   3.566  0.1399 -0.0618  0.9083
 4980SOL     OW23717   8.775   5.978  12.070 -0.4036 -0.0408 -0.0213
 4980SOL    HW123718   8.780   6.073  12.087 -2.2535 -0.1908  1.7744
 4980SOL    HW223719   8.763   5.972  11.975 -0.8853  1.5866 -0.1103
 4981SOL     OW23720  10.990   7.271   3.366 -0.1930 -0.0881 -0.2283
 4981SOL    HW123721  10.960   7.181   3.372  1.8807 -0.8043  0.3069
 4981SOL    HW223722  11.014   7.282   3.274  1.1988 -0.6991  0.0341
 4982SOL     OW23723   4.574   5.626  10.936  0.4895  0.5072  0.6268
 4982SOL    HW123724   4.621   5.678  10.870 -0.6407  1.9750  0.9147
 4982SOL    HW223725   4.631   5.628  11.013  0.5221  1.2375  0.5916
 4983SOL     OW23726   3.619   7.750   6.147  0.0980 -0.4781  0.0020
 4983SOL    HW123727   3.668   7.687   6.200 -2.1857 -1.1774  1.4512
 4983SOL    HW223728   3.538   7.704   6.124 -0.0895  0.7232 -1.9666
 4984SOL     OW23729  11.775   0.962   9.022 -0.2216 -0.1159 -0.0059
 4984SOL    HW123730  11.696   0.920   9.058 -0.2027 -0.3742 -0.2604
 4984SOL    HW223731  11.837   0.961   9.095 -0.5454  0.3395  0.2809
 4985SOL     OW23732  10.936   8.443   1.290 -0.3437 -0.4423 -0.7301
 4985SOL    HW123733  10.974   8.521   1.330 -1.4079 -0.3278  0.0810
 4985SOL    HW223734  10.948   8.373   1.354 -1.7846 -0.3263 -0.2944
 4986SOL     OW23735  11.943  12.068   6.459 -0.3853  0.1930  0.7173
 4986SOL    HW123736  11.895  11.991   6.491  0.5716 -0.2977  1.0205
 4986SOL    HW223737  12.032  12.036   6.447 -0.7177  0.2453 -2.7960
 4987SOL     OW23738   1.044   4.276  11.493 -0.6418 -0.1012 -0.8243
 4987SOL    HW123739   0.984   4.205  11.470  1.2824 -2.5803  1.1532
 4987SOL    HW223740   1.089   4.297  11.411 -1.3097 -1.1222 -1.4831
 4988SOL     OW23741  12.491   9.783   0.902 -0.0369  0.7990  0.1736
 4988SOL    HW123742  12.580   9.793   0.870 -0.3415  0.9946 -0.6689
 4988SOL    HW223743  12.484   9.844   0.975  0.9567 -0.3186  1.2447
 4989SOL     OW23744  10.051  11.648   2.509 -0.4397 -0.0957  0.2105
 4989SOL    HW123745  10.101  11.713   2.459 -0.9041  0.1154  0.0140
 4989SOL    HW223746  10.105  11.569   2.506 -0.2637  0.0376 -0.2680
 4990SOL     OW23747   9.212   0.704   9.943 -0.0724  0.8044  0.0774
 4990SOL    HW123748   9.278   0.745   9.887 -1.9592  1.1804 -2.0532
 4990SOL    HW223749   9.255   0.692  10.028  2.6236  1.1695 -1.1420
 4991SOL     OW23750  12.127  11.459   9.511  0.1218 -0.2828  0.4736
 4991SOL    HW123751  12.179  11.524   9.561 -1.5668  0.4265  1.3899
 4991SOL    HW223752  12.189  11.388   9.494  1.1953  0.1511  2.2430
 4992SOL     OW23753   0.884   3.241  11.530  0.1452 -0.2426 -0.6000
 4992SOL    HW123754   0.818   3.309  11.524  0.0697 -0.3175 -0.6168
 4992SOL    HW223755   0.851   3.170  11.475  1.6161  0.8320 -3.0616
 4993SOL     OW23756   9.778   7.370   3.500  0.0874 -0.3182 -0.1460
 4993SOL    HW123757   9.728   7.433   3.552 -2.1389 -1.9184 -0.1656
 4993SOL    HW223758   9.764   7.397   3.409 -0.4347 -0.5059 -0.1279
 4994SOL     OW23759   6.246  11.315   0.209  0.0282 -0.0856  0.0307
 4994SOL    HW123760   6.314  11.369   0.169  1.2565 -1.3595  0.3152
 4994SOL    HW223761   6.218  11.364   0.286 -2.0585  2.1946 -2.0132
 4995SOL     OW23762   0.861   8.860   0.573  0.1172  0.2138 -0.2421
 4995SOL    HW123763   0.918   8.813   0.512  3.0926  1.6793  1.1677
 4995SOL    HW223764   0.830   8.935   0.524  0.5953  0.1625 -0.6262
 4996SOL     OW23765   7.310  12.364   6.452 -0.3764 -0.0418 -0.2602
 4996SOL    HW123766   7.395  12.322   6.452  0.4149  1.4598 -1.2586
 4996SOL    HW223767   7.315  12.428   6.523 -0.8873 -0.3135  0.0308
 4997SOL     OW23768   9.781   7.856   0.684 -0.5555  0.4656 -0.4406
 4997SOL    HW123769   9.757   7.909   0.760  0.1977  0.1766  0.0051
 4997SOL    HW223770   9.854   7.904   0.644  1.2455 -1.0008  0.8918
 4998SOL     OW23771   5.370   1.106   8.675 -0.3394 -0.1270 -0.2733
 4998SOL    HW123772   5.331   1.099   8.762  1.1980 -2.3515  0.3295
 4998SOL    HW223773   5.298   1.087   8.615 -0.9299 -0.9645  0.6637
 4999SOL     OW23774   5.671   7.840   1.232  0.1724  0.5160 -0.1781
 4999SOL    HW123775   5.584   7.807   1.210 -0.5005  1.5877  0.7248
 4999SOL    HW223776   5.655   7.905   1.301  1.5675  1.6004 -0.8203
 5000SOL     OW23777   2.910   8.270   7.981 -0.6727  0.2717 -0.2432
 5000SOL    HW123778   2.825   8.299   8.013 -0.2875  0.4985  0.6138
 5000SOL    HW223779   2.958   8.246   8.060 -0.2244 -0.6411 -0.7804
 5001SOL     OW23780   2.942  11.828   2.509 -0.0825 -0.1341  0.0959
 5001SOL    HW123781   2.910  11.896   2.567 -0.6794 -1.5584  1.5170
 5001SOL    HW223782   2.932  11.747   2.559 -1.3720 -1.5411 -2.2721
 5002SOL     OW23783   6.619  11.355  10.553  0.4164 -0.8412 -0.7057
 5002SOL    HW123784   6.660  11.303  10.622 -0.6388 -2.8062 -1.4544
 5002SOL    HW223785   6.558  11.412  10.599  1.4155 -0.4239  0.1369
 5003SOL     OW23786   7.757   6.947  12.082 -0.2206  0.3168 -0.5403
 5003SOL    HW123787   7.726   7.026  12.126 -1.0367  0.5927 -1.5537
 5003SOL    HW223788   7.844   6.971  12.049 -0.9266  1.2304 -1.8456
 5004SOL     OW23789   6.713  12.451  10.881 -0.4995 -0.3413 -0.7545
 5004SOL    HW123790   6.804  12.476  10.862 -1.4127  1.9358 -2.4887
 5004SOL    HW223791   6.686  12.511  10.950 -0.7984 -0.8374 -0.4326
 5005SOL     OW23792   3.456   3.912   7.671 -0.5742 -0.1783  0.1689
 5005SOL    HW123793   3.481   3.998   7.703 -0.0007  0.6656 -2.3444
 5005SOL    HW223794   3.396   3.878   7.738  1.2347  0.9948  2.5480
 5006SOL     OW23795   2.188   5.634  11.728  0.0884  0.2001 -0.0981
 5006SOL    HW123796   2.096   5.654  11.710 -0.4385 -0.9031  1.2558
 5006SOL    HW223797   2.191   5.539  11.738  1.2861  0.2743  0.4149
 5007SOL     OW23798   7.736   1.756   8.420  0.6602 -0.0316  0.1073
 5007SOL    HW123799   7.820   1.795   8.441  0.0039  0.8335  1.2657
 5007SOL    HW223800   7.673   1.806   8.472 -0.5251 -0.8993 -0.4454
 5008SOL     OW23801  12.451   6.256  12.529  0.6390 -0.0926 -0.3773
 5008SOL    HW123802  12.477   6.315  12.600  0.8639 -0.8484  0.1717
 5008SOL    HW223803  12.533   6.236  12.484  0.2862  1.9439 -2.1173
 5009SOL     OW23804   5.213   5.681   6.823 -0.1575  0.5507  0.4715
 5009SOL    HW123805   5.189   5.629   6.746 -1.0394 -0.4029  1.3538
 5009SOL    HW223806   5.135   5.735   6.840 -0.4490 -0.1409  1.4027
 5010SOL     OW23807   5.513   4.082  10.744 -0.4579 -0.1646  0.1750
 5010SOL    HW123808   5.440   4.039  10.700 -0.6718  1.9356 -1.6949
 5010SOL    HW223809   5.474   4.122  10.822 -0.8030 -0.9226  0.4039
 5011SOL     OW23810   5.312  10.696   6.057  0.3888  0.6916  0.3811
 5011SOL    HW123811   5.401  10.729   6.051 -0.3197  2.4982 -1.7721
 5011SOL    HW223812   5.305  10.632   5.986 -0.7503  2.6405 -1.3538
 5012SOL     OW23813   8.994   2.390  11.611  0.2211  0.0209 -0.0542
 5012SOL    HW123814   9.083   2.396  11.576  0.5411 -1.9933  0.2971
 5012SOL    HW223815   8.999   2.435  11.696  0.6563  0.7119 -0.4348
 5013SOL     OW23816   6.214   3.903   1.155  0.5775 -0.0113 -0.6273
 5013SOL    HW123817   6.162   3.825   1.138  0.1628 -0.2812  1.6206
 5013SOL    HW223818   6.171   3.946   1.229  2.3082  0.8951 -0.0779
 5014SOL     OW23819  12.523   9.394   2.213  0.0468 -0.0481 -0.3453
 5014SOL    HW123820  12.486   9.341   2.284 -0.4022  1.0676  0.2875
 5014SOL    HW223821  12.461   9.383   2.140 -0.5050  0.2713  0.0680
 5015SOL     OW23822   0.564   2.826   8.006 -0.0828 -0.1136 -1.1034
 5015SOL    HW123823   0.541   2.789   8.092 -0.9323  0.9325 -0.8600
 5015SOL    HW223824   0.660   2.830   8.006 -0.0697 -0.2503 -0.2596
 5016SOL     OW23825   7.890   0.870  12.244  0.3868  0.2240  0.2395
 5016SOL    HW123826   7.875   0.928  12.169 -0.3106  0.2064  0.3625
 5016SOL    HW223827   7.945   0.800  12.209 -0.9354 -0.4315 -0.5652
 5017SOL     OW23828   1.536   0.544   0.291 -0.2774  0.7277 -0.4862
 5017SOL    HW123829   1.449   0.573   0.266 -1.3222 -0.5263  1.4832
 5017SOL    HW223830   1.528   0.517   0.382  2.0886  0.2035 -0.3540
 5018SOL     OW23831   0.811   5.880  10.284  0.4085 -0.5678  0.3632
 5018SOL    HW123832   0.745   5.889  10.215  0.7969 -1.5671 -0.1637
 5018SOL    HW223833   0.882   5.939  10.258  0.3366 -0.5645  0.1755
 5019SOL     OW23834   0.737   0.994  11.692 -0.0563  0.2067  0.0771
 5019SOL    HW123835   0.741   1.003  11.597 -1.3918 -1.3084 -0.1717
 5019SOL    HW223836   0.753   0.901  11.708  0.8330  0.5510  1.4083
 5020SOL     OW23837   3.418  11.117   6.307 -0.3048 -0.1009  0.4724
 5020SOL    HW123838   3.378  11.118   6.394 -1.0880 -0.3623  0.1259
 5020SOL    HW223839   3.387  11.198   6.267  0.2169  0.1178  0.5002
 5021SOL     OW23840  11.576   7.210  12.313 -0.2269  0.3412 -0.0741
 5021SOL    HW123841  11.555   7.269  12.240 -0.8565  0.1948 -0.0184
 5021SOL    HW223842  11.603   7.129  12.272  1.0010  0.7723 -0.1566
 5022SOL     OW23843   9.517   0.978   7.319 -0.0260  0.0972 -0.5757
 5022SOL    HW123844   9.596   1.033   7.314  0.9086 -0.8157  2.0215
 5022SOL    HW223845   9.540   0.899   7.271  0.9267 -0.4072  0.6521
 5023SOL     OW23846  11.350  10.845   9.988  0.0961  0.2102 -0.1369
 5023SOL    HW123847  11.386  10.912   9.930  2.5236 -0.1380  0.8745
 5023SOL    HW223848  11.282  10.891  10.038  1.3195  1.8093  0.1363
 5024SOL     OW23849  11.456   9.357   2.513 -0.9594  0.3191 -0.0377
 5024SOL    HW123850  11.471   9.441   2.555 -0.2618 -1.4105  3.6302
 5024SOL    HW223851  11.545   9.322   2.499 -1.2548 -0.6452  0.4419
 5025SOL     OW23852  11.560   4.391   9.893  0.2830 -0.8095 -0.2723
 5025SOL    HW123853  11.607   4.391   9.809  2.7499  0.6477  0.9805
 5025SOL    HW223854  11.516   4.476   9.895 -1.6396 -1.7265 -0.9553
 5026SOL     OW23855   6.257   6.019  10.569 -0.0340 -0.2397  0.5599
 5026SOL    HW123856   6.221   5.955  10.507  0.3110  0.2797 -0.1883
 5026SOL    HW223857   6.195   6.017  10.643 -0.7083 -0.5359  0.0049
 5027SOL     OW23858  10.835   3.089   2.376 -0.5577 -0.0589 -0.1266
 5027SOL    HW123859  10.923   3.053   2.366 -0.3016  0.6091 -0.3040
 5027SOL    HW223860  10.791   3.029   2.437  0.0593 -0.3157  0.0692
 5028SOL     OW23861  10.394   9.592  12.247 -0.7993 -0.8051 -0.2306
 5028SOL    HW123862  10.331   9.647  12.200 -0.6095 -0.1606  0.2586
 5028SOL    HW223863  10.340   9.526  12.291 -0.9096 -2.2985 -2.3968
 5029SOL     OW23864   1.924  10.815  12.276  0.0636 -0.0403 -0.3573
 5029SOL    HW123865   1.895  10.763  12.350 -0.6939 -0.8654 -1.2066
 5029SOL    HW223866   1.942  10.751  12.207  0.6438  0.7153 -0.9278
 5030SOL     OW23867   4.084   2.457   0.777 -0.0801  0.3375 -0.9495
 5030SOL    HW123868   4.057   2.366   0.792  2.0603 -0.1759  0.1956
 5030SOL    HW223869   4.002   2.504   0.767 -1.4742 -1.1307  2.1623
 5031SOL     OW23870   8.178   0.804  11.457  0.1627 -0.5225  0.3244
 5031SOL    HW123871   8.143   0.807  11.368 -0.8434  1.1249  0.7267
 5031SOL    HW223872   8.135   0.729  11.498 -2.6740  1.1113  0.6329
 5032SOL     OW23873   6.630  12.210   0.155  0.0992  0.3147 -0.1753
 5032SOL    HW123874   6.559  12.152   0.130  0.1720  0.2389 -0.2049
 5032SOL    HW223875   6.641  12.196   0.249  1.8546 -1.6717 -0.5941
 5033SOL     OW23876  11.738   3.526   0.808 -0.0666  0.3033  0.6746
 5033SOL    HW123877  11.655   3.562   0.778  0.1818  0.3514  0.0262
 5033SOL    HW223878  11.731   3.432   0.795  0.7907  0.4920 -1.5063
 5034SOL     OW23879   8.114   0.469   0.744 -0.2145  0.6778  0.5181
 5034SOL    HW123880   8.096   0.520   0.823  0.6773  1.4147  0.2674
 5034SOL    HW223881   8.192   0.510   0.707 -1.0704  0.8514 -1.1793
 5035SOL     OW23882  11.783   8.687   4.319  0.6860  0.6953 -0.2093
 5035SOL    HW123883  11.748   8.775   4.328 -1.8117 -0.0747 -1.3977
 5035SOL    HW223884  11.772   8.647   4.405 -1.7300  0.4303 -0.5719
 5036SOL     OW23885   7.497   7.566   3.183  0.4039 -0.0942  0.6967
 5036SOL    HW123886   7.511   7.639   3.244 -2.1345  1.9792 -0.9477
 5036SOL    HW223887   7.477   7.609   3.099 -0.0407 -2.7369 -0.6501
 5037SOL     OW23888  11.767   6.681   4.280 -0.5862 -0.4268  0.3088
 5037SOL    HW123889  11.816   6.760   4.259 -0.8018 -0.0789  1.0938
 5037SOL    HW223890  11.699   6.676   4.212  0.4507 -0.8595 -0.7251
 5038SOL     OW23891   3.596   2.634   4.709 -0.1385 -0.5026  0.0899
 5038SOL    HW123892   3.660   2.614   4.778 -0.1421  0.3711  0.3526
 5038SOL    HW223893   3.524   2.574   4.726  0.2594 -0.9429  0.2772
 5039SOL     OW23894   9.763  11.292   2.670 -0.0094 -0.1180  0.0055
 5039SOL    HW123895   9.670  11.316   2.672 -0.1705 -0.5752 -1.3052
 5039SOL    HW223896   9.808  11.367   2.708 -0.6999  1.2654 -1.7846
 5040SOL     OW23897   0.513  10.274   2.609  0.2167  0.1648  0.4778
 5040SOL    HW123898   0.459  10.232   2.542 -0.5137 -0.2799  1.3295
 5040SOL    HW223899   0.602  10.244   2.591 -0.4414 -3.0042  1.9302
 5041SOL     OW23900   3.433   1.842   3.617  0.2384 -0.1002  0.1709
 5041SOL    HW123901   3.529   1.837   3.619  0.1712 -1.1407  1.1040
 5041SOL    HW223902   3.406   1.769   3.562  0.0023  1.1101 -1.4332
 5042SOL     OW23903   1.165   9.956   7.216  0.6885  0.4313  0.4933
 5042SOL    HW123904   1.144  10.037   7.263  1.8540  0.9433  0.1496
 5042SOL    HW223905   1.155   9.888   7.283  0.1114  0.8969  0.8981
 5043SOL     OW23906   8.844  11.398   1.747 -0.2386  0.5792  0.3444
 5043SOL    HW123907   8.878  11.312   1.771 -0.8933  0.1966 -0.0776
 5043SOL    HW223908   8.780  11.418   1.815  0.9437  1.3923  1.2566
 5044SOL     OW23909  11.463   2.296   9.724 -0.3058 -0.5855  0.4197
 5044SOL    HW123910  11.533   2.331   9.668 -0.5849  0.0883  0.4871
 5044SOL    HW223911  11.495   2.309   9.813 -0.6359  0.0010  0.4602
 5045SOL     OW23912   0.981   2.739  12.449 -0.2974 -0.4393  0.1335
 5045SOL    HW123913   0.915   2.750  12.518  1.5172  0.4293  1.8354
 5045SOL    HW223914   0.952   2.797  12.379 -1.9385 -0.9698  0.3259
 5046SOL     OW23915   3.144   9.929   7.741 -0.0231  0.2907  0.1002
 5046SOL    HW123916   3.049   9.922   7.729 -0.1290 -0.0367  1.0630
 5046SOL    HW223917   3.162   9.881   7.822  1.0182  0.0341 -0.2661
 5047SOL     OW23918   2.461   7.909  10.062 -0.0244 -0.1977 -0.5264
 5047SOL    HW123919   2.453   7.834  10.120 -0.7547 -0.9136 -1.5247
 5047SOL    HW223920   2.378   7.956  10.071  0.7192  0.9764  0.6948
 5048SOL     OW23921  10.694  10.978   2.300  0.5298  0.2153 -0.2493
 5048SOL    HW123922  10.704  10.922   2.223  1.1196 -0.4951  0.3324
 5048SOL    HW223923  10.718  10.922   2.374  0.1521  0.9426  0.4400
 5049SOL     OW23924   1.060   1.059  10.878  0.2943 -0.1487  0.0219
 5049SOL    HW123925   1.152   1.051  10.853  0.4094  0.5848  0.1852
 5049SOL    HW223926   1.034   1.145  10.845 -0.1418 -0.0737  0.5577
 5050SOL     OW23927   6.030  12.078   6.474 -0.2147 -0.0696  0.0471
 5050SOL    HW123928   6.116  12.099   6.509 -0.3691 -0.8546  0.9447
 5050SOL    HW223929   6.002  12.158   6.430 -0.2732  1.2292  2.2764
 5051SOL     OW23930  11.538   8.556  10.300  0.5742 -0.3119  0.6068
 5051SOL    HW123931  11.615   8.504  10.281  1.1335  0.8723 -0.5224
 5051SOL    HW223932  11.570   8.647  10.300 -1.0304  0.3258 -1.2827
 5052SOL     OW23933  12.256  12.044  12.507 -0.3621  0.2804 -0.0965
 5052SOL    HW123934  12.263  12.113  12.573  0.8097 -0.7858  0.9529
 5052SOL    HW223935  12.303  12.077  12.431  0.8971  0.3232  0.6830
 5053SOL     OW23936   1.341   2.722   0.521 -0.1606 -0.3846 -0.0916
 5053SOL    HW123937   1.269   2.698   0.462  0.5308 -0.4719 -0.9174
 5053SOL    HW223938   1.302   2.785   0.581 -1.0124 -0.6690 -0.3273
 5054SOL     OW23939   2.420   9.468   5.798  0.1600 -0.2902 -0.5852
 5054SOL    HW123940   2.342   9.446   5.747 -1.7383 -0.7018  2.2626
 5054SOL    HW223941   2.425   9.563   5.796  0.1241 -0.2945 -1.4626
 5055SOL     OW23942   2.604   2.334   4.057 -0.0867  0.1999  0.2855
 5055SOL    HW123943   2.516   2.331   4.020  0.4712  0.9521 -1.1488
 5055SOL    HW223944   2.658   2.285   3.996  1.1472  2.7753 -0.8522
 5056SOL     OW23945   0.461   7.999   4.800  0.1679  0.3010  0.4814
 5056SOL    HW123946   0.541   8.036   4.762 -0.2205  1.1085  0.4229
 5056SOL    HW223947   0.392   8.060   4.774 -0.5955 -0.7652 -0.0820
 5057SOL     OW23948  12.047   5.371   1.604  0.4232  0.1092  0.2735
 5057SOL    HW123949  12.072   5.394   1.514 -0.9972  0.4270 -0.0720
 5057SOL    HW223950  12.058   5.452   1.654  0.3206  0.1856  0.1732
 5058SOL     OW23951   7.558   3.395   4.424 -0.0072 -0.2402 -0.5675
 5058SOL    HW123952   7.560   3.479   4.471  2.0204 -0.1264 -0.7678
 5058SOL    HW223953   7.508   3.337   4.481  0.8621  0.3858  0.9118
 5059SOL     OW23954   0.324   8.962   3.449  0.0071  0.1369 -0.2896
 5059SOL    HW123955   0.277   9.022   3.391 -1.1239 -0.0126  0.4239
 5059SOL    HW223956   0.282   8.877   3.434  0.5317 -0.1472 -0.1508
 5060SOL     OW23957   5.092   5.744   7.620  0.2704 -0.1946 -0.3649
 5060SOL    HW123958   5.123   5.832   7.598 -0.4104  0.1017 -0.1915
 5060SOL    HW223959   5.096   5.696   7.538 -0.3435  0.3135 -0.7038
 5061SOL     OW23960   4.523   8.265   1.314  0.4429 -0.6023 -0.1961
 5061SOL    HW123961   4.614   8.258   1.343 -0.1786 -1.2101  1.6999
 5061SOL    HW223962   4.501   8.357   1.327  0.5349 -0.6223  0.1094
 5062SOL     OW23963   6.739   6.987   5.807  0.2502 -0.4435 -0.2394
 5062SOL    HW123964   6.805   7.056   5.802  1.1084 -1.3248 -2.0289
 5062SOL    HW223965   6.655   7.034   5.809  0.8362  0.7008  2.3586
 5063SOL     OW23966   6.219   5.162  11.733 -0.2420  0.4356  0.2131
 5063SOL    HW123967   6.298   5.167  11.680  0.6628  0.1152  1.4764
 5063SOL    HW223968   6.151   5.200  11.678  0.8992  1.2471 -0.6946
 5064SOL     OW23969   9.770   0.172  11.175  0.2593 -0.4690  0.2468
 5064SOL    HW123970   9.680   0.168  11.141  0.8697  0.8292 -1.6538
 5064SOL    HW223971   9.760   0.205  11.264 -1.0442  1.9703 -0.7045
 5065SOL     OW23972  11.024   4.508  10.408  0.3592  0.1144  0.3182
 5065SOL    HW123973  11.096   4.445  10.415 -0.4675 -0.8762  0.2800
 5065SOL    HW223974  11.012   4.520  10.314 -0.1670 -0.5217  0.2909
 5066SOL     OW23975  12.080  11.684   3.345 -0.6240 -0.2958  0.4779
 5066SOL    HW123976  12.070  11.593   3.373  2.0925 -0.2479  1.9442
 5066SOL    HW223977  12.147  11.682   3.277 -0.9373  0.5503  0.1286
 5067SOL     OW23978   7.421  10.611   8.671 -0.5933 -0.0993 -0.1495
 5067SOL    HW123979   7.367  10.535   8.692 -1.3967  0.5878  0.3532
 5067SOL    HW223980   7.385  10.644   8.588 -0.8876  0.2865  0.1241
 5068SOL     OW23981   0.591  10.312   9.833 -0.1191  0.3117  0.3812
 5068SOL    HW123982   0.501  10.313   9.865 -0.6741  2.4912 -1.0164
 5068SOL    HW223983   0.638  10.371   9.892 -0.3718  1.6420 -0.6917
 5069SOL     OW23984   9.518   6.713  10.532  0.1783 -0.5794 -0.7343
 5069SOL    HW123985   9.544   6.707  10.440 -1.0945  1.4399 -1.2824
 5069SOL    HW223986   9.601   6.712  10.580  1.1273  1.8065 -2.1605
 5070SOL     OW23987   8.933  12.421  10.191  0.0422 -0.0273 -0.3848
 5070SOL    HW123988   8.916  12.341  10.241  2.2637 -0.3809 -0.1088
 5070SOL    HW223989   8.856  12.431  10.136 -0.5278 -2.0793 -0.0549
 5071SOL     OW23990   0.767   4.827  11.617  0.2713  0.2673 -0.0197
 5071SOL    HW123991   0.822   4.848  11.693  0.7107 -1.3496  0.1654
 5071SOL    HW223992   0.767   4.731  11.614 -2.5303  0.1746 -0.0317
 5072SOL     OW23993   2.236   2.491  10.268  0.7938  0.0265 -0.2876
 5072SOL    HW123994   2.185   2.567  10.295 -0.3042 -0.7806 -0.0277
 5072SOL    HW223995   2.171   2.423  10.252  1.8647 -1.5148  1.5935
 5073SOL     OW23996   7.353  11.262   9.837  0.3911 -0.0001 -0.4376
 5073SOL    HW123997   7.268  11.218   9.842 -0.5186  1.6051 -1.1531
 5073SOL    HW223998   7.356  11.316   9.916 -0.7061  2.3488 -1.8986
 5074SOL     OW23999   2.498   2.192   5.208  0.3035 -0.6375  0.3861
 5074SOL    HW124000   2.500   2.183   5.303  0.2000  0.3568  0.4891
 5074SOL    HW224001   2.472   2.282   5.193  1.3257 -0.4804 -0.5792
 5075SOL     OW24002  12.424   4.182   9.885  0.5934  0.1445 -0.3386
 5075SOL    HW124003  12.348   4.202   9.940  0.3860  0.6856 -0.8257
 5075SOL    HW224004  12.466   4.109   9.931 -0.2928 -0.2620 -0.1354
 5076SOL     OW24005  11.083   8.445   2.282  0.5700 -0.1449 -0.0289
 5076SOL    HW124006  11.072   8.350   2.285  0.1610 -0.0848  0.4996
 5076SOL    HW224007  11.003   8.477   2.240  1.2929 -0.1256 -1.4546
 5077SOL     OW24008   8.013  12.084  12.456 -0.0305 -0.5380  0.1600
 5077SOL    HW124009   7.931  12.132  12.467 -0.1304 -0.4569 -0.8354
 5077SOL    HW224010   8.068  12.112  12.529 -1.1151 -1.0941  1.2163
 5078SOL     OW24011   6.735   2.305   4.217 -0.6919 -0.2481 -0.1128
 5078SOL    HW124012   6.735   2.266   4.129 -0.3844  0.0878 -0.2635
 5078SOL    HW224013   6.811   2.265   4.261 -1.6716 -1.5102  0.4997
 5079SOL     OW24014   5.033   2.634   0.428 -0.0740  0.4062  0.5449
 5079SOL    HW124015   5.020   2.551   0.473  0.1394  0.2696  0.3578
 5079SOL    HW224016   4.946   2.662   0.401 -0.0617 -0.1743 -0.1377
 5080SOL     OW24017   3.166   4.512   8.306 -0.0881 -0.2945  0.6467
 5080SOL    HW124018   3.184   4.511   8.212 -0.4032 -0.2113  0.5832
 5080SOL    HW224019   3.186   4.602   8.333  0.3301 -0.4095  0.7261
 5081SOL     OW24020   1.136  12.347   1.555 -0.1690  0.3796  0.4231
 5081SOL    HW124021   1.173  12.342   1.466  0.6161 -0.3688  0.7789
 5081SOL    HW224022   1.047  12.313   1.546 -0.3821  1.0540 -0.2138
 5082SOL     OW24023   5.834   4.755  11.949  0.0994  0.2058  0.1128
 5082SOL    HW124024   5.744   4.769  11.977 -0.0678 -3.1140  1.6775
 5082SOL    HW224025   5.828   4.744  11.854 -1.4461 -1.3730  0.3304
 5083SOL     OW24026  12.235   5.438   4.524  0.2296  0.3543 -0.0982
 5083SOL    HW124027  12.149   5.479   4.515  0.5082  1.4616  1.7182
 5083SOL    HW224028  12.287   5.503   4.571  2.6877  0.5393 -2.8574
 5084SOL     OW24029  12.548  11.198   7.572  0.3939 -0.0990  0.0210
 5084SOL    HW124030  12.562  11.291   7.589  1.2929  0.4495 -3.1909
 5084SOL    HW224031  12.636  11.160   7.575  0.2823 -0.4305 -0.7932
 5085SOL     OW24032   5.298   8.304   1.119 -0.0391  0.2591 -0.3772
 5085SOL    HW124033   5.204   8.304   1.133  0.1011  0.6802  0.6138
 5085SOL    HW224034   5.321   8.211   1.115 -0.1991  0.0917  1.6206
 5086SOL     OW24035   0.674   9.600  12.109 -0.1471 -0.5793  0.0045
 5086SOL    HW124036   0.610   9.529  12.117 -0.1424 -0.4758  1.1138
 5086SOL    HW224037   0.626   9.678  12.137 -0.3233 -0.0189 -1.7433
 5087SOL     OW24038  11.545   6.449   3.258  0.1080  0.3209  0.0923
 5087SOL    HW124039  11.522   6.532   3.298  0.9429 -0.3179  1.9881
 5087SOL    HW224040  11.483   6.386   3.294  1.0674 -0.3261  0.6541
 5088SOL     OW24041   8.821   2.372   1.625  0.4040  0.0376  0.2202
 5088SOL    HW124042   8.889   2.400   1.564  1.3866 -2.0529  0.2674
 5088SOL    HW224043   8.757   2.327   1.570  0.1971  0.0375  0.4585
 5089SOL     OW24044   0.956  11.151  11.916  0.2285  0.1692  0.2821
 5089SOL    HW124045   0.998  11.069  11.944  0.9206  0.4248  0.0232
 5089SOL    HW224046   0.977  11.213  11.985  1.1378  0.5536 -0.3065
 5090SOL     OW24047   0.266   3.440   4.759 -0.5744  0.4260 -0.1114
 5090SOL    HW124048   0.183   3.444   4.712  0.0884 -0.0839 -1.3809
 5090SOL    HW224049   0.242   3.430   4.851 -1.9361 -2.2563 -0.6799
 5091SOL     OW24050   8.177   5.607   8.522  0.4925  0.3940  0.4779
 5091SOL    HW124051   8.114   5.602   8.449 -0.9856  0.6691  1.6791
 5091SOL    HW224052   8.235   5.533   8.508  0.0169  0.2222 -0.7839
 5092SOL     OW24053   9.181   6.944  11.254  0.2443  0.8358 -0.3002
 5092SOL    HW124054   9.271   6.928  11.227  0.0903 -1.6066  0.3802
 5092SOL    HW224055   9.180   6.921  11.348 -0.8756  1.7168 -0.0771
 5093SOL     OW24056   8.732  11.298  11.449  0.2013  0.2009  0.7310
 5093SOL    HW124057   8.658  11.257  11.404  0.2114 -0.3755  1.2239
 5093SOL    HW224058   8.721  11.392  11.433 -0.3250  0.0751  0.3297
 5094SOL     OW24059   7.613   0.285   2.042  0.4814 -0.3300 -0.0964
 5094SOL    HW124060   7.618   0.335   2.123  1.7489 -1.3944  0.5179
 5094SOL    HW224061   7.595   0.350   1.974 -2.7910  0.3876  1.2321
 5095SOL     OW24062   2.762   4.041  10.947 -0.0333 -0.5875 -0.0319
 5095SOL    HW124063   2.784   4.089  11.027 -0.3104 -2.3678  1.1770
 5095SOL    HW224064   2.844   4.035  10.899 -0.1301  1.6564 -0.5941
 5096SOL     OW24065  10.551  11.508   9.467 -0.1480 -0.0925  0.0928
 5096SOL    HW124066  10.633  11.521   9.514 -0.3651 -3.1289  1.5809
 5096SOL    HW224067  10.487  11.560   9.514  0.5039  0.4978  0.3321
 5097SOL     OW24068   8.095   1.326   2.023  0.1391 -0.4694  0.0842
 5097SOL    HW124069   8.077   1.414   1.990 -0.4908  0.7511  3.2907
 5097SOL    HW224070   8.016   1.276   2.003 -0.4833  0.4023  0.2962
 5098SOL     OW24071  10.190  12.202   9.537  0.0828 -0.3950 -0.2408
 5098SOL    HW124072  10.209  12.220   9.629  0.3576 -0.8947 -0.1947
 5098SOL    HW224073  10.178  12.107   9.533  0.8120 -0.4698 -0.8416
 5099SOL     OW24074   1.558  10.044   9.113  0.6117  0.3746  0.8646
 5099SOL    HW124075   1.518   9.963   9.080  0.3676 -0.3099  2.7162
 5099SOL    HW224076   1.652  10.031   9.100  0.4617  0.7977 -0.9252
 5100SOL     OW24077   3.002  11.842   0.014  0.2308 -0.0581  0.5103
 5100SOL    HW124078   3.077  11.877  -0.035  1.2896 -0.1609  2.0150
 5100SOL    HW224079   3.032  11.836   0.104 -1.3626 -0.8027  1.0315
 5101SOL     OW24080   2.488  10.662   8.992 -0.1240  0.0103 -0.1954
 5101SOL    HW124081   2.471  10.571   8.966  1.1730  0.0458 -1.2741
 5101SOL    HW224082   2.430  10.677   9.067 -1.7813 -1.0820 -1.1990
 5102SOL     OW24083  11.803   1.483   3.564 -0.7219 -0.1381  0.3062
 5102SOL    HW124084  11.828   1.425   3.493  0.8494 -0.2059  0.8793
 5102SOL    HW224085  11.716   1.453   3.591 -0.9893 -0.6079 -1.0368
 5103SOL     OW24086   3.720   7.485   6.811 -0.4097  0.0258  0.1433
 5103SOL    HW124087   3.630   7.515   6.821 -0.4537  0.4340 -1.2590
 5103SOL    HW224088   3.711   7.397   6.773 -0.2432  0.7288 -1.6348
 5104SOL     OW24089   7.463   7.558  12.066  0.0581  0.1288 -0.3786
 5104SOL    HW124090   7.412   7.488  12.107  0.6864 -0.0034  0.1912
 5104SOL    HW224091   7.408   7.636  12.073  0.0638  0.0555  0.5070
 5105SOL     OW24092   1.061   2.273   3.279  0.5292 -0.3179  0.2740
 5105SOL    HW124093   1.042   2.294   3.188  0.6347 -0.1247  0.2953
 5105SOL    HW224094   1.032   2.182   3.290  2.4924 -1.0947 -0.5405
 5106SOL     OW24095   6.461   2.049   2.909 -0.3475  0.0402  0.3426
 5106SOL    HW124096   6.369   2.074   2.912 -0.4370  0.0218 -1.2901
 5106SOL    HW224097   6.464   1.975   2.847  0.6613 -0.4561  0.9498
 5107SOL     OW24098   1.891   5.039   0.548  0.3949  0.3186 -0.6466
 5107SOL    HW124099   1.966   5.066   0.495 -0.2458  0.7202 -1.3776
 5107SOL    HW224100   1.840   4.982   0.490 -0.7142  1.3670 -0.7760
 5108SOL     OW24101   8.464  10.456  11.129 -0.0965  0.1231 -0.2480
 5108SOL    HW124102   8.411  10.510  11.070 -0.0439 -0.3749 -0.7684
 5108SOL    HW224103   8.554  10.487  11.115 -0.1168  0.1821 -0.2418
 5109SOL     OW24104   1.661   1.498  10.015  0.0147 -0.5637  0.1300
 5109SOL    HW124105   1.677   1.418   9.966 -1.7883 -0.4253 -0.7804
 5109SOL    HW224106   1.722   1.562   9.978 -1.4296 -0.4018 -2.1963
 5110SOL     OW24107   3.494   4.206   2.244 -0.3249 -0.1644 -0.6049
 5110SOL    HW124108   3.500   4.179   2.152 -0.9608 -0.7074 -0.4988
 5110SOL    HW224109   3.514   4.127   2.293 -1.0703 -0.1684 -0.2841
 5111SOL     OW24110   0.450   4.961   2.514  0.0862 -0.7238  0.3763
 5111SOL    HW124111   0.469   5.051   2.540  0.1081  0.0549 -2.0445
 5111SOL    HW224112   0.445   4.912   2.596  0.5036  1.3895  1.7300
 5112SOL     OW24113   4.487   3.113   5.332  0.5560 -0.1866  0.4494
 5112SOL    HW124114   4.400   3.090   5.364  0.8129 -0.7499  0.7509
 5112SOL    HW224115   4.535   3.142   5.410  0.1800  1.6416  0.0607
 5113SOL     OW24116   8.721  11.971  10.763 -0.3562 -0.0763  0.3391
 5113SOL    HW124117   8.696  12.009  10.847 -2.0416 -1.9971  0.7779
 5113SOL    HW224118   8.785  11.903  10.784  0.1466  0.2503 -0.0873
 5114SOL     OW24119   7.292  11.141   1.456  0.2303  0.0128  0.4364
 5114SOL    HW124120   7.282  11.070   1.518 -1.1517 -0.0399  0.1836
 5114SOL    HW224121   7.264  11.219   1.503  2.1628  0.5207  0.8613
 5115SOL     OW24122   4.109   3.331   3.438  0.1119 -0.6477 -0.0434
 5115SOL    HW124123   4.133   3.422   3.454  0.1487 -0.7419  0.4473
 5115SOL    HW224124   4.071   3.301   3.521  2.2970 -1.8103  0.6217
 5116SOL     OW24125   5.566   4.101   0.860 -0.6661  0.2790 -0.3816
 5116SOL    HW124126   5.603   4.051   0.787  0.5465  0.4093  0.1275
 5116SOL    HW224127   5.493   4.047   0.890 -0.4569 -0.3429 -0.9557
 5117SOL     OW24128   6.001   0.889   6.319  0.0342  0.0157  0.1888
 5117SOL    HW124129   6.083   0.839   6.322 -0.8317 -1.4334  0.6661
 5117SOL    HW224130   6.012   0.957   6.384  0.0315 -1.5690  1.9361
 5118SOL     OW24131   5.287  12.499   3.655 -0.4381  0.2131  0.7283
 5118SOL    HW124132   5.255  12.415   3.689 -3.6023  0.9476 -0.1225
 5118SOL    HW224133   5.284  12.489   3.560  0.9946  0.6841  0.6186
 5119SOL     OW24134   6.819   0.828   0.892  0.2658 -1.0853  0.3939
 5119SOL    HW124135   6.871   0.889   0.840 -0.2498  0.2275  1.3634
 5119SOL    HW224136   6.869   0.816   0.973  0.0382 -1.4002  0.4907
 5120SOL     OW24137   9.206  12.201   3.290  0.1926 -0.1378  0.2400
 5120SOL    HW124138   9.203  12.212   3.195  0.5005 -0.8811  0.1310
 5120SOL    HW224139   9.262  12.124   3.303  0.4020  0.1393  1.0376
 5121SOL     OW24140   6.569   7.880   8.797 -0.6055 -0.0380 -0.1556
 5121SOL    HW124141   6.618   7.926   8.865  0.0719 -0.8097 -0.1117
 5121SOL    HW224142   6.552   7.947   8.731 -0.4910  0.5087  0.3651
 5122SOL     OW24143   0.290   8.875   0.888  0.4428  0.2866  0.5480
 5122SOL    HW124144   0.252   8.828   0.814  1.0884 -1.8142  1.4826
 5122SOL    HW224145   0.351   8.938   0.848 -0.5294  0.4544 -0.7452
 5123SOL     OW24146   5.640   4.942  11.569  0.0604 -1.0839 -0.0133
 5123SOL    HW124147   5.631   4.953  11.474  1.2487  2.2969  0.1187
 5123SOL    HW224148   5.562   4.983  11.606  0.8421  0.0152  0.4751
 5124SOL     OW24149   4.609   8.789   2.223 -0.6371 -0.1751 -0.5836
 5124SOL    HW124150   4.585   8.700   2.248 -0.1356 -0.5126 -1.2501
 5124SOL    HW224151   4.528   8.828   2.191 -1.2823  0.2518  1.4339
 5125SOL     OW24152   0.194   7.046  12.230 -0.4379 -0.2078 -0.2172
 5125SOL    HW124153   0.133   7.017  12.298 -1.4774 -0.3234 -1.1664
 5125SOL    HW224154   0.223   7.132  12.259 -1.9395  0.3565 -0.2849
 5126SOL     OW24155   6.929  11.195  11.362  0.2185  0.0082  0.2098
 5126SOL    HW124156   6.937  11.289  11.352  0.4609  0.1193  1.2936
 5126SOL    HW224157   7.012  11.167  11.400 -0.8405 -0.1882  2.6081
 5127SOL     OW24158   9.787  12.475  12.297 -0.8914  0.4033 -1.2588
 5127SOL    HW124159   9.747  12.470  12.384  0.1112  1.3034 -0.7114
 5127SOL    HW224160   9.841  12.397  12.291  1.6886  1.8998  0.3750
 5128SOL     OW24161   7.058  10.631  12.058  0.4753 -0.1680 -0.7298
 5128SOL    HW124162   7.045  10.655  12.149 -0.2984  1.2713 -1.1840
 5128SOL    HW224163   7.121  10.694  12.024  0.6716 -0.6136 -1.2204
 5129SOL     OW24164   4.976   1.344  12.217  0.3808  0.0442 -0.0643
 5129SOL    HW124165   5.001   1.364  12.127  0.7612  0.3953  0.1168
 5129SOL    HW224166   4.932   1.259  12.211  0.5034  0.0117 -0.5639
 5130SOL     OW24167  10.253  11.581   3.174 -0.0044  0.0575 -0.5294
 5130SOL    HW124168  10.168  11.582   3.131 -1.3407  0.8485  1.9577
 5130SOL    HW224169  10.273  11.673   3.191  0.4380 -0.2074  0.5200
 5131SOL     OW24170   5.350   8.332   6.472 -0.0306  0.3688 -0.3398
 5131SOL    HW124171   5.374   8.368   6.557 -0.6310 -2.0616  0.9712
 5131SOL    HW224172   5.303   8.403   6.428  0.6152  1.8176  1.1927
 5132SOL     OW24173   8.024   2.015   2.643  0.4086 -0.4763 -0.7193
 5132SOL    HW124174   8.096   2.000   2.581  0.5852  0.5644 -0.7878
 5132SOL    HW224175   8.062   1.995   2.729  0.4794 -0.8865 -0.8418
 5133SOL     OW24176  10.928   2.776   5.732  0.1457 -0.4061 -0.2835
 5133SOL    HW124177  10.897   2.721   5.660  1.1438 -2.1325  0.5444
 5133SOL    HW224178  10.987   2.720   5.782  3.3228  2.1516 -0.8226
 5134SOL     OW24179   5.392   7.653   0.311 -0.4225  0.2803 -0.0319
 5134SOL    HW124180   5.306   7.694   0.303 -0.6048 -0.0475  0.2323
 5134SOL    HW224181   5.379   7.579   0.371  0.1507  0.5204  0.3984
 5135SOL     OW24182   9.450   6.104   7.637  0.3227  0.2460  0.3875
 5135SOL    HW124183   9.387   6.174   7.655  0.3800  0.6008 -0.7230
 5135SOL    HW224184   9.529   6.130   7.684  0.0837  0.5256  0.6388
 5136SOL     OW24185   2.075   3.891  10.897  0.5468 -0.5920  0.4936
 5136SOL    HW124186   2.160   3.906  10.855  0.8113 -1.0782  0.8427
 5136SOL    HW224187   2.045   3.978  10.923 -0.3805 -0.0429 -2.1150
 5137SOL     OW24188   5.195  10.131   3.252 -0.6838  0.2789  0.0738
 5137SOL    HW124189   5.155  10.044   3.262 -0.3494  0.1032 -0.0724
 5137SOL    HW224190   5.207  10.163   3.341 -0.0536 -0.1823  0.1623
 5138SOL     OW24191   4.012   2.696   3.268 -0.3405  0.3147 -0.0935
 5138SOL    HW124192   4.064   2.763   3.224 -0.2104  0.1852 -0.1373
 5138SOL    HW224193   3.930   2.693   3.219 -0.6930  1.0547  0.4306
 5139SOL     OW24194   5.194   4.628   9.611  0.0190  0.0906 -0.3061
 5139SOL    HW124195   5.279   4.664   9.636 -0.5533  0.5276  1.0888
 5139SOL    HW224196   5.206   4.599   9.520  1.3915  0.9571 -0.4281
 5140SOL     OW24197   4.407  12.605   1.701  0.5412  0.3180 -0.2040
 5140SOL    HW124198   4.401  12.567   1.788 -1.6271  0.3830 -0.2838
 5140SOL    HW224199   4.350  12.682   1.704 -0.1127 -0.0522 -1.8407
 5141SOL     OW24200   9.641   2.748   7.790 -0.8152 -0.1067  0.2740
 5141SOL    HW124201   9.593   2.790   7.718 -0.7002  0.8836  0.7631
 5141SOL    HW224202   9.579   2.743   7.861 -0.5163  0.1995  0.5611
 5142SOL     OW24203   3.468   3.762   2.872  0.0687  0.1908  0.5406
 5142SOL    HW124204   3.547   3.723   2.910 -0.6840 -0.9091  1.0447
 5142SOL    HW224205   3.442   3.829   2.936 -0.6635 -1.0120  1.5541
 5143SOL     OW24206   8.942   4.512   2.280  0.3240  0.3923  0.1502
 5143SOL    HW124207   9.008   4.521   2.211 -1.3235  1.1055 -1.4289
 5143SOL    HW224208   8.896   4.432   2.257 -0.3079  0.6950  0.3509
 5144SOL     OW24209   7.178   2.660   0.234  0.1970  0.1716 -0.8682
 5144SOL    HW124210   7.250   2.683   0.292 -1.4712  0.5420  1.1676
 5144SOL    HW224211   7.103   2.711   0.266 -1.6348 -2.1162 -1.2076
 5145SOL     OW24212   7.519   6.529   9.755  0.0287  0.0719 -0.3086
 5145SOL    HW124213   7.496   6.526   9.662 -0.5687  1.2814 -0.2197
 5145SOL    HW224214   7.463   6.597   9.791  1.6411  1.0170  0.5422
 5146SOL     OW24215   1.484   6.013   7.168 -0.0960  0.2086 -0.4063
 5146SOL    HW124216   1.441   5.941   7.213 -0.7869  0.4684 -0.6346
 5146SOL    HW224217   1.539   5.970   7.102  0.8870 -0.1668  0.6289
 5147SOL     OW24218   7.265   2.194  11.784 -0.1819 -1.0043 -0.1746
 5147SOL    HW124219   7.214   2.191  11.703  0.5423  1.6247 -0.8410
 5147SOL    HW224220   7.215   2.141  11.846 -3.2141  0.5263 -1.0983
 5148SOL     OW24221   2.799   8.945   0.477 -0.1523  0.0870 -0.3994
 5148SOL    HW124222   2.801   9.002   0.400 -0.1426 -0.0867 -0.5292
 5148SOL    HW224223   2.890   8.936   0.503 -0.1392  0.0144 -0.4676
 5149SOL     OW24224  11.839   5.372   3.047 -0.3097  0.0496 -0.0065
 5149SOL    HW124225  11.758   5.374   2.996  0.7104  4.4003 -1.8973
 5149SOL    HW224226  11.824   5.433   3.118  1.7653  2.5031 -1.4978
 5150SOL     OW24227   3.967   4.097   3.341  0.1272 -0.2309 -0.1226
 5150SOL    HW124228   3.999   4.010   3.318  0.8831  0.5700 -2.3530
 5150SOL    HW224229   4.002   4.154   3.274 -2.7290  1.3670 -0.4257
 5151SOL     OW24230   9.952   5.785   1.838 -0.0220  0.2296  0.1878
 5151SOL    HW124231   9.861   5.810   1.849 -0.5226  0.2780 -3.1616
 5151SOL    HW224232  10.000   5.867   1.832 -0.4375  0.3617 -2.2242
 5152SOL     OW24233   4.201   1.293   0.833  0.0490 -0.1656  0.4987
 5152SOL    HW124234   4.159   1.267   0.915 -0.0169 -0.3986  0.3924
 5152SOL    HW224235   4.145   1.362   0.799  0.1773  0.0599  0.7407
 5153SOL     OW24236   4.914   7.019   6.921 -0.2430  0.4977 -0.3864
 5153SOL    HW124237   5.002   6.985   6.935 -0.2317  0.4977 -0.4593
 5153SOL    HW224238   4.906   7.028   6.826 -0.6476 -0.3778 -0.4408
 5154SOL     OW24239   2.648   3.122   4.404 -0.0006  0.2832  0.5153
 5154SOL    HW124240   2.737   3.099   4.432  0.0311  0.3690  0.4848
 5154SOL    HW224241   2.661   3.168   4.321 -0.1670 -1.0688 -0.2988
 5155SOL     OW24242   8.130   6.732   4.980 -0.2320  0.3917 -0.9108
 5155SOL    HW124243   8.088   6.810   4.944 -2.1798 -0.4842 -0.6844
 5155SOL    HW224244   8.075   6.708   5.055  1.4922 -0.0600  0.2612
 5156SOL     OW24245  10.701   9.756   0.159  0.3684 -0.2269 -0.1895
 5156SOL    HW124246  10.642   9.826   0.131  1.1260  0.0666 -1.1183
 5156SOL    HW224247  10.774   9.761   0.097  0.5791 -1.6417 -0.0742
 5157SOL     OW24248  11.265   8.886   4.678 -0.3321 -0.1138 -0.4475
 5157SOL    HW124249  11.306   8.879   4.592 -0.1807  0.0850 -0.3915
 5157SOL    HW224250  11.176   8.854   4.665  0.4000 -2.4503 -0.1402
 5158SOL     OW24251   2.099   4.452   2.152  0.0012  0.0623  0.1573
 5158SOL    HW124252   2.156   4.382   2.183 -1.2668 -1.4594 -0.7895
 5158SOL    HW224253   2.045   4.474   2.228  0.5850  0.2083  0.5353
 5159SOL     OW24254   9.624   2.303  12.225  0.1380  0.2415  0.5145
 5159SOL    HW124255   9.669   2.344  12.151 -0.5288 -2.0612 -1.2802
 5159SOL    HW224256   9.589   2.377  12.275  0.1295  1.8937 -1.7601
 5160SOL     OW24257   6.362  10.318   2.164 -0.3628  0.1002  0.1794
 5160SOL    HW124258   6.283  10.365   2.190 -1.3907 -0.4409 -1.7765
 5160SOL    HW224259   6.365  10.328   2.069  1.4549 -0.6510  0.1258
 5161SOL     OW24260   3.690   5.600  10.875  0.3570  0.3000  0.4649
 5161SOL    HW124261   3.692   5.603  10.779  1.0260 -0.9355  0.4248
 5161SOL    HW224262   3.605   5.637  10.898  0.4963  1.3102 -0.5701
 5162SOL     OW24263   5.344   2.911   8.679 -0.5982 -0.6433  0.0268
 5162SOL    HW124264   5.325   2.896   8.586  2.5756 -0.8008 -0.6976
 5162SOL    HW224265   5.274   2.969   8.709 -0.0435  2.0914 -3.3310
 5163SOL     OW24266   0.932   7.016   0.865 -0.5742 -0.4199 -0.1383
 5163SOL    HW124267   0.853   6.980   0.906 -1.8824  0.4229 -1.7709
 5163SOL    HW224268   0.899   7.062   0.787  1.2658  2.2194  0.5345
 5164SOL     OW24269   2.172   1.863   4.125 -0.2630 -0.1925 -0.0306
 5164SOL    HW124270   2.099   1.814   4.086 -0.1632 -0.4251  0.0820
 5164SOL    HW224271   2.248   1.807   4.113 -0.1261 -0.0082 -0.0215
 5165SOL     OW24272   3.504   4.067   8.403  0.3186 -0.3760  0.3274
 5165SOL    HW124273   3.585   4.117   8.415 -0.1315  0.7488 -1.0729
 5165SOL    HW224274   3.518   4.019   8.321  0.6749 -2.4876  1.5488
 5166SOL     OW24275   7.115  12.257   2.268  0.4441  0.6228  0.1011
 5166SOL    HW124276   7.020  12.242   2.277  0.5744  0.2113  0.8832
 5166SOL    HW224277   7.122  12.327   2.202 -0.3497 -0.1079 -0.7946
 5167SOL     OW24278   4.766   2.391   5.275  0.5805 -0.1922 -0.4407
 5167SOL    HW124279   4.841   2.369   5.220  0.4066 -0.4154 -0.5893
 5167SOL    HW224280   4.803   2.399   5.363  0.7403 -0.5414 -0.4725
 5168SOL     OW24281  11.325   8.791  11.719 -0.1577 -0.4850 -0.2898
 5168SOL    HW124282  11.358   8.869  11.673 -1.0341  0.4144  0.5650
 5168SOL    HW224283  11.380   8.783  11.796 -2.3858  1.6152  1.6865
 5169SOL     OW24284   0.453   8.568   8.944  0.6126  0.2474 -0.4975
 5169SOL    HW124285   0.537   8.590   8.904  1.2210 -0.2912  0.4223
 5169SOL    HW224286   0.449   8.622   9.023 -0.3032  0.8836 -0.9669
 5170SOL     OW24287   5.031  12.495   7.058 -0.6514 -0.3947  0.0238
 5170SOL    HW124288   4.957  12.554   7.071  0.8972  1.6803 -0.0578
 5170SOL    HW224289   4.993  12.407   7.059 -2.6617  0.3393  3.5889
 5171SOL     OW24290   4.672   5.136   2.922  0.1118 -0.4372 -0.0855
 5171SOL    HW124291   4.742   5.092   2.873  0.1927  0.0891 -0.4460
 5171SOL    HW224292   4.640   5.203   2.863 -0.2154 -0.2037  0.3539
 5172SOL     OW24293  12.499   8.319  11.736 -0.0159  0.3586 -0.9022
 5172SOL    HW124294  12.512   8.405  11.695 -0.9983  0.3910 -1.1900
 5172SOL    HW224295  12.461   8.265  11.667  0.0449 -0.1328 -0.5555
 5173SOL     OW24296   0.760  11.800  12.009 -0.4731 -0.0113 -0.1676
 5173SOL    HW124297   0.726  11.828  12.094  0.5729  1.6458 -0.2459
 5173SOL    HW224298   0.697  11.833  11.945 -0.1005  0.7586 -0.1525
 5174SOL     OW24299   7.104  12.601  12.612  0.1013 -0.1364  0.1678
 5174SOL    HW124300   7.045  12.584  12.539  0.7234 -1.4845 -0.0414
 5174SOL    HW224301   7.067  12.552  12.685  0.3747 -0.1088  0.3274
 5175SOL     OW24302   6.012   1.175   6.362  0.5796  0.5769 -0.0399
 5175SOL    HW124303   6.087   1.190   6.304  2.0157 -0.3681  1.4744
 5175SOL    HW224304   5.966   1.259   6.363  0.9367  0.8514 -1.8819
 5176SOL     OW24305   7.510   2.905   9.920  0.8350 -0.0478  0.3213
 5176SOL    HW124306   7.586   2.890   9.977  0.5518 -0.2456  0.6489
 5176SOL    HW224307   7.439   2.856   9.961  0.8438 -0.9568 -0.7004
 5177SOL     OW24308   3.805  11.666   2.252  0.2318 -0.6753  0.5337
 5177SOL    HW124309   3.789  11.626   2.167 -1.1788  0.3215  0.2858
 5177SOL    HW224310   3.724  11.714   2.271  1.1664  0.5171  1.6545
 5178SOL     OW24311   4.393   0.494   1.007 -0.4639  0.5342  0.0809
 5178SOL    HW124312   4.465   0.552   0.981 -1.7977  1.6471 -1.3260
 5178SOL    HW224313   4.323   0.553   1.035 -1.7171 -0.3829 -0.9887
 5179SOL     OW24314  12.287   1.730   4.886 -0.2308  0.4449  0.6148
 5179SOL    HW124315  12.322   1.813   4.920  0.6756  0.0244  0.7099
 5179SOL    HW224316  12.364   1.677   4.867 -0.8162 -0.4427  0.6974
 5180SOL     OW24317   8.933   2.084   9.732 -0.0293  0.0166 -0.2847
 5180SOL    HW124318   8.917   2.151   9.665  0.1430  1.1998  0.8156
 5180SOL    HW224319   8.858   2.025   9.726 -1.8409  2.0826  0.7826
 5181SOL     OW24320   3.422   4.540   7.886  0.2393 -0.0212 -0.1543
 5181SOL    HW124321   3.432   4.629   7.850 -0.1267  0.0985  0.0398
 5181SOL    HW224322   3.481   4.486   7.833  0.3188  0.3046 -0.3985
 5182SOL     OW24323   0.053   4.515   1.478 -0.3557  0.2835  0.2710
 5182SOL    HW124324   0.088   4.586   1.424 -1.4983  0.1147 -0.7396
 5182SOL    HW224325   0.006   4.460   1.416  0.3606 -1.2841  1.0663
 5183SOL     OW24326   8.662   9.868   1.916  0.2885 -0.1548 -0.2386
 5183SOL    HW124327   8.672   9.958   1.949  0.0043 -0.5555  0.9817
 5183SOL    HW224328   8.746   9.850   1.872  0.2450  0.7968 -0.7522
 5184SOL     OW24329   5.032   1.272   5.665  0.1050  0.0140  0.5335
 5184SOL    HW124330   4.956   1.229   5.703  2.2864 -2.8321  2.0096
 5184SOL    HW224331   5.051   1.222   5.586  0.5127  0.6412  0.2277
 5185SOL     OW24332   8.093   8.737   0.357  0.2266  0.4663 -0.5558
 5185SOL    HW124333   8.123   8.652   0.324 -2.4852 -0.7245 -0.1709
 5185SOL    HW224334   8.131   8.743   0.445  1.0036  0.0045 -0.8452
 5186SOL     OW24335   0.003   0.982   2.872 -0.1045 -0.3666 -0.3020
 5186SOL    HW124336  -0.041   1.041   2.810 -1.0263 -1.2431 -0.5105
 5186SOL    HW224337   0.056   0.925   2.818 -0.4520 -0.7491 -0.2485
 5187SOL     OW24338   7.151   2.760   7.912  0.0372  0.3711  0.2360
 5187SOL    HW124339   7.144   2.850   7.945 -0.5962  0.2523  0.4384
 5187SOL    HW224340   7.209   2.716   7.974 -0.6525  0.3145  0.8542
 5188SOL     OW24341   1.101   5.055   8.509  0.3261  0.2237 -0.5481
 5188SOL    HW124342   1.097   5.137   8.559 -0.2719 -0.1475  0.0248
 5188SOL    HW224343   1.009   5.031   8.494  0.4915 -0.5681 -0.3335
 5189SOL     OW24344   6.181   0.966   6.768 -0.1376 -0.0946  0.3728
 5189SOL    HW124345   6.149   0.879   6.744 -1.1106  0.7163 -1.4921
 5189SOL    HW224346   6.107   1.024   6.748  0.9945  1.3305  0.2239
 5190SOL     OW24347   4.822   2.574  11.243  0.3897  0.1976 -0.7513
 5190SOL    HW124348   4.760   2.502  11.234  0.2245  0.2927 -0.4071
 5190SOL    HW224349   4.767   2.651  11.257  0.5407  0.5173 -1.8631
 5191SOL     OW24350   5.639  11.897   8.106 -0.2951  0.2967 -0.2529
 5191SOL    HW124351   5.555  11.943   8.099  0.1438  1.2314  0.3592
 5191SOL    HW224352   5.698  11.947   8.049  0.2312  0.5868  0.5383
 5192SOL     OW24353   9.124   5.465   9.431 -0.2699  0.1268 -0.2597
 5192SOL    HW124354   9.047   5.426   9.390 -0.3593  0.7709 -0.7081
 5192SOL    HW224355   9.154   5.398   9.492 -1.3976  0.0170  0.1952
 5193SOL     OW24356   7.553   4.883   6.499  0.4625 -0.1281 -0.0538
 5193SOL    HW124357   7.534   4.967   6.457  0.5850 -0.7344 -1.3581
 5193SOL    HW224358   7.489   4.822   6.463  1.2612 -0.9112 -0.1938
 5194SOL     OW24359  11.768   5.256   5.667  0.2807  0.2340  0.0329
 5194SOL    HW124360  11.848   5.241   5.718  0.9691 -0.5772 -1.2337
 5194SOL    HW224361  11.763   5.352   5.659  0.7448  0.3229  0.7071
 5195SOL     OW24362   5.199   5.915   0.143  0.4976 -0.3924  0.2224
 5195SOL    HW124363   5.271   5.970   0.112 -1.0314  2.7076  1.7269
 5195SOL    HW224364   5.199   5.926   0.238 -3.8782  2.6268  0.1712
 5196SOL     OW24365   3.698   2.867   6.104  0.1822 -0.3238 -0.2058
 5196SOL    HW124366   3.727   2.906   6.187 -0.6403 -0.4684  0.1593
 5196SOL    HW224367   3.703   2.773   6.119 -2.1089 -0.3865  0.4927
 5197SOL     OW24368   6.173   9.355   8.457 -0.2565 -0.6607  0.2344
 5197SOL    HW124369   6.221   9.368   8.375  0.8396  0.7499  1.0450
 5197SOL    HW224370   6.148   9.263   8.456  2.1806 -1.3908 -0.4137
 5198SOL     OW24371   0.210   2.997   6.390  0.0887 -0.4154 -0.0448
 5198SOL    HW124372   0.210   2.958   6.477 -0.6564 -0.3702 -0.0225
 5198SOL    HW224373   0.291   2.965   6.349  1.8000  1.5659  1.5440
 5199SOL     OW24374   6.263   3.278   3.901  0.1757  0.2794 -0.1361
 5199SOL    HW124375   6.303   3.328   3.972 -1.0008 -0.2906  0.9871
 5199SOL    HW224376   6.286   3.326   3.821  3.2395 -0.1663  0.3772
 5200SOL     OW24377   0.497   7.352   1.698 -0.0780 -0.6301 -1.0741
 5200SOL    HW124378   0.579   7.321   1.660 -0.0241 -0.8980 -0.7537
 5200SOL    HW224379   0.515   7.443   1.722  0.7470 -1.1998  0.6707
 5201SOL     OW24380  12.189   4.643   6.904  0.0940 -0.0892 -0.6013
 5201SOL    HW124381  12.217   4.609   6.819  0.4022 -0.3559 -0.3964
 5201SOL    HW224382  12.269   4.650   6.955  0.1819  1.8707 -0.9393
 5202SOL     OW24383  11.471   3.808   4.551 -0.1130 -0.2417 -0.5759
 5202SOL    HW124384  11.443   3.803   4.460 -1.0693 -1.3342 -0.2559
 5202SOL    HW224385  11.427   3.734   4.593 -0.7630  1.0052  1.0432
 5203SOL     OW24386   5.025   5.409   8.182 -0.0734 -0.3504  0.3019
 5203SOL    HW124387   4.955   5.352   8.150 -0.8107 -0.7222  2.3936
 5203SOL    HW224388   5.027   5.482   8.121  0.1974 -2.0824 -1.8778
 5204SOL     OW24389   4.334   9.149   9.955  0.4782 -0.0918 -0.0926
 5204SOL    HW124390   4.358   9.077  10.012  0.9896  0.8673  0.9463
 5204SOL    HW224391   4.417   9.190   9.931  0.1751  0.3689 -0.3706
 5205SOL     OW24392  11.798  11.559   5.675 -0.4973 -0.1253  0.4125
 5205SOL    HW124393  11.779  11.573   5.768 -1.1096  0.1956  0.2455
 5205SOL    HW224394  11.807  11.647   5.639 -0.2390 -0.2487  0.1692
 5206SOL     OW24395  12.292   6.137  10.571 -0.0280 -0.7297  0.3568
 5206SOL    HW124396  12.261   6.077  10.639 -1.0376 -0.0811  0.4740
 5206SOL    HW224397  12.230   6.209  10.572 -0.0179 -0.6781 -1.2217
 5207SOL     OW24398   9.041   5.405   8.432 -0.2372  0.3111 -0.2555
 5207SOL    HW124399   8.948   5.427   8.440 -0.7548 -1.0259 -2.0082
 5207SOL    HW224400   9.052   5.378   8.341  2.0711  1.2160 -0.3196
 5208SOL     OW24401   5.987  10.124   4.418  0.1494  0.2402 -0.0152
 5208SOL    HW124402   6.049  10.130   4.346  0.6993  1.0796  0.5129
 5208SOL    HW224403   5.974  10.215   4.446 -0.9089  0.0224  0.2270
 5209SOL     OW24404   4.101  11.648   3.985  0.4794  0.2271 -0.0541
 5209SOL    HW124405   4.166  11.716   4.004  1.4365 -0.6509 -0.0865
 5209SOL    HW224406   4.152  11.567   3.976 -0.5535 -0.3838 -0.7105
 5210SOL     OW24407   8.548   4.564   5.003  0.0724  0.0413  0.0756
 5210SOL    HW124408   8.585   4.647   4.975  0.9298 -0.6314 -0.8510
 5210SOL    HW224409   8.456   4.570   4.980  0.0115  0.9235  0.4970
 5211SOL     OW24410  11.562   2.274   4.258 -0.0549  0.5525  0.2837
 5211SOL    HW124411  11.616   2.320   4.194 -1.2988  0.8086 -0.6343
 5211SOL    HW224412  11.620   2.259   4.332  0.7360  2.5597  0.1470
 5212SOL     OW24413   6.281   0.842   1.659  0.0170 -0.0019  0.4980
 5212SOL    HW124414   6.190   0.814   1.665 -0.3177  1.1848  1.3710
 5212SOL    HW224415   6.310   0.812   1.572 -1.9643  1.7313 -0.8594
 5213SOL     OW24416  10.713  12.130   9.412  0.3775 -0.5146 -0.3501
 5213SOL    HW124417  10.673  12.153   9.328 -1.3892 -0.9896  0.3179
 5213SOL    HW224418  10.743  12.040   9.400 -1.1417 -1.0914 -0.0771
 5214SOL     OW24419   1.394   7.392   9.271  0.1765 -0.5415  0.1454
 5214SOL    HW124420   1.333   7.441   9.326 -0.6018 -0.5083 -0.7240
 5214SOL    HW224421   1.342   7.363   9.196  0.6010 -2.7788  0.6580
 5215SOL     OW24422   0.242   4.346   4.257  0.5253  0.2471 -0.2760
 5215SOL    HW124423   0.262   4.359   4.164 -1.5516 -0.1978 -0.8495
 5215SOL    HW224424   0.238   4.435   4.293  1.1553  0.4325 -0.6557
 5216SOL     OW24425   3.847   3.105   8.478 -0.3287 -0.2867 -0.6221
 5216SOL    HW124426   3.929   3.149   8.458 -0.7984  1.0143  0.2193
 5216SOL    HW224427   3.864   3.013   8.457  0.6329  0.2728 -2.5406
 5217SOL     OW24428   7.296   7.767  12.146  0.0893  0.5006  0.0131
 5217SOL    HW124429   7.248   7.752  12.064 -1.3601 -0.1409  0.9386
 5217SOL    HW224430   7.227   7.780  12.212  1.1531 -0.7878  1.4578
 5218SOL     OW24431  10.296  10.416   5.226  0.0939  0.0568 -0.1778
 5218SOL    HW124432  10.223  10.459   5.270  0.8051  1.6280 -0.4576
 5218SOL    HW224433  10.281  10.323   5.239 -1.3142  0.3956  0.7835
 5219SOL     OW24434  12.271   1.066  12.277 -0.1820  0.0435  0.1075
 5219SOL    HW124435  12.287   1.023  12.193  1.4650 -0.7894  0.8055
 5219SOL    HW224436  12.297   1.157  12.262  1.9399 -0.4921  0.1753
 5220SOL     OW24437   8.148   7.535   3.565  0.4023 -0.2175 -0.2122
 5220SOL    HW124438   8.107   7.462   3.518  1.9865 -1.2697 -0.0202
 5220SOL    HW224439   8.230   7.551   3.518  1.6305 -0.7454  1.6453
 5221SOL     OW24440   7.932   7.566   2.006 -0.0979 -0.0956 -0.2937
 5221SOL    HW124441   7.931   7.636   1.940 -0.2634 -1.0517 -1.3461
 5221SOL    HW224442   7.862   7.589   2.066 -1.1517 -0.1183 -1.4710
 5222SOL     OW24443  10.115   3.542   3.300  0.2461  0.0036 -0.3460
 5222SOL    HW124444  10.131   3.592   3.380  2.2157 -0.3144 -0.4943
 5222SOL    HW224445  10.118   3.608   3.231  0.9568 -0.0282 -0.3596
 5223SOL     OW24446  11.304   2.295   4.806  0.3169 -0.1216  0.2489
 5223SOL    HW124447  11.242   2.235   4.766  2.3207 -1.0692 -1.5880
 5223SOL    HW224448  11.350   2.242   4.871  0.0342  0.2657  0.7744
 5224SOL     OW24449   8.188   5.906   6.541  0.4301 -0.4478  0.1397
 5224SOL    HW124450   8.228   5.946   6.619 -0.0760  1.5038 -0.5417
 5224SOL    HW224451   8.100   5.942   6.539  0.0575 -1.3712 -0.7394
 5225SOL     OW24452  10.332   0.088   7.022 -0.2112 -0.3153  0.5888
 5225SOL    HW124453  10.426   0.099   7.036  0.0837  1.4432 -2.1451
 5225SOL    HW224454  10.292   0.120   7.103  1.4854  0.6333  1.1035
 5226SOL     OW24455   7.129   7.944   6.853  0.2237  0.1415  0.0302
 5226SOL    HW124456   7.131   7.869   6.793 -0.5489  0.8335 -0.8891
 5226SOL    HW224457   7.068   8.005   6.813 -2.1369 -0.2802  2.6574
 5227SOL     OW24458  12.251  12.339   1.996 -0.2071 -0.0415  0.0272
 5227SOL    HW124459  12.257  12.340   1.901 -2.1488 -0.4188 -0.1353
 5227SOL    HW224460  12.240  12.431   2.021  2.7117  0.3831  0.1593
 5228SOL     OW24461   3.557   9.886   4.687 -0.0562 -0.3394  0.1016
 5228SOL    HW124462   3.487   9.858   4.629 -1.4138 -0.8897  1.9199
 5228SOL    HW224463   3.604   9.953   4.637 -0.8565 -1.1091 -1.7726
 5229SOL     OW24464   9.250   1.509   8.830  0.6130 -0.1680 -0.0726
 5229SOL    HW124465   9.248   1.550   8.743 -0.1046  1.6791  0.7803
 5229SOL    HW224466   9.334   1.536   8.867 -0.3615  1.6656  0.9599
 5230SOL     OW24467   2.373   1.313   4.025 -0.2894 -0.0185  0.6159
 5230SOL    HW124468   2.338   1.344   3.942 -0.9614  0.2442  0.9905
 5230SOL    HW224469   2.438   1.379   4.049 -0.3295  0.0794  0.4580
 5231SOL     OW24470   0.995   1.934   7.767  0.4498 -0.0282  0.1555
 5231SOL    HW124471   1.076   1.883   7.775 -0.6333 -1.7217  1.0579
 5231SOL    HW224472   0.952   1.899   7.688  0.6409  0.9718 -0.4119
 5232SOL     OW24473   9.825   1.609   1.607  0.4962  0.2264 -0.8159
 5232SOL    HW124474   9.858   1.616   1.517 -2.4166  0.3692 -1.9720
 5232SOL    HW224475   9.752   1.548   1.601  1.1364 -0.9287  1.7890
 5233SOL     OW24476   3.531   8.865  10.798 -0.7254  0.4392 -0.1459
 5233SOL    HW124477   3.555   8.934  10.736 -2.3402  0.6772 -0.5545
 5233SOL    HW224478   3.507   8.912  10.878 -0.0334  0.2143  0.2058
 5234SOL     OW24479   5.090   8.401   5.191 -0.0212 -0.1511 -0.0568
 5234SOL    HW124480   5.066   8.487   5.226  0.1956 -1.2149  3.0580
 5234SOL    HW224481   5.020   8.343   5.220  1.2992 -1.5222  0.5234
 5235SOL     OW24482  11.726   2.460   0.591 -0.2327 -0.0831 -0.1210
 5235SOL    HW124483  11.647   2.503   0.624  0.3574 -0.5411  2.0735
 5235SOL    HW224484  11.709   2.366   0.603 -0.2724 -0.3589 -1.9446
 5236SOL     OW24485  11.420   6.106   8.290 -0.1349 -0.3074 -0.0154
 5236SOL    HW124486  11.477   6.070   8.222 -1.6798 -0.4395 -1.2858
 5236SOL    HW224487  11.471   6.176   8.331  0.2753  0.8260 -2.3512
 5237SOL     OW24488   7.083   2.380   2.125 -0.6593 -0.2448  0.1360
 5237SOL    HW124489   7.014   2.444   2.142 -0.2284  0.0169  0.9479
 5237SOL    HW224490   7.164   2.425   2.150 -0.1934 -0.5705 -0.7408
 5238SOL     OW24491   2.026   6.815   4.388  0.0121  0.3601 -0.0377
 5238SOL    HW124492   2.054   6.859   4.469  4.7128 -1.8087 -0.1411
 5238SOL    HW224493   2.043   6.878   4.319  1.1408  0.4611  0.3026
 5239SOL     OW24494  10.189   0.390   2.775  0.0203  0.2715 -0.0558
 5239SOL    HW124495  10.262   0.345   2.732  0.4450 -0.0456  0.9643
 5239SOL    HW224496  10.180   0.473   2.728  1.0944  0.3547 -0.1346
 5240SOL     OW24497  12.303   1.426   0.415  0.6872  0.5444 -0.4322
 5240SOL    HW124498  12.250   1.400   0.490  2.2188  1.2858  0.9562
 5240SOL    HW224499  12.249   1.491   0.369 -0.3921 -0.1398 -0.1604
 5241SOL     OW24500   7.640   0.685  11.874 -0.4068  0.1331 -0.3741
 5241SOL    HW124501   7.702   0.617  11.850  0.8001 -0.2434  3.2544
 5241SOL    HW224502   7.623   0.733  11.792  2.4675 -1.4784 -2.0395
 5242SOL     OW24503   0.360   8.037   7.484 -0.2631  0.4141 -0.2368
 5242SOL    HW124504   0.355   8.133   7.493 -2.7495  0.2922  0.3746
 5242SOL    HW224505   0.272   8.006   7.507 -0.0834 -1.8939 -2.2697
 5243SOL     OW24506   6.154   8.927  10.555 -0.2048 -0.1680 -0.0720
 5243SOL    HW124507   6.236   8.883  10.575 -0.3420  0.0554  1.0693
 5243SOL    HW224508   6.180   9.014  10.524  0.0386 -0.7764 -1.6315
 5244SOL     OW24509  10.490   7.802   2.085 -0.0293 -0.0769  0.0035
 5244SOL    HW124510  10.469   7.881   2.034 -2.3505  0.3430  1.4594
 5244SOL    HW224511  10.539   7.834   2.160  1.1941 -0.3715 -0.6534
 5245SOL     OW24512   5.139   7.223   5.291 -0.6519  0.0278  0.0581
 5245SOL    HW124513   5.204   7.240   5.359 -0.3779 -0.8481  0.0244
 5245SOL    HW224514   5.072   7.169   5.334  0.3004 -1.8597 -0.7302
 5246SOL     OW24515   5.304  11.044   8.719  0.6364  0.1862  0.2859
 5246SOL    HW124516   5.223  11.081   8.753 -0.8569 -1.0493 -1.6863
 5246SOL    HW224517   5.297  11.053   8.624  2.2590 -1.0217 -0.0037
 5247SOL     OW24518  11.246   3.211   0.099 -0.0418 -0.8020  0.2976
 5247SOL    HW124519  11.237   3.117   0.084  1.0961 -1.5580  3.5246
 5247SOL    HW224520  11.336   3.231   0.071  0.2841 -1.0652  1.1289
 5248SOL     OW24521   7.284  11.565   7.596  0.2191 -0.0715 -0.0639
 5248SOL    HW124522   7.319  11.493   7.648  3.1829  1.3355  0.0887
 5248SOL    HW224523   7.226  11.523   7.533  1.1641 -2.4763  0.5530
 5249SOL     OW24524   1.081   8.240  12.414  0.2585 -0.0889 -0.4473
 5249SOL    HW124525   1.073   8.220  12.320 -0.8708 -2.0585  0.0073
 5249SOL    HW224526   1.164   8.202  12.440  1.0408  1.3118 -0.8117
 5250SOL     OW24527   4.386   3.838   7.466  0.2687 -0.5091 -0.2898
 5250SOL    HW124528   4.312   3.900   7.468 -1.5290 -2.4995 -0.8716
 5250SOL    HW224529   4.405   3.820   7.558 -1.8629 -1.9859 -0.0612
 5251SOL     OW24530   5.794   9.686   0.692  0.6555 -0.0638 -0.1332
 5251SOL    HW124531   5.794   9.696   0.597 -0.0640 -0.9542 -0.2337
 5251SOL    HW224532   5.795   9.592   0.707 -3.0624 -0.1361  0.6661
 5252SOL     OW24533   2.404   6.296   9.676 -0.7684 -0.3038  0.4694
 5252SOL    HW124534   2.428   6.252   9.594  0.9036  0.5919  0.4482
 5252SOL    HW224535   2.386   6.224   9.736  1.7054 -1.1001  0.3744
 5253SOL     OW24536   1.164  12.144   3.242  0.3049 -0.3394  0.1402
 5253SOL    HW124537   1.185  12.217   3.184  1.5636 -0.9521 -0.2159
 5253SOL    HW224538   1.141  12.185   3.325 -0.8053  0.5179 -0.5618
 5254SOL     OW24539   2.059   2.920   7.583 -0.0607 -0.5224 -0.0923
 5254SOL    HW124540   2.059   2.853   7.650 -0.0793  3.2113  4.0862
 5254SOL    HW224541   2.148   2.917   7.547  0.8448 -1.0084  2.0188
 5255SOL     OW24542   3.169  10.340   2.640 -0.1902 -0.1289 -0.0625
 5255SOL    HW124543   3.242  10.278   2.639  0.7203  0.8289 -2.7530
 5255SOL    HW224544   3.206  10.419   2.680  0.8063  0.8382 -2.7087
 5256SOL     OW24545  12.247   1.404   5.903  0.1115  0.1397  0.4291
 5256SOL    HW124546  12.237   1.495   5.931  0.6234  0.8853 -1.6354
 5256SOL    HW224547  12.159   1.368   5.905  0.0935  0.1394  2.8000
 5257SOL     OW24548   8.884   4.939   6.204  0.5063 -0.6169  0.0057
 5257SOL    HW124549   8.972   4.903   6.198  1.4343  1.2794  0.9753
 5257SOL    HW224550   8.892   5.027   6.166 -0.3945  0.3825  1.9408
 5258SOL     OW24551   5.877   4.315  11.298 -0.1381 -0.2275  0.0406
 5258SOL    HW124552   5.800   4.306  11.354  1.6799  0.4072  2.8521
 5258SOL    HW224553   5.924   4.391  11.333  1.3902 -0.1021 -2.0655
 5259SOL     OW24554   1.246   0.482  10.392 -0.2943  0.3838 -0.2454
 5259SOL    HW124555   1.231   0.417  10.460  0.5322  0.4817  0.0436
 5259SOL    HW224556   1.159   0.500  10.356 -0.5564 -0.7209 -0.1945
 5260SOL     OW24557   7.793   3.990   2.020  0.6670 -0.7188  0.5614
 5260SOL    HW124558   7.735   4.025   2.088  2.1796 -0.4589  1.7654
 5260SOL    HW224559   7.879   3.988   2.061  1.4986 -1.2340 -1.1403
 5261SOL     OW24560   9.549  10.373   5.235  0.1258  0.2227 -0.5333
 5261SOL    HW124561   9.497  10.424   5.173  0.9208  3.3524  1.1627
 5261SOL    HW224562   9.504  10.382   5.319  2.2627  1.4354  0.5829
 5262SOL     OW24563   7.454   7.813  11.844 -0.2823 -0.2331  0.0180
 5262SOL    HW124564   7.539   7.846  11.874 -1.1494  0.7521  1.5317
 5262SOL    HW224565   7.392   7.883  11.865 -1.3257 -0.4119 -2.1553
 5263SOL     OW24566  10.271   7.505   3.901  0.0008 -0.5269  0.0763
 5263SOL    HW124567  10.295   7.573   3.838  0.9356 -0.7113  0.2139
 5263SOL    HW224568  10.313   7.426   3.867  1.6956 -0.3630  1.6173
 5264SOL     OW24569   5.402   6.149   0.212  0.1922 -0.2595 -0.1582
 5264SOL    HW124570   5.423   6.224   0.156 -0.6066 -0.5104 -0.8142
 5264SOL    HW224571   5.471   6.149   0.279 -0.0260  1.3080  0.1057
 5265SOL     OW24572   7.811   3.192   6.697 -0.3160 -0.2415 -0.0554
 5265SOL    HW124573   7.716   3.182   6.707 -0.2883 -0.0842  0.4067
 5265SOL    HW224574   7.830   3.156   6.611 -0.9566  0.7233 -0.6271
 5266SOL     OW24575   8.378  10.096   0.768  0.6172  0.4786  0.1947
 5266SOL    HW124576   8.458  10.104   0.820 -0.0279  1.6927  1.0267
 5266SOL    HW224577   8.319  10.162   0.803 -1.5229 -1.6730  0.9267
 5267SOL     OW24578   0.229   3.897   9.697 -0.4479 -0.0299  0.1863
 5267SOL    HW124579   0.153   3.906   9.639 -0.3296 -0.0295  0.0329
 5267SOL    HW224580   0.300   3.870   9.639 -1.0631 -3.2797  0.7438
 5268SOL     OW24581   0.971  12.111   1.529  0.3024  0.6175  0.2645
 5268SOL    HW124582   1.057  12.076   1.509 -0.4077 -1.1209  0.0397
 5268SOL    HW224583   0.974  12.130   1.623  0.5688 -0.5948  0.5196
 5269SOL     OW24584   6.348   7.570  11.730 -0.1670 -0.3696  0.3181
 5269SOL    HW124585   6.406   7.609  11.664 -2.0325 -0.3949 -1.4536
 5269SOL    HW224586   6.312   7.646  11.777 -0.5488 -0.2039 -0.2353
 5270SOL     OW24587   5.614   3.944   6.356  0.1010 -0.0671 -0.1299
 5270SOL    HW124588   5.704   3.951   6.385  0.5536  0.0626 -1.4744
 5270SOL    HW224589   5.584   3.859   6.388  1.0919 -0.6275 -0.6431
 5271SOL     OW24590   0.109  10.690   7.952 -0.6010 -0.1947  0.3177
 5271SOL    HW124591   0.180  10.755   7.950 -0.8148  0.0269 -0.0477
 5271SOL    HW224592   0.154  10.606   7.949 -0.3464 -0.0554  0.1571
 5272SOL     OW24593   7.191  12.512   6.934 -0.1196  0.2454 -0.3218
 5272SOL    HW124594   7.201  12.430   6.982 -1.1585 -0.4784 -1.2968
 5272SOL    HW224595   7.128  12.562   6.984  2.1437  1.4625  1.5074
 5273SOL     OW24596   3.297   9.367   2.759 -0.4846 -0.6805 -0.5154
 5273SOL    HW124597   3.220   9.371   2.815  0.3938 -1.8454  0.8687
 5273SOL    HW224598   3.361   9.424   2.802  0.3959 -2.0336  0.0614
 5274SOL     OW24599   4.664  12.139   4.953  0.0879 -0.1005 -0.7264
 5274SOL    HW124600   4.600  12.068   4.957 -0.6010  0.5316 -0.2574
 5274SOL    HW224601   4.690  12.154   5.044 -2.0994  2.2697 -0.3503
 5275SOL     OW24602  10.391   9.781   3.286 -0.0539 -0.1294 -0.1450
 5275SOL    HW124603  10.379   9.875   3.278  0.7971  0.3876  3.3311
 5275SOL    HW224604  10.307   9.748   3.317  0.0528 -0.3395 -0.0783
 5276SOL     OW24605  12.323  11.937   3.647 -0.1111 -0.0363  0.5342
 5276SOL    HW124606  12.370  11.958   3.727  1.7589  2.3623 -1.0328
 5276SOL    HW224607  12.297  12.022   3.611  0.0772 -0.9057 -1.9037
 5277SOL     OW24608  11.079   4.872   5.943  0.6443 -0.0099  0.0251
 5277SOL    HW124609  11.134   4.794   5.936  0.6766 -0.3511  2.8630
 5277SOL    HW224610  11.131   4.942   5.902  1.8928 -0.9140 -0.0049
 5278SOL     OW24611   6.403  12.157   8.900  0.0190  0.0939  0.1018
 5278SOL    HW124612   6.444  12.236   8.864  2.0231 -1.5028 -1.2804
 5278SOL    HW224613   6.394  12.175   8.994  0.2902  1.9908 -0.1986
 5279SOL     OW24614   3.127   1.314  12.078 -0.4792 -0.4854 -0.5415
 5279SOL    HW124615   3.213   1.327  12.120 -0.0857 -0.2813 -1.3784
 5279SOL    HW224616   3.109   1.221  12.087  0.0494 -0.6112 -0.7559
 5280SOL     OW24617   0.974   9.250   5.987  0.1790 -0.1065  1.3573
 5280SOL    HW124618   0.999   9.171   5.941  0.9372  0.1968  1.2348
 5280SOL    HW224619   0.961   9.316   5.918 -0.2371 -0.0615  1.4721
 5281SOL     OW24620   6.974   4.490  10.199  0.1257 -0.0165 -0.4490
 5281SOL    HW124621   6.879   4.483  10.189 -0.1539 -2.2652  2.3365
 5281SOL    HW224622   6.988   4.572  10.246 -0.4930  0.1155 -0.4884
 5282SOL     OW24623   8.477   8.121   4.598 -0.1132  0.5979 -0.8072
 5282SOL    HW124624   8.476   8.205   4.552  2.1976  1.3938  0.4315
 5282SOL    HW224625   8.480   8.145   4.691 -0.7186 -0.8976 -0.3710
 5283SOL     OW24626   3.692   2.857  12.245  0.5570 -0.1645  0.2006
 5283SOL    HW124627   3.750   2.782  12.237 -0.0090 -0.5083 -0.8583
 5283SOL    HW224628   3.658   2.871  12.156  1.0185  1.6349  0.2645
 5284SOL     OW24629   9.071   4.649  11.478  0.4116  0.2323 -0.4684
 5284SOL    HW124630   9.076   4.740  11.449  1.1969  0.1953 -0.4547
 5284SOL    HW224631   8.977   4.631  11.484  0.2053  1.5838  1.2413
 5285SOL     OW24632   4.562   5.296  10.123 -0.4408  0.2695 -0.3717
 5285SOL    HW124633   4.604   5.287  10.037  0.8751  0.7603  0.1922
 5285SOL    HW224634   4.635   5.300  10.185 -1.2000  3.1056  0.5011
 5286SOL     OW24635   2.695  10.345  11.447  0.0720 -0.4936  0.4749
 5286SOL    HW124636   2.732  10.297  11.373  0.3676  1.0455 -0.4218
 5286SOL    HW224637   2.601  10.329  11.442  0.0812 -0.3154 -0.2902
 5287SOL     OW24638   0.043   8.403  10.851 -0.0482 -0.2395 -0.3983
 5287SOL    HW124639   0.106   8.437  10.787  1.0840 -0.4366  0.5677
 5287SOL    HW224640  -0.043   8.422  10.813  0.5361 -2.3523 -3.0351
 5288SOL     OW24641   1.886   6.277   1.644  0.0869 -0.1896  0.4203
 5288SOL    HW124642   1.883   6.274   1.739 -1.3521  0.0385  0.4051
 5288SOL    HW224643   1.945   6.205   1.619  0.7336 -0.0377  1.4795
 5289SOL     OW24644   4.058  11.649   3.514 -0.1761  0.0359  0.2667
 5289SOL    HW124645   4.099  11.586   3.572 -0.1465 -0.2769 -0.0889
 5289SOL    HW224646   4.045  11.727   3.568 -2.0985 -0.9453  1.3319
 5290SOL     OW24647   3.902  12.077   3.245  0.4329  0.6331 -0.4905
 5290SOL    HW124648   3.870  12.024   3.319  0.6550 -1.6605 -1.9390
 5290SOL    HW224649   3.885  12.167   3.272  0.0874 -0.1157  2.1654
 5291SOL     OW24650   1.031   0.023   5.380 -0.0438  0.5899  0.2550
 5291SOL    HW124651   0.991   0.057   5.299  2.1831 -0.8685 -1.6008
 5291SOL    HW224652   1.058   0.100   5.428 -1.6229  1.5137 -0.2498
 5292SOL     OW24653   8.418   0.763   6.556 -0.6705 -0.2898 -0.3767
 5292SOL    HW124654   8.403   0.738   6.464 -3.0575 -0.2642 -0.0408
 5292SOL    HW224655   8.497   0.816   6.553 -0.4592 -0.6208 -2.3656
 5293SOL     OW24656   6.232   9.827   8.113  0.6501 -0.2608 -0.4278
 5293SOL    HW124657   6.319   9.862   8.132 -0.2231  0.4115  3.1379
 5293SOL    HW224658   6.180   9.903   8.088 -0.1346  0.4572  2.8977
 5294SOL     OW24659   2.649   0.619   7.792 -0.6183 -0.0463  0.5914
 5294SOL    HW124660   2.676   0.621   7.700 -0.8930  1.0465  0.5303
 5294SOL    HW224661   2.609   0.704   7.808 -1.4252 -0.5741  1.4762
 5295SOL     OW24662   2.049   7.742   0.381  0.1580 -0.3435  0.9370
 5295SOL    HW124663   2.112   7.708   0.445 -0.2258 -3.8602 -0.3105
 5295SOL    HW224664   2.098   7.747   0.299 -0.7061 -1.4880  0.3190
 5296SOL     OW24665  11.489   9.105   3.176  0.3946  0.0992  0.8393
 5296SOL    HW124666  11.470   9.075   3.087  1.5832 -0.0015  0.6106
 5296SOL    HW224667  11.437   9.048   3.232 -1.1216  0.7688  0.1924
 5297SOL     OW24668   4.576   0.096  10.089 -0.0944 -0.5138 -0.7898
 5297SOL    HW124669   4.566   0.180  10.044  1.3251  0.1799  0.1355
 5297SOL    HW224670   4.593   0.119  10.180  0.3975 -1.8020 -0.5324
 5298SOL     OW24671   4.841   6.814   0.624  0.4296  0.1861 -0.2702
 5298SOL    HW124672   4.927   6.797   0.662  0.1377 -0.1243  0.2704
 5298SOL    HW224673   4.785   6.745   0.659  0.1084 -0.0183 -1.1495
 5299SOL     OW24674   0.246  10.640   6.429  0.7848 -0.0178  0.5472
 5299SOL    HW124675   0.254  10.671   6.520  0.6916 -1.7206  1.1777
 5299SOL    HW224676   0.152  10.643   6.411  0.4958 -2.1588  1.4753
 5300SOL     OW24677   2.713   6.794   5.495  0.3174  0.2676  0.3202
 5300SOL    HW124678   2.691   6.820   5.406 -0.8457 -1.2388  0.1321
 5300SOL    HW224679   2.703   6.699   5.496 -1.5949  0.3962  2.5186
 5301SOL     OW24680   5.641   1.854  12.015  0.1289  0.1514  0.4237
 5301SOL    HW124681   5.699   1.928  12.033 -1.1050  0.5718  3.1994
 5301SOL    HW224682   5.694   1.793  11.964  1.4692  2.5001 -1.1851
 5302SOL     OW24683   0.464   3.864   8.975 -0.4347 -0.8427  0.5089
 5302SOL    HW124684   0.552   3.832   8.995  0.2589  1.2958  1.1567
 5302SOL    HW224685   0.431   3.805   8.907  1.3395 -1.9027  0.5180
 5303SOL     OW24686   1.951   7.247   1.045  0.5849 -0.6941 -0.7659
 5303SOL    HW124687   1.984   7.235   0.956  2.0646 -1.3380 -0.1738
 5303SOL    HW224688   2.025   7.284   1.093  0.3966 -1.9727  0.5859
 5304SOL     OW24689   0.067   0.031   3.207 -0.3638  0.0820 -0.7410
 5304SOL    HW124690   0.157   0.058   3.225  0.2909 -2.1739 -0.3371
 5304SOL    HW224691   0.051  -0.042   3.267 -2.8161  1.0190 -0.1520
 5305SOL     OW24692   4.751   4.355  11.919  0.8286  0.2111  0.2433
 5305SOL    HW124693   4.837   4.394  11.902  1.3717 -1.7798 -2.1519
 5305SOL    HW224694   4.770   4.275  11.967 -0.0164  1.1401  2.2715
 5306SOL     OW24695   2.640   4.824   9.042 -0.4870  0.1711 -0.0004
 5306SOL    HW124696   2.572   4.873   8.994 -1.7183 -1.2592  0.1930
 5306SOL    HW224697   2.681   4.889   9.098  0.1236  1.6419 -2.0177
 5307SOL     OW24698  11.709   6.029   7.252  0.6379 -0.0773  0.5041
 5307SOL    HW124699  11.753   5.946   7.230 -1.6056 -1.6635  1.6021
 5307SOL    HW224700  11.749   6.055   7.335  0.9780 -0.3336  0.4259
 5308SOL     OW24701  10.706   4.339  11.849 -0.6920  0.5114 -0.1112
 5308SOL    HW124702  10.707   4.321  11.755 -0.3715 -1.9017  0.2988
 5308SOL    HW224703  10.790   4.382  11.865  1.0502 -2.5152 -0.4061
 5309SOL     OW24704   2.312   8.021   5.317  0.1247  0.3483  0.9604
 5309SOL    HW124705   2.250   8.048   5.249  0.4898 -1.6214 -0.2510
 5309SOL    HW224706   2.312   7.925   5.312  2.2722  0.2533  1.8334
 5310SOL     OW24707  10.335   5.039   5.860  0.5095 -0.1535 -0.2379
 5310SOL    HW124708  10.266   4.972   5.864  1.1748 -0.8186  0.6184
 5310SOL    HW224709  10.412   4.996   5.899  0.7753  1.3242  0.9573
 5311SOL     OW24710   9.944   6.104   4.777 -0.2282 -0.4878  0.3550
 5311SOL    HW124711   9.960   6.107   4.683  0.6121 -1.9127  0.4143
 5311SOL    HW224712   9.939   6.195   4.804  1.9937  0.0080 -0.6793
 5312SOL     OW24713   0.161   1.281   0.304  0.5419  0.6788  0.3802
 5312SOL    HW124714   0.181   1.292   0.211 -0.6419  0.7608  0.1168
 5312SOL    HW224715   0.180   1.189   0.322  0.0663  0.4703 -0.1416
 5313SOL     OW24716  11.911  10.587   6.878  0.0415 -0.1230 -0.5425
 5313SOL    HW124717  11.994  10.566   6.836  1.0369  1.9139  0.2649
 5313SOL    HW224718  11.928  10.574   6.972 -0.4177  0.6532 -0.3446
 5314SOL     OW24719   5.956   5.791   7.846 -0.5568  0.2798  0.0901
 5314SOL    HW124720   6.042   5.801   7.805  0.2653  1.0855  1.9191
 5314SOL    HW224721   5.916   5.718   7.799  0.5405  0.7918 -1.7355
 5315SOL     OW24722  10.427   5.564   0.548 -0.0185 -0.0626  0.0680
 5315SOL    HW124723  10.518   5.574   0.523 -0.4814  1.3651 -1.1740
 5315SOL    HW224724  10.400   5.480   0.510  1.1969 -1.3788  1.9400
 5316SOL     OW24725   9.713   0.513   1.560 -0.1308 -0.0439 -0.9000
 5316SOL    HW124726   9.687   0.448   1.496 -1.3493  0.1924 -0.6749
 5316SOL    HW224727   9.748   0.462   1.633 -1.5517 -0.5118 -0.5058
 5317SOL     OW24728  11.528   1.892   2.092  0.4618  0.2671 -0.3696
 5317SOL    HW124729  11.582   1.968   2.113  1.0426 -0.3217  0.3426
 5317SOL    HW224730  11.547   1.872   2.001  1.1855  0.2909 -0.2312
 5318SOL     OW24731   9.650   5.679   1.221 -0.5606  0.1555  0.0307
 5318SOL    HW124732   9.648   5.589   1.254 -2.4259  0.7224  1.6329
 5318SOL    HW224733   9.671   5.733   1.298  1.1929  1.1021 -1.0293
 5319SOL     OW24734  12.097   7.623   4.799  0.1708  0.2522 -0.6017
 5319SOL    HW124735  12.031   7.630   4.730  0.2621 -2.1556 -1.0194
 5319SOL    HW224736  12.151   7.549   4.773  1.3342  0.4102  1.1650
 5320SOL     OW24737   6.737   0.888   7.330  0.1927  0.3228 -0.3558
 5320SOL    HW124738   6.661   0.850   7.285 -0.7711  2.0829 -0.2749
 5320SOL    HW224739   6.745   0.976   7.293  0.1190  1.3922  2.0263
 5321SOL     OW24740   7.089   6.232  10.326 -0.0288 -0.0845  0.4252
 5321SOL    HW124741   7.106   6.140  10.304 -2.0682 -0.8020  1.5317
 5321SOL    HW224742   7.152   6.252  10.395  1.1920 -0.2751 -0.6143
 5322SOL     OW24743   2.818   0.418   9.292 -0.3407  0.2665 -0.3847
 5322SOL    HW124744   2.744   0.358   9.280 -0.4658  0.3762 -0.1690
 5322SOL    HW224745   2.791   0.474   9.365  0.5377 -0.5886  0.6173
 5323SOL     OW24746  12.095   5.042  12.017 -0.0237 -0.2616  0.2395
 5323SOL    HW124747  12.163   4.978  12.039  2.6563  0.8778 -3.6189
 5323SOL    HW224748  12.118   5.119  12.069  0.2684 -0.5832  0.5980
 5324SOL     OW24749   9.065   4.573   7.820  0.4674 -0.2046  0.4680
 5324SOL    HW124750   9.150   4.606   7.790  1.0436 -0.6193  1.5933
 5324SOL    HW224751   9.086   4.495   7.871 -0.7404 -1.2653 -0.5992
 5325SOL     OW24752   1.853   6.274   9.993 -0.8321  0.0142  0.3902
 5325SOL    HW124753   1.883   6.342  10.053  0.1867  0.9999 -1.1588
 5325SOL    HW224754   1.880   6.191  10.034 -0.3424  0.6393  1.3640
 5326SOL     OW24755   6.990   3.089  11.662 -0.1014 -0.1270  0.2640
 5326SOL    HW124756   7.038   3.014  11.697 -1.3556 -1.3376 -0.5104
 5326SOL    HW224757   6.898   3.063  11.666 -0.6661  1.7210  0.7512
 5327SOL     OW24758   2.193   3.932   8.778  0.1415 -0.2600  0.6896
 5327SOL    HW124759   2.183   4.024   8.756 -2.1123 -0.7005 -0.3133
 5327SOL    HW224760   2.266   3.902   8.724 -1.1720  0.2171 -1.4592
 5328SOL     OW24761   5.204   3.722   1.988  0.1084  0.3064 -0.3610
 5328SOL    HW124762   5.287   3.686   2.021 -0.4685 -2.1982 -1.3570
 5328SOL    HW224763   5.230   3.778   1.915  0.9927  0.7632  0.2785
 5329SOL     OW24764   1.955   2.632   1.431  0.0417 -0.3886  0.4417
 5329SOL    HW124765   1.885   2.696   1.445 -0.1908 -0.9031  1.9024
 5329SOL    HW224766   1.917   2.566   1.374 -0.2645 -0.0525  0.2560
 5330SOL     OW24767   0.027  10.567   1.445  0.3761 -0.5914 -0.5382
 5330SOL    HW124768   0.056  10.634   1.507  2.4908 -0.7583 -1.2727
 5330SOL    HW224769  -0.019  10.615   1.377 -0.8050 -0.2647  0.4539
 5331SOL     OW24770  10.731   3.165   7.798  0.0871  0.3286  0.0548
 5331SOL    HW124771  10.802   3.101   7.804 -0.5446 -0.3906 -0.0537
 5331SOL    HW224772  10.678   3.150   7.877 -0.1403  0.6367 -0.0348
 5332SOL     OW24773   3.871   3.310   0.442 -1.0379  0.0680 -0.0510
 5332SOL    HW124774   3.891   3.384   0.385 -1.2491 -0.7853 -1.2879
 5332SOL    HW224775   3.922   3.238   0.406 -0.4745 -0.2971  1.4145
 5333SOL     OW24776   4.047   2.697   8.221  0.1964 -0.1305 -0.1534
 5333SOL    HW124777   3.982   2.627   8.234 -0.6041  0.7515  0.7674
 5333SOL    HW224778   4.119   2.654   8.176  0.2732 -1.8682  1.4725
 5334SOL     OW24779   1.840   0.899   3.692 -0.1706 -0.4707  0.7626
 5334SOL    HW124780   1.915   0.953   3.715 -1.4164  0.8967  1.8635
 5334SOL    HW224781   1.848   0.822   3.747  1.1797 -1.0737 -0.2124
 5335SOL     OW24782   0.450   8.957   0.011  0.0861 -0.5607  0.2292
 5335SOL    HW124783   0.513   9.021  -0.019 -0.9629  0.5524  0.3220
 5335SOL    HW224784   0.404   8.928  -0.068 -0.0364 -0.5465  0.2950
 5336SOL     OW24785  11.420   9.814  12.185 -0.0897 -0.6265  0.2576
 5336SOL    HW124786  11.391   9.904  12.171 -1.0522 -0.5299  2.4370
 5336SOL    HW224787  11.515   9.817  12.176 -0.2073  0.3476 -0.8310
 5337SOL     OW24788   3.699   5.303  10.922 -0.1039 -0.6870  0.2731
 5337SOL    HW124789   3.709   5.395  10.895  0.3859 -0.2868  1.6869
 5337SOL    HW224790   3.606   5.285  10.913 -0.3454  0.2387  0.7957
 5338SOL     OW24791   7.527   1.243   9.804  0.3787  0.4387 -0.4706
 5338SOL    HW124792   7.485   1.326   9.785  0.4038  0.6911  0.5178
 5338SOL    HW224793   7.620   1.258   9.788  0.3234  0.4504 -0.7807
 5339SOL     OW24794   1.262   9.691   3.672 -0.2844  0.3405 -0.3985
 5339SOL    HW124795   1.348   9.657   3.650 -0.1004  1.2008 -1.1033
 5339SOL    HW224796   1.263   9.781   3.639 -1.8321  0.0225 -1.4300
 5340SOL     OW24797   2.183  11.299  11.298 -0.2925  0.0861  0.0829
 5340SOL    HW124798   2.122  11.229  11.274  0.1760 -0.0561 -0.7406
 5340SOL    HW224799   2.220  11.327  11.215 -0.1027  0.9771  0.4603
 5341SOL     OW24800   5.204   9.441   4.971 -0.1928 -0.0694  0.1878
 5341SOL    HW124801   5.111   9.427   4.985 -0.4869  0.4831 -1.0806
 5341SOL    HW224802   5.226   9.388   4.894 -0.5527  3.2770 -2.4817
 5342SOL     OW24803   4.265   2.515   6.755 -0.4690  0.7044  0.1125
 5342SOL    HW124804   4.276   2.553   6.842  0.0472 -0.0847  0.4043
 5342SOL    HW224805   4.326   2.564   6.699  0.4495  0.1134  0.5568
 5343SOL     OW24806   2.567   2.564  10.845 -0.7371 -0.3034 -0.1836
 5343SOL    HW124807   2.636   2.631  10.848  0.3321 -1.3949  0.7682
 5343SOL    HW224808   2.597   2.501  10.780 -0.8347 -0.7901  0.2398
 5344SOL     OW24809   8.781   2.182   4.989 -0.2785 -0.2775  0.4516
 5344SOL    HW124810   8.758   2.263   5.034 -1.1216 -0.9746  1.3369
 5344SOL    HW224811   8.765   2.200   4.896 -1.6263  0.2080  0.7521
 5345SOL     OW24812   1.299  10.571   4.003  0.1323 -0.0969 -0.0922
 5345SOL    HW124813   1.242  10.519   3.947 -0.2668  0.5854 -0.3307
 5345SOL    HW224814   1.254  10.655   4.013  0.6072  0.0950  0.5520
 5346SOL     OW24815  10.064   6.084  11.203  0.1344  0.0002 -0.1423
 5346SOL    HW124816  10.115   6.155  11.240 -0.1382  0.2206 -0.1887
 5346SOL    HW224817  10.127   6.012  11.193  0.2439 -0.0183  0.6091
 5347SOL     OW24818   2.389   8.819   4.414 -0.2997  0.8898  0.0033
 5347SOL    HW124819   2.370   8.841   4.323  0.7565  0.1229 -0.4237
 5347SOL    HW224820   2.304   8.821   4.458 -0.8832  0.8251 -1.0970
 5348SOL     OW24821   7.030   5.165   7.132 -0.3297 -0.1047 -0.1336
 5348SOL    HW124822   7.101   5.193   7.189 -1.0308  0.1535  0.6323
 5348SOL    HW224823   6.994   5.087   7.175 -0.3294 -0.3964 -0.6587
 5349SOL     OW24824   0.558   8.701   0.057 -1.2579 -0.5145 -0.1449
 5349SOL    HW124825   0.515   8.712   0.142 -2.9274  1.0382 -1.1200
 5349SOL    HW224826   0.499   8.643   0.009 -0.4780 -1.1365 -0.3631
 5350SOL     OW24827  11.961   3.275   0.900 -0.5585 -0.2202 -0.5207
 5350SOL    HW124828  11.954   3.362   0.939 -0.1595 -0.4838  0.1490
 5350SOL    HW224829  11.928   3.215   0.967 -0.9591 -0.5851 -1.0269
 5351SOL     OW24830   9.319   8.774   3.701  0.0429  0.0356  0.0936
 5351SOL    HW124831   9.250   8.807   3.760 -0.9207 -0.1525 -0.9013
 5351SOL    HW224832   9.394   8.832   3.718 -0.9069  1.3513 -0.0176
 5352SOL     OW24833   1.956   6.807   2.202  0.2302  0.4026  0.2796
 5352SOL    HW124834   1.874   6.845   2.171 -0.4785 -0.7548  0.6700
 5352SOL    HW224835   1.938   6.781   2.292  1.5536  1.6249  0.9468
 5353SOL     OW24836   4.636   6.807   1.184 -0.1555  0.3503  0.1456
 5353SOL    HW124837   4.697   6.828   1.114  0.3850  2.1271  1.0980
 5353SOL    HW224838   4.690   6.767   1.252 -0.1695  1.2040  0.6707
 5354SOL     OW24839   2.685   6.939   4.637  0.1511 -0.2013 -0.2834
 5354SOL    HW124840   2.608   6.901   4.681 -0.2177  0.4434 -0.3625
 5354SOL    HW224841   2.730   6.864   4.599 -0.5786 -0.5650 -0.4536
 5355SOL     OW24842   1.898   3.150   7.401 -0.4537  0.2033 -0.3179
 5355SOL    HW124843   1.928   3.070   7.358 -1.5741 -0.7583  0.6284
 5355SOL    HW224844   1.959   3.163   7.473 -0.5229 -0.0530 -0.2114
 5356SOL     OW24845   9.075  12.486   6.725 -0.5926 -0.2065  0.0340
 5356SOL    HW124846   9.147  12.538   6.762 -1.1150 -0.0630  0.8799
 5356SOL    HW224847   9.000  12.546   6.724 -1.2949 -1.0152  1.3664
 5357SOL     OW24848   4.457   4.666  11.596 -0.1883 -0.0973 -0.0069
 5357SOL    HW124849   4.549   4.638  11.597 -0.2044 -0.1439  1.2328
 5357SOL    HW224850   4.457   4.744  11.539  0.7176  0.2152  0.3940
 5358SOL     OW24851   5.014   1.006   7.736 -0.4122  0.4470 -0.0626
 5358SOL    HW124852   4.985   1.088   7.775 -2.7083 -0.6009  0.5969
 5358SOL    HW224853   5.078   0.970   7.797  0.1550  1.4344 -0.0641
 5359SOL     OW24854  11.842   3.045   1.414  0.1643 -0.1086  0.4630
 5359SOL    HW124855  11.757   3.004   1.424  0.2543 -0.6415 -0.7508
 5359SOL    HW224856  11.840   3.085   1.327  0.3534  1.8490  1.2975
 5360SOL     OW24857   8.845   5.136   5.613  0.2308 -0.0684 -0.2791
 5360SOL    HW124858   8.756   5.106   5.596  0.2996 -0.5605  0.2270
 5360SOL    HW224859   8.850   5.149   5.707  0.6207  0.2051 -0.3312
 5361SOL     OW24860   0.540   5.578   5.768  0.2468 -0.3652 -0.4503
 5361SOL    HW124861   0.523   5.669   5.742 -0.7249  0.3823  2.3963
 5361SOL    HW224862   0.619   5.584   5.822 -0.4713 -0.9855  0.7022
 5362SOL     OW24863   4.799   4.334   5.488 -0.2554 -0.0228 -0.3601
 5362SOL    HW124864   4.891   4.307   5.490 -0.2087 -0.0132 -1.6431
 5362SOL    HW224865   4.753   4.264   5.535  0.0385 -1.7234 -2.4657
 5363SOL     OW24866   0.529   9.165   7.242 -0.0689 -0.3927 -1.0931
 5363SOL    HW124867   0.565   9.077   7.252 -0.8379 -0.6161 -0.0770
 5363SOL    HW224868   0.448   9.152   7.193 -1.3644 -0.5910  0.9810
 5364SOL     OW24869  10.532   0.371   4.137  0.3485  0.3088  0.3804
 5364SOL    HW124870  10.604   0.337   4.083  0.3168  0.0376  0.5057
 5364SOL    HW224871  10.521   0.461   4.109 -1.7247 -0.6520 -2.2605
 5365SOL     OW24872   1.858  10.592   2.641  0.0604  0.2412  0.6133
 5365SOL    HW124873   1.770  10.594   2.602 -0.7062 -1.2328  2.0991
 5365SOL    HW224874   1.883  10.500   2.639  1.1821  0.5158  1.0408
 5366SOL     OW24875   6.444   0.241   1.393  0.3846  0.3941  0.2147
 5366SOL    HW124876   6.352   0.267   1.380  0.0686 -0.3070  0.9905
 5366SOL    HW224877   6.459   0.255   1.487  0.1311 -2.3790  0.7392
 5367SOL     OW24878   9.124   1.833  11.551  0.6306 -0.5228 -0.1053
 5367SOL    HW124879   9.085   1.918  11.533 -0.2108 -0.9285 -0.2227
 5367SOL    HW224880   9.215   1.842  11.523  0.7718  0.5951  0.6694
 5368SOL     OW24881   8.981   8.629   4.324 -0.7205 -0.0717  0.1535
 5368SOL    HW124882   8.973   8.609   4.231 -0.1918  1.2588 -0.2023
 5368SOL    HW224883   9.066   8.672   4.332 -1.1508  0.6342  1.0993
 5369SOL     OW24884  10.761   0.006   0.749  0.1137  0.4624 -0.2892
 5369SOL    HW124885  10.680   0.008   0.799  1.5039  0.2912  2.1601
 5369SOL    HW224886  10.760  -0.078   0.703 -0.8118  0.1902  0.2060
 5370SOL     OW24887   5.460   8.272   7.139  0.4646 -0.1195 -0.3854
 5370SOL    HW124888   5.464   8.262   7.234  0.6158  1.3687 -0.2141
 5370SOL    HW224889   5.504   8.355   7.121 -0.0397 -0.1072 -1.7001
 5371SOL     OW24890   1.650   8.781   3.955 -0.4706 -0.4001  0.8609
 5371SOL    HW124891   1.692   8.697   3.934  1.9844  0.5554  1.6985
 5371SOL    HW224892   1.692   8.844   3.898  0.2385  0.8103  2.6363
 5372SOL     OW24893   7.940   4.329  11.468  0.3411 -0.0483 -0.1047
 5372SOL    HW124894   8.027   4.368  11.462  0.7588 -1.1170 -1.3800
 5372SOL    HW224895   7.880   4.400  11.447  0.8293  0.8609  1.3937
 5373SOL     OW24896   3.987  11.894  10.394 -0.7437  0.1391  0.2421
 5373SOL    HW124897   4.078  11.924  10.400 -0.7126 -0.2009  3.7643
 5373SOL    HW224898   3.994  11.803  10.366 -0.0403  0.2958 -0.1137
 5374SOL     OW24899   4.909   2.047   5.208 -0.2050 -0.4410  0.3195
 5374SOL    HW124900   4.901   2.123   5.151  1.4479  0.8428  1.6807
 5374SOL    HW224901   4.965   2.077   5.279  0.7325 -3.0276  0.7672
 5375SOL     OW24902  11.751   2.087  12.145  0.4350  0.6750  0.1366
 5375SOL    HW124903  11.678   2.051  12.094 -0.1247  0.0950  1.2902
 5375SOL    HW224904  11.820   2.102  12.082 -0.8297  1.6461 -1.0798
 5376SOL     OW24905   4.505   3.556  10.484 -0.0347 -0.2165 -0.8132
 5376SOL    HW124906   4.513   3.635  10.429  0.4472  0.3760  0.0937
 5376SOL    HW224907   4.520   3.587  10.573 -2.8555 -0.7687 -0.0434
 5377SOL     OW24908   5.425   7.040   2.320 -0.8255 -0.5383 -0.3465
 5377SOL    HW124909   5.359   6.995   2.267  0.3693 -0.7656 -1.7337
 5377SOL    HW224910   5.448   6.977   2.388 -1.7334 -0.6176 -0.1061
 5378SOL     OW24911   6.173   0.133   1.055  0.0117 -0.5450 -0.1939
 5378SOL    HW124912   6.131   0.209   1.095  1.7853 -0.3445  1.4612
 5378SOL    HW224913   6.157   0.143   0.961 -2.8810 -0.1167  0.2522
 5379SOL     OW24914   4.047   2.161  12.253  0.2287 -0.3348  1.0644
 5379SOL    HW124915   4.110   2.190  12.187  1.6285 -2.4396  1.3825
 5379SOL    HW224916   4.042   2.066  12.241 -3.2464 -0.2369  0.8057
 5380SOL     OW24917  11.456   4.474   7.718 -0.4543 -0.0650 -0.0764
 5380SOL    HW124918  11.488   4.389   7.688  0.6391 -0.3430  1.7408
 5380SOL    HW224919  11.468   4.472   7.813 -2.2239  1.3880  0.2332
 5381SOL     OW24920  12.241   0.878  12.483  0.1623 -0.2376  0.2873
 5381SOL    HW124921  12.247   0.956  12.427  1.6593 -0.1541  0.5300
 5381SOL    HW224922  12.322   0.830  12.467 -1.3569 -2.5746 -0.9673
 5382SOL     OW24923   6.413   7.868   5.595 -0.1359 -0.5838 -0.0059
 5382SOL    HW124924   6.454   7.845   5.679 -0.4528 -0.3594  0.2133
 5382SOL    HW224925   6.368   7.788   5.568 -1.9212 -0.0477  1.1562
 5383SOL     OW24926  11.269   0.080   7.361 -0.3141 -0.2183 -0.3199
 5383SOL    HW124927  11.251   0.040   7.276  0.8600  1.2238 -1.3002
 5383SOL    HW224928  11.244   0.172   7.350 -1.9011 -0.3659  1.5168
 5384SOL     OW24929   4.590   4.471   3.582 -0.3624 -0.7513 -0.7282
 5384SOL    HW124930   4.658   4.538   3.586  0.8083 -1.9570  1.5096
 5384SOL    HW224931   4.548   4.475   3.668 -0.3412 -2.7721 -0.5766
 5385SOL     OW24932   5.489   2.589   9.245 -0.1052  0.2586  0.0617
 5385SOL    HW124933   5.422   2.525   9.268  0.1365 -1.3114 -3.1203
 5385SOL    HW224934   5.446   2.673   9.254 -1.7014 -0.5685  0.5250
 5386SOL     OW24935   9.420  10.018  11.376  0.0774 -0.0484  0.2644
 5386SOL    HW124936   9.456  10.001  11.463  2.8622  0.2672 -0.7354
 5386SOL    HW224937   9.446   9.942  11.323 -0.2743  0.4465 -0.6510
 5387SOL     OW24938  12.392   1.022   1.122 -0.4874  0.5865 -0.0823
 5387SOL    HW124939  12.377   1.012   1.216  1.5824 -1.6211  0.0870
 5387SOL    HW224940  12.469   1.079   1.116  1.5810 -2.0607 -0.2103
 5388SOL     OW24941   3.652   3.534  11.848  0.3660 -0.1926  0.2976
 5388SOL    HW124942   3.612   3.619  11.870 -1.1410 -0.5355 -0.9851
 5388SOL    HW224943   3.692   3.548  11.762 -0.0435 -0.8243 -0.0012
 5389SOL     OW24944   0.144   5.361   2.693 -0.3807 -0.0332 -0.4341
 5389SOL    HW124945   0.099   5.347   2.776 -0.8576 -0.9754 -0.8408
 5389SOL    HW224946   0.077   5.400   2.636  0.2402  1.6582 -0.0770
 5390SOL     OW24947   7.680   0.813   4.126 -0.3116 -0.0937  0.6500
 5390SOL    HW124948   7.670   0.882   4.193 -0.3311 -0.9865  1.5855
 5390SOL    HW224949   7.613   0.749   4.149 -1.3130  0.2716 -1.1177
 5391SOL     OW24950   6.632  12.524   7.356 -0.1490  0.0542 -0.1103
 5391SOL    HW124951   6.664  12.590   7.295  1.4910  0.0541  0.6980
 5391SOL    HW224952   6.595  12.575   7.429  0.1213  0.0688  0.0158
 5392SOL     OW24953   3.856   0.839   4.335 -0.1890  0.5195  0.5157
 5392SOL    HW124954   3.783   0.886   4.294 -1.5585  0.1249  2.3353
 5392SOL    HW224955   3.915   0.908   4.365 -0.5528  0.9289  0.3075
 5393SOL     OW24956   8.951   0.867   8.278  0.4002 -0.0315  0.0047
 5393SOL    HW124957   9.015   0.903   8.216  0.3081  1.1317  0.5554
 5393SOL    HW224958   8.996   0.793   8.318  1.5324  0.9292  0.5759
 5394SOL     OW24959   5.163   4.088   8.540 -0.3101  0.4283  0.3578
 5394SOL    HW124960   5.249   4.102   8.500 -0.8959 -0.1558 -1.1689
 5394SOL    HW224961   5.172   4.004   8.586 -0.1694  0.1855 -0.1092
 5395SOL     OW24962   4.168  12.363   0.021 -0.4008 -0.1356 -0.2516
 5395SOL    HW124963   4.087  12.338   0.065 -0.2058  0.6387  0.5711
 5395SOL    HW224964   4.223  12.285   0.026 -0.5778 -0.2250  0.4287
 5396SOL     OW24965   9.912   9.794   3.479  0.1019  0.6308  0.0346
 5396SOL    HW124966   9.874   9.863   3.424 -2.1701  0.8196  1.7063
 5396SOL    HW224967   9.911   9.831   3.568 -0.2489 -1.1660  0.8103
 5397SOL     OW24968   0.375   8.645   4.649  0.6782  0.1037  0.1622
 5397SOL    HW124969   0.313   8.717   4.633 -0.2023 -0.4767  0.8783
 5397SOL    HW224970   0.327   8.584   4.705  1.8020 -0.5172  0.4718
 5398SOL     OW24971   2.449  11.992   6.012 -0.0270 -0.4875  0.1792
 5398SOL    HW124972   2.538  11.980   5.978  0.0276 -0.4442  0.3072
 5398SOL    HW224973   2.408  12.052   5.950 -0.7262 -2.3264 -1.2271
 5399SOL     OW24974   1.064   9.880   0.785 -0.2386 -0.5378  0.3350
 5399SOL    HW124975   1.057   9.968   0.823  1.1592 -0.7503  1.1506
 5399SOL    HW224976   1.113   9.892   0.704  1.0907 -0.6888  1.0797
 5400SOL     OW24977  10.486   0.365   1.953  0.3068  0.6391 -0.1540
 5400SOL    HW124978  10.447   0.283   1.923  1.4213 -0.2662  0.7651
 5400SOL    HW224979  10.492   0.419   1.874 -1.2006  0.1674 -0.6144
 5401SOL     OW24980   4.948   4.008   9.503  0.1863  0.3827  0.3019
 5401SOL    HW124981   5.020   4.014   9.567  1.1452  1.8285 -0.8561
 5401SOL    HW224982   4.877   4.058   9.543  0.9784  1.7858  0.0285
 5402SOL     OW24983   8.976   5.101   8.376 -0.0219  0.7147  0.2363
 5402SOL    HW124984   9.017   5.147   8.303  0.1799  1.9710  1.1100
 5402SOL    HW224985   9.046   5.046   8.413 -0.0679  0.2414 -0.3626
 5403SOL     OW24986   6.585   2.423   2.998 -0.0749  0.0438  0.0644
 5403SOL    HW124987   6.567   2.329   2.992  2.0612 -0.5860  1.7739
 5403SOL    HW224988   6.582   2.441   3.092  1.4024  1.2291 -0.0858
 5404SOL     OW24989   7.764   6.479  11.854  0.0445  0.5642 -0.3060
 5404SOL    HW124990   7.837   6.417  11.850  0.9663  1.5308  0.8574
 5404SOL    HW224991   7.804   6.564  11.834 -0.2509  1.4937  2.6534
 5405SOL     OW24992  12.532   5.535   3.317 -0.2106  0.4804 -0.6095
 5405SOL    HW124993  12.562   5.623   3.338  0.1901 -0.1652  1.9027
 5405SOL    HW224994  12.609   5.479   3.332 -0.9911 -0.5087 -0.1789
 5406SOL     OW24995   9.524   0.343   0.581 -0.4403  0.1237 -0.4590
 5406SOL    HW124996   9.487   0.330   0.494 -1.7059  1.0671 -0.1000
 5406SOL    HW224997   9.526   0.438   0.592 -1.3537  0.0118  0.9452
 5407SOL     OW24998   7.299  11.412   3.748 -0.1786 -0.3603  0.3990
 5407SOL    HW124999   7.314  11.401   3.654 -0.2697 -0.3446  0.3830
 5407SOL    HW225000   7.386  11.427   3.784  0.1030 -2.2484  0.5777
 5408SOL     OW25001  11.113   9.856   9.433  0.6573  0.2576  0.2709
 5408SOL    HW125002  11.021   9.874   9.411  0.9379  0.6288 -0.6207
 5408SOL    HW225003  11.141   9.791   9.369  0.6002 -1.0102  1.4799
 5409SOL     OW25004   4.162   7.856  11.879 -0.1743 -0.5110  0.0187
 5409SOL    HW125005   4.164   7.950  11.860  0.2007 -0.4298  0.4543
 5409SOL    HW225006   4.224   7.818  11.816 -2.6098 -0.8943 -2.3574
 5410SOL     OW25007  12.600  10.065   1.547  0.1536  0.5880 -0.0939
 5410SOL    HW125008  12.586  10.155   1.577 -0.4390 -0.2326  2.3574
 5410SOL    HW225009  12.511  10.031   1.532  0.3537  0.2766 -0.5858
 5411SOL     OW25010   5.143   2.468   3.601  0.4348 -0.0933 -0.1983
 5411SOL    HW125011   5.132   2.526   3.676  1.0773  0.0831 -0.2321
 5411SOL    HW225012   5.110   2.384   3.630 -0.9314  0.3894 -0.3007
 5412SOL     OW25013   3.976  11.446   6.652  0.0516  0.3516  0.3016
 5412SOL    HW125014   4.055  11.453   6.598 -0.1398  1.0007  0.0966
 5412SOL    HW225015   3.952  11.354   6.646  0.1898  0.3542 -0.5205
 5413SOL     OW25016   2.862   0.448   2.617 -0.1899  0.1496 -0.6216
 5413SOL    HW125017   2.772   0.474   2.639 -0.5011 -0.4824 -1.1089
 5413SOL    HW225018   2.869   0.465   2.523 -0.0109 -0.3982 -0.7077
 5414SOL     OW25019   6.384  11.194   8.459  0.4424 -0.7936 -0.1780
 5414SOL    HW125020   6.341  11.279   8.454 -0.5535 -1.2982 -0.5500
 5414SOL    HW225021   6.361  11.160   8.545  0.4724 -0.8639 -0.1978
 5415SOL     OW25022   5.968   5.256   9.180  0.5894  0.9563 -0.1628
 5415SOL    HW125023   6.056   5.273   9.214  0.4926 -0.5906  0.9585
 5415SOL    HW225024   5.915   5.240   9.258 -0.2643 -0.0354 -0.9255
 5416SOL     OW25025   3.736   2.428  12.383 -0.3487 -0.4334 -0.2727
 5416SOL    HW125026   3.644   2.442  12.407 -0.5035 -1.3219 -0.3092
 5416SOL    HW225027   3.761   2.349  12.431  1.1941  1.2295  1.8188
 5417SOL     OW25028   6.336   0.002  10.725  0.6995 -0.5201  0.1974
 5417SOL    HW125029   6.241  -0.005  10.732  0.7187 -0.8352  0.1388
 5417SOL    HW225030   6.367  -0.088  10.719  0.9062 -0.3903 -0.9785
 5418SOL     OW25031   1.917   1.750   5.486 -0.0242 -0.2948  0.2159
 5418SOL    HW125032   1.973   1.828   5.490  0.5060 -0.7321  2.7130
 5418SOL    HW225033   1.973   1.682   5.447  0.4592 -0.1482  0.6505
 5419SOL     OW25034   6.231  12.237   5.956 -0.0673  0.1748 -0.0930
 5419SOL    HW125035   6.181  12.318   5.962  1.2243  0.9718  0.6435
 5419SOL    HW225036   6.296  12.245   6.027 -0.4620 -1.8981  0.5655
 5420SOL     OW25037  12.450  12.252   2.842  0.7920 -0.1008  0.2413
 5420SOL    HW125038  12.458  12.282   2.932  1.8573  1.3211 -0.3023
 5420SOL    HW225039  12.417  12.162   2.850 -1.1489  0.6721  1.9660
 5421SOL     OW25040   5.419   6.474   0.616  0.4247  0.1444 -0.0752
 5421SOL    HW125041   5.487   6.442   0.675  0.7317  2.9264  1.2664
 5421SOL    HW225042   5.338   6.434   0.649  0.8814 -0.0118  0.8978
 5422SOL     OW25043   8.073   9.945  12.316  0.2485 -0.2872 -0.2101
 5422SOL    HW125044   8.033   9.924  12.400  2.2485 -0.1295  0.8570
 5422SOL    HW225045   8.094   9.860  12.277 -0.8589 -0.3640 -0.6504
 5423SOL     OW25046  10.482  11.662   3.783 -0.4244  0.4367  0.1350
 5423SOL    HW125047  10.535  11.638   3.859  1.2922  0.3460 -1.0389
 5423SOL    HW225048  10.463  11.755   3.795 -1.2675  0.1280  1.2962
 5424SOL     OW25049   1.224   1.350  11.026  0.3579  0.0610 -0.3086
 5424SOL    HW125050   1.144   1.397  11.048  0.6119  0.4045 -0.1127
 5424SOL    HW225051   1.262   1.400  10.954  1.0906  0.6819  0.4867
 5425SOL     OW25052  11.917   3.975  11.148 -0.1809  0.2660  0.2740
 5425SOL    HW125053  11.867   3.917  11.090  0.0830 -1.0632  1.3464
 5425SOL    HW225054  11.907   3.937  11.235  1.8653  0.5204  0.6756
 5426SOL     OW25055   1.164   7.765   9.891 -0.7150  0.8215 -0.3040
 5426SOL    HW125056   1.119   7.772   9.806 -0.6172 -0.4818 -0.4703
 5426SOL    HW225057   1.193   7.675   9.896 -2.0368  0.4369  1.7807
 5427SOL     OW25058   9.075   2.242   0.271 -0.0067 -0.0988  0.0960
 5427SOL    HW125059   9.035   2.314   0.221 -2.3208 -0.8155  0.7783
 5427SOL    HW225060   9.082   2.276   0.360 -1.8200 -0.8863  0.5920
 5428SOL     OW25061   8.784   0.234   2.452  0.0533 -0.5421  0.8078
 5428SOL    HW125062   8.741   0.251   2.535  0.5683 -1.4107  1.2697
 5428SOL    HW225063   8.871   0.274   2.462 -0.6620  1.3989 -0.1970
 5429SOL     OW25064   9.465   4.675  11.597  0.4676 -0.2148  0.2315
 5429SOL    HW125065   9.544   4.638  11.557  1.0487  1.5370 -0.3359
 5429SOL    HW225066   9.416   4.711  11.524 -0.9327 -1.3311  0.5769
 5430SOL     OW25067   7.321   6.349   3.607 -0.0394 -0.1355  0.5385
 5430SOL    HW125068   7.276   6.342   3.522  0.0974 -0.3435  0.4844
 5430SOL    HW225069   7.414   6.349   3.584 -0.0068  1.6280  0.5352
 5431SOL     OW25070   7.413  10.223   4.190 -0.2348 -0.0022  0.2386
 5431SOL    HW125071   7.380  10.274   4.116  1.0619  0.1799 -0.2243
 5431SOL    HW225072   7.376  10.136   4.178 -0.4015  0.1478 -0.3575
 5432SOL     OW25073   0.094   8.703   4.304 -0.4532  0.1534  0.7064
 5432SOL    HW125074   0.163   8.641   4.279 -0.7926 -0.6037  1.6306
 5432SOL    HW225075   0.116   8.729   4.393 -0.5565  1.0534  0.4833
 5433SOL     OW25076   8.954   5.286  10.529 -0.5032  0.4292  0.4865
 5433SOL    HW125077   9.039   5.244  10.514 -0.6159  0.3647 -0.0120
 5433SOL    HW225078   8.929   5.259  10.617  0.0286  0.5107  0.6642
 5434SOL     OW25079  11.151   5.122   0.422  0.0016 -0.5614 -0.1355
 5434SOL    HW125080  11.230   5.176   0.414 -1.1955  1.3729  0.4556
 5434SOL    HW225081  11.184   5.032   0.424  2.1838  0.1787  0.1177
 5435SOL     OW25082  11.719   9.421   7.902  0.2248  0.0436  0.5753
 5435SOL    HW125083  11.698   9.372   7.982  0.9016  1.3369  1.5822
 5435SOL    HW225084  11.807   9.455   7.917  1.0060 -0.9565 -1.3861
 5436SOL     OW25085   6.510   7.013   5.011 -0.4157  0.2244 -0.3160
 5436SOL    HW125086   6.497   7.062   4.930 -4.3766 -1.2267 -0.7876
 5436SOL    HW225087   6.468   7.067   5.079  0.0991 -0.0045  0.1940
 5437SOL     OW25088   9.270   5.312   6.806  0.8987 -0.0657 -0.0242
 5437SOL    HW125089   9.186   5.337   6.767  1.3172  0.8206 -0.3907
 5437SOL    HW225090   9.259   5.330   6.899  0.9173  0.7531 -0.1701
 5438SOL     OW25091   6.665  10.019   7.215 -0.3271 -0.4784  0.2182
 5438SOL    HW125092   6.595   9.955   7.205 -1.0573  0.3354 -0.0083
 5438SOL    HW225093   6.713  10.016   7.133  0.3900 -1.5943  0.6676
 5439SOL     OW25094   8.314  12.056   5.272 -0.3635 -0.0948 -0.2824
 5439SOL    HW125095   8.290  12.080   5.362  0.3088 -1.5148  0.3012
 5439SOL    HW225096   8.272  12.123   5.218  0.0067  1.3644  1.1321
 5440SOL     OW25097  10.067   6.579   5.168 -0.8741  0.4532 -0.2819
 5440SOL    HW125098  10.066   6.544   5.079 -0.2361  0.7305 -0.4060
 5440SOL    HW225099  10.103   6.667   5.158 -0.3551  0.3142  0.3035
 5441SOL     OW25100   8.950   9.834   5.530  0.0383  0.2399 -0.5215
 5441SOL    HW125101   8.983   9.744   5.542 -1.0524 -0.1848 -0.6056
 5441SOL    HW225102   9.027   9.883   5.500  1.0782 -0.2543  1.1897
 5442SOL     OW25103   9.648   8.181  11.420  0.4083 -0.5591 -0.1526
 5442SOL    HW125104   9.635   8.086  11.414 -1.0227 -0.4573  0.8541
 5442SOL    HW225105   9.580   8.218  11.363  0.6998 -0.1208 -0.2182
 5443SOL     OW25106   8.011   7.667   3.046  0.2150 -0.0561 -0.0297
 5443SOL    HW125107   8.078   7.682   3.113 -0.5124  2.3211  0.2446
 5443SOL    HW225108   7.991   7.754   3.012 -0.3665 -1.0648 -2.4738
 5444SOL     OW25109   0.417   5.955   9.911 -0.5032 -0.0096 -0.0452
 5444SOL    HW125110   0.386   6.016   9.978  1.3741 -0.6928  1.5488
 5444SOL    HW225111   0.504   5.987   9.889 -0.8880 -0.1169 -1.7963
 5445SOL     OW25112  11.307   9.743   2.373  0.5402 -0.4508  0.7718
 5445SOL    HW125113  11.343   9.672   2.320  1.9558  0.6817  0.1467
 5445SOL    HW225114  11.369   9.752   2.446  0.8296  0.6595  0.4052
 5446SOL     OW25115   1.270   3.052   6.855 -0.2857  0.1525  0.0071
 5446SOL    HW125116   1.304   3.106   6.926  0.2013 -0.6431  0.3913
 5446SOL    HW225117   1.345   3.039   6.797 -0.5044  0.2117 -0.2939
 5447SOL     OW25118   0.618   2.546   6.442 -0.0522 -0.0071 -0.1580
 5447SOL    HW125119   0.544   2.549   6.502  0.7519 -1.1589  0.9400
 5447SOL    HW225120   0.612   2.460   6.401  1.0762 -0.3959  0.4703
 5448SOL     OW25121   5.959  10.244   9.170 -0.1005 -0.1171  0.1441
 5448SOL    HW125122   6.041  10.252   9.218  0.9491  1.2894 -1.7565
 5448SOL    HW225123   5.904  10.315   9.205  0.6057  0.8117 -0.5831
 5449SOL     OW25124   6.441   3.370   0.294  0.0434  0.5635  0.1974
 5449SOL    HW125125   6.497   3.443   0.322  0.2264  0.8014 -0.7381
 5449SOL    HW225126   6.355   3.410   0.280  0.5351  0.9750 -1.9285
 5450SOL     OW25127  10.460   0.382   3.148  0.0399  0.1009 -0.4951
 5450SOL    HW125128  10.511   0.319   3.199 -0.2186  0.0046 -0.3505
 5450SOL    HW225129  10.399   0.327   3.097 -0.0757  0.2264 -0.4920
 5451SOL     OW25130   4.043   5.388   0.263 -0.1764  0.2445  0.3901
 5451SOL    HW125131   3.950   5.367   0.274  0.0998 -1.9463 -0.8064
 5451SOL    HW225132   4.045   5.462   0.203 -1.1641 -1.9112 -2.4918
 5452SOL     OW25133   1.985   2.293  10.706  0.5651 -0.3157  0.1351
 5452SOL    HW125134   2.041   2.219  10.731 -1.6760 -2.1965  0.0011
 5452SOL    HW225135   1.916   2.253  10.654 -1.1345  1.8013  0.6361
 5453SOL     OW25136  12.206  12.555   4.610 -0.7433 -0.7472 -0.1259
 5453SOL    HW125137  12.154  12.563   4.530  0.0837 -2.5580 -0.9242
 5453SOL    HW225138  12.145  12.571   4.681 -1.7614 -0.2207 -1.0988
 5454SOL     OW25139  11.514   6.023  10.004  0.5021  0.0545 -0.0764
 5454SOL    HW125140  11.544   5.998  10.092 -1.5954 -0.6306  0.5246
 5454SOL    HW225141  11.594   6.040   9.955  1.7911 -0.8359  1.5936
 5455SOL     OW25142  10.424   2.264   1.730 -0.4815 -1.0232  0.1276
 5455SOL    HW125143  10.487   2.224   1.670 -0.5842 -1.3332  0.2252
 5455SOL    HW225144  10.339   2.241   1.694 -0.5497 -0.4352 -0.1168
 5456SOL     OW25145  10.465   3.747  10.561 -0.0039 -0.0958  0.4455
 5456SOL    HW125146  10.545   3.720  10.606  0.6948 -1.4538 -1.4898
 5456SOL    HW225147  10.491   3.821  10.507 -0.1912 -0.1951  0.2168
 5457SOL     OW25148   6.935   5.653   0.158 -0.3473  0.3831  0.6986
 5457SOL    HW125149   7.029   5.667   0.174 -0.2572 -1.0212  1.5889
 5457SOL    HW225150   6.931   5.585   0.091 -0.7023 -0.1419  1.2333
 5458SOL     OW25151  10.579   0.743  10.542  0.7714  0.0370  0.2952
 5458SOL    HW125152  10.629   0.664  10.524 -1.1370 -1.0610 -0.5717
 5458SOL    HW225153  10.620   0.782  10.619  1.8446 -1.7291  0.6617
 5459SOL     OW25154  11.676   0.160   4.345 -0.4487 -0.1378 -0.3241
 5459SOL    HW125155  11.624   0.086   4.312 -1.3964  0.8547 -1.1092
 5459SOL    HW225156  11.701   0.209   4.266  1.8245 -0.6435  0.0118
 5460SOL     OW25157   5.013   3.401   8.334 -0.3718 -0.0095 -0.2593
 5460SOL    HW125158   5.081   3.464   8.310  0.3548 -1.0813 -1.0866
 5460SOL    HW225159   4.942   3.417   8.271 -0.5566  0.5465  0.0793
 5461SOL     OW25160  10.089   8.143   9.892  0.2757  0.0764  0.0792
 5461SOL    HW125161  10.156   8.078   9.873 -1.5561 -2.2325  0.9837
 5461SOL    HW225162  10.105   8.168   9.983  0.3917  0.1407  0.0409
 5462SOL     OW25163   4.802   8.569   1.001 -0.2730 -0.0727  0.4247
 5462SOL    HW125164   4.882   8.518   1.012 -0.0119  0.1494 -0.4093
 5462SOL    HW225165   4.792   8.578   0.907 -2.9462 -2.7506  0.2966
 5463SOL     OW25166  10.346   4.195   3.485  0.2946 -0.3378 -0.5740
 5463SOL    HW125167  10.348   4.101   3.466 -1.8880 -0.4557 -0.4973
 5463SOL    HW225168  10.254   4.219   3.478  0.5554  1.4514  1.1327
 5464SOL     OW25169   6.709  10.224   3.441  0.0007 -0.1677  0.3312
 5464SOL    HW125170   6.769  10.156   3.411  0.6947 -0.3308  1.9704
 5464SOL    HW225171   6.732  10.301   3.389  0.0834 -0.8369 -0.6388
 5465SOL     OW25172   9.570   6.683   9.286 -0.3100 -0.0884  0.3048
 5465SOL    HW125173   9.518   6.694   9.207 -1.2572  2.3806  1.1957
 5465SOL    HW225174   9.641   6.624   9.260 -0.6503  0.5575 -2.3351
 5466SOL     OW25175   8.340   0.065   8.169 -0.5292 -0.0352 -0.5966
 5466SOL    HW125176   8.279   0.001   8.205  0.5001 -1.3537 -1.1171
 5466SOL    HW225177   8.323   0.063   8.074 -0.2231  0.1692 -0.6556
 5467SOL     OW25178  11.787   2.498   3.111  0.3984  1.3387 -0.0417
 5467SOL    HW125179  11.795   2.558   3.036  0.2113  2.9252  1.1516
 5467SOL    HW225180  11.742   2.550   3.178 -0.0663 -0.2710  0.9450
 5468SOL     OW25181  11.615   1.356  11.181  0.6027  0.4896 -0.2762
 5468SOL    HW125182  11.617   1.376  11.275 -2.2246 -0.0730 -0.0259
 5468SOL    HW225183  11.563   1.425  11.143 -0.0298 -0.4136 -1.0969
 5469SOL     OW25184   9.365   2.945   4.082  0.0523  0.0724 -0.4146
 5469SOL    HW125185   9.358   2.849   4.079  1.3961 -0.0687  0.2952
 5469SOL    HW225186   9.383   2.970   3.992  1.9544 -0.5717 -0.2529
 5470SOL     OW25187   8.782   4.116   3.812 -0.0566  0.1715  1.3504
 5470SOL    HW125188   8.752   4.029   3.786  0.7125  0.2337  0.2115
 5470SOL    HW225189   8.737   4.176   3.752  0.3549  0.4559  1.3195
 5471SOL     OW25190   1.768   0.434   2.967 -0.0816  0.2313  0.3130
 5471SOL    HW125191   1.839   0.435   2.903 -1.0195 -1.5827 -0.8211
 5471SOL    HW225192   1.709   0.365   2.937 -1.6990  0.8377  1.9176
 5472SOL     OW25193   3.801   2.043   2.081 -0.1298  0.0665  0.5477
 5472SOL    HW125194   3.723   2.098   2.080  1.4899  2.5268  0.4671
 5472SOL    HW225195   3.781   1.973   2.143 -3.2252 -0.8131 -1.2343
 5473SOL     OW25196   1.002   7.579   6.633  0.6950  0.1526 -0.0858
 5473SOL    HW125197   0.940   7.622   6.691 -0.3969  0.9804 -1.7863
 5473SOL    HW225198   1.080   7.634   6.636  0.4556  0.4829  0.1734
 5474SOL     OW25199   1.260   0.560   2.293 -0.5283  0.2763 -0.2387
 5474SOL    HW125200   1.184   0.523   2.338 -0.6640  0.3809 -0.3825
 5474SOL    HW225201   1.226   0.636   2.246 -0.2142  0.7258  0.2368
 5475SOL     OW25202   9.199   6.699   1.628  0.5786  0.3200  1.1523
 5475SOL    HW125203   9.256   6.714   1.552 -0.3934 -0.8107  0.1660
 5475SOL    HW225204   9.251   6.644   1.686  2.0176  2.6351  2.2071
 5476SOL     OW25205   4.758  11.968  12.497 -0.3986  0.8367  0.6204
 5476SOL    HW125206   4.800  12.051  12.520 -1.2018  1.4509 -0.0643
 5476SOL    HW225207   4.719  11.984  12.411 -1.7351  0.1786  1.0734
 5477SOL     OW25208   1.119   2.435   4.815 -0.3217  0.2691 -0.7678
 5477SOL    HW125209   1.068   2.385   4.878  0.0226  0.5904 -0.2269
 5477SOL    HW225210   1.165   2.369   4.763 -0.4231  0.0102 -0.5299
 5478SOL     OW25211  11.825   9.923   5.742 -0.7538  0.7143  0.4842
 5478SOL    HW125212  11.825  10.016   5.720 -0.5369 -0.1940 -4.4200
 5478SOL    HW225213  11.735   9.894   5.724 -0.2536 -0.3854 -0.4100
 5479SOL     OW25214   0.485   7.472   5.902  0.0769 -0.5872 -1.1130
 5479SOL    HW125215   0.522   7.420   5.974 -2.6834 -1.0044  0.1311
 5479SOL    HW225216   0.549   7.462   5.831  1.7740 -2.1039  0.4983
 5480SOL     OW25217   2.889   9.194   9.339 -0.1422 -0.0065  0.3124
 5480SOL    HW125218   2.809   9.235   9.372  0.1125 -0.4727  1.5553
 5480SOL    HW225219   2.860   9.138   9.267 -0.8743  0.1183  0.5087
 5481SOL     OW25220  12.408   3.242  12.432 -0.3056 -0.0915  0.0796
 5481SOL    HW125221  12.458   3.209  12.357 -0.5445  0.5780 -0.3911
 5481SOL    HW225222  12.462   3.220  12.508  0.7036  0.5692 -0.4112
 5482SOL     OW25223  12.435   5.260   9.185  0.4669  0.6616  0.4880
 5482SOL    HW125224  12.436   5.310   9.103  3.8795 -0.6522 -0.4107
 5482SOL    HW225225  12.392   5.178   9.162 -3.2344  2.1069  1.4573
 5483SOL     OW25226  12.335   8.085   7.600 -0.7254  0.2785  0.7811
 5483SOL    HW125227  12.287   8.040   7.670 -0.5290 -0.7117  0.3021
 5483SOL    HW225228  12.411   8.029   7.584 -1.6749 -0.4936 -1.4167
 5484SOL     OW25229   9.894   4.623   8.974 -0.3675  0.0259 -0.3493
 5484SOL    HW125230   9.911   4.530   8.987  1.8822  0.3499 -0.6620
 5484SOL    HW225231   9.961   4.652   8.913 -3.0882  1.1822 -3.0514
 5485SOL     OW25232   7.939   2.222  11.219  0.6580  0.0781  0.3255
 5485SOL    HW125233   7.931   2.229  11.124 -0.0584 -0.1150  0.3598
 5485SOL    HW225234   7.897   2.139  11.240  2.3276 -0.7172  0.6513
 5486SOL     OW25235   3.560   5.427   0.829  0.4880  0.2865  0.2174
 5486SOL    HW125236   3.559   5.473   0.912  0.7035  0.5122  0.0943
 5486SOL    HW225237   3.472   5.439   0.793  0.0013 -0.8338  0.9714
 5487SOL     OW25238   7.936   4.732   1.421 -0.1190 -0.6128 -0.4842
 5487SOL    HW125239   7.920   4.658   1.480  1.0566 -0.6505 -0.1805
 5487SOL    HW225240   7.936   4.809   1.477 -1.8205 -0.2973 -0.8701
 5488SOL     OW25241  10.823  10.202  11.211 -0.1719 -0.1449 -0.0475
 5488SOL    HW125242  10.912  10.233  11.226  0.5431 -0.2107 -3.3850
 5488SOL    HW225243  10.802  10.149  11.288  2.0976  1.0060  1.4710
 5489SOL     OW25244   7.256   5.852   1.066  0.0026 -0.0902 -0.1804
 5489SOL    HW125245   7.323   5.906   1.023 -0.1624  1.3578  1.2737
 5489SOL    HW225246   7.288   5.842   1.155 -0.9992 -0.6551  0.1230
 5490SOL     OW25247  10.890   4.036   3.694 -0.5039  0.2869 -0.5231
 5490SOL    HW125248  10.981   4.067   3.693 -0.9180  1.7725  1.6495
 5490SOL    HW225249  10.873   4.014   3.786 -2.8354  1.6636 -0.5371
 5491SOL     OW25250  11.050   7.845  12.299  0.3816 -0.7288  0.0291
 5491SOL    HW125251  11.087   7.930  12.275 -0.5611 -1.0991 -3.1685
 5491SOL    HW225252  11.056   7.842  12.394  3.8770  1.3015  0.0353
 5492SOL     OW25253   1.094   7.577   1.034  0.1738  0.2460  0.1639
 5492SOL    HW125254   1.032   7.558   0.964 -1.5217 -0.7199  1.8564
 5492SOL    HW225255   1.123   7.491   1.064  1.5506  0.6714  0.1185
 5493SOL     OW25256   3.653  12.426   4.907  0.0126  0.0044  0.1303
 5493SOL    HW125257   3.649  12.330   4.910 -0.9117  0.0607  2.0713
 5493SOL    HW225258   3.565  12.454   4.932  0.5606  1.3607  0.6098
 5494SOL     OW25259  10.483   5.947  11.077 -0.2072  0.2743  0.8257
 5494SOL    HW125260  10.530   5.992  11.148  0.9626  0.3213  0.0514
 5494SOL    HW225261  10.550   5.893  11.035 -0.2151  2.1388 -1.8284
 5495SOL     OW25262   2.253   6.478   3.669 -0.1730 -0.1459  0.2041
 5495SOL    HW125263   2.295   6.441   3.591  0.6169 -0.6700  0.8632
 5495SOL    HW225264   2.160   6.477   3.649  0.0848  0.8000 -1.1943
 5496SOL     OW25265  11.156   4.943   7.070  0.4573 -0.0923 -0.1541
 5496SOL    HW125266  11.161   4.848   7.060 -1.2030 -0.0588 -1.9220
 5496SOL    HW225267  11.216   4.977   7.003 -0.2686  0.0775 -0.7378
 5497SOL     OW25268   5.793   0.265   6.390 -0.1033 -0.1115 -0.2639
 5497SOL    HW125269   5.759   0.233   6.473 -1.6490 -1.5929 -1.4164
 5497SOL    HW225270   5.870   0.211   6.373  0.3571  0.3555  0.2951
 5498SOL     OW25271   1.752   0.308  10.461  0.2952 -0.0915 -0.2279
 5498SOL    HW125272   1.787   0.292  10.373  0.8839  0.6779 -0.1418
 5498SOL    HW225273   1.722   0.399  10.460 -2.1025 -0.8151 -0.4051
 5499SOL     OW25274   2.517  12.513   0.547  0.3087  0.6709  0.1663
 5499SOL    HW125275   2.553  12.502   0.459  1.4478 -0.2516  0.7154
 5499SOL    HW225276   2.539  12.603   0.572  0.2350  0.8404 -0.3874
 5500SOL     OW25277  10.440   8.019  11.795 -0.2617  0.0269 -0.1434
 5500SOL    HW125278  10.413   8.077  11.866 -0.9244 -1.5523  0.9655
 5500SOL    HW225279  10.359   7.996  11.750 -0.3626 -1.8098  0.8803
 5501SOL     OW25280   7.257   6.562   5.788 -0.0327  0.5663 -0.4202
 5501SOL    HW125281   7.223   6.557   5.877 -0.7558  0.8140 -0.6799
 5501SOL    HW225282   7.345   6.522   5.794  0.3104  1.4286  0.5821
 5502SOL     OW25283   6.934   2.180   0.587  0.2690  0.0816 -0.2280
 5502SOL    HW125284   6.974   2.254   0.540 -0.7742  0.7550 -0.0852
 5502SOL    HW225285   6.904   2.121   0.517  1.4540 -0.4198 -0.3368
 5503SOL     OW25286  12.179   3.539   2.967  0.6872 -0.6737  0.4281
 5503SOL    HW125287  12.196   3.527   3.060  1.9322 -0.9252  0.1897
 5503SOL    HW225288  12.266   3.535   2.926  0.0110 -3.0754 -1.0119
 5504SOL     OW25289   3.491   6.890   4.882 -0.6074  0.6270  0.0151
 5504SOL    HW125290   3.428   6.926   4.819 -1.6754 -0.4587  0.4078
 5504SOL    HW225291   3.527   6.813   4.838 -0.9755  0.1610  0.5106
 5505SOL     OW25292   5.155   3.482  11.870  0.8014 -0.3549  0.5267
 5505SOL    HW125293   5.246   3.513  11.873  0.4188  0.8265  0.5389
 5505SOL    HW225294   5.155   3.403  11.924  1.7109 -0.0887  0.9444
 5506SOL     OW25295   3.649   6.858  11.965 -0.2772 -0.4527 -0.6089
 5506SOL    HW125296   3.647   6.765  11.988 -2.6518 -0.3587 -0.2042
 5506SOL    HW225297   3.618   6.861  11.874 -0.9293 -0.0167 -0.3796
 5507SOL     OW25298  12.441  11.145   9.113 -0.4046  0.5110  0.0924
 5507SOL    HW125299  12.502  11.092   9.165  0.7024  1.2097 -0.4525
 5507SOL    HW225300  12.365  11.088   9.101  0.5067 -0.7518  0.0149
 5508SOL     OW25301   3.211  11.646   7.437 -0.0447  0.6281  0.2280
 5508SOL    HW125302   3.176  11.701   7.367 -1.5472 -0.1729  0.3049
 5508SOL    HW225303   3.202  11.700   7.516  0.9968  1.2610 -0.0579
 5509SOL     OW25304   2.820   9.209   1.514  0.6576  0.3078 -0.0650
 5509SOL    HW125305   2.740   9.254   1.487 -0.1298 -0.5429  0.7643
 5509SOL    HW225306   2.814   9.122   1.473  0.1843 -0.4496  1.5009
 5510SOL     OW25307   9.365   0.169  11.563 -0.1247  0.5582 -0.3353
 5510SOL    HW125308   9.296   0.219  11.606 -0.1687 -0.2874  0.6160
 5510SOL    HW225309   9.434   0.162  11.629 -0.8806 -2.2096  0.3039
 5511SOL     OW25310   9.873   0.158   4.078 -0.2407  0.0025 -0.0628
 5511SOL    HW125311   9.880   0.249   4.051  1.5928 -0.0045  0.3214
 5511SOL    HW225312   9.932   0.150   4.152 -0.0829 -1.5909 -0.3278
 5512SOL     OW25313   1.682  10.218   8.625  0.7408  0.0215  0.0520
 5512SOL    HW125314   1.720  10.227   8.713  0.8200  0.3431 -0.0113
 5512SOL    HW225315   1.712  10.133   8.594  2.4990  0.8086 -0.5180
 5513SOL     OW25316  10.478  11.118   2.647 -0.1531 -0.3206  0.7293
 5513SOL    HW125317  10.463  11.182   2.717 -2.1598 -1.0504  1.0166
 5513SOL    HW225318  10.527  11.048   2.689  0.7874  0.3369  0.7680
 5514SOL     OW25319   6.121   4.584   9.366  0.1586  0.0787  0.3141
 5514SOL    HW125320   6.179   4.657   9.347  0.8004 -0.3448  0.5886
 5514SOL    HW225321   6.163   4.538   9.439 -0.1082 -0.6902  0.0005
 5515SOL     OW25322   7.860   0.588   4.257 -0.3328  0.2810  0.4288
 5515SOL    HW125323   7.849   0.641   4.336 -0.6781 -0.0163  0.5853
 5515SOL    HW225324   7.892   0.649   4.191  1.6622  0.1900  1.2595
 5516SOL     OW25325  10.023   7.753   1.254 -0.2265  0.7847  0.0529
 5516SOL    HW125326  10.062   7.671   1.225  0.3673  0.8199  0.7346
 5516SOL    HW225327   9.943   7.762   1.201 -0.9340 -0.8233  0.7925
 5517SOL     OW25328   6.862   6.630   0.684 -0.3347 -0.0356 -0.5325
 5517SOL    HW125329   6.806   6.628   0.606 -2.3376  0.2784  0.8010
 5517SOL    HW225330   6.807   6.593   0.753  1.9510 -1.8474  0.4187
 5518SOL     OW25331  10.328   9.939   0.876 -0.3276  0.4093  0.3656
 5518SOL    HW125332  10.287  10.026   0.873  0.2291  0.6766  0.4531
 5518SOL    HW225333  10.414   9.951   0.836  0.0948  0.0844  1.1602
 5519SOL     OW25334   0.539   0.935   9.726 -0.5099 -0.3999 -0.6226
 5519SOL    HW125335   0.453   0.896   9.712 -0.4775 -0.4809 -0.5980
 5519SOL    HW225336   0.532   0.980   9.810  0.0674 -2.0944  0.3815
 5520SOL     OW25337   3.245  12.492   4.331  0.3176  0.5523  0.1382
 5520SOL    HW125338   3.323  12.533   4.367 -0.2837  1.1765  0.7634
 5520SOL    HW225339   3.172  12.537   4.374 -0.3838 -1.8720  1.6601
 5521SOL     OW25340   0.379   3.230  12.239 -0.4176  0.3140 -0.2534
 5521SOL    HW125341   0.312   3.288  12.274 -0.1549  0.4887 -0.0327
 5521SOL    HW225342   0.457   3.249  12.291  0.0984  0.8921 -1.2050
 5522SOL     OW25343  11.012  12.502   2.535 -0.6066  0.3867  0.2660
 5522SOL    HW125344  10.969  12.550   2.465 -2.4286  0.3321  1.2971
 5522SOL    HW225345  11.075  12.446   2.490 -0.1089  1.9779 -1.1288
 5523SOL     OW25346   4.589   6.290   7.191  0.1565  0.2057  0.2899
 5523SOL    HW125347   4.678   6.266   7.216 -0.1176  0.0289  1.1328
 5523SOL    HW225348   4.586   6.385   7.203  1.0541  0.6514 -2.4515
 5524SOL     OW25349   9.190   1.843   4.154 -0.2120 -0.0666 -0.1463
 5524SOL    HW125350   9.123   1.786   4.193 -0.0248 -1.8432 -2.2552
 5524SOL    HW225351   9.183   1.924   4.204 -2.2841 -1.0169  1.2901
 5525SOL     OW25352   4.200  11.386  10.592  0.2584  0.1843 -0.1570
 5525SOL    HW125353   4.184  11.378  10.686 -0.5459 -0.4087 -0.3317
 5525SOL    HW225354   4.210  11.480  10.578 -0.1389  0.3279  0.4503
 5526SOL     OW25355   1.725   7.611   5.397 -0.4256  0.0376 -0.0422
 5526SOL    HW125356   1.682   7.615   5.483  1.7065 -2.9329  1.3712
 5526SOL    HW225357   1.771   7.694   5.389  1.0990 -0.4007  2.8347
 5527SOL     OW25358   4.772   2.614   3.199 -0.4848 -0.9495  0.6222
 5527SOL    HW125359   4.756   2.648   3.111 -0.1912 -2.1949  0.0748
 5527SOL    HW225360   4.841   2.671   3.234 -0.0197 -0.9537 -0.2575
 5528SOL     OW25361   9.076   2.346   9.826  0.3402  0.4840  0.1190
 5528SOL    HW125362   9.077   2.439   9.851 -1.1577  0.5976 -0.1876
 5528SOL    HW225363   9.075   2.348   9.730  0.4124  0.1348  0.1127
 5529SOL     OW25364  12.220   1.131   8.173  0.0982 -0.1253 -0.4342
 5529SOL    HW125365  12.184   1.156   8.258  0.6035 -0.2719 -0.1730
 5529SOL    HW225366  12.152   1.077   8.134  0.9252 -2.3997  1.0518
 5530SOL     OW25367   1.792   6.143   9.636 -0.2004 -0.2318 -0.0310
 5530SOL    HW125368   1.887   6.146   9.651 -0.1389 -2.1070  0.2660
 5530SOL    HW225369   1.761   6.077   9.699 -1.3777 -1.1962 -1.5594
 5531SOL     OW25370   1.542   4.120  12.198  0.4048  0.2605  0.0241
 5531SOL    HW125371   1.633   4.091  12.188  1.1102  2.1711  0.3843
 5531SOL    HW225372   1.508   4.069  12.272  1.8632  0.9634  1.2277
 5532SOL     OW25373   1.605   7.682  12.375  0.2907  0.1521  0.0720
 5532SOL    HW125374   1.682   7.679  12.431  0.2248 -2.9666  0.1572
 5532SOL    HW225375   1.637   7.655  12.289  0.0279  3.0661 -1.0609
 5533SOL     OW25376   0.565   9.024  11.192  0.0649  0.3529  0.1433
 5533SOL    HW125377   0.485   9.062  11.155 -0.1904 -1.1721 -0.9635
 5533SOL    HW225378   0.630   9.095  11.184 -0.2719  0.4950 -2.2769
 5534SOL     OW25379  11.714   5.304  12.602  0.1381  0.4012 -0.1683
 5534SOL    HW125380  11.731   5.377  12.662  0.8094  0.3215 -0.2552
 5534SOL    HW225381  11.622   5.315  12.576  0.1752  1.0944 -0.0178
 5535SOL     OW25382   7.832   7.248   1.030 -0.0403 -0.4426  0.4721
 5535SOL    HW125383   7.817   7.343   1.039  1.6095 -0.2359  1.3257
 5535SOL    HW225384   7.879   7.224   1.110 -1.0565 -2.1467  0.5989
 5536SOL     OW25385   0.411   3.840   4.196 -0.0347  0.1766 -0.1511
 5536SOL    HW125386   0.383   3.834   4.287  0.0491 -0.5772 -0.1700
 5536SOL    HW225387   0.460   3.922   4.191 -1.2732  0.9484  0.1363
 5537SOL     OW25388   9.351  11.426   3.284 -0.0802  0.6279  0.4085
 5537SOL    HW125389   9.380  11.448   3.196  0.9100  0.7768  0.7656
 5537SOL    HW225390   9.265  11.386   3.271  1.0199 -1.5236 -0.8651
 5538SOL     OW25391   2.604   5.923   6.849 -0.3312 -0.0834  0.3126
 5538SOL    HW125392   2.590   6.008   6.890  2.0063  0.7849 -0.5290
 5538SOL    HW225393   2.615   5.942   6.756 -1.9774 -1.6065 -0.2639
 5539SOL     OW25394   5.516  10.531   1.289 -0.3638  0.0294  0.3205
 5539SOL    HW125395   5.601  10.569   1.269 -0.5459  0.4843  0.4120
 5539SOL    HW225396   5.535  10.466   1.357 -0.0432 -0.1027  0.1056
 5540SOL     OW25397   2.074   4.946  10.487  0.1457 -0.1477  0.3760
 5540SOL    HW125398   2.074   4.953  10.391  1.7507 -4.0354 -0.0731
 5540SOL    HW225399   2.007   4.882  10.507  0.2986  0.1091  1.8376
 5541SOL     OW25400   2.304   8.340   7.559 -0.0862  0.1107 -0.5296
 5541SOL    HW125401   2.255   8.284   7.498 -0.2691 -1.5692  1.0639
 5541SOL    HW225402   2.256   8.333   7.642  1.1595  0.8637  0.2874
 5542SOL     OW25403   9.211  10.588  11.385  0.1553  0.0881 -0.4314
 5542SOL    HW125404   9.216  10.536  11.305 -0.7611 -0.9263  0.1491
 5542SOL    HW225405   9.289  10.644  11.381  2.0728 -2.3937 -0.3467
 5543SOL     OW25406   1.054   4.261  10.571  0.2522  0.5614  0.2598
 5543SOL    HW125407   1.109   4.293  10.500 -1.1652 -2.0985 -2.1994
 5543SOL    HW225408   1.115   4.220  10.633  1.2485 -0.6601 -1.4679
 5544SOL     OW25409   3.801   8.569   4.634  0.0362  0.1120  0.7625
 5544SOL    HW125410   3.878   8.547   4.582  0.6162  0.0238  1.6389
 5544SOL    HW225411   3.727   8.531   4.586  0.4153  1.0135 -0.5896
 5545SOL     OW25412  11.211   2.254   9.117 -0.1392 -0.5523  0.1588
 5545SOL    HW125413  11.216   2.178   9.175  0.6745 -0.1453  0.6326
 5545SOL    HW225414  11.302   2.273   9.093 -0.3492  0.1493 -0.1210
 5546SOL     OW25415   1.637   2.923   7.354  0.0560 -0.4420  0.2863
 5546SOL    HW125416   1.586   2.847   7.382 -1.0537 -0.1236 -0.7599
 5546SOL    HW225417   1.631   2.921   7.258 -0.5018  1.2840  0.2542
 5547SOL     OW25418   4.212   4.468   7.581  0.1774 -0.2362  0.2803
 5547SOL    HW125419   4.172   4.417   7.510 -1.4047  1.5649 -0.2012
 5547SOL    HW225420   4.158   4.450   7.657 -1.5410  2.0258 -0.3171
 5548SOL     OW25421   5.446   3.516  11.190  0.1058  0.1452  0.2489
 5548SOL    HW125422   5.493   3.583  11.239  0.2968  0.2611 -0.0923
 5548SOL    HW225423   5.435   3.444  11.252  3.6652 -1.2836 -0.5227
 5549SOL     OW25424   5.668   7.486   8.320 -0.0964  0.0172 -0.1405
 5549SOL    HW125425   5.698   7.437   8.243 -2.5856 -1.8376 -0.0597
 5549SOL    HW225426   5.707   7.440   8.394  0.0055  0.0252 -0.1889
 5550SOL     OW25427   1.661   3.756   9.266 -0.1063 -0.2365 -0.1838
 5550SOL    HW125428   1.678   3.848   9.247 -0.9023 -0.0940 -0.2357
 5550SOL    HW225429   1.609   3.726   9.192 -1.0930 -0.3384  0.5349
 5551SOL     OW25430   6.406   9.284   6.807 -0.6153 -0.1904  0.4587
 5551SOL    HW125431   6.428   9.312   6.719 -0.8617 -1.7872 -0.1404
 5551SOL    HW225432   6.310   9.275   6.806 -1.1237  3.1688  1.9729
 5552SOL     OW25433  11.577   8.766   6.230  0.0288 -0.4989 -0.5903
 5552SOL    HW125434  11.584   8.670   6.231 -0.9893 -0.5848 -0.9238
 5552SOL    HW225435  11.635   8.794   6.301  0.2464 -1.3667 -0.4058
 5553SOL     OW25436   8.795   7.510   4.943 -0.3626 -0.3865 -0.2186
 5553SOL    HW125437   8.836   7.560   4.872 -0.2498  0.5788  0.5131
 5553SOL    HW225438   8.751   7.575   4.996  1.1725 -0.8119  1.7071
 5554SOL     OW25439   2.363   5.868   4.461 -0.2606  0.5958  0.2750
 5554SOL    HW125440   2.423   5.809   4.416  0.7400  0.9044  1.1524
 5554SOL    HW225441   2.350   5.828   4.547  1.3162  2.1415  1.3072
 5555SOL     OW25442   7.887   6.202   5.394 -0.4403  0.0106  0.0449
 5555SOL    HW125443   7.869   6.158   5.477 -0.1995  0.0243  0.1053
 5555SOL    HW225444   7.974   6.172   5.369 -0.9014 -0.7440 -0.6950
 5556SOL     OW25445   0.696   9.834   4.581  0.7109 -0.1190  0.0317
 5556SOL    HW125446   0.609   9.874   4.583  0.5292 -0.5315  1.7606
 5556SOL    HW225447   0.692   9.773   4.508  0.2862  1.3893 -1.2752
 5557SOL     OW25448   3.439   1.333   3.401  0.1369  0.2196  0.3317
 5557SOL    HW125449   3.460   1.320   3.309 -1.2403 -0.5123  0.0990
 5557SOL    HW225450   3.508   1.285   3.448  0.2897 -0.2274 -0.3381
 5558SOL     OW25451  12.387  11.520  11.513  0.5535  0.2194 -0.1347
 5558SOL    HW125452  12.447  11.573  11.460  1.1851  0.0409  0.3858
 5558SOL    HW225453  12.444  11.458  11.559 -0.0374  0.0159  0.3377
 5559SOL     OW25454   4.757   7.753   1.089  0.1136  0.0997  0.0514
 5559SOL    HW125455   4.674   7.800   1.084 -0.2887 -0.6774 -0.9208
 5559SOL    HW225456   4.769   7.735   1.182 -0.7788  0.2737  0.2071
 5560SOL     OW25457   0.058   8.069  10.389 -0.6626  0.2175 -0.1061
 5560SOL    HW125458   0.043   8.014  10.467 -2.6451  0.4361 -0.2880
 5560SOL    HW225459   0.111   8.013  10.331  1.8625  0.4577  1.7746
 5561SOL     OW25460   3.066   6.008  11.449 -0.7182 -0.0176  0.6614
 5561SOL    HW125461   3.005   6.016  11.522  0.2978  1.8181  1.3514
 5561SOL    HW225462   3.150   5.988  11.490 -0.2331  0.5398 -0.0455
 5562SOL     OW25463   2.509   0.927  11.150 -1.1277 -0.2963  0.1419
 5562SOL    HW125464   2.458   0.893  11.225  1.4486 -0.2651  2.0412
 5562SOL    HW225465   2.469   1.012  11.131 -0.5563  0.7601  3.0586
 5563SOL     OW25466   7.493   5.341   0.015  0.0568 -0.0385  0.1201
 5563SOL    HW125467   7.573   5.310  -0.027 -0.1973 -0.2410 -0.2179
 5563SOL    HW225468   7.480   5.429  -0.020 -0.8933 -0.7064 -1.2894
 5564SOL     OW25469   2.339  11.273   5.272  0.3559  0.1715  0.5904
 5564SOL    HW125470   2.330  11.325   5.352  1.0584  0.1328  0.7000
 5564SOL    HW225471   2.421  11.304   5.233  1.0724 -1.2122  0.9293
 5565SOL     OW25472   4.465   6.044   4.414 -0.5101  0.4197 -0.3067
 5565SOL    HW125473   4.557   6.019   4.415 -0.5852  0.1531  0.2292
 5565SOL    HW225474   4.465   6.139   4.422 -0.3092  0.3346  0.7876
 5566SOL     OW25475   4.667   0.986   9.058  0.0787  0.0948 -0.2247
 5566SOL    HW125476   4.654   1.031   9.142  1.2043 -1.1360  0.6618
 5566SOL    HW225477   4.579   0.957   9.033 -0.1412 -0.5720  1.1794
 5567SOL     OW25478   2.321   2.831   7.720 -0.0492 -0.1802  0.0062
 5567SOL    HW125479   2.267   2.752   7.719 -1.1515  0.5359 -1.8827
 5567SOL    HW225480   2.377   2.822   7.643  0.3797  0.5306  0.2254
 5568SOL     OW25481   1.680  12.334   5.044  0.7071  0.0495 -0.3965
 5568SOL    HW125482   1.725  12.250   5.047 -0.3581 -0.6154 -1.8863
 5568SOL    HW225483   1.648  12.342   4.954 -0.3471  1.4400  0.0468
 5569SOL     OW25484   8.699   5.605   3.537  0.7184  0.1317  0.2266
 5569SOL    HW125485   8.678   5.635   3.625 -1.8552  1.2019 -0.6487
 5569SOL    HW225486   8.767   5.539   3.549 -0.0803 -0.3057  3.0765
 5570SOL     OW25487  12.560   8.660  12.383 -0.0932 -0.4712 -0.4025
 5570SOL    HW125488  12.590   8.739  12.339  0.6444 -0.4730  0.0713
 5570SOL    HW225489  12.623   8.647  12.454 -0.2105 -1.4735 -0.4633
 5571SOL     OW25490   1.837   6.408   1.888  0.1581 -0.0449 -0.2346
 5571SOL    HW125491   1.911   6.431   1.832 -0.9289 -0.2234 -1.7889
 5571SOL    HW225492   1.792   6.491   1.905  0.2549 -0.0497  0.0651
 5572SOL     OW25493  10.638   3.912   1.464  0.0950  0.0958  0.0776
 5572SOL    HW125494  10.555   3.928   1.420 -0.3828  1.1147  1.3057
 5572SOL    HW225495  10.614   3.890   1.554  1.1657  0.7980  0.5509
 5573SOL     OW25496  11.245   4.180   6.731 -0.2457 -0.4583  0.4031
 5573SOL    HW125497  11.249   4.122   6.807 -0.8181 -0.8474  0.1446
 5573SOL    HW225498  11.266   4.124   6.657 -0.5463 -0.2767  0.1796
 5574SOL     OW25499   9.631  11.897   4.156 -0.5307 -0.1665 -0.7330
 5574SOL    HW125500   9.652  11.827   4.094 -1.4631  0.3288 -1.6347
 5574SOL    HW225501   9.716  11.925   4.190 -0.0779 -1.1103 -1.0411
 5575SOL     OW25502   0.629   1.080  11.135  0.0688 -0.4706 -0.3573
 5575SOL    HW125503   0.723   1.083  11.116  0.1839  1.0520  0.2536
 5575SOL    HW225504   0.618   1.140  11.209 -1.1631 -1.8620  0.6318
 5576SOL     OW25505  11.233   1.297   6.098 -0.6261 -0.4183 -0.2027
 5576SOL    HW125506  11.143   1.326   6.081  0.0966  1.8225 -0.4375
 5576SOL    HW225507  11.277   1.373   6.136  1.6646 -0.8551 -1.7821
 5577SOL     OW25508   0.269   4.215   7.757  0.1127 -0.1648  0.4860
 5577SOL    HW125509   0.174   4.204   7.755 -0.3042  2.6577 -0.7508
 5577SOL    HW225510   0.288   4.245   7.846 -0.3723  0.5914  0.3426
 5578SOL     OW25511   2.616   0.151   3.762  0.2933  0.0979  0.2457
 5578SOL    HW125512   2.625   0.213   3.689 -0.0370  0.7542  0.7488
 5578SOL    HW225513   2.635   0.203   3.840 -0.2608 -0.3669  0.7034
 5579SOL     OW25514   3.077   2.143   3.983 -0.0711 -0.6649 -0.1953
 5579SOL    HW125515   2.987   2.112   3.985 -0.1983 -0.2668  1.5127
 5579SOL    HW225516   3.129   2.070   4.018  0.0075 -0.1597  0.7700
 5580SOL     OW25517  11.336   0.775  11.384 -0.0628  0.1810 -0.3766
 5580SOL    HW125518  11.251   0.753  11.423  0.1594 -0.8735 -0.4691
 5580SOL    HW225519  11.322   0.861  11.343 -0.5652  0.9047  1.2119
 5581SOL     OW25520   2.898   8.036   0.889 -0.1372 -0.3242  0.0771
 5581SOL    HW125521   2.977   8.062   0.937  0.3205 -0.3150 -0.6563
 5581SOL    HW225522   2.916   8.064   0.799 -0.5754 -1.1849 -0.2832
 5582SOL     OW25523   5.531   6.197   9.440  0.3396 -0.4832  0.0268
 5582SOL    HW125524   5.593   6.261   9.474  0.4860 -0.7220  0.2123
 5582SOL    HW225525   5.446   6.227   9.472  0.1066  0.8586 -1.7225
 5583SOL     OW25526  11.539   0.179   7.179 -0.2549  0.0266 -0.0908
 5583SOL    HW125527  11.476   0.197   7.109 -0.1368  0.6424 -0.0405
 5583SOL    HW225528  11.543   0.083   7.183 -0.6804 -0.0149 -0.5492
 5584SOL     OW25529   9.149   7.518  12.084 -0.7763 -0.2820 -0.4302
 5584SOL    HW125530   9.219   7.545  12.143 -1.1666 -0.1252 -0.0325
 5584SOL    HW225531   9.071   7.513  12.139 -1.0081 -0.8040 -0.7950
 5585SOL     OW25532   3.723   8.337   4.002  0.0105  0.1163  0.0337
 5585SOL    HW125533   3.651   8.364   4.059 -0.3679  1.9993 -1.2283
 5585SOL    HW225534   3.798   8.327   4.060 -0.8039  0.1112  1.1019
 5586SOL     OW25535   9.810   7.605   8.637 -0.0823 -0.9587 -0.3509
 5586SOL    HW125536   9.903   7.604   8.657 -0.4304  0.1598  1.5509
 5586SOL    HW225537   9.775   7.526   8.679 -0.2557 -0.4007  0.5985
 5587SOL     OW25538  10.580  12.588  11.724  0.5269 -0.7743  0.3791
 5587SOL    HW125539  10.597  12.668  11.676 -3.0029 -0.8283 -1.2926
 5587SOL    HW225540  10.589  12.613  11.816 -0.5523  1.6096 -0.0846
 5588SOL     OW25541   3.826  11.596   1.983 -0.0749 -0.4419 -0.0665
 5588SOL    HW125542   3.865  11.661   1.925  2.6814 -0.3285  1.7221
 5588SOL    HW225543   3.735  11.590   1.955  0.5579  1.2594 -2.8377
 5589SOL     OW25544  10.105   9.530   3.132  0.2482  0.1403  0.2069
 5589SOL    HW125545  10.119   9.443   3.169 -0.5953 -0.1211 -0.0544
 5589SOL    HW225546  10.112   9.589   3.207 -0.2502 -0.2654  0.5880
 5590SOL     OW25547   1.172   8.138   7.920 -0.0461 -0.2363 -0.2025
 5590SOL    HW125548   1.212   8.070   7.865  0.3505  0.2662 -0.5530
 5590SOL    HW225549   1.101   8.094   7.965 -0.6615 -0.5737 -1.4572
 5591SOL     OW25550  12.421   5.224   3.447 -0.9814 -0.0591 -0.4423
 5591SOL    HW125551  12.459   5.221   3.360 -0.3031 -1.5424 -0.1268
 5591SOL    HW225552  12.489   5.264   3.502 -0.6053 -0.9624 -0.2351
 5592SOL     OW25553   6.396   6.173   0.967  0.2595  0.0753 -0.1714
 5592SOL    HW125554   6.369   6.265   0.959 -0.1262 -0.0675 -0.5346
 5592SOL    HW225555   6.350   6.128   0.896 -0.8274 -0.6882  0.9723
 5593SOL     OW25556   9.098   3.746   4.919 -0.3250  0.0352  0.4121
 5593SOL    HW125557   9.011   3.749   4.880 -0.7573 -1.5378  1.1879
 5593SOL    HW225558   9.154   3.794   4.858 -1.5548  0.2722 -0.5543
 5594SOL     OW25559   8.297   2.571   4.982  0.0908  0.2259 -0.3423
 5594SOL    HW125560   8.380   2.587   4.938  0.4446  0.5801  0.4481
 5594SOL    HW225561   8.233   2.565   4.911  1.0456 -1.8875 -1.1289
 5595SOL     OW25562  11.433   3.374  10.712 -0.1539  0.4444 -0.0116
 5595SOL    HW125563  11.369   3.372  10.641 -2.7032  0.9617  2.1170
 5595SOL    HW225564  11.394   3.430  10.778  0.6256 -2.3035  3.0655
 5596SOL     OW25565  10.296   0.739   6.545  0.8938 -0.7933  0.8686
 5596SOL    HW125566  10.292   0.818   6.598  0.9561 -1.7094  2.2828
 5596SOL    HW225567  10.351   0.762   6.470  1.6910  0.2197  1.7525
 5597SOL     OW25568  11.101   6.210   9.677  0.5203 -0.1628  0.2716
 5597SOL    HW125569  11.106   6.141   9.611  1.4766  0.5739 -0.4495
 5597SOL    HW225570  11.188   6.210   9.718  1.3227  2.0768 -1.2819
 5598SOL     OW25571   6.165  10.049   6.142  0.4261 -0.1718 -0.1120
 5598SOL    HW125572   6.127  10.119   6.194 -0.2346  0.5232 -1.4719
 5598SOL    HW225573   6.127   9.969   6.178 -1.7551  0.4482 -0.8959
 5599SOL     OW25574   8.690   1.890  12.078  0.0022 -0.0836 -0.5641
 5599SOL    HW125575   8.642   1.863  12.000  1.5264  0.8269 -1.8776
 5599SOL    HW225576   8.771   1.929  12.044  1.7151 -1.5570  1.5357
 5600SOL     OW25577   1.229   5.069  12.371  0.2372 -0.5209 -0.3835
 5600SOL    HW125578   1.218   5.070  12.466 -0.0134 -0.3061 -0.4133
 5600SOL    HW225579   1.157   5.014  12.339  1.8496 -2.8463 -0.2642
 5601SOL     OW25580   5.237   0.585  10.299  0.5104 -0.4976  0.8753
 5601SOL    HW125581   5.179   0.612  10.370  1.7950 -1.7647  2.4719
 5601SOL    HW225582   5.325   0.600  10.333  1.1571 -1.4519 -0.3163
 5602SOL     OW25583   3.145   9.211   6.954  0.6543 -0.1815  0.1540
 5602SOL    HW125584   3.109   9.167   7.031 -1.1209  0.0862 -0.4654
 5602SOL    HW225585   3.240   9.203   6.963  0.5500 -4.7845 -0.2645
 5603SOL     OW25586   6.269   0.776   6.249 -0.3369  0.2467 -0.5006
 5603SOL    HW125587   6.330   0.848   6.234 -0.4030  0.3862 -0.1161
 5603SOL    HW225588   6.214   0.775   6.171  0.6188 -0.3566 -1.1990
 5604SOL     OW25589   4.865  10.833   0.306 -0.5906  0.1650  0.0100
 5604SOL    HW125590   4.949  10.815   0.263 -0.0421  0.5004  0.9112
 5604SOL    HW225591   4.803  10.841   0.234  0.1779  0.0642 -0.6859
 5605SOL     OW25592  11.650  12.324   0.149  0.2732 -0.2975 -0.3000
 5605SOL    HW125593  11.683  12.413   0.133 -3.1218  1.5088  1.5846
 5605SOL    HW225594  11.572  12.318   0.093  0.4586 -2.1608 -0.4053
 5606SOL     OW25595   9.032  12.475   9.679 -0.2631 -0.1271  0.1688
 5606SOL    HW125596   9.012  12.383   9.663 -2.0795  0.0593  1.0942
 5606SOL    HW225597   9.067  12.477   9.768  0.8177 -0.0268 -0.2404
 5607SOL     OW25598   0.844   8.751   9.911  0.3721 -0.0226  0.8233
 5607SOL    HW125599   0.782   8.818   9.940 -0.0569 -0.2238  0.3906
 5607SOL    HW225600   0.930   8.787   9.931  0.1688  0.9116  0.0630
 5608SOL     OW25601   8.643   6.245  10.864 -0.5504  0.3013  0.3412
 5608SOL    HW125602   8.636   6.331  10.824  2.0703 -0.7506 -2.8460
 5608SOL    HW225603   8.737   6.230  10.873 -0.9022 -2.2055  0.7706
 5609SOL     OW25604   5.924   8.499   0.364  0.3253  0.1712 -0.0856
 5609SOL    HW125605   5.948   8.590   0.377 -2.1570  0.6648  1.9362
 5609SOL    HW225606   5.863   8.500   0.290  0.4193  0.1329 -0.1633
 5610SOL     OW25607   4.019   1.421   4.731  0.1407 -0.2905  0.1578
 5610SOL    HW125608   3.972   1.339   4.745 -0.1913 -0.0803  0.2834
 5610SOL    HW225609   4.041   1.421   4.638 -1.2821  0.2204 -0.1974
 5611SOL     OW25610   6.421  11.692   8.844 -0.3466 -0.0564  0.3933
 5611SOL    HW125611   6.459  11.643   8.771 -0.3293 -0.5918  0.7600
 5611SOL    HW225612   6.352  11.745   8.803  0.3086  0.3863 -0.1606
 5612SOL     OW25613   4.844  10.638  12.295  0.5989  0.7127  0.0217
 5612SOL    HW125614   4.906  10.597  12.236  2.4807  1.5393  1.3255
 5612SOL    HW225615   4.894  10.653  12.376 -1.5190  0.7032  1.4159
 5613SOL     OW25616   7.902   8.558   2.915 -0.3601 -0.3988 -0.3260
 5613SOL    HW125617   7.907   8.499   2.991  0.8405  1.0031  0.7415
 5613SOL    HW225618   7.986   8.548   2.871  0.3970  1.4008  0.6076
 5614SOL     OW25619   7.372   0.393   7.041  0.1256  0.9343  0.1338
 5614SOL    HW125620   7.366   0.433   6.954 -1.9993  2.4463  0.9260
 5614SOL    HW225621   7.382   0.466   7.101  0.7235 -0.0483  1.2748
 5615SOL     OW25622  12.474   6.783   7.461  0.3611 -0.3788 -0.2541
 5615SOL    HW125623  12.412   6.764   7.531 -0.6963  0.5817 -0.8907
 5615SOL    HW225624  12.435   6.858   7.415  2.7253  1.2946  0.2659
 5616SOL     OW25625   4.963   3.158   3.385  0.0800  0.8853  0.5721
 5616SOL    HW125626   5.048   3.144   3.426  0.1827  0.5561  0.2544
 5616SOL    HW225627   4.957   3.252   3.372  0.6310  0.8611  0.1068
 5617SOL     OW25628   1.161   8.796   2.248  0.7996 -0.2732 -0.2088
 5617SOL    HW125629   1.159   8.732   2.177 -2.3215 -0.0201 -0.4902
 5617SOL    HW225630   1.226   8.762   2.310 -0.7731 -3.8578 -0.2758
 5618SOL     OW25631   6.990   8.514  11.419 -0.3229 -0.4674  0.2876
 5618SOL    HW125632   7.039   8.491  11.340  0.0133  0.0130  0.3538
 5618SOL    HW225633   6.915   8.564  11.386  0.4261  0.7224  0.3519
 5619SOL     OW25634   4.086  10.609   3.604  0.7705 -0.1274  0.2564
 5619SOL    HW125635   4.180  10.622   3.619  0.7083 -1.2078  1.8738
 5619SOL    HW225636   4.044  10.674   3.660  0.5409 -0.2830  0.2635
 5620SOL     OW25637   2.953   8.126   8.879 -0.0817 -0.5266 -0.0733
 5620SOL    HW125638   2.955   8.093   8.789  0.9391 -0.9370  0.0818
 5620SOL    HW225639   2.870   8.094   8.914 -0.1933 -0.9201 -0.6730
 5621SOL     OW25640   9.178   7.439   6.743 -0.0091 -0.4154  0.9331
 5621SOL    HW125641   9.103   7.471   6.692 -1.1111 -1.1912  2.0309
 5621SOL    HW225642   9.159   7.347   6.758  2.1437 -1.1620 -0.4289
 5622SOL     OW25643  10.523   0.189  12.598 -0.0950 -0.0608 -0.2299
 5622SOL    HW125644  10.489   0.166  12.511  0.2275  1.6440 -0.8475
 5622SOL    HW225645  10.450   0.171  12.657 -0.5314 -0.6793 -0.9304
 5623SOL     OW25646   9.797  12.089   5.235 -0.7776 -0.0249  0.2661
 5623SOL    HW125647   9.758  12.176   5.240 -2.9746 -0.9737  0.4995
 5623SOL    HW225648   9.881  12.098   5.280 -0.4644  2.1937 -0.6380
 5624SOL     OW25649   4.389   5.693   2.891 -0.2172 -0.4796 -0.1937
 5624SOL    HW125650   4.313   5.641   2.918 -0.4252 -0.1487 -0.1367
 5624SOL    HW225651   4.392   5.683   2.796 -0.1872 -0.6886 -0.1722
 5625SOL     OW25652   7.139  10.809   7.958  0.0319 -0.5468  0.3833
 5625SOL    HW125653   7.074  10.879   7.961 -0.4259 -0.8762 -0.9992
 5625SOL    HW225654   7.106  10.742   8.018  1.0975  0.8580  2.7159
 5626SOL     OW25655   1.481   4.829  11.539 -0.6492  0.6396  0.1799
 5626SOL    HW125656   1.573   4.820  11.513 -0.9254 -0.8895 -0.3624
 5626SOL    HW225657   1.455   4.914  11.504  0.4225  0.8916 -0.0643
 5627SOL     OW25658   9.831   5.760   7.111 -0.4222 -0.8642 -0.0675
 5627SOL    HW125659   9.826   5.822   7.184  0.8366 -0.7045 -0.0937
 5627SOL    HW225660   9.790   5.680   7.144 -1.8861 -0.1059  0.0371
 5628SOL     OW25661  11.760   7.978   7.345  0.4504 -0.2629 -0.3898
 5628SOL    HW125662  11.813   7.905   7.312  0.6621 -0.8949  1.2841
 5628SOL    HW225663  11.790   8.054   7.295  1.9585 -0.8676 -0.4314
 5629SOL     OW25664   9.581   2.984   5.782 -0.3896  0.5396 -0.1315
 5629SOL    HW125665   9.570   2.953   5.872  0.6865 -0.0617 -0.1887
 5629SOL    HW225666   9.542   2.916   5.728  1.9258 -0.8018 -0.2543
 5630SOL     OW25667   5.765   6.480   5.787 -0.2355 -0.5032  0.2270
 5630SOL    HW125668   5.746   6.405   5.731 -1.2268  0.1504 -0.3521
 5630SOL    HW225669   5.847   6.457   5.831  1.6162 -0.3672 -2.7841
 5631SOL     OW25670   6.388   7.259   5.130  0.1593  0.3080  0.0819
 5631SOL    HW125671   6.332   7.279   5.205 -0.2830  1.8432 -0.6087
 5631SOL    HW225672   6.366   7.327   5.065  1.6477 -0.0312 -0.8306
 5632SOL     OW25673   5.696  10.528   8.609  0.1098  0.2346  0.2481
 5632SOL    HW125674   5.687  10.592   8.679  0.1335 -0.9972  1.4025
 5632SOL    HW225675   5.606  10.506   8.585  0.0671 -0.5891  1.0890
 5633SOL     OW25676   2.564  11.543   9.455  0.4514  0.4678  0.1774
 5633SOL    HW125677   2.512  11.603   9.509  0.0110  0.8208 -0.6239
 5633SOL    HW225678   2.634  11.597   9.419  0.2298  0.4322 -0.3088
 5634SOL     OW25679   8.641   9.996   1.445 -0.2705 -0.0316 -0.7308
 5634SOL    HW125680   8.715   9.939   1.470  1.3971  2.0838 -0.5238
 5634SOL    HW225681   8.567   9.963   1.496  0.8518 -1.4497  0.0474
 5635SOL     OW25682  12.180   3.306  11.312  0.2055 -1.1287 -0.5159
 5635SOL    HW125683  12.213   3.217  11.311  0.7543 -1.0997  2.6311
 5635SOL    HW225684  12.085   3.297  11.317  0.2009 -1.4966 -1.2549
 5636SOL     OW25685  12.529   0.913  10.986 -0.2699 -0.2165  0.3544
 5636SOL    HW125686  12.475   0.911  10.907  0.4387 -0.3780 -0.1290
 5636SOL    HW225687  12.611   0.872  10.961  1.3615  2.8557  0.1014
 5637SOL     OW25688  12.351   2.943   3.520 -0.5206  0.0926  0.6344
 5637SOL    HW125689  12.426   2.977   3.472 -0.9563  0.4268  0.1757
 5637SOL    HW225690  12.377   2.855   3.547 -0.2884 -0.1181 -0.2534
 5638SOL     OW25691   5.279  11.765   2.454  0.3826 -0.1431 -0.5901
 5638SOL    HW125692   5.356  11.707   2.450  0.4006 -0.4242  2.0800
 5638SOL    HW225693   5.258  11.770   2.547 -1.6181  1.5874 -1.0694
 5639SOL     OW25694   9.145   4.928   8.535 -0.6539 -0.2397  0.0720
 5639SOL    HW125695   9.208   4.975   8.590 -1.9670  1.0154  0.5790
 5639SOL    HW225696   9.178   4.839   8.531  2.0232  0.6928 -1.0180
 5640SOL     OW25697   1.648   4.054   1.832 -0.0232 -0.2632  0.1527
 5640SOL    HW125698   1.682   4.051   1.743 -2.3680 -2.4990 -0.7922
 5640SOL    HW225699   1.646   4.147   1.854  1.7266  0.2646 -1.6178
 5641SOL     OW25700   5.565   5.179   1.958  0.8166 -0.1138 -0.8471
 5641SOL    HW125701   5.655   5.151   1.940  1.3270 -0.0794  1.3507
 5641SOL    HW225702   5.536   5.121   2.028 -0.5918  0.4106 -0.9782
 5642SOL     OW25703   5.591   8.637   9.027  0.4241  0.0766 -0.1279
 5642SOL    HW125704   5.612   8.730   9.022 -1.1699  0.4424 -0.5142
 5642SOL    HW225705   5.524   8.631   9.095 -2.0133 -0.2654 -2.4191
 5643SOL     OW25706   1.005   1.567   7.894  0.3962  0.1679  0.4152
 5643SOL    HW125707   1.071   1.635   7.875  0.6098 -0.1575 -0.0397
 5643SOL    HW225708   1.048   1.509   7.956  0.3713  0.2075  0.4696
 5644SOL     OW25709   5.267  10.494  11.942  0.4619 -0.1349 -1.2902
 5644SOL    HW125710   5.266  10.580  11.899 -0.9228  0.6830  0.2616
 5644SOL    HW225711   5.357  10.464  11.933  1.3651  2.1704 -0.5805
 5645SOL     OW25712  11.853   5.821  10.415  0.1278  0.8551  0.0828
 5645SOL    HW125713  11.818   5.901  10.374  1.3337  1.5045  0.2689
 5645SOL    HW225714  11.827   5.828  10.507 -0.4869  0.6135 -0.0710
 5646SOL     OW25715  12.534   0.241   1.275  0.7441  0.5356  0.1920
 5646SOL    HW125716  12.611   0.191   1.304  0.7450 -0.9056 -2.0330
 5646SOL    HW225717  12.461   0.205   1.325 -0.0256 -4.9269 -3.9071
 5647SOL     OW25718   3.376   3.286   0.884 -0.2265 -0.0191 -0.1697
 5647SOL    HW125719   3.321   3.222   0.930  0.8239 -0.9051 -0.1144
 5647SOL    HW225720   3.460   3.282   0.929  0.4249  0.0397 -1.3506
 5648SOL     OW25721  12.501  11.142   5.698 -0.5121  0.5821  0.1631
 5648SOL    HW125722  12.500  11.153   5.793  2.8943  1.0798  0.2650
 5648SOL    HW225723  12.593  11.127   5.677 -0.9304  2.0025 -3.2338
 5649SOL     OW25724  10.362   0.112   0.438  0.4365 -0.3017  0.0845
 5649SOL    HW125725  10.283   0.167   0.442 -0.1315 -1.1350  0.7838
 5649SOL    HW225726  10.363   0.067   0.522  0.8485 -1.4123 -0.5040
 5650SOL     OW25727   7.235   5.365  10.747  0.1917 -0.6752 -0.4454
 5650SOL    HW125728   7.312   5.325  10.787 -0.1444 -0.8122  0.0724
 5650SOL    HW225729   7.241   5.458  10.769  1.7986 -0.0876 -2.9518
 5651SOL     OW25730  10.237   3.182   1.242  0.1453  0.3402 -0.6866
 5651SOL    HW125731  10.283   3.266   1.238  0.7288 -0.0190 -2.6440
 5651SOL    HW225732  10.145   3.204   1.234  0.2228  0.8472 -0.2206
 5652SOL     OW25733   1.257   4.479   0.107  0.3069  0.3487  0.1815
 5652SOL    HW125734   1.180   4.505   0.157  1.2226  0.8416  1.3706
 5652SOL    HW225735   1.236   4.502   0.016 -1.6973 -1.2691  0.1620
 5653SOL     OW25736   0.045   6.540   5.907  0.2687 -0.1719  0.2918
 5653SOL    HW125737   0.103   6.607   5.870  1.9933 -2.4766 -1.4334
 5653SOL    HW225738  -0.025   6.531   5.843  1.9090 -2.3692 -1.3362
 5654SOL     OW25739   3.015   6.389   4.000 -0.2096  0.0809 -0.1280
 5654SOL    HW125740   2.953   6.377   3.928 -0.1340 -0.5130 -0.1036
 5654SOL    HW225741   3.093   6.425   3.958  0.3343 -1.5637 -0.5911
 5655SOL     OW25742   2.532   6.435   6.935 -0.3310 -0.2334 -0.0498
 5655SOL    HW125743   2.540   6.475   7.022 -0.2206 -0.9319  0.2683
 5655SOL    HW225744   2.622   6.436   6.901 -0.3817  0.0846 -0.1854
 5656SOL     OW25745   8.072   0.905  10.986  0.1358 -0.2991  0.4107
 5656SOL    HW125746   8.078   0.841  10.915 -3.6439 -0.0368 -0.3232
 5656SOL    HW225747   8.092   0.989  10.945  0.7853 -0.4773  0.3561
 5657SOL     OW25748   0.904  10.134  11.541  0.4433 -0.2438  0.6037
 5657SOL    HW125749   0.983  10.115  11.592  0.7143  1.2529  0.7930
 5657SOL    HW225750   0.844  10.062  11.561  0.8311 -0.1102  2.3988
 5658SOL     OW25751   7.085   3.805   7.319  0.4236 -0.2457 -0.0141
 5658SOL    HW125752   7.081   3.738   7.250  2.4497  0.8249 -1.2548
 5658SOL    HW225753   7.119   3.883   7.275  0.8106  0.7800  2.0049
 5659SOL     OW25754   5.736   6.819  12.489  0.1462  0.0216 -0.2636
 5659SOL    HW125755   5.708   6.910  12.494  0.5327  0.0664  1.7330
 5659SOL    HW225756   5.663   6.774  12.445 -1.0506  0.9189  0.7384
 5660SOL     OW25757   0.601   2.827   9.442  0.5930 -0.1140 -0.3095
 5660SOL    HW125758   0.650   2.753   9.405  2.4687  0.6874  0.4506
 5660SOL    HW225759   0.641   2.904   9.401  0.1809  0.5804  0.5758
 5661SOL     OW25760   3.622   2.738   2.532  0.0267 -0.1330 -0.0109
 5661SOL    HW125761   3.563   2.747   2.607  0.6450  0.5750  0.4100
 5661SOL    HW225762   3.702   2.700   2.568 -0.5636 -2.2374 -0.7965
 5662SOL     OW25763   1.373  10.112   8.840  0.2406  0.1390  0.4176
 5662SOL    HW125764   1.373  10.018   8.857 -1.3079  0.0159 -0.1354
 5662SOL    HW225765   1.347  10.152   8.923 -0.8711 -0.0551  0.1819
 5663SOL     OW25766  10.235   9.842   8.420  0.8462 -0.1522  0.2553
 5663SOL    HW125767  10.263   9.776   8.483  0.0732 -0.5173  0.2321
 5663SOL    HW225768  10.164   9.889   8.465 -0.7101 -1.3435 -0.8265
 5664SOL     OW25769   5.328   4.821   5.115  0.5810  0.1136  0.3244
 5664SOL    HW125770   5.410   4.831   5.067  0.0245 -1.4595 -1.0448
 5664SOL    HW225771   5.336   4.736   5.159 -0.6066 -0.4366 -0.4761
 5665SOL     OW25772   9.569   9.140   6.729  0.3283  0.1651  0.1602
 5665SOL    HW125773   9.553   9.082   6.804 -1.0671 -1.1948 -1.1318
 5665SOL    HW225774   9.649   9.107   6.690  0.0257 -0.3281 -0.0472
 5666SOL     OW25775   1.260   6.877   8.414  0.4832 -0.1197 -0.2703
 5666SOL    HW125776   1.285   6.799   8.464 -1.4688 -1.3178 -1.0591
 5666SOL    HW225777   1.281   6.856   8.323 -0.5264  0.0475 -0.5566
 5667SOL     OW25778   1.231   2.447   7.467  0.2492  0.6513  0.7578
 5667SOL    HW125779   1.297   2.427   7.401 -0.4425  0.7638  0.0083
 5667SOL    HW225780   1.267   2.413   7.549  0.3464 -1.1191  0.0130
 5668SOL     OW25781   6.636  12.356   8.489  0.2579 -0.2783 -0.2681
 5668SOL    HW125782   6.582  12.434   8.478 -0.1566  0.1356  3.4089
 5668SOL    HW225783   6.580  12.284   8.460  0.0320  0.5965 -2.1456
 5669SOL     OW25784   0.010   8.738  10.175 -0.4945 -0.0129  0.3260
 5669SOL    HW125785   0.011   8.745  10.080 -1.6161 -0.0203  0.3044
 5669SOL    HW225786   0.082   8.678  10.196 -0.2833 -0.0608 -0.5178
 5670SOL     OW25787   3.965   9.313   1.210  0.7711  0.0976  0.6283
 5670SOL    HW125788   3.891   9.271   1.255 -0.4621  1.7591  0.2781
 5670SOL    HW225789   3.985   9.390   1.264  0.5574  1.0479 -0.6062
 5671SOL     OW25790   7.108   3.951   7.695  0.0220 -0.1711  0.0395
 5671SOL    HW125791   7.124   3.857   7.689 -0.8130 -0.3909  1.0227
 5671SOL    HW225792   7.189   3.991   7.664  1.3671 -1.2303  1.9511
 5672SOL     OW25793   8.380   0.392   4.621 -0.4661  0.1678  0.1404
 5672SOL    HW125794   8.407   0.471   4.668  1.1939 -1.5546  2.2889
 5672SOL    HW225795   8.316   0.423   4.557 -0.6766  3.0796  1.5992
 5673SOL     OW25796   5.042   9.999   9.978 -0.4913  0.6887  0.7165
 5673SOL    HW125797   5.084  10.065   9.923  0.3147 -1.2419 -1.1296
 5673SOL    HW225798   4.948  10.017   9.970 -0.2736  1.8079  0.5366
 5674SOL     OW25799   3.133   7.479   8.977 -0.6488  0.5736  0.1784
 5674SOL    HW125800   3.088   7.430   9.046  1.8001  0.8875  2.1663
 5674SOL    HW225801   3.212   7.428   8.958 -1.1274  0.6475 -2.2574
 5675SOL     OW25802  11.861   3.337   2.542  0.4522 -0.9374 -0.3090
 5675SOL    HW125803  11.911   3.404   2.589  0.9675 -2.2317  1.0944
 5675SOL    HW225804  11.926   3.292   2.489  0.5588 -1.7255  0.4577
 5676SOL     OW25805   8.077  10.660  11.283  0.2280  0.2645  0.6712
 5676SOL    HW125806   8.158  10.708  11.266  0.6751  0.9377  4.0054
 5676SOL    HW225807   8.017  10.726  11.318 -1.3189 -0.5296 -0.3408
 5677SOL     OW25808   2.800  11.260   3.082 -0.0507  0.1334 -0.6577
 5677SOL    HW125809   2.884  11.235   3.043 -0.1962 -1.7608  0.0915
 5677SOL    HW225810   2.810  11.239   3.175 -0.4388  2.5286 -0.0168
 5678SOL     OW25811   4.208  10.512   8.741 -0.3132 -0.0088 -0.4117
 5678SOL    HW125812   4.267  10.574   8.784  0.5453 -0.7052 -0.5492
 5678SOL    HW225813   4.267  10.451   8.696 -1.1418 -0.8480 -0.3797
 5679SOL     OW25814   9.070   7.790   4.036  0.1129  0.3053  0.0291
 5679SOL    HW125815   8.975   7.784   4.045 -0.1308  2.7013 -0.4241
 5679SOL    HW225816   9.100   7.826   4.119  0.8403 -1.7194  0.7029
 5680SOL     OW25817  10.284   2.265   0.738  0.1382 -0.4188 -0.3934
 5680SOL    HW125818  10.257   2.200   0.803 -1.9798  0.6637 -0.1076
 5680SOL    HW225819  10.368   2.297   0.771 -0.6118 -0.3137  1.5272
 5681SOL     OW25820   6.303   7.867   3.523 -0.9042  0.2661 -0.3688
 5681SOL    HW125821   6.267   7.955   3.525 -0.3125  0.5957 -1.9976
 5681SOL    HW225822   6.389   7.878   3.482  0.3780 -0.7112  1.9035
 5682SOL     OW25823  10.005   1.583   9.000  0.1156  0.4147 -0.5761
 5682SOL    HW125824  10.078   1.587   8.938  0.1393  1.3248 -0.5087
 5682SOL    HW225825   9.929   1.612   8.949  0.2322  1.6920 -0.0709
 5683SOL     OW25826   8.510   0.520  12.109 -0.0383  0.2625 -0.0810
 5683SOL    HW125827   8.604   0.505  12.096 -0.1630 -0.2170 -0.4451
 5683SOL    HW225828   8.468   0.458  12.050 -0.5833  0.7002 -0.1534
 5684SOL     OW25829   2.195   2.522   7.077 -0.5232  0.5782  0.1395
 5684SOL    HW125830   2.208   2.578   7.000 -2.3316 -0.7729 -1.2437
 5684SOL    HW225831   2.173   2.583   7.147 -0.3871  1.7541 -0.8057
 5685SOL     OW25832   7.390   8.152   1.923 -0.3485  0.3977 -0.4600
 5685SOL    HW125833   7.416   8.145   1.831  0.3417  1.8947 -0.4158
 5685SOL    HW225834   7.410   8.066   1.961  0.9497  0.2897 -1.3347
 5686SOL     OW25835  11.499   7.604   3.359 -0.3058  0.0645 -0.5651
 5686SOL    HW125836  11.500   7.699   3.364  0.6759  0.1433 -1.7366
 5686SOL    HW225837  11.591   7.580   3.351 -0.4348 -1.0816  1.0467
 5687SOL     OW25838   9.426   2.020  10.539  0.5637 -0.4367  0.1841
 5687SOL    HW125839   9.464   2.104  10.513 -1.6757  0.3794 -0.7275
 5687SOL    HW225840   9.416   2.027  10.634 -0.2474  0.6760  0.0508
 5688SOL     OW25841   2.793   7.962   2.658  0.1714  0.2849 -0.2703
 5688SOL    HW125842   2.817   7.974   2.566 -0.1035 -0.8006 -0.4973
 5688SOL    HW225843   2.865   7.911   2.695 -0.7280 -1.1907 -0.4472
 5689SOL     OW25844   5.873   4.906   3.031  0.1664 -0.4232  0.1430
 5689SOL    HW125845   5.937   4.895   3.102  0.9590 -0.4844 -0.5700
 5689SOL    HW225846   5.917   4.962   2.968  0.6509 -2.7368 -1.6974
 5690SOL     OW25847  11.793   2.292  10.130 -0.2060  0.7870  0.0975
 5690SOL    HW125848  11.831   2.205  10.144  0.6379  1.3194  1.2541
 5690SOL    HW225849  11.771   2.323  10.218 -1.3227  1.3919 -0.3771
 5691SOL     OW25850   3.699   8.977  12.379  0.0152  0.5993  0.1260
 5691SOL    HW125851   3.622   8.924  12.400  0.6105 -0.4249 -0.1782
 5691SOL    HW225852   3.773   8.924  12.407  0.6555  1.0395 -0.6785
 5692SOL     OW25853   3.527   2.648   7.857  0.4009 -0.2239 -0.8116
 5692SOL    HW125854   3.608   2.699   7.853  0.6252 -0.5104 -0.1781
 5692SOL    HW225855   3.499   2.654   7.949  0.1907 -0.8642 -0.8224
 5693SOL     OW25856   8.507   2.701   6.092 -0.5684 -0.4876 -0.2652
 5693SOL    HW125857   8.538   2.699   6.183 -0.3940  0.8874 -0.2755
 5693SOL    HW225858   8.412   2.697   6.099 -0.6928  1.7403  0.1376
 5694SOL     OW25859   3.117   2.402   4.135  0.0140 -0.6301  0.2863
 5694SOL    HW125860   3.089   2.323   4.087  0.4476 -0.3363 -0.4624
 5694SOL    HW225861   3.035   2.444   4.160 -0.2235 -0.7362 -0.2900
 5695SOL     OW25862  12.493   3.724   8.860  0.5775  0.4493  0.2175
 5695SOL    HW125863  12.571   3.726   8.914  0.3707 -1.6683  0.6839
 5695SOL    HW225864  12.424   3.760   8.916  0.8170  0.4408  0.5207
 5696SOL     OW25865   0.670   3.126   6.839  0.9361 -0.0692 -0.1746
 5696SOL    HW125866   0.579   3.115   6.810  1.4205  2.5113 -3.2354
 5696SOL    HW225867   0.711   3.041   6.821 -0.5650 -0.8909  0.1148
 5697SOL     OW25868   8.751   5.861   5.248 -0.4853  0.6259  0.1061
 5697SOL    HW125869   8.667   5.829   5.280 -0.5371  0.7022  0.0476
 5697SOL    HW225870   8.816   5.809   5.294 -0.5496  0.9402  0.5602
 5698SOL     OW25871   4.282   2.325   2.680  0.2034 -0.0624  0.4427
 5698SOL    HW125872   4.216   2.262   2.707  0.5835 -0.5927  0.1639
 5698SOL    HW225873   4.309   2.295   2.593  0.6523  0.2680  0.4657
 5699SOL     OW25874   4.317   5.475   3.339 -0.3922 -0.0695  0.3508
 5699SOL    HW125875   4.383   5.541   3.360 -0.9688  0.6526 -0.0679
 5699SOL    HW225876   4.367   5.398   3.314  0.2892  0.2370  0.7498
 5700SOL     OW25877   8.333   7.190   5.542  0.0118 -0.1547 -0.3742
 5700SOL    HW125878   8.256   7.191   5.598 -0.3945 -1.5630 -0.8745
 5700SOL    HW225879   8.374   7.276   5.556 -0.9910  0.1605  0.7788
 5701SOL     OW25880   5.920   0.297   7.419  0.8012  0.1685  0.5059
 5701SOL    HW125881   5.856   0.365   7.402 -0.4783 -1.0855  0.1571
 5701SOL    HW225882   5.927   0.249   7.336  1.0257 -0.6602  0.9915
 5702SOL     OW25883   3.385   3.117   5.178  0.2342  0.2372  0.4558
 5702SOL    HW125884   3.468   3.104   5.132  0.0623  0.1336  0.1691
 5702SOL    HW225885   3.318   3.103   5.111 -0.0036  0.8101  0.5678
 5703SOL     OW25886   0.664   5.465   5.547  0.5110 -0.2044  0.7419
 5703SOL    HW125887   0.599   5.496   5.610  0.0022 -0.7027  0.4707
 5703SOL    HW225888   0.693   5.380   5.582 -0.6550 -1.0626 -0.2897
 5704SOL     OW25889   2.454   3.267   0.274 -0.7098  0.0838 -0.1494
 5704SOL    HW125890   2.395   3.246   0.203 -1.6070  2.6150 -0.2473
 5704SOL    HW225891   2.420   3.220   0.349 -2.5811  1.0444 -0.3454
 5705SOL     OW25892  11.515   5.670   8.067 -0.5657 -0.4632 -0.5969
 5705SOL    HW125893  11.447   5.733   8.042 -0.0718  0.0779 -0.5937
 5705SOL    HW225894  11.540   5.695   8.156 -1.0700 -1.2892 -0.2085
 5706SOL     OW25895  10.567  12.212   4.482  0.1308  0.3270 -0.4090
 5706SOL    HW125896  10.509  12.273   4.436 -0.0285 -1.8032 -3.2891
 5706SOL    HW225897  10.519  12.129   4.480  2.3306 -0.9918 -0.9532
 5707SOL     OW25898   5.399   5.105   0.697 -0.0329  0.0481 -0.9936
 5707SOL    HW125899   5.438   5.190   0.678  0.6176  0.1803  0.8003
 5707SOL    HW225900   5.431   5.082   0.784 -1.8829 -1.0618 -0.5501
 5708SOL     OW25901   9.241   7.786  10.402  0.3506 -0.4752  0.4532
 5708SOL    HW125902   9.282   7.857  10.354  1.4725 -0.0336  1.9810
 5708SOL    HW225903   9.155   7.775  10.361  0.8746  0.5034 -0.9778
 5709SOL     OW25904   4.016   0.520   4.821 -0.6226 -0.5512  0.1414
 5709SOL    HW125905   3.979   0.602   4.853  1.7491  0.8412 -0.4219
 5709SOL    HW225906   4.064   0.484   4.895 -1.0032 -1.0399  0.1572
 5710SOL     OW25907   7.828   2.288   2.250 -0.5389  0.2584 -0.0785
 5710SOL    HW125908   7.831   2.384   2.248  0.0580  0.2406 -0.9711
 5710SOL    HW225909   7.748   2.265   2.203 -1.1485  0.3200  0.9000
 5711SOL     OW25910  11.159   9.958  11.254 -0.1684 -0.1473 -0.2760
 5711SOL    HW125911  11.241   9.992  11.289 -0.0724  0.7353 -1.3174
 5711SOL    HW225912  11.133  10.020  11.186 -1.1891 -0.9405 -0.6524
 5712SOL     OW25913   0.733   0.079   1.551 -0.1302 -0.5564  0.2449
 5712SOL    HW125914   0.709   0.000   1.600 -0.8923  0.3532  1.3711
 5712SOL    HW225915   0.806   0.051   1.496  1.1523 -1.4858  2.3059
 5713SOL     OW25916   2.900  11.412   4.277  0.6656  0.5164  0.3344
 5713SOL    HW125917   2.919  11.502   4.303  0.7565  0.9521 -1.1318
 5713SOL    HW225918   2.954  11.398   4.199 -1.8296  0.3576 -1.4511
 5714SOL     OW25919   0.990   0.203   9.208  0.0206  0.2235 -0.1208
 5714SOL    HW125920   0.982   0.137   9.139  0.1089 -0.6914  0.7246
 5714SOL    HW225921   1.051   0.268   9.173  1.3279 -1.0516 -0.2783
 5715SOL     OW25922   8.259   7.172  10.406 -0.3534  0.1657  0.1645
 5715SOL    HW125923   8.166   7.149  10.408 -0.3794  0.2540  1.8788
 5715SOL    HW225924   8.301   7.104  10.459  0.3120  1.0305  0.7763
 5716SOL     OW25925   0.564   5.623   8.802  0.0583  0.1834 -0.0730
 5716SOL    HW125926   0.575   5.673   8.883  1.6155  0.4161 -0.4020
 5716SOL    HW225927   0.642   5.568   8.797 -0.0790  0.0789 -1.3572
 5717SOL     OW25928   7.360   4.625   6.859  0.2261  0.4314 -0.2084
 5717SOL    HW125929   7.306   4.632   6.780 -1.3757 -0.4847  0.7506
 5717SOL    HW225930   7.450   4.617   6.826 -0.4234 -0.2804 -1.9512
 5718SOL     OW25931   9.109   3.929  10.821  0.4902 -0.0918  0.0099
 5718SOL    HW125932   9.062   3.900  10.899 -1.3727  0.3732 -0.8910
 5718SOL    HW225933   9.071   3.880  10.749 -1.7769  3.2730 -1.3661
 5719SOL     OW25934  11.921   8.583   2.396 -0.1096  0.3354 -0.1429
 5719SOL    HW125935  11.948   8.675   2.403  2.7428 -0.4089 -0.1174
 5719SOL    HW225936  11.975   8.537   2.460 -2.1787 -1.2753  0.5436
 5720SOL     OW25937   6.257   7.425   0.729  0.2294 -0.2620 -0.1137
 5720SOL    HW125938   6.272   7.428   0.634 -3.6775  1.4059 -0.8621
 5720SOL    HW225939   6.344   7.416   0.766  1.9806 -0.6148 -3.8283
 5721SOL     OW25940   7.954   6.354   1.473  0.0445  0.2578  0.2359
 5721SOL    HW125941   8.018   6.420   1.496  1.3636 -1.1687  0.7826
 5721SOL    HW225942   7.916   6.385   1.391 -0.0098  2.1076  0.9284
 5722SOL     OW25943   3.002   4.860   7.076  0.1955  0.3711 -0.0461
 5722SOL    HW125944   2.921   4.872   7.127  0.0033  0.3340 -0.3398
 5722SOL    HW225945   2.992   4.774   7.035  0.0032  0.7336 -0.7675
 5723SOL     OW25946   3.995   1.069   9.674  0.5955  0.8849 -0.2850
 5723SOL    HW125947   4.002   0.997   9.612 -0.5379  2.6898 -2.6599
 5723SOL    HW225948   3.905   1.100   9.664  1.0328  2.5675  0.7328
 5724SOL     OW25949   3.435   0.774   4.119 -0.2045 -0.3229  0.1055
 5724SOL    HW125950   3.342   0.781   4.142  0.0473  0.0642  1.0373
 5724SOL    HW225951   3.436   0.718   4.042 -1.4275  1.6781 -1.4489
 5725SOL     OW25952   1.789   6.671   5.184 -1.1514  0.6398 -0.0659
 5725SOL    HW125953   1.776   6.734   5.113  1.0270 -2.0641 -3.1412
 5725SOL    HW225954   1.702   6.634   5.200 -1.7002  1.3426 -1.3181
 5726SOL     OW25955   0.361   1.841   4.615  0.3199  0.4827 -0.2677
 5726SOL    HW125956   0.455   1.850   4.630  0.1459  0.8364  0.6887
 5726SOL    HW225957   0.328   1.796   4.693 -0.1770 -0.4886 -1.0136
 5727SOL     OW25958   6.150  11.826   0.768  0.1891  0.4370  0.2460
 5727SOL    HW125959   6.107  11.775   0.700 -0.6679  0.8091  0.4977
 5727SOL    HW225960   6.106  11.911   0.766  1.9297  1.3718 -0.5093
 5728SOL     OW25961   6.837   1.589   1.122  0.6866  0.2702 -0.3318
 5728SOL    HW125962   6.932   1.594   1.129  0.7960  0.1723 -1.5076
 5728SOL    HW225963   6.821   1.542   1.040 -0.3767  1.5805 -0.9222
 5729SOL     OW25964   6.954  10.003   4.153  1.0863 -0.3075 -0.3671
 5729SOL    HW125965   6.913   9.957   4.079 -0.0088  0.6338 -0.3649
 5729SOL    HW225966   6.979  10.088   4.118 -1.3694  0.9987  0.8056
 5730SOL     OW25967  11.269   0.103  11.958  0.4895 -0.4591  0.1416
 5730SOL    HW125968  11.363   0.115  11.946  0.4121  0.3381  0.3104
 5730SOL    HW225969  11.244   0.168  12.023 -0.0774 -1.0720  0.5587
 5731SOL     OW25970  10.954   0.298   3.487 -0.6392 -0.1769 -0.0766
 5731SOL    HW125971  10.938   0.389   3.462 -0.2075  0.2776  1.2471
 5731SOL    HW225972  11.049   0.292   3.495 -0.7595 -0.1305  1.9626
 5732SOL     OW25973   3.406   5.149   3.787  0.0974  0.4278  0.2136
 5732SOL    HW125974   3.424   5.063   3.825 -0.1554  0.1992 -0.1691
 5732SOL    HW225975   3.491   5.182   3.759  0.1823  0.2570  0.2722
 5733SOL     OW25976   7.391   9.668   1.877 -0.2093 -0.2267 -0.8284
 5733SOL    HW125977   7.301   9.655   1.849  0.8439 -1.1999 -4.1931
 5733SOL    HW225978   7.419   9.583   1.911 -0.3980 -0.0553 -0.2350
 5734SOL     OW25979   3.542   9.683   3.715 -0.3853  0.0791  0.1381
 5734SOL    HW125980   3.553   9.775   3.691 -1.2095  0.0752 -0.2645
 5734SOL    HW225981   3.615   9.638   3.672 -0.3757  0.4439 -0.2309
 5735SOL     OW25982   6.138   6.931   6.096 -0.0674 -0.6028 -0.3196
 5735SOL    HW125983   6.116   6.885   6.177 -0.0561 -0.5127 -0.2657
 5735SOL    HW225984   6.119   7.023   6.114 -0.2931 -0.6122 -0.4981
 5736SOL     OW25985   6.001  11.520  10.069  0.1116  1.0727  0.7210
 5736SOL    HW125986   6.013  11.454  10.000 -2.0909  0.5721  0.7412
 5736SOL    HW225987   6.089  11.534  10.104  0.9022 -0.5569 -0.4672
 5737SOL     OW25988   3.149   2.375   0.404 -0.3893 -0.0602 -0.3135
 5737SOL    HW125989   3.227   2.409   0.360  0.2390 -1.7552 -0.6015
 5737SOL    HW225990   3.178   2.353   0.492 -0.8322  0.2937 -0.0715
 5738SOL     OW25991   7.188   1.988  10.026 -0.6353 -0.3415 -0.2021
 5738SOL    HW125992   7.218   1.941  10.104  0.5056 -0.1784 -0.5160
 5738SOL    HW225993   7.120   1.932   9.989 -0.8070 -0.6892  0.6095
 5739SOL     OW25994   2.948  11.229  11.451 -0.2893  0.5926  0.2185
 5739SOL    HW125995   2.954  11.190  11.364 -0.0268 -1.0913  0.9414
 5739SOL    HW225996   2.862  11.201  11.484  0.8475 -1.5870  1.6755
 5740SOL     OW25997   9.764   3.574   0.016  0.2314  0.1777 -0.5593
 5740SOL    HW125998   9.797   3.585   0.105  0.7205  0.1453 -0.7329
 5740SOL    HW225999   9.675   3.541   0.027  0.0796  0.7269 -0.0743
 5741SOL     OW26000   0.584   2.134   1.267 -0.4056  0.1878 -0.0203
 5741SOL    HW126001   0.540   2.172   1.191  0.0544 -0.3843 -0.5871
 5741SOL    HW226002   0.677   2.136   1.245 -0.3831 -1.6629 -0.2889
 5742SOL     OW26003   0.451   0.878   2.115  0.0314 -0.0298  0.1523
 5742SOL    HW126004   0.424   0.833   2.195  1.5166 -0.6969  0.3087
 5742SOL    HW226005   0.392   0.845   2.048  1.6474 -3.0817  0.0417
 5743SOL     OW26006   0.617  10.433   1.815  0.2998  0.0509  0.0974
 5743SOL    HW126007   0.694  10.420   1.871  1.7733  1.3589 -1.5042
 5743SOL    HW226008   0.639  10.509   1.761 -2.1300  0.4409 -0.4630
 5744SOL     OW26009  10.539   7.508  10.952  0.0789  0.2291  0.0611
 5744SOL    HW126010  10.562   7.478  11.040  1.2679  0.8048 -0.0290
 5744SOL    HW226011  10.490   7.589  10.966  0.0129  0.1633  0.2096
 5745SOL     OW26012   0.179   0.075   5.006  0.6365  0.4026 -0.3303
 5745SOL    HW126013   0.093   0.090   5.046  0.6962  1.2749 -0.5149
 5745SOL    HW226014   0.217   0.003   5.057  0.9558  1.8568  1.6043
 5746SOL     OW26015   9.228  10.441  12.252 -0.3836  0.6473 -0.4381
 5746SOL    HW126016   9.309  10.399  12.223 -0.8592  0.2126 -1.1803
 5746SOL    HW226017   9.190  10.380  12.315 -0.9974  0.0144 -1.3993
 5747SOL     OW26018  11.852   2.781   0.206 -0.5200 -0.6005 -0.0126
 5747SOL    HW126019  11.885   2.766   0.117 -0.2296  0.0311 -0.0116
 5747SOL    HW226020  11.836   2.693   0.240 -1.6098 -0.8310 -1.0499
 5748SOL     OW26021   5.656   2.245   2.469 -0.1541 -0.1339  0.0709
 5748SOL    HW126022   5.584   2.274   2.524  1.5438  0.5286  2.0661
 5748SOL    HW226023   5.735   2.263   2.521  1.5194 -0.0499 -2.3393
 5749SOL     OW26024   8.431   5.461   2.196  0.0828  0.4831  0.0873
 5749SOL    HW126025   8.357   5.405   2.221  0.4201  0.0211  0.0646
 5749SOL    HW226026   8.403   5.503   2.115 -0.3456  0.6811  0.3359
 5750SOL     OW26027   4.765   6.849   9.355 -0.4733 -0.4118  0.3671
 5750SOL    HW126028   4.774   6.821   9.447  0.9109  0.1199  0.4136
 5750SOL    HW226029   4.677   6.821   9.331 -2.1199  2.1455  2.7903
 5751SOL     OW26030  12.488  12.573   7.623 -0.1649 -0.8669 -0.1444
 5751SOL    HW126031  12.527  12.635   7.685 -2.1497 -0.0329  0.3538
 5751SOL    HW226032  12.520  12.488   7.652  1.6714 -0.2013 -0.1089
 5752SOL     OW26033  11.927   1.199  10.367 -0.0041  0.1207 -0.1921
 5752SOL    HW126034  11.851   1.150  10.400  0.2699 -1.2347 -1.4415
 5752SOL    HW226035  11.969   1.139  10.306  3.3109 -0.0204  1.9683
 5753SOL     OW26036   1.910   5.011   6.592  0.1457  0.1305  0.7906
 5753SOL    HW126037   1.916   5.103   6.564  0.2912 -0.5599 -1.6353
 5753SOL    HW226038   1.827   4.980   6.555  0.4432 -0.8997  0.9594
 5754SOL     OW26039  12.539   7.537  12.285  0.0588 -0.0941  0.2052
 5754SOL    HW126040  12.563   7.481  12.211  2.4732  2.1660 -0.8824
 5754SOL    HW226041  12.474   7.598  12.250 -0.0364 -0.0697  0.4218
 5755SOL     OW26042  11.436   7.624   1.655 -0.1295 -0.1970  0.2905
 5755SOL    HW126043  11.340   7.629   1.660 -0.0309  1.1573  1.3702
 5755SOL    HW226044  11.461   7.577   1.734  0.0675 -1.3439 -0.4365
 5756SOL     OW26045   1.912  10.136  11.076  0.4025  0.6494 -0.4663
 5756SOL    HW126046   1.891  10.122  10.984  0.7439 -4.4229 -0.0763
 5756SOL    HW226047   1.827  10.144  11.120  0.0137 -0.8062 -0.8925
 5757SOL     OW26048   4.217   3.275   1.369 -0.1051 -0.5577  0.1037
 5757SOL    HW126049   4.293   3.284   1.312 -0.6470 -1.4617 -0.7892
 5757SOL    HW226050   4.242   3.208   1.433 -0.3644 -1.3032 -0.5687
 5758SOL     OW26051  11.202  11.229   6.780 -0.0411  0.2588  0.2601
 5758SOL    HW126052  11.272  11.168   6.753 -1.3676 -1.0434 -0.3588
 5758SOL    HW226053  11.140  11.228   6.708 -1.7407 -0.2531  1.6636
 5759SOL     OW26054   6.680   7.097   0.616  0.4342 -0.5081  0.2737
 5759SOL    HW126055   6.597   7.083   0.571 -0.0587  0.7939  0.7276
 5759SOL    HW226056   6.679   7.034   0.688  0.7734 -1.8927 -0.8974
 5760SOL     OW26057  10.793   2.541   4.185  0.1479 -0.6160  0.6753
 5760SOL    HW126058  10.711   2.525   4.138 -0.4272  0.9625  1.0879
 5760SOL    HW226059  10.860   2.543   4.117 -0.0492 -2.3139  0.3665
 5761SOL     OW26060  11.051   0.182   8.230 -0.1355  0.3403  0.1380
 5761SOL    HW126061  11.091   0.141   8.153  0.0684 -0.8801  0.8641
 5761SOL    HW226062  11.064   0.276   8.217  1.1451  0.0743 -0.6298
 5762SOL     OW26063   2.371   7.418  10.797 -0.6089  0.0619 -0.6365
 5762SOL    HW126064   2.453   7.464  10.777 -0.3982  0.4407  0.9834
 5762SOL    HW226065   2.333   7.466  10.870 -0.6099 -2.0471  0.8386
 5763SOL     OW26066  11.048   5.683   8.607 -0.0534 -0.5102  0.3730
 5763SOL    HW126067  11.078   5.611   8.663 -0.3659 -0.2015  0.9495
 5763SOL    HW226068  10.956   5.662   8.589 -0.3272  0.0393  1.0482
 5764SOL     OW26069   5.809   9.590   3.517 -0.1513  0.3554  0.0669
 5764SOL    HW126070   5.720   9.559   3.537 -0.8638  2.4187  0.4358
 5764SOL    HW226071   5.867   9.520   3.546 -1.6071 -0.4869  1.0670
 5765SOL     OW26072   5.761  10.306   8.286  0.2401  0.1720  0.2225
 5765SOL    HW126073   5.820  10.377   8.312 -0.3013  1.1986 -1.2384
 5765SOL    HW226074   5.724  10.275   8.368  3.0418 -0.7840  1.2656
 5766SOL     OW26075   0.136  10.265   0.939  0.0682 -0.0671 -0.2785
 5766SOL    HW126076   0.097  10.182   0.968 -0.3239 -0.0533 -0.7502
 5766SOL    HW226077   0.156  10.312   1.020  2.2562 -1.4807  0.1018
 5767SOL     OW26078   1.799   3.896  11.349  0.0947 -0.2169  0.5091
 5767SOL    HW126079   1.871   3.844  11.313  0.2910 -0.3058  1.0248
 5767SOL    HW226080   1.804   3.882  11.444  1.3302  2.2151  0.8871
 5768SOL     OW26081   5.856  11.710   8.151 -0.2075 -0.2859  0.5433
 5768SOL    HW126082   5.838  11.630   8.200 -1.1346 -1.7252 -1.9636
 5768SOL    HW226083   5.774  11.759   8.154 -0.1730 -0.2371  0.6748
 5769SOL     OW26084  11.520   1.631   9.797 -0.3656 -0.0732 -0.1736
 5769SOL    HW126085  11.548   1.629   9.705 -0.3341 -1.7438 -0.1537
 5769SOL    HW226086  11.492   1.721   9.811  0.9146  0.5666 -1.4289
 5770SOL     OW26087   7.098   0.056   9.912 -0.1907 -0.2423 -0.2468
 5770SOL    HW126088   7.156   0.127   9.884 -0.9140  0.9442  1.1001
 5770SOL    HW226089   7.117   0.044  10.005 -1.2616 -0.6477 -0.0608
 5771SOL     OW26090   1.774   6.323   6.227  0.0527  0.1192 -0.4039
 5771SOL    HW126091   1.693   6.373   6.230 -0.1598 -0.2246  2.2675
 5771SOL    HW226092   1.745   6.231   6.223  0.3577  0.0419 -0.9511
 5772SOL     OW26093   8.809   0.053   2.266 -0.5497  0.3482  0.5931
 5772SOL    HW126094   8.795   0.114   2.338 -2.7061  0.0407  0.5061
 5772SOL    HW226095   8.888   0.085   2.221 -1.1074  2.5176  1.0739
 5773SOL     OW26096   3.012   0.698  12.115  0.1014  0.4553  0.1128
 5773SOL    HW126097   3.059   0.765  12.066  0.1353  0.2145 -0.1924
 5773SOL    HW226098   3.020   0.724  12.206  1.3885  0.0657  0.1313
 5774SOL     OW26099  10.870   1.280   3.071  0.5448 -0.4795  0.6515
 5774SOL    HW126100  10.779   1.251   3.063  0.4288 -0.1245  0.7029
 5774SOL    HW226101  10.914   1.244   2.993 -0.1295  1.2315 -0.5655
 5775SOL     OW26102   6.835   5.474   5.848 -0.5501  0.2504  0.2418
 5775SOL    HW126103   6.750   5.448   5.812 -0.4558  1.2218 -0.7432
 5775SOL    HW226104   6.891   5.397   5.837 -1.2235 -0.3140  0.6778
 5776SOL     OW26105   4.496   4.459   3.854 -0.2154  0.3505  0.0705
 5776SOL    HW126106   4.476   4.367   3.874  1.5065 -0.2145 -0.6198
 5776SOL    HW226107   4.463   4.508   3.930 -0.8947 -0.8563  0.5835
 5777SOL     OW26108   3.671  12.249  11.603 -0.0454 -0.3781  0.8715
 5777SOL    HW126109   3.615  12.176  11.628 -0.8109  0.4944  1.7573
 5777SOL    HW226110   3.747  12.207  11.562 -0.8433 -1.6244  0.6009
 5778SOL     OW26111   7.635   8.326   4.843  0.4931 -0.7118 -0.3780
 5778SOL    HW126112   7.729   8.307   4.848  0.7833  0.0718 -2.2547
 5778SOL    HW226113   7.598   8.252   4.794  0.6551  0.3925 -2.2734
 5779SOL     OW26114   6.859   4.161  11.556 -0.1528 -0.0161 -0.5671
 5779SOL    HW126115   6.907   4.207  11.624 -1.7300 -0.5524  0.9794
 5779SOL    HW226116   6.926   4.115  11.506  1.0175 -0.0801  0.9901
 5780SOL     OW26117   7.308   2.927  11.269  0.1209  0.0791 -0.2446
 5780SOL    HW126118   7.226   2.896  11.231 -0.0562  0.3049 -0.0447
 5780SOL    HW226119   7.286   2.951  11.359  0.3895  0.2080 -0.2127
 5781SOL     OW26120   9.014   6.345   8.152 -0.3725 -0.4782  0.7647
 5781SOL    HW126121   8.948   6.278   8.167  0.9684 -1.8980  0.6731
 5781SOL    HW226122   9.096   6.303   8.178  0.5220  1.1404  0.6814
 5782SOL     OW26123   2.775   9.844  12.100 -0.2658 -0.1940 -0.5297
 5782SOL    HW126124   2.774   9.893  12.018  1.4896  2.3933  0.8383
 5782SOL    HW226125   2.683   9.828  12.120 -0.9869  2.7004 -1.0924
 5783SOL     OW26126   9.458   2.339   0.020 -0.1378 -0.3662 -0.0682
 5783SOL    HW126127   9.531   2.282   0.043 -0.7288 -0.7786  0.8326
 5783SOL    HW226128   9.380   2.285   0.034 -0.7337  0.7273  1.0938
 5784SOL     OW26129   1.882   3.966   0.788 -0.1329  0.0796 -0.0961
 5784SOL    HW126130   1.954   3.949   0.727  1.5039 -0.1992  1.8058
 5784SOL    HW226131   1.867   4.060   0.781  1.8743  0.5363  0.9244
 5785SOL     OW26132   3.799   9.158  10.802  0.2614  0.4159  0.0571
 5785SOL    HW126133   3.846   9.186  10.881 -1.3136  0.2937  1.0605
 5785SOL    HW226134   3.729   9.222  10.792  1.0351  1.0465 -1.8710
 5786SOL     OW26135   0.078   4.358   6.571  0.4151  0.4617 -0.2124
 5786SOL    HW126136   0.086   4.346   6.476  0.4660 -0.3864 -0.1138
 5786SOL    HW226137   0.024   4.284   6.599  1.3437  0.0644  0.5710
 5787SOL     OW26138   7.433   9.151   5.939  0.5284  0.1575  0.0855
 5787SOL    HW126139   7.341   9.127   5.952  0.4733 -0.0428 -0.6581
 5787SOL    HW226140   7.436   9.191   5.853  1.1762 -0.0179  0.0212
 5788SOL     OW26141   4.641   2.364   3.158 -0.6641 -0.5041  0.4101
 5788SOL    HW126142   4.698   2.422   3.208 -0.1336 -1.0498  0.4476
 5788SOL    HW226143   4.678   2.364   3.069 -1.3925  0.1798  0.0933
 5789SOL     OW26144   3.632  11.719   5.491  0.0548 -0.1693 -0.6255
 5789SOL    HW126145   3.591  11.805   5.494 -1.3909 -0.7365 -2.0246
 5789SOL    HW226146   3.611  11.679   5.576 -1.2870  0.0349 -0.8286
 5790SOL     OW26147  10.188   2.062   4.966  0.2743 -0.6085 -0.2417
 5790SOL    HW126148  10.151   2.117   4.898  0.2727  1.1474  1.1070
 5790SOL    HW226149  10.180   1.972   4.932 -0.0849  0.1622 -2.3271
 5791SOL     OW26150   6.165   5.427   1.533  0.2092 -0.3210 -0.1320
 5791SOL    HW126151   6.238   5.414   1.473  0.1816 -1.3172  0.0432
 5791SOL    HW226152   6.095   5.371   1.499 -0.5284  0.7123 -0.3691
 5792SOL     OW26153   7.456   9.508   1.293 -0.4898 -0.6446  0.5215
 5792SOL    HW126154   7.361   9.510   1.290 -0.4621  0.6816 -0.7262
 5792SOL    HW226155   7.484   9.531   1.204  0.9498  1.7708  1.4755
 5793SOL     OW26156   1.500   5.288   6.957 -0.4080 -0.1438  0.3827
 5793SOL    HW126157   1.419   5.278   6.905  0.9248 -0.9909 -1.6739
 5793SOL    HW226158   1.537   5.200   6.961  0.4870  0.2545  1.1844
 5794SOL     OW26159   5.594   6.389   3.716  0.2708 -0.0959 -0.1652
 5794SOL    HW126160   5.591   6.413   3.809 -2.9463 -0.5278 -0.0345
 5794SOL    HW226161   5.672   6.335   3.707  0.6707 -0.0244  2.2730
 5795SOL     OW26162  12.090   9.954   0.234  0.8563  0.9434  0.0899
 5795SOL    HW126163  12.040  10.034   0.248  1.2372  1.1332  0.3724
 5795SOL    HW226164  12.169   9.965   0.287 -0.5142 -0.9698  2.7515
 5796SOL     OW26165  12.205   7.846   0.622  0.0142  0.0695 -0.0044
 5796SOL    HW126166  12.185   7.927   0.668 -3.2910 -1.0623  0.8228
 5796SOL    HW226167  12.277   7.807   0.673  0.1212  1.3986  0.9235
 5797SOL     OW26168   2.192  11.743   0.583 -0.1679 -0.3337  0.6521
 5797SOL    HW126169   2.225  11.655   0.567  0.0008 -0.0949 -0.3760
 5797SOL    HW226170   2.261  11.801   0.551 -0.7371  0.1615  0.2891
 5798SOL     OW26171   8.248   2.612   5.889  0.9032  0.6850  0.0206
 5798SOL    HW126172   8.233   2.661   5.970  0.2834  0.9441 -0.2472
 5798SOL    HW226173   8.261   2.522   5.918 -2.9210  0.0520  0.2077
 5799SOL     OW26174   3.801  11.821   3.848 -0.2277 -0.0046 -0.3312
 5799SOL    HW126175   3.854  11.746   3.820  0.7558  0.4101  0.3478
 5799SOL    HW226176   3.772  11.797   3.936  1.0474  0.8586  0.3600
 5800SOL     OW26177   5.097  10.542   0.321 -0.0882  0.0276 -0.5749
 5800SOL    HW126178   5.082  10.606   0.251 -0.0472 -0.9269 -1.4828
 5800SOL    HW226179   5.009  10.515   0.348 -0.1024 -0.2612 -0.8948
 5801SOL     OW26180  11.038   0.978  11.430  0.2250  0.5266  0.2112
 5801SOL    HW126181  11.128   1.004  11.410  0.0153  0.5545 -0.7470
 5801SOL    HW226182  11.042   0.883  11.440  0.1957  0.4044 -0.8336
 5802SOL     OW26183   3.245   8.950   8.463  0.4537 -0.2156 -0.6343
 5802SOL    HW126184   3.296   8.903   8.397  2.4242  0.9608 -0.0339
 5802SOL    HW226185   3.305   8.963   8.536 -0.5269  1.6866 -0.0822
 5803SOL     OW26186   1.576   9.402   4.164  0.6605 -0.0934 -0.2253
 5803SOL    HW126187   1.515   9.367   4.229  1.3716  0.7440  0.9515
 5803SOL    HW226188   1.663   9.388   4.202  1.0589  1.0845 -0.6410
 5804SOL     OW26189   3.858   4.122  11.530  0.5859 -0.0202 -0.5266
 5804SOL    HW126190   3.833   4.160  11.615  0.9599 -0.6965 -0.0986
 5804SOL    HW226191   3.777   4.121  11.480 -0.2301 -1.8587  0.7068
 5805SOL     OW26192   0.731   3.942   3.149  0.1299 -0.4829 -0.0583
 5805SOL    HW126193   0.696   4.018   3.103  0.0829 -0.8498 -0.6400
 5805SOL    HW226194   0.794   3.904   3.088 -0.9417 -1.7693 -0.4210
 5806SOL     OW26195  12.156   3.111   2.180 -0.6581 -0.3488 -0.5802
 5806SOL    HW126196  12.106   3.186   2.209 -2.1974 -0.6433 -2.3030
 5806SOL    HW226197  12.118   3.036   2.227 -1.7050 -0.5331 -1.6770
 5807SOL     OW26198   8.468   5.816   3.138  0.3182  0.5602  1.0515
 5807SOL    HW126199   8.528   5.886   3.163 -0.6341  1.6330  0.4522
 5807SOL    HW226200   8.464   5.759   3.215  1.1674  1.1264  1.5244
 5808SOL     OW26201   6.325   9.994   7.464  0.0420  0.1653  0.2616
 5808SOL    HW126202   6.305  10.088   7.468  0.5004  0.2785 -0.0469
 5808SOL    HW226203   6.362   9.981   7.377 -0.0605 -0.3160  0.2861
 5809SOL     OW26204   1.281  10.846  11.253  0.3806  0.3083 -0.1745
 5809SOL    HW126205   1.342  10.859  11.325 -1.1620 -0.1501  1.2929
 5809SOL    HW226206   1.336  10.829  11.176  2.0938  2.1261  0.5952
 5810SOL     OW26207   7.606   6.965   4.629  0.2938 -0.3272  0.4344
 5810SOL    HW126208   7.612   6.896   4.564 -0.0058 -0.8496  0.9504
 5810SOL    HW226209   7.513   6.971   4.649  0.2023  0.8316 -0.2343
 5811SOL     OW26210   5.316   7.652  10.336 -0.6703  0.9690 -0.1598
 5811SOL    HW126211   5.403   7.672  10.371 -0.7298  0.2143  0.4401
 5811SOL    HW226212   5.294   7.728  10.281  1.2760  0.2314 -2.0967
 5812SOL     OW26213   2.481  12.208  12.131  0.0259  0.4791 -0.5298
 5812SOL    HW126214   2.406  12.251  12.171 -1.0300 -0.6469 -1.2624
 5812SOL    HW226215   2.552  12.220  12.195 -1.3636 -0.4705  1.2815
 5813SOL     OW26216   4.750   6.066   4.407  0.0041 -0.0864  0.3814
 5813SOL    HW126217   4.768   6.113   4.488 -0.0888  0.8624 -0.1422
 5813SOL    HW226218   4.796   6.115   4.339 -1.0931 -0.0409 -0.3481
 5814SOL     OW26219   8.730   6.502   9.518  0.2403 -0.3283  0.1884
 5814SOL    HW126220   8.760   6.438   9.582  2.1768  2.2520  2.0612
 5814SOL    HW226221   8.772   6.474   9.436  2.1080 -0.8082  1.2353
 5815SOL     OW26222   5.201   5.919   1.928 -0.6722 -0.5643  0.2560
 5815SOL    HW126223   5.113   5.885   1.910 -0.3597 -2.3306  1.7403
 5815SOL    HW226224   5.206   5.920   2.024  0.9215 -0.5134  0.1904
 5816SOL     OW26225   7.190   8.887   3.992  0.2972  0.6803 -0.1941
 5816SOL    HW126226   7.211   8.803   4.032 -0.8951  0.1199 -0.6755
 5816SOL    HW226227   7.247   8.950   4.036 -0.0809 -0.0932  1.4664
 5817SOL     OW26228  12.610   2.010   8.120 -0.4720  0.4604  0.2389
 5817SOL    HW126229  12.670   1.959   8.065 -0.7313 -0.4072  0.7396
 5817SOL    HW226230  12.566   2.069   8.059 -0.8692 -0.5929 -0.5282
 5818SOL     OW26231   5.105   0.477   4.300  0.2536  0.1631  0.3685
 5818SOL    HW126232   5.027   0.452   4.251  0.9486 -1.4152  0.0127
 5818SOL    HW226233   5.087   0.567   4.329 -0.7524  0.6378 -1.5734
 5819SOL     OW26234   3.026   9.897   9.590 -0.1983 -0.1243  0.1650
 5819SOL    HW126235   2.984   9.815   9.565 -0.4663  0.4379 -1.3566
 5819SOL    HW226236   3.115   9.872   9.615 -0.0263 -0.7960 -1.0566
 5820SOL     OW26237   6.803   0.214   0.538 -0.1464  0.1074  0.0996
 5820SOL    HW126238   6.845   0.140   0.581 -0.7734 -0.7002 -0.6434
 5820SOL    HW226239   6.789   0.185   0.448 -1.2840  0.7557  0.0491
 5821SOL     OW26240   5.770   2.788   0.727  0.5125 -0.0808  0.0831
 5821SOL    HW126241   5.693   2.836   0.755  0.5619  0.7285 -1.0953
 5821SOL    HW226242   5.747   2.696   0.741 -1.0534  0.0810 -1.0993
 5822SOL     OW26243   1.670   9.262  12.500  0.2986 -0.5186 -0.3995
 5822SOL    HW126244   1.585   9.224  12.519 -1.0877  2.3864 -0.2172
 5822SOL    HW226245   1.651   9.333  12.437  2.7066 -0.3416 -1.0411
 5823SOL     OW26246   6.700   7.472  10.021  0.3754 -0.5630  0.2852
 5823SOL    HW126247   6.738   7.458  10.108  2.0700  1.8538  0.0576
 5823SOL    HW226248   6.636   7.402  10.010 -0.3147 -0.6227  3.7058
 5824SOL     OW26249   0.247   3.708   0.407  0.3473 -0.3922 -0.1282
 5824SOL    HW126250   0.340   3.692   0.390  0.7668  0.9949  0.6720
 5824SOL    HW226251   0.208   3.714   0.320  0.9888 -1.0250 -0.4795
 5825SOL     OW26252   6.270   5.542   3.219  0.1357  0.1123 -0.2757
 5825SOL    HW126253   6.352   5.511   3.180 -0.9139 -1.1382 -1.6241
 5825SOL    HW226254   6.244   5.616   3.164 -0.6806 -0.8393 -1.2388
 5826SOL     OW26255  11.690   5.077   7.937  0.1900 -0.2070  0.4211
 5826SOL    HW126256  11.736   5.063   8.020 -0.1748  0.4815  0.7513
 5826SOL    HW226257  11.733   5.018   7.875  1.0309 -0.0958  0.8920
 5827SOL     OW26258   4.550   1.458   6.470 -0.1641 -0.2027  0.0962
 5827SOL    HW126259   4.549   1.496   6.382  1.7082  0.8269  0.4758
 5827SOL    HW226260   4.506   1.523   6.524  2.3205  1.1903  0.5973
 5828SOL     OW26261   3.734   7.306  10.445  0.3714 -0.1073  0.1294
 5828SOL    HW126262   3.764   7.369  10.379 -1.8539  1.3242  0.3823
 5828SOL    HW226263   3.695   7.234  10.394 -0.1335  0.3590 -0.1544
 5829SOL     OW26264   9.368   9.749   0.295  0.3133  0.0354  0.0991
 5829SOL    HW126265   9.436   9.794   0.245 -0.0569 -0.4068 -0.8236
 5829SOL    HW226266   9.361   9.663   0.254 -2.1035  0.7128 -1.0913
 5830SOL     OW26267   1.421  12.277   4.540 -0.3183 -0.3653  0.0808
 5830SOL    HW126268   1.406  12.287   4.446  1.5195  1.2366 -0.1020
 5830SOL    HW226269   1.365  12.343   4.580 -1.2022 -1.1367  0.1538
 5831SOL     OW26270  10.939   3.631   6.137 -0.6725 -0.1555 -0.1240
 5831SOL    HW126271  10.887   3.552   6.148  1.2005 -1.6310 -1.2859
 5831SOL    HW226272  10.934   3.651   6.044  0.5733 -0.1839 -0.2168
 5832SOL     OW26273   7.077   0.972   1.438 -0.6148  0.0016 -0.7486
 5832SOL    HW126274   7.050   1.046   1.383  2.0226  1.1756 -0.6113
 5832SOL    HW226275   6.998   0.950   1.488 -1.1246  3.9609  0.5985
 5833SOL     OW26276   1.157   6.901   4.951  0.3924  0.4848 -0.7025
 5833SOL    HW126277   1.162   6.822   5.004  1.3728 -0.8067 -2.5966
 5833SOL    HW226278   1.189   6.971   5.007 -0.1593 -0.5060  0.8998
 5834SOL     OW26279   9.273   0.592  10.253  0.1699  0.1463 -0.1464
 5834SOL    HW126280   9.324   0.670  10.232  0.7306  0.2155  1.3543
 5834SOL    HW226281   9.242   0.607  10.342  0.6727 -1.5460  0.3421
 5835SOL     OW26282  10.181   3.558   0.330 -0.4642  0.2113 -0.2216
 5835SOL    HW126283  10.185   3.481   0.388  0.3486 -0.6956 -1.4279
 5835SOL    HW226284  10.260   3.607   0.351 -1.4952  1.3087  1.2816
 5836SOL     OW26285   3.496  11.420   4.695  0.2489  0.3640  0.2909
 5836SOL    HW126286   3.423  11.372   4.655  0.4419 -1.1077  1.6101
 5836SOL    HW226287   3.461  11.508   4.711 -1.4735 -0.4591  1.4083
 5837SOL     OW26288   3.891   5.558   7.557 -0.2395  0.5598 -0.4890
 5837SOL    HW126289   3.875   5.475   7.512 -0.4778  0.1470  0.3556
 5837SOL    HW226290   3.983   5.578   7.537 -0.4419  0.5866 -1.4787
 5838SOL     OW26291   8.108   6.723   0.446 -0.4718  0.1134 -0.3704
 5838SOL    HW126292   8.194   6.763   0.455 -0.7739  0.3946  1.8390
 5838SOL    HW226293   8.113   6.644   0.498 -1.3749 -0.1976 -0.7359
 5839SOL     OW26294   5.126   2.305  10.443  0.0283  0.2164 -0.3637
 5839SOL    HW126295   5.168   2.359  10.510 -1.8673  0.6253  0.5578
 5839SOL    HW226296   5.168   2.332  10.361  0.9318  1.2162  0.4033
 5840SOL     OW26297  12.042   1.544   7.652  0.2681 -0.1629 -0.0582
 5840SOL    HW126298  12.052   1.516   7.743  1.0209  2.1356  0.6451
 5840SOL    HW226299  12.131   1.540   7.616  0.3946  1.1799  0.0603
 5841SOL     OW26300   5.268   2.469   9.929  0.1023 -0.0030  0.5565
 5841SOL    HW126301   5.279   2.390   9.876 -0.2826  0.6771 -0.5671
 5841SOL    HW226302   5.182   2.502   9.905  0.9545  1.7109 -0.3082
 5842SOL     OW26303   9.523   4.840   3.390 -0.0168 -0.1223  0.3854
 5842SOL    HW126304   9.533   4.746   3.380  0.2145  0.0947 -1.9763
 5842SOL    HW226305   9.429   4.854   3.399 -0.1855 -0.4766 -0.7825
 5843SOL     OW26306   2.134   0.091   9.471 -0.3583  0.3091 -0.2641
 5843SOL    HW126307   2.049   0.128   9.494 -1.4503 -0.2730 -3.0472
 5843SOL    HW226308   2.130   0.000   9.500  0.3305  0.8806  1.8169
 5844SOL     OW26309   1.639  10.089   3.675 -0.3100  0.2173 -0.5284
 5844SOL    HW126310   1.706  10.052   3.733 -0.5429  1.4936  0.6120
 5844SOL    HW226311   1.591  10.013   3.642  0.5608 -0.6129  0.0601
 5845SOL     OW26312  10.629   7.728   1.639  0.6529  0.0783 -0.2621
 5845SOL    HW126313  10.722   7.728   1.615  0.2694  0.0583 -1.9184
 5845SOL    HW226314  10.592   7.654   1.591 -0.7622  1.8816 -2.1967
 5846SOL     OW26315   5.463   6.524   7.898  0.3056  0.1546  0.1758
 5846SOL    HW126316   5.442   6.570   7.817  0.3674 -0.5491 -0.2517
 5846SOL    HW226317   5.378   6.500   7.935  0.2419  1.3363  0.8447
 5847SOL     OW26318   6.038   8.891   1.337 -0.3429 -0.1500 -0.5495
 5847SOL    HW126319   6.021   8.960   1.402 -2.1419 -1.1142  0.0668
 5847SOL    HW226320   6.070   8.817   1.389 -0.3479 -0.4371 -0.9564
 5848SOL     OW26321   2.453   7.458   3.560 -0.2297 -0.0550 -0.1086
 5848SOL    HW126322   2.514   7.384   3.560 -1.2656 -0.9755  1.5358
 5848SOL    HW226323   2.418   7.461   3.471  0.2085 -1.2189 -0.3297
 5849SOL     OW26324   2.715   3.741  11.451 -0.3128  0.0434 -0.2085
 5849SOL    HW126325   2.722   3.656  11.406 -1.5625  0.2217 -0.7870
 5849SOL    HW226326   2.627   3.772  11.430 -0.4297  0.7923  1.2504
 5850SOL     OW26327   1.960   1.246   1.336 -0.4113  0.2769  0.0659
 5850SOL    HW126328   1.930   1.287   1.417  0.2749  0.7658  0.0755
 5850SOL    HW226329   2.042   1.290   1.315 -1.5235  1.5928 -1.9529
 5851SOL     OW26330   5.360   3.030  12.601 -0.5014 -0.0505 -0.3720
 5851SOL    HW126331   5.361   3.066  12.690 -0.3464 -2.6056  0.7324
 5851SOL    HW226332   5.290   3.079  12.557  0.0012  1.8906  0.8246
 5852SOL     OW26333  11.809   6.881   0.395 -0.0642 -0.4105 -0.0030
 5852SOL    HW126334  11.769   6.826   0.462  2.1727 -1.6044  0.4853
 5852SOL    HW226335  11.849   6.818   0.335  1.8693  0.6290  0.1172
 5853SOL     OW26336   6.860   1.706  12.383  0.4181  0.6541  0.0504
 5853SOL    HW126337   6.927   1.685  12.319  1.2565  1.6391  0.5711
 5853SOL    HW226338   6.822   1.621  12.407  1.2891  0.1079 -0.4444
 5854SOL     OW26339   0.736   6.814   6.878  0.5106 -0.3669  0.2414
 5854SOL    HW126340   0.687   6.809   6.796  1.3891  0.2135 -0.3380
 5854SOL    HW226341   0.689   6.880   6.929  0.8750  0.4630 -0.4581
 5855SOL     OW26342  10.740   1.979   1.019  0.2765  0.4329 -0.0488
 5855SOL    HW126343  10.752   1.885   1.006 -0.7207  0.3480 -0.4009
 5855SOL    HW226344  10.822   2.018   0.986  0.0192 -0.1869 -1.4960
 5856SOL     OW26345  11.660   6.252   2.246  0.1959  0.0439  0.2337
 5856SOL    HW126346  11.657   6.279   2.155  0.9558  0.0408  0.2018
 5856SOL    HW226347  11.570   6.264   2.278  0.1898  1.1885 -0.1837
 5857SOL     OW26348   0.377   2.625   3.382 -0.1948 -0.6377  0.1022
 5857SOL    HW126349   0.406   2.567   3.452  3.0425 -1.7812 -1.9870
 5857SOL    HW226350   0.452   2.683   3.367 -1.7892  1.3071 -0.7240
 5858SOL     OW26351  11.370   4.615  12.357 -0.2072  0.2126 -0.1157
 5858SOL    HW126352  11.415   4.577  12.432  0.4982  0.5168 -0.3701
 5858SOL    HW226353  11.279   4.589  12.367  0.0091 -0.3322  0.4699
 5859SOL     OW26354   1.463  10.392   8.924 -0.2515  0.3836 -0.8993
 5859SOL    HW126355   1.531  10.449   8.889 -0.3730  1.0461 -0.0959
 5859SOL    HW226356   1.495  10.304   8.909 -0.1072  0.6431 -2.2683
 5860SOL     OW26357   2.378   5.781   9.762 -0.0065 -0.4150  0.1956
 5860SOL    HW126358   2.398   5.855   9.819 -1.7277  0.4279 -0.1902
 5860SOL    HW226359   2.412   5.704   9.807  2.1852  0.6342  0.4248
 5861SOL     OW26360   3.431   3.646   8.258  0.0686 -0.2449 -0.0302
 5861SOL    HW126361   3.336   3.643   8.268  0.0072  1.0879 -0.1218
 5861SOL    HW226362   3.464   3.662   8.346  0.1865 -0.2225 -0.0787
 5862SOL     OW26363   2.018   3.471   6.522  0.8521 -0.3995 -0.4911
 5862SOL    HW126364   2.076   3.458   6.597  0.8685 -1.5725 -0.6954
 5862SOL    HW226365   2.069   3.525   6.462  0.8538  0.5229  0.3100
 5863SOL     OW26366  10.340   2.922   6.601  0.2156  0.1294  1.0548
 5863SOL    HW126367  10.379   2.952   6.683 -0.5148  1.7655  0.8410
 5863SOL    HW226368  10.246   2.931   6.615  0.1040  1.3155 -0.2468
 5864SOL     OW26369  11.933   9.770   6.522  0.2372 -0.5578  0.0107
 5864SOL    HW126370  11.875   9.835   6.484 -0.2403 -0.5281  0.7613
 5864SOL    HW226371  11.944   9.799   6.613  1.5837 -0.4496 -0.1677
 5865SOL     OW26372  10.463   7.737   7.654  0.2328  0.0855 -0.0741
 5865SOL    HW126373  10.550   7.721   7.616  1.6931  3.7991  1.2037
 5865SOL    HW226374  10.464   7.688   7.736  2.0157  1.4995  0.8418
 5866SOL     OW26375   5.069  10.481  12.154  0.1224  0.2969 -0.6678
 5866SOL    HW126376   5.106  10.514  12.071  1.0941  0.6506 -0.1139
 5866SOL    HW226377   5.146  10.457  12.206 -0.5042 -1.0335 -0.2999
 5867SOL     OW26378  10.711   4.391   9.884  0.3404 -0.4414  0.2008
 5867SOL    HW126379  10.730   4.322   9.947  0.1265 -0.5256  0.1733
 5867SOL    HW226380  10.621   4.373   9.855 -1.1880  1.9367  2.9010
 5868SOL     OW26381   3.103   8.156   8.597  0.0360  0.8320 -0.0557
 5868SOL    HW126382   3.115   8.186   8.687 -0.4131 -1.7234  0.9367
 5868SOL    HW226383   3.191   8.129   8.569 -0.0061  0.5988  0.0315
 5869SOL     OW26384   3.339   5.237   6.225  0.2517 -0.1479  0.3257
 5869SOL    HW126385   3.415   5.190   6.258  1.6291  0.8865 -1.2200
 5869SOL    HW226386   3.337   5.318   6.277  0.1584 -0.2168  0.4283
 5870SOL     OW26387   1.068   6.776   2.228 -0.0312 -0.0327 -0.3706
 5870SOL    HW126388   1.017   6.775   2.309 -0.0726 -0.0036 -0.3956
 5870SOL    HW226389   1.067   6.868   2.201 -2.0323 -0.3566 -1.6635
 5871SOL     OW26390   1.952  11.931  11.288 -0.0609 -0.8082 -0.1358
 5871SOL    HW126391   1.988  11.902  11.204  0.3045 -0.4532 -0.1075
 5871SOL    HW226392   1.921  12.020  11.271  1.0810 -0.2930  0.3895
 5872SOL     OW26393   6.251  11.698  11.314  0.2480  0.2547  0.4542
 5872SOL    HW126394   6.252  11.711  11.219  2.3494  1.5714  0.5963
 5872SOL    HW226395   6.324  11.751  11.347 -0.5479  0.0084  2.8443
 5873SOL     OW26396   7.300   3.749   6.707  0.5471 -0.5237  0.2992
 5873SOL    HW126397   7.205   3.759   6.710  0.6089  0.6216 -0.8321
 5873SOL    HW226398   7.317   3.714   6.620  1.0647 -2.4163  1.1007
 5874SOL     OW26399   5.636   9.005   2.630 -0.3575 -0.7641  0.2085
 5874SOL    HW126400   5.667   9.027   2.542  1.9827  0.2556  1.2113
 5874SOL    HW226401   5.606   8.914   2.623  0.3046 -0.8849 -1.5008
 5875SOL     OW26402  11.962   0.561   9.114 -0.0800  0.1847  0.1051
 5875SOL    HW126403  12.019   0.515   9.052 -0.8336  1.1964 -1.3956
 5875SOL    HW226404  11.888   0.591   9.061 -0.8429  0.9323  1.5411
 5876SOL     OW26405   1.709   8.245  11.542 -0.6535 -0.6004 -0.8696
 5876SOL    HW126406   1.680   8.322  11.591  1.1428 -0.0030 -0.6496
 5876SOL    HW226407   1.701   8.271  11.450  1.5306  0.5954 -0.8153
 5877SOL     OW26408   0.599   5.872   7.972  0.0912  0.0275 -0.8239
 5877SOL    HW126409   0.563   5.918   7.897  0.2234  0.4849 -0.6142
 5877SOL    HW226410   0.691   5.899   7.975  0.0557  0.1147 -0.4252
 5878SOL     OW26411  12.547   1.060   2.444  0.5642 -0.6112 -0.1794
 5878SOL    HW126412  12.634   1.033   2.415  0.3354 -0.6036 -0.9019
 5878SOL    HW226413  12.496   0.979   2.444  0.7695 -0.7509  1.0123
 5879SOL     OW26414   6.650  10.156   4.063  0.2443  0.2690  0.3238
 5879SOL    HW126415   6.653  10.092   4.135 -0.1560 -0.3404 -0.1806
 5879SOL    HW226416   6.622  10.104   3.987 -0.9284  1.2058  0.0830
 5880SOL     OW26417   0.619  10.763   7.471  0.3135 -0.0193  0.1173
 5880SOL    HW126418   0.556  10.792   7.406 -0.0047  0.0207  0.4399
 5880SOL    HW226419   0.683  10.834   7.477  1.6564 -0.9790 -1.8148
 5881SOL     OW26420   4.031   7.291   1.320 -0.5939 -0.1428 -0.7450
 5881SOL    HW126421   4.105   7.230   1.315  0.4644  0.7557  2.1289
 5881SOL    HW226422   4.027   7.331   1.233  1.6050 -0.9875 -1.3045
 5882SOL     OW26423   8.410   5.556   6.532  0.1589  0.1335  0.9422
 5882SOL    HW126424   8.425   5.601   6.615  1.3712  0.2800  0.6685
 5882SOL    HW226425   8.457   5.473   6.542 -1.2707 -0.6750  1.0908
 5883SOL     OW26426   5.202   9.505   6.517  0.4851  0.4419  0.0620
 5883SOL    HW126427   5.153   9.481   6.595 -1.0992  2.2817 -0.2767
 5883SOL    HW226428   5.278   9.552   6.550  0.7213 -0.2534  0.5309
 5884SOL     OW26429   3.793  10.339   2.670  0.0847 -0.1882 -0.2085
 5884SOL    HW126430   3.774  10.397   2.596 -0.6869 -1.4345 -1.0325
 5884SOL    HW226431   3.715  10.346   2.726  0.6586  0.7371  0.5071
 5885SOL     OW26432   4.317   3.508  12.331  0.2425 -0.0099  0.7913
 5885SOL    HW126433   4.382   3.438  12.335  2.5788  2.0424  1.2583
 5885SOL    HW226434   4.348   3.565  12.260 -0.5278  1.4877  1.6111
 5886SOL     OW26435   4.850   6.657   8.754  0.1754 -0.3852  0.1156
 5886SOL    HW126436   4.870   6.734   8.807 -1.0916 -0.9940  1.5424
 5886SOL    HW226437   4.837   6.586   8.817 -0.5829 -1.3267 -1.0396
 5887SOL     OW26438   2.259   7.322   6.182 -0.0105  0.3649  0.3691
 5887SOL    HW126439   2.202   7.254   6.147  1.1244 -0.7696  0.6535
 5887SOL    HW226440   2.207   7.362   6.253 -0.1762 -1.1979  1.1792
 5888SOL     OW26441  11.201   0.815   7.149  0.4169  0.6412  0.0277
 5888SOL    HW126442  11.184   0.721   7.155  0.6359  0.3225 -2.8743
 5888SOL    HW226443  11.268   0.831   7.215  0.9254 -1.4220  0.1015
 5889SOL     OW26444   3.992  12.451   1.921  0.3150 -0.2684  0.3081
 5889SOL    HW126445   3.909  12.491   1.947 -0.3885 -0.2639 -1.7359
 5889SOL    HW226446   3.979  12.358   1.938 -0.7881 -0.4947 -1.4737
 5890SOL     OW26447   0.689   9.231  11.812 -0.1791 -0.6561  0.8903
 5890SOL    HW126448   0.605   9.186  11.810  0.4130 -1.7654  0.0255
 5890SOL    HW226449   0.752   9.168  11.777  0.8778  0.4455  0.7090
 5891SOL     OW26450   1.069   5.080  10.923  0.5903 -0.3181 -0.4507
 5891SOL    HW126451   0.990   5.025  10.918 -0.5226  0.8414  2.4586
 5891SOL    HW226452   1.071   5.124  10.838 -2.4832  0.2778 -0.3535
 5892SOL     OW26453   0.204   3.238   0.101  0.0588  0.7543 -0.1865
 5892SOL    HW126454   0.115   3.257   0.070 -1.1991  1.5751  3.3824
 5892SOL    HW226455   0.203   3.265   0.193  3.0018 -2.2917  0.9388
 5893SOL     OW26456  12.475   8.024   1.970  0.3351  0.1727  0.1174
 5893SOL    HW126457  12.437   7.941   1.942  1.0471 -0.2817  0.4669
 5893SOL    HW226458  12.417   8.091   1.932 -0.3615 -0.4777  0.0030
 5894SOL     OW26459   7.933   8.734  11.753 -0.3707 -0.1360  0.3600
 5894SOL    HW126460   7.933   8.696  11.841  0.5646  0.8501  0.8014
 5894SOL    HW226461   8.026   8.740  11.729 -0.5874  0.2272 -0.4195
 5895SOL     OW26462   5.583   7.888   5.618 -0.3036 -0.3225 -0.2589
 5895SOL    HW126463   5.604   7.980   5.636  1.9106 -0.6620 -0.7419
 5895SOL    HW226464   5.496   7.875   5.655 -0.0279  1.5668  1.2136
 5896SOL     OW26465  11.765   5.083   5.463  0.2628 -0.2645 -0.4691
 5896SOL    HW126466  11.824   5.015   5.495  0.5888  0.3306  0.2287
 5896SOL    HW226467  11.755   5.143   5.537 -0.2012  0.3269 -0.9954
 5897SOL     OW26468  12.603   2.810   4.074 -0.0086  0.0365 -0.0913
 5897SOL    HW126469  12.672   2.876   4.083  0.7936 -0.7271 -0.5515
 5897SOL    HW226470  12.524   2.861   4.057  0.4349  0.9234  0.4088
 5898SOL     OW26471   8.704   8.511   1.642 -0.4822 -0.7006 -0.5889
 5898SOL    HW126472   8.707   8.500   1.547  0.9632 -2.3950 -0.3919
 5898SOL    HW226473   8.722   8.604   1.655 -1.7640 -0.2102 -1.9855
 5899SOL     OW26474   0.642  12.404  10.627 -0.3787  0.0129  0.1513
 5899SOL    HW126475   0.675  12.450  10.704  0.2213  0.0830 -0.1405
 5899SOL    HW226476   0.707  12.335  10.611  0.2460  0.8471 -1.0983
 5900SOL     OW26477   7.833   6.078   6.938 -0.0312 -0.7741  0.1238
 5900SOL    HW126478   7.790   6.161   6.919  1.1257 -0.1572  0.1328
 5900SOL    HW226479   7.796   6.017   6.874 -2.5518 -0.8517  1.5269
 5901SOL     OW26480   7.084  11.285   8.987  0.3081  0.4683  0.7723
 5901SOL    HW126481   7.036  11.307   8.907  1.5725  0.6477  0.0371
 5901SOL    HW226482   7.102  11.370   9.028  1.2461  0.5105  0.2897
 5902SOL     OW26483   9.724   4.540   5.163  0.0238 -0.4435  0.4372
 5902SOL    HW126484   9.754   4.622   5.201  0.6280 -0.4435 -0.0389
 5902SOL    HW226485   9.774   4.531   5.082 -1.3565 -0.3696 -0.4535
 5903SOL     OW26486   5.679   7.765   5.396  0.3115 -0.6466 -0.5580
 5903SOL    HW126487   5.636   7.806   5.471 -1.0522 -1.4285 -0.8873
 5903SOL    HW226488   5.607   7.738   5.339  1.3027  1.3647 -2.9798
 5904SOL     OW26489   5.628   5.101   3.480  0.0393 -0.2131 -0.3264
 5904SOL    HW126490   5.579   5.032   3.523  0.6757 -0.3608  0.1850
 5904SOL    HW226491   5.718   5.068   3.476  0.3031  0.4782 -0.2925
 5905SOL     OW26492   2.187   0.264  11.829  0.0548  0.2326  0.1178
 5905SOL    HW126493   2.155   0.189  11.878  1.8688 -1.9110 -1.7634
 5905SOL    HW226494   2.128   0.336  11.853 -1.4053 -1.6132  2.4307
 5906SOL     OW26495  10.889  11.670   7.597  0.1091 -0.2681 -0.2647
 5906SOL    HW126496  10.969  11.649   7.551  0.2617  0.6634 -0.4472
 5906SOL    HW226497  10.824  11.686   7.528  0.2178  0.6577 -0.1710
 5907SOL     OW26498  10.543   9.351   7.302  1.2709  0.0396 -0.0142
 5907SOL    HW126499  10.597   9.386   7.373  0.5372 -1.1888  1.1924
 5907SOL    HW226500  10.478   9.296   7.346  0.0252  0.2230 -1.5575
 5908SOL     OW26501   8.344   2.035   0.338  0.2059  0.5403 -0.1207
 5908SOL    HW126502   8.367   1.977   0.410  0.3278  2.2428  1.2762
 5908SOL    HW226503   8.262   1.999   0.303 -0.2191  0.0529  1.3180
 5909SOL     OW26504   0.771   3.988   3.684 -0.0002 -0.7114 -0.3201
 5909SOL    HW126505   0.741   3.898   3.673 -1.1249 -0.3667 -0.2092
 5909SOL    HW226506   0.818   3.988   3.768 -0.4197 -1.0849 -0.0871
 5910SOL     OW26507   7.830   4.903   0.667 -0.6459  0.1763 -0.3748
 5910SOL    HW126508   7.824   4.938   0.578 -0.1168 -2.0101 -1.3209
 5910SOL    HW226509   7.880   4.822   0.658 -0.9738 -0.3360  1.8569
 5911SOL     OW26510   8.785   3.652  11.675  0.4149 -0.5301  0.2410
 5911SOL    HW126511   8.771   3.572  11.624 -0.8809 -1.1326  1.5025
 5911SOL    HW226512   8.714   3.654  11.739 -0.5429  2.4370 -0.7204
 5912SOL     OW26513   6.568   0.187   3.869 -0.1769 -0.2321  0.4738
 5912SOL    HW126514   6.654   0.176   3.829 -0.6751 -0.6530 -0.5226
 5912SOL    HW226515   6.586   0.211   3.960  0.9934 -0.8816  0.4277
 5913SOL     OW26516   4.965  10.744  12.054 -0.2742 -0.2755  0.8015
 5913SOL    HW126517   5.037  10.720  12.112  0.3319  0.1485  0.2442
 5913SOL    HW226518   4.997  10.724  11.966  0.5614  3.0746  0.2146
 5914SOL     OW26519   1.406   4.314   2.243 -0.7719  0.4849  0.1664
 5914SOL    HW126520   1.472   4.353   2.302 -0.1268 -0.4133  0.0608
 5914SOL    HW226521   1.447   4.319   2.157 -1.8704  2.1390 -0.2999
 5915SOL     OW26522   7.560   3.570   8.670 -0.7012 -0.1041 -0.3517
 5915SOL    HW126523   7.470   3.598   8.680 -0.3389  0.5400  1.4358
 5915SOL    HW226524   7.588   3.545   8.758  0.5470 -1.3359 -1.0386
 5916SOL     OW26525   9.671   8.503   4.833  0.1604  0.0296  0.2692
 5916SOL    HW126526   9.757   8.464   4.816  0.0768  0.2875 -0.8816
 5916SOL    HW226527   9.660   8.567   4.762 -0.5656  0.7012  0.9607
 5917SOL     OW26528   7.143   4.452   6.142 -0.4777  0.1577  0.6547
 5917SOL    HW126529   7.227   4.406   6.150  0.3612  1.5719  0.1971
 5917SOL    HW226530   7.084   4.404   6.201 -0.1963 -2.6757 -1.1341
 5918SOL     OW26531   2.800   0.118   6.466 -0.5421 -0.2675  0.2327
 5918SOL    HW126532   2.746   0.190   6.434 -1.2415 -0.4897  0.8732
 5918SOL    HW226533   2.768   0.103   6.555 -0.6400 -1.5955 -0.0100
 5919SOL     OW26534   8.096   5.936   0.165 -0.2635  0.4033 -0.2106
 5919SOL    HW126535   8.064   5.982   0.087  1.3935 -0.7410 -1.6742
 5919SOL    HW226536   8.022   5.884   0.194 -1.5325  2.3641  0.2356
 5920SOL     OW26537   1.673   5.634   7.349 -0.0170 -0.4678 -0.1501
 5920SOL    HW126538   1.607   5.635   7.279  0.2395  0.3622 -0.3928
 5920SOL    HW226539   1.688   5.541   7.366 -0.3195 -0.6802 -0.9784
 5921SOL     OW26540   9.816   1.684   5.481  0.1024 -0.1541  0.2364
 5921SOL    HW126541   9.850   1.604   5.521 -0.6218 -0.3572  0.4706
 5921SOL    HW226542   9.772   1.654   5.401 -0.3598 -0.0241  0.4371
 5922SOL     OW26543   8.660   5.908   7.174 -0.1925  0.1997  0.3434
 5922SOL    HW126544   8.740   5.863   7.201 -0.2588  0.9746  1.9001
 5922SOL    HW226545   8.673   5.999   7.199 -0.5953  0.8458 -1.5899
 5923SOL     OW26546   1.433   5.531   0.066 -0.4215  0.0384  0.1254
 5923SOL    HW126547   1.490   5.552  -0.008 -1.3980  1.3481 -0.2868
 5923SOL    HW226548   1.443   5.436   0.077  1.1078  0.0885 -0.5183
 5924SOL     OW26549   1.545   0.160  11.161 -0.9889  0.3042 -0.8126
 5924SOL    HW126550   1.593   0.127  11.085 -0.4380 -1.6472  0.3156
 5924SOL    HW226551   1.614   0.187  11.223 -1.2214 -2.1781  0.6725
 5925SOL     OW26552  12.452   6.419   7.696 -0.1231  0.7551 -0.3516
 5925SOL    HW126553  12.508   6.375   7.632 -0.2638  1.1313 -0.7418
 5925SOL    HW226554  12.490   6.397   7.781 -1.1716 -1.5235 -0.4023
 5926SOL     OW26555  12.042   0.155   8.402  0.8480  0.0653 -0.4074
 5926SOL    HW126556  11.955   0.127   8.375  0.6166  1.0373 -0.7175
 5926SOL    HW226557  12.031   0.186   8.492  0.6517  1.0728 -0.7582
 5927SOL     OW26558   3.485  10.968   1.155 -0.5191  0.4920 -0.3009
 5927SOL    HW126559   3.432  10.937   1.228  1.0211  0.2880  0.7734
 5927SOL    HW226560   3.546  10.896   1.137 -0.3951  0.8262 -1.3159
 5928SOL     OW26561   0.406   8.201   8.495  0.3669 -0.5554 -0.2415
 5928SOL    HW126562   0.413   8.124   8.439 -0.3423 -2.1959  1.7982
 5928SOL    HW226563   0.482   8.254   8.472  0.3537 -1.3410 -2.3734
 5929SOL     OW26564   1.931  11.745   5.465 -0.1628  0.1449 -0.8329
 5929SOL    HW126565   1.881  11.741   5.546  0.0796 -1.0569 -0.7189
 5929SOL    HW226566   1.926  11.836   5.438  1.6865  1.1398  1.7590
 5930SOL     OW26567   8.833   3.625   6.428  0.1913 -0.1091 -0.0116
 5930SOL    HW126568   8.828   3.575   6.346 -0.9929  0.0530 -0.0550
 5930SOL    HW226569   8.761   3.688   6.422 -1.2200 -1.4040  2.0070
 5931SOL     OW26570  11.331   1.384   0.334  0.2498 -0.3610 -0.0904
 5931SOL    HW126571  11.236   1.395   0.331  0.3315  0.4910  0.0740
 5931SOL    HW226572  11.353   1.395   0.427  0.5552 -0.0807 -0.1943
 5932SOL     OW26573   4.381   5.171   0.089 -0.1848 -0.1497  0.1601
 5932SOL    HW126574   4.286   5.179   0.081  0.0248  2.7340 -0.5658
 5932SOL    HW226575   4.405   5.239   0.152  1.4251 -0.7421  0.2170
 5933SOL     OW26576   1.703   1.962   0.091  0.2157  0.0430 -0.3898
 5933SOL    HW126577   1.650   2.014   0.152  0.6080  0.6881 -0.5871
 5933SOL    HW226578   1.639   1.914   0.039 -0.1206 -0.8034  0.7609
 5934SOL     OW26579   9.206   1.551   3.324  0.3215 -0.1847  0.0846
 5934SOL    HW126580   9.291   1.584   3.297 -0.0112  0.0791 -0.6796
 5934SOL    HW226581   9.217   1.525   3.416  0.9090  0.9344  0.3442
 5935SOL     OW26582   1.322   9.083   4.710 -0.6313  0.0951 -0.0182
 5935SOL    HW126583   1.231   9.058   4.724 -0.6275 -0.8314 -1.4105
 5935SOL    HW226584   1.370   9.001   4.715 -0.1368  0.2939 -1.1640
 5936SOL     OW26585  12.188   5.247  12.376 -0.1992  0.1588 -0.1509
 5936SOL    HW126586  12.127   5.294  12.320 -0.4099  0.7970  0.5862
 5936SOL    HW226587  12.139   5.169  12.405 -0.4109  0.3028 -0.1216
 5937SOL     OW26588   6.327   0.736   8.132  0.2654  0.1564  0.0296
 5937SOL    HW126589   6.379   0.689   8.067 -0.3135 -0.8498  0.2542
 5937SOL    HW226590   6.343   0.688   8.213  1.3637  1.6838  0.7709
 5938SOL     OW26591   1.504   0.563  12.033 -0.1571 -0.0198  0.2736
 5938SOL    HW126592   1.501   0.602  12.120  0.0206 -0.5628  0.5235
 5938SOL    HW226593   1.434   0.608  11.984  0.8324  1.4928  0.1817
 5939SOL     OW26594   0.121   6.839   6.218  0.1853 -0.0074 -0.2061
 5939SOL    HW126595   0.045   6.844   6.160  1.4055 -0.6711 -1.9467
 5939SOL    HW226596   0.195   6.861   6.161  1.7199 -2.9842  0.4749
 5940SOL     OW26597   8.594  12.412   3.944 -0.0923  0.3343  0.2222
 5940SOL    HW126598   8.547  12.397   4.026 -1.7924 -0.3454 -0.8226
 5940SOL    HW226599   8.589  12.328   3.898 -1.0686  1.2720 -1.4811
 5941SOL     OW26600  12.266  12.179   1.441 -0.5843  0.2513  0.3362
 5941SOL    HW126601  12.327  12.119   1.399 -0.3027 -0.0010  1.0870
 5941SOL    HW226602  12.278  12.262   1.394  0.3155  0.1963  0.4542
 5942SOL     OW26603  10.571   1.731  10.603 -0.0822 -0.6479  0.1583
 5942SOL    HW126604  10.562   1.818  10.641  1.1918 -0.7381  0.7090
 5942SOL    HW226605  10.522   1.735  10.521 -0.3235  0.4760  0.3498
 5943SOL     OW26606   3.970  11.028   2.254 -0.1848  0.0677 -0.1832
 5943SOL    HW126607   3.878  11.023   2.226  0.1129 -0.9466 -1.0212
 5943SOL    HW226608   4.010  11.090   2.194 -0.1890  0.0901 -0.1631
 5944SOL     OW26609   6.447  10.907  12.408 -0.1520 -0.0597 -0.5883
 5944SOL    HW126610   6.539  10.886  12.425 -0.1603  0.2810 -0.1057
 5944SOL    HW226611   6.444  11.002  12.400 -0.8182  0.1795  1.7908
 5945SOL     OW26612   5.752   1.113   7.415  0.0502  0.3651 -0.6490
 5945SOL    HW126613   5.819   1.055   7.450  0.5548  1.5470  0.4349
 5945SOL    HW226614   5.790   1.200   7.421 -1.1782  0.9581 -1.0320
 5946SOL     OW26615   3.339  10.168   7.009 -0.2777 -0.0316 -0.3648
 5946SOL    HW126616   3.422  10.121   7.011 -0.2872 -0.2190 -2.5206
 5946SOL    HW226617   3.360  10.255   7.045  0.2791 -0.8153  1.3038
 5947SOL     OW26618   2.452   2.284   3.654 -0.1168 -0.3449 -0.0017
 5947SOL    HW126619   2.380   2.341   3.627  0.6224 -0.0751 -1.4649
 5947SOL    HW226620   2.499   2.263   3.573  1.1851 -0.8855  0.8541
 5948SOL     OW26621   2.120   5.596   1.309  0.0929  0.2845 -0.2348
 5948SOL    HW126622   2.116   5.501   1.326  1.8778  0.1245 -0.5828
 5948SOL    HW226623   2.137   5.602   1.215  1.3673  0.9151  0.0294
 5949SOL     OW26624   4.993  11.810   7.303  0.1345 -0.1439 -0.0867
 5949SOL    HW126625   5.032  11.803   7.215  0.4071  1.1818 -0.1023
 5949SOL    HW226626   5.012  11.726   7.344  0.5969 -0.5439 -1.0705
 5950SOL     OW26627   6.681   6.943  10.168  0.0190 -0.3453  0.1797
 5950SOL    HW126628   6.600   6.894  10.184 -1.3241  1.2607 -1.2506
 5950SOL    HW226629   6.692   6.998  10.245 -0.6448 -0.0797  0.0896
 5951SOL     OW26630   9.275   0.349  10.875 -0.1040  0.0238  0.3271
 5951SOL    HW126631   9.275   0.394  10.791 -1.3357  0.6528  0.6551
 5951SOL    HW226632   9.368   0.333  10.893  0.2725  1.2133 -0.4372
 5952SOL     OW26633  10.253   5.027   1.668  0.4044 -0.1154  0.0691
 5952SOL    HW126634  10.260   4.931   1.666 -1.5140 -0.3180  0.5368
 5952SOL    HW226635  10.252   5.049   1.761 -2.6063 -0.0425  0.1136
 5953SOL     OW26636   4.666  11.823   5.263  0.1834  0.4790  0.5812
 5953SOL    HW126637   4.590  11.852   5.314  0.0582  1.3344 -0.0521
 5953SOL    HW226638   4.629  11.765   5.197  0.2844 -0.2572  1.1571
 5954SOL     OW26639   9.663   1.615   6.180 -0.7148 -0.2603 -0.7127
 5954SOL    HW126640   9.607   1.604   6.257 -0.3712 -2.2925 -0.6982
 5954SOL    HW226641   9.730   1.677   6.208 -1.3150 -0.0143  0.2171
 5955SOL     OW26642   8.543   1.622   9.855  0.2924 -0.0179 -0.2588
 5955SOL    HW126643   8.472   1.633   9.918  0.9168  1.1379  0.2759
 5955SOL    HW226644   8.501   1.632   9.770 -0.0672  1.6487  0.0717
 5956SOL     OW26645   5.344  10.232   3.829 -0.3574 -0.5488  0.3952
 5956SOL    HW126646   5.338  10.267   3.917  0.5699  0.4859  0.0670
 5956SOL    HW226647   5.415  10.168   3.833  1.0984  0.9748 -0.0321
 5957SOL     OW26648   8.819   5.026   7.071  0.4164 -0.5205  0.9559
 5957SOL    HW126649   8.826   4.938   7.034  0.9949  0.2328 -0.8348
 5957SOL    HW226650   8.767   5.075   7.007 -0.5195  0.2652  2.2833
 5958SOL     OW26651  12.289   5.255   6.324  0.1516  0.6634  0.5228
 5958SOL    HW126652  12.325   5.311   6.255  1.2555 -0.6477 -0.0117
 5958SOL    HW226653  12.365   5.211   6.361 -0.6416 -0.1737  1.2010
 5959SOL     OW26654   5.943  11.160  10.336  0.2925  0.2486  0.4607
 5959SOL    HW126655   6.009  11.208  10.387 -0.0844 -0.8531  2.0586
 5959SOL    HW226656   5.887  11.229  10.299  1.9750  1.1724 -0.4853
 5960SOL     OW26657   9.855   4.622   9.397 -0.3837  0.4041  0.0964
 5960SOL    HW126658   9.795   4.639   9.325 -0.5799  0.7103  0.3312
 5960SOL    HW226659   9.846   4.698   9.454  0.6787  0.7558 -0.1812
 5961SOL     OW26660  10.421  12.405   3.912 -0.3209  0.5454 -0.2148
 5961SOL    HW126661  10.475  12.483   3.922 -1.8962  1.6497  0.0408
 5961SOL    HW226662  10.396  12.404   3.820 -1.9946  1.5422  0.1986
 5962SOL     OW26663  12.157   3.083   7.338 -0.6435 -0.3089 -0.6202
 5962SOL    HW126664  12.126   3.069   7.248 -1.7346 -0.0348 -0.2957
 5962SOL    HW226665  12.228   3.147   7.328 -1.2381  0.2830 -1.2270
 5963SOL     OW26666   1.812  12.219   2.646 -0.3561 -0.5421  0.0246
 5963SOL    HW126667   1.787  12.222   2.739  0.4025  2.5217  0.2446
 5963SOL    HW226668   1.733  12.245   2.599  0.1180  1.1498  0.1093
 5964SOL     OW26669   7.741   9.313   4.071  0.5668 -0.3904 -0.2236
 5964SOL    HW126670   7.671   9.371   4.101 -0.6603 -0.8167 -2.1003
 5964SOL    HW226671   7.766   9.263   4.149 -0.6445  0.3649  0.6772
 5965SOL     OW26672  12.554   9.548   3.501 -0.7351 -0.5033  0.0702
 5965SOL    HW126673  12.552   9.598   3.419  0.3564  0.5134  0.6231
 5965SOL    HW226674  12.622   9.591   3.553 -1.6335 -0.9241  1.6447
 5966SOL     OW26675   7.890   2.788   4.234 -0.1683  0.3851  0.3110
 5966SOL    HW126676   7.823   2.721   4.219  0.0828  0.1143  0.3778
 5966SOL    HW226677   7.870   2.857   4.171  0.1833 -0.2210 -0.4915
 5967SOL     OW26678   8.384   3.760  11.845  0.0337 -0.2004 -0.4982
 5967SOL    HW126679   8.405   3.802  11.761 -0.1733 -0.2452 -0.5742
 5967SOL    HW226680   8.455   3.698  11.859 -0.3988 -0.8566 -1.1012
 5968SOL     OW26681  11.851   6.556   6.085 -0.5265  0.1770  0.0475
 5968SOL    HW126682  11.928   6.610   6.104 -0.3179  0.5188 -1.5550
 5968SOL    HW226683  11.786   6.619   6.053 -0.8099 -0.3349 -0.3993
 5969SOL     OW26684   2.865  11.636   0.249 -0.3077  0.0622  0.2135
 5969SOL    HW126685   2.898  11.723   0.229  0.9045 -0.3489  0.3625
 5969SOL    HW226686   2.833  11.603   0.164  2.1022 -0.5316 -0.5388
 5970SOL     OW26687   7.262  10.333  10.540 -0.2356  0.2733  0.1240
 5970SOL    HW126688   7.315  10.392  10.593 -0.1257  0.7323 -0.4850
 5970SOL    HW226689   7.308  10.249  10.543 -0.3697  0.2167  0.9589
 5971SOL     OW26690   6.304   7.810   7.414  0.5132 -0.0586 -0.3167
 5971SOL    HW126691   6.213   7.839   7.422  0.3346 -0.9746  1.8635
 5971SOL    HW226692   6.354   7.890   7.400 -0.6092  0.4686 -1.4708
 5972SOL     OW26693   6.933   1.221   4.044  0.2980  0.0092 -0.7851
 5972SOL    HW126694   6.861   1.233   3.983  0.6587 -0.6183 -1.3592
 5972SOL    HW226695   6.899   1.160   4.110  0.1657  0.0478 -0.8183
 5973SOL     OW26696   3.577   8.422   8.061 -0.1735  0.0850 -0.2189
 5973SOL    HW126697   3.547   8.344   8.013  0.3400  0.3425 -0.9776
 5973SOL    HW226698   3.672   8.412   8.067 -0.0646  0.8178 -0.6259
 5974SOL     OW26699   7.263   5.838   6.922  0.3503  0.7179 -0.4716
 5974SOL    HW126700   7.258   5.933   6.905 -1.6297  0.6457 -0.5753
 5974SOL    HW226701   7.211   5.825   7.001 -1.7218 -0.5552 -1.9307
 5975SOL     OW26702   5.906   4.045   1.506 -0.1754 -0.0206  0.3558
 5975SOL    HW126703   5.930   3.954   1.523 -1.5201 -0.6282 -0.8668
 5975SOL    HW226704   5.859   4.073   1.585  1.1705 -0.0037  1.1909
 5976SOL     OW26705   0.671   5.656   6.263  0.8882 -0.3203 -0.2489
 5976SOL    HW126706   0.765   5.673   6.258  0.7752 -0.1343 -2.4288
 5976SOL    HW226707   0.655   5.591   6.195 -0.6549  0.0129 -0.2370
 5977SOL     OW26708   4.183   4.273  10.472 -0.4503 -0.1599  0.1347
 5977SOL    HW126709   4.262   4.249  10.520 -1.1076  0.7713  1.8012
 5977SOL    HW226710   4.191   4.231  10.387  1.6817 -0.3282  0.3864
 5978SOL     OW26711  11.904   5.646   7.691 -0.6948  0.6357 -0.3190
 5978SOL    HW126712  11.898   5.664   7.784  0.7650  2.3911 -0.5134
 5978SOL    HW226713  11.840   5.705   7.651 -0.3476  0.8830 -0.5161
 5979SOL     OW26714   0.514   8.434   6.708  0.2051  0.2892  0.0148
 5979SOL    HW126715   0.575   8.507   6.722  2.7425 -1.6063 -0.4076
 5979SOL    HW226716   0.445   8.448   6.773  0.7050  2.9139  0.0905
 5980SOL     OW26717  11.834   0.665   0.127 -0.5841 -0.1367  0.0521
 5980SOL    HW126718  11.767   0.724   0.093 -0.5427  0.8742  1.6413
 5980SOL    HW226719  11.912   0.686   0.076 -1.1203 -0.4096 -0.9149
 5981SOL     OW26720   6.459  11.496   6.337  0.0950 -0.1649 -0.0054
 5981SOL    HW126721   6.365  11.514   6.349  0.6767  2.7330  1.1838
 5981SOL    HW226722   6.485  11.556   6.267  1.6110  1.6011  1.9369
 5982SOL     OW26723   5.875   8.327   4.235 -0.0114  0.0322 -0.1287
 5982SOL    HW126724   5.833   8.406   4.201  0.5536  1.7425  2.8429
 5982SOL    HW226725   5.804   8.279   4.279 -0.0216 -0.2878 -0.4835
 5983SOL     OW26726   8.292  11.944   0.234 -0.3335  0.2469 -0.2503
 5983SOL    HW126727   8.214  11.985   0.271 -1.0022 -1.5955  0.4878
 5983SOL    HW226728   8.338  11.908   0.310  1.4622  1.5829 -0.6278
 5984SOL     OW26729  12.361   4.215   1.969 -0.6512 -0.3274 -0.2630
 5984SOL    HW126730  12.450   4.249   1.977  0.3218 -2.5437 -0.8687
 5984SOL    HW226731  12.305   4.292   1.975  1.1609  0.9240  2.2644
 5985SOL     OW26732   4.718   4.574  10.879  0.0480  0.7899 -0.3147
 5985SOL    HW126733   4.749   4.483  10.887 -0.2074  0.7821  0.8287
 5985SOL    HW226734   4.784   4.626  10.925 -0.4065  1.0377  0.0758
 5986SOL     OW26735   3.886  11.203   9.902  0.2861  0.5203 -0.0443
 5986SOL    HW126736   3.981  11.206   9.908  0.5508  1.3162 -2.9639
 5986SOL    HW226737   3.868  11.134   9.838 -1.3285 -1.4144  2.3058
 5987SOL     OW26738  11.351   0.440   8.080  0.0751  0.4646 -0.0966
 5987SOL    HW126739  11.431   0.469   8.035  0.6797  0.9785  1.2476
 5987SOL    HW226740  11.382   0.375   8.143 -0.5416  0.7771  0.5326
 5988SOL     OW26741   0.834   5.274   5.253 -0.1659  0.2774 -0.2087
 5988SOL    HW126742   0.887   5.259   5.331 -0.5801 -0.5693 -0.0837
 5988SOL    HW226743   0.883   5.341   5.204 -0.4088  1.5847  1.2466
 5989SOL     OW26744  10.430   1.285   3.246 -0.3449  0.6327  0.1425
 5989SOL    HW126745  10.364   1.250   3.186 -0.0421 -0.3185  0.3537
 5989SOL    HW226746  10.414   1.380   3.246 -1.3976  0.4714 -0.1755
 5990SOL     OW26747  11.111   4.332   8.689 -0.2572  0.0602  0.4587
 5990SOL    HW126748  11.066   4.415   8.702  0.5567  0.8100 -1.2619
 5990SOL    HW226749  11.120   4.296   8.778 -1.2196  1.4692  1.1667
 5991SOL     OW26750   5.509   1.373   7.842 -0.0205  0.1446  0.3879
 5991SOL    HW126751   5.525   1.329   7.759  1.6430  1.2463  0.0678
 5991SOL    HW226752   5.418   1.353   7.863  0.1688 -1.9878 -0.5677
 5992SOL     OW26753   4.611   4.139   4.186 -0.0022  0.1451  0.6736
 5992SOL    HW126754   4.667   4.073   4.145 -1.2762 -1.4732  1.4419
 5992SOL    HW226755   4.630   4.132   4.279 -0.4199  0.6298  0.8011
 5993SOL     OW26756   8.477  11.585   5.059 -0.3021  0.0356  0.7055
 5993SOL    HW126757   8.437  11.520   5.002  0.6171  0.5709 -0.6053
 5993SOL    HW226758   8.404  11.639   5.089 -0.7172  0.3235 -0.7518
 5994SOL     OW26759   1.778   2.937   2.716 -0.2338 -0.1050  0.0029
 5994SOL    HW126760   1.712   2.879   2.755  0.8248 -0.5156  1.2665
 5994SOL    HW226761   1.739   2.967   2.634 -1.9552 -0.3794  0.6886
 5995SOL     OW26762   2.829   7.075   3.299  0.4722  1.0006  0.4005
 5995SOL    HW126763   2.859   7.039   3.383 -0.9096  1.3567  1.0742
 5995SOL    HW226764   2.894   7.045   3.236  0.3922 -1.0893  1.2270
 5996SOL     OW26765  12.546  12.439  10.963 -0.0654  0.7796  0.3312
 5996SOL    HW126766  12.612  12.491  11.009 -0.1287  0.3336  0.9292
 5996SOL    HW226767  12.553  12.351  11.001 -0.2825  0.4606 -0.3430
 5997SOL     OW26768   7.650   2.465   6.149  0.6643  0.3315 -0.4631
 5997SOL    HW126769   7.636   2.455   6.243  0.8910  0.8022 -0.3769
 5997SOL    HW226770   7.692   2.383   6.123  0.5026  0.1540 -0.1740
 5998SOL     OW26771   4.426   5.384   1.781  0.1354 -0.0448  0.0911
 5998SOL    HW126772   4.334   5.398   1.758  0.4054 -0.4919 -1.4158
 5998SOL    HW226773   4.466   5.470   1.770 -0.1477  0.2240  1.0708
 5999SOL     OW26774  10.875   3.701  11.088  0.1506 -0.1485  0.0152
 5999SOL    HW126775  10.870   3.624  11.032 -1.2603 -1.0484  1.3195
 5999SOL    HW226776  10.952   3.687  11.143 -0.2038 -0.7222  0.3691
 6000SOL     OW26777   5.265   1.083   8.930 -0.5001  0.0605 -0.5975
 6000SOL    HW126778   5.296   1.154   8.986 -0.1969  0.5108 -1.3243
 6000SOL    HW226779   5.215   1.026   8.989 -0.6644  0.8204  0.0110
 6001SOL     OW26780  10.255   2.673   3.971  0.6430  0.4720  0.7571
 6001SOL    HW126781  10.305   2.703   3.895 -0.3987  1.2822  0.3520
 6001SOL    HW226782  10.225   2.754   4.013 -2.3544  0.1236 -0.4260
 6002SOL     OW26783   7.480   1.755  11.830 -0.1798  0.1244 -0.4508
 6002SOL    HW126784   7.418   1.790  11.766  2.0308  2.5620 -1.4718
 6002SOL    HW226785   7.439   1.772  11.915 -2.2650 -1.3233 -1.1029
 6003SOL     OW26786   4.140   6.303   9.472 -0.1950 -0.0853  0.0711
 6003SOL    HW126787   4.136   6.367   9.543  0.9247 -0.1548  0.2120
 6003SOL    HW226788   4.192   6.231   9.507 -1.1444 -0.9243 -0.2140
 6004SOL     OW26789   6.319   3.601   4.453  0.3497  0.3850 -0.3318
 6004SOL    HW126790   6.362   3.531   4.502 -0.1551  0.6016  0.4348
 6004SOL    HW226791   6.244   3.558   4.411 -0.0998  0.5034  0.3340
 6005SOL     OW26792   8.681   9.546   2.361 -0.4161 -0.4778 -0.2495
 6005SOL    HW126793   8.654   9.533   2.270  0.4617 -0.8171 -0.4754
 6005SOL    HW226794   8.651   9.634   2.383 -1.5288 -0.7695 -0.5296
 6006SOL     OW26795   9.104   7.076   0.856  0.0804  0.0686  0.4731
 6006SOL    HW126796   9.031   7.058   0.915 -2.1302  2.1829 -1.4318
 6006SOL    HW226797   9.137   6.989   0.831 -1.1282 -0.9113  2.0789
 6007SOL     OW26798  11.813   0.403   0.500  0.3697 -0.3614  0.1690
 6007SOL    HW126799  11.906   0.381   0.495  0.3924  0.0560 -2.1637
 6007SOL    HW226800  11.776   0.370   0.418 -0.7507  2.8557 -0.7430
 6008SOL     OW26801   1.238  11.182   2.382 -0.0424 -0.0283 -0.0190
 6008SOL    HW126802   1.202  11.269   2.364  0.7876  0.0769 -1.2735
 6008SOL    HW226803   1.297  11.196   2.456  0.0365  0.4546 -0.1701
 6009SOL     OW26804   6.614   7.344   1.091 -1.3358  0.1456  0.2297
 6009SOL    HW126805   6.543   7.365   1.152 -0.7881  0.1677  0.8646
 6009SOL    HW226806   6.650   7.262   1.123 -1.1140  0.1009 -0.1306
 6010SOL     OW26807   7.179  11.931   9.945 -0.3516 -0.3752 -0.2339
 6010SOL    HW126808   7.250  11.870   9.929 -0.2015  0.2950 -2.3907
 6010SOL    HW226809   7.189  11.999   9.878 -1.6145  1.0232  0.9031
 6011SOL     OW26810  12.275   4.468  10.941 -0.3975  0.5912 -0.2455
 6011SOL    HW126811  12.366   4.494  10.954 -0.3428  0.8661 -1.0901
 6011SOL    HW226812  12.241   4.532  10.878 -0.3444 -1.1679 -2.1609
 6012SOL     OW26813  12.233   7.347   2.331 -0.1645 -0.0244  0.2962
 6012SOL    HW126814  12.163   7.399   2.291 -0.1655 -0.8209 -0.7865
 6012SOL    HW226815  12.244   7.272   2.273 -0.5271 -1.5359  2.0747
 6013SOL     OW26816   8.987   3.107   6.644  0.1544 -0.2806 -0.3507
 6013SOL    HW126817   9.053   3.051   6.604  0.4170 -0.4973  0.3766
 6013SOL    HW226818   9.031   3.146   6.719 -0.4992 -0.2985  0.0484
 6014SOL     OW26819  11.757   9.623   2.370 -0.0656  0.0229  0.3298
 6014SOL    HW126820  11.841   9.668   2.359  1.1435 -1.6904  1.9550
 6014SOL    HW226821  11.781   9.531   2.384 -2.2978 -0.7042 -0.2617
 6015SOL     OW26822   3.384   4.420   3.736  0.0772  0.1574 -0.5471
 6015SOL    HW126823   3.306   4.373   3.706  0.1009 -1.2168  1.3110
 6015SOL    HW226824   3.445   4.416   3.663 -1.0620 -0.0471 -1.5070
 6016SOL     OW26825   1.906   5.792  10.304  0.2858 -0.1624  0.4049
 6016SOL    HW126826   1.811   5.805  10.298  0.1158 -0.1417  2.4212
 6016SOL    HW226827   1.916   5.720  10.367  1.6367  0.9386  1.5000
 6017SOL     OW26828  10.446   9.873  11.002 -0.6761 -0.5257  0.2173
 6017SOL    HW126829  10.534   9.912  11.002 -1.2429  1.0064 -2.4320
 6017SOL    HW226830  10.393   9.934  11.052 -0.9413  0.6024 -1.3720
 6018SOL     OW26831   3.479   3.179   2.628  0.6048  0.3251 -0.4096
 6018SOL    HW126832   3.554   3.222   2.669  0.8475 -0.3426 -0.1404
 6018SOL    HW226833   3.409   3.188   2.693  0.2437  1.5181 -0.9247
 6019SOL     OW26834   8.129   1.976   0.179 -0.1968 -0.7911 -0.7938
 6019SOL    HW126835   8.158   2.048   0.123  0.1672 -0.3880 -0.0930
 6019SOL    HW226836   8.034   1.988   0.185 -0.2584 -0.9192 -1.4322
 6020SOL     OW26837  10.125   3.766   6.231  0.0464  0.3440  0.3154
 6020SOL    HW126838  10.072   3.754   6.310 -0.5433  2.0045  0.2275
 6020SOL    HW226839  10.085   3.841   6.187  1.6619  0.8070 -0.4519
 6021SOL     OW26840   5.342  11.519   9.845  0.0228 -0.2080  0.1229
 6021SOL    HW126841   5.383  11.501   9.929 -0.0561  0.7133  0.3744
 6021SOL    HW226842   5.415  11.521   9.783  0.3469  1.0733  0.5100
 6022SOL     OW26843   0.175   6.944   4.779  0.1157  0.0256 -0.1010
 6022SOL    HW126844   0.205   6.887   4.708 -0.9370  1.3377 -1.6806
 6022SOL    HW226845   0.115   6.889   4.830  1.0615 -1.0057 -0.0641
 6023SOL     OW26846   2.780  11.485   2.345 -0.3317  0.4290  0.3179
 6023SOL    HW126847   2.703  11.462   2.294 -0.1200  0.9972 -0.2659
 6023SOL    HW226848   2.780  11.423   2.418 -0.3221 -0.7710 -0.6753
 6024SOL     OW26849   4.136   7.672   7.563 -0.0178 -0.1328  0.7883
 6024SOL    HW126850   4.170   7.762   7.558  0.6307 -0.3985  0.0856
 6024SOL    HW226851   4.076   7.673   7.637 -0.0386  0.8891  0.7755
 6025SOL     OW26852  11.354  12.557   6.541 -0.0130 -0.1580  0.5153
 6025SOL    HW126853  11.316  12.478   6.579 -0.0405 -0.9250 -1.0452
 6025SOL    HW226854  11.279  12.608   6.511  0.0787 -0.5565 -0.4145
 6026SOL     OW26855   7.570   7.625   2.728 -0.0742 -0.1870  0.5764
 6026SOL    HW126856   7.540   7.644   2.639 -0.1610 -1.6450  0.2663
 6026SOL    HW226857   7.656   7.585   2.717  0.3185  0.4557  1.2168
 6027SOL     OW26858   0.902  12.436   4.633 -0.3203  0.0389  0.1018
 6027SOL    HW126859   0.811  12.461   4.652 -0.5662 -0.8560  0.1540
 6027SOL    HW226860   0.903  12.340   4.643 -0.3130 -0.5203 -3.6569
 6028SOL     OW26861   7.086   7.300  10.778 -0.0059  0.2196  0.5490
 6028SOL    HW126862   7.126   7.376  10.736  0.6068 -0.7683 -0.7570
 6028SOL    HW226863   7.148   7.229  10.762 -1.6018 -1.0564 -0.3103
 6029SOL     OW26864   5.986   7.725   2.449 -0.2434  0.3529  0.0027
 6029SOL    HW126865   6.031   7.730   2.533 -0.7084 -0.0144  0.2769
 6029SOL    HW226866   5.894   7.717   2.472 -0.2616 -1.1272 -0.5194
 6030SOL     OW26867  11.503   3.869  10.193 -0.4105  0.8373  0.4110
 6030SOL    HW126868  11.597   3.854  10.185 -0.4799  0.0075  1.0297
 6030SOL    HW226869  11.466   3.842  10.109 -0.1690  0.5517  0.3979
 6031SOL     OW26870   3.118   9.729   8.875  0.2788 -0.1858 -0.0193
 6031SOL    HW126871   3.079   9.678   8.945 -1.4240  0.1379 -0.6831
 6031SOL    HW226872   3.212   9.731   8.895 -0.0989 -0.5380  1.9302
 6032SOL     OW26873  10.369   8.732   3.819 -0.3147  0.2731  0.2001
 6032SOL    HW126874  10.397   8.704   3.732  0.2652 -2.3532  1.1499
 6032SOL    HW226875  10.441   8.785   3.852  0.3801 -0.4340 -0.1544
 6033SOL     OW26876   7.474   8.660  12.221 -0.4459 -0.2521  0.3389
 6033SOL    HW126877   7.511   8.572  12.219 -2.5366 -1.2383 -2.6012
 6033SOL    HW226878   7.502   8.700  12.138 -0.9466  1.2257  0.8443
 6034SOL     OW26879   8.973   6.991   7.536 -0.1504  0.2544 -0.5750
 6034SOL    HW126880   8.952   7.039   7.456  0.0025  0.5992 -0.4105
 6034SOL    HW226881   8.918   6.913   7.532  1.4205 -0.8295 -2.0736
 6035SOL     OW26882   9.599   2.660   7.002 -0.2086 -0.4953  0.0425
 6035SOL    HW126883   9.560   2.668   6.915  0.6026 -1.1982 -0.4042
 6035SOL    HW226884   9.540   2.708   7.060 -0.4441  0.5060 -0.9919
 6036SOL     OW26885   3.701   4.849   9.636 -0.0046  0.1815  0.6096
 6036SOL    HW126886   3.654   4.928   9.613 -1.7600 -0.6543  1.1361
 6036SOL    HW226887   3.712   4.854   9.731  0.9471  0.3289  0.5059
 6037SOL     OW26888   7.582   1.161  10.081 -0.3589  0.2468 -0.0958
 6037SOL    HW126889   7.554   1.170   9.989 -1.0343  1.6014  0.2057
 6037SOL    HW226890   7.664   1.210  10.085 -0.6624  0.7455  0.1496
 6038SOL     OW26891   9.952   2.925   0.141 -0.3940  0.1185  0.4664
 6038SOL    HW126892   9.869   2.919   0.189  0.0225 -2.2572  0.9879
 6038SOL    HW226893   9.949   2.852   0.079 -0.1620  2.0798 -2.0416
 6039SOL     OW26894  12.082   5.997  11.654 -0.2161 -0.5490  0.9750
 6039SOL    HW126895  12.010   5.959  11.704 -0.6479  0.3740  1.0593
 6039SOL    HW226896  12.080   5.950  11.570 -2.4145  1.0392  0.0454
 6040SOL     OW26897   3.450  10.547   8.235  0.6590  0.1301  0.5087
 6040SOL    HW126898   3.462  10.591   8.151 -2.8986  1.8588  0.7004
 6040SOL    HW226899   3.434  10.618   8.297 -2.9749 -1.1527  1.3025
 6041SOL     OW26900   3.903   4.335  10.075 -0.2931  0.4847 -0.2565
 6041SOL    HW126901   3.846   4.405  10.109 -0.4884 -0.3707  1.2751
 6041SOL    HW226902   3.877   4.326   9.984 -0.6963  1.9883 -0.3213
 6042SOL     OW26903  10.344   4.009   5.847  0.1615  0.4299  0.1320
 6042SOL    HW126904  10.300   4.092   5.829 -0.5964  0.0385  0.1233
 6042SOL    HW226905  10.389   4.023   5.930 -1.4588  0.2993  1.0643
 6043SOL     OW26906   5.604  10.536   0.357 -0.3987 -0.4676  0.0489
 6043SOL    HW126907   5.685  10.549   0.309 -0.4770 -2.6943 -0.8268
 6043SOL    HW226908   5.536  10.537   0.290 -1.2857  2.1892  0.8583
 6044SOL     OW26909   2.040  10.946   0.242 -0.8752 -0.1758 -0.6387
 6044SOL    HW126910   1.986  10.923   0.166 -0.3450 -1.7489 -0.5894
 6044SOL    HW226911   2.113  10.996   0.206 -1.8651  1.1766 -0.8253
 6045SOL     OW26912   4.967   0.008  11.719  0.1760  0.2246  0.2556
 6045SOL    HW126913   4.961  -0.058  11.649  1.6899  1.8669 -1.5140
 6045SOL    HW226914   5.060   0.013  11.741 -0.0538  1.0146  1.1363
 6046SOL     OW26915   6.336   0.597   9.224 -0.3825  0.1044  0.8627
 6046SOL    HW126916   6.321   0.644   9.307 -0.2292 -0.5319  1.2608
 6046SOL    HW226917   6.265   0.627   9.167 -0.0184  1.1735  0.9429
 6047SOL     OW26918   3.665   8.608   5.539 -0.2950  0.4932 -0.0780
 6047SOL    HW126919   3.758   8.593   5.523 -0.2143  0.9928 -0.0971
 6047SOL    HW226920   3.636   8.531   5.587 -0.3919 -0.7642 -2.0275
 6048SOL     OW26921   7.479   2.661   6.031 -0.3520  0.1345  0.1619
 6048SOL    HW126922   7.542   2.593   6.057  1.6745  2.1223  0.7230
 6048SOL    HW226923   7.401   2.643   6.084  0.4914 -1.1273  1.0337
 6049SOL     OW26924   6.440   5.223   3.248 -0.0750 -0.4359  0.3439
 6049SOL    HW126925   6.499   5.297   3.263 -0.6684 -0.1554  1.3687
 6049SOL    HW226926   6.361   5.263   3.211 -0.5139 -0.5015  1.1853
 6050SOL     OW26927  11.207   3.116  11.284 -0.1599  0.6757 -0.1138
 6050SOL    HW126928  11.293   3.086  11.252 -0.0678 -0.7206  1.3617
 6050SOL    HW226929  11.225   3.201  11.324  0.4721  0.5484 -0.1183
 6051SOL     OW26930   1.618   9.559   8.295 -0.5533  0.1472  0.4820
 6051SOL    HW126931   1.672   9.496   8.342 -0.8294 -0.8687 -0.5355
 6051SOL    HW226932   1.536   9.513   8.277 -0.8403  0.8601 -0.0873
 6052SOL     OW26933  11.207   4.535   4.840  0.1296  0.5798 -0.6880
 6052SOL    HW126934  11.222   4.473   4.768 -0.2161  0.7090 -0.8731
 6052SOL    HW226935  11.186   4.617   4.796 -2.9294  0.0222 -0.5048
 6053SOL     OW26936   5.739   5.873   0.616 -0.1089 -0.4011  0.2349
 6053SOL    HW126937   5.758   5.853   0.708  1.2614 -0.5420 -0.0476
 6053SOL    HW226938   5.784   5.956   0.601  0.3491 -0.7756 -0.5050
 6054SOL     OW26939   4.867   0.224   5.601 -0.5966  0.2124 -0.3121
 6054SOL    HW126940   4.807   0.278   5.550  0.7691  1.8348 -0.2970
 6054SOL    HW226941   4.954   0.257   5.578  0.2680 -1.7396  0.0219
 6055SOL     OW26942   4.867   8.045   1.032 -0.0511 -0.0837 -0.3859
 6055SOL    HW126943   4.870   7.959   1.074 -1.3395 -0.0488 -0.1600
 6055SOL    HW226944   4.919   8.035   0.953 -1.1851 -1.4598 -1.0104
 6056SOL     OW26945   5.865   5.835   7.366  0.7464  0.2020  0.0934
 6056SOL    HW126946   5.851   5.786   7.285  0.7965  0.7120 -0.2300
 6056SOL    HW226947   5.941   5.794   7.407 -0.1637 -1.0137  0.6308
 6057SOL     OW26948   6.325  11.065   9.220  0.2573  0.0627  0.5754
 6057SOL    HW126949   6.400  11.124   9.218  1.0281 -0.9004  0.4175
 6057SOL    HW226950   6.271  11.097   9.293  0.6985  0.8979  0.5458
 6058SOL     OW26951   5.992   5.181   8.909 -0.2248 -0.3439  0.0241
 6058SOL    HW126952   5.955   5.199   8.995  0.0871 -0.0082  0.0938
 6058SOL    HW226953   5.938   5.111   8.873 -1.6121  0.8668 -0.3352
 6059SOL     OW26954   5.910  11.546   9.275 -0.1968 -0.3179  0.1199
 6059SOL    HW126955   5.939  11.617   9.217  1.0138  0.4431  1.5801
 6059SOL    HW226956   5.892  11.473   9.216  1.3438  0.2964 -1.1881
 6060SOL     OW26957   3.179  10.015   5.084  0.0141  0.2295 -0.2489
 6060SOL    HW126958   3.101  10.069   5.069 -0.8471 -0.0337  2.6446
 6060SOL    HW226959   3.216  10.049   5.166  1.8669 -0.8840 -0.5774
 6061SOL     OW26960   7.979   9.145   7.382  0.3167  0.2367  0.1915
 6061SOL    HW126961   7.901   9.160   7.434  0.2203  1.0647 -0.1782
 6061SOL    HW226962   8.050   9.139   7.445  0.2154  1.3276  0.4196
 6062SOL     OW26963   8.173   6.971   2.111 -0.0781  0.2575  0.0813
 6062SOL    HW126964   8.147   6.885   2.147  1.5153 -0.6958 -0.9378
 6062SOL    HW226965   8.091   7.021   2.109 -1.2705 -1.5959 -0.2754
 6063SOL     OW26966  11.818   7.448  11.624 -0.5109  0.0310 -0.1804
 6063SOL    HW126967  11.862   7.513  11.679 -0.2541 -0.2734 -0.0259
 6063SOL    HW226968  11.758   7.404  11.684 -1.6418  0.9944 -0.5603
 6064SOL     OW26969   8.610  11.226   3.832  0.4880  0.5151 -0.7177
 6064SOL    HW126970   8.615  11.234   3.927  0.9658 -0.6425 -0.6265
 6064SOL    HW226971   8.655  11.303   3.799  0.9830  0.5482  0.0017
 6065SOL     OW26972   6.617   0.906   8.787  0.0066 -0.4298  0.1331
 6065SOL    HW126973   6.561   0.832   8.767  0.0533 -0.7584  1.1799
 6065SOL    HW226974   6.692   0.896   8.728 -1.0575  0.0869 -1.3695
 6066SOL     OW26975   6.969   4.725   0.159 -0.2922 -0.0059  0.4418
 6066SOL    HW126976   6.985   4.793   0.225 -0.3113  0.8163 -0.3875
 6066SOL    HW226977   6.952   4.646   0.210  1.0778  0.2961  1.4116
 6067SOL     OW26978  11.950  11.806  12.030 -0.5086  0.1388 -0.2305
 6067SOL    HW126979  12.012  11.856  11.977  0.1770  0.2022  0.6183
 6067SOL    HW226980  11.932  11.862  12.105 -0.7260 -0.3520  0.0832
 6068SOL     OW26981   7.305   1.715   8.568 -1.0189  0.1578 -0.3377
 6068SOL    HW126982   7.219   1.673   8.560 -0.9543  0.0058 -0.2403
 6068SOL    HW226983   7.344   1.675   8.645 -0.9214  0.3380 -0.2917
 6069SOL     OW26984   0.848   8.483  11.307 -0.1504  0.0851  0.4201
 6069SOL    HW126985   0.909   8.493  11.380 -0.6745 -0.0642  0.8895
 6069SOL    HW226986   0.788   8.556  11.316 -0.5058 -0.2034  0.4272
 6070SOL     OW26987   1.847  10.096   2.777  0.3167 -0.8384  0.6561
 6070SOL    HW126988   1.894  10.131   2.701  1.7600  0.4274  2.0538
 6070SOL    HW226989   1.761  10.071   2.743  0.1122  1.7388 -0.9885
 6071SOL     OW26990   2.761   8.223  11.636 -0.7785  0.0455  0.1150
 6071SOL    HW126991   2.853   8.225  11.661 -0.9742 -1.0380  1.0018
 6071SOL    HW226992   2.714   8.223  11.719 -1.5177 -1.3476 -0.2771
 6072SOL     OW26993   9.291   9.740   8.163 -0.7629 -0.4200  0.1904
 6072SOL    HW126994   9.317   9.826   8.196 -0.4088 -0.8534  1.0626
 6072SOL    HW226995   9.275   9.754   8.069 -0.3273  0.5090  0.2452
 6073SOL     OW26996   4.282   5.690   4.350 -0.0561  0.0749  0.4043
 6073SOL    HW126997   4.277   5.767   4.407 -0.7613  0.1896  0.1932
 6073SOL    HW226998   4.193   5.677   4.319  0.4762  0.6520 -1.5227
 6074SOL     OW26999   4.733   4.827   7.193 -0.1622 -0.4981 -0.3772
 6074SOL    HW127000   4.650   4.873   7.209  0.4445  0.7277 -0.6328
 6074SOL    HW227001   4.711   4.734   7.201 -1.6688 -0.2175 -0.9259
 6075SOL     OW27002   5.805   6.895   7.379 -0.4971  0.3128 -0.1275
 6075SOL    HW127003   5.777   6.863   7.464 -2.2842  1.4517 -0.2388
 6075SOL    HW227004   5.764   6.981   7.370 -1.8452 -0.4861 -2.8470
 6076SOL     OW27005   1.930  11.304   1.241  0.0834  0.3983 -0.0458
 6076SOL    HW127006   1.848  11.289   1.288 -0.3276  1.0926 -0.5248
 6076SOL    HW227007   1.946  11.398   1.250  1.3129  0.1269  0.8185
 6077SOL     OW27008   4.312  12.318   0.721  0.0431  0.1275 -0.0323
 6077SOL    HW127009   4.386  12.261   0.703  0.8575  0.0561  2.9113
 6077SOL    HW227010   4.351  12.404   0.738 -0.9777  1.1196 -2.2818
 6078SOL     OW27011  10.564   5.592   2.505  0.9638 -0.4134 -0.1973
 6078SOL    HW127012  10.559   5.650   2.581  2.9945 -1.5929  0.9390
 6078SOL    HW227013  10.598   5.647   2.435  1.6562  0.0933  0.5129
 6079SOL     OW27014   3.156   9.941   6.939 -0.0121 -0.4886 -0.6775
 6079SOL    HW127015   3.073   9.987   6.928 -0.0350 -0.1625  0.6620
 6079SOL    HW227016   3.223  10.008   6.926 -0.0282 -0.2129  0.6082
 6080SOL     OW27017  10.512  12.448   5.904  0.1646 -0.1253  0.3917
 6080SOL    HW127018  10.531  12.542   5.905 -1.4301  0.2539 -1.3766
 6080SOL    HW227019  10.446  12.437   5.837 -0.1050 -2.4671  0.9588
 6081SOL     OW27020   1.088   0.120   3.991  0.0548  0.0773 -0.0285
 6081SOL    HW127021   1.153   0.117   3.920  1.6159  1.6233  1.2181
 6081SOL    HW227022   1.141   0.137   4.070 -1.8209  0.6310  1.1632
 6082SOL     OW27023   0.189   9.733  10.732 -0.4118 -0.1018 -0.1657
 6082SOL    HW127024   0.149   9.655  10.771 -1.3681  1.4632  2.2270
 6082SOL    HW227025   0.154   9.736  10.643 -1.3850 -1.6888  0.1285
 6083SOL     OW27026   1.844   6.549   3.926 -0.0583 -0.2201 -0.0315
 6083SOL    HW127027   1.837   6.626   3.981  0.6442  1.0491 -1.6501
 6083SOL    HW227028   1.839   6.475   3.987 -0.6582  1.0818  1.5570
 6084SOL     OW27029   4.196   1.570   9.765 -0.5069  0.2786  0.2015
 6084SOL    HW127030   4.118   1.552   9.818 -0.7643  0.5963 -0.0617
 6084SOL    HW227031   4.255   1.497   9.783 -1.0683 -0.2263  0.0224
 6085SOL     OW27032   7.766   4.133   4.349  0.0486  0.1896  0.1452
 6085SOL    HW127033   7.678   4.108   4.320 -0.5162  0.7419  1.3485
 6085SOL    HW227034   7.753   4.172   4.435  1.4180  0.7585  0.1145
 6086SOL     OW27035   2.107   3.282   2.881 -0.3924 -0.7493 -0.1280
 6086SOL    HW127036   2.110   3.252   2.790 -0.0554  0.0662 -0.3942
 6086SOL    HW227037   2.160   3.218   2.929  3.8207  1.4551 -1.3166
 6087SOL     OW27038   5.229   3.083   1.473 -0.4818  0.1425 -0.0516
 6087SOL    HW127039   5.163   3.140   1.433 -0.1739 -0.2566 -1.1555
 6087SOL    HW227040   5.183   3.038   1.544 -1.3589 -0.0292 -0.7184
 6088SOL     OW27041  10.473   6.036   2.153 -0.1023  0.3602  0.1394
 6088SOL    HW127042  10.520   6.104   2.105  1.6715 -0.1118  1.1219
 6088SOL    HW227043  10.392   6.078   2.182  0.1237  1.4883 -0.8151
 6089SOL     OW27044   1.348   1.107  10.862  0.2611 -0.8353  0.3192
 6089SOL    HW127045   1.334   1.160  10.941 -0.6101 -0.5905  0.0218
 6089SOL    HW227046   1.432   1.137  10.827  0.8399 -1.2082  1.3390
 6090SOL     OW27047   7.181   4.083  10.967  0.9378  0.0874 -0.4152
 6090SOL    HW127048   7.156   4.138  11.040  0.0771 -2.1133  1.0493
 6090SOL    HW227049   7.111   4.093  10.903  0.6901  0.5139 -0.0747
 6091SOL     OW27050  12.236   7.240   1.819  0.1304  0.1510  0.0182
 6091SOL    HW127051  12.220   7.160   1.770  1.6058  0.6711 -1.4250
 6091SOL    HW227052  12.153   7.288   1.816 -0.5469 -0.9824  0.2725
 6092SOL     OW27053   1.650   2.617   4.243  0.5991  0.3894 -0.1918
 6092SOL    HW127054   1.605   2.701   4.234 -0.1110  0.1509  0.9159
 6092SOL    HW227055   1.580   2.552   4.238  1.0948 -0.1172 -0.6409
 6093SOL     OW27056   9.423   7.330   4.043 -0.2360 -0.8665 -0.7850
 6093SOL    HW127057   9.401   7.284   4.123 -1.7511  0.3986 -0.4230
 6093SOL    HW227058   9.347   7.386   4.025  1.0536  0.6823 -1.7691
 6094SOL     OW27059   0.505   3.027   2.066 -0.2811  0.5643 -0.7145
 6094SOL    HW127060   0.529   2.994   1.980 -2.2454  0.3165 -1.2281
 6094SOL    HW227061   0.482   2.949   2.116  0.8536  0.7057  0.0459
 6095SOL     OW27062  11.110  12.115   0.902  0.3567  0.1127 -0.4393
 6095SOL    HW127063  11.077  12.080   0.819 -3.4894  1.8292  0.1785
 6095SOL    HW227064  11.137  12.205   0.881  2.4081 -0.4266 -0.3636
 6096SOL     OW27065   8.916  11.382   0.958  0.3642  0.2456 -0.1078
 6096SOL    HW127066   8.962  11.459   0.924 -0.9906  0.5944 -1.2382
 6096SOL    HW227067   8.855  11.357   0.889 -1.9017  0.4393  1.6824
 6097SOL     OW27068  11.449   2.120   0.058  0.1814  0.2643 -0.0176
 6097SOL    HW127069  11.367   2.132   0.107 -1.2324 -0.3049 -2.1218
 6097SOL    HW227070  11.422   2.108  -0.032  2.5390 -1.0145 -0.6477
 6098SOL     OW27071   2.365   6.676   6.129 -0.1047 -0.2585 -0.7202
 6098SOL    HW127072   2.355   6.582   6.113  0.2347 -0.4578  0.1453
 6098SOL    HW227073   2.410   6.680   6.214  0.2282  0.6807 -0.9355
 6099SOL     OW27074   3.185   4.784   2.467  0.5580  0.1996 -0.1418
 6099SOL    HW127075   3.233   4.704   2.489  0.8776  0.1896 -0.8745
 6099SOL    HW227076   3.164   4.775   2.374 -0.9115  0.1791  0.1587
 6100SOL     OW27077   3.821   3.115  10.669 -0.7376  0.1180 -0.3522
 6100SOL    HW127078   3.778   3.031  10.682  1.0405 -1.2148 -2.5142
 6100SOL    HW227079   3.852   3.113  10.579  1.1230  2.2638  0.1517
 6101SOL     OW27080   5.464  10.096   7.702 -0.3911 -0.3272 -0.4022
 6101SOL    HW127081   5.468  10.050   7.786 -1.3827  0.2749 -0.0020
 6101SOL    HW227082   5.411  10.040   7.646  2.0273 -1.7990 -1.3820
 6102SOL     OW27083   2.357   5.621   2.442  0.4241  0.4499  0.2396
 6102SOL    HW127084   2.324   5.545   2.490 -1.0139 -0.1049 -1.5625
 6102SOL    HW227085   2.371   5.590   2.353  2.6268  1.5752  0.1190
 6103SOL     OW27086   9.231   7.782   2.821 -0.3655 -0.4308  0.1454
 6103SOL    HW127087   9.270   7.696   2.834  1.3491  0.2764 -0.0146
 6103SOL    HW227088   9.152   7.766   2.769 -0.0480 -1.8813  0.0838
 6104SOL     OW27089   6.899   1.515   9.689  0.5692  0.0299 -0.0698
 6104SOL    HW127090   6.904   1.555   9.776  0.7016 -0.4798  0.1612
 6104SOL    HW227091   6.988   1.487   9.670  0.3646 -0.7544  0.0682
 6105SOL     OW27092   9.199  12.366  11.493 -0.7021  0.9821  0.0354
 6105SOL    HW127093   9.258  12.435  11.462 -0.7531  0.6721 -0.7793
 6105SOL    HW227094   9.202  12.373  11.588 -0.6691  2.0795 -0.0315
 6106SOL     OW27095   6.204   8.825   9.769  0.5959 -0.1444  0.5511
 6106SOL    HW127096   6.163   8.899   9.724  2.9075  0.3686 -0.9149
 6106SOL    HW227097   6.222   8.857   9.857 -0.5173  0.2127  0.6614
 6107SOL     OW27098   5.242   0.535   1.419  0.3930 -0.5806  0.3497
 6107SOL    HW127099   5.197   0.511   1.500 -1.5786 -0.6856 -0.7240
 6107SOL    HW227100   5.329   0.497   1.428  0.0898 -0.9186  2.2474
 6108SOL     OW27101   4.666   8.144  11.662  0.1511 -0.1395  0.0907
 6108SOL    HW127102   4.708   8.097  11.591  2.6657  1.5787  0.3367
 6108SOL    HW227103   4.605   8.205  11.619 -0.8075 -1.3698 -0.3583
 6109SOL     OW27104   3.991   5.365   9.048  0.0253 -0.0746  0.1649
 6109SOL    HW127105   4.076   5.395   9.081 -0.4718 -1.4116  2.8543
 6109SOL    HW227106   3.992   5.271   9.062 -2.2626 -0.0001  1.1564
 6110SOL     OW27107   2.816  10.634   1.292  0.1479 -0.5271  1.1420
 6110SOL    HW127108   2.879  10.674   1.233  1.2807 -2.4757  0.9337
 6110SOL    HW227109   2.731  10.667   1.263  0.7646 -0.6506 -0.9600
 6111SOL     OW27110   3.665   3.926   4.743 -0.3258 -0.0937  0.0916
 6111SOL    HW127111   3.632   3.943   4.832  0.5124  0.6774  0.2692
 6111SOL    HW227112   3.760   3.938   4.750 -0.0412 -1.7876 -0.5230
 6112SOL     OW27113   8.021   3.568   1.537 -0.4346 -0.2799 -0.0281
 6112SOL    HW127114   7.945   3.589   1.483 -0.0693  0.1146 -0.3981
 6112SOL    HW227115   8.059   3.491   1.496 -1.0587 -0.9371  0.5981
 6113SOL     OW27116   4.849   7.923   2.960 -0.2083  0.4078  0.0021
 6113SOL    HW127117   4.767   7.880   2.937  0.5149 -0.3750 -1.2349
 6113SOL    HW227118   4.833   7.962   3.046 -1.9917  0.6356 -0.4065
 6114SOL     OW27119  12.314   4.890  12.141  0.6247 -0.8184  0.2128
 6114SOL    HW127120  12.294   4.806  12.101  1.3175 -1.1415  0.5313
 6114SOL    HW227121  12.349   4.868  12.227  0.6180 -0.1997  0.3777
 6115SOL     OW27122   2.255  10.820   2.222 -0.1252  0.2145  0.1861
 6115SOL    HW127123   2.257  10.884   2.151  0.1533 -0.7264 -0.6837
 6115SOL    HW227124   2.346  10.810   2.249 -0.2234  0.5286  0.6496
 6116SOL     OW27125   2.544   8.463   0.648 -0.2742 -0.8294  0.4614
 6116SOL    HW127126   2.568   8.528   0.715 -1.6225  0.0439  0.1410
 6116SOL    HW227127   2.457   8.490   0.619  0.9840  0.0461 -3.0705
 6117SOL     OW27128   0.870   4.560  11.664 -0.1609 -0.0198  0.2801
 6117SOL    HW127129   0.866   4.477  11.617  0.8418  0.0141  0.1155
 6117SOL    HW227130   0.943   4.548  11.726  1.3104  1.4001 -1.0885
 6118SOL     OW27131   6.898   8.473   6.138  0.0123 -0.2092 -0.4586
 6118SOL    HW127132   6.824   8.464   6.199  1.4345 -1.2529  1.1955
 6118SOL    HW227133   6.863   8.445   6.053 -2.3066  2.2329 -0.4460
 6119SOL     OW27134   8.948   8.575   2.832  0.1608 -0.5005  0.2795
 6119SOL    HW127135   8.971   8.485   2.809  0.7396  0.0329 -1.3962
 6119SOL    HW227136   8.994   8.628   2.766  0.6615  1.0812  1.8348
 6120SOL     OW27137   3.051   8.782   0.209 -0.1029  0.2511 -0.2674
 6120SOL    HW127138   3.108   8.778   0.285  1.1652  0.5636 -1.1666
 6120SOL    HW227139   2.963   8.767   0.244  0.2612  1.7256  1.4390
 6121SOL     OW27140  12.357   2.559   0.587 -0.1221  0.1016  0.3328
 6121SOL    HW127141  12.350   2.609   0.667  3.0887  0.7141  0.3314
 6121SOL    HW227142  12.451   2.549   0.572 -0.6020 -2.8818 -1.5694
 6122SOL     OW27143  10.317   4.774   7.403  0.1201  0.1458 -0.4951
 6122SOL    HW127144  10.338   4.853   7.454 -2.2988  1.2255 -1.0468
 6122SOL    HW227145  10.346   4.795   7.314 -2.0113  1.1496 -0.9999
 6123SOL     OW27146   2.108   4.594  12.586  0.3508 -0.4986  0.0649
 6123SOL    HW127147   2.195   4.554  12.589  1.3027  1.5194  0.8142
 6123SOL    HW227148   2.124   4.688  12.584 -1.8298 -0.0597  0.3562
 6124SOL     OW27149   8.800   5.307  10.912 -0.3563  0.0744  0.2362
 6124SOL    HW127150   8.768   5.219  10.933  2.7977 -1.4247 -0.5982
 6124SOL    HW227151   8.800   5.353  10.995 -1.1670 -1.0423  0.8796
 6125SOL     OW27152   4.461   4.223   6.384  0.4980  0.4021  0.3565
 6125SOL    HW127153   4.487   4.262   6.467 -1.0185  0.0271  1.0484
 6125SOL    HW227154   4.372   4.191   6.400 -0.7365  2.3133 -2.0777
 6126SOL     OW27155   6.874   2.596   0.599 -0.0934  0.3339  0.1657
 6126SOL    HW127156   6.842   2.615   0.511 -0.9238  1.2126  0.6408
 6126SOL    HW227157   6.809   2.536   0.636  0.2808 -0.0760  0.1685
 6127SOL     OW27158  10.621  10.362  11.147  0.0537 -0.2743 -0.4734
 6127SOL    HW127159  10.558  10.290  11.139  1.3103 -1.4200 -0.3142
 6127SOL    HW227160  10.702  10.321  11.177  0.9712  1.1359 -0.8989
 6128SOL     OW27161  10.682   4.225   2.146  1.0969 -0.0325  0.1896
 6128SOL    HW127162  10.746   4.171   2.193  0.3478 -0.2156  1.0456
 6128SOL    HW227163  10.667   4.300   2.205  2.3474  1.3000 -1.1110
 6129SOL     OW27164   3.538   5.468  10.323  0.0152 -0.3548 -0.1741
 6129SOL    HW127165   3.498   5.458  10.409 -1.1066 -1.2540 -0.7880
 6129SOL    HW227166   3.594   5.391  10.313 -3.1816 -2.6388 -1.9769
 6130SOL     OW27167  11.349  10.515   6.606 -0.0968  0.1358 -0.0458
 6130SOL    HW127168  11.385  10.603   6.593 -1.1446  0.8044  1.3807
 6130SOL    HW227169  11.398  10.480   6.680 -0.5235  0.0017  0.1760
 6131SOL     OW27170   4.937   7.239  10.288 -0.2592 -0.3719 -0.0912
 6131SOL    HW127171   5.005   7.232  10.355  1.0647 -0.0398 -1.3680
 6131SOL    HW227172   4.932   7.151  10.250  0.8859  0.0734 -1.3314
 6132SOL     OW27173   2.440   1.207   6.213  0.1267 -0.0352 -0.4802
 6132SOL    HW127174   2.476   1.281   6.262 -1.4981  0.8324 -0.5366
 6132SOL    HW227175   2.364   1.243   6.167 -0.8453 -1.7764 -0.3340
 6133SOL     OW27176   2.655   2.302  12.478  0.8106  0.1664  0.3635
 6133SOL    HW127177   2.610   2.218  12.477 -0.3670  0.7695  0.0318
 6133SOL    HW227178   2.604   2.357  12.419  2.3671  0.7167 -0.5390
 6134SOL     OW27179   8.941   4.459  12.093  0.2838  0.0623 -0.2505
 6134SOL    HW127180   8.964   4.529  12.154 -0.5568 -0.6194  0.8838
 6134SOL    HW227181   8.933   4.381  12.148  2.7873 -1.3363 -1.6540
 6135SOL     OW27182  12.443   1.416   3.449 -0.1646  0.1126  0.1799
 6135SOL    HW127183  12.478   1.399   3.536  2.6637  1.0409 -0.6708
 6135SOL    HW227184  12.486   1.352   3.392 -2.4302 -0.8968 -0.5203
 6136SOL     OW27185   7.690   7.827   7.828  0.3291  0.0092  0.1437
 6136SOL    HW127186   7.733   7.893   7.774 -1.2552 -0.8741 -2.3445
 6136SOL    HW227187   7.628   7.877   7.882 -1.1865  0.5971 -2.0348
 6137SOL     OW27188   4.613  12.341   0.959 -0.0376  0.1176  0.5550
 6137SOL    HW127189   4.581  12.431   0.969 -0.4066 -0.0428  0.7938
 6137SOL    HW227190   4.707  12.351   0.944 -0.3354  0.6539 -1.1756
 6138SOL     OW27191   3.209   8.766   4.081  0.2589 -0.0403 -0.3119
 6138SOL    HW127192   3.194   8.860   4.094 -1.1121 -0.1482 -0.9823
 6138SOL    HW227193   3.177   8.725   4.161 -0.1932 -0.0241 -0.4840
 6139SOL     OW27194   7.184   3.376   0.073  0.0759  0.6185 -0.0267
 6139SOL    HW127195   7.227   3.462   0.070 -1.9205  1.7029  0.3833
 6139SOL    HW227196   7.117   3.386   0.140 -0.2543 -1.2769 -0.0262
 6140SOL     OW27197   3.298   7.324   3.062 -0.2469  0.0625  0.3189
 6140SOL    HW127198   3.312   7.418   3.075  0.8623 -0.0576  0.1148
 6140SOL    HW227199   3.223   7.303   3.117 -1.5458  1.3821 -0.8797
 6141SOL     OW27200   8.349   8.677   4.712  0.0962  0.4162  0.2122
 6141SOL    HW127201   8.374   8.599   4.761 -0.5016  0.2165  0.2090
 6141SOL    HW227202   8.257   8.662   4.689 -0.2279  1.4215  0.7987
 6142SOL     OW27203   0.304   9.966   2.077  0.5173 -0.1747 -0.3009
 6142SOL    HW127204   0.211   9.946   2.080  0.6223 -0.6643  3.0542
 6142SOL    HW227205   0.309  10.061   2.067 -0.3480 -0.1324 -0.3465
 6143SOL     OW27206   5.113   1.000   1.934  0.0592  0.0884 -0.4486
 6143SOL    HW127207   5.050   1.069   1.956  0.3174  0.0228  0.5795
 6143SOL    HW227208   5.196   1.032   1.971  0.5073 -0.0805 -1.2979
 6144SOL     OW27209   4.846  10.318   2.298 -0.2207  0.1556 -0.3667
 6144SOL    HW127210   4.861  10.400   2.251  1.9205  0.5159  0.7945
 6144SOL    HW227211   4.757  10.325   2.331  0.5704  3.1310  1.5962
 6145SOL     OW27212   4.761   6.455   7.444 -0.2888 -0.0273  0.1152
 6145SOL    HW127213   4.802   6.389   7.389  1.4176 -0.7685  2.1131
 6145SOL    HW227214   4.824   6.527   7.447 -1.2614  0.8793 -0.4831
 6146SOL     OW27215   7.810   1.481   8.413  0.1075  0.2736 -0.2341
 6146SOL    HW127216   7.893   1.480   8.365  0.4430 -0.3362  0.3511
 6146SOL    HW227217   7.781   1.572   8.407 -0.8248 -0.1245 -3.2283
 6147SOL     OW27218   7.812   1.521   7.125  0.9222 -0.0884 -0.4217
 6147SOL    HW127219   7.770   1.483   7.049  0.8452 -0.3738 -0.2380
 6147SOL    HW227220   7.893   1.559   7.091  0.5174  0.4643 -0.7740
 6148SOL     OW27221   5.789   4.122   9.458  0.2650  0.1240  0.4988
 6148SOL    HW127222   5.848   4.095   9.528  1.0394 -2.2587 -0.9706
 6148SOL    HW227223   5.805   4.216   9.448  1.2059  0.2142  2.4827
 6149SOL     OW27224   2.047  12.448   2.053  0.1939  1.1680 -0.1249
 6149SOL    HW127225   2.023  12.540   2.060  0.0569  1.0864  0.5619
 6149SOL    HW227226   2.103  12.443   1.976  2.5877  2.3402  1.4297
 6150SOL     OW27227   9.430  12.392  11.027 -0.0671  0.0154  0.4905
 6150SOL    HW127228   9.498  12.326  11.015  1.1291  0.9297  1.8896
 6150SOL    HW227229   9.414  12.427  10.940  1.7645  0.2482  0.2087
 6151SOL     OW27230   9.923   4.868   4.224 -0.1137  0.1154  0.1023
 6151SOL    HW127231   9.892   4.867   4.314  1.6206  2.2322  0.7999
 6151SOL    HW227232  10.018   4.882   4.231  0.0929  0.1989 -2.0465
 6152SOL     OW27233   8.840  11.584   0.279  0.3123 -0.4997 -0.1393
 6152SOL    HW127234   8.879  11.595   0.192  2.2759  0.4502  0.7872
 6152SOL    HW227235   8.746  11.594   0.265  0.2753 -3.0133 -2.5166
 6153SOL     OW27236  12.174   9.814   4.758 -0.1884  0.4727 -0.2404
 6153SOL    HW127237  12.102   9.754   4.778  0.1887 -0.2444 -0.9611
 6153SOL    HW227238  12.131   9.892   4.723 -0.6441  0.2660 -0.1474
 6154SOL     OW27239  11.814  10.605  10.483  0.0675  0.0605 -0.0635
 6154SOL    HW127240  11.845  10.521  10.517  0.5419 -0.0871 -0.8396
 6154SOL    HW227241  11.764  10.581  10.405  1.6253  0.5986 -1.2740
 6155SOL     OW27242   3.311   4.151   1.590  0.5021 -0.4570  0.0845
 6155SOL    HW127243   3.366   4.227   1.569 -0.0025 -0.1752 -0.2407
 6155SOL    HW227244   3.374   4.080   1.606  1.0862  0.5219  2.5298
 6156SOL     OW27245   9.553   9.446   2.188  0.3023  0.3540 -0.0713
 6156SOL    HW127246   9.569   9.367   2.136 -0.5437  1.3894 -2.0304
 6156SOL    HW227247   9.463   9.438   2.219  1.0266 -0.5856  1.9187
 6157SOL     OW27248   7.971   0.554   6.724  0.3538  0.2883  0.3081
 6157SOL    HW127249   7.908   0.596   6.783  0.3849 -0.6237  1.0056
 6157SOL    HW227250   8.028   0.625   6.695 -0.9792  1.1418 -0.3508
 6158SOL     OW27251   1.208   5.384  10.050  0.2947  0.3163 -0.1064
 6158SOL    HW127252   1.259   5.303  10.043 -0.3131 -0.1099  0.2925
 6158SOL    HW227253   1.118   5.354  10.067 -0.0477  1.0597 -0.5616
 6159SOL     OW27254   7.743  11.125   9.772  0.0471 -0.0773  0.1421
 6159SOL    HW127255   7.725  11.197   9.832 -1.2960  1.1455 -1.6235
 6159SOL    HW227256   7.838  11.127   9.760  0.2769 -0.0550  1.8133
 6160SOL     OW27257  10.539   1.119   3.985  0.3242 -0.7869  0.1052
 6160SOL    HW127258  10.483   1.117   3.907  1.1747  1.0534 -0.6300
 6160SOL    HW227259  10.478   1.133   4.058 -0.4368 -2.0553 -0.2478
 6161SOL     OW27260   5.211   5.290   2.536  0.6946 -0.3524 -0.0350
 6161SOL    HW127261   5.272   5.217   2.542 -0.0291 -0.8658  2.0609
 6161SOL    HW227262   5.262   5.362   2.499  2.2606 -1.0748  0.6451
 6162SOL     OW27263  10.183   0.561  11.367  0.0537 -0.6484  0.6721
 6162SOL    HW127264  10.175   0.635  11.427  1.4791  0.4702 -0.4454
 6162SOL    HW227265  10.094   0.527  11.360 -0.6274  0.8768  1.3180
 6163SOL     OW27266   0.932   5.308   8.501  0.6873 -0.1733 -0.4990
 6163SOL    HW127267   0.924   5.318   8.406  1.1418  0.2554 -0.4998
 6163SOL    HW227268   0.849   5.269   8.528  0.8696 -1.0571 -1.1670
 6164SOL     OW27269   5.526   3.768   3.448 -0.2727  0.0168  0.1217
 6164SOL    HW127270   5.501   3.814   3.368  0.7317 -1.7451 -1.3081
 6164SOL    HW227271   5.559   3.836   3.506  1.3686  1.1490 -1.9587
 6165SOL     OW27272   1.876   6.379   7.788  0.6315  0.1767  0.4119
 6165SOL    HW127273   1.957   6.425   7.769 -0.1429  1.0903 -0.8473
 6165SOL    HW227274   1.886   6.294   7.745  0.7508  0.4645 -0.1383
 6166SOL     OW27275   8.019   2.865  11.613  0.0420  0.4689  0.7938
 6166SOL    HW127276   8.072   2.944  11.621 -2.0666  1.9034  1.2993
 6166SOL    HW227277   8.031   2.820  11.697  0.8480  0.4850  0.6959
 6167SOL     OW27278   0.739   1.919  11.786  0.2208  0.3912  0.1804
 6167SOL    HW127279   0.700   1.974  11.854 -0.3441  2.0969 -1.4490
 6167SOL    HW227280   0.822   1.890  11.823 -0.8084 -0.1082  2.2122
 6168SOL     OW27281   1.860   9.672  10.154  0.4717  0.7679 -0.3905
 6168SOL    HW127282   1.904   9.714  10.228 -1.2009  3.0253 -0.5828
 6168SOL    HW227283   1.846   9.742  10.090  2.6340 -1.2584 -3.3531
 6169SOL     OW27284   1.139   2.098   5.572  0.2276 -0.3901 -0.0185
 6169SOL    HW127285   1.087   2.142   5.639  0.7886 -0.0827  0.2241
 6169SOL    HW227286   1.208   2.161   5.550  1.1268 -1.1951  0.4367
 6170SOL     OW27287   5.573   5.029   2.764  0.3250 -0.1040  0.1341
 6170SOL    HW127288   5.585   5.119   2.733 -2.5540  0.5813  0.6828
 6170SOL    HW227289   5.564   5.038   2.859  0.8465 -1.1121  0.2888
 6171SOL     OW27290   3.591  11.823   9.944  0.0787  0.4017 -0.3438
 6171SOL    HW127291   3.660  11.840  10.009  0.2901 -0.3004 -0.3780
 6171SOL    HW227292   3.628  11.857   9.862  0.5835 -0.3913 -0.4532
 6172SOL     OW27293   7.066  11.071   6.223 -0.9246 -0.4772 -0.0284
 6172SOL    HW127294   6.988  11.120   6.196 -1.5250  0.3055  2.8422
 6172SOL    HW227295   7.137  11.136   6.219 -1.3542  0.1644  1.8706
 6173SOL     OW27296   6.363   5.733   9.192  0.0731 -0.0319  0.2889
 6173SOL    HW127297   6.314   5.812   9.169  0.2447 -0.0807 -0.2572
 6173SOL    HW227298   6.321   5.701   9.271 -0.2131  0.4204  0.3248
 6174SOL     OW27299  11.083   1.902   9.927 -0.9496 -0.5593  0.1085
 6174SOL    HW127300  11.150   1.846   9.887  0.2260  1.3026 -0.6997
 6174SOL    HW227301  11.072   1.868  10.015  1.3761 -0.7030  0.3984
 6175SOL     OW27302   3.456   3.391   5.236 -0.3558 -0.5756  0.9369
 6175SOL    HW127303   3.441   3.297   5.223 -0.3831 -0.4435 -0.0518
 6175SOL    HW227304   3.496   3.397   5.323 -1.1691 -1.4161  1.3784
 6176SOL     OW27305   5.564   2.062  12.224  0.0645  0.2849  0.5274
 6176SOL    HW127306   5.531   1.972  12.225  0.3251  0.1830  2.0553
 6176SOL    HW227307   5.649   2.056  12.180 -0.6253  0.0813 -0.8488
 6177SOL     OW27308  11.686   1.067  12.245  0.4622  0.4827  0.2057
 6177SOL    HW127309  11.650   1.087  12.331 -0.6817  0.1601 -0.1743
 6177SOL    HW227310  11.730   1.147  12.218  0.9746  0.5356  1.1453
 6178SOL     OW27311  12.234  10.156   2.026  0.8484  0.3389 -0.3571
 6178SOL    HW127312  12.283  10.238   2.020  0.2812  0.7088  0.0169
 6178SOL    HW227313  12.234  10.135   2.119  1.4901 -0.4004 -0.5149
 6179SOL     OW27314  12.134  12.128   3.957 -0.2343  0.1139 -0.2080
 6179SOL    HW127315  12.085  12.119   4.039 -0.7149 -2.0282 -0.6543
 6179SOL    HW227316  12.073  12.097   3.889  0.4874  0.9135 -1.2633
 6180SOL     OW27317  12.117   7.926   4.456 -0.4912  0.6019 -0.1476
 6180SOL    HW127318  12.124   7.969   4.370 -1.6514 -1.3470 -1.2871
 6180SOL    HW227319  12.205   7.932   4.492  0.7812 -0.8882 -2.7023
 6181SOL     OW27320   3.454  12.055   3.427  0.3272  0.1449  0.0629
 6181SOL    HW127321   3.494  12.133   3.387 -1.4978  0.8193 -0.5379
 6181SOL    HW227322   3.375  12.088   3.469 -0.0580 -1.2718  0.4734
 6182SOL     OW27323   4.837  11.006  10.806 -0.2448  0.2440 -0.0095
 6182SOL    HW127324   4.862  11.010  10.899 -0.1327 -0.7968  0.0199
 6182SOL    HW227325   4.788  11.086  10.791 -0.0089  0.5712  0.8767
 6183SOL     OW27326  12.254   0.423   1.757  0.4717 -0.2141 -0.2953
 6183SOL    HW127327  12.179   0.367   1.778  1.0961 -0.7225  0.7206
 6183SOL    HW227328  12.304   0.373   1.692  1.3577 -1.1909  1.0669
 6184SOL     OW27329   0.819   1.359   0.617 -0.1757  0.4940  0.2053
 6184SOL    HW127330   0.771   1.435   0.584 -1.6721 -0.6519 -0.3718
 6184SOL    HW227331   0.817   1.370   0.713  0.0885  1.4308  0.1187
 6185SOL     OW27332  10.169  11.257   8.853  0.3818 -0.2925 -0.3276
 6185SOL    HW127333  10.111  11.181   8.857 -0.3087  0.2464 -0.0507
 6185SOL    HW227334  10.231  11.243   8.925  0.3015 -0.6287 -0.3218
 6186SOL     OW27335   1.874   9.055   5.385  0.3359  0.3988 -0.2651
 6186SOL    HW127336   1.965   9.026   5.378  0.0087 -0.8447  0.3688
 6186SOL    HW227337   1.853   9.088   5.297  1.2670  0.3102 -0.5337
 6187SOL     OW27338   2.698   6.040   6.597 -0.5300  0.5867  0.2828
 6187SOL    HW127339   2.740   6.105   6.540 -1.1388  0.0640 -0.8017
 6187SOL    HW227340   2.624   6.008   6.545 -1.7531  0.8589  1.7947
 6188SOL     OW27341   9.023  10.515   4.731 -0.4085 -0.3248  0.5910
 6188SOL    HW127342   9.100  10.517   4.674 -0.7871  1.2380  0.0978
 6188SOL    HW227343   9.048  10.456   4.802  1.5504  0.7073  0.8381
 6189SOL     OW27344   9.134  11.150  12.349  0.0487 -0.2415  0.3330
 6189SOL    HW127345   9.057  11.094  12.340  1.1804 -1.4392 -3.5640
 6189SOL    HW227346   9.190  11.103  12.411 -1.0712 -0.8869  0.8869
 6190SOL     OW27347   4.489   9.723   3.850  0.2218  0.1226  0.5510
 6190SOL    HW127348   4.515   9.797   3.796 -2.1774 -0.0734 -1.0138
 6190SOL    HW227349   4.393   9.719   3.842  0.2239 -3.0218  0.6729
 6191SOL     OW27350  10.120   4.869   7.659  0.1391 -0.9637  0.3932
 6191SOL    HW127351  10.104   4.780   7.629 -1.0798 -0.3623 -0.8447
 6191SOL    HW227352  10.205   4.892   7.621 -0.5599 -0.8499 -1.1769
 6192SOL     OW27353   1.065   3.114   1.670 -0.0197  0.2902 -0.2061
 6192SOL    HW127354   1.081   3.204   1.640 -0.4299  0.2153 -0.6465
 6192SOL    HW227355   1.058   3.122   1.765  1.8966  0.4405 -0.0294
 6193SOL     OW27356   0.346   4.331   5.370  0.7303  0.2237  0.2351
 6193SOL    HW127357   0.430   4.369   5.396  0.9018  0.5253 -0.7210
 6193SOL    HW227358   0.290   4.406   5.351  0.1718  0.0271  1.0516
 6194SOL     OW27359   7.809   0.581   8.242  0.3237 -0.2536  0.0457
 6194SOL    HW127360   7.787   0.668   8.209  1.3130  0.0808  0.2601
 6194SOL    HW227361   7.841   0.596   8.330 -2.6044 -1.1697  1.4071
 6195SOL     OW27362   6.418   5.404   1.353 -0.4467  0.6303  0.4744
 6195SOL    HW127363   6.510   5.430   1.351 -0.3537  0.3147  0.6059
 6195SOL    HW227364   6.414   5.324   1.300 -0.6240  0.5767  0.5672
 6196SOL     OW27365   9.065  12.312   5.589  0.3323  0.2674 -0.3754
 6196SOL    HW127366   9.096  12.401   5.604  1.1683 -0.2821  1.4512
 6196SOL    HW227367   9.107  12.285   5.507 -0.1003  1.5991 -1.0580
 6197SOL     OW27368   7.220   2.873   2.375 -0.3034  0.1125  0.2610
 6197SOL    HW127369   7.168   2.894   2.452 -1.6728  2.4822 -1.1834
 6197SOL    HW227370   7.158   2.876   2.302  0.9430 -1.9966 -0.9933
 6198SOL     OW27371   3.138   1.105   7.600 -0.1630  0.2644  0.6260
 6198SOL    HW127372   3.169   1.139   7.684 -0.5346 -0.6291  1.1322
 6198SOL    HW227373   3.218   1.083   7.552  0.0335  0.2110  0.9791
 6199SOL     OW27374   1.637   0.586   9.979  0.0713 -0.4365  0.0558
 6199SOL    HW127375   1.593   0.604   9.896 -0.9369 -1.7945  0.2682
 6199SOL    HW227376   1.568   0.590  10.045  0.6241 -0.6826  0.6707
 6200SOL     OW27377   3.778  10.815   7.127 -0.1839 -0.2306  0.1863
 6200SOL    HW127378   3.696  10.862   7.108 -0.8238 -0.9253  1.1312
 6200SOL    HW227379   3.758  10.764   7.205  0.4126 -2.3030 -0.9652
 6201SOL     OW27380   0.772   3.591   3.864 -0.4459  0.7483 -0.2725
 6201SOL    HW127381   0.747   3.509   3.907 -0.8839  1.2217  0.3927
 6201SOL    HW227382   0.724   3.659   3.912  2.4097  1.7689  1.3637
 6202SOL     OW27383   6.048   6.273   9.387 -0.9287  0.1469  0.0609
 6202SOL    HW127384   6.142   6.290   9.399 -0.6660 -0.7341 -0.6262
 6202SOL    HW227385   6.028   6.310   9.302 -0.6653 -1.6277 -0.8220
 6203SOL     OW27386   9.518  12.305   6.387  0.1899 -0.1286  0.6991
 6203SOL    HW127387   9.522  12.368   6.315 -0.8639 -3.3842 -2.5259
 6203SOL    HW227388   9.425  12.298   6.407  0.4912  0.8897  2.6449
 6204SOL     OW27389   3.381   1.873  12.191  0.0149 -0.0643 -0.1361
 6204SOL    HW127390   3.315   1.926  12.236  0.5280  0.7561 -0.3392
 6204SOL    HW227391   3.394   1.797  12.249 -1.3532 -0.4205 -0.2696
 6205SOL     OW27392   9.104   5.993   6.040 -0.3021 -0.3519 -0.0238
 6205SOL    HW127393   9.033   6.048   6.005  0.1959  0.2527 -0.0924
 6205SOL    HW227394   9.134   5.942   5.965  0.2436  0.3771 -0.3000
 6206SOL     OW27395   4.784   8.380   8.729 -0.0621 -0.4811  0.6608
 6206SOL    HW127396   4.731   8.301   8.736  0.5084 -0.8919  0.3781
 6206SOL    HW227397   4.841   8.365   8.655 -0.3734  0.4629  0.2074
 6207SOL     OW27398   7.624   6.944   0.904 -0.1441 -0.2981  0.4262
 6207SOL    HW127399   7.548   6.903   0.863 -1.5762  1.2965  1.3445
 6207SOL    HW227400   7.605   7.038   0.901  2.9364  0.4525 -1.5437
 6208SOL     OW27401   4.655   9.872   0.133 -0.0484 -0.2592 -0.8776
 6208SOL    HW127402   4.742   9.910   0.136 -0.1623 -0.0273  0.0806
 6208SOL    HW227403   4.668   9.781   0.107  0.5525 -0.4078 -0.0750
 6209SOL     OW27404   2.530   2.690   9.130  0.2516  0.8907  0.2968
 6209SOL    HW127405   2.468   2.620   9.112  0.4901  0.4793  1.0725
 6209SOL    HW227406   2.534   2.695   9.225  2.9296 -0.4620  0.3274
 6210SOL     OW27407   1.846   7.391   6.826 -0.3049  0.3426  0.2869
 6210SOL    HW127408   1.917   7.453   6.834  1.5471 -1.4743 -1.0254
 6210SOL    HW227409   1.853   7.336   6.905 -0.1959  0.0900  0.1002
 6211SOL     OW27410  11.640  11.980   0.023 -0.1454 -0.1901  0.1013
 6211SOL    HW127411  11.645  11.919  -0.051 -0.5259 -1.5450  1.1485
 6211SOL    HW227412  11.730  11.988   0.054  0.0417  0.5098 -0.5744
 6212SOL     OW27413  11.582   2.006   4.477 -0.0714 -0.4977 -0.6714
 6212SOL    HW127414  11.566   1.962   4.394  0.6060 -0.5795 -0.7663
 6212SOL    HW227415  11.588   2.099   4.455 -2.0808 -0.2544 -0.3903
 6213SOL     OW27416   4.251   0.131   5.785  0.5195  0.1191 -0.0426
 6213SOL    HW127417   4.165   0.149   5.823 -0.2548 -0.1856 -1.5733
 6213SOL    HW227418   4.290   0.218   5.773 -0.8719  0.5396 -2.1431
 6214SOL     OW27419   8.803   2.535   9.749 -0.0499 -0.4972  0.2877
 6214SOL    HW127420   8.778   2.577   9.832  1.1709  0.7464  0.0503
 6214SOL    HW227421   8.719   2.507   9.711 -0.6688 -0.6906  1.7162
 6215SOL     OW27422   9.714   4.271  11.197 -0.0182 -0.1672 -0.6113
 6215SOL    HW127423   9.732   4.289  11.289 -0.5405  0.9476 -0.7118
 6215SOL    HW227424   9.668   4.187  11.198  0.9471 -0.7182  0.0320
 6216SOL     OW27425  11.839   7.587   1.534  0.0212 -0.0610 -0.1965
 6216SOL    HW127426  11.845   7.552   1.623 -0.8166 -0.6692 -0.3666
 6216SOL    HW227427  11.903   7.658   1.532  0.7763 -0.6892  0.5815
 6217SOL     OW27428   1.590   1.150  10.759  0.1189  0.2598 -0.3887
 6217SOL    HW127429   1.623   1.218  10.701  0.3593  1.4236  1.0510
 6217SOL    HW227430   1.663   1.133  10.819 -0.4163 -0.2787  0.1183
 6218SOL     OW27431   1.123   5.370   9.167 -0.0292 -0.6247  0.5114
 6218SOL    HW127432   1.047   5.312   9.170 -1.2525  0.7778 -1.2054
 6218SOL    HW227433   1.099   5.444   9.223  0.1356 -0.2859  0.1463
 6219SOL     OW27434   2.582   9.447   2.281 -0.2377 -0.5225 -0.1847
 6219SOL    HW127435   2.598   9.408   2.195  0.1492  1.2363 -0.9365
 6219SOL    HW227436   2.639   9.399   2.341  0.5687 -0.7964 -1.1615
 6220SOL     OW27437   9.505   4.770   8.122 -0.0832 -0.0478 -0.7074
 6220SOL    HW127438   9.558   4.824   8.064  0.1427 -1.4430 -1.8580
 6220SOL    HW227439   9.453   4.833   8.173  0.1469  1.2294 -1.9910
 6221SOL     OW27440   5.189   1.293   5.888  0.0878  0.1086 -0.0412
 6221SOL    HW127441   5.180   1.373   5.940 -0.2171 -0.0394  0.1423
 6221SOL    HW227442   5.121   1.301   5.821 -1.2353 -0.8426  1.1142
 6222SOL     OW27443   6.156   3.899   5.421  0.8256 -0.0884 -0.7432
 6222SOL    HW127444   6.134   3.867   5.509  0.2272  0.8265 -0.5476
 6222SOL    HW227445   6.180   3.820   5.372 -0.6679 -0.8592 -0.2899
 6223SOL     OW27446   0.711   0.445   9.045  0.1720 -0.4927  0.1365
 6223SOL    HW127447   0.617   0.457   9.058 -0.3920  1.7547 -4.0288
 6223SOL    HW227448   0.752   0.515   9.096 -0.7580  0.5455 -0.4853
 6224SOL     OW27449   0.100   1.050   0.646 -0.3417  0.1997 -0.3750
 6224SOL    HW127450   0.029   1.091   0.696 -1.8421 -1.7518 -0.7916
 6224SOL    HW227451   0.060   1.026   0.563  0.9470 -0.5722 -0.7955
 6225SOL     OW27452   4.863   1.188   2.276 -0.2389 -0.4301  0.2093
 6225SOL    HW127453   4.919   1.204   2.201 -0.6673 -1.0090 -0.2472
 6225SOL    HW227454   4.906   1.116   2.323 -0.1369 -0.2807  0.3452
 6226SOL     OW27455   9.491   7.791   0.903  0.4166 -0.3943 -0.0933
 6226SOL    HW127456   9.516   7.705   0.936 -0.0144  0.1868  1.8647
 6226SOL    HW227457   9.398   7.799   0.926 -0.0355 -0.1144 -1.8867
 6227SOL     OW27458   9.383   8.083   6.799 -0.5754  0.4329 -0.0186
 6227SOL    HW127459   9.374   8.137   6.878  0.0798  2.2674 -1.1466
 6227SOL    HW227460   9.315   8.115   6.740  0.2084  0.4441 -0.9378
 6228SOL     OW27461  10.763   0.788   6.137  0.5780  0.1815 -0.0193
 6228SOL    HW127462  10.830   0.740   6.186  0.1927  1.0978  1.4899
 6228SOL    HW227463  10.740   0.861   6.195 -0.8969  0.5352 -1.0105
 6229SOL     OW27464   8.080   4.879   1.880 -0.0097  0.1810 -0.1580
 6229SOL    HW127465   8.119   4.792   1.887  0.5059  0.4316  0.2408
 6229SOL    HW227466   8.044   4.883   1.792 -0.4689 -0.6094 -0.0157
 6230SOL     OW27467   8.947  12.453   2.960  0.0589 -0.1545  0.1939
 6230SOL    HW127468   8.944  12.401   2.879 -1.0313  0.4061 -0.1396
 6230SOL    HW227469   9.005  12.526   2.938  0.8629 -0.7147  0.3746
 6231SOL     OW27470   5.267  11.281   3.241 -0.5752  0.2318  0.0067
 6231SOL    HW127471   5.357  11.300   3.214 -0.6963  1.2435  0.2683
 6231SOL    HW227472   5.256  11.330   3.323 -1.3442  0.0743  0.0010
 6232SOL     OW27473   2.673   8.278   4.588 -0.2403 -0.3128 -0.5990
 6232SOL    HW127474   2.676   8.359   4.537  3.1093 -0.4702 -0.8815
 6232SOL    HW227475   2.679   8.308   4.679 -0.0130 -0.1841 -0.6531
 6233SOL     OW27476   6.422   1.607   7.572 -0.3160 -0.2924  0.0229
 6233SOL    HW127477   6.374   1.559   7.639 -0.7435  0.9449  0.6182
 6233SOL    HW227478   6.458   1.683   7.617  1.6390 -0.8115 -0.5542
 6234SOL     OW27479   8.750   7.250   4.878 -0.7905 -0.3030  0.4916
 6234SOL    HW127480   8.800   7.199   4.942  1.7443  0.5015 -0.6882
 6234SOL    HW227481   8.768   7.341   4.902 -0.5204  0.0022 -0.7861
 6235SOL     OW27482   0.648   0.656  12.096 -0.1196  0.2520 -0.0926
 6235SOL    HW127483   0.627   0.749  12.111 -1.4992 -0.2456  1.3175
 6235SOL    HW227484   0.690   0.628  12.177  0.1904 -0.3855 -0.4730
 6236SOL     OW27485  12.419   5.805   3.084 -0.1954  0.6988 -0.0823
 6236SOL    HW127486  12.421   5.709   3.090 -0.0846  0.7229  0.2962
 6236SOL    HW227487  12.462   5.824   3.001  0.8792  0.4663  0.4048
 6237SOL     OW27488   1.716   3.212   4.814  0.1991  0.4594 -0.2893
 6237SOL    HW127489   1.797   3.234   4.769  1.7240 -0.8088  1.6589
 6237SOL    HW227490   1.647   3.251   4.760  2.0238  0.9736 -2.3929
 6238SOL     OW27491   8.024   0.399   6.309 -0.2233 -0.7330  0.3019
 6238SOL    HW127492   8.003   0.307   6.299 -1.3683 -0.3881 -0.6189
 6238SOL    HW227493   8.113   0.408   6.274 -0.3293 -1.3743 -0.1301
 6239SOL     OW27494   3.307   3.274   6.081  0.0068 -0.0502 -0.2622
 6239SOL    HW127495   3.361   3.197   6.061  0.3137  0.2174 -0.4811
 6239SOL    HW227496   3.271   3.301   5.997  0.2971  0.3398 -0.2625
 6240SOL     OW27497   7.915   4.204   6.517 -0.5088  1.0089 -0.0060
 6240SOL    HW127498   8.005   4.237   6.510  0.2947 -1.2558 -1.3184
 6240SOL    HW227499   7.905   4.181   6.609  1.7281 -2.2582 -0.4050
 6241SOL     OW27500  11.064   8.186   5.842  0.3424  0.1177 -0.3580
 6241SOL    HW127501  11.074   8.227   5.928  1.1115 -1.9700  0.6155
 6241SOL    HW227502  11.133   8.120   5.839 -0.5151 -0.7592 -2.0324
 6242SOL     OW27503   7.093   4.446  11.722 -0.1599 -0.1639 -0.2432
 6242SOL    HW127504   7.103   4.386  11.648 -0.0721  0.0957 -0.4440
 6242SOL    HW227505   7.147   4.521  11.699 -0.1637 -0.0656  0.0690
 6243SOL     OW27506   9.182  11.438   7.795 -0.1450  0.1463 -0.2394
 6243SOL    HW127507   9.141  11.352   7.783 -2.1103  0.7773  1.4281
 6243SOL    HW227508   9.161  11.486   7.714 -1.1276 -0.1752 -0.1922
 6244SOL     OW27509  12.545   7.517   6.367 -0.0024  0.0121  0.4263
 6244SOL    HW127510  12.483   7.463   6.317  0.1380  1.4609 -1.4074
 6244SOL    HW227511  12.553   7.597   6.317 -0.3899  1.9158  3.1841
 6245SOL     OW27512  10.839   2.542   7.743  0.0586 -0.4357  0.3082
 6245SOL    HW127513  10.905   2.480   7.711 -2.7892 -2.2232 -2.6988
 6245SOL    HW227514  10.777   2.489   7.792 -0.5559  0.6934  0.7893
 6246SOL     OW27515   5.701   8.858   2.085  0.1004 -0.3039 -0.3741
 6246SOL    HW127516   5.615   8.815   2.077  0.1640 -0.6177  0.4863
 6246SOL    HW227517   5.747   8.807   2.152  0.5305  0.5387 -0.0120
 6247SOL     OW27518   2.836  12.224  10.583  0.6439 -0.5416  0.6709
 6247SOL    HW127519   2.930  12.220  10.602  0.7139 -3.3439  0.1017
 6247SOL    HW227520   2.823  12.162  10.512 -1.2270  2.0775 -1.4852
 6248SOL     OW27521  11.373  11.674   8.600  0.4625 -0.4582  0.1566
 6248SOL    HW127522  11.365  11.770   8.594  1.9668 -0.3610 -0.7032
 6248SOL    HW227523  11.315  11.651   8.673 -4.0626  0.4484 -2.7323
 6249SOL     OW27524   7.590   1.474   4.223  0.2120 -0.3355 -0.2517
 6249SOL    HW127525   7.565   1.532   4.295  0.1377  0.5169 -0.9391
 6249SOL    HW227526   7.669   1.515   4.186  0.0543 -0.5742 -0.8660
 6250SOL     OW27527   6.190   8.693   3.326 -0.5346 -0.2932 -0.2008
 6250SOL    HW127528   6.267   8.745   3.303 -1.2470  0.3216 -1.3142
 6250SOL    HW227529   6.176   8.636   3.250  0.4425 -2.4626  1.1374
 6251SOL     OW27530   3.173   1.671   4.837  0.0964 -0.5714 -0.1526
 6251SOL    HW127531   3.101   1.691   4.778  0.8919  1.0922 -0.6137
 6251SOL    HW227532   3.135   1.678   4.925 -0.3542  0.1518 -0.3992
 6252SOL     OW27533   8.237  11.148  10.782  0.7454 -0.7358 -0.5107
 6252SOL    HW127534   8.184  11.149  10.702  0.6191 -1.5790 -0.4431
 6252SOL    HW227535   8.301  11.079  10.768 -0.2090 -1.9302  0.7002
 6253SOL     OW27536   4.774   6.472  11.370  0.2230  0.1111  0.2143
 6253SOL    HW127537   4.714   6.498  11.300 -0.6724 -0.6236  0.6661
 6253SOL    HW227538   4.795   6.553  11.416  0.3830  0.5193 -0.5755
 6254SOL     OW27539  12.062  10.026   8.661  0.0897 -0.0274  0.2808
 6254SOL    HW127540  12.019  10.043   8.577 -1.4086 -0.6086  0.8876
 6254SOL    HW227541  12.007  10.070   8.726  0.3677 -0.8425  1.1000
 6255SOL     OW27542  10.584  11.624  11.092  0.2879  0.0972  0.5280
 6255SOL    HW127543  10.611  11.542  11.048  1.4478  0.4420  0.5697
 6255SOL    HW227544  10.587  11.690  11.022  0.4556  0.3155  0.7404
 6256SOL     OW27545   2.845  11.669  10.939  0.5428  0.4096 -0.1017
 6256SOL    HW127546   2.854  11.764  10.944  0.4219  0.4724 -0.9074
 6256SOL    HW227547   2.866  11.647  10.848  0.0847 -0.2738 -0.0555
 6257SOL     OW27548   0.964   1.464  11.046  0.0161  0.2628  0.0653
 6257SOL    HW127549   0.927   1.464  11.134  0.8218  0.1036  0.4195
 6257SOL    HW227550   0.972   1.557  11.024 -0.8062  0.2978 -0.1210
 6258SOL     OW27551   0.381   7.160   9.665 -0.2717 -0.6324 -0.8288
 6258SOL    HW127552   0.464   7.116   9.649  0.0011 -0.0206 -1.1552
 6258SOL    HW227553   0.405   7.243   9.706 -0.7150 -0.4100 -1.0109
 6259SOL     OW27554   4.001  12.531   6.768 -0.6153 -0.3115  0.3379
 6259SOL    HW127555   3.910  12.509   6.750 -0.4152 -0.5200 -0.4626
 6259SOL    HW227556   4.051  12.455   6.738 -0.3189 -1.3049  3.0782
 6260SOL     OW27557   3.006  10.007   8.068  0.4271  0.0716 -0.0004
 6260SOL    HW127558   3.008  10.078   8.003  0.4332  1.2712  1.2702
 6260SOL    HW227559   2.922   9.964   8.053  1.7819 -1.8620 -3.0000
 6261SOL     OW27560   1.214   8.280   4.482  0.3327 -0.1822  0.1023
 6261SOL    HW127561   1.150   8.266   4.551  0.1692 -1.0161 -0.2100
 6261SOL    HW227562   1.298   8.255   4.521  0.4287  0.5864  0.4037
 6262SOL     OW27563   2.086  12.272  10.407 -0.2025  0.0151  0.0498
 6262SOL    HW127564   2.014  12.308  10.458 -0.0740 -0.0407  0.2742
 6262SOL    HW227565   2.052  12.264  10.318 -0.3540  0.3270  0.0813
 6263SOL     OW27566   1.907   4.430   4.157  0.5424  0.1306  0.7267
 6263SOL    HW127567   1.870   4.433   4.069 -1.7474  0.7667  1.6545
 6263SOL    HW227568   1.855   4.492   4.208  1.8733 -0.1356  2.5279
 6264SOL     OW27569   9.495   1.124  10.874  0.0832 -0.3670  0.7707
 6264SOL    HW127570   9.578   1.161  10.844 -0.4087  0.2969  0.2104
 6264SOL    HW227571   9.447   1.105  10.793 -0.9561  0.7500  1.1061
 6265SOL     OW27572   6.969   8.349   8.799 -0.1766 -0.0642  0.1062
 6265SOL    HW127573   7.026   8.292   8.748 -0.8066 -0.7807  0.1783
 6265SOL    HW227574   6.988   8.437   8.767  0.3576 -0.3779 -0.4604
 6266SOL     OW27575   1.870  11.386   9.285  0.2353 -0.1203  0.1725
 6266SOL    HW127576   1.901  11.473   9.259 -0.0610  0.2706  1.0921
 6266SOL    HW227577   1.947  11.344   9.324  0.6474 -0.6624 -1.1422
 6267SOL     OW27578   2.354   2.718  12.174  0.3073 -0.1935  0.0837
 6267SOL    HW127579   2.307   2.662  12.112  0.2600  0.3236 -0.3576
 6267SOL    HW227580   2.296   2.793  12.187  0.0590 -0.5585  1.2075
 6268SOL     OW27581   8.386   2.454   4.574  0.2130 -0.5109  0.1016
 6268SOL    HW127582   8.476   2.449   4.606 -0.2873 -0.2222  1.6745
 6268SOL    HW227583   8.358   2.543   4.596 -0.7449 -0.8947  0.4889
 6269SOL     OW27584  12.041   6.428   2.120  0.2136  0.0121  0.4411
 6269SOL    HW127585  12.025   6.470   2.205 -2.2609 -1.0092  0.5611
 6269SOL    HW227586  12.083   6.345   2.143 -0.2381 -0.1576  0.6843
 6270SOL     OW27587   1.868   1.066  10.464  0.2288 -0.0979  0.1591
 6270SOL    HW127588   1.788   1.015  10.452 -0.1031  0.5072 -0.2164
 6270SOL    HW227589   1.929   1.030  10.399 -0.7184  1.4162 -1.6758
 6271SOL     OW27590   5.834   1.730   4.114  0.0722  0.2680 -0.4267
 6271SOL    HW127591   5.909   1.771   4.070 -0.6272  1.9590 -0.1476
 6271SOL    HW227592   5.833   1.771   4.201 -1.0631  0.1466 -0.3731
 6272SOL     OW27593   3.085   4.332  11.172  0.5329 -0.2768 -0.1866
 6272SOL    HW127594   3.086   4.409  11.115 -2.6120  1.2834  1.6388
 6272SOL    HW227595   3.124   4.361  11.254 -0.9584 -0.4564  0.6277
 6273SOL     OW27596   9.207  10.856   1.264  0.0483  0.2796  0.1491
 6273SOL    HW127597   9.274  10.866   1.331  0.1750  0.9866 -0.0785
 6273SOL    HW227598   9.183  10.764   1.268  0.2462  0.2585  0.9841
 6274SOL     OW27599   1.025  10.863   6.192  0.2969  0.6209  0.0161
 6274SOL    HW127600   0.971  10.937   6.218  2.3943  2.5256 -0.6734
 6274SOL    HW227601   1.060  10.888   6.106 -0.2772 -1.9794 -1.0583
 6275SOL     OW27602  10.531   2.429   8.568  0.2296 -0.6405  0.3272
 6275SOL    HW127603  10.512   2.498   8.632 -0.5990 -0.2643 -0.2989
 6275SOL    HW227604  10.618   2.397   8.592  1.6475  2.1313 -0.6327
 6276SOL     OW27605   3.619   3.048   1.436  0.1051  0.0141 -0.2319
 6276SOL    HW127606   3.592   2.958   1.418 -0.2421  0.0690  0.0204
 6276SOL    HW227607   3.542   3.101   1.417  0.7924  0.4499 -2.0469
 6277SOL     OW27608  10.670  10.645   0.708  0.2543 -0.1616  0.1471
 6277SOL    HW127609  10.600  10.705   0.682  0.1413  0.2395  1.3238
 6277SOL    HW227610  10.678  10.584   0.634 -0.7405  0.3053 -0.3660
 6278SOL     OW27611   1.719   2.441   0.406 -0.6256  0.1468 -0.0288
 6278SOL    HW127612   1.698   2.352   0.433  0.7641 -0.3686 -0.5583
 6278SOL    HW227613   1.686   2.496   0.477 -0.3754 -0.8918  0.9168
 6279SOL     OW27614   8.154  10.775   4.966 -0.2202  0.9755  0.2781
 6279SOL    HW127615   8.225  10.823   5.009  0.9623  1.6381 -2.1582
 6279SOL    HW227616   8.078  10.833   4.972  0.2520  1.5964  0.4205
 6280SOL     OW27617   6.885   3.951  10.562 -0.2912 -0.1018  0.1872
 6280SOL    HW127618   6.853   3.890  10.496 -1.1280  1.6209 -1.0794
 6280SOL    HW227619   6.813   4.013  10.573  1.1526  1.6343  0.1690
 6281SOL     OW27620   6.335   3.633   1.273  0.5005 -0.3493 -0.6602
 6281SOL    HW127621   6.415   3.670   1.311  1.9997 -0.0973 -3.7925
 6281SOL    HW227622   6.265   3.684   1.313  2.1685  2.2973 -0.8412
 6282SOL     OW27623   4.083  12.415   3.875 -0.0278  0.0608  0.0534
 6282SOL    HW127624   4.098  12.504   3.841  0.2912  0.5624  1.4638
 6282SOL    HW227625   4.103  12.421   3.968 -2.0633 -0.9926  0.6082
 6283SOL     OW27626   6.089   2.574   6.892 -0.4472  0.7674  0.5729
 6283SOL    HW127627   6.139   2.517   6.834 -1.6754 -1.8036  1.8586
 6283SOL    HW227628   6.153   2.637   6.925  1.1824 -0.3669 -0.2858
 6284SOL     OW27629   6.751   6.415   1.378 -0.0156 -0.0323  0.0564
 6284SOL    HW127630   6.712   6.362   1.447  0.0214 -0.8869 -0.5612
 6284SOL    HW227631   6.835   6.445   1.415 -0.3388  0.1549  0.6508
 6285SOL     OW27632   0.824   6.211   7.374  0.3185  0.2126  0.3072
 6285SOL    HW127633   0.810   6.303   7.353  0.1863  0.3144  0.8239
 6285SOL    HW227634   0.917   6.196   7.358  0.4904  0.6203  0.8866
 6286SOL     OW27635   1.919   6.610   3.399  0.1177  0.2036 -0.7162
 6286SOL    HW127636   1.942   6.621   3.492 -0.0701  0.7896 -0.7346
 6286SOL    HW227637   1.997   6.639   3.352  1.8876 -3.9186 -0.7638
 6287SOL     OW27638   2.890   4.980   0.990 -0.0830  0.2325  0.1604
 6287SOL    HW127639   2.811   4.989   0.937 -1.7692  0.3586  2.5445
 6287SOL    HW227640   2.883   4.894   1.030  1.2141  0.0707  0.0667
 6288SOL     OW27641   4.127   2.090   1.708  0.0015 -0.0104 -0.3042
 6288SOL    HW127642   4.114   1.998   1.732  0.1846  0.4892  1.9596
 6288SOL    HW227643   4.161   2.087   1.619  1.1646 -2.2250  0.1309
 6289SOL     OW27644  10.036   7.659   1.642 -0.1097  0.1888  0.5295
 6289SOL    HW127645  10.040   7.612   1.558  0.7696  1.7233 -0.3494
 6289SOL    HW227646  10.041   7.591   1.708 -4.1614 -1.3978 -0.5424
 6290SOL     OW27647   3.804  10.842  10.822 -0.4231  0.0559 -0.3358
 6290SOL    HW127648   3.742  10.854  10.750 -2.0412 -1.8719  0.6353
 6290SOL    HW227649   3.768  10.768  10.872  0.3757  1.5947  2.7080
 6291SOL     OW27650   4.504   9.453   3.925  0.1061 -0.6389 -0.3020
 6291SOL    HW127651   4.535   9.435   4.013  2.5638 -3.2749 -1.5428
 6291SOL    HW227652   4.463   9.540   3.931  1.6336  0.0096  3.0267
 6292SOL     OW27653   6.936   5.551   1.173 -0.1295  0.0455  0.1956
 6292SOL    HW127654   6.908   5.486   1.238 -3.8114 -0.0844 -1.2961
 6292SOL    HW227655   6.938   5.634   1.221  0.4735 -0.5304  1.1842
 6293SOL     OW27656   5.350   7.005   8.763 -0.3296 -0.0605  0.2130
 6293SOL    HW127657   5.376   7.076   8.705 -0.1617 -0.2097  0.1069
 6293SOL    HW227658   5.371   7.037   8.851  1.0767 -0.5384  0.0786
 6294SOL     OW27659   4.080   2.258  11.898 -0.2648 -0.6800  0.5143
 6294SOL    HW127660   4.161   2.268  11.949 -0.7411 -0.8202  1.3263
 6294SOL    HW227661   4.039   2.344  11.903  0.5524 -0.1412 -1.2121
 6295SOL     OW27662   4.591   0.560   2.873 -0.5147 -0.1369  0.6226
 6295SOL    HW127663   4.508   0.559   2.920 -1.2567  0.0986 -0.6170
 6295SOL    HW227664   4.652   0.605   2.931 -1.4047  0.1885  1.3162
 6296SOL     OW27665   9.271   6.246   4.964 -0.8165 -0.1157 -0.3762
 6296SOL    HW127666   9.198   6.305   4.981 -0.6911  0.0066 -0.2603
 6296SOL    HW227667   9.319   6.242   5.046 -1.0325 -0.6758 -0.2724
 6297SOL     OW27668   0.243   8.416   8.643  0.1646  0.0553  0.1307
 6297SOL    HW127669   0.252   8.333   8.597 -0.5492 -0.6778  1.2557
 6297SOL    HW227670   0.319   8.420   8.701  1.1880  1.0857 -1.2202
 6298SOL     OW27671   6.873   5.046   9.103  0.3523 -0.0757  0.2741
 6298SOL    HW127672   6.933   5.120   9.106  0.7326 -0.3690 -0.0960
 6298SOL    HW227673   6.789   5.083   9.130  1.0176 -0.0059  2.4284
 6299SOL     OW27674   0.925   7.075   9.772 -0.2208  0.3913  0.1829
 6299SOL    HW127675   0.970   6.993   9.753  0.4319  0.3801  1.6247
 6299SOL    HW227676   0.834   7.059   9.747  0.0048 -0.5957 -0.0465
 6300SOL     OW27677   5.674   8.741   5.640  0.2045 -0.6324 -0.3875
 6300SOL    HW127678   5.720   8.665   5.602  1.8452 -2.1114  3.8951
 6300SOL    HW227679   5.739   8.811   5.639  1.1389 -1.3746  1.5016
 6301SOL     OW27680  12.081  10.780  12.304 -0.1786  0.2098  0.4828
 6301SOL    HW127681  12.174  10.759  12.306  0.1480  1.3395 -0.9638
 6301SOL    HW227682  12.063  10.819  12.390  0.8914  0.7737  0.4679
 6302SOL     OW27683   3.595   1.777   1.299  0.0864 -0.4064  0.2265
 6302SOL    HW127684   3.621   1.699   1.348  1.4622 -1.3051 -1.7563
 6302SOL    HW227685   3.678   1.816   1.272 -0.6070  1.0926  0.1863
 6303SOL     OW27686   9.737   6.825   6.780  0.3967  0.0303  0.4250
 6303SOL    HW127687   9.691   6.870   6.851  0.0474  0.1857  0.1111
 6303SOL    HW227688   9.669   6.772   6.738  1.0968 -1.9740  1.6891
 6304SOL     OW27689  11.752   0.895   6.160  0.8465  0.3408  0.4403
 6304SOL    HW127690  11.745   0.851   6.245  0.6901  2.1618  1.4161
 6304SOL    HW227691  11.826   0.955   6.170  1.1906  0.1899 -0.9279
 6305SOL     OW27692  10.129   1.244   6.611 -0.4989  0.6244  0.0566
 6305SOL    HW127693  10.088   1.301   6.546 -0.5729 -2.1365 -2.5505
 6305SOL    HW227694  10.196   1.196   6.562 -0.7445 -1.8227  1.9232
 6306SOL     OW27695   4.046   5.643   5.522  0.1253 -0.4355 -0.1634
 6306SOL    HW127696   3.983   5.640   5.450 -0.0505 -1.3656  0.0069
 6306SOL    HW227697   4.090   5.558   5.519  0.1936 -0.4494  0.7465
 6307SOL     OW27698   4.488   7.935   9.897  0.1605  0.0538  0.0393
 6307SOL    HW127699   4.465   7.858   9.949  0.8690  0.3472  0.8152
 6307SOL    HW227700   4.573   7.962   9.931 -0.1557  1.2881 -0.1019
 6308SOL     OW27701   7.602   0.026   1.938  0.2530  0.6936 -1.2940
 6308SOL    HW127702   7.688   0.010   1.901  0.3784  0.8735 -1.0802
 6308SOL    HW227703   7.609   0.111   1.980  0.1989  0.3589 -0.5918
 6309SOL     OW27704   1.013   1.881   6.116 -0.4780 -0.0353 -0.0618
 6309SOL    HW127705   0.984   1.790   6.106 -0.4583 -0.0477 -0.0082
 6309SOL    HW227706   0.945   1.922   6.168 -0.0183 -0.2662  0.7543
 6310SOL     OW27707  11.695   6.530   8.744 -0.0624 -0.5166  0.2788
 6310SOL    HW127708  11.607   6.497   8.729 -1.0394  0.7556  2.6329
 6310SOL    HW227709  11.720   6.493   8.828  0.3724  1.5230  1.0990
 6311SOL     OW27710  10.759   2.255   7.205 -0.2825  0.0105  0.3319
 6311SOL    HW127711  10.779   2.306   7.126 -1.0442 -0.6741 -0.3173
 6311SOL    HW227712  10.791   2.309   7.277  1.0981  0.3282 -0.4781
 6312SOL     OW27713   6.212  10.707   3.796  0.3135  0.3744  0.4462
 6312SOL    HW127714   6.172  10.787   3.761  0.5109  0.4122  0.3106
 6312SOL    HW227715   6.294  10.698   3.747 -0.9892 -1.4346 -1.5804
 6313SOL     OW27716   4.833   6.545   4.913 -0.5077  0.3809  0.2144
 6313SOL    HW127717   4.743   6.578   4.907 -1.6570 -2.3423  0.7172
 6313SOL    HW227718   4.857   6.556   5.004 -1.6750 -1.7985  0.8633
 6314SOL     OW27719   3.748   6.710   0.557  0.2233  0.4131 -0.4087
 6314SOL    HW127720   3.713   6.706   0.468 -0.2153  2.9802 -0.4199
 6314SOL    HW227721   3.671   6.700   0.613  0.5807 -1.9067 -0.2244
 6315SOL     OW27722   4.621   4.873   8.443  0.3873  0.4727 -0.3138
 6315SOL    HW127723   4.667   4.929   8.506 -1.8659  1.7352  0.2932
 6315SOL    HW227724   4.580   4.934   8.382  0.4773 -0.6651 -1.5638
 6316SOL     OW27725   3.859   5.063   5.472 -0.4385  0.1543 -0.7044
 6316SOL    HW127726   3.802   4.992   5.500 -0.4999  0.7497  0.8017
 6316SOL    HW227727   3.922   5.022   5.413 -0.9403 -0.9921 -0.4696
 6317SOL     OW27728  11.903  11.699   1.501  0.2487  0.1755  0.1223
 6317SOL    HW127729  11.911  11.747   1.583 -1.1122  0.9242 -0.1442
 6317SOL    HW227730  11.899  11.768   1.434 -1.9271 -0.2428 -0.2603
 6318SOL     OW27731  11.421   3.174  11.833 -0.1865  0.0171 -0.2626
 6318SOL    HW127732  11.407   3.222  11.752  0.1147  0.5523  0.0020
 6318SOL    HW227733  11.473   3.232  11.888  3.9992 -2.1436 -1.5061
 6319SOL     OW27734   1.587   0.284   9.811 -0.4892  0.3902  0.2231
 6319SOL    HW127735   1.663   0.231   9.835 -1.6015 -1.9304 -0.9810
 6319SOL    HW227736   1.591   0.360   9.869  1.6763 -0.5867  1.4870
 6320SOL     OW27737   3.450   7.423  11.501 -0.0818 -0.1333 -0.1848
 6320SOL    HW127738   3.354   7.426  11.511 -0.0878 -0.2135 -0.2131
 6320SOL    HW227739   3.470   7.329  11.497 -0.2316 -0.1172 -2.4300
 6321SOL     OW27740   2.412   9.853  10.994 -0.0614 -0.1378 -0.4045
 6321SOL    HW127741   2.356   9.930  11.006  2.6434  1.9562  0.0680
 6321SOL    HW227742   2.413   9.811  11.080 -0.7625 -0.0987 -0.3732
 6322SOL     OW27743   2.613   8.150  10.322 -0.2355  0.5056  0.0877
 6322SOL    HW127744   2.657   8.085  10.267 -0.9372 -0.1648  0.2981
 6322SOL    HW227745   2.561   8.098  10.384  1.5171  1.1859  2.2581
 6323SOL     OW27746  11.972   8.614   3.367 -0.3460 -0.3698 -0.1202
 6323SOL    HW127747  12.024   8.558   3.424 -0.1812 -0.8202 -0.7024
 6323SOL    HW227748  11.976   8.701   3.408  0.7328 -0.4345 -0.0656
 6324SOL     OW27749  10.342   6.229  12.080 -0.0740  0.5801 -0.1181
 6324SOL    HW127750  10.415   6.291  12.079  1.0293 -0.6053  1.3343
 6324SOL    HW227751  10.355   6.179  12.161 -1.8696 -0.4197 -0.4056
 6325SOL     OW27752   3.504   0.796   2.785 -0.0659  0.4794  0.4939
 6325SOL    HW127753   3.494   0.725   2.722 -2.9777  0.4785  0.8219
 6325SOL    HW227754   3.472   0.759   2.868  0.1092  1.6111  1.0920
 6326SOL     OW27755   6.274  10.329   8.685 -0.4779 -0.2543 -0.2382
 6326SOL    HW127756   6.255  10.353   8.776 -1.3054 -2.8479  0.3474
 6326SOL    HW227757   6.249  10.407   8.634 -1.3671  0.7283  1.6026
 6327SOL     OW27758   1.256   7.129   5.115 -0.3111 -0.1757  0.3041
 6327SOL    HW127759   1.287   7.207   5.068 -0.4275 -0.3447 -0.0603
 6327SOL    HW227760   1.272   7.148   5.207 -0.1635  0.2024  0.2017
 6328SOL     OW27761   2.365   8.250  10.580  0.1737 -0.2666 -0.0503
 6328SOL    HW127762   2.451   8.285  10.603  0.2718  0.9872 -2.1137
 6328SOL    HW227763   2.306   8.285  10.648  1.2748 -1.2682  1.4693
 6329SOL     OW27764   6.211   4.798   5.156  0.1951  0.6706  0.4951
 6329SOL    HW127765   6.280   4.855   5.124  0.9449 -0.8950 -0.8421
 6329SOL    HW227766   6.255   4.736   5.214  0.0039 -0.4697 -0.5263
 6330SOL     OW27767   3.498   1.873   2.042 -0.1339 -0.1000 -0.0749
 6330SOL    HW127768   3.420   1.897   1.992  1.1838 -0.4637 -2.4699
 6330SOL    HW227769   3.532   1.956   2.075 -1.6602  0.0277  1.2826
 6331SOL     OW27770   3.003   4.312   3.003 -0.0350 -0.1446  0.3394
 6331SOL    HW127771   2.956   4.229   2.991  0.5316 -0.3401 -0.6125
 6331SOL    HW227772   3.015   4.346   2.915  0.0519  0.7934  0.6942
 6332SOL     OW27773   8.858   6.687   3.523 -0.0513  0.1954 -0.0172
 6332SOL    HW127774   8.856   6.736   3.440  0.2108  1.3741  0.6501
 6332SOL    HW227775   8.818   6.746   3.586 -1.9370 -1.4180  0.3567
 6333SOL     OW27776   5.124   3.559   5.538 -0.1856 -0.6154  0.4512
 6333SOL    HW127777   5.083   3.602   5.613  0.5772  1.4631 -0.2494
 6333SOL    HW227778   5.143   3.630   5.477  0.7765 -2.0304 -0.9889
 6334SOL     OW27779  11.809   3.729   4.679  1.0410  0.0677  0.5407
 6334SOL    HW127780  11.716   3.750   4.671  0.7842  0.9288  4.0952
 6334SOL    HW227781  11.845   3.746   4.591 -2.2309 -1.2478 -1.2341
 6335SOL     OW27782   7.734  12.509   8.272  0.1074  0.4426  0.6850
 6335SOL    HW127783   7.780  12.439   8.318 -1.7165  0.2658  2.3734
 6335SOL    HW227784   7.774  12.590   8.304 -0.3169  0.2741  1.6670
 6336SOL     OW27785   2.784  10.707   5.143  0.3819 -0.1749 -0.7798
 6336SOL    HW127786   2.822  10.639   5.198  1.1315  0.2492 -0.7593
 6336SOL    HW227787   2.817  10.789   5.180  2.0236  0.0868 -2.6594
 6337SOL     OW27788   3.256  12.241  10.348 -0.2820  0.2408  0.5782
 6337SOL    HW127789   3.339  12.277  10.382 -0.4729  1.7685 -0.4593
 6337SOL    HW227790   3.238  12.165  10.404  1.2366  0.5491  1.5508
 6338SOL     OW27791   9.250   2.686   3.295 -0.3173  0.2198 -0.5630
 6338SOL    HW127792   9.205   2.764   3.261  0.6766  1.1520  0.1771
 6338SOL    HW227793   9.293   2.716   3.375 -1.3685 -1.5558  0.7143
 6339SOL     OW27794   1.239   2.306   5.384  0.4749 -0.1041 -0.6601
 6339SOL    HW127795   1.149   2.309   5.349  0.9996  0.4298 -2.0614
 6339SOL    HW227796   1.281   2.236   5.334  0.8000 -0.4575  0.1061
 6340SOL     OW27797   2.269   2.113  10.948 -0.5904  0.6025  0.1576
 6340SOL    HW127798   2.178   2.092  10.966 -0.6832  1.0785  0.2599
 6340SOL    HW227799   2.318   2.036  10.978 -0.9965  0.1094 -0.4207
 6341SOL     OW27800   9.043  12.215  10.639  0.1405 -0.5521 -0.0285
 6341SOL    HW127801   9.106  12.258  10.581 -0.6702 -2.1063 -2.1531
 6341SOL    HW227802   9.038  12.125  10.607 -2.9316 -0.5688  0.2648
 6342SOL     OW27803   8.061   5.459   2.052 -0.5591  0.4118 -0.5469
 6342SOL    HW127804   8.096   5.486   1.967  1.1595 -0.5649 -0.2006
 6342SOL    HW227805   8.051   5.541   2.100 -2.2755  1.0667 -1.8895
 6343SOL     OW27806   2.754   6.246   3.114  0.2949 -0.1245 -0.0888
 6343SOL    HW127807   2.829   6.212   3.064  2.0339  1.6249  1.2162
 6343SOL    HW227808   2.741   6.335   3.080 -0.6177 -0.0856  0.3397
 6344SOL     OW27809   2.078   3.871   3.573  0.1473  0.4515  0.2885
 6344SOL    HW127810   2.004   3.928   3.588 -0.3348 -0.2821  0.7521
 6344SOL    HW227811   2.095   3.877   3.479 -1.0671 -0.0641  0.0294
 6345SOL     OW27812   7.617  11.981   1.255  0.6665 -0.3183 -0.2150
 6345SOL    HW127813   7.522  11.992   1.257  0.8178  1.9061 -1.6266
 6345SOL    HW227814   7.648  12.025   1.334  0.6028  0.4649 -0.6163
 6346SOL     OW27815   9.721   1.266   6.756  0.5965  0.1112  0.2184
 6346SOL    HW127816   9.774   1.220   6.691  0.1545 -0.3197  0.1524
 6346SOL    HW227817   9.718   1.206   6.831  0.7384  0.4132  0.4675
 6347SOL     OW27818   3.770  10.734   4.488 -0.0191  0.4619  0.3902
 6347SOL    HW127819   3.721  10.659   4.456 -1.4111  1.5205 -0.0529
 6347SOL    HW227820   3.853  10.697   4.519  0.2985 -0.9627 -1.9096
 6348SOL     OW27821   9.857   0.522   8.493  0.2712  0.7138  0.6139
 6348SOL    HW127822   9.923   0.591   8.494  0.5160  0.4821  1.9090
 6348SOL    HW227823   9.862   0.482   8.580 -0.9072  0.0569  0.4069
 6349SOL     OW27824   6.244  10.157   3.567 -0.1378 -0.5611 -0.0406
 6349SOL    HW127825   6.153  10.173   3.595 -0.3014 -1.6509  0.1016
 6349SOL    HW227826   6.283  10.244   3.563 -1.5510  0.0699 -1.3723
 6350SOL     OW27827   7.395   2.218  11.134 -0.6264  0.8208  0.3977
 6350SOL    HW127828   7.487   2.241  11.121 -0.8575  0.7989 -1.6206
 6350SOL    HW227829   7.384   2.137  11.084 -1.4398  0.0384  1.7822
 6351SOL     OW27830   8.083   8.198   4.413 -0.4075 -0.0697  0.1796
 6351SOL    HW127831   7.991   8.187   4.388  0.0668  0.0572 -1.8231
 6351SOL    HW227832   8.130   8.191   4.330  1.5436 -1.6746  1.3412
 6352SOL     OW27833   3.459   0.766   1.733  0.2378 -0.3228 -0.4298
 6352SOL    HW127834   3.549   0.799   1.743  0.6319 -1.1338 -1.1109
 6352SOL    HW227835   3.423   0.768   1.822  1.3391 -1.0969  0.0583
 6353SOL     OW27836   7.558   7.333   1.728  0.2885 -0.2946  0.0752
 6353SOL    HW127837   7.553   7.271   1.655 -1.0064 -0.5375  0.3426
 6353SOL    HW227838   7.606   7.286   1.796 -0.4003 -0.8899  0.1584
 6354SOL     OW27839   6.731   0.342  10.446  0.0465 -0.0806  0.0333
 6354SOL    HW127840   6.702   0.391  10.523 -2.4811 -1.8483  0.3129
 6354SOL    HW227841   6.654   0.337  10.389  0.3187 -3.0920 -0.2590
 6355SOL     OW27842   9.930   1.402   3.262 -0.4800 -0.2463 -0.1692
 6355SOL    HW127843   9.968   1.439   3.182  0.2553 -1.8102 -0.5865
 6355SOL    HW227844   9.949   1.467   3.329 -1.3909  1.2592 -1.3009
 6356SOL     OW27845  10.253  12.056  11.761 -0.2417 -0.4030  0.0690
 6356SOL    HW127846  10.330  12.053  11.818  0.1115  0.6562 -0.3376
 6356SOL    HW227847  10.262  11.980  11.704  1.3542  0.5543 -1.0302
 6357SOL     OW27848  10.086  11.661   4.084 -0.0497 -0.4117  0.0753
 6357SOL    HW127849  10.058  11.751   4.068 -0.2234 -0.5660 -0.5323
 6357SOL    HW227850  10.138  11.666   4.164 -0.2692  0.1834  0.1901
 6358SOL     OW27851   1.426   6.935   2.921  0.1598  0.6502 -0.0773
 6358SOL    HW127852   1.342   6.957   2.962  0.1174 -0.0116  0.1917
 6358SOL    HW227853   1.468   6.874   2.982  0.8907  1.0538 -0.1566
 6359SOL     OW27854   1.163   7.539  11.758 -0.4721 -0.1835 -0.0383
 6359SOL    HW127855   1.215   7.548  11.679 -0.3619 -0.1755  0.0349
 6359SOL    HW227856   1.139   7.446  11.761 -0.4743 -0.1841 -0.0805
 6360SOL     OW27857   4.728   4.717   1.864  0.2872 -0.0615 -0.5757
 6360SOL    HW127858   4.702   4.739   1.775 -0.2482 -1.1172 -0.6980
 6360SOL    HW227859   4.796   4.781   1.886 -0.1612  0.7300 -1.4290
 6361SOL     OW27860   2.875   1.271   3.036  0.0376  0.6551 -0.1725
 6361SOL    HW127861   2.854   1.338   2.971 -1.0117  0.3954 -0.1220
 6361SOL    HW227862   2.848   1.189   2.995  0.8654  0.3081 -0.0392
 6362SOL     OW27863  11.143   6.221   4.192 -0.2170 -0.3891  0.1063
 6362SOL    HW127864  11.205   6.291   4.211  2.5945 -2.2428 -1.4910
 6362SOL    HW227865  11.150   6.163   4.267 -0.1027 -0.5134  0.0013
 6363SOL     OW27866   0.859   9.698   7.287 -0.1112  0.1759  0.3153
 6363SOL    HW127867   0.859   9.611   7.247  1.1190  0.0147  0.6185
 6363SOL    HW227868   0.833   9.757   7.217  1.8691 -0.1198 -0.7405
 6364SOL     OW27869   7.052   4.205  11.157 -0.6121  0.0792 -0.2484
 6364SOL    HW127870   6.976   4.257  11.183 -0.2207  0.1343  0.8278
 6364SOL    HW227871   7.073   4.152  11.234 -0.3224 -0.8648 -0.9581
 6365SOL     OW27872  12.526   8.398   2.041 -0.0271  0.1128  1.0207
 6365SOL    HW127873  12.509   8.484   2.081  0.3191  0.4198  0.5195
 6365SOL    HW227874  12.488   8.405   1.953 -2.1335 -1.0661  1.7605
 6366SOL     OW27875   9.075   5.445   1.108 -0.0127 -0.1003  0.1070
 6366SOL    HW127876   9.062   5.539   1.119  0.8333 -0.1662  1.8632
 6366SOL    HW227877   9.163   5.437   1.072 -0.4401 -0.2009 -0.9566
 6367SOL     OW27878   2.940   0.963   0.446 -0.1535 -0.1488 -0.5183
 6367SOL    HW127879   3.022   0.991   0.488  0.7610  0.9592 -2.8793
 6367SOL    HW227880   2.872   1.009   0.495  0.6519 -0.6614  1.1450
 6368SOL     OW27881   1.220   1.855   3.569  0.5069 -0.2254  0.1170
 6368SOL    HW127882   1.128   1.837   3.588  0.2527 -0.5570 -1.3239
 6368SOL    HW227883   1.219   1.900   3.484  1.7446 -1.5573 -0.6553
 6369SOL     OW27884   9.651   4.935   8.746 -0.2085 -0.2695 -0.3688
 6369SOL    HW127885   9.625   4.864   8.687 -0.6060 -0.3074 -0.1462
 6369SOL    HW227886   9.745   4.946   8.729  0.3370 -2.2308  1.0355
 6370SOL     OW27887   5.318   2.565   3.040 -0.3770 -0.1902  0.1919
 6370SOL    HW127888   5.243   2.608   3.081 -0.2846  0.3141 -0.1647
 6370SOL    HW227889   5.392   2.587   3.096 -0.3150  0.1839 -0.0401
 6371SOL     OW27890   9.673   1.505   1.268 -0.4226 -0.1448  0.2390
 6371SOL    HW127891   9.670   1.490   1.173  0.7443 -1.6698  0.4017
 6371SOL    HW227892   9.671   1.600   1.277 -0.2906  0.0392 -1.3384
 6372SOL     OW27893  10.863   7.538   5.811 -0.1512 -0.2008  0.0704
 6372SOL    HW127894  10.902   7.585   5.884 -0.3298  0.3087 -0.1584
 6372SOL    HW227895  10.895   7.582   5.732 -3.2067  1.9813 -0.1132
 6373SOL     OW27896  10.285   1.125   3.068  0.1179 -0.3509 -0.6297
 6373SOL    HW127897  10.193   1.099   3.075  0.1404 -0.0036  2.0479
 6373SOL    HW227898  10.314   1.089   2.985 -1.7694 -2.6579 -0.3965
 6374SOL     OW27899   6.626   5.658   8.080 -0.0306  0.1164 -0.2176
 6374SOL    HW127900   6.575   5.719   8.134  0.6481  1.1251 -0.6775
 6374SOL    HW227901   6.717   5.680   8.100  0.2511 -1.4023  0.3174
 6375SOL     OW27902   1.083   8.294   7.033 -0.3826 -0.4204 -0.5659
 6375SOL    HW127903   1.097   8.276   7.126 -1.5348  1.6478  0.0469
 6375SOL    HW227904   1.171   8.311   6.999 -0.0941  0.3699  0.5132
 6376SOL     OW27905   7.484  12.131   5.413 -0.1582 -0.1540  0.0557
 6376SOL    HW127906   7.494  12.201   5.349 -1.7750  0.3091  0.2640
 6376SOL    HW227907   7.440  12.172   5.488  2.9486 -0.3108  2.1802
 6377SOL     OW27908   7.104   3.450   1.716  0.8215 -0.2060  0.1199
 6377SOL    HW127909   7.147   3.499   1.645  3.1784  0.7558  2.0564
 6377SOL    HW227910   7.099   3.512   1.789 -2.0092 -0.9924  0.7291
 6378SOL     OW27911   6.058   6.537   8.941 -0.2505  0.0430  0.2521
 6378SOL    HW127912   6.043   6.529   8.847 -1.4711  0.2039  0.4184
 6378SOL    HW227913   6.150   6.512   8.953 -0.5747 -1.8336 -0.7379
 6379SOL     OW27914   8.576   2.196  10.692  0.0658  0.2938 -0.3348
 6379SOL    HW127915   8.490   2.164  10.664 -0.1618 -0.4712  1.0939
 6379SOL    HW227916   8.625   2.210  10.611 -1.0596 -0.2490 -1.1347
 6380SOL     OW27917  11.543   4.530   9.268  0.3813 -0.2956  0.0559
 6380SOL    HW127918  11.469   4.590   9.259  1.5180  0.8962 -2.2678
 6380SOL    HW227919  11.609   4.580   9.317  0.6710 -0.2879 -0.3355
 6381SOL     OW27920   1.327  11.268   3.887  0.3168  0.3814 -0.4622
 6381SOL    HW127921   1.304  11.297   3.799  2.0604  0.8516 -0.7919
 6381SOL    HW227922   1.417  11.235   3.879  1.2726  2.2746  1.4985
 6382SOL     OW27923  10.265   6.412   9.335  0.2946 -0.1054  0.2632
 6382SOL    HW127924  10.217   6.338   9.297 -1.1567  1.4235 -1.0670
 6382SOL    HW227925  10.322   6.443   9.265 -1.7629  2.2068 -0.5214
 6383SOL     OW27926   4.797   1.341   5.970  0.0553  0.1211 -0.2647
 6383SOL    HW127927   4.721   1.382   5.929  0.4817  0.1107 -1.0636
 6383SOL    HW227928   4.759   1.273   6.027 -0.5260 -0.0323 -0.8255
 6384SOL     OW27929   4.175   1.086   2.164 -0.0681 -0.0589  0.2518
 6384SOL    HW127930   4.156   1.159   2.105  2.4183  0.7473  0.3213
 6384SOL    HW227931   4.168   1.008   2.110  1.3891  0.6074 -0.9585
 6385SOL     OW27932   2.163   2.600   7.714  0.0205  0.0567  0.0351
 6385SOL    HW127933   2.132   2.553   7.637 -1.6840  1.7254 -0.3846
 6385SOL    HW227934   2.105   2.572   7.785 -0.2325  0.6076  0.0529
 6386SOL     OW27935   9.870  11.372  10.100  0.4285  0.6449  0.2528
 6386SOL    HW127936   9.844  11.457  10.136  1.6738  1.0573  0.2124
 6386SOL    HW227937   9.810  11.310  10.141 -0.4438  1.5277  0.3513
 6387SOL     OW27938  10.930   7.414   1.682  0.1563  0.2624 -0.1378
 6387SOL    HW127939  10.937   7.384   1.773  0.2762 -0.9623 -0.5310
 6387SOL    HW227940  10.884   7.343   1.637 -0.2193  1.0100 -0.9703
 6388SOL     OW27941   8.870  11.105   0.275  0.3014 -0.4662  0.3028
 6388SOL    HW127942   8.899  11.144   0.357  0.6074 -0.6626  0.2872
 6388SOL    HW227943   8.800  11.045   0.300  0.5819 -0.7325  0.4513
 6389SOL     OW27944   9.587   2.419   6.608 -0.0213 -0.4484 -0.1198
 6389SOL    HW127945   9.584   2.387   6.517  0.8563 -1.0847  0.0672
 6389SOL    HW227946   9.533   2.498   6.607  0.6435  0.0209 -1.3919
 6390SOL     OW27947   1.280  10.604   9.055  0.1760 -0.0606  0.2307
 6390SOL    HW127948   1.317  10.692   9.054 -1.0337  0.5599  2.5047
 6390SOL    HW227949   1.341  10.551   9.003  1.0616  2.0310 -0.9922
 6391SOL     OW27950   2.473   8.088   4.608  0.0461  0.4349  0.0525
 6391SOL    HW127951   2.537   8.157   4.590 -0.4021  0.7164 -0.4652
 6391SOL    HW227952   2.525   8.008   4.613  0.2561  0.3998 -2.0210
 6392SOL     OW27953   0.352   7.154  10.996  0.0225 -0.3534  1.4934
 6392SOL    HW127954   0.335   7.234  11.047 -1.1259  0.0777  0.4652
 6392SOL    HW227955   0.276   7.098  11.013 -1.0164  0.3053 -0.6854
 6393SOL     OW27956   5.031   5.534   5.304  0.1451 -0.2162 -0.1043
 6393SOL    HW127957   5.046   5.460   5.245 -3.0274  0.3017 -1.7639
 6393SOL    HW227958   4.937   5.534   5.319  0.5859  0.7259  3.7582
 6394SOL     OW27959   8.631   5.852   0.536 -0.0361  0.1126 -0.1460
 6394SOL    HW127960   8.638   5.859   0.441  0.3451 -0.3022 -0.1527
 6394SOL    HW227961   8.696   5.912   0.570 -0.8374  0.9900 -0.1290
 6395SOL     OW27962   6.196   2.995   4.559 -0.1986  0.8012 -0.2617
 6395SOL    HW127963   6.132   2.938   4.602  0.5481  0.3510  0.2847
 6395SOL    HW227964   6.249   2.935   4.506  1.1569  0.8253  1.0006
 6396SOL     OW27965   8.134   4.459   1.828  0.0736  0.7346  0.3108
 6396SOL    HW127966   8.205   4.427   1.773 -1.4621 -2.1932 -0.1473
 6396SOL    HW227967   8.170   4.459   1.917 -0.0964 -3.8839  0.5990
 6397SOL     OW27968   3.144   0.559   8.325  0.1556 -0.2243  0.1010
 6397SOL    HW127969   3.147   0.498   8.398 -1.7194  1.1048  1.3661
 6397SOL    HW227970   3.229   0.603   8.327  0.0729 -0.0828  1.5968
 6398SOL     OW27971   4.209   1.771  10.019  0.3013  0.1087  0.1679
 6398SOL    HW127972   4.174   1.797  10.104 -1.9218  0.2429 -0.7368
 6398SOL    HW227973   4.232   1.679  10.030 -0.0259  0.1082  0.9019
 6399SOL     OW27974   6.762   3.863  12.167  0.0336 -0.1788  0.0501
 6399SOL    HW127975   6.756   3.953  12.137  0.3258 -0.1252  0.1451
 6399SOL    HW227976   6.681   3.821  12.136  0.0395  0.0357 -0.2594
 6400SOL     OW27977   1.273   6.419   5.792 -0.2958 -0.1345 -0.5278
 6400SOL    HW127978   1.248   6.468   5.870 -0.9738 -1.0213 -0.1633
 6400SOL    HW227979   1.191   6.379   5.762  0.0627 -0.2412 -1.3702
 6401SOL     OW27980   1.740   3.628   0.616  0.3817  0.2826 -0.4442
 6401SOL    HW127981   1.669   3.565   0.628 -0.0395  0.8535  0.1308
 6401SOL    HW227982   1.696   3.709   0.591  0.9022  0.4133 -0.9583
 6402SOL     OW27983   1.759   4.952   6.248 -0.8360 -0.1610 -0.5875
 6402SOL    HW127984   1.702   4.913   6.181 -0.4775 -0.4164 -0.7508
 6402SOL    HW227985   1.711   4.942   6.330 -1.7770  1.1446 -0.9402
 6403SOL     OW27986   5.677   4.290  11.463 -0.3272 -0.4481 -0.0253
 6403SOL    HW127987   5.636   4.204  11.456  0.8315 -1.2175  1.9004
 6403SOL    HW227988   5.718   4.291  11.550  0.6017  1.6463 -0.4069
 6404SOL     OW27989   0.515  11.237   6.096 -0.1500 -1.1243 -0.2492
 6404SOL    HW127990   0.533  11.331   6.100 -2.0771 -0.7440  3.1494
 6404SOL    HW227991   0.601  11.196   6.086  1.0043  0.9277  0.7186
 6405SOL     OW27992   4.929   6.119   1.625 -0.3316  0.2515 -0.2488
 6405SOL    HW127993   4.913   6.121   1.719  0.5198 -1.4483 -0.0114
 6405SOL    HW227994   5.025   6.125   1.617 -0.2097 -1.7018 -0.8347
 6406SOL     OW27995   8.254   2.326   1.333  0.2134 -0.9969 -0.8580
 6406SOL    HW127996   8.304   2.285   1.262  2.2633 -0.6669  0.3153
 6406SOL    HW227997   8.283   2.417   1.332 -1.1954 -0.5388 -0.8027
 6407SOL     OW27998   0.412   3.408   5.790  0.5738 -0.7736  0.0221
 6407SOL    HW127999   0.422   3.322   5.832 -0.9037 -1.1941 -0.4169
 6407SOL    HW228000   0.317   3.422   5.786  0.5346 -1.0474 -3.6978
 6408SOL     OW28001   6.438   5.989   1.714 -0.0648  0.0380 -0.2823
 6408SOL    HW128002   6.425   5.983   1.620 -0.7168  1.2609 -0.2953
 6408SOL    HW228003   6.354   6.021   1.748  0.1410 -0.4454  0.7221
 6409SOL     OW28004   2.577   4.886   6.128  0.1791 -0.2655  0.1166
 6409SOL    HW128005   2.632   4.808   6.134  0.8867  0.2962  1.1839
 6409SOL    HW228006   2.542   4.898   6.216 -3.4922 -1.8463 -0.9189
 6410SOL     OW28007   5.912   6.221   3.568  0.1169  0.8831  0.4046
 6410SOL    HW128008   5.950   6.301   3.605  3.4072 -1.2691  2.1607
 6410SOL    HW228009   5.866   6.181   3.642  0.3236  0.1235  0.1249
 6411SOL     OW28010   6.759   6.357   5.086 -0.1215 -0.3651 -0.0824
 6411SOL    HW128011   6.712   6.425   5.038  1.2522  0.1751 -0.6996
 6411SOL    HW228012   6.769   6.286   5.023  2.2254  0.5816 -0.9008
 6412SOL     OW28013   8.539   0.785  10.727 -0.3414  0.0685 -0.6577
 6412SOL    HW128014   8.513   0.704  10.770 -2.2876  1.0881  0.2050
 6412SOL    HW228015   8.633   0.792  10.744 -0.3846 -1.3584  0.3210
 6413SOL     OW28016   7.481   9.989   0.665  0.2629  0.1707 -0.2063
 6413SOL    HW128017   7.389  10.012   0.655  0.7082  1.6632 -1.3105
 6413SOL    HW228018   7.524  10.072   0.687  1.4944 -0.2320 -0.9899
 6414SOL     OW28019   3.376  10.014   6.240 -0.1060 -0.2845  0.3998
 6414SOL    HW128020   3.463  10.028   6.204 -0.2747 -0.2678 -0.0075
 6414SOL    HW228021   3.375   9.922   6.266  0.6473  0.1521  2.1107
 6415SOL     OW28022   8.020   0.488  10.173  0.6839  0.2044 -0.0142
 6415SOL    HW128023   7.991   0.556  10.234  2.7477  1.6649 -0.5585
 6415SOL    HW228024   8.088   0.441  10.222  1.5789  0.6885 -0.7585
 6416SOL     OW28025   1.784  11.219  12.487 -0.1447 -0.5563  0.5292
 6416SOL    HW128026   1.872  11.210  12.522 -0.2849 -0.2162  0.9821
 6416SOL    HW228027   1.784  11.168  12.406  1.6596  2.5786 -1.6702
 6417SOL     OW28028   4.323  11.131   4.732 -0.0214  0.2378  0.3391
 6417SOL    HW128029   4.304  11.041   4.757 -0.4896 -0.1303 -1.2121
 6417SOL    HW228030   4.384  11.163   4.798  2.1923 -2.0486 -0.4413
 6418SOL     OW28031   9.128   4.646   6.561 -0.2639  0.0409 -0.0943
 6418SOL    HW128032   9.209   4.666   6.514  0.5400 -1.8227  0.4223
 6418SOL    HW228033   9.064   4.631   6.492  0.2315 -0.0578 -0.5445
 6419SOL     OW28034   2.454   4.103   9.903 -0.3608 -0.4714 -0.7727
 6419SOL    HW128035   2.389   4.135   9.840 -1.3288 -1.9063 -0.5456
 6419SOL    HW228036   2.530   4.083   9.849  0.3702  2.2471 -0.9138
 6420SOL     OW28037  11.171   8.046   0.467  0.4781 -0.0436 -0.3194
 6420SOL    HW128038  11.143   8.137   0.464  2.0963  0.4471 -1.7952
 6420SOL    HW228039  11.257   8.045   0.424  0.7128 -2.1838  0.0755
 6421SOL     OW28040   5.270   8.683  10.323 -0.3052  0.6204  0.5153
 6421SOL    HW128041   5.338   8.731  10.371  2.0371 -1.9596  0.0315
 6421SOL    HW228042   5.236   8.620  10.386 -1.3908  1.0660  0.3892
 6422SOL     OW28043   3.340   5.015   2.564 -0.1161 -0.1166  0.1473
 6422SOL    HW128044   3.285   4.939   2.543 -0.9194 -0.2894  2.5760
 6422SOL    HW228045   3.278   5.087   2.575  0.5214  0.5861 -0.7763
 6423SOL     OW28046   3.959   7.281   2.428  0.4076  0.4898  0.2776
 6423SOL    HW128047   3.915   7.218   2.372  0.2135 -1.1638  2.1922
 6423SOL    HW228048   4.024   7.230   2.476  0.4655  1.7938  1.6768
 6424SOL     OW28049   2.642   1.623   6.887  0.0694 -0.2671 -0.4006
 6424SOL    HW128050   2.566   1.675   6.913 -0.8345 -0.8407 -1.7708
 6424SOL    HW228051   2.617   1.532   6.904  0.9469 -0.3952  0.2965
 6425SOL     OW28052  11.348  12.512   7.786 -0.3481 -0.1838 -0.3161
 6425SOL    HW128053  11.256  12.526   7.765  0.1181  3.0061 -0.6966
 6425SOL    HW228054  11.348  12.481   7.876 -1.7716 -0.3613 -0.3509
 6426SOL     OW28055   8.631   4.890  11.478 -0.1998  0.1772  0.0502
 6426SOL    HW128056   8.606   4.889  11.570 -0.1794  0.1337  0.0554
 6426SOL    HW228057   8.548   4.899  11.431 -0.1054  1.5130  0.1177
 6427SOL     OW28058   5.620   6.832   1.526  0.1498 -0.6441 -0.5888
 6427SOL    HW128059   5.548   6.881   1.566  1.9216  0.9381  0.8576
 6427SOL    HW228060   5.601   6.740   1.546 -0.7990 -0.1533  0.9184
 6428SOL     OW28061  11.452  10.881   4.651  0.2453  0.0979  0.4688
 6428SOL    HW128062  11.542  10.859   4.627 -0.0182 -0.9669  0.3844
 6428SOL    HW228063  11.399  10.811   4.612 -0.5528  0.3175  1.1166
 6429SOL     OW28064   0.305  10.548   7.321 -0.4514  0.1693  0.1366
 6429SOL    HW128065   0.270  10.609   7.386 -0.0581 -0.0454  0.5580
 6429SOL    HW228066   0.325  10.469   7.372 -2.0068 -0.7284 -0.5799
 6430SOL     OW28067  11.175   1.349   3.663  0.1568  0.7515 -0.2495
 6430SOL    HW128068  11.210   1.311   3.583 -1.0267 -2.5292  0.6105
 6430SOL    HW228069  11.080   1.340   3.655 -0.0072  0.8360  1.2768
 6431SOL     OW28070   6.024   9.142   2.579 -0.1026 -0.1398 -0.3745
 6431SOL    HW128071   5.949   9.131   2.638 -0.0963 -1.4060 -0.5729
 6431SOL    HW228072   6.100   9.118   2.632 -0.0257 -0.6131 -0.6983
 6432SOL     OW28073   0.242  10.755   6.943 -0.2434 -0.2219 -0.2609
 6432SOL    HW128074   0.188  10.784   7.017  0.2996  0.0356  0.0424
 6432SOL    HW228075   0.260  10.663   6.961 -0.9962 -0.4478 -0.6241
 6433SOL     OW28076  11.477   5.802   2.148  0.2533 -0.0296 -0.0689
 6433SOL    HW128077  11.407   5.801   2.083  0.7207  1.7539 -0.6624
 6433SOL    HW228078  11.434   5.822   2.231  0.0689  1.3229 -0.4759
 6434SOL     OW28079   7.584   1.338  10.793  1.0289 -0.5192 -0.8082
 6434SOL    HW128080   7.519   1.268  10.797 -0.5103  0.8596 -0.8426
 6434SOL    HW228081   7.581   1.368  10.702  0.2770  0.8262 -0.3653
 6435SOL     OW28082  12.115   8.955   3.837  0.0775  0.3186 -0.4508
 6435SOL    HW128083  12.028   8.969   3.800  0.4071  1.9116 -0.6959
 6435SOL    HW228084  12.138   8.866   3.810 -2.3600 -1.0362  1.5281
 6436SOL     OW28085   7.182   8.816  10.509  0.1758  0.7064 -0.4446
 6436SOL    HW128086   7.200   8.910  10.500  1.3418  0.6460  0.9458
 6436SOL    HW228087   7.254   8.774  10.461  1.9989  0.5127  2.2669
 6437SOL     OW28088  10.510   6.224   6.406  0.1253 -0.4582  0.0795
 6437SOL    HW128089  10.596   6.202   6.369 -0.7776 -0.4217 -2.1954
 6437SOL    HW228090  10.485   6.305   6.361 -1.0227 -0.3571  0.8597
 6438SOL     OW28091  10.553   0.825   7.277 -0.3914  0.6348 -0.2162
 6438SOL    HW128092  10.496   0.894   7.242  0.2200  1.3666  0.1904
 6438SOL    HW228093  10.603   0.868   7.347 -1.7275 -0.8129  1.7626
 6439SOL     OW28094   8.187   7.226  12.500  0.0339  0.1470  0.5336
 6439SOL    HW128095   8.093   7.218  12.486  0.1022 -0.6830  0.5108
 6439SOL    HW228096   8.210   7.150  12.554  1.0100 -0.7701 -1.1122
 6440SOL     OW28097   2.945   2.169   0.654  0.0985  0.3688  0.2370
 6440SOL    HW128098   2.859   2.132   0.632  0.5243 -0.1789 -0.5837
 6440SOL    HW228099   2.952   2.159   0.749 -0.5773  0.0545  0.2623
 6441SOL     OW28100   1.014   9.973  10.401  0.0610  0.0529  0.1843
 6441SOL    HW128101   1.036   9.998  10.311  0.8585  0.5867  0.5165
 6441SOL    HW228102   1.073   9.900  10.421 -1.5074 -1.4504 -0.4028
 6442SOL     OW28103   2.567   6.609   3.347  0.5470  0.1229  0.2550
 6442SOL    HW128104   2.523   6.573   3.270  2.1071 -1.0583 -0.1123
 6442SOL    HW228105   2.655   6.630   3.318  0.7318  1.0528  1.3686
 6443SOL     OW28106   4.347   4.625   7.103 -0.4265  0.5126 -0.0575
 6443SOL    HW128107   4.373   4.711   7.135  0.6928  0.5529 -1.0119
 6443SOL    HW228108   4.413   4.565   7.137  0.2195  0.4130 -1.4239
 6444SOL     OW28109   9.975   4.228   9.555 -0.2976  0.2921  0.4725
 6444SOL    HW128110  10.045   4.170   9.526  0.6113  0.8168  1.5369
 6444SOL    HW228111   9.964   4.291   9.483  0.6190  0.4577  0.4684
 6445SOL     OW28112  10.594   1.223   0.103  0.2222 -0.4249 -0.8284
 6445SOL    HW128113  10.649   1.169   0.047 -1.5309 -1.1642 -1.9357
 6445SOL    HW228114  10.595   1.310   0.062  0.0452 -0.6138 -1.2399
 6446SOL     OW28115   1.379   8.914   8.294  0.2028 -0.5739 -0.9530
 6446SOL    HW128116   1.307   8.852   8.287 -0.6230  0.4113 -1.3298
 6446SOL    HW228117   1.397   8.920   8.388 -1.1988  0.2696 -0.7163
 6447SOL     OW28118  11.904   3.034   7.077 -0.2561  0.1606  0.4495
 6447SOL    HW128119  11.858   2.978   7.139  0.4841 -0.2589  0.6281
 6447SOL    HW228120  11.918   3.116   7.124 -1.0593  0.3983  0.2951
 6448SOL     OW28121  10.475   4.386   6.408  0.1166 -0.3506 -0.1183
 6448SOL    HW128122  10.426   4.339   6.476 -0.9008 -1.0871 -1.3262
 6448SOL    HW228123  10.418   4.460   6.385 -0.7116 -1.4620 -1.8468
 6449SOL     OW28124   0.890   9.022   8.966 -0.3236 -0.3498  0.0085
 6449SOL    HW128125   0.943   9.079   9.022 -0.2790  0.2429 -0.6251
 6449SOL    HW228126   0.844   8.965   9.027  0.5037 -0.4049  0.6021
 6450SOL     OW28127   3.775  11.678  10.681  0.2027  0.5032 -0.3163
 6450SOL    HW128128   3.778  11.624  10.602 -0.1773  0.0701 -0.0414
 6450SOL    HW228129   3.774  11.615  10.753 -0.5657  0.8560 -0.0014
 6451SOL     OW28130   2.421   0.183   0.087  0.3796 -0.1300 -0.0424
 6451SOL    HW128131   2.501   0.141   0.055  0.0065  0.4124 -1.7869
 6451SOL    HW228132   2.407   0.256   0.027  0.8194  2.3815  2.6424
 6452SOL     OW28133   0.374   3.725  10.223  0.1809 -0.2302 -0.0759
 6452SOL    HW128134   0.420   3.758  10.145  0.5743 -1.1084 -0.2293
 6452SOL    HW228135   0.429   3.653  10.253 -0.6085 -0.6713  0.3139
 6453SOL     OW28136   8.706   6.049   7.820 -0.3544 -0.0903 -0.2815
 6453SOL    HW128137   8.668   6.014   7.739 -1.0552 -1.2880  0.5313
 6453SOL    HW228138   8.657   6.130   7.836 -0.1604  0.1930 -1.0819
 6454SOL     OW28139  12.157   0.278   2.130 -0.0466 -0.3695  0.2580
 6454SOL    HW128140  12.131   0.280   2.223 -2.0789  1.5515 -0.2801
 6454SOL    HW228141  12.104   0.208   2.092 -3.0252  2.0595 -0.3681
 6455SOL     OW28142   4.390   0.725  10.846  0.4952  0.3076 -0.0210
 6455SOL    HW128143   4.330   0.754  10.915 -0.1408 -1.0491  0.0312
 6455SOL    HW228144   4.470   0.774  10.862  0.5902 -0.4008  2.0846
 6456SOL     OW28145  11.368   5.978   3.329 -0.2324  0.0227 -0.2028
 6456SOL    HW128146  11.388   6.016   3.243  2.3812  0.4563  0.4987
 6456SOL    HW228147  11.430   5.906   3.338 -0.3289  0.1152  1.4046
 6457SOL     OW28148   1.587   8.555   8.361  0.3338 -0.4594  0.4600
 6457SOL    HW128149   1.535   8.544   8.281  1.5316 -2.8932 -0.0889
 6457SOL    HW228150   1.523   8.563   8.431 -0.7802 -1.1702 -0.4471
 6458SOL     OW28151   1.991   4.936   9.901  0.5750 -0.0057  0.1011
 6458SOL    HW128152   2.070   4.989   9.890  0.7548 -0.4569 -0.8937
 6458SOL    HW228153   1.955   4.927   9.813 -0.6736  0.3073  0.5545
 6459SOL     OW28154  10.689   3.055   3.192 -0.3120 -0.1263 -0.4280
 6459SOL    HW128155  10.600   3.085   3.175 -0.0006  0.8708 -0.3833
 6459SOL    HW228156  10.745   3.116   3.144  0.3532 -0.6669 -0.3585
 6460SOL     OW28157   3.766   2.686   3.052 -0.0726 -0.4441 -0.5758
 6460SOL    HW128158   3.671   2.684   3.039 -0.3224  0.0083  0.9768
 6460SOL    HW228159   3.789   2.779   3.048  0.3311 -0.5588 -1.0509
 6461SOL     OW28160   4.328   5.694   0.322 -0.0775  0.2637  0.4608
 6461SOL    HW128161   4.406   5.732   0.280 -0.0910  0.1339  0.3183
 6461SOL    HW228162   4.288   5.640   0.254  0.8666 -1.3802  1.1496
 6462SOL     OW28163  10.884  12.197   3.925 -0.6011 -0.3364  0.5643
 6462SOL    HW128164  10.848  12.118   3.884  0.5729 -0.5504 -0.1084
 6462SOL    HW228165  10.853  12.269   3.870 -0.2731 -0.4908  0.1696
 6463SOL     OW28166   4.465   1.362   5.001 -0.6492 -0.3767 -0.0716
 6463SOL    HW128167   4.509   1.445   5.020 -0.1120 -1.0516  1.9330
 6463SOL    HW228168   4.452   1.363   4.906 -0.2282  1.7664 -0.1629
 6464SOL     OW28169   9.308   3.695   8.572 -0.4943  0.0023  0.5597
 6464SOL    HW128170   9.234   3.704   8.513 -0.1828  0.1652  0.1931
 6464SOL    HW228171   9.368   3.636   8.528 -0.7897 -0.8307  1.2435
 6465SOL     OW28172   3.862   3.543   0.292  0.1560  0.1883  0.0923
 6465SOL    HW128173   3.910   3.560   0.373  1.9810 -0.0894 -0.8705
 6465SOL    HW228174   3.825   3.628   0.268  0.3026  0.4541  0.7817
 6466SOL     OW28175   1.162   5.880   7.171  0.0912  0.0847  0.0525
 6466SOL    HW128176   1.116   5.963   7.180 -0.1249 -0.1516  1.2496
 6466SOL    HW228177   1.113   5.832   7.104 -0.2234  0.6131 -0.0986
 6467SOL     OW28178  11.623   4.230   3.853 -0.3283 -0.1526  0.2010
 6467SOL    HW128179  11.538   4.222   3.808 -1.1520 -0.0926  1.6808
 6467SOL    HW228180  11.656   4.140   3.858  0.1237 -0.0862 -1.1117
 6468SOL     OW28181   5.088   4.131   4.740 -0.4478 -0.2291 -0.4955
 6468SOL    HW128182   5.059   4.200   4.680 -0.3144  1.1142  0.9131
 6468SOL    HW228183   5.080   4.170   4.827  0.5843 -1.6605  0.2883
 6469SOL     OW28184   6.547  10.083  12.042  0.3494 -0.1800  0.1717
 6469SOL    HW128185   6.523  10.071  12.134  1.7132 -0.3506  0.5261
 6469SOL    HW228186   6.548   9.995  12.006  0.7385 -0.2026  0.2368
 6470SOL     OW28187   6.333  12.406   3.836 -0.1143 -0.1225  0.2080
 6470SOL    HW128188   6.276  12.482   3.823 -0.2655 -0.0648  1.1200
 6470SOL    HW228189   6.406  12.421   3.777 -1.5779 -0.7925 -1.9006
 6471SOL     OW28190   9.420  10.592   4.053  0.5277 -0.1406 -0.2929
 6471SOL    HW128191   9.363  10.668   4.059  0.6977 -0.0727  0.6124
 6471SOL    HW228192   9.401  10.541   4.132  1.1199 -0.5392 -0.3976
 6472SOL     OW28193   2.987   5.313   0.380  0.8493 -0.1036 -0.1101
 6472SOL    HW128194   3.077   5.327   0.351  1.0009 -0.6333  0.0876
 6472SOL    HW228195   2.980   5.218   0.390  0.6118  0.0214  0.9733
 6473SOL     OW28196  10.526   0.134   8.758 -0.7050 -0.2696 -0.1839
 6473SOL    HW128197  10.599   0.123   8.698 -1.2051 -0.5050 -0.7606
 6473SOL    HW228198  10.454   0.167   8.704 -1.0731 -0.1879  0.3411
 6474SOL     OW28199   6.700   6.721   1.882 -0.4377  0.2080  0.3152
 6474SOL    HW128200   6.656   6.636   1.874  0.5343 -0.3309  0.5961
 6474SOL    HW228201   6.768   6.707   1.947  0.4478  0.9044 -0.4378
 6475SOL     OW28202   2.550   3.312  11.388  1.1457  0.4547 -0.3725
 6475SOL    HW128203   2.548   3.308  11.293 -2.8329 -0.7626 -0.4069
 6475SOL    HW228204   2.603   3.236  11.414 -0.4070 -1.1712 -1.6908
 6476SOL     OW28205  10.781   2.202   1.639 -0.2749  0.7118 -0.2775
 6476SOL    HW128206  10.851   2.144   1.610 -0.7506 -0.7147  1.2754
 6476SOL    HW228207  10.701   2.160   1.609 -0.6187  0.5934  0.7459
 6477SOL     OW28208   3.041   5.754   3.166  0.6769  0.7940  0.2896
 6477SOL    HW128209   3.023   5.679   3.221  0.2003  0.5720 -0.1598
 6477SOL    HW228210   3.131   5.741   3.135  0.6585  0.5069  0.3593
 6478SOL     OW28211   5.549  11.619   8.108  0.2920  0.0483 -0.1015
 6478SOL    HW128212   5.589  11.706   8.109 -0.8731  0.6093 -0.4620
 6478SOL    HW228213   5.619  11.560   8.078  0.7755  1.0186 -0.9227
 6479SOL     OW28214   0.280   1.822   4.113 -0.5263  0.0413  0.3886
 6479SOL    HW128215   0.320   1.834   4.199 -1.9370  0.7997  0.9695
 6479SOL    HW228216   0.229   1.902   4.099 -1.2476 -0.5800 -0.6309
 6480SOL     OW28217   4.671   1.358   9.263 -0.2289  0.6405  0.0825
 6480SOL    HW128218   4.674   1.268   9.297 -0.5414  0.7525  0.4140
 6480SOL    HW228219   4.754   1.397   9.291 -0.9659  1.0901  1.7566
 6481SOL     OW28220   0.384   7.996   1.091 -0.2718 -0.5759 -0.2707
 6481SOL    HW128221   0.301   8.041   1.080  0.1013  0.8388  2.0512
 6481SOL    HW228222   0.450   8.061   1.067  0.2081 -1.1283 -0.4653
 6482SOL     OW28223   2.581   0.134  10.708 -0.2086  0.7418 -0.0688
 6482SOL    HW128224   2.633   0.055  10.698 -2.3233 -0.7040 -0.3487
 6482SOL    HW228225   2.543   0.149  10.621 -0.5574  1.5321  0.2037
 6483SOL     OW28226   5.625   7.374  10.555 -0.5899  0.3380 -0.3462
 6483SOL    HW128227   5.601   7.282  10.569  0.2440 -0.0560 -1.3349
 6483SOL    HW228228   5.619   7.414  10.641  2.0903 -1.3951  0.7811
 6484SOL     OW28229   4.863   9.493   1.951  0.5103 -0.0996 -0.1234
 6484SOL    HW128230   4.845   9.452   1.867  2.0950 -0.5936 -0.2695
 6484SOL    HW228231   4.798   9.563   1.960 -0.5395 -0.9269 -1.1099
 6485SOL     OW28232   5.406   6.877   9.643  0.6505  0.6289  0.1120
 6485SOL    HW128233   5.440   6.899   9.557 -0.1679  1.5461  0.0084
 6485SOL    HW228234   5.323   6.923   9.649  0.4356  0.1457  1.1869
 6486SOL     OW28235   3.433   5.989  10.715  0.2201 -0.2883 -0.1727
 6486SOL    HW128236   3.370   6.013  10.783  0.2161  3.5813 -1.3098
 6486SOL    HW228237   3.379   5.957  10.643 -0.0828 -0.6470  0.2035
 6487SOL     OW28238  10.757  12.562  10.336 -0.0386  0.3014  0.5897
 6487SOL    HW128239  10.836  12.509  10.336  0.6907  1.2667  2.7378
 6487SOL    HW228240  10.780  12.639  10.389 -2.3660  0.6468  1.2017
 6488SOL     OW28241  10.909  11.927   5.236  0.2732 -0.0622 -0.7025
 6488SOL    HW128242  10.908  12.022   5.250  0.6875 -0.0423 -0.7948
 6488SOL    HW228243  10.841  11.912   5.170 -0.6484  0.0204  0.2143
 6489SOL     OW28244   1.455  12.478   3.601  0.4113 -0.4450  0.3694
 6489SOL    HW128245   1.457  12.442   3.513 -2.1510  1.6113 -0.6717
 6489SOL    HW228246   1.507  12.558   3.595  0.6201 -0.5406  0.8670
 6490SOL     OW28247   8.779  11.415  12.450  0.3016 -0.0396  0.1259
 6490SOL    HW128248   8.872  11.396  12.464  0.8329  2.3545  0.2950
 6490SOL    HW228249   8.777  11.458  12.364 -0.6716 -0.0797  0.1210
 6491SOL     OW28250   6.561   3.164   6.960  0.2291  0.0984 -0.1613
 6491SOL    HW128251   6.643   3.194   6.922  0.6038 -1.5079 -0.6937
 6491SOL    HW228252   6.505   3.242   6.962  2.1685  1.5568  1.4303
 6492SOL     OW28253   2.676  10.929   4.753  0.1540 -0.0587  0.0504
 6492SOL    HW128254   2.674  10.849   4.806  0.5487 -0.0832  0.0323
 6492SOL    HW228255   2.623  10.908   4.676 -0.9622  0.1891  0.7308
 6493SOL     OW28256   4.771   8.130   1.371 -0.2478  0.5899 -0.2623
 6493SOL    HW128257   4.731   8.119   1.457 -1.2670 -0.1071 -0.8107
 6493SOL    HW228258   4.790   8.041   1.342  1.4237  0.8755 -0.1757
 6494SOL     OW28259   0.910  10.882  12.585  0.0586 -0.3196  0.2687
 6494SOL    HW128260   0.956  10.964  12.567 -0.4082 -0.2946 -0.9196
 6494SOL    HW228261   0.831  10.886  12.532 -0.3381 -1.2254  0.7621
 6495SOL     OW28262   4.446   8.578   6.906 -0.1719 -0.0463 -0.4457
 6495SOL    HW128263   4.533   8.541   6.914  0.5055  1.1861 -1.5497
 6495SOL    HW228264   4.458   8.671   6.925 -1.3314  0.0674 -0.1854
 6496SOL     OW28265   7.113   3.337  10.133 -0.0560  0.2626  0.2638
 6496SOL    HW128266   7.101   3.425  10.169  0.6520 -0.3132  2.0074
 6496SOL    HW228267   7.078   3.278  10.201 -0.2591 -0.8255 -0.7480
 6497SOL     OW28268  11.106   3.697  11.206 -0.2369  0.6317 -0.0102
 6497SOL    HW128269  11.139   3.776  11.163  1.6106  0.7188  1.4628
 6497SOL    HW228270  11.175   3.672  11.267 -1.2585 -1.5148  0.3548
 6498SOL     OW28271  10.217   3.788   8.069  0.1739  0.0485 -0.3604
 6498SOL    HW128272  10.301   3.777   8.114 -0.0256 -0.1369 -0.0261
 6498SOL    HW228273  10.162   3.718   8.105 -0.6086  1.1027  0.5573
 6499SOL     OW28274   3.875  10.128   6.330  0.2614  0.1428 -0.8446
 6499SOL    HW128275   3.788  10.104   6.360  0.3096  0.5310 -0.3889
 6499SOL    HW228276   3.862  10.206   6.277 -0.0870 -1.6176 -3.5421
 6500SOL     OW28277  10.994  10.866   6.976  0.1192 -0.7044 -0.0664
 6500SOL    HW128278  10.925  10.861   7.042  2.2636 -2.2753  2.2111
 6500SOL    HW228279  10.993  10.780   6.934  1.3527 -1.1578  0.7729
 6501SOL     OW28280   0.953   0.284  10.068  0.2224  0.4371 -0.0850
 6501SOL    HW128281   1.020   0.220  10.091 -0.2138  0.6346  1.9664
 6501SOL    HW228282   0.969   0.304   9.976  2.5536 -0.0352  0.1505
 6502SOL     OW28283   5.419   4.722   7.248 -0.3219 -0.6034  1.4191
 6502SOL    HW128284   5.459   4.664   7.312  0.9052 -0.0767  1.1573
 6502SOL    HW228285   5.452   4.809   7.270 -0.6913 -0.2678  0.6942
 6503SOL     OW28286  12.335   0.888   2.430 -0.3401  0.7130 -0.0959
 6503SOL    HW128287  12.274   0.941   2.379 -0.9635  0.1235  0.0143
 6503SOL    HW228288  12.315   0.910   2.521  0.4163  1.3795 -0.0805
 6504SOL     OW28289   6.800   4.920   9.686  0.3471 -0.3845 -0.0353
 6504SOL    HW128290   6.821   4.832   9.716 -0.8009 -0.9914 -0.9134
 6504SOL    HW228291   6.818   4.918   9.592  0.9282  0.5253  0.0433
 6505SOL     OW28292   5.181   3.333   5.375  0.7028 -0.1208 -0.0018
 6505SOL    HW128293   5.167   3.408   5.432 -0.5333  0.3944 -0.9425
 6505SOL    HW228294   5.128   3.263   5.413 -0.3010  0.2874 -0.6146
 6506SOL     OW28295   3.497   9.852  10.643  0.0954  0.1359  0.0477
 6506SOL    HW128296   3.487   9.862  10.737 -0.8831 -1.2914  0.1226
 6506SOL    HW228297   3.560   9.920  10.618  1.0773 -0.0533  1.8609
 6507SOL     OW28298   8.334   7.036   3.331 -0.3852 -0.4384  0.2588
 6507SOL    HW128299   8.310   7.128   3.341 -0.3546 -0.4048  0.0328
 6507SOL    HW228300   8.262   6.998   3.281  0.8237  0.0536 -2.0143
 6508SOL     OW28301   1.475   8.125  10.992 -0.4905 -0.2205 -0.2616
 6508SOL    HW128302   1.559   8.154  10.957 -0.1268 -1.5086 -0.4874
 6508SOL    HW228303   1.497   8.077  11.072 -1.0273 -0.3685 -0.1965
 6509SOL     OW28304   3.663   2.509   1.563 -0.4340  0.4894  0.0905
 6509SOL    HW128305   3.584   2.563   1.575 -0.8248 -0.5289  2.9565
 6509SOL    HW228306   3.735   2.572   1.568 -0.9811  1.0977  0.6943
 6510SOL     OW28307  10.502   8.912   1.868  0.8728  0.1622 -0.0501
 6510SOL    HW128308  10.562   8.986   1.872  1.4757 -0.2722 -0.8625
 6510SOL    HW228309  10.421   8.949   1.832  0.2540  0.9663  1.9843
 6511SOL     OW28310   7.138   2.815  11.045 -0.4112  1.0527  0.0823
 6511SOL    HW128311   7.189   2.775  10.974 -2.0630 -0.3931 -0.3528
 6511SOL    HW228312   7.087   2.883  11.002 -2.3833 -0.6677 -0.4529
 6512SOL     OW28313  12.531   0.928   6.904 -0.1487  0.2549 -0.2106
 6512SOL    HW128314  12.560   0.907   6.815  1.7494  1.9109 -0.0738
 6512SOL    HW228315  12.596   0.886   6.960 -0.3870  0.5680  0.3048
 6513SOL     OW28316   9.070   6.914   2.628  0.2849 -0.2452 -0.5142
 6513SOL    HW128317   9.089   6.983   2.564 -1.1277  0.2646 -0.4144
 6513SOL    HW228318   8.979   6.890   2.611 -0.3838  0.4145  1.7460
 6514SOL     OW28319   1.247   7.106   4.352  0.5111 -0.5436 -0.0692
 6514SOL    HW128320   1.256   7.153   4.435 -1.0580 -0.2299 -0.0536
 6514SOL    HW228321   1.328   7.126   4.305  0.3770  1.2783  0.4059
 6515SOL     OW28322   0.844   2.095  10.897  0.6795  0.0689  0.5967
 6515SOL    HW128323   0.856   2.007  10.931  1.0639  0.6183  1.9196
 6515SOL    HW228324   0.749   2.104  10.887  0.7076 -0.9487 -0.8533
 6516SOL     OW28325   6.978  12.557  10.933  0.4499 -0.4389  0.4379
 6516SOL    HW128326   7.051  12.581  10.876  0.2306  0.2551  0.4409
 6516SOL    HW228327   6.959  12.636  10.982  0.6243 -1.0316  1.4765
 6517SOL     OW28328   2.760   9.486   4.358  0.3916 -0.5562  0.0388
 6517SOL    HW128329   2.787   9.557   4.417 -0.9578  0.4934 -0.5494
 6517SOL    HW228330   2.669   9.469   4.382  1.2426 -3.6210  1.6025
 6518SOL     OW28331   7.256   1.812   8.308  0.0513 -0.3466  0.5878
 6518SOL    HW128332   7.343   1.787   8.277 -0.1276 -0.2891  0.0264
 6518SOL    HW228333   7.249   1.771   8.394  0.7029 -0.1995  0.7151
 6519SOL     OW28334   3.355   6.220   4.173 -0.0468  0.3367  0.2657
 6519SOL    HW128335   3.340   6.250   4.083 -1.2535 -0.4712  0.1798
 6519SOL    HW228336   3.280   6.254   4.222 -0.8469 -1.5268  0.3987
 6520SOL     OW28337  12.175   5.488  11.592  0.8942  0.6427 -0.5261
 6520SOL    HW128338  12.254   5.456  11.635  0.7795  0.8340 -0.1686
 6520SOL    HW228339  12.193   5.580  11.573  1.0279  0.5000 -1.0831
 6521SOL     OW28340   3.598   7.950   0.072  0.1266  0.1787 -0.1146
 6521SOL    HW128341   3.541   8.013   0.117  0.2633  0.9714 -1.0257
 6521SOL    HW228342   3.579   7.866   0.114 -2.2323  0.2776 -0.8484
 6522SOL     OW28343   2.681   9.481   0.122  0.0963  0.0224  0.2620
 6522SOL    HW128344   2.730   9.562   0.105  0.8389 -0.6137 -0.7103
 6522SOL    HW228345   2.629   9.501   0.200  0.5513  1.3112  0.2650
 6523SOL     OW28346   9.824  11.313   1.266  0.6406 -0.3247 -0.4187
 6523SOL    HW128347   9.898  11.265   1.304  1.8548 -0.9054 -3.2921
 6523SOL    HW228348   9.747  11.276   1.310  1.9168 -0.5289  1.8266
 6524SOL     OW28349   1.975   6.038   3.276  0.2428 -0.3477 -0.1146
 6524SOL    HW128350   1.909   5.978   3.244 -0.2311  0.1311 -0.0524
 6524SOL    HW228351   2.046   6.032   3.213  0.4128 -1.3312  0.1524
 6525SOL     OW28352   8.862   7.661   3.379  0.1668 -0.0879 -0.4113
 6525SOL    HW128353   8.845   7.715   3.456  1.5667  1.5559 -1.1775
 6525SOL    HW228354   8.806   7.584   3.390 -1.5877  1.3078  0.9637
 6526SOL     OW28355  10.196   5.216   4.174  0.3755  0.3133  0.3726
 6526SOL    HW128356  10.257   5.159   4.221 -0.1871 -1.1275 -0.5889
 6526SOL    HW228357  10.247   5.248   4.100  0.2173 -0.2569  0.0107
 6527SOL     OW28358  12.290   0.751   4.904 -0.3316 -0.4027  0.2765
 6527SOL    HW128359  12.246   0.756   4.820 -1.5438  1.0233  0.9459
 6527SOL    HW228360  12.231   0.794   4.965  0.8368 -0.7546  1.7346
 6528SOL     OW28361   1.202   9.571   0.408 -0.4061 -0.3148 -0.1210
 6528SOL    HW128362   1.284   9.570   0.360  0.7805 -0.2982  1.7943
 6528SOL    HW228363   1.154   9.647   0.374  1.4466  1.1550  0.3864
 6529SOL     OW28364   3.585   7.430   8.133  0.2524  0.1424 -0.2761
 6529SOL    HW128365   3.501   7.474   8.149 -0.5287 -1.8199  1.5651
 6529SOL    HW228366   3.627   7.483   8.066 -2.6635  0.9515 -1.6642
 6530SOL     OW28367  11.806   8.575  10.563 -0.2728  0.1829  0.6204
 6530SOL    HW128368  11.764   8.489  10.560 -0.2464  0.1427  1.1547
 6530SOL    HW228369  11.756   8.623  10.629  0.7247  0.0099  1.5499
 6531SOL     OW28370   0.264   9.085   9.602  0.4693  0.3185 -0.5120
 6531SOL    HW128371   0.210   9.135   9.541  0.7128 -1.0519 -1.9210
 6531SOL    HW228372   0.265   8.996   9.566  1.0171 -0.4399  1.2520
 6532SOL     OW28373   4.293   1.367  10.784  1.0579 -0.2315 -0.1504
 6532SOL    HW128374   4.266   1.275  10.790  1.5155 -0.3086  1.1806
 6532SOL    HW228375   4.370   1.366  10.727  0.4228 -0.5133 -1.0164
 6533SOL     OW28376  11.011   1.213   0.602  0.0034  0.6279  0.0900
 6533SOL    HW128377  10.957   1.218   0.680  0.5067 -0.0820  0.4862
 6533SOL    HW228378  11.003   1.122   0.572  1.7292  0.2514  0.7036
 6534SOL     OW28379   1.493   1.399   7.237 -0.2599  0.1039  0.0544
 6534SOL    HW128380   1.490   1.471   7.300  2.0956  0.0732  0.2687
 6534SOL    HW228381   1.485   1.320   7.291  3.7121 -0.0375  0.7531
 6535SOL     OW28382   0.652   1.480   2.317 -0.0059 -0.8827 -0.1163
 6535SOL    HW128383   0.725   1.431   2.354 -0.5169 -1.5199  0.0636
 6535SOL    HW228384   0.574   1.437   2.352 -0.4673  0.4745  0.5685
 6536SOL     OW28385   2.016   2.506   7.909 -0.3081 -0.0787  0.1452
 6536SOL    HW128386   1.929   2.471   7.892 -1.3633  2.1607  0.5065
 6536SOL    HW228387   2.057   2.442   7.967 -1.4659 -1.4635 -0.5091
 6537SOL     OW28388   5.151   4.062   0.238  0.3025  0.0707 -0.0804
 6537SOL    HW128389   5.140   3.967   0.248  0.2230 -0.2644 -2.7397
 6537SOL    HW228390   5.198   4.089   0.317 -1.6078 -1.7778  1.8417
 6538SOL     OW28391   6.196   3.318   1.547 -0.2147 -0.1151 -1.1779
 6538SOL    HW128392   6.245   3.398   1.526 -0.9896  0.4416 -0.9347
 6538SOL    HW228393   6.108   3.350   1.568 -0.2571 -0.9352 -0.0610
 6539SOL     OW28394   0.397  11.828   7.806  0.3325 -0.2463  0.2719
 6539SOL    HW128395   0.398  11.846   7.712  2.2305  1.8566  0.6226
 6539SOL    HW228396   0.463  11.759   7.818  0.9671  0.3330  0.1749
 6540SOL     OW28397   7.562   6.705   4.468  0.0279 -0.9382  0.3192
 6540SOL    HW128398   7.569   6.609   4.461 -1.4459 -1.0051 -0.5283
 6540SOL    HW228399   7.544   6.734   4.379  0.4600  0.1497  0.5712
 6541SOL     OW28400  10.570   5.779  12.306  0.2490 -0.1339 -0.2460
 6541SOL    HW128401  10.582   5.684  12.309  0.9313 -0.0446  1.9442
 6541SOL    HW228402  10.556   5.804  12.397 -1.5290  1.7130 -0.9529
 6542SOL     OW28403  10.769   5.519   4.153  0.5219 -0.1444 -0.3050
 6542SOL    HW128404  10.757   5.527   4.248 -0.9931  0.9568 -0.5659
 6542SOL    HW228405  10.717   5.590   4.116  0.0997 -1.3036 -2.0313
 6543SOL     OW28406   1.417   5.468   0.607  0.1547 -0.0469 -0.3979
 6543SOL    HW128407   1.376   5.490   0.690 -0.2980  0.1364 -0.6638
 6543SOL    HW228408   1.448   5.552   0.572  0.0089 -0.0690 -0.5846
 6544SOL     OW28409   2.706   4.179   2.812 -0.1398  0.0702 -0.1619
 6544SOL    HW128410   2.686   4.157   2.721  0.6257  0.4843 -0.4393
 6544SOL    HW228411   2.661   4.262   2.827 -1.5444 -0.7370  0.3339
 6545SOL     OW28412   6.198  11.617   3.806  0.4597  0.1076 -0.5538
 6545SOL    HW128413   6.269  11.615   3.871  0.9413  1.7524 -0.9716
 6545SOL    HW228414   6.160  11.704   3.815 -0.9373 -0.4346 -0.9754
 6546SOL     OW28415   8.817   8.778   2.996 -0.1314 -0.8850 -0.2647
 6546SOL    HW128416   8.831   8.709   2.931  0.8377  1.8777 -3.2364
 6546SOL    HW228417   8.903   8.818   3.008 -0.3860 -0.9742  2.4680
 6547SOL     OW28418   4.497   3.947   4.634  0.1150 -0.0803 -0.5247
 6547SOL    HW128419   4.421   3.914   4.586  0.8202  0.9611 -2.4410
 6547SOL    HW228420   4.558   3.873   4.636 -0.3503 -0.4699 -0.2229
 6548SOL     OW28421   5.898   9.989  12.072 -0.5816  0.5099  0.1164
 6548SOL    HW128422   5.830  10.038  12.026 -1.6681 -1.6940 -0.7708
 6548SOL    HW228423   5.960   9.965  12.004  0.4958  1.4780  0.7245
 6549SOL     OW28424   5.675   1.750  12.423  0.4291  0.2039 -0.1140
 6549SOL    HW128425   5.672   1.838  12.461  1.1612  0.4644 -0.6385
 6549SOL    HW228426   5.584   1.731  12.400  0.2920  0.9114 -0.1885
 6550SOL     OW28427   6.524  11.789   9.077 -0.1408  0.1614  0.0309
 6550SOL    HW128428   6.522  11.743   8.993  0.2892 -2.0995  1.1674
 6550SOL    HW228429   6.439  11.834   9.082 -1.8873 -2.8557 -0.0148
 6551SOL     OW28430   3.667   1.650  12.229  0.0744  0.1506 -0.1639
 6551SOL    HW128431   3.683   1.722  12.289  2.1384  0.6000 -1.1745
 6551SOL    HW228432   3.618   1.690  12.156  1.4645  0.6388 -0.8600
 6552SOL     OW28433   0.217  12.559   0.012 -1.0099 -0.3787  0.0605
 6552SOL    HW128434   0.167  12.521  -0.060 -1.9286 -0.0513  0.5041
 6552SOL    HW228435   0.150  12.592   0.073 -0.3064  1.9467 -0.3040
 6553SOL     OW28436  11.779   4.295   2.820  0.2485 -0.2912  0.5937
 6553SOL    HW128437  11.714   4.249   2.873  0.6047 -0.3744  0.9731
 6553SOL    HW228438  11.756   4.276   2.730 -0.6525  0.2398  0.7044
 6554SOL     OW28439   3.930  12.352   4.776  0.3056  0.4573 -0.1379
 6554SOL    HW128440   3.836  12.368   4.790  0.4364  0.7288  0.4579
 6554SOL    HW228441   3.940  12.258   4.786 -0.1694  0.1785 -1.8590
 6555SOL     OW28442   7.564   9.057   0.702 -0.4085  0.2841 -0.4902
 6555SOL    HW128443   7.553   9.036   0.609 -0.7455  0.7995 -0.5718
 6555SOL    HW228444   7.481   9.031   0.743 -0.2594  0.0546 -0.3319
 6556SOL     OW28445   0.295   0.298   0.101 -0.4819  0.3195 -0.4448
 6556SOL    HW128446   0.334   0.357   0.165 -1.1638  0.6074 -0.2900
 6556SOL    HW228447   0.366   0.238   0.077 -0.1485  0.3746  0.3818
 6557SOL     OW28448   2.042  11.266   7.047 -0.1187 -0.3858  0.0816
 6557SOL    HW128449   1.953  11.273   7.014  0.3353  4.6987 -0.8684
 6557SOL    HW228450   2.096  11.306   6.978  2.0873  1.9745  2.9271
 6558SOL     OW28451   5.389  11.673   7.020 -0.4821 -0.3752 -0.4228
 6558SOL    HW128452   5.470  11.711   6.987 -0.3006 -0.4547 -0.0734
 6558SOL    HW228453   5.387  11.584   6.985  1.1556 -1.5027  2.0738
 6559SOL     OW28454   1.736   0.139   7.930 -0.0664 -0.2279  0.1812
 6559SOL    HW128455   1.748   0.147   8.025  0.6128  0.8106  0.0182
 6559SOL    HW228456   1.732   0.044   7.915  1.7123 -0.4942  1.0451
 6560SOL     OW28457   6.515   2.777   2.366 -0.4198 -0.7150  0.3496
 6560SOL    HW128458   6.442   2.715   2.361 -0.2176 -1.1362  2.0478
 6560SOL    HW228459   6.492   2.835   2.439 -0.4431  1.0521 -0.9826
 6561SOL     OW28460   9.225   8.404   1.149 -0.0509  0.2492  0.1737
 6561SOL    HW128461   9.217   8.377   1.058 -2.0164  1.5263 -0.0731
 6561SOL    HW228462   9.311   8.446   1.154 -1.5325  4.0711 -2.2499
 6562SOL     OW28463   7.615   6.523   9.441  0.2064 -0.0999  0.1288
 6562SOL    HW128464   7.689   6.496   9.386 -0.7124  0.7263 -1.5872
 6562SOL    HW228465   7.645   6.605   9.482  0.7707 -0.5468  0.6412
 6563SOL     OW28466   4.267   6.619   1.613 -0.0738 -0.3329 -0.3076
 6563SOL    HW128467   4.330   6.604   1.543 -0.1535  1.3873 -0.8142
 6563SOL    HW228468   4.183   6.625   1.568 -0.5901 -2.2066  0.3167
 6564SOL     OW28469   9.191   0.866   6.028 -0.6066  0.7669  0.5775
 6564SOL    HW128470   9.248   0.809   6.081 -1.9297 -1.4070 -0.1987
 6564SOL    HW228471   9.150   0.806   5.965  0.6228  3.1165 -2.7713
 6565SOL     OW28472   2.262   2.064  10.382  0.3481 -0.4839  0.1448
 6565SOL    HW128473   2.263   2.089  10.474  0.7850  2.2076 -0.5150
 6565SOL    HW228474   2.246   1.969  10.383  0.0910 -0.4868  2.9424
 6566SOL     OW28475  11.659   3.292  11.671  0.4873  0.2090  0.5928
 6566SOL    HW128476  11.724   3.351  11.634  0.8984 -1.1414 -0.9377
 6566SOL    HW228477  11.576   3.341  11.668  0.6462  0.4112 -1.4892
 6567SOL     OW28478   7.731   3.891   7.487  0.0422  0.5087  0.3535
 6567SOL    HW128479   7.779   3.839   7.422 -0.6720 -0.7751  0.8253
 6567SOL    HW228480   7.712   3.830   7.557  0.0280  1.6675  1.3919
 6568SOL     OW28481   4.632   4.308  10.849 -0.5590 -0.0986 -0.2517
 6568SOL    HW128482   4.676   4.258  10.918  0.8139  0.8174 -0.4452
 6568SOL    HW228483   4.665   4.272  10.767  2.0854  2.3853 -0.4265
 6569SOL     OW28484   8.193   0.861   5.451  0.7456  0.3925  0.1178
 6569SOL    HW128485   8.195   0.766   5.443  0.9858  0.3434  0.6865
 6569SOL    HW228486   8.126   0.889   5.389 -0.8984 -0.3204  1.4898
 6570SOL     OW28487   9.961   5.323  10.955  0.7642  0.0343 -0.3669
 6570SOL    HW128488   9.930   5.413  10.942 -0.9307  0.1230  2.9809
 6570SOL    HW228489  10.034   5.332  11.016  0.8813 -0.8118 -0.3723
 6571SOL     OW28490  10.995  10.623   0.651 -0.1221 -0.0500  0.3144
 6571SOL    HW128491  10.926  10.656   0.594 -0.4159  2.5201  2.0013
 6571SOL    HW228492  11.072  10.675   0.629 -0.2352  0.9708  2.1529
 6572SOL     OW28493   2.999   3.505   2.971 -0.5462  0.0256  0.2304
 6572SOL    HW128494   3.068   3.534   2.911 -1.9651  1.0303 -1.0042
 6572SOL    HW228495   3.036   3.518   3.058  0.1017  2.5647 -0.3300
 6573SOL     OW28496   7.207  11.703   3.503  0.1091 -0.2792 -0.1530
 6573SOL    HW128497   7.196  11.741   3.591  0.7249  0.0659 -0.2157
 6573SOL    HW228498   7.295  11.664   3.505 -0.0524 -0.6692 -0.4758
 6574SOL     OW28499   4.502  10.438   9.344 -0.5099 -0.6109 -0.2528
 6574SOL    HW128500   4.470  10.435   9.434  2.7620  1.0753  1.1547
 6574SOL    HW228501   4.431  10.477   9.294 -1.3966  1.1110  2.1797
 6575SOL     OW28502  12.444   6.614   4.201  0.4168 -0.1065  0.2451
 6575SOL    HW128503  12.376   6.565   4.155  0.7714 -0.1821 -0.2067
 6575SOL    HW228504  12.398   6.658   4.272 -0.2716  0.6043 -0.6225
 6576SOL     OW28505   7.594   3.086   1.934 -0.3143  0.1923 -0.0958
 6576SOL    HW128506   7.509   3.115   1.966 -0.1453 -1.2665  1.8274
 6576SOL    HW228507   7.588   2.990   1.931  0.9194  0.1119 -0.9486
 6577SOL     OW28508   5.115   4.603   3.588 -0.0864  0.3313  0.3317
 6577SOL    HW128509   5.040   4.544   3.593  0.5978 -0.5141  0.7375
 6577SOL    HW228510   5.109   4.656   3.668 -0.6212  0.7416  0.0321
 6578SOL     OW28511   5.360   7.090   1.283 -0.4614 -0.4580  0.5000
 6578SOL    HW128512   5.430   7.027   1.261  1.1573  1.5841 -0.5621
 6578SOL    HW228513   5.403   7.175   1.279 -2.2308  0.6906  3.2721
 6579SOL     OW28514   3.808   7.610   9.756 -0.0683  0.1965 -0.0457
 6579SOL    HW128515   3.827   7.648   9.671 -0.6714  0.9081  0.1339
 6579SOL    HW228516   3.822   7.681   9.819 -0.0814 -0.1886  0.4027
 6580SOL     OW28517   9.741   9.843   4.627 -0.6464  0.2145 -0.2290
 6580SOL    HW128518   9.728   9.889   4.710 -1.6379  0.6503 -0.6074
 6580SOL    HW228519   9.723   9.910   4.560 -2.5562 -0.7982 -0.7990
 6581SOL     OW28520   6.917   1.408  10.159  0.1069 -0.4259  0.4236
 6581SOL    HW128521   6.895   1.351  10.233  1.6894  0.5140  1.6759
 6581SOL    HW228522   6.975   1.474  10.196  2.1100 -0.7262 -1.9307
 6582SOL     OW28523   6.152   9.324   9.640  0.2386  0.1055  0.1140
 6582SOL    HW128524   6.139   9.351   9.731 -0.1327  0.6038 -0.0864
 6582SOL    HW228525   6.216   9.387   9.606  2.6228 -1.7458  0.8179
 6583SOL     OW28526  10.669   3.388   1.891 -0.4293  0.4984  0.2769
 6583SOL    HW128527  10.708   3.324   1.950  0.5084  1.2711  0.5229
 6583SOL    HW228528  10.609   3.438   1.945 -0.6506  0.2784  0.2384
 6584SOL     OW28529   4.887   5.347   8.780  0.4293 -0.3374 -0.2390
 6584SOL    HW128530   4.884   5.397   8.698 -0.8950 -0.0656 -0.0523
 6584SOL    HW228531   4.955   5.282   8.766 -0.3529 -0.8530 -1.8880
 6585SOL     OW28532   3.608   4.468   6.465  0.3450 -0.1063 -0.0342
 6585SOL    HW128533   3.542   4.515   6.515 -0.0658  0.8953 -1.4706
 6585SOL    HW228534   3.679   4.531   6.454 -0.1069  0.1393 -1.7660
 6586SOL     OW28535   0.391   3.021   0.094 -0.1855  0.2168 -0.1050
 6586SOL    HW128536   0.366   3.113   0.099  1.1231  0.6673 -1.4079
 6586SOL    HW228537   0.308   2.975   0.080 -0.9439  1.0957  1.2106
 6587SOL     OW28538   0.119   2.570  12.223  0.2163 -0.2419  0.4167
 6587SOL    HW128539   0.098   2.588  12.131  1.6452  1.1386  0.3081
 6587SOL    HW228540   0.048   2.610  12.272 -0.2501 -0.4611 -0.0714
 6588SOL     OW28541   8.375   6.237  10.557 -0.2973  0.1058  0.0622
 6588SOL    HW128542   8.394   6.197  10.642  0.4595 -0.0828 -0.1872
 6588SOL    HW228543   8.357   6.329  10.576  3.1746  0.8950  0.1267
 6589SOL     OW28544  11.714   2.215   8.350 -0.2244 -0.1892 -0.0329
 6589SOL    HW128545  11.735   2.281   8.416  0.8155  0.1238 -0.6535
 6589SOL    HW228546  11.774   2.142   8.368  0.2174 -0.0171 -0.7307
 6590SOL     OW28547  12.427   6.086   8.575 -0.3196 -0.3008  0.4755
 6590SOL    HW128548  12.338   6.122   8.583 -0.5508 -0.6607 -0.3118
 6590SOL    HW228549  12.449   6.098   8.482 -0.6222 -2.6508  0.0446
 6591SOL     OW28550   8.548   2.887   1.104  0.1047 -0.0569  0.7606
 6591SOL    HW128551   8.585   2.963   1.150 -1.6895  0.7552  0.9490
 6591SOL    HW228552   8.505   2.924   1.027 -3.0891 -0.4590  2.2127
 6592SOL     OW28553   5.712   1.969  11.042  0.1552  0.1027 -0.0928
 6592SOL    HW128554   5.766   1.978  11.120 -0.0583 -1.4693  0.2756
 6592SOL    HW228555   5.751   1.896  10.994  0.2893  1.0494 -1.4905
 6593SOL     OW28556   8.085   9.327   0.076  0.6894  0.3897 -0.2746
 6593SOL    HW128557   8.039   9.408   0.097  0.0059 -0.1262  0.2822
 6593SOL    HW228558   8.178   9.350   0.079  0.4939  1.2328 -0.4826
 6594SOL     OW28559   4.338  10.073   1.810  0.0199 -0.1830 -0.6408
 6594SOL    HW128560   4.314   9.981   1.824 -1.7274  0.3613  0.2742
 6594SOL    HW228561   4.285  10.099   1.735  2.6284 -0.6255 -2.7852
 6595SOL     OW28562   1.697   5.556   4.059  0.1668 -0.5688 -0.1393
 6595SOL    HW128563   1.761   5.510   4.004  2.3485  2.4290 -0.3452
 6595SOL    HW228564   1.655   5.618   4.000 -0.7650 -0.4232  0.6596
 6596SOL     OW28565   3.662  11.118  10.514  0.3536  0.0345 -0.6892
 6596SOL    HW128566   3.709  11.035  10.518 -1.6039 -1.0922  0.4182
 6596SOL    HW228567   3.587  11.101  10.457 -0.2045  0.9526 -0.2604
 6597SOL     OW28568  11.996   5.557   2.352 -0.4405 -0.4380  0.6038
 6597SOL    HW128569  12.022   5.465   2.349  1.4166  0.0756 -0.0486
 6597SOL    HW228570  12.054   5.596   2.417  0.2168  0.6668 -0.6044
 6598SOL     OW28571  10.516   8.971   3.416  0.3323  0.2234 -0.4063
 6598SOL    HW128572  10.439   8.916   3.429 -0.0972  0.4882 -1.6726
 6598SOL    HW228573  10.509   9.000   3.325  1.1409  1.4621 -0.0890
 6599SOL     OW28574   1.915   0.545   9.988  0.2113  0.2202  0.1672
 6599SOL    HW128575   1.917   0.617  10.051 -1.3866  0.5152 -0.1048
 6599SOL    HW228576   1.823   0.529   9.971  0.4897 -2.0555  0.3860
 6600SOL     OW28577   2.126  10.888   7.798  0.2403 -0.5724 -1.2836
 6600SOL    HW128578   2.189  10.896   7.870  0.4745 -0.4534 -1.4987
 6600SOL    HW228579   2.180  10.872   7.721  0.0635  0.2782 -1.5990
 6601SOL     OW28580   7.633   0.864   5.962  0.3026  0.1397 -0.4240
 6601SOL    HW128581   7.682   0.787   5.932  0.2431 -0.2500  0.4544
 6601SOL    HW228582   7.687   0.939   5.936  1.2926 -0.2744  0.3819
 6602SOL     OW28583   5.570   8.272  11.424  0.0214  0.5606 -0.3842
 6602SOL    HW128584   5.652   8.245  11.383  1.5996  1.8288  1.7476
 6602SOL    HW228585   5.518   8.192  11.431  1.8759 -0.6585 -0.0587
 6603SOL     OW28586   3.309   6.741   2.445 -0.2457 -0.2976  0.3543
 6603SOL    HW128587   3.243   6.782   2.389 -1.0929 -1.4782  0.4519
 6603SOL    HW228588   3.363   6.814   2.476  0.2488  0.4141 -1.9564
 6604SOL     OW28589   0.646   2.405   1.420 -0.8951 -0.1904  0.4036
 6604SOL    HW128590   0.689   2.444   1.343  1.0683 -0.3784  1.3317
 6604SOL    HW228591   0.706   2.336   1.448 -2.5055 -1.4025  1.0084
 6605SOL     OW28592  10.334   0.382  10.800 -0.7221 -0.3118  0.3305
 6605SOL    HW128593  10.368   0.394  10.888  1.1099  1.0484 -0.4844
 6605SOL    HW228594  10.412   0.369  10.746 -1.6557  0.5317 -1.3071
 6606SOL     OW28595  10.200   8.828   0.638 -0.2882 -0.4864 -0.0736
 6606SOL    HW128596  10.147   8.755   0.670 -0.1915 -0.7207 -0.4360
 6606SOL    HW228597  10.146   8.905   0.655  0.5144 -0.3772  2.3337
 6607SOL     OW28598   9.649   2.572   7.334  0.0300  0.6813  0.2795
 6607SOL    HW128599   9.739   2.538   7.334 -0.4031 -0.5338 -0.8044
 6607SOL    HW228600   9.639   2.611   7.421  1.7605  1.3003  0.2537
 6608SOL     OW28601   1.934   6.892   2.495  0.3633 -0.4722  0.2532
 6608SOL    HW128602   1.957   6.982   2.474  2.9638 -0.6561  1.9152
 6608SOL    HW228603   1.863   6.900   2.559  1.0315  0.4515  0.9105
 6609SOL     OW28604  10.096   4.522   2.304  0.1739 -0.4708 -0.3197
 6609SOL    HW128605  10.172   4.467   2.326 -0.2424 -1.0528 -0.2898
 6609SOL    HW228606  10.125   4.611   2.320  0.9587 -0.6608 -0.6245
 6610SOL     OW28607   0.560   7.641  10.635  0.2073 -0.2427 -0.2316
 6610SOL    HW128608   0.475   7.666  10.669  0.7904 -0.1196  1.1834
 6610SOL    HW228609   0.557   7.546  10.630  0.4283 -0.3272  1.0574
 6611SOL     OW28610   6.124   2.118   6.727 -0.2762  0.3682  0.0048
 6611SOL    HW128611   6.119   2.186   6.795 -0.1785 -0.8594  1.2908
 6611SOL    HW228612   6.049   2.136   6.670  0.5886  2.4217 -0.5588
 6612SOL     OW28613   1.798   8.099   4.826 -0.4818 -0.2155 -0.5145
 6612SOL    HW128614   1.739   8.091   4.751 -0.7142  1.6322 -0.5711
 6612SOL    HW228615   1.755   8.049   4.896 -1.4251 -0.0275 -0.9463
 6613SOL     OW28616  11.014   1.166   6.513  0.1027 -0.4391 -0.2878
 6613SOL    HW128617  11.075   1.183   6.585  1.3833 -0.0835 -1.4183
 6613SOL    HW228618  11.062   1.192   6.434 -0.3823 -2.9850 -1.5084
 6614SOL     OW28619  10.995  12.436   1.033  0.2849  0.1822  0.2707
 6614SOL    HW128620  11.077  12.405   1.071 -0.5857 -2.2839  0.3284
 6614SOL    HW228621  11.020  12.476   0.950  1.6811  0.9693  1.0357
 6615SOL     OW28622   6.487   1.311   9.240 -0.3672 -0.0922  0.4767
 6615SOL    HW128623   6.401   1.294   9.279 -0.0265  0.3778  1.4480
 6615SOL    HW228624   6.468   1.370   9.167 -0.9555 -0.6182  0.1870
 6616SOL     OW28625   3.654   4.840   1.762 -0.3882  0.2339  0.1243
 6616SOL    HW128626   3.724   4.878   1.816  0.6940 -0.2427 -0.9046
 6616SOL    HW228627   3.601   4.789   1.824  2.6188 -2.9460  0.3698
 6617SOL     OW28628   4.665   8.596   9.209 -0.0724 -0.4829 -0.1580
 6617SOL    HW128629   4.716   8.622   9.285  0.9663 -0.2761 -0.9009
 6617SOL    HW228630   4.578   8.634   9.224  0.9422  2.2206 -0.4846
 6618SOL     OW28631   9.065   1.562  10.668  0.1385  0.2487 -0.4928
 6618SOL    HW128632   9.020   1.551  10.752 -0.4123 -0.1712 -0.8316
 6618SOL    HW228633   9.130   1.492  10.667 -1.2403 -1.0884 -1.2819
 6619SOL     OW28634   6.265   3.533   9.697 -0.7551 -0.2697 -0.0639
 6619SOL    HW128635   6.251   3.608   9.754  1.1033  0.2133 -0.1753
 6619SOL    HW228636   6.227   3.459   9.744  0.5440  0.1451  1.7077
 6620SOL     OW28637  10.906  11.505   1.546 -0.5286  0.3323  0.4238
 6620SOL    HW128638  10.827  11.558   1.557 -1.3508 -1.1022  1.9096
 6620SOL    HW228639  10.873  11.418   1.525  0.7700  0.2493 -1.5077
 6621SOL     OW28640   0.003   0.434   3.636  0.2774  0.1132 -0.4696
 6621SOL    HW128641  -0.055   0.398   3.569  0.2014  1.3358 -1.1023
 6621SOL    HW228642   0.080   0.377   3.634  0.2170  0.0402 -1.5160
 6622SOL     OW28643  11.865   1.714   9.876 -0.4946  0.0910  0.2239
 6622SOL    HW128644  11.930   1.715   9.946  0.4344 -2.1035 -0.5286
 6622SOL    HW228645  11.915   1.727   9.796 -0.9296 -1.5074 -0.3559
 6623SOL     OW28646   5.550   1.449   9.874 -0.2169  0.7321 -0.5695
 6623SOL    HW128647   5.533   1.360   9.906  1.0603  1.1685  1.4872
 6623SOL    HW228648   5.633   1.442   9.827  0.2455  0.9516  0.2012
 6624SOL     OW28649   0.834   6.316  11.064 -0.2505  0.0386  0.0488
 6624SOL    HW128650   0.801   6.280  11.147 -0.0524  0.6314  0.3956
 6624SOL    HW228651   0.900   6.381  11.091 -0.4791  0.5356 -0.5643
 6625SOL     OW28652  10.242   3.545   4.434 -0.1770  0.2707 -0.0366
 6625SOL    HW128653  10.320   3.499   4.465  0.7193  0.6145 -1.6484
 6625SOL    HW228654  10.248   3.633   4.472 -0.7004 -0.2164  1.2139
 6626SOL     OW28655   6.715   2.987  11.571 -0.5558  0.0716  0.1042
 6626SOL    HW128656   6.710   2.927  11.497 -4.3582  2.4196 -1.8650
 6626SOL    HW228657   6.687   2.936  11.647  1.1261 -1.7668 -0.4221
 6627SOL     OW28658   0.862   8.281   6.201 -0.2907  0.2370 -0.0545
 6627SOL    HW128659   0.806   8.229   6.259 -1.7602  0.6112 -1.0919
 6627SOL    HW228660   0.839   8.372   6.221 -1.1657  0.3670 -1.5033
 6628SOL     OW28661  11.236   0.658   8.507 -0.1965 -0.3861  0.3172
 6628SOL    HW128662  11.220   0.573   8.466  0.1602 -0.1400 -0.3459
 6628SOL    HW228663  11.157   0.674   8.559 -1.5374  0.1545 -1.7647
 6629SOL     OW28664   3.916   3.456   3.870 -0.2962  0.2360  0.5063
 6629SOL    HW128665   3.919   3.442   3.776  1.9717  1.7437  0.2763
 6629SOL    HW228666   3.881   3.544   3.880  1.0262  0.7430  0.9286
 6630SOL     OW28667   0.069   9.969   7.190  0.2076 -0.1628  0.1449
 6630SOL    HW128668   0.130   9.931   7.253  0.4667  0.8271  0.5194
 6630SOL    HW228669   0.008   9.899   7.170  0.4626 -0.6689  1.0742
 6631SOL     OW28670   6.121  10.258   2.554 -0.0976 -0.3664 -0.6942
 6631SOL    HW128671   6.162  10.296   2.631  0.7032  1.0828 -1.7861
 6631SOL    HW228672   6.194  10.231   2.498 -0.6633 -1.5725 -0.8859
 6632SOL     OW28673   6.812   2.177  10.033  0.1257  0.4357 -0.3731
 6632SOL    HW128674   6.739   2.230  10.000 -0.1735  0.2412 -0.0451
 6632SOL    HW228675   6.792   2.088  10.003  0.0580  0.3281 -0.0134
 6633SOL     OW28676   7.791   1.936  12.333  0.7132 -0.2193  0.5255
 6633SOL    HW128677   7.781   1.995  12.407  1.1795  0.3042  0.1822
 6633SOL    HW228678   7.881   1.904  12.339  0.9362  0.2633 -0.1223
 6634SOL     OW28679   8.541   3.692   8.213 -0.0978  0.3038  0.5226
 6634SOL    HW128680   8.591   3.757   8.164  1.4865 -1.1144  0.1584
 6634SOL    HW228681   8.463   3.676   8.160  0.4918  0.4454 -0.4045
 6635SOL     OW28682  11.176   2.584   3.828  0.0752  0.5245 -0.5514
 6635SOL    HW128683  11.269   2.583   3.808  0.0603 -2.1103 -0.7541
 6635SOL    HW228684  11.135   2.533   3.758 -1.3379  0.4845  0.2620
 6636SOL     OW28685  11.031   0.732   3.858  0.1462 -0.6504  0.7501
 6636SOL    HW128686  10.973   0.739   3.934 -0.2016 -1.3866  0.5556
 6636SOL    HW228687  10.987   0.671   3.799 -0.3365  1.0245 -0.7278
 6637SOL     OW28688  11.938   5.907   3.239  0.3612 -0.3856  0.0131
 6637SOL    HW128689  11.906   5.875   3.323  0.4510 -0.9550 -0.1656
 6637SOL    HW228690  12.015   5.853   3.220  1.0421  0.5218  0.1240
 6638SOL     OW28691   5.188  11.144   5.899 -0.0443  0.0386 -0.2971
 6638SOL    HW128692   5.172  11.188   5.983 -0.6470 -0.9926  0.1440
 6638SOL    HW228693   5.145  11.059   5.908  0.9557 -0.5873 -1.1906
 6639SOL     OW28694   8.084   6.753   2.230  0.4314 -0.3276 -0.1028
 6639SOL    HW128695   8.048   6.703   2.303  1.2024 -2.0791 -0.8507
 6639SOL    HW228696   8.048   6.711   2.152  2.7079 -1.1240 -0.8212
 6640SOL     OW28697  12.516   7.326   7.826  0.4876  0.3229  0.3061
 6640SOL    HW128698  12.519   7.233   7.805  2.3687 -0.1600  2.2786
 6640SOL    HW228699  12.598   7.362   7.792  0.2663  1.0211  0.4819
 6641SOL     OW28700   6.404  10.668   5.160 -0.4166  0.0495 -0.1393
 6641SOL    HW128701   6.429  10.733   5.094 -1.4266 -0.4222 -1.0296
 6641SOL    HW228702   6.485  10.624   5.182  0.0116  0.5002 -0.7663
 6642SOL     OW28703   2.804   8.964   3.005  0.6177 -0.1172 -0.2153
 6642SOL    HW128704   2.788   8.999   2.918  0.6954 -0.7813 -0.5017
 6642SOL    HW228705   2.867   8.893   2.992  1.4252  0.4445  0.5138
 6643SOL     OW28706  11.009   1.057   1.926 -0.0543  0.0354 -0.0178
 6643SOL    HW128707  11.073   1.060   1.997  0.1873 -2.4534 -0.0330
 6643SOL    HW228708  10.998   1.148   1.900  0.3073  0.9845  2.7845
 6644SOL     OW28709   2.167   8.149   7.362 -0.3656  0.4627 -0.1684
 6644SOL    HW128710   2.247   8.110   7.396  0.4605  2.2603  0.0882
 6644SOL    HW228711   2.165   8.124   7.269  1.5168  1.8876 -0.6515
 6645SOL     OW28712  11.743   9.267  10.374 -0.2292  0.0823 -0.3102
 6645SOL    HW128713  11.741   9.323  10.451 -0.2724 -0.5919  0.1856
 6645SOL    HW228714  11.672   9.204  10.387  0.9207 -1.2068  0.0092
 6646SOL     OW28715   1.414  10.809   5.386  0.1491  0.0284  0.1558
 6646SOL    HW128716   1.429  10.716   5.371  3.1029  0.1906  1.3284
 6646SOL    HW228717   1.320  10.817   5.403 -0.0112 -2.8633  1.0270
 6647SOL     OW28718   3.262   8.617   5.761  0.1789  0.0140 -0.1075
 6647SOL    HW128719   3.229   8.706   5.773  0.8436  0.3306 -0.5465
 6647SOL    HW228720   3.195   8.561   5.799 -1.5771  0.5242 -2.2328
 6648SOL     OW28721   4.927   9.402   9.216 -0.1424 -0.4387 -0.3432
 6648SOL    HW128722   4.963   9.392   9.128  1.1877  1.0809 -0.0079
 6648SOL    HW228723   4.834   9.417   9.202  0.3954  2.1120 -1.6780
 6649SOL     OW28724  10.726   1.539  12.331  0.0607 -0.2036 -0.0271
 6649SOL    HW128725  10.797   1.475  12.327  0.3670  0.2100 -1.6217
 6649SOL    HW228726  10.688   1.539  12.244 -2.6994 -1.2556  1.0683
 6650SOL     OW28727   1.482   1.065   3.862 -0.0293  0.0312  0.1394
 6650SOL    HW128728   1.408   1.008   3.841 -0.5809  0.4397  0.9405
 6650SOL    HW228729   1.542   1.055   3.787 -0.4884 -0.9620 -0.1103
 6651SOL     OW28730   4.964   7.278  11.318  0.7397  0.1044  0.0353
 6651SOL    HW128731   4.895   7.293  11.253 -0.8254 -2.9935  0.7376
 6651SOL    HW228732   4.927   7.210  11.375  3.8158 -0.5604  1.4123
 6652SOL     OW28733  10.534  12.568  11.029 -0.3505 -0.0891 -0.0634
 6652SOL    HW128734  10.458  12.560  10.972 -1.5409  2.3715  1.0247
 6652SOL    HW228735  10.538  12.484  11.075 -1.5174 -0.7928 -1.1827
 6653SOL     OW28736  10.243   8.682   1.733  0.0824 -0.1072  0.5766
 6653SOL    HW128737  10.238   8.740   1.809 -1.4785 -0.0500  0.4720
 6653SOL    HW228738  10.223   8.739   1.659  0.1305 -0.4580  0.2921
 6654SOL     OW28739  10.478  11.322  11.378  0.4713  0.5795  0.2411
 6654SOL    HW128740  10.573  11.325  11.366  0.5315 -0.6202  0.2958
 6654SOL    HW228741  10.464  11.352  11.468  1.0347 -1.4775  1.0783
 6655SOL     OW28742   5.771   9.979   7.061  0.1918 -0.2329 -0.2801
 6655SOL    HW128743   5.775  10.009   7.152  0.4341  1.7527 -0.8944
 6655SOL    HW228744   5.749  10.058   7.011 -0.4116 -1.3776 -1.9074
 6656SOL     OW28745   0.922   0.046   0.007  0.1421 -0.6754 -0.0067
 6656SOL    HW128746   0.925   0.014   0.098  0.0313 -2.0858 -0.4702
 6656SOL    HW228747   0.847  -0.000  -0.031  0.4615 -0.4309 -0.9420
 6657SOL     OW28748   3.548   6.319   5.338 -0.2966 -0.1089  0.1082
 6657SOL    HW128749   3.568   6.227   5.322 -0.4052  0.4008 -4.1515
 6657SOL    HW228750   3.453   6.325   5.329 -0.1510  0.5862 -1.2555
 6658SOL     OW28751   1.945  11.263   3.149 -0.2138 -0.2222 -0.2390
 6658SOL    HW128752   1.925  11.241   3.241 -2.5035  2.7366  0.1351
 6658SOL    HW228753   1.960  11.179   3.107 -0.8990 -1.8324  2.4875
 6659SOL     OW28754  11.622   3.286   0.380  0.4466 -0.1397 -0.2163
 6659SOL    HW128755  11.673   3.349   0.329  0.6238 -1.2952 -1.5041
 6659SOL    HW228756  11.669   3.280   0.463  0.9496  0.7173 -0.4196
 6660SOL     OW28757   7.312   1.339   7.744 -0.5027  0.2857  0.0498
 6660SOL    HW128758   7.246   1.270   7.740  0.4274 -0.6657  0.4725
 6660SOL    HW228759   7.305   1.384   7.660 -0.5626 -0.8848 -0.6068
 6661SOL     OW28760   4.595  11.066  11.163 -0.4324 -0.4168 -0.0734
 6661SOL    HW128761   4.598  10.993  11.224  1.9409 -3.1988 -3.1237
 6661SOL    HW228762   4.686  11.094  11.154 -0.5199 -0.6995 -2.7940
 6662SOL     OW28763  11.670   9.629   1.324  0.4819 -0.5607 -0.0894
 6662SOL    HW128764  11.656   9.556   1.264 -0.1988 -0.0896 -0.5128
 6662SOL    HW228765  11.749   9.605   1.373  0.8902 -1.0762 -0.9784
 6663SOL     OW28766   3.961   6.015   4.413 -0.2477  0.5811 -0.4214
 6663SOL    HW128767   4.052   5.992   4.431 -0.2570  1.6357  1.0747
 6663SOL    HW228768   3.943   5.974   4.328  0.5826 -2.4740  0.7678
 6664SOL     OW28769   8.976   2.672   4.368  0.1276  0.4817 -0.3443
 6664SOL    HW128770   9.063   2.710   4.361  0.0088  0.7990 -0.1487
 6664SOL    HW228771   8.921   2.731   4.316  0.1128  0.0144 -0.8629
 6665SOL     OW28772  11.993   1.140   5.096 -0.3984 -0.4134 -0.4887
 6665SOL    HW128773  11.937   1.148   5.019 -1.4165 -0.8984  0.1687
 6665SOL    HW228774  11.973   1.218   5.148 -0.5943 -0.6648 -0.1792
 6666SOL     OW28775   6.000   2.448   9.803 -0.4278  0.1953  0.2432
 6666SOL    HW128776   6.060   2.447   9.877 -0.6909 -0.5158  0.4509
 6666SOL    HW228777   5.982   2.356   9.785 -0.7747  0.3785 -0.3704
 6667SOL     OW28778   0.904   9.491   3.376 -0.0365 -0.1304  0.0381
 6667SOL    HW128779   0.904   9.519   3.468 -1.0744 -0.0732  0.0324
 6667SOL    HW228780   0.811   9.485   3.353  0.1781 -1.4692 -0.5990
 6668SOL     OW28781   0.241   2.003   2.478  0.0714 -0.2809 -0.3317
 6668SOL    HW128782   0.229   1.910   2.458  0.0134 -0.3159 -0.1323
 6668SOL    HW228783   0.325   2.025   2.439  1.3472 -1.0460  1.8208
 6669SOL     OW28784   1.562   7.860   3.018  0.4477  0.2350  0.3371
 6669SOL    HW128785   1.469   7.875   3.036  0.0660 -1.6436  0.1544
 6669SOL    HW228786   1.604   7.866   3.104 -0.0365 -0.1734  0.6078
 6670SOL     OW28787   5.016   8.943  12.131  0.2571 -0.6462  0.0412
 6670SOL    HW128788   4.969   8.955  12.048  0.4795 -0.1185 -0.0120
 6670SOL    HW228789   5.030   9.032  12.164  2.3506 -0.6982 -0.5852
 6671SOL     OW28790   4.251   9.775  10.007  0.3349 -0.0950  0.3547
 6671SOL    HW128791   4.199   9.813  10.078  0.2708 -0.9820  0.7889
 6671SOL    HW228792   4.292   9.851   9.965 -0.4417  0.5268  0.6840
 6672SOL     OW28793   0.370  10.415   3.533  0.1956  0.0166 -0.1965
 6672SOL    HW128794   0.425  10.482   3.572 -1.6380  1.0704  0.7306
 6672SOL    HW228795   0.283  10.456   3.527 -0.4762 -1.4989 -1.7233
 6673SOL     OW28796   2.421   9.938   3.703 -0.1505 -0.6222  0.1525
 6673SOL    HW128797   2.499   9.938   3.760 -1.5091  0.5476  2.1177
 6673SOL    HW228798   2.424  10.022   3.658  0.1367 -0.9314 -0.4229
 6674SOL     OW28799   2.762   3.658   9.753  0.3025  0.3365 -0.1767
 6674SOL    HW128800   2.817   3.706   9.690  1.0558 -0.7766 -0.4081
 6674SOL    HW228801   2.766   3.567   9.723  0.1753 -0.1228  1.1318
 6675SOL     OW28802   1.850   4.031   5.985  0.5152 -0.4174  0.5385
 6675SOL    HW128803   1.862   4.113   5.937  1.5437  0.1123  1.6516
 6675SOL    HW228804   1.900   3.966   5.935  0.4661 -0.1664  0.1636
 6676SOL     OW28805   3.276   5.655   6.249 -0.4465 -0.3677  0.0690
 6676SOL    HW128806   3.197   5.609   6.277  0.7713 -1.6220  1.6876
 6676SOL    HW228807   3.251   5.699   6.168 -2.4174 -1.7785 -0.1707
 6677SOL     OW28808   5.979   4.988   2.753 -0.6683 -0.3104 -0.2208
 6677SOL    HW128809   6.061   5.013   2.797 -1.5487  1.5348  0.4848
 6677SOL    HW228810   5.925   5.067   2.756 -2.8453 -1.7183  0.1283
 6678SOL     OW28811   3.562   8.073   9.171 -0.3396  0.1163 -0.2373
 6678SOL    HW128812   3.650   8.093   9.201  0.0405 -0.9465 -0.5994
 6678SOL    HW228813   3.529   8.008   9.233 -1.3245  1.3329  0.5712
 6679SOL     OW28814   5.049   4.689  10.703 -0.2877 -0.0302  0.3569
 6679SOL    HW128815   4.980   4.748  10.733  0.2930  0.8596 -0.0121
 6679SOL    HW228816   5.058   4.624  10.773 -2.1533 -0.7584 -0.0123
 6680SOL     OW28817   0.862   6.157   9.412  0.3501 -0.0417 -0.0512
 6680SOL    HW128818   0.805   6.194   9.344  1.2865  0.7110 -0.4416
 6680SOL    HW228819   0.815   6.173   9.494 -0.2250  0.1229 -0.4046
 6681SOL     OW28820  12.035   1.673  11.964  0.8259  0.2908  0.3018
 6681SOL    HW128821  11.986   1.754  11.975  1.3947  0.3582  2.7586
 6681SOL    HW228822  12.002   1.637  11.881 -0.7032  2.1214  0.0399
 6682SOL     OW28823  10.317   4.298  10.609 -0.2799  1.2114 -0.4346
 6682SOL    HW128824  10.378   4.278  10.681 -0.4034 -0.2539 -0.7089
 6682SOL    HW228825  10.231   4.279  10.645 -0.5035  2.2436 -0.3992
 6683SOL     OW28826   9.456   4.508   8.499  0.4348 -0.1488  0.0541
 6683SOL    HW128827   9.438   4.418   8.471  2.4349 -0.9544  1.1775
 6683SOL    HW228828   9.491   4.499   8.588  0.8879  1.7326  0.1050
 6684SOL     OW28829  11.801   4.116   6.516 -0.1538 -0.2198 -0.1030
 6684SOL    HW128830  11.733   4.060   6.478  0.4687 -1.6712  0.8494
 6684SOL    HW228831  11.761   4.203   6.517 -1.4272 -0.7455 -0.9481
 6685SOL     OW28832   1.027   4.572  10.247  0.6245  0.6222 -0.4257
 6685SOL    HW128833   1.020   4.649  10.304  2.0267  0.5697 -0.1555
 6685SOL    HW228834   1.083   4.600  10.175  1.1964 -0.1600 -0.2935
 6686SOL     OW28835   8.136  11.890   4.334 -0.1708  0.0177  0.0905
 6686SOL    HW128836   8.042  11.907   4.341 -0.2375  1.0810 -2.5367
 6686SOL    HW228837   8.147  11.843   4.251  1.6385 -0.0428  0.3147
 6687SOL     OW28838  10.882  12.596   4.351 -0.4370  0.7376 -0.0954
 6687SOL    HW128839  10.851  12.642   4.272 -1.0863  2.5198  1.1259
 6687SOL    HW228840  10.847  12.507   4.342 -3.1415  1.7260 -0.4113
 6688SOL     OW28841   5.169   3.883   3.780 -0.4097 -0.1992  0.2143
 6688SOL    HW128842   5.241   3.930   3.739 -1.0796  0.1595 -0.5925
 6688SOL    HW228843   5.161   3.923   3.867  0.3628 -0.2568  0.3185
 6689SOL     OW28844   8.047  11.632   3.840 -0.0570  0.1026 -0.6573
 6689SOL    HW128845   8.095  11.672   3.912  1.7745 -2.3617 -0.3907
 6689SOL    HW228846   8.033  11.542   3.868 -1.8114 -0.1835 -2.2436
 6690SOL     OW28847   3.662   5.887   6.513  0.3722  0.0570 -0.0659
 6690SOL    HW128848   3.688   5.936   6.591 -0.2516  0.5693 -0.1718
 6690SOL    HW228849   3.744   5.865   6.470  0.6604  1.1085 -0.0709
 6691SOL     OW28850   1.974  10.512   9.304  0.2938  0.0280  0.2726
 6691SOL    HW128851   2.062  10.505   9.340 -0.3422 -1.2735  1.6495
 6691SOL    HW228852   1.920  10.541   9.377 -0.2982  1.8253 -0.7997
 6692SOL     OW28853   7.834   8.035   4.674 -0.2601  0.5139  0.3153
 6692SOL    HW128854   7.822   8.123   4.639  2.6482  0.4613 -1.1621
 6692SOL    HW228855   7.794   7.977   4.609 -1.9540  0.6928  1.1649
 6693SOL     OW28856   1.009   5.984   2.898 -0.2740  0.3079 -0.0395
 6693SOL    HW128857   1.036   5.905   2.945  0.5456  0.8341  0.4004
 6693SOL    HW228858   0.965   6.037   2.964  0.0112  0.6243 -0.1018
 6694SOL     OW28859   8.496  11.152  12.118  0.6082 -0.2646  0.2827
 6694SOL    HW128860   8.432  11.136  12.187 -1.4390  1.2282 -1.1428
 6694SOL    HW228861   8.501  11.248  12.111  0.7807 -0.3686 -1.5699
 6695SOL     OW28862   3.708   6.092   9.034 -0.2248 -0.3591 -0.0840
 6695SOL    HW128863   3.720   6.175   8.989 -1.2980  0.6067  1.3417
 6695SOL    HW228864   3.649   6.042   8.978  0.7375 -0.3510 -1.1429
 6696SOL     OW28865   8.814   3.352   8.027  0.1137  0.1778  0.1393
 6696SOL    HW128866   8.843   3.262   8.019 -0.6091 -0.0479 -0.0085
 6696SOL    HW228867   8.779   3.375   7.941  0.2511  0.5838  0.1859
 6697SOL     OW28868   4.436   1.565   0.418  0.1423  0.6009 -0.0684
 6697SOL    HW128869   4.411   1.602   0.334 -0.8514 -0.1832 -0.1499
 6697SOL    HW228870   4.473   1.638   0.467  1.6273  0.8735 -1.5053
 6698SOL     OW28871   2.526  11.862  12.306 -0.2558 -0.5690  0.2092
 6698SOL    HW128872   2.518  11.898  12.218  2.1588  1.0176  0.5242
 6698SOL    HW228873   2.436  11.846  12.334 -1.3317  2.0858 -1.3065
 6699SOL     OW28874   1.057   1.931   0.756 -0.0184  0.4088 -0.3334
 6699SOL    HW128875   1.126   1.866   0.766  0.5698  1.0524 -0.1961
 6699SOL    HW228876   1.101   2.016   0.766 -1.3128  0.8199  3.2639
 6700SOL     OW28877   6.173   6.881   2.326 -0.6421  0.4724 -0.5363
 6700SOL    HW128878   6.242   6.849   2.267 -1.2888  0.1038 -1.1047
 6700SOL    HW228879   6.201   6.970   2.347 -0.1073  0.4136 -0.9502
 6701SOL     OW28880   0.338   5.731   6.132 -0.5675 -0.2504  0.6173
 6701SOL    HW128881   0.415   5.698   6.179 -0.1862 -0.5700 -0.2084
 6701SOL    HW228882   0.368   5.813   6.092 -0.7170 -0.2663  0.4713
 6702SOL     OW28883   1.415   2.172   3.187 -0.3525 -0.1059 -0.2257
 6702SOL    HW128884   1.388   2.206   3.102 -0.7382  1.3519  0.4337
 6702SOL    HW228885   1.496   2.125   3.170  0.6535  1.8272 -1.1310
 6703SOL     OW28886   1.931   4.450   5.394  0.6194  0.4209  0.1651
 6703SOL    HW128887   1.895   4.401   5.320 -0.0671  0.5916  0.3717
 6703SOL    HW228888   1.887   4.535   5.390  1.8135  1.0395 -0.2030
 6704SOL     OW28889   8.333   6.057   6.987 -0.1239 -0.3180 -0.2296
 6704SOL    HW128890   8.360   6.097   7.069 -0.6122  1.8472 -1.0454
 6704SOL    HW228891   8.380   5.974   6.984 -0.5398 -0.7316  2.4679
 6705SOL     OW28892   0.285  12.187   8.290  0.1473  0.5412 -0.3449
 6705SOL    HW128893   0.378  12.199   8.308  0.2124 -1.0022  0.4550
 6705SOL    HW228894   0.245  12.173   8.376 -0.4645 -1.0482 -0.8659
 6706SOL     OW28895   9.501  11.580  12.158  0.0556 -0.0951  0.7707
 6706SOL    HW128896   9.505  11.486  12.176 -0.2847 -0.7936 -2.1677
 6706SOL    HW228897   9.412  11.605  12.181 -0.7309 -1.1766 -0.8632
 6707SOL     OW28898  11.802   1.942   9.287  0.1180 -0.0712  0.1243
 6707SOL    HW128899  11.867   2.007   9.262  1.5410 -1.1171  1.0006
 6707SOL    HW228900  11.744   1.988   9.347  0.6824  0.5893  0.1725
 6708SOL     OW28901   6.019  10.883   7.249  0.1200  0.8817  0.4569
 6708SOL    HW128902   5.973  10.961   7.278 -0.3734 -0.1807  2.7123
 6708SOL    HW228903   6.093  10.875   7.309  0.6968  0.1142 -0.3335
 6709SOL     OW28904  10.411   9.202   4.867 -0.2785  0.1754  0.5618
 6709SOL    HW128905  10.398   9.117   4.909  2.3738 -0.0050  1.1922
 6709SOL    HW228906  10.407   9.266   4.938 -0.2333  0.3494  0.4114
 6710SOL     OW28907   5.970   9.265  10.242  0.2207 -0.2552 -0.0539
 6710SOL    HW128908   5.997   9.220  10.323  1.2482  1.6935  0.7517
 6710SOL    HW228909   5.919   9.340  10.273 -2.7096 -1.5299 -1.4076
 6711SOL     OW28910   9.748   1.987   9.124 -0.3827 -0.1402  0.3403
 6711SOL    HW128911   9.673   2.040   9.150 -0.8743 -0.7435  0.1737
 6711SOL    HW228912   9.822   2.024   9.173 -0.9621 -0.1213  1.2175
 6712SOL     OW28913   8.062   5.380   0.939 -0.2808  0.2753  0.0099
 6712SOL    HW128914   8.044   5.328   1.016  1.4212  0.6305  0.6971
 6712SOL    HW228915   7.976   5.402   0.904 -1.0650 -2.3817  0.0651
 6713SOL     OW28916   1.814   5.741   5.381 -0.4727 -0.1647  0.4374
 6713SOL    HW128917   1.743   5.777   5.328  0.1587 -0.6227 -0.7332
 6713SOL    HW228918   1.870   5.816   5.401 -0.8803  0.0639  0.7560
 6714SOL     OW28919   5.245  11.577   9.230 -0.2822 -0.0343  0.2568
 6714SOL    HW128920   5.173  11.640   9.236 -0.8432 -0.6726  0.1855
 6714SOL    HW228921   5.247  11.535   9.316  2.0051  2.1297  1.4006
 6715SOL     OW28922   5.419   5.271  10.725 -0.2484 -0.0633  0.3527
 6715SOL    HW128923   5.350   5.237  10.667 -0.9624 -1.4512  1.9401
 6715SOL    HW228924   5.377   5.276  10.811  0.9042  1.5711  0.8640
 6716SOL     OW28925  10.808  12.249   9.671  0.5252  0.3044  0.0876
 6716SOL    HW128926  10.811  12.270   9.577 -3.1323  0.8708 -0.0589
 6716SOL    HW228927  10.839  12.158   9.676  1.6808  0.5608 -1.4979
 6717SOL     OW28928   4.180   1.271   8.307  0.5663  0.6889  0.5483
 6717SOL    HW128929   4.190   1.280   8.402  0.4538 -2.1226  0.9251
 6717SOL    HW228930   4.269   1.267   8.274  0.6214  0.1586  0.7492
 6718SOL     OW28931   1.040  10.903   6.681 -0.0472  0.1030  0.3480
 6718SOL    HW128932   1.046  10.835   6.749 -0.8092 -1.8434 -1.4249
 6718SOL    HW228933   1.001  10.977   6.726  0.1120 -0.8699  2.2081
 6719SOL     OW28934   4.609  11.274  10.010 -0.5620  0.4653  0.2401
 6719SOL    HW128935   4.544  11.212  10.044  0.6141 -1.2127 -0.4229
 6719SOL    HW228936   4.692  11.246  10.049  0.1472  1.0131 -0.8181
 6720SOL     OW28937   0.244  11.711   8.514 -0.2375  0.2092  0.2353
 6720SOL    HW128938   0.158  11.706   8.473 -0.4262  0.6608  0.5636
 6720SOL    HW228939   0.259  11.805   8.527  1.0540  0.2902 -1.3851
 6721SOL     OW28940   5.007  11.885   4.155 -0.1465  0.7448 -0.3563
 6721SOL    HW128941   4.940  11.914   4.093  0.6028  0.1257 -1.5008
 6721SOL    HW228942   5.088  11.882   4.103  0.6210  0.7357  0.7996
 6722SOL     OW28943   0.537   1.184  10.336  0.0994  0.8361  0.7200
 6722SOL    HW128944   0.508   1.225  10.254 -0.3514 -1.5115 -0.3782
 6722SOL    HW228945   0.456   1.160  10.380  0.3603  0.8454  1.2069
 6723SOL     OW28946  11.531   4.238   4.617 -0.4715 -0.1358 -0.0841
 6723SOL    HW128947  11.491   4.165   4.664 -2.1438  1.2338  0.7583
 6723SOL    HW228948  11.574   4.289   4.686 -0.1852  0.2175 -0.5179
 6724SOL     OW28949   0.153  12.400  11.998 -0.4467 -0.0075 -0.3296
 6724SOL    HW128950   0.237  12.364  12.029 -0.8810 -0.2273  0.6394
 6724SOL    HW228951   0.092  12.326  12.003 -1.2000  0.6622  1.0661
 6725SOL     OW28952   0.258   7.661   9.964 -0.0648  0.0048  0.0347
 6725SOL    HW128953   0.243   7.747  10.002  0.3852 -0.8964  2.4103
 6725SOL    HW228954   0.288   7.607  10.037 -2.6167 -2.8058 -0.8028
 6726SOL     OW28955   9.641   7.671  12.108  0.0454  0.0839 -0.3626
 6726SOL    HW128956   9.651   7.606  12.177 -0.2116  1.2036  0.7790
 6726SOL    HW228957   9.549   7.698  12.114 -0.2091 -0.3990 -1.7212
 6727SOL     OW28958   1.913   4.253   7.517  0.1507 -0.0300 -0.1655
 6727SOL    HW128959   1.883   4.186   7.455  0.7148 -0.4948  0.0500
 6727SOL    HW228960   1.833   4.295   7.547 -0.1145  0.4207 -1.4361
 6728SOL     OW28961   3.233  10.728   8.560  0.0707 -0.3825  0.2783
 6728SOL    HW128962   3.184  10.686   8.489  0.1569  0.3520 -0.2279
 6728SOL    HW228963   3.167  10.745   8.628 -0.4302  0.7392 -0.4608
 6729SOL     OW28964   3.800  10.516   9.347  0.0215 -0.4189 -0.4499
 6729SOL    HW128965   3.830  10.428   9.326  1.8845 -0.0090  0.2491
 6729SOL    HW228966   3.845  10.573   9.285 -1.0571  0.0659 -0.8092
 6730SOL     OW28967   2.543   5.615  10.716 -0.1026  0.1886 -0.0970
 6730SOL    HW128968   2.503   5.555  10.654  0.1798  0.5633 -0.6539
 6730SOL    HW228969   2.629   5.578  10.735  0.6358  1.0786 -1.4928
 6731SOL     OW28970   8.065  11.772   0.845 -0.2790 -0.2043 -0.3655
 6731SOL    HW128971   8.133  11.838   0.834 -1.1934  0.9489  0.6047
 6731SOL    HW228972   8.090  11.725   0.925  0.5745 -1.3314 -1.2593
 6732SOL     OW28973   2.704  11.331   9.756 -0.2964  0.1408  0.4334
 6732SOL    HW128974   2.691  11.284   9.838  1.6989  1.9593  1.9225
 6732SOL    HW228975   2.767  11.277   9.707 -1.1748 -0.7391  0.2511
 6733SOL     OW28976   7.497   0.374   1.224  0.0861 -0.7120  0.3974
 6733SOL    HW128977   7.411   0.415   1.217  0.6243  0.5846  0.9825
 6733SOL    HW228978   7.543   0.401   1.145 -0.4739 -2.5713 -0.6275
 6734SOL     OW28979   5.376  12.595  11.796 -0.6095 -0.4641  0.1975
 6734SOL    HW128980   5.295  12.547  11.811  0.2844 -2.3641 -0.6079
 6734SOL    HW228981   5.393  12.641  11.878 -1.8640 -1.0092  0.7853
 6735SOL     OW28982   3.375   1.213  12.176  0.5519 -0.6760  0.4172
 6735SOL    HW128983   3.409   1.133  12.135 -0.1290 -0.0327 -1.5170
 6735SOL    HW228984   3.452   1.267  12.190  0.9644 -1.4671  1.3346
 6736SOL     OW28985   0.138   0.037   4.349 -0.1710  0.6908 -0.1272
 6736SOL    HW128986   0.127   0.081   4.433 -0.6710 -0.1138  0.2428
 6736SOL    HW228987   0.232   0.044   4.330 -0.2996  2.3078 -0.3194
 6737SOL     OW28988   5.544   0.883   6.103 -0.2019  0.4145  0.2384
 6737SOL    HW128989   5.605   0.910   6.172  0.6343  2.0453 -1.0907
 6737SOL    HW228990   5.551   0.788   6.101  1.4111  0.4848  0.9274
 6738SOL     OW28991   7.013   1.418  12.611 -0.1627  0.0067  0.2929
 6738SOL    HW128992   7.054   1.360  12.547  0.7867 -1.1453  1.8793
 6738SOL    HW228993   7.084   1.443  12.671 -0.8062  1.8709  0.3553
 6739SOL     OW28994   0.274   0.886   9.646 -1.3271 -0.1986 -0.0685
 6739SOL    HW128995   0.192   0.863   9.601 -1.6962  0.7646  0.0985
 6739SOL    HW228996   0.279   0.823   9.719 -1.9117 -0.2693 -0.0829
 6740SOL     OW28997   1.994   0.587   2.429  0.1020 -0.7109 -0.0771
 6740SOL    HW128998   2.058   0.561   2.496  1.8817 -2.2816 -2.2305
 6740SOL    HW228999   1.996   0.683   2.430  0.3461 -0.6976  1.8094
 6741SOL     OW29000   3.732   1.639   4.114  0.6125  0.0320  0.5837
 6741SOL    HW129001   3.651   1.598   4.143  0.8647  0.6759  2.3259
 6741SOL    HW229002   3.762   1.585   4.041 -1.1781 -0.4248  0.1333
 6742SOL     OW29003   6.295   6.825  12.372 -0.4520 -0.2929  0.2153
 6742SOL    HW129004   6.208   6.793  12.397 -0.9583  1.6713  1.2364
 6742SOL    HW229005   6.277   6.908  12.328  0.8991 -0.0197  0.1560
 6743SOL     OW29006   4.761   0.248   2.292 -0.4552 -0.1970  0.3507
 6743SOL    HW129007   4.698   0.177   2.276 -1.0863  0.5503 -0.5495
 6743SOL    HW229008   4.844   0.212   2.263 -0.6743 -0.7450  0.3730
 6744SOL     OW29009   2.961   7.576   8.479 -0.0412  0.1115 -0.5923
 6744SOL    HW129010   3.050   7.542   8.485 -0.5722 -1.1578  0.8257
 6744SOL    HW229011   2.923   7.560   8.566 -1.8389  0.0557 -1.3335
 6745SOL     OW29012   0.961   0.737  11.160  0.4947  0.5278 -0.1387
 6745SOL    HW129013   0.920   0.726  11.246 -0.7382  1.2801 -0.6006
 6745SOL    HW229014   1.030   0.801  11.174  0.6860  0.2035  0.4105
 6746SOL     OW29015  11.470   2.643  10.842 -0.2064  0.2926 -0.1163
 6746SOL    HW129016  11.551   2.694  10.847 -0.1027 -0.0018  2.8843
 6746SOL    HW229017  11.414   2.680  10.910 -2.3371 -0.0165 -1.6077
 6747SOL     OW29018   0.657   5.902   1.316 -0.0342  0.3831 -0.2747
 6747SOL    HW129019   0.641   5.996   1.306  1.4510  0.7623  0.6445
 6747SOL    HW229020   0.634   5.865   1.231 -1.3951  1.4597 -0.3984
 6748SOL     OW29021   7.250   6.332   4.729  0.1127  0.3146  0.4517
 6748SOL    HW129022   7.176   6.326   4.668  0.6812  0.5242 -0.2787
 6748SOL    HW229023   7.327   6.334   4.672  0.7969 -1.5871  1.2348
 6749SOL     OW29024   2.883   6.925   9.713  0.1121  0.3503  0.1006
 6749SOL    HW129025   2.814   6.962   9.658  0.5177 -1.1481 -1.5452
 6749SOL    HW229026   2.947   6.995   9.722 -0.7389  1.1460  0.0146
 6750SOL     OW29027   9.436   5.330   0.161 -0.4833  0.1888  0.3461
 6750SOL    HW129028   9.472   5.372   0.083 -1.5706  0.0106 -0.2690
 6750SOL    HW229029   9.372   5.393   0.194 -3.6533 -1.6817 -1.7416
 6751SOL     OW29030   4.479  10.182   9.740  0.3254  0.1435  0.3950
 6751SOL    HW129031   4.559  10.232   9.751  1.9755 -1.5442 -2.5465
 6751SOL    HW229032   4.474  10.167   9.645 -2.8780 -0.8197  0.6033
 6752SOL     OW29033   4.985   8.437   8.542 -0.4348 -0.2236 -0.4978
 6752SOL    HW129034   4.968   8.455   8.450 -0.9790 -0.2842 -0.4147
 6752SOL    HW229035   5.002   8.523   8.581 -1.4096 -0.0486 -0.4223
 6753SOL     OW29036  11.625  10.514  10.715  0.2323  0.1538  0.4216
 6753SOL    HW129037  11.698  10.539  10.659  0.7639  0.7651  1.3500
 6753SOL    HW229038  11.548  10.553  10.674  0.4636 -0.2434 -0.4046
 6754SOL     OW29039   0.995   6.381   7.024 -0.4080 -0.0235  0.6648
 6754SOL    HW129040   1.010   6.301   7.076 -3.0194 -0.2462  1.2169
 6754SOL    HW229041   1.051   6.447   7.065 -1.6792 -0.4365  3.3095
 6755SOL     OW29042   6.292   4.591   6.717 -0.1143 -0.0785 -0.2373
 6755SOL    HW129043   6.291   4.675   6.763 -0.8773  0.7384 -1.6732
 6755SOL    HW229044   6.384   4.568   6.709  0.1314  0.8991 -0.2871
 6756SOL     OW29045   1.816   8.324   1.193  0.0585 -0.0533  0.0062
 6756SOL    HW129046   1.795   8.283   1.277 -0.9377  1.2250  0.4100
 6756SOL    HW229047   1.862   8.405   1.217  0.1165  0.1275 -0.6987
 6757SOL     OW29048   3.097  12.286  12.114 -0.1916  0.8187  0.0587
 6757SOL    HW129049   3.013  12.300  12.158  0.5259  0.8312  1.4986
 6757SOL    HW229050   3.155  12.353  12.152  0.7056  0.2184 -0.2146
 6758SOL     OW29051   1.000   5.176   2.616 -0.3715  0.6549  0.7626
 6758SOL    HW129052   0.927   5.133   2.571 -0.8753  1.0123  1.2286
 6758SOL    HW229053   1.017   5.121   2.692  1.9054 -1.1715 -0.9250
 6759SOL     OW29054  11.711   9.263   2.460  0.1046 -0.0440  1.3007
 6759SOL    HW129055  11.791   9.291   2.504  0.0272 -0.8545  1.9934
 6759SOL    HW229056  11.728   9.171   2.437  0.1959  0.3902 -0.5058
 6760SOL     OW29057   2.802  11.175   2.382 -0.1555  0.3771 -0.7411
 6760SOL    HW129058   2.880  11.165   2.328  0.1194  0.3497 -0.3437
 6760SOL    HW229059   2.734  11.125   2.335  0.6638 -1.6659  0.1167
 6761SOL     OW29060   9.979   2.402  10.945 -0.0915  0.4446  0.7103
 6761SOL    HW129061  10.046   2.460  10.980  0.4605 -1.2161  2.5833
 6761SOL    HW229062  10.026   2.342  10.888 -0.3704  0.7378  0.1701
 6762SOL     OW29063   7.363   4.240   1.632  0.0538  0.2983  0.3953
 6762SOL    HW129064   7.357   4.335   1.624  0.3361  0.1832 -1.5543
 6762SOL    HW229065   7.435   4.215   1.575  0.8569 -0.9909  1.8959
 6763SOL     OW29066   6.016   2.540   9.451  1.1460  0.6145 -0.2993
 6763SOL    HW129067   5.940   2.597   9.436  0.3894 -0.3613 -0.2848
 6763SOL    HW229068   6.074   2.591   9.507  0.7415  1.5753 -0.7294
 6764SOL     OW29069   0.661  10.099   3.792 -1.0210 -0.0348  0.4262
 6764SOL    HW129070   0.640  10.116   3.884  0.7916  0.3024  0.8150
 6764SOL    HW229071   0.709  10.016   3.794 -0.3554  0.3309 -0.1149
 6765SOL     OW29072   2.159   5.060   0.423 -0.5460  0.5387 -0.2574
 6765SOL    HW129073   2.132   4.980   0.378 -0.6534  1.0361 -1.0962
 6765SOL    HW229074   2.251   5.073   0.397 -0.4909  0.6194 -0.0250
 6766SOL     OW29075   3.408   8.290   8.344 -0.0129 -0.1192 -0.1565
 6766SOL    HW129076   3.341   8.255   8.403  0.0652 -0.4486 -0.2587
 6766SOL    HW229077   3.360   8.320   8.267 -0.1614  0.6968  0.2382
 6767SOL     OW29078   0.863   2.596  11.771  0.2425 -0.3856 -0.2921
 6767SOL    HW129079   0.956   2.588  11.794  0.3260 -1.8858 -1.0056
 6767SOL    HW229080   0.849   2.690  11.761  1.0378  0.0771  2.2767
 6768SOL     OW29081   3.234   1.020   3.229  0.0416  0.2949  0.2361
 6768SOL    HW129082   3.254   1.073   3.152  0.6483 -1.2351 -0.7116
 6768SOL    HW229083   3.138   1.009   3.227  0.1495 -0.6083 -0.9372
 6769SOL     OW29084   2.555   2.991  10.638  0.2165  0.3618 -0.0217
 6769SOL    HW129085   2.500   3.011  10.563  0.7198  0.7904 -0.2792
 6769SOL    HW229086   2.621   2.930  10.605 -0.7601 -1.0659  0.5463
 6770SOL     OW29087   8.049   8.057   4.074 -0.6407  0.8385 -0.4286
 6770SOL    HW129088   7.987   7.995   4.115 -1.2916  1.2316 -0.7992
 6770SOL    HW229089   8.109   8.001   4.025  0.8129  0.2543  1.8331
 6771SOL     OW29090   5.176   0.786   3.195 -0.1253  0.0922 -0.3077
 6771SOL    HW129091   5.223   0.711   3.159 -0.4694 -0.3076  0.0680
 6771SOL    HW229092   5.214   0.861   3.150 -0.0592 -0.3364 -0.9851
 6772SOL     OW29093   1.842  10.296   9.631 -0.4741 -0.2486 -0.1961
 6772SOL    HW129094   1.926  10.301   9.677 -0.5359 -0.5982 -0.0446
 6772SOL    HW229095   1.791  10.232   9.681 -1.4584  1.2031  0.7368
 6773SOL     OW29096   7.539   1.073   1.579 -0.1659 -0.2668 -0.5170
 6773SOL    HW129097   7.538   1.107   1.490  0.1107 -0.6634 -0.6772
 6773SOL    HW229098   7.454   1.030   1.590 -0.4823  0.3893 -0.3427
 6774SOL     OW29099   4.742   7.563   0.365 -0.1935 -0.0138 -0.1301
 6774SOL    HW129100   4.795   7.509   0.424  0.2077  0.8794  0.3426
 6774SOL    HW229101   4.780   7.546   0.278  1.4296  1.1801  0.2831
 6775SOL     OW29102   2.839   4.498   8.742 -0.0257 -0.3253 -0.2074
 6775SOL    HW129103   2.770   4.495   8.675 -0.1549  2.1965 -0.2855
 6775SOL    HW229104   2.920   4.481   8.694 -0.3246 -0.6731 -0.5986
 6776SOL     OW29105  11.901  10.708   5.511 -0.4172 -0.1071  0.0642
 6776SOL    HW129106  11.938  10.625   5.481  0.5624  0.6171 -0.8523
 6776SOL    HW229107  11.840  10.733   5.442  0.5251  0.7046 -0.5240
 6777SOL     OW29108   9.767  11.714   2.459 -0.1916  0.5646  0.3324
 6777SOL    HW129109   9.852  11.674   2.473 -1.1420 -2.2364 -1.1139
 6777SOL    HW229110   9.731  11.668   2.383 -3.9353 -0.0762  2.2508
 6778SOL     OW29111   5.957   8.845  11.768 -0.0987 -0.0354  0.2259
 6778SOL    HW129112   5.886   8.889  11.815 -1.4833  0.1782 -1.9235
 6778SOL    HW229113   6.036   8.869  11.815 -1.1856  1.9254  1.1562
 6779SOL     OW29114   9.002   7.077   6.089  0.4538  0.0171  0.2870
 6779SOL    HW129115   8.970   7.047   6.174 -1.3030 -0.4226 -0.4865
 6779SOL    HW229116   8.984   7.171   6.088 -0.4360 -0.1453  0.0450
 6780SOL     OW29117   7.550   4.023   9.399 -0.0756  0.3047 -0.0432
 6780SOL    HW129118   7.538   4.004   9.306  1.0892 -0.3661 -0.0891
 6780SOL    HW229119   7.562   4.117   9.403  0.0377  0.3178 -0.5983
 6781SOL     OW29120   7.002   4.198  10.792 -0.8602 -0.4236 -0.1770
 6781SOL    HW129121   7.020   4.286  10.759  0.4882 -0.0356  1.4559
 6781SOL    HW229122   6.935   4.211  10.859 -0.6421 -0.6336  0.0832
 6782SOL     OW29123   1.183  12.109   0.303  0.2219  0.2057 -0.5549
 6782SOL    HW129124   1.156  12.161   0.227 -1.7352 -0.1352 -0.1497
 6782SOL    HW229125   1.102  12.066   0.332  0.3411  2.0570  3.1128
 6783SOL     OW29126   8.483   0.623   2.683 -0.2375  0.2042  0.0918
 6783SOL    HW129127   8.531   0.699   2.716  1.0983 -1.2717  1.7478
 6783SOL    HW229128   8.405   0.617   2.739 -0.7542  0.7810 -0.5507
 6784SOL     OW29129   8.596   3.843   1.956 -0.2078 -0.4000 -0.9382
 6784SOL    HW129130   8.661   3.780   1.986 -1.1911 -2.8515 -3.4561
 6784SOL    HW229131   8.521   3.790   1.928 -1.1122  1.8242 -3.2526
 6785SOL     OW29132   5.629   8.536   3.534 -0.7654 -0.4249  0.2298
 6785SOL    HW129133   5.723   8.535   3.515 -0.9108 -0.7134 -0.4733
 6785SOL    HW229134   5.625   8.531   3.630 -0.0450  0.5498  0.3263
 6786SOL     OW29135   5.963   1.191   1.992 -0.3090  0.0374  0.2685
 6786SOL    HW129136   5.893   1.256   1.992 -0.6171 -0.1389 -2.8559
 6786SOL    HW229137   5.975   1.168   1.900  3.8214 -0.0059  0.6071
 6787SOL     OW29138   8.238   7.106   3.610  0.5809  0.1605 -0.0520
 6787SOL    HW129139   8.296   7.058   3.550  0.1284 -1.4520  0.7339
 6787SOL    HW229140   8.150   7.089   3.577  0.4201  0.6751  0.0983
 6788SOL     OW29141   2.558   9.310   5.093 -0.0603  0.0736 -0.4973
 6788SOL    HW129142   2.602   9.315   5.178  0.9916 -0.2344 -1.0110
 6788SOL    HW229143   2.598   9.379   5.040  0.0667 -0.4424 -1.0853
 6789SOL     OW29144   3.301   5.854   0.228  0.3780  0.0203 -0.4329
 6789SOL    HW129145   3.206   5.859   0.237  0.3322 -0.2188 -0.7805
 6789SOL    HW229146   3.324   5.930   0.174  0.5888  1.1164  1.1276
 6790SOL     OW29147   7.400   2.970   6.078  0.2854  0.3484 -0.1227
 6790SOL    HW129148   7.418   2.878   6.060 -1.0373  0.7009 -4.3286
 6790SOL    HW229149   7.485   3.009   6.097  1.0067 -1.4857  0.6061
 6791SOL     OW29150   3.428   0.350   5.515 -0.0361  0.5720  0.5533
 6791SOL    HW129151   3.513   0.308   5.502 -0.1819  0.6172 -0.5952
 6791SOL    HW229152   3.380   0.333   5.435 -0.8879  1.0993  0.9368
 6792SOL     OW29153   6.124  10.277   8.457 -0.3364 -0.2590  0.0674
 6792SOL    HW129154   6.070  10.353   8.476 -1.5112 -1.0335 -0.1082
 6792SOL    HW229155   6.196  10.283   8.520  0.4484  1.8047 -0.9402
 6793SOL     OW29156   6.382  11.965   4.558  0.0161  0.2255  0.1018
 6793SOL    HW129157   6.379  12.035   4.624  1.0305  1.0494 -0.6925
 6793SOL    HW229158   6.369  11.884   4.608  0.3944  0.8551  1.2564
 6794SOL     OW29159   9.914   6.779  10.879  0.0538 -0.1148  0.0417
 6794SOL    HW129160   9.909   6.817  10.966  1.5719  2.5751 -0.9168
 6794SOL    HW229161   9.898   6.852  10.819 -2.8009 -2.1904 -2.0353
 6795SOL     OW29162   1.869   8.212   3.743 -0.1322 -0.2239  0.1345
 6795SOL    HW129163   1.836   8.148   3.680 -0.5948 -0.1861  0.3292
 6795SOL    HW229164   1.915   8.277   3.690  2.1554 -1.7583  0.0940
 6796SOL     OW29165   0.729   9.356   2.528  0.0096 -0.4453  0.0907
 6796SOL    HW129166   0.746   9.262   2.534  0.5270 -0.2979  1.3584
 6796SOL    HW229167   0.670   9.375   2.601 -0.3132  0.1715 -0.3218
 6797SOL     OW29168  10.321   1.331   5.136 -0.0976  0.3770  0.6041
 6797SOL    HW129169  10.414   1.317   5.116 -0.2950  1.6698 -1.5958
 6797SOL    HW229170  10.319   1.350   5.230  1.7698 -0.3650  0.8298
 6798SOL     OW29171   2.670   3.015  11.873  0.1182 -0.0507 -0.4089
 6798SOL    HW129172   2.627   2.934  11.846 -0.1950 -0.6032  1.6037
 6798SOL    HW229173   2.604   3.083  11.858  0.1825 -0.2125 -1.5565
 6799SOL     OW29174   8.729   2.320   3.947  0.0837 -0.4961  0.1929
 6799SOL    HW129175   8.773   2.254   4.000  0.1212  0.5364  1.4969
 6799SOL    HW229176   8.799   2.363   3.898  0.0820 -1.2583 -0.5015
 6800SOL     OW29177   5.833   4.450   8.359 -0.2978 -0.3574 -0.1795
 6800SOL    HW129178   5.847   4.459   8.454 -0.3221  1.2909 -0.2958
 6800SOL    HW229179   5.764   4.385   8.351 -1.9260  1.0986  1.0826
 6801SOL     OW29180   2.931  12.242  12.567  0.2141  0.1234 -0.5264
 6801SOL    HW129181   2.902  12.185  12.496 -0.2969 -2.0509  1.2897
 6801SOL    HW229182   3.026  12.232  12.569  0.1495 -0.5332 -0.3740
 6802SOL     OW29183   0.054   0.087   8.426 -0.2549  0.4691  0.3318
 6802SOL    HW129184   0.102   0.013   8.462  0.2300  1.2408  1.2860
 6802SOL    HW229185   0.096   0.104   8.341 -0.2831 -0.2486  0.1654
 6803SOL     OW29186   5.715   3.743   5.547 -0.0761  0.3175 -0.2698
 6803SOL    HW129187   5.729   3.836   5.565  0.9086  0.8796 -3.4344
 6803SOL    HW229188   5.802   3.704   5.549 -0.1552  0.0302 -1.5211
 6804SOL     OW29189   5.911   3.335   2.065  0.1917 -0.2588 -0.0177
 6804SOL    HW129190   5.984   3.386   2.031 -0.2593  1.2380  1.1486
 6804SOL    HW229191   5.874   3.390   2.134 -0.8686 -1.8026  0.6935
 6805SOL     OW29192   7.658   1.298  12.243  0.0428  0.3020 -0.4054
 6805SOL    HW129193   7.727   1.273  12.304  0.3794  1.3326 -0.3474
 6805SOL    HW229194   7.703   1.312  12.160 -0.2684 -0.1072 -0.6471
 6806SOL     OW29195   3.887   7.920   7.914  0.1288 -0.3668  0.5055
 6806SOL    HW129196   3.892   7.829   7.944  2.2849 -0.0950  1.1244
 6806SOL    HW229197   3.849   7.967   7.988 -3.1162 -0.9714 -0.5710
 6807SOL     OW29198   5.262   8.925  12.023 -0.3135 -0.4750 -0.4610
 6807SOL    HW129199   5.176   8.928  12.064 -0.0686  1.2125  0.0085
 6807SOL    HW229200   5.292   9.016  12.024  1.7647 -1.1168 -0.0053
 6808SOL     OW29201  12.247  11.237   0.585  0.1632 -0.4289 -0.5435
 6808SOL    HW129202  12.282  11.200   0.666 -0.0558  3.1228  1.3662
 6808SOL    HW229203  12.156  11.258   0.606  0.5955  2.2416 -0.9629
 6809SOL     OW29204   6.465   8.969   7.107 -0.6525  0.2018  0.4265
 6809SOL    HW129205   6.396   9.016   7.153 -0.8029  1.3103 -0.8619
 6809SOL    HW229206   6.531   9.035   7.089 -1.0783  0.0906 -1.8477
 6810SOL     OW29207  10.747   9.334   7.079 -0.0403  0.3443 -0.1886
 6810SOL    HW129208  10.785   9.415   7.044 -0.3846  0.6397  0.1187
 6810SOL    HW229209  10.670   9.362   7.127 -0.7462 -0.2584 -0.9261
 6811SOL     OW29210   2.961   9.607   4.558 -0.1313  0.3788 -0.5627
 6811SOL    HW129211   2.888   9.634   4.613 -0.2029 -2.1618  0.7186
 6811SOL    HW229212   3.038   9.617   4.613 -0.0202 -0.7974 -0.4980
 6812SOL     OW29213  10.444  11.214   9.657  0.0846 -0.0154 -0.5173
 6812SOL    HW129214  10.457  11.285   9.720 -1.0575  1.1659 -1.5516
 6812SOL    HW229215  10.532  11.178   9.643  0.2258 -1.3135  2.7780
 6813SOL     OW29216   1.502   5.689  10.087 -0.4857  0.5961  0.2085
 6813SOL    HW129217   1.523   5.779  10.064 -0.3383  0.2745 -1.0049
 6813SOL    HW229218   1.548   5.636  10.021 -0.0315 -0.3996  1.2791
 6814SOL     OW29219   1.116  11.074   7.425  0.1961  0.3437  0.6481
 6814SOL    HW129220   1.148  11.084   7.336  0.5119  0.2454  0.7491
 6814SOL    HW229221   1.195  11.064   7.478 -0.0225 -0.3612  0.8447
 6815SOL     OW29222   8.050   0.667   4.667  0.3513  0.3676  0.0828
 6815SOL    HW129223   8.085   0.674   4.755 -0.8510  1.9342  0.4841
 6815SOL    HW229224   8.121   0.630   4.615  1.8848  1.5797  1.2368
 6816SOL     OW29225  12.441  11.707   5.730  0.4802 -0.0481 -0.5986
 6816SOL    HW129226  12.379  11.693   5.658  0.6804 -1.8455 -0.4541
 6816SOL    HW229227  12.432  11.800   5.751 -0.7898  0.1430 -1.8331
 6817SOL     OW29228  10.606  10.522   2.188 -0.0915  1.1112  0.2190
 6817SOL    HW129229  10.517  10.489   2.187  0.2943  0.0188  0.9202
 6817SOL    HW229230  10.607  10.587   2.259 -0.2670  0.9458  0.3737
 6818SOL     OW29231  11.430   4.042  11.499  0.1854  0.4977 -0.1128
 6818SOL    HW129232  11.522   4.064  11.516  0.3664  1.6164 -2.1922
 6818SOL    HW229233  11.383   4.124  11.516 -0.9675 -0.7365  3.7613
 6819SOL     OW29234   1.084   3.297   0.088 -0.3804 -0.3049 -0.2010
 6819SOL    HW129235   1.043   3.378   0.056 -1.8084 -0.8543  0.1628
 6819SOL    HW229236   1.034   3.273   0.166 -0.5394 -1.9885 -0.7708
 6820SOL     OW29237   1.391   5.688   6.845  0.3220 -0.4666 -0.2172
 6820SOL    HW129238   1.418   5.779   6.836  0.0468 -0.1161  1.8869
 6820SOL    HW229239   1.299   5.687   6.817 -0.0716  0.2030  0.9893
 6821SOL     OW29240   0.626   5.059   5.477 -0.2111  0.1736  0.8669
 6821SOL    HW129241   0.603   5.067   5.385  1.1452  0.5717  0.5451
 6821SOL    HW229242   0.569   5.121   5.522 -2.3871 -1.4884  0.6107
 6822SOL     OW29243   9.347   8.480   9.781 -0.4054  0.1756 -0.4324
 6822SOL    HW129244   9.425   8.478   9.837 -1.9490  1.1991  1.9034
 6822SOL    HW229245   9.344   8.570   9.748  0.2223 -0.2903 -1.8605
 6823SOL     OW29246   9.760   4.546   0.875  0.0303  0.1868 -0.2703
 6823SOL    HW129247   9.784   4.558   0.783 -0.8986 -1.3999 -0.7667
 6823SOL    HW229248   9.783   4.456   0.894 -0.1427  0.3840  0.9501
 6824SOL     OW29249   0.962   0.460   7.891 -0.2977 -0.1144  0.6873
 6824SOL    HW129250   0.917   0.410   7.822  0.9850  0.2789 -0.4879
 6824SOL    HW229251   0.893   0.481   7.954 -1.3170 -1.3671  0.0504
 6825SOL     OW29252   7.648  10.154   5.024  0.3092 -0.3389  0.0947
 6825SOL    HW129253   7.697  10.237   5.017  0.4992 -0.2875  1.6406
 6825SOL    HW229254   7.702  10.091   4.977  1.7825 -0.2185  1.5357
 6826SOL     OW29255   3.176   9.005   3.589  0.6945  0.1207  0.1935
 6826SOL    HW129256   3.114   8.932   3.588  0.0597  0.5650  2.2034
 6826SOL    HW229257   3.135   9.073   3.535  1.4199 -1.0245 -1.9372
 6827SOL     OW29258   7.000  12.541   5.181  0.8979 -0.1819 -0.4693
 6827SOL    HW129259   6.959  12.462   5.216  1.2054  0.5484  1.6897
 6827SOL    HW229260   7.083  12.548   5.227  0.3539  1.9996  0.3139
 6828SOL     OW29261   5.858   3.180   5.310  0.2030  0.4498  0.3904
 6828SOL    HW129262   5.905   3.168   5.392  0.4114  4.6595  1.0926
 6828SOL    HW229263   5.777   3.225   5.336  0.1189  1.5726 -1.6374
 6829SOL     OW29264   3.714   4.016  12.232 -0.2686 -0.1457  0.2649
 6829SOL    HW129265   3.745   4.045  12.318  0.5103 -3.2529  1.1284
 6829SOL    HW229266   3.619   4.009  12.243 -0.6309  2.7254 -0.2705
 6830SOL     OW29267   1.535   7.390   8.757 -0.5286  0.3899  0.3266
 6830SOL    HW129268   1.600   7.326   8.729  0.9263  2.6940 -2.1077
 6830SOL    HW229269   1.460   7.376   8.698 -0.3639  0.6557  0.0506
 6831SOL     OW29270   5.135   3.054   4.985 -0.0069  0.0055  0.1029
 6831SOL    HW129271   5.171   3.142   4.971 -1.9141  0.8747  0.3278
 6831SOL    HW229272   5.211   2.996   4.985  1.3630  1.7357  0.6179
 6832SOL     OW29273   9.552   5.607   9.110  0.2224 -0.1012  0.5308
 6832SOL    HW129274   9.470   5.562   9.088  0.4119 -0.5638  0.7435
 6832SOL    HW229275   9.592   5.627   9.025  0.0743 -0.2306  0.4301
 6833SOL     OW29276   9.733   0.577   9.401 -0.1094  0.1552  0.0236
 6833SOL    HW129277   9.702   0.558   9.489  0.1322 -0.6959 -0.0721
 6833SOL    HW229278   9.727   0.673   9.394 -1.7858  0.1089  0.3406
 6834SOL     OW29279  12.127   4.415   0.865  0.0312  0.2204 -0.1555
 6834SOL    HW129280  12.134   4.436   0.958 -0.5612  1.5072 -0.3704
 6834SOL    HW229281  12.205   4.363   0.846  2.1586  2.9591  0.3314
 6835SOL     OW29282   7.298  12.517  12.195  0.1314  0.1582 -0.0113
 6835SOL    HW129283   7.224  12.459  12.176 -0.2636  1.1894 -1.8736
 6835SOL    HW229284   7.288  12.539  12.288 -1.6682 -0.0803 -0.1114
 6836SOL     OW29285   3.514   2.622  11.448  0.5557  0.1603 -0.5833
 6836SOL    HW129286   3.568   2.608  11.525 -0.7973  0.0614  0.3905
 6836SOL    HW229287   3.575   2.624  11.375  2.1267  2.2154  0.6730
 6837SOL     OW29288   2.003   9.644  10.564  0.5144 -0.2919  0.4320
 6837SOL    HW129289   1.993   9.711  10.496  0.6797  0.4041  1.0725
 6837SOL    HW229290   2.088   9.603  10.545  1.0286  0.5759  0.7817
 6838SOL     OW29291   1.405  10.188   2.137 -0.1236 -0.4109  0.3863
 6838SOL    HW129292   1.380  10.113   2.084 -1.6415  0.6181 -0.4145
 6838SOL    HW229293   1.490  10.216   2.102 -0.6067 -0.3952 -0.7881
 6839SOL     OW29294  12.166  12.049   6.969  0.3684  0.1446 -0.2635
 6839SOL    HW129295  12.215  11.982   7.016 -0.3912 -0.5201 -0.3862
 6839SOL    HW229296  12.113  12.091   7.037  1.2209  0.9894 -0.0984
 6840SOL     OW29297   9.690   2.953   0.246  1.0619 -0.2265 -0.5588
 6840SOL    HW129298   9.706   3.047   0.247 -2.9063  0.6447 -0.5038
 6840SOL    HW229299   9.710   2.924   0.335 -0.0595  1.1431  0.1805
 6841SOL     OW29300   1.700   8.781  11.518 -0.1922 -0.3255 -0.1759
 6841SOL    HW129301   1.637   8.752  11.453  1.2133 -0.8527 -1.3477
 6841SOL    HW229302   1.652   8.777  11.601 -1.6803 -0.6984 -1.0224
 6842SOL     OW29303   4.072   5.696   8.033 -0.2935  0.1944 -0.0676
 6842SOL    HW129304   3.986   5.694   8.075 -0.3955  2.2590 -0.0999
 6842SOL    HW229305   4.060   5.642   7.954 -0.9078 -1.3242  1.0059
 6843SOL     OW29306   1.720   7.974   9.216  0.3294  0.1074  0.3077
 6843SOL    HW129307   1.633   7.963   9.254  0.0479  1.7668  0.2015
 6843SOL    HW229308   1.715   7.930   9.131 -0.3437  0.0626  0.3690
 6844SOL     OW29309   5.576   7.396   4.196 -0.5712  0.2684 -0.0665
 6844SOL    HW129310   5.657   7.425   4.238  0.1325  0.7678 -1.6915
 6844SOL    HW229311   5.507   7.421   4.258  0.2480  2.7497 -0.0357
 6845SOL     OW29312   1.014   2.622   0.580 -0.1687 -0.4962 -0.4090
 6845SOL    HW129313   1.050   2.618   0.491 -0.6729 -2.0072 -0.5841
 6845SOL    HW229314   0.919   2.624   0.567 -0.2235  0.3328  0.0885
 6846SOL     OW29315  10.651   2.600   9.834 -0.1079 -0.0911  0.2108
 6846SOL    HW129316  10.629   2.584   9.743 -3.7275 -0.5827  1.0235
 6846SOL    HW229317  10.628   2.692   9.849 -1.6781 -0.5940  1.1015
 6847SOL     OW29318   7.895   5.514   4.044 -0.4434  0.3655  0.2040
 6847SOL    HW129319   7.914   5.547   4.132  2.2535  0.7103 -0.4397
 6847SOL    HW229320   7.893   5.419   4.054  2.3906  0.2475  0.2773
 6848SOL     OW29321   0.140   6.568   5.594  0.2328 -0.6200  0.0032
 6848SOL    HW129322   0.185   6.638   5.546 -1.6021  0.7547  0.1827
 6848SOL    HW229323   0.061   6.609   5.628 -1.3461 -2.9871 -0.5554
 6849SOL     OW29324   6.163   3.583   0.740  0.2249 -0.0553 -0.9025
 6849SOL    HW129325   6.142   3.670   0.706  1.5700  0.8952  0.5032
 6849SOL    HW229326   6.255   3.570   0.717  0.4505 -0.4545  0.1563
 6850SOL     OW29327   4.389   3.975  10.058 -0.7156 -0.2875 -0.1725
 6850SOL    HW129328   4.406   4.068  10.047 -1.7723 -0.0658 -0.0856
 6850SOL    HW229329   4.304   3.971  10.102 -0.5736 -1.2883  0.0485
 6851SOL     OW29330   9.450   2.434   2.213 -0.8407 -0.1463  0.1711
 6851SOL    HW129331   9.524   2.410   2.269  0.1589  0.3559 -0.8707
 6851SOL    HW229332   9.409   2.351   2.189  0.3053 -0.5762 -0.4114
 6852SOL     OW29333   7.786   0.923   2.098 -0.1355 -0.3942  0.2203
 6852SOL    HW129334   7.769   0.891   2.009  0.8337  0.1874 -0.1888
 6852SOL    HW229335   7.880   0.908   2.111  0.2926  1.8686  0.1444
 6853SOL     OW29336   3.021   6.499   4.534 -0.2724  0.3914  0.3452
 6853SOL    HW129337   3.015   6.405   4.556 -2.1773  0.4622  0.3592
 6853SOL    HW229338   3.065   6.538   4.609 -0.7019 -0.3181  0.9862
 6854SOL     OW29339   8.278   6.566   9.888 -0.0435 -0.0084 -0.5545
 6854SOL    HW129340   8.236   6.514   9.819 -1.0551 -1.9018  1.3756
 6854SOL    HW229341   8.289   6.505   9.961  1.1554  1.8600  0.9288
 6855SOL     OW29342   6.696  11.812   6.731  0.0098 -0.0698 -0.0385
 6855SOL    HW129343   6.666  11.735   6.778  1.6502 -0.7563 -0.0420
 6855SOL    HW229344   6.626  11.832   6.670 -0.1919 -1.9298 -0.4672
 6856SOL     OW29345  10.674   0.774   6.826  0.8466 -0.2367 -0.3185
 6856SOL    HW129346  10.705   0.864   6.840  0.3744  0.0484 -1.0158
 6856SOL    HW229347  10.594   0.768   6.877  0.8990 -0.2764 -0.2408
 6857SOL     OW29348   2.798   2.901   9.361 -0.3026 -0.0994  0.0340
 6857SOL    HW129349   2.720   2.947   9.393 -0.5954 -1.3784  1.2336
 6857SOL    HW229350   2.871   2.943   9.406 -0.2285  1.2303 -1.2333
 6858SOL     OW29351   1.459   4.325  10.067  0.2502  0.1884  0.2586
 6858SOL    HW129352   1.449   4.351   9.975  2.4075 -0.0732 -0.1053
 6858SOL    HW229353   1.374   4.288  10.091 -0.6976  1.2631 -1.2902
 6859SOL     OW29354   1.604   6.314   9.880 -0.0088  0.3283 -0.3261
 6859SOL    HW129355   1.568   6.228   9.858  1.4700  0.1891 -2.4474
 6859SOL    HW229356   1.691   6.294   9.917  0.4846  0.9139 -1.1549
 6860SOL     OW29357   0.259   4.905  11.148 -0.2042 -0.0994 -0.1072
 6860SOL    HW129358   0.206   4.840  11.102 -0.3369 -1.3719  1.7603
 6860SOL    HW229359   0.334   4.920  11.090 -1.1705 -0.4100 -1.4715
 6861SOL     OW29360   7.050   3.214   0.289 -0.0994 -0.2759 -0.4572
 6861SOL    HW129361   6.963   3.199   0.252 -0.0257 -1.2199 -0.2728
 6861SOL    HW229362   7.103   3.142   0.256  0.6722  0.3963 -0.7174
 6862SOL     OW29363   0.848  11.048  11.204 -0.0835  0.2543 -0.3889
 6862SOL    HW129364   0.943  11.036  11.203 -0.1514 -0.3613 -1.7314
 6862SOL    HW229365   0.814  10.969  11.247  0.0243  0.7702  0.6803
 6863SOL     OW29366   1.168   1.482   0.633  0.3328  0.0752  0.8028
 6863SOL    HW129367   1.089   1.527   0.606  0.6444  0.1318 -0.0264
 6863SOL    HW229368   1.173   1.497   0.728 -2.1852 -2.3638  1.4395
 6864SOL     OW29369   9.084   8.042  12.497 -0.1745 -0.0973 -0.4984
 6864SOL    HW129370   8.989   8.033  12.505 -0.2790 -1.2073 -2.4500
 6864SOL    HW229371   9.098   8.133  12.471 -0.5330  0.5685  1.5076
 6865SOL     OW29372   2.269   3.095   9.310 -0.5855 -0.6706 -0.2776
 6865SOL    HW129373   2.191   3.056   9.350 -0.6192 -0.1441  0.1871
 6865SOL    HW229374   2.244   3.186   9.294 -0.0930 -0.5199 -0.1943
 6866SOL     OW29375   1.391   4.862   5.989 -0.1680 -0.0426 -0.1198
 6866SOL    HW129376   1.370   4.877   5.896 -1.2961 -0.7417 -0.0011
 6866SOL    HW229377   1.306   4.848   6.030  0.4225 -1.1671  0.7545
 6867SOL     OW29378   0.009   7.095  10.151 -0.0692  0.1890  0.0690
 6867SOL    HW129379   0.082   7.085  10.212 -1.9641 -1.1942  2.2905
 6867SOL    HW229380   0.022   7.024  10.088  0.9035  0.4596 -0.0594
 6868SOL     OW29381   1.272   1.143   4.507 -0.1101 -0.3643  0.0160
 6868SOL    HW129382   1.276   1.094   4.425 -0.8865 -1.4448  0.6014
 6868SOL    HW229383   1.336   1.214   4.496 -1.3943  0.5655 -2.1934
 6869SOL     OW29384   1.966   9.463   5.256 -0.0082 -0.2179 -0.5645
 6869SOL    HW129385   1.875   9.475   5.227 -0.4614 -0.2563  0.7999
 6869SOL    HW229386   1.959   9.430   5.345  1.2344 -4.6705 -1.8395
 6870SOL     OW29387   4.968   2.604  11.477  0.6290 -0.3069  0.1112
 6870SOL    HW129388   4.923   2.583  11.396  0.9099  0.5968 -0.3000
 6870SOL    HW229389   4.898   2.626  11.539  0.4630  0.8279 -0.4441
 6871SOL     OW29390   9.554   8.027   2.770  0.1003 -0.4419 -0.2420
 6871SOL    HW129391   9.597   8.093   2.716  0.8253  0.5124  1.4369
 6871SOL    HW229392   9.615   8.011   2.842 -1.4309 -0.6057  1.0672
 6872SOL     OW29393   9.990   9.483   7.528 -0.1056  0.3307 -0.6533
 6872SOL    HW129394   9.931   9.554   7.555  1.2359  1.2120  0.0750
 6872SOL    HW229395   9.934   9.406   7.525 -0.8151  0.5373  2.8062
 6873SOL     OW29396   7.608   1.371  10.471 -0.4581  0.5217  0.4135
 6873SOL    HW129397   7.671   1.442  10.470 -0.2012  0.2975 -0.7083
 6873SOL    HW229398   7.654   1.297  10.431 -0.4907 -0.4953  2.1575
 6874SOL     OW29399   0.209   8.029   2.717  0.0900 -0.1587  0.0413
 6874SOL    HW129400   0.168   8.037   2.803 -0.6651  0.7424 -0.3845
 6874SOL    HW229401   0.176   8.104   2.668  3.0880  1.2208 -0.0167
 6875SOL     OW29402   5.594   6.939   1.261 -0.1770  0.1215  0.1183
 6875SOL    HW129403   5.610   6.887   1.340  0.6028 -1.3125 -0.9450
 6875SOL    HW229404   5.672   6.993   1.252 -0.4136  0.5362  0.4957
 6876SOL     OW29405   6.805   5.377   6.714 -1.1942 -0.1971  0.4113
 6876SOL    HW129406   6.727   5.332   6.682  0.1489 -2.7711  0.4041
 6876SOL    HW229407   6.806   5.359   6.808  0.0531 -1.4880  0.2046
 6877SOL     OW29408   0.317   0.257   6.612  0.3912 -0.8068  0.2714
 6877SOL    HW129409   0.355   0.177   6.650 -1.4638 -1.1288  1.5512
 6877SOL    HW229410   0.241   0.226   6.562  0.6215  0.0200 -0.6280
 6878SOL     OW29411  10.429   6.420   4.865 -0.4762  0.1294  0.5309
 6878SOL    HW129412  10.442   6.348   4.803 -1.5153 -0.0594  0.5025
 6878SOL    HW229413  10.459   6.386   4.949  1.1840  0.4769  0.1055
 6879SOL     OW29414   6.926   1.346   0.316  0.4698 -0.0367 -0.3828
 6879SOL    HW129415   6.969   1.389   0.242  1.4302 -1.6028 -0.7622
 6879SOL    HW229416   6.834   1.342   0.291  0.9048 -1.3441 -1.9274
 6880SOL     OW29417   8.093  12.511  10.983  0.0399  0.1587 -0.5495
 6880SOL    HW129418   8.031  12.583  10.973 -1.1286 -0.9100 -1.4792
 6880SOL    HW229419   8.176  12.545  10.950  0.3629  2.0437  1.9112
 6881SOL     OW29420   0.663   3.387   9.379 -0.4970  0.2974  0.1298
 6881SOL    HW129421   0.623   3.409   9.464  1.3001  0.7004  0.9162
 6881SOL    HW229422   0.703   3.301   9.394 -3.1581 -1.3725 -1.4288
 6882SOL     OW29423   9.959  12.008   0.201 -0.2706  0.2323 -0.2418
 6882SOL    HW129424   9.948  12.049   0.116 -1.1148  0.7737  0.1139
 6882SOL    HW229425  10.042  12.042   0.234  0.8701 -1.1866 -1.4841
 6883SOL     OW29426   4.737   7.708   5.928  0.1913  0.3978 -0.0956
 6883SOL    HW129427   4.704   7.666   6.008 -0.7070  0.6883 -0.3055
 6883SOL    HW229428   4.825   7.672   5.917  0.2971  0.2819  0.9730
 6884SOL     OW29429   3.588   7.746   2.376  0.4648 -0.5532  0.9338
 6884SOL    HW129430   3.587   7.687   2.301 -0.6359  1.0133 -0.3533
 6884SOL    HW229431   3.503   7.732   2.419 -0.0804  0.4964  0.2460
 6885SOL     OW29432   2.266  10.151  12.169 -0.2109 -0.1009  0.5086
 6885SOL    HW129433   2.339  10.183  12.116  0.0005  0.9616  1.3998
 6885SOL    HW229434   2.297  10.158  12.259 -1.6535  1.0336  0.9521
 6886SOL     OW29435   9.969   2.661  10.320 -0.0599  0.3013  0.0311
 6886SOL    HW129436   9.990   2.709  10.240 -1.2113  0.1812 -0.3510
 6886SOL    HW229437   9.890   2.701  10.354  0.6654  0.6642  1.3979
 6887SOL     OW29438   2.553   3.068   9.628 -0.2450 -0.6454 -0.3468
 6887SOL    HW129439   2.530   2.976   9.617  0.2716 -0.6818 -1.1836
 6887SOL    HW229440   2.585   3.096   9.542  0.0522  0.1879  0.0190
 6888SOL     OW29441  11.418   1.823  10.696  0.5610  0.0754  0.4501
 6888SOL    HW129442  11.413   1.729  10.715 -1.1488  0.0884  0.2316
 6888SOL    HW229443  11.480   1.857  10.760  0.2780 -1.0103  1.3295
 6889SOL     OW29444   1.439  11.698  12.271 -0.5744 -0.0916 -0.4662
 6889SOL    HW129445   1.468  11.710  12.361 -1.7192  0.8661 -0.2018
 6889SOL    HW229446   1.465  11.608  12.249 -0.5851 -0.4537  0.9284
 6890SOL     OW29447  12.251   2.478   6.845  0.5199 -0.4577 -0.0408
 6890SOL    HW129448  12.330   2.496   6.896  0.5195  0.6165 -0.4022
 6890SOL    HW229449  12.179   2.494   6.906  0.5132  1.0089 -0.3838
 6891SOL     OW29450  11.284   9.110   1.031 -0.1673  0.6812  0.4923
 6891SOL    HW129451  11.282   9.042   1.098 -0.7626 -0.7206 -0.8820
 6891SOL    HW229452  11.214   9.170   1.057 -1.0734 -0.3826  0.6143
 6892SOL     OW29453  11.474   5.799   8.931  0.3870 -0.3685  0.0951
 6892SOL    HW129454  11.551   5.767   8.883  1.5515  0.1124  1.5647
 6892SOL    HW229455  11.471   5.892   8.912  1.4895  0.0347  1.7293
 6893SOL     OW29456  12.030   9.937   3.455 -0.1707  0.5013  0.3034
 6893SOL    HW129457  11.994   9.863   3.407 -1.1467  0.6035  0.8461
 6893SOL    HW229458  12.087   9.898   3.521 -0.7928  0.2083  0.6784
 6894SOL     OW29459   2.573   7.909   8.612 -0.1219  0.6727  0.2732
 6894SOL    HW129460   2.545   7.936   8.699 -0.1863  3.0481 -0.4156
 6894SOL    HW229461   2.492   7.886   8.567 -0.1790  0.3088  0.5584
 6895SOL     OW29462  11.356   4.297  10.212  0.3771 -0.1550 -0.5321
 6895SOL    HW129463  11.409   4.218  10.207  0.1916 -0.2951 -0.2791
 6895SOL    HW229464  11.420   4.369  10.208  1.0194 -0.2798  3.6313
 6896SOL     OW29465   7.727   1.530   9.178 -0.2116 -0.0190  0.4441
 6896SOL    HW129466   7.741   1.624   9.181 -1.6169  0.1957  2.6738
 6896SOL    HW229467   7.814   1.493   9.163  0.4755  1.6045  0.2878
 6897SOL     OW29468   5.975   4.423  10.125 -0.1416 -0.0876 -0.0428
 6897SOL    HW129469   6.013   4.501  10.085  0.9078 -0.2203  0.6440
 6897SOL    HW229470   5.907   4.457  10.184  1.3919  0.4889  1.4969
 6898SOL     OW29471   1.259   3.025   7.527  0.3799  0.7018 -0.1663
 6898SOL    HW129472   1.322   2.960   7.497 -1.0883 -0.1812 -1.4657
 6898SOL    HW229473   1.280   3.038   7.620  0.7220 -1.6418  0.1391
 6899SOL     OW29474   9.271   1.152   4.982 -0.1953 -0.0796 -0.8521
 6899SOL    HW129475   9.251   1.235   4.939 -1.5435  0.1357  0.1224
 6899SOL    HW229476   9.319   1.177   5.061 -1.8920 -0.0788  0.2135
 6900SOL     OW29477   2.645   9.044   1.743 -0.0824 -0.2407 -0.2147
 6900SOL    HW129478   2.703   8.992   1.799  0.4803  0.3629 -0.2270
 6900SOL    HW229479   2.701   9.072   1.670 -1.0399 -1.8421 -1.6334
 6901SOL     OW29480   3.128   1.089   9.818 -0.2072 -0.2468  0.3301
 6901SOL    HW129481   3.055   1.150   9.811 -0.3356 -0.3403  0.8190
 6901SOL    HW229482   3.195   1.137   9.866  0.3107  0.0694 -0.6805
 6902SOL     OW29483   5.810   8.548   6.769 -0.3357  0.0021 -0.3923
 6902SOL    HW129484   5.757   8.603   6.827 -0.9315 -1.3447  0.3772
 6902SOL    HW229485   5.829   8.605   6.694 -2.2459  0.7803 -0.3608
 6903SOL     OW29486   6.386   4.172   5.180  0.2178 -0.0364  0.1546
 6903SOL    HW129487   6.381   4.257   5.225  0.5822  0.1936 -0.2346
 6903SOL    HW229488   6.368   4.108   5.249  1.8056  0.2443  0.8765
 6904SOL     OW29489  12.529   2.101   0.072 -0.0214  0.2799 -0.2329
 6904SOL    HW129490  12.564   2.072  -0.011 -0.3350  0.6001 -0.4808
 6904SOL    HW229491  12.434   2.097   0.061 -0.0825  1.4316 -0.3026
 6905SOL     OW29492   0.649   8.558   7.183 -0.0352  0.3920  0.0742
 6905SOL    HW129493   0.561   8.570   7.219  0.5508  0.4934  1.5415
 6905SOL    HW229494   0.693   8.642   7.199  0.8381 -0.2028  0.8853
 6906SOL     OW29495   1.778   8.457  12.433  0.0078  0.1766  0.2508
 6906SOL    HW129496   1.738   8.399  12.369 -0.0788  0.9063 -0.3655
 6906SOL    HW229497   1.853   8.495  12.387  0.3260  0.2173  0.7958
 6907SOL     OW29498  12.310   3.464   6.942 -0.8462  0.0354 -0.2059
 6907SOL    HW129499  12.396   3.434   6.973 -0.5838 -0.0531 -1.0022
 6907SOL    HW229500  12.295   3.546   6.989 -0.9186 -0.5949  0.9078
 6908SOL     OW29501   0.109   7.354   7.383 -0.0931  0.2542 -0.1431
 6908SOL    HW129502   0.184   7.408   7.409 -0.3243  0.0437  1.0302
 6908SOL    HW229503   0.132   7.322   7.296  0.5425  1.3384 -0.3974
 6909SOL     OW29504  10.777  11.988   3.815  0.0804 -1.0278  0.6128
 6909SOL    HW129505  10.746  12.031   3.735  3.0582  2.7173  1.1278
 6909SOL    HW229506  10.787  11.896   3.791 -1.4814 -0.5211 -2.4891
 6910SOL     OW29507   5.429   5.901   6.829 -0.1435  0.5989 -0.1381
 6910SOL    HW129508   5.513   5.857   6.841  0.5698  1.6033 -1.1704
 6910SOL    HW229509   5.364   5.837   6.857  0.8782 -0.8785 -1.0070
 6911SOL     OW29510   2.243   8.936   9.362 -0.6340 -0.2889 -0.4066
 6911SOL    HW129511   2.160   8.932   9.409 -0.3276  1.2439  0.3293
 6911SOL    HW229512   2.308   8.952   9.431 -0.0105  0.7328 -1.2133
 6912SOL     OW29513   9.901   2.318   6.463 -0.0567 -0.3151  0.2419
 6912SOL    HW129514   9.909   2.320   6.367 -0.1124 -1.2035  0.2052
 6912SOL    HW229515   9.815   2.279   6.478 -1.5610  2.8709  0.6638
 6913SOL     OW29516   5.405  11.251   4.267 -0.1619  0.2697 -0.0141
 6913SOL    HW129517   5.374  11.162   4.256 -1.3948  0.4435  1.6222
 6913SOL    HW229518   5.433  11.256   4.358  1.2670  1.1688 -0.4653
 6914SOL     OW29519   7.193   9.027   7.598 -0.1424  0.0331  0.1269
 6914SOL    HW129520   7.246   8.954   7.564 -1.7059 -0.5034 -1.2698
 6914SOL    HW229521   7.108   8.988   7.617 -0.6490  1.2719  0.5043
 6915SOL     OW29522   1.099   7.555   6.967  0.1089 -0.0957 -0.3805
 6915SOL    HW129523   1.067   7.625   6.910 -2.3016  0.9050  1.9805
 6915SOL    HW229524   1.036   7.484   6.955 -0.6828  0.2897  1.2650
 6916SOL     OW29525  11.459   6.327   3.622 -0.1655  0.4489 -0.4224
 6916SOL    HW129526  11.527   6.276   3.577  0.6137  1.6039 -0.5874
 6916SOL    HW229527  11.378   6.303   3.577  0.5062  1.0516 -2.0127
 6917SOL     OW29528   1.641   4.301   6.481  0.3597 -0.1213 -0.1885
 6917SOL    HW129529   1.671   4.212   6.500 -1.0304 -0.6364 -0.2826
 6917SOL    HW229530   1.548   4.291   6.461  0.6206  1.0587 -2.2972
 6918SOL     OW29531   0.608   1.074   2.624 -0.5573  0.1401 -0.1837
 6918SOL    HW129532   0.651   1.081   2.539  0.1280  0.1808  0.1553
 6918SOL    HW229533   0.541   1.142   2.623 -0.5207  0.1695 -0.6735
 6919SOL     OW29534   5.341   4.020  12.474 -0.4953  0.0053  0.4434
 6919SOL    HW129535   5.423   4.060  12.503 -0.5861  0.0312  0.6641
 6919SOL    HW229536   5.345   3.930  12.508 -0.5194 -0.0206  0.3770
 6920SOL     OW29537   3.932   0.065   7.807 -0.4773 -0.0748 -0.7594
 6920SOL    HW129538   3.944   0.065   7.902  2.4799  1.6277 -1.0309
 6920SOL    HW229539   3.841   0.038   7.795 -0.7506 -1.0581  2.4878
 6921SOL     OW29540   8.699  11.104   0.998 -0.3121  0.1473  0.4699
 6921SOL    HW129541   8.766  11.139   1.056  1.9377 -2.0791 -0.5755
 6921SOL    HW229542   8.617  11.137   1.033  1.2824  2.9524  1.8840
 6922SOL     OW29543   4.901   5.310  12.596 -0.0589  0.3589  0.2762
 6922SOL    HW129544   4.955   5.387  12.613  0.5563 -0.1353  0.6040
 6922SOL    HW229545   4.849   5.333  12.519  0.1484  1.0787  0.3449
 6923SOL     OW29546   2.052   4.495   7.574 -0.0534  0.4117 -0.2550
 6923SOL    HW129547   1.971   4.542   7.554  1.0994  2.7380  0.2059
 6923SOL    HW229548   2.026   4.402   7.576 -3.1477  1.1601  1.9465
 6924SOL     OW29549   8.327  11.227   3.884  0.2254 -0.2040 -0.3166
 6924SOL    HW129550   8.419  11.253   3.879  0.6213 -1.3505  0.4267
 6924SOL    HW229551   8.307  11.194   3.796  1.1641 -1.8476  0.0412
 6925SOL     OW29552   5.351   8.661   4.464 -0.1728  0.4815 -0.6141
 6925SOL    HW129553   5.424   8.600   4.456 -0.9352 -1.0562  2.5513
 6925SOL    HW229554   5.384   8.744   4.429  1.9077 -0.9574 -2.2860
 6926SOL     OW29555   0.498   2.551  10.079  0.0951  0.6596 -0.1227
 6926SOL    HW129556   0.577   2.537  10.132 -1.1227  1.5768  2.0761
 6926SOL    HW229557   0.451   2.468  10.083  1.5583 -0.4103 -2.7155
 6927SOL     OW29558   0.811   0.997   2.240 -0.4546  0.4677 -0.2988
 6927SOL    HW129559   0.770   0.945   2.309 -0.5872  0.8036 -0.1241
 6927SOL    HW229560   0.893   1.029   2.280  0.3677 -0.8223 -0.8887
 6928SOL     OW29561   4.752   3.629   5.494  0.5101 -0.2162 -0.3042
 6928SOL    HW129562   4.784   3.718   5.508  0.3549  0.0085 -1.3179
 6928SOL    HW229563   4.659   3.634   5.515  0.4614 -0.0865 -0.5414
 6929SOL     OW29564   9.963   7.970  11.873 -0.3194  0.1119 -0.9452
 6929SOL    HW129565   9.931   8.037  11.812 -2.5379 -0.6792 -0.7028
 6929SOL    HW229566   9.897   7.902  11.872  0.7687 -1.0422  0.5724
 6930SOL     OW29567   8.292  10.415  10.539  0.0208 -0.7974  0.0646
 6930SOL    HW129568   8.353  10.474  10.494 -1.6858  1.1968  0.1800
 6930SOL    HW229569   8.206  10.444  10.509 -1.0474 -1.2125  2.5162
 6931SOL     OW29570   7.319   9.369   4.827  0.2044 -0.1296  0.0255
 6931SOL    HW129571   7.277   9.404   4.906 -2.3481  1.3582 -1.8305
 6931SOL    HW229572   7.374   9.440   4.795  0.5108 -0.3938 -0.0413
 6932SOL     OW29573   6.931  10.985  10.215  0.3059 -0.6125  0.2219
 6932SOL    HW129574   6.880  11.052  10.170  1.0343 -0.3431 -0.2177
 6932SOL    HW229575   6.973  11.033  10.287  0.7265 -0.6219 -0.0164
 6933SOL     OW29576   2.619   3.105   9.369  0.2202  0.3323 -0.1857
 6933SOL    HW129577   2.559   3.083   9.299  0.2523 -0.8847  0.1596
 6933SOL    HW229578   2.689   3.155   9.326  0.3184 -0.5334 -1.0505
 6934SOL     OW29579   4.338   5.968   0.435 -0.2695 -0.4206 -0.5628
 6934SOL    HW129580   4.304   5.883   0.406 -2.1226  0.2884 -0.5810
 6934SOL    HW229581   4.262   6.015   0.468  0.9865  0.6538  0.9642
 6935SOL     OW29582   3.687  10.657   7.335  0.2092 -0.0107 -0.2744
 6935SOL    HW129583   3.771  10.625   7.369 -0.2892 -0.9535  0.0992
 6935SOL    HW229584   3.649  10.705   7.409  0.8994  1.3963 -0.7946
 6936SOL     OW29585  11.492   3.558   6.549  0.5238  0.5870  0.2652
 6936SOL    HW129586  11.455   3.541   6.463 -1.5083 -0.2894  1.2571
 6936SOL    HW229587  11.432   3.621   6.589  0.9188  0.2915  1.3608
 6937SOL     OW29588   3.219   2.890   0.892  0.0230 -0.4837 -0.1522
 6937SOL    HW129589   3.312   2.905   0.874  0.0287  0.2093  0.4213
 6937SOL    HW229590   3.206   2.797   0.873  0.6806 -0.4330 -0.8823
 6938SOL     OW29591   3.587   6.372   0.517  0.4441  0.3759  0.6881
 6938SOL    HW129592   3.552   6.296   0.471  1.2314  0.3635  0.0921
 6938SOL    HW229593   3.528   6.444   0.494  1.0010  0.4472 -0.6438
 6939SOL     OW29594   3.683   0.321  10.915 -0.3982 -0.0080  0.5039
 6939SOL    HW129595   3.668   0.416  10.915 -0.9744 -0.0909  0.5237
 6939SOL    HW229596   3.604   0.285  10.956 -0.5102 -0.5395 -0.1648
 6940SOL     OW29597   8.269   7.856   6.883  0.5993  0.1144 -0.4585
 6940SOL    HW129598   8.342   7.838   6.942  1.2449 -0.2970 -1.3696
 6940SOL    HW229599   8.287   7.804   6.805 -0.1575  0.7786 -1.0970
 6941SOL     OW29600   6.080  10.159   9.668  0.0529 -0.4059  0.0404
 6941SOL    HW129601   6.061  10.249   9.694  0.7810  0.2360 -1.4861
 6941SOL    HW229602   6.073  10.160   9.572 -0.3145 -2.0762  0.0252
 6942SOL     OW29603   6.496   2.299   0.082 -0.3903  0.2510  0.0271
 6942SOL    HW129604   6.523   2.337   0.165 -1.0853  1.3564 -0.2284
 6942SOL    HW229605   6.402   2.319   0.075 -0.6330 -0.9362 -0.4457
 6943SOL     OW29606   8.264   3.591   4.399 -0.2422  0.2480  0.1475
 6943SOL    HW129607   8.184   3.538   4.402  0.7521 -1.3129  0.3344
 6943SOL    HW229608   8.311   3.567   4.479  1.0130  0.1424 -0.5949
 6944SOL     OW29609   5.350   1.763   8.858 -0.8568 -0.4024  0.5769
 6944SOL    HW129610   5.349   1.670   8.881  1.5347 -0.4870  0.6138
 6944SOL    HW229611   5.430   1.797   8.899 -0.1779  1.0254 -1.7274
 6945SOL     OW29612   5.814   4.512   2.629  0.3874 -0.3304 -0.4348
 6945SOL    HW129613   5.755   4.534   2.556  1.7373  1.0026 -1.1829
 6945SOL    HW229614   5.788   4.572   2.699  0.8882  0.3059 -0.7880
 6946SOL     OW29615  10.691   0.885   0.042  0.1682  0.5530 -0.0628
 6946SOL    HW129616  10.737   0.818  -0.010 -0.1478 -0.0821  0.4693
 6946SOL    HW229617  10.725   0.968   0.008 -0.9165  0.2181 -2.1434
 6947SOL     OW29618   5.997   2.922  11.397  0.0502  0.7416  0.4611
 6947SOL    HW129619   6.085   2.899  11.366  0.3741 -0.5196  2.1439
 6947SOL    HW229620   6.010   2.997  11.455 -0.5588  3.1267 -2.2663
 6948SOL     OW29621  10.529   6.851   8.856  0.0267 -0.0999 -0.3483
 6948SOL    HW129622  10.494   6.833   8.944 -2.0073 -3.1974 -1.6031
 6948SOL    HW229623  10.622   6.830   8.863  0.0846  0.5004  1.2121
 6949SOL     OW29624   5.725   9.724   4.925  0.2707  0.4281  0.5708
 6949SOL    HW129625   5.658   9.656   4.913 -0.3126  0.4599  3.1527
 6949SOL    HW229626   5.702   9.766   5.007  2.5572  1.5375  0.7161
 6950SOL     OW29627   4.060  10.890   8.729  0.0160  0.0084  0.1156
 6950SOL    HW129628   4.058  10.980   8.761 -1.0543  0.1273 -0.2334
 6950SOL    HW229629   4.069  10.899   8.634 -1.7106 -0.1740 -0.1030
 6951SOL     OW29630  12.372  10.617   4.734 -0.5398  1.0785  0.1579
 6951SOL    HW129631  12.303  10.674   4.770  0.0787  1.0814  1.3631
 6951SOL    HW229632  12.453  10.667   4.745 -0.1759  0.5459 -0.0711
 6952SOL     OW29633   3.703   5.254   6.491  0.0776 -0.3088  0.2241
 6952SOL    HW129634   3.702   5.327   6.429 -1.8638  1.8622  2.6134
 6952SOL    HW229635   3.638   5.193   6.457 -0.6164  0.6232 -0.1562
 6953SOL     OW29636   7.958   0.603  12.122  0.1427 -0.3572  0.3318
 6953SOL    HW129637   7.919   0.630  12.038  1.7157 -0.2792 -0.4118
 6953SOL    HW229638   7.890   0.549  12.163 -1.3306  0.9927 -0.1880
 6954SOL     OW29639  10.144  12.233   4.378 -0.1162  0.0089  0.1603
 6954SOL    HW129640  10.104  12.319   4.367  0.1038 -0.0134 -0.9237
 6954SOL    HW229641  10.081  12.184   4.431 -1.1321  0.2481 -0.7900
 6955SOL     OW29642   4.751   9.763   2.006  0.3568 -0.0823  0.0629
 6955SOL    HW129643   4.788   9.758   2.095  0.4098  0.0421  0.0476
 6955SOL    HW229644   4.694   9.839   2.009 -0.2212 -0.5146  0.2085
 6956SOL     OW29645   0.496   1.098   0.164  0.0991 -0.4579  0.2591
 6956SOL    HW129646   0.431   1.049   0.113 -0.4297 -1.4977  1.8545
 6956SOL    HW229647   0.446   1.134   0.238  1.2418 -0.8466  1.2438
 6957SOL     OW29648   7.103   4.670   9.964 -0.0040 -0.4003  0.2780
 6957SOL    HW129649   7.132   4.613   9.894 -1.1850  0.3574 -0.8883
 6957SOL    HW229650   7.130   4.626  10.045  1.9534 -0.9807 -0.6471
 6958SOL     OW29651   2.743   3.529   5.361  0.0230 -0.3328 -0.0445
 6958SOL    HW129652   2.723   3.572   5.444 -0.8532 -0.6677 -0.0704
 6958SOL    HW229653   2.676   3.462   5.352 -0.3579  0.2013 -1.4023
 6959SOL     OW29654   1.876   0.273   3.959  0.4818 -0.1011  0.1569
 6959SOL    HW129655   1.791   0.315   3.968 -0.0248 -0.9935 -0.2908
 6959SOL    HW229656   1.914   0.275   4.047 -1.0006 -1.7307  0.8861
 6960SOL     OW29657   5.357   6.610   2.013  0.1073 -0.4360 -0.2487
 6960SOL    HW129658   5.312   6.648   1.937  0.5079 -0.6239 -0.5818
 6960SOL    HW229659   5.399   6.685   2.055 -0.4059 -0.2785 -0.0081
 6961SOL     OW29660   2.165   2.740   9.291  0.2891 -0.5563  0.1785
 6961SOL    HW129661   2.180   2.669   9.354  0.0211 -0.4599  0.3514
 6961SOL    HW229662   2.183   2.700   9.206  2.2093 -0.2682  0.4116
 6962SOL     OW29663   1.744  10.070   4.653  0.0021  0.1166  0.6973
 6962SOL    HW129664   1.701  10.148   4.618  2.1734  0.6764 -0.9699
 6962SOL    HW229665   1.674  10.020   4.694 -1.8257  1.9210 -0.0660
 6963SOL     OW29666   2.103  11.848  11.977  0.3622 -0.0626 -0.6366
 6963SOL    HW129667   2.094  11.779  12.043 -2.1989  0.5781 -0.2120
 6963SOL    HW229668   2.180  11.898  12.005 -0.6253  0.1684  1.8856
 6964SOL     OW29669   2.750  11.535   1.939 -0.4799 -0.2585 -0.1635
 6964SOL    HW129670   2.807  11.504   2.009  0.5096 -0.2501 -0.9587
 6964SOL    HW229671   2.789  11.503   1.858 -1.8207 -0.5995 -0.7140
 6965SOL     OW29672  10.018   2.047   4.593  0.3052  0.6760 -0.5401
 6965SOL    HW129673  10.091   2.098   4.629  0.6216 -0.8945  1.2042
 6965SOL    HW229674  10.052   1.957   4.590 -1.1566  0.1177 -0.8723
 6966SOL     OW29675   6.896  11.792   7.416  0.1189  0.2923  0.3963
 6966SOL    HW129676   6.964  11.810   7.481 -0.9549 -0.8221  1.8956
 6966SOL    HW229677   6.924  11.840   7.338  2.5145  0.0037  1.0152
 6967SOL     OW29678  12.374   9.961  12.235  0.4083  1.0474 -0.0112
 6967SOL    HW129679  12.429  10.029  12.275 -0.1846  2.1667 -1.0113
 6967SOL    HW229680  12.285   9.981  12.266 -0.0000  1.7016 -1.4908
 6968SOL     OW29681   7.326   4.267   3.543  0.0239 -0.0548 -0.0237
 6968SOL    HW129682   7.401   4.248   3.600 -0.2689 -0.8472  0.1113
 6968SOL    HW229683   7.354   4.237   3.456  0.8163  1.9651 -0.5381
 6969SOL     OW29684  11.018   6.046  11.112  0.0625  0.2708  0.2161
 6969SOL    HW129685  11.030   6.137  11.138 -1.0267  0.4468  0.1696
 6969SOL    HW229686  11.004   6.049  11.018  1.9716 -0.1651 -0.1207
 6970SOL     OW29687   7.896   6.253  10.392 -0.0523 -0.3266  0.1962
 6970SOL    HW129688   7.891   6.339  10.351 -2.5538 -1.4764 -2.2654
 6970SOL    HW229689   7.956   6.203  10.337  0.3197 -0.5594  0.8035
 6971SOL     OW29690   1.891   9.168   9.399  0.9052 -0.0312 -0.4056
 6971SOL    HW129691   1.944   9.208   9.331  1.7968 -1.3863 -0.5487
 6971SOL    HW229692   1.899   9.227   9.474  2.2731  0.0157 -0.5721
 6972SOL     OW29693  12.413   5.692   9.462  0.2832  0.7201  0.0042
 6972SOL    HW129694  12.323   5.681   9.431 -0.3904  0.8073  1.8232
 6972SOL    HW229695  12.427   5.616   9.518  0.8840  1.3899  0.7683
 6973SOL     OW29696  11.288  11.062   0.850 -0.0231  0.0245  0.0901
 6973SOL    HW129697  11.297  11.091   0.759  0.4930 -0.0913  0.1013
 6973SOL    HW229698  11.377  11.063   0.885  0.1251 -2.1000 -0.0737
 6974SOL     OW29699   7.920  11.884   1.987  0.2221 -0.2068 -0.7265
 6974SOL    HW129700   7.994  11.915   2.040  0.2818  2.8272 -2.3296
 6974SOL    HW229701   7.845  11.886   2.047  0.5479  1.7093 -0.3145
 6975SOL     OW29702   6.742  10.799   1.406  0.3346 -0.0305  0.4993
 6975SOL    HW129703   6.793  10.718   1.414  0.0106 -0.3000 -0.0788
 6975SOL    HW229704   6.688  10.801   1.485  0.0675 -0.5837  0.3423
 6976SOL     OW29705  10.779   9.523   9.959  0.3106  0.4618  0.3804
 6976SOL    HW129706  10.804   9.450   9.902 -0.1391  0.1183  0.6152
 6976SOL    HW229707  10.693   9.498   9.993 -0.0246  1.2782  0.1644
 6977SOL     OW29708   3.587   2.904   8.304 -0.5497  0.0555  0.1223
 6977SOL    HW129709   3.498   2.870   8.307 -0.7650  0.5783 -0.2101
 6977SOL    HW229710   3.578   2.997   8.321 -0.2428  0.3983 -1.4454
 6978SOL     OW29711   0.539   3.012   4.239  0.1340  0.1484  0.5319
 6978SOL    HW129712   0.509   2.944   4.178 -0.9920  1.5923 -0.6013
 6978SOL    HW229713   0.589   2.965   4.305  0.5749 -1.6111 -0.9851
 6979SOL     OW29714   5.414   8.785   2.100 -0.3838  0.3022  0.6757
 6979SOL    HW129715   5.343   8.728   2.130  1.6010 -2.0672  1.2012
 6979SOL    HW229716   5.427   8.847   2.171 -2.0207  0.9353  0.4754
 6980SOL     OW29717   4.336  12.022   5.887 -0.0112 -0.5958  0.6006
 6980SOL    HW129718   4.330  11.937   5.929 -2.7980  0.0642  1.8001
 6980SOL    HW229719   4.365  12.081   5.956  1.1779 -0.4009 -0.0313
 6981SOL     OW29720  12.212   6.526   1.925 -0.0595  0.3057 -0.1867
 6981SOL    HW129721  12.284   6.470   1.953 -0.3084  0.0583 -0.0256
 6981SOL    HW229722  12.142   6.507   1.988 -0.0320  1.0625  0.0793
 6982SOL     OW29723  10.518   9.748  12.489  0.0631 -0.3749  0.3578
 6982SOL    HW129724  10.462   9.720  12.417  1.3005 -1.2844 -0.2810
 6982SOL    HW229725  10.595   9.692  12.483  0.8075  0.4730  1.5544
 6983SOL     OW29726   9.794  12.528  10.124  0.3169 -0.2629  0.0940
 6983SOL    HW129727   9.854  12.521  10.050  1.1538  0.0477  0.7309
 6983SOL    HW229728   9.846  12.504  10.200 -0.0616  1.0072  0.7935
 6984SOL     OW29729   0.130   5.186   7.553 -0.0367  0.4725 -0.0308
 6984SOL    HW129730   0.035   5.194   7.551 -0.4179 -1.7684  2.9054
 6984SOL    HW229731   0.153   5.195   7.645  2.2697 -1.7300 -0.2820
 6985SOL     OW29732   8.493   8.786   2.801 -0.8138  0.3618 -0.2649
 6985SOL    HW129733   8.429   8.844   2.759  0.1710  2.5470  1.0778
 6985SOL    HW229734   8.576   8.809   2.759 -0.3206  0.3635  0.6882
 6986SOL     OW29735   3.439   2.510   8.804 -0.3225 -0.3141 -0.2781
 6986SOL    HW129736   3.432   2.418   8.832 -0.3527 -0.4848 -0.8293
 6986SOL    HW229737   3.426   2.507   8.709 -0.9389  0.3354 -0.2248
 6987SOL     OW29738  11.688  11.152   4.477  0.3912 -0.5152 -0.1964
 6987SOL    HW129739  11.772  11.182   4.444 -0.8922  1.3542 -1.9867
 6987SOL    HW229740  11.704  11.062   4.504  2.7639 -0.4731 -1.2131
 6988SOL     OW29741   2.435   6.530   8.367 -0.6003 -0.1358  0.1012
 6988SOL    HW129742   2.528   6.539   8.344 -0.4446  2.0536  1.2863
 6988SOL    HW229743   2.390   6.516   8.284  0.6409  0.3274 -0.6681
 6989SOL     OW29744   9.489  12.275   1.184 -0.4103  0.2510  0.2495
 6989SOL    HW129745   9.483  12.369   1.203 -0.4664  1.1844 -3.5480
 6989SOL    HW229746   9.410  12.256   1.132 -1.0683 -2.2761  1.9880
 6990SOL     OW29747   4.781  11.064   0.397 -0.6642 -0.6851 -0.0764
 6990SOL    HW129748   4.839  10.994   0.366 -1.4369 -0.1824 -2.9984
 6990SOL    HW229749   4.704  11.018   0.431 -1.2472 -1.3462 -2.1311
 6991SOL     OW29750  12.443   8.585  11.708 -0.0027 -0.2613 -0.1933
 6991SOL    HW129751  12.484   8.652  11.654  0.8722 -0.2765  0.4513
 6991SOL    HW229752  12.475   8.601  11.796  0.4862 -1.7162 -0.0792
 6992SOL     OW29753   8.823   6.861   2.507 -0.0357 -0.4415  0.3912
 6992SOL    HW129754   8.878   6.912   2.448  1.4711 -0.6604  1.5119
 6992SOL    HW229755   8.733   6.882   2.482  0.5548  0.7419 -0.8561
 6993SOL     OW29756   8.992  11.957   2.358  0.2901 -0.3159  0.3175
 6993SOL    HW129757   8.902  11.942   2.388 -0.4212 -1.1125 -2.0267
 6993SOL    HW229758   8.982  12.002   2.274  2.0371 -1.2805 -0.4494
 6994SOL     OW29759  10.621   9.982   2.643  0.2694  0.3238  0.3174
 6994SOL    HW129760  10.678   9.916   2.682  0.6441 -0.0891 -0.9039
 6994SOL    HW229761  10.540   9.935   2.623  0.9629 -0.1090 -1.6708
 6995SOL     OW29762   1.582   5.740   0.147  0.0995 -0.3202  0.5739
 6995SOL    HW129763   1.649   5.674   0.131  1.2633  0.6912  1.0740
 6995SOL    HW229764   1.501   5.701   0.116  0.8115 -1.8433  0.5715
 6996SOL     OW29765   5.432   8.232  10.344  0.3264 -0.4333  0.0711
 6996SOL    HW129766   5.395   8.264  10.262 -3.0079 -2.2088  0.7014
 6996SOL    HW229767   5.455   8.311  10.392 -1.7357  0.8332 -0.8794
 6997SOL     OW29768   9.197   7.229  10.509  0.1012 -0.2588 -0.1185
 6997SOL    HW129769   9.149   7.302  10.549  2.4540  0.9441  0.7245
 6997SOL    HW229770   9.222   7.174  10.582 -0.2557 -1.0575 -0.5872
 6998SOL     OW29771   0.473   5.463   7.834  0.1930 -0.0040 -0.3472
 6998SOL    HW129772   0.397   5.506   7.872  1.0624  2.4947 -1.2622
 6998SOL    HW229773   0.512   5.414   7.907 -2.5762 -1.9325 -0.0160
 6999SOL     OW29774  12.525   7.919  11.581 -0.2024  0.5277 -0.6262
 6999SOL    HW129775  12.563   8.007  11.579 -0.7658  0.8391  0.9220
 6999SOL    HW229776  12.594   7.865  11.620 -0.2445  0.4894 -0.6067
 7000SOL     OW29777   7.575   5.669   4.251  0.4872 -0.3117 -0.4058
 7000SOL    HW129778   7.498   5.683   4.195 -0.4245  2.2678  1.2752
 7000SOL    HW229779   7.635   5.740   4.227 -0.0338  1.0202  1.9127
 7001SOL     OW29780   5.857   6.897  11.508 -0.0596  0.4334 -0.1909
 7001SOL    HW129781   5.873   6.832  11.577  0.5593 -0.5660 -1.2525
 7001SOL    HW229782   5.887   6.980  11.546  0.9123 -0.2177  0.4917
 7002SOL     OW29783   1.805   6.782   6.224  0.0605  0.4034  0.1390
 7002SOL    HW129784   1.866   6.710   6.214 -1.1526 -0.6676  0.1918
 7002SOL    HW229785   1.851   6.845   6.279  1.0249 -0.4649  0.3558
 7003SOL     OW29786   1.255  10.657   0.212  0.3114 -0.2791  0.4665
 7003SOL    HW129787   1.193  10.658   0.139  1.0175  0.1582 -0.1484
 7003SOL    HW229788   1.334  10.617   0.176  1.1446  1.1955  0.5567
 7004SOL     OW29789   5.362   5.528   3.911  0.3742 -0.4278 -0.1642
 7004SOL    HW129790   5.411   5.610   3.906  1.7495 -1.1127  1.2371
 7004SOL    HW229791   5.345   5.516   4.005 -1.5619 -0.7791 -0.5094
 7005SOL     OW29792   3.819   4.259   1.210  0.2446 -0.1136 -0.4054
 7005SOL    HW129793   3.777   4.345   1.203  0.7034  0.1581  0.1408
 7005SOL    HW229794   3.851   4.241   1.122  2.2596  1.3751 -0.0489
 7006SOL     OW29795   2.934   3.084  10.883  0.7848  0.7286  0.4631
 7006SOL    HW129796   2.841   3.065  10.884  1.3328 -2.6741 -0.2724
 7006SOL    HW229797   2.946   3.146  10.812 -0.9676  2.0761  1.2563
 7007SOL     OW29798   9.350  10.911   3.967  0.0708 -0.1095  0.7295
 7007SOL    HW129799   9.326  10.969   3.895  0.9399  0.5685  0.9619
 7007SOL    HW229800   9.318  10.955   4.045 -1.7598 -1.3204  0.7297
 7008SOL     OW29801   8.716   0.801   1.747 -0.0671  0.3977 -0.1094
 7008SOL    HW129802   8.661   0.724   1.734  0.8418 -0.2590 -0.1410
 7008SOL    HW229803   8.777   0.775   1.816 -0.5816  1.5434  0.8199
 7009SOL     OW29804   4.687   7.279   3.039  0.0514  0.1688 -0.1727
 7009SOL    HW129805   4.721   7.367   3.054 -1.0977  0.7887 -1.0975
 7009SOL    HW229806   4.608   7.292   2.988  1.0254 -1.5319 -2.2491
 7010SOL     OW29807   3.021   5.119   7.944  0.0221 -0.1990  0.0414
 7010SOL    HW129808   2.951   5.095   7.882  1.0118 -0.7325 -0.9003
 7010SOL    HW229809   3.073   5.184   7.896  1.2369 -1.1683  0.0177
 7011SOL     OW29810  11.173   9.618   2.029 -0.1800 -0.0476 -0.3971
 7011SOL    HW129811  11.097   9.665   1.995 -0.5309  1.4635  2.2329
 7011SOL    HW229812  11.145   9.584   2.114  2.2913  1.2793  1.0548
 7012SOL     OW29813  11.210  12.404   4.830  0.0569 -0.2392 -0.6129
 7012SOL    HW129814  11.249  12.377   4.913 -0.0956 -1.2629 -0.8609
 7012SOL    HW229815  11.267  12.366   4.763  0.2565  0.6970 -0.9833
 7013SOL     OW29816  12.506   0.791   6.412  0.0430  0.0503  0.2497
 7013SOL    HW129817  12.503   0.878   6.374 -0.4971  0.3184  0.8940
 7013SOL    HW229818  12.599   0.776   6.432  0.2599  0.1064 -0.6833
 7014SOL     OW29819   8.113   2.329   4.777 -0.1118 -0.0156  0.1644
 7014SOL    HW129820   8.081   2.417   4.758  0.4574  0.5149  1.5579
 7014SOL    HW229821   8.141   2.295   4.691 -2.0663  0.4144 -0.6877
 7015SOL     OW29822   5.102   8.158   4.979  0.6795 -0.5599 -0.3218
 7015SOL    HW129823   5.028   8.147   4.919  0.6944  2.0968 -0.9313
 7015SOL    HW229824   5.116   8.070   5.016 -3.6240 -0.9691  0.8826
 7016SOL     OW29825   8.766  10.898   8.538 -0.0948 -0.2048 -0.3519
 7016SOL    HW129826   8.797  10.823   8.488 -0.2519 -0.9919  0.6811
 7016SOL    HW229827   8.671  10.899   8.524 -0.5729 -2.1084  1.9928
 7017SOL     OW29828   5.973   2.225   3.069 -0.1400 -0.5770  0.1998
 7017SOL    HW129829   5.964   2.261   3.157 -1.6285 -0.9910  0.2495
 7017SOL    HW229830   5.920   2.145   3.070 -0.7625 -0.2176 -1.2606
 7018SOL     OW29831  10.641   4.455   7.333  0.4560  0.1686 -0.3174
 7018SOL    HW129832  10.649   4.508   7.254  0.4184 -1.6840 -1.6066
 7018SOL    HW229833  10.572   4.392   7.314  0.1388 -0.0583  1.3593
 7019SOL     OW29834   7.340  12.538   1.860  0.1024 -0.4099 -0.0253
 7019SOL    HW129835   7.335  12.460   1.914 -0.8284 -1.0440 -0.9797
 7019SOL    HW229836   7.414  12.587   1.895 -0.3023 -0.9087  1.6426
 7020SOL     OW29837   2.125   7.565   5.243 -0.3232  0.6191 -0.0173
 7020SOL    HW129838   2.091   7.627   5.178  0.0253  0.0535 -0.7515
 7020SOL    HW229839   2.072   7.581   5.321 -1.1466  0.9092 -0.6224
 7021SOL     OW29840   2.176   2.259   9.358  0.0042  0.5058  0.0549
 7021SOL    HW129841   2.107   2.317   9.323  0.1992  1.8788  1.7480
 7021SOL    HW229842   2.254   2.283   9.309 -0.4985 -0.3639 -1.2088
 7022SOL     OW29843   9.353   4.371   9.144  0.1153  0.0154  0.2825
 7022SOL    HW129844   9.286   4.388   9.210 -1.4789 -0.1299 -1.2287
 7022SOL    HW229845   9.434   4.407   9.182 -1.0481  1.3648  1.6174
 7023SOL     OW29846   3.951   4.883  12.105  0.3269  0.2727 -0.0686
 7023SOL    HW129847   3.911   4.826  12.039  1.7236  1.0035 -1.6561
 7023SOL    HW229848   4.022   4.831  12.141  1.4234  0.8226 -1.3169
 7024SOL     OW29849   5.284   3.139   7.182 -0.4663 -0.3965 -0.7389
 7024SOL    HW129850   5.233   3.188   7.247 -1.0312  1.1172 -2.2800
 7024SOL    HW229851   5.307   3.203   7.115 -0.1029 -1.9617 -2.1702
 7025SOL     OW29852   7.062   7.045   6.097  0.1780  0.1613  0.5407
 7025SOL    HW129853   7.099   6.990   6.167 -0.5455  0.2436  0.9989
 7025SOL    HW229854   6.968   7.032   6.104  0.1539 -0.8163 -1.2579
 7026SOL     OW29855   4.298   0.079  10.411 -0.2624 -0.2936 -0.6672
 7026SOL    HW129856   4.258   0.070  10.497  2.4225  0.5247  0.8038
 7026SOL    HW229857   4.322  -0.010  10.386  0.1104 -0.4157  0.0895
 7027SOL     OW29858   2.036   7.810   2.079  0.5860 -0.2588  0.1059
 7027SOL    HW129859   2.025   7.814   1.984  0.1619 -0.0259  0.1608
 7027SOL    HW229860   2.043   7.902   2.106  1.8549 -0.3599  0.1777
 7028SOL     OW29861  10.894  11.275  10.313 -0.1823  1.0629  0.5051
 7028SOL    HW129862  10.912  11.235  10.228 -0.3047 -0.6115  1.2245
 7028SOL    HW229863  10.970  11.253  10.367 -0.4269  1.4872  1.0419
 7029SOL     OW29864  10.452   6.789   6.542 -0.4006  0.4189 -0.3211
 7029SOL    HW129865  10.420   6.770   6.454 -0.6294  1.5256 -0.4912
 7029SOL    HW229866  10.546   6.802   6.531 -0.1345 -1.1440 -0.1014
 7030SOL     OW29867   0.713   8.984  10.049 -0.1237 -0.2465  0.5964
 7030SOL    HW129868   0.755   9.067  10.025 -1.2982  0.2968  0.3788
 7030SOL    HW229869   0.695   8.993  10.143  1.8746 -1.2326  1.1424
 7031SOL     OW29870   6.134   7.833  11.285  0.7670  0.4895  0.3281
 7031SOL    HW129871   6.191   7.821  11.209  1.1400  1.1333  0.5054
 7031SOL    HW229872   6.090   7.748  11.295 -0.3832  0.8097 -1.4971
 7032SOL     OW29873   8.991   3.420   4.742  0.4779 -0.2201 -0.1993
 7032SOL    HW129874   8.970   3.487   4.678 -1.0066 -0.0159  0.4549
 7032SOL    HW229875   9.077   3.386   4.715  0.0742  0.1280 -2.0395
 7033SOL     OW29876   5.896   3.708  10.095  0.2196 -0.2394 -0.0402
 7033SOL    HW129877   5.875   3.693  10.187 -0.5133 -1.7881 -0.4267
 7033SOL    HW229878   5.812   3.728  10.053  0.7313  1.9170 -0.1607
 7034SOL     OW29879   1.702  12.537   4.373  1.1041 -0.2586  0.1865
 7034SOL    HW129880   1.639  12.562   4.441  0.9515 -2.1148  0.7833
 7034SOL    HW229881   1.780  12.588   4.393  0.6413  0.1556  0.9929
 7035SOL     OW29882   0.164  10.274   1.204  0.2016 -0.2245  0.3822
 7035SOL    HW129883   0.240  10.303   1.254 -0.1910 -0.2959  1.0244
 7035SOL    HW229884   0.153  10.182   1.227 -1.6280  0.4041  2.3403
 7036SOL     OW29885  10.708   5.112   2.549  0.2206  0.4663  0.1596
 7036SOL    HW129886  10.671   5.184   2.499  0.0158 -0.7530 -1.5271
 7036SOL    HW229887  10.679   5.033   2.503  2.0911 -0.6347  0.7521
 7037SOL     OW29888   4.055   6.410   4.013 -0.4830 -0.2314 -0.3845
 7037SOL    HW129889   4.014   6.489   4.046  0.7677 -0.1098  0.9663
 7037SOL    HW229890   4.087   6.364   4.091  1.0076 -0.8268 -1.2816
 7038SOL     OW29891  11.190   2.672   5.486  0.5585 -0.2081 -0.3258
 7038SOL    HW129892  11.183   2.676   5.391  2.0418 -0.0472 -0.4414
 7038SOL    HW229893  11.137   2.596   5.511  1.0118 -0.8804 -1.3733
 7039SOL     OW29894   3.338   6.572   9.800  0.5629 -0.3007 -0.2527
 7039SOL    HW129895   3.268   6.622   9.758  0.9254  1.2875  0.9538
 7039SOL    HW229896   3.343   6.491   9.749 -1.9067 -0.3283 -0.5736
 7040SOL     OW29897   1.317   6.647   3.491  0.9083  0.0489  0.2347
 7040SOL    HW129898   1.322   6.614   3.581  0.5089 -1.1415 -0.1649
 7040SOL    HW229899   1.278   6.575   3.441  0.2373  1.0428 -0.7233
 7041SOL     OW29900   7.359   0.002  12.500  0.6561 -0.1462  0.1456
 7041SOL    HW129901   7.396   0.038  12.581  2.3887  1.1668 -1.1513
 7041SOL    HW229902   7.266  -0.009  12.519  1.2540 -1.5347  2.8628
 7042SOL     OW29903   0.170   2.585   6.407  0.2186  0.1140  0.2456
 7042SOL    HW129904   0.185   2.601   6.314 -0.3358 -2.3328 -0.3340
 7042SOL    HW229905   0.101   2.646   6.431  0.2975  0.7058 -0.9631
 7043SOL     OW29906   5.788   6.469   0.972  0.4658 -0.0795  0.0992
 7043SOL    HW129907   5.789   6.534   0.901 -0.0270  0.2085  0.3546
 7043SOL    HW229908   5.730   6.506   1.038 -0.1691 -0.9763  0.0621
 7044SOL     OW29909   2.199   4.741   7.314  0.5977  0.2559  0.0994
 7044SOL    HW129910   2.174   4.648   7.319  1.7533 -0.0638  0.1891
 7044SOL    HW229911   2.117   4.786   7.293 -0.2642 -0.6287  1.4062
 7045SOL     OW29912  12.163   6.634   6.502  0.0504  0.0318  0.3936
 7045SOL    HW129913  12.172   6.714   6.554 -1.2489 -0.1117  0.8903
 7045SOL    HW229914  12.157   6.564   6.567  0.2765 -0.3675 -0.0119
 7046SOL     OW29915  10.360   4.072  11.173  0.6296  0.1117 -0.7553
 7046SOL    HW129916  10.315   4.004  11.223  0.2721  0.3658 -0.7270
 7046SOL    HW229917  10.453   4.055  11.188  0.5319  0.2627  0.1095
 7047SOL     OW29918   4.288   2.555  11.934 -0.0692 -0.1460 -0.2325
 7047SOL    HW129919   4.379   2.546  11.906  0.0594 -1.9570  0.6354
 7047SOL    HW229920   4.282   2.502  12.014 -1.2306  2.1436  1.2932
 7048SOL     OW29921   3.178  11.863  10.717 -0.2062  0.5291  0.5428
 7048SOL    HW129922   3.102  11.809  10.695  0.2391  0.2371 -0.3128
 7048SOL    HW229923   3.250  11.825  10.667  0.7936  0.0425  2.2814
 7049SOL     OW29924   7.142  11.820   4.408  0.1687 -0.0024 -0.7924
 7049SOL    HW129925   7.054  11.849   4.435  0.6974  0.1661  0.8477
 7049SOL    HW229926   7.187  11.901   4.384  0.2719  0.0590 -0.3994
 7050SOL     OW29927   3.067   8.039   6.518  0.7426  1.1247 -0.2974
 7050SOL    HW129928   3.139   8.082   6.472  2.5295 -0.6224  0.7247
 7050SOL    HW229929   3.068   8.076   6.606  0.3993  1.0842 -0.2738
 7051SOL     OW29930   5.045  10.028   6.182  0.3568  0.4335 -0.1683
 7051SOL    HW129931   5.084  10.084   6.249  0.7532 -0.9031  0.7520
 7051SOL    HW229932   5.108   9.957   6.170 -0.0754  0.2330 -1.4024
 7052SOL     OW29933   2.398   7.831   8.243  0.5191 -0.1795 -0.0786
 7052SOL    HW129934   2.475   7.887   8.237  0.0374  0.7173  1.5325
 7052SOL    HW229935   2.422   7.763   8.307  0.9609 -1.6629 -1.7292
 7053SOL     OW29936   7.010  12.088   1.468 -0.2268 -0.0805 -0.1218
 7053SOL    HW129937   7.023  12.161   1.408  1.7991 -0.2231  0.0481
 7053SOL    HW229938   6.932  12.110   1.517  0.4341  2.0849  0.0543
 7054SOL     OW29939   0.432   3.246  11.645  0.1906 -0.0045  0.0157
 7054SOL    HW129940   0.472   3.177  11.592  0.5171 -0.8042  1.2834
 7054SOL    HW229941   0.338   3.236  11.630  0.3349  1.0751 -1.9783
 7055SOL     OW29942   3.469   2.343   6.514  0.0925  0.0144 -0.3239
 7055SOL    HW129943   3.493   2.310   6.600  0.4870  0.0830 -0.4066
 7055SOL    HW229944   3.530   2.300   6.454  0.1984  0.4154 -0.5035
 7056SOL     OW29945  10.130   7.240   0.635 -0.5404 -0.0862  0.1645
 7056SOL    HW129946  10.172   7.203   0.558 -0.1152  0.7568 -0.0243
 7056SOL    HW229947  10.126   7.334   0.617  0.1727  0.2114  1.4358
 7057SOL     OW29948   7.186   3.213   3.747 -0.0384 -0.4731  0.7847
 7057SOL    HW129949   7.098   3.188   3.775 -1.4120  1.4982 -1.4688
 7057SOL    HW229950   7.212   3.282   3.807 -1.1643  0.7527 -0.0926
 7058SOL     OW29951   1.991   1.048  10.716  0.5366  0.5139  0.0842
 7058SOL    HW129952   1.956   1.081  10.634 -0.7749  1.9335  1.1610
 7058SOL    HW229953   2.040   1.121  10.753  1.4691 -0.2467  0.3977
 7059SOL     OW29954   3.426   0.743   6.275 -0.0411  0.1512  0.2412
 7059SOL    HW129955   3.444   0.836   6.262  1.6456 -0.3066 -1.0482
 7059SOL    HW229956   3.473   0.720   6.355  3.3378 -0.4450 -1.7085
 7060SOL     OW29957   7.665   5.443   7.409 -0.3791 -0.0474 -0.2858
 7060SOL    HW129958   7.641   5.434   7.501  0.4858  0.2127 -0.0316
 7060SOL    HW229959   7.730   5.512   7.407  0.1330 -0.5308 -1.0036
 7061SOL     OW29960   8.230   3.320  10.588  0.4576 -0.3172 -0.2486
 7061SOL    HW129961   8.304   3.305  10.529  1.6774 -1.3708  1.4579
 7061SOL    HW229962   8.225   3.416  10.596  2.0833 -0.2317  0.1012
 7062SOL     OW29963   9.967   2.103   4.333 -0.2986  0.4617 -0.3038
 7062SOL    HW129964   9.955   2.063   4.419 -1.5787 -0.5874 -0.9425
 7062SOL    HW229965   9.983   2.196   4.352 -0.6366  0.2711  1.0543
 7063SOL     OW29966   4.693   8.978  12.319  0.0730 -0.1621 -0.2076
 7063SOL    HW129967   4.709   9.036  12.393  0.8450  0.5407 -0.9118
 7063SOL    HW229968   4.600   8.955  12.326  0.0371  0.2525  0.7170
 7064SOL     OW29969   3.923   1.213   0.668 -0.5727 -0.0181 -0.0153
 7064SOL    HW129970   3.984   1.230   0.596  0.0590  0.5043  0.6234
 7064SOL    HW229971   3.921   1.295   0.717 -0.0875 -0.7326  1.2286
 7065SOL     OW29972   2.653   4.461   7.388  0.0012 -0.4769  0.2531
 7065SOL    HW129973   2.607   4.533   7.344 -1.0044 -1.2913 -0.0703
 7065SOL    HW229974   2.667   4.396   7.319  3.3962  0.4820 -0.1451
 7066SOL     OW29975   3.609   8.321   5.411 -0.3021 -0.4136  0.2584
 7066SOL    HW129976   3.550   8.385   5.450 -1.4276 -1.4543  0.3224
 7066SOL    HW229977   3.695   8.342   5.447 -0.8135  0.4854  0.9778
 7067SOL     OW29978   4.721   4.292   7.233 -0.5054  0.1416  0.2740
 7067SOL    HW129979   4.647   4.265   7.179  1.9268 -0.0242 -3.3499
 7067SOL    HW229980   4.753   4.210   7.271 -0.9519 -0.0934  0.1502
 7068SOL     OW29981   7.734   6.906   4.009 -0.4802 -0.1422  0.7921
 7068SOL    HW129982   7.778   6.927   4.091 -1.0624  0.4066  0.9745
 7068SOL    HW229983   7.760   6.816   3.990 -1.5904 -0.8467  2.4066
 7069SOL     OW29984   1.728   1.505   7.062  0.1953 -0.6524 -0.2105
 7069SOL    HW129985   1.792   1.529   7.129 -1.1470  0.9412  0.5540
 7069SOL    HW229986   1.701   1.416   7.085 -1.1392  0.2707  2.1686
 7070SOL     OW29987   9.050   2.085  11.506  0.0894  0.1639 -0.0077
 7070SOL    HW129988   9.099   2.139  11.568  0.6718  0.9052 -1.0783
 7070SOL    HW229989   9.001   2.149  11.453 -0.2758 -0.4421 -0.4089
 7071SOL     OW29990  10.980   0.327   6.283 -0.2085  0.3092 -0.1187
 7071SOL    HW129991  11.004   0.355   6.372  0.2519  2.0708 -0.7552
 7071SOL    HW229992  11.060   0.292   6.246 -0.3808 -0.3528  0.1263
 7072SOL     OW29993  12.545   1.580  12.310  0.1010  0.2144  0.2705
 7072SOL    HW129994  12.562   1.628  12.391 -0.5434 -0.5670  0.8881
 7072SOL    HW229995  12.450   1.582  12.300 -0.0614 -1.8107  0.9121
 7073SOL     OW29996   3.719   8.501   9.633  0.0836  0.4148 -0.5459
 7073SOL    HW129997   3.676   8.429   9.680  1.6228  0.9572  1.8482
 7073SOL    HW229998   3.783   8.457   9.576 -0.5662 -0.1675 -0.8558
 7074SOL     OW29999   7.779  10.708   1.977 -0.4167  0.7316 -0.3660
 7074SOL    HW130000   7.737  10.744   2.055  1.1841 -0.3161  1.0433
 7074SOL    HW230001   7.856  10.661   2.010 -0.0896 -0.3739 -2.5120
 7075SOL     OW30002   2.894  10.437   1.048 -0.4340 -0.4025 -0.2547
 7075SOL    HW130003   2.876  10.427   0.954 -1.4167 -0.9523 -0.0219
 7075SOL    HW230004   2.839  10.510   1.075  0.3819  0.2298 -0.2241
 7076SOL     OW30005  11.253   3.455  11.876 -0.4680 -0.1148  0.2887
 7076SOL    HW130006  11.310   3.531  11.865 -0.9990  0.2128 -0.2216
 7076SOL    HW230007  11.197   3.477  11.950 -0.3180 -0.2071  0.4328
 7077SOL     OW30008  11.239  11.936  11.594  0.2610 -0.2782  0.2311
 7077SOL    HW130009  11.160  11.985  11.574  0.8519  0.5072 -0.2518
 7077SOL    HW230010  11.214  11.844  11.583 -0.1647  0.0198 -1.4913
 7078SOL     OW30011   3.197   3.214   4.457  0.3790  0.3719  0.3591
 7078SOL    HW130012   3.168   3.270   4.528 -1.1301 -0.7734  0.6978
 7078SOL    HW230013   3.212   3.129   4.497  1.4435  0.1970 -0.3564
 7079SOL     OW30014   1.978  12.204   1.545 -0.0645 -0.1031  0.5729
 7079SOL    HW130015   2.011  12.205   1.634 -0.0120 -0.4964  0.5583
 7079SOL    HW230016   1.900  12.259   1.547  0.6008  0.8714  0.6001
 7080SOL     OW30017   4.497   9.647  10.196  0.1852 -0.4394  0.3655
 7080SOL    HW130018   4.537   9.726  10.160 -2.6702  1.3608  0.8936
 7080SOL    HW230019   4.472   9.595  10.120  1.3139 -0.4702  0.0010
 7081SOL     OW30020   1.987   4.506   2.385 -0.2592 -0.3248 -0.1302
 7081SOL    HW130021   1.947   4.580   2.431  1.5179  0.4751  0.2167
 7081SOL    HW230022   1.963   4.430   2.437 -1.9628  0.0126 -0.3857
 7082SOL     OW30023   7.148   6.521   2.081  0.0246  0.1720  0.4790
 7082SOL    HW130024   7.239   6.540   2.105  0.3671 -0.2076 -0.4911
 7082SOL    HW230025   7.153   6.442   2.027 -0.6814  1.1690 -1.1199
 7083SOL     OW30026  10.094   5.323  11.220 -0.3897 -0.4477 -0.0931
 7083SOL    HW130027  10.029   5.290  11.281 -0.5100  2.0759  1.2670
 7083SOL    HW230028  10.168   5.350  11.274  0.8280 -1.0294 -1.3852
 7084SOL     OW30029  10.344   0.527   3.790  0.3461 -0.6822  0.2211
 7084SOL    HW130030  10.322   0.459   3.854  1.0183 -0.7067  0.4247
 7084SOL    HW230031  10.378   0.600   3.841 -1.7946  0.4423  0.1495
 7085SOL     OW30032   2.796   7.953   7.031  0.5361  0.1881  0.0881
 7085SOL    HW130033   2.871   8.006   7.006  0.1610  0.3404 -0.7491
 7085SOL    HW230034   2.812   7.930   7.122  1.0415  1.1560  0.2517
 7086SOL     OW30035   2.712  10.936   1.299 -0.1967  0.2426 -0.2025
 7086SOL    HW130036   2.738  10.928   1.207  0.4113 -0.3164  0.0113
 7086SOL    HW230037   2.617  10.942   1.296 -0.2402 -0.5818 -0.8240
 7087SOL     OW30038   3.009   4.031  11.446  0.2580  0.0785 -0.2595
 7087SOL    HW130039   2.952   3.989  11.381 -0.0916 -0.1374  0.1793
 7087SOL    HW230040   2.948   4.075  11.506  0.4540 -1.2100  0.9479
 7088SOL     OW30041   7.265   2.562  10.032  0.3477  0.1551 -0.5322
 7088SOL    HW130042   7.350   2.600  10.053  0.5824  0.4741 -1.9646
 7088SOL    HW230043   7.280   2.514   9.951 -1.0658  1.1279 -1.4112
 7089SOL     OW30044  10.921  10.812   4.286  0.0896 -0.2247  0.0014
 7089SOL    HW130045  11.003  10.792   4.331 -0.4871 -0.7632  0.8288
 7089SOL    HW230046  10.932  10.903   4.257  1.1346 -0.4194 -0.2763
 7090SOL     OW30047   2.065   6.242  12.314  0.5233 -0.3539 -0.2322
 7090SOL    HW130048   2.157   6.243  12.289  0.4767  0.0606 -0.3986
 7090SOL    HW230049   2.020   6.206  12.238  0.3389  1.2589 -0.9336
 7091SOL     OW30050   5.021   9.444   6.720 -0.4923  0.2487 -0.5256
 7091SOL    HW130051   4.980   9.410   6.640 -0.8751 -0.0814 -0.1924
 7091SOL    HW230052   4.948   9.466   6.777 -0.2145 -0.1137 -0.0198
 7092SOL     OW30053   7.530   2.442   0.568  0.4549  0.1011 -0.3959
 7092SOL    HW130054   7.457   2.498   0.596  0.2824 -0.9112  1.2738
 7092SOL    HW230055   7.488   2.370   0.521  0.0406 -1.7381  2.5447
 7093SOL     OW30056   9.492   4.770   4.791  0.4364  0.1080  0.3009
 7093SOL    HW130057   9.579   4.807   4.799  0.1118  0.8231  0.5729
 7093SOL    HW230058   9.502   4.700   4.726  1.2927 -0.1005  0.6404
 7094SOL     OW30059   2.851   5.910   3.040  0.3308  0.0262  0.5989
 7094SOL    HW130060   2.923   5.866   3.084 -1.1892  0.1305  3.4792
 7094SOL    HW230061   2.879   6.001   3.031  0.8440 -0.0890  1.0240
 7095SOL     OW30062   0.121   0.878   7.114 -0.2033 -0.2717  0.2792
 7095SOL    HW130063   0.209   0.841   7.116  0.2369  0.7619  1.4022
 7095SOL    HW230064   0.134   0.971   7.134 -1.4383  0.1583 -0.7758
 7096SOL     OW30065   0.537   0.523  11.902 -0.5722 -0.1816 -0.0105
 7096SOL    HW130066   0.475   0.459  11.937 -2.1831  1.1608 -0.3030
 7096SOL    HW230067   0.565   0.574  11.979 -2.9549  1.7849 -0.3368
 7097SOL     OW30068  10.394   7.935   5.655  0.2314  0.1680 -0.2868
 7097SOL    HW130069  10.331   8.005   5.672 -1.6422 -1.2077 -1.1005
 7097SOL    HW230070  10.443   7.925   5.736  0.3844  2.2362 -0.0938
 7098SOL     OW30071   8.103   7.753   0.310  0.2604 -0.2605 -0.0191
 7098SOL    HW130072   8.038   7.780   0.375  0.0579  1.5096 -0.8902
 7098SOL    HW230073   8.184   7.744   0.360 -0.0998  0.1218  0.6434
 7099SOL     OW30074  10.513   6.032   8.469  0.2517  0.4371 -0.0556
 7099SOL    HW130075  10.599   6.008   8.434 -0.0330 -1.9729  0.6843
 7099SOL    HW230076  10.486   6.108   8.417  1.6235 -0.4167 -2.1629
 7100SOL     OW30077   8.287   6.174   8.029  0.2017 -0.5926 -0.4825
 7100SOL    HW130078   8.249   6.097   7.985 -1.2572 -0.0896 -0.1630
 7100SOL    HW230079   8.260   6.165   8.121 -0.5784  0.6308 -0.5687
 7101SOL     OW30080   5.267   0.019   9.075 -0.1744  0.2838 -0.7167
 7101SOL    HW130081   5.360   0.013   9.056 -0.1120  1.2926 -0.8038
 7101SOL    HW230082   5.263   0.045   9.167 -0.3618  0.3945 -0.7554
 7102SOL     OW30083   2.506   4.480  12.482 -0.5373 -0.0887  0.0290
 7102SOL    HW130084   2.600   4.472  12.498 -0.3030  0.0146 -1.1860
 7102SOL    HW230085   2.479   4.555  12.535 -0.1581 -0.7693  1.2139
 7103SOL     OW30086   8.100   3.535  12.390  0.1023 -0.2366  0.4712
 7103SOL    HW130087   8.115   3.562  12.300  2.8374 -2.0969  0.2280
 7103SOL    HW230088   8.159   3.589  12.442 -1.4019  0.7726  1.1780
 7104SOL     OW30089   8.475   1.954   0.605  0.1512  0.0676  0.4289
 7104SOL    HW130090   8.474   2.030   0.662 -1.4862  1.8383 -1.7849
 7104SOL    HW230091   8.553   1.965   0.551  0.7561 -0.7023  1.1097
 7105SOL     OW30092   6.099   2.408  10.061  0.5149  0.1849 -0.3164
 7105SOL    HW130093   6.091   2.502  10.076  2.4901  0.2107  0.9416
 7105SOL    HW230094   6.082   2.368  10.146  1.8913 -0.4163 -0.2977
 7106SOL     OW30095   4.652   8.191   9.323 -0.1857 -0.1347 -0.2475
 7106SOL    HW130096   4.623   8.122   9.382  1.5067 -0.0218  0.7928
 7106SOL    HW230097   4.661   8.149   9.238 -0.2044 -0.9413  0.1475
 7107SOL     OW30098   3.025   9.546   9.917 -0.0397  0.4264  0.3408
 7107SOL    HW130099   3.009   9.478   9.983 -0.0464  0.8622  0.7930
 7107SOL    HW230100   3.043   9.625   9.968 -1.9103  1.2289 -0.1349
 7108SOL     OW30101   8.662   0.626   1.041 -0.0914 -0.0038 -0.1357
 7108SOL    HW130102   8.579   0.649   0.999 -0.3424 -0.0364  0.3422
 7108SOL    HW230103   8.645   0.542   1.084 -1.0104  1.7223  3.2199
 7109SOL     OW30104   9.690   1.966  11.489 -0.3472 -0.1518 -0.2846
 7109SOL    HW130105   9.613   1.911  11.503 -0.4848 -0.2829 -1.5089
 7109SOL    HW230106   9.728   1.934  11.408 -0.1753  1.2664 -0.7843
 7110SOL     OW30107   5.861   3.841   1.002 -0.3012 -0.5465  0.7600
 7110SOL    HW130108   5.869   3.934   1.023 -0.0713 -0.7515  1.6159
 7110SOL    HW230109   5.800   3.839   0.928  0.4164  0.3484  0.1124
 7111SOL     OW30110   8.825   1.964   3.012  0.0634  0.0708 -0.3491
 7111SOL    HW130111   8.759   1.906   3.050 -0.0478 -0.3306 -1.1195
 7111SOL    HW230112   8.814   2.047   3.059  0.6591 -0.6982  1.2243
 7112SOL     OW30113  10.772   6.052   2.665  0.4095  0.3140 -0.5567
 7112SOL    HW130114  10.693   6.078   2.617 -0.9811 -0.6465  1.0816
 7112SOL    HW230115  10.833   6.024   2.597 -1.6254 -1.4046 -1.8202
 7113SOL     OW30116   1.322   1.650   4.085  0.2540  0.3645  0.2732
 7113SOL    HW130117   1.275   1.728   4.056  0.0342 -0.0302 -0.4490
 7113SOL    HW230118   1.293   1.637   4.175 -0.8658  0.2565 -0.0825
 7114SOL     OW30119   2.271  12.579   4.283 -0.2056 -0.1445 -0.2194
 7114SOL    HW130120   2.217  12.648   4.246 -0.7875  0.0632  0.9719
 7114SOL    HW230121   2.360  12.599   4.253 -0.6261  0.0753 -1.3631
 7115SOL     OW30122   3.475   8.524   8.734  0.6763  0.1996 -0.3831
 7115SOL    HW130123   3.475   8.441   8.783  1.8329  0.0191 -0.6546
 7115SOL    HW230124   3.384   8.539   8.712  0.0711  0.3145  1.8899
 7116SOL     OW30125   7.979   2.025   0.913  0.1584 -0.2480  0.2729
 7116SOL    HW130126   7.937   2.108   0.890 -0.9359 -0.8631 -0.0124
 7116SOL    HW230127   8.054   2.019   0.853 -0.6856 -0.2140 -0.8176
 7117SOL     OW30128  12.232   1.856  11.686 -0.0937  0.1796  0.0384
 7117SOL    HW130129  12.324   1.830  11.678 -0.5603 -1.4576 -0.4547
 7117SOL    HW230130  12.208   1.887  11.599 -0.1816  0.0288  0.0103
 7118SOL     OW30131   1.490  12.289   4.223  0.1289 -0.0724  0.0709
 7118SOL    HW130132   1.424  12.354   4.197  1.3007  0.8295 -0.7715
 7118SOL    HW230133   1.572  12.323   4.188  1.7458  0.7357  4.0687
 7119SOL     OW30134   9.714   6.333   6.853  0.3372 -0.4122 -0.4614
 7119SOL    HW130135   9.771   6.389   6.801  1.3372 -0.2734  0.7385
 7119SOL    HW230136   9.773   6.271   6.896 -0.5850 -1.3179 -0.4505
 7120SOL     OW30137   4.604   9.200  10.703  0.0038  0.6051  0.2125
 7120SOL    HW130138   4.624   9.219  10.611 -0.4503  0.1652  0.0187
 7120SOL    HW230139   4.671   9.136  10.729 -0.9183 -0.6341 -0.3465
 7121SOL     OW30140   2.730   9.917   9.608 -0.0739  0.3704 -0.3205
 7121SOL    HW130141   2.798   9.983   9.593 -0.7066  0.8560 -1.1548
 7121SOL    HW230142   2.700   9.894   9.520 -1.4108  0.6142  0.0580
 7122SOL     OW30143  11.874   2.865   9.246  0.0660 -0.2664  0.8051
 7122SOL    HW130144  11.821   2.791   9.273  0.8664 -0.8650  0.7871
 7122SOL    HW230145  11.952   2.861   9.302  0.0261  0.6864  0.9497
 7123SOL     OW30146  11.243   9.316   2.916 -0.3466  0.0950  0.0969
 7123SOL    HW130147  11.248   9.327   3.011  0.7359 -0.5715  0.1352
 7123SOL    HW230148  11.162   9.360   2.891 -2.1782 -2.1360  1.6707
 7124SOL     OW30149   9.356  12.368   9.627 -0.2545 -0.8802  0.6762
 7124SOL    HW130150   9.398  12.304   9.683 -0.4281 -1.1222  0.5309
 7124SOL    HW230151   9.403  12.450   9.644  0.3337 -1.1665  0.4471
 7125SOL     OW30152   7.479   5.305   2.226 -0.4348 -0.6506 -0.4698
 7125SOL    HW130153   7.446   5.394   2.214 -1.4021 -0.5835  2.0801
 7125SOL    HW230154   7.536   5.311   2.302  0.7689 -1.9345 -1.2401
 7126SOL     OW30155   0.271   2.283   2.028  0.2086  0.3058 -0.3609
 7126SOL    HW130156   0.284   2.266   2.121 -0.0491  0.1489 -0.3511
 7126SOL    HW230157   0.193   2.340   2.026 -0.9393 -1.2119 -0.5852
 7127SOL     OW30158  11.054   3.699   8.131  0.3724  0.1695  0.0500
 7127SOL    HW130159  11.025   3.644   8.059  0.9402 -1.3885  0.9459
 7127SOL    HW230160  11.115   3.762   8.092  0.8158 -0.7706 -0.7975
 7128SOL     OW30161   3.532  12.456   3.547 -0.2583 -0.2436 -0.1541
 7128SOL    HW130162   3.566  12.387   3.489 -0.9161 -1.9491  1.3972
 7128SOL    HW230163   3.437  12.449   3.539 -0.3379  0.2068  0.3476
 7129SOL     OW30164   7.155  10.283   5.789  0.2159 -0.1016  0.6553
 7129SOL    HW130165   7.074  10.324   5.757 -0.4979 -2.7428 -1.2254
 7129SOL    HW230166   7.127  10.225   5.859  0.6732 -0.1522  0.8013
 7130SOL     OW30167   1.682   4.389   2.911 -0.3189 -0.0227  0.4406
 7130SOL    HW130168   1.654   4.370   2.821  1.5012  0.3631 -0.2601
 7130SOL    HW230169   1.626   4.334   2.966  0.3896 -2.4315 -1.1055
 7131SOL     OW30170   0.111   8.350   6.946 -0.1337 -0.0151  0.7385
 7131SOL    HW130171   0.127   8.266   6.902  0.2572  0.5437 -0.2393
 7131SOL    HW230172   0.094   8.327   7.037 -0.8374 -1.2114  0.3227
 7132SOL     OW30173   4.642   9.275   5.136 -0.0383 -0.0432 -0.0580
 7132SOL    HW130174   4.620   9.357   5.092 -0.4952 -0.1019  0.0516
 7132SOL    HW230175   4.728   9.250   5.101 -0.2425  0.0854 -0.6542
 7133SOL     OW30176   8.668   1.549   3.271  0.5475 -0.3181 -0.2490
 7133SOL    HW130177   8.706   1.522   3.355 -2.5342  1.1571  1.7988
 7133SOL    HW230178   8.612   1.475   3.246 -2.8395  1.2148  2.0354
 7134SOL     OW30179  11.398   2.452   8.437  0.1614 -0.6483  0.4320
 7134SOL    HW130180  11.349   2.502   8.371  1.1708 -2.6043 -1.9598
 7134SOL    HW230181  11.333   2.430   8.504 -0.6230  2.5599  0.9089
 7135SOL     OW30182   9.173   5.759   9.457  0.4127 -0.0044  0.6715
 7135SOL    HW130183   9.256   5.730   9.495  0.2998  1.7012  2.3404
 7135SOL    HW230184   9.136   5.679   9.418  2.3775 -0.9929  0.6906
 7136SOL     OW30185   6.962   0.516  11.326  0.5344  0.2899 -0.2003
 7136SOL    HW130186   6.905   0.475  11.392  0.9935  1.0874  0.7165
 7136SOL    HW230187   7.037   0.457  11.319 -0.1958 -0.5572 -1.1155
 7137SOL     OW30188   0.161   8.296  11.321  0.1861  0.6826  0.2797
 7137SOL    HW130189   0.139   8.385  11.349 -1.0375  0.9991 -1.5760
 7137SOL    HW230190   0.216   8.308  11.244  1.4239 -0.1974  0.9839
 7138SOL     OW30191  11.213   3.651   9.679  0.4524  0.6483 -0.8812
 7138SOL    HW130192  11.199   3.580   9.741  1.4285  0.9559 -0.2930
 7138SOL    HW230193  11.281   3.619   9.620 -0.5038  0.3399 -1.8471
 7139SOL     OW30194   0.669   9.840   9.871  0.3176 -0.2944  0.0681
 7139SOL    HW130195   0.603   9.895   9.828 -1.0950 -0.2055  2.1867
 7139SOL    HW230196   0.717   9.800   9.799 -1.5651  0.2242 -1.5903
 7140SOL     OW30197   1.293   1.940   9.152 -0.2368  0.1349 -0.0761
 7140SOL    HW130198   1.232   1.951   9.225 -0.1446  0.3091 -0.0261
 7140SOL    HW230199   1.369   1.994   9.176 -0.6903  1.1507 -0.8585
 7141SOL     OW30200   5.046   7.506   5.253  0.0422  0.2029  0.2920
 7141SOL    HW130201   5.036   7.437   5.318  0.4791  0.5970  0.7907
 7141SOL    HW230202   4.985   7.483   5.183 -0.8920  0.0984  1.1191
 7142SOL     OW30203  11.302  12.291   2.105 -0.5376 -0.5354 -0.0260
 7142SOL    HW130204  11.390  12.309   2.073 -0.1402 -2.0404  0.1119
 7142SOL    HW230205  11.256  12.252   2.031 -0.8502 -0.4209  0.1051
 7143SOL     OW30206   0.154  10.465   2.962 -0.2565 -1.0546 -0.1283
 7143SOL    HW130207   0.206  10.467   2.882 -1.8146  0.8520 -1.1823
 7143SOL    HW230208   0.179  10.544   3.009  0.3705 -1.9682  1.1248
 7144SOL     OW30209   2.882   5.223   7.538  0.5577  0.1587 -0.3393
 7144SOL    HW130210   2.915   5.313   7.540 -0.1208  0.4094  0.1675
 7144SOL    HW230211   2.882   5.200   7.446 -0.2669  1.0712 -0.5837
 7145SOL     OW30212   4.071   3.505   6.591 -0.1553  0.7251  0.0497
 7145SOL    HW130213   4.041   3.581   6.541  0.2000  1.7216  1.2880
 7145SOL    HW230214   3.997   3.444   6.590 -0.0014  0.5089 -2.0232
 7146SOL     OW30215   2.186   0.306   6.385 -0.5376 -0.7669 -0.0302
 7146SOL    HW130216   2.200   0.352   6.302 -0.7467 -2.2610 -0.9440
 7146SOL    HW230217   2.269   0.313   6.432 -0.8892  1.3997  0.3356
 7147SOL     OW30218  11.828   3.737   6.200 -0.2793 -0.2334 -0.2865
 7147SOL    HW130219  11.747   3.700   6.166  1.3083 -1.2532 -3.3654
 7147SOL    HW230220  11.883   3.661   6.220  0.7305  0.4353 -0.4385
 7148SOL     OW30221   8.413   4.182   6.777  0.1523 -0.1376  0.1487
 7148SOL    HW130222   8.460   4.200   6.858  1.7127 -0.7718 -0.5846
 7148SOL    HW230223   8.415   4.087   6.768 -1.0507 -0.1546 -0.0430
 7149SOL     OW30224   7.484   0.152  10.109  0.7147  0.0987 -0.3979
 7149SOL    HW130225   7.410   0.090  10.104  0.0538  0.8409 -0.0366
 7149SOL    HW230226   7.542   0.126  10.038  1.3266 -2.0437  0.7721
 7150SOL     OW30227   7.590   2.927  10.675 -0.3386  0.1616 -0.4705
 7150SOL    HW130228   7.510   2.971  10.644 -0.4735 -1.2916 -2.3822
 7150SOL    HW230229   7.568   2.896  10.762 -1.6835  0.2637 -0.7494
 7151SOL     OW30230  10.330   7.105   7.192 -0.3654 -0.2374  0.3210
 7151SOL    HW130231  10.394   7.171   7.165  0.4575 -1.2069 -0.1986
 7151SOL    HW230232  10.383   7.029   7.217 -1.2854 -0.7638  0.7263
 7152SOL     OW30233   7.567   2.894   8.433  0.5186  0.0325  0.0532
 7152SOL    HW130234   7.541   2.960   8.497  0.6063  1.0598 -0.9340
 7152SOL    HW230235   7.652   2.923   8.402 -0.0403  0.2193 -1.3862
 7153SOL     OW30236   5.499   8.253   7.403 -0.0218 -0.0878 -0.1102
 7153SOL    HW130237   5.511   8.326   7.464 -0.0135 -1.3451  1.4542
 7153SOL    HW230238   5.567   8.190   7.428 -1.1401 -1.3792 -0.2455
 7154SOL     OW30239   8.109   6.271   4.061 -0.5774  0.3934 -0.3827
 7154SOL    HW130240   8.124   6.266   4.156  0.1451 -1.0171 -0.5447
 7154SOL    HW230241   8.183   6.223   4.023 -0.3720  1.6839 -1.7225
 7155SOL     OW30242   7.913   4.578   2.130 -0.1977  0.2624  0.1287
 7155SOL    HW130243   7.992   4.631   2.142 -0.6666  1.0013  0.0022
 7155SOL    HW230244   7.841   4.636   2.157 -0.7932  0.0165 -0.9083
 7156SOL     OW30245   3.487   4.391   2.448  0.1777  0.1702  0.2566
 7156SOL    HW130246   3.467   4.300   2.472  0.2644 -0.1878 -0.9533
 7156SOL    HW230247   3.491   4.437   2.532 -0.3323 -0.8431  0.8676
 7157SOL     OW30248   3.642  10.269   3.505  0.0734  0.1231  0.3662
 7157SOL    HW130249   3.728  10.233   3.480 -0.3159 -0.9227  0.4880
 7157SOL    HW230250   3.582  10.195   3.494 -1.0252  1.1538 -0.8720
 7158SOL     OW30251   8.566   9.205   3.643 -0.1952 -0.2261 -0.3619
 7158SOL    HW130252   8.570   9.300   3.633  1.2768 -0.3788 -1.6920
 7158SOL    HW230253   8.551   9.173   3.554 -0.2762 -1.2515  0.0124
 7159SOL     OW30254   3.396   0.113   2.238  0.9708 -0.0435 -0.6864
 7159SOL    HW130255   3.401   0.204   2.268  0.9664 -0.8812  2.1840
 7159SOL    HW230256   3.481   0.075   2.262  0.0079 -1.4351  0.7875
 7160SOL     OW30257   5.288   9.148   2.246  0.0397  0.0032  0.3525
 7160SOL    HW130258   5.319   9.238   2.252 -0.9993  0.3801  0.1934
 7160SOL    HW230259   5.287   9.130   2.152  0.8430 -0.4041  0.4079
 7161SOL     OW30260   0.240   3.120   3.807 -0.2406 -0.3623  0.5762
 7161SOL    HW130261   0.323   3.167   3.809  1.4779 -3.1225 -0.6364
 7161SOL    HW230262   0.190   3.163   3.737  1.8655 -1.1523 -1.5285
 7162SOL     OW30263  12.288  11.213  11.476  0.1635  0.1399  0.2572
 7162SOL    HW130264  12.295  11.297  11.429  1.5360  0.2219  0.5682
 7162SOL    HW230265  12.304  11.147  11.409  0.1712  0.1719  0.2279
 7163SOL     OW30266   8.405   9.626   1.109 -0.3281  0.3232 -0.2151
 7163SOL    HW130267   8.397   9.614   1.204 -1.2622  2.6182  0.0572
 7163SOL    HW230268   8.426   9.718   1.099 -0.5802  0.1876 -2.2871
 7164SOL     OW30269  12.057  10.258   4.009  0.3941 -0.0044 -0.0236
 7164SOL    HW130270  12.099  10.186   3.962  0.2237  0.3364 -0.7180
 7164SOL    HW230271  11.974  10.271   3.963 -0.9690 -1.2780  1.8756
 7165SOL     OW30272   1.012  11.306  11.510  0.0837  0.4054 -0.1322
 7165SOL    HW130273   0.961  11.287  11.431 -0.6454 -0.4488  0.5199
 7165SOL    HW230274   1.018  11.401  11.513  2.0316  0.4430 -2.4014
 7166SOL     OW30275   7.504   1.644   0.564 -0.4954 -0.0857  0.4182
 7166SOL    HW130276   7.414   1.662   0.592 -0.0054  1.5563  1.0058
 7166SOL    HW230277   7.546   1.606   0.641 -0.8191 -1.4371 -0.0406
 7167SOL     OW30278   9.727   7.812  11.159 -0.3200 -0.2992  0.3361
 7167SOL    HW130279   9.680   7.840  11.237 -0.9601 -0.1481 -0.0981
 7167SOL    HW230280   9.779   7.888  11.134  0.6920 -0.6858  1.2038
 7168SOL     OW30281  12.056  10.676  10.265  0.3126 -0.0319  0.0009
 7168SOL    HW130282  12.052  10.590  10.222 -0.1310  0.0506 -0.1320
 7168SOL    HW230283  12.104  10.660  10.347  0.6450 -0.3093 -0.2479
 7169SOL     OW30284   0.571  12.061   4.385  0.3266 -0.1652  0.4495
 7169SOL    HW130285   0.527  11.984   4.419 -1.9672  0.2127 -1.3834
 7169SOL    HW230286   0.564  12.053   4.290  0.9185  1.7920  0.1817
 7170SOL     OW30287   3.686   9.406   2.966  0.4282 -0.0871  0.3543
 7170SOL    HW130288   3.644   9.442   3.043  0.9094  2.1698 -0.3758
 7170SOL    HW230289   3.764   9.460   2.953  0.1304 -0.1216 -1.9587
 7171SOL     OW30290   2.537   8.361  11.535 -0.3132 -0.0502 -0.6095
 7171SOL    HW130291   2.491   8.354  11.618 -0.2408  0.8554 -0.4767
 7171SOL    HW230292   2.613   8.303  11.544 -0.8499 -0.7339 -0.4315
 7172SOL     OW30293   8.525   6.133   8.420 -0.0330  0.0937 -0.1508
 7172SOL    HW130294   8.488   6.158   8.505  1.2935  0.4376  0.3599
 7172SOL    HW230295   8.573   6.211   8.391 -0.4930 -0.0125 -1.2443
 7173SOL     OW30296   7.651   5.196   4.726 -0.0090 -0.0044 -0.2984
 7173SOL    HW130297   7.736   5.203   4.682 -0.9230 -3.1936 -2.8944
 7173SOL    HW230298   7.589   5.236   4.665 -0.7175  0.0840  0.4579
 7174SOL     OW30299   3.641  12.111   7.024  0.1593 -0.0857  0.2607
 7174SOL    HW130300   3.720  12.061   7.003  0.1209 -0.1958  0.3736
 7174SOL    HW230301   3.673  12.196   7.053  0.2622 -0.3109  0.8274
 7175SOL     OW30302   2.554  10.051   5.522 -0.0218  0.5283  0.4925
 7175SOL    HW130303   2.585   9.962   5.541  0.9238  0.5858 -0.6812
 7175SOL    HW230304   2.483  10.065   5.584 -1.1270 -1.5646 -0.2015
 7176SOL     OW30305   2.716   4.720   5.163 -0.0990  0.0229 -0.1564
 7176SOL    HW130306   2.642   4.699   5.106 -0.2444 -0.4652  0.2061
 7176SOL    HW230307   2.700   4.811   5.189 -1.1290 -0.3922  0.7446
 7177SOL     OW30308  12.288   6.746   7.652 -0.3202  0.5256 -0.1518
 7177SOL    HW130309  12.252   6.657   7.647  2.3787 -0.6513 -0.4865
 7177SOL    HW230310  12.212   6.802   7.664 -2.0750 -1.9130  1.0652
 7178SOL     OW30311  12.417   4.783  10.102  0.0059 -0.7920  0.2695
 7178SOL    HW130312  12.325   4.807  10.101 -0.3676 -2.1220  1.2821
 7178SOL    HW230313  12.418   4.688  10.095  1.2044 -0.9672  2.0445
 7179SOL     OW30314  12.453  12.494   4.049 -0.3475 -0.1059 -0.1246
 7179SOL    HW130315  12.383  12.510   4.111  0.0529 -1.3020  0.6788
 7179SOL    HW230316  12.517  12.563   4.065  0.4784 -1.2688  1.9162
 7180SOL     OW30317   5.609  12.466   9.419  0.4941  0.1733  0.6838
 7180SOL    HW130318   5.593  12.409   9.494 -2.3441 -0.7048 -0.4280
 7180SOL    HW230319   5.680  12.423   9.371  0.2805 -0.9207  1.3131
 7181SOL     OW30320  10.609   0.942   9.537  0.2395 -0.0775  0.4290
 7181SOL    HW130321  10.548   0.984   9.598 -1.3521  2.3605 -2.5370
 7181SOL    HW230322  10.572   0.855   9.524  0.3345 -0.4792  2.4373
 7182SOL     OW30323  10.840  11.603   3.889  0.3946 -0.2058  0.2814
 7182SOL    HW130324  10.790  11.631   3.966 -1.2234 -0.9900 -0.4428
 7182SOL    HW230325  10.877  11.518   3.913 -2.1129 -1.6261 -0.5695
 7183SOL     OW30326   7.240   8.150   1.538 -0.2373 -0.3001  0.1912
 7183SOL    HW130327   7.330   8.172   1.563 -0.2807  0.3430 -0.2017
 7183SOL    HW230328   7.248   8.067   1.490  0.2274  0.0797 -0.4027
 7184SOL     OW30329   5.774   1.221   9.089  0.1118 -0.2891 -0.0584
 7184SOL    HW130330   5.736   1.133   9.100  1.1020 -0.3985  4.4697
 7184SOL    HW230331   5.700   1.280   9.104  0.1896 -0.4627  1.1631
 7185SOL     OW30332   2.574  12.048   1.636 -0.4896  0.1430  0.3111
 7185SOL    HW130333   2.563  12.125   1.691 -0.9704 -0.4811  1.1082
 7185SOL    HW230334   2.486  12.011   1.628 -0.4663  0.3603 -1.0935
 7186SOL     OW30335  10.645   1.724   5.842 -0.4144  0.0151 -0.2350
 7186SOL    HW130336  10.621   1.782   5.914  1.5385  0.7900 -0.1543
 7186SOL    HW230337  10.593   1.645   5.857  0.5288 -0.1987  2.5324
 7187SOL     OW30338   5.514   3.569   4.176  0.0972 -0.1840  0.6538
 7187SOL    HW130339   5.432   3.525   4.198 -0.1991 -1.0476 -1.8526
 7187SOL    HW230340   5.489   3.661   4.166 -0.0692 -0.0475  2.0605
 7188SOL     OW30341   2.802   6.081   3.969  0.2092  0.0110  0.2181
 7188SOL    HW130342   2.836   6.162   3.931  0.2098  0.9575  2.1176
 7188SOL    HW230343   2.871   6.017   3.954  0.3787  0.4511 -0.9654
 7189SOL     OW30344  11.543  10.761   6.238  0.1722 -0.1181  0.0067
 7189SOL    HW130345  11.494  10.807   6.170 -1.0065 -1.0211  0.2072
 7189SOL    HW230346  11.489  10.772   6.317  1.0163  0.0582  0.5774
 7190SOL     OW30347  11.783   5.861   5.022 -0.2863  0.1210  0.0241
 7190SOL    HW130348  11.689   5.871   5.006 -0.3068  0.0199  0.0783
 7190SOL    HW230349  11.788   5.802   5.098 -0.1449 -1.3833 -1.1010
 7191SOL     OW30350   5.068   5.261   5.160  0.3587  0.1585 -0.2984
 7191SOL    HW130351   5.106   5.202   5.095  0.9130  0.7544 -0.5335
 7191SOL    HW230352   5.032   5.334   5.109  1.3559  0.9415  0.0692
 7192SOL     OW30353  11.601   0.510   9.762 -0.1932  0.4837  0.2880
 7192SOL    HW130354  11.526   0.477   9.712  0.6227 -1.2124  0.1175
 7192SOL    HW230355  11.609   0.449   9.836  1.6374 -0.0390 -0.2785
 7193SOL     OW30356   4.481   2.143   7.364 -0.2998 -0.0444  0.2954
 7193SOL    HW130357   4.397   2.097   7.362  0.2282 -1.0540  0.1794
 7193SOL    HW230358   4.546   2.072   7.360  0.6031  0.7635 -3.4631
 7194SOL     OW30359   1.633  10.734  10.407  0.2047  0.2277  0.2008
 7194SOL    HW130360   1.691  10.809  10.417 -1.2858  1.4701 -0.0011
 7194SOL    HW230361   1.571  10.761  10.339  0.7109 -1.9165 -1.2181
 7195SOL     OW30362   8.985  10.823  12.454  0.1098  0.7373  0.1313
 7195SOL    HW130363   8.998  10.896  12.515 -0.9038  0.5511  0.5817
 7195SOL    HW230364   9.035  10.751  12.491  0.0854  0.8368  0.3573
 7196SOL     OW30365   6.188   3.854   2.253  0.3603  0.4458  0.1461
 7196SOL    HW130366   6.239   3.773   2.259  0.6285  0.5197 -0.8903
 7196SOL    HW230367   6.231   3.903   2.183 -1.0011  0.6068 -0.6027
 7197SOL     OW30368  12.154  11.349   6.931  1.2498  0.2780  0.1838
 7197SOL    HW130369  12.128  11.315   7.016  0.1931  1.0715  0.1993
 7197SOL    HW230370  12.238  11.307   6.913 -0.0607 -2.5347  0.0745
 7198SOL     OW30371   1.565   6.839   4.822  0.0141 -0.2432 -0.2476
 7198SOL    HW130372   1.596   6.790   4.746  1.0375 -0.8477  0.5301
 7198SOL    HW230373   1.642   6.849   4.877 -0.7430 -0.0011  0.8075
 7199SOL     OW30374   6.856   1.006  11.483 -0.1233 -0.0560 -0.5118
 7199SOL    HW130375   6.864   1.099  11.461  0.4101 -0.1813 -0.8550
 7199SOL    HW230376   6.944   0.980  11.510 -1.0414  0.6103  3.9104
 7200SOL     OW30377   3.163   1.264   0.983  0.3255 -0.0745  0.8757
 7200SOL    HW130378   3.138   1.217   0.903  2.2410 -1.2962  0.9252
 7200SOL    HW230379   3.242   1.219   1.013  0.1171  0.8859  3.0199
 7201SOL     OW30380   7.006  12.415   2.597 -0.1045 -0.2809  0.0863
 7201SOL    HW130381   6.937  12.473   2.629  0.8320 -0.2346  2.2375
 7201SOL    HW230382   7.011  12.346   2.664  2.1807 -0.0582  0.2222
 7202SOL     OW30383   6.920   5.112  12.481  0.3135  0.0397  0.2920
 7202SOL    HW130384   6.908   5.020  12.503 -0.6521  0.0851  0.0155
 7202SOL    HW230385   6.834   5.140  12.448  0.3169  1.2970  1.2931
 7203SOL     OW30386   6.364   8.350   7.020  0.2725 -0.3671  0.0008
 7203SOL    HW130387   6.429   8.382   7.082 -0.7736 -1.1381  1.5702
 7203SOL    HW230388   6.357   8.419   6.955  1.3363  0.5262  0.7966
 7204SOL     OW30389   4.552   9.196   4.280 -0.1235 -0.5395 -0.2336
 7204SOL    HW130390   4.636   9.154   4.297 -0.3342 -0.8375  0.0898
 7204SOL    HW230391   4.508   9.137   4.219 -0.9112 -1.4291  1.1527
 7205SOL     OW30392  10.086   4.336   7.276 -0.0371 -0.1657 -0.1405
 7205SOL    HW130393  10.102   4.421   7.234 -0.1448 -1.0941 -2.1973
 7205SOL    HW230394  10.162   4.283   7.250  0.1668 -0.6346  1.3488
 7206SOL     OW30395   7.986   4.853  11.121  0.7094 -0.0587  0.2673
 7206SOL    HW130396   8.027   4.846  11.035  1.1660 -0.3961  0.5108
 7206SOL    HW230397   8.041   4.914  11.169 -0.2047  1.0561 -0.0552
 7207SOL     OW30398   1.436   1.395  11.972  0.6943 -0.6736  0.5770
 7207SOL    HW130399   1.375   1.323  11.958  0.4157 -0.1566 -0.9496
 7207SOL    HW230400   1.444   1.438  11.887 -0.1687  1.9267  1.7255
 7208SOL     OW30401   6.336   8.183   0.334 -0.1248  0.1833 -0.0883
 7208SOL    HW130402   6.325   8.200   0.427  4.0836  2.0483  0.2813
 7208SOL    HW230403   6.248   8.192   0.298 -1.7175  0.6609  3.4671
 7209SOL     OW30404   9.334   5.653   8.901 -0.0505 -0.5222  0.1115
 7209SOL    HW130405   9.352   5.565   8.868  3.3338  0.4544 -1.0165
 7209SOL    HW230406   9.259   5.683   8.849 -0.0093 -1.9861 -0.8722
 7210SOL     OW30407   7.995   5.503   0.043 -0.7848  0.1539 -0.2504
 7210SOL    HW130408   8.077   5.453   0.048 -0.7989  0.1995  3.2089
 7210SOL    HW230409   7.928   5.438   0.024 -0.2120 -0.2397 -0.9700
 7211SOL     OW30410   9.388  11.917   3.197 -0.1419  0.4040 -0.0132
 7211SOL    HW130411   9.362  11.912   3.105 -2.3822  0.2383  0.5838
 7211SOL    HW230412   9.316  11.875   3.245  1.7918 -1.1667  1.7106
 7212SOL     OW30413   9.490  10.822  10.205 -0.0812  0.4578  0.1295
 7212SOL    HW130414   9.582  10.846  10.215  0.0727 -0.3006  0.5810
 7212SOL    HW230415   9.450  10.846  10.288  0.2460 -1.5488  0.9119
 7213SOL     OW30416   5.050   1.048   1.000 -0.2449 -0.5412  0.2692
 7213SOL    HW130417   4.983   1.056   1.069  0.1681 -1.3980  0.7928
 7213SOL    HW230418   5.000   1.042   0.919 -0.7228  1.2907  0.3853
 7214SOL     OW30419   4.586   1.656  10.852  0.4095  0.0208  0.3761
 7214SOL    HW130420   4.610   1.714  10.779  0.4490 -1.7077 -1.0263
 7214SOL    HW230421   4.670   1.631  10.891  0.4606 -0.2275  0.1001
 7215SOL     OW30422  11.998  11.421   8.839  0.0681  0.7829 -0.2733
 7215SOL    HW130423  12.058  11.347   8.835 -1.0462 -0.2102  0.6343
 7215SOL    HW230424  12.018  11.472   8.761  0.6344 -0.6467 -1.1081
 7216SOL     OW30425  10.106   8.629  11.136  0.0602  0.1999  0.1515
 7216SOL    HW130426  10.146   8.542  11.125 -0.3230 -0.0896  0.9833
 7216SOL    HW230427  10.033   8.629  11.074  0.0758 -0.0646  0.1322
 7217SOL     OW30428   2.710  12.037   5.933  0.4648 -0.1689  0.3099
 7217SOL    HW130429   2.793  12.041   5.886  0.9951 -2.5797  0.9112
 7217SOL    HW230430   2.725  11.975   6.004 -1.8453 -0.7035  0.4235
 7218SOL     OW30431   2.154   0.214  11.242 -0.8561 -0.2925  0.9522
 7218SOL    HW130432   2.223   0.169  11.290  0.4684  0.8269  0.1538
 7218SOL    HW230433   2.168   0.307  11.260 -2.2382 -0.0417  0.8706
 7219SOL     OW30434   2.951   5.734   2.321 -0.2506 -0.0081  0.0970
 7219SOL    HW130435   2.890   5.719   2.249  0.4435  2.0852 -1.0125
 7219SOL    HW230436   2.894   5.755   2.396 -0.9496  1.6540 -0.8486
 7220SOL     OW30437   1.368   0.145   5.709  0.1298  0.1446 -0.1966
 7220SOL    HW130438   1.447   0.199   5.720  1.3983 -1.8309  1.0571
 7220SOL    HW230439   1.386   0.093   5.630  0.4091 -0.7769  0.4571
 7221SOL     OW30440   8.686   5.535   5.741  0.5894  0.3495  0.2836
 7221SOL    HW130441   8.675   5.551   5.647  0.6769  0.6165  0.3154
 7221SOL    HW230442   8.598   5.520   5.774  0.6766 -0.9720 -0.0523
 7222SOL     OW30443   6.527  10.664   3.854  0.3818  0.7063  1.1023
 7222SOL    HW130444   6.611  10.679   3.810 -0.6368 -1.3349 -1.9223
 7222SOL    HW230445   6.474  10.740   3.830 -0.3160 -0.5866 -1.9745
 7223SOL     OW30446   8.078   2.500   7.170 -0.2409  0.0036 -0.2678
 7223SOL    HW130447   7.995   2.467   7.137 -0.6324 -0.1189  0.7932
 7223SOL    HW230448   8.105   2.437   7.236  0.0608  0.6818  0.2792
 7224SOL     OW30449   6.327   1.004   8.507  0.2017 -0.9260  0.1493
 7224SOL    HW130450   6.406   0.994   8.453  0.0146  3.4711 -1.3182
 7224SOL    HW230451   6.359   0.998   8.597  2.4125  1.0959 -0.3873
 7225SOL     OW30452   5.421  11.706   1.150  0.3774  0.8176 -0.0842
 7225SOL    HW130453   5.479  11.635   1.174 -0.7098  0.4689  1.7303
 7225SOL    HW230454   5.424  11.766   1.225  0.4663  2.1755 -1.1227
 7226SOL     OW30455   1.609  10.171   8.109 -0.5728 -0.2537  0.3487
 7226SOL    HW130456   1.598  10.091   8.058  0.5849 -1.5129  2.0064
 7226SOL    HW230457   1.551  10.160   8.184  1.5560 -0.7924  1.9845
 7227SOL     OW30458   4.525   5.138  11.639  0.6472 -0.3263  0.1399
 7227SOL    HW130459   4.442   5.122  11.685  0.2812  0.8606 -0.0607
 7227SOL    HW230460   4.547   5.054  11.599  0.5426 -1.1698  1.7780
 7228SOL     OW30461   6.914   0.628  12.137  0.3013  0.5583  0.1333
 7228SOL    HW130462   6.826   0.596  12.160  0.5906 -0.9602 -0.7163
 7228SOL    HW230463   6.963   0.624  12.219  0.5982 -2.3230 -0.0532
 7229SOL     OW30464   9.105   7.080   5.833 -0.0609  0.2861  0.1166
 7229SOL    HW130465   9.057   7.067   5.915 -0.6920 -0.3182 -0.3460
 7229SOL    HW230466   9.118   6.992   5.798 -2.4600  0.6320 -1.9460
 7230SOL     OW30467   3.950   9.055   5.261  0.2573  0.1262 -0.5178
 7230SOL    HW130468   3.897   9.085   5.187  0.4006  0.0835 -0.6389
 7230SOL    HW230469   3.898   9.076   5.338 -0.5471 -1.1176 -0.6954
 7231SOL     OW30470   6.843   5.140   3.314 -0.4332  0.0025 -0.5407
 7231SOL    HW130471   6.926   5.138   3.266 -0.1675 -0.5594 -0.0815
 7231SOL    HW230472   6.869   5.159   3.404 -0.8271  0.0524 -0.4379
 7232SOL     OW30473   1.116   2.598   0.322  0.1394 -0.3540 -0.1261
 7232SOL    HW130474   1.204   2.571   0.296 -0.0039 -0.3642 -0.6173
 7232SOL    HW230475   1.057   2.538   0.275 -0.1726  0.5856 -0.9837
 7233SOL     OW30476   1.384   7.423   2.292  0.1058 -0.5019  0.0221
 7233SOL    HW130477   1.436   7.414   2.212 -1.1087 -1.2901 -0.7090
 7233SOL    HW230478   1.371   7.517   2.301  1.7369 -0.2733  0.2971
 7234SOL     OW30479   0.444   8.645   2.121 -0.3234 -0.5114 -0.4543
 7234SOL    HW130480   0.537   8.663   2.138 -0.7266  0.8719  0.4042
 7234SOL    HW230481   0.405   8.731   2.106 -1.2633 -1.1712 -1.9750
 7235SOL     OW30482   9.369   5.015  10.001 -0.3065  0.3320  0.0715
 7235SOL    HW130483   9.464   5.022  10.009 -0.2333 -1.8987  2.0420
 7235SOL    HW230484   9.345   4.941  10.056 -3.0557 -0.1103 -1.5237
 7236SOL     OW30485   9.424   3.087   4.957 -0.3495  0.1853 -0.5077
 7236SOL    HW130486   9.475   3.134   5.024  1.1167 -0.7275 -0.9364
 7236SOL    HW230487   9.476   3.096   4.877 -1.2305 -0.1926 -1.1371
 7237SOL     OW30488   4.368   4.783   1.045  0.1171 -0.0773 -0.1061
 7237SOL    HW130489   4.462   4.799   1.037  0.3306  0.4460  2.4452
 7237SOL    HW230490   4.361   4.688   1.051  0.2975 -0.2173 -1.7652
 7238SOL     OW30491   1.750   9.789   3.177 -0.0134  0.5956 -0.0356
 7238SOL    HW130492   1.800   9.863   3.143  0.0044 -0.0572 -1.4931
 7238SOL    HW230493   1.662   9.826   3.192  0.1018  1.0209 -0.3626
 7239SOL     OW30494   7.457   1.768   6.071 -0.4570 -0.1603 -0.0819
 7239SOL    HW130495   7.374   1.788   6.027  0.0753  1.5864 -0.3713
 7239SOL    HW230496   7.441   1.788   6.163 -0.0950  1.1694 -0.2857
 7240SOL     OW30497   6.975   8.146   1.688 -0.4083 -0.2609  0.4775
 7240SOL    HW130498   6.902   8.123   1.630 -1.1769  2.0680  0.4205
 7240SOL    HW230499   7.052   8.143   1.631 -1.2254  2.6469 -0.9932
 7241SOL     OW30500   6.583  12.533  10.545  0.0672  0.1804 -0.4092
 7241SOL    HW130501   6.606  12.531  10.452  0.5616  1.6990 -0.3404
 7241SOL    HW230502   6.572  12.441  10.569  1.2561 -0.3151 -1.6433
 7242SOL     OW30503  10.304   1.491   6.661  0.0447 -0.0808 -0.2709
 7242SOL    HW130504  10.217   1.479   6.698 -0.0821 -1.3131 -0.9171
 7242SOL    HW230505  10.334   1.574   6.697 -1.4513  0.4423 -0.1513
 7243SOL     OW30506  11.580   3.796   3.509  0.7845 -0.0563 -0.5157
 7243SOL    HW130507  11.499   3.770   3.552  0.8548 -0.1391 -0.4307
 7243SOL    HW230508  11.553   3.853   3.437  0.7867  2.0442  1.0606
 7244SOL     OW30509   5.126   6.032   5.154 -0.1094 -0.0523 -0.7401
 7244SOL    HW130510   5.137   5.947   5.197 -1.7055  0.0321 -0.1055
 7244SOL    HW230511   5.146   6.096   5.222 -0.4191  0.0747 -0.7649
 7245SOL     OW30512   1.557  11.560   0.958 -0.0446  0.2187 -0.5340
 7245SOL    HW130513   1.599  11.478   0.986  0.4941  0.8445  0.5555
 7245SOL    HW230514   1.525  11.542   0.870  0.9504 -0.8477 -0.6977
 7246SOL     OW30515   1.737   4.606   9.423  0.1827  0.3019 -1.0433
 7246SOL    HW130516   1.779   4.532   9.379 -0.4183  0.0678 -1.2293
 7246SOL    HW230517   1.662   4.628   9.368 -0.3880  0.2146 -0.3205
 7247SOL     OW30518   7.860   0.960   8.291 -0.0912 -0.6462  0.0251
 7247SOL    HW130519   7.939   0.913   8.264 -0.5893 -0.9299 -0.9993
 7247SOL    HW230520   7.788   0.899   8.273 -0.7476  0.4424 -1.2799
 7248SOL     OW30521   5.616  12.257   1.470 -0.0233  0.1495  0.3983
 7248SOL    HW130522   5.576  12.339   1.441  0.3262  0.4535  0.7695
 7248SOL    HW230523   5.693  12.246   1.415 -0.0004  0.1329  0.4334
 7249SOL     OW30524  12.076   0.471   9.895 -0.5635 -0.2060 -0.3763
 7249SOL    HW130525  12.000   0.524   9.921  0.5699  1.8087 -0.9428
 7249SOL    HW230526  12.058   0.447   9.804 -0.4253  0.4750 -0.5867
 7250SOL     OW30527   8.277   9.165   1.004  0.6294 -0.3056  0.5014
 7250SOL    HW130528   8.338   9.232   0.976  0.9893 -0.8971 -0.1548
 7250SOL    HW230529   8.280   9.168   1.100 -0.8285  1.9253  0.5532
 7251SOL     OW30530  11.126  10.536   2.585  0.0911  0.3181  0.4025
 7251SOL    HW130531  11.158  10.491   2.663 -0.6106 -0.1197  0.4522
 7251SOL    HW230532  11.089  10.618   2.617 -1.3484 -0.4138  0.7268
 7252SOL     OW30533   6.203   0.545  10.938  0.2231 -0.5243 -0.3276
 7252SOL    HW130534   6.206   0.476  10.872 -1.2664 -1.6427  0.7094
 7252SOL    HW230535   6.260   0.513  11.008 -0.7598 -0.9369  0.3175
 7253SOL     OW30536   3.224   1.772  11.528 -0.1061 -0.2900 -0.4261
 7253SOL    HW130537   3.208   1.679  11.541 -0.2601 -0.1280  0.6547
 7253SOL    HW230538   3.146   1.803  11.482  0.3001 -0.8375 -1.4964
 7254SOL     OW30539  11.087   4.579   5.280 -1.0129 -0.2742 -0.5623
 7254SOL    HW130540  11.021   4.531   5.329  0.3596 -2.3521 -0.6349
 7254SOL    HW230541  11.044   4.603   5.197 -1.6142 -1.7743 -0.7065
 7255SOL     OW30542   4.345   5.538  10.313  0.2658 -0.1375  0.8522
 7255SOL    HW130543   4.275   5.481  10.343  0.4054 -0.6284  0.2436
 7255SOL    HW230544   4.425   5.488  10.327  0.2513 -1.0106 -1.6962
 7256SOL     OW30545   0.316   4.768  12.089 -0.3247  0.4971 -0.0738
 7256SOL    HW130546   0.310   4.753  11.994  2.0134  2.3573 -0.6058
 7256SOL    HW230547   0.226   4.789  12.115 -1.1785 -0.9148 -1.6653
 7257SOL     OW30548  12.325   6.039  12.446  0.1188 -0.2079  0.1120
 7257SOL    HW130549  12.410   6.004  12.420  0.3358  1.6078 -1.9468
 7257SOL    HW230550  12.346   6.115  12.500 -0.3392 -2.2968  3.5430
 7258SOL     OW30551   6.331   7.674   2.077  0.4765  0.2002 -0.3247
 7258SOL    HW130552   6.413   7.659   2.125 -0.0856  0.7148  0.8577
 7258SOL    HW230553   6.294   7.752   2.118  0.0529  0.7759 -1.7717
 7259SOL     OW30554   5.956   8.048   5.793 -1.0276 -0.0033 -0.2825
 7259SOL    HW130555   5.942   7.992   5.869 -1.4927 -1.2364 -1.2357
 7259SOL    HW230556   6.005   8.123   5.827 -0.7955 -0.7563  1.1256
 7260SOL     OW30557   1.891   8.205   6.182  0.3171  0.4642 -0.0037
 7260SOL    HW130558   1.870   8.214   6.275  0.9545  2.5158 -0.0000
 7260SOL    HW230559   1.987   8.206   6.180  0.3050  0.5297 -0.6798
 7261SOL     OW30560   8.844  11.327   3.695  0.3256 -0.3849 -0.0682
 7261SOL    HW130561   8.917  11.349   3.752  0.0270  0.6980 -0.0784
 7261SOL    HW230562   8.882  11.273   3.626  0.7840 -1.2447  0.8490
 7262SOL     OW30563   6.854  11.340   4.770  0.1570 -0.9302 -0.0481
 7262SOL    HW130564   6.835  11.394   4.693  2.3950 -0.6156 -0.4439
 7262SOL    HW230565   6.929  11.383   4.811  1.2984 -3.0916  0.2600
 7263SOL     OW30566   5.172   6.686  10.515 -0.9005  0.5167  0.2101
 7263SOL    HW130567   5.143   6.628  10.585  2.5138 -1.2269  0.4213
 7263SOL    HW230568   5.172   6.631  10.437  3.0544 -0.2293  0.5370
 7264SOL     OW30569   7.905   4.478   1.571  0.3069  0.2236  0.2290
 7264SOL    HW130570   7.953   4.432   1.502  0.2984 -2.1553  1.6977
 7264SOL    HW230571   7.896   4.414   1.641 -1.1544  2.0120  1.7986
 7265SOL     OW30572   8.188  10.687   1.543 -0.1120  0.0143 -0.2925
 7265SOL    HW130573   8.162  10.612   1.596  1.1752  1.1767  2.1463
 7265SOL    HW230574   8.107  10.718   1.504 -0.8556 -1.8853 -0.3736
 7266SOL     OW30575   4.677   7.066   7.263 -0.4007 -0.1298 -0.2215
 7266SOL    HW130576   4.685   7.158   7.288 -0.1913 -0.0511 -0.5690
 7266SOL    HW230577   4.734   7.056   7.186  0.8009 -0.9217  0.7350
 7267SOL     OW30578   4.619   0.872   2.634  0.4500 -0.0303 -0.1329
 7267SOL    HW130579   4.651   0.782   2.630 -0.0924 -0.2052 -0.5669
 7267SOL    HW230580   4.697   0.923   2.657  0.5329 -0.7305  1.2530
 7268SOL     OW30581   6.058   2.690  10.045 -0.0598  0.1854 -0.0868
 7268SOL    HW130582   6.087   2.721  10.131 -0.8994  0.7893 -0.0067
 7268SOL    HW230583   6.072   2.765   9.987 -0.7500  0.2376 -0.1932
 7269SOL     OW30584  10.245   9.069   2.786  0.7428 -0.7272 -0.1823
 7269SOL    HW130585  10.320   9.123   2.811  0.5542 -1.3421  1.8704
 7269SOL    HW230586  10.241   9.077   2.691  0.9568  2.5181 -0.0344
 7270SOL     OW30587   3.230  10.087   5.660  0.5583  0.3907 -0.2802
 7270SOL    HW130588   3.194  10.053   5.742  0.8815 -0.2276 -0.3908
 7270SOL    HW230589   3.168  10.155   5.633  1.5548  2.1696  1.5971
 7271SOL     OW30590  10.448   5.453   8.475 -0.2352 -0.1485  0.4913
 7271SOL    HW130591  10.509   5.525   8.492 -1.4330  0.4152  2.7981
 7271SOL    HW230592  10.392   5.485   8.405  0.0559  0.6513  0.6129
 7272SOL     OW30593   0.401   8.454   1.778 -0.0161  0.1397 -0.0498
 7272SOL    HW130594   0.475   8.513   1.768 -0.3464  0.9641  1.8929
 7272SOL    HW230595   0.357   8.483   1.858 -0.1967 -2.7186  1.0127
 7273SOL     OW30596   5.281   0.910  10.735  0.3151 -0.0458 -0.0832
 7273SOL    HW130597   5.361   0.957  10.714  0.8240 -0.7172  0.2983
 7273SOL    HW230598   5.213   0.953  10.683  0.7600  1.0762  0.2356
 7274SOL     OW30599   1.413   9.195   6.145 -0.2660  0.5606 -0.1288
 7274SOL    HW130600   1.414   9.121   6.084  2.2591 -0.1524  0.6511
 7274SOL    HW230601   1.320   9.213   6.160 -1.0478 -3.2725  0.5905
 7275SOL     OW30602   5.899   7.615   7.631  0.8146 -0.2400 -0.2388
 7275SOL    HW130603   5.987   7.581   7.649  0.8514 -0.0047  0.0230
 7275SOL    HW230604   5.876   7.578   7.546  0.8646 -0.9137  0.0335
 7276SOL     OW30605   8.543   1.620   6.886 -0.0110 -0.2003 -0.6557
 7276SOL    HW130606   8.466   1.563   6.885 -0.4074  0.1666  2.2012
 7276SOL    HW230607   8.610   1.570   6.933  0.6593  0.4826 -0.8518
 7277SOL     OW30608   0.053   0.755   9.486 -0.9805  0.3878  0.1899
 7277SOL    HW130609   0.025   0.847   9.483 -0.4164  0.6355  1.7887
 7277SOL    HW230610  -0.023   0.708   9.519 -0.8460  0.4652  0.6083
 7278SOL     OW30611   4.891  10.054   4.272 -0.5232  0.0697 -0.0977
 7278SOL    HW130612   4.826  10.103   4.322 -1.5037 -1.6787  0.4164
 7278SOL    HW230613   4.848  10.036   4.188 -0.6780 -0.9681  0.1897
 7279SOL     OW30614   6.192   6.653   3.175 -0.1533 -0.0739  0.5750
 7279SOL    HW130615   6.126   6.593   3.140 -0.7896  1.4786 -1.0178
 7279SOL    HW230616   6.273   6.601   3.176 -0.6170 -0.9017 -1.0090
 7280SOL     OW30617  10.172   5.350   7.718 -0.0165 -0.0962 -0.5093
 7280SOL    HW130618  10.227   5.416   7.761 -0.9536  0.1943  0.2766
 7280SOL    HW230619  10.227   5.315   7.648  0.3896  1.7183 -1.1385
 7281SOL     OW30620   3.462   2.926   6.363  0.4907 -0.7627  0.2555
 7281SOL    HW130621   3.401   2.866   6.318 -1.9555  0.5132  1.6640
 7281SOL    HW230622   3.547   2.907   6.324 -0.6591 -3.1682 -1.3301
 7282SOL     OW30623   5.288   0.550   7.367  0.6157 -0.6166  0.2875
 7282SOL    HW130624   5.358   0.485   7.379 -1.3917 -2.7838  1.1381
 7282SOL    HW230625   5.215   0.500   7.331 -0.2778  1.7324 -1.3669
 7283SOL     OW30626   0.360   4.419   9.610  0.2058  0.2124  0.2908
 7283SOL    HW130627   0.352   4.329   9.580  0.6743  0.4142 -0.4559
 7283SOL    HW230628   0.445   4.423   9.654  0.0501  0.2191  0.5971
 7284SOL     OW30629  10.201   4.366   8.681  0.5836  0.1800 -0.1157
 7284SOL    HW130630  10.142   4.359   8.606  0.1121 -0.1247  0.2810
 7284SOL    HW230631  10.289   4.367   8.642  0.3905 -1.0091 -0.6108
 7285SOL     OW30632  12.582   9.457   7.468  0.9486 -0.5481 -0.3320
 7285SOL    HW130633  12.576   9.432   7.561  0.5875 -0.1663 -0.2462
 7285SOL    HW230634  12.629   9.385   7.427 -1.1202 -1.9892 -0.3304
 7286SOL     OW30635   2.789   7.038   2.147  0.3797 -0.1721 -0.4918
 7286SOL    HW130636   2.812   7.004   2.233  0.4158  0.6580 -0.1707
 7286SOL    HW230637   2.768   7.130   2.162 -2.7466 -0.7181 -0.8124
 7287SOL     OW30638   4.589   5.214   6.847  0.7820  0.5610  0.0549
 7287SOL    HW130639   4.659   5.199   6.784 -0.1742  0.1135 -0.9405
 7287SOL    HW230640   4.541   5.289   6.812 -0.2539 -0.2100 -0.2213
 7288SOL     OW30641   5.654   0.902   4.306 -0.7274  0.3785  0.5153
 7288SOL    HW130642   5.573   0.924   4.260 -0.1340 -0.7830 -1.1536
 7288SOL    HW230643   5.677   0.814   4.276  1.1803  0.6783  0.9271
 7289SOL     OW30644   2.977   1.987   8.773  0.1772  0.3737  0.9537
 7289SOL    HW130645   2.955   1.903   8.813  0.5309 -0.4901 -0.5977
 7289SOL    HW230646   2.920   1.993   8.697  0.7654  1.1207  0.5573
 7290SOL     OW30647   2.670   8.033  11.432 -0.1413 -0.0563  0.3259
 7290SOL    HW130648   2.615   8.088  11.375  0.3010 -1.0640 -1.1349
 7290SOL    HW230649   2.696   8.091  11.503 -0.1682  1.4676 -0.8523
 7291SOL     OW30650   4.290   2.985   0.027  0.4568  0.3801  0.0401
 7291SOL    HW130651   4.336   3.057   0.069  2.4002  1.8556 -4.0906
 7291SOL    HW230652   4.216   3.026  -0.017  0.6221 -0.3931 -0.9943
 7292SOL     OW30653  10.099   9.059   3.121  0.1460  0.1719 -0.4173
 7292SOL    HW130654  10.111   9.152   3.138 -0.6982  0.3396 -0.7333
 7292SOL    HW230655  10.064   9.054   3.032  3.8954 -0.6463 -2.0984
 7293SOL     OW30656   3.020   2.383  12.285  0.4297  0.0242  0.4532
 7293SOL    HW130657   2.976   2.467  12.274 -0.2765 -0.3872 -0.0011
 7293SOL    HW230658   3.072   2.373  12.205  1.3798  0.5162  0.9961
 7294SOL     OW30659  10.769   3.073  11.642  0.1870  0.1294  0.0876
 7294SOL    HW130660  10.733   3.020  11.713  0.9886 -2.3049 -1.1951
 7294SOL    HW230661  10.719   3.047  11.564  1.9142 -0.2980 -0.9498
 7295SOL     OW30662   0.177  10.341   0.591 -0.2565 -0.2802  0.1346
 7295SOL    HW130663   0.203  10.269   0.649 -0.1674  0.5120  1.1129
 7295SOL    HW230664   0.235  10.413   0.616 -0.8052  0.3377 -0.3561
 7296SOL     OW30665   5.980   9.248   2.060 -0.7549 -0.1492  0.0249
 7296SOL    HW130666   5.887   9.225   2.056 -1.2383  1.7720 -0.9103
 7296SOL    HW230667   6.000   9.283   1.973  0.1382  1.9321  0.9968
 7297SOL     OW30668   3.332   7.766   7.691  0.6123 -0.2645 -0.4594
 7297SOL    HW130669   3.335   7.729   7.603  0.0739 -0.0654 -0.5660
 7297SOL    HW230670   3.403   7.831   7.693  1.1911 -0.8898 -0.4547
 7298SOL     OW30671   6.884  11.360   2.557  0.7975  0.1472 -0.2013
 7298SOL    HW130672   6.809  11.413   2.585  0.8100 -0.2227  0.5671
 7298SOL    HW230673   6.909  11.310   2.635  0.9666 -0.7793 -0.8240
 7299SOL     OW30674   7.190   5.494   9.503  0.0469 -0.1841  0.3232
 7299SOL    HW130675   7.167   5.415   9.454  1.7991  0.3393 -1.4423
 7299SOL    HW230676   7.255   5.465   9.567  2.0265  0.0117 -1.4727
 7300SOL     OW30677   1.219   8.195   6.444  0.9138  0.0805  0.7831
 7300SOL    HW130678   1.265   8.172   6.524  0.0898  0.0385  1.2542
 7300SOL    HW230679   1.137   8.236   6.474  1.2034  1.3038 -0.0274
 7301SOL     OW30680   6.142   5.110   2.943  0.0710  0.0234  0.1605
 7301SOL    HW130681   6.229   5.096   2.907  0.2072  3.8554 -1.4682
 7301SOL    HW230682   6.153   5.177   3.010 -1.5740  0.3407  0.1709
 7302SOL     OW30683   8.267   6.387   9.293 -0.4600 -0.7124 -0.0170
 7302SOL    HW130684   8.224   6.426   9.368 -0.7612 -0.7761 -0.1542
 7302SOL    HW230685   8.322   6.317   9.330 -0.6233 -0.7577  0.1407
 7303SOL     OW30686   5.396   9.390   5.149 -0.2676  0.6107  0.2422
 7303SOL    HW130687   5.435   9.473   5.176 -0.0304  0.4145  0.5070
 7303SOL    HW230688   5.325   9.416   5.090 -0.0789  0.9914  0.1738
 7304SOL     OW30689   9.002   4.328  12.543 -0.3723  0.4197  0.5890
 7304SOL    HW130690   9.038   4.411  12.511  0.9482 -0.3584 -0.0329
 7304SOL    HW230691   9.073   4.265  12.531 -1.6422 -0.9898  0.2338
 7305SOL     OW30692   7.118   0.365   2.120  0.0251  0.4995  0.3472
 7305SOL    HW130693   7.172   0.417   2.179  1.3015 -0.0596 -0.3094
 7305SOL    HW230694   7.174   0.293   2.092 -0.8585  0.2257 -0.8132
 7306SOL     OW30695   0.531   4.810   2.905 -0.4870 -0.0370 -0.3082
 7306SOL    HW130696   0.530   4.860   2.987  2.0982  0.0593 -0.2551
 7306SOL    HW230697   0.512   4.720   2.931 -1.2048  0.2373  0.1562
 7307SOL     OW30698  10.075   3.485  10.523  0.4779 -0.3333 -0.4003
 7307SOL    HW130699  10.010   3.416  10.536  0.0870  0.0767 -0.1626
 7307SOL    HW230700  10.054   3.551  10.589  2.9754 -1.5077  1.7596
 7308SOL     OW30701   2.233  11.290  10.211  0.5578 -0.3097 -0.1820
 7308SOL    HW130702   2.209  11.223  10.275 -0.7221  0.1446 -0.1558
 7308SOL    HW230703   2.235  11.371  10.262  0.0504 -0.0250 -0.6190
 7309SOL     OW30704   0.707   2.240  11.209 -0.2873 -0.5181  0.1681
 7309SOL    HW130705   0.784   2.197  11.247 -0.3578  0.7900  1.9442
 7309SOL    HW230706   0.633   2.206  11.260 -0.6450 -0.2487 -0.1695
 7310SOL     OW30707   8.322   2.996   1.415  0.1654 -0.4415 -0.5796
 7310SOL    HW130708   8.288   2.983   1.504  0.0286  0.7172 -0.4416
 7310SOL    HW230709   8.412   3.026   1.427 -0.3587  1.3389 -0.7279
 7311SOL     OW30710   5.659   9.642  10.310  0.6483  0.4484 -0.2565
 7311SOL    HW130711   5.593   9.644  10.380  0.6696 -0.7267 -0.1704
 7311SOL    HW230712   5.678   9.548  10.299  0.0696  0.5409 -2.3925
 7312SOL     OW30713   4.622   9.971   5.391  0.8364 -0.1113  0.2587
 7312SOL    HW130714   4.581   9.901   5.442  1.6267 -1.1474 -0.4743
 7312SOL    HW230715   4.697   9.929   5.350  1.3063  1.1751 -0.2427
 7313SOL     OW30716   2.065   7.073   7.726  0.1238 -0.1301  0.0448
 7313SOL    HW130717   2.010   7.114   7.793 -0.5690 -0.1962 -0.4716
 7313SOL    HW230718   2.144   7.046   7.773 -0.3294 -0.1310  0.8196
 7314SOL     OW30719   6.877  11.347  11.625 -0.3910 -0.1636 -0.2433
 7314SOL    HW130720   6.883  11.386  11.713 -0.2895  1.4958 -0.9504
 7314SOL    HW230721   6.822  11.407  11.576  0.9249 -0.1520 -1.7976
 7315SOL     OW30722   4.880   6.581  11.755  0.0934  0.1974  0.2451
 7315SOL    HW130723   4.830   6.630  11.689  0.5472 -0.2631 -0.4563
 7315SOL    HW230724   4.832   6.596  11.836 -0.8956  0.1997 -0.3113
 7316SOL     OW30725   7.486   0.571   5.879 -0.0228 -0.5482 -0.3086
 7316SOL    HW130726   7.526   0.631   5.816  0.3044  1.8266  1.9866
 7316SOL    HW230727   7.560   0.525   5.919 -0.0108 -0.2101  0.0664
 7317SOL     OW30728   9.569   2.772   3.944 -0.2487 -0.5719  0.0369
 7317SOL    HW130729   9.649   2.737   3.984 -1.3743 -4.1999 -0.4343
 7317SOL    HW230730   9.500   2.752   4.008 -1.3037 -1.4481 -1.3134
 7318SOL     OW30731   5.590   2.568   8.205  0.0533  0.2033  0.6063
 7318SOL    HW130732   5.638   2.485   8.207  1.6760  1.0248 -0.7737
 7318SOL    HW230733   5.659   2.635   8.209 -0.9823  1.4514 -0.9525
 7319SOL     OW30734   7.398  12.564   8.490 -0.3332  0.0330 -0.0970
 7319SOL    HW130735   7.360  12.513   8.561 -0.1731  1.1906  0.8470
 7319SOL    HW230736   7.388  12.655   8.518  0.3060  0.4864 -1.2742
 7320SOL     OW30737   3.496   5.124   0.924 -0.1197  0.1235 -0.6120
 7320SOL    HW130738   3.428   5.057   0.932  1.7905 -1.9193 -0.3431
 7320SOL    HW230739   3.494   5.149   0.832 -0.8312 -0.3820 -0.7421
 7321SOL     OW30740   1.576   7.663   8.753  0.0012  0.0407 -0.0177
 7321SOL    HW130741   1.656   7.681   8.802 -2.3144  0.4508  4.0624
 7321SOL    HW230742   1.567   7.568   8.754 -0.0835  0.0543  0.4402
 7322SOL     OW30743   2.006   5.055   6.288  0.6774  0.1403 -0.6143
 7322SOL    HW130744   1.919   5.019   6.268  0.6162 -0.3920  0.5607
 7322SOL    HW230745   1.989   5.128   6.348  1.1063 -0.5692  0.3778
 7323SOL     OW30746   3.258   5.468   6.827 -0.0221  0.3597  0.2586
 7323SOL    HW130747   3.248   5.511   6.742  0.1859  1.1646  0.6379
 7323SOL    HW230748   3.244   5.537   6.891  2.2832  0.3351  0.8679
 7324SOL     OW30749  11.595   6.951   8.083  0.0011  0.6184  0.2611
 7324SOL    HW130750  11.562   6.862   8.070  0.0917  0.3978  1.3720
 7324SOL    HW230751  11.689   6.940   8.094  0.7857  1.3734 -4.1400
 7325SOL     OW30752   5.563   7.459   2.126  0.3856  0.1234  0.1751
 7325SOL    HW130753   5.536   7.551   2.130  0.4870  0.1774 -0.2865
 7325SOL    HW230754   5.490   7.412   2.166 -0.1176  0.3286 -0.4620
 7326SOL     OW30755   9.963   5.861  10.446 -0.0373 -0.0370 -0.5208
 7326SOL    HW130756  10.049   5.841  10.483 -0.5126  0.6311  1.0210
 7326SOL    HW230757   9.900   5.824  10.508 -0.8723  0.7468 -0.8722
 7327SOL     OW30758   9.938   0.438  11.373  0.0248  0.2739  0.2843
 7327SOL    HW130759   9.866   0.479  11.325 -0.7135  0.3665  1.4480
 7327SOL    HW230760   9.898   0.365  11.419  0.8423 -0.1849  0.2775
 7328SOL     OW30761  10.862   7.288  10.447  0.1108 -0.0737  0.0926
 7328SOL    HW130762  10.779   7.247  10.425 -0.1869  0.0536  0.9365
 7328SOL    HW230763  10.920   7.265  10.375 -0.8759  0.5165 -0.9160
 7329SOL     OW30764   4.821   5.082   4.765 -0.2282 -0.0876 -0.0547
 7329SOL    HW130765   4.806   4.993   4.735  1.6153 -0.1650 -0.8705
 7329SOL    HW230766   4.906   5.079   4.809  1.1381  1.6921 -2.3009
 7330SOL     OW30767   2.314  12.495  10.517 -0.4651 -0.0852  0.2549
 7330SOL    HW130768   2.370  12.537  10.451  2.4502 -3.2245  0.4561
 7330SOL    HW230769   2.303  12.562  10.585  0.9623  1.4834 -0.9551
 7331SOL     OW30770   3.396  10.460  10.732 -0.0713 -0.2719  0.1162
 7331SOL    HW130771   3.315  10.506  10.709  0.4287  1.8355  2.1563
 7331SOL    HW230772   3.368  10.391  10.792 -0.4039  0.6702  1.0994
 7332SOL     OW30773   6.842   2.919   7.792  0.1160 -0.0482  0.3265
 7332SOL    HW130774   6.808   2.836   7.759 -0.9279 -0.0863  1.4040
 7332SOL    HW230775   6.910   2.944   7.729 -1.3820 -0.3659 -1.5273
 7333SOL     OW30776   6.899  10.480  11.615  0.2756  0.0290  0.6471
 7333SOL    HW130777   6.844  10.436  11.550  0.1006  0.2093  0.6741
 7333SOL    HW230778   6.911  10.568  11.581  1.1403 -0.2189  0.2871
 7334SOL     OW30779  10.438   0.960   9.771  0.1673  0.1397  0.3540
 7334SOL    HW130780  10.489   0.962   9.852 -1.0008 -0.9359  1.1510
 7334SOL    HW230781  10.347   0.963   9.799 -0.2669 -0.3724 -0.9056
 7335SOL     OW30782   7.728   6.038   0.275  0.6879 -0.4626 -0.5386
 7335SOL    HW130783   7.777   6.002   0.348  1.2778  0.2591 -0.5767
 7335SOL    HW230784   7.684   6.116   0.311  0.7401 -0.2759 -0.8754
 7336SOL     OW30785   1.993  11.493   7.419 -0.1245 -0.0271  0.9454
 7336SOL    HW130786   2.049  11.416   7.426  1.0134  0.6688 -0.0721
 7336SOL    HW230787   1.956  11.489   7.330  0.8558  1.1651  0.4531
 7337SOL     OW30788   5.456   0.748   1.065 -0.0626 -0.3307 -0.1767
 7337SOL    HW130789   5.505   0.828   1.086  0.9537 -0.7826 -0.7610
 7337SOL    HW230790   5.412   0.726   1.147 -2.6373  2.3396 -0.6735
 7338SOL     OW30791  11.417   0.335   3.984 -0.0569 -0.0044  0.0593
 7338SOL    HW130792  11.386   0.420   4.016 -2.4905 -1.0128  0.5986
 7338SOL    HW230793  11.364   0.319   3.906  0.3383 -1.0624  0.0003
 7339SOL     OW30794   0.842   8.087   5.993  0.0615  0.2286 -0.0125
 7339SOL    HW130795   0.843   8.179   6.019 -0.0937  0.6957 -1.5379
 7339SOL    HW230796   0.861   8.039   6.073 -1.1076  1.5136  1.0747
 7340SOL     OW30797   0.664   0.804   2.714  0.0268  0.4190  0.6011
 7340SOL    HW130798   0.604   0.876   2.732 -0.2567  0.7130 -1.2901
 7340SOL    HW230799   0.637   0.734   2.773 -0.0718  1.6433  2.0528
 7341SOL     OW30800  11.044   4.403  11.911 -1.1082 -0.8283  0.2769
 7341SOL    HW130801  11.096   4.356  11.976 -0.8613 -1.8217 -0.6069
 7341SOL    HW230802  11.065   4.495  11.926  1.0471 -1.1945 -0.1446
 7342SOL     OW30803   5.487  11.920   4.049 -0.7409  0.4026 -0.4495
 7342SOL    HW130804   5.436  11.942   4.127  0.2456 -0.1881  0.3934
 7342SOL    HW230805   5.578  11.932   4.076 -0.3935  0.3805 -1.5782
 7343SOL     OW30806  12.337   7.330   8.341  0.3693 -0.2102 -0.1722
 7343SOL    HW130807  12.252   7.373   8.331 -0.3278 -1.2883  0.8999
 7343SOL    HW230808  12.392   7.395   8.385 -0.0875  0.2537 -0.2731
 7344SOL     OW30809   8.144   5.039   4.888  0.4878 -0.1025  0.0796
 7344SOL    HW130810   8.079   4.969   4.889 -0.1750  0.4991  0.0369
 7344SOL    HW230811   8.217   5.004   4.837  0.3276 -0.8986  0.3855
 7345SOL     OW30812   2.010   0.794   7.243 -0.4100  0.2552  0.5521
 7345SOL    HW130813   2.048   0.814   7.329 -0.4072  0.6991  0.4529
 7345SOL    HW230814   1.983   0.703   7.248 -0.2676  0.2375  0.9741
 7346SOL     OW30815   1.701   5.691  11.850 -0.2725 -0.8167  0.2529
 7346SOL    HW130816   1.667   5.732  11.770 -2.5974 -0.4670  1.3271
 7346SOL    HW230817   1.794   5.678  11.833  0.2333  3.1176 -0.9108
 7347SOL     OW30818   9.176   4.531  10.288 -0.4956  0.2195  0.1518
 7347SOL    HW130819   9.248   4.475  10.259  0.0906  0.2553  1.4996
 7347SOL    HW230820   9.216   4.593  10.349 -1.7808 -0.1802  1.4463
 7348SOL     OW30821  10.345   3.913   0.146 -0.2165 -0.2829  0.5458
 7348SOL    HW130822  10.412   3.867   0.197  1.7083  0.4182 -1.2013
 7348SOL    HW230823  10.287   3.952   0.212  2.0373  0.4289  2.2334
 7349SOL     OW30824   2.511   5.520   3.984  0.2454  0.2293  0.3262
 7349SOL    HW130825   2.563   5.570   3.921  0.9713 -1.2479 -0.3284
 7349SOL    HW230826   2.575   5.489   4.048 -0.2357  0.3993  0.8971
 7350SOL     OW30827  11.514   6.897   9.793 -0.3599  0.6543  0.0015
 7350SOL    HW130828  11.540   6.868   9.880 -0.8957 -1.0954 -0.3841
 7350SOL    HW230829  11.427   6.935   9.805  0.5933  2.8086  0.6115
 7351SOL     OW30830  10.256   4.584   3.594 -0.4002 -0.2836 -0.1240
 7351SOL    HW130831  10.282   4.583   3.686 -1.1747 -1.1802  0.0957
 7351SOL    HW230832  10.202   4.663   3.586 -1.9718 -1.2303  0.6869
 7352SOL     OW30833   3.102   0.884   9.640 -0.5341 -0.3915  0.1519
 7352SOL    HW130834   3.173   0.835   9.682 -0.0150 -0.4910 -0.8151
 7352SOL    HW230835   3.091   0.961   9.695 -0.6413 -1.0537  1.0985
 7353SOL     OW30836   1.423   6.254   8.980 -0.6473 -0.2134  0.4151
 7353SOL    HW130837   1.514   6.224   8.991 -0.8391 -0.5935  1.0066
 7353SOL    HW230838   1.408   6.310   9.056 -0.4961  0.9033 -0.3527
 7354SOL     OW30839   5.757  11.194   6.199 -0.2815 -0.1915  0.0015
 7354SOL    HW130840   5.686  11.131   6.212  0.1944 -0.2679  2.6316
 7354SOL    HW230841   5.719  11.279   6.221 -0.6730  0.4311 -2.6986
 7355SOL     OW30842   3.663   2.759   8.872 -0.1386  0.1607 -0.3786
 7355SOL    HW130843   3.683   2.667   8.893 -1.7503  0.2447  1.8957
 7355SOL    HW230844   3.649   2.759   8.777  1.2027 -1.6613 -0.6351
 7356SOL     OW30845   3.035   6.477   0.732 -0.0534  0.5491 -1.2618
 7356SOL    HW130846   3.042   6.517   0.645 -2.0647  0.8988 -1.2903
 7356SOL    HW230847   2.961   6.521   0.773  1.8526  1.5927  1.3262
 7357SOL     OW30848   8.689   6.280   1.524 -0.3721 -0.0865  0.2944
 7357SOL    HW130849   8.704   6.337   1.599  0.9360  0.4894 -0.3490
 7357SOL    HW230850   8.763   6.219   1.525 -1.0433 -0.9204  0.2099
 7358SOL     OW30851   5.176   0.897   6.319  0.0731 -0.1954 -0.2119
 7358SOL    HW130852   5.166   0.992   6.324 -0.4127 -0.1892 -1.0643
 7358SOL    HW230853   5.265   0.881   6.351 -0.2867  0.4123  1.1243
 7359SOL     OW30854   1.983   5.611   2.690 -0.3510  0.0779 -0.3152
 7359SOL    HW130855   1.941   5.618   2.775  0.0452  1.7470 -0.2314
 7359SOL    HW230856   2.076   5.595   2.710 -0.6570 -2.2421 -0.4900
 7360SOL     OW30857   9.965   4.298   2.700  0.4791 -0.1708 -0.3407
 7360SOL    HW130858  10.026   4.371   2.690 -0.8555  0.7557 -2.6647
 7360SOL    HW230859   9.920   4.316   2.782  1.1428  0.8938 -0.1911
 7361SOL     OW30860   4.685   8.452   6.906 -0.3015  0.1271 -0.1620
 7361SOL    HW130861   4.748   8.391   6.943 -0.0453  0.8624  0.6675
 7361SOL    HW230862   4.739   8.524   6.872 -0.6591  0.5396  0.1305
 7362SOL     OW30863   2.973   3.616   6.328  0.8731  0.4986  0.1854
 7362SOL    HW130864   2.885   3.620   6.289  0.3953  0.9265  1.2923
 7362SOL    HW230865   2.963   3.654   6.415  1.7750 -1.0944  1.0246
 7363SOL     OW30866   2.948   5.844   8.526 -0.1706  0.3318 -0.1620
 7363SOL    HW130867   2.887   5.810   8.591  1.2230 -0.6027  0.7217
 7363SOL    HW230868   2.979   5.927   8.563  0.0558  0.1728  0.0063
 7364SOL     OW30869   8.883   7.070   7.281 -0.2948 -0.0614 -0.6254
 7364SOL    HW130870   8.891   7.099   7.190 -0.3881 -0.0553 -0.6314
 7364SOL    HW230871   8.870   6.975   7.275 -0.5914 -0.0210 -0.6310
 7365SOL     OW30872   2.827   9.147   4.039  0.1641  0.4436 -0.7798
 7365SOL    HW130873   2.816   9.172   3.947 -0.9151  2.2834 -0.2169
 7365SOL    HW230874   2.855   9.228   4.082  1.8796 -0.6900  0.3349
 7366SOL     OW30875  10.794   0.167   2.118  0.3788 -0.4262 -0.1617
 7366SOL    HW130876  10.825   0.249   2.080  0.7434  0.0874  1.1803
 7366SOL    HW230877  10.698   0.173   2.114  0.4090 -0.4524 -1.0940
 7367SOL     OW30878   0.798   7.708  10.965  0.2537 -0.2300  0.1135
 7367SOL    HW130879   0.867   7.683  11.026 -0.7231 -0.9873  0.9374
 7367SOL    HW230880   0.784   7.629  10.912  1.1185  0.4245 -1.1611
 7368SOL     OW30881   3.765   6.362   7.879  0.5720 -0.0059  0.1486
 7368SOL    HW130882   3.722   6.442   7.849  0.7358 -0.5087 -1.5239
 7368SOL    HW230883   3.859   6.383   7.874  0.6760 -0.6769 -1.5918
 7369SOL     OW30884  10.886   9.138   2.483 -0.6556  0.1503  0.1943
 7369SOL    HW130885  10.927   9.142   2.397 -0.8732 -2.3214 -0.1137
 7369SOL    HW230886  10.796   9.166   2.469  0.0826  2.7640  0.2944
 7370SOL     OW30887   2.484   7.079   6.257 -0.0801 -0.0371 -0.2183
 7370SOL    HW130888   2.544   7.033   6.315 -0.8808  0.0736  0.7277
 7370SOL    HW230889   2.467   7.018   6.186 -1.0418 -1.1823  0.9567
 7371SOL     OW30890   3.930  11.547   6.247 -0.6191  0.1581 -0.0437
 7371SOL    HW130891   4.000  11.521   6.307 -0.5747 -1.5328 -0.7772
 7371SOL    HW230892   3.961  11.629   6.208 -0.0643  0.5879  1.2456
 7372SOL     OW30893   2.570  10.969  12.345 -0.3730  0.3017 -0.1347
 7372SOL    HW130894   2.546  10.991  12.255 -2.5162 -1.2574  0.0005
 7372SOL    HW230895   2.615  11.047  12.377 -3.3875  2.6750 -1.1778
 7373SOL     OW30896   6.766   6.910  12.545 -0.3295  0.5348 -0.1403
 7373SOL    HW130897   6.840   6.912  12.485 -0.0151 -0.4580  0.1852
 7373SOL    HW230898   6.689   6.897  12.489 -0.1605  0.6940 -0.4086
 7374SOL     OW30899   8.987   9.424  11.106  0.4250  0.3267 -0.5001
 7374SOL    HW130900   9.048   9.403  11.177  0.5709 -0.1464 -0.7640
 7374SOL    HW230901   8.901   9.397  11.140  0.4514  0.3746 -0.3929
 7375SOL     OW30902   0.233   2.038   9.450 -0.1313  0.2355  0.5764
 7375SOL    HW130903   0.299   2.071   9.389  0.6999  0.4687  1.5564
 7375SOL    HW230904   0.269   1.955   9.481 -0.2618  0.3928  1.1614
 7376SOL     OW30905  12.082   8.237   3.859 -0.1860 -0.7357  0.1401
 7376SOL    HW130906  12.031   8.190   3.793 -1.1520  0.3013  0.1230
 7376SOL    HW230907  12.052   8.327   3.853  0.5405 -0.4021  1.2219
 7377SOL     OW30908   0.002   3.110   8.466 -0.0412  0.4302 -0.0588
 7377SOL    HW130909   0.054   3.180   8.425 -0.6226  1.4457  0.8597
 7377SOL    HW230910  -0.031   3.150   8.547  0.3653 -1.2151  0.9712
 7378SOL     OW30911   8.915   5.114   2.279  0.6847  0.1041 -0.4557
 7378SOL    HW130912   8.841   5.138   2.224  2.4985  0.6683 -2.7870
 7378SOL    HW230913   8.932   5.022   2.258  1.1627  0.2193 -0.5857
 7379SOL     OW30914   4.687   4.180  11.685  0.2265 -0.6742  0.3387
 7379SOL    HW130915   4.721   4.226  11.761 -0.6577 -1.6689  1.3830
 7379SOL    HW230916   4.732   4.219  11.611  0.3713  1.0227  1.2755
 7380SOL     OW30917   2.613  11.674   5.502 -0.2133 -0.0442 -0.3943
 7380SOL    HW130918   2.594  11.682   5.596 -0.6137  2.1347 -0.6037
 7380SOL    HW230919   2.536  11.710   5.459  0.4345  0.0174 -1.5386
 7381SOL     OW30920   6.840  12.522   9.210 -0.1049  0.1080  0.2949
 7381SOL    HW130921   6.815  12.431   9.226  1.5757 -0.2173  1.3143
 7381SOL    HW230922   6.761  12.562   9.173 -0.9067 -1.7234 -0.0979
 7382SOL     OW30923  10.569  12.086  11.173  0.4556 -0.7039 -0.0945
 7382SOL    HW130924  10.540  12.073  11.082 -1.4480  1.7100  0.0772
 7382SOL    HW230925  10.616  12.168  11.171  0.3634 -0.6153  1.1193
 7383SOL     OW30926   1.990   5.283   0.831 -0.1984  0.7573  0.9572
 7383SOL    HW130927   1.965   5.335   0.755 -2.1105  0.1037  1.0660
 7383SOL    HW230928   1.969   5.338   0.906 -0.4302  0.5688  1.0344
 7384SOL     OW30929   6.464  10.187   5.996  0.4589  0.1083 -0.3411
 7384SOL    HW130930   6.369  10.181   5.991  0.3655  0.4564  0.7139
 7384SOL    HW230931   6.494  10.184   5.905 -0.5829  0.4044 -0.7017
 7385SOL     OW30932   7.980   5.994   8.904 -0.3460  0.5489 -0.4575
 7385SOL    HW130933   7.981   6.012   8.810  1.6293 -0.0939 -0.6084
 7385SOL    HW230934   7.892   6.019   8.933 -1.3468 -0.1930 -2.6434
 7386SOL     OW30935   8.690   5.630  12.452  0.2396  0.6857  0.8205
 7386SOL    HW130936   8.611   5.577  12.447  0.1156  0.9245  0.1488
 7386SOL    HW230937   8.761   5.567  12.440  0.0728  0.7284 -0.5752
 7387SOL     OW30938   8.440   4.831   7.476  0.1694 -0.5744  0.3400
 7387SOL    HW130939   8.436   4.795   7.565  1.6374 -1.8520 -0.0573
 7387SOL    HW230940   8.534   4.843   7.460 -0.1611  1.2437 -0.4442
 7388SOL     OW30941   1.458   5.010   1.111  0.2893  0.2424 -0.1905
 7388SOL    HW130942   1.483   4.972   1.195 -0.2876  2.2888  0.9727
 7388SOL    HW230943   1.517   5.085   1.100 -1.4728  1.7118 -0.1730
 7389SOL     OW30944   5.893   8.175   6.468  0.6684  0.1159 -0.1926
 7389SOL    HW130945   5.954   8.246   6.450 -1.1320  1.0712 -3.3922
 7389SOL    HW230946   5.917   8.106   6.406 -0.6321 -0.0274 -0.5679
 7390SOL     OW30947  10.231   4.208   5.454  0.3366 -0.4430 -0.3252
 7390SOL    HW130948  10.324   4.191   5.438  0.5603  0.1170  0.3136
 7390SOL    HW230949  10.227   4.231   5.547 -0.1474  1.3810 -0.7429
 7391SOL     OW30950   3.355   1.334   2.733  0.5851 -0.0780 -0.8242
 7391SOL    HW130951   3.285   1.274   2.758  1.3423 -0.7250 -0.2039
 7391SOL    HW230952   3.432   1.302   2.781  0.8277  1.8683  0.1647
 7392SOL     OW30953   2.214   2.658   1.519  0.1044 -0.0925 -0.1252
 7392SOL    HW130954   2.260   2.576   1.504  0.4752 -0.1273  1.1068
 7392SOL    HW230955   2.122   2.638   1.500  0.4636 -0.2135 -1.8678
 7393SOL     OW30956   5.567   9.354   6.759  0.2273 -0.0786 -0.1633
 7393SOL    HW130957   5.580   9.341   6.665  2.0557  0.2893 -0.0099
 7393SOL    HW230958   5.474   9.336   6.774  0.4375 -2.7776 -1.5807
 7394SOL     OW30959  10.609   1.456   9.842 -0.4448  0.0008  0.1072
 7394SOL    HW130960  10.645   1.541   9.817  0.2735 -0.5374 -0.7397
 7394SOL    HW230961  10.600   1.408   9.759 -0.3118 -0.9546  0.6292
 7395SOL     OW30962   8.332   9.462   0.057 -0.1042  0.3085  0.1356
 7395SOL    HW130963   8.408   9.452   0.116  0.8291  0.7152 -0.9579
 7395SOL    HW230964   8.370   9.491  -0.026 -1.5219  0.9958 -0.3049
 7396SOL     OW30965   4.498   3.890   7.068  0.2620 -0.3470  0.2364
 7396SOL    HW130966   4.503   3.820   7.133  3.2092  0.1572  0.6881
 7396SOL    HW230967   4.514   3.845   6.984  1.3182 -0.3592  0.4325
 7397SOL     OW30968   5.476   4.159   1.897  0.2130  0.3830 -0.0379
 7397SOL    HW130969   5.502   4.233   1.952 -0.3675  0.9345 -0.4875
 7397SOL    HW230970   5.396   4.127   1.938 -0.3902  0.9886 -0.7213
 7398SOL     OW30971   1.692   4.983   3.639 -0.5202 -0.0585  0.1486
 7398SOL    HW130972   1.641   5.053   3.679  1.0285 -0.3850  2.9194
 7398SOL    HW230973   1.772   5.027   3.609 -0.2622 -0.3835  0.3702
 7399SOL     OW30974  11.663   2.572   8.200  0.4891 -0.2256 -0.7525
 7399SOL    HW130975  11.700   2.550   8.285 -0.7749  1.1896  0.2133
 7399SOL    HW230976  11.735   2.613   8.152  0.2936  2.5109  1.0874
 7400SOL     OW30977   1.838   2.399   8.144 -0.0861 -0.1741  0.1686
 7400SOL    HW130978   1.776   2.358   8.204 -0.7083  3.5701  2.3621
 7400SOL    HW230979   1.783   2.430   8.071 -0.5102  1.2451  1.0599
 7401SOL     OW30980   4.369   2.220   3.350 -0.4663 -0.7047 -0.0019
 7401SOL    HW130981   4.312   2.206   3.426  0.2725  0.3276  0.7641
 7401SOL    HW230982   4.326   2.172   3.279 -1.3686 -1.3784  0.9715
 7402SOL     OW30983  10.714   6.145   1.636 -1.2585 -0.5872 -0.4773
 7402SOL    HW130984  10.770   6.109   1.705  1.7338  0.0903 -2.4058
 7402SOL    HW230985  10.673   6.068   1.596 -0.3879 -1.2716 -0.0814
 7403SOL     OW30986  12.083   6.120   4.421  0.0644 -0.1084 -0.0265
 7403SOL    HW130987  12.088   6.166   4.337  0.7362 -0.3664 -0.1391
 7403SOL    HW230988  11.991   6.125   4.447 -0.4757 -1.4256 -1.5512
 7404SOL     OW30989  10.396   2.001   0.328  0.1321  0.3183  0.3868
 7404SOL    HW130990  10.314   1.962   0.360  1.5251 -1.8450  1.5426
 7404SOL    HW230991  10.394   1.986   0.234 -1.6803  2.1514  0.0579
 7405SOL     OW30992   8.590   2.893   6.317  0.0184  0.6376 -0.3242
 7405SOL    HW130993   8.550   2.809   6.340  0.1710  0.0764 -1.9925
 7405SOL    HW230994   8.684   2.877   6.327 -0.0250  1.3617  1.6676
 7406SOL     OW30995   8.945   6.498   2.781 -0.4948 -0.2119 -0.0580
 7406SOL    HW130996   8.897   6.580   2.769  0.9825  0.7874  0.4588
 7406SOL    HW230997   8.947   6.485   2.876 -1.2542 -1.1940 -0.1702
 7407SOL     OW30998   2.879   0.026   5.247  0.0411  0.0247 -0.3628
 7407SOL    HW130999   2.871   0.086   5.320  0.3063 -2.8320  2.2227
 7407SOL    HW231000   2.795  -0.020   5.244  1.1303 -2.1522  0.3860
 7408SOL     OW31001  12.391   7.631   4.554 -0.1879  0.9025  0.1222
 7408SOL    HW131002  12.371   7.569   4.624 -0.4534 -0.1034 -0.8207
 7408SOL    HW231003  12.311   7.636   4.502  1.0996 -1.3805 -2.3423
 7409SOL     OW31004   2.846   6.615  12.277  0.1494 -0.2549  0.0425
 7409SOL    HW131005   2.770   6.670  12.259 -1.0481 -1.3932  1.3225
 7409SOL    HW231006   2.895   6.612  12.195 -0.1707  2.0107 -0.2805
 7410SOL     OW31007   3.169   0.382   9.579  0.1626 -0.1552  0.2984
 7410SOL    HW131008   3.179   0.374   9.484  0.4893 -2.3825  0.4657
 7410SOL    HW231009   3.169   0.476   9.595 -0.3565  0.2927 -1.9458
 7411SOL     OW31010  11.226   3.498   9.903  0.2848  0.2913 -0.8087
 7411SOL    HW131011  11.261   3.436   9.967  1.0520 -0.5816 -2.0395
 7411SOL    HW231012  11.197   3.572   9.956  0.6567 -0.5084  0.5730
 7412SOL     OW31013   5.934   0.470  12.098  0.1227  0.3282  0.1158
 7412SOL    HW131014   6.009   0.525  12.120  0.3115 -1.2223  4.1822
 7412SOL    HW231015   5.858   0.526  12.112  0.4134  0.7554 -0.0145
 7413SOL     OW31016   1.946   8.922   9.502  0.1753  0.5096 -0.2248
 7413SOL    HW131017   1.869   8.905   9.556 -0.6794  2.9777 -0.5400
 7413SOL    HW231018   1.921   8.995   9.446  1.0494 -1.7409 -3.9683
 7414SOL     OW31019   4.198   8.953   5.878 -0.5693 -0.0442  1.3826
 7414SOL    HW131020   4.198   9.040   5.839  0.4711 -1.0064 -0.9398
 7414SOL    HW231021   4.126   8.907   5.836 -0.8979 -0.4327  2.3365
 7415SOL     OW31022  10.288  11.832   5.999  0.0023 -0.1143 -0.3496
 7415SOL    HW131023  10.259  11.755   6.048  0.8593 -0.1594  0.1071
 7415SOL    HW231024  10.372  11.806   5.961  0.5490  0.7495  0.2176
 7416SOL     OW31025   5.047   1.877   9.422  0.1724  0.6974 -0.1214
 7416SOL    HW131026   4.994   1.940   9.373 -0.1504  0.6911  0.2169
 7416SOL    HW231027   5.104   1.837   9.356 -0.7222  0.2028 -0.6133
 7417SOL     OW31028   7.870   7.401   1.685 -0.3346  0.1286  0.4184
 7417SOL    HW131029   7.817   7.333   1.728 -1.2576  0.3667 -0.3160
 7417SOL    HW231030   7.893   7.460   1.756 -0.4037 -0.3925  0.8873
 7418SOL     OW31031   8.662  10.919   0.058  0.1147  0.0978 -0.1242
 7418SOL    HW131032   8.663  11.011   0.033  1.9672 -0.2296 -1.4809
 7418SOL    HW231033   8.746  10.885   0.027  0.8135 -1.3687  3.0417
 7419SOL     OW31034   0.393  12.528  11.283 -0.0292 -0.5831 -0.0894
 7419SOL    HW131035   0.354  12.607  11.321  0.7784 -0.3312  0.2353
 7419SOL    HW231036   0.478  12.557  11.250 -0.6314 -0.8451 -1.9569
 7420SOL     OW31037   7.879   6.706   7.723 -0.4438 -0.0562  0.3439
 7420SOL    HW131038   7.826   6.723   7.800 -0.9190 -0.3137  0.0783
 7420SOL    HW231039   7.818   6.672   7.658  0.4377 -2.9323  0.8829
 7421SOL     OW31040   8.815  10.891  11.469  0.3802  0.0384 -0.0809
 7421SOL    HW131041   8.803  10.814  11.525 -1.4014  0.3498  0.0423
 7421SOL    HW231042   8.766  10.961  11.513  3.3921  1.7928  0.7447
 7422SOL     OW31043   1.764   5.288   0.024  0.1378  0.2361  0.3116
 7422SOL    HW131044   1.794   5.266  -0.064 -1.8089  1.7548 -0.8217
 7422SOL    HW231045   1.692   5.227   0.041 -1.5810  1.9051 -0.5418
 7423SOL     OW31046   0.046   1.782   4.363  0.6100 -0.9857 -0.7424
 7423SOL    HW131047  -0.032   1.797   4.309  0.8094 -0.7358 -0.9642
 7423SOL    HW231048   0.049   1.686   4.374 -0.4750 -0.9107  0.4052
 7424SOL     OW31049   7.510   8.382   2.540 -0.1574 -0.5963 -0.4585
 7424SOL    HW131050   7.422   8.382   2.578 -1.5113 -0.1698 -3.3154
 7424SOL    HW231051   7.519   8.295   2.501  0.7848 -0.7171  0.0326
 7425SOL     OW31052   4.918   6.377   3.110  0.7616 -0.1258 -0.1311
 7425SOL    HW131053   4.909   6.399   3.203  1.4789  0.4562 -0.1890
 7425SOL    HW231054   4.925   6.461   3.066  0.5645 -0.4067 -0.7027
 7426SOL     OW31055   1.458   2.154   8.135 -0.3482  0.2523  0.7379
 7426SOL    HW131056   1.397   2.103   8.188 -0.8905  0.3118  0.1736
 7426SOL    HW231057   1.403   2.206   8.077  0.2217 -0.6531 -0.6853
 7427SOL     OW31058   0.236   8.069  11.875  0.2666 -0.2627 -0.0025
 7427SOL    HW131059   0.200   8.066  11.786 -1.7378  2.8864  0.5513
 7427SOL    HW231060   0.203   7.990  11.917 -2.1898  0.1546 -0.9635
 7428SOL     OW31061   2.475   3.064   9.131 -0.0420 -0.0015 -0.0028
 7428SOL    HW131062   2.469   2.990   9.071  2.2191 -0.9353  0.8166
 7428SOL    HW231063   2.394   3.060   9.182  0.2995 -2.3872  0.4787
 7429SOL     OW31064   3.942   9.042   7.891  0.0692  0.5889 -0.6071
 7429SOL    HW131065   3.961   8.951   7.868 -0.5965  0.0528  0.8286
 7429SOL    HW231066   3.998   9.060   7.966 -1.6982  0.4583  0.8109
 7430SOL     OW31067  10.295   4.193   7.207 -0.1009 -0.5878 -0.1177
 7430SOL    HW131068  10.272   4.102   7.226 -1.3240 -0.4158 -0.7318
 7430SOL    HW231069  10.389   4.190   7.187 -0.3106 -1.8584 -1.0096
 7431SOL     OW31070   5.813  11.743  10.064 -0.2524  0.5374  0.2230
 7431SOL    HW131071   5.878  11.678  10.034  2.0720  2.4423  0.7972
 7431SOL    HW231072   5.814  11.735  10.159 -0.5161  0.9098  0.2573
 7432SOL     OW31073   3.871   9.800   2.997 -0.2233  0.5137 -0.6133
 7432SOL    HW131074   3.889   9.715   2.958 -1.3564  0.3476 -0.8104
 7432SOL    HW231075   3.948   9.853   2.975 -0.3590  0.1142 -2.2055
 7433SOL     OW31076   8.434   0.823   8.819  0.0308 -0.0658 -0.1320
 7433SOL    HW131077   8.370   0.799   8.887  1.7344 -0.3286  1.4407
 7433SOL    HW231078   8.415   0.764   8.746 -1.5406 -0.0968  0.2634
 7434SOL     OW31079  10.193   8.441   0.974  0.2908 -0.5520  0.0329
 7434SOL    HW131080  10.230   8.523   1.006 -0.2867 -0.6187  0.8807
 7434SOL    HW231081  10.191   8.452   0.879  1.0829  0.0443  0.0725
 7435SOL     OW31082   6.160   6.837   8.854 -0.0530 -0.5890  0.2358
 7435SOL    HW131083   6.120   6.898   8.792  1.2062 -1.3871 -1.4496
 7435SOL    HW231084   6.087   6.780   8.881 -0.7326  0.1009 -0.1060
 7436SOL     OW31085   3.517   8.463  12.269  0.2550  0.0455 -0.1724
 7436SOL    HW131086   3.571   8.385  12.280  0.1769 -0.0332 -0.3426
 7436SOL    HW231087   3.555   8.528  12.328  0.7458  0.1013 -0.5444
 7437SOL     OW31088   7.827   7.471  10.244  0.2837  0.0674 -0.6202
 7437SOL    HW131089   7.904   7.461  10.299  0.5512 -0.1246 -1.0231
 7437SOL    HW231090   7.856   7.528  10.173 -0.3910  1.3145  0.0605
 7438SOL     OW31091   1.503   3.061  11.544  0.0200  0.1846 -0.0863
 7438SOL    HW131092   1.566   3.056  11.616  0.2272  0.3542 -0.2548
 7438SOL    HW231093   1.475   3.152  11.542  0.8451  0.4382 -0.9181
 7439SOL     OW31094   9.353   2.331   3.373 -0.2539  0.3644 -0.0532
 7439SOL    HW131095   9.375   2.411   3.419  1.6225  0.1284 -0.4772
 7439SOL    HW231096   9.406   2.263   3.415 -1.1255 -0.4941 -0.2938
 7440SOL     OW31097  10.611   5.731   2.910 -0.1120 -0.1304 -0.2642
 7440SOL    HW131098  10.659   5.657   2.947 -0.6227 -0.0653  0.5395
 7440SOL    HW231099  10.660   5.808   2.940 -1.1555 -0.0194  1.2672
 7441SOL     OW31100   7.482  11.722   1.042  0.1254  0.1994  0.3777
 7441SOL    HW131101   7.463  11.630   1.061 -1.1664  0.7883  2.3367
 7441SOL    HW231102   7.577  11.730   1.053  0.0016 -0.4973  2.4114
 7442SOL     OW31103   8.339   5.065   9.931  0.4147  0.3750  0.2045
 7442SOL    HW131104   8.385   5.122   9.991  0.3953  0.4497  0.1484
 7442SOL    HW231105   8.268   5.027   9.983  0.4563  0.3654  0.2535
 7443SOL     OW31106   3.651   7.073   7.726 -0.4007 -0.3414 -0.6071
 7443SOL    HW131107   3.613   7.112   7.805 -0.8508  1.2664 -1.5690
 7443SOL    HW231108   3.726   7.129   7.706 -0.7899 -0.2180 -1.7726
 7444SOL     OW31109   6.977   7.740   4.277  0.0342  0.7296  0.2055
 7444SOL    HW131110   6.950   7.744   4.185 -1.2342  0.8125  0.5681
 7444SOL    HW231111   7.070   7.718   4.273 -0.2774 -0.5222 -1.0688
 7445SOL     OW31112  10.454   5.566   4.468 -0.0072 -0.1364 -0.2988
 7445SOL    HW131113  10.452   5.506   4.394  0.8377 -0.6719  0.0973
 7445SOL    HW231114  10.414   5.647   4.434 -1.1961 -0.9089 -0.8217
 7446SOL     OW31115   3.613   9.095   3.851 -0.4812  0.3299 -0.3172
 7446SOL    HW131116   3.520   9.103   3.828 -0.9781 -0.0120  1.4387
 7446SOL    HW231117   3.613   9.067   3.942  1.3852  2.2924  0.3707
 7447SOL     OW31118  12.531   8.816   8.076 -0.7748  0.0025 -0.4320
 7447SOL    HW131119  12.548   8.742   8.017  0.6969  1.1837 -1.5718
 7447SOL    HW231120  12.442   8.844   8.054 -1.0523 -0.9092 -0.5355
 7448SOL     OW31121   2.464  11.807  11.830  0.4089  0.8130 -0.2560
 7448SOL    HW131122   2.550  11.779  11.800 -0.0797 -0.3181 -0.6474
 7448SOL    HW231123   2.409  11.803  11.752 -0.3878 -0.1263  0.3439
 7449SOL     OW31124  10.164  10.976   0.284 -0.5568  0.0021  0.8008
 7449SOL    HW131125  10.134  10.977   0.375  1.0723  2.1920  1.4241
 7449SOL    HW231126  10.247  11.025   0.286  0.4072 -1.3598 -1.6024
 7450SOL     OW31127   4.741   9.961   3.018  0.3982 -0.1184 -0.1818
 7450SOL    HW131128   4.836   9.961   3.025  0.4289 -0.7035 -0.5642
 7450SOL    HW231129   4.719  10.048   2.984  0.7955 -0.0094 -0.1633
 7451SOL     OW31130   9.048  12.231   2.416  0.0744 -0.0990  0.0383
 7451SOL    HW131131   9.048  12.138   2.396 -1.1093  0.1006 -1.0321
 7451SOL    HW231132   8.957  12.258   2.403  0.0798  0.9206  1.7775
 7452SOL     OW31133   2.570   8.741   9.244  0.3550 -0.0778  0.5515
 7452SOL    HW131134   2.507   8.688   9.293  0.9319  0.6304  2.1275
 7452SOL    HW231135   2.571   8.825   9.290  2.4068 -0.0498  0.5233
 7453SOL     OW31136   3.600  11.424  11.378  0.2562 -0.1525  0.2010
 7453SOL    HW131137   3.564  11.337  11.397  0.0507  0.1878  1.4479
 7453SOL    HW231138   3.630  11.457  11.463  2.3351  0.1224 -0.5706
 7454SOL     OW31139   3.048   7.827   8.402 -0.1753  1.1302  0.1390
 7454SOL    HW131140   3.031   7.744   8.447 -0.4339  1.4033  0.5575
 7454SOL    HW231141   2.961   7.865   8.388 -0.1714  0.6069 -1.4839
 7455SOL     OW31142   2.906   5.055  10.179 -0.2735  0.2871  0.6454
 7455SOL    HW131143   2.818   5.035  10.146  0.1647 -0.0853 -0.3547
 7455SOL    HW231144   2.958   5.072  10.100  0.0440  2.7833  1.2982
 7456SOL     OW31145  11.164   1.249   4.888 -0.1801  0.4562 -0.2706
 7456SOL    HW131146  11.180   1.161   4.854 -0.4689 -0.9915  2.9508
 7456SOL    HW231147  11.102   1.288   4.826 -1.4292 -2.2774 -0.8782
 7457SOL     OW31148   3.639   4.625   6.791  0.8052  0.2253 -0.6885
 7457SOL    HW131149   3.658   4.556   6.854 -0.1502 -0.4111 -1.0809
 7457SOL    HW231150   3.569   4.590   6.736 -0.2054  1.7697 -0.4571
 7458SOL     OW31151  11.406   4.957   8.789 -0.0803  0.3079  0.4880
 7458SOL    HW131152  11.424   5.003   8.707 -0.8655  0.4691  0.3986
 7458SOL    HW231153  11.362   5.022   8.844  0.4845  0.2182  1.0629
 7459SOL     OW31154   5.015   0.783   0.620  0.3532  0.1312  0.2887
 7459SOL    HW131155   5.102   0.782   0.581 -0.0453 -0.5672 -0.6350
 7459SOL    HW231156   4.956   0.766   0.546 -0.5296  0.2113  0.9625
 7460SOL     OW31157   4.820   5.050   2.187 -0.0308  0.2187 -0.5335
 7460SOL    HW131158   4.846   5.142   2.180 -1.0470  0.5438 -0.2816
 7460SOL    HW231159   4.862   5.019   2.268  0.4435  0.4062 -0.7028
 7461SOL     OW31160   5.196  10.318   2.725 -0.1232  0.3277 -0.2262
 7461SOL    HW131161   5.143  10.243   2.700 -0.2718  0.4268 -0.2063
 7461SOL    HW231162   5.208  10.367   2.644  0.7581 -0.2038 -0.4401
 7462SOL     OW31163   0.126   1.879   6.385  0.5632 -0.1026  0.2462
 7462SOL    HW131164   0.092   1.903   6.299  0.6175  0.4253  0.3704
 7462SOL    HW231165   0.112   1.957   6.439  3.8771  0.9826 -0.2171
 7463SOL     OW31166   8.609   3.481  12.380 -0.0685  0.0505  0.3802
 7463SOL    HW131167   8.686   3.437  12.344 -0.4077 -1.8494  1.7689
 7463SOL    HW231168   8.536   3.451  12.325  0.0890  1.5992 -0.7384
 7464SOL     OW31169   7.257   8.840   0.592  0.0268  0.2557 -0.3195
 7464SOL    HW131170   7.267   8.750   0.560  2.0054  0.6881 -1.0903
 7464SOL    HW231171   7.255   8.894   0.513 -1.4891  0.9057  0.1191
 7465SOL     OW31172  10.069  10.399  10.171 -0.1283 -0.0954 -0.0969
 7465SOL    HW131173  10.106  10.436  10.251  0.6127 -0.5765 -0.2074
 7465SOL    HW231174  10.085  10.305  10.179  0.5150 -0.0771 -1.0923
 7466SOL     OW31175  11.037   5.537   0.592 -0.7225 -0.3713 -0.1571
 7466SOL    HW131176  11.063   5.609   0.649 -1.1875 -2.1364  2.4599
 7466SOL    HW231177  10.950   5.513   0.623 -1.0825 -1.2977 -1.7832
 7467SOL     OW31178   6.460   9.843   4.903  0.2256  0.0848  0.3610
 7467SOL    HW131179   6.440   9.928   4.863  0.3888 -0.0344  0.0264
 7467SOL    HW231180   6.547   9.821   4.871  0.3487 -0.0244  0.7646
 7468SOL     OW31181   7.072  12.154   1.970  0.1432  0.1204 -0.1570
 7468SOL    HW131182   7.163  12.156   1.942  0.9521 -0.2406  2.2381
 7468SOL    HW231183   7.075  12.117   2.058 -2.1536  1.5329  0.5956
 7469SOL     OW31184   6.801   8.904   7.139 -0.1404  0.1612  0.4643
 7469SOL    HW131185   6.887   8.862   7.138 -1.9181 -3.9566  1.7467
 7469SOL    HW231186   6.787   8.932   7.048  1.9598 -0.3357 -0.0677
 7470SOL     OW31187  10.867   3.885   0.783 -0.1236 -0.4063  0.0852
 7470SOL    HW131188  10.886   3.975   0.758  0.8484 -0.7882 -0.5929
 7470SOL    HW231189  10.828   3.845   0.705 -0.8082 -0.5155  0.4666
 7471SOL     OW31190   0.960   6.309   4.753 -0.4574 -0.1459 -0.2377
 7471SOL    HW131191   1.051   6.292   4.774  0.0631  0.2971 -1.9773
 7471SOL    HW231192   0.961   6.335   4.661 -2.1179  1.6103  0.1689
 7472SOL     OW31193   0.744   2.533   0.538 -0.1273  0.3780  0.0040
 7472SOL    HW131194   0.659   2.577   0.546  1.0269  2.7052  0.2809
 7472SOL    HW231195   0.733   2.452   0.587 -1.9989  0.9034  0.5674
 7473SOL     OW31196   7.638   6.776  11.013 -0.8748 -0.0939 -0.0167
 7473SOL    HW131197   7.622   6.699  11.066  1.3355 -0.7287 -0.1635
 7473SOL    HW231198   7.623   6.850  11.072 -0.5165 -0.7253  0.8846
 7474SOL     OW31199  10.154   2.788   4.602  0.1597  0.2427 -0.3878
 7474SOL    HW131200  10.081   2.824   4.552 -0.4090 -0.5161 -0.1318
 7474SOL    HW231201  10.231   2.832   4.567 -0.2196 -0.1912 -1.8831
 7475SOL     OW31202   4.783   4.630  11.392 -0.5240 -0.2299 -0.0615
 7475SOL    HW131203   4.814   4.718  11.374 -0.8843 -0.2457 -0.8135
 7475SOL    HW231204   4.862   4.580  11.413 -0.0340 -0.2122 -1.6896
 7476SOL     OW31205   9.489   3.870  10.872 -0.6477  0.2458 -0.1550
 7476SOL    HW131206   9.568   3.900  10.917 -0.4275 -0.1962 -0.2467
 7476SOL    HW231207   9.430   3.840  10.942 -0.3901 -0.2408 -0.1425
 7477SOL     OW31208   7.645  11.805  10.438  0.0508  0.2997  0.4884
 7477SOL    HW131209   7.567  11.842  10.479  1.1418  1.3205  1.7076
 7477SOL    HW231210   7.711  11.873  10.446  0.8470 -0.2105 -1.3223
 7478SOL     OW31211   9.162   0.356   9.284  0.2182  0.2569  0.3873
 7478SOL    HW131212   9.256   0.346   9.295  0.1361 -2.2315 -0.5945
 7478SOL    HW231213   9.129   0.374   9.373  1.6638  2.1703  0.5863
 7479SOL     OW31214   8.811   0.872   9.585 -0.1963 -0.3499  0.2179
 7479SOL    HW131215   8.903   0.874   9.560 -0.4494  0.3558 -0.6874
 7479SOL    HW231216   8.795   0.959   9.622 -0.2638 -0.8007  1.2858
 7480SOL     OW31217   1.859  11.313  10.656 -0.3784  0.3716  0.6719
 7480SOL    HW131218   1.932  11.361  10.615 -1.6888  1.2315 -0.7460
 7480SOL    HW231219   1.902  11.250  10.714  1.5509 -0.0979 -1.1543
 7481SOL     OW31220  11.605   0.922   5.650 -0.1810  0.1736 -0.0576
 7481SOL    HW131221  11.640   1.011   5.657 -0.9589  0.4263  0.9443
 7481SOL    HW231222  11.538   0.917   5.719 -0.3863 -1.0799 -0.3160
 7482SOL     OW31223   8.346   8.800  12.308  0.5260  0.1274 -0.2746
 7482SOL    HW131224   8.353   8.825  12.400 -0.0678  0.8650 -0.4171
 7482SOL    HW231225   8.435   8.774  12.283  0.5466 -0.7707  0.6956
 7483SOL     OW31226   4.987   2.346   5.126  0.0272 -0.2069 -0.4595
 7483SOL    HW131227   5.008   2.362   5.034  1.7410 -1.3125 -0.3053
 7483SOL    HW231228   5.049   2.278   5.153  0.8606  1.4030  2.0202
 7484SOL     OW31229   1.682   7.326   4.932  0.1760  0.0600 -0.0047
 7484SOL    HW131230   1.765   7.291   4.964 -1.0611 -2.6703  0.5458
 7484SOL    HW231231   1.635   7.352   5.011 -0.0300  0.2713 -0.1939
 7485SOL     OW31232  10.507  10.348   4.584  0.3888  0.4414 -0.1610
 7485SOL    HW131233  10.521  10.254   4.588 -0.5846  0.3246  0.8846
 7485SOL    HW231234  10.412  10.359   4.586  0.5029  1.4738  0.5887
 7486SOL     OW31235   4.455   5.813   5.529  0.7973  0.4129  0.0160
 7486SOL    HW131236   4.413   5.804   5.443  1.9024  0.4153 -0.5396
 7486SOL    HW231237   4.387   5.851   5.585  0.3566  1.3060 -1.0943
 7487SOL     OW31238   3.774  10.411   6.597  0.2463  0.0059  0.2936
 7487SOL    HW131239   3.685  10.384   6.577  0.5217 -0.9224  0.2933
 7487SOL    HW231240   3.800  10.356   6.671  1.0742 -0.2449 -0.1738
 7488SOL     OW31241  10.101   6.112   8.077 -0.9816 -0.5538 -0.4959
 7488SOL    HW131242  10.167   6.099   8.009 -2.4515 -0.7399 -1.9673
 7488SOL    HW231243  10.124   6.049   8.146 -0.5149 -1.7301 -1.6894
 7489SOL     OW31244   3.800   6.430   5.347 -0.2168 -0.0741  0.5085
 7489SOL    HW131245   3.870   6.369   5.322 -0.3827  0.2577 -0.8203
 7489SOL    HW231246   3.720   6.377   5.346 -0.3422  0.1081 -0.5219
 7490SOL     OW31247   4.341   5.042   1.394  0.0591 -0.2394 -0.0941
 7490SOL    HW131248   4.421   5.079   1.357 -0.2692  0.2778 -0.2974
 7490SOL    HW231249   4.295   5.117   1.432 -0.9654 -0.2909 -1.1553
 7491SOL     OW31250   8.158   9.709   3.400  0.0808 -0.2284  0.0851
 7491SOL    HW131251   8.248   9.675   3.391  0.6622  1.1674  0.4389
 7491SOL    HW231252   8.168   9.790   3.449 -1.5855 -0.9606  1.7506
 7492SOL     OW31253   9.589  11.769  12.544 -0.3172 -0.0771 -0.1286
 7492SOL    HW131254   9.561  11.850  12.503 -1.1761 -0.2816  0.0209
 7492SOL    HW231255   9.599  11.791  12.637 -0.9493 -0.2320 -0.0201
 7493SOL     OW31256   0.049   6.557  11.702 -0.1980  0.3687  0.4909
 7493SOL    HW131257  -0.039   6.521  11.688 -0.6284  0.8683  1.7645
 7493SOL    HW231258   0.079   6.517  11.783  1.1837 -0.5447 -0.4348
 7494SOL     OW31259   5.033   1.332   0.516 -0.1454 -0.5863 -0.4348
 7494SOL    HW131260   5.076   1.378   0.588 -1.6492  2.0629 -1.0954
 7494SOL    HW231261   5.068   1.243   0.521  0.2154 -0.4155  3.2193
 7495SOL     OW31262  11.855   9.794   2.986 -0.3847 -0.0648 -0.5654
 7495SOL    HW131263  11.893   9.881   2.979  0.1537 -0.0884  1.4666
 7495SOL    HW231264  11.793   9.789   2.913 -0.9476  2.2789 -0.3278
 7496SOL     OW31265   7.055   2.582   0.928  0.3950  0.1674 -0.0832
 7496SOL    HW131266   7.115   2.513   0.901 -1.4776 -1.6224  0.0417
 7496SOL    HW231267   6.977   2.535   0.958 -2.0398  2.3364 -2.4913
 7497SOL     OW31268   9.255   5.630   9.759  0.1954  0.1013 -0.4904
 7497SOL    HW131269   9.317   5.571   9.717  2.0811 -0.5134  2.8280
 7497SOL    HW231270   9.188   5.572   9.795  0.2671  0.2914 -0.0429
 7498SOL     OW31271   1.294   5.872   7.817 -0.1956  0.5591  0.4085
 7498SOL    HW131272   1.331   5.894   7.902  2.7206  0.8358 -0.7872
 7498SOL    HW231273   1.262   5.782   7.827  0.5176  0.4298  1.7037
 7499SOL     OW31274   7.165   4.888   8.660 -0.0910 -0.1686  0.2678
 7499SOL    HW131275   7.099   4.939   8.614  0.9040  0.6169 -0.3299
 7499SOL    HW231276   7.219   4.953   8.705  1.3214 -0.6463 -0.6633
 7500SOL     OW31277   0.498   8.819   5.572  0.5585 -0.8695 -0.2662
 7500SOL    HW131278   0.507   8.896   5.515  1.6418 -2.0688 -1.8024
 7500SOL    HW231279   0.582   8.814   5.619  0.5247 -1.1737 -0.2383
 7501SOL     OW31280   6.911   1.911   3.924 -0.3863 -0.0610 -0.2686
 7501SOL    HW131281   6.970   1.881   3.854  1.5484  0.0435  1.2422
 7501SOL    HW231282   6.921   1.846   3.994  0.3606  1.6188  1.2488
 7502SOL     OW31283   5.906   7.661   2.190  0.4542  0.3327 -0.3034
 7502SOL    HW131284   5.832   7.717   2.209 -0.4301 -0.8792 -0.0552
 7502SOL    HW231285   5.958   7.661   2.271 -0.2916 -0.3012  0.1893
 7503SOL     OW31286   8.606   2.929   5.938  0.2723 -0.1799 -0.0424
 7503SOL    HW131287   8.547   2.901   5.868 -2.1678  1.4373  1.2199
 7503SOL    HW231288   8.569   2.890   6.017  1.2282  0.4351  0.7268
 7504SOL     OW31289   6.101   0.194   0.400 -0.6567  0.0220 -0.2118
 7504SOL    HW131290   6.193   0.202   0.425 -0.3265  0.0092 -1.3558
 7504SOL    HW231291   6.070   0.116   0.446 -0.1240  0.0759  0.2526
 7505SOL     OW31292   0.342   9.953   8.043 -0.3691 -0.1005 -0.4535
 7505SOL    HW131293   0.391   9.873   8.025 -2.0739 -1.4854  0.6521
 7505SOL    HW231294   0.280   9.927   8.111 -1.3586  2.0350 -0.4793
 7506SOL     OW31295   1.996   1.202   3.180  0.1829 -0.0987 -0.0259
 7506SOL    HW131296   1.996   1.186   3.085 -1.5537 -0.9634  0.0811
 7506SOL    HW231297   2.042   1.285   3.190  0.9305 -0.2859 -1.5655
 7507SOL     OW31298   3.314   3.515   0.240  0.0466 -0.0636 -0.0307
 7507SOL    HW131299   3.230   3.496   0.283 -0.1400 -1.5351 -0.9662
 7507SOL    HW231300   3.306   3.475   0.153  0.9542  1.5743 -0.9184
 7508SOL     OW31301  10.845   6.229   9.762  0.1557  0.1225 -0.7233
 7508SOL    HW131302  10.871   6.321   9.757  0.6434  0.0054 -0.4350
 7508SOL    HW231303  10.921   6.181   9.727  0.0610 -0.1918 -0.5003
 7509SOL     OW31304   7.430  10.719   0.030 -0.0197 -0.3993  0.7404
 7509SOL    HW131305   7.454  10.670  -0.049  0.5760  3.1343 -1.4840
 7509SOL    HW231306   7.465  10.666   0.102  2.6985 -2.0351 -1.5671
 7510SOL     OW31307   2.688   3.163  10.182 -0.5871 -0.3732  0.6796
 7510SOL    HW131308   2.771   3.185  10.140 -0.8713  0.2128  0.4094
 7510SOL    HW231309   2.687   3.067  10.185  1.3184 -0.3928  3.2042
 7511SOL     OW31310   4.121  11.172   5.452  0.0250  0.0968 -0.9338
 7511SOL    HW131311   4.151  11.184   5.542  1.5332 -1.0557 -1.2439
 7511SOL    HW231312   4.026  11.159   5.460  0.2106 -0.5506  0.5514
 7512SOL     OW31313   9.257  11.731   0.554  0.1082  0.4097  0.0316
 7512SOL    HW131314   9.203  11.689   0.621 -0.2853 -1.7997 -1.5880
 7512SOL    HW231315   9.206  11.807   0.527 -1.9734 -1.2729 -1.0061
 7513SOL     OW31316   6.191  11.442  12.163 -0.2646  0.4112 -0.6087
 7513SOL    HW131317   6.221  11.416  12.076 -0.0238 -0.6646 -0.2269
 7513SOL    HW231318   6.104  11.402  12.171 -0.1484  0.2342 -0.2314
 7514SOL     OW31319  11.615   3.926   6.449 -0.3381  0.3814  0.0960
 7514SOL    HW131320  11.529   3.911   6.488 -0.0870  0.7786  0.8040
 7514SOL    HW231321  11.596   3.956   6.360 -0.9043 -1.9843 -0.6610
 7515SOL     OW31322  10.752   0.445   8.424 -0.0799 -0.1555  0.5574
 7515SOL    HW131323  10.751   0.503   8.348 -0.6903 -3.2142 -1.9388
 7515SOL    HW231324  10.826   0.387   8.409  1.7204  0.9896  3.9657
 7516SOL     OW31325   7.243  12.152   8.369 -0.7899 -0.2646  0.4600
 7516SOL    HW131326   7.199  12.212   8.429 -0.9784 -0.1862  0.2451
 7516SOL    HW231327   7.320  12.200   8.339 -1.3898  0.2041 -0.3663
 7517SOL     OW31328   5.321   5.922   6.319 -0.6392  0.5466  0.0551
 7517SOL    HW131329   5.365   5.909   6.403 -1.7397  0.7545  0.6907
 7517SOL    HW231330   5.351   5.849   6.264 -0.9124 -0.3419  1.0634
 7518SOL     OW31331   7.033   4.401   0.004 -0.0950 -0.3480  0.2379
 7518SOL    HW131332   7.074   4.464  -0.055  1.9461 -3.1473 -1.6033
 7518SOL    HW231333   6.949   4.380  -0.038  0.7446 -1.3134 -1.0396
 7519SOL     OW31334  11.159   0.123  10.446  0.4875  0.2496  0.0845
 7519SOL    HW131335  11.229   0.178  10.481  1.4810 -0.4412 -0.7411
 7519SOL    HW231336  11.158   0.047  10.504  0.6615  0.1060 -0.0976
 7520SOL     OW31337  10.441   7.629   0.003 -0.0301  0.1779  0.0614
 7520SOL    HW131338  10.480   7.542   0.001 -0.9971 -0.3074 -3.0034
 7520SOL    HW231339  10.514   7.689   0.014  1.3954 -0.8332 -2.8468
 7521SOL     OW31340   4.754   8.538  11.780  0.5689 -0.1107 -0.0755
 7521SOL    HW131341   4.779   8.464  11.835  0.8025  0.4677  0.6268
 7521SOL    HW231342   4.793   8.614  11.824 -0.9789  0.6216  0.0894
 7522SOL     OW31343   3.011   5.958   0.721 -0.2891  0.0928 -0.8047
 7522SOL    HW131344   3.048   5.871   0.734  1.0233  0.6055 -0.9266
 7522SOL    HW231345   2.924   5.942   0.684  0.3368 -1.1472 -1.8406
 7523SOL     OW31346   2.423   2.948   6.401 -0.1299 -0.4277  0.4411
 7523SOL    HW131347   2.475   2.893   6.460  1.9849  1.6235  0.5901
 7523SOL    HW231348   2.482   3.018   6.374 -1.0712 -0.9505 -3.8329
 7524SOL     OW31349   2.359  10.249   2.097  0.0280  0.6103  0.1988
 7524SOL    HW131350   2.380  10.333   2.056 -0.9726  0.4560 -0.6600
 7524SOL    HW231351   2.361  10.267   2.191  0.0820  1.5311  0.0305
 7525SOL     OW31352   7.973   8.663  12.014 -0.7194  0.0278 -0.7005
 7525SOL    HW131353   8.062   8.698  12.023 -0.5786 -0.5635  0.4094
 7525SOL    HW231354   7.917   8.727  12.060 -0.8529  0.3318 -1.2838
 7526SOL     OW31355   4.301   6.660   4.134  0.4775  0.1511  0.6658
 7526SOL    HW131356   4.318   6.752   4.156  2.3183  0.6577 -2.3300
 7526SOL    HW231357   4.311   6.656   4.039 -2.1006 -2.7078  0.3675
 7527SOL     OW31358  11.738  12.577   0.031 -0.0073  0.5065 -0.5639
 7527SOL    HW131359  11.692  12.661   0.025  1.3345  1.3878  0.7841
 7527SOL    HW231360  11.828  12.598   0.007  0.1124 -0.8165 -1.3622
 7528SOL     OW31361   4.292   3.342   7.106 -0.1797  0.1368  0.2524
 7528SOL    HW131362   4.305   3.425   7.153  1.6347  0.4364 -0.6865
 7528SOL    HW231363   4.203   3.315   7.129 -0.4052  1.7699  1.4719
 7529SOL     OW31364   3.569  12.455   4.116 -0.5224  0.4490 -0.1535
 7529SOL    HW131365   3.603  12.466   4.027  0.9576  0.9879  0.4391
 7529SOL    HW231366   3.570  12.360   4.130 -0.3222  0.3885 -0.5470
 7530SOL     OW31367  11.765   8.087   4.363  0.0082 -0.3657  0.0623
 7530SOL    HW131368  11.720   8.167   4.334 -0.0991 -0.8688 -1.2345
 7530SOL    HW231369  11.827   8.117   4.430  0.0749  0.8175 -0.5040
 7531SOL     OW31370   4.236   9.021   6.672  0.4249  0.0733  0.0681
 7531SOL    HW131371   4.279   8.997   6.590  0.2614 -0.3113  0.0937
 7531SOL    HW231372   4.149   8.982   6.665  1.4481 -2.7966  1.7877
 7532SOL     OW31373   4.150  11.611   4.943  0.3363  0.5070 -0.3301
 7532SOL    HW131374   4.138  11.600   5.038 -1.2996  1.7098 -0.3559
 7532SOL    HW231375   4.130  11.524   4.907 -1.1299  0.5525  0.2949
 7533SOL     OW31376  10.163   6.648  10.364  0.1175 -0.1299 -0.1311
 7533SOL    HW131377  10.211   6.650  10.281  1.4607 -1.0910  0.5755
 7533SOL    HW231378  10.204   6.718  10.416 -0.7638  0.5126 -0.2776
 7534SOL     OW31379   5.803   8.586   2.126 -0.1185  0.0631  1.2834
 7534SOL    HW131380   5.854   8.507   2.142 -0.4276  0.0997  2.5335
 7534SOL    HW231381   5.805   8.634   2.209 -0.6850  0.9293  0.8166
 7535SOL     OW31382   0.375   8.291  11.964 -0.0876  0.2505  0.4137
 7535SOL    HW131383   0.345   8.208  11.926  1.5256  1.2165 -3.4119
 7535SOL    HW231384   0.294   8.339  11.983 -1.0331 -0.8994 -0.5086
 7536SOL     OW31385   7.144   1.551   5.972  0.6231  0.1924 -0.0177
 7536SOL    HW131386   7.226   1.502   5.983  1.1685  0.9568 -0.5831
 7536SOL    HW231387   7.093   1.498   5.911  1.9209  1.1222 -2.0190
 7537SOL     OW31388   5.249   8.371   9.955 -1.1267 -0.2727 -0.4551
 7537SOL    HW131389   5.196   8.358   9.876  0.2569 -2.7115 -1.0700
 7537SOL    HW231390   5.203   8.321  10.023 -1.7084  0.9044  0.0479
 7538SOL     OW31391   7.311   1.498  11.511 -0.1553 -0.4197  0.2870
 7538SOL    HW131392   7.274   1.575  11.467  1.1149  0.5142  0.7933
 7538SOL    HW231393   7.318   1.432  11.443 -0.1036  0.3347 -0.4482
 7539SOL     OW31394  12.260   9.167   8.645  0.1389  0.0817  0.4521
 7539SOL    HW131395  12.289   9.077   8.659 -0.9872 -0.0875  1.9347
 7539SOL    HW231396  12.173   9.158   8.605  0.4582  0.5369 -0.3735
 7540SOL     OW31397  11.125   8.648   0.324 -0.1807 -0.3708  0.3426
 7540SOL    HW131398  11.102   8.678   0.412  0.0545 -0.5516  0.4649
 7540SOL    HW231399  11.214   8.615   0.331 -0.2866 -0.7256  0.1203
 7541SOL     OW31400   0.004   9.264   2.646 -0.1511  0.3622 -0.5937
 7541SOL    HW131401  -0.060   9.241   2.578 -1.5915  0.6940  0.5801
 7541SOL    HW231402   0.045   9.181   2.669  0.4286  0.2626 -1.9201
 7542SOL     OW31403   9.287   4.247   1.400 -0.4898 -0.0443  0.4623
 7542SOL    HW131404   9.255   4.331   1.370 -1.8558 -0.8022 -0.2843
 7542SOL    HW231405   9.327   4.207   1.323  1.3671  0.4321  1.1194
 7543SOL     OW31406  10.475   4.410  11.020  0.2703  0.7261 -0.4324
 7543SOL    HW131407  10.414   4.346  11.057  1.5782  1.2829  2.9678
 7543SOL    HW231408  10.419   4.484  10.995 -0.7867 -0.0669 -0.4935
 7544SOL     OW31409   5.416   4.268  11.765 -0.3817 -0.6001 -0.3123
 7544SOL    HW131410   5.505   4.274  11.801  0.2275 -0.4626 -1.7311
 7544SOL    HW231411   5.366   4.333  11.813  0.4105 -0.3510  0.2009
 7545SOL     OW31412   4.308   1.879   3.397  0.5530  0.2408 -0.3065
 7545SOL    HW131413   4.315   1.798   3.346 -0.0270  0.2978 -0.4830
 7545SOL    HW231414   4.385   1.878   3.454 -0.3025 -1.2674  0.9067
 7546SOL     OW31415   8.066  11.337   6.086  0.4462 -0.2242 -0.4327
 7546SOL    HW131416   8.043  11.325   5.994  0.7145  2.2775 -0.9066
 7546SOL    HW231417   7.983  11.352   6.130  0.4505  0.2779 -0.5908
 7547SOL     OW31418   1.665   1.306  10.504  0.4883 -0.4435 -0.4021
 7547SOL    HW131419   1.710   1.382  10.540 -0.7807 -0.8665  2.3592
 7547SOL    HW231420   1.734   1.254  10.463  1.7858  0.9186 -0.0162
 7548SOL     OW31421   1.858   9.520   6.886  0.6070  0.1319  0.3848
 7548SOL    HW131422   1.807   9.553   6.959 -3.3025  2.0516 -2.8382
 7548SOL    HW231423   1.866   9.426   6.903 -1.9214  0.1648  2.3224
 7549SOL     OW31424  12.134   2.599   6.377  0.1671 -0.2019 -0.0934
 7549SOL    HW131425  12.154   2.540   6.450 -1.5074 -0.8088 -0.0946
 7549SOL    HW231426  12.039   2.593   6.366  0.0583  1.9174 -0.6252
 7550SOL     OW31427  10.195   0.277   4.439  0.1392 -0.3292  0.4238
 7550SOL    HW131428  10.278   0.322   4.426 -0.2838  1.0004  1.9729
 7550SOL    HW231429  10.208   0.225   4.519 -1.1638  1.7716  2.1394
 7551SOL     OW31430  11.423   0.951   5.188  0.1304  0.3499  0.6507
 7551SOL    HW131431  11.406   0.874   5.243  1.7765 -0.1160  0.5399
 7551SOL    HW231432  11.466   0.916   5.110 -0.7808  1.1950 -0.2520
 7552SOL     OW31433  12.320   7.697   8.399 -0.2264 -0.6013  0.0433
 7552SOL    HW131434  12.377   7.768   8.430 -1.0597  1.2982 -2.4764
 7552SOL    HW231435  12.361   7.617   8.433  2.2027  0.9004  0.8890
 7553SOL     OW31436   2.230   1.564   8.353 -0.3333  0.1570  0.0217
 7553SOL    HW131437   2.286   1.619   8.407 -1.1884 -1.4560  2.7821
 7553SOL    HW231438   2.145   1.608   8.354 -0.6538 -0.4492  1.0536
 7554SOL     OW31439   8.421   8.685   8.170 -0.1069 -0.3754  0.4274
 7554SOL    HW131440   8.499   8.717   8.215  0.1214 -0.8220  0.3518
 7554SOL    HW231441   8.407   8.749   8.099 -0.4028  0.2644  1.0495
 7555SOL     OW31442   7.104   3.683   9.627 -0.6984  0.1075 -0.2378
 7555SOL    HW131443   7.123   3.625   9.702 -2.7786  0.8691  0.9719
 7555SOL    HW231444   7.095   3.770   9.666 -2.5734  0.4103 -1.2198
 7556SOL     OW31445   1.582   7.712   9.100 -0.1045 -0.2525 -0.3640
 7556SOL    HW131446   1.623   7.708   9.187  0.3916  3.2781 -0.3168
 7556SOL    HW231447   1.639   7.658   9.045  1.3767 -0.0476  0.8718
 7557SOL     OW31448   8.892   6.694   4.220 -0.0208  0.2455  0.7900
 7557SOL    HW131449   8.973   6.648   4.198 -0.4730 -1.0635  1.7147
 7557SOL    HW231450   8.879   6.755   4.148  0.0230 -1.8538 -1.1032
 7558SOL     OW31451   6.712   1.817  10.676  0.4814  0.0528 -0.4240
 7558SOL    HW131452   6.667   1.749  10.726  0.8575  0.5364  0.6134
 7558SOL    HW231453   6.644   1.879  10.652  0.3957  0.1553  0.0756
 7559SOL     OW31454   5.695   4.263   8.642 -0.2911  0.3360 -0.5575
 7559SOL    HW131455   5.731   4.197   8.583 -0.8192  0.9984 -1.6500
 7559SOL    HW231456   5.601   4.251   8.638 -0.3278  0.0595  0.5783
 7560SOL     OW31457   8.927   0.099   6.871  0.1800  0.6689  0.0606
 7560SOL    HW131458   8.893   0.104   6.960  2.5468  0.1985  1.0567
 7560SOL    HW231459   8.852   0.122   6.816 -0.9991  2.3219  2.2025
 7561SOL     OW31460   6.199   9.506  11.136 -0.2367  0.5025  0.3251
 7561SOL    HW131461   6.259   9.579  11.122 -0.8290  0.8093 -0.7309
 7561SOL    HW231462   6.148   9.501  11.055 -1.0961 -0.2531  0.8972
 7562SOL     OW31463   3.003   5.808   7.894  0.6195  0.0831 -0.3140
 7562SOL    HW131464   3.033   5.893   7.862  2.2968 -0.0801  0.6974
 7562SOL    HW231465   2.939   5.828   7.962 -0.4056  0.4788 -1.3677
 7563SOL     OW31466  11.855  12.344   9.457  0.2817  0.0426  0.0233
 7563SOL    HW131467  11.775  12.385   9.489 -0.4431 -1.6869  0.5643
 7563SOL    HW231468  11.902  12.317   9.536  0.4737 -0.6255 -0.3112
 7564SOL     OW31469   7.002   0.431   9.146 -0.3061  0.4245  0.1625
 7564SOL    HW131470   7.063   0.502   9.127  0.4084 -0.2246 -0.0265
 7564SOL    HW231471   6.950   0.463   9.220 -0.2515  1.2853 -0.1542
 7565SOL     OW31472   6.623   6.508  10.054 -0.1671  0.2365  0.0700
 7565SOL    HW131473   6.707   6.477  10.020  0.8298  2.5817  0.1964
 7565SOL    HW231474   6.560   6.486   9.985  1.1074  1.2291 -1.4889
 7566SOL     OW31475   0.298   8.806   3.725  0.2350  0.8165 -0.5201
 7566SOL    HW131476   0.248   8.867   3.778  1.0306 -0.2977  1.6517
 7566SOL    HW231477   0.270   8.719   3.755  2.2311  0.1624 -0.3297
 7567SOL     OW31478  10.120  10.079   1.171 -0.3702 -0.0049 -0.1208
 7567SOL    HW131479  10.101  10.171   1.189  2.0138  0.5282  0.0747
 7567SOL    HW231480  10.189  10.057   1.234 -2.1455 -2.5067  1.1139
 7568SOL     OW31481   7.761   1.079   5.847  0.8818 -0.0214  0.2576
 7568SOL    HW131482   7.855   1.077   5.832  0.8168  1.0550 -0.4721
 7568SOL    HW231483   7.743   1.170   5.871  0.1542 -0.4352  1.3518
 7569SOL     OW31484   2.373   0.382   2.404  0.0307 -0.0368  0.0204
 7569SOL    HW131485   2.343   0.339   2.323 -1.2200  0.1964  0.3483
 7569SOL    HW231486   2.390   0.473   2.378  1.2755 -0.3434 -0.3404
 7570SOL     OW31487   7.544   2.059   3.049 -0.0882 -0.4538  0.6783
 7570SOL    HW131488   7.525   2.086   3.138 -0.8853 -0.0422  0.3915
 7570SOL    HW231489   7.603   2.126   3.015 -0.4567 -0.1511  0.6279
 7571SOL     OW31490   2.896   1.103   3.301  0.2426 -0.2767 -0.0819
 7571SOL    HW131491   2.900   1.174   3.236 -0.2776  0.5097  0.7219
 7571SOL    HW231492   2.943   1.137   3.377  0.7156 -1.1308  0.0168
 7572SOL     OW31493   6.793   2.389   2.174 -0.2871  0.1535  0.0037
 7572SOL    HW131494   6.721   2.348   2.222 -0.4349 -0.5531 -0.8113
 7572SOL    HW231495   6.816   2.326   2.106 -0.1454  1.1762 -0.9273
 7573SOL     OW31496  10.920   6.988   0.414 -0.2268  0.4085  0.2248
 7573SOL    HW131497  10.866   6.987   0.336 -0.6245  0.7752  0.4885
 7573SOL    HW231498  10.860   6.969   0.486 -0.0347  0.9274  0.5321
 7574SOL     OW31499  10.206   1.608   7.070 -0.2387  0.1743  0.0208
 7574SOL    HW131500  10.238   1.543   7.008  0.8208  1.1654 -0.5175
 7574SOL    HW231501  10.153   1.668   7.016 -2.2272 -0.8543  0.7159
 7575SOL     OW31502   5.016   0.876  10.146  0.3421 -0.3886  0.1826
 7575SOL    HW131503   5.012   0.937  10.220  0.8414  0.7957 -0.7179
 7575SOL    HW231504   5.094   0.823  10.163  1.3616  0.9212 -0.2224
 7576SOL     OW31505  10.169   6.441   2.565  1.3206 -0.2389 -0.0046
 7576SOL    HW131506  10.248   6.495   2.561  1.5708 -0.5510  0.6682
 7576SOL    HW231507  10.120   6.466   2.487  2.0457  0.0123 -0.3900
 7577SOL     OW31508   4.511  10.146   3.922 -0.7140 -0.4748 -0.2379
 7577SOL    HW131509   4.509  10.239   3.942 -2.2268 -0.7201  0.9223
 7577SOL    HW231510   4.563  10.107   3.992 -1.8454 -0.7339  0.4812
 7578SOL     OW31511   2.399   1.989   0.507 -0.5932 -0.2194  0.8986
 7578SOL    HW131512   2.398   1.969   0.601 -0.5792 -0.6508  0.8096
 7578SOL    HW231513   2.406   2.085   0.503 -1.4631 -0.1230  1.3412
 7579SOL     OW31514   8.345   1.831   1.092 -0.3221  0.2205  0.2574
 7579SOL    HW131515   8.401   1.902   1.060  0.1835  0.6568  1.9957
 7579SOL    HW231516   8.406   1.768   1.131 -0.8625 -0.5399 -0.1161
 7580SOL     OW31517  11.866   0.643   7.914 -0.2105  0.6211  0.7111
 7580SOL    HW131518  11.935   0.590   7.875 -0.1464 -0.7088  2.5090
 7580SOL    HW231519  11.911   0.700   7.976 -0.5758  0.8584  0.7652
 7581SOL     OW31520  11.602   9.534   1.751  0.1508 -0.0821 -0.2324
 7581SOL    HW131521  11.542   9.581   1.694 -0.6854 -2.4918 -1.4671
 7581SOL    HW231522  11.654   9.603   1.793 -2.3989  2.0187 -0.2541
 7582SOL     OW31523   7.690   3.348   9.336 -0.5377  0.0726 -0.0382
 7582SOL    HW131524   7.621   3.414   9.343 -0.7617 -0.3221  2.5653
 7582SOL    HW231525   7.766   3.389   9.376 -0.3573 -0.7929  0.5419
 7583SOL     OW31526  11.716   1.345  10.928 -0.0280 -0.1003  0.8686
 7583SOL    HW131527  11.776   1.272  10.914 -1.4928 -1.5349  1.8261
 7583SOL    HW231528  11.702   1.348  11.022 -0.1628  1.3080  0.8310
 7584SOL     OW31529   2.652  12.215   6.722 -0.7503  0.8528  0.6193
 7584SOL    HW131530   2.607  12.208   6.806 -1.5725  0.5807  0.1617
 7584SOL    HW231531   2.587  12.250   6.662 -0.2699  0.7301  0.0167
 7585SOL     OW31532   2.786   9.876  11.769  0.1953 -0.5362 -0.3775
 7585SOL    HW131533   2.764   9.966  11.747 -1.3446 -1.2362 -1.9156
 7585SOL    HW231534   2.713   9.824  11.736  1.4518 -2.4471 -0.3444
 7586SOL     OW31535   1.447  10.895  12.182  0.3784  0.2336  0.0054
 7586SOL    HW131536   1.503  10.953  12.130 -2.2123  1.2206 -1.9205
 7586SOL    HW231537   1.400  10.954  12.241  0.9510 -0.5086  1.2370
 7587SOL     OW31538   2.033   0.304   7.077  1.0774 -0.4032 -0.1847
 7587SOL    HW131539   2.024   0.208   7.079  1.5477 -0.4578 -0.5985
 7587SOL    HW231540   2.117   0.319   7.034  1.4790  0.1755  0.7826
 7588SOL     OW31541   4.270   0.379   3.658 -0.4242  1.0995  0.1383
 7588SOL    HW131542   4.311   0.446   3.602 -0.1277  1.5085  0.8344
 7588SOL    HW231543   4.342   0.346   3.712 -0.0749 -1.2582 -1.5515
 7589SOL     OW31544   4.608   6.487  11.683 -0.3418 -0.8383 -0.1788
 7589SOL    HW131545   4.542   6.417  11.673 -0.1836 -0.8392 -1.3656
 7589SOL    HW231546   4.589   6.548  11.613  0.5096 -0.4851 -0.1145
 7590SOL     OW31547   8.199  10.728   2.139  0.5378  0.1526 -0.4130
 7590SOL    HW131548   8.288  10.760   2.122  1.4336 -2.1832 -0.4315
 7590SOL    HW231549   8.179  10.674   2.063 -0.0594 -1.0216  0.5595
 7591SOL     OW31550   5.779   8.692   8.599  0.8116  0.6761 -0.5593
 7591SOL    HW131551   5.762   8.598   8.602 -0.1021  0.8017 -1.2679
 7591SOL    HW231552   5.791   8.717   8.691 -1.7523  0.3495 -0.0640
 7592SOL     OW31553   3.361   2.466   0.875 -0.0284 -0.0273 -0.5957
 7592SOL    HW131554   3.414   2.435   0.949  0.0678 -0.7446 -0.9557
 7592SOL    HW231555   3.287   2.511   0.916 -0.8274 -1.7941 -0.0052
 7593SOL     OW31556   3.480   0.352   8.613 -0.4485  0.0392  0.2632
 7593SOL    HW131557   3.520   0.438   8.626 -1.9890  0.6486  1.2139
 7593SOL    HW231558   3.440   0.357   8.526 -0.4254  0.2280  0.2645
 7594SOL     OW31559  10.352  12.245   0.531  0.5566  0.0154  0.4748
 7594SOL    HW131560  10.408  12.176   0.494  0.3579 -0.6289  1.3393
 7594SOL    HW231561  10.411  12.320   0.542  0.2344  0.8989 -2.8391
 7595SOL     OW31562   0.532   8.802   4.839  0.0239 -0.3428  0.1959
 7595SOL    HW131563   0.494   8.758   4.763  1.1251  0.8389 -1.0927
 7595SOL    HW231564   0.576   8.879   4.803 -1.6152  1.7307  2.2999
 7596SOL     OW31565   5.205   0.956   5.051 -0.0853 -0.3912  0.5423
 7596SOL    HW131566   5.264   0.996   4.986 -0.8080 -1.7353 -1.0269
 7596SOL    HW231567   5.250   0.968   5.135  0.5863  1.9972 -0.0717
 7597SOL     OW31568  11.197  11.665  11.595  0.8151  0.1138 -0.0869
 7597SOL    HW131569  11.279  11.624  11.567  0.4723 -0.1914 -0.6671
 7597SOL    HW231570  11.178  11.625  11.679 -0.3644 -2.2333 -1.3550
 7598SOL     OW31571  10.659   2.533   1.058 -0.1652 -0.1476 -0.1867
 7598SOL    HW131572  10.568   2.551   1.078  0.2344  0.5054  1.1776
 7598SOL    HW231573  10.657   2.457   1.000 -1.5877  0.2635 -0.7192
 7599SOL     OW31574   1.771   0.140   2.243 -0.4551 -0.2942  0.1097
 7599SOL    HW131575   1.735   0.223   2.274  1.0155  0.3344  0.1968
 7599SOL    HW231576   1.717   0.117   2.167 -1.7302  0.0352  0.8836
 7600SOL     OW31577   6.018   4.864   4.243  0.0522 -0.1751  0.1290
 7600SOL    HW131578   6.029   4.772   4.266 -0.1414  0.1595  1.6794
 7600SOL    HW231579   6.075   4.911   4.303 -0.7154  0.7891  0.1302
 7601SOL     OW31580   0.852   3.301  10.470  0.6128 -0.6981  0.2466
 7601SOL    HW131581   0.778   3.300  10.530  0.5608  1.3282  0.2805
 7601SOL    HW231582   0.844   3.220  10.420 -3.2611  0.6016 -1.6615
 7602SOL     OW31583   0.012   4.228  11.537  0.4395  0.4352  0.1506
 7602SOL    HW131584   0.092   4.280  11.544  1.3176 -0.5528 -1.6472
 7602SOL    HW231585  -0.056   4.292  11.513  0.8722  1.1515  0.7890
 7603SOL     OW31586   8.798   1.728   0.443 -0.3102 -0.0166 -0.1109
 7603SOL    HW131587   8.734   1.797   0.454  0.8560  0.9011  1.2974
 7603SOL    HW231588   8.866   1.767   0.388 -0.9430 -1.0037 -1.6642
 7604SOL     OW31589   1.883   6.050  10.526 -0.6202  0.2669 -0.1779
 7604SOL    HW131590   1.875   5.957  10.502 -0.3461  0.3868 -0.7687
 7604SOL    HW231591   1.974   6.072  10.504 -0.1235  0.2139  1.6784
 7605SOL     OW31592  10.591   1.555   4.903 -0.3802 -0.6165 -0.2188
 7605SOL    HW131593  10.544   1.503   4.838 -2.9173  0.3455  0.6920
 7605SOL    HW231594  10.543   1.637   4.906  0.8048  0.0575  1.5438
 7606SOL     OW31595   5.150   3.078   6.560  0.3560 -0.3093  0.1678
 7606SOL    HW131596   5.162   3.111   6.470 -0.2427  0.6222  0.4143
 7606SOL    HW231597   5.133   2.985   6.549  2.5125 -0.6767 -0.5330
 7607SOL     OW31598   1.959   0.128   8.254 -0.6105  0.0059  0.0930
 7607SOL    HW131599   1.945   0.041   8.291 -1.9353  0.4318  0.6922
 7607SOL    HW231600   1.871   0.157   8.228 -0.1197  0.9551 -0.5777
 7608SOL     OW31601   1.218   3.576   4.893 -0.0678 -0.2410  0.0694
 7608SOL    HW131602   1.261   3.635   4.955  1.4845  0.3310 -1.4745
 7608SOL    HW231603   1.152   3.529   4.945  1.2074  0.1725  2.1338
 7609SOL     OW31604   1.361   9.690  11.562 -0.1475  0.1749 -0.1346
 7609SOL    HW131605   1.293   9.730  11.617 -0.7909  0.6413 -1.2417
 7609SOL    HW231606   1.313   9.628  11.507  0.4577 -0.1234 -0.3251
 7610SOL     OW31607  12.103   1.099   0.869 -0.5705  0.2314  0.1766
 7610SOL    HW131608  12.126   1.115   0.777  1.7029 -0.9840  0.4847
 7610SOL    HW231609  12.108   1.186   0.910  1.8141  0.3137 -0.1822
 7611SOL     OW31610   9.743   2.589   4.085  0.0738 -0.4654  0.1470
 7611SOL    HW131611   9.737   2.570   4.179  0.2691  1.0476  0.4991
 7611SOL    HW231612   9.836   2.578   4.064 -0.1909 -2.1943 -0.2130
 7612SOL     OW31613   2.709   8.243   4.204 -0.3508  0.3298 -0.4622
 7612SOL    HW131614   2.721   8.149   4.192 -1.2768  0.1776 -0.2434
 7612SOL    HW231615   2.620   8.253   4.237 -0.1800  1.2659 -0.2237
 7613SOL     OW31616   2.498   8.569   5.532 -0.0981 -0.2406 -0.7921
 7613SOL    HW131617   2.519   8.477   5.543  0.2515 -0.1492 -0.6767
 7613SOL    HW231618   2.408   8.570   5.501 -1.0245 -0.5364  1.6940
 7614SOL     OW31619   5.882  11.132   6.741 -0.1723 -0.2581  0.0373
 7614SOL    HW131620   5.802  11.174   6.708  0.3713  1.6952  1.0082
 7614SOL    HW231621   5.862  11.113   6.833  0.0346 -0.9916 -0.0671
 7615SOL     OW31622   8.699   5.527   4.477  0.6165 -0.1892 -0.1340
 7615SOL    HW131623   8.665   5.454   4.425  3.4256 -0.7577 -1.3594
 7615SOL    HW231624   8.716   5.489   4.564  0.4836 -0.5294 -0.2560
 7616SOL     OW31625  11.091   4.046   1.801  0.8232  0.6626  0.0220
 7616SOL    HW131626  11.107   3.953   1.818  0.0154  0.2784 -1.2641
 7616SOL    HW231627  11.067   4.081   1.887 -2.5384 -1.1014 -0.0157
 7617SOL     OW31628   3.443   9.911   1.969  0.2209  0.4827  0.2375
 7617SOL    HW131629   3.451   9.910   2.064 -0.9556  2.5477  0.4156
 7617SOL    HW231630   3.519   9.962   1.939  1.4314 -1.3977 -0.1224
 7618SOL     OW31631   6.825   1.911   0.685  0.6517  0.0440 -0.1722
 7618SOL    HW131632   6.860   1.999   0.698  1.2709 -0.4379  1.7266
 7618SOL    HW231633   6.902   1.859   0.661  0.9682 -0.6168  2.0658
 7619SOL     OW31634  12.370  12.506   9.831 -0.3432  0.2010  0.0046
 7619SOL    HW131635  12.393  12.595   9.859  0.6417 -0.2663  0.7506
 7619SOL    HW231636  12.337  12.464   9.910  0.0872 -0.3824 -0.1232
 7620SOL     OW31637   6.249   8.919   9.118  0.5723 -0.3723 -0.2052
 7620SOL    HW131638   6.233   8.906   9.212 -1.0334  0.0490 -0.3805
 7620SOL    HW231639   6.194   8.994   9.095  2.2955  0.6711 -1.1484
 7621SOL     OW31640   6.226   2.930   7.293 -0.0784 -0.5552 -0.0629
 7621SOL    HW131641   6.213   2.908   7.201  1.5941 -0.2194 -0.4232
 7621SOL    HW231642   6.318   2.957   7.298 -0.0426 -0.8829  1.7682
 7622SOL     OW31643   0.793  12.113   8.158 -0.0068 -0.6569 -0.6234
 7622SOL    HW131644   0.761  12.072   8.078 -1.7011  1.5764 -1.2172
 7622SOL    HW231645   0.775  12.207   8.145  2.5899  0.1796  1.0745
 7623SOL     OW31646   7.261   9.110  11.739 -0.2968 -0.0222 -0.6828
 7623SOL    HW131647   7.294   9.036  11.689  0.5980  0.5683 -0.9950
 7623SOL    HW231648   7.202   9.155  11.679 -0.5957 -0.3010 -0.5999
 7624SOL     OW31649  11.493  11.095  10.484  0.2477 -0.1203 -0.4778
 7624SOL    HW131650  11.412  11.045  10.497  0.6646 -0.7905 -0.3923
 7624SOL    HW231651  11.545  11.077  10.563 -0.0706  1.3965  0.1024
 7625SOL     OW31652  11.735  10.497  10.264  0.3302  0.3017 -0.3043
 7625SOL    HW131653  11.674  10.425  10.249 -0.8380  0.9590  1.0076
 7625SOL    HW231654  11.816  10.470  10.220  0.5506 -2.6271  1.6561
 7626SOL     OW31655   9.844   6.504   0.237 -0.1079  0.1524  0.1245
 7626SOL    HW131656   9.780   6.436   0.261  0.2229  0.0937  0.8775
 7626SOL    HW231657   9.798   6.586   0.250  0.0122  0.1154  0.8320
 7627SOL     OW31658   9.011   3.853  10.403 -0.0837  0.0975 -0.6094
 7627SOL    HW131659   8.994   3.912  10.330 -0.2575 -0.0722 -0.7068
 7627SOL    HW231660   9.025   3.911  10.478 -0.2592  0.2608 -0.7023
 7628SOL     OW31661   8.937   7.741  10.595 -0.4155  0.3937 -0.1853
 7628SOL    HW131662   8.961   7.738  10.502  1.9091  1.3363  0.3275
 7628SOL    HW231663   8.846   7.710  10.597 -0.8160  1.1217 -2.8623
 7629SOL     OW31664   5.240   2.520  11.571  0.0103  0.4942  0.0028
 7629SOL    HW131665   5.164   2.524  11.514  0.2415  0.9331 -0.2752
 7629SOL    HW231666   5.270   2.610  11.578 -1.0712  0.7535  2.2555
 7630SOL     OW31667  11.241   9.041   9.153  0.6804  0.2816  0.6884
 7630SOL    HW131668  11.228   9.058   9.059  0.4520 -1.4229  0.3817
 7630SOL    HW231669  11.162   9.075   9.195  0.2355 -0.0229  0.1144
 7631SOL     OW31670   5.780  11.351  10.895  0.3801  0.1853  0.3674
 7631SOL    HW131671   5.757  11.404  10.971 -0.5911  0.0015  0.2187
 7631SOL    HW231672   5.704  11.294  10.882 -0.3582  1.5709 -1.9435
 7632SOL     OW31673   9.858   3.598   4.105  0.8378  0.0476  0.4738
 7632SOL    HW131674   9.935   3.621   4.158  2.6236  0.1758 -1.9960
 7632SOL    HW231675   9.877   3.511   4.070 -0.1315  0.0789 -0.1870
 7633SOL     OW31676   0.680   3.290  10.665  0.4550 -0.0894 -0.1550
 7633SOL    HW131677   0.594   3.289  10.707 -0.1204 -0.1072 -1.2975
 7633SOL    HW231678   0.740   3.255  10.731  0.0757  2.3927  1.6574
 7634SOL     OW31679   7.791   0.151   2.264 -0.1399 -0.1439 -0.1414
 7634SOL    HW131680   7.759   0.076   2.313 -0.5520  1.2213  1.8074
 7634SOL    HW231681   7.714   0.206   2.250  0.2996  0.3418 -0.7522
 7635SOL     OW31682   4.635   4.704  10.626 -0.5560  0.0002  0.1386
 7635SOL    HW131683   4.663   4.666  10.543 -0.4633 -0.3843  0.3430
 7635SOL    HW231684   4.664   4.641  10.692  0.2131  0.7515  0.5383
 7636SOL     OW31685   5.112   6.949   7.913 -0.2748 -0.4861  0.4899
 7636SOL    HW131686   5.098   7.042   7.891  0.6704 -0.4881 -0.1903
 7636SOL    HW231687   5.043   6.903   7.864 -0.3195 -0.1996  0.2777
 7637SOL     OW31688  11.200   3.765   5.456  0.1019 -0.4317  0.1649
 7637SOL    HW131689  11.175   3.676   5.480  0.7984 -0.5828  0.3517
 7637SOL    HW231690  11.287   3.777   5.494 -0.5403  0.8169  1.3119
 7638SOL     OW31691   6.811   7.367   9.785 -0.8966 -0.1483 -0.2940
 7638SOL    HW131692   6.774   7.399   9.868 -0.3022 -1.9815  0.7482
 7638SOL    HW231693   6.890   7.419   9.772 -0.8243 -0.0508  0.4744
 7639SOL     OW31694   7.339   2.274   0.433 -0.1183 -0.5212  0.1558
 7639SOL    HW131695   7.281   2.236   0.366  0.7666 -0.7819 -0.4886
 7639SOL    HW231696   7.424   2.233   0.416  1.0757  2.1740 -0.9899
 7640SOL     OW31697   2.189   9.038  10.867  0.0998 -0.9485 -0.0544
 7640SOL    HW131698   2.127   8.968  10.884 -2.6267  1.4494  0.6256
 7640SOL    HW231699   2.169   9.068  10.779  1.8605 -1.5239 -0.7003
 7641SOL     OW31700   6.137   5.344   7.236  0.4908  0.0311  0.1769
 7641SOL    HW131701   6.193   5.295   7.296 -0.2661 -1.7070 -0.4329
 7641SOL    HW231702   6.060   5.367   7.288 -0.1546 -1.4533 -0.0653
 7642SOL     OW31703   8.641   5.080  10.918 -0.1794 -0.8569 -0.0322
 7642SOL    HW131704   8.608   5.044  11.000  0.2839 -1.1470  0.0283
 7642SOL    HW231705   8.562   5.108  10.871 -0.6191 -2.4078 -0.2974
 7643SOL     OW31706   9.193   6.484   3.930  0.0518 -0.3167 -0.2946
 7643SOL    HW131707   9.151   6.419   3.873 -0.3293  1.6099 -2.3666
 7643SOL    HW231708   9.160   6.568   3.898  2.1078  1.0400  0.9179
 7644SOL     OW31709  10.947   0.990   4.255  0.1729 -0.0654 -0.0760
 7644SOL    HW131710  10.898   1.072   4.253 -0.0066 -0.1794 -0.4538
 7644SOL    HW231711  10.892   0.927   4.209  0.3564 -0.3749  0.1175
 7645SOL     OW31712  11.577   1.876  11.551 -0.1192 -0.0521  0.5680
 7645SOL    HW131713  11.614   1.836  11.630 -1.1685 -0.2429  0.9768
 7645SOL    HW231714  11.554   1.965  11.577 -0.3816 -0.0863  0.4582
 7646SOL     OW31715   9.027   6.804   9.545 -1.0151 -0.0357 -0.3157
 7646SOL    HW131716   9.013   6.800   9.640 -1.3446  1.2162 -0.2987
 7646SOL    HW231717   8.939   6.805   9.508 -0.8920 -1.1538 -0.6928
 7647SOL     OW31718   8.113   4.480   0.944 -0.5391  0.0911  0.1717
 7647SOL    HW131719   8.081   4.482   1.034 -0.2489  1.4231  0.2578
 7647SOL    HW231720   8.208   4.484   0.952 -0.5413  1.1702 -0.1998
 7648SOL     OW31721  11.828   3.856   6.704 -0.4089 -0.1993 -0.7167
 7648SOL    HW131722  11.828   3.777   6.649  1.7261 -0.4671 -0.4137
 7648SOL    HW231723  11.841   3.928   6.642 -1.6338 -0.1367 -0.9169
 7649SOL     OW31724   3.430   6.211   1.502 -0.1145 -0.2655  0.1560
 7649SOL    HW131725   3.340   6.216   1.469 -0.5911  0.1654  1.4566
 7649SOL    HW231726   3.426   6.250   1.589  1.4997  0.4564 -0.0632
 7650SOL     OW31727   4.047   7.606   3.574 -0.4700  0.1034  0.0664
 7650SOL    HW131728   3.983   7.615   3.503  1.1329  0.9658 -1.3406
 7650SOL    HW231729   3.994   7.601   3.653 -2.2927  0.2622 -1.0889
 7651SOL     OW31730   8.431   5.295  11.261 -0.1948  1.1910  0.0702
 7651SOL    HW131731   8.399   5.304  11.171 -3.6144  2.4281  1.2471
 7651SOL    HW231732   8.405   5.206  11.287 -0.2851  1.2537  0.1958
 7652SOL     OW31733   2.130   4.488  10.146  0.1000 -0.7635 -0.3208
 7652SOL    HW131734   2.049   4.534  10.165  0.6126 -0.5030  1.3540
 7652SOL    HW231735   2.141   4.497  10.051  0.0874  2.4257 -0.1196
 7653SOL     OW31736   3.567   5.655  11.910  0.0751 -0.4796  0.0399
 7653SOL    HW131737   3.479   5.690  11.922  0.4272  0.5080 -0.1865
 7653SOL    HW231738   3.556   5.583  11.848 -0.5989 -0.5025  0.1790
 7654SOL     OW31739   8.076   6.122  10.219  0.0528  0.0571  0.0061
 7654SOL    HW131740   8.115   6.036  10.238 -0.0872 -0.0245 -0.0703
 7654SOL    HW231741   8.150   6.177  10.195 -0.0313 -0.5537 -1.8360
 7655SOL     OW31742   8.941   3.563   8.658 -0.3533  0.3949 -0.3856
 7655SOL    HW131743   8.883   3.488   8.674  1.1548 -1.1452 -1.6685
 7655SOL    HW231744   8.903   3.607   8.583 -0.5448  0.1248 -0.4505
 7656SOL     OW31745   7.757  11.972   4.819  0.1302 -0.2105 -0.0055
 7656SOL    HW131746   7.802  12.033   4.760 -0.2992 -0.2164 -0.3467
 7656SOL    HW231747   7.815  11.896   4.824  0.5551  0.1236  0.2325
 7657SOL     OW31748   6.383   1.917   4.576 -0.4451 -0.3805 -0.1254
 7657SOL    HW131749   6.318   1.880   4.517 -0.2336 -1.3811  0.2529
 7657SOL    HW231750   6.346   1.903   4.664 -0.8310  1.2226  0.0041
 7658SOL     OW31751   4.684   0.482   8.552 -0.3208  0.5946  0.4813
 7658SOL    HW131752   4.627   0.555   8.527 -1.2700  0.4497  2.0816
 7658SOL    HW231753   4.681   0.481   8.648  2.4205  0.5816  0.6597
 7659SOL     OW31754   4.222   5.329  10.470  0.0059 -0.1717  0.2226
 7659SOL    HW131755   4.135   5.350  10.505 -0.8778 -1.3058 -1.1908
 7659SOL    HW231756   4.208   5.253  10.414  1.9116 -0.3145 -0.1333
 7660SOL     OW31757   7.511   7.896  11.450  0.1606 -0.8317  0.4806
 7660SOL    HW131758   7.605   7.880  11.454  0.4010  0.7284  1.8616
 7660SOL    HW231759   7.500   7.954  11.375  0.8590  2.0034  2.4083
 7661SOL     OW31760  12.039   4.154   6.659 -0.3764  0.0656 -0.2928
 7661SOL    HW131761  12.057   4.227   6.599 -1.2245  0.7632  0.2805
 7661SOL    HW231762  11.976   4.100   6.612 -0.7869  0.4365 -0.1795
 7662SOL     OW31763   5.684   4.676   8.714 -0.1756 -0.2340 -0.4812
 7662SOL    HW131764   5.625   4.732   8.765 -0.3352 -0.9058  0.0803
 7662SOL    HW231765   5.706   4.729   8.637 -2.0816 -0.2229 -1.0786
 7663SOL     OW31766   5.826   1.620   2.150 -0.7019  0.1316  0.0513
 7663SOL    HW131767   5.751   1.651   2.099  0.2679  0.0079 -1.5530
 7663SOL    HW231768   5.902   1.639   2.094  0.2659 -1.7420  0.6459
 7664SOL     OW31769   3.914  10.197  10.393  0.4190  0.0324 -0.3242
 7664SOL    HW131770   3.846  10.263  10.412  0.9013  0.3815  0.2190
 7664SOL    HW231771   3.908  10.184  10.299 -0.1402  0.3567 -0.3403
 7665SOL     OW31772   1.699  11.930   6.853  0.3893 -0.1018  0.6625
 7665SOL    HW131773   1.617  11.880   6.846 -0.7118  1.5789  0.7435
 7665SOL    HW231774   1.746  11.889   6.925 -1.1548 -0.1223  1.7245
 7666SOL     OW31775   1.658   6.521   4.247 -0.1888 -0.0170 -0.2187
 7666SOL    HW131776   1.725   6.455   4.261 -1.0494 -0.4962  2.0578
 7666SOL    HW231777   1.593   6.505   4.315 -1.4079  1.9536 -0.8123
 7667SOL     OW31778   9.733   2.194   5.622 -0.0850  0.9784  0.2834
 7667SOL    HW131779   9.658   2.205   5.681 -1.7224  0.9420 -1.6746
 7667SOL    HW231780   9.717   2.110   5.578  0.9414  1.1151 -0.3836
 7668SOL     OW31781   2.618   0.174   0.585  0.7766 -0.6366 -0.3427
 7668SOL    HW131782   2.552   0.223   0.535 -0.3413 -0.7900  0.9131
 7668SOL    HW231783   2.635   0.229   0.662  0.5628 -1.5311  0.3690
 7669SOL     OW31784   1.042  10.768   2.483  0.2144 -0.2695  0.1258
 7669SOL    HW131785   1.040  10.803   2.394 -1.7634  2.5746  1.1354
 7669SOL    HW231786   0.982  10.694   2.482 -0.6332  0.4030 -0.7189
 7670SOL     OW31787   3.441  12.436   3.853  0.3166 -0.1782  0.0076
 7670SOL    HW131788   3.398  12.428   3.938 -1.9457 -1.0453 -1.1408
 7670SOL    HW231789   3.436  12.530   3.832 -0.5941 -0.1951  0.1275
 7671SOL     OW31790   8.743   8.196  10.886 -0.2846  0.1304 -0.1648
 7671SOL    HW131791   8.776   8.173  10.800  0.9145  0.3123  0.2208
 7671SOL    HW231792   8.791   8.140  10.947 -0.4138  0.6606  0.4488
 7672SOL     OW31793  12.028   6.434   7.316  0.2922  0.4870  0.3541
 7672SOL    HW131794  11.993   6.505   7.261  2.2114 -0.1356 -1.8167
 7672SOL    HW231795  12.013   6.355   7.264  0.2688 -0.4149  1.7080
 7673SOL     OW31796  10.752   6.662   0.375  0.2952  0.1159 -0.0205
 7673SOL    HW131797  10.739   6.721   0.449 -2.6010  0.5919 -0.8174
 7673SOL    HW231798  10.798   6.715   0.310  0.9238  0.3503  0.6015
 7674SOL     OW31799   7.284  10.598   9.825  0.0092  0.2686  0.0079
 7674SOL    HW131800   7.205  10.594   9.879  0.7030  1.2994  1.1547
 7674SOL    HW231801   7.252  10.590   9.735 -1.5589  2.0706  0.3536
 7675SOL     OW31802   6.391  11.476   4.315 -0.4869  0.5306  0.6748
 7675SOL    HW131803   6.319  11.513   4.365 -0.0010 -0.8616  2.5220
 7675SOL    HW231804   6.380  11.381   4.322  2.4526  0.1781  2.6392
 7676SOL     OW31805   4.112   9.745   2.201 -0.6783  0.5198 -0.0524
 7676SOL    HW131806   4.087   9.804   2.272 -1.0366 -0.2801  0.5045
 7676SOL    HW231807   4.195   9.779   2.169 -0.4659  0.8500  0.8152
 7677SOL     OW31808   8.931   9.722  11.284  0.1329  0.2206 -0.0403
 7677SOL    HW131809   8.880   9.727  11.365  2.2507  0.2660  1.3952
 7677SOL    HW231810   8.953   9.629  11.275  0.4562  0.3074 -0.1755
 7678SOL     OW31811  12.023   4.075   5.638  0.3383  0.1034  0.3075
 7678SOL    HW131812  11.946   4.029   5.604 -0.6790  0.8587  1.4819
 7678SOL    HW231813  12.097   4.027   5.603 -0.6760 -1.3564  0.0626
 7679SOL     OW31814   0.708   4.031   5.145 -0.7528 -0.4906 -0.0176
 7679SOL    HW131815   0.728   4.124   5.134 -0.1954 -0.8505 -3.0798
 7679SOL    HW231816   0.774   4.000   5.208 -1.1279  1.1911  1.2730
 7680SOL     OW31817   4.583   4.587   7.772  0.0031 -0.1284  0.0423
 7680SOL    HW131818   4.559   4.534   7.848 -1.6609  0.4818  0.0048
 7680SOL    HW231819   4.501   4.630   7.747  0.8200  0.7369 -1.2703
 7681SOL     OW31820   7.000   8.613   2.218  0.3518  0.4722  0.5065
 7681SOL    HW131821   6.962   8.696   2.188 -1.3189 -0.9123 -1.4782
 7681SOL    HW231822   6.971   8.604   2.308  0.7400  2.1171  0.8323
 7682SOL     OW31823   8.524   2.389   5.947 -0.2896 -0.2320 -0.0966
 7682SOL    HW131824   8.570   2.341   6.016 -1.0452  1.0064  1.3365
 7682SOL    HW231825   8.469   2.324   5.904  1.0190 -1.2496 -0.2987
 7683SOL     OW31826  12.587   4.758   9.700  0.2408 -0.5958 -0.3200
 7683SOL    HW131827  12.548   4.836   9.738 -1.0784 -1.0866 -0.6166
 7683SOL    HW231828  12.521   4.725   9.639  1.7351 -0.5938 -2.0316
 7684SOL     OW31829   5.136   1.098   3.957 -0.9555 -0.4045  0.2515
 7684SOL    HW131830   5.168   1.010   3.939 -1.1193 -0.7294  1.4505
 7684SOL    HW231831   5.044   1.097   3.929 -1.0535 -0.7274  0.5755
 7685SOL     OW31832   8.668   3.596   7.921 -0.3586  0.0564  0.1710
 7685SOL    HW131833   8.732   3.609   7.991  1.2474  0.3137 -1.2731
 7685SOL    HW231834   8.705   3.644   7.846 -1.8787 -0.4350 -0.9305
 7686SOL     OW31835  11.853   3.461  12.436  0.0750  0.6680  0.1613
 7686SOL    HW131836  11.807   3.487  12.356  0.1620  0.6783  0.1142
 7686SOL    HW231837  11.842   3.535  12.495  0.5177  0.9136 -0.0542
 7687SOL     OW31838   1.512  12.052   0.358  0.0015  0.1019  0.5830
 7687SOL    HW131839   1.593  12.077   0.314 -0.4539 -0.3966 -0.5804
 7687SOL    HW231840   1.452  12.125   0.343 -0.5959 -0.6502 -0.8524
 7688SOL     OW31841  12.114   9.976   9.495  0.0615  0.4677 -0.2481
 7688SOL    HW131842  12.092   9.911   9.562 -0.1725 -0.1023 -0.8698
 7688SOL    HW231843  12.206   9.960   9.475  0.0333  0.4012 -0.3220
 7689SOL     OW31844   5.872   8.626   2.828 -0.4592 -0.1367  0.0238
 7689SOL    HW131845   5.782   8.633   2.860 -0.5158 -0.9156  0.0598
 7689SOL    HW231846   5.896   8.535   2.846 -0.1924 -0.3605 -1.3471
 7690SOL     OW31847   8.590   4.386  10.167 -0.1814 -0.5533  0.7280
 7690SOL    HW131848   8.657   4.454  10.158 -0.4829 -0.3483 -0.0468
 7690SOL    HW231849   8.579   4.375  10.262  1.6647 -1.3022  0.9002
 7691SOL     OW31850   5.906  12.566   0.127  0.3945 -0.1770  0.2048
 7691SOL    HW131851   5.906  12.568   0.031  0.1968  2.2518  0.1890
 7691SOL    HW231852   5.844  12.635   0.152 -0.7729 -1.8074  2.1115
 7692SOL     OW31853   0.928   9.845   9.487 -0.4902 -0.0377 -0.2025
 7692SOL    HW131854   0.988   9.771   9.476  0.9667  1.0157  0.3005
 7692SOL    HW231855   0.985   9.922   9.484 -1.8390  1.0167  0.3029
 7693SOL     OW31856  11.687  10.462   8.515  0.0211 -0.0969  0.4521
 7693SOL    HW131857  11.633  10.446   8.438  1.4091 -1.5536 -0.2703
 7693SOL    HW231858  11.775  10.433   8.490  1.0506  1.6519  1.7803
 7694SOL     OW31859   0.622   9.556   9.994  0.8443 -0.5909  0.2793
 7694SOL    HW131860   0.554   9.588  10.053  1.1134 -0.9518  0.7890
 7694SOL    HW231861   0.659   9.635   9.955 -0.8979 -0.4373 -1.1870
 7695SOL     OW31862   6.352   2.240  11.253  0.1946 -0.1976  0.2273
 7695SOL    HW131863   6.367   2.332  11.276  0.8675 -0.0788 -0.6455
 7695SOL    HW231864   6.350   2.240  11.157 -0.1354 -1.0454  0.2313
 7696SOL     OW31865  12.447   1.990   2.375  0.3590  0.2390  0.0125
 7696SOL    HW131866  12.422   2.076   2.341 -0.3721  1.0856  2.4946
 7696SOL    HW231867  12.511   2.009   2.444  0.9775 -1.3117 -0.0850
 7697SOL     OW31868   2.131   3.386   5.548 -0.3686 -0.0289 -0.4902
 7697SOL    HW131869   2.067   3.358   5.613  0.5953 -0.2656  0.3878
 7697SOL    HW231870   2.165   3.304   5.511  1.8564 -0.1092  1.4907
 7698SOL     OW31871   1.044   6.282   5.674 -0.1449  0.4805  0.1265
 7698SOL    HW131872   0.985   6.347   5.636 -0.5102 -0.6022 -1.2709
 7698SOL    HW231873   1.037   6.207   5.615  0.8469 -0.5411  1.2624
 7699SOL     OW31874   6.309   2.419   1.324 -0.4701  0.3473  0.7837
 7699SOL    HW131875   6.354   2.379   1.398  1.1502 -0.0213 -0.3288
 7699SOL    HW231876   6.339   2.369   1.248 -0.2119  2.1807 -0.3833
 7700SOL     OW31877   7.712   2.075   6.518 -0.2808  0.1531  0.3637
 7700SOL    HW131878   7.660   2.040   6.446  0.5569  0.1597 -0.2563
 7700SOL    HW231879   7.777   2.131   6.476 -0.3018  0.8145  1.1914
 7701SOL     OW31880  12.297   4.816   9.634 -0.2854  0.0816 -0.1231
 7701SOL    HW131881  12.222   4.833   9.692 -0.3454 -0.3531 -0.0712
 7701SOL    HW231882  12.361   4.884   9.658 -0.8454  0.7570 -0.5036
 7702SOL     OW31883   4.363   2.145   0.361 -0.0546  0.2130  0.3694
 7702SOL    HW131884   4.313   2.065   0.377 -1.6490  1.1744  0.3683
 7702SOL    HW231885   4.447   2.130   0.404 -1.5545 -0.1557  3.4137
 7703SOL     OW31886  10.544   9.598   0.632 -0.5442  0.0768  0.4504
 7703SOL    HW131887  10.597   9.576   0.556 -0.6182 -0.3389  0.5173
 7703SOL    HW231888  10.596   9.662   0.680 -0.5963  0.5154 -0.0676
 7704SOL     OW31889   1.358   1.469   3.023  0.7548 -0.0426 -0.4053
 7704SOL    HW131890   1.434   1.511   3.062  1.1216 -0.6771 -0.4118
 7704SOL    HW231891   1.351   1.385   3.069  0.9507 -0.6320 -1.4046
 7705SOL     OW31892   5.376   5.530  10.362  0.0088 -0.6363 -0.7544
 7705SOL    HW131893   5.426   5.490  10.433  0.2423  0.7032 -0.1350
 7705SOL    HW231894   5.441   5.548  10.294  0.2416  0.3147 -0.2986
 7706SOL     OW31895   3.286   8.645   6.508 -0.7071 -0.1160 -0.2435
 7706SOL    HW131896   3.243   8.572   6.464  0.1384  0.7420 -2.6733
 7706SOL    HW231897   3.215   8.699   6.542 -1.4726 -0.2409 -1.5824
 7707SOL     OW31898   0.824   2.133   7.894 -0.4643  0.4752 -0.1317
 7707SOL    HW131899   0.769   2.144   7.817  1.8252  1.3980 -1.7353
 7707SOL    HW231900   0.891   2.070   7.868  0.5750  1.0912  0.9389
 7708SOL     OW31901   0.938   3.367   5.649 -0.0027 -0.0079  0.2692
 7708SOL    HW131902   0.904   3.400   5.567  0.6407  0.7233  0.2907
 7708SOL    HW231903   0.867   3.379   5.712 -0.9859 -1.7762 -0.4274
 7709SOL     OW31904   2.478   4.800   1.882  0.3355 -0.0488 -0.3374
 7709SOL    HW131905   2.385   4.811   1.862 -0.1584 -5.0610 -2.2889
 7709SOL    HW231906   2.483   4.810   1.977 -1.8715  1.5493 -0.2932
 7710SOL     OW31907   1.770   2.319   7.323  0.3283 -0.4277 -0.7351
 7710SOL    HW131908   1.851   2.364   7.297 -0.0391  1.0000  0.4625
 7710SOL    HW231909   1.710   2.335   7.250  0.4047  0.5042 -0.6015
 7711SOL     OW31910   8.808   9.413   1.611  0.6802 -0.1550 -0.5391
 7711SOL    HW131911   8.773   9.372   1.690  1.1013 -0.1276 -0.3317
 7711SOL    HW231912   8.894   9.372   1.599  0.4931 -0.3663 -1.1503
 7712SOL     OW31913   1.330   8.321   6.924 -0.6242  0.0835 -0.1614
 7712SOL    HW131914   1.413   8.326   6.972 -2.3333  0.3010  3.0215
 7712SOL    HW231915   1.333   8.394   6.863  1.7367 -0.2640 -0.5392
 7713SOL     OW31916   9.995  11.973  10.146 -0.5259 -0.2831 -0.0539
 7713SOL    HW131917  10.033  11.922  10.218 -2.7030 -0.5096  1.0049
 7713SOL    HW231918  10.005  11.918  10.069  2.3115  0.1662 -0.1098
 7714SOL     OW31919   2.515  11.892  10.095 -0.4053  0.3024  0.0161
 7714SOL    HW131920   2.476  11.979  10.085 -0.3949  0.2225 -0.8210
 7714SOL    HW231921   2.609  11.906  10.086 -0.4426  0.1351 -0.7913
 7715SOL     OW31922   6.265   8.990  10.930 -0.3728 -0.4993 -0.2537
 7715SOL    HW131923   6.206   9.052  10.889  1.4996  1.8844  0.4031
 7715SOL    HW231924   6.295   8.933  10.859 -0.7983  0.5020 -1.2405
 7716SOL     OW31925   1.639   9.332   8.883 -0.2124 -0.7452  0.4749
 7716SOL    HW131926   1.585   9.287   8.817 -1.3028 -1.3112  1.6961
 7716SOL    HW231927   1.689   9.261   8.924  1.3544 -0.2412 -0.5213
 7717SOL     OW31928   4.261  11.915   2.247  0.5067 -0.9010  0.3393
 7717SOL    HW131929   4.303  11.963   2.175 -0.9477  0.6799  0.4893
 7717SOL    HW231930   4.186  11.873   2.206  0.9073 -1.8156  0.5263
 7718SOL     OW31931  10.575   2.233   5.266  0.2201  0.5410 -0.0443
 7718SOL    HW131932  10.645   2.195   5.212 -0.1189 -0.0955 -0.0461
 7718SOL    HW231933  10.499   2.234   5.208  0.3161  1.5866 -0.1627
 7719SOL     OW31934   2.753   0.664  10.762 -0.2548  0.8331 -0.2115
 7719SOL    HW131935   2.714   0.709  10.687 -2.0481 -0.3439 -0.0307
 7719SOL    HW231936   2.686   0.670  10.831  0.1675 -0.6411  0.3492
 7720SOL     OW31937   4.382  11.648   3.675 -0.1587  0.7664 -0.0591
 7720SOL    HW131938   4.301  11.599   3.690  0.1747 -0.2977 -1.5255
 7720SOL    HW231939   4.448  11.581   3.658  0.9819  1.6278  0.8091
 7721SOL     OW31940   1.851   4.899   9.676  0.0631 -0.3180 -0.5153
 7721SOL    HW131941   1.782   4.898   9.609 -1.3668 -1.4533  0.9294
 7721SOL    HW231942   1.874   4.807   9.689  1.9041  0.0338 -0.9632
 7722SOL     OW31943   9.549   7.988   3.832  0.4667 -0.4046  0.4163
 7722SOL    HW131944   9.572   8.062   3.888  0.3416  0.9542 -1.2249
 7722SOL    HW231945   9.497   7.930   3.888 -0.1687  1.1833  1.5428
 7723SOL     OW31946   8.264   7.522  10.578 -0.0994  0.5632  0.2667
 7723SOL    HW131947   8.269   7.449  10.639 -1.1837 -0.7239 -1.1118
 7723SOL    HW231948   8.170   7.535  10.563  0.0180  2.6553  0.9111
 7724SOL     OW31949   3.930   5.924   4.161  0.2377 -0.1032 -0.1201
 7724SOL    HW131950   3.972   5.982   4.098  1.0521 -0.8115 -0.2385
 7724SOL    HW231951   3.873   5.868   4.108 -0.0390  0.1370 -0.0796
 7725SOL     OW31952   3.130  11.062   1.937 -0.1668 -0.0137 -0.5678
 7725SOL    HW131953   3.107  10.991   1.997  1.7567  0.6290  1.0331
 7725SOL    HW231954   3.171  11.019   1.862 -1.4477 -0.7313 -0.9018
 7726SOL     OW31955   2.933   1.773   5.801  0.2236 -0.0730 -0.5795
 7726SOL    HW131956   2.878   1.844   5.766  0.6015  1.1416  1.1576
 7726SOL    HW231957   2.870   1.705   5.826 -0.4099  0.7627  0.1820
 7727SOL     OW31958   4.004   6.694   8.942 -0.0269  0.0236 -0.1710
 7727SOL    HW131959   3.970   6.697   8.853 -1.7239 -0.9684  0.3841
 7727SOL    HW231960   3.945   6.634   8.988 -0.0557  1.5638  1.9786
 7728SOL     OW31961   4.835   3.434   7.782  0.1983  0.4183  0.0492
 7728SOL    HW131962   4.890   3.509   7.806  0.1483  0.7604 -0.8708
 7728SOL    HW231963   4.793   3.460   7.700 -0.4426 -0.3035  0.1375
 7729SOL     OW31964   1.047  10.816   9.458 -0.2143 -0.5998  0.1333
 7729SOL    HW131965   1.070  10.728   9.428  0.6211 -0.5144  0.4852
 7729SOL    HW231966   1.027  10.864   9.379  0.9761 -0.6529 -0.2241
 7730SOL     OW31967   0.532   7.848   0.382  0.0681  0.0138  0.3961
 7730SOL    HW131968   0.597   7.876   0.318 -0.2358 -1.2463 -0.4941
 7730SOL    HW231969   0.584   7.807   0.452  0.3226  0.2558  0.3481
 7731SOL     OW31970   1.142  11.493   3.809 -0.3300 -0.6013 -0.2256
 7731SOL    HW131971   1.222  11.525   3.850  0.1526 -0.7962 -0.9895
 7731SOL    HW231972   1.172  11.441   3.735 -1.1689 -0.2142 -0.8617
 7732SOL     OW31973   2.056  10.511   2.326 -0.1979  0.6253  0.0829
 7732SOL    HW131974   2.079  10.596   2.362  2.3156 -0.3957  1.0901
 7732SOL    HW231975   2.061  10.450   2.400 -0.8718 -0.5928 -0.8240
 7733SOL     OW31976  10.392   1.195   9.200 -0.6454 -0.8971 -0.5571
 7733SOL    HW131977  10.355   1.111   9.173  0.8317 -1.4730 -0.8933
 7733SOL    HW231978  10.423   1.235   9.119  0.4127 -0.9301 -0.1906
 7734SOL     OW31979   8.821   1.628   5.104 -0.2706  0.0602  0.4339
 7734SOL    HW131980   8.866   1.680   5.171 -0.0147 -0.0060  0.3169
 7734SOL    HW231981   8.818   1.685   5.027  1.4114 -0.6235 -0.1977
 7735SOL     OW31982   5.096   6.923  10.334 -0.1411 -0.4189  0.2847
 7735SOL    HW131983   5.121   6.999  10.386 -0.0816  1.0209 -1.7473
 7735SOL    HW231984   5.134   6.848  10.381 -0.2696  0.7544  2.3748
 7736SOL     OW31985   1.846   5.832   7.715 -0.1914 -0.1150  0.3201
 7736SOL    HW131986   1.865   5.810   7.807 -0.5154 -2.0762 -0.0356
 7736SOL    HW231987   1.758   5.795   7.700  0.4784 -1.1882 -1.1812
 7737SOL     OW31988  11.703   4.612   4.733 -0.2080 -1.1018  0.1829
 7737SOL    HW131989  11.639   4.655   4.791  1.6853 -0.6027  2.0305
 7737SOL    HW231990  11.715   4.674   4.661 -1.9715 -1.3353 -0.3539
 7738SOL     OW31991   6.785  12.568   8.548 -0.4311  0.6977 -0.3633
 7738SOL    HW131992   6.774  12.543   8.639  0.3280  0.2760 -0.3819
 7738SOL    HW231993   6.747  12.495   8.498  1.8488 -0.5198 -0.4195
 7739SOL     OW31994   9.735  10.851   1.583 -0.2067  0.4089 -0.2659
 7739SOL    HW131995   9.713  10.767   1.542  0.3971  0.4689 -0.7318
 7739SOL    HW231996   9.666  10.864   1.649 -1.9758  0.9039 -2.0890
 7740SOL     OW31997  11.353  11.149  12.177 -0.1451 -0.5840 -0.2391
 7740SOL    HW131998  11.435  11.128  12.221  0.2494  1.8253  0.3525
 7740SOL    HW231999  11.378  11.208  12.106 -1.2021 -1.1930 -1.1572
 7741SOL     OW32000   3.782   6.612  11.111  0.3634 -0.2070  0.1259
 7741SOL    HW132001   3.733   6.692  11.132 -1.0901 -0.3590 -2.3197
 7741SOL    HW232002   3.723   6.540  11.132  0.0438 -0.4429 -1.4219
 7742SOL     OW32003   5.932  12.311  11.393 -0.1717  0.2750 -0.1443
 7742SOL    HW132004   5.898  12.401  11.398 -0.2672  0.2566 -0.4757
 7742SOL    HW232005   5.859  12.259  11.360 -0.9164 -0.3574  2.2543
 7743SOL     OW32006   6.018   6.276   4.502 -0.1360  1.0316 -0.0216
 7743SOL    HW132007   6.099   6.240   4.467 -1.5086 -0.3133 -2.0482
 7743SOL    HW232008   6.036   6.291   4.595  1.8177 -1.0407  0.0076
 7744SOL     OW32009   3.790   4.730   3.167  0.1558 -0.4294  0.2379
 7744SOL    HW132010   3.769   4.693   3.081 -1.3958  1.0407 -0.0744
 7744SOL    HW232011   3.882   4.706   3.181  0.1892 -1.4784 -1.4074
 7745SOL     OW32012   8.605   1.555  11.054  0.4119 -0.2453 -0.0740
 7745SOL    HW132013   8.559   1.488  11.104  1.1996  0.2053  1.2894
 7745SOL    HW232014   8.591   1.530  10.962  2.7134 -3.7254  0.3350
 7746SOL     OW32015   2.106   4.470   9.147 -0.6456  0.5427  0.0645
 7746SOL    HW132016   2.101   4.393   9.090  0.4825 -1.9217  2.9590
 7746SOL    HW232017   2.143   4.539   9.093 -0.2356 -1.4114 -2.3122
 7747SOL     OW32018   8.554   6.396   8.370  0.0321  0.2687 -0.2309
 7747SOL    HW132019   8.541   6.431   8.458  0.2677 -2.2559  0.9175
 7747SOL    HW232020   8.505   6.455   8.313 -3.0015  0.1596  2.0043
 7748SOL     OW32021  12.314   4.000   0.154  0.0610 -0.1354  0.0213
 7748SOL    HW132022  12.264   3.933   0.109 -1.6104 -0.4616  2.1770
 7748SOL    HW232023  12.275   4.082   0.127  0.3648 -0.1961 -0.6047
 7749SOL     OW32024   3.337   9.133   2.601  0.8529 -0.3804 -0.5416
 7749SOL    HW132025   3.430   9.153   2.592  0.6462  2.2024  1.6540
 7749SOL    HW232026   3.301   9.210   2.645 -2.1606 -1.7018 -0.4858
 7750SOL     OW32027   9.527   1.863   5.014  0.3290  0.2294  1.0600
 7750SOL    HW132028   9.609   1.911   5.027  1.9378 -1.3560 -2.3033
 7750SOL    HW232029   9.471   1.925   4.966 -0.2613  1.0118  2.6473
 7751SOL     OW32030   4.021   3.468   9.193  0.1953 -0.4450  0.6474
 7751SOL    HW132031   4.093   3.449   9.133 -0.1176 -1.1986  0.4988
 7751SOL    HW232032   3.943   3.471   9.136  0.0344 -0.1650  0.8792
 7752SOL     OW32033   9.999   0.112   8.453 -0.2688 -0.2213 -0.1744
 7752SOL    HW132034   9.981   0.019   8.441  0.1735 -0.2661 -0.5291
 7752SOL    HW232035   9.913   0.151   8.471 -0.3601 -0.7894  0.6220
 7753SOL     OW32036   2.436   6.876  12.373 -0.2791 -0.0953 -0.0198
 7753SOL    HW132037   2.474   6.955  12.334 -0.6819 -0.7888 -1.9220
 7753SOL    HW232038   2.341   6.893  12.373 -0.2313  0.2785  1.5940
 7754SOL     OW32039   3.214   0.495   0.123 -0.4179 -0.0282 -0.6135
 7754SOL    HW132040   3.222   0.425   0.188 -1.0094  0.6401  0.2091
 7754SOL    HW232041   3.287   0.554   0.143 -1.6007  1.0824  0.6179
 7755SOL     OW32042   4.383   6.281  11.666 -0.1089 -0.2351  0.0966
 7755SOL    HW132043   4.340   6.207  11.708 -0.2673 -0.1864  0.0189
 7755SOL    HW232044   4.366   6.268  11.573 -1.0376  0.4726  0.1604
 7756SOL     OW32045   0.694   3.031   3.930 -0.1612  0.1786 -0.2276
 7756SOL    HW132046   0.757   3.070   3.870  1.6359  0.2851  1.6326
 7756SOL    HW232047   0.647   2.967   3.877  1.5302  0.0655 -1.6877
 7757SOL     OW32048   5.309   6.203   3.009 -0.5563  0.2804  0.2983
 7757SOL    HW132049   5.266   6.179   3.092 -1.9009  1.4837 -0.0015
 7757SOL    HW232050   5.263   6.151   2.943  0.1150 -0.2325  0.2219
 7758SOL     OW32051   0.605   2.288   4.262  0.0976  0.3801  0.2307
 7758SOL    HW132052   0.652   2.302   4.344 -0.7907 -1.7853  1.1840
 7758SOL    HW232053   0.640   2.206   4.228 -0.4272  0.6090 -0.9260
 7759SOL     OW32054   6.891   3.340   9.542 -0.7489  0.1109 -0.4272
 7759SOL    HW132055   6.877   3.376   9.454  0.0683 -0.5703 -0.8612
 7759SOL    HW232056   6.985   3.318   9.543 -0.2579  1.9757  1.3272
 7760SOL     OW32057   4.290   0.628   6.324 -0.1073 -0.0334 -0.0389
 7760SOL    HW132058   4.326   0.577   6.251 -1.2613  0.2483 -0.8326
 7760SOL    HW232059   4.334   0.713   6.317  2.3115 -1.0268  1.6780
 7761SOL     OW32060   9.056   2.693   7.910  0.0575 -0.0324 -0.3623
 7761SOL    HW132061   9.035   2.703   7.817 -1.2641  1.0083  0.0064
 7761SOL    HW232062   8.982   2.644   7.946  0.8417 -0.9379  0.0521
 7762SOL     OW32063   9.633   3.670  10.715 -0.2208 -0.5908 -0.3814
 7762SOL    HW132064   9.592   3.594  10.674 -1.4536 -0.6511  0.8806
 7762SOL    HW232065   9.559   3.721  10.749  0.6967  0.0446  0.6976
 7763SOL     OW32066  10.422   1.387   6.325  0.1347 -0.2045 -0.3649
 7763SOL    HW132067  10.484   1.403   6.397 -0.8113  0.1888  0.3955
 7763SOL    HW232068  10.364   1.319   6.358 -0.9100  0.6597 -0.3419
 7764SOL     OW32069  11.330   0.258   5.151  0.5650  0.0367 -0.0073
 7764SOL    HW132070  11.238   0.248   5.128 -0.3853  2.7180  2.0769
 7764SOL    HW232071  11.372   0.289   5.071 -0.3462 -0.9831 -0.9115
 7765SOL     OW32072   3.671   8.440  10.816 -0.2150 -0.0017  0.0481
 7765SOL    HW132073   3.687   8.514  10.874  2.1139  0.0096 -0.5015
 7765SOL    HW232074   3.591   8.464  10.768  0.6777  2.3462 -0.3782
 7766SOL     OW32075   9.511   8.568  10.844  0.2785  0.6272 -0.1075
 7766SOL    HW132076   9.495   8.529  10.758 -0.3644 -1.1176  0.7654
 7766SOL    HW232077   9.606   8.561  10.856  0.8187  3.4007 -1.7665
 7767SOL     OW32078   3.427   0.055   7.466  0.1639  0.0871 -0.2141
 7767SOL    HW132079   3.353   0.083   7.521  0.8560  0.5672  0.4903
 7767SOL    HW232080   3.432   0.120   7.397  0.3177  0.4140  0.1009
 7768SOL     OW32081   8.734   6.043   1.209 -0.0075 -0.3197 -0.3041
 7768SOL    HW132082   8.777   6.075   1.130  0.0187 -2.5851 -1.2657
 7768SOL    HW232083   8.667   6.109   1.228  0.0726  0.3302 -2.1152
 7769SOL     OW32084   2.919   3.505   1.047  0.1478  0.2565 -0.2891
 7769SOL    HW132085   2.907   3.593   1.083  1.1633  0.3057 -0.0373
 7769SOL    HW232086   2.887   3.512   0.957 -0.5334  0.6635 -0.0225
 7770SOL     OW32087   3.180  11.060  12.147 -0.1641 -0.0695 -0.1018
 7770SOL    HW132088   3.111  10.995  12.162 -0.4883  0.5021  0.9867
 7770SOL    HW232089   3.135  11.145  12.154  0.5324  0.2997 -0.0118
 7771SOL     OW32090  10.753   1.946   6.330  0.9910 -0.2178 -0.2504
 7771SOL    HW132091  10.777   2.026   6.282 -0.1604  0.7214  0.6984
 7771SOL    HW232092  10.679   1.911   6.281  0.9154 -0.2175 -0.1329
 7772SOL     OW32093   9.524  11.390   8.842 -0.5412 -0.4383 -0.3400
 7772SOL    HW132094   9.570  11.473   8.838  0.3247 -0.9026 -0.2696
 7772SOL    HW232095   9.531  11.362   8.933  1.5502 -1.8599 -0.8499
 7773SOL     OW32096   9.768   1.132  11.392 -0.4353  0.3980 -0.0394
 7773SOL    HW132097   9.699   1.184  11.352  0.7809  1.3961 -0.9123
 7773SOL    HW232098   9.748   1.042  11.367 -1.3196  0.6908 -0.4220
 7774SOL     OW32099   4.138   7.948   5.097 -0.0094  0.2763 -0.6155
 7774SOL    HW132100   4.153   7.880   5.031 -1.1946  1.3221 -2.0166
 7774SOL    HW232101   4.144   8.030   5.049 -2.2113  1.0257  0.2775
 7775SOL     OW32102  11.953   2.579   4.575 -0.2525  0.0647  0.1883
 7775SOL    HW132103  11.864   2.561   4.542  0.2460 -0.7680 -0.7704
 7775SOL    HW232104  12.004   2.504   4.546  0.5740  0.0726  1.5664
 7776SOL     OW32105  11.408   8.669   2.195 -0.1647  0.7506  0.4836
 7776SOL    HW132106  11.448   8.713   2.120 -0.8664 -2.0768 -1.7288
 7776SOL    HW232107  11.479   8.663   2.259  1.9647 -0.8112 -1.8166
 7777SOL     OW32108   7.357  11.412   2.446  0.1222  0.1156 -0.1069
 7777SOL    HW132109   7.266  11.426   2.421 -0.8860 -1.9839  1.8903
 7777SOL    HW232110   7.389  11.346   2.385 -0.2421 -0.2974  0.1393
 7778SOL     OW32111   1.276  11.056   0.079  0.1699  0.7516  0.3332
 7778SOL    HW132112   1.321  11.132   0.116  1.0696  0.8816 -0.9633
 7778SOL    HW232113   1.326  11.034   0.001 -0.4418 -0.8074  0.3445
 7779SOL     OW32114   1.917  10.071   2.195  0.8405  0.1115  0.2026
 7779SOL    HW132115   1.847  10.125   2.157  0.6619  0.1097  0.5144
 7779SOL    HW232116   1.992  10.129   2.201  0.4581  0.5284  1.1398
 7780SOL     OW32117   3.492   0.319   9.427 -0.6280 -0.7037 -0.1599
 7780SOL    HW132118   3.404   0.317   9.391 -1.1327  2.0948  0.6580
 7780SOL    HW232119   3.485   0.274   9.511 -0.5909 -2.8443 -1.2420
 7781SOL     OW32120   2.421   4.755   9.822 -0.2750  0.3989  0.8548
 7781SOL    HW132121   2.378   4.682   9.778  0.6916  0.2581  0.1283
 7781SOL    HW232122   2.348   4.808   9.856 -0.9822 -0.9423  1.4926
 7782SOL     OW32123   4.853   7.701   7.087  0.0630 -0.5539 -0.5113
 7782SOL    HW132124   4.812   7.785   7.110  2.0384  0.8605 -1.8859
 7782SOL    HW232125   4.823   7.683   6.998 -1.2751 -1.9590  0.1841
 7783SOL     OW32126   2.261   3.654   9.138  0.1422  0.3990 -0.3089
 7783SOL    HW132127   2.238   3.665   9.230  2.8681 -1.6602  0.7724
 7783SOL    HW232128   2.228   3.567   9.115  1.6150 -0.1501 -0.4576
 7784SOL     OW32129   4.730   8.203   6.306  0.8618 -0.3099  0.4828
 7784SOL    HW132130   4.755   8.111   6.300  0.7842 -0.6343  3.5955
 7784SOL    HW232131   4.710   8.217   6.399  0.0984  2.6647 -0.0153
 7785SOL     OW32132   8.312   4.428   7.010 -0.4049  0.2617 -0.5605
 7785SOL    HW132133   8.315   4.470   6.924 -0.7011  0.2148 -0.5973
 7785SOL    HW232134   8.237   4.468   7.053  1.0691  1.9594  0.5640
 7786SOL     OW32135   3.749   2.179   8.339  0.3733 -0.6662  0.1040
 7786SOL    HW132136   3.718   2.091   8.359  1.1359 -0.7465  0.9687
 7786SOL    HW232137   3.821   2.194   8.400 -0.6451  1.0949  0.9429
 7787SOL     OW32138   8.560  11.519   9.634  1.0630 -0.1599 -0.2140
 7787SOL    HW132139   8.575  11.612   9.652 -1.3941  0.4442 -0.8519
 7787SOL    HW232140   8.496  11.493   9.700 -2.0734  0.0219 -2.9361
 7788SOL     OW32141   8.303   6.046   5.783 -0.4533  0.4954 -0.3992
 7788SOL    HW132142   8.250   6.106   5.732 -1.2752  1.1975  1.1913
 7788SOL    HW232143   8.378   6.025   5.727 -0.9514  1.7728 -1.5782
 7789SOL     OW32144   1.728  11.564   7.551  0.0539 -0.3451  0.2100
 7789SOL    HW132145   1.808  11.540   7.504  0.5303 -1.8006  1.6569
 7789SOL    HW232146   1.746  11.541   7.642 -2.2178 -1.2476  0.5021
 7790SOL     OW32147  10.843   0.089   4.607  0.4329 -0.2731  0.1915
 7790SOL    HW132148  10.897   0.051   4.677  1.9392  0.4516 -0.5405
 7790SOL    HW232149  10.849   0.026   4.535  0.3225 -0.1874  0.1065
 7791SOL     OW32150   7.412  10.641   8.167 -0.0119 -0.3733 -0.2805
 7791SOL    HW132151   7.463  10.569   8.203  1.0749  0.1212 -0.7796
 7791SOL    HW232152   7.382  10.609   8.081  1.1843  0.0465 -0.8765
 7792SOL     OW32153   6.836   9.295   8.839  0.1860 -0.1384 -0.0219
 7792SOL    HW132154   6.870   9.342   8.763  1.5412  0.2671  0.8077
 7792SOL    HW232155   6.843   9.357   8.912 -0.3619 -0.7779  0.5983
 7793SOL     OW32156   1.277   3.198  12.467 -0.0527 -0.2705 -0.5689
 7793SOL    HW132157   1.230   3.281  12.479  1.1494  0.5431 -1.2820
 7793SOL    HW232158   1.360   3.211  12.514 -1.2533 -2.4131  2.4154
 7794SOL     OW32159   1.641   3.786   2.373 -0.1010  0.1005  0.0826
 7794SOL    HW132160   1.654   3.751   2.462  0.7886 -2.1618 -0.8709
 7794SOL    HW232161   1.730   3.799   2.340 -0.2940 -2.3430 -1.6299
 7795SOL     OW32162  10.499   4.611  11.971  0.1639 -0.1389 -0.2162
 7795SOL    HW132163  10.478   4.599  12.063 -1.5163  1.0948 -0.4023
 7795SOL    HW232164  10.471   4.530  11.928 -0.4889 -0.1066  0.1428
 7796SOL     OW32165   6.004   6.835  12.383  0.4830  0.2972  0.1412
 7796SOL    HW132166   5.917   6.827  12.424  0.5286  0.4873  0.2771
 7796SOL    HW232167   5.986   6.873  12.297  0.2053 -1.6489 -0.7334
 7797SOL     OW32168  11.814   1.342   2.216 -0.2238 -0.3567 -0.2981
 7797SOL    HW132169  11.837   1.286   2.291 -0.7718  0.9971  0.9266
 7797SOL    HW232170  11.869   1.419   2.227 -0.5138 -0.0204 -1.1510
 7798SOL     OW32171   2.265  10.734  12.238  0.1795 -0.0348  0.0327
 7798SOL    HW132172   2.184  10.740  12.187  0.0958 -0.4120  0.1185
 7798SOL    HW232173   2.272  10.819  12.282 -0.7423 -0.3775  0.8819
 7799SOL     OW32174   8.748  12.555  10.035 -0.2372 -0.2526 -0.1607
 7799SOL    HW132175   8.663  12.516  10.016 -0.1165  0.3337 -2.0986
 7799SOL    HW232176   8.793  12.557   9.951  1.1586  0.7447  0.5622
 7800SOL     OW32177   5.407   6.750   7.643 -0.4148 -0.0451 -0.3292
 7800SOL    HW132178   5.441   6.806   7.712 -0.0941 -1.0194  0.3238
 7800SOL    HW232179   5.430   6.796   7.562  1.5203 -0.1187  0.1201
 7801SOL     OW32180   2.734   6.576   0.025 -0.3662 -0.0189  0.5851
 7801SOL    HW132181   2.648   6.576  -0.015 -0.1243 -1.0996  0.0194
 7801SOL    HW232182   2.778   6.652  -0.012 -0.7742  0.0314  0.1997
 7802SOL     OW32183   5.288   0.349  11.670 -0.3231 -0.3815  0.1580
 7802SOL    HW132184   5.230   0.285  11.629 -1.2812 -0.5035  1.6285
 7802SOL    HW232185   5.230   0.418  11.701  0.7553  1.7546 -2.1891
 7803SOL     OW32186   4.957   3.835   1.613 -0.2225  0.4711  0.1750
 7803SOL    HW132187   5.044   3.842   1.573 -0.6835 -0.8111 -1.1537
 7803SOL    HW232188   4.907   3.906   1.573 -0.0057  0.7182  0.3419
 7804SOL     OW32189   7.424   9.724  11.401  0.4416 -0.2875 -0.0386
 7804SOL    HW132190   7.368   9.680  11.465  1.4522 -0.2014  0.9472
 7804SOL    HW232191   7.465   9.795  11.451 -0.5740  1.3323 -1.3980
 7805SOL     OW32192   1.596   9.574   0.858 -0.1498  0.3188  0.3135
 7805SOL    HW132193   1.521   9.517   0.839 -0.4674  0.9318 -0.3284
 7805SOL    HW232194   1.631   9.597   0.772  1.3610 -0.6851  0.6188
 7806SOL     OW32195   3.723   5.472   8.348  0.0867 -0.1012  0.0062
 7806SOL    HW132196   3.757   5.408   8.286 -1.5004 -1.2822  0.2781
 7806SOL    HW232197   3.650   5.514   8.302  0.4668  0.7927  0.2021
 7807SOL     OW32198  10.918   4.152   3.164 -0.7550  0.1087  0.2378
 7807SOL    HW132199  10.834   4.111   3.187 -0.5569 -0.6943 -0.4232
 7807SOL    HW232200  10.894   4.239   3.132 -0.9926  1.9458  4.6435
 7808SOL     OW32201   5.456   3.360   0.343  0.2155 -0.4576 -0.2146
 7808SOL    HW132202   5.528   3.372   0.280 -0.7697 -1.0296 -1.4956
 7808SOL    HW232203   5.397   3.298   0.301 -1.2329  0.2736  0.6439
 7809SOL     OW32204   7.759   5.022   0.411 -0.2090  0.4387 -0.2497
 7809SOL    HW132205   7.755   4.973   0.329 -0.6592  0.2892 -0.1387
 7809SOL    HW232206   7.706   5.100   0.396 -0.7778  0.1259  0.0866
 7810SOL     OW32207   1.419  11.455   9.300 -0.1598  0.5550 -0.1500
 7810SOL    HW132208   1.470  11.494   9.229 -0.0588  1.4441  0.3997
 7810SOL    HW232209   1.373  11.382   9.259  0.1503  0.8598 -1.0561
 7811SOL     OW32210   1.243   8.545   2.647  0.3957  0.2921 -0.1509
 7811SOL    HW132211   1.251   8.583   2.735 -1.6564 -2.1843  1.2307
 7811SOL    HW232212   1.306   8.473   2.646 -1.6463 -1.6277  0.5416
 7812SOL     OW32213   0.933   2.028   5.390 -0.6029 -0.4111  0.1208
 7812SOL    HW132214   1.008   2.044   5.449  1.3536 -2.0683 -1.7717
 7812SOL    HW232215   0.890   1.951   5.427 -1.5614  0.6300  1.2972
 7813SOL     OW32216   5.456   4.473   7.677 -0.3329 -0.4047 -0.6220
 7813SOL    HW132217   5.515   4.403   7.703  0.7689  0.9807  0.8483
 7813SOL    HW232218   5.370   4.445   7.708 -0.0636 -1.4555 -0.7908
 7814SOL     OW32219   3.460  12.014   1.435 -0.1012 -0.4163  0.6495
 7814SOL    HW132220   3.452  12.053   1.348 -0.1886 -0.7765  0.4979
 7814SOL    HW232221   3.383  11.959   1.445  0.7929 -1.8014  0.2348
 7815SOL     OW32222   3.757  12.221   6.374  0.4168 -0.7369 -0.1274
 7815SOL    HW132223   3.841  12.240   6.416 -0.3397  0.5976  0.8693
 7815SOL    HW232224   3.731  12.136   6.410  0.4358 -0.2481  1.1083
 7816SOL     OW32225   4.737  10.926   3.650 -0.1269 -0.4246 -0.1633
 7816SOL    HW132226   4.672  10.909   3.581 -1.2415  0.5615  0.6075
 7816SOL    HW232227   4.749  10.841   3.693 -1.4209 -0.4967  0.0978
 7817SOL     OW32228  11.613  11.437  10.903  0.2773  0.2430 -0.3798
 7817SOL    HW132229  11.591  11.373  10.971  1.1514  0.6850  0.3426
 7817SOL    HW232230  11.638  11.385  10.827  0.3467 -0.2696 -0.0055
 7818SOL     OW32231   5.411   6.951   4.654  0.1152 -0.8637 -0.4446
 7818SOL    HW132232   5.394   6.875   4.709  2.7478 -2.7609 -2.0411
 7818SOL    HW232233   5.444   7.017   4.715 -1.6647 -1.1442  0.8845
 7819SOL     OW32234   2.450   4.864   2.164 -0.3069  0.7868 -0.0002
 7819SOL    HW132235   2.391   4.794   2.193 -1.4126  1.7370  0.0830
 7819SOL    HW232236   2.396   4.943   2.165  0.7503  1.5353 -0.7318
 7820SOL     OW32237   8.468   6.890   5.331  0.5311  0.1353 -0.2732
 7820SOL    HW132238   8.406   6.900   5.259 -0.2546  0.1821  0.3957
 7820SOL    HW232239   8.501   6.978   5.346  1.4052 -0.0238 -1.1809
 7821SOL     OW32240   9.839   6.210   1.652 -0.2928  0.0601  0.2811
 7821SOL    HW132241   9.814   6.269   1.723  1.0426  0.1779  0.6830
 7821SOL    HW232242   9.935   6.212   1.652 -0.2333  0.9381 -2.2477
 7822SOL     OW32243  11.410  10.051  12.050 -0.0536  0.4130 -0.6884
 7822SOL    HW132244  11.344  10.013  11.993  0.0469 -0.3252 -0.3246
 7822SOL    HW232245  11.487  10.064  11.994  1.2041 -3.3190 -0.1405
 7823SOL     OW32246   9.823   5.199   3.327 -0.2935  0.6500 -0.4099
 7823SOL    HW132247   9.816   5.211   3.422 -0.7686 -0.2309 -0.3194
 7823SOL    HW232248   9.787   5.112   3.311  2.2123 -0.3749 -1.0805
 7824SOL     OW32249   2.684   5.247  12.319 -0.0970  0.1669 -0.5444
 7824SOL    HW132250   2.754   5.300  12.281 -0.4436 -0.0801 -1.5733
 7824SOL    HW232251   2.614   5.251  12.254 -0.6917 -0.3234  0.0598
 7825SOL     OW32252   4.954  12.390   8.225  0.4379  0.1589 -0.0097
 7825SOL    HW132253   4.912  12.475   8.213  2.7987  1.0589 -3.8850
 7825SOL    HW232254   4.882  12.330   8.243 -2.0578  2.2115 -2.2447
 7826SOL     OW32255   2.936   8.058   7.793  0.1850 -0.0248 -0.1168
 7826SOL    HW132256   2.847   8.029   7.774 -0.4419  3.1000 -2.9024
 7826SOL    HW232257   2.926   8.131   7.854  0.6758  0.8536 -1.0366
 7827SOL     OW32258  12.549  10.620   3.965  0.0209 -0.5307 -0.2502
 7827SOL    HW132259  12.464  10.579   3.980 -0.6218  0.0977 -1.9988
 7827SOL    HW232260  12.590  10.567   3.897 -0.6249  1.3183 -2.2028
 7828SOL     OW32261   6.177  10.280   3.311 -0.1972  0.0210  0.2244
 7828SOL    HW132262   6.262  10.241   3.293 -0.7582 -1.7080  1.0200
 7828SOL    HW232263   6.126  10.209   3.351 -1.3517  1.5657  1.6615
 7829SOL     OW32264   4.967   2.640   9.626  0.6822  0.0184  0.0492
 7829SOL    HW132265   4.955   2.551   9.660 -1.9626  1.0465  2.1703
 7829SOL    HW232266   5.044   2.673   9.672  2.6569 -1.5604 -1.8961
 7830SOL     OW32267   2.701   9.422   7.018  0.0014  0.2187  0.8767
 7830SOL    HW132268   2.796   9.428   7.011  0.0028 -0.7047 -0.1206
 7830SOL    HW232269   2.675   9.505   7.057  1.2121  0.4869  1.1655
 7831SOL     OW32270   1.031   8.169  10.559 -0.0767 -0.4067  0.2713
 7831SOL    HW132271   1.086   8.248  10.564 -0.3204 -0.3065  2.0163
 7831SOL    HW232272   1.018   8.155  10.465  1.7288  0.3947 -0.1487
 7832SOL     OW32273  10.668   4.116   3.289  0.6104 -0.7064 -0.3274
 7832SOL    HW132274  10.646   4.027   3.317  2.2376 -0.8773  0.5797
 7832SOL    HW232275  10.700   4.159   3.369 -0.0409  0.6685 -0.7792
 7833SOL     OW32276   3.689   3.801   0.641 -0.6470  0.3697  0.4015
 7833SOL    HW132277   3.608   3.767   0.602  0.5489 -0.7474 -1.2678
 7833SOL    HW232278   3.683   3.778   0.733 -1.0747 -2.1706 -0.1770
 7834SOL     OW32279   1.146   5.779   5.207 -0.6088  0.0761  0.1992
 7834SOL    HW132280   1.107   5.842   5.147  0.8487 -1.1379 -2.1582
 7834SOL    HW232281   1.082   5.709   5.214  0.2199 -1.0232 -2.1612
 7835SOL     OW32282   6.736   1.350   0.875  0.6619 -0.1468 -0.3119
 7835SOL    HW132283   6.682   1.357   0.796 -1.7305  3.1225  1.3564
 7835SOL    HW232284   6.809   1.410   0.860 -1.8946  3.7488  1.1656
 7836SOL     OW32285   5.564   1.185   9.956 -0.2894 -0.1262 -0.3323
 7836SOL    HW132286   5.595   1.141   9.877 -1.6374 -1.1433 -0.3320
 7836SOL    HW232287   5.514   1.118  10.003  1.5164  0.0642  2.0465
 7837SOL     OW32288   0.881   8.756  10.260  0.1813  0.5542  0.2367
 7837SOL    HW132289   0.938   8.730  10.332  2.1099  0.5319 -1.2142
 7837SOL    HW232290   0.845   8.673  10.228 -0.0121  0.4800  0.6468
 7838SOL     OW32291   1.801   2.210   9.932 -0.1094 -0.3157  1.3374
 7838SOL    HW132292   1.778   2.120   9.958  0.6651 -0.5410  1.2497
 7838SOL    HW232293   1.730   2.236   9.873 -0.6411 -0.6568  1.8144
 7839SOL     OW32294  12.149   4.474   7.153 -0.2032 -0.3807 -0.0888
 7839SOL    HW132295  12.224   4.504   7.101 -0.1624 -1.0747 -0.4398
 7839SOL    HW232296  12.171   4.499   7.243 -0.7013  1.6944 -0.4848
 7840SOL     OW32297  11.050  12.047   5.699 -0.0016  0.1374  0.0449
 7840SOL    HW132298  10.957  12.039   5.679  0.4084 -1.2081 -1.5478
 7840SOL    HW232299  11.072  11.965   5.745  0.1803  0.9695  1.5135
 7841SOL     OW32300   3.297   4.695  10.672 -0.0468 -1.0912 -0.2187
 7841SOL    HW132301   3.226   4.734  10.622  0.4867 -0.0295 -0.1652
 7841SOL    HW232302   3.357   4.660  10.606 -0.4749 -1.7535 -0.2678
 7842SOL     OW32303   4.094   4.959   4.074 -0.0169 -0.1975  0.4062
 7842SOL    HW132304   4.148   4.882   4.089  0.4559 -0.0517 -0.5248
 7842SOL    HW232305   4.128   4.998   3.994 -1.4102 -0.0189 -0.1321
 7843SOL     OW32306   0.490   8.850   8.479 -0.8038  0.4794  0.2913
 7843SOL    HW132307   0.444   8.767   8.494 -0.2649  0.2145  0.4984
 7843SOL    HW232308   0.544   8.833   8.401 -1.0166  0.7747  0.0767
 7844SOL     OW32309   9.940   9.543  11.610  0.3171  0.3733  0.4338
 7844SOL    HW132310   9.962   9.514  11.521 -2.2305  0.9957 -0.4897
 7844SOL    HW232311   9.991   9.623  11.622  1.2650 -0.1197 -0.1489
 7845SOL     OW32312   9.270   2.230   2.089  0.2570 -0.1636 -0.0120
 7845SOL    HW132313   9.181   2.264   2.075  0.8682  1.7008  0.2868
 7845SOL    HW232314   9.258   2.156   2.148 -1.0154  0.8866  1.1380
 7846SOL     OW32315   5.134   1.923   4.641 -0.3345  0.3104 -0.1767
 7846SOL    HW132316   5.224   1.907   4.613 -0.0512 -0.0184  0.8712
 7846SOL    HW232317   5.081   1.866   4.584 -0.0049  1.2798 -1.5052
 7847SOL     OW32318   9.040   2.121   3.750  0.1230  0.3688 -0.3674
 7847SOL    HW132319   8.960   2.099   3.703 -0.9493  0.5788  1.2618
 7847SOL    HW232320   9.102   2.148   3.682 -0.8038 -0.8744 -1.7662
 7848SOL     OW32321   0.917   2.427   9.545  0.2714  0.1807  0.2865
 7848SOL    HW132322   0.926   2.347   9.493 -0.4497  0.5428 -0.4134
 7848SOL    HW232323   1.007   2.458   9.556  0.6635 -1.2096  1.3869
 7849SOL     OW32324   6.677  10.192  11.735 -0.7568 -0.2804  0.0349
 7849SOL    HW132325   6.756  10.175  11.684  1.4645  0.6481  2.9240
 7849SOL    HW232326   6.646  10.104  11.760 -0.4359 -0.6371 -0.7681
 7850SOL     OW32327   8.442  12.046   1.063 -0.0621 -0.0423  0.2240
 7850SOL    HW132328   8.440  12.133   1.024 -1.4352 -1.8408 -4.3257
 7850SOL    HW232329   8.534  12.024   1.068  0.2788  1.3974  1.0046
 7851SOL     OW32330  10.442   1.386   0.403  0.1440  0.0227  0.3366
 7851SOL    HW132331  10.525   1.340   0.405 -0.5463 -1.2690  0.1372
 7851SOL    HW232332  10.403   1.370   0.489 -0.4324 -0.4136  0.0032
 7852SOL     OW32333  11.946   3.622   3.899  0.5134 -0.0111 -0.3875
 7852SOL    HW132334  11.987   3.536   3.907 -0.5540 -0.3462  2.5046
 7852SOL    HW232335  11.878   3.610   3.833  1.2984 -0.9476 -1.0741
 7853SOL     OW32336   5.668   3.174   7.235 -0.1050  0.2797 -0.8931
 7853SOL    HW132337   5.756   3.211   7.235  0.0271  0.3494  2.6331
 7853SOL    HW232338   5.611   3.247   7.214  0.5231  1.0120 -0.1267
 7854SOL     OW32339   7.385   6.980   3.992  0.0301  0.0301  0.0959
 7854SOL    HW132340   7.436   6.907   3.955  0.2670  0.4416 -0.4116
 7854SOL    HW232341   7.295   6.948   3.992  0.1412 -0.2931 -0.0511
 7855SOL     OW32342   0.883  11.080   8.927 -0.3163  0.5355  0.2828
 7855SOL    HW132343   0.848  11.037   8.850  0.0620 -0.1013  0.4613
 7855SOL    HW232344   0.938  11.014   8.969  0.9729  1.4381  0.0964
 7856SOL     OW32345   3.620   1.023   6.306  0.2999  0.1920 -0.5140
 7856SOL    HW132346   3.575   1.101   6.337  2.4581  1.7884 -1.1082
 7856SOL    HW232347   3.623   0.965   6.382 -4.7749 -1.2153 -1.0376
 7857SOL     OW32348   4.305   4.795  10.770  0.2196  0.0514  0.4140
 7857SOL    HW132349   4.354   4.739  10.710  2.7874  0.7787  1.7178
 7857SOL    HW232350   4.328   4.764  10.857 -0.7479  1.1768  1.0973
 7858SOL     OW32351  10.805   2.057   2.056 -1.0671  0.0617  0.1343
 7858SOL    HW132352  10.714   2.083   2.070 -0.4721  2.4862 -0.0764
 7858SOL    HW232353  10.841   2.045   2.144 -1.0796  1.1688  0.3095
 7859SOL     OW32354  11.326   5.675   1.905 -0.6675 -0.6390 -0.1891
 7859SOL    HW132355  11.262   5.611   1.873 -0.3928 -0.7320 -0.5505
 7859SOL    HW232356  11.274   5.734   1.960 -0.8308 -1.4795  0.5877
 7860SOL     OW32357   0.706   5.561   3.366  0.2235 -0.4959 -0.0200
 7860SOL    HW132358   0.757   5.625   3.414  0.5442  0.2752 -1.3475
 7860SOL    HW232359   0.771   5.506   3.322 -0.0677 -0.9831  0.1451
 7861SOL     OW32360   8.662   2.444   4.734  0.1095 -0.3954  0.1752
 7861SOL    HW132361   8.688   2.355   4.710 -1.6190 -0.6453 -0.9989
 7861SOL    HW232362   8.731   2.500   4.698  0.4887 -1.1716 -0.3246
 7862SOL     OW32363   6.393  10.571   2.358  0.1300  0.3571  0.1412
 7862SOL    HW132364   6.359  10.483   2.342  0.0041  0.0133  2.0153
 7862SOL    HW232365   6.381  10.617   2.275  0.6098 -1.4977 -1.0167
 7863SOL     OW32366  12.561   5.470   7.880  0.1869 -0.3001 -0.0135
 7863SOL    HW132367  12.551   5.381   7.846 -1.2048 -0.9886  2.0288
 7863SOL    HW232368  12.483   5.516   7.850  0.8257  0.2156 -0.9261
 7864SOL     OW32369   0.284   9.203   2.760 -0.4726  0.0152 -0.3060
 7864SOL    HW132370   0.224   9.260   2.807  0.8388  0.2235  1.2229
 7864SOL    HW232371   0.229   9.135   2.721 -1.8786  1.3809 -0.7692
 7865SOL     OW32372   0.115  12.029  10.510  0.2614  0.3907  0.2218
 7865SOL    HW132373   0.168  12.021  10.430  2.3607 -0.6353  1.6346
 7865SOL    HW232374   0.131  11.948  10.558 -2.1444  0.3264  1.0497
 7866SOL     OW32375   8.103   6.036  10.849  0.3160  0.0991  0.1044
 7866SOL    HW132376   8.136   6.104  10.790  0.6413 -0.9363 -0.9331
 7866SOL    HW232377   8.009   6.031  10.829  0.5014 -0.5317 -0.6220
 7867SOL     OW32378   4.574   4.672   9.863  0.2903 -0.1891  0.4348
 7867SOL    HW132379   4.596   4.760   9.892  0.4085  0.2267 -0.8789
 7867SOL    HW232380   4.481   4.663   9.882  0.6664 -0.5319  2.3945
 7868SOL     OW32381   9.352   9.638   7.560  0.8866 -0.8001  0.0684
 7868SOL    HW132382   9.418   9.571   7.546 -0.0574 -1.6551 -0.3862
 7868SOL    HW232383   9.272   9.602   7.522 -0.4361 -0.8235  2.6232
 7869SOL     OW32384   6.002   8.791   0.374  0.3184  0.2953  0.1933
 7869SOL    HW132385   6.041   8.878   0.362  0.1347  0.7453  2.3540
 7869SOL    HW232386   5.916   8.809   0.411  1.2960 -0.7692  3.3009
 7870SOL     OW32387   1.620  11.363  11.083  0.0039  0.1792  0.4619
 7870SOL    HW132388   1.598  11.284  11.034  0.0025 -0.2736  1.1818
 7870SOL    HW232389   1.591  11.435  11.027 -0.4125 -0.3414  0.0054
 7871SOL     OW32390   0.364   3.925   4.472  0.6374  0.5867  0.2844
 7871SOL    HW132391   0.383   4.017   4.486  2.0248  0.2170  1.0782
 7871SOL    HW232392   0.417   3.879   4.538  0.7440 -0.8289 -0.7339
 7872SOL     OW32393   3.653   9.440  11.880  0.4561 -0.2409  0.3172
 7872SOL    HW132394   3.713   9.415  11.951  0.1773 -2.9474 -0.2923
 7872SOL    HW232395   3.567   9.445  11.922  0.6263  0.3968  0.5905
 7873SOL     OW32396   7.510  11.606   3.468  0.3521 -0.0939  0.7859
 7873SOL    HW132397   7.528  11.694   3.502  0.2068  1.0296 -1.8004
 7873SOL    HW232398   7.550  11.606   3.381 -1.1228 -2.0106  0.0449
 7874SOL     OW32399   4.976   4.303   9.806  0.4026  0.5056 -0.4202
 7874SOL    HW132400   4.974   4.347   9.721  0.1777 -0.5317 -0.9645
 7874SOL    HW232401   5.035   4.357   9.859  1.4181  0.5758 -1.5756
 7875SOL     OW32402   6.008   3.561   6.073  0.0748 -0.0429  0.2953
 7875SOL    HW132403   6.018   3.496   6.143  0.1154 -0.2571  0.0946
 7875SOL    HW232404   6.067   3.530   6.004  1.2816  1.0614  0.7948
 7876SOL     OW32405   4.353   5.736  10.813  0.1864  0.0507 -0.0293
 7876SOL    HW132406   4.293   5.665  10.838  1.5109 -0.9897  0.3437
 7876SOL    HW232407   4.425   5.727  10.875  0.8926  1.0416 -0.7018
 7877SOL     OW32408   1.004   5.552   7.205 -0.4326  0.1450  0.1489
 7877SOL    HW132409   0.992   5.633   7.155 -0.9633 -0.6536 -1.0549
 7877SOL    HW232410   1.068   5.502   7.154 -0.5389 -0.4378  0.5807
 7878SOL     OW32411   5.160   3.697   9.625  0.2509 -0.5772 -0.2253
 7878SOL    HW132412   5.153   3.781   9.669 -0.8803 -0.4965 -0.5428
 7878SOL    HW232413   5.204   3.640   9.689  0.7384  0.1598  0.1042
 7879SOL     OW32414   4.172   3.498  11.259  0.6637 -0.1428 -0.1806
 7879SOL    HW132415   4.267   3.500  11.271  0.5289 -0.2029  1.0318
 7879SOL    HW232416   4.160   3.497  11.164  1.8881 -1.3726 -0.3533
 7880SOL     OW32417   6.140   1.489   7.024  0.3879 -0.1033 -0.3239
 7880SOL    HW132418   6.084   1.416   6.997 -0.9453  0.7552  0.0325
 7880SOL    HW232419   6.220   1.447   7.056 -0.2781 -1.4024 -0.2800
 7881SOL     OW32420   2.273  11.211   3.577 -0.0429  0.5400 -0.2147
 7881SOL    HW132421   2.347  11.255   3.535  0.3694  0.7346  0.6884
 7881SOL    HW232422   2.233  11.160   3.507  1.3726 -0.1345 -0.5816
 7882SOL     OW32423   6.913   6.861   0.182  0.5974 -0.3875  1.0718
 7882SOL    HW132424   6.925   6.949   0.218  0.3797 -0.4099  1.1990
 7882SOL    HW232425   6.840   6.871   0.120  1.8950 -0.0184 -0.4849
 7883SOL     OW32426  11.883   5.934  12.571  0.5258 -0.0454  0.0726
 7883SOL    HW132427  11.873   5.867  12.639  1.0980  0.2757  0.4716
 7883SOL    HW232428  11.796   5.938  12.530 -0.1446  0.4997  1.4614
 7884SOL     OW32429   2.305   4.876   3.631 -0.5284 -0.2052  0.5878
 7884SOL    HW132430   2.335   4.786   3.642  1.4801  0.2211 -0.9426
 7884SOL    HW232431   2.377   4.930   3.664 -0.5165  0.8427 -1.0164
 7885SOL     OW32432   7.982   9.782   4.126  0.5924  0.0456  0.2093
 7885SOL    HW132433   7.942   9.701   4.160 -0.4690  0.7988  0.8165
 7885SOL    HW232434   8.016   9.826   4.203  0.8685  0.3488 -0.0834
 7886SOL     OW32435   2.423   0.454   5.035  0.0090 -0.1721 -0.1191
 7886SOL    HW132436   2.340   0.480   4.995 -0.0882  0.3747  0.4290
 7886SOL    HW232437   2.483   0.525   5.015 -0.8478  1.7378  3.3266
 7887SOL     OW32438   7.363  11.539   5.057 -0.0173  0.0628  0.0758
 7887SOL    HW132439   7.313  11.583   5.125 -0.5942 -1.4316  0.6649
 7887SOL    HW232440   7.328  11.575   4.975 -0.1977  0.9471  0.5295
 7888SOL     OW32441  12.434   4.612   2.745 -0.2754 -0.3682  0.0855
 7888SOL    HW132442  12.408   4.702   2.768 -1.2755 -0.9293  1.2462
 7888SOL    HW232443  12.394   4.597   2.659  0.2956  0.4478 -0.3351
 7889SOL     OW32444   1.625   9.417   9.371 -0.0397  0.2550  0.4243
 7889SOL    HW132445   1.629   9.502   9.414 -0.8711  0.9120 -0.7503
 7889SOL    HW232446   1.705   9.412   9.319 -1.0560  1.3815 -1.3536
 7890SOL     OW32447   0.381   8.996   4.063  0.9920 -0.3634  0.5618
 7890SOL    HW132448   0.463   9.005   4.015  0.9592 -1.0039  0.3722
 7890SOL    HW232449   0.391   8.915   4.113  0.6064 -0.2652  0.8039
 7891SOL     OW32450   6.680   6.231   0.747 -0.2144  0.2129  0.5016
 7891SOL    HW132451   6.690   6.299   0.813 -0.2594  0.3904  0.3240
 7891SOL    HW232452   6.646   6.155   0.796 -1.8810  0.8519  0.4016
 7892SOL     OW32453   0.731   9.789   1.329  0.4586  0.0085 -0.4021
 7892SOL    HW132454   0.812   9.785   1.280  0.9344 -0.3895  0.3931
 7892SOL    HW232455   0.758   9.808   1.419 -0.2491 -1.0417  0.0530
 7893SOL     OW32456   5.230   6.114   8.269  0.1964 -0.3403 -0.3662
 7893SOL    HW132457   5.145   6.157   8.284  0.0094 -0.0502 -2.0136
 7893SOL    HW232458   5.292   6.165   8.322 -0.3610  0.6900 -0.6629
 7894SOL     OW32459   8.591  11.106   0.568  0.1397 -0.3978 -0.4171
 7894SOL    HW132460   8.624  11.189   0.534 -1.6839  1.1098  1.2367
 7894SOL    HW232461   8.582  11.050   0.491  2.9042  0.3219 -1.3888
 7895SOL     OW32462  10.910   8.450  11.695  0.3906 -0.6526 -0.2186
 7895SOL    HW132463  10.981   8.405  11.741 -0.0772 -1.9167 -0.7126
 7895SOL    HW232464  10.920   8.542  11.721  2.1839 -0.8016 -0.2399
 7896SOL     OW32465   2.590   6.168   8.098 -0.3830  0.2556  0.2722
 7896SOL    HW132466   2.667   6.164   8.042  0.1250  0.1902  0.9651
 7896SOL    HW232467   2.552   6.081   8.094  0.9013 -0.4193  1.7431
 7897SOL     OW32468   3.155   0.050   3.641  0.3521 -0.1115 -0.3071
 7897SOL    HW132469   3.139   0.109   3.715  3.2782  0.7673 -0.2355
 7897SOL    HW232470   3.113   0.093   3.567  0.9944  1.2725  0.0785
 7898SOL     OW32471   3.431   5.012  12.517  0.6122  0.2071  0.2651
 7898SOL    HW132472   3.412   4.929  12.472 -0.8669  1.1897 -0.9954
 7898SOL    HW232473   3.525   5.025  12.502  0.6832 -0.7839 -0.3093
 7899SOL     OW32474  10.284   0.946   9.098 -0.2628 -0.4881 -0.1412
 7899SOL    HW132475  10.197   0.918   9.126 -1.0773 -0.7534 -2.6961
 7899SOL    HW232476  10.330   0.865   9.076  0.7634 -0.3682  1.3680
 7900SOL     OW32477   4.610   7.832   2.895  0.2077 -0.1331 -0.6289
 7900SOL    HW132478   4.536   7.793   2.849 -1.8990  1.6527  1.0215
 7900SOL    HW232479   4.586   7.829   2.987  1.6329  1.5999 -0.1345
 7901SOL     OW32480   6.977   9.834   7.525  0.0422  0.1125 -0.9460
 7901SOL    HW132481   6.926   9.793   7.455  0.7159  0.0628 -1.4125
 7901SOL    HW232482   6.932   9.806   7.606 -1.0999  0.6629 -1.3658
 7902SOL     OW32483   9.144  10.755   3.857 -0.3319 -0.4410 -0.1203
 7902SOL    HW132484   9.204  10.829   3.855 -3.3186  2.1757 -0.6816
 7902SOL    HW232485   9.120  10.745   3.949 -0.6102 -0.0915 -0.1537
 7903SOL     OW32486  11.035   4.085  10.637  0.1852 -0.2041  0.1321
 7903SOL    HW132487  11.018   4.149  10.706 -1.1899  0.2207 -0.5576
 7903SOL    HW232488  11.128   4.094  10.618  0.1370  1.2025  0.4486
 7904SOL     OW32489   9.600  12.040   2.861  0.2165 -0.2784 -0.0180
 7904SOL    HW132490   9.651  11.978   2.809  0.4680 -1.0279  1.1032
 7904SOL    HW232491   9.510  12.008   2.856 -0.2482  1.1248 -2.1166
 7905SOL     OW32492   6.716  10.984  12.307 -0.3883 -0.2879  0.0934
 7905SOL    HW132493   6.690  11.076  12.304  0.1853 -0.1106  0.3576
 7905SOL    HW232494   6.760  10.969  12.224  0.7883  0.0797  0.6240
 7906SOL     OW32495   0.182   6.110   0.205  0.4563  0.5005  0.7303
 7906SOL    HW132496   0.272   6.141   0.197 -0.2670  2.7452  0.8051
 7906SOL    HW232497   0.127   6.186   0.185 -1.4606 -1.0659 -0.4281
 7907SOL     OW32498   6.342   1.482  10.032  0.6241 -0.3114  0.3514
 7907SOL    HW132499   6.413   1.458  10.092  0.8298 -1.8085 -0.4402
 7907SOL    HW232500   6.366   1.441   9.949  0.0414  1.2113 -0.6216
 7908SOL     OW32501   1.114   3.655   4.633  0.2418  0.4937 -0.2952
 7908SOL    HW132502   1.046   3.718   4.660 -0.3100 -0.8286  1.6052
 7908SOL    HW232503   1.155   3.628   4.715 -0.0350 -2.1501 -0.9398
 7909SOL     OW32504   0.414   6.690   3.369 -0.0013  0.0222 -0.1541
 7909SOL    HW132505   0.414   6.786   3.364 -2.2584  0.0928  0.1672
 7909SOL    HW232506   0.329   6.665   3.333  0.0530 -1.8016  0.9084
 7910SOL     OW32507   3.152  11.784   7.199 -0.0258  0.1840 -0.5826
 7910SOL    HW132508   3.212  11.839   7.150  0.4366  0.6498  0.4661
 7910SOL    HW232509   3.091  11.750   7.134  0.1663  1.2975 -1.3680
 7911SOL     OW32510   8.493  12.392   4.865  0.6558 -0.3598 -0.3036
 7911SOL    HW132511   8.454  12.479   4.852  0.3435 -0.3324  0.7356
 7911SOL    HW232512   8.515  12.363   4.777  1.8894  1.2878 -0.5867
 7912SOL     OW32513   8.448   4.886   0.845 -0.1878  0.2056  1.0598
 7912SOL    HW132514   8.504   4.846   0.778 -1.0153 -1.7913  1.4953
 7912SOL    HW232515   8.491   4.866   0.928  0.6876  2.4332  1.2197
 7913SOL     OW32516   1.687   0.275   1.151  0.4717  0.0539  0.0212
 7913SOL    HW132517   1.779   0.254   1.170  0.9956  2.5662  0.6032
 7913SOL    HW232518   1.649   0.298   1.235  0.5775  3.2822 -0.6653
 7914SOL     OW32519   7.781   7.855   0.219 -0.5148 -0.2545  0.2175
 7914SOL    HW132520   7.711   7.790   0.208 -1.1902  0.5332 -0.1944
 7914SOL    HW232521   7.861   7.807   0.198 -1.1433 -0.5636 -1.7171
 7915SOL     OW32522  11.096   3.549   2.491 -0.8055  0.1103 -0.1267
 7915SOL    HW132523  11.176   3.536   2.541  0.0289 -1.4077 -1.7178
 7915SOL    HW232524  11.094   3.475   2.429 -3.6114 -0.1063  0.0720
 7916SOL     OW32525   4.921   6.983   0.057  0.8044 -0.1007  1.1259
 7916SOL    HW132526   4.830   6.966   0.032  1.0229  1.7666 -1.3154
 7916SOL    HW232527   4.960   6.896   0.067 -0.6311 -0.9452 -0.2807
 7917SOL     OW32528  10.721   2.384   1.282 -0.4564  0.4496 -0.1287
 7917SOL    HW132529  10.634   2.346   1.297 -1.4570  2.8109  0.5824
 7917SOL    HW232530  10.706   2.453   1.217  1.3997 -0.7126 -1.8740
 7918SOL     OW32531   2.525   0.612  12.314  0.5773  0.1975  0.3279
 7918SOL    HW132532   2.440   0.583  12.282 -0.3157 -0.9241  3.3885
 7918SOL    HW232533   2.582   0.535  12.305  0.2998 -0.1488  1.4130
 7919SOL     OW32534   0.983   7.917   8.255  0.4549  0.1367 -0.7984
 7919SOL    HW132535   1.073   7.933   8.225  0.4591  0.5234 -0.5826
 7919SOL    HW232536   0.953   7.844   8.200  1.4706 -1.1460  0.2582
 7920SOL     OW32537   8.349   8.232  11.157 -0.2472 -0.1545 -0.1881
 7920SOL    HW132538   8.409   8.244  11.083 -1.0680  1.2413 -0.6745
 7920SOL    HW232539   8.334   8.138  11.160  0.9859 -0.3986 -0.8329
 7921SOL     OW32540  11.536   9.739   2.515 -0.5792  0.4267 -0.3693
 7921SOL    HW132541  11.599   9.686   2.468 -0.8751 -0.9396  0.7062
 7921SOL    HW232542  11.534   9.702   2.603 -1.5609  1.5793  0.1279
 7922SOL     OW32543   6.182  11.712   2.488  0.0953  0.1013 -0.0439
 7922SOL    HW132544   6.172  11.641   2.424  0.5856  0.0244 -0.0367
 7922SOL    HW232545   6.276  11.730   2.489  0.1569 -0.2093  0.9842
 7923SOL     OW32546   6.369   2.504  10.380  0.1203 -0.2764 -0.6833
 7923SOL    HW132547   6.452   2.494  10.427  0.2165  1.1504 -0.4857
 7923SOL    HW232548   6.383   2.459  10.296  0.2956 -1.9616  0.2092
 7924SOL     OW32549   6.415   9.152  11.793  0.5212 -0.1295  0.3811
 7924SOL    HW132550   6.393   9.241  11.821 -0.6380 -1.1437  3.0639
 7924SOL    HW232551   6.493   9.130  11.843 -0.5997 -1.3945  1.6910
 7925SOL     OW32552   8.874   3.622   7.659  0.0292 -0.4774 -0.2726
 7925SOL    HW132553   8.895   3.539   7.701  0.6316 -1.6891 -2.7601
 7925SOL    HW232554   8.853   3.599   7.568 -3.1756  1.7094 -0.2865
 7926SOL     OW32555  10.296  10.237  12.543 -0.5880  0.1874 -0.3928
 7926SOL    HW132556  10.273  10.330  12.540 -0.7837  0.1760  0.4094
 7926SOL    HW232557  10.366  10.227  12.480  1.5394  1.4902  1.6108
 7927SOL     OW32558   8.856   7.062   9.232 -0.5413 -0.2199 -0.6878
 7927SOL    HW132559   8.919   7.083   9.163  2.0203  0.5954  1.6734
 7927SOL    HW232560   8.795   7.135   9.232  0.7825  0.9293 -0.6660
 7928SOL     OW32561   6.244  11.843   7.697 -0.1027 -0.0038 -0.3387
 7928SOL    HW132562   6.265  11.887   7.780  1.0495  0.0493 -0.6329
 7928SOL    HW232563   6.150  11.855   7.686 -0.3653 -0.4909  1.2319
 7929SOL     OW32564   9.415   4.481  12.260 -0.3906 -0.9107  0.1435
 7929SOL    HW132565   9.382   4.391  12.252  1.2762 -1.3952 -2.3486
 7929SOL    HW232566   9.363   4.531  12.196 -0.0993 -0.4855  0.2381
 7930SOL     OW32567  10.166   2.045  10.714 -0.4463  0.1572  0.0560
 7930SOL    HW132568  10.235   1.980  10.725  1.7576  2.5882  1.7196
 7930SOL    HW232569  10.106   2.028  10.786 -0.2118 -0.3604  0.1394
 7931SOL     OW32570   3.158   3.934   8.085 -0.2329 -0.3018  0.2662
 7931SOL    HW132571   3.201   4.018   8.071  0.0021 -0.4155  0.3037
 7931SOL    HW232572   3.140   3.932   8.179  0.0627 -0.4364  0.3208
 7932SOL     OW32573   9.494   6.407   8.109  0.2241  0.0229  0.3386
 7932SOL    HW132574   9.562   6.437   8.049  1.3167  0.3194  1.6655
 7932SOL    HW232575   9.413   6.412   8.059  0.8875  1.7094 -0.6364
 7933SOL     OW32576   3.204   8.068  11.749  0.2433  0.5661  1.0177
 7933SOL    HW132577   3.257   7.988  11.742  0.7341  0.8456  1.4046
 7933SOL    HW232578   3.265   8.133  11.785  0.1862  1.4328 -0.3927
 7934SOL     OW32579  10.707  11.332   9.321  0.5989 -0.1149 -0.2574
 7934SOL    HW132580  10.782  11.382   9.290  0.3459  1.6299  1.7397
 7934SOL    HW232581  10.651  11.397   9.365 -0.6703 -1.8428  0.8014
 7935SOL     OW32582   3.934   1.717  10.913  0.4884  0.3312 -0.4124
 7935SOL    HW132583   3.860   1.775  10.933 -0.2110 -0.1794 -1.4363
 7935SOL    HW232584   3.922   1.695  10.821 -0.1074 -2.5663  0.2687
 7936SOL     OW32585   6.322   4.876   8.302  0.3718  0.3044 -0.4043
 7936SOL    HW132586   6.338   4.813   8.372 -0.9156 -1.2637 -1.4492
 7936SOL    HW232587   6.381   4.849   8.232  0.1699  0.5839 -0.6819
 7937SOL     OW32588   1.763   8.757   4.552  0.1338 -0.6185  0.4876
 7937SOL    HW132589   1.744   8.663   4.550 -1.8504 -0.2602 -0.6310
 7937SOL    HW232590   1.774   8.781   4.461  2.0019  0.0328  0.8506
 7938SOL     OW32591  11.856  10.592   1.437  0.5210  0.2613  0.0284
 7938SOL    HW132592  11.790  10.532   1.473  0.2704 -0.2363 -1.2098
 7938SOL    HW232593  11.902  10.626   1.514 -0.1450 -0.5850  0.8237
 7939SOL     OW32594   7.633   4.246   6.684  0.4229 -0.5819  0.2031
 7939SOL    HW132595   7.606   4.325   6.730  0.3398  0.5364 -1.6707
 7939SOL    HW232596   7.700   4.207   6.740  0.6388  0.9406  1.0496
 7940SOL     OW32597   5.853   1.362   4.359 -0.0407 -0.4788 -0.3013
 7940SOL    HW132598   5.780   1.425   4.365  0.4748  0.3473 -1.9223
 7940SOL    HW232599   5.917   1.406   4.304  1.3890 -1.4970  0.4979
 7941SOL     OW32600  11.777   3.263   0.611 -0.0761  0.0510  0.3068
 7941SOL    HW132601  11.858   3.305   0.582  0.8771 -1.8126  0.1637
 7941SOL    HW232602  11.787   3.256   0.706 -0.0950 -0.1534  0.2923
 7942SOL     OW32603   6.781   0.987   4.883 -0.5182 -0.0551  0.4598
 7942SOL    HW132604   6.840   0.917   4.911  0.0524  0.2329  0.0144
 7942SOL    HW232605   6.752   0.959   4.796 -0.5956  0.0766  0.4438
 7943SOL     OW32606   1.815   6.826  10.899 -0.6255 -0.0766 -1.1339
 7943SOL    HW132607   1.781   6.915  10.905  0.5355  0.2978  1.5684
 7943SOL    HW232608   1.910   6.837  10.897 -0.4478 -1.2395 -0.3845
 7944SOL     OW32609   6.505   5.863   1.956 -0.1792  0.3719  0.4705
 7944SOL    HW132610   6.599   5.841   1.958 -0.6084 -1.6926  0.2660
 7944SOL    HW232611   6.497   5.925   1.883  1.0703  0.8726  0.7258
 7945SOL     OW32612   3.809   3.966   3.080  0.4745 -0.2616 -0.4787
 7945SOL    HW132613   3.787   4.059   3.087 -1.1187 -0.5479 -1.1995
 7945SOL    HW232614   3.864   3.949   3.156 -0.7411  0.8518  0.7036
 7946SOL     OW32615   5.477  12.395   7.976 -0.5079  0.3660 -0.2033
 7946SOL    HW132616   5.439  12.364   7.895  0.7092  0.8823 -1.0066
 7946SOL    HW232617   5.414  12.457   8.012 -2.0054 -1.4019  0.3469
 7947SOL     OW32618   3.722   6.349   1.052 -0.1717 -0.0299  0.2914
 7947SOL    HW132619   3.671   6.378   0.976  0.6223 -1.2893 -0.7474
 7947SOL    HW232620   3.756   6.263   1.027 -0.4113 -0.7591  2.3316
 7948SOL     OW32621   0.193   0.373  10.796  0.2341  0.0985 -0.0125
 7948SOL    HW132622   0.277   0.353  10.754  0.4029  2.0646 -0.7583
 7948SOL    HW232623   0.199   0.332  10.883  1.5398 -0.6539 -0.4233
 7949SOL     OW32624   6.546   4.374   3.852  0.1981 -0.6409 -0.0091
 7949SOL    HW132625   6.640   4.360   3.845  0.6002  1.6915 -0.0337
 7949SOL    HW232626   6.524   4.349   3.942  1.2821  0.8559  0.7067
 7950SOL     OW32627   2.278   9.392  11.437 -0.1659  0.2942 -0.0356
 7950SOL    HW132628   2.354   9.353  11.394 -1.1197 -0.8749 -0.7039
 7950SOL    HW232629   2.245   9.324  11.496 -1.2073  0.4462 -0.4134
 7951SOL     OW32630  12.312   8.678   3.721  0.8687  0.3306 -0.4360
 7951SOL    HW132631  12.245   8.668   3.789  0.0678 -0.4456 -1.3011
 7951SOL    HW232632  12.373   8.606   3.739  1.2539  0.7823  0.0998
 7952SOL     OW32633   3.997   7.364   1.612 -0.0929 -0.0394  0.1247
 7952SOL    HW132634   4.021   7.392   1.524  0.2911 -2.4905 -0.6290
 7952SOL    HW232635   3.954   7.440   1.651  2.3436  2.0844 -1.0803
 7953SOL     OW32636   5.865   9.196   9.861 -0.0895  0.1395 -0.2947
 7953SOL    HW132637   5.800   9.242   9.809  0.2679 -0.2633 -1.1092
 7953SOL    HW232638   5.921   9.265   9.897 -0.7714  0.4662  0.1706
 7954SOL     OW32639   0.117   0.414   9.402  0.4722 -0.1559  0.0681
 7954SOL    HW132640   0.052   0.450   9.343 -1.4811 -0.8587  1.6764
 7954SOL    HW232641   0.184   0.482   9.409 -0.7632  1.1661 -0.6068
 7955SOL     OW32642   7.224   1.861  12.375 -0.0223 -0.7286  0.2277
 7955SOL    HW132643   7.173   1.810  12.312  0.5063 -0.7565 -0.1817
 7955SOL    HW232644   7.275   1.796  12.423  2.8438 -0.4866 -2.2021
 7956SOL     OW32645   4.446   6.224   6.987 -0.3842  0.0879  0.2124
 7956SOL    HW132646   4.494   6.272   7.054 -2.0660 -0.5676  1.9729
 7956SOL    HW232647   4.514   6.174   6.940  0.6647 -1.2808  2.9875
 7957SOL     OW32648  12.433   1.788   2.200  0.0435  0.0723  0.0861
 7957SOL    HW132649  12.483   1.815   2.123  0.1374 -0.1596  0.0647
 7957SOL    HW232650  12.421   1.869   2.250  1.0897  0.0037  0.4621
 7958SOL     OW32651   8.281   1.855   8.902  0.1603  0.5667 -0.4303
 7958SOL    HW132652   8.289   1.947   8.928  0.3055 -0.3532  3.3172
 7958SOL    HW232653   8.372   1.827   8.888  0.1150  0.9327 -1.6000
 7959SOL     OW32654   6.059   8.280   7.990 -0.0257  0.6412  0.0589
 7959SOL    HW132655   5.991   8.346   7.988 -1.5706 -0.8678  0.4693
 7959SOL    HW232656   6.034   8.218   7.922  2.3533  1.3202 -1.5707
 7960SOL     OW32657  10.532   8.897   0.479 -0.2381  0.0516 -0.3650
 7960SOL    HW132658  10.527   8.956   0.404 -0.9592 -0.2991 -0.5950
 7960SOL    HW232659  10.621   8.861   0.475  0.0612  0.7795 -0.4709
 7961SOL     OW32660   7.987  11.893   5.113 -0.4865  0.4137  0.8646
 7961SOL    HW132661   7.953  11.859   5.030  2.7102 -0.8414 -0.0951
 7961SOL    HW232662   7.990  11.988   5.100 -0.0739  0.2425 -0.4939
 7962SOL     OW32663   5.748   1.365   5.808 -0.3085 -0.3387  0.1427
 7962SOL    HW132664   5.783   1.424   5.741 -0.2081 -0.9810 -0.3823
 7962SOL    HW232665   5.683   1.312   5.762 -0.1207 -0.9022  0.5140
 7963SOL     OW32666   7.427   1.730   4.988 -0.9987 -0.1301  0.2361
 7963SOL    HW132667   7.441   1.770   4.902  1.2432 -0.7557  0.2464
 7963SOL    HW232668   7.491   1.774   5.045  0.2438 -2.3363  0.6613
 7964SOL     OW32669  12.206   9.990   8.137 -0.3020 -0.4287 -0.0549
 7964SOL    HW132670  12.222  10.005   8.044 -3.4380 -1.6547 -0.9161
 7964SOL    HW232671  12.269   9.922   8.161  0.5865 -0.0617 -1.2422
 7965SOL     OW32672   7.730   6.245   0.563  0.5359  0.5032 -0.2381
 7965SOL    HW132673   7.640   6.214   0.551  1.2560 -1.2150 -1.5249
 7965SOL    HW232674   7.732   6.278   0.653 -1.1605 -0.1409  0.0696
 7966SOL     OW32675   7.506   2.945   7.529  0.5894 -0.1798  0.0711
 7966SOL    HW132676   7.575   2.966   7.592  0.4811 -1.5102  0.6632
 7966SOL    HW232677   7.553   2.931   7.446  0.7193  1.6887 -0.2286
 7967SOL     OW32678   3.451   9.779  10.957 -0.4763  0.0034  0.6868
 7967SOL    HW132679   3.366   9.782  11.002 -0.3523 -2.2238  1.1967
 7967SOL    HW232680   3.512   9.746  11.024  0.1839 -1.1689 -0.4488
 7968SOL     OW32681   7.696   2.112   5.759 -0.0584  0.4459  0.0827
 7968SOL    HW132682   7.647   2.037   5.793 -1.3129  1.0682 -0.2964
 7968SOL    HW232683   7.743   2.077   5.683 -0.0674 -0.1175  0.3291
 7969SOL     OW32684   7.327   0.584   7.257 -0.1906 -1.1543 -0.7452
 7969SOL    HW132685   7.322   0.540   7.341  0.3434  1.9060  1.0628
 7969SOL    HW232686   7.252   0.644   7.256  1.6808  1.3914 -0.7306
 7970SOL     OW32687  10.978   8.557   3.832 -0.1350 -0.1409  0.2219
 7970SOL    HW132688  11.026   8.542   3.913  1.1304 -2.1058 -0.8182
 7970SOL    HW232689  11.030   8.623   3.785 -0.4695  0.4493  0.6671
 7971SOL     OW32690   3.626   3.185   8.346 -0.6055 -0.2669  0.0785
 7971SOL    HW132691   3.637   3.240   8.268 -2.0763  0.0506  0.0557
 7971SOL    HW232692   3.712   3.185   8.388 -0.1494  0.7023 -0.8010
 7972SOL     OW32693   1.873   3.274   5.644 -0.0319 -0.0034 -0.1213
 7972SOL    HW132694   1.801   3.220   5.610  0.3895  0.1438 -1.2923
 7972SOL    HW232695   1.935   3.210   5.680 -0.7038 -0.1346  0.8411
 7973SOL     OW32696   4.459   9.545   0.531 -0.2835 -0.3228  0.4136
 7973SOL    HW132697   4.509   9.600   0.470 -2.0206  0.7293 -0.1241
 7973SOL    HW232698   4.523   9.519   0.597  0.5090  3.0508  1.1664
 7974SOL     OW32699   0.117   4.882   0.949 -0.0976  0.2934  0.0828
 7974SOL    HW132700   0.118   4.787   0.950  1.9755  0.2610  0.4003
 7974SOL    HW232701   0.034   4.906   0.989 -0.0740 -1.3874  1.2275
 7975SOL     OW32702  11.538   6.802  11.208  0.0345 -0.2165 -0.2167
 7975SOL    HW132703  11.605   6.741  11.238  0.0077  0.2554  0.8573
 7975SOL    HW232704  11.522   6.778  11.117  0.7906 -1.1113 -0.1238
 7976SOL     OW32705  12.097   3.949   5.243  0.4027 -0.1812  0.3789
 7976SOL    HW132706  12.134   4.014   5.182 -1.8692  0.0606 -0.8725
 7976SOL    HW232707  12.123   3.865   5.206  1.6955 -0.0411  0.9024
 7977SOL     OW32708   6.053  10.649  10.429 -0.3273 -0.0380  0.0019
 7977SOL    HW132709   6.123  10.667  10.366 -2.2656  1.7463 -1.7972
 7977SOL    HW232710   6.095  10.596  10.496  2.8114  1.1774 -0.8079
 7978SOL     OW32711   8.520  12.549   2.424 -0.6269 -0.0459 -0.0148
 7978SOL    HW132712   8.582  12.566   2.495 -1.7016 -0.4487  1.0445
 7978SOL    HW232713   8.557  12.596   2.349 -0.4071  1.9597  1.2601
 7979SOL     OW32714   8.217   8.138   9.959  0.5614  0.0720  0.0563
 7979SOL    HW132715   8.304   8.098   9.947  0.6980  0.7038 -1.2051
 7979SOL    HW232716   8.159   8.084   9.906  0.0335 -0.7559  1.4289
 7980SOL     OW32717  11.589   8.178   9.608 -0.4895  0.3795  0.3210
 7980SOL    HW132718  11.639   8.162   9.528  1.6169  1.8878  1.2377
 7980SOL    HW232719  11.555   8.092   9.633  0.8012 -0.5309 -0.9278
 7981SOL     OW32720   8.442   5.159   0.004  0.4680  0.3775 -0.3124
 7981SOL    HW132721   8.453   5.129   0.094 -0.3290  1.6201  0.2234
 7981SOL    HW232722   8.527   5.197  -0.019  1.2941 -1.6264 -0.7897
 7982SOL     OW32723   9.722   7.398  12.148 -0.3978  0.8086 -0.0515
 7982SOL    HW132724   9.816   7.410  12.163 -0.3744  1.1855 -0.5098
 7982SOL    HW232725   9.706   7.306  12.172 -0.5202  1.5504  3.1467
 7983SOL     OW32726   2.840  10.803   9.252 -0.5159 -0.2888  0.1301
 7983SOL    HW132727   2.850  10.712   9.280 -1.5073 -0.6183 -0.5150
 7983SOL    HW232728   2.773  10.799   9.183 -0.9342  0.9920  0.4387
 7984SOL     OW32729   2.637   6.100  12.574 -0.3601 -0.0166  0.7320
 7984SOL    HW132730   2.621   6.116  12.481  3.2020  0.4055  0.0655
 7984SOL    HW232731   2.693   6.022  12.575 -0.8092 -0.3569  2.5808
 7985SOL     OW32732   5.737   6.728   5.701 -0.5089 -0.0023  0.0172
 7985SOL    HW132733   5.744   6.633   5.691 -1.4675 -0.0163 -0.6140
 7985SOL    HW232734   5.748   6.743   5.795 -1.3033 -0.8354  0.2608
 7986SOL     OW32735   9.219   4.866   6.412 -0.2471  0.5819 -0.0519
 7986SOL    HW132736   9.267   4.844   6.492  0.4222  0.5619 -0.4518
 7986SOL    HW232737   9.177   4.950   6.431 -0.5162  0.3295  0.4967
 7987SOL     OW32738   0.919   4.490   6.838 -0.4346 -0.1790 -0.3509
 7987SOL    HW132739   0.911   4.577   6.799 -1.0020 -0.7056 -1.4790
 7987SOL    HW232740   0.896   4.502   6.930  1.1927  1.1615 -0.0666
 7988SOL     OW32741   5.467  11.367   3.062  0.1987 -0.0992 -0.2502
 7988SOL    HW132742   5.519  11.398   3.137  0.0883  0.0988 -0.2529
 7988SOL    HW232743   5.408  11.440   3.043 -0.9601 -0.7956  0.5533
 7989SOL     OW32744   0.028   6.006   7.344 -0.0303  0.3977  0.3597
 7989SOL    HW132745  -0.014   5.940   7.400 -1.4182  1.0683  0.1492
 7989SOL    HW232746   0.117   5.974   7.332 -0.8542 -1.8498 -0.3162
 7990SOL     OW32747   6.814   3.084  10.252 -0.1201 -0.4088  0.0710
 7990SOL    HW132748   6.755   3.073  10.326 -0.0269 -2.4231 -0.0937
 7990SOL    HW232749   6.761   3.126  10.184 -0.3209  1.0452  1.1002
 7991SOL     OW32750   6.385   2.965   4.853  0.0611 -0.1354  0.5095
 7991SOL    HW132751   6.313   2.903   4.839  0.2811 -0.0150 -1.5805
 7991SOL    HW232752   6.448   2.916   4.906 -0.6055 -1.0224  0.5185
 7992SOL     OW32753  11.500   2.577   0.697  0.3218  0.0203 -0.0069
 7992SOL    HW132754  11.496   2.606   0.789  1.1723 -1.8139  0.6562
 7992SOL    HW232755  11.435   2.631   0.652 -0.1771  0.9075  1.6867
 7993SOL     OW32756   8.284   4.899   8.159 -0.0587  0.0407 -0.2740
 7993SOL    HW132757   8.230   4.893   8.079 -0.4568  0.5994 -0.0565
 7993SOL    HW232758   8.316   4.811   8.172  0.2499 -0.0032 -1.2243
 7994SOL     OW32759   2.241   3.152   3.079 -0.4842  0.0592  0.2751
 7994SOL    HW132760   2.207   3.069   3.111 -1.2447  0.4289  0.4617
 7994SOL    HW232761   2.270   3.198   3.158  2.4328 -1.0651 -0.0376
 7995SOL     OW32762   8.630   5.510   7.059  0.3300 -0.1858 -0.7411
 7995SOL    HW132763   8.684   5.588   7.073 -0.2410 -0.0019  0.5836
 7995SOL    HW232764   8.649   5.455   7.135 -2.5279  0.5977  0.6921
 7996SOL     OW32765   5.033   5.022  11.855 -0.2528 -0.0918  0.3589
 7996SOL    HW132766   5.102   5.058  11.799  0.4599 -1.1885  0.5078
 7996SOL    HW232767   4.980   5.098  11.879 -0.3205  0.4828 -1.4210
 7997SOL     OW32768   9.449   1.801   4.231 -0.2769 -0.3657 -0.0212
 7997SOL    HW132769   9.354   1.801   4.216 -0.0209 -0.1710 -1.9717
 7997SOL    HW232770   9.472   1.894   4.235 -0.3383 -0.3999  2.0141
 7998SOL     OW32771  10.145   2.533   3.178 -0.4104  0.5874 -0.4418
 7998SOL    HW132772  10.154   2.563   3.269  0.4998  1.4352 -0.7959
 7998SOL    HW232773  10.229   2.491   3.159 -1.0323 -0.6660 -0.5262
 7999SOL     OW32774   6.668   0.562   4.975  0.2004 -0.6851 -0.2056
 7999SOL    HW132775   6.718   0.515   4.908 -1.3087 -2.6041 -0.0881
 7999SOL    HW232776   6.710   0.540   5.058  0.0533 -1.0931 -0.2372
 8000SOL     OW32777  12.004   0.458   8.294  0.7701 -0.0658 -0.8269
 8000SOL    HW132778  11.913   0.486   8.303  0.9302  0.2794 -0.2238
 8000SOL    HW232779  12.000   0.381   8.237 -0.4278 -2.9467  2.8004
 8001SOL     OW32780   2.281   4.241   5.717  0.2926  0.0196  0.0420
 8001SOL    HW132781   2.342   4.283   5.656  0.2890 -2.3168 -1.6850
 8001SOL    HW232782   2.196   4.277   5.694  0.3635 -0.4527 -1.0143
 8002SOL     OW32783   7.412  11.309   0.032  0.0739 -0.0178  0.3343
 8002SOL    HW132784   7.440  11.217   0.036  1.2534  0.2730 -0.5830
 8002SOL    HW232785   7.486  11.358   0.066  0.0977  0.6862 -0.6814
 8003SOL     OW32786   5.060   1.541   2.092 -0.1109  0.2302  0.1972
 8003SOL    HW132787   5.106   1.609   2.140 -1.8212 -0.3283  2.8130
 8003SOL    HW232788   5.113   1.463   2.103  0.3096  0.4526 -0.2211
 8004SOL     OW32789  11.532   4.794  10.577  0.5672 -0.2141 -0.7570
 8004SOL    HW132790  11.553   4.822  10.488  2.5289  0.7063 -0.0746
 8004SOL    HW232791  11.437   4.798  10.582  0.4861  1.0708 -2.3949
 8005SOL     OW32792   3.693   2.021  10.191  0.0399  0.1799 -0.0197
 8005SOL    HW132793   3.685   2.116  10.187 -0.9486  0.1420  0.6880
 8005SOL    HW232794   3.612   1.991  10.233  1.8264 -0.6664  3.2094
 8006SOL     OW32795   3.118   8.211   5.407  0.6692  0.0641 -0.0857
 8006SOL    HW132796   3.182   8.237   5.342 -0.0563 -0.7883 -1.1776
 8006SOL    HW232797   3.145   8.123   5.435  0.3807 -0.0096 -0.0297
 8007SOL     OW32798   1.015  10.448   4.907 -0.0344  0.2227  0.1888
 8007SOL    HW132799   0.966  10.529   4.922  1.3232  1.3814 -1.2276
 8007SOL    HW232800   0.978  10.412   4.826 -1.7458 -1.5262  1.6621
 8008SOL     OW32801   4.825  12.494   4.861 -0.1130 -0.3072  0.0725
 8008SOL    HW132802   4.890  12.563   4.846  0.7283 -1.4499 -2.0321
 8008SOL    HW232803   4.854  12.450   4.941  0.7847  0.2351  0.0551
 8009SOL     OW32804   0.027   1.519   4.424 -0.1444 -0.4146  0.0013
 8009SOL    HW132805  -0.032   1.444   4.433 -0.7386 -0.0931 -1.0482
 8009SOL    HW232806   0.115   1.482   4.431 -0.4369 -1.1642 -0.2508
 8010SOL     OW32807  11.711   2.207   3.195  0.0317  0.6321  0.2962
 8010SOL    HW132808  11.763   2.284   3.218 -0.4808  1.2479 -0.5693
 8010SOL    HW232809  11.643   2.240   3.136 -1.3214 -0.1697  1.3519
 8011SOL     OW32810  11.013   5.791   7.335 -0.0214  0.4440  0.3297
 8011SOL    HW132811  11.045   5.703   7.355 -1.4305 -0.3929 -0.8465
 8011SOL    HW232812  10.963   5.818   7.412 -2.0522 -1.0732 -0.3500
 8012SOL     OW32813   2.043   9.918   5.704  0.2243  0.4607 -0.1497
 8012SOL    HW132814   2.060  10.001   5.748  1.1764 -0.3586  1.0661
 8012SOL    HW232815   1.999   9.864   5.770  1.6217 -0.7674 -0.1902
 8013SOL     OW32816  12.036   3.959  10.319 -0.1839  0.1173 -0.2399
 8013SOL    HW132817  12.062   4.018  10.391  0.2142  1.9434 -1.7879
 8013SOL    HW232818  11.943   3.978  10.306 -0.2213 -0.1143 -0.3017
 8014SOL     OW32819  10.184   4.204   5.079  0.4541 -0.1661  0.2404
 8014SOL    HW132820  10.234   4.130   5.114  1.2441  0.3954  0.3282
 8014SOL    HW232821  10.247   4.276   5.077 -0.6468  0.8623  1.3890
 8015SOL     OW32822   7.367   9.867   8.967  0.1373 -0.1189 -0.8215
 8015SOL    HW132823   7.434   9.809   9.002 -0.5365 -1.0561 -1.0438
 8015SOL    HW232824   7.351   9.931   9.036 -0.4471 -1.3250  0.2078
 8016SOL     OW32825   7.687   2.756   6.588 -0.0832  0.0160 -0.0423
 8016SOL    HW132826   7.683   2.816   6.662  0.5689  3.8006 -2.7947
 8016SOL    HW232827   7.771   2.711   6.598 -0.4340 -0.2838  1.9274
 8017SOL     OW32828  12.518  10.193   2.693 -0.1663 -0.1748  0.5127
 8017SOL    HW132829  12.459  10.206   2.766 -0.7749  1.1210 -0.1847
 8017SOL    HW232830  12.524  10.278   2.650 -1.3213 -1.2756 -2.0597
 8018SOL     OW32831  10.375   8.550   4.034  0.0493  0.0891 -0.3192
 8018SOL    HW132832  10.354   8.618   3.970  2.0846  1.6573  0.5413
 8018SOL    HW232833  10.461   8.517   4.006  0.4637  0.0406  0.9552
 8019SOL     OW32834   2.898   1.696   7.083 -0.2925  1.3410  0.2421
 8019SOL    HW132835   2.956   1.657   7.017 -0.3656  1.4389  0.1192
 8019SOL    HW232836   2.820   1.723   7.034 -0.3048  1.5076  0.3505
 8020SOL     OW32837   4.618   4.359   4.604 -0.2175 -0.1378  0.1415
 8020SOL    HW132838   4.522   4.355   4.603 -0.2374  0.2844 -0.0498
 8020SOL    HW232839   4.645   4.291   4.542 -0.4049 -0.1011  0.0170
 8021SOL     OW32840  12.323   7.763   0.088 -0.2475 -0.1459 -0.4696
 8021SOL    HW132841  12.283   7.811   0.161 -0.4282 -2.2347  0.8622
 8021SOL    HW232842  12.260   7.771   0.017 -0.8613  0.4838  0.1238
 8022SOL     OW32843   8.094   0.994   4.461  0.0957 -0.0931  0.0926
 8022SOL    HW132844   8.019   0.965   4.513  0.3459 -1.2371 -0.1684
 8022SOL    HW232845   8.059   1.063   4.404 -0.6198 -0.2289  0.3584
 8023SOL     OW32846   9.721  10.381   8.267  0.1458  0.0242  0.7907
 8023SOL    HW132847   9.645  10.369   8.210  0.3349 -0.2284  0.5848
 8023SOL    HW232848   9.726  10.300   8.318  1.2289 -0.6725 -0.3576
 8024SOL     OW32849   1.479   3.396   2.541  0.4444 -0.2767 -0.0522
 8024SOL    HW132850   1.564   3.426   2.507  1.3844 -0.5779  1.8899
 8024SOL    HW232851   1.446   3.336   2.475  2.5206 -1.3875 -0.1638
 8025SOL     OW32852  10.638   2.243   6.466 -0.0685 -0.1171  0.0153
 8025SOL    HW132853  10.574   2.240   6.537  1.1259 -0.2639  1.1469
 8025SOL    HW232854  10.690   2.164   6.477 -0.6932 -0.8451 -1.8956
 8026SOL     OW32855   8.259   1.541   3.432 -0.4026  0.0084 -0.0315
 8026SOL    HW132856   8.305   1.486   3.495  1.8136 -0.2097 -1.7262
 8026SOL    HW232857   8.173   1.499   3.422  0.2068 -1.5105  0.8053
 8027SOL     OW32858   4.973   1.939   2.352  0.1188 -0.8410 -0.1853
 8027SOL    HW132859   5.000   1.891   2.430 -2.6448 -1.3947  0.5210
 8027SOL    HW232860   4.912   1.881   2.307 -2.2852  1.3995 -0.0250
 8028SOL     OW32861   0.914   4.128   6.974 -0.5034 -0.2809 -0.7522
 8028SOL    HW132862   0.858   4.061   7.013 -1.1160  0.9826  0.6258
 8028SOL    HW232863   0.914   4.199   7.038 -1.3064  1.7879 -2.9339
 8029SOL     OW32864   1.817   3.041   5.042 -0.0266  0.0295 -0.1467
 8029SOL    HW132865   1.795   3.119   4.991  1.1348  1.6747  1.6831
 8029SOL    HW232866   1.811   3.071   5.133  1.2606 -1.8002  0.5949
 8030SOL     OW32867  10.984   9.889   2.919 -0.0090 -0.6212 -0.1887
 8030SOL    HW132868  10.930   9.944   2.976 -1.2691 -1.1866 -0.7766
 8030SOL    HW232869  10.957   9.913   2.830  2.1629  0.4910 -0.6166
 8031SOL     OW32870  10.949   8.842   2.215  0.4974 -0.0383 -0.4469
 8031SOL    HW132871  10.864   8.847   2.170  0.0685 -0.4265  0.3044
 8031SOL    HW232872  11.006   8.795   2.154 -0.0958 -0.6016 -0.5719
 8032SOL     OW32873   3.826   3.841   5.000 -0.1697  0.1491 -0.4491
 8032SOL    HW132874   3.741   3.797   4.999 -0.6386  1.0360 -1.5212
 8032SOL    HW232875   3.890   3.769   5.005 -0.9356 -0.6321 -1.4783
 8033SOL     OW32876  12.212   8.685   0.695 -1.0071 -0.1881  0.0227
 8033SOL    HW132877  12.125   8.718   0.718 -1.4171 -1.6969  0.8231
 8033SOL    HW232878  12.197   8.592   0.675  0.3607 -0.3700 -0.2653
 8034SOL     OW32879  11.601   8.200  11.089  0.2306 -0.0514  0.7117
 8034SOL    HW132880  11.576   8.214  11.181  1.4083  0.0929  1.0252
 8034SOL    HW232881  11.650   8.279  11.066  2.9672 -1.5651  1.0488
 8035SOL     OW32882   7.811   5.817   1.427 -0.0619  0.5943  0.5898
 8035SOL    HW132883   7.903   5.835   1.444  0.1825  1.3046 -1.2762
 8035SOL    HW232884   7.801   5.723   1.444  0.8312  0.6346  1.4182
 8036SOL     OW32885   8.602   3.962   6.943  0.0982  0.5574 -0.1553
 8036SOL    HW132886   8.537   3.893   6.957  1.2382 -0.3178  1.1471
 8036SOL    HW232887   8.613   4.002   7.029 -0.4399  2.3078 -0.8744
 8037SOL     OW32888   0.113   6.044   2.684 -0.2426 -0.3327  0.1558
 8037SOL    HW132889   0.187   6.050   2.744  0.0649 -0.2093 -0.2229
 8037SOL    HW232890   0.053   6.113   2.713 -0.9169 -1.4067  1.3883
 8038SOL     OW32891  12.582   3.178   7.846  0.4120 -0.6260 -0.1955
 8038SOL    HW132892  12.651   3.239   7.875  0.7810 -0.2560 -1.7215
 8038SOL    HW232893  12.500   3.224   7.864  0.7149  1.1579 -2.8659
 8039SOL     OW32894   7.160   7.697   0.003 -1.0218  0.4286 -0.2239
 8039SOL    HW132895   7.254   7.711  -0.005 -0.9796  0.0558 -0.4062
 8039SOL    HW232896   7.151   7.606   0.032 -1.3102  0.6272  0.3335
 8040SOL     OW32897  11.422  11.406   9.093 -0.3796  0.0510  0.5154
 8040SOL    HW132898  11.344  11.462   9.099 -0.4349 -0.0219  0.4960
 8040SOL    HW232899  11.408  11.338   9.159  0.3719  0.8821  1.5402
 8041SOL     OW32900   9.436   6.538   8.350  0.1706 -0.0885  0.0584
 8041SOL    HW132901   9.476   6.475   8.409 -0.3229 -0.7195 -0.2631
 8041SOL    HW232902   9.439   6.496   8.264 -2.5969 -0.9083  0.2463
 8042SOL     OW32903   5.998   6.481   4.053  0.4977  0.1295 -0.5134
 8042SOL    HW132904   6.065   6.524   4.000  0.6985 -1.1173 -1.2886
 8042SOL    HW232905   6.047   6.426   4.114  0.2632  1.4150  0.8953
 8043SOL     OW32906  12.471   7.181  10.468  0.3850 -0.1268  0.0444
 8043SOL    HW132907  12.422   7.202  10.547  1.1008 -1.8588  1.0132
 8043SOL    HW232908  12.532   7.255  10.457 -0.1938  0.4600  0.7032
 8044SOL     OW32909   4.171   5.410   9.369 -0.0745 -0.3259  0.3813
 8044SOL    HW132910   4.222   5.423   9.448 -1.6488  1.0939  1.2348
 8044SOL    HW232911   4.194   5.322   9.338 -0.3378 -1.4282  3.1009
 8045SOL     OW32912  10.313  11.640   7.793 -0.0589  0.6310  0.1103
 8045SOL    HW132913  10.398  11.678   7.816 -0.8775  1.8764  1.2730
 8045SOL    HW232914  10.288  11.588   7.869 -0.9655  1.4457  0.3949
 8046SOL     OW32915  11.246   0.528   6.086 -0.0320  0.6705 -0.1624
 8046SOL    HW132916  11.314   0.503   6.149 -1.0765 -0.8900  0.4210
 8046SOL    HW232917  11.294   0.562   6.011  1.3478  0.5824  0.6487
 8047SOL     OW32918   6.344   8.464   0.406 -0.0192 -0.0890 -0.0592
 8047SOL    HW132919   6.341   8.376   0.370  2.4301 -0.3243  0.2015
 8047SOL    HW232920   6.336   8.452   0.500  2.5687 -0.3092  0.1985
 8048SOL     OW32921   4.881  12.172   6.178  0.5651 -0.4392  0.1198
 8048SOL    HW132922   4.877  12.112   6.103 -0.7506 -1.0126  0.6160
 8048SOL    HW232923   4.974  12.193   6.187  0.8212 -0.8593 -1.2764
 8049SOL     OW32924   4.696  11.802   7.492 -0.2557 -0.4517 -0.3623
 8049SOL    HW132925   4.604  11.777   7.488 -0.4480 -0.0329  1.0268
 8049SOL    HW232926   4.742  11.722   7.516 -0.6550  0.0117  2.1783
 8050SOL     OW32927   0.734   0.100   7.359 -0.2199 -0.2888 -0.1300
 8050SOL    HW132928   0.754   0.009   7.380 -2.6811 -1.6404 -2.8717
 8050SOL    HW232929   0.657   0.120   7.411 -0.1846 -0.0764 -0.1587
 8051SOL     OW32930   0.445   7.552   4.418 -0.5075  0.0921  0.6634
 8051SOL    HW132931   0.377   7.555   4.352  0.3023 -0.4276 -0.2269
 8051SOL    HW232932   0.445   7.461   4.448  1.0473 -0.4184 -0.7401
 8052SOL     OW32933   4.597   9.527   9.669  0.3845  0.1598 -0.2775
 8052SOL    HW132934   4.570   9.540   9.578  0.3723 -0.8867 -0.4331
 8052SOL    HW232935   4.631   9.613   9.696 -1.6826  1.1367 -0.5426
 8053SOL     OW32936   8.975   1.752   3.594 -0.5830  0.1285  0.1035
 8053SOL    HW132937   8.989   1.794   3.679  0.4478 -0.0297  0.0349
 8053SOL    HW232938   9.002   1.819   3.530 -1.9333  0.4638 -0.1308
 8054SOL     OW32939  10.112   6.714   4.002 -0.1151 -0.2490  0.5478
 8054SOL    HW132940  10.181   6.744   4.060  0.3994 -0.5991  0.1265
 8054SOL    HW232941  10.037   6.769   4.023  1.1076  2.2379 -1.0694
 8055SOL     OW32942   1.828   4.236   5.224  0.2922 -0.6812 -0.0850
 8055SOL    HW132943   1.920   4.217   5.242  0.2220  0.4760  1.7828
 8055SOL    HW232944   1.800   4.167   5.164  2.0786 -1.6823  0.1705
 8056SOL     OW32945   1.692  10.233   6.652 -0.1170 -0.3759  0.0325
 8056SOL    HW132946   1.770  10.278   6.617 -1.4572  1.2930 -0.9984
 8056SOL    HW232947   1.722  10.193   6.733  2.1609 -1.0216 -1.0298
 8057SOL     OW32948   5.538   6.003   3.600 -0.4279 -0.5103  1.0784
 8057SOL    HW132949   5.569   5.990   3.511  0.5364 -0.4742  1.3908
 8057SOL    HW232950   5.455   5.957   3.604 -1.2453  0.7687 -0.2630
 8058SOL     OW32951   0.643  10.851   4.402  0.1763  0.6262 -0.1933
 8058SOL    HW132952   0.573  10.904   4.364 -2.0949 -2.8748 -1.4077
 8058SOL    HW232953   0.718  10.865   4.344 -1.6205 -0.5339 -3.0093
 8059SOL     OW32954   3.138   5.817   6.055 -0.2835 -0.5515  0.0286
 8059SOL    HW132955   3.060   5.785   6.009 -1.0298  0.2611  0.6944
 8059SOL    HW232956   3.183   5.872   5.990 -0.7787 -0.2573 -0.0727
 8060SOL     OW32957   0.098   7.751   9.606  0.6230  0.1517 -0.0718
 8060SOL    HW132958   0.120   7.743   9.513  0.9411 -2.0071  0.1366
 8060SOL    HW232959   0.108   7.662   9.640 -0.1195  0.7840  1.8988
 8061SOL     OW32960   5.008   0.388   6.056  0.4095  0.2183 -0.1530
 8061SOL    HW132961   5.029   0.441   6.133 -0.1857 -0.2586  0.3415
 8061SOL    HW232962   4.966   0.450   5.996 -0.3961  0.2899  0.4731
 8062SOL     OW32963   9.793   1.619   8.799 -0.4303 -0.0495  0.7030
 8062SOL    HW132964   9.747   1.546   8.758 -0.4046  0.5880 -0.5241
 8062SOL    HW232965   9.724   1.684   8.816 -0.0538  0.9227 -1.1678
 8063SOL     OW32966   1.788  11.166   7.219 -0.0248 -0.5250 -0.4253
 8063SOL    HW132967   1.812  11.089   7.167 -1.9218 -1.6312  0.2569
 8063SOL    HW232968   1.869  11.218   7.222  0.8820 -1.7125 -2.1943
 8064SOL     OW32969   6.930  11.673   6.642 -0.4023 -0.6165  0.3220
 8064SOL    HW132970   6.875  11.641   6.571  1.0450  0.9682 -1.6086
 8064SOL    HW232971   6.877  11.737   6.688 -1.1053 -1.1460  0.2602
 8065SOL     OW32972   0.191   4.021   3.867  0.6065 -0.1938  0.0565
 8065SOL    HW132973   0.175   4.013   3.961 -0.9686 -0.8980 -0.2427
 8065SOL    HW232974   0.285   4.037   3.860  0.9734 -1.3330  1.6958
 8066SOL     OW32975   8.872   1.634   7.032 -0.3002  0.0560 -0.4044
 8066SOL    HW132976   8.833   1.547   7.040 -2.0174  0.7757 -0.4931
 8066SOL    HW232977   8.847   1.680   7.112  1.2199  0.2708 -0.0123
 8067SOL     OW32978   9.929   3.375   3.879 -0.1264  0.4246 -0.2571
 8067SOL    HW132979   9.899   3.294   3.839 -0.1683  0.7742 -0.9556
 8067SOL    HW232980  10.008   3.351   3.927 -0.6788 -0.2096  0.3375
 8068SOL     OW32981   6.869  10.669  11.423  0.4507  0.3572 -0.3857
 8068SOL    HW132982   6.901  10.634  11.340  0.7717  1.7445 -0.8767
 8068SOL    HW232983   6.911  10.754  11.431  0.1616  0.3964  1.0502
 8069SOL     OW32984   2.960  10.205   1.513  0.1047 -0.2641 -0.4379
 8069SOL    HW132985   2.914  10.256   1.447  1.5037 -0.4028 -1.5723
 8069SOL    HW232986   3.010  10.269   1.562  0.7653 -0.3814 -0.9478
 8070SOL     OW32987   4.032   3.946   5.970 -0.2459 -0.1963  0.2990
 8070SOL    HW132988   4.014   4.033   6.006 -0.8285 -0.5117  0.7836
 8070SOL    HW232989   3.960   3.929   5.910  0.6971  0.3049 -1.0171
 8071SOL     OW32990  10.500  10.891   1.264 -0.3925  0.5334  0.3343
 8071SOL    HW132991  10.559  10.966   1.268 -2.9505  2.6729  0.4189
 8071SOL    HW232992  10.517  10.843   1.346  0.3626  1.7604  0.9269
 8072SOL     OW32993   4.268   5.398   2.740 -0.1871  0.0913 -0.4356
 8072SOL    HW132994   4.177   5.384   2.768  0.0148  0.9322  0.6988
 8072SOL    HW232995   4.262   5.468   2.675 -0.3052  0.5091  0.0186
 8073SOL     OW32996  10.641   2.341   0.397  0.0761  0.1101  0.3081
 8073SOL    HW132997  10.652   2.408   0.330 -0.6183 -0.7521 -0.7011
 8073SOL    HW232998  10.570   2.374   0.452 -0.1653  0.2770 -0.0979
 8074SOL     OW32999   7.005   6.909  10.573  0.2871 -0.1271  0.6328
 8074SOL    HW133000   6.957   6.898  10.655 -0.0989  0.7589  0.5406
 8074SOL    HW233001   7.013   7.004  10.563 -0.5947 -0.1744 -0.8672
 8075SOL     OW33002   2.738   4.435  10.104 -0.2089 -0.4034  0.0135
 8075SOL    HW133003   2.783   4.498  10.160  1.2952 -0.9957 -0.4860
 8075SOL    HW233004   2.753   4.351  10.146 -0.1006 -0.7144 -0.6506
 8076SOL     OW33005   9.879  10.851   0.173 -0.1151 -0.2422 -0.1175
 8076SOL    HW133006   9.892  10.854   0.078 -0.3071 -1.1690 -0.1858
 8076SOL    HW233007   9.966  10.865   0.210  0.1639 -0.9953 -0.4626
 8077SOL     OW33008   5.647  11.319   8.421  0.0667 -0.0286  0.2542
 8077SOL    HW133009   5.571  11.373   8.440  0.3217 -0.0113  1.2910
 8077SOL    HW233010   5.612  11.241   8.379 -0.8439 -1.1648  2.9249
 8078SOL     OW33011   9.048   1.625  10.102  0.0065  0.0179  0.8244
 8078SOL    HW133012   8.987   1.650  10.171 -0.9925 -1.2056  0.4174
 8078SOL    HW233013   9.003   1.645  10.021 -0.1490 -1.5175  0.5119
 8079SOL     OW33014   7.122   3.226  11.293 -0.2053  0.4209  0.1065
 8079SOL    HW133015   7.140   3.142  11.334 -1.5786  0.1827  0.2926
 8079SOL    HW233016   7.144   3.291  11.360  0.3475  0.1875  0.1541
 8080SOL     OW33017   9.870   3.725   7.305 -0.3910  0.0784 -0.0187
 8080SOL    HW133018   9.780   3.691   7.307 -0.0409 -1.1440 -2.0326
 8080SOL    HW233019   9.875   3.774   7.223  0.6936  0.4009  0.2247
 8081SOL     OW33020   5.880   0.465   2.501  0.4074 -0.2770 -0.1447
 8081SOL    HW133021   5.962   0.514   2.508  0.1160  0.1877  0.0635
 8081SOL    HW233022   5.898   0.381   2.543  0.4817  0.1930  0.7743
 8082SOL     OW33023   1.052   1.619   4.516  0.6655 -0.1057  0.7199
 8082SOL    HW133024   1.109   1.632   4.592  1.7146  1.2929 -0.2515
 8082SOL    HW233025   1.063   1.526   4.494  1.1842 -0.2776  1.6223
 8083SOL     OW33026   0.501   2.435   7.605 -0.0522  0.0497 -0.3161
 8083SOL    HW133027   0.410   2.430   7.636 -0.1606 -0.4747 -0.6904
 8083SOL    HW233028   0.535   2.516   7.642 -0.1997 -0.4920  1.0812
 8084SOL     OW33029   6.415  11.073   0.898 -0.4341  0.5977 -0.2571
 8084SOL    HW133030   6.366  11.124   0.834 -1.2216  0.9401  0.5878
 8084SOL    HW233031   6.399  11.118   0.981 -0.7738 -0.7509  0.4423
 8085SOL     OW33032  12.232   9.819   6.100 -0.1837  0.2418 -0.1880
 8085SOL    HW133033  12.317   9.799   6.063 -0.1813 -0.2299  0.0646
 8085SOL    HW233034  12.199   9.892   6.048  0.5892  0.7560  0.0302
 8086SOL     OW33035   4.501   9.797  10.875  0.2112 -0.1335 -0.2477
 8086SOL    HW133036   4.486   9.703  10.864 -2.4491  0.3298 -1.3474
 8086SOL    HW233037   4.545   9.805  10.960 -1.0423 -2.2749  0.6807
 8087SOL     OW33038   5.049   5.665   4.864 -0.2177  0.5256  0.0514
 8087SOL    HW133039   5.002   5.747   4.846 -3.5485 -1.5924 -2.1616
 8087SOL    HW233040   4.986   5.611   4.911 -0.2902 -2.5407 -3.1181
 8088SOL     OW33041   0.161   6.447  11.187  0.1616  0.0126 -0.0051
 8088SOL    HW133042   0.121   6.530  11.163  0.3939  0.8447  2.2353
 8088SOL    HW233043   0.253   6.469  11.205  0.0492 -0.5477  1.3538
 8089SOL     OW33044   7.956   6.713  10.977  0.0828 -0.2141  0.0575
 8089SOL    HW133045   7.985   6.799  11.005  1.2647  0.2181 -2.2163
 8089SOL    HW233046   7.867   6.705  11.012  0.1006  1.7499  0.6625
 8090SOL     OW33047   5.327   0.013   0.026 -0.0518  0.0280  0.2601
 8090SOL    HW133048   5.298  -0.064   0.075 -0.4086 -1.0312 -1.5122
 8090SOL    HW233049   5.360  -0.023  -0.056  0.3967  1.7399 -0.3362
 8091SOL     OW33050   8.816   3.262   3.916 -0.8746  0.1310 -0.3051
 8091SOL    HW133051   8.837   3.223   3.832 -2.9203 -2.4409  0.2670
 8091SOL    HW233052   8.888   3.323   3.933  0.0034  0.1223 -3.4834
 8092SOL     OW33053   8.269   1.711   2.994  0.1870  0.2534  0.1446
 8092SOL    HW133054   8.304   1.800   2.987  1.4199 -0.1868  0.4804
 8092SOL    HW233055   8.340   1.655   2.961 -0.4709 -0.6256  0.1962
 8093SOL     OW33056  10.599   4.952  12.475 -0.4740  0.2954 -0.1717
 8093SOL    HW133057  10.631   4.865  12.496  1.2301  1.0537  0.6208
 8093SOL    HW233058  10.585   4.951  12.381 -0.1044 -0.7317 -0.2220
 8094SOL     OW33059  10.671   0.253   4.489 -0.2516 -0.0908  0.2107
 8094SOL    HW133060  10.713   0.313   4.428 -1.4575 -0.4314 -1.0059
 8094SOL    HW233061  10.744   0.212   4.537  0.6356  1.3513  0.1443
 8095SOL     OW33062   9.317   0.646   3.313 -0.0245 -0.3306  0.2421
 8095SOL    HW133063   9.293   0.561   3.275  0.6634 -0.3076 -0.2702
 8095SOL    HW233064   9.397   0.671   3.266  0.2179  0.2320  0.9397
 8096SOL     OW33065   7.277   6.638   9.868  0.2054  0.0932 -0.0463
 8096SOL    HW133066   7.250   6.714   9.817  1.9079  0.4087 -0.5405
 8096SOL    HW233067   7.231   6.564   9.829  0.3162  0.5535 -1.0592
 8097SOL     OW33068   4.412   4.244   1.178  0.2206  0.1701 -0.0856
 8097SOL    HW133069   4.413   4.313   1.112  0.6632  0.6058  0.3678
 8097SOL    HW233070   4.330   4.197   1.163 -0.4803  1.2957  0.1054
 8098SOL     OW33071   9.531  11.285  11.210  0.1880 -0.2014 -0.2714
 8098SOL    HW133072   9.544  11.340  11.287 -0.4852 -1.7321  0.9887
 8098SOL    HW233073   9.482  11.341  11.149  0.1916  0.8404  0.6445
 8099SOL     OW33074   6.264   0.862  11.557  0.0843  0.4437 -0.2498
 8099SOL    HW133075   6.270   0.958  11.557  2.0135  0.3777 -0.4158
 8099SOL    HW233076   6.347   0.834  11.596 -0.1461 -1.1801 -0.8625
 8100SOL     OW33077   1.418   1.136   5.799  0.0893  0.1815  0.8415
 8100SOL    HW133078   1.475   1.212   5.815  1.2572 -1.0188  2.6978
 8100SOL    HW233079   1.387   1.149   5.709  0.3923  2.7425  1.0114
 8101SOL     OW33080   7.801   2.922   0.170  0.3932  0.1764  0.0923
 8101SOL    HW133081   7.749   2.934   0.090  1.6799  1.4102 -0.5893
 8101SOL    HW233082   7.876   2.870   0.143  0.3775 -0.1912  0.7212
 8102SOL     OW33083   6.689   1.896   1.775  0.8307  0.0247  0.4578
 8102SOL    HW133084   6.698   1.858   1.688  1.9533  0.4046  0.3962
 8102SOL    HW233085   6.770   1.944   1.789  0.7851 -0.2683  1.8418
 8103SOL     OW33086   0.333   2.721   8.749  0.5674 -0.0309 -0.1470
 8103SOL    HW133087   0.275   2.644   8.745  0.1346  0.2936 -0.2832
 8103SOL    HW233088   0.281   2.791   8.711  1.0448  0.2803 -0.2303
 8104SOL     OW33089   0.766   4.520  12.288 -0.2165 -0.2406 -1.0320
 8104SOL    HW133090   0.752   4.430  12.261 -0.0209 -0.6360  0.1108
 8104SOL    HW233091   0.686   4.545  12.334 -0.5519  0.4151 -1.9558
 8105SOL     OW33092   7.436   9.210  11.933  0.5982  0.3058 -0.2074
 8105SOL    HW133093   7.447   9.301  11.908 -1.7113  0.6729 -0.1130
 8105SOL    HW233094   7.359   9.180  11.884  0.3652 -1.1143  0.9363
 8106SOL     OW33095   1.759   2.028   1.568 -0.1653 -0.2321  0.0911
 8106SOL    HW133096   1.744   2.123   1.564 -0.5872 -0.3088 -0.1701
 8106SOL    HW233097   1.776   2.003   1.477 -2.6541 -0.8332 -0.2624
 8107SOL     OW33098  11.628   1.902   1.224 -0.3786 -0.1724  0.0128
 8107SOL    HW133099  11.612   1.980   1.278 -1.2185 -0.6473  0.4656
 8107SOL    HW233100  11.541   1.876   1.193  0.0763  0.0238 -1.4918
 8108SOL     OW33101   7.285   2.316   8.644 -0.6102 -0.6487  0.6306
 8108SOL    HW133102   7.205   2.324   8.592  0.0827 -0.8651 -0.5034
 8108SOL    HW233103   7.332   2.242   8.604  0.2488 -0.4009  1.1577
 8109SOL     OW33104   9.414   2.464   7.665  0.4925  0.2025  0.0415
 8109SOL    HW133105   9.445   2.543   7.622  1.8808 -0.9363 -1.1688
 8109SOL    HW233106   9.359   2.421   7.600  0.0419 -0.0055  0.5543
 8110SOL     OW33107   5.388   9.085  10.559 -0.2434  0.1178 -0.3253
 8110SOL    HW133108   5.368   9.034  10.480 -1.6594 -1.3818  0.9292
 8110SOL    HW233109   5.461   9.040  10.599 -0.5085 -0.0223  0.0017
 8111SOL     OW33110   2.504  10.332   8.046 -0.7942 -0.5222  0.2201
 8111SOL    HW133111   2.511  10.325   8.141  1.2394 -1.3353  0.0480
 8111SOL    HW233112   2.579  10.284   8.012 -0.0724  1.7590 -1.7438
 8112SOL     OW33113   9.581  12.272   0.469 -0.4351  0.1553 -0.2881
 8112SOL    HW133114   9.676  12.284   0.458 -0.1134 -1.3277  0.5659
 8112SOL    HW233115   9.565  12.291   0.562 -0.7913 -0.5607 -0.1935
 8113SOL     OW33116  12.069  11.416   0.718  0.3316 -0.1087  0.2630
 8113SOL    HW133117  12.095  11.494   0.669 -0.5081  1.2426  1.8479
 8113SOL    HW233118  12.132  11.411   0.790  1.0188 -1.5556 -0.3896
 8114SOL     OW33119   6.530   0.596   8.524  0.2965  0.0223 -0.4348
 8114SOL    HW133120   6.621   0.600   8.495  0.4674 -0.9688 -0.0717
 8114SOL    HW233121   6.484   0.554   8.451  0.2742 -0.1653 -0.3154
 8115SOL     OW33122   7.326   1.333  12.026  0.2885  0.2926 -0.0677
 8115SOL    HW133123   7.357   1.374  11.946 -0.2123 -0.5380 -0.7112
 8115SOL    HW233124   7.291   1.248  11.997 -1.6363  0.7547  0.7334
 8116SOL     OW33125   6.830   4.416  11.790  0.2216  0.1372  0.2433
 8116SOL    HW133126   6.784   4.497  11.767  0.8028  0.1902 -0.8467
 8116SOL    HW233127   6.922   4.436  11.773  0.1553 -1.6895 -3.3494
 8117SOL     OW33128  12.452   0.837   1.532 -0.7929 -0.1412 -0.6275
 8117SOL    HW133129  12.465   0.784   1.611 -2.1369  0.7193  0.2128
 8117SOL    HW233130  12.414   0.776   1.469 -0.1458 -0.7312 -0.4550
 8118SOL     OW33131   0.838  10.951   3.422 -0.3545 -0.3538 -0.0886
 8118SOL    HW133132   0.762  10.992   3.463  0.4971  0.8142  0.3950
 8118SOL    HW233133   0.805  10.869   3.386 -2.0061  0.4636 -0.5610
 8119SOL     OW33134   7.356   3.213   1.506  0.5201  0.3503 -1.0476
 8119SOL    HW133135   7.273   3.237   1.465  0.1309 -0.3132 -0.6725
 8119SOL    HW233136   7.366   3.120   1.486  1.0960  0.3893 -0.9557
 8120SOL     OW33137   0.826  11.430   7.055  0.5027  0.1282 -0.3951
 8120SOL    HW133138   0.828  11.335   7.059  1.0012  0.1596  0.3283
 8120SOL    HW233139   0.907  11.458   7.098  1.1082  0.8553 -1.9471
 8121SOL     OW33140   0.312   0.959   0.005 -0.4425  0.0267 -0.1734
 8121SOL    HW133141   0.228   0.971   0.049 -0.4781  0.5386 -0.3786
 8121SOL    HW233142   0.290   0.950  -0.087 -0.1207  2.8416 -0.6225
 8122SOL     OW33143   3.003  10.125   2.642 -0.2617  0.3413  0.3953
 8122SOL    HW133144   3.048  10.209   2.638 -0.3720  0.4129  0.6483
 8122SOL    HW233145   3.053  10.074   2.706  1.2294 -0.6435 -1.4787
 8123SOL     OW33146  10.533  11.997   2.029 -0.0833  0.0709 -0.5377
 8123SOL    HW133147  10.569  11.996   2.118 -1.2047 -0.1924 -0.0771
 8123SOL    HW233148  10.610  12.009   1.973  0.7876 -0.8750  0.3963
 8124SOL     OW33149   5.603   0.147   8.786  0.0707 -0.3564  0.0936
 8124SOL    HW133150   5.544   0.191   8.726 -0.1433  0.4370  0.8596
 8124SOL    HW233151   5.610   0.058   8.753 -3.1167 -1.0713  1.0217
 8125SOL     OW33152  10.731   0.303  11.330  1.0774  0.2457 -0.1212
 8125SOL    HW133153  10.684   0.225  11.360 -0.1252  1.2574  0.7266
 8125SOL    HW233154  10.698   0.373  11.386  2.6689  1.2405 -0.3906
 8126SOL     OW33155   5.356   0.243   4.883  0.0754 -0.1418  0.0717
 8126SOL    HW133156   5.375   0.153   4.858  1.3646  0.2013 -0.2498
 8126SOL    HW233157   5.274   0.264   4.838 -0.2471 -1.1447  0.1669
 8127SOL     OW33158   2.191   7.532  12.306  0.1582 -0.0483  0.1229
 8127SOL    HW133159   2.163   7.613  12.348 -0.5009 -0.6101  0.7917
 8127SOL    HW233160   2.138   7.527  12.226  1.8438  1.3264 -1.1486
 8128SOL     OW33161   9.811   5.606   2.413 -0.7065  0.7018 -0.1197
 8128SOL    HW133162   9.855   5.522   2.421 -0.5399  0.7029 -0.8784
 8128SOL    HW233163   9.730   5.596   2.462 -0.9546 -0.1019 -0.6622
 8129SOL     OW33164   4.068  12.491  11.636 -0.4562 -0.1782 -0.1831
 8129SOL    HW133165   4.019  12.523  11.560  0.2936 -1.9042 -1.4538
 8129SOL    HW233166   4.001  12.459  11.696 -0.9974  0.1706 -0.5919
 8130SOL     OW33167   4.218   5.005   9.887  0.9268 -0.4178 -0.0986
 8130SOL    HW133168   4.184   4.939   9.826  0.5105  0.2530 -0.6096
 8130SOL    HW233169   4.274   5.061   9.833  1.0861 -0.2139  0.2778
 8131SOL     OW33170   4.365   8.510  10.586 -0.6517  0.0836  0.6007
 8131SOL    HW133171   4.312   8.482  10.511 -1.3984  0.4840  0.9665
 8131SOL    HW233172   4.302   8.517  10.658  0.2080 -1.1823  1.5070
 8132SOL     OW33173   7.347   8.024  11.962 -0.0875 -0.2393  0.3731
 8132SOL    HW133174   7.253   8.039  11.957 -0.2238 -1.2925 -1.6736
 8132SOL    HW233175   7.373   8.053  12.049 -1.9064  2.1831  0.1900
 8133SOL     OW33176   9.664  10.532  12.518 -0.4160 -0.3372 -0.5171
 8133SOL    HW133177   9.757  10.538  12.495  0.2784 -0.3516  1.9503
 8133SOL    HW233178   9.622  10.601  12.467  1.4847  1.6423  0.4272
 8134SOL     OW33179   8.961   2.822  11.738 -0.1905 -0.2644  0.4177
 8134SOL    HW133180   8.888   2.760  11.748 -0.0421 -0.2689  1.5905
 8134SOL    HW233181   8.991   2.809  11.648 -1.3611 -0.5674  0.0533
 8135SOL     OW33182   8.200  11.619   5.865  0.2957  0.6359 -0.0322
 8135SOL    HW133183   8.170  11.656   5.948  0.5516 -0.0555  0.3833
 8135SOL    HW233184   8.242  11.692   5.820 -1.8440  1.6083 -0.5798
 8136SOL     OW33185   9.756   0.917   8.684 -0.0448 -0.2395  0.3450
 8136SOL    HW133186   9.821   0.847   8.674  0.1711 -0.2242  1.4831
 8136SOL    HW233187   9.805   0.991   8.719 -0.7174 -0.3238  1.5034
 8137SOL     OW33188   2.867   1.820   8.555 -0.6412 -0.2450  0.3704
 8137SOL    HW133189   2.865   1.732   8.519 -1.2266  0.0384 -0.3199
 8137SOL    HW233190   2.935   1.866   8.505  0.1991 -0.5007  1.2409
 8138SOL     OW33191  12.418   4.952  10.313  0.1184 -0.0982 -0.4024
 8138SOL    HW133192  12.340   5.007  10.304  0.5396  0.8227  1.1290
 8138SOL    HW233193  12.414   4.893  10.238 -3.2062 -1.5252  0.6834
 8139SOL     OW33194   0.036   3.182   6.315  0.7785  0.1364 -0.3965
 8139SOL    HW133195   0.082   3.100   6.330 -0.5261 -0.7016 -0.8125
 8139SOL    HW233196  -0.004   3.172   6.229  0.2043  1.0183 -0.2461
 8140SOL     OW33197   9.759  11.090   3.991  0.1888  0.0430  0.3406
 8140SOL    HW133198   9.829  11.071   3.928  1.3311 -0.4456  1.6859
 8140SOL    HW233199   9.804  11.096   4.076 -1.5179 -1.2774  1.4196
 8141SOL     OW33200   6.575   0.930   3.631 -0.2957 -0.5116 -0.1201
 8141SOL    HW133201   6.605   0.845   3.661  0.5661 -0.4346 -0.7110
 8141SOL    HW233202   6.654   0.973   3.598 -0.2875  1.3283  1.9979
 8142SOL     OW33203  10.448   5.768   7.273 -0.7524 -0.1799 -0.1812
 8142SOL    HW133204  10.382   5.701   7.290 -1.3457 -0.0912 -1.9306
 8142SOL    HW233205  10.519   5.723   7.229  0.5856 -0.3363  1.9731
 8143SOL     OW33206   2.131   7.385   9.177  0.5317 -0.4972 -0.0945
 8143SOL    HW133207   2.148   7.313   9.115 -0.1102 -1.1136  0.4251
 8143SOL    HW233208   2.035   7.388   9.183  0.5548  0.4408 -0.1405
 8144SOL     OW33209   3.993  11.477   0.194  0.0721 -0.0571 -0.0156
 8144SOL    HW133210   3.923  11.441   0.248 -0.3214  0.7229  0.0110
 8144SOL    HW233211   4.034  11.401   0.154  0.1691 -0.6329  1.1286
 8145SOL     OW33212   3.334   1.266   0.654  0.1824  0.7078  0.2875
 8145SOL    HW133213   3.380   1.295   0.576 -1.9207  0.9718 -0.9371
 8145SOL    HW233214   3.255   1.319   0.656 -1.1000 -1.1173  1.0907
 8146SOL     OW33215   1.191  12.382   8.805  0.4834 -0.3624  0.0937
 8146SOL    HW133216   1.119  12.378   8.867  1.0503  1.1366  0.8928
 8146SOL    HW233217   1.255  12.319   8.838  0.5430  0.0276  0.7284
 8147SOL     OW33218   3.332   6.006   4.685  1.1065  0.1356 -0.4727
 8147SOL    HW133219   3.323   5.982   4.593  0.5699  0.9472 -0.6408
 8147SOL    HW233220   3.263   5.956   4.730  0.2260  1.0444 -0.7715
 8148SOL     OW33221   6.792  12.013   5.768 -0.1184  0.2995  0.2073
 8148SOL    HW133222   6.815  11.921   5.786 -1.5716  0.0887  1.1077
 8148SOL    HW233223   6.762  12.012   5.677  1.4763  0.2240 -0.3479
 8149SOL     OW33224   6.067   6.991   3.593 -0.3953 -0.5155  0.0837
 8149SOL    HW133225   5.973   6.998   3.609 -0.7269  0.7387 -1.9568
 8149SOL    HW233226   6.074   6.922   3.527  0.2599 -1.3685  1.0218
 8150SOL     OW33227   7.957   6.330   0.286  0.2391 -0.0659 -0.6989
 8150SOL    HW133228   7.995   6.411   0.249  0.4462 -0.2797 -0.9591
 8150SOL    HW233229   7.865   6.332   0.257  0.6905 -0.8291 -2.2730
 8151SOL     OW33230   8.738   5.910  11.790  1.1013  0.3728  0.5142
 8151SOL    HW133231   8.710   5.929  11.701  1.3476 -1.8682 -0.1024
 8151SOL    HW233232   8.829   5.880  11.781  1.0309 -0.1785  1.4662
 8152SOL     OW33233   3.927   7.569   2.301  0.0606  1.1254  0.4035
 8152SOL    HW133234   3.931   7.486   2.347  0.2207 -0.2514 -1.9444
 8152SOL    HW233235   3.933   7.635   2.370  2.5622 -0.7611  2.1727
 8153SOL     OW33236   6.125   0.394  12.532  0.4120  0.3670 -0.5402
 8153SOL    HW133237   6.063   0.360  12.467 -0.5116  1.2997 -0.1779
 8153SOL    HW233238   6.106   0.344  12.611  1.2068 -0.4291 -0.8300
 8154SOL     OW33239   1.927   1.944   4.313  0.1141  0.4487  0.6188
 8154SOL    HW133240   1.929   1.879   4.242 -1.7834  1.1572 -0.1450
 8154SOL    HW233241   1.935   2.028   4.267  0.2604  0.8534  1.3812
 8155SOL     OW33242   0.351   7.701  12.246  0.3649 -0.1923  0.7379
 8155SOL    HW133243   0.286   7.661  12.304 -0.8596 -2.6167 -2.0509
 8155SOL    HW233244   0.414   7.631  12.229  0.8096  0.5090 -0.6363
 8156SOL     OW33245   0.370   0.879   7.720  0.0964  0.0378 -0.6037
 8156SOL    HW133246   0.370   0.856   7.627 -0.4041  2.0576 -1.1584
 8156SOL    HW233247   0.281   0.861   7.750  0.1052 -0.0869 -0.6520
 8157SOL     OW33248  12.406   7.017   7.347 -0.1550 -0.2655  0.0186
 8157SOL    HW133249  12.357   7.087   7.391  0.3481 -1.5247  2.8108
 8157SOL    HW233250  12.450   7.061   7.274 -1.0512  2.0034  0.7432
 8158SOL     OW33251   0.945  10.946   7.753  0.0163  0.3280  0.4096
 8158SOL    HW133252   0.909  10.924   7.667  1.1737 -0.8810  0.2042
 8158SOL    HW233253   0.983  11.033   7.742  0.3658  0.0812 -0.3686
 8159SOL     OW33254   8.824  11.223   2.216  0.0235  0.0323  0.2240
 8159SOL    HW133255   8.845  11.274   2.294 -1.3806  1.6154 -0.3648
 8159SOL    HW233256   8.778  11.146   2.249  1.5158 -0.5471  1.0770
 8160SOL     OW33257   4.244   9.133   5.515 -0.1418 -0.4078  0.4522
 8160SOL    HW133258   4.285   9.161   5.434  0.0980  0.7991  0.9686
 8160SOL    HW233259   4.175   9.198   5.530 -1.3046 -1.5790  0.3493
 8161SOL     OW33260   7.092   2.071   4.475 -0.0969  0.0070  0.1675
 8161SOL    HW133261   7.033   2.124   4.528  2.2306  3.0912 -0.0673
 8161SOL    HW233262   7.093   2.114   4.390  0.2710 -1.7545 -0.7684
 8162SOL     OW33263   2.239   3.903   9.041 -0.2230 -0.4954  0.2308
 8162SOL    HW133264   2.234   3.921   8.947  0.8193 -0.0879  0.2389
 8162SOL    HW233265   2.257   3.809   9.047  0.1366 -0.4435  0.0041
 8163SOL     OW33266   5.682   8.079   1.426  0.6059  0.5866 -0.0974
 8163SOL    HW133267   5.604   8.087   1.481  1.3963  1.5296  0.9403
 8163SOL    HW233268   5.651   8.099   1.337 -0.4671  0.1853  0.1722
 8164SOL     OW33269   1.214   5.484   3.023  0.0609 -0.2255  0.5057
 8164SOL    HW133270   1.238   5.392   3.023 -3.5017 -1.4287 -2.7682
 8164SOL    HW233271   1.140   5.490   3.084 -1.2309 -0.2139 -0.9651
 8165SOL     OW33272   5.239   5.467   4.959 -0.6658 -0.0213 -0.3403
 8165SOL    HW133273   5.276   5.533   5.017  0.5895 -0.7508 -0.2734
 8165SOL    HW233274   5.151   5.499   4.939  0.3221  2.2562 -1.2874
 8166SOL     OW33275   1.935   7.635   2.441 -0.3667 -0.0339 -0.1509
 8166SOL    HW133276   1.900   7.567   2.498 -1.7645  0.5779 -0.2575
 8166SOL    HW233277   1.883   7.630   2.361  0.8286 -0.1336 -0.9568
 8167SOL     OW33278   8.139  11.831   0.513 -0.2163  0.2037  0.7422
 8167SOL    HW133279   8.129  11.919   0.552 -0.8989  0.9148 -0.9446
 8167SOL    HW233280   8.234  11.819   0.505 -0.0988  0.4730  1.6553
 8168SOL     OW33281  11.423   4.489   8.647  0.0742 -0.5332 -0.2647
 8168SOL    HW133282  11.327   4.483   8.644  0.0397 -0.8047  0.9233
 8168SOL    HW233283  11.441   4.583   8.642 -0.2310 -0.5029 -0.8883
 8169SOL     OW33284   2.394   5.780   0.710  0.3146 -0.2464  0.1889
 8169SOL    HW133285   2.434   5.861   0.679 -0.9746  0.3432  0.0128
 8169SOL    HW233286   2.393   5.789   0.805 -1.3755  0.7414  0.1129
 8170SOL     OW33287   8.453   4.701   2.207 -0.2493  0.2062 -0.1096
 8170SOL    HW133288   8.449   4.672   2.116  3.0737  1.4842 -0.7980
 8170SOL    HW233289   8.542   4.680   2.236 -0.4476  1.9602  2.0740
 8171SOL     OW33290   6.509   3.807   0.534  0.1440 -0.1826 -0.4289
 8171SOL    HW133291   6.476   3.895   0.548 -0.2753 -0.3714 -0.2094
 8171SOL    HW233292   6.518   3.770   0.622  1.2765 -0.0183 -0.4625
 8172SOL     OW33293   3.891   0.839   6.512 -0.5334  0.6346  0.3501
 8172SOL    HW133294   3.867   0.814   6.423 -0.4015 -2.2540  1.0516
 8172SOL    HW233295   3.974   0.793   6.528  0.3601  2.4813  1.4232
 8173SOL     OW33296   2.723   7.171  11.920 -0.1452 -0.7321  0.3104
 8173SOL    HW133297   2.648   7.129  11.879 -1.4911  0.8032  1.0577
 8173SOL    HW233298   2.797   7.114  11.900 -1.7565 -3.2324  0.9480
 8174SOL     OW33299   8.841   0.163   3.954 -0.0545  0.3345 -0.9559
 8174SOL    HW133300   8.893   0.214   4.016 -2.0360 -0.2362  1.3291
 8174SOL    HW233301   8.860   0.202   3.869  1.1779  2.5732  0.2543
 8175SOL     OW33302   1.278  10.811   7.027 -0.5469 -0.5015 -0.4173
 8175SOL    HW133303   1.228  10.760   6.965 -1.0168  0.1288 -0.5624
 8175SOL    HW233304   1.317  10.746   7.086 -3.7112 -0.9464  1.4064
 8176SOL     OW33305   1.955   2.659   2.108 -0.4947  0.5375  0.3695
 8176SOL    HW133306   2.010   2.682   2.183  2.1484 -1.2108 -0.8723
 8176SOL    HW233307   1.892   2.730   2.102  0.1632  1.5256  3.2771
 8177SOL     OW33308  10.737   3.437   4.624  0.2753  0.2522 -0.1537
 8177SOL    HW133309  10.671   3.488   4.578 -1.7751 -0.8331  1.4156
 8177SOL    HW233310  10.708   3.346   4.614  2.0730 -0.3589 -0.2033
 8178SOL     OW33311   2.645  11.957  12.540  0.0070 -0.7277  0.0138
 8178SOL    HW133312   2.606  11.938  12.455 -1.0748  1.0396  0.0705
 8178SOL    HW233313   2.738  11.937  12.529  0.2261  1.2244 -2.1788
 8179SOL     OW33314   6.387   9.816   6.779 -0.8108 -0.3870  0.6067
 8179SOL    HW133315   6.336   9.735   6.778 -2.5782  0.6610 -2.0112
 8179SOL    HW233316   6.381   9.850   6.690  2.4449  1.1259  0.8084
 8180SOL     OW33317  10.863   1.256   8.457 -1.1986  0.1897  0.3137
 8180SOL    HW133318  10.925   1.185   8.438 -1.2112  0.2605 -0.0019
 8180SOL    HW233319  10.895   1.330   8.405  0.3047  1.2332  2.5714
 8181SOL     OW33320  11.383   3.636   8.092 -0.0208  0.0339  0.0475
 8181SOL    HW133321  11.405   3.724   8.122 -0.9579 -0.1605  1.4280
 8181SOL    HW233322  11.329   3.649   8.015 -0.3767  0.6797  0.4017
 8182SOL     OW33323   1.040  11.236   0.737  0.5714  0.3638  0.4826
 8182SOL    HW133324   0.956  11.222   0.781  0.4067  0.8605  0.3316
 8182SOL    HW233325   1.103  11.186   0.789  0.1771 -0.0588  0.5671
 8183SOL     OW33326   9.331   8.149   1.788  0.2460  0.3793 -0.4148
 8183SOL    HW133327   9.394   8.195   1.843  0.9858  0.2703 -1.1540
 8183SOL    HW233328   9.315   8.066   1.834  1.5831 -0.1219 -0.8070
 8184SOL     OW33329   2.066   7.352   1.622 -0.6392 -0.4560  0.2916
 8184SOL    HW133330   2.112   7.335   1.704 -1.8478 -2.2734  0.6562
 8184SOL    HW233331   2.054   7.266   1.583  0.0918  0.3810 -1.9505
 8185SOL     OW33332   5.165   5.955   9.306 -0.2661  0.6879  0.4054
 8185SOL    HW133333   5.104   6.017   9.266 -1.0954 -0.2968  0.0735
 8185SOL    HW233334   5.176   5.985   9.396 -0.3178  1.5478  0.1274
 8186SOL     OW33335  11.284   9.148   4.742  0.3689 -0.5051  0.0431
 8186SOL    HW133336  11.286   9.058   4.710  3.9288 -0.4310 -0.3526
 8186SOL    HW233337  11.252   9.141   4.832  1.0424 -2.2679  0.1850
 8187SOL     OW33338   1.623   8.956   5.478  0.5207  0.0189 -0.3112
 8187SOL    HW133339   1.617   9.036   5.530 -2.1342 -0.6126  0.4774
 8187SOL    HW233340   1.707   8.965   5.432  0.7797  2.7746  0.4749
 8188SOL     OW33341   9.167   3.985   2.554 -0.2074 -0.1902 -0.2444
 8188SOL    HW133342   9.244   3.946   2.515 -0.2687 -0.2577 -0.2978
 8188SOL    HW233343   9.147   4.060   2.498 -1.3997 -1.3562 -1.4474
 8189SOL     OW33344   9.782   9.500  12.114 -0.0666 -0.1857  0.5327
 8189SOL    HW133345   9.774   9.425  12.055  0.3591  0.4389 -0.3253
 8189SOL    HW233346   9.857   9.549  12.080 -2.1989  2.3398 -0.8169
 8190SOL     OW33347  11.953  11.428   2.530 -0.7769 -0.5478  0.0164
 8190SOL    HW133348  11.930  11.370   2.603 -0.8041 -0.9660 -0.3206
 8190SOL    HW233349  12.038  11.394   2.499 -1.1675 -0.9026 -0.6875
 8191SOL     OW33350  12.433  11.499   9.454 -0.5560 -0.3385 -0.7984
 8191SOL    HW133351  12.351  11.538   9.424 -0.3282  1.8399  1.1575
 8191SOL    HW233352  12.501  11.542   9.402 -0.4339  0.4927  0.0344
 8192SOL     OW33353   6.539   4.459   8.846 -0.3581  0.0002  0.4367
 8192SOL    HW133354   6.475   4.419   8.905 -0.6465 -0.0706  0.0781
 8192SOL    HW233355   6.507   4.439   8.759 -1.4422  2.4305  0.1975
 8193SOL     OW33356   6.239   2.684   7.402  0.1380  0.4475 -0.0475
 8193SOL    HW133357   6.308   2.658   7.341 -1.7363  1.3609 -2.7558
 8193SOL    HW233358   6.214   2.772   7.373 -0.6540  1.0390  2.2788
 8194SOL     OW33359   7.030   3.452   3.044 -0.5072 -0.5515 -0.3490
 8194SOL    HW133360   7.118   3.444   3.082  0.7786 -0.1560 -3.0004
 8194SOL    HW233361   6.984   3.373   3.073  0.1002  0.0015  2.4189
 8195SOL     OW33362  11.795   5.147  12.285  0.7953  0.2428 -0.4135
 8195SOL    HW133363  11.779   5.093  12.208  0.7478 -0.1517 -0.1264
 8195SOL    HW233364  11.715   5.141  12.337  0.7356  0.7012 -0.4480
 8196SOL     OW33365   8.015   2.400   3.920  0.5185  0.4771  0.0093
 8196SOL    HW133366   8.097   2.449   3.922  0.5874  0.3539  0.2147
 8196SOL    HW233367   8.033   2.319   3.968  0.9825 -0.6696 -1.9881
 8197SOL     OW33368   8.386   6.790   1.365  0.2655  0.4422 -0.2052
 8197SOL    HW133369   8.320   6.859   1.365  0.1332  0.3219  0.6097
 8197SOL    HW233370   8.467   6.834   1.339  0.1010  0.8206 -0.0831
 8198SOL     OW33371   0.710   3.062   2.640 -0.6896  0.0535 -0.0062
 8198SOL    HW133372   0.640   2.999   2.660 -0.1058 -0.5665  0.1291
 8198SOL    HW233373   0.726   3.107   2.723 -0.0450 -0.7202  0.3124
 8199SOL     OW33374   5.162   0.804   1.044 -0.7752 -0.2160  0.0920
 8199SOL    HW133375   5.144   0.896   1.025  1.0187  0.5435  1.6284
 8199SOL    HW233376   5.227   0.778   0.978 -1.1883 -0.3368 -0.2655
 8200SOL     OW33377   7.615  11.561  11.227  0.6287 -0.1505  0.1944
 8200SOL    HW133378   7.533  11.541  11.271  1.1020 -1.5458  0.4732
 8200SOL    HW233379   7.625  11.656  11.238 -1.3349  0.1918 -0.5631
 8201SOL     OW33380   1.104   1.294   7.539  0.8527 -0.1199  0.1902
 8201SOL    HW133381   1.145   1.213   7.508  2.0397 -0.0041  1.3311
 8201SOL    HW233382   1.059   1.268   7.620  0.7985  0.2589  0.2821
 8202SOL     OW33383   7.051   1.326   2.261  0.4182 -0.4980 -0.3002
 8202SOL    HW133384   7.008   1.356   2.341 -0.3405 -1.6102 -0.2750
 8202SOL    HW233385   7.125   1.386   2.250 -0.5971  0.8875  0.1473
 8203SOL     OW33386   1.361   7.076   3.505 -0.1938 -0.1490 -0.8396
 8203SOL    HW133387   1.415   7.140   3.459 -1.4820  0.8907 -0.9836
 8203SOL    HW233388   1.374   6.995   3.456 -0.2615  0.5429 -2.0599
 8204SOL     OW33389   3.470   1.345   1.381  0.1681  0.3924  0.2310
 8204SOL    HW133390   3.494   1.428   1.340  0.8774  0.3379  0.5257
 8204SOL    HW233391   3.422   1.371   1.460  0.6797  0.5299  0.4987
 8205SOL     OW33392   4.889  10.298  12.244 -0.0798  0.2660 -0.8232
 8205SOL    HW133393   4.947  10.366  12.210  1.2248  0.2927  1.2623
 8205SOL    HW233394   4.914  10.219  12.198  1.3556  0.3710 -0.2660
 8206SOL     OW33395   2.717   8.048   8.957  0.5462 -0.2431  0.4215
 8206SOL    HW133396   2.641   8.004   8.920  0.2545 -0.3370  1.1161
 8206SOL    HW233397   2.681   8.114   9.016  0.9160  2.0519 -1.7395
 8207SOL     OW33398  12.478   6.456  10.151  0.0523 -0.0873 -0.9068
 8207SOL    HW133399  12.457   6.538  10.107  0.5775  0.8107  0.4556
 8207SOL    HW233400  12.572   6.459  10.166 -0.2505  0.2552  1.3594
 8208SOL     OW33401   9.745   8.462  12.274 -0.5101 -0.3419  0.6828
 8208SOL    HW133402   9.650   8.473  12.280 -0.4487 -0.5577  2.4075
 8208SOL    HW233403   9.776   8.470  12.364  1.2033  0.4310  0.0679
 8209SOL     OW33404   8.429   2.052   2.107 -0.4353  0.1792  0.5076
 8209SOL    HW133405   8.520   2.037   2.083 -0.2596  2.0450 -0.1919
 8209SOL    HW233406   8.426   2.144   2.134 -1.8696 -0.1953  1.7697
 8210SOL     OW33407  12.033   7.721   5.079  0.0615  0.3506  1.0110
 8210SOL    HW133408  12.099   7.671   5.127 -0.3541 -1.0845  0.1455
 8210SOL    HW233409  12.049   7.700   4.987 -2.6415 -1.4720  0.8536
 8211SOL     OW33410   0.725   3.688  11.831 -0.2344 -0.0614 -0.6446
 8211SOL    HW133411   0.684   3.721  11.911  0.6018 -1.5049  0.4381
 8211SOL    HW233412   0.681   3.604  11.815  0.7273 -0.5611 -0.7385
 8212SOL     OW33413   1.803   8.497   4.503  0.3714 -0.3316  0.8772
 8212SOL    HW133414   1.719   8.452   4.500 -0.2695  0.8213  0.6004
 8212SOL    HW233415   1.847   8.461   4.580  0.0266 -1.6106  0.5009
 8213SOL     OW33416   7.250  10.980  12.203 -0.4255 -0.9484 -0.3243
 8213SOL    HW133417   7.221  10.986  12.112 -1.8523 -1.3765  0.0722
 8213SOL    HW233418   7.297  10.896  12.207 -0.3533 -0.9275 -0.6691
 8214SOL     OW33419   5.312  10.179   1.584 -0.3853  0.2099 -0.0808
 8214SOL    HW133420   5.224  10.151   1.610 -0.8134  1.7487  0.2246
 8214SOL    HW233421   5.298  10.227   1.502  0.0500  1.0441  0.3200
 8215SOL     OW33422   6.661   8.431  11.237  0.0787 -0.2085  0.4260
 8215SOL    HW133423   6.617   8.449  11.154  1.3454 -0.6471 -0.3705
 8215SOL    HW233424   6.684   8.517  11.272  0.1893 -0.0443 -0.0469
 8216SOL     OW33425  10.502   1.803  11.680  0.0748  0.0815  0.3434
 8216SOL    HW133426  10.570   1.774  11.741  0.4939 -0.6715 -0.4432
 8216SOL    HW233427  10.468   1.884  11.717  1.7775  0.7657  0.4957
 8217SOL     OW33428   6.878   5.218  10.871 -0.5934 -0.1202  0.0028
 8217SOL    HW133429   6.886   5.313  10.859 -0.4133  0.0120  1.0318
 8217SOL    HW233430   6.953   5.181  10.825 -1.1840  0.1493 -1.2158
 8218SOL     OW33431   7.990   9.269   0.417  0.1632 -0.1712  0.3523
 8218SOL    HW133432   8.068   9.216   0.433 -0.4790 -0.7855  1.5515
 8218SOL    HW233433   7.919   9.220   0.459 -1.0115 -0.0060 -1.3576
 8219SOL     OW33434  10.608  11.887  12.402 -0.4385  0.0462  0.3225
 8219SOL    HW133435  10.674  11.885  12.472  0.7008  0.5968 -0.6975
 8219SOL    HW233436  10.551  11.961  12.425  1.0730  1.4627 -0.3052
 8220SOL     OW33437  10.332   1.950   6.927  0.1561  0.4722 -0.1163
 8220SOL    HW133438  10.379   1.955   6.844 -0.6127 -1.4951 -0.7317
 8220SOL    HW233439  10.389   1.898   6.984 -0.0198  0.4825  0.0726
 8221SOL     OW33440   0.545   7.712   5.706  0.2402  0.4045  0.1401
 8221SOL    HW133441   0.528   7.784   5.645 -0.7499  0.3081  0.2850
 8221SOL    HW233442   0.470   7.655   5.696  1.0561 -0.6691 -0.0338
 8222SOL     OW33443   8.947   8.580   4.775 -0.5082  0.0152  0.2323
 8222SOL    HW133444   8.960   8.651   4.712  0.5379  0.4042  0.8558
 8222SOL    HW233445   8.997   8.607   4.852  1.1139 -2.0210 -0.0228
 8223SOL     OW33446   6.304   8.007   1.916  0.3018 -0.2663  0.0744
 8223SOL    HW133447   6.380   8.063   1.929  0.6949 -0.8274  0.2270
 8223SOL    HW233448   6.229   8.064   1.932  0.7049  0.0878  0.7385
 8224SOL     OW33449   7.264   9.344   4.469 -0.0162 -0.1179  1.1520
 8224SOL    HW133450   7.302   9.332   4.557 -1.1655 -1.6188  1.4944
 8224SOL    HW233451   7.186   9.397   4.483  0.1421  0.1704  0.9439
 8225SOL     OW33452   5.486  10.182   4.348 -0.2096 -0.3655  0.1531
 8225SOL    HW133453   5.413  10.126   4.324 -0.2779 -0.8045  1.3072
 8225SOL    HW233454   5.539  10.128   4.408  1.3998 -0.2825 -1.1150
 8226SOL     OW33455  11.797   0.380   9.975  0.5956  0.2543 -0.3665
 8226SOL    HW133456  11.750   0.303  10.007 -0.3460  1.1120  0.3868
 8226SOL    HW233457  11.765   0.452  10.029  0.2956  1.4575 -2.0699
 8227SOL     OW33458   6.211  11.435   3.207 -0.0050  0.2116 -0.4874
 8227SOL    HW133459   6.174  11.423   3.294 -0.2878  1.5101 -0.4104
 8227SOL    HW233460   6.136  11.427   3.148  0.4079 -2.2101 -0.7878
 8228SOL     OW33461   0.912   2.919   9.145 -0.0566  0.1606 -0.4522
 8228SOL    HW133462   0.878   2.856   9.081  0.7409 -0.0131 -0.7143
 8228SOL    HW233463   1.005   2.924   9.127  0.4780 -1.0223  1.6711
 8229SOL     OW33464   0.213   5.551   9.009  0.1641  0.1357 -0.0081
 8229SOL    HW133465   0.291   5.549   9.064  1.0065 -0.0784 -1.1779
 8229SOL    HW233466   0.220   5.473   8.954  0.2796  1.2413 -1.6463
 8230SOL     OW33467   6.297   9.496   3.518  0.2587 -0.2332  0.0321
 8230SOL    HW133468   6.305   9.568   3.455  0.1526  1.4900  1.9064
 8230SOL    HW233469   6.375   9.444   3.504  0.3939  0.2779 -1.3021
 8231SOL     OW33470   4.023   6.050  11.393 -0.6165 -0.0374 -0.1961
 8231SOL    HW133471   4.021   6.097  11.476  0.4172 -0.8242  0.2859
 8231SOL    HW233472   4.110   6.011  11.389 -0.8752 -0.5505 -1.3579
 8232SOL     OW33473   8.470  10.264   5.340  0.4025 -0.2605 -0.3627
 8232SOL    HW133474   8.475  10.169   5.354  0.1399 -0.3835 -1.0572
 8232SOL    HW233475   8.396  10.275   5.280  0.8939  0.3186 -0.8732
 8233SOL     OW33476   0.858   0.309  12.595  0.5909 -0.1531  0.4525
 8233SOL    HW133477   0.869   0.214  12.589 -0.6037 -0.2611 -0.4659
 8233SOL    HW233478   0.845   0.325  12.689 -1.2821 -1.1992  0.4355
 8234SOL     OW33479   8.258   2.725   7.523  0.3303 -0.0848 -0.3591
 8234SOL    HW133480   8.313   2.803   7.526  0.3957 -0.0491 -1.9247
 8234SOL    HW233481   8.274   2.687   7.437 -0.5343 -1.2220 -0.0428
 8235SOL     OW33482   2.251   7.776   9.265  0.2711  0.7118  0.3531
 8235SOL    HW133483   2.299   7.705   9.222 -0.2855 -0.5121  1.6497
 8235SOL    HW233484   2.166   7.777   9.222 -0.3849 -0.6942  1.5400
 8236SOL     OW33485   9.332   7.785   3.485  0.4527 -0.1974  0.0124
 8236SOL    HW133486   9.406   7.768   3.544  1.1112 -2.1119 -1.2682
 8236SOL    HW233487   9.309   7.699   3.450 -1.7096  0.5045 -0.4675
 8237SOL     OW33488   2.402   5.336   1.388  0.3018 -0.2327  1.0365
 8237SOL    HW133489   2.473   5.360   1.329  0.9243 -0.9342  1.4846
 8237SOL    HW233490   2.336   5.296   1.331  1.3307 -1.8455  0.8985
 8238SOL     OW33491   4.433   3.209   3.667 -0.1746 -0.4558 -0.0647
 8238SOL    HW133492   4.469   3.187   3.753  0.2617 -0.4916 -0.2529
 8238SOL    HW233493   4.338   3.203   3.678 -0.1242 -0.3389  0.4453
 8239SOL     OW33494   7.131   8.545   3.787  0.1350  0.1114  0.4606
 8239SOL    HW133495   7.073   8.612   3.824  0.3858 -0.0010  1.0653
 8239SOL    HW233496   7.100   8.463   3.824  0.5480  0.0262  0.6180
 8240SOL     OW33497   2.153  10.147   4.074  0.1054 -0.0336  0.1963
 8240SOL    HW133498   2.103  10.213   4.121 -1.0334 -2.2834  2.4206
 8240SOL    HW233499   2.100  10.125   3.998 -0.3526  0.4130  0.3859
 8241SOL     OW33500   1.748   1.234   7.141  0.4615  0.0297  0.4332
 8241SOL    HW133501   1.835   1.222   7.104  0.9156 -0.8844  1.6953
 8241SOL    HW233502   1.747   1.176   7.218 -1.2137  0.1150  0.5151
 8242SOL     OW33503   6.720   8.155   6.565 -0.2978 -0.1332  0.3357
 8242SOL    HW133504   6.740   8.206   6.643 -0.5480 -0.5288  0.6590
 8242SOL    HW233505   6.775   8.076   6.572  0.5261  0.3461 -0.4490
 8243SOL     OW33506   1.011  12.507   2.227  0.5241  0.2865  0.0354
 8243SOL    HW133507   0.978  12.510   2.317  1.1700 -0.7191  0.3286
 8243SOL    HW233508   1.025  12.598   2.203 -1.1435  0.6672  0.3810
 8244SOL     OW33509   2.206   7.096   0.113 -0.0712 -0.2092  0.0632
 8244SOL    HW133510   2.290   7.142   0.111  0.3850 -0.9255  1.1928
 8244SOL    HW233511   2.228   7.006   0.088 -0.6493 -0.2200 -0.4230
 8245SOL     OW33512   7.762   2.147   9.583 -0.0416  0.4592 -0.4999
 8245SOL    HW133513   7.772   2.169   9.675 -0.5503  0.8530 -0.5351
 8245SOL    HW233514   7.841   2.097   9.561  0.1706  0.5314  0.0947
 8246SOL     OW33515   0.260   9.573  11.406 -0.2645 -0.4426 -0.0783
 8246SOL    HW133516   0.241   9.619  11.325 -0.8787  0.0671  0.3501
 8246SOL    HW233517   0.193   9.602  11.467  1.9743  1.6246  1.5817
 8247SOL     OW33518   7.766   1.142  10.536  0.1728  0.1576 -0.6211
 8247SOL    HW133519   7.793   1.162  10.626  0.0390 -1.3142 -0.2367
 8247SOL    HW233520   7.826   1.073  10.507  0.1018  0.4918 -1.6121
 8248SOL     OW33521   8.580   2.700   5.331 -0.1802 -0.1656  0.0467
 8248SOL    HW133522   8.502   2.737   5.288 -0.0344 -1.1907 -1.1701
 8248SOL    HW233523   8.545   2.630   5.387 -0.2259  0.0832  0.3304
 8249SOL     OW33524   6.298   0.891   4.541  0.0085  0.6545  0.0034
 8249SOL    HW133525   6.223   0.833   4.553 -1.7779  2.5737 -1.3201
 8249SOL    HW233526   6.274   0.972   4.586  1.8076  0.9330  0.5401
 8250SOL     OW33527   6.427   9.775   2.928 -0.3123 -0.2570  0.0186
 8250SOL    HW133528   6.493   9.782   2.996  0.4200 -0.2950 -0.6730
 8250SOL    HW233529   6.443   9.850   2.871 -1.6308  0.4117  0.4814
 8251SOL     OW33530   2.476   5.670   3.385 -0.0249  0.5538  0.4012
 8251SOL    HW133531   2.515   5.638   3.467 -0.5950  0.7551  0.7563
 8251SOL    HW233532   2.446   5.758   3.406 -1.5237  0.0671  0.4304
 8252SOL     OW33533   0.133   1.431   0.550  0.4455  0.2741  0.0597
 8252SOL    HW133534   0.044   1.461   0.570  0.1755  0.1367 -0.8663
 8252SOL    HW233535   0.129   1.406   0.457  1.6411  0.9622 -0.1886
 8253SOL     OW33536   1.171  10.396   2.037  0.3492 -0.4657  0.4021
 8253SOL    HW133537   1.125  10.477   2.013  2.1597  0.4353 -0.1592
 8253SOL    HW233538   1.102  10.329   2.035 -0.7276  0.6029 -1.6181
 8254SOL     OW33539   7.998   5.257   4.850 -0.2957  0.0637  0.5993
 8254SOL    HW133540   8.042   5.174   4.872  0.1064  0.1280  0.0598
 8254SOL    HW233541   7.933   5.268   4.919  0.6058  0.0195  1.4834
 8255SOL     OW33542   5.689   8.224   5.837 -0.7707  0.7602  0.1282
 8255SOL    HW133543   5.759   8.162   5.819 -0.8733  0.5241  0.5284
 8255SOL    HW233544   5.711   8.301   5.785  0.0057  0.8407  0.5657
 8256SOL     OW33545   9.457   5.629  12.565  0.1652  0.1366 -0.0635
 8256SOL    HW133546   9.484   5.696  12.502 -0.3222  1.2318  0.8466
 8256SOL    HW233547   9.422   5.558  12.512  1.6801  0.1218 -1.1118
 8257SOL     OW33548   6.245   0.836   1.123  0.1214  0.5851 -0.3710
 8257SOL    HW133549   6.171   0.792   1.082  0.6240  0.4467 -1.1506
 8257SOL    HW233550   6.305   0.856   1.050  0.1318  2.1089  0.0295
 8258SOL     OW33551   7.315   9.885   8.063 -0.1344 -0.0457  0.3091
 8258SOL    HW133552   7.346   9.801   8.098 -0.2292 -0.5363 -0.7507
 8258SOL    HW233553   7.247   9.861   8.001 -2.2757  0.9739  2.1234
 8259SOL     OW33554   3.179  11.490   3.075  0.3010  0.1390  0.1054
 8259SOL    HW133555   3.099  11.496   3.128  0.6272 -0.4324  0.6852
 8259SOL    HW233556   3.248  11.523   3.132  0.5245  0.3389 -0.2806
 8260SOL     OW33557  11.065   5.460   9.642  0.1222 -0.2409  0.3696
 8260SOL    HW133558  10.989   5.517   9.632  0.2870  0.0441  0.7193
 8260SOL    HW233559  11.105   5.487   9.725 -0.5623 -1.7679  1.2448
 8261SOL     OW33560   4.274   8.525   7.203  0.3957 -0.1033 -0.4032
 8261SOL    HW133561   4.194   8.477   7.223 -0.3741  1.4560  0.3994
 8261SOL    HW233562   4.245   8.601   7.154  1.3633  0.5708  0.0292
 8262SOL     OW33563   4.208   1.598  10.638  0.1204  0.0634 -0.1909
 8262SOL    HW133564   4.230   1.526  10.696  0.8424  1.2583  1.0503
 8262SOL    HW233565   4.231   1.677  10.686 -1.6498  1.1991 -1.0729
 8263SOL     OW33566   0.603  11.231   4.470 -0.3766 -0.0961 -0.6852
 8263SOL    HW133567   0.522  11.211   4.423 -1.5869  2.1050  0.2994
 8263SOL    HW233568   0.578  11.229   4.562  0.6889  0.6089 -0.3667
 8264SOL     OW33569   0.638   2.280   5.212  0.2978 -0.1099  0.4360
 8264SOL    HW133570   0.722   2.309   5.248 -0.2859  1.1585  0.8395
 8264SOL    HW233571   0.582   2.357   5.217 -0.5411 -0.6022 -0.9585
 8265SOL     OW33572   2.087   9.414   2.926 -0.2857 -0.2046  0.1991
 8265SOL    HW133573   2.101   9.445   2.836 -0.7256 -1.9793 -0.5275
 8265SOL    HW233574   2.009   9.460   2.956 -0.6341 -0.2221 -0.6512
 8266SOL     OW33575   8.329   4.451  10.151  0.2895  0.4607 -0.0530
 8266SOL    HW133576   8.421   4.425  10.157  0.3393  0.7515  0.5298
 8266SOL    HW233577   8.285   4.396  10.216 -0.5329 -2.1089 -2.5673
 8267SOL     OW33578   8.370   5.831   1.791 -0.0455 -0.1831  0.0994
 8267SOL    HW133579   8.284   5.838   1.750 -0.5610  0.2725  1.2293
 8267SOL    HW233580   8.369   5.896   1.861  0.1945 -1.9971  1.8910
 8268SOL     OW33581   4.441  10.053   6.181 -0.0678  0.0556  0.1669
 8268SOL    HW133582   4.381  10.018   6.114  1.8894 -0.8366 -1.2106
 8268SOL    HW233583   4.463  10.140   6.149  2.7719 -1.2379 -1.8341
 8269SOL     OW33584  10.134   7.776   3.804  0.1054 -0.1593  0.2774
 8269SOL    HW133585  10.139   7.783   3.709  0.2924  0.1668  0.3085
 8269SOL    HW233586  10.127   7.682   3.822 -0.3867 -0.1920 -0.0781
 8270SOL     OW33587   2.079  12.139   6.416  0.3773  0.0561  0.2272
 8270SOL    HW133588   2.124  12.126   6.500 -0.8798  1.2288  1.1316
 8270SOL    HW233589   1.999  12.087   6.423  0.1400  0.3670 -0.1379
 8271SOL     OW33590   3.696   5.794  10.155  0.7225  0.3290 -0.3206
 8271SOL    HW133591   3.605   5.819  10.140 -0.2000 -1.3402  1.8854
 8271SOL    HW233592   3.733   5.867  10.204  0.8256  1.3354 -1.8502
 8272SOL     OW33593   6.656   5.230   7.854  0.5467  0.1010 -0.2324
 8272SOL    HW133594   6.725   5.211   7.917 -1.2606  0.1052  1.8372
 8272SOL    HW233595   6.640   5.146   7.810  1.2577 -0.0844 -0.1609
 8273SOL     OW33596   4.442   1.334   2.126 -0.6145  0.2630 -0.2072
 8273SOL    HW133597   4.415   1.336   2.034 -0.9608 -1.2390 -0.1561
 8273SOL    HW233598   4.387   1.267   2.166  0.8687 -0.4679  0.6614
 8274SOL     OW33599  10.475   5.797  12.049  0.3861 -0.3123 -0.4526
 8274SOL    HW133600  10.382   5.812  12.067  0.3492 -0.2265 -0.7128
 8274SOL    HW233601  10.513   5.778  12.135  0.0505 -0.7657 -0.4013
 8275SOL     OW33602  10.659   2.570   0.182 -0.0484 -0.4616  0.0753
 8275SOL    HW133603  10.629   2.650   0.140 -0.5979  0.4287  2.0458
 8275SOL    HW233604  10.720   2.600   0.249 -0.1754 -1.7004  0.7732
 8276SOL     OW33605   4.139   9.567   4.467  0.1309 -0.2166  0.3105
 8276SOL    HW133606   4.196   9.630   4.424  0.9325 -0.3941  1.0807
 8276SOL    HW233607   4.180   9.482   4.450  0.2234 -0.3242  1.0603
 8277SOL     OW33608   7.451  10.568   7.348  0.0818  0.1875 -0.3372
 8277SOL    HW133609   7.517  10.534   7.288 -0.0032 -0.7395  0.0734
 8277SOL    HW233610   7.382  10.501   7.348  1.0059 -0.8818  2.3710
 8278SOL     OW33611   9.703   6.836   1.871 -0.1143  0.2712 -0.6545
 8278SOL    HW133612   9.734   6.763   1.925 -0.9775 -0.4680 -1.1354
 8278SOL    HW233613   9.639   6.881   1.925 -1.0775 -0.5487 -1.0806
 8279SOL     OW33614   7.650   7.460  11.476  0.4359  0.0074 -0.1355
 8279SOL    HW133615   7.555   7.448  11.483  0.0311  2.6033 -0.3041
 8279SOL    HW233616   7.662   7.510  11.395  1.8969  0.1858  0.1561
 8280SOL     OW33617   8.839   3.132  11.047 -0.1574 -0.2202 -0.3698
 8280SOL    HW133618   8.926   3.118  11.008  0.2243 -1.2283  0.7708
 8280SOL    HW233619   8.783   3.156  10.973  1.2565  1.2868 -1.0157
 8281SOL     OW33620   5.686   0.542   6.396  0.2236 -0.4570  0.0054
 8281SOL    HW133621   5.623   0.506   6.459  0.9389 -1.0981  0.3739
 8281SOL    HW233622   5.747   0.470   6.379  0.6459  0.0384 -0.6262
 8282SOL     OW33623   1.689   6.600  11.783 -0.2676 -0.4902  0.6443
 8282SOL    HW133624   1.689   6.645  11.868  0.3614  1.1820 -0.1934
 8282SOL    HW233625   1.647   6.661  11.723 -1.6895 -2.0973 -0.0827
 8283SOL     OW33626   5.640   8.850   4.170 -0.2427  0.3089  0.1267
 8283SOL    HW133627   5.710   8.808   4.220 -0.0451 -0.6194 -0.8805
 8283SOL    HW233628   5.566   8.855   4.231  1.1995  3.0787  1.8579
 8284SOL     OW33629   5.063   6.917  11.479  0.2310  0.3938 -0.3369
 8284SOL    HW133630   5.107   6.997  11.451 -0.1277 -0.1448 -2.6605
 8284SOL    HW233631   4.985   6.947  11.526  1.8667  1.3386  1.9605
 8285SOL     OW33632  10.752   9.760   0.809  0.2318 -0.1914 -0.0092
 8285SOL    HW133633  10.826   9.784   0.864  0.9452  1.1248 -1.4901
 8285SOL    HW233634  10.789   9.750   0.721 -1.5064  1.6750 -1.0267
 8286SOL     OW33635   4.705   2.424   0.342  0.2247 -0.1484  0.5931
 8286SOL    HW133636   4.735   2.514   0.327 -1.3749  0.6922  2.0205
 8286SOL    HW233637   4.767   2.389   0.406  0.1522  0.3832  0.9643
 8287SOL     OW33638   7.711   5.753   2.973 -0.0217  0.1496  0.0321
 8287SOL    HW133639   7.735   5.717   3.058 -1.2897  0.1048  0.3869
 8287SOL    HW233640   7.735   5.846   2.978  1.9914 -0.2969 -0.4001
 8288SOL     OW33641   5.320   9.320   5.417  0.3440 -0.4708  0.5087
 8288SOL    HW133642   5.227   9.306   5.432  0.3393 -0.8926  0.1279
 8288SOL    HW233643   5.327   9.333   5.322  0.6426 -0.1962  0.5665
 8289SOL     OW33644  10.349   0.143   1.813 -0.2155  0.3081 -0.1996
 8289SOL    HW133645  10.258   0.168   1.826  0.0610  1.0720  0.3606
 8289SOL    HW233646  10.358   0.135   1.718 -0.3603  2.3277 -0.4243
 8290SOL     OW33647   7.192   8.782   1.210  0.0722  0.2838 -0.1925
 8290SOL    HW133648   7.188   8.857   1.151 -0.2846  1.1971  0.9499
 8290SOL    HW233649   7.197   8.820   1.298 -0.1573 -1.0274  0.4234
 8291SOL     OW33650  12.283  11.146  10.999  0.4449 -0.0594  0.3622
 8291SOL    HW133651  12.336  11.067  10.988 -1.1488 -0.9205 -1.9141
 8291SOL    HW233652  12.250  11.141  11.089  1.2815 -1.3844  0.6223
 8292SOL     OW33653   6.662   0.474  10.665 -0.4345  0.0422 -1.1409
 8292SOL    HW133654   6.733   0.447  10.723 -0.1977  2.1960 -0.3446
 8292SOL    HW233655   6.583   0.467  10.719 -0.1396  2.6502 -0.2579
 8293SOL     OW33656  11.183  10.513   0.177  0.0195 -0.0844  0.2853
 8293SOL    HW133657  11.169  10.484   0.087 -0.2871 -0.1288  0.3448
 8293SOL    HW233658  11.265  10.472   0.203  1.0969  1.3995 -0.5953
 8294SOL     OW33659  12.229   0.370   9.167  0.4808  0.6494 -0.3460
 8294SOL    HW133660  12.176   0.372   9.088 -1.0517 -0.7322  0.5801
 8294SOL    HW233661  12.270   0.283   9.167 -0.5096  0.1433  0.9255
 8295SOL     OW33662   2.917   2.830  10.054 -0.1509  0.5839  0.5670
 8295SOL    HW133663   2.965   2.760  10.099  1.2144 -0.3968 -2.2147
 8295SOL    HW233664   2.827   2.798  10.049  0.0232 -0.0140  1.1229
 8296SOL     OW33665   6.695   0.876   9.346 -0.0615 -0.1030  0.7061
 8296SOL    HW133666   6.761   0.851   9.282  0.2910 -0.3248  1.1447
 8296SOL    HW233667   6.668   0.964   9.320  0.5134  0.0488  0.6056
 8297SOL     OW33668   0.587   9.923   1.841  0.1191 -0.1101 -0.6453
 8297SOL    HW133669   0.518   9.979   1.877  0.5558  0.3819 -0.5421
 8297SOL    HW233670   0.550   9.886   1.761 -0.8440 -1.1541  0.2567
 8298SOL     OW33671   2.226  11.152   4.499  0.5236 -0.1883  0.9839
 8298SOL    HW133672   2.176  11.187   4.572  1.4326  2.0505  0.6333
 8298SOL    HW233673   2.184  11.189   4.421  1.1124 -0.4083  0.5486
 8299SOL     OW33674   4.385   5.328   0.565 -0.1499  0.4429  0.0005
 8299SOL    HW133675   4.450   5.290   0.624 -0.5786  0.8752  0.7570
 8299SOL    HW233676   4.397   5.422   0.572 -0.3851  0.5078 -0.4061
 8300SOL     OW33677  10.668   1.351   4.463  0.4202 -0.4602 -0.0374
 8300SOL    HW133678  10.740   1.412   4.447  0.1280 -0.7096 -2.7385
 8300SOL    HW233679  10.590   1.407   4.465  0.3250 -0.5461 -0.8937
 8301SOL     OW33680   3.218   8.880   5.204  0.4060  0.1127  0.1104
 8301SOL    HW133681   3.125   8.899   5.195  0.3156  0.0128  0.7292
 8301SOL    HW233682   3.257   8.908   5.122 -0.2457 -0.3131 -0.3522
 8302SOL     OW33683   3.427   3.309   7.697  0.4069 -0.3806 -0.0819
 8302SOL    HW133684   3.336   3.305   7.725  0.3797  0.3468 -0.0387
 8302SOL    HW233685   3.455   3.398   7.720  0.7658 -0.1962 -1.1980
 8303SOL     OW33686   1.440   2.615   1.928 -0.2082 -0.0063 -0.3512
 8303SOL    HW133687   1.462   2.587   1.839 -0.1099  0.0279 -0.3371
 8303SOL    HW233688   1.373   2.682   1.916 -0.5386 -0.3337 -0.3808
 8304SOL     OW33689   1.560   6.320   9.537  0.0092 -0.4720 -0.1542
 8304SOL    HW133690   1.572   6.394   9.596 -0.0948 -1.0702  0.6487
 8304SOL    HW233691   1.634   6.262   9.555 -0.9918 -1.5394  0.7827
 8305SOL     OW33692   5.232   1.882   8.104 -0.5114 -0.6879 -0.2472
 8305SOL    HW133693   5.254   1.886   8.197  0.3244  0.3833 -0.4783
 8305SOL    HW233694   5.199   1.969   8.083 -0.7879 -0.9523 -0.9341
 8306SOL     OW33695  10.269  10.531   1.046 -0.4463  0.3496  0.8977
 8306SOL    HW133696  10.312  10.611   1.016  0.3620  0.3069  1.8812
 8306SOL    HW233697  10.189  10.526   0.993  1.3471 -0.2982 -1.9844
 8307SOL     OW33698   2.634   1.379   0.374 -0.4602 -0.3704 -0.1118
 8307SOL    HW133699   2.605   1.290   0.391 -1.5621  0.1188  0.6776
 8307SOL    HW233700   2.566   1.417   0.318  0.8487 -0.5192 -1.9044
 8308SOL     OW33701   1.033   5.314  11.126 -0.5993  0.8883 -0.5120
 8308SOL    HW133702   1.082   5.254  11.069 -1.3664 -0.6335  0.3730
 8308SOL    HW233703   1.079   5.398  11.117  2.0319 -0.3839  0.0570
 8309SOL     OW33704   0.139   6.454   8.046  0.2035 -0.3099 -0.2102
 8309SOL    HW133705   0.185   6.525   8.090 -1.2870  0.8474 -0.4431
 8309SOL    HW233706   0.171   6.457   7.955 -3.0264  3.1170 -1.4696
 8310SOL     OW33707   8.560  10.178   3.338  0.2454  0.4002  0.6515
 8310SOL    HW133708   8.538  10.206   3.248  0.2757  0.8592  0.7852
 8310SOL    HW233709   8.570  10.260   3.386  2.4912  0.2465  0.5589
 8311SOL     OW33710   1.177   0.094  11.365 -0.0604  0.4535  0.0284
 8311SOL    HW133711   1.168   0.040  11.444 -0.1748 -1.2518 -1.0798
 8311SOL    HW233712   1.089   0.095  11.328 -0.1734  1.8859  0.2847
 8312SOL     OW33713  10.528   0.124  11.422 -0.2584  0.1503  0.1892
 8312SOL    HW133714  10.496   0.036  11.404  0.2804  0.2960 -1.8000
 8312SOL    HW233715  10.448   0.178  11.423 -0.4893 -0.1855  0.1683
 8313SOL     OW33716   6.622   7.843   1.119  0.0639 -0.3125 -0.0581
 8313SOL    HW133717   6.555   7.824   1.185  0.2948 -2.3880 -0.3514
 8313SOL    HW233718   6.705   7.820   1.161  0.2334 -1.4177 -0.9327
 8314SOL     OW33719   8.024   4.052   0.202  0.0176  0.6315  0.6243
 8314SOL    HW133720   8.000   3.966   0.234 -0.0494  0.9667  1.5031
 8314SOL    HW233721   8.099   4.077   0.256  1.9182 -0.0782 -1.5354
 8315SOL     OW33722   1.282   8.110   4.859  0.0309 -0.4471 -0.4927
 8315SOL    HW133723   1.322   8.187   4.899  2.9328 -1.3813 -1.3516
 8315SOL    HW233724   1.231   8.070   4.930 -2.4444  2.6765 -0.2912
 8316SOL     OW33725   6.235  10.494   5.002  0.0086  0.0820  0.3425
 8316SOL    HW133726   6.209  10.559   4.937  0.0282 -0.5434 -0.3009
 8316SOL    HW233727   6.277  10.545   5.072  0.0878  0.7437 -0.1807
 8317SOL     OW33728   0.783   6.554   4.877 -0.4347 -0.2264 -0.0383
 8317SOL    HW133729   0.768   6.566   4.784 -2.5357  1.3798  0.4196
 8317SOL    HW233730   0.713   6.495   4.905 -0.9702  0.7461  0.7767
 8318SOL     OW33731   2.208   8.088   2.478 -0.2646 -0.2620  0.0752
 8318SOL    HW133732   2.177   8.167   2.434 -3.5777 -2.4749 -2.0724
 8318SOL    HW233733   2.268   8.048   2.416 -0.6957 -0.7360 -0.0380
 8319SOL     OW33734   6.570   2.978   8.149  0.7075  0.0401  0.3727
 8319SOL    HW133735   6.567   3.043   8.079  3.5948 -0.7159 -0.6034
 8319SOL    HW233736   6.524   2.902   8.113 -0.2860  0.5924  0.4461
 8320SOL     OW33737   6.656   8.313   8.366 -0.1507  0.5327 -0.2932
 8320SOL    HW133738   6.645   8.248   8.436 -1.7113 -0.4340 -1.3732
 8320SOL    HW233739   6.679   8.261   8.290  1.2257  1.5461 -0.5999
 8321SOL     OW33740  10.993   3.794   7.770 -0.0996  0.0274  0.0655
 8321SOL    HW133741  10.981   3.870   7.826 -2.1854  2.0857 -2.8640
 8321SOL    HW233742  11.063   3.819   7.710 -0.1665 -0.7366 -0.3424
 8322SOL     OW33743   2.683   7.326   9.747 -0.1364 -0.3951  0.1860
 8322SOL    HW133744   2.692   7.231   9.735 -1.0353 -0.7060  1.6790
 8322SOL    HW233745   2.637   7.335   9.831  1.5117  1.3989  0.9905
 8323SOL     OW33746   5.309   7.449   0.486 -0.6715  0.6639  0.0511
 8323SOL    HW133747   5.346   7.366   0.457 -0.7362  0.6500  0.0079
 8323SOL    HW233748   5.357   7.470   0.567 -1.3137  0.1138  0.5818
 8324SOL     OW33749   5.670   6.044  11.506  0.4475  0.1260 -0.6580
 8324SOL    HW133750   5.708   6.021  11.421  0.4067 -0.8102 -0.4273
 8324SOL    HW233751   5.601   6.107  11.485  1.7668  1.4840 -1.1324
 8325SOL     OW33752   2.643   6.981   3.553  0.0415 -0.3074  0.0988
 8325SOL    HW133753   2.591   6.981   3.633 -1.6698 -0.9393 -0.9591
 8325SOL    HW233754   2.725   6.938   3.577  0.4663  1.4247  2.0183
 8326SOL     OW33755   8.509   8.502   9.928 -0.1509 -0.1434 -0.1728
 8326SOL    HW133756   8.593   8.475   9.891 -1.0372 -1.0514 -1.5878
 8326SOL    HW233757   8.533   8.555  10.005  1.6950 -0.6233 -0.3716
 8327SOL     OW33758   9.985   1.339   8.296 -0.1976 -0.1333  0.1894
 8327SOL    HW133759   9.963   1.280   8.224 -1.3742 -0.9173  1.1576
 8327SOL    HW233760   9.927   1.313   8.367  0.1012  1.4120  1.0455
 8328SOL     OW33761   3.998   0.780   2.100  0.0534  1.0414  0.0678
 8328SOL    HW133762   4.076   0.764   2.153  0.4149  0.5410 -0.6071
 8328SOL    HW233763   3.956   0.855   2.142  0.3607  0.6839  1.0288
 8329SOL     OW33764   6.744   3.907   9.705 -0.2319 -0.9087  0.1622
 8329SOL    HW133765   6.669   3.915   9.765  0.0196 -1.7592  0.6078
 8329SOL    HW233766   6.784   3.994   9.705 -1.7407 -0.1741 -0.7975
 8330SOL     OW33767   5.023  10.053   9.303  0.1783  0.6461  0.0402
 8330SOL    HW133768   5.106  10.009   9.287 -1.7286 -3.4208 -0.1178
 8330SOL    HW233769   4.983  10.062   9.217  0.1577  1.9877  0.1716
 8331SOL     OW33770   2.228   5.631   5.009 -0.5400 -0.3444 -0.7715
 8331SOL    HW133771   2.177   5.607   4.931 -0.5272 -0.6942 -0.6748
 8331SOL    HW233772   2.207   5.563   5.073  2.2939 -2.2517 -1.6724
 8332SOL     OW33773   8.229  10.825   1.281  0.0896 -0.1726 -0.1398
 8332SOL    HW133774   8.158  10.787   1.333 -0.2558 -0.4830 -0.8240
 8332SOL    HW233775   8.308  10.780   1.311 -0.3951 -2.0560 -1.4675
 8333SOL     OW33776  12.096   0.934   2.926  0.3082  0.0246  0.2009
 8333SOL    HW133777  12.187   0.963   2.917  0.4737 -0.7112 -0.6408
 8333SOL    HW233778  12.101   0.844   2.956 -0.0492 -0.7925 -1.9922
 8334SOL     OW33779  11.439   0.952   3.691 -0.0002 -0.4940 -0.1895
 8334SOL    HW133780  11.528   0.918   3.695  0.1457 -0.1578 -0.5373
 8334SOL    HW233781  11.389   0.883   3.648  0.2475 -0.3755 -0.6759
 8335SOL     OW33782   6.579   9.459   0.598  0.0280 -0.2887 -0.6291
 8335SOL    HW133783   6.599   9.516   0.672 -1.5306  1.2620 -1.3394
 8335SOL    HW233784   6.503   9.409   0.627  0.6535 -1.1676 -0.4635
 8336SOL     OW33785   2.837   4.535   9.769 -0.3493 -0.2274  0.6440
 8336SOL    HW133786   2.835   4.513   9.862  0.1834 -1.0132  0.4817
 8336SOL    HW233787   2.929   4.558   9.752 -0.6894  1.1430  0.5747
 8337SOL     OW33788   1.690   2.521   1.733  0.6382  0.0408  0.3364
 8337SOL    HW133789   1.716   2.613   1.721  1.6081 -0.0962  1.2612
 8337SOL    HW233790   1.726   2.496   1.818 -0.6485 -0.8587  0.6490
 8338SOL     OW33791  10.511   2.231   7.009  0.2188 -0.7052  0.1870
 8338SOL    HW133792  10.540   2.159   7.065  2.6541  1.0808  1.3955
 8338SOL    HW233793  10.473   2.295   7.068  1.9870  0.8077 -0.2047
 8339SOL     OW33794   3.445   6.969  10.736  0.6129 -0.2532  0.2643
 8339SOL    HW133795   3.429   6.913  10.661  4.6266  0.5076 -1.4168
 8339SOL    HW233796   3.439   6.910  10.812 -2.2051 -1.3019 -0.6599
 8340SOL     OW33797   0.006   0.689   4.115  0.0308  0.1262 -0.3274
 8340SOL    HW133798  -0.068   0.629   4.126 -0.3205  0.4451 -0.9624
 8340SOL    HW233799   0.014   0.732   4.200 -0.3425 -0.1006 -0.1755
 8341SOL     OW33800   5.924   5.578   5.419  0.3917 -0.1024 -0.5010
 8341SOL    HW133801   5.975   5.641   5.469 -0.3836  0.9872 -1.0444
 8341SOL    HW233802   5.990   5.525   5.373  1.0724  1.5175 -1.4911
 8342SOL     OW33803  10.653   9.651  12.100  0.2666 -0.0577  0.3758
 8342SOL    HW133804  10.603   9.594  12.158 -0.4968  1.6926  1.5248
 8342SOL    HW233805  10.589   9.681  12.035  0.8675 -1.1510 -0.7613
 8343SOL     OW33806   6.984   1.269  11.062  0.0567  0.2610 -0.5051
 8343SOL    HW133807   7.011   1.359  11.043  1.4657 -0.1676 -0.7173
 8343SOL    HW233808   6.986   1.225  10.977  1.2991 -0.4187 -0.1522
 8344SOL     OW33809   8.734   8.486  11.864 -0.3231 -0.0217  0.2082
 8344SOL    HW133810   8.778   8.401  11.858 -0.0499  0.1703 -0.9095
 8344SOL    HW233811   8.805   8.550  11.852 -0.4081  0.3969  1.7880
 8345SOL     OW33812  10.627   1.013  12.177 -0.2561 -0.0819 -0.5559
 8345SOL    HW133813  10.690   0.952  12.139  2.0241  0.6785  1.7268
 8345SOL    HW233814  10.593   0.967  12.254  0.8034  1.0815  0.6608
 8346SOL     OW33815   8.802   8.548   2.390 -0.1534  0.0833  0.0697
 8346SOL    HW133816   8.839   8.586   2.311  1.1173  0.7509  0.9433
 8346SOL    HW233817   8.759   8.467   2.361  2.1068 -0.7935 -1.0184
 8347SOL     OW33818   7.432   8.480   1.506  0.0518 -0.2177  0.7754
 8347SOL    HW133819   7.352   8.490   1.455  0.0211 -0.9819  0.6669
 8347SOL    HW233820   7.501   8.468   1.441 -0.0368 -1.5457  0.9148
 8348SOL     OW33821   4.528   2.977   7.510  0.3964 -0.2580  0.4344
 8348SOL    HW133822   4.522   3.022   7.426  0.2936  0.9616  1.0806
 8348SOL    HW233823   4.461   2.908   7.505 -0.6678  0.7772  0.0897
 8349SOL     OW33824   5.825   6.077   6.919  0.0263  0.1832 -0.2925
 8349SOL    HW133825   5.908   6.055   6.876 -0.8383  0.5186 -2.2532
 8349SOL    HW233826   5.809   6.168   6.896 -1.1497 -0.0381 -0.4127
 8350SOL     OW33827   5.527   6.082   7.682  0.0442 -0.9272 -0.1595
 8350SOL    HW133828   5.442   6.106   7.720  1.6388  2.6260  1.5871
 8350SOL    HW233829   5.513   6.087   7.588 -1.8031 -0.9954  0.0683
 8351SOL     OW33830   2.705   7.751   7.890 -0.2000  0.5198 -0.0468
 8351SOL    HW133831   2.613   7.725   7.901  0.1366 -1.5139 -1.5714
 8351SOL    HW233832   2.699   7.837   7.849 -1.3804  1.2734  1.5642
 8352SOL     OW33833   6.416   7.624  12.370  0.4428  0.3230 -0.4923
 8352SOL    HW133834   6.449   7.536  12.350 -0.1391 -0.2892  1.0511
 8352SOL    HW233835   6.433   7.635  12.464  2.4210  2.7446 -1.0480
 8353SOL     OW33836   2.983   3.848   3.940  0.6574 -0.2456 -0.0653
 8353SOL    HW133837   3.001   3.866   4.032 -0.2288  0.1901  0.0326
 8353SOL    HW233838   2.972   3.753   3.936  0.3768 -0.2314  0.3453
 8354SOL     OW33839   2.713   4.676  12.202  0.0175 -0.3124 -0.4725
 8354SOL    HW133840   2.678   4.764  12.214 -2.4723 -1.3321  0.3552
 8354SOL    HW233841   2.789   4.688  12.144  0.1403  2.4057  0.1243
 8355SOL     OW33842   0.509   2.417   8.373 -0.4506  0.1230  0.0830
 8355SOL    HW133843   0.488   2.357   8.302  1.2837 -0.4385 -0.0033
 8355SOL    HW233844   0.549   2.362   8.441  1.2009  1.1142 -0.0079
 8356SOL     OW33845   4.553   4.459   8.059 -0.2770 -0.4381  0.0736
 8356SOL    HW133846   4.528   4.496   8.144  1.1939  1.9145 -0.4367
 8356SOL    HW233847   4.538   4.365   8.069 -1.2633 -0.0999  2.5230
 8357SOL     OW33848   0.076   0.225  12.521  0.0250 -0.3096 -0.1711
 8357SOL    HW133849   0.043   0.148  12.567 -0.4450  0.5512  0.9754
 8357SOL    HW233850   0.152   0.252  12.573  0.7482 -0.5159 -1.0891
 8358SOL     OW33851   8.793   1.902   8.549  0.0157 -0.0954  0.2594
 8358SOL    HW133852   8.852   1.836   8.585  0.9499 -0.9982 -2.6236
 8358SOL    HW233853   8.729   1.918   8.619  1.8999 -1.2852  2.4058
 8359SOL     OW33854   8.671   4.691   7.884 -0.6372  0.2220  0.5461
 8359SOL    HW133855   8.607   4.673   7.816 -0.6394 -2.1711  1.0810
 8359SOL    HW233856   8.689   4.606   7.924 -0.4900  1.4610  3.4147
 8360SOL     OW33857   6.126   4.427   7.948  0.3438 -0.0021  0.2870
 8360SOL    HW133858   6.198   4.371   7.917  0.5914  0.3436  0.2410
 8360SOL    HW233859   6.070   4.439   7.871 -0.4312 -1.2736  0.6032
 8361SOL     OW33860   5.024   7.734   0.761  0.1116  0.3326 -0.0438
 8361SOL    HW133861   5.069   7.772   0.686 -0.2779 -1.8027 -1.4169
 8361SOL    HW233862   4.947   7.790   0.773  0.2313  0.7664 -1.1709
 8362SOL     OW33863   4.793   4.602   5.414 -0.1972  0.1716 -0.3349
 8362SOL    HW133864   4.825   4.570   5.329 -1.3844  1.0030 -1.1290
 8362SOL    HW233865   4.757   4.525   5.457  0.3389 -0.2439 -0.6294
 8363SOL     OW33866  10.717  10.794   1.066  0.2914  0.3661  0.1294
 8363SOL    HW133867  10.778  10.814   1.137  0.8634 -0.5190 -0.0927
 8363SOL    HW233868  10.633  10.783   1.110  0.7061 -0.5243  0.7409
 8364SOL     OW33869   8.014   4.362   0.278  0.6600  0.6370 -0.4308
 8364SOL    HW133870   7.977   4.443   0.312 -0.4710  0.4019 -1.0624
 8364SOL    HW233871   7.938   4.309   0.253  1.3182 -1.0302  0.8774
 8365SOL     OW33872  11.343   2.104   6.120 -0.0911 -0.2922  0.7968
 8365SOL    HW133873  11.365   2.185   6.074 -1.5279  1.2826  2.7039
 8365SOL    HW233874  11.249   2.093   6.106 -1.0290  1.2741  4.6259
 8366SOL     OW33875   4.624   2.595   9.760 -0.1348  0.2088  0.7849
 8366SOL    HW133876   4.599   2.511   9.799 -1.1349  0.0910 -0.0576
 8366SOL    HW233877   4.675   2.570   9.682  0.6981  0.4153  1.2537
 8367SOL     OW33878   4.552   0.207  12.581 -0.2114 -0.2697 -0.4485
 8367SOL    HW133879   4.644   0.186  12.562 -0.0233 -0.5691  0.7123
 8367SOL    HW233880   4.521   0.133  12.632 -1.0162 -0.0258 -0.5748
 8368SOL     OW33881   9.412   1.623   2.369 -0.2421 -0.4945  0.0059
 8368SOL    HW133882   9.341   1.679   2.336  0.7720  2.2175  2.0186
 8368SOL    HW233883   9.382   1.596   2.456  0.1708 -1.3880 -0.1236
 8369SOL     OW33884  10.182  10.598  10.007 -0.2800 -0.3856 -0.5065
 8369SOL    HW133885  10.243  10.577   9.936  1.5556 -3.8449  1.7619
 8369SOL    HW233886  10.123  10.522  10.010 -0.6535 -0.0571  1.2767
 8370SOL     OW33887  10.618   1.999   1.285  0.0131  0.2652 -0.0941
 8370SOL    HW133888  10.557   1.933   1.253 -0.5460  0.9729 -0.5213
 8370SOL    HW233889  10.683   2.008   1.215  0.5079 -0.3425  0.2746
 8371SOL     OW33890   2.519   2.051   4.207 -0.0655 -0.0004  0.1595
 8371SOL    HW133891   2.502   1.994   4.132  2.3018  0.1102 -0.5543
 8371SOL    HW233892   2.561   2.128   4.169  1.9755 -0.3120  1.6206
 8372SOL     OW33893  10.841   7.406   0.178  0.1136 -0.7465 -0.4766
 8372SOL    HW133894  10.765   7.405   0.236 -0.0667 -1.2277 -0.7186
 8372SOL    HW233895  10.892   7.329   0.204  2.0793  1.1564  1.7367
 8373SOL     OW33896   8.895   4.233   0.706 -0.0825  0.0906  0.2093
 8373SOL    HW133897   8.861   4.197   0.624 -0.0036  1.2595 -0.3553
 8373SOL    HW233898   8.869   4.169   0.773 -3.0743  0.7331 -0.2251
 8374SOL     OW33899   6.425   7.229   4.017  0.4358  0.1095 -0.0305
 8374SOL    HW133900   6.346   7.282   4.006  0.4703 -0.1796 -2.2482
 8374SOL    HW233901   6.474   7.273   4.087 -0.5296  1.7704 -0.3364
 8375SOL     OW33902   9.742   5.405   2.873  0.1130 -0.2136  0.8182
 8375SOL    HW133903   9.717   5.331   2.818 -0.0211  1.0183 -0.8431
 8375SOL    HW233904   9.826   5.435   2.837  0.7543 -0.2390  2.2021
 8376SOL     OW33905  12.510   2.969   4.805 -0.7999  0.4620  0.1998
 8376SOL    HW133906  12.536   3.053   4.765  0.7146  0.3190  0.8096
 8376SOL    HW233907  12.537   2.977   4.896 -0.0325 -0.9227  0.1181
 8377SOL     OW33908   9.381  12.478   4.234  0.3270 -0.1402  0.0084
 8377SOL    HW133909   9.358  12.386   4.217  2.7121 -0.7806 -0.1369
 8377SOL    HW233910   9.473  12.475   4.258  0.1674  2.1367  1.1133
 8378SOL     OW33911   2.285   0.445   0.279  0.1748  0.0921  0.4075
 8378SOL    HW133912   2.199   0.478   0.255  0.0445  0.1979  1.0183
 8378SOL    HW233913   2.326   0.421   0.195 -1.0617 -1.5185  0.2224
 8379SOL     OW33914   3.984   7.408   8.803  0.0652 -0.2954 -0.1099
 8379SOL    HW133915   3.906   7.428   8.752  0.9068  0.0020 -1.3072
 8379SOL    HW233916   4.012   7.322   8.771  0.0319 -0.5758  0.5853
 8380SOL     OW33917   6.774   7.125   8.119 -0.0346 -0.1653 -0.1346
 8380SOL    HW133918   6.799   7.130   8.026  0.4783  1.3676  0.0550
 8380SOL    HW233919   6.700   7.185   8.127 -0.1359 -0.3615  0.4382
 8381SOL     OW33920   2.163   5.208   7.965  0.6582  0.0434 -0.1763
 8381SOL    HW133921   2.170   5.125   8.013 -0.8146 -0.0103 -0.0076
 8381SOL    HW233922   2.109   5.263   8.022  1.3125  0.9965 -0.4636
 8382SOL     OW33923  10.009   9.525   2.501 -0.0031 -0.7512 -0.3913
 8382SOL    HW133924   9.918   9.499   2.511  0.0401 -1.8731 -2.2792
 8382SOL    HW233925  10.056   9.475   2.567 -0.7313 -0.2625  0.5108
 8383SOL     OW33926   9.655   1.593   0.230 -0.0067  0.1452  0.2708
 8383SOL    HW133927   9.679   1.575   0.140 -0.4078 -0.5277  0.2928
 8383SOL    HW233928   9.643   1.688   0.233 -0.0568  0.1616 -0.3980
 8384SOL     OW33929   0.586   5.607   4.807 -0.2766 -0.0745  0.5590
 8384SOL    HW133930   0.637   5.546   4.860 -0.5131 -0.7910 -0.0143
 8384SOL    HW233931   0.502   5.563   4.794  0.4426 -0.8790 -2.0626
 8385SOL     OW33932   3.943   1.598   8.751 -0.8226  0.1415 -0.3018
 8385SOL    HW133933   4.029   1.597   8.710 -1.0699 -0.2177 -0.8296
 8385SOL    HW233934   3.911   1.687   8.739 -0.9796 -0.0116 -1.1028
 8386SOL     OW33935   7.307   9.588   6.112 -0.2211  0.2311 -0.4580
 8386SOL    HW133936   7.282   9.497   6.127  0.5265  0.0268 -0.3971
 8386SOL    HW233937   7.401   9.584   6.094 -0.3404  0.9036 -1.2677
 8387SOL     OW33938  12.247   9.775   2.361 -0.4520 -0.5212 -0.8250
 8387SOL    HW133939  12.294   9.746   2.440 -0.2576 -0.8090 -1.0463
 8387SOL    HW233940  12.291   9.731   2.289 -1.5794 -1.4605 -0.9745
 8388SOL     OW33941   5.403  12.155   2.876 -0.6665 -0.0643 -0.9469
 8388SOL    HW133942   5.385  12.163   2.782 -0.4442  0.9761 -0.9192
 8388SOL    HW233943   5.476  12.215   2.892 -0.0338 -0.9857 -0.2772
 8389SOL     OW33944   5.966   6.446   3.761 -0.2848 -0.0032  0.2884
 8389SOL    HW133945   5.973   6.389   3.837  1.5437 -1.0065 -0.5779
 8389SOL    HW233946   5.911   6.519   3.791  1.1561  0.1387  2.8518
 8390SOL     OW33947  11.661  10.863   9.719  0.2039  0.6353  0.0997
 8390SOL    HW133948  11.644  10.909   9.801  1.9931 -1.0356  1.5233
 8390SOL    HW233949  11.697  10.778   9.746 -2.5417 -1.5248 -2.3699
 8391SOL     OW33950  10.990   1.121   8.233 -0.6973 -0.3825  0.2182
 8391SOL    HW133951  11.084   1.104   8.237 -0.1375  2.3747  2.4087
 8391SOL    HW233952  10.950   1.037   8.212  2.2300 -1.6230 -0.8313
 8392SOL     OW33953   4.824  11.833  10.864  0.5556 -0.2140 -0.2159
 8392SOL    HW133954   4.899  11.791  10.906  0.7667 -0.7895 -1.1414
 8392SOL    HW233955   4.749  11.779  10.889  0.3144  0.8101  1.3551
 8393SOL     OW33956   1.939   8.589  11.489  0.3181  0.7033 -0.2201
 8393SOL    HW133957   1.888   8.657  11.533  0.5687  0.8935 -0.2209
 8393SOL    HW233958   1.909   8.593  11.398 -1.1829 -0.6039  0.1748
 8394SOL     OW33959   7.743   6.384  10.093 -0.4200  0.0865  0.1262
 8394SOL    HW133960   7.754   6.289  10.096  0.4119  0.2131  1.6427
 8394SOL    HW233961   7.763   6.413  10.181  1.5917  1.9282 -0.8696
 8395SOL     OW33962   2.031   0.034   7.105  0.1380  0.3787  0.1106
 8395SOL    HW133963   1.975   0.022   7.182  1.2912 -1.3662  0.7503
 8395SOL    HW233964   1.997  -0.027   7.040 -0.5441  1.5162 -0.6423
 8396SOL     OW33965   2.763   5.734  12.145 -0.0746 -0.1689 -0.3243
 8396SOL    HW133966   2.755   5.827  12.165 -0.0618  0.7119 -3.7477
 8396SOL    HW233967   2.854   5.723  12.118 -0.2326 -1.0403 -0.5320
 8397SOL     OW33968   2.523   1.153   4.563  0.5273  0.4657 -0.3631
 8397SOL    HW133969   2.605   1.163   4.612  0.3385  2.1268 -0.3180
 8397SOL    HW233970   2.521   1.229   4.504 -0.7948  0.2313 -0.6545
 8398SOL     OW33971   9.848  10.804   1.955 -0.2432 -0.4261  0.1469
 8398SOL    HW133972   9.828  10.827   2.046 -2.7591  1.6542 -0.8019
 8398SOL    HW233973   9.779  10.743   1.930  1.3859 -2.3278  0.0255
 8399SOL     OW33974   0.801   8.048  10.325  0.0760 -0.2484  0.1659
 8399SOL    HW133975   0.771   8.006  10.406 -0.6013 -1.1661 -0.5295
 8399SOL    HW233976   0.884   8.005  10.306  0.2033 -0.0803  0.3481
 8400SOL     OW33977  12.357   4.252   0.755 -0.0088  0.3891  0.2605
 8400SOL    HW133978  12.368   4.302   0.674  1.9094  0.0876  0.2929
 8400SOL    HW233979  12.387   4.163   0.732 -0.7653 -0.0517  0.9425
 8401SOL     OW33980   5.856   6.107  12.278  0.1277  1.0070  0.3224
 8401SOL    HW133981   5.850   6.178  12.214 -0.1148  0.2060 -0.5683
 8401SOL    HW233982   5.943   6.117  12.317  1.6682 -0.3502 -2.4355
 8402SOL     OW33983   0.772   6.473   7.648 -0.3126  0.2264  0.5687
 8402SOL    HW133984   0.732   6.387   7.656 -0.8237  0.4123  0.0942
 8402SOL    HW233985   0.760   6.497   7.556  0.5018  0.4795  0.5178
 8403SOL     OW33986  11.547   0.416   0.108 -0.7174 -0.1920 -0.4826
 8403SOL    HW133987  11.517   0.389   0.195 -0.1350  1.1852  0.1761
 8403SOL    HW233988  11.531   0.510   0.105  1.4699  0.2333 -0.9183
 8404SOL     OW33989  12.148   8.836  11.140 -0.1532 -0.2802 -0.4181
 8404SOL    HW133990  12.118   8.898  11.073  2.6614  1.6987  0.0102
 8404SOL    HW233991  12.113   8.871  11.222  2.8373  2.0126  0.0768
 8405SOL     OW33992   2.865   5.703   6.285 -0.3322 -0.0754 -0.4612
 8405SOL    HW133993   2.950   5.663   6.300 -0.2659  0.5770  1.1089
 8405SOL    HW233994   2.809   5.631   6.255  1.0110 -0.2905 -2.6561
 8406SOL     OW33995  10.517   7.707   3.809  0.0964  0.1490  0.6673
 8406SOL    HW133996  10.594   7.683   3.860 -0.4132 -1.2019  0.8372
 8406SOL    HW233997  10.527   7.660   3.727  0.2867  1.3275 -0.0066
 8407SOL     OW33998  10.331   7.124   0.148 -0.0199  0.9538  0.1857
 8407SOL    HW133999  10.264   7.070   0.105  1.1374 -0.6454  0.2719
 8407SOL    HW234000  10.363   7.069   0.220 -1.0089  3.0628  2.3492
 8408SOL     OW34001   9.142   5.657   4.610  0.0693 -0.2566  0.2148
 8408SOL    HW134002   9.236   5.643   4.607  0.6649  3.0213 -1.1893
 8408SOL    HW234003   9.132   5.752   4.603 -3.3888 -0.6118 -2.4467
 8409SOL     OW34004   1.919   5.066   1.842 -0.1157 -0.2148 -0.1473
 8409SOL    HW134005   1.956   5.140   1.890  0.4879  0.1471 -1.1397
 8409SOL    HW234006   1.924   4.993   1.904  0.8089  0.1942  0.2772
 8410SOL     OW34007   3.682   7.965  10.386 -0.6496  0.1215 -0.0512
 8410SOL    HW134008   3.698   7.963  10.480 -0.6494  0.2157 -0.0492
 8410SOL    HW234009   3.598   8.009  10.376 -1.6356 -1.6680  0.0168
 8411SOL     OW34010   4.160  12.385  10.677  0.1337 -0.3509  0.0532
 8411SOL    HW134011   4.236  12.364  10.623  0.2826  0.3663 -0.0253
 8411SOL    HW234012   4.091  12.327  10.646  0.2804 -0.0952 -0.7703
 8412SOL     OW34013   4.250   3.105   6.510  0.1230  1.1438  0.2574
 8412SOL    HW134014   4.241   3.159   6.431 -0.9575  0.6521  0.0239
 8412SOL    HW234015   4.183   3.037   6.499  0.8832  0.2782  0.9624
 8413SOL     OW34016   2.667  11.666   9.855  1.0050 -0.0196 -0.8084
 8413SOL    HW134017   2.607  11.615   9.909  0.7812 -0.0433 -1.0723
 8413SOL    HW234018   2.618  11.747   9.835  1.3236  0.2578 -0.4625
 8414SOL     OW34019   6.305  10.233   3.966  0.0890  0.1730 -0.8129
 8414SOL    HW134020   6.320  10.205   4.057  1.6808  1.3329 -0.6833
 8414SOL    HW234021   6.278  10.153   3.921  1.0784 -0.8307  0.2914
 8415SOL     OW34022   8.763   1.665   1.776  0.2347  0.2577 -0.0991
 8415SOL    HW134023   8.677   1.699   1.802 -0.1381 -1.3285  0.8553
 8415SOL    HW234024   8.744   1.586   1.726  1.1466  0.0220 -0.0928
 8416SOL     OW34025  10.219   9.518   8.115 -0.0504  1.0908 -0.2264
 8416SOL    HW134026  10.221   9.469   8.197  0.3291  0.9021 -0.3488
 8416SOL    HW234027  10.181   9.457   8.051  1.4405  0.5460 -0.6390
 8417SOL     OW34028   5.848   8.109  11.349 -0.4251  1.0114  0.5528
 8417SOL    HW134029   5.818   8.164  11.277 -1.9325  0.3301  0.6344
 8417SOL    HW234030   5.844   8.020  11.315  1.6738  0.8682  0.5376
 8418SOL     OW34031   7.320  11.425  11.517  0.0801 -0.5470 -0.6780
 8418SOL    HW134032   7.255  11.490  11.491 -0.0520 -0.5044 -0.2510
 8418SOL    HW234033   7.395  11.476  11.546 -0.3058 -0.5634  0.3860
 8419SOL     OW34034   9.858   9.849   2.465  0.2884  0.3068 -0.2478
 8419SOL    HW134035   9.783   9.799   2.433  1.0847  0.0189 -1.7897
 8419SOL    HW234036   9.930   9.785   2.468  0.5273  0.6102  1.0641
 8420SOL     OW34037  11.667  11.479   6.192 -0.0408 -0.1479  0.2475
 8420SOL    HW134038  11.742  11.440   6.148 -1.0291 -1.3343 -0.4507
 8420SOL    HW234039  11.632  11.541   6.129 -1.0474 -1.3505 -0.4320
 8421SOL     OW34040  12.289   7.582   6.170 -0.3775  0.1291 -0.3146
 8421SOL    HW134041  12.213   7.571   6.227  1.5071 -0.0555  2.3485
 8421SOL    HW234042  12.296   7.677   6.156  1.0572  0.5953  2.7847
 8422SOL     OW34043  10.856   0.537   4.036  0.2764 -0.2044  0.4416
 8422SOL    HW134044  10.807   0.523   3.955  0.8057  1.0816 -0.1336
 8422SOL    HW234045  10.931   0.478   4.029  1.2044  1.0484 -0.8078
 8423SOL     OW34046  11.094   7.660   0.689  0.3291  0.0283 -0.3628
 8423SOL    HW134047  11.162   7.699   0.744  0.2199 -0.2528 -0.0259
 8423SOL    HW234048  11.108   7.566   0.696 -0.2804 -0.0427 -0.0480
 8424SOL     OW34049   0.315  12.225   8.025  0.8090 -0.5520 -0.3416
 8424SOL    HW134050   0.327  12.200   8.116  1.5786 -1.0553 -0.5709
 8424SOL    HW234051   0.307  12.320   8.027  0.4685 -0.5887  0.2845
 8425SOL     OW34052   3.098   8.402   0.402  0.2883  0.4305  1.0288
 8425SOL    HW134053   3.190   8.418   0.383  1.4030 -2.3659  3.3059
 8425SOL    HW234054   3.083   8.446   0.486 -0.3011  0.3718  0.9602
 8426SOL     OW34055  10.561   6.858   9.861 -0.0260  0.3482  0.0877
 8426SOL    HW134056  10.561   6.766   9.835 -1.1480 -0.7822  3.5716
 8426SOL    HW234057  10.648   6.890   9.837  1.1129 -2.2066  0.5287
 8427SOL     OW34058   1.543   8.728   2.938  0.2990  0.1973 -0.7360
 8427SOL    HW134059   1.620   8.706   2.886  1.4401  1.8590  0.1456
 8427SOL    HW234060   1.556   8.820   2.962 -1.2459  0.0946  0.6616
 8428SOL     OW34061   3.706   2.949   2.759 -0.1639  0.2605  0.2726
 8428SOL    HW134062   3.643   2.881   2.783  1.6093 -0.5248  3.2966
 8428SOL    HW234063   3.663   3.031   2.782 -1.2303  0.0071 -0.7100
 8429SOL     OW34064   0.095   9.204   3.967  0.0637 -0.2560 -0.3133
 8429SOL    HW134065   0.109   9.231   3.876  0.4726  2.2024  0.4118
 8429SOL    HW234066   0.174   9.234   4.013 -0.8276 -0.0563  1.1368
 8430SOL     OW34067   0.042   7.035   2.696  0.0582  0.7198  0.0040
 8430SOL    HW134068   0.012   6.945   2.687 -0.7185  0.8384  1.2279
 8430SOL    HW234069   0.130   7.028   2.733 -0.3250  0.4702  0.8964
 8431SOL     OW34070   1.364   0.976   6.704 -0.0897 -0.1973 -0.3560
 8431SOL    HW134071   1.309   0.997   6.779 -0.6213 -2.5706  0.0021
 8431SOL    HW234072   1.338   1.038   6.636 -0.0114  1.6082  1.2100
 8432SOL     OW34073   3.414   4.798   7.769 -0.2947 -0.4468 -0.2351
 8432SOL    HW134074   3.328   4.801   7.726 -0.3095 -0.0037 -0.1762
 8432SOL    HW234075   3.474   4.769   7.700 -0.2810  0.4746 -0.6196
 8433SOL     OW34076   0.916   6.279   5.203 -0.2293  0.1494  0.1681
 8433SOL    HW134077   0.918   6.368   5.238  1.1297 -0.2921  1.3205
 8433SOL    HW234078   0.884   6.225   5.275  0.4885 -0.4886  0.0239
 8434SOL     OW34079   2.421   5.802   3.057 -0.1242 -0.6472  0.2824
 8434SOL    HW134080   2.378   5.722   3.086 -2.5878  0.5472  0.1592
 8434SOL    HW234081   2.370   5.831   2.982  1.3449  0.5253 -0.3216
 8435SOL     OW34082   3.698   6.942   9.818  0.4055  0.3216  0.6739
 8435SOL    HW134083   3.773   6.980   9.863  1.5742 -2.2642  1.1145
 8435SOL    HW234084   3.734   6.912   9.734 -0.1343 -0.7784  0.8154
 8436SOL     OW34085  10.613   0.995  11.199  0.7736 -0.5407 -0.0718
 8436SOL    HW134086  10.550   0.923  11.205 -0.2797  0.3746  0.1416
 8436SOL    HW234087  10.625   1.024  11.289 -0.1810  0.6753 -0.3104
 8437SOL     OW34088   1.745   2.246   6.261 -0.3619  0.0786 -0.3963
 8437SOL    HW134089   1.784   2.208   6.182 -0.9742 -0.5692 -0.3876
 8437SOL    HW234090   1.652   2.227   6.253 -0.4845  0.3943  0.2767
 8438SOL     OW34091   6.412   1.893   3.554 -0.4437 -0.2603  0.4210
 8438SOL    HW134092   6.319   1.911   3.561 -0.3663  0.3802 -0.1709
 8438SOL    HW234093   6.418   1.797   3.552 -1.1350 -0.2947 -0.1710
 8439SOL     OW34094   7.671   3.257  12.434 -0.1737 -0.2349  0.0270
 8439SOL    HW134095   7.727   3.278  12.509 -1.0025  1.3990  0.2410
 8439SOL    HW234096   7.584   3.286  12.461 -0.6185 -0.2826 -1.3090
 8440SOL     OW34097   8.908   7.197   5.618 -0.6517  0.2114 -0.1748
 8440SOL    HW134098   8.986   7.200   5.673 -1.0447  0.9854  0.3616
 8440SOL    HW234099   8.842   7.153   5.673 -0.8931  0.5093 -0.2235
 8441SOL     OW34100   8.087  11.464   8.595 -0.3309  0.4364  0.4543
 8441SOL    HW134101   8.105  11.545   8.548  0.4259  0.0651  0.0998
 8441SOL    HW234102   8.144  11.468   8.672 -1.3863  0.9300  1.2376
 8442SOL     OW34103   8.654   8.892   7.631  0.2951  0.2776 -0.3004
 8442SOL    HW134104   8.694   8.817   7.673  0.3591  0.2217 -0.4612
 8442SOL    HW234105   8.721   8.926   7.572  0.1829  0.3127 -0.4097
 8443SOL     OW34106   8.856   5.376   3.501  0.4497  0.3520 -0.5766
 8443SOL    HW134107   8.873   5.291   3.542  1.3842  0.6502 -0.3229
 8443SOL    HW234108   8.911   5.376   3.423 -0.4887  0.2370 -1.2595
 8444SOL     OW34109   3.971   2.519  11.936  0.2417 -0.5709 -0.1573
 8444SOL    HW134110   3.900   2.532  11.998 -0.6281 -1.9438 -0.8114
 8444SOL    HW234111   4.014   2.604  11.930 -0.3141 -0.1427  1.4918
 8445SOL     OW34112   8.021  10.237  11.610 -0.0037 -0.0398  0.1163
 8445SOL    HW134113   8.040  10.286  11.530 -0.6724  0.3417  0.1776
 8445SOL    HW234114   7.998  10.149  11.580  0.1828 -0.0223 -0.0781
 8446SOL     OW34115   4.422   4.892   7.238  0.3723 -0.0619 -0.0892
 8446SOL    HW134116   4.437   4.972   7.187  1.3383  0.1358  0.4724
 8446SOL    HW234117   4.327   4.886   7.245  0.2724  2.0719  1.4077
 8447SOL     OW34118  11.887   1.379   7.827  0.1564  0.4717 -0.4170
 8447SOL    HW134119  11.828   1.430   7.883 -1.3804 -0.4987 -1.0830
 8447SOL    HW234120  11.856   1.397   7.738  1.5012  0.6834 -0.8558
 8448SOL     OW34121   9.719   1.460   8.277 -0.6770  0.4113 -0.3419
 8448SOL    HW134122   9.672   1.418   8.204 -1.3178  2.2590 -1.0568
 8448SOL    HW234123   9.811   1.453   8.252 -0.7928 -0.3147 -0.5860
 8449SOL     OW34124   0.150   4.674   8.042  0.1407  0.1699 -0.3475
 8449SOL    HW134125   0.108   4.737   8.101 -0.1225 -0.8706  0.6177
 8449SOL    HW234126   0.095   4.596   8.047  2.3284 -1.4150  1.3102
 8450SOL     OW34127   0.395   8.642  12.454 -0.4822 -0.0408 -0.4008
 8450SOL    HW134128   0.359   8.730  12.456  1.1634  0.6427  0.2008
 8450SOL    HW234129   0.481   8.651  12.413  0.0768 -1.2223  0.4404
 8451SOL     OW34130   6.460   3.719   7.206  0.5744  0.0216 -0.7276
 8451SOL    HW134131   6.438   3.666   7.282 -1.2373  0.2617 -1.0312
 8451SOL    HW234132   6.506   3.795   7.241  2.4865 -1.3272 -0.2125
 8452SOL     OW34133   8.362   6.738  11.245 -0.2691  0.2801  0.1622
 8452SOL    HW134134   8.397   6.801  11.182 -0.7670  0.5116  0.1172
 8452SOL    HW234135   8.284   6.780  11.281 -0.2953 -0.0814  0.5344
 8453SOL     OW34136   9.000   2.027   5.489 -0.1539 -0.1701 -0.0815
 8453SOL    HW134137   9.035   1.960   5.547  0.8862  0.2716 -0.1705
 8453SOL    HW234138   9.047   2.107   5.513  1.2766 -0.2296 -2.3397
 8454SOL     OW34139   3.992   5.304   8.650 -0.2524 -0.2157  0.5769
 8454SOL    HW134140   3.962   5.214   8.637  0.2313 -0.6264  2.0692
 8454SOL    HW234141   3.915   5.358   8.634  0.2149 -0.5061 -3.9016
 8455SOL     OW34142   8.091   3.763   7.655  0.8518  0.6539 -0.0460
 8455SOL    HW134143   8.081   3.820   7.578  0.1571  0.6312  0.0203
 8455SOL    HW234144   8.169   3.711   7.636  0.9258  0.9351 -0.5497
 8456SOL     OW34145  10.315   6.595   0.894 -0.1698 -0.3927  0.2951
 8456SOL    HW134146  10.244   6.645   0.853 -1.6295 -1.7496  1.0826
 8456SOL    HW234147  10.319   6.514   0.844 -1.5194 -1.7766  2.3233
 8457SOL     OW34148   9.924   9.961   7.648  0.2584 -0.0291  0.3197
 8457SOL    HW134149   9.868   9.920   7.582 -1.0063  1.2450  0.5674
 8457SOL    HW234150   9.954   9.888   7.703  0.6488 -0.9945 -1.1242
 8458SOL     OW34151   4.137  11.869   8.524  0.5550  0.0262  0.1311
 8458SOL    HW134152   4.175  11.792   8.481 -0.8257 -0.2564 -0.6464
 8458SOL    HW234153   4.073  11.832   8.585  1.0271  0.5195  0.9506
 8459SOL     OW34154   4.334   8.630   8.381  0.2123 -0.7937 -0.6766
 8459SOL    HW134155   4.319   8.571   8.307 -1.6695 -0.6071 -0.5058
 8459SOL    HW234156   4.302   8.581   8.457  1.3849 -0.6746 -0.0968
 8460SOL     OW34157   2.688   6.784   8.281  0.1519  0.0565 -0.1405
 8460SOL    HW134158   2.767   6.745   8.243  0.8759  1.4911 -0.1730
 8460SOL    HW234159   2.659   6.848   8.215 -0.0161  0.7964  0.6415
 8461SOL     OW34160   1.152   0.450  12.441  0.0207  0.0307 -0.1494
 8461SOL    HW134161   1.058   0.437  12.438  0.1699 -1.0377 -0.3663
 8461SOL    HW234162   1.188   0.385  12.381  1.0187 -0.8118  1.2951
 8462SOL     OW34163   9.349   7.235  12.261  0.5400 -0.0199 -0.2152
 8462SOL    HW134164   9.386   7.267  12.343  1.0235 -1.9480  0.3698
 8462SOL    HW234165   9.358   7.308  12.200 -0.6320  1.7854  1.6380
 8463SOL     OW34166   7.741   0.610   2.669  0.2656 -0.2402  0.3427
 8463SOL    HW134167   7.775   0.566   2.591 -0.7501 -0.0384 -0.2328
 8463SOL    HW234168   7.767   0.554   2.741  1.3221 -0.3761 -0.1143
 8464SOL     OW34169  10.761   9.530   2.103  0.2489  0.5420  0.0485
 8464SOL    HW134170  10.766   9.548   2.196  0.1893  1.6715 -0.1534
 8464SOL    HW234171  10.722   9.609   2.065 -0.4233 -0.1918 -0.8411
 8465SOL     OW34172   0.373   9.693  12.529 -0.0169  0.0435  0.6297
 8465SOL    HW134173   0.452   9.640  12.516 -0.4051 -0.5149  0.5315
 8465SOL    HW234174   0.306   9.630  12.554  0.3430  0.8704  4.1795
 8466SOL     OW34175   8.592   5.103   2.821 -0.0301  0.4328  0.4864
 8466SOL    HW134176   8.585   5.023   2.769 -1.8495  0.7093  0.2536
 8466SOL    HW234177   8.676   5.142   2.795  0.4016 -0.8765 -0.1311
 8467SOL     OW34178   9.596   3.862   5.318  0.5166  0.9825  0.2035
 8467SOL    HW134179   9.638   3.855   5.404  2.0047 -2.2460 -0.6138
 8467SOL    HW234180   9.628   3.944   5.283 -0.7403  2.7952  2.9371
 8468SOL     OW34181   3.459   3.690   8.744  0.3836 -0.3153  0.2238
 8468SOL    HW134182   3.399   3.762   8.766  0.5645 -0.1385  0.1418
 8468SOL    HW234183   3.404   3.611   8.749  0.1384 -0.1537  0.1333
 8469SOL     OW34184   6.035   7.835   8.161 -0.1976  0.1820 -0.2793
 8469SOL    HW134185   5.950   7.828   8.119 -0.1637 -0.3841 -0.2649
 8469SOL    HW234186   6.059   7.928   8.152 -0.5837  0.2434 -0.7301
 8470SOL     OW34187   4.771   1.534   3.645  0.1412 -0.4565  0.1911
 8470SOL    HW134188   4.764   1.442   3.669 -0.3970 -0.1117  1.4836
 8470SOL    HW234189   4.689   1.573   3.677 -0.5467  0.1169 -2.0883
 8471SOL     OW34190   7.722   1.812   9.096  0.2538 -0.3791 -0.0477
 8471SOL    HW134191   7.756   1.844   9.180 -0.8955 -1.4012  0.8491
 8471SOL    HW234192   7.698   1.892   9.049 -0.2622  0.1866  1.1223
 8472SOL     OW34193   6.163   0.409   7.599  0.0474  0.1381 -0.4708
 8472SOL    HW134194   6.149   0.315   7.592 -0.2260 -0.0097  1.6085
 8472SOL    HW234195   6.182   0.437   7.509 -0.9326 -1.7049 -1.2965
 8473SOL     OW34196   0.941   7.963  12.492  0.8154 -0.5589 -0.7132
 8473SOL    HW134197   0.875   8.030  12.475  0.2383 -1.1311 -0.7529
 8473SOL    HW234198   0.994   7.960  12.412  1.4733  0.5437 -0.3398
 8474SOL     OW34199  12.296   1.543   2.229  0.5737 -0.2186  0.1567
 8474SOL    HW134200  12.326   1.455   2.206  1.3127 -0.0690  0.5009
 8474SOL    HW234201  12.377   1.593   2.242  0.1600  0.6376 -0.4942
 8475SOL     OW34202   1.885   3.989   1.355  0.3139 -0.3952  1.0802
 8475SOL    HW134203   1.865   4.011   1.264  1.8527 -0.7674  0.6206
 8475SOL    HW234204   1.889   3.894   1.356  1.6823 -0.3600  1.1896
 8476SOL     OW34205   6.273   9.746  11.024 -0.6722  0.3855  0.0551
 8476SOL    HW134206   6.236   9.752  10.936  0.0428  0.8305 -0.2289
 8476SOL    HW234207   6.316   9.831  11.038 -1.8057  0.7893  1.3129
 8477SOL     OW34208   1.508   0.880   5.528  0.1187  0.1700  0.0830
 8477SOL    HW134209   1.484   0.787   5.531  1.2803 -0.1349  1.5286
 8477SOL    HW234210   1.428   0.927   5.552 -0.6928 -0.3904 -1.4382
 8478SOL     OW34211   3.201   6.653  11.244  0.2571  0.0593 -0.4977
 8478SOL    HW134212   3.155   6.577  11.280 -0.5538  0.3532 -0.8713
 8478SOL    HW234213   3.265   6.676  11.311  0.8041 -1.2032 -0.5669
 8479SOL     OW34214   2.572   3.238   7.586  0.0779 -0.5033  0.1146
 8479SOL    HW134215   2.602   3.147   7.589 -0.7815 -0.8832 -1.5793
 8479SOL    HW234216   2.478   3.233   7.601 -0.0680  0.0454 -0.5907
 8480SOL     OW34217   7.779   8.313   4.557  0.3659 -0.4967  0.0547
 8480SOL    HW134218   7.699   8.321   4.506  0.4362  1.7344  0.1866
 8480SOL    HW234219   7.808   8.403   4.571  2.9241 -1.2196 -0.0045
 8481SOL     OW34220  10.324   7.014   8.291  0.0816 -0.6403 -0.6589
 8481SOL    HW134221  10.324   7.096   8.340  1.7236 -0.2312 -1.2693
 8481SOL    HW234222  10.417   6.992   8.281 -0.3129 -2.3497 -0.8866
 8482SOL     OW34223   8.291  11.209   6.432 -0.0737  0.1496 -0.3391
 8482SOL    HW134224   8.332  11.185   6.515  0.6228  1.3228 -0.3167
 8482SOL    HW234225   8.213  11.154   6.426  1.9925 -2.9444 -0.8861
 8483SOL     OW34226   0.450   4.901   7.487  0.9020 -0.0592 -0.2685
 8483SOL    HW134227   0.452   4.995   7.507 -0.7830 -0.2350  0.8712
 8483SOL    HW234228   0.537   4.883   7.451  1.6265  1.7169  0.4727
 8484SOL     OW34229   0.045   7.936   9.807  0.2536  0.2034  0.6439
 8484SOL    HW134230   0.002   7.901   9.885 -0.6595  1.1587  0.5883
 8484SOL    HW234231   0.041   7.865   9.743  0.0701 -0.2169  1.1150
 8485SOL     OW34232   4.182   0.526   7.897 -0.1427 -0.0794  0.0628
 8485SOL    HW134233   4.230   0.446   7.875 -0.0048 -0.6797  2.2639
 8485SOL    HW234234   4.123   0.540   7.823  1.4315 -0.9137 -1.4092
 8486SOL     OW34235   4.644  10.025   8.474  0.1962 -0.3779  0.3007
 8486SOL    HW134236   4.607  10.071   8.399 -0.9139 -1.7894 -0.0769
 8486SOL    HW234237   4.739  10.030   8.461  0.1234  1.5825  0.2031
 8487SOL     OW34238   6.297   5.869   4.125  0.4515  0.2703 -0.3934
 8487SOL    HW134239   6.370   5.931   4.132  1.1639 -0.2194 -2.7593
 8487SOL    HW234240   6.339   5.783   4.122 -0.4129 -0.2128  0.7492
 8488SOL     OW34241   6.999   0.671   5.312  0.1787  0.1822  0.3441
 8488SOL    HW134242   7.093   0.653   5.314 -0.2505 -2.3471  1.2123
 8488SOL    HW234243   6.967   0.637   5.396 -1.7858 -0.7838 -0.7366
 8489SOL     OW34244   0.362   2.083   8.349  0.1160  0.0285  0.0873
 8489SOL    HW134245   0.392   2.126   8.269 -1.0532 -0.2108 -0.4886
 8489SOL    HW234246   0.441   2.077   8.403  0.7321  1.0131 -0.6676
 8490SOL     OW34247   8.282   7.767   4.737 -0.2630 -0.5688  0.0356
 8490SOL    HW134248   8.247   7.690   4.780 -0.9912 -0.3015 -0.0684
 8490SOL    HW234249   8.205   7.821   4.716  0.1067 -0.4796 -1.1724
 8491SOL     OW34250   0.187   9.169   7.788 -0.4598  0.2486  0.6942
 8491SOL    HW134251   0.150   9.143   7.703 -0.7918  1.7452  0.3475
 8491SOL    HW234252   0.231   9.090   7.820  0.1893 -0.2094 -1.1452
 8492SOL     OW34253   6.300   8.207   0.587 -0.0456  0.1236 -0.3035
 8492SOL    HW134254   6.262   8.261   0.655 -1.2832 -0.1172 -0.7828
 8492SOL    HW234255   6.271   8.118   0.607  1.2070 -0.2585 -0.0470
 8493SOL     OW34256   3.305   8.725   3.651 -0.1966 -0.0143  0.1635
 8493SOL    HW134257   3.345   8.647   3.612  0.2016  0.1668  0.1961
 8493SOL    HW234258   3.218   8.698   3.676  0.0720 -0.5546  0.5210
 8494SOL     OW34259   9.095   5.540   0.592  0.8550  0.0824  0.2294
 8494SOL    HW134260   9.031   5.573   0.529  0.6317 -0.8994 -0.0688
 8494SOL    HW234261   9.073   5.447   0.603  0.5130  0.3458  2.1965
 8495SOL     OW34262   6.787   1.901   9.482 -0.2205 -0.2810 -0.4759
 8495SOL    HW134263   6.860   1.906   9.544 -0.4979 -0.3748 -0.1340
 8495SOL    HW234264   6.729   1.834   9.519 -2.2054  2.1155  1.1442
 8496SOL     OW34265   6.270   5.675   4.767 -0.4945 -0.4622  0.1654
 8496SOL    HW134266   6.201   5.735   4.795 -0.8285 -0.3313 -0.8998
 8496SOL    HW234267   6.351   5.714   4.800 -0.6455  0.8966 -0.9828
 8497SOL     OW34268   1.684   6.283   1.086 -0.6578  0.3195  0.1318
 8497SOL    HW134269   1.651   6.296   1.176  1.0256  0.6797  0.7351
 8497SOL    HW234270   1.691   6.371   1.051 -2.4666  0.1302 -0.8496
 8498SOL     OW34271   6.302  12.311  10.400  0.1647 -0.4452  0.1053
 8498SOL    HW134272   6.286  12.244  10.334 -0.3734 -1.0497  0.8305
 8498SOL    HW234273   6.278  12.269  10.483 -1.0367  0.9354  0.4915
 8499SOL     OW34274   0.666   7.303  11.657  0.5742  0.2331  0.0201
 8499SOL    HW134275   0.703   7.289  11.744 -0.8507 -0.9440  0.4815
 8499SOL    HW234276   0.700   7.388  11.630 -0.2278  1.4136  2.4152
 8500SOL     OW34277   5.482   0.591   0.657 -0.0517 -0.0987  0.6699
 8500SOL    HW134278   5.507   0.644   0.582 -1.7233  0.0702  0.1885
 8500SOL    HW234279   5.489   0.500   0.627  0.8260 -0.0938  0.8395
 8501SOL     OW34280   1.118   2.904   9.927 -0.3249 -0.3910  0.3593
 8501SOL    HW134281   1.132   2.955  10.006 -0.4397 -0.5011  0.4508
 8501SOL    HW234282   1.081   2.821   9.958  1.2525 -1.1356  0.3741
 8502SOL     OW34283  11.007   2.791  10.142 -0.3432  0.3660 -0.3139
 8502SOL    HW134284  11.091   2.768  10.182 -1.2739 -0.4694  1.2753
 8502SOL    HW234285  10.968   2.707  10.118 -0.7665  0.7404 -0.9576
 8503SOL     OW34286   7.249   2.731   6.468 -0.2972  0.0530 -0.1108
 8503SOL    HW134287   7.193   2.803   6.497 -0.9359  0.1749 -1.5610
 8503SOL    HW234288   7.212   2.654   6.511  0.5525  0.5843  1.6691
 8504SOL     OW34289   5.217   2.381   3.982 -0.1871 -0.4697  0.0566
 8504SOL    HW134290   5.184   2.294   3.961 -1.4682 -0.2019  0.8575
 8504SOL    HW234291   5.160   2.441   3.932  0.8239 -0.0835 -0.6699
 8505SOL     OW34292   8.289   9.640   3.105  0.2317 -0.1327  0.0245
 8505SOL    HW134293   8.329   9.638   3.192  0.7830 -0.6786 -0.2319
 8505SOL    HW234294   8.230   9.565   3.104 -1.3940  1.0813  0.6545
 8506SOL     OW34295   7.087   5.195   5.090 -0.0376 -0.3548 -0.2053
 8506SOL    HW134296   7.128   5.234   5.167 -0.7203 -1.2219  0.6372
 8506SOL    HW234297   7.109   5.102   5.096  0.5011 -0.3310 -1.4694
 8507SOL     OW34298   0.126  11.049   8.170 -0.3825 -0.1284  0.3989
 8507SOL    HW134299   0.172  10.967   8.188 -1.6107 -0.5587  1.7294
 8507SOL    HW234300   0.054  11.024   8.112  0.3476  0.3597 -0.7617
 8508SOL     OW34301   1.722  10.279  10.222  0.1283 -0.0112  0.1090
 8508SOL    HW134302   1.689  10.196  10.256 -0.1951 -0.2949 -0.8618
 8508SOL    HW234303   1.646  10.337  10.222 -0.6257 -0.8305 -2.6623
 8509SOL     OW34304   0.376   7.145   5.105  0.1485 -0.3645 -0.1906
 8509SOL    HW134305   0.351   7.230   5.141  0.6567  0.3242 -1.3893
 8509SOL    HW234306   0.303   7.087   5.125 -0.3274  0.4297  0.3965
 8510SOL     OW34307   5.957   9.055   9.358  0.0612  0.0918  0.2225
 8510SOL    HW134308   5.924   8.969   9.333 -1.4076  0.5059  0.6184
 8510SOL    HW234309   6.023   9.037   9.426 -0.7317 -0.6975  0.8082
 8511SOL     OW34310   2.480   5.049  10.907 -0.1042  0.1658  0.0428
 8511SOL    HW134311   2.441   5.041  10.995 -1.6339 -0.6262 -0.6639
 8511SOL    HW234312   2.480   4.960  10.873  2.0803  0.1929 -0.1544
 8512SOL     OW34313   3.141   3.338   4.746  0.2163 -0.2081  0.2525
 8512SOL    HW134314   3.124   3.432   4.743  1.5731  0.0274 -0.5213
 8512SOL    HW234315   3.152   3.319   4.839 -0.4480  0.3181  0.4451
 8513SOL     OW34316   0.164   9.751   1.137  1.0187 -0.6863  0.2583
 8513SOL    HW134317   0.168   9.841   1.104 -0.5484 -0.6332  0.1385
 8513SOL    HW234318   0.157   9.760   1.232  0.6873 -0.6745  0.2330
 8514SOL     OW34319   8.289   0.352   1.504  0.0313  0.5915 -0.2358
 8514SOL    HW134320   8.224   0.398   1.557  0.4523 -0.9037  1.6831
 8514SOL    HW234321   8.351   0.420   1.479 -0.3151  1.4063  1.0152
 8515SOL     OW34322  11.367   3.711   4.810 -0.6281  0.3891  0.0411
 8515SOL    HW134323  11.407   3.790   4.845 -0.9750  1.3472 -1.6056
 8515SOL    HW234324  11.371   3.648   4.881  0.7213  1.5200  1.0096
 8516SOL     OW34325   4.680  10.629   5.334 -0.0675 -0.3212  0.0249
 8516SOL    HW134326   4.687  10.684   5.256 -0.3693  0.6110  0.6376
 8516SOL    HW234327   4.602  10.576   5.320 -1.1950  1.1492  0.4721
 8517SOL     OW34328   0.157   8.001   4.142 -0.5506 -0.0016  0.3618
 8517SOL    HW134329   0.184   8.006   4.234 -1.5288  0.2664  0.6404
 8517SOL    HW234330   0.156   8.093   4.113 -0.0043 -0.1040  0.0040
 8518SOL     OW34331  12.309   8.716   7.353 -0.1318 -0.4682 -0.1169
 8518SOL    HW134332  12.272   8.671   7.278 -1.0516  0.1730 -0.0681
 8518SOL    HW234333  12.237   8.770   7.386  0.1432 -0.9920  1.4285
 8519SOL     OW34334   4.104   7.346   1.924 -0.1159 -0.7553 -0.2826
 8519SOL    HW134335   4.115   7.425   1.978  0.3617 -1.9207  1.4200
 8519SOL    HW234336   4.024   7.362   1.874  0.0312  0.8426 -0.0632
 8520SOL     OW34337   9.628   6.859   4.790 -0.8089 -0.2587 -0.1779
 8520SOL    HW134338   9.716   6.826   4.810 -0.5231 -0.4739 -1.6655
 8520SOL    HW234339   9.580   6.782   4.759 -1.5412 -0.1457  0.6447
 8521SOL     OW34340   1.232  10.065   1.898 -0.2130  0.3748  0.2526
 8521SOL    HW134341   1.283   9.985   1.910  0.0796  0.3501 -1.0459
 8521SOL    HW234342   1.215  10.069   1.804  0.1126  2.0442  0.2341
 8522SOL     OW34343   9.087   8.600  10.379  0.0416 -0.3214  0.4077
 8522SOL    HW134344   9.106   8.601  10.285 -0.9314  1.1278  0.1917
 8522SOL    HW234345   9.059   8.511  10.398  0.7666 -0.7654 -0.5670
 8523SOL     OW34346   1.510   0.376   5.826 -0.2565 -0.5791  0.5492
 8523SOL    HW134347   1.422   0.412   5.811  0.4997  1.5624  0.8623
 8523SOL    HW234348   1.548   0.434   5.892  2.6743  0.8551 -2.1158
 8524SOL     OW34349   3.934   7.709   8.544  0.2118 -0.1321  0.1688
 8524SOL    HW134350   4.008   7.697   8.484  2.6484  0.1374  2.9251
 8524SOL    HW234351   3.896   7.621   8.552  1.8951 -0.8591  0.6576
 8525SOL     OW34352  11.421   6.386   0.686  0.4980  0.0654  0.7048
 8525SOL    HW134353  11.382   6.473   0.685 -0.0492  0.0284 -3.9647
 8525SOL    HW234354  11.347   6.326   0.673  1.2967 -0.4882 -2.0122
 8526SOL     OW34355   1.226   4.944  11.989  0.2156  0.4214 -0.5273
 8526SOL    HW134356   1.232   4.892  11.909  0.7372 -2.8294  1.4506
 8526SOL    HW234357   1.207   4.881  12.057 -1.3581  3.1987  1.8343
 8527SOL     OW34358   8.519   5.535  11.759  0.2204  0.2024 -0.6094
 8527SOL    HW134359   8.516   5.612  11.815 -1.0198  0.1350 -0.5481
 8527SOL    HW234360   8.548   5.568  11.674 -0.2937  0.7458 -0.5825
 8528SOL     OW34361   8.284   5.086   7.442  0.3973 -0.7037 -0.2931
 8528SOL    HW134362   8.338   5.165   7.439  0.3496 -0.6962 -2.0337
 8528SOL    HW234363   8.345   5.017   7.470  0.2257  0.0444  2.1905
 8529SOL     OW34364   0.755   7.000   4.407 -0.4731  0.5192  0.3852
 8529SOL    HW134365   0.768   6.965   4.318  0.3433  0.6058  0.4726
 8529SOL    HW234366   0.663   6.979   4.426 -0.7397  0.7299 -0.5774
 8530SOL     OW34367   9.330  12.350   4.556  0.3737  0.2166  0.0871
 8530SOL    HW134368   9.426  12.350   4.551  0.4627  1.3379  1.2582
 8530SOL    HW234369   9.311  12.288   4.627  0.2694  0.5233  0.3266
 8531SOL     OW34370   7.547   3.678   5.543 -0.0150 -0.1308 -0.4098
 8531SOL    HW134371   7.556   3.716   5.631  1.8936 -1.0327 -0.1637
 8531SOL    HW234372   7.551   3.753   5.484 -2.2762  0.5910  0.2617
 8532SOL     OW34373  10.479  10.890   4.614  0.0087  0.2113 -0.1052
 8532SOL    HW134374  10.494  10.818   4.675  0.3145 -0.3543 -0.8384
 8532SOL    HW234375  10.513  10.859   4.530  1.3686  1.6982 -0.1641
 8533SOL     OW34376   7.237   5.196   5.314  0.3586  0.0784  0.2870
 8533SOL    HW134377   7.265   5.282   5.344 -0.3437 -0.0709  1.4284
 8533SOL    HW234378   7.224   5.146   5.395 -0.9244 -0.5615 -0.2906
 8534SOL     OW34379   6.163   7.191   8.691 -0.4396 -0.6560  0.0240
 8534SOL    HW134380   6.203   7.269   8.731 -0.0141 -0.1989 -1.2456
 8534SOL    HW234381   6.072   7.214   8.679 -0.0440  0.1755 -1.5643
 8535SOL     OW34382   8.057   7.546   6.960 -0.7343 -0.2598 -0.2284
 8535SOL    HW134383   8.027   7.553   6.869  0.7476  0.4621 -0.6936
 8535SOL    HW234384   8.051   7.635   6.995  1.3872  0.0797 -0.5624
 8536SOL     OW34385   6.049   8.651   8.409 -0.5193  0.6106  0.3089
 8536SOL    HW134386   6.082   8.566   8.381 -0.5331  0.7650 -0.1823
 8536SOL    HW234387   5.963   8.633   8.446  0.1102  0.1964  1.6346
 8537SOL     OW34388  12.417   6.527  10.954 -0.3562 -0.3215 -0.0267
 8537SOL    HW134389  12.369   6.527  11.036  0.0199  0.2694  0.2041
 8537SOL    HW234390  12.406   6.616  10.920  3.2619  0.9770  1.6660
 8538SOL     OW34391   2.119   6.486  12.246 -1.0165  0.2910  0.3489
 8538SOL    HW134392   2.082   6.406  12.285 -0.7219 -0.1184 -0.2031
 8538SOL    HW234393   2.149   6.537  12.321 -0.7965 -0.3205  0.6869
 8539SOL     OW34394   8.105   5.462   7.503  0.0573  0.1401  0.0592
 8539SOL    HW134395   8.162   5.392   7.472 -0.4780 -0.0973 -0.4021
 8539SOL    HW234396   8.083   5.512   7.424 -0.9707 -0.2154  0.1102
 8540SOL     OW34397   7.855  12.011   1.120  0.1329 -1.1663 -0.1909
 8540SOL    HW134398   7.775  12.040   1.163 -0.8442 -0.9507 -2.0496
 8540SOL    HW234399   7.851  11.915   1.122 -0.1705 -1.1559 -0.2525
 8541SOL     OW34400   8.823   7.153   9.633 -0.0300 -0.3812 -0.0276
 8541SOL    HW134401   8.792   7.085   9.572  2.4385 -1.8495  0.2240
 8541SOL    HW234402   8.798   7.120   9.719 -1.5110  0.5961 -0.0359
 8542SOL     OW34403   1.925   1.020   2.858 -0.1335  0.3222  0.2294
 8542SOL    HW134404   1.967   0.963   2.793  0.7376 -1.0647  1.9436
 8542SOL    HW234405   1.867   0.962   2.907 -0.4253  1.2365  0.9899
 8543SOL     OW34406   8.291   4.431   7.687 -0.2440 -0.0565 -0.2635
 8543SOL    HW134407   8.372   4.389   7.716  1.3753  3.8865  1.7960
 8543SOL    HW234408   8.225   4.403   7.750  0.4511 -0.4547  0.3000
 8544SOL     OW34409   3.324   8.330   3.655 -0.0239 -0.1119  0.1973
 8544SOL    HW134410   3.282   8.332   3.569 -0.0415 -0.8269  0.1882
 8544SOL    HW234411   3.412   8.365   3.640 -0.3335  0.6534  0.0727
 8545SOL     OW34412   1.129   0.061   0.873 -0.4986 -0.0692  0.5718
 8545SOL    HW134413   1.100   0.121   0.941 -1.1749 -1.7031  1.7799
 8545SOL    HW234414   1.202   0.013   0.913 -1.1805 -1.3462  0.3097
 8546SOL     OW34415   2.121   8.368  11.286 -0.4584  0.0638  0.0246
 8546SOL    HW134416   2.097   8.336  11.373  4.4293 -2.3597  0.8219
 8546SOL    HW234417   2.159   8.454  11.301 -0.0660 -0.1417  0.2093
 8547SOL     OW34418   6.210   7.513   6.791 -0.2955  0.1248 -0.5934
 8547SOL    HW134419   6.125   7.556   6.796 -0.4302 -0.2480  0.9651
 8547SOL    HW234420   6.245   7.539   6.706 -2.2454 -0.2611 -1.5882
 8548SOL     OW34421   3.682   0.116   8.531  0.6664  0.3188 -0.5278
 8548SOL    HW134422   3.726   0.049   8.583  0.7705  2.3962  2.2368
 8548SOL    HW234423   3.596   0.078   8.511  0.8335 -0.7611  0.6867
 8549SOL     OW34424   7.971  11.121   0.569 -0.0142 -0.1452 -1.0118
 8549SOL    HW134425   8.016  11.196   0.607 -0.2416 -0.3392 -0.3485
 8549SOL    HW234426   7.927  11.156   0.492 -2.0975  0.9514  0.5725
 8550SOL     OW34427   8.553   6.502   8.622  0.5410 -0.1433  0.0561
 8550SOL    HW134428   8.623   6.566   8.616  1.3972 -0.9778  0.7505
 8550SOL    HW234429   8.474   6.553   8.638  1.0307  0.7925 -0.4441
 8551SOL     OW34430   6.037   7.235   7.650  0.4998 -0.2804  0.3236
 8551SOL    HW134431   6.092   7.167   7.689 -2.8082 -0.9707  4.5069
 8551SOL    HW234432   5.948   7.211   7.675 -1.1772  3.9193 -0.7767
 8552SOL     OW34433   5.158   7.390   8.898  0.4142  0.9406 -1.2214
 8552SOL    HW134434   5.140   7.310   8.849  0.7074 -1.0230  1.6414
 8552SOL    HW234435   5.252   7.404   8.886  0.5688  0.2264 -0.9331
 8553SOL     OW34436   0.096  11.892   8.956  0.3715 -0.4964  0.1227
 8553SOL    HW134437   0.109  11.801   8.928  1.0717 -0.7878  1.3412
 8553SOL    HW234438   0.169  11.910   9.015  1.6820  1.6946 -1.9845
 8554SOL     OW34439   9.628   3.717   7.902 -0.0597  0.0487 -0.0160
 8554SOL    HW134440   9.552   3.723   7.843  0.3314 -3.5952 -1.1466
 8554SOL    HW234441   9.696   3.768   7.859 -0.6539 -0.1158 -1.2001
 8555SOL     OW34442  10.335   3.489   6.807 -0.2102  0.1616  0.3007
 8555SOL    HW134443  10.411   3.432   6.818 -1.8222 -1.9722  1.2106
 8555SOL    HW234444  10.289   3.453   6.731 -1.9112 -0.6226  1.6355
 8556SOL     OW34445  11.865   5.594   6.551 -0.1956 -0.7141 -0.2344
 8556SOL    HW134446  11.839   5.510   6.589  0.7535 -0.5667  0.7583
 8556SOL    HW234447  11.929   5.571   6.484 -1.9058 -0.9777 -1.8576
 8557SOL     OW34448   3.862   3.610  12.410  0.4261  0.0196 -0.1888
 8557SOL    HW134449   3.804   3.541  12.443  2.2168 -1.1532  0.7031
 8557SOL    HW234450   3.917   3.565  12.345 -0.3554  1.3614 -1.8421
 8558SOL     OW34451   8.108   3.809   4.258 -0.0455 -0.6727 -0.7199
 8558SOL    HW134452   8.157   3.877   4.305 -1.7072 -1.1539  1.9444
 8558SOL    HW234453   8.150   3.727   4.283 -1.0191 -0.9437  0.1175
 8559SOL     OW34454   6.541   0.611   1.272 -0.2406  0.0161  0.0149
 8559SOL    HW134455   6.605   0.675   1.305  0.7137 -1.8228  1.9346
 8559SOL    HW234456   6.595   0.541   1.234 -1.0164 -1.7396  1.9880
 8560SOL     OW34457   2.599   6.388  10.004  0.8465  0.2874  0.0660
 8560SOL    HW134458   2.635   6.379   9.916  2.9910 -0.2103  0.9202
 8560SOL    HW234459   2.524   6.447   9.994  0.3917 -0.5860 -2.2205
 8561SOL     OW34460   3.648   9.119   0.407  0.3862  0.1283  0.2813
 8561SOL    HW134461   3.624   9.051   0.470  2.0182 -1.4060 -0.6438
 8561SOL    HW234462   3.737   9.145   0.433  0.5502  0.4533 -0.5747
 8562SOL     OW34463   7.715   6.988  10.642 -0.2539 -0.1226  0.0998
 8562SOL    HW134464   7.718   6.897  10.671 -2.0301 -0.1597  0.2694
 8562SOL    HW234465   7.651   6.989  10.571 -0.9655  1.1335  0.7128
 8563SOL     OW34466   2.994   7.708   7.680  0.1364  0.2273 -0.2842
 8563SOL    HW134467   3.063   7.756   7.726 -1.3308  1.6538  0.5420
 8563SOL    HW234468   2.918   7.714   7.738 -0.8035 -0.9730 -1.3260
 8564SOL     OW34469   5.146   8.679   7.750  0.2804 -0.1461 -0.0626
 8564SOL    HW134470   5.167   8.604   7.805 -1.0375 -0.0341  0.6504
 8564SOL    HW234471   5.205   8.672   7.675 -0.2124 -2.2373 -0.3283
 8565SOL     OW34472   9.691   3.989  11.082 -0.3363  0.4086  0.1417
 8565SOL    HW134473   9.761   3.924  11.079  0.9370  1.7614 -0.2099
 8565SOL    HW234474   9.660   3.985  11.173 -1.2631 -1.6338 -0.1939
 8566SOL     OW34475  11.756   9.207   5.277 -0.1280  0.4772 -0.2185
 8566SOL    HW134476  11.843   9.206   5.317  0.1657  0.5178 -0.8340
 8566SOL    HW234477  11.758   9.136   5.213 -0.4607  0.6304 -0.4055
 8567SOL     OW34478  10.835   4.332  10.835  0.4056 -0.2181  0.3280
 8567SOL    HW134479  10.895   4.278  10.887 -1.5084 -1.4328  1.3931
 8567SOL    HW234480  10.786   4.382  10.901 -0.2529  0.1949 -0.4597
 8568SOL     OW34481   5.327   0.082   1.016  0.0734  0.4318  0.3977
 8568SOL    HW134482   5.422   0.085   1.006  0.3757 -0.5344  2.3703
 8568SOL    HW234483   5.293   0.095   0.928  2.0293  0.7997 -0.3575
 8569SOL     OW34484   2.247   3.948   9.494 -0.2073 -0.0372 -0.4920
 8569SOL    HW134485   2.228   3.975   9.404 -0.3577 -0.7814 -0.6923
 8569SOL    HW234486   2.175   3.889   9.516 -1.1131  1.4496  0.7284
 8570SOL     OW34487   3.281  12.237   6.482 -0.0160  0.2480 -0.0101
 8570SOL    HW134488   3.352  12.194   6.435 -0.9865 -0.4519 -0.8725
 8570SOL    HW234489   3.324  12.275   6.559  0.9210 -2.2828  0.8314
 8571SOL     OW34490   1.186   5.603   1.403 -0.4933  0.0977 -0.1617
 8571SOL    HW134491   1.100   5.561   1.415 -0.6098  0.6044  0.8702
 8571SOL    HW234492   1.225   5.556   1.329 -1.2154 -0.8601  0.0415
 8572SOL     OW34493  11.844  10.494   9.163 -0.4283  0.1177  1.1769
 8572SOL    HW134494  11.811  10.432   9.098 -0.7099  0.5461  0.9096
 8572SOL    HW234495  11.912  10.445   9.210  2.4163  0.8583 -1.7800
 8573SOL     OW34496   1.335  10.792   9.651 -0.6637  0.3763  0.4216
 8573SOL    HW134497   1.325  10.888   9.653  0.0130  0.4580  2.4474
 8573SOL    HW234498   1.377  10.774   9.567  0.6954  2.0384  0.6872
 8574SOL     OW34499   7.160   4.330   1.181 -0.2738 -0.5779 -0.2011
 8574SOL    HW134500   7.148   4.263   1.248 -1.3212 -1.8780 -1.6282
 8574SOL    HW234501   7.240   4.305   1.135  1.2582  1.1127  1.3884
 8575SOL     OW34502   0.034  11.715  12.228  0.2482 -0.4155 -0.0183
 8575SOL    HW134503   0.041  11.711  12.133  0.1308 -1.0703 -0.0025
 8575SOL    HW234504   0.002  11.629  12.254  1.1405 -0.5531  0.6879
 8576SOL     OW34505   9.407   0.578  11.533 -0.1084 -0.2314 -0.2743
 8576SOL    HW134506   9.422   0.632  11.610  0.0275 -1.3232  0.4798
 8576SOL    HW234507   9.312   0.578  11.521 -0.2035 -0.8128  0.4518
 8577SOL     OW34508   3.506   0.123   6.034 -0.2339 -0.0510 -0.0450
 8577SOL    HW134509   3.577   0.119   6.098 -0.7156  0.0602  0.5047
 8577SOL    HW234510   3.479   0.214   6.034 -1.4958 -0.3856  1.0150
 8578SOL     OW34511   3.589  10.301   2.880  0.1067  0.0382 -0.4284
 8578SOL    HW134512   3.564  10.240   2.950  0.1635  0.4345 -0.0546
 8578SOL    HW234513   3.558  10.386   2.911  0.7793  0.3328 -0.5547
 8579SOL     OW34514   3.549  10.282   6.662 -0.6282 -0.7395 -0.0970
 8579SOL    HW134515   3.467  10.266   6.709 -0.9138 -1.5044 -0.8327
 8579SOL    HW234516   3.534  10.249   6.574  0.7485 -1.7005 -0.0143
 8580SOL     OW34517   9.025   2.971  10.898 -0.4686 -0.1548 -0.2781
 8580SOL    HW134518   8.957   2.928  10.950 -0.7257  3.3870  2.7085
 8580SOL    HW234519   9.106   2.957  10.948 -0.3212  1.4718  0.0017
 8581SOL     OW34520   4.191   8.288   8.637  0.1466  0.2224 -0.3955
 8581SOL    HW134521   4.225   8.374   8.665 -0.9832  0.4077  0.4933
 8581SOL    HW234522   4.251   8.225   8.676  0.4359  0.5902 -0.2325
 8582SOL     OW34523   3.313   0.336   1.558 -0.1358 -0.4572  0.2872
 8582SOL    HW134524   3.371   0.359   1.485 -1.0713 -0.1618 -0.3878
 8582SOL    HW234525   3.368   0.285   1.617  0.9966  0.4045  0.0129
 8583SOL     OW34526  10.452   7.856   9.636  0.2472 -0.5897 -0.3650
 8583SOL    HW134527  10.514   7.802   9.587  0.3011  0.1019 -1.0819
 8583SOL    HW234528  10.476   7.946   9.614  0.6250 -0.2324  1.3711
 8584SOL     OW34529   0.351   4.121   5.832 -0.5374 -0.0619  0.5547
 8584SOL    HW134530   0.334   4.140   5.740 -0.3550 -2.4450 -0.0608
 8584SOL    HW234531   0.438   4.157   5.849 -0.7545  0.7743 -0.0778
 8585SOL     OW34532  12.503   0.050  11.870 -0.3104  0.2476  0.1489
 8585SOL    HW134533  12.584   0.075  11.915  1.1962 -0.4798 -2.0164
 8585SOL    HW234534  12.486   0.121  11.809 -0.4361 -0.3303 -0.5026
 8586SOL     OW34535   6.129  11.413  11.608 -0.1342  0.1639 -0.0309
 8586SOL    HW134536   6.221  11.430  11.623 -0.4388  0.2065  2.0983
 8586SOL    HW234537   6.109  11.337  11.662 -1.4469  0.4481 -0.0692
 8587SOL     OW34538   0.233   7.332   9.493  0.2824 -0.1602 -0.6417
 8587SOL    HW134539   0.268   7.396   9.555  0.0022 -0.3387 -0.2965
 8587SOL    HW234540   0.266   7.248   9.524 -0.9260 -0.4009  0.0445
 8588SOL     OW34541   2.192   5.813   5.838 -0.3858  0.0593 -0.2871
 8588SOL    HW134542   2.261   5.751   5.862  0.0178  0.8927  0.8082
 8588SOL    HW234543   2.114   5.759   5.826 -0.1373 -0.6335  1.0495
 8589SOL     OW34544   8.645   1.792  11.824 -0.2589  0.2571 -0.3578
 8589SOL    HW134545   8.704   1.862  11.797 -0.2877  0.6813  0.6282
 8589SOL    HW234546   8.650   1.727  11.754  0.2356  0.9696 -0.9879
 8590SOL     OW34547  10.814   1.864   4.731 -0.2821  0.2210  0.0044
 8590SOL    HW134548  10.754   1.863   4.806  0.6675  0.7399  0.7840
 8590SOL    HW234549  10.899   1.838   4.767 -0.0719 -0.7897 -1.1439
 8591SOL     OW34550   6.848   0.630   3.443 -0.2188  0.7189 -0.2355
 8591SOL    HW134551   6.825   0.633   3.536  0.9074 -0.0907  0.0865
 8591SOL    HW234552   6.778   0.579   3.403  0.5261 -1.0425  0.5979
 8592SOL     OW34553   2.021   1.845   0.168  0.5154  0.3137 -0.0101
 8592SOL    HW134554   2.083   1.810   0.233 -1.5593  2.2911  3.3102
 8592SOL    HW234555   2.032   1.940   0.172 -0.8493  0.5718 -1.3454
 8593SOL     OW34556   8.945   0.850   0.976 -0.2460 -0.0137  0.3813
 8593SOL    HW134557   9.012   0.918   0.974  1.4583 -1.6035 -0.3526
 8593SOL    HW234558   8.967   0.797   1.052  0.4158 -1.4885 -0.7624
 8594SOL     OW34559   4.455   9.262   7.446 -0.5212  0.0082  0.1631
 8594SOL    HW134560   4.474   9.168   7.446 -0.1060  0.0744 -1.4224
 8594SOL    HW234561   4.536   9.302   7.415 -0.8962  0.8550  0.2716
 8595SOL     OW34562   3.020   1.149   0.757 -0.2780 -0.2444  0.1548
 8595SOL    HW134563   2.926   1.154   0.741 -0.2296 -0.0440 -0.0765
 8595SOL    HW234564   3.055   1.103   0.681 -0.3621 -1.6106  0.9208
 8596SOL     OW34565   0.180   7.115   4.037  0.0628 -0.1584  0.5192
 8596SOL    HW134566   0.166   7.042   3.977 -0.6972  1.5706 -1.5607
 8596SOL    HW234567   0.096   7.162   4.037  0.2179  0.2028  2.5715
 8597SOL     OW34568   1.690   5.325   7.867 -0.2079  0.2774  0.1361
 8597SOL    HW134569   1.704   5.251   7.926  1.2458 -0.2279 -0.7845
 8597SOL    HW234570   1.600   5.354   7.885 -0.4852 -1.1202  1.1599
 8598SOL     OW34571   1.821   5.207  12.372 -0.0257 -0.3710 -0.5211
 8598SOL    HW134572   1.789   5.118  12.389 -3.0424  0.8018  0.7977
 8598SOL    HW234573   1.743   5.255  12.343  1.3420  2.0017 -0.5485
 8599SOL     OW34574   7.647   5.911   3.336  0.3103 -0.9070 -0.1534
 8599SOL    HW134575   7.643   6.007   3.345  2.0690 -0.7775 -0.3292
 8599SOL    HW234576   7.556   5.884   3.324 -0.2107  0.7566 -0.2239
 8600SOL     OW34577   8.375   8.878   3.770 -0.1064 -0.2424 -0.1968
 8600SOL    HW134578   8.314   8.819   3.727 -0.1800 -0.2178 -0.1266
 8600SOL    HW234579   8.376   8.956   3.715 -0.7883  0.0987  0.2481
 8601SOL     OW34580   0.971   5.116  12.210 -0.0678  0.0308  0.3469
 8601SOL    HW134581   0.900   5.053  12.198  0.0030  0.2461 -1.3990
 8601SOL    HW234582   0.928   5.195  12.241 -0.4626 -0.1603  0.2941
 8602SOL     OW34583   1.646   7.666   4.276  0.2212  0.2917  0.2347
 8602SOL    HW134584   1.703   7.672   4.199  1.4208 -0.4543  1.0289
 8602SOL    HW234585   1.670   7.742   4.330  1.4252 -0.6886  1.1568
 8603SOL     OW34586   4.103   9.623  10.268 -0.5525 -0.2319  0.4243
 8603SOL    HW134587   4.121   9.541  10.313 -0.2676 -0.3627  0.0748
 8603SOL    HW234588   4.062   9.596  10.185 -0.6204 -0.0130  0.3858
 8604SOL     OW34589   0.513   6.427   3.666  0.0333  0.1257 -0.2167
 8604SOL    HW134590   0.439   6.387   3.713 -0.1515  0.9269  0.1801
 8604SOL    HW234591   0.590   6.404   3.718  0.0991 -0.8442 -0.7136
 8605SOL     OW34592   5.319   7.781   7.852 -0.9102 -0.3221 -0.6209
 8605SOL    HW134593   5.263   7.790   7.929 -1.8076  2.4745 -1.5131
 8605SOL    HW234594   5.290   7.849   7.792  2.7600  0.6399 -1.5841
 8606SOL     OW34595   2.149   3.868   3.313  0.2402  0.3732 -0.5073
 8606SOL    HW134596   2.229   3.830   3.276  1.0276 -0.2637  1.7181
 8606SOL    HW234597   2.112   3.919   3.241  1.4973 -1.0311 -2.2499
 8607SOL     OW34598   2.145   9.275   1.147 -0.0461  0.0993 -0.2028
 8607SOL    HW134599   2.079   9.227   1.096  0.7009 -0.1111 -0.9860
 8607SOL    HW234600   2.126   9.253   1.238 -0.9979 -0.0311 -0.4236
 8608SOL     OW34601  10.444   3.140  11.071 -0.4950  0.4896 -0.3182
 8608SOL    HW134602  10.481   3.086  11.140 -0.9300  0.8247  0.1880
 8608SOL    HW234603  10.506   3.133  10.999 -0.3590 -0.3752 -0.1259
 8609SOL     OW34604   7.555  10.100   5.281 -0.1171 -0.2538  0.6187
 8609SOL    HW134605   7.532  10.008   5.292  0.9483 -0.5544  0.5006
 8609SOL    HW234606   7.581  10.108   5.190 -0.0202  0.1238  0.6756
 8610SOL     OW34607   1.434   0.923   7.359  0.0085 -0.4035 -0.1887
 8610SOL    HW134608   1.345   0.957   7.369 -0.0507 -0.4447 -0.5458
 8610SOL    HW234609   1.449   0.870   7.437  0.2401  0.7361  0.5598
 8611SOL     OW34610   9.072  12.042  11.871  0.0599 -0.5940  0.4411
 8611SOL    HW134611   9.145  12.065  11.928  2.0249 -3.6437 -0.6213
 8611SOL    HW234612   9.018  11.982  11.924  0.8051 -1.8506 -0.1815
 8612SOL     OW34613  12.025   8.216   9.047 -0.5447 -0.0763 -0.3236
 8612SOL    HW134614  12.034   8.275   9.122  1.1355 -0.6350 -0.0499
 8612SOL    HW234615  11.986   8.136   9.084  1.7003 -0.9476  0.3517
 8613SOL     OW34616   8.329   7.798  11.631  0.3866  0.0997 -0.4872
 8613SOL    HW134617   8.361   7.713  11.660  0.2061 -0.5941 -2.1875
 8613SOL    HW234618   8.276   7.830  11.703  1.5129 -0.6179  0.7128
 8614SOL     OW34619  12.159   1.785   2.990  0.2288 -0.5161  0.6426
 8614SOL    HW134620  12.225   1.853   2.991  0.9997 -1.2320  0.1167
 8614SOL    HW234621  12.097   1.812   2.922 -0.4710  0.5406  1.6564
 8615SOL     OW34622   6.648   5.426   3.965  0.1879 -0.8298 -0.2449
 8615SOL    HW134623   6.722   5.432   4.025  0.4361  0.3174 -0.6402
 8615SOL    HW234624   6.663   5.345   3.916 -0.0506 -1.8175  1.2432
 8616SOL     OW34625   0.031   3.995   2.202  0.0033  0.0551  0.4787
 8616SOL    HW134626  -0.006   4.066   2.254 -0.4240  1.7077 -1.8749
 8616SOL    HW234627   0.125   4.011   2.203  0.0087  0.0114  0.8151
 8617SOL     OW34628   8.540   7.610  10.887  0.6109  0.5064 -1.0429
 8617SOL    HW134629   8.635   7.614  10.874  0.4597  3.0330 -1.7373
 8617SOL    HW234630   8.526   7.655  10.970 -0.0525  0.8412 -1.3358
 8618SOL     OW34631   2.815   0.092   5.746  0.1682  0.0954 -0.0171
 8618SOL    HW134632   2.798   0.131   5.832 -1.5118 -2.3194  0.8713
 8618SOL    HW234633   2.860   0.010   5.765 -0.2649 -0.5014 -1.4080
 8619SOL     OW34634   9.816   1.860   1.701 -0.3778  0.2376  0.1819
 8619SOL    HW134635   9.900   1.906   1.699 -0.4963  0.5141  1.0449
 8619SOL    HW234636   9.836   1.773   1.667 -0.0160  0.7093 -0.8579
 8620SOL     OW34637   5.618  12.083   2.448  0.2584  0.3685  0.2845
 8620SOL    HW134638   5.548  12.058   2.389 -0.6578  0.3493  1.3564
 8620SOL    HW234639   5.679  12.009   2.447  0.1021  0.2429 -0.3798
 8621SOL     OW34640   8.438   6.100   5.381  0.2944 -0.3404 -0.0338
 8621SOL    HW134641   8.427   6.021   5.329 -0.8209 -0.0975 -0.1981
 8621SOL    HW234642   8.356   6.110   5.429 -0.7805  2.2097 -2.1438
 8622SOL     OW34643  11.122   3.039   8.135 -0.4048 -0.7814  0.4878
 8622SOL    HW134644  11.160   3.074   8.055  0.2067 -1.3967  0.5000
 8622SOL    HW234645  11.191   3.048   8.201 -0.8447 -0.4297  0.9079
 8623SOL     OW34646   0.042   9.046   7.553 -0.1677 -0.2032 -0.1096
 8623SOL    HW134647   0.118   8.989   7.548 -0.0422 -0.1754  1.1729
 8623SOL    HW234648   0.045   9.098   7.472  0.3445 -1.2113 -0.7552
 8624SOL     OW34649   7.600   8.989   2.850 -0.3729 -0.3761  0.0034
 8624SOL    HW134650   7.682   9.037   2.854 -0.4940 -0.1293 -0.3508
 8624SOL    HW234651   7.555   9.025   2.773  0.4868 -2.5669 -1.6583
 8625SOL     OW34652   3.575   5.520   0.346 -0.1665  0.3736 -0.4638
 8625SOL    HW134653   3.653   5.567   0.375 -0.6204 -0.1143  1.7044
 8625SOL    HW234654   3.602   5.429   0.340 -0.7141  0.0708  1.1063
 8626SOL     OW34655   7.275   0.887   4.072 -0.5383  0.0932  0.5895
 8626SOL    HW134656   7.249   0.828   4.143 -2.7511 -0.1007 -0.3100
 8626SOL    HW234657   7.267   0.835   3.993  1.1196  0.5557  0.0692
 8627SOL     OW34658   1.613   9.351   1.066  0.0005 -0.1218  0.6217
 8627SOL    HW134659   1.676   9.400   1.014  0.2664  0.2666  1.3008
 8627SOL    HW234660   1.529   9.367   1.022  0.0313  1.1998  1.0072
 8628SOL     OW34661   5.136   4.788   1.725  0.3640 -0.0098 -0.0013
 8628SOL    HW134662   5.054   4.836   1.708  0.2361 -0.1897  0.1077
 8628SOL    HW234663   5.202   4.857   1.735  0.7448  0.1277 -2.5921
 8629SOL     OW34664   3.523   3.847   4.507  0.3237 -0.1603 -0.4478
 8629SOL    HW134665   3.559   3.862   4.594 -0.2889 -2.9742  0.3899
 8629SOL    HW234666   3.599   3.847   4.449  1.4517 -2.8290  0.8304
 8630SOL     OW34667   2.397   2.290   0.491  0.1992 -0.1735  0.3518
 8630SOL    HW134668   2.365   2.365   0.541 -2.2622 -0.5561 -0.4952
 8630SOL    HW234669   2.395   2.319   0.400 -0.9894 -1.2710 -0.0082
 8631SOL     OW34670   0.423  12.092   2.044  0.4276 -0.1145 -0.0859
 8631SOL    HW134671   0.348  12.112   1.987  0.9969  0.5689 -0.6178
 8631SOL    HW234672   0.455  12.008   2.012  0.1733 -0.1830 -0.1640
 8632SOL     OW34673   3.948   4.645  10.348  0.0716 -0.1574 -0.2294
 8632SOL    HW134674   4.021   4.607  10.299  1.1456  0.2961  0.9556
 8632SOL    HW234675   3.908   4.571  10.393  1.2755 -0.1480  0.9439
 8633SOL     OW34676   4.534  11.770   5.883  0.4083 -0.1816 -0.6024
 8633SOL    HW134677   4.492  11.772   5.969  0.1736 -2.7875 -0.5776
 8633SOL    HW234678   4.604  11.835   5.889 -1.4871  1.9179  0.4592
 8634SOL     OW34679   1.123   8.307   2.306  0.2226  0.2527  0.2763
 8634SOL    HW134680   1.215   8.304   2.283  0.0006  0.9803 -0.7861
 8634SOL    HW234681   1.122   8.333   2.398  1.0682  3.4024 -0.4710
 8635SOL     OW34682  10.080  10.260   5.703 -0.6004 -0.1913 -0.1657
 8635SOL    HW134683  10.091  10.355   5.704 -1.2019 -0.1126 -0.5463
 8635SOL    HW234684   9.985  10.247   5.703 -0.6053 -0.8306  2.5215
 8636SOL     OW34685   4.656  10.973   8.957  0.0872  0.0721  0.6319
 8636SOL    HW134686   4.709  11.052   8.951 -2.1174  1.6658  1.1799
 8636SOL    HW234687   4.619  10.963   8.869 -0.9588  0.6673  0.9816
 8637SOL     OW34688  10.550   2.760   6.783  0.1624  0.8672 -0.6610
 8637SOL    HW134689  10.637   2.720   6.785  0.4943  1.6063  0.3123
 8637SOL    HW234690  10.551   2.817   6.706 -0.4328 -1.1646 -2.2849
 8638SOL     OW34691   9.901   7.615   2.375 -0.2904  0.0383  0.1669
 8638SOL    HW134692   9.850   7.546   2.417  0.6834  0.3756  2.0008
 8638SOL    HW234693   9.920   7.677   2.445  0.4246  1.2555 -1.0441
 8639SOL     OW34694   5.057   2.204   3.626  0.2360 -0.3218  0.4253
 8639SOL    HW134695   5.088   2.158   3.548 -1.2097 -0.5195 -0.0590
 8639SOL    HW234696   5.115   2.173   3.696  1.9668  0.3374 -0.6519
 8640SOL     OW34697  11.286   3.271   9.736 -0.3102  0.1198  0.4262
 8640SOL    HW134698  11.266   3.345   9.793 -0.3171  0.4618 -0.0171
 8640SOL    HW234699  11.377   3.249   9.757 -0.4997 -0.1423  0.9967
 8641SOL     OW34700   6.819   7.627   5.819 -0.3124  0.4960  0.6992
 8641SOL    HW134701   6.865   7.544   5.806 -1.0887  0.2223 -0.4376
 8641SOL    HW234702   6.742   7.604   5.871 -0.2376  0.6097  0.8630
 8642SOL     OW34703  12.255   5.168   2.659  0.5271  0.3905 -0.1353
 8642SOL    HW134704  12.343   5.138   2.634  0.2298 -2.2981  1.6493
 8642SOL    HW234705  12.222   5.099   2.716 -2.6031  1.5454 -0.3828
 8643SOL     OW34706   1.483   4.432   5.642 -0.0155  0.0029  0.4860
 8643SOL    HW134707   1.451   4.454   5.554 -0.9176 -0.7353  0.6166
 8643SOL    HW234708   1.541   4.505   5.664  0.9430 -0.2443 -1.0760
 8644SOL     OW34709   1.806   4.410   8.051  0.2939  0.0258  0.6527
 8644SOL    HW134710   1.881   4.351   8.055  0.1331 -0.1498  1.4033
 8644SOL    HW234711   1.780   4.422   8.143 -0.4565  0.2518  0.4243
 8645SOL     OW34712  12.510   3.842   9.829  0.6234 -0.0713 -0.1459
 8645SOL    HW134713  12.549   3.843   9.917  2.5736  0.9364 -0.9405
 8645SOL    HW234714  12.431   3.895   9.838  1.0465  0.4333  0.9220
 8646SOL     OW34715   0.268   0.757  10.238  0.2032  0.1176 -0.2812
 8646SOL    HW134716   0.330   0.784  10.305  0.0575 -0.6056  0.1630
 8646SOL    HW234717   0.311   0.682  10.195  0.7379  1.1811 -1.6840
 8647SOL     OW34718   0.936  10.151  10.163  0.1787  0.5781 -0.2034
 8647SOL    HW134719   0.921  10.186  10.075  0.2717  0.3635 -0.3045
 8647SOL    HW234720   0.873  10.079  10.172 -0.7442  1.4215  0.3944
 8648SOL     OW34721   2.478   6.386   0.801 -0.0915  0.1206 -0.7159
 8648SOL    HW134722   2.396   6.432   0.787 -0.3385 -0.0953 -0.0045
 8648SOL    HW234723   2.495   6.392   0.895  0.2411 -0.6038 -0.7148
 8649SOL     OW34724  11.180   6.446   1.163 -0.8261  0.0933  0.1999
 8649SOL    HW134725  11.253   6.478   1.109 -0.5218  0.4580  0.8099
 8649SOL    HW234726  11.212   6.364   1.200 -1.3614 -0.6030 -0.8482
 8650SOL     OW34727  10.419   7.099   6.010 -0.2795 -0.2291  0.3443
 8650SOL    HW134728  10.347   7.041   5.985 -1.3722  1.3365 -0.2627
 8650SOL    HW234729  10.400   7.181   5.966  2.4465 -0.0555 -0.6626
 8651SOL     OW34730   4.035   8.495   9.836 -0.1397 -0.0629 -0.1748
 8651SOL    HW134731   3.951   8.461   9.865 -0.6018  1.8879  0.8970
 8651SOL    HW234732   4.098   8.460   9.899 -0.6890  1.4288  1.2731
 8652SOL     OW34733  12.115   1.595   8.270  0.4078 -0.9814 -0.7007
 8652SOL    HW134734  12.210   1.581   8.272  0.7024  0.5578 -1.7278
 8652SOL    HW234735  12.098   1.627   8.182 -1.1396 -1.5816 -0.6403
 8653SOL     OW34736   9.111   1.683   8.614  0.3875  0.0725 -0.0607
 8653SOL    HW134737   9.017   1.666   8.605  0.5460  0.0784 -2.3241
 8653SOL    HW234738   9.118   1.737   8.693 -1.3526 -0.9010  0.8280
 8654SOL     OW34739   7.491   1.515  12.331 -0.5228  0.0105 -0.0274
 8654SOL    HW134740   7.535   1.591  12.293 -1.5426  0.5784 -0.0867
 8654SOL    HW234741   7.538   1.440  12.294 -0.8959  0.5612 -1.7085
 8655SOL     OW34742   3.858   6.160   1.464  0.3621  0.1403  0.2131
 8655SOL    HW134743   3.915   6.098   1.420 -0.2741 -0.0599 -0.3467
 8655SOL    HW234744   3.772   6.117   1.467  0.1908  0.5084  0.8727
 8656SOL     OW34745   2.528   7.105   8.264 -0.1258  0.1059  0.0450
 8656SOL    HW134746   2.553   7.145   8.347  1.9290 -0.8840 -0.0464
 8656SOL    HW234747   2.590   7.140   8.200  0.2360 -1.4047 -0.4787
 8657SOL     OW34748   5.610   0.074   4.154 -0.2374  0.1620 -0.0718
 8657SOL    HW134749   5.700   0.100   4.133 -0.0587 -0.1837  0.2536
 8657SOL    HW234750   5.562   0.088   4.072 -0.4040  2.5691  0.3752
 8658SOL     OW34751   3.809   1.588   4.854  0.1722 -0.4487 -0.3465
 8658SOL    HW134752   3.720   1.557   4.842 -0.8432  0.9963  2.5651
 8658SOL    HW234753   3.863   1.526   4.806 -2.3812 -1.1066 -2.6009
 8659SOL     OW34754   6.809   8.482   6.649  0.3385 -0.3383 -0.3256
 8659SOL    HW134755   6.714   8.493   6.650  0.2965  0.0714 -2.4304
 8659SOL    HW234756   6.836   8.496   6.739 -1.3887  1.6143 -0.0253
 8660SOL     OW34757  12.331   6.827   2.541  0.3870 -0.4487 -0.6175
 8660SOL    HW134758  12.314   6.877   2.621 -0.4506 -0.8285 -0.5550
 8660SOL    HW234759  12.424   6.842   2.523  0.2898  0.6342 -0.2640
 8661SOL     OW34760   7.436   7.343  11.824  0.4008  0.3779  0.6208
 8661SOL    HW134761   7.439   7.418  11.883  0.4142  0.9948 -0.1393
 8661SOL    HW234762   7.343   7.333  11.802  0.3254 -0.2102  1.1860
 8662SOL     OW34763   1.914   9.948   3.009 -0.3568  0.2255 -0.2705
 8662SOL    HW134764   1.886  10.014   2.946  0.3959 -0.7386 -1.6789
 8662SOL    HW234765   1.994   9.983   3.047 -0.4946  0.5572 -0.2800
 8663SOL     OW34766   1.418   0.548   8.894 -0.6842  0.1675  0.0078
 8663SOL    HW134767   1.360   0.575   8.965 -0.5630  0.2004  0.0946
 8663SOL    HW234768   1.363   0.497   8.835 -0.3557 -1.4816  1.0753
 8664SOL     OW34769  10.499  11.279   2.449  0.1612  0.0834  0.6749
 8664SOL    HW134770  10.496  11.204   2.390 -2.3629  0.4623  0.2239
 8664SOL    HW234771  10.495  11.241   2.537 -0.6820 -0.3640  0.4561
 8665SOL     OW34772   4.954   6.446   2.521  0.0837 -0.1409  0.1725
 8665SOL    HW134773   4.963   6.435   2.615  0.8903 -0.0589  0.1134
 8665SOL    HW234774   4.914   6.533   2.511 -1.6450 -0.8576  0.4746
 8666SOL     OW34775  10.644   1.071   8.892  0.2325 -0.9247  0.1317
 8666SOL    HW134776  10.719   1.054   8.949  1.0813 -1.3213 -1.0620
 8666SOL    HW234777  10.606   1.153   8.926  0.2604 -1.5209  1.6885
 8667SOL     OW34778   2.089   3.201  12.101  0.5593  0.1032  0.3243
 8667SOL    HW134779   2.077   3.296  12.103 -0.7848 -0.0576  0.8009
 8667SOL    HW234780   2.056   3.175  12.015 -2.0615 -0.2497  1.3457
 8668SOL     OW34781  10.798   4.321   4.007  0.1765  0.4468 -0.1412
 8668SOL    HW134782  10.787   4.278   4.092 -2.8100  0.2948 -0.5067
 8668SOL    HW234783  10.738   4.396   4.010  1.2475  1.4232 -1.5472
 8669SOL     OW34784   4.911   2.803   3.348  0.0160  0.1591 -0.0289
 8669SOL    HW134785   4.869   2.832   3.429 -0.3333 -0.7117  0.1032
 8669SOL    HW234786   4.887   2.870   3.284  0.2753  0.8437  0.5643
 8670SOL     OW34787  10.704   5.311   9.721 -1.3375  0.1979  0.1075
 8670SOL    HW134788  10.739   5.390   9.680  0.0830  2.0178  4.3272
 8670SOL    HW234789  10.780   5.271   9.764 -2.3998 -2.4630 -0.3112
 8671SOL     OW34790   3.828   9.994   1.314 -0.1231  0.0420 -0.0813
 8671SOL    HW134791   3.813  10.008   1.221 -3.1355 -1.9608 -0.0462
 8671SOL    HW234792   3.830   9.899   1.325  2.2614  0.2061  1.6996
 8672SOL     OW34793   0.521  12.028  11.070  0.8527 -0.4069  0.6045
 8672SOL    HW134794   0.487  11.940  11.053 -0.3204  0.0832  0.3175
 8672SOL    HW234795   0.529  12.032  11.166  1.3525 -0.9686  0.5959
 8673SOL     OW34796  12.205  11.171   2.036 -0.1335  0.5066 -0.1206
 8673SOL    HW134797  12.165  11.254   2.062 -1.1510 -0.3929  1.3596
 8673SOL    HW234798  12.292  11.173   2.076  0.2675  1.2999 -1.0044
 8674SOL     OW34799  11.258   1.102   8.240  0.3252  0.3801  0.1075
 8674SOL    HW134800  11.291   1.053   8.165  3.1654  0.8428  0.9346
 8674SOL    HW234801  11.280   1.193   8.222  0.4806  0.5806  1.2037
 8675SOL     OW34802  10.909   1.347  12.285 -0.3891  0.0451 -0.2291
 8675SOL    HW134803  10.977   1.294  12.328  1.1570  1.1464 -1.2019
 8675SOL    HW234804  10.870   1.287  12.221 -0.0909 -0.5144  0.0971
 8676SOL     OW34805  12.306  11.982  10.073 -0.4578  0.0358  0.0726
 8676SOL    HW134806  12.218  11.981  10.110 -0.1764  1.3117  0.8516
 8676SOL    HW234807  12.364  11.974  10.149  0.1124  1.0565 -0.2332
 8677SOL     OW34808   8.975  12.175   1.090  0.3392  0.5896 -0.8543
 8677SOL    HW134809   8.891  12.195   1.131 -0.0020 -0.2936 -1.0956
 8677SOL    HW234810   9.005  12.258   1.052 -0.1192  1.0478 -0.2318
 8678SOL     OW34811   1.853   4.070   3.692  0.8786  0.0549  0.0151
 8678SOL    HW134812   1.809   4.000   3.740  1.5996 -0.1988  0.3232
 8678SOL    HW234813   1.914   4.107   3.755  0.7540  0.7323 -0.2553
 8679SOL     OW34814   2.802   4.740   4.013  0.4450 -0.0695 -0.3004
 8679SOL    HW134815   2.757   4.715   3.932 -0.4355 -2.3548  0.8152
 8679SOL    HW234816   2.862   4.810   3.986  0.8737 -1.3873 -3.1030
 8680SOL     OW34817  11.011   3.341   9.369 -0.0295  0.1520 -0.0835
 8680SOL    HW134818  11.096   3.385   9.361 -0.2908  0.7798  0.5042
 8680SOL    HW234819  10.946   3.410   9.361 -0.4849 -0.2894 -0.2773
 8681SOL     OW34820  12.399   0.582   9.608  0.3626 -0.1135  0.7883
 8681SOL    HW134821  12.351   0.564   9.528  0.7479  0.6818  0.3608
 8681SOL    HW234822  12.391   0.503   9.661  1.8873 -1.4943 -0.9316
 8682SOL     OW34823   1.390   0.405   2.824 -0.1569  0.1765 -0.1075
 8682SOL    HW134824   1.381   0.395   2.919 -0.5097 -0.6702 -0.2240
 8682SOL    HW234825   1.454   0.339   2.799 -0.9506 -0.4196 -0.6150
 8683SOL     OW34826  11.843   8.582   4.065  0.1255  0.0954 -0.0023
 8683SOL    HW134827  11.851   8.615   4.155  0.4610 -1.1752  0.4628
 8683SOL    HW234828  11.843   8.660   4.011 -0.8372  0.9375  1.1482
 8684SOL     OW34829  11.232  10.394  11.111 -1.1790 -0.3355 -0.8253
 8684SOL    HW134830  11.293  10.448  11.061 -2.1554  1.2383 -0.4065
 8684SOL    HW234831  11.246  10.419  11.202 -0.5387 -2.0102 -0.4162
 8685SOL     OW34832   0.477  11.108   3.188  0.0256  0.4987 -0.1154
 8685SOL    HW134833   0.515  11.061   3.113  2.0299 -0.4308  1.4111
 8685SOL    HW234834   0.469  11.042   3.256  0.7275  1.8734  1.3488
 8686SOL     OW34835  10.725   6.279   3.185  0.1136  0.2521 -0.0811
 8686SOL    HW134836  10.746   6.302   3.095 -0.7922 -0.8404 -0.5977
 8686SOL    HW234837  10.778   6.338   3.238  0.5060  1.0483 -1.3250
 8687SOL     OW34838  10.894   2.443  10.581  0.2951 -0.3111 -0.0320
 8687SOL    HW134839  10.855   2.500  10.514 -1.0554 -1.7205 -0.4862
 8687SOL    HW234840  10.967   2.400  10.537 -0.3976 -0.9962 -0.5373
 8688SOL     OW34841   6.369   9.686   6.393 -0.0022 -0.1305  0.7313
 8688SOL    HW134842   6.344   9.777   6.405  0.5161  0.0554  0.4088
 8688SOL    HW234843   6.429   9.686   6.318  1.4432 -0.4876  1.8436
 8689SOL     OW34844   7.132  11.537   1.885 -0.2000  0.5535 -0.1880
 8689SOL    HW134845   7.128  11.512   1.977 -0.2851  0.9091 -0.0931
 8689SOL    HW234846   7.041  11.544   1.858 -0.1750 -0.4324 -0.5454
 8690SOL     OW34847   7.026  10.805   0.570  0.6486  0.6697 -0.0024
 8690SOL    HW134848   7.066  10.752   0.640  1.2822  1.6685  0.4110
 8690SOL    HW234849   6.944  10.836   0.607  0.6776  0.6665  0.0657
 8691SOL     OW34850   7.067   4.400  11.988 -0.3955  0.1545  0.0995
 8691SOL    HW134851   7.039   4.375  11.900  0.9600 -4.0282  0.6164
 8691SOL    HW234852   7.128   4.473  11.974 -2.0734  1.2519 -2.0944
 8692SOL     OW34853   5.215  10.029   0.618  0.3440 -0.1774 -0.3381
 8692SOL    HW134854   5.270  10.045   0.695 -0.4093 -1.6975  0.5682
 8692SOL    HW234855   5.219   9.934   0.605 -1.3912 -0.2309 -0.7323
 8693SOL     OW34856   9.232   6.112  10.529  0.7820 -0.2107  0.0097
 8693SOL    HW134857   9.156   6.074  10.572  0.2894  1.9508  1.1930
 8693SOL    HW234858   9.250   6.053  10.456 -1.7438 -1.0284 -0.0515
 8694SOL     OW34859   4.835   9.915  10.256  0.0935  0.1242  0.2680
 8694SOL    HW134860   4.774   9.920  10.329 -0.7855  1.4494 -0.5147
 8694SOL    HW234861   4.869  10.004  10.247 -1.5122  0.6094 -2.2639
 8695SOL     OW34862  11.625   9.037   0.805 -0.0168 -0.0105 -0.4237
 8695SOL    HW134863  11.581   9.098   0.865 -1.0174 -0.7377 -0.3890
 8695SOL    HW234864  11.554   9.002   0.751  0.6779 -0.4423 -1.0692
 8696SOL     OW34865   6.328   7.459   4.889  0.2950  0.0712 -0.3544
 8696SOL    HW134866   6.286   7.517   4.952  0.9999  0.9446 -0.6750
 8696SOL    HW234867   6.394   7.513   4.846  1.0258 -0.9839 -0.6119
 8697SOL     OW34868   9.891   5.159   3.830 -0.3577 -0.4220 -0.5209
 8697SOL    HW134869   9.911   5.154   3.924 -1.6555 -0.6800 -0.2415
 8697SOL    HW234870   9.966   5.117   3.788 -0.5783 -1.9865  0.5181
 8698SOL     OW34871   5.734   5.685   4.989 -0.6249 -0.4365  0.2990
 8698SOL    HW134872   5.659   5.743   4.976  1.4139  2.0887 -1.3953
 8698SOL    HW234873   5.727   5.619   4.921  0.0135  1.4294 -1.6774
 8699SOL     OW34874   2.490   0.811  11.945  0.0131 -0.4579  0.5928
 8699SOL    HW134875   2.504   0.824  12.039 -1.4070 -0.2415  0.8050
 8699SOL    HW234876   2.484   0.717  11.934  1.2352 -0.5400  0.5366
 8700SOL     OW34877   8.452  12.265   7.170  0.5357 -0.0253 -0.1951
 8700SOL    HW134878   8.457  12.184   7.119 -1.1124 -1.0402  1.1511
 8700SOL    HW234879   8.383  12.316   7.127 -0.0802 -0.3987  0.3292
 8701SOL     OW34880   6.856   5.580   8.943  0.1678 -0.3239 -0.3986
 8701SOL    HW134881   6.778   5.545   8.986 -0.4955  1.0440 -0.4449
 8701SOL    HW234882   6.914   5.605   9.015  0.4051 -0.9777 -0.3587
 8702SOL     OW34883  11.233   2.113   1.401  0.1626  0.4092 -0.2110
 8702SOL    HW134884  11.154   2.061   1.384  0.2004  0.5697 -0.9055
 8702SOL    HW234885  11.252   2.156   1.318  1.3592 -0.1349 -0.2447
 8703SOL     OW34886  10.832  11.340   2.491 -0.6087  0.0115  0.0660
 8703SOL    HW134887  10.859  11.412   2.549  0.7281 -0.1512 -0.3229
 8703SOL    HW234888  10.868  11.261   2.532 -1.5146 -0.3820  0.1432
 8704SOL     OW34889   2.128   6.999  10.273 -0.3124 -0.1950 -0.0073
 8704SOL    HW134890   2.143   6.938  10.346  0.7023 -1.4138 -1.1685
 8704SOL    HW234891   2.215   7.035  10.255 -0.2692 -0.9539 -1.4657
 8705SOL     OW34892   6.143   3.737   1.455  0.0055 -0.9232 -0.4532
 8705SOL    HW134893   6.052   3.746   1.483  0.0155 -1.3290 -0.2824
 8705SOL    HW234894   6.185   3.688   1.526  0.2402 -1.1707 -0.7625
 8706SOL     OW34895   4.103   6.442  10.757  0.1697  0.2386 -0.2650
 8706SOL    HW134896   4.036   6.443  10.826 -0.6583  0.0985 -1.0483
 8706SOL    HW234897   4.168   6.378  10.787 -0.0511  0.3643  0.4993
 8707SOL     OW34898  11.958   9.571   4.062  0.7089 -0.1724 -0.0328
 8707SOL    HW134899  11.957   9.604   4.152 -2.0371 -0.6415  0.1995
 8707SOL    HW234900  11.900   9.630   4.014 -0.1523 -1.5961 -0.8024
 8708SOL     OW34901   1.764   2.759   3.542  0.2272  0.0059 -0.0210
 8708SOL    HW134902   1.827   2.796   3.605  0.2693  1.4108 -0.8581
 8708SOL    HW234903   1.712   2.698   3.594  1.6269 -0.4515  0.9119
 8709SOL     OW34904   5.932   0.850  11.155  0.0502 -0.2713 -0.6753
 8709SOL    HW134905   5.838   0.856  11.173  0.1826 -0.0473 -0.0488
 8709SOL    HW234906   5.972   0.837  11.241  0.5986 -0.2951 -0.9345
 8710SOL     OW34907   8.886  12.595   9.322  0.1014  0.2574 -0.2773
 8710SOL    HW134908   8.878  12.502   9.303 -1.5735  0.7310 -2.3597
 8710SOL    HW234909   8.796  12.625   9.332  0.6237  1.6118  0.6971
 8711SOL     OW34910   5.419   4.544   4.314 -0.0261 -0.1521  0.2511
 8711SOL    HW134911   5.328   4.524   4.337  0.4915 -1.2018  1.5441
 8711SOL    HW234912   5.428   4.512   4.225  0.3283 -4.8739  1.6702
 8712SOL     OW34913   6.900   9.994   0.938  0.6451 -0.9091 -0.0587
 8712SOL    HW134914   6.849  10.042   1.004  0.6940 -2.6108  1.2745
 8712SOL    HW234915   6.991  10.021   0.954  0.4497  0.4341 -0.9938
 8713SOL     OW34916   5.777   2.549   2.699 -0.2113 -0.1320 -0.2909
 8713SOL    HW134917   5.736   2.558   2.785 -1.4949  0.7009 -0.9539
 8713SOL    HW234918   5.822   2.465   2.702 -1.7905 -0.9918  0.5780
 8714SOL     OW34919   9.581   6.159   4.109  0.2425  0.4471 -0.3838
 8714SOL    HW134920   9.676   6.155   4.097  0.4032  1.7715  0.2596
 8714SOL    HW234921   9.566   6.242   4.155 -0.9227 -1.1575  2.3589
 8715SOL     OW34922   7.719   8.043  12.498  0.3612  0.0091  0.4068
 8715SOL    HW134923   7.726   8.078  12.587 -1.2270 -2.2964  1.5367
 8715SOL    HW234924   7.792   7.982  12.490  0.8174  0.6110 -0.0903
 8716SOL     OW34925   0.228   6.529   4.340  0.3194  0.1373 -0.3359
 8716SOL    HW134926   0.310   6.486   4.316  1.2618  1.1291  0.9423
 8716SOL    HW234927   0.193   6.562   4.258  1.6489  0.4296 -0.8101
 8717SOL     OW34928   0.923   6.723   7.088 -0.1492 -0.2571 -0.4512
 8717SOL    HW134929   0.926   6.688   6.999 -0.0175 -0.2381 -0.4541
 8717SOL    HW234930   0.977   6.802   7.085  2.1121 -1.6847  0.2809
 8718SOL     OW34931   3.455  11.010  10.386 -0.5051 -0.0796 -0.4488
 8718SOL    HW134932   3.512  10.936  10.367  0.4540  0.6153 -0.3851
 8718SOL    HW234933   3.372  10.971  10.410  0.1612 -1.1643  0.1798
 8719SOL     OW34934   9.780   9.952  12.590  0.3567 -0.3340 -0.6517
 8719SOL    HW134935   9.799   9.904  12.671  2.2287  0.4809 -0.5439
 8719SOL    HW234936   9.735  10.031  12.619  0.3326 -0.4083 -0.4835
 8720SOL     OW34937   1.779   0.481   6.786 -0.1133  0.1267  0.1643
 8720SOL    HW134938   1.764   0.512   6.875  1.5966 -0.6512  0.7657
 8720SOL    HW234939   1.691   0.457   6.754 -0.9438  1.7900  1.0609
 8721SOL     OW34940  12.331   1.586   7.988 -0.4046  0.2680  0.4135
 8721SOL    HW134941  12.333   1.623   7.900 -1.5295  0.4305  0.4448
 8721SOL    HW234942  12.289   1.500   7.977 -0.0541  0.0537  0.7134
 8722SOL     OW34943   4.408   7.225   9.742  0.3808  0.1115 -0.2782
 8722SOL    HW134944   4.457   7.290   9.692 -0.8337  2.3439  1.2514
 8722SOL    HW234945   4.438   7.141   9.708  0.1604  1.4021 -4.2315
 8723SOL     OW34946   6.612   5.594  11.017  0.3893  0.1004  0.3522
 8723SOL    HW134947   6.522   5.580  10.988  0.5560  1.2417 -0.8212
 8723SOL    HW234948   6.638   5.676  10.975  1.8818 -0.0616  0.9033
 8724SOL     OW34949  11.624   4.069   4.405  0.0263 -0.0296 -0.6123
 8724SOL    HW134950  11.592   4.119   4.330 -1.3708 -0.7838 -0.5494
 8724SOL    HW234951  11.621   4.132   4.478  2.1601  0.9478 -1.2804
 8725SOL     OW34952   6.959   5.029  12.111 -0.4066  0.2341 -0.3423
 8725SOL    HW134953   7.004   5.101  12.155  0.2034  0.4509 -1.3069
 8725SOL    HW234954   6.867   5.037  12.139  0.2824 -0.9695  2.6829
 8726SOL     OW34955   0.522   4.645  11.083  0.0711 -0.1771 -0.7293
 8726SOL    HW134956   0.609   4.625  11.118 -0.2329 -0.1024  0.0868
 8726SOL    HW234957   0.494   4.563  11.042  0.5775 -0.1646 -1.1041
 8727SOL     OW34958   2.094   0.032   4.749 -0.3790  0.7089 -0.2970
 8727SOL    HW134959   2.105  -0.005   4.837 -0.7214  2.2186  0.4046
 8727SOL    HW234960   2.143   0.114   4.750 -1.7009  1.5463 -0.9838
 8728SOL     OW34961  10.854  10.905   1.891  0.6533  0.5611 -0.0531
 8728SOL    HW134962  10.832  10.970   1.824  0.9622  0.4375 -0.2790
 8728SOL    HW234963  10.924  10.853   1.851  1.0509  0.6798  0.4839
 8729SOL     OW34964   9.963   1.069   3.927 -0.3963  0.0571 -0.4090
 8729SOL    HW134965   9.962   0.974   3.932  0.0244 -0.0896 -2.2258
 8729SOL    HW234966  10.038   1.096   3.979 -0.2040 -0.6391 -0.3209
 8730SOL     OW34967   3.502   6.282  11.800  0.8872  0.2868  0.2882
 8730SOL    HW134968   3.531   6.191  11.802  1.0526  0.3526  1.5601
 8730SOL    HW234969   3.570   6.330  11.848  0.4319  0.9726  0.2609
 8731SOL     OW34970  10.067   5.220   1.797  0.0759  1.0434 -0.3132
 8731SOL    HW134971  10.107   5.157   1.858  0.5063 -0.7570 -2.3102
 8731SOL    HW234972  10.142   5.260   1.753 -0.2215  0.5496 -1.3028
 8732SOL     OW34973   9.143   6.329  10.374  0.0789 -0.1251  0.1659
 8732SOL    HW134974   9.209   6.344  10.307 -0.8542  0.9954 -0.5341
 8732SOL    HW234975   9.180   6.260  10.429  1.2919 -0.3664 -0.9102
 8733SOL     OW34976   0.619   3.879   7.954  0.2948 -0.0703  0.1599
 8733SOL    HW134977   0.532   3.870   7.993  0.5488 -2.0380  0.3862
 8733SOL    HW234978   0.602   3.911   7.865 -0.8972 -2.3778 -0.5331
 8734SOL     OW34979   3.941   9.720   5.668  0.5424 -0.2542  0.6797
 8734SOL    HW134980   3.957   9.814   5.676  1.3894 -0.4059  0.8532
 8734SOL    HW234981   3.898   9.711   5.583  1.1411  0.2199  0.3090
 8735SOL     OW34982  10.038   9.784  11.134  0.6010  0.0474  0.2201
 8735SOL    HW134983  10.041   9.857  11.073 -1.3183 -0.2390 -0.2778
 8735SOL    HW234984  10.035   9.706  11.077 -1.2976 -0.2184  0.6371
 8736SOL     OW34985   9.594   3.510   5.637  0.1093 -0.2257 -0.0299
 8736SOL    HW134986   9.509   3.474   5.610 -0.3387  1.1291 -0.5295
 8736SOL    HW234987   9.647   3.433   5.658 -0.5506 -1.2233 -1.7849
 8737SOL     OW34988   9.987   4.876   1.314  0.8044  0.4902  0.0506
 8737SOL    HW134989  10.050   4.827   1.367 -0.5990 -0.4317  0.9669
 8737SOL    HW234990   9.989   4.834   1.228  0.1814 -0.7428  0.6029
 8738SOL     OW34991   4.355  11.822   9.023 -0.2479  0.2316 -0.2625
 8738SOL    HW134992   4.375  11.889   8.959 -1.6048  1.0712  0.1584
 8738SOL    HW234993   4.369  11.739   8.977  1.0363  0.7843 -0.9063
 8739SOL     OW34994   8.561   8.341   4.465  0.1103 -0.2321 -0.6710
 8739SOL    HW134995   8.592   8.425   4.502  0.8092  0.3917 -2.5840
 8739SOL    HW234996   8.635   8.309   4.413 -0.0201 -2.2576  0.3054
 8740SOL     OW34997   8.211  11.938   9.031 -0.0077 -0.1802  0.1721
 8740SOL    HW134998   8.200  11.852   9.072 -0.7284  0.2459  0.9061
 8740SOL    HW234999   8.178  12.000   9.096 -0.2275  0.5912 -0.6546
 8741SOL     OW35000   8.958   5.803   1.771 -0.5319 -0.9116  0.8670
 8741SOL    HW135001   8.919   5.776   1.688 -1.3298 -1.4969  1.4155
 8741SOL    HW235002   8.896   5.772   1.838  0.4943 -1.1789  1.7176
 8742SOL     OW35003   7.300   9.404   9.901 -0.3398  0.2424  0.3063
 8742SOL    HW135004   7.387   9.445   9.892 -0.1006 -0.1729  0.6850
 8742SOL    HW235005   7.316   9.327   9.955 -0.3848 -1.6301 -2.1627
 8743SOL     OW35006   7.456   5.395   4.929  0.2660 -0.3429  0.0373
 8743SOL    HW135007   7.418   5.456   4.866 -1.1559 -0.8232  0.3822
 8743SOL    HW235008   7.500   5.451   4.993  0.2611  0.2317 -0.4555
 8744SOL     OW35009   8.655   2.608  11.285 -0.0618 -0.3893 -0.0757
 8744SOL    HW135010   8.615   2.546  11.224 -0.3963  0.2797 -0.5615
 8744SOL    HW235011   8.597   2.609  11.361 -1.0874  0.6562 -0.8198
 8745SOL     OW35012   7.375   3.145   9.241 -0.0621  0.1963 -0.1656
 8745SOL    HW135013   7.298   3.196   9.270  0.8751  1.2419  0.5751
 8745SOL    HW235014   7.368   3.063   9.290 -0.1868  0.6852  0.6638
 8746SOL     OW35015   4.113   1.756   1.425  0.0306 -0.8117 -0.5656
 8746SOL    HW135016   4.138   1.749   1.333  2.8357  0.4571 -0.0177
 8746SOL    HW235017   4.022   1.727   1.428  0.4573 -2.8812 -3.3988
 8747SOL     OW35018  10.235  11.843  10.812  0.2855 -0.6285 -0.6282
 8747SOL    HW135019  10.277  11.799  10.737  0.1300  0.0560 -1.1267
 8747SOL    HW235020  10.145  11.859  10.784  0.5624  0.7860 -0.8160
 8748SOL     OW35021  10.026   5.527   1.935 -0.1062  0.4280  0.5171
 8748SOL    HW135022  10.080   5.496   1.862  2.0510  0.5681  1.9560
 8748SOL    HW235023   9.995   5.613   1.907 -0.0870  0.0950 -0.5743
 8749SOL     OW35024  10.571   7.095   4.562 -0.6317 -0.5652 -0.2391
 8749SOL    HW135025  10.516   7.027   4.602 -2.6444 -0.2988 -2.3207
 8749SOL    HW235026  10.545   7.175   4.606  2.1241 -1.0368  2.5979
 8750SOL     OW35027   0.952   0.201  10.540  0.4133 -0.4772  0.0894
 8750SOL    HW135028   0.976   0.293  10.551  1.9644 -0.7819 -0.4662
 8750SOL    HW235029   0.941   0.168  10.629 -2.7415  0.8025  0.3215
 8751SOL     OW35030   4.177   3.529   4.333  0.9423 -0.6040 -0.1147
 8751SOL    HW135031   4.266   3.548   4.306  1.4235 -1.8159  0.5298
 8751SOL    HW235032   4.172   3.559   4.424  0.2268  0.7922 -0.5886
 8752SOL     OW35033   4.785   1.276  11.810 -0.4121  0.8212  0.9442
 8752SOL    HW135034   4.871   1.239  11.791  0.0507  0.6635  3.0807
 8752SOL    HW235035   4.733   1.202  11.840 -0.6257  1.2614  1.6897
 8753SOL     OW35036   9.688   3.445   2.845 -0.1646  0.3464 -0.1001
 8753SOL    HW135037   9.607   3.495   2.849  0.0455  0.6219  2.3935
 8753SOL    HW235038   9.671   3.367   2.897  0.2473 -1.1478 -2.0668
 8754SOL     OW35039   3.010  11.493  11.372 -0.6641  0.6224 -0.5691
 8754SOL    HW135040   3.002  11.402  11.401  2.4558 -0.0916 -1.5782
 8754SOL    HW235041   2.955  11.498  11.294 -0.1239 -0.6883 -1.0652
 8755SOL     OW35042   8.431   1.022   7.150  0.1649 -0.3033  0.2827
 8755SOL    HW135043   8.418   1.115   7.135 -0.4153 -0.3581  0.4238
 8755SOL    HW235044   8.521   1.015   7.183 -0.6036  0.5093  2.7594
 8756SOL     OW35045  12.035   2.721  11.349  0.1045  0.5444 -0.0560
 8756SOL    HW135046  12.122   2.688  11.326  0.3830  1.8008 -0.8967
 8756SOL    HW235047  12.052   2.787  11.416 -0.3816 -0.4430  1.0764
 8757SOL     OW35048  11.307   8.515   3.474  0.8370 -0.2159  0.0498
 8757SOL    HW135049  11.285   8.433   3.431  1.1463 -0.3196  0.0874
 8757SOL    HW235050  11.392   8.499   3.515  0.8791  0.1090  0.0933
 8758SOL     OW35051   4.362  11.076   9.266  0.0620  0.1845 -0.5400
 8758SOL    HW135052   4.330  11.123   9.189  0.0572  0.0549 -0.6167
 8758SOL    HW235053   4.417  11.140   9.312  0.8083 -0.0094 -1.1306
 8759SOL     OW35054   7.025   1.758   4.169 -0.0656  0.5681 -0.1733
 8759SOL    HW135055   7.080   1.798   4.237  3.4524 -1.2658 -1.6945
 8759SOL    HW235056   6.999   1.674   4.206  0.0390  0.4800 -0.3013
 8760SOL     OW35057   2.762   2.746  10.835  0.1941  0.2743 -0.2664
 8760SOL    HW135058   2.750   2.839  10.852  0.3258  0.4936 -1.2970
 8760SOL    HW235059   2.849   2.726  10.870 -0.0686  0.3877  0.4848
 8761SOL     OW35060  10.882  11.528   4.243 -0.9022 -0.3318  0.9865
 8761SOL    HW135061  10.861  11.439   4.272 -2.2211 -1.4073 -2.7273
 8761SOL    HW235062  10.977  11.529   4.235 -0.5871 -0.3567  3.7882
 8762SOL     OW35063  11.938   1.231   2.423  0.3891  0.2236  0.0750
 8762SOL    HW135064  11.874   1.168   2.455  1.2557 -0.8741 -0.3108
 8762SOL    HW235065  11.980   1.265   2.502  1.0282 -0.8819  0.2277
 8763SOL     OW35066  10.754  10.026  12.304 -0.2094  0.2521  0.6987
 8763SOL    HW135067  10.702   9.977  12.240  1.6525 -0.0858 -0.6581
 8763SOL    HW235068  10.763  10.113  12.264  0.7388  0.1236  0.6141
 8764SOL     OW35069   6.416  12.461  10.215 -0.0572 -0.2133 -0.2540
 8764SOL    HW135070   6.402  12.404  10.291  1.7864 -0.4970 -0.0804
 8764SOL    HW235071   6.438  12.401  10.144 -1.0061  0.1087 -0.8404
 8765SOL     OW35072   5.807   2.693   9.004 -0.0018 -0.3654  0.1492
 8765SOL    HW135073   5.717   2.725   8.995  0.1192  0.0143  0.2783
 8765SOL    HW235074   5.809   2.612   8.952 -0.4597 -0.4614  0.2760
 8766SOL     OW35075   0.480   7.837   1.748 -0.7052  0.1462  0.1862
 8766SOL    HW135076   0.416   7.834   1.820 -1.0483  2.4548  0.0515
 8766SOL    HW235077   0.468   7.923   1.709  0.6581 -0.4144 -1.5911
 8767SOL     OW35078   6.647   7.634   1.922  0.2562  0.2733  0.0769
 8767SOL    HW135079   6.593   7.685   1.983  0.0299 -1.1287  1.1216
 8767SOL    HW235080   6.631   7.543   1.948  2.1516 -0.2403 -0.4214
 8768SOL     OW35081   3.338   1.124   6.629  0.5168  0.7504  0.0969
 8768SOL    HW135082   3.415   1.084   6.670  0.3593  0.2863 -0.0570
 8768SOL    HW235083   3.359   1.217   6.626  1.1050  0.6187 -0.0046
 8769SOL     OW35084   2.892   1.476  10.185 -0.1118 -0.3312 -0.5400
 8769SOL    HW135085   2.802   1.509  10.186  0.4513  1.3170 -1.0130
 8769SOL    HW235086   2.904   1.436  10.271 -0.7278  1.0683  0.2292
 8770SOL     OW35087   4.905   3.094   4.841  0.5896  0.1009  0.0982
 8770SOL    HW135088   4.977   3.051   4.887 -0.5927  0.0927  2.0763
 8770SOL    HW235089   4.925   3.187   4.845  1.6702 -0.0306 -1.5415
 8771SOL     OW35090   6.993   0.386   5.456  0.1077 -0.8429  0.0542
 8771SOL    HW135091   7.028   0.454   5.513 -1.1275  0.3268 -0.5009
 8771SOL    HW235092   6.971   0.314   5.514  2.4501 -1.2265  0.5206
 8772SOL     OW35093   0.596   0.667   1.935 -0.6480  0.3105  0.5341
 8772SOL    HW135094   0.508   0.671   1.973 -1.1083 -2.4619 -0.0683
 8772SOL    HW235095   0.652   0.638   2.007 -0.7421 -0.6116  0.2489
 8773SOL     OW35096  10.737   5.132   7.397 -0.2066 -0.6582  0.1401
 8773SOL    HW135097  10.702   5.094   7.317 -1.5862 -0.9367  0.8480
 8773SOL    HW235098  10.717   5.068   7.465  1.2435 -0.5804  0.6691
 8774SOL     OW35099  11.710   0.505   8.274  0.1011 -0.5043 -0.0180
 8774SOL    HW135100  11.670   0.561   8.340 -0.4549 -0.1742 -0.6300
 8774SOL    HW235101  11.665   0.421   8.284  1.2034 -1.0027  1.1651
 8775SOL     OW35102   0.581  11.530   4.899 -0.4444 -0.0535 -0.5568
 8775SOL    HW135103   0.541  11.472   4.963  1.3071  1.4668  2.0784
 8775SOL    HW235104   0.537  11.614   4.910 -0.8944 -0.0333 -2.2072
 8776SOL     OW35105  11.426   8.742   4.837  0.5485  0.7678  0.3272
 8776SOL    HW135106  11.507   8.792   4.844 -0.5573  2.3816  3.8252
 8776SOL    HW235107  11.365   8.801   4.792  0.9348 -0.0822 -1.4303
 8777SOL     OW35108   7.096   0.714   9.455  0.2678 -0.2052 -0.1861
 8777SOL    HW135109   7.016   0.738   9.502 -0.5588  2.2003 -2.5854
 8777SOL    HW235110   7.167   0.751   9.508 -0.4400  0.3058  0.4270
 8778SOL     OW35111   5.832  11.690   2.160  0.1877  0.3182 -1.0363
 8778SOL    HW135112   5.771  11.628   2.119 -0.3100  0.2809 -0.2777
 8778SOL    HW235113   5.865  11.643   2.237  0.2494  0.7858 -0.7751
 8779SOL     OW35114  12.400   4.516  10.067  0.2458  0.0346 -0.1702
 8779SOL    HW135115  12.323   4.492  10.120 -1.3043  1.6901 -1.5299
 8779SOL    HW235116  12.399   4.454   9.994 -2.2808  2.3692 -2.3364
 8780SOL     OW35117   6.572   2.837   4.982 -0.3878 -0.0225 -1.2750
 8780SOL    HW135118   6.540   2.775   5.048  3.1246  0.4385  1.1348
 8780SOL    HW235119   6.612   2.781   4.915  1.1307 -0.5024 -0.0351
 8781SOL     OW35120   3.540   6.583   9.003 -0.0222  0.0023 -0.6706
 8781SOL    HW135121   3.457   6.630   9.010 -0.3478 -0.4398 -1.3836
 8781SOL    HW235122   3.550   6.567   8.909  0.2528 -1.0206 -0.4774
 8782SOL     OW35123   6.687  11.191  10.765 -0.3165 -0.0422 -0.0099
 8782SOL    HW135124   6.659  11.145  10.844 -1.0952 -0.3470 -0.4559
 8782SOL    HW235125   6.768  11.235  10.790 -0.9162  0.4378  1.1759
 8783SOL     OW35126   6.270   2.212   7.817  0.0762 -0.3389  0.4146
 8783SOL    HW135127   6.255   2.272   7.744 -1.1277 -1.1675 -0.0556
 8783SOL    HW235128   6.305   2.267   7.887 -0.0225  0.7142 -0.3369
 8784SOL     OW35129   7.371  12.541  11.925  0.1110 -0.2022 -0.0415
 8784SOL    HW135130   7.348  12.507  12.012 -0.7515  0.4817  0.0056
 8784SOL    HW235131   7.448  12.596  11.940 -0.8256  0.9984  0.5340
 8785SOL     OW35132  12.605  10.712  10.570  0.1989 -0.0582 -0.1695
 8785SOL    HW135133  12.606  10.707  10.474  1.1873 -0.2432 -0.1601
 8785SOL    HW235134  12.691  10.681  10.596  0.2989  0.9403  0.7342
 8786SOL     OW35135   8.872   2.123   8.428  0.5158  0.0809 -0.1355
 8786SOL    HW135136   8.829   2.128   8.342  1.0028  1.1678 -0.3260
 8786SOL    HW235137   8.833   2.046   8.469 -0.4615  0.1227 -0.9369
 8787SOL     OW35138   6.892   9.943   6.014  1.0378 -0.0199 -0.0646
 8787SOL    HW135139   6.805   9.964   6.047  1.3607  0.4533  0.4902
 8787SOL    HW235140   6.894   9.847   6.011  0.9339 -0.0760  1.1155
 8788SOL     OW35141  10.408   9.963   0.520 -0.6090 -0.2009 -0.4753
 8788SOL    HW135142  10.456  10.046   0.520  0.0828 -0.5931 -0.6583
 8788SOL    HW235143  10.334   9.978   0.579  0.4807  0.0021  0.8837
 8789SOL     OW35144  11.090  11.868  10.469  0.5210 -0.6500 -0.1476
 8789SOL    HW135145  11.166  11.894  10.522  0.7293 -0.8143 -0.3621
 8789SOL    HW235146  11.120  11.879  10.379  1.0540 -2.8405 -0.2879
 8790SOL     OW35147  12.432   5.512   1.624 -0.6417  0.3447 -0.0665
 8790SOL    HW135148  12.522   5.497   1.652 -0.8318  0.7959  0.8160
 8790SOL    HW235149  12.395   5.424   1.613  0.4084  0.1002 -2.2198
 8791SOL     OW35150  11.788  12.169   8.675 -0.6316 -0.2120 -0.1203
 8791SOL    HW135151  11.875  12.149   8.708 -0.5701 -1.7392 -1.0951
 8791SOL    HW235152  11.803  12.207   8.588 -0.9314 -2.7349 -1.3656
 8792SOL     OW35153   4.299   6.114   2.271 -0.0905 -0.2937 -0.7715
 8792SOL    HW135154   4.315   6.090   2.179 -1.3608 -0.6624 -0.9170
 8792SOL    HW235155   4.242   6.044   2.304  0.3596 -0.1635  0.3070
 8793SOL     OW35156   8.534   6.540   1.164 -0.2922 -0.1607  0.1419
 8793SOL    HW135157   8.610   6.588   1.197 -0.5342 -0.5235  1.2676
 8793SOL    HW235158   8.476   6.607   1.129  0.7827  0.0757 -1.2774
 8794SOL     OW35159   6.065   8.848   7.321  0.0666  0.7785  0.2124
 8794SOL    HW135160   5.976   8.882   7.333 -1.3364 -2.7677  0.9548
 8794SOL    HW235161   6.077   8.786   7.393  2.1456 -0.6944 -1.2906
 8795SOL     OW35162  11.993   2.347   4.926  0.3927 -0.4531 -0.0359
 8795SOL    HW135163  12.024   2.258   4.910 -1.4175 -0.6743 -3.2896
 8795SOL    HW235164  11.945   2.342   5.009  2.2234 -1.8960  1.0039
 8796SOL     OW35165   0.270   6.179   9.412  0.1589  0.4107 -0.6852
 8796SOL    HW135166   0.270   6.271   9.385  0.8776  0.7678  0.4920
 8796SOL    HW235167   0.198   6.173   9.476 -0.3152 -0.0092 -1.2423
 8797SOL     OW35168   7.722   5.683   1.943 -0.0145  1.0062  0.0190
 8797SOL    HW135169   7.643   5.718   1.902 -0.8672 -0.8502 -0.0391
 8797SOL    HW235170   7.708   5.588   1.943  2.3356  0.6050 -0.2433
 8798SOL     OW35171   4.681   4.211   0.532  0.1963 -0.5816  0.4744
 8798SOL    HW135172   4.700   4.129   0.578  0.1007  0.0706  1.7052
 8798SOL    HW235173   4.705   4.193   0.440 -0.3256 -2.1453  0.6210
 8799SOL     OW35174   8.025   3.720   5.013  0.4341 -0.7459 -0.1140
 8799SOL    HW135175   7.975   3.729   4.932 -0.4654  1.6560  0.6200
 8799SOL    HW235176   8.026   3.808   5.050  1.0038 -1.7282  2.3917
 8800SOL     OW35177  10.203  11.145   4.297  0.0976  0.2161  0.0998
 8800SOL    HW135178  10.228  11.237   4.304 -0.3602  0.5517 -1.8428
 8800SOL    HW235179  10.286  11.098   4.298  0.6970  1.0154 -2.6666
 8801SOL     OW35180   1.748   2.962   8.138  0.2521 -0.1130 -0.0473
 8801SOL    HW135181   1.810   2.998   8.075  1.1941 -0.3463  0.7402
 8801SOL    HW235182   1.788   2.881   8.169 -1.1746 -1.1173 -0.6989
 8802SOL     OW35183   4.141  12.304   6.650 -0.1869  0.0663  0.0128
 8802SOL    HW135184   4.130  12.213   6.623  2.6182 -1.2354  2.6439
 8802SOL    HW235185   4.191  12.344   6.579  2.4695 -1.7778  0.7109
 8803SOL     OW35186   1.523   0.084   1.700  0.2974  0.6528 -0.6084
 8803SOL    HW135187   1.586   0.016   1.679 -1.4364 -1.1278 -0.3409
 8803SOL    HW235188   1.565   0.136   1.768  1.7384 -0.0275 -0.9403
 8804SOL     OW35189  12.380   6.410   7.351  0.4041  0.4318  0.1381
 8804SOL    HW135190  12.352   6.419   7.260  1.3024  0.4380 -0.1523
 8804SOL    HW235191  12.456   6.469   7.359  1.6514 -1.1172  0.2926
 8805SOL     OW35192   2.672   3.905   9.996  0.2278  0.3360 -0.1579
 8805SOL    HW135193   2.712   3.967   9.935 -2.6848  1.9369 -0.5970
 8805SOL    HW235194   2.620   3.847   9.940 -1.7230  1.2239  0.6715
 8806SOL     OW35195   7.506   0.589   1.622  0.0435  0.6563 -0.6415
 8806SOL    HW135196   7.419   0.587   1.661  0.0534  1.4848 -0.5551
 8806SOL    HW235197   7.507   0.670   1.571  0.2400 -0.0949 -1.8730
 8807SOL     OW35198   6.505   9.161  10.240 -0.1187 -0.3691 -0.0295
 8807SOL    HW135199   6.548   9.108  10.307  0.3041  0.4619  0.3766
 8807SOL    HW235200   6.545   9.133  10.157  0.8575  0.0362  0.2903
 8808SOL     OW35201   0.465  10.742   8.515 -0.5008  0.1892 -0.2674
 8808SOL    HW135202   0.403  10.672   8.535  0.3429 -0.8059 -0.9913
 8808SOL    HW235203   0.422  10.792   8.445 -0.6873 -0.1942 -0.4288
 8809SOL     OW35204   1.721   6.893   3.473  0.3708 -0.0873  0.4735
 8809SOL    HW135205   1.738   6.988   3.470 -0.7943  0.1467  0.6151
 8809SOL    HW235206   1.746   6.867   3.562 -1.2529  0.5180  1.1478
 8810SOL     OW35207   0.740   7.423   0.713  0.4746  0.2886  0.6716
 8810SOL    HW135208   0.713   7.333   0.730  1.2120  0.1240  1.0278
 8810SOL    HW235209   0.663   7.464   0.673  0.5618 -0.8669 -0.7777
 8811SOL     OW35210   3.800   2.831   7.542 -0.4310 -0.3242 -0.4890
 8811SOL    HW135211   3.796   2.920   7.506  0.0404  0.2052  0.7234
 8811SOL    HW235212   3.724   2.787   7.505 -0.8987  0.7051 -0.7948
 8812SOL     OW35213   5.065   0.197   7.546  0.2957  0.7979  0.1328
 8812SOL    HW135214   5.084   0.250   7.469 -0.3690  1.4915  0.4234
 8812SOL    HW235215   4.984   0.235   7.581 -0.1288 -0.3352  0.4267
 8813SOL     OW35216   2.597   0.928   0.847  0.5176  0.1663 -0.2760
 8813SOL    HW135217   2.671   0.916   0.907  2.2656 -2.5312 -2.7323
 8813SOL    HW235218   2.521   0.899   0.898  1.6186 -0.1851  1.2576
 8814SOL     OW35219   1.475   4.033   0.013  0.2977 -0.0367 -0.2180
 8814SOL    HW135220   1.485   3.980   0.092 -1.6910 -0.3341 -0.1149
 8814SOL    HW235221   1.468   4.123   0.046 -2.2526 -0.2920  0.2032
 8815SOL     OW35222   1.298  12.601   2.484  0.0132  0.3458 -0.6973
 8815SOL    HW135223   1.262  12.567   2.402 -0.6530  0.9133 -0.6496
 8815SOL    HW235224   1.314  12.694   2.466 -0.5951  0.5873 -0.0380
 8816SOL     OW35225   3.126   1.550   7.677  0.1009  0.4732  0.2987
 8816SOL    HW135226   3.164   1.554   7.589 -3.0945  1.9132 -1.2012
 8816SOL    HW235227   3.184   1.605   7.730  2.4199 -0.8578 -0.6754
 8817SOL     OW35228  11.509   6.961  11.635 -0.5175  0.1089 -0.5059
 8817SOL    HW135229  11.558   6.993  11.559  0.1337 -0.7107 -0.4431
 8817SOL    HW235230  11.417   6.973  11.612 -0.3071  1.2017 -0.8338
 8818SOL     OW35231   0.415  10.567   6.215 -0.0177  0.5055 -0.4396
 8818SOL    HW135232   0.346  10.596   6.275 -0.4308  1.5984 -1.3987
 8818SOL    HW235233   0.392  10.476   6.194 -0.5882  0.5322  0.0492
 8819SOL     OW35234  11.187  10.667   3.930 -0.6451 -0.3040 -0.0069
 8819SOL    HW135235  11.147  10.612   3.998 -0.4996 -1.1914 -0.6330
 8819SOL    HW235236  11.279  10.672   3.955  0.0114 -2.8806 -1.5387
 8820SOL     OW35237   0.123   5.225   6.075  0.4730 -0.2466  0.1833
 8820SOL    HW135238   0.138   5.163   6.146 -1.1183 -0.6870  0.1600
 8820SOL    HW235239   0.074   5.176   6.009 -0.4597  0.8948 -0.0094
 8821SOL     OW35240  11.013   4.656  10.770 -0.1714 -0.0807  0.3484
 8821SOL    HW135241  11.008   4.564  10.745  0.1859  0.1405 -0.5646
 8821SOL    HW235242  11.093   4.663  10.822 -0.3317 -0.3348  0.6270
 8822SOL     OW35243   3.532   3.583   1.088 -0.1291  0.1408 -0.3716
 8822SOL    HW135244   3.438   3.569   1.095  0.1125 -1.3411  0.4058
 8822SOL    HW235245   3.561   3.594   1.178  0.3101  1.7922 -0.6817
 8823SOL     OW35246   3.117   2.157   4.719 -0.3326  0.2150  0.1892
 8823SOL    HW135247   3.183   2.094   4.750 -0.6334  0.1597  0.7287
 8823SOL    HW235248   3.080   2.194   4.799 -1.9508 -0.7785 -0.0539
 8824SOL     OW35249  10.141   0.748   5.400  0.2010 -0.7846 -0.1212
 8824SOL    HW135250  10.085   0.711   5.468 -0.4763 -0.5974 -0.5658
 8824SOL    HW235251  10.191   0.817   5.444 -1.5082  0.5475 -0.1642
 8825SOL     OW35252  12.038   2.386  12.349  0.0784  0.5625  0.3436
 8825SOL    HW135253  12.076   2.473  12.339  0.3530  0.5964  1.5023
 8825SOL    HW235254  12.107   2.334  12.391 -0.7688  0.3508  1.5471
 8826SOL     OW35255   8.210   2.754   2.546  0.0709 -0.0731  0.6898
 8826SOL    HW135256   8.284   2.814   2.550 -0.2459  0.3659  0.0423
 8826SOL    HW235257   8.249   2.667   2.552  0.8000  0.0748 -1.3908
 8827SOL     OW35258   2.983   2.725   1.991  0.2827  0.5511 -0.3214
 8827SOL    HW135259   2.932   2.803   2.012 -2.3551 -0.9027 -0.9705
 8827SOL    HW235260   3.012   2.692   2.076 -1.0046  0.6781  0.1791
 8828SOL     OW35261   8.297   9.455   2.554 -0.5484 -0.0326  0.1633
 8828SOL    HW135262   8.307   9.516   2.481 -0.5834 -0.5302 -0.2589
 8828SOL    HW235263   8.224   9.491   2.605 -0.9271 -0.0114 -0.3804
 8829SOL     OW35264   2.446  12.434   2.385  0.0187 -0.2331  0.0684
 8829SOL    HW135265   2.382  12.490   2.341  0.4607 -1.6461 -2.6239
 8829SOL    HW235266   2.529  12.454   2.342  0.9096 -0.3277  1.6673
 8830SOL     OW35267   9.383   7.486   3.454 -0.1470  0.1854 -0.1878
 8830SOL    HW135268   9.476   7.465   3.468 -0.1537  1.3098  1.9247
 8830SOL    HW235269   9.344   7.479   3.541 -1.6809  1.4314 -0.7347
 8831SOL     OW35270   5.917  12.429   9.607  0.3371  0.5756 -0.0893
 8831SOL    HW135271   5.935  12.391   9.521  0.2090  1.6510 -0.6110
 8831SOL    HW235272   5.949  12.519   9.601 -2.8237  1.8393 -0.2553
 8832SOL     OW35273   6.519   8.516  12.196 -0.3314 -0.3656  0.0634
 8832SOL    HW135274   6.509   8.610  12.180 -0.4671 -0.4374 -0.2872
 8832SOL    HW235275   6.477   8.475  12.121 -0.1062 -0.7037  0.1224
 8833SOL     OW35276   3.797   1.775  11.417  0.0910  0.4331 -0.8311
 8833SOL    HW135277   3.870   1.831  11.443 -0.0582 -0.4293  1.7396
 8833SOL    HW235278   3.740   1.832  11.367  1.4365  1.7266 -0.9657
 8834SOL     OW35279   5.359  10.579   0.745  0.2010  0.0831  0.0929
 8834SOL    HW135280   5.314  10.499   0.773  1.2654 -0.3589  0.6027
 8834SOL    HW235281   5.440  10.547   0.704  0.5690  0.8996  0.1667
 8835SOL     OW35282   9.762   1.234   3.137 -0.5610  0.8441  0.4474
 8835SOL    HW135283   9.806   1.282   3.208  1.9120  0.8005 -0.9315
 8835SOL    HW235284   9.735   1.302   3.075 -0.6142  0.7175  0.3315
 8836SOL     OW35285   9.458   6.656   1.171  0.1902  0.8020 -0.7743
 8836SOL    HW135286   9.385   6.645   1.110  0.1280 -1.1959 -0.4191
 8836SOL    HW235287   9.418   6.690   1.251 -0.3544 -0.2096 -0.6064
 8837SOL     OW35288   5.541   3.636   6.111 -0.1116 -0.0622  0.3774
 8837SOL    HW135289   5.510   3.722   6.082 -1.6748 -0.5306  0.5462
 8837SOL    HW235290   5.631   3.651   6.139 -0.3176  1.4965  0.2974
 8838SOL     OW35291   2.174   9.492   7.494  0.4189  0.9378 -0.0636
 8838SOL    HW135292   2.175   9.459   7.584  2.5630  1.0825  0.0186
 8838SOL    HW235293   2.191   9.415   7.440  2.4226  1.3444 -0.0773
 8839SOL     OW35294  11.670   1.103   2.524 -0.0952 -0.3463 -0.2875
 8839SOL    HW135295  11.600   1.037   2.516 -0.1961 -0.2442 -0.2459
 8839SOL    HW235296  11.624   1.184   2.544 -0.0085 -0.1566 -0.8500
 8840SOL     OW35297   8.563   8.551   3.030 -0.7419 -0.4527  0.7366
 8840SOL    HW135298   8.596   8.475   2.981 -2.0789 -1.6312  1.5721
 8840SOL    HW235299   8.546   8.617   2.963 -0.5552 -1.2836 -0.1572
 8841SOL     OW35300  11.323   3.374   0.400 -0.6727 -0.6999  0.0197
 8841SOL    HW135301  11.360   3.320   0.469 -0.1499 -0.3621  0.0101
 8841SOL    HW235302  11.399   3.409   0.353 -0.9731 -2.8949 -2.3310
 8842SOL     OW35303   1.891  10.795  10.461  0.0660 -0.0300 -0.7406
 8842SOL    HW135304   1.855  10.717  10.503 -0.4037 -0.3718 -1.7453
 8842SOL    HW235305   1.922  10.849  10.534 -1.3441 -0.2907  0.0898
 8843SOL     OW35306   6.463  11.214  10.092 -0.1330 -0.6443  0.6158
 8843SOL    HW135307   6.391  11.272  10.118  1.7911  1.8561  0.8171
 8843SOL    HW235308   6.501  11.184  10.175 -0.6782 -1.6595  0.5135
 8844SOL     OW35309   3.869   6.980   8.026  0.2843  0.3699  0.2305
 8844SOL    HW135310   3.942   6.923   8.006 -0.3262  0.0053 -1.0405
 8844SOL    HW235311   3.841   6.954   8.114  1.8814  0.7717  0.8963
 8845SOL     OW35312   3.732   9.426   4.672 -0.6998  0.4119 -0.4234
 8845SOL    HW135313   3.694   9.489   4.733  0.6546  2.2375 -1.3610
 8845SOL    HW235314   3.811   9.469   4.639 -0.0523 -1.5370 -1.6047
 8846SOL     OW35315   6.005   7.622   6.435 -0.3444  0.0474 -0.1389
 8846SOL    HW135316   6.001   7.531   6.462  1.4930 -0.7367 -2.2111
 8846SOL    HW235317   5.924   7.635   6.384 -1.9302  0.4449  2.3253
 8847SOL     OW35318   1.274   8.835   7.418 -0.0774 -0.1377  0.3956
 8847SOL    HW135319   1.216   8.767   7.453 -0.5499 -0.7880 -1.5518
 8847SOL    HW235320   1.314   8.874   7.496  0.0025 -2.4575  1.6167
 8848SOL     OW35321   1.237   0.319  12.216 -0.1429 -0.3044  0.0465
 8848SOL    HW135322   1.238   0.402  12.168  0.1609 -0.9963 -1.1874
 8848SOL    HW235323   1.218   0.253  12.150 -0.8680 -1.1802  1.0935
 8849SOL     OW35324  12.600   3.555   2.616  0.8374  0.3755 -0.3599
 8849SOL    HW135325  12.595   3.607   2.536  1.7028  1.3817  0.2007
 8849SOL    HW235326  12.689   3.517   2.614  0.0329 -1.6300 -1.0482
 8850SOL     OW35327   1.507   6.927   3.717 -0.3170 -0.1330  0.6539
 8850SOL    HW135328   1.528   6.844   3.762 -0.1760 -1.1979 -1.2844
 8850SOL    HW235329   1.412   6.923   3.703 -0.5439  0.7188  1.7940
 8851SOL     OW35330   6.438   7.925   4.696  0.2236  0.8286  0.3316
 8851SOL    HW135331   6.494   7.983   4.747  2.1530  0.5396 -1.3615
 8851SOL    HW235332   6.451   7.838   4.734  0.5185  0.8513  0.2831
 8852SOL     OW35333   9.908   3.946   7.123 -0.2415 -0.2089  0.1039
 8852SOL    HW135334   9.924   4.020   7.181  0.0753 -2.4304  3.1335
 8852SOL    HW235335   9.814   3.949   7.106 -0.4070  0.3466  1.0341
 8853SOL     OW35336   7.297  10.018   2.701  0.0241 -0.7208  0.3909
 8853SOL    HW135337   7.369  10.078   2.682 -0.5225 -0.9840 -3.1156
 8853SOL    HW235338   7.328   9.933   2.671 -0.5021 -1.5864  2.1432
 8854SOL     OW35339   8.940  12.023  10.248 -0.4348 -0.0061 -0.7708
 8854SOL    HW135340   9.023  12.047  10.206 -0.6021 -1.6300 -2.1177
 8854SOL    HW235341   8.963  12.006  10.339  0.5312  0.5127 -0.9068
 8855SOL     OW35342  11.395  10.636   8.516 -0.8587  0.6359  0.3281
 8855SOL    HW135343  11.455  10.711   8.508 -0.3110  0.3272  1.3469
 8855SOL    HW235344  11.404  10.590   8.433 -0.2813  1.0375  0.1588
 8856SOL     OW35345   9.628   4.704   9.221 -0.0170  0.0745 -0.5908
 8856SOL    HW135346   9.627   4.793   9.255  1.9295  0.6401 -1.8376
 8856SOL    HW235347   9.592   4.712   9.132 -0.4017 -0.4982 -0.4932
 8857SOL     OW35348   7.884   7.852  10.266  0.1968  0.3327  0.0475
 8857SOL    HW135349   7.902   7.784  10.201 -0.1148  0.6886 -0.4203
 8857SOL    HW235350   7.961   7.853  10.322  0.0087 -0.7270  0.3398
 8858SOL     OW35351   0.133  12.477   0.311  0.2552 -0.3635  0.8151
 8858SOL    HW135352   0.203  12.542   0.317 -0.5194  0.4766  0.8676
 8858SOL    HW235353   0.064  12.520   0.261  0.3938 -1.7611 -0.6755
 8859SOL     OW35354   0.258   4.027  12.340  0.0386  0.6885 -0.1073
 8859SOL    HW135355   0.253   4.112  12.385 -0.7746 -0.1934  1.5960
 8859SOL    HW235356   0.321   3.976  12.393 -1.3358 -0.5589  0.4013
 8860SOL     OW35357   3.828   1.809   6.079 -0.4177  0.2852 -0.3646
 8860SOL    HW135358   3.849   1.760   5.999  0.4741  1.4784 -0.8882
 8860SOL    HW235359   3.741   1.846   6.062 -1.2879 -1.3881  0.2001
 8861SOL     OW35360   0.401  12.585  12.426 -0.7647 -0.3916 -0.4441
 8861SOL    HW135361   0.335  12.557  12.362 -1.9733 -2.2132  1.4530
 8861SOL    HW235362   0.350  12.616  12.501  0.5811  0.6119  0.0879
 8862SOL     OW35363   5.542   2.552   4.137 -0.3367 -0.3280  0.2863
 8862SOL    HW135364   5.572   2.461   4.145 -1.1038 -1.1064 -3.5009
 8862SOL    HW235365   5.481   2.564   4.210  2.0172 -1.7622  2.6481
 8863SOL     OW35366   3.540   3.034   0.397  0.1330 -0.3553  0.1331
 8863SOL    HW135367   3.562   3.118   0.437 -0.9318  0.1919 -0.3717
 8863SOL    HW235368   3.532   3.053   0.304  0.0534 -1.0574 -0.0080
 8864SOL     OW35369   3.696   8.867   6.641  0.3775  0.3269 -0.2765
 8864SOL    HW135370   3.675   8.778   6.670  0.3729  0.7089  0.9808
 8864SOL    HW235371   3.723   8.857   6.550 -1.8997 -0.6483 -0.9231
 8865SOL     OW35372   3.925  10.181   5.753  0.5044  0.2934 -0.2372
 8865SOL    HW135373   3.933  10.092   5.720 -1.1398  1.0597 -3.0773
 8865SOL    HW235374   3.986  10.232   5.700  0.3557  1.1037  0.3474
 8866SOL     OW35375   3.827   6.539   0.225 -0.3703 -0.1391  0.0830
 8866SOL    HW135376   3.916   6.560   0.199 -0.7225  1.0566 -0.2147
 8866SOL    HW235377   3.832   6.450   0.260  1.0371  0.1429  0.6450
 8867SOL     OW35378   6.090   8.759   6.381 -0.0585 -0.0741  0.0313
 8867SOL    HW135379   6.028   8.827   6.353 -1.7070 -1.8172 -0.7834
 8867SOL    HW235380   6.108   8.710   6.301  2.7015  0.5463  0.1787
 8868SOL     OW35381   5.844  12.213   4.537  0.0603  0.0084  0.3826
 8868SOL    HW135382   5.839  12.249   4.448 -0.9659  0.4546  0.6022
 8868SOL    HW235383   5.929  12.169   4.540  0.8834  1.4777 -0.2616
 8869SOL     OW35384   5.695   8.370   0.269 -0.1313  0.3472 -0.3827
 8869SOL    HW135385   5.608   8.403   0.290  0.0122  1.3054 -1.1989
 8869SOL    HW235386   5.683   8.320   0.188  0.0844  0.5169 -0.5218
 8870SOL     OW35387   0.566   5.758  10.841 -0.3980  0.0700 -0.1331
 8870SOL    HW135388   0.579   5.847  10.811 -0.1049  0.1691  0.2726
 8870SOL    HW235389   0.651   5.716  10.829  0.2888  0.6186  2.2035
 8871SOL     OW35390   3.393   9.436   7.270  0.3919  0.3008  0.2681
 8871SOL    HW135391   3.384   9.341   7.264  0.2108  0.4041 -1.7194
 8871SOL    HW235392   3.354   9.458   7.355 -0.0472 -1.3425  0.5284
 8872SOL     OW35393  10.840   7.013   7.664  0.2575  0.6758  0.0827
 8872SOL    HW135394  10.746   7.021   7.679 -0.0155 -0.6730 -0.6606
 8872SOL    HW235395  10.870   6.949   7.728  0.7396  1.3220  0.5155
 8873SOL     OW35396   4.673   6.816  12.271  0.1210 -0.2854  0.0636
 8873SOL    HW135397   4.593   6.865  12.254  1.6159  2.3146 -0.1633
 8873SOL    HW235398   4.652   6.726  12.249 -2.8773  0.1699  0.6117
 8874SOL     OW35399   4.259   3.533   2.692 -0.0990 -0.1316 -0.8291
 8874SOL    HW135400   4.274   3.483   2.772 -0.0183 -2.2407 -2.0964
 8874SOL    HW235401   4.276   3.624   2.717  0.8534 -0.8366  1.2961
 8875SOL     OW35402  12.112   6.590   3.307 -0.3360 -0.1313  0.5280
 8875SOL    HW135403  12.127   6.538   3.228 -0.3537  0.2029  0.3009
 8875SOL    HW235404  12.143   6.678   3.283 -0.0595 -0.1017  0.9943
 8876SOL     OW35405   2.235   9.128   5.703 -0.2462 -0.4672 -0.1571
 8876SOL    HW135406   2.186   9.047   5.696 -2.4833  0.6278  1.5499
 8876SOL    HW235407   2.271   9.127   5.791  0.8502 -0.1783 -0.5809
 8877SOL     OW35408  11.866   1.936   6.722  0.1513  0.6812  0.0195
 8877SOL    HW135409  11.947   1.884   6.719  1.4143  2.5003  1.2242
 8877SOL    HW235410  11.864   1.981   6.638  0.5849  0.9153  0.1334
 8878SOL     OW35411   2.857   1.547  11.893 -0.4435 -0.2524 -0.3105
 8878SOL    HW135412   2.940   1.518  11.856 -0.6486  0.2794 -1.2083
 8878SOL    HW235413   2.879   1.581  11.980  0.7193  2.3601 -1.5305
 8879SOL     OW35414  10.471   6.269   8.316  0.5057  0.0911 -0.4592
 8879SOL    HW135415  10.394   6.325   8.329  1.7753  1.6489  0.7976
 8879SOL    HW235416  10.545   6.324   8.340  1.9605 -1.6685 -0.6881
 8880SOL     OW35417  12.103   3.336   7.949  0.0303 -0.1436  0.2950
 8880SOL    HW135418  12.025   3.287   7.923 -0.5630  0.9630 -0.0699
 8880SOL    HW235419  12.073   3.391   8.022  0.8442 -0.7547  1.1203
 8881SOL     OW35420   0.931  11.843   7.031  0.0542 -0.0688  0.3999
 8881SOL    HW135421   0.876  11.862   6.955 -0.5854  0.0198  0.8691
 8881SOL    HW235422   0.954  11.751   7.022 -1.3927 -0.5215  0.9282
 8882SOL     OW35423   6.271   6.503   4.768 -0.2499 -0.0430  0.0289
 8882SOL    HW135424   6.189   6.509   4.816  0.0081  2.0053  0.2834
 8882SOL    HW235425   6.276   6.584   4.717  1.0546 -0.6606 -0.8915
 8883SOL     OW35426   3.666   7.925   4.015 -0.4049  0.0784 -0.1670
 8883SOL    HW135427   3.718   7.997   3.978 -0.1789  0.4691  0.8716
 8883SOL    HW235428   3.593   7.915   3.955 -1.1275  2.0230  0.3153
 8884SOL     OW35429   1.152  11.719  10.738 -0.3870 -0.1617  0.4507
 8884SOL    HW135430   1.239  11.751  10.718 -0.1210 -0.8387  0.4894
 8884SOL    HW235431   1.158  11.624  10.726 -1.5556 -0.0819 -1.2049
 8885SOL     OW35432  11.256   5.149  11.615  0.3742 -0.3620  0.0453
 8885SOL    HW135433  11.189   5.151  11.546  0.2699  0.3749  0.1680
 8885SOL    HW235434  11.289   5.238  11.619  1.7251 -0.8276 -0.3535
 8886SOL     OW35435   2.782   8.266   7.036  0.2334 -0.3538 -0.5131
 8886SOL    HW135436   2.736   8.194   7.078 -0.6012  0.5228  0.0842
 8886SOL    HW235437   2.726   8.292   6.963  0.0509  0.3356 -0.1346
 8887SOL     OW35438   0.983   9.404   1.719  0.4833 -0.2160  0.1117
 8887SOL    HW135439   1.032   9.486   1.725 -0.6513  0.5751 -0.8183
 8887SOL    HW235440   1.006   9.356   1.798  2.7390  0.1081 -0.2881
 8888SOL     OW35441  11.633   0.822   5.932  0.1800 -0.4013 -0.2124
 8888SOL    HW135442  11.672   0.863   6.010  0.3623  0.6226 -0.8289
 8888SOL    HW235443  11.568   0.885   5.901 -0.3437 -1.0868 -0.5314
 8889SOL     OW35444   1.129   6.337   8.027 -0.2030  0.2117  0.1185
 8889SOL    HW135445   1.209   6.284   8.025 -0.3811 -0.0516 -0.8422
 8889SOL    HW235446   1.156   6.421   7.990 -0.3962  0.0660 -0.3679
 8890SOL     OW35447   1.214   8.519  12.519  0.1941  0.2773  0.3776
 8890SOL    HW135448   1.214   8.425  12.500 -1.0257 -0.0882  1.9750
 8890SOL    HW235449   1.294   8.532  12.570  0.9326  0.3366 -0.7663
 8891SOL     OW35450   7.151   7.801   0.661  0.5957  0.2595 -0.0485
 8891SOL    HW135451   7.067   7.835   0.691  1.2541  1.1458  0.8600
 8891SOL    HW235452   7.136   7.777   0.569 -0.6540  0.3400  0.1278
 8892SOL     OW35453   1.775  12.359   9.853  0.6105  0.1064  0.1703
 8892SOL    HW135454   1.705  12.306   9.892  0.2029  1.4650  1.3648
 8892SOL    HW235455   1.729  12.426   9.802  1.0535  0.5160  0.3011
 8893SOL     OW35456   5.336   9.755   4.666  0.1842 -0.1384 -0.3166
 8893SOL    HW135457   5.322   9.693   4.595  1.1806 -1.4913  0.6088
 8893SOL    HW235458   5.259   9.811   4.665 -0.4373 -0.9675 -1.6142
 8894SOL     OW35459  11.029   5.758   2.776 -0.3790 -0.0448 -0.2736
 8894SOL    HW135460  11.091   5.831   2.779 -1.1153  0.5573  1.3707
 8894SOL    HW235461  10.954   5.791   2.726 -1.6487  1.1703  2.2564
 8895SOL     OW35462   0.238   1.588   3.032  0.1563  0.0933  0.3306
 8895SOL    HW135463   0.242   1.638   3.113 -1.4667 -0.8506  1.0359
 8895SOL    HW235464   0.296   1.514   3.047  0.0313  0.0378  0.5440
 8896SOL     OW35465   3.953   0.218   1.838 -0.1381 -0.4437 -0.0971
 8896SOL    HW135466   3.924   0.221   1.930  0.8529  1.2407  0.1946
 8896SOL    HW235467   3.884   0.264   1.790 -0.3464 -0.7796 -0.1289
 8897SOL     OW35468  11.001   1.391  11.408  0.1525  0.3225 -0.2661
 8897SOL    HW135469  11.005   1.305  11.452 -0.0516  0.7492  0.6167
 8897SOL    HW235470  10.909   1.416  11.413  0.1095  0.3409 -1.0387
 8898SOL     OW35471   3.635   8.658   8.975  0.5300 -0.4336 -0.0587
 8898SOL    HW135472   3.696   8.586   8.961  0.6555 -0.4054  0.3273
 8898SOL    HW235473   3.566   8.644   8.910  0.5895 -0.8638 -0.0326
 8899SOL     OW35474   6.859   3.335  12.243 -0.1970  0.1347  0.4109
 8899SOL    HW135475   6.855   3.301  12.333 -0.9193  0.7935  0.6364
 8899SOL    HW235476   6.768   3.354  12.221 -0.1637 -1.0423 -0.8682
 8900SOL     OW35477   3.171   1.076   0.532 -0.5652  0.0164 -0.1884
 8900SOL    HW135478   3.215   1.068   0.447 -0.0113  0.3727  0.0561
 8900SOL    HW235479   3.232   1.128   0.585 -0.4828 -0.9649  0.7141
 8901SOL     OW35480   2.437   9.761   9.523  0.3778  0.0947  0.2826
 8901SOL    HW135481   2.403   9.794   9.440  0.0591  0.7670  0.6782
 8901SOL    HW235482   2.532   9.770   9.516  0.5027 -1.6164 -0.7524
 8902SOL     OW35483   4.617   3.765  10.712  0.3473  0.4651 -0.5213
 8902SOL    HW135484   4.562   3.837  10.683  1.2142  0.9556 -0.9711
 8902SOL    HW235485   4.683   3.806  10.768  0.1036 -0.1526  0.2423
 8903SOL     OW35486   2.440  10.914   5.639  0.7133  0.7780 -1.0095
 8903SOL    HW135487   2.372  10.936   5.575  0.3909  0.8366 -0.6491
 8903SOL    HW235488   2.510  10.978   5.624  1.4064 -0.2622 -2.4654
 8904SOL     OW35489  10.225   3.780   4.016  0.1721 -0.1429 -0.1463
 8904SOL    HW135490  10.216   3.712   4.082 -1.2684 -1.5071 -1.6686
 8904SOL    HW235491  10.311   3.765   3.977 -0.0519 -0.9686 -0.3289
 8905SOL     OW35492   8.615   0.115   5.915  0.0939 -0.3956 -0.2330
 8905SOL    HW135493   8.682   0.167   5.871 -2.3668  1.3439 -2.2560
 8905SOL    HW235494   8.599   0.161   5.998 -0.6778  1.0232 -1.1282
 8906SOL     OW35495   6.946  11.249   0.070 -0.5564  0.2882  0.3025
 8906SOL    HW135496   6.970  11.180   0.132 -1.4147 -0.1540  0.1495
 8906SOL    HW235497   7.014  11.316   0.082 -0.1895 -0.2009  1.0537
 8907SOL     OW35498  10.114   4.579   7.158  0.5095  0.1623 -0.1176
 8907SOL    HW135499  10.209   4.585   7.162  0.5834 -0.2308 -1.1970
 8907SOL    HW235500  10.083   4.639   7.227  1.5441 -0.6695  1.1195
 8908SOL     OW35501  11.364   4.322   1.102  0.5843  0.0538 -0.2735
 8908SOL    HW135502  11.385   4.266   1.177 -0.2671  0.1408  0.0411
 8908SOL    HW235503  11.444   4.322   1.049  0.4233 -1.9453 -0.5983
 8909SOL     OW35504   0.333   9.940  10.454 -0.2658  0.0219  0.4441
 8909SOL    HW135505   0.263   9.945  10.520 -0.6443  1.2027 -0.0108
 8909SOL    HW235506   0.290   9.905  10.376  0.0573 -0.8611  0.6530
 8910SOL     OW35507  12.160   0.584   1.096  0.0530 -0.0804 -0.1003
 8910SOL    HW135508  12.184   0.543   1.013  0.7777 -0.8328  0.4600
 8910SOL    HW235509  12.172   0.677   1.082  0.6314 -0.2385 -0.6914
 8911SOL     OW35510   4.914   9.493   5.292  0.2358  0.0601 -0.4943
 8911SOL    HW135511   4.963   9.452   5.220 -0.3781  0.4257 -1.1342
 8911SOL    HW235512   4.837   9.437   5.304 -0.3654  0.7338 -1.0589
 8912SOL     OW35513   1.234   0.953   3.088 -0.4600  0.5989 -0.2758
 8912SOL    HW135514   1.146   0.990   3.085  0.2098  2.2470 -1.6260
 8912SOL    HW235515   1.283   1.011   3.146  0.3222  1.2059 -1.4890
 8913SOL     OW35516   0.338   8.841   9.489 -0.3397  0.3752 -0.0943
 8913SOL    HW135517   0.394   8.780   9.537 -0.6028 -1.6440 -2.1380
 8913SOL    HW235518   0.398   8.888   9.431 -0.2645  1.3975  0.7842
 8914SOL     OW35519   4.295   5.105  12.339  0.0513  0.3042  0.0838
 8914SOL    HW135520   4.307   5.051  12.418  1.5558  2.1562  1.2166
 8914SOL    HW235521   4.372   5.086  12.285  0.0181  0.4829 -0.0263
 8915SOL     OW35522  11.777   3.913   0.668  0.3073 -0.9145  0.1607
 8915SOL    HW135523  11.823   3.934   0.750 -0.1617 -2.4340  0.8521
 8915SOL    HW235524  11.843   3.869   0.614  0.6159  0.0857 -0.3198
 8916SOL     OW35525   1.665   5.987   2.673  0.0932 -0.5772  0.0129
 8916SOL    HW135526   1.686   6.005   2.765  0.9052 -1.8402  0.1118
 8916SOL    HW235527   1.731   5.922   2.647 -0.6092 -0.8065 -1.2363
 8917SOL     OW35528   9.058   5.234   0.881 -0.1304 -0.1630  0.4712
 8917SOL    HW135529   8.995   5.306   0.885 -0.2706 -0.2750  0.2909
 8917SOL    HW235530   9.011   5.163   0.837  0.1003 -0.2681  0.3926
 8918SOL     OW35531   2.253   5.797   8.151 -0.2764  0.0300  0.3081
 8918SOL    HW135532   2.162   5.822   8.139 -0.8493 -0.7155  2.6524
 8918SOL    HW235533   2.258   5.707   8.119 -0.1221  0.3556 -0.6246
 8919SOL     OW35534   7.886   6.502   0.872  0.0149  0.0970 -0.0301
 8919SOL    HW135535   7.870   6.597   0.878  3.2725  0.7886 -0.2884
 8919SOL    HW235536   7.937   6.482   0.951 -0.8284 -1.5558  0.1345
 8920SOL     OW35537  10.056   4.950   0.151  0.2131  0.6123 -0.0788
 8920SOL    HW135538  10.031   4.983   0.237  1.0176  1.6234 -0.2253
 8920SOL    HW235539  10.081   5.027   0.101 -0.5799  0.0861 -1.3548
 8921SOL     OW35540   5.657   7.467   3.787 -0.4223 -0.2409  0.6020
 8921SOL    HW135541   5.672   7.561   3.782  0.3631 -0.4023 -0.3855
 8921SOL    HW235542   5.621   7.444   3.701  1.9064 -1.2377 -0.1971
 8922SOL     OW35543   0.720  11.944   7.199 -0.9260  0.2897 -0.3497
 8922SOL    HW135544   0.783  11.920   7.266 -0.2566  1.6342 -0.4618
 8922SOL    HW235545   0.768  12.003   7.140 -1.9477  0.4221 -1.0955
 8923SOL     OW35546   8.007   6.142   6.383 -0.4237  0.3188  0.6056
 8923SOL    HW135547   7.975   6.092   6.458 -0.2894  0.0438  0.4825
 8923SOL    HW235548   7.928   6.177   6.342 -0.5291  0.1125  0.6289
 8924SOL     OW35549   9.485  12.568   2.008 -0.3908 -0.3201 -0.3434
 8924SOL    HW135550   9.466  12.584   1.916  0.3002 -2.5315 -0.9429
 8924SOL    HW235551   9.572  12.603   2.022  0.4931 -2.0428 -1.2216
 8925SOL     OW35552   8.035   8.806  11.207 -0.3825  0.3009  0.3173
 8925SOL    HW135553   8.059   8.754  11.284  0.1746  1.4485  0.9705
 8925SOL    HW235554   7.940   8.815  11.213 -0.4500 -0.3977  0.3493
 8926SOL     OW35555   8.418   4.932   1.848 -0.2581  0.6095  0.4206
 8926SOL    HW135556   8.387   4.846   1.875 -0.6772  0.9960  1.1751
 8926SOL    HW235557   8.389   4.992   1.916 -0.7114  1.4921 -0.5151
 8927SOL     OW35558   7.595   2.390   3.630 -0.4876  0.0176  0.7374
 8927SOL    HW135559   7.508   2.402   3.668 -0.4971  0.0072  0.7190
 8927SOL    HW235560   7.638   2.475   3.640 -0.4054 -0.0533  0.9823
 8928SOL     OW35561   7.507  11.783   8.598 -0.1652  0.1998  0.1193
 8928SOL    HW135562   7.495  11.876   8.619 -1.5189 -0.3637  2.1855
 8928SOL    HW235563   7.599  11.765   8.618 -0.7815  0.2851  3.7932
 8929SOL     OW35564   2.437   7.086   0.753 -0.3011 -0.1494 -0.2914
 8929SOL    HW135565   2.457   7.084   0.847  1.4856 -1.9866 -0.6382
 8929SOL    HW235566   2.450   7.178   0.728  0.6327  0.0979  0.9806
 8930SOL     OW35567   3.121   0.684   3.697 -0.5147 -0.1136  0.4788
 8930SOL    HW135568   3.186   0.729   3.643 -1.7630  1.5191  0.2531
 8930SOL    HW235569   3.173   0.630   3.757  1.0208  0.5907 -0.1536
 8931SOL     OW35570  10.281   6.995   3.738 -0.3391  0.4129 -0.4700
 8931SOL    HW135571  10.259   7.025   3.650  2.1311  1.6878 -0.7494
 8931SOL    HW235572  10.364   6.949   3.728  0.1720  0.8869  1.2225
 8932SOL     OW35573   8.576   2.595   4.454  0.0615  0.2090  0.2414
 8932SOL    HW135574   8.572   2.504   4.427  0.6082  0.5174 -0.9532
 8932SOL    HW235575   8.662   2.604   4.496  0.6939  0.5109 -1.0545
 8933SOL     OW35576  11.611  11.155   3.550  0.2625 -0.4066 -0.0513
 8933SOL    HW135577  11.627  11.079   3.493  0.4494 -1.2521  1.1057
 8933SOL    HW235578  11.623  11.122   3.639  1.8601  1.3135  0.4513
 8934SOL     OW35579   1.875   0.743   0.337  0.3519 -1.0799  0.2080
 8934SOL    HW135580   1.872   0.684   0.412 -0.2097 -2.0365 -0.5394
 8934SOL    HW235581   1.784   0.768   0.322  0.4480 -0.9681 -0.2079
 8935SOL     OW35582  10.478   2.164   3.445 -0.4469 -0.3237  0.1502
 8935SOL    HW135583  10.486   2.166   3.350  0.7252  1.7041  0.2191
 8935SOL    HW235584  10.569   2.164   3.476 -0.7318  1.8452  1.2007
 8936SOL     OW35585   9.654   1.271   5.351  0.5734  0.5269  0.9107
 8936SOL    HW135586   9.725   1.325   5.386  2.3237 -1.4078  0.5508
 8936SOL    HW235587   9.665   1.275   5.256  1.1122 -0.8786  0.8885
 8937SOL     OW35588  12.094   0.721   8.281  0.2586  0.2933 -0.7081
 8937SOL    HW135589  12.009   0.759   8.260 -0.2042 -1.4291 -2.2288
 8937SOL    HW235590  12.075   0.630   8.303  1.5477  0.2998  0.6082
 8938SOL     OW35591   0.497   9.338   7.894 -0.1858 -0.0038 -0.0808
 8938SOL    HW135592   0.567   9.275   7.875 -0.3536 -0.1763 -0.1386
 8938SOL    HW235593   0.417   9.288   7.880 -0.3173 -0.1177  1.0602
 8939SOL     OW35594  12.434   8.237   4.639  0.1474  0.0087 -0.1739
 8939SOL    HW135595  12.497   8.240   4.711 -0.0879  1.1776  0.0024
 8939SOL    HW235596  12.488   8.240   4.560  0.3920 -1.0072 -0.0567
 8940SOL     OW35597   1.232   7.580   3.985 -0.1852 -0.0433 -0.3706
 8940SOL    HW135598   1.206   7.490   3.963 -1.8344  0.3299 -0.1084
 8940SOL    HW235599   1.234   7.582   4.080 -2.0299  0.6338 -0.2981
 8941SOL     OW35600  10.826   6.160   9.174  0.1666  0.0401  0.4846
 8941SOL    HW135601  10.904   6.124   9.217 -0.4088 -1.8390  0.0769
 8941SOL    HW235602  10.770   6.189   9.246  0.3403 -0.6015  0.8871
 8942SOL     OW35603   8.246   1.559  11.058  0.0665 -0.7216  0.3964
 8942SOL    HW135604   8.155   1.586  11.073 -0.7578 -2.3815 -1.2442
 8942SOL    HW235605   8.285   1.633  11.012 -0.5947 -0.2068  0.6279
 8943SOL     OW35606   6.485   4.313  10.114 -0.1809 -0.1887 -0.0144
 8943SOL    HW135607   6.541   4.362  10.174  0.7926  1.7267 -2.3415
 8943SOL    HW235608   6.396   4.329  10.146  0.2432  1.7047  0.3118
 8944SOL     OW35609   2.435   2.151   7.883 -0.0261  0.2093 -0.2315
 8944SOL    HW135610   2.499   2.116   7.821  0.7274  1.8057 -0.4091
 8944SOL    HW235611   2.392   2.074   7.919 -0.1701 -0.7804 -2.3899
 8945SOL     OW35612   2.609  12.535   8.277 -0.1341  0.3615 -0.3049
 8945SOL    HW135613   2.526  12.539   8.228  0.2715 -0.1019 -1.0481
 8945SOL    HW235614   2.592  12.586   8.356 -0.3272  2.4953 -1.6391
 8946SOL     OW35615  12.386   7.377   7.082 -0.1307  0.0167  0.2410
 8946SOL    HW135616  12.311   7.337   7.037  0.0164 -1.4817  1.2383
 8946SOL    HW235617  12.363   7.373   7.175 -0.4786  3.1472  0.3833
 8947SOL     OW35618  12.405  11.994   5.853 -0.5212 -0.3144 -0.3639
 8947SOL    HW135619  12.484  12.047   5.863  0.1635 -0.9911 -1.7653
 8947SOL    HW235620  12.342  12.052   5.809  0.0829 -0.5043 -1.5197
 8948SOL     OW35621  10.894   1.322   9.056  0.0041 -0.1139  0.1605
 8948SOL    HW135622  10.976   1.353   9.094  0.6896 -0.2271 -1.1488
 8948SOL    HW235623  10.826   1.373   9.101  0.8925  1.1126  0.1870
 8949SOL     OW35624   3.710   3.766   0.174  0.3615 -0.0197 -0.8531
 8949SOL    HW135625   3.650   3.791   0.104 -0.2379  0.3621 -0.2161
 8949SOL    HW235626   3.788   3.819   0.157  0.1506  0.2106 -1.1293
 8950SOL     OW35627   2.100   8.653   4.211 -0.1496  0.4342 -0.4136
 8950SOL    HW135628   2.070   8.571   4.249 -2.0536  1.2869  0.0396
 8950SOL    HW235629   2.109   8.635   4.118  1.2635 -0.7605 -0.0806
 8951SOL     OW35630   5.822   0.290   3.347 -0.1478 -0.3131  0.0051
 8951SOL    HW135631   5.917   0.302   3.353  0.0028 -0.9006 -0.8295
 8951SOL    HW235632   5.785   0.357   3.403  0.7968 -1.0349  1.5709
 8952SOL     OW35633   0.246   0.987   1.363 -0.7886  1.0087 -0.1054
 8952SOL    HW135634   0.213   1.049   1.428  2.3154  0.5345  2.1303
 8952SOL    HW235635   0.336   1.013   1.347 -0.5690 -0.6328 -2.1108
 8953SOL     OW35636   5.825   9.847   4.047 -0.1372 -0.1370 -0.9653
 8953SOL    HW135637   5.737   9.809   4.042 -0.9022  0.5212  3.3108
 8953SOL    HW235638   5.869   9.795   4.115  1.5320  1.6710 -0.5919
 8954SOL     OW35639  11.910   7.773   1.236 -0.1350  0.4249 -0.3153
 8954SOL    HW135640  11.939   7.827   1.309 -1.2102  0.2200  0.2894
 8954SOL    HW235641  11.818   7.798   1.223 -0.2321 -0.2343 -0.9593
 8955SOL     OW35642   8.653   9.492  12.006 -0.2828 -0.8016 -0.2149
 8955SOL    HW135643   8.741   9.484  11.969 -0.6713  0.2618 -1.3999
 8955SOL    HW235644   8.633   9.585  12.003 -1.7587 -1.1072 -0.6797
 8956SOL     OW35645   0.687   1.443   3.779  0.0271  0.3039  0.6843
 8956SOL    HW135646   0.724   1.360   3.808  0.7574  0.6008  0.6270
 8956SOL    HW235647   0.595   1.439   3.805 -0.6673 -1.6570 -1.7185
 8957SOL     OW35648   9.172   6.356  10.707  0.2060 -0.1421  0.4000
 8957SOL    HW135649   9.201   6.424  10.647 -1.3380  0.4236  0.2510
 8957SOL    HW235650   9.097   6.317  10.664  0.8517 -1.7299  0.6539
 8958SOL     OW35651   8.063   1.963   2.219  0.5860  0.8826  0.4537
 8958SOL    HW135652   7.982   1.948   2.171 -0.9400  0.5459  2.9428
 8958SOL    HW235653   8.095   1.875   2.241  0.4887  1.0212  1.1954
 8959SOL     OW35654   8.100   2.216   2.317  0.8700  0.2667  0.0586
 8959SOL    HW135655   8.021   2.262   2.288  2.3451  2.6816 -0.3995
 8959SOL    HW235656   8.090   2.127   2.281 -1.8363  0.3041  0.4913
 8960SOL     OW35657   2.574  10.980   1.557  0.1728  0.0867  0.0109
 8960SOL    HW135658   2.623  10.921   1.499  0.2088 -1.3143  1.3953
 8960SOL    HW235659   2.484  10.976   1.524  0.5448  0.8895 -1.1528
 8961SOL     OW35660   8.520   6.925  11.066  0.4718  0.2316 -0.0949
 8961SOL    HW135661   8.582   6.969  11.123  2.2438  1.2866 -2.6569
 8961SOL    HW235662   8.573   6.864  11.015 -1.2440 -1.6441  0.2269
 8962SOL     OW35663   6.129   7.921   1.228 -0.2022  0.2999 -0.0516
 8962SOL    HW135664   6.042   7.949   1.257  0.1408 -0.2757  1.6807
 8962SOL    HW235665   6.185   7.931   1.305  0.7807 -1.4128 -0.4658
 8963SOL     OW35666  11.444   4.971   8.274 -0.1174  0.2704  0.4776
 8963SOL    HW135667  11.481   5.056   8.299  1.3421 -0.5662  1.2849
 8963SOL    HW235668  11.350   4.987   8.267  0.0629  1.8134  1.1894
 8964SOL     OW35669   8.612  10.292   0.426 -0.0148  0.3149 -0.0674
 8964SOL    HW135670   8.573  10.350   0.493  0.7473  1.3910 -0.5252
 8964SOL    HW235671   8.570  10.208   0.440 -1.5225  1.0951  0.3212
 8965SOL     OW35672   6.650   6.037  11.237  0.1596 -0.2152 -0.0615
 8965SOL    HW135673   6.655   6.084  11.154 -0.6031 -0.0780 -0.0435
 8965SOL    HW235674   6.740   6.028  11.266  0.4198 -0.1212 -0.8286
 8966SOL     OW35675   1.714   6.456   4.823 -0.3401  0.1125  0.0642
 8966SOL    HW135676   1.629   6.460   4.866 -0.0021  0.8238  0.7057
 8966SOL    HW235677   1.768   6.517   4.873  1.1941 -1.9650  1.1405
 8967SOL     OW35678   4.476   8.974  10.088  0.0245  0.2702 -0.0743
 8967SOL    HW135679   4.544   8.990  10.022  0.4619 -0.9755  0.0378
 8967SOL    HW235680   4.520   8.922  10.155 -1.0421 -0.6215 -0.0333
 8968SOL     OW35681  11.422   8.943   8.216  0.5664  0.5317 -0.5657
 8968SOL    HW135682  11.445   9.018   8.272  0.4080 -1.7380  2.8683
 8968SOL    HW235683  11.335   8.964   8.183 -0.5374  1.0041  2.2967
 8969SOL     OW35684   6.836   6.461   0.380  0.0526 -0.5396 -0.3624
 8969SOL    HW135685   6.830   6.493   0.290 -2.2536  0.8556  0.1950
 8969SOL    HW235686   6.921   6.491   0.412 -0.2732  1.4465 -1.2171
 8970SOL     OW35687   8.871   0.486   8.658  0.1053  0.0978  0.0826
 8970SOL    HW135688   8.828   0.551   8.603  0.3915  0.0877 -0.1586
 8970SOL    HW235689   8.831   0.403   8.633  1.7414 -0.2375 -1.7325
 8971SOL     OW35690   0.264   0.717   4.501 -0.3189 -0.1397 -0.1226
 8971SOL    HW135691   0.212   0.753   4.572  0.8423  2.6274 -0.5257
 8971SOL    HW235692   0.245   0.623   4.501 -1.3908 -0.0114  2.9077
 8972SOL     OW35693   1.916   8.825   1.107  0.0339  0.2241 -0.3406
 8972SOL    HW135694   1.979   8.755   1.121  1.9423  1.7057 -1.0604
 8972SOL    HW235695   1.968   8.905   1.112 -1.7680  1.5152 -1.1592
 8973SOL     OW35696   2.125   3.863   7.776 -0.0629 -0.1888  0.2433
 8973SOL    HW135697   2.106   3.955   7.756 -1.1767 -0.2063  1.0469
 8973SOL    HW235698   2.063   3.813   7.723  1.2166 -0.5552 -0.9595
 8974SOL     OW35699   5.491   9.889   5.475  0.2452  0.2842  0.1108
 8974SOL    HW135700   5.492   9.794   5.475 -1.0733  0.2403 -0.3689
 8974SOL    HW235701   5.582   9.915   5.463  0.7500 -0.8969  1.1673
 8975SOL     OW35702   6.965   1.290   1.533 -0.1055 -0.1968 -0.6169
 8975SOL    HW135703   7.039   1.271   1.592  0.5615 -0.5712 -1.5531
 8975SOL    HW235704   6.892   1.308   1.592  0.7911  0.4336  0.3337
 8976SOL     OW35705   2.668  12.262   3.245  0.1880 -0.5688  0.2748
 8976SOL    HW135706   2.628  12.267   3.332 -0.1506 -0.3797  0.1093
 8976SOL    HW235707   2.761  12.254   3.263  0.2182  0.4098  0.6474
 8977SOL     OW35708  11.519  10.367   0.793 -0.5104  0.4341  0.5679
 8977SOL    HW135709  11.446  10.326   0.840  0.0605 -0.4963  0.6850
 8977SOL    HW235710  11.535  10.309   0.719  0.3349  0.4205  0.7470
 8978SOL     OW35711   1.782   4.634   7.251 -0.2183 -0.4987 -0.1635
 8978SOL    HW135712   1.731   4.576   7.193  0.4880  0.8099 -2.1800
 8978SOL    HW235713   1.836   4.574   7.302 -0.9277 -1.7079 -0.7753
 8979SOL     OW35714   1.794  11.260   5.533 -0.2188  0.4735  0.9887
 8979SOL    HW135715   1.744  11.220   5.462  0.6043 -0.0900  0.7072
 8979SOL    HW235716   1.791  11.195   5.604  0.3243  0.3173  0.8735
 8980SOL     OW35717  11.633   5.943  12.430 -0.1828 -0.3125 -0.1677
 8980SOL    HW135718  11.591   5.871  12.382  0.7839 -0.4045 -0.8961
 8980SOL    HW235719  11.664   6.003  12.362  0.4359 -0.0058  0.3721
 8981SOL     OW35720   6.992   7.336   8.742  0.7772 -0.6141 -0.0223
 8981SOL    HW135721   7.043   7.282   8.803  0.3939 -0.9620 -0.0010
 8981SOL    HW235722   7.035   7.421   8.744  0.9428 -0.7037  0.5200
 8982SOL     OW35723  11.047  12.169   0.005 -0.2041  0.1355 -0.2135
 8982SOL    HW135724  10.973  12.109   0.011  0.9062 -1.4258 -1.4114
 8982SOL    HW235725  11.069  12.172  -0.088  0.6073  1.3722 -0.0067
 8983SOL     OW35726   0.468   6.590   4.500 -0.2497  0.1854  0.3997
 8983SOL    HW135727   0.544   6.534   4.481 -0.9108 -1.6900  2.7898
 8983SOL    HW235728   0.499   6.649   4.569 -0.4982  0.5641  0.1915
 8984SOL     OW35729   1.174   0.548   1.072  0.2139 -0.0272  0.1276
 8984SOL    HW135730   1.083   0.555   1.099 -0.3744 -0.0371 -1.7036
 8984SOL    HW235731   1.221   0.613   1.125 -1.1476  1.1876 -0.1009
 8985SOL     OW35732  12.608  12.411   0.756 -0.5061 -0.0099  0.1981
 8985SOL    HW135733  12.619  12.506   0.766  0.6729 -0.0596 -0.3948
 8985SOL    HW235734  12.616  12.397   0.662  0.0367 -0.7773  0.3550
 8986SOL     OW35735   7.404   1.341   2.757  0.2367 -0.5499  0.6142
 8986SOL    HW135736   7.376   1.384   2.676  0.8112  0.3205  0.8648
 8986SOL    HW235737   7.366   1.254   2.752 -2.2350  0.4364  0.7817
 8987SOL     OW35738  10.489   4.826   3.109  0.0467  0.4509  0.3880
 8987SOL    HW135739  10.421   4.890   3.133 -1.8671  0.2148 -3.5430
 8987SOL    HW235740  10.442   4.743   3.103  1.3191 -0.2775  0.1847
 8988SOL     OW35741   9.564   9.656  10.364 -0.3167 -0.0228 -0.3983
 8988SOL    HW135742   9.581   9.570  10.325 -0.8575 -0.1882 -0.2809
 8988SOL    HW235743   9.504   9.638  10.437 -1.2555  0.5633 -0.9953
 8989SOL     OW35744   5.494  12.083   9.546 -0.3073 -0.2096 -0.0745
 8989SOL    HW135745   5.517  12.050   9.459  0.7127 -2.0655  0.8444
 8989SOL    HW235746   5.574  12.128   9.576 -0.7025  0.5494 -0.1292
 8990SOL     OW35747   3.756   9.028   3.602 -0.0299  0.1049  0.5639
 8990SOL    HW135748   3.701   8.964   3.558  0.3837 -0.8919  1.4668
 8990SOL    HW235749   3.711   9.046   3.685  1.6421 -1.7746  1.9500
 8991SOL     OW35750   9.203   7.888  10.881  0.7168  0.2243 -0.5256
 8991SOL    HW135751   9.229   7.798  10.900  0.8874  0.1397 -1.1325
 8991SOL    HW235752   9.276   7.941  10.913  0.1104  0.2425  0.8827
 8992SOL     OW35753   6.123   3.563   7.207 -0.0590  0.0355  0.2074
 8992SOL    HW135754   6.061   3.637   7.202  0.6224  0.7413  1.6737
 8992SOL    HW235755   6.100   3.519   7.289  0.2503 -0.7518 -0.1238
 8993SOL     OW35756   0.450   6.457   9.506  0.0365 -0.0251 -0.2585
 8993SOL    HW135757   0.482   6.541   9.474  0.4670 -0.2173 -0.3538
 8993SOL    HW235758   0.358   6.455   9.482 -0.1300  0.6779  0.2948
 8994SOL     OW35759  10.375   6.685   7.491 -0.7709  0.2173  0.0720
 8994SOL    HW135760  10.306   6.750   7.508 -0.2500  0.7789  0.0727
 8994SOL    HW235761  10.413   6.668   7.576  0.2188  1.1987 -0.1521
 8995SOL     OW35762   3.089  11.296   3.704 -0.2871  0.2589  0.0693
 8995SOL    HW135763   2.994  11.296   3.700 -0.3261 -0.5263  0.6980
 8995SOL    HW235764   3.116  11.349   3.630 -1.2181  0.6604  0.0054
 8996SOL     OW35765   4.954   7.797  11.533 -0.4460  0.0816 -0.3234
 8996SOL    HW135766   4.977   7.818  11.623  1.0965 -2.2708 -0.0962
 8996SOL    HW235767   4.906   7.715  11.539 -0.9176  0.2328 -1.6210
 8997SOL     OW35768   3.385   4.334   0.253  0.5692  0.0139 -0.3659
 8997SOL    HW135769   3.393   4.328   0.348 -1.0905  2.1812 -0.0008
 8997SOL    HW235770   3.469   4.302   0.220  2.3054  1.7733  1.9808
 8998SOL     OW35771   4.804   0.438   1.782 -0.0727  0.8764 -0.2904
 8998SOL    HW135772   4.810   0.407   1.692 -1.1175 -1.4414  0.3790
 8998SOL    HW235773   4.851   0.373   1.834 -1.7572  0.6802  1.1010
 8999SOL     OW35774   9.324  12.511  10.809  0.1381 -0.4708 -0.4507
 8999SOL    HW135775   9.382  12.571  10.761 -0.7564  0.5249 -0.3235
 8999SOL    HW235776   9.236  12.540  10.786 -0.3105 -0.7319  0.8685
 9000SOL     OW35777   2.899   9.607   0.945 -0.0193  0.2330  0.1767
 9000SOL    HW135778   2.981   9.566   0.918  0.9817  2.4446 -0.3736
 9000SOL    HW235779   2.903   9.608   1.041  0.0693 -0.6285  0.1890
 9001SOL     OW35780  11.840   4.882   8.383 -0.1445 -0.1620  0.0372
 9001SOL    HW135781  11.799   4.943   8.445  0.1925  0.1048 -0.0007
 9001SOL    HW235782  11.796   4.899   8.300 -1.8576 -1.7388  0.5491
 9002SOL     OW35783  10.275  10.697   3.222  0.5379  0.2565 -0.0246
 9002SOL    HW135784  10.227  10.706   3.140 -1.5880  1.0333  1.2357
 9002SOL    HW235785  10.326  10.617   3.211  1.5741  1.1592 -2.6722
 9003SOL     OW35786   6.150   1.331   1.136 -0.2084  0.0457  0.3903
 9003SOL    HW135787   6.223   1.363   1.187  1.0357 -0.6139 -0.8965
 9003SOL    HW235788   6.132   1.243   1.171  0.4779 -0.3060 -0.1123
 9004SOL     OW35789   8.819   4.635   2.766 -0.0652  0.5619  0.0171
 9004SOL    HW135790   8.912   4.647   2.747 -0.1179  0.0920 -0.6004
 9004SOL    HW235791   8.817   4.593   2.852  0.3056  0.4606 -0.0210
 9005SOL     OW35792   1.643   8.405   4.896  0.2346  0.3710  0.1346
 9005SOL    HW135793   1.675   8.346   4.965  1.0279  1.4953  0.7702
 9005SOL    HW235794   1.645   8.492   4.936 -0.4102  0.9053 -0.9429
 9006SOL     OW35795   3.310   0.325   9.819 -0.3765 -0.6769 -0.1227
 9006SOL    HW135796   3.389   0.278   9.789 -1.3122 -3.5412  1.5117
 9006SOL    HW235797   3.251   0.322   9.744  0.2649 -0.4226 -0.6518
 9007SOL     OW35798   4.064   6.142  11.938 -0.2270  0.5006  0.2327
 9007SOL    HW135799   4.002   6.090  11.990 -0.2945  1.9834  1.7208
 9007SOL    HW235800   4.025   6.229  11.935  0.9530  1.0277 -0.2804
 9008SOL     OW35801   7.492   3.649   3.934  0.5948 -0.2423 -0.3808
 9008SOL    HW135802   7.424   3.699   3.978 -0.1802 -1.7801  0.2497
 9008SOL    HW235803   7.570   3.704   3.940 -0.1410  0.7493  0.5209
 9009SOL     OW35804   9.029  11.688   5.844  0.1347  0.2756 -0.3175
 9009SOL    HW135805   9.117  11.711   5.815  0.4983  0.4610  0.8563
 9009SOL    HW235806   9.041  11.611   5.900 -0.5948 -0.3609 -1.0021
 9010SOL     OW35807  10.132  11.316   2.771  0.8811 -0.3379 -0.4141
 9010SOL    HW135808  10.179  11.242   2.810  1.3789 -1.3136 -2.6666
 9010SOL    HW235809  10.062  11.336   2.833  2.5313 -0.7280  1.6706
 9011SOL     OW35810   9.876   6.216   7.550  0.2998  0.4992 -0.1011
 9011SOL    HW135811   9.851   6.296   7.504  3.1949  0.8417 -1.3163
 9011SOL    HW235812   9.889   6.243   7.641  1.8755  1.6086 -0.6227
 9012SOL     OW35813   4.776   1.173   7.330 -0.5472  0.4559  0.1452
 9012SOL    HW135814   4.763   1.178   7.235 -0.7756 -1.5679  0.0126
 9012SOL    HW235815   4.783   1.264   7.359 -3.1084  1.2705 -1.4610
 9013SOL     OW35816   4.006   2.530   0.498  0.0544 -0.3468  0.3276
 9013SOL    HW135817   3.975   2.615   0.528  1.4667 -0.1787  1.3954
 9013SOL    HW235818   3.950   2.467   0.544  0.2248 -0.0258  0.9824
 9014SOL     OW35819   0.959   1.823  11.869 -0.2925  0.1471  0.1352
 9014SOL    HW135820   0.894   1.778  11.923  0.1194 -0.6739 -0.0296
 9014SOL    HW235821   1.029   1.845  11.930 -0.8452  1.2984  0.3700
 9015SOL     OW35822   3.131   9.000   5.504  0.2870  0.5181  0.2403
 9015SOL    HW135823   3.078   9.050   5.442 -0.6782  1.1243  1.5022
 9015SOL    HW235824   3.067   8.953   5.557  1.0869  0.0362  0.7955
 9016SOL     OW35825   9.408   6.763   6.173 -0.4055 -0.7971 -0.1577
 9016SOL    HW135826   9.361   6.846   6.178 -2.1558 -1.6135 -1.8619
 9016SOL    HW235827   9.499   6.788   6.154 -1.3316  0.7551 -3.1322
 9017SOL     OW35828  12.105   3.203   2.477  0.1404 -0.2359 -0.1064
 9017SOL    HW135829  12.081   3.210   2.570 -2.7669  0.7275 -0.7987
 9017SOL    HW235830  12.176   3.266   2.466  1.3033 -1.1615  1.6281
 9018SOL     OW35831   0.219   2.092   3.740  0.3265 -0.4967  0.1193
 9018SOL    HW135832   0.295   2.052   3.784  2.2899  0.1661 -2.4210
 9018SOL    HW235833   0.224   2.185   3.763 -0.1102 -0.5456  0.4319
 9019SOL     OW35834   9.429   6.511   4.500  0.5794 -0.1023 -0.0877
 9019SOL    HW135835   9.404   6.495   4.591  0.7998  0.1009  0.0087
 9019SOL    HW235836   9.523   6.530   4.503  0.5029  0.3249 -0.3051
 9020SOL     OW35837   2.331   7.492   4.818 -0.1863 -0.1582  0.1357
 9020SOL    HW135838   2.418   7.529   4.828  0.2485 -0.7388 -1.2126
 9020SOL    HW235839   2.307   7.461   4.905  2.0153 -2.2454  0.1020
 9021SOL     OW35840   8.855   3.276   0.044 -0.1086  0.0781  0.9382
 9021SOL    HW135841   8.923   3.341   0.065  1.0178 -0.9300  0.5556
 9021SOL    HW235842   8.807   3.265   0.126  0.4229  0.5493  1.3254
 9022SOL     OW35843   5.685   3.847   9.127  0.3204 -0.1421  0.4207
 9022SOL    HW135844   5.597   3.854   9.166  0.1596  2.1510 -0.1755
 9022SOL    HW235845   5.744   3.849   9.202 -0.0164  3.4790  0.8155
 9023SOL     OW35846   3.983   0.930   9.430 -0.3327  0.1185 -0.2004
 9023SOL    HW135847   3.949   1.012   9.394  0.4442  1.6753  2.2984
 9023SOL    HW235848   3.905   0.883   9.461 -0.6458  0.8676  0.1637
 9024SOL     OW35849   9.221   6.167   1.231  0.0046  0.7879 -0.1246
 9024SOL    HW135850   9.253   6.083   1.265  1.4781  1.3294 -0.0910
 9024SOL    HW235851   9.127   6.163   1.244  0.2367 -0.0742  1.6705
 9025SOL     OW35852   3.435  12.606   8.479  0.3112 -0.4809 -0.9777
 9025SOL    HW135853   3.406  12.519   8.507  0.4721 -0.0773  0.5369
 9025SOL    HW235854   3.359  12.643   8.434 -0.4985 -0.6111  0.2317
 9026SOL     OW35855  10.598   8.126  10.276  0.1597 -0.1057  0.0967
 9026SOL    HW135856  10.589   8.173  10.358 -0.7084  0.9751 -0.5887
 9026SOL    HW235857  10.664   8.058  10.294  0.5503  0.5987  1.4465
 9027SOL     OW35858   0.508   5.094  11.177 -0.5074 -0.0922  0.0347
 9027SOL    HW135859   0.497   5.033  11.104 -0.5981  0.2833 -0.2689
 9027SOL    HW235860   0.591   5.139  11.159 -1.3733  1.2318 -0.7594
 9028SOL     OW35861  10.044   5.690  12.353  0.5758  0.6353  0.1505
 9028SOL    HW135862   9.955   5.663  12.373  1.3220 -1.0773  1.3744
 9028SOL    HW235863  10.064   5.756  12.419  0.3882  0.6621  0.1813
 9029SOL     OW35864  11.855   3.924   9.284  0.3093  0.1223 -0.4172
 9029SOL    HW135865  11.922   3.948   9.346 -0.3186  0.5760  0.0927
 9029SOL    HW235866  11.806   3.854   9.327  0.3337 -0.0802 -0.7097
 9030SOL     OW35867   1.239   0.022   6.248 -0.3414 -0.3551  0.2809
 9030SOL    HW135868   1.320  -0.004   6.203 -0.6596 -0.1903 -0.4054
 9030SOL    HW235869   1.201  -0.060   6.279  0.3368 -0.3908  1.0471
 9031SOL     OW35870  12.532   1.789  11.289 -0.2138 -0.1657 -0.0998
 9031SOL    HW135871  12.506   1.847  11.217 -0.2506 -0.7570 -0.5707
 9031SOL    HW235872  12.491   1.705  11.268  1.0895 -0.7911 -0.2286
 9032SOL     OW35873   3.080  11.197   8.030  0.0968  0.4646 -0.2990
 9032SOL    HW135874   3.166  11.234   8.048  1.6815 -2.6161 -0.7433
 9032SOL    HW235875   3.063  11.137   8.103 -0.1675 -1.2539 -1.6870
 9033SOL     OW35876  11.053   9.934   2.152 -0.1159  0.0544 -0.3857
 9033SOL    HW135877  11.146   9.922   2.171 -0.0983  1.4115  0.5115
 9033SOL    HW235878  11.043  10.029   2.143 -1.3701 -0.1019 -0.7565
 9034SOL     OW35879   5.394  11.632   4.914  0.3010  0.0888  0.7636
 9034SOL    HW135880   5.338  11.661   4.986  0.3399 -0.8617  1.1814
 9034SOL    HW235881   5.401  11.538   4.925  1.4175  0.1032  0.2981
 9035SOL     OW35882   0.219   0.917   2.705  0.6960  0.0769 -0.1778
 9035SOL    HW135883   0.244   0.838   2.657  2.2153  0.9962 -0.9835
 9035SOL    HW235884   0.276   0.917   2.782 -0.5809 -0.5268  0.8050
 9036SOL     OW35885   7.967   6.807   8.108 -0.0121 -0.4319  0.3362
 9036SOL    HW135886   7.908   6.808   8.183 -0.2021 -2.9569  0.2794
 9036SOL    HW235887   7.921   6.856   8.040  1.0294  3.8110  2.3371
 9037SOL     OW35888  12.013   8.481   3.695  0.0538 -0.0256  0.0677
 9037SOL    HW135889  11.977   8.563   3.661 -2.5492 -1.3133 -0.5667
 9037SOL    HW235890  11.987   8.415   3.630  0.0351 -1.6757  1.6765
 9038SOL     OW35891   4.674  11.000   1.489 -0.3795 -0.1986 -0.4662
 9038SOL    HW135892   4.671  10.906   1.472 -0.4641 -0.3024  0.1227
 9038SOL    HW235893   4.619  11.012   1.566 -2.2754  0.6479 -1.8809
 9039SOL     OW35894   6.920   2.097   7.206  0.4972  0.1014  0.3377
 9039SOL    HW135895   6.870   2.178   7.208 -0.2427 -0.3418  2.0317
 9039SOL    HW235896   6.915   2.063   7.296  1.6431 -1.2972 -0.0766
 9040SOL     OW35897  10.833   5.419   3.256 -0.1444  0.2516 -0.3634
 9040SOL    HW135898  10.778   5.346   3.284  0.7699 -0.2317  0.2140
 9040SOL    HW235899  10.875   5.449   3.336  0.8538  0.2566 -0.8758
 9041SOL     OW35900   8.198   1.648  12.156 -0.5529  0.3705 -0.7426
 9041SOL    HW135901   8.151   1.579  12.203  0.4821  1.3383  1.9099
 9041SOL    HW235902   8.289   1.635  12.180  0.3817 -0.1774 -4.1072
 9042SOL     OW35903  12.494   1.561   9.200  0.5543  0.4708 -0.2911
 9042SOL    HW135904  12.507   1.467   9.182 -1.8908 -0.2556  1.2746
 9042SOL    HW235905  12.453   1.595   9.121  1.5899  0.2840 -0.9281
 9043SOL     OW35906   2.651   2.880   2.402  0.1202  0.0998  0.0204
 9043SOL    HW135907   2.635   2.796   2.445  0.0552  0.4011  0.5921
 9043SOL    HW235908   2.638   2.945   2.471 -1.7908  0.7343 -0.8511
 9044SOL     OW35909   6.969   2.480   5.729  0.2971  0.0391  0.2480
 9044SOL    HW135910   7.024   2.526   5.792  0.9193  0.6763 -0.7301
 9044SOL    HW235911   6.941   2.548   5.668  0.6977 -0.7576 -0.8472
 9045SOL     OW35912  11.530  11.152  10.843  0.2496  0.2790  0.1665
 9045SOL    HW135913  11.500  11.135  10.932 -1.2138 -0.4146 -0.4184
 9045SOL    HW235914  11.624  11.139  10.846  0.0895 -0.7841  1.3871
 9046SOL     OW35915  11.083   0.035   8.478  0.2951  0.4687 -0.0697
 9046SOL    HW135916  11.079   0.062   8.386  1.5644  2.7652  0.4636
 9046SOL    HW235917  11.064   0.115   8.526  0.4242 -0.5235  1.6892
 9047SOL     OW35918   1.512   6.102   0.777 -0.6200  0.1548  0.0125
 9047SOL    HW135919   1.584   6.085   0.717 -2.1170 -2.5556 -1.1872
 9047SOL    HW235920   1.527   6.044   0.852 -1.0562  0.2665  0.1924
 9048SOL     OW35921   9.010   2.189   9.337  0.1261  0.9011  0.3116
 9048SOL    HW135922   9.018   2.228   9.250 -0.1478  1.4741  0.5402
 9048SOL    HW235923   8.921   2.154   9.340  0.7801 -0.9730 -0.3830
 9049SOL     OW35924   4.273   6.178   4.013 -0.3361 -0.2987 -0.0213
 9049SOL    HW135925   4.314   6.097   4.043 -0.6554 -0.5053 -0.1384
 9049SOL    HW235926   4.295   6.243   4.080  0.5567 -0.2959 -0.3039
 9050SOL     OW35927   3.546  11.175   2.803 -0.0528  0.3227 -0.1837
 9050SOL    HW135928   3.486  11.245   2.828 -1.3138 -0.5187 -0.7043
 9050SOL    HW235929   3.488  11.103   2.777  1.1824  0.0075 -2.2407
 9051SOL     OW35930   2.616   9.372   7.607 -0.0317 -0.0555 -0.1170
 9051SOL    HW135931   2.702   9.334   7.627 -0.1714 -0.1558  0.3028
 9051SOL    HW235932   2.612   9.372   7.512  0.1170 -0.7768 -0.1337
 9052SOL     OW35933   1.386  10.543  11.675  0.1163  0.3058 -0.3809
 9052SOL    HW135934   1.470  10.515  11.711  0.6230  1.4083 -0.6609
 9052SOL    HW235935   1.384  10.638  11.688 -1.4417  0.2200  0.3433
 9053SOL     OW35936   3.753   0.448   9.079 -0.2603  0.3781  0.3568
 9053SOL    HW135937   3.716   0.384   9.140 -0.9357  0.6721  0.2701
 9053SOL    HW235938   3.695   0.444   9.003 -1.2291  2.1532  0.9387
 9054SOL     OW35939   6.040   1.529  12.296  0.0212  0.0398 -0.2277
 9054SOL    HW135940   6.046   1.546  12.390  0.3027 -0.0108 -0.2354
 9054SOL    HW235941   5.949   1.549  12.274 -0.0267  0.1257  0.0407
 9055SOL     OW35942   2.219  11.072   3.309 -0.3548  0.0448  0.1812
 9055SOL    HW135943   2.137  11.029   3.285  0.1274 -0.7778 -0.0301
 9055SOL    HW235944   2.242  11.124   3.233 -0.8070  0.4693  0.3343
 9056SOL     OW35945   5.404  10.278   0.092 -0.2069 -0.2265 -0.1004
 9056SOL    HW135946   5.425  10.370   0.109 -0.3455  0.1619 -1.8228
 9056SOL    HW235947   5.309  10.278   0.077 -0.1633 -0.6007 -0.3788
 9057SOL     OW35948   5.775   7.709   3.534  0.0627 -0.5691 -0.2305
 9057SOL    HW135949   5.810   7.673   3.453  0.2078  0.2297 -0.5318
 9057SOL    HW235950   5.803   7.801   3.534 -1.3165 -0.1157 -0.0894
 9058SOL     OW35951   6.820   4.665  10.449 -0.4833 -0.2356  0.6633
 9058SOL    HW135952   6.880   4.732  10.417  0.2028 -0.9074  0.5117
 9058SOL    HW235953   6.778   4.705  10.524  1.4793 -0.3453  1.9081
 9059SOL     OW35954  10.177   1.515   3.433 -0.9631  0.5569 -0.0561
 9059SOL    HW135955  10.095   1.561   3.412 -0.8299  1.3812  1.1416
 9059SOL    HW235956  10.223   1.575   3.491 -1.3149 -1.5797  2.6124
 9060SOL     OW35957   6.398   3.636   7.503  0.0703  0.0407  0.0985
 9060SOL    HW135958   6.352   3.625   7.586  0.1674  1.3747  0.3508
 9060SOL    HW235959   6.446   3.718   7.512 -0.1054  0.3465 -1.3497
 9061SOL     OW35960   0.956   2.367  12.100  0.0492  0.6546  0.2377
 9061SOL    HW135961   0.919   2.452  12.125  0.2609  0.7707  0.1579
 9061SOL    HW235962   0.880   2.311  12.087 -0.0948  0.8501  0.2296
 9062SOL     OW35963   7.337   7.837   3.536  0.1762  0.0185 -0.2258
 9062SOL    HW135964   7.416   7.891   3.545  0.2478 -0.1902  0.4711
 9062SOL    HW235965   7.369   7.750   3.514  0.4265 -0.8840  3.0990
 9063SOL     OW35966   1.666   1.466   5.406 -0.2390  0.0699 -0.0571
 9063SOL    HW135967   1.699   1.477   5.317 -1.3395  1.0747 -0.3712
 9063SOL    HW235968   1.661   1.371   5.418  0.6846 -0.0772 -0.7632
 9064SOL     OW35969   4.596   1.753   2.166  0.0063  0.1322 -0.4061
 9064SOL    HW135970   4.580   1.659   2.174 -1.7249  0.4293 -0.0883
 9064SOL    HW235971   4.576   1.773   2.074 -2.8115  0.6904  0.2354
 9065SOL     OW35972  10.907   9.758  11.460 -0.2442  0.0932  0.1508
 9065SOL    HW135973  10.847   9.739  11.532  0.3110 -0.1138  0.5682
 9065SOL    HW235974  10.965   9.826  11.495 -0.4737  0.5759 -0.3825
 9066SOL     OW35975   5.151   9.251  10.558  0.1177  0.5242  0.1593
 9066SOL    HW135976   5.232   9.200  10.563 -0.2415 -0.0207  0.5749
 9066SOL    HW235977   5.088   9.191  10.519 -0.3344  0.6188  0.7264
 9067SOL     OW35978   6.987   5.339   0.281 -0.5678 -0.1956 -0.1782
 9067SOL    HW135979   6.966   5.360   0.372 -1.5933  0.1347 -0.4759
 9067SOL    HW235980   7.011   5.423   0.242  1.0382 -0.5169  0.0682
 9068SOL     OW35981   6.380   8.073   9.134 -0.6072 -0.3526  0.3919
 9068SOL    HW135982   6.372   8.051   9.227 -0.9802 -0.2223  0.3927
 9068SOL    HW235983   6.332   8.003   9.089 -1.5775  0.2926  0.3782
 9069SOL     OW35984   1.988   0.645   5.067  0.2661 -0.0500  0.4779
 9069SOL    HW135985   2.061   0.704   5.088  0.2764  0.3662 -0.6491
 9069SOL    HW235986   2.025   0.583   5.004  0.7740 -2.4765  3.0111
 9070SOL     OW35987   1.388   0.226   9.577  0.3136 -0.0243  0.0103
 9070SOL    HW135988   1.408   0.205   9.668 -0.6604 -1.4905 -0.0734
 9070SOL    HW235989   1.333   0.153   9.547 -0.8979  1.3267 -1.2059
 9071SOL     OW35990   9.303   2.326   6.601  0.4771 -0.2943 -0.7616
 9071SOL    HW135991   9.213   2.341   6.630  1.1500  1.8424  0.3888
 9071SOL    HW235992   9.340   2.413   6.591  2.3893 -1.1338 -1.4127
 9072SOL     OW35993  12.547   6.919   4.012 -0.2430  0.3145 -0.1153
 9072SOL    HW135994  12.546   6.950   3.921 -0.5652  0.7724  0.0420
 9072SOL    HW235995  12.509   6.831   4.007 -3.1119  1.4521 -0.0449
 9073SOL     OW35996   7.577   4.488   4.559  0.2703 -0.2644 -0.6536
 9073SOL    HW135997   7.613   4.496   4.470 -0.9474 -0.5182 -1.1894
 9073SOL    HW235998   7.483   4.504   4.548  0.2216  0.5284  0.7311
 9074SOL     OW35999   5.340   0.306   0.342  0.2405 -0.5357 -0.1628
 9074SOL    HW136000   5.291   0.227   0.363  0.9049 -0.1666  3.4055
 9074SOL    HW236001   5.276   0.377   0.349  0.1847 -0.4997 -0.9062
 9075SOL     OW36002   7.393   1.841   6.376 -0.6681  0.0276 -0.0516
 9075SOL    HW136003   7.385   1.897   6.453  0.6324  0.6137 -0.3014
 9075SOL    HW236004   7.404   1.753   6.411  1.0434  0.4208  0.5328
 9076SOL     OW36005   4.561   2.616   2.030  0.0494  0.4683  0.4078
 9076SOL    HW136006   4.564   2.642   1.938 -0.9674 -0.6049  0.0365
 9076SOL    HW236007   4.508   2.683   2.073 -1.9006 -0.4757 -0.3786
 9077SOL     OW36008   4.915  10.182   9.797  0.0617  0.4757  0.5937
 9077SOL    HW136009   4.916  10.138   9.712  1.2815  0.7701  0.4465
 9077SOL    HW236010   4.828  10.223   9.801 -0.1938  0.0587 -0.2938
 9078SOL     OW36011   9.917   3.244  10.966 -0.0233 -0.0154  0.0111
 9078SOL    HW136012   9.852   3.250  10.896 -0.7974 -1.3715  0.5731
 9078SOL    HW236013   9.873   3.279  11.043 -1.2067 -3.3806  1.0660
 9079SOL     OW36014   3.061   4.619  11.359  0.1052 -0.1225  0.2137
 9079SOL    HW136015   3.086   4.541  11.409 -0.4144  0.2229  1.0346
 9079SOL    HW236016   3.136   4.637  11.303  0.1981 -1.2638 -0.0565
 9080SOL     OW36017   9.601   8.843  12.513  0.6499  0.3185  0.4941
 9080SOL    HW136018   9.682   8.875  12.554 -0.0130  0.5463  1.6743
 9080SOL    HW236019   9.586   8.757  12.553  0.5772  0.0521 -0.0987
 9081SOL     OW36020  11.536  10.797   1.085  0.2974 -0.0399  0.1530
 9081SOL    HW136021  11.569  10.796   1.175 -2.8188 -2.2821  1.4623
 9081SOL    HW236022  11.493  10.712   1.074 -1.5630  1.0957 -2.5808
 9082SOL     OW36023   6.254   9.968   2.305 -0.1542  0.5164 -0.1108
 9082SOL    HW136024   6.285   9.947   2.217  0.9380 -0.3120  0.4536
 9082SOL    HW236025   6.175  10.020   2.290 -0.0906  0.2436 -1.5770
 9083SOL     OW36026   3.711   9.041   5.426 -0.4053 -0.1070 -0.1857
 9083SOL    HW136027   3.683   8.955   5.392 -0.9802  0.5427 -1.4318
 9083SOL    HW236028   3.714   9.029   5.521 -1.2679 -1.2837 -0.2780
 9084SOL     OW36029   8.346   3.228   2.987  0.2879  0.4081 -0.5532
 9084SOL    HW136030   8.408   3.165   3.022  0.7492  0.0147 -2.0155
 9084SOL    HW236031   8.344   3.299   3.051  2.3886  0.5100 -0.5529
 9085SOL     OW36032   1.560  12.135   9.906  0.6237  0.0565 -0.4291
 9085SOL    HW136033   1.536  12.046   9.931 -0.4044  0.1724 -0.9934
 9085SOL    HW236034   1.484  12.188   9.930  1.7697  1.0476  1.2653
 9086SOL     OW36035   3.782   5.550   3.342  0.3919  0.3380 -0.2151
 9086SOL    HW136036   3.850   5.561   3.275  0.6047  2.9315  0.3300
 9086SOL    HW236037   3.826   5.566   3.425 -0.6161  0.8042  0.2521
 9087SOL     OW36038   5.830   1.952   6.844  0.0518 -0.3672 -0.2601
 9087SOL    HW136039   5.833   1.864   6.806 -0.1453 -0.2990 -0.4396
 9087SOL    HW236040   5.906   1.956   6.901 -1.0950 -1.4139  1.4305
 9088SOL     OW36041   2.033   1.707   5.958 -0.9202  0.3625 -0.1098
 9088SOL    HW136042   2.016   1.664   5.874 -1.5677  0.4017 -0.0032
 9088SOL    HW236043   2.061   1.637   6.016 -0.2504  0.3718 -0.4226
 9089SOL     OW36044   2.147  11.129  11.831  0.2361 -0.0885 -0.3218
 9089SOL    HW136045   2.079  11.169  11.884 -1.1873 -0.4517 -1.7881
 9089SOL    HW236046   2.145  11.177  11.748  0.7388 -1.0597 -0.9219
 9090SOL     OW36047  12.591   2.341   2.739 -0.8698 -0.6245  0.0973
 9090SOL    HW136048  12.545   2.417   2.705 -0.8860 -0.6905 -0.0298
 9090SOL    HW236049  12.667   2.377   2.784  0.3395 -0.6158 -1.8038
 9091SOL     OW36050   1.747   9.700   6.543 -0.3309  0.1429 -0.6281
 9091SOL    HW136051   1.787   9.616   6.519  1.3837  1.1654 -1.4982
 9091SOL    HW236052   1.820   9.760   6.551 -1.5955  1.7904 -0.9399
 9092SOL     OW36053   3.728  11.186   6.304  0.5967  0.5353  0.2370
 9092SOL    HW136054   3.649  11.148   6.265  0.5690  0.6400  0.1888
 9092SOL    HW236055   3.761  11.245   6.236  0.9853  0.1310  0.0616
 9093SOL     OW36056   7.094   1.390   6.914 -0.3920 -0.0281  0.0447
 9093SOL    HW136057   7.100   1.400   6.818  1.3053  0.8840  0.2073
 9093SOL    HW236058   7.095   1.295   6.928 -2.8134 -0.2708 -0.9068
 9094SOL     OW36059   2.045   8.261   7.850  0.0791  0.0769 -0.2461
 9094SOL    HW136060   2.048   8.257   7.945 -0.9754  0.2410 -0.1972
 9094SOL    HW236061   2.084   8.179   7.821  0.6668  0.1508  0.3157
 9095SOL     OW36062   4.769   2.428   8.680 -0.3021 -0.0826  0.0246
 9095SOL    HW136063   4.711   2.423   8.604 -0.4776  1.2778  0.0514
 9095SOL    HW236064   4.711   2.415   8.755 -0.2019 -0.9527 -0.0326
 9096SOL     OW36065   1.941  10.461  11.893  0.3229 -0.2261 -0.1480
 9096SOL    HW136066   1.905  10.417  11.971 -1.6915 -0.6411 -1.2368
 9096SOL    HW236067   2.009  10.518  11.927 -0.6051 -0.2696  1.9532
 9097SOL     OW36068   1.099   7.374   2.647  0.1639 -0.3640  0.0213
 9097SOL    HW136069   1.114   7.280   2.641 -1.3145 -0.6997  1.1264
 9097SOL    HW236070   1.184   7.410   2.672  0.6364 -1.4546  0.0213
 9098SOL     OW36071   0.527   2.978  10.716 -0.1084  0.5680 -0.6440
 9098SOL    HW136072   0.528   2.886  10.743  0.1177  1.2474  1.9852
 9098SOL    HW236073   0.613   2.994  10.678 -0.6507 -0.6121 -2.4741
 9099SOL     OW36074   6.189   8.663  12.140 -0.2365 -0.1933 -0.1081
 9099SOL    HW136075   6.232   8.586  12.102  0.0985 -0.0771  0.0266
 9099SOL    HW236076   6.101   8.633  12.162  0.1173 -0.7529  0.6181
 9100SOL     OW36077   6.509   9.027   7.544  0.7394  0.3746  0.1627
 9100SOL    HW136078   6.565   8.987   7.478 -2.3171 -1.0218 -1.8070
 9100SOL    HW236079   6.466   8.953   7.587 -1.6095  1.3880 -0.3272
 9101SOL     OW36080   5.188   9.511   5.770 -0.1140 -0.6679 -0.2870
 9101SOL    HW136081   5.167   9.485   5.860  1.8361  0.6782  0.6314
 9101SOL    HW236082   5.102   9.527   5.730 -1.0194 -0.4260  1.6044
 9102SOL     OW36083   1.685   3.593  11.325 -0.0549 -0.3537  0.1687
 9102SOL    HW136084   1.751   3.597  11.255 -0.4394  1.6710 -0.1423
 9102SOL    HW236085   1.602   3.603  11.279 -0.5206 -1.8095  0.6712
 9103SOL     OW36086  10.490   3.951   4.295 -0.7228 -0.2284 -0.0182
 9103SOL    HW136087  10.428   4.025   4.300 -0.8951 -0.3919  0.2866
 9103SOL    HW236088  10.506   3.940   4.201  0.8262  1.4595 -0.0206
 9104SOL     OW36089   6.650   1.328   1.999 -0.0510  0.3369 -0.5538
 9104SOL    HW136090   6.653   1.309   1.905 -0.6699  3.0285 -1.2155
 9104SOL    HW236091   6.700   1.257   2.040  2.5172  0.4668 -3.1649
 9105SOL     OW36092   8.385   1.063   0.944  0.5342 -0.6405  0.3142
 9105SOL    HW136093   8.299   1.101   0.928  1.2897  0.9574 -0.1698
 9105SOL    HW236094   8.424   1.056   0.857  0.8252 -1.5377  0.5133
 9106SOL     OW36095   7.750  12.032  10.535 -0.0501 -0.1093 -0.3563
 9106SOL    HW136096   7.748  12.124  10.508  1.8460 -0.1691 -0.9000
 9106SOL    HW236097   7.726  12.033  10.627 -0.6059  0.8669 -0.5029
 9107SOL     OW36098   1.948  11.119   6.546  0.6055  0.7608 -0.1151
 9107SOL    HW136099   1.950  11.029   6.576  1.4340  0.6861 -0.3659
 9107SOL    HW236100   2.012  11.165   6.601  1.9617  0.6723 -1.5307
 9108SOL     OW36101   6.914   5.892  11.731 -0.2805 -0.0618 -0.0204
 9108SOL    HW136102   6.836   5.935  11.768  0.3194  0.3873  0.7559
 9108SOL    HW236103   6.959   5.856  11.807  1.3481  1.4724 -0.2014
 9109SOL     OW36104   2.365  10.637   0.042 -0.1754 -0.3981  0.1306
 9109SOL    HW136105   2.404  10.569  -0.013  3.3139 -0.5448  2.4980
 9109SOL    HW236106   2.382  10.719  -0.006  2.7722 -0.5270  0.7367
 9110SOL     OW36107   4.528   4.348   8.381  0.6544 -0.1675 -0.0549
 9110SOL    HW136108   4.513   4.433   8.340  2.6352  0.2475 -0.0077
 9110SOL    HW236109   4.580   4.368   8.459 -0.8660 -1.2103  1.3022
 9111SOL     OW36110   4.903   4.371   4.635  0.0057 -0.6391  0.1370
 9111SOL    HW136111   4.911   4.466   4.643  0.6437 -0.6911  0.1590
 9111SOL    HW236112   4.810   4.353   4.651  0.1321 -0.1642  1.5710
 9112SOL     OW36113   9.913   6.835   6.547 -0.3563  0.1859  0.5804
 9112SOL    HW136114   9.881   6.804   6.632 -0.6105 -0.3941  0.2755
 9112SOL    HW236115   9.974   6.905   6.569 -1.0136  0.5759  1.2159
 9113SOL     OW36116   9.549   1.372   0.324 -0.6109  0.4372 -0.0191
 9113SOL    HW136117   9.477   1.359   0.262 -0.9655 -0.1430  0.5056
 9113SOL    HW236118   9.589   1.455   0.297  0.5997 -0.8006 -2.3740
 9114SOL     OW36119   7.634   4.175   0.716 -0.0423 -0.1469  0.0877
 9114SOL    HW136120   7.667   4.163   0.627  0.4335 -0.9426  0.3634
 9114SOL    HW236121   7.711   4.200   0.767 -0.5816  1.8592  0.0012
 9115SOL     OW36122   3.235  11.087   5.872 -0.2547 -0.0901 -0.3618
 9115SOL    HW136123   3.202  11.145   5.941  0.0239  0.1333 -0.4173
 9115SOL    HW236124   3.286  11.021   5.918 -1.3202 -0.8289 -0.2062
 9116SOL     OW36125   2.296   4.121   3.184 -0.6871  0.5406 -0.6756
 9116SOL    HW136126   2.289   4.071   3.103 -0.9163 -0.7908  0.1444
 9116SOL    HW236127   2.341   4.062   3.245 -0.6393  1.4677  0.2124
 9117SOL     OW36128   7.271   5.838  11.873 -0.2589  0.1556  0.1673
 9117SOL    HW136129   7.259   5.932  11.858  1.5369  0.1690 -1.6139
 9117SOL    HW236130   7.348   5.832  11.929 -0.8049 -0.2646  0.8943
 9118SOL     OW36131  11.313   7.263   7.924  0.1559 -0.1806  0.3659
 9118SOL    HW136132  11.372   7.189   7.912  0.1158 -0.2466  0.5675
 9118SOL    HW236133  11.368   7.340   7.904 -0.1527 -0.3216 -1.0899
 9119SOL     OW36134  12.538   4.907   6.341  0.0205 -0.1411  0.0378
 9119SOL    HW136135  12.587   4.825   6.335 -0.9538 -0.8205  0.9397
 9119SOL    HW236136  12.495   4.915   6.256 -0.5334 -1.0139  0.2155
 9120SOL     OW36137   9.387   1.585   1.523 -0.2586 -0.3870 -0.2654
 9120SOL    HW136138   9.449   1.574   1.594 -0.4967  0.1951  0.0450
 9120SOL    HW236139   9.338   1.503   1.519  0.1125 -0.6144 -0.1100
 9121SOL     OW36140   9.088   0.387  11.268  0.2232 -0.2481  0.1323
 9121SOL    HW136141   9.163   0.340  11.304  0.8904  0.3224 -0.4837
 9121SOL    HW236142   9.039   0.416  11.345 -1.5259 -3.9243  0.5982
 9122SOL     OW36143   3.684  10.333   8.188 -0.2783  0.6978 -0.4356
 9122SOL    HW136144   3.638  10.271   8.245  0.6369 -0.5996 -1.0382
 9122SOL    HW236145   3.630  10.412   8.189 -1.9243 -0.3770 -0.2380
 9123SOL     OW36146   0.825  10.564   3.584  0.2197 -0.0494 -0.0388
 9123SOL    HW136147   0.813  10.472   3.560 -0.4077  0.4216 -1.6410
 9123SOL    HW236148   0.906  10.565   3.636  1.0394 -1.3097 -1.2265
 9124SOL     OW36149   2.350   9.141  12.174  0.2592 -0.3086 -0.4979
 9124SOL    HW136150   2.373   9.164  12.084 -0.5487 -0.0052 -0.6304
 9124SOL    HW236151   2.275   9.082  12.166  0.5744 -0.7870 -0.0406
 9125SOL     OW36152   7.891   4.581  12.113  0.6681  0.4594 -0.2708
 9125SOL    HW136153   7.913   4.603  12.022 -3.4414 -2.3059 -2.2517
 9125SOL    HW236154   7.926   4.493  12.125  1.7255  1.0395  1.1840
 9126SOL     OW36155   7.244  12.313   7.301 -0.7947 -0.1856 -0.0631
 9126SOL    HW136156   7.214  12.382   7.359  0.3662 -1.8743  2.7399
 9126SOL    HW236157   7.335  12.336   7.281 -0.6648 -0.4712  0.1927
 9127SOL     OW36158   5.361  11.078   9.681  0.3912 -0.5411 -0.3025
 9127SOL    HW136159   5.377  10.983   9.677  2.2278 -0.2990  0.4109
 9127SOL    HW236160   5.419  11.109   9.751 -0.0328  1.1477 -0.6604
 9128SOL     OW36161   2.429  10.262   1.267  0.1393  0.3980  0.0359
 9128SOL    HW136162   2.518  10.239   1.240  0.1242 -1.3177  1.2106
 9128SOL    HW236163   2.373  10.229   1.196  0.3809  0.4373 -0.1740
 9129SOL     OW36164   3.402   0.779   5.738 -0.0238 -0.2513 -0.2523
 9129SOL    HW136165   3.327   0.741   5.784 -0.5058 -0.6169 -1.3332
 9129SOL    HW236166   3.399   0.742   5.650  1.3059 -0.1048 -0.3817
 9130SOL     OW36167  12.536   8.240  12.549 -0.2009  0.4354  0.1505
 9130SOL    HW136168  12.536   8.145  12.554 -0.5739  0.2919 -1.6789
 9130SOL    HW236169  12.553   8.270  12.638  0.6411 -1.3403  0.6144
 9131SOL     OW36170  10.091   6.079   1.516  0.3281  0.0857 -0.0686
 9131SOL    HW136171  10.116   6.164   1.551  0.8506 -0.1941  0.2514
 9131SOL    HW236172   9.995   6.078   1.521  0.3841 -0.1841  1.9834
 9132SOL     OW36173   0.068   2.557   9.711 -0.3879 -0.4577  0.0291
 9132SOL    HW136174  -0.018   2.570   9.750 -0.0548 -0.8821  0.9220
 9132SOL    HW236175   0.053   2.490   9.644 -1.3362  1.6015 -1.9619
 9133SOL     OW36176   6.807   5.903   2.571 -0.1520 -0.0358  0.2142
 9133SOL    HW136177   6.809   5.813   2.604 -0.2676 -0.1916 -0.2020
 9133SOL    HW236178   6.769   5.954   2.643 -1.7139 -0.5931 -0.1775
 9134SOL     OW36179   8.469   0.452   5.894 -0.3551  0.2773 -0.2248
 9134SOL    HW136180   8.506   0.536   5.868  1.3344 -0.4592 -0.3019
 9134SOL    HW236181   8.488   0.445   5.988 -0.6176  0.0358 -0.1856
 9135SOL     OW36182   3.336   9.092   1.675  0.0213  1.1360 -0.6307
 9135SOL    HW136183   3.273   9.085   1.603  0.7016 -1.7726 -1.0853
 9135SOL    HW236184   3.415   9.050   1.641  0.2136 -0.7988  1.9039
 9136SOL     OW36185   7.749   3.083   4.528  0.6124 -0.2855  0.1677
 9136SOL    HW136186   7.735   3.123   4.614  2.1672  0.3446  0.1583
 9136SOL    HW236187   7.675   3.113   4.475  0.3098  0.3608  0.9313
 9137SOL     OW36188   5.399   0.284   3.924  0.9095  0.2024 -0.4385
 9137SOL    HW136189   5.328   0.271   3.988 -0.0057 -0.2764 -1.5162
 9137SOL    HW236190   5.413   0.198   3.886  2.0766  0.2993 -0.2714
 9138SOL     OW36191   4.682  11.504   1.196  0.1690  0.4000 -0.0574
 9138SOL    HW136192   4.736  11.520   1.119 -0.8958  2.1887 -0.4812
 9138SOL    HW236193   4.607  11.454   1.162  0.0926  0.4950 -0.0274
 9139SOL     OW36194   7.916   4.405   2.475  0.2629  0.0406  0.4060
 9139SOL    HW136195   7.984   4.355   2.520  0.5623 -0.0050 -0.0795
 9139SOL    HW236196   7.952   4.494   2.468 -0.1028  0.2319  0.9251
 9140SOL     OW36197  12.140  11.393  11.875 -0.1284 -0.4431  0.1936
 9140SOL    HW136198  12.235  11.381  11.878 -0.0272  0.4609  1.0904
 9140SOL    HW236199  12.121  11.410  11.783  0.5793 -0.6465  0.0024
 9141SOL     OW36200   0.719   8.280   0.031  0.1977 -0.0567 -0.1476
 9141SOL    HW136201   0.783   8.311   0.096 -0.8659 -0.9286  1.3695
 9141SOL    HW236202   0.635   8.284   0.077 -0.5923 -0.6852 -1.4976
 9142SOL     OW36203   3.406   9.218   8.221 -0.1473  0.7614  0.0570
 9142SOL    HW136204   3.502   9.222   8.223 -0.1283  0.2610  2.2829
 9142SOL    HW236205   3.386   9.153   8.154  0.9852  1.9877 -1.5563
 9143SOL     OW36206   4.585   3.465  11.203 -0.0146  0.8027  0.4373
 9143SOL    HW136207   4.513   3.426  11.152 -0.4517 -0.0596  1.6539
 9143SOL    HW236208   4.553   3.552  11.227  0.1362  1.1588 -0.6113
 9144SOL     OW36209   2.444   5.246  10.054  0.0406  0.3395 -0.2598
 9144SOL    HW136210   2.444   5.212  10.143  0.1202 -0.5424 -0.5880
 9144SOL    HW236211   2.534   5.276  10.039  0.1029  0.2076 -0.1466
 9145SOL     OW36212   6.431  10.931  12.051 -0.4768  1.3796 -0.2550
 9145SOL    HW136213   6.468  10.884  11.976 -0.4576  1.3751 -0.2429
 9145SOL    HW236214   6.489  11.006  12.064 -0.2042  1.1163  0.0569
 9146SOL     OW36215   1.187   7.844   5.453 -0.5447  0.0168 -0.8111
 9146SOL    HW136216   1.231   7.928   5.436 -1.0696  0.1742 -1.4255
 9146SOL    HW236217   1.199   7.794   5.372 -1.0927 -0.1186 -0.8135
 9147SOL     OW36218   2.436  12.586   7.325 -0.2896 -0.6156 -0.6924
 9147SOL    HW136219   2.376  12.512   7.336 -1.0093 -0.2049 -1.6782
 9147SOL    HW236220   2.448  12.620   7.413 -1.5123 -0.7324 -0.4525
 9148SOL     OW36221   9.228  11.637   3.376 -0.0515 -0.1657  0.0134
 9148SOL    HW136222   9.185  11.661   3.294 -0.6283 -1.4286 -0.0632
 9148SOL    HW236223   9.270  11.553   3.359  1.0330  0.2258  0.6037
 9149SOL     OW36224   8.589   4.074   0.432 -0.0792 -0.1293 -0.3712
 9149SOL    HW136225   8.574   4.158   0.475  0.6785 -0.0168 -0.3167
 9149SOL    HW236226   8.509   4.024   0.449  0.6032 -0.4816  2.1051
 9150SOL     OW36227   7.558  12.404   0.812  0.3011 -0.5218  0.5818
 9150SOL    HW136228   7.588  12.382   0.724 -0.7398  1.0409 -0.2193
 9150SOL    HW236229   7.617  12.357   0.871  0.8627 -1.7865 -0.9424
 9151SOL     OW36230   2.660  11.827   4.760  0.4573  0.4630  0.3402
 9151SOL    HW136231   2.708  11.750   4.791  1.3248  1.3890  1.4103
 9151SOL    HW236232   2.722  11.899   4.770 -0.3766  1.3362 -0.5174
 9152SOL     OW36233   8.538  11.943   0.037  0.8538  0.1994 -0.3416
 9152SOL    HW136234   8.445  11.930   0.056  0.3483  0.5572 -2.3383
 9152SOL    HW236235   8.570  11.856   0.012  0.2990  0.5289 -2.4319
 9153SOL     OW36236   4.676  10.862   3.950 -0.0560 -0.2665  0.0059
 9153SOL    HW136237   4.663  10.957   3.939  1.3129  0.2106  1.9520
 9153SOL    HW236238   4.745  10.841   3.888  0.9602  0.4236  0.8697
 9154SOL     OW36239   8.160  11.839  11.955  0.1418 -0.0765 -0.0411
 9154SOL    HW136240   8.254  11.830  11.967  0.2905 -1.4860 -1.7920
 9154SOL    HW236241   8.122  11.779  12.019  0.2030  2.3888  2.5465
 9155SOL     OW36242   7.149   1.739   2.208  0.1960 -0.3268 -0.3346
 9155SOL    HW136243   7.135   1.778   2.121 -0.5165  0.3239  0.0596
 9155SOL    HW236244   7.088   1.786   2.265  0.0927 -1.2964  0.3686
 9156SOL     OW36245   5.008   2.015  11.785 -0.1201  0.2590  0.1014
 9156SOL    HW136246   4.913   2.010  11.773 -0.0645 -0.6386 -0.0375
 9156SOL    HW236247   5.043   2.006  11.696  0.1045  0.0160  0.2118
 9157SOL     OW36248   6.247   2.245   2.599 -0.3703 -0.1820  0.0247
 9157SOL    HW136249   6.198   2.288   2.529  0.6685 -0.0067 -0.6093
 9157SOL    HW236250   6.227   2.297   2.677 -1.2211 -0.1403 -0.2157
 9158SOL     OW36251   6.686  10.766   8.606 -0.3160 -0.2039  0.2269
 9158SOL    HW136252   6.738  10.818   8.544 -0.4730  0.2582  0.4810
 9158SOL    HW236253   6.689  10.677   8.570  1.3318 -0.3606  0.6550
 9159SOL     OW36254   5.896   3.534   0.169 -0.2143  0.1287 -0.3627
 9159SOL    HW136255   5.963   3.599   0.148  1.3332 -0.9703  0.9520
 9159SOL    HW236256   5.825   3.585   0.209 -0.0939  1.2838 -1.5485
 9160SOL     OW36257   1.100   5.437  12.511  0.9787 -0.3731 -0.4823
 9160SOL    HW136258   1.149   5.517  12.532 -0.6140  0.9069 -1.3558
 9160SOL    HW236259   1.008   5.464  12.516  0.3963 -2.1381 -0.9644
 9161SOL     OW36260   3.442   4.786   2.272 -0.1236 -0.3007  0.4634
 9161SOL    HW136261   3.528   4.826   2.289 -0.1559  0.0132 -0.0993
 9161SOL    HW236262   3.390   4.856   2.232  0.3593 -1.3279 -2.1756
 9162SOL     OW36263   0.455   1.888   6.315  0.5866  0.8039  0.4067
 9162SOL    HW136264   0.476   1.879   6.408  1.5594 -0.3378  0.1103
 9162SOL    HW236265   0.439   1.798   6.286  2.5679  0.8401 -1.0113
 9163SOL     OW36266   6.127   2.161   8.974  0.3472 -0.3216 -0.2651
 9163SOL    HW136267   6.156   2.215   8.900  0.1902 -0.5703 -0.5131
 9163SOL    HW236268   6.032   2.163   8.968  0.3220  0.0950  0.2535
 9164SOL     OW36269   6.924   2.360   1.004  0.9322 -0.3749  0.8765
 9164SOL    HW136270   7.012   2.352   0.967  1.8651  1.3081  2.5415
 9164SOL    HW236271   6.927   2.307   1.084 -0.1284 -1.6314  0.1252
 9165SOL     OW36272   8.762   5.475   4.083 -0.2378 -0.2134  0.4022
 9165SOL    HW136273   8.784   5.406   4.146 -1.3286 -0.6306  0.3420
 9165SOL    HW236274   8.765   5.556   4.134  1.5422 -0.2194  0.3641
 9166SOL     OW36275  10.944   2.564   3.972 -0.4027 -0.3240  0.2714
 9166SOL    HW136276  10.914   2.475   3.956 -0.9910 -0.4414  1.8926
 9166SOL    HW236277  11.032   2.567   3.933 -1.4635 -0.7045 -2.3619
 9167SOL     OW36278  10.457   5.322   1.530 -0.4665 -0.2098 -0.4696
 9167SOL    HW136279  10.371   5.321   1.488 -0.0853 -0.2072 -1.2770
 9167SOL    HW236280  10.486   5.413   1.524 -0.3012 -0.2586 -0.4258
 9168SOL     OW36281   1.373   1.590   2.025  0.0820 -0.1222 -0.0139
 9168SOL    HW136282   1.350   1.679   2.054 -1.3903 -1.0103  1.7806
 9168SOL    HW236283   1.307   1.568   1.959 -0.4696 -0.3946  0.6148
 9169SOL     OW36284   4.155   9.435   3.143  0.1289 -0.4853 -0.3560
 9169SOL    HW136285   4.213   9.503   3.110 -0.3295  1.3477  2.2941
 9169SOL    HW236286   4.093   9.421   3.071 -0.0285  2.2627 -0.8940
 9170SOL     OW36287   1.425   5.485   4.571 -0.0768  0.2684 -0.1697
 9170SOL    HW136288   1.490   5.531   4.625  0.7483 -1.8199  0.7084
 9170SOL    HW236289   1.472   5.463   4.490 -0.2420  0.2935 -0.2728
 9171SOL     OW36290   4.152   5.686   3.281  0.3074 -0.4634 -0.0820
 9171SOL    HW136291   4.142   5.725   3.368 -0.1235 -1.0386  0.1373
 9171SOL    HW236292   4.238   5.642   3.284  0.9654  0.7619 -0.4603
 9172SOL     OW36293   3.325   8.726   5.514  0.3400 -0.2601 -0.3463
 9172SOL    HW136294   3.333   8.697   5.605 -1.0104  1.0811  0.2350
 9172SOL    HW236295   3.252   8.675   5.479 -0.2399  0.4250 -0.1542
 9173SOL     OW36296  10.202   6.140   1.240  0.2359  0.4767  0.1595
 9173SOL    HW136297  10.182   6.078   1.311  1.8835 -0.5781 -0.2331
 9173SOL    HW236298  10.134   6.206   1.246 -0.6380 -0.4962  1.6629
 9174SOL     OW36299   1.594   8.954   3.295 -0.3940  0.1323  0.4459
 9174SOL    HW136300   1.536   8.915   3.230 -1.3789  0.1670  1.2739
 9174SOL    HW236301   1.672   8.899   3.294 -0.6793 -0.2633 -0.2831
 9175SOL     OW36302   1.919   9.951   0.714 -0.4163 -0.0552 -0.1681
 9175SOL    HW136303   1.889  10.040   0.696 -3.6567 -0.9092  0.3670
 9175SOL    HW236304   1.907   9.940   0.808 -0.5945 -1.2254 -0.3161
 9176SOL     OW36305  10.164   9.366   3.901 -0.4455 -0.0935 -0.1116
 9176SOL    HW136306  10.157   9.322   3.816 -1.6007  0.1676 -0.1736
 9176SOL    HW236307  10.077   9.359   3.939  0.0540 -0.1870  1.0601
 9177SOL     OW36308   8.497  10.828  12.456  0.2162 -0.0473 -0.0216
 9177SOL    HW136309   8.539  10.863  12.377 -0.0792 -0.0291 -0.1715
 9177SOL    HW236310   8.538  10.876  12.528 -0.3595  0.7875 -0.2351
 9178SOL     OW36311   4.791   1.074   2.977 -0.3533 -0.7322  0.0095
 9178SOL    HW136312   4.851   1.063   3.052 -1.9681  2.0007  1.8873
 9178SOL    HW236313   4.801   0.994   2.926  2.7309 -1.6303  1.7632
 9179SOL     OW36314   2.837   1.688   3.281  0.4312  0.2301 -0.7162
 9179SOL    HW136315   2.742   1.697   3.276  0.4163  0.2750 -0.3642
 9179SOL    HW236316   2.862   1.649   3.197 -0.1395 -1.8233  0.0160
 9180SOL     OW36317   7.871   4.871  11.563 -0.2896  0.3462 -0.3820
 9180SOL    HW136318   7.776   4.863  11.556 -0.2052 -1.1738 -0.0927
 9180SOL    HW236319   7.885   4.929  11.638 -1.0098 -1.5727  1.3380
 9181SOL     OW36320   6.554   9.966  10.340 -0.2772  0.0016 -0.8111
 9181SOL    HW136321   6.569  10.005  10.426  0.8458 -0.9687 -0.5230
 9181SOL    HW236322   6.608  10.017  10.280 -1.2179  0.8057 -0.9896
 9182SOL     OW36323   8.696   8.220   1.433 -0.0006  0.1367  0.2225
 9182SOL    HW136324   8.624   8.161   1.455  0.8744 -0.7671  0.7448
 9182SOL    HW236325   8.658   8.283   1.372 -1.5504  0.4274  1.4361
 9183SOL     OW36326   1.928   4.540   1.784  0.0147 -0.1729 -0.1301
 9183SOL    HW136327   2.020   4.513   1.790 -0.6105 -2.2011  1.5875
 9183SOL    HW236328   1.887   4.472   1.730 -0.2085  1.7438 -2.5759
 9184SOL     OW36329   9.443   7.854  12.258 -0.3264 -0.9765  0.3544
 9184SOL    HW136330   9.379   7.911  12.300 -0.2347  0.1502 -0.9313
 9184SOL    HW236331   9.525   7.871  12.305 -0.2210  0.2613 -0.2194
 9185SOL     OW36332   3.515   2.513   4.078  0.0409  0.1197 -0.5430
 9185SOL    HW136333   3.502   2.504   4.173 -0.0629  1.9478 -0.3454
 9185SOL    HW236334   3.438   2.563   4.048  0.6186  0.5215 -1.3952
 9186SOL     OW36335   0.619   7.961   3.019  0.1712  0.5251 -0.5972
 9186SOL    HW136336   0.555   7.955   2.948  0.1048  0.8915 -0.5698
 9186SOL    HW236337   0.694   7.912   2.987 -0.4798 -0.7679 -0.2244
 9187SOL     OW36338  11.223   3.436   3.941 -0.2190  0.0181 -0.3304
 9187SOL    HW136339  11.271   3.517   3.958  3.2949 -1.3162 -2.8547
 9187SOL    HW236340  11.261   3.371   4.000 -1.4614 -0.3637  0.1023
 9188SOL     OW36341  10.038   3.058   2.452 -0.2206  0.2745 -0.4068
 9188SOL    HW136342  10.101   2.986   2.462  1.2806  1.7040  0.8758
 9188SOL    HW236343  10.068   3.106   2.375 -0.1153  0.5966 -0.1652
 9189SOL     OW36344   4.183  11.140   6.746 -0.2061  0.5713  0.1891
 9189SOL    HW136345   4.230  11.079   6.690 -1.4747  2.4779 -3.2727
 9189SOL    HW236346   4.237  11.219   6.747 -1.3963  1.4505 -0.6280
 9190SOL     OW36347  11.486   3.452   5.279  0.1211 -0.1967  0.2881
 9190SOL    HW136348  11.553   3.438   5.346  1.8270 -0.2520 -1.3309
 9190SOL    HW236349  11.421   3.384   5.295 -0.3331  0.7033  2.7656
 9191SOL     OW36350  12.132  10.094   3.259  0.8469  0.0292  0.2393
 9191SOL    HW136351  12.207  10.152   3.274  1.1734 -0.6250  1.1946
 9191SOL    HW236352  12.126  10.041   3.338 -1.0398  0.5117  0.4681
 9192SOL     OW36353  11.994   0.055   2.701 -0.0493  0.1970 -0.0370
 9192SOL    HW136354  12.035   0.116   2.763 -0.5040  1.9956 -1.4200
 9192SOL    HW236355  11.940   0.111   2.645 -1.0068 -1.5871 -0.9621
 9193SOL     OW36356  10.050   8.637   0.765  0.2209  0.1042 -0.2526
 9193SOL    HW136357   9.957   8.636   0.739  0.3572 -2.1635 -0.8386
 9193SOL    HW236358  10.081   8.548   0.747  2.4151  0.6886  0.3607
 9194SOL     OW36359   8.644  12.015  11.221 -0.3406 -0.1038 -0.3604
 9194SOL    HW136360   8.650  12.094  11.274 -2.1118  0.0154 -0.2601
 9194SOL    HW236361   8.703  12.030  11.147 -0.5185  1.2357 -0.2440
 9195SOL     OW36362   9.140  11.532   2.071 -0.1720  0.3050  0.0922
 9195SOL    HW136363   9.186  11.602   2.117 -0.2394 -0.3377  1.1672
 9195SOL    HW236364   9.049  11.542   2.097 -0.2767  0.1801 -0.2209
 9196SOL     OW36365   7.760   4.916   1.046 -0.4615  0.2682  0.1534
 9196SOL    HW136366   7.676   4.951   1.017 -0.0940  1.5987  0.6216
 9196SOL    HW236367   7.825   4.962   0.992  0.1207  1.4525  1.7993
 9197SOL     OW36368   6.460   1.727   6.475 -0.2087  0.3643  0.0450
 9197SOL    HW136369   6.381   1.678   6.498  0.0460 -0.6524 -1.1521
 9197SOL    HW236370   6.505   1.741   6.558 -2.5113  2.6151  1.0705
 9198SOL     OW36371   6.215   2.531  11.975  0.1804  0.2009 -0.4093
 9198SOL    HW136372   6.279   2.469  11.940 -0.0698 -0.7384  0.7456
 9198SOL    HW236373   6.268   2.601  12.013  0.6994 -1.5934  2.4615
 9199SOL     OW36374   4.197   8.119   2.559  0.3826  0.1512  0.2646
 9199SOL    HW136375   4.160   8.031   2.553  0.3621  0.1717  0.0754
 9199SOL    HW236376   4.238   8.133   2.474 -0.5015  0.7248 -0.0745
 9200SOL     OW36377   4.222   0.538   5.367  0.6694 -0.3133 -0.0595
 9200SOL    HW136378   4.133   0.570   5.379  1.0027  0.4682  0.4522
 9200SOL    HW236379   4.261   0.598   5.304  0.3362 -1.6737 -1.6308
 9201SOL     OW36380   4.392   8.651  12.105 -0.3427 -0.1509  0.0450
 9201SOL    HW136381   4.459   8.629  12.041 -0.7127 -0.8191 -0.1206
 9201SOL    HW236382   4.428   8.622  12.189 -0.2685 -0.1678  0.0078
 9202SOL     OW36383  12.312   1.034   1.775  0.0406  0.3606  0.5456
 9202SOL    HW136384  12.363   0.965   1.817 -0.2235  0.1289  0.4894
 9202SOL    HW236385  12.226   0.994   1.761 -0.1729  0.7630  0.6943
 9203SOL     OW36386   9.033   0.439  10.189 -0.1096  0.7169 -0.4315
 9203SOL    HW136387   9.041   0.363  10.132  1.3128 -1.3975  2.3061
 9203SOL    HW236388   9.116   0.486  10.178  2.2125 -2.1330  2.8203
 9204SOL     OW36389   4.394  10.383  11.661 -0.0723  0.2894 -0.7389
 9204SOL    HW136390   4.302  10.395  11.684 -0.6059 -1.1821 -1.9070
 9204SOL    HW236391   4.393  10.316  11.593  1.7495  1.3740 -1.9197
 9205SOL     OW36392   6.138   9.978   8.456  0.8156 -0.2537  0.1720
 9205SOL    HW136393   6.125  10.061   8.410  0.4579 -1.0930 -1.2817
 9205SOL    HW236394   6.097   9.992   8.542 -1.5162  0.2521 -0.9640
 9206SOL     OW36395   0.877   2.257   5.973 -0.4057 -0.2831  0.1952
 9206SOL    HW136396   0.833   2.193   6.029 -0.0473 -0.8991 -0.2153
 9206SOL    HW236397   0.895   2.210   5.892 -1.2887  0.7109 -0.6109
 9207SOL     OW36398   9.668   8.926   4.203 -0.5495  0.1143 -0.5281
 9207SOL    HW136399   9.598   8.991   4.201 -0.2575  0.4609  0.1406
 9207SOL    HW236400   9.649   8.875   4.283  0.8289  1.2002  0.5362
 9208SOL     OW36401   8.729   9.337   0.557  0.0006  0.8253  0.3337
 9208SOL    HW136402   8.804   9.279   0.549 -1.0948 -0.4045 -1.9768
 9208SOL    HW236403   8.764   9.424   0.542  0.8911  0.2055 -1.4392
 9209SOL     OW36404   2.850   0.607   6.887 -0.2164  0.2538  0.7069
 9209SOL    HW136405   2.939   0.640   6.903 -0.7297  0.9209  2.3925
 9209SOL    HW236406   2.825   0.565   6.969 -1.3912 -0.1217  0.1759
 9210SOL     OW36407  12.339   6.859   8.861  0.1889 -0.2245 -0.2851
 9210SOL    HW136408  12.267   6.915   8.890  1.7153  1.9662 -0.5391
 9210SOL    HW236409  12.364   6.810   8.939 -1.3855 -0.8689 -0.1371
 9211SOL     OW36410   0.552  12.393   6.132  0.3408  0.5435  0.5651
 9211SOL    HW136411   0.508  12.462   6.181  0.5473 -0.1753  1.7850
 9211SOL    HW236412   0.635  12.380   6.178  0.8311  0.3034 -0.3597
 9212SOL     OW36413  12.245   4.061   8.259 -0.2258 -0.0192  0.3927
 9212SOL    HW136414  12.157   4.024   8.264 -0.2200 -0.1130 -0.1113
 9212SOL    HW236415  12.291   4.025   8.335 -0.2261 -1.0424 -0.0771
 9213SOL     OW36416   3.962  12.399   8.246 -0.1385 -0.1213 -0.6916
 9213SOL    HW136417   3.910  12.327   8.281 -0.1788  0.6547  0.9554
 9213SOL    HW236418   4.028  12.415   8.313  0.1284  1.0940 -1.2201
 9214SOL     OW36419  11.703   0.783   4.408  0.9647 -0.2443  0.1772
 9214SOL    HW136420  11.744   0.844   4.470  0.8188 -0.6533  0.6840
 9214SOL    HW236421  11.773   0.760   4.347  0.8455  0.9553 -0.4369
 9215SOL     OW36422   7.361  10.157   5.038  0.3793  0.6950  0.2266
 9215SOL    HW136423   7.312  10.177   5.118 -0.3162  0.9579 -0.2519
 9215SOL    HW236424   7.452  10.179   5.060 -0.1215  3.0152  0.2262
 9216SOL     OW36425   8.805   1.448   3.003  0.1006  0.7563 -0.6131
 9216SOL    HW136426   8.859   1.504   2.949  1.8082 -0.1795  0.0410
 9216SOL    HW236427   8.804   1.490   3.089  0.3988  0.3927 -0.4305
 9217SOL     OW36428   6.544   8.163   2.594 -0.5788 -0.0055  0.5343
 9217SOL    HW136429   6.487   8.119   2.657 -0.3735 -0.8246  0.1543
 9217SOL    HW236430   6.551   8.102   2.521 -0.8516  0.9582 -0.3129
 9218SOL     OW36431   8.265   0.803  10.789 -0.2469 -0.4401  0.1202
 9218SOL    HW136432   8.359   0.797  10.775 -0.4700 -0.7021 -1.3453
 9218SOL    HW236433   8.226   0.799  10.702 -1.7089 -1.8747  0.7814
 9219SOL     OW36434   0.787   2.318   5.544 -0.0686  0.1515 -0.0230
 9219SOL    HW136435   0.716   2.381   5.550 -0.9127 -0.6589 -1.1845
 9219SOL    HW236436   0.772   2.258   5.617 -0.3056  0.2432  0.0046
 9220SOL     OW36437   3.687   1.507   8.657  0.2504 -0.4268  0.0271
 9220SOL    HW136438   3.780   1.503   8.679  0.1904 -0.9687  0.1932
 9220SOL    HW236439   3.683   1.560   8.577  0.9669 -2.3931 -1.4024
 9221SOL     OW36440  10.171   4.456  11.686 -0.1119 -0.2486 -0.8313
 9221SOL    HW136441  10.092   4.422  11.729  0.1012 -0.6380 -0.7370
 9221SOL    HW236442  10.242   4.432  11.745  0.1785 -0.7320 -1.3702
 9222SOL     OW36443  11.878   7.140   9.863  0.0088  0.4168  0.0386
 9222SOL    HW136444  11.850   7.141   9.954 -0.9606 -0.3568 -0.2351
 9222SOL    HW236445  11.865   7.050   9.834  0.4091  0.6223 -0.8324
 9223SOL     OW36446   8.250   7.957   3.548  0.2952 -0.1111  0.5465
 9223SOL    HW136447   8.163   7.917   3.548 -0.5922  1.6913  0.2379
 9223SOL    HW236448   8.308   7.890   3.585 -0.8900 -2.0096 -0.8764
 9224SOL     OW36449   9.480   7.908   9.949 -0.2406  0.5595  0.4620
 9224SOL    HW136450   9.567   7.871   9.967 -0.0498  1.2436  1.0037
 9224SOL    HW236451   9.486   7.940   9.859 -0.4054 -0.6858 -0.0098
 9225SOL     OW36452   9.190   2.637   6.881  0.1876 -0.2819  0.0921
 9225SOL    HW136453   9.267   2.692   6.866 -1.7766  2.3413 -1.2195
 9225SOL    HW236454   9.198   2.608   6.972  3.0633 -0.8053 -0.2370
 9226SOL     OW36455   8.070  12.160  10.741 -0.7484 -0.5805  0.1370
 9226SOL    HW136456   8.062  12.211  10.660 -2.6437  0.9094  1.1828
 9226SOL    HW236457   8.101  12.223  10.806 -2.7358 -0.7906  1.3668
 9227SOL     OW36458  10.441  11.384  11.653 -0.4738  0.0558 -0.4600
 9227SOL    HW136459  10.498  11.425  11.718 -1.1287 -0.5616  0.5229
 9227SOL    HW236460  10.354  11.421  11.670 -0.6018  0.1001 -1.1732
 9228SOL     OW36461   9.615  10.095   7.569  0.0998  0.0400 -0.3538
 9228SOL    HW136462   9.563  10.169   7.537 -0.1447  0.0267  0.0151
 9228SOL    HW236463   9.653  10.126   7.651 -1.0458 -0.6902  0.4714
 9229SOL     OW36464   8.253   0.022  11.428  0.0458  0.2242 -0.1262
 9229SOL    HW136465   8.315  -0.038  11.470 -0.7848 -0.4346  0.1961
 9229SOL    HW236466   8.235   0.089  11.494  0.5235  0.5043 -0.2751
 9230SOL     OW36467   3.970   4.696   4.904 -0.5661 -0.2334  0.5397
 9230SOL    HW136468   4.039   4.730   4.849 -1.7475  0.3546 -0.6272
 9230SOL    HW236469   4.011   4.623   4.952  0.9317  0.3455  0.1793
 9231SOL     OW36470   1.463   4.058   0.921 -0.2700  0.1275  0.1259
 9231SOL    HW136471   1.462   3.964   0.941 -1.5629  0.1793  0.4430
 9231SOL    HW236472   1.374   4.076   0.889  0.4557  0.9177 -1.5697
 9232SOL     OW36473   8.966   4.219   4.878 -0.5177 -0.3174 -0.1267
 9232SOL    HW136474   8.958   4.305   4.921 -2.8098 -0.4444 -0.1336
 9232SOL    HW236475   9.060   4.206   4.866  0.0361  1.0769  2.1173
 9233SOL     OW36476   9.533   9.345   0.726  0.2607 -0.0315 -0.1766
 9233SOL    HW136477   9.492   9.420   0.770  0.8446  1.1364 -1.5416
 9233SOL    HW236478   9.627   9.357   0.743  0.2626 -1.4065  0.9815
 9234SOL     OW36479   2.070   3.966   0.586  0.0718  0.4936 -0.4119
 9234SOL    HW136480   2.033   3.990   0.502 -0.9916 -3.1534 -1.1491
 9234SOL    HW236481   2.163   3.952   0.568 -0.2223 -0.6704 -1.1472
 9235SOL     OW36482   6.468   1.338   3.719 -0.0823  0.0806 -0.3612
 9235SOL    HW136483   6.476   1.433   3.722 -0.7315  0.1491 -0.6676
 9235SOL    HW236484   6.540   1.310   3.662  0.7458  0.2896  0.5537
 9236SOL     OW36485   4.415   4.291   5.198  0.0667 -0.2548 -0.6234
 9236SOL    HW136486   4.419   4.266   5.290 -1.0184  1.0330 -0.1831
 9236SOL    HW236487   4.322   4.282   5.175  0.2842 -0.3267 -1.5142
 9237SOL     OW36488   9.279   3.221   4.181 -0.4397  0.5654 -0.4802
 9237SOL    HW136489   9.241   3.244   4.266 -1.5226  1.0776 -1.0799
 9237SOL    HW236490   9.309   3.131   4.192 -1.8810  0.1115  0.0386
 9238SOL     OW36491   0.390   5.077  10.336 -0.1401 -0.4385  0.5619
 9238SOL    HW136492   0.374   5.108  10.426  2.1640  0.8989  0.5871
 9238SOL    HW236493   0.321   5.118  10.284 -1.4255 -1.1162  1.6636
 9239SOL     OW36494   1.480  12.273   8.784  0.5591  0.1139  0.1984
 9239SOL    HW136495   1.573  12.250   8.793  0.7430  0.4007 -0.8213
 9239SOL    HW236496   1.436  12.221   8.851  1.2287 -1.4548 -0.5390
 9240SOL     OW36497   6.894   6.085   5.433 -0.0036  0.2911  0.0269
 9240SOL    HW136498   6.835   6.056   5.364 -0.4836 -0.3490  0.6897
 9240SOL    HW236499   6.913   6.006   5.484  0.8856  0.6153  0.2341
 9241SOL     OW36500   5.069   1.505   7.276  0.3142 -0.2385  0.7976
 9241SOL    HW136501   5.047   1.532   7.365  0.4055  0.2803  0.6652
 9241SOL    HW236502   4.987   1.513   7.227 -0.6062 -3.6231  1.5284
 9242SOL     OW36503   2.026   9.234   9.165 -0.0429 -0.3912 -0.0135
 9242SOL    HW136504   2.117   9.240   9.192  0.1189  0.3983 -0.6971
 9242SOL    HW236505   2.030   9.203   9.074 -0.5002 -1.3067  0.2659
 9243SOL     OW36506   0.513   2.792   7.355  0.0310  0.0560 -0.0892
 9243SOL    HW136507   0.460   2.868   7.331 -0.1238  0.0153  0.1281
 9243SOL    HW236508   0.554   2.765   7.273 -1.3913 -0.7886 -0.5646
 9244SOL     OW36509   1.500  11.018   0.399  0.3126  0.2575 -0.5755
 9244SOL    HW136510   1.512  10.927   0.370 -0.3834 -0.0204 -0.0085
 9244SOL    HW236511   1.575  11.034   0.457 -0.0262 -0.2415  0.0086
 9245SOL     OW36512   8.181  12.495   9.343  0.0117 -0.1104 -0.4458
 9245SOL    HW136513   8.090  12.525   9.339  1.1700  4.0388 -0.1899
 9245SOL    HW236514   8.178  12.417   9.397 -3.1324  1.3487  1.8220
 9246SOL     OW36515   2.672   9.119   4.928  0.3992 -0.1461  0.1418
 9246SOL    HW136516   2.675   9.173   4.849  2.5628  0.4152  0.5320
 9246SOL    HW236517   2.612   9.164   4.987 -0.2567  0.1129 -0.7097
 9247SOL     OW36518   3.042   3.895   5.481 -0.7968 -0.0924  0.4253
 9247SOL    HW136519   3.129   3.935   5.478 -1.2699  0.9238  0.0907
 9247SOL    HW236520   3.000   3.936   5.557 -0.7549 -1.0756  0.9932
 9248SOL     OW36521   5.998  11.857   2.927 -0.4865  0.7796 -0.3516
 9248SOL    HW136522   6.077  11.911   2.924  0.1067 -0.0915 -1.2194
 9248SOL    HW236523   5.982  11.843   3.020  0.7015  0.5425 -0.1596
 9249SOL     OW36524   1.332  11.893  10.607 -0.2242 -0.2650 -0.0578
 9249SOL    HW136525   1.303  11.916  10.519 -1.7836  1.7698  0.9205
 9249SOL    HW236526   1.427  11.878  10.598 -0.3107  0.1583 -2.0038
 9250SOL     OW36527   0.587   8.276  11.368  0.7849 -0.5990  0.3564
 9250SOL    HW136528   0.653   8.321  11.316 -0.7720  0.4415 -0.7814
 9250SOL    HW236529   0.611   8.296  11.459  1.2803  0.8431 -0.0739
 9251SOL     OW36530   0.843  10.014   5.781  0.4834  0.5401  0.7677
 9251SOL    HW136531   0.902   9.975   5.844  0.5380 -2.9289 -1.1926
 9251SOL    HW236532   0.873   9.981   5.696 -2.5675  0.8761 -0.5692
 9252SOL     OW36533   2.199   0.616   4.601  0.4852 -0.2682  0.6272
 9252SOL    HW136534   2.145   0.669   4.542 -0.4251  0.6927  2.2441
 9252SOL    HW236535   2.203   0.530   4.559  0.9932  0.7076 -1.4678
 9253SOL     OW36536  11.390   4.543   7.146  0.0670  0.3975 -0.5015
 9253SOL    HW136537  11.354   4.543   7.235 -0.2024  0.5632 -0.6100
 9253SOL    HW236538  11.476   4.500   7.155  0.3012  0.9422 -0.0544
 9254SOL     OW36539   1.393  11.162   8.770  0.1858 -0.0782 -0.4858
 9254SOL    HW136540   1.441  11.224   8.716  0.5323 -0.7684 -0.9922
 9254SOL    HW236541   1.327  11.214   8.815  0.2761  0.6004 -1.1291
 9255SOL     OW36542   0.931   1.473   4.254  0.3922  0.2895  0.1694
 9255SOL    HW136543   0.940   1.404   4.320  0.7704 -1.2331 -1.3983
 9255SOL    HW236544   0.844   1.509   4.269 -0.7945 -2.1403 -0.4027
 9256SOL     OW36545   6.062   7.468   4.442 -0.4677  0.5117  0.3021
 9256SOL    HW136546   6.117   7.393   4.467  0.2081  1.2774  1.1761
 9256SOL    HW236547   6.035   7.507   4.525 -0.2569  1.6253 -0.1312
 9257SOL     OW36548  10.789  10.351   6.737  0.0860  0.4550 -0.0511
 9257SOL    HW136549  10.830  10.384   6.817 -3.7129  0.5696  2.1281
 9257SOL    HW236550  10.786  10.256   6.750  0.5997  0.3416 -0.7179
 9258SOL     OW36551  12.356   9.806   6.884  0.2031 -0.1097  0.0461
 9258SOL    HW136552  12.451   9.801   6.878  0.2271 -0.5560  0.6972
 9258SOL    HW236553  12.334   9.891   6.847  0.8150 -0.2038 -0.5453
 9259SOL     OW36554   5.836   5.102   6.832  0.0212  0.4327  0.2403
 9259SOL    HW136555   5.915   5.125   6.881  0.3809  0.0923 -0.1707
 9259SOL    HW236556   5.861   5.111   6.740  0.0806 -1.2791  0.0624
 9260SOL     OW36557   2.189   9.438   6.674  0.0312  0.3553 -0.1921
 9260SOL    HW136558   2.221   9.432   6.764 -0.4101 -1.1461 -0.1136
 9260SOL    HW236559   2.129   9.512   6.675  1.0204  1.1847  0.4120
 9261SOL     OW36560   5.815   9.174   6.793  0.3574  0.1973  0.4605
 9261SOL    HW136561   5.788   9.202   6.705 -0.3419 -0.8460  0.3368
 9261SOL    HW236562   5.794   9.249   6.849 -0.8218  0.2241  0.0161
 9262SOL     OW36563   3.336   9.713   5.849 -0.1805 -0.0479  0.3251
 9262SOL    HW136564   3.376   9.794   5.878 -0.2635  0.0970  0.0334
 9262SOL    HW236565   3.255   9.706   5.900 -0.1035 -0.0212  0.4510
 9263SOL     OW36566   0.430   4.792   6.279  0.0699 -0.3165 -0.7893
 9263SOL    HW136567   0.375   4.809   6.202  0.4985 -0.2997 -1.0927
 9263SOL    HW236568   0.503   4.740   6.245  0.4287 -0.0368 -0.4489
 9264SOL     OW36569   8.633   0.385   8.951 -0.3771  0.3250  0.1507
 9264SOL    HW136570   8.717   0.390   8.996 -0.6521  1.5104  0.5821
 9264SOL    HW236571   8.654   0.403   8.859 -0.1386  0.4851  0.2346
 9265SOL     OW36572   6.309   9.317  11.491  0.2508  0.2475  0.6369
 9265SOL    HW136573   6.308   9.275  11.405  1.7698  1.9327 -0.2929
 9265SOL    HW236574   6.356   9.256  11.548 -1.0896 -1.0455  0.3922
 9266SOL     OW36575  10.027  10.477   4.218 -0.2354 -0.6630 -0.1875
 9266SOL    HW136576  10.117  10.480   4.187 -0.6295 -0.1831 -1.3559
 9266SOL    HW236577   9.989  10.560   4.190 -1.5284 -1.5827 -1.2809
 9267SOL     OW36578   5.626  12.400   9.866 -0.3463  0.3166 -0.3020
 9267SOL    HW136579   5.660  12.469   9.924 -0.8785  1.1725 -0.9838
 9267SOL    HW236580   5.538  12.382   9.899  0.0307 -0.5253  0.2786
 9268SOL     OW36581   2.876   5.983   4.419  0.2890 -0.0758  0.1289
 9268SOL    HW136582   2.952   6.017   4.372  0.3624  0.7649  0.8244
 9268SOL    HW236583   2.804   6.042   4.396  0.0432 -0.3670  0.1389
 9269SOL     OW36584  11.159   4.862   5.353 -0.4556 -0.3367  0.1266
 9269SOL    HW136585  11.177   4.776   5.391 -1.4837 -0.0702  1.2998
 9269SOL    HW236586  11.063   4.866   5.346 -0.3315 -0.6854 -3.3847
 9270SOL     OW36587   2.609  10.663   6.433 -0.3426  0.0132 -0.1359
 9270SOL    HW136588   2.628  10.702   6.348 -1.8372 -0.4732 -0.7268
 9270SOL    HW236589   2.694  10.659   6.477  0.2555  1.4870 -1.0747
 9271SOL     OW36590   0.206   2.417  10.348  0.1078  0.1113 -0.4283
 9271SOL    HW136591   0.171   2.340  10.303 -0.3708  0.1767 -0.1815
 9271SOL    HW236592   0.300   2.413  10.332 -0.1948  1.1702 -3.0810
 9272SOL     OW36593   8.636   7.356  10.218  0.7652  0.6950 -0.5280
 9272SOL    HW136594   8.576   7.339  10.291  2.0763 -1.9252  0.0795
 9272SOL    HW236595   8.618   7.285  10.156  1.6754  1.2183 -1.4168
 9273SOL     OW36596  12.063   5.770   7.038 -0.0946  0.5133 -0.6011
 9273SOL    HW136597  12.128   5.733   7.098 -0.1777  1.1629 -0.1012
 9273SOL    HW236598  12.103   5.762   6.951  1.0394  1.6872 -0.2198
 9274SOL     OW36599   3.831  12.244   9.107  0.0481 -0.1885 -0.2665
 9274SOL    HW136600   3.837  12.161   9.059 -0.5273 -0.2945 -0.1570
 9274SOL    HW236601   3.901  12.298   9.069  0.1861 -0.5896 -0.5944
 9275SOL     OW36602  11.138   6.119   1.999  0.3325 -0.1709 -0.5807
 9275SOL    HW136603  11.138   6.191   2.062  3.6407 -0.2840 -0.2990
 9275SOL    HW236604  11.181   6.154   1.921  0.2263 -1.2800 -1.1649
 9276SOL     OW36605   7.562   6.156   8.401  0.4438  0.2170  0.2911
 9276SOL    HW136606   7.582   6.250   8.405 -0.3369  0.3643  1.2308
 9276SOL    HW236607   7.478   6.152   8.355  0.7592 -0.0706 -0.2596
 9277SOL     OW36608   1.789  11.057  12.273 -0.1728  0.5330 -0.7180
 9277SOL    HW136609   1.818  10.966  12.260 -1.5919 -0.0183 -0.1651
 9277SOL    HW236610   1.722  11.070  12.206 -1.3668  0.5150  0.4545
 9278SOL     OW36611   6.492   8.084   5.460 -0.0444 -0.3100  0.0760
 9278SOL    HW136612   6.450   8.017   5.513  0.8299 -0.6286  0.3919
 9278SOL    HW236613   6.499   8.160   5.519 -2.2841  0.5638 -0.7038
 9279SOL     OW36614   9.323   3.511   9.489 -0.0130 -0.4748  1.0153
 9279SOL    HW136615   9.384   3.469   9.551  1.0449  0.0615  0.3669
 9279SOL    HW236616   9.295   3.440   9.432  1.4766 -0.4178  0.1605
 9280SOL     OW36617  12.194   7.852  10.810 -0.7424 -0.0724  0.6835
 9280SOL    HW136618  12.104   7.836  10.782 -1.6380 -0.4370  3.4245
 9280SOL    HW236619  12.201   7.807  10.894  2.1414 -0.3183  0.4200
 9281SOL     OW36620   6.204   5.302   3.795 -0.3265 -0.3816  0.4482
 9281SOL    HW136621   6.133   5.362   3.819 -0.4897 -0.8827  1.2705
 9281SOL    HW236622   6.269   5.313   3.865 -0.5342 -1.4239  0.8218
 9282SOL     OW36623  10.817  10.841   4.849  0.0420 -0.1273 -0.2000
 9282SOL    HW136624  10.843  10.898   4.921 -0.7175 -2.1260  1.7354
 9282SOL    HW236625  10.876  10.766   4.854 -1.5977 -1.4820 -0.0078
 9283SOL     OW36626   2.357   9.147   5.067  0.8146 -0.0584  0.7273
 9283SOL    HW136627   2.297   9.159   5.141  2.2234  0.8303  1.7806
 9283SOL    HW236628   2.425   9.213   5.080  1.3725 -0.2034 -1.1173
 9284SOL     OW36629  11.930   1.514  10.769  0.0464 -0.3346 -0.4434
 9284SOL    HW136630  11.925   1.453  10.696  1.7534 -1.6844  0.4671
 9284SOL    HW236631  11.867   1.480  10.833 -0.4415  0.0311 -0.7276
 9285SOL     OW36632   4.432   2.574   4.391  0.1300  0.4059  0.4931
 9285SOL    HW136633   4.380   2.651   4.415 -0.1337  0.8304 -1.2802
 9285SOL    HW236634   4.517   2.588   4.432 -0.4881  0.7307  1.7016
 9286SOL     OW36635   9.149   2.044   1.845  0.8512 -0.1822  0.2648
 9286SOL    HW136636   9.230   2.095   1.838  1.1827 -0.6556  0.5683
 9286SOL    HW236637   9.121   2.031   1.755  0.6451  0.7219  0.1944
 9287SOL     OW36638   8.938  10.316  10.736  0.1283 -0.2144 -0.2235
 9287SOL    HW136639   8.981  10.269  10.807  0.4760  0.0369 -0.2675
 9287SOL    HW236640   8.999  10.309  10.662  0.9834  1.7101  0.2263
 9288SOL     OW36641  11.868  12.591   0.735 -0.3570 -0.1320  0.3362
 9288SOL    HW136642  11.857  12.519   0.672  2.3915 -1.1857  0.9145
 9288SOL    HW236643  11.873  12.547   0.820 -1.6010  1.0718  1.0700
 9289SOL     OW36644   5.969   6.057  11.944 -0.2248  0.1456  0.0036
 9289SOL    HW136645   5.886   6.012  11.928 -0.0731  0.1263 -0.7773
 9289SOL    HW236646   6.001   6.079  11.857  0.5249  0.2769  0.3086
 9290SOL     OW36647   7.370  11.357   2.728 -0.4858  0.5314 -0.1819
 9290SOL    HW136648   7.367  11.380   2.635  0.1693  1.0576 -0.0821
 9290SOL    HW236649   7.295  11.401   2.766 -0.7391  0.3388 -0.4541
 9291SOL     OW36650   3.665   6.832   5.335 -0.0294 -0.3025 -0.0297
 9291SOL    HW136651   3.650   6.789   5.251 -0.4750  0.8081 -0.5461
 9291SOL    HW236652   3.601   6.904   5.337  1.2988  0.9237  0.3442
 9292SOL     OW36653  12.213   0.589   7.215  0.1528 -0.1441  0.3872
 9292SOL    HW136654  12.180   0.500   7.225 -0.9159  0.1198 -0.5888
 9292SOL    HW236655  12.275   0.583   7.142 -1.2244  0.2072 -0.8568
 9293SOL     OW36656   2.557   9.519  11.562  0.0575 -0.2380 -0.7694
 9293SOL    HW136657   2.596   9.493  11.479  2.3957 -2.4698  0.8844
 9293SOL    HW236658   2.628   9.564  11.609 -1.8895  3.2047 -0.7790
 9294SOL     OW36659   1.170   5.237  11.684  0.2263 -0.1543  0.4760
 9294SOL    HW136660   1.198   5.328  11.698 -0.9398  0.2082  0.5381
 9294SOL    HW236661   1.133   5.211  11.769 -2.3301  0.3904 -0.3858
 9295SOL     OW36662   2.187   7.720   6.873 -0.7011  0.3139  0.1457
 9295SOL    HW136663   2.235   7.640   6.895  0.7218  1.5828  1.9268
 9295SOL    HW236664   2.151   7.750   6.957 -2.1428  0.9992 -0.6740
 9296SOL     OW36665   2.070   3.421   8.967 -0.2278 -0.3695  0.0003
 9296SOL    HW136666   2.162   3.401   8.947 -0.1047  0.5348 -0.3828
 9296SOL    HW236667   2.048   3.493   8.909 -0.9910 -0.1439  0.5554
 9297SOL     OW36668   6.708  12.610   7.821  0.2135 -0.5482 -0.6771
 9297SOL    HW136669   6.727  12.519   7.801  0.2207 -0.9232  0.9450
 9297SOL    HW236670   6.614  12.612   7.838  0.1725 -0.2013 -0.9258
 9298SOL     OW36671   9.700   5.070  10.661 -0.3538 -0.3710 -0.6573
 9298SOL    HW136672   9.770   5.134  10.659 -0.5734  0.2141  3.3450
 9298SOL    HW236673   9.735   4.997  10.712 -1.7592 -1.2408 -0.8661
 9299SOL     OW36674   4.886  10.826  12.532 -0.2980  0.1874  0.0608
 9299SOL    HW136675   4.813  10.822  12.470 -0.8495 -1.0312  0.7587
 9299SOL    HW236676   4.890  10.918  12.558 -1.3953  0.3322 -0.2231
 9300SOL     OW36677  11.256   7.992   4.945  0.4238 -0.0244 -0.1039
 9300SOL    HW136678  11.167   7.998   4.980  0.6448 -1.4410  0.8000
 9300SOL    HW236679  11.261   8.062   4.879 -1.5836 -0.3863 -0.7078
 9301SOL     OW36680   8.828   4.631   5.196  0.6570 -0.2556 -0.1717
 9301SOL    HW136681   8.781   4.676   5.267 -1.5060  0.1122 -1.7558
 9301SOL    HW236682   8.880   4.700   5.156  0.9570 -0.2036  0.2943
 9302SOL     OW36683  11.976   7.666  10.122  0.4137  0.2860  0.0156
 9302SOL    HW136684  11.945   7.756  10.120  0.2742  0.2256 -0.6310
 9302SOL    HW236685  11.940   7.626  10.044  1.7646  0.0913 -0.5379
 9303SOL     OW36686   8.959   1.038   2.191 -0.0382  0.1757 -0.4681
 9303SOL    HW136687   8.877   1.067   2.230 -0.8961 -1.2011 -1.1480
 9303SOL    HW236688   9.024   1.047   2.261 -0.9856  0.2810  0.4221
 9304SOL     OW36689   9.508   1.858   1.618 -0.1462 -0.2262 -0.0698
 9304SOL    HW136690   9.563   1.826   1.689  2.2654 -0.1238 -1.7862
 9304SOL    HW236691   9.429   1.804   1.623  0.2474 -0.6929  2.2106
 9305SOL     OW36692   6.470   8.759   4.790 -0.2051  0.6565  0.2025
 9305SOL    HW136693   6.375   8.760   4.773 -0.1247  1.4772 -0.2228
 9305SOL    HW236694   6.481   8.812   4.869 -0.0968  0.5937  0.2300
 9306SOL     OW36695   7.779   6.675   9.821 -0.3646  0.3173  0.3506
 9306SOL    HW136696   7.782   6.752   9.764  0.2410 -0.5649 -0.8544
 9306SOL    HW236697   7.694   6.635   9.802 -0.0561 -0.1179 -0.1501
 9307SOL     OW36698  11.501   1.548   8.767  0.3927  0.3265 -0.2415
 9307SOL    HW136699  11.516   1.485   8.838  1.5600  0.1867 -0.5900
 9307SOL    HW236700  11.441   1.613   8.804 -0.4781 -0.7481  0.2623
 9308SOL     OW36701  11.216   4.175  11.753 -0.2442  0.2281  0.2520
 9308SOL    HW136702  11.190   4.240  11.688  1.7374  1.0398  0.1934
 9308SOL    HW236703  11.289   4.216  11.800 -1.9795 -0.0668  3.4561
 9309SOL     OW36704   1.569   1.899   2.076  0.4570 -0.2078  0.4955
 9309SOL    HW136705   1.555   1.843   2.000  2.8191  0.0094 -0.1710
 9309SOL    HW236706   1.583   1.837   2.149 -2.5923 -0.4255  1.0325
 9310SOL     OW36707  11.606  10.326   5.598  0.5034  0.0784 -0.1318
 9310SOL    HW136708  11.601  10.231   5.603  2.7735 -0.0468  0.9643
 9310SOL    HW236709  11.600  10.356   5.689 -1.0606  1.0955 -0.5175
 9311SOL     OW36710   5.093   3.931  11.755  0.7146  0.3224 -0.2838
 9311SOL    HW136711   5.043   3.931  11.836  1.0035  2.8467 -0.0194
 9311SOL    HW236712   5.184   3.918  11.782  0.4514 -3.2345 -0.6752
 9312SOL     OW36713   6.721   6.833   8.139 -0.1605 -0.3080 -0.5612
 9312SOL    HW136714   6.738   6.927   8.145  1.0221 -0.5765  1.4367
 9312SOL    HW236715   6.724   6.813   8.046 -1.6277  1.8090 -1.1278
 9313SOL     OW36716   9.905   9.041   5.790  0.2790 -0.1309 -0.2393
 9313SOL    HW136717   9.867   9.044   5.878 -1.6975 -1.0032 -1.0057
 9313SOL    HW236718   9.853   9.104   5.740  1.1468  0.0869 -0.8780
 9314SOL     OW36719  11.622   3.747   2.320 -0.1386  0.4216 -0.3566
 9314SOL    HW136720  11.567   3.806   2.268 -0.4683 -0.1289 -0.6421
 9314SOL    HW236721  11.703   3.741   2.270 -0.1922  0.4494 -0.4470
 9315SOL     OW36722   7.802   0.334   8.160  0.1589  0.1487  0.2468
 9315SOL    HW136723   7.790   0.428   8.172  1.7587  0.4055  0.0166
 9315SOL    HW236724   7.816   0.299   8.248  1.6347  0.4719  0.1699
 9316SOL     OW36725   2.655   6.207   2.746 -0.0583 -0.2274  0.1850
 9316SOL    HW136726   2.739   6.248   2.727 -0.2413 -0.8125 -2.2002
 9316SOL    HW236727   2.611   6.201   2.661 -2.4305 -0.1576  1.3242
 9317SOL     OW36728   1.161   7.205   6.147  0.1205 -0.1118  0.3360
 9317SOL    HW136729   1.196   7.201   6.236 -0.6697 -1.0780  0.6274
 9317SOL    HW236730   1.237   7.215   6.091  0.9671 -2.7350  0.8967
 9318SOL     OW36731   6.273   7.430   5.609  0.3311 -0.4899  0.2192
 9318SOL    HW136732   6.192   7.419   5.660  0.0865  0.1814 -0.0224
 9318SOL    HW236733   6.259   7.510   5.559  0.9503 -0.6458 -0.2049
 9319SOL     OW36734   4.591   9.800   5.009  0.4263  0.4722  0.1795
 9319SOL    HW136735   4.634   9.855   5.075 -0.4954  2.1320 -0.5474
 9319SOL    HW236736   4.658   9.786   4.942  0.3620  1.6648 -0.1549
 9320SOL     OW36737   6.195   5.096   5.829 -0.0716  0.4386 -0.0055
 9320SOL    HW136738   6.281   5.089   5.871  0.4259  2.1737 -0.6455
 9320SOL    HW236739   6.207   5.160   5.760 -1.9358  0.8557 -0.0026
 9321SOL     OW36740   2.670   9.261   4.702 -0.0069 -0.5829  0.1231
 9321SOL    HW136741   2.663   9.356   4.696  0.0851 -0.6303 -0.9592
 9321SOL    HW236742   2.718   9.235   4.622 -0.6075 -1.5878  0.0684
 9322SOL     OW36743   0.320   3.331   2.430 -0.1641  0.1670 -0.2666
 9322SOL    HW136744   0.290   3.260   2.486  1.4492  0.2011  0.6755
 9322SOL    HW236745   0.280   3.313   2.345 -1.4534 -0.6942  0.4927
 9323SOL     OW36746  10.988   6.159   5.399  0.0319 -0.6761 -0.1131
 9323SOL    HW136747  11.039   6.229   5.358  0.6335 -1.5207 -0.8535
 9323SOL    HW236748  10.994   6.176   5.493 -2.2072  1.9080 -0.2915
 9324SOL     OW36749   4.623   9.382  11.991 -0.1492 -0.0589 -0.3841
 9324SOL    HW136750   4.646   9.432  11.913 -0.3066 -1.7224 -1.5268
 9324SOL    HW236751   4.534   9.411  12.012 -0.7868 -0.8372 -1.8682
 9325SOL     OW36752   5.687   1.839   6.035  0.3984  0.0626 -0.1602
 9325SOL    HW136753   5.761   1.796   6.077  0.4683  1.6728  1.4849
 9325SOL    HW236754   5.726   1.913   5.987  0.0147  0.0056 -0.5640
 9326SOL     OW36755   5.274   0.195   3.097 -1.0564 -0.6222 -0.2588
 9326SOL    HW136756   5.309   0.174   3.011 -0.7646  1.7107 -0.7820
 9326SOL    HW236757   5.351   0.203   3.154 -1.1925 -1.3503  0.0384
 9327SOL     OW36758  12.238  10.971   4.234  0.3821  0.1099 -0.3304
 9327SOL    HW136759  12.209  10.888   4.197  0.0475 -0.2484  0.6936
 9327SOL    HW236760  12.313  10.949   4.288  0.4771  0.5242 -0.2875
 9328SOL     OW36761   6.793   0.850   6.096 -0.3004 -0.1912 -0.6968
 9328SOL    HW136762   6.707   0.813   6.075 -0.2298  0.1745 -1.6637
 9328SOL    HW236763   6.774   0.932   6.142 -0.4749 -1.8923  2.5364
 9329SOL     OW36764   3.318  10.321  11.165 -0.5525 -0.5074 -0.1391
 9329SOL    HW136765   3.281  10.409  11.176 -1.4715 -0.7483 -1.2065
 9329SOL    HW236766   3.307  10.302  11.072  1.4841 -0.9512 -0.3360
 9330SOL     OW36767   3.942   5.337   4.875  0.1956 -0.0070  0.7578
 9330SOL    HW136768   3.851   5.313   4.858  0.6374 -2.1469  1.1557
 9330SOL    HW236769   3.983   5.336   4.789 -0.1922  1.2933  0.5330
 9331SOL     OW36770  10.739   0.127   3.485  0.5023  0.1178 -0.1884
 9331SOL    HW136771  10.714   0.086   3.568 -2.7980  1.6304 -0.2685
 9331SOL    HW236772  10.816   0.180   3.507  0.3552 -0.3564  1.6280
 9332SOL     OW36773   5.318   9.169   6.753 -0.1479 -0.0406 -0.0672
 9332SOL    HW136774   5.396   9.122   6.780 -0.9950 -1.3036  0.2840
 9332SOL    HW236775   5.285   9.120   6.677 -0.4450  0.6400 -0.3877
 9333SOL     OW36776   1.620  10.351  12.370 -0.1368  0.2187 -0.0282
 9333SOL    HW136777   1.589  10.396  12.292  0.8995  1.7219  0.3596
 9333SOL    HW236778   1.550  10.291  12.394 -1.0288  0.7008 -1.3497
 9334SOL     OW36779   3.794  10.586   0.373  0.6065 -0.2966 -0.4713
 9334SOL    HW136780   3.737  10.534   0.430  2.3970 -2.0893 -0.2275
 9334SOL    HW236781   3.761  10.569   0.284 -1.4598  1.6036 -0.1842
 9335SOL     OW36782   8.097  11.744  10.433  0.0385 -0.6390 -0.1814
 9335SOL    HW136783   8.093  11.733  10.337 -1.4939  0.2904 -0.2545
 9335SOL    HW236784   8.084  11.838  10.447  0.9552 -0.6591  0.9319
 9336SOL     OW36785  10.877   5.114   3.151  0.3967 -0.9117 -0.0940
 9336SOL    HW136786  10.886   5.184   3.086  0.9964  0.2604  1.1954
 9336SOL    HW236787  10.900   5.034   3.104  1.5805 -0.0011 -1.1311
 9337SOL     OW36788   0.573   2.133   1.979 -0.1710  0.4579 -0.2052
 9337SOL    HW136789   0.546   2.224   1.989  0.6578  0.9012 -1.7195
 9337SOL    HW236790   0.616   2.112   2.062  0.4803  1.7592 -0.1889
 9338SOL     OW36791   3.396   5.217   2.172  0.3211  0.0873  0.2867
 9338SOL    HW136792   3.347   5.257   2.244 -0.5025 -0.3524 -0.0221
 9338SOL    HW236793   3.473   5.179   2.215 -0.5000 -0.7708  1.0672
 9339SOL     OW36794   6.675  12.574  10.265  0.0984 -0.1104  0.2519
 9339SOL    HW136795   6.581  12.590  10.277  0.2119  0.8535 -0.0043
 9339SOL    HW236796   6.684  12.553  10.172  0.1439 -0.1079  0.2561
 9340SOL     OW36797   5.786   2.321   7.985 -0.0706 -0.7569 -0.1584
 9340SOL    HW136798   5.830   2.327   8.070  1.4238  0.3634 -0.9671
 9340SOL    HW236799   5.694   2.307   8.007  0.3060 -0.6508  1.6460
 9341SOL     OW36800   1.163   9.387  12.268 -0.2993  0.2859 -0.0312
 9341SOL    HW136801   1.187   9.479  12.258 -2.3036  0.9074  0.4254
 9341SOL    HW236802   1.111   9.368  12.190  0.4085 -0.5918 -0.3085
 9342SOL     OW36803   7.797   7.216   1.860 -0.5419  0.6148  0.2776
 9342SOL    HW136804   7.882   7.172   1.869  0.1029  1.4718 -1.2519
 9342SOL    HW236805   7.755   7.205   1.946  1.3226  0.6208  1.2384
 9343SOL     OW36806   4.016   4.346  11.521  0.1272  0.2792 -0.0957
 9343SOL    HW136807   3.972   4.267  11.552  1.4236 -0.1973  0.5740
 9343SOL    HW236808   4.105   4.339  11.554  0.1144  2.3221  0.5406
 9344SOL     OW36809   6.938   2.968   6.964 -0.3217  0.4933  0.3264
 9344SOL    HW136810   7.023   2.930   6.988 -0.3527 -0.5532 -1.1059
 9344SOL    HW236811   6.925   3.038   7.028  0.5395 -0.7953  2.0071
 9345SOL     OW36812   7.611   7.159   3.109 -0.1502 -0.3035 -0.0775
 9345SOL    HW136813   7.608   7.244   3.152  0.4889 -0.1341 -0.3516
 9345SOL    HW236814   7.604   7.179   3.016  2.5033 -0.3043 -0.3620
 9346SOL     OW36815  11.816  12.486   4.322 -0.1130  0.0926 -0.0606
 9346SOL    HW136816  11.721  12.499   4.322  0.0547  1.8875  1.4825
 9346SOL    HW236817  11.829  12.401   4.364 -1.0355  0.3493  0.8000
 9347SOL     OW36818   3.615  10.752  10.607  0.2299  0.0312 -0.1417
 9347SOL    HW136819   3.682  10.684  10.596  1.6312  1.4360 -0.6186
 9347SOL    HW236820   3.591  10.777  10.518  0.2878  0.6863  0.0218
 9348SOL     OW36821   5.792  10.492   3.997 -0.7536 -0.1764  0.0923
 9348SOL    HW136822   5.836  10.513   3.914 -0.9053 -0.3661 -0.0358
 9348SOL    HW236823   5.860  10.450   4.049 -1.0817 -1.5373 -0.5401
 9349SOL     OW36824  12.091   7.117   4.191  0.1620 -0.5495 -0.0512
 9349SOL    HW136825  12.175   7.080   4.166  0.7593  1.0906 -0.6348
 9349SOL    HW236826  12.101   7.137   4.284 -0.1849 -1.8393  0.2801
 9350SOL     OW36827   3.029   4.565   6.022 -0.0118  0.0831  0.0877
 9350SOL    HW136828   3.101   4.542   5.964  0.0039 -0.3172  0.2651
 9350SOL    HW236829   3.071   4.608   6.097 -0.0677  0.9971 -0.3887
 9351SOL     OW36830   1.590   9.662  10.230 -0.7855 -0.0890  0.0777
 9351SOL    HW136831   1.681   9.672  10.203 -1.0576 -0.0418 -0.8428
 9351SOL    HW236832   1.588   9.579  10.278 -0.3802 -0.4272 -0.4785
 9352SOL     OW36833   6.771   4.248   4.335 -0.0350  0.0817  0.2342
 9352SOL    HW136834   6.753   4.264   4.427  1.5648 -0.4447  0.6728
 9352SOL    HW236835   6.763   4.334   4.294 -1.9453  0.1203  0.6191
 9353SOL     OW36836   0.711   5.494  11.094 -0.4964  0.6041  0.2436
 9353SOL    HW136837   0.616   5.484  11.097 -0.3707 -0.8039  0.0922
 9353SOL    HW236838   0.745   5.410  11.126  0.6992  0.8046 -0.4457
 9354SOL     OW36839  11.392   0.927  10.826  0.1817  0.2523 -0.1193
 9354SOL    HW136840  11.471   0.940  10.879  0.5749  1.1358 -0.8903
 9354SOL    HW236841  11.410   0.847  10.776  0.4960  0.3234 -0.1241
 9355SOL     OW36842   0.236   6.934   8.042  0.3958  0.6842 -0.7459
 9355SOL    HW136843   0.228   7.015   7.991 -0.3885  1.5354  0.6501
 9355SOL    HW236844   0.273   6.963   8.126 -1.9988  0.0092  0.6334
 9356SOL     OW36845   0.532   2.446   3.050  0.1102  0.0636 -0.0891
 9356SOL    HW136846   0.582   2.427   3.129 -1.9323 -1.6390  0.9266
 9356SOL    HW236847   0.556   2.376   2.989 -0.8728 -0.7044  0.3681
 9357SOL     OW36848   5.842  11.329   0.207 -0.6393 -0.3727  0.2715
 9357SOL    HW136849   5.859  11.413   0.164 -0.9127  0.3062  1.4359
 9357SOL    HW236850   5.886  11.265   0.152 -3.0236  0.0826 -2.4675
 9358SOL     OW36851   1.751   9.762   8.482 -0.2105 -0.1912  0.3392
 9358SOL    HW136852   1.826   9.735   8.431 -1.3494 -0.2174 -1.4141
 9358SOL    HW236853   1.702   9.681   8.499 -0.2411 -0.0800  0.7943
 9359SOL     OW36854   9.940   2.475   1.130 -0.0975  0.1523  0.1294
 9359SOL    HW136855   9.860   2.433   1.161  0.7651 -1.2035  0.6234
 9359SOL    HW236856   9.983   2.507   1.209 -0.0799  0.7568 -0.1196
 9360SOL     OW36857  12.547   8.566   3.856 -0.1098 -0.5831  0.2400
 9360SOL    HW136858  12.503   8.489   3.892  0.3379 -1.0287 -0.1525
 9360SOL    HW236859  12.640   8.545   3.862 -0.0132 -0.7492 -1.3212
 9361SOL     OW36860   3.604   9.553  10.806 -0.0080  0.5810  0.1738
 9361SOL    HW136861   3.595   9.634  10.855 -1.6541  0.2283  0.4974
 9361SOL    HW236862   3.669   9.573  10.739 -0.3745  2.1634  0.2461
 9362SOL     OW36863   3.880   1.653   5.863  0.1495  0.0496 -0.2782
 9362SOL    HW136864   3.928   1.572   5.879 -0.9939 -0.0893  3.6170
 9362SOL    HW236865   3.808   1.627   5.805  1.7819 -0.8225 -2.0218
 9363SOL     OW36866   6.764   9.730   3.054  0.3253 -0.6427 -0.1972
 9363SOL    HW136867   6.849   9.692   3.074  0.4201 -0.7019 -0.6911
 9363SOL    HW236868   6.706   9.699   3.124  0.9445  0.2657  0.7264
 9364SOL     OW36869   6.854   1.823   1.519 -0.2370  0.6008 -0.0422
 9364SOL    HW136870   6.930   1.881   1.513 -0.3769  0.7503 -0.4131
 9364SOL    HW236871   6.879   1.757   1.583  0.1816  0.6870 -0.1127
 9365SOL     OW36872   9.956   3.652   6.411 -0.0397 -0.3189  0.1297
 9365SOL    HW136873   9.924   3.562   6.403 -0.4601 -0.0132 -2.9765
 9365SOL    HW236874   9.881   3.706   6.385  0.7094  0.8279  0.3036
 9366SOL     OW36875   7.870   6.919   8.887  0.0172 -0.6795 -0.0217
 9366SOL    HW136876   7.879   7.009   8.916  0.4318 -0.0848 -1.8412
 9366SOL    HW236877   7.928   6.869   8.944 -0.0510  0.2248  0.8655
 9367SOL     OW36878   4.083   3.508   4.882 -0.1959 -0.0450 -0.0318
 9367SOL    HW136879   4.056   3.568   4.952  0.4271  1.5716 -1.1188
 9367SOL    HW236880   4.089   3.422   4.925 -0.8572  0.7003  1.6372
 9368SOL     OW36881   0.917   9.431   6.286 -0.1761 -0.5307  0.4344
 9368SOL    HW136882   0.891   9.347   6.325 -0.3055 -0.9860 -0.5877
 9368SOL    HW236883   0.838   9.485   6.291  0.4414  0.2557  2.8780
 9369SOL     OW36884  10.636   8.805  10.563  0.3550  0.2550 -0.1651
 9369SOL    HW136885  10.635   8.854  10.644 -2.6465 -2.5413  1.7321
 9369SOL    HW236886  10.676   8.864  10.499 -0.5312  3.9897  2.4434
 9370SOL     OW36887   1.116   5.878   2.192  0.3426  0.0879  0.2382
 9370SOL    HW136888   1.128   5.843   2.103  1.0878 -1.2874  0.8450
 9370SOL    HW236889   1.097   5.800   2.245 -1.4120  1.0324  1.0795
 9371SOL     OW36890   4.138   2.951   8.142  0.2067  0.2571 -0.4787
 9371SOL    HW136891   4.103   2.864   8.164 -2.3746  0.3681 -3.4170
 9371SOL    HW236892   4.091   3.011   8.199  0.8256 -0.0945  0.4378
 9372SOL     OW36893  11.920   5.638   5.797  0.3862 -0.8593 -0.1486
 9372SOL    HW136894  11.872   5.721   5.806 -2.4504 -2.1418 -2.1572
 9372SOL    HW236895  11.903   5.593   5.879 -1.7705 -1.1460 -0.6719
 9373SOL     OW36896   7.468   7.043   2.643  0.2577  0.1388 -0.0676
 9373SOL    HW136897   7.382   7.024   2.682 -0.6572  1.2883 -1.4018
 9373SOL    HW236898   7.529   7.040   2.717 -1.1481  0.6814  1.1833
 9374SOL     OW36899   8.720   0.255   1.755  0.0656  0.9080  0.3350
 9374SOL    HW136900   8.660   0.196   1.799 -1.2575  1.7113 -0.3369
 9374SOL    HW236901   8.776   0.289   1.825 -0.2319  0.1235  0.9676
 9375SOL     OW36902   2.629   6.971   7.055  0.5055 -0.0375  0.2783
 9375SOL    HW136903   2.639   6.985   6.961  0.3650 -2.2668 -0.1391
 9375SOL    HW236904   2.544   7.010   7.077  1.0008  1.4034 -0.2756
 9376SOL     OW36905   3.233   7.663  12.305  0.0135 -0.0706 -0.2557
 9376SOL    HW136906   3.318   7.638  12.343  0.5630  3.2507  1.0259
 9376SOL    HW236907   3.247   7.656  12.211  0.8236 -1.9888 -0.0632
 9377SOL     OW36908   1.946   5.313   1.331 -0.4504  0.2742  0.2567
 9377SOL    HW136909   1.920   5.245   1.393 -1.8518 -0.6646 -1.2595
 9377SOL    HW236910   1.885   5.385   1.348 -0.6985  0.0993  0.1200
 9378SOL     OW36911   0.138  11.371   2.186  0.0471  0.2714 -0.0283
 9378SOL    HW136912   0.110  11.297   2.240  0.1510  0.6764  0.5888
 9378SOL    HW236913   0.065  11.432   2.191 -0.5352 -0.2602 -1.4739
 9379SOL     OW36914  12.467   6.296   6.774 -0.2919 -0.1211  0.2334
 9379SOL    HW136915  12.489   6.372   6.721  0.4785 -0.4658  0.0328
 9379SOL    HW236916  12.441   6.229   6.710  0.0931 -0.3625  0.3238
 9380SOL     OW36917   7.827   8.657   7.414  0.1224  0.0327  0.6694
 9380SOL    HW136918   7.827   8.733   7.355 -1.5824  0.0497  0.6522
 9380SOL    HW236919   7.913   8.660   7.457  0.6759  1.0834 -0.4483
 9381SOL     OW36920  11.337   0.117   9.954  0.3404  0.6662  0.1871
 9381SOL    HW136921  11.292   0.077  10.028  2.4292 -0.9317  0.6763
 9381SOL    HW236922  11.267   0.160   9.904 -1.7236 -1.6204  0.8944
 9382SOL     OW36923   1.776   3.670   3.094  0.0318  0.5748 -0.4424
 9382SOL    HW136924   1.792   3.579   3.069  1.8158  0.6860  0.1555
 9382SOL    HW236925   1.704   3.665   3.157 -0.6292 -0.2948 -1.2371
 9383SOL     OW36926   1.107   8.433   4.976 -0.1663  0.1768  0.2563
 9383SOL    HW136927   1.032   8.378   4.955  0.9321 -0.6782 -1.7539
 9383SOL    HW236928   1.110   8.498   4.905  1.0356  0.1108  0.2130
 9384SOL     OW36929   8.759   1.702   7.292 -0.4789  0.4326 -0.4344
 9384SOL    HW136930   8.724   1.789   7.270 -3.6915 -0.2942  1.2041
 9384SOL    HW236931   8.682   1.645   7.292  1.2248 -2.0092  0.5516
 9385SOL     OW36932  11.650   3.191   7.547 -0.2359  0.4605  0.1244
 9385SOL    HW136933  11.604   3.179   7.464 -0.7070 -0.3575  0.4934
 9385SOL    HW236934  11.703   3.269   7.534  0.9201 -0.5490 -1.4945
 9386SOL     OW36935  10.495   4.342   8.267  0.0705  0.5662 -0.9320
 9386SOL    HW136936  10.476   4.249   8.257  0.6431  0.0234  2.1353
 9386SOL    HW236937  10.559   4.361   8.198  0.1564 -1.3674 -1.4330
 9387SOL     OW36938   3.624   2.980   5.022  0.1921 -0.0056 -0.5098
 9387SOL    HW136939   3.699   2.972   4.963 -0.0788  1.0363 -1.0159
 9387SOL    HW236940   3.549   2.954   4.970  0.1475 -0.6750 -0.1187
 9388SOL     OW36941   4.553   0.790   0.957  0.0802  0.0858  0.2618
 9388SOL    HW136942   4.624   0.728   0.971 -1.5139 -1.8186  0.2858
 9388SOL    HW236943   4.574   0.832   0.873  1.2974 -0.3104  0.3507
 9389SOL     OW36944   5.328   5.432   0.987  0.5104  0.1500 -0.0520
 9389SOL    HW136945   5.319   5.499   0.920 -0.4451 -0.7509 -0.8603
 9389SOL    HW236946   5.274   5.463   1.060  1.7774  1.2679  0.4483
 9390SOL     OW36947   9.280   5.578   7.856  0.1984 -0.4068 -0.3359
 9390SOL    HW136948   9.350   5.626   7.811  0.4577 -0.7662 -0.3193
 9390SOL    HW236949   9.213   5.644   7.873  0.7558  0.0586  0.1037
 9391SOL     OW36950   8.185   1.568   3.873 -0.5879  0.2488  0.6580
 9391SOL    HW136951   8.093   1.549   3.895 -1.5689  1.9358 -1.5657
 9391SOL    HW236952   8.214   1.491   3.825 -1.3443  0.2866  0.1122
 9392SOL     OW36953   7.669   2.129   3.601 -0.1411  0.0323  0.6135
 9392SOL    HW136954   7.677   2.097   3.691  0.3611  0.2035  0.6308
 9392SOL    HW236955   7.650   2.222   3.610  1.0475  0.2953  0.5370
 9393SOL     OW36956  11.825   3.669   8.993 -0.4321 -0.2992 -0.0513
 9393SOL    HW136957  11.884   3.743   8.988 -0.1388 -0.4898  0.5020
 9393SOL    HW236958  11.881   3.592   8.986 -0.6895 -0.4769 -0.2088
 9394SOL     OW36959   8.010   0.684   6.988 -0.1402  0.4321 -0.2094
 9394SOL    HW136960   8.000   0.605   7.041 -0.2463  1.5539  1.5396
 9394SOL    HW236961   8.087   0.667   6.933  1.5350  0.0823  2.0706
 9395SOL     OW36962   3.187   3.958   1.852  0.2777  0.8433  0.3338
 9395SOL    HW136963   3.108   3.991   1.894 -0.4579  0.8418 -1.0077
 9395SOL    HW236964   3.163   3.946   1.761  1.6780  0.3252  0.0041
 9396SOL     OW36965   3.137   7.857  11.189 -0.9080 -0.4196 -0.0010
 9396SOL    HW136966   3.160   7.950  11.185 -0.2893 -0.3176  3.2037
 9396SOL    HW236967   3.212   7.812  11.151 -1.1806  0.3399 -1.5165
 9397SOL     OW36968   4.736  10.378   3.206 -0.2084  0.4870 -0.4238
 9397SOL    HW136969   4.701  10.461   3.172  1.3581  1.1102 -0.5750
 9397SOL    HW236970   4.823  10.400   3.238  0.5512 -1.2646 -1.1569
 9398SOL     OW36971   4.100   5.817   7.440 -0.2221  0.4598  0.7280
 9398SOL    HW136972   4.180   5.859   7.471  0.2622  0.8471 -0.9456
 9398SOL    HW236973   4.031   5.879   7.461  0.1449  0.8989  0.6631
 9399SOL     OW36974   1.231   1.807   9.432  0.0055  0.3106 -0.0542
 9399SOL    HW136975   1.149   1.856   9.438  0.2473  0.9632 -1.6406
 9399SOL    HW236976   1.212   1.735   9.372  0.3250 -0.1355  0.3715
 9400SOL     OW36977   2.896  10.554  11.396  0.6488  0.4613  0.2463
 9400SOL    HW136978   2.942  10.503  11.462  0.4817  1.1236  0.8874
 9400SOL    HW236979   2.839  10.490  11.352  0.6093  0.0528  0.8767
 9401SOL     OW36980   4.951   3.457   4.584 -0.2931 -0.0919  0.6724
 9401SOL    HW136981   4.887   3.427   4.520  0.6492 -2.0742  0.5810
 9401SOL    HW236982   4.978   3.544   4.553  0.1297 -0.9841 -1.6401
 9402SOL     OW36983  11.726  12.158   0.453 -0.1994  0.0378 -0.3962
 9402SOL    HW136984  11.656  12.136   0.392 -0.2595  1.8381 -1.0336
 9402SOL    HW236985  11.806  12.125   0.411 -0.5925 -1.7681  0.2021
 9403SOL     OW36986   0.538   1.880   9.250 -0.1132 -0.0187 -0.5949
 9403SOL    HW136987   0.516   1.973   9.254 -1.8119 -0.1639 -3.5109
 9403SOL    HW236988   0.469   1.837   9.300  0.0600  0.1868 -0.1678
 9404SOL     OW36989   3.214   2.916   2.900  0.1939 -0.6373  0.7875
 9404SOL    HW136990   3.304   2.918   2.867  0.0666 -0.0117  0.4717
 9404SOL    HW236991   3.176   2.999   2.873 -0.5134 -0.9355  0.8335
 9405SOL     OW36992   5.674   8.343   6.442  0.3313  0.7242 -0.4846
 9405SOL    HW136993   5.743   8.277   6.450  1.3077  1.8368  0.5339
 9405SOL    HW236994   5.621   8.332   6.521  0.5580  1.2271 -0.2615
 9406SOL     OW36995   7.156  10.479   9.380 -0.3126 -0.1196 -0.2916
 9406SOL    HW136996   7.121  10.448   9.296 -2.0098 -1.3448  0.8181
 9406SOL    HW236997   7.195  10.402   9.420 -1.1155  0.0394  0.8296
 9407SOL     OW36998   3.701   1.232   7.025  0.1735  0.9164 -0.0448
 9407SOL    HW136999   3.673   1.286   7.099  2.0566  0.5387  0.9912
 9407SOL    HW237000   3.743   1.156   7.065  0.5787  0.3360 -1.5086
 9408SOL     OW37001   1.560   8.599   6.080 -0.0074 -0.3976 -0.2674
 9408SOL    HW137002   1.579   8.519   6.031 -0.8937  0.1515 -1.5748
 9408SOL    HW237003   1.633   8.657   6.059 -0.5160 -0.0678 -1.2201
 9409SOL     OW37004   6.151   6.495   8.367 -0.2639 -0.0983 -0.0781
 9409SOL    HW137005   6.168   6.478   8.460 -1.2970 -1.1021 -0.0382
 9409SOL    HW237006   6.237   6.505   8.327  0.1859  0.6413  1.0308
 9410SOL     OW37007   9.803   6.667   6.339 -0.1468 -0.0431 -0.0280
 9410SOL    HW137008   9.860   6.742   6.357 -0.5717  0.4067 -0.5246
 9410SOL    HW237009   9.859   6.590   6.353  1.4863  0.3878 -3.1154
 9411SOL     OW37010   0.189   8.833   4.682 -0.1022 -0.3549  0.0821
 9411SOL    HW137011   0.201   8.927   4.699 -1.0038 -0.2017 -0.0454
 9411SOL    HW237012   0.094   8.823   4.674 -0.1719 -1.6459  2.0900
 9412SOL     OW37013   1.967   9.736   5.897 -0.2894  0.3733  0.1708
 9412SOL    HW137014   2.027   9.693   5.959 -0.6526  0.5555  0.6528
 9412SOL    HW237015   1.880   9.705   5.923 -0.3224 -0.8687 -1.3027
 9413SOL     OW37016  11.954   4.176  10.952  0.5157  0.1334 -0.7676
 9413SOL    HW137017  11.926   4.116  11.021 -1.8845  0.2355 -1.5411
 9413SOL    HW237018  12.027   4.224  10.989 -0.5856  0.0760  1.6302
 9414SOL     OW37019   6.528   3.811   0.266 -0.1522  0.2134 -0.5610
 9414SOL    HW137020   6.585   3.887   0.260 -0.9128  0.7800 -0.6582
 9414SOL    HW237021   6.515   3.798   0.360  1.5835 -1.0338 -0.4328
 9415SOL     OW37022   3.434   9.487   3.163  0.3911  0.2047  0.2797
 9415SOL    HW137023   3.476   9.420   3.216  0.4081  1.0039  1.3198
 9415SOL    HW237024   3.410   9.556   3.226  0.0047  0.9852 -0.6877
 9416SOL     OW37025  10.860   2.187   5.111 -0.0651  0.0631  0.0512
 9416SOL    HW137026  10.847   2.239   5.031  0.2408 -2.1579 -1.5392
 9416SOL    HW237027  10.953   2.200   5.132 -0.6764  2.6020  1.5740
 9417SOL     OW37028  11.539   7.658  11.452 -0.1531 -0.4777  0.0071
 9417SOL    HW137029  11.616   7.707  11.423 -0.1055 -1.3288 -1.4515
 9417SOL    HW237030  11.499   7.712  11.519  1.1019  0.5081 -0.0084
 9418SOL     OW37031  12.006   3.804   2.844 -0.3255 -0.2439  0.1140
 9418SOL    HW137032  12.081   3.863   2.847 -0.7844  0.4220 -0.8772
 9418SOL    HW237033  11.991   3.780   2.935 -0.1276  1.1833  0.5529
 9419SOL     OW37034   7.371  10.980   8.329  0.2017  0.2297  0.1903
 9419SOL    HW137035   7.302  11.040   8.358  0.5511  0.6541  0.1635
 9419SOL    HW237036   7.341  10.947   8.245  0.3910  1.0451 -0.2164
 9420SOL     OW37037   2.898   3.557   3.607  1.1427 -0.0186 -0.0050
 9420SOL    HW137038   2.977   3.505   3.619  1.5100  0.3824 -0.6317
 9420SOL    HW237039   2.861   3.565   3.695 -0.9260 -4.3500 -0.2070
 9421SOL     OW37040   3.664   3.410   7.085  0.4259  0.2261 -0.5841
 9421SOL    HW137041   3.733   3.474   7.104  0.3053  0.1381  0.1984
 9421SOL    HW237042   3.601   3.458   7.030 -0.3042  1.2142  1.0205
 9422SOL     OW37043   3.223   4.153   7.593  0.3400 -0.4236 -0.0402
 9422SOL    HW137044   3.198   4.062   7.608 -0.4318 -0.0259  1.1821
 9422SOL    HW237045   3.310   4.161   7.633  0.3499 -0.5941 -0.0277
 9423SOL     OW37046   2.592   4.968   2.482 -0.8271 -0.5155 -0.3623
 9423SOL    HW137047   2.680   5.004   2.495 -0.0423 -1.8336 -1.7370
 9423SOL    HW237048   2.607   4.877   2.455 -2.6728 -1.2914  1.0129
 9424SOL     OW37049   6.218   3.644   9.409  0.6497 -0.1483 -0.0200
 9424SOL    HW137050   6.246   3.588   9.481  0.2177  0.7056  0.8365
 9424SOL    HW237051   6.125   3.659   9.426  0.3471 -0.5606 -1.1966
 9425SOL     OW37052   7.299   8.716   6.331  0.1427 -0.0675  0.1164
 9425SOL    HW137053   7.315   8.670   6.248  0.0135  1.4520 -0.7993
 9425SOL    HW237054   7.379   8.767   6.345 -0.3051  0.6072  0.2737
 9426SOL     OW37055  11.595   0.594   7.647 -0.1369 -0.0636 -0.5622
 9426SOL    HW137056  11.635   0.672   7.686  0.8175 -0.9286  0.2623
 9426SOL    HW237057  11.669   0.544   7.613 -0.7785 -0.3948 -1.4965
 9427SOL     OW37058   9.514  10.108   4.035  0.3418 -0.3939  0.5618
 9427SOL    HW137059   9.434  10.066   4.001  0.2684  0.7320 -0.7315
 9427SOL    HW237060   9.482  10.182   4.087  0.5086 -1.1743  1.8205
 9428SOL     OW37061   6.585   8.425   9.991  0.2971 -0.0021 -0.4974
 9428SOL    HW137062   6.552   8.372  10.064  2.5044 -0.8237 -0.0170
 9428SOL    HW237063   6.568   8.372   9.913 -0.1244 -0.0845 -0.3556
 9429SOL     OW37064   0.457   6.036   9.544 -0.4245  0.1643 -0.1726
 9429SOL    HW137065   0.404   6.086   9.481 -0.5703  0.7607  0.4086
 9429SOL    HW237066   0.491   6.103   9.603  1.2567 -0.1673 -0.7274
 9430SOL     OW37067   8.399   3.938   4.592  0.0782  0.1019  0.0953
 9430SOL    HW137068   8.406   4.000   4.665 -3.4010  0.1830  0.5385
 9430SOL    HW237069   8.310   3.904   4.598  0.9131 -2.8479 -1.8580
 9431SOL     OW37070   2.636   6.205   5.438 -0.3880  0.1132  0.1993
 9431SOL    HW137071   2.727   6.215   5.463  0.0291  1.1590 -1.5567
 9431SOL    HW237072   2.586   6.235   5.514  0.7838  3.2257 -0.1285
 9432SOL     OW37073   7.072   1.476   2.952 -0.3646 -0.7082 -0.5029
 9432SOL    HW137074   7.027   1.441   3.029  0.4329 -0.4888  0.0792
 9432SOL    HW237075   7.060   1.570   2.958  0.2076 -0.6409 -0.3053
 9433SOL     OW37076   4.142   0.081   4.134  0.1143  0.4091  0.0320
 9433SOL    HW137077   4.070   0.018   4.134  0.1576  0.3570  0.7436
 9433SOL    HW237078   4.139   0.122   4.221  0.7961  0.5743 -0.0163
 9434SOL     OW37079   5.785   4.274   9.795  0.1905  0.1949  0.4359
 9434SOL    HW137080   5.841   4.197   9.789  0.3388  0.3226  0.1364
 9434SOL    HW237081   5.827   4.338   9.738 -0.5771  0.0884 -0.2725
 9435SOL     OW37082   1.269   0.020   1.767  0.5481 -0.0294 -0.5414
 9435SOL    HW137083   1.354   0.059   1.790  1.2032 -2.2808  1.2548
 9435SOL    HW237084   1.288  -0.033   1.690  1.2039 -1.6304  0.6514
 9436SOL     OW37085   3.382   8.301   2.211 -0.2147  0.1356 -0.1151
 9436SOL    HW137086   3.287   8.305   2.203 -0.3858 -0.8241  1.1318
 9436SOL    HW237087   3.414   8.363   2.146 -1.7407  1.7709  0.6062
 9437SOL     OW37088  11.937   0.894   2.363 -0.4988 -0.4290 -0.2251
 9437SOL    HW137089  11.871   0.910   2.431 -0.8241 -2.0780 -0.1190
 9437SOL    HW237090  11.979   0.812   2.389 -0.3626 -0.8928 -1.8091
 9438SOL     OW37091  11.012   2.432   6.766  0.2042  0.6853  0.1278
 9438SOL    HW137092  11.089   2.417   6.822 -0.7088 -1.2720  0.9354
 9438SOL    HW237093  11.025   2.375   6.691  0.1602  1.3690 -0.4137
 9439SOL     OW37094   6.505   1.667  11.742  0.1679  0.0466  0.1895
 9439SOL    HW137095   6.414   1.665  11.714  0.8354 -1.2421 -2.1359
 9439SOL    HW237096   6.550   1.720  11.676  0.7891  2.9963  2.7184
 9440SOL     OW37097  10.984   9.167   9.238  0.3570 -0.4281 -0.6723
 9440SOL    HW137098  11.011   9.259   9.237  2.8464 -1.0709 -0.8948
 9440SOL    HW237099  10.917   9.161   9.170 -2.8789  1.9109  1.9804
 9441SOL     OW37100   1.215   9.956   6.432  0.0121 -0.6117  0.5032
 9441SOL    HW137101   1.145   9.908   6.476 -0.2962 -0.3217  0.3326
 9441SOL    HW237102   1.295   9.925   6.475  0.0429 -2.8553 -0.9895
 9442SOL     OW37103  11.343   3.752   6.657  0.1021 -0.0475 -0.0375
 9442SOL    HW137104  11.345   3.813   6.730 -0.8423  1.3957 -1.1440
 9442SOL    HW237105  11.260   3.704   6.667 -1.5699  2.2316 -1.6388
 9443SOL     OW37106   3.123   6.162   7.246  0.4640  0.1338  0.1866
 9443SOL    HW137107   3.181   6.210   7.188  0.9511 -2.2332 -1.4118
 9443SOL    HW237108   3.058   6.122   7.189 -1.8921  1.4227  1.7823
 9444SOL     OW37109   9.793   1.254   0.379 -0.3057 -0.1378  0.0770
 9444SOL    HW137110   9.726   1.295   0.325  0.7508  0.0766 -1.1245
 9444SOL    HW237111   9.770   1.161   0.380 -0.3477 -0.1404 -0.7346
 9445SOL     OW37112   5.010   9.017  10.486  0.3911  0.1659  0.0910
 9445SOL    HW137113   5.005   8.993  10.394  0.9890  0.9579 -0.1587
 9445SOL    HW237114   5.049   8.941  10.529 -2.7403 -1.5154  0.2577
 9446SOL     OW37115   4.210  11.994   4.729  0.0712 -0.3539  0.1022
 9446SOL    HW137116   4.289  12.044   4.710 -0.7330  1.6447  1.7323
 9446SOL    HW237117   4.234  11.903   4.707  1.9836  0.5061 -1.7394
 9447SOL     OW37118   5.326   4.990   4.553 -0.6661 -0.8806  0.0027
 9447SOL    HW137119   5.346   5.083   4.559 -0.3127 -0.7696 -1.9584
 9447SOL    HW237120   5.289   4.967   4.638  0.1038  0.8252  0.8373
 9448SOL     OW37121   9.058  10.569   1.017  0.3903  0.2774 -0.0947
 9448SOL    HW137122   8.969  10.604   1.018  0.2088 -0.1790  1.4194
 9448SOL    HW237123   9.052  10.491   0.962 -0.2708 -0.0838  0.4860
 9449SOL     OW37124  10.648   6.620   2.456 -0.1277 -0.3265  0.1606
 9449SOL    HW137125  10.658   6.709   2.490  2.5304  0.0310 -1.2885
 9449SOL    HW237126  10.736   6.583   2.460 -1.2009 -2.9653  0.8106
 9450SOL     OW37127   1.141  11.860   0.487 -0.2398 -0.5023  0.1410
 9450SOL    HW137128   1.226  11.817   0.501  0.0994 -0.6999 -2.1479
 9450SOL    HW237129   1.094  11.802   0.428 -1.6863  0.0033  0.7426
 9451SOL     OW37130   7.706   7.084   1.358 -0.0821 -0.4171 -0.4783
 9451SOL    HW137131   7.776   7.137   1.396 -1.4596 -0.3593  2.2530
 9451SOL    HW237132   7.628   7.140   1.362 -1.0207 -1.7136 -0.0095
 9452SOL     OW37133   9.807   8.981   2.089  0.0041  0.6247 -0.0961
 9452SOL    HW137134   9.750   8.915   2.128  0.7448  0.0402  0.0195
 9452SOL    HW237135   9.860   8.933   2.026 -0.5552  1.4000 -1.1771
 9453SOL     OW37136   4.448  11.067  10.772 -0.3253  0.8947  0.7495
 9453SOL    HW137137   4.425  11.131  10.705  1.6032 -0.2013 -1.0687
 9453SOL    HW237138   4.520  11.107  10.820 -0.6615  1.0138  1.1702
 9454SOL     OW37139   2.795   1.493   8.060 -0.1794 -0.1550 -0.2807
 9454SOL    HW137140   2.736   1.563   8.033 -0.4480 -0.3523 -0.2046
 9454SOL    HW237141   2.841   1.468   7.980 -0.9430 -0.7077 -0.5573
 9455SOL     OW37142   1.375   9.098   9.931 -0.0470  0.0727 -0.1912
 9455SOL    HW137143   1.283   9.126   9.939 -0.1673 -0.3848  0.0615
 9455SOL    HW237144   1.422   9.153   9.995 -0.2144  0.0038 -0.0061
 9456SOL     OW37145   1.288   1.640   9.239  0.4355 -0.0310  0.5052
 9456SOL    HW137146   1.311   1.717   9.187 -0.0365  0.0182  0.3621
 9456SOL    HW237147   1.244   1.582   9.177 -0.3274  0.1172  0.8885
 9457SOL     OW37148   2.530   9.779  12.200  0.1559  0.2038 -0.2562
 9457SOL    HW137149   2.437   9.783  12.176 -0.1356 -0.8474  0.6549
 9457SOL    HW237150   2.533   9.805  12.292  0.3923 -2.2791  0.5189
 9458SOL     OW37151   1.071   4.267   5.997 -0.6056 -0.5200 -0.8749
 9458SOL    HW137152   1.055   4.339   5.936 -0.6882 -0.7964 -1.1800
 9458SOL    HW237153   1.030   4.191   5.956 -3.1073 -0.1749  0.8286
 9459SOL     OW37154   5.355  10.562   8.993  0.4032  0.0556 -0.2542
 9459SOL    HW137155   5.314  10.647   8.976  1.0276  0.2566 -0.8200
 9459SOL    HW237156   5.293  10.499   8.957 -0.2627  0.2335  0.5473
 9460SOL     OW37157  11.886   9.009   3.690 -0.2234 -0.0876  0.1369
 9460SOL    HW137158  11.836   9.085   3.722 -0.0411  0.1969 -0.2489
 9460SOL    HW237159  11.897   9.025   3.596 -0.0250 -0.5048  0.0871
 9461SOL     OW37160   0.557   1.058   1.329  0.3690 -0.2390 -0.0768
 9461SOL    HW137161   0.616   1.078   1.402  0.4852  0.3710 -0.3375
 9461SOL    HW237162   0.551   0.962   1.329 -1.1920 -0.2077  1.9752
 9462SOL     OW37163  11.568   4.476  10.146 -0.3423 -0.0875  0.1874
 9462SOL    HW137164  11.553   4.442  10.058 -1.1639  0.1243  0.2332
 9462SOL    HW237165  11.509   4.551  10.153 -1.4622 -1.0337  1.4568
 9463SOL     OW37166   4.671   4.832   9.114 -0.3163 -0.3296 -0.0706
 9463SOL    HW137167   4.716   4.750   9.094 -0.9363 -0.4828 -0.8403
 9463SOL    HW237168   4.716   4.865   9.193  0.9366 -0.6376 -0.6278
 9464SOL     OW37169  11.150   0.180  12.319  0.3677  0.0709 -0.5206
 9464SOL    HW137170  11.202   0.137  12.387 -0.1008 -0.1799 -0.3146
 9464SOL    HW237171  11.063   0.190  12.357  0.2267  0.3677 -0.9066
 9465SOL     OW37172   0.569   2.139  10.282  0.2357  0.1868 -0.0231
 9465SOL    HW137173   0.618   2.209  10.327  0.2136 -0.2758  0.7398
 9465SOL    HW237174   0.547   2.077  10.351 -0.0195 -0.4257 -0.6412
 9466SOL     OW37175   8.949  11.650   0.917  0.6885 -0.1936 -0.3812
 9466SOL    HW137176   8.966  11.665   1.010 -0.9754 -2.0075  0.2809
 9466SOL    HW237177   8.922  11.736   0.884  0.5310  0.3230  0.9957
 9467SOL     OW37178   4.952   4.232   8.093  0.0949  0.1469 -0.0700
 9467SOL    HW137179   5.016   4.302   8.080 -0.1037  0.1548 -1.0994
 9467SOL    HW237180   4.904   4.257   8.172  0.3307  0.9326 -0.1736
 9468SOL     OW37181   8.040   4.483  12.381  0.4155 -0.2977 -0.2394
 9468SOL    HW137182   7.955   4.516  12.351  0.7654  1.4255  0.5887
 9468SOL    HW237183   8.038   4.390  12.357 -2.5791 -0.8690  1.5886
 9469SOL     OW37184  10.380   4.269   4.539 -0.5701 -0.0974 -0.2377
 9469SOL    HW137185  10.472   4.279   4.513 -0.6448  0.0047 -0.4669
 9469SOL    HW237186  10.382   4.208   4.612 -0.1990  0.7655  0.4993
 9470SOL     OW37187   7.124   8.791   6.611 -0.6581  0.2949 -0.0847
 9470SOL    HW137188   7.137   8.812   6.519 -3.0678 -0.1455 -0.5933
 9470SOL    HW237189   7.115   8.696   6.613  0.8793  0.1287  0.8705
 9471SOL     OW37190   2.230   4.262   9.443 -0.3572  0.1791 -0.3088
 9471SOL    HW137191   2.323   4.268   9.422 -0.0340 -0.2050  0.9378
 9471SOL    HW237192   2.202   4.180   9.403  0.1956 -0.4384  0.5465
 9472SOL     OW37193  10.877   0.529  11.469 -0.1756 -0.5222 -0.2683
 9472SOL    HW137194  10.805   0.544  11.530  0.7748  1.4318  0.4815
 9472SOL    HW237195  10.941   0.478  11.520  0.6973  1.2655  0.5209
 9473SOL     OW37196   4.836   3.181   0.252  0.0643  0.3354 -0.0995
 9473SOL    HW137197   4.780   3.186   0.329  0.3002 -0.4005  0.1329
 9473SOL    HW237198   4.776   3.172   0.178 -0.1448  0.4310  0.0597
 9474SOL     OW37199   5.107   1.954  11.021  0.5957  0.5043  0.4535
 9474SOL    HW137200   5.115   1.866  10.985 -1.1773  0.9809 -1.2666
 9474SOL    HW237201   5.178   1.960  11.085  0.9821 -2.0297  0.3734
 9475SOL     OW37202  12.354   4.934   2.221 -0.3728 -0.0456  0.0936
 9475SOL    HW137203  12.342   4.887   2.139  3.8350 -1.2217 -0.0688
 9475SOL    HW237204  12.367   5.026   2.195 -1.6207  0.0482 -0.2511
 9476SOL     OW37205   8.052   8.049  10.868 -0.0354  0.0539  0.0942
 9476SOL    HW137206   8.147   8.043  10.869 -0.0213  0.0428 -0.6894
 9476SOL    HW237207   8.034   8.143  10.865 -0.0618  0.0742  0.7961
 9477SOL     OW37208   1.051   7.665  12.173  0.1534  0.2914 -0.3691
 9477SOL    HW137209   1.018   7.718  12.100 -2.3997  2.0550  1.8779
 9477SOL    HW237210   1.082   7.729  12.237 -1.3935 -0.9619  1.7275
 9478SOL     OW37211   5.246   5.262   8.119 -0.4391 -0.3574 -0.0845
 9478SOL    HW137212   5.265   5.181   8.166  0.4480  1.2767  2.5917
 9478SOL    HW237213   5.171   5.300   8.166 -1.1793  0.1522 -1.6141
 9479SOL     OW37214   8.511   9.162   5.272  0.2461 -0.1102 -0.0620
 9479SOL    HW137215   8.482   9.183   5.183 -2.0247 -2.2325  0.0558
 9479SOL    HW237216   8.466   9.080   5.292  0.9031  0.1810  2.9623
 9480SOL     OW37217   3.362   1.798   3.873 -0.6336 -0.0499 -0.2786
 9480SOL    HW137218   3.385   1.834   3.788 -1.2160  2.6023  0.5819
 9480SOL    HW237219   3.443   1.804   3.924 -0.9068  0.7553  0.0752
 9481SOL     OW37220   8.023   4.573   9.206  0.3928 -0.1637  0.6326
 9481SOL    HW137221   8.086   4.644   9.207  0.8389 -0.5581  1.0973
 9481SOL    HW237222   7.939   4.616   9.190  0.8552  0.2887 -0.7152
 9482SOL     OW37223   3.922   2.923   5.604  0.5915 -0.3775  0.7030
 9482SOL    HW137224   3.854   2.909   5.670  0.6649  0.1240  0.8861
 9482SOL    HW237225   3.969   3.001   5.634 -0.5683  1.0071 -0.9414
 9483SOL     OW37226   3.131   3.329   0.550 -0.4209  0.4153  0.2964
 9483SOL    HW137227   3.080   3.301   0.474  1.1859  2.1454 -1.5120
 9483SOL    HW237228   3.185   3.252   0.572 -0.6076  0.0200 -0.5758
 9484SOL     OW37229   2.256  10.343  10.822 -0.1128  0.4707  0.3840
 9484SOL    HW137230   2.324  10.300  10.874  0.1427  2.8101  2.1801
 9484SOL    HW237231   2.298  10.422  10.789 -1.4234  1.0033 -0.0774
 9485SOL     OW37232   5.823  11.568   3.264  0.0941  0.1311  0.2057
 9485SOL    HW137233   5.862  11.485   3.291  3.3495  1.3285 -0.3941
 9485SOL    HW237234   5.852  11.631   3.330  0.8680  1.4574 -1.3377
 9486SOL     OW37235   5.550   1.985   7.927  0.6654 -0.9185  0.0537
 9486SOL    HW137236   5.582   1.986   8.017  2.5187 -1.2956 -0.5540
 9486SOL    HW237237   5.550   2.077   7.901 -1.7569 -0.5819  1.0080
 9487SOL     OW37238   1.538   1.973   7.717  0.5085 -0.0932 -0.3747
 9487SOL    HW137239   1.458   1.991   7.667 -0.6010 -1.4875  0.8320
 9487SOL    HW237240   1.596   1.932   7.654  0.3027  0.9371 -1.2718
 9488SOL     OW37241   0.709   7.745   1.435 -0.5130 -0.2749  0.2663
 9488SOL    HW137242   0.625   7.747   1.389  0.1738 -1.6859 -1.1628
 9488SOL    HW237243   0.735   7.837   1.442 -3.0291  0.3870  2.4973
 9489SOL     OW37244   6.193  12.176  10.906  0.1700  0.2582  0.5265
 9489SOL    HW137245   6.122  12.240  10.898 -1.3824 -1.2611  1.4130
 9489SOL    HW237246   6.258  12.219  10.961 -0.6174  1.2448  0.7078
 9490SOL     OW37247   0.473   8.761  11.834  0.2753  0.5014 -0.2002
 9490SOL    HW137248   0.491   8.668  11.844  0.2949  0.5394  0.1229
 9490SOL    HW237249   0.379   8.769  11.852  0.0620  0.4034 -1.2100
 9491SOL     OW37250   7.231   5.291   0.826  0.0804 -0.1386  0.2297
 9491SOL    HW137251   7.322   5.309   0.852 -0.1119 -0.5100  1.1846
 9491SOL    HW237252   7.221   5.339   0.744  1.7174 -1.6189 -0.9114
 9492SOL     OW37253   7.401   7.846   7.569  0.2931 -0.4276 -0.0178
 9492SOL    HW137254   7.386   7.782   7.639  0.9732 -0.7147 -0.1264
 9492SOL    HW237255   7.336   7.823   7.502 -0.9750  0.4232  0.8856
 9493SOL     OW37256   3.247  10.828   1.774  0.6608 -0.1272 -0.3748
 9493SOL    HW137257   3.151  10.832   1.779  0.5735  2.1207 -2.0789
 9493SOL    HW237258   3.265  10.745   1.729 -0.5359 -0.3070 -0.5484
 9494SOL     OW37259  11.045   2.448  12.425  0.3562  0.2721 -0.0615
 9494SOL    HW137260  10.988   2.407  12.491 -0.0803 -0.1436 -0.6786
 9494SOL    HW237261  11.035   2.392  12.347  1.7865  0.0594 -0.1194
 9495SOL     OW37262   0.296   8.356   0.480  0.1865  0.3898 -0.5399
 9495SOL    HW137263   0.369   8.295   0.487  1.3340  1.8372  0.5498
 9495SOL    HW237264   0.336   8.440   0.455 -0.9143  1.4861  1.1571
 9496SOL     OW37265   1.299   3.563   1.756 -0.4790 -0.0286 -0.0472
 9496SOL    HW137266   1.254   3.635   1.800  1.0049  0.0104  1.4798
 9496SOL    HW237267   1.391   3.589   1.754 -0.3517 -0.4522 -2.4292
 9497SOL     OW37268   0.632   9.493   3.045 -0.2061  0.3921 -0.0428
 9497SOL    HW137269   0.712   9.542   3.064 -0.8094  0.3329  3.3132
 9497SOL    HW237270   0.650   9.450   2.961  2.7741  1.3514 -0.0381
 9498SOL     OW37271   8.170   9.119   2.007 -0.4990 -0.1305  0.4842
 9498SOL    HW137272   8.255   9.156   1.981 -0.7437 -0.7510 -1.3409
 9498SOL    HW237273   8.173   9.117   2.103  1.0301  1.0421  0.5009
 9499SOL     OW37274   6.630   0.307   5.139  0.1893  0.8893  0.2496
 9499SOL    HW137275   6.671   0.379   5.188 -0.1148 -0.8711  3.3559
 9499SOL    HW237276   6.703   0.249   5.117  0.2933  1.5688 -1.2817
 9500SOL     OW37277   6.711  12.448   0.632 -0.2781 -0.1603 -0.3458
 9500SOL    HW137278   6.788  12.459   0.689  1.1895 -2.8755 -1.6339
 9500SOL    HW237279   6.748  12.436   0.545 -2.3944  1.6750 -1.5951
 9501SOL     OW37280  10.332   5.977   7.077  0.1153  0.3255 -0.2768
 9501SOL    HW137281  10.399   5.909   7.080 -0.5718 -0.3467  2.1670
 9501SOL    HW237282  10.249   5.930   7.081 -0.3862  1.2561  1.1275
 9502SOL     OW37283  10.475   1.836   9.149 -0.1495 -0.1959 -0.6902
 9502SOL    HW137284  10.485   1.860   9.241 -3.8931  0.3814 -0.2674
 9502SOL    HW237285  10.530   1.899   9.102  0.7891  0.3544  1.0665
 9503SOL     OW37286   4.800   8.176   9.883  0.1587 -0.4044  0.0771
 9503SOL    HW137287   4.772   8.148   9.970  2.1768  1.2108  1.3414
 9503SOL    HW237288   4.742   8.251   9.863  0.8081  0.3277  0.8485
 9504SOL     OW37289   8.580   8.868   1.652 -0.5894  0.2136 -0.8985
 9504SOL    HW137290   8.662   8.855   1.604 -0.4593 -1.2654 -0.3147
 9504SOL    HW237291   8.512   8.836   1.593 -0.5281 -0.6113 -0.5327
 9505SOL     OW37292  10.090   2.803   7.568 -0.1736  0.6169  0.4974
 9505SOL    HW137293  10.017   2.748   7.595  0.4900  0.3626  1.8679
 9505SOL    HW237294  10.126   2.760   7.490 -1.2223  0.5413  0.0387
 9506SOL     OW37295   4.342   9.985   5.765 -0.0032 -0.5298  0.2127
 9506SOL    HW137296   4.392  10.067   5.771 -0.6814 -0.0731 -0.1617
 9506SOL    HW237297   4.405   9.917   5.786  1.2005 -0.1097 -1.7698
 9507SOL     OW37298  10.857   1.967  11.837  0.0197 -0.0817  0.2967
 9507SOL    HW137299  10.936   1.966  11.783  0.3863 -1.3309  0.8160
 9507SOL    HW237300  10.816   1.882  11.821 -1.2246  0.5454  0.0495
 9508SOL     OW37301   1.176   2.249   2.604  0.3797  0.1536  0.2896
 9508SOL    HW137302   1.124   2.168   2.607  0.3490  0.1897  1.9250
 9508SOL    HW237303   1.254   2.229   2.657 -0.3235  1.6067  1.9942
 9509SOL     OW37304  11.620   7.803   9.233  0.1938 -0.4411  0.4762
 9509SOL    HW137305  11.639   7.719   9.191  1.8786 -0.7131  1.7074
 9509SOL    HW237306  11.703   7.850   9.233 -0.5576  0.9469  0.4778
 9510SOL     OW37307  10.426  11.696   9.661 -0.1398 -0.2644  0.2893
 9510SOL    HW137308  10.475  11.771   9.625 -0.6306  0.1613  0.4914
 9510SOL    HW237309  10.443  11.700   9.755  2.2240 -2.1613  0.0195
 9511SOL     OW37310   9.793   6.234   6.312  0.1378  0.0752  0.1369
 9511SOL    HW137311   9.794   6.178   6.234  0.2351 -1.5332  1.2352
 9511SOL    HW237312   9.704   6.267   6.318 -0.2109 -0.8253  0.0297
 9512SOL     OW37313   2.157   3.301   7.162 -0.4976  0.0940 -0.2901
 9512SOL    HW137314   2.199   3.380   7.126 -1.8984  0.0767 -2.0756
 9512SOL    HW237315   2.221   3.231   7.145 -0.6778  0.2741 -1.8762
 9513SOL     OW37316  11.407   2.729   2.989 -0.5354  0.3203 -0.3074
 9513SOL    HW137317  11.349   2.782   3.044  0.1775  1.9628 -1.0465
 9513SOL    HW237318  11.355   2.653   2.965 -1.3673  0.3082  1.4024
 9514SOL     OW37319   4.510   7.593   8.946 -0.3404 -0.3820 -0.2591
 9514SOL    HW137320   4.571   7.547   8.890 -1.8192 -1.4494 -1.0674
 9514SOL    HW237321   4.493   7.533   9.018 -2.0346 -1.0538 -1.1521
 9515SOL     OW37322   6.381   4.713   9.389  0.3677 -0.3453 -0.0790
 9515SOL    HW137323   6.447   4.716   9.459  1.3718 -0.4360 -0.9896
 9515SOL    HW237324   6.428   4.676   9.314 -0.1628  1.3850 -1.3311
 9516SOL     OW37325   3.726  10.944   0.460 -0.4558  0.1233 -0.4105
 9516SOL    HW137326   3.727  11.025   0.510 -2.5261  0.6749 -1.1385
 9516SOL    HW237327   3.779  10.883   0.510 -0.7659  1.2494  1.3544
 9517SOL     OW37328   3.606   9.834  12.566  0.7041  0.0488 -0.4600
 9517SOL    HW137329   3.559   9.778  12.628  0.2087  1.6772  0.7072
 9517SOL    HW237330   3.554   9.829  12.485 -0.5017  0.3891  0.2540
 9518SOL     OW37331   3.478   1.032   6.948 -0.3976  0.1986 -0.5542
 9518SOL    HW137332   3.545   1.021   6.881  3.3256 -0.3016  2.8910
 9518SOL    HW237333   3.468   1.126   6.958  1.0468  0.3118 -0.0410
 9519SOL     OW37334   7.179   6.628   1.196  0.2455  0.0955  0.2025
 9519SOL    HW137335   7.090   6.591   1.194 -0.5643  1.9183  0.4529
 9519SOL    HW237336   7.173   6.700   1.259  0.8846  2.6794 -2.4734
 9520SOL     OW37337   0.016   6.197  12.133  0.5854  0.5263 -0.9405
 9520SOL    HW137338  -0.030   6.156  12.059 -3.0689 -1.0991  1.8695
 9520SOL    HW237339  -0.032   6.278  12.149  0.5108  0.2684  0.2803
 9521SOL     OW37340   5.421   3.874   6.054 -0.0768 -0.1611  0.0098
 9521SOL    HW137341   5.344   3.887   6.109  0.4101 -0.2308  0.7336
 9521SOL    HW237342   5.491   3.922   6.099 -0.5102  3.3705 -2.6794
 9522SOL     OW37343   6.586  11.584  11.202 -0.2048 -0.1753  0.0324
 9522SOL    HW137344   6.616  11.672  11.180 -0.4013  0.4271  1.9334
 9522SOL    HW237345   6.529  11.559  11.130 -0.5070  1.4593 -0.3461
 9523SOL     OW37346   3.623   3.315   7.493 -0.4641  0.4055 -0.4363
 9523SOL    HW137347   3.545   3.298   7.546  0.8458  0.6161  1.6363
 9523SOL    HW237348   3.617   3.409   7.473 -0.2080  0.6585  0.6335
 9524SOL     OW37349   3.265   1.960   1.917 -0.0365 -1.0366  0.5273
 9524SOL    HW137350   3.278   1.882   1.862  0.2034 -0.4598 -0.2561
 9524SOL    HW237351   3.233   2.027   1.856  2.0547  0.1793  0.6729
 9525SOL     OW37352   8.146   5.775   0.714 -0.4178  0.6219  0.2783
 9525SOL    HW137353   8.123   5.689   0.679 -0.1458  0.5657  0.2357
 9525SOL    HW237354   8.236   5.790   0.685 -0.0421  0.4043  1.2739
 9526SOL     OW37355   1.255   9.822   2.882 -0.5945  0.3691  0.1818
 9526SOL    HW137356   1.260   9.784   2.795 -0.5447  0.8380 -0.0239
 9526SOL    HW237357   1.346   9.832   2.910 -0.5346  1.8959 -0.4643
 9527SOL     OW37358   7.996   6.453   7.691  0.0516 -0.0404  0.0226
 9527SOL    HW137359   8.081   6.434   7.733 -0.1535  0.5812  0.7419
 9527SOL    HW237360   7.972   6.539   7.724 -0.8341 -0.1803 -0.2357
 9528SOL     OW37361   2.365   5.997   5.402  0.0822  0.0900  0.2388
 9528SOL    HW137362   2.413   5.934   5.456 -0.2224  0.2246  0.6641
 9528SOL    HW237363   2.356   5.954   5.317  0.9711  0.0640  0.1438
 9529SOL     OW37364   8.103   3.327   9.047 -0.8434 -0.1631  0.2468
 9529SOL    HW137365   8.141   3.309   9.133 -0.9099  2.1071  0.8288
 9529SOL    HW237366   8.178   3.352   8.993 -1.0568  0.9919  0.4399
 9530SOL     OW37367  12.117  11.640  12.435  0.4926 -0.6146  0.2981
 9530SOL    HW137368  12.157  11.724  12.458 -0.0771 -0.4276  0.6276
 9530SOL    HW237369  12.190  11.578  12.436  0.7739 -0.2862  0.9114
 9531SOL     OW37370   9.446   9.683  12.487 -0.5337 -0.0255 -0.1923
 9531SOL    HW137371   9.384   9.674  12.415 -1.4880  0.7635  0.5132
 9531SOL    HW237372   9.524   9.635  12.458 -2.0778 -2.5927 -0.3355
 9532SOL     OW37373  10.621   9.224   2.433 -0.1106 -0.0416  0.3762
 9532SOL    HW137374  10.550   9.288   2.438 -0.3704 -0.2182 -0.7906
 9532SOL    HW237375  10.586   9.155   2.377  0.6133 -0.6257  0.6368
 9533SOL     OW37376  10.454   2.229  10.577 -0.1188 -0.4343 -0.2449
 9533SOL    HW137377  10.372   2.245  10.622 -0.1738 -1.6423  0.1313
 9533SOL    HW237378  10.521   2.263  10.636 -0.1395 -2.6033  1.1668
 9534SOL     OW37379   0.144   3.184  11.614 -0.4900 -0.3806  0.1311
 9534SOL    HW137380   0.187   3.099  11.612  0.0626 -0.1438  1.2749
 9534SOL    HW237381   0.094   3.188  11.532  0.4091 -1.3098 -0.4776
 9535SOL     OW37382   5.577   5.665   3.180 -0.9117  0.4370  0.2826
 9535SOL    HW137383   5.540   5.726   3.116  0.8143 -1.1680 -2.4348
 9535SOL    HW237384   5.512   5.596   3.189 -1.4322  0.9756  0.8345
 9536SOL     OW37385   5.349   7.321   2.242  0.4327 -0.3336  0.2853
 9536SOL    HW137386   5.286   7.288   2.178  0.3436 -0.1725  0.2870
 9536SOL    HW237387   5.387   7.243   2.282  0.4034 -0.4336  0.1186
 9537SOL     OW37388   2.338  10.672   3.105 -0.3280 -0.5094 -0.2413
 9537SOL    HW137389   2.326  10.739   3.038 -0.7537  1.5553  1.7797
 9537SOL    HW237390   2.433  10.659   3.109 -0.0765  1.3207  0.5218
 9538SOL     OW37391  10.794   8.761   5.407  0.1657  0.1243 -0.3909
 9538SOL    HW137392  10.769   8.754   5.315  2.7814  2.7199 -1.4547
 9538SOL    HW237393  10.888   8.744   5.408  0.3228  0.8154  1.7086
 9539SOL     OW37394   3.151   4.880   0.137  0.1201  0.2184 -0.5222
 9539SOL    HW137395   3.149   4.953   0.076 -0.4662 -0.1707 -0.9819
 9539SOL    HW237396   3.221   4.823   0.104  0.0619  0.1960 -0.6066
 9540SOL     OW37397   1.799   5.630   7.969 -0.1793  0.3104  0.3774
 9540SOL    HW137398   1.851   5.568   7.918  0.2383  1.1924 -0.2953
 9540SOL    HW237399   1.709   5.614   7.943  0.0307  0.7749 -0.6870
 9541SOL     OW37400   3.253   1.012   1.695  0.1859  0.1131  0.1586
 9541SOL    HW137401   3.242   1.107   1.699  1.3266  0.2772 -0.1199
 9541SOL    HW237402   3.345   0.998   1.715 -0.2283 -1.0486  1.3953
 9542SOL     OW37403   9.758  12.275   0.966 -0.4696  0.6185  0.4419
 9542SOL    HW137404   9.799  12.348   1.012 -0.7187  0.4305  0.9673
 9542SOL    HW237405   9.827  12.239   0.911  0.3681 -0.3054  2.0316
 9543SOL     OW37406  10.265   8.488   0.242 -0.5285 -0.0874 -0.2848
 9543SOL    HW137407  10.291   8.554   0.305 -1.3502  0.9824 -1.0405
 9543SOL    HW237408  10.348   8.449   0.213 -0.0979 -0.0350  0.8267
 9544SOL     OW37409   3.898  10.656   6.927 -0.5726  0.4256 -0.1091
 9544SOL    HW137410   3.864  10.743   6.947  0.1805  0.8503 -0.6001
 9544SOL    HW237411   3.893  10.608   7.010 -0.5417  1.0961  0.2821
 9545SOL     OW37412   8.606   3.037   1.725 -0.4525  0.0116 -0.1953
 9545SOL    HW137413   8.650   2.996   1.651 -0.6416 -0.9155  0.1947
 9545SOL    HW237414   8.553   2.967   1.764 -0.8876  0.6582  0.4051
 9546SOL     OW37415   0.748   8.140  12.427 -0.2577 -1.0403  0.1504
 9546SOL    HW137416   0.668   8.091  12.408 -0.9854  0.8459 -2.1250
 9546SOL    HW237417   0.726   8.194  12.503 -1.0318 -0.8126 -0.2274
 9547SOL     OW37418   4.038   1.931   4.246 -0.2265 -0.0938  0.1148
 9547SOL    HW137419   3.966   1.876   4.277  0.4681 -0.5569  0.9296
 9547SOL    HW237420   3.994   2.010   4.213 -1.0538  0.2077  1.7885
 9548SOL     OW37421   4.740   1.737   6.915  0.2129 -0.0260  0.4845
 9548SOL    HW137422   4.807   1.756   6.849 -1.6868 -1.0257 -1.8790
 9548SOL    HW237423   4.710   1.823   6.943  0.1572  0.4683 -0.9674
 9549SOL     OW37424  11.238   1.010  12.488 -0.5075 -0.5343 -0.2528
 9549SOL    HW137425  11.325   0.970  12.489  0.0052  0.5625  1.0405
 9549SOL    HW237426  11.249   1.094  12.532 -2.3253 -0.5740  0.3734
 9550SOL     OW37427  12.473   4.023   9.182  0.7586  0.2147  0.2246
 9550SOL    HW137428  12.437   3.940   9.214 -1.0311  1.1392  0.7272
 9550SOL    HW237429  12.564   4.022   9.213  0.8290 -1.5986  0.1027
 9551SOL     OW37430   8.998   6.038   1.321 -0.2453 -0.0838 -0.3573
 9551SOL    HW137431   9.017   6.094   1.396  2.1524  1.2144 -1.7953
 9551SOL    HW237432   8.903   6.046   1.308 -0.7983 -0.6665  2.6858
 9552SOL     OW37433   3.698   5.045  12.490  0.3704  0.1600 -0.2621
 9552SOL    HW137434   3.749   5.052  12.410  0.2444  0.9292 -0.2808
 9552SOL    HW237435   3.740   5.104  12.552  1.1357 -1.2549  0.6174
 9553SOL     OW37436   9.256   4.737   3.499  0.3119  0.3199  0.3287
 9553SOL    HW137437   9.186   4.777   3.550 -0.3242  0.8188 -0.8921
 9553SOL    HW237438   9.310   4.692   3.564  0.0537  1.6692  1.5370
 9554SOL     OW37439   2.336   7.357   9.750  0.1610 -0.5805 -0.6456
 9554SOL    HW137440   2.332   7.338   9.656 -0.4419  0.8187 -0.9274
 9554SOL    HW237441   2.342   7.270   9.791  2.9663 -1.1632 -2.0234
 9555SOL     OW37442   3.382   7.390   1.875  0.3076 -0.4518  0.5479
 9555SOL    HW137443   3.341   7.309   1.845  2.0660 -1.3763  0.5110
 9555SOL    HW237444   3.322   7.425   1.940 -0.0177 -2.3214  1.3141
 9556SOL     OW37445   3.511   2.092   4.851  0.0752  0.2040  0.0517
 9556SOL    HW137446   3.420   2.064   4.837  0.4295 -1.8226  1.4473
 9556SOL    HW237447   3.552   2.080   4.765 -1.0052  1.4244 -0.6784
 9557SOL     OW37448  10.611  12.582   3.688 -0.1083  0.2346 -1.1782
 9557SOL    HW137449  10.615  12.607   3.781  0.4179  2.5372 -1.7817
 9557SOL    HW237450  10.526  12.538   3.679  0.8631 -2.3362  0.8793
 9558SOL     OW37451   3.692   5.803   3.416  0.5081 -0.3599 -0.3680
 9558SOL    HW137452   3.717   5.712   3.400  1.7780 -0.3046  1.0641
 9558SOL    HW237453   3.597   5.800   3.424  0.4838 -1.4783 -0.8053
 9559SOL     OW37454   2.500  11.100  10.050 -0.1401 -0.1478  0.0685
 9559SOL    HW137455   2.484  11.092   9.956 -1.2276  1.3483  0.0825
 9559SOL    HW237456   2.482  11.013  10.085  0.7559 -0.8634 -1.1486
 9560SOL     OW37457   5.156   8.259  10.193  0.2420  0.2739 -0.1246
 9560SOL    HW137458   5.060   8.252  10.201  0.3372 -3.4321 -0.3714
 9560SOL    HW237459   5.187   8.257  10.283  0.1049 -0.5240 -0.0851
 9561SOL     OW37460   7.978   3.088   6.890  0.3884 -0.4843  0.1742
 9561SOL    HW137461   7.906   3.123   6.839  1.1844  0.5146 -0.2953
 9561SOL    HW237462   7.958   3.111   6.980  0.9824  1.3949 -0.1379
 9562SOL     OW37463   3.238   0.818   4.544  0.9920  0.7845 -0.4128
 9562SOL    HW137464   3.328   0.793   4.564  0.2043 -0.9070  1.4001
 9562SOL    HW237465   3.206   0.747   4.488 -0.3458 -0.8733  2.2462
 9563SOL     OW37466   8.516   5.758   7.640 -0.0129 -0.3927  0.6887
 9563SOL    HW137467   8.459   5.771   7.716 -0.4732 -1.9494  0.6399
 9563SOL    HW237468   8.559   5.843   7.627  0.2244 -0.1392  2.8062
 9564SOL     OW37469   2.879   1.999   2.026  0.0493  0.1576  0.5299
 9564SOL    HW137470   2.933   1.927   1.993 -1.0673 -0.8430  0.8292
 9564SOL    HW237471   2.882   2.064   1.956  1.5510  0.0943  0.4996
 9565SOL     OW37472   5.982   2.735   1.330 -0.6707 -0.1043 -0.2920
 9565SOL    HW137473   5.971   2.821   1.370 -1.7762  0.0106 -0.8096
 9565SOL    HW237474   6.036   2.686   1.392 -1.5955  0.3554  0.9228
 9566SOL     OW37475   5.118   3.213   3.828  0.0992  0.1144 -0.4734
 9566SOL    HW137476   5.141   3.287   3.885  0.5871 -0.0224 -0.4955
 9566SOL    HW237477   5.026   3.229   3.804 -0.6161 -0.5869  1.5558
 9567SOL     OW37478   1.816   7.892   5.270  0.4341 -0.2929 -0.4308
 9567SOL    HW137479   1.737   7.847   5.240  0.2813 -0.0640 -0.3763
 9567SOL    HW237480   1.881   7.874   5.203 -0.4937  1.9960 -2.0376
 9568SOL     OW37481  10.796   4.743  10.215 -0.2949 -0.4425 -0.9658
 9568SOL    HW137482  10.835   4.793  10.287 -1.0947  1.0043 -1.5034
 9568SOL    HW237483  10.869   4.697  10.175  0.5336  0.5714 -0.6543
 9569SOL     OW37484   6.408   2.001   7.277 -0.2593 -0.5495 -0.0303
 9569SOL    HW137485   6.447   1.917   7.254  0.8897 -0.2600  0.7853
 9569SOL    HW237486   6.423   2.010   7.371 -0.6378  0.4329 -0.0488
 9570SOL     OW37487   5.983   9.525   8.718  0.0668  0.7728  0.3072
 9570SOL    HW137488   5.991   9.619   8.704  0.6862  0.6954  0.0668
 9570SOL    HW237489   6.071   9.498   8.744  0.3033  0.0287 -1.1241
 9571SOL     OW37490  10.422   6.965   8.645  0.4673 -0.0653 -0.1935
 9571SOL    HW137491  10.469   6.924   8.718  1.3948 -0.9175 -1.2190
 9571SOL    HW237492  10.369   6.894   8.609  1.2749 -0.1240 -1.3333
 9572SOL     OW37493   5.488   9.118   5.522  0.5157 -0.4515  0.0460
 9572SOL    HW137494   5.451   9.200   5.491  1.6669 -0.0598 -0.3692
 9572SOL    HW237495   5.493   9.063   5.444  1.9624 -0.0290 -0.1947
 9573SOL     OW37496   1.684   7.264   0.567 -0.5675 -0.4963 -0.2687
 9573SOL    HW137497   1.758   7.271   0.628 -1.2531  0.6639  0.4615
 9573SOL    HW237498   1.695   7.337   0.507 -0.7143 -0.7677 -0.6294
 9574SOL     OW37499  10.973   4.508   9.823 -0.6889  0.9085 -0.4572
 9574SOL    HW137500  10.902   4.445   9.835  0.4822 -0.1728  1.0545
 9574SOL    HW237501  11.027   4.471   9.753  0.9412 -0.7693  1.5457
 9575SOL     OW37502   9.424   6.139  10.709 -0.4627 -0.2478 -0.0187
 9575SOL    HW137503   9.391   6.210  10.764  1.3831  0.5145  0.1722
 9575SOL    HW237504   9.381   6.153  10.624  0.6167  1.7587 -0.3034
 9576SOL     OW37505   0.024   6.763   4.905  0.3085  0.2282  0.2398
 9576SOL    HW137506   0.072   6.686   4.877  0.2778  0.3151 -0.0642
 9576SOL    HW237507   0.018   6.756   5.000  2.1467  0.9162  0.4534
 9577SOL     OW37508   1.434   5.076   6.409 -0.1086  0.2385 -0.0284
 9577SOL    HW137509   1.387   5.136   6.467  0.2228  0.6487 -0.1789
 9577SOL    HW237510   1.381   4.996   6.409  0.5472 -0.2421  1.8504
 9578SOL     OW37511   2.012   0.828   3.211  0.0691  0.4596 -0.3325
 9578SOL    HW137512   1.961   0.813   3.291  1.2217  1.7467  0.6909
 9578SOL    HW237513   2.102   0.808   3.237  0.4717  1.0195 -1.2872
 9579SOL     OW37514   0.914   5.952   9.752 -0.0963  0.1330  0.0876
 9579SOL    HW137515   0.960   5.951   9.668 -1.4688  0.5972 -0.7049
 9579SOL    HW237516   0.968   5.897   9.809  1.3820  0.5836 -0.8002
 9580SOL     OW37517  12.054  12.453   2.886  0.5016 -0.8201 -0.0799
 9580SOL    HW137518  12.043  12.508   2.809 -0.5654 -0.5459  0.2409
 9580SOL    HW237519  12.100  12.375   2.855  3.1137  0.7169 -0.3302
 9581SOL     OW37520   8.972   5.388  11.694 -0.4815  0.3903  0.0538
 9581SOL    HW137521   9.037   5.383  11.623  0.7881 -0.6973  1.2221
 9581SOL    HW237522   9.018   5.352  11.770 -2.3492 -0.0001  1.0386
 9582SOL     OW37523   0.320  11.846   1.204 -0.0624  0.6267 -0.3128
 9582SOL    HW137524   0.390  11.805   1.154  0.0619  1.4529 -0.8365
 9582SOL    HW237525   0.295  11.923   1.153 -1.0822  0.5652  0.0680
 9583SOL     OW37526   9.862   9.988   3.033 -0.3913  0.4480  0.0628
 9583SOL    HW137527   9.898   9.900   3.034 -0.6182  0.1204 -3.6731
 9583SOL    HW237528   9.927  10.040   2.987 -0.7048  2.0477  1.3300
 9584SOL     OW37529   7.319   2.497   2.162 -0.3727 -0.0674 -0.0276
 9584SOL    HW137530   7.376   2.486   2.086 -1.2966  0.2549 -0.7721
 9584SOL    HW237531   7.367   2.557   2.219 -0.3300  0.8752 -1.0293
 9585SOL     OW37532   0.187   8.846   1.136  0.3353  0.0692 -0.0623
 9585SOL    HW137533   0.124   8.915   1.159  0.6848  0.1851  0.5803
 9585SOL    HW237534   0.216   8.868   1.048 -0.1020  0.3310 -0.1451
 9586SOL     OW37535   6.601   3.094   2.841  0.1964 -0.3322  0.4986
 9586SOL    HW137536   6.551   3.136   2.910 -0.5499 -1.2259  0.5353
 9586SOL    HW237537   6.559   3.123   2.760 -1.8258 -2.7057  0.5823
 9587SOL     OW37538   6.264   7.422  10.916  0.4046 -0.0937 -0.6131
 9587SOL    HW137539   6.187   7.402  10.862  1.1999  1.8552 -2.6036
 9587SOL    HW237540   6.237   7.398  11.005 -2.7762  1.0347 -1.1160
 9588SOL     OW37541  11.866   9.781  10.894  0.0637  0.0577 -0.0081
 9588SOL    HW137542  11.803   9.843  10.857  0.0718 -0.2312 -0.5050
 9588SOL    HW237543  11.824   9.752  10.976 -0.8525 -0.7750 -0.7479
 9589SOL     OW37544   9.078   7.443   5.049 -0.2307  0.3025  0.2355
 9589SOL    HW137545   8.985   7.465   5.036  0.2880  2.6009 -0.1404
 9589SOL    HW237546   9.123   7.495   4.982  1.4685  0.7614  1.6871
 9590SOL     OW37547   6.153   8.092   6.148  0.1430 -0.6728 -0.1794
 9590SOL    HW137548   6.237   8.128   6.174  0.1665 -0.6995 -0.2180
 9590SOL    HW237549   6.094   8.167   6.142  0.6823 -0.3544 -2.2468
 9591SOL     OW37550   3.516   3.759   5.878  0.6186 -0.4287 -0.0076
 9591SOL    HW137551   3.436   3.786   5.832  1.2238 -1.6316 -1.8889
 9591SOL    HW237552   3.587   3.804   5.832  1.2367 -1.5736 -0.2166
 9592SOL     OW37553  12.577   6.685  12.291 -0.2187 -0.2969  0.3246
 9592SOL    HW137554  12.571   6.778  12.314 -1.0884  0.3231 -2.1610
 9592SOL    HW237555  12.542   6.640  12.368  0.9032  1.3380  1.9005
 9593SOL     OW37556   4.657   8.339  11.140  0.0106  0.0825 -0.9725
 9593SOL    HW137557   4.667   8.434  11.132  0.4779  0.2763  1.3319
 9593SOL    HW237558   4.562   8.325  11.137 -0.0922  0.6936 -0.7489
 9594SOL     OW37559  12.600   2.685  11.997  0.0913  0.2788  0.3079
 9594SOL    HW137560  12.587   2.719  11.908 -0.2393  0.4282  0.4093
 9594SOL    HW237561  12.596   2.762  12.053 -2.5766 -0.0590  0.7398
 9595SOL     OW37562   0.206   0.794  11.803  0.5887  0.5968  0.0072
 9595SOL    HW137563   0.232   0.769  11.892  0.8546  0.1340 -0.1992
 9595SOL    HW237564   0.151   0.872  11.816 -1.0183 -0.6081  0.7298
 9596SOL     OW37565   1.715   1.182   8.118  0.1771  0.4746 -0.7619
 9596SOL    HW137566   1.682   1.092   8.125 -1.4088  1.1079  0.5147
 9596SOL    HW237567   1.788   1.176   8.057  0.3414 -1.7468 -0.4268
 9597SOL     OW37568  10.248  11.415   2.507 -0.4551  0.5271 -1.0057
 9597SOL    HW137569  10.320  11.352   2.495 -0.1058  0.3291  1.4933
 9597SOL    HW237570  10.187  11.370   2.566 -0.1146  2.5053  1.0110
 9598SOL     OW37571   1.667  11.197   3.244 -0.6408 -0.3720 -0.3032
 9598SOL    HW137572   1.682  11.257   3.318  1.8164  0.6176 -1.5085
 9598SOL    HW237573   1.607  11.245   3.186 -0.9444 -0.3066  0.0547
 9599SOL     OW37574   6.070   8.813   0.764  0.0672 -0.7306 -0.1761
 9599SOL    HW137575   6.066   8.902   0.729 -0.5467 -0.6523  0.0726
 9599SOL    HW237576   6.079   8.826   0.859 -0.8576 -0.9194 -0.0520
 9600SOL     OW37577   6.987   3.076  10.966  0.8013  0.2632 -0.3720
 9600SOL    HW137578   6.943   3.145  10.917 -0.8396  0.6270  1.5312
 9600SOL    HW237579   7.074   3.111  10.983 -0.2314  2.2451  1.2028
 9601SOL     OW37580   1.889   9.540  11.384  0.5523  0.0845  0.8569
 9601SOL    HW137581   1.830   9.476  11.344  0.5950  0.1608  0.6695
 9601SOL    HW237582   1.972   9.527  11.339  0.5802  0.2214  0.8699
 9602SOL     OW37583   6.074  10.095   1.143  0.7267 -0.0369 -0.1655
 9602SOL    HW137584   6.146  10.048   1.103 -0.1954 -0.9389 -0.8212
 9602SOL    HW237585   6.113  10.177   1.174  1.7157  0.1849 -1.8870
 9603SOL     OW37586   2.337   3.752   6.669  0.1642  0.1854  0.4819
 9603SOL    HW137587   2.377   3.666   6.669  1.0489  0.5908 -0.0850
 9603SOL    HW237588   2.346   3.783   6.759 -0.9177 -0.6430  0.8973
 9604SOL     OW37589  10.808   3.981  11.681  0.4969 -0.1747  0.0274
 9604SOL    HW137590  10.799   4.008  11.772  0.0606 -0.8647  0.1943
 9604SOL    HW237591  10.772   4.055  11.631  0.4608  0.0790  0.4224
 9605SOL     OW37592   5.774   0.457   0.535 -0.2771  0.0268 -0.7649
 9605SOL    HW137593   5.751   0.388   0.474 -0.6998 -1.1175  0.6413
 9605SOL    HW237594   5.753   0.538   0.488  0.4800 -0.7536 -2.5408
 9606SOL     OW37595   2.541  10.860   5.102 -0.4348  0.7416 -0.7029
 9606SOL    HW137596   2.467  10.804   5.124  0.3313  1.0222  3.3155
 9606SOL    HW237597   2.613  10.799   5.087 -0.6393  0.5666 -0.9950
 9607SOL     OW37598   7.161   8.105   8.868  0.4936  0.1215 -0.0683
 9607SOL    HW137599   7.152   8.145   8.954 -1.5664 -0.4910  0.0425
 9607SOL    HW237600   7.228   8.037   8.881  1.7306  1.3975  0.4915
 9608SOL     OW37601   2.163   6.088   5.897  0.0290  0.2225 -0.3012
 9608SOL    HW137602   2.181   6.100   5.990  1.8854  0.4298 -0.6430
 9608SOL    HW237603   2.197   6.000   5.878 -0.4092  0.1525 -0.7707
 9609SOL     OW37604   7.717  11.051   1.716 -0.2669 -0.1577  0.0228
 9609SOL    HW137605   7.635  11.092   1.744  0.2275  0.3170  0.8382
 9609SOL    HW237606   7.759  11.025   1.798  0.3369 -0.5140 -0.3961
 9610SOL     OW37607  11.712   7.045   1.753  0.3161  0.1468  0.2131
 9610SOL    HW137608  11.703   7.062   1.659  0.6613 -0.9813 -0.0434
 9610SOL    HW237609  11.663   6.965   1.768  0.8206 -0.0522  0.8665
 9611SOL     OW37610  12.021   7.986   2.899 -0.1055 -0.0198  0.0613
 9611SOL    HW137611  12.021   7.915   2.835  1.1953 -1.0233  1.0992
 9611SOL    HW237612  11.975   8.058   2.856  1.0178 -0.5336 -2.1132
 9612SOL     OW37613   2.324   0.678   8.472  0.1093 -0.0361 -0.3735
 9612SOL    HW137614   2.359   0.628   8.398  2.8594  1.3574 -0.1465
 9612SOL    HW237615   2.390   0.668   8.540 -0.7851  1.3535  0.7410
 9613SOL     OW37616   0.845   2.106   4.085 -0.4575 -0.1378 -0.3298
 9613SOL    HW137617   0.936   2.082   4.099 -0.5749  0.6197  2.1412
 9613SOL    HW237618   0.845   2.152   4.001  1.6552  0.9163  0.1796
 9614SOL     OW37619   9.143   3.284   5.492 -0.0013  0.1114 -0.5623
 9614SOL    HW137620   9.111   3.338   5.419  1.9093 -0.5057 -1.9373
 9614SOL    HW237621   9.144   3.195   5.457 -1.5137 -0.6262  1.1236
 9615SOL     OW37622   3.067   8.233  11.989  0.3911 -0.3873 -0.4234
 9615SOL    HW137623   3.001   8.220  11.921 -0.8601  0.8568  0.4918
 9615SOL    HW237624   3.148   8.249  11.941 -0.7666  2.1032 -1.7404
 9616SOL     OW37625   0.881   9.976   0.176  0.5381  0.3646  0.6026
 9616SOL    HW137626   0.788   9.955   0.165  0.5120  1.0372 -0.7134
 9616SOL    HW237627   0.901   9.949   0.265 -0.0948 -2.7658 -0.0737
 9617SOL     OW37628  10.388   4.601  12.504  0.2874  0.3960 -0.1457
 9617SOL    HW137629  10.344   4.682  12.527 -0.8764 -0.0707 -0.6155
 9617SOL    HW237630  10.446   4.582  12.578  0.7503  1.7557 -0.1370
 9618SOL     OW37631   2.497   4.388   5.521 -0.5116  0.5035 -0.2599
 9618SOL    HW137632   2.568   4.374   5.584 -0.0799 -1.3553 -1.0851
 9618SOL    HW237633   2.541   4.415   5.441 -0.7519 -0.3694 -0.6908
 9619SOL     OW37634   5.389   4.534  12.579  0.3406 -0.2125 -0.2486
 9619SOL    HW137635   5.357   4.468  12.641 -0.8582 -1.0229 -1.6851
 9619SOL    HW237636   5.482   4.513  12.568  1.0625  0.9987  2.5106
 9620SOL     OW37637   1.662   8.450   3.639 -0.5805  0.1057  0.0458
 9620SOL    HW137638   1.713   8.460   3.720 -0.7874  0.1027  0.1798
 9620SOL    HW237639   1.582   8.405   3.668 -0.9780  0.7476 -0.0387
 9621SOL     OW37640   8.718   0.883   5.760 -0.3358 -0.1094  0.4772
 9621SOL    HW137641   8.680   0.960   5.718 -1.6357 -1.5614 -1.1632
 9621SOL    HW237642   8.813   0.894   5.749 -0.5257  1.0355 -0.1214
 9622SOL     OW37643   8.529  10.484   1.219  0.4595  0.1729 -0.2010
 9622SOL    HW137644   8.616  10.517   1.194  1.0587 -0.7519  0.5765
 9622SOL    HW237645   8.543  10.391   1.235 -0.7522 -0.0420 -0.3276
 9623SOL     OW37646   8.511  11.035   1.639 -0.0950 -0.3300 -0.0343
 9623SOL    HW137647   8.538  10.955   1.684  1.4169  0.3993  0.4430
 9623SOL    HW237648   8.421  11.050   1.667  0.2592 -0.8048  1.4031
 9624SOL     OW37649   8.815   2.015   3.608  0.2642  0.0693 -0.0055
 9624SOL    HW137650   8.741   2.073   3.626  0.5179  0.2901  0.3352
 9624SOL    HW237651   8.788   1.965   3.531  0.3031  1.0947 -0.7052
 9625SOL     OW37652   8.330  12.603  10.858 -0.1645 -0.2002  0.5439
 9625SOL    HW137653   8.373  12.518  10.851  1.1060  0.1884  2.5144
 9625SOL    HW237654   8.403  12.666  10.861 -1.0637  0.9502 -0.6446
 9626SOL     OW37655   6.165   3.262   8.859  0.7887  0.4433  0.4617
 9626SOL    HW137656   6.201   3.280   8.772  0.8034 -1.6754 -0.0228
 9626SOL    HW237657   6.242   3.250   8.915  0.8839 -1.5637 -0.0224
 9627SOL     OW37658   3.400   7.857   7.118  0.3404  0.8752  0.4397
 9627SOL    HW137659   3.392   7.916   7.044 -0.5287  0.7781  0.4523
 9627SOL    HW237660   3.333   7.790   7.104  1.3334 -0.1476  0.3962
 9628SOL     OW37661   6.849   0.623   7.106 -0.2379 -0.4612 -0.1136
 9628SOL    HW137662   6.874   0.716   7.099  0.1547 -0.6292 -1.2353
 9628SOL    HW237663   6.932   0.576   7.095  0.2163 -0.9505  4.0163
 9629SOL     OW37664   3.794   6.442   3.669  0.2055 -0.0523  0.9176
 9629SOL    HW137665   3.795   6.352   3.704 -0.4054 -1.0385 -1.4052
 9629SOL    HW237666   3.705   6.453   3.636  0.6204  0.9711  0.1105
 9630SOL     OW37667   7.197   7.024  11.050  0.8377  0.3895 -0.5145
 9630SOL    HW137668   7.116   6.976  11.065  0.6492  0.6026 -0.8435
 9630SOL    HW237669   7.257   6.959  11.012  1.0318  0.0734  0.3182
 9631SOL     OW37670  10.722   5.449   1.738  0.9561 -0.1125  0.0311
 9631SOL    HW137671  10.688   5.374   1.787 -2.4208  2.0366  1.2920
 9631SOL    HW237672  10.732   5.416   1.649 -1.7509 -1.7772  0.2269
 9632SOL     OW37673   5.464   0.866   1.874 -0.2339 -0.1212 -0.0359
 9632SOL    HW137674   5.387   0.814   1.851  0.7024 -1.7299  0.3035
 9632SOL    HW237675   5.501   0.821   1.950  1.3058  0.3431 -0.4735
 9633SOL     OW37676  11.896  11.204  11.723 -0.0301 -0.1833 -0.1682
 9633SOL    HW137677  11.907  11.211  11.817 -1.7297  1.0207 -0.0004
 9633SOL    HW237678  11.961  11.265  11.686  1.1046 -1.1638  0.1509
 9634SOL     OW37679   5.727   1.624   9.417 -0.4442 -0.1683 -0.0072
 9634SOL    HW137680   5.759   1.537   9.440  0.6741  0.2809  0.1705
 9634SOL    HW237681   5.632   1.615   9.418 -0.3485 -1.3791  0.0389
 9635SOL     OW37682   6.205   3.071  12.306  0.0126 -0.1374 -0.2632
 9635SOL    HW137683   6.188   3.164  12.292 -1.8718 -0.4679 -0.3584
 9635SOL    HW237684   6.156   3.049  12.386  1.8090 -0.7034  0.7634
 9636SOL     OW37685   3.984  10.809   2.705  0.5458 -0.1885  0.4047
 9636SOL    HW137686   3.890  10.814   2.724  0.8131  0.5004  1.6500
 9636SOL    HW237687   3.995  10.858   2.624 -0.4618 -2.1638 -1.0065
 9637SOL     OW37688  10.426  10.341  10.107  0.5009  0.1291 -0.1494
 9637SOL    HW137689  10.383  10.422  10.135 -2.4060 -1.3686  0.0134
 9637SOL    HW237690  10.401  10.276  10.173  2.6425 -1.0148 -0.3560
 9638SOL     OW37691   1.338  11.133   2.108  0.2529  0.1697 -0.1831
 9638SOL    HW137692   1.422  11.166   2.140  0.2332  0.1495 -0.1097
 9638SOL    HW237693   1.305  11.077   2.179  1.8745 -2.8132 -1.6148
 9639SOL     OW37694   4.416   8.145   8.639  0.5875 -0.4987 -0.1277
 9639SOL    HW137695   4.417   8.167   8.546  1.1258  1.0739  0.2273
 9639SOL    HW237696   4.496   8.094   8.653  1.0856  0.2227 -0.3141
 9640SOL     OW37697   5.146   1.510   5.460 -0.0836  0.2103  0.7469
 9640SOL    HW137698   5.184   1.588   5.501 -2.6691  2.3858 -0.6390
 9640SOL    HW237699   5.108   1.460   5.532 -1.7206  2.2641  1.3997
 9641SOL     OW37700  11.254   3.331   6.604 -0.6264  0.0610  0.1135
 9641SOL    HW137701  11.249   3.260   6.540 -2.0426 -0.2703  0.5529
 9641SOL    HW237702  11.313   3.297   6.672 -2.4679 -1.3835  1.0868
 9642SOL     OW37703   8.245   1.269   2.521 -0.0264  0.1859 -0.5629
 9642SOL    HW137704   8.340   1.262   2.506 -0.0685  1.6709 -1.8804
 9642SOL    HW237705   8.212   1.312   2.442 -2.5505 -4.4556 -2.4162
 9643SOL     OW37706   9.558  11.742  10.087 -0.1642 -0.0288 -0.1830
 9643SOL    HW137707   9.483  11.756  10.029 -0.1245 -0.9081 -0.4505
 9643SOL    HW237708   9.566  11.825  10.135 -0.1846  0.7331 -1.4458
 9644SOL     OW37709   6.604   1.387   4.484  0.5967 -0.4077  0.0123
 9644SOL    HW137710   6.666   1.391   4.411  2.2023 -1.3837  1.2432
 9644SOL    HW237711   6.522   1.420   4.448  2.0654  1.9822 -1.4261
 9645SOL     OW37712   9.564   3.988  11.769 -0.1679  0.3731  0.4035
 9645SOL    HW137713   9.644   3.940  11.789  1.6712  3.2061  0.3930
 9645SOL    HW237714   9.516   3.991  11.852  1.8742  2.2584  1.6157
 9646SOL     OW37715   3.801   6.234   7.620  0.4455  0.0417 -0.1401
 9646SOL    HW137716   3.734   6.291   7.660 -0.3955 -1.1706  0.2520
 9646SOL    HW237717   3.857   6.209   7.693  1.2102  0.8699 -0.4294
 9647SOL     OW37718   3.113   8.673   7.024 -0.1198  0.0198  0.6021
 9647SOL    HW137719   3.097   8.639   7.112 -1.5712 -0.9719 -0.0068
 9647SOL    HW237720   3.073   8.609   6.965  0.0821  1.0757 -0.7552
 9648SOL     OW37721   5.818  10.436   6.132  0.0828 -0.1151  0.5115
 9648SOL    HW137722   5.906  10.471   6.123  0.2547 -0.2764  1.4089
 9648SOL    HW237723   5.790  10.415   6.043  0.7925  0.3093  0.1838
 9649SOL     OW37724   4.719   1.751   4.058 -0.1688  0.2957 -0.4350
 9649SOL    HW137725   4.660   1.706   4.119 -0.5967 -1.1593 -1.8792
 9649SOL    HW237726   4.713   1.843   4.083 -2.4925  0.0880 -0.0555
 9650SOL     OW37727   5.481  11.775   0.093  0.6097 -0.3616  0.2260
 9650SOL    HW137728   5.455  11.683   0.087  1.0876 -0.4322 -0.9592
 9650SOL    HW237729   5.477  11.794   0.187 -1.1038 -1.1117  0.3561
 9651SOL     OW37730   5.550   5.486   2.908  0.1844  0.4121  0.2325
 9651SOL    HW137731   5.512   5.564   2.867 -0.3213  1.1144  1.9378
 9651SOL    HW237732   5.614   5.520   2.970  2.1271 -0.6865 -1.0509
 9652SOL     OW37733   5.328  10.014   2.595  0.2215  0.2627 -0.5656
 9652SOL    HW137734   5.326  10.050   2.684  2.5127 -0.6843 -0.0574
 9652SOL    HW237735   5.388  10.071   2.547  0.9965 -0.6913 -0.7660
 9653SOL     OW37736  12.095   3.165  11.949 -0.0982 -0.3744 -0.2325
 9653SOL    HW137737  12.002   3.186  11.942 -0.1138 -0.6113 -0.7127
 9653SOL    HW237738  12.127   3.162  11.859  0.1746 -1.1899 -0.1179
 9654SOL     OW37739   2.062   8.092   4.077 -0.1294 -0.5065  0.9108
 9654SOL    HW137740   2.014   8.021   4.035 -0.4615 -0.1945  0.7526
 9654SOL    HW237741   2.025   8.098   4.164 -0.3057 -0.3376  0.8257
 9655SOL     OW37742   2.930  11.412   4.925 -0.1245  0.1797 -0.0648
 9655SOL    HW137743   2.867  11.343   4.904 -0.1115 -0.3399  1.4430
 9655SOL    HW237744   3.008  11.364   4.955 -0.4203  0.8069  1.8585
 9656SOL     OW37745   3.713   5.681   1.102 -0.1079 -0.6187 -0.1693
 9656SOL    HW137746   3.716   5.738   1.178 -0.1301 -0.1910 -0.4847
 9656SOL    HW237747   3.804   5.655   1.088  0.3227  1.2987 -1.4670
 9657SOL     OW37748   4.527   8.213   4.952 -0.2385 -0.1742  0.6369
 9657SOL    HW137749   4.528   8.241   4.860  0.7208  1.4323  1.0952
 9657SOL    HW237750   4.580   8.134   4.954  0.4460  0.2607 -0.0592
 9658SOL     OW37751   8.873   3.692  10.231 -0.0452  0.2022  0.0363
 9658SOL    HW137752   8.930   3.704  10.155  1.6906  0.1064  1.2645
 9658SOL    HW237753   8.920   3.734  10.303 -1.0416 -0.8042  1.3204
 9659SOL     OW37754   4.489   5.460   6.735 -0.5912 -0.2453 -0.1649
 9659SOL    HW137755   4.453   5.440   6.649 -2.0635 -0.9641  0.5904
 9659SOL    HW237756   4.414   5.462   6.794  0.5379 -1.7609  1.4757
 9660SOL     OW37757   8.418  10.531  12.578  0.0278 -0.4369  0.1403
 9660SOL    HW137758   8.420  10.616  12.534 -0.7620  0.2650  1.4061
 9660SOL    HW237759   8.510  10.512  12.598  0.1318  0.6658  0.8029
 9661SOL     OW37760   1.411   6.985   2.007 -0.0223 -0.5109 -0.4761
 9661SOL    HW137761   1.440   7.041   2.079  2.1052 -1.7092 -0.3142
 9661SOL    HW237762   1.319   7.008   1.994  0.1522  1.3284  1.1118
 9662SOL     OW37763   1.300   6.131   1.606  0.1987 -0.1061 -0.3619
 9662SOL    HW137764   1.380   6.182   1.598  0.8571 -1.1748 -0.9467
 9662SOL    HW237765   1.296   6.107   1.699 -0.5998  1.7008  0.1092
 9663SOL     OW37766  10.128   8.340   8.585  0.2025  0.3140  0.0321
 9663SOL    HW137767  10.112   8.261   8.637  1.7244  1.3167  2.1829
 9663SOL    HW237768  10.064   8.335   8.514 -0.2031 -2.4853  0.4509
 9664SOL     OW37769  12.559  11.377   9.047 -0.5385 -0.2288 -0.2511
 9664SOL    HW137770  12.651  11.367   9.074 -0.2244  0.5344 -0.9707
 9664SOL    HW237771  12.515  11.301   9.084  0.5258 -0.9925 -0.4820
 9665SOL     OW37772   1.409  11.847  11.050 -0.1623 -0.0851  0.5787
 9665SOL    HW137773   1.357  11.773  11.079 -0.8893  0.2096  0.0813
 9665SOL    HW237774   1.479  11.809  10.998 -1.1365 -0.3809 -0.5574
 9666SOL     OW37775  12.181   0.728   9.187  0.3227  0.0525  0.0627
 9666SOL    HW137776  12.214   0.755   9.101 -0.1421 -0.0280 -0.1428
 9666SOL    HW237777  12.111   0.666   9.168  0.8660 -0.7192  0.5225
 9667SOL     OW37778   6.360   4.691   4.730  0.1536  0.3802 -0.1007
 9667SOL    HW137779   6.371   4.649   4.645 -2.5017  1.5717 -1.1591
 9667SOL    HW237780   6.351   4.784   4.709 -0.9480  0.6524  1.4204
 9668SOL     OW37781   7.982   3.334   0.413  0.2534 -0.2806 -0.1379
 9668SOL    HW137782   7.950   3.292   0.493 -1.1609  0.1789 -0.4446
 9668SOL    HW237783   7.906   3.380   0.377  1.3130  1.0445 -0.7854
 9669SOL     OW37784   4.918   0.932   6.164 -0.4184  0.6957 -0.2130
 9669SOL    HW137785   4.982   0.944   6.235 -1.0553  2.3448  0.1318
 9669SOL    HW237786   4.958   0.976   6.089 -0.3948  0.2138 -0.4879
 9670SOL     OW37787  10.288   1.226   5.636  0.4669  0.2774 -0.2005
 9670SOL    HW137788  10.367   1.173   5.637 -0.0194 -0.4533  0.6159
 9670SOL    HW237789  10.225   1.175   5.586 -0.4562 -0.6351  1.7859
 9671SOL     OW37790   5.626   7.820  11.380 -0.2161 -0.2816 -0.4099
 9671SOL    HW137791   5.691   7.836  11.448 -0.6018  1.8315 -0.4685
 9671SOL    HW237792   5.677   7.810  11.300  0.0995  1.3629 -0.4595
 9672SOL     OW37793   6.367   5.043   2.771 -0.8052 -0.0288 -0.7108
 9672SOL    HW137794   6.362   5.071   2.680  0.7083  1.0145 -0.5022
 9672SOL    HW237795   6.370   4.948   2.767 -1.2707 -0.0112 -1.7121
 9673SOL     OW37796   7.957   8.488  10.514 -0.0720  0.5537  0.2311
 9673SOL    HW137797   7.919   8.459  10.431  1.5658  0.4472 -0.5421
 9673SOL    HW237798   7.927   8.424  10.578 -1.5354  0.7509 -0.2173
 9674SOL     OW37799   4.242   5.200   4.191  0.1647  0.0628  0.2062
 9674SOL    HW137800   4.206   5.285   4.165  0.6259 -0.1532 -1.2246
 9674SOL    HW237801   4.185   5.136   4.149  0.4516 -0.3181  0.3901
 9675SOL     OW37802   5.907   6.342   2.151  0.6877  0.1832  0.3825
 9675SOL    HW137803   5.847   6.360   2.224  1.4887 -1.0814  1.3861
 9675SOL    HW237804   5.859   6.371   2.074 -0.7908  0.2027  1.2630
 9676SOL     OW37805   9.907   5.052   5.992  0.4019 -0.4333 -0.1399
 9676SOL    HW137806   9.842   5.069   5.924  0.6961  0.6808 -0.1628
 9676SOL    HW237807   9.856   5.043   6.073  0.1437 -0.6043 -0.3209
 9677SOL     OW37808   3.789   9.943   7.241 -0.3804  0.0481  0.1070
 9677SOL    HW137809   3.870   9.983   7.271  0.4620 -0.4339 -1.4037
 9677SOL    HW237810   3.734   9.938   7.319  1.0495  0.3614  1.1706
 9678SOL     OW37811   2.290   0.518   7.160  0.4455  0.5312 -0.5160
 9678SOL    HW137812   2.277   0.491   7.069  0.1934  3.0383 -1.2994
 9678SOL    HW237813   2.379   0.490   7.181 -0.1320 -1.7634 -0.8425
 9679SOL     OW37814   1.824   5.310   9.799  0.0884 -0.2269 -0.3535
 9679SOL    HW137815   1.824   5.405   9.809 -0.4766 -0.2269 -0.2952
 9679SOL    HW237816   1.781   5.278   9.879  1.6569 -0.6249  0.3637
 9680SOL     OW37817   8.889   0.836   6.298 -0.6254  0.0761  0.2518
 9680SOL    HW137818   8.832   0.895   6.345 -3.1911 -0.3439 -2.0688
 9680SOL    HW237819   8.922   0.887   6.224 -1.1500 -0.7614 -0.5851
 9681SOL     OW37820   8.519   7.429   3.120  0.7038 -0.2746 -0.3444
 9681SOL    HW137821   8.470   7.360   3.075 -0.3096 -0.3834  0.8474
 9681SOL    HW237822   8.476   7.510   3.094 -0.2678 -0.3818  0.8210
 9682SOL     OW37823   8.911   6.383   6.303 -0.0246  0.4133 -0.4934
 9682SOL    HW137824   8.917   6.478   6.311  0.9664  0.2446  1.2424
 9682SOL    HW237825   8.992   6.350   6.343 -0.9888 -1.1949  0.2521
 9683SOL     OW37826  11.782  10.222   3.093  0.0324  0.2543  0.0908
 9683SOL    HW137827  11.835  10.231   3.172  1.0144  0.3201 -0.5694
 9683SOL    HW237828  11.754  10.130   3.093  1.8115 -0.3223 -0.5828
 9684SOL     OW37829  11.889  10.405   8.343  0.3073  0.0963  0.6417
 9684SOL    HW137830  11.892  10.313   8.317  1.2846 -0.5194  2.6999
 9684SOL    HW237831  11.949  10.449   8.282 -0.0770 -0.6289 -0.2858
 9685SOL     OW37832  11.468   4.258  10.665 -0.1081 -0.1083 -0.2598
 9685SOL    HW137833  11.481   4.327  10.599  2.3478 -1.1757 -0.9901
 9685SOL    HW237834  11.421   4.189  10.618  0.5651 -0.3683 -0.5609
 9686SOL     OW37835   3.289   6.238  10.407 -0.5350  0.7074 -0.0568
 9686SOL    HW137836   3.366   6.195  10.368 -1.1566  0.6600 -1.2757
 9686SOL    HW237837   3.306   6.332  10.396 -0.1467  0.7344  0.6993
 9687SOL     OW37838   5.368  12.086  10.056 -0.3842  0.0254  0.1568
 9687SOL    HW137839   5.413  12.071  10.139 -1.1848 -1.1313  0.3988
 9687SOL    HW237840   5.392  12.011  10.002  0.9879  1.2722 -1.0884
 9688SOL     OW37841   7.700   0.926   1.838  0.1367  0.0805 -0.3065
 9688SOL    HW137842   7.745   0.854   1.794  2.1104  1.1726 -0.1735
 9688SOL    HW237843   7.621   0.940   1.786 -0.3325 -2.1805 -0.2981
 9689SOL     OW37844  12.236  10.715   6.486 -0.3873  0.2469  0.6948
 9689SOL    HW137845  12.236  10.805   6.518  0.7570  0.5076  0.0208
 9689SOL    HW237846  12.301  10.670   6.539 -0.4237 -0.0002  0.5327
 9690SOL     OW37847   3.871   8.563   2.553 -0.2226  0.6445  0.0498
 9690SOL    HW137848   3.832   8.512   2.481 -0.3350  0.3521  0.3150
 9690SOL    HW237849   3.921   8.499   2.603  0.7824  1.0598 -0.4090
 9691SOL     OW37850   0.785   2.310   4.476 -0.1521 -0.4278  0.2148
 9691SOL    HW137851   0.798   2.234   4.532 -3.3636 -0.0290  1.7201
 9691SOL    HW237852   0.765   2.381   4.536  0.6034  1.1310 -1.2737
 9692SOL     OW37853   6.140   1.773   7.768  0.5031  0.2837 -0.7444
 9692SOL    HW137854   6.069   1.740   7.823  0.5453  1.6091  0.1425
 9692SOL    HW237855   6.098   1.789   7.683 -0.1261  0.4693 -0.4062
 9693SOL     OW37856   4.131   2.249  11.307  0.4501  0.4220  0.2077
 9693SOL    HW137857   4.101   2.332  11.344 -0.1403  0.5255 -0.4789
 9693SOL    HW237858   4.076   2.236  11.230 -0.7518 -1.5046  1.3105
 9694SOL     OW37859   0.434   1.230  11.456 -0.1751 -0.5350 -0.0582
 9694SOL    HW137860   0.359   1.221  11.397  0.0758 -0.3804 -0.4031
 9694SOL    HW237861   0.418   1.166  11.525 -0.6486 -0.4733 -0.1061
 9695SOL     OW37862   7.473   4.000   8.825 -0.1676 -0.1236 -0.0483
 9695SOL    HW137863   7.494   4.079   8.874 -0.2850 -0.7038  0.9833
 9695SOL    HW237864   7.554   3.949   8.826  0.4619  0.7161 -2.2512
 9696SOL     OW37865  12.396   6.822  11.332 -0.4085  0.2847 -0.0830
 9696SOL    HW137866  12.312   6.868  11.335 -0.7492 -0.3696  1.2357
 9696SOL    HW237867  12.417   6.806  11.424  0.6283 -0.5164 -0.4471
 9697SOL     OW37868   5.186   0.136   0.771  0.0362 -0.3390  0.2715
 9697SOL    HW137869   5.192   0.231   0.758 -1.4125 -0.1754  0.6835
 9697SOL    HW237870   5.115   0.108   0.715 -1.0169 -0.8310  1.7864
 9698SOL     OW37871   6.380   8.894   8.089  0.0752  0.2462  0.3609
 9698SOL    HW137872   6.336   8.971   8.053 -0.3609  1.5943  3.4947
 9698SOL    HW237873   6.460   8.928   8.128 -0.9932 -0.4359  3.4552
 9699SOL     OW37874   8.464   5.527   0.787 -0.2207  0.0443  0.1398
 9699SOL    HW137875   8.513   5.459   0.834  0.4630 -0.2012 -0.8988
 9699SOL    HW237876   8.508   5.608   0.809  0.2692 -0.1023 -0.2786
 9700SOL     OW37877  11.766  11.956   1.453 -0.1041 -0.6098 -0.3258
 9700SOL    HW137878  11.857  11.974   1.477 -0.3856 -0.4271  0.6520
 9700SOL    HW237879  11.718  12.035   1.479 -0.7239 -1.1772  0.2955
 9701SOL     OW37880   3.574   1.581   3.723 -0.1054  0.6294  0.1587
 9701SOL    HW137881   3.630   1.505   3.734  0.2240  0.7134 -0.8435
 9701SOL    HW237882   3.633   1.650   3.691 -0.4948  1.1530  0.5533
 9702SOL     OW37883   9.005   5.838   9.918  0.3643  0.6374 -0.3728
 9702SOL    HW137884   8.983   5.879  10.002 -2.2099  4.8012 -2.7200
 9702SOL    HW237885   8.935   5.775   9.903 -0.8832  1.9899 -0.5236
 9703SOL     OW37886   7.624   2.183   5.254  0.4325  0.4695  0.4425
 9703SOL    HW137887   7.712   2.152   5.236  0.2992  0.1763  0.2736
 9703SOL    HW237888   7.627   2.218   5.343  0.5093 -0.3173  0.7522
 9704SOL     OW37889   9.874  11.066  11.108  0.2522  0.3075  0.2298
 9704SOL    HW137890   9.926  11.029  11.037  1.4654  0.5580  0.9517
 9704SOL    HW237891   9.829  10.991  11.146 -0.1308  0.1225 -0.5662
 9705SOL     OW37892   8.768   2.589   7.045 -0.0265 -0.1357  0.1337
 9705SOL    HW137893   8.761   2.626   7.133  0.3550  1.4069 -0.4410
 9705SOL    HW237894   8.788   2.665   6.989 -2.0392 -0.7470 -1.5516
 9706SOL     OW37895   5.466   1.711   8.202  0.1207  0.2028 -0.6334
 9706SOL    HW137896   5.469   1.626   8.157 -0.8760  0.3803 -1.0584
 9706SOL    HW237897   5.422   1.769   8.141 -0.4681  0.6724  0.2156
 9707SOL     OW37898   6.810  10.190   2.843  0.6917  0.1247 -0.0550
 9707SOL    HW137899   6.840  10.102   2.867 -0.0869 -0.6376 -1.7275
 9707SOL    HW237900   6.887  10.231   2.803  0.6835 -0.3002 -0.5162
 9708SOL     OW37901   9.608   1.466   8.546 -0.5684  0.1194 -0.5318
 9708SOL    HW137902   9.642   1.490   8.460  0.4981 -0.3590 -0.2703
 9708SOL    HW237903   9.571   1.546   8.581  0.3105  0.6801 -0.8472
 9709SOL     OW37904   3.170  10.087   8.652  0.1978 -0.8998  0.4375
 9709SOL    HW137905   3.088  10.116   8.613 -0.1231 -0.5564  1.3480
 9709SOL    HW237906   3.229  10.073   8.578 -0.0541  0.8253 -0.1132
 9710SOL     OW37907  10.083  11.758   0.021 -0.0550  0.0769  0.2009
 9710SOL    HW137908  10.115  11.801   0.101 -1.1033  1.5132 -0.1080
 9710SOL    HW237909  10.046  11.675   0.051  2.3129 -0.8378  0.7813
 9711SOL     OW37910   2.664   2.765  11.627 -0.2262  0.5850 -0.6391
 9711SOL    HW137911   2.600   2.783  11.695 -0.3180  1.1900 -0.8770
 9711SOL    HW237912   2.686   2.673  11.638  0.3124  0.8568  0.6714
 9712SOL     OW37913   6.127  12.215  11.565 -0.2124 -0.4510 -0.0821
 9712SOL    HW137914   6.083  12.138  11.600 -1.3748 -0.1163 -0.7627
 9712SOL    HW237915   6.059  12.262  11.516  0.6317  0.6686 -0.2217
 9713SOL     OW37916   4.233   2.738   0.722 -0.0524  0.4124  0.2812
 9713SOL    HW137917   4.181   2.735   0.803  0.9170  1.8447  1.0095
 9713SOL    HW237918   4.235   2.831   0.698 -0.1713  0.0286 -1.3154
 9714SOL     OW37919  10.741   8.118  11.062  0.0730 -0.2908 -0.2262
 9714SOL    HW137920  10.696   8.192  11.020  0.2138 -0.2324 -0.2760
 9714SOL    HW237921  10.834   8.142  11.059  0.0612 -0.1212  0.4292
 9715SOL     OW37922   8.260   3.876  10.340 -0.2675 -0.3025 -0.2046
 9715SOL    HW137923   8.312   3.957  10.334  0.9479 -1.0618 -0.3270
 9715SOL    HW237924   8.288   3.825  10.264 -1.1061 -0.7982 -0.1839
 9716SOL     OW37925  10.630   6.983   6.145 -0.2587  0.0120 -0.0562
 9716SOL    HW137926  10.712   7.004   6.100 -0.2911 -0.4570 -0.3381
 9716SOL    HW237927  10.563   7.028   6.095 -0.1083  1.0142  0.6049
 9717SOL     OW37928   3.252  10.609  11.251  0.2538 -0.0177 -0.0579
 9717SOL    HW137929   3.299  10.686  11.220 -0.5857  0.2729 -0.6227
 9717SOL    HW237930   3.313  10.568  11.313  1.0910  0.5648 -0.4702
 9718SOL     OW37931   2.810   3.531   7.815 -0.1436 -0.7070 -0.3657
 9718SOL    HW137932   2.822   3.484   7.733 -0.8574  0.7403 -1.3587
 9718SOL    HW237933   2.815   3.624   7.790 -0.2056 -0.2432  1.2520
 9719SOL     OW37934   1.013   7.492   5.556 -0.5038 -0.2357 -0.0726
 9719SOL    HW137935   0.984   7.524   5.471 -1.2680 -0.9316 -0.0815
 9719SOL    HW237936   1.091   7.544   5.576  0.4234 -0.8891 -1.7655
 9720SOL     OW37937   4.400   2.675  11.136 -0.7162 -0.5275 -0.5435
 9720SOL    HW137938   4.350   2.726  11.072  0.4914  0.3552 -0.8193
 9720SOL    HW237939   4.456   2.619  11.082 -1.4032 -1.5221 -0.2406
 9721SOL     OW37940   4.776   2.526   1.519 -0.8952 -0.1346  0.1036
 9721SOL    HW137941   4.805   2.549   1.431 -1.1897 -0.5803 -0.1158
 9721SOL    HW237942   4.706   2.462   1.505 -2.2497  1.1695  0.5880
 9722SOL     OW37943   3.168   0.421  11.858 -0.1360 -0.2730 -0.2696
 9722SOL    HW137944   3.192   0.340  11.902  0.5381 -0.7180 -1.4135
 9722SOL    HW237945   3.084   0.402  11.817 -0.7441  0.1283  0.7618
 9723SOL     OW37946  11.700   7.644   5.850  0.8855  0.2721 -0.2669
 9723SOL    HW137947  11.649   7.572   5.814  2.1533 -0.0589 -1.4917
 9723SOL    HW237948  11.638   7.693   5.904 -0.3558 -0.8964 -0.5866
 9724SOL     OW37949   6.655   2.551  11.419  0.3523  0.8371  0.3933
 9724SOL    HW137950   6.619   2.528  11.334  0.1118  1.9098  0.1948
 9724SOL    HW237951   6.750   2.558  11.404  0.3739  0.4587  0.3502
 9725SOL     OW37952   6.354   2.713   6.588 -0.5869  0.0912  0.3317
 9725SOL    HW137953   6.417   2.654   6.545  1.4131  1.6839  0.8976
 9725SOL    HW237954   6.406   2.790   6.611 -3.0911  2.1993 -0.5291
 9726SOL     OW37955   6.476  11.531   9.258  0.2493 -0.3355  0.0594
 9726SOL    HW137956   6.469  11.623   9.234 -2.0332 -0.1324  1.2378
 9726SOL    HW237957   6.471  11.484   9.174  0.1592  0.5460 -0.4441
 9727SOL     OW37958   0.654  11.624  10.647 -0.5530 -0.3112 -0.4583
 9727SOL    HW137959   0.698  11.539  10.647  1.1880  0.5490 -0.4334
 9727SOL    HW237960   0.600  11.623  10.567 -0.2321 -1.2703 -0.6783
 9728SOL     OW37961   1.395   3.182   9.343 -0.0523  0.1735 -0.2321
 9728SOL    HW137962   1.487   3.204   9.358 -0.2547  1.3526 -0.6494
 9728SOL    HW237963   1.397   3.111   9.279  0.5704  0.1737 -0.2129
 9729SOL     OW37964  12.261  10.561   2.714 -0.5502  0.4858  0.7146
 9729SOL    HW137965  12.306  10.616   2.778  2.1955  2.4174 -2.5341
 9729SOL    HW237966  12.234  10.622   2.646 -0.2655 -1.7913 -1.5729
 9730SOL     OW37967   3.600   6.836   2.361  0.6093 -0.0229  0.0019
 9730SOL    HW137968   3.540   6.899   2.402  2.4671  1.2324  0.9187
 9730SOL    HW237969   3.652   6.802   2.434  0.0785 -2.2317 -0.5640
 9731SOL     OW37970   6.339  10.174   2.979  0.3327  0.0540  0.2881
 9731SOL    HW137971   6.291  10.256   2.979  0.5533  0.2001 -1.0074
 9731SOL    HW237972   6.314  10.131   3.061 -3.1726 -0.5661 -0.9416
 9732SOL     OW37973   4.251  11.297   9.545 -0.4314  0.5641  0.5271
 9732SOL    HW137974   4.183  11.348   9.589 -0.9654  1.2368 -1.0083
 9732SOL    HW237975   4.323  11.359   9.533 -0.3067  0.3954  0.4010
 9733SOL     OW37976   9.997   3.048   4.578 -0.1452 -0.1456  0.4820
 9733SOL    HW137977  10.019   3.127   4.528  1.1545 -0.9269 -0.2418
 9733SOL    HW237978   9.911   3.022   4.544  0.0247  0.2097 -0.2497
 9734SOL     OW37979  10.980   4.431   2.596 -0.5713 -0.3672  0.1427
 9734SOL    HW137980  11.058   4.406   2.546 -1.2722  0.5693 -1.5047
 9734SOL    HW237981  11.011   4.436   2.687  0.8303 -1.8217 -0.1897
 9735SOL     OW37982  10.178   4.146   1.430 -0.5172  0.3455  0.1319
 9735SOL    HW137983  10.265   4.181   1.452 -0.7670  0.9265  0.2177
 9735SOL    HW237984  10.126   4.223   1.409 -1.2748  0.0778  0.9638
 9736SOL     OW37985  11.511   8.587   5.732  0.4120  0.2341 -0.1202
 9736SOL    HW137986  11.584   8.568   5.790  0.2704  0.6154  0.1881
 9736SOL    HW237987  11.470   8.665   5.770 -0.6423 -0.4422  0.1743
 9737SOL     OW37988  10.618   3.825   3.306  0.2895 -0.2741 -0.6911
 9737SOL    HW137989  10.526   3.821   3.332  0.5996 -0.5018  0.4116
 9737SOL    HW237990  10.666   3.820   3.388  1.2847  0.3481 -1.2231
 9738SOL     OW37991   8.017   3.965   7.843 -0.7253  0.3838 -0.1039
 9738SOL    HW137992   7.929   3.941   7.873 -0.4344  0.0083  0.4563
 9738SOL    HW237993   8.027   3.919   7.760 -0.5178 -0.7146  0.5212
 9739SOL     OW37994  10.443   0.690  11.666 -0.5144  0.5882  0.3449
 9739SOL    HW137995  10.386   0.767  11.670 -0.0910  0.8586  2.4000
 9739SOL    HW237996  10.443   0.656  11.755  2.2977  0.4304  0.3704
 9740SOL     OW37997   5.007   1.985   3.076  0.2034 -0.1298  0.7364
 9740SOL    HW137998   5.007   1.890   3.079  1.2438 -0.3615 -2.7910
 9740SOL    HW237999   4.922   2.009   3.039  1.1911 -0.0008 -1.6297
 9741SOL     OW38000  10.806   7.411   2.683  0.4589  0.2076  0.2691
 9741SOL    HW138001  10.775   7.472   2.616 -0.8367 -0.2211  0.4581
 9741SOL    HW238002  10.729   7.394   2.737  1.2099 -0.3525  1.1759
 9742SOL     OW38003   7.272   4.753   9.290  0.2628  0.3318 -0.4730
 9742SOL    HW138004   7.325   4.807   9.348 -0.4934 -0.4230  0.9715
 9742SOL    HW238005   7.200   4.810   9.263 -0.1659  0.2659  0.5002
 9743SOL     OW38006   7.250  10.017   3.902  0.0717 -0.7555  0.5988
 9743SOL    HW138007   7.260  10.086   3.967  0.3753 -0.2472  0.0257
 9743SOL    HW238008   7.256  10.062   3.818 -2.5950 -1.0494  0.1652
 9744SOL     OW38009   4.986   0.386   8.833 -0.0120  0.2955  0.3060
 9744SOL    HW138010   4.936   0.465   8.856 -0.0077  0.1259  0.9181
 9744SOL    HW238011   5.053   0.380   8.901  0.6004  0.3007 -0.2833
 9745SOL     OW38012  10.065  11.072   3.862 -0.1830  0.3824  0.0207
 9745SOL    HW138013  10.056  11.007   3.793 -0.3519  0.8428 -0.4011
 9745SOL    HW238014  10.123  11.032   3.927 -0.0873 -0.0825 -0.3538
 9746SOL     OW38015   7.541   5.088   2.501 -0.0366  0.3996 -0.5092
 9746SOL    HW138016   7.628   5.098   2.462  0.1558  0.5699 -0.0383
 9746SOL    HW238017   7.517   5.176   2.529  0.0477  0.1929  0.2242
 9747SOL     OW38018  10.433  11.259   5.610  0.0736 -0.1975 -0.0109
 9747SOL    HW138019  10.338  11.256   5.602  0.1877 -1.0855 -1.2698
 9747SOL    HW238020  10.465  11.275   5.521  1.2049 -3.5567 -0.3602
 9748SOL     OW38021   6.591   4.266  11.706  0.1802  0.2333  0.4219
 9748SOL    HW138022   6.683   4.290  11.719  0.7590 -0.2238 -2.2554
 9748SOL    HW238023   6.581   4.182  11.750  2.0872 -1.4829 -2.1724
 9749SOL     OW38024   1.355   0.476   3.769 -0.1626  0.0578 -0.9344
 9749SOL    HW138025   1.305   0.433   3.839  2.0377 -1.4608 -0.2032
 9749SOL    HW238026   1.375   0.562   3.805  0.7302 -0.6120  0.2768
 9750SOL     OW38027   9.570   4.865   5.564  0.4366 -0.4072  0.0063
 9750SOL    HW138028   9.601   4.782   5.529 -0.0640  0.1148 -1.7952
 9750SOL    HW238029   9.544   4.916   5.486  1.1242  1.5894  1.0068
 9751SOL     OW38030   0.764   0.886   9.560 -0.7261  0.3855 -0.1888
 9751SOL    HW138031   0.680   0.908   9.599 -0.9492  0.0648 -0.4853
 9751SOL    HW238032   0.752   0.798   9.524 -0.4126  0.5280 -0.6493
 9752SOL     OW38033   3.315   1.694   7.800 -0.4289  0.2963  0.2085
 9752SOL    HW138034   3.372   1.667   7.873 -2.1180 -0.1338  1.4256
 9752SOL    HW238035   3.297   1.787   7.818 -0.7042  0.2348  0.2569
 9753SOL     OW38036  12.081   2.569   1.320 -0.5442  0.2913  0.0998
 9753SOL    HW138037  12.041   2.597   1.238 -0.4124 -0.4924 -0.2392
 9753SOL    HW238038  12.137   2.495   1.296 -1.3717 -0.6882  1.0545
 9754SOL     OW38039   1.686   5.694   2.454 -0.0239  0.2408 -0.3749
 9754SOL    HW138040   1.702   5.693   2.548  1.7025  0.0534 -0.6327
 9754SOL    HW238041   1.754   5.751   2.419 -1.5478  1.5232 -1.3906
 9755SOL     OW38042  11.246   6.820   7.117  0.0682  0.0781  0.2781
 9755SOL    HW138043  11.229   6.726   7.119  0.3095  0.0290  0.0707
 9755SOL    HW238044  11.338   6.828   7.090 -0.1569  0.3886 -0.4290
 9756SOL     OW38045   3.020   3.372   5.535  0.5091  0.2574  0.3243
 9756SOL    HW138046   3.076   3.301   5.504 -1.0383 -0.3990 -1.1190
 9756SOL    HW238047   3.078   3.447   5.542  2.0182 -0.9234  1.0804
 9757SOL     OW38048   2.528   0.245   2.111 -0.2432 -0.5267 -0.3105
 9757SOL    HW138049   2.555   0.177   2.049 -0.1725 -0.4421 -0.3713
 9757SOL    HW238050   2.503   0.319   2.057  1.9374  0.3470 -0.1991
 9758SOL     OW38051   8.676   8.676  12.545  0.0268 -0.1838  0.3612
 9758SOL    HW138052   8.603   8.663  12.605 -0.3674  0.7326  0.1097
 9758SOL    HW238053   8.723   8.752  12.581 -1.3974  1.7210 -1.5300
 9759SOL     OW38054   1.331  11.382   8.877  0.0665  0.3872 -0.3842
 9759SOL    HW138055   1.418  11.405   8.910 -0.9602  0.3954  2.6614
 9759SOL    HW238056   1.315  11.446   8.807  1.7917  1.5397  0.1872
 9760SOL     OW38057   5.360   3.232   0.886 -0.4483  0.1050  0.2116
 9760SOL    HW138058   5.308   3.159   0.920  1.6466 -0.8897  1.4586
 9760SOL    HW238059   5.432   3.190   0.838 -0.9609  1.4468 -1.8671
 9761SOL     OW38060   9.455   3.830   8.772  0.3867  0.7159  0.2111
 9761SOL    HW138061   9.406   3.912   8.775 -0.7747  0.1161 -1.2449
 9761SOL    HW238062   9.410   3.777   8.707  1.0641 -1.1316  1.1713
 9762SOL     OW38063   1.204   7.025   1.700  0.2878 -0.4755  1.4051
 9762SOL    HW138064   1.209   6.930   1.702 -0.6693 -0.5507  0.9126
 9762SOL    HW238065   1.295   7.054   1.694  0.6435 -1.3231  2.4801
 9763SOL     OW38066  12.142   7.882   3.876  0.2482 -0.2335  0.1211
 9763SOL    HW138067  12.224   7.845   3.843  0.5760  0.3687  0.2537
 9763SOL    HW238068  12.158   7.976   3.884 -1.3065  0.3526 -2.4416
 9764SOL     OW38069   3.751   2.331   4.138 -0.1499  0.2429  0.0307
 9764SOL    HW138070   3.759   2.369   4.225  0.0068 -0.6842  0.4325
 9764SOL    HW238071   3.660   2.301   4.134 -0.2615  0.6173 -0.2686
 9765SOL     OW38072   1.655   5.273   6.314  0.5652 -0.2824  0.0833
 9765SOL    HW138073   1.623   5.353   6.354  0.0721 -0.5456  0.2239
 9765SOL    HW238074   1.598   5.204   6.349  0.7696 -0.6475 -0.2933
 9766SOL     OW38075   9.118   5.212  11.134 -0.4817  0.5133  0.1981
 9766SOL    HW138076   9.140   5.228  11.042 -0.1395 -0.4312  0.1028
 9766SOL    HW238077   9.193   5.247  11.183  0.2815 -0.7749 -0.0073
 9767SOL     OW38078   8.102  11.367  12.015 -0.1400 -0.5808 -0.1740
 9767SOL    HW138079   8.124  11.390  12.105 -0.4775 -1.1781  0.0655
 9767SOL    HW238080   8.187  11.363  11.970  0.1054 -1.1607  0.3309
 9768SOL     OW38081   9.287   1.198   7.540  0.3589  0.1657  0.6572
 9768SOL    HW138082   9.248   1.279   7.573  0.5419  0.3830  0.3426
 9768SOL    HW238083   9.299   1.213   7.446 -1.4312 -0.9657  0.2087
 9769SOL     OW38084   9.881   3.058   7.297  0.4549  0.0992 -0.4382
 9769SOL    HW138085   9.867   3.133   7.240 -1.3941  1.3319  1.4644
 9769SOL    HW238086   9.975   3.056   7.311  0.6512  1.4316 -1.3584
 9770SOL     OW38087  12.125   8.503  11.519  0.6280 -0.3171 -0.2542
 9770SOL    HW138088  12.073   8.580  11.497  0.7845 -0.1652 -0.1013
 9770SOL    HW238089  12.071   8.429  11.493  0.1411 -0.1731  0.3143
 9771SOL     OW38090   6.067   3.926   4.070  0.1814  0.0318 -0.3125
 9771SOL    HW138091   5.986   3.956   4.112  0.8607  0.5642  0.6549
 9771SOL    HW238092   6.037   3.877   3.993 -1.1551 -1.9830  1.3904
 9772SOL     OW38093   5.407  10.951   2.394 -0.1290  0.2996  0.3115
 9772SOL    HW138094   5.449  10.999   2.466  3.0070 -0.9717 -0.5208
 9772SOL    HW238095   5.314  10.953   2.416  0.6190  0.1890  4.2591
 9773SOL     OW38096   5.213   3.595   4.939 -0.0518 -0.2022  0.0381
 9773SOL    HW138097   5.206   3.678   4.893  1.3520  1.2496  2.2536
 9773SOL    HW238098   5.304   3.568   4.928 -0.2465 -0.9649  0.1848
 9774SOL     OW38099   7.182   8.356   3.610 -0.2410 -0.0583 -0.3948
 9774SOL    HW138100   7.215   8.304   3.683 -0.1432 -1.0685 -1.1326
 9774SOL    HW238101   7.168   8.443   3.646 -0.9641 -0.7333  1.0305
 9775SOL     OW38102   9.003   3.571   6.956 -0.4022 -0.1656  0.2594
 9775SOL    HW138103   9.091   3.593   6.927 -0.2873 -3.0179 -2.0176
 9775SOL    HW238104   8.953   3.651   6.943  1.2363  0.6815 -1.2783
 9776SOL     OW38105   8.700   4.681  10.842  0.0988  0.5150 -0.2728
 9776SOL    HW138106   8.730   4.717  10.925  1.1064  0.0227 -0.4085
 9776SOL    HW238107   8.697   4.586  10.856 -0.3605  0.4789 -0.5950
 9777SOL     OW38108  11.492  10.987   8.120  0.3047 -0.2868  0.1444
 9777SOL    HW138109  11.448  10.952   8.197 -0.5954  1.2924  0.4061
 9777SOL    HW238110  11.565  10.927   8.104 -0.2926 -1.4000  1.3962
 9778SOL     OW38111   3.679  11.564   6.964  0.0976 -0.1913 -0.5860
 9778SOL    HW138112   3.763  11.518   6.967  0.0540 -0.2405 -0.1345
 9778SOL    HW238113   3.632  11.535   7.042 -0.5055 -0.4725 -1.0473
 9779SOL     OW38114   0.404   1.529   0.538 -0.0282 -0.1427 -0.0303
 9779SOL    HW138115   0.319   1.486   0.540 -0.0905  0.0044  1.7176
 9779SOL    HW238116   0.384   1.619   0.512 -0.6423  0.2782  1.7291
 9780SOL     OW38117  11.471   2.779   8.040 -0.1003 -0.0043 -0.1118
 9780SOL    HW138118  11.492   2.702   7.987  1.4745  0.5075 -0.2753
 9780SOL    HW238119  11.431   2.743   8.119 -0.5465 -0.8973 -0.7217
 9781SOL     OW38120  10.653   7.658   2.995 -0.2800  0.0406 -0.0447
 9781SOL    HW138121  10.653   7.564   3.010  0.6534 -0.0620 -0.5656
 9781SOL    HW238122  10.744   7.685   3.012  0.1010  0.4046 -2.2661
 9782SOL     OW38123   1.026   0.281   9.468 -0.2920  0.2224  0.2232
 9782SOL    HW138124   1.008   0.277   9.374  0.5472  0.1587  0.0527
 9782SOL    HW238125   1.033   0.189   9.496 -1.8083  0.2015  0.6261
 9783SOL     OW38126   0.815   8.075   2.062 -0.6088 -0.0946  0.0723
 9783SOL    HW138127   0.770   8.016   2.002 -1.2606 -0.9298  1.3521
 9783SOL    HW238128   0.836   8.021   2.138  1.5138  0.5593  0.0337
 9784SOL     OW38129   5.470   4.395   9.437  0.3083 -0.2384  0.2665
 9784SOL    HW138130   5.452   4.313   9.482 -0.2576  0.7022  1.8177
 9784SOL    HW238131   5.386   4.421   9.398  0.3480 -0.0969  0.2726
 9785SOL     OW38132  12.536   5.579   8.932 -0.3172  0.2538 -0.8546
 9785SOL    HW138133  12.597   5.572   9.006 -0.0123 -1.1049 -1.1967
 9785SOL    HW238134  12.560   5.660   8.888  1.0347 -0.0735 -0.7743
 9786SOL     OW38135   0.067   9.922  10.301  0.3981  0.5802  0.5593
 9786SOL    HW138136   0.042   9.866  10.375 -0.5388 -0.0987 -0.2479
 9786SOL    HW238137  -0.016   9.944  10.258  0.9531  0.6388 -0.5194
 9787SOL     OW38138   2.059   2.168   1.291 -0.6735  0.5651  0.5997
 9787SOL    HW138139   2.084   2.233   1.357  4.0907  0.6300 -0.9094
 9787SOL    HW238140   2.086   2.207   1.208 -2.9167 -1.1386 -1.0512
 9788SOL     OW38141   6.524   1.854   7.703 -0.6279  0.9638  0.1348
 9788SOL    HW138142   6.558   1.908   7.774  0.1642  0.9062 -0.1903
 9788SOL    HW238143   6.479   1.916   7.645 -1.0700  1.0435  0.5607
 9789SOL     OW38144   3.101   0.501   6.196  0.2315 -0.2143 -0.1740
 9789SOL    HW138145   3.110   0.595   6.178  0.6132 -0.1320  0.3987
 9789SOL    HW238146   3.172   0.460   6.147 -0.5295 -0.3217 -1.2197
 9790SOL     OW38147   7.919   4.711   8.468 -0.0401  0.1255  0.3489
 9790SOL    HW138148   8.014   4.715   8.452  0.1239  1.7232  1.5504
 9790SOL    HW238149   7.908   4.638   8.528  0.5967  0.7092  1.1930
 9791SOL     OW38150   4.554   0.344   2.551  0.0653  0.1014 -0.4742
 9791SOL    HW138151   4.599   0.420   2.588 -1.2015  0.9831 -0.6809
 9791SOL    HW238152   4.535   0.368   2.461  2.0790 -1.5823 -1.4246
 9792SOL     OW38153   9.194   6.665   8.260  0.6768  0.1761 -0.4063
 9792SOL    HW138154   9.254   6.618   8.317 -0.2103 -0.9058 -0.3319
 9792SOL    HW238155   9.240   6.671   8.176  0.4065 -1.8314 -0.7510
 9793SOL     OW38156   6.334   8.901  12.093 -0.0855  0.2270 -0.0097
 9793SOL    HW138157   6.410   8.853  12.060  0.9412  2.5698 -1.2761
 9793SOL    HW238158   6.273   8.832  12.122  2.0496 -1.7535  0.0933
 9794SOL     OW38159   6.418  10.632   7.268  0.1043  0.6403  0.2863
 9794SOL    HW138160   6.495  10.669   7.310  0.4198  0.3624 -0.0329
 9794SOL    HW238161   6.384  10.569   7.331  0.0496  0.8768  0.4925
 9795SOL     OW38162   0.705   3.301  12.211  0.4255  0.4330 -0.2825
 9795SOL    HW138163   0.737   3.245  12.282  1.4915 -0.7298 -1.6279
 9795SOL    HW238164   0.677   3.240  12.143 -0.9661  1.5157 -0.7420
 9796SOL     OW38165   9.309   9.276  12.590  0.1067  0.3528  0.0868
 9796SOL    HW138166   9.396   9.259  12.553 -0.0662 -2.3625  0.7258
 9796SOL    HW238167   9.307   9.223  12.670 -2.7636 -1.0918 -0.8488
 9797SOL     OW38168   7.635   2.555   6.835 -0.7656  0.4891  0.4833
 9797SOL    HW138169   7.544   2.581   6.844 -0.8785 -0.2659  1.6590
 9797SOL    HW238170   7.665   2.600   6.755 -2.6521 -0.6811 -0.9696
 9798SOL     OW38171   7.259   9.860   8.718 -0.2144 -0.2187  0.5903
 9798SOL    HW138172   7.292   9.872   8.807  0.5182 -0.8598  0.4139
 9798SOL    HW238173   7.328   9.813   8.672 -0.8164 -0.3931 -0.1701
 9799SOL     OW38174   8.101  11.089   4.945 -0.1068 -0.0668  0.0880
 9799SOL    HW138175   8.017  11.108   4.986 -0.6551  1.4027 -1.6051
 9799SOL    HW238176   8.145  11.174   4.938  0.7535 -0.5489 -0.6355
 9800SOL     OW38177   6.094   9.075   0.700  0.4528 -0.3737 -0.2107
 9800SOL    HW138178   6.090   9.155   0.751  1.7116 -0.1567 -0.4322
 9800SOL    HW238179   6.182   9.074   0.662 -0.2316 -0.8112 -1.9059
 9801SOL     OW38180   4.102   1.804   1.781 -0.0933 -0.3175  0.3077
 9801SOL    HW138181   4.136   1.715   1.767 -1.8093 -0.7586 -1.6168
 9801SOL    HW238182   4.008   1.791   1.791 -0.4296  1.3017 -0.4754
 9802SOL     OW38183   6.459   4.003   6.705 -0.0811 -0.0659  0.4443
 9802SOL    HW138184   6.553   4.011   6.689 -0.1142  0.3875  0.4867
 9802SOL    HW238185   6.421   4.080   6.663 -0.5748 -0.9386 -0.7748
 9803SOL     OW38186  10.495   7.785   2.614  0.4806  0.4978  0.4520
 9803SOL    HW138187  10.450   7.704   2.636  1.1932  0.0619  0.3314
 9803SOL    HW238188  10.429   7.837   2.568  0.9096 -1.4098 -2.5882
 9804SOL     OW38189   9.400  10.663   1.505 -0.6377  0.4121  0.3947
 9804SOL    HW138190   9.359  10.589   1.460  0.6946 -0.1928  0.0920
 9804SOL    HW238191   9.493  10.655   1.482 -0.2330  1.2643  1.6389
 9805SOL     OW38192   2.258   0.538   9.348 -0.2944 -0.2376  0.2310
 9805SOL    HW138193   2.214   0.580   9.274 -0.8978  0.0228  0.7314
 9805SOL    HW238194   2.302   0.609   9.394 -0.8115 -0.2314  0.7312
 9806SOL     OW38195  11.962   6.922  10.947 -0.6498 -0.2104  0.0898
 9806SOL    HW138196  11.959   6.837  10.905 -1.7914  0.9244 -2.3289
 9806SOL    HW238197  11.873   6.957  10.937 -0.4670  0.9003  1.8557
 9807SOL     OW38198   4.750   1.768  11.387  0.1963  0.7071  0.4025
 9807SOL    HW138199   4.660   1.754  11.418  0.2545 -1.4025 -0.2176
 9807SOL    HW238200   4.739   1.817  11.305 -0.2767  1.7294  1.0562
 9808SOL     OW38201   2.222   4.603   1.544 -0.7971 -0.1872  0.3893
 9808SOL    HW138202   2.281   4.542   1.499  1.2061  1.7191  0.2740
 9808SOL    HW238203   2.189   4.553   1.619 -0.8146 -2.0283 -0.7874
 9809SOL     OW38204   9.320   3.864   5.303  0.6098 -0.0615  0.4415
 9809SOL    HW138205   9.295   3.909   5.384  1.8847  3.7786 -1.0395
 9809SOL    HW238206   9.415   3.862   5.305  0.6222 -2.3025  0.0962
 9810SOL     OW38207   2.917   3.968   9.882  0.4697 -0.2563  0.0843
 9810SOL    HW138208   2.871   3.885   9.886 -1.7715  0.9128  0.0562
 9810SOL    HW238209   2.917   4.001   9.972 -1.3002  1.0227 -0.3410
 9811SOL     OW38210  10.679   3.271   2.187 -0.2832 -0.4655 -0.0470
 9811SOL    HW138211  10.746   3.209   2.160  0.5679  0.5119 -0.2132
 9811SOL    HW238212  10.666   3.252   2.280 -0.4871 -1.2951 -0.2306
 9812SOL     OW38213   9.978   4.302  11.822  0.6114 -0.5399 -0.4503
 9812SOL    HW138214  10.016   4.254  11.896  1.0582 -1.5324 -1.3037
 9812SOL    HW238215   9.928   4.236  11.774 -1.2268  0.4804 -0.0541
 9813SOL     OW38216   7.816   5.493   5.492 -0.1490 -0.0936  0.3558
 9813SOL    HW138217   7.897   5.543   5.481  0.0224 -0.4775 -0.1462
 9813SOL    HW238218   7.750   5.559   5.512  0.6451  0.0603  2.7903
 9814SOL     OW38219   0.911   2.565   5.259  0.4010  0.0759  0.1037
 9814SOL    HW138220   0.994   2.568   5.211  1.1427  0.0955  1.3391
 9814SOL    HW238221   0.937   2.561   5.351 -0.9134  4.5644  0.9040
 9815SOL     OW38222  10.420   3.439   5.599  0.0575 -0.2233 -0.1191
 9815SOL    HW138223  10.355   3.369   5.601  0.0200 -0.2374 -1.0630
 9815SOL    HW238224  10.388   3.503   5.662 -1.1392 -0.0110 -0.9065
 9816SOL     OW38225   6.683  11.151   8.598  0.2531  0.2035 -0.0636
 9816SOL    HW138226   6.740  11.113   8.531 -1.2484 -1.7065 -0.3559
 9816SOL    HW238227   6.596  11.150   8.559  0.0508  4.1341 -0.0849
 9817SOL     OW38228   8.711   4.838   6.864  0.1081 -0.3504  0.3225
 9817SOL    HW138229   8.734   4.780   6.936 -1.0466 -0.5371  0.5553
 9817SOL    HW238230   8.646   4.789   6.813  0.4939  0.0016 -0.5332
 9818SOL     OW38231   3.272   8.694   8.208  0.1983 -0.5407  0.0633
 9818SOL    HW138232   3.275   8.598   8.208 -0.4527 -0.5706  0.6776
 9818SOL    HW238233   3.187   8.715   8.169 -1.2211 -0.3220  2.9770
 9819SOL     OW38234   2.793   2.739   8.014  0.4022  0.1265  0.0831
 9819SOL    HW138235   2.742   2.669   7.974 -0.4261 -1.5521  3.6105
 9819SOL    HW238236   2.847   2.695   8.079 -0.1233  2.6967  2.4713
 9820SOL     OW38237   9.921   0.430   1.788 -0.3133  0.1565 -0.0596
 9820SOL    HW138238   9.828   0.422   1.810 -0.4145  1.5319  0.1159
 9820SOL    HW238239   9.945   0.517   1.819  1.1971 -0.4016  0.4181
 9821SOL     OW38240   1.748   5.534   0.450 -0.5347 -0.0410  0.4855
 9821SOL    HW138241   1.783   5.581   0.374 -0.8915 -0.7164 -0.1117
 9821SOL    HW238242   1.667   5.580   0.472 -1.1085 -0.6224 -0.3677
 9822SOL     OW38243   0.624   4.051   6.105 -0.1130  0.0249 -0.6602
 9822SOL    HW138244   0.585   4.114   6.166 -2.2315 -1.1537 -0.7163
 9822SOL    HW238245   0.609   4.088   6.018  0.0468  0.1810 -0.6215
 9823SOL     OW38246   6.375   3.175  10.962  0.1816  0.8610  0.2497
 9823SOL    HW138247   6.380   3.176  11.057 -0.6873  0.5501  0.3025
 9823SOL    HW238248   6.306   3.238  10.940 -2.0615 -1.5223  0.0210
 9824SOL     OW38249   7.184   6.333   3.387  0.1153  0.5883 -0.6512
 9824SOL    HW138250   7.118   6.396   3.417 -0.1689 -0.8735  2.1438
 9824SOL    HW238251   7.147   6.298   3.306 -1.2552  1.6859 -0.5577
 9825SOL     OW38252   8.052   1.158   3.507  0.0732 -0.2826  0.5147
 9825SOL    HW138253   8.140   1.125   3.489  0.4258  0.6972  0.3957
 9825SOL    HW238254   7.998   1.122   3.437  0.4030 -0.7690  0.5023
 9826SOL     OW38255   2.165  10.127  11.370 -0.4148 -0.1308  0.0656
 9826SOL    HW138256   2.120  10.210  11.355 -1.0474 -0.4969 -0.1114
 9826SOL    HW238257   2.107  10.079  11.430 -1.0912 -1.2614 -1.4268
 9827SOL     OW38258   3.483   4.723   4.738 -0.1697 -0.4916  0.6892
 9827SOL    HW138259   3.561   4.742   4.790 -1.4190 -0.2927  2.5748
 9827SOL    HW238260   3.491   4.630   4.717 -0.4282 -1.0255  2.7274
 9828SOL     OW38261   6.943   1.798   0.033 -0.0066  0.5891  0.2309
 9828SOL    HW138262   6.924   1.740  -0.041 -0.5045 -0.4702  1.1649
 9828SOL    HW238263   6.940   1.886  -0.005 -0.4596  0.0846 -0.9651
 9829SOL     OW38264   9.796   3.893  11.945  0.3713  0.5240 -0.1508
 9829SOL    HW138265   9.811   3.966  12.005 -2.2771  0.1759  1.0627
 9829SOL    HW238266   9.788   3.817  12.001  0.2795 -0.2260 -1.1567
 9830SOL     OW38267  12.003   1.020   5.428 -0.2430 -0.0207  0.6581
 9830SOL    HW138268  11.918   1.016   5.384  1.0910  2.2352 -2.4755
 9830SOL    HW238269  12.046   0.938   5.404 -0.8049 -0.3393  0.7110
 9831SOL     OW38270   0.792   6.528   1.775 -0.1192 -0.3423  0.5238
 9831SOL    HW138271   0.787   6.588   1.849  1.9534  2.5965 -1.4730
 9831SOL    HW238272   0.837   6.451   1.808  0.7523  0.8843  2.3314
 9832SOL     OW38273   5.708   9.415  11.113 -0.3185  0.0977 -0.3884
 9832SOL    HW138274   5.673   9.412  11.024  0.7434 -0.5705 -0.8087
 9832SOL    HW238275   5.658   9.484  11.157  0.0361  1.3632 -1.8910
 9833SOL     OW38276   2.323   3.655   6.017  0.7841 -0.0605 -0.2004
 9833SOL    HW138277   2.234   3.625   6.035 -0.2418  2.3139 -0.9087
 9833SOL    HW238278   2.369   3.648   6.101 -0.1463 -0.9868  0.2502
 9834SOL     OW38279   6.302   4.139   3.171 -0.1523  0.0148  0.0825
 9834SOL    HW138280   6.260   4.092   3.243  1.3243 -0.2532  0.8221
 9834SOL    HW238281   6.284   4.086   3.093  0.1372 -0.9385  0.6438
 9835SOL     OW38282   2.538   3.640   8.810  0.4474 -0.5389 -0.7658
 9835SOL    HW138283   2.631   3.632   8.788  1.5793 -1.8692  3.4610
 9835SOL    HW238284   2.534   3.716   8.868 -1.2586 -0.1176 -1.3809
 9836SOL     OW38285   4.234   0.483   2.586  0.3132  0.4822 -0.4934
 9836SOL    HW138286   4.283   0.518   2.512  1.1261  1.0741  0.3039
 9836SOL    HW238287   4.142   0.499   2.565  0.5772  1.3131 -1.0288
 9837SOL     OW38288   6.778   4.541   8.918 -0.3292  0.0897 -0.8166
 9837SOL    HW138289   6.807   4.611   8.859 -0.0220 -0.3839 -1.2363
 9837SOL    HW238290   6.689   4.521   8.891 -0.5351  0.5408 -0.4819
 9838SOL     OW38291   0.451   2.177   5.738 -0.3363 -0.1237  0.5501
 9838SOL    HW138292   0.360   2.168   5.765 -0.5789  0.0428 -0.1829
 9838SOL    HW238293   0.456   2.264   5.699 -0.1932 -0.6286 -0.6172
 9839SOL     OW38294  10.742   3.383   0.896  0.0990 -0.2138 -0.5905
 9839SOL    HW138295  10.762   3.426   0.813  2.1237 -0.5623 -0.3178
 9839SOL    HW238296  10.766   3.292   0.882  1.0927 -0.1520  0.5757
 9840SOL     OW38297   5.257  12.194  10.433 -0.3633  0.5411  1.1078
 9840SOL    HW138298   5.184  12.256  10.439 -0.5566  0.3295  0.9646
 9840SOL    HW238299   5.218  12.114  10.400 -0.1470  0.2799  1.4777
 9841SOL     OW38300   4.279  12.563   9.996  0.3365  0.1364 -0.2543
 9841SOL    HW138301   4.283  12.484   9.942  1.0422  0.1013 -0.1516
 9841SOL    HW238302   4.361  12.564  10.044 -0.2081  0.2594  0.6941
 9842SOL     OW38303   7.368   9.844   6.533 -0.5455 -0.7172 -0.3055
 9842SOL    HW138304   7.344   9.917   6.590  0.9025 -0.5293  0.0927
 9842SOL    HW238305   7.351   9.766   6.586  1.8829 -0.5216  0.9255
 9843SOL     OW38306  10.875   3.542   3.768  0.0676  0.2832 -0.5199
 9843SOL    HW138307  10.889   3.493   3.849 -3.2454  2.8199  1.8828
 9843SOL    HW238308  10.798   3.501   3.728  0.0347  0.7144 -0.9113
 9844SOL     OW38309   4.237  11.921   1.620  0.3797 -0.1640 -0.4338
 9844SOL    HW138310   4.173  11.991   1.609  1.5948  1.1419  0.4339
 9844SOL    HW238311   4.322  11.964   1.609  1.1438 -1.8441 -1.5698
 9845SOL     OW38312   7.967   4.760  10.844  0.0201 -0.7439 -0.5768
 9845SOL    HW138313   8.061   4.748  10.838  0.1874  0.0556  0.1667
 9845SOL    HW238314   7.946   4.827  10.780 -0.2623 -1.8388 -1.6747
 9846SOL     OW38315   9.317   5.868   7.619 -0.1544  0.1910  0.4696
 9846SOL    HW138316   9.390   5.814   7.591 -2.2613 -2.0012 -1.2813
 9846SOL    HW238317   9.334   5.954   7.580  0.6019 -0.8033 -1.5301
 9847SOL     OW38318   4.263   4.445   3.716  0.0020 -0.5816  0.0353
 9847SOL    HW138319   4.346   4.428   3.760  0.5885 -0.8452 -1.1238
 9847SOL    HW238320   4.251   4.370   3.658 -0.1897  0.2640 -1.0513
 9848SOL     OW38321   9.630   9.873   1.373  0.0166 -0.1690  0.9723
 9848SOL    HW138322   9.651   9.853   1.281 -1.7867  1.0721  0.2404
 9848SOL    HW238323   9.705   9.924   1.404 -1.2862  3.5431 -1.3301
 9849SOL     OW38324   2.126   2.291   8.901 -0.3343 -0.1585 -0.3882
 9849SOL    HW138325   2.210   2.319   8.935 -0.3029 -1.4700  0.6742
 9849SOL    HW238326   2.081   2.372   8.878  0.0046  0.7441  1.9458
 9850SOL     OW38327   2.084   3.874  10.389 -0.0487  0.4773  0.0763
 9850SOL    HW138328   2.151   3.927  10.345 -0.0387  1.2270  0.9591
 9850SOL    HW238329   2.081   3.793  10.339  0.0297  1.2634 -1.2386
 9851SOL     OW38330   5.294   9.779   0.563  0.2108 -0.3509 -0.0429
 9851SOL    HW138331   5.347   9.777   0.642  1.3901  1.6595 -0.7255
 9851SOL    HW238332   5.350   9.741   0.496 -0.0866 -0.3382 -0.3002
 9852SOL     OW38333  10.572  10.796   1.503 -0.2822  0.0274 -0.2940
 9852SOL    HW138334  10.634  10.723   1.496 -0.6022 -0.1444 -1.4902
 9852SOL    HW238335  10.594  10.837   1.587  0.4207 -0.9645  0.0341
 9853SOL     OW38336   6.105   5.174   8.095  0.7000  0.1642  0.4415
 9853SOL    HW138337   6.132   5.119   8.021  0.0158  0.4127  0.0003
 9853SOL    HW238338   6.166   5.151   8.165 -1.3397 -3.4126  1.3001
 9854SOL     OW38339   1.919  10.412   5.502 -0.0521  0.6637 -0.4315
 9854SOL    HW138340   1.898  10.366   5.583 -0.0861  0.2266 -0.6852
 9854SOL    HW238341   1.834  10.429   5.462 -0.0011 -2.6193 -2.3055
 9855SOL     OW38342   7.489   1.965   5.364 -0.2191  0.1390 -0.0616
 9855SOL    HW138343   7.472   1.909   5.288 -0.6808 -0.1611  0.2538
 9855SOL    HW238344   7.548   2.033   5.331  3.1929 -2.3618  0.2990
 9856SOL     OW38345   9.983   8.412   3.185  0.2674 -0.3132  0.4870
 9856SOL    HW138346   9.994   8.499   3.146  0.1751 -0.0161  1.0971
 9856SOL    HW238347  10.072   8.379   3.196  0.2902 -0.4206 -0.0212
 9857SOL     OW38348   7.736   2.463   4.892  0.5831 -0.6463  0.5930
 9857SOL    HW138349   7.690   2.419   4.820  0.0262 -0.2214  0.6828
 9857SOL    HW238350   7.723   2.556   4.875  1.2486 -0.5246  0.7361
 9858SOL     OW38351   1.936  10.615   4.628 -0.6387  0.3215 -0.0966
 9858SOL    HW138352   1.891  10.640   4.547  0.0824 -0.4717 -0.7665
 9858SOL    HW238353   2.005  10.681   4.639 -0.4065  0.1339 -0.4178
 9859SOL     OW38354   9.982   8.362   2.600 -0.0987  0.2822 -0.3554
 9859SOL    HW138355  10.053   8.341   2.661 -1.6467  0.2856  1.5449
 9859SOL    HW238356   9.928   8.427   2.646 -1.0957  0.6188 -1.9133
 9860SOL     OW38357   5.620   3.660   4.783  0.0083 -0.5344 -0.4242
 9860SOL    HW138358   5.653   3.749   4.774 -0.4650 -0.4131 -1.0699
 9860SOL    HW238359   5.670   3.622   4.855  0.6158  0.0657 -0.5233
 9861SOL     OW38360   8.685   2.293   5.686 -0.2882 -0.1950 -0.6150
 9861SOL    HW138361   8.763   2.300   5.631 -0.3373  0.4067 -0.6204
 9861SOL    HW238362   8.614   2.324   5.630 -0.2787  0.7981 -0.1048
 9862SOL     OW38363   3.322   3.242  10.005 -0.2449  0.7062 -0.6549
 9862SOL    HW138364   3.260   3.302   9.963 -1.3996  0.2267  0.3043
 9862SOL    HW238365   3.356   3.189   9.933 -0.2433  1.5837 -1.3226
 9863SOL     OW38366   7.368   2.067   3.798  0.0031  0.6672 -0.3428
 9863SOL    HW138367   7.443   2.010   3.784 -0.4781  0.2474 -1.2890
 9863SOL    HW238368   7.347   2.058   3.891  1.7969  1.6458  0.2081
 9864SOL     OW38369   2.587   0.366   0.793  0.2441  0.2768 -0.2482
 9864SOL    HW138370   2.619   0.456   0.788  1.7234 -0.0753  1.7063
 9864SOL    HW238371   2.646   0.323   0.855 -0.5009 -2.0259 -1.0358
 9865SOL     OW38372   1.294   6.359  11.036 -0.3198  0.4077 -0.2096
 9865SOL    HW138373   1.257   6.358  10.948 -0.9408  0.6523  0.0426
 9865SOL    HW238374   1.372   6.413  11.028 -1.6527  2.4741 -0.1327
 9866SOL     OW38375  10.384   4.786   7.145 -0.0029 -0.1703 -0.0120
 9866SOL    HW138376  10.473   4.789   7.111  0.2037  1.1525  0.5759
 9866SOL    HW238377  10.336   4.849   7.091 -0.0352  0.7680  1.0572
 9867SOL     OW38378  10.535   7.123   9.581 -0.6318  0.2418  0.0059
 9867SOL    HW138379  10.622   7.133   9.619 -0.3620 -0.9401 -0.2417
 9867SOL    HW238380  10.548   7.137   9.487 -0.4036 -1.3306 -0.2313
 9868SOL     OW38381   6.130   7.713   5.841  0.1031 -0.8754  0.2791
 9868SOL    HW138382   6.208   7.665   5.868  0.0114 -1.5600 -0.6197
 9868SOL    HW238383   6.096   7.751   5.921  1.9428  0.3101  0.5371
 9869SOL     OW38384   0.077   4.516   3.706 -0.1462  0.2559 -0.1169
 9869SOL    HW138385   0.123   4.599   3.718 -0.5300  0.6524 -1.2048
 9869SOL    HW238386  -0.008   4.529   3.748  0.3586 -0.1559  1.0851
 9870SOL     OW38387   3.337   5.961   0.539 -0.4643  0.4735  0.3160
 9870SOL    HW138388   3.359   5.897   0.471  0.9027  1.7198 -0.4774
 9870SOL    HW238389   3.293   5.909   0.607  2.3463 -1.7690  0.6561
 9871SOL     OW38390   3.672   9.132   4.716  0.2826 -0.2156 -0.0454
 9871SOL    HW138391   3.679   9.224   4.689 -2.7622 -0.2291 -1.2675
 9871SOL    HW238392   3.647   9.086   4.636 -1.4652 -1.5504  1.2113
 9872SOL     OW38393   5.150   1.742   7.860 -1.3982 -0.2821 -0.7027
 9872SOL    HW138394   5.069   1.779   7.826 -0.5573  0.7692 -1.6646
 9872SOL    HW238395   5.161   1.783   7.946 -1.3601  0.3955 -1.0232
 9873SOL     OW38396   0.284   2.998   4.585  0.2653  0.0467 -0.4344
 9873SOL    HW138397   0.233   3.023   4.507  1.2340  1.9097 -0.5433
 9873SOL    HW238398   0.371   3.035   4.569  0.5893  0.1453  1.3695
 9874SOL     OW38399   6.019   4.069   4.428 -0.2835  0.6889  0.4662
 9874SOL    HW138400   5.972   4.024   4.498  0.1183  0.9226  0.8907
 9874SOL    HW238401   5.957   4.135   4.397 -0.6044  0.3314  0.3393
 9875SOL     OW38402   0.673  12.267   4.532  0.0905  0.0061 -0.2320
 9875SOL    HW138403   0.723  12.324   4.473  1.6831 -0.1359  0.8985
 9875SOL    HW238404   0.635  12.200   4.476  0.9406  0.3090 -1.1903
 9876SOL     OW38405  10.719   6.721   8.568  0.3048  0.0028 -0.3569
 9876SOL    HW138406  10.751   6.763   8.648 -2.6472  0.2582  0.8031
 9876SOL    HW238407  10.687   6.636   8.597 -1.2557  0.2948 -1.1139
 9877SOL     OW38408   7.672   9.834   2.615  0.3132 -0.0140  0.0107
 9877SOL    HW138409   7.694   9.908   2.671 -0.9497 -0.8950  1.7560
 9877SOL    HW238410   7.577   9.824   2.625  0.1487 -0.6055 -1.8145
 9878SOL     OW38411   6.406   5.071   4.338 -0.1406 -0.2983  0.3868
 9878SOL    HW138412   6.355   5.118   4.404  0.3817  1.5170 -0.4579
 9878SOL    HW238413   6.495   5.067   4.375 -0.3374 -1.4095  0.8119
 9879SOL     OW38414  11.966  10.290  11.875 -0.1856  0.5122  0.0398
 9879SOL    HW138415  11.909  10.254  11.943  0.7031 -0.8309  0.1085
 9879SOL    HW238416  12.034  10.337  11.924 -0.1099  0.4092  0.0322
 9880SOL     OW38417  11.518   8.914   3.878 -0.2980 -0.0809  0.1179
 9880SOL    HW138418  11.604   8.957   3.875 -1.3918  2.4173  1.4017
 9880SOL    HW238419  11.476   8.939   3.796 -0.5718  0.5149  0.4341
 9881SOL     OW38420   5.672   0.525   8.600 -0.5011  0.5994 -0.1448
 9881SOL    HW138421   5.595   0.533   8.656 -0.1499 -0.8970  0.6142
 9881SOL    HW238422   5.670   0.433   8.571  2.1505 -0.1486  1.6711
 9882SOL     OW38423   6.437   3.789   4.258  0.7998  0.7266  0.3276
 9882SOL    HW138424   6.404   3.750   4.339  0.9589 -0.6870 -0.2571
 9882SOL    HW238425   6.383   3.867   4.246 -1.7165 -0.9393 -0.0646
 9883SOL     OW38426   9.401   4.448  10.139 -0.3358 -0.1747 -0.1113
 9883SOL    HW138427   9.402   4.369  10.086  1.1809  0.2106 -0.6828
 9883SOL    HW238428   9.475   4.438  10.199  0.7002  1.3645 -1.0650
 9884SOL     OW38429   4.314   9.821   1.838  0.3741 -0.0685  0.1710
 9884SOL    HW138430   4.407   9.815   1.817 -0.0530  1.0758 -2.4238
 9884SOL    HW238431   4.275   9.741   1.803  0.2601 -0.1696  0.5224
 9885SOL     OW38432   2.231   0.430   5.979  0.6954 -0.3673  0.4613
 9885SOL    HW138433   2.304   0.436   5.917 -0.0084  2.3059 -0.2075
 9885SOL    HW238434   2.252   0.493   6.047 -1.2129  0.8435 -0.0242
 9886SOL     OW38435   9.819   9.433   0.958 -0.0589 -0.4446 -0.1766
 9886SOL    HW138436   9.811   9.493   0.884  0.1620  0.3272  0.4075
 9886SOL    HW238437   9.783   9.482   1.032 -0.6213 -1.3420  0.1580
 9887SOL     OW38438   8.918   2.572   5.754 -0.4500 -0.0030 -1.1048
 9887SOL    HW138439   8.831   2.584   5.793 -0.1548 -0.4961 -0.2776
 9887SOL    HW238440   8.903   2.585   5.660 -1.2877  0.5862 -0.9072
 9888SOL     OW38441   6.928   8.529   5.307 -0.3161  0.4857  0.0988
 9888SOL    HW138442   6.892   8.452   5.351 -0.4909  0.6614  0.2635
 9888SOL    HW238443   6.940   8.501   5.216  2.0596 -0.5855  0.6602
 9889SOL     OW38444   0.898   4.357   4.201  0.4951  0.4593  0.1484
 9889SOL    HW138445   0.990   4.358   4.226  0.3485 -0.3924  0.7501
 9889SOL    HW238446   0.888   4.279   4.147 -0.1781 -0.2885  1.3273
 9890SOL     OW38447   8.057   7.082   1.808  0.0835 -0.5651 -0.1171
 9890SOL    HW138448   8.140   7.117   1.841 -0.0061 -0.2990 -0.1775
 9890SOL    HW238449   8.081   7.034   1.729 -0.3411  3.0886 -2.6582
 9891SOL     OW38450   7.744   6.711   7.221 -0.2156 -0.1142 -0.4888
 9891SOL    HW138451   7.663   6.705   7.272 -0.0016  0.9985  0.0183
 9891SOL    HW238452   7.806   6.657   7.268  0.2599  1.6704  1.0603
 9892SOL     OW38453  11.521   3.061   1.036 -0.6096  0.1784  0.2166
 9892SOL    HW138454  11.515   3.137   1.094 -1.5631 -0.3139  0.7889
 9892SOL    HW238455  11.431   3.031   1.026 -0.2100 -1.1322  0.3506
 9893SOL     OW38456   3.272   7.958   1.499  0.2456  0.2485  0.3002
 9893SOL    HW138457   3.320   7.932   1.578  0.2593  0.7652  0.4684
 9893SOL    HW238458   3.181   7.938   1.519  0.3842 -0.8389 -0.0619
 9894SOL     OW38459   4.028  10.736   4.166  0.1443 -0.3446  1.1248
 9894SOL    HW138460   4.106  10.692   4.199  1.2189 -0.3603 -1.2347
 9894SOL    HW238461   4.048  10.829   4.171  0.3971 -0.3533  0.3713
 9895SOL     OW38462   1.426   7.228   1.693  0.2609  0.0665  0.3468
 9895SOL    HW138463   1.514   7.192   1.692 -0.1841 -1.0597 -0.1476
 9895SOL    HW238464   1.403   7.240   1.601  0.1352  0.9836  0.4837
 9896SOL     OW38465   8.841  12.565  12.332 -0.1029  0.0298 -0.2331
 9896SOL    HW138466   8.935  12.582  12.330 -0.1071  0.3612  1.2634
 9896SOL    HW238467   8.818  12.567  12.425 -1.4706 -0.7372 -0.5270
 9897SOL     OW38468   1.794   5.889   6.341 -0.1820 -0.5582  0.0809
 9897SOL    HW138469   1.768   5.964   6.288 -1.3635 -1.3131 -0.4521
 9897SOL    HW238470   1.877   5.915   6.380 -1.4150  1.7699  1.4013
 9898SOL     OW38471  12.060   9.835  10.510 -0.2435  0.5588 -0.2640
 9898SOL    HW138472  12.071   9.867  10.599 -0.9649  0.8724 -0.2827
 9898SOL    HW238473  11.993   9.768  10.516 -1.1088  1.3556 -0.7270
 9899SOL     OW38474   3.461   9.771   3.949  0.0416 -0.0344 -0.4092
 9899SOL    HW138475   3.449   9.861   3.918  2.0857  0.5647  0.3588
 9899SOL    HW238476   3.487   9.722   3.871  2.6749  0.9263 -0.2595
 9900SOL     OW38477   8.960   3.726   1.379  0.0041 -0.0313  0.2688
 9900SOL    HW138478   9.027   3.792   1.394 -0.7458  0.6560  0.7020
 9900SOL    HW238479   8.877   3.774   1.382 -0.4540 -0.6265 -1.6114
 9901SOL     OW38480   5.384   2.346   0.108 -0.1889 -0.4078  0.5146
 9901SOL    HW138481   5.316   2.406   0.136 -0.6837 -0.2976 -0.8731
 9901SOL    HW238482   5.360   2.262   0.149  0.2307  0.1736  2.0407
 9902SOL     OW38483   5.526   5.456   1.227 -0.1176 -0.4796  0.5344
 9902SOL    HW138484   5.547   5.548   1.245  0.4865 -0.6379  0.6673
 9902SOL    HW238485   5.450   5.460   1.169  0.4017  0.1228 -0.1191
 9903SOL     OW38486  10.262   5.546   0.757 -0.0158  0.0679  0.2499
 9903SOL    HW138487  10.279   5.634   0.791  0.5993  0.0567 -0.0226
 9903SOL    HW238488  10.314   5.540   0.677 -1.2418 -0.0036 -0.5700
 9904SOL     OW38489   9.927  12.538   3.088 -0.2491 -0.1010 -0.2069
 9904SOL    HW138490  10.014  12.507   3.114 -0.3362  0.8031  1.2093
 9904SOL    HW238491   9.900  12.477   3.019  1.4716 -0.4379 -0.6226
 9905SOL     OW38492   6.863  10.609  10.949  0.2155  0.0864 -0.7843
 9905SOL    HW138493   6.855  10.704  10.956  0.2644  0.0828 -0.6637
 9905SOL    HW238494   6.793  10.576  11.005 -0.9387  0.0423 -2.1979
 9906SOL     OW38495   8.754   4.604  10.169 -0.0028 -0.7181  0.6672
 9906SOL    HW138496   8.784   4.628  10.256  1.1129 -0.3997  0.2185
 9906SOL    HW238497   8.824   4.633  10.111 -1.7216  1.2079 -0.5990
 9907SOL     OW38498   2.509   3.844   9.566 -0.0457 -0.4176 -0.1010
 9907SOL    HW138499   2.501   3.786   9.490 -0.7568 -1.6047  0.8423
 9907SOL    HW238500   2.438   3.907   9.556 -0.0499 -0.4790 -0.4760
 9908SOL     OW38501   9.268   7.677   1.319  0.2191  0.0124 -0.0651
 9908SOL    HW138502   9.235   7.727   1.393  0.0164  0.3453 -0.3762
 9908SOL    HW238503   9.345   7.632   1.353 -0.2584 -0.3763  0.5317
 9909SOL     OW38504   9.272   0.379   4.795 -0.0095 -0.0764 -0.3126
 9909SOL    HW138505   9.217   0.415   4.865  1.4412 -0.7405  1.2366
 9909SOL    HW238506   9.228   0.298   4.769  0.3448 -0.7551  1.1120
 9910SOL     OW38507   0.228  12.459  10.785  0.3350  0.1653  0.3666
 9910SOL    HW138508   0.251  12.450  10.877 -0.9342 -0.0423  0.6823
 9910SOL    HW238509   0.183  12.378  10.763  0.6013  0.2252 -0.4276
 9911SOL     OW38510  10.280   0.821   2.029 -0.1532  0.2528 -0.1931
 9911SOL    HW138511  10.215   0.782   1.971 -1.1103  0.3299  0.7793
 9911SOL    HW238512  10.347   0.856   1.971 -0.4630 -0.7336 -1.1838
 9912SOL     OW38513   4.616   6.119   5.249 -0.0466 -0.4335 -0.0173
 9912SOL    HW138514   4.618   6.135   5.343 -0.0186  0.7708 -0.2065
 9912SOL    HW238515   4.684   6.176   5.213 -0.8219 -0.0110 -0.8805
 9913SOL     OW38516  10.569   1.264   7.554  0.1138 -0.3182 -0.1441
 9913SOL    HW138517  10.556   1.299   7.643 -0.9573 -1.4253  0.1630
 9913SOL    HW238518  10.485   1.281   7.510  0.3968 -0.4164 -0.7249
 9914SOL     OW38519  10.755   3.693   7.873  0.5761  0.5912  0.4750
 9914SOL    HW138520  10.843   3.704   7.836  0.9306  2.4388  1.7259
 9914SOL    HW238521  10.697   3.700   7.797  1.4776 -0.9013 -0.4070
 9915SOL     OW38522   8.082   3.950   7.435 -0.3905  0.1136  0.2596
 9915SOL    HW138523   8.029   4.002   7.374  1.9488  0.9225 -1.2179
 9915SOL    HW238524   8.143   4.013   7.473  2.2472 -1.3673 -1.2345
 9916SOL     OW38525   4.569  10.203   4.223 -0.4796 -0.3969  0.1035
 9916SOL    HW138526   4.481  10.238   4.205 -0.7593 -0.7320  0.8102
 9916SOL    HW238527   4.582  10.216   4.316  1.1668  1.7789 -0.3407
 9917SOL     OW38528   6.973   3.103   3.917 -0.0493  0.4431 -0.0579
 9917SOL    HW138529   6.989   3.026   3.971  0.8337  1.2756  0.9081
 9917SOL    HW238530   6.912   3.156   3.969  0.3308  0.9686 -0.1392
 9918SOL     OW38531  12.236   3.502   5.144 -0.0169 -0.1061 -0.3772
 9918SOL    HW138532  12.255   3.454   5.224  0.0658  1.3344  0.4869
 9918SOL    HW238533  12.141   3.515   5.146 -0.0707 -0.3985 -0.7285
 9919SOL     OW38534   9.329   2.059  10.198  0.1988  0.7006  0.3998
 9919SOL    HW138535   9.334   1.979  10.250 -1.5763  1.3454  1.6911
 9919SOL    HW238536   9.419   2.078  10.174  0.8623 -0.6988  1.6333
 9920SOL     OW38537   1.305   2.769   6.664  0.1998  0.1767  0.3932
 9920SOL    HW138538   1.393   2.796   6.690  0.2235  1.9104 -1.3009
 9920SOL    HW238539   1.314   2.742   6.573 -0.8346 -0.7651  0.5427
 9921SOL     OW38540   0.103  10.167   6.942 -0.2572  0.0457  0.1322
 9921SOL    HW138541   0.129  10.126   6.859  0.8012  0.7496  0.0802
 9921SOL    HW238542   0.153  10.120   7.009 -0.8526 -0.2998  0.3367
 9922SOL     OW38543   9.999  11.975   5.937 -0.5467  0.5787  0.2059
 9922SOL    HW138544  10.004  11.978   5.841 -0.6848  0.1667  0.1811
 9922SOL    HW238545  10.069  11.915   5.962 -0.5029  0.6975  0.3666
 9923SOL     OW38546   3.227  11.730  12.037 -0.2731  0.2162 -0.9754
 9923SOL    HW138547   3.203  11.638  12.023 -1.3509  0.2884  0.1688
 9923SOL    HW238548   3.322  11.729  12.044 -0.1512 -0.5924 -2.3434
 9924SOL     OW38549   1.554   8.778   7.065 -0.1331  0.2125 -0.4961
 9924SOL    HW138550   1.561   8.860   7.017 -0.2820 -0.5496 -1.8959
 9924SOL    HW238551   1.593   8.796   7.150  0.0625  1.6554 -0.8698
 9925SOL     OW38552   1.952   9.176   8.880  0.2965  0.5177 -0.2941
 9925SOL    HW138553   1.951   9.138   8.792 -0.6388 -0.5229  0.1389
 9925SOL    HW238554   1.864   9.159   8.914  0.7546  0.5950  0.9650
 9926SOL     OW38555   9.807   9.538   2.110 -0.0861 -0.0882 -0.0186
 9926SOL    HW138556   9.719   9.502   2.098 -0.0089 -0.2699 -0.0382
 9926SOL    HW238557   9.844   9.488   2.183  0.4670 -0.8854 -0.8228
 9927SOL     OW38558   7.385   0.257   0.335  0.1086 -0.4782  0.2963
 9927SOL    HW138559   7.360   0.330   0.392  1.6158 -0.7191  1.3150
 9927SOL    HW238560   7.306   0.240   0.282 -0.0820  2.3241 -0.4716
 9928SOL     OW38561   5.004   9.723   3.081  0.0334  0.0170  0.0313
 9928SOL    HW138562   4.974   9.772   3.158  0.1584 -0.0170  0.1017
 9928SOL    HW238563   5.051   9.788   3.028  0.2993 -0.0509  0.1804
 9929SOL     OW38564  11.922   1.629   5.277  0.3179  0.3687 -0.3248
 9929SOL    HW138565  12.014   1.626   5.251  0.7226  1.7350  0.8480
 9929SOL    HW238566  11.921   1.679   5.358 -1.3902 -0.2425  0.0845
 9930SOL     OW38567   0.959   7.816   7.759  0.7115 -0.3546  0.5309
 9930SOL    HW138568   0.898   7.757   7.713  0.7668 -0.8474  1.0804
 9930SOL    HW238569   1.046   7.789   7.729  0.7416 -0.6062  0.8433
 9931SOL     OW38570  10.295  11.510   5.146 -0.2571  0.2523  0.1608
 9931SOL    HW138571  10.259  11.586   5.100 -0.3452 -0.3753 -0.8566
 9931SOL    HW238572  10.237  11.438   5.122  1.0212 -0.5593 -0.6343
 9932SOL     OW38573   0.804   1.428   6.672  0.3089  0.5854 -0.0246
 9932SOL    HW138574   0.764   1.352   6.714  0.0422 -0.4604 -2.0233
 9932SOL    HW238575   0.878   1.450   6.728  0.9733 -1.7742  0.1694
 9933SOL     OW38576   3.148   5.729   1.284  0.1927  0.1101 -0.3435
 9933SOL    HW138577   3.068   5.725   1.231 -0.9377 -0.6868  1.3506
 9933SOL    HW238578   3.204   5.792   1.237 -1.3278  0.5507 -1.6736
 9934SOL     OW38579   1.231   9.483   4.576 -0.6367 -0.6032  0.3578
 9934SOL    HW138580   1.172   9.426   4.626  0.0631  0.4499  2.5651
 9934SOL    HW238581   1.298   9.509   4.640 -1.0400  2.8136 -0.4035
 9935SOL     OW38582   2.327   0.445  10.796  0.0254 -0.6863  0.2242
 9935SOL    HW138583   2.300   0.534  10.819 -1.4405 -0.9831 -0.2132
 9935SOL    HW238584   2.278   0.426  10.716 -0.7245 -2.3568  1.0380
 9936SOL     OW38585  12.287  10.228   7.074 -0.1180  0.3391  0.3876
 9936SOL    HW138586  12.331  10.255   6.993  0.5097  2.0446  1.2520
 9936SOL    HW238587  12.358  10.214   7.137 -0.6137 -0.7592  0.7208
 9937SOL     OW38588   2.220  11.238   3.866 -0.2772  0.0205 -0.2101
 9937SOL    HW138589   2.162  11.163   3.863 -1.3323  0.7820  0.5999
 9937SOL    HW238590   2.280  11.225   3.792 -0.1186 -1.8403  0.2123
 9938SOL     OW38591   5.004   7.858   7.417  0.4744  0.1259 -1.1251
 9938SOL    HW138592   4.930   7.808   7.451  0.1285  2.0959  1.3559
 9938SOL    HW238593   4.964   7.919   7.354  0.2457 -0.0192 -1.1217
 9939SOL     OW38594  10.667   1.726   4.384 -0.5835  0.1728  0.1490
 9939SOL    HW138595  10.676   1.745   4.291 -0.4445  0.3874  0.2064
 9939SOL    HW238596  10.653   1.811   4.426  0.5344  0.2291  0.4636
 9940SOL     OW38597   3.691   0.847   7.374 -0.0822 -0.2149  0.1754
 9940SOL    HW138598   3.630   0.810   7.438 -0.3418  0.5521  0.3813
 9940SOL    HW238599   3.722   0.772   7.324 -2.0387 -0.5358 -0.6731
 9941SOL     OW38600   8.729  12.513   4.623  0.0040  0.1934 -0.2064
 9941SOL    HW138601   8.751  12.564   4.701  0.8634 -0.7807  0.2178
 9941SOL    HW238602   8.806  12.457   4.609 -0.4329 -0.1450 -1.3349
 9942SOL     OW38603   8.502   0.815   4.348 -0.2385  0.4166  0.5047
 9942SOL    HW138604   8.454   0.890   4.382  0.4553  1.1499 -0.0788
 9942SOL    HW238605   8.577   0.853   4.302  0.5809 -0.6676  0.8840
 9943SOL     OW38606   9.660   5.761  10.860 -0.1051  0.2240 -0.2516
 9943SOL    HW138607   9.637   5.827  10.926 -1.0008 -0.8005  0.4981
 9943SOL    HW238608   9.582   5.752  10.807  0.7810  1.4192 -1.8434
 9944SOL     OW38609   0.297   1.266   9.849 -0.1495 -0.1775 -0.3517
 9944SOL    HW138610   0.244   1.345   9.857  0.4913  0.1932  0.3671
 9944SOL    HW238611   0.374   1.294   9.800  0.1366 -0.3269  0.0118
 9945SOL     OW38612   4.723   5.998  10.304  0.2262 -0.1992 -0.1564
 9945SOL    HW138613   4.634   5.984  10.273  0.8985 -0.3868 -2.1691
 9945SOL    HW238614   4.769   6.037  10.229  1.4905  1.2963  1.2959
 9946SOL     OW38615   7.002   5.873   7.112  0.5983 -0.1978 -0.2349
 9946SOL    HW138616   7.034   5.941   7.172 -2.8244 -0.1805  1.8470
 9946SOL    HW238617   6.935   5.918   7.060 -1.2877 -1.7093  0.7522
 9947SOL     OW38618   8.915  10.562  11.443  0.1403 -0.1551 -0.1200
 9947SOL    HW138619   8.871  10.618  11.507  0.6863 -2.0661  2.1172
 9947SOL    HW238620   9.008  10.582  11.454  0.2917 -1.0106  0.2650
 9948SOL     OW38621  10.487   5.785   4.999 -0.5549 -0.6000  0.7740
 9948SOL    HW138622  10.575   5.759   4.972  0.3508  2.0878  0.8132
 9948SOL    HW238623  10.438   5.792   4.918  0.0727  0.4772  0.4720
 9949SOL     OW38624   6.484   1.064  10.427 -0.0387  0.3308 -0.0556
 9949SOL    HW138625   6.450   0.982  10.393  0.7870  0.7433 -2.0490
 9949SOL    HW238626   6.528   1.040  10.509 -2.0908 -0.7243  0.7867
 9950SOL     OW38627  12.209   4.074   3.974 -0.0955 -0.2637 -0.5259
 9950SOL    HW138628  12.136   4.021   3.942 -0.2482 -0.6513  0.4503
 9950SOL    HW238629  12.173   4.163   3.977 -0.0529 -0.1959 -1.4790
 9951SOL     OW38630   4.625  10.457  12.348 -0.5070  0.5231  0.0100
 9951SOL    HW138631   4.676  10.382  12.379 -1.7510 -0.1775  0.4012
 9951SOL    HW238632   4.690  10.513  12.304  0.5579 -0.4388  0.3100
 9952SOL     OW38633  11.869  10.886  10.149 -0.6813  0.6539  0.1783
 9952SOL    HW138634  11.773  10.886  10.160 -0.9613 -2.2241 -1.3696
 9952SOL    HW238635  11.899  10.812  10.202  0.5240  0.7075 -0.4073
 9953SOL     OW38636   8.348   2.467  12.542 -0.2377  0.3304  0.1516
 9953SOL    HW138637   8.433   2.429  12.561 -0.5330 -0.8312 -0.7141
 9953SOL    HW238638   8.365   2.560  12.529  0.9456  0.0636 -0.3185
 9954SOL     OW38639   9.818   7.438   3.046  0.5232 -0.9325  0.4649
 9954SOL    HW138640   9.749   7.438   3.112  0.3615 -2.3715  0.3209
 9954SOL    HW238641   9.895   7.401   3.091  0.7624 -0.7698  0.1958
 9955SOL     OW38642   5.760   5.859   4.108 -0.1491  0.3017  0.0139
 9955SOL    HW138643   5.850   5.873   4.077 -0.1189  2.8471  0.9778
 9955SOL    HW238644   5.710   5.932   4.072 -1.6452 -0.5576  0.2509
 9956SOL     OW38645   4.337   2.794   5.180  0.4158 -0.2212  0.1094
 9956SOL    HW138646   4.252   2.809   5.223 -0.1060 -1.2184 -0.5251
 9956SOL    HW238647   4.393   2.761   5.250  0.6588  1.5795  0.8044
 9957SOL     OW38648   5.238   3.598  10.827  0.2635 -0.2296  0.6455
 9957SOL    HW138649   5.229   3.558  10.740 -1.0636 -0.0023  0.6623
 9957SOL    HW238650   5.280   3.530  10.880  0.1424 -0.7536  0.0818
 9958SOL     OW38651  12.228   1.869   0.220  0.5533  0.1814  0.3564
 9958SOL    HW138652  12.178   1.946   0.191 -0.4691  0.2135  2.0695
 9958SOL    HW238653  12.268   1.896   0.302  1.7356 -0.5394  0.0427
 9959SOL     OW38654  10.690  10.396   3.100  0.1053  0.3055 -0.2861
 9959SOL    HW138655  10.708  10.308   3.067  0.3636  0.2730 -0.0614
 9959SOL    HW238656  10.762  10.414   3.161 -0.2713  0.4273  0.1314
 9960SOL     OW38657   1.172   4.436   9.095 -0.1628 -0.4360  0.1451
 9960SOL    HW138658   1.206   4.390   9.018  2.7523  1.7609 -0.0782
 9960SOL    HW238659   1.088   4.472   9.067  0.9494  0.5385 -2.2043
 9961SOL     OW38660   5.279   8.841   8.532  0.2116 -0.3633 -0.5899
 9961SOL    HW138661   5.248   8.928   8.507 -1.4598 -0.2448  1.6037
 9961SOL    HW238662   5.373   8.853   8.546  0.1065  0.9548 -0.8618
 9962SOL     OW38663   5.125   2.415   8.294 -0.8759  0.1822 -0.3956
 9962SOL    HW138664   5.105   2.464   8.374  1.5419  1.2092 -0.3401
 9962SOL    HW238665   5.144   2.326   8.323 -1.6696  0.1078 -0.0678
 9963SOL     OW38666   4.744   3.754   2.979 -1.0288 -1.0899 -0.6372
 9963SOL    HW138667   4.699   3.686   2.929  0.1961 -1.7503 -0.8703
 9963SOL    HW238668   4.835   3.748   2.951 -0.8891  0.6472 -0.6495
 9964SOL     OW38669   6.865   6.451   6.459 -0.2474  0.2689  0.2535
 9964SOL    HW138670   6.897   6.511   6.392  1.3680 -0.5714  0.2341
 9964SOL    HW238671   6.840   6.372   6.412 -0.6746  0.2672  0.4735
 9965SOL     OW38672  10.368   7.304   5.306 -0.0991 -0.4762  0.2306
 9965SOL    HW138673  10.315   7.383   5.312 -0.7046 -0.5670 -2.5495
 9965SOL    HW238674  10.394   7.299   5.214  1.3321 -2.6427  0.6595
 9966SOL     OW38675   9.039   4.360   4.368  0.3334 -0.6644 -0.2091
 9966SOL    HW138676   8.986   4.284   4.388 -0.2801 -0.1985 -0.0433
 9966SOL    HW238677   9.091   4.334   4.291 -0.5840 -0.9104 -0.7548
 9967SOL     OW38678   7.889   3.180   1.586 -0.0827 -0.4528  0.5668
 9967SOL    HW138679   7.893   3.092   1.550  0.4699 -0.7299  1.2765
 9967SOL    HW238680   7.823   3.225   1.533 -0.7743 -1.4536  0.5614
 9968SOL     OW38681   8.116   3.989   3.840 -0.4090 -0.3099  0.0881
 9968SOL    HW138682   8.047   3.974   3.775  0.2859 -0.8876 -0.5392
 9968SOL    HW238683   8.181   4.043   3.795  1.0864 -2.4337 -0.4504
 9969SOL     OW38684   1.523   3.054   1.948 -0.0526 -0.4089  0.4712
 9969SOL    HW138685   1.591   3.049   1.881  0.6014  0.5454  1.0438
 9969SOL    HW238686   1.473   3.133   1.926 -0.2184 -0.4326  0.7552
 9970SOL     OW38687   6.183   8.099   2.986  0.9405  0.3552  0.3941
 9970SOL    HW138688   6.164   8.163   3.055 -1.6073  3.1553 -2.5197
 9970SOL    HW238689   6.275   8.112   2.966  1.0364  1.5081  1.4279
 9971SOL     OW38690   0.059  11.856   5.162 -0.4213 -0.2051 -0.6435
 9971SOL    HW138691   0.150  11.881   5.182 -1.3094  2.1567  0.9028
 9971SOL    HW238692   0.066  11.768   5.126  2.3123 -1.0022  1.4322
 9972SOL     OW38693   5.153   4.495  12.182  0.5202 -0.6982  0.1323
 9972SOL    HW138694   5.176   4.502  12.275  1.8597  0.5270 -0.2555
 9972SOL    HW238695   5.092   4.422  12.178 -0.0007 -0.4195  2.0561
 9973SOL     OW38696   3.359   8.917   8.061  0.4142  0.6088  0.8052
 9973SOL    HW138697   3.346   8.836   8.111 -0.0105  0.0868 -0.1376
 9973SOL    HW238698   3.453   8.921   8.046  0.3346 -0.2042  0.0469
 9974SOL     OW38699   6.548   3.684   9.655  0.0401  0.5138  0.6435
 9974SOL    HW138700   6.644   3.682   9.652  0.0191  0.8091 -1.6299
 9974SOL    HW238701   6.528   3.762   9.707  1.0397  0.7812  0.6540
 9975SOL     OW38702   2.755   0.542   5.541 -0.2916  0.5846  0.2527
 9975SOL    HW138703   2.687   0.602   5.512 -1.9461 -0.2894  2.1044
 9975SOL    HW238704   2.710   0.460   5.557  1.6542 -0.7678 -0.7404
 9976SOL     OW38705   2.930  11.924   8.629  0.0590  0.2930  0.3989
 9976SOL    HW138706   2.906  11.861   8.697 -0.0128 -0.0771  0.0372
 9976SOL    HW238707   2.939  12.007   8.675  3.7031 -0.5661  1.5702
 9977SOL     OW38708   2.220   9.918   2.122 -0.2207 -0.0225 -0.2528
 9977SOL    HW138709   2.214  10.002   2.075  0.2705 -0.5501 -1.3042
 9977SOL    HW238710   2.259   9.941   2.206  0.4226  0.7447 -0.7385
 9978SOL     OW38711   1.493  11.868   9.917  0.2004  0.3748  0.0372
 9978SOL    HW138712   1.479  11.795   9.978 -0.7164  0.7166  0.2521
 9978SOL    HW238713   1.570  11.842   9.865 -0.3584 -0.9307 -0.1692
 9979SOL     OW38714  11.276   4.691  10.850  0.4818  0.1808 -0.3306
 9979SOL    HW138715  11.306   4.773  10.891 -2.5751  1.1203  0.2794
 9979SOL    HW238716  11.326   4.623  10.894  1.0823  1.5416  1.2250
 9980SOL     OW38717   1.621   0.229   0.674  0.2956  0.0348  0.2633
 9980SOL    HW138718   1.658   0.146   0.645 -0.5611 -0.0554 -0.6154
 9980SOL    HW238719   1.528   0.211   0.687  0.4310  0.3720  1.9759
 9981SOL     OW38720   3.228   2.560   7.847  0.3707 -0.3572 -0.1161
 9981SOL    HW138721   3.291   2.540   7.916 -0.7295 -0.0594  0.9953
 9981SOL    HW238722   3.187   2.476   7.827  0.2430 -0.3300  0.0346
 9982SOL     OW38723  10.531   1.879   5.203 -0.0693  0.0913 -0.1062
 9982SOL    HW138724  10.601   1.929   5.245  0.2184 -0.0623 -0.3999
 9982SOL    HW238725  10.558   1.788   5.212  0.1754  0.0750 -0.9437
 9983SOL     OW38726   0.797   2.117   5.732  0.7628  0.5533 -0.5602
 9983SOL    HW138727   0.825   2.037   5.777  0.2101  1.5205  1.6642
 9983SOL    HW238728   0.728   2.088   5.672 -0.8129 -0.4597  1.5943
 9984SOL     OW38729   5.295   7.574   2.880 -0.1758 -0.0979 -0.0031
 9984SOL    HW138730   5.277   7.638   2.811  0.9675 -0.0265 -0.2513
 9984SOL    HW238731   5.374   7.606   2.923  0.3364 -1.2603 -0.0333
 9985SOL     OW38732   0.620   7.624   1.683 -0.0554  0.3359 -0.2676
 9985SOL    HW138733   0.580   7.709   1.702  1.4107  0.8395  0.7427
 9985SOL    HW238734   0.703   7.645   1.641 -0.1759 -0.6400 -1.0273
 9986SOL     OW38735   3.183   0.760   1.963 -0.1404 -0.4168  0.2943
 9986SOL    HW138736   3.160   0.852   1.976  2.2841  0.2576  0.4128
 9986SOL    HW238737   3.101   0.718   1.940 -1.5133  1.5847  1.1786
 9987SOL     OW38738   7.080   7.417  12.551  0.3203 -0.3936  0.6402
 9987SOL    HW138739   7.025   7.453  12.482  0.7960 -0.5719  0.1520
 9987SOL    HW238740   7.057   7.324  12.554 -0.8097 -0.1078  1.8046
 9988SOL     OW38741  10.494   1.669   4.081 -0.2776  0.0259 -0.1380
 9988SOL    HW138742  10.570   1.726   4.098  0.3788 -0.9888  0.4210
 9988SOL    HW238743  10.421   1.729   4.071  0.0758  0.9021  2.1163
 9989SOL     OW38744   0.312   1.467  12.330  0.2415  0.1972 -0.2461
 9989SOL    HW138745   0.237   1.431  12.377  0.1871  0.6542  0.0302
 9989SOL    HW238746   0.273   1.515  12.257  0.3654 -1.3033 -1.3450
 9990SOL     OW38747  11.710   0.506   4.058  0.1728 -0.3873  0.3315
 9990SOL    HW138748  11.634   0.556   4.089 -0.4900 -0.7429 -0.6671
 9990SOL    HW238749  11.698   0.500   3.963  0.2427 -2.4173  0.4061
 9991SOL     OW38750   4.631   6.238   1.197  0.2983  0.2898 -0.7877
 9991SOL    HW138751   4.648   6.194   1.280 -0.1927 -1.7808 -1.7097
 9991SOL    HW238752   4.716   6.235   1.151  0.4649  1.0535 -0.5380
 9992SOL     OW38753   0.057  10.210   9.805  0.8580 -0.1974  0.7540
 9992SOL    HW138754   0.111  10.217   9.727  1.0576 -0.2222  0.8900
 9992SOL    HW238755   0.096  10.273   9.866  0.3946  0.1944  0.6518
 9993SOL     OW38756   9.134   2.703   6.127 -0.4790  0.3019  0.2770
 9993SOL    HW138757   9.220   2.705   6.168 -1.2252 -0.8758  2.0204
 9993SOL    HW238758   9.152   2.708   6.033  1.4488  0.5267  0.6159
 9994SOL     OW38759  10.929   5.848   3.686 -0.5244 -0.3507  0.5280
 9994SOL    HW138760  11.010   5.801   3.664  0.4132  1.1961  0.5703
 9994SOL    HW238761  10.941   5.936   3.650 -1.2406  0.5932  2.4951
 9995SOL     OW38762   1.585   1.137   4.710  0.1845  0.5831  0.3726
 9995SOL    HW138763   1.596   1.048   4.742  1.1984  0.8849  0.9066
 9995SOL    HW238764   1.523   1.178   4.770  0.1242  0.3915  0.4391
 9996SOL     OW38765   7.769  10.403   1.744 -1.0338  0.1833 -0.5702
 9996SOL    HW138766   7.714  10.432   1.817 -0.5464  1.3377 -0.6314
 9996SOL    HW238767   7.777  10.309   1.756 -1.0022  0.3396  0.8597
 9997SOL     OW38768   2.418   5.987   9.911  0.3563  0.6560 -0.0227
 9997SOL    HW138769   2.363   6.066   9.917  0.6398  0.8715 -0.2380
 9997SOL    HW238770   2.409   5.946   9.997  0.1030  0.8524  0.0501
 9998SOL     OW38771  10.449   6.035   4.265 -0.2208  0.2084  0.4179
 9998SOL    HW138772  10.393   6.104   4.302 -1.6263 -0.7890  0.2531
 9998SOL    HW238773  10.534   6.049   4.307  0.2212  3.3488 -1.2194
 9999SOL     OW38774  12.040   4.569   9.393 -0.3478 -0.0862  0.1844
 9999SOL    HW138775  11.973   4.574   9.462 -0.0313  0.0316  0.4835
 9999SOL    HW238776  12.069   4.478   9.393 -1.4819 -0.4834 -0.8808
10000SOL     OW38777   9.873  11.340   1.641  0.4043 -0.3714  0.2657
10000SOL    HW138778   9.875  11.417   1.584  3.9226 -0.7826 -0.3501
10000SOL    HW238779   9.818  11.277   1.595 -1.4942  1.2618  0.1793
10001SOL     OW38780   1.119   1.476   6.640 -0.1889  0.2438 -0.0579
10001SOL    HW138781   1.157   1.560   6.614 -0.1486  0.1724 -0.2297
10001SOL    HW238782   1.140   1.468   6.733  0.7619 -0.0816 -0.2894
10002SOL     OW38783   0.792   2.677   0.908 -0.1276 -0.0211 -0.4992
10002SOL    HW138784   0.843   2.609   0.864  0.3307  0.6363 -1.0066
10002SOL    HW238785   0.843   2.757   0.896 -1.3048  0.6636 -1.0523
10003SOL     OW38786   1.073   6.062  11.977  0.2904  0.1518  0.0780
10003SOL    HW138787   0.980   6.041  11.987  0.5935 -0.7917  0.9858
10003SOL    HW238788   1.088   6.135  12.037  0.0576  0.5744 -0.3674
10004SOL     OW38789   3.687  11.595   4.453  0.2321 -0.0750  0.0781
10004SOL    HW138790   3.730  11.563   4.532 -0.6453  0.0115  0.6000
10004SOL    HW238791   3.698  11.525   4.389 -0.6808 -0.9644  0.8634
10005SOL     OW38792   2.070   0.683   4.350  0.1238  0.4111  0.6820
10005SOL    HW138793   2.134   0.706   4.282  0.1889  1.1679  0.9825
10005SOL    HW238794   2.014   0.761   4.358 -1.2860 -0.4827 -0.0570
10006SOL     OW38795  12.415   9.127   3.402  0.0145 -0.7536  0.2582
10006SOL    HW138796  12.385   9.186   3.472 -2.6440 -1.7607  0.0790
10006SOL    HW238797  12.477   9.069   3.446 -2.0671 -1.7895  2.0730
10007SOL     OW38798   3.488  10.124   5.611  0.2122  0.3597 -0.3740
10007SOL    HW138799   3.396  10.097   5.610 -0.0051  0.7761  1.7948
10007SOL    HW238800   3.536  10.048   5.643  0.8067 -0.1739 -2.3942
10008SOL     OW38801   0.777  11.135   0.102  0.4470  0.2348  0.2455
10008SOL    HW138802   0.799  11.112   0.193  2.2357 -0.3130 -0.2884
10008SOL    HW238803   0.861  11.135   0.056 -0.1326  2.5794 -0.9856
10009SOL     OW38804   1.374   3.679   0.595 -0.2557  0.1755 -0.3763
10009SOL    HW138805   1.285   3.648   0.576 -0.5913  0.4772  0.6521
10009SOL    HW238806   1.427   3.600   0.596 -0.6313 -0.0822 -0.3559
10010SOL     OW38807   6.924   8.031   3.013 -0.4433 -0.2715 -0.1433
10010SOL    HW138808   7.017   8.050   2.998 -0.1004 -0.9389  1.0484
10010SOL    HW238809   6.923   7.979   3.093 -1.7934 -0.8421 -0.5091
10011SOL     OW38810   5.982   8.331   3.426 -0.3454 -0.2443 -0.0518
10011SOL    HW138811   5.907   8.300   3.476 -1.7297  0.4581 -1.6134
10011SOL    HW238812   5.973   8.426   3.425 -0.2721 -0.2343 -1.4743
10012SOL     OW38813  10.685   5.010  11.877  0.1762  0.5294 -0.3139
10012SOL    HW138814  10.751   4.942  11.886 -0.7487 -0.3605  0.0288
10012SOL    HW238815  10.699   5.068  11.952 -0.7464 -0.8532  0.9882
10013SOL     OW38816   2.870   6.578   6.478 -0.0864 -0.2091 -0.1933
10013SOL    HW138817   2.870   6.632   6.557  1.3776 -0.5093  0.0475
10013SOL    HW238818   2.929   6.624   6.418 -1.8092  0.4462 -1.4580
10014SOL     OW38819   1.869   4.102   7.266 -0.2294 -0.4212 -0.2824
10014SOL    HW138820   1.899   4.191   7.244  0.4363 -0.5598  0.0256
10014SOL    HW238821   1.837   4.066   7.184  0.9874 -0.4602 -0.7581
10015SOL     OW38822   9.355   4.863   6.863  0.0560 -0.2824  0.3631
10015SOL    HW138823   9.321   4.808   6.934 -0.4643  1.1566  1.2810
10015SOL    HW238824   9.427   4.911   6.904  0.4904 -0.2473 -0.4234
10016SOL     OW38825   3.305   1.898   8.036  0.1452 -0.3166 -0.1368
10016SOL    HW138826   3.367   1.897   8.109  1.4481 -2.5814 -1.1657
10016SOL    HW238827   3.220   1.880   8.076  1.1662 -4.0964  0.7077
10017SOL     OW38828  10.766   8.654   2.515 -0.1044  0.1919 -0.5263
10017SOL    HW138829  10.831   8.714   2.478 -0.7117  2.4243  1.7243
10017SOL    HW238830  10.704   8.638   2.444  1.4280  0.1971 -1.9082
10018SOL     OW38831   7.242  12.301   8.930  0.0717 -0.1831 -0.1926
10018SOL    HW138832   7.236  12.213   8.893  1.6708  0.2961 -1.7224
10018SOL    HW238833   7.264  12.357   8.856 -0.9925  1.5462  0.7304
10019SOL     OW38834  10.250   0.325   3.991 -0.1723 -0.4707  0.2989
10019SOL    HW138835  10.273   0.272   4.067 -1.7183  0.5723  1.5443
10019SOL    HW238836  10.232   0.412   4.026  1.7469  0.8178 -1.6188
10020SOL     OW38837   4.704   3.000   5.772  0.3107 -0.0517  0.1245
10020SOL    HW138838   4.777   2.943   5.747 -1.0379 -1.1880 -1.4955
10020SOL    HW238839   4.694   3.060   5.698  1.7433  2.4771  1.8291
10021SOL     OW38840   0.850   4.820   1.012  0.1306 -0.4627 -0.3402
10021SOL    HW138841   0.890   4.831   0.926  0.9762  0.4259  0.1326
10021SOL    HW238842   0.842   4.909   1.046  1.6903 -0.8767  1.2956
10022SOL     OW38843   5.064  11.031  12.288 -0.1669 -0.4891  0.9640
10022SOL    HW138844   4.986  11.079  12.260 -0.2823 -0.3238  1.5728
10022SOL    HW238845   5.084  10.973  12.214 -0.1161  0.3875  0.2792
10023SOL     OW38846   4.032   3.173   7.747  0.5312 -0.3612 -0.2368
10023SOL    HW138847   4.095   3.180   7.676  0.0120  1.5588 -0.5823
10023SOL    HW238848   4.019   3.079   7.760  0.2859 -0.7874 -3.0154
10024SOL     OW38849  10.607   4.332   9.060 -0.3623 -0.1571 -0.1120
10024SOL    HW138850  10.563   4.413   9.085  0.8643 -0.1274  2.3536
10024SOL    HW238851  10.654   4.353   8.980 -2.7655  0.5038 -1.4332
10025SOL     OW38852   0.190   7.736  10.486  0.2400 -0.1982  0.3332
10025SOL    HW138853   0.207   7.796  10.414 -0.0278 -0.6839 -0.1405
10025SOL    HW238854   0.125   7.781  10.540 -1.6067 -0.9164 -1.1589
10026SOL     OW38855   2.012   6.631   6.429  0.2890  0.5603 -0.0698
10026SOL    HW138856   2.078   6.699   6.415 -0.2244  0.7694 -1.7180
10026SOL    HW238857   1.940   6.676   6.471  0.6615  0.6288  0.5058
10027SOL     OW38858   4.976   6.311  11.585 -0.5824 -0.4359 -0.6376
10027SOL    HW138859   4.975   6.400  11.621  1.4426 -0.0915 -1.3400
10027SOL    HW238860   4.898   6.308  11.529  0.0913  1.4425 -1.7852
10028SOL     OW38861   2.115   6.389   1.837  0.3911 -0.4102 -0.0804
10028SOL    HW138862   2.120   6.370   1.931 -1.6440 -0.3172  0.0840
10028SOL    HW238863   2.166   6.318   1.797  0.6661 -0.8805  1.0392
10029SOL     OW38864   3.808   4.290   9.825  0.4239  0.0578 -0.7553
10029SOL    HW138865   3.844   4.284   9.736 -0.8707  1.5905 -1.4344
10029SOL    HW238866   3.719   4.322   9.812 -0.6728 -2.0524  0.9612
10030SOL     OW38867   2.193   9.474   0.939  0.4914 -0.3044  0.2132
10030SOL    HW138868   2.175   9.423   1.017  1.6782 -0.5894  0.3174
10030SOL    HW238869   2.121   9.454   0.880 -0.6386  0.2317  1.3720
10031SOL     OW38870   8.262   0.678   3.816  0.1967 -0.1455 -0.2802
10031SOL    HW138871   8.177   0.717   3.796 -0.9819 -2.0731  0.6438
10031SOL    HW238872   8.276   0.699   3.909 -0.9241 -2.5122  0.5248
10032SOL     OW38873  12.342   0.131  12.307  0.1152 -0.0853 -0.0460
10032SOL    HW138874  12.375   0.137  12.397  1.8048 -0.3354 -0.6011
10032SOL    HW238875  12.327   0.038  12.292  3.3270 -0.5760 -1.0927
10033SOL     OW38876   3.692   9.414   9.802 -0.2039  0.8194  0.3335
10033SOL    HW138877   3.752   9.344   9.830 -1.0358 -0.0721 -0.0589
10033SOL    HW238878   3.605   9.380   9.822 -0.6543  1.4305 -0.5560
10034SOL     OW38879  12.519  12.444   4.449 -0.6492  0.1872  0.2919
10034SOL    HW138880  12.521  12.454   4.544  2.2825 -0.6632  0.4286
10034SOL    HW238881  12.559  12.524   4.415 -0.5995 -0.0151 -0.1473
10035SOL     OW38882   9.227   0.448   8.993  0.1602  0.0658 -0.1147
10035SOL    HW138883   9.145   0.495   9.006  0.2649  0.3209 -0.3629
10035SOL    HW238884   9.201   0.363   8.956  0.0548  0.4453 -0.9419
10036SOL     OW38885   5.252   2.241   5.203 -0.1499  0.3057  0.0784
10036SOL    HW138886   5.302   2.210   5.279  1.0972  0.7503 -0.5246
10036SOL    HW238887   5.316   2.239   5.131 -1.6907 -1.6719 -1.3576
10037SOL     OW38888   5.747   0.014   4.590  0.0314  0.2646 -0.0465
10037SOL    HW138889   5.691  -0.055   4.625  0.0689  0.3356  0.1537
10037SOL    HW238890   5.720   0.093   4.637  0.6847  0.1921  0.4546
10038SOL     OW38891  10.917   5.446  12.413  0.4993  0.6760  0.3588
10038SOL    HW138892  10.825   5.456  12.388  0.8584 -2.4780 -3.1053
10038SOL    HW238893  10.915   5.408  12.500 -1.4984  0.2049  0.1397
10039SOL     OW38894   8.851  11.232  11.186 -0.1642 -0.1215  0.3754
10039SOL    HW138895   8.820  11.267  11.270  0.3623 -1.1781  1.0225
10039SOL    HW238896   8.863  11.310  11.131 -1.2878  0.5260  1.0009
10040SOL     OW38897   2.028  10.034   4.698  0.3037  0.0557  0.0642
10040SOL    HW138898   2.112  10.040   4.743  1.7794 -1.5510 -2.2669
10040SOL    HW238899   2.035  10.094   4.624 -1.0199  0.6427  0.3785
10041SOL     OW38900   0.378   9.298   5.342  0.0475 -0.6789 -0.1109
10041SOL    HW138901   0.470   9.291   5.366 -0.0166  0.7943  0.7197
10041SOL    HW238902   0.377   9.344   5.258  0.0663  1.6955  1.0778
10042SOL     OW38903  11.679   5.904   2.432 -0.0332 -0.1596 -0.5897
10042SOL    HW138904  11.702   5.819   2.396 -1.6391  0.2483 -2.8108
10042SOL    HW238905  11.750   5.962   2.405  0.5619 -0.5751  0.0604
10043SOL     OW38906  10.047   1.140  10.025 -0.6578  0.3996 -0.3664
10043SOL    HW138907  10.116   1.130  10.091  0.2136  1.4385 -1.0699
10043SOL    HW238908   9.983   1.073  10.046  0.6512 -0.7090  0.2408
10044SOL     OW38909  12.604   0.857   5.165  0.5102 -0.7077 -0.5166
10044SOL    HW138910  12.625   0.864   5.072  2.6268 -2.0043 -0.2181
10044SOL    HW238911  12.542   0.784   5.170  1.1124 -1.2478 -0.8386
10045SOL     OW38912   6.906   8.183   4.092 -0.1123 -0.6744 -1.3254
10045SOL    HW138913   6.828   8.224   4.130  1.7258 -0.3761  2.5353
10045SOL    HW238914   6.875   8.098   4.061 -2.0437 -0.4333 -0.2268
10046SOL     OW38915   0.239   4.277   1.954  0.4451 -0.2616 -0.2304
10046SOL    HW138916   0.218   4.187   1.930 -0.9157 -0.6018  1.9312
10046SOL    HW238917   0.157   4.313   1.989  1.3059  1.3461  0.2648
10047SOL     OW38918   9.215   7.520   3.651 -0.0556  0.1403  0.2258
10047SOL    HW138919   9.150   7.589   3.637  0.9830  1.0456 -0.2755
10047SOL    HW238920   9.272   7.554   3.719  1.0276  0.1998 -0.6842
10048SOL     OW38921   6.342   8.322   1.658 -0.3981  0.4376  0.0126
10048SOL    HW138922   6.337   8.277   1.574  0.3150 -0.1059  0.2479
10048SOL    HW238923   6.322   8.254   1.722 -2.3117  1.1427  0.2429
10049SOL     OW38924  12.009  12.106  12.441  0.6352 -0.7410 -0.6399
10049SOL    HW138925  12.087  12.056  12.464  1.2845  0.6361  0.3036
10049SOL    HW238926  11.961  12.117  12.523 -0.4794 -1.3904 -1.1699
10050SOL     OW38927   8.243   3.272   9.798 -0.0364 -0.1209  0.3423
10050SOL    HW138928   8.182   3.277   9.724  0.9121  0.4951 -0.4107
10050SOL    HW238929   8.186   3.262   9.875 -1.0075 -1.8728 -0.5442
10051SOL     OW38930   7.394   6.349   1.891  0.5448  1.0225  0.3538
10051SOL    HW138931   7.406   6.274   1.833 -0.4550  1.2655 -0.1994
10051SOL    HW238932   7.481   6.390   1.896  0.9168  0.2865  0.0215
10052SOL     OW38933   9.144   4.885   6.154 -0.1910 -0.5430  0.1806
10052SOL    HW138934   9.183   4.966   6.120 -0.4368 -1.2420 -1.9175
10052SOL    HW238935   9.177   4.878   6.243  2.3250  0.2758 -0.6129
10053SOL     OW38936  11.501  11.057   2.584  0.4754  0.0989 -0.2056
10053SOL    HW138937  11.593  11.075   2.602  0.4844  0.6337 -0.7279
10053SOL    HW238938  11.486  11.094   2.497 -0.6792  1.5992  0.5861
10054SOL     OW38939   9.496   0.695  11.302 -0.0136  0.2020 -0.1087
10054SOL    HW138940   9.420   0.731  11.258 -0.8504 -1.7632 -0.4039
10054SOL    HW238941   9.460   0.642  11.373  0.9617 -1.7515 -0.9867
10055SOL     OW38942   0.601   4.374   6.563 -0.3135 -0.7243  0.1636
10055SOL    HW138943   0.667   4.329   6.615 -1.1928  0.7346  2.7372
10055SOL    HW238944   0.641   4.459   6.542  0.2295 -1.4692 -2.1370
10056SOL     OW38945   2.383  12.538   3.048 -0.3227  0.3124  0.5123
10056SOL    HW138946   2.429  12.565   3.127  0.9731 -0.0586 -0.0927
10056SOL    HW238947   2.343  12.454   3.071  1.0931 -0.4099  0.4127
10057SOL     OW38948   9.255   6.059   4.385 -0.2245 -0.1916 -0.0139
10057SOL    HW138949   9.175   6.038   4.433  0.4304 -0.6706  0.8895
10057SOL    HW238950   9.326   6.034   4.443  0.6249  1.9740 -0.0231
10058SOL     OW38951   9.862  11.809  11.092  0.2631 -0.1131  0.5705
10058SOL    HW138952   9.957  11.821  11.094  0.1208  1.1227  1.0818
10058SOL    HW238953   9.847  11.730  11.144  0.9384  0.3447  1.4959
10059SOL     OW38954   1.458   1.402   2.417 -0.1438  0.7313 -0.1579
10059SOL    HW138955   1.391   1.362   2.472  0.6602  0.8686  0.9440
10059SOL    HW238956   1.509   1.457   2.476  0.4726  1.2331 -1.1232
10060SOL     OW38957   8.528   5.380   8.195 -0.2522  0.5202  0.2893
10060SOL    HW138958   8.477   5.375   8.114 -0.7728  3.8695  0.2741
10060SOL    HW238959   8.618   5.397   8.166 -0.1258  0.0847  0.4138
10061SOL     OW38960   4.766   1.087   8.040  0.0114  0.2587 -0.1912
10061SOL    HW138961   4.847   1.137   8.028 -0.4466  1.3948  1.0685
10061SOL    HW238962   4.703   1.130   7.982 -0.1274  0.5231  0.1500
10062SOL     OW38963  11.815  11.026   8.459 -0.6919  0.4036 -0.2021
10062SOL    HW138964  11.781  11.108   8.495 -0.1566  0.0957  1.0257
10062SOL    HW238965  11.740  10.967   8.459 -1.1499  0.9406 -1.3400
10063SOL     OW38966   8.923   1.305   6.460  0.1040 -0.2318 -0.2184
10063SOL    HW138967   8.873   1.362   6.518 -2.1429 -0.5109 -1.7651
10063SOL    HW238968   8.997   1.359   6.431 -0.8744  1.2329 -0.0902
10064SOL     OW38969   4.268   0.603   2.031  0.0599 -0.5337 -0.6002
10064SOL    HW138970   4.214   0.560   1.965  0.4576  0.4711 -1.6031
10064SOL    HW238971   4.355   0.608   1.991  0.4544 -0.4640  0.2520
10065SOL     OW38972  10.558   2.503   2.101 -0.5420  0.1779  0.1744
10065SOL    HW138973  10.622   2.452   2.151  1.4383  2.2974 -0.0251
10065SOL    HW238974  10.571   2.475   2.010 -1.7755 -1.2584  0.4157
10066SOL     OW38975   5.796  10.413   9.279  0.1928 -0.4892 -0.5165
10066SOL    HW138976   5.701  10.422   9.270 -0.3862 -2.1789  2.3525
10066SOL    HW238977   5.825  10.496   9.317 -0.2886 -0.2696 -0.6245
10067SOL     OW38978   8.383   0.377   4.219  0.2519  0.1895  0.2623
10067SOL    HW138979   8.289   0.388   4.200  0.3951  1.0934  0.0540
10067SOL    HW238980   8.421   0.462   4.199  1.4558 -0.7271 -1.6921
10068SOL     OW38981   2.031   6.218   0.169 -0.1759 -0.0653 -0.0629
10068SOL    HW138982   2.033   6.287   0.235 -0.7380  0.3682 -0.4877
10068SOL    HW238983   1.978   6.149   0.208  0.4496 -0.2911  0.3938
10069SOL     OW38984  10.724   8.669   3.699  0.1622 -0.3493 -0.2600
10069SOL    HW138985  10.648   8.652   3.644 -0.6546  0.5230  0.5596
10069SOL    HW238986  10.728   8.595   3.758  0.0104 -0.4483 -0.3732
10070SOL     OW38987   2.202   3.943   1.198  0.1183 -0.2465  0.3340
10070SOL    HW138988   2.194   4.016   1.137 -0.7010 -0.2444  0.4412
10070SOL    HW238989   2.112   3.916   1.216  0.3610 -0.5071  1.2258
10071SOL     OW38990   1.039   9.012   2.149  0.0919 -0.4716 -0.1288
10071SOL    HW138991   1.061   9.070   2.222  1.2164  0.0260 -0.8243
10071SOL    HW238992   1.064   8.925   2.179 -1.3888 -0.6006  0.8358
10072SOL     OW38993   7.798   4.917   9.845 -0.6596 -0.4625  0.4100
10072SOL    HW138994   7.745   4.881   9.774 -2.2880  0.1375  1.2722
10072SOL    HW238995   7.756   5.001   9.866  0.3574 -0.1847  1.4428
10073SOL     OW38996   4.745   4.850   4.386 -0.2543 -0.5388  0.3655
10073SOL    HW138997   4.666   4.852   4.439 -2.0616 -0.1607 -2.1397
10073SOL    HW238998   4.748   4.762   4.350  0.2530 -0.4336  0.1342
10074SOL     OW38999   5.117   1.673  12.108  0.0203 -0.0382 -0.4983
10074SOL    HW139000   5.079   1.614  12.043  0.0543 -0.5894 -0.0287
10074SOL    HW239001   5.180   1.726  12.059  1.4987 -1.7771 -0.6161
10075SOL     OW39002   5.945   3.617   4.480 -0.4988 -0.4295 -0.5620
10075SOL    HW139003   5.983   3.578   4.400 -1.3933  0.9209 -1.6913
10075SOL    HW239004   6.020   3.645   4.531  0.0797 -0.7099 -1.2426
10076SOL     OW39005   8.753  10.836  10.823 -0.7728 -0.1097 -0.1289
10076SOL    HW139006   8.718  10.919  10.792 -0.7634  0.5081  1.4822
10076SOL    HW239007   8.805  10.858  10.900 -2.4451 -1.8075  1.6003
10077SOL     OW39008   5.009   1.877   3.803  0.2652 -0.2568 -0.2680
10077SOL    HW139009   4.982   1.795   3.846  0.8921 -1.1968 -1.5945
10077SOL    HW239010   5.091   1.900   3.847 -1.0326  0.9394  1.6632
10078SOL     OW39011   2.882   5.845   9.343 -0.1988  0.4405 -0.0046
10078SOL    HW139012   2.941   5.769   9.346  0.1029  0.6365 -0.6103
10078SOL    HW239013   2.888   5.875   9.252 -3.1086 -1.0017 -0.7748
10079SOL     OW39014   6.471   1.477   5.699 -0.1802 -0.1643 -0.7778
10079SOL    HW139015   6.453   1.400   5.645  0.3905  0.3585 -1.7314
10079SOL    HW239016   6.416   1.465   5.776 -1.1811 -0.8211 -1.5665
10080SOL     OW39017   5.611  11.583   8.953 -0.4916 -0.4287  0.0581
10080SOL    HW139018   5.609  11.572   8.858  0.9415  0.6400 -0.1361
10080SOL    HW239019   5.519  11.576   8.980 -1.0103 -0.0194 -1.4973
10081SOL     OW39020  10.754   0.802   5.074 -0.3671  0.1258  0.0462
10081SOL    HW139021  10.701   0.751   5.013  1.1170  0.9403 -2.0426
10081SOL    HW239022  10.760   0.747   5.152 -0.5891 -1.9468 -1.3114
10082SOL     OW39023  10.069   4.806   6.514  0.3687 -0.0149 -0.3810
10082SOL    HW139024  10.039   4.770   6.597  1.0809 -0.0029 -0.1123
10082SOL    HW239025   9.993   4.799   6.456 -0.9252  2.1644  0.9105
10083SOL     OW39026   3.706  11.543  10.902  0.1440 -0.1052  0.3150
10083SOL    HW139027   3.643  11.509  10.837 -1.1228 -0.0930  1.4959
10083SOL    HW239028   3.655  11.552  10.982  1.9652 -1.3641  1.6996
10084SOL     OW39029   6.574   6.736  12.433  0.2570  0.1062  0.0767
10084SOL    HW139030   6.518   6.718  12.509 -0.7634 -0.6846 -0.8201
10084SOL    HW239031   6.514   6.771  12.367  0.9292 -0.2491 -0.7384
10085SOL     OW39032  11.754   9.494   5.180 -0.0608  0.1729  0.0610
10085SOL    HW139033  11.846   9.510   5.203 -0.1270  0.7606 -0.0660
10085SOL    HW239034  11.749   9.400   5.165  0.2687 -0.0528  1.2287
10086SOL     OW39035  10.327   4.714   6.546 -0.2799 -0.3066 -0.2913
10086SOL    HW139036  10.234   4.731   6.532 -0.3266  1.5648  1.6985
10086SOL    HW239037  10.332   4.675   6.634  0.8986  1.6636  0.5926
10087SOL     OW39038   3.242   3.451   2.107  0.2015  0.5167 -0.3911
10087SOL    HW139039   3.154   3.477   2.078  0.5291  0.1619 -1.7863
10087SOL    HW239040   3.254   3.363   2.073 -0.1035 -0.7583  2.5635
10088SOL     OW39041  10.500   1.629   9.372 -0.4468 -0.2081  0.1205
10088SOL    HW139042  10.411   1.659   9.391 -0.4828 -0.2493  0.0192
10088SOL    HW239043  10.518   1.659   9.284 -0.7463 -1.0728 -0.2494
10089SOL     OW39044  10.577   6.515  10.328 -0.5901 -0.4406  0.7593
10089SOL    HW139045  10.567   6.607  10.305 -0.7599 -0.5541  0.3744
10089SOL    HW239046  10.585   6.469  10.244  0.2319 -0.6956  0.9708
10090SOL     OW39047   7.938  10.591   0.771 -0.0635 -0.3042  0.0160
10090SOL    HW139048   7.937  10.686   0.765 -0.0228 -0.3601 -1.0055
10090SOL    HW239049   7.992  10.562   0.698  1.8192 -1.0446  1.6065
10091SOL     OW39050   7.328   0.887   4.876  0.7379 -0.7553  0.1527
10091SOL    HW139051   7.239   0.869   4.846 -0.0575 -0.5318  2.1771
10091SOL    HW239052   7.319   0.967   4.930  2.1594 -0.7142  0.3642
10092SOL     OW39053   4.848  12.520   8.651  0.3248 -0.2821  0.1797
10092SOL    HW139054   4.907  12.595   8.640 -0.2526  0.1872  0.2235
10092SOL    HW239055   4.879  12.455   8.588 -0.9870  1.1443 -2.0540
10093SOL     OW39056   2.913   5.985   8.082  0.4100 -0.3858  0.8987
10093SOL    HW139057   2.909   6.056   8.018  0.5436 -2.1330 -1.1995
10093SOL    HW239058   3.002   5.990   8.117  1.1274 -0.7154 -0.7706
10094SOL     OW39059  12.062   9.265   8.125  0.4951 -0.2295 -0.1319
10094SOL    HW139060  12.153   9.237   8.129  0.9403  1.2286  0.9213
10094SOL    HW239061  12.066   9.361   8.128 -1.0385 -0.1013 -1.0079
10095SOL     OW39062   0.401   8.398   6.462  0.0553  0.2526  0.2143
10095SOL    HW139063   0.316   8.360   6.484 -0.1538 -0.3378 -1.4926
10095SOL    HW239064   0.445   8.409   6.546 -0.7284 -1.7392  0.9348
10096SOL     OW39065   8.104   2.413   1.740  0.2988 -0.4554 -0.0630
10096SOL    HW139066   8.052   2.434   1.817 -1.8875 -0.4547 -1.4490
10096SOL    HW239067   8.115   2.496   1.694  1.7974 -0.4103  0.3456
10097SOL     OW39068  10.913   6.635   2.098  0.0876 -0.3761  0.4163
10097SOL    HW139069  10.862   6.672   2.025  1.9532  3.9095  0.9436
10097SOL    HW239070  10.874   6.549   2.113 -3.9446  0.7048 -2.0569
10098SOL     OW39071   4.941   5.897  10.812 -0.1542 -0.1396 -0.0818
10098SOL    HW139072   4.992   5.824  10.776  2.4985  1.2060  0.6600
10098SOL    HW239073   4.927   5.873  10.904 -1.4015 -0.7468 -0.4109
10099SOL     OW39074   6.356   8.728   4.274 -0.0083  0.1172 -0.2108
10099SOL    HW139075   6.373   8.808   4.223  0.4616 -0.3475 -0.8045
10099SOL    HW239076   6.439   8.710   4.318  0.1243 -0.4412 -0.6656
10100SOL     OW39077   9.291   7.594   0.270  0.1561  0.0527  0.2917
10100SOL    HW139078   9.376   7.613   0.231 -0.2092 -1.1469 -1.1657
10100SOL    HW239079   9.307   7.599   0.365  0.9838  3.4348  0.1130
10101SOL     OW39080  11.260  11.800   5.837  0.5702  0.4459  0.4432
10101SOL    HW139081  11.311  11.719   5.825  1.0336  1.0440 -2.3606
10101SOL    HW239082  11.323  11.863   5.873  1.0156  0.3467 -0.1463
10102SOL     OW39083  12.012   2.694  11.876 -0.5811 -0.0609  0.5736
10102SOL    HW139084  11.925   2.729  11.860  0.7652  2.7795 -1.2977
10102SOL    HW239085  12.028   2.712  11.969 -0.8004  2.4953  0.1855
10103SOL     OW39086   3.822   4.909   9.878  0.4432  0.0841 -0.1312
10103SOL    HW139087   3.843   5.000   9.900  0.0667 -0.1149  1.1677
10103SOL    HW239088   3.871   4.857   9.941  0.0710 -0.5875 -0.3834
10104SOL     OW39089  10.147   2.305   1.663  0.4393  0.0328 -0.6159
10104SOL    HW139090  10.135   2.255   1.744  1.1570 -2.2230 -1.8316
10104SOL    HW239091  10.116   2.246   1.594 -1.2728  2.3374 -1.9650
10105SOL     OW39092   8.632   2.615   1.656  0.5258  0.1610  0.2587
10105SOL    HW139093   8.658   2.550   1.591 -1.1482 -2.4784  2.0632
10105SOL    HW239094   8.686   2.597   1.732  1.3022  2.1314  0.2339
10106SOL     OW39095  11.514  11.797   1.507 -0.6130  0.1791 -0.1949
10106SOL    HW139096  11.577  11.850   1.458 -1.4969  1.2550 -0.2234
10106SOL    HW239097  11.547  11.708   1.500  0.4678  0.6080 -0.8808
10107SOL     OW39098   4.105   7.913   9.957  0.2422  0.3292 -0.4944
10107SOL    HW139099   4.096   7.820   9.937  1.8884 -0.4012  1.6868
10107SOL    HW239100   4.027   7.954   9.919 -0.8329 -2.0246 -0.9943
10108SOL     OW39101   7.169   4.252  11.532  0.2618 -0.5070  0.4563
10108SOL    HW139102   7.172   4.196  11.455 -1.5189 -1.2701  0.8944
10108SOL    HW239103   7.194   4.195  11.605  1.5158  0.0987  0.5207
10109SOL     OW39104  11.112   0.737   3.344 -0.6859  0.1608  0.4555
10109SOL    HW139105  11.051   0.664   3.330 -1.3501  0.7702  0.0576
10109SOL    HW239106  11.083   0.804   3.282  1.4253 -0.1336 -0.9121
10110SOL     OW39107   4.458   9.761   3.298 -0.0619  0.6394 -0.6341
10110SOL    HW139108   4.481   9.705   3.224 -2.0788 -2.0921  0.5837
10110SOL    HW239109   4.530   9.749   3.360 -0.0662  0.0229 -0.7369
10111SOL     OW39110   0.229   8.335  11.049 -0.1734  0.5002  0.6391
10111SOL    HW139111   0.147   8.357  11.003 -0.5482 -0.6166  0.7445
10111SOL    HW239112   0.298   8.365  10.990 -0.6608  0.8895  0.2582
10112SOL     OW39113   5.954   4.080   6.040 -0.3544  0.2498 -0.3605
10112SOL    HW139114   5.954   4.003   6.096  1.8100 -1.2011 -2.1690
10112SOL    HW239115   5.863   4.091   6.012 -1.1156 -0.1321  1.8112
10113SOL     OW39116   7.115   0.933   5.586 -0.5928  0.2975 -0.3045
10113SOL    HW139117   7.175   0.862   5.563 -1.4624 -0.8406  0.8195
10113SOL    HW239118   7.167   0.990   5.645 -0.8079 -1.1283  1.3499
10114SOL     OW39119  11.809   3.097   8.849  0.4551  0.4700  0.1027
10114SOL    HW139120  11.774   3.011   8.874  1.6305 -0.2215 -0.5156
10114SOL    HW239121  11.895   3.101   8.893  0.2106  1.5429  0.5110
10115SOL     OW39122   8.591   4.196   5.543 -0.0979  0.5957  0.1124
10115SOL    HW139123   8.644   4.225   5.469  1.4939  1.2077  1.4418
10115SOL    HW239124   8.581   4.273   5.597  1.3137 -0.4799  2.0169
10116SOL     OW39125   5.026   3.379   2.206 -0.3960  0.0845  0.2441
10116SOL    HW139126   4.940   3.372   2.248 -0.3074  1.8992  0.8331
10116SOL    HW239127   5.006   3.402   2.115 -0.5462  1.1420  0.5336
10117SOL     OW39128   6.710   3.568   1.322  0.0191 -1.0127  0.1231
10117SOL    HW139129   6.778   3.631   1.348  0.4581 -1.9546  1.3545
10117SOL    HW239130   6.747   3.483   1.345 -1.5751 -1.5456  0.7744
10118SOL     OW39131   5.640   0.611   2.419  0.1439 -0.5984  0.3102
10118SOL    HW139132   5.708   0.554   2.455  0.9243 -1.2158 -1.9807
10118SOL    HW239133   5.688   0.677   2.369 -0.7809  1.7276  2.2697
10119SOL     OW39134   4.641   4.069  10.387  0.0909 -0.9235  0.1922
10119SOL    HW139135   4.702   4.039  10.320  1.7474 -0.8109  1.6095
10119SOL    HW239136   4.605   4.151  10.351  3.1513  0.7549  0.6004
10120SOL     OW39137   7.842   8.746   4.911  0.4323 -0.0168  0.2228
10120SOL    HW139138   7.841   8.736   4.815  1.1381 -0.0123  0.2106
10120SOL    HW239139   7.855   8.658   4.944  3.6367  0.3319  0.1969
10121SOL     OW39140   2.346   5.384   5.610 -0.3373 -0.2847 -0.5929
10121SOL    HW139141   2.333   5.479   5.611 -1.0440 -0.3511 -1.5530
10121SOL    HW239142   2.258   5.348   5.617  0.0821 -0.9710  2.9308
10122SOL     OW39143   3.328   4.444   4.468  0.0257  0.3186 -0.2822
10122SOL    HW139144   3.342   4.360   4.423  0.0142 -0.7809  1.6364
10122SOL    HW239145   3.235   4.462   4.456  0.0284  0.0523 -0.7271
10123SOL     OW39146   1.521  10.316   6.394  0.6077 -1.0942  0.3783
10123SOL    HW139147   1.444  10.299   6.339  0.3758 -1.6351  0.8478
10123SOL    HW239148   1.558  10.229   6.409  1.1849 -0.8563  0.3354
10124SOL     OW39149   2.552   3.291  10.818 -0.4767  0.1113  0.1892
10124SOL    HW139150   2.596   3.272  10.735 -0.2116  2.0831 -0.1522
10124SOL    HW239151   2.587   3.376  10.845 -1.9107  0.3480  1.4045
10125SOL     OW39152   5.283   8.669   0.129 -0.0236  0.4914 -0.7762
10125SOL    HW139153   5.310   8.756   0.158  0.3310  0.1808 -0.1459
10125SOL    HW239154   5.190   8.677   0.111 -0.3758  0.5973  0.9306
10126SOL     OW39155   1.750   8.311   9.654 -0.1510 -0.4271  0.4692
10126SOL    HW139156   1.703   8.355   9.584 -0.2988 -0.5863  0.4703
10126SOL    HW239157   1.769   8.381   9.717 -0.4444 -0.3772  0.5012
10127SOL     OW39158   8.804   8.018  12.559  0.2973 -0.3446 -0.0787
10127SOL    HW139159   8.720   8.047  12.523 -0.1273 -0.6163  0.6656
10127SOL    HW239160   8.792   7.925  12.576  0.5284 -0.2512  0.6271
10128SOL     OW39161   2.526   0.944   9.335  0.0129 -0.2686  0.3505
10128SOL    HW139162   2.482   0.972   9.255  3.0921 -0.4210 -1.5778
10128SOL    HW239163   2.507   1.013   9.398 -0.8240  0.9508 -1.1713
10129SOL     OW39164   7.856   1.139   9.337  0.4464  0.7480  0.1124
10129SOL    HW139165   7.857   1.135   9.242 -1.0261 -1.5704  0.1267
10129SOL    HW239166   7.857   1.233   9.357  1.1080  1.2687 -2.1571
10130SOL     OW39167   8.434   5.880   9.378  0.2627 -0.5799 -0.2415
10130SOL    HW139168   8.491   5.854   9.305  0.0030 -0.5493 -0.4550
10130SOL    HW239169   8.346   5.858   9.348  0.2005 -1.0407  0.2715
10131SOL     OW39170  11.472  10.375   6.879  0.4213 -0.1225 -0.5570
10131SOL    HW139171  11.532  10.371   6.953  0.1922  0.9796 -0.2871
10131SOL    HW239172  11.422  10.294   6.883  0.1120  0.1094  0.7687
10132SOL     OW39173   2.564   4.106   4.279 -0.0070  0.6001 -0.5630
10132SOL    HW139174   2.516   4.069   4.205 -0.2304  0.3830 -0.3133
10132SOL    HW239175   2.627   4.038   4.303 -0.2804  0.4611 -0.2323
10133SOL     OW39176   2.056   1.632   9.120 -0.8752  0.3561  0.1537
10133SOL    HW139177   2.064   1.550   9.169 -0.2236 -0.4746 -1.2883
10133SOL    HW239178   1.963   1.637   9.097 -1.1031  0.5290  1.0744
10134SOL     OW39179   3.970   3.520   7.009 -0.0634  0.1842 -0.1268
10134SOL    HW139180   3.974   3.449   7.073 -0.7662  0.5978  0.3985
10134SOL    HW239181   3.944   3.597   7.061 -0.4920  0.5612 -0.8811
10135SOL     OW39182   3.409   2.304   8.133 -0.1879  0.0641 -0.1117
10135SOL    HW139183   3.479   2.258   8.086  1.9205  1.4326  1.4790
10135SOL    HW239184   3.413   2.268   8.222 -0.1208  1.5617  0.5190
10136SOL     OW39185   9.731   1.375  11.063  0.0038  0.3401  0.3675
10136SOL    HW139186   9.676   1.385  11.141  1.6703 -1.0844  1.8256
10136SOL    HW239187   9.761   1.284  11.066 -0.6792 -0.0989 -2.5566
10137SOL     OW39188   5.641   3.494  11.672  0.1447  0.1377  0.1794
10137SOL    HW139189   5.609   3.429  11.734  3.0027 -0.5725  1.0598
10137SOL    HW239190   5.687   3.558  11.726  3.1855 -0.7857 -1.1098
10138SOL     OW39191   5.959  12.152   7.013 -0.1164  0.1610 -0.4150
10138SOL    HW139192   5.952  12.189   6.925  0.0567  0.2099 -0.4091
10138SOL    HW239193   6.033  12.091   7.007  0.5414  0.9014 -0.0515
10139SOL     OW39194   3.936   7.134   4.129  0.2086 -0.0088 -0.0598
10139SOL    HW139195   4.019   7.179   4.112  1.1608 -0.9283  1.8582
10139SOL    HW239196   3.946   7.048   4.089  0.3470 -0.2639  0.5155
10140SOL     OW39197   3.456   5.239   0.065  0.2238 -0.1890  0.5926
10140SOL    HW139198   3.435   5.160   0.014  0.4980 -0.3678  0.7571
10140SOL    HW239199   3.373   5.288   0.068  0.4770  0.3781 -0.9834
10141SOL     OW39200  10.473   5.569  11.850  0.6996  0.4320 -0.3572
10141SOL    HW139201  10.424   5.498  11.891  1.4150 -0.6534 -1.3310
10141SOL    HW239202  10.465   5.642  11.911 -0.3845 -0.3509  0.4788
10142SOL     OW39203   0.136   9.604   0.067 -0.2495  0.1187  0.2957
10142SOL    HW139204   0.198   9.652   0.121  1.6563 -2.2859  0.3780
10142SOL    HW239205   0.100   9.537   0.124 -1.0774 -0.0871 -0.4408
10143SOL     OW39206   8.428   5.728   8.107  0.7568  0.2543  0.1887
10143SOL    HW139207   8.379   5.756   8.185  0.3963  1.0434 -0.3150
10143SOL    HW239208   8.520   5.744   8.130  0.6958 -0.0244  0.6518
10144SOL     OW39209  11.558   7.042   2.621  0.0494 -0.7249  0.1738
10144SOL    HW139210  11.518   7.005   2.543  1.1176 -0.8793 -0.3267
10144SOL    HW239211  11.573   7.134   2.600 -1.1322 -0.3658  0.8182
10145SOL     OW39212   2.077   1.947   1.057 -0.1673  0.4469  0.4154
10145SOL    HW139213   1.984   1.943   1.032 -0.5032 -2.0851  1.7727
10145SOL    HW239214   2.086   2.032   1.100 -2.1308  0.3214  1.1881
10146SOL     OW39215   5.323   4.604  10.339 -0.0319 -0.5981 -0.3319
10146SOL    HW139216   5.394   4.587  10.277 -0.6611  0.9463 -1.5374
10146SOL    HW239217   5.252   4.638  10.286 -1.4197 -1.3376  0.9657
10147SOL     OW39218   2.709   3.222   0.647 -0.3170  0.5969  0.2475
10147SOL    HW139219   2.752   3.143   0.682 -1.2191  0.5100  1.2246
10147SOL    HW239220   2.710   3.210   0.552  0.1868 -0.2551  0.3473
10148SOL     OW39221  10.112   5.077  11.907 -0.2352  0.3503  0.1767
10148SOL    HW139222  10.148   5.029  11.982  0.6909  0.7633  0.0127
10148SOL    HW239223  10.075   5.156  11.945  3.5842  2.5033 -0.0409
10149SOL     OW39224   6.806   7.187   4.825  0.2150 -0.2607 -0.1299
10149SOL    HW139225   6.739   7.236   4.777  1.2188  0.9708 -0.3221
10149SOL    HW239226   6.801   7.221   4.914  1.1137  0.4352 -0.3306
10150SOL     OW39227   3.446   3.881   0.943  0.5254  0.4369  0.0742
10150SOL    HW139228   3.407   3.795   0.926 -0.7901  1.2841 -1.3700
10150SOL    HW239229   3.470   3.914   0.857 -0.9065  2.3867  0.3691
10151SOL     OW39230  12.033   4.257   0.321  0.1876  0.6368  0.0799
10151SOL    HW139231  11.981   4.334   0.298 -1.6722 -0.2106  1.2110
10151SOL    HW239232  11.995   4.186   0.269  1.4274  0.3107 -0.4277
10152SOL     OW39233   4.696   1.866   9.075 -0.0689  0.3823 -0.0878
10152SOL    HW139234   4.687   1.867   8.980 -0.8123  0.1511 -0.0217
10152SOL    HW239235   4.640   1.795   9.104  0.3099  0.3242  0.5108
10153SOL     OW39236   0.149   6.706   9.099  0.1611  0.1960 -0.5333
10153SOL    HW139237   0.244   6.690   9.098  0.1130 -0.1231 -0.0911
10153SOL    HW239238   0.110   6.618   9.098 -0.1727  0.2911 -2.8920
10154SOL     OW39239   5.440  10.819   7.110  0.0123 -0.3816  0.1438
10154SOL    HW139240   5.428  10.891   7.049 -0.9147  0.0626  0.8309
10154SOL    HW239241   5.366  10.825   7.170  0.0114 -1.7970  0.3295
10155SOL     OW39242  11.676   4.535   0.700  0.0151  0.3019 -0.3098
10155SOL    HW139243  11.617   4.597   0.658  0.3507  0.3393 -0.7307
10155SOL    HW239244  11.750   4.527   0.640  0.9248  1.0307  0.6714
10156SOL     OW39245   3.315   9.452  10.174  0.6699  0.4485 -0.0510
10156SOL    HW139246   3.371   9.400  10.116 -0.1323 -1.8679  1.1270
10156SOL    HW239247   3.328   9.413  10.261 -0.6705  1.6457  0.7256
10157SOL     OW39248   5.583   2.968   2.476  0.2797  0.1974  0.0904
10157SOL    HW139249   5.652   2.931   2.531  0.0220  0.4594  0.5970
10157SOL    HW239250   5.617   3.053   2.449  1.6382 -1.0203 -2.5153
10158SOL     OW39251   2.814   2.932   9.068 -0.1516 -0.1941 -0.0437
10158SOL    HW139252   2.903   2.904   9.046  0.6681  1.6786  0.6744
10158SOL    HW239253   2.799   2.896   9.156  1.6472  2.9557  1.7231
10159SOL     OW39254   4.177  12.321  11.913  0.1298 -0.4358 -0.0881
10159SOL    HW139255   4.105  12.372  11.951  0.1070 -0.4021 -0.1765
10159SOL    HW239256   4.142  12.285  11.832 -0.4850 -2.1953  0.9042
10160SOL     OW39257  10.293   5.628  11.596  0.4525  0.0926  0.4608
10160SOL    HW139258  10.321   5.596  11.682 -0.4052 -0.0915  0.6830
10160SOL    HW239259  10.348   5.704  11.579  0.9501 -0.1489  0.9597
10161SOL     OW39260   5.382   3.074   0.512  0.5030  0.1114  0.1357
10161SOL    HW139261   5.311   3.046   0.570  0.0324 -0.6219 -0.7757
10161SOL    HW239262   5.438   3.129   0.568  0.3196 -0.9428  1.4012
10162SOL     OW39263  10.763   0.865   1.982  0.0081 -0.9372 -0.2273
10162SOL    HW139264  10.801   0.793   2.033  1.0178 -0.8544 -0.8527
10162SOL    HW239265  10.811   0.942   2.010 -0.8290 -0.5431  0.1711
10163SOL     OW39266   2.858   3.385   2.747 -0.5804  0.0023 -0.2495
10163SOL    HW139267   2.881   3.454   2.685 -0.1369 -0.4003 -0.5387
10163SOL    HW239268   2.860   3.428   2.833  0.2960  0.2101 -0.3668
10164SOL     OW39269  10.215  12.538  11.730  0.4305  0.0814 -0.2689
10164SOL    HW139270  10.188  12.547  11.821  0.4462  2.0286 -0.4180
10164SOL    HW239271  10.289  12.477  11.733  0.4205  0.1102  1.0259
10165SOL     OW39272   9.202   4.155   5.151 -0.1038 -0.4482  0.0851
10165SOL    HW139273   9.236   4.145   5.062 -0.0432 -1.4017  0.2081
10165SOL    HW239274   9.225   4.074   5.195  0.3377  0.2378  1.1446
10166SOL     OW39275   7.383   9.766   2.596  0.3433 -0.4175  0.4114
10166SOL    HW139276   7.354   9.684   2.637 -1.9953  1.0658  1.9793
10166SOL    HW239277   7.331   9.774   2.517  0.8720 -0.6242  0.0363
10167SOL     OW39278   4.025   2.016   9.579 -0.3669 -0.5092 -0.2717
10167SOL    HW139279   4.111   2.055   9.559  0.0029 -1.5006 -0.7094
10167SOL    HW239280   4.028   1.999   9.673  0.9422 -2.8115 -0.6589
10168SOL     OW39281   2.734   5.017   6.795  0.1003  0.6399  0.3916
10168SOL    HW139282   2.790   5.092   6.813  0.9839 -0.0357  0.5628
10168SOL    HW239283   2.650   5.054   6.769  0.9744  1.7083 -1.0413
10169SOL     OW39284   4.701  10.127   6.682 -1.1202  0.1453 -1.0813
10169SOL    HW139285   4.733  10.211   6.714 -1.3929  0.3045 -1.2313
10169SOL    HW239286   4.650  10.091   6.755  2.8479 -2.1192  0.9783
10170SOL     OW39287  10.202   5.192  10.328 -0.4305 -0.5183 -0.0496
10170SOL    HW139288  10.202   5.173  10.235 -0.2774  0.6283 -0.3001
10170SOL    HW239289  10.295   5.198  10.352 -0.4684 -0.7594  0.1666
10171SOL     OW39290   5.596   3.295   3.739  0.0265  0.7183 -0.6771
10171SOL    HW139291   5.623   3.383   3.766 -1.0580  1.2287 -1.2121
10171SOL    HW239292   5.534   3.310   3.668 -0.7902 -0.4426 -0.2348
10172SOL     OW39293   3.289   4.017   1.108 -0.3330  0.6882 -0.0660
10172SOL    HW139294   3.269   4.102   1.069 -1.2181 -0.0095 -1.1896
10172SOL    HW239295   3.314   3.962   1.033 -1.7543 -0.5978  0.3582
10173SOL     OW39296   0.615  10.325   6.154  0.2111  0.1981 -0.0552
10173SOL    HW139297   0.572  10.283   6.080  0.1480 -0.5064  0.3764
10173SOL    HW239298   0.636  10.413   6.122  0.5033 -0.2107 -1.0224
10174SOL     OW39299   9.375  12.065   6.417 -0.6242 -0.9201  0.0441
10174SOL    HW139300   9.353  11.972   6.422  0.7431 -1.2380  0.6381
10174SOL    HW239301   9.466  12.066   6.389 -0.7223  0.2618 -0.2730
10175SOL     OW39302   1.642   1.022   6.677  0.2022 -0.4326  0.0935
10175SOL    HW139303   1.557   0.978   6.687 -0.1337  0.0324 -0.6612
10175SOL    HW239304   1.641   1.056   6.588  1.4010 -0.8778 -0.1052
10176SOL     OW39305   4.229   4.855  11.369 -0.3249 -0.3837  0.2565
10176SOL    HW139306   4.177   4.934  11.388 -0.9150 -0.6069 -0.3855
10176SOL    HW239307   4.278   4.878  11.290  0.2791 -0.3038  0.6539
10177SOL     OW39308   6.240  11.735   9.981  0.0380  0.1051  0.3322
10177SOL    HW139309   6.150  11.766   9.988 -1.7509 -3.6397 -2.6387
10177SOL    HW239310   6.259  11.695  10.066 -0.0367  2.9930  1.8332
10178SOL     OW39311   1.806   3.101   2.431  0.2056  0.7910 -0.0465
10178SOL    HW139312   1.783   3.177   2.378 -1.8402 -0.7625 -1.5570
10178SOL    HW239313   1.722   3.064   2.458  1.0250 -1.7521 -0.6529
10179SOL     OW39314   0.442   8.616   0.383  0.1742  0.3797  0.0697
10179SOL    HW139315   0.512   8.675   0.408  1.1574 -0.8746  0.3822
10179SOL    HW239316   0.388   8.667   0.323  2.1053  0.9797 -1.2586
10180SOL     OW39317   3.747   0.602   2.967 -0.2487  0.3624 -0.4690
10180SOL    HW139318   3.730   0.521   3.014 -2.1872  0.6498 -0.5789
10180SOL    HW239319   3.709   0.588   2.880  0.9340  0.7911 -1.0825
10181SOL     OW39320   6.412   4.733  11.895  0.5610  0.0724  0.4582
10181SOL    HW139321   6.339   4.727  11.956 -0.1816 -0.6337 -0.4630
10181SOL    HW239322   6.482   4.774  11.945 -0.4915  0.8551  1.3332
10182SOL     OW39323   1.459   6.065   3.493 -0.2810 -0.4853  0.4991
10182SOL    HW139324   1.540   6.086   3.445 -1.3379 -2.6025 -2.5373
10182SOL    HW239325   1.486   6.001   3.558  0.4181 -2.0166 -1.2012
10183SOL     OW39326   9.619   3.627   7.369  0.3580  0.1684  0.0417
10183SOL    HW139327   9.584   3.631   7.280 -0.0059 -3.2117 -0.0945
10183SOL    HW239328   9.597   3.539   7.399 -0.6754  1.5739  3.9931
10184SOL     OW39329   4.945   8.269  12.347  0.1032 -0.2698 -0.2469
10184SOL    HW139330   4.913   8.349  12.306  1.6746  0.5235 -0.0079
10184SOL    HW239331   4.876   8.204  12.331 -0.5335  0.7206 -1.7580
10185SOL     OW39332   9.471   2.133  11.704  0.4935  0.1516  0.0043
10185SOL    HW139333   9.486   2.209  11.760  0.7957  0.2250 -0.1765
10185SOL    HW239334   9.390   2.155  11.656 -1.7191 -1.3009  2.7739
10186SOL     OW39335   8.436   2.463   8.671 -0.0097 -0.3571  0.9241
10186SOL    HW139336   8.351   2.465   8.715 -1.0605  0.2199 -1.0178
10186SOL    HW239337   8.430   2.388   8.611 -0.2986  1.3770 -1.3081
10187SOL     OW39338   3.451   3.704   1.694 -0.0603  0.0662 -0.0823
10187SOL    HW139339   3.507   3.657   1.756 -0.4644  1.0900  1.0956
10187SOL    HW239340   3.384   3.640   1.669 -1.0984  0.1943  2.1359
10188SOL     OW39341   1.751  11.260   2.920  0.2271  0.0972  0.2205
10188SOL    HW139342   1.792  11.178   2.947  1.4575  1.0105  1.2372
10188SOL    HW239343   1.709  11.293   2.999 -0.1819  0.5066 -0.1632
10189SOL     OW39344   8.397  11.829   3.319 -0.6067 -0.1753  0.5194
10189SOL    HW139345   8.474  11.782   3.289 -1.0008 -1.1324  0.9559
10189SOL    HW239346   8.422  11.865   3.404  0.0846  1.4444 -0.3326
10190SOL     OW39347   4.021   8.118   7.200  0.4960  0.2209 -0.0200
10190SOL    HW139348   3.986   8.088   7.116  1.4789 -2.0915  0.3283
10190SOL    HW239349   3.989   8.054   7.263  1.7762  0.5287  0.9674
10191SOL     OW39350  11.031   5.641   6.943  0.1627  0.1517  0.2184
10191SOL    HW139351  11.110   5.594   6.915 -0.5427  0.6138 -2.8629
10191SOL    HW239352  11.064   5.715   6.993  1.5274 -0.9226  0.9981
10192SOL     OW39353   2.464   0.347   8.261  0.3855 -0.3850 -0.0168
10192SOL    HW139354   2.494   0.437   8.269 -2.3470  0.6385 -0.1733
10192SOL    HW239355   2.542   0.294   8.274  1.8687  1.9570  1.2003
10193SOL     OW39356  12.503   0.417  11.674 -0.1908  0.5557 -0.2198
10193SOL    HW139357  12.535   0.369  11.598  0.4214 -0.3590  0.6010
10193SOL    HW239358  12.567   0.487  11.687 -0.6412  1.1228 -0.9075
10194SOL     OW39359  12.098   3.922   4.260 -0.1328 -0.5084  0.0282
10194SOL    HW139360  12.144   3.996   4.221 -0.5609  0.5848  1.5378
10194SOL    HW239361  12.118   3.927   4.354  0.7015 -2.9257  0.0696
10195SOL     OW39362   0.408   5.146   9.500  0.7407 -0.9330 -0.1813
10195SOL    HW139363   0.380   5.122   9.412  0.5461 -1.2501 -0.0335
10195SOL    HW239364   0.337   5.117   9.557  0.7015 -0.4026  0.0450
10196SOL     OW39365  12.487   2.327   6.355 -0.1274  0.5381  0.1225
10196SOL    HW139366  12.399   2.301   6.383  0.3471 -0.3073  0.8872
10196SOL    HW239367  12.475   2.358   6.265 -1.1681  0.2057  0.1281
10197SOL     OW39368  10.466   3.562   9.074  0.3881  0.6679  0.4746
10197SOL    HW139369  10.558   3.544   9.093  0.3079  0.3986  0.6206
10197SOL    HW239370  10.467   3.607   8.990  0.5502 -0.6970 -0.2788
10198SOL     OW39371   2.322  11.515   2.104 -0.0887 -0.0362  0.7347
10198SOL    HW139372   2.278  11.454   2.045  0.4735  1.3497 -1.2079
10198SOL    HW239373   2.252  11.551   2.159 -1.0879  0.5889 -0.8890
10199SOL     OW39374   9.869   0.502  10.327 -0.2828 -0.1624  0.4062
10199SOL    HW139375   9.780   0.522  10.297 -0.1904 -0.8155 -0.3213
10199SOL    HW239376   9.858   0.430  10.388 -0.3029  0.1011  0.7170
10200SOL     OW39377   6.941   1.570   3.835  0.0265 -0.1739  0.1727
10200SOL    HW139378   6.996   1.492   3.842  0.0352 -0.2102 -0.2973
10200SOL    HW239379   6.997   1.636   3.795 -0.8793 -0.8426 -2.3593
10201SOL     OW39380   6.069  12.491   8.078 -0.4781 -0.0821  0.2962
10201SOL    HW139381   6.163  12.485   8.091 -0.6910 -0.4068  1.9014
10201SOL    HW239382   6.058  12.556   8.008  0.8472  2.0491  1.9363
10202SOL     OW39383   5.999   0.447   4.696  0.2996 -0.0428 -0.1371
10202SOL    HW139384   5.993   0.365   4.648  0.1388 -0.4871  0.6237
10202SOL    HW239385   6.009   0.421   4.787  0.8683  0.7833  0.0479
10203SOL     OW39386   8.275   8.376   4.556 -0.2071 -0.5779 -0.3265
10203SOL    HW139387   8.233   8.319   4.491  0.5572  0.9062 -2.2295
10203SOL    HW239388   8.361   8.394   4.519  0.9791 -1.0692  1.9971
10204SOL     OW39389   5.901   0.925   1.444 -0.1124  0.4335 -0.2426
10204SOL    HW139390   5.903   0.849   1.385  0.3262  0.8711 -0.8089
10204SOL    HW239391   5.820   0.915   1.493  0.6663 -1.2164  0.8048
10205SOL     OW39392   5.330   9.998  11.068  0.1027 -0.1706  0.4623
10205SOL    HW139393   5.246   9.974  11.028  0.7588 -1.2458 -0.3403
10205SOL    HW239394   5.339  10.092  11.051 -1.5978  0.2829  1.8567
10206SOL     OW39395  10.381   1.976   6.243  0.0938  0.1806 -0.1211
10206SOL    HW139396  10.369   1.888   6.280 -1.4730 -0.5811 -2.2291
10206SOL    HW239397  10.316   2.030   6.287 -0.5924 -0.3045 -0.5256
10207SOL     OW39398  12.564  10.152   5.150 -0.4046  0.3091  0.2114
10207SOL    HW139399  12.532  10.222   5.093 -1.7352  0.4939  1.1498
10207SOL    HW239400  12.549  10.072   5.101  0.9034  0.6136 -0.7709
10208SOL     OW39401   3.095   4.662   8.764  0.0484 -0.6033  0.0388
10208SOL    HW139402   3.037   4.723   8.808 -0.9584 -0.3145 -1.6193
10208SOL    HW239403   3.181   4.704   8.768 -0.7204  1.2773 -1.5875
10209SOL     OW39404   2.747  12.279   7.721 -0.0253 -0.1950  0.6661
10209SOL    HW139405   2.667  12.245   7.760 -0.3569  0.2779  0.4045
10209SOL    HW239406   2.726  12.370   7.698  0.2406 -0.3821 -0.3801
10210SOL     OW39407   6.788   2.184   0.820 -0.0897  0.2441 -0.0528
10210SOL    HW139408   6.856   2.173   0.754  0.3426 -0.1281  0.4529
10210SOL    HW239409   6.824   2.248   0.882 -0.2829  0.2020  0.1049
10211SOL     OW39410   6.367   7.364   8.248 -0.0755 -0.3416 -0.3005
10211SOL    HW139411   6.276   7.371   8.217 -0.0246 -0.8055 -0.5646
10211SOL    HW239412   6.379   7.441   8.303 -0.6784 -0.3559 -0.1403
10212SOL     OW39413   9.314   7.840   4.966 -0.0333  0.2110  0.2282
10212SOL    HW139414   9.344   7.892   5.041 -0.4280  1.9348 -0.7713
10212SOL    HW239415   9.346   7.887   4.890  1.8793 -2.4246 -0.7460
10213SOL     OW39416   0.555   0.131   7.683  0.1857 -1.1043 -0.1988
10213SOL    HW139417   0.511   0.112   7.600 -0.7860 -1.3502  0.3561
10213SOL    HW239418   0.523   0.063   7.743 -0.9875  0.4537  1.0203
10214SOL     OW39419  11.832   7.821   4.357 -0.2105 -0.1205  0.2081
10214SOL    HW139420  11.910   7.835   4.304 -1.3030 -0.9083 -1.6770
10214SOL    HW239421  11.800   7.909   4.377  0.4923  0.1909 -0.0094
10215SOL     OW39422  11.783   4.057   4.824 -0.0193 -0.0851 -0.5556
10215SOL    HW139423  11.754   4.101   4.904  0.3968  0.1675 -0.5420
10215SOL    HW239424  11.858   4.004   4.853  0.6210  0.6075 -0.9294
10216SOL     OW39425   0.874   9.140   8.121 -0.2089  0.1443 -0.0546
10216SOL    HW139426   0.821   9.060   8.118  2.8112 -2.2263  2.5023
10216SOL    HW239427   0.843   9.186   8.199  0.9262 -0.9342  1.0874
10217SOL     OW39428   9.035  10.855   3.581 -0.0988 -0.2177 -0.0935
10217SOL    HW139429   8.965  10.791   3.596  0.3124 -0.3864  1.1839
10217SOL    HW239430   9.094  10.811   3.519 -0.1635 -0.8132  0.2595
10218SOL     OW39431   3.575   3.589   2.523 -0.2611  0.6696 -0.3423
10218SOL    HW139432   3.497   3.553   2.481  0.7600  1.7429 -3.4653
10218SOL    HW239433   3.632   3.514   2.538 -0.9871  0.1565 -0.1267
10219SOL     OW39434   1.496   7.449   7.387 -0.3263 -0.2101  0.1475
10219SOL    HW139435   1.440   7.374   7.406  0.8875 -1.4241 -0.8589
10219SOL    HW239436   1.584   7.412   7.380  0.7465  1.7067  2.2117
10220SOL     OW39437   3.289   2.256   2.914  0.7193 -0.4959 -0.1677
10220SOL    HW139438   3.251   2.192   2.854  1.3382  0.2436 -1.3941
10220SOL    HW239439   3.334   2.204   2.979  3.1120 -1.3982 -2.3672
10221SOL     OW39440   0.724   7.857   6.932 -0.1882 -0.4375  0.6659
10221SOL    HW139441   0.716   7.936   6.984  0.9172 -0.9127  1.5969
10221SOL    HW239442   0.642   7.852   6.883 -0.3259  1.1962  0.6906
10222SOL     OW39443   5.971   7.498   8.373 -0.3047  0.6155 -0.3321
10222SOL    HW139444   5.926   7.461   8.448 -0.4430  0.2820 -0.5774
10222SOL    HW239445   5.949   7.591   8.375  0.3015  0.7478  0.4676
10223SOL     OW39446   5.450   7.807   4.841  0.8745 -0.2074  0.6344
10223SOL    HW139447   5.357   7.785   4.851  0.9961 -0.2013  1.9792
10223SOL    HW239448   5.493   7.723   4.829  0.7500 -0.2519  0.4970
10224SOL     OW39449  10.120   6.471   7.144 -0.1888  0.5640 -0.7723
10224SOL    HW139450  10.142   6.470   7.237 -0.9993  2.6120 -0.5072
10224SOL    HW239451  10.125   6.379   7.117  2.0892  0.1457  0.7855
10225SOL     OW39452   7.480  11.377   4.271  0.4335 -0.7281 -0.4150
10225SOL    HW139453   7.497  11.471   4.276 -1.4260 -0.3526 -0.1654
10225SOL    HW239454   7.566  11.336   4.282  1.0573  0.8915  1.5354
10226SOL     OW39455   3.128   1.425   8.530  0.4404 -0.0196 -0.3662
10226SOL    HW139456   3.207   1.406   8.479 -0.1901  0.5324 -1.6120
10226SOL    HW239457   3.068   1.466   8.466  0.0313  1.7849  1.0916
10227SOL     OW39458   6.330  11.975   9.944  0.1353 -0.0058 -0.2008
10227SOL    HW139459   6.321  11.881   9.959  1.1626 -0.2710 -1.0967
10227SOL    HW239460   6.241  12.008   9.944 -0.2141 -0.8777  0.7086
10228SOL     OW39461   8.477   5.148  11.602  0.8800 -0.4112  0.6032
10228SOL    HW139462   8.568   5.165  11.629  0.4424  0.5607  1.5444
10228SOL    HW239463   8.424   5.196  11.666 -0.2595  0.6217 -1.0403
10229SOL     OW39464   0.186   5.447   3.297  0.1395 -0.4495  0.2323
10229SOL    HW139465   0.226   5.394   3.228  1.0168  1.9794 -1.2189
10229SOL    HW239466   0.258   5.498   3.334 -0.6729 -0.2473  1.6197
10230SOL     OW39467   4.120  11.776   9.415 -0.5779  0.4580 -0.4284
10230SOL    HW139468   4.093  11.690   9.384 -1.6499  0.3910  0.6129
10230SOL    HW239469   4.200  11.796   9.366  0.7398 -1.9017  0.5804
10231SOL     OW39470   9.969  10.348  12.225  0.1445  0.4377 -0.0801
10231SOL    HW139471  10.054  10.304  12.226 -0.3435 -0.5334  0.0925
10231SOL    HW239472   9.969  10.400  12.145  0.8112  0.2769 -0.1896
10232SOL     OW39473   9.173   3.100   5.067  0.4452  0.5490  0.1735
10232SOL    HW139474   9.256   3.092   5.021 -0.6113 -3.3320 -1.4887
10232SOL    HW239475   9.122   3.163   5.016  0.4204 -1.3418 -2.3072
10233SOL     OW39476   6.902   0.015   2.914 -0.0840  0.1635  0.6323
10233SOL    HW139477   6.916   0.109   2.905 -0.9135  0.1100 -1.8960
10233SOL    HW239478   6.990  -0.021   2.925  0.5548  1.0337 -1.2227
10234SOL     OW39479   6.789   3.770   4.397  0.4902  0.3454 -0.3920
10234SOL    HW139480   6.762   3.846   4.347  0.4053 -0.7081 -2.0334
10234SOL    HW239481   6.885   3.769   4.389  1.0417  2.7615  3.4638
10235SOL     OW39482   4.512  11.737   9.837  0.1844  0.0830  0.6176
10235SOL    HW139483   4.556  11.720   9.753  1.3914  1.6865  0.8802
10235SOL    HW239484   4.442  11.671   9.841  0.8844 -0.8313 -1.0583
10236SOL     OW39485   2.720  10.052   8.577  0.4516  0.7263 -0.3820
10236SOL    HW139486   2.712   9.967   8.535 -0.7645  0.3272  0.5832
10236SOL    HW239487   2.812  10.075   8.567  1.3684 -1.7370  1.1962
10237SOL     OW39488   4.691  12.605   6.751 -0.0067  0.1101  0.0851
10237SOL    HW139489   4.722  12.642   6.669  0.3408 -1.5428 -0.5638
10237SOL    HW239490   4.597  12.623   6.751 -0.1418 -0.4848 -1.0410
10238SOL     OW39491   6.886   2.617   2.273  0.4161 -0.6935  0.4322
10238SOL    HW139492   6.957   2.585   2.330  0.0031 -0.1801  1.2482
10238SOL    HW239493   6.837   2.538   2.250 -0.4956 -0.7117  2.2929
10239SOL     OW39494   6.042   9.360   9.334 -0.1355 -0.4655 -0.3901
10239SOL    HW139495   6.021   9.338   9.425 -1.2987 -0.0520 -0.5412
10239SOL    HW239496   5.971   9.320   9.283  0.2995 -0.3627 -1.0870
10240SOL     OW39497   6.462   6.760   7.055 -0.0018  0.3029  0.5301
10240SOL    HW139498   6.427   6.682   7.097 -1.8847  0.6840 -0.2191
10240SOL    HW239499   6.495   6.730   6.971  1.2249 -0.0071  1.1073
10241SOL     OW39500  12.293   0.707   4.277 -0.0471 -0.0656 -0.6147
10241SOL    HW139501  12.366   0.769   4.284 -0.7676  0.6021  1.6815
10241SOL    HW239502  12.336   0.622   4.266  1.0357  0.4775 -0.7332
10242SOL     OW39503  12.486   8.423   1.726 -0.0670  0.3419 -0.0443
10242SOL    HW139504  12.527   8.467   1.652 -1.8681  0.6155 -0.9202
10242SOL    HW239505  12.411   8.376   1.688  0.7662 -2.1340  1.1057
10243SOL     OW39506   4.867   2.001   9.265 -0.1328  0.4282 -0.1481
10243SOL    HW139507   4.841   1.922   9.218  0.6200  0.2872 -0.3458
10243SOL    HW239508   4.829   1.991   9.352  1.2787 -0.9526  0.3710
10244SOL     OW39509   4.558   5.811   8.943 -0.2557  0.4859 -0.0119
10244SOL    HW139510   4.548   5.899   8.905  0.1960  0.1921 -0.8206
10244SOL    HW239511   4.627   5.770   8.891 -1.7986 -1.0708 -0.9510
10245SOL     OW39512   3.516   4.114  10.406 -0.2913 -0.1146 -0.2349
10245SOL    HW139513   3.520   4.027  10.367  0.5624 -0.5783  0.8483
10245SOL    HW239514   3.471   4.101  10.490 -0.6061  0.5762 -0.2862
10246SOL     OW39515   8.296  12.090   0.595  0.0212  0.0815 -0.0555
10246SOL    HW139516   8.357  12.163   0.603 -0.2198  0.1371  1.6269
10246SOL    HW239517   8.347  12.020   0.554  0.9331  0.4225  0.4716
10247SOL     OW39518   9.675   7.622   2.675  0.4200 -0.3577 -0.0138
10247SOL    HW139519   9.762   7.642   2.642  0.0974 -0.1300 -0.7350
10247SOL    HW239520   9.616   7.638   2.601 -0.2910 -0.0275  0.6103
10248SOL     OW39521   5.154   9.580   7.500 -0.1441 -0.0118 -0.2234
10248SOL    HW139522   5.188   9.577   7.590  0.1626 -0.7049 -0.3576
10248SOL    HW239523   5.208   9.645   7.456 -1.4834  1.7531  0.5577
10249SOL     OW39524   0.209   3.196   2.648 -0.0801 -0.4673 -0.3209
10249SOL    HW139525   0.164   3.114   2.669  0.1387 -0.4524  0.2299
10249SOL    HW239526   0.175   3.258   2.713  1.0849 -0.5738  0.4193
10250SOL     OW39527  10.933   6.705  12.199 -0.5023 -0.2171 -0.0345
10250SOL    HW139528  10.889   6.773  12.148 -0.8427 -0.4435 -0.0424
10250SOL    HW239529  11.007   6.678  12.143 -1.4725 -1.1943 -0.8775
10251SOL     OW39530   4.379  12.117   6.815  0.4222 -0.9657 -0.4429
10251SOL    HW139531   4.392  12.056   6.889  1.7252 -2.6716 -1.9879
10251SOL    HW239532   4.301  12.084   6.771  1.5831 -2.0841 -1.7451
10252SOL     OW39533  10.709   8.061   0.265 -0.1521 -0.0073  0.0245
10252SOL    HW139534  10.676   8.151   0.260 -0.7793 -0.1359  1.4363
10252SOL    HW239535  10.804   8.071   0.262 -0.1844  0.7972  1.1632
10253SOL     OW39536   3.931   3.781  11.670  0.4966 -0.3210  0.1988
10253SOL    HW139537   3.846   3.800  11.631  1.3513 -0.5489 -1.8761
10253SOL    HW239538   3.967   3.711  11.617  2.6518  0.8308  0.0426
10254SOL     OW39539   6.229   6.709   4.583 -0.3076  0.4090  0.1279
10254SOL    HW139540   6.161   6.700   4.516 -1.0990 -0.9700  1.0465
10254SOL    HW239541   6.309   6.728   4.535 -0.6812 -1.3444 -1.2959
10255SOL     OW39542   9.726   5.617   9.317  0.2355  0.1212  0.1020
10255SOL    HW139543   9.667   5.626   9.392  1.0760  1.6388  0.6296
10255SOL    HW239544   9.668   5.623   9.241 -0.2955  2.2051  0.5914
10256SOL     OW39545   3.050   4.838  12.260 -0.7175 -0.2064 -0.7322
10256SOL    HW139546   3.016   4.776  12.325  0.8844  0.4265  0.7989
10256SOL    HW239547   2.997   4.917  12.273 -1.9940 -0.8269 -1.8981
10257SOL     OW39548   3.937   6.110   9.184  0.2466  0.3453 -0.2981
10257SOL    HW139549   3.870   6.093   9.118 -1.0012  0.9352  0.7742
10257SOL    HW239550   3.908   6.189   9.228  0.7850 -0.2823  1.2635
10258SOL     OW39551   8.232   6.539  10.954  0.1250 -0.7279 -0.0462
10258SOL    HW139552   8.213   6.602  11.023 -0.2325 -0.4855 -0.3607
10258SOL    HW239553   8.210   6.454  10.991  1.3821 -0.7589  0.6701
10259SOL     OW39554   6.594  11.306   1.820 -0.2938  0.1603 -0.2847
10259SOL    HW139555   6.674  11.256   1.838 -1.0602 -0.3323  2.1179
10259SOL    HW239556   6.598  11.325   1.726  1.2603 -2.2805 -0.8057
10260SOL     OW39557   2.596  10.570   6.167 -0.8289  0.0720 -0.4683
10260SOL    HW139558   2.604  10.475   6.176 -3.1060 -0.2233 -0.8152
10260SOL    HW239559   2.637  10.589   6.082  2.6841 -0.0138  1.0427
10261SOL     OW39560   5.598   2.716   5.518 -0.2044  0.4209 -0.0427
10261SOL    HW139561   5.537   2.747   5.584  0.5710 -0.5540  1.1924
10261SOL    HW239562   5.564   2.630   5.492 -1.2652  1.3637 -1.9896
10262SOL     OW39563  10.846   1.813   5.139 -0.1248  0.2925 -0.0842
10262SOL    HW139564  10.850   1.721   5.166  1.1048 -0.1179 -1.5449
10262SOL    HW239565  10.837   1.861   5.221 -1.6018 -1.1564  0.6499
10263SOL     OW39566   1.112  10.004   9.096 -0.1533  0.9134  0.1217
10263SOL    HW139567   1.150  10.092   9.084  1.1301  0.3418 -0.1398
10263SOL    HW239568   1.023  10.012   9.062 -0.1795  2.2095  0.4270
10264SOL     OW39569   0.660   4.239   4.313 -0.1417  0.5071 -0.1448
10264SOL    HW139570   0.733   4.291   4.277  1.8639 -1.4330  0.8642
10264SOL    HW239571   0.608   4.303   4.362  1.2545  1.8692 -0.3360
10265SOL     OW39572   7.089   6.502  10.743 -0.4718  0.5814  0.1760
10265SOL    HW139573   7.084   6.525  10.836 -0.1016  2.2540 -0.1844
10265SOL    HW239574   7.140   6.573  10.704  2.5546 -1.8955 -0.7483
10266SOL     OW39575   3.450   5.313  10.838  0.1537  0.2545 -0.3874
10266SOL    HW139576   3.398   5.356  10.770 -1.3357 -0.6563  0.1316
10266SOL    HW239577   3.393   5.245  10.873  1.4624 -0.3366  0.6986
10267SOL     OW39578   2.652   8.535   2.981 -0.5605 -0.2870 -0.9706
10267SOL    HW139579   2.649   8.446   3.017  0.5020 -0.4868 -1.3426
10267SOL    HW239580   2.565   8.549   2.943 -1.1093 -0.7388  0.0769
10268SOL     OW39581   1.843   4.411   4.640  0.5075 -0.4244  0.0391
10268SOL    HW139582   1.750   4.426   4.627 -0.0287 -1.3956  2.1863
10268SOL    HW239583   1.887   4.477   4.586 -1.4581  1.7936  0.9937
10269SOL     OW39584   5.401   6.929   1.652  0.7350  0.5173  0.4889
10269SOL    HW139585   5.338   6.960   1.587  1.0957 -0.5779 -0.4187
10269SOL    HW239586   5.440   7.008   1.688 -0.5640  1.1819  0.4586
10270SOL     OW39587   0.347   7.839   8.813 -0.4692  0.1983  0.1198
10270SOL    HW139588   0.379   7.750   8.829 -0.4759  0.1801  0.0330
10270SOL    HW239589   0.425   7.895   8.819 -0.4014  0.1420 -0.1947
10271SOL     OW39590  10.388   8.238   7.190  0.2050  0.0452  0.2077
10271SOL    HW139591  10.326   8.169   7.166  1.5562 -1.5006  0.9189
10271SOL    HW239592  10.337   8.319   7.188 -1.5119 -1.0015 -0.3996
10272SOL     OW39593   0.789   6.095   7.831 -0.0105  0.2464 -0.3272
10272SOL    HW139594   0.857   6.029   7.815  1.2631  0.6437  2.7417
10272SOL    HW239595   0.727   6.084   7.759  2.4495 -1.2458 -2.3732
10273SOL     OW39596   9.895   4.053   8.523  0.3638  0.5699 -0.3119
10273SOL    HW139597   9.810   4.057   8.568  1.2246  0.9151  1.3745
10273SOL    HW239598   9.927   4.144   8.524  1.8023  0.0979  1.2803
10274SOL     OW39599   6.900  12.391  12.046 -0.0357 -0.5439  0.0679
10274SOL    HW139600   6.811  12.360  12.065 -0.9842  2.2141  0.6305
10274SOL    HW239601   6.887  12.481  12.015  2.7012  0.8436  2.5564
10275SOL     OW39602   2.158   7.227   1.858 -0.6206 -0.5500 -0.1483
10275SOL    HW139603   2.189   7.143   1.824  0.2955 -1.0738  1.8171
10275SOL    HW239604   2.097   7.204   1.927 -0.0780  0.3705  0.6744
10276SOL     OW39605   7.972  12.274   9.272 -0.2339  0.0869 -0.4781
10276SOL    HW139606   7.894  12.257   9.326  0.0901  0.0964 -0.0042
10276SOL    HW239607   7.954  12.359   9.232 -0.0305  0.5663  0.4252
10277SOL     OW39608   3.166   1.956   4.520  0.2914 -0.0828  0.0878
10277SOL    HW139609   3.105   1.882   4.511  2.0256 -1.7540  1.2332
10277SOL    HW239610   3.173   1.991   4.431 -1.9739 -0.0639 -0.1638
10278SOL     OW39611   5.710   8.587   9.380 -0.6343 -0.6116  0.5845
10278SOL    HW139612   5.799   8.586   9.415  0.3162  2.4067 -1.3344
10278SOL    HW239613   5.660   8.638   9.443 -0.1512  0.5056  0.0924
10279SOL     OW39614   0.011   4.120   1.674  0.7894 -0.2465 -0.7716
10279SOL    HW139615   0.078   4.096   1.738 -1.9029  0.5727  2.6400
10279SOL    HW239616   0.017   4.051   1.607  2.3110 -2.5056  1.4946
10280SOL     OW39617  10.906  12.552  12.125 -0.6013  0.2932 -0.5160
10280SOL    HW139618  10.978  12.505  12.167  1.6672  3.5567 -0.3666
10280SOL    HW239619  10.914  12.531  12.032  0.8296  0.8584 -0.5473
10281SOL     OW39620   1.582   6.931   8.547 -0.3289 -0.1532  0.4322
10281SOL    HW139621   1.515   6.986   8.506  1.4125  1.6970 -0.0622
10281SOL    HW239622   1.605   6.867   8.480  2.3170  2.6809 -1.6584
10282SOL     OW39623   3.319   6.708   4.611 -0.4013  0.1556  0.2411
10282SOL    HW139624   3.348   6.792   4.576 -2.0196  0.2864 -0.8848
10282SOL    HW239625   3.348   6.709   4.702  2.9657  0.2740 -0.6889
10283SOL     OW39626   4.853   9.533   0.452  0.0475 -0.4317 -0.0705
10283SOL    HW139627   4.901   9.561   0.374  0.7137 -2.7698 -0.5822
10283SOL    HW239628   4.917   9.536   0.522 -0.3487  0.9200  0.2645
10284SOL     OW39629   6.248   6.469  11.421 -0.1492  0.7305 -0.5249
10284SOL    HW139630   6.256   6.553  11.377  1.0096 -0.2058 -2.1907
10284SOL    HW239631   6.160   6.438  11.397  0.6641 -0.0278 -2.7929
10285SOL     OW39632   7.256   1.876   5.942 -0.3186  0.1950  0.1593
10285SOL    HW139633   7.291   1.875   5.853 -0.4377 -1.4852  0.0999
10285SOL    HW239634   7.165   1.848   5.933 -0.0774 -0.9077  0.8690
10286SOL     OW39635   3.386   5.227  11.606  0.1610 -0.5972  0.1893
10286SOL    HW139636   3.458   5.271  11.562  0.0658  0.1615  0.7827
10286SOL    HW239637   3.425   5.147  11.641  0.6124 -0.3884  0.1623
10287SOL     OW39638  11.073   0.610   2.541 -0.2050  0.3850 -0.1374
10287SOL    HW139639  11.018   0.629   2.617 -0.6029 -0.1209 -0.3008
10287SOL    HW239640  11.019   0.555   2.484 -0.1178  1.2273 -1.0641
10288SOL     OW39641  11.321   8.558   1.712 -0.7111  0.3921  0.0074
10288SOL    HW139642  11.239   8.511   1.698 -0.7633  0.4819  0.0120
10288SOL    HW239643  11.300   8.649   1.693 -0.3233  0.2630 -1.1666
10289SOL     OW39644   8.018   1.938   9.628  0.1063  0.1198  0.5887
10289SOL    HW139645   7.977   1.868   9.678  0.4832 -0.9868 -0.5946
10289SOL    HW239646   8.111   1.913   9.625  0.0450 -0.0082 -0.8776
10290SOL     OW39647   7.503   1.185   7.392  0.0725  0.0056 -0.4716
10290SOL    HW139648   7.504   1.234   7.310 -0.5336 -0.3859 -0.7158
10290SOL    HW239649   7.483   1.095   7.367 -1.3237  0.0971  0.2025
10291SOL     OW39650   1.214   9.227   3.872  0.2265  0.5072  0.2576
10291SOL    HW139651   1.308   9.246   3.881  0.5646 -0.8513 -0.1162
10291SOL    HW239652   1.190   9.267   3.788  0.7611 -0.1117 -0.2066
10292SOL     OW39653  10.833   2.339   0.934  0.3514 -0.1015  0.5096
10292SOL    HW139654  10.913   2.342   0.986 -0.6296 -2.3639  2.3565
10292SOL    HW239655  10.850   2.272   0.868  0.6727  0.8891 -0.4292
10293SOL     OW39656   1.855   0.155   3.706  1.1920  0.0865 -0.2012
10293SOL    HW139657   1.941   0.172   3.668  1.4921 -0.1576  0.3533
10293SOL    HW239658   1.854   0.206   3.787  0.5678  0.5932 -0.5219
10294SOL     OW39659   4.635   1.879   3.008  0.4880 -0.2306  0.4491
10294SOL    HW139660   4.577   1.939   3.054 -0.3490 -0.5021 -0.2190
10294SOL    HW239661   4.621   1.899   2.915  0.9553 -0.7651  0.2594
10295SOL     OW39662   5.078   7.482  10.823 -0.1395  0.5513  0.0965
10295SOL    HW139663   5.134   7.516  10.753  1.6674 -0.3527  1.0403
10295SOL    HW239664   5.080   7.550  10.891 -0.1983  0.5295  0.1198
10296SOL     OW39665   4.952   1.387   3.806 -0.1905  0.1389 -0.5479
10296SOL    HW139666   4.910   1.473   3.796 -3.3861 -0.8251  2.3562
10296SOL    HW239667   5.006   1.397   3.885 -1.5704 -0.7411  0.5557
10297SOL     OW39668   5.661   1.776   2.651  0.2200 -0.0011 -0.2207
10297SOL    HW139669   5.656   1.848   2.714 -0.6180  0.5538 -0.8977
10297SOL    HW239670   5.749   1.784   2.614  1.5753 -1.6274  2.3089
10298SOL     OW39671   6.821   4.302  11.272  0.5069  0.7443  0.0267
10298SOL    HW139672   6.823   4.390  11.311  0.6527 -0.7242  3.7610
10298SOL    HW239673   6.742   4.262  11.307  0.3871 -0.6340 -1.7038
10299SOL     OW39674   6.543   2.759   0.949 -0.1712  0.2086 -0.0574
10299SOL    HW139675   6.465   2.705   0.958  0.6865 -0.8682  1.2665
10299SOL    HW239676   6.616   2.697   0.942  0.7429  1.1588  0.5357
10300SOL     OW39677   0.728   2.665   5.585  0.0569 -0.2175  0.0776
10300SOL    HW139678   0.669   2.613   5.531  0.3158 -0.4250 -0.0058
10300SOL    HW239679   0.814   2.625   5.573 -0.1752 -1.4346  2.0767
10301SOL     OW39680   6.251   5.690   2.734 -0.5168 -0.8389 -0.3027
10301SOL    HW139681   6.331   5.651   2.701  0.2229 -1.4901  2.1111
10301SOL    HW239682   6.267   5.785   2.729  0.6354 -0.9675  0.6690
10302SOL     OW39683   0.685   7.730   0.827  1.0969 -0.8284 -0.3133
10302SOL    HW139684   0.676   7.710   0.734  0.4272  2.0078 -0.9323
10302SOL    HW239685   0.614   7.681   0.869  0.9809 -1.5847 -1.3472
10303SOL     OW39686   8.850   6.587   9.068  0.0647 -0.2284  0.2707
10303SOL    HW139687   8.872   6.544   8.986  0.4315  0.8565 -0.2259
10303SOL    HW239688   8.783   6.651   9.044 -1.4768 -1.4192  1.2328
10304SOL     OW39689   8.963  10.397   1.328 -0.8828  0.1407 -0.0804
10304SOL    HW139690   8.984  10.332   1.395  1.9624  1.4094  0.4126
10304SOL    HW239691   8.982  10.354   1.245  2.4294  0.6799  0.2944
10305SOL     OW39692   8.110   6.664   6.970 -0.6350 -0.6787 -0.0412
10305SOL    HW139693   8.025   6.707   6.975  0.1678  1.0778 -0.5365
10305SOL    HW239694   8.164   6.724   6.918  1.1547 -1.3211  0.9732
10306SOL     OW39695   0.013   4.463   2.373 -0.3977 -0.3885  0.3584
10306SOL    HW139696   0.035   4.532   2.435  0.6504 -1.1202  0.8477
10306SOL    HW239697  -0.015   4.509   2.294 -0.6255  0.5713  0.9855
10307SOL     OW39698  11.894   9.904   9.023  0.1393 -1.2378 -0.0684
10307SOL    HW139699  11.841   9.861   9.090 -1.1370  0.6656  0.2264
10307SOL    HW239700  11.982   9.906   9.060 -0.4519 -0.6088  1.3732
10308SOL     OW39701   6.502   1.148  12.294  0.3025  0.0794  0.0634
10308SOL    HW139702   6.514   1.223  12.237  1.4688 -1.3997 -1.7635
10308SOL    HW239703   6.514   1.072  12.237  0.1364 -1.5054  2.0150
10309SOL     OW39704  12.540   4.174   3.604  0.6015  0.4743 -0.4934
10309SOL    HW139705  12.503   4.172   3.692  2.4712 -0.5347  0.3221
10309SOL    HW239706  12.467   4.146   3.547 -0.1769 -0.4895  0.9133
10310SOL     OW39707   6.308   9.373  10.827 -0.2119 -0.3231  0.1022
10310SOL    HW139708   6.333   9.465  10.822 -1.2371 -0.1034 -3.7635
10310SOL    HW239709   6.391   9.325  10.819  0.2031  0.2134  0.9766
10311SOL     OW39710   6.776   4.347  12.525  0.3436  0.0693  0.6909
10311SOL    HW139711   6.753   4.426  12.476 -0.6368  0.2136  1.3461
10311SOL    HW239712   6.691   4.307  12.547  0.8275 -1.4946 -0.1364
10312SOL     OW39713   7.980   1.690   8.197  0.0122 -0.1222  0.1487
10312SOL    HW139714   7.955   1.767   8.145 -0.6565 -1.0892 -1.0229
10312SOL    HW239715   7.988   1.723   8.286  2.4249  1.8740 -0.7023
10313SOL     OW39716   3.707   6.659  12.421  0.3026  0.1686 -0.2431
10313SOL    HW139717   3.658   6.741  12.413  0.8536  0.4258 -1.0878
10313SOL    HW239718   3.792   6.685  12.458 -0.4517 -0.3843  2.0619
10314SOL     OW39719   3.544   6.022   5.237 -0.1116  0.5140  0.0362
10314SOL    HW139720   3.562   5.980   5.152  0.2720  2.2379 -0.7880
10314SOL    HW239721   3.631   6.033   5.276 -0.1213  1.2261 -0.1252
10315SOL     OW39722   9.813   8.100  11.678  0.5908  0.2119 -0.0212
10315SOL    HW139723   9.755   8.023  11.678  1.6456 -0.6242 -1.1778
10315SOL    HW239724   9.768   8.164  11.623  0.4277 -0.1574 -0.3207
10316SOL     OW39725   2.130   2.268   5.133  0.7723  0.1106 -0.4745
10316SOL    HW139726   2.117   2.278   5.227 -0.0905  1.1936 -0.6952
10316SOL    HW239727   2.190   2.338   5.109 -0.8846  1.3604 -1.1064
10317SOL     OW39728   1.549   7.442   5.600 -0.2428 -0.1408 -0.1358
10317SOL    HW139729   1.619   7.477   5.655 -0.0263 -0.9563  0.1172
10317SOL    HW239730   1.471   7.490   5.627  0.1433  0.5246 -0.1740
10318SOL     OW39731   9.417   4.803   5.243  0.3205  0.3740 -0.1935
10318SOL    HW139732   9.377   4.789   5.328 -0.5034  1.9953 -0.2781
10318SOL    HW239733   9.479   4.875   5.257 -1.1881  1.9676 -1.3196
10319SOL     OW39734   4.426   0.348   1.681 -0.2554 -0.1001  0.4594
10319SOL    HW139735   4.459   0.309   1.600 -0.9706 -1.5263  0.8317
10319SOL    HW239736   4.350   0.295   1.705 -0.2835  0.5207  1.8755
10320SOL     OW39737   8.836   1.324   1.299  0.6894  0.1253  0.1941
10320SOL    HW139738   8.794   1.251   1.254  0.7757 -0.5271  1.1360
10320SOL    HW239739   8.880   1.284   1.374  1.0882  1.0963  0.5008
10321SOL     OW39740   2.061   0.225   3.333 -0.1074 -0.0677 -0.4016
10321SOL    HW139741   2.041   0.197   3.422  2.2977  2.0801  0.9483
10321SOL    HW239742   2.154   0.206   3.322 -0.4902 -0.9552 -2.7817
10322SOL     OW39743   3.740   4.288   4.964 -0.1893 -0.1848 -0.3376
10322SOL    HW139744   3.832   4.260   4.963 -0.2919 -0.6209 -3.1550
10322SOL    HW239745   3.690   4.207   4.973 -0.3663  0.0161  0.7315
10323SOL     OW39746   9.129  11.283   3.180  0.2678 -0.4730  0.5155
10323SOL    HW139747   9.147  11.205   3.128  1.5952  0.7670 -0.9785
10323SOL    HW239748   9.038  11.273   3.208  0.8285 -3.2589  1.6677
10324SOL     OW39749   7.397   4.336   5.201 -0.0386  0.6766  0.0220
10324SOL    HW139750   7.325   4.355   5.261  0.5282  0.7566  0.6994
10324SOL    HW239751   7.417   4.243   5.217  0.5052  0.8518  0.4064
10325SOL     OW39752  10.819   3.403   3.361  0.3268  0.2920 -0.4640
10325SOL    HW139753  10.736   3.364   3.334  0.9786 -1.4766 -0.1045
10325SOL    HW239754  10.851   3.344   3.430  1.2784  1.6428  0.2972
10326SOL     OW39755   7.923  12.587   6.870  0.2177  0.1523 -0.0077
10326SOL    HW139756   7.955  12.520   6.809 -2.5196 -1.7408  0.4763
10326SOL    HW239757   7.870  12.646   6.816  0.6896  0.5793 -0.0186
10327SOL     OW39758   8.374   9.609  12.428  0.4410  0.0167  0.5871
10327SOL    HW139759   8.432   9.569  12.363  1.9980 -0.3060  2.1191
10327SOL    HW239760   8.416   9.692  12.449 -0.9472  0.9108 -0.0161
10328SOL     OW39761   4.158  10.755   1.004 -0.1788  0.0955 -0.5090
10328SOL    HW139762   4.208  10.690   1.053 -1.8696  0.4556  1.8654
10328SOL    HW239763   4.141  10.714   0.919 -0.3461 -2.1744  0.5534
10329SOL     OW39764   3.884   5.891  12.065  0.2179  0.2940 -0.6880
10329SOL    HW139765   3.927   5.880  12.151 -0.0364  1.6382 -0.3700
10329SOL    HW239766   3.793   5.909  12.086 -0.0034 -0.1298 -1.2776
10330SOL     OW39767   1.226   7.051   3.225 -0.0260 -0.2943  0.1827
10330SOL    HW139768   1.137   7.018   3.214  0.8338 -1.9201 -3.9190
10330SOL    HW239769   1.264   6.996   3.294 -1.3745 -1.5649 -0.0529
10331SOL     OW39770   5.838   9.729  10.096  0.5195 -0.5758  0.1811
10331SOL    HW139771   5.823   9.789  10.023  1.9226 -0.3641  0.0397
10331SOL    HW239772   5.772   9.753  10.161  1.8156  2.0033  0.6650
10332SOL     OW39773   6.295   8.983   6.358  0.2624  0.3696  0.5609
10332SOL    HW139774   6.317   9.021   6.274  1.3978  0.5530  0.9282
10332SOL    HW239775   6.273   8.891   6.338  1.4605  0.1540  0.1796
10333SOL     OW39776   4.907   7.835   5.217 -0.6949  0.4684 -0.3345
10333SOL    HW139777   4.878   7.924   5.194  0.5544  1.0299  0.1757
10333SOL    HW239778   4.943   7.844   5.305  0.1635 -0.3885 -0.5856
10334SOL     OW39779   5.141   4.193   0.771 -0.3041  0.2720 -0.1550
10334SOL    HW139780   5.072   4.128   0.775 -2.2358  2.2597  0.6508
10334SOL    HW239781   5.135   4.241   0.854  2.6691 -0.0330  0.3705
10335SOL     OW39782   0.417   1.665   7.126  0.3391  0.0406 -0.0104
10335SOL    HW139783   0.502   1.670   7.082  0.4146 -1.4128 -0.0688
10335SOL    HW239784   0.372   1.745   7.099  2.3842  1.8520  1.5596
10336SOL     OW39785   2.027   5.686   0.764  0.0344  0.2565 -0.0544
10336SOL    HW139786   2.110   5.641   0.782 -0.4433 -0.6780 -0.1282
10336SOL    HW239787   1.971   5.619   0.724 -0.0631  1.4058 -1.9900
10337SOL     OW39788   5.066   9.984   0.876  0.1341  0.2820 -0.7598
10337SOL    HW139789   5.139   9.954   0.930 -0.5211  0.6883  0.3723
10337SOL    HW239790   5.093   9.963   0.786  1.4378  0.0105 -0.3283
10338SOL     OW39791   3.811  10.535   2.442 -0.1953  0.5524  0.2608
10338SOL    HW139792   3.806  10.456   2.387  0.0439  0.8242 -0.1627
10338SOL    HW239793   3.866  10.596   2.391 -0.6835  1.1252  0.4129
10339SOL     OW39794   6.574  10.414   4.236 -0.1576  0.4070 -0.1240
10339SOL    HW139795   6.560  10.321   4.253  2.8674 -0.3816 -1.2834
10339SOL    HW239796   6.486  10.450   4.223 -1.4030 -2.3367  0.0098
10340SOL     OW39797  11.686   6.531   7.747 -0.4863  0.0030 -0.3072
10340SOL    HW139798  11.617   6.478   7.705 -1.3348 -0.1692  1.2239
10340SOL    HW239799  11.762   6.473   7.749 -1.3435 -1.1427  1.1492
10341SOL     OW39800   1.159   0.599   3.123  0.4879 -0.4022  0.1097
10341SOL    HW139801   1.177   0.650   3.044  0.2933  1.4591  1.2196
10341SOL    HW239802   1.064   0.596   3.128  0.5021 -0.4841  0.3118
10342SOL     OW39803  11.518  12.240   8.461 -0.0705  0.0085 -0.2642
10342SOL    HW139804  11.493  12.320   8.508 -3.2896  0.2758 -2.1113
10342SOL    HW239805  11.584  12.270   8.397 -0.1636  0.8879  0.0321
10343SOL     OW39806   6.073   7.186   2.560  0.4416  0.4470 -0.5202
10343SOL    HW139807   6.025   7.116   2.606  0.2909  0.4427 -0.6827
10343SOL    HW239808   6.063   7.263   2.617  0.0714  0.4970 -0.6497
10344SOL     OW39809   8.082   7.392   9.003  0.0876 -0.5951 -0.7280
10344SOL    HW139810   8.130   7.364   9.082  0.4397 -1.9344 -1.3792
10344SOL    HW239811   8.083   7.488   9.007  1.0471 -0.6216  0.3409
10345SOL     OW39812   1.857   3.182  10.406 -0.6442 -0.5311  0.6454
10345SOL    HW139813   1.792   3.182  10.336 -0.1806  0.4596  0.1877
10345SOL    HW239814   1.806   3.195  10.486 -0.9954  0.7937  0.2382
10346SOL     OW39815   9.796  11.247   0.790 -0.5306  0.2932  0.4230
10346SOL    HW139816   9.761  11.311   0.728 -0.0131 -0.2402 -0.4311
10346SOL    HW239817   9.718  11.207   0.828 -0.8637  1.4461  1.0068
10347SOL     OW39818  11.280   3.530  10.891 -0.3581 -0.1112 -0.2375
10347SOL    HW139819  11.334   3.563  10.963 -2.6778 -0.5653  1.8150
10347SOL    HW239820  11.242   3.608  10.851 -0.6168  0.0492  0.3208
10348SOL     OW39821   1.251   7.564  11.092 -0.0782 -0.5859 -0.0267
10348SOL    HW139822   1.307   7.565  11.170  0.3247  3.1774 -0.2079
10348SOL    HW239823   1.312   7.566  11.018 -0.4201  0.4958 -0.2943
10349SOL     OW39824  12.356   4.245  11.457  0.3823  0.2470 -0.5211
10349SOL    HW139825  12.369   4.312  11.390  0.4790 -0.8899 -1.6743
10349SOL    HW239826  12.296   4.182  11.417 -0.7592  0.2905  1.0220
10350SOL     OW39827  10.948   7.699   7.753  0.4285  0.2241  0.5122
10350SOL    HW139828  10.971   7.694   7.845  0.8394 -2.0188  0.3520
10350SOL    HW239829  10.999   7.629   7.711 -1.4414 -0.3461 -1.0063
10351SOL     OW39830  10.692   1.311  10.478 -0.8893 -0.0422  0.0352
10351SOL    HW139831  10.671   1.391  10.527 -3.0668 -0.2299 -0.4638
10351SOL    HW239832  10.749   1.261  10.535  1.8743  2.5158 -0.2458
10352SOL     OW39833   6.023   2.461  12.184 -0.4445 -0.3086 -0.1386
10352SOL    HW139834   6.077   2.412  12.246 -0.1060 -0.0754 -0.2453
10352SOL    HW239835   6.073   2.462  12.103 -0.6320 -0.1379 -0.2546
10353SOL     OW39836  10.362   5.620   1.874  0.4316 -0.2674 -0.5655
10353SOL    HW139837  10.448   5.660   1.862 -0.0702  0.5019 -1.8096
10353SOL    HW239838  10.305   5.692   1.899  0.1587 -0.8056  0.4442
10354SOL     OW39839   3.207   0.040   2.018 -0.2275 -0.1851  0.3490
10354SOL    HW139840   3.249   0.032   2.104  0.5838  1.3635  0.1362
10354SOL    HW239841   3.215   0.133   1.996 -2.3411 -0.1279 -0.4485
10355SOL     OW39842   6.652   3.488   4.092  0.3374  1.0234 -0.1067
10355SOL    HW139843   6.673   3.395   4.093 -0.1368  0.8993  1.8230
10355SOL    HW239844   6.557   3.491   4.075  0.6307  1.2623 -1.8622
10356SOL     OW39845   9.452   9.310   1.153  0.4997  0.3009  0.0625
10356SOL    HW139846   9.492   9.279   1.072  0.4764  2.0380 -0.6624
10356SOL    HW239847   9.413   9.232   1.192  2.3485 -0.9637 -0.5033
10357SOL     OW39848   0.996   0.512   6.774  0.2761 -0.1665  0.3837
10357SOL    HW139849   1.013   0.544   6.685 -0.1858  2.2550  1.1210
10357SOL    HW239850   0.903   0.529   6.788  0.6440  0.7562  1.8172
10358SOL     OW39851   1.089   8.514   1.798  0.1562  0.3933 -0.0792
10358SOL    HW139852   1.053   8.440   1.750 -0.9842  0.3917  0.7424
10358SOL    HW239853   1.020   8.581   1.794  0.8957  1.1602 -0.2296
10359SOL     OW39854   4.330   8.563   4.640  0.7293 -0.2140  0.4094
10359SOL    HW139855   4.327   8.484   4.585  0.3611  0.9983 -1.4312
10359SOL    HW239856   4.239   8.595   4.639  1.0228  0.6350  0.4712
10360SOL     OW39857   2.588   6.030   3.134  0.1742  0.1701  0.3488
10360SOL    HW139858   2.646   6.106   3.133 -0.3178  0.5430 -0.0568
10360SOL    HW239859   2.501   6.065   3.151 -0.3093 -0.0932 -1.3293
10361SOL     OW39860   6.647  11.872   1.227 -0.2695  0.2356  0.1056
10361SOL    HW139861   6.652  11.947   1.169 -0.3816  0.6286  0.5945
10361SOL    HW239862   6.654  11.909   1.315  1.3282 -0.4786  0.3079
10362SOL     OW39863   1.156  10.258   5.510 -0.5367  0.0407  0.4394
10362SOL    HW139864   1.212  10.308   5.450  0.4465 -0.4147  0.9575
10362SOL    HW239865   1.214  10.192   5.548 -1.2176  0.1312  1.6771
10363SOL     OW39866   7.602   8.838   0.534 -0.1216 -0.1373 -0.1787
10363SOL    HW139867   7.542   8.764   0.542  0.5482 -0.7359 -0.5051
10363SOL    HW239868   7.681   8.800   0.496  1.0937  0.2795  1.7516
10364SOL     OW39869   1.691  11.822   1.943  0.5789  0.0437 -0.4639
10364SOL    HW139870   1.611  11.866   1.913  1.1709  1.2528 -0.3171
10364SOL    HW239871   1.676  11.730   1.922 -1.1744  0.1165  0.2701
10365SOL     OW39872   4.257  12.224  10.909 -0.0444 -0.2008 -0.1813
10365SOL    HW139873   4.179  12.182  10.945  0.2440 -0.6323 -0.0457
10365SOL    HW239874   4.224  12.299  10.861 -0.4077  0.8367  1.5928
10366SOL     OW39875   2.614   2.650   3.360  0.4241  0.2106 -0.0378
10366SOL    HW139876   2.701   2.633   3.396  0.3883  2.7954  1.5029
10366SOL    HW239877   2.627   2.646   3.265  1.7700 -1.2254  0.1598
10367SOL     OW39878   6.164   9.308  12.184  0.0070 -0.0098 -0.0934
10367SOL    HW139879   6.212   9.339  12.107  0.8753 -0.3567  0.2811
10367SOL    HW239880   6.210   9.348  12.259 -1.4872  1.1978  0.2255
10368SOL     OW39881   3.022   2.171  10.962  0.3953 -0.5955  0.2752
10368SOL    HW139882   3.002   2.077  10.965 -0.4464 -0.4075  1.3685
10368SOL    HW239883   3.026   2.197  11.054  3.9456 -0.1905  0.1313
10369SOL     OW39884   8.517   2.149   3.092 -0.0762 -0.9010  0.1056
10369SOL    HW139885   8.544   2.210   3.024 -2.9066  1.0460  0.5631
10369SOL    HW239886   8.598   2.129   3.140  1.3626  0.4607 -1.5945
10370SOL     OW39887   4.635  10.014  10.708  0.1480  0.0839 -0.6799
10370SOL    HW139888   4.568   9.956  10.745  0.2603 -0.5174 -1.3966
10370SOL    HW239889   4.695  10.031  10.781  1.0406 -2.0676 -0.8283
10371SOL     OW39890   1.145   1.217   2.135  0.7328  0.1948  0.5862
10371SOL    HW139891   1.231   1.257   2.147  0.5972  0.8880 -0.5936
10371SOL    HW239892   1.083   1.286   2.157  0.4689 -0.2189  1.1658
10372SOL     OW39893  12.505   0.802   7.564 -0.0190  0.2660  0.0916
10372SOL    HW139894  12.455   0.807   7.482 -0.3718 -0.8912  0.2032
10372SOL    HW239895  12.438   0.806   7.633  0.2612  1.0615  0.3243
10373SOL     OW39896   1.901  12.300   6.732 -0.1579  0.4314  0.3528
10373SOL    HW139897   1.816  12.290   6.690  0.5058  1.4464 -1.3853
10373SOL    HW239898   1.924  12.392   6.718  2.3039 -0.3425 -1.5273
10374SOL     OW39899   7.464   6.212   9.265  0.4631 -0.0437  0.4215
10374SOL    HW139900   7.540   6.159   9.288  1.1933  1.3219  1.2775
10374SOL    HW239901   7.490   6.260   9.187  0.4759  0.3798  0.6809
10375SOL     OW39902   3.296   1.017   8.227 -0.2527 -0.1230 -0.3538
10375SOL    HW139903   3.223   1.079   8.226 -0.2152 -0.0822 -0.4906
10375SOL    HW239904   3.304   0.992   8.319 -0.5141 -0.2136 -0.3543
10376SOL     OW39905   3.967   3.222   1.985  0.1284  0.2957  0.0585
10376SOL    HW139906   4.063   3.221   1.982  0.1123  1.0032 -0.7418
10376SOL    HW239907   3.947   3.286   2.053  0.2162 -0.0386  0.4073
10377SOL     OW39908   9.199  10.453   4.176  0.0666 -0.0112  0.6118
10377SOL    HW139909   9.134  10.512   4.214 -1.1027 -1.2155  0.5104
10377SOL    HW239910   9.176  10.449   4.083 -0.0214 -0.8332  0.6667
10378SOL     OW39911   4.216   4.911   7.585 -0.2566  0.0828  0.3601
10378SOL    HW139912   4.291   4.855   7.607 -0.2478 -0.2254 -0.4217
10378SOL    HW239913   4.251   5.000   7.592  0.1320 -0.0524  0.2335
10379SOL     OW39914   3.140   8.682   7.731 -0.0771 -0.2492  0.9585
10379SOL    HW139915   3.178   8.597   7.708 -0.2110 -0.1660  0.4081
10379SOL    HW239916   3.048   8.662   7.750 -0.0278 -0.2801  1.1598
10380SOL     OW39917   3.300   3.227   8.272  0.2954 -0.3914  0.3480
10380SOL    HW139918   3.248   3.173   8.213 -0.9587 -1.1005  1.9943
10380SOL    HW239919   3.321   3.305   8.221 -2.5253 -0.0149 -0.4413
10381SOL     OW39920   2.939   2.014   3.075  0.4507  0.3785  0.8220
10381SOL    HW139921   2.856   2.060   3.077  0.1235 -0.1927  2.5498
10381SOL    HW239922   2.923   1.937   3.020  0.0402  0.6290  0.5927
10382SOL     OW39923   6.439   7.645   3.670 -0.1836  0.4343  0.2601
10382SOL    HW139924   6.391   7.700   3.608 -0.5575 -0.0622  0.1022
10382SOL    HW239925   6.379   7.632   3.743 -0.1387  0.1534  0.2503
10383SOL     OW39926   8.052  12.094   4.807  0.1695  0.2093 -0.1393
10383SOL    HW139927   8.119  12.031   4.780 -0.6158 -0.1207 -1.4226
10383SOL    HW239928   8.026  12.137   4.726 -1.2746  0.2204  0.3046
10384SOL     OW39929   9.400   3.344   6.561  0.1185  0.0381  0.2317
10384SOL    HW139930   9.424   3.436   6.554 -0.3168  0.1357 -0.0238
10384SOL    HW239931   9.347   3.327   6.483 -1.3064  0.0445  1.1511
10385SOL     OW39932   3.557   5.720   0.173 -0.4522  0.4541 -0.0445
10385SOL    HW139933   3.567   5.649   0.237 -0.0690 -0.9725 -1.6167
10385SOL    HW239934   3.473   5.760   0.195 -0.1131  0.3224  1.6336
10386SOL     OW39935  11.978   0.593   3.423 -0.2106 -0.3965  0.2646
10386SOL    HW139936  11.971   0.501   3.397 -2.0025 -0.0320 -0.7861
10386SOL    HW239937  12.018   0.636   3.347  1.9798 -0.4673  1.3017
10387SOL     OW39938   3.380  12.535   2.454  0.5467  0.0437  0.2709
10387SOL    HW139939   3.305  12.589   2.428  1.4097  1.1626  0.0173
10387SOL    HW239940   3.449  12.558   2.392  0.7354 -1.9515 -0.3468
10388SOL     OW39941  11.034   9.932   9.678  0.1656 -0.0271  0.2727
10388SOL    HW139942  11.011   9.886   9.759  0.7778  1.2932  1.2488
10388SOL    HW239943  11.025   9.867   9.609 -3.3904 -0.4460  0.9462
10389SOL     OW39944   9.909   6.762   4.823  0.2463  0.0260 -0.3251
10389SOL    HW139945   9.855   6.729   4.895  0.2409 -2.1466 -1.2405
10389SOL    HW239946   9.948   6.683   4.784  1.7388  1.2910 -1.5405
10390SOL     OW39947  11.521   3.161   8.022 -0.1377  0.3224  0.0290
10390SOL    HW139948  11.554   3.198   7.940  2.9977 -1.2866  0.4155
10390SOL    HW239949  11.518   3.235   8.082 -2.5442  1.5425 -1.4574
10391SOL     OW39950  11.019   4.721   6.712  0.1533  0.0930 -0.4378
10391SOL    HW139951  10.944   4.663   6.727 -0.3870  0.7404 -0.6235
10391SOL    HW239952  11.088   4.662   6.680 -0.5113 -0.3967 -0.9976
10392SOL     OW39953   5.445   4.293   8.577 -0.0725 -0.0821  0.2359
10392SOL    HW139954   5.422   4.236   8.504  0.7354 -0.4447  0.2501
10392SOL    HW239955   5.431   4.382   8.544  0.8958 -0.2143 -0.5974
10393SOL     OW39956  10.165   8.706   7.247 -0.3243 -0.5190  0.1539
10393SOL    HW139957  10.257   8.729   7.236  0.3216 -2.5978  0.8431
10393SOL    HW239958  10.147   8.723   7.339 -1.1439  1.4405 -0.3159
10394SOL     OW39959   5.450   1.095  10.608 -0.0973 -0.2343  0.1937
10394SOL    HW139960   5.436   1.115  10.515 -0.4867  0.0907  0.3226
10394SOL    HW239961   5.541   1.066  10.612  0.4568  1.3947 -0.0108
10395SOL     OW39962   1.664  11.317   1.344 -0.4355 -0.2587 -0.2231
10395SOL    HW139963   1.646  11.357   1.429  0.1705  1.5453 -0.8728
10395SOL    HW239964   1.702  11.232   1.364 -1.6498 -0.4739  1.2686
10396SOL     OW39965   7.815   7.141  11.223 -0.4672  0.0139  0.0786
10396SOL    HW139966   7.793   7.231  11.249 -0.3098 -0.0193  0.3330
10396SOL    HW239967   7.845   7.149  11.133  2.4715  0.6866  1.0147
10397SOL     OW39968   6.988   6.394  12.201 -0.0374  0.2354  0.0038
10397SOL    HW139969   6.944   6.348  12.273  0.3176 -0.2189 -0.0637
10397SOL    HW239970   7.067   6.431  12.242 -0.8504  1.7209  0.3086
10398SOL     OW39971   6.477   4.705   9.097  0.1481 -0.3115 -0.5070
10398SOL    HW139972   6.390   4.669   9.078 -0.0011  0.5329 -1.4895
10398SOL    HW239973   6.517   4.715   9.011  0.9632 -0.0456 -0.0994
10399SOL     OW39974   1.868  12.207   8.355 -0.4971 -0.1035  0.4524
10399SOL    HW139975   1.929  12.213   8.281 -0.6789 -1.1848  0.2011
10399SOL    HW239976   1.924  12.197   8.431 -0.3182  0.7043  0.4391
10400SOL     OW39977   0.353  10.822   9.402  0.2015 -0.0203 -0.2635
10400SOL    HW139978   0.264  10.810   9.436  0.4995  0.7673  0.8647
10400SOL    HW239979   0.342  10.878   9.325 -0.0416  3.2384  1.9486
10401SOL     OW39980   4.819  12.442   7.696  0.2729  0.2800 -0.2147
10401SOL    HW139981   4.724  12.447   7.695  0.2255  0.3910 -3.0074
10401SOL    HW239982   4.838  12.348   7.692  0.2930  0.2761 -0.0622
10402SOL     OW39983   1.366  10.503   2.249 -0.1574  0.4641  0.1335
10402SOL    HW139984   1.404  10.576   2.200  0.1396 -1.1580 -2.2859
10402SOL    HW239985   1.306  10.462   2.186 -1.0680 -0.7792  1.7452
10403SOL     OW39986   7.640   6.651   0.670 -0.0400  0.3122 -0.1133
10403SOL    HW139987   7.622   6.624   0.760 -0.1655 -0.3772 -0.3425
10403SOL    HW239988   7.564   6.704   0.645  0.0188  0.5492  0.1995
10404SOL     OW39989   3.453   9.310   1.153  0.3888  0.1497 -0.0118
10404SOL    HW139990   3.469   9.226   1.109 -1.9156 -1.5720  2.1707
10404SOL    HW239991   3.532   9.325   1.205  1.2790 -0.0560 -1.2558
10405SOL     OW39992  12.217   1.303   7.581  0.1180 -0.1865 -0.7001
10405SOL    HW139993  12.154   1.251   7.630 -0.0905  0.2663 -0.4779
10405SOL    HW239994  12.302   1.283   7.621 -0.3648  2.6025  2.1038
10406SOL     OW39995   9.209   5.767   2.796  0.5845  0.3885 -0.0238
10406SOL    HW139996   9.179   5.775   2.886 -0.0496  0.4284 -0.2359
10406SOL    HW239997   9.238   5.676   2.788  0.7753  0.4235  0.2572
10407SOL     OW39998  10.420   9.807   2.664  0.1254  0.2041 -0.0671
10407SOL    HW139999  10.426   9.807   2.760 -0.3757 -2.4079  0.0407
10407SOL    HW240000  10.329   9.828   2.646  0.0183 -0.1420  0.0665
10408SOL     OW40001   3.131  10.210   1.956 -0.0265 -0.2850 -0.0845
10408SOL    HW140002   3.165  10.161   1.880 -0.0651 -0.7082  0.1665
10408SOL    HW240003   3.115  10.298   1.922  0.4195 -0.3383 -0.4455
10409SOL     OW40004   0.819  11.840  10.713  0.3052  0.1949  0.3521
10409SOL    HW140005   0.767  11.760  10.702  1.0253 -0.2302 -0.0278
10409SOL    HW240006   0.865  11.849  10.630 -0.4575  1.5204  0.0418
10410SOL     OW40007   0.809   2.108   9.000  0.1340  0.0674 -0.2184
10410SOL    HW140008   0.803   2.017   9.030 -2.4328  0.2794  0.1272
10410SOL    HW240009   0.852   2.153   9.073  1.6811 -0.8774 -0.5037
10411SOL     OW40010   1.550   4.753   8.990  0.5020 -0.3796  0.1056
10411SOL    HW140011   1.494   4.827   8.964  1.3251  0.7918  1.5130
10411SOL    HW240012   1.522   4.681   8.933 -0.7484  0.8366 -0.9015
10412SOL     OW40013  11.492   6.305   2.934  0.3077 -0.2268  0.4341
10412SOL    HW140014  11.498   6.291   2.839 -2.8508 -3.0455  0.4742
10412SOL    HW240015  11.496   6.400   2.944 -1.2537  0.3149 -2.7760
10413SOL     OW40016   0.526   1.572   1.644  0.0377  0.3486  0.5214
10413SOL    HW140017   0.445   1.543   1.601 -0.0945 -0.3866  1.2423
10413SOL    HW240018   0.552   1.650   1.596 -0.7584  0.2286 -0.1264
10414SOL     OW40019   3.436   0.177   3.386 -0.2665 -0.2273  0.2807
10414SOL    HW140020   3.408   0.241   3.452  0.5100 -0.2573  0.6465
10414SOL    HW240021   3.411   0.216   3.303 -3.6718 -1.3202  0.6248
10415SOL     OW40022   3.973  10.051  10.843 -0.0490 -0.3343 -0.3005
10415SOL    HW140023   4.062  10.086  10.851 -0.5893  0.9756  0.1939
10415SOL    HW240024   3.968  10.019  10.752 -0.5918  4.1191 -2.1033
10416SOL     OW40025   7.030  10.527   2.415 -0.2429 -0.6162 -0.4848
10416SOL    HW140026   7.109  10.558   2.371 -0.1685  0.2074  0.2080
10416SOL    HW240027   6.968  10.600   2.410 -0.8917 -1.1729 -0.8306
10417SOL     OW40028  10.165  12.125  10.415  0.3081  0.5683  0.4314
10417SOL    HW140029  10.194  12.182  10.486  0.2031  0.7931  0.2951
10417SOL    HW240030  10.158  12.182  10.339 -0.3059  0.4823  0.4153
10418SOL     OW40031  10.479   2.111   8.267 -0.8217  1.0239  0.4512
10418SOL    HW140032  10.555   2.054   8.278  1.1751  3.6078  1.1389
10418SOL    HW240033  10.477   2.131   8.173 -0.6611  0.9490  0.4322
10419SOL     OW40034   5.916   7.034   7.805  0.0947  0.3775 -0.5233
10419SOL    HW140035   5.822   7.038   7.789  0.5028  0.8983 -3.4748
10419SOL    HW240036   5.940   6.944   7.784  0.1923 -0.0075  1.0902
10420SOL     OW40037   0.166   9.854   7.493  0.0615  0.2203  0.3832
10420SOL    HW140038   0.182   9.771   7.448  0.1869  1.2757 -1.6098
10420SOL    HW240039   0.191   9.837   7.584 -0.0684 -1.9534  0.0644
10421SOL     OW40040   4.396  11.913   4.431  0.0160 -0.2945 -0.1818
10421SOL    HW140041   4.337  11.838   4.435  0.1608 -0.4741 -1.1003
10421SOL    HW240042   4.482  11.878   4.457 -0.2684 -0.0265  1.1825
10422SOL     OW40043   2.161   6.577  10.330 -0.4303  0.2031 -0.3755
10422SOL    HW140044   2.184   6.666  10.356  1.4057 -0.6434  1.1318
10422SOL    HW240045   2.070   6.567  10.357 -0.9806  1.9012 -1.4549
10423SOL     OW40046   2.680   8.942   4.213  0.5807 -0.2143 -0.3125
10423SOL    HW140047   2.611   9.005   4.232  1.3012  0.0717  1.5135
10423SOL    HW240048   2.747   8.993   4.168  0.1806 -0.2206 -0.9401
10424SOL     OW40049   3.603   1.849   3.971  0.6955 -0.0840  0.2867
10424SOL    HW140050   3.676   1.910   3.961  0.6903 -0.0807  0.2692
10424SOL    HW240051   3.639   1.776   4.021  1.3100 -1.0821 -1.5139
10425SOL     OW40052   6.056   2.214   4.781 -0.0592 -0.2314  0.0007
10425SOL    HW140053   6.117   2.201   4.854 -0.0826  0.4835  0.1607
10425SOL    HW240054   6.112   2.219   4.703  0.4109  2.9333  0.3998
10426SOL     OW40055   9.243   7.496   2.046  0.1105  0.1446  0.3617
10426SOL    HW140056   9.307   7.554   2.004  0.8649 -0.6437  0.3867
10426SOL    HW240057   9.280   7.478   2.133 -0.4089  0.1027  0.5778
10427SOL     OW40058   4.191   5.120  10.275  0.0985 -0.2087 -0.4623
10427SOL    HW140059   4.175   5.041  10.326 -1.9939  0.3854 -0.0961
10427SOL    HW240060   4.179   5.093  10.184 -0.3534 -0.3640 -0.3579
10428SOL     OW40061   2.328   3.915   2.644  0.3522  0.0518  0.0319
10428SOL    HW140062   2.256   3.865   2.606  0.3705  0.3098 -0.3528
10428SOL    HW240063   2.405   3.860   2.632  0.2605 -0.1208  0.2281
10429SOL     OW40064   0.820   8.336   6.981  0.1356  0.0242  0.1897
10429SOL    HW140065   0.818   8.415   7.035 -0.6213  0.7329 -0.8250
10429SOL    HW240066   0.913   8.316   6.971  0.3267  0.6037  0.7223
10430SOL     OW40067   9.640   6.081  11.499 -0.4152  0.0909 -0.0874
10430SOL    HW140068   9.694   6.025  11.442  0.0874  0.0311  0.4329
10430SOL    HW240069   9.634   6.164  11.452  0.1919  0.1179 -0.1255
10431SOL     OW40070  10.940   5.270   6.948  0.0178  0.1210  0.0652
10431SOL    HW140071  10.887   5.191   6.951  1.3032 -0.7706  2.5253
10431SOL    HW240072  10.882   5.339   6.981 -0.3763 -0.3063  0.2710
10432SOL     OW40073   5.962   7.636   9.213  0.2476  0.2284  0.5229
10432SOL    HW140074   6.003   7.669   9.293 -0.4531 -1.0656  1.4626
10432SOL    HW240075   5.881   7.596   9.243 -0.1672 -0.0499 -0.8926
10433SOL     OW40076   3.291   6.353   7.878  0.1908  0.0741  0.0590
10433SOL    HW140077   3.356   6.295   7.920 -0.3102 -1.1451 -0.7885
10433SOL    HW240078   3.326   6.369   7.791 -0.9474 -1.2097 -0.6824
10434SOL     OW40079   0.429   3.812   1.763  0.0212  0.3416 -0.6106
10434SOL    HW140080   0.497   3.834   1.826 -1.9268  1.7092  1.1296
10434SOL    HW240081   0.430   3.884   1.700 -0.3110  0.7639 -0.1397
10435SOL     OW40082   6.194   1.149   5.659  0.1514 -0.1439 -0.0811
10435SOL    HW140083   6.201   1.068   5.709 -0.8021 -0.0567  0.2150
10435SOL    HW240084   6.272   1.150   5.604  0.5663 -0.8751  0.4750
10436SOL     OW40085   5.301   0.353   6.009  0.2312  0.2528 -0.5128
10436SOL    HW140086   5.225   0.388   5.962 -0.6426 -0.6713  0.1687
10436SOL    HW240087   5.331   0.280   5.954 -0.3728 -0.3953 -0.0017
10437SOL     OW40088   4.510  10.885   5.379 -0.2196 -0.2510 -0.2620
10437SOL    HW140089   4.574  10.872   5.309 -0.1800  0.7298 -0.4258
10437SOL    HW240090   4.474  10.972   5.362  0.5903  0.4932  1.5575
10438SOL     OW40091   5.716  10.157   4.774  0.3026 -0.0715 -0.2300
10438SOL    HW140092   5.715  10.063   4.758 -0.9488 -0.5459  2.1351
10438SOL    HW240093   5.697  10.196   4.689  2.4008 -1.8369 -1.6106
10439SOL     OW40094   7.513  10.174   1.052  0.2467 -0.3863  0.0364
10439SOL    HW140095   7.578  10.238   1.023 -0.7276 -0.0491 -1.5345
10439SOL    HW240096   7.474  10.141   0.971 -2.2604  0.1976  0.9201
10440SOL     OW40097  12.486  10.091   9.277  0.3893  0.1068  0.2477
10440SOL    HW140098  12.467  10.045   9.194  0.0675 -0.3183  0.5484
10440SOL    HW240099  12.566  10.140   9.259 -0.1128  0.6535 -0.5651
10441SOL     OW40100   2.262   5.506  12.249  0.3486 -0.1626 -0.3566
10441SOL    HW140101   2.346   5.460  12.251  0.2005 -0.4678 -1.0506
10441SOL    HW240102   2.277   5.585  12.302  1.3989  0.3477 -1.3622
10442SOL     OW40103   4.920   6.348   6.375  0.1985  0.2147  0.1139
10442SOL    HW140104   4.988   6.284   6.352  0.0914 -0.3854  1.3890
10442SOL    HW240105   4.838   6.307   6.347  0.1822  0.0364  0.4176
10443SOL     OW40106   6.743   5.302  10.218  0.5107 -0.5208 -0.5583
10443SOL    HW140107   6.690   5.235  10.174  0.4771 -0.8245 -0.0592
10443SOL    HW240108   6.828   5.259  10.232  0.7592 -0.1791 -0.9690
10444SOL     OW40109  11.971   0.744   0.779  0.2811 -0.3471  0.0838
10444SOL    HW140110  12.052   0.731   0.828  0.7264 -0.2675 -0.6104
10444SOL    HW240111  11.997   0.737   0.687 -0.8338 -2.2133 -0.1446
10445SOL     OW40112   6.133  10.945  11.598 -0.3215  0.2687 -0.4271
10445SOL    HW140113   6.139  10.867  11.543 -1.8107 -1.3560  1.5535
10445SOL    HW240114   6.222  10.959  11.630 -0.3750 -1.9582  0.8520
10446SOL     OW40115   6.906   0.696  11.138 -0.8183  0.0405  0.1219
10446SOL    HW140116   6.951   0.766  11.184  0.3087 -0.9105  0.5036
10446SOL    HW240117   6.912   0.620  11.196  0.3202 -1.0857 -1.3924
10447SOL     OW40118   6.315  10.416   1.591 -0.4209  0.1898  0.0407
10447SOL    HW140119   6.333  10.509   1.607  1.0873 -0.0051 -0.4004
10447SOL    HW240120   6.342  10.401   1.501 -1.0918 -0.5774 -0.0422
10448SOL     OW40121   7.572   1.224   5.278  0.2718  0.1801 -0.3061
10448SOL    HW140122   7.482   1.230   5.248 -0.3638 -3.1679  0.5023
10448SOL    HW240123   7.570   1.259   5.367 -0.4827 -0.7261  0.0510
10449SOL     OW40124   3.537   8.598   0.406 -0.1146 -0.2252 -0.4240
10449SOL    HW140125   3.582   8.680   0.386 -0.9118  0.0493 -1.1740
10449SOL    HW240126   3.531   8.552   0.322 -2.8949  0.6205 -0.8044
10450SOL     OW40127   2.007   1.373   9.228 -0.0412 -0.2817 -0.2850
10450SOL    HW140128   2.073   1.305   9.214 -1.9718 -2.1150 -1.1004
10450SOL    HW240129   2.027   1.409   9.314  3.7174  1.3564 -1.6264
10451SOL     OW40130  10.612   3.337   2.961 -0.6346  0.0501  0.3051
10451SOL    HW140131  10.564   3.415   2.931 -0.8329 -0.5872 -1.1099
10451SOL    HW240132  10.631   3.289   2.881 -1.8545 -2.1363  1.2370
10452SOL     OW40133   0.916   1.597  11.498  0.8413 -0.0480  0.1928
10452SOL    HW140134   0.980   1.641  11.554  0.4845  0.7641 -0.0250
10452SOL    HW240135   0.839   1.585  11.553  1.3291 -1.4594  0.5992
10453SOL     OW40136   2.309   6.222   1.059  0.9284 -0.2154 -0.4632
10453SOL    HW140137   2.382   6.199   1.116  1.7507  1.1026 -0.9355
10453SOL    HW240138   2.321   6.169   0.981  1.8621  0.5763 -0.8729
10454SOL     OW40139   7.846   3.530   2.465  0.0548  0.3913  0.0510
10454SOL    HW140140   7.819   3.492   2.381 -0.1847  1.1506 -0.2275
10454SOL    HW240141   7.797   3.480   2.531 -0.2914  0.2514 -0.3053
10455SOL     OW40142   5.447   6.972  10.453 -0.1851 -0.1845 -0.0823
10455SOL    HW140143   5.432   6.880  10.431 -1.2215  0.3557 -1.7699
10455SOL    HW240144   5.542   6.983  10.447  0.0209 -1.2796  0.8354
10456SOL     OW40145   1.411   3.264   1.570 -0.5778 -0.2143  0.2049
10456SOL    HW140146   1.358   3.250   1.648 -0.1418 -2.5814  0.1507
10456SOL    HW240147   1.498   3.286   1.603 -0.9713  1.3001  0.3121
10457SOL     OW40148   3.451   6.972   2.549 -0.6086 -0.0722 -0.1022
10457SOL    HW140149   3.477   7.064   2.545 -0.8270  0.0280  0.6934
10457SOL    HW240150   3.418   6.960   2.638  0.6492 -1.2486  0.2380
10458SOL     OW40151  10.924   7.770   6.456  0.1187 -0.4951  0.1385
10458SOL    HW140152  10.982   7.797   6.385 -1.3300 -0.5594 -1.1300
10458SOL    HW240153  10.859   7.841   6.462  1.6591  0.8225  3.2207
10459SOL     OW40154   6.409   7.438   9.280  0.7955 -0.3464  0.4125
10459SOL    HW140155   6.408   7.343   9.295 -0.0281 -0.6377 -1.2520
10459SOL    HW240156   6.409   7.447   9.185  1.4658  1.3407  0.5329
10460SOL     OW40157   1.452   6.616   2.162  0.5745  0.1508  0.0884
10460SOL    HW140158   1.396   6.676   2.210  1.9364  1.2116  0.3940
10460SOL    HW240159   1.451   6.535   2.215 -1.2785 -0.1479 -0.3430
10461SOL     OW40160   5.496   6.079   9.154 -0.1525  0.6312 -0.0815
10461SOL    HW140161   5.483   6.129   9.235 -0.2600  1.0593 -0.3664
10461SOL    HW240162   5.446   6.126   9.088  1.5671  1.4253 -0.8581
10462SOL     OW40163   6.713   7.978  10.449  0.2617 -0.0167  0.3409
10462SOL    HW140164   6.720   7.914  10.520 -1.0877  1.1526  1.6038
10462SOL    HW240165   6.786   8.038  10.465  0.1072  0.1057  0.5974
10463SOL     OW40166   7.637   4.891   7.450  0.7441 -0.7109 -0.1955
10463SOL    HW140167   7.708   4.828   7.454  0.6511 -0.7801  1.8879
10463SOL    HW240168   7.676   4.974   7.478 -0.1628 -1.0338  2.3802
10464SOL     OW40169   2.389   8.911   0.868 -0.8511  0.4715  0.4465
10464SOL    HW140170   2.334   8.843   0.829  1.1642 -0.7623 -0.4684
10464SOL    HW240171   2.396   8.886   0.960 -1.5760  0.4779  0.5065
10465SOL     OW40172   9.998   2.611   5.436 -0.1008  0.2092 -0.5014
10465SOL    HW140173   9.951   2.656   5.365  1.5324 -0.4676 -2.1066
10465SOL    HW240174   9.960   2.523   5.438 -0.4425  0.3624 -0.2377
10466SOL     OW40175   2.114   4.157   9.971 -0.0497 -0.1143  0.0277
10466SOL    HW140176   2.137   4.154  10.064  0.1407 -0.9197 -0.0350
10466SOL    HW240177   2.173   4.223   9.934  0.5207 -0.4512  0.3117
10467SOL     OW40178   9.161   4.652   1.664  0.1393  0.3215 -0.5046
10467SOL    HW140179   9.228   4.596   1.624  0.1260  0.5244 -0.8135
10467SOL    HW240180   9.079   4.621   1.625 -0.1215 -0.8762  0.9259
10468SOL     OW40181  12.479   1.036   0.439 -0.3468  0.0464 -0.2113
10468SOL    HW140182  12.492   1.109   0.379 -1.4465  0.2813 -0.1958
10468SOL    HW240183  12.491   0.958   0.385  0.9253  0.2177 -0.2058
10469SOL     OW40184  12.201   1.341   0.985 -0.1738 -0.4288  0.0238
10469SOL    HW140185  12.222   1.400   0.912 -0.7385  0.1688  0.3374
10469SOL    HW240186  12.277   1.347   1.043 -0.0341 -0.3614 -0.1648
10470SOL     OW40187   3.941  12.261   0.128 -0.3294 -0.6803  0.4332
10470SOL    HW140188   3.926  12.175   0.088 -1.5447 -0.4488  0.3670
10470SOL    HW240189   3.866  12.314   0.101 -0.0415  0.1464  1.2056
10471SOL     OW40190   4.262   6.655   6.499  0.2042  0.1110 -0.3204
10471SOL    HW140191   4.290   6.572   6.461 -2.7130 -1.3089  0.3539
10471SOL    HW240192   4.312   6.662   6.580  0.8062 -0.7427 -0.5971
10472SOL     OW40193   5.943   7.189   8.214 -0.0270 -0.1848  0.4827
10472SOL    HW140194   5.852   7.187   8.186  0.0580 -1.5918  0.2284
10472SOL    HW240195   5.939   7.204   8.309 -0.4942  0.2116  0.4019
10473SOL     OW40196   3.132   4.856  12.011  0.1445  0.1938 -0.1653
10473SOL    HW140197   3.069   4.854  12.084  0.4114  0.9066  0.0931
10473SOL    HW240198   3.213   4.821  12.048 -0.6004 -2.6576 -1.0308
10474SOL     OW40199   4.911   0.037   5.287 -0.3050  0.2321  0.5838
10474SOL    HW140200   4.830  -0.007   5.315 -1.1196  2.0625  1.2529
10474SOL    HW240201   4.972   0.023   5.359 -0.3499 -0.2994  0.5236
10475SOL     OW40202   5.758   5.152   1.584 -0.1964 -0.3901 -0.5208
10475SOL    HW140203   5.734   5.243   1.604 -0.0365 -0.7066  1.3414
10475SOL    HW240204   5.688   5.121   1.527 -0.6001  0.7087 -0.6551
10476SOL     OW40205   0.278   6.692   2.733 -0.0048 -0.7962 -0.1074
10476SOL    HW140206   0.373   6.700   2.721 -0.0668 -0.0888 -0.1489
10476SOL    HW240207   0.246   6.663   2.648  0.1255 -0.6181 -0.2188
10477SOL     OW40208   7.529   6.613   3.470 -0.3758 -0.0976 -0.1464
10477SOL    HW140209   7.461   6.575   3.415 -1.6150  0.1503  1.1609
10477SOL    HW240210   7.556   6.692   3.423 -2.0061  0.5681 -0.0228
10478SOL     OW40211   7.899   5.862   4.256  0.0580 -0.0119  0.1390
10478SOL    HW140212   7.922   5.919   4.330 -2.7423 -0.4640  1.4853
10478SOL    HW240213   7.916   5.774   4.287 -1.6260 -0.2377  0.4956
10479SOL     OW40214   4.205   4.901   0.570 -0.5859 -0.2319  1.0297
10479SOL    HW140215   4.149   4.953   0.628 -0.9547 -0.0911  0.5539
10479SOL    HW240216   4.222   4.958   0.495 -2.1312 -1.2431 -0.1630
10480SOL     OW40217   3.415   0.754   3.652  0.6049  0.1503 -0.0138
10480SOL    HW140218   3.404   0.714   3.738 -0.2415 -2.3129 -1.1672
10480SOL    HW240219   3.509   0.749   3.635  0.5146 -1.7419 -0.2149
10481SOL     OW40220   9.810   0.886   5.688 -0.1688 -0.2608 -0.2861
10481SOL    HW140221   9.790   0.903   5.596  0.8216 -2.6995 -1.0338
10481SOL    HW240222   9.739   0.828   5.717  0.9625 -1.7685 -0.3889
10482SOL     OW40223   1.843   3.743  10.191  0.0005  0.1286  0.3447
10482SOL    HW140224   1.809   3.791  10.267 -0.8609  0.4135 -0.1990
10482SOL    HW240225   1.794   3.779  10.117  1.3985  0.4287 -0.4654
10483SOL     OW40226  11.530   2.268   5.171 -0.6694 -0.3160  0.1008
10483SOL    HW140227  11.494   2.331   5.108 -0.0596  0.3801  0.4339
10483SOL    HW240228  11.621   2.258   5.145 -0.2938  0.3051  1.1213
10484SOL     OW40229   9.397  10.109  10.919 -0.2391  0.4639 -0.5740
10484SOL    HW140230   9.329  10.126  10.984  1.1175  1.0012  0.7574
10484SOL    HW240231   9.379  10.020  10.887 -0.1417 -0.3780  1.5637
10485SOL     OW40232   7.767   5.945   6.272  0.0851  0.5070 -0.0944
10485SOL    HW140233   7.843   5.894   6.242  1.4030  0.5859  2.7327
10485SOL    HW240234   7.714   5.958   6.194  1.0988 -2.7663 -1.4948
10486SOL     OW40235   8.035   5.418   2.500  0.3768  0.1859  0.9114
10486SOL    HW140236   7.951   5.415   2.547 -1.0168 -2.8135 -1.4200
10486SOL    HW240237   8.101   5.429   2.568 -1.7535  0.3014  3.0707
10487SOL     OW40238   4.494   8.324   0.709  0.3714 -0.0296  0.4808
10487SOL    HW140239   4.512   8.399   0.765  0.5318  1.1314 -1.0592
10487SOL    HW240240   4.398   8.321   0.703  0.3676  1.4855 -1.2084
10488SOL     OW40241   6.641   7.692   6.123 -0.1732 -0.0920 -0.4982
10488SOL    HW140242   6.589   7.621   6.161 -0.1560 -0.0992 -0.4890
10488SOL    HW240243   6.727   7.654   6.108 -0.9270 -0.9932 -3.2497
10489SOL     OW40244   8.290  10.965   3.483 -0.2056 -0.0151  0.2896
10489SOL    HW140245   8.235  10.909   3.538  0.7165 -2.3576 -1.0528
10489SOL    HW240246   8.359  10.995   3.542 -1.6563  1.2514  1.4584
10490SOL     OW40247   9.975   8.853  11.293 -0.2414  0.3873 -0.4771
10490SOL    HW140248  10.007   8.933  11.333 -0.4222  0.8579 -1.2522
10490SOL    HW240249  10.013   8.852  11.205 -0.1897 -0.4085 -0.4586
10491SOL     OW40250   0.562  11.347   8.316  0.5079 -0.5670  0.0405
10491SOL    HW140251   0.538  11.439   8.326  0.8380 -0.2771 -1.5294
10491SOL    HW240252   0.492  11.299   8.361 -0.7780  0.3979 -0.8435
10492SOL     OW40253   5.230   6.434  12.461  0.5842 -0.1338  0.2892
10492SOL    HW140254   5.243   6.389  12.545 -0.4560 -0.9068  0.0584
10492SOL    HW240255   5.211   6.524  12.485 -1.4666 -0.7108  1.0221
10493SOL     OW40256  11.397   5.619   9.446  0.5277  0.2993  0.2046
10493SOL    HW140257  11.381   5.569   9.366  0.1458  0.2608  0.3023
10493SOL    HW240258  11.481   5.586   9.479  0.2198 -0.3787  0.3391
10494SOL     OW40259   7.000   8.296   9.558 -0.7182 -0.3059  0.0580
10494SOL    HW140260   7.006   8.382   9.518 -0.0235  0.7882  2.3741
10494SOL    HW240261   6.907   8.286   9.580 -0.3928  1.2256  2.4693
10495SOL     OW40262   9.688   0.302   1.377 -0.3617 -0.0886 -0.3709
10495SOL    HW140263   9.780   0.285   1.401 -0.9523 -0.7231  1.7031
10495SOL    HW240264   9.648   0.215   1.371 -0.4074  0.0377 -3.5173
10496SOL     OW40265   4.265   3.810   8.700  0.1142  0.2727  0.3967
10496SOL    HW140266   4.230   3.815   8.612 -2.0679  0.8695  1.2404
10496SOL    HW240267   4.360   3.815   8.688 -0.1680  2.6395 -1.7951
10497SOL     OW40268   0.212   0.010   4.744  0.0136 -0.5103 -0.3786
10497SOL    HW140269   0.173   0.028   4.829  2.0591  0.4888  0.4332
10497SOL    HW240270   0.162   0.063   4.682  0.0793  0.7895  0.6260
10498SOL     OW40271  11.605  10.842   2.971  0.2240  0.2288  0.1005
10498SOL    HW140272  11.549  10.909   2.932  1.6404  0.5023 -1.6128
10498SOL    HW240273  11.574  10.760   2.933  0.0580  0.2149  0.2685
10499SOL     OW40274   2.066  12.360   2.602  0.0730 -0.3151  0.2931
10499SOL    HW140275   1.977  12.323   2.607 -0.6187  1.1351 -0.7583
10499SOL    HW240276   2.076  12.385   2.510  1.0130  0.8910  0.7093
10500SOL     OW40277   5.165   2.481   5.280  0.6610 -0.2720  0.0279
10500SOL    HW140278   5.112   2.490   5.200 -1.2736 -0.1327  1.2573
10500SOL    HW240279   5.189   2.388   5.281  0.2011 -0.4035 -0.4103
10501SOL     OW40280   5.779   6.305   4.375 -0.1184  0.2694  0.3492
10501SOL    HW140281   5.865   6.325   4.411  0.7546 -0.3343 -1.2829
10501SOL    HW240282   5.787   6.217   4.339 -1.4606  0.1484  0.2753
10502SOL     OW40283   7.406   7.560   1.839  0.0746 -0.6043  0.4780
10502SOL    HW140284   7.481   7.503   1.819 -0.6762 -1.7440  0.8250
10502SOL    HW240285   7.384   7.538   1.929 -0.0561  0.4596  0.7107
10503SOL     OW40286   2.622  10.646  11.357  0.3175 -0.1151  0.1735
10503SOL    HW140287   2.683  10.714  11.386  0.6571 -0.4447  0.2345
10503SOL    HW240288   2.674  10.590  11.300 -0.9578  2.1438 -3.6169
10504SOL     OW40289   4.148   7.621   8.068  0.4010  0.0679 -0.5313
10504SOL    HW140290   4.214   7.582   8.010  1.2676  1.4834 -0.5475
10504SOL    HW240291   4.068   7.570   8.052  1.1516 -0.8535 -1.4662
10505SOL     OW40292  11.972  12.063   0.300  0.0455  0.0710 -0.2328
10505SOL    HW140293  12.063  12.048   0.326  0.1351 -0.7228 -0.9561
10505SOL    HW240294  11.929  11.979   0.315  0.0371 -0.3452 -2.2577
10506SOL     OW40295   0.527   5.574   2.637  0.2496  0.3345  0.3511
10506SOL    HW140296   0.495   5.557   2.549 -0.6362  3.6806 -0.1336
10506SOL    HW240297   0.580   5.654   2.628 -1.0654  1.6400  3.0094
10507SOL     OW40298   6.751   8.574   3.701 -0.1787 -0.4538  0.5585
10507SOL    HW140299   6.831   8.602   3.657 -0.7948  0.5636  0.0447
10507SOL    HW240300   6.720   8.499   3.649 -0.4877  0.2573 -0.3186
10508SOL     OW40301   0.746  10.567   4.342  0.2478  0.6230 -0.1303
10508SOL    HW140302   0.690  10.529   4.410  1.3354 -0.2739  0.3044
10508SOL    HW240303   0.717  10.658   4.334 -0.1696  0.6240  1.2350
10509SOL     OW40304   5.157   7.571   6.021  0.5656  0.1658 -0.3337
10509SOL    HW140305   5.217   7.560   6.095  0.8185 -0.1610 -0.5838
10509SOL    HW240306   5.086   7.625   6.055  0.5239 -0.2427  0.2384
10510SOL     OW40307   9.004   5.710   1.075 -0.3406  0.0901 -0.2794
10510SOL    HW140308   8.936   5.724   1.141  0.1230 -0.6128  0.3691
10510SOL    HW240309   9.007   5.792   1.026 -1.9428 -0.0303 -0.6126
10511SOL     OW40310  11.007   5.403   0.342 -0.5529 -0.1735 -0.5158
10511SOL    HW140311  11.019   5.466   0.414  0.6698 -0.6014 -0.3365
10511SOL    HW240312  11.029   5.318   0.380 -1.0905 -0.5723 -1.0746
10512SOL     OW40313   8.149   4.018   2.701  0.1794 -0.2113 -0.1351
10512SOL    HW140314   8.206   3.945   2.728  1.6358  0.5097 -1.1261
10512SOL    HW240315   8.081   3.977   2.648  0.4625 -0.9629  0.0657
10513SOL     OW40316   4.878   7.874   7.954  0.0447  0.3074 -0.7614
10513SOL    HW140317   4.884   7.941   7.886  1.4632 -0.2225 -1.1975
10513SOL    HW240318   4.796   7.893   8.000 -0.1029  1.6797 -1.5507
10514SOL     OW40319   8.716   5.241  12.563  0.2937  0.3105 -0.5864
10514SOL    HW140320   8.749   5.161  12.523  0.4847  0.2677 -0.3404
10514SOL    HW240321   8.744   5.311  12.504  0.5181  0.2402 -0.5646
10515SOL     OW40322   2.402   2.437   1.492  0.3398  0.0025  0.1937
10515SOL    HW140323   2.453   2.474   1.564  1.8123 -0.2844 -0.6540
10515SOL    HW240324   2.467   2.420   1.423 -0.5254 -2.5471 -0.0872
10516SOL     OW40325   5.025   7.022   6.649  0.6623  0.1105 -0.0584
10516SOL    HW140326   5.095   6.957   6.659 -0.7204 -1.1567  2.2093
10516SOL    HW240327   4.964   6.982   6.587  0.2321 -0.4491  0.6946
10517SOL     OW40328  11.327   1.584   3.443  0.4935  0.0268  0.1951
10517SOL    HW140329  11.329   1.631   3.360 -0.2977  0.4770  0.4224
10517SOL    HW240330  11.263   1.515   3.431 -0.2860  0.6447  0.7095
10518SOL     OW40331   5.474   8.528   0.726 -0.0839 -0.0255 -0.3246
10518SOL    HW140332   5.489   8.620   0.747  1.3196  0.2299 -2.1664
10518SOL    HW240333   5.399   8.503   0.779  0.1189  1.8974  0.9617
10519SOL     OW40334   2.455   2.588   5.659  0.2162 -0.6506 -0.1476
10519SOL    HW140335   2.394   2.636   5.714 -0.0040 -0.5953 -0.4354
10519SOL    HW240336   2.457   2.500   5.695 -1.2767 -1.1057 -1.1008
10520SOL     OW40337  10.626   8.656  12.228 -0.1130 -0.2916  0.9058
10520SOL    HW140338  10.564   8.611  12.286  0.2653 -1.6901  0.2617
10520SOL    HW240339  10.709   8.653  12.276 -0.4286  1.2628  1.6078
10521SOL     OW40340   3.150   1.273   1.700  0.7859 -0.1778  0.1894
10521SOL    HW140341   3.083   1.333   1.732 -0.1403 -1.4753  0.8139
10521SOL    HW240342   3.233   1.318   1.715  0.0650  1.7714 -1.2525
10522SOL     OW40343  11.520   4.109  10.327  0.5531  0.5111 -0.0170
10522SOL    HW140344  11.528   4.048  10.254  0.3129  0.2103  0.2055
10522SOL    HW240345  11.444   4.078  10.376  1.3518  0.0856  0.9585
10523SOL     OW40346  11.836   6.957   4.259  0.4613 -0.4546 -0.0899
10523SOL    HW140347  11.901   7.022   4.234  0.1396  0.0582  0.3841
10523SOL    HW240348  11.772   7.006   4.311 -0.5848 -0.8350 -0.9729
10524SOL     OW40349   0.582   7.995   8.721 -0.0700  0.1001  0.3768
10524SOL    HW140350   0.598   8.002   8.627  0.5429  2.8094  0.5845
10524SOL    HW240351   0.615   7.909   8.745 -1.0594 -1.0244 -2.0129
10525SOL     OW40352   5.908  11.565   2.390 -0.2108 -0.0737  0.5792
10525SOL    HW140353   5.986  11.529   2.348  2.4531  1.3049  3.8796
10525SOL    HW240354   5.872  11.491   2.440 -1.0560 -0.6983 -0.9008
10526SOL     OW40355  10.576   4.231   1.880 -1.2365 -0.3885 -0.4628
10526SOL    HW140356  10.592   4.214   1.973 -0.0615  0.5915 -0.4563
10526SOL    HW240357  10.501   4.176   1.858  0.4836 -3.2178  0.2328
10527SOL     OW40358  11.602   1.042  12.495 -0.4300  0.0716  0.2230
10527SOL    HW140359  11.611   1.086  12.580  1.8690  1.5966 -0.6929
10527SOL    HW240360  11.640   0.955  12.509 -1.1078 -0.1040  1.0243
10528SOL     OW40361   3.862   5.661   8.178 -0.7551 -0.4337  0.3804
10528SOL    HW140362   3.793   5.677   8.114 -0.9227  0.3242  0.7314
10528SOL    HW240363   3.818   5.619   8.252 -0.6449 -0.8924  0.1897
10529SOL     OW40364   0.996   3.046   3.343  0.1937 -0.0582 -0.4322
10529SOL    HW140365   1.049   3.121   3.370  0.4312 -0.5725  0.5504
10529SOL    HW240366   0.999   3.049   3.247 -2.1151  2.8317 -0.5900
10530SOL     OW40367   3.172   9.612   1.354  0.1653  0.4954 -0.4939
10530SOL    HW140368   3.084   9.643   1.334 -0.7753 -1.5074  0.2522
10530SOL    HW240369   3.201   9.569   1.274 -2.1523 -4.3333  0.9110
10531SOL     OW40370   3.300   0.033  10.239 -0.4339  0.1130 -0.1719
10531SOL    HW140371   3.382  -0.009  10.265 -0.9131 -1.3406 -0.8434
10531SOL    HW240372   3.327   0.103  10.179  0.3293 -0.1783 -0.1859
10532SOL     OW40373   0.329  12.177   9.271  0.3179 -0.3863 -0.5101
10532SOL    HW140374   0.328  12.240   9.200  0.3885  2.3606  1.7581
10532SOL    HW240375   0.413  12.191   9.315  0.3899 -2.1812  0.0321
10533SOL     OW40376   1.585   0.638   1.390 -0.3451  0.2876  0.0397
10533SOL    HW140377   1.623   0.664   1.307 -0.0923  2.0909  0.6815
10533SOL    HW240378   1.519   0.705   1.409 -0.2769  0.0052  1.3723
10534SOL     OW40379   0.838   0.371   6.387 -0.0560  0.1742  0.1721
10534SOL    HW140380   0.894   0.329   6.452  0.7184 -0.2159 -0.7301
10534SOL    HW240381   0.769   0.308   6.369 -0.5140  0.4542  0.9177
10535SOL     OW40382   5.912   6.287   9.599 -0.0792 -0.4247 -0.4568
10535SOL    HW140383   5.833   6.330   9.568  0.3212  0.5527 -0.1611
10535SOL    HW240384   5.968   6.281   9.522 -0.3985 -1.0555 -0.6508
10536SOL     OW40385   4.306  11.625   8.622 -0.3131  0.3956  0.0630
10536SOL    HW140386   4.387  11.583   8.595  0.5929  2.6827 -1.0451
10536SOL    HW240387   4.334  11.708   8.662 -2.0015  0.1838  1.8440
10537SOL     OW40388  12.138   9.911  11.246 -0.1791 -0.0679 -0.3880
10537SOL    HW140389  12.060   9.931  11.297  0.2616 -0.5110  0.4816
10537SOL    HW240390  12.120   9.947  11.159 -1.5388 -0.5589 -0.3361
10538SOL     OW40391   7.689   9.816   1.374  0.1947 -0.1211  0.4998
10538SOL    HW140392   7.775   9.835   1.411  0.8730 -1.1889 -0.4547
10538SOL    HW240393   7.655   9.745   1.429 -0.6081  1.0764  1.5976
10539SOL     OW40394  10.702   7.500   9.776  0.4055  0.0044  0.1479
10539SOL    HW140395  10.609   7.501   9.797  0.5581  0.0848  0.8564
10539SOL    HW240396  10.745   7.531   9.856  1.0046  0.5069 -0.3571
10540SOL     OW40397  12.011   6.576   7.795 -0.3077 -0.4743 -0.9436
10540SOL    HW140398  11.989   6.484   7.784  0.3132 -0.9652  1.4258
10540SOL    HW240399  12.103   6.576   7.819 -0.8646  0.5032  1.5194
10541SOL     OW40400   4.909   8.697   5.623 -0.1377 -0.1429 -0.3593
10541SOL    HW140401   4.864   8.625   5.665 -1.7714 -0.1478 -2.0064
10541SOL    HW240402   4.991   8.659   5.591 -0.4880 -0.9892 -0.2547
10542SOL     OW40403   1.420   9.253   2.961  0.3139  0.7738 -0.0600
10542SOL    HW140404   1.424   9.195   2.885 -1.4660  1.5138 -0.7760
10542SOL    HW240405   1.329   9.248   2.990  0.1704  2.9533  0.0247
10543SOL     OW40406   7.833   5.653   7.453  0.3168 -0.0048 -0.2300
10543SOL    HW140407   7.905   5.663   7.391  0.9004  0.9870  0.5684
10543SOL    HW240408   7.776   5.729   7.436 -0.5982 -0.8217 -0.9080
10544SOL     OW40409   9.113   2.908   2.199  0.1819 -1.0005 -0.0674
10544SOL    HW140410   9.110   2.949   2.112  1.8365 -1.1820 -0.2566
10544SOL    HW240411   9.079   2.975   2.258  2.0398  0.4061 -0.4817
10545SOL     OW40412   6.322   8.212  11.806 -0.0948  0.1300  0.4938
10545SOL    HW140413   6.248   8.180  11.754  0.9733 -0.8887 -0.4468
10545SOL    HW240414   6.312   8.168  11.891 -0.5348 -0.0458  0.3523
10546SOL     OW40415   6.003   4.025   3.346  0.1125 -0.1805 -0.2804
10546SOL    HW140416   5.951   4.080   3.288  0.1458 -0.0966 -0.2302
10546SOL    HW240417   5.941   3.993   3.412  0.0482 -0.3803 -0.4363
10547SOL     OW40418  10.199   8.585   9.969  0.1575 -0.0705 -0.2315
10547SOL    HW140419  10.212   8.669   9.925 -1.9498  0.5761  0.2966
10547SOL    HW240420  10.246   8.522   9.914  0.3254  1.1867 -1.6003
10548SOL     OW40421   3.578   2.910   1.918  0.0544 -0.3221  0.1227
10548SOL    HW140422   3.633   2.954   1.853  0.5802 -1.7723 -0.4506
10548SOL    HW240423   3.564   2.976   1.986 -0.3232  1.1571 -1.3373
10549SOL     OW40424  12.096   8.002   8.083 -0.5020  0.1190  0.0115
10549SOL    HW140425  12.111   8.074   8.143 -0.5258 -0.2988  0.5304
10549SOL    HW240426  12.017   8.026   8.035  0.6683  1.4139 -1.3333
10550SOL     OW40427  10.960   4.286   1.310  0.2154 -0.6342  0.4190
10550SOL    HW140428  10.891   4.342   1.345  0.1281  0.1355 -0.8918
10550SOL    HW240429  10.930   4.197   1.327 -1.6938 -0.3540 -1.0989
10551SOL     OW40430   6.259   6.462   3.862  0.5523 -0.0893 -0.4418
10551SOL    HW140431   6.267   6.479   3.768 -1.9262 -1.3700 -0.9534
10551SOL    HW240432   6.227   6.372   3.868 -0.4368  0.3371  1.5798
10552SOL     OW40433   6.337   9.340   0.667 -0.4474  0.2774 -0.3091
10552SOL    HW140434   6.282   9.355   0.589 -2.6617  0.0001  1.1049
10552SOL    HW240435   6.368   9.250   0.658 -1.9372 -0.2726 -0.1841
10553SOL     OW40436   3.912   9.966   6.000  0.2369  0.6598 -0.0462
10553SOL    HW140437   3.953  10.041   5.958  2.1066 -0.8097 -1.0386
10553SOL    HW240438   3.963   9.953   6.081 -0.5895  0.9219  0.5288
10554SOL     OW40439   2.820   1.139   2.391  0.5636  0.6752 -0.7359
10554SOL    HW140440   2.774   1.069   2.438  0.2547  1.4733  0.1890
10554SOL    HW240441   2.864   1.094   2.319 -0.8635 -0.2395 -1.0721
10555SOL     OW40442  12.320  11.418   8.689  0.3076 -0.0108 -0.1070
10555SOL    HW140443  12.250  11.474   8.655 -0.2427 -0.3287  0.4714
10555SOL    HW240444  12.276  11.362   8.754  0.9420 -0.7500 -0.2963
10556SOL     OW40445   9.772   5.438   0.315 -0.5154 -0.1233  0.7040
10556SOL    HW140446   9.680   5.463   0.312 -1.1862 -2.4632 -0.8891
10556SOL    HW240447   9.771   5.345   0.339  1.4706 -0.0655  1.1968
10557SOL     OW40448  11.601   1.132   0.142 -0.1925 -0.0121  0.3799
10557SOL    HW140449  11.579   1.224   0.129 -0.2882  0.1532  1.6147
10557SOL    HW240450  11.647   1.130   0.226 -0.4172 -1.1275  0.4888
10558SOL     OW40451   2.744   2.031   4.443 -0.1079  0.0738  0.1342
10558SOL    HW140452   2.662   2.077   4.459 -0.0124 -0.2646  1.7623
10558SOL    HW240453   2.737   1.949   4.493 -0.0221 -1.4662 -2.1821
10559SOL     OW40454  10.685   4.592   2.751  0.1988  0.3682 -0.0933
10559SOL    HW140455  10.617   4.656   2.729 -0.2103 -0.0305  0.0007
10559SOL    HW240456  10.707   4.609   2.842  0.1406  0.4143 -0.0885
10560SOL     OW40457  10.123  11.606   4.768 -0.1504  0.0037 -0.2956
10560SOL    HW140458  10.064  11.538   4.801 -0.8970 -0.8857 -3.2021
10560SOL    HW240459  10.210  11.571   4.785 -0.5199 -1.4174 -1.1493
10561SOL     OW40460   8.779   2.207   7.690 -0.0436 -0.2882 -0.3514
10561SOL    HW140461   8.854   2.224   7.747 -0.5822  1.6271 -0.1357
10561SOL    HW240462   8.703   2.221   7.745 -0.5664  0.3105 -1.1951
10562SOL     OW40463   6.387   7.164   0.587  0.4658 -0.0090 -0.2440
10562SOL    HW140464   6.405   7.139   0.677  0.6620 -2.4986 -0.8878
10562SOL    HW240465   6.376   7.259   0.589  2.5850  0.2642  2.0138
10563SOL     OW40466   4.937   1.645   3.952  0.2893 -0.4420  0.4211
10563SOL    HW140467   4.990   1.626   4.030 -0.7119 -0.7191  1.0568
10563SOL    HW240468   4.851   1.670   3.987  0.1211  0.4114 -0.5738
10564SOL     OW40469   8.929   5.535  10.075  0.4232 -0.0980 -0.1463
10564SOL    HW140470   8.845   5.513  10.115  0.7772  0.8984  1.2110
10564SOL    HW240471   8.989   5.544  10.149  1.2475  1.2524 -0.9494
10565SOL     OW40472   5.164  11.699  11.185 -0.2200 -0.3787  0.3340
10565SOL    HW140473   5.097  11.687  11.117  0.9291 -0.2309 -0.8417
10565SOL    HW240474   5.113  11.717  11.264 -1.6421 -1.7822 -0.1953
10566SOL     OW40475   7.845   3.708   9.609  0.0523 -0.0454  0.0054
10566SOL    HW140476   7.865   3.633   9.666  2.4155  0.4848 -0.0303
10566SOL    HW240477   7.787   3.763   9.662  0.5541 -0.5452  1.1152
10567SOL     OW40478  11.076   2.801   3.627  0.3435  0.6760 -0.3081
10567SOL    HW140479  11.091   2.766   3.715  0.9004 -0.2194 -0.7384
10567SOL    HW240480  11.011   2.870   3.639  0.6248  0.7621  0.8431
10568SOL     OW40481  10.381   9.014   0.725  0.2090  0.3915  0.2589
10568SOL    HW140482  10.330   9.000   0.804 -0.4215 -0.1360 -0.2326
10568SOL    HW240483  10.356   8.942   0.667  2.8682 -1.0091  0.6794
10569SOL     OW40484   9.728  11.892   1.704  0.0131 -0.1171 -0.0901
10569SOL    HW140485   9.762  11.804   1.721 -2.6883 -1.5556 -1.4661
10569SOL    HW240486   9.763  11.915   1.618 -0.1466 -0.3481 -0.2191
10570SOL     OW40487   4.784   0.712   5.909 -0.0899 -0.4061 -0.3241
10570SOL    HW140488   4.774   0.690   6.002 -1.4376  0.7213 -0.1810
10570SOL    HW240489   4.697   0.700   5.872  0.1525  0.3612 -1.1729
10571SOL     OW40490  11.111   3.507   0.881 -0.0953 -0.2350  0.1606
10571SOL    HW140491  11.060   3.428   0.901  1.3258 -0.8267  1.7245
10571SOL    HW240492  11.166   3.483   0.807 -0.5998 -0.2701 -0.2052
10572SOL     OW40493   1.461   9.514   4.736  0.3881 -0.8264  0.4080
10572SOL    HW140494   1.520   9.579   4.696  0.1718 -0.4294  0.7208
10572SOL    HW240495   1.510   9.432   4.733  0.2112 -0.9005 -1.0522
10573SOL     OW40496   8.660   9.826  11.823 -0.4750  0.0359  0.2077
10573SOL    HW140497   8.620   9.840  11.737 -0.5382 -0.6092  0.1279
10573SOL    HW240498   8.749   9.798  11.803 -0.7638 -0.9799  0.3328
10574SOL     OW40499   9.739   5.023  12.330 -0.2304 -0.2045 -0.5811
10574SOL    HW140500   9.745   5.104  12.381  1.7009  0.8812 -2.3822
10574SOL    HW240501   9.660   4.981  12.362 -0.5384  1.6930  1.4187
10575SOL     OW40502   9.722   9.660   9.793 -0.1976 -0.3418  0.0932
10575SOL    HW140503   9.786   9.596   9.821  0.0102  0.9562  3.0022
10575SOL    HW240504   9.773   9.731   9.755 -0.2845 -1.0114 -1.3355
10576SOL     OW40505   8.808   3.564   5.013 -0.1144  0.0198 -0.1623
10576SOL    HW140506   8.741   3.535   4.951 -1.0971  0.8309  0.5055
10576SOL    HW240507   8.889   3.525   4.979 -0.8957 -0.9355 -1.0062
10577SOL     OW40508   3.102   3.843   4.880  0.1343 -0.3475  0.0209
10577SOL    HW140509   3.127   3.778   4.945  1.1865 -0.1401 -0.1520
10577SOL    HW240510   3.175   3.844   4.818  0.6660  1.7452  0.5926
10578SOL     OW40511   8.142   8.848   8.847  0.4756 -0.5506  0.0027
10578SOL    HW140512   8.113   8.896   8.925 -0.9041  0.8863 -1.3202
10578SOL    HW240513   8.090   8.884   8.776  3.1235 -0.3308 -1.9787
10579SOL     OW40514   2.020   9.324   5.003 -0.0161  0.1198 -0.1969
10579SOL    HW140515   1.990   9.368   5.082 -1.9495  1.8692 -1.8026
10579SOL    HW240516   2.007   9.231   5.021  3.1657  0.0378  2.8780
10580SOL     OW40517   3.668   7.892   4.344  0.4529 -0.4350 -0.1062
10580SOL    HW140518   3.678   7.850   4.430  2.2374 -1.2927 -0.6844
10580SOL    HW240519   3.675   7.820   4.282 -0.6392  0.2064 -1.0142
10581SOL     OW40520  10.409   9.393   2.386  0.0577 -0.7085 -0.0756
10581SOL    HW140521  10.446   9.430   2.306 -0.8446  0.7357  0.1477
10581SOL    HW240522  10.420   9.461   2.452  1.0423 -1.9796  1.1387
10582SOL     OW40523   0.746   7.424  10.889 -0.0127 -0.2595 -0.0822
10582SOL    HW140524   0.805   7.463  10.953  0.8807  0.6773 -1.4461
10582SOL    HW240525   0.688   7.368  10.942  0.6274  0.5442  1.5457
10583SOL     OW40526   4.202  11.318   1.819  0.1799  0.0398 -0.1594
10583SOL    HW140527   4.222  11.239   1.768 -0.2892 -0.3627  0.2711
10583SOL    HW240528   4.133  11.361   1.769 -1.2583 -1.0583  0.7893
10584SOL     OW40529  11.274   1.964   4.907 -0.0026  0.1810 -0.1995
10584SOL    HW140530  11.327   1.905   4.853 -1.1729 -0.0413 -1.1360
10584SOL    HW240531  11.321   1.969   4.990  0.4481 -1.5861 -0.3100
10585SOL     OW40532  10.436   7.985   5.386 -0.6264 -0.1918  0.1076
10585SOL    HW140533  10.441   7.969   5.480 -1.2974  1.4185  0.4506
10585SOL    HW240534  10.343   7.985   5.366 -0.6938  2.4543  0.0639
10586SOL     OW40535   2.600   6.724  11.472 -0.5232  0.0288  0.0055
10586SOL    HW140536   2.614   6.697  11.381  0.6407 -0.8094  0.4045
10586SOL    HW240537   2.608   6.643  11.522  1.1885  0.8052  1.0736
10587SOL     OW40538   9.813   3.875   6.315 -1.0424  0.3229 -0.3230
10587SOL    HW140539   9.860   3.956   6.294  0.5430  0.0972  1.8901
10587SOL    HW240540   9.786   3.887   6.406 -0.1788 -1.8421  0.2909
10588SOL     OW40541   0.832   1.606   9.369  0.3492 -0.2080 -0.0673
10588SOL    HW140542   0.894   1.661   9.417  0.3219  0.9588 -1.3222
10588SOL    HW240543   0.863   1.517   9.385  1.8802  0.3065  0.0199
10589SOL     OW40544   7.338   9.795   9.894  0.0278 -0.0703  0.0521
10589SOL    HW140545   7.291   9.848   9.828  2.9098  0.3778 -1.8366
10589SOL    HW240546   7.333   9.706   9.860  0.9631  0.0706 -0.5223
10590SOL     OW40547   7.605  11.261   7.361 -0.2258 -0.5300  0.1317
10590SOL    HW140548   7.509  11.255   7.365 -0.2106 -0.7871  0.0957
10590SOL    HW240549   7.628  11.311   7.439 -0.4709  0.4951 -0.4331
10591SOL     OW40550  10.044   5.930   8.580  0.1292 -0.2221 -0.1071
10591SOL    HW140551  10.085   6.005   8.622 -0.0465  0.6383 -1.4200
10591SOL    HW240552   9.997   5.967   8.505  0.1441 -1.6461 -0.8567
10592SOL     OW40553  10.511  12.426  12.592  0.0285 -0.5829 -0.2252
10592SOL    HW140554  10.459  12.464  12.521 -0.9490 -0.3492  0.5916
10592SOL    HW240555  10.595  12.404  12.551  0.5645  2.1910 -0.8058
10593SOL     OW40556   1.137   0.608   7.376 -0.0717 -0.1362  0.1351
10593SOL    HW140557   1.156   0.681   7.435  1.1154  0.3542 -0.8083
10593SOL    HW240558   1.044   0.616   7.356 -0.2289  0.3625  1.0305
10594SOL     OW40559   1.325   6.345  11.541  0.1139  0.6084 -0.0260
10594SOL    HW140560   1.359   6.434  11.539  2.3685 -0.1380  1.1869
10594SOL    HW240561   1.280   6.338  11.626  0.7125  0.3664  0.2803
10595SOL     OW40562   8.259   3.443   6.116 -0.0487 -0.2454 -0.3233
10595SOL    HW140563   8.232   3.531   6.090  2.1514  0.3847 -0.6877
10595SOL    HW240564   8.349   3.453   6.145 -0.3429 -2.0756  1.5145
10596SOL     OW40565   4.116   3.199   4.586  0.2560 -0.1654 -0.4577
10596SOL    HW140566   4.189   3.173   4.642 -1.1718 -1.2935  1.0011
10596SOL    HW240567   4.046   3.224   4.647 -0.6894  0.5945 -1.7813
10597SOL     OW40568   5.497   8.134   1.961 -0.2377  0.4600  0.6479
10597SOL    HW140569   5.519   8.171   2.046  0.2179  1.9481 -0.0778
10597SOL    HW240570   5.528   8.199   1.898 -1.3530 -0.1915 -0.6252
10598SOL     OW40571   3.380  10.515   4.886 -0.1382  0.0253 -0.4390
10598SOL    HW140572   3.322  10.440   4.903  0.6567 -0.6227 -0.5398
10598SOL    HW240573   3.421  10.495   4.802  1.7427 -0.5181  0.5600
10599SOL     OW40574   5.081   3.028   0.277  0.3375 -0.0084 -0.2192
10599SOL    HW140575   4.996   3.072   0.276 -0.3854 -1.3465  0.2099
10599SOL    HW240576   5.075   2.962   0.208  0.3859 -1.2367  0.9038
10600SOL     OW40577   6.555   2.809   3.374  0.5419  0.2410  0.1615
10600SOL    HW140578   6.567   2.793   3.468  1.6647  1.2412  0.2160
10600SOL    HW240579   6.481   2.870   3.370  1.1639  1.0423  0.4947
10601SOL     OW40580   3.353   3.474   3.036  0.2592  0.0217 -0.1375
10601SOL    HW140581   3.378   3.490   3.127 -1.3838  0.7924  0.2135
10601SOL    HW240582   3.338   3.561   3.000  0.4034 -0.3064 -0.9969
10602SOL     OW40583  12.364   9.608   7.979 -0.2183 -0.1964  0.0618
10602SOL    HW140584  12.330   9.529   7.936 -0.3290 -0.3203  0.3768
10602SOL    HW240585  12.376   9.671   7.907 -0.9424 -0.2094 -0.0711
10603SOL     OW40586   4.649   2.414   1.080 -0.4078 -0.2685 -0.3210
10603SOL    HW140587   4.580   2.423   1.146  0.9012  1.9544  0.8837
10603SOL    HW240588   4.703   2.341   1.111 -2.2296 -2.1443 -1.3735
10604SOL     OW40589  10.497   9.540   4.198  0.7100  0.2840 -0.1990
10604SOL    HW140590  10.507   9.456   4.242  1.4824  0.8532  0.7515
10604SOL    HW240591  10.423   9.527   4.138  0.0598 -0.7132  0.7833
10605SOL     OW40592   4.487   1.469   5.674  0.4885  0.1457  0.0105
10605SOL    HW140593   4.574   1.498   5.703  1.2456 -1.4335 -0.5490
10605SOL    HW240594   4.464   1.529   5.603  0.7110  1.1265  0.7522
10606SOL     OW40595  12.558   5.349  11.425  0.0500  0.7749 -0.4897
10606SOL    HW140596  12.504   5.378  11.351 -0.8108  2.0119  0.5710
10606SOL    HW240597  12.495   5.327  11.493  0.7887 -1.2903 -0.3809
10607SOL     OW40598   3.158   3.266   9.285 -0.2896 -0.0001 -0.5233
10607SOL    HW140599   3.213   3.192   9.311  0.3611  0.9036  0.7650
10607SOL    HW240600   3.196   3.295   9.202  1.3484  0.7254  0.4302
10608SOL     OW40601   2.957   1.864  11.709 -0.1399  0.0399 -0.1999
10608SOL    HW140602   2.865   1.860  11.734 -0.3477  2.2441 -0.4313
10608SOL    HW240603   3.003   1.819  11.780 -1.2759  0.3482  0.7586
10609SOL     OW40604   6.207  10.620   9.120 -0.3431 -0.1856  0.2219
10609SOL    HW140605   6.288  10.656   9.156 -0.7534  0.8379  0.1676
10609SOL    HW240606   6.139  10.682   9.147 -1.1773 -1.2293  0.5908
10610SOL     OW40607   5.649  12.584  12.440 -0.2531  0.1861  0.0386
10610SOL    HW140608   5.641  12.679  12.446  0.0377  0.2334 -0.2652
10610SOL    HW240609   5.675  12.568  12.350 -0.3748 -0.1890  0.0688
10611SOL     OW40610   9.198  12.496   7.899  0.0842 -0.4349 -0.1765
10611SOL    HW140611   9.163  12.585   7.900  0.6667  0.0578 -4.1403
10611SOL    HW240612   9.132  12.443   7.943 -1.7097  1.5830 -0.3047
10612SOL     OW40613   6.401   6.416  12.003  0.2926 -0.0495 -0.2876
10612SOL    HW140614   6.342   6.491  12.004 -0.2554 -0.4657  1.4455
10612SOL    HW240615   6.489   6.454  11.997 -0.0317  0.6635 -0.6309
10613SOL     OW40616   5.686   6.520   3.481  0.2502  0.1519 -0.0934
10613SOL    HW140617   5.678   6.493   3.573 -0.4855 -0.3282 -0.3013
10613SOL    HW240618   5.597   6.522   3.448  0.5089  0.3552 -0.7982
10614SOL     OW40619   6.866   1.275   6.498  0.2368 -0.2992  0.4217
10614SOL    HW140620   6.877   1.370   6.490  3.0361 -0.0333  4.4808
10614SOL    HW240621   6.810   1.264   6.575  1.2622 -1.8694  0.9826
10615SOL     OW40622   7.905   3.940   8.742 -0.0855  0.5248  0.9319
10615SOL    HW140623   7.833   3.987   8.785 -1.2848 -0.9092  0.5573
10615SOL    HW240624   7.980   3.998   8.752 -1.2843  2.0940  1.3238
10616SOL     OW40625   1.671   8.462   3.051 -0.6426  0.0765  0.1490
10616SOL    HW140626   1.688   8.505   2.967  1.4632  0.0738  0.5165
10616SOL    HW240627   1.625   8.528   3.103 -1.4785  0.2627 -0.7938
10617SOL     OW40628  12.061   9.805   5.709 -0.2018 -0.5081 -0.2094
10617SOL    HW140629  12.101   9.865   5.646 -1.4275 -0.4633 -0.9790
10617SOL    HW240630  11.981   9.850   5.737  1.3895  0.5653  3.2128
10618SOL     OW40631   0.120   9.979   1.298 -0.1685  0.1928 -0.0321
10618SOL    HW140632   0.199   9.969   1.351 -0.4380  1.6842  0.6853
10618SOL    HW240633   0.048   9.972   1.361 -0.5478  0.4428 -0.4328
10619SOL     OW40634   3.154   4.932   7.399  0.2982  0.4141  0.1851
10619SOL    HW140635   3.104   4.997   7.449 -1.3694  0.5217 -1.4918
10619SOL    HW240636   3.233   4.978   7.372  0.9181  0.5506  2.1101
10620SOL     OW40637   5.888  11.941   0.936 -0.1460  0.0440  0.0234
10620SOL    HW140638   5.931  11.979   1.012 -1.0836 -0.7399  0.9629
10620SOL    HW240639   5.910  11.848   0.940 -1.8132 -0.3692  0.4825
10621SOL     OW40640   8.320   8.732  11.281  0.6123  0.4641  0.3145
10621SOL    HW140641   8.262   8.656  11.292 -0.0172  1.0442  1.1372
10621SOL    HW240642   8.402   8.705  11.323 -0.6370  1.3492  3.6157
10622SOL     OW40643   1.152   0.705   6.880  0.1901  0.6402 -0.6030
10622SOL    HW140644   1.125   0.621   6.843  2.1830  0.2187 -1.2678
10622SOL    HW240645   1.103   0.770   6.830 -1.9650 -0.0991  0.4412
10623SOL     OW40646   2.077   7.183   2.688  0.1056 -0.3723 -0.0353
10623SOL    HW140647   2.126   7.102   2.671  1.6429  0.1870  1.3876
10623SOL    HW240648   2.144   7.251   2.692 -0.8980  0.6003  1.0580
10624SOL     OW40649  11.219   4.074   9.978 -0.2149 -0.3026 -0.1896
10624SOL    HW140650  11.215   4.080   9.882  0.8093  1.5032 -0.1647
10624SOL    HW240651  11.312   4.076   9.998 -0.4164 -0.9271  0.8397
10625SOL     OW40652   1.123   9.947   5.338  0.4754  0.2581  0.5407
10625SOL    HW140653   1.154   9.862   5.305 -0.1536  0.6672 -1.2373
10625SOL    HW240654   1.149  10.010   5.271 -2.4083  0.8820 -0.1631
10626SOL     OW40655   8.824   2.933   9.625 -0.4805 -0.0191  0.1100
10626SOL    HW140656   8.784   3.018   9.606 -0.7348  0.1061  1.1638
10626SOL    HW240657   8.750   2.873   9.630 -0.2767 -0.3725 -0.9370
10627SOL     OW40658   7.218   7.598   2.991  0.2259  0.3341 -0.4408
10627SOL    HW140659   7.146   7.547   3.027  0.0411  0.6059 -0.4275
10627SOL    HW240660   7.259   7.639   3.067  0.4326  0.1343 -0.4417
10628SOL     OW40661  11.081  10.755  12.449 -0.7366 -0.0679 -0.0725
10628SOL    HW140662  11.034  10.782  12.527 -0.2813  1.2899 -0.2530
10628SOL    HW240663  11.165  10.801  12.453 -0.3569 -0.6432 -0.9276
10629SOL     OW40664  11.606  12.466   9.602 -0.0871 -0.6405  0.4766
10629SOL    HW140665  11.642  12.524   9.669 -0.3455 -2.2093  2.0536
10629SOL    HW240666  11.559  12.525   9.543 -1.1749  0.7223  2.5408
10630SOL     OW40667   0.804  10.580  11.413 -0.3167  0.2312  0.4459
10630SOL    HW140668   0.897  10.588  11.392 -0.1040 -1.2937  0.6760
10630SOL    HW240669   0.798  10.605  11.505  0.0956 -0.9101  0.7978
10631SOL     OW40670   1.613   2.593   9.578  0.5488  0.5760 -0.2716
10631SOL    HW140671   1.639   2.686   9.577  0.5752  0.5683 -0.9647
10631SOL    HW240672   1.623   2.567   9.670  0.0862  1.3864  0.0259
10632SOL     OW40673   6.469   9.367   7.297  0.2520 -0.2763  0.3940
10632SOL    HW140674   6.496   9.391   7.208  3.1710 -1.5412  0.8386
10632SOL    HW240675   6.413   9.291   7.285 -0.7780  0.5721 -0.4078
10633SOL     OW40676  11.834   9.341   3.721 -0.2863 -0.2602  0.8668
10633SOL    HW140677  11.863   9.338   3.812  0.2760 -0.2727  0.6886
10633SOL    HW240678  11.750   9.295   3.722 -1.6650  2.1363  1.8814
10634SOL     OW40679   6.246   1.016   8.180  0.0363 -0.0417 -0.3518
10634SOL    HW140680   6.161   1.000   8.221 -1.8713  1.6396 -3.2499
10634SOL    HW240681   6.263   0.937   8.129  0.2338 -0.3974  0.2641
10635SOL     OW40682   2.621  11.748   8.528 -0.4588 -0.0379 -0.2930
10635SOL    HW140683   2.574  11.796   8.460 -1.2449 -0.1658  0.1533
10635SOL    HW240684   2.711  11.745   8.497 -0.4492  1.4715 -0.4704
10636SOL     OW40685   0.005   6.570   4.491  0.1925 -0.1551 -0.0996
10636SOL    HW140686  -0.067   6.567   4.427  0.7081 -0.6574 -0.6764
10636SOL    HW240687   0.084   6.560   4.438  0.6546 -0.2711  0.5976
10637SOL     OW40688   7.237  11.676   3.788  0.4058 -0.3062 -0.2082
10637SOL    HW140689   7.325  11.710   3.804  0.8124 -2.1173  1.7754
10637SOL    HW240690   7.252  11.588   3.753 -0.5391 -1.4553  2.0848
10638SOL     OW40691   3.308   8.289  11.836 -0.8629  0.0641  0.0102
10638SOL    HW140692   3.285   8.380  11.822 -1.8352 -0.2424 -0.4970
10638SOL    HW240693   3.386   8.292  11.892 -0.6284  1.1986 -0.3578
10639SOL     OW40694   2.490   3.750   9.287  0.1872 -0.5774  0.5083
10639SOL    HW140695   2.412   3.732   9.234  0.6406 -0.5435 -0.1870
10639SOL    HW240696   2.547   3.675   9.270  0.0866 -0.8762  1.4505
10640SOL     OW40697   1.447  11.951   5.375 -0.1877 -0.1910 -0.1567
10640SOL    HW140698   1.503  11.906   5.312 -0.6912  0.4804 -1.1092
10640SOL    HW240699   1.361  11.953   5.334 -0.6670 -0.2571  0.8207
10641SOL     OW40700   2.773   1.190   1.027  0.3982  0.5729  0.2291
10641SOL    HW140701   2.866   1.196   1.049  0.5568 -0.2653 -0.1695
10641SOL    HW240702   2.754   1.096   1.027 -0.5352  0.7490  0.6461
10642SOL     OW40703   2.507   3.688   6.442 -0.0869 -0.3855 -0.1312
10642SOL    HW140704   2.501   3.694   6.537 -0.1467  0.4858 -0.1816
10642SOL    HW240705   2.475   3.773   6.410 -0.7477 -0.9223 -0.9572
10643SOL     OW40706   5.053   5.809   4.268 -0.3007  0.1006 -0.2523
10643SOL    HW140707   5.084   5.900   4.272  3.0737 -0.9379 -0.0452
10643SOL    HW240708   5.099   5.765   4.339 -1.0955 -1.9938 -0.9651
10644SOL     OW40709   4.163  11.669  10.590  0.1054 -0.2311 -0.3156
10644SOL    HW140710   4.249  11.709  10.575  0.1656  0.2332  1.1793
10644SOL    HW240711   4.105  11.744  10.607 -0.7318 -0.4969 -1.7578
10645SOL     OW40712  10.018   0.925  11.200 -0.2086  0.5170  0.0152
10645SOL    HW140713   9.986   0.834  11.201 -2.0897  1.1379 -0.0882
10645SOL    HW240714  10.097   0.923  11.255  0.4397 -1.3798 -0.8839
10646SOL     OW40715   4.442  10.037   7.663 -0.5181 -0.2121 -0.1385
10646SOL    HW140716   4.430   9.965   7.600 -0.9514 -0.3564  0.1011
10646SOL    HW240717   4.414  10.115   7.616  0.8960 -0.0400 -0.7374
10647SOL     OW40718   1.247  11.695   8.970 -0.1434  0.3749 -0.0406
10647SOL    HW140719   1.310  11.664   9.035 -1.4340 -0.9468  0.6522
10647SOL    HW240720   1.289  11.677   8.885  1.7076  2.4380  0.3473
10648SOL     OW40721   3.381   0.311   3.153 -0.4710 -0.1602  0.2138
10648SOL    HW140722   3.388   0.401   3.120  1.0916 -0.1561  0.4638
10648SOL    HW240723   3.317   0.269   3.096 -2.1165  1.4114  0.8048
10649SOL     OW40724  10.652  11.774   3.173 -0.1500 -0.1448  0.1369
10649SOL    HW140725  10.568  11.749   3.136 -0.3084  0.8481 -0.2160
10649SOL    HW240726  10.717  11.734   3.114 -0.3895 -0.0952 -0.1630
10650SOL     OW40727   8.589   7.676  11.831  0.1303 -0.4292  0.2164
10650SOL    HW140728   8.663   7.732  11.858 -0.0061  0.1280 -0.5211
10650SOL    HW240729   8.516   7.705  11.885 -0.1635  0.7375 -0.7668
10651SOL     OW40730   0.487   2.611   6.140 -0.0762  0.3243  0.5722
10651SOL    HW140731   0.480   2.555   6.063  0.4356  0.5469  0.3631
10651SOL    HW240732   0.514   2.552   6.210 -0.7867  0.0733  0.6470
10652SOL     OW40733   6.356  11.702   7.510 -0.4199  0.5121 -0.5119
10652SOL    HW140734   6.452  11.700   7.515 -0.4647 -0.6232  3.1577
10652SOL    HW240735   6.330  11.758   7.583 -2.5946  1.2102 -1.7410
10653SOL     OW40736   7.382   1.527   9.135 -0.3613 -0.0909  0.0403
10653SOL    HW140737   7.352   1.447   9.092  2.0853 -0.6052 -0.9137
10653SOL    HW240738   7.436   1.570   9.069  2.9285 -0.5043  2.2417
10654SOL     OW40739  11.457   7.719   1.078 -0.1804 -0.5975 -0.5629
10654SOL    HW140740  11.399   7.698   1.151  0.6557  0.2395  0.3804
10654SOL    HW240741  11.535   7.757   1.119  1.9022 -3.4025 -1.6329
10655SOL     OW40742   3.009   3.842   2.972  0.2665 -0.8133 -0.4892
10655SOL    HW140743   3.058   3.775   3.021  0.7292 -0.0592  0.1103
10655SOL    HW240744   2.994   3.803   2.886 -0.7764 -2.2746  0.3086
10656SOL     OW40745   5.433   9.138   6.311  0.2054  0.0414 -0.6088
10656SOL    HW140746   5.343   9.158   6.339  0.7318  1.8713 -0.0754
10656SOL    HW240747   5.435   9.158   6.218 -0.2022 -1.0886 -0.8809
10657SOL     OW40748   4.928   3.029  10.091  0.0102 -0.4207 -0.3633
10657SOL    HW140749   4.870   3.016  10.167  0.7299 -0.6759  0.1539
10657SOL    HW240750   4.944   3.123  10.089 -0.2323 -0.3792 -0.3608
10658SOL     OW40751   4.690   5.705   5.949  0.1845  1.3463 -0.1850
10658SOL    HW140752   4.730   5.663   6.025 -1.2551  0.1500 -0.0263
10658SOL    HW240753   4.597   5.710   5.971 -0.3833  0.3356 -2.0946
10659SOL     OW40754  10.495   0.147  10.515  0.1876 -0.6981 -0.1643
10659SOL    HW140755  10.437   0.201  10.461  1.1909  0.1088 -0.4601
10659SOL    HW240756  10.470   0.057  10.495 -2.0573 -0.3801  0.9092
10660SOL     OW40757   5.339   6.296   4.513 -0.1973 -0.3361 -0.0658
10660SOL    HW140758   5.301   6.306   4.426  0.1099  0.4334 -0.1206
10660SOL    HW240759   5.401   6.224   4.504  2.2981  1.7800 -1.3880
10661SOL     OW40760   2.583   8.856  11.942  0.0826 -0.0040 -0.2957
10661SOL    HW140761   2.598   8.933  11.887  0.4554  0.2538  0.1530
10661SOL    HW240762   2.666   8.808  11.938  0.1437  0.0621  0.1024
10662SOL     OW40763  10.861   2.391  12.096  0.1442  0.6039 -0.2427
10662SOL    HW140764  10.835   2.453  12.164 -0.2756  1.0262 -0.7684
10662SOL    HW240765  10.843   2.438  12.014  0.0555 -0.1230 -0.6463
10663SOL     OW40766   9.082   1.112   0.931 -0.1145  0.1864 -0.2905
10663SOL    HW140767   9.114   1.196   0.897  0.6056  0.0742  0.0778
10663SOL    HW240768   9.154   1.051   0.915 -0.2854 -0.1589  0.2282
10664SOL     OW40769  11.295   7.662   5.230  0.3589  0.2719  0.1399
10664SOL    HW140770  11.241   7.592   5.195 -1.4554  0.7364  1.8210
10664SOL    HW240771  11.380   7.622   5.247 -0.7829 -1.7087  1.5498
10665SOL     OW40772   9.839   5.269   7.215  0.3836 -0.0272 -0.5069
10665SOL    HW140773   9.919   5.216   7.210  0.7140  0.5384 -1.4387
10665SOL    HW240774   9.822   5.295   7.125 -0.4684  0.4373 -0.2218
10666SOL     OW40775   8.582   0.805  11.347  0.2897 -0.1689  0.2547
10666SOL    HW140776   8.559   0.877  11.289  0.5162 -0.8863 -0.7558
10666SOL    HW240777   8.545   0.830  11.432  1.0564  1.4887  0.1386
10667SOL     OW40778   2.336   4.927   1.306 -0.1706  0.1109 -0.3541
10667SOL    HW140779   2.381   5.006   1.275 -0.5504 -0.0701 -1.4205
10667SOL    HW240780   2.399   4.885   1.365 -0.1787  1.4823  0.6684
10668SOL     OW40781   3.805   4.734   2.067  0.3019 -0.2094 -0.3430
10668SOL    HW140782   3.884   4.762   2.020 -0.2530  1.2951 -0.4141
10668SOL    HW240783   3.750   4.693   2.000  0.7310 -0.6784 -0.4174
10669SOL     OW40784   0.907   7.751   1.212 -0.0827  0.1569 -0.2574
10669SOL    HW140785   0.926   7.670   1.166  0.7143  0.2483 -0.1021
10669SOL    HW240786   0.841   7.727   1.277  2.1354 -1.0312  1.7072
10670SOL     OW40787   4.009   1.409   0.033  0.5607 -0.5350  0.4304
10670SOL    HW140788   4.105   1.415   0.028  0.7202  0.0596  3.1695
10670SOL    HW240789   3.993   1.320   0.065  0.4897  0.5253  3.6959
10671SOL     OW40790   6.249   4.354  11.003 -0.0633 -0.3537  0.0327
10671SOL    HW140791   6.163   4.381  11.033 -1.3148 -0.4164 -3.1423
10671SOL    HW240792   6.273   4.418  10.937  1.1728 -1.7436 -0.9372
10672SOL     OW40793   6.962   4.413   5.700 -0.4876  0.4512  0.4961
10672SOL    HW140794   7.024   4.351   5.739 -0.8054  0.1969  0.5977
10672SOL    HW240795   6.935   4.371   5.618  1.2269  1.5853 -0.7341
10673SOL     OW40796   3.908   9.082   7.182 -0.2166  0.4539  0.8043
10673SOL    HW140797   3.973   9.026   7.225  0.4251  1.4631  1.1708
10673SOL    HW240798   3.927   9.170   7.214  0.3969  1.2905 -1.6657
10674SOL     OW40799   5.509   5.089   2.211 -0.2135 -0.3437 -0.1613
10674SOL    HW140800   5.460   5.112   2.291 -1.4058 -1.8296 -0.4062
10674SOL    HW240801   5.478   5.001   2.189  1.2318 -0.5789 -1.4170
10675SOL     OW40802   3.571   0.620   1.096 -0.1018  0.4511  0.2580
10675SOL    HW140803   3.515   0.648   1.169 -1.6349 -1.3543 -0.1457
10675SOL    HW240804   3.539   0.670   1.021 -0.9545 -0.2953  0.1087
10676SOL     OW40805  10.383  11.715   0.701 -0.2924  0.1756  0.2476
10676SOL    HW140806  10.420  11.767   0.773 -0.2903 -0.4576  0.7168
10676SOL    HW240807  10.343  11.640   0.745  1.3571 -1.2312 -0.5113
10677SOL     OW40808   7.861  11.598   8.331  0.3869 -0.1001  0.2111
10677SOL    HW140809   7.927  11.592   8.401 -0.2767 -1.3486  0.7741
10677SOL    HW240810   7.885  11.529   8.269  1.4830  1.5636 -1.3084
10678SOL     OW40811   3.009   1.677  10.461 -0.0220 -0.1381  0.1248
10678SOL    HW140812   2.951   1.674  10.538 -0.5426  0.5876 -0.2304
10678SOL    HW240813   3.055   1.593  10.463 -1.7482 -1.1372 -0.0971
10679SOL     OW40814   0.191   2.434   2.864  0.0551  0.1615 -0.0047
10679SOL    HW140815   0.187   2.500   2.933  1.7695 -1.0880  1.3838
10679SOL    HW240816   0.222   2.355   2.908  0.7558 -0.8223 -2.1310
10680SOL     OW40817   5.129   6.917   7.367 -0.0791  0.3358 -0.3445
10680SOL    HW140818   5.073   6.862   7.422  0.3512  0.8777  0.6614
10680SOL    HW240819   5.068   6.960   7.307 -0.4541 -1.0151 -0.9891
10681SOL     OW40820   3.900   6.437   4.564  0.2595 -0.0920  0.3439
10681SOL    HW140821   3.962   6.425   4.636  2.0079  1.4104 -0.8409
10681SOL    HW240822   3.858   6.352   4.555  2.9213 -1.5369  0.5222
10682SOL     OW40823   4.409  11.060   4.187 -0.0697  0.1164 -0.1202
10682SOL    HW140824   4.484  11.117   4.167  0.1846 -0.2665 -0.2592
10682SOL    HW240825   4.338  11.121   4.209  0.3272  0.4803  0.1758
10683SOL     OW40826   9.543  11.400   2.072  0.5360 -0.0811  0.7787
10683SOL    HW140827   9.617  11.436   2.022 -0.0262  1.3847  0.9429
10683SOL    HW240828   9.469  11.404   2.011  0.7606 -2.5898  0.2267
10684SOL     OW40829   3.230   0.806   1.490 -0.4724  0.1877 -0.2416
10684SOL    HW140830   3.265   0.845   1.570 -0.5149  0.7161 -0.4731
10684SOL    HW240831   3.187   0.726   1.519  1.3872 -0.7737 -0.0174
10685SOL     OW40832   1.322  11.432   4.105 -0.1080 -0.4389 -0.5452
10685SOL    HW140833   1.309  11.373   4.032  1.0488 -0.3183 -0.8629
10685SOL    HW240834   1.373  11.382   4.169 -0.2324 -0.2111 -0.2612
10686SOL     OW40835   9.874  10.910  12.482 -0.2573  0.4730  0.2062
10686SOL    HW140836   9.898  11.002  12.475 -1.7669  0.8529 -0.4341
10686SOL    HW240837   9.914  10.868  12.406  1.8127  0.2318  1.3562
10687SOL     OW40838   5.004   6.299   8.189 -0.4167  0.3324 -0.2045
10687SOL    HW140839   4.909   6.287   8.188 -0.4789 -0.2125  2.6179
10687SOL    HW240840   5.020   6.352   8.267  1.6030  0.3405 -0.5832
10688SOL     OW40841  11.521   8.314   5.499  1.0617 -0.3636 -0.1973
10688SOL    HW140842  11.488   8.402   5.516 -2.9525 -1.2858 -2.0206
10688SOL    HW240843  11.607   8.328   5.460  0.9706  2.6798  0.4858
10689SOL     OW40844   4.231   3.010  12.084  0.1094  0.0696  0.0267
10689SOL    HW140845   4.147   2.972  12.058 -0.1304  0.6260 -0.0198
10689SOL    HW240846   4.274   2.940  12.133 -1.4854  0.6248  2.3927
10690SOL     OW40847   5.503   1.052  11.323 -0.0088  0.0277 -0.2393
10690SOL    HW140848   5.446   1.008  11.386  0.7792 -1.4288 -0.4986
10690SOL    HW240849   5.465   1.139  11.313 -1.2585 -0.3688  0.7798
10691SOL     OW40850   4.825  11.351  11.666 -0.1869  0.6883  0.2917
10691SOL    HW140851   4.773  11.290  11.719 -1.6512  1.1246 -0.5580
10691SOL    HW240852   4.761  11.416  11.637  0.6680  0.7667 -1.5419
10692SOL     OW40853   4.571  11.033  12.473  0.1827 -0.6209 -0.2667
10692SOL    HW140854   4.589  11.103  12.410 -0.5359 -0.4193 -0.2486
10692SOL    HW240855   4.596  10.952  12.427 -0.3284 -0.4731 -0.8090
10693SOL     OW40856  12.093   5.667   3.069 -0.5538 -0.5835 -0.1301
10693SOL    HW140857  12.044   5.656   2.987  0.1987 -1.6372 -0.4535
10693SOL    HW240858  12.180   5.633   3.050 -0.2686 -0.5306  1.0146
10694SOL     OW40859   3.818   5.489   4.614  0.0461  0.1691  0.3737
10694SOL    HW140860   3.801   5.505   4.522 -1.3957  2.2162  0.9282
10694SOL    HW240861   3.878   5.415   4.615  1.0895  0.8842 -2.2316
10695SOL     OW40862  11.687  12.367   2.229  0.0279 -0.0711  0.1425
10695SOL    HW140863  11.639  12.360   2.147  1.0894  1.3533 -0.6466
10695SOL    HW240864  11.673  12.282   2.272  0.7862 -1.5044 -2.2438
10696SOL     OW40865   7.143   4.775   8.359 -0.3188  0.1730 -0.1295
10696SOL    HW140866   7.161   4.688   8.323  0.3388  0.9851 -1.8943
10696SOL    HW240867   7.220   4.827   8.335 -2.0844  2.0798 -2.0646
10697SOL     OW40868   5.151   9.217  11.026  0.0535  0.4856  0.0024
10697SOL    HW140869   5.126   9.285  10.963  1.4751 -0.3746 -1.5786
10697SOL    HW240870   5.239   9.243  11.056 -0.2220  0.3778  0.9369
10698SOL     OW40871   9.158   0.023  10.640 -0.1778  0.1311  0.2456
10698SOL    HW140872   9.136   0.100  10.586 -0.7163  0.3182  0.7214
10698SOL    HW240873   9.205  -0.035  10.580 -1.8654 -0.2278 -0.8036
10699SOL     OW40874  11.408  12.055   3.181  0.1750 -0.0131  0.2318
10699SOL    HW140875  11.432  12.074   3.271  1.5446 -2.8259  0.5727
10699SOL    HW240876  11.319  12.020   3.186 -0.5036  1.6232  0.1875
10700SOL     OW40877   7.291   8.225   2.870  0.2847 -0.2760 -0.1965
10700SOL    HW140878   7.291   8.230   2.966 -0.1404  0.1284 -0.2160
10700SOL    HW240879   7.200   8.204   2.847  0.1284  0.7536 -0.5651
10701SOL     OW40880   8.512   3.657   0.267  0.4826  0.0414 -0.1575
10701SOL    HW140881   8.479   3.630   0.181 -0.9012 -0.4507  0.4898
10701SOL    HW240882   8.586   3.713   0.248  0.2738 -0.1594 -1.6754
10702SOL     OW40883   2.168   5.152  11.581  0.6757 -0.1321  0.4530
10702SOL    HW140884   2.122   5.200  11.513 -1.4179  1.2383  2.6396
10702SOL    HW240885   2.126   5.066  11.582  0.9211 -0.2579 -0.1893
10703SOL     OW40886   9.371  12.246   9.318 -0.6423 -0.1534  0.7225
10703SOL    HW140887   9.327  12.253   9.233 -0.7008  0.4109  0.7950
10703SOL    HW240888   9.307  12.204   9.375 -0.2563 -1.4139  0.2447
10704SOL     OW40889   5.465   3.947   7.117  0.5133 -0.0820  0.2603
10704SOL    HW140890   5.467   3.881   7.186  1.2605 -1.6683 -1.1920
10704SOL    HW240891   5.545   3.998   7.130  1.8210 -1.8024 -0.6945
10705SOL     OW40892   7.617   0.867   9.173  0.5260  0.3771  0.1001
10705SOL    HW140893   7.608   0.960   9.153 -0.5130  0.2645  0.0254
10705SOL    HW240894   7.605   0.861   9.267  0.4812  0.2981  0.0887
10706SOL     OW40895  10.009  10.733   3.338 -0.4694 -0.4719  0.1361
10706SOL    HW140896  10.015  10.674   3.413  1.7814  0.5237  0.8492
10706SOL    HW240897  10.095  10.725   3.295 -1.3711 -0.2902 -1.7907
10707SOL     OW40898   2.405   9.856   9.260  0.3184 -0.3642 -0.4372
10707SOL    HW140899   2.498   9.875   9.247  0.3189  0.3062  0.4639
10707SOL    HW240900   2.362   9.895   9.184  0.5595  1.2821  0.2230
10708SOL     OW40901   0.058   7.141   8.449 -0.5295  0.1511 -0.2328
10708SOL    HW140902   0.016   7.064   8.487 -1.3734  0.0117 -1.3910
10708SOL    HW240903  -0.014   7.190   8.409  0.1473  0.9818 -0.4494
10709SOL     OW40904   2.864   1.526   6.434  0.0970 -0.1847  0.4749
10709SOL    HW140905   2.846   1.582   6.510  1.0315 -0.9596  1.3019
10709SOL    HW240906   2.844   1.437   6.466 -2.3701 -0.3063 -1.1166
10710SOL     OW40907   4.697   1.280   3.799 -0.3965  0.0644 -0.3839
10710SOL    HW140908   4.788   1.306   3.809 -0.7138  0.7373  0.9542
10710SOL    HW240909   4.701   1.192   3.762  0.7974 -0.0177 -0.0917
10711SOL     OW40910  11.132   2.529   0.694  0.3374  0.1132 -0.3077
10711SOL    HW140911  11.063   2.506   0.632  1.6874  0.5493 -2.0442
10711SOL    HW240912  11.170   2.609   0.659  0.5578  0.9171  1.6158
10712SOL     OW40913   9.689   5.898   1.422  0.0022  0.2481 -0.2036
10712SOL    HW140914   9.772   5.850   1.421  0.0015  0.2583 -0.8224
10712SOL    HW240915   9.709   5.983   1.383 -0.1395  0.5277  0.3195
10713SOL     OW40916   2.856   6.428   5.924  0.3941  0.7436 -0.2641
10713SOL    HW140917   2.810   6.370   5.984  0.7010  0.3292 -0.4205
10713SOL    HW240918   2.892   6.497   5.979  1.8458 -0.3650  0.2486
10714SOL     OW40919   1.449   2.712   7.389 -0.3258  0.0760  0.1761
10714SOL    HW140920   1.367   2.712   7.339 -0.9408 -0.6287  1.1549
10714SOL    HW240921   1.507   2.654   7.340  0.0119  1.4309 -1.1357
10715SOL     OW40922   7.018  12.000   0.667  0.3360 -0.1031 -0.0846
10715SOL    HW140923   6.935  12.035   0.699  0.7572  1.9419 -1.0668
10715SOL    HW240924   6.997  11.964   0.581  0.2664 -0.6158  0.1423
10716SOL     OW40925   1.044  10.670   3.744  0.2436  0.0631  0.3877
10716SOL    HW140926   1.135  10.658   3.716 -0.3145 -0.4641 -1.2918
10716SOL    HW240927   1.010  10.738   3.685 -0.0147  1.4641  2.0724
10717SOL     OW40928   4.905  12.574   7.462  0.7981  0.1115 -0.3771
10717SOL    HW140929   4.956  12.654   7.472  1.7924 -0.3882 -1.2402
10717SOL    HW240930   4.887  12.546   7.551  2.9764 -0.2621  0.0011
10718SOL     OW40931   2.575   8.768   0.717 -0.1201 -0.5290 -0.1260
10718SOL    HW140932   2.665   8.775   0.747  0.0537  2.5043 -1.0141
10718SOL    HW240933   2.522   8.788   0.794  0.0399 -0.5103 -0.0215
10719SOL     OW40934   4.572   3.548   8.115  0.5254 -0.0961  0.1284
10719SOL    HW140935   4.494   3.525   8.065  0.2371  1.0724  0.0098
10719SOL    HW240936   4.547   3.533   8.206 -0.0437  0.8168  0.1302
10720SOL     OW40937   4.899   0.308   5.219 -0.2463  0.9170 -0.3048
10720SOL    HW140938   4.918   0.216   5.240  1.8436  0.5923 -3.0389
10720SOL    HW240939   4.830   0.333   5.281  1.0128 -1.6313  2.3956
10721SOL     OW40940  12.510   3.810   5.662 -0.4364  0.7421 -0.1876
10721SOL    HW140941  12.528   3.904   5.661 -0.8971  0.9138  1.8726
10721SOL    HW240942  12.585   3.772   5.708 -0.1956  0.0714 -1.1138
10722SOL     OW40943   6.021   1.005   9.246  0.4916 -0.4747 -0.6374
10722SOL    HW140944   6.108   0.965   9.250 -0.1828 -1.9178  0.2837
10722SOL    HW240945   5.992   0.988   9.156  0.9167 -0.5106 -0.7720
10723SOL     OW40946  10.156   0.211   3.182  0.1993 -0.5813 -0.4466
10723SOL    HW140947  10.065   0.206   3.154  0.6177 -0.2964 -1.9253
10723SOL    HW240948  10.207   0.197   3.103  1.4482  0.3476  0.1486
10724SOL     OW40949   4.144   9.387  11.709 -0.0766  0.6467 -0.3662
10724SOL    HW140950   4.117   9.463  11.762  1.1362  0.4638  0.5539
10724SOL    HW240951   4.199   9.336  11.768 -0.7578 -0.8923 -1.0248
10725SOL     OW40952  11.309   3.262   6.108 -0.3441 -0.8833  0.1230
10725SOL    HW140953  11.232   3.293   6.155  0.1364 -1.3503  1.2515
10725SOL    HW240954  11.375   3.331   6.122 -0.9384  0.2059 -2.0167
10726SOL     OW40955  12.359   9.772   2.633 -0.2932  0.4503 -0.5186
10726SOL    HW140956  12.379   9.748   2.723 -0.1577 -0.4730 -0.7754
10726SOL    HW240957  12.264   9.768   2.627 -0.2729 -0.1657 -0.5767
10727SOL     OW40958   9.005   5.997  11.504  0.0597 -0.4247 -0.0407
10727SOL    HW140959   9.064   6.072  11.504 -0.2156 -0.1654  1.6677
10727SOL    HW240960   8.950   6.009  11.427  0.2750  0.9353 -0.0024
10728SOL     OW40961   5.151  11.193   7.138 -0.2336  0.3354  0.3920
10728SOL    HW140962   5.162  11.142   7.058 -0.6854 -1.1976  1.2660
10728SOL    HW240963   5.099  11.136   7.195 -3.1007  2.7803  0.4572
10729SOL     OW40964   4.935   3.004   9.655 -0.0065 -0.0933 -0.2262
10729SOL    HW140965   4.957   2.924   9.609 -1.9357 -0.0973 -1.1957
10729SOL    HW240966   4.915   3.068   9.586  0.8473  1.0590  0.5387
10730SOL     OW40967   0.896   5.577   1.497  0.5156  0.7852  0.2878
10730SOL    HW140968   0.844   5.518   1.441  1.9699 -0.5123  0.2436
10730SOL    HW240969   0.914   5.653   1.441  0.8791  0.0666 -0.5981
10731SOL     OW40970   1.303   6.368   4.663  0.1131  0.2002  0.2672
10731SOL    HW140971   1.314   6.403   4.752  0.1850  0.0564  0.3154
10731SOL    HW240972   1.383   6.317   4.648  1.0483  1.8366 -0.6334
10732SOL     OW40973   2.780   8.792  10.606  0.1745 -0.6093 -0.3170
10732SOL    HW140974   2.762   8.824  10.694  0.2706  2.2964 -1.2613
10732SOL    HW240975   2.845   8.854  10.571 -0.5365 -1.1426 -2.7346
10733SOL     OW40976  10.242   2.418   2.810 -0.6382  0.4356  1.0501
10733SOL    HW140977  10.239   2.323   2.823  0.2247  0.2929  0.3247
10733SOL    HW240978  10.151   2.442   2.791 -0.9723 -0.1397  1.8762
10734SOL     OW40979   6.122  11.256   6.675 -0.0354  0.2455 -0.0276
10734SOL    HW140980   6.122  11.240   6.580  0.5953 -0.3319  0.0567
10734SOL    HW240981   6.032  11.241   6.702 -0.2034  0.3434 -0.5314
10735SOL     OW40982   4.853   2.656   5.209 -0.4955  0.1361 -0.1090
10735SOL    HW140983   4.833   2.679   5.118 -2.2420 -1.4744 -0.1970
10735SOL    HW240984   4.803   2.576   5.225  0.3494 -0.0288  2.0658
10736SOL     OW40985   9.451   5.239   1.890  0.8212  0.5758 -0.4686
10736SOL    HW140986   9.438   5.196   1.975  1.4366  0.7558 -0.2749
10736SOL    HW240987   9.402   5.321   1.897  0.8967  0.6059 -0.2666
10737SOL     OW40988  10.524   3.944   9.615 -0.1841  0.2709 -0.3245
10737SOL    HW140989  10.520   3.973   9.706 -0.5297  1.6028 -0.7292
10737SOL    HW240990  10.506   3.850   9.618 -1.7049  0.5552  0.8516
10738SOL     OW40991   6.738   5.379   1.325  0.1277  0.1072  0.0380
10738SOL    HW140992   6.782   5.402   1.407  1.8863  4.3765 -1.7991
10738SOL    HW240993   6.797   5.315   1.283 -0.4841 -1.6267  1.6615
10739SOL     OW40994   7.670   6.139   2.782  0.1703  0.1344  0.1007
10739SOL    HW140995   7.722   6.209   2.742  0.8041 -0.1370  0.4329
10739SOL    HW240996   7.735   6.075   2.813 -0.3618 -0.2304  0.4916
10740SOL     OW40997  10.154   9.303   0.810  0.0412  0.1217  0.5532
10740SOL    HW140998  10.229   9.361   0.823  0.3938  0.2894 -1.8073
10740SOL    HW240999  10.103   9.344   0.740  0.0773 -2.1216 -0.9238
10741SOL     OW41000  12.433  10.203  11.774 -0.9333 -0.4011 -0.5002
10741SOL    HW141001  12.399  10.292  11.772 -0.4139 -0.2108 -1.1801
10741SOL    HW241002  12.446  10.184  11.867 -1.2830  0.1306 -0.3374
10742SOL     OW41003   9.159   0.423  10.616  0.0385 -0.4662  0.9623
10742SOL    HW141004   9.146   0.362  10.543 -2.8266  1.0658  0.0474
10742SOL    HW241005   9.085   0.408  10.674 -1.6370  2.9081 -0.0062
10743SOL     OW41006   4.436   7.193  10.366  0.0104  0.2017 -0.3421
10743SOL    HW141007   4.508   7.224  10.420  1.5311 -3.7786  0.2200
10743SOL    HW241008   4.358   7.228  10.407  1.3450  0.3934  2.2039
10744SOL     OW41009   9.564   6.630   9.547 -0.0004  0.5285  0.1342
10744SOL    HW141010   9.521   6.546   9.557  1.5750 -0.2304  1.0333
10744SOL    HW241011   9.560   6.649   9.453  1.0170 -1.3629 -0.3407
10745SOL     OW41012  11.345   3.730  12.325 -0.2418  0.2534 -0.0052
10745SOL    HW141013  11.299   3.678  12.391  2.1748 -0.1685  1.4936
10745SOL    HW241014  11.389   3.666  12.270  0.0061  0.6582 -0.2824
10746SOL     OW41015   4.298  11.490  11.973 -0.1813  0.3835  0.2734
10746SOL    HW141016   4.244  11.427  11.927  0.1768  1.1727 -1.2926
10746SOL    HW241017   4.317  11.558  11.909 -1.0797  2.4465  2.0525
10747SOL     OW41018   9.042  10.201   2.949  0.2984  0.1214 -0.2523
10747SOL    HW141019   9.037  10.139   2.876 -0.5834 -0.3185  0.1657
10747SOL    HW241020   9.126  10.246   2.937  2.3868 -3.0931  1.0164
10748SOL     OW41021   1.270   6.713   6.236  0.3396 -0.0413  0.0361
10748SOL    HW141022   1.361   6.705   6.265  0.3818 -0.1348 -0.1182
10748SOL    HW241023   1.271   6.785   6.173  0.1920  0.3600  0.4913
10749SOL     OW41024   6.100   4.506   8.777  0.1514  0.0723  0.1167
10749SOL    HW141025   6.012   4.484   8.745  0.4053 -1.0129  0.0981
10749SOL    HW241026   6.125   4.582   8.726 -1.0090  0.7725  0.5475
10750SOL     OW41027   0.208   1.375  10.610 -0.3025  0.3587  0.1790
10750SOL    HW141028   0.282   1.435  10.623  0.4651 -0.3665 -0.6467
10750SOL    HW241029   0.170   1.365  10.697  0.6590  0.6624  0.6546
10751SOL     OW41030   2.985  12.492   1.282 -0.5149 -0.1489 -0.3833
10751SOL    HW141031   3.053  12.433   1.250 -1.2729  0.1377 -2.7340
10751SOL    HW241032   2.912  12.479   1.222 -2.0323  0.5943  1.2081
10752SOL     OW41033   6.546   9.907   3.231 -0.2585 -0.0253 -0.2006
10752SOL    HW141034   6.618   9.963   3.205 -0.8024  0.1341 -1.4083
10752SOL    HW241035   6.467   9.958   3.211 -0.7376 -0.7092 -0.1042
10753SOL     OW41036   6.541   6.790   4.868 -0.5562 -0.1752  0.0219
10753SOL    HW141037   6.526   6.816   4.777 -0.1583  2.0824  0.5384
10753SOL    HW241038   6.547   6.873   4.916 -1.2230 -1.3185  2.1949
10754SOL     OW41039   6.610  11.630   1.362 -0.5202 -0.3549  0.4119
10754SOL    HW141040   6.610  11.704   1.301  0.4706 -0.6311  0.0541
10754SOL    HW241041   6.668  11.565   1.322 -1.1697 -1.2246  0.8477
10755SOL     OW41042   5.042   9.853  11.536 -0.0196 -0.1717 -0.1811
10755SOL    HW141043   4.959   9.847  11.584 -0.3591 -1.2499 -0.8852
10755SOL    HW241044   5.055   9.947  11.523 -1.1766  0.0105 -0.1390
10756SOL     OW41045   1.885   9.872   6.987 -0.5385 -0.6228  0.0289
10756SOL    HW141046   1.960   9.871   7.047 -0.4767 -0.6280 -0.0485
10756SOL    HW241047   1.830   9.799   7.017 -1.3287  0.3699  1.1119
10757SOL     OW41048   1.263   3.746   2.378  0.0175  0.2589  0.4472
10757SOL    HW141049   1.328   3.740   2.448  0.7592  0.6547 -0.1884
10757SOL    HW241050   1.315   3.753   2.298 -0.7411  2.8210  0.0857
10758SOL     OW41051   6.140   5.247   5.581 -0.5318 -0.2524  0.6689
10758SOL    HW141052   6.179   5.185   5.519  2.1499  2.3277 -0.4601
10758SOL    HW241053   6.056   5.270   5.543 -0.2544 -0.9756 -0.4242
10759SOL     OW41054   0.954   8.891  10.971 -0.3106 -0.4309  0.1532
10759SOL    HW141055   1.029   8.860  11.023 -0.5683  0.9768  1.4134
10759SOL    HW241056   0.879   8.845  11.009 -0.3607 -0.2021  0.3336
10760SOL     OW41057   1.105   5.700   8.413  0.6554  0.2690 -0.6153
10760SOL    HW141058   1.186   5.714   8.462  0.8697 -1.5633 -0.3565
10760SOL    HW241059   1.112   5.610   8.382 -1.8178 -0.3567  0.4448
10761SOL     OW41060  10.019   6.542   3.332  0.8057  0.0454 -0.1261
10761SOL    HW141061  10.038   6.582   3.417 -0.0901  0.5515 -0.1523
10761SOL    HW241062   9.927   6.563   3.315  0.8654 -0.3673 -1.0509
10762SOL     OW41063   0.039   2.115   7.632  0.3777  0.1718 -0.4361
10762SOL    HW141064  -0.044   2.159   7.615  0.1109  0.4406  1.3841
10762SOL    HW241065   0.014   2.025   7.653  0.7415 -0.2917 -1.8604
10763SOL     OW41066  11.756   7.315  11.921 -0.2869  0.1775  0.2176
10763SOL    HW141067  11.738   7.228  11.887  1.2347 -0.0546 -0.0672
10763SOL    HW241068  11.690   7.329  11.988 -2.5771  0.1277 -1.9162
10764SOL     OW41069  10.654   6.396   7.779  0.7995  0.1788  0.1781
10764SOL    HW141070  10.695   6.416   7.863 -0.3058  4.0699  0.0071
10764SOL    HW241071  10.724   6.406   7.715  1.3503 -1.5215  0.4713
10765SOL     OW41072   5.356   0.896   9.475 -0.1148  0.1353  0.2280
10765SOL    HW141073   5.292   0.955   9.435  1.0108  2.0615  1.1312
10765SOL    HW241074   5.352   0.915   9.568  0.2633 -1.2848  0.5607
10766SOL     OW41075   9.737   8.724   0.941 -0.2635 -0.1279  0.5170
10766SOL    HW141076   9.746   8.659   0.872 -1.0173  0.2714  0.0360
10766SOL    HW241077   9.774   8.804   0.903 -0.0195 -0.0876  0.8376
10767SOL     OW41078   6.488   6.683   9.423 -0.5151 -0.2126 -0.1617
10767SOL    HW141079   6.574   6.722   9.434 -0.0168 -1.0974 -0.7388
10767SOL    HW241080   6.433   6.723   9.491  0.8860 -1.1858  1.6326
10768SOL     OW41081   1.095  11.932   5.922  0.3320  0.0606  0.2251
10768SOL    HW141082   1.095  11.929   5.826  0.0887 -1.0586  0.2488
10768SOL    HW241083   1.141  12.013   5.943 -1.4163  1.4000 -0.8453
10769SOL     OW41084  10.711   5.902   0.491 -0.1398 -0.7881 -0.1125
10769SOL    HW141085  10.716   5.824   0.548 -0.9064  0.2516  1.4621
10769SOL    HW241086  10.760   5.969   0.539 -0.6896  0.0808 -0.7569
10770SOL     OW41087  10.814   8.938   2.875 -0.4006  0.3809  0.4729
10770SOL    HW141088  10.742   8.892   2.832  0.4586 -1.2024  0.6177
10770SOL    HW241089  10.823   8.895   2.960  0.9808  0.2107  0.2732
10771SOL     OW41090   8.214   2.600   9.925  0.4065  0.1734  0.0606
10771SOL    HW141091   8.242   2.608   9.834  1.2099 -0.8124  0.1972
10771SOL    HW241092   8.139   2.541   9.922  0.2748  0.3445  0.0080
10772SOL     OW41093   2.433  10.420  10.158 -0.0670 -0.3134 -0.0350
10772SOL    HW141094   2.475  10.368  10.089  1.6939  0.2535  0.5390
10772SOL    HW241095   2.420  10.359  10.230 -0.9507 -0.6640 -0.4772
10773SOL     OW41096   8.705   3.395   0.872  0.8797  0.1614 -0.1465
10773SOL    HW141097   8.772   3.408   0.938  1.2032 -1.6428 -0.0719
10773SOL    HW241098   8.754   3.376   0.792  0.4897 -1.6283  0.0101
10774SOL     OW41099  12.476   3.262   3.038  0.0043 -0.2793  0.2364
10774SOL    HW141100  12.464   3.305   2.953  2.6803 -0.6820 -0.4387
10774SOL    HW241101  12.463   3.332   3.102  1.0416  0.8098 -0.6866
10775SOL     OW41102   7.205  12.481   3.960  0.0849 -0.2113  0.1207
10775SOL    HW141103   7.283  12.438   3.925  0.4669  0.9975 -0.5820
10775SOL    HW241104   7.239  12.540   4.028 -0.2781 -0.0817  0.1889
10776SOL     OW41105  11.405   0.679   7.830 -0.4981  0.4657 -0.2320
10776SOL    HW141106  11.442   0.659   7.744 -1.0307 -1.6353 -0.0329
10776SOL    HW241107  11.467   0.641   7.892 -0.9220  0.5479  0.2479
10777SOL     OW41108  11.896   8.061   6.627 -0.5810 -0.0064 -0.4329
10777SOL    HW141109  11.938   8.085   6.544  0.4236 -2.3320 -0.6850
10777SOL    HW241110  11.814   8.020   6.601 -0.4291 -0.4204 -0.2618
10778SOL     OW41111   2.523   6.640   6.408 -0.0360 -0.3514 -0.0989
10778SOL    HW141112   2.556   6.600   6.488  0.7195  2.2360  1.0120
10778SOL    HW241113   2.435   6.671   6.431  0.8861  2.0648  0.4374
10779SOL     OW41114   8.345   2.924   7.279  0.1122 -0.0501 -0.2777
10779SOL    HW141115   8.262   2.969   7.262  0.7826  0.7917 -1.4364
10779SOL    HW241116   8.321   2.832   7.286 -1.3968  0.4548  2.8050
10780SOL     OW41117  10.932  11.338  10.856  0.0607  0.2448  0.5222
10780SOL    HW141118  10.848  11.378  10.879  0.3529  1.0327  0.2608
10780SOL    HW241119  10.984  11.346  10.936 -0.3341 -0.8973  0.9178
10781SOL     OW41120   0.232   5.806   4.787 -1.1510 -0.3721 -0.4119
10781SOL    HW141121   0.228   5.760   4.703 -0.5612 -0.9972 -0.1118
10781SOL    HW241122   0.150   5.782   4.830 -1.8127  0.5789 -1.1130
10782SOL     OW41123   0.742   3.943   7.031  0.1604  0.5960  0.1177
10782SOL    HW141124   0.761   3.856   6.993  0.2069  1.1040 -1.0743
10782SOL    HW241125   0.655   3.964   6.998  0.0046  0.8565  0.6943
10783SOL     OW41126   5.226   9.032   8.793 -0.6054 -0.2413 -0.0637
10783SOL    HW141127   5.207   8.965   8.727 -1.3782  0.5085 -0.6276
10783SOL    HW241128   5.142   9.046   8.836 -0.6223  0.8701 -0.4416
10784SOL     OW41129   0.200   5.413  11.906  0.9762 -0.1667  0.2176
10784SOL    HW141130   0.143   5.406  11.830  0.1448  2.0811  0.5407
10784SOL    HW241131   0.278   5.362  11.883  0.4009 -0.2327 -1.7672
10785SOL     OW41132   3.636   8.609   5.074 -0.5720 -0.5753  0.3077
10785SOL    HW141133   3.620   8.578   4.985 -1.3748 -1.7509  0.8319
10785SOL    HW241134   3.706   8.674   5.065 -0.4719 -0.8526 -1.1399
10786SOL     OW41135   7.628   6.584   3.730 -0.2143  0.2028 -0.1002
10786SOL    HW141136   7.577   6.637   3.792 -0.1104  1.6257 -1.1771
10786SOL    HW241137   7.583   6.596   3.646  0.5483 -0.4300 -0.6151
10787SOL     OW41138   4.548   2.036  11.359  0.0101  0.2451  0.6713
10787SOL    HW141139   4.521   2.087  11.283  1.2762 -0.4335 -0.2887
10787SOL    HW241140   4.612   2.091  11.404  0.0878  0.1998  0.6155
10788SOL     OW41141   3.548   1.896   8.677 -0.0677  0.1760  0.4379
10788SOL    HW141142   3.590   1.866   8.758  0.7685 -2.8589 -0.9952
10788SOL    HW241143   3.487   1.826   8.654  1.4046 -0.2342 -2.7457
10789SOL     OW41144  10.832   0.633   7.742  0.1306  0.1852 -0.5120
10789SOL    HW141145  10.803   0.555   7.789 -2.1665  1.7501  0.8276
10789SOL    HW241146  10.910   0.662   7.789  0.5873 -0.8694 -0.5887
10790SOL     OW41147   1.710   9.493  10.947  0.3202 -0.7242 -0.2191
10790SOL    HW141148   1.805   9.500  10.940  0.3145 -1.6118 -1.6662
10790SOL    HW241149   1.678   9.519  10.860 -0.5711 -2.9268 -0.6280
10791SOL     OW41150   5.719   8.821  10.819 -0.7303 -0.0665  0.6988
10791SOL    HW141151   5.749   8.912  10.822 -0.3609 -0.0626 -1.2908
10791SOL    HW241152   5.693   8.800  10.909 -1.9568  2.3816  1.0006
10792SOL     OW41153   9.602   1.677   5.679  0.0668 -0.3632  0.2376
10792SOL    HW141154   9.620   1.686   5.773  0.0431 -0.9209  0.2941
10792SOL    HW241155   9.673   1.726   5.637 -0.2732  0.4358  0.5550
10793SOL     OW41156   8.182   7.230   7.285 -0.6920  0.0938 -0.7057
10793SOL    HW141157   8.147   7.142   7.302  0.4764  0.1029  2.3163
10793SOL    HW241158   8.136   7.286   7.348  1.0022  1.0127 -0.2524
10794SOL     OW41159   3.983   1.994   8.241  0.1847  0.5318  0.4220
10794SOL    HW141160   3.949   1.911   8.273  0.1488  0.2994 -0.2028
10794SOL    HW241161   3.906   2.052   8.239 -0.0679  0.1909 -0.3820
10795SOL     OW41162  11.286  10.144  10.370 -0.4166  0.2190  0.0448
10795SOL    HW141163  11.294  10.176  10.460  0.0779  1.5145 -0.4289
10795SOL    HW241164  11.256  10.054  10.379  1.7331 -0.4339  1.5890
10796SOL     OW41165   4.334  10.337   4.209 -0.2114  0.5546 -0.4035
10796SOL    HW141166   4.290  10.422   4.213 -0.1033  0.5921  0.1327
10796SOL    HW241167   4.298  10.288   4.283  0.4423  0.4851 -0.1228
10797SOL     OW41168   7.629   4.825   8.843 -0.4540  0.1737  0.0800
10797SOL    HW141169   7.667   4.886   8.905  0.7557  1.6125 -1.9694
10797SOL    HW241170   7.566   4.877   8.793 -0.8335 -0.7407 -0.4179
10798SOL     OW41171   3.602   5.640   3.989 -0.4212  0.2615  0.0265
10798SOL    HW141172   3.659   5.716   3.977 -0.1013 -0.0202 -0.2202
10798SOL    HW241173   3.524   5.661   3.936  0.8556 -0.8388 -2.4315
10799SOL     OW41174  10.703   0.943   3.083  0.4198 -0.6311 -0.1462
10799SOL    HW141175  10.621   0.911   3.120 -0.3154  0.3571 -0.8652
10799SOL    HW241176  10.676   1.012   3.022  1.6957 -1.1051 -1.2854
10800SOL     OW41177   0.396  11.765   7.226  0.1585  0.0244  0.5406
10800SOL    HW141178   0.339  11.708   7.173 -0.9549  1.0937  0.5494
10800SOL    HW241179   0.484  11.743   7.198 -0.0679 -3.0343  1.8286
10801SOL     OW41180   1.956   8.240   4.998  0.0654 -0.2166 -0.2118
10801SOL    HW141181   1.892   8.292   5.047 -0.3667  1.8793 -2.7470
10801SOL    HW241182   1.903   8.190   4.936  0.7337 -0.3601 -0.6775
10802SOL     OW41183   6.057   4.082  10.000  0.6635  0.3003 -0.8000
10802SOL    HW141184   5.981   4.113  10.048  2.0447  0.4169  1.4189
10802SOL    HW241185   6.031   4.089   9.908 -2.2976 -0.4843 -0.1328
10803SOL     OW41186   5.052   0.155   4.316  0.0172 -0.3266  0.1192
10803SOL    HW141187   5.084   0.078   4.363  0.9151 -0.6700 -1.0152
10803SOL    HW241188   5.093   0.149   4.230 -0.5871  0.9696 -0.2774
10804SOL     OW41189   7.310   1.598   2.528  0.0180 -0.0213  0.0245
10804SOL    HW141190   7.344   1.667   2.472 -0.2297  0.0978  0.0204
10804SOL    HW241191   7.341   1.517   2.487  1.1475  0.1067  0.5754
10805SOL     OW41192   8.401  11.291   2.877  0.1321  0.2738 -0.3161
10805SOL    HW141193   8.342  11.289   2.952  1.0878  3.1761  0.6508
10805SOL    HW241194   8.342  11.293   2.801 -0.9986  1.5851  0.5521
10806SOL     OW41195   4.226   7.858  11.494 -0.0026 -0.6403  0.1457
10806SOL    HW141196   4.165   7.922  11.531  1.9255  1.6551 -0.4030
10806SOL    HW241197   4.189   7.834  11.410  0.8285  2.4939 -1.2510
10807SOL     OW41198  12.315   3.172   4.868  0.1058 -0.5561  0.7752
10807SOL    HW141199  12.331   3.263   4.892  0.2542 -0.4169  0.1566
10807SOL    HW241200  12.344   3.122   4.945 -0.6225 -0.0550  1.4012
10808SOL     OW41201   3.897  11.870   6.690 -0.7464  0.1210  0.2699
10808SOL    HW141202   3.873  11.780   6.708 -0.6746  0.0922  0.2221
10808SOL    HW241203   3.901  11.876   6.594 -1.5280  0.3779  0.2480
10809SOL     OW41204   5.011   6.872   6.135 -0.5501  0.5703 -0.3554
10809SOL    HW141205   5.078   6.807   6.159 -0.7325  0.6928  0.5245
10809SOL    HW241206   4.982   6.908   6.219 -1.4006  0.8432 -0.7580
10810SOL     OW41207   8.210   7.138   1.072  0.5595 -0.4588  0.0010
10810SOL    HW141208   8.143   7.075   1.044  0.0737 -0.4550  1.1061
10810SOL    HW241209   8.218   7.199   0.998 -0.8516 -0.3111 -0.0593
10811SOL     OW41210   6.209   2.606  10.567 -0.1413 -0.3463 -0.1450
10811SOL    HW141211   6.260   2.572  10.494  0.5622  0.3903 -0.0096
10811SOL    HW241212   6.265   2.674  10.606 -1.5931  1.1681 -0.5722
10812SOL     OW41213   3.616   0.282   3.798 -0.3280 -0.1109 -0.4116
10812SOL    HW141214   3.599   0.350   3.733 -0.8754  1.2817  1.1347
10812SOL    HW241215   3.540   0.225   3.793 -0.4397  0.0692 -0.8633
10813SOL     OW41216   6.273   6.669  10.509  0.2245  0.6002  0.2280
10813SOL    HW141217   6.243   6.747  10.463 -0.1501  0.7763  0.7614
10813SOL    HW241218   6.209   6.601  10.485  0.7502  0.3541 -0.5206
10814SOL     OW41219   6.781  12.591  11.278  0.5807  0.1277  0.1861
10814SOL    HW141220   6.692  12.585  11.311  0.2368  3.3012  0.1782
10814SOL    HW241221   6.773  12.635  11.194  2.1365  0.1509  0.0173
10815SOL     OW41222   7.768  10.881   0.975  0.2010 -0.9709  0.6021
10815SOL    HW141223   7.768  10.971   1.007  1.7270 -0.6699 -0.1369
10815SOL    HW241224   7.838  10.879   0.909 -0.9799 -2.2562 -0.6741
10816SOL     OW41225   2.798   4.034   3.755  0.1271 -0.4729  0.0395
10816SOL    HW141226   2.759   4.035   3.668  0.9824  0.7698 -0.3503
10816SOL    HW241227   2.808   3.941   3.776  1.2000 -0.8132 -1.7735
10817SOL     OW41228   1.885   3.245   8.398 -0.5326  0.0584 -0.4104
10817SOL    HW141229   1.964   3.295   8.422 -1.0227 -0.6132  3.2087
10817SOL    HW241230   1.914   3.154   8.401 -1.3310 -0.1753  0.6541
10818SOL     OW41231  11.434   0.152   7.805  0.8370 -0.7756 -0.4202
10818SOL    HW141232  11.388   0.173   7.886 -0.3502  2.0927 -1.6928
10818SOL    HW241233  11.399   0.067   7.778 -1.6497 -0.0342  0.1725
10819SOL     OW41234  12.530   5.881   2.415  0.3123 -0.4629  0.3259
10819SOL    HW141235  12.554   5.837   2.333  1.1158 -3.1828  1.8966
10819SOL    HW241236  12.611   5.885   2.465 -0.0364  1.7405  0.8020
10820SOL     OW41237   3.381   7.501   9.467  0.1155  0.0561 -0.3928
10820SOL    HW141238   3.337   7.418   9.452  2.4081 -1.2047 -0.7190
10820SOL    HW241239   3.468   7.476   9.501  0.9976  2.2978 -0.8143
10821SOL     OW41240   0.096   2.253   8.230  0.0809  0.0141 -0.0811
10821SOL    HW141241   0.060   2.262   8.319 -0.6435 -2.5615 -0.0331
10821SOL    HW241242   0.105   2.158   8.217  0.7103  0.3437 -2.5625
10822SOL     OW41243   5.667  12.319   7.077 -0.4211 -0.0580 -0.3966
10822SOL    HW141244   5.734  12.289   7.139 -0.2021  1.2393  0.0371
10822SOL    HW241245   5.663  12.251   7.010  1.1656 -0.2902 -0.2894
10823SOL     OW41246   9.961   2.075  11.540 -0.1571 -0.0282  0.6586
10823SOL    HW141247   9.999   2.014  11.604 -0.2379  1.2034  1.9249
10823SOL    HW241248   9.867   2.068  11.554 -0.3202 -1.2501 -0.7763
10824SOL     OW41249   3.610   1.956  10.512  0.4629  0.1268  0.0407
10824SOL    HW141250   3.594   2.050  10.498  2.7873  0.9200  2.0034
10824SOL    HW241251   3.525   1.922  10.541 -1.3892  0.7565 -3.9815
10825SOL     OW41252   0.601  10.686   8.793 -0.1154 -0.0507  0.7189
10825SOL    HW141253   0.529  10.708   8.734 -0.4340 -1.8265  0.3738
10825SOL    HW241254   0.604  10.590   8.792  0.4981 -0.1123  2.8336
10826SOL     OW41255   6.279   9.466   2.534  0.2946  0.0714 -1.2084
10826SOL    HW141256   6.330   9.388   2.513  1.5973  0.6630 -0.3437
10826SOL    HW241257   6.232   9.486   2.452  0.4709 -1.1924 -1.6494
10827SOL     OW41258   6.766   0.812   8.219 -0.2827  0.1307  0.3726
10827SOL    HW141259   6.705   0.811   8.144 -1.2896 -0.3726  1.1630
10827SOL    HW241260   6.842   0.763   8.188  0.7175  2.6165 -1.3855
10828SOL     OW41261   4.246  12.424  11.271  0.2759 -0.2742  0.2194
10828SOL    HW141262   4.323  12.472  11.239 -0.3188  0.8195  0.3933
10828SOL    HW241263   4.266  12.407  11.363  0.5490 -0.4815  0.1237
10829SOL     OW41264   2.905   4.232   1.101 -1.0761  0.1002 -0.3182
10829SOL    HW141265   2.825   4.269   1.064 -1.5972 -1.3369 -0.7170
10829SOL    HW241266   2.900   4.139   1.078 -0.3874 -0.4421  1.5667
10830SOL     OW41267   1.416   2.592   8.006 -0.1421  0.4327  0.1524
10830SOL    HW141268   1.356   2.570   7.935 -0.3607  2.6994 -0.4442
10830SOL    HW241269   1.358   2.610   8.081 -0.0497  0.3212  0.2515
10831SOL     OW41270  10.721  11.195   4.042  0.5793  0.3908  0.4550
10831SOL    HW141271  10.791  11.256   4.020  2.0052 -0.7319  1.7198
10831SOL    HW241272  10.717  11.134   3.968  1.0203  0.3808  0.4393
10832SOL     OW41273   8.660  10.919  12.270 -0.1178  0.1101  0.1491
10832SOL    HW141274   8.632  11.004  12.237 -0.3802 -0.3169 -0.7465
10832SOL    HW241275   8.749  10.908  12.237  0.6881  0.9044  1.9361
10833SOL     OW41276  12.459   8.248   5.063 -0.1332 -0.0684 -0.0115
10833SOL    HW141277  12.383   8.293   5.100 -0.5917 -0.6888 -0.1741
10833SOL    HW241278  12.423   8.170   5.021  0.0328  1.6894 -3.8182
10834SOL     OW41279   5.792   1.704   9.165 -0.0318  0.4250 -0.0304
10834SOL    HW141280   5.787   1.626   9.109  1.4292  0.2102  0.1062
10834SOL    HW241281   5.756   1.675   9.249  1.5642 -0.4778  0.3798
10835SOL     OW41282  11.423  12.184   7.634  0.8813 -0.6638 -0.2268
10835SOL    HW141283  11.439  12.223   7.549  0.1287  0.5420  0.1654
10835SOL    HW241284  11.468  12.243   7.696 -2.3506  1.1559  0.6254
10836SOL     OW41285  10.381   2.081   5.742 -0.1715 -0.4240  0.1763
10836SOL    HW141286  10.426   2.077   5.658 -1.3881  0.7593 -0.5800
10836SOL    HW241287  10.311   2.146   5.729 -0.4086 -0.2232  2.0927
10837SOL     OW41288   4.432   4.593  12.075 -0.5739 -0.2432 -0.0686
10837SOL    HW141289   4.492   4.641  12.018  2.1116  0.8111  3.3021
10837SOL    HW241290   4.420   4.509  12.032  0.0534  0.9687 -2.8542
10838SOL     OW41291   1.148  12.080   8.494  0.1224  0.3912  0.4885
10838SOL    HW141292   1.239  12.064   8.520  0.4842 -0.6795 -1.2279
10838SOL    HW241293   1.105  11.995   8.506  0.1277  0.0570 -1.4882
10839SOL     OW41294   1.369   2.163  10.716  0.0139 -0.4811 -0.4499
10839SOL    HW141295   1.404   2.234  10.770  0.2372  0.3849 -1.6753
10839SOL    HW241296   1.444   2.132  10.666 -0.5279 -0.0387 -1.5672
10840SOL     OW41297  11.044  10.013  11.490  0.3627  0.3654  0.1595
10840SOL    HW141298  11.077  10.002  11.401 -1.3515 -0.2954 -0.4281
10840SOL    HW241299  11.064  10.105  11.511  0.6013  0.5922 -0.9751
10841SOL     OW41300   0.691   3.209   2.393  0.3953 -0.3228 -0.1493
10841SOL    HW141301   0.651   3.291   2.421 -1.6506  0.0842 -3.6883
10841SOL    HW241302   0.705   3.161   2.474 -0.0751  2.7298  1.9083
10842SOL     OW41303   3.451   5.522   6.440 -0.0648  1.1122 -0.1676
10842SOL    HW141304   3.363   5.559   6.430 -0.6427 -0.3582 -0.8203
10842SOL    HW241305   3.478   5.500   6.351  0.2127 -0.1092  0.2057
10843SOL     OW41306   6.990   3.514   6.780  0.5904 -0.3645 -0.1016
10843SOL    HW141307   7.037   3.465   6.713 -0.6756 -1.5088 -0.1818
10843SOL    HW241308   7.006   3.606   6.758  0.9642 -0.7271 -1.4117
10844SOL     OW41309   1.257   4.332   3.614 -0.1862  0.0629  0.2185
10844SOL    HW141310   1.257   4.316   3.520 -0.5391  0.0386  0.2209
10844SOL    HW241311   1.254   4.244   3.653 -0.8880  0.0910  0.2428
10845SOL     OW41312   3.663   9.608   8.891 -0.3611 -0.2175 -0.2232
10845SOL    HW141313   3.607   9.532   8.878 -0.1754 -0.5749  0.9506
10845SOL    HW241314   3.752   9.572   8.888 -0.2763 -0.0626  0.4152
10846SOL     OW41315   0.298   9.161   8.280 -0.0838 -0.0728  0.4201
10846SOL    HW141316   0.239   9.229   8.312 -0.4641 -1.7635  3.8387
10846SOL    HW241317   0.246   9.112   8.216 -1.1420  0.5519  0.7740
10847SOL     OW41318   6.916  10.576   7.615 -0.0855 -0.1374 -0.0567
10847SOL    HW141319   6.993  10.528   7.643 -0.5930 -2.0152 -1.6641
10847SOL    HW241320   6.843  10.515   7.627 -1.0540  0.9287 -0.3201
10848SOL     OW41321  10.862   9.124  10.314 -0.4285  0.5975  0.0100
10848SOL    HW141322  10.900   9.121  10.401  1.8988  2.2400 -0.8472
10848SOL    HW241323  10.846   9.217  10.298  0.2993  0.4703 -1.7144
10849SOL     OW41324   3.069   7.376  11.878  0.2781 -0.3740 -0.4850
10849SOL    HW141325   3.136   7.444  11.872 -1.1581  1.1073 -0.4541
10849SOL    HW241326   3.023   7.380  11.794 -0.1021 -0.9851 -0.3082
10850SOL     OW41327   5.713   1.354  12.392  0.0162 -0.3770 -0.1356
10850SOL    HW141328   5.754   1.276  12.429 -1.1379 -1.4165 -1.0051
10850SOL    HW241329   5.621   1.347  12.415  0.0618  1.3322  0.7637
10851SOL     OW41330   6.392   6.390  10.194 -0.0893  0.0500 -0.0216
10851SOL    HW141331   6.450   6.456  10.157 -1.3109  0.4770 -1.2352
10851SOL    HW241332   6.395   6.318  10.131  1.3076 -1.1594  1.3304
10852SOL     OW41333   3.279   9.092   4.731  0.1855 -0.4316  0.0057
10852SOL    HW141334   3.304   9.153   4.662 -2.1602  0.9125  0.2229
10852SOL    HW241335   3.238   9.019   4.684  0.2858 -0.4154 -0.1081
10853SOL     OW41336   9.331   5.476   4.029  0.6150 -0.0185 -0.0195
10853SOL    HW141337   9.241   5.477   4.060  1.0761 -1.2057  1.4264
10853SOL    HW241338   9.325   5.508   3.938 -1.5851 -2.3876 -0.8055
10854SOL     OW41339   5.184   7.250   5.578  0.3041  0.7220  0.3634
10854SOL    HW141340   5.133   7.324   5.609  1.0312  1.0367  0.8246
10854SOL    HW241341   5.271   7.262   5.616  1.0916  0.8512 -1.3702
10855SOL     OW41342   2.443  11.387  11.754  0.4096 -0.0210 -0.2389
10855SOL    HW141343   2.417  11.393  11.662 -0.3521  1.8870  0.0565
10855SOL    HW241344   2.534  11.357  11.751  0.5248  0.3883 -1.6408
10856SOL     OW41345   9.206  12.402   7.604  0.0019 -1.0414  0.5885
10856SOL    HW141346   9.186  12.479   7.550  0.7380 -0.7681  0.6826
10856SOL    HW241347   9.173  12.328   7.554 -2.7989 -0.5240  1.5368
10857SOL     OW41348  11.224  12.086   5.193  0.5620  0.2402 -0.0609
10857SOL    HW141349  11.247  12.030   5.267 -1.8318 -0.0012  0.5945
10857SOL    HW241350  11.136  12.118   5.213 -0.6442 -0.6467 -3.2506
10858SOL     OW41351   7.744   5.131   5.360 -0.6400  0.7404 -0.5072
10858SOL    HW141352   7.650   5.130   5.341 -0.6462 -0.2728 -0.4701
10858SOL    HW241353   7.750   5.159   5.451 -1.1834 -2.4901  0.6767
10859SOL     OW41354   5.804   1.104   3.138 -0.0637  0.0397 -0.4774
10859SOL    HW141355   5.853   1.120   3.057  1.3531 -2.0833 -0.1360
10859SOL    HW241356   5.844   1.161   3.203  1.0654 -0.6605 -0.5323
10860SOL     OW41357   3.692   2.490   2.221  0.3512  0.3049 -0.9610
10860SOL    HW141358   3.753   2.425   2.255  1.2951  1.3625 -0.5587
10860SOL    HW241359   3.707   2.490   2.126 -1.2008 -1.5608 -1.2692
10861SOL     OW41360  10.188   8.828  10.463  0.3906 -0.0888  0.3957
10861SOL    HW141361  10.221   8.902  10.514 -0.5757  0.4535  0.2542
10861SOL    HW241362  10.261   8.766  10.461  1.7324  1.4311 -0.6508
10862SOL     OW41363   0.490   5.034   0.627 -0.1853 -0.1817 -0.2949
10862SOL    HW141364   0.577   5.073   0.631  0.6143 -1.9610  1.3912
10862SOL    HW241365   0.431   5.103   0.658  0.4078  1.4129 -2.4714
10863SOL     OW41366   6.012   6.419   5.402  0.4401 -0.2002  0.0322
10863SOL    HW141367   6.014   6.460   5.315 -0.1412 -0.7794 -0.2719
10863SOL    HW241368   6.006   6.492   5.463 -0.3049  0.1940 -0.4839
10864SOL     OW41369  10.752   6.451   6.715  0.0436 -0.0695 -0.4551
10864SOL    HW141370  10.788   6.536   6.693  1.6597 -0.2335  1.3219
10864SOL    HW241371  10.770   6.396   6.639  1.5471  0.4613 -0.4983
10865SOL     OW41372   7.028   5.953  10.313  0.3252 -0.6649  0.1355
10865SOL    HW141373   7.076   5.925  10.235  0.1983 -2.0485  0.5402
10865SOL    HW241374   6.943   5.908  10.307 -0.1773  0.2123  0.4338
10866SOL     OW41375  11.158   2.970   1.965 -0.4894  0.6193 -0.0535
10866SOL    HW141376  11.120   3.055   1.943  0.0720  0.5634 -1.2954
10866SOL    HW241377  11.145   2.917   1.886  2.6515  0.7737 -0.7804
10867SOL     OW41378  10.308  12.129   0.770  0.1545  0.1329  0.1300
10867SOL    HW141379  10.300  12.153   0.678 -0.8069 -0.2222  0.1159
10867SOL    HW241380  10.394  12.088   0.777  0.4813  0.6932 -0.4848
10868SOL     OW41381  11.460  10.383  10.929 -0.3570  0.6643  0.3789
10868SOL    HW141382  11.382  10.430  10.902  0.4032  1.3128 -0.7479
10868SOL    HW241383  11.528  10.412  10.868  0.2289 -1.6015 -0.1371
10869SOL     OW41384   5.571  12.031   1.016  0.0916 -0.0956  0.4223
10869SOL    HW141385   5.506  11.961   1.023 -0.2712  0.3230  1.4890
10869SOL    HW241386   5.615  12.015   0.932 -2.1547  0.2498 -0.9299
10870SOL     OW41387   8.850   5.673   8.461  0.4715 -0.2251  0.0566
10870SOL    HW141388   8.831   5.581   8.479 -0.2932 -0.1943 -0.5176
10870SOL    HW241389   8.825   5.685   8.369 -0.5605  0.8299  0.4488
10871SOL     OW41390   1.284  11.251   9.175 -0.1110 -0.0197  0.3270
10871SOL    HW141391   1.315  11.260   9.085 -1.5247 -2.5629 -0.5196
10871SOL    HW241392   1.194  11.283   9.172 -0.7298 -1.6664  0.3814
10872SOL     OW41393   0.436  11.449   5.676  0.4792  0.1205  0.2280
10872SOL    HW141394   0.502  11.408   5.732  0.6292  0.1966  0.1074
10872SOL    HW241395   0.479  11.456   5.591  0.0457 -0.5491 -0.0588
10873SOL     OW41396   8.994   6.905   2.292 -0.0309  0.0821 -0.3657
10873SOL    HW141397   8.943   6.951   2.226 -2.0234 -0.6327  0.5771
10873SOL    HW241398   9.048   6.843   2.243  0.3080  1.1901 -1.4304
10874SOL     OW41399   4.756   0.235   4.680  0.5000 -0.3386  1.0413
10874SOL    HW141400   4.713   0.240   4.765  2.0063 -1.0178  1.8873
10874SOL    HW241401   4.685   0.226   4.617 -0.6213 -0.3115  2.2787
10875SOL     OW41402   3.628   3.612   0.843  0.3831  0.1367 -0.8875
10875SOL    HW141403   3.603   3.580   0.930  1.8905 -0.2136 -0.5574
10875SOL    HW241404   3.649   3.532   0.794  2.6113  0.4638 -0.5613
10876SOL     OW41405   0.841   1.382   8.453  0.5122  0.7706 -0.0229
10876SOL    HW141406   0.852   1.370   8.547  0.4280 -1.2695 -0.2265
10876SOL    HW241407   0.809   1.472   8.444 -0.2941  0.7372  1.9618
10877SOL     OW41408   2.720   7.717   2.883 -0.1393 -0.5284 -0.1526
10877SOL    HW141409   2.719   7.627   2.849 -0.9044 -0.8387  0.6609
10877SOL    HW241410   2.754   7.770   2.810 -1.3682 -1.2138 -1.2570
10878SOL     OW41411   7.662   8.293   1.892  0.0849 -0.2167  1.0661
10878SOL    HW141412   7.733   8.319   1.950  0.8840 -0.8772  0.3918
10878SOL    HW241413   7.644   8.202   1.916 -1.3912  0.2956  2.0806
10879SOL     OW41414  10.820   8.631  11.115  0.1109  0.1244 -0.2183
10879SOL    HW141415  10.741   8.654  11.164 -0.2411 -1.2014 -0.1416
10879SOL    HW241416  10.791   8.627  11.024  0.1161 -0.2085 -0.2071
10880SOL     OW41417   0.599   1.161   5.881 -0.3671  0.1574  0.1379
10880SOL    HW141418   0.639   1.168   5.968 -0.2382  1.1186  0.0181
10880SOL    HW241419   0.530   1.096   5.891 -1.3035  1.2939  1.3381
10881SOL     OW41420  12.186   8.398   7.625 -0.3120  0.5140 -0.2093
10881SOL    HW141421  12.268   8.350   7.612 -0.1986  0.0007  1.9749
10881SOL    HW241422  12.213   8.482   7.662 -0.7387  0.5357  0.0604
10882SOL     OW41423   1.388  10.974   5.681 -0.0798 -0.0797 -0.4925
10882SOL    HW141424   1.470  10.932   5.653  1.4317  1.1623  1.7977
10882SOL    HW241425   1.345  10.999   5.599  1.6718 -1.0416 -1.7786
10883SOL     OW41426  11.792  10.634  11.825  0.2710  0.0270  0.1139
10883SOL    HW141427  11.765  10.721  11.855 -0.1203  0.0335 -0.2570
10883SOL    HW241428  11.859  10.607  11.888 -1.2595 -0.3932  1.6063
10884SOL     OW41429   0.823   3.648   2.971  0.3191 -0.0703 -0.2161
10884SOL    HW141430   0.907   3.622   2.934  0.0005  0.5436 -1.4177
10884SOL    HW241431   0.759   3.595   2.925  0.0686 -1.0518  1.1999
10885SOL     OW41432   5.167   5.728   4.497  0.7645  0.3471 -0.3916
10885SOL    HW141433   5.184   5.667   4.569  1.7158  0.3369 -0.6152
10885SOL    HW241434   5.240   5.790   4.501  0.5268  0.6748 -1.0103
10886SOL     OW41435   0.693   2.363  11.736 -0.6716  0.5865 -0.4231
10886SOL    HW141436   0.747   2.325  11.666 -1.3424  0.9054 -1.1239
10886SOL    HW241437   0.727   2.452  11.746 -1.1968  0.8578 -1.0115
10887SOL     OW41438   8.268   1.703   8.634  0.0231 -0.1149  0.5161
10887SOL    HW141439   8.307   1.624   8.597 -0.5559  0.1373 -0.6711
10887SOL    HW241440   8.337   1.739   8.691 -0.0585 -1.9724  1.8760
10888SOL     OW41441   2.292  11.798   3.188 -0.5492 -0.2200 -0.2765
10888SOL    HW141442   2.296  11.876   3.243 -2.5372  0.6363 -1.2697
10888SOL    HW241443   2.327  11.728   3.243 -0.0216  1.0861  1.1142
10889SOL     OW41444   7.993  12.527   3.128  0.0700  0.0104  0.0396
10889SOL    HW141445   8.071  12.578   3.151  0.7027 -1.2293  0.7653
10889SOL    HW241446   7.923  12.591   3.121  0.5691  0.8510  2.1068
10890SOL     OW41447   4.536   5.593   5.178 -0.3186  0.3998  0.2597
10890SOL    HW141448   4.456   5.643   5.194 -0.8391 -0.1752 -0.4680
10890SOL    HW241449   4.514   5.504   5.208  0.8584  0.7329  2.2937
10891SOL     OW41450   6.719  10.608  12.609  0.1727  0.4103 -0.1627
10891SOL    HW141451   6.777  10.684  12.601 -1.2823  1.4221 -1.9866
10891SOL    HW241452   6.641  10.643  12.651  0.0434 -0.4209  0.2948
10892SOL     OW41453   9.806   7.815   3.228 -0.4009 -0.0284  0.1499
10892SOL    HW141454   9.723   7.768   3.237 -1.9796  2.5534  0.2858
10892SOL    HW241455   9.868   7.766   3.281 -2.1828 -1.2951  1.1773
10893SOL     OW41456   0.182   8.941  11.670  0.0003 -0.2133 -0.1071
10893SOL    HW141457   0.222   8.980  11.748 -0.0149  0.9815 -0.6652
10893SOL    HW241458   0.254   8.933  11.608 -0.4726  1.3809 -0.9036
10894SOL     OW41459   4.437   8.878   2.942  0.2033  0.2867  0.7812
10894SOL    HW141460   4.363   8.938   2.940 -0.7822 -0.8342  1.6593
10894SOL    HW241461   4.466   8.877   3.033  0.7268  0.0372  0.6228
10895SOL     OW41462   2.162   6.743  11.486 -0.1886  0.1709  0.0908
10895SOL    HW141463   2.174   6.818  11.427 -1.8598  0.2188 -0.2252
10895SOL    HW241464   2.068   6.741  11.504  0.0042 -1.0990  1.1168
10896SOL     OW41465   3.229   9.326   5.625 -0.4027  0.0889 -0.3840
10896SOL    HW141466   3.234   9.283   5.711 -0.3541 -0.4673 -0.6651
10896SOL    HW241467   3.136   9.329   5.605 -0.3660 -0.4302 -0.6381
10897SOL     OW41468   1.660   1.199   0.247  0.5885  0.1907  0.1051
10897SOL    HW141469   1.717   1.199   0.170 -0.0373  1.4923 -0.3905
10897SOL    HW241470   1.642   1.291   0.264 -0.4094 -0.1337  0.9744
10898SOL     OW41471   2.576   3.490   0.911  0.0363  0.3649 -0.2160
10898SOL    HW141472   2.537   3.407   0.882 -0.6840  0.3502  0.7351
10898SOL    HW241473   2.585   3.542   0.831 -1.8368  0.3040 -0.5110
10899SOL     OW41474   3.012  10.925   1.365  0.0835  0.1811  0.4039
10899SOL    HW141475   2.927  10.967   1.383  0.1230 -0.8333  3.6084
10899SOL    HW241476   2.989  10.837   1.336  0.0760  0.7783 -1.5415
10900SOL     OW41477  10.812   3.740   7.009 -0.1523  0.1371  0.4623
10900SOL    HW141478  10.730   3.783   6.988 -0.4680  0.0901  1.5460
10900SOL    HW241479  10.813   3.734   7.105  0.3052 -1.4172  0.3927
10901SOL     OW41480   0.361  10.502   9.862  0.3650  0.2308 -0.0121
10901SOL    HW141481   0.329  10.464   9.781  0.0356  1.8451 -0.6801
10901SOL    HW241482   0.301  10.575   9.879  1.5504  1.0740  0.6590
10902SOL     OW41483   6.933   3.873   5.760  0.0603 -0.0976 -0.1989
10902SOL    HW141484   6.896   3.819   5.830  1.8153  0.1213  0.9822
10902SOL    HW241485   7.025   3.845   5.755  0.5763  1.5812 -0.7423
10903SOL     OW41486   5.928   3.903   2.234 -0.4079  0.0601 -0.4196
10903SOL    HW141487   6.020   3.879   2.244 -0.4503  0.4606  1.1875
10903SOL    HW241488   5.925   3.996   2.254 -1.3388 -0.2077  0.7681
10904SOL     OW41489  12.058   8.261  12.027  0.2351  0.2870  0.6851
10904SOL    HW141490  12.049   8.331  11.962  0.5481  1.6223  2.0172
10904SOL    HW241491  11.979   8.269  12.081  0.5200 -0.0673  1.1538
10905SOL     OW41492   0.461   2.194   6.605  0.0319 -0.4509 -0.4159
10905SOL    HW141493   0.524   2.172   6.674 -0.1373 -0.7919 -0.3686
10905SOL    HW241494   0.469   2.289   6.595  0.8999 -0.5439 -0.7422
10906SOL     OW41495   7.963   7.163   2.212  0.0985  0.5910 -0.3824
10906SOL    HW141496   7.901   7.219   2.258  1.3260  0.3687  1.6830
10906SOL    HW241497   8.031   7.223   2.180  0.6012  0.4913  0.4570
10907SOL     OW41498  10.464   9.785   3.859  0.0990 -0.2496  0.5464
10907SOL    HW141499  10.503   9.699   3.877  1.8002  0.0445 -1.3491
10907SOL    HW241500  10.386   9.765   3.807  0.0964 -0.6736  0.7057
10908SOL     OW41501   9.990   7.792  10.884  0.0249 -0.2928  0.5425
10908SOL    HW141502   9.896   7.803  10.866  0.0936 -0.4470  0.0788
10908SOL    HW241503   9.998   7.703  10.918  0.0342 -0.3708  0.3404
10909SOL     OW41504   3.436   9.538   2.913 -0.2259  0.0184  0.3388
10909SOL    HW141505   3.448   9.535   3.008  0.1046 -2.5839  0.2970
10909SOL    HW241506   3.517   9.578   2.880  0.3663 -0.4966  1.1141
10910SOL     OW41507   5.261   1.676   2.512 -0.0513  0.4861  0.0067
10910SOL    HW141508   5.200   1.748   2.528  0.8351  0.8110  2.2258
10910SOL    HW241509   5.342   1.719   2.484 -0.2570  0.1540 -1.1760
10911SOL     OW41510   9.853   3.820  10.183 -0.1279 -0.3945 -0.6248
10911SOL    HW141511   9.919   3.803  10.251 -0.7836 -2.2587 -0.4148
10911SOL    HW241512   9.901   3.810  10.100  0.3013  0.3081 -0.4725
10912SOL     OW41513   2.197  10.190   0.384  1.0607 -0.3377 -0.0980
10912SOL    HW141514   2.170  10.275   0.418 -1.6160 -0.5565 -1.4065
10912SOL    HW241515   2.218  10.206   0.292 -1.1275 -1.2815 -0.8308
10913SOL     OW41516   5.629   4.279  11.938  0.2849 -0.4728 -0.1318
10913SOL    HW141517   5.621   4.351  12.000  1.3080  0.3371 -0.9052
10913SOL    HW241518   5.620   4.200  11.991  0.0438  0.2083  0.8635
10914SOL     OW41519   6.228   2.741  10.296  0.3855 -0.1942  0.6105
10914SOL    HW141520   6.144   2.732  10.342 -0.2026 -0.5407 -0.4931
10914SOL    HW241521   6.262   2.652  10.292 -0.6705 -0.5607 -1.5896
10915SOL     OW41522   1.387   5.619   3.554  0.0413 -0.2166 -0.6100
10915SOL    HW141523   1.331   5.557   3.506  1.3403  0.9663 -3.9708
10915SOL    HW241524   1.341   5.702   3.549 -0.6759 -0.3915  1.9953
10916SOL     OW41525  10.985  10.494   0.385 -0.4410  0.0107  0.1288
10916SOL    HW141526  11.034  10.453   0.456 -0.4285 -0.8632 -0.3658
10916SOL    HW241527  11.052  10.513   0.318 -0.6056 -0.1198 -0.0727
10917SOL     OW41528   0.209   1.442   7.347 -0.0811 -0.2901  1.0989
10917SOL    HW141529   0.161   1.417   7.268  1.1043 -1.8444  0.8292
10917SOL    HW241530   0.301   1.445   7.319  0.4485 -1.6284  2.5705
10918SOL     OW41531   3.053  11.200  12.473 -0.0565 -0.5509  0.5547
10918SOL    HW141532   3.047  11.107  12.494  0.8261 -0.6961  0.2144
10918SOL    HW241533   3.134  11.230  12.515 -0.7906  0.2851  1.4236
10919SOL     OW41534   3.042   6.582   0.248  0.4226 -0.3112  0.0092
10919SOL    HW141535   2.994   6.604   0.327  0.2693  0.5489 -0.3126
10919SOL    HW241536   3.001   6.502   0.216  0.3771 -0.5703  0.7026
10920SOL     OW41537   5.660   3.520  10.593  0.3212  0.2886  0.0636
10920SOL    HW141538   5.656   3.610  10.559  2.6089  0.5239  0.2818
10920SOL    HW241539   5.735   3.480  10.548 -0.6574 -1.5470 -0.0434
10921SOL     OW41540  10.523   8.123   2.460  0.3508 -0.2482  0.6519
10921SOL    HW141541  10.576   8.199   2.438 -0.4213 -0.0685 -0.7488
10921SOL    HW241542  10.544   8.104   2.551 -0.4003  2.4562  1.4987
10922SOL     OW41543   4.125   3.032  11.059  0.4255 -0.6492 -0.4481
10922SOL    HW141544   4.153   3.099  10.997  3.2666 -0.4654  0.8713
10922SOL    HW241545   4.034   3.055  11.080  1.1391  2.5832 -0.3436
10923SOL     OW41546   9.233   3.743  10.332  0.3551  0.3149 -0.5965
10923SOL    HW141547   9.153   3.790  10.355  0.6041  1.6797 -2.3802
10923SOL    HW241548   9.265   3.785  10.253  0.9868 -2.4255 -1.9304
10924SOL     OW41549   0.811   8.127   4.362 -0.3537  0.3246 -0.3277
10924SOL    HW141550   0.881   8.119   4.296 -1.0349  0.7930 -1.1268
10924SOL    HW241551   0.825   8.213   4.402  0.5840 -0.3082  0.7905
10925SOL     OW41552   4.669   7.303   9.379  0.2494 -0.3067 -0.4604
10925SOL    HW141553   4.725   7.353   9.320 -0.3118  1.5155  0.4816
10925SOL    HW241554   4.580   7.322   9.352 -0.0200  0.5686  0.9220
10926SOL     OW41555  10.189  12.398   1.161 -0.2030 -0.6482 -0.2742
10926SOL    HW141556  10.113  12.343   1.176  1.5389 -3.5211 -1.1402
10926SOL    HW241557  10.254  12.340   1.121  4.3982  0.0818  4.8875
10927SOL     OW41558   7.939  10.041   3.328  0.0215  0.5241  0.1109
10927SOL    HW141559   8.006  10.005   3.387  0.7541 -0.1411 -1.0859
10927SOL    HW241560   7.859   9.994   3.351 -0.3965  2.1599  2.3805
10928SOL     OW41561   0.267   3.683  11.951 -0.6138 -0.6409  0.8559
10928SOL    HW141562   0.235   3.735  11.877 -1.2718 -0.2566  1.3926
10928SOL    HW241563   0.252   3.592  11.925  1.0177 -0.6122 -0.3051
10929SOL     OW41564   0.383   8.170   3.204 -0.1009 -0.0651 -0.3010
10929SOL    HW141565   0.450   8.108   3.235  0.9832  1.3968  0.4022
10929SOL    HW241566   0.401   8.181   3.111 -0.8019 -1.3582 -0.6250
10930SOL     OW41567   1.633  12.599  12.236 -0.0516 -0.1934  0.4543
10930SOL    HW141568   1.581  12.664  12.284  0.5293  0.6310 -0.0036
10930SOL    HW241569   1.611  12.516  12.277 -3.8001 -0.3385 -1.3801
10931SOL     OW41570   2.248  12.382  12.098 -0.1515  0.0558  0.0385
10931SOL    HW141571   2.286  12.431  12.026 -0.1072 -2.5253 -1.8272
10931SOL    HW241572   2.159  12.360  12.069 -0.7520  0.3935  1.5155
10932SOL     OW41573   4.346   2.025   5.745 -0.4741 -0.0720 -0.2768
10932SOL    HW141574   4.346   1.955   5.680  0.3180 -2.2785  1.8967
10932SOL    HW241575   4.426   2.074   5.727 -1.8077  1.3400 -2.7805
10933SOL     OW41576   0.484   2.729  10.988  0.9442  0.4548  0.5552
10933SOL    HW141577   0.419   2.665  10.961  0.4870  0.9241  0.5323
10933SOL    HW241578   0.478   2.731  11.083 -0.4377  1.8782  0.4797
10934SOL     OW41579   8.809   3.527  12.020 -0.2552 -0.0124  0.5614
10934SOL    HW141580   8.800   3.587  12.094  1.9268  2.7865 -1.2459
10934SOL    HW241581   8.849   3.449  12.058 -0.3350  0.8268  2.5236
10935SOL     OW41582   8.946   2.675  12.402 -0.1815 -0.0317  0.2688
10935SOL    HW141583   8.935   2.634  12.316 -0.1733  0.4461  0.0391
10935SOL    HW241584   8.867   2.650  12.451 -0.6484  0.5006 -0.2056
10936SOL     OW41585   2.681  11.743   7.023 -0.2422 -0.1270 -0.0533
10936SOL    HW141586   2.764  11.789   7.008 -0.2508  0.1230  0.6462
10936SOL    HW241587   2.614  11.811   7.011 -0.2612  0.0250  0.8690
10937SOL     OW41588   6.418   3.642   1.020 -0.2017 -0.0631 -0.4509
10937SOL    HW141589   6.336   3.679   0.988 -0.2285 -0.1316 -0.4634
10937SOL    HW241590   6.402   3.623   1.113 -0.6677 -1.3591 -0.7665
10938SOL     OW41591   6.540   6.914   9.017  0.2386 -0.2014  0.4707
10938SOL    HW141592   6.616   6.924   9.075 -0.5605 -0.3830  1.5795
10938SOL    HW241593   6.578   6.891   8.932  1.3747 -1.7828  1.3468
10939SOL     OW41594   5.671   7.353   5.339 -0.4932  0.4079  0.2030
10939SOL    HW141595   5.599   7.290   5.343 -0.4594  0.3976  0.6723
10939SOL    HW241596   5.720   7.329   5.260 -0.6537  0.0363  0.2160
10940SOL     OW41597   8.778   7.096   2.328 -0.2862  0.2382 -0.3612
10940SOL    HW141598   8.754   7.067   2.240 -0.7686  0.7677 -0.4043
10940SOL    HW241599   8.705   7.068   2.384 -1.4504  2.5637 -0.6230
10941SOL     OW41600  10.062   0.436   2.340 -0.1379  0.0608 -0.1658
10941SOL    HW141601  10.067   0.429   2.244  1.8277  1.2120 -0.2077
10941SOL    HW241602  10.027   0.523   2.356 -3.0843 -1.0913  0.2459
10942SOL     OW41603   5.768   5.535   0.316 -0.6208 -0.4117 -0.0748
10942SOL    HW141604   5.700   5.493   0.263 -0.2636 -2.3048  0.8941
10942SOL    HW241605   5.847   5.530   0.262 -0.6527 -0.7122 -0.0948
10943SOL     OW41606  10.889   6.605  10.802  0.2535  0.0194  0.3079
10943SOL    HW141607  10.857   6.532  10.749  1.9500 -0.8108  0.3460
10943SOL    HW241608  10.843   6.681  10.769 -1.3306 -0.9997  0.0415
10944SOL     OW41609   4.398   9.507   1.546 -0.2905  0.4473  0.2470
10944SOL    HW141610   4.390   9.523   1.640  2.0326  1.4692  0.3382
10944SOL    HW241611   4.414   9.413   1.539 -0.5909  0.3468  0.8654
10945SOL     OW41612   3.180   6.832   4.374  0.6417  0.3674 -0.0926
10945SOL    HW141613   3.156   6.798   4.461  0.4130  0.9949  0.1009
10945SOL    HW241614   3.195   6.755   4.321 -1.1960 -0.0776 -0.0417
10946SOL     OW41615   4.715   6.293   8.100  0.5836  0.0699  0.0841
10946SOL    HW141616   4.658   6.216   8.108  0.6246 -0.1056 -1.1601
10946SOL    HW241617   4.705   6.321   8.009  0.3867  1.6861  0.5749
10947SOL     OW41618   6.706   4.085   5.006 -0.0721  0.4254  0.1609
10947SOL    HW141619   6.621   4.121   5.030  0.8851  2.6931  0.4272
10947SOL    HW241620   6.769   4.149   5.041  1.6855 -0.6181 -0.9827
10948SOL     OW41621   7.591   1.944   2.002  0.4187 -0.2901 -0.0304
10948SOL    HW141622   7.595   2.015   1.938 -0.5149  0.3758  0.6194
10948SOL    HW241623   7.553   1.985   2.080 -1.8044 -1.9097 -0.2026
10949SOL     OW41624   2.605   5.655   4.659  0.5789 -0.3696  0.2071
10949SOL    HW141625   2.514   5.684   4.664  0.7280  0.0777  0.3664
10949SOL    HW241626   2.615   5.625   4.568  0.9585  1.9257 -0.5736
10950SOL     OW41627   5.220   2.948  12.049  0.8323 -0.4045  0.2425
10950SOL    HW141628   5.190   2.910  12.131  3.2014 -0.0629  1.3745
10950SOL    HW241629   5.269   2.878  12.006  2.5912  0.3660  0.8708
10951SOL     OW41630   5.360   7.110   6.734  1.5321  0.1669  0.0552
10951SOL    HW141631   5.392   7.201   6.735  2.1868 -0.0573  0.2161
10951SOL    HW241632   5.433   7.059   6.769  0.7087 -0.2807  1.2095
10952SOL     OW41633   5.241   2.684   9.726 -0.3991 -0.0935 -0.0240
10952SOL    HW141634   5.316   2.629   9.749 -1.2890 -0.9940  0.8678
10952SOL    HW241635   5.238   2.750   9.795  0.5853  1.0198 -1.0186
10953SOL     OW41636   4.490   0.303   0.786 -0.1194  0.3701 -0.1136
10953SOL    HW141637   4.418   0.301   0.723 -0.1492 -4.1724 -0.2910
10953SOL    HW241638   4.454   0.347   0.863 -2.2883  0.2728 -1.0158
10954SOL     OW41639   3.860  11.435  11.177  0.2061  0.1643  0.1944
10954SOL    HW141640   3.846  11.359  11.120 -0.2929 -0.3079  0.9291
10954SOL    HW241641   3.793  11.426  11.245 -0.8851  2.1111 -0.5545
10955SOL     OW41642  10.721   4.710  12.549  0.1319 -0.3928  0.4406
10955SOL    HW141643  10.687   4.632  12.505  1.6814 -0.4851 -0.6377
10955SOL    HW241644  10.774   4.676  12.621  2.0252 -0.4432 -0.9074
10956SOL     OW41645   2.456  12.162  10.645 -0.3295 -0.2559  0.4470
10956SOL    HW141646   2.503  12.205  10.716  1.8973 -3.0747  0.8688
10956SOL    HW241647   2.522  12.148  10.577 -1.6883 -0.3433 -0.9305
10957SOL     OW41648   3.775   2.025   4.694  0.0394  0.4415 -0.2929
10957SOL    HW141649   3.811   1.961   4.755 -0.8675 -1.0892 -1.2807
10957SOL    HW241650   3.814   2.109   4.720  0.9462 -0.4341  1.3022
10958SOL     OW41651   7.280  11.121  10.921  0.0418  0.4108 -0.6927
10958SOL    HW141652   7.221  11.114  10.996  1.3450 -3.1411  0.2051
10958SOL    HW241653   7.368  11.119  10.959  0.7542 -2.3183 -2.2084
10959SOL     OW41654   5.616   2.645   5.857  0.0435  0.2575  0.0494
10959SOL    HW141655   5.611   2.737   5.884 -2.8111  0.2253 -0.0175
10959SOL    HW241656   5.533   2.607   5.886  0.0867 -1.6871 -2.0824
10960SOL     OW41657   8.717   1.651   9.617  0.0826  0.7517  0.0475
10960SOL    HW141658   8.785   1.594   9.581 -0.7924  0.9028 -1.9532
10960SOL    HW241659   8.689   1.607   9.698  0.0862 -1.1783 -0.9453
10961SOL     OW41660   5.889   4.316   5.806  0.0629 -0.2636 -0.5766
10961SOL    HW141661   5.969   4.295   5.759 -0.2345 -0.8881 -0.8160
10961SOL    HW241662   5.820   4.270   5.759 -0.3729 -0.1236 -0.0921
10962SOL     OW41663   3.788   8.166   6.245 -0.1955 -0.2087  0.1413
10962SOL    HW141664   3.845   8.223   6.295 -0.8665  0.6626 -0.0705
10962SOL    HW241665   3.833   8.154   6.161 -0.9073  1.5886 -0.5585
10963SOL     OW41666   0.631   7.495   2.735 -0.4776  1.2029  0.6088
10963SOL    HW141667   0.559   7.447   2.775  0.0294  0.7743  1.0216
10963SOL    HW241668   0.607   7.587   2.746 -0.7971  1.0715  1.0590
10964SOL     OW41669   1.251   5.325   9.658 -0.0153 -0.3607  0.0675
10964SOL    HW141670   1.279   5.290   9.574  0.5881  0.5048 -0.1090
10964SOL    HW241671   1.228   5.416   9.640  1.6608  0.3294  1.1063
10965SOL     OW41672   5.653   3.109   8.176  0.1943  0.0865  0.5992
10965SOL    HW141673   5.578   3.166   8.165  0.0230 -0.3918 -1.0084
10965SOL    HW241674   5.723   3.151   8.127  0.7867  0.1748  1.5014
10966SOL     OW41675   4.456   8.703  11.178 -0.1834  0.1120 -0.3649
10966SOL    HW141676   4.438   8.666  11.265  0.5153  1.1942  0.2541
10966SOL    HW241677   4.551   8.705  11.171 -0.2135  1.0854 -0.6825
10967SOL     OW41678   1.178  10.079   5.805 -0.0488  0.0228 -0.4389
10967SOL    HW141679   1.158  10.172   5.813  0.0673 -0.0809  1.5867
10967SOL    HW241680   1.102  10.034   5.841  0.1652 -0.6508 -0.8069
10968SOL     OW41681  12.099   9.609   2.037  0.4383  0.6366 -0.5658
10968SOL    HW141682  12.145   9.529   2.064 -0.0679 -0.5735 -2.9516
10968SOL    HW241683  12.168   9.668   2.008  0.7733  0.8233  0.5669
10969SOL     OW41684   3.984  10.563   5.571 -0.0142 -0.5810 -0.1680
10969SOL    HW141685   4.037  10.638   5.597 -0.0519 -0.6308  0.0505
10969SOL    HW241686   4.033  10.523   5.499  0.9545 -1.4332  0.9147
10970SOL     OW41687   3.026   4.915  11.363 -0.4923  0.0051  0.0648
10970SOL    HW141688   3.028   4.822  11.341 -0.5989  0.2310 -0.9343
10970SOL    HW241689   3.118   4.939  11.374 -0.2553  0.3708 -2.3210
10971SOL     OW41690   5.069   0.954   1.401 -0.4523 -0.1197  0.4014
10971SOL    HW141691   5.061   1.010   1.477  0.6686 -0.4362  0.7660
10971SOL    HW241692   5.163   0.938   1.392 -0.7019 -1.5415  0.0366
10972SOL     OW41693   1.291   9.705   0.943 -0.0983  0.1248  0.4614
10972SOL    HW141694   1.230   9.631   0.939  2.1483 -1.7901 -0.4904
10972SOL    HW241695   1.267   9.760   0.869 -0.1957 -1.0335 -0.3976
10973SOL     OW41696  10.239   6.352   6.454  0.6479  0.1944 -0.0646
10973SOL    HW141697  10.152   6.390   6.441  0.2119  0.1749  2.4226
10973SOL    HW241698  10.299   6.420   6.424 -0.1792  1.7659  1.6684
10974SOL     OW41699   4.334   0.616   0.090 -0.5150 -0.0334  0.2537
10974SOL    HW141700   4.332   0.635  -0.003 -1.9569 -0.0521  0.2715
10974SOL    HW241701   4.329   0.521   0.097  2.7694 -0.3221  0.2987
10975SOL     OW41702   0.080   6.539   4.111  0.3320  0.6127  0.2616
10975SOL    HW141703  -0.015   6.549   4.119  0.1914 -0.7730  0.4723
10975SOL    HW241704   0.097   6.550   4.017 -0.0872  0.4793  0.1675
10976SOL     OW41705  10.462   6.815  11.530 -0.2130  0.5997  0.3332
10976SOL    HW141706  10.471   6.784  11.620  2.1552 -1.6086 -0.5439
10976SOL    HW241707  10.503   6.902  11.531 -0.1443  0.5694  1.3561
10977SOL     OW41708  12.292   2.047   9.870 -0.1760  0.3543  0.1509
10977SOL    HW141709  12.306   2.110   9.799  1.6849 -0.1209  0.0209
10977SOL    HW241710  12.360   1.981   9.856 -1.2553 -0.9814  1.0449
10978SOL     OW41711   6.004   0.668   1.907 -0.0468 -0.1300 -0.0804
10978SOL    HW141712   6.007   0.716   1.824 -0.7566  1.7711  0.9369
10978SOL    HW241713   6.048   0.585   1.888  0.6274  0.6293 -2.1051
10979SOL     OW41714   1.834  12.333   9.538 -0.2024  0.1632 -0.3461
10979SOL    HW141715   1.828  12.245   9.576  1.0233 -0.2324 -1.0017
10979SOL    HW241716   1.779  12.387   9.594 -0.1234 -0.8169  0.7213
10980SOL     OW41717   0.637   8.116   2.598  0.6680  0.4850 -0.5198
10980SOL    HW141718   0.628   8.095   2.505  0.8968  0.9426 -0.6528
10980SOL    HW241719   0.548   8.133   2.628  0.5118 -0.3941 -0.4730
10981SOL     OW41720   4.988   6.775   2.051  0.1294 -0.3129  0.0129
10981SOL    HW141721   4.950   6.794   1.965  0.7277 -0.9255 -0.3957
10981SOL    HW241722   4.913   6.746   2.104 -0.5978  1.8965  0.3057
10982SOL     OW41723   9.016   1.701  12.271  0.1447  0.6175 -0.1271
10982SOL    HW141724   8.936   1.657  12.242  0.0834  0.8826 -0.3646
10982SOL    HW241725   9.087   1.652  12.229  0.1250  0.1953  0.3257
10983SOL     OW41726   4.928   8.917   3.559 -0.0250 -0.3156  0.6630
10983SOL    HW141727   4.903   8.907   3.651  0.1444 -0.6502  0.6736
10983SOL    HW241728   4.998   8.982   3.560  0.0812 -0.4310  0.7879
10984SOL     OW41729   2.805   0.233  10.296 -0.0115 -0.7046 -0.2343
10984SOL    HW141730   2.772   0.147  10.270  0.9547 -1.2679  0.3476
10984SOL    HW241731   2.895   0.236  10.263 -0.3254  0.4845 -1.0913
10985SOL     OW41732   7.433   5.397   6.244  0.3721  0.0799 -0.0403
10985SOL    HW141733   7.345   5.360   6.241  0.5353 -0.3105 -0.1603
10985SOL    HW241734   7.460   5.385   6.335  0.4128 -0.0734 -0.0715
10986SOL     OW41735  12.555   7.560   3.745 -0.4240  0.1060  0.0225
10986SOL    HW141736  12.531   7.492   3.682  0.5065 -1.0975  0.9016
10986SOL    HW241737  12.616   7.516   3.805  0.0358  1.6737  0.7521
10987SOL     OW41738   2.202   4.226   0.433 -0.3266  0.0564 -0.0040
10987SOL    HW141739   2.271   4.233   0.368 -0.8975 -0.6278 -0.7000
10987SOL    HW241740   2.138   4.166   0.394 -1.1625  0.4351  0.7553
10988SOL     OW41741   9.171   7.603   3.327 -0.2140  0.0037 -0.3449
10988SOL    HW141742   9.088   7.571   3.362 -0.3385  0.7171  0.0140
10988SOL    HW241743   9.232   7.531   3.342 -0.0995  0.5030  1.9208
10989SOL     OW41744  11.092   2.758   8.757  0.7202  0.0991  0.0276
10989SOL    HW141745  11.132   2.826   8.702 -0.2870  1.7964  1.2759
10989SOL    HW241746  11.014   2.732   8.710  1.6710 -1.0434 -0.9833
10990SOL     OW41747   3.391   1.387   6.597 -0.4289 -0.1064  0.6206
10990SOL    HW141748   3.311   1.417   6.554  1.0253  0.8044 -1.6330
10990SOL    HW241749   3.405   1.449   6.668 -1.0771  0.4247  0.2935
10991SOL     OW41750  11.185   8.033   2.807 -0.2073 -0.5454  0.1289
10991SOL    HW141751  11.162   7.942   2.789  0.7957 -1.1624  1.8095
10991SOL    HW241752  11.237   8.030   2.887  2.6284  1.1485 -1.4965
10992SOL     OW41753  12.536   8.654   1.063 -0.2255  0.3522  0.3255
10992SOL    HW141754  12.612   8.708   1.087 -0.3195  0.8695 -0.5099
10992SOL    HW241755  12.462   8.697   1.105 -0.4474  1.4929 -1.1862
10993SOL     OW41756   9.072   6.477  10.080  0.0276  0.0439  0.2018
10993SOL    HW141757   9.121   6.427  10.015  0.9016 -0.1088  0.9471
10993SOL    HW241758   9.086   6.568  10.057 -0.2060 -0.0222 -0.2027
10994SOL     OW41759   1.132   8.289   6.095  0.6109  0.2770 -0.9763
10994SOL    HW141760   1.083   8.347   6.036  0.3510 -0.1155 -1.1515
10994SOL    HW241761   1.066   8.257   6.157  0.9655  1.0342 -0.1931
10995SOL     OW41762   1.980   6.589   0.590  0.1674 -0.2012  0.5548
10995SOL    HW141763   1.992   6.562   0.681 -1.1046 -0.6178  0.6266
10995SOL    HW241764   1.987   6.685   0.592 -1.4144 -0.0698  1.3879
10996SOL     OW41765   1.448   5.038   7.209 -0.0871 -0.3455 -0.1071
10996SOL    HW141766   1.493   5.006   7.287 -3.3376 -0.8241  1.7569
10996SOL    HW241767   1.481   4.983   7.138  0.9356 -1.8504  1.4570
10997SOL     OW41768  11.074  10.219   4.116  0.0450  0.5600  0.0204
10997SOL    HW141769  10.986  10.257   4.108  0.2480  1.0257 -0.0060
10997SOL    HW241770  11.064  10.130   4.082 -0.2975  0.7836 -0.4844
10998SOL     OW41771  11.120   3.239  11.785 -0.3233 -0.2202  0.1423
10998SOL    HW141772  11.186   3.205  11.725 -0.5050 -3.2489  1.4709
10998SOL    HW241773  11.170   3.292  11.848  0.3926 -0.1881 -0.4346
10999SOL     OW41774   1.632   7.803  10.065  0.2381  0.2516 -0.4726
10999SOL    HW141775   1.607   7.888  10.101  0.9739  0.4246 -0.3545
10999SOL    HW241776   1.726   7.812  10.046  0.3499 -0.5750 -0.3374
11000SOL     OW41777   6.687   8.301   3.853  0.4327  0.2610  0.2330
11000SOL    HW141778   6.776   8.266   3.856  0.1124 -0.5531  0.5035
11000SOL    HW241779   6.684   8.352   3.771  0.4591 -1.6423 -1.0046
11001SOL     OW41780   9.815   1.602  10.930  0.3460 -1.1579  0.0551
11001SOL    HW141781   9.773   1.525  10.968  0.5449 -1.0915  0.4102
11001SOL    HW241782   9.902   1.571  10.904  0.2408 -1.1834 -0.2785
11002SOL     OW41783   1.365  11.151   5.435  0.5373 -0.0630 -0.5211
11002SOL    HW141784   1.454  11.135   5.404  0.6339 -1.1316  0.2364
11002SOL    HW241785   1.310  11.098   5.377  0.5098 -0.2953 -0.2862
11003SOL     OW41786   1.863   2.525  11.958  0.3072  0.0895 -0.0559
11003SOL    HW141787   1.776   2.490  11.940  0.2489 -0.4695  1.2359
11003SOL    HW241788   1.847   2.611  11.995  0.3197  0.1349 -0.1559
11004SOL     OW41789  10.885   5.815   3.960  0.0083 -0.9742  0.7209
11004SOL    HW141790  10.804   5.765   3.973 -0.0006 -0.9300  0.8326
11004SOL    HW241791  10.890   5.827   3.865 -0.3994 -0.5136  0.7493
11005SOL     OW41792  10.106   0.662  12.056  0.1007  0.1656 -0.6047
11005SOL    HW141793  10.164   0.616  11.995  0.3261 -0.9988  0.4612
11005SOL    HW241794  10.053   0.593  12.096 -0.0461  0.9114  0.5174
11006SOL     OW41795   5.833   4.929  12.234  1.0207 -0.5176  0.0823
11006SOL    HW141796   5.928   4.915  12.229  0.6313 -3.6075 -0.4583
11006SOL    HW241797   5.800   4.897  12.150 -0.6192 -0.8472  0.8244
11007SOL     OW41798   5.930   5.004   7.832  0.5796  0.8421 -0.6632
11007SOL    HW141799   5.988   4.936   7.865 -0.3578  0.9480  1.3810
11007SOL    HW241800   5.857   4.956   7.793 -1.4741  0.3884  3.1786
11008SOL     OW41801   5.319   5.140   2.863  0.1054 -0.7090 -0.0993
11008SOL    HW141802   5.405   5.155   2.903 -0.7057 -2.1654  2.3947
11008SOL    HW241803   5.266   5.213   2.894 -0.2622 -1.3212  0.7758
11009SOL     OW41804   6.300   0.248   9.244  0.5565  0.3538  1.2553
11009SOL    HW141805   6.393   0.267   9.251  1.4665 -1.5490 -2.7779
11009SOL    HW241806   6.293   0.154   9.259 -0.4650  0.2289  0.1445
11010SOL     OW41807   3.043  11.637   8.092  0.0553  0.2568 -0.2109
11010SOL    HW141808   2.982  11.577   8.049  0.6580 -0.2670 -0.3457
11010SOL    HW241809   3.011  11.724   8.069 -1.0289 -0.0043  0.2691
11011SOL     OW41810   0.383   5.262   5.127 -0.0790 -0.0801 -0.3313
11011SOL    HW141811   0.327   5.186   5.147 -0.6145  0.2153 -0.6935
11011SOL    HW241812   0.322   5.332   5.106  0.4086  0.5197  0.1924
11012SOL     OW41813   7.979   6.459   5.351 -0.0538 -0.7659 -0.2090
11012SOL    HW141814   7.937   6.373   5.344 -1.7658  0.1035 -1.4930
11012SOL    HW241815   8.054   6.454   5.291 -0.7229 -1.0626 -1.0381
11013SOL     OW41816   3.811   8.475  10.074 -0.0025  0.3377 -0.6878
11013SOL    HW141817   3.869   8.425  10.131  1.8291  0.5661 -2.2632
11013SOL    HW241818   3.750   8.409  10.039 -0.0681 -0.0863  0.1953
11014SOL     OW41819   2.352   4.775   4.744 -0.1181 -0.3821 -0.1133
11014SOL    HW141820   2.263   4.790   4.711  0.4690  1.0616 -1.1192
11014SOL    HW241821   2.388   4.708   4.687 -0.5557 -0.9882  0.3115
11015SOL     OW41822   2.227   0.248   7.654 -0.3015  0.1623 -0.2861
11015SOL    HW141823   2.137   0.239   7.622 -0.0476 -0.6520 -0.7829
11015SOL    HW241824   2.275   0.284   7.579 -0.4753  2.0124  0.4160
11016SOL     OW41825  12.240   4.333   8.591  0.2292 -0.2994  0.0003
11016SOL    HW141826  12.219   4.284   8.513 -0.4402 -0.3185  0.1873
11016SOL    HW241827  12.231   4.425   8.565 -0.8763 -0.3170  0.2864
11017SOL     OW41828   7.720  11.067   2.734 -0.3554 -0.0965 -0.0743
11017SOL    HW141829   7.815  11.059   2.750 -0.4346  0.9062  1.0848
11017SOL    HW241830   7.712  11.139   2.673 -0.3515 -0.4963 -0.5501
11018SOL     OW41831   1.914   6.754  11.598  0.3211 -0.0157  0.3190
11018SOL    HW141832   1.827   6.794  11.601  1.2649  2.6903 -2.5875
11018SOL    HW241833   1.950   6.769  11.686 -1.5221  0.2948  1.0724
11019SOL     OW41834   6.503   3.743   9.373  0.2909 -0.8103 -0.2647
11019SOL    HW141835   6.431   3.688   9.340 -0.3695 -1.0415  1.4354
11019SOL    HW241836   6.517   3.712   9.463  1.9926 -0.2234 -0.2943
11020SOL     OW41837   6.971  10.063   7.911  0.8997  0.1197 -0.4860
11020SOL    HW141838   6.923  10.061   7.828 -0.1709  0.6034  0.1015
11020SOL    HW241839   7.000   9.973   7.924 -2.4458 -0.9277  0.5871
11021SOL     OW41840   2.205   3.600  11.595 -0.2355  0.0854  0.1698
11021SOL    HW141841   2.234   3.559  11.513 -0.7976 -0.7141  0.3562
11021SOL    HW241842   2.248   3.685  11.596 -1.2762  0.6942 -1.6275
11022SOL     OW41843   4.506   7.595   6.430  0.2304  0.7782 -0.0710
11022SOL    HW141844   4.484   7.561   6.516  1.4167  2.1214  0.8112
11022SOL    HW241845   4.504   7.690   6.440  0.2958  0.9638 -1.5604
11023SOL     OW41846   2.866   6.598   7.533  0.1410  0.3219 -0.2305
11023SOL    HW141847   2.899   6.517   7.496 -0.4270 -0.7183  1.4313
11023SOL    HW241848   2.831   6.573   7.619 -0.8890  2.1527 -0.0586
11024SOL     OW41849   3.688   6.879   3.959 -0.5321  0.4111  0.1177
11024SOL    HW141850   3.771   6.884   4.006 -0.4398 -1.5105  0.2585
11024SOL    HW241851   3.670   6.785   3.952 -3.7023  0.7268  1.8512
11025SOL     OW41852   3.324   6.633   2.801  0.1233  0.1968  0.3131
11025SOL    HW141853   3.414   6.658   2.781  0.3375 -0.3840  0.5413
11025SOL    HW241854   3.282   6.625   2.715  0.8330 -1.5069  0.0669
11026SOL     OW41855   9.283   4.453   6.274  0.0694 -0.1043  0.1434
11026SOL    HW141856   9.330   4.535   6.291 -1.4554  1.1638 -1.4204
11026SOL    HW241857   9.284   4.407   6.357 -0.5211  2.3008  1.5626
11027SOL     OW41858   4.880   8.849   3.818 -0.4513  0.2889  0.3334
11027SOL    HW141859   4.802   8.803   3.850 -0.6304  0.5557  0.2865
11027SOL    HW241860   4.940   8.849   3.893  0.2220 -1.4614 -0.1529
11028SOL     OW41861  12.174  10.065   6.009  0.2258  0.3553 -0.2412
11028SOL    HW141862  12.110  10.078   5.939 -0.4703  0.2604  0.3693
11028SOL    HW241863  12.216  10.150   6.019 -0.2020  0.5724 -0.2612
11029SOL     OW41864   6.770  10.890   4.644 -0.0883  0.3329 -0.3719
11029SOL    HW141865   6.707  10.829   4.683 -0.3536  0.2252 -0.9504
11029SOL    HW241866   6.854  10.867   4.684  0.1277 -1.4960 -1.7325
11030SOL     OW41867   8.029  11.095   0.131 -0.0144  0.4052 -0.1884
11030SOL    HW141868   8.076  11.060   0.207 -1.6521 -1.8387 -0.1156
11030SOL    HW241869   7.939  11.066   0.144 -0.7332  1.7050 -2.0057
11031SOL     OW41870   7.322   8.883  11.559  0.0414  0.2327  0.1893
11031SOL    HW141871   7.408   8.847  11.582  0.6216  2.4460  1.8056
11031SOL    HW241872   7.265   8.807  11.556  0.8618 -0.8490  4.9402
11032SOL     OW41873  12.004  10.205   2.481 -0.1571 -0.0526  0.4006
11032SOL    HW141874  12.072  10.161   2.430 -0.7255 -1.1179  0.5301
11032SOL    HW241875  12.044  10.221   2.566  0.4083  0.6542  0.0027
11033SOL     OW41876   4.868   2.662   1.785 -0.8183 -0.9477  0.0272
11033SOL    HW141877   4.807   2.628   1.719  0.5933 -1.8502 -0.8722
11033SOL    HW241878   4.863   2.757   1.775 -0.0537 -1.0809 -1.9597
11034SOL     OW41879   4.954   8.762   0.713 -0.1534  0.1870  0.2878
11034SOL    HW141880   5.029   8.785   0.658 -0.2517 -0.7346 -0.2658
11034SOL    HW241881   4.978   8.792   0.801 -0.1355  1.9949 -0.2954
11035SOL     OW41882   9.116   0.556   5.592  0.2461 -0.3069  0.1940
11035SOL    HW141883   9.171   0.606   5.532  0.6071  1.9165  2.2413
11035SOL    HW241884   9.030   0.598   5.588  0.4005  0.1900  1.5311
11036SOL     OW41885   8.029   4.209   7.667 -0.4172  0.1185 -0.2112
11036SOL    HW141886   7.991   4.165   7.743 -0.2706  1.6062  0.7477
11036SOL    HW241887   8.121   4.183   7.668  0.0039  1.5137  1.1960
11037SOL     OW41888   3.110   3.924   5.919  0.3652  0.7573 -0.2672
11037SOL    HW141889   3.098   4.000   5.975  1.0839  1.4076 -0.9783
11037SOL    HW241890   3.021   3.895   5.898  0.0914  1.1577  0.3292
11038SOL     OW41891   5.367   0.425   5.203 -0.1866  0.2341 -0.0407
11038SOL    HW141892   5.409   0.420   5.117  1.1684 -0.5463  0.6245
11038SOL    HW241893   5.299   0.358   5.200  0.0850 -0.0335 -0.3944
11039SOL     OW41894   5.988   1.105   8.734 -0.1498 -0.1624  1.0112
11039SOL    HW141895   6.044   1.169   8.777  1.0241 -0.6788  0.3010
11039SOL    HW241896   6.001   1.121   8.640  1.3539 -2.3433  0.7565
11040SOL     OW41897   8.957   0.044   5.585 -0.6648 -0.0601  0.2498
11040SOL    HW141898   9.013   0.045   5.663  0.6858  0.6544 -0.6771
11040SOL    HW241899   9.014   0.010   5.515 -0.2529  3.5975 -1.4547
11041SOL     OW41900   4.232   4.956   1.626 -0.0468  0.3253  0.5370
11041SOL    HW141901   4.148   4.996   1.604 -0.3941 -1.0525 -0.8922
11041SOL    HW241902   4.294   4.998   1.567  0.6350  2.5070  2.6991
11042SOL     OW41903   8.212   2.995   0.686  0.5170 -0.4442  0.0274
11042SOL    HW141904   8.160   2.914   0.686  0.1068 -0.1896  0.4041
11042SOL    HW241905   8.152   3.062   0.652  1.0742 -0.4220 -0.9488
11043SOL     OW41906   6.383   6.846   3.104 -0.1186 -0.4145 -0.2570
11043SOL    HW141907   6.302   6.804   3.135 -0.7384  1.0221  0.1486
11043SOL    HW241908   6.417   6.786   3.037 -0.2725 -2.1884  1.1577
11044SOL     OW41909   7.346   3.567   6.504  0.2234  0.0745  0.2912
11044SOL    HW141910   7.412   3.499   6.489  0.4560 -0.2101  2.3211
11044SOL    HW241911   7.371   3.639   6.447  3.4117  0.6963  2.2433
11045SOL     OW41912   8.521   3.691  11.161  0.3985 -0.5731  1.0021
11045SOL    HW141913   8.523   3.595  11.161  3.6170 -0.6274  1.8978
11045SOL    HW241914   8.461   3.714  11.232 -2.0232 -1.8033 -0.5149
11046SOL     OW41915   9.373   5.061   4.798 -0.0857 -0.3684  0.5603
11046SOL    HW141916   9.416   4.980   4.826  0.4509 -0.2567  0.0827
11046SOL    HW241917   9.411   5.080   4.713  0.3415  0.7897  0.9926
11047SOL     OW41918  12.445   3.485  11.583  0.2703 -0.5563  0.2801
11047SOL    HW141919  12.475   3.567  11.621 -0.7892 -0.3665  0.7370
11047SOL    HW241920  12.463   3.419  11.650 -2.9633 -0.0099  1.8916
11048SOL     OW41921   5.606   6.752   2.423  0.3863  0.1649 -0.0227
11048SOL    HW141922   5.530   6.747   2.482 -0.2648  1.3498 -0.7317
11048SOL    HW241923   5.678   6.781   2.480 -0.1419  0.9240  0.2686
11049SOL     OW41924   8.245   0.750   6.325  0.5432 -0.0050  0.5207
11049SOL    HW141925   8.270   0.838   6.297  2.5889  0.6425  3.7703
11049SOL    HW241926   8.150   0.754   6.336  0.1572  0.7030 -2.4847
11050SOL     OW41927   1.623   8.702   2.415  0.6510 -1.0243  0.1509
11050SOL    HW141928   1.699   8.711   2.473  0.5538  0.0921  0.1241
11050SOL    HW241929   1.660   8.695   2.328  0.7216  0.0294  0.0863
11051SOL     OW41930   8.374   7.640   0.338 -0.1134 -0.0675 -0.2037
11051SOL    HW141931   8.420   7.691   0.272 -0.7080 -0.3952 -0.8849
11051SOL    HW241932   8.325   7.574   0.288 -2.7317  1.3468  0.3211
11052SOL     OW41933   7.468   3.374  12.573  0.5455  0.4028  0.1703
11052SOL    HW141934   7.417   3.401  12.497 -0.4511 -0.3533  0.5479
11052SOL    HW241935   7.529   3.446  12.588 -0.8949  1.6679  0.1332
11053SOL     OW41936   2.303   0.535   0.552  0.0868  0.0465 -0.3969
11053SOL    HW141937   2.276   0.502   0.466 -0.2505 -0.5574 -0.0595
11053SOL    HW241938   2.227   0.584   0.583 -0.2349 -0.7300  0.0694
11054SOL     OW41939   8.072   3.112   7.588 -0.3176  0.2529  0.0931
11054SOL    HW141940   8.136   3.123   7.658  0.7261  2.5002 -1.0959
11054SOL    HW241941   8.022   3.194   7.587 -1.7595 -0.5960 -0.4090
11055SOL     OW41942   3.151  12.296   5.935 -0.3708  0.0736 -0.0899
11055SOL    HW141943   3.152  12.292   6.030  0.4488  0.3669 -0.0812
11055SOL    HW241944   3.241  12.278   5.909  0.1223  2.9122 -0.6763
11056SOL     OW41945   6.249   8.930  11.831  0.5566 -0.5575 -0.1137
11056SOL    HW141946   6.268   8.913  11.923  1.4882  0.2302 -0.1469
11056SOL    HW241947   6.298   9.009  11.810 -0.3917 -0.1799 -1.0412
11057SOL     OW41948  10.449   2.718   3.269  0.8014  0.1548 -0.0745
11057SOL    HW141949  10.360   2.684   3.262  1.1554 -0.5683 -1.2629
11057SOL    HW241950  10.453   2.758   3.357 -0.0545 -1.6565  0.8322
11058SOL     OW41951   5.010   7.321   9.128 -0.6812  0.3691  0.0930
11058SOL    HW141952   5.075   7.326   9.057  0.5514  2.5821  1.2660
11058SOL    HW241953   5.061   7.298   9.206 -1.3075  1.8135  0.9807
11059SOL     OW41954   3.513   4.762   4.374 -0.1396 -0.1863 -0.3487
11059SOL    HW141955   3.508   4.762   4.470 -0.1721  1.3646 -0.3186
11059SOL    HW241956   3.544   4.674   4.351  0.3027 -0.4353  1.1066
11060SOL     OW41957   1.995   4.558   7.955  0.5698 -0.6226 -0.2096
11060SOL    HW141958   1.930   4.501   7.996 -0.2607  0.3668 -0.0939
11060SOL    HW241959   1.942   4.622   7.907  1.4930 -0.5880 -1.2128
11061SOL     OW41960   8.697  12.221   8.867 -0.0135 -0.5112  0.2358
11061SOL    HW141961   8.660  12.306   8.891 -0.0756 -1.0116  2.1144
11061SOL    HW241962   8.695  12.171   8.949  0.8947 -1.9986 -0.6143
11062SOL     OW41963   3.985   9.986   1.981  0.0264 -0.8084 -0.5480
11062SOL    HW141964   3.969   9.893   1.968 -0.7938 -0.6369 -0.8649
11062SOL    HW241965   4.072   9.991   2.020 -0.4442 -1.7925  0.6798
11063SOL     OW41966   4.001  10.485   5.849 -0.0089  0.1956  0.6201
11063SOL    HW141967   3.907  10.486   5.865  0.0981  2.4270  1.4905
11063SOL    HW241968   4.009  10.500   5.755 -0.5281 -0.4779  0.4640
11064SOL     OW41969   9.046   8.687   0.486 -0.0252 -0.1281 -0.6019
11064SOL    HW141970   9.021   8.628   0.558 -0.0620  0.2837 -0.2690
11064SOL    HW241971   9.034   8.635   0.407  0.5488 -0.7679 -0.2770
11065SOL     OW41972   5.515  12.197   9.079  0.2707 -0.1130 -0.2045
11065SOL    HW141973   5.491  12.245   9.158  1.5572  0.9161 -0.4035
11065SOL    HW241974   5.498  12.258   9.007  0.7053 -0.4195 -0.5782
11066SOL     OW41975   6.968   9.203  11.685 -0.2037 -0.0435 -0.3283
11066SOL    HW141976   6.914   9.276  11.714 -0.8550 -0.6530  0.0314
11066SOL    HW241977   6.967   9.142  11.759 -1.0068 -1.1343 -1.2029
11067SOL     OW41978   7.375   8.541   1.199 -0.1841 -0.4328  0.1532
11067SOL    HW141979   7.459   8.582   1.180 -0.1810 -1.5795 -2.8850
11067SOL    HW241980   7.310   8.608   1.179 -0.0583 -0.6772 -1.1811
11068SOL     OW41981   0.090   8.819   9.678  0.0600  0.5281 -0.6700
11068SOL    HW141982   0.088   8.775   9.763  0.0989  0.7528 -0.5535
11068SOL    HW241983   0.177   8.799   9.643  0.0951  0.5503 -0.5961
11069SOL     OW41984   2.684   5.777   7.090 -0.2765  0.2807  0.4267
11069SOL    HW141985   2.630   5.704   7.060 -0.2102  0.2369  0.4148
11069SOL    HW241986   2.714   5.820   7.010  1.9495 -1.3009  0.3464
11070SOL     OW41987   3.884   2.680   1.588 -0.0798 -0.4003  0.7774
11070SOL    HW141988   3.902   2.746   1.655 -0.4020 -0.0073  0.4880
11070SOL    HW241989   3.907   2.723   1.505 -1.1836 -0.3108  0.5066
11071SOL     OW41990   3.815   0.480   7.846  0.4151 -0.9604 -0.1795
11071SOL    HW141991   3.864   0.461   7.925 -0.3898 -0.4100  0.4651
11071SOL    HW241992   3.842   0.569   7.821 -1.1518 -0.1298  0.9066
11072SOL     OW41993  11.357   5.291  10.834  0.1308 -0.4334  0.1953
11072SOL    HW141994  11.448   5.265  10.848 -0.3892 -2.7601 -0.2216
11072SOL    HW241995  11.313   5.271  10.916 -0.4726 -1.8522 -0.4408
11073SOL     OW41996   5.704   0.861   9.517  0.1346 -0.4717  1.2225
11073SOL    HW141997   5.714   0.789   9.579 -0.2650 -1.6307 -0.0148
11073SOL    HW241998   5.647   0.826   9.448  0.7709  0.6866  0.0602
11074SOL     OW41999   1.026   7.393  12.182  0.1767  0.0942  0.1459
11074SOL    HW142000   1.055   7.480  12.154  0.0501 -0.3239 -1.3877
11074SOL    HW242001   0.939   7.383  12.144  0.4615 -0.9617 -0.2708
11075SOL     OW42002   1.462   0.176   5.986 -0.6147 -0.4477  1.0049
11075SOL    HW142003   1.484   0.101   5.931 -2.4580 -0.8888  0.8052
11075SOL    HW242004   1.500   0.251   5.939  2.9658 -1.3030  2.1757
11076SOL     OW42005   1.815  12.131  10.744 -0.1159 -0.0674  0.0420
11076SOL    HW142006   1.736  12.185  10.743 -0.8170 -0.9717 -2.4260
11076SOL    HW242007   1.830  12.110  10.652  1.9799 -1.4319  0.6285
11077SOL     OW42008  12.468   5.875   7.851  0.0060 -0.2192  0.3821
11077SOL    HW142009  12.422   5.958   7.844 -0.0398 -0.3892 -2.5505
11077SOL    HW242010  12.499   5.872   7.942  1.4758  3.7770  0.2128
11078SOL     OW42011   3.421   4.986   4.148 -0.8504 -0.4445  0.3123
11078SOL    HW142012   3.504   4.941   4.163 -0.1306  1.1832  1.5814
11078SOL    HW242013   3.372   4.972   4.230 -0.7386  0.7499  0.6016
11079SOL     OW42014   5.383  12.050   8.117 -0.3129 -0.3575 -0.1788
11079SOL    HW142015   5.370  12.142   8.137 -1.0042 -0.7241  1.1629
11079SOL    HW242016   5.407  12.010   8.201  2.1070 -1.0596 -1.1002
11080SOL     OW42017   2.790  10.640   1.587 -0.2658  0.5143  0.0726
11080SOL    HW142018   2.801  10.676   1.499 -0.9250  1.8730  0.5172
11080SOL    HW242019   2.696  10.625   1.596 -0.1451 -0.0947  0.3732
11081SOL     OW42020  11.998   1.102   9.913 -0.3663 -0.0236 -1.0646
11081SOL    HW142021  11.960   1.188   9.896 -0.4400  0.6623  2.1050
11081SOL    HW242022  12.058   1.115   9.986 -0.1064 -2.6090 -0.7174
11082SOL     OW42023   2.969   5.218   4.391  0.2941  0.6753  0.4703
11082SOL    HW142024   2.909   5.185   4.458  0.8065 -1.2880  0.0281
11082SOL    HW242025   2.959   5.313   4.395 -0.4603  0.5685  2.5973
11083SOL     OW42026   2.277   4.676   2.258  0.3006 -0.1835 -0.0741
11083SOL    HW142027   2.210   4.620   2.218  0.3820 -0.3951  0.0849
11083SOL    HW242028   2.291   4.639   2.345 -0.1114  0.4716  0.2791
11084SOL     OW42029   7.109   6.067   2.462  0.4526  0.6863 -0.6561
11084SOL    HW142030   7.095   6.085   2.555  1.4526  1.8581 -0.7023
11084SOL    HW242031   7.026   6.092   2.420 -0.8228 -1.9279  0.1084
11085SOL     OW42032   6.125   3.211   6.446  0.3091 -0.2595 -0.3783
11085SOL    HW142033   6.135   3.145   6.377 -1.2644 -1.2158  0.2525
11085SOL    HW242034   6.101   3.160   6.523  0.7263  0.9248  0.5465
11086SOL     OW42035  10.992  12.601   0.530 -0.3831  0.2853 -0.6672
11086SOL    HW142036  10.963  12.597   0.439  2.2805  1.9186 -1.6921
11086SOL    HW242037  11.031  12.515   0.547 -1.7051 -0.3466 -0.7194
11087SOL     OW42038   3.250   9.210   7.403 -0.2501 -0.0486  0.2598
11087SOL    HW142039   3.170   9.232   7.449 -0.4109  1.4871 -0.6789
11087SOL    HW242040   3.221   9.176   7.319  0.0681 -0.1072  0.1717
11088SOL     OW42041   5.857   7.688   1.115  0.6466 -0.3243  0.4799
11088SOL    HW142042   5.914   7.751   1.071 -2.9078  1.9998 -1.2179
11088SOL    HW242043   5.794   7.742   1.162 -2.7116 -2.4701 -1.2035
11089SOL     OW42044  11.270  10.464   0.538 -0.3280  0.1355  0.0614
11089SOL    HW142045  11.296  10.477   0.629 -1.4144 -0.5125  0.4771
11089SOL    HW242046  11.343  10.501   0.487  0.1389  0.8029  1.1778
11090SOL     OW42047   2.348   3.731   4.710 -0.6535 -0.0472 -0.0215
11090SOL    HW142048   2.257   3.706   4.692 -0.8154  1.6520 -1.9025
11090SOL    HW242049   2.393   3.648   4.726 -2.3324 -0.9958 -0.0265
11091SOL     OW42050   6.466   3.241   3.051  0.2141 -0.2229  0.1348
11091SOL    HW142051   6.447   3.335   3.059 -2.0820 -0.5942 -0.3102
11091SOL    HW242052   6.523   3.222   3.125 -0.0582  1.3430  0.7873
11092SOL     OW42053   6.151   6.789   5.634 -0.2347 -0.2550 -0.3564
11092SOL    HW142054   6.220   6.846   5.598 -0.5710  0.4352  0.0586
11092SOL    HW242055   6.109   6.843   5.701 -1.4430 -0.5185 -0.8788
11093SOL     OW42056  10.447   4.750   6.073  0.2593 -0.7322  0.6873
11093SOL    HW142057  10.379   4.774   6.010 -0.1706 -1.9588  0.6653
11093SOL    HW242058  10.500   4.829   6.081 -1.0097  0.1718  0.5174
11094SOL     OW42059   5.411  11.415   3.704 -0.2501  0.2227 -0.2972
11094SOL    HW142060   5.468  11.441   3.631 -1.5349 -0.1214 -1.4694
11094SOL    HW242061   5.439  11.470   3.777  0.8016  0.8815 -1.1685
11095SOL     OW42062  10.458  10.969  12.021  0.4880 -0.1558 -0.6148
11095SOL    HW142063  10.523  11.039  12.020  0.3518 -0.0317 -1.1681
11095SOL    HW242064  10.378  11.010  12.054  0.2069  0.1451 -1.6240
11096SOL     OW42065   3.706  10.824  11.172 -0.8432  0.2983 -0.1456
11096SOL    HW142066   3.773  10.890  11.190  1.1556 -1.9747  1.3520
11096SOL    HW242067   3.739  10.777  11.095 -1.6353  0.2534 -0.4676
11097SOL     OW42068   7.366  10.016   7.516 -0.7108  0.2637  0.2620
11097SOL    HW142069   7.364   9.941   7.457 -1.6528  1.4932 -1.3496
11097SOL    HW242070   7.281  10.059   7.504  0.0468  1.9537  0.6210
11098SOL     OW42071   5.025   3.790   0.762  0.0811 -0.4647  0.1214
11098SOL    HW142072   4.950   3.773   0.820  0.9025 -1.2261  0.9817
11098SOL    HW242073   5.003   3.744   0.680 -0.4957 -0.4802  0.2806
11099SOL     OW42074   5.913   8.817   2.649 -0.1581  0.0814  0.1330
11099SOL    HW142075   5.924   8.746   2.712 -1.0396 -1.9193 -1.8165
11099SOL    HW242076   5.819   8.836   2.652 -0.2273 -0.1199 -0.6281
11100SOL     OW42077   5.569   1.576   6.623  0.1190  0.2980 -0.2505
11100SOL    HW142078   5.606   1.527   6.696 -1.7336 -1.1822 -0.2255
11100SOL    HW242079   5.482   1.601   6.653 -0.5832 -0.1316 -1.8439
11101SOL     OW42080   7.599   6.181   4.139  0.3704 -0.5876 -0.3016
11101SOL    HW142081   7.553   6.234   4.074 -0.7570  1.5826  2.0824
11101SOL    HW242082   7.567   6.092   4.123 -2.7050  0.4199 -0.4942
11102SOL     OW42083   1.514   4.125   5.406 -0.1279  0.4731  0.2688
11102SOL    HW142084   1.576   4.150   5.475 -0.9603  0.8430  0.8945
11102SOL    HW242085   1.540   4.036   5.382  0.9398  0.7929  0.1848
11103SOL     OW42086   3.039   7.415  10.420  0.2135 -0.2643 -0.1231
11103SOL    HW142087   2.995   7.339  10.381  0.6266 -0.1736 -0.7741
11103SOL    HW242088   2.967   7.468  10.455 -0.2566  0.0660 -1.4989
11104SOL     OW42089   9.332   6.445   6.482 -0.7346  0.5141  0.0733
11104SOL    HW142090   9.278   6.385   6.430  0.5225 -0.2300 -0.4247
11104SOL    HW242091   9.340   6.401   6.567 -0.8752  0.6207  0.1440
11105SOL     OW42092   8.673   4.982  10.377 -0.6532  0.2916  0.6167
11105SOL    HW142093   8.755   4.933  10.369 -1.1134 -0.3086 -0.7842
11105SOL    HW242094   8.690   5.065  10.332 -0.7984  0.1612  0.3136
11106SOL     OW42095   2.571   9.580  11.101  0.1887 -0.1657  0.1267
11106SOL    HW142096   2.491   9.621  11.134 -0.4367 -0.2283 -1.2400
11106SOL    HW242097   2.642   9.628  11.144 -0.5589  1.1475 -0.0647
11107SOL     OW42098   1.841   1.946   1.818  0.6677 -0.3855  0.1325
11107SOL    HW142099   1.808   1.976   1.733  4.5607  1.5981 -0.9040
11107SOL    HW242100   1.792   1.999   1.882 -0.5755 -0.1220 -0.9770
11108SOL     OW42101   9.190  11.681   2.887  0.4550  0.1501  0.3032
11108SOL    HW142102   9.271  11.663   2.841  0.1481 -0.6348  0.0519
11108SOL    HW242103   9.135  11.604   2.871 -0.7835  1.1465 -0.5139
11109SOL     OW42104  10.005   1.543   0.834 -0.1267 -0.0168  0.0970
11109SOL    HW142105  10.021   1.503   0.920  0.7846 -0.9859 -0.5096
11109SOL    HW242106  10.000   1.637   0.853  1.2865 -0.0929  1.0626
11110SOL     OW42107   0.053   3.654   5.844  0.2036 -0.2456  0.0587
11110SOL    HW142108   0.069   3.700   5.926  1.5939  0.2756 -0.4605
11110SOL    HW242109   0.028   3.565   5.870 -0.2715  0.1650  1.0453
11111SOL     OW42110   0.706  12.160   5.768 -0.0554  0.1340 -0.3936
11111SOL    HW142111   0.723  12.213   5.689  0.0471 -1.0205 -1.1735
11111SOL    HW242112   0.703  12.070   5.736  1.0808 -0.4766  1.1040
11112SOL     OW42113  11.153   8.967   3.141 -0.4384  0.1382  0.4412
11112SOL    HW142114  11.062   8.946   3.123 -0.4125  0.1459  0.3012
11112SOL    HW242115  11.193   8.979   3.054 -0.2456 -0.1185  0.4930
11113SOL     OW42116   2.809   3.329   1.267  0.3459  0.5551 -0.4139
11113SOL    HW142117   2.781   3.412   1.229 -1.6864 -0.0448 -0.3038
11113SOL    HW242118   2.777   3.262   1.206  0.8548 -0.2264  0.1522
11114SOL     OW42119   7.124   7.798  12.357  0.0587 -0.2190 -0.1742
11114SOL    HW142120   7.031   7.789  12.336  0.5313 -0.3334 -2.4064
11114SOL    HW242121   7.136   7.743  12.435 -1.9000  0.5758  0.7753
11115SOL     OW42122   5.570   8.786  11.409  0.3084 -0.2831 -0.0242
11115SOL    HW142123   5.521   8.704  11.421  1.0966 -0.9348 -1.0076
11115SOL    HW242124   5.660   8.763  11.436  0.3180  0.5736  0.7023
11116SOL     OW42125  11.135   7.104   8.721 -0.3612 -0.2804  0.3157
11116SOL    HW142126  11.133   7.081   8.814  0.0277 -0.3084  0.3205
11116SOL    HW242127  11.137   7.199   8.720 -0.3430 -0.2803  0.3387
11117SOL     OW42128   2.190   7.613   0.577 -0.1496  0.3286  0.0493
11117SOL    HW142129   2.216   7.522   0.589  1.6302  0.8585  0.6404
11117SOL    HW242130   2.121   7.628   0.641 -1.0033 -0.7875 -0.5826
11118SOL     OW42131  11.171  10.405  12.412  0.2732  0.0620 -0.0970
11118SOL    HW142132  11.242  10.467  12.398 -0.2017  0.2137 -2.0563
11118SOL    HW242133  11.092  10.452  12.386 -0.5995 -0.1086  2.0360
11119SOL     OW42134   3.811   6.187   4.548 -0.4716  0.0250  0.3139
11119SOL    HW142135   3.820   6.182   4.644 -0.3184  1.4421  0.4026
11119SOL    HW242136   3.870   6.119   4.515  3.1664  2.4443  1.1529
11120SOL     OW42137   3.989   6.483   4.920  0.2503 -0.1954  0.2611
11120SOL    HW142138   4.068   6.453   4.874  0.0541 -0.6823  0.2479
11120SOL    HW242139   4.022   6.516   5.004  0.7594  1.7024 -0.6076
11121SOL     OW42140   6.629  11.999   7.937  0.4056  0.3209 -0.0550
11121SOL    HW142141   6.656  12.046   7.858 -0.2861  0.6584 -0.0988
11121SOL    HW242142   6.534  12.008   7.939  0.3119 -0.5901  0.2517
11122SOL     OW42143   7.924   6.303   8.806  0.1040  0.2895 -0.0205
11122SOL    HW142144   7.869   6.291   8.728  0.7083 -2.7551 -0.0993
11122SOL    HW242145   7.885   6.247   8.872  1.5248  0.1960  0.7903
11123SOL     OW42146  10.398  12.229   2.119 -0.4311  0.6333 -0.0429
11123SOL    HW142147  10.364  12.216   2.207  0.6378  2.5040  0.7065
11123SOL    HW242148  10.449  12.150   2.101 -1.4915 -0.2204  0.5794
11124SOL     OW42149   6.613   0.259   9.897 -0.7100 -0.1507 -0.1171
11124SOL    HW142150   6.707   0.270   9.884 -0.4683 -1.0535  0.7682
11124SOL    HW242151   6.579   0.234   9.811  0.1032 -1.3674 -0.0972
11125SOL     OW42152   0.570   4.386   0.559  0.0552 -0.5191 -0.3586
11125SOL    HW142153   0.587   4.452   0.626  2.2952 -1.9536  0.6031
11125SOL    HW242154   0.506   4.427   0.501  1.1870  2.3958  0.2795
11126SOL     OW42155  11.564   0.707   2.286 -0.3921 -0.1697 -0.1456
11126SOL    HW142156  11.476   0.720   2.251 -0.3154  1.0297  0.0559
11126SOL    HW242157  11.555   0.725   2.380  0.2006  0.6380 -0.2393
11127SOL     OW42158   5.789   8.847   0.097 -0.2976 -0.0057  0.1925
11127SOL    HW142159   5.858   8.791   0.133 -0.3907 -0.0146  0.3569
11127SOL    HW242160   5.822   8.874   0.011 -0.6219 -0.9889 -0.2462
11128SOL     OW42161   0.602   1.091   2.090  0.4395  0.6970 -0.0189
11128SOL    HW142162   0.691   1.069   2.116  0.5677 -2.2235 -2.4936
11128SOL    HW242163   0.555   1.008   2.092 -1.8161  1.8838 -0.4032
11129SOL     OW42164  12.133  10.634   8.591  0.1484  0.1999 -0.3789
11129SOL    HW142165  12.149  10.670   8.504 -1.3183 -0.5296 -0.9807
11129SOL    HW242166  12.135  10.539   8.578  0.5965  0.0741  0.5240
11130SOL     OW42167   2.361   2.255   6.268  0.7886  0.2644  0.2427
11130SOL    HW142168   2.373   2.350   6.267  2.2790  0.1126  0.7240
11130SOL    HW242169   2.386   2.229   6.357  1.7789 -0.7204 -0.3052
11131SOL     OW42170   6.893   4.678   7.271 -0.3540  0.0972 -0.0459
11131SOL    HW142171   6.865   4.702   7.360 -2.8937 -2.7141  0.0899
11131SOL    HW242172   6.982   4.645   7.283 -1.0380 -1.3120  1.7646
11132SOL     OW42173   1.114   5.651  11.346 -0.0409  0.5337  0.0240
11132SOL    HW142174   1.036   5.696  11.379 -0.7827 -0.1568 -0.7309
11132SOL    HW242175   1.110   5.564  11.386  0.3064  0.4685 -0.0779
11133SOL     OW42176   0.736   2.049   9.851  0.1837  0.1073  0.2325
11133SOL    HW142177   0.696   2.024   9.935 -1.5766 -1.5665 -1.0232
11133SOL    HW242178   0.675   2.110   9.812 -0.5257 -1.3573 -1.0684
11134SOL     OW42179   6.660   9.034  10.423  0.3374  0.1429 -0.3887
11134SOL    HW142180   6.606   9.012  10.499  0.4079  1.3387  0.0233
11134SOL    HW242181   6.715   8.957  10.409  1.4041  0.4692  1.7262
11135SOL     OW42182   1.884  11.546  12.397 -0.1636 -0.4247 -0.5960
11135SOL    HW142183   1.962  11.540  12.451  0.8324 -0.2525 -1.9644
11135SOL    HW242184   1.825  11.603  12.447  1.1230  0.5655 -0.1479
11136SOL     OW42185   3.066   4.352   4.813  0.5553  0.5184  0.2433
11136SOL    HW142186   3.110   4.284   4.761 -0.6171  1.0322 -1.5247
11136SOL    HW242187   3.113   4.433   4.791  0.6605  0.5983  0.7485
11137SOL     OW42188  11.716  11.564   5.212 -0.1678  0.1855  0.0567
11137SOL    HW142189  11.810  11.554   5.230 -0.1174 -1.9058 -1.0442
11137SOL    HW242190  11.680  11.601   5.292  1.5345  0.7236  0.6254
11138SOL     OW42191  10.994   9.337   5.029  0.4306  0.2604  0.1237
11138SOL    HW142192  10.937   9.375   4.962 -0.2895  0.3727  0.7786
11138SOL    HW242193  10.974   9.387   5.109  0.0598 -0.9483  0.8105
11139SOL     OW42194   7.812   8.280   4.230 -0.5218 -0.6262 -0.1319
11139SOL    HW142195   7.791   8.186   4.230 -0.2792 -0.6821 -0.0811
11139SOL    HW242196   7.870   8.291   4.154 -1.3442 -0.3334 -0.7395
11140SOL     OW42197   7.581   7.180   6.605 -0.2942 -0.2581  0.1656
11140SOL    HW142198   7.512   7.233   6.564  0.6046  1.2177  0.4874
11140SOL    HW242199   7.658   7.197   6.551  0.0848 -1.0239  0.4608
11141SOL     OW42200   8.271   1.968   4.279 -0.2528 -0.3878  0.0983
11141SOL    HW142201   8.182   1.992   4.303  1.0139  2.9383  2.0686
11141SOL    HW242202   8.269   1.959   4.184 -2.1895  2.2127 -0.1925
11142SOL     OW42203  10.774   5.161   1.772  0.0669 -0.4743 -0.0397
11142SOL    HW142204  10.755   5.185   1.681  1.0172 -0.3830 -0.2317
11142SOL    HW242205  10.867   5.139   1.771  0.1218 -0.3078  0.9477
11143SOL     OW42206   9.372   2.957   2.346 -0.0619  0.3530 -0.2984
11143SOL    HW142207   9.295   2.944   2.291  0.4074  2.8770 -1.6906
11143SOL    HW242208   9.391   2.869   2.381 -3.2055 -0.4585 -0.2894
11144SOL     OW42209  11.549  10.373   2.978  0.2100  0.0118  0.4432
11144SOL    HW142210  11.627  10.322   2.996  1.3390  1.1472 -1.0221
11144SOL    HW242211  11.484  10.310   2.949  0.8765 -0.8309  0.7618
11145SOL     OW42212   4.822   7.026   9.153 -0.7359  0.1617  0.7920
11145SOL    HW142213   4.896   7.077   9.186 -0.1131 -0.3337  0.2013
11145SOL    HW242214   4.810   6.956   9.217  1.3411 -1.6067 -0.5934
11146SOL     OW42215  11.702   1.680   9.000 -0.4729  0.0771 -0.2995
11146SOL    HW142216  11.685   1.737   8.925 -1.9182 -2.2636 -1.8715
11146SOL    HW242217  11.670   1.594   8.973 -3.7299 -0.3998  3.9768
11147SOL     OW42218  10.559   3.761   6.692 -0.0635  0.5030  0.2155
11147SOL    HW142219  10.582   3.773   6.784  0.2908 -2.0629  0.5201
11147SOL    HW242220  10.463   3.769   6.690 -0.0809  0.4648  0.8393
11148SOL     OW42221   3.651  12.536   8.927 -0.0320  0.0408  0.5809
11148SOL    HW142222   3.713  12.573   8.989 -0.4208  0.4969  0.7007
11148SOL    HW242223   3.605  12.611   8.890  1.8195 -0.0022 -2.0507
11149SOL     OW42224  11.551   2.339  10.377  0.4667  0.1057 -0.0149
11149SOL    HW142225  11.623   2.303  10.429 -0.2185 -0.1889  0.7532
11149SOL    HW242226  11.495   2.264  10.360 -0.7138  0.6734  1.1605
11150SOL     OW42227   7.439  11.150   6.227  0.1788  0.1521 -0.2991
11150SOL    HW142228   7.500  11.159   6.301 -0.9467  0.0824  0.6572
11150SOL    HW242229   7.364  11.205   6.251 -0.4964 -0.4133 -1.0792
11151SOL     OW42230   4.637  12.242   9.868  0.3878 -0.0672 -0.2653
11151SOL    HW142231   4.602  12.280   9.787 -1.5164  1.1898  1.0402
11151SOL    HW242232   4.721  12.286   9.880  0.5416 -0.0174 -1.3678
11152SOL     OW42233   2.008   4.979   2.498  0.0567 -0.0154 -0.1351
11152SOL    HW142234   1.923   5.022   2.483  0.7145  0.8334 -1.6792
11152SOL    HW242235   2.022   4.987   2.592 -0.5991  1.7699 -0.1429
11153SOL     OW42236   1.877   2.096   8.098 -0.0169 -0.2541  0.2270
11153SOL    HW142237   1.812   2.116   8.031  0.5130  2.1781  0.3540
11153SOL    HW242238   1.841   2.134   8.178 -0.4262 -2.7170  1.3209
11154SOL     OW42239   1.823   3.321   0.763 -0.1451  0.0323  0.6531
11154SOL    HW142240   1.850   3.413   0.774 -0.0194  0.0672  0.0853
11154SOL    HW242241   1.905   3.274   0.751 -0.1062 -0.3539  2.1895
11155SOL     OW42242  10.200   8.636   8.507 -0.4373  0.0327  0.2409
11155SOL    HW142243  10.195   8.547   8.543  0.0588 -0.8189 -1.6496
11155SOL    HW242244  10.194   8.623   8.413  1.2529  1.8648 -0.1833
11156SOL     OW42245  12.263   4.164   9.652  0.1966  0.1176  0.0494
11156SOL    HW142246  12.231   4.075   9.668 -1.0638  0.1111 -2.1857
11156SOL    HW242247  12.307   4.188   9.734 -0.1011 -2.2473  0.9904
11157SOL     OW42248   6.838   5.752   2.979 -0.1384 -0.4167 -0.1002
11157SOL    HW142249   6.810   5.843   2.979 -0.5876 -0.4885  1.8940
11157SOL    HW242250   6.933   5.755   2.981 -0.1615  0.0606  0.9449
11158SOL     OW42251   2.802   2.074   7.203  0.3744 -0.0943  0.2912
11158SOL    HW142252   2.719   2.052   7.161 -0.2731  0.6394  1.1419
11158SOL    HW242253   2.867   2.067   7.133 -0.1439 -2.2329 -0.0227
11159SOL     OW42254   1.048   8.249   5.271  0.0320  0.1894 -0.8198
11159SOL    HW142255   1.020   8.158   5.264  0.6871 -0.1901  1.0558
11159SOL    HW242256   1.140   8.248   5.244 -0.0943  0.4040 -1.2790
11160SOL     OW42257   6.773   1.413   3.347 -0.2941  0.1238  0.3756
11160SOL    HW142258   6.756   1.506   3.330 -1.2625  0.1038  1.1311
11160SOL    HW242259   6.736   1.367   3.272 -0.4038  0.3078  0.3174
11161SOL     OW42260   9.171   3.108   9.536  0.0701  0.0981 -0.2912
11161SOL    HW142261   9.235   3.093   9.606 -2.4073  2.0851  2.6702
11161SOL    HW242262   9.177   3.030   9.481  2.8533 -1.1567  1.5473
11162SOL     OW42263  10.877   0.323   1.482 -0.0441  0.2553 -0.1516
11162SOL    HW142264  10.825   0.257   1.529  0.7392  2.2834  3.9282
11162SOL    HW242265  10.812   0.388   1.454 -0.2235  0.5476  0.9098
11163SOL     OW42266   4.237  10.893  10.237  0.1251  0.0539  0.6326
11163SOL    HW142267   4.237  10.923  10.328 -1.2221  1.3216  0.2461
11163SOL    HW242268   4.311  10.833  10.232  0.3031  0.0587  2.5316
11164SOL     OW42269  12.066  12.511   9.324  0.1477 -0.1746 -0.4225
11164SOL    HW142270  12.093  12.458   9.249 -0.6650 -1.0690 -0.1022
11164SOL    HW242271  12.001  12.458   9.369  0.6699  0.3260  0.9702
11165SOL     OW42272  10.007   9.580   0.006 -0.3108  0.2157  0.1247
11165SOL    HW142273  10.034   9.499  -0.038  0.1431  0.8811 -0.8522
11165SOL    HW242274  10.074   9.596   0.072 -1.0847 -0.8788  1.2248
11166SOL     OW42275  11.836   2.381   5.179  0.4084 -0.6620 -0.0582
11166SOL    HW142276  11.763   2.440   5.165  0.6569 -0.3050  0.1395
11166SOL    HW242277  11.865   2.399   5.269 -1.1085 -2.8535  0.9776
11167SOL     OW42278   2.178   5.764   7.167  0.8418  0.0566 -0.1504
11167SOL    HW142279   2.136   5.776   7.252  1.1925 -0.3813  0.0838
11167SOL    HW242280   2.268   5.792   7.180  0.9776 -0.3092 -0.2994
11168SOL     OW42281   7.916   2.775   0.659  0.3904 -0.2050  0.2876
11168SOL    HW142282   7.830   2.736   0.676  0.0483  0.5242  0.2826
11168SOL    HW242283   7.938   2.746   0.570  0.3950 -0.8266  0.4889
11169SOL     OW42284   2.422  10.209   9.121  0.3490  0.2211  0.1120
11169SOL    HW142285   2.444  10.289   9.074 -0.3988  1.2489  1.4500
11169SOL    HW242286   2.500  10.190   9.174  0.2461  0.4902  0.3603
11170SOL     OW42287   9.500   6.450   9.996 -0.1114 -0.0959  0.4906
11170SOL    HW142288   9.593   6.449  10.020  0.4484 -0.9142 -1.5154
11170SOL    HW242289   9.493   6.522   9.933 -0.5068 -0.9185 -0.4382
11171SOL     OW42290   1.929   8.000   0.372  0.4489  0.5285 -0.2939
11171SOL    HW142291   1.981   7.929   0.411  0.4860  0.7972  0.1546
11171SOL    HW242292   1.970   8.016   0.287 -0.5264 -1.0673 -1.1023
11172SOL     OW42293   4.922   4.716  11.018  0.0810  0.0659  0.0241
11172SOL    HW142294   4.880   4.793  10.978 -0.6055 -0.0663  0.4610
11172SOL    HW242295   4.956   4.747  11.102 -0.5818 -0.1850  0.4030
11173SOL     OW42296  12.409   1.933   9.004 -0.2969 -0.1685 -0.4685
11173SOL    HW142297  12.497   1.959   8.977 -0.3622  0.7865  0.1866
11173SOL    HW242298  12.410   1.838   9.002  0.7432 -0.1624 -0.5224
11174SOL     OW42299   3.610   4.958  11.371 -0.2696 -0.1366  0.0151
11174SOL    HW142300   3.679   5.023  11.359  3.0270 -2.4360  3.9509
11174SOL    HW242301   3.638   4.882  11.321  0.0118 -1.0221  1.4666
11175SOL     OW42302   5.039   7.817   4.207 -0.0430  0.3691  0.2028
11175SOL    HW142303   5.065   7.738   4.255 -0.0959  0.0553 -0.2739
11175SOL    HW242304   5.026   7.786   4.117 -1.7721  0.5738  0.3499
11176SOL     OW42305  12.177   4.832   3.721  0.1659  0.4453  0.2715
11176SOL    HW142306  12.083   4.844   3.702  0.7386  1.3134 -2.6465
11176SOL    HW242307  12.215   4.918   3.703  1.6513 -0.1624  0.4238
11177SOL     OW42308   3.695   0.210  10.362  0.1694 -1.0106  0.1431
11177SOL    HW142309   3.638   0.283  10.385  0.1555 -1.0909  0.3727
11177SOL    HW242310   3.774   0.224  10.414 -0.1064 -1.5279  0.7191
11178SOL     OW42311   0.162   6.456  11.945 -0.1849  0.2674 -0.3372
11178SOL    HW142312   0.210   6.519  11.998  0.6509 -0.2676 -0.4187
11178SOL    HW242313   0.099   6.416  12.004 -0.6225  1.0792 -0.2555
11179SOL     OW42314   2.894   7.491   6.924 -0.6364  0.0122 -0.4980
11179SOL    HW142315   2.977   7.529   6.894 -0.5406  0.1190 -0.1150
11179SOL    HW242316   2.851   7.460   6.845 -0.9699  1.4242 -0.9008
11180SOL     OW42317  11.179   7.601  11.815  0.1564 -0.3397  0.3256
11180SOL    HW142318  11.144   7.691  11.811  1.0267 -0.0338 -1.4187
11180SOL    HW242319  11.138   7.557  11.740 -0.4042 -1.4837  1.2762
11181SOL     OW42320   5.995   2.181   9.790  0.1076 -0.6139  0.2572
11181SOL    HW142321   6.089   2.169   9.778  0.4365  0.6985  1.2536
11181SOL    HW242322   5.956   2.096   9.768  1.4456 -0.9774 -0.8427
11182SOL     OW42323   7.238   0.936   1.711 -0.3827 -0.2505 -0.2365
11182SOL    HW142324   7.254   0.847   1.741 -2.3436 -0.5326  0.1371
11182SOL    HW242325   7.176   0.926   1.638 -1.7916  0.8442  0.7473
11183SOL     OW42326   7.820   6.388   8.171  0.6004 -0.7261 -0.2259
11183SOL    HW142327   7.840   6.308   8.122  2.8591 -0.8161  0.7097
11183SOL    HW242328   7.869   6.378   8.253 -1.7821  0.1373  1.4067
11184SOL     OW42329   3.929  10.997   5.845  0.1612 -0.7657 -0.1598
11184SOL    HW142330   3.933  10.965   5.935 -0.7117 -1.2089 -0.2609
11184SOL    HW242331   3.896  10.922   5.795  0.3080 -0.4172 -0.7954
11185SOL     OW42332   4.315   4.612  10.538  0.5472 -0.3271 -0.2399
11185SOL    HW142333   4.366   4.577  10.611  0.4418  0.3862  0.1877
11185SOL    HW242334   4.227   4.576  10.551  0.3249  0.4258  0.4554
11186SOL     OW42335   0.961   0.998   3.364  0.4245  0.1384  0.2315
11186SOL    HW142336   0.943   0.911   3.328  1.5986 -0.3766  0.8339
11186SOL    HW242337   0.908   1.057   3.311 -0.6046 -0.9681 -0.0048
11187SOL     OW42338   8.120   3.612   5.924 -0.1332 -0.1249 -1.0203
11187SOL    HW142339   8.037   3.648   5.895  0.4205  0.3024 -2.1460
11187SOL    HW242340   8.156   3.569   5.846  0.5708 -0.5417 -0.4765
11188SOL     OW42341  12.104   4.281   7.406  0.1846 -0.6475 -0.0541
11188SOL    HW142342  12.128   4.307   7.494  2.0240 -0.8641 -0.4405
11188SOL    HW242343  12.070   4.360   7.365 -1.3744 -0.7074  1.0227
11189SOL     OW42344   2.654   9.971   9.099  0.2494 -0.7433 -0.6654
11189SOL    HW142345   2.656  10.059   9.136 -0.8597 -0.9175 -0.1574
11189SOL    HW242346   2.601   9.980   9.020  0.0173 -0.9836 -0.5375
11190SOL     OW42347   1.176   4.627   9.312  0.3967  0.2887 -0.2121
11190SOL    HW142348   1.166   4.562   9.243 -0.0709 -0.5194  0.5973
11190SOL    HW242349   1.124   4.702   9.282 -0.2036 -0.2401 -0.4947
11191SOL     OW42350  10.270  10.150   5.183  0.7921 -0.0450  0.1558
11191SOL    HW142351  10.201  10.184   5.127  1.2277  3.0839  1.3047
11191SOL    HW242352  10.243  10.060   5.202 -0.2182 -0.7061 -3.5584
11192SOL     OW42353   6.146  10.944   8.121  0.0996 -0.2362 -0.0945
11192SOL    HW142354   6.106  10.906   8.042  0.6872  1.2424 -1.1463
11192SOL    HW242355   6.090  11.018   8.144  0.7694  0.2652 -0.0399
11193SOL     OW42356   2.422   1.326   2.067 -0.0863 -0.1058  0.1432
11193SOL    HW142357   2.482   1.368   2.006 -1.9109 -0.4281 -2.0182
11193SOL    HW242358   2.433   1.374   2.149  0.4831  2.2084 -1.2070
11194SOL     OW42359   4.100   6.809  11.662  0.8677 -0.1122  0.2197
11194SOL    HW142360   4.172   6.752  11.687  0.4511 -0.8141 -0.1397
11194SOL    HW242361   4.041   6.807  11.737  0.6555 -0.4939  0.0476
11195SOL     OW42362   9.652   8.757  11.995  0.2008 -0.4629  0.0255
11195SOL    HW142363   9.590   8.771  12.066  0.4366  2.0241 -0.1710
11195SOL    HW242364   9.730   8.722  12.038  0.3904  1.1345  1.0711
11196SOL     OW42365   6.812   4.423   0.665 -0.5245 -0.8799  0.1199
11196SOL    HW142366   6.850   4.397   0.581  0.3629  1.0055 -0.1298
11196SOL    HW242367   6.841   4.356   0.726  2.1407 -0.3102 -0.3586
11197SOL     OW42368   5.792   4.741   2.800 -0.1868 -0.3347  0.7265
11197SOL    HW142369   5.779   4.788   2.883 -0.1566  1.5979 -0.3042
11197SOL    HW242370   5.851   4.797   2.750  0.5951 -1.9614 -0.2420
11198SOL     OW42371  10.785   1.340   4.197  0.0484  0.7384 -0.1688
11198SOL    HW142372  10.692   1.322   4.210 -0.4864  2.9986 -0.4920
11198SOL    HW242373  10.814   1.375   4.281  0.6601 -0.0850 -0.0279
11199SOL     OW42374   9.727   8.126  12.001  0.2926  0.3151  0.1295
11199SOL    HW142375   9.640   8.135  11.962 -0.1164  1.5761  1.2574
11199SOL    HW242376   9.767   8.053  11.953 -0.9328  0.4666 -1.2073
11200SOL     OW42377  10.528   0.360   6.350 -0.1229 -0.1602  0.7294
11200SOL    HW142378  10.442   0.402   6.352 -0.5661 -0.6744 -2.6384
11200SOL    HW242379  10.575   0.399   6.424 -2.4707  1.8211  1.3122
11201SOL     OW42380   8.512   8.403   1.789 -0.3429 -0.0314 -0.5587
11201SOL    HW142381   8.458   8.359   1.724  0.1893 -1.0196 -0.3610
11201SOL    HW242382   8.592   8.426   1.743 -0.8052  1.1918 -0.7834
11202SOL     OW42383  11.313   6.537   6.371  0.0696 -0.4243  0.0961
11202SOL    HW142384  11.356   6.619   6.395 -2.0427  0.9541 -0.5202
11202SOL    HW242385  11.282   6.500   6.454 -0.1381  0.0955  0.2502
11203SOL     OW42386  12.462  10.879   8.414  0.0173  0.2745  0.0618
11203SOL    HW142387  12.467  10.786   8.436  1.5614  0.3417  0.1475
11203SOL    HW242388  12.434  10.881   8.323  0.6618 -0.3210 -0.1600
11204SOL     OW42389   3.791   4.123  10.216 -0.4131  0.1637 -0.1552
11204SOL    HW142390   3.829   4.181  10.150 -2.4278  1.0701 -0.6161
11204SOL    HW242391   3.800   4.171  10.298 -0.3550  0.2634 -0.2191
11205SOL     OW42392   8.858  11.520   9.716 -0.5893  0.0977 -0.1523
11205SOL    HW142393   8.766  11.536   9.697 -1.2457 -2.4390  0.5998
11205SOL    HW242394   8.899  11.509   9.630 -1.3936 -0.6893 -0.4482
11206SOL     OW42395  11.538   2.650   7.806 -0.2414  0.5508 -0.2461
11206SOL    HW142396  11.494   2.665   7.722  0.1200  2.2728 -0.1697
11206SOL    HW242397  11.628   2.680   7.792  0.4473 -1.1718  0.1580
11207SOL     OW42398   7.765   8.656   0.771  0.1707 -0.0051 -0.2953
11207SOL    HW142399   7.785   8.749   0.767  0.0053 -0.0187 -2.0371
11207SOL    HW242400   7.832   8.614   0.718  1.3681 -1.1230  1.9631
11208SOL     OW42401   1.541   9.708   5.276 -0.1763  0.2182  0.3758
11208SOL    HW142402   1.591   9.779   5.316  0.2949 -0.1441  0.4385
11208SOL    HW242403   1.455   9.746   5.259  0.7778  1.5751 -1.8735
11209SOL     OW42404  10.819   9.972   7.611 -0.0425 -0.3114  0.1537
11209SOL    HW142405  10.895  10.011   7.655  0.0512 -0.7077  0.3469
11209SOL    HW242406  10.792   9.901   7.669 -0.4966 -0.2417  0.0301
11210SOL     OW42407  12.304   1.664   1.069 -0.1086 -0.3275  0.1017
11210SOL    HW142408  12.223   1.705   1.099 -0.3261 -0.8264  0.2053
11210SOL    HW242409  12.368   1.735   1.068 -0.4763  0.0096  0.2964
11211SOL     OW42410  11.974  12.304   3.107  0.1855  0.1193  0.4093
11211SOL    HW142411  12.010  12.329   3.022 -0.8596 -0.3910 -0.1894
11211SOL    HW242412  11.929  12.383   3.138  1.1150  0.5110  0.8031
11212SOL     OW42413  10.612   7.125  11.464 -0.3516 -0.0717 -0.3460
11212SOL    HW142414  10.581   7.171  11.542 -0.1733  0.7260 -0.7325
11212SOL    HW242415  10.550   7.151  11.395 -0.3766 -0.5899 -0.5203
11213SOL     OW42416  10.696  11.475  11.325  0.4688  0.3463 -0.4151
11213SOL    HW142417  10.697  11.541  11.395  2.3679  0.6869 -0.6937
11213SOL    HW242418  10.690  11.527  11.245  3.3608  0.4102 -0.7229
11214SOL     OW42419   8.034   9.386   8.949  0.3858 -0.6219 -0.0374
11214SOL    HW142420   8.061   9.401   9.040  0.2346  2.2013 -0.3674
11214SOL    HW242421   8.107   9.340   8.909  0.9074 -0.9403  1.2421
11215SOL     OW42422   1.203   1.974  10.777 -0.2123 -0.1289 -0.4843
11215SOL    HW142423   1.264   2.040  10.744  0.4354 -1.0992 -1.3144
11215SOL    HW242424   1.216   1.974  10.872 -2.7301  3.3294  0.0331
11216SOL     OW42425  10.130  10.591   1.286 -0.2546  0.0723 -0.4470
11216SOL    HW142426  10.179  10.551   1.214  1.0365 -2.1440  1.5215
11216SOL    HW242427  10.190  10.589   1.360 -2.9689 -2.2519  1.9794
11217SOL     OW42428  10.748   7.510   8.741 -0.3441 -0.0135 -0.2057
11217SOL    HW142429  10.800   7.497   8.661  0.6987  0.9069  0.2987
11217SOL    HW242430  10.729   7.604   8.742 -1.4294 -0.2221  0.0001
11218SOL     OW42431   5.438   7.429   8.868 -0.0617 -0.0204  0.5992
11218SOL    HW142432   5.503   7.419   8.937  0.4578 -2.7175 -0.1434
11218SOL    HW242433   5.478   7.487   8.804  0.9322 -0.3344  0.9248
11219SOL     OW42434   2.702  12.514   4.578  0.0130  0.4571  0.0086
11219SOL    HW142435   2.738  12.574   4.644 -0.6507  0.6095  0.2452
11219SOL    HW242436   2.667  12.441   4.629  1.4074 -0.4805 -0.3160
11220SOL     OW42437   3.785   7.416   3.100 -0.0466 -0.0058 -0.4063
11220SOL    HW142438   3.721   7.353   3.133  1.2888  0.1541  2.8161
11220SOL    HW242439   3.735   7.496   3.087 -1.2604 -0.9820 -2.0625
11221SOL     OW42440   1.796   2.396   9.033 -0.5960 -0.5450  0.4177
11221SOL    HW142441   1.816   2.446   8.954 -1.3148  0.8715  1.0857
11221SOL    HW242442   1.725   2.446   9.074 -0.1701 -1.2056  1.9961
11222SOL     OW42443   2.307   7.471  10.364 -0.1257  0.2610  0.4200
11222SOL    HW142444   2.319   7.475  10.269 -2.0057 -1.2250  0.0601
11222SOL    HW242445   2.226   7.422  10.376 -1.2423  2.4262  2.7331
11223SOL     OW42446   3.116   9.747   3.728 -0.1643 -0.5996 -0.2046
11223SOL    HW142447   3.137   9.723   3.818 -1.2274 -1.5423 -0.1937
11223SOL    HW242448   3.128   9.842   3.725  2.0727 -0.7973  0.3110
11224SOL     OW42449   5.853   2.271   2.730  0.1928 -0.2211 -0.3920
11224SOL    HW142450   5.890   2.184   2.718  0.7241 -0.3794  1.9370
11224SOL    HW242451   5.770   2.256   2.775  1.0460  0.4792  1.5388
11225SOL     OW42452   5.197   7.588   9.171 -0.6374  0.4849 -0.4720
11225SOL    HW142453   5.110   7.624   9.192 -1.0336 -0.1841 -0.9604
11225SOL    HW242454   5.216   7.621   9.083 -0.2107  0.9584 -0.2102
11226SOL     OW42455  11.076   5.101   3.549  0.4439  0.4004  0.2774
11226SOL    HW142456  11.165   5.136   3.545  0.2333  0.7931 -2.5868
11226SOL    HW242457  11.088   5.007   3.561  1.3014  0.3069 -1.1492
11227SOL     OW42458   5.540   4.311   1.028 -0.3429  0.2217 -0.1194
11227SOL    HW142459   5.521   4.269   0.944 -1.0629 -2.1857  1.1635
11227SOL    HW242460   5.606   4.255   1.069 -1.6365  0.0291  1.8395
11228SOL     OW42461   1.954   0.078   4.159  0.2226 -0.3616 -0.5410
11228SOL    HW142462   2.004   0.071   4.240  0.8389 -3.1536 -1.0734
11228SOL    HW242463   1.865   0.097   4.187  0.7303  0.3797  0.6492
11229SOL     OW42464   7.196  12.454   9.772 -0.9885  0.0366 -0.3661
11229SOL    HW142465   7.288  12.481   9.774 -0.4671 -1.6440  0.7871
11229SOL    HW242466   7.151  12.518   9.828 -0.3722  0.4149 -0.2973
11230SOL     OW42467   3.815   6.523   9.073  0.1962 -0.2183 -0.6733
11230SOL    HW142468   3.806   6.602   9.125  1.1216 -1.2754  1.2050
11230SOL    HW242469   3.725   6.498   9.052 -0.1648  0.5635 -0.0998
11231SOL     OW42470  11.441  11.516  11.574 -0.2494  0.5433  0.2402
11231SOL    HW142471  11.450  11.540  11.666 -1.3273  1.8394  0.0269
11231SOL    HW242472  11.510  11.565  11.529 -0.1760  0.4512  0.2499
11232SOL     OW42473   0.069  12.189   6.599  0.2344 -0.4444  0.3475
11232SOL    HW142474  -0.013  12.181   6.550 -0.9176  0.8827  1.9312
11232SOL    HW242475   0.137  12.195   6.531 -1.2465  1.0667 -1.1116
11233SOL     OW42476  12.438   5.839   6.726  0.0838  0.0121 -0.5850
11233SOL    HW142477  12.421   5.928   6.755  2.4102  0.2309  0.2962
11233SOL    HW242478  12.444   5.845   6.630  0.2061  0.8124 -0.5327
11234SOL     OW42479   1.536   6.096   4.274  0.5540 -0.2579 -0.8108
11234SOL    HW142480   1.498   6.044   4.345 -0.3962  0.8233 -0.5070
11234SOL    HW242481   1.522   6.042   4.196 -0.0528 -0.6395 -0.4501
11235SOL     OW42482   1.386   5.448   8.648  0.1692 -0.5002  0.4575
11235SOL    HW142483   1.467   5.499   8.654 -0.5732  0.5862  1.8533
11235SOL    HW242484   1.407   5.364   8.690  0.3027  0.1567  1.7379
11236SOL     OW42485   0.969  11.012   4.685  0.0832 -0.0183  0.1286
11236SOL    HW142486   1.027  10.965   4.625 -2.1885 -1.1998 -1.2877
11236SOL    HW242487   0.946  11.092   4.638  0.2417  0.2434  0.4981
11237SOL     OW42488  12.574   7.591   2.346 -0.8386  0.0740  0.7185
11237SOL    HW142489  12.661   7.567   2.378  0.3800  2.0288 -0.8949
11237SOL    HW242490  12.554   7.526   2.279 -1.1434 -1.0160  1.8273
11238SOL     OW42491   2.740   7.985   4.829 -0.3048  0.7287  0.7609
11238SOL    HW142492   2.673   7.931   4.788 -0.7701  0.2554  2.0851
11238SOL    HW242493   2.694   8.065   4.854 -0.5867  0.1303  2.2813
11239SOL     OW42494   3.824   8.837   2.657  0.6997  0.3091 -0.2603
11239SOL    HW142495   3.731   8.818   2.665  0.4451  1.7595  0.6378
11239SOL    HW242496   3.867   8.751   2.663 -0.5578 -0.3658 -0.6302
11240SOL     OW42497   4.672   0.628   7.974 -0.5709  0.4138 -0.0453
11240SOL    HW142498   4.578   0.624   7.993 -0.7007 -1.1993 -0.8580
11240SOL    HW242499   4.692   0.721   7.973 -2.2127  0.8009 -0.0828
11241SOL     OW42500   1.874  10.308   1.575  0.4079 -0.0102  0.4323
11241SOL    HW142501   1.955  10.294   1.623  0.3269  2.2313  1.3591
11241SOL    HW242502   1.814  10.344   1.640 -0.4360  0.9490 -0.8347
11242SOL     OW42503   7.282   2.854   6.906  0.1076  0.1404  0.8357
11242SOL    HW142504   7.351   2.896   6.957 -0.7587  1.7183  0.7549
11242SOL    HW242505   7.276   2.907   6.826 -0.5659 -0.5398  0.4247
11243SOL     OW42506  11.938   0.306   3.438 -0.6856 -0.2049  0.0799
11243SOL    HW142507  12.016   0.257   3.465  0.8184 -0.2988 -3.8236
11243SOL    HW242508  11.864   0.253   3.470  0.8521 -1.8474  1.1001
11244SOL     OW42509   4.171  12.493   1.275  0.8386  0.1960 -0.2546
11244SOL    HW142510   4.129  12.477   1.191 -0.8584  0.3772  0.5218
11244SOL    HW242511   4.169  12.409   1.320 -1.6255  0.8311  1.0095
11245SOL     OW42512   5.481  12.429   3.163 -0.4442 -0.2706 -0.1780
11245SOL    HW142513   5.552  12.445   3.225  0.9217 -1.5043 -1.3371
11245SOL    HW242514   5.510  12.473   3.083 -0.8972 -0.9402 -0.7183
11246SOL     OW42515  10.789   3.176   9.769  0.7878  0.3566  0.3654
11246SOL    HW142516  10.800   3.081   9.781  1.6120  0.5188  0.9661
11246SOL    HW242517  10.849   3.198   9.698 -0.2451  0.2537 -0.5609
11247SOL     OW42518   4.388   0.782   4.713  0.5806 -0.1392  0.1233
11247SOL    HW142519   4.296   0.806   4.703  0.3123 -0.8627  0.7629
11247SOL    HW242520   4.422   0.779   4.623  0.4211  1.7256 -0.0509
11248SOL     OW42521   0.601   0.924   3.905 -0.4862 -0.5289  0.4154
11248SOL    HW142522   0.509   0.936   3.881 -0.1988  1.3826  0.0856
11248SOL    HW242523   0.602   0.930   4.000 -0.3824  2.9968  0.3342
11249SOL     OW42524   5.617   9.694   2.231  0.5403 -0.8142 -0.1731
11249SOL    HW142525   5.670   9.650   2.164  0.8782 -3.0493  1.4579
11249SOL    HW242526   5.651   9.662   2.314 -1.9068 -0.5904  1.0133
11250SOL     OW42527   3.722   9.061   8.879  0.3385 -0.1007 -0.0860
11250SOL    HW142528   3.812   9.083   8.904  0.1421  0.6628 -0.0173
11250SOL    HW242529   3.730   8.986   8.821  1.2750  1.7604 -2.5126
11251SOL     OW42530   0.692   2.682   5.129 -0.5588 -0.3882  0.4285
11251SOL    HW142531   0.764   2.646   5.181  1.3601  1.4523 -0.7518
11251SOL    HW242532   0.617   2.628   5.151  1.1637 -2.4148  1.7811
11252SOL     OW42533   9.421   6.882  12.331 -0.1199  0.2366 -0.2824
11252SOL    HW142534   9.513   6.908  12.325 -0.8110  2.7057 -1.0810
11252SOL    HW242535   9.408   6.862  12.424  0.7764  1.8280  0.2249
11253SOL     OW42536  10.415  10.241  11.840  0.0070 -0.7620 -0.4228
11253SOL    HW142537  10.477  10.313  11.829  1.2532 -1.7131  0.0706
11253SOL    HW242538  10.366  10.238  11.758  0.3750  0.2288 -0.6950
11254SOL     OW42539   0.540   5.117   7.784 -0.2784  0.0084  0.4026
11254SOL    HW142540   0.475   5.130   7.853 -1.5292 -3.4651  0.0739
11254SOL    HW242541   0.491   5.131   7.703 -0.1745 -0.8957  0.1769
11255SOL     OW42542   8.204   9.044  11.239  0.6028 -0.2208 -0.1192
11255SOL    HW142543   8.238   9.044  11.329  0.2647 -1.9667  0.0336
11255SOL    HW242544   8.172   9.133  11.226  0.1333 -0.0826  1.6956
11256SOL     OW42545  12.136   4.203   9.079 -0.2424  0.3424  0.1423
11256SOL    HW142546  12.080   4.233   9.007 -0.6500 -0.8093 -0.0571
11256SOL    HW242547  12.201   4.272   9.090 -2.2696  2.2313  1.0375
11257SOL     OW42548   1.295  10.912   3.256 -0.1036 -0.1792  0.3671
11257SOL    HW142549   1.275  10.864   3.176 -1.9585  0.1766  0.5718
11257SOL    HW242550   1.246  10.994   3.247  2.4038  1.4035  0.3400
11258SOL     OW42551   2.797   5.615   8.296 -0.3180  0.2150 -0.0428
11258SOL    HW142552   2.783   5.706   8.323 -0.8483  0.2032 -0.2644
11258SOL    HW242553   2.709   5.583   8.275 -0.2119 -0.5431  0.6350
11259SOL     OW42554   9.630   0.844   9.994  0.1727 -0.4915  0.3993
11259SOL    HW142555   9.544   0.863  10.031  0.0971  0.3441 -0.1920
11259SOL    HW242556   9.624   0.753   9.965 -0.4115 -0.5297  0.6290
11260SOL     OW42557   1.631   5.566   3.127 -0.1120 -0.4813 -0.3250
11260SOL    HW142558   1.547   5.585   3.086  0.8996 -0.1376 -2.3592
11260SOL    HW242559   1.631   5.619   3.207 -1.2806  0.5621 -0.9808
11261SOL     OW42560   0.933   9.810  10.661 -0.3597  0.6811 -0.6193
11261SOL    HW142561   0.868   9.765  10.714  0.6341 -1.1945 -0.9007
11261SOL    HW242562   0.978   9.868  10.723 -0.9956  0.5480 -0.0181
11262SOL     OW42563  11.457   8.484   4.378  0.3905  0.2660 -0.2970
11262SOL    HW142564  11.526   8.442   4.429  1.2606  0.1535 -1.5224
11262SOL    HW242565  11.465   8.577   4.398  1.7000  0.4027 -1.3118
11263SOL     OW42566   5.489   1.303   8.218  0.5313 -0.3501 -0.5662
11263SOL    HW142567   5.460   1.341   8.301  0.9473  2.7915 -1.7007
11263SOL    HW242568   5.410   1.263   8.181 -0.4953  1.1012 -0.0719
11264SOL     OW42569   8.518   4.492   0.788 -0.4202  0.1905 -0.6920
11264SOL    HW142570   8.606   4.505   0.826 -0.9079  1.0868  0.1807
11264SOL    HW242571   8.463   4.473   0.863 -0.6931 -2.1177 -1.4110
11265SOL     OW42572   5.441   1.104   2.084  0.7890  0.1956  0.0654
11265SOL    HW142573   5.406   1.068   2.165  0.1004  0.0949 -0.2702
11265SOL    HW242574   5.518   1.049   2.064  0.6278 -0.1356  0.3453
11266SOL     OW42575   1.636   0.784  10.283 -1.0201  0.3405  0.2459
11266SOL    HW142576   1.609   0.846  10.350 -0.9786  1.8325 -1.0530
11266SOL    HW242577   1.565   0.786  10.219 -0.0563  0.6524 -0.8405
11267SOL     OW42578   3.385   6.969   7.740 -0.5554  0.7508 -0.2790
11267SOL    HW142579   3.476   6.982   7.712 -0.2205 -0.2218  0.3125
11267SOL    HW242580   3.348   7.057   7.740  0.5168  1.2270 -0.1161
11268SOL     OW42581   7.734   2.648   3.641  0.4063  0.2592 -0.3828
11268SOL    HW142582   7.714   2.736   3.611  0.0725 -0.4149 -2.2876
11268SOL    HW242583   7.820   2.628   3.605  0.1675 -0.4302 -0.6062
11269SOL     OW42584   2.520   5.546   7.794 -0.2240 -0.1990 -0.3581
11269SOL    HW142585   2.517   5.637   7.765 -0.2987 -0.1062 -0.0604
11269SOL    HW242586   2.576   5.502   7.730 -1.0812 -0.1797 -1.1366
11270SOL     OW42587   7.733   6.417  10.592 -0.2765 -0.5116 -0.1838
11270SOL    HW142588   7.737   6.370  10.509 -0.8261 -1.5718  0.3673
11270SOL    HW242589   7.815   6.465  10.597  0.9577 -2.5220 -0.1506
11271SOL     OW42590   2.346   0.986   6.488 -0.1047  0.7539  0.0332
11271SOL    HW142591   2.417   0.991   6.424  1.2468 -0.7140  1.3318
11271SOL    HW242592   2.389   1.004   6.572 -1.2911 -0.0514  0.8373
11272SOL     OW42593  11.792   4.807  11.671  0.0590  1.1294  0.4490
11272SOL    HW142594  11.763   4.894  11.700  0.6819  1.0166  1.4563
11272SOL    HW242595  11.863   4.825  11.610  1.0913  1.3386  1.6621
11273SOL     OW42596   1.887   6.963   5.427 -0.2444 -0.1790 -0.1414
11273SOL    HW142597   1.965   7.018   5.420 -0.3094  0.2331  1.7526
11273SOL    HW242598   1.821   7.007   5.373  0.5459 -0.0021 -0.9762
11274SOL     OW42599   6.857   4.333   2.127 -0.3401  0.1891 -0.6838
11274SOL    HW142600   6.909   4.276   2.183 -0.7701  0.2918 -0.1667
11274SOL    HW242601   6.897   4.326   2.040  3.3197  3.5907  0.4536
11275SOL     OW42602  12.306  10.093   9.995  0.0432 -0.2187 -0.0069
11275SOL    HW142603  12.333  10.057   9.910  0.0783 -0.0640 -0.0609
11275SOL    HW242604  12.250  10.167   9.972  0.2985  0.0103  0.1040
11276SOL     OW42605   5.809  10.826   4.854  0.3123 -0.4485 -1.1560
11276SOL    HW142606   5.743  10.881   4.813  1.8098 -0.4163 -3.7276
11276SOL    HW242607   5.819  10.862   4.942 -0.8075  1.5450 -1.7894
11277SOL     OW42608   2.010  10.116   5.075  0.7433  0.1291  0.0625
11277SOL    HW142609   2.081  10.155   5.125  0.5822  0.4676  0.0350
11277SOL    HW242610   2.005  10.026   5.106  0.4830  0.3979  0.8382
11278SOL     OW42611   7.332   1.968   4.188  0.0576  0.2539  0.3559
11278SOL    HW142612   7.264   2.003   4.131  1.0470 -0.3838 -1.2904
11278SOL    HW242613   7.284   1.927   4.261 -1.1864  2.1440  0.6525
11279SOL     OW42614   6.617   7.317   7.683 -0.3091 -0.2641 -0.2986
11279SOL    HW142615   6.524   7.299   7.674 -0.1783 -0.9012 -0.3754
11279SOL    HW242616   6.621   7.409   7.711 -0.9798 -0.4506  0.4370
11280SOL     OW42617  10.380  11.778   2.572  1.0996 -0.0413 -0.3710
11280SOL    HW142618  10.381  11.703   2.630  0.0123 -0.5847 -1.0266
11280SOL    HW242619  10.327  11.844   2.617  0.1708 -0.4996 -0.7604
11281SOL     OW42620   0.672  10.442   3.939 -0.0284 -0.4399 -0.6340
11281SOL    HW142621   0.750  10.457   3.887 -1.2645  0.7757 -2.2528
11281SOL    HW242622   0.638  10.358   3.908  0.1503 -0.5372 -0.5640
11282SOL     OW42623   5.425   3.272   4.009 -0.1610 -0.4184  0.0171
11282SOL    HW142624   5.482   3.263   4.085  0.3906 -1.6053 -0.5128
11282SOL    HW242625   5.482   3.255   3.934 -0.8944 -0.1666 -0.6119
11283SOL     OW42626  12.092   9.184   0.497  0.1069 -0.2143 -0.3702
11283SOL    HW142627  12.103   9.274   0.465 -0.7049  0.0236 -0.0176
11283SOL    HW242628  11.997   9.174   0.507  0.2266 -0.9409  0.0870
11284SOL     OW42629   0.220   2.974   4.865  0.2459 -0.3851  0.0097
11284SOL    HW142630   0.225   3.015   4.778  3.6945 -0.1955  0.1592
11284SOL    HW242631   0.218   3.048   4.925 -1.9812 -0.5198  0.1816
11285SOL     OW42632   5.058   5.013   1.155 -0.0118  0.2677  0.0010
11285SOL    HW142633   5.113   5.065   1.213 -0.8645  0.2939  0.8053
11285SOL    HW242634   4.969   5.040   1.175 -0.3716 -0.3213 -0.7425
11286SOL     OW42635   3.730   7.557   1.358 -0.2135  0.0637 -0.0235
11286SOL    HW142636   3.736   7.561   1.262  0.6955  0.5971  0.0438
11286SOL    HW242637   3.755   7.467   1.379 -1.2109 -0.3047 -0.3208
11287SOL     OW42638   7.604   6.248   9.774  0.7512 -0.3634  0.6437
11287SOL    HW142639   7.529   6.265   9.718  0.8686 -1.9015 -0.0333
11287SOL    HW242640   7.617   6.330   9.822 -1.9110 -0.3161  1.4635
11288SOL     OW42641   5.586   7.037   6.085 -0.2666  0.3451  0.1491
11288SOL    HW142642   5.587   7.120   6.039 -2.2585  0.2544 -0.1423
11288SOL    HW242643   5.493   7.013   6.090 -0.1008 -0.1465  3.2777
11289SOL     OW42644   5.532  10.802  12.489 -0.2520  0.0135 -0.2697
11289SOL    HW142645   5.563  10.880  12.443 -1.3457 -1.1073 -3.1193
11289SOL    HW242646   5.443  10.789  12.458 -0.8969 -1.1569  1.8553
11290SOL     OW42647   5.346  10.556   1.095  0.0287  0.1192 -0.5007
11290SOL    HW142648   5.391  10.535   1.177 -1.6751  0.1050  0.5036
11290SOL    HW242649   5.339  10.472   1.049  0.4585  0.0080 -0.3594
11291SOL     OW42650  11.570   4.212   6.954  0.6689  0.2204 -0.6057
11291SOL    HW142651  11.629   4.136   6.955 -1.1507 -1.2707  0.2168
11291SOL    HW242652  11.615   4.278   7.007  1.8207 -0.6563 -0.4386
11292SOL     OW42653   7.002   0.274   8.644 -0.4155  0.3935 -0.7841
11292SOL    HW142654   7.063   0.201   8.646 -0.3442  0.4064 -1.7437
11292SOL    HW242655   6.992   0.301   8.735  1.5876  0.8536 -0.6550
11293SOL     OW42656   1.841   9.817  11.677 -0.4517 -0.2093  0.1147
11293SOL    HW142657   1.921   9.782  11.639 -0.0658  1.2989 -0.5272
11293SOL    HW242658   1.771   9.779  11.625 -0.1262 -0.9111  0.1763
11294SOL     OW42659   7.109   8.831  12.049  0.3174 -0.0360  0.0156
11294SOL    HW142660   7.158   8.913  12.055  1.3288 -0.5557 -0.8716
11294SOL    HW242661   7.168   8.770  12.006 -0.1909 -1.4178  1.1558
11295SOL     OW42662   3.061   5.517  10.384 -0.3836 -0.3552  0.2426
11295SOL    HW142663   3.001   5.443  10.387  1.1754 -1.6264  1.7396
11295SOL    HW242664   3.053   5.558  10.470  1.5483 -1.1554  0.8524
11296SOL     OW42665   1.037   3.896   8.231  0.9210 -0.7551  0.3157
11296SOL    HW142666   1.035   3.884   8.326  0.5407  1.0023  0.5541
11296SOL    HW242667   0.954   3.859   8.200  1.0887 -1.4183  0.6315
11297SOL     OW42668   4.871   2.945   0.474 -0.4401 -0.0748 -0.5855
11297SOL    HW142669   4.795   2.886   0.473 -1.3717  1.0581 -2.3243
11297SOL    HW242670   4.933   2.906   0.413  0.3064 -0.8705  0.6497
11298SOL     OW42671   8.641   3.551   8.988  0.2253  0.1663  0.5484
11298SOL    HW142672   8.656   3.608   9.063 -0.1912  2.2706 -0.8914
11298SOL    HW242673   8.653   3.607   8.912  2.4826 -2.2773 -1.1092
11299SOL     OW42674   4.029   2.133  10.802  0.3760 -0.6394  0.0577
11299SOL    HW142675   4.001   2.196  10.735  0.0387  0.1903  0.9591
11299SOL    HW242676   3.952   2.079  10.817  0.3860 -0.6882 -0.0622
11300SOL     OW42677   1.860   3.714   4.129 -0.0426 -0.3145 -0.0131
11300SOL    HW142678   1.767   3.716   4.154  0.1156  3.1722  0.8197
11300SOL    HW242679   1.907   3.701   4.211  0.2407  0.3862 -0.0566
11301SOL     OW42680  10.894   3.911   5.145  0.3437  0.3171 -0.5445
11301SOL    HW142681  10.863   3.832   5.101  0.8422  0.3354 -0.9440
11301SOL    HW242682  10.983   3.890   5.173  0.2341  0.5055 -0.0445
11302SOL     OW42683   0.473   1.391   2.882 -0.3281 -0.1787 -0.4183
11302SOL    HW142684   0.513   1.347   2.956  0.5262  0.4592 -0.4757
11302SOL    HW242685   0.397   1.338   2.859 -1.3691  0.2884  1.7082
11303SOL     OW42686   6.068   1.504   7.583 -0.2391  0.4249 -0.2188
11303SOL    HW142687   5.982   1.519   7.622 -0.8181  1.5660 -1.8037
11303SOL    HW242688   6.099   1.422   7.621 -1.2018  0.9296  1.7713
11304SOL     OW42689   6.525   2.372   1.865  0.1892  0.1574  0.2343
11304SOL    HW142690   6.540   2.379   1.960  1.6895 -0.5411  0.0684
11304SOL    HW242691   6.557   2.455   1.829  0.5761  0.0138  0.2405
11305SOL     OW42692   6.270   9.920   8.778 -0.0954 -0.0186  0.0800
11305SOL    HW142693   6.267   9.941   8.685  3.2606 -2.5952 -0.8176
11305SOL    HW242694   6.330   9.984   8.815  0.2747 -0.2887 -0.0373
11306SOL     OW42695   4.435   5.540  11.658  0.1615 -0.6195  0.0056
11306SOL    HW142696   4.530   5.533  11.675 -0.0197  0.4540  1.6566
11306SOL    HW242697   4.396   5.481  11.723 -0.4289  1.5384  1.7256
11307SOL     OW42698  10.899   1.800   8.893  0.0582  0.0972 -0.4533
11307SOL    HW142699  10.850   1.756   8.824 -0.6652  0.8201 -0.4232
11307SOL    HW242700  10.879   1.750   8.972 -0.3334  0.1484 -0.5133
11308SOL     OW42701   8.499  11.777   0.824  0.3732  0.7775 -0.0687
11308SOL    HW142702   8.523  11.816   0.740 -0.5505 -0.7615 -1.1185
11308SOL    HW242703   8.405  11.794   0.832  0.1018 -0.5162 -0.2094
11309SOL     OW42704  12.127   7.864  12.034 -0.3433  0.2926  1.1169
11309SOL    HW142705  12.182   7.899  12.104  0.0339 -0.2379  1.0912
11309SOL    HW242706  12.137   7.928  11.963  0.3228  0.1563  1.0776
11310SOL     OW42707   6.216  11.402  11.275 -0.3040 -0.0874  0.2213
11310SOL    HW142708   6.218  11.497  11.287  0.0108 -0.2453  1.5478
11310SOL    HW242709   6.148  11.388  11.209 -1.2154  0.9801  0.8915
11311SOL     OW42710  12.529   5.499   2.518 -0.2365 -0.0913 -0.0169
11311SOL    HW142711  12.471   5.565   2.554 -0.3622  0.2296 -0.7942
11311SOL    HW242712  12.599   5.549   2.476  0.6660 -0.4710  0.9900
11312SOL     OW42713  12.273   3.637   6.072 -0.7165  0.2807 -0.0194
11312SOL    HW142714  12.180   3.659   6.082 -0.1895  3.0722 -0.5579
11312SOL    HW242715  12.305   3.698   6.006  1.8337  0.2979  1.1298
11313SOL     OW42716  10.480   0.294  11.974 -0.4313 -0.2798  0.4246
11313SOL    HW142717  10.462   0.339  12.057 -1.0353  0.0595  0.1196
11313SOL    HW242718  10.412   0.326  11.915  0.3691 -0.0522 -0.3846
11314SOL     OW42719   9.054   4.327  10.478  0.8886  0.1204  0.3417
11314SOL    HW142720   9.082   4.375  10.400  1.4599 -0.4015  0.2177
11314SOL    HW242721   9.031   4.395  10.541  0.6669  0.5473 -0.1936
11315SOL     OW42722   1.603   1.507   4.945 -0.2534  0.0242 -0.3659
11315SOL    HW142723   1.633   1.546   4.863 -0.6290 -1.2502 -1.1374
11315SOL    HW242724   1.684   1.483   4.991  0.0730  3.1629  0.9369
11316SOL     OW42725   9.296   8.155   2.289  0.4048 -0.3562 -0.0794
11316SOL    HW142726   9.316   8.078   2.235 -0.4618 -0.1810 -0.6585
11316SOL    HW242727   9.238   8.122   2.357  0.3792 -0.2944 -0.0716
11317SOL     OW42728  10.188   2.980   1.955 -0.1442  0.5624  0.0114
11317SOL    HW142729  10.093   2.976   1.960 -0.0777  0.0567  1.0562
11317SOL    HW242730  10.211   2.912   1.891 -0.6666  3.3845 -3.5648
11318SOL     OW42731   7.361  12.354   5.541 -0.0650  0.2272  0.7946
11318SOL    HW142732   7.367  12.446   5.513 -0.2156  0.0491  0.1472
11318SOL    HW242733   7.413  12.350   5.621 -0.2341  0.9224  0.9482
11319SOL     OW42734   4.515   8.232  10.535  0.3884 -0.4380 -0.2395
11319SOL    HW142735   4.602   8.202  10.562  0.8203  0.3427 -0.7056
11319SOL    HW242736   4.521   8.328  10.540 -0.7232 -0.3955  0.5656
11320SOL     OW42737  11.291   5.704   3.017  0.2398  0.0189 -0.0763
11320SOL    HW142738  11.238   5.653   2.955  0.4249  0.8279 -0.9306
11320SOL    HW242739  11.375   5.716   2.972 -0.4985  2.8788 -0.8815
11321SOL     OW42740   2.839   9.688   6.010  0.0004 -0.6251  0.2339
11321SOL    HW142741   2.761   9.744   6.001  1.2268  1.2347  0.6573
11321SOL    HW242742   2.824   9.638   6.090  0.3043  1.5878  1.7501
11322SOL     OW42743  10.067   9.356  12.458  0.1982 -0.2877  0.0985
11322SOL    HW142744  10.010   9.282  12.438  2.5486 -1.8909 -1.1772
11322SOL    HW242745  10.092   9.391  12.372  2.4209 -0.7497  0.4927
11323SOL     OW42746   4.533   8.053   9.517 -0.1008 -0.0797 -0.4034
11323SOL    HW142747   4.461   8.109   9.547  0.2107 -0.3255  0.8633
11323SOL    HW242748   4.491   7.969   9.498  0.0880 -0.9467  2.5068
11324SOL     OW42749   3.209  10.891   8.919 -0.3180  0.4151 -0.0811
11324SOL    HW142750   3.233  10.855   9.005  1.7937  1.2464 -0.2574
11324SOL    HW242751   3.197  10.984   8.935 -0.5503  0.4742 -0.5892
11325SOL     OW42752   1.005   3.169   9.493 -0.3065 -0.0264 -0.7037
11325SOL    HW142753   1.071   3.132   9.551 -0.8199  0.5330  0.2606
11325SOL    HW242754   1.052   3.185   9.411  0.8879  0.8061  0.1085
11326SOL     OW42755   7.959  10.153   2.864 -0.4799 -0.6592 -0.0461
11326SOL    HW142756   7.880  10.191   2.903  1.0737  1.7775  0.9970
11326SOL    HW242757   8.015  10.133   2.939  0.8914  0.1059 -0.8378
11327SOL     OW42758   5.634   2.207   6.540 -0.5573  1.4476  0.2228
11327SOL    HW142759   5.580   2.155   6.599  0.0729 -0.4773 -0.8265
11327SOL    HW242760   5.720   2.210   6.582 -0.3075  0.7104 -0.2277
11328SOL     OW42761   8.224   0.544   5.392  0.3522 -0.3345  0.9453
11328SOL    HW142762   8.291   0.524   5.457 -1.6869 -1.4899  2.8485
11328SOL    HW242763   8.158   0.476   5.405 -0.9093  0.3896 -1.2478
11329SOL     OW42764   0.980   3.530  10.593 -0.1503  0.2649 -0.4589
11329SOL    HW142765   0.943   3.444  10.573  1.4246 -0.4038 -0.5745
11329SOL    HW242766   0.921   3.592  10.549 -0.9645 -0.7649 -0.8664
11330SOL     OW42767   7.398   1.059   0.764 -0.0833 -0.9327  0.1084
11330SOL    HW142768   7.405   0.980   0.711  0.5752 -1.0367  0.3458
11330SOL    HW242769   7.329   1.110   0.721 -1.4579 -2.2047  0.7003
11331SOL     OW42770   8.623   6.673   0.105 -0.1860 -0.2031 -0.5418
11331SOL    HW142771   8.564   6.628   0.045 -0.9342  0.3534 -0.2397
11331SOL    HW242772   8.625   6.763   0.073 -0.7658  0.1511  0.3735
11332SOL     OW42773   1.872  10.205   0.689 -0.0887  0.3505  0.2893
11332SOL    HW142774   1.844  10.246   0.607  0.2951  0.7099  0.3383
11332SOL    HW242775   1.915  10.275   0.738 -1.5474  0.5100  1.4074
11333SOL     OW42776   6.088   1.050   4.966  0.0108  1.0697  0.0818
11333SOL    HW142777   6.021   1.066   5.033  0.2878  2.4117  0.0570
11333SOL    HW242778   6.150   0.990   5.007 -0.4333  0.9726  0.6173
11334SOL     OW42779   1.659   2.210   4.985 -0.8195  0.0741 -0.1509
11334SOL    HW142780   1.685   2.128   5.027 -0.5302  0.7231  0.9665
11334SOL    HW242781   1.570   2.194   4.955 -0.8780 -0.5459  0.3271
11335SOL     OW42782   2.684   3.801   2.776  0.0270 -0.6583 -0.4040
11335SOL    HW142783   2.667   3.826   2.867  1.9620  0.9653 -0.4251
11335SOL    HW242784   2.773   3.767   2.778 -0.3496 -1.7823 -1.5265
11336SOL     OW42785   0.111   5.762   1.407  0.0924  0.1360 -0.3276
11336SOL    HW142786   0.054   5.702   1.359  0.5199 -0.3144 -0.2836
11336SOL    HW242787   0.176   5.790   1.342  0.0659  0.3220 -0.2742
11337SOL     OW42788   3.838   9.386  10.261 -0.0709  0.7579 -0.7339
11337SOL    HW142789   3.870   9.438  10.187 -0.2678 -1.1973 -2.2811
11337SOL    HW242790   3.760   9.342  10.228 -0.5855  0.3590  0.8898
11338SOL     OW42791   6.246  11.636   6.541  0.1289 -0.8161  0.2246
11338SOL    HW142792   6.184  11.669   6.476  0.8901  0.9485  0.3275
11338SOL    HW242793   6.200  11.640   6.624 -0.6596 -2.5488 -0.0946
11339SOL     OW42794   2.728   7.073  12.365  0.1960  0.3459  0.2899
11339SOL    HW142795   2.644   7.093  12.406 -0.1632 -1.8869  0.8051
11339SOL    HW242796   2.712   7.082  12.271  0.0525  2.1217  0.4511
11340SOL     OW42797   9.782   5.812   4.557  0.4185  0.5088 -0.1106
11340SOL    HW142798   9.728   5.858   4.493  0.3453 -1.0242 -1.2189
11340SOL    HW242799   9.779   5.867   4.636 -1.9198  0.9999 -0.4595
11341SOL     OW42800  10.431   6.408   1.634  0.3251 -0.1868  0.1845
11341SOL    HW142801  10.361   6.471   1.617  0.0628 -0.9339 -1.7351
11341SOL    HW242802  10.399   6.355   1.707 -0.5303  0.3137  0.1854
11342SOL     OW42803   5.674  11.258   2.871  0.0974 -0.0864  0.3404
11342SOL    HW142804   5.643  11.313   2.943  1.9831  1.6296 -0.0681
11342SOL    HW242805   5.755  11.219   2.904 -0.3889 -1.4421  0.0407
11343SOL     OW42806   5.491   6.244   6.088 -0.1727  0.0425 -0.4526
11343SOL    HW142807   5.519   6.160   6.123 -0.1503  0.6949  1.2129
11343SOL    HW242808   5.573   6.292   6.073 -0.1436 -0.4921 -2.1809
11344SOL     OW42809  11.020   2.548  11.726 -0.9309  0.1865  0.0072
11344SOL    HW142810  11.079   2.479  11.756 -1.7395  0.2618  1.9407
11344SOL    HW242811  11.076   2.610  11.679  0.1063 -0.8785 -0.1869
11345SOL     OW42812   1.342   9.488  10.554  0.0233  0.0379 -0.0960
11345SOL    HW142813   1.263   9.513  10.505 -0.6602 -1.7526 -0.0111
11345SOL    HW242814   1.308   9.451  10.636  1.0478  0.7516  0.6738
11346SOL     OW42815   4.450   3.642   7.651 -0.4446  0.0433 -0.9713
11346SOL    HW142816   4.535   3.608   7.623 -0.1584  1.3525 -1.7444
11346SOL    HW242817   4.436   3.603   7.737  0.7410 -0.5180 -1.0142
11347SOL     OW42818  11.659  10.644   4.884 -0.3253  0.0918 -1.0472
11347SOL    HW142819  11.750  10.629   4.909 -0.7543 -2.4626 -0.7137
11347SOL    HW242820  11.660  10.729   4.839  2.2950 -0.1173 -1.5549
11348SOL     OW42821  12.268   7.447   3.537  0.0784  0.4940 -0.0776
11348SOL    HW142822  12.220   7.399   3.469  0.5562  0.7118 -0.5821
11348SOL    HW242823  12.356   7.410   3.534 -0.1782 -0.2822  1.2156
11349SOL     OW42824   7.757   9.976   4.834 -0.1059 -0.1810 -0.1273
11349SOL    HW142825   7.678   9.935   4.799  1.7413 -2.9730 -1.4326
11349SOL    HW242826   7.788  10.033   4.764 -1.2884  1.5268  0.6813
11350SOL     OW42827   9.251  12.057   5.853 -0.0011 -0.3007  1.0104
11350SOL    HW142828   9.169  12.104   5.866 -0.6109 -0.9125 -0.4181
11350SOL    HW242829   9.225  11.972   5.818  1.2875 -0.0480 -0.6976
11351SOL     OW42830   7.566  10.426  12.020  0.3872 -0.9557  0.2447
11351SOL    HW142831   7.583  10.469  12.104  0.0664 -3.2055  1.5207
11351SOL    HW242832   7.652  10.393  11.993  0.4963 -0.2052 -0.3471
11352SOL     OW42833  11.191   2.379   1.493  0.0243  0.1267 -0.0829
11352SOL    HW142834  11.147   2.296   1.477 -2.7458  1.2061  1.1490
11352SOL    HW242835  11.225   2.406   1.407 -0.4648 -1.4855 -0.8107
11353SOL     OW42836   4.883   6.974   1.254 -0.1955 -0.0119 -0.6474
11353SOL    HW142837   4.937   7.036   1.204 -0.8009  0.1345 -1.1361
11353SOL    HW242838   4.884   6.895   1.200  0.5536 -0.4271 -0.0380
11354SOL     OW42839   2.834   0.907   5.615  0.3597 -0.7396 -0.0270
11354SOL    HW142840   2.878   0.827   5.642  0.5057 -0.7126 -0.1784
11354SOL    HW242841   2.873   0.976   5.670 -1.0544 -1.0174  1.4019
11355SOL     OW42842   6.361   5.930   0.744  0.4681 -0.1913  0.0187
11355SOL    HW142843   6.438   5.936   0.688  1.0426 -1.4816  0.6167
11355SOL    HW242844   6.355   5.837   0.766 -0.7438  0.0281  0.6986
11356SOL     OW42845   1.882   7.404  11.654  0.2897  0.3001  0.1736
11356SOL    HW142846   1.932   7.468  11.603  0.1390 -0.2052 -0.6310
11356SOL    HW242847   1.883   7.325  11.600  1.2709 -0.6917  1.5731
11357SOL     OW42848   2.373   9.701   2.073  0.4734 -0.5382 -0.1382
11357SOL    HW142849   2.342   9.643   2.142 -0.1319 -1.3262 -1.0447
11357SOL    HW242850   2.324   9.782   2.086 -2.1867 -1.7982 -1.6244
11358SOL     OW42851   3.444   4.538   7.373 -0.6572  0.3229  0.4497
11358SOL    HW142852   3.365   4.519   7.424 -0.0643  0.7698  1.5629
11358SOL    HW242853   3.415   4.600   7.306 -1.3613  0.0545  0.5018
11359SOL     OW42854   1.820   5.206   3.879 -0.1475  0.0815 -0.3103
11359SOL    HW142855   1.902   5.250   3.859 -0.1655  0.0325 -0.4937
11359SOL    HW242856   1.839   5.113   3.868 -0.3860  0.1011 -0.9509
11360SOL     OW42857   2.688  10.163   8.860  0.2710 -0.1709  0.2323
11360SOL    HW142858   2.604  10.119   8.850  0.4644 -0.4201 -0.3572
11360SOL    HW242859   2.738  10.137   8.783  1.2633 -0.8659  1.0899
11361SOL     OW42860   2.682   8.304   1.753  0.1241  0.6968 -0.3985
11361SOL    HW142861   2.751   8.364   1.781 -0.8170  1.5647  0.1235
11361SOL    HW242862   2.630   8.354   1.690 -0.6217  0.4120 -0.0234
11362SOL     OW42863  10.245  12.033   9.979 -0.5565  0.1785  0.3513
11362SOL    HW142864  10.194  11.952   9.978 -3.3380  1.7916  0.6088
11362SOL    HW242865  10.239  12.066   9.889  1.0552 -0.1164  0.0955
11363SOL     OW42866   7.520   7.738   2.974  0.4636 -0.2128 -0.2084
11363SOL    HW142867   7.564   7.706   2.896  0.5024 -0.4100 -0.1054
11363SOL    HW242868   7.464   7.809   2.943  0.9653  0.1374 -0.3137
11364SOL     OW42869   1.692  10.974   1.681  0.4060 -0.2102  0.0551
11364SOL    HW142870   1.673  10.913   1.609  0.7893  0.8359 -0.9618
11364SOL    HW242871   1.786  10.968   1.694  0.2470 -0.9226  0.9793
11365SOL     OW42872  11.021   7.450  11.600  0.0314 -0.0969 -0.0424
11365SOL    HW142873  10.928   7.466  11.615  0.2818 -0.3611  2.1040
11365SOL    HW242874  11.024   7.374  11.543 -1.0541  0.1382 -0.4409
11366SOL     OW42875   7.595  11.416   1.267 -0.0727 -0.0865  0.4457
11366SOL    HW142876   7.534  11.475   1.310 -1.4545  0.4008 -2.0265
11366SOL    HW242877   7.556  11.329   1.277 -0.8672  0.1426 -0.5707
11367SOL     OW42878   2.689  12.600   9.099  1.0298  0.2625 -0.0069
11367SOL    HW142879   2.699  12.628   9.008  0.6648 -1.3935 -0.6010
11367SOL    HW242880   2.663  12.508   9.093 -2.9849  1.0764  1.6560
11368SOL     OW42881   1.302  11.498  10.611 -0.6356 -0.0626  0.4432
11368SOL    HW142882   1.213  11.494  10.575 -0.4144  0.4556 -0.1696
11368SOL    HW242883   1.319  11.408  10.641 -0.5080 -0.7469 -1.5304
11369SOL     OW42884   3.162   0.672   3.373 -0.4649 -0.6307 -0.0396
11369SOL    HW142885   3.077   0.712   3.389 -0.0730  0.0183  0.4611
11369SOL    HW242886   3.222   0.746   3.365 -0.1701 -1.0162 -1.8217
11370SOL     OW42887   2.578   6.845  10.092 -0.1308  0.0344  0.0347
11370SOL    HW142888   2.552   6.925  10.047  0.6210 -0.2424 -0.9462
11370SOL    HW242889   2.638   6.802  10.031 -0.3195 -1.1498  0.6488
11371SOL     OW42890  12.096  10.634  11.222 -0.5035  0.8760  0.3194
11371SOL    HW142891  12.180  10.649  11.264 -1.3533  1.4924  1.8848
11371SOL    HW242892  12.101  10.544  11.191  1.2484  1.3556 -0.9385
11372SOL     OW42893  11.063   3.554  12.351 -0.2245  0.1590 -0.1933
11372SOL    HW142894  11.018   3.471  12.337 -0.9673  0.2911  1.1418
11372SOL    HW242895  10.992   3.619  12.355 -0.1459  0.2334  2.9963
11373SOL     OW42896   4.763  10.792   2.610 -0.1999 -0.2612  0.3488
11373SOL    HW142897   4.683  10.759   2.568  0.4087  2.0930 -3.1189
11373SOL    HW242898   4.834  10.750   2.561  0.6307  0.4738  0.9084
11374SOL     OW42899   5.948  12.488   2.001 -0.3500  0.4335 -0.4188
11374SOL    HW142900   5.976  12.438   2.077 -0.7843  1.9487  0.7870
11374SOL    HW242901   5.876  12.437   1.963 -0.0916 -0.3571  0.1389
11375SOL     OW42902   3.889   3.393   2.188  0.4568 -0.0090  0.2507
11375SOL    HW142903   3.937   3.385   2.271  2.7837  4.3200 -0.3578
11375SOL    HW242904   3.801   3.419   2.214  0.1523 -1.9081  1.3119
11376SOL     OW42905   6.495   4.735   3.635 -0.5897  0.1989 -0.0771
11376SOL    HW142906   6.522   4.802   3.698 -0.1152  0.8083 -0.9072
11376SOL    HW242907   6.454   4.667   3.689  1.3296 -0.1169  1.1167
11377SOL     OW42908   6.540  10.441  10.860  0.4031 -0.4598 -0.6272
11377SOL    HW142909   6.448  10.470  10.856  0.0175 -1.7963 -2.8287
11377SOL    HW242910   6.576  10.488  10.935 -1.0571  3.0296 -1.8885
11378SOL     OW42911  12.552  12.120   0.929 -0.3712 -0.4282  0.0365
11378SOL    HW142912  12.509  12.107   0.845 -0.6221  1.1731 -0.1158
11378SOL    HW242913  12.493  12.176   0.978  0.3473 -0.3220  0.8086
11379SOL     OW42914  10.117  12.050   0.950  0.5683  0.0613  0.0892
11379SOL    HW142915  10.175  12.065   0.875  0.9581 -0.6603  0.2320
11379SOL    HW242916  10.175  12.015   1.017 -0.0349 -0.6448  0.2469
11380SOL     OW42917  10.403   5.668   6.115  0.2899  0.2182  0.3838
11380SOL    HW142918  10.429   5.594   6.060  0.0707  1.5321 -1.5583
11380SOL    HW242919  10.397   5.630   6.203  2.5310 -1.5215 -0.1132
11381SOL     OW42920   9.428  10.398   6.263 -0.6266  0.0403 -0.2106
11381SOL    HW142921   9.401  10.375   6.174 -1.2045  0.3379 -0.1202
11381SOL    HW242922   9.523  10.386   6.263 -0.5761  0.3184 -0.9538
11382SOL     OW42923   9.573   7.476   3.203 -0.9276  0.2574  0.3272
11382SOL    HW142924   9.487   7.434   3.199 -1.1739  0.2523  3.2581
11382SOL    HW242925   9.554   7.570   3.201 -1.0999  0.2646  1.3346
11383SOL     OW42926  12.180   4.080   1.816  0.2952 -0.1038 -0.0092
11383SOL    HW142927  12.216   4.036   1.739  0.1385  1.2935 -0.9180
11383SOL    HW242928  12.255   4.125   1.855  0.2427 -0.2547  0.2681
11384SOL     OW42929   3.065   0.292   4.438 -0.8802  0.0659 -0.2680
11384SOL    HW142930   3.153   0.272   4.407 -1.5718  0.4169 -2.6412
11384SOL    HW242931   3.025   0.206   4.452 -0.4240 -0.1021  0.0322
11385SOL     OW42932   7.790   9.901  11.284 -0.3321  0.2923 -0.2742
11385SOL    HW142933   7.867   9.887  11.228 -0.7620  0.7353 -0.9897
11385SOL    HW242934   7.735   9.825  11.269 -1.2076  1.1817 -1.7381
11386SOL     OW42935   3.477   4.185   3.961 -0.4670 -0.1148 -0.4959
11386SOL    HW142936   3.480   4.280   3.952  0.3608 -0.0658  0.1490
11386SOL    HW242937   3.384   4.163   3.953 -0.6826  0.7604 -0.4943
11387SOL     OW42938   8.013   2.404   1.430  0.1540 -0.0041  1.0424
11387SOL    HW142939   8.071   2.333   1.399 -0.1148  0.0801  0.3226
11387SOL    HW242940   8.047   2.482   1.387 -1.1994 -0.1334 -0.3698
11388SOL     OW42941   0.233   3.445  12.312 -0.1257  0.1726  0.6957
11388SOL    HW142942   0.176   3.470  12.385 -0.2689 -0.4315  0.8033
11388SOL    HW242943   0.249   3.526  12.265  0.1163  0.6024  1.5032
11389SOL     OW42944   7.320   9.164  10.063  0.6616 -0.2278 -0.8560
11389SOL    HW142945   7.332   9.090  10.004 -0.1082 -2.2258  1.3214
11389SOL    HW242946   7.389   9.152  10.129  0.0778  0.5534 -0.0848
11390SOL     OW42947   0.044  11.807   6.314  0.5443  0.7072  0.1257
11390SOL    HW142948   0.096  11.845   6.384  2.0325 -0.0259 -0.5219
11390SOL    HW242949   0.084  11.841   6.234 -0.1426  0.3300 -0.3897
11391SOL     OW42950  10.084   5.489   5.034  0.0570 -0.4552 -0.4771
11391SOL    HW142951  10.125   5.555   4.977  0.0561  0.6651  0.7534
11391SOL    HW242952  10.124   5.505   5.120 -2.7075  0.5040  0.7265
11392SOL     OW42953   7.288   9.701   7.626  0.2372 -0.1978 -0.1766
11392SOL    HW142954   7.235   9.628   7.594 -0.4843  0.5297 -0.6836
11392SOL    HW242955   7.330   9.735   7.547 -0.8006  1.0172 -0.2256
11393SOL     OW42956   2.947   1.455   1.791  0.4065 -0.4820  0.0276
11393SOL    HW142957   2.868   1.467   1.843  1.0899  0.6982  0.8116
11393SOL    HW242958   2.926   1.493   1.706 -0.0234 -0.6159  0.0727
11394SOL     OW42959   5.436   0.498   4.900 -0.7194 -0.2928 -0.0470
11394SOL    HW142960   5.405   0.408   4.908  0.6724 -0.7640  0.1822
11394SOL    HW242961   5.472   0.504   4.811  1.5574 -0.7605  0.7822
11395SOL     OW42962   0.365  11.795   9.560  0.5419  0.0431 -0.0327
11395SOL    HW142963   0.322  11.829   9.638 -0.9134 -0.0037 -0.7705
11395SOL    HW242964   0.386  11.704   9.581 -2.5127 -0.9319 -0.6073
11396SOL     OW42965  12.290   7.051  11.876 -0.3508 -0.2312  0.1302
11396SOL    HW142966  12.366   7.067  11.931 -1.5669  0.1739  1.7763
11396SOL    HW242967  12.323   7.055  11.786  1.9971 -2.3175  0.7977
11397SOL     OW42968   0.435   1.002   3.517  0.5732  0.2806  0.2295
11397SOL    HW142969   0.409   0.932   3.577  1.6103 -0.6908 -0.4195
11397SOL    HW242970   0.467   1.072   3.573 -0.2154  0.1355  0.8781
11398SOL     OW42971   2.899  12.092   5.490 -0.3138 -0.3027  0.0798
11398SOL    HW142972   2.953  12.033   5.438 -0.4142  0.3193 -0.7405
11398SOL    HW242973   2.891  12.048   5.575 -1.2185 -1.9750 -0.8123
11399SOL     OW42974   0.883   9.088  11.285  0.9030  0.0270  0.0185
11399SOL    HW142975   0.969   9.069  11.247  0.9442  2.6275 -1.3726
11399SOL    HW242976   0.893   9.175  11.323 -0.9700  0.1124  0.3798
11400SOL     OW42977   2.539  11.213   0.609 -0.4236  0.0452  0.4943
11400SOL    HW142978   2.591  11.275   0.661 -1.1193  1.3438 -0.2988
11400SOL    HW242979   2.601  11.179   0.544 -0.1629  0.3420  0.5816
11401SOL     OW42980   7.776   9.904   3.898 -0.1215 -0.0700  0.5893
11401SOL    HW142981   7.694   9.854   3.901  1.2699 -2.5113  0.9430
11401SOL    HW242982   7.826   9.871   3.973  2.4116 -1.0580 -1.3916
11402SOL     OW42983   9.975  11.610   0.722  0.6423 -0.4943 -0.2270
11402SOL    HW142984   9.908  11.667   0.683  0.3784 -0.7696 -0.1815
11402SOL    HW242985   9.992  11.544   0.655  0.6971 -0.5634 -0.1448
11403SOL     OW42986   1.602   5.897   3.676  0.1790 -0.4001  0.3220
11403SOL    HW142987   1.519   5.869   3.714 -0.1424  1.1788  0.8651
11403SOL    HW242988   1.635   5.963   3.736  1.3801 -0.3389 -0.3691
11404SOL     OW42989   4.893   5.526   6.409  0.1788 -0.1829  0.1569
11404SOL    HW142990   4.887   5.431   6.418  0.2226 -0.2068 -0.0677
11404SOL    HW242991   4.830   5.560   6.473 -1.8360 -0.4169 -1.5951
11405SOL     OW42992   5.567   6.571   7.254  0.7783  0.4673  0.1923
11405SOL    HW142993   5.590   6.497   7.198 -1.3072  0.1117 -0.2732
11405SOL    HW242994   5.611   6.646   7.215 -1.5628  0.4696 -2.7597
11406SOL     OW42995   9.780   2.117   4.745 -1.1171  0.1188 -0.0643
11406SOL    HW142996   9.779   2.032   4.789 -1.7500  0.1988  0.0765
11406SOL    HW242997   9.840   2.105   4.671  1.2627  0.4441  1.7114
11407SOL     OW42998   5.155   2.627   6.608  0.0531  0.3899  0.0350
11407SOL    HW142999   5.152   2.665   6.696 -0.3239  0.2958  0.0653
11407SOL    HW243000   5.074   2.657   6.567 -1.7217 -2.6518  0.9898
11408SOL     OW43001   0.182   8.128   0.994  0.2758 -0.0618 -0.0007
11408SOL    HW143002   0.193   8.095   0.904 -2.5931 -0.5284 -0.2757
11408SOL    HW243003   0.181   8.223   0.984 -0.4308 -0.1194 -0.5290
11409SOL     OW43004   8.846   7.854   3.576 -0.1721  0.7680  0.0857
11409SOL    HW143005   8.802   7.912   3.638 -0.2495 -0.1097  0.8630
11409SOL    HW243006   8.872   7.912   3.504  0.4094  1.9199  1.1695
11410SOL     OW43007   4.577  11.410   3.608 -0.2420  0.0255  0.3498
11410SOL    HW143008   4.648  11.389   3.548  0.0800  1.2619  0.2665
11410SOL    HW243009   4.508  11.347   3.587 -0.7378  1.3388 -2.4005
11411SOL     OW43010   2.485   1.586   7.423  0.3305 -0.5802  0.0176
11411SOL    HW143011   2.401   1.600   7.379 -0.0270  0.8092  1.0980
11411SOL    HW243012   2.537   1.663   7.401  0.0018  0.3671  2.2930
11412SOL     OW43013   2.230   8.554   2.205  0.2563  0.2761  0.2484
11412SOL    HW143014   2.265   8.528   2.120  0.6745  1.6622 -0.0236
11412SOL    HW243015   2.300   8.606   2.245 -0.2441  0.3061  1.1070
11413SOL     OW43016  12.572   0.328   7.001  0.5821 -0.1145  0.2972
11413SOL    HW143017  12.588   0.234   6.995  0.9818 -0.0223 -0.2098
11413SOL    HW243018  12.512   0.347   6.929 -0.3165 -0.1374  1.0153
11414SOL     OW43019   3.121  11.453   5.149 -0.6834 -0.0316  0.0094
11414SOL    HW143020   3.027  11.441   5.157 -0.6774 -0.4118 -0.4712
11414SOL    HW243021   3.159  11.384   5.204 -0.6840  0.4355  0.6088
11415SOL     OW43022  12.548   6.041   9.412 -0.0022 -0.0713 -0.0860
11415SOL    HW143023  12.509   6.023   9.327  2.0557  0.5085 -1.2406
11415SOL    HW243024  12.586   5.957   9.439  0.2072 -0.0266 -0.2362
11416SOL     OW43025   3.857   2.968   3.056  0.2748 -0.0402 -0.1842
11416SOL    HW143026   3.830   3.015   2.977 -1.1146 -0.7427 -0.1585
11416SOL    HW243027   3.931   3.019   3.090 -1.0138  2.0101 -0.2610
11417SOL     OW43028   4.957   7.201   8.597 -0.3995  0.3833  0.0751
11417SOL    HW143029   5.041   7.243   8.578 -1.1070  1.0778 -1.6906
11417SOL    HW243030   4.937   7.230   8.686  1.5163 -0.3530  0.8093
11418SOL     OW43031   7.704  11.418  12.415  0.3877  0.5933  0.6790
11418SOL    HW143032   7.664  11.496  12.376  0.2447  0.3813  0.4014
11418SOL    HW243033   7.699  11.434  12.509 -2.7671 -0.5629  0.8392
11419SOL     OW43034  11.485   2.598   7.280  0.0288 -0.5080  0.0006
11419SOL    HW143035  11.537   2.522   7.306 -0.7961 -0.8567  0.6741
11419SOL    HW243036  11.475   2.590   7.186  1.4479 -0.2672 -0.1931
11420SOL     OW43037   2.773   7.380   6.250 -0.0197 -0.2139  0.7034
11420SOL    HW143038   2.683   7.371   6.219 -0.7352  2.2290  1.8484
11420SOL    HW243039   2.815   7.437   6.185  0.9844 -1.9100 -0.2153
11421SOL     OW43040   1.510   7.036   2.512 -0.0526 -0.2410  0.1302
11421SOL    HW143041   1.536   7.091   2.586 -0.9664 -0.3164  0.5298
11421SOL    HW243042   1.453   6.970   2.551 -2.2563  0.9435 -0.9106
11422SOL     OW43043   1.545   4.671   4.779 -0.4086 -0.4608  0.0161
11422SOL    HW143044   1.520   4.751   4.824  3.4352  1.0485 -0.1230
11422SOL    HW243045   1.526   4.689   4.687 -0.7298 -0.2185  0.1283
11423SOL     OW43046   0.204   6.309   2.835 -0.3540 -0.0988 -0.2173
11423SOL    HW143047   0.148   6.344   2.904 -1.7122  1.5967 -2.0611
11423SOL    HW243048   0.288   6.292   2.878 -0.7981  1.9239  1.6010
11424SOL     OW43049   4.183   3.594   3.500  0.0975 -0.2942  0.0979
11424SOL    HW143050   4.246   3.631   3.438  0.5776 -1.4420 -0.1180
11424SOL    HW243051   4.113   3.659   3.504  0.5404  0.2715 -0.8725
11425SOL     OW43052   9.756  12.198   6.404  0.0311 -0.6857 -0.2479
11425SOL    HW143053   9.662  12.216   6.413  0.2341  0.4795 -0.2293
11425SOL    HW243054   9.798  12.256   6.468  0.7305 -1.7793  0.3157
11426SOL     OW43055  11.665   9.873   2.274 -0.1769  0.5790  0.3341
11426SOL    HW143056  11.653   9.779   2.259 -1.1181  0.4934  1.3983
11426SOL    HW243057  11.645   9.884   2.367  2.4024  1.4685  0.8471
11427SOL     OW43058  10.738   2.537  10.328  0.3908  0.7413 -0.6309
11427SOL    HW143059  10.741   2.442  10.318  0.0298  0.5832  0.6253
11427SOL    HW243060  10.714   2.570  10.241  0.4923 -0.3067 -1.0683
11428SOL     OW43061   5.290   2.972   5.321 -0.1400 -0.2905  0.1169
11428SOL    HW143062   5.306   2.890   5.273  0.0704  0.7968 -1.7419
11428SOL    HW243063   5.311   3.041   5.258 -1.7140  1.2046  1.1583
11429SOL     OW43064   5.121  10.366   7.435 -0.7693 -0.2285 -0.1458
11429SOL    HW143065   5.055  10.316   7.484 -0.9858 -0.1156 -0.3178
11429SOL    HW243066   5.205  10.338   7.471 -0.9633  0.5600  0.9764
11430SOL     OW43067  10.377   9.423   1.158 -0.5089 -0.4392  0.6214
11430SOL    HW143068  10.341   9.488   1.098  1.6193  0.6210  0.4204
11430SOL    HW243069  10.351   9.452   1.245 -1.3721 -0.5345  0.4058
11431SOL     OW43070   7.347  10.830   3.937  0.1009 -0.2280 -0.1921
11431SOL    HW143071   7.294  10.795   4.009 -0.6314  1.9623  0.4398
11431SOL    HW243072   7.291  10.897   3.897  1.0030 -0.4993 -1.9757
11432SOL     OW43073   9.665  10.647   4.273 -0.2174  0.2367  0.4343
11432SOL    HW143074   9.666  10.638   4.177  0.8539  0.1937  0.4424
11432SOL    HW243075   9.712  10.728   4.290  0.5041 -0.2749  0.9625
11433SOL     OW43076   7.422  11.539  12.214  0.3152 -0.0728 -0.1066
11433SOL    HW143077   7.394  11.628  12.233  1.0650  0.1025  0.2175
11433SOL    HW243078   7.358  11.483  12.259  1.4019  0.3276  2.1049
11434SOL     OW43079   3.917   5.376   2.428  0.3723  0.2038  0.6518
11434SOL    HW143080   3.970   5.368   2.348  0.3518 -1.6863  0.7667
11434SOL    HW243081   3.829   5.399   2.396  0.7059  0.9692  0.2673
11435SOL     OW43082   4.293  12.251   4.576 -0.2574  0.1032 -0.2764
11435SOL    HW143083   4.303  12.221   4.486 -1.8012  0.6773 -0.6546
11435SOL    HW243084   4.351  12.193   4.626 -0.5752 -1.2727 -1.4274
11436SOL     OW43085   7.507   9.038   4.578  0.5112  0.1130  1.0158
11436SOL    HW143086   7.446   8.986   4.630  0.1318 -0.9569 -0.4537
11436SOL    HW243087   7.584   8.983   4.569  0.0788 -0.2690 -0.6171
11437SOL     OW43088   9.610  10.729  12.336  0.1004 -0.2946  0.3409
11437SOL    HW143089   9.541  10.748  12.273 -0.2124  2.0494  1.2872
11437SOL    HW243090   9.688  10.771  12.299 -0.1412  1.3164  1.5539
11438SOL     OW43091   5.649   7.892   1.689 -0.6073  0.7005 -0.2068
11438SOL    HW143092   5.723   7.952   1.691  0.5561 -0.6749 -0.6564
11438SOL    HW243093   5.588   7.931   1.626  1.0534  0.3858 -2.0735
11439SOL     OW43094  10.010   2.855   6.403  0.0640  0.0201  0.2724
11439SOL    HW143095  10.032   2.827   6.314  0.4145 -0.1217  0.4012
11439SOL    HW243096  10.059   2.795   6.460 -0.7290 -0.3587  0.5695
11440SOL     OW43097   6.245   2.244   9.729  0.6366  0.1645 -0.1469
11440SOL    HW143098   6.290   2.184   9.788  2.2064  1.2165 -0.2211
11440SOL    HW243099   6.257   2.330   9.769 -5.0472  0.2986  2.2570
11441SOL     OW43100   9.411   5.189  11.240  0.1144  0.0000  0.4831
11441SOL    HW143101   9.427   5.136  11.162  0.2291 -2.0778  1.8456
11441SOL    HW243102   9.494   5.189  11.287 -0.1453  0.6353  0.9586
11442SOL     OW43103   5.466   0.300   9.138 -0.4363  0.0099 -0.3301
11442SOL    HW143104   5.518   0.338   9.068  0.3811  0.4647  0.5124
11442SOL    HW243105   5.529   0.255   9.194 -1.0624 -0.2587  0.1740
11443SOL     OW43106   0.866   9.467   6.963 -0.3256  0.0813 -0.0226
11443SOL    HW143107   0.912   9.432   6.887  1.7968 -1.6642  1.9164
11443SOL    HW243108   0.787   9.414   6.970 -0.5773  0.3051 -1.0252
11444SOL     OW43109   5.686   7.365   0.166 -0.6618 -0.0195 -0.2677
11444SOL    HW143110   5.603   7.326   0.194 -0.2603 -1.6888 -1.2820
11444SOL    HW243111   5.667   7.407   0.082 -1.6410  4.1918  1.7712
11445SOL     OW43112   5.348  11.623  12.174  0.3364  0.3241  0.2842
11445SOL    HW143113   5.325  11.708  12.210 -0.3103  0.3031 -0.0430
11445SOL    HW243114   5.402  11.581  12.241 -0.6173  0.3863  1.1156
11446SOL     OW43115   0.073   0.932   9.080 -0.2597 -0.4759 -0.7609
11446SOL    HW143116  -0.000   0.968   9.131 -0.9728 -1.7124 -0.8863
11446SOL    HW243117   0.032   0.885   9.008  0.6367 -1.4784 -0.6476
11447SOL     OW43118   5.528   6.456  12.426  0.3744  0.0509  0.3042
11447SOL    HW143119   5.470   6.517  12.473 -0.2690 -1.0807  1.0160
11447SOL    HW243120   5.472   6.381  12.405  1.1587 -0.3024 -0.5572
11448SOL     OW43121   8.506  11.840   1.490 -0.0986  0.3234 -0.4148
11448SOL    HW143122   8.558  11.761   1.504  1.4517  0.8784 -2.4025
11448SOL    HW243123   8.478  11.867   1.577  1.7870 -0.8315  0.6211
11449SOL     OW43124  11.943   6.950   5.095  0.6947 -0.5837 -0.1184
11449SOL    HW143125  11.961   6.920   5.006  2.6403 -2.0723  0.6993
11449SOL    HW243126  11.990   7.033   5.103  0.3406 -0.3405 -0.5202
11450SOL     OW43127   5.425   7.559   0.970 -0.2080 -0.2619  0.0109
11450SOL    HW143128   5.385   7.492   0.915 -0.4536 -0.4535  0.4200
11450SOL    HW243129   5.365   7.633   0.966 -0.7515 -0.6459  0.8396
11451SOL     OW43130  11.607   4.020   5.657  0.3655 -0.1181 -0.0762
11451SOL    HW143131  11.585   4.072   5.580 -0.1003  0.0405  0.1557
11451SOL    HW243132  11.674   3.959   5.627 -1.6234 -1.8578 -1.3024
11452SOL     OW43133   9.052   0.713   5.829  0.2438 -0.0683 -0.2420
11452SOL    HW143134   9.050   0.789   5.771  0.9040 -0.0252 -0.2105
11452SOL    HW243135   9.142   0.682   5.825  0.5366  0.4470  1.4081
11453SOL     OW43136   0.170   8.155  11.593 -0.5108  0.6794  0.7974
11453SOL    HW143137   0.123   8.177  11.513 -0.5904  1.0621  0.9489
11453SOL    HW243138   0.219   8.234  11.615  0.9241  0.0101  0.1461
11454SOL     OW43139   3.975  11.944  11.867  0.5260  0.0335  0.2126
11454SOL    HW143140   4.026  11.901  11.797 -1.0083  0.6333 -1.3601
11454SOL    HW243141   3.884  11.926  11.843 -0.0807 -1.1990  3.0457
11455SOL     OW43142  11.993  11.435   5.547 -0.4712 -0.3557 -0.0274
11455SOL    HW143143  11.920  11.479   5.591 -2.5612 -0.9953 -2.6187
11455SOL    HW243144  12.011  11.490   5.471  1.6190 -0.3896  0.3787
11456SOL     OW43145   0.589  11.580  11.737  0.4553  0.1091  0.0919
11456SOL    HW143146   0.586  11.491  11.772  1.2844  0.1968  0.4046
11456SOL    HW243147   0.629  11.570  11.650 -2.4491 -0.2331 -1.3121
11457SOL     OW43148   6.428   1.430   7.338  0.3418 -0.3456  0.1060
11457SOL    HW143149   6.427   1.504   7.399  1.0644  0.3376 -0.6899
11457SOL    HW243150   6.472   1.360   7.387 -0.1859 -0.2104  0.8007
11458SOL     OW43151   9.380   2.698   7.903 -0.3623  0.0262  0.9529
11458SOL    HW143152   9.299   2.701   7.954 -1.2348 -0.7679 -0.3185
11458SOL    HW243153   9.357   2.648   7.824  0.6127  2.1062 -0.7681
11459SOL     OW43154   1.193   6.287   1.935  0.1586  0.2876  0.1501
11459SOL    HW143155   1.143   6.295   2.016 -0.6771 -1.3347 -0.1540
11459SOL    HW243156   1.238   6.203   1.943  0.7061  0.4813 -0.7276
11460SOL     OW43157   4.128   1.941   8.037  0.0296  0.4915 -0.5975
11460SOL    HW143158   4.080   1.947   8.120  1.7020 -1.9620  0.6802
11460SOL    HW243159   4.173   2.025   8.030  0.9926  0.2650  1.7995
11461SOL     OW43160   5.482   5.550  11.389 -0.1320 -0.2074  0.4380
11461SOL    HW143161   5.485   5.488  11.316 -2.2798 -1.2419  1.1180
11461SOL    HW243162   5.434   5.625  11.355  0.3482  0.0372  0.3027
11462SOL     OW43163  11.504   8.027   2.907 -0.2180 -0.8618  0.2474
11462SOL    HW143164  11.515   8.000   2.816  2.0251  0.1784  0.1362
11462SOL    HW243165  11.465   8.114   2.901 -1.1038 -1.2459  0.3395
11463SOL     OW43166   4.769   0.570   1.258 -0.1319  0.2003  0.4216
11463SOL    HW143167   4.728   0.484   1.257 -0.4813  0.3388 -1.5873
11463SOL    HW243168   4.863   0.553   1.251 -0.1561 -0.0226  0.6444
11464SOL     OW43169  11.636   3.873   4.225 -0.1683  0.4368  0.4863
11464SOL    HW143170  11.641   3.933   4.299 -0.0880 -1.4355  2.0864
11464SOL    HW243171  11.727   3.865   4.195 -0.1972  1.1825  0.1870
11465SOL     OW43172  10.492   4.226   5.363 -0.0739 -0.0995  0.0367
11465SOL    HW143173  10.521   4.139   5.391 -0.0392 -0.3796 -0.8588
11465SOL    HW243174  10.536   4.241   5.279 -0.4241  0.5973 -0.0332
11466SOL     OW43175   2.702   8.708   6.365 -0.0273  0.8346 -0.1280
11466SOL    HW143176   2.741   8.628   6.402 -0.9888  0.8999  1.0521
11466SOL    HW243177   2.740   8.779   6.416  1.4268  1.2494 -1.6770
11467SOL     OW43178   4.652   8.266   6.559 -0.0600  0.1510  0.0926
11467SOL    HW143179   4.710   8.337   6.587  1.0152 -1.1813  1.3890
11467SOL    HW243180   4.565   8.295   6.585  0.5181  0.4297  1.8640
11468SOL     OW43181   2.003  10.024   6.075  0.3280  0.6803  0.4063
11468SOL    HW143182   2.060   9.956   6.112  0.7740  1.1184  0.5276
11468SOL    HW243183   1.916  10.002   6.108  0.5349  0.3948  0.7709
11469SOL     OW43184   0.078   2.380   1.293  0.7917  0.7352  0.3552
11469SOL    HW143185   0.051   2.306   1.347 -1.4854  1.2821  0.0732
11469SOL    HW243186   0.083   2.344   1.204 -1.7604  1.1538 -0.0226
11470SOL     OW43187   1.479   9.319  10.070 -0.3702  0.7284  0.2974
11470SOL    HW143188   1.543   9.375  10.026 -0.3609  0.6632  0.2313
11470SOL    HW243189   1.395   9.344  10.032 -0.4150  0.9822  0.5540
11471SOL     OW43190   5.460   9.983   9.215  0.0158  0.1299 -0.3984
11471SOL    HW143191   5.535  10.042   9.205 -0.8710  1.1517 -1.3586
11471SOL    HW243192   5.498   9.901   9.246  1.4022  0.9184  0.0896
11472SOL     OW43193   1.098  11.446   0.996  0.1899  0.1980 -0.3399
11472SOL    HW143194   1.028  11.413   1.054 -2.0589  2.4139 -1.5896
11472SOL    HW243195   1.172  11.460   1.054 -0.5441 -1.6684  1.1839
11473SOL     OW43196   2.815   9.025   3.555  0.3478  0.2852 -0.1254
11473SOL    HW143197   2.831   8.936   3.586 -0.1019  0.3723  0.3806
11473SOL    HW243198   2.792   9.016   3.463  0.5638 -0.0916 -0.1438
11474SOL     OW43199   9.432   8.988   6.177  0.6508  0.5073  0.4171
11474SOL    HW143200   9.428   8.918   6.243 -1.5041  0.2626  0.1106
11474SOL    HW243201   9.475   8.947   6.102 -0.1344 -0.3632  0.4182
11475SOL     OW43202   4.680   6.553   6.211  0.6585 -0.8114 -0.0171
11475SOL    HW143203   4.707   6.471   6.171 -1.4678 -1.2766 -0.5873
11475SOL    HW243204   4.725   6.620   6.160  1.4215 -1.5596 -0.3511
11476SOL     OW43205   9.804   5.688   7.859  0.3709 -0.4215  0.2368
11476SOL    HW143206   9.861   5.630   7.808 -1.1350 -0.6921 -1.2204
11476SOL    HW243207   9.836   5.679   7.949  1.8939 -1.4103 -0.3485
11477SOL     OW43208   8.495   7.601   1.696  0.2674  0.0864  0.2542
11477SOL    HW143209   8.571   7.599   1.637 -0.0574  0.5944 -0.2020
11477SOL    HW243210   8.505   7.524   1.752  0.8950 -0.0832 -0.0819
11478SOL     OW43211  10.002  12.501   2.484  0.0723  0.0946 -0.3595
11478SOL    HW143212   9.997  12.444   2.407  0.0697 -0.8546  0.3235
11478SOL    HW243213   9.923  12.480   2.534  0.3636  0.2815  0.1888
11479SOL     OW43214   6.958   3.463   4.966  0.0665  0.2742 -0.6210
11479SOL    HW143215   7.008   3.454   5.047 -0.3859  2.1434 -0.1074
11479SOL    HW243216   6.966   3.555   4.942 -0.3107 -0.1121 -2.3957
11480SOL     OW43217  11.994   6.475  11.263 -0.0216  0.1473 -0.0705
11480SOL    HW143218  12.028   6.521  11.340 -1.1924  1.1351 -0.1049
11480SOL    HW243219  12.025   6.385  11.273  0.0680  0.3168  1.4323
11481SOL     OW43220   0.143   3.974   8.176  0.0372  0.3089 -0.0658
11481SOL    HW143221   0.227   4.019   8.192 -0.9455  2.8659 -1.4569
11481SOL    HW243222   0.077   4.034   8.212 -1.3051 -0.6239 -0.9176
11482SOL     OW43223   3.384   6.548   0.461 -0.0175 -0.2816 -0.0798
11482SOL    HW143224   3.318   6.481   0.479  0.6963 -0.6991  1.1099
11482SOL    HW243225   3.347   6.600   0.390 -1.7005 -0.3721  0.6957
11483SOL     OW43226   7.825   6.388   4.577  0.3744 -0.5170 -0.0670
11483SOL    HW143227   7.852   6.321   4.639  1.2700 -0.7152 -0.6488
11483SOL    HW243228   7.899   6.448   4.572  0.6299 -0.9078 -1.4868
11484SOL     OW43229   8.019   2.974   5.286  0.8237 -0.3739 -0.0165
11484SOL    HW143230   7.945   2.934   5.241  0.7933 -0.4735  0.1234
11484SOL    HW243231   8.089   2.977   5.220  0.7458 -0.4210 -0.1019
11485SOL     OW43232   0.492   5.643  12.025  0.9672 -0.2088  0.2105
11485SOL    HW143233   0.566   5.584  12.039  1.4919  0.5298  0.6155
11485SOL    HW243234   0.499   5.669  11.933  0.2398 -1.4116 -0.2151
11486SOL     OW43235  12.523   1.997   0.786 -0.2251 -0.1784 -0.2028
11486SOL    HW143236  12.600   2.047   0.759 -1.0081  0.7421 -0.7833
11486SOL    HW243237  12.543   1.907   0.762  0.4821  0.1187 -0.7546
11487SOL     OW43238  11.693   8.331   7.474 -0.2355  0.5250 -0.1225
11487SOL    HW143239  11.687   8.406   7.533  2.7011  0.5482  0.2613
11487SOL    HW243240  11.762   8.276   7.511 -2.0370 -2.2581 -0.5847
11488SOL     OW43241   1.597   4.667   5.705  0.0801  0.3092  0.3701
11488SOL    HW143242   1.517   4.706   5.668 -0.2765  1.7236  2.4422
11488SOL    HW243243   1.652   4.742   5.727 -0.6894 -0.1259  4.6639
11489SOL     OW43244   0.635   6.777  12.157  0.2328 -0.0971 -0.2111
11489SOL    HW143245   0.707   6.787  12.218 -0.2197 -1.8349  0.6971
11489SOL    HW243246   0.617   6.683  12.157 -1.1583  0.1272 -1.4307
11490SOL     OW43247   8.398   0.534   1.988 -0.0797  0.3785  0.2435
11490SOL    HW143248   8.458   0.579   2.046 -0.6095  2.0865 -0.4843
11490SOL    HW243249   8.311   0.561   2.017 -0.4403 -0.6300  0.1453
11491SOL     OW43250  10.998   7.191   3.984  0.2273  0.1733  0.2981
11491SOL    HW143251  10.994   7.274   4.032  1.9687  1.2288 -1.2248
11491SOL    HW243252  11.011   7.217   3.893 -2.1109 -1.7553 -0.7015
11492SOL     OW43253   2.317   1.128  10.868  0.0571 -0.5480 -0.3360
11492SOL    HW143254   2.256   1.198  10.844  0.2894 -0.6834 -1.3799
11492SOL    HW243255   2.280   1.090  10.947  0.5645  1.5489  0.9926
11493SOL     OW43256   9.589   4.006  11.335 -0.1720  0.3426 -0.0766
11493SOL    HW143257   9.566   4.073  11.399  2.0062  1.8154 -0.7259
11493SOL    HW243258   9.602   3.927  11.387 -2.0176  0.5823  0.8008
11494SOL     OW43259   5.175  10.497  12.546 -0.1139 -0.0453  0.7240
11494SOL    HW143260   5.096  10.444  12.558  0.2357 -0.3549  1.7657
11494SOL    HW243261   5.213  10.465  12.464 -0.6167 -0.4904  0.6619
11495SOL     OW43262  10.385   2.270   9.696 -0.2280 -0.0406  0.4802
11495SOL    HW143263  10.414   2.290   9.607 -0.1856  1.3176  0.7680
11495SOL    HW243264  10.429   2.189   9.718  1.2451  0.5736 -0.0700
11496SOL     OW43265   0.156   8.773   0.422 -0.0872  0.2280  0.1576
11496SOL    HW143266   0.122   8.746   0.337 -0.2746  1.9626 -0.3726
11496SOL    HW243267   0.154   8.694   0.476 -2.3145 -0.3658 -0.6848
11497SOL     OW43268  11.748   9.419   9.455  0.3543 -0.2857 -0.0533
11497SOL    HW143269  11.736   9.334   9.496  1.6515 -0.2657  0.4074
11497SOL    HW243270  11.792   9.401   9.372 -0.1952 -0.1266 -0.3914
11498SOL     OW43271  11.425   1.174   0.730 -0.0223 -0.4457  0.2003
11498SOL    HW143272  11.432   1.108   0.799 -0.0244  0.3546  0.9986
11498SOL    HW243273  11.515   1.200   0.712  0.0255 -1.1160 -0.5807
11499SOL     OW43274   8.197   0.695   8.886 -0.2878 -0.3614 -0.3801
11499SOL    HW143275   8.170   0.697   8.794  0.4713 -0.1332 -0.6050
11499SOL    HW243276   8.235   0.608   8.897 -0.7942 -0.5563 -0.1565
11500SOL     OW43277   2.921   3.533   0.549 -0.3307 -0.8136  0.6281
11500SOL    HW143278   2.990   3.466   0.552  1.2322  0.7052  0.4602
11500SOL    HW243279   2.882   3.524   0.463 -0.5238 -1.8480  0.8093
11501SOL     OW43280   9.145  10.276  12.431  0.1419 -0.0508 -0.4220
11501SOL    HW143281   9.225  10.225  12.448 -0.2952 -0.8857 -0.7854
11501SOL    HW243282   9.077  10.210  12.421 -1.0933  0.7253  2.1937
11502SOL     OW43283   8.638   2.824   7.501  0.2369  0.6776 -0.5892
11502SOL    HW143284   8.553   2.861   7.524  0.8124  1.8331 -0.2758
11502SOL    HW243285   8.699   2.896   7.511  1.4493 -0.4434  0.3703
11503SOL     OW43286   5.543   0.597   6.916 -0.1891 -0.0862 -0.7737
11503SOL    HW143287   5.467   0.540   6.906  1.2789 -2.0884 -1.0655
11503SOL    HW243288   5.543   0.619   7.009 -0.5877 -0.8626 -0.5786
11504SOL     OW43289   8.823   3.814  12.488  0.2384 -0.1655  0.0976
11504SOL    HW143290   8.828   3.733  12.538 -1.4471 -0.4384 -0.1118
11504SOL    HW243291   8.913   3.845  12.483  1.0678 -2.4930 -0.5978
11505SOL     OW43292  10.552   6.282   5.062  0.3698  0.2111  0.2448
11505SOL    HW143293  10.603   6.326   5.130  0.7595 -0.0025  0.0909
11505SOL    HW243294  10.616   6.230   5.014 -0.0246 -0.2050  0.1663
11506SOL     OW43295   7.153  10.674  12.511  0.0598  0.1475 -0.3073
11506SOL    HW143296   7.214  10.727  12.562 -0.5831 -0.2049  0.8758
11506SOL    HW243297   7.122  10.732  12.442  0.1500  0.9828  0.3468
11507SOL     OW43298   7.197   4.902   0.163  0.4198 -0.1545 -0.2304
11507SOL    HW143299   7.181   4.960   0.089 -2.0054 -0.1787  0.2021
11507SOL    HW243300   7.173   4.815   0.131  0.5839 -0.3618  0.2015
11508SOL     OW43301   6.854   5.954   7.805 -0.4857 -0.2104  0.4268
11508SOL    HW143302   6.789   6.023   7.819 -0.5611 -0.5952  2.2329
11508SOL    HW243303   6.803   5.874   7.794 -0.4038 -0.0133 -1.8143
11509SOL     OW43304   9.160   6.531   2.259 -0.2663 -0.3865 -0.2226
11509SOL    HW143305   9.091   6.525   2.193  0.0100  0.5528 -0.6037
11509SOL    HW243306   9.113   6.557   2.339 -0.5196 -0.9803 -0.1697
11510SOL     OW43307   2.298   6.435   5.840 -0.3731 -0.2150 -0.0862
11510SOL    HW143308   2.326   6.416   5.930 -0.6933 -0.6549 -0.0752
11510SOL    HW243309   2.207   6.405   5.837 -0.3803 -0.1481 -0.5426
11511SOL     OW43310   0.866  10.735   9.711  0.0357  0.4519 -0.3090
11511SOL    HW143311   0.875  10.799   9.641  0.3979 -0.0468 -0.7235
11511SOL    HW243312   0.892  10.652   9.672 -2.0641 -0.2695 -0.2715
11512SOL     OW43313   2.644   2.811   3.652  0.0421 -0.5483  0.0792
11512SOL    HW143314   2.577   2.746   3.630 -1.5363  0.5753  1.3211
11512SOL    HW243315   2.609   2.894   3.617  1.5924 -0.1788 -0.6973
11513SOL     OW43316   6.998   5.922   9.868  0.3482  0.6370 -0.2298
11513SOL    HW143317   6.928   5.927   9.933  0.1969  2.5705 -0.4850
11513SOL    HW243318   7.016   5.828   9.859 -2.5911  0.0134 -0.5863
11514SOL     OW43319   5.472   4.741   3.878 -0.3947  0.0224 -0.6432
11514SOL    HW143320   5.430   4.663   3.914  0.9369 -0.8003 -0.8409
11514SOL    HW243321   5.509   4.786   3.954  1.8649 -1.3860 -0.8219
11515SOL     OW43322   5.104   3.156   4.578 -0.6685 -1.0095  0.1040
11515SOL    HW143323   5.041   3.133   4.646 -1.4094 -0.7536 -0.4687
11515SOL    HW243324   5.089   3.250   4.562  1.2429 -0.4434  1.3337
11516SOL     OW43325   9.658   0.506   3.921  0.3629 -0.1715  0.0645
11516SOL    HW143326   9.591   0.438   3.926  1.0315 -0.7729  1.2689
11516SOL    HW243327   9.701   0.505   4.006  1.9744  0.1238 -0.6892
11517SOL     OW43328   7.332   5.747   8.092 -0.7848  0.2242  0.4662
11517SOL    HW143329   7.308   5.655   8.086  0.3529 -0.0809  0.3307
11517SOL    HW243330   7.314   5.771   8.183 -1.1538 -0.1124  0.4814
11518SOL     OW43331  12.134   5.164   0.076 -0.4973 -0.0700 -0.1121
11518SOL    HW143332  12.066   5.188   0.138 -0.3619  1.9448 -0.6475
11518SOL    HW243333  12.089   5.155  -0.008 -0.2259  0.7865 -0.3717
11519SOL     OW43334   0.174  11.340   5.636  0.0002 -0.2861  0.0280
11519SOL    HW143335   0.250  11.380   5.678 -1.1155  0.9942  0.8963
11519SOL    HW243336   0.142  11.276   5.700 -0.1320 -0.2362  0.0125
11520SOL     OW43337   7.509   9.903   1.785 -0.4366 -0.4253  0.6490
11520SOL    HW143338   7.485   9.932   1.697 -0.2037  1.1273  1.0664
11520SOL    HW243339   7.461   9.821   1.797 -1.1638 -0.2159 -0.5845
11521SOL     OW43340   6.248   4.963   9.237  0.4377 -0.2443  0.2520
11521SOL    HW143341   6.286   4.902   9.300 -0.4434 -1.5557 -0.4427
11521SOL    HW243342   6.154   4.956   9.250  0.3043  0.7948 -0.0247
11522SOL     OW43343  11.460   6.565   2.843  0.0655 -0.2357  0.1505
11522SOL    HW143344  11.473   6.558   2.748 -0.1853  1.6986 -0.0626
11522SOL    HW243345  11.365   6.566   2.854  0.0924 -0.8152  0.4628
11523SOL     OW43346   4.776   9.024   6.150  0.1133  0.1542 -0.4466
11523SOL    HW143347   4.685   9.017   6.177  0.5253 -1.2010  0.6910
11523SOL    HW243348   4.778   8.993   6.059  0.0597 -4.2421  0.8686
11524SOL     OW43349   0.584   1.993   1.009  0.0062  0.1250  0.2962
11524SOL    HW143350   0.647   2.049   1.055  0.4727  0.3557 -0.6000
11524SOL    HW243351   0.560   2.043   0.931  0.5460 -0.9909 -0.6014
11525SOL     OW43352  12.026   3.772   0.581 -0.7226 -0.3501  0.3388
11525SOL    HW143353  12.033   3.707   0.511  0.2378 -0.3447  0.4168
11525SOL    HW243354  12.057   3.726   0.659  0.0392  0.2210  0.3810
11526SOL     OW43355   4.006   7.175  11.806 -0.2966  0.2947  0.0453
11526SOL    HW143356   4.010   7.267  11.832  0.4654  0.5337 -0.8728
11526SOL    HW243357   3.994   7.127  11.889 -0.7639  1.2125  0.5219
11527SOL     OW43358  10.315   5.075   4.385  0.3770 -0.5184 -0.1756
11527SOL    HW143359  10.410   5.062   4.384  0.3347 -0.9920  0.6929
11527SOL    HW243360  10.290   5.061   4.477 -0.3033  1.2977 -0.0397
11528SOL     OW43361   3.485   6.516  10.680 -0.2632 -0.3527 -0.4948
11528SOL    HW143362   3.503   6.599  10.637  4.0810  0.0425  1.5182
11528SOL    HW243363   3.553   6.457  10.648 -0.4792 -1.7367  1.4108
11529SOL     OW43364   5.516   6.565   0.340 -0.1005 -0.1962  0.2167
11529SOL    HW143365   5.583   6.631   0.357 -0.2629  0.3692 -1.2183
11529SOL    HW243366   5.480   6.545   0.426  1.7989 -0.4208  1.0132
11530SOL     OW43367   2.143  10.013  11.956 -0.1087 -0.4154  0.4503
11530SOL    HW143368   2.171  10.079  12.019  0.6529 -0.1397 -0.1597
11530SOL    HW243369   2.223   9.966  11.934 -0.3995 -0.6205 -0.1798
11531SOL     OW43370   4.931   3.202  11.995 -0.2612 -0.1573  0.0199
11531SOL    HW143371   5.009   3.235  12.039 -0.8344 -0.1450  1.0720
11531SOL    HW243372   4.897   3.276  11.945  1.8305 -0.8511 -2.6190
11532SOL     OW43373   2.634   8.584   4.961  0.5045 -0.2624 -0.6583
11532SOL    HW143374   2.720   8.542   4.967  0.8283  0.5323  1.7845
11532SOL    HW243375   2.652   8.671   4.926  0.8027  0.0536  0.2416
11533SOL     OW43376   5.334   2.978   8.176  0.2506 -0.0530  0.2026
11533SOL    HW143377   5.336   2.928   8.095 -1.8565  0.2667 -0.1239
11533SOL    HW243378   5.246   3.016   8.178  0.7764  1.2003  1.8910
11534SOL     OW43379  10.961   6.043  11.411  0.6904 -0.0536 -0.5021
11534SOL    HW143380  10.899   6.107  11.445  2.0305  1.2890 -0.4718
11534SOL    HW243381  10.980   6.072  11.322 -0.5088 -1.8399 -1.4229
11535SOL     OW43382   6.376  12.429   2.365 -0.4299  0.2330 -0.2428
11535SOL    HW143383   6.383  12.433   2.460  0.3997 -0.4548 -0.2663
11535SOL    HW243384   6.464  12.447   2.333 -0.8249  1.0562 -0.9104
11536SOL     OW43385   1.658   3.249   0.211 -0.2220  0.1195  0.0641
11536SOL    HW143386   1.616   3.311   0.270 -0.0498  0.0100  0.3015
11536SOL    HW243387   1.748   3.242   0.243 -0.7591 -1.7939  1.3129
11537SOL     OW43388   6.630   4.810   8.399  0.2639 -0.1858  0.2638
11537SOL    HW143389   6.601   4.889   8.354  1.0231  0.1913  0.4376
11537SOL    HW243390   6.725   4.809   8.388  0.3090 -0.8327  0.6560
11538SOL     OW43391  11.410   8.955   4.155  0.7345  0.7213  0.3223
11538SOL    HW143392  11.361   9.038   4.155  0.8981  0.8447  1.8878
11538SOL    HW243393  11.425   8.937   4.062  0.0140  2.0406 -0.0883
11539SOL     OW43394   0.087   2.305   0.687 -0.1666 -0.2920 -0.0089
11539SOL    HW143395   0.179   2.308   0.715  0.0835  0.2309 -0.8509
11539SOL    HW243396   0.037   2.319   0.768  0.4816 -0.7896  0.4954
11540SOL     OW43397   9.634   9.659  11.446 -0.7696 -0.2096  0.4577
11540SOL    HW143398   9.576   9.705  11.507 -0.5829  0.1294  0.3800
11540SOL    HW243399   9.600   9.570  11.445 -0.9590 -0.1465  0.8288
11541SOL     OW43400   4.666   3.229   2.630 -0.5640  0.0440 -0.1993
11541SOL    HW143401   4.748   3.179   2.634  0.9251  2.3745  0.3448
11541SOL    HW243402   4.642   3.242   2.721 -0.7399  0.6018 -0.3254
11542SOL     OW43403   5.159   7.947   3.526  0.4249  0.2054  0.5908
11542SOL    HW143404   5.101   7.921   3.454  0.3766 -3.2024  1.7105
11542SOL    HW243405   5.225   8.003   3.484 -1.3679  0.9471 -1.4551
11543SOL     OW43406   1.130   6.274  12.152 -0.1221  0.3081 -0.2535
11543SOL    HW143407   1.059   6.263  12.215 -1.9431  2.2812 -1.8379
11543SOL    HW243408   1.165   6.362  12.169  1.1073 -0.1283 -0.3634
11544SOL     OW43409   8.850   6.051   2.578 -0.0132  0.3669  0.0012
11544SOL    HW143410   8.880   6.133   2.538  0.0718  0.2079 -0.2609
11544SOL    HW243411   8.930   6.008   2.607  0.2230 -0.9328 -2.3506
11545SOL     OW43412   0.839   0.315  11.220  0.1435 -0.3207  0.3400
11545SOL    HW143413   0.826   0.335  11.312 -0.5104  2.0115 -0.1947
11545SOL    HW243414   0.770   0.364  11.174  2.4860  1.4538 -1.6081
11546SOL     OW43415   5.867   1.768   2.485 -0.2445  0.1343 -0.3603
11546SOL    HW143416   5.896   1.743   2.397 -0.5399 -1.0207 -0.1433
11546SOL    HW243417   5.895   1.696   2.541  0.3250  1.0574  0.5878
11547SOL     OW43418  12.402   9.483   2.651 -0.6527 -0.2170  0.0689
11547SOL    HW143419  12.490   9.451   2.664 -0.4783  0.1212 -0.2309
11547SOL    HW243420  12.414   9.575   2.626 -0.9606 -0.6458 -1.8669
11548SOL     OW43421   1.433  10.208   7.657 -0.0394 -0.2474  0.1496
11548SOL    HW143422   1.345  10.194   7.622 -0.0142  0.3203 -0.1566
11548SOL    HW243423   1.421  10.272   7.727  0.2414  0.5037 -0.4768
11549SOL     OW43424   4.529   7.425  12.596  0.5356 -0.0009 -0.0179
11549SOL    HW143425   4.612   7.377  12.602  1.1097  1.0910  1.6695
11549SOL    HW243426   4.531   7.465  12.509  0.8909 -1.5159 -0.7268
11550SOL     OW43427   5.769   6.107   3.783 -0.0681  0.8702 -0.1347
11550SOL    HW143428   5.738   6.134   3.869  0.0798 -0.5486  0.3824
11550SOL    HW243429   5.698   6.055   3.747  0.0504  1.0857 -0.7034
11551SOL     OW43430  11.826  10.023   3.862  0.1209  0.8984 -0.1412
11551SOL    HW143431  11.833  10.016   3.767  2.8210  0.1459  0.0103
11551SOL    HW243432  11.853  10.112   3.881 -0.8960  1.2027 -0.0870
11552SOL     OW43433   3.350   0.452   7.142 -0.5936 -0.1003 -0.6061
11552SOL    HW143434   3.390   0.463   7.056  2.9383 -0.2989  0.8460
11552SOL    HW243435   3.380   0.527   7.193 -1.4266 -0.7025  0.8464
11553SOL     OW43436  12.040   6.560   0.158  0.0007  0.2122 -0.2837
11553SOL    HW143437  12.104   6.562   0.087 -1.5399  2.0758 -1.7284
11553SOL    HW243438  11.999   6.647   0.156 -0.5988  0.0920  2.4696
11554SOL     OW43439   9.853   3.594   6.047 -0.2520  0.8555 -0.1805
11554SOL    HW143440   9.847   3.523   6.111  1.5680 -0.3781 -1.2749
11554SOL    HW243441   9.765   3.598   6.009 -0.1831 -1.5782 -0.8007
11555SOL     OW43442   7.469   9.460   2.577 -0.4459  0.0400  0.3920
11555SOL    HW143443   7.392   9.461   2.635 -0.7710 -1.1028  0.0087
11555SOL    HW243444   7.477   9.368   2.550  0.2984  0.3797 -0.5817
11556SOL     OW43445   3.426   8.987   8.728  0.3412 -0.4441 -0.1328
11556SOL    HW143446   3.494   8.925   8.754 -1.1689 -1.6180  1.2800
11556SOL    HW243447   3.471   9.071   8.723  2.3205 -1.5028 -1.4544
11557SOL     OW43448   9.367   9.426   3.390  0.0510  0.2333  0.5720
11557SOL    HW143449   9.296   9.447   3.330 -0.0983 -1.0197  0.2724
11557SOL    HW243450   9.372   9.500   3.450 -0.5129  1.0115 -0.3240
11558SOL     OW43451   7.074   7.430   2.266 -0.5570 -0.6716  0.2298
11558SOL    HW143452   7.088   7.342   2.230 -0.7787 -1.0587  1.0627
11558SOL    HW243453   7.134   7.435   2.340  1.1370  0.7365 -1.1512
11559SOL     OW43454  12.242   8.461   4.059  1.1540  0.1880 -0.2626
11559SOL    HW143455  12.324   8.484   4.104  1.2619 -0.6708  0.0082
11559SOL    HW243456  12.260   8.375   4.021  0.4716  0.1272 -0.4562
11560SOL     OW43457  10.971   5.897   1.000 -0.1160 -0.2485  0.2168
11560SOL    HW143458  10.963   5.963   0.930 -1.1480 -0.6183 -0.0199
11560SOL    HW243459  10.992   5.948   1.078  3.0959  0.0251 -0.6872
11561SOL     OW43460  12.509   5.148   6.448 -0.5003  0.4921  0.0299
11561SOL    HW143461  12.593   5.178   6.412 -1.0928  0.2982 -1.5836
11561SOL    HW243462  12.509   5.054   6.432 -0.3476  0.2173  1.5106
11562SOL     OW43463  12.270   8.382   5.211  0.0451 -0.2058 -0.3126
11562SOL    HW143464  12.216   8.443   5.161  1.3779  1.7036  0.4599
11562SOL    HW243465  12.251   8.403   5.303 -0.4489 -1.9068  0.0144
11563SOL     OW43466   0.773   3.045  10.374 -0.2235 -0.2512  0.5388
11563SOL    HW143467   0.685   3.010  10.389 -0.5005  0.5053  0.7499
11563SOL    HW243468   0.777   3.057  10.279  0.2651 -1.8198  0.3440
11564SOL     OW43469   5.352   1.267   9.481  0.0579  0.0666  0.1516
11564SOL    HW143470   5.428   1.323   9.468 -0.3311  0.3586 -1.0395
11564SOL    HW243471   5.367   1.224   9.565  1.1109  0.7757  0.3403
11565SOL     OW43472   2.189   8.204   6.282 -0.6019  0.1577 -0.0248
11565SOL    HW143473   2.177   8.247   6.367  0.8660  2.4742 -0.8847
11565SOL    HW243474   2.259   8.140   6.298 -0.5222  0.3881  0.5903
11566SOL     OW43475  12.094   1.078   4.301 -0.1153 -0.0245 -0.0006
11566SOL    HW143476  12.111   1.108   4.212  2.5594  0.0987  0.4866
11566SOL    HW243477  12.013   1.027   4.293  0.4167 -0.6221 -2.6294
11567SOL     OW43478   7.550   9.270   1.355 -0.4869 -0.1362  1.1544
11567SOL    HW143479   7.522   9.358   1.330  0.6273 -0.2368 -0.6619
11567SOL    HW243480   7.635   9.284   1.397 -0.0834 -0.3616  0.4288
11568SOL     OW43481   9.310   9.705   1.866 -0.2545  0.4927  0.2016
11568SOL    HW143482   9.334   9.778   1.923 -0.5932 -0.5308  1.7259
11568SOL    HW243483   9.216   9.716   1.851  0.0328  1.3608 -1.0933
11569SOL     OW43484   3.337   3.694   2.225 -0.0501  0.2725 -0.3845
11569SOL    HW143485   3.316   3.627   2.160 -1.9477 -0.9252  1.3300
11569SOL    HW243486   3.370   3.645   2.300  0.1264  1.4291  0.3228
11570SOL     OW43487   4.598   5.180   4.514 -0.0182  0.3625  0.3008
11570SOL    HW143488   4.562   5.178   4.425  0.2169  0.6330  0.1974
11570SOL    HW243489   4.564   5.100   4.555 -0.5200  0.4757  0.1237
11571SOL     OW43490   2.184   4.612   9.349 -0.0181 -0.0183 -0.2956
11571SOL    HW143491   2.250   4.546   9.364  0.4890  0.5176 -0.1334
11571SOL    HW243492   2.127   4.575   9.282  1.2568  0.0929 -1.4551
11572SOL     OW43493  10.842   3.498   2.181 -0.0309  0.3270  0.0287
11572SOL    HW143494  10.772   3.450   2.226 -2.5978  0.7860 -3.1085
11572SOL    HW243495  10.908   3.431   2.162 -1.0236 -0.8189  0.4470
11573SOL     OW43496   0.010   7.893  11.266 -0.0627  0.2188 -0.0980
11573SOL    HW143497  -0.007   7.956  11.336  0.1449  0.7226 -0.4990
11573SOL    HW243498   0.008   7.808  11.310  0.9191  0.5787  0.6824
11574SOL     OW43499   3.007  10.297   6.876  0.0987  0.6886 -0.0323
11574SOL    HW143500   3.014  10.232   6.946 -0.8851  1.9929  1.3417
11574SOL    HW243501   2.965  10.250   6.803  1.2320 -0.7227  0.1659
11575SOL     OW43502   9.427   2.365  10.862  0.0548  0.1773 -0.2426
11575SOL    HW143503   9.518   2.379  10.887  0.3929 -0.7979 -0.8639
11575SOL    HW243504   9.381   2.444  10.892  1.0808  0.6392  0.1506
11576SOL     OW43505  11.326   1.182   0.102  0.2428 -0.5830 -0.1855
11576SOL    HW143506  11.296   1.236   0.176  1.7403  0.4301 -0.2865
11576SOL    HW243507  11.416   1.160   0.124  1.0327  0.5050 -2.1249
11577SOL     OW43508   5.737   8.891  11.943  0.1261 -0.5889 -0.0552
11577SOL    HW143509   5.713   8.878  12.035 -0.7840 -1.8957 -0.4499
11577SOL    HW243510   5.710   8.981  11.924 -0.3078 -0.5301  0.7727
11578SOL     OW43511   9.933   6.283  11.825  0.1087  0.4489  0.4519
11578SOL    HW143512   9.976   6.208  11.865 -2.4462 -2.1752 -1.3574
11578SOL    HW243513   9.901   6.335  11.900  1.4913 -0.4686  1.7381
11579SOL     OW43514  12.457   0.825   9.669 -0.0366  0.3774 -0.0996
11579SOL    HW143515  12.530   0.814   9.730  0.2601 -0.7427 -0.6305
11579SOL    HW243516  12.430   0.736   9.648 -0.8591  0.7692 -0.7433
11580SOL     OW43517  10.419   1.817  12.289 -0.2059 -0.4917  0.5419
11580SOL    HW143518  10.512   1.836  12.303 -0.4436  1.0483  0.1343
11580SOL    HW243519  10.389   1.779  12.372  0.7840 -1.0473  0.6589
11581SOL     OW43520   7.093   4.693   6.939 -0.4447  0.4838  0.0558
11581SOL    HW143521   7.187   4.702   6.928 -0.5086  0.8039 -0.2796
11581SOL    HW243522   7.082   4.620   6.999 -0.0283 -0.6496 -1.2055
11582SOL     OW43523  11.250   1.263   8.464 -0.0816 -0.0512 -0.1425
11582SOL    HW143524  11.178   1.201   8.474 -0.1203  0.0162  0.0145
11582SOL    HW243525  11.329   1.209   8.470 -0.0828  0.0612  1.3044
11583SOL     OW43526   0.884  10.685   4.866  0.6901  0.2448 -0.3060
11583SOL    HW143527   0.931  10.759   4.906  0.2617  0.7557 -0.7293
11583SOL    HW243528   0.832  10.725   4.796  1.1281 -0.5935 -1.1161
11584SOL     OW43529  11.451   2.370   3.807 -0.3479 -0.4049  0.3367
11584SOL    HW143530  11.380   2.333   3.754 -0.9817 -0.1522  0.9939
11584SOL    HW243531  11.432   2.464   3.809 -0.4565 -0.4437  1.2050
11585SOL     OW43532   8.468   0.115  10.328 -0.5760 -0.4569  0.1697
11585SOL    HW143533   8.471   0.052  10.256  0.0397  0.9531 -1.0961
11585SOL    HW243534   8.440   0.063  10.403 -2.0001 -1.8420 -1.2195
11586SOL     OW43535  12.299   9.127   6.175 -0.5674 -0.3569 -0.2154
11586SOL    HW143536  12.280   9.096   6.087 -0.4786  1.3472 -0.8751
11586SOL    HW243537  12.263   9.216   6.178 -1.0474 -0.5575  1.6480
11587SOL     OW43538  11.046   4.580  10.109  0.0051  0.4227 -0.3994
11587SOL    HW143539  11.082   4.494  10.087 -1.5638  0.0208 -1.5937
11587SOL    HW243540  10.994   4.604  10.032 -2.2109  0.9864  1.1837
11588SOL     OW43541  10.398  11.984   4.579  0.1172 -0.2749  0.2206
11588SOL    HW143542  10.307  11.978   4.551  0.0399  0.1723  0.3754
11588SOL    HW243543  10.432  11.895   4.570 -0.3022 -0.4178  0.0551
11589SOL     OW43544   4.049   2.361   7.586  0.1249  0.3014  0.2298
11589SOL    HW143545   3.967   2.350   7.538  0.5070 -0.1393 -0.3434
11589SOL    HW243546   4.108   2.403   7.523  0.5367  0.0111  0.4196
11590SOL     OW43547   4.604   9.271  10.430  0.5053 -0.1441 -0.1153
11590SOL    HW143548   4.681   9.286  10.374  0.6091  0.6304  0.2271
11590SOL    HW243549   4.542   9.226  10.372  0.9368 -0.1350 -0.6034
11591SOL     OW43550   1.772   3.143  11.664 -0.5635  0.5100  0.0329
11591SOL    HW143551   1.825   3.097  11.598  0.3001  1.9320 -0.3082
11591SOL    HW243552   1.765   3.232  11.630 -1.3888  0.8782  1.1412
11592SOL     OW43553  11.672   8.366   3.585 -0.0532  0.1862  0.5465
11592SOL    HW143554  11.717   8.426   3.526 -2.0985  0.7241 -0.5771
11592SOL    HW243555  11.682   8.405   3.671 -0.6337  1.7465 -0.0516
11593SOL     OW43556   5.250   9.750  10.752  0.2441 -0.6188  0.5574
11593SOL    HW143557   5.168   9.762  10.704  0.1842  1.9339  1.1834
11593SOL    HW243558   5.222   9.727  10.841  0.2764 -1.3331  0.3922
11594SOL     OW43559   8.424   6.170   9.385 -0.0784 -0.1363 -0.4527
11594SOL    HW143560   8.414   6.076   9.401  1.9884 -0.4262 -0.5679
11594SOL    HW243561   8.445   6.207   9.470  0.0253  0.0659 -0.5651
11595SOL     OW43562   9.334   2.898   8.892 -0.0541  0.2370 -0.5874
11595SOL    HW143563   9.394   2.971   8.884  1.5255 -0.7172  1.4671
11595SOL    HW243564   9.350   2.844   8.815  1.5410  0.1863 -0.2588
11596SOL     OW43565   5.310  11.209   5.672 -0.0779 -0.0574  0.3254
11596SOL    HW143566   5.296  11.303   5.682 -1.9956 -0.3866  1.2110
11596SOL    HW243567   5.243  11.169   5.728  0.5654 -1.9503 -0.1912
11597SOL     OW43568   7.106  12.401   8.263 -0.0735  0.2894  0.0333
11597SOL    HW143569   7.107  12.474   8.325 -0.3062  0.3669 -0.0530
11597SOL    HW243570   7.183  12.350   8.286 -0.0638  0.4099  0.2797
11598SOL     OW43571   6.263   1.736   7.165 -0.1377 -0.7726 -0.2071
11598SOL    HW143572   6.321   1.688   7.224  0.3781  0.6728  0.5111
11598SOL    HW243573   6.321   1.770   7.096  0.0093  1.1193  0.7976
11599SOL     OW43574   3.769   3.540  11.591  0.2844  0.1396  1.0502
11599SOL    HW143575   3.756   3.497  11.506  1.0191 -0.1574  1.0835
11599SOL    HW243576   3.752   3.632  11.574 -0.8587 -0.0797  0.8729
11600SOL     OW43577   9.419   5.412   1.273 -0.3700 -0.2527 -0.2791
11600SOL    HW143578   9.484   5.363   1.324  0.5023  0.8168 -0.3334
11600SOL    HW243579   9.379   5.346   1.216 -0.0369 -1.1130  0.4563
11601SOL     OW43580   7.415   2.936   1.410  0.4023  0.0863  0.1902
11601SOL    HW143581   7.353   2.910   1.342  0.9251 -0.0542 -0.2395
11601SOL    HW243582   7.491   2.970   1.362  0.8173 -0.1033  0.7014
11602SOL     OW43583  12.516   3.827  12.501 -0.4281  0.2708 -0.3484
11602SOL    HW143584  12.572   3.813  12.424  0.9838 -1.0297  0.8628
11602SOL    HW243585  12.494   3.739  12.531 -0.9308  0.7595  0.7615
11603SOL     OW43586   3.273   9.684   0.498  0.3542 -0.2476 -0.7476
11603SOL    HW143587   3.307   9.607   0.454 -0.5916 -0.1947 -1.6117
11603SOL    HW243588   3.201   9.713   0.443 -0.7871 -0.0952  0.7480
11604SOL     OW43589  11.001  11.444   9.535  0.1657 -0.0138  0.6365
11604SOL    HW143590  11.011  11.483   9.449 -1.1623  0.5276  0.7044
11604SOL    HW243591  10.987  11.351   9.518 -1.3697  0.2804  0.1626
11605SOL     OW43592   6.643   3.656   2.642  0.5887 -0.0088  0.3642
11605SOL    HW143593   6.639   3.747   2.671  0.0254  0.2129 -0.3874
11605SOL    HW243594   6.634   3.661   2.547  0.7870 -0.8360  0.2955
11606SOL     OW43595  10.663   6.183   3.525  0.4983  0.3607 -0.4365
11606SOL    HW143596  10.709   6.117   3.472 -1.5092 -0.7691 -0.8615
11606SOL    HW243597  10.577   6.191   3.485 -0.1742  1.3993  1.1160
11607SOL     OW43598   7.251   8.941  10.235  0.2317 -0.3873 -0.0722
11607SOL    HW143599   7.258   8.846  10.223 -1.1182 -0.4787 -0.3444
11607SOL    HW243600   7.275   8.977  10.150 -0.3774 -0.5552 -0.3210
11608SOL     OW43601  11.639   8.340   2.194  0.4850  0.1393 -0.1545
11608SOL    HW143602  11.708   8.274   2.189  1.6679  1.3307  0.0515
11608SOL    HW243603  11.683   8.423   2.176 -1.1910  0.7690 -1.6727
11609SOL     OW43604   9.932   7.441   3.773  0.0175  0.7060  0.1103
11609SOL    HW143605   9.912   7.404   3.859 -2.3662  1.1834 -0.1843
11609SOL    HW243606   9.877   7.519   3.767  0.0857  0.6480 -1.8614
11610SOL     OW43607   6.211   3.489   0.274  0.2291 -0.5889 -0.1377
11610SOL    HW143608   6.185   3.575   0.241 -1.3619 -0.9572  0.1120
11610SOL    HW243609   6.142   3.465   0.335  0.8815 -1.8727  0.1178
11611SOL     OW43610  12.488  12.053   6.191  0.0644 -0.2873 -0.2556
11611SOL    HW143611  12.574  12.011   6.186  0.3643  0.4746 -1.9574
11611SOL    HW243612  12.429  11.992   6.146  0.0831  0.0674 -0.7678
11612SOL     OW43613   7.633   3.737   1.130  0.2538 -0.0474  0.0653
11612SOL    HW143614   7.589   3.757   1.047  0.6286  0.5166  0.0006
11612SOL    HW243615   7.672   3.820   1.157 -0.3488 -0.0856  1.1031
11613SOL     OW43616   0.245   9.889   3.608 -0.0189 -0.6162 -0.0096
11613SOL    HW143617   0.334   9.918   3.589 -0.2871 -0.0398 -0.4001
11613SOL    HW243618   0.238   9.896   3.704 -0.4517  1.7934 -0.1520
11614SOL     OW43619  10.232   6.281   8.983  0.0166 -0.2482 -0.1629
11614SOL    HW143620  10.212   6.199   8.938  1.9105 -1.7328  1.4733
11614SOL    HW243621  10.196   6.270   9.071  2.0743 -0.2833  0.7456
11615SOL     OW43622  10.816   5.106  12.556  0.6650 -0.3110 -0.0948
11615SOL    HW143623  10.742   5.048  12.540  1.0939 -0.4415 -1.8332
11615SOL    HW243624  10.863   5.066  12.629  0.6011 -1.8145 -0.8411
11616SOL     OW43625   0.276   6.353   2.067  0.2994 -0.1156 -0.2613
11616SOL    HW143626   0.216   6.352   2.141  1.2854  0.5296  0.5790
11616SOL    HW243627   0.220   6.350   1.990 -0.7668 -0.3148  0.5127
11617SOL     OW43628   1.051   0.287   8.673  0.0500 -0.0336 -0.2715
11617SOL    HW143629   0.974   0.280   8.729 -0.2376 -1.8001 -0.8503
11617SOL    HW243630   1.073   0.197   8.649  1.6059  0.5098 -1.0640
11618SOL     OW43631   0.681   7.005   2.226  0.5312 -0.0229  0.4530
11618SOL    HW143632   0.735   6.930   2.251  3.0412  2.0254  1.6314
11618SOL    HW243633   0.715   7.077   2.279 -2.1148  1.8660 -0.2327
11619SOL     OW43634   3.406   6.010   2.161  0.1588 -0.3902 -0.2055
11619SOL    HW143635   3.318   5.972   2.156  1.3582 -3.3723 -1.0410
11619SOL    HW243636   3.420   6.048   2.074  0.1703 -1.1339 -0.5355
11620SOL     OW43637  10.235   1.725   5.244 -0.3915  0.4733  0.2636
11620SOL    HW143638  10.324   1.743   5.214  0.1661 -2.3296  0.0109
11620SOL    HW243639  10.180   1.744   5.168  0.3849 -0.9427 -0.6965
11621SOL     OW43640  12.378   9.207  11.414  0.2489  0.6088  0.6570
11621SOL    HW143641  12.354   9.279  11.472 -1.4313  1.1989 -0.6949
11621SOL    HW243642  12.318   9.136  11.437  0.9974  0.0955  1.0618
11622SOL     OW43643   0.251   1.156   1.076  0.2295  0.1097 -0.3848
11622SOL    HW143644   0.232   1.099   1.002 -0.3258  0.6738 -0.6841
11622SOL    HW243645   0.337   1.127   1.107  1.2285  0.9391 -2.2646
11623SOL     OW43646   3.721  10.017   1.015  0.4951 -0.2027  0.0346
11623SOL    HW143647   3.646   9.968   0.981 -0.0492  0.2585  0.5512
11623SOL    HW243648   3.796   9.981   0.968  0.2104 -2.0329  0.8806
11624SOL     OW43649   9.715   2.091   1.923  0.3928  0.2563 -0.2493
11624SOL    HW143650   9.779   2.155   1.893  1.1026  0.2023  1.0766
11624SOL    HW243651   9.659   2.138   1.985  0.4744 -0.2166  0.1952
11625SOL     OW43652   2.846   9.547   5.129  0.5095  0.4812  0.1025
11625SOL    HW143653   2.890   9.630   5.111  0.3011  0.5218 -0.2494
11625SOL    HW243654   2.756   9.561   5.098  0.2204  0.4390  0.9201
11626SOL     OW43655   6.937   2.489  11.437  0.2540  0.4708 -0.2012
11626SOL    HW143656   6.976   2.402  11.452 -1.7579 -0.1560  2.1610
11626SOL    HW243657   6.991   2.528  11.369  1.8669 -2.2365 -0.6366
11627SOL     OW43658  11.362   7.298   5.798  0.0388 -0.2505 -0.3288
11627SOL    HW143659  11.428   7.241   5.758  0.6224  0.3030 -0.1761
11627SOL    HW243660  11.278   7.260   5.773  0.3738  0.1156 -2.1248
11628SOL     OW43661   3.980   9.521   3.866  0.2866  0.4536  0.4956
11628SOL    HW143662   4.053   9.468   3.900  0.3500  0.1158 -0.1585
11628SOL    HW243663   3.966   9.588   3.933  1.0016  0.3349  0.7720
11629SOL     OW43664  11.635   7.564  10.091 -0.5800  0.0061 -0.2185
11629SOL    HW143665  11.668   7.490  10.142  1.0554 -0.6117 -2.0319
11629SOL    HW243666  11.697   7.573  10.019 -1.0466  2.8241 -0.3949
11630SOL     OW43667   8.746   3.488   9.813  0.0410  0.2486  0.3253
11630SOL    HW143668   8.660   3.445   9.807 -0.2595  0.9949 -1.1795
11630SOL    HW243669   8.809   3.416   9.814 -0.5152 -0.2806 -0.8079
11631SOL     OW43670   4.981   8.693   2.232 -0.2299 -0.7089 -0.5188
11631SOL    HW143671   4.890   8.662   2.230 -0.3660 -0.4205  0.4975
11631SOL    HW243672   4.975   8.786   2.208 -0.2505 -0.6031 -0.1120
11632SOL     OW43673   8.920   7.318   3.454 -0.1894 -0.0987 -0.1978
11632SOL    HW143674   8.849   7.372   3.418  0.4682  0.5713 -0.5244
11632SOL    HW243675   8.897   7.307   3.546 -1.2755 -0.8142 -0.5427
11633SOL     OW43676   5.407   8.770  12.213  0.6023  0.1631 -0.0939
11633SOL    HW143677   5.346   8.823  12.162  1.3336  0.7707 -0.3539
11633SOL    HW243678   5.461   8.725  12.148 -0.3476 -1.3397  0.1084
11634SOL     OW43679   5.446   6.562   9.478  0.5076 -0.7692  0.5009
11634SOL    HW143680   5.385   6.541   9.548 -0.5969  0.3116 -0.0863
11634SOL    HW243681   5.474   6.652   9.497 -0.5910 -0.0757 -0.9326
11635SOL     OW43682  12.192   4.790   8.742 -0.2042 -0.9240 -0.6554
11635SOL    HW143683  12.098   4.788   8.762 -0.5241  3.7075 -0.5242
11635SOL    HW243684  12.235   4.801   8.827 -0.0812  1.5937 -0.9588
11636SOL     OW43685   3.266  11.817   1.477 -0.1635 -0.3330 -0.1803
11636SOL    HW143686   3.218  11.809   1.395 -0.5074  0.7396 -0.0949
11636SOL    HW243687   3.310  11.732   1.487 -1.1877 -0.9558 -0.7848
11637SOL     OW43688   5.712   9.354   3.305  0.1593  0.4736 -0.3861
11637SOL    HW143689   5.673   9.266   3.300  0.9776  0.1306 -1.0342
11637SOL    HW243690   5.788   9.343   3.362 -0.1429  0.9255  0.1048
11638SOL     OW43691   9.815   9.183   7.908 -0.7319  0.2473 -0.2758
11638SOL    HW143692   9.825   9.238   7.986 -1.3903  0.5797 -0.4204
11638SOL    HW243693   9.739   9.220   7.862 -2.8353 -2.2907  0.9250
11639SOL     OW43694  12.042   6.369   0.806  0.4076 -0.2717  0.5257
11639SOL    HW143695  12.100   6.298   0.834  1.0912  0.0322 -0.0925
11639SOL    HW243696  12.093   6.418   0.742 -0.5814 -0.0630 -0.1288
11640SOL     OW43697   7.572  12.014   8.711  0.1080 -0.1693  0.8402
11640SOL    HW143698   7.595  12.104   8.688 -1.1472 -0.3127 -1.2619
11640SOL    HW243699   7.509  12.023   8.783  0.8790  0.5597  1.4318
11641SOL     OW43700   8.008  11.108   9.651  0.3648 -0.2032  0.9699
11641SOL    HW143701   7.998  11.038   9.587 -0.8674 -0.2515  1.1874
11641SOL    HW243702   8.058  11.176   9.606 -0.1381 -0.4009  0.0900
11642SOL     OW43703   0.269   5.197  11.643 -0.3354 -0.0276  0.0387
11642SOL    HW143704   0.307   5.235  11.722  0.8187  0.8108 -0.8875
11642SOL    HW243705   0.246   5.107  11.668 -3.0908  1.1200  2.2822
11643SOL     OW43706   1.904   4.852   8.050 -0.0215  0.7162 -0.4235
11643SOL    HW143707   1.815   4.818   8.063  0.2770  0.1089  0.0789
11643SOL    HW243708   1.958   4.802   8.111  0.6233  1.2886 -0.5151
11644SOL     OW43709   6.126   2.531   8.564 -0.3110  0.4394 -0.0220
11644SOL    HW143710   6.076   2.608   8.590 -0.5378 -0.1487  1.3698
11644SOL    HW243711   6.217   2.559   8.566 -0.4706  1.2168 -1.5380
11645SOL     OW43712   6.037   1.675   8.169  0.0506 -0.0092 -0.0799
11645SOL    HW143713   6.116   1.701   8.216  0.0820  1.1795 -0.7497
11645SOL    HW243714   5.976   1.648   8.238  0.3866  0.8807  0.5848
11646SOL     OW43715   2.138   6.149  10.831  0.4448  0.0361  0.2311
11646SOL    HW143716   2.179   6.076  10.879 -1.4549 -0.6239  0.9510
11646SOL    HW243717   2.176   6.144  10.744 -0.0924 -2.2953  0.0465
11647SOL     OW43718   7.151   7.650   3.669 -0.4783  0.1058  0.0083
11647SOL    HW143719   7.232   7.688   3.633 -1.5576  1.4118 -1.1406
11647SOL    HW243720   7.146   7.563   3.631  0.1377  0.1999 -0.3050
11648SOL     OW43721   0.383   1.451   3.786  0.5286 -0.1695 -0.3127
11648SOL    HW143722   0.410   1.394   3.858  0.5735 -0.2235 -0.3719
11648SOL    HW243723   0.328   1.518   3.827 -0.9307 -1.2181 -0.4806
11649SOL     OW43724   7.954   1.378   4.669 -0.1750  0.3243  0.2003
11649SOL    HW143725   7.923   1.388   4.579  1.1208  1.3392 -0.1684
11649SOL    HW243726   7.932   1.460   4.712  0.3660  0.3529  0.4349
11650SOL     OW43727  10.529   6.525  11.968  0.2849 -0.2371 -0.1994
11650SOL    HW143728  10.616   6.551  12.000  0.0021 -0.0156  0.4066
11650SOL    HW243729  10.484   6.493  12.046  0.6042 -2.5795 -0.8903
11651SOL     OW43730   5.744   8.864   9.308  0.0869  0.1384  0.4270
11651SOL    HW143731   5.728   8.868   9.213 -1.7113 -0.2385  0.6717
11651SOL    HW243732   5.728   8.772   9.331 -3.7028  0.9362  1.6804
11652SOL     OW43733   1.754   2.312   5.342 -0.0289 -0.1705  0.7444
11652SOL    HW143734   1.710   2.363   5.411 -0.0202 -1.0241  1.3908
11652SOL    HW243735   1.691   2.244   5.319  0.9040 -1.3855  1.6487
11653SOL     OW43736   7.321   6.940   0.440 -0.1969  0.0615 -0.1900
11653SOL    HW143737   7.262   7.000   0.394 -1.2685 -2.0369 -1.7602
11653SOL    HW243738   7.395   6.930   0.380  0.2532  0.2481  0.3302
11654SOL     OW43739   4.515   9.712   9.440 -0.3529  0.6394  0.0768
11654SOL    HW143740   4.427   9.733   9.409 -0.6380  0.4488  0.7386
11654SOL    HW243741   4.538   9.785   9.498  0.2967  1.1470 -0.7964
11655SOL     OW43742  10.080  12.074   2.383 -0.3653 -0.7099 -0.2078
11655SOL    HW143743  10.025  12.083   2.461  0.0751 -0.3474  0.0642
11655SOL    HW243744  10.159  12.124   2.404  0.6365 -2.2993 -0.0857
11656SOL     OW43745   2.907   9.393   4.133  0.3745 -0.1547  0.6113
11656SOL    HW143746   2.853   9.428   4.204  0.9566  2.8537 -0.2744
11656SOL    HW243747   2.949   9.470   4.095  2.2528 -1.9534 -1.2446
11657SOL     OW43748   3.378   7.015   1.998 -0.7064 -0.0288  0.2226
11657SOL    HW143749   3.345   7.050   2.080 -0.7146  0.5887 -0.0411
11657SOL    HW243750   3.303   6.972   1.958 -0.6248 -0.6090  0.6818
11658SOL     OW43751   6.451  12.020   6.772  0.5870 -0.2412  0.0991
11658SOL    HW143752   6.464  11.961   6.846  1.2561 -1.2226 -0.7729
11658SOL    HW243753   6.405  11.968   6.707 -0.3986  0.7511 -0.0168
11659SOL     OW43754   8.542   4.966   2.572 -0.0490 -0.2423 -0.0577
11659SOL    HW143755   8.635   4.949   2.561  0.0160 -0.5611  0.9056
11659SOL    HW243756   8.505   4.881   2.598 -0.3395  0.2073  1.0756
11660SOL     OW43757   1.411  11.463   6.618 -0.4157 -0.2662 -0.5795
11660SOL    HW143758   1.404  11.392   6.682 -0.6450  0.7046  0.5312
11660SOL    HW243759   1.494  11.448   6.573  0.4275 -0.2533  0.9029
11661SOL     OW43760   8.276   2.640  10.613 -0.4986 -0.0332  0.1571
11661SOL    HW143761   8.225   2.676  10.541  0.6574  0.3911 -0.4722
11661SOL    HW243762   8.241   2.683  10.691 -2.3141 -1.0948 -0.0052
11662SOL     OW43763   7.899   0.086   9.680  0.6264 -0.3458  0.0181
11662SOL    HW143764   7.898   0.136   9.599 -1.7884 -0.0813  0.1294
11662SOL    HW243765   7.988   0.095   9.713  0.9800  1.6338 -1.3189
11663SOL     OW43766  11.659  11.288   5.095 -0.1816 -0.4138  0.0611
11663SOL    HW143767  11.730  11.315   5.154 -0.9850  0.1884  0.7797
11663SOL    HW243768  11.595  11.246   5.152 -1.5615  1.3058 -0.1362
11664SOL     OW43769  12.442   6.534  10.637 -0.7619 -0.1141  0.5335
11664SOL    HW143770  12.514   6.515  10.697 -0.4235 -1.9542 -0.4056
11664SOL    HW243771  12.460   6.623  10.606 -0.2518  0.3757  2.1327
11665SOL     OW43772   6.905   0.060  10.190 -0.4968  0.3964  0.2310
11665SOL    HW143773   6.947   0.103  10.265  0.1177  0.3824 -0.0980
11665SOL    HW243774   6.820   0.031  10.223 -0.2973  0.5381  0.8758
11666SOL     OW43775   7.603   9.248   6.115 -0.5160  0.1687  0.0945
11666SOL    HW143776   7.528   9.229   6.060 -0.2781  1.6825 -0.8024
11666SOL    HW243777   7.644   9.325   6.075  1.2050 -0.2941  0.8567
11667SOL     OW43778   6.155   2.785   4.787 -0.0711 -0.5275 -0.0514
11667SOL    HW143779   6.067   2.756   4.764 -0.1131  0.1166 -0.7238
11667SOL    HW243780   6.161   2.768   4.881  0.2146 -3.4360 -0.5215
11668SOL     OW43781   6.577  10.675   5.593 -0.5036  0.9392  0.0922
11668SOL    HW143782   6.626  10.616   5.651  1.6694  0.7582 -1.7797
11668SOL    HW243783   6.507  10.620   5.558 -1.1793  0.7528  1.6208
11669SOL     OW43784   9.838   9.895   0.812  0.2262  0.2455  0.0305
11669SOL    HW143785   9.894   9.847   0.873 -0.9216 -0.9218  0.2144
11669SOL    HW243786   9.893   9.966   0.779  1.4496 -0.2123  1.0183
11670SOL     OW43787   3.551   7.241   8.322 -0.0316 -0.1203 -0.0037
11670SOL    HW143788   3.588   7.163   8.280 -0.2836  0.4352 -1.2876
11670SOL    HW243789   3.564   7.311   8.258  0.1907  0.9049  1.1335
11671SOL     OW43790   2.831   7.975   4.191 -0.4351 -0.1531 -0.5062
11671SOL    HW143791   2.833   7.879   4.184  0.1904 -0.1435 -0.5946
11671SOL    HW243792   2.903   8.004   4.134  1.4972  0.1949  1.9266
11672SOL     OW43793   0.526   4.385   8.174 -0.9426  0.0801  0.3236
11672SOL    HW143794   0.490   4.408   8.260  0.1921 -0.4760  0.9680
11672SOL    HW243795   0.489   4.300   8.154  0.5699 -0.8871  1.3750
11673SOL     OW43796   3.732   6.308   9.978 -0.1551  0.0595  0.1986
11673SOL    HW143797   3.652   6.351  10.007 -0.5812 -1.9942  2.3646
11673SOL    HW243798   3.702   6.227   9.936  0.7379 -0.7643  1.0971
11674SOL     OW43799   8.151   1.663  11.879 -0.1227  0.6696  0.4096
11674SOL    HW143800   8.173   1.686  11.969 -1.4358  1.7535  0.4890
11674SOL    HW243801   8.064   1.622  11.884  1.1777 -2.4517 -0.0107
11675SOL     OW43802  11.610   1.803  11.078 -0.5737  0.4403 -0.5641
11675SOL    HW143803  11.591   1.871  11.013  0.2707  0.6878 -0.5774
11675SOL    HW243804  11.526   1.763  11.098 -0.7710 -0.0950 -2.3093
11676SOL     OW43805   4.757   3.658   8.938  0.2510 -0.2220  0.4348
11676SOL    HW143806   4.830   3.643   8.998 -1.2222  0.3724  2.5111
11676SOL    HW243807   4.758   3.753   8.922  0.5804 -0.3642 -0.4374
11677SOL     OW43808  10.191  10.174  11.401 -0.1176 -0.3051 -0.3512
11677SOL    HW143809  10.220  10.262  11.375  1.6366 -0.4392  0.9976
11677SOL    HW243810  10.182  10.178  11.496  0.6282 -1.7531 -0.1910
11678SOL     OW43811   2.167   8.387   2.416  0.0920  0.0726 -0.0099
11678SOL    HW143812   2.233   8.407   2.482 -0.0532  0.7351 -0.0596
11678SOL    HW243813   2.175   8.456   2.351  0.8307 -1.0521 -1.1614
11679SOL     OW43814   7.163   9.286   2.003 -0.8125  0.5741 -0.2775
11679SOL    HW143815   7.248   9.265   1.965 -0.2490  1.8116  0.2379
11679SOL    HW243816   7.105   9.296   1.927 -0.7836 -1.3187 -0.5896
11680SOL     OW43817   4.771   9.033   1.194 -0.2404  0.1189 -0.4568
11680SOL    HW143818   4.720   9.107   1.162  2.9100  1.8898 -1.9527
11680SOL    HW243819   4.758   8.965   1.128 -1.4362  0.1136 -0.2385
11681SOL     OW43820   4.818   9.546   6.854  0.3782 -0.0262 -0.2990
11681SOL    HW143821   4.814   9.638   6.882 -1.6842 -0.7830  2.3444
11681SOL    HW243822   4.752   9.540   6.784 -0.2454  0.3027  0.2491
11682SOL     OW43823   6.001   7.443   1.170 -0.5198 -0.4208  0.0508
11682SOL    HW143824   5.924   7.421   1.224 -0.4809 -0.4976  0.0744
11682SOL    HW243825   6.000   7.539   1.166 -0.5335 -0.4152  0.1729
11683SOL     OW43826   2.610   1.762   6.470  0.5535  0.4918  0.3204
11683SOL    HW143827   2.612   1.698   6.541 -1.5181  0.8665  0.7803
11683SOL    HW243828   2.648   1.715   6.395 -0.2873 -1.0588  0.8108
11684SOL     OW43829   4.585  10.085  11.870  0.6139  0.4326 -0.1812
11684SOL    HW143830   4.545  10.059  11.952  2.7867 -1.2376  0.4290
11684SOL    HW243831   4.610  10.177  11.883 -0.8771  0.8048  0.2235
11685SOL     OW43832   4.328   6.689   3.872  0.4448  0.0940 -0.0732
11685SOL    HW143833   4.378   6.725   3.800  0.0980  0.8526  0.0491
11685SOL    HW243834   4.257   6.640   3.830  1.0853 -0.7118 -0.2420
11686SOL     OW43835  12.070   0.166   9.439 -0.0833 -0.3189  0.9544
11686SOL    HW143836  12.020   0.223   9.380 -2.5880 -2.9708  0.2418
11686SOL    HW243837  12.080   0.084   9.389  2.2669 -0.9601  2.3403
11687SOL     OW43838  10.489   9.549   2.583  0.0351 -0.0949 -0.0024
11687SOL    HW143839  10.557   9.526   2.646 -0.3135 -0.7745  0.1344
11687SOL    HW243840  10.456   9.634   2.612  1.9869  1.0918 -1.0529
11688SOL     OW43841   7.673   3.770   0.639 -0.1747  0.1065 -0.1796
11688SOL    HW143842   7.579   3.790   0.631 -0.0324  1.1188  0.5126
11688SOL    HW243843   7.680   3.680   0.607 -1.8418 -1.0055  2.2392
11689SOL     OW43844  11.361   6.882   5.673 -0.1763  0.3026 -0.4345
11689SOL    HW143845  11.388   6.793   5.651  0.5952  0.4317 -0.0389
11689SOL    HW243846  11.292   6.903   5.610  0.3050 -0.2262 -1.1427
11690SOL     OW43847  12.333   0.249  11.127 -0.3346  0.0383 -0.1297
11690SOL    HW143848  12.341   0.272  11.035  2.4590  1.0889  0.2883
11690SOL    HW243849  12.323   0.332  11.172 -0.7262 -0.3895  0.5897
11691SOL     OW43850   2.611   4.588   1.509 -0.7215 -0.3042 -0.6409
11691SOL    HW143851   2.549   4.529   1.551 -0.6366  0.4900  0.6728
11691SOL    HW243852   2.664   4.623   1.581  0.5444 -0.1436 -1.6062
11692SOL     OW43853   7.939  10.576   0.056 -0.3509 -0.2665  0.0762
11692SOL    HW143854   7.873  10.506   0.047 -1.5960  0.8046  0.5837
11692SOL    HW243855   7.996  10.564  -0.019 -0.8898 -1.4669 -0.1763
11693SOL     OW43856   3.627   9.601   7.231 -0.5693 -0.2964  0.5017
11693SOL    HW143857   3.593   9.681   7.272  2.0213  1.1197  0.0975
11693SOL    HW243858   3.553   9.541   7.230 -2.1527  1.4917  2.3917
11694SOL     OW43859   1.460  11.231   2.533  0.5869 -0.6733 -0.3261
11694SOL    HW143860   1.459  11.254   2.626 -0.2182 -1.2008 -0.1839
11694SOL    HW243861   1.446  11.314   2.488  0.2196 -0.5162  0.0611
11695SOL     OW43862   0.948  10.770  10.406  0.1596  0.8075 -0.3613
11695SOL    HW143863   0.983  10.706  10.468 -1.6651 -0.8693 -0.9346
11695SOL    HW243864   1.000  10.756  10.326 -0.7511 -0.6274 -0.7495
11696SOL     OW43865   2.240   8.703  10.540 -0.0257  0.2901 -0.4031
11696SOL    HW143866   2.208   8.695  10.450  0.7408 -2.8420 -0.4795
11696SOL    HW243867   2.194   8.635  10.589  2.6184 -0.9487  0.5867
11697SOL     OW43868  12.160  11.881  10.580 -0.0035  0.7438  0.3463
11697SOL    HW143869  12.236  11.905  10.634  0.0790 -3.6363  2.6469
11697SOL    HW243870  12.085  11.892  10.639 -0.3755 -0.5083  0.1368
11698SOL     OW43871   6.039  11.191   1.050 -0.0017 -0.4660 -0.4965
11698SOL    HW143872   6.074  11.122   0.994  0.9074 -1.8833  1.6886
11698SOL    HW243873   5.944  11.181   1.044  0.1098 -1.7130 -0.4654
11699SOL     OW43874   2.461   7.317   7.761  0.5341 -0.4339 -0.1885
11699SOL    HW143875   2.472   7.377   7.687 -0.2516 -0.1748 -0.1081
11699SOL    HW243876   2.434   7.234   7.722  0.0514 -0.2773 -0.1904
11700SOL     OW43877   1.594  10.055  11.044 -0.1285 -0.1915  0.0796
11700SOL    HW143878   1.600  10.149  11.027  3.2869 -0.4892 -1.0639
11700SOL    HW243879   1.607  10.048  11.139 -2.0893  0.5221  0.4413
11701SOL     OW43880   1.536  10.863   0.977  0.3351  0.8779 -0.2358
11701SOL    HW143881   1.459  10.818   1.011 -0.6656  3.1215  0.6314
11701SOL    HW243882   1.605  10.844   1.040 -0.5969  2.0903  1.2231
11702SOL     OW43883   3.041  12.256   8.359 -0.1414  0.2430 -0.3181
11702SOL    HW143884   2.946  12.253   8.346 -0.4556 -0.9630  1.8374
11702SOL    HW243885   3.060  12.349   8.372 -0.8011  0.6499 -2.0234
11703SOL     OW43886   3.760   5.861   0.012  0.4137 -0.1007  0.2499
11703SOL    HW143887   3.690   5.813   0.054 -2.3060  1.3393 -2.2591
11703SOL    HW243888   3.780   5.933   0.073  0.0571 -0.7889  1.1966
11704SOL     OW43889   4.723   3.245   6.589  0.0095 -0.1728 -0.5352
11704SOL    HW143890   4.693   3.307   6.523 -0.5705 -0.2567 -0.3505
11704SOL    HW243891   4.817   3.263   6.597 -0.0887  0.4437 -0.7278
11705SOL     OW43892   3.987   2.806   7.172 -0.7961 -0.5746  0.2866
11705SOL    HW143893   4.052   2.740   7.145 -1.5168 -2.2330  2.3791
11705SOL    HW243894   3.903   2.761   7.166 -1.4125  0.4592  0.8757
11706SOL     OW43895  11.484   5.743  12.313 -0.0621  0.6668 -0.2983
11706SOL    HW143896  11.451   5.684  12.380  0.4226  1.1063  0.3503
11706SOL    HW243897  11.411   5.756  12.253 -0.0795 -0.8156 -0.6313
11707SOL     OW43898   7.258   0.298  10.964  0.3408  0.1179  0.0683
11707SOL    HW143899   7.245   0.392  10.980 -1.2481 -0.0674 -0.0074
11707SOL    HW243900   7.268   0.291  10.869  2.7693  0.4230  0.2266
11708SOL     OW43901   3.037   1.564   2.394  0.2897  0.3112 -0.1732
11708SOL    HW143902   3.133   1.568   2.388  0.3390  0.2370  0.4539
11708SOL    HW243903   3.016   1.615   2.472 -0.2105  0.5917 -0.4840
11709SOL     OW43904  12.367   4.752   9.371  0.2904  0.4378 -0.0392
11709SOL    HW143905  12.324   4.767   9.456 -0.5540 -1.9715  0.0387
11709SOL    HW243906  12.419   4.673   9.385  0.2465  0.0847 -1.7365
11710SOL     OW43907   0.805  11.543  12.395  0.1064  0.0225 -0.5277
11710SOL    HW143908   0.780  11.460  12.435 -0.6825  0.4211 -0.1718
11710SOL    HW243909   0.843  11.594  12.466 -1.0780  0.6404 -0.3139
11711SOL     OW43910  11.671  11.001   4.870  0.1837 -1.1548 -0.4179
11711SOL    HW143911  11.706  10.949   4.798  0.8588  0.8595 -1.6397
11711SOL    HW243912  11.625  11.073   4.827  0.2391 -0.1257  1.1555
11712SOL     OW43913   9.544   6.897  11.590  0.0039 -0.2587 -0.7635
11712SOL    HW143914   9.546   6.946  11.673 -1.7713 -1.2235 -0.0891
11712SOL    HW243915   9.608   6.827  11.602 -1.3684 -1.3797  0.5156
11713SOL     OW43916   6.687  11.155   1.266  0.1859 -0.0230 -0.1670
11713SOL    HW143917   6.754  11.203   1.216 -1.1254  1.1343 -0.8816
11713SOL    HW243918   6.605  11.174   1.221 -0.7285 -0.9008  1.0584
11714SOL     OW43919  10.499  12.444   5.305 -0.7192  0.2741 -0.5574
11714SOL    HW143920  10.501  12.358   5.262  2.9653  0.6401 -1.4224
11714SOL    HW243921  10.499  12.507   5.234  1.1507  0.9194 -0.0240
11715SOL     OW43922   8.777  10.047   2.331  0.3700 -0.1831  0.2927
11715SOL    HW143923   8.871  10.033   2.332  0.0796 -2.6000  0.6411
11715SOL    HW243924   8.747   9.999   2.253 -0.6176  0.1580  0.4503
11716SOL     OW43925   2.318   9.193   5.466 -0.7985  0.1142 -0.0190
11716SOL    HW143926   2.296   9.177   5.558 -0.3117 -2.0584 -0.2363
11716SOL    HW243927   2.412   9.208   5.466 -0.7222 -0.3773 -0.2280
11717SOL     OW43928   0.785  12.512   1.116 -0.0541  0.7703 -0.3852
11717SOL    HW143929   0.750  12.438   1.165 -1.9393  2.4217  0.9351
11717SOL    HW243930   0.859  12.543   1.169  0.0497  0.4967 -0.3703
11718SOL     OW43931  12.555   0.532   8.299  0.5893  0.2967 -0.0327
11718SOL    HW143932  12.572   0.465   8.232 -1.2939 -0.2244 -0.0662
11718SOL    HW243933  12.598   0.499   8.378 -0.0867 -0.8492 -0.1206
11719SOL     OW43934  10.656  12.361  11.249  0.3750  0.5427  0.4727
11719SOL    HW143935  10.578  12.384  11.299 -0.4978  0.2333 -0.6973
11719SOL    HW243936  10.726  12.356  11.314 -1.1971 -2.5856  2.1747
11720SOL     OW43937   7.350   7.772   9.357 -0.7017  0.6254  0.0840
11720SOL    HW143938   7.337   7.678   9.371  0.0534  0.5394  0.2921
11720SOL    HW243939   7.430   7.792   9.407  0.2361  0.9871 -1.4979
11721SOL     OW43940   9.165   0.237   6.044 -0.6839  0.2409 -0.5130
11721SOL    HW143941   9.241   0.211   5.992 -0.6040  0.2189 -0.3856
11721SOL    HW243942   9.128   0.154   6.075  2.5932  0.1299  4.3523
11722SOL     OW43943   6.158   5.990   5.122 -0.1924 -0.5796  0.0186
11722SOL    HW143944   6.131   5.898   5.118 -3.2371  0.2433 -3.2998
11722SOL    HW243945   6.088   6.034   5.169  0.6203  0.2344  0.4936
11723SOL     OW43946   9.405   5.573   4.303  0.0013  0.3000 -0.0248
11723SOL    HW143947   9.351   5.633   4.252  0.4487  0.5888 -0.1635
11723SOL    HW243948   9.416   5.496   4.247 -0.7438 -0.0057  0.2361
11724SOL     OW43949   9.090   8.328   4.006 -0.4632 -0.2914  0.5309
11724SOL    HW143950   9.118   8.271   3.935 -0.0307 -1.7127  1.7760
11724SOL    HW243951   9.171   8.368   4.038 -0.4503 -0.8016  1.1540
11725SOL     OW43952  10.669   2.950   9.627  0.0429  0.1203  0.4844
11725SOL    HW143953  10.636   3.040   9.636 -0.2496  0.0318  0.2884
11725SOL    HW243954  10.648   2.926   9.537 -1.7117 -0.8807  1.1087
11726SOL     OW43955   0.680   9.674   9.194  0.2287 -0.1305 -0.5535
11726SOL    HW143956   0.697   9.599   9.252 -0.4729  0.5044  0.5017
11726SOL    HW243957   0.589   9.665   9.168 -0.5801  1.5429  1.4321
11727SOL     OW43958   4.489   9.533  10.895  0.4580  0.2795 -0.0144
11727SOL    HW143959   4.519   9.507  10.808  1.9114  1.0533  0.2085
11727SOL    HW243960   4.498   9.454  10.948 -0.0326 -0.0853 -0.4646
11728SOL     OW43961   0.811   3.777   8.119  0.4174  0.1257 -0.1578
11728SOL    HW143962   0.758   3.821   8.052 -1.0407 -0.2021  0.7331
11728SOL    HW243963   0.755   3.776   8.196  1.7078 -0.3507  0.8021
11729SOL     OW43964   2.061  11.020   9.379 -0.3030  0.5405  0.4048
11729SOL    HW143965   2.107  11.022   9.463  0.3545 -0.5028  0.0878
11729SOL    HW243966   2.130  11.025   9.313 -0.7048 -0.0537 -0.0768
11730SOL     OW43967   5.304  10.414  12.319 -0.2773  0.0347 -0.6562
11730SOL    HW143968   5.356  10.339  12.349 -1.5147  0.1030  1.9156
11730SOL    HW243969   5.366  10.467  12.268  1.1383 -1.7355 -0.8751
11731SOL     OW43970   5.886   1.714   6.193  0.4075 -0.6973  0.3970
11731SOL    HW143971   5.976   1.689   6.217 -0.0208 -0.9666  1.7736
11731SOL    HW243972   5.831   1.647   6.232 -0.3171 -1.7216 -2.1756
11732SOL     OW43973   5.742   6.801   7.666  0.1970 -0.1311 -0.7362
11732SOL    HW143974   5.825   6.762   7.693 -1.3581 -3.5545 -0.3424
11732SOL    HW243975   5.707   6.840   7.745  1.7581  2.3131 -1.1220
11733SOL     OW43976   1.656   5.047  10.622 -0.6544  0.4433 -0.1069
11733SOL    HW143977   1.641   5.095  10.703  1.1392  0.9724 -0.0588
11733SOL    HW243978   1.657   4.955  10.648 -0.1699  0.6065  0.4648
11734SOL     OW43979   6.762   3.277   7.741 -0.0250 -0.1976  0.5083
11734SOL    HW143980   6.846   3.235   7.753  0.8284  0.5241 -2.2418
11734SOL    HW243981   6.776   3.368   7.769 -0.5234 -0.5445  1.9745
11735SOL     OW43982   5.194   9.691  11.398 -0.3389  0.3167 -0.2504
11735SOL    HW143983   5.136   9.752  11.443 -0.7158 -0.2446  0.0422
11735SOL    HW243984   5.282   9.717  11.424 -0.4657  1.0219 -0.4983
11736SOL     OW43985   1.064   7.243   1.565  0.3785 -0.4688  0.1570
11736SOL    HW143986   1.114   7.184   1.621  1.2756 -1.3625 -1.5108
11736SOL    HW243987   1.076   7.208   1.476 -2.6787 -0.3581 -0.4213
11737SOL     OW43988   6.973  10.367   3.241  0.4397  0.6357 -0.0856
11737SOL    HW143989   6.878  10.381   3.243 -0.0636 -1.8624 -1.6634
11737SOL    HW243990   6.996  10.342   3.330 -0.7584 -0.5742 -0.0858
11738SOL     OW43991   3.040   7.604  11.331  0.0800 -0.8185 -0.7591
11738SOL    HW143992   3.074   7.694  11.330 -0.4889 -0.5946 -0.3240
11738SOL    HW243993   3.053   7.573  11.242 -0.1112 -0.1546 -1.0238
11739SOL     OW43994   8.021  10.889  11.568  0.3516  0.6157  1.0653
11739SOL    HW143995   7.940  10.846  11.539  0.1858  0.5971  1.5525
11739SOL    HW243996   8.053  10.934  11.490  0.3765 -0.1569  0.6146
11740SOL     OW43997   0.147   3.758   8.929  0.1506 -0.1204  0.3038
11740SOL    HW143998   0.216   3.750   8.864  1.4562  0.5280  1.5611
11740SOL    HW243999   0.191   3.748   9.013 -1.2459  0.5549  1.1658
11741SOL     OW44000   3.591   8.807   9.216  0.3130 -0.4949 -0.0774
11741SOL    HW144001   3.558   8.748   9.284  1.9650 -1.6440 -0.2153
11741SOL    HW244002   3.602   8.751   9.139  0.2965  0.3731 -0.7238
11742SOL     OW44003  12.030   2.231   1.387 -0.1713 -0.1704 -0.6032
11742SOL    HW144004  12.004   2.287   1.460  1.4262  0.2267 -0.3133
11742SOL    HW244005  12.021   2.142   1.421 -1.9090 -0.1199 -0.7961
11743SOL     OW44006  11.982  11.310   0.406  0.1905  0.6547  0.2699
11743SOL    HW144007  11.902  11.358   0.428 -0.6882 -1.1081  1.1640
11743SOL    HW244008  11.973  11.226   0.451  0.0826 -1.7365 -3.7025
11744SOL     OW44009   8.365   7.059   7.939 -0.1440  0.2005  0.4490
11744SOL    HW144010   8.296   7.035   7.878 -0.5820 -0.0099  1.0173
11744SOL    HW244011   8.337   7.143   7.976  0.7984  1.0258 -0.6512
11745SOL     OW44012   7.235   6.963   6.716  0.0678 -0.1729  0.0737
11745SOL    HW144013   7.322   6.957   6.754  0.3957  1.4783 -0.3231
11745SOL    HW244014   7.212   7.055   6.725 -1.1705 -0.3733 -0.8378
11746SOL     OW44015   3.036  11.732   2.798 -0.4413 -0.0764  0.4043
11746SOL    HW144016   3.036  11.732   2.894  0.5944  1.3515  0.4365
11746SOL    HW244017   3.123  11.763   2.774 -0.4125 -1.1660 -1.0231
11747SOL     OW44018   1.516  12.513   9.944 -0.3958 -0.4139  0.0609
11747SOL    HW144019   1.487  12.426   9.973  1.0510 -0.9073  0.0961
11747SOL    HW244020   1.581  12.540  10.010  0.5715 -0.1509 -0.9751
11748SOL     OW44021   9.475   5.431  11.484  0.9487 -0.1706 -0.2374
11748SOL    HW144022   9.548   5.390  11.437  0.8471  0.7087 -1.2082
11748SOL    HW244023   9.456   5.511  11.434 -1.0151 -0.6384 -0.3192
11749SOL     OW44024   6.946   2.936   4.685 -0.5605  0.1404  0.3021
11749SOL    HW144025   6.976   2.946   4.776  0.1820 -1.2014  0.2216
11749SOL    HW244026   6.976   3.017   4.642 -0.7944  0.7301  1.2054
11750SOL     OW44027   3.409   7.479   0.058 -0.3639 -0.2446 -0.0204
11750SOL    HW144028   3.322   7.446   0.081 -0.9310  0.6447 -0.8271
11750SOL    HW244029   3.394   7.534  -0.019  1.1547 -1.4164 -1.2098
11751SOL     OW44030   8.678  11.268   4.091 -0.5748  0.2512  0.0367
11751SOL    HW144031   8.734  11.334   4.133 -1.6646  0.9477  0.4498
11751SOL    HW244032   8.633  11.225   4.164  0.5881 -1.4093 -0.1926
11752SOL     OW44033  12.311   6.862   9.320 -0.0214 -0.3964 -0.4808
11752SOL    HW144034  12.297   6.924   9.249 -2.1595 -2.1421 -1.6840
11752SOL    HW244035  12.403   6.837   9.312  0.4198  1.2972 -1.0326
11753SOL     OW44036   0.951   8.972   4.110  0.2125 -0.1495  0.0933
11753SOL    HW144037   1.047   8.973   4.113  0.2987  0.3102 -1.7509
11753SOL    HW244038   0.930   8.975   4.017 -1.6066 -1.7500  0.4063
11754SOL     OW44039   8.684   5.420   2.184 -0.4450 -0.2816  0.2793
11754SOL    HW144040   8.590   5.429   2.196 -0.5824 -1.0947 -0.0645
11754SOL    HW244041   8.697   5.422   2.089 -0.2156 -0.9423  0.2865
11755SOL     OW44042   2.224   7.498  11.830  0.0949  0.0250  0.1702
11755SOL    HW144043   2.137   7.534  11.817  0.6356  1.1353 -0.5085
11755SOL    HW244044   2.213   7.403  11.820 -0.6844  0.2871 -2.0621
11756SOL     OW44045   9.180   1.980   6.564 -0.2263 -0.4472 -0.3104
11756SOL    HW144046   9.114   2.013   6.504  1.2933  0.8895 -1.3331
11756SOL    HW244047   9.131   1.953   6.642 -2.0026 -0.0472 -1.2496
11757SOL     OW44048   7.880   0.174   6.350  0.0678 -0.1271 -0.3295
11757SOL    HW144049   7.811   0.237   6.369 -1.1057 -1.7249  1.0220
11757SOL    HW244050   7.846   0.090   6.382  2.0499 -1.2376 -0.9311
11758SOL     OW44051   6.467   9.717   2.527  0.1274  0.5209  0.4704
11758SOL    HW144052   6.549   9.767   2.527  0.0790  0.6053  0.2072
11758SOL    HW244053   6.494   9.627   2.546  0.3523  0.4484 -0.1325
11759SOL     OW44054   6.396   9.931   3.660 -0.0886 -0.7456 -0.3806
11759SOL    HW144055   6.351  10.006   3.622  0.2218 -0.2780  0.1553
11759SOL    HW244056   6.484   9.934   3.622  0.6939  0.5574  1.3696
11760SOL     OW44057   8.665   4.529   8.561 -0.4231 -0.3504 -0.2865
11760SOL    HW144058   8.736   4.586   8.532 -0.3822  0.0825  0.6206
11760SOL    HW244059   8.634   4.569   8.642  0.5623 -2.3864  1.1911
11761SOL     OW44060   0.665   1.591   0.211  0.3966  0.4564  0.0751
11761SOL    HW144061   0.605   1.589   0.137 -0.1390  1.7245  0.4420
11761SOL    HW244062   0.638   1.519   0.267 -0.3745  0.6236 -0.0782
11762SOL     OW44063  11.900   6.878  12.201  0.0279  0.3549  0.0588
11762SOL    HW144064  11.942   6.962  12.184  0.2359  0.7240  2.1849
11762SOL    HW244065  11.899   6.834  12.115  1.1191  1.9602 -0.8233
11763SOL     OW44066   8.288   4.759   9.208 -0.2839 -0.0877  0.5174
11763SOL    HW144067   8.325   4.736   9.294  0.8710  0.8724  0.3021
11763SOL    HW244068   8.364   4.780   9.154 -1.1078  1.3438 -0.1354
11764SOL     OW44069   3.293   5.846   1.486  0.0178  0.5716 -0.1557
11764SOL    HW144070   3.264   5.927   1.528 -0.5250 -0.5287  1.6901
11764SOL    HW244071   3.226   5.827   1.421 -0.5189  0.9466  0.2751
11765SOL     OW44072   5.127   5.802   5.364  0.1225 -1.2216  0.3065
11765SOL    HW144073   5.114   5.785   5.458 -0.4878 -0.8508  0.2933
11765SOL    HW244074   5.078   5.732   5.321  0.2329 -1.2711  0.2603
11766SOL     OW44075   8.670   6.950   2.929  0.0563  0.1467 -0.0835
11766SOL    HW144076   8.606   6.963   2.998  0.4272  1.1055  0.0974
11766SOL    HW244077   8.703   7.038   2.910  0.1731 -0.1323 -1.2753
11767SOL     OW44078  12.108   5.714   8.423  0.0915 -0.5760  0.3243
11767SOL    HW144079  12.051   5.637   8.422  0.5017 -0.8841  0.3405
11767SOL    HW244080  12.131   5.728   8.332 -1.0441  0.3286  0.1676
11768SOL     OW44081  11.292   8.254   5.329  0.2384  0.3214 -0.1155
11768SOL    HW144082  11.376   8.276   5.371 -0.0636 -1.4859  1.5748
11768SOL    HW244083  11.231   8.245   5.402 -0.6402 -1.6452 -1.0235
11769SOL     OW44084   2.746   8.004   3.261 -0.2772 -0.2505  0.2734
11769SOL    HW144085   2.719   7.915   3.281 -2.2734  0.2805  0.0816
11769SOL    HW244086   2.713   8.057   3.334  1.7038  0.2543  0.8860
11770SOL     OW44087   1.882   8.013   7.169 -0.0359  0.1051  0.6403
11770SOL    HW144088   1.831   7.972   7.099 -0.4680 -0.6169  1.3744
11770SOL    HW244089   1.964   7.962   7.172 -0.3651 -0.3953  1.2165
11771SOL     OW44090  11.407   8.830  12.009 -0.2460 -0.9614 -0.7652
11771SOL    HW144091  11.495   8.792  12.008 -0.8243 -2.3424 -0.9495
11771SOL    HW244092  11.410   8.895  12.080  1.1827 -0.2824 -1.3972
11772SOL     OW44093   0.557   6.024   6.235  0.1646 -0.3081  0.3275
11772SOL    HW144094   0.643   5.996   6.203 -0.0564 -0.3558 -0.2306
11772SOL    HW244095   0.561   6.119   6.233  0.0659 -0.3103 -0.0855
11773SOL     OW44096   8.277   1.937   2.527  0.1103 -0.4575 -0.5887
11773SOL    HW144097   8.248   1.857   2.571 -0.3493 -1.0547 -1.9029
11773SOL    HW244098   8.272   1.915   2.434  0.4155  0.9646 -0.9568
11774SOL     OW44099   9.698  10.730   9.159  0.3937  0.2282 -0.2505
11774SOL    HW144100   9.751  10.805   9.186  1.7478 -1.0481  0.7589
11774SOL    HW244101   9.706  10.667   9.231 -0.7015 -0.8986 -1.0690
11775SOL     OW44102   7.493   0.372   8.753  0.0469 -0.6399 -0.9447
11775SOL    HW144103   7.541   0.402   8.676  0.0234 -0.2733 -0.8174
11775SOL    HW244104   7.549   0.397   8.827 -1.0734  1.2938 -0.6820
11776SOL     OW44105   7.359   7.093   0.816  0.4940  0.1841  0.0528
11776SOL    HW144106   7.412   7.148   0.873  0.5537  0.7281 -0.5194
11776SOL    HW244107   7.273   7.135   0.814  0.4274  0.0482 -0.0865
11777SOL     OW44108   4.759  11.140   4.577  0.6159  0.0280 -0.2132
11777SOL    HW144109   4.719  11.132   4.491  0.4718 -0.1582 -0.1284
11777SOL    HW244110   4.718  11.071   4.630  1.3032 -0.4011 -0.2267
11778SOL     OW44111   7.349   8.695   0.928  0.1965 -0.1834 -0.7833
11778SOL    HW144112   7.416   8.668   0.865  1.4619 -1.7266  1.1061
11778SOL    HW244113   7.396   8.749   0.991  0.2933 -2.9859  1.7568
11779SOL     OW44114   3.777   2.155  11.273  0.2823  0.0330 -0.0981
11779SOL    HW144115   3.703   2.196  11.319 -0.3517  1.4844 -2.2522
11779SOL    HW244116   3.796   2.215  11.201  3.0673 -0.7390 -0.0977
11780SOL     OW44117   5.587  10.496  11.891  0.4671  0.2759  0.2339
11780SOL    HW144118   5.664  10.440  11.895  0.8381  0.7621 -0.0330
11780SOL    HW244119   5.616  10.574  11.844 -0.6737 -0.3600 -1.6659
11781SOL     OW44120   1.638   9.663   0.577 -0.3567  0.0306 -0.0613
11781SOL    HW144121   1.608   9.745   0.538  0.0262  0.4793  0.5821
11781SOL    HW244122   1.579   9.596   0.540 -1.5042  0.7577  0.3986
11782SOL     OW44123   5.073   3.295   1.374 -0.2869 -0.0521  0.2088
11782SOL    HW144124   4.981   3.317   1.386 -0.3244 -0.2167  0.2287
11782SOL    HW244125   5.120   3.352   1.435 -0.2405  1.1700 -0.9206
11783SOL     OW44126   9.809   8.535   0.757  0.4103 -0.4379 -0.0189
11783SOL    HW144127   9.739   8.511   0.696  0.8115 -2.0539  0.1149
11783SOL    HW244128   9.825   8.456   0.807  1.8240  0.1349  0.4810
11784SOL     OW44129   7.834   6.969   1.147 -0.4806  0.1727 -0.2517
11784SOL    HW144130   7.764   7.006   1.201 -1.3394  0.0775 -1.2700
11784SOL    HW244131   7.840   7.028   1.072  1.0900  0.6258  0.1886
11785SOL     OW44132   3.146   2.471   4.598  0.2286  0.7163 -0.2506
11785SOL    HW144133   3.065   2.499   4.639  0.5501  0.4374  0.5950
11785SOL    HW244134   3.157   2.530   4.524 -0.7468  0.7467 -0.3867
11786SOL     OW44135   1.925   8.474   0.223  0.5695  0.3338  0.2619
11786SOL    HW144136   2.007   8.447   0.264  1.2011 -1.6141 -2.0764
11786SOL    HW244137   1.952   8.532   0.151 -0.0136 -0.7299 -0.8439
11787SOL     OW44138   2.101   8.693   1.839 -0.5143 -0.1728 -0.8397
11787SOL    HW144139   2.152   8.745   1.778 -1.9052  0.3243 -1.6094
11787SOL    HW244140   2.133   8.720   1.925  1.5158 -0.9324 -1.2817
11788SOL     OW44141   4.334   6.898   5.348  0.7663 -0.5569  0.2384
11788SOL    HW144142   4.244   6.869   5.364  0.4745 -0.1829 -0.6473
11788SOL    HW244143   4.389   6.829   5.385  0.0941 -1.7370 -0.8660
11789SOL     OW44144   9.143   5.671   6.247  0.1235 -0.0393  0.5771
11789SOL    HW144145   9.148   5.587   6.294 -2.6990 -0.0492  1.0541
11789SOL    HW244146   9.142   5.646   6.155  1.5254 -0.3381  0.6248
11790SOL     OW44147   9.562   6.272   4.474  0.0628  0.2464  0.1615
11790SOL    HW144148   9.516   6.230   4.547  0.1506  1.7636  1.1273
11790SOL    HW244149   9.499   6.335   4.440  0.7274  0.9387  0.2046
11791SOL     OW44150   6.614   7.403   6.065 -0.0541  0.1755 -0.0918
11791SOL    HW144151   6.611   7.394   5.970  0.6263 -2.1078  0.0562
11791SOL    HW244152   6.530   7.443   6.088 -0.7671 -0.4157 -1.5558
11792SOL     OW44153   6.836  10.508   3.640 -0.0572 -0.4718  0.5187
11792SOL    HW144154   6.805  10.442   3.702 -1.2223 -1.7095 -1.2807
11792SOL    HW244155   6.799  10.590   3.672 -1.4155 -1.2248  0.9727
11793SOL     OW44156   1.586   1.935   8.449  0.1564 -0.1046  0.4676
11793SOL    HW144157   1.505   1.941   8.399  0.0088  1.3451  0.8145
11793SOL    HW244158   1.637   1.866   8.407 -0.2366  0.6254 -1.2620
11794SOL     OW44159   0.222   9.104   5.473  0.9219  0.3065 -0.0470
11794SOL    HW144160   0.266   9.178   5.431 -1.2103  1.9050  0.3830
11794SOL    HW244161   0.271   9.089   5.554  0.4952  2.2951  0.6169
11795SOL     OW44162   0.924   6.449   6.038  0.1037  0.4779 -0.5439
11795SOL    HW144163   0.871   6.452   5.959  0.8055  2.4869 -1.0190
11795SOL    HW244164   0.869   6.489   6.106 -0.1585 -0.3933 -0.2383
11796SOL     OW44165   8.120   0.496   1.670 -0.0616  0.3900  0.7068
11796SOL    HW144166   8.091   0.582   1.640 -1.3836 -0.6846 -1.3228
11796SOL    HW244167   8.039   0.449   1.690  0.5653 -0.7703  0.6175
11797SOL     OW44168   3.383  11.586   8.667  0.1507 -0.2511  0.2980
11797SOL    HW144169   3.333  11.662   8.697 -1.3541 -0.6742 -0.9671
11797SOL    HW244170   3.334  11.511   8.699 -0.4091 -0.6821 -1.4576
11798SOL     OW44171   3.541   4.638   3.303 -0.4141  0.1905 -0.0734
11798SOL    HW144172   3.631   4.670   3.296 -0.2820 -0.4153 -1.5960
11798SOL    HW244173   3.488   4.708   3.264 -0.2564 -0.7536 -2.1220
11799SOL     OW44174   7.142   9.614   8.561 -0.1120 -0.4976  0.7521
11799SOL    HW144175   7.232   9.643   8.578  0.1298 -0.9343  0.2533
11799SOL    HW244176   7.145   9.580   8.472 -1.0244  0.4851  0.3211
11800SOL     OW44177   7.655   1.083   0.845  0.0097 -0.4575  0.0973
11800SOL    HW144178   7.670   0.995   0.880 -1.5145 -0.9313 -0.3680
11800SOL    HW244179   7.570   1.078   0.802  0.1550  1.1031 -0.4483
11801SOL     OW44180   9.673   4.161   0.783 -0.2475  0.1897 -0.3968
11801SOL    HW144181   9.591   4.115   0.801 -0.0260 -0.8719 -1.9534
11801SOL    HW244182   9.727   4.144   0.861 -0.8228 -0.6865 -0.1692
11802SOL     OW44183  11.684  11.493  12.395  0.0690  0.5107  0.4104
11802SOL    HW144184  11.767  11.526  12.359 -0.3084  2.7672  1.4012
11802SOL    HW244185  11.618  11.516  12.330 -0.1177  1.2808  0.8515
11803SOL     OW44186   6.223   1.698   0.612 -0.1086  0.3827 -0.0571
11803SOL    HW144187   6.221   1.649   0.530 -1.5918  1.6279 -0.8274
11803SOL    HW244188   6.237   1.632   0.680  2.2035 -0.5706 -1.3354
11804SOL     OW44189   2.665   4.067   9.707 -0.2714 -0.4886 -0.0642
11804SOL    HW144190   2.645   3.982   9.668  1.8504 -0.1232 -2.2095
11804SOL    HW244191   2.761   4.073   9.702 -0.4162  2.4698 -1.0576
11805SOL     OW44192   1.780   2.930   3.078  0.0940  0.0939  0.4230
11805SOL    HW144193   1.728   2.864   3.033 -0.8485  2.0807 -1.5817
11805SOL    HW244194   1.847   2.956   3.014  1.9626 -0.5349  2.0247
11806SOL     OW44195   1.889  10.628   9.543 -0.4319 -0.3419 -0.2823
11806SOL    HW144196   1.847  10.685   9.608 -0.5426 -0.5679 -0.1558
11806SOL    HW244197   1.980  10.623   9.571 -0.4226 -0.2239 -0.2939
11807SOL     OW44198   5.542   6.842   6.859 -0.4497  0.0101  0.0966
11807SOL    HW144199   5.617   6.877   6.811  0.2972 -1.6941 -0.0578
11807SOL    HW244200   5.575   6.827   6.948 -0.8763  0.0888  0.2720
11808SOL     OW44201   8.232   1.130   1.445 -0.1333  0.3984 -0.3418
11808SOL    HW144202   8.239   1.215   1.401  1.5975  0.3203 -0.2973
11808SOL    HW244203   8.261   1.147   1.535  0.1083 -0.2164 -0.2993
11809SOL     OW44204   2.875   5.352  10.263 -0.0404 -0.2105  0.0092
11809SOL    HW144205   2.862   5.295  10.188  0.9488  0.7388 -0.9211
11809SOL    HW244206   2.786   5.374  10.293 -0.4448 -0.5997 -0.8831
11810SOL     OW44207   6.869   9.393   4.883  0.0383  0.0786 -0.1038
11810SOL    HW144208   6.811   9.388   4.807  0.2908 -0.9749 -0.2402
11810SOL    HW244209   6.895   9.302   4.899  0.5515  0.3783  0.8067
11811SOL     OW44210   2.067   1.525   9.438 -0.5051  0.2949 -0.2637
11811SOL    HW144211   2.123   1.554   9.510 -1.0032 -0.9962  0.6773
11811SOL    HW244212   1.981   1.559   9.460 -0.5011  0.5762 -0.6756
11812SOL     OW44213   7.109   2.200   6.413 -0.1732  0.2729  0.1185
11812SOL    HW144214   7.053   2.268   6.375 -1.0562 -0.2569  0.4590
11812SOL    HW244215   7.106   2.129   6.349 -0.0800  0.1442  0.2578
11813SOL     OW44216   0.076  10.237   5.543 -0.4451 -0.4662  0.1658
11813SOL    HW144217   0.086  10.162   5.602  0.3236  1.4730  2.6735
11813SOL    HW244218   0.156  10.237   5.491  0.2430 -0.5990  1.1774
11814SOL     OW44219   5.400  10.584   5.139 -0.2656  0.5412  0.6109
11814SOL    HW144220   5.393  10.621   5.051  0.1382 -1.6503 -0.4162
11814SOL    HW244221   5.328  10.521   5.144  0.6043 -0.4339  1.2620
11815SOL     OW44222   8.489   8.301  10.564 -0.2907 -0.2327 -0.3910
11815SOL    HW144223   8.452   8.315  10.477  0.0016 -1.2588 -0.6931
11815SOL    HW244224   8.494   8.206  10.573 -1.0082 -0.1580  1.0431
11816SOL     OW44225  10.888   2.246  10.904  0.1646 -0.0909  0.0472
11816SOL    HW144226  10.823   2.258  10.973  0.6308  0.2363  0.4449
11816SOL    HW244227  10.968   2.223  10.952  0.7790  1.2529 -0.3035
11817SOL     OW44228  11.939   6.650  10.747 -0.7007  0.3561 -0.7850
11817SOL    HW144229  12.021   6.620  10.710 -1.2547  0.6519 -2.2982
11817SOL    HW244230  11.923   6.591  10.821  1.0700  0.5715 -0.1892
11818SOL     OW44231  12.090  11.481   5.816 -0.0032  0.4831 -0.3555
11818SOL    HW144232  12.144  11.491   5.738  0.8424  1.9998  0.3751
11818SOL    HW244233  12.151  11.455   5.885  0.1361  3.3214  0.7465
11819SOL     OW44234   9.768   4.949   9.001 -0.3870  0.0889 -0.1827
11819SOL    HW144235   9.732   4.916   8.919  0.9897  2.7375 -1.9993
11819SOL    HW244236   9.734   5.038   9.009  1.7263  0.8925  0.5955
11820SOL     OW44237   7.988  12.184   9.591  0.4187  0.4747 -0.0301
11820SOL    HW144238   7.904  12.148   9.565  0.4685 -0.0711  0.5367
11820SOL    HW244239   7.966  12.253   9.653  0.3738  0.5476 -0.1273
11821SOL     OW44240   4.572   0.387   4.194 -0.3860 -0.5924 -0.3796
11821SOL    HW144241   4.610   0.333   4.124  0.4916  0.5270 -0.8037
11821SOL    HW244242   4.624   0.366   4.271  0.9725  0.7154 -0.8903
11822SOL     OW44243   2.270  10.975   1.997  0.7870  0.2764  0.1650
11822SOL    HW144244   2.343  10.970   1.935 -1.4807  0.2085 -2.7068
11822SOL    HW244245   2.257  11.068   2.012  0.9362  0.3187  0.0307
11823SOL     OW44246   4.380   0.492   4.004  0.1553 -0.3056 -0.4331
11823SOL    HW144247   4.453   0.468   4.061  0.0863  1.7394  0.6070
11823SOL    HW244248   4.302   0.476   4.057 -0.0746 -1.0583 -0.9929
11824SOL     OW44249  10.499   7.998  12.367 -0.3220 -0.2061  0.4111
11824SOL    HW144250  10.585   7.963  12.343 -0.4580 -0.9711  1.0147
11824SOL    HW244251  10.449   7.997  12.285  0.5091  1.0931 -0.1442
11825SOL     OW44252   5.405   0.779   3.671  0.0012  0.1441  0.3229
11825SOL    HW144253   5.325   0.794   3.620 -0.8453  0.5748  1.7104
11825SOL    HW244254   5.424   0.686   3.660 -0.3284  0.1719 -0.5308
11826SOL     OW44255   8.025   6.224   2.463  0.0274  0.0791 -0.5521
11826SOL    HW144256   7.981   6.168   2.526 -0.1817  0.2706 -0.5291
11826SOL    HW244257   8.101   6.258   2.511 -0.9129  1.3764  0.0776
11827SOL     OW44258   3.312  10.714  12.364  0.0760  0.4380 -0.2735
11827SOL    HW144259   3.399  10.690  12.397 -0.7055  0.7649  2.2658
11827SOL    HW244260   3.312  10.810  12.365 -0.3668  0.4386 -0.0466
11828SOL     OW44261  11.868  10.684  11.346 -0.1226  0.4087 -0.0484
11828SOL    HW144262  11.944  10.642  11.307 -0.5725  1.0974 -1.7366
11828SOL    HW244263  11.889  10.688  11.440  0.8229 -1.6038 -0.1254
11829SOL     OW44264  12.375   4.275   7.586 -0.2531  0.3673  0.0271
11829SOL    HW144265  12.396   4.193   7.541 -0.9832  0.1424  0.0686
11829SOL    HW244266  12.336   4.247   7.669  2.2380  0.7748  1.4136
11830SOL     OW44267   6.050  12.566  11.196  0.2265  0.1799  0.1117
11830SOL    HW144268   6.012  12.493  11.147 -1.3546  1.4179 -0.5920
11830SOL    HW244269   5.981  12.632  11.199  1.5247  1.5804  0.9096
11831SOL     OW44270   2.823   5.739   2.552  0.0127 -0.9959  0.2131
11831SOL    HW144271   2.876   5.789   2.614 -1.5993 -1.2189  1.8801
11831SOL    HW244272   2.767   5.684   2.608 -1.2086 -1.5401 -1.4705
11832SOL     OW44273   8.452   4.047   8.595  0.2523 -0.5507  0.1195
11832SOL    HW144274   8.383   4.105   8.562  2.6052  2.8289  0.6570
11832SOL    HW244275   8.426   4.029   8.686  1.0581  2.6672  1.1154
11833SOL     OW44276   2.815   0.734   0.393  0.2589 -0.1678  0.1815
11833SOL    HW144277   2.864   0.817   0.398  0.5347 -0.3092 -0.1306
11833SOL    HW244278   2.881   0.668   0.372  0.0763 -0.5108  0.6614
11834SOL     OW44279   8.587   6.683   5.158 -0.1942  0.5724  0.0282
11834SOL    HW144280   8.575   6.711   5.249 -2.2688 -0.4742  0.1448
11834SOL    HW244281   8.522   6.733   5.109  0.9728  1.1975 -0.9405
11835SOL     OW44282   0.104   4.675   7.708  0.0671  0.4499  0.1623
11835SOL    HW144283   0.195   4.702   7.695 -0.3791  1.7771 -0.3483
11835SOL    HW244284   0.088   4.609   7.641  0.9743 -0.6149  0.9694
11836SOL     OW44285   6.825   7.818  11.621  0.1614 -0.4776  0.1251
11836SOL    HW144286   6.921   7.817  11.618  0.3972 -2.3566  3.2902
11836SOL    HW244287   6.803   7.905  11.655  1.0301 -0.9818  2.1472
11837SOL     OW44288  12.370   5.617   7.777 -0.1070 -0.5539 -0.4418
11837SOL    HW144289  12.420   5.693   7.808 -0.5643  0.2465 -1.5874
11837SOL    HW244290  12.289   5.654   7.741 -0.4467 -1.6062 -0.8001
11838SOL     OW44291   0.801   4.424   7.094  0.1143  0.2865  0.1385
11838SOL    HW144292   0.855   4.370   7.151  1.4222 -0.2094 -1.4929
11838SOL    HW244293   0.716   4.379   7.090  0.3504 -0.2253  0.8449
11839SOL     OW44294  10.949   5.677  10.124  0.5295 -0.3053  0.6773
11839SOL    HW144295  10.867   5.691  10.172  0.1594  0.7925 -0.2256
11839SOL    HW244296  11.016   5.670  10.192  0.0217  1.1848  1.3829
11840SOL     OW44297   8.876   5.245   6.371 -0.9016  0.1420  0.0832
11840SOL    HW144298   8.789   5.213   6.397 -0.5187 -0.4793  0.6423
11840SOL    HW244299   8.878   5.336   6.402 -0.3423 -0.6524  2.6633
11841SOL     OW44300   5.414   8.928   2.335  0.1341 -0.5706  0.3289
11841SOL    HW144301   5.459   8.957   2.415 -1.0481  2.5807 -0.0383
11841SOL    HW244302   5.384   9.008   2.293 -0.6064 -2.2168 -2.5666
11842SOL     OW44303   2.861   8.618  11.939  0.1577 -0.6422  0.3625
11842SOL    HW144304   2.935   8.660  11.982  1.2855 -0.2170 -1.8461
11842SOL    HW244305   2.891   8.601  11.850 -2.0779 -1.3583 -0.3352
11843SOL     OW44306   7.843   0.335   4.953 -0.0201 -0.2623 -0.0243
11843SOL    HW144307   7.784   0.282   5.007 -1.1601 -0.1801 -1.1601
11843SOL    HW244308   7.826   0.307   4.863  0.2388  1.1714 -0.5485
11844SOL     OW44309  11.760   8.830   7.336 -0.0070 -0.4696  0.3776
11844SOL    HW144310  11.782   8.911   7.289 -0.5405 -1.5449 -1.8794
11844SOL    HW244311  11.705   8.859   7.408  1.4792  1.3587  0.8792
11845SOL     OW44312  12.197   5.754   5.712 -0.6844  0.3348  0.7394
11845SOL    HW144313  12.139   5.738   5.638 -0.4341  2.2883  0.0362
11845SOL    HW244314  12.245   5.834   5.687  0.4711  0.1995  2.3776
11846SOL     OW44315   3.549   3.736   5.019 -0.3397  0.1347 -0.4949
11846SOL    HW144316   3.521   3.703   5.104 -2.3622 -1.0670 -1.5479
11846SOL    HW244317   3.509   3.676   4.956 -0.1004  1.8353 -2.3543
11847SOL     OW44318   3.600  12.366   4.439 -0.2111  0.3981  0.0412
11847SOL    HW144319   3.539  12.345   4.510  0.6800 -0.8411  0.4689
11847SOL    HW244320   3.655  12.288   4.431  1.9546  1.8236  0.3298
11848SOL     OW44321   2.177  12.336   0.899 -0.1672  0.1286 -0.0977
11848SOL    HW144322   2.205  12.245   0.897 -0.2650  0.0772 -2.5870
11848SOL    HW244323   2.213  12.374   0.818 -1.0186  2.0076  0.3489
11849SOL     OW44324   8.539  11.294   0.150 -0.2219  0.5235  0.0336
11849SOL    HW144325   8.478  11.222   0.168  1.6626 -1.7248 -1.7745
11849SOL    HW244326   8.497  11.344   0.080 -1.0142  0.4397  0.4405
11850SOL     OW44327   3.570   4.470   4.200  0.0745  0.2349  0.2533
11850SOL    HW144328   3.475   4.463   4.187 -0.0284  0.6013  0.7611
11850SOL    HW244329   3.600   4.526   4.128 -0.0724  0.0359  0.0320
11851SOL     OW44330  10.316   7.718   0.585  0.0998  0.2251  0.0063
11851SOL    HW144331  10.412   7.712   0.578  0.1751 -0.5207  1.3528
11851SOL    HW244332  10.300   7.810   0.608  0.5292  0.2414  0.2491
11852SOL     OW44333   7.472   3.466   0.508  0.6559 -0.6206 -0.1443
11852SOL    HW144334   7.379   3.457   0.490  0.5486  1.4375 -0.9036
11852SOL    HW244335   7.515   3.438   0.427  0.7035 -1.4483  0.1614
11853SOL     OW44336  12.144   5.120   1.629  0.5559  0.6732  0.1939
11853SOL    HW144337  12.103   5.206   1.620  2.0279  1.3952  0.0914
11853SOL    HW244338  12.160   5.112   1.723  0.2732  0.4252  0.2235
11854SOL     OW44339   6.669   6.117   7.369 -0.5576  0.2002 -0.4164
11854SOL    HW144340   6.579   6.148   7.361 -0.7913 -0.7649 -2.1027
11854SOL    HW244341   6.710   6.140   7.286  0.7394  0.5076  0.2772
11855SOL     OW44342  11.875  11.599   2.857 -0.3896 -0.4599  0.5624
11855SOL    HW144343  11.959  11.619   2.815  0.1482 -1.7717  0.9839
11855SOL    HW244344  11.809  11.625   2.792  0.2290  2.0521  0.8202
11856SOL     OW44345   0.336  12.530   5.832  0.2248 -0.1540 -0.0236
11856SOL    HW144346   0.341  12.525   5.737  0.9705 -0.8030  0.0447
11856SOL    HW244347   0.375  12.448   5.863  1.3230  0.6726  0.8763
11857SOL     OW44348   3.081   4.524   9.623  0.0273 -0.3101  0.1661
11857SOL    HW144349   3.100   4.614   9.595 -0.9367 -0.1298  0.0742
11857SOL    HW244350   3.086   4.473   9.543  1.6098 -0.5287  0.3749
11858SOL     OW44351   9.737  11.304   0.126 -0.2227 -0.4495  0.1709
11858SOL    HW144352   9.741  11.366   0.053 -0.7573 -0.1053  0.4225
11858SOL    HW244353   9.829  11.284   0.146 -0.0812 -0.7351 -0.7482
11859SOL     OW44354   6.353  11.026   1.897 -0.2315  0.2101  0.8781
11859SOL    HW144355   6.258  11.032   1.912 -0.1044 -0.4886  2.1221
11859SOL    HW244356   6.392  11.068   1.973  0.4926  2.6832 -0.7602
11860SOL     OW44357   8.310  11.592   0.147  0.0878  0.2153  0.2252
11860SOL    HW144358   8.300  11.664   0.085  3.5274  1.5276  1.0089
11860SOL    HW244359   8.224  11.585   0.189 -1.1831  1.8875 -1.9016
11861SOL     OW44360  11.005  10.015   3.947 -0.1268  0.0995  0.4107
11861SOL    HW144361  11.082   9.958   3.945  0.3521  0.7517  0.1552
11861SOL    HW244362  10.939   9.963   3.992 -0.1146 -1.1887 -0.9722
11862SOL     OW44363  10.883  11.645  10.673  0.1519  0.8795  0.1243
11862SOL    HW144364  10.872  11.554  10.644  0.1035  0.8501  0.2337
11862SOL    HW244365  10.805  11.690  10.642 -0.5895  0.5406  1.4155
11863SOL     OW44366   4.662  10.169  12.330 -0.1679 -0.2132 -0.0489
11863SOL    HW144367   4.675  10.171  12.424  1.6243 -2.7395 -0.1502
11863SOL    HW244368   4.742  10.208  12.294 -0.2872 -0.4249 -0.5498
11864SOL     OW44369   4.913  10.049   7.754 -0.0351  0.3783 -0.3718
11864SOL    HW144370   4.940  10.096   7.834 -1.0999  0.2623  0.0762
11864SOL    HW244371   4.933   9.957   7.773  0.8869  0.4922 -0.7521
11865SOL     OW44372   2.894   3.676   0.770 -0.1349  0.3540  0.5690
11865SOL    HW144373   2.924   3.611   0.706  2.3392 -0.1793  2.1059
11865SOL    HW244374   2.908   3.760   0.726 -0.6525 -0.0555 -0.4109
11866SOL     OW44375  12.142  10.936  10.253  0.6844 -0.2560 -0.3102
11866SOL    HW144376  12.232  10.903  10.246  0.8230  0.2179 -0.8345
11866SOL    HW244377  12.087  10.861  10.231  1.0076 -0.0309 -1.9806
11867SOL     OW44378  12.108  12.002  11.899 -0.0404  0.4740  0.2068
11867SOL    HW144379  12.117  12.021  11.806 -0.0264 -1.3712 -0.2166
11867SOL    HW244380  12.173  12.057  11.942  0.4490  0.8261 -0.9583
11868SOL     OW44381   0.601  10.314   7.127 -0.5388 -0.4791 -0.3017
11868SOL    HW144382   0.650  10.277   7.054 -0.8557 -2.8917  0.6125
11868SOL    HW244383   0.651  10.288   7.205  0.0656  2.4446  0.4074
11869SOL     OW44384  10.845  12.000  10.462  0.1729  0.4932 -0.6157
11869SOL    HW144385  10.766  11.947  10.470  0.4885  0.1408  0.3056
11869SOL    HW244386  10.917  11.937  10.466  0.5611  0.9928  0.8283
11870SOL     OW44387   3.850   8.653   8.610  0.2904 -0.4258 -0.3571
11870SOL    HW144388   3.866   8.560   8.625  2.0020 -0.1198 -0.0727
11870SOL    HW244389   3.850   8.662   8.515 -2.5403 -1.0838 -0.5185
11871SOL     OW44390   8.636   5.625   3.807 -0.3296  0.3658 -0.2639
11871SOL    HW144391   8.686   5.690   3.857 -0.0773  0.0566 -0.1185
11871SOL    HW244392   8.662   5.541   3.844 -0.5963  0.1757 -0.5121
11872SOL     OW44393  12.246   3.670   9.854  0.2300 -0.5452 -0.4016
11872SOL    HW144394  12.187   3.668   9.930  0.5751  0.6619 -0.0777
11872SOL    HW244395  12.333   3.659   9.892  0.7413  3.0701 -0.1667
11873SOL     OW44396   6.126   4.285   6.114 -0.6201 -0.0993  0.0939
11873SOL    HW144397   6.090   4.204   6.077 -1.4120  0.0709  0.4768
11873SOL    HW244398   6.181   4.321   6.044 -0.0761 -1.0771 -0.0070
11874SOL     OW44399  11.688   6.098   2.747  0.1205 -0.5351  0.0223
11874SOL    HW144400  11.773   6.055   2.755  1.0657  1.4341  1.2047
11874SOL    HW244401  11.633   6.055   2.814  0.1566 -1.7737 -0.7106
11875SOL     OW44402  10.275  12.282   9.768 -0.7005  0.0115 -0.9845
11875SOL    HW144403  10.370  12.284   9.756 -0.6176 -1.8461 -0.8619
11875SOL    HW244404  10.259  12.336   9.845  0.5725 -1.8016  0.6313
11876SOL     OW44405   6.837   1.438   8.715 -0.4192  0.3393  0.0649
11876SOL    HW144406   6.752   1.482   8.715 -0.2418  0.6871  0.3569
11876SOL    HW244407   6.816   1.345   8.714 -0.8227  0.3959  1.6005
11877SOL     OW44408   5.187  11.915   3.281  0.1442  0.2986 -0.1340
11877SOL    HW144409   5.135  11.978   3.332 -1.4390  1.0052 -2.4552
11877SOL    HW244410   5.212  11.963   3.202  3.1412 -0.5155  0.2004
11878SOL     OW44411  10.901   5.525   6.055 -0.3263  0.1542 -0.5693
11878SOL    HW144412  10.831   5.477   6.011 -0.8498  0.9879 -0.6727
11878SOL    HW244413  10.856   5.585   6.115  0.3371 -0.1065  0.2216
11879SOL     OW44414   4.517   8.669   1.829 -0.0999 -0.1661  0.3436
11879SOL    HW144415   4.576   8.741   1.807  1.7787 -2.1686 -1.7021
11879SOL    HW244416   4.575   8.596   1.851 -1.9307 -0.9855  2.9244
11880SOL     OW44417   2.143   4.771   6.862 -0.2666  0.1807  0.6135
11880SOL    HW144418   2.150   4.811   6.775 -0.1315 -0.9966  0.0594
11880SOL    HW244419   2.180   4.836   6.921  2.3277 -0.0854 -0.5616
11881SOL     OW44420  11.045   7.038   4.217  0.0217  0.2920 -0.6535
11881SOL    HW144421  10.958   7.004   4.234 -0.7037  2.2357 -0.1612
11881SOL    HW244422  11.044   7.062   4.124  0.0953  0.1379 -0.6938
11882SOL     OW44423   1.519   0.465  11.084  0.1250  0.3133 -0.0348
11882SOL    HW144424   1.556   0.418  11.159 -1.9865  0.3059  1.0598
11882SOL    HW244425   1.474   0.397  11.034 -2.0332  0.9160  0.9868
11883SOL     OW44426   5.708   8.380  12.426 -0.0741 -0.4795 -0.2457
11883SOL    HW144427   5.656   8.452  12.460 -0.2329 -0.0194 -1.3991
11883SOL    HW244428   5.711   8.395  12.331 -1.7950 -3.0393 -0.8191
11884SOL     OW44429  10.535  12.277   5.644 -0.2795  0.6740 -0.3032
11884SOL    HW144430  10.562  12.368   5.632  1.5562  0.2109  0.0689
11884SOL    HW244431  10.603  12.226   5.600 -1.9995 -0.5127 -1.7268
11885SOL     OW44432   7.370   5.734   2.620  0.2041 -0.0556 -0.9285
11885SOL    HW144433   7.455   5.703   2.650  1.0918  1.0069 -2.2574
11885SOL    HW244434   7.307   5.689   2.677  1.6007 -1.3432 -0.3286
11886SOL     OW44435   4.793   3.702   0.906 -0.6373 -0.0636 -0.5177
11886SOL    HW144436   4.737   3.780   0.912  0.7760  1.1018 -1.4979
11886SOL    HW244437   4.740   3.638   0.860 -1.8281  0.3219  0.2715
11887SOL     OW44438  12.096   7.568   6.980  0.1129  0.5809  0.3027
11887SOL    HW144439  12.030   7.621   6.935 -0.7703 -0.5972  0.1732
11887SOL    HW244440  12.180   7.605   6.951 -0.4366  0.2978 -1.8077
11888SOL     OW44441   6.356   2.526   5.722  0.2626 -0.0247 -0.0470
11888SOL    HW144442   6.350   2.480   5.806  0.6229 -0.2767 -0.1555
11888SOL    HW244443   6.421   2.476   5.673 -0.1003  0.0019 -0.5546
11889SOL     OW44444   0.828   0.077   4.389 -0.2261 -0.5231  0.3470
11889SOL    HW144445   0.827   0.040   4.477 -2.2683 -0.7696  0.2712
11889SOL    HW244446   0.812   0.002   4.331 -0.0412 -0.1811 -0.1537
11890SOL     OW44447   3.975   2.444  11.427  0.7452 -0.6395  0.1046
11890SOL    HW144448   3.892   2.429  11.473  0.5020  1.1369  0.2867
11890SOL    HW244449   4.034   2.479  11.493  0.7045  0.9636 -0.6762
11891SOL     OW44450   4.393   7.211   8.750 -0.2474 -0.0296  0.2969
11891SOL    HW144451   4.348   7.166   8.821  0.5181 -1.7743 -0.2688
11891SOL    HW244452   4.455   7.270   8.793 -0.7410 -0.0617  1.0636
11892SOL     OW44453   4.511  11.652   0.852 -0.0361  0.0797  0.7374
11892SOL    HW144454   4.436  11.638   0.909  0.5704  0.9868  1.7911
11892SOL    HW244455   4.526  11.746   0.854  0.2888  0.0709 -0.5602
11893SOL     OW44456   8.419  11.509  10.869  0.0622  0.3627 -0.0068
11893SOL    HW144457   8.337  11.558  10.868  0.7982  1.6483  0.0285
11893SOL    HW244458   8.431  11.481  10.779  0.7783  2.2973 -0.5610
11894SOL     OW44459   3.972   2.876   4.449  0.7036 -0.6620 -0.0567
11894SOL    HW144460   3.916   2.941   4.492  1.8131  1.1045 -1.1526
11894SOL    HW244461   3.926   2.793   4.462 -0.9223  0.3594  1.1615
11895SOL     OW44462   1.426  10.811   2.433  0.8038  0.2257 -0.2862
11895SOL    HW144463   1.465  10.814   2.346  0.8946  3.4445 -0.2421
11895SOL    HW244464   1.338  10.776   2.419  0.5352  1.4378 -1.8145
11896SOL     OW44465   5.884   2.949   4.684 -0.2889  0.0681 -0.3507
11896SOL    HW144466   5.887   2.855   4.700  0.7131  0.2361  0.5223
11896SOL    HW244467   5.832   2.958   4.604 -1.2879 -1.1427  0.1376
11897SOL     OW44468   6.743   2.055   2.584  0.2901  0.1829  0.1359
11897SOL    HW144469   6.822   2.081   2.535  0.5610  0.6451  0.8022
11897SOL    HW244470   6.710   2.137   2.620 -0.9896  0.1128 -0.8305
11898SOL     OW44471   7.016   3.957   5.339 -0.2727  0.4957 -0.2727
11898SOL    HW144472   7.098   3.944   5.386  0.5119  2.9956 -0.7728
11898SOL    HW244473   6.949   3.961   5.407  0.2014 -0.1381  0.2500
11899SOL     OW44474   2.157  11.134   8.873 -0.5365  0.3937 -0.0496
11899SOL    HW144475   2.248  11.124   8.902 -0.3261 -0.5153 -0.9307
11899SOL    HW244476   2.145  11.062   8.810 -1.2893  1.5986 -1.3385
11900SOL     OW44477   2.934  11.119   0.717 -0.1086 -0.2968  0.3436
11900SOL    HW144478   2.893  11.109   0.803  1.3515  1.7855  1.3733
11900SOL    HW244479   2.989  11.041   0.708  1.1521  0.2997  2.2012
11901SOL     OW44480   7.064   8.031   0.315  0.1315  0.1554  0.7685
11901SOL    HW144481   7.043   8.108   0.368  0.4721  1.6040 -1.0964
11901SOL    HW244482   7.160   8.027   0.315  0.1183 -0.2240  0.7959
11902SOL     OW44483   2.480   1.826  10.396  0.4957 -0.3688 -0.1530
11902SOL    HW144484   2.407   1.764  10.405 -1.3014  1.5625 -0.7716
11902SOL    HW244485   2.447   1.896  10.340  2.5802  0.9862  0.1654
11903SOL     OW44486   7.355   8.918   1.854  0.0959 -0.4234  0.3058
11903SOL    HW144487   7.291   8.902   1.923  1.4566 -1.4782  1.3819
11903SOL    HW244488   7.368   8.832   1.813  1.4540 -0.4191  0.6876
11904SOL     OW44489   7.804   2.588   5.174 -0.2188 -0.3872 -0.1286
11904SOL    HW144490   7.774   2.543   5.095  2.3922 -2.3234 -0.1349
11904SOL    HW244491   7.852   2.664   5.142 -0.2980 -0.4279 -0.3454
11905SOL     OW44492   6.865   2.032   7.470 -0.0791 -0.5102 -0.5711
11905SOL    HW144493   6.780   2.075   7.464 -0.4860 -1.2647 -0.3029
11905SOL    HW244494   6.883   2.027   7.564  0.1754 -0.5224 -0.6196
11906SOL     OW44495   7.864   7.539   4.938  0.3101  0.2256  0.5804
11906SOL    HW144496   7.877   7.634   4.932  2.6080 -0.0857 -0.4598
11906SOL    HW244497   7.817   7.516   4.858 -0.6363  0.5181  1.0401
11907SOL     OW44498   2.084  10.807  11.689  0.6250 -0.2950 -0.2942
11907SOL    HW144499   2.137  10.831  11.765 -0.0326  1.2746 -0.2924
11907SOL    HW244500   2.012  10.755  11.726  3.4746 -4.9778 -0.5913
11908SOL     OW44501   0.363  12.010   6.792  0.3891  0.1731  0.2972
11908SOL    HW144502   0.375  12.056   6.875  0.7689 -0.3730  0.5552
11908SOL    HW244503   0.445  12.025   6.744  0.7328 -0.6555  0.6041
11909SOL     OW44504  12.393  11.858   8.891  0.3115 -0.0972 -0.1798
11909SOL    HW144505  12.455  11.791   8.863  0.7022  0.1859 -0.0072
11909SOL    HW244506  12.407  11.865   8.985  0.3329  0.2757 -0.2073
11910SOL     OW44507  12.057   5.445   5.679 -0.7007 -0.5697  0.3995
11910SOL    HW144508  12.145   5.476   5.656  0.0924 -1.1857  2.4478
11910SOL    HW244509  12.017   5.520   5.723 -0.4603 -0.9299  1.2432
11911SOL     OW44510   9.382   7.547  12.287  0.3206 -0.2079  0.0242
11911SOL    HW144511   9.333   7.522  12.366  1.9891  1.0197  1.5284
11911SOL    HW244512   9.391   7.642  12.293 -0.0126 -0.0096 -1.9924
11912SOL     OW44513  10.304   0.679   9.538  0.0990  0.2884  0.4830
11912SOL    HW144514  10.276   0.755   9.488  1.3321  0.7693  0.4812
11912SOL    HW244515  10.383   0.648   9.493 -1.3023 -2.0477 -0.5256
11913SOL     OW44516   0.169   4.261   0.976 -0.7627 -0.2892 -0.2432
11913SOL    HW144517   0.113   4.328   0.936  1.1192  0.9494 -0.9619
11913SOL    HW244518   0.176   4.288   1.068 -0.5991  0.0971 -0.3652
11914SOL     OW44519   6.175   2.348   7.573  0.2401  0.2124  0.1528
11914SOL    HW144520   6.158   2.360   7.480 -0.0239 -0.7821  0.0666
11914SOL    HW244521   6.092   2.366   7.616  0.7217  2.2219  0.3696
11915SOL     OW44522   2.129   2.282  11.931 -0.6630 -0.9317  0.2374
11915SOL    HW144523   2.052   2.250  11.885 -1.1238  1.7639 -1.0347
11915SOL    HW244524   2.184   2.320  11.863  0.6912 -0.6607  1.4252
11916SOL     OW44525   8.910  11.100   4.022  0.3309 -0.6639 -0.6986
11916SOL    HW144526   8.843  11.168   4.010 -0.0689 -0.6883  1.0521
11916SOL    HW244527   8.913  11.054   3.938 -0.4977  0.5324 -1.4226
11917SOL     OW44528   7.847   3.309  12.187  0.2174 -0.1162  0.1193
11917SOL    HW144529   7.930   3.307  12.235  0.8077 -2.3338 -0.8824
11917SOL    HW244530   7.863   3.369  12.114  1.1486 -0.8937 -0.3482
11918SOL     OW44531   6.447   3.868   5.208  0.2662 -0.3307  0.3566
11918SOL    HW144532   6.471   3.919   5.285  0.7538 -0.2542  0.1613
11918SOL    HW244533   6.521   3.808   5.195  1.5392  1.5132 -1.6708
11919SOL     OW44534   3.419   2.616  12.158  0.1696 -0.5062 -0.1834
11919SOL    HW144535   3.390   2.525  12.154  0.2666 -0.5522  0.1124
11919SOL    HW244536   3.373   2.660  12.086 -1.1321 -0.4318  0.6674
11920SOL     OW44537   9.827  12.077   4.900  0.3865 -0.4958 -0.2835
11920SOL    HW144538   9.745  12.088   4.949 -0.1886  0.2562 -1.3951
11920SOL    HW244539   9.891  12.126   4.952 -0.1405 -0.0095 -0.0680
11921SOL     OW44540   3.932  12.231   1.415 -0.3182  0.2981 -0.0369
11921SOL    HW144541   3.973  12.245   1.330 -1.5606  0.4512 -0.6432
11921SOL    HW244542   3.850  12.280   1.410 -1.2382 -1.1059  0.5869
11922SOL     OW44543   8.260   0.617   8.043 -0.0852  0.2399  0.2675
11922SOL    HW144544   8.212   0.539   8.073 -0.2689  0.7567  1.3922
11922SOL    HW244545   8.266   0.606   7.948  0.0838 -1.2462  0.4172
11923SOL     OW44546   7.544  10.700  11.880 -0.3583  0.2356 -0.4733
11923SOL    HW144547   7.595  10.736  11.954 -1.6282  0.2108  0.4387
11923SOL    HW244548   7.553  10.605  11.890 -0.5314  0.2318 -0.3355
11924SOL     OW44549  11.786   3.045  11.640 -0.3368  0.0958  0.1137
11924SOL    HW144550  11.772   3.136  11.667  0.0335 -0.0379  0.7838
11924SOL    HW244551  11.762   3.044  11.548  1.2306  1.2682 -0.3652
11925SOL     OW44552   5.001   8.338   2.348  0.2950  0.0529 -0.7448
11925SOL    HW144553   5.052   8.406   2.391  0.3275  1.0142 -2.2665
11925SOL    HW244554   5.051   8.314   2.270  1.3932 -3.2984  0.7836
11926SOL     OW44555   7.657   3.800   3.752 -0.2431  0.0955 -0.2572
11926SOL    HW144556   7.697   3.868   3.806 -0.0068 -0.6017  0.4811
11926SOL    HW244557   7.685   3.819   3.663 -2.4593  2.6004 -0.5499
11927SOL     OW44558   3.404  11.492   2.373  0.0262  0.6389  0.4454
11927SOL    HW144559   3.470  11.530   2.315 -0.0245  0.7050  0.4302
11927SOL    HW244560   3.445  11.491   2.459  0.1096  0.5217  0.4052
11928SOL     OW44561   8.139   0.741   4.324  0.1908  0.0517 -0.2260
11928SOL    HW144562   8.064   0.776   4.276  0.5995  1.8614  0.3877
11928SOL    HW244563   8.165   0.812   4.383  3.4999  0.2159 -1.6739
11929SOL     OW44564   3.285   4.904   9.808  0.9084  0.4282  0.0509
11929SOL    HW144565   3.373   4.942   9.797  0.0853  2.0327 -1.7747
11929SOL    HW244566   3.281   4.877   9.899  2.5266  2.4170  0.7869
11930SOL     OW44567   0.217   4.416   0.577  0.4395  0.4754 -0.2260
11930SOL    HW144568   0.262   4.361   0.641 -1.7588  1.4160  2.3166
11930SOL    HW244569   0.184   4.355   0.511  1.0260 -0.8053  0.6379
11931SOL     OW44570  10.398   3.559   2.282 -0.0564  0.4453  0.3965
11931SOL    HW144571  10.337   3.495   2.319  2.0186 -1.6623  0.3530
11931SOL    HW244572  10.439   3.600   2.358 -0.8356  1.2278  0.4144
11932SOL     OW44573   4.210   2.482   0.243 -0.4503  0.1458 -0.6126
11932SOL    HW144574   4.300   2.468   0.212 -0.3306 -1.7566  0.4421
11932SOL    HW244575   4.220   2.534   0.323 -0.1985 -0.7858 -0.0268
11933SOL     OW44576   5.089  10.083   8.083  0.3829 -0.1641  0.2532
11933SOL    HW144577   4.996  10.108   8.082 -0.2877 -2.3608 -1.5186
11933SOL    HW244578   5.124  10.122   8.002  0.4043 -1.1703 -0.2416
11934SOL     OW44579   9.842   0.381   8.241 -0.4651 -0.6242  0.2320
11934SOL    HW144580   9.838   0.426   8.326 -0.5269 -0.6713  0.2552
11934SOL    HW244581   9.934   0.360   8.229 -0.3561  0.0039 -0.0417
11935SOL     OW44582  10.321   0.207   2.981 -0.4268  0.6141  0.2516
11935SOL    HW144583  10.370   0.136   2.941 -0.2562  1.1142 -0.4411
11935SOL    HW244584  10.294   0.262   2.908 -2.8821 -0.1638  0.4805
11936SOL     OW44585   5.733   4.862   0.889 -0.6062  0.4431 -0.3303
11936SOL    HW144586   5.715   4.848   0.982  1.6145 -1.2196 -0.0724
11936SOL    HW244587   5.783   4.785   0.863 -0.9794  0.9846 -2.8807
11937SOL     OW44588   9.617   0.420   4.271  0.3333 -0.6590 -0.5682
11937SOL    HW144589   9.542   0.476   4.252  1.9175  1.5508 -0.6676
11937SOL    HW244590   9.582   0.351   4.327 -2.0806 -0.6671 -1.9477
11938SOL     OW44591   0.074   2.404   5.390 -0.2555 -0.2827 -0.4275
11938SOL    HW144592  -0.017   2.432   5.392  0.2367  1.3941 -0.5581
11938SOL    HW244593   0.091   2.382   5.299 -0.5201 -0.5982 -0.4025
11939SOL     OW44594   6.260   9.502   0.858  0.5114 -0.3385 -0.2676
11939SOL    HW144595   6.184   9.557   0.840  0.3962  0.1239  1.4547
11939SOL    HW244596   6.273   9.452   0.777  0.5867  2.1171 -1.8900
11940SOL     OW44597   3.946  10.303   4.257  0.1017  0.2763  0.2693
11940SOL    HW144598   3.952  10.385   4.306  2.1349 -0.0910  0.7241
11940SOL    HW244599   3.857  10.271   4.274 -0.6617  2.2425  0.2531
11941SOL     OW44600   6.824   2.838   5.303  0.1635 -0.0401  0.0343
11941SOL    HW144601   6.789   2.904   5.244  2.1540 -1.3736 -2.8774
11941SOL    HW244602   6.775   2.758   5.281 -0.9893 -0.0134  2.2487
11942SOL     OW44603   4.391   2.758   9.521 -0.2320 -0.4837 -0.0500
11942SOL    HW144604   4.486   2.749   9.510 -0.1590  1.9082 -2.3626
11942SOL    HW244605   4.380   2.797   9.608  0.8061 -1.5895  0.6038
11943SOL     OW44606   5.056   1.049   5.942  0.0574 -0.0082  0.7108
11943SOL    HW144607   4.979   1.072   5.890  2.3199  0.5076 -2.7595
11943SOL    HW244608   5.116   1.123   5.931  1.7612 -1.1495  1.7747
11944SOL     OW44609   4.811   3.500  11.626  0.2778  0.0880  0.6414
11944SOL    HW144610   4.797   3.593  11.639  0.3979  0.1285  0.4856
11944SOL    HW244611   4.743   3.473  11.564  1.2459  0.4112 -0.6014
11945SOL     OW44612   3.618   1.778   8.928 -0.1443  0.4003  0.5484
11945SOL    HW144613   3.639   1.786   9.022  0.4309  0.2509  0.4382
11945SOL    HW244614   3.530   1.742   8.926 -0.8564  2.0060  1.0419
11946SOL     OW44615   8.626   5.480   6.691 -0.3264  0.3032 -0.1305
11946SOL    HW144616   8.672   5.399   6.670 -0.2519  0.0525  0.9176
11946SOL    HW244617   8.669   5.512   6.770 -0.7137  1.0743 -0.2253
11947SOL     OW44618   6.828   5.656   3.695  0.1823 -0.0586 -0.1588
11947SOL    HW144619   6.830   5.746   3.726 -1.8672 -0.3104  0.9131
11947SOL    HW244620   6.748   5.650   3.643 -1.1542 -1.8069  1.9094
11948SOL     OW44621   7.973   0.687   6.091  0.0078 -0.3034  0.4279
11948SOL    HW144622   8.043   0.728   6.040  0.0408  1.6326  1.9121
11948SOL    HW244623   7.981   0.593   6.072  2.1870 -0.0013 -0.4254
11949SOL     OW44624   4.116   4.059  11.662 -0.0676 -0.0001 -0.2972
11949SOL    HW144625   4.028   4.059  11.623  0.6661  1.9519 -2.1321
11949SOL    HW244626   4.174   4.031  11.591  0.9404  0.0393  0.4942
11950SOL     OW44627   3.420   2.632   1.580 -0.6040  0.0565 -0.0111
11950SOL    HW144628   3.342   2.585   1.550 -0.3286 -0.1761 -0.3846
11950SOL    HW244629   3.389   2.719   1.602 -0.9942 -0.0788 -0.0213
11951SOL     OW44630   2.933  10.653   7.568  0.5206 -0.0066  0.1005
11951SOL    HW144631   2.900  10.700   7.491  0.3811  1.1067  0.8281
11951SOL    HW244632   2.999  10.710   7.605  1.6610 -1.1985 -0.0155
11952SOL     OW44633   6.833   0.762   5.803  0.3081 -0.4758 -0.2122
11952SOL    HW144634   6.893   0.695   5.837  1.8698  0.6530 -0.5784
11952SOL    HW244635   6.761   0.764   5.866  1.3882 -0.8836  1.0917
11953SOL     OW44636   6.939   2.189   1.211  0.3186 -0.1895  0.0586
11953SOL    HW144637   7.010   2.133   1.243  0.2451  0.8270  2.2161
11953SOL    HW244638   6.882   2.201   1.287  1.0129  3.8125  0.1513
11954SOL     OW44639  12.596  10.646   6.019  0.0179 -0.1254 -0.1894
11954SOL    HW144640  12.586  10.719   6.079  1.4538 -0.3508  0.3506
11954SOL    HW244641  12.560  10.678   5.936  0.3309  1.0780  0.1206
11955SOL     OW44642   4.062  11.404  10.862 -0.2531 -0.0873  0.0110
11955SOL    HW144643   3.988  11.436  10.913  0.2586 -1.2510  1.5838
11955SOL    HW244644   4.047  11.309  10.855  0.2148 -0.0954 -1.1669
11956SOL     OW44645   9.554   3.705   0.341 -0.4634  0.7734  0.0781
11956SOL    HW144646   9.502   3.782   0.364  2.5650  2.2925  2.6070
11956SOL    HW244647   9.633   3.741   0.301  1.9378 -0.6962  3.0960
11957SOL     OW44648  10.406   3.298   2.115 -0.3405 -0.1496 -0.1521
11957SOL    HW144649  10.395   3.388   2.146 -1.4331 -0.6907  1.0869
11957SOL    HW244650  10.496   3.276   2.138  0.1833  0.8541 -1.1308
11958SOL     OW44651  11.314   2.187   4.113 -1.0279  0.1660 -0.0935
11958SOL    HW144652  11.393   2.166   4.063 -1.2229 -1.5021  0.2364
11958SOL    HW244653  11.347   2.216   4.198 -0.7211  2.2620 -0.8654
11959SOL     OW44654   8.814   9.873   0.137  0.3114  0.2135 -0.8563
11959SOL    HW144655   8.775   9.930   0.204 -1.1466 -1.1081 -0.5144
11959SOL    HW244656   8.892   9.837   0.178 -0.7025 -0.7817  0.2738
11960SOL     OW44657   9.217   3.567   5.978 -0.2824 -0.5586  0.2519
11960SOL    HW144658   9.243   3.572   6.070 -0.1771  0.4109  0.1799
11960SOL    HW244659   9.129   3.603   5.977 -0.5266 -1.1679  0.0677
11961SOL     OW44660   1.684   8.253  12.236 -0.2487  0.0137 -0.2003
11961SOL    HW144661   1.628   8.245  12.313  1.2929  2.0112  1.2354
11961SOL    HW244662   1.750   8.185  12.246 -1.0557 -0.8742 -0.7246
11962SOL     OW44663   3.554   5.695   1.367  0.3042  0.2194  0.3741
11962SOL    HW144664   3.469   5.697   1.412  1.3130  1.3133  2.3258
11962SOL    HW244665   3.566   5.785   1.335  0.2050 -0.2307 -1.0323
11963SOL     OW44666   7.819   1.914   4.943  0.3651 -0.4569 -0.3276
11963SOL    HW144667   7.830   1.901   4.848 -0.7466  1.9223 -0.8530
11963SOL    HW244668   7.892   1.971   4.967  0.3322 -0.6090  0.1228
11964SOL     OW44669  10.474   9.896   7.847 -0.1166  0.3249  0.1160
11964SOL    HW144670  10.440   9.807   7.851 -0.4579  0.3550 -1.4402
11964SOL    HW244671  10.568   9.886   7.862 -0.2056 -0.2490  0.3155
11965SOL     OW44672   3.158   8.210   1.763 -0.0331 -0.2506  0.0746
11965SOL    HW144673   3.099   8.212   1.687 -0.8662 -0.8397  0.6839
11965SOL    HW244674   3.227   8.272   1.742 -0.4537 -0.1334 -1.0078
11966SOL     OW44675   0.614   8.743   5.089  0.0246  0.4779 -0.3052
11966SOL    HW144676   0.564   8.676   5.134 -0.2158  0.1469 -1.0479
11966SOL    HW244677   0.574   8.750   5.002  1.1882  0.2645 -0.8888
11967SOL     OW44678  12.554  11.612  10.357  1.3103  0.0259  0.1983
11967SOL    HW144679  12.628  11.632  10.413  1.0875  2.7205 -0.3340
11967SOL    HW244680  12.485  11.672  10.386 -0.1430 -1.2714 -0.3933
11968SOL     OW44681  11.894   4.830   6.040 -0.7314 -0.3230  0.1180
11968SOL    HW144682  11.892   4.882   5.960  0.8032 -0.4587 -0.0435
11968SOL    HW244683  11.986   4.803   6.048 -0.8377 -0.2392  1.9648
11969SOL     OW44684   4.654   5.111   3.690  0.0241  0.2292  0.0120
11969SOL    HW144685   4.593   5.110   3.764 -0.7506  0.7021 -0.6030
11969SOL    HW244686   4.619   5.046   3.629  0.4843  0.0671 -0.0850
11970SOL     OW44687   9.717   3.936   7.725  0.3030 -0.2220  0.2616
11970SOL    HW144688   9.683   3.910   7.639  1.2244 -0.8380  0.0683
11970SOL    HW244689   9.652   3.998   7.759 -0.5856 -0.7489 -0.4358
11971SOL     OW44690   8.404  10.707   5.906  0.1665 -0.5263  0.2890
11971SOL    HW144691   8.328  10.666   5.946  0.1761  0.2830  1.1749
11971SOL    HW244692   8.378  10.798   5.892  0.5682 -0.5197 -0.4904
11972SOL     OW44693   3.718   1.901   1.579 -0.0038 -0.1517  0.3957
11972SOL    HW144694   3.680   1.814   1.567  1.5007 -0.8245  0.3219
11972SOL    HW244695   3.759   1.898   1.665 -0.1141  0.5640  0.4789
11973SOL     OW44696   3.279   2.278   0.639  0.0520 -0.3292  0.0787
11973SOL    HW144697   3.287   2.184   0.626  0.5073 -0.3382  0.4104
11973SOL    HW244698   3.317   2.294   0.725 -0.1631  0.1361  0.0892
11974SOL     OW44699  10.144  12.016  12.257  0.2219  0.1489  0.4932
11974SOL    HW144700  10.093  11.954  12.310 -0.9887  0.5261 -0.1902
11974SOL    HW244701  10.231  11.977  12.251 -0.3993 -1.2744  0.4252
11975SOL     OW44702   3.053   8.454   5.872  0.9442  0.0114  0.8829
11975SOL    HW144703   3.032   8.461   5.965  0.3223 -1.3803  0.8684
11975SOL    HW244704   2.972   8.423   5.831  1.4329 -0.1166 -0.0087
11976SOL     OW44705   1.698   0.214  11.611  0.4617 -0.0644 -0.0704
11976SOL    HW144706   1.666   0.302  11.593  0.6986  0.6558  2.5912
11976SOL    HW244707   1.786   0.212  11.575  0.3406  0.6901 -0.4162
11977SOL     OW44708   7.516   6.445   5.344 -0.0521 -0.1759 -0.3395
11977SOL    HW144709   7.581   6.412   5.406 -0.9622  0.2345  0.8716
11977SOL    HW244710   7.532   6.395   5.264  1.3621 -0.4892  0.1132
11978SOL     OW44711   9.172   8.408   3.622  0.0567 -0.3213 -0.0419
11978SOL    HW144712   9.213   8.322   3.622  0.4362 -0.2019  2.2100
11978SOL    HW244713   9.228   8.461   3.679 -1.0234  0.9765 -0.1431
11979SOL     OW44714   0.418   5.521   7.546 -0.0048 -0.7720 -0.1011
11979SOL    HW144715   0.448   5.494   7.633  1.5200  1.0503 -0.0111
11979SOL    HW244716   0.426   5.616   7.546  1.0542 -0.7918 -2.5726
11980SOL     OW44717  10.131   9.684   3.376 -0.6511  0.4924  0.0777
11980SOL    HW144718  10.052   9.724   3.413 -1.1576 -0.6048  0.2341
11980SOL    HW244719  10.154   9.614   3.438 -0.0398  0.2679 -0.3900
11981SOL     OW44720  11.827  11.820   6.633  0.2699  0.1913 -0.0740
11981SOL    HW144721  11.780  11.737   6.638 -0.4752  0.6242  0.3186
11981SOL    HW244722  11.882  11.821   6.711  0.0635  0.1957  0.0711
11982SOL     OW44723   7.868   6.949  11.397 -0.3270 -0.3183  0.2846
11982SOL    HW144724   7.863   7.025  11.339 -0.9622  0.6846  1.5931
11982SOL    HW244725   7.956   6.914  11.385  0.0847  0.8258 -0.1150
11983SOL     OW44726   8.321   9.760   5.589  0.4472  0.0565  0.3636
11983SOL    HW144727   8.248   9.821   5.587 -0.3637 -0.9136 -1.3992
11983SOL    HW244728   8.364   9.770   5.505  2.5173  0.7385  1.4268
11984SOL     OW44729   4.999   0.120   4.760 -0.3214  0.1984 -0.0216
11984SOL    HW144730   4.927   0.150   4.706  0.1365  0.7192 -0.3432
11984SOL    HW244731   5.011   0.189   4.825 -1.2611 -0.6877  1.1419
11985SOL     OW44732  11.483  11.841   8.079 -0.3128 -0.7781 -0.2665
11985SOL    HW144733  11.421  11.856   8.008 -0.9086  0.0770  0.4185
11985SOL    HW244734  11.488  11.925   8.125 -1.3837 -1.7935  1.8338
11986SOL     OW44735   7.238   6.493  12.309 -0.6098 -0.2288  0.5536
11986SOL    HW144736   7.249   6.586  12.290  0.1557 -0.2485  0.8486
11986SOL    HW244737   7.235   6.488  12.405  2.5999 -0.7744  0.7564
11987SOL     OW44738   7.087   8.172   2.273  0.5877 -0.2542  0.6356
11987SOL    HW144739   7.022   8.184   2.342  1.3060 -0.7304  1.4088
11987SOL    HW244740   7.125   8.086   2.291  0.4867 -0.5729 -0.6135
11988SOL     OW44741   1.584   2.712   5.733 -0.2317  0.6401 -0.1740
11988SOL    HW144742   1.502   2.728   5.781  0.5693  1.7382  0.8928
11988SOL    HW244743   1.652   2.716   5.800  0.6955 -0.5142 -1.0072
11989SOL     OW44744  11.878   4.534  11.675 -0.4048 -0.2524  0.9739
11989SOL    HW144745  11.903   4.523  11.583  0.0967  0.9646  0.9523
11989SOL    HW244746  11.840   4.622  11.679  0.0733 -0.0856  2.0321
11990SOL     OW44747   2.604   0.728  12.588  0.2046 -0.6324 -0.3567
11990SOL    HW144748   2.543   0.666  12.548 -1.4479  1.1997 -0.8907
11990SOL    HW244749   2.591   0.809  12.538 -1.0601  1.4332  2.9390
11991SOL     OW44750   5.791   8.918   7.411 -0.0308  0.2003  0.4957
11991SOL    HW144751   5.805   8.868   7.492  0.9502  0.3587  0.4340
11991SOL    HW244752   5.746   8.856   7.353  1.3099 -0.6885  0.3653
11992SOL     OW44753   6.930   8.413   1.723 -0.0260  0.1936 -0.4146
11992SOL    HW144754   6.953   8.336   1.671  1.2883  2.1353 -2.9951
11992SOL    HW244755   7.006   8.428   1.780 -1.5751 -2.0888  2.4846
11993SOL     OW44756   2.354  10.004   0.873 -0.4377 -0.2394 -0.5566
11993SOL    HW144757   2.412   9.928   0.876  0.9655  0.7918 -0.8438
11993SOL    HW244758   2.330  10.013   0.781 -1.8237 -1.1919 -0.3217
11994SOL     OW44759   5.944   4.323   0.299 -0.2352  0.2327 -0.2009
11994SOL    HW144760   6.002   4.280   0.237  0.1650  0.1147  0.2559
11994SOL    HW244761   5.995   4.396   0.333 -1.1889  1.6358 -1.6110
11995SOL     OW44762   2.083  11.118   2.291  0.5276 -0.3849  0.1405
11995SOL    HW144763   2.033  11.123   2.373  0.6696  0.6871  0.1682
11995SOL    HW244764   2.019  11.092   2.225  0.4650 -1.5334  0.6260
11996SOL     OW44765   2.255   6.563   4.495 -0.1999 -0.0936 -0.0449
11996SOL    HW144766   2.328   6.606   4.450 -1.1524  1.3224 -0.2635
11996SOL    HW244767   2.280   6.470   4.496  1.9580  0.4339  0.5672
11997SOL     OW44768   5.247   3.225   5.686 -0.0846 -0.7389 -0.0382
11997SOL    HW144769   5.316   3.160   5.673 -0.0439 -0.4725 -1.2470
11997SOL    HW244770   5.294   3.308   5.690 -0.0631 -0.7904  2.1866
11998SOL     OW44771  12.493   0.739  12.427  0.1869 -0.6857  0.4829
11998SOL    HW144772  12.523   0.706  12.511  0.9082  0.4800  0.7113
11998SOL    HW244773  12.527   0.677  12.363  0.2915 -1.1534  0.9857
11999SOL     OW44774   2.809  11.362   6.063 -0.5302 -0.1744 -0.1897
11999SOL    HW144775   2.774  11.447   6.091  0.3133 -0.2223  1.1093
11999SOL    HW244776   2.734  11.316   6.026 -1.3441  0.5664  0.4768
12000SOL     OW44777  11.522  11.903   5.396  1.0410 -0.6671  0.0387
12000SOL    HW144778  11.536  11.808   5.395  0.9270 -0.7572  2.2472
12000SOL    HW244779  11.435  11.914   5.435  1.0741  0.3481 -0.1540
12001SOL     OW44780  11.636   0.637   5.669  0.1888 -0.3791 -0.2417
12001SOL    HW144781  11.732   0.641   5.666  0.1164  0.8088 -1.1450
12001SOL    HW244782  11.607   0.727   5.662 -1.0148 -0.7283 -0.0298
12002SOL     OW44783   1.324   7.493   3.311 -0.3259 -0.1194 -0.1610
12002SOL    HW144784   1.338   7.472   3.218 -0.1722 -1.1552  0.0767
12002SOL    HW244785   1.235   7.527   3.315 -0.6215 -0.8060 -0.5916
12003SOL     OW44786   8.221   1.943   7.842  0.1347 -0.1862 -0.0339
12003SOL    HW144787   8.138   1.905   7.813 -0.4176 -0.8071  2.1614
12003SOL    HW244788   8.204   1.972   7.932  1.7961  1.3519 -0.1551
12004SOL     OW44789   5.671   1.787   4.959  0.0472 -0.4854  0.3183
12004SOL    HW144790   5.720   1.708   4.937  0.7511  0.1453 -0.4390
12004SOL    HW244791   5.714   1.857   4.909 -0.8519  0.2966  0.6060
12005SOL     OW44792   8.159  11.034   1.645  0.0052  0.2106  0.4836
12005SOL    HW144793   8.220  11.099   1.610 -0.6761 -0.0780 -1.3803
12005SOL    HW244794   8.209  10.986   1.710  1.1552  1.2504  0.4034
12006SOL     OW44795   5.434   7.208   0.390  0.1558 -0.0209 -0.3775
12006SOL    HW144796   5.416   7.231   0.298  2.1979  2.2140 -0.3362
12006SOL    HW244797   5.498   7.137   0.384 -1.2094 -1.2671 -0.6178
12007SOL     OW44798   9.858  11.667   0.356 -0.5415 -0.4264  0.5135
12007SOL    HW144799   9.804  11.664   0.277 -0.4658 -1.3747  0.4921
12007SOL    HW244800   9.867  11.576   0.383 -0.3240 -0.1367  1.4573
12008SOL     OW44801  11.310  10.849   1.854 -0.4372 -0.1997  0.5945
12008SOL    HW144802  11.361  10.890   1.784 -2.4007  0.5404 -0.4815
12008SOL    HW244803  11.351  10.878   1.935  1.3604 -0.3705 -0.2217
12009SOL     OW44804  11.571   4.018  11.976  0.1332  0.4097 -0.1572
12009SOL    HW144805  11.543   3.998  12.065  3.3507  0.4293  0.9846
12009SOL    HW244806  11.590   3.933  11.937 -3.3938  0.1733 -1.7970
12010SOL     OW44807   4.210   1.005   2.810 -0.1172  0.0578  0.0077
12010SOL    HW144808   4.123   1.042   2.822  0.4148  1.0407  1.0256
12010SOL    HW244809   4.269   1.080   2.813  0.9269 -0.7619  1.2444
12011SOL     OW44810   6.524   1.706   4.873  0.3609 -0.3531  0.3766
12011SOL    HW144811   6.608   1.677   4.907  0.2361 -0.8064  0.3025
12011SOL    HW244812   6.535   1.703   4.777  1.0253  1.8069  0.3236
12012SOL     OW44813   6.769   3.776   8.757  0.0096  0.1888  0.6287
12012SOL    HW144814   6.758   3.734   8.843 -0.8898  1.8295  1.3645
12012SOL    HW244815   6.854   3.819   8.762 -0.3398  0.8582  0.9813
12013SOL     OW44816   2.264   4.165  10.889  0.1296 -0.4511 -0.3460
12013SOL    HW144817   2.216   4.174  10.807 -1.4241  0.7257  0.6311
12013SOL    HW244818   2.270   4.254  10.924  0.0987 -1.0047  1.1550
12014SOL     OW44819   1.554   3.361   9.807 -0.0340  0.3758  0.3262
12014SOL    HW144820   1.594   3.352   9.721 -2.2613 -0.5911 -0.7107
12014SOL    HW244821   1.497   3.438   9.800 -1.3667 -0.5565  0.3811
12015SOL     OW44822   9.809   1.282   8.543  0.1059  0.8165  0.0314
12015SOL    HW144823   9.791   1.243   8.629 -0.9774 -0.8920 -0.9247
12015SOL    HW244824   9.737   1.344   8.530  0.8331  1.8522  0.7627
12016SOL     OW44825   2.535   1.268   0.750 -0.3143 -0.0744  0.5728
12016SOL    HW144826   2.484   1.279   0.670 -0.3202 -0.4579  0.5215
12016SOL    HW244827   2.486   1.205   0.802  1.4982 -2.7981 -0.7300
12017SOL     OW44828   4.789   8.916   3.319  0.3457  0.0970  0.3600
12017SOL    HW144829   4.772   8.826   3.347  0.9982  0.0759  0.7117
12017SOL    HW244830   4.834   8.957   3.394 -0.0520  0.7513  0.2516
12018SOL     OW44831   3.051   7.566   2.286  0.4743  0.1189 -0.3728
12018SOL    HW144832   3.101   7.567   2.367  0.2853  0.9717 -0.2624
12018SOL    HW244833   2.985   7.498   2.300  0.2130  0.5058  0.3340
12019SOL     OW44834  10.268  12.188   5.463 -0.0882 -0.1301  0.0447
12019SOL    HW144835  10.345  12.187   5.521  0.3205 -0.5830 -0.4996
12019SOL    HW244836  10.239  12.279   5.464  0.1496 -0.0556  0.6564
12020SOL     OW44837   0.097   1.819   7.381 -0.5881  0.3758  0.2321
12020SOL    HW144838   0.160   1.857   7.442 -0.4216  1.6743 -0.7098
12020SOL    HW244839   0.107   1.870   7.301  0.0620 -2.0118 -1.3328
12021SOL     OW44840   2.439   2.058   0.772  0.2666 -0.5949 -0.5481
12021SOL    HW144841   2.492   2.028   0.846 -2.0222 -2.2378  0.5293
12021SOL    HW244842   2.389   2.132   0.806  1.9823  1.1862 -1.6661
12022SOL     OW44843  11.068   7.571   4.322  0.3169  0.2903  0.3495
12022SOL    HW144844  11.077   7.666   4.317 -0.7726  0.3595 -0.8209
12022SOL    HW244845  11.136   7.538   4.264 -0.2863  0.4208 -0.4416
12023SOL     OW44846   7.811  11.286  10.406  0.1393  0.3411 -0.1968
12023SOL    HW144847   7.738  11.332  10.366  1.3390  1.1023 -1.6061
12023SOL    HW244848   7.838  11.342  10.479 -0.7513 -0.0239  0.4343
12024SOL     OW44849  11.574   2.491   5.636 -0.0101 -0.3546 -0.1845
12024SOL    HW144850  11.661   2.531   5.633  0.5191 -1.4830 -0.6108
12024SOL    HW244851  11.586   2.405   5.595 -1.3949 -0.4084 -0.5210
12025SOL     OW44852  10.075   5.734   5.434  0.0813 -0.1370 -0.3070
12025SOL    HW144853  10.144   5.793   5.465  0.4630  1.2526 -3.3921
12025SOL    HW244854  10.123   5.663   5.390 -0.4321  0.1381 -1.3214
12026SOL     OW44855   0.293   6.705  10.920  0.1025  0.0305 -0.0159
12026SOL    HW144856   0.328   6.754  10.846 -0.5973 -0.3087 -0.5852
12026SOL    HW244857   0.368   6.656  10.955  0.7184  1.1837  0.3218
12027SOL     OW44858   7.623  12.551   2.386 -0.7326  0.3885 -0.0038
12027SOL    HW144859   7.612  12.465   2.346  0.5450  0.8612 -1.4995
12027SOL    HW244860   7.681  12.534   2.461  2.3740  0.2915 -2.2235
12028SOL     OW44861  10.511   9.706  11.886 -0.2788 -0.4418 -0.1976
12028SOL    HW144862  10.422   9.738  11.873 -0.0596 -0.0944 -0.8826
12028SOL    HW244863  10.531   9.658  11.806  0.8828  1.2167 -0.9727
12029SOL     OW44864   4.081  10.147   2.505  0.4347  0.7987  0.0269
12029SOL    HW144865   4.052  10.084   2.571  3.2328 -1.8746 -1.0283
12029SOL    HW244866   4.008  10.155   2.445 -0.7515  0.2377  1.3485
12030SOL     OW44867   5.492   9.728   0.999 -0.2082  0.3667 -0.6007
12030SOL    HW144868   5.434   9.679   1.057 -0.5469  0.5476 -0.7849
12030SOL    HW244869   5.580   9.706   1.030 -0.3188 -0.9410 -1.1296
12031SOL     OW44870  10.352   4.341   2.223 -0.0441 -0.0353 -0.1200
12031SOL    HW144871  10.441   4.374   2.239 -0.3345  0.9761 -0.5014
12031SOL    HW244872  10.338   4.357   2.130 -0.3652 -0.8674 -0.2188
12032SOL     OW44873   0.278   3.514   7.587 -0.4097  0.1761 -0.2815
12032SOL    HW144874   0.319   3.515   7.673 -0.0770 -0.3489 -0.4295
12032SOL    HW244875   0.344   3.475   7.529 -1.2053 -0.9715 -0.4676
12033SOL     OW44876  10.495   0.327   7.954  0.2669  0.0805  0.1487
12033SOL    HW144877  10.576   0.344   7.905 -0.7399 -0.9721 -2.0098
12033SOL    HW244878  10.522   0.271   8.026  1.3670 -0.9297 -1.0015
12034SOL     OW44879   5.497   7.761   6.142 -0.3087  0.6070 -0.3345
12034SOL    HW144880   5.521   7.731   6.229 -0.1257 -0.6294 -0.7829
12034SOL    HW244881   5.483   7.855   6.151 -1.1556  0.3630  1.2047
12035SOL     OW44882  11.377  11.470   4.440 -0.4031  0.2620 -0.1112
12035SOL    HW144883  11.375  11.495   4.532  0.8254 -2.3039  0.7022
12035SOL    HW244884  11.285  11.473   4.412 -0.7902  1.0510  1.1956
12036SOL     OW44885   5.159   9.623  10.998 -0.4297 -0.5018  1.0967
12036SOL    HW144886   5.223   9.591  11.063  0.1026 -0.4095  0.6301
12036SOL    HW244887   5.133   9.544  10.950 -0.8034 -0.5665  1.3987
12037SOL     OW44888  10.476   4.203  10.142  0.0477  0.1764  0.3253
12037SOL    HW144889  10.571   4.196  10.136 -0.1051 -1.5207 -0.6494
12037SOL    HW244890  10.456   4.178  10.232  0.4336 -0.8035  0.1499
12038SOL     OW44891   0.973   3.941  10.691  0.5120  0.3830 -0.1325
12038SOL    HW144892   1.048   3.964  10.636  0.2362 -2.2817 -1.7997
12038SOL    HW244893   1.006   3.952  10.781  2.8047 -0.3089 -0.8082
12039SOL     OW44894   1.382  10.667   1.520  0.3953 -0.5246 -0.2720
12039SOL    HW144895   1.332  10.745   1.545  0.6503  0.6155 -2.9576
12039SOL    HW244896   1.346  10.596   1.573 -1.1012  1.0713  0.9289
12040SOL     OW44897   0.498   4.060   0.326  0.0855 -0.3740  0.4231
12040SOL    HW144898   0.564   3.995   0.349 -0.5558 -0.8368  0.9761
12040SOL    HW244899   0.442   4.066   0.403  0.2438  0.9784  0.4507
12041SOL     OW44900  12.168   0.972  11.331  0.3596  0.0053  0.4248
12041SOL    HW144901  12.220   1.016  11.263  1.1199 -1.2296  0.1635
12041SOL    HW244902  12.223   0.978  11.410  0.1960  0.0539  0.5341
12042SOL     OW44903  12.247   6.447   4.030 -0.1340 -0.1259  0.1712
12042SOL    HW144904  12.318   6.468   3.969  0.1887  1.1004  0.9184
12042SOL    HW244905  12.167   6.467   3.981  0.0961  0.1238 -0.1088
12043SOL     OW44906   0.417   4.751   9.234 -0.3840 -0.3763  0.2763
12043SOL    HW144907   0.462   4.757   9.318  0.4827 -0.9088 -0.1399
12043SOL    HW244908   0.327   4.730   9.256 -1.2219  3.4882  1.3134
12044SOL     OW44909   8.798   4.980   3.325 -0.4816  0.0135 -0.0544
12044SOL    HW144910   8.734   4.964   3.395  3.2776  1.0049  4.1071
12044SOL    HW244911   8.808   5.075   3.325  2.1320 -0.1954  0.7810
12045SOL     OW44912   5.619  12.317   5.892 -0.0265  0.0389 -0.4320
12045SOL    HW144913   5.562  12.376   5.941 -0.3776  0.0642 -0.8632
12045SOL    HW244914   5.559  12.270   5.833  0.3356 -0.2788 -0.5487
12046SOL     OW44915   7.975   4.867   3.781 -0.1243  0.1775 -0.2701
12046SOL    HW144916   7.965   4.823   3.696 -0.2122  0.2825 -0.3149
12046SOL    HW244917   7.986   4.960   3.758  0.7563  0.0959 -0.2125
12047SOL     OW44918   7.649  12.288   9.785 -0.0315 -0.1278  0.0007
12047SOL    HW144919   7.592  12.359   9.815  0.6706  0.3522  0.2231
12047SOL    HW244920   7.737  12.326   9.784  0.2588 -0.7852 -0.5700
12048SOL     OW44921   6.332   0.461   0.162 -0.2173 -0.1468 -0.4212
12048SOL    HW144922   6.395   0.428   0.226  0.4359  2.3179  0.2839
12048SOL    HW244923   6.358   0.419   0.079  0.9150 -0.8944  0.2881
12049SOL     OW44924  10.514  12.258  10.775  0.0540 -0.5529  0.4048
12049SOL    HW144925  10.426  12.278  10.742 -0.3149 -1.9307  0.4554
12049SOL    HW244926  10.573  12.309  10.720 -0.7866  0.5845  0.5259
12050SOL     OW44927  10.865   5.284   2.933 -0.1221  0.0856 -0.0149
12050SOL    HW144928  10.776   5.256   2.911 -0.2968  0.7059 -0.1065
12050SOL    HW244929  10.858   5.378   2.948  0.2585 -0.0795  1.3343
12051SOL     OW44930  11.082   2.769   5.253 -0.0596  0.4877  0.2697
12051SOL    HW144931  11.102   2.778   5.160 -1.4982 -1.1267 -0.2409
12051SOL    HW244932  11.036   2.851   5.275 -0.3418  0.5771 -0.6175
12052SOL     OW44933  11.659   4.193   0.662  0.0842 -0.2520  0.5675
12052SOL    HW144934  11.722   4.258   0.691  0.7764  1.1448 -3.4030
12052SOL    HW244935  11.710   4.112   0.653  0.1287 -0.3816  1.8669
12053SOL     OW44936   7.072   8.037   6.447  0.1665  0.1937  0.0223
12053SOL    HW144937   7.109   7.956   6.411  0.3238 -0.3276  1.2898
12053SOL    HW244938   7.004   8.062   6.384  0.0084 -1.0135 -0.3298
12054SOL     OW44939  11.957   3.638   9.555 -0.1750  0.3169 -0.3259
12054SOL    HW144940  11.881   3.651   9.497 -2.6066  2.1606  2.9637
12054SOL    HW244941  12.022   3.701   9.523 -0.9367  0.4016 -1.7969
12055SOL     OW44942   7.110  10.331   6.940 -0.3135 -0.1053 -0.3888
12055SOL    HW144943   7.090  10.239   6.953 -1.8294  0.1544 -0.7469
12055SOL    HW244944   7.200  10.340   6.971 -0.9873 -1.1693  2.0998
12056SOL     OW44945   5.290   2.419   9.280  0.4818 -0.1433 -0.2526
12056SOL    HW144946   5.228   2.490   9.301 -0.3752 -0.8937 -0.1970
12056SOL    HW244947   5.240   2.339   9.295  0.7015 -0.7534 -2.4933
12057SOL     OW44948   3.155   4.733   6.222 -0.5716  0.2993 -0.5835
12057SOL    HW144949   3.081   4.782   6.255 -0.2706  0.8705 -0.7503
12057SOL    HW244950   3.229   4.793   6.228  0.0658 -0.5300  0.3843
12058SOL     OW44951  11.606  10.614   1.646  0.6689 -0.2141  0.2560
12058SOL    HW144952  11.538  10.600   1.713 -1.8202 -0.2099 -2.0765
12058SOL    HW244953  11.632  10.706   1.657 -2.8956  1.1812 -1.3252
12059SOL     OW44954   4.793   5.058  12.172  0.1481 -0.0430 -0.2241
12059SOL    HW144955   4.797   5.102  12.088 -0.6265  0.4953  0.0037
12059SOL    HW244956   4.755   4.972  12.153  1.8554 -0.7213 -0.6975
12060SOL     OW44957   4.750  11.237   4.240 -0.4681  0.9287 -0.0419
12060SOL    HW144958   4.704  11.316   4.267  0.8996  1.2455  1.4719
12060SOL    HW244959   4.819  11.268   4.181  1.0155  1.0902  1.7133
12061SOL     OW44960  10.582   8.306  12.115  0.3238 -0.1069  0.6208
12061SOL    HW144961  10.560   8.290  12.207 -0.7860  1.8108  0.7509
12061SOL    HW244962  10.675   8.328  12.115 -0.2651  2.6881  1.7499
12062SOL     OW44963   3.772   3.280   7.830  0.0638  0.7373  0.4574
12062SOL    HW144964   3.748   3.367   7.797 -2.2324  0.6166  1.5610
12062SOL    HW244965   3.851   3.257   7.782  1.7699  4.1311  1.3258
12063SOL     OW44966   7.519   8.763   2.972  0.1845  0.3520 -0.3651
12063SOL    HW144967   7.546   8.839   2.922  0.1634 -0.7492 -2.1394
12063SOL    HW244968   7.560   8.689   2.928  2.2235 -0.5489  2.7025
12064SOL     OW44969   3.576  12.054   1.672  0.4141  0.2728 -0.4994
12064SOL    HW144970   3.667  12.025   1.679  0.2390 -0.0484  0.7094
12064SOL    HW244971   3.544  12.016   1.591  1.0478 -0.4976 -0.3958
12065SOL     OW44972   2.727   0.763   4.565  0.4890 -0.2544  0.3259
12065SOL    HW144973   2.750   0.707   4.639  1.2217  0.3602  0.5781
12065SOL    HW244974   2.800   0.755   4.504  0.6373  0.4538  0.3931
12066SOL     OW44975  11.648   7.995   5.906 -0.0917 -0.1067 -0.2915
12066SOL    HW144976  11.671   7.937   5.833 -0.9973 -1.5388  0.5131
12066SOL    HW244977  11.603   8.069   5.865  1.7322  0.4472 -1.4124
12067SOL     OW44978   0.556  11.060   2.681  0.2570 -0.4441 -0.0287
12067SOL    HW144979   0.616  10.993   2.715 -0.0564 -0.5297  0.3579
12067SOL    HW244980   0.484  11.010   2.641 -0.7105 -0.3543  1.5463
12068SOL     OW44981   0.246  11.419   4.899  0.3406 -0.1142 -0.1754
12068SOL    HW144982   0.324  11.388   4.944  0.5884  1.6550  0.7225
12068SOL    HW244983   0.279  11.463   4.821  0.0546 -1.3096 -0.9996
12069SOL     OW44984   0.899   7.034  11.114  0.5725 -0.7507 -0.2169
12069SOL    HW144985   0.825   6.973  11.113 -0.0124 -0.3256  3.2274
12069SOL    HW244986   0.964   6.992  11.170  0.9007  0.9454  0.7455
12070SOL     OW44987   3.335   1.609   8.379  0.2875 -0.5032 -0.7302
12070SOL    HW144988   3.269   1.616   8.311  0.0879  0.1101 -0.4853
12070SOL    HW244989   3.390   1.535   8.353 -0.3746 -0.8925 -1.0375
12071SOL     OW44990   0.960  12.130   7.331 -0.5375 -0.2470  0.7324
12071SOL    HW144991   1.010  12.060   7.288  0.7220 -0.4546  2.4241
12071SOL    HW244992   0.938  12.095   7.417  0.7853  1.6367  1.9254
12072SOL     OW44993   7.941   7.579   1.491 -0.1908  0.8356  0.0864
12072SOL    HW144994   7.972   7.510   1.550  0.4267  2.8517  2.2359
12072SOL    HW244995   7.867   7.539   1.445 -0.4643 -0.9580  1.9524
12073SOL     OW44996   0.833   1.540  10.633 -0.5625 -0.3027  0.1952
12073SOL    HW144997   0.903   1.551  10.569 -0.7646  1.4869  0.2170
12073SOL    HW244998   0.772   1.478  10.593  0.8199 -1.6082  0.0186
12074SOL     OW44999   7.941  10.578   3.647 -0.1097 -0.4865  0.4935
12074SOL    HW145000   7.892  10.532   3.579 -0.7121 -0.1365  0.6860
12074SOL    HW245001   7.885  10.575   3.724  0.2357 -0.2124  0.7623
12075SOL     OW45002  12.465   3.543  12.279 -0.3269 -0.1441  0.0139
12075SOL    HW145003  12.372   3.523  12.289 -0.2833 -0.7488 -0.7089
12075SOL    HW245004  12.472   3.584  12.193 -0.1029  1.1204  0.6125
12076SOL     OW45005   6.546   7.435  12.186  0.3809  0.1236  0.0506
12076SOL    HW145006   6.480   7.394  12.130  0.0231  1.4836 -0.5616
12076SOL    HW245007   6.604   7.481  12.124  0.2810  1.2195  0.7457
12077SOL     OW45008   3.720   2.959   7.994  0.3064  0.1404 -0.1144
12077SOL    HW145009   3.659   2.977   7.923  1.5833  0.3904 -1.1792
12077SOL    HW245010   3.664   2.940   8.069 -1.0719  0.8116 -0.9339
12078SOL     OW45011  12.149   9.251   5.905  0.0631 -0.1495  0.0946
12078SOL    HW145012  12.062   9.246   5.943  0.2926 -0.3700  0.5937
12078SOL    HW245013  12.146   9.193   5.829 -1.4536  2.8375 -2.3961
12079SOL     OW45014   3.381   4.011   3.389  0.3698  0.0193  0.1349
12079SOL    HW145015   3.324   4.087   3.374  1.5108  1.1825  1.4064
12079SOL    HW245016   3.470   4.045   3.377  0.9539 -0.8582  1.6708
12080SOL     OW45017   3.375   7.153   9.204 -0.3970 -0.1475 -0.4653
12080SOL    HW145018   3.429   7.229   9.182 -0.1018  0.0398  0.8342
12080SOL    HW245019   3.304   7.190   9.258  0.0025 -0.8462  0.5578
12081SOL     OW45020  12.203   6.845  10.576  0.0403  0.1409 -0.1602
12081SOL    HW145021  12.194   6.893  10.658  1.1157  2.0729 -1.1204
12081SOL    HW245022  12.277   6.886  10.532  1.3033 -2.6741 -0.8979
12082SOL     OW45023   7.244   6.201   3.820 -0.6235  0.6440  0.0595
12082SOL    HW145024   7.280   6.239   3.740 -0.6371  0.5016 -0.0159
12082SOL    HW245025   7.292   6.118   3.830 -1.6720 -0.0769 -0.6341
12083SOL     OW45026  11.726   8.593   5.892  0.0492  0.2172 -0.6202
12083SOL    HW145027  11.754   8.570   5.981  0.9469  0.2627 -0.8821
12083SOL    HW245028  11.800   8.642   5.855  0.0715 -0.5910 -1.7028
12084SOL     OW45029   1.521   7.921   6.614 -0.6301 -0.5991  0.2636
12084SOL    HW145030   1.480   7.996   6.659 -1.0520  0.4468 -1.7271
12084SOL    HW245031   1.569   7.875   6.683 -0.2879  1.5459  1.5635
12085SOL     OW45032   7.774   5.840  12.108  0.0642 -0.2631  0.2811
12085SOL    HW145033   7.792   5.895  12.031  0.9624  1.3880  1.5973
12085SOL    HW245034   7.847   5.857  12.167 -0.7896 -1.2005  1.6699
12086SOL     OW45035  11.415   8.920   5.317  0.2053 -0.0051 -0.1545
12086SOL    HW145036  11.453   9.008   5.318  1.6057 -0.5984  0.3568
12086SOL    HW245037  11.356   8.919   5.392  1.5536 -0.0578  0.9386
12087SOL     OW45038   0.429   0.665   6.792 -0.7087  0.5855 -0.2554
12087SOL    HW145039   0.338   0.650   6.819 -0.0408 -2.7947  0.5740
12087SOL    HW245040   0.450   0.589   6.738  1.8170  1.0191  0.0289
12088SOL     OW45041   0.253  12.028   9.688  0.3820  0.6245 -0.1908
12088SOL    HW145042   0.208  11.979   9.619  0.6262 -0.6014  0.4959
12088SOL    HW245043   0.190  12.095   9.715 -0.7789 -0.5910  0.2363
12089SOL     OW45044   5.281   2.989   0.963  0.7981  0.0835 -0.0183
12089SOL    HW145045   5.228   3.002   1.042 -1.1661 -2.1084 -0.8568
12089SOL    HW245046   5.311   2.899   0.969  0.0441 -0.3551 -2.0386
12090SOL     OW45047   7.421   6.354  11.520  0.4375 -0.1644  0.1302
12090SOL    HW145048   7.398   6.427  11.462 -3.0657 -1.0215  0.2158
12090SOL    HW245049   7.438   6.395  11.605  0.6679  0.7228 -0.3401
12091SOL     OW45050   6.135   8.557   7.789  0.2775 -0.0950 -0.2851
12091SOL    HW145051   6.196   8.578   7.860  0.5965 -1.1576 -0.2260
12091SOL    HW245052   6.055   8.530   7.834  0.8309 -1.8255 -0.2745
12092SOL     OW45053   7.187   8.257  10.632 -0.9702  0.3961 -0.2588
12092SOL    HW145054   7.167   8.346  10.662  0.5292  0.9974 -0.9127
12092SOL    HW245055   7.189   8.204  10.711 -0.2670  1.2991  0.3469
12093SOL     OW45056   1.934   5.580  11.629  0.1385 -0.7275  0.0356
12093SOL    HW145057   1.899   5.505  11.677 -1.6738  0.5796  0.8539
12093SOL    HW245058   1.858   5.637  11.614  1.6384  1.4880  0.4309
12094SOL     OW45059   6.778   6.736   5.023 -0.0841 -0.2486  0.4357
12094SOL    HW145060   6.699   6.759   4.976 -0.6098 -1.8217  0.5049
12094SOL    HW245061   6.749   6.719   5.113  0.8863  2.6261  1.4353
12095SOL     OW45062  10.481   5.374   4.252 -0.1302  0.2532 -0.5729
12095SOL    HW145063  10.505   5.341   4.339  0.7509  3.8711  0.7407
12095SOL    HW245064  10.548   5.339   4.194 -0.0290 -1.2873  0.4232
12096SOL     OW45065   3.418  11.728   9.475 -0.1403 -0.4485  0.4062
12096SOL    HW145066   3.390  11.639   9.453  2.1934 -0.8594 -1.2297
12096SOL    HW245067   3.343  11.783   9.452 -0.0595 -1.5561 -2.9243
12097SOL     OW45068   6.396   5.318   4.012 -0.0385 -0.2226 -0.2704
12097SOL    HW145069   6.419   5.225   4.020  1.4641  0.1334  0.0392
12097SOL    HW245070   6.481   5.362   4.006 -0.7461  1.0887 -0.9735
12098SOL     OW45071   3.352   6.793   8.929  0.0712 -0.6521  0.6370
12098SOL    HW145072   3.266   6.826   8.954  0.4506 -0.6055  1.9510
12098SOL    HW245073   3.408   6.810   9.005  0.9068 -1.9522  0.3523
12099SOL     OW45074   1.743   2.592  10.617 -0.2449  0.6689 -0.1225
12099SOL    HW145075   1.738   2.511  10.567  1.6147  0.7814 -0.5288
12099SOL    HW245076   1.755   2.564  10.708 -0.6998  0.4963 -0.1133
12100SOL     OW45077   7.989   2.200   0.059  0.3380  0.0967  0.2071
12100SOL    HW145078   8.020   2.173  -0.027  0.8881  0.1334  0.3898
12100SOL    HW245079   8.059   2.255   0.094 -0.0798  0.4595  0.4893
12101SOL     OW45080  10.497   2.535   8.821 -0.1158 -0.0495 -0.3368
12101SOL    HW145081  10.510   2.520   8.915  1.7730  1.0128 -0.3844
12101SOL    HW245082  10.422   2.594   8.816 -0.1610 -0.0241  0.5079
12102SOL     OW45083  10.642   1.245  10.004  0.2682  0.2020 -0.5520
12102SOL    HW145084  10.678   1.291  10.080  0.2843  0.2192 -0.5711
12102SOL    HW245085  10.606   1.314   9.948 -2.4696  0.0375  0.8276
12103SOL     OW45086   1.249  10.525   9.521  0.4127 -0.0463 -0.0905
12103SOL    HW145087   1.208  10.550   9.438  1.2945 -0.4204 -0.6574
12103SOL    HW245088   1.304  10.601   9.544 -0.3922  0.3620  0.5519
12104SOL     OW45089   8.977   8.452   8.787 -0.1484  0.4648 -0.0782
12104SOL    HW145090   9.011   8.362   8.781  0.0337  0.6185 -2.6321
12104SOL    HW245091   8.884   8.444   8.768 -0.0063  0.8454 -1.0141
12105SOL     OW45092  10.158   6.386   2.152  0.3025 -0.5363 -0.1133
12105SOL    HW145093  10.217   6.453   2.118  1.3142 -0.6696  1.3283
12105SOL    HW245094  10.098   6.434   2.210 -0.6706 -0.4967 -1.1060
12106SOL     OW45095   8.634   0.718   6.321  0.1175  0.0099 -0.8260
12106SOL    HW145096   8.638   0.662   6.399  1.7761 -1.3532 -1.8421
12106SOL    HW245097   8.724   0.745   6.305 -0.1044 -0.1772 -2.5945
12107SOL     OW45098  12.224  10.783   2.274 -0.0607  0.5850  0.0433
12107SOL    HW145099  12.255  10.765   2.185 -1.1117 -0.4987 -0.1214
12107SOL    HW245100  12.195  10.874   2.270  1.2332  1.0133 -0.3071
12108SOL     OW45101   6.875   3.762   4.662 -0.3474  0.2300  0.5984
12108SOL    HW145102   6.844   3.672   4.659 -2.2606  0.7462  2.4180
12108SOL    HW245103   6.838   3.803   4.583 -0.0142 -0.3930  0.1107
12109SOL     OW45104   1.698   4.564   6.561  0.0453  0.5483 -0.3098
12109SOL    HW145105   1.758   4.512   6.613  0.5665 -0.1053 -1.5261
12109SOL    HW245106   1.655   4.501   6.503 -0.0803  1.3237 -1.0902
12110SOL     OW45107   1.565   6.841   8.798 -0.0215  0.9222  0.4599
12110SOL    HW145108   1.628   6.768   8.799 -0.4942  0.4971  0.0840
12110SOL    HW245109   1.561   6.867   8.706 -1.9150 -0.4200  0.0920
12111SOL     OW45110   1.999   7.648  10.426  0.1676  0.2109  0.0904
12111SOL    HW145111   1.974   7.700  10.349  2.2028  1.6161  0.2927
12111SOL    HW245112   1.916   7.619  10.464 -1.0963  3.1743 -0.1449
12112SOL     OW45113  12.140   0.135   3.893  0.4573 -0.5384 -0.5536
12112SOL    HW145114  12.085   0.058   3.884 -1.4107  0.8084 -1.2287
12112SOL    HW245115  12.124   0.165   3.983 -0.8017  0.4432 -1.0717
12113SOL     OW45116   4.192  10.867   1.914  0.0521  0.5311 -0.0482
12113SOL    HW145117   4.125  10.825   1.860  0.2585  0.6651 -0.4108
12113SOL    HW245118   4.160  10.956   1.929 -0.6483  0.0991  1.1749
12114SOL     OW45119   0.291   4.870   6.037 -0.5281  0.1710  0.2490
12114SOL    HW145120   0.316   4.908   5.953 -0.0264 -1.8473 -0.5647
12114SOL    HW245121   0.254   4.944   6.086  0.5414  1.7161 -1.1558
12115SOL     OW45122  10.564   5.219   3.185  0.0080 -0.8738 -0.2030
12115SOL    HW145123  10.657   5.200   3.167 -0.2456 -0.7443 -1.8671
12115SOL    HW245124  10.529   5.244   3.099 -0.7944  2.5026  0.9566
12116SOL     OW45125   6.258   0.406  12.240 -0.3332 -1.0492 -0.1955
12116SOL    HW145126   6.296   0.477  12.292 -0.4370 -1.0935 -0.0585
12116SOL    HW245127   6.176   0.442  12.206 -0.3029 -1.0459 -0.2652
12117SOL     OW45128  10.368   9.318  11.932  0.0300  0.1403  0.3576
12117SOL    HW145129  10.283   9.361  11.920 -0.7389 -1.4078  0.0254
12117SOL    HW245130  10.355   9.258  12.005  0.6058 -0.6480 -0.1707
12118SOL     OW45131  11.324  12.494  11.780  0.6814  0.0012  0.7084
12118SOL    HW145132  11.392  12.526  11.721 -0.3950  0.9916 -0.0565
12118SOL    HW245133  11.314  12.563  11.846 -0.6402  0.6264 -0.0978
12119SOL     OW45134   4.047   1.385   8.073  0.5331  0.1531  0.0539
12119SOL    HW145135   4.061   1.338   8.155 -1.0752  0.0490  0.3119
12119SOL    HW245136   4.071   1.475   8.093  2.0245 -0.2092  0.0418
12120SOL     OW45137   6.266   8.357   5.495  0.3175 -0.2868  0.1017
12120SOL    HW145138   6.221   8.350   5.411  2.3181  0.7345 -1.1167
12120SOL    HW245139   6.270   8.267   5.527  0.5229 -0.8780 -1.4758
12121SOL     OW45140   5.591   2.309   0.333 -0.0192 -0.3151  0.0760
12121SOL    HW145141   5.677   2.295   0.374 -1.6385 -1.4457  3.4828
12121SOL    HW245142   5.580   2.233   0.276  1.6940  0.5171 -1.4931
12122SOL     OW45143  11.220  12.188   1.867 -0.1799  0.5562  0.3388
12122SOL    HW145144  11.288  12.194   1.800 -0.0430  2.0841  0.5860
12122SOL    HW245145  11.143  12.156   1.820  0.3400  0.1351 -0.2270
12123SOL     OW45146   8.526   2.056   6.031  0.0620  0.2021 -0.0430
12123SOL    HW145147   8.481   2.069   6.114  0.3482  1.6959 -0.0832
12123SOL    HW245148   8.488   1.977   5.994  0.4172 -0.8903  1.8189
12124SOL     OW45149   3.805  10.097  11.457 -0.0175  0.1778 -0.3850
12124SOL    HW145150   3.748  10.162  11.498 -0.1555 -0.8253  1.0813
12124SOL    HW245151   3.883  10.095  11.512 -0.0901 -1.0126 -0.3042
12125SOL     OW45152   8.378   5.139   0.941  0.1930  0.3132  0.4467
12125SOL    HW145153   8.300   5.090   0.966  0.7692  0.7357  3.5193
12125SOL    HW245154   8.430   5.078   0.889 -0.7789 -1.0698  1.0526
12126SOL     OW45155   0.090  11.309  12.411  0.4891  0.0382 -0.3484
12126SOL    HW145156   0.073  11.319  12.505 -0.6841  0.0743 -0.5489
12126SOL    HW245157   0.120  11.219  12.402  1.2477  0.2366  0.1463
12127SOL     OW45158   7.835   3.802   5.444  0.4544 -0.4434 -0.2902
12127SOL    HW145159   7.921   3.843   5.428  0.8301 -1.1814 -0.1924
12127SOL    HW245160   7.796   3.855   5.514  0.7682 -0.0067 -0.4444
12128SOL     OW45161  10.647   9.435   4.601 -0.2531  0.0985 -0.2266
12128SOL    HW145162  10.675   9.512   4.553 -0.3425 -1.1584 -2.4357
12128SOL    HW245163  10.552   9.444   4.608  0.0618  2.3551  3.6513
12129SOL     OW45164  12.022   1.434  11.147  0.0499 -0.5869 -0.1695
12129SOL    HW145165  12.101   1.457  11.196 -1.4600  2.4773  1.0934
12129SOL    HW245166  11.959   1.409  11.214 -1.2678  1.0676 -0.7526
12130SOL     OW45167   7.407   3.123   0.037 -0.3267 -0.0352 -0.3165
12130SOL    HW145168   7.481   3.076  -0.002  0.9049  0.8408  0.8664
12130SOL    HW245169   7.428   3.215   0.023 -1.1658  0.2256  0.1143
12131SOL     OW45170  10.127   1.415   4.979 -0.0833 -0.2718  0.8933
12131SOL    HW145171  10.189   1.384   5.045  0.3525 -2.4773 -0.4656
12131SOL    HW245172  10.181   1.462   4.916 -0.2535  0.3438  1.1956
12132SOL     OW45173   1.757   0.288   5.397 -0.1006  0.5521 -0.2227
12132SOL    HW145174   1.842   0.330   5.382 -0.1115  0.9592  0.7347
12132SOL    HW245175   1.768   0.242   5.480 -0.5179 -0.2143 -0.5872
12133SOL     OW45176   7.753   4.801   3.119  0.0086 -1.0110  0.1656
12133SOL    HW145177   7.772   4.831   3.030 -1.3624 -1.4806 -0.3181
12133SOL    HW245178   7.673   4.847   3.143  0.1964 -1.1336  1.0328
12134SOL     OW45179   9.133  12.353  11.071  0.0472  0.0197 -0.4979
12134SOL    HW145180   9.088  12.387  10.994  0.4461  1.2293 -0.2104
12134SOL    HW245181   9.226  12.353  11.046  0.0742 -0.7250 -0.4320
12135SOL     OW45182   6.186  12.086   7.276 -0.2598  0.0962  0.2406
12135SOL    HW145183   6.100  12.060   7.309 -0.4335 -0.4107 -0.6085
12135SOL    HW245184   6.212  12.016   7.217 -0.3590  1.3855 -1.4173
12136SOL     OW45185   2.247   3.324   2.465  0.0764  0.1813 -0.4046
12136SOL    HW145186   2.295   3.388   2.518  0.6363 -1.3740  1.0267
12136SOL    HW245187   2.197   3.273   2.528 -1.2167 -0.1221 -1.6300
12137SOL     OW45188   2.734   1.346   9.670 -0.1505  0.7418  0.3427
12137SOL    HW145189   2.698   1.323   9.755  2.8761  0.7542  1.7631
12137SOL    HW245190   2.725   1.441   9.664  1.4523  1.0280  1.6750
12138SOL     OW45191   3.322   2.097   0.189  0.0656  0.0371 -0.1857
12138SOL    HW145192   3.375   2.173   0.215 -1.6910  1.1737  0.1921
12138SOL    HW245193   3.303   2.051   0.271 -1.1776  0.7494 -0.0616
12139SOL     OW45194  10.062   2.893  10.989 -0.9178  0.1767  0.2554
12139SOL    HW145195  10.117   2.966  10.960 -0.0822 -0.1033  1.0886
12139SOL    HW245196  10.123   2.823  11.010 -1.4985  0.1738  2.1123
12140SOL     OW45197   6.122   1.533   0.112  0.0931 -0.2023 -0.2117
12140SOL    HW145198   6.216   1.545   0.094  0.3295 -0.9373  0.4748
12140SOL    HW245199   6.079   1.560   0.031  0.9764 -1.2231 -1.0550
12141SOL     OW45200   1.659   1.293   2.735 -0.0777  0.5525  0.3749
12141SOL    HW145201   1.577   1.250   2.758  0.0427 -0.1668 -0.4812
12141SOL    HW245202   1.658   1.375   2.785 -0.4065 -0.3227  1.8538
12142SOL     OW45203   5.931   9.402   4.255  0.0805 -0.2020 -0.0661
12142SOL    HW145204   5.872   9.465   4.212 -1.9910  0.3776  3.3023
12142SOL    HW245205   5.915   9.319   4.209 -0.0267  0.8557 -2.0577
12143SOL     OW45206  10.735   2.644   2.862 -0.2697 -0.5055 -0.1340
12143SOL    HW145207  10.663   2.583   2.848 -0.9773  0.4756 -0.9136
12143SOL    HW245208  10.703   2.704   2.929 -0.1116 -0.1788 -0.3491
12144SOL     OW45209   9.057   7.181   4.145  0.3298 -0.4580 -0.2208
12144SOL    HW145210   9.109   7.117   4.096  0.4577  0.6307 -1.5358
12144SOL    HW245211   9.122   7.233   4.192  0.4692  0.7201 -1.6440
12145SOL     OW45212  11.928   6.476  10.975 -0.5178  0.0270 -0.1108
12145SOL    HW145213  11.950   6.387  10.947 -2.8127 -0.1700 -1.5009
12145SOL    HW245214  11.959   6.481  11.065  0.8507 -1.7124 -0.4317
12146SOL     OW45215   7.416   1.167   8.060  0.1470 -0.7253 -0.4229
12146SOL    HW145216   7.489   1.211   8.105  0.4046  0.3522 -1.8293
12146SOL    HW245217   7.398   1.090   8.114  1.6021 -0.4259  0.5574
12147SOL     OW45218  10.224   4.068   6.292 -0.3589  0.6427 -0.8360
12147SOL    HW145219  10.282   4.104   6.359 -0.2755 -0.3685 -0.3473
12147SOL    HW245220  10.267   4.089   6.209  1.1608 -0.7652 -0.4680
12148SOL     OW45221   3.069  12.229   1.202  0.0743 -0.1180  0.3626
12148SOL    HW145222   2.992  12.198   1.250 -0.6262 -0.3628 -0.8990
12148SOL    HW245223   3.141  12.219   1.265 -0.2899 -3.2649  0.4452
12149SOL     OW45224   3.490  10.148   8.957 -0.0074 -0.4641  0.0795
12149SOL    HW145225   3.529  10.064   8.979  1.7696  0.4104  0.3962
12149SOL    HW245226   3.396  10.129   8.948 -0.0452 -1.9619  2.7038
12150SOL     OW45227   3.819   8.427  11.576 -0.4369  0.1944  0.9203
12150SOL    HW145228   3.757   8.485  11.531  0.5595  1.1668  0.7448
12150SOL    HW245229   3.837   8.471  11.659  0.5609  0.3280  0.6577
12151SOL     OW45230   1.220   7.922   1.531  0.2647 -0.1100 -0.1158
12151SOL    HW145231   1.168   7.914   1.611  0.4367 -0.1538 -0.0080
12151SOL    HW245232   1.191   7.849   1.476  1.3827 -1.1345  0.6083
12152SOL     OW45233  10.515   5.550   7.036  0.5217 -0.3421  0.8779
12152SOL    HW145234  10.433   5.501   7.040  0.5391 -0.3482  1.1635
12152SOL    HW245235  10.581   5.490   7.071  0.7663 -0.5801  0.0312
12153SOL     OW45236   2.546   7.425  12.283  0.2521 -0.4395 -0.3358
12153SOL    HW145237   2.614   7.365  12.252 -0.6854 -0.6584 -2.1233
12153SOL    HW245238   2.502   7.377  12.352  1.0753 -0.8207 -0.0580
12154SOL     OW45239   0.880   9.114   8.673  0.1173 -0.4639 -0.1751
12154SOL    HW145240   0.882   9.092   8.766 -0.2792  0.0704 -0.0341
12154SOL    HW245241   0.972   9.118   8.647  0.3349  1.5645  0.7354
12155SOL     OW45242   0.078   6.120   8.662  0.3242  0.3363  0.1456
12155SOL    HW145243  -0.005   6.167   8.664 -0.9560 -1.6839 -1.1327
12155SOL    HW245244   0.081   6.081   8.575  2.3562 -0.1402  0.3804
12156SOL     OW45245   6.333   7.724   8.043  0.4841 -0.1698 -0.5217
12156SOL    HW145246   6.256   7.763   8.085  0.7573 -0.8864  0.7377
12156SOL    HW245247   6.298   7.647   7.998  0.5616 -1.1796  1.0320
12157SOL     OW45248   5.868   4.229   2.653  0.3417 -0.4156  0.5274
12157SOL    HW145249   5.802   4.175   2.696  0.3167 -0.7649  0.0598
12157SOL    HW245250   5.851   4.318   2.683 -2.6572  0.1543 -2.3055
12158SOL     OW45251   3.447   3.305   3.620  0.6847 -0.3614  0.2028
12158SOL    HW145252   3.426   3.397   3.635 -0.2626 -0.2420 -1.5224
12158SOL    HW245253   3.376   3.273   3.564  1.0300 -2.1353  0.7112
12159SOL     OW45254   7.931   1.047   9.956  0.0643 -0.1897  0.5447
12159SOL    HW145255   7.966   0.993   9.885  0.0267 -1.4957  1.4826
12159SOL    HW245256   7.993   1.037  10.028  0.3273  1.4589  0.5907
12160SOL     OW45257   6.736  10.741   3.713  0.1101  0.8034 -0.1684
12160SOL    HW145258   6.809  10.773   3.766 -0.2824 -0.0041  0.8929
12160SOL    HW245259   6.727  10.806   3.643  0.4577  2.0607  0.9177
12161SOL     OW45260   6.634  11.137   6.539 -0.0876 -0.5783  0.2408
12161SOL    HW145261   6.640  11.059   6.483  0.5563 -0.5341  0.2337
12161SOL    HW245262   6.621  11.210   6.477 -0.2087 -0.6239  0.2120
12162SOL     OW45263  11.420   2.231  12.412  0.1295 -0.5953 -0.3492
12162SOL    HW145264  11.444   2.248  12.321  0.3929 -0.6502 -0.2927
12162SOL    HW245265  11.409   2.318  12.450  1.2598 -0.5317 -0.1162
12163SOL     OW45266   0.641  10.185  10.502 -0.0789 -0.0310  0.4495
12163SOL    HW145267   0.665  10.093  10.493 -0.2969 -0.1132  0.6934
12163SOL    HW245268   0.689  10.215  10.579  0.4819  0.2259 -0.0037
12164SOL     OW45269   4.194   0.215  11.072 -0.3268 -0.7350  0.6239
12164SOL    HW145270   4.176   0.270  11.149 -0.7222  1.8294 -1.1652
12164SOL    HW245271   4.109   0.205  11.029  0.4155  1.2381 -1.4967
12165SOL     OW45272   2.113   9.647   4.024  0.4138 -0.1036  0.0640
12165SOL    HW145273   2.149   9.736   4.015  2.3931 -0.8428  0.1697
12165SOL    HW245274   2.190   9.591   4.036 -0.7576 -1.9057 -0.4159
12166SOL     OW45275  11.584   3.174   8.732  0.3924  0.2691  0.5381
12166SOL    HW145276  11.665   3.142   8.772  0.5036 -1.9554 -1.2616
12166SOL    HW245277  11.606   3.185   8.640 -1.0558  0.7704  0.2314
12167SOL     OW45278   0.693   1.595  11.681  0.1425  0.1412  0.1791
12167SOL    HW145279   0.619   1.593  11.620 -1.9290 -0.1477  2.5587
12167SOL    HW245280   0.669   1.660  11.746  1.9354 -0.0837  1.1405
12168SOL     OW45281   9.302   4.661   9.261  0.1460 -0.0970  0.1921
12168SOL    HW145282   9.306   4.582   9.315 -0.5698 -0.6506 -0.5332
12168SOL    HW245283   9.328   4.732   9.320 -2.9712 -0.2894  2.0275
12169SOL     OW45284   9.084  10.216   1.150 -0.0087  0.1518 -0.5502
12169SOL    HW145285   9.115  10.165   1.225 -0.7895  0.6610  0.1330
12169SOL    HW245286   9.058  10.151   1.085  0.4693 -0.2944 -0.3019
12170SOL     OW45287  10.977   2.803   7.754  0.6892 -0.0201  0.2093
12170SOL    HW145288  11.069   2.783   7.773  0.1412 -1.1266  1.9908
12170SOL    HW245289  10.939   2.718   7.730 -0.1538  0.1659  0.8472
12171SOL     OW45290   1.964   9.283   7.831 -0.0288  0.1514 -0.4864
12171SOL    HW145291   1.898   9.337   7.788 -1.0693  0.1067  0.9561
12171SOL    HW245292   1.999   9.227   7.762 -1.8213 -0.1238 -1.2239
12172SOL     OW45293   4.070   9.877   4.892 -0.1987 -0.0630  0.8195
12172SOL    HW145294   4.006   9.936   4.932 -0.6900  0.0394 -0.0708
12172SOL    HW245295   4.061   9.795   4.940 -1.5424 -0.2784  0.2482
12173SOL     OW45296   9.792   7.763   2.154 -0.2164  0.6856  0.9023
12173SOL    HW145297   9.834   7.731   2.234  2.6745  0.2937 -0.6476
12173SOL    HW245298   9.749   7.686   2.117  0.9580  0.1718  0.5984
12174SOL     OW45299   8.476  11.265   3.403 -0.6580 -0.1322 -0.2986
12174SOL    HW145300   8.417  11.210   3.351 -1.1551 -0.6674  0.7926
12174SOL    HW245301   8.563  11.232   3.383 -0.6956  0.5718 -1.8204
12175SOL     OW45302   2.369   1.545   8.996  0.1084 -0.6345 -0.0469
12175SOL    HW145303   2.280   1.537   9.031 -0.5609  0.1371 -1.4789
12175SOL    HW245304   2.357   1.559   8.902  1.7713 -0.9980 -0.3440
12176SOL     OW45305   2.269  11.198   3.063 -0.6681  0.1240 -0.9538
12176SOL    HW145306   2.265  11.289   3.091 -0.1093 -0.1413  0.0075
12176SOL    HW245307   2.234  11.200   2.973 -0.9445  1.2275 -0.8434
12177SOL     OW45308   1.196   0.723   0.561  0.0777 -0.2147 -0.3491
12177SOL    HW145309   1.242   0.763   0.488 -0.6692 -0.3101 -0.8739
12177SOL    HW245310   1.255   0.735   0.636 -0.0534  1.7172 -0.5161
12178SOL     OW45311  10.197  11.656   9.500 -0.0840  0.5240 -0.4520
12178SOL    HW145312  10.259  11.669   9.571 -0.0695 -0.6044 -0.2307
12178SOL    HW245313  10.192  11.741   9.456  0.5520  1.0034  0.3711
12179SOL     OW45314   0.191   8.241   2.550 -0.1858 -0.0867 -0.0001
12179SOL    HW145315   0.241   8.229   2.469  1.0371  1.5551  0.4673
12179SOL    HW245316   0.122   8.304   2.526 -0.6248 -0.5914 -0.0745
12180SOL     OW45317   0.865   2.060   3.576  0.7667 -0.0963 -0.2221
12180SOL    HW145318   0.811   1.989   3.541 -1.3919  1.5158 -0.3991
12180SOL    HW245319   0.909   2.097   3.499  1.2865 -0.7323 -0.2383
12181SOL     OW45320   2.261   5.725   8.996 -0.4595 -0.7107  0.3355
12181SOL    HW145321   2.233   5.800   9.049  0.3226 -0.1457 -0.0398
12181SOL    HW245322   2.253   5.650   9.055 -0.4158 -0.2103  0.9906
12182SOL     OW45323   1.774   2.791  11.448  0.1493 -0.3132  0.0588
12182SOL    HW145324   1.823   2.730  11.393  0.2697 -0.5926  0.4701
12182SOL    HW245325   1.742   2.737  11.521  1.2500  0.3255  1.0494
12183SOL     OW45326   3.394   0.338   0.910  0.0737  0.3430  0.0910
12183SOL    HW145327   3.386   0.266   0.972 -0.3534 -0.8989 -1.3373
12183SOL    HW245328   3.311   0.385   0.917  0.1467  0.3854  0.6660
12184SOL     OW45329   9.262   7.834  12.586 -0.1340 -0.1176 -0.4227
12184SOL    HW145330   9.212   7.897  12.535  0.7891 -0.0318 -1.2702
12184SOL    HW245331   9.337   7.884  12.620 -0.8928 -0.0916  1.3274
12185SOL     OW45332   9.967   5.786   2.857  0.3116 -0.7055  0.4617
12185SOL    HW145333  10.022   5.861   2.879  0.4428 -1.1025  1.5450
12185SOL    HW245334   9.885   5.803   2.903 -0.2356 -0.4857 -0.5433
12186SOL     OW45335  10.972   5.033   0.172 -0.2544 -0.5143 -0.3187
12186SOL    HW145336  11.042   4.976   0.143 -0.6736 -0.7179 -0.9540
12186SOL    HW245337  10.977   5.031   0.268  0.2278 -0.9853 -0.3490
12187SOL     OW45338   6.866   6.717   8.519 -0.1540  0.2590 -0.2870
12187SOL    HW145339   6.928   6.783   8.490  0.0487  0.4718  0.6059
12187SOL    HW245340   6.920   6.644   8.548 -0.2831  0.6037  0.8819
12188SOL     OW45341  10.599   1.916   2.798 -0.2938 -0.2333 -0.4738
12188SOL    HW145342  10.646   1.869   2.729  0.9344  0.5367 -0.1862
12188SOL    HW245343  10.611   1.862   2.876 -1.3935 -0.9272 -0.7566
12189SOL     OW45344  10.883   2.003   8.345  0.5484  0.2399 -0.2987
12189SOL    HW145345  10.868   1.956   8.428 -0.5726  3.7970  1.7443
12189SOL    HW245346  10.973   2.034   8.352  0.0880  1.5206  0.1989
12190SOL     OW45347   1.824   9.673   1.457 -0.3788  0.4135 -0.1699
12190SOL    HW145348   1.768   9.690   1.532 -1.0594  0.4438 -0.6742
12190SOL    HW245349   1.764   9.656   1.385  0.2535 -0.8060 -0.4486
12191SOL     OW45350   6.425  10.747   1.850 -0.2192 -0.0795 -0.1361
12191SOL    HW145351   6.405  10.742   1.756 -0.3761 -1.4347 -0.0492
12191SOL    HW245352   6.423  10.840   1.870 -1.0641  0.1751 -1.2954
12192SOL     OW45353   1.422   0.139  12.309 -0.6550  0.4095 -0.1148
12192SOL    HW145354   1.354   0.079  12.339 -1.3742  1.4658  0.4600
12192SOL    HW245355   1.373   0.213  12.272  0.0430  2.5723  2.9314
12193SOL     OW45356   8.426   9.818   1.998  0.2181 -0.2715 -0.3459
12193SOL    HW145357   8.421   9.724   1.979 -2.0656 -0.1759 -0.4987
12193SOL    HW245358   8.515   9.843   1.973  1.8962 -2.9175  2.2890
12194SOL     OW45359   1.357   1.097   0.128 -0.2327  0.2454 -0.2007
12194SOL    HW145360   1.355   1.165   0.195  1.3868  0.5100 -0.3924
12194SOL    HW245361   1.450   1.080   0.113 -0.5594 -0.1748 -2.0043
12195SOL     OW45362   2.448   0.692   9.499  0.2761  0.0965 -0.2346
12195SOL    HW145363   2.525   0.640   9.477 -0.4541 -1.1997  0.1842
12195SOL    HW245364   2.463   0.775   9.455  0.9378 -0.8524 -1.8940
12196SOL     OW45365   6.007   6.667   7.010  0.1605 -0.3318 -0.3154
12196SOL    HW145366   6.011   6.571   7.003 -1.4733 -0.5941  1.5512
12196SOL    HW245367   6.077   6.688   7.073 -0.6411 -0.5128  0.6544
12197SOL     OW45368   7.695   3.565  12.548 -0.3799 -0.2764 -0.7196
12197SOL    HW145369   7.649   3.642  12.581 -1.4353 -1.3130  0.3392
12197SOL    HW245370   7.701   3.580  12.453  2.7750  2.8080 -0.2186
12198SOL     OW45371  11.218   0.367   8.787  0.4491 -0.1644  0.4592
12198SOL    HW145372  11.305   0.405   8.770  0.5242  0.0896  1.3691
12198SOL    HW245373  11.173   0.433   8.840 -0.5025 -0.0644 -0.4377
12199SOL     OW45374   7.647   4.929   9.452 -0.6654  0.1430  0.5493
12199SOL    HW145375   7.660   4.874   9.529 -1.3741 -1.4057 -0.3908
12199SOL    HW245376   7.736   4.958   9.428 -0.5123  1.3208  2.3658
12200SOL     OW45377   9.111   1.070  10.876 -0.2952  0.1316  0.0832
12200SOL    HW145378   9.137   1.029  10.794  0.4243  0.4208  0.1667
12200SOL    HW245379   9.101   1.163  10.854  0.6474  0.3331  0.4963
12201SOL     OW45380   3.738   1.329   0.858 -0.1176  0.4125  0.1193
12201SOL    HW145381   3.660   1.273   0.866 -0.5287  0.7997 -1.0208
12201SOL    HW245382   3.721   1.402   0.917 -2.4746  2.5186 -2.8367
12202SOL     OW45383   6.857   6.550  11.763 -0.5656  0.3651  0.0842
12202SOL    HW145384   6.921   6.492  11.805 -0.8577  1.1204  1.6237
12202SOL    HW245385   6.775   6.501  11.765 -0.6428  0.5205  0.6635
12203SOL     OW45386   9.670   1.328   1.497  0.2976  0.1038  0.4592
12203SOL    HW145387   9.655   1.376   1.416  2.2721  1.4151  0.7973
12203SOL    HW245388   9.704   1.243   1.469 -2.2160 -0.8024 -0.1098
12204SOL     OW45389   2.387  10.879   6.948  0.3838  0.5137 -0.0264
12204SOL    HW145390   2.447  10.870   7.022  1.4466  0.7887 -0.8404
12204SOL    HW245391   2.428  10.830   6.877  0.1105  1.4546 -0.8565
12205SOL     OW45392   7.814  10.260  10.686  0.9500  0.4551 -0.4938
12205SOL    HW145393   7.753  10.201  10.730  2.4433 -1.6072 -0.9995
12205SOL    HW245394   7.781  10.266  10.596  0.7948  0.3621 -0.4436
12206SOL     OW45395  12.530   6.385   2.439 -0.4344 -0.9890  0.3814
12206SOL    HW145396  12.585   6.460   2.418  0.2229 -1.7328 -0.6320
12206SOL    HW245397  12.449   6.424   2.473 -0.2869  0.2005 -0.5409
12207SOL     OW45398   6.609   3.249   3.782  0.2171  0.1439 -0.0738
12207SOL    HW145399   6.521   3.284   3.769 -0.2666 -0.5296  1.2071
12207SOL    HW245400   6.628   3.203   3.700 -0.0804  1.3768 -0.8632
12208SOL     OW45401  10.872   8.050   3.753 -0.2531 -0.3357 -0.1361
12208SOL    HW145402  10.938   8.028   3.819 -0.9631 -0.7915  0.4398
12208SOL    HW245403  10.917   8.040   3.670  0.7233  0.4526  0.2808
12209SOL     OW45404   1.090   3.637   7.248  0.0651  0.4007  0.2163
12209SOL    HW145405   1.101   3.725   7.282 -1.7073  1.2490 -1.2025
12209SOL    HW245406   1.116   3.579   7.320  1.9648  2.0359  0.9142
12210SOL     OW45407   9.738   7.932   2.989 -0.2192 -0.3916  0.3767
12210SOL    HW145408   9.662   7.875   2.979  0.0448 -0.7883  0.5989
12210SOL    HW245409   9.776   7.907   3.074 -0.3219  0.3794  0.6575
12211SOL     OW45410   2.664   9.510   8.707  0.0857  0.5626  0.3371
12211SOL    HW145411   2.705   9.427   8.682 -1.1299 -0.1565  0.6199
12211SOL    HW245412   2.623   9.542   8.627  2.3291  2.0264 -0.3136
12212SOL     OW45413   1.842   8.056   7.999 -0.1857  0.1589  0.0479
12212SOL    HW145414   1.894   8.121   8.047  0.2030  0.2576 -0.4913
12212SOL    HW245415   1.757   8.057   8.042 -0.4509  1.6216 -0.4402
12213SOL     OW45416   5.759   2.905   5.388  0.2274 -0.1128  0.3128
12213SOL    HW145417   5.703   2.920   5.312  1.5812 -2.3058 -1.2357
12213SOL    HW245418   5.705   2.853   5.447  0.4976 -2.1769 -1.1458
12214SOL     OW45419   7.867   9.989   6.029 -0.5899 -0.0462 -0.1343
12214SOL    HW145420   7.799  10.051   6.005 -0.2403  0.4477  0.1353
12214SOL    HW245421   7.869   9.990   6.124 -0.4950 -0.3754 -0.1312
12215SOL     OW45422   1.660   0.448   0.916  0.1305  0.4414  0.1152
12215SOL    HW145423   1.681   0.375   0.858  0.7629  1.3047 -0.7672
12215SOL    HW245424   1.651   0.408   1.003 -2.5934 -1.1829 -0.7744
12216SOL     OW45425  11.460   7.989   2.318  0.3664  0.1115 -0.1259
12216SOL    HW145426  11.513   8.066   2.339 -0.7607  0.3141  2.3293
12216SOL    HW245427  11.426   7.959   2.402 -0.5603 -2.1253 -1.1956
12217SOL     OW45428  12.013   1.954  10.469 -0.6063  0.0256  0.1907
12217SOL    HW145429  12.044   1.964  10.559  0.1044  0.3624 -0.0813
12217SOL    HW245430  12.007   1.859  10.456  0.1018 -0.0402  0.3276
12218SOL     OW45431  11.326   5.588  11.099 -0.3097  0.2578 -0.1157
12218SOL    HW145432  11.283   5.628  11.024  0.3630 -1.2436 -1.3415
12218SOL    HW245433  11.255   5.551  11.151 -1.1767  4.2791  2.0036
12219SOL     OW45434  12.406  12.236   3.516 -0.4516  0.1720 -0.1746
12219SOL    HW145435  12.483  12.203   3.563  0.4525  1.7803 -0.4434
12219SOL    HW245436  12.384  12.166   3.455 -0.6289 -1.2613  1.4794
12220SOL     OW45437   6.046   1.625   1.104  0.1088 -0.2367 -0.3746
12220SOL    HW145438   5.982   1.640   1.034 -0.4698 -0.2273  0.1454
12220SOL    HW245439   6.054   1.529   1.108  1.4811 -0.2072 -1.6261
12221SOL     OW45440   8.023  12.333  10.148 -0.5491  0.1400 -0.0145
12221SOL    HW145441   8.044  12.383  10.227  1.1033 -0.1935 -0.2147
12221SOL    HW245442   7.998  12.399  10.084  0.5785  0.6347  0.0362
12222SOL     OW45443   1.917   8.338   4.700  0.1611 -0.4667 -0.0848
12222SOL    HW145444   2.009   8.331   4.727  0.0218  1.3078  1.0340
12222SOL    HW245445   1.868   8.339   4.782 -0.9644 -2.0851 -0.6821
12223SOL     OW45446   6.723   3.180   1.346 -0.4271 -0.4053  0.6242
12223SOL    HW145447   6.744   3.106   1.403  1.9963 -1.6937 -1.7380
12223SOL    HW245448   6.663   3.143   1.281 -1.8226  0.6157  1.2802
12224SOL     OW45449   4.663   2.539  12.301 -0.0399 -0.2670 -0.6588
12224SOL    HW145450   4.635   2.607  12.240 -0.5253 -0.5511 -0.7541
12224SOL    HW245451   4.751   2.515  12.271  0.1016  0.2595 -0.6716
12225SOL     OW45452   4.241   3.145   7.549  0.4256  0.3111 -0.2147
12225SOL    HW145453   4.167   3.134   7.489  0.0328 -1.9214  0.5500
12225SOL    HW245454   4.317   3.151   7.492 -0.0113 -1.0108 -1.0004
12226SOL     OW45455   3.707  10.611   3.796  0.5771  0.1047 -0.2541
12226SOL    HW145456   3.627  10.664   3.800  0.6941  0.3559 -1.0320
12226SOL    HW245457   3.718  10.591   3.703  1.4618  0.1327 -0.1677
12227SOL     OW45458   4.230   5.274   7.895 -0.7065  0.6946 -0.5001
12227SOL    HW145459   4.170   5.348   7.882 -0.5175  0.9144 -0.1287
12227SOL    HW245460   4.248   5.243   7.806 -0.4081  1.4006 -0.6950
12228SOL     OW45461   7.863   6.693  10.550  0.1975  0.4106  0.9016
12228SOL    HW145462   7.815   6.669  10.629 -0.7157 -0.3544  0.1367
12228SOL    HW245463   7.901   6.778  10.570 -1.5850  1.1088  1.4980
12229SOL     OW45464   8.957   6.747  12.528 -0.2314  0.4716  0.0869
12229SOL    HW145465   8.992   6.708  12.608  1.7162 -0.9160 -1.3558
12229SOL    HW245466   8.914   6.675  12.482  0.9116  0.6327 -1.2911
12230SOL     OW45467   6.965  10.008   1.251 -0.5365  0.0856  0.0486
12230SOL    HW145468   6.919  10.066   1.311 -1.1447  0.6595 -0.9385
12230SOL    HW245469   7.055  10.038   1.252 -0.4655 -0.1381  0.9246
12231SOL     OW45470   4.952   3.414   9.596  0.3435  0.3546  0.3715
12231SOL    HW145471   4.891   3.481   9.624 -0.4572 -0.8300  1.5550
12231SOL    HW245472   4.917   3.383   9.512 -0.1848  0.3082  0.6053
12232SOL     OW45473   6.389   1.341   1.789  0.2862  0.1052  0.3810
12232SOL    HW145474   6.365   1.406   1.855 -2.1912  0.1974 -0.5357
12232SOL    HW245475   6.340   1.262   1.814  1.0092 -0.5313 -0.1516
12233SOL     OW45476   0.606   3.137   9.109 -0.8587  0.1368  0.6398
12233SOL    HW145477   0.661   3.215   9.097 -2.0314  0.8209 -0.7597
12233SOL    HW245478   0.627   3.082   9.034 -1.0343 -0.2476  0.8731
12234SOL     OW45479   7.072   7.305   9.468 -0.3842 -0.1863  0.0383
12234SOL    HW145480   7.090   7.336   9.557 -0.7678 -0.7472  0.3169
12234SOL    HW245481   7.108   7.217   9.466  4.2494  1.4222 -1.9078
12235SOL     OW45482  11.819  11.685   8.226  0.5632  0.1414  0.5130
12235SOL    HW145483  11.866  11.746   8.170  0.8575  0.5229  1.1759
12235SOL    HW245484  11.794  11.613   8.167  1.4893  0.1961  0.0453
12236SOL     OW45485  12.317   9.863  11.714  0.3354 -0.5668  0.6063
12236SOL    HW145486  12.368   9.935  11.677 -1.6925 -0.1033 -1.5175
12236SOL    HW245487  12.282   9.817  11.638  0.4775 -3.0631  1.9220
12237SOL     OW45488   0.723   9.703   6.890  0.0278 -0.2099  0.3329
12237SOL    HW145489   0.642   9.704   6.941  0.1291 -1.0103  0.5235
12237SOL    HW245490   0.778   9.638   6.933 -0.1970 -1.5315 -1.2439
12238SOL     OW45491   6.053   2.905  12.488  0.9813  0.7473  0.2360
12238SOL    HW145492   5.966   2.904  12.448  1.6953 -0.0204 -1.3760
12238SOL    HW245493   6.047   2.845  12.562  0.2076  0.4869 -0.0347
12239SOL     OW45494   1.142  10.135  11.697 -0.5389 -0.5898  0.0486
12239SOL    HW145495   1.217  10.089  11.735 -0.4750  0.6260  1.4983
12239SOL    HW245496   1.176  10.223  11.677 -1.2350 -0.4473 -0.5566
12240SOL     OW45497   8.126  12.228  11.056  0.7047 -0.1024  0.1670
12240SOL    HW145498   8.215  12.225  11.091  1.0099 -1.1970 -0.6347
12240SOL    HW245499   8.105  12.321  11.052  1.4579  0.1360  1.2321
12241SOL     OW45500   2.267   4.246   5.397  0.2871 -0.4056 -0.2726
12241SOL    HW145501   2.343   4.246   5.455 -0.3804  0.2691  0.6249
12241SOL    HW245502   2.219   4.325   5.420 -1.2827 -1.3896 -0.0168
12242SOL     OW45503   1.028   8.644   6.489 -0.5267 -0.4735  0.1017
12242SOL    HW145504   1.046   8.550   6.486  3.3544  0.1344 -2.5173
12242SOL    HW245505   1.045   8.675   6.400 -1.7545  2.7699  0.8306
12243SOL     OW45506   4.363   1.236  11.272 -0.5040 -0.6735  0.7050
12243SOL    HW145507   4.440   1.186  11.244 -0.7444 -0.2709 -0.7720
12243SOL    HW245508   4.297   1.217  11.205 -1.3372 -0.1594  1.3649
12244SOL     OW45509   7.514   8.467  11.096  0.1855  0.3511  0.7034
12244SOL    HW145510   7.498   8.512  11.013  0.0397  0.7985  0.9740
12244SOL    HW245511   7.576   8.523  11.143  3.2047 -1.6033 -0.5660
12245SOL     OW45512   1.582   2.798  10.711 -0.1891  0.2410  0.0636
12245SOL    HW145513   1.641   2.736  10.668 -0.6492 -0.2284  0.0928
12245SOL    HW245514   1.618   2.809  10.799 -0.2918 -0.2567  0.1721
12246SOL     OW45515   3.324   9.089   5.840  0.4146 -0.4409 -0.0742
12246SOL    HW145516   3.373   9.114   5.919  1.0683  0.1494 -0.6629
12246SOL    HW245517   3.255   9.030   5.873  1.3380 -1.0652  0.8011
12247SOL     OW45518   2.990   9.099   5.941  0.0634 -0.1020 -0.1682
12247SOL    HW145519   2.930   9.142   6.003 -0.4428 -0.3964 -0.4455
12247SOL    HW245520   2.938   9.029   5.902  0.8632 -0.9456  0.2421
12248SOL     OW45521   9.280   4.029   3.425 -0.3099  0.1713 -0.0370
12248SOL    HW145522   9.305   4.050   3.515 -1.5494  1.7549 -0.0303
12248SOL    HW245523   9.361   4.040   3.375  0.9434 -2.7306  1.0935
12249SOL     OW45524   0.816   3.333   0.562  0.1999 -0.2994  0.1979
12249SOL    HW145525   0.730   3.312   0.598 -0.1338  0.0038 -0.4053
12249SOL    HW245526   0.834   3.422   0.591 -0.2973  0.1361 -0.7792
12250SOL     OW45527  10.038   3.777   9.960 -0.5852  0.2962  0.7325
12250SOL    HW145528  10.115   3.756  10.013  0.1176 -2.5956 -1.1461
12250SOL    HW245529  10.071   3.832   9.890 -0.5805  0.4380  0.8461
12251SOL     OW45530   2.227  10.015   0.616  0.6656  0.3143  0.0052
12251SOL    HW145531   2.211  10.075   0.542 -0.8434  0.1674  0.1876
12251SOL    HW245532   2.140   9.990   0.646  1.0963 -4.1512 -1.7573
12252SOL     OW45533   9.775   1.074   1.395 -0.6711 -0.0386 -0.2180
12252SOL    HW145534   9.729   1.003   1.439  0.4812 -1.5074 -1.2568
12252SOL    HW245535   9.735   1.078   1.308  1.0384 -1.3376 -1.1352
12253SOL     OW45536   1.806   5.227   5.693 -0.2440 -0.2597  0.0499
12253SOL    HW145537   1.760   5.297   5.646  0.2604 -0.0934 -0.2027
12253SOL    HW245538   1.746   5.203   5.763 -0.0633  1.0294  0.6803
12254SOL     OW45539   2.755   4.702  10.827 -0.2724  0.1352  0.1566
12254SOL    HW145540   2.747   4.783  10.777  0.2125 -0.6030 -1.2037
12254SOL    HW245541   2.829   4.717  10.886 -1.1658  1.2016  1.0396
12255SOL     OW45542   8.435  10.896   2.108 -0.1491  0.0112 -0.2515
12255SOL    HW145543   8.409  10.967   2.167 -0.2814  0.1979 -0.5306
12255SOL    HW245544   8.531  10.901   2.105 -0.1971  0.6872 -0.8871
12256SOL     OW45545   8.562   8.713   1.224 -0.3618 -0.2443 -0.0762
12256SOL    HW145546   8.573   8.740   1.133 -1.0552 -0.5816 -0.2680
12256SOL    HW245547   8.535   8.621   1.219 -0.4852 -0.2460  0.4634
12257SOL     OW45548   4.992   1.076  11.701 -1.1148 -0.1589  0.2059
12257SOL    HW145549   4.990   1.033  11.786 -2.2796 -0.0265  0.2644
12257SOL    HW245550   4.968   1.008  11.639  0.6069 -0.4844 -0.1495
12258SOL     OW45551   8.283   4.048   7.148 -0.4574 -0.1908  0.3362
12258SOL    HW145552   8.216   4.105   7.110 -1.7641 -1.6837  0.3039
12258SOL    HW245553   8.362   4.102   7.150 -1.5241  1.4619 -0.0936
12259SOL     OW45554  11.040   0.797  12.106  0.0965 -0.1737  0.1561
12259SOL    HW145555  11.073   0.884  12.126  0.3175 -0.4132  0.8900
12259SOL    HW245556  11.064   0.744  12.183  1.9407 -1.4181 -1.1971
12260SOL     OW45557  10.438  11.616   1.680  0.2468 -0.2460 -0.4938
12260SOL    HW145558  10.400  11.672   1.747 -0.8864  1.1091 -2.1968
12260SOL    HW245559  10.532  11.616   1.699 -0.0583 -0.0140  1.1468
12261SOL     OW45560   8.262  11.068   4.077 -0.6799 -0.3910 -0.2661
12261SOL    HW145561   8.295  11.107   4.158  1.1453  0.1495 -1.2169
12261SOL    HW245562   8.291  11.128   4.009 -1.6992 -1.1368 -1.3940
12262SOL     OW45563   0.510   8.993  11.695  0.0883 -0.1842  0.4056
12262SOL    HW145564   0.522   8.910  11.741  2.0437  1.2621  2.7977
12262SOL    HW245565   0.578   8.993  11.628  2.5752  0.7842  2.7096
12263SOL     OW45566   1.726   3.440   5.200 -0.3320 -0.3376 -0.2916
12263SOL    HW145567   1.799   3.497   5.225 -0.3563 -0.5088  0.1648
12263SOL    HW245568   1.713   3.459   5.107 -0.9020  1.0381  0.0402
12264SOL     OW45569   0.924   0.664   1.130  0.2066 -0.7661  0.3152
12264SOL    HW145570   0.936   0.727   1.202  3.2575 -1.7023  0.7817
12264SOL    HW245571   0.837   0.683   1.096 -0.2745  1.5392  2.5024
12265SOL     OW45572   0.534   5.370  10.786  0.7177 -0.5706 -0.1430
12265SOL    HW145573   0.603   5.307  10.805  0.3049 -0.9665  0.0795
12265SOL    HW245574   0.550   5.398  10.696  1.2991 -0.4792 -0.0152
12266SOL     OW45575  10.916   8.268   5.390 -0.3841 -0.3613 -0.1592
12266SOL    HW145576  10.923   8.321   5.311  1.4125  0.2662  0.3784
12266SOL    HW245577  10.980   8.305   5.450 -1.6100 -0.9001  1.5716
12267SOL     OW45578   2.079   9.241   1.423 -0.4889 -0.4387  0.5847
12267SOL    HW145579   1.989   9.274   1.428  0.6273  4.4004 -3.2710
12267SOL    HW245580   2.129   9.299   1.480  0.4450 -2.2779  1.7176
12268SOL     OW45581   8.111  10.063   3.082 -0.0897  0.2806 -0.4825
12268SOL    HW145582   8.055  10.060   3.159 -1.0160  0.0457 -1.1345
12268SOL    HW245583   8.194  10.026   3.111 -0.0319  1.2765  0.6871
12269SOL     OW45584   9.289   2.426   8.577  0.2889  0.3508  0.0468
12269SOL    HW145585   9.319   2.475   8.500  1.5157 -0.0442  0.2540
12269SOL    HW245586   9.213   2.377   8.547  1.2187 -0.4074 -1.1429
12270SOL     OW45587   5.003   1.559   7.548  0.5651  0.1206 -0.2350
12270SOL    HW145588   4.984   1.639   7.597  0.7177 -1.3656  2.4729
12270SOL    HW245589   4.917   1.524   7.525  0.4399  0.2514  0.0226
12271SOL     OW45590   6.399   6.667  10.749 -0.0678 -0.4899  0.3623
12271SOL    HW145591   6.378   6.638  10.661  0.8510 -2.8922  0.8714
12271SOL    HW245592   6.480   6.718  10.739 -1.2894  1.4233 -0.4364
12272SOL     OW45593   3.189  12.528  11.604  0.2364 -0.0054 -0.1705
12272SOL    HW145594   3.238  12.523  11.522 -0.8398 -0.1317 -0.8167
12272SOL    HW245595   3.142  12.445  11.610  1.1163 -0.4397  1.1147
12273SOL     OW45596  12.004   3.485   8.966  0.6701  0.0487  0.3299
12273SOL    HW145597  12.015   3.445   9.052  1.1182  0.6458  0.5590
12273SOL    HW245598  12.093   3.504   8.937  0.4759  0.7560  0.1739
12274SOL     OW45599   3.212  11.633   4.065 -0.0742 -0.5205 -0.2872
12274SOL    HW145600   3.162  11.646   4.146  0.8084 -0.4911  0.2567
12274SOL    HW245601   3.301  11.660   4.086  0.3173 -1.1331 -1.0815
12275SOL     OW45602  10.408  11.222  10.787  0.5715 -0.2547  0.6159
12275SOL    HW145603  10.316  11.212  10.764  0.6657 -0.1712  0.1743
12275SOL    HW245604  10.412  11.208  10.881  0.3537 -2.0017  0.4008
12276SOL     OW45605   6.906   7.729  10.866 -0.3529  0.1484  0.4820
12276SOL    HW145606   6.997   7.723  10.836  0.8336 -1.5043  3.8733
12276SOL    HW245607   6.912   7.775  10.950 -2.8173  0.8595  0.3316
12277SOL     OW45608  10.769   9.256   3.714  0.0206 -0.3173 -0.3595
12277SOL    HW145609  10.791   9.276   3.623  1.2890 -0.3773 -0.0772
12277SOL    HW245610  10.769   9.341   3.758  1.3156 -0.4731 -0.0266
12278SOL     OW45611   8.703  10.280   6.443 -0.3857 -0.4049 -0.2500
12278SOL    HW145612   8.707  10.235   6.528  0.2961  0.3905  0.1615
12278SOL    HW245613   8.790  10.318   6.433 -0.6741  0.0668 -1.0009
12279SOL     OW45614   8.537   0.522  11.653  0.1527 -0.5075  0.1336
12279SOL    HW145615   8.465   0.527  11.591 -0.2479 -2.4434  0.3807
12279SOL    HW245616   8.500   0.480  11.730  0.8549  1.0754  1.3957
12280SOL     OW45617   2.230   1.201   9.211 -0.0661  0.6677 -0.4277
12280SOL    HW145618   2.237   1.174   9.120  0.2425  0.4982 -0.3551
12280SOL    HW245619   2.205   1.122   9.259 -0.4124  0.7977 -0.3885
12281SOL     OW45620   9.522   3.053   7.245 -0.6311  0.2437  0.4852
12281SOL    HW145621   9.582   2.986   7.214  0.5534  0.9497  1.1953
12281SOL    HW245622   9.479   3.013   7.321  1.2561  0.8097  1.9158
12282SOL     OW45623   8.567  12.193   3.482 -0.2926 -0.3937  0.0207
12282SOL    HW145624   8.568  12.240   3.398  1.0352  1.1397  0.8500
12282SOL    HW245625   8.653  12.152   3.488  1.4625  3.0986  2.4517
12283SOL     OW45626  12.372   9.491   0.124  0.0002 -0.3044 -0.0094
12283SOL    HW145627  12.313   9.546   0.175 -1.2370 -0.2097 -1.4901
12283SOL    HW245628  12.356   9.515   0.033  0.4710 -2.0955 -0.6178
12284SOL     OW45629   4.837   2.694   4.208  1.0195 -0.1219 -0.4462
12284SOL    HW145630   4.791   2.729   4.133 -0.3524  1.5884  1.1017
12284SOL    HW245631   4.926   2.677   4.177  0.2869 -0.2226 -2.6071
12285SOL     OW45632   5.755   6.157   0.942  0.4418  0.1982  0.7364
12285SOL    HW145633   5.844   6.134   0.914  0.7742  0.1811  1.7562
12285SOL    HW245634   5.764   6.246   0.976 -0.3107  0.8852 -0.8309
12286SOL     OW45635   4.312   7.751   4.486 -0.2188  0.1322  0.1783
12286SOL    HW145636   4.296   7.659   4.505  0.1586  0.4283  2.1650
12286SOL    HW245637   4.352   7.786   4.566  1.7064  1.5277 -1.2856
12287SOL     OW45638   9.077   1.982   3.397  0.1815  0.0364  0.0918
12287SOL    HW145639   9.087   2.077   3.409 -0.4402  0.0104  0.8797
12287SOL    HW245640   8.990   1.972   3.358  0.1740 -0.2202  0.1771
12288SOL     OW45641   8.529   2.509   9.698  0.2276 -0.0882  0.0175
12288SOL    HW145642   8.463   2.444   9.724  1.5517 -0.8805  1.6607
12288SOL    HW245643   8.546   2.558   9.779  0.9390  0.7578 -0.6317
12289SOL     OW45644  11.206   9.318   3.204 -0.1871 -0.6274  0.2242
12289SOL    HW145645  11.210   9.224   3.216  0.7305 -0.6573 -0.1756
12289SOL    HW245646  11.276   9.352   3.260 -0.3787 -0.2035  0.2123
12290SOL     OW45647   7.087   9.266   7.519  0.3905 -0.3600 -0.2787
12290SOL    HW145648   7.149   9.199   7.547 -0.0876 -0.5730  0.2926
12290SOL    HW245649   7.001   9.225   7.529 -0.0159  0.8546  1.6044
12291SOL     OW45650   3.954  11.895   1.313  0.0331  0.1515 -0.0864
12291SOL    HW145651   3.944  11.934   1.400 -0.8646 -1.2693  0.4812
12291SOL    HW245652   3.872  11.916   1.268  0.2572  0.3862 -0.3884
12292SOL     OW45653   9.833   5.899  11.407 -0.4416  0.0688  0.1450
12292SOL    HW145654   9.922   5.871  11.431 -1.1631 -1.5778  1.1227
12292SOL    HW245655   9.821   5.866  11.318 -1.9482 -5.0267  1.8833
12293SOL     OW45656   0.879   4.645   4.934 -0.3546 -0.0858 -0.3777
12293SOL    HW145657   0.791   4.612   4.916 -1.6125  2.1321  1.2483
12293SOL    HW245658   0.881   4.656   5.029  1.4005  0.6871 -0.4822
12294SOL     OW45659   4.191   6.442   2.717 -0.0399  0.4133 -0.6624
12294SOL    HW145660   4.145   6.403   2.643  1.4940 -0.6810 -1.1044
12294SOL    HW245661   4.235   6.519   2.680 -2.2815  2.1282 -0.0009
12295SOL     OW45662  10.177  10.880   9.882  0.2998 -0.0351 -0.4258
12295SOL    HW145663  10.186  10.952   9.944 -1.5382  0.4176 -0.6242
12295SOL    HW245664  10.164  10.802   9.937 -0.5514  0.2432 -0.2266
12296SOL     OW45665   3.259   8.277   5.160 -0.8107  0.1144  0.0419
12296SOL    HW145666   3.206   8.289   5.081  0.2805 -1.6638 -1.0242
12296SOL    HW245667   3.306   8.360   5.170 -1.6424  0.6822 -0.6416
12297SOL     OW45668   3.560   8.615   8.234  0.6745 -0.4097 -0.1975
12297SOL    HW145669   3.471   8.643   8.213  0.7537  1.7794  1.9722
12297SOL    HW245670   3.573   8.536   8.181 -2.4255 -0.6563 -0.7962
12298SOL     OW45671   0.026   5.091   8.091  0.0503 -0.1091  0.0074
12298SOL    HW145672  -0.067   5.109   8.082 -0.0851 -0.8898 -0.2212
12298SOL    HW245673   0.030   5.007   8.138  0.6404  0.1254  0.3862
12299SOL     OW45674   3.366   5.231   5.339  0.4245 -0.1581  0.4325
12299SOL    HW145675   3.357   5.281   5.258  0.7100  1.3549  1.2940
12299SOL    HW245676   3.421   5.156   5.316  2.6954  1.6228 -0.2008
12300SOL     OW45677   7.965  11.271   1.654 -0.1167 -0.1942 -0.1751
12300SOL    HW145678   8.025  11.290   1.582 -1.2374  1.1531 -0.8039
12300SOL    HW245679   7.986  11.182   1.680  2.0928  0.1956 -0.4133
12301SOL     OW45680  11.730   5.056  11.797 -0.0229  0.3876  0.0604
12301SOL    HW145681  11.655   5.115  11.794  1.2494  2.0886  0.2638
12301SOL    HW245682  11.803   5.108  11.763  1.5176 -0.4858  1.8337
12302SOL     OW45683   1.046   7.773   1.904 -0.0470  0.5836  0.2572
12302SOL    HW145684   0.950   7.768   1.907 -0.1662  1.5867 -1.1775
12302SOL    HW245685   1.074   7.735   1.988 -1.6169 -1.2146  0.0545
12303SOL     OW45686   3.141   1.548   9.390 -0.0906  0.3329  0.2950
12303SOL    HW145687   3.139   1.524   9.297 -0.3973 -0.1340  0.4179
12303SOL    HW245688   3.182   1.473   9.433 -0.7770  0.1511  0.6487
12304SOL     OW45689   6.190   0.669   5.349 -0.1508 -0.2476 -0.2001
12304SOL    HW145690   6.100   0.638   5.340 -0.6055  0.2824  1.9266
12304SOL    HW245691   6.191   0.715   5.433  2.0236  0.0787 -0.3469
12305SOL     OW45692   2.084   5.973  12.428  0.4416 -0.1983  0.2125
12305SOL    HW145693   2.024   6.019  12.369  2.3815  0.4908 -1.3192
12305SOL    HW245694   2.119   6.042  12.484  0.2466 -0.5141  0.7329
12306SOL     OW45695   8.480   5.501  12.602  0.8223 -0.2288 -0.2056
12306SOL    HW145696   8.447   5.590  12.590  1.7633  0.3925  1.5531
12306SOL    HW245697   8.484   5.490  12.697 -0.6879 -2.7028 -0.3383
12307SOL     OW45698   5.298   8.526  12.302  0.7308  0.1733  0.1483
12307SOL    HW145699   5.329   8.506  12.390 -0.3202  0.3588  0.5759
12307SOL    HW245700   5.335   8.612  12.282  1.0946  0.0628  0.3402
12308SOL     OW45701   0.970   2.026   2.992 -0.7413 -0.4172  0.1734
12308SOL    HW145702   1.058   2.012   2.956 -0.5427  0.4503  0.3148
12308SOL    HW245703   0.943   2.110   2.956 -1.1240 -0.2240  0.9077
12309SOL     OW45704   3.307  12.528   1.788  0.0439  0.2782 -0.2820
12309SOL    HW145705   3.301  12.443   1.744 -1.8219  1.4789 -2.5581
12309SOL    HW245706   3.248  12.521   1.862  0.6920 -0.7005  0.1654
12310SOL     OW45707   0.802   4.230   8.816  0.0672  0.0391  0.3004
12310SOL    HW145708   0.889   4.221   8.777 -0.3180 -1.0598 -0.3357
12310SOL    HW245709   0.779   4.142   8.844  0.2634  0.7528  2.9434
12311SOL     OW45710   2.661   1.579  12.254  0.5251 -0.2471 -0.8931
12311SOL    HW145711   2.719   1.503  12.247 -0.5740 -1.1021 -1.1729
12311SOL    HW245712   2.710   1.643  12.306  1.5601 -1.0655 -0.8237
12312SOL     OW45713   3.583   2.302  11.399  0.4075  0.3576 -0.1232
12312SOL    HW145714   3.578   2.286  11.493  2.1090 -1.7249 -0.3230
12312SOL    HW245715   3.606   2.395  11.392 -2.7088  1.3998  1.3422
12313SOL     OW45716   4.302   8.243   9.531 -0.0690 -0.9633  0.1327
12313SOL    HW145717   4.229   8.241   9.594 -1.3910 -0.5968 -1.3213
12313SOL    HW245718   4.260   8.255   9.446  1.7728  0.9163 -0.6049
12314SOL     OW45719   3.944   7.080   9.889  1.1136 -0.0721 -0.2170
12314SOL    HW145720   3.922   7.172   9.876  0.6916 -0.1030  0.2219
12314SOL    HW245721   4.012   7.061   9.825  1.6943  0.7221  0.1565
12315SOL     OW45722   5.938  12.170   2.720 -0.2154  0.3297 -0.0644
12315SOL    HW145723   5.855  12.211   2.696  0.2965  1.3191 -0.1860
12315SOL    HW245724   5.914  12.081   2.746 -1.2512  0.4497 -0.5528
12316SOL     OW45725   8.541   0.449   6.227 -0.3114  0.1462  0.0175
12316SOL    HW145726   8.499   0.432   6.311 -0.2586  0.8870  0.1969
12316SOL    HW245727   8.593   0.528   6.241 -0.1105  0.1383 -0.6441
12317SOL     OW45728   9.559   4.553   9.591  0.0957  0.2315  0.3894
12317SOL    HW145729   9.485   4.493   9.603  0.5510 -0.7170 -1.2234
12317SOL    HW245730   9.523   4.639   9.612 -1.8618 -0.0251 -1.5275
12318SOL     OW45731   6.173   5.930  10.313 -0.1078 -0.5395 -0.0397
12318SOL    HW145732   6.104   5.986  10.348  1.6694  0.9050  1.3781
12318SOL    HW245733   6.160   5.933  10.218  0.3481  3.0424 -0.1383
12319SOL     OW45734   3.503   3.930   6.587 -0.2399  0.3785  0.1729
12319SOL    HW145735   3.444   3.908   6.514  0.7859 -0.1609 -0.5172
12319SOL    HW245736   3.529   4.021   6.570 -0.0317  0.2653 -0.1274
12320SOL     OW45737   2.049   0.439   6.643  0.0713  0.0955  0.0421
12320SOL    HW145738   2.032   0.531   6.620 -0.7636  0.1894  0.9805
12320SOL    HW245739   2.107   0.408   6.574 -1.2503  0.7560 -1.4446
12321SOL     OW45740   0.951   4.050   5.895  0.0069 -0.0095 -0.7610
12321SOL    HW145741   0.893   3.995   5.843  0.6431 -0.1515 -1.3316
12321SOL    HW245742   1.004   3.989   5.946 -1.1497  0.1315  0.6939
12322SOL     OW45743   8.275   9.571  11.611  0.6011  0.3937 -0.8474
12322SOL    HW145744   8.257   9.478  11.614 -1.2294  0.7136 -0.9601
12322SOL    HW245745   8.217   9.605  11.542  0.3534  1.7722 -0.0014
12323SOL     OW45746  11.600   0.443  11.454 -0.0571 -0.0343  0.0153
12323SOL    HW145747  11.694   0.458  11.468  0.0761 -0.6884 -0.1655
12323SOL    HW245748  11.561   0.454  11.541  0.0170  1.3805 -0.0966
12324SOL     OW45749   3.675   7.065   9.131 -0.2709  0.0620  0.0390
12324SOL    HW145750   3.713   7.043   9.216 -2.2922 -1.8268  0.5800
12324SOL    HW245751   3.654   7.158   9.137  1.4408  0.4206  0.8219
12325SOL     OW45752   2.873   8.066   4.474  0.3209 -0.0400  0.3910
12325SOL    HW145753   2.794   8.106   4.510  0.3920  1.7033 -1.2306
12325SOL    HW245754   2.843   8.021   4.395  0.7019 -0.8288  0.6840
12326SOL     OW45755   0.528   9.000   2.129  0.0787 -0.0254  0.3744
12326SOL    HW145756   0.496   9.044   2.050 -1.2330  1.1656  1.5309
12326SOL    HW245757   0.577   9.067   2.177  1.4328 -0.9130  0.3178
12327SOL     OW45758   3.642   4.559   9.597 -0.1908  0.1408 -0.1752
12327SOL    HW145759   3.726   4.531   9.562 -0.2430  0.5141 -0.6079
12327SOL    HW245760   3.661   4.642   9.641 -0.1411 -0.2814  0.6192
12328SOL     OW45761   1.652   6.338  11.016 -0.0473  0.1744 -0.0395
12328SOL    HW145762   1.615   6.281  11.084 -1.5785  0.4719 -0.5637
12328SOL    HW245763   1.745   6.317  11.015 -0.1260 -0.4495  1.5532
12329SOL     OW45764  11.291   1.079   8.818  0.0157  0.2437  0.0704
12329SOL    HW145765  11.368   1.087   8.762 -0.1059 -0.7937 -0.2685
12329SOL    HW245766  11.225   1.135   8.777  0.0861 -0.1278 -0.5602
12330SOL     OW45767   0.577  11.462  11.380  0.3902  0.0475  0.4528
12330SOL    HW145768   0.573  11.491  11.289  0.2590 -1.4502 -0.0586
12330SOL    HW245769   0.653  11.403  11.383  1.1915  1.0852  1.6487
12331SOL     OW45770   2.507   1.573  10.540 -0.3291 -0.2980 -0.0769
12331SOL    HW145771   2.567   1.598  10.610 -1.6554  2.4409  0.2199
12331SOL    HW245772   2.420   1.577  10.581 -1.2233  2.1377 -1.9334
12332SOL     OW45773   7.322   2.930   7.732  0.2516 -0.1232  0.0143
12332SOL    HW145774   7.346   2.913   7.641 -1.1426  1.4359 -0.6904
12332SOL    HW245775   7.387   2.993   7.763  1.2490 -1.3104  0.4095
12333SOL     OW45776   3.292   2.631   1.874  0.4677  0.5013 -0.4176
12333SOL    HW145777   3.259   2.706   1.824 -0.2445  0.3503 -0.1886
12333SOL    HW245778   3.243   2.633   1.956  1.1017  0.3180 -0.0267
12334SOL     OW45779   2.052   4.753   1.276  0.1473  0.3725 -0.2228
12334SOL    HW145780   2.015   4.828   1.230  0.6291 -0.7045 -2.5114
12334SOL    HW245781   2.143   4.778   1.292  0.1961  0.4465 -0.6066
12335SOL     OW45782  11.542   1.350   3.113 -0.3973  0.2764  0.1970
12335SOL    HW145783  11.629   1.310   3.107 -0.8907 -0.7195 -0.7444
12335SOL    HW245784  11.558   1.444   3.100  0.4922  0.0514 -0.4385
12336SOL     OW45785  12.546   1.548   1.015 -0.1789 -0.5729 -0.3399
12336SOL    HW145786  12.465   1.575   1.058  0.5206 -1.3004  1.5188
12336SOL    HW245787  12.522   1.468   0.968 -0.8728  0.0449 -1.0751
12337SOL     OW45788  11.353   7.159   8.938  0.1522  0.1220  0.4878
12337SOL    HW145789  11.363   7.162   8.843 -0.3184 -1.0248  0.3895
12337SOL    HW245790  11.260   7.176   8.953  0.5550  2.3069  0.8939
12338SOL     OW45791  11.193   5.795   3.262  0.3170  0.2488  0.2918
12338SOL    HW145792  11.223   5.774   3.174  1.1071  0.2991  0.5438
12338SOL    HW245793  11.240   5.875   3.285 -2.4962  2.3439 -0.5952
12339SOL     OW45794   9.135   4.725   0.269  0.7361  0.0114 -0.0689
12339SOL    HW145795   9.067   4.718   0.336 -0.0043 -0.2885 -0.8395
12339SOL    HW245796   9.201   4.783   0.308  0.2741 -0.0771  0.8724
12340SOL     OW45797   6.778   6.181   1.746 -0.0230  0.6051 -0.8585
12340SOL    HW145798   6.823   6.113   1.697  1.9412  1.0113  0.2828
12340SOL    HW245799   6.694   6.191   1.701  0.2268 -1.5154 -1.9274
12341SOL     OW45800   6.300   7.233   3.299 -0.3785 -0.0769  0.7575
12341SOL    HW145801   6.337   7.317   3.270 -0.4526 -0.2594  0.1097
12341SOL    HW245802   6.210   7.254   3.324 -0.6070 -0.0772 -0.0377
12342SOL     OW45803   8.676   3.308   6.376  0.3405 -0.5268  0.1960
12342SOL    HW145804   8.751   3.316   6.434  0.3005 -0.4528  0.2384
12342SOL    HW245805   8.641   3.221   6.393  1.9061 -1.5908 -1.6303
12343SOL     OW45806  11.719   8.958  11.980 -0.3411 -0.0652  0.6061
12343SOL    HW145807  11.666   8.997  12.050  0.2529  2.1278 -0.0911
12343SOL    HW245808  11.728   8.866  12.005 -0.6333  0.5229  3.1112
12344SOL     OW45809   4.392   8.041   8.081 -0.0348 -0.3356  0.6501
12344SOL    HW145810   4.300   8.062   8.095  0.1679  0.8041  0.3293
12344SOL    HW245811   4.391   7.965   8.023 -0.7637  0.8645 -0.9603
12345SOL     OW45812  12.065   5.584   2.724 -0.4243  0.1490 -0.3755
12345SOL    HW145813  12.017   5.664   2.744 -0.7601  0.0690 -0.8438
12345SOL    HW245814  12.020   5.515   2.772 -1.5269 -0.1240 -1.7229
12346SOL     OW45815   2.547  10.559   3.728  1.0733  0.3078  0.4735
12346SOL    HW145816   2.576  10.646   3.700 -0.8897  0.6217 -0.8139
12346SOL    HW245817   2.454  10.570   3.747  0.0730 -1.9542 -2.2634
12347SOL     OW45818   7.363   6.866   8.190  0.0421  0.1231 -0.1584
12347SOL    HW145819   7.270   6.850   8.171  0.1078  0.2219 -0.5746
12347SOL    HW245820   7.364   6.893   8.282 -0.0739 -2.1570  0.5790
12348SOL     OW45821   9.258   1.898   9.041 -0.8668 -0.1339  0.1105
12348SOL    HW145822   9.246   1.978   9.091  0.1514  0.0013  0.1494
12348SOL    HW245823   9.282   1.832   9.105 -0.1246 -0.0930 -0.1200
12349SOL     OW45824   9.224   4.671   9.002 -0.5070  0.5661  0.0492
12349SOL    HW145825   9.131   4.649   8.998  0.0951 -2.1329 -1.0021
12349SOL    HW245826   9.243   4.684   9.095 -1.8533  0.9339  0.2891
12350SOL     OW45827   3.459   0.982   9.657  0.3789 -0.5782  0.0265
12350SOL    HW145828   3.377   1.029   9.645  0.1725 -0.2017  2.4162
12350SOL    HW245829   3.516   1.043   9.704  0.9611 -1.8378  1.0375
12351SOL     OW45830   7.741   8.817   1.401 -0.5174 -0.2262  0.0257
12351SOL    HW145831   7.758   8.756   1.472  1.4507 -1.4999 -1.4316
12351SOL    HW245832   7.797   8.892   1.420  0.1499 -0.6446 -0.2315
12352SOL     OW45833   8.109   0.889   8.196 -0.6024 -0.5374 -0.1793
12352SOL    HW145834   8.151   0.965   8.156 -2.2295 -0.7320 -2.4489
12352SOL    HW245835   8.155   0.814   8.158 -2.3254 -0.7302 -2.0303
12353SOL     OW45836   0.107   2.950  11.237 -0.1265  0.0847  0.1097
12353SOL    HW145837   0.198   2.945  11.269 -0.5154 -0.4437  1.2064
12353SOL    HW245838   0.086   2.860  11.213 -0.8840 -0.1180  1.4400
12354SOL     OW45839   1.755   8.170  10.612  0.5386  0.2273 -0.3679
12354SOL    HW145840   1.775   8.077  10.597  0.6930  0.5574 -2.4766
12354SOL    HW245841   1.756   8.179  10.708 -1.9249 -2.4660  0.0581
12355SOL     OW45842  10.636   8.105   6.247 -0.1023 -0.1825  0.0377
12355SOL    HW145843  10.665   8.079   6.334 -1.6380 -2.4747 -0.0481
12355SOL    HW245844  10.706   8.077   6.188  0.4180  0.3221  0.4119
12356SOL     OW45845  11.843   8.284  10.811 -0.5746  0.0104 -0.3452
12356SOL    HW145846  11.795   8.337  10.875 -1.6680  0.0686 -1.1877
12356SOL    HW245847  11.883   8.214  10.863  2.5326  2.6400  1.1130
12357SOL     OW45848   1.247   7.059  10.636  0.5520  0.0055 -0.2533
12357SOL    HW145849   1.208   7.143  10.660 -2.0171 -1.1857  0.0822
12357SOL    HW245850   1.233   7.051  10.542 -1.3305 -0.9951  0.0713
12358SOL     OW45851   4.322   6.906   2.567  0.2482  0.0160  0.5836
12358SOL    HW145852   4.306   6.818   2.534 -0.1023 -0.4076  1.8170
12358SOL    HW245853   4.406   6.900   2.614  0.8848  0.6736 -0.4244
12359SOL     OW45854   7.301  11.363  12.401 -0.2441  0.3484 -0.1252
12359SOL    HW145855   7.239  11.295  12.427  1.4147 -0.5847  1.6907
12359SOL    HW245856   7.363  11.367  12.474  1.2952  1.8740 -1.4378
12360SOL     OW45857   0.030   6.746   0.871  0.4413  0.5820 -0.3641
12360SOL    HW145858   0.016   6.780   0.959  0.6030 -1.4507  0.5083
12360SOL    HW245859  -0.058   6.736   0.835  0.1851 -1.1504  0.6487
12361SOL     OW45860   4.021   8.397  12.320 -0.2844 -0.3079  0.5349
12361SOL    HW145861   3.932   8.409  12.285  0.0922  1.1087 -0.0155
12361SOL    HW245862   4.075   8.381  12.243  0.5947  3.0939  0.2953
12362SOL     OW45863  10.517   3.365  11.522  0.4235  0.2891  0.2719
12362SOL    HW145864  10.549   3.317  11.445 -0.2157 -0.4949  0.4884
12362SOL    HW245865  10.584   3.432  11.537  0.1055  1.1002 -1.5515
12363SOL     OW45866   5.815   7.343   9.335  0.2578 -0.2057  0.3360
12363SOL    HW145867   5.866   7.329   9.255 -0.5883  1.7498 -0.6172
12363SOL    HW245868   5.864   7.411   9.382 -1.7075  2.3309 -0.9907
12364SOL     OW45869  12.348  11.179   6.302 -0.2291 -0.5074  0.6126
12364SOL    HW145870  12.292  11.169   6.379  0.1258 -2.1225  0.7002
12364SOL    HW245871  12.430  11.135   6.326  0.0420 -0.6470 -0.5273
12365SOL     OW45872   4.531   5.222   8.595 -0.2533  0.5300  0.1986
12365SOL    HW145873   4.483   5.211   8.513  0.2487  1.7679 -0.2819
12365SOL    HW245874   4.604   5.161   8.587 -0.3975  0.3919 -0.1246
12366SOL     OW45875   4.644   7.003   3.011  0.5472 -0.0900  0.0552
12366SOL    HW145876   4.605   6.988   3.096 -3.3501  0.8083 -1.3871
12366SOL    HW245877   4.694   7.084   3.022 -0.0708  0.1326  1.4234
12367SOL     OW45878   0.342   5.361   4.319 -0.1511 -0.3908  0.9203
12367SOL    HW145879   0.395   5.439   4.332 -2.3419  1.0897  1.4574
12367SOL    HW245880   0.290   5.379   4.241  0.1639 -1.8453  0.3363
12368SOL     OW45881   4.918   8.697  11.917  0.3111 -0.4377  0.5410
12368SOL    HW145882   4.856   8.702  11.990 -0.2499 -0.9219  0.1080
12368SOL    HW245883   4.996   8.656  11.955  1.1024  1.8789  1.5493
12369SOL     OW45884  11.967   1.280  11.987 -0.4262  0.0341  0.0606
12369SOL    HW145885  11.988   1.188  11.999 -1.7878 -0.2238  0.7270
12369SOL    HW245886  11.893   1.295  12.046 -0.8015  1.3278 -0.7041
12370SOL     OW45887   7.797   4.636   8.192 -0.2334  0.1033  0.1521
12370SOL    HW145888   7.724   4.652   8.252  0.2476 -0.7799  0.9954
12370SOL    HW245889   7.876   4.653   8.244  0.1951 -0.8888 -0.1369
12371SOL     OW45890  10.783   7.400   6.193 -0.1673 -0.3227  0.3860
12371SOL    HW145891  10.859   7.450   6.164 -0.0180 -0.8628 -0.1817
12371SOL    HW245892  10.711   7.463   6.193 -0.1557 -0.2663 -1.1246
12372SOL     OW45893  11.711   8.450   7.242  0.4447 -0.6710 -0.5592
12372SOL    HW145894  11.684   8.386   7.176 -1.5605 -1.5950  1.0408
12372SOL    HW245895  11.680   8.413   7.325  1.4354  1.2174  0.7190
12373SOL     OW45896   7.111   4.213   3.942  0.2437  0.4233  0.5164
12373SOL    HW145897   7.061   4.176   4.014 -0.6689  3.1350  1.3903
12373SOL    HW245898   7.088   4.306   3.942  0.1241  0.5390 -3.3639
12374SOL     OW45899  10.773   2.664  11.642  0.4445 -0.4534 -0.1024
12374SOL    HW145900  10.726   2.584  11.615 -0.7908 -0.2177  1.2395
12374SOL    HW245901  10.857   2.632  11.675 -0.7041 -1.4451  2.0517
12375SOL     OW45902   1.600   2.142   9.473 -0.3358 -0.1196  0.4432
12375SOL    HW145903   1.670   2.131   9.537 -0.5959 -0.8052  0.6165
12375SOL    HW245904   1.520   2.130   9.523 -0.6118  1.0802  0.3339
12376SOL     OW45905  11.090   2.190   9.451 -0.0851 -0.2696 -0.1199
12376SOL    HW145906  11.128   2.127   9.390  2.4883  2.1436 -1.2614
12376SOL    HW245907  11.026   2.239   9.399  2.0159  1.7015 -1.0140
12377SOL     OW45908   3.749   6.119   3.596  0.4223 -0.9150 -0.1004
12377SOL    HW145909   3.659   6.101   3.568  0.0764 -0.7371  0.8294
12377SOL    HW245910   3.791   6.157   3.520 -0.9093  1.0060  0.0332
12378SOL     OW45911   0.725  11.838   7.494  0.3398 -0.2540 -0.6775
12378SOL    HW145912   0.679  11.894   7.557  1.3170  1.8945 -1.7445
12378SOL    HW245913   0.685  11.752   7.505 -0.5625  0.3803  1.7796
12379SOL     OW45914  12.570   6.476   3.215  0.2511 -0.5201  0.5545
12379SOL    HW145915  12.547   6.460   3.123  1.5665  1.8142 -0.2712
12379SOL    HW245916  12.605   6.393   3.246 -1.8128 -1.8626 -0.4913
12380SOL     OW45917  10.033   1.154   3.674 -0.2083  0.0826  0.2749
12380SOL    HW145918  10.024   1.249   3.679  1.1461  0.3028 -0.7094
12380SOL    HW245919  10.023   1.123   3.764 -1.1249  1.1012  0.5371
12381SOL     OW45920   2.427   2.441   5.143  0.0159 -0.0291 -0.0826
12381SOL    HW145921   2.436   2.509   5.076 -1.0224  0.5428  0.3330
12381SOL    HW245922   2.464   2.480   5.222 -0.5774  0.0693  0.1552
12382SOL     OW45923   9.379   5.532   5.338  0.7705  0.4773 -0.5655
12382SOL    HW145924   9.455   5.533   5.280  1.3115  1.3838  0.1180
12382SOL    HW245925   9.342   5.620   5.331  1.8663  1.1959  1.6912
12383SOL     OW45926  10.895   3.593   1.863 -0.0745 -0.2207  0.0395
12383SOL    HW145927  10.946   3.518   1.832 -1.6962 -1.3206 -0.0408
12383SOL    HW245928  10.862   3.566   1.949 -1.6344 -0.0788 -0.4970
12384SOL     OW45929   6.203  10.301   1.225  0.0053 -0.1669  0.4372
12384SOL    HW145930   6.280  10.347   1.259 -0.5258  0.2426  1.1097
12384SOL    HW245931   6.136  10.369   1.217 -0.0342 -0.3420 -0.9968
12385SOL     OW45932   2.283   9.924   8.458  0.2995  0.1309 -0.7562
12385SOL    HW145933   2.334   9.919   8.378  0.6168  2.0541 -0.7370
12385SOL    HW245934   2.325   9.994   8.509 -1.7182  1.0974 -0.3091
12386SOL     OW45935   1.943   3.563  11.681  0.1101  1.0313  0.3542
12386SOL    HW145936   2.026   3.578  11.636  0.0291  1.3404  0.3105
12386SOL    HW245937   1.969   3.519  11.763  0.1249 -1.1719 -0.7532
12387SOL     OW45938   6.522   0.364   1.947 -0.0481 -0.2690  0.7536
12387SOL    HW145939   6.537   0.308   2.023  1.7461  0.0011  0.6207
12387SOL    HW245940   6.600   0.419   1.941 -0.8424  0.7893 -0.3800
12388SOL     OW45941  10.163   9.523  10.467 -0.0246 -0.2924 -0.4580
12388SOL    HW145942  10.084   9.562  10.431  0.9295  0.9940 -1.2628
12388SOL    HW245943  10.227   9.595  10.466  0.8417 -0.9963  1.1925
12389SOL     OW45944   1.855   6.095   4.468 -0.4216 -0.0061 -0.0622
12389SOL    HW145945   1.924   6.144   4.513 -0.7579  1.1456 -0.7852
12389SOL    HW245946   1.899   6.059   4.391  0.1334 -1.9119  1.0641
12390SOL     OW45947   7.765   7.489   4.693 -0.1649 -0.2446 -0.1270
12390SOL    HW145948   7.687   7.519   4.647  0.5402  0.3677 -0.9552
12390SOL    HW245949   7.755   7.394   4.697  0.0437 -0.3952 -2.1479
12391SOL     OW45950  11.529  11.534   3.882  0.0501 -0.1431  0.6515
12391SOL    HW145951  11.616  11.553   3.848  0.3896 -0.1489  1.4900
12391SOL    HW245952  11.472  11.532   3.805  0.6956  0.4048  0.1537
12392SOL     OW45953  10.170   0.707   0.515  0.1453 -0.0699 -0.9103
12392SOL    HW145954  10.249   0.720   0.464 -0.0081  0.2780 -1.0646
12392SOL    HW245955  10.142   0.618   0.495  2.0356 -1.2804  1.2946
12393SOL     OW45956   7.194   5.007   5.508  0.4459 -0.0929  0.2794
12393SOL    HW145957   7.139   4.990   5.431  1.3452  0.6525 -0.5621
12393SOL    HW245958   7.254   4.932   5.511  0.1882 -0.2911  0.4523
12394SOL     OW45959  11.963   1.994   1.529 -0.1005  0.4579  0.7128
12394SOL    HW145960  11.894   1.996   1.596  0.2314 -0.4751  1.1153
12394SOL    HW245961  12.021   1.923   1.558  1.7464  2.0279  1.0965
12395SOL     OW45962   4.425   2.384   8.435  0.2981 -0.0278 -0.5076
12395SOL    HW145963   4.417   2.425   8.350 -0.7400 -1.9770 -1.4237
12395SOL    HW245964   4.361   2.428   8.490  1.5209  1.7742 -0.4511
12396SOL     OW45965   8.071   8.068  11.389 -0.7220 -0.5869  0.2491
12396SOL    HW145966   8.045   7.976  11.394  1.1529 -1.1380  0.7689
12396SOL    HW245967   8.129   8.080  11.464 -0.1523  0.7510 -0.3767
12397SOL     OW45968   5.376   5.783   7.896  0.3681  0.1847 -0.5770
12397SOL    HW145969   5.384   5.864   7.947  0.4156 -0.9373  1.2989
12397SOL    HW245970   5.461   5.773   7.853 -0.0987  1.8159 -2.0023
12398SOL     OW45971   8.760   3.289   5.353 -0.7482  0.3837 -0.1212
12398SOL    HW145972   8.792   3.265   5.440  1.2658  0.6332 -0.7490
12398SOL    HW245973   8.712   3.371   5.366  1.6821  1.7907  0.4233
12399SOL     OW45974   3.256   2.751  12.608  0.0296 -0.9068  0.1263
12399SOL    HW145975   3.343   2.760  12.569 -0.8508  3.1804 -1.3823
12399SOL    HW245976   3.271   2.759  12.702  1.4491 -2.9537  0.1359
12400SOL     OW45977  10.617   1.303   3.682  0.2479 -0.5057 -0.1844
12400SOL    HW145978  10.654   1.291   3.769 -0.9950  0.3974  0.5130
12400SOL    HW245979  10.525   1.276   3.691 -0.3277  1.1407 -0.7567
12401SOL     OW45980   9.083   4.071   8.373 -0.5573 -0.1556  0.2857
12401SOL    HW145981   9.018   4.040   8.435  0.7138 -2.3987  0.5967
12401SOL    HW245982   9.043   4.057   8.287 -0.9958 -0.2021  0.4953
12402SOL     OW45983   1.615   7.457   4.697  0.3064 -0.5381  0.0027
12402SOL    HW145984   1.625   7.409   4.779 -0.1331 -1.2512 -0.3615
12402SOL    HW245985   1.687   7.427   4.642 -0.1568 -1.0320 -0.3430
12403SOL     OW45986   0.079   5.433   7.392  0.5941 -0.2656  0.2893
12403SOL    HW145987   0.105   5.450   7.301 -0.3709 -0.2716 -0.0002
12403SOL    HW245988   0.117   5.347   7.412 -0.2868 -0.8866 -0.5764
12404SOL     OW45989  10.927   4.868  10.450  0.0036 -0.3755 -0.5376
12404SOL    HW145990  11.003   4.924  10.467  0.3074 -0.7178 -0.7688
12404SOL    HW245991  10.882   4.864  10.534 -0.5109  0.9403 -0.7332
12405SOL     OW45992   8.122   4.394   4.229  0.0569 -0.1456 -0.3099
12405SOL    HW145993   8.211   4.412   4.260 -0.0519 -1.4036  0.8479
12405SOL    HW245994   8.129   4.309   4.185 -0.3158  0.4230 -1.5193
12406SOL     OW45995   1.338   3.333   6.514 -0.1287 -0.1835 -0.0539
12406SOL    HW145996   1.307   3.340   6.423 -1.7650  1.9719  0.5809
12406SOL    HW245997   1.409   3.397   6.520 -0.1212 -0.2172  0.2144
12407SOL     OW45998   7.806   6.047  11.307 -0.3878  0.1054  0.0364
12407SOL    HW145999   7.851   6.128  11.285 -0.8886  0.0399 -1.2900
12407SOL    HW246000   7.714   6.072  11.317 -0.1464  0.2793  2.9341
12408SOL     OW46001   7.308   2.143   6.025  0.1214  0.2331 -0.2782
12408SOL    HW146002   7.313   2.048   6.026  0.3170  0.2455  0.3573
12408SOL    HW246003   7.320   2.167   5.933  0.9069 -0.3115 -0.3304
12409SOL     OW46004   4.122  10.395  11.681 -0.2310  0.6326 -0.2771
12409SOL    HW146005   4.087  10.484  11.688  0.8373  1.2565 -2.1020
12409SOL    HW246006   4.074  10.357  11.607 -0.3951 -0.1819  0.2410
12410SOL     OW46007   2.929   0.428   3.078 -0.2180  0.3696  0.1336
12410SOL    HW146008   2.981   0.466   3.149 -2.2851  1.5141  1.1628
12410SOL    HW246009   2.992   0.404   3.011  1.5134  2.5857  0.8642
12411SOL     OW46010  12.607   1.215   2.680  0.0741  0.3865 -0.0828
12411SOL    HW146011  12.578   1.156   2.611 -0.1042 -0.6681  0.8672
12411SOL    HW246012  12.527   1.248   2.719  0.1755  0.4998  0.0291
12412SOL     OW46013   2.768   3.175  12.124 -0.5375 -0.2022 -0.9662
12412SOL    HW146014   2.699   3.113  12.100 -0.7636 -0.6669  0.7199
12412SOL    HW246015   2.846   3.120  12.136 -1.2080 -0.6056  2.5877
12413SOL     OW46016   7.690   4.818  11.054 -0.5544 -0.1515 -0.0618
12413SOL    HW146017   7.784   4.812  11.037 -0.9074 -2.3207 -1.6730
12413SOL    HW246018   7.675   4.911  11.068  1.6235  0.4323 -1.1191
12414SOL     OW46019   9.266   6.479  11.471  0.3912 -0.1604 -0.2595
12414SOL    HW146020   9.314   6.519  11.398  0.5644 -0.9084 -0.5681
12414SOL    HW246021   9.278   6.539  11.544  0.4906  0.4377 -0.7580
12415SOL     OW46022   2.276  12.436  10.079  0.4240  0.4581  0.7623
12415SOL    HW146023   2.190  12.420  10.041  1.2329 -1.3381 -0.5031
12415SOL    HW246024   2.259  12.472  10.165 -1.6157 -0.6036  0.8614
12416SOL     OW46025  11.862   6.585   3.151 -0.2375 -0.3255  0.0658
12416SOL    HW146026  11.826   6.627   3.073 -1.0853 -0.7687  0.2019
12416SOL    HW246027  11.957   6.590   3.140 -0.2855  1.8308  0.2017
12417SOL     OW46028  11.985   7.134   5.658  0.1361 -0.1822  0.2203
12417SOL    HW146029  12.035   7.152   5.579 -0.1250  1.0955  0.3378
12417SOL    HW246030  11.917   7.072   5.629 -0.5447  0.9834 -0.7842
12418SOL     OW46031   3.933   6.913   0.637  0.3927  0.0237  0.1815
12418SOL    HW146032   3.866   6.846   0.622  0.2049  0.5337 -1.5498
12418SOL    HW246033   4.008   6.865   0.672  0.0918 -1.0349 -0.5673
12419SOL     OW46034   8.531  10.704   5.609 -0.3889 -0.1533 -0.1848
12419SOL    HW146035   8.480  10.722   5.688  0.4409 -1.6824  0.7390
12419SOL    HW246036   8.507  10.615   5.585  0.4315 -0.2042 -0.8450
12420SOL     OW46037   2.069   5.048   9.386  0.0285 -0.4121  0.2017
12420SOL    HW146038   2.091   4.998   9.464 -1.7741 -2.7590 -0.6623
12420SOL    HW246039   2.027   5.127   9.418 -0.4028 -1.1920  1.6086
12421SOL     OW46040   0.238   4.620   1.709 -0.0870  0.0999 -0.4162
12421SOL    HW146041   0.175   4.584   1.772 -1.1787  0.5163 -1.2414
12421SOL    HW246042   0.253   4.548   1.647 -0.2535  0.2058 -0.5816
12422SOL     OW46043  11.417   6.306   6.864 -0.0568  0.4563  0.1846
12422SOL    HW146044  11.497   6.254   6.859  0.2393  0.6413  2.0916
12422SOL    HW246045  11.392   6.303   6.957 -1.8771  0.9827 -0.2459
12423SOL     OW46046   5.167   7.830   9.532  0.2876  0.0733 -0.1759
12423SOL    HW146047   5.140   7.787   9.613 -0.2633  1.5125  0.4176
12423SOL    HW246048   5.189   7.757   9.473  0.8044 -0.9920  1.2829
12424SOL     OW46049   8.928   3.754  10.715  0.4758  0.0856 -0.7328
12424SOL    HW146050   8.871   3.815  10.668  1.3078  1.3928 -0.1002
12424SOL    HW246051   8.880   3.734  10.796  1.6975  2.8040  0.7849
12425SOL     OW46052   5.066   6.580   6.388  0.3175 -0.5456  0.2682
12425SOL    HW146053   5.070   6.615   6.299 -0.2874  1.1172  0.8475
12425SOL    HW246054   5.021   6.496   6.380 -0.4626 -0.0288 -0.8915
12426SOL     OW46055  10.283  11.894   0.535  0.1645 -0.0493 -0.6692
12426SOL    HW146056  10.307  11.828   0.600  1.3580  0.8297 -0.1784
12426SOL    HW246057  10.201  11.932   0.569  1.0543  0.7805  0.6620
12427SOL     OW46058   4.429   4.492   9.529  0.0386 -0.1479  0.0621
12427SOL    HW146059   4.472   4.407   9.531 -0.7898 -0.6062  2.7924
12427SOL    HW246060   4.347   4.477   9.481  0.5776 -0.4981 -0.7609
12428SOL     OW46061   3.633   0.306   0.131 -0.3005  0.0634  0.3978
12428SOL    HW146062   3.683   0.225   0.143 -3.0791 -1.6524  1.2036
12428SOL    HW246063   3.688   0.359   0.073  1.5550 -2.4703 -0.3403
12429SOL     OW46064  11.936   9.495   0.592 -0.3565  0.6986 -0.0889
12429SOL    HW146065  11.884   9.432   0.643  1.2354 -0.1117  0.5865
12429SOL    HW246066  11.870   9.549   0.548 -1.8343  1.2389  2.5429
12430SOL     OW46067   6.115   8.094   8.180 -0.0156 -0.6222 -0.0413
12430SOL    HW146068   6.210   8.102   8.172  0.2053 -1.6671  1.1847
12430SOL    HW246069   6.080   8.163   8.124  1.4746  0.2974  0.1127
12431SOL     OW46070   2.925   3.565   2.498 -0.1621  0.4347 -0.0350
12431SOL    HW146071   2.912   3.642   2.443 -0.0379  1.4765  1.3569
12431SOL    HW246072   2.900   3.491   2.442  0.2903  1.4145 -1.5985
12432SOL     OW46073  12.278  11.418  11.273  0.7039  0.1647 -0.5687
12432SOL    HW146074  12.342  11.433  11.343  1.8261 -0.3883 -1.4440
12432SOL    HW246075  12.268  11.504  11.231  0.0529  0.4907  0.2149
12433SOL     OW46076   7.242   8.606  11.508 -0.1420 -0.5385 -0.3925
12433SOL    HW146077   7.293   8.527  11.530 -0.9151 -0.9915 -0.2075
12433SOL    HW246078   7.152   8.575  11.498 -0.3821  0.2516 -0.7693
12434SOL     OW46079   9.327   6.535   3.031  0.2850 -0.7724 -0.2912
12434SOL    HW146080   9.360   6.614   2.988  2.1593 -0.3017  1.8160
12434SOL    HW246081   9.347   6.465   2.969  0.5523  0.1587 -1.2991
12435SOL     OW46082   4.904   5.968   2.302 -0.0954 -0.2766  0.5622
12435SOL    HW146083   4.897   6.055   2.342  0.5323 -0.5462  1.2770
12435SOL    HW246084   4.813   5.939   2.294 -0.2862  0.2276  0.8127
12436SOL     OW46085  11.140   7.510  12.066  0.2507 -0.0681 -0.0069
12436SOL    HW146086  11.181   7.540  11.985 -0.5035 -0.1089 -0.4113
12436SOL    HW246087  11.066   7.570  12.078  1.2580  0.9511  1.5055
12437SOL     OW46088   7.405  11.837  11.698 -0.1289  0.3425  0.4725
12437SOL    HW146089   7.341  11.865  11.763  0.5798  1.9841  0.5055
12437SOL    HW246090   7.490  11.851  11.740  0.3347 -3.0499  0.9426
12438SOL     OW46091   3.396   3.608   9.870 -0.2835 -0.2037  0.0687
12438SOL    HW146092   3.480   3.593   9.827  0.9411  2.4252  1.3397
12438SOL    HW246093   3.346   3.661   9.808  0.2625  0.9123  0.5567
12439SOL     OW46094   2.513   6.390   5.272  0.1109  0.0548 -0.4972
12439SOL    HW146095   2.531   6.310   5.321  0.3820  0.3175 -0.1663
12439SOL    HW246096   2.424   6.414   5.298 -0.5450 -0.9241 -1.6952
12440SOL     OW46097   4.614   5.695   4.788 -0.3307 -0.0479  0.4267
12440SOL    HW146098   4.544   5.630   4.782  0.7941 -1.1618 -1.5170
12440SOL    HW246099   4.588   5.764   4.727  0.1144 -0.3260 -0.0826
12441SOL     OW46100   1.952  12.281   3.047 -0.2222 -0.2299 -0.1778
12441SOL    HW146101   2.017  12.253   3.111  0.4020 -1.0417 -1.1192
12441SOL    HW246102   1.989  12.360   3.008  0.5659 -1.0529 -1.1747
12442SOL     OW46103   5.652   7.022   9.201  0.2584  0.5720 -0.2498
12442SOL    HW146104   5.745   7.012   9.223 -0.1828  1.2019  2.1988
12442SOL    HW246105   5.639   7.117   9.198  0.3846  0.6268 -4.2835
12443SOL     OW46106  11.003   0.263   5.363  0.4912  0.0018  0.2802
12443SOL    HW146107  10.987   0.173   5.391  1.1315  0.0678  0.8743
12443SOL    HW246108  11.092   0.282   5.393 -0.1891  1.3559  1.5589
12444SOL     OW46109  11.676   0.917   5.364 -0.1670 -0.3633 -0.6733
12444SOL    HW146110  11.631   0.936   5.447 -0.8817 -0.6537 -0.9792
12444SOL    HW246111  11.618   0.954   5.297  0.1748 -0.5445 -1.0703
12445SOL     OW46112   9.687   8.460   2.195 -0.1222  0.2270  0.3247
12445SOL    HW146113   9.604   8.412   2.197  0.8890 -2.0041 -2.9612
12445SOL    HW246114   9.745   8.410   2.252  0.0162 -0.6512 -0.5500
12446SOL     OW46115   9.428   6.995   1.761 -0.2675 -0.0822  0.0512
12446SOL    HW146116   9.448   6.906   1.729  0.6334 -0.3608  1.3191
12446SOL    HW246117   9.333   6.999   1.762 -0.3257 -0.5565 -1.2818
12447SOL     OW46118   8.830   5.264   4.860  0.4899  0.7980  0.1065
12447SOL    HW146119   8.833   5.169   4.872  0.9411  0.6966 -0.8050
12447SOL    HW246120   8.916   5.288   4.828  0.5850  1.6124  0.9067
12448SOL     OW46121   2.994   9.278   7.468 -0.1947 -0.3320 -0.3588
12448SOL    HW146122   2.946   9.360   7.464 -1.0468 -0.8022 -0.1367
12448SOL    HW246123   2.976   9.243   7.555  0.8620 -0.3485 -0.1304
12449SOL     OW46124  11.426   3.199   2.863 -0.1176 -0.3095  0.1633
12449SOL    HW146125  11.390   3.143   2.931  1.8753 -0.2122  1.3703
12449SOL    HW246126  11.428   3.143   2.785 -0.7618 -1.0080  0.6342
12450SOL     OW46127   5.273  11.415   5.396  0.2135  0.0325  0.3679
12450SOL    HW146128   5.223  11.334   5.398 -1.9639  1.2443 -1.2666
12450SOL    HW246129   5.362  11.387   5.373 -0.2106 -1.9573  0.9312
12451SOL     OW46130   5.659   0.522   1.242  0.3891  0.1279 -0.4997
12451SOL    HW146131   5.615   0.506   1.325  0.0801  2.3226 -0.1900
12451SOL    HW246132   5.639   0.444   1.189 -2.5940  0.3349  0.1510
12452SOL     OW46133   0.959   2.157   8.137  0.4681 -0.0495  0.0171
12452SOL    HW146134   0.932   2.095   8.070 -0.9866 -0.1600  0.6786
12452SOL    HW246135   0.912   2.238   8.115  0.2096  0.0002  0.7407
12453SOL     OW46136   1.670   3.630   3.667  0.3175 -0.0447  0.0216
12453SOL    HW146137   1.739   3.674   3.717  0.5531  1.1710 -1.2915
12453SOL    HW246138   1.717   3.577   3.603  0.1756  2.2738 -2.1745
12454SOL     OW46139   1.994   7.176   7.968  0.2502  0.0349 -0.2645
12454SOL    HW146140   2.088   7.159   7.969  0.1787 -0.3630 -0.0309
12454SOL    HW246141   1.970   7.181   8.061  0.0967  0.4508 -0.3254
12455SOL     OW46142   3.906   6.576   6.232  0.0375 -0.2934 -0.4641
12455SOL    HW146143   3.979   6.518   6.209  1.3324  1.0269  0.1311
12455SOL    HW246144   3.930   6.660   6.194  0.4685  1.0158  2.4364
12456SOL     OW46145   7.420  10.348   9.353  0.4820 -0.3380  0.1202
12456SOL    HW146146   7.424  10.415   9.285 -0.7158  0.8320  1.1258
12456SOL    HW246147   7.503  10.356   9.400  0.6689 -0.0819 -0.2501
12457SOL     OW46148   7.146   8.821   9.937 -0.1187  0.2535  0.1909
12457SOL    HW146149   7.129   8.851   9.848  0.9225  0.9819  0.2181
12457SOL    HW246150   7.059   8.812   9.976 -0.5714  0.2090 -0.8004
12458SOL     OW46151  11.092   4.050  11.385 -0.1129  0.2465 -0.1013
12458SOL    HW146152  11.173   4.028  11.340 -0.3370 -0.1696 -0.3042
12458SOL    HW246153  11.023   4.040  11.319 -0.3616  0.3361  0.1385
12459SOL     OW46154   3.270  10.130   1.734 -0.1626 -0.1541  0.4591
12459SOL    HW146155   3.287  10.100   1.644 -2.0927  2.5855 -0.9613
12459SOL    HW246156   3.325  10.207   1.745 -1.0799  0.4403  1.0307
12460SOL     OW46157  11.403   2.701   9.959  0.1448  0.1951 -0.7949
12460SOL    HW146158  11.449   2.683   9.877  2.5261 -0.0251  0.5012
12460SOL    HW246159  11.426   2.627  10.016 -0.2381  1.0782  0.5436
12461SOL     OW46160  10.282   3.020  10.307 -0.6878  0.4775 -0.0452
12461SOL    HW146161  10.281   3.036  10.401  2.2460 -0.8359  0.3017
12461SOL    HW246162  10.288   3.107  10.268 -0.4661  0.9647  1.0309
12462SOL     OW46163   1.813   2.776   1.743 -0.2783 -0.2990 -0.1623
12462SOL    HW146164   1.800   2.869   1.728 -0.1674  0.0181  1.5226
12462SOL    HW246165   1.907   2.764   1.748 -0.3109 -0.3540  0.4095
12463SOL     OW46166  11.741   0.927   3.721  0.2154  0.0114 -0.3393
12463SOL    HW146167  11.785   0.987   3.782  0.9438 -0.7877 -0.0627
12463SOL    HW246168  11.750   0.968   3.635  1.7707 -0.2618 -0.3324
12464SOL     OW46169  10.148  12.601   0.005  0.1091 -0.0162  0.5599
12464SOL    HW146170  10.224  12.659   0.004  0.2192 -0.0198  3.0298
12464SOL    HW246171  10.075  12.658   0.025 -0.8996  0.2268 -3.1376
12465SOL     OW46172  12.592   7.841   4.610  0.7134 -0.7656  0.3723
12465SOL    HW146173  12.534   7.766   4.604  1.2347 -1.1315 -0.2117
12465SOL    HW246174  12.672   7.814   4.564  0.9612  0.0874  0.2735
12466SOL     OW46175   9.262   2.669   3.667 -0.3109  0.2219  0.2483
12466SOL    HW146176   9.203   2.603   3.702  0.7828 -0.5662  0.6804
12466SOL    HW246177   9.319   2.621   3.607  1.7585  0.3226  1.9936
12467SOL     OW46178   1.146  12.513   4.718  0.6931  0.0352 -0.3418
12467SOL    HW146179   1.133  12.603   4.749 -0.8640 -0.5697  0.8381
12467SOL    HW246180   1.058  12.481   4.700  1.0854 -1.8140  0.8613
12468SOL     OW46181  11.690   9.716  11.109  0.2619  0.1332  0.2701
12468SOL    HW146182  11.637   9.637  11.094  0.0996  0.1549  0.7118
12468SOL    HW246183  11.627   9.780  11.143  0.3741  0.4846 -0.1867
12469SOL     OW46184   9.101   7.792   0.205  0.7083  0.7559  0.5932
12469SOL    HW146185   9.145   7.737   0.270 -0.2746 -1.3638 -0.4218
12469SOL    HW246186   9.152   7.780   0.125  0.3753  1.2105  0.3058
12470SOL     OW46187   1.583  10.250   4.033 -0.0646 -0.1781 -0.2778
12470SOL    HW146188   1.644  10.177   4.022  0.9102  0.2622  1.6153
12470SOL    HW246189   1.519  10.219   4.096 -1.3911 -0.3596 -1.6661
12471SOL     OW46190   9.482   6.127   4.716  0.1528 -0.1326 -0.4590
12471SOL    HW146191   9.394   6.159   4.736 -0.6387 -1.7383 -1.1359
12471SOL    HW246192   9.525   6.121   4.801 -0.4519  0.5085 -0.0945
12472SOL     OW46193   6.849   9.779   1.796 -0.1519 -0.0157 -0.6266
12472SOL    HW146194   6.865   9.704   1.738 -0.7480 -0.2575 -0.4860
12472SOL    HW246195   6.754   9.782   1.806 -0.0299 -0.3862  0.8712
12473SOL     OW46196  11.285  11.612   6.334  0.2798 -0.2424  0.1261
12473SOL    HW146197  11.338  11.691   6.330 -0.4419  0.3145  1.2087
12473SOL    HW246198  11.344  11.544   6.365  0.6226  0.1255  0.2745
12474SOL     OW46199  12.299   1.540   9.534  0.3534 -0.1291  0.5207
12474SOL    HW146200  12.359   1.482   9.486  2.2552 -0.2127  2.8555
12474SOL    HW246201  12.217   1.490   9.539  0.3666 -0.4978 -1.7244
12475SOL     OW46202   0.488   6.996   3.388  0.3378 -0.2449  0.4473
12475SOL    HW146203   0.508   6.991   3.481  3.4948 -2.5044 -0.1972
12475SOL    HW246204   0.426   7.068   3.380 -2.0152 -1.5232  4.5429
12476SOL     OW46205   5.718  11.085   5.679  0.4178  0.1231 -0.1704
12476SOL    HW146206   5.695  11.160   5.734 -0.4931 -1.3934  1.6345
12476SOL    HW246207   5.636  11.061   5.636 -0.1450 -1.7334  1.7668
12477SOL     OW46208   5.589   0.094   0.527 -0.4098 -0.2110 -0.0018
12477SOL    HW146209   5.506   0.060   0.493 -0.1315  0.1386 -1.0950
12477SOL    HW246210   5.639   0.015   0.550  0.3427 -0.6635 -2.7742
12478SOL     OW46211   4.430   3.618   4.240  0.6389 -0.2468  0.4295
12478SOL    HW146212   4.450   3.576   4.157  0.1124  0.6370 -0.1519
12478SOL    HW246213   4.490   3.692   4.246 -0.1307  0.4079  0.2568
12479SOL     OW46214  11.850   8.969   2.159  0.0746  0.4878  0.1151
12479SOL    HW146215  11.772   8.930   2.198 -0.2608  1.1019  0.0723
12479SOL    HW246216  11.817   9.020   2.085  0.6805 -0.5210 -0.8759
12480SOL     OW46217   3.593   2.602   6.482  0.0171 -0.1761 -0.3130
12480SOL    HW146218   3.548   2.525   6.447 -3.7896  1.4540  0.4923
12480SOL    HW246219   3.582   2.595   6.577  0.6861  0.7770 -0.1538
12481SOL     OW46220   9.737   3.284   1.267 -0.4040 -0.4698 -0.2820
12481SOL    HW146221   9.720   3.256   1.357  1.2862  1.6462  0.7978
12481SOL    HW246222   9.830   3.268   1.255 -0.1528  1.2383 -0.8550
12482SOL     OW46223   1.549   8.894   4.313 -0.2111 -0.2372 -0.0156
12482SOL    HW146224   1.556   8.919   4.405 -0.2503  1.3512 -0.4203
12482SOL    HW246225   1.616   8.946   4.269 -0.5790 -0.5476 -0.9741
12483SOL     OW46226   2.514   2.632   9.401  0.7334 -0.0834  0.6419
12483SOL    HW146227   2.518   2.538   9.421  1.1806 -0.2403 -0.1397
12483SOL    HW246228   2.509   2.675   9.487  2.1707 -0.7433  1.0883
12484SOL     OW46229   9.673  10.599   1.451  0.0743  0.6440 -0.8953
12484SOL    HW146230   9.679  10.513   1.491 -0.8019  1.9520  2.3916
12484SOL    HW246231   9.703  10.586   1.361  2.7073 -2.4850  0.2458
12485SOL     OW46232   2.931  10.069   6.023  0.4137 -0.4429 -0.0674
12485SOL    HW146233   2.850  10.035   6.060  0.7145 -0.4665  0.5894
12485SOL    HW246234   2.982  10.098   6.099  1.1854 -0.7966 -0.4357
12486SOL     OW46235  10.511   0.637   4.007  0.2852  0.5070  0.2206
12486SOL    HW146236  10.571   0.628   3.932  1.0797 -2.1064  1.0403
12486SOL    HW246237  10.557   0.695   4.067 -0.4543  2.8211 -1.3053
12487SOL     OW46238  10.250   0.713   5.896 -0.2907  0.3582 -0.1785
12487SOL    HW146239  10.282   0.672   5.976 -0.3295 -1.1849 -0.9083
12487SOL    HW246240  10.319   0.697   5.832 -1.2531 -0.5171 -1.0417
12488SOL     OW46241   3.684  12.287   9.514  0.4175  0.1597 -0.0380
12488SOL    HW146242   3.739  12.365   9.517 -0.8554  1.1656 -1.1106
12488SOL    HW246243   3.611  12.306   9.574 -0.0863 -0.0364 -0.5737
12489SOL     OW46244   5.681   2.494   0.916  0.3095  0.4325 -0.1348
12489SOL    HW146245   5.753   2.472   0.976  0.2809 -0.1381 -0.2966
12489SOL    HW246246   5.624   2.552   0.966  0.6268  0.4873  0.1655
12490SOL     OW46247   3.044   8.590   0.595  0.0532 -0.3406  0.1974
12490SOL    HW146248   3.048   8.575   0.690 -0.4640 -1.0225  0.1207
12490SOL    HW246249   3.134   8.612   0.571  0.0274  0.7192  0.9786
12491SOL     OW46250   4.946   4.992   9.192 -0.5466 -0.1708 -0.1125
12491SOL    HW146251   5.001   5.018   9.118  1.4898  0.7773  1.6224
12491SOL    HW246252   4.970   4.900   9.208  1.7829  0.6291  1.5307
12492SOL     OW46253   2.683   4.975   3.546  0.0980 -0.3779 -0.1915
12492SOL    HW146254   2.727   4.932   3.472  1.5851  1.3430 -0.4029
12492SOL    HW246255   2.656   5.060   3.510 -1.1056 -0.3862  0.6775
12493SOL     OW46256   8.215   8.793  11.993  0.6597 -0.2231  0.3111
12493SOL    HW146257   8.284   8.759  11.935  1.7328 -0.8748  1.9043
12493SOL    HW246258   8.252   8.872  12.031 -0.2292  0.4715 -0.2210
12494SOL     OW46259   9.378  11.688   4.261 -0.3436 -0.9005  0.0895
12494SOL    HW146260   9.439  11.743   4.212 -0.4333  1.7083  2.6246
12494SOL    HW246261   9.433  11.619   4.299  0.2836 -0.9779 -0.9415
12495SOL     OW46262   9.948  10.222   0.173  0.5005  0.0780 -0.7056
12495SOL    HW146263   9.858  10.207   0.142  0.3597 -1.8720  0.4769
12495SOL    HW246264   9.972  10.306   0.135 -2.6054  1.7557  0.6323
12496SOL     OW46265   6.389  10.405   0.379 -0.5130 -0.3055 -0.2998
12496SOL    HW146266   6.461  10.399   0.316 -0.9920 -1.3864 -0.7811
12496SOL    HW246267   6.431  10.402   0.465  0.2443  2.2686 -0.4995
12497SOL     OW46268   6.132   4.862  12.377  0.0797 -0.0785 -0.5994
12497SOL    HW146269   6.183   4.941  12.391 -1.5838  1.1728 -1.3463
12497SOL    HW246270   6.181   4.813  12.310  0.9962  0.3965 -0.2914
12498SOL     OW46271   1.761   9.948   6.144  0.5252  0.6992 -0.5998
12498SOL    HW146272   1.676   9.972   6.181  1.0360  0.2471  0.9461
12498SOL    HW246273   1.746   9.861   6.105  0.5276  0.1184  0.6558
12499SOL     OW46274   3.730   2.429   5.825  0.3655 -0.4915  0.0071
12499SOL    HW146275   3.636   2.448   5.825  0.9430  3.2694 -0.8120
12499SOL    HW246276   3.743   2.373   5.749 -1.1374 -0.4661 -0.3014
12500SOL     OW46277  10.045   0.918   6.835 -0.8468 -0.0031 -0.2617
12500SOL    HW146278  10.053   0.841   6.778  0.9974 -0.2532  0.2851
12500SOL    HW246279   9.987   0.977   6.788 -2.5783 -1.8327 -0.5618
12501SOL     OW46280   1.226   3.428  11.846 -0.4880 -0.2827  0.0968
12501SOL    HW146281   1.200   3.431  11.754 -1.7395 -0.6984  0.4189
12501SOL    HW246282   1.191   3.345  11.878  0.2542 -0.3100  0.8596
12502SOL     OW46283   2.444   3.362   8.237  0.4827 -0.3600 -0.3197
12502SOL    HW146284   2.411   3.299   8.173 -0.2175  0.1869 -0.5173
12502SOL    HW246285   2.392   3.441   8.221  1.0980  0.1521  0.1601
12503SOL     OW46286   9.384   4.692   4.038 -0.1094  0.1194  0.2989
12503SOL    HW146287   9.422   4.688   3.951  0.6395 -1.8842  0.6706
12503SOL    HW246288   9.431   4.764   4.081 -0.1179  0.7766 -0.7517
12504SOL     OW46289   4.458   1.905  11.965  0.0612 -0.1352  0.0099
12504SOL    HW146290   4.445   1.911  11.870 -1.4803  1.7646  0.2588
12504SOL    HW246291   4.369   1.893  12.000  0.6251 -0.9332  1.2070
12505SOL     OW46292   9.675   6.458   8.534  0.5018  0.1174 -0.8539
12505SOL    HW146293   9.743   6.469   8.600 -1.9766 -0.5530  2.0043
12505SOL    HW246294   9.693   6.372   8.496  0.0564 -1.1224  1.5295
12506SOL     OW46295   0.588   5.370   6.175  0.2511  0.0441 -0.3554
12506SOL    HW146296   0.506   5.406   6.141  1.0572  1.1910 -1.1651
12506SOL    HW246297   0.618   5.310   6.107  0.7326  0.6343 -0.6786
12507SOL     OW46298   1.469   3.063   6.194 -0.0770 -0.7284 -0.1290
12507SOL    HW146299   1.511   3.085   6.111  1.2227  0.8587  0.8617
12507SOL    HW246300   1.464   2.968   6.194 -0.6002 -0.7427 -2.2318
12508SOL     OW46301   7.363   8.187   7.737 -0.8244  0.0011 -0.5833
12508SOL    HW146302   7.412   8.153   7.662 -0.5249  0.2007 -0.4777
12508SOL    HW246303   7.346   8.110   7.791  1.3523  0.2289  0.5254
12509SOL     OW46304   1.775   9.224   2.699  0.1846  0.3784  0.1485
12509SOL    HW146305   1.847   9.161   2.708 -0.3551 -0.2944 -0.1921
12509SOL    HW246306   1.806   9.286   2.633 -0.1153 -0.7393 -1.0754
12510SOL     OW46307   3.064  11.948   5.973  0.4683 -0.0513  0.1116
12510SOL    HW146308   3.052  11.919   6.064 -0.7114 -1.0131 -0.3178
12510SOL    HW246309   3.154  11.981   5.970  0.6459 -0.3367  1.5365
12511SOL     OW46310   7.750  11.314  11.447 -0.5493 -0.1406 -0.4492
12511SOL    HW146311   7.714  11.346  11.364 -0.5846 -1.2741 -0.8857
12511SOL    HW246312   7.726  11.221  11.450 -1.3102  0.0594  1.2451
12512SOL     OW46313  10.635  10.425  11.757  0.6056 -0.2992 -0.1833
12512SOL    HW146314  10.705  10.402  11.817  0.6345  0.4675  0.0836
12512SOL    HW246315  10.672  10.495  11.703 -0.0277  0.2754  0.1151
12513SOL     OW46316   5.029   9.782   7.751  0.4941  0.1712  0.4075
12513SOL    HW146317   4.986   9.708   7.794 -1.2531  0.3628 -0.8775
12513SOL    HW246318   5.121   9.757   7.747  0.0946 -1.5192  0.8458
12514SOL     OW46319   6.517   1.961  11.784  0.3784  0.4033 -0.4159
12514SOL    HW146320   6.505   1.902  11.858  0.1329 -0.2656 -0.9801
12514SOL    HW246321   6.535   2.047  11.824  0.0271  0.0975  0.4092
12515SOL     OW46322   3.107   8.261  11.345 -0.0900  0.1601 -0.1733
12515SOL    HW146323   3.144   8.228  11.263 -0.5446 -0.0986 -0.2758
12515SOL    HW246324   3.098   8.356  11.331 -1.4590 -0.0547 -0.9507
12516SOL     OW46325   7.564   9.347   2.902 -0.2271  0.0971 -0.4247
12516SOL    HW146326   7.622   9.334   2.827  0.4555 -1.5851  0.3528
12516SOL    HW246327   7.566   9.442   2.917  2.0470  0.1427 -0.6396
12517SOL     OW46328   1.716   5.268   6.042 -0.4794 -0.3271  0.0242
12517SOL    HW146329   1.702   5.283   6.135  0.0006 -0.5811  0.1428
12517SOL    HW246330   1.811   5.260   6.033 -0.5230 -0.3225 -0.4847
12518SOL     OW46331   1.219  11.059   8.089 -0.1596  0.4527  0.4080
12518SOL    HW146332   1.172  10.989   8.043  1.0647 -0.8680  1.0778
12518SOL    HW246333   1.235  11.125   8.022 -2.2836  0.6228 -0.0110
12519SOL     OW46334   2.125   3.609   9.382  0.5018 -0.4524 -0.1337
12519SOL    HW146335   2.055   3.659   9.340  0.4566 -1.1248 -0.8753
12519SOL    HW246336   2.095   3.596   9.472 -0.4627 -0.9644 -0.5182
12520SOL     OW46337   4.694   7.549   4.475 -0.1025 -0.7668 -0.0545
12520SOL    HW146338   4.623   7.487   4.492 -0.4514 -0.6432 -0.9938
12520SOL    HW246339   4.665   7.599   4.399  0.1673  0.5654  0.6751
12521SOL     OW46340   8.442   1.244   1.197  0.3202  0.2741 -0.2587
12521SOL    HW146341   8.511   1.273   1.137  0.3583 -0.1991 -0.4479
12521SOL    HW246342   8.395   1.177   1.149  0.2243  0.0324  0.1641
12522SOL     OW46343   9.855  12.577   0.730 -0.1641  0.4539  0.0460
12522SOL    HW146344   9.830  12.651   0.676  0.0255  1.5565  1.3932
12522SOL    HW246345   9.840  12.607   0.820  1.6472 -0.4626  0.7111
12523SOL     OW46346  11.573   6.687   7.354 -0.0229  0.0502 -0.3595
12523SOL    HW146347  11.565   6.659   7.262  0.5173 -1.5910  0.0531
12523SOL    HW246348  11.503   6.642   7.399  0.8758 -0.6808  0.3409
12524SOL     OW46349  10.335   7.444   0.418  0.2474  0.3877 -0.1347
12524SOL    HW146350  10.289   7.523   0.446  1.9786  1.3866  0.0183
12524SOL    HW246351  10.266   7.377   0.413 -1.0567  1.5757  0.9374
12525SOL     OW46352  10.684   5.280   4.017 -0.3808 -0.0537  0.1553
12525SOL    HW146353  10.728   5.360   4.045 -0.7959  0.4596 -0.6462
12525SOL    HW246354  10.700   5.274   3.923 -1.1525 -0.4025  0.0350
12526SOL     OW46355   6.001   2.667   5.018  0.3701 -0.1273 -0.1119
12526SOL    HW146356   5.983   2.590   4.964  0.9608  0.2716 -0.9014
12526SOL    HW246357   5.914   2.704   5.035  0.1875 -0.0668 -1.0980
12527SOL     OW46358  10.829   9.875   4.146 -0.3256  0.1511  0.0328
12527SOL    HW146359  10.827   9.933   4.222 -0.2583 -1.7110  1.5243
12527SOL    HW246360  10.915   9.834   4.149 -1.4061 -2.2477  0.8331
12528SOL     OW46361   5.584   6.473  10.348  0.6199  0.2087  0.0448
12528SOL    HW146362   5.558   6.384  10.371  1.0595  0.2572  0.7355
12528SOL    HW246363   5.633   6.463  10.266 -1.3406  0.0908 -1.1785
12529SOL     OW46364   4.648   0.361   9.555  0.5512  0.0672 -0.1818
12529SOL    HW146365   4.637   0.330   9.465  1.2337  1.3199 -0.7387
12529SOL    HW246366   4.736   0.331   9.580  1.0455  1.1207 -0.5734
12530SOL     OW46367   2.428   1.403   2.701  0.3429  0.5988  0.1348
12530SOL    HW146368   2.348   1.352   2.711  1.8855 -2.2510 -0.8390
12530SOL    HW246369   2.399   1.494   2.699 -2.6649 -0.2080  1.3874
12531SOL     OW46370  12.270   6.625   9.509 -0.3011 -0.6788 -0.0277
12531SOL    HW146371  12.252   6.703   9.458  0.9418 -0.5105 -0.2529
12531SOL    HW246372  12.271   6.554   9.444 -1.6682 -0.9446  0.2091
12532SOL     OW46373  10.183   0.819  10.012  0.3142 -0.5561 -0.6093
12532SOL    HW146374  10.136   0.753  10.064 -1.4089  1.6471  0.8022
12532SOL    HW246375  10.247   0.856  10.072 -0.5330  0.8369 -0.5221
12533SOL     OW46376   1.198   7.692   3.000 -0.2611  0.1367  0.0060
12533SOL    HW146377   1.244   7.713   2.918  0.9547 -0.9571  0.3795
12533SOL    HW246378   1.181   7.777   3.040  1.9154  0.5881  0.0912
12534SOL     OW46379  10.385   3.779   9.260  0.2788 -0.2981  0.1715
12534SOL    HW146380  10.474   3.805   9.281  0.2356  1.3479 -1.4180
12534SOL    HW246381  10.395   3.711   9.193  0.3531  0.3110 -0.4443
12535SOL     OW46382   9.050   3.579   2.213 -0.2691 -0.0145  0.4480
12535SOL    HW146383   8.974   3.601   2.266 -0.4369 -1.8025  1.0098
12535SOL    HW246384   9.122   3.570   2.277 -0.3891 -1.7997  0.3823
12536SOL     OW46385   7.553  11.565   5.590 -0.0677 -0.0925 -0.2876
12536SOL    HW146386   7.601  11.624   5.531 -2.5654  1.6007 -0.7790
12536SOL    HW246387   7.619  11.531   5.650  2.0529  0.4926 -2.1634
12537SOL     OW46388  10.792   2.613   6.788 -0.2254 -0.1515  0.0258
12537SOL    HW146389  10.853   2.554   6.832 -1.1926 -1.9282 -0.8732
12537SOL    HW246390  10.781   2.575   6.700 -1.0193  1.3037 -0.5471
12538SOL     OW46391   3.534   1.762  11.980  0.1763 -0.4956 -0.2428
12538SOL    HW146392   3.481   1.809  12.044  0.7324  0.9374 -0.7873
12538SOL    HW246393   3.492   1.676  11.972 -0.4387 -0.3666  1.3302
12539SOL     OW46394   4.014   5.085   3.688 -0.1421 -0.0868 -0.1993
12539SOL    HW146395   4.014   5.067   3.594 -2.9969  0.3947 -0.3930
12539SOL    HW246396   3.942   5.032   3.723 -0.8608  1.7138  1.2221
12540SOL     OW46397   6.718   6.800   8.853  0.2464  0.9899 -0.0500
12540SOL    HW146398   6.720   6.704   8.849 -0.9531  0.9605 -3.7167
12540SOL    HW246399   6.806   6.824   8.883  0.7378 -1.2251  0.4891
12541SOL     OW46400   3.754  11.036   3.019  0.1826 -0.1649  0.0402
12541SOL    HW146401   3.757  10.947   2.982  1.2024  0.5274 -1.6307
12541SOL    HW246402   3.729  11.091   2.945  3.0107  1.3879  0.1128
12542SOL     OW46403   9.228   1.325  11.355  0.1380 -0.0185 -0.5356
12542SOL    HW146404   9.232   1.389  11.284 -2.1595  1.3122  0.4032
12542SOL    HW246405   9.198   1.245  11.313 -1.3953  0.8039 -1.1216
12543SOL     OW46406   1.660   0.269  12.408 -0.1119  0.0972 -0.1000
12543SOL    HW146407   1.729   0.207  12.435  0.2546  0.8780  0.7965
12543SOL    HW246408   1.580   0.216  12.408  0.3089 -0.5581 -0.0574
12544SOL     OW46409   1.288   5.245   0.796 -0.8616  0.4940 -0.3541
12544SOL    HW146410   1.237   5.322   0.820 -4.0440 -1.1907 -1.1411
12544SOL    HW246411   1.271   5.182   0.865 -0.4307 -0.3665 -1.0144
12545SOL     OW46412   3.901   8.558   6.827 -0.2557 -0.5813  0.3576
12545SOL    HW146413   3.884   8.494   6.757  0.9183 -1.9606  1.2803
12545SOL    HW246414   3.822   8.554   6.882  0.8973 -3.4680  2.0089
12546SOL     OW46415   2.685   5.875   8.244 -1.1141 -0.3108  0.0195
12546SOL    HW146416   2.764   5.907   8.200 -2.2626  4.2580  0.7689
12546SOL    HW246417   2.619   5.870   8.175 -1.9323  3.1961  0.3661
12547SOL     OW46418  11.490   0.340   1.326  0.1817 -0.1955 -0.0234
12547SOL    HW146419  11.489   0.322   1.232  0.5447  2.2532 -0.5858
12547SOL    HW246420  11.554   0.411   1.336 -0.9295  0.6224  1.8318
12548SOL     OW46421  12.157  10.647  10.914  0.6732 -0.7120 -0.3030
12548SOL    HW146422  12.134  10.698  10.836 -0.0124 -1.4616 -0.6069
12548SOL    HW246423  12.125  10.700  10.988  0.4127 -0.4688 -0.5872
12549SOL     OW46424   4.204   1.185   2.404 -0.3797  0.1514 -0.0256
12549SOL    HW146425   4.279   1.134   2.432 -0.8263 -1.2637 -1.2802
12549SOL    HW246426   4.188   1.158   2.314 -3.5648 -1.0697  0.7625
12550SOL     OW46427  11.151  11.365  10.654  0.2183  0.1040  0.1274
12550SOL    HW146428  11.226  11.404  10.699  0.4238  0.5217 -0.5541
12550SOL    HW246429  11.091  11.340  10.724  0.3326  1.1498  0.6233
12551SOL     OW46430   9.063  10.253   3.561  0.5205 -0.4199 -0.4535
12551SOL    HW146431   9.089  10.172   3.517  0.1314 -0.1701 -1.1626
12551SOL    HW246432   9.137  10.274   3.618  0.5313 -1.3923 -0.0996
12552SOL     OW46433   8.016   4.219   5.824 -0.2088 -0.2217  0.1640
12552SOL    HW146434   7.991   4.232   5.916 -2.4042 -2.1307 -0.0458
12552SOL    HW246435   8.001   4.125   5.809 -0.0978  0.0797 -2.1782
12553SOL     OW46436   5.773  10.356   5.864 -0.2915  0.2312 -0.0541
12553SOL    HW146437   5.845  10.307   5.823 -1.7885 -0.9251 -1.4337
12553SOL    HW246438   5.776  10.442   5.822  0.2671  0.1930 -0.1085
12554SOL     OW46439   1.139   4.989   6.375  0.0865 -0.0065 -0.0888
12554SOL    HW146440   1.172   4.935   6.303 -0.7150 -1.3437  0.5076
12554SOL    HW246441   1.047   5.003   6.354  0.2326  1.0271 -0.1385
12555SOL     OW46442   7.306   2.587   6.907  0.2517  0.2088 -0.1143
12555SOL    HW146443   7.235   2.555   6.964  1.0079 -0.4661  0.4758
12555SOL    HW246444   7.298   2.682   6.911 -0.1344  0.1611  0.5869
12556SOL     OW46445   1.479  12.538   7.380  0.1887 -0.3015  0.0484
12556SOL    HW146446   1.435  12.516   7.298 -1.6429 -0.2788  0.9581
12556SOL    HW246447   1.542  12.467   7.393  0.1557 -0.5728 -1.1191
12557SOL     OW46448   7.497   1.536   3.612  0.2163  0.0767  0.6724
12557SOL    HW146449   7.533   1.452   3.582 -1.4481 -0.5976  0.4412
12557SOL    HW246450   7.539   1.552   3.696  1.5241 -0.3294  0.1142
12558SOL     OW46451   1.192   9.420   5.273 -0.0130  0.2995  0.0502
12558SOL    HW146452   1.153   9.346   5.320  2.7473 -1.7468 -0.6668
12558SOL    HW246453   1.282   9.425   5.305  0.9190  1.0864 -2.4368
12559SOL     OW46454  10.779   1.561  10.569 -0.1881  0.1501  0.0832
12559SOL    HW146455  10.709   1.627  10.575  0.6047  1.1115 -0.9575
12559SOL    HW246456  10.832   1.588  10.495 -0.4168 -2.2467 -1.0610
12560SOL     OW46457  10.255   8.082   3.500 -0.3155  0.2519  0.1815
12560SOL    HW146458  10.333   8.078   3.444 -0.9538 -0.3990 -0.6784
12560SOL    HW246459  10.246   7.994   3.535 -0.2389  0.5201  0.8927
12561SOL     OW46460   7.145   6.540   2.746  0.7493 -0.0794 -0.2470
12561SOL    HW146461   7.156   6.619   2.694  2.7517  1.0722  1.7160
12561SOL    HW246462   7.229   6.495   2.740  0.5954 -0.5674  0.8928
12562SOL     OW46463  10.314   1.568   7.315  0.1806 -0.1040 -0.1206
12562SOL    HW146464  10.405   1.597   7.318  0.9186 -2.2023 -0.3886
12562SOL    HW246465  10.293   1.564   7.222  0.3009 -0.9507 -0.1198
12563SOL     OW46466   4.864   6.502   7.786 -0.1478  0.6548 -0.0126
12563SOL    HW146467   4.902   6.504   7.698 -0.1745 -1.3143 -0.1159
12563SOL    HW246468   4.772   6.478   7.772 -0.1672  0.3883  0.5410
12564SOL     OW46469  11.013   4.839   9.955  0.1705 -0.8079  0.0067
12564SOL    HW146470  11.100   4.852   9.916  0.3333  0.3330  0.7004
12564SOL    HW246471  11.001   4.915  10.012 -1.3618 -0.8597 -0.2091
12565SOL     OW46472   9.258   8.053   2.766  0.4053  0.4051  0.4981
12565SOL    HW146473   9.349   8.078   2.777  0.7953 -0.1500 -1.2697
12565SOL    HW246474   9.254   7.961   2.794  0.8826 -0.2477 -1.4436
12566SOL     OW46475   2.468   8.681   3.295  0.4197  0.1135 -0.3086
12566SOL    HW146476   2.513   8.742   3.237  0.3333 -1.2590 -1.9061
12566SOL    HW246477   2.490   8.594   3.260 -0.4635 -0.7334  1.1195
12567SOL     OW46478   6.845   3.860   6.944  0.6176 -0.2589  0.4881
12567SOL    HW146479   6.772   3.902   6.989 -0.2899  0.8581 -1.8298
12567SOL    HW246480   6.806   3.784   6.901  1.3855 -1.1053  1.2415
12568SOL     OW46481  10.614  12.030   3.453  0.3464 -0.0279  0.0951
12568SOL    HW146482  10.567  11.948   3.467 -0.4757  0.2296 -0.9981
12568SOL    HW246483  10.659  12.018   3.370  1.0662  0.2556  0.4368
12569SOL     OW46484   9.099   1.255  10.093 -0.2821  0.7828  0.1831
12569SOL    HW146485   9.128   1.288  10.178 -0.0389 -0.4033  0.5730
12569SOL    HW246486   9.164   1.289  10.031  0.7832 -0.1232  0.7689
12570SOL     OW46487   3.000  11.000   4.229 -0.5488  0.0354  0.8109
12570SOL    HW146488   2.986  10.906   4.239 -0.8426  0.0299  0.3843
12570SOL    HW246489   3.074  11.019   4.286 -1.4784 -0.1620  2.1263
12571SOL     OW46490  10.157   1.587   2.462  0.2004 -0.1432 -0.1585
12571SOL    HW146491  10.133   1.668   2.417  0.3813  0.0423  0.0825
12571SOL    HW246492  10.095   1.522   2.427 -0.7946  0.3668  0.5975
12572SOL     OW46493   7.586   9.706   6.362  0.7894 -0.2694 -0.1774
12572SOL    HW146494   7.564   9.792   6.399 -1.3954  0.1812 -2.2887
12572SOL    HW246495   7.527   9.645   6.406  0.6965 -0.3092 -0.3562
12573SOL     OW46496  11.867   9.311  12.151 -0.0014 -0.5209 -0.2300
12573SOL    HW146497  11.942   9.369  12.164 -0.8793  0.5627  0.2415
12573SOL    HW246498  11.833   9.333  12.065 -0.0524 -0.6738 -0.2502
12574SOL     OW46499   0.455   7.952   9.631 -0.2281 -0.5366 -0.0513
12574SOL    HW146500   0.534   7.999   9.658 -0.4743 -0.5494  0.7251
12574SOL    HW246501   0.388   7.980   9.693 -1.3423  0.8900 -1.7950
12575SOL     OW46502   0.358  12.484   4.108 -0.4287 -0.2150  0.6220
12575SOL    HW146503   0.303  12.463   4.033 -0.6024  0.6005  0.5061
12575SOL    HW246504   0.434  12.527   4.070 -0.6321  0.4220  0.9257
12576SOL     OW46505   7.984   6.137   0.019 -0.3454 -0.0294  0.1713
12576SOL    HW146506   7.974   6.160  -0.073 -1.0968 -1.1936 -0.0531
12576SOL    HW246507   7.949   6.213   0.066 -2.0738 -0.3496 -0.5330
12577SOL     OW46508   3.876  11.369   7.997  0.0284 -0.0149  0.3993
12577SOL    HW146509   3.968  11.344   8.004  0.3270  0.8388 -0.3578
12577SOL    HW246510   3.864  11.392   7.905 -0.5226  1.4079  0.7954
12578SOL     OW46511   4.324   1.245  10.260  0.3398 -0.1990  0.5979
12578SOL    HW146512   4.371   1.200  10.330  0.9819 -2.7911 -1.3472
12578SOL    HW246513   4.391   1.269  10.196 -0.4029  0.6735  0.1215
12579SOL     OW46514   8.085   0.129   9.104 -0.1046 -0.3338 -0.4602
12579SOL    HW146515   8.061   0.219   9.125  0.5816 -0.5624  1.5360
12579SOL    HW246516   8.160   0.137   9.044  0.1778  0.4285 -0.0120
12580SOL     OW46517  12.017   7.404   5.099 -0.0940  0.0703  0.1126
12580SOL    HW146518  11.992   7.484   5.053 -2.3026  0.0450  1.1680
12580SOL    HW246519  11.965   7.335   5.058  0.5684 -0.5453  0.2923
12581SOL     OW46520   4.553   2.576  10.647 -0.2052 -0.0976  0.2768
12581SOL    HW146521   4.463   2.601  10.668 -0.6314 -1.4310  0.1595
12581SOL    HW246522   4.546   2.485  10.619  1.2874 -0.4436  0.9485
12582SOL     OW46523  12.279   9.267   2.456 -0.4705  0.7767 -0.0430
12582SOL    HW146524  12.294   9.341   2.516  0.9530 -0.4962  1.2461
12582SOL    HW246525  12.294   9.189   2.510 -0.0956 -0.4442 -1.8340
12583SOL     OW46526  11.086   2.981   2.379 -0.5939  0.4265  0.1308
12583SOL    HW146527  11.133   3.022   2.306 -0.1533  1.5747  1.0345
12583SOL    HW246528  11.146   2.989   2.453 -1.0477 -0.6967  0.6450
12584SOL     OW46529   2.032   0.438   4.484  0.2543 -0.0741  0.0284
12584SOL    HW146530   1.984   0.516   4.459  0.1062 -0.9465 -2.7802
12584SOL    HW246531   1.968   0.384   4.532  0.3620  1.4231  1.9779
12585SOL     OW46532   5.279   1.848  12.607  0.0494  0.3812 -0.6992
12585SOL    HW146533   5.285   1.878  12.516 -1.9461 -1.6778 -1.6334
12585SOL    HW246534   5.214   1.777  12.604  0.7428 -0.5078  2.1569
12586SOL     OW46535   8.827   5.867   6.613  1.2219  0.3491 -0.4168
12586SOL    HW146536   8.921   5.884   6.613  1.3492 -0.3134 -0.1251
12586SOL    HW246537   8.811   5.821   6.531  1.3806 -0.6936  0.1251
12587SOL     OW46538   4.505   2.561   5.345  0.2751  0.6898 -0.3227
12587SOL    HW146539   4.576   2.509   5.382 -0.4250 -0.0156  0.0456
12587SOL    HW246540   4.471   2.613   5.418 -1.0522 -0.6416  0.0444
12588SOL     OW46541   2.167   4.445   7.330  0.4668 -0.1839  0.0582
12588SOL    HW146542   2.206   4.359   7.346  1.2305  0.2061  0.3318
12588SOL    HW246543   2.137   4.473   7.417 -1.3440 -0.8889 -0.2777
12589SOL     OW46544  10.707  11.066  10.300 -0.5535  0.1773 -0.2046
12589SOL    HW146545  10.751  11.150  10.309 -0.4252 -0.0561  1.6023
12589SOL    HW246546  10.731  11.017  10.378 -3.6788 -0.0981  0.7412
12590SOL     OW46547   2.100   6.832   9.238 -0.4243  0.6691 -0.1449
12590SOL    HW146548   2.188   6.796   9.253 -0.7129  0.8873  2.7046
12590SOL    HW246549   2.061   6.773   9.173  1.2108 -0.4839 -0.1524
12591SOL     OW46550   6.233   2.758   1.151 -1.1354  0.2030 -0.0402
12591SOL    HW146551   6.231   2.849   1.122  0.2502  0.1151 -0.4631
12591SOL    HW246552   6.150   2.746   1.198 -0.8914  1.9861  0.9362
12592SOL     OW46553   3.311   5.303   5.037 -0.0743 -0.0326 -0.5260
12592SOL    HW146554   3.240   5.323   4.976 -1.4358  0.9785  1.2744
12592SOL    HW246555   3.337   5.388   5.073  1.4318 -0.4945 -0.4652
12593SOL     OW46556  10.640   1.576   2.569  0.0867 -0.3847 -0.2283
12593SOL    HW146557  10.723   1.566   2.614 -0.1544  0.7223  0.5096
12593SOL    HW246558  10.658   1.638   2.498  0.0108 -0.5559 -0.3983
12594SOL     OW46559   8.663   1.823   9.256  0.0322  0.0578  0.1362
12594SOL    HW146560   8.603   1.850   9.326  0.1943  1.1225 -0.1125
12594SOL    HW246561   8.693   1.737   9.282 -1.1180 -0.2323  0.5874
12595SOL     OW46562   4.391   8.404   2.615 -0.3806  0.0408  0.1412
12595SOL    HW146563   4.372   8.491   2.649 -0.4985  0.5686 -1.2467
12595SOL    HW246564   4.309   8.355   2.625 -1.1475  0.9221 -1.5760
12596SOL     OW46565   3.898   0.885  12.555  0.0296 -0.5959  0.2131
12596SOL    HW146566   3.926   0.902  12.465  0.0769 -1.0276  0.1432
12596SOL    HW246567   3.952   0.812  12.584  0.2027 -0.2870  0.6912
12597SOL     OW46568  12.086  12.193   2.834 -0.0386 -0.5139  0.1214
12597SOL    HW146569  12.144  12.153   2.899  0.5700 -0.8537 -0.6144
12597SOL    HW246570  11.999  12.162   2.857  0.0474  0.0678  1.2995
12598SOL     OW46571   2.522   7.979   2.823  0.5316 -0.0749 -0.3488
12598SOL    HW146572   2.508   8.073   2.820  1.7654  0.1317 -0.3050
12598SOL    HW246573   2.609   7.967   2.783  1.1835 -1.0007  1.2530
12599SOL     OW46574   8.591   6.020   7.555  0.3383  0.2107  0.3707
12599SOL    HW146575   8.514   5.992   7.506  1.4108 -2.2461 -0.0648
12599SOL    HW246576   8.642   6.070   7.493  0.7601 -1.2289 -0.4943
12600SOL     OW46577   5.357   8.387   2.984  0.1417  0.3754  0.1051
12600SOL    HW146578   5.341   8.453   3.052 -2.1489  2.7203 -2.4444
12600SOL    HW246579   5.289   8.403   2.919  2.4384 -1.3650 -2.9984
12601SOL     OW46580  10.510   3.596   2.021 -0.8907 -0.4642  0.1439
12601SOL    HW146581  10.476   3.595   2.110 -0.2035  0.1384  0.4270
12601SOL    HW246582  10.599   3.632   2.029 -0.3030 -1.6529 -0.6062
12602SOL     OW46583  10.147  10.981  12.074 -0.0817 -0.3659 -0.6250
12602SOL    HW146584  10.160  10.929  11.994  1.7192  0.2466 -0.7891
12602SOL    HW246585  10.083  11.047  12.050  0.2502 -0.3521 -1.5003
12603SOL     OW46586   5.817   0.445   5.623  0.1955 -0.6239  0.1948
12603SOL    HW146587   5.892   0.405   5.667 -1.6531 -1.2773  3.0380
12603SOL    HW246588   5.822   0.537   5.647  0.3123 -0.5885  0.0349
12604SOL     OW46589  11.164   4.766  10.281  0.3598  0.0388  0.7098
12604SOL    HW146590  11.123   4.703  10.222  0.3044  0.4557  0.2963
12604SOL    HW246591  11.109   4.763  10.360  1.3227 -1.6512  1.3700
12605SOL     OW46592  10.015   2.558   3.975  0.0229 -0.1297 -0.4485
12605SOL    HW146593  10.098   2.605   3.983  0.8617 -1.4656 -0.9560
12605SOL    HW246594   9.998   2.555   3.881 -1.6959  1.8886 -0.2914
12606SOL     OW46595   2.558   1.912   3.940  0.1881  0.0473  0.0867
12606SOL    HW146596   2.541   1.819   3.929 -0.9087  0.1701  0.5792
12606SOL    HW246597   2.516   1.953   3.864 -0.9498  0.2779  0.8179
12607SOL     OW46598  11.065   4.372   5.993  0.1975 -0.0359  0.5213
12607SOL    HW146599  11.045   4.325   6.074 -0.9241 -0.2370  0.1517
12607SOL    HW246600  11.046   4.464   6.013 -0.4180 -0.1294  0.3997
12608SOL     OW46601   5.970   0.017   8.829 -0.7886 -0.0597 -0.3875
12608SOL    HW146602   5.905  -0.054   8.832 -2.1865  1.0490 -2.2388
12608SOL    HW246603   5.934   0.084   8.886  0.5000 -0.7499  1.3077
12609SOL     OW46604   9.177  11.944   3.427 -0.0714 -0.2888  0.6862
12609SOL    HW146605   9.111  11.962   3.360 -0.1835 -0.4829  0.7438
12609SOL    HW246606   9.138  11.876   3.481  0.9331 -1.7845 -0.3988
12610SOL     OW46607   1.437   0.294   6.576 -0.0865 -0.5841  0.2480
12610SOL    HW146608   1.377   0.220   6.571 -0.8879  0.0378  0.4989
12610SOL    HW246609   1.459   0.314   6.485  1.6717 -2.3297  0.2235
12611SOL     OW46610   3.015   2.645   8.886 -0.3002 -0.4853 -0.0667
12611SOL    HW146611   3.026   2.730   8.843 -0.6143 -0.3241  0.1695
12611SOL    HW246612   2.928   2.649   8.925  0.2414 -0.3716  1.1589
12612SOL     OW46613   6.509   2.290   8.653  0.6435  0.2856 -0.1976
12612SOL    HW146614   6.425   2.298   8.609 -0.3366  0.3032  1.5731
12612SOL    HW246615   6.494   2.328   8.740  2.4650  0.2235  0.1856
12613SOL     OW46616   0.129   6.187  11.143 -0.2187  0.0378 -0.3231
12613SOL    HW146617   0.213   6.154  11.175  1.1289  0.7932 -2.7838
12613SOL    HW246618   0.133   6.281  11.159 -1.3507 -0.1197  1.0333
12614SOL     OW46619   3.210   2.277   1.157 -0.1491 -0.0031  0.0690
12614SOL    HW146620   3.287   2.332   1.173 -0.0004  0.0424 -0.7380
12614SOL    HW246621   3.240   2.214   1.090 -1.7144  2.0531 -2.7616
12615SOL     OW46622  11.609   1.325   5.063 -0.2584 -0.0574 -0.3393
12615SOL    HW146623  11.654   1.400   5.100  1.0111 -0.4144 -1.1091
12615SOL    HW246624  11.587   1.270   5.138 -2.2267  1.5598  0.3760
12616SOL     OW46625   7.382   5.178   2.837  0.0917 -0.4331  0.1336
12616SOL    HW146626   7.346   5.266   2.829  1.6960  0.1088 -2.4379
12616SOL    HW246627   7.419   5.175   2.925  0.2389  1.5858  0.1858
12617SOL     OW46628  10.873   1.025   7.789 -0.5135  0.0213 -0.2664
12617SOL    HW146629  10.862   1.110   7.747  0.3974 -0.1824 -0.9455
12617SOL    HW246630  10.968   1.014   7.797 -0.6395 -0.5245  0.6603
12618SOL     OW46631   1.606   7.176   2.098  0.4901  0.5657 -0.4867
12618SOL    HW146632   1.671   7.120   2.056  0.8614 -0.6844  1.6424
12618SOL    HW246633   1.645   7.199   2.183 -2.0542 -0.8295  1.1922
12619SOL     OW46634   0.426   9.099   8.562  0.7095 -0.2298  0.4127
12619SOL    HW146635   0.383   9.151   8.493  1.2064 -1.0718 -0.5718
12619SOL    HW246636   0.439   9.013   8.521  1.7793 -0.4991  1.2871
12620SOL     OW46637   5.134   5.639   0.512 -0.3243 -0.1462 -0.5849
12620SOL    HW146638   5.225   5.657   0.486 -0.6646 -0.5230 -2.1923
12620SOL    HW246639   5.116   5.553   0.475 -0.9810 -0.5839  0.7306
12621SOL     OW46640   4.775   3.807   7.076 -0.1177 -0.3172 -0.7894
12621SOL    HW146641   4.863   3.775   7.099 -1.1298 -2.4519  0.4478
12621SOL    HW246642   4.770   3.894   7.116  1.9195  0.5100 -2.1757
12622SOL     OW46643   6.326   7.243   1.983 -0.2955  0.1429  0.2116
12622SOL    HW146644   6.253   7.266   2.041  0.6964  0.5366  1.3344
12622SOL    HW246645   6.286   7.187   1.916 -2.1782  2.5326 -0.8322
12623SOL     OW46646   8.247   3.888   3.130  0.0818 -0.2009 -0.0309
12623SOL    HW146647   8.314   3.858   3.069 -0.6644  0.3357 -1.1560
12623SOL    HW246648   8.295   3.933   3.199  0.8925 -0.0724 -0.6676
12624SOL     OW46649  10.136   9.134   5.097  0.3963  0.5327 -0.3526
12624SOL    HW146650  10.102   9.148   5.009  1.0374 -0.4675 -0.7809
12624SOL    HW246651  10.216   9.083   5.084  0.6815  0.6617  0.7873
12625SOL     OW46652   9.842   2.343   8.645  0.2527  0.4481 -0.5119
12625SOL    HW146653   9.938   2.344   8.650  0.2662  2.4433  0.0760
12625SOL    HW246654   9.814   2.343   8.737 -0.3972 -1.9850 -0.6409
12626SOL     OW46655   4.921   8.612   6.385  0.0981  0.4569  0.3866
12626SOL    HW146656   4.871   8.613   6.304 -1.4261  1.1400  1.2994
12626SOL    HW246657   4.896   8.530   6.428  0.0823  0.6062  0.6614
12627SOL     OW46658   9.242   1.842   3.561  0.2421 -0.0441  0.1070
12627SOL    HW146659   9.198   1.890   3.491  0.9580  0.9466  0.3171
12627SOL    HW246660   9.189   1.763   3.573 -1.4608  1.0938  0.3471
12628SOL     OW46661   5.369   8.681   8.732  0.5373  0.4465  0.3160
12628SOL    HW146662   5.415   8.613   8.682 -1.0857 -0.6607  0.2622
12628SOL    HW246663   5.326   8.734   8.665  1.9542  1.7093  0.3461
12629SOL     OW46664   8.142   8.908   2.639 -0.2280 -0.5010 -0.1708
12629SOL    HW146665   8.084   8.895   2.565 -1.8539 -0.6833  1.0838
12629SOL    HW246666   8.100   8.976   2.692  0.8209 -0.4509  0.6598
12630SOL     OW46667   0.078   9.453   7.970 -0.5802  0.2654  0.7958
12630SOL    HW146668   0.095   9.366   7.935 -2.0913 -0.1977  1.1292
12630SOL    HW246669   0.057   9.506   7.894  0.8886  0.5155  0.5286
12631SOL     OW46670   2.599   7.661  12.445  0.0141  0.7004 -0.1746
12631SOL    HW146671   2.607   7.573  12.408 -2.2929  0.4551 -0.2672
12631SOL    HW246672   2.598   7.719  12.369  0.9083  0.7464 -0.1517
12632SOL     OW46673  10.066   8.798  11.816  0.2780 -0.4271  0.1703
12632SOL    HW146674  10.115   8.770  11.738 -1.0897  1.3276 -1.4079
12632SOL    HW246675  10.031   8.717  11.852  0.0551 -1.2187 -1.6989
12633SOL     OW46676   3.830  11.214   0.943 -0.3133  0.0350 -0.3601
12633SOL    HW146677   3.748  11.247   0.982  0.4231  0.0707  1.2228
12633SOL    HW246678   3.895  11.223   1.012  0.7253 -1.3883 -1.1017
12634SOL     OW46679   0.035   5.868   4.600 -0.1412 -0.2973 -0.2165
12634SOL    HW146680   0.052   5.934   4.668 -0.4715 -1.8191  1.4183
12634SOL    HW246681  -0.031   5.810   4.639 -1.3527 -0.4903 -2.3742
12635SOL     OW46682   0.851   6.656   6.398  0.0970 -0.5924 -0.4715
12635SOL    HW146683   0.853   6.741   6.443 -2.0350 -1.6475  1.8337
12635SOL    HW246684   0.943   6.633   6.386  0.7210  1.3163  0.2491
12636SOL     OW46685   4.740  11.780   0.352  0.1276  0.4822  0.3764
12636SOL    HW146686   4.669  11.743   0.403  1.4758  0.8248  2.6073
12636SOL    HW246687   4.749  11.721   0.277 -1.7809 -0.1386  0.6011
12637SOL     OW46688   7.399   0.548  10.819  0.4058 -0.4597  0.2102
12637SOL    HW146689   7.401   0.461  10.779  0.1392 -0.4672  0.2139
12637SOL    HW246690   7.310   0.579  10.805  0.8507  0.3480 -0.9319
12638SOL     OW46691   6.685   5.145  11.819  0.2370 -0.2814 -0.3566
12638SOL    HW146692   6.765   5.159  11.869  1.0870  0.4447 -1.8642
12638SOL    HW246693   6.619   5.200  11.861  0.7113 -0.3130  0.4359
12639SOL     OW46694   4.674   5.134   4.055 -0.0186  0.2983  0.0290
12639SOL    HW146695   4.592   5.140   4.104  0.3821  0.9965  0.6301
12639SOL    HW246696   4.698   5.225   4.037 -0.0487  0.0593 -1.2841
12640SOL     OW46697   6.070   5.724   8.069 -0.0211  0.7273 -0.3394
12640SOL    HW146698   6.159   5.709   8.038 -0.0134  2.3344 -1.2202
12640SOL    HW246699   6.024   5.759   7.993 -0.7862  2.0997  0.7158
12641SOL     OW46700   6.913   1.868  11.996 -0.2338 -0.3395  0.3576
12641SOL    HW146701   6.899   1.776  12.020  0.6901 -0.5409  0.1567
12641SOL    HW246702   6.975   1.901  12.060  1.6900 -0.6810 -1.2179
12642SOL     OW46703   4.017  12.267  10.341 -0.7337  0.5756  0.3673
12642SOL    HW146704   3.990  12.184  10.301  0.1857  0.2171  0.4599
12642SOL    HW246705   3.998  12.333  10.275 -0.3470  0.1377 -0.1966
12643SOL     OW46706   6.472   2.673   9.053 -0.2296 -0.2403  0.0596
12643SOL    HW146707   6.426   2.652   9.134 -0.3727 -1.8877 -0.4181
12643SOL    HW246708   6.421   2.630   8.984  1.3165 -1.0783 -0.6103
12644SOL     OW46709  11.478  11.529   7.890 -0.7540  0.3013  0.6254
12644SOL    HW146710  11.508  11.533   7.981  0.8676 -0.9585  0.2003
12644SOL    HW246711  11.500  11.616   7.855  0.4100  0.1625  0.9456
12645SOL     OW46712  10.810   5.861   8.950  0.3424  0.0174 -0.3113
12645SOL    HW146713  10.744   5.854   8.881  0.2478 -1.4672 -0.1063
12645SOL    HW246714  10.890   5.883   8.904 -0.1816  1.3317 -0.6226
12646SOL     OW46715   2.895   2.977   2.349 -0.2215  0.4117  0.2112
12646SOL    HW146716   2.804   2.953   2.366  0.7386 -2.8206  1.5411
12646SOL    HW246717   2.940   2.963   2.432  2.1275 -1.9179 -1.2852
12647SOL     OW46718   4.705   4.578   4.356  0.6105 -0.0684  0.6149
12647SOL    HW146719   4.610   4.582   4.366  0.7470  0.4807  1.7960
12647SOL    HW246720   4.718   4.519   4.281 -0.6919  1.2517 -0.7397
12648SOL     OW46721   3.985   2.926  12.035  0.1901 -0.0193  0.3496
12648SOL    HW146722   3.988   2.866  11.961 -0.6175 -0.6956  0.8517
12648SOL    HW246723   3.946   3.006  12.000 -0.4026 -0.4164  0.0863
12649SOL     OW46724   7.985   0.383   8.845 -0.5590  0.0040 -0.3499
12649SOL    HW146725   7.966   0.379   8.938 -2.3379  0.9417 -0.6256
12649SOL    HW246726   7.953   0.300   8.809  1.2169 -0.8762  0.0093
12650SOL     OW46727   8.461   1.854   4.700  0.7372  0.1029  0.5041
12650SOL    HW146728   8.498   1.784   4.646  0.3226  0.2616  0.0065
12650SOL    HW246729   8.514   1.853   4.780  1.6310  0.1436 -0.0744
12651SOL     OW46730   5.576  11.128   7.901  0.3929 -0.2408  0.0970
12651SOL    HW146731   5.606  11.201   7.955  1.8630 -0.5738 -0.2224
12651SOL    HW246732   5.574  11.053   7.961  0.6273 -0.3032  0.0314
12652SOL     OW46733   5.615   4.286   1.443 -0.6109  0.4752  0.4549
12652SOL    HW146734   5.642   4.244   1.525 -1.4049 -0.4438  0.2604
12652SOL    HW246735   5.524   4.313   1.458 -0.7474  0.3458 -0.1020
12653SOL     OW46736  11.937   8.757   1.982  0.7687 -0.2430  0.7270
12653SOL    HW146737  11.897   8.783   1.899  0.4856 -0.4283  0.8035
12653SOL    HW246738  11.976   8.838   2.016  0.5123 -0.0716  0.6203
12654SOL     OW46739   3.029   9.432   9.494  0.6184 -0.6633 -0.3482
12654SOL    HW146740   2.972   9.374   9.443 -0.9294 -0.1967  0.7777
12654SOL    HW246741   2.995   9.426   9.583  1.0926  1.1575 -0.0137
12655SOL     OW46742   9.490   5.210   7.157 -0.5611 -0.0588 -0.2664
12655SOL    HW146743   9.530   5.231   7.242 -3.2040  1.1020  0.7941
12655SOL    HW246744   9.525   5.123   7.136  0.3970 -0.2737  1.8783
12656SOL     OW46745   5.187   3.516   8.635  0.3551  0.1452 -0.3952
12656SOL    HW146746   5.259   3.464   8.670 -0.5168  0.1081  1.5111
12656SOL    HW246747   5.211   3.607   8.652  1.4175  0.3885 -2.8108
12657SOL     OW46748   9.856   3.292   6.189  0.2750  0.0956 -0.4118
12657SOL    HW146749   9.877   3.199   6.202 -0.7641 -0.3810 -1.8751
12657SOL    HW246750   9.848   3.327   6.278  2.7794 -0.6765  0.2146
12658SOL     OW46751  11.082  10.519   6.643 -0.2004  0.7829 -0.4430
12658SOL    HW146752  11.051  10.447   6.588  1.0168 -0.4239  0.3982
12658SOL    HW246753  11.176  10.522   6.629 -0.1260  1.7261  0.1268
12659SOL     OW46754  12.226   7.891   4.795 -0.1026  0.2440 -0.0383
12659SOL    HW146755  12.264   7.892   4.708  0.6914  2.2271  0.2564
12659SOL    HW246756  12.166   7.816   4.796  0.8730 -0.5959 -1.8163
12660SOL     OW46757  11.395   0.407   8.489  0.7513  0.0260  0.2316
12660SOL    HW146758  11.402   0.376   8.399 -0.8387  1.5833 -0.4929
12660SOL    HW246759  11.383   0.328   8.541 -0.8929 -0.7527 -1.2471
12661SOL     OW46760   9.881   5.238   1.198  0.0538  0.2235 -0.3238
12661SOL    HW146761   9.876   5.270   1.109 -1.6135 -0.0867 -0.3832
12661SOL    HW246762   9.831   5.156   1.197  0.6860 -0.2066  0.7221
12662SOL     OW46763   8.630  10.602   6.014  0.3914 -0.1230 -0.1578
12662SOL    HW146764   8.555  10.631   5.962 -1.3669 -1.6389  1.3564
12662SOL    HW246765   8.651  10.677   6.070 -0.7552 -0.0249  0.1674
12663SOL     OW46766   3.352  10.861   9.693 -0.1127 -0.2943 -0.2211
12663SOL    HW146767   3.362  10.856   9.789 -1.9342 -2.0838 -0.0634
12663SOL    HW246768   3.278  10.921   9.680 -0.4277 -0.7278 -0.4461
12664SOL     OW46769   2.440   4.535   7.220  0.1967 -0.0461  0.2906
12664SOL    HW146770   2.372   4.498   7.164  0.5613  0.7446 -0.6961
12664SOL    HW246771   2.391   4.586   7.285 -0.1817 -0.0251 -0.0047
12665SOL     OW46772   4.576   6.574   7.176  0.2993  0.1916 -0.1285
12665SOL    HW146773   4.488   6.570   7.211  0.2818  1.2519 -0.0202
12665SOL    HW246774   4.616   6.650   7.219  1.0777  0.0516 -0.5819
12666SOL     OW46775  11.468  10.996   7.666 -0.3291 -0.1160  0.0059
12666SOL    HW146776  11.396  11.023   7.609 -0.6725 -1.2315 -0.1281
12666SOL    HW246777  11.489  11.073   7.718 -2.1949  0.0072  0.6565
12667SOL     OW46778  11.761  12.360   6.597  0.3032 -0.3494  0.2144
12667SOL    HW146779  11.763  12.279   6.647 -1.9989 -0.7560 -0.2263
12667SOL    HW246780  11.804  12.338   6.514 -0.3644 -1.1578  0.0699
12668SOL     OW46781   9.451   5.150  12.389 -0.0914 -0.5247 -0.1710
12668SOL    HW146782   9.480   5.078  12.445 -0.8782 -0.9722 -0.3295
12668SOL    HW246783   9.359   5.132  12.372 -0.6467  1.1894  0.8244
12669SOL     OW46784   3.956   8.150   4.763 -0.2003  0.3500  0.5732
12669SOL    HW146785   4.025   8.211   4.786 -0.3877  0.0677  1.9398
12669SOL    HW246786   3.929   8.111   4.846  2.3418 -4.2493 -0.3465
12670SOL     OW46787   3.656   2.878   0.055  0.3349 -0.0800  0.0464
12670SOL    HW146788   3.566   2.876   0.024 -0.5421 -1.2556  2.4239
12670SOL    HW246789   3.685   2.968   0.040 -0.9185  0.0988 -1.5309
12671SOL     OW46790   5.616   0.895   3.247  0.0313  0.2465  0.1633
12671SOL    HW146791   5.684   0.949   3.207 -0.8629  1.1586 -0.1444
12671SOL    HW246792   5.544   0.955   3.265 -0.3476 -0.5198  1.3637
12672SOL     OW46793   7.645   9.870   0.310 -0.8291 -0.1563  0.1631
12672SOL    HW146794   7.714   9.929   0.342  1.4439 -1.5891 -1.7654
12672SOL    HW246795   7.573   9.929   0.289 -0.1405  1.4659  1.9583
12673SOL     OW46796   8.240   0.310   5.801  0.9891  0.0834  0.7165
12673SOL    HW146797   8.315   0.358   5.834 -0.5472  1.3602  2.5924
12673SOL    HW246798   8.242   0.227   5.849  0.0608  0.9963  2.4342
12674SOL     OW46799   1.316   1.136   2.455 -0.0683  0.0292  0.5412
12674SOL    HW146800   1.264   1.216   2.456 -0.0333  0.0460  1.0569
12674SOL    HW246801   1.289   1.089   2.534  0.6030 -0.0239  0.7476
12675SOL     OW46802   8.406   6.134   1.488 -0.1123  0.2787  0.9252
12675SOL    HW146803   8.336   6.184   1.445  0.0208 -0.4964 -0.2291
12675SOL    HW246804   8.452   6.199   1.541 -0.5713  1.1790  0.2562
12676SOL     OW46805   8.039   5.679  12.025  0.1362 -0.2071  0.5195
12676SOL    HW146806   8.091   5.661  12.104  1.1188 -2.3240 -0.5207
12676SOL    HW246807   7.953   5.642  12.045  0.4517 -0.9583  0.5505
12677SOL     OW46808   5.480   9.146   8.721  0.6882 -0.2772  0.7700
12677SOL    HW146809   5.456   9.205   8.649  0.3983 -1.3394 -0.0470
12677SOL    HW246810   5.399   9.099   8.741  1.2101 -1.3465  0.4672
12678SOL     OW46811   1.367   1.134   5.511 -0.2772 -0.4857 -0.5022
12678SOL    HW146812   1.344   1.225   5.492  0.8668 -0.3572 -1.3758
12678SOL    HW246813   1.455   1.123   5.475  0.0034 -1.6672  0.4655
12679SOL     OW46814  11.920   2.458   8.900  0.0900 -0.1809  0.2483
12679SOL    HW146815  11.882   2.372   8.883  0.2855 -0.0941 -0.6428
12679SOL    HW246816  11.932   2.497   8.814 -2.5109  1.8661  0.6785
12680SOL     OW46817  12.033   5.931   2.511  0.2975 -0.1217  0.7457
12680SOL    HW146818  12.096   5.875   2.466  0.5141 -0.2910  1.2466
12680SOL    HW246819  11.970   5.957   2.443  1.5482  0.9996 -0.0214
12681SOL     OW46820  10.895   8.023   5.692 -0.2232 -0.0197  0.4709
12681SOL    HW146821  10.968   8.067   5.736  0.3118  1.6020 -1.8693
12681SOL    HW246822  10.817   8.055   5.736  0.2760  1.8826  0.0523
12682SOL     OW46823   4.213   7.015  10.840  0.0307  0.4414  0.3502
12682SOL    HW146824   4.151   7.023  10.768  2.6264 -1.1931 -2.3450
12682SOL    HW246825   4.203   6.924  10.870  1.1048  0.1242 -0.1935
12683SOL     OW46826   9.180   6.223   5.742 -0.0869  0.7085 -0.3642
12683SOL    HW146827   9.096   6.249   5.704 -0.8124  0.4467  0.9831
12683SOL    HW246828   9.180   6.264   5.829  0.2231 -1.0112  0.4879
12684SOL     OW46829  10.998   6.692   0.776 -0.0539 -0.3454  0.2888
12684SOL    HW146830  10.985   6.708   0.869  1.0149  0.0390  0.3810
12684SOL    HW246831  10.951   6.610   0.759  1.1638 -1.3624  1.5372
12685SOL     OW46832   7.075  12.455   7.974 -0.5663 -0.1571  0.3189
12685SOL    HW146833   7.081  12.402   8.053  2.8845 -1.2855 -0.5225
12685SOL    HW246834   7.154  12.510   7.975 -0.7839  0.3307 -1.9329
12686SOL     OW46835  12.523   9.136  11.838  0.3686 -0.1991 -0.0784
12686SOL    HW146836  12.571   9.158  11.758  0.5973  0.9567  0.3546
12686SOL    HW246837  12.508   9.221  11.881  0.4624 -0.8128  1.2177
12687SOL     OW46838   2.242   2.788   0.808  0.7263 -0.2301  0.1029
12687SOL    HW146839   2.179   2.768   0.877  1.5535 -2.3984  0.3130
12687SOL    HW246840   2.272   2.877   0.827 -0.4846 -0.0720  1.3826
12688SOL     OW46841   0.305  10.026  11.341  0.4319  0.3229  0.3696
12688SOL    HW146842   0.300  10.030  11.246  0.4326 -0.1214  0.3512
12688SOL    HW246843   0.356  10.104  11.365 -1.7933  1.9069  0.2023
12689SOL     OW46844   4.955   1.728  11.153 -0.0671 -0.4719 -0.1264
12689SOL    HW146845   4.888   1.795  11.139  0.3974  0.1537  0.5682
12689SOL    HW246846   5.037   1.778  11.163  0.9379 -1.2828 -3.1856
12690SOL     OW46847   5.438   5.763   4.473 -0.6275 -0.0129 -0.5365
12690SOL    HW146848   5.503   5.704   4.510 -1.5544  0.5536  2.2500
12690SOL    HW246849   5.474   5.851   4.487 -1.7660  0.2866  0.7069
12691SOL     OW46850   7.488   5.090   6.364 -0.4613 -0.2867  0.1880
12691SOL    HW146851   7.407   5.054   6.329 -0.4653  0.0962 -0.2031
12691SOL    HW246852   7.463   5.172   6.404  0.0338  0.8909 -1.7754
12692SOL     OW46853   2.693   5.008  11.645 -0.1533 -0.0309  0.3305
12692SOL    HW146854   2.660   5.000  11.735  0.2552 -1.4741  0.3784
12692SOL    HW246855   2.638   4.949  11.594 -0.5397  0.9591 -0.4335
12693SOL     OW46856  12.100   9.605   9.443  0.1052  0.0867 -0.0439
12693SOL    HW146857  12.085   9.644   9.357 -0.8222 -0.9301 -0.3661
12693SOL    HW246858  12.017   9.619   9.490  1.1972  2.3271  1.4128
12694SOL     OW46859   8.303   3.607   7.557  0.0244  0.3120 -0.4242
12694SOL    HW146860   8.388   3.653   7.555 -0.3994  1.3297  1.6734
12694SOL    HW246861   8.323   3.522   7.597  0.1449  0.3944 -0.3048
12695SOL     OW46862   4.544   5.204   1.325 -0.5522  0.5339  0.4093
12695SOL    HW146863   4.631   5.232   1.353 -0.2593  0.1127 -0.0414
12695SOL    HW246864   4.491   5.284   1.326  1.0470  1.9896 -4.0066
12696SOL     OW46865   0.630  11.021   2.297  0.2314  0.4110 -0.2319
12696SOL    HW146866   0.665  11.103   2.261  0.1455  0.3492 -0.4576
12696SOL    HW246867   0.650  10.955   2.230  0.2875  0.2502 -0.0569
12697SOL     OW46868   1.011   8.657   7.161  0.1555 -0.2128 -0.4936
12697SOL    HW146869   1.077   8.652   7.092  0.1106  1.3154 -0.6879
12697SOL    HW246870   1.029   8.583   7.218  1.5238 -0.2905 -1.0016
12698SOL     OW46871  11.770   5.121   8.519  0.9580 -0.0644 -0.0728
12698SOL    HW146872  11.757   5.216   8.519 -2.1682 -0.2984 -2.9761
12698SOL    HW246873  11.770   5.097   8.611 -0.9706  2.5001  0.7137
12699SOL     OW46874   8.964   5.355   7.152 -0.1000  0.0843  0.6686
12699SOL    HW146875   8.871   5.346   7.175 -0.2705 -0.4488 -0.1952
12699SOL    HW246876   9.010   5.313   7.225 -0.5182  0.5024  1.1873
12700SOL     OW46877  12.434   2.898   5.436  0.3807  0.0946 -0.0169
12700SOL    HW146878  12.402   2.817   5.476  2.1271 -0.1795  0.9556
12700SOL    HW246879  12.450   2.875   5.344 -0.4422 -0.2477 -0.0849
12701SOL     OW46880   9.576  12.159  10.960  0.1010  0.4017  0.1063
12701SOL    HW146881   9.660  12.171  10.915  0.4054  1.6720  0.9458
12701SOL    HW246882   9.596  12.096  11.029  0.2422  0.2916 -0.0342
12702SOL     OW46883   8.042   1.973   5.930 -0.1673 -0.2196  0.1222
12702SOL    HW146884   8.106   1.909   5.961  0.9899  0.4872 -0.7459
12702SOL    HW246885   8.089   2.056   5.931 -0.5154  0.0609 -2.1286
12703SOL     OW46886   2.609  11.327   4.014 -0.0150 -0.8996  0.7421
12703SOL    HW146887   2.529  11.288   4.051 -0.4172 -1.5154 -0.7397
12703SOL    HW246888   2.677  11.263   4.032 -0.3062 -1.4282  0.0082
12704SOL     OW46889   3.120   5.390  10.799 -0.1046  0.1130  0.8289
12704SOL    HW146890   3.162   5.377  10.884 -0.6370 -1.6732  0.8653
12704SOL    HW246891   3.040   5.338  10.804 -1.6581  2.3130  0.2580
12705SOL     OW46892  11.127   5.880   6.495 -0.3193 -0.7554 -0.2083
12705SOL    HW146893  11.168   5.796   6.514  2.3167  0.8583  1.9358
12705SOL    HW246894  11.077   5.901   6.574 -1.6551 -0.6085 -1.0471
12706SOL     OW46895   5.470   7.664   6.411  0.2196 -0.6993  0.1594
12706SOL    HW146896   5.415   7.588   6.426 -1.8476  0.9512  1.4376
12706SOL    HW246897   5.457   7.719   6.488  1.1660  1.2433 -0.9907
12707SOL     OW46898  10.210   0.482   9.930 -0.1550 -0.3402 -0.0506
12707SOL    HW146899  10.286   0.539   9.936  0.8314 -1.5792 -0.3806
12707SOL    HW246900  10.149   0.515   9.996  1.4612 -0.4799  1.5852
12708SOL     OW46901   2.438   2.713  12.456  0.4250  0.4160  0.7687
12708SOL    HW146902   2.422   2.807  12.450 -2.1949  0.3797  3.9640
12708SOL    HW246903   2.390   2.676  12.381  1.6025  1.5452 -0.6035
12709SOL     OW46904   5.071   4.183  11.335  0.4655 -0.0235  1.0699
12709SOL    HW146905   5.067   4.262  11.388  0.4613 -0.3225  1.5201
12709SOL    HW246906   5.029   4.116  11.389  0.0792 -0.2379  0.5174
12710SOL     OW46907   7.327   7.516  10.945  0.2301  0.3838 -0.3138
12710SOL    HW146908   7.285   7.600  10.927 -1.1128  0.0328  0.9436
12710SOL    HW246909   7.311   7.501  11.039 -1.7342 -2.4153 -0.9819
12711SOL     OW46910   1.921  10.572   8.283 -0.1905 -0.4611  0.8598
12711SOL    HW146911   1.886  10.485   8.298  1.1385 -0.8766  1.7263
12711SOL    HW246912   1.957  10.598   8.368  0.2036  0.5676  0.3878
12712SOL     OW46913   4.007   9.570  11.317  0.4313  0.2120  0.2228
12712SOL    HW146914   3.939   9.503  11.305 -1.2096  1.7370  0.6456
12712SOL    HW246915   4.032   9.595  11.229  0.5236 -0.4203  0.0611
12713SOL     OW46916   8.656   0.392  10.722  0.1744 -0.6581  0.4330
12713SOL    HW146917   8.596   0.454  10.764  0.6148  0.0464  0.0532
12713SOL    HW246918   8.599   0.336  10.669 -0.3923 -1.5906  1.9674
12714SOL     OW46919   9.814  10.179  11.946 -0.2994  0.0247 -0.3882
12714SOL    HW146920   9.835  10.170  11.853 -0.4737 -1.5171 -0.3084
12714SOL    HW246921   9.890  10.140  11.991 -0.1646  0.8583  0.1293
12715SOL     OW46922   5.131  11.779   8.672 -0.4539 -0.2163  0.2594
12715SOL    HW146923   5.101  11.713   8.736  0.3892 -0.5196  0.3485
12715SOL    HW246924   5.169  11.727   8.601  2.7663  0.1694  1.5634
12716SOL     OW46925   0.413   1.537   2.224 -0.2708  0.1030 -0.0680
12716SOL    HW146926   0.508   1.528   2.232 -0.4521 -0.5940  1.5095
12716SOL    HW246927   0.384   1.452   2.189 -0.5626 -0.7033  2.0110
12717SOL     OW46928   0.509   4.062   3.862  0.5412  0.0163 -0.1349
12717SOL    HW146929   0.531   3.999   3.931  0.8279 -1.1469 -1.2652
12717SOL    HW246930   0.549   4.144   3.891  1.3813 -0.6595  0.6720
12718SOL     OW46931   0.452   1.474   8.503  0.1378  0.5627 -0.5820
12718SOL    HW146932   0.378   1.440   8.553  1.1905  0.6998  1.1521
12718SOL    HW246933   0.450   1.568   8.517  0.7355  0.5508 -0.3847
12719SOL     OW46934   4.401   5.259   3.574  0.0912 -0.2224 -0.1737
12719SOL    HW146935   4.415   5.206   3.496  1.3107 -0.9155  0.4874
12719SOL    HW246936   4.319   5.306   3.557  0.2834 -0.4407 -1.8057
12720SOL     OW46937   9.589   2.758   4.536 -0.6167  0.0899  0.6137
12720SOL    HW146938   9.632   2.689   4.487  1.4554  2.1564 -0.6941
12720SOL    HW246939   9.500   2.726   4.550  0.5516 -3.2969  1.1804
12721SOL     OW46940   2.652   4.405   4.670 -1.0255 -0.2368 -0.2980
12721SOL    HW146941   2.600   4.363   4.601 -0.9841 -0.5948 -0.1165
12721SOL    HW246942   2.667   4.335   4.734 -0.6347 -0.0373 -0.1700
12722SOL     OW46943   4.433  11.733  10.559 -0.2933 -0.0633 -0.1862
12722SOL    HW146944   4.444  11.667  10.627 -0.9169 -0.5781 -0.5748
12722SOL    HW246945   4.516  11.782  10.559 -0.7120  0.7130  1.7314
12723SOL     OW46946   8.731   4.605  12.239  0.3292  0.2126 -0.0324
12723SOL    HW146947   8.826   4.618  12.239  0.4970 -0.8787  0.5287
12723SOL    HW246948   8.695   4.691  12.262  1.2081  0.5059  0.3011
12724SOL     OW46949  12.183   3.910   9.717  0.5544 -0.3684  0.1752
12724SOL    HW146950  12.094   3.926   9.749 -0.2078 -0.5347 -1.7135
12724SOL    HW246951  12.213   3.833   9.766 -0.6868 -0.8346  0.2464
12725SOL     OW46952   3.563   8.810   5.342  0.1200 -0.1738  0.2664
12725SOL    HW146953   3.575   8.746   5.412  0.2158  1.0504  1.4122
12725SOL    HW246954   3.638   8.797   5.285  0.3559 -0.8074  0.7049
12726SOL     OW46955   7.925   5.100   0.867  0.0403 -0.0688 -0.1482
12726SOL    HW146956   7.898   5.178   0.817 -2.1852 -1.1659 -0.7980
12726SOL    HW246957   7.900   5.026   0.812 -0.3905 -1.2837  1.5922
12727SOL     OW46958  11.670  10.090  12.447  0.0587 -0.2585 -0.0166
12727SOL    HW146959  11.603  10.154  12.424 -0.3012 -0.5363  0.2407
12727SOL    HW246960  11.735  10.095  12.377 -0.4828 -0.3400 -0.5238
12728SOL     OW46961  10.935   2.757  10.681 -0.0083  0.6597 -0.4144
12728SOL    HW146962  10.923   2.811  10.604  1.0698  2.5018  0.6402
12728SOL    HW246963  11.001   2.692  10.656  0.9537  1.7618 -0.8220
12729SOL     OW46964   4.726   3.241   2.039  0.4882  0.1466  0.0201
12729SOL    HW146965   4.732   3.290   2.121 -2.4235  0.5507  0.0799
12729SOL    HW246966   4.745   3.151   2.063 -4.0877 -0.4921  2.0909
12730SOL     OW46967   3.864   1.331   1.856 -0.9140 -0.3237 -0.0929
12730SOL    HW146968   3.888   1.302   1.768 -1.3196  2.3584 -1.1934
12730SOL    HW246969   3.778   1.372   1.845 -0.3192  1.3998  1.1770
12731SOL     OW46970   7.188   8.093  10.850  0.4375  0.2771  0.8160
12731SOL    HW146971   7.113   8.099  10.909 -0.2499 -0.3628  0.0192
12731SOL    HW246972   7.252   8.041  10.898 -0.3757 -0.8126  0.7582
12732SOL     OW46973   1.756  12.044   0.222  0.1709  0.0006  0.0804
12732SOL    HW146974   1.829  12.089   0.263 -0.4129  2.3402 -1.2795
12732SOL    HW246975   1.794  11.964   0.185  2.1803  1.3959 -1.0089
12733SOL     OW46976  11.205   2.965   4.508 -0.5401  0.6581  0.3533
12733SOL    HW146977  11.177   2.884   4.551  0.4112 -0.5712 -1.2596
12733SOL    HW246978  11.185   2.952   4.416  2.4337  0.9420 -0.4323
12734SOL     OW46979  11.211   4.329  10.501  0.5952  0.0777 -0.6354
12734SOL    HW146980  11.271   4.304  10.431  0.1138 -3.1037 -0.0279
12734SOL    HW246981  11.231   4.269  10.573 -2.6967 -0.5741 -0.1186
12735SOL     OW46982   1.428   3.795   3.419  0.1973 -0.6644 -0.0789
12735SOL    HW146983   1.349   3.838   3.386  0.6690 -0.1987 -0.6265
12735SOL    HW246984   1.397   3.736   3.487 -0.7044 -0.9591 -0.7213
12736SOL     OW46985   6.708   9.138   3.842  0.5652 -0.2604  1.4285
12736SOL    HW146986   6.765   9.073   3.884  2.0851 -0.3876 -0.6274
12736SOL    HW246987   6.767   9.211   3.822  0.1785 -0.5303 -1.0713
12737SOL     OW46988  10.479   5.195   9.281  0.4260  0.6791  0.2970
12737SOL    HW146989  10.408   5.246   9.241 -1.5300 -1.9664  0.1432
12737SOL    HW246990  10.477   5.218   9.373  0.0963  1.4282  0.1097
12738SOL     OW46991   7.030  12.267   3.587  0.1432 -0.2504 -0.0736
12738SOL    HW146992   7.120  12.273   3.620  0.1556 -0.5583 -0.0462
12738SOL    HW246993   7.039  12.234   3.498  0.1316  0.9252 -0.5273
12739SOL     OW46994   5.129   5.577   0.824  0.8681  0.5201  0.0976
12739SOL    HW146995   5.075   5.502   0.846 -0.8950  1.0761 -1.9672
12739SOL    HW246996   5.133   5.577   0.728  3.3512  1.3729  0.1145
12740SOL     OW46997   9.491  10.347   2.057 -0.1661  0.1282  0.2453
12740SOL    HW146998   9.521  10.325   1.969  0.5575 -1.8000  0.9177
12740SOL    HW246999   9.489  10.263   2.104 -1.7114  0.9289  1.7264
12741SOL     OW47000   0.961   5.644  10.335 -0.0928 -0.4642  0.7209
12741SOL    HW147001   0.898   5.715  10.320 -0.3786 -0.8521  0.0573
12741SOL    HW247002   1.005   5.633  10.251  2.1742  1.0086  1.6218
12742SOL     OW47003   5.671  10.892  10.883 -0.3616 -0.7703 -0.0594
12742SOL    HW147004   5.697  10.834  10.954 -1.6607 -2.0176 -0.5424
12742SOL    HW247005   5.723  10.864  10.808 -0.2110 -0.5788 -0.0283
12743SOL     OW47006   1.892   4.896   1.065  0.0636 -0.4231  0.0800
12743SOL    HW147007   1.830   4.823   1.070  1.3093 -1.5629 -0.6331
12743SOL    HW247008   1.893   4.921   0.973  0.4759 -0.2391  0.1306
12744SOL     OW47009   0.682   6.974  10.536  0.8086 -0.0931 -0.1341
12744SOL    HW147010   0.755   7.003  10.591  1.9510 -0.8491 -1.1904
12744SOL    HW247011   0.719   6.970  10.448 -0.3381 -1.1037 -0.5949
12745SOL     OW47012  12.312   6.046   3.524 -0.0249  0.0627  0.1185
12745SOL    HW147013  12.221   6.074   3.539 -0.4628 -1.0311 -0.4221
12745SOL    HW247014  12.308   5.995   3.443  0.9250 -0.7029  0.5390
12746SOL     OW47015   1.486   7.914   0.423 -0.2530  0.3786  0.7911
12746SOL    HW147016   1.484   7.879   0.513 -2.7589 -2.3444 -0.1561
12746SOL    HW247017   1.409   7.971   0.418 -1.5000 -1.2930 -0.1620
12747SOL     OW47018   7.711   3.423   1.216 -0.1930 -0.2527 -0.0748
12747SOL    HW147019   7.748   3.367   1.148 -2.6830 -0.8940 -1.0053
12747SOL    HW247020   7.688   3.363   1.287 -1.9006 -0.3240 -0.6441
12748SOL     OW47021   7.070   3.430  11.844 -1.0188 -0.1527 -0.5934
12748SOL    HW147022   7.034   3.349  11.879 -0.5971 -0.3194 -0.5427
12748SOL    HW247023   7.118   3.403  11.766  0.3513 -0.1641  0.2219
12749SOL     OW47024   1.466   0.114   5.446 -0.3050 -0.5633 -0.5472
12749SOL    HW147025   1.546   0.068   5.420 -0.6865  0.2098 -3.3890
12749SOL    HW247026   1.398   0.047   5.441 -0.2806 -0.5573 -0.9699
12750SOL     OW47027   3.644   2.418   8.343  0.3350  0.5381 -0.2153
12750SOL    HW147028   3.688   2.459   8.269  2.8788  0.9811  1.4363
12750SOL    HW247029   3.665   2.325   8.335  0.4356  0.5570 -0.1763
12751SOL     OW47030   0.355   3.876   7.344 -0.0424  0.1568  0.1467
12751SOL    HW147031   0.318   3.799   7.386 -0.1069  0.4926  0.7091
12751SOL    HW247032   0.335   3.864   7.251  0.2979 -0.6923  0.1758
12752SOL     OW47033   4.405   7.008   0.628 -0.1794 -0.0233  0.4361
12752SOL    HW147034   4.365   7.002   0.715 -2.3085  1.4316 -0.3724
12752SOL    HW247035   4.497   7.029   0.646 -0.6496  0.6455  2.3229
12753SOL     OW47036   5.450   3.942   8.005 -0.4154  0.3727  0.5367
12753SOL    HW147037   5.529   3.946   7.950 -0.9059  1.3489 -0.1225
12753SOL    HW247038   5.483   3.928   8.094  0.5020  0.7276  0.2621
12754SOL     OW47039   2.936   4.111   9.563 -0.6383  0.2365  0.1271
12754SOL    HW147040   2.892   4.195   9.563  0.6326  0.9545 -0.9300
12754SOL    HW247041   3.030   4.133   9.567 -0.3255 -1.1910  1.6520
12755SOL     OW47042  12.032   8.328  10.584  0.1956 -0.0147  0.5116
12755SOL    HW147043  11.967   8.330  10.655  2.1390 -1.1185  2.4380
12755SOL    HW247044  12.019   8.410  10.537 -1.2163  0.7206  2.0845
12756SOL     OW47045   5.517   7.199   3.701 -0.0341 -0.5135  0.2293
12756SOL    HW147046   5.545   7.223   3.789  0.1411  1.8853 -0.4023
12756SOL    HW247047   5.587   7.231   3.644 -1.7562  1.3332 -1.0102
12757SOL     OW47048  12.414   3.044   8.877 -0.1073 -0.1574  0.1027
12757SOL    HW147049  12.371   3.061   8.961 -0.1187 -1.5515  0.4068
12757SOL    HW247050  12.342   3.023   8.817 -0.0284 -0.1274 -0.0028
12758SOL     OW47051  11.327   3.377  10.120 -0.1082  0.1689  0.5616
12758SOL    HW147052  11.413   3.334  10.116  1.2296  2.7223 -0.3448
12758SOL    HW247053  11.339   3.448  10.183 -1.2436  1.2283 -0.3888
12759SOL     OW47054   9.958   1.949   7.115 -0.4938 -0.3554 -0.2466
12759SOL    HW147055  10.033   2.008   7.100 -0.4500 -0.3960 -0.1893
12759SOL    HW247056   9.995   1.878   7.167 -0.9980  0.5892  1.4796
12760SOL     OW47057   4.145   6.276   8.857 -1.0378 -0.2233 -0.4012
12760SOL    HW147058   4.165   6.188   8.890  1.4649  0.3897 -0.1050
12760SOL    HW247059   4.070   6.263   8.798 -0.8628 -2.5028 -0.2101
12761SOL     OW47060   9.262   4.177   0.045  0.0693  0.1622 -0.1231
12761SOL    HW147061   9.230   4.201   0.133 -0.6687  1.0927 -0.6260
12761SOL    HW247062   9.220   4.093   0.026  0.5341 -0.2365  0.5584
12762SOL     OW47063   1.474   0.702   9.763  0.7231  0.1241 -0.3137
12762SOL    HW147064   1.427   0.786   9.763 -0.1344 -0.3355  0.4831
12762SOL    HW247065   1.509   0.695   9.674  1.0163  1.4314 -0.3352
12763SOL     OW47066   0.252   3.364  10.719 -0.3369 -0.8462 -0.0489
12763SOL    HW147067   0.285   3.287  10.765  0.1200 -1.4922 -1.3862
12763SOL    HW247068   0.170   3.336  10.680 -0.9056 -0.1959  0.6538
12764SOL     OW47069   0.896  12.029   4.645  0.4818 -0.2548  0.3197
12764SOL    HW147070   0.870  11.956   4.589 -1.5984  1.1680 -0.6878
12764SOL    HW247071   0.907  12.103   4.585 -5.9224  2.5081  1.6900
12765SOL     OW47072   7.981   0.689   1.332 -0.2341 -0.6031  0.5081
12765SOL    HW147073   8.055   0.706   1.390  1.3702 -0.5994 -1.4325
12765SOL    HW247074   8.008   0.612   1.282 -0.9414  0.1965 -1.1705
12766SOL     OW47075   3.722   0.434  11.367 -0.0415  0.6451  0.3787
12766SOL    HW147076   3.696   0.345  11.345  2.3826  0.4964 -2.6647
12766SOL    HW247077   3.644   0.486  11.353 -1.5465 -0.9182  2.3475
12767SOL     OW47078   9.870   2.659   7.663 -0.0400  0.1238  0.7043
12767SOL    HW147079   9.792   2.705   7.692  0.8615  0.8372  2.1505
12767SOL    HW247080   9.868   2.576   7.712 -0.6389 -0.5226 -0.3873
12768SOL     OW47081   3.688  11.356   2.318 -0.0980  0.1995  0.4078
12768SOL    HW147082   3.668  11.427   2.378 -2.2897  0.9193 -1.0552
12768SOL    HW247083   3.772  11.380   2.279 -0.1180  1.2425  0.9808
12769SOL     OW47084   0.476  12.088   2.629 -0.3098 -0.0123 -0.1506
12769SOL    HW147085   0.465  12.099   2.534  2.2990 -0.3684 -0.5764
12769SOL    HW247086   0.524  12.166   2.657  2.4329 -1.6562  0.0770
12770SOL     OW47087   2.974   6.101  10.970  0.5670 -0.6765  0.0914
12770SOL    HW147088   2.886   6.140  10.973  0.2252 -1.4148 -0.1072
12770SOL    HW247089   3.004   6.118  10.881  0.7151 -0.2450  0.2202
12771SOL     OW47090   3.941   8.359   6.382 -0.2920 -0.7655  0.1956
12771SOL    HW147091   4.014   8.388   6.436  1.3587  0.2378 -2.3878
12771SOL    HW247092   3.885   8.436   6.375 -1.5887 -1.4703  1.9873
12772SOL     OW47093  10.394   5.468   4.713  0.1384  0.2631  0.0103
12772SOL    HW147094  10.413   5.492   4.622 -4.2197 -1.4960 -1.6666
12772SOL    HW247095  10.328   5.531   4.742  0.3697 -0.0951  1.4001
12773SOL     OW47096   4.986   7.313   1.384  0.4035 -0.1734  0.0241
12773SOL    HW147097   5.059   7.370   1.411  0.8979 -0.9304  0.3069
12773SOL    HW247098   4.908   7.355   1.421  0.7662  0.2825  0.2869
12774SOL     OW47099   6.302  11.999   2.985 -0.0969 -0.2716 -0.1450
12774SOL    HW147100   6.296  12.022   2.893 -0.9341 -2.6315 -0.7593
12774SOL    HW247101   6.263  12.073   3.032 -0.1259  0.7263 -1.6991
12775SOL     OW47102  12.259   8.050   1.249  0.2462  0.7977  0.2045
12775SOL    HW147103  12.336   8.071   1.302  0.8018 -0.1691 -0.1838
12775SOL    HW247104  12.290   8.059   1.159  1.1964 -3.4371 -0.1168
12776SOL     OW47105  11.040   0.475   9.986 -0.0266 -0.4514 -0.5956
12776SOL    HW147106  11.009   0.546   9.929 -1.0610 -0.2391  0.2039
12776SOL    HW247107  10.973   0.407   9.977  0.3978 -0.8869 -0.5055
12777SOL     OW47108  10.804  11.198   9.882 -0.1976 -0.2177  0.0493
12777SOL    HW147109  10.864  11.199   9.957  0.0583  2.5916 -0.0724
12777SOL    HW247110  10.861  11.200   9.805 -0.3880  1.2987 -0.0864
12778SOL     OW47111  10.829   8.843   3.133 -0.4842 -0.4351 -0.5999
12778SOL    HW147112  10.896   8.787   3.173 -0.5878 -0.6363 -0.7054
12778SOL    HW247113  10.753   8.786   3.124 -1.4618  0.3692  1.6444
12779SOL     OW47114   9.290   8.280   0.881  0.3193  0.8907 -0.0396
12779SOL    HW147115   9.362   8.305   0.823  0.0548  1.9395  0.0654
12779SOL    HW247116   9.333   8.236   0.954  0.7952  0.9468 -0.2778
12780SOL     OW47117   0.119   3.488  10.043 -0.1835  0.1500  0.1392
12780SOL    HW147118   0.167   3.414  10.081 -1.0068  0.1184  1.1834
12780SOL    HW247119   0.143   3.487   9.951 -1.0815 -2.1922 -0.1587
12781SOL     OW47120   5.223   3.440   3.981  0.1954 -0.0301 -0.1175
12781SOL    HW147121   5.275   3.504   3.935  1.4191 -0.4044  0.6977
12781SOL    HW247122   5.284   3.369   4.003  0.0104  0.6233  3.0513
12782SOL     OW47123   9.878   0.024   1.733  0.3501 -0.0408 -0.5829
12782SOL    HW147124   9.795  -0.005   1.693  0.4064 -0.3125 -0.4997
12782SOL    HW247125   9.938  -0.050   1.720  0.6509  0.2469 -0.8561
12783SOL     OW47126   8.575   1.082   5.611 -0.0296 -0.0343  0.7692
12783SOL    HW147127   8.511   1.152   5.624  0.5378  0.3479  1.5523
12783SOL    HW247128   8.538   1.029   5.540 -0.1806  1.3917 -0.2597
12784SOL     OW47129   4.985   3.333   6.322  0.2385  0.1143 -0.1930
12784SOL    HW147130   4.941   3.337   6.236 -0.2120  0.9210  0.0586
12784SOL    HW247131   5.056   3.271   6.310  0.7568  0.9017 -1.4259
12785SOL     OW47132   3.011   0.281   0.649  0.3399  0.3845 -0.6076
12785SOL    HW147133   2.968   0.367   0.651 -1.5880 -0.5419  0.4566
12785SOL    HW247134   2.983   0.242   0.565  1.0177  0.6943 -0.9801
12786SOL     OW47135   8.571   2.433   1.240 -0.3763  0.0214  0.1804
12786SOL    HW147136   8.576   2.407   1.149 -2.0960 -1.5592  0.4764
12786SOL    HW247137   8.566   2.529   1.238  1.5898  0.1503 -1.2193
12787SOL     OW47138   2.849   7.908  10.853 -0.6822 -0.1170  0.1692
12787SOL    HW147139   2.836   8.003  10.860 -0.0021  0.0878 -1.0115
12787SOL    HW247140   2.761   7.873  10.839 -0.9424  0.3382  0.6471
12788SOL     OW47141   8.001  11.687  12.113 -0.0406 -0.1667  0.2486
12788SOL    HW147142   7.977  11.752  12.179  1.9752  1.7525 -0.7440
12788SOL    HW247143   7.918  11.655  12.078 -1.1079  1.1091  1.5247
12789SOL     OW47144   3.437   7.102   1.621  0.4078 -0.1312 -0.2989
12789SOL    HW147145   3.523   7.091   1.662  0.3852  1.8463  0.3913
12789SOL    HW247146   3.456   7.122   1.530  0.7852  1.4805  0.0997
12790SOL     OW47147  12.134   6.634   4.273  0.3405  0.1981  0.2110
12790SOL    HW147148  12.185   6.557   4.300 -1.4374 -1.0070  0.3029
12790SOL    HW247149  12.096   6.668   4.354  1.1204  1.2300  0.1720
12791SOL     OW47150  12.210   2.510  11.780  0.3996  0.1803  0.0767
12791SOL    HW147151  12.155   2.567  11.833  1.5440  0.6793  0.7558
12791SOL    HW247152  12.294   2.508  11.825  0.4803 -1.8520 -0.0598
12792SOL     OW47153   7.002   3.242   7.078 -0.0010 -0.1768 -0.2148
12792SOL    HW147154   7.080   3.267   7.029  0.0710  1.2783  0.5871
12792SOL    HW247155   6.929   3.280   7.029  0.0241  0.7370  0.4249
12793SOL     OW47156   2.028   7.578   5.519 -0.0836  0.2077  0.2627
12793SOL    HW147157   2.038   7.564   5.613  1.4031 -0.5926  0.0102
12793SOL    HW247158   1.989   7.665   5.512 -0.7839  0.0189  1.6275
12794SOL     OW47159   8.273   2.291   0.782  0.1882  0.7533 -0.0997
12794SOL    HW147160   8.196   2.331   0.742 -0.1673 -0.5506 -0.7559
12794SOL    HW247161   8.323   2.257   0.709  0.5201  0.0606  0.4407
12795SOL     OW47162   4.713   9.419   6.368  0.1182  0.5004 -0.1991
12795SOL    HW147163   4.654   9.349   6.340  0.2429  0.1662  0.3579
12795SOL    HW247164   4.746   9.457   6.287 -0.8388  0.6792 -0.5205
12796SOL     OW47165  12.280   6.538   6.042  0.6195  0.1341  0.4022
12796SOL    HW147166  12.208   6.486   6.006  1.2850 -0.7248  0.2743
12796SOL    HW247167  12.237   6.605   6.096 -0.3116  0.3243 -0.5473
12797SOL     OW47168   1.540   3.873   6.364 -0.6525  0.9029  0.0951
12797SOL    HW147169   1.557   3.949   6.309 -0.8942  0.2496 -0.8977
12797SOL    HW247170   1.460   3.835   6.328  0.3258 -0.7327 -0.4549
12798SOL     OW47171   9.574   8.077   0.408  0.2569 -0.2238 -0.2700
12798SOL    HW147172   9.669   8.073   0.403  0.2061 -1.6020 -0.4346
12798SOL    HW247173   9.550   8.005   0.466 -0.5296  1.9281  2.2950
12799SOL     OW47174   1.648   0.316   7.670 -0.7503 -0.4741 -0.7318
12799SOL    HW147175   1.673   0.307   7.762  2.7243  0.7157 -1.4380
12799SOL    HW247176   1.648   0.226   7.637  2.8322 -0.6350 -0.6088
12800SOL     OW47177   0.127   5.707   0.718 -0.3274  0.1916  0.2349
12800SOL    HW147178   0.070   5.642   0.758 -2.0188  0.0517 -2.1662
12800SOL    HW247179   0.067   5.766   0.671  1.3356  1.7550 -0.0510
12801SOL     OW47180   7.133   7.926   1.051 -0.4427  0.2564  0.0127
12801SOL    HW147181   7.212   7.912   1.103  0.0176  1.7633 -0.2120
12801SOL    HW247182   7.093   7.840   1.044  1.1399 -0.5416  0.2024
12802SOL     OW47183   1.191   7.552   9.015  0.4646  0.6020 -0.3461
12802SOL    HW147184   1.100   7.546   9.044  0.1264  0.8350 -1.3173
12802SOL    HW247185   1.216   7.462   8.994  0.5025  0.5232  0.0267
12803SOL     OW47186   8.897   6.016  11.140 -0.4260 -0.1228 -0.0939
12803SOL    HW147187   8.933   5.935  11.105  2.3044  0.2708  1.5143
12803SOL    HW247188   8.818   5.989  11.187 -1.7417 -1.2103 -2.6693
12804SOL     OW47189   5.704   6.548   1.692 -0.3277 -0.2071  0.0420
12804SOL    HW147190   5.681   6.467   1.646 -0.3067 -1.0391  1.4046
12804SOL    HW247191   5.643   6.550   1.767 -1.4929  1.9517 -0.8680
12805SOL     OW47192  10.908  11.829   9.061 -0.3471  0.5420 -0.0305
12805SOL    HW147193  10.906  11.774   8.983 -0.7848 -0.3828  0.6203
12805SOL    HW247194  10.926  11.769   9.133 -0.2626  1.3367  0.6246
12806SOL     OW47195   1.592   8.371   6.346 -0.0855 -0.3750 -0.3087
12806SOL    HW147196   1.531   8.379   6.272  0.6984  0.1544 -0.9119
12806SOL    HW247197   1.598   8.277   6.362 -3.6418 -0.4199  1.9690
12807SOL     OW47198   9.956   7.633   3.393  0.4478  0.8498  0.0534
12807SOL    HW147199   9.969   7.546   3.355 -0.4275  0.6854  0.1060
12807SOL    HW247200  10.021   7.639   3.463 -0.3439 -0.3008  0.9324
12808SOL     OW47201  10.160  10.829  11.827 -0.2941  0.4216 -0.2118
12808SOL    HW147202  10.196  10.877  11.752  0.0094  0.8851  0.2205
12808SOL    HW247203  10.066  10.839  11.820 -0.2670  0.4344 -0.5518
12809SOL     OW47204   5.313   1.527   7.141  0.1705  0.1122 -0.1685
12809SOL    HW147205   5.282   1.567   7.060 -1.1763 -3.5331 -1.6507
12809SOL    HW247206   5.235   1.517   7.195 -0.1795 -2.7822 -1.0166
12810SOL     OW47207   0.304   9.759   1.394  0.0241  0.0088  0.7743
12810SOL    HW147208   0.312   9.664   1.391  0.7657 -0.0751  3.0835
12810SOL    HW247209   0.369   9.790   1.331 -0.7697 -0.9919 -0.5816
12811SOL     OW47210   7.205   2.751   5.815 -0.1312  0.1253  0.4143
12811SOL    HW147211   7.227   2.697   5.739  2.0497 -1.5440  2.0862
12811SOL    HW247212   7.241   2.837   5.794  0.5861 -0.3477 -0.3648
12812SOL     OW47213   6.211   5.269  10.192  0.2211 -0.5457  0.0434
12812SOL    HW147214   6.295   5.316  10.197  0.8793 -1.7139  0.3060
12812SOL    HW247215   6.180   5.283  10.103  2.1702 -2.5027 -1.0354
12813SOL     OW47216   7.288   8.406   4.493  0.5510  0.6199  0.0824
12813SOL    HW147217   7.381   8.387   4.480  0.6085  1.2234 -0.4332
12813SOL    HW247218   7.281   8.436   4.583  0.5511 -1.2344  0.7454
12814SOL     OW47219   6.286  12.314  11.757 -0.3612 -0.2451 -0.1446
12814SOL    HW147220   6.240  12.271  11.830 -0.9333  0.7971  0.1374
12814SOL    HW247221   6.244  12.281  11.678  0.1378 -1.2436 -0.0039
12815SOL     OW47222  11.231   7.094   6.846  0.0136 -0.2840 -0.0908
12815SOL    HW147223  11.298   7.125   6.908 -0.9428 -0.2378  0.9458
12815SOL    HW247224  11.277   7.090   6.762  1.1749  0.2791  0.4861
12816SOL     OW47225  11.643   8.698  12.044  0.2422 -0.2375  0.6416
12816SOL    HW147226  11.586   8.631  12.082 -0.5231  0.2116  0.3084
12816SOL    HW247227  11.664   8.664  11.956 -1.8921  0.8970 -0.3785
12817SOL     OW47228  11.559   3.822   0.285 -0.0020  0.2836  0.2008
12817SOL    HW147229  11.633   3.876   0.259  0.2153  0.4347  1.0769
12817SOL    HW247230  11.533   3.858   0.370 -1.1164  0.2670 -0.1210
12818SOL     OW47231   8.350   4.680   0.160 -0.1598  0.2468  0.2280
12818SOL    HW147232   8.333   4.590   0.132 -0.6423  0.7073 -1.0637
12818SOL    HW247233   8.286   4.732   0.112  1.0840  1.4310 -0.2169
12819SOL     OW47234   7.596  11.306   4.808  0.0756 -0.2184 -0.1066
12819SOL    HW147235   7.631  11.218   4.795 -1.0016 -0.6231 -0.3865
12819SOL    HW247236   7.626  11.355   4.731 -0.4432 -0.7102 -0.6323
12820SOL     OW47237   0.525   9.615   4.426  0.1141 -0.4012 -0.0468
12820SOL    HW147238   0.432   9.611   4.448  0.2706  0.6381  0.8991
12820SOL    HW247239   0.531   9.680   4.357  0.2350  0.1868  0.5116
12821SOL     OW47240   3.716   0.807  11.577  0.4449  0.3996  0.1959
12821SOL    HW147241   3.711   0.733  11.517 -0.5313  0.6979 -0.1043
12821SOL    HW247242   3.730   0.883  11.521  0.5024  0.5616  0.4251
12822SOL     OW47243  11.900   4.998  10.207  0.2799 -0.5097 -0.1904
12822SOL    HW147244  11.851   4.915  10.208 -1.3563  0.3941  1.7316
12822SOL    HW247245  11.836   5.063  10.235  1.8894  1.2088 -0.3690
12823SOL     OW47246   6.702   9.909   2.584 -0.1577 -0.1552 -0.1545
12823SOL    HW147247   6.663   9.954   2.659  1.8216  0.1017  0.7670
12823SOL    HW247248   6.736   9.827   2.620 -0.9005 -0.9651 -1.2012
12824SOL     OW47249   6.379   7.095   0.854 -0.2631 -0.6217 -0.1640
12824SOL    HW147250   6.458   7.071   0.901 -0.0929  0.3572  0.0594
12824SOL    HW247251   6.314   7.112   0.923 -0.5672 -1.0658 -0.3357
12825SOL     OW47252  12.476   6.644  12.563 -0.5229  0.2257 -0.6371
12825SOL    HW147253  12.462   6.735  12.536 -0.6135  0.5217  0.3643
12825SOL    HW247254  12.538   6.650  12.636  0.5830 -0.6368 -1.4772
12826SOL     OW47255  12.094  11.158   9.081 -0.1910  0.0136 -0.0242
12826SOL    HW147256  12.128  11.168   8.993 -0.0353  0.5754  0.0939
12826SOL    HW247257  12.140  11.082   9.117 -1.4352 -1.2279 -0.9705
12827SOL     OW47258   3.289   8.313   5.890 -0.2503  0.4230  0.0605
12827SOL    HW147259   3.228   8.382   5.863  1.4665  2.3853  0.9399
12827SOL    HW247260   3.253   8.281   5.973 -1.0280  0.3138 -0.3146
12828SOL     OW47261   0.903   0.317  12.334  0.0806 -0.5272  0.0712
12828SOL    HW147262   0.935   0.230  12.312 -0.7713 -0.6005 -0.9877
12828SOL    HW247263   0.872   0.309  12.424 -0.1266 -1.3725 -0.0630
12829SOL     OW47264   9.187   5.959   7.834  0.7890 -0.3146 -0.1071
12829SOL    HW147265   9.230   6.044   7.841  1.5434 -0.7192  0.3186
12829SOL    HW247266   9.233   5.914   7.763  1.5031 -0.9919  0.7716
12830SOL     OW47267  10.291   6.019   9.396 -0.5366 -0.4149  0.5660
12830SOL    HW147268  10.363   6.046   9.338 -2.0595  0.3226 -1.0788
12830SOL    HW247269  10.312   5.929   9.419  0.0757 -0.8062 -1.3080
12831SOL     OW47270   4.641   4.186   3.648  0.1949  0.5995 -0.2199
12831SOL    HW147271   4.634   4.275   3.612  1.1212  0.5027 -0.7013
12831SOL    HW247272   4.735   4.175   3.663  0.2912 -0.8088 -1.5562
12832SOL     OW47273  11.610   5.077   5.865 -0.5346  0.2728  0.2834
12832SOL    HW147274  11.638   5.138   5.796 -0.3693 -1.0959 -0.9116
12832SOL    HW247275  11.655   4.995   5.844  0.4772  0.1128  2.7359
12833SOL     OW47276   4.524   5.092   4.811 -0.4372 -0.0121  0.5434
12833SOL    HW147277   4.614   5.122   4.800 -0.2250 -0.2820  1.4267
12833SOL    HW247278   4.532   5.008   4.855 -1.0823 -0.6438 -0.5268
12834SOL     OW47279   8.471  11.950   3.540  0.1922  0.0525  0.1695
12834SOL    HW147280   8.546  11.928   3.595  1.0419 -0.1123 -1.0187
12834SOL    HW247281   8.482  12.043   3.520 -1.0550  0.5776  1.6353
12835SOL     OW47282   4.989   4.437   6.152  0.3697 -0.0924 -0.6846
12835SOL    HW147283   5.076   4.421   6.115 -0.0681 -1.3387 -1.2161
12835SOL    HW247284   4.928   4.412   6.082 -0.4776 -1.9988  0.6367
12836SOL     OW47285   9.777   6.763  11.634 -0.6350  0.8929 -0.5088
12836SOL    HW147286   9.802   6.781  11.725 -2.9069 -1.7040  0.7694
12836SOL    HW247287   9.847   6.708  11.600 -0.1136  1.3089 -0.1282
12837SOL     OW47288  11.097   0.141   1.978  0.2361  0.3188  0.4694
12837SOL    HW147289  11.048   0.058   1.980 -0.7406  0.7764 -1.6120
12837SOL    HW247290  11.165   0.130   2.044 -1.0702 -1.3807  1.6291
12838SOL     OW47291   1.001   1.086  12.393 -0.3350  0.0600 -0.8432
12838SOL    HW147292   1.041   1.002  12.373  2.0438  1.0647 -0.6374
12838SOL    HW247293   0.907   1.069  12.391  0.0463 -2.3180 -1.9361
12839SOL     OW47294   1.416   8.285   8.855 -0.3411 -0.1424  0.0557
12839SOL    HW147295   1.483   8.223   8.882  0.3950 -0.2808 -1.9273
12839SOL    HW247296   1.335   8.252   8.894  0.3240 -1.3769  0.4261
12840SOL     OW47297   6.542   3.430   0.599 -0.1826  0.0894 -0.1065
12840SOL    HW147298   6.488   3.365   0.553 -1.5341  0.5179  0.8043
12840SOL    HW247299   6.510   3.427   0.689  2.0884 -0.4074  0.7383
12841SOL     OW47300   0.880   6.678   8.465 -0.2515  0.0014  0.3216
12841SOL    HW147301   0.870   6.610   8.532 -0.9962  0.4298  0.6477
12841SOL    HW247302   0.791   6.695   8.434  0.0900 -0.2757 -0.8775
12842SOL     OW47303   1.309   9.646   6.371  0.4158 -0.0065 -0.0679
12842SOL    HW147304   1.239   9.613   6.427  0.0746  0.6077 -0.1224
12842SOL    HW247305   1.353   9.567   6.339 -0.6523 -0.4225 -0.5550
12843SOL     OW47306  11.266   1.141   3.826  0.2046 -0.4857  0.3752
12843SOL    HW147307  11.235   1.207   3.765 -1.1953  0.0826  1.6426
12843SOL    HW247308  11.318   1.081   3.772  0.1222  0.7097 -1.0976
12844SOL     OW47309   3.765   1.236   9.680  0.3306 -0.5430 -0.1842
12844SOL    HW147310   3.683   1.200   9.713 -1.5028  0.7529 -2.8834
12844SOL    HW247311   3.747   1.329   9.667  2.4392 -0.1042 -0.3332
12845SOL     OW47312   9.759   4.885   9.814  0.4804  0.3764  0.3342
12845SOL    HW147313   9.757   4.902   9.720 -1.5634  0.4906  0.3565
12845SOL    HW247314   9.776   4.970   9.854 -0.6876  0.7313  0.1164
12846SOL     OW47315  11.145   2.138   8.319  0.0309 -0.2225 -0.9023
12846SOL    HW147316  11.111   2.203   8.259  1.4543 -1.0352 -2.7098
12846SOL    HW247317  11.240   2.150   8.316  0.2735 -1.8317 -0.6746
12847SOL     OW47318   7.431  10.920   4.413 -0.1084  0.8427 -0.5610
12847SOL    HW147319   7.338  10.942   4.422 -0.1458  0.2706  0.6149
12847SOL    HW247320   7.460  10.971   4.337 -1.2265  1.5133 -0.5639
12848SOL     OW47321   1.641  11.198   7.583 -0.2824  0.3435  0.3685
12848SOL    HW147322   1.728  11.177   7.548 -1.1890  0.3417 -2.0211
12848SOL    HW247323   1.655  11.206   7.678  2.2180 -0.1069  0.1024
12849SOL     OW47324   8.478   3.678  12.150 -0.6876  0.2000  0.2750
12849SOL    HW147325   8.515   3.626  12.078 -1.0542  0.4060 -0.0654
12849SOL    HW247326   8.539   3.751  12.159 -1.9223  1.5496 -1.5172
12850SOL     OW47327   6.210   0.852   8.914  0.1035 -0.6075 -0.3686
12850SOL    HW147328   6.243   0.917   8.976 -1.7969  0.6015 -0.5548
12850SOL    HW247329   6.288   0.818   8.871  1.4662 -1.2350  2.3836
12851SOL     OW47330   9.815   5.206   7.697  0.1751 -0.2778  1.0098
12851SOL    HW147331   9.722   5.220   7.676  0.5473 -0.2608 -0.8211
12851SOL    HW247332   9.814   5.167   7.784 -1.5677 -0.5465  0.9125
12852SOL     OW47333   4.936   7.540   8.479 -0.0582  0.0634 -0.8173
12852SOL    HW147334   4.853   7.562   8.522  0.9760  0.1067  1.2967
12852SOL    HW247335   4.924   7.450   8.449 -0.8023 -0.0031 -0.3504
12853SOL     OW47336   4.662   5.503   8.041  0.1836  0.5994 -0.4032
12853SOL    HW147337   4.711   5.586   8.043  1.1708  0.0148  1.1326
12853SOL    HW247338   4.725   5.439   8.008 -0.1350  0.1932 -0.2313
12854SOL     OW47339   9.294   1.602   7.132  0.2010 -0.4931 -0.8908
12854SOL    HW147340   9.236   1.582   7.205  1.7494 -0.3145  0.4354
12854SOL    HW247341   9.258   1.552   7.059 -2.0849  0.2705 -0.3572
12855SOL     OW47342   1.357   6.332  10.385  0.5790 -0.1979 -0.2134
12855SOL    HW147343   1.310   6.249  10.399  0.0726  0.2002  0.4818
12855SOL    HW247344   1.289   6.399  10.393  0.7094  0.2274 -2.1456
12856SOL     OW47345   8.767   6.158   9.482  0.5349  0.5529 -0.0580
12856SOL    HW147346   8.728   6.177   9.397 -0.3968 -1.3992 -0.1080
12856SOL    HW247347   8.698   6.178   9.546  0.5124  0.0295  0.0826
12857SOL     OW47348   8.258   1.366   9.030 -0.1183  0.2806  0.0108
12857SOL    HW147349   8.291   1.399   9.114 -0.5963 -0.2852  0.4262
12857SOL    HW247350   8.319   1.296   9.006  0.4658  0.9519 -0.5059
12858SOL     OW47351   0.599  10.060   7.324 -0.1996  0.9347  0.0304
12858SOL    HW147352   0.585   9.989   7.386  0.3518  0.0477 -0.8323
12858SOL    HW247353   0.657  10.121   7.370  0.7864 -0.0619  0.1356
12859SOL     OW47354   0.494  12.028   7.288 -0.4373  0.0072  0.0857
12859SOL    HW147355   0.446  11.946   7.292 -1.7087  0.6552 -1.2520
12859SOL    HW247356   0.578  12.005   7.249 -0.6803 -0.7103 -0.0210
12860SOL     OW47357   5.550   0.233  10.435  0.4390  0.1823 -0.4217
12860SOL    HW147358   5.460   0.213  10.458  0.3562  1.7840  0.8221
12860SOL    HW247359   5.546   0.257  10.342 -0.3113 -0.2834 -0.5160
12861SOL     OW47360   3.733   5.918   0.417  0.1368  0.1829  0.0207
12861SOL    HW147361   3.760   5.826   0.411 -0.3485 -0.0319  0.8756
12861SOL    HW247362   3.756   5.944   0.506 -0.6514  0.5761  0.1225
12862SOL     OW47363   4.214   8.544   9.232  0.3781  0.3045  0.1164
12862SOL    HW147364   4.204   8.527   9.326  1.4471 -0.5759  0.0911
12862SOL    HW247365   4.125   8.542   9.197  0.0723 -0.5403  0.9175
12863SOL     OW47366   7.923  12.020   0.820  0.0319 -0.2498 -0.4098
12863SOL    HW147367   7.944  11.927   0.816 -1.2481 -0.6338  0.8169
12863SOL    HW247368   7.972  12.053   0.895  0.9079  0.2136 -1.1620
12864SOL     OW47369   7.001   5.488  12.274 -0.2094 -0.2512  0.2651
12864SOL    HW147370   7.065   5.556  12.297  1.4295 -0.0168 -4.0314
12864SOL    HW247371   6.918   5.535  12.266  0.2924  0.6471  0.2245
12865SOL     OW47372  11.356   6.375   4.010 -0.0278 -0.8836  0.4856
12865SOL    HW147373  11.330   6.399   4.099 -3.0059 -1.2550 -0.1800
12865SOL    HW247374  11.358   6.279   4.010 -0.6972 -0.9107  0.0424
12866SOL     OW47375   0.803   6.404   6.829 -0.1743 -0.3155  0.1767
12866SOL    HW147376   0.866   6.371   6.893 -0.2185 -1.5740 -0.3893
12866SOL    HW247377   0.810   6.342   6.756  0.1314  1.2734 -1.1899
12867SOL     OW47378   1.021   4.510   0.274  0.2326  0.3785  0.8254
12867SOL    HW147379   0.974   4.594   0.278  0.8212  0.8447 -1.1950
12867SOL    HW247380   1.019   4.478   0.364 -0.0344  2.5521  1.6565
12868SOL     OW47381   6.702   7.338   4.434 -0.2685 -0.4067 -0.2346
12868SOL    HW147382   6.787   7.375   4.457  0.0451 -1.0382 -0.3521
12868SOL    HW247383   6.647   7.354   4.511 -0.0609  0.0563 -0.1832
12869SOL     OW47384   0.192  11.014   1.743  0.1990  0.0495  0.4252
12869SOL    HW147385   0.246  10.975   1.812 -0.0928 -0.0702  0.5842
12869SOL    HW247386   0.109  10.968   1.747 -0.2514  0.8754  0.8074
12870SOL     OW47387  10.179   2.149  12.482  0.0942 -0.6545 -0.1330
12870SOL    HW147388  10.164   2.076  12.543  0.2396 -0.6365 -0.0751
12870SOL    HW247389  10.242   2.114  12.419 -0.6280 -0.9214 -0.7170
12871SOL     OW47390  10.482   4.205   7.669  0.1038 -0.0443  0.2099
12871SOL    HW147391  10.431   4.247   7.600  0.6175  1.5135  0.7420
12871SOL    HW247392  10.452   4.245   7.750  0.9099 -0.3987  0.7031
12872SOL     OW47393   6.180  10.777   8.873 -0.0284  0.0897  0.7522
12872SOL    HW147394   6.114  10.708   8.875  1.5621 -1.5386 -0.4626
12872SOL    HW247395   6.263  10.731   8.871  1.0786  1.9505 -1.9325
12873SOL     OW47396   0.872   8.102   0.898  0.3499 -0.0932  0.4860
12873SOL    HW147397   0.928   8.131   0.826  1.4251  0.3286  1.4618
12873SOL    HW247398   0.932   8.080   0.968 -0.7156  0.7965  1.7302
12874SOL     OW47399   0.744   5.441   4.926  0.0741 -0.3594 -0.1884
12874SOL    HW147400   0.749   5.345   4.924  0.8014 -0.3414  0.2800
12874SOL    HW247401   0.797   5.466   5.002 -2.9163  0.2439  1.8715
12875SOL     OW47402   5.404   3.186   3.216 -0.2674  0.3565 -0.1760
12875SOL    HW147403   5.339   3.248   3.246  0.0109 -0.6483  2.8061
12875SOL    HW247404   5.487   3.219   3.250  0.2787 -0.2689 -0.8433
12876SOL     OW47405   5.369   8.182  12.459 -0.4403 -0.5622  0.7747
12876SOL    HW147406   5.459   8.150  12.455  0.5442  2.0595 -2.7665
12876SOL    HW247407   5.378   8.273  12.487 -1.7719  0.1380 -0.9192
12877SOL     OW47408   6.021   9.639   7.612  0.2257 -0.5409 -0.0486
12877SOL    HW147409   5.991   9.580   7.681  0.6890 -1.0865 -0.3045
12877SOL    HW247410   6.027   9.725   7.654  2.4647 -1.2182  1.1545
12878SOL     OW47411   0.593  11.341   8.642  0.2090  0.3763 -0.1759
12878SOL    HW147412   0.557  11.277   8.580  0.5285 -0.3194  0.3451
12878SOL    HW247413   0.541  11.420   8.627  1.1193  0.6372 -2.2411
12879SOL     OW47414   2.661  11.849   0.612 -0.6912 -0.7143 -0.1041
12879SOL    HW147415   2.597  11.871   0.680 -0.1606 -2.5378  1.0491
12879SOL    HW247416   2.637  11.761   0.585  0.9566 -1.1924 -0.0824
12880SOL     OW47417   6.381   1.198   0.153 -0.2882 -0.2192 -0.2840
12880SOL    HW147418   6.308   1.150   0.113  1.0299 -1.4336 -1.3340
12880SOL    HW247419   6.409   1.141   0.225  0.2492 -0.2488 -0.5144
12881SOL     OW47420   6.105   7.678   5.553 -0.0172 -0.4338  0.5239
12881SOL    HW147421   6.075   7.768   5.538 -1.1933 -0.8800  0.0046
12881SOL    HW247422   6.115   7.671   5.648 -0.5208  0.0741  0.6218
12882SOL     OW47423   9.218   5.775   3.067 -0.1950  0.3421 -0.0808
12882SOL    HW147424   9.305   5.736   3.082 -0.4493 -0.0001  0.5290
12882SOL    HW247425   9.217   5.853   3.122 -0.7891 -0.4201  1.0224
12883SOL     OW47426  11.649   3.195   3.492 -0.0352 -0.1269  0.4240
12883SOL    HW147427  11.565   3.237   3.510 -0.4326 -0.9379  0.5007
12883SOL    HW247428  11.713   3.249   3.538 -0.5520  0.2966  0.6593
12884SOL     OW47429   8.218   4.441  11.172 -0.6814  0.2687 -0.2640
12884SOL    HW147430   8.139   4.483  11.139  0.3783  2.1956 -0.4499
12884SOL    HW247431   8.229   4.365  11.115 -1.8933  0.4672 -0.8064
12885SOL     OW47432   6.285   1.936   2.095  0.3393  0.1400  0.6036
12885SOL    HW147433   6.276   2.028   2.068  1.6882  0.5849  1.5577
12885SOL    HW247434   6.341   1.898   2.028 -1.9486 -0.6038 -1.0034
12886SOL     OW47435  11.577   5.985  10.285 -0.2198  0.0272  0.3503
12886SOL    HW147436  11.669   5.964  10.269 -0.3193 -0.6854  0.6988
12886SOL    HW247437  11.543   5.910  10.333 -1.2387 -0.1780 -0.6404
12887SOL     OW47438   8.989   4.811   5.080 -0.0065  0.5094  0.3897
12887SOL    HW147439   9.037   4.882   5.124  0.4625 -0.3922  1.3686
12887SOL    HW247440   9.057   4.748   5.056 -0.5584 -0.1700  0.5976
12888SOL     OW47441   4.796   6.723   1.399 -0.5217 -0.2986 -0.1064
12888SOL    HW147442   4.844   6.643   1.417 -1.0658 -0.3275  1.3396
12888SOL    HW247443   4.844   6.792   1.445  1.1851  0.6647 -3.0675
12889SOL     OW47444  10.519   1.234  11.113 -0.0768 -0.2306 -0.0011
12889SOL    HW147445  10.464   1.237  11.191 -0.4865 -1.6087 -0.2177
12889SOL    HW247446  10.544   1.142  11.104  3.8861  0.5061  1.2092
12890SOL     OW47447   3.549   4.161   4.643 -0.9410  0.2587 -0.6096
12890SOL    HW147448   3.608   4.113   4.702 -4.1193 -0.0744  2.6857
12890SOL    HW247449   3.598   4.238   4.617  0.9586  0.0783  2.0382
12891SOL     OW47450  12.157   7.022   0.658 -0.4127  0.1621 -0.0830
12891SOL    HW147451  12.089   7.062   0.604 -0.0549  0.2005 -0.5130
12891SOL    HW247452  12.133   6.930   0.664 -1.5243  0.5202  1.3441
12892SOL     OW47453   2.509   5.978  10.354 -0.1348 -0.4345 -0.3797
12892SOL    HW147454   2.479   5.950  10.440  0.8508  0.8101  0.4125
12892SOL    HW247455   2.513   6.073  10.360 -0.5683 -0.2891 -1.9956
12893SOL     OW47456  11.969   8.246   7.559 -0.3789  0.3251  0.0308
12893SOL    HW147457  12.031   8.194   7.507 -1.3905  1.4033 -2.4621
12893SOL    HW247458  12.024   8.295   7.619  0.8611 -1.1987  0.2218
12894SOL     OW47459   6.512   5.039   8.094 -0.2603  0.3561 -0.3216
12894SOL    HW147460   6.521   5.046   8.189  0.6324 -1.2215 -0.2582
12894SOL    HW247461   6.601   5.027   8.062 -0.7277 -1.4174 -1.1073
12895SOL     OW47462   5.214   6.275   9.504 -0.0629 -0.6402 -0.2130
12895SOL    HW147463   5.176   6.293   9.418 -0.6821  0.6037  0.3005
12895SOL    HW247464   5.214   6.360   9.549  1.4127 -1.0117  0.5708
12896SOL     OW47465   0.079   9.001   2.661 -0.2020  0.2055  0.2080
12896SOL    HW147466   0.039   8.957   2.736  2.3803  0.3295  1.7916
12896SOL    HW247467   0.082   8.935   2.593 -1.4142 -0.3256  0.6413
12897SOL     OW47468   5.310   9.582   1.580  0.1283  0.6466 -0.1229
12897SOL    HW147469   5.393   9.539   1.557  0.6547  0.7962  1.3770
12897SOL    HW247470   5.279   9.536   1.658 -2.5696 -1.0863 -2.0703
12898SOL     OW47471   5.533  10.538  10.126 -0.9085 -0.4019  0.3342
12898SOL    HW147472   5.616  10.497  10.150  0.8390  3.7336  2.3450
12898SOL    HW247473   5.551  10.585  10.045 -1.2328  0.4691  0.7485
12899SOL     OW47474   8.471   5.371   9.583 -0.3165 -0.1534 -0.0330
12899SOL    HW147475   8.483   5.285   9.544  2.2630 -0.5555  1.4491
12899SOL    HW247476   8.412   5.357   9.657  1.2282 -0.9784  1.0818
12900SOL     OW47477  10.751   0.702  11.305  0.3082  0.2278 -0.7720
12900SOL    HW147478  10.805   0.679  11.380 -0.0933 -0.4124 -0.6762
12900SOL    HW247479  10.809   0.754  11.249  1.0800 -0.5828 -0.7502
12901SOL     OW47480   5.064   4.361   3.832  0.8313  0.5095 -0.2345
12901SOL    HW147481   5.002   4.430   3.855 -0.7349 -1.5290  2.1406
12901SOL    HW247482   5.149   4.397   3.855  0.3322  2.4384 -1.1781
12902SOL     OW47483   2.919   6.991  11.923  0.4391  0.2332  0.2289
12902SOL    HW147484   3.002   6.988  11.875  0.3596  2.9757 -0.2678
12902SOL    HW247485   2.943   7.020  12.011  0.1262 -0.2017  0.4607
12903SOL     OW47486   7.678   8.707   8.168  0.1058 -0.2488  0.3727
12903SOL    HW147487   7.667   8.742   8.256  1.3799  0.7926  0.1554
12903SOL    HW247488   7.772   8.690   8.160  0.0620 -0.0318 -0.8704
12904SOL     OW47489   6.607   0.399   9.558  0.1286 -0.1221 -0.1532
12904SOL    HW147490   6.628   0.328   9.498 -3.5029 -1.2380 -0.3862
12904SOL    HW247491   6.595   0.475   9.502  2.4698  0.3458 -0.0842
12905SOL     OW47492   9.883   2.365   5.424 -0.4543 -0.2311  0.5571
12905SOL    HW147493   9.811   2.320   5.470  0.5552 -0.5366  1.8995
12905SOL    HW247494   9.887   2.321   5.339 -2.8864  0.8681 -0.2246
12906SOL     OW47495   4.746   6.168   4.822  0.6098 -0.2290  0.8690
12906SOL    HW147496   4.687   6.095   4.806  0.9869 -0.4470  0.4541
12906SOL    HW247497   4.761   6.167   4.917  0.4857 -0.5860  0.8844
12907SOL     OW47498   5.132   5.622   2.068 -0.6937  0.2649 -0.1337
12907SOL    HW147499   5.179   5.676   2.131 -1.0813 -0.1461  0.5252
12907SOL    HW247500   5.056   5.674   2.043 -1.5420 -0.2916  1.1673
12908SOL     OW47501   7.800   2.679   7.712 -0.2211  0.2621  0.4951
12908SOL    HW147502   7.824   2.676   7.619  1.6748  0.3237  0.9564
12908SOL    HW247503   7.725   2.619   7.718  1.3954 -2.0137 -0.5999
12909SOL     OW47504   7.405   1.550   8.045 -0.6683  0.3194 -0.4112
12909SOL    HW147505   7.473   1.566   7.979  0.4778 -0.1086  0.6140
12909SOL    HW247506   7.436   1.597   8.122 -2.6517  1.9371 -0.5185
12910SOL     OW47507   5.790  12.412   6.168  0.1608 -0.3042 -0.2725
12910SOL    HW147508   5.796  12.412   6.072  1.5064 -1.5419 -0.2119
12910SOL    HW247509   5.780  12.505   6.191 -1.9000 -0.0984 -1.6722
12911SOL     OW47510   9.183  10.039   1.319  0.1049  0.1610  0.0501
12911SOL    HW147511   9.239  10.009   1.390  1.2354 -1.3077 -1.3817
12911SOL    HW247512   9.194   9.973   1.250  0.1018  2.1673 -1.9895
12912SOL     OW47513   3.493   3.444   4.126 -0.0695 -0.1777  0.7787
12912SOL    HW147514   3.515   3.406   4.211 -0.0588 -0.7613  0.5233
12912SOL    HW247515   3.558   3.406   4.066 -0.2338  0.0328  0.4689
12913SOL     OW47516  11.181   8.387   4.347 -0.2661 -0.1970 -0.3335
12913SOL    HW147517  11.271   8.379   4.377 -0.2017 -0.1685 -0.5173
12913SOL    HW247518  11.141   8.302   4.364 -0.1025 -0.3255 -0.5808
12914SOL     OW47519   5.088   9.734   4.960  0.3461  0.1353 -0.2043
12914SOL    HW147520   5.127   9.712   5.045 -1.7954 -1.3920  0.4605
12914SOL    HW247521   5.052   9.652   4.928  3.1704  0.0426 -3.8863
12915SOL     OW47522   0.307  11.671   6.156  0.0826  0.3092 -0.2000
12915SOL    HW147523   0.271  11.595   6.110 -0.2986 -0.0671  0.6904
12915SOL    HW247524   0.289  11.653   6.248  2.2903  0.2397  0.2812
12916SOL     OW47525   6.205   9.728   3.095 -0.4274 -0.1968  0.0770
12916SOL    HW147526   6.120   9.695   3.065 -0.6168  1.3530 -1.2608
12916SOL    HW247527   6.267   9.693   3.032  0.3471 -3.1475  2.2784
12917SOL     OW47528   4.281   5.493  12.453  0.4021  0.2346 -0.1668
12917SOL    HW147529   4.242   5.487  12.366 -1.5503 -1.0680  0.7058
12917SOL    HW247530   4.371   5.522  12.438 -0.2433  1.2890 -2.4968
12918SOL     OW47531   9.201   2.459  12.362  0.3314 -0.2354  0.3396
12918SOL    HW147532   9.126   2.495  12.315  1.0082  0.1439 -0.4808
12918SOL    HW247533   9.168   2.377  12.400 -0.4759 -0.1061 -0.0585
12919SOL     OW47534   1.689  10.112   0.881  0.1320  0.7895 -0.3338
12919SOL    HW147535   1.610  10.086   0.834  0.3704 -0.8411  0.1055
12919SOL    HW247536   1.752  10.133   0.813  0.5242 -1.6703 -0.8294
12920SOL     OW47537   4.903   8.351   9.359  0.2608 -0.4080 -0.1886
12920SOL    HW147538   4.834   8.284   9.358 -1.0185  0.8636 -0.3325
12920SOL    HW247539   4.878   8.411   9.289  0.0185  1.5364  1.5009
12921SOL     OW47540   7.441   8.023  10.575  0.1767 -0.4760 -0.5800
12921SOL    HW147541   7.508   8.044  10.509  0.1108 -0.0917 -0.5257
12921SOL    HW247542   7.440   8.099  10.633 -1.5965  0.3798 -1.6371
12922SOL     OW47543   7.094   6.030   5.036 -0.4836  0.5049  0.5345
12922SOL    HW147544   7.124   5.949   4.995  0.1539  0.1132  1.7359
12922SOL    HW247545   6.998   6.022   5.036 -0.4141 -0.6175  1.3307
12923SOL     OW47546   6.680   6.183  10.063 -0.4921 -0.0425  0.4601
12923SOL    HW147547   6.729   6.266  10.066  0.8721 -0.6105 -2.4588
12923SOL    HW247548   6.712   6.134  10.138  2.7420  0.0622 -0.6820
12924SOL     OW47549   9.172   1.164   0.502 -0.0874 -0.3441 -0.2538
12924SOL    HW147550   9.256   1.129   0.474  0.0542  0.3563 -0.7380
12924SOL    HW247551   9.118   1.087   0.521 -0.2586 -0.8920 -2.6856
12925SOL     OW47552   5.664  10.739   3.505  0.2571  0.1628  0.2130
12925SOL    HW147553   5.574  10.716   3.483  0.2896  0.1569  0.0846
12925SOL    HW247554   5.708  10.655   3.518 -0.7175  0.0449  4.4018
12926SOL     OW47555  11.056   9.734   0.855 -0.4930  0.4461 -0.2935
12926SOL    HW147556  11.027   9.732   0.764  0.6699  1.7221 -0.7304
12926SOL    HW247557  11.081   9.825   0.870  3.5176 -0.4933 -0.0879
12927SOL     OW47558   6.520   8.254  10.168  0.1673 -0.1579 -0.7922
12927SOL    HW147559   6.526   8.299  10.252 -1.5005 -0.9648 -0.2006
12927SOL    HW247560   6.498   8.164  10.190  0.0900 -0.4790 -2.0880
12928SOL     OW47561   2.071  11.910  11.026 -0.3912 -0.1565  0.0211
12928SOL    HW147562   2.155  11.955  11.023 -1.1025  1.3817  1.4381
12928SOL    HW247563   2.031  11.928  10.941 -0.3373  1.3052  0.2761
12929SOL     OW47564   4.176   6.277   3.800 -0.1429 -0.2910 -0.1942
12929SOL    HW147565   4.125   6.343   3.847  1.7823  1.1768 -0.0191
12929SOL    HW247566   4.224   6.230   3.869  0.7422  0.1422 -0.5008
12930SOL     OW47567   2.174   9.235   4.547 -0.1004 -0.3018 -0.2188
12930SOL    HW147568   2.239   9.259   4.482 -0.5994 -2.1730 -1.4813
12930SOL    HW247569   2.210   9.267   4.630  2.0023 -0.4999 -0.9948
12931SOL     OW47570   3.451   6.299   8.884 -0.1701  0.1292 -0.1472
12931SOL    HW147571   3.385   6.234   8.909 -0.2470 -0.5243 -1.8814
12931SOL    HW247572   3.400   6.375   8.856 -0.1044  0.5571  0.8588
12932SOL     OW47573   2.312  12.180   5.869 -0.6901 -0.6021 -0.1461
12932SOL    HW147574   2.337  12.269   5.843  1.7486 -1.9352 -3.0137
12932SOL    HW247575   2.235  12.161   5.815  0.0486 -0.9030 -1.1180
12933SOL     OW47576   9.540   3.045   1.600 -0.4360  0.3241  0.0203
12933SOL    HW147577   9.575   3.134   1.610 -0.3613  0.3212 -0.1940
12933SOL    HW247578   9.544   3.029   1.505 -1.6501  0.5890 -0.0958
12934SOL     OW47579   8.822   6.521  10.206 -0.5020 -0.2316  0.0755
12934SOL    HW147580   8.853   6.610  10.191  0.3301 -0.4025  0.7562
12934SOL    HW247581   8.890   6.465  10.169 -0.3748 -0.6022  0.8648
12935SOL     OW47582   1.193   8.549   8.414 -0.1024  0.3686  0.4144
12935SOL    HW147583   1.204   8.621   8.477 -1.9212  0.7111  0.3819
12935SOL    HW247584   1.177   8.473   8.469  1.1833  0.0910  0.4279
12936SOL     OW47585  11.540   8.138   3.830 -0.1404  0.4133  0.0180
12936SOL    HW147586  11.598   8.065   3.850 -0.2751  0.3472  0.1744
12936SOL    HW247587  11.531   8.185   3.913 -1.6434 -0.5342  0.4423
12937SOL     OW47588  12.028   3.038  12.202 -0.4506  0.4425  0.0834
12937SOL    HW147589  12.029   3.070  12.111 -5.2201 -0.0417 -0.4079
12937SOL    HW247590  11.999   3.113  12.253 -1.2162 -0.1955  0.6061
12938SOL     OW47591  10.876   9.682   9.234 -0.0843  0.1252  0.3827
12938SOL    HW147592  10.790   9.640   9.232 -0.4669  0.8428  1.1656
12938SOL    HW247593  10.861   9.766   9.276  0.6214  1.1487 -1.2893
12939SOL     OW47594   2.507  12.470   6.402  0.2699  0.2814 -0.2524
12939SOL    HW147595   2.582  12.447   6.347  0.0997 -0.9893  0.0140
12939SOL    HW247596   2.500  12.398   6.465 -0.4583  0.9688  0.4773
12940SOL     OW47597   3.191  11.764   3.805  0.2216 -0.2568 -0.1511
12940SOL    HW147598   3.208  11.695   3.870 -0.1422 -0.4972 -0.3092
12940SOL    HW247599   3.144  11.832   3.854 -1.2360 -1.0103 -0.4464
12941SOL     OW47600   5.950   7.788   9.839 -0.1576 -0.2996 -0.0674
12941SOL    HW147601   5.896   7.714   9.814 -0.0892 -0.5433  0.5070
12941SOL    HW247602   5.914   7.819   9.922  0.9559 -0.8744  0.6657
12942SOL     OW47603   5.875   5.558   3.749  0.1548 -0.3708 -0.1666
12942SOL    HW147604   5.856   5.493   3.680 -1.3657  1.3485 -1.4466
12942SOL    HW247605   5.888   5.640   3.702  0.4774  0.5976  1.5309
12943SOL     OW47606   2.199   2.047   9.919 -0.0710 -0.3678 -0.3128
12943SOL    HW147607   2.120   2.010   9.957  0.6346 -1.1861  0.3921
12943SOL    HW247608   2.170   2.085   9.836 -1.3535  0.0971  0.3127
12944SOL     OW47609   6.627   7.015   3.988  0.1159 -0.1209 -0.0864
12944SOL    HW147610   6.556   7.079   3.986  0.2262 -0.0067 -0.4628
12944SOL    HW247611   6.687   7.043   3.919  0.4218 -0.3391  0.0864
12945SOL     OW47612   6.528   1.789   6.225  0.4704  0.2913  0.1460
12945SOL    HW147613   6.606   1.739   6.200  0.0223  0.2386 -1.2673
12945SOL    HW247614   6.519   1.774   6.319  1.5001 -0.6427  0.1201
12946SOL     OW47615  11.742   9.005   5.090 -0.0139  0.0873 -0.3974
12946SOL    HW147616  11.712   8.972   5.005  0.0497  1.5813 -1.0198
12946SOL    HW247617  11.715   8.937   5.153 -2.7713  0.3350 -1.1851
12947SOL     OW47618  11.476  11.945   5.904 -0.2731  0.4510  0.0816
12947SOL    HW147619  11.497  12.032   5.871  0.0779  0.6153  0.7206
12947SOL    HW247620  11.530  11.935   5.982  0.4015 -0.7118 -0.4984
12948SOL     OW47621   3.338   3.355   9.562 -0.1132 -0.0206  0.4014
12948SOL    HW147622   3.410   3.312   9.609 -0.5461 -2.3937 -0.9764
12948SOL    HW247623   3.380   3.427   9.515  0.9947 -0.1240  1.1792
12949SOL     OW47624   1.260  12.237   8.074  0.2427  0.6416 -0.2091
12949SOL    HW147625   1.194  12.185   8.119 -1.3800  0.5708 -2.5113
12949SOL    HW247626   1.261  12.203   7.985  2.2759  1.7189 -0.6548
12950SOL     OW47627   0.101   5.470   1.663  0.2796  0.4163 -0.1093
12950SOL    HW147628   0.118   5.387   1.619  0.5820  1.4987 -2.1866
12950SOL    HW247629   0.143   5.461   1.748  1.7880 -0.9515 -0.9371
12951SOL     OW47630   4.429   7.648   6.999 -0.1510 -0.1912 -0.6137
12951SOL    HW147631   4.497   7.715   6.990 -0.0115 -0.0826  0.8790
12951SOL    HW247632   4.347   7.698   7.001 -0.2050 -0.2372 -1.3886
12952SOL     OW47633   4.687   6.781   7.305  0.3719  0.3867 -0.0434
12952SOL    HW147634   4.763   6.757   7.357 -0.0274  1.1374  0.9255
12952SOL    HW247635   4.700   6.874   7.285  0.1618  0.2870 -0.6684
12953SOL     OW47636  10.499   2.740  12.588  0.0276  0.2765 -0.2418
12953SOL    HW147637  10.444   2.759  12.512 -1.1582 -1.9453 -0.0298
12953SOL    HW247638  10.588   2.760  12.559 -0.4009 -0.4579 -2.2184
12954SOL     OW47639   3.118   4.254   5.997 -0.0004  0.1066  0.2674
12954SOL    HW147640   3.066   4.321   6.042  1.7330  1.2352  0.7280
12954SOL    HW247641   3.084   4.252   5.908 -0.8030  0.8330  0.5447
12955SOL     OW47642   7.632  11.445   0.089 -0.6176  0.1292  0.1118
12955SOL    HW147643   7.624  11.519   0.149  1.0488  1.2324 -0.9390
12955SOL    HW247644   7.723  11.417   0.098 -0.8541 -0.8872 -0.5523
12956SOL     OW47645   2.876  10.204   6.674 -0.1582  0.6833  0.0006
12956SOL    HW147646   2.818  10.165   6.738  0.3875  1.0233  0.7111
12956SOL    HW247647   2.821  10.218   6.597 -0.6315 -0.4567  0.1063
12957SOL     OW47648   1.511  10.683   7.152 -0.1494  0.4260  0.2044
12957SOL    HW147649   1.581  10.683   7.087  0.0576 -0.0838  0.4252
12957SOL    HW247650   1.543  10.740   7.222  0.5435 -0.6886  0.8248
12958SOL     OW47651   9.768   3.765   4.458  0.3624 -0.8636  0.1727
12958SOL    HW147652   9.768   3.808   4.544  1.2999 -1.4496  0.4766
12958SOL    HW247653   9.840   3.805   4.410  0.3384 -1.0948 -0.0605
12959SOL     OW47654   1.691   6.259   2.723  0.1032  0.0398  0.4642
12959SOL    HW147655   1.668   6.170   2.695  2.5307 -0.2064 -1.0303
12959SOL    HW247656   1.661   6.316   2.652 -1.1211  0.4087  1.2522
12960SOL     OW47657   9.546  10.610   3.271 -0.2865 -0.5325  0.3162
12960SOL    HW147658   9.487  10.602   3.197 -0.2482 -1.8700  0.4121
12960SOL    HW247659   9.634  10.604   3.233 -0.2399 -0.1152  0.3527
12961SOL     OW47660  11.429  10.506  10.297 -0.6631 -0.3482  0.2628
12961SOL    HW147661  11.497  10.439  10.299 -0.6835 -0.3652  0.4758
12961SOL    HW247662  11.462  10.573  10.236 -0.8091 -0.7270 -0.2355
12962SOL     OW47663   2.033   7.755   0.770 -0.1519 -0.1516  0.2520
12962SOL    HW147664   2.119   7.772   0.808  0.1420 -1.3624  0.1660
12962SOL    HW247665   1.976   7.739   0.845 -0.4907  1.3641  0.3475
12963SOL     OW47666   2.710   0.557   1.834 -0.4602 -0.3514 -0.3100
12963SOL    HW147667   2.665   0.472   1.840 -1.4262  0.2225  1.5762
12963SOL    HW247668   2.639   0.620   1.819 -0.0828  0.3612  0.7689
12964SOL     OW47669  11.350   6.647   7.671  0.2779 -0.0118 -0.0977
12964SOL    HW147670  11.332   6.723   7.615  0.9387  0.8299  0.8121
12964SOL    HW247671  11.273   6.640   7.727  1.2562  1.6128  1.5809
12965SOL     OW47672   6.168  10.945  11.970 -0.1637 -0.0133  0.3743
12965SOL    HW147673   6.257  10.970  11.995 -0.0131  0.8086 -0.8621
12965SOL    HW247674   6.180  10.878  11.903 -0.4055  1.0745 -0.7984
12966SOL     OW47675   1.715   3.305  12.457 -0.6334 -0.6133  0.5241
12966SOL    HW147676   1.759   3.220  12.460  1.2457  0.2516 -0.5778
12966SOL    HW247677   1.694   3.318  12.364 -2.3645 -0.5443  0.8886
12967SOL     OW47678   2.616   4.386   1.895  0.1985  0.6848  0.4155
12967SOL    HW147679   2.617   4.294   1.868  0.5021  0.8271 -0.0809
12967SOL    HW247680   2.616   4.384   1.990  0.0720  0.1686  0.4039
12968SOL     OW47681   1.306   9.477   1.559  0.1641 -0.0572 -0.6174
12968SOL    HW147682   1.399   9.456   1.568 -0.0329 -0.2077  1.6535
12968SOL    HW247683   1.260   9.396   1.578 -0.4517  0.5845  0.7944
12969SOL     OW47684   8.729   8.066   4.181 -0.1783  0.2012  0.2720
12969SOL    HW147685   8.775   8.008   4.241  0.7244  0.2918 -0.3217
12969SOL    HW247686   8.639   8.033   4.180 -0.1508  0.0404  1.4652
12970SOL     OW47687   2.518   2.058   0.153  0.3160  0.6313  0.6269
12970SOL    HW147688   2.584   2.115   0.192 -0.9184  2.6591 -0.1068
12970SOL    HW247689   2.505   2.093   0.065 -0.3605 -0.9385  0.0641
12971SOL     OW47690   9.855   6.571   3.045 -0.2035 -0.3667 -0.2445
12971SOL    HW147691   9.781   6.610   3.093 -0.3688  0.5082 -1.1559
12971SOL    HW247692   9.815   6.539   2.964  0.3583 -0.1701 -0.6009
12972SOL     OW47693   1.436   3.829   8.813 -0.5966  0.1485  0.5785
12972SOL    HW147694   1.386   3.770   8.870 -2.1759  1.4110  0.5792
12972SOL    HW247695   1.501   3.869   8.870  1.5234 -2.5533  0.2980
12973SOL     OW47696   1.052  10.470   6.394  0.1980  0.1356 -0.2723
12973SOL    HW147697   0.986  10.539   6.391 -0.6455 -0.6168  0.4411
12973SOL    HW247698   1.005  10.393   6.424  0.8216 -1.1455 -2.4295
12974SOL     OW47699  12.069   9.234   9.010 -0.0961 -0.7603 -0.6139
12974SOL    HW147700  12.056   9.215   9.103  0.2805 -0.0215 -0.3984
12974SOL    HW247701  12.119   9.160   8.977 -0.0644 -0.9339 -0.1828
12975SOL     OW47702   7.347   0.347  12.569 -0.7345  0.0041 -0.5836
12975SOL    HW147703   7.263   0.351  12.525  0.1597  3.5701 -2.3475
12975SOL    HW247704   7.337   0.405  12.645 -0.3436 -0.9018  0.1764
12976SOL     OW47705   6.448   9.006   9.542 -0.1439  0.4652  0.3174
12976SOL    HW147706   6.492   8.957   9.611  0.2353  0.9228  0.4051
12976SOL    HW247707   6.422   9.088   9.584 -0.2913  0.5674  0.0313
12977SOL     OW47708  11.775   5.897   1.202 -0.3776 -0.1094  0.2134
12977SOL    HW147709  11.831   5.858   1.136  0.7991 -1.8260  2.1151
12977SOL    HW247710  11.715   5.827   1.227 -0.9542  0.5733  0.7928
12978SOL     OW47711   7.010   5.893   3.295  0.0928 -0.3188 -0.3724
12978SOL    HW147712   6.945   5.850   3.240 -1.3960  1.8390 -0.3880
12978SOL    HW247713   7.012   5.841   3.376 -1.7743 -0.3499 -0.3154
12979SOL     OW47714   0.826   7.902   0.447  0.1273  0.0199 -0.2303
12979SOL    HW147715   0.919   7.904   0.427  0.5496 -1.8278  1.3047
12979SOL    HW247716   0.803   7.809   0.447 -1.9033  0.4567 -1.2679
12980SOL     OW47717   3.532   5.208   9.497  0.6494  0.0135 -0.6120
12980SOL    HW147718   3.575   5.214   9.582 -1.4179 -2.6333  0.7417
12980SOL    HW247719   3.484   5.291   9.489 -0.9922 -0.5552  1.9853
12981SOL     OW47720   6.608   8.118  12.334  0.4184 -0.2185 -0.2020
12981SOL    HW147721   6.615   8.211  12.357 -0.8047  0.0087 -0.6596
12981SOL    HW247722   6.633   8.115  12.241  0.3726 -0.3232 -0.2107
12982SOL     OW47723   6.014   1.625   2.659 -0.3339  0.1546 -0.1802
12982SOL    HW147724   6.008   1.532   2.679  1.6396 -0.4082 -1.8254
12982SOL    HW247725   6.020   1.667   2.745 -0.2136 -1.3390  0.5866
12983SOL     OW47726  12.057   4.600   9.106 -0.7951  0.0135  0.2302
12983SOL    HW147727  12.033   4.607   9.199 -0.5803  0.7626  0.2350
12983SOL    HW247728  11.975   4.579   9.062 -0.7674 -1.0953  0.6682
12984SOL     OW47729   3.560   0.043   4.705  0.1817  0.4315 -0.4354
12984SOL    HW147730   3.536   0.028   4.614  0.7965  1.2904 -0.7532
12984SOL    HW247731   3.500  -0.012   4.756  0.0269 -0.2771 -1.3682
12985SOL     OW47732  12.279   5.827  10.197 -0.1357  0.0205  0.5412
12985SOL    HW147733  12.211   5.864  10.254  0.5256 -0.8088  1.9302
12985SOL    HW247734  12.231   5.783  10.127 -0.9748  0.9538  0.5006
12986SOL     OW47735   0.530   7.138  10.372  0.5191  0.3565  0.3210
12986SOL    HW147736   0.571   7.066  10.419  1.8207  0.7240 -0.2010
12986SOL    HW247737   0.586   7.214  10.391  0.3031  0.7969 -0.7265
12987SOL     OW47738   4.292  11.811   6.069  0.0151  0.3524 -0.0180
12987SOL    HW147739   4.253  11.729   6.039 -1.8607  0.8028  1.0096
12987SOL    HW247740   4.273  11.814   6.162  1.7151  1.1051  0.3434
12988SOL     OW47741   9.643   9.555   4.588 -0.2839  0.2026  0.1272
12988SOL    HW147742   9.679   9.516   4.667  0.7086  0.9108  0.0495
12988SOL    HW247743   9.672   9.646   4.590 -0.4344  0.2939 -0.9260
12989SOL     OW47744   0.763  10.267  11.771  0.1799  0.3618  0.0330
12989SOL    HW147745   0.694  10.325  11.738 -0.0992  0.0192  0.0114
12989SOL    HW247746   0.838  10.284  11.715  0.0281  0.5358 -0.1183
12990SOL     OW47747   1.091   8.584  10.415 -0.6317  0.3319  0.1657
12990SOL    HW147748   1.134   8.531  10.482 -0.0824  2.5033  1.6399
12990SOL    HW247749   1.136   8.562  10.334  2.8195  1.8413  1.4921
12991SOL     OW47750   8.437   6.144   2.439 -0.0174  0.2450 -0.2442
12991SOL    HW147751   8.490   6.070   2.469 -1.1221 -1.5523 -2.4191
12991SOL    HW247752   8.500   6.205   2.401  0.8200  0.0144  0.7373
12992SOL     OW47753   6.263  10.611   7.029  0.4680  0.3099  0.2892
12992SOL    HW147754   6.304  10.643   7.109 -0.7134 -1.6843  1.7913
12992SOL    HW247755   6.257  10.516   7.041 -0.9300  0.0890 -1.5827
12993SOL     OW47756  12.608  10.932   0.911 -0.6953 -0.3221  0.5294
12993SOL    HW147757  12.641  11.009   0.957 -0.6685 -0.1070  0.1549
12993SOL    HW247758  12.687  10.885   0.883 -0.6793  0.4410 -0.7803
12994SOL     OW47759  10.388   0.331  11.084 -0.6931  0.1852 -0.1441
12994SOL    HW147760  10.477   0.362  11.067 -1.1941  1.3516 -0.7433
12994SOL    HW247761  10.371   0.358  11.174 -0.9434  1.2918 -0.4982
12995SOL     OW47762   9.693   5.682   5.300 -0.2364  0.1748  0.0318
12995SOL    HW147763   9.689   5.775   5.320  1.6428  0.3882 -0.4451
12995SOL    HW247764   9.727   5.642   5.380 -1.0159 -0.1162  0.2265
12996SOL     OW47765  10.825   9.906   2.019 -0.8507  0.0376  0.4053
12996SOL    HW147766  10.908   9.898   2.067 -1.4830  0.8390  1.6918
12996SOL    HW247767  10.783   9.983   2.057 -0.8692  1.4763 -2.2784
12997SOL     OW47768   5.680   6.413   8.987  0.6669  0.1698  0.0932
12997SOL    HW147769   5.711   6.332   8.946  0.3497 -0.4780  1.0879
12997SOL    HW247770   5.586   6.399   9.000  0.7087  0.4769  0.7650
12998SOL     OW47771  10.404  11.734   5.476 -0.1283  0.1602 -0.4808
12998SOL    HW147772  10.399  11.805   5.412 -0.0364 -0.0336 -0.6996
12998SOL    HW247773  10.315  11.728   5.511 -0.1110  0.4646 -0.3727
12999SOL     OW47774  12.158   6.659   7.016 -0.3956 -0.5348  0.1670
12999SOL    HW147775  12.083   6.643   7.073  0.7529 -2.3330  1.2833
12999SOL    HW247776  12.209   6.726   7.062 -0.9319  0.1459 -0.2223
13000SOL     OW47777   0.667   2.696   3.299 -0.0998  0.3916 -0.3882
13000SOL    HW147778   0.675   2.603   3.279  0.3581  0.4432 -0.4479
13000SOL    HW247779   0.753   2.721   3.332 -0.4035  0.6540  0.2086
13001SOL     OW47780   5.002   6.206   5.963  0.3216 -0.3225  0.0871
13001SOL    HW147781   5.018   6.293   5.927 -1.3348  0.5179  1.2479
13001SOL    HW247782   5.071   6.195   6.029  1.1601 -0.3590 -0.7644
13002SOL     OW47783   6.979  10.329  10.477  0.1239  0.6818  0.8511
13002SOL    HW147784   7.068  10.361  10.488  0.9508 -0.6493 -1.2418
13002SOL    HW247785   6.939  10.391  10.416 -0.0560  0.7175  1.0058
13003SOL     OW47786   2.525   6.880   8.495  0.3113 -0.3316 -0.1250
13003SOL    HW147787   2.458   6.923   8.442  0.1512 -0.0976  0.2666
13003SOL    HW247788   2.588   6.846   8.431  0.9000  1.2278 -0.4079
13004SOL     OW47789   0.029  10.242  10.822 -0.6349 -0.5855  0.3349
13004SOL    HW147790   0.009  10.271  10.910 -1.1346 -0.5354  0.2069
13004SOL    HW247791  -0.055  10.242  10.776 -0.2380  0.4251 -0.4486
13005SOL     OW47792   2.141   0.509   7.878 -0.3016  0.0116 -0.2024
13005SOL    HW147793   2.108   0.446   7.942  0.5905  0.2767  0.5421
13005SOL    HW247794   2.171   0.456   7.805 -0.9541 -0.3236 -0.2297
13006SOL     OW47795   7.406   9.731   0.771  0.0054 -0.3176  0.8905
13006SOL    HW147796   7.322   9.775   0.757  0.0892 -0.5621 -0.4847
13006SOL    HW247797   7.471   9.791   0.735  0.2289 -1.0257  0.0968
13007SOL     OW47798   6.568   2.399   5.570 -0.3819 -0.7508  0.1350
13007SOL    HW147799   6.563   2.352   5.487  0.4704 -1.0739  0.2457
13007SOL    HW247800   6.662   2.396   5.592 -0.4329  0.3492  0.5199
13008SOL     OW47801   4.039   9.745   7.915 -0.1177  0.1123 -0.0538
13008SOL    HW147802   4.093   9.772   7.840  1.3951 -0.6965  0.7099
13008SOL    HW247803   3.969   9.810   7.918 -1.4676 -0.9850 -3.4337
13009SOL     OW47804   2.014   5.719  12.533  0.1411  0.4078  0.4052
13009SOL    HW147805   2.032   5.674  12.450 -1.9791  2.1414 -1.1235
13009SOL    HW247806   2.036   5.811  12.516  1.0655  0.5917  2.2996
13010SOL     OW47807   8.723   2.425   9.331 -0.2952  0.4398  0.4898
13010SOL    HW147808   8.712   2.505   9.279 -1.6619  0.6505  1.0344
13010SOL    HW247809   8.727   2.354   9.267  1.1831  0.9454 -0.0147
13011SOL     OW47810   0.275   1.085   4.518  0.2441 -0.1071 -0.3415
13011SOL    HW147811   0.351   1.026   4.519 -0.9396 -1.6746 -0.0971
13011SOL    HW247812   0.305   1.163   4.565  2.3206  0.1633 -1.9270
13012SOL     OW47813   4.738   1.889   3.743 -0.0356 -0.1908  0.4143
13012SOL    HW147814   4.711   1.845   3.824  0.5505 -0.5197  0.4371
13012SOL    HW247815   4.832   1.872   3.737  0.1916  1.0155  0.3884
13013SOL     OW47816   2.427   1.524   5.676 -0.2539  0.6917  0.5871
13013SOL    HW147817   2.420   1.616   5.702 -1.2499  0.5840  0.7620
13013SOL    HW247818   2.359   1.513   5.610  0.5860  0.3345 -0.2323
13014SOL     OW47819   2.192   4.156   1.789 -0.0824  0.2248 -0.4474
13014SOL    HW147820   2.262   4.147   1.724 -0.0697  0.0391 -0.4087
13014SOL    HW247821   2.209   4.086   1.852 -1.4457 -1.1314 -1.4960
13015SOL     OW47822   8.640   6.321   0.728 -0.4985  0.0164 -0.5779
13015SOL    HW147823   8.619   6.257   0.797  0.5814  0.5251  0.2573
13015SOL    HW247824   8.600   6.403   0.759  1.1416  0.5733  0.1599
13016SOL     OW47825   3.241  11.640   1.062 -0.3660 -0.3243 -0.3666
13016SOL    HW147826   3.294  11.564   1.038 -0.1873 -0.4332  0.3720
13016SOL    HW247827   3.209  11.674   0.978  0.5415 -0.4914 -0.7863
13017SOL     OW47828   5.688   4.008   7.371 -0.2913  1.0159 -0.0484
13017SOL    HW147829   5.733   4.061   7.437  0.4470  0.1617  0.1651
13017SOL    HW247830   5.695   3.918   7.405 -1.9782  0.8247 -0.1271
13018SOL     OW47831   3.975   7.137   7.198  0.2807  0.0513  0.0950
13018SOL    HW147832   4.046   7.188   7.238 -0.2477  0.5891  0.3572
13018SOL    HW247833   3.900   7.195   7.200 -0.7083 -1.1915  1.6722
13019SOL     OW47834   5.762   3.760   2.741 -0.1070 -0.1764 -0.0016
13019SOL    HW147835   5.801   3.752   2.828 -0.9291 -0.0386  0.3860
13019SOL    HW247836   5.826   3.809   2.690 -0.3650  1.2318  0.9970
13020SOL     OW47837  11.724   4.982  10.963 -0.0317  0.3223  0.0153
13020SOL    HW147838  11.697   4.905  10.913 -0.8314  0.0506  0.8430
13020SOL    HW247839  11.750   5.045  10.896  0.8515 -0.7309 -0.6738
13021SOL     OW47840   6.868   2.626   1.493 -0.0826 -0.3139  0.2932
13021SOL    HW147841   6.941   2.569   1.466  1.7176  2.2798 -0.7380
13021SOL    HW247842   6.792   2.593   1.445  1.1144 -1.2229 -1.0622
13022SOL     OW47843   0.267   8.412  11.708  0.2498 -0.2984 -0.1783
13022SOL    HW147844   0.346   8.404  11.762  0.0023 -0.8588  0.1067
13022SOL    HW247845   0.214   8.478  11.753  0.1089 -0.6572  0.1855
13023SOL     OW47846   1.293  11.739   6.015 -0.3858  0.7173 -0.4393
13023SOL    HW147847   1.251  11.661   5.979  1.2735  0.5134 -2.1279
13023SOL    HW247848   1.270  11.809   5.954  0.7646  0.8227 -0.7813
13024SOL     OW47849   2.929   3.246   0.849  0.3894  0.2594  0.2868
13024SOL    HW147850   2.867   3.286   0.788  0.6366 -0.6502 -0.5923
13024SOL    HW247851   2.956   3.165   0.805  2.7593  0.9660  0.3080
13025SOL     OW47852   5.818   3.308   7.882  0.1519  0.2843 -0.3248
13025SOL    HW147853   5.825   3.239   7.815 -0.3925 -0.0660 -0.0249
13025SOL    HW247854   5.728   3.341   7.873 -0.0093  0.0571  0.4063
13026SOL     OW47855   8.314   3.705   8.053 -0.5589 -0.1694 -0.2598
13026SOL    HW147856   8.219   3.693   8.048 -0.6629  0.4419  0.0561
13026SOL    HW247857   8.331   3.783   7.999 -0.1246 -0.7652 -1.0013
13027SOL     OW47858   3.717   9.772   6.284 -0.0169 -0.3005 -0.2371
13027SOL    HW147859   3.795   9.809   6.325 -1.2627  0.7709  1.2863
13027SOL    HW247860   3.693   9.697   6.339 -0.3987 -0.2566 -0.3371
13028SOL     OW47861   2.488   8.630   2.219  0.4196 -0.5147 -0.0873
13028SOL    HW147862   2.487   8.641   2.124 -1.8410 -1.5268 -0.2677
13028SOL    HW247863   2.517   8.540   2.233 -1.8717 -1.3245 -0.0707
13029SOL     OW47864   4.753   3.403  10.078  0.3727 -0.3237  0.0363
13029SOL    HW147865   4.804   3.477  10.047 -0.5342  0.3646  0.1402
13029SOL    HW247866   4.813   3.329  10.073  1.8673  0.6979  1.5635
13030SOL     OW47867   9.702   2.961   6.249 -0.3073  0.3387 -0.0807
13030SOL    HW147868   9.706   2.890   6.313  0.6645 -0.8326 -1.3906
13030SOL    HW247869   9.793   2.988   6.236 -0.6688  1.9487  0.4849
13031SOL     OW47870   6.302   7.679   9.942 -0.3002  0.1860  0.6150
13031SOL    HW147871   6.282   7.755   9.888 -1.1184 -0.2498  0.2945
13031SOL    HW247872   6.329   7.715  10.027  0.4343  0.8549  0.1118
13032SOL     OW47873   0.218   7.010   8.946  0.0195 -0.5330 -0.1373
13032SOL    HW147874   0.141   6.958   8.966 -1.0970  1.6270  1.6704
13032SOL    HW247875   0.192   7.063   8.870 -0.3884  0.3076  0.5675
13033SOL     OW47876   8.054   6.948  11.059  0.6360 -0.1795 -0.6121
13033SOL    HW147877   8.011   7.026  11.025  1.5193  0.1733 -0.9399
13033SOL    HW247878   8.127   6.933  11.000  0.8106 -0.9251 -0.2200
13034SOL     OW47879  11.464  12.123   3.432  0.1386  0.1026 -0.4981
13034SOL    HW147880  11.557  12.129   3.411  0.3296  0.0608  0.2841
13034SOL    HW247881  11.462  12.082   3.519 -0.6922 -1.7506 -1.3340
13035SOL     OW47882   8.462   5.274   3.020  0.1808 -0.2947 -0.0515
13035SOL    HW147883   8.508   5.209   2.967  1.0616  0.3383 -0.0806
13035SOL    HW247884   8.512   5.355   3.008 -0.7907  0.3530  0.1320
13036SOL     OW47885   1.914   4.668   4.814  0.4754 -0.4201 -0.3530
13036SOL    HW147886   1.951   4.646   4.899 -0.0554  0.6842  0.1733
13036SOL    HW247887   1.926   4.588   4.762 -0.8361 -1.7954  1.2920
13037SOL     OW47888   1.660   5.687   9.543 -0.0036 -0.3199  0.2348
13037SOL    HW147889   1.756   5.688   9.548 -0.0388 -1.1157  1.7484
13037SOL    HW247890   1.635   5.779   9.548  0.6340 -0.1925  2.7274
13038SOL     OW47891  12.492  11.219  10.380 -0.6408  0.3291 -1.1015
13038SOL    HW147892  12.566  11.210  10.439 -1.2561  2.4449  0.0941
13038SOL    HW247893  12.419  11.179  10.427 -1.0119  1.5183 -0.6344
13039SOL     OW47894   3.405   1.052   4.682 -0.5976 -0.3270  0.8139
13039SOL    HW147895   3.332   0.994   4.702 -1.0451  0.4890  1.6175
13039SOL    HW247896   3.381   1.094   4.599 -1.4316  0.5365  1.4779
13040SOL     OW47897   9.716   5.390   3.148 -0.1368  0.1671 -0.2777
13040SOL    HW147898   9.784   5.333   3.182 -2.0702 -1.9302  0.2993
13040SOL    HW247899   9.733   5.395   3.054  1.5140  0.7544  0.0194
13041SOL     OW47900   8.970   5.241   9.027 -0.2027  0.0439 -0.3046
13041SOL    HW147901   8.934   5.251   9.115  1.4266  2.2038  0.2031
13041SOL    HW247902   8.914   5.296   8.972 -0.0361  0.2557 -0.2599
13042SOL     OW47903   3.404   7.690   2.028  0.3206 -0.0038  0.0613
13042SOL    HW147904   3.322   7.642   2.017  0.6785 -0.9314  1.2019
13042SOL    HW247905   3.380   7.782   2.015 -0.4981 -0.3996 -1.5562
13043SOL     OW47906   3.698   6.802   7.671  0.1576  0.1091  0.3342
13043SOL    HW147907   3.698   6.893   7.699 -0.8381  0.0891  0.4529
13043SOL    HW247908   3.659   6.803   7.584  1.3719 -0.0624 -0.2210
13044SOL     OW47909   7.789   0.263  10.539  0.1140 -0.4934 -0.1679
13044SOL    HW147910   7.822   0.173  10.547 -2.1273 -1.4799 -1.0788
13044SOL    HW247911   7.723   0.258  10.470 -2.6425  1.0436  2.1620
13045SOL     OW47912   5.071  11.049   9.564 -0.8635 -0.2207 -0.3095
13045SOL    HW147913   5.000  11.112   9.573  0.5399  1.6715 -1.7884
13045SOL    HW247914   5.150  11.099   9.580  0.2922 -1.7552 -0.9885
13046SOL     OW47915   4.275   1.539   4.550  0.1887 -0.1334 -0.7411
13046SOL    HW147916   4.277   1.488   4.470 -1.9155 -1.1470 -0.2087
13046SOL    HW247917   4.206   1.604   4.536 -0.4347 -0.5327  0.3475
13047SOL     OW47918   4.531   6.607   0.535  0.1095  0.1384  0.6507
13047SOL    HW147919   4.468   6.678   0.549  0.3131  0.3759  0.3955
13047SOL    HW247920   4.585   6.638   0.461  0.8909  0.1965  1.2308
13048SOL     OW47921   5.932   5.263   3.625 -0.2313  0.4395  0.3204
13048SOL    HW147922   5.922   5.295   3.536 -0.0490  0.9435  0.4813
13048SOL    HW247923   6.010   5.208   3.622 -0.4937  0.0681  0.0682
13049SOL     OW47924  11.093   2.996  12.494  0.4642  0.7984  0.1957
13049SOL    HW147925  11.090   2.922  12.555 -3.4663  1.2440  0.7882
13049SOL    HW247926  11.070   2.958  12.409 -1.2058  1.1984  0.4349
13050SOL     OW47927  10.428   2.013   8.528 -0.5482 -0.5085 -0.4112
13050SOL    HW147928  10.468   1.926   8.519  0.4238 -0.4616  2.4179
13050SOL    HW247929  10.444   2.055   8.443  1.2772 -2.1839 -0.9952
13051SOL     OW47930   0.046   1.672   8.353  0.1085 -0.0843 -0.2521
13051SOL    HW147931   0.099   1.616   8.297 -0.6797  0.2927 -1.3976
13051SOL    HW247932   0.107   1.740   8.383  0.2543  0.4553 -1.7119
13052SOL     OW47933   3.459   3.441   0.655  0.8339 -0.3471 -0.3275
13052SOL    HW147934   3.423   3.521   0.694 -1.1408  0.1116 -2.7898
13052SOL    HW247935   3.437   3.372   0.718 -1.1868  0.4896 -0.0224
13053SOL     OW47936   7.877  11.711   0.639 -0.3783  0.3503 -0.1640
13053SOL    HW147937   7.891  11.749   0.552 -0.0008 -0.5375 -0.4920
13053SOL    HW247938   7.965  11.689   0.670 -0.5135  0.6375  0.4384
13054SOL     OW47939   2.975   4.756   2.882 -0.1571  0.7470  0.0545
13054SOL    HW147940   2.970   4.749   2.787  0.5846  1.0029 -0.0119
13054SOL    HW247941   2.924   4.833   2.903 -1.3898 -0.0271 -0.0054
13055SOL     OW47942   4.250  11.193   9.024 -0.1751 -0.1199 -0.1102
13055SOL    HW147943   4.249  11.287   9.042  0.5396 -0.0367 -0.4402
13055SOL    HW247944   4.160  11.171   9.001  0.0981  1.0341 -2.6758
13056SOL     OW47945   3.625   9.809   0.513 -0.3930  0.4385  0.0964
13056SOL    HW147946   3.681   9.734   0.533 -2.0925 -1.0833 -0.5180
13056SOL    HW247947   3.673   9.858   0.446  0.0097 -1.0917 -0.7914
13057SOL     OW47948   2.178   4.473   2.752  0.2732 -0.2120 -0.5410
13057SOL    HW147949   2.093   4.457   2.794 -0.2172  1.3053 -0.9154
13057SOL    HW247950   2.192   4.396   2.697 -0.2811 -1.0364  0.4201
13058SOL     OW47951   9.323   3.453  12.138 -0.0216 -0.0529 -0.4755
13058SOL    HW147952   9.372   3.411  12.066  0.5078  0.4339 -0.4053
13058SOL    HW247953   9.384   3.452  12.212  0.4007  1.7396 -0.7459
13059SOL     OW47954  11.067   2.405  11.444 -0.7584 -0.1590 -0.0529
13059SOL    HW147955  11.002   2.447  11.388 -1.3079 -1.5656 -0.5228
13059SOL    HW247956  11.019   2.336  11.490  0.3296 -1.0338 -0.1807
13060SOL     OW47957   0.313   2.375   3.857  0.3671 -0.2112  0.2166
13060SOL    HW147958   0.272   2.456   3.888  0.7313  0.2895 -0.5775
13060SOL    HW247959   0.292   2.310   3.924 -1.9885 -0.0649 -0.3200
13061SOL     OW47960   3.461  12.078  12.517 -0.0311 -0.0228 -0.4742
13061SOL    HW147961   3.421  12.146  12.463  0.5739  0.4616 -0.3301
13061SOL    HW247962   3.512  12.024  12.456  0.0481  0.0743 -0.4948
13062SOL     OW47963   6.532   4.625  12.232 -0.3614 -0.4594  0.2320
13062SOL    HW147964   6.532   4.561  12.304  0.4159 -1.4108 -0.5808
13062SOL    HW247965   6.573   4.579  12.159 -0.8253  0.6040 -0.7333
13063SOL     OW47966   0.430   2.178   4.855 -0.2803 -0.3137 -0.5404
13063SOL    HW147967   0.403   2.167   4.764 -1.0101 -2.6281 -0.1329
13063SOL    HW247968   0.352   2.153   4.906  0.4457 -0.1042  0.7067
13064SOL     OW47969   1.849   9.795   1.954 -0.2681 -0.2678  0.1190
13064SOL    HW147970   1.875   9.714   1.910  1.9838 -0.2814  1.3740
13064SOL    HW247971   1.927   9.849   1.954 -0.1637 -0.1701  3.8443
13065SOL     OW47972  11.473   2.144   0.381 -0.0315  0.1592  0.4045
13065SOL    HW147973  11.435   2.145   0.469 -0.5333  0.6445  0.1892
13065SOL    HW247974  11.398   2.129   0.323  0.0820  1.1982 -0.0304
13066SOL     OW47975  10.875   3.536   1.145 -0.1572  0.3879  0.1460
13066SOL    HW147976  10.917   3.611   1.104 -0.0093  0.1533 -0.1319
13066SOL    HW247977  10.790   3.569   1.174  0.7569  1.2415  1.9803
13067SOL     OW47978   6.284   2.356   0.456  0.3513 -0.3571  0.4721
13067SOL    HW147979   6.321   2.317   0.377  0.7637 -0.9892  0.9662
13067SOL    HW247980   6.221   2.291   0.488  1.3803 -0.8479  1.5598
13068SOL     OW47981   0.218  11.754  10.398  0.0892  0.2505  0.1178
13068SOL    HW147982   0.311  11.733  10.413  0.4397  2.7996  2.1881
13068SOL    HW247983   0.220  11.821  10.329 -0.1609  0.5289  0.3763
13069SOL     OW47984   6.323   7.584   9.527 -0.5676 -0.4131 -0.3809
13069SOL    HW147985   6.341   7.534   9.448  1.1325  0.8781 -0.8808
13069SOL    HW247986   6.375   7.664   9.517 -2.8955  1.3538  0.4935
13070SOL     OW47987  11.963   9.888   7.626  0.0638 -0.0164 -0.3985
13070SOL    HW147988  11.920   9.960   7.579 -0.0285  0.8592  0.9617
13070SOL    HW247989  11.920   9.809   7.595 -0.4787  0.6001 -1.2440
13071SOL     OW47990   5.038   3.765  11.318  0.1545 -0.7791 -0.2500
13071SOL    HW147991   5.054   3.687  11.264  0.3550 -0.1009 -1.2084
13071SOL    HW247992   4.954   3.748  11.360 -0.3400 -1.0680 -1.3034
13072SOL     OW47993  11.297   0.037   5.841  0.4459  0.1524  0.0156
13072SOL    HW147994  11.203   0.024   5.853  0.4890 -0.1764  0.0093
13072SOL    HW247995  11.312   0.128   5.865  0.2212  0.0439  0.5748
13073SOL     OW47996   1.705  12.556   9.662  0.8380 -0.3067  0.0212
13073SOL    HW147997   1.636  12.603   9.708 -0.5796 -1.9526 -0.3258
13073SOL    HW247998   1.757  12.625   9.621 -1.9439  1.0135 -1.6269
13074SOL     OW47999   1.596  10.440   3.182  0.4689 -0.6022 -0.5307
13074SOL    HW148000   1.524  10.383   3.208 -0.3670  0.7936  0.3744
13074SOL    HW248001   1.646  10.454   3.262  1.0537 -0.6183 -0.8916
13075SOL     OW48002   8.365   1.900   8.327  0.1226  0.1232  0.0249
13075SOL    HW148003   8.456   1.872   8.323  0.1548  0.0102  1.1380
13075SOL    HW248004   8.315   1.818   8.331  0.0959  0.1840  1.2566
13076SOL     OW48005   5.831   0.169  10.230 -0.6138 -0.4496 -0.2249
13076SOL    HW148006   5.843   0.236  10.297  0.8934  1.2314 -2.0550
13076SOL    HW248007   5.848   0.086  10.276 -1.8426  0.4114  1.9364
13077SOL     OW48008   2.321   3.247  10.928 -0.2396 -0.0681  0.0686
13077SOL    HW148009   2.305   3.155  10.907  0.2685  0.2054 -1.6124
13077SOL    HW248010   2.406   3.267  10.889 -1.2480  1.6417 -1.4109
13078SOL     OW48011   4.123   4.906  10.431  0.0433  0.0713 -0.3576
13078SOL    HW148012   4.100   4.850  10.505 -0.3275 -0.3979 -0.8205
13078SOL    HW248013   4.070   4.873  10.358  0.4971  0.4379 -0.8645
13079SOL     OW48014   4.291  11.529   0.972  0.3769  0.1753 -0.1033
13079SOL    HW148015   4.289  11.489   1.058 -2.1121  1.8446  0.7230
13079SOL    HW248016   4.246  11.467   0.915  2.1777 -1.0079 -0.3266
13080SOL     OW48017   6.324   9.675   3.753  0.4174 -0.5199 -0.0712
13080SOL    HW148018   6.353   9.760   3.718 -1.6306  0.9227  1.4839
13080SOL    HW248019   6.317   9.619   3.676  0.6024  1.0890 -1.3271
13081SOL     OW48020   7.338   8.543   0.052 -0.5152 -0.2569  0.0460
13081SOL    HW148021   7.352   8.622   0.000 -0.4446 -0.4575 -0.2485
13081SOL    HW248022   7.405   8.482   0.021  0.0140 -0.1294  0.9098
13082SOL     OW48023   7.271  11.907   0.724 -0.2050 -0.4392 -0.1056
13082SOL    HW148024   7.333  11.975   0.748  0.1715  0.4124 -3.0388
13082SOL    HW248025   7.191  11.955   0.701  0.6544 -0.5525 -4.1300
13083SOL     OW48026   3.277   4.182   5.735  0.1453 -0.8028 -0.0616
13083SOL    HW148027   3.359   4.225   5.761 -0.7036  0.1459  1.1686
13083SOL    HW248028   3.250   4.132   5.812  0.1568 -2.1102 -0.8634
13084SOL     OW48029  11.908   1.345  11.607 -0.0094 -0.1782  0.1271
13084SOL    HW148030  11.892   1.384  11.521 -3.0662 -1.0952  0.1445
13084SOL    HW248031  11.860   1.262  11.605  0.4536 -0.5841  2.4555
13085SOL     OW48032   5.874  12.569  10.412  0.9851 -0.7435  0.1061
13085SOL    HW148033   5.898  12.476  10.403  2.7321 -0.1560 -3.7974
13085SOL    HW248034   5.955  12.612  10.439  1.7490  0.0529 -2.9652
13086SOL     OW48035   0.978   1.967  10.600 -0.1663  0.1167 -0.1349
13086SOL    HW148036   1.045   1.974  10.668  1.3170 -0.1906 -1.5196
13086SOL    HW248037   0.898   1.947  10.648  0.8022  0.0706  1.5407
13087SOL     OW48038   5.585   1.954   0.512 -0.8172  0.3502  0.0979
13087SOL    HW148039   5.630   1.887   0.564 -1.8540  0.3583  1.0450
13087SOL    HW248040   5.645   1.971   0.438  1.5928  1.6701  2.1940
13088SOL     OW48041   8.155   5.031   5.389  0.4549 -0.1563 -0.7086
13088SOL    HW148042   8.235   5.052   5.437 -0.1918  0.4447  0.1471
13088SOL    HW248043   8.169   5.070   5.303  0.9032  0.3537 -0.4189
13089SOL     OW48044  12.427   8.409   7.283 -0.5053  0.0934  0.1462
13089SOL    HW148045  12.422   8.501   7.255  0.0143 -0.0237 -0.3549
13089SOL    HW248046  12.338   8.375   7.272 -0.1209 -0.2420 -2.4294
13090SOL     OW48047   7.436   5.186  12.368  0.2264  0.0913  0.3577
13090SOL    HW148048   7.465   5.101  12.401  1.0685  0.4418  0.5397
13090SOL    HW248049   7.430   5.241  12.446  0.7441  0.4987  0.1093
13091SOL     OW48050  10.060  10.910   0.959  0.1421 -0.1576 -0.3410
13091SOL    HW148051  10.010  10.992   0.966 -0.1011 -0.2791 -0.6399
13091SOL    HW248052  10.084  10.888   1.049 -0.2887 -0.0657 -0.2031
13092SOL     OW48053   9.234   2.589   8.924  0.0531 -0.0297  0.1145
13092SOL    HW148054   9.152   2.636   8.909 -0.1958 -0.3740  0.3825
13092SOL    HW248055   9.297   2.631   8.866 -0.0563  0.9215  0.6632
13093SOL     OW48056   2.935  12.143   5.844 -0.2161  0.3288  0.1050
13093SOL    HW148057   2.964  12.083   5.913  1.9421 -0.6568 -1.5174
13093SOL    HW248058   2.984  12.224   5.860  0.5350 -0.0120 -0.4358
13094SOL     OW48059   1.597   8.319   7.125  0.0965  0.0561 -0.6245
13094SOL    HW148060   1.578   8.226   7.112 -0.6265  0.0913  0.0743
13094SOL    HW248061   1.648   8.322   7.206  1.7999  0.1064 -1.6700
13095SOL     OW48062   9.683   0.774  10.711 -0.3948 -0.2991  0.0082
13095SOL    HW148063   9.722   0.862  10.709 -1.4437  0.2132  1.0779
13095SOL    HW248064   9.633   0.768  10.630 -0.3022  0.0820 -0.0788
13096SOL     OW48065   0.990   8.313   2.068  0.4410 -0.2544  0.1751
13096SOL    HW148066   1.033   8.304   2.153  4.2902 -0.8756 -1.6092
13096SOL    HW248067   0.930   8.238   2.064 -0.8658  0.5159  2.7263
13097SOL     OW48068  10.110   4.675   0.750 -0.1458 -0.2752  0.0365
13097SOL    HW148069  10.050   4.735   0.794  1.1176  1.5971 -0.7016
13097SOL    HW248070  10.053   4.615   0.702 -1.4515  0.2408  0.8949
13098SOL     OW48071   0.901   3.405   5.339  0.0604 -0.1106  0.1857
13098SOL    HW148072   0.829   3.354   5.302 -0.6391  0.9763 -0.0051
13098SOL    HW248073   0.953   3.341   5.388 -2.4430 -0.5595  2.4832
13099SOL     OW48074   5.642   9.665   9.812  0.6570  0.1964 -0.8688
13099SOL    HW148075   5.683   9.639   9.729  1.1551 -0.3639 -0.4556
13099SOL    HW248076   5.672   9.755   9.826  1.3557 -0.0427 -0.8140
13100SOL     OW48077   8.638   1.688   2.629 -0.7034  0.2587  0.2786
13100SOL    HW148078   8.555   1.647   2.605 -0.8762  1.2439 -0.8812
13100SOL    HW248079   8.614   1.771   2.669 -0.3059 -0.1161  1.3393
13101SOL     OW48080   4.288   0.970   6.579  0.0244  0.1046 -0.2426
13101SOL    HW148081   4.366   1.024   6.586  0.9311 -0.9484 -1.6911
13101SOL    HW248082   4.311   0.903   6.515 -1.4708 -1.2904  0.6172
13102SOL     OW48083   5.227   0.417   9.958 -0.0123  0.1629 -0.2850
13102SOL    HW148084   5.176   0.348  10.000  1.3689  0.2458  1.6974
13102SOL    HW248085   5.310   0.375   9.935  1.0251  1.1841  1.3469
13103SOL     OW48086   2.878  11.224   3.394 -0.3356  0.2581  0.0814
13103SOL    HW148087   2.944  11.154   3.389 -0.6195  0.0553 -1.4365
13103SOL    HW248088   2.855  11.229   3.487 -0.5746 -1.9309  0.1916
13104SOL     OW48089   6.077   7.960   7.065  0.1470  0.1784  0.8101
13104SOL    HW148090   6.153   7.902   7.066  1.2491  1.5754  1.0753
13104SOL    HW248091   6.099   8.026   7.000 -0.6548  0.8579  1.2191
13105SOL     OW48092  12.378   7.487  11.706 -0.3100 -0.1991  0.2064
13105SOL    HW148093  12.357   7.475  11.798  1.8826 -0.8359  0.6891
13105SOL    HW248094  12.389   7.581  11.695  1.4082 -0.2541  1.1307
13106SOL     OW48095   9.050   5.903   2.657 -0.0707  0.0710  0.1875
13106SOL    HW148096   9.112   5.859   2.715 -0.4735  0.8409  1.2380
13106SOL    HW248097   9.058   5.857   2.573  1.3135 -0.3651  0.5373
13107SOL     OW48098   4.840   1.166   8.949  0.3583 -0.2260 -0.1845
13107SOL    HW148099   4.773   1.117   8.996 -0.5034  2.2215  1.2979
13107SOL    HW248100   4.918   1.158   9.004  0.3617 -0.3097 -0.2005
13108SOL     OW48101   6.975  11.212   1.578  0.0733  0.2703 -0.5463
13108SOL    HW148102   6.971  11.139   1.516  0.0654 -0.0856 -0.1273
13108SOL    HW248103   7.041  11.271   1.540  2.3250 -1.3393  0.5787
13109SOL     OW48104   9.808   5.510   0.036 -0.0304  0.3908 -0.0709
13109SOL    HW148105   9.768   5.520   0.122 -0.1248 -2.4421  0.3352
13109SOL    HW248106   9.898   5.483   0.055 -0.1364 -0.5423 -0.8144
13110SOL     OW48107  12.297   2.377   1.273 -0.5468 -0.5009 -0.0301
13110SOL    HW148108  12.351   2.312   1.227  0.2407 -1.0843  1.6256
13110SOL    HW248109  12.360   2.442   1.305 -1.2528  0.7331 -1.0694
13111SOL     OW48110   6.589   9.985   4.289 -0.2545 -0.8015 -0.4755
13111SOL    HW148111   6.581  10.068   4.336  1.1241 -0.9641  0.1148
13111SOL    HW248112   6.500   9.964   4.261 -0.6098  0.9523 -0.7964
13112SOL     OW48113   5.823  12.209   9.994 -0.7443  0.2111 -0.5691
13112SOL    HW148114   5.755  12.275  10.008 -0.8100  0.1205 -0.4574
13112SOL    HW248115   5.777  12.125  10.001 -0.1044  0.0257  2.6596
13113SOL     OW48116   1.153  12.092   2.375  0.1042  0.3523 -0.3134
13113SOL    HW148117   1.191  12.092   2.288 -0.7430  1.3943 -0.7020
13113SOL    HW248118   1.060  12.078   2.361 -0.0048  0.2503  0.4526
13114SOL     OW48119   6.264   1.012  10.776 -0.3380  0.1729 -0.1860
13114SOL    HW148120   6.350   0.987  10.743 -0.9768 -1.0872 -0.9856
13114SOL    HW248121   6.278   1.034  10.868  0.5777 -1.5279  0.1117
13115SOL     OW48122   1.847   7.884   8.510 -0.1491  0.0914  0.2235
13115SOL    HW148123   1.882   7.858   8.596  0.2903  0.6097  0.2030
13115SOL    HW248124   1.752   7.871   8.518  0.1097 -2.6321 -0.1501
13116SOL     OW48125   7.601  12.159  12.505 -0.1255  0.5147  0.0366
13116SOL    HW148126   7.538  12.229  12.486 -0.1983  0.2500 -0.7283
13116SOL    HW248127   7.628  12.175  12.595 -0.3906  1.3386 -0.0199
13117SOL     OW48128   1.797   7.336  11.375  0.5014  0.2025 -0.5694
13117SOL    HW148129   1.846   7.414  11.399 -1.2332  1.9127 -2.2357
13117SOL    HW248130   1.826   7.315  11.286  0.2093 -0.4453 -0.5223
13118SOL     OW48131   9.348  12.174  10.805 -0.4677  0.9170 -0.3595
13118SOL    HW148132   9.356  12.261  10.767  0.1738 -0.1186 -2.8207
13118SOL    HW248133   9.424  12.165  10.861 -0.2551  1.7518 -0.5005
13119SOL     OW48134   0.461  11.864   5.713  0.7012 -0.4345  0.2693
13119SOL    HW148135   0.508  11.798   5.764  2.4009  0.8444  0.4813
13119SOL    HW248136   0.523  11.888   5.644  0.1034  0.8821  0.1637
13120SOL     OW48137   8.388   4.677   0.447 -0.3772  0.9054 -0.5268
13120SOL    HW148138   8.438   4.601   0.417  1.0452  1.8289 -0.5934
13120SOL    HW248139   8.356   4.718   0.366 -2.6912 -0.5599 -0.4422
13121SOL     OW48140   2.065   3.608   6.086 -0.3756 -0.2555  0.0089
13121SOL    HW148141   2.013   3.544   6.036  0.9803 -1.1993 -0.2550
13121SOL    HW248142   2.009   3.685   6.093 -1.4438 -0.9086 -1.0589
13122SOL     OW48143   5.033   2.327  11.813 -0.0222 -0.2995  0.5058
13122SOL    HW148144   5.122   2.292  11.822 -0.5090 -1.2908  1.6825
13122SOL    HW248145   5.013   2.316  11.720  1.0287 -0.2137  0.2593
13123SOL     OW48146   3.782   7.797   4.875  0.2519 -0.1813 -0.3403
13123SOL    HW148147   3.840   7.739   4.925  0.8839  1.4348  0.9067
13123SOL    HW248148   3.698   7.794   4.921 -0.0924 -1.0620 -1.0200
13124SOL     OW48149   3.217   7.840   1.253  0.0970 -0.2132 -0.3996
13124SOL    HW148150   3.246   7.750   1.267 -0.7774 -0.2905  1.1108
13124SOL    HW248151   3.264   7.891   1.319 -1.0232  0.0842  0.1970
13125SOL     OW48152   3.141   3.021   7.151 -0.2076  0.6229 -0.2950
13125SOL    HW148153   3.230   3.030   7.115 -0.3971  2.4053 -0.4063
13125SOL    HW248154   3.136   2.929   7.177  2.7333  1.0445  2.4073
13126SOL     OW48155   0.105   6.583   0.677  0.4049 -0.4406 -0.2950
13126SOL    HW148156   0.035   6.522   0.699 -0.3222  0.4968  0.0669
13126SOL    HW248157   0.089   6.659   0.733  1.9861 -0.3892  0.1283
13127SOL     OW48158   6.972  11.978   3.875 -0.3911 -0.6728 -0.3991
13127SOL    HW148159   7.066  11.959   3.871 -0.5153 -1.4774  0.1819
13127SOL    HW248160   6.940  11.926   3.949 -1.0793  0.5604  0.1979
13128SOL     OW48161   2.048   3.743   4.675  0.3286  0.1272 -0.6131
13128SOL    HW148162   2.064   3.733   4.581 -2.3679 -1.8259 -0.9690
13128SOL    HW248163   1.984   3.814   4.680  0.4945  0.2512 -0.2071
13129SOL     OW48164   7.842  12.214   2.252 -0.2705  0.1874 -0.7313
13129SOL    HW148165   7.915  12.246   2.305  0.1979 -0.0992 -1.1992
13129SOL    HW248166   7.764  12.232   2.306  0.2229 -0.4436  0.2233
13130SOL     OW48167   4.921   5.910   4.773  0.1159  0.1535 -0.1341
13130SOL    HW148168   4.844   5.951   4.814 -1.1859 -2.2667 -0.0119
13130SOL    HW248169   4.885   5.860   4.700  2.0919  2.1617 -2.6801
13131SOL     OW48170  10.495   8.702   4.321  0.8538  0.0176 -0.0470
13131SOL    HW148171  10.566   8.764   4.337  0.4515  0.3396  0.5270
13131SOL    HW248172  10.463   8.679   4.408  0.4962 -0.4082 -0.2869
13132SOL     OW48173   6.671   0.276   9.284  0.4097  0.1169  0.0842
13132SOL    HW148174   6.692   0.210   9.218 -2.4319 -2.4159  1.4577
13132SOL    HW248175   6.639   0.351   9.234 -0.0191 -1.0633 -1.4824
13133SOL     OW48176   1.628   0.942   9.947 -0.2685  0.2558 -0.9424
13133SOL    HW148177   1.606   0.881   9.877  0.6889  1.4779 -2.3721
13133SOL    HW248178   1.544   0.961   9.990 -0.9791  0.0044 -2.1830
13134SOL     OW48179   5.683   2.623   1.843 -0.2606  0.2122 -0.7822
13134SOL    HW148180   5.652   2.664   1.924 -1.1092 -2.0954  0.1221
13134SOL    HW248181   5.614   2.642   1.779 -0.3426  0.7023 -0.5554
13135SOL     OW48182   7.962   3.517   0.989  0.0622 -0.0543  0.9858
13135SOL    HW148183   7.999   3.435   0.954 -1.2881  0.3060 -1.4967
13135SOL    HW248184   8.016   3.586   0.950  0.0525  0.3093  1.6081
13136SOL     OW48185   4.616   8.379  12.141 -0.2593 -0.1550  0.5938
13136SOL    HW148186   4.696   8.401  12.092 -0.8874 -0.1629 -0.4663
13136SOL    HW248187   4.570   8.317  12.084 -1.3900  0.4414  0.8523
13137SOL     OW48188   1.932   3.318  11.345  0.1141  0.7488  0.9096
13137SOL    HW148189   2.012   3.325  11.293 -0.2632  2.8750  0.5338
13137SOL    HW248190   1.962   3.287  11.430  0.8983 -1.5713 -0.1420
13138SOL     OW48191  10.930   8.587  12.090  0.0215  0.5765 -0.3808
13138SOL    HW148192  10.893   8.624  12.010  2.3159 -1.6997 -2.7247
13138SOL    HW248193  11.015   8.630  12.099  0.0213  0.4055  0.5152
13139SOL     OW48194   0.140   7.826   1.218 -0.7991 -0.4455  0.3353
13139SOL    HW148195   0.149   7.766   1.291  0.1292 -0.4745  0.2143
13139SOL    HW248196   0.223   7.873   1.215 -0.4667 -1.0652 -1.2278
13140SOL     OW48197  10.850   1.899   7.427  0.4319 -0.2403 -0.1554
13140SOL    HW148198  10.920   1.962   7.449 -0.8506  0.5983  1.8442
13140SOL    HW248199  10.815   1.930   7.344 -0.8963  2.4533  1.2985
13141SOL     OW48200   1.061  11.684   9.458  0.3307 -0.1670  0.4188
13141SOL    HW148201   1.045  11.654   9.368  0.7178 -1.0421  0.6285
13141SOL    HW248202   1.023  11.616   9.513 -0.2691  0.5685  0.9320
13142SOL     OW48203   7.724   5.587   9.867  0.6117 -0.3322 -0.1701
13142SOL    HW148204   7.681   5.616   9.787  1.3846  1.2265 -0.0508
13142SOL    HW248205   7.774   5.663   9.897  0.9946 -1.1348  1.3508
13143SOL     OW48206   1.387   3.216   2.745  0.0601 -0.0422  0.7279
13143SOL    HW148207   1.430   3.293   2.707  0.9466 -0.5461  0.6750
13143SOL    HW248208   1.427   3.207   2.832 -0.6811  0.0737  1.0861
13144SOL     OW48209   5.869  11.566   9.664 -0.1321 -0.3008 -0.3047
13144SOL    HW148210   5.793  11.576   9.607  0.2061 -1.3429 -0.9787
13144SOL    HW248211   5.878  11.650   9.707 -1.8664 -0.2512  0.0417
13145SOL     OW48212   7.107   6.384   7.171  0.9048 -0.4133 -0.1496
13145SOL    HW148213   7.084   6.410   7.082 -0.3992  0.8422  0.5053
13145SOL    HW248214   7.163   6.455   7.203 -0.8423  0.5828  0.8949
13146SOL     OW48215   1.910  11.501   5.825  0.1364 -0.4342  0.2577
13146SOL    HW148216   1.944  11.588   5.803 -0.3996 -0.5435 -1.1059
13146SOL    HW248217   1.816  11.513   5.829  0.1267 -0.7454  1.1324
13147SOL     OW48218   7.317  11.671  10.299 -0.5397 -0.5425  0.1521
13147SOL    HW148219   7.290  11.580  10.295  1.0779 -1.2519  2.9085
13147SOL    HW248220   7.397  11.675  10.246 -0.1665 -0.9201  0.6828
13148SOL     OW48221   0.588   3.074  11.490  0.7146 -0.0558 -0.4780
13148SOL    HW148222   0.667   3.085  11.437  1.5488 -1.7355  0.3285
13148SOL    HW248223   0.550   2.992  11.459  2.4906 -2.3910  2.9018
13149SOL     OW48224   2.340  11.145   1.544 -0.0897  0.5213  0.7703
13149SOL    HW148225   2.304  11.216   1.490  1.6413  1.4583  0.7634
13149SOL    HW248226   2.380  11.191   1.618 -1.5484 -0.6781  2.3778
13150SOL     OW48227  10.166   4.652   9.905  0.5380 -0.7416 -0.2421
13150SOL    HW148228  10.101   4.637   9.836  1.0831 -0.9684 -0.7145
13150SOL    HW248229  10.171   4.569   9.951  2.8448 -1.8237 -2.2464
13151SOL     OW48230   4.284   0.799   8.669 -0.1954  0.2611 -0.4159
13151SOL    HW148231   4.374   0.816   8.699  0.8239 -2.6351 -1.3911
13151SOL    HW248232   4.252   0.731   8.729 -1.7847  1.2730 -0.0765
13152SOL     OW48233   4.681   7.017   7.706  0.3482  0.0233 -0.7465
13152SOL    HW148234   4.752   6.969   7.749  0.2425  1.0763  0.7154
13152SOL    HW248235   4.621   6.949   7.674  0.7394 -0.8433  0.2942
13153SOL     OW48236   7.630   0.098   9.781 -0.0676  0.7528 -0.4096
13153SOL    HW148237   7.630   0.176   9.837 -0.8503  0.8605 -0.5477
13153SOL    HW248238   7.722   0.070   9.779 -0.0730  0.5252  1.2412
13154SOL     OW48239   7.777   0.324  10.977  0.3030 -0.4804  0.4111
13154SOL    HW148240   7.703   0.267  10.995  0.3285 -1.6448 -2.6176
13154SOL    HW248241   7.770   0.344  10.883  2.7879  0.8748  0.4225
13155SOL     OW48242   7.690   9.570   1.841  0.4392  0.0950 -0.1261
13155SOL    HW148243   7.668   9.596   1.751 -2.1728 -1.1581  0.0595
13155SOL    HW248244   7.624   9.504   1.863  1.6787 -0.4032  2.3580
13156SOL     OW48245   4.015   4.699   7.552  0.5424 -0.0735  0.3070
13156SOL    HW148246   4.062   4.778   7.579  1.5485 -0.6115  0.2030
13156SOL    HW248247   4.054   4.676   7.467  0.5958 -0.9409  0.5572
13157SOL     OW48248   4.073   4.697  12.328  0.1237 -0.0450  0.2059
13157SOL    HW148249   4.020   4.621  12.348 -0.6390  0.7485  1.3018
13157SOL    HW248250   4.055   4.759  12.398  0.8579  1.0867 -0.5581
13158SOL     OW48251   9.402  10.540   3.061 -0.3324  0.3504 -0.2723
13158SOL    HW148252   9.357  10.468   3.017 -0.0992 -0.4529  0.7760
13158SOL    HW248253   9.420  10.603   2.991 -0.3798 -0.6815 -1.2452
13159SOL     OW48254   5.486   1.420   3.653 -0.3559  0.0028 -0.0602
13159SOL    HW148255   5.409   1.393   3.603  1.4495 -3.2037 -1.3691
13159SOL    HW248256   5.484   1.368   3.732  0.8400 -0.7668 -0.4988
13160SOL     OW48257   1.022  11.992   7.578 -0.1490  0.2246  0.0549
13160SOL    HW148258   1.048  12.017   7.667 -0.1076 -0.4629  0.2470
13160SOL    HW248259   0.932  11.959   7.588 -0.9223  2.0486 -0.5070
13161SOL     OW48260   0.712   5.884   9.477 -0.7402 -0.0481 -0.2858
13161SOL    HW148261   0.629   5.911   9.438 -1.1735 -2.3780 -1.1949
13161SOL    HW248262   0.725   5.943   9.550 -1.7153  2.2435 -1.8477
13162SOL     OW48263   0.550  11.433   5.420  0.0716  0.0316 -0.1931
13162SOL    HW148264   0.604  11.378   5.364  2.0327  1.1096  0.5407
13162SOL    HW248265   0.489  11.476   5.361  0.9127 -0.1980 -1.2562
13163SOL     OW48266   3.261   7.287   4.454  0.2938 -0.2278 -0.3500
13163SOL    HW148267   3.268   7.207   4.402 -0.3346 -0.4240 -0.1478
13163SOL    HW248268   3.178   7.327   4.425  0.9816  0.7602 -1.0115
13164SOL     OW48269   7.613   6.792  12.449  0.3272 -0.2191  0.1259
13164SOL    HW148270   7.591   6.805  12.541  1.5009  1.0309  0.2555
13164SOL    HW248271   7.567   6.861  12.403  0.5656 -0.2108 -0.1051
13165SOL     OW48272   6.264   1.975   6.033 -0.2459 -0.4696 -0.0105
13165SOL    HW148273   6.334   1.940   5.979  0.7670 -0.2870  1.1395
13165SOL    HW248274   6.198   1.905   6.036  0.8700 -1.5151  0.6665
13166SOL     OW48275   9.621   3.023   9.833 -0.0012  0.4237  0.3411
13166SOL    HW148276   9.706   2.990   9.864  0.1083 -0.5704 -0.9679
13166SOL    HW248277   9.641   3.068   9.751 -0.4625  1.9950  1.0483
13167SOL     OW48278   4.039   5.382   4.053 -0.0383 -0.2597  0.1515
13167SOL    HW148279   3.987   5.358   3.976 -0.4876  2.2458 -0.4262
13167SOL    HW248280   4.117   5.424   4.016  0.3760 -0.2083  1.0580
13168SOL     OW48281   0.945   3.104   5.714 -0.1699  0.1173  0.3543
13168SOL    HW148282   1.018   3.058   5.673 -1.2417 -1.1236 -0.2016
13168SOL    HW248283   0.930   3.180   5.657 -0.0393 -0.2385 -0.1618
13169SOL     OW48284   0.698   4.338   9.029  0.9239 -0.0145 -0.4131
13169SOL    HW148285   0.748   4.311   8.952  0.9105 -0.1677 -0.3682
13169SOL    HW248286   0.615   4.370   8.994 -0.0672 -2.2847 -0.3415
13170SOL     OW48287   4.226   1.315   6.303  0.5993 -0.6380 -0.1111
13170SOL    HW148288   4.245   1.235   6.254  0.9732 -0.2677 -0.5745
13170SOL    HW248289   4.211   1.284   6.393  1.3335 -1.1736 -0.1578
13171SOL     OW48290   1.403   6.835   2.673 -0.1933  0.2168 -0.0005
13171SOL    HW148291   1.398   6.878   2.758 -0.9408  0.4723 -0.1665
13171SOL    HW248292   1.456   6.756   2.688  1.8921  1.5538  0.1567
13172SOL     OW48293  10.809   5.943   5.180 -0.0780  0.2766 -0.5216
13172SOL    HW148294  10.771   5.889   5.249 -0.0459  2.4623  1.3075
13172SOL    HW248295  10.903   5.934   5.190 -0.0544  1.2867  0.3675
13173SOL     OW48296   1.667   3.527   8.919  0.0740 -0.6158 -0.1500
13173SOL    HW148297   1.603   3.584   8.961 -0.1492 -1.6121  0.9330
13173SOL    HW248298   1.628   3.440   8.925  1.2839 -1.1598  0.0358
13174SOL     OW48299   7.955  10.022  11.484 -0.2294  0.4591 -0.0292
13174SOL    HW148300   8.029  10.003  11.427 -0.0813 -0.7552  0.5287
13174SOL    HW248301   7.889   9.957  11.460 -0.5462  0.5852  0.4818
13175SOL     OW48302   8.064   5.429   6.780  0.2303 -0.1799 -0.0075
13175SOL    HW148303   7.969   5.446   6.780  0.2828  0.5415 -2.5018
13175SOL    HW248304   8.103   5.511   6.750  1.5145 -0.9139 -0.4321
13176SOL     OW48305  11.198   5.985   8.161  0.8042 -0.0177 -0.0940
13176SOL    HW148306  11.204   5.934   8.242  1.9203  0.1653 -0.0365
13176SOL    HW248307  11.274   6.044   8.165  0.5326  0.4022 -0.9920
13177SOL     OW48308   8.719   3.274  11.268 -0.0145 -0.3307 -0.2444
13177SOL    HW148309   8.727   3.266  11.363  0.4607  0.2116 -0.2289
13177SOL    HW248310   8.795   3.227  11.234 -1.1589 -2.1168 -0.4462
13178SOL     OW48311   2.727   0.674   8.950  0.2379  0.4561 -0.1414
13178SOL    HW148312   2.728   0.715   8.863  0.7369  0.1316 -0.2924
13178SOL    HW248313   2.755   0.743   9.010 -0.1238  0.6864 -0.2376
13179SOL     OW48314   5.650   6.825   4.870  0.7978  0.6159  0.2752
13179SOL    HW148315   5.673   6.741   4.832 -3.1360  0.7408 -2.9999
13179SOL    HW248316   5.638   6.807   4.963  1.3165 -2.0807 -0.1125
13180SOL     OW48317  11.589   7.187  11.252 -0.0658  0.2472  0.7002
13180SOL    HW148318  11.495   7.170  11.242  0.1073 -0.4239  0.1490
13180SOL    HW248319  11.603   7.270  11.208  0.1376 -1.1642 -2.0902
13181SOL     OW48320  10.683   8.248  11.855  0.1736  0.0779 -0.2939
13181SOL    HW148321  10.646   8.320  11.804  1.1331  0.3914 -0.5755
13181SOL    HW248322  10.647   8.258  11.943 -1.3133 -0.3198 -0.8330
13182SOL     OW48323   5.522   5.255   3.051 -0.2259 -0.1684 -0.0431
13182SOL    HW148324   5.476   5.250   3.134 -0.5996 -2.4113 -0.3399
13182SOL    HW248325   5.513   5.347   3.024  1.0699  0.9463  2.9715
13183SOL     OW48326   1.467   7.430   4.479 -0.0649 -0.3419  0.2078
13183SOL    HW148327   1.416   7.365   4.527  0.0855  0.1042  0.9965
13183SOL    HW248328   1.520   7.473   4.547  0.3115  0.1586 -0.3958
13184SOL     OW48329   5.900   1.078   4.476  0.0983  0.3046  0.0990
13184SOL    HW148330   5.995   1.086   4.484  0.2625 -0.0535 -1.2753
13184SOL    HW248331   5.870   1.168   4.462  0.1827  0.4690  0.9294
13185SOL     OW48332   8.106   8.835   4.448  0.4794 -0.4328  0.0858
13185SOL    HW148333   8.168   8.824   4.376  0.4134 -0.6195  0.0553
13185SOL    HW248334   8.029   8.875   4.408 -0.0039 -1.5751 -0.1885
13186SOL     OW48335  11.024   9.009   0.826 -0.6934  0.1115 -0.5487
13186SOL    HW148336  11.038   8.998   0.920 -0.4747  0.1896 -0.5718
13186SOL    HW248337  11.006   8.920   0.794 -2.5578  0.2993 -0.1546
13187SOL     OW48338   5.641   6.588  11.013 -0.5393 -0.2353 -0.0030
13187SOL    HW148339   5.699   6.636  11.072 -1.1256  0.7154 -0.1734
13187SOL    HW248340   5.553   6.607  11.044 -0.8464 -0.0060 -0.9551
13188SOL     OW48341   0.953   2.542   5.569 -0.1474 -0.5059 -0.7756
13188SOL    HW148342   0.943   2.447   5.560 -0.6487 -0.4612 -0.7426
13188SOL    HW248343   1.047   2.556   5.574 -0.1134 -1.1564  0.9996
13189SOL     OW48344   8.472   1.613   7.284  0.6091 -0.2303 -0.1300
13189SOL    HW148345   8.466   1.596   7.378  2.1742 -1.4324 -0.2023
13189SOL    HW248346   8.408   1.682   7.267 -1.3103 -1.5283  1.4289
13190SOL     OW48347   5.790   2.084  12.063 -0.3708 -0.4254 -0.0692
13190SOL    HW148348   5.852   2.080  11.990  1.9499 -0.0038  1.7749
13190SOL    HW248349   5.816   2.161  12.113 -2.0212 -0.5947  1.1508
13191SOL     OW48350   2.367   6.318   4.513 -0.8227 -0.3369 -0.0740
13191SOL    HW148351   2.363   6.307   4.607 -2.8822  0.2503 -0.0438
13191SOL    HW248352   2.351   6.230   4.477 -0.7326 -0.4345  0.1261
13192SOL     OW48353   0.586   1.837  10.258 -0.0648  0.6097 -0.9829
13192SOL    HW148354   0.598   1.743  10.271 -1.9896  0.3367 -0.8939
13192SOL    HW248355   0.588   1.848  10.163 -0.2675  0.4042 -1.0129
13193SOL     OW48356   9.788  11.693   4.740 -0.2452  0.1171 -0.2764
13193SOL    HW148357   9.807  11.627   4.673  0.3586 -0.4217  0.4069
13193SOL    HW248358   9.750  11.644   4.813  0.5800  0.4358  0.3969
13194SOL     OW48359  11.445   5.154   6.275 -0.0699 -0.0030  0.3271
13194SOL    HW148360  11.370   5.192   6.320 -1.1125 -0.0919 -1.2421
13194SOL    HW248361  11.413   5.070   6.242  0.8939 -0.2949  0.1026
13195SOL     OW48362   1.164   4.873   0.349 -0.2772 -0.3730 -0.1051
13195SOL    HW148363   1.226   4.806   0.375 -1.8265 -1.7718  0.1609
13195SOL    HW248364   1.169   4.939   0.419  1.8094  0.2196 -0.7567
13196SOL     OW48365   6.061   9.947   8.963 -0.3260 -0.0784 -0.8278
13196SOL    HW148366   6.037   9.856   8.983  1.1368 -0.7440 -1.9237
13196SOL    HW248367   6.107   9.941   8.880 -0.0933  1.6749 -0.8463
13197SOL     OW48368   5.824   1.251   2.493  0.4712 -0.3301 -0.5987
13197SOL    HW148369   5.820   1.279   2.402  1.5533 -0.1393 -0.5956
13197SOL    HW248370   5.794   1.327   2.543 -0.1840 -0.4562 -0.7917
13198SOL     OW48371   8.434   2.410   5.173 -0.3007  0.5687 -0.0025
13198SOL    HW148372   8.392   2.339   5.221  0.9707 -0.3139 -0.1477
13198SOL    HW248373   8.374   2.431   5.102 -0.4235 -0.7623 -0.3037
13199SOL     OW48374  11.241  11.280   3.719 -0.2234  0.7175 -0.0903
13199SOL    HW148375  11.289  11.277   3.636  1.6059 -0.0609  0.9641
13199SOL    HW248376  11.153  11.310   3.694  0.5862  1.5351 -2.1575
13200SOL     OW48377   2.653  10.484  12.134 -0.0837 -0.0487  0.2235
13200SOL    HW148378   2.715  10.454  12.200 -0.3100  0.4037  0.6489
13200SOL    HW248379   2.603  10.553  12.177  0.1283  0.6341 -0.5934
13201SOL     OW48380   2.375  11.273   8.256 -0.2058  0.3777 -0.3317
13201SOL    HW148381   2.435  11.348   8.251 -0.3595  0.5522  0.2600
13201SOL    HW248382   2.304  11.304   8.313 -0.1786 -0.2848  0.0639
13202SOL     OW48383   3.543   7.974   9.948  0.6992 -0.4855  0.0233
13202SOL    HW148384   3.464   7.919   9.946 -0.2766  0.7628  1.5580
13202SOL    HW248385   3.514   8.058   9.915  1.2569  0.1256  1.0382
13203SOL     OW48386  12.326  11.362  10.825 -0.4600  0.0532 -1.2891
13203SOL    HW148387  12.235  11.391  10.814 -0.4873  0.4802 -0.1232
13203SOL    HW248388  12.321  11.296  10.895  0.0769 -0.2062 -1.4934
13204SOL     OW48389   8.956  11.962  10.528 -0.2125 -0.0632  0.1103
13204SOL    HW148390   8.862  11.964  10.507 -0.2944 -2.1453  0.0428
13204SOL    HW248391   8.965  11.893  10.593  1.1934  0.7006  0.7789
13205SOL     OW48392   7.754   2.754   7.029  0.4734 -0.1277  0.1389
13205SOL    HW148393   7.788   2.761   7.118  1.8967 -0.2210 -0.3709
13205SOL    HW248394   7.783   2.668   6.998 -0.4399 -0.3080 -0.2533
13206SOL     OW48395   6.804   6.228   3.273  0.3612  0.0781  0.1595
13206SOL    HW148396   6.805   6.183   3.357 -0.3625  0.8746  0.6020
13206SOL    HW248397   6.739   6.297   3.283 -0.2565 -0.2531 -1.2807
13207SOL     OW48398  12.236  12.305   4.285 -0.2830  0.6867 -0.3519
13207SOL    HW148399  12.247  12.275   4.376  0.9648 -0.1780 -0.7578
13207SOL    HW248400  12.196  12.231   4.240  0.7225  0.4367 -0.8701
13208SOL     OW48401   5.623   9.441   5.825  0.2058 -0.3248  0.3337
13208SOL    HW148402   5.586   9.429   5.738  1.7252 -0.1357 -0.3666
13208SOL    HW248403   5.628   9.536   5.835 -1.0074 -0.3163  1.1190
13209SOL     OW48404   8.593   4.151   1.042 -0.3702  0.0456 -0.0087
13209SOL    HW148405   8.565   4.082   1.102 -0.8776  0.1919 -0.0713
13209SOL    HW248406   8.537   4.141   0.965 -0.0595  0.1719 -0.2536
13210SOL     OW48407   8.014   9.725  12.025 -0.8274 -0.5049 -0.1204
13210SOL    HW148408   8.026   9.819  12.018  0.2255 -0.7079 -1.6682
13210SOL    HW248409   8.098   9.693  12.060 -1.3307 -0.8403  0.8113
13211SOL     OW48410   6.048   0.600   4.980 -0.5438  0.4386  0.4315
13211SOL    HW148411   6.016   0.682   4.941  0.9259  1.7457  1.8050
13211SOL    HW248412   6.135   0.589   4.943 -0.5364 -0.2351  0.6432
13212SOL     OW48413   3.906   9.567   7.233  0.0187 -0.1372 -0.0471
13212SOL    HW148414   3.814   9.587   7.247  0.2956  0.7375  0.6197
13212SOL    HW248415   3.942   9.647   7.193  0.0732 -1.1909 -2.2524
13213SOL     OW48416   4.717  12.067  11.644  0.2898 -0.2086  0.0338
13213SOL    HW148417   4.740  12.080  11.552 -1.3100  0.8340 -0.2576
13213SOL    HW248418   4.654  11.995  11.643  0.9134 -0.7764  0.4351
13214SOL     OW48419   1.624   2.086   5.294 -0.4898 -0.7908 -0.8546
13214SOL    HW148420   1.660   2.040   5.218  0.4001  0.4282 -1.2014
13214SOL    HW248421   1.538   2.116   5.266 -0.2116 -0.4474 -1.3568
13215SOL     OW48422   8.953   0.517   3.190 -0.3110  0.2037 -0.7167
13215SOL    HW148423   8.895   0.442   3.198 -0.2923  0.3583  1.6301
13215SOL    HW248424   8.901   0.583   3.144 -1.5094 -0.1372  0.1020
13216SOL     OW48425   1.879   6.235   4.830 -0.1692 -0.4105 -0.1896
13216SOL    HW148426   1.952   6.246   4.891 -0.4294 -0.3618  0.1142
13216SOL    HW248427   1.821   6.308   4.848 -0.5269 -0.7125 -0.1022
13217SOL     OW48428  11.542  11.312  10.304  0.2873  0.3280  0.3480
13217SOL    HW148429  11.528  11.243  10.369  0.3627  0.6227  0.6808
13217SOL    HW248430  11.460  11.361  10.303  0.1344  0.0696 -0.0907
13218SOL     OW48431  10.463   5.936   0.205  0.3692 -0.4140  0.3641
13218SOL    HW148432  10.522   6.011   0.202 -1.4853  1.1118  0.3840
13218SOL    HW248433  10.484   5.892   0.287  1.4786  0.0643  0.3564
13219SOL     OW48434   8.598  11.275   4.922  0.3421 -0.2879 -0.3647
13219SOL    HW148435   8.508  11.308   4.921  0.9799  1.5972 -1.2761
13219SOL    HW248436   8.649  11.346   4.962  1.7815 -0.1138 -2.3703
13220SOL     OW48437   1.856   4.027   9.216  0.1513 -0.1968 -0.0695
13220SOL    HW148438   1.847   4.040   9.311 -0.6275  0.5092 -0.2188
13220SOL    HW248439   1.797   4.093   9.178 -1.0003 -1.7096 -1.0114
13221SOL     OW48440   8.668   8.712   2.571 -0.0899 -0.1352 -0.1078
13221SOL    HW148441   8.613   8.656   2.627  1.6257 -0.8152  0.9895
13221SOL    HW248442   8.687   8.658   2.494 -1.9266  0.5663 -1.1103
13222SOL     OW48443   7.143  11.306  10.767  0.2850 -0.2693 -0.0206
13222SOL    HW148444   7.207  11.256  10.818  0.7801  2.7890  2.6661
13222SOL    HW248445   7.058  11.275  10.800  0.5657  0.1122  1.1296
13223SOL     OW48446   2.470   3.514   0.143 -0.2846 -0.4352  0.1364
13223SOL    HW148447   2.449   3.434   0.192 -0.8516 -0.6493 -0.4441
13223SOL    HW248448   2.394   3.571   0.158  0.3710  0.2441  1.0303
13224SOL     OW48449   4.110   1.339   1.291 -0.1899  0.3823 -0.5469
13224SOL    HW148450   4.041   1.329   1.224 -0.1765 -0.3426 -0.4509
13224SOL    HW248451   4.166   1.408   1.255 -3.1893  4.1753  1.2298
13225SOL     OW48452   7.748   0.812   3.240 -1.0258 -0.3848  0.3419
13225SOL    HW148453   7.762   0.786   3.149 -0.8626 -1.8513  0.7660
13225SOL    HW248454   7.786   0.742   3.291  1.8230  1.8955  1.6338
13226SOL     OW48455   3.663   8.814   0.739 -0.3673 -0.0693 -0.3116
13226SOL    HW148456   3.751   8.847   0.754  0.2722  0.3366 -4.1302
13226SOL    HW248457   3.611   8.893   0.722 -0.8378 -0.4737 -0.7737
13227SOL     OW48458   2.191   6.325   2.736  0.0040  0.5186  0.2378
13227SOL    HW148459   2.139   6.402   2.761  1.4312  2.1473 -1.5233
13227SOL    HW248460   2.162   6.304   2.647  0.7311 -0.0192  0.1237
13228SOL     OW48461   2.260  12.217   9.427 -0.2275  0.2083  0.1614
13228SOL    HW148462   2.336  12.208   9.485 -2.4096  3.2528  3.9097
13228SOL    HW248463   2.228  12.127   9.416  2.6634 -0.9290  0.0971
13229SOL     OW48464   4.511   2.611   1.745  0.1082 -0.2270  0.1683
13229SOL    HW148465   4.424   2.595   1.710  0.5966 -0.4770 -0.9818
13229SOL    HW248466   4.570   2.568   1.683  0.9889 -1.3809  1.7358
13230SOL     OW48467   8.683   6.492   1.732  0.0288 -0.3861  0.5034
13230SOL    HW148468   8.703   6.436   1.808  2.2492  0.3994  0.5738
13230SOL    HW248469   8.769   6.513   1.695 -0.9604 -0.2270 -1.8851
13231SOL     OW48470   5.769   2.809   2.579  0.4406 -0.2767  0.9398
13231SOL    HW148471   5.786   2.715   2.587 -0.4479 -0.6525 -1.0887
13231SOL    HW248472   5.829   2.849   2.642  1.4167 -2.1458  1.2749
13232SOL     OW48473  11.485   3.783   2.058 -0.3131  0.3490 -0.2964
13232SOL    HW148474  11.502   3.743   1.972 -1.8469  0.7318 -0.8120
13232SOL    HW248475  11.398   3.751   2.082 -0.7116  1.7738  0.2162
13233SOL     OW48476   1.771   3.968   2.641 -0.3643  0.4227 -0.0543
13233SOL    HW148477   1.846   3.941   2.589 -1.4140 -0.0798 -1.3435
13233SOL    HW248478   1.780   3.918   2.723  0.2095 -0.3455 -0.5671
13234SOL     OW48479   3.932  11.388   2.158  0.1138 -0.2663  0.1772
13234SOL    HW148480   4.025  11.410   2.153 -0.3913  2.4124  1.0742
13234SOL    HW248481   3.889  11.449   2.098 -1.0806 -1.6212 -0.4019
13235SOL     OW48482   2.897   3.963   8.744  0.0098 -0.6049 -0.6495
13235SOL    HW148483   2.852   3.901   8.801  0.8542 -0.1242  0.5795
13235SOL    HW248484   2.904   4.043   8.796 -1.4758  0.7234 -2.3581
13236SOL     OW48485   9.046   1.966   7.882  0.3145  0.4280 -0.3616
13236SOL    HW148486   9.086   2.024   7.817  1.8188  0.3763  0.4684
13236SOL    HW248487   8.952   1.973   7.867  0.6008  0.9248 -2.0964
13237SOL     OW48488   9.908  12.500   9.867  0.0920  0.0567  0.2314
13237SOL    HW148489   9.866  12.585   9.852 -1.4326 -0.9790 -2.1012
13237SOL    HW248490   9.985  12.502   9.810 -0.2155 -0.2902 -0.1995
13238SOL     OW48491   2.127  10.763  11.425 -0.9322  0.4394 -0.5976
13238SOL    HW148492   2.222  10.778  11.417 -1.0103  0.9678 -0.5673
13238SOL    HW248493   2.108  10.783  11.517 -1.0753  0.3306 -0.6034
13239SOL     OW48494  12.466   9.836  12.502  0.5330  0.0607 -0.0426
13239SOL    HW148495  12.415   9.916  12.516 -0.2013 -0.3175 -0.4729
13239SOL    HW248496  12.533   9.862  12.438 -1.6203 -0.3705 -2.6759
13240SOL     OW48497  10.984   1.668   4.210 -0.1217  0.0939 -0.2491
13240SOL    HW148498  11.051   1.613   4.169  1.0912 -0.4227  2.2030
13240SOL    HW248499  11.005   1.757   4.183 -1.0342 -0.3911 -2.8416
13241SOL     OW48500   1.224   5.623   9.877  0.8089 -0.1772  0.0887
13241SOL    HW148501   1.249   5.548   9.931  0.1412 -1.0629 -0.8021
13241SOL    HW248502   1.139   5.599   9.840  0.2684  1.2989  0.2955
13242SOL     OW48503  11.107  12.121  11.165 -0.0781  0.5140  0.3808
13242SOL    HW148504  11.037  12.061  11.192 -0.3104  0.9982  0.8617
13242SOL    HW248505  11.133  12.090  11.079  0.6048 -1.0130  1.0907
13243SOL     OW48506   2.652   5.694   0.557  0.2754  0.3265 -0.1490
13243SOL    HW148507   2.564   5.658   0.566  0.0598  0.8649 -0.0557
13243SOL    HW248508   2.700   5.628   0.507 -0.3839  0.3562 -0.8503
13244SOL     OW48509   7.402  12.540   3.144  0.3839 -0.0281 -0.4036
13244SOL    HW148510   7.391  12.633   3.122 -1.1557 -0.3040 -0.9363
13244SOL    HW248511   7.452  12.540   3.225  0.1742  1.2842 -0.2506
13245SOL     OW48512   1.684   2.424   7.589 -0.5475  0.1143  0.4316
13245SOL    HW148513   1.614   2.489   7.585  0.3243  1.0946  0.6705
13245SOL    HW248514   1.694   2.393   7.499  0.0004  1.3920  0.0242
13246SOL     OW48515  11.953  11.857   9.967 -0.0903 -0.3484 -0.1704
13246SOL    HW148516  11.895  11.912  10.020 -2.0011 -1.8626 -0.5486
13246SOL    HW248517  12.011  11.815  10.030 -0.5972 -0.1499  0.4381
13247SOL     OW48518   6.014  11.232   8.902 -0.0355 -0.2773 -0.0882
13247SOL    HW148519   5.935  11.178   8.905 -0.1039 -0.2454 -1.1058
13247SOL    HW248520   6.085  11.172   8.924 -0.2782 -0.4193  0.3238
13248SOL     OW48521   7.884   3.517   9.411 -0.1456  0.0298  0.2025
13248SOL    HW148522   7.878   3.594   9.469 -2.4946  0.7743 -0.8666
13248SOL    HW248523   7.957   3.537   9.353  0.9482  0.2108  1.5851
13249SOL     OW48524   0.814   5.201   7.586 -0.8588 -0.0186  0.4275
13249SOL    HW148525   0.728   5.222   7.550 -1.9601 -3.3993  0.7773
13249SOL    HW248526   0.813   5.238   7.674 -1.3981  1.1263 -0.0423
13250SOL     OW48527  10.919   3.221   6.124 -0.3275  0.4570  0.0228
13250SOL    HW148528  10.914   3.187   6.035 -0.5383  0.6000 -0.0207
13250SOL    HW248529  10.841   3.276   6.133 -0.6438 -0.0493  0.5038
13251SOL     OW48530   4.332   6.176   7.979 -0.5335  0.0911  0.2311
13251SOL    HW148531   4.338   6.263   8.018 -1.2583  0.5401 -0.6241
13251SOL    HW248532   4.257   6.135   8.023 -0.2872 -0.0386  0.5267
13252SOL     OW48533   2.141   8.104   6.704 -0.1841  0.6523 -0.3942
13252SOL    HW148534   2.196   8.026   6.709 -1.4927 -0.3179 -0.7463
13252SOL    HW248535   2.190   8.165   6.649  0.5117 -0.2210 -0.7615
13253SOL     OW48536  10.823  11.299   0.123  0.3422 -0.1554  0.2336
13253SOL    HW148537  10.852  11.267   0.038 -1.9798  1.7723 -1.4045
13253SOL    HW248538  10.729  11.314   0.113 -0.2491 -0.8246  3.4895
13254SOL     OW48539   3.821   6.646   3.400  0.1529 -0.0251 -0.2510
13254SOL    HW148540   3.733   6.609   3.405  0.0366 -0.0060 -1.6590
13254SOL    HW248541   3.862   6.621   3.483 -1.4369  0.7060  0.8091
13255SOL     OW48542   8.746  11.815  12.310  0.2680  0.2291 -0.1533
13255SOL    HW148543   8.653  11.808  12.333 -0.0155  0.8448 -1.0560
13255SOL    HW248544   8.770  11.728  12.280 -0.1596  0.2024 -0.4201
13256SOL     OW48545  10.847   3.840   1.777  0.6774 -0.6831  0.2633
13256SOL    HW148546  10.858   3.747   1.761 -1.4010 -0.6937 -1.6938
13256SOL    HW248547  10.894   3.882   1.704 -2.1643 -0.4431 -1.5888
13257SOL     OW48548   8.705   4.215   5.296  0.1360  0.1022  0.3145
13257SOL    HW148549   8.645   4.256   5.234 -0.6181 -0.2683  0.7832
13257SOL    HW248550   8.777   4.181   5.243  0.0377  0.7347 -0.2304
13258SOL     OW48551   3.935   8.844   0.735  0.1962  0.1639  0.2259
13258SOL    HW148552   4.018   8.891   0.746  0.6368 -0.9009  1.8235
13258SOL    HW248553   3.949   8.760   0.780 -0.7829 -1.2375 -1.9491
13259SOL     OW48554   5.809  12.378  11.993 -0.6312 -0.1016  0.4337
13259SOL    HW148555   5.851  12.422  11.919 -0.3287  0.0002  0.6659
13259SOL    HW248556   5.738  12.326  11.953  0.7075 -1.5461 -0.1675
13260SOL     OW48557  11.256   7.320   3.872 -0.0567  0.2137 -0.5383
13260SOL    HW148558  11.325   7.259   3.897 -0.9321 -0.6640 -0.1990
13260SOL    HW248559  11.243   7.376   3.949 -0.7984 -0.6488 -0.0199
13261SOL     OW48560   0.547   3.935   2.677 -0.6565 -0.3640 -0.5047
13261SOL    HW148561   0.636   3.937   2.710 -1.4139 -0.3784  1.6795
13261SOL    HW248562   0.538   4.017   2.628  0.5886 -0.4543 -0.9126
13262SOL     OW48563   3.809   3.548   7.704 -0.7273  0.3547 -0.7176
13262SOL    HW148564   3.886   3.576   7.752  0.1574 -0.1401 -1.7931
13262SOL    HW248565   3.822   3.581   7.615  0.4243 -3.3007 -2.0987
13263SOL     OW48566   0.316   5.009   3.905 -0.4103 -0.0181  0.2439
13263SOL    HW148567   0.323   5.074   3.835  1.1454 -0.1840  0.2079
13263SOL    HW248568   0.364   5.047   3.978 -0.8901 -0.4271  0.7818
13264SOL     OW48569   7.357   5.009   6.810  0.2792 -0.0549  0.1735
13264SOL    HW148570   7.329   5.100   6.818  3.3065  1.0088 -0.1850
13264SOL    HW248571   7.329   4.968   6.891  0.4078  1.6786  1.1519
13265SOL     OW48572  11.714   5.241   1.261  0.0778 -0.4573  0.0078
13265SOL    HW148573  11.645   5.305   1.239  0.9624  0.4080 -0.3376
13265SOL    HW248574  11.732   5.255   1.353 -0.9684 -1.4570  0.3856
13266SOL     OW48575  10.528  11.344  11.997  0.0906  0.0938 -0.6233
13266SOL    HW148576  10.532  11.298  12.080  1.2391  0.2280 -0.5795
13266SOL    HW248577  10.438  11.375  11.990 -0.6139 -1.7956 -0.4766
13267SOL     OW48578  11.946   0.668   6.419 -0.1962  0.0609 -1.0614
13267SOL    HW148579  11.959   0.605   6.491  0.7248  1.1932 -0.1821
13267SOL    HW248580  11.892   0.621   6.356  2.7812 -2.7405 -1.8399
13268SOL     OW48581  11.000   3.228   4.384  0.0696 -0.3732 -0.1879
13268SOL    HW148582  11.018   3.183   4.467 -1.5106  0.4494  0.6596
13268SOL    HW248583  11.055   3.183   4.320  0.1172 -2.1316  1.0050
13269SOL     OW48584   0.960   4.780   6.682  0.0122  0.1453 -0.6387
13269SOL    HW148585   0.950   4.849   6.747 -0.6522  0.1694 -0.7592
13269SOL    HW248586   1.043   4.800   6.638  2.0668 -1.5412  2.1744
13270SOL     OW48587   7.559   3.353   3.160  0.1670 -0.3291 -0.0134
13270SOL    HW148588   7.644   3.323   3.192  0.1602 -0.1941  0.1393
13270SOL    HW248589   7.579   3.429   3.105  0.2263 -0.9103 -0.8108
13271SOL     OW48590   4.237   7.919   7.495 -0.2062  0.2876 -0.3123
13271SOL    HW148591   4.263   8.003   7.457  0.7321  0.0355 -0.2569
13271SOL    HW248592   4.254   7.854   7.427  1.8097 -0.2084  0.5909
13272SOL     OW48593   0.681   7.153   8.426 -0.3333  0.1851  0.2750
13272SOL    HW148594   0.686   7.063   8.456  1.6409  0.1078 -0.1547
13272SOL    HW248595   0.716   7.205   8.498  1.3555  0.2853 -0.5523
13273SOL     OW48596   6.277   7.233   6.611 -0.3683  0.1291  0.2336
13273SOL    HW148597   6.206   7.252   6.549 -0.7398 -0.7495  0.3736
13273SOL    HW248598   6.292   7.139   6.602  0.6839  0.2744  0.3175
13274SOL     OW48599   6.492   2.103   1.851  0.3565 -0.1578 -0.1625
13274SOL    HW148600   6.566   2.053   1.817  0.9277 -0.0661  0.9068
13274SOL    HW248601   6.526   2.191   1.865  0.1054 -0.1580  0.4928
13275SOL     OW48602   2.552  11.585  12.450  0.5569  0.0063  0.0563
13275SOL    HW148603   2.484  11.531  12.410 -3.2050  2.7076  2.1292
13275SOL    HW248604   2.569  11.653  12.385  0.6495 -0.2183 -0.1555
13276SOL     OW48605   4.976  11.008   0.837  0.1611  0.5040 -0.3206
13276SOL    HW148606   4.901  11.061   0.811  0.5198  0.5561 -1.2717
13276SOL    HW248607   4.959  10.922   0.798  0.7803  0.6279 -0.8830
13277SOL     OW48608   8.510   3.501  10.301  0.1708 -0.3039  0.5633
13277SOL    HW148609   8.597   3.480  10.269 -0.0246  0.0349 -0.2238
13277SOL    HW248610   8.473   3.559  10.234 -0.6639 -0.4578  0.8764
13278SOL     OW48611   3.448  11.392   7.058 -0.3704 -0.2193 -0.0604
13278SOL    HW148612   3.472  11.370   6.968 -1.3643  1.1449 -0.6998
13278SOL    HW248613   3.360  11.357   7.068 -1.2836  1.8290 -0.5194
13279SOL     OW48614   0.767   9.046   1.696 -0.2325  0.6029 -0.0596
13279SOL    HW148615   0.759   9.057   1.790 -0.9097 -1.2264  0.1413
13279SOL    HW248616   0.802   8.957   1.685  0.1553  0.9073 -1.5208
13280SOL     OW48617   9.838   1.729   5.214 -0.1044  0.0619 -0.0640
13280SOL    HW148618   9.858   1.705   5.123 -1.1302  0.4673 -0.4151
13280SOL    HW248619   9.915   1.778   5.243  0.6685 -0.9239 -0.3641
13281SOL     OW48620   7.880   3.874  10.876  0.1635 -0.3507 -0.1428
13281SOL    HW148621   7.797   3.849  10.835 -1.1835  2.7364  0.4103
13281SOL    HW248622   7.906   3.953  10.829  1.6933 -0.0861  1.0936
13282SOL     OW48623  11.897  11.282   5.786 -0.1210  0.8317 -0.6918
13282SOL    HW148624  11.961  11.351   5.767 -0.1174  0.6366 -1.4309
13282SOL    HW248625  11.878  11.243   5.700  1.8455 -1.8516 -0.0554
13283SOL     OW48626   6.653  12.287   1.463  0.6113  0.2951  0.1373
13283SOL    HW148627   6.711  12.359   1.440  0.1749  0.5518 -0.1813
13283SOL    HW248628   6.577  12.298   1.406  1.5939 -1.8957 -1.7310
13284SOL     OW48629   4.895   4.606   9.406  0.2171  0.0281  0.7995
13284SOL    HW148630   4.891   4.700   9.423  1.1246  0.5134 -1.3137
13284SOL    HW248631   4.951   4.571   9.475  0.7304  1.2236  1.0083
13285SOL     OW48632   1.804   3.720   1.311 -0.0724  0.3065 -0.3226
13285SOL    HW148633   1.742   3.704   1.240 -0.3419 -1.2525  0.2088
13285SOL    HW248634   1.749   3.743   1.386  0.1962  1.7343 -0.5363
13286SOL     OW48635   5.487  11.532   0.764 -0.1433  0.1935  0.6676
13286SOL    HW148636   5.434  11.453   0.773  0.6221 -0.2722  1.2131
13286SOL    HW248637   5.431  11.603   0.796 -2.2540  0.5382 -3.1931
13287SOL     OW48638   3.399  10.076  11.580 -0.2525 -0.1164  0.2516
13287SOL    HW148639   3.327  10.045  11.635 -1.6004  1.3813 -0.5789
13287SOL    HW248640   3.355  10.122  11.508  1.5497  1.4673  0.0944
13288SOL     OW48641   6.096   0.480   0.314 -0.2348  0.3819 -0.0938
13288SOL    HW148642   6.063   0.392   0.333 -0.8342  0.4774 -0.6612
13288SOL    HW248643   6.156   0.468   0.241 -2.4376  0.7744 -2.0873
13289SOL     OW48644   3.170   4.759   7.623  1.0130 -0.4247  0.2917
13289SOL    HW148645   3.182   4.675   7.579 -1.8380 -0.7119 -0.1361
13289SOL    HW248646   3.138   4.817   7.554 -1.3649 -0.2587  1.4512
13290SOL     OW48647   3.347   3.752  12.418  0.4164 -0.3181 -0.2483
13290SOL    HW148648   3.300   3.675  12.450 -0.8917  0.4550 -0.2297
13290SOL    HW248649   3.431   3.749  12.463 -1.7112  1.3953  4.5237
13291SOL     OW48650   4.387   6.990   8.149 -0.6162  0.0844  0.1507
13291SOL    HW148651   4.386   6.931   8.224 -0.0975 -0.6118 -0.3767
13291SOL    HW248652   4.472   7.033   8.153 -0.4149 -0.2632 -0.2616
13292SOL     OW48653   6.931   5.473  10.844 -0.1252 -0.0148 -0.3666
13292SOL    HW148654   7.015   5.518  10.856 -0.2019 -0.0544  0.3705
13292SOL    HW248655   6.881   5.531  10.787 -1.2430  2.2746  2.6737
13293SOL     OW48656  12.418   9.378   1.043 -0.2109  0.3264  0.6521
13293SOL    HW148657  12.477   9.443   1.081 -0.9227 -0.2842  2.9866
13293SOL    HW248658  12.452   9.294   1.074 -0.1794 -0.3259 -1.0687
13294SOL     OW48659  12.253   4.554   0.650  0.0947 -0.3199  0.8120
13294SOL    HW148660  12.207   4.482   0.608 -0.2790  0.4354 -0.1148
13294SOL    HW248661  12.219   4.555   0.740 -1.0767 -0.3164  0.3892
13295SOL     OW48662   0.016   7.130   7.984  0.3174 -0.0875 -0.1921
13295SOL    HW148663   0.015   7.044   8.026  0.9168  0.9882  2.1870
13295SOL    HW248664  -0.063   7.173   8.015  0.8120  0.7618 -0.0619
13296SOL     OW48665   7.688  12.083   5.648  0.3971 -0.4475 -0.0185
13296SOL    HW148666   7.675  12.152   5.583  0.9328  0.4231  0.7778
13296SOL    HW248667   7.775  12.047   5.626  0.5156 -0.2510  0.1252
13297SOL     OW48668   4.030   7.771   4.454  0.2161 -0.2817  0.0843
13297SOL    HW148669   4.013   7.823   4.533 -1.6628 -1.4720  0.5391
13297SOL    HW248670   4.124   7.781   4.438 -0.0723  3.7682 -0.2739
13298SOL     OW48671   8.394   1.828  11.920  0.5636  0.1107  0.9459
13298SOL    HW148672   8.363   1.737  11.919  0.5702  0.1015  1.6025
13298SOL    HW248673   8.479   1.824  11.876 -0.3482  0.1500 -0.9460
13299SOL     OW48674   5.421   8.963   7.038 -0.1364 -0.2531 -0.4036
13299SOL    HW148675   5.480   8.999   7.103 -1.1926  0.0676  0.4065
13299SOL    HW248676   5.447   9.005   6.956 -0.2017  1.0110  0.2015
13300SOL     OW48677  12.251  12.149   3.070 -0.0381 -0.0020  0.0247
13300SOL    HW148678  12.211  12.153   3.157  1.6510 -0.2693  0.8700
13300SOL    HW248679  12.345  12.136   3.088  0.2655 -0.7303 -1.8511
13301SOL     OW48680  10.728   3.755   4.125 -0.3182  0.3305  0.0573
13301SOL    HW148681  10.806   3.765   4.070 -1.1559  1.8180 -0.9503
13301SOL    HW248682  10.743   3.815   4.198  0.1463 -0.5550  0.7096
13302SOL     OW48683  12.590   9.194   6.515  0.2207  0.6818  0.0095
13302SOL    HW148684  12.504   9.236   6.512 -0.9111 -1.3745  1.6103
13302SOL    HW248685  12.642   9.249   6.574 -0.0783  1.7040 -0.6473
13303SOL     OW48686   1.125   0.689   9.461 -0.5388 -0.2204  0.2010
13303SOL    HW148687   1.193   0.635   9.502 -0.1033  0.9942  1.1390
13303SOL    HW248688   1.170   0.739   9.393 -0.7615 -0.3627 -0.0552
13304SOL     OW48689   6.669   6.937   1.592 -0.6739  0.3987 -0.2797
13304SOL    HW148690   6.625   6.956   1.674 -1.3742 -1.3595 -0.2044
13304SOL    HW248691   6.702   6.847   1.602 -1.9227 -0.3660 -2.3506
13305SOL     OW48692   2.737   0.045   8.826  0.7327 -0.4971 -0.5945
13305SOL    HW148693   2.766  -0.033   8.778  1.1857  0.3502 -1.7425
13305SOL    HW248694   2.743   0.116   8.762  1.0804  0.6278  0.6499
13306SOL     OW48695   1.801   3.724   8.772  0.0573 -0.3133  0.0776
13306SOL    HW148696   1.751   3.689   8.845  0.2401  1.5259  1.1412
13306SOL    HW248697   1.737   3.772   8.719  0.0679 -0.9888 -0.5666
13307SOL     OW48698   5.083   0.850   8.746  0.3310  0.4587 -0.6333
13307SOL    HW148699   5.142   0.800   8.802  0.4363  1.5390  0.2711
13307SOL    HW248700   5.127   0.854   8.662  0.8322 -0.0299 -0.4023
13308SOL     OW48701   0.729   1.694   9.691  0.1864 -0.1819 -0.1592
13308SOL    HW148702   0.675   1.764   9.655 -0.1397  0.6300  1.7449
13308SOL    HW248703   0.817   1.713   9.660  0.1306  1.2159  0.4397
13309SOL     OW48704   1.068   7.183   0.540  0.1091 -0.5904 -0.4641
13309SOL    HW148705   1.089   7.264   0.493  1.8975 -1.6642 -1.6207
13309SOL    HW248706   1.149   7.157   0.582 -0.4930 -1.6738  0.0864
13310SOL     OW48707   7.381   0.378  12.266 -0.8019  0.5908  0.5269
13310SOL    HW148708   7.440   0.338  12.330 -0.6292  1.0696  0.6765
13310SOL    HW248709   7.411   0.344  12.182  0.3890  1.6366  0.4975
13311SOL     OW48710   0.255   5.747   9.797 -0.1734  0.5847  0.1367
13311SOL    HW148711   0.238   5.685   9.868 -0.6724  0.5213 -0.0363
13311SOL    HW248712   0.265   5.831   9.841 -2.4414  0.9068  0.1403
13312SOL     OW48713   1.663  10.697  12.223 -0.3095  0.1557 -0.8621
13312SOL    HW148714   1.607  10.767  12.191  1.4508  1.2227 -1.8025
13312SOL    HW248715   1.681  10.720  12.315  1.5890  1.9701 -1.5960
13313SOL     OW48716   7.884   1.016  12.023  0.1113 -0.7350  0.7085
13313SOL    HW148717   7.830   1.095  12.019 -0.4830 -1.1763 -0.4279
13313SOL    HW248718   7.972   1.047  12.001  0.4909  0.0737  3.0802
13314SOL     OW48719   3.982   3.578   6.032  0.2310 -0.0736 -0.3595
13314SOL    HW148720   3.914   3.646   6.034 -0.0395 -0.3521  0.2886
13314SOL    HW248721   3.982   3.542   6.121  1.1228 -0.1866 -0.4027
13315SOL     OW48722   2.035   4.215   2.004 -0.0919 -0.5134  0.1501
13315SOL    HW148723   2.063   4.297   2.046 -1.9667  0.2209  0.0900
13315SOL    HW248724   2.070   4.220   1.915  0.4555 -0.1410  0.3828
13316SOL     OW48725   7.722   1.580   5.360  0.7814  0.3764  0.1796
13316SOL    HW148726   7.816   1.598   5.347  1.4874 -2.9101 -0.1627
13316SOL    HW248727   7.699   1.521   5.288 -1.8175  1.6953 -0.1852
13317SOL     OW48728  12.415   5.769   4.787 -0.2834 -0.1276  0.1306
13317SOL    HW148729  12.409   5.674   4.800  0.5897 -0.2024  0.0230
13317SOL    HW248730  12.329   5.802   4.813 -1.2504 -1.1347 -1.5854
13318SOL     OW48731   6.727   6.415   4.260  0.2897  0.0503  0.0487
13318SOL    HW148732   6.711   6.508   4.276  0.1169 -0.0755  0.6350
13318SOL    HW248733   6.818   6.401   4.286  0.7611  0.3409 -1.3676
13319SOL     OW48734   6.593  12.301   5.489 -0.0120 -0.3658 -0.4876
13319SOL    HW148735   6.614  12.336   5.575  0.7133  0.8552 -1.1470
13319SOL    HW248736   6.533  12.365   5.450 -0.0975 -0.7558 -1.0172
13320SOL     OW48737  12.305   1.580   7.508 -0.4437  0.0761  0.0792
13320SOL    HW148738  12.293   1.512   7.442  1.0922  0.4415 -0.6379
13320SOL    HW248739  12.350   1.535   7.581  0.9737  0.3627 -0.5757
13321SOL     OW48740   2.822   0.068   2.792 -0.6090  0.9742  0.3504
13321SOL    HW148741   2.786   0.100   2.710 -0.5649  2.0170  0.7240
13321SOL    HW248742   2.758   0.002   2.821 -2.4361  2.9534  1.1175
13322SOL     OW48743   7.311   8.183  10.389 -0.4724 -0.3319 -0.1622
13322SOL    HW148744   7.267   8.209  10.471  0.7744 -0.3414  0.5328
13322SOL    HW248745   7.267   8.102  10.364 -0.4042 -0.7167  0.8956
13323SOL     OW48746   8.422   7.991   2.272 -0.7008 -0.1257  0.1294
13323SOL    HW148747   8.423   7.906   2.317 -2.0365 -0.5829 -0.6468
13323SOL    HW248748   8.434   8.055   2.341 -1.0365 -0.8885  0.9129
13324SOL     OW48749   7.007   7.756   8.207 -0.2773  0.0621  0.1186
13324SOL    HW148750   7.041   7.822   8.146  0.7817 -0.2851  0.3023
13324SOL    HW248751   6.938   7.711   8.159  0.6435 -0.3099 -0.9040
13325SOL     OW48752   5.322   2.712   0.991  0.0775 -0.3345 -0.2692
13325SOL    HW148753   5.383   2.682   1.059  0.2750  1.0328  0.1888
13325SOL    HW248754   5.314   2.637   0.932  3.3932 -0.1145 -1.1927
13326SOL     OW48755   9.029   0.581   8.381  0.3696 -0.0238 -0.2015
13326SOL    HW148756   8.988   0.495   8.369  0.6745 -0.1661 -0.2289
13326SOL    HW248757   9.122   0.562   8.389  0.5202  0.3559 -0.9071
13327SOL     OW48758  12.524   5.089  10.995  0.1447  0.1122  0.4024
13327SOL    HW148759  12.565   5.175  10.985  0.9098 -0.2562  0.3310
13327SOL    HW248760  12.561   5.055  11.077 -0.0874 -0.1882  0.3804
13328SOL     OW48761   6.336   8.046  12.383 -0.0593 -0.4932  0.2496
13328SOL    HW148762   6.422   8.065  12.346  0.0241 -1.7338 -0.2636
13328SOL    HW248763   6.330   8.101  12.461  0.1406  1.5077 -1.0725
13329SOL     OW48764   6.199   0.399   3.943  0.9547 -0.3559  0.5381
13329SOL    HW148765   6.172   0.467   4.006  0.3194  0.2120 -0.3309
13329SOL    HW248766   6.268   0.441   3.892  1.0149 -0.5932  0.4282
13330SOL     OW48767   5.036   3.360   8.837 -0.4388  0.5231  0.1893
13330SOL    HW148768   5.058   3.406   8.919 -1.4748  0.6860  0.3900
13330SOL    HW248769   5.078   3.412   8.769  1.8743 -0.5356  0.6979
13331SOL     OW48770   0.877  10.134   9.220 -0.1606 -0.2983  0.3188
13331SOL    HW148771   0.818  10.073   9.264 -1.5563  1.0312  0.3954
13331SOL    HW248772   0.902  10.196   9.289  1.0528 -0.6404  0.1956
13332SOL     OW48773  10.052  10.977   0.534 -0.0283  0.3869 -0.0205
13332SOL    HW148774  10.059  10.902   0.594 -0.6436  0.8993  0.7153
13332SOL    HW248775  10.059  11.054   0.591 -1.5817  0.8922 -0.4429
13333SOL     OW48776  11.609   3.366   7.237  0.3879 -0.3561 -0.0643
13333SOL    HW148777  11.608   3.270   7.239 -2.2286 -0.3962  0.1665
13333SOL    HW248778  11.649   3.391   7.321 -2.6033 -1.3590  1.8174
13334SOL     OW48779   9.732   1.730   7.004 -0.4983 -0.0314  0.1316
13334SOL    HW148780   9.728   1.802   6.942  1.8634  1.6553  1.7623
13334SOL    HW248781   9.797   1.670   6.967  0.0028  0.3617  0.3654
13335SOL     OW48782  11.100   6.713   5.626  0.2882  0.0118 -0.4000
13335SOL    HW148783  11.083   6.759   5.709 -2.2526 -0.2517 -0.7159
13335SOL    HW248784  11.077   6.776   5.558  2.2471  0.1847 -0.9742
13336SOL     OW48785   8.076   6.650   6.283  0.0907 -0.7168  0.9004
13336SOL    HW148786   8.048   6.600   6.206 -0.2153  1.3171 -0.4185
13336SOL    HW248787   8.143   6.596   6.324 -0.9481 -2.6372  0.1853
13337SOL     OW48788   8.978   1.863  10.964  0.1410  0.4561  0.0426
13337SOL    HW148789   8.971   1.908  10.880 -0.6560 -0.7421 -0.5691
13337SOL    HW248790   8.969   1.932  11.029 -1.0826  1.2033 -0.8570
13338SOL     OW48791  11.949   7.588   1.880  0.4787 -0.2440  0.4822
13338SOL    HW148792  11.956   7.500   1.843 -0.9113  0.4769 -1.6502
13338SOL    HW248793  12.040   7.618   1.887  0.8632 -0.1364 -3.2573
13339SOL     OW48794   2.106   0.979  12.299  0.0250 -0.2267  0.4357
13339SOL    HW148795   2.116   0.995  12.205 -0.0005 -1.6102  0.1785
13339SOL    HW248796   2.015   0.950  12.308  0.5104 -1.7967  0.6026
13340SOL     OW48797   7.135   2.130   7.048  0.2163 -0.5257  0.3560
13340SOL    HW148798   7.079   2.086   7.113 -1.0628 -0.5067 -0.6945
13340SOL    HW248799   7.073   2.178   6.992  1.4437  1.1253  0.3564
13341SOL     OW48800   8.461   8.567  11.073  0.0979  0.5151  0.4395
13341SOL    HW148801   8.434   8.565  11.165 -0.4283  0.2281  0.2823
13341SOL    HW248802   8.435   8.654  11.042 -0.6713  0.2391  0.2870
13342SOL     OW48803   2.797   5.197   9.513  0.0356  0.4009  0.9930
13342SOL    HW148804   2.730   5.199   9.582 -0.8664 -0.2472  0.1636
13342SOL    HW248805   2.815   5.103   9.500  1.5857  0.5793  1.6302
13343SOL     OW48806   4.057   5.018  11.676  0.3129 -0.1750  0.1796
13343SOL    HW148807   4.032   5.043  11.765  0.5378  1.6903 -0.2475
13343SOL    HW248808   3.989   5.056  11.620  1.1772  0.3020 -0.5767
13344SOL     OW48809   1.725   6.147   3.395  0.2831  0.6997 -0.2274
13344SOL    HW148810   1.815   6.120   3.378  1.3001  1.4342  3.3617
13344SOL    HW248811   1.718   6.234   3.355  1.3384  0.8612 -0.0849
13345SOL     OW48812  11.989   9.622   9.169 -0.5278  0.4019  0.2006
13345SOL    HW148813  11.984   9.596   9.077  1.2882  3.3184 -0.8723
13345SOL    HW248814  11.904   9.661   9.188 -0.9126 -0.2257 -0.2223
13346SOL     OW48815   5.755   1.860  11.427 -0.6215  0.0901  0.3076
13346SOL    HW148816   5.831   1.835  11.374 -0.7551  0.1359  0.0953
13346SOL    HW248817   5.743   1.953  11.410 -0.3016  0.2409  0.8804
13347SOL     OW48818   9.651   2.301   2.657  0.4769  0.5064  0.3131
13347SOL    HW148819   9.645   2.381   2.709 -1.8358 -0.4641  1.6966
13347SOL    HW248820   9.692   2.237   2.715  0.0576  0.0477  0.1155
13348SOL     OW48821   0.605   3.948   4.845 -0.4693 -0.0597 -0.5195
13348SOL    HW148822   0.596   4.042   4.827 -1.3422  0.2984  1.4700
13348SOL    HW248823   0.529   3.909   4.802 -1.4324  0.4984  0.6090
13349SOL     OW48824   8.556   0.622   3.763 -0.0210 -0.3414 -0.1319
13349SOL    HW148825   8.557   0.539   3.810 -2.4501 -2.1393 -2.8699
13349SOL    HW248826   8.467   0.655   3.774  0.0768  0.4003 -1.3522
13350SOL     OW48827   0.449   5.587   1.416 -0.8200  0.2385  0.1527
13350SOL    HW148828   0.497   5.639   1.352 -0.1746  0.7091  1.0076
13350SOL    HW248829   0.359   5.617   1.409 -1.0470 -0.7233 -1.5352
13351SOL     OW48830   7.791   8.335   1.628  0.0070 -0.2449 -0.4270
13351SOL    HW148831   7.728   8.329   1.700  0.0102  0.4727 -0.3612
13351SOL    HW248832   7.737   8.333   1.549  0.1186 -3.2195 -0.5198
13352SOL     OW48833   4.667   1.443   2.676 -0.5119 -0.1607  0.8008
13352SOL    HW148834   4.645   1.495   2.753  1.8022  1.5774  0.4241
13352SOL    HW248835   4.673   1.507   2.605 -1.4190 -1.5470 -0.5905
13353SOL     OW48836   4.364   2.206  10.105  0.4267 -0.1437  0.1577
13353SOL    HW148837   4.278   2.167  10.089  0.0835  0.4223  0.5758
13353SOL    HW248838   4.355   2.248  10.191  1.3249 -0.6471  0.5172
13354SOL     OW48839   6.786   9.476   7.406 -0.6789  0.3385  0.7015
13354SOL    HW148840   6.850   9.544   7.386  1.0227 -0.0084  4.2152
13354SOL    HW248841   6.815   9.401   7.354 -0.0882  1.0737 -0.0616
13355SOL     OW48842   6.843   4.931   1.441 -0.4172  0.7580 -0.6760
13355SOL    HW148843   6.760   4.885   1.430  0.0859  0.0068 -1.5591
13355SOL    HW248844   6.909   4.868   1.413  0.9121 -0.2329  3.8867
13356SOL     OW48845   9.251  12.479   0.971 -0.2259 -0.4506 -0.0930
13356SOL    HW148846   9.346  12.465   0.972 -0.2354 -0.5167 -0.0252
13356SOL    HW248847   9.215  12.396   0.939 -0.2579 -0.4069 -0.1696
13357SOL     OW48848   3.180  11.545   5.437 -0.2435 -0.3983 -0.3239
13357SOL    HW148849   3.215  11.560   5.349 -0.5038  0.1091 -0.3472
13357SOL    HW248850   3.216  11.461   5.463 -0.5625 -0.7901 -1.1154
13358SOL     OW48851  11.070  10.164  10.660 -0.3554 -0.1197 -0.0167
13358SOL    HW148852  11.147  10.111  10.641  0.1164 -0.3316  2.1527
13358SOL    HW248853  11.103  10.231  10.721 -1.4950  1.0056 -0.6053
13359SOL     OW48854  10.199   4.158   2.759 -0.0969  0.1552  0.0784
13359SOL    HW148855  10.231   4.144   2.670 -0.0746  1.7786 -0.1934
13359SOL    HW248856  10.109   4.189   2.747 -0.6725 -1.1847  0.7081
13360SOL     OW48857   2.056   9.829  11.058  0.2559 -0.3298 -0.0055
13360SOL    HW148858   2.088   9.912  11.092 -0.2314  0.2854 -1.0082
13360SOL    HW248859   2.036   9.847  10.966  0.2558 -1.5861 -0.2693
13361SOL     OW48860  10.831   2.717   1.366  0.2007  0.4349  0.4090
13361SOL    HW148861  10.739   2.710   1.390 -0.0197  1.1164 -0.2245
13361SOL    HW248862  10.874   2.750   1.445 -0.1219  0.3063  0.6403
13362SOL     OW48863   7.349   7.495   9.421  0.4399  0.0234  0.0469
13362SOL    HW148864   7.257   7.473   9.409  0.3457  0.9491 -1.1501
13362SOL    HW248865   7.396   7.437   9.361  0.4158  1.0929 -1.0568
13363SOL     OW48866   1.727   1.314   1.616 -0.1743 -1.0040 -0.1306
13363SOL    HW148867   1.690   1.270   1.539 -1.1877  0.3271 -0.4401
13363SOL    HW248868   1.658   1.306   1.682  0.2194 -1.1112  0.2661
13364SOL     OW48869   7.281   5.181   5.695  0.0285 -0.3593  0.1781
13364SOL    HW148870   7.370   5.194   5.662  0.0047 -0.4498  0.0773
13364SOL    HW248871   7.245   5.111   5.640  0.8539 -2.3396  2.0265
13365SOL     OW48872  10.695   6.474   3.618 -0.2591 -0.5693 -0.4952
13365SOL    HW148873  10.603   6.497   3.610 -0.2200  0.2950  1.1162
13365SOL    HW248874  10.696   6.379   3.623 -1.0228 -0.6055 -0.9043
13366SOL     OW48875   7.842   8.773   3.867  0.1084  0.3482  0.1051
13366SOL    HW148876   7.903   8.699   3.869 -0.5966 -0.2551  2.2753
13366SOL    HW248877   7.827   8.794   3.959 -2.2248  1.0942 -0.3910
13367SOL     OW48878  11.172   2.797   9.024  0.2037  0.3296 -0.3112
13367SOL    HW148879  11.139   2.768   8.939 -0.9116  0.4113  0.0790
13367SOL    HW248880  11.240   2.860   9.003  1.7620 -1.5459 -1.1621
13368SOL     OW48881   8.869   2.402  10.021 -0.2204  0.1958 -0.2148
13368SOL    HW148882   8.783   2.395  10.062  0.9302  0.3710  2.4352
13368SOL    HW248883   8.907   2.481  10.059  0.6897  0.8092 -2.2634
13369SOL     OW48884   5.107  12.094   1.938 -0.5922  0.2600 -0.0462
13369SOL    HW148885   5.032  12.152   1.922  0.4706  1.9524  0.7172
13369SOL    HW248886   5.069  12.007   1.945 -3.0148  1.3628  3.5169
13370SOL     OW48887   2.574  10.927   6.230 -0.3244  0.2510  0.5056
13370SOL    HW148888   2.502  10.979   6.196 -0.2807 -0.6773 -1.1502
13370SOL    HW248889   2.643  10.990   6.248 -0.8105  0.9318  0.0380
13371SOL     OW48890   1.410   0.919  10.128 -0.8099 -0.3070  0.4176
13371SOL    HW148891   1.342   0.891  10.188 -1.4033  0.2619  0.0222
13371SOL    HW248892   1.397   1.014  10.119 -0.6315 -0.3558 -0.4802
13372SOL     OW48893   5.198  10.754   3.116  0.3067 -0.5342  0.0034
13372SOL    HW148894   5.115  10.801   3.128  0.6198  0.4083 -1.3577
13372SOL    HW248895   5.172  10.665   3.094 -0.3230 -0.5117  0.6102
13373SOL     OW48896   5.620   0.296   0.362  0.4253 -0.0929 -0.1909
13373SOL    HW148897   5.526   0.311   0.352  0.2239  0.9124  2.4416
13373SOL    HW248898   5.626   0.223   0.423  1.3421  0.0423 -0.1040
13374SOL     OW48899   2.458   5.642   4.353  0.1911  0.1032  0.3721
13374SOL    HW148900   2.546   5.622   4.322  0.2503  0.2344  0.4575
13374SOL    HW248901   2.422   5.557   4.379  0.4974  0.1204  0.8707
13375SOL     OW48902   6.203   7.692   6.998 -0.9620  0.2997 -0.1050
13375SOL    HW148903   6.263   7.635   6.949 -1.5357 -0.8566  0.4812
13375SOL    HW248904   6.131   7.709   6.938  0.5015  2.8095 -1.3035
13376SOL     OW48905   6.010   7.477  10.577 -0.2484  0.3531  0.5833
13376SOL    HW148906   5.981   7.408  10.636 -2.7890 -0.2593 -1.2044
13376SOL    HW248907   6.103   7.460  10.564 -0.2742 -1.2309  2.0718
13377SOL     OW48908   3.226  10.319  10.228 -0.3300 -0.4325 -0.5540
13377SOL    HW148909   3.224  10.330  10.133 -1.8232 -2.8783 -0.9006
13377SOL    HW248910   3.166  10.246  10.244  1.8078 -1.7895  2.0150
13378SOL     OW48911   5.367  10.565   2.645  0.0398 -0.2918  0.3146
13378SOL    HW148912   5.352  10.503   2.716 -0.4762  1.4034  1.7609
13378SOL    HW248913   5.404  10.642   2.688 -2.8782  1.8844 -0.6963
13379SOL     OW48914   0.157  10.932   1.365  0.1058 -0.3357 -0.2823
13379SOL    HW148915   0.155  11.028   1.357  0.7899 -0.3343 -0.5517
13379SOL    HW248916   0.125  10.915   1.454 -0.6604  0.1001 -0.4669
13380SOL     OW48917  11.145   9.600   8.522  0.2687 -0.3579  0.7108
13380SOL    HW148918  11.175   9.656   8.450 -0.3376 -0.1910  0.5774
13380SOL    HW248919  11.225   9.568   8.563  0.6356 -0.7904 -0.3043
13381SOL     OW48920   7.357   6.536   9.279 -0.2406  0.5322 -0.6476
13381SOL    HW148921   7.449   6.513   9.266 -0.0087  1.7389 -1.3311
13381SOL    HW248922   7.337   6.505   9.368  0.9430  0.6149 -0.3305
13382SOL     OW48923   0.829   8.490   9.724 -0.6307  0.5313  0.5956
13382SOL    HW148924   0.783   8.433   9.786  1.8575  0.8264  2.8829
13382SOL    HW248925   0.859   8.431   9.655 -1.1938 -0.2805  1.0305
13383SOL     OW48926  10.629   3.885   9.256 -0.0906  0.8814 -0.2366
13383SOL    HW148927  10.683   3.964   9.258  1.6012 -0.2353  1.4434
13383SOL    HW248928  10.677   3.826   9.198 -1.0139  0.8466 -0.9766
13384SOL     OW48929   0.358   0.728   3.628  0.0915 -0.0792 -0.1704
13384SOL    HW148930   0.379   0.746   3.719 -0.0561 -0.2735 -0.0983
13384SOL    HW248931   0.262   0.729   3.625  0.0961 -0.0073 -0.3366
13385SOL     OW48932   0.321   5.242   0.764  0.8224  0.5017 -0.5236
13385SOL    HW148933   0.374   5.320   0.781  1.0303  0.1748  0.3458
13385SOL    HW248934   0.263   5.269   0.693 -0.8175  2.2857  1.3554
13386SOL     OW48935   7.584   1.718   6.687  0.0011 -0.2008  0.1274
13386SOL    HW148936   7.503   1.698   6.641  0.4116 -1.9682  0.1124
13386SOL    HW248937   7.614   1.634   6.721  1.0803  0.6508  1.3804
13387SOL     OW48938   4.535  11.455  10.672 -0.2153  0.4253 -0.3258
13387SOL    HW148939   4.575  11.492  10.593  0.6287 -0.4020 -0.2923
13387SOL    HW248940   4.504  11.369  10.645  0.4974 -0.0549  0.3607
13388SOL     OW48941  11.309  11.731   3.961  0.0596  0.0950  0.6814
13388SOL    HW148942  11.264  11.724   4.045  1.1736 -0.8799  1.2276
13388SOL    HW248943  11.390  11.682   3.973  1.0194  1.3255 -0.4394
13389SOL     OW48944   8.837   4.717   7.079 -0.2125 -0.1741  0.1937
13389SOL    HW148945   8.798   4.652   7.137  1.9648  0.3831  2.4706
13389SOL    HW248946   8.918   4.676   7.049 -0.0360  0.5509 -0.3439
13390SOL     OW48947   1.338   7.679   2.751  0.4547 -0.2183 -0.3065
13390SOL    HW148948   1.311   7.623   2.679  0.7115  0.3501 -0.8491
13390SOL    HW248949   1.428   7.652   2.770 -0.3743 -2.0973  1.4867
13391SOL     OW48950   3.151   3.747  10.041  0.2246 -0.9300  0.0499
13391SOL    HW148951   3.220   3.813  10.040  2.0814 -2.7241  1.1707
13391SOL    HW248952   3.132   3.730   9.949  0.2526  0.5990 -0.2553
13392SOL     OW48953  12.390   0.783   8.622 -0.0146 -0.3289  0.2459
13392SOL    HW148954  12.313   0.748   8.577  0.3027  0.2731 -0.8023
13392SOL    HW248955  12.444   0.821   8.552  0.7665  0.1355  1.0748
13393SOL     OW48956   7.811   9.083   4.666 -0.3595 -0.3832  0.5913
13393SOL    HW148957   7.778   9.019   4.604  1.4767  0.9671 -2.0020
13393SOL    HW248958   7.904   9.089   4.646 -0.2564  2.2096  1.4986
13394SOL     OW48959   9.911   7.801   4.483  0.1681 -0.0629  0.1167
13394SOL    HW148960   9.974   7.760   4.543  2.0809  1.3649 -0.8223
13394SOL    HW248961   9.922   7.753   4.401  0.3940  0.5316 -0.2002
13395SOL     OW48962   6.102   8.845   1.038  0.6179  0.5712  0.3832
13395SOL    HW148963   6.138   8.810   1.119 -0.8661 -0.4075  0.6548
13395SOL    HW248964   6.062   8.928   1.064  3.6088  2.3539 -0.1534
13396SOL     OW48965  12.559  11.708   0.879 -0.6549 -0.0187 -0.7039
13396SOL    HW148966  12.615  11.707   0.802 -0.2964 -0.2389 -0.4426
13396SOL    HW248967  12.620  11.713   0.953 -1.0266  1.5301 -0.4722
13397SOL     OW48968  11.957   0.094  11.534  0.1038 -0.4785 -0.7325
13397SOL    HW148969  11.887   0.094  11.469  1.3932  1.6701 -2.2652
13397SOL    HW248970  12.006   0.175  11.517  2.2845 -1.3121  1.0018
13398SOL     OW48971   9.102   3.013   8.910  0.4437  0.1571 -0.1352
13398SOL    HW148972   9.184   2.965   8.908  0.4408 -0.0913  2.2543
13398SOL    HW248973   9.040   2.952   8.951 -1.2124  0.0121 -2.6410
13399SOL     OW48974   0.304   4.377   1.555  0.2124 -0.4509 -0.2835
13399SOL    HW148975   0.253   4.355   1.632 -0.9043  2.4339 -0.0895
13399SOL    HW248976   0.241   4.378   1.483  0.3056  1.2357 -0.3872
13400SOL     OW48977   3.461   8.506   6.798  0.9102  0.2852 -0.0794
13400SOL    HW148978   3.407   8.564   6.852 -0.9732 -0.4424 -1.0885
13400SOL    HW248979   3.485   8.558   6.722  2.3944  0.8612  0.7232
13401SOL     OW48980   9.242   6.634  12.494  0.4471  0.1634  1.0666
13401SOL    HW148981   9.164   6.619  12.547  1.2225 -1.7751  1.7547
13401SOL    HW248982   9.209   6.678  12.415 -1.4272 -0.9995  1.1374
13402SOL     OW48983   2.657  10.078   6.407  0.1295  0.0009 -0.0105
13402SOL    HW148984   2.578  10.024   6.415  1.2221 -1.4536  1.9098
13402SOL    HW248985   2.684  10.094   6.498  1.2857  1.6413 -0.5975
13403SOL     OW48986   7.855  11.400   1.044  0.2269 -0.1182 -0.3291
13403SOL    HW148987   7.818  11.410   1.132  0.3643 -1.2750 -0.1328
13403SOL    HW248988   7.943  11.366   1.058  0.8669  1.2250 -0.8657
13404SOL     OW48989   7.046   2.099   5.612  0.7183  0.4061  0.4709
13404SOL    HW148990   7.065   2.008   5.590 -2.0071 -0.2647  0.5579
13404SOL    HW248991   7.128   2.146   5.595  1.7123 -1.7778 -1.1317
13405SOL     OW48992   7.849   4.736   7.391 -0.0785 -0.4041 -0.1757
13405SOL    HW148993   7.940   4.734   7.418 -0.0908  0.8768  0.0298
13405SOL    HW248994   7.851   4.764   7.299 -0.3150  1.1815  0.2751
13406SOL     OW48995   4.917   5.230   8.465  0.1183  0.0621 -0.3511
13406SOL    HW148996   4.903   5.318   8.498 -1.1916 -0.5448  0.7986
13406SOL    HW248997   5.011   5.216   8.471  0.6122  2.0518 -2.3924
13407SOL     OW48998  12.242   3.028   7.829  0.3445 -0.0382 -0.5311
13407SOL    HW148999  12.233   2.938   7.800 -0.4562 -0.5828  1.2815
13407SOL    HW249000  12.328   3.032   7.871  0.2845 -0.0074 -0.4103
13408SOL     OW49001  11.056   6.145   2.507 -0.8388  0.5519 -0.1209
13408SOL    HW149002  11.090   6.100   2.430 -1.9500 -2.2483  0.8972
13408SOL    HW249003  11.015   6.225   2.472 -0.2708 -0.0324 -2.2585
13409SOL     OW49004   6.248   8.797  11.132 -0.8884  0.3297  0.4230
13409SOL    HW149005   6.265   8.846  11.212  2.2715  1.0050 -0.5046
13409SOL    HW249006   6.289   8.849  11.063 -0.1190 -2.0807 -1.0524
13410SOL     OW49007  11.148   0.685   6.341  0.1953 -0.3926  0.8385
13410SOL    HW149008  11.136   0.647   6.254 -1.4261 -0.5717  1.0989
13410SOL    HW249009  11.180   0.774   6.324 -0.3260 -0.3481  0.0336
13411SOL     OW49010   5.117  10.856   8.420 -0.0388 -0.2456 -0.5778
13411SOL    HW149011   5.090  10.854   8.512  2.0581 -2.0275  0.0889
13411SOL    HW249012   5.182  10.927   8.416 -0.9158  0.5517 -0.9617
13412SOL     OW49013   7.892   7.026   9.975 -0.2404  0.2097  0.3587
13412SOL    HW149014   7.821   7.014   9.913 -0.4059 -1.1948  0.7764
13412SOL    HW249015   7.851   7.015  10.061  0.3422  0.1423  0.6369
13413SOL     OW49016   8.754   3.606   2.059 -0.7558  0.0257 -0.0504
13413SOL    HW149017   8.779   3.626   2.149 -0.3893 -0.7163  0.0240
13413SOL    HW249018   8.668   3.564   2.067 -0.7921  0.0974 -0.0610
13414SOL     OW49019   6.712   3.292   5.130 -0.3634 -1.0555 -0.3219
13414SOL    HW149020   6.729   3.198   5.135  0.2035 -0.9148  0.5956
13414SOL    HW249021   6.770   3.330   5.196  1.6021  0.2558 -2.6508
13415SOL     OW49022   7.478   5.045   8.718  0.1893 -0.3210 -0.1306
13415SOL    HW149023   7.401   5.048   8.774  0.8869  0.2809  0.8345
13415SOL    HW249024   7.453   5.092   8.639  0.1606  1.6299  0.9695
13416SOL     OW49025   0.277   2.502   4.231 -0.1244 -0.0247  0.1029
13416SOL    HW149026   0.218   2.441   4.276  0.4659 -0.8150 -0.1622
13416SOL    HW249027   0.261   2.586   4.273  0.3929 -0.7225  1.8401
13417SOL     OW49028  11.210   4.382   6.981  0.5253 -0.2955 -0.0383
13417SOL    HW149029  11.139   4.356   7.040  1.1405  1.0700  1.3726
13417SOL    HW249030  11.265   4.440   7.034  0.9775  1.1962 -2.0331
13418SOL     OW49031   2.619   8.762   7.359 -0.4986  0.2823  0.2297
13418SOL    HW149032   2.544   8.766   7.418 -0.7193 -1.5104  0.1168
13418SOL    HW249033   2.689   8.722   7.411 -0.2178  0.1527 -0.2387
13419SOL     OW49034   2.355   1.033   2.426 -0.8350 -0.3022  0.6747
13419SOL    HW149035   2.415   1.097   2.387 -1.2344 -0.2764  0.0890
13419SOL    HW249036   2.287   1.087   2.468 -0.7854 -0.3407  0.8068
13420SOL     OW49037   0.757   9.239   7.889  0.1750  0.0751  0.2963
13420SOL    HW149038   0.739   9.160   7.939 -1.6442  1.0649  1.3371
13420SOL    HW249039   0.809   9.294   7.948 -0.6732  0.6349  0.5339
13421SOL     OW49040   1.306   6.255   4.295 -0.3694  0.5072 -0.7913
13421SOL    HW149041   1.344   6.334   4.333 -0.7108 -0.8433  2.7233
13421SOL    HW249042   1.381   6.197   4.283 -0.6274 -0.6225  2.1767
13422SOL     OW49043   3.001   6.090   2.106  0.2334 -0.2192  0.2414
13422SOL    HW149044   3.053   6.154   2.057 -0.6030 -0.0643 -0.4646
13422SOL    HW249045   2.988   6.017   2.045  0.2100 -0.5661  0.6525
13423SOL     OW49046   2.210   9.371   7.799 -0.1413  0.0793 -0.1854
13423SOL    HW149047   2.237   9.459   7.825  0.5212 -0.5920  1.5868
13423SOL    HW249048   2.117   9.367   7.818  0.1609 -0.1139  1.4366
13424SOL     OW49049  10.467   8.513  12.377 -0.0130 -0.5789  0.3283
13424SOL    HW149050  10.372   8.505  12.367  0.0640 -0.2866 -0.7938
13424SOL    HW249051  10.496   8.425  12.397 -0.4006 -0.9318 -0.5697
13425SOL     OW49052  10.270   5.270   8.122  0.3052 -0.4933 -0.1126
13425SOL    HW149053  10.336   5.201   8.130 -0.0358 -1.0260 -1.5415
13425SOL    HW249054  10.194   5.236   8.169 -0.1654 -1.5341 -1.5593
13426SOL     OW49055   3.891   9.661  12.340  0.0979  0.3256  0.5562
13426SOL    HW149056   3.832   9.649  12.265  1.0336 -0.7523 -0.0551
13426SOL    HW249057   3.861   9.741  12.382 -0.4634  0.9735 -0.9824
13427SOL     OW49058   7.078   2.878   1.866 -0.2687  0.1821 -0.7148
13427SOL    HW149059   7.095   2.801   1.812  0.4862 -1.0405  1.1830
13427SOL    HW249060   7.047   2.843   1.949  0.1440  1.9182  0.2128
13428SOL     OW49061  10.678   3.579   1.556 -0.3895 -0.1551  0.1005
13428SOL    HW149062  10.660   3.560   1.648 -0.6816 -0.3239  0.0098
13428SOL    HW249063  10.593   3.600   1.518 -0.5344 -1.6974 -0.5020
13429SOL     OW49064   3.081   5.199   3.969  0.2075 -0.3456  0.1831
13429SOL    HW149065   3.141   5.241   4.031  0.4662  1.4135 -1.1824
13429SOL    HW249066   3.033   5.134   4.021  0.3457  1.1324  2.2360
13430SOL     OW49067   7.656   9.011  11.387 -0.0726 -0.2536 -0.3816
13430SOL    HW149068   7.567   9.039  11.405  0.3237 -0.0580  1.3894
13430SOL    HW249069   7.711   9.086  11.409  0.5457 -0.3207 -1.5764
13431SOL     OW49070  10.792   6.861   9.430 -0.6014  0.4247 -0.2265
13431SOL    HW149071  10.737   6.871   9.353  0.6152  2.7922 -0.8687
13431SOL    HW249072  10.800   6.948   9.467  0.9425 -0.2035  1.0834
13432SOL     OW49073   5.416  12.200  12.397 -0.4353 -0.0037 -0.5126
13432SOL    HW149074   5.458  12.269  12.449  0.4104 -0.0104 -1.1664
13432SOL    HW249075   5.402  12.129  12.459  1.2868 -0.3197 -0.4189
13433SOL     OW49076   9.051   2.089   4.968  0.0692 -0.1445 -0.3673
13433SOL    HW149077   9.041   2.004   4.926 -0.4394  0.2072 -0.9750
13433SOL    HW249078   8.963   2.114   4.995  0.3620 -0.2875  0.7902
13434SOL     OW49079   3.988   6.611   0.450  0.1720 -0.1956 -0.6136
13434SOL    HW149080   3.904   6.656   0.457  0.1600 -0.4504  2.3165
13434SOL    HW249081   3.968   6.521   0.476  1.5092  0.0563  1.5269
13435SOL     OW49082   5.811  11.061   8.857  0.2137  0.8166  0.0217
13435SOL    HW149083   5.814  11.033   8.948 -0.3479 -0.0428 -0.2044
13435SOL    HW249084   5.718  11.072   8.838  0.1571 -1.0196 -1.0043
13436SOL     OW49085  11.473   0.514  10.724 -0.2823 -0.0326  0.0597
13436SOL    HW149086  11.463   0.588  10.665 -1.9296 -0.3847 -0.1325
13436SOL    HW249087  11.567   0.511  10.742  0.1129  0.7590 -1.6469
13437SOL     OW49088   5.850   9.056  10.899  0.2031 -0.0888  0.6484
13437SOL    HW149089   5.941   9.082  10.886 -0.0484  1.0998  1.1593
13437SOL    HW249090   5.831   9.082  10.989 -0.4693 -0.8774  0.7426
13438SOL     OW49091   2.892   7.445   0.356  0.2093  0.0332 -0.0649
13438SOL    HW149092   2.919   7.474   0.444  1.7006 -0.5711 -0.2853
13438SOL    HW249093   2.820   7.503   0.333 -1.0486 -0.5802  2.0462
13439SOL     OW49094  11.649   0.304   3.051  0.4411  0.3256 -0.6400
13439SOL    HW149095  11.743   0.305   3.070  0.4912 -1.5660 -0.5433
13439SOL    HW249096  11.617   0.389   3.080  1.7565  0.2169  1.3034
13440SOL     OW49097   2.487   6.154   6.951  0.3543 -0.0298  0.0203
13440SOL    HW149098   2.507   6.248   6.940 -0.8109  0.1353 -0.8510
13440SOL    HW249099   2.417   6.152   7.015 -0.1620 -0.2371 -0.5414
13441SOL     OW49100   0.168   8.296   3.747 -0.2853  0.6180  0.0933
13441SOL    HW149101   0.192   8.361   3.681  0.5838  0.5098  0.2865
13441SOL    HW249102   0.188   8.212   3.706 -0.9087  0.4887  0.0426
13442SOL     OW49103   2.509   1.363   2.956 -0.5689  0.0341  0.0832
13442SOL    HW149104   2.481   1.302   3.024 -0.3373 -1.3926 -1.0635
13442SOL    HW249105   2.463   1.335   2.878 -0.0235  0.9957 -0.6068
13443SOL     OW49106  10.628   0.026   3.955  0.0381 -0.6038 -0.0601
13443SOL    HW149107  10.623   0.017   4.051 -0.2191  0.9796  0.0927
13443SOL    HW249108  10.680   0.105   3.941  0.3845 -1.0314 -1.2465
13444SOL     OW49109   5.985   6.320   7.609  0.1765 -0.1507 -0.7879
13444SOL    HW149110   5.920   6.261   7.572  0.2195 -0.5928 -0.1742
13444SOL    HW249111   6.030   6.268   7.676  0.5040  0.4429 -0.5322
13445SOL     OW49112   2.924  11.041   6.520  0.1627 -0.1356 -0.1186
13445SOL    HW149113   2.842  11.077   6.485 -0.3190  0.4368  1.5002
13445SOL    HW249114   2.965  10.998   6.445 -1.4959 -0.2213 -1.0300
13446SOL     OW49115   4.833  12.415   4.601 -0.1994 -0.0209  0.3203
13446SOL    HW149116   4.837  12.498   4.554 -1.6383  0.5490  1.1277
13446SOL    HW249117   4.831  12.441   4.694 -0.1067 -0.9903  0.5975
13447SOL     OW49118   0.738   6.530   9.328 -0.1612  0.1471  0.2731
13447SOL    HW149119   0.816   6.509   9.379 -0.4675 -0.9546  0.2983
13447SOL    HW249120   0.714   6.618   9.357  0.5779  0.1629  0.8771
13448SOL     OW49121   6.846  12.602  11.871 -0.3085 -0.7560  0.3813
13448SOL    HW149122   6.815  12.522  11.828  0.9444 -0.5113 -1.0861
13448SOL    HW249123   6.861  12.664  11.799 -0.2511  0.4559  1.3884
13449SOL     OW49124   1.757   6.366   8.836 -0.1361 -0.8909 -0.3940
13449SOL    HW149125   1.849   6.342   8.833  0.1048  0.1265 -2.0679
13449SOL    HW249126   1.732   6.353   8.928  2.5685  2.0652  0.9509
13450SOL     OW49127   1.944  12.531   5.281  0.3024 -0.6387 -0.3234
13450SOL    HW149128   2.038  12.539   5.291  0.2030 -0.5618  0.6032
13450SOL    HW249129   1.918  12.609   5.232  0.4854  0.3009  1.0331
13451SOL     OW49130  11.334  12.518  10.160  0.3115  0.2277 -0.3297
13451SOL    HW149131  11.302  12.435  10.125 -0.3446 -0.3135  1.4314
13451SOL    HW249132  11.387  12.494  10.235 -0.1996  1.3974  0.4383
13452SOL     OW49133   3.199   9.923  10.287 -0.0554 -0.0557 -0.0857
13452SOL    HW149134   3.282   9.886  10.258  0.5946  1.1887  0.0815
13452SOL    HW249135   3.208   9.928  10.383  0.1618  1.1048 -0.1452
13453SOL     OW49136   7.170   3.400   1.140 -0.2405  0.3622  0.0899
13453SOL    HW149137   7.193   3.313   1.172 -0.3108  0.5035  0.5205
13453SOL    HW249138   7.196   3.460   1.210  0.7691  0.7944 -0.6124
13454SOL     OW49139  10.314  10.630   1.500  0.0856  0.7714  0.0134
13454SOL    HW149140  10.400  10.669   1.484  0.8106 -0.6692  0.2720
13454SOL    HW249141  10.286  10.667   1.584  0.6362  0.9313  0.1308
13455SOL     OW49142   4.876   0.280   9.656  0.1670  0.4677 -0.2821
13455SOL    HW149143   4.872   0.185   9.664  0.3163  0.2921 -1.9012
13455SOL    HW249144   4.967   0.302   9.678  0.0944  0.2467  0.2288
13456SOL     OW49145   8.487   4.254  11.344 -0.1027  0.4448 -0.5654
13456SOL    HW149146   8.446   4.265  11.429 -0.8337  0.7047 -0.9366
13456SOL    HW249147   8.434   4.188  11.300  0.8304 -0.3700 -0.4797
13457SOL     OW49148  12.076   3.215   8.302 -0.3118  0.2596 -0.2264
13457SOL    HW149149  12.059   3.143   8.242  0.2628  1.3148 -1.7304
13457SOL    HW249150  12.031   3.191   8.383  1.5045 -2.6856  0.0316
13458SOL     OW49151   2.915   2.249   6.938 -0.1527  0.6331  0.2393
13458SOL    HW149152   2.890   2.163   6.903  0.0012  0.2767  0.9792
13458SOL    HW249153   3.006   2.260   6.911 -0.5848  1.1797 -1.0222
13459SOL     OW49154   0.627  11.595   3.661 -0.6487 -0.3732 -0.0663
13459SOL    HW149155   0.721  11.599   3.682 -0.7121 -0.1965  0.1827
13459SOL    HW249156   0.584  11.633   3.737 -0.9492 -0.8463  0.0017
13460SOL     OW49157  11.493   7.307  10.907  0.1225 -0.4397  0.0481
13460SOL    HW149158  11.437   7.357  10.966  0.2174 -1.8601  1.4195
13460SOL    HW249159  11.439   7.234  10.879 -0.2087  0.6421 -2.3899
13461SOL     OW49160   5.989   5.997   5.413  0.4955 -0.4206  0.2066
13461SOL    HW149161   6.051   5.929   5.437 -0.3313 -1.5388 -0.7061
13461SOL    HW249162   5.927   5.954   5.354 -0.6416  0.8712  0.3932
13462SOL     OW49163   3.288  12.019   4.203  0.0744  0.7068  0.1284
13462SOL    HW149164   3.380  12.024   4.229  0.4018 -3.1423  0.3397
13462SOL    HW249165   3.246  11.972   4.275 -1.8144  1.2770 -0.5529
13463SOL     OW49166   4.074   4.120  11.918  0.5195 -0.3580 -0.0608
13463SOL    HW149167   4.058   4.214  11.925 -0.6331 -0.5447  0.0748
13463SOL    HW249168   4.088   4.105  11.824 -1.4419 -0.3304 -0.4073
13464SOL     OW49169   0.637  11.882   2.375  0.4956 -0.3788  0.7555
13464SOL    HW149170   0.584  11.960   2.394 -1.3375 -1.0598 -1.2618
13464SOL    HW249171   0.581  11.809   2.399  0.3931 -1.1218 -1.5447
13465SOL     OW49172   8.100   0.402   4.231  0.0158  0.2066 -0.3543
13465SOL    HW149173   8.047   0.324   4.244 -0.5984  1.0525  3.0223
13465SOL    HW249174   8.036   0.470   4.209  0.3359  0.1886 -1.3844
13466SOL     OW49175   6.368   7.251  11.664 -0.0989 -0.5323 -0.1819
13466SOL    HW149176   6.373   7.305  11.585 -1.6871  0.9257  0.6669
13466SOL    HW249177   6.430   7.180  11.647  0.0797  0.0721 -2.4662
13467SOL     OW49178   3.108   0.024   2.412 -0.5235  0.2383  1.0224
13467SOL    HW149179   3.063  -0.040   2.356 -0.8350 -0.6858  2.2663
13467SOL    HW249180   3.069   0.108   2.388  0.4631  0.1369 -1.2254
13468SOL     OW49181   5.027   8.355   9.795  0.0250  0.1570 -0.1374
13468SOL    HW149182   5.018   8.415   9.722 -0.1336  0.8699  0.4612
13468SOL    HW249183   4.956   8.292   9.784  0.9629 -0.7232 -1.4875
13469SOL     OW49184   4.788   0.538   3.626 -0.2980  0.3120 -0.5557
13469SOL    HW149185   4.829   0.457   3.597 -0.8917 -0.5770  0.9658
13469SOL    HW249186   4.747   0.574   3.548 -1.5122 -1.7651 -0.9411
13470SOL     OW49187  11.266   8.454   2.016 -0.2109 -0.2100  0.2060
13470SOL    HW149188  11.248   8.512   1.941  1.3799 -0.0645 -0.0928
13470SOL    HW249189  11.282   8.514   2.089 -0.1498 -0.3151  0.2790
13471SOL     OW49190   6.016   0.333   5.777 -0.0481  0.0767  0.1925
13471SOL    HW149191   6.078   0.392   5.819 -0.4979  0.3190  0.5277
13471SOL    HW249192   5.981   0.280   5.849  0.4234 -0.6706 -0.1187
13472SOL     OW49193   0.677   0.495   4.767 -0.7032 -0.0345 -0.1873
13472SOL    HW149194   0.633   0.580   4.763 -2.4355 -0.9104 -0.5277
13472SOL    HW249195   0.615   0.437   4.811  0.2594 -1.2393 -0.3595
13473SOL     OW49196  12.463  12.524   1.728  0.6159 -0.0626 -0.1100
13473SOL    HW149197  12.469  12.517   1.632 -1.1166 -1.0122 -0.1801
13473SOL    HW249198  12.552  12.506   1.759  1.0572 -0.3901 -1.4955
13474SOL     OW49199  12.141   9.416   2.259 -0.3430  0.1810  0.1082
13474SOL    HW149200  12.188   9.350   2.312 -0.6926  0.4129  0.7163
13474SOL    HW249201  12.086   9.364   2.201 -0.2255 -0.0754  0.2210
13475SOL     OW49202   5.733  11.896   6.546 -0.9303 -1.0084  0.5775
13475SOL    HW149203   5.822  11.880   6.516 -0.1517  0.7907  1.7552
13475SOL    HW249204   5.722  11.840   6.622 -1.3463 -2.2730 -0.3746
13476SOL     OW49205   0.895  10.473   8.155 -0.1090 -0.3037  0.0318
13476SOL    HW149206   0.846  10.548   8.189 -0.1568 -0.9852  1.5620
13476SOL    HW249207   0.980  10.509   8.129 -1.1579  0.7883 -2.1220
13477SOL     OW49208  11.991   6.669   8.307  0.3822  0.2683  0.0921
13477SOL    HW149209  11.988   6.735   8.237 -1.0071 -1.0522 -1.1784
13477SOL    HW249210  11.945   6.710   8.380  0.6921  1.1857 -0.2026
13478SOL     OW49211  10.883   0.928   9.475  0.0244  0.5187  0.0920
13478SOL    HW149212  10.907   0.872   9.402  1.3204  0.6310  0.4190
13478SOL    HW249213  10.787   0.927   9.475  0.0171 -0.2589 -0.9953
13479SOL     OW49214   2.591   9.618   6.598 -0.4637 -0.3504 -0.2792
13479SOL    HW149215   2.636   9.609   6.514 -0.4147 -0.4720 -0.2408
13479SOL    HW249216   2.655   9.661   6.656 -0.8771  0.7381 -0.6059
13480SOL     OW49217   4.666   0.116   1.724  0.2922 -0.0649 -0.6089
13480SOL    HW149218   4.645   0.187   1.785 -0.3625  0.3051 -1.2444
13480SOL    HW249219   4.585   0.067   1.715  0.7519 -0.9268 -0.1535
13481SOL     OW49220   9.014   5.502   2.607  0.2653 -0.1258  0.1374
13481SOL    HW149221   9.083   5.535   2.549  0.4985  1.6496  1.3643
13481SOL    HW249222   8.942   5.479   2.548  1.1291 -0.0196 -0.9844
13482SOL     OW49223   5.850   4.667   0.248  0.1553 -0.2393 -0.2496
13482SOL    HW149224   5.853   4.651   0.342  1.5651 -1.0908 -0.4151
13482SOL    HW249225   5.832   4.761   0.240  2.7056  0.4179  0.9426
13483SOL     OW49226  11.900   3.080   7.573 -0.2707 -0.3465 -0.1967
13483SOL    HW149227  11.834   3.105   7.637 -1.4283 -1.1415 -1.0260
13483SOL    HW249228  11.980   3.125   7.601 -1.5002  1.8300  0.0394
13484SOL     OW49229   2.461   4.838   5.835 -0.0254  0.2580  1.0659
13484SOL    HW149230   2.500   4.870   5.916  0.0874  1.2720  0.6221
13484SOL    HW249231   2.534   4.800   5.786 -0.1143 -0.4714  1.4750
13485SOL     OW49232   9.363   3.517   5.366 -0.3202 -0.4401 -0.2749
13485SOL    HW149233   9.375   3.609   5.341  1.5196 -0.5781 -0.0359
13485SOL    HW249234   9.269   3.502   5.358 -0.6305  1.4073 -0.5017
13486SOL     OW49235   7.842  11.924   4.318 -0.4925 -0.0507 -0.2093
13486SOL    HW149236   7.821  11.969   4.237  0.3301 -2.0842 -1.6365
13486SOL    HW249237   7.769  11.943   4.376 -1.9101  0.1698 -1.9883
13487SOL     OW49238  11.626  10.978   7.414 -0.5821  0.3421  0.2316
13487SOL    HW149239  11.552  11.021   7.458 -0.0988 -0.2636  1.7201
13487SOL    HW249240  11.643  10.900   7.468  1.3315  0.6359  0.1228
13488SOL     OW49241   4.616   9.698   0.389  0.5471  0.2699  0.5402
13488SOL    HW149242   4.611   9.722   0.296  0.6757 -2.6509 -0.3060
13488SOL    HW249243   4.705   9.723   0.415 -0.1683  3.1239  0.5784
13489SOL     OW49244  11.857   8.691   7.136  0.3167  0.0812  0.3975
13489SOL    HW149245  11.816   8.721   7.217 -1.1020 -0.7472  0.0316
13489SOL    HW249246  11.810   8.611   7.113  1.4669 -0.3385 -0.6374
13490SOL     OW49247   4.221   3.004   7.060  0.8140  0.3969 -0.3659
13490SOL    HW149248   4.132   2.987   7.091  1.7861 -1.2214  1.7543
13490SOL    HW249249   4.234   3.098   7.074 -0.3182  0.5337 -0.1215
13491SOL     OW49250   3.903  11.736  12.518 -0.2877  0.4387 -0.4538
13491SOL    HW149251   3.809  11.718  12.519 -0.5892  1.4806 -2.6554
13491SOL    HW249252   3.925  11.742  12.425  2.4909 -2.1301 -0.1043
13492SOL     OW49253  10.996   5.754   0.191  0.6785  0.3638  0.0663
13492SOL    HW149254  11.053   5.682   0.164  0.6857  0.0263  0.9681
13492SOL    HW249255  11.051   5.832   0.188  1.4014 -0.0681  1.6503
13493SOL     OW49256   7.254  10.196   1.457 -0.4776  0.2409  0.2891
13493SOL    HW149257   7.318  10.260   1.491  1.0277 -0.7937 -0.4899
13493SOL    HW249258   7.190  10.187   1.528  0.2399  1.3076  1.1166
13494SOL     OW49259   1.897  10.832  11.297  0.0434  0.5962  0.2549
13494SOL    HW149260   1.982  10.806  11.331  0.1453  2.7114  1.8276
13494SOL    HW249261   1.836  10.767  11.332  0.5260  1.2088  2.4128
13495SOL     OW49262   7.059   5.901   3.569  0.2419 -0.4337 -0.5513
13495SOL    HW149263   7.004   5.851   3.629  0.7583  0.3091  0.5827
13495SOL    HW249264   7.018   5.987   3.564  0.3545 -0.4062 -1.0534
13496SOL     OW49265  12.262  10.971   0.156 -0.3866  0.2653 -0.5108
13496SOL    HW149266  12.255  10.968   0.252 -0.3631  1.2647 -0.4697
13496SOL    HW249267  12.201  11.039   0.130  0.1391  0.4961 -1.1553
13497SOL     OW49268   3.740  11.126   2.612  0.1004  1.0091  0.4503
13497SOL    HW149269   3.743  11.036   2.644 -0.1326 -0.9152 -4.1722
13497SOL    HW249270   3.674  11.169   2.666  1.1552 -1.0652  3.7008
13498SOL     OW49271   9.165   7.309   7.154  0.2648 -0.0008 -0.3712
13498SOL    HW149272   9.133   7.227   7.118 -1.2333  0.2149  0.3814
13498SOL    HW249273   9.182   7.290   7.246 -2.1841  0.9967  0.3695
13499SOL     OW49274  11.662  10.316   8.993 -0.0393 -0.3509 -0.4987
13499SOL    HW149275  11.607  10.360   8.928 -1.1217 -0.9611 -0.0126
13499SOL    HW249276  11.615  10.326   9.075  0.9173 -0.3055  0.0570
13500SOL     OW49277   7.523   9.239   4.372  0.8059  0.4966 -0.0398
13500SOL    HW149278   7.428   9.247   4.365  0.8091  0.1216 -0.6208
13500SOL    HW249279   7.537   9.153   4.413  0.9052  0.0542 -0.9667
13501SOL     OW49280   2.760   1.863   0.030  0.0166 -0.1727  0.4882
13501SOL    HW149281   2.794   1.796   0.090  1.6084  0.5704  0.4670
13501SOL    HW249282   2.791   1.946   0.066  0.1906  0.3589 -0.8359
13502SOL     OW49283   0.909   4.819   2.386  0.3755  0.4860 -0.1777
13502SOL    HW149284   0.885   4.897   2.436  0.5848  0.2308  0.3260
13502SOL    HW249285   0.923   4.851   2.296  2.0498  1.3233  0.3308
13503SOL     OW49286   7.678   9.557   0.327 -0.0136  0.7867 -0.0241
13503SOL    HW149287   7.665   9.648   0.298 -2.0710  0.1672 -1.2585
13503SOL    HW249288   7.636   9.553   0.412  0.0063  0.9646 -0.0054
13504SOL     OW49289   0.989   0.579   4.794  0.1490  0.1655 -0.1068
13504SOL    HW149290   1.000   0.674   4.789  1.3607  0.0594  0.2100
13504SOL    HW249291   0.903   0.562   4.757 -0.2179  1.4214  0.1453
13505SOL     OW49292  11.839   7.962   2.523  0.5136  0.5039 -0.2471
13505SOL    HW149293  11.839   7.968   2.428 -0.5433 -1.0535 -0.3810
13505SOL    HW249294  11.931   7.952   2.546  0.8202  1.3246 -1.0560
13506SOL     OW49295   0.191   1.008  12.369 -0.5616 -0.0930 -0.8213
13506SOL    HW149296   0.110   1.054  12.392 -1.8648 -1.9684 -1.4141
13506SOL    HW249297   0.220   1.051  12.289 -0.7235  0.8603 -0.3919
13507SOL     OW49298   9.912   2.695   5.967 -0.3775 -0.4578  0.9087
13507SOL    HW149299   9.993   2.714   6.015 -1.5588  1.6827  2.2274
13507SOL    HW249300   9.843   2.700   6.033 -1.8042 -0.0323 -0.5520
13508SOL     OW49301  10.995  12.523   7.345  0.1634  0.5029  0.1924
13508SOL    HW149302  11.045  12.445   7.369 -1.3427  0.2463  2.8420
13508SOL    HW249303  11.035  12.594   7.395 -1.4295  0.4696  1.5981
13509SOL     OW49304   4.997  10.362  10.792  0.2727  0.5556  0.1837
13509SOL    HW149305   5.021  10.455  10.784  0.4989  0.3802 -1.5514
13509SOL    HW249306   4.904  10.359  10.773 -0.0799  0.5754  1.7358
13510SOL     OW49307   0.482   7.742   1.069 -0.2308  0.0631 -0.1273
13510SOL    HW149308   0.469   7.723   1.162  0.2327  0.1466 -0.0444
13510SOL    HW249309   0.448   7.831   1.058 -0.7311 -0.1281 -0.1390
13511SOL     OW49310  11.528   3.727   3.222 -0.0731 -0.0570 -0.1510
13511SOL    HW149311  11.490   3.694   3.140  1.8644 -1.7885 -0.4599
13511SOL    HW249312  11.462   3.709   3.289 -1.4138  0.7646 -1.2026
13512SOL     OW49313  10.554   1.322   7.825 -0.3125 -1.0199  0.2997
13512SOL    HW149314  10.545   1.279   7.910 -1.7465 -0.5439  0.4204
13512SOL    HW249315  10.596   1.405   7.844 -2.3615 -0.0542  0.8751
13513SOL     OW49316  11.621   5.396   2.627  0.0331 -0.0968 -0.4338
13513SOL    HW149317  11.697   5.338   2.615 -0.6138 -0.7646 -1.4331
13513SOL    HW249318  11.562   5.373   2.555 -2.2462 -1.3590  1.6818
13514SOL     OW49319   2.704  12.066  10.333 -0.2465  0.4842  0.2764
13514SOL    HW149320   2.677  12.154  10.306  3.2430  1.6051 -0.0824
13514SOL    HW249321   2.740  12.027  10.253 -0.5037 -0.7728  0.7583
13515SOL     OW49322  11.151   7.421   9.652  0.0823 -0.5383  0.4862
13515SOL    HW149323  11.181   7.452   9.737 -0.5422 -0.3527  0.6471
13515SOL    HW249324  11.055   7.420   9.660 -0.0984  1.3060 -0.8309
13516SOL     OW49325   6.382   7.912   7.059  0.0631  0.4037  0.7120
13516SOL    HW149326   6.344   7.967   7.127 -0.9675  0.1302  0.3741
13516SOL    HW249327   6.332   7.831   7.063  1.0776 -0.2496  0.7114
13517SOL     OW49328   2.636   8.245  10.974 -0.3013 -0.0029  0.2034
13517SOL    HW149329   2.673   8.331  10.994  0.0425 -0.2888  0.8447
13517SOL    HW249330   2.653   8.193  11.053 -0.7012 -0.5928 -0.0928
13518SOL     OW49331  11.148   9.083   8.045 -0.3543  0.1855 -0.5804
13518SOL    HW149332  11.165   9.022   7.973 -0.4297  1.6588 -1.9095
13518SOL    HW249333  11.112   9.161   8.002 -0.5067  1.0776  1.0822
13519SOL     OW49334   4.208   6.156   7.136 -0.1209  0.6014 -0.2231
13519SOL    HW149335   4.230   6.095   7.206  1.5290  2.2448  0.7615
13519SOL    HW249336   4.289   6.166   7.086 -0.4505  1.6871 -0.5771
13520SOL     OW49337   6.340   5.271   4.970  0.2127  0.7141 -0.0595
13520SOL    HW149338   6.362   5.207   5.037  0.7281 -0.3613 -1.2118
13520SOL    HW249339   6.419   5.279   4.917 -0.9957 -0.6837 -2.2513
13521SOL     OW49340   4.290   5.153   2.500 -0.2637 -0.1253  0.0685
13521SOL    HW149341   4.320   5.075   2.454 -0.5060  0.0447 -0.3880
13521SOL    HW249342   4.350   5.222   2.473  0.2394 -0.2499  0.8428
13522SOL     OW49343   1.897   1.535   3.627  0.4258  0.1283 -0.5577
13522SOL    HW149344   1.848   1.594   3.569  0.5592 -3.2522 -4.6094
13522SOL    HW249345   1.831   1.474   3.660  1.0000 -0.7116 -0.9417
13523SOL     OW49346   1.702   5.735   4.306 -0.1554 -0.0133  0.0437
13523SOL    HW149347   1.642   5.790   4.255 -0.1782  0.8681  0.9840
13523SOL    HW249348   1.658   5.650   4.311 -1.2032  0.5308  0.4585
13524SOL     OW49349   3.982   0.776   9.154 -0.2693  0.0097 -0.1047
13524SOL    HW149350   3.985   0.839   9.226 -1.5690  0.7666 -0.6633
13524SOL    HW249351   4.073   0.758   9.133  0.2386 -1.5658  2.8211
13525SOL     OW49352   1.460   1.836   0.072 -0.3071  0.5577  0.3637
13525SOL    HW149353   1.418   1.835   0.159  0.0969  2.8996  0.6468
13525SOL    HW249354   1.390   1.863   0.013 -0.2606  0.1906  0.1369
13526SOL     OW49355   0.696   8.868  11.987 -0.2475 -0.2317 -0.2976
13526SOL    HW149356   0.785   8.844  11.963 -0.0702  0.6542 -0.5910
13526SOL    HW249357   0.641   8.828  11.920  0.1117  0.8545 -1.2808
13527SOL     OW49358   2.768   4.664   3.754  0.1060  0.4464 -0.1676
13527SOL    HW149359   2.811   4.688   3.672  1.4749 -0.2100  0.3290
13527SOL    HW249360   2.830   4.605   3.797 -0.9376  0.1509  0.9801
13528SOL     OW49361   6.501  12.154  11.801 -0.0310 -0.0447 -0.3539
13528SOL    HW149362   6.552  12.210  11.859  0.2080  0.6560 -1.2134
13528SOL    HW249363   6.440  12.214  11.757  1.2665 -0.1392 -2.4394
13529SOL     OW49364   8.888   1.469  10.317 -0.0491 -0.5773  0.9347
13529SOL    HW149365   8.873   1.441  10.407 -1.2229  1.7787  1.5434
13529SOL    HW249366   8.813   1.525  10.296  0.1788 -1.0493 -1.5346
13530SOL     OW49367   8.620   2.225  12.372  0.1392 -0.0486  0.1714
13530SOL    HW149368   8.703   2.176  12.371 -0.0195 -0.4917 -3.2164
13530SOL    HW249369   8.557   2.167  12.329 -1.7922  0.6037  1.9624
13531SOL     OW49370   9.518   3.918   1.957  0.2890  0.0431 -0.1443
13531SOL    HW149371   9.531   3.951   2.046  2.6252 -0.3166 -0.2671
13531SOL    HW249372   9.456   3.847   1.967  3.0060 -2.3074  1.8874
13532SOL     OW49373  10.109   3.103   5.914 -0.2718  0.0502 -0.1156
13532SOL    HW149374  10.069   3.144   5.837 -0.3728  0.9094  0.3845
13532SOL    HW249375  10.144   3.020   5.881 -1.7503 -0.3585 -0.7364
13533SOL     OW49376   4.270  10.698   3.013  0.0609  0.1421  0.1574
13533SOL    HW149377   4.304  10.695   2.924  2.0884  0.2150  0.8804
13533SOL    HW249378   4.175  10.695   3.002  0.2587 -2.0507 -1.9083
13534SOL     OW49379  12.542   3.152   6.075 -0.1799 -0.4162  0.2446
13534SOL    HW149380  12.572   3.102   5.999  1.4092 -1.2882  1.4053
13534SOL    HW249381  12.460   3.111   6.101  0.4138 -1.5656  0.3448
13535SOL     OW49382   8.222   4.282   4.802 -0.3784  0.2327 -0.2178
13535SOL    HW149383   8.303   4.237   4.824 -0.3422 -0.3517 -1.4647
13535SOL    HW249384   8.250   4.354   4.745 -0.8619 -1.1123 -2.2600
13536SOL     OW49385   4.337   8.634   8.057  0.4539  0.2475  0.5447
13536SOL    HW149386   4.274   8.653   7.988  0.2808  0.9543  0.8847
13536SOL    HW249387   4.405   8.582   8.015  0.1453  0.3298 -0.0577
13537SOL     OW49388  12.146   6.526   9.887  0.4810  0.0869 -0.6308
13537SOL    HW149389  12.094   6.495   9.813 -0.4014  0.2877 -0.0965
13537SOL    HW249390  12.148   6.621   9.877 -1.3375  0.3002  0.6917
13538SOL     OW49391   1.321   3.194   7.959  0.1276  0.3875 -0.4897
13538SOL    HW149392   1.293   3.111   7.997 -2.4244  0.2824 -2.3193
13538SOL    HW249393   1.246   3.252   7.972  0.6875  1.4814 -1.8742
13539SOL     OW49394  10.735   7.746   5.385 -0.3758 -0.2539 -0.2370
13539SOL    HW149395  10.820   7.710   5.362 -0.5917 -1.1255  0.2623
13539SOL    HW249396  10.749   7.840   5.390  0.9415 -0.4857  1.3565
13540SOL     OW49397   6.525   2.172  12.061  0.2686 -0.2993 -0.0584
13540SOL    HW149398   6.613   2.146  12.035  0.7190  0.5299  0.5954
13540SOL    HW249399   6.538   2.247  12.119 -0.9032  0.3471 -0.5880
13541SOL     OW49400   6.033  10.901   0.096 -0.6973  0.0847 -0.2193
13541SOL    HW149401   6.077  10.899   0.011 -0.4275  1.6160 -0.1391
13541SOL    HW249402   5.997  10.813   0.106  1.3901 -0.9063 -0.7945
13542SOL     OW49403   6.380  11.417  11.620 -0.0723  0.2598  0.5108
13542SOL    HW149404   6.429  11.406  11.538  2.2432 -1.7077  2.0350
13542SOL    HW249405   6.445  11.447  11.683 -1.4258  0.0954  2.0621
13543SOL     OW49406   9.491   2.344  11.854 -0.3190  0.1497 -0.3453
13543SOL    HW149407   9.426   2.325  11.921 -0.5769  0.7707 -0.4100
13543SOL    HW249408   9.459   2.423  11.811  0.2130  0.1698 -0.7200
13544SOL     OW49409  11.333   4.687   9.293  0.2945 -0.1568 -0.3994
13544SOL    HW149410  11.264   4.659   9.353  1.8445  1.2208  2.2466
13544SOL    HW249411  11.291   4.752   9.237 -0.6790  0.4584  0.9746
13545SOL     OW49412   8.197   2.199  11.330 -0.4680  0.2365  0.2976
13545SOL    HW149413   8.200   2.128  11.395 -0.2814  2.9193  3.4939
13545SOL    HW249414   8.106   2.202  11.302 -0.6837 -0.6312  0.8664
13546SOL     OW49415  12.545   5.176   2.924  0.0194  0.4346 -0.4531
13546SOL    HW149416  12.614   5.115   2.897  0.2454  0.5724 -0.1941
13546SOL    HW249417  12.587   5.262   2.921 -0.1470  0.5211 -0.3174
13547SOL     OW49418   7.391   4.391   9.347  0.4704 -0.5891  0.2286
13547SOL    HW149419   7.470   4.342   9.369  0.5810 -1.2659 -1.5135
13547SOL    HW249420   7.331   4.325   9.311 -0.4464  0.1063  0.4348
13548SOL     OW49421   9.147   2.025   4.493  0.1666 -0.1042 -0.4623
13548SOL    HW149422   9.056   2.006   4.514 -0.0151  0.7332 -0.4550
13548SOL    HW249423   9.184   1.940   4.467 -0.9260 -0.2403 -1.6688
13549SOL     OW49424  12.042   2.856   5.963  0.0353  0.2355  0.1999
13549SOL    HW149425  11.986   2.818   6.031  2.0001 -1.5065  0.9424
13549SOL    HW249426  12.099   2.917   6.010  1.3948 -0.9643  0.1844
13550SOL     OW49427   1.405   8.858   0.713  0.6779 -0.1113  0.6792
13550SOL    HW149428   1.431   8.884   0.801  1.8391 -0.9814  0.6050
13550SOL    HW249429   1.475   8.890   0.657 -0.3407  0.9658 -0.0369
13551SOL     OW49430   9.825  10.742   0.676  0.3634  0.0590 -0.0917
13551SOL    HW149431   9.913  10.755   0.712 -0.0600  1.4356  0.4867
13551SOL    HW249432   9.768  10.743   0.752 -0.2702  0.2941 -0.5642
13552SOL     OW49433  12.608  12.474   1.070  0.1770 -0.1893  0.4331
13552SOL    HW149434  12.688  12.463   1.120 -0.0936 -1.0428  0.6829
13552SOL    HW249435  12.637  12.475   0.979  0.6483  1.1896  0.5724
13553SOL     OW49436   1.873   8.380   2.420  0.1337  0.1965 -0.0266
13553SOL    HW149437   1.959   8.346   2.442 -0.6141 -0.0437  2.8176
13553SOL    HW249438   1.827   8.306   2.381  0.4627 -0.3280  0.5713
13554SOL     OW49439   5.458  10.256   0.595 -0.7511 -0.1627 -0.0251
13554SOL    HW149440   5.545  10.276   0.559  0.1430 -1.2545  1.4215
13554SOL    HW249441   5.401  10.250   0.518  0.7056 -0.6031 -1.1119
13555SOL     OW49442  10.155  11.433   6.323 -0.4216  0.7172 -0.2712
13555SOL    HW149443  10.195  11.360   6.371 -0.1670  0.1246 -1.3304
13555SOL    HW249444  10.078  11.394   6.280 -0.9595  1.3586  0.0948
13556SOL     OW49445   2.989   4.048   3.245 -0.3681  0.1930  0.1063
13556SOL    HW149446   3.065   3.990   3.243 -0.1405  0.5039 -1.0078
13556SOL    HW249447   2.957   4.048   3.155 -1.8709 -0.1565  0.6185
13557SOL     OW49448   4.440  12.455   5.416 -0.6283 -0.0040  0.3955
13557SOL    HW149449   4.383  12.499   5.479 -0.5633  1.3701 -0.4710
13557SOL    HW249450   4.381  12.402   5.363 -0.9143  0.2283  0.4800
13558SOL     OW49451   7.671   1.534   0.746  0.0840 -0.2841  0.4124
13558SOL    HW149452   7.755   1.547   0.702  0.1544  0.1286  0.6710
13558SOL    HW249453   7.694   1.502   0.833 -0.0394 -0.5244  0.3572
13559SOL     OW49454  10.172  11.252   1.545  0.4788  0.4397 -0.0813
13559SOL    HW149455  10.141  11.228   1.458  3.4779 -1.2359 -0.8390
13559SOL    HW249456  10.225  11.331   1.531  1.0841  0.0873  0.1459
13560SOL     OW49457   6.488  10.253  12.360 -0.3955  0.3040  0.5797
13560SOL    HW149458   6.463  10.291  12.445 -3.4457  0.5794 -0.3143
13560SOL    HW249459   6.435  10.301  12.296  0.4389 -1.1662 -1.3049
13561SOL     OW49460   5.486   2.054  12.500  0.4020  0.3358  0.6441
13561SOL    HW149461   5.450   2.011  12.422 -1.0426 -0.8890  1.9014
13561SOL    HW249462   5.525   2.135  12.468  2.4369 -1.4379 -1.7515
13562SOL     OW49463   5.618   0.888   5.256  0.0684 -0.3258 -0.0600
13562SOL    HW149464   5.681   0.882   5.184 -0.6185  2.3670 -0.9831
13562SOL    HW249465   5.673   0.890   5.335  0.8885 -1.9238 -0.5447
13563SOL     OW49466   8.476   2.075  11.744 -0.0885  0.0923 -0.2115
13563SOL    HW149467   8.462   2.144  11.808  1.1052  0.4947 -0.3519
13563SOL    HW249468   8.405   2.013  11.759 -0.4899  0.7595  0.7182
13564SOL     OW49469   8.566   7.462   0.604 -0.4557  0.5176  0.1657
13564SOL    HW149470   8.633   7.465   0.535 -1.5032 -0.5607 -0.9361
13564SOL    HW249471   8.554   7.554   0.629 -0.5371  1.0111 -1.5728
13565SOL     OW49472   0.442   3.659   3.484  0.3669 -0.1757  0.3842
13565SOL    HW149473   0.410   3.584   3.535 -0.2435  0.3100  0.7157
13565SOL    HW249474   0.364   3.706   3.458  0.5282 -1.3335 -2.4884
13566SOL     OW49475   7.124   1.729   4.801  0.3116 -0.0121 -0.1920
13566SOL    HW149476   7.111   1.752   4.893 -2.0237  1.1270 -0.7233
13566SOL    HW249477   7.192   1.789   4.770  1.3653 -0.6350  0.8218
13567SOL     OW49478  11.322  12.140  10.252 -0.3432 -0.0844 -0.0945
13567SOL    HW149479  11.249  12.079  10.238  0.2834 -1.2316  1.3165
13567SOL    HW249480  11.290  12.201  10.319  0.2036 -1.0597  1.1005
13568SOL     OW49481   2.690  11.604   8.930  0.6022  0.3525 -0.0868
13568SOL    HW149482   2.607  11.558   8.940  0.6872  0.0836 -0.6226
13568SOL    HW249483   2.694  11.662   9.007 -0.1479  0.4850 -0.1388
13569SOL     OW49484   7.980  12.380   5.616  0.7801 -0.0977 -0.1480
13569SOL    HW149485   7.895  12.348   5.585  1.0831  0.0837 -1.2085
13569SOL    HW249486   7.991  12.339   5.702  0.1031 -0.9850 -0.4679
13570SOL     OW49487   2.823   0.536   6.631 -0.2165 -0.2193  0.9245
13570SOL    HW149488   2.832   0.555   6.724 -1.3071 -1.0867  1.2281
13570SOL    HW249489   2.873   0.455   6.619  1.5416  0.8948  0.3354
13571SOL     OW49490   1.164   4.404   6.705  0.6131  0.2781 -0.2767
13571SOL    HW149491   1.092   4.424   6.765 -0.2562  1.0375 -1.5155
13571SOL    HW249492   1.191   4.315   6.727  0.7483  0.7577  1.6361
13572SOL     OW49493   0.014   3.278   4.877 -0.1440  0.1325  0.1566
13572SOL    HW149494  -0.051   3.332   4.922 -0.1195 -0.2385  0.6517
13572SOL    HW249495   0.088   3.274   4.938 -0.7773 -1.8056  0.8814
13573SOL     OW49496   8.249  10.185   8.466  0.1338 -0.6704  0.3793
13573SOL    HW149497   8.312  10.136   8.519 -1.3904 -0.9074  2.0577
13573SOL    HW249498   8.209  10.246   8.527 -0.0833  0.6779 -1.0433
13574SOL     OW49499   2.918   3.073   4.453 -0.2151  0.5387 -0.1253
13574SOL    HW149500   2.951   2.992   4.493 -1.5657 -0.9785 -1.9342
13574SOL    HW249501   2.996   3.129   4.446  0.7325 -0.5179  1.2775
13575SOL     OW49502   3.280   5.239   0.423  0.6772 -0.1645 -0.0858
13575SOL    HW149503   3.238   5.167   0.470  1.2653  0.0450  0.7780
13575SOL    HW249504   3.291   5.307   0.489  0.4427  0.5905 -0.8166
13576SOL     OW49505   1.763   2.568   4.497  0.0509  0.3893 -0.1959
13576SOL    HW149506   1.767   2.615   4.414  0.6084 -1.9188 -1.5685
13576SOL    HW249507   1.710   2.490   4.479  1.6831 -1.1069  1.0653
13577SOL     OW49508   7.252   7.561   3.925 -0.1355  0.2730  0.2176
13577SOL    HW149509   7.342   7.560   3.894  0.3627  0.7243  1.5671
13577SOL    HW249510   7.206   7.617   3.862  0.5604  0.2121 -0.3591
13578SOL     OW49511  12.123   8.654   3.903  0.2722  0.5182  0.2299
13578SOL    HW149512  12.134   8.582   3.965  0.1456  0.8013  0.5855
13578SOL    HW249513  12.035   8.642   3.868 -0.2102  1.1638  1.1628
13579SOL     OW49514   2.848  10.040   0.584 -0.0269 -0.7356  0.2478
13579SOL    HW149515   2.832   9.945   0.584 -0.3352 -0.6853 -0.2803
13579SOL    HW249516   2.941  10.047   0.561  0.3748 -0.9563  1.7027
13580SOL     OW49517   6.367   3.417   3.696 -0.2509  0.1256  0.5582
13580SOL    HW149518   6.321   3.396   3.614  1.7292  1.2431 -0.9209
13580SOL    HW249519   6.383   3.511   3.690  1.4005 -0.0816  1.4435
13581SOL     OW49520   7.814   4.328   5.685  0.4695  0.4721 -0.1453
13581SOL    HW149521   7.756   4.314   5.760 -0.5639 -0.0187 -1.0180
13581SOL    HW249522   7.902   4.315   5.721 -0.0814 -4.3385  0.1763
13582SOL     OW49523   4.548   4.844   4.551  0.4932 -0.1560  0.1953
13582SOL    HW149524   4.464   4.843   4.596  0.1434  2.8642 -0.2290
13582SOL    HW249525   4.613   4.831   4.620 -0.2219 -1.2960  0.6916
13583SOL     OW49526   0.264   2.622   6.755 -0.3177 -0.1096 -0.2526
13583SOL    HW149527   0.306   2.654   6.835 -0.0872 -0.6062 -0.1685
13583SOL    HW249528   0.171   2.644   6.766  0.1886  3.1056 -1.4627
13584SOL     OW49529   9.930   2.510   6.690 -0.3397  0.5035 -0.0855
13584SOL    HW149530   9.973   2.424   6.697 -1.3873  0.0462  1.0247
13584SOL    HW249531   9.857   2.495   6.630 -0.7344  0.5199  0.3858
13585SOL     OW49532   5.073  10.099   1.686 -1.0764  0.4668 -0.3226
13585SOL    HW149533   5.044  10.081   1.775 -1.4344  0.7472 -0.3804
13585SOL    HW249534   5.036  10.029   1.633  0.5095 -0.6629 -0.0165
13586SOL     OW49535  12.524   6.969  12.050  0.5305  0.0081 -0.0077
13586SOL    HW149536  12.599   7.024  12.073  0.6725  0.6976 -1.9120
13586SOL    HW249537  12.558   6.909  11.984 -0.1418 -0.9967  0.5352
13587SOL     OW49538  11.204   5.733   8.863 -0.2937 -0.2968  0.0093
13587SOL    HW149539  11.215   5.772   8.776 -0.0204  1.9807  1.0117
13587SOL    HW249540  11.292   5.735   8.901  0.0561 -3.3288 -0.3903
13588SOL     OW49541   7.767   2.844  11.131 -0.1129  0.1235  0.1499
13588SOL    HW149542   7.822   2.918  11.103 -1.3549  0.9594 -0.1414
13588SOL    HW249543   7.826   2.789  11.183  1.0135  0.9636 -0.1921
13589SOL     OW49544   3.183   3.696   8.505  0.6051  0.6795 -0.3956
13589SOL    HW149545   3.101   3.649   8.489  1.6405 -1.0802 -0.9386
13589SOL    HW249546   3.193   3.753   8.429  0.5575 -0.1749 -1.0692
13590SOL     OW49547   9.334   9.856   7.906 -0.3159  0.0490  0.7417
13590SOL    HW149548   9.281   9.901   7.840 -1.7025 -1.6466  0.6276
13590SOL    HW249549   9.356   9.925   7.969 -0.7899  1.2573 -0.3496
13591SOL     OW49550   2.797  10.871  12.016  0.2719 -0.3099 -0.2357
13591SOL    HW149551   2.760  10.786  11.992  0.5276 -0.0370 -1.7198
13591SOL    HW249552   2.775  10.928  11.942  3.0393  0.0354 -0.9064
13592SOL     OW49553  11.200   4.739  12.609  0.3392 -0.2973 -0.0342
13592SOL    HW149554  11.142   4.675  12.651  0.4098 -0.6795 -0.4992
13592SOL    HW249555  11.275   4.745  12.667 -0.1692  0.2136  0.5809
13593SOL     OW49556  11.761   6.779   0.959  0.1624 -0.1555  0.0695
13593SOL    HW149557  11.745   6.850   0.897  0.1107  0.1990  0.4823
13593SOL    HW249558  11.827   6.814   1.019  2.1302 -1.3846 -1.2726
13594SOL     OW49559   2.637   2.927   7.921 -0.7006 -0.2757  0.1868
13594SOL    HW149560   2.710   2.875   7.953  0.5274  1.3136  0.1282
13594SOL    HW249561   2.639   2.914   7.826  0.7998  1.2240 -0.0537
13595SOL     OW49562   0.966   5.419   0.518  0.2342  0.3567 -0.7780
13595SOL    HW149563   1.049   5.390   0.478  0.9150 -0.5046  1.1533
13595SOL    HW249564   0.904   5.420   0.445  1.3234 -1.4866 -1.8110
13596SOL     OW49565   7.649   4.997   1.315 -0.6632 -0.3610 -0.1488
13596SOL    HW149566   7.694   4.940   1.254  0.6751  1.2233 -0.7243
13596SOL    HW249567   7.630   5.077   1.265  0.6770  1.0817  1.4991
13597SOL     OW49568   5.407   1.321   4.301 -0.1216  0.2219  0.1453
13597SOL    HW149569   5.350   1.248   4.276  0.8888 -0.1430 -1.2454
13597SOL    HW249570   5.496   1.284   4.296  0.3353  1.2364  0.5463
13598SOL     OW49571  11.466  11.605   7.000 -0.2721  0.4789 -0.0569
13598SOL    HW149572  11.436  11.536   6.941  0.9921  0.9285 -1.2838
13598SOL    HW249573  11.446  11.572   7.088 -0.8707 -0.8653 -0.6682
13599SOL     OW49574   6.281  11.129   2.822 -0.3132  0.3373 -0.5456
13599SOL    HW149575   6.355  11.135   2.882 -1.2947  1.4780  0.6246
13599SOL    HW249576   6.266  11.219   2.792 -1.0793  0.0974 -0.9324
13600SOL     OW49577   6.875   4.150   9.703 -0.6067  0.3206  0.2028
13600SOL    HW149578   6.927   4.195   9.637 -0.3097 -1.0863 -0.5787
13600SOL    HW249579   6.925   4.161   9.784 -0.6012  1.4463  0.0599
13601SOL     OW49580   3.149   7.731  11.741  0.0803  0.5552  0.1232
13601SOL    HW149581   3.232   7.773  11.718 -0.1258  1.9529  1.7524
13601SOL    HW249582   3.083   7.797  11.725 -0.5615 -0.0436  0.2410
13602SOL     OW49583   4.940   4.910  11.370  0.1907  0.1654 -0.1168
13602SOL    HW149584   4.953   4.962  11.290  1.2979  1.0960  0.6351
13602SOL    HW249585   5.026   4.910  11.413 -0.0091 -1.5912  0.3396
13603SOL     OW49586  10.260  11.705   2.085 -0.5815 -0.1772 -0.6056
13603SOL    HW149587  10.239  11.755   2.163 -1.2288  0.6431 -1.2861
13603SOL    HW249588  10.248  11.614   2.110 -1.7222  0.1203 -0.0229
13604SOL     OW49589   9.651   4.313   2.761 -0.0475 -0.2610 -0.0371
13604SOL    HW149590   9.709   4.329   2.836 -3.0122 -0.5444  2.5342
13604SOL    HW249591   9.629   4.220   2.767  0.4450 -0.5367 -1.9504
13605SOL     OW49592   7.042   8.343   6.326 -0.5467  0.2308 -0.0199
13605SOL    HW149593   6.985   8.268   6.306 -0.0484 -0.1205 -0.1443
13605SOL    HW249594   7.014   8.411   6.265 -1.6864  0.5024  0.7620
13606SOL     OW49595   5.438   2.759   6.945  0.2109 -0.3271 -0.1268
13606SOL    HW149596   5.366   2.821   6.940 -0.3994 -1.0932 -1.5789
13606SOL    HW249597   5.498   2.795   7.011 -0.7003  1.1503 -0.0834
13607SOL     OW49598   4.817   2.228  12.193 -0.6459  0.1146  0.3636
13607SOL    HW149599   4.892   2.189  12.148 -0.7073  1.9716 -1.4551
13607SOL    HW249600   4.742   2.177  12.163 -0.4974  0.3258 -0.3706
13608SOL     OW49601  11.411  11.382   6.889 -0.0945 -0.2639 -0.0051
13608SOL    HW149602  11.331  11.338   6.860  0.0064 -1.2564  1.1511
13608SOL    HW249603  11.476  11.362   6.821 -0.2814 -1.1827  0.0805
13609SOL     OW49604   3.011  10.442   1.666  0.0738  0.2373 -0.2477
13609SOL    HW149605   2.960  10.515   1.630  0.4742  1.4286  1.4723
13609SOL    HW249606   2.964  10.417   1.746  0.4896 -0.7423 -0.3024
13610SOL     OW49607  11.655   8.480  10.935 -0.1807  0.4489  0.0200
13610SOL    HW149608  11.654   8.545  10.865  1.0898  1.2612  0.7066
13610SOL    HW249609  11.570   8.489  10.978 -2.7042 -2.6525 -3.5720
13611SOL     OW49610   6.862   1.827   3.080 -0.1946  0.1540 -0.1912
13611SOL    HW149611   6.840   1.918   3.101 -0.6813 -0.1608  0.7551
13611SOL    HW249612   6.831   1.814   2.991  0.0938  0.9828 -0.4159
13612SOL     OW49613   5.111   1.363   2.697 -0.9313 -0.2812 -0.4935
13612SOL    HW149614   5.175   1.302   2.661 -0.6335 -0.3797  0.1780
13612SOL    HW249615   5.029   1.341   2.654 -0.8338 -1.1881 -0.2227
13613SOL     OW49616   0.642   1.833   4.381  0.0144 -0.0237 -0.2559
13613SOL    HW149617   0.618   1.865   4.467 -0.7888  0.1362 -0.5351
13613SOL    HW249618   0.737   1.821   4.386 -0.0872 -0.5226  0.8128
13614SOL     OW49619   8.281   4.342   9.488  0.0813  0.3272  0.1992
13614SOL    HW149620   8.314   4.322   9.401 -0.5840  1.4062 -0.3157
13614SOL    HW249621   8.268   4.437   9.488 -0.5947  0.2550  1.2340
13615SOL     OW49622   0.203   3.796   6.858  0.8021  0.0891 -0.0140
13615SOL    HW149623   0.245   3.754   6.783  2.3447 -1.1207  1.4293
13615SOL    HW249624   0.122   3.746   6.871  0.3494  0.5335 -1.0533
13616SOL     OW49625  10.014   0.012   4.556  0.0850 -0.4582 -0.0929
13616SOL    HW149626  10.016  -0.018   4.465  1.7653 -0.9669  0.0639
13616SOL    HW249627   9.997  -0.067   4.607  0.9481 -0.5252  0.1133
13617SOL     OW49628   6.116   9.861   0.420  0.5076  0.4005 -0.3101
13617SOL    HW149629   6.124   9.895   0.509 -0.0779 -0.0381 -0.0818
13617SOL    HW249630   6.177   9.787   0.416 -0.2575 -0.2586  0.0734
13618SOL     OW49631   4.235   3.585   6.908 -0.0190 -0.5574  0.0139
13618SOL    HW149632   4.160   3.540   6.946 -0.1736  0.4139  0.9396
13618SOL    HW249633   4.216   3.678   6.922  3.0113 -0.2617  3.8187
13619SOL     OW49634  11.948   9.271   4.452  0.0073 -0.1197 -0.0075
13619SOL    HW149635  12.009   9.342   4.432 -0.2008 -0.6083 -2.8149
13619SOL    HW249636  11.862   9.310   4.442 -0.1219 -0.8332 -2.3487
13620SOL     OW49637   0.715   2.935   2.308  0.0366  0.3943 -0.3847
13620SOL    HW149638   0.658   2.887   2.248  0.8553 -0.1855 -0.7079
13620SOL    HW249639   0.669   3.017   2.324 -1.1328 -0.2787 -0.2268
13621SOL     OW49640   0.964   3.118   7.119  0.0378  0.3926 -0.4702
13621SOL    HW149641   0.923   3.040   7.157 -0.9313  0.9408 -0.3568
13621SOL    HW249642   0.982   3.094   7.029  0.4424 -0.2180 -0.2357
13622SOL     OW49643   2.873   3.422   8.713 -0.4241 -0.3019  0.1950
13622SOL    HW149644   2.811   3.359   8.677  0.8804 -1.4246 -0.1370
13622SOL    HW249645   2.939   3.434   8.645 -1.3544  2.5404 -0.3320
13623SOL     OW49646   5.693   6.734  10.685 -0.1807  0.1689  0.5226
13623SOL    HW149647   5.707   6.828  10.683 -2.8845  0.6410 -0.2484
13623SOL    HW249648   5.599   6.724  10.702 -0.3289 -2.3303 -1.2132
13624SOL     OW49649   9.454   2.425   1.877 -0.2058 -0.1792  0.2103
13624SOL    HW149650   9.439   2.519   1.868  1.3595  0.0191 -0.5722
13624SOL    HW249651   9.438   2.408   1.970 -2.0680  0.5239  0.0768
13625SOL     OW49652   6.988   3.424   7.447 -0.1792  0.3313  0.0559
13625SOL    HW149653   6.901   3.436   7.409 -0.2919  1.3814  0.5994
13625SOL    HW249654   7.005   3.330   7.441 -1.0478  0.2126 -0.7083
13626SOL     OW49655   0.959   7.778   8.902 -0.2297 -0.1849  0.0107
13626SOL    HW149656   0.874   7.735   8.904 -0.3808  0.0532 -0.9442
13626SOL    HW249657   1.005   7.738   8.828 -0.1366  0.8361 -0.4967
13627SOL     OW49658   7.950   8.893   2.437 -0.1240 -0.3529  0.3922
13627SOL    HW149659   7.906   8.850   2.364  0.3301 -2.5749  1.3311
13627SOL    HW249660   7.967   8.982   2.407 -3.0521 -0.1185 -0.8838
13628SOL     OW49661   3.422   9.356  10.429  0.1081  0.2318 -0.4908
13628SOL    HW149662   3.439   9.409  10.507  3.1098  0.0363 -0.8902
13628SOL    HW249663   3.375   9.279  10.461  1.1951  0.1998  1.1391
13629SOL     OW49664  10.557   5.332   0.107  0.0960 -0.1486  0.4146
13629SOL    HW149665  10.581   5.424   0.121  1.2277 -0.1344 -1.3092
13629SOL    HW249666  10.633   5.282   0.136  0.2516 -0.4007 -0.3840
13630SOL     OW49667   9.663  12.300   2.093  0.4559 -0.1416 -0.4671
13630SOL    HW149668   9.670  12.308   1.998  0.4971  1.2198 -0.3736
13630SOL    HW249669   9.572  12.326   2.112  0.3481 -0.7311 -0.1610
13631SOL     OW49670   2.146  12.155   0.195  0.3765  0.0188  0.3996
13631SOL    HW149671   2.193  12.085   0.148  0.1058 -0.0748  0.2670
13631SOL    HW249672   2.101  12.204   0.126 -0.6361 -0.5754  0.6175
13632SOL     OW49673   2.940   0.811   5.328 -0.3984  0.0344  1.0476
13632SOL    HW149674   2.962   0.824   5.235 -0.9863 -0.1409  0.8797
13632SOL    HW249675   2.854   0.769   5.326 -1.0097  1.2056  1.6966
13633SOL     OW49676   0.065   5.757  10.100 -0.1437  0.3221  0.0133
13633SOL    HW149677   0.132   5.796  10.156  0.9882  0.4131 -1.3579
13633SOL    HW249678   0.007   5.831  10.077 -0.4297  0.3422  0.7903
13634SOL     OW49679   7.853   2.389  11.430 -0.2142 -0.4855  0.0347
13634SOL    HW149680   7.870   2.373  11.337  0.4740 -1.1194  0.2570
13634SOL    HW249681   7.930   2.435  11.462 -1.2473  1.4200 -0.0951
13635SOL     OW49682  12.506   4.957  11.754  0.2142 -0.0079 -0.3906
13635SOL    HW149683  12.448   4.889  11.789  0.2213 -0.0099 -0.3819
13635SOL    HW249684  12.555   4.988  11.830 -1.9360  2.1956  0.2473
13636SOL     OW49685   1.878   7.404   2.657 -0.0071  0.6482 -0.3270
13636SOL    HW149686   1.936   7.330   2.639  0.0060  0.7510 -0.7178
13636SOL    HW249687   1.913   7.442   2.738 -1.4956 -1.2500  1.3083
13637SOL     OW49688   1.180   8.405  10.606  0.7485  0.6620 -0.2392
13637SOL    HW149689   1.263   8.383  10.648  0.0827 -1.0080  0.2888
13637SOL    HW249690   1.125   8.438  10.678 -0.1238 -1.4346  0.1253
13638SOL     OW49691   3.824  10.576  10.566  0.3136  0.5265 -0.0093
13638SOL    HW149692   3.895  10.609  10.511  1.8253 -0.0259  1.5191
13638SOL    HW249693   3.776  10.515  10.509  1.9982 -0.2436 -0.6677
13639SOL     OW49694   7.556   4.117  11.310 -0.2653 -0.0891  0.9574
13639SOL    HW149695   7.629   4.092  11.366 -0.4093 -0.7193  0.8733
13639SOL    HW249696   7.562   4.212  11.303  1.2550 -0.2196 -0.0002
13640SOL     OW49697   0.451   9.563  10.868  0.6592  0.3715 -0.0145
13640SOL    HW149698   0.442   9.479  10.822 -0.6490  0.8666 -0.7235
13640SOL    HW249699   0.540   9.592  10.848  1.5098 -1.3152  1.1058
13641SOL     OW49700   6.641   6.639   5.239 -0.3883 -0.6285  0.0796
13641SOL    HW149701   6.566   6.699   5.236  0.1586  0.1096  0.7087
13641SOL    HW249702   6.602   6.553   5.256 -1.1590 -0.4071 -0.4924
13642SOL     OW49703   2.159   4.874  12.594  0.5607  0.4193  0.6109
13642SOL    HW149704   2.141   4.894  12.686  0.1862 -0.8430  0.8211
13642SOL    HW249705   2.104   4.935  12.545 -0.1274  0.3043  1.2307
13643SOL     OW49706   8.621   7.390   1.865 -0.0745  0.2747 -0.0137
13643SOL    HW149707   8.676   7.440   1.925 -0.4062  1.9503 -1.0405
13643SOL    HW249708   8.675   7.378   1.787  0.0833 -1.2103  0.3045
13644SOL     OW49709  11.885   6.494  10.175  0.0612 -0.2974  0.1055
13644SOL    HW149710  11.817   6.492  10.241 -1.0159 -1.8711 -0.9838
13644SOL    HW249711  11.962   6.457  10.218  0.0337  0.7639  1.1073
13645SOL     OW49712   0.205   7.236   3.152  0.1244  0.3117 -0.2064
13645SOL    HW149713   0.166   7.260   3.067  1.9010 -0.2370 -1.2335
13645SOL    HW249714   0.291   7.278   3.151  0.3505 -0.0776  1.1562
13646SOL     OW49715   6.005  12.296   6.301  0.3316  0.3865  0.5693
13646SOL    HW149716   5.920  12.326   6.269  1.1868  1.6993 -0.5864
13646SOL    HW249717   6.028  12.357   6.371  1.0550  1.0785 -0.2527
13647SOL     OW49718   6.105   3.128   7.902 -0.1705 -1.0561  0.4788
13647SOL    HW149719   6.141   3.178   7.975  0.6077 -0.5067 -0.2544
13647SOL    HW249720   6.183   3.101   7.852 -0.5299 -3.2543  0.9940
13648SOL     OW49721   3.427   1.780   4.426 -0.1659  0.4716  0.2295
13648SOL    HW149722   3.459   1.709   4.482 -0.2344 -1.3952 -1.9471
13648SOL    HW249723   3.349   1.744   4.384  0.8957  1.0397 -2.4156
13649SOL     OW49724   3.915   0.809   0.979 -0.1266 -0.6025  0.0422
13649SOL    HW149725   3.918   0.885   0.920  2.1604 -1.6697 -1.3540
13649SOL    HW249726   3.960   0.839   1.058 -1.6012  0.2803  0.5812
13650SOL     OW49727   5.615   8.970   1.402  0.5602  0.6558  0.1558
13650SOL    HW149728   5.609   9.002   1.492  0.1826 -2.0051  1.1725
13650SOL    HW249729   5.524   8.948   1.379  0.6930  1.0576 -0.7889
13651SOL     OW49730   2.427   7.778   0.659 -0.1582  0.0427 -0.8892
13651SOL    HW149731   2.439   7.870   0.637 -1.0139  0.6572  0.9723
13651SOL    HW249732   2.336   7.760   0.638 -1.0587  0.6994  1.9421
13652SOL     OW49733   0.828   8.901   3.554 -0.0449 -0.0759 -0.3490
13652SOL    HW149734   0.826   8.812   3.589  1.3517 -1.0104 -2.4358
13652SOL    HW249735   0.737   8.922   3.536 -0.4068 -1.0608  0.2586
13653SOL     OW49736   1.993  12.268   8.627  0.3657 -0.0193  0.0814
13653SOL    HW149737   2.073  12.261   8.678  0.2974 -0.2783  0.1565
13653SOL    HW249738   2.004  12.347   8.574  0.2327  0.5369  0.8626
13654SOL     OW49739   1.865  10.728   6.028  0.1216  0.4729  0.4191
13654SOL    HW149740   1.870  10.823   6.015 -1.3561  0.3857 -1.2572
13654SOL    HW249741   1.778  10.714   6.066 -0.8737 -0.3615 -1.9658
13655SOL     OW49742   1.692  12.035   6.052 -0.5902  0.0547  0.0642
13655SOL    HW149743   1.710  11.984   5.973  0.7814 -0.0181  0.3980
13655SOL    HW249744   1.640  11.978   6.107  0.8476 -0.9990  0.3965
13656SOL     OW49745  10.498   0.872   1.880  0.0135 -0.0538 -0.6835
13656SOL    HW149746  10.522   0.896   1.791 -0.0613  1.1291 -0.3949
13656SOL    HW249747  10.575   0.893   1.933  0.3495 -1.4727 -0.5556
13657SOL     OW49748   2.334   1.222  10.071  0.1140  0.8345  0.4997
13657SOL    HW149749   2.241   1.202  10.059 -0.5564  1.6093  3.5975
13657SOL    HW249750   2.378   1.139  10.056 -1.1010  0.3436 -0.5707
13658SOL     OW49751  11.788   1.940   2.367  0.7626 -0.2258 -0.0715
13658SOL    HW149752  11.714   1.889   2.333  1.0609 -0.4654 -0.3745
13658SOL    HW249753  11.757   1.977   2.449  1.0022 -2.0753  0.9075
13659SOL     OW49754   2.068  12.443   3.577  0.2428  0.1285 -0.3301
13659SOL    HW149755   1.976  12.414   3.581 -0.0648  1.1834  1.2974
13659SOL    HW249756   2.083  12.486   3.661  2.3835 -0.3829 -0.3900
13660SOL     OW49757   4.697   6.049   6.521  0.6618  1.0026 -0.4357
13660SOL    HW149758   4.668   6.105   6.449  0.2484  0.6006 -0.5813
13660SOL    HW249759   4.775   6.093   6.555 -0.3333  2.3339  0.2284
13661SOL     OW49760   8.896  11.708  11.463  0.1440  0.3226 -0.1655
13661SOL    HW149761   8.877  11.663  11.381  2.3968  0.6320 -0.9155
13661SOL    HW249762   8.924  11.639  11.523 -1.1809  0.1425  0.3003
13662SOL     OW49763   2.803   6.219   2.277 -0.0482  0.5580 -0.0092
13662SOL    HW149764   2.858   6.185   2.206 -0.7098  0.0205 -0.2786
13662SOL    HW249765   2.813   6.155   2.347 -0.3446  0.4468 -0.0678
13663SOL     OW49766  11.988   8.847   2.367  0.8999  0.0345  0.4148
13663SOL    HW149767  11.937   8.884   2.294 -0.6990 -1.8997  0.4701
13663SOL    HW249768  11.991   8.918   2.432  3.5838  2.3345 -1.9441
13664SOL     OW49769   5.705   4.202   9.177 -0.0706  0.1052  0.1391
13664SOL    HW149770   5.706   4.148   9.257 -2.4034  0.4377  0.4426
13664SOL    HW249771   5.780   4.261   9.188 -0.4956  0.3275  2.2341
13665SOL     OW49772   7.448   9.571   5.714 -0.6052 -0.2349 -0.2678
13665SOL    HW149773   7.361   9.607   5.726 -0.0127  0.9345  0.6881
13665SOL    HW249774   7.434   9.489   5.666 -2.3845 -0.9202  1.3187
13666SOL     OW49775   1.555   4.404   4.862  0.3505 -0.3412  0.2743
13666SOL    HW149776   1.611   4.381   4.936  2.0079  0.3771 -0.7131
13666SOL    HW249777   1.578   4.494   4.840 -0.3493 -0.4143 -0.8979
13667SOL     OW49778   3.008   4.167   7.886 -0.0945  0.3768  0.7059
13667SOL    HW149779   3.064   4.237   7.854  0.2287  0.0470  0.5452
13667SOL    HW249780   2.981   4.120   7.807 -0.9484  0.7905  0.7379
13668SOL     OW49781  10.342   3.037   2.840 -0.3666 -0.4085  0.3874
13668SOL    HW149782  10.354   3.077   2.926 -1.9131  0.2406  0.3414
13668SOL    HW249783  10.424   2.991   2.823  0.8554  1.3943  1.1620
13669SOL     OW49784  12.604   2.667   6.819  0.1832 -0.3591 -0.6794
13669SOL    HW149785  12.523   2.655   6.770  0.0957 -0.6002 -0.4770
13669SOL    HW249786  12.588   2.744   6.874 -0.4967 -1.3450  0.5460
13670SOL     OW49787  12.163   5.077   1.347  0.0014 -0.5051  0.1965
13670SOL    HW149788  12.168   5.054   1.440 -2.0382  0.0173  0.4891
13670SOL    HW249789  12.253   5.071   1.315  0.4320 -2.9908  1.6465
13671SOL     OW49790   9.315   9.405   2.324  0.5564  0.3046  0.0791
13671SOL    HW149791   9.277   9.477   2.273  0.3436  1.4400  1.7574
13671SOL    HW249792   9.278   9.416   2.412  1.5330 -1.0861  0.7006
13672SOL     OW49793   4.596   0.327   0.235 -0.2700  0.4341 -0.1532
13672SOL    HW149794   4.563   0.322   0.146  0.6086  2.0964 -0.6129
13672SOL    HW249795   4.690   0.340   0.226  0.0861 -1.0160  1.0648
13673SOL     OW49796   5.755  11.937  11.094  0.3812  0.0499 -0.4140
13673SOL    HW149797   5.758  11.928  11.189  0.1822  0.8502 -0.3238
13673SOL    HW249798   5.817  12.007  11.075 -0.6683  0.9326 -0.7133
13674SOL     OW49799   9.658   1.623  10.444 -0.2352 -0.0693 -0.0133
13674SOL    HW149800   9.711   1.654  10.371  0.1119  0.3931  0.4293
13674SOL    HW249801   9.576   1.595  10.403 -0.0089  0.0863 -0.5901
13675SOL     OW49802   0.774   7.333  12.084  0.0407 -0.0800 -0.0450
13675SOL    HW149803   0.686   7.296  12.080  0.3383 -0.7262 -1.4408
13675SOL    HW249804   0.815   7.306  12.002  1.3643  0.6686  0.3311
13676SOL     OW49805   6.053   9.217   8.987 -0.0494  0.6390 -0.2448
13676SOL    HW149806   6.036   9.184   8.899  1.5202 -0.7080 -0.0997
13676SOL    HW249807   5.976   9.191   9.037 -0.4911  0.4856 -0.9858
13677SOL     OW49808   9.882   5.745  11.776  0.6114  0.1066  0.1301
13677SOL    HW149809   9.805   5.770  11.725  1.1751  1.3108 -0.1603
13677SOL    HW249810   9.864   5.776  11.864  0.5907  0.0066  0.1615
13678SOL     OW49811   5.750  10.828   5.785 -0.1700 -0.0355  0.1542
13678SOL    HW149812   5.799  10.851   5.864  0.7253  0.1663 -0.4373
13678SOL    HW249813   5.744  10.911   5.737 -0.0311 -0.3107 -0.3433
13679SOL     OW49814  12.150   7.874  12.478 -0.0795 -0.1207 -0.2217
13679SOL    HW149815  12.216   7.842  12.417  0.7992  1.5994 -0.2267
13679SOL    HW249816  12.071   7.882  12.426 -0.3495 -2.2062 -0.2164
13680SOL     OW49817   3.092  11.544   1.285 -0.1715  0.0533  0.3254
13680SOL    HW149818   3.120  11.454   1.301  2.0126  0.4706 -0.8362
13680SOL    HW249819   3.151  11.576   1.218 -3.0264  1.3290 -1.7789
13681SOL     OW49820   9.918   7.060   2.899  0.4885 -0.3851  0.0322
13681SOL    HW149821   9.931   6.973   2.861 -1.6407 -0.1592 -1.3811
13681SOL    HW249822   9.845   7.049   2.960  0.3249  0.3527 -0.0143
13682SOL     OW49823   9.592   2.132   9.647 -0.2578 -0.2852  0.1945
13682SOL    HW149824   9.686   2.119   9.638 -0.0623  0.6346  0.7665
13682SOL    HW249825   9.561   2.055   9.694  0.6239  0.5370  2.2423
13683SOL     OW49826   0.088   3.510  11.350 -0.0885  0.2387  0.0684
13683SOL    HW149827   0.157   3.463  11.303 -0.2168 -0.3928  0.4976
13683SOL    HW249828   0.007   3.472  11.317 -0.2396  0.9271 -0.3799
13684SOL     OW49829   4.459   2.574   1.387 -0.0904  0.7350  0.0736
13684SOL    HW149830   4.368   2.601   1.388 -0.6595 -1.0272 -0.0707
13684SOL    HW249831   4.462   2.502   1.324  1.4454  0.9011 -0.0828
13685SOL     OW49832  10.055  11.510   9.749  0.4858  0.2813  0.0601
13685SOL    HW149833  10.112  11.433   9.757 -0.3584 -0.4171 -0.5797
13685SOL    HW249834  10.092  11.573   9.811  2.0653 -0.0912 -0.4553
13686SOL     OW49835  11.490   8.456   1.210 -0.2489  0.3006  0.4028
13686SOL    HW149836  11.420   8.473   1.148 -0.2740 -2.4659 -0.4357
13686SOL    HW249837  11.463   8.377   1.257  3.1293 -2.2315 -1.4598
13687SOL     OW49838   4.285   4.521   5.277  0.2854 -0.5124  0.0887
13687SOL    HW149839   4.357   4.465   5.245 -0.6268 -1.4350 -0.4263
13687SOL    HW249840   4.312   4.610   5.253  0.7332 -0.9482 -1.1560
13688SOL     OW49841   3.039   7.236   7.177  0.1354  0.0713 -0.4685
13688SOL    HW149842   3.134   7.249   7.178 -0.0256  1.4808  0.4202
13688SOL    HW249843   3.022   7.184   7.099  1.5747  0.3737 -1.0094
13689SOL     OW49844   6.676   8.859   7.396 -1.0423 -0.3459 -0.2462
13689SOL    HW149845   6.716   8.868   7.310  1.9669  2.3012  1.2339
13689SOL    HW249846   6.634   8.773   7.394  3.6492 -2.9247 -2.5073
13690SOL     OW49847   5.132   6.422   9.243 -0.3776 -0.5377  0.0495
13690SOL    HW149848   5.080   6.496   9.274  1.2731 -0.0654  1.9051
13690SOL    HW249849   5.222   6.444   9.269  0.2744 -2.8544 -0.0376
13691SOL     OW49850   6.909   2.713   6.389  0.4410 -0.2402 -0.3864
13691SOL    HW149851   6.912   2.676   6.301  2.3341 -1.0365 -0.0391
13691SOL    HW249852   6.981   2.671   6.435  0.1466  0.9365  1.2447
13692SOL     OW49853   4.178   6.010  12.167 -0.0821 -0.6677 -0.2443
13692SOL    HW149854   4.083   6.023  12.167  0.2145  2.5676  1.2617
13692SOL    HW249855   4.208   6.047  12.084 -0.0493 -0.2314 -0.0450
13693SOL     OW49856   2.989  10.754   1.097  0.2427 -0.1922 -0.4390
13693SOL    HW149857   3.076  10.784   1.072  0.0746  0.3199 -0.4398
13693SOL    HW249858   2.934  10.773   1.021  0.6519 -3.1602 -1.6096
13694SOL     OW49859  12.096   6.817   5.428 -0.1808 -0.2917 -0.4553
13694SOL    HW149860  12.055   6.758   5.365 -0.3056 -0.9071  0.1890
13694SOL    HW249861  12.176   6.773   5.454  0.0831  0.1580 -0.5027
13695SOL     OW49862   0.633   0.801  10.123 -0.3684 -0.1616 -0.0757
13695SOL    HW149863   0.615   0.889  10.089  1.2463  0.5613  0.8253
13695SOL    HW249864   0.556   0.779  10.175 -0.9144  0.5867 -0.5402
13696SOL     OW49865   6.016   9.380   2.797 -0.2505  0.7296  0.0819
13696SOL    HW149866   5.940   9.322   2.807  0.8517 -0.5499  1.4983
13696SOL    HW249867   6.087   9.322   2.770  1.1469  1.1748  2.5116
13697SOL     OW49868  11.611   2.300   7.831 -0.3785  0.1263 -0.1069
13697SOL    HW149869  11.657   2.269   7.909  0.7550  0.0363 -0.7818
13697SOL    HW249870  11.536   2.349   7.865 -0.7421 -1.1494  1.0023
13698SOL     OW49871   4.376   1.610  10.271  0.1775 -0.4446 -0.0870
13698SOL    HW149872   4.351   1.568  10.188 -3.4716 -0.8276  1.0454
13698SOL    HW249873   4.435   1.547  10.313 -2.1114 -2.7486 -0.1242
13699SOL     OW49874   3.392  10.946  12.514 -0.1701 -0.0057 -0.0791
13699SOL    HW149875   3.325  10.977  12.574 -1.1223 -0.2212 -0.9938
13699SOL    HW249876   3.459  10.907  12.570 -0.8651  0.1087  0.8537
13700SOL     OW49877  10.769   0.019   5.790  0.0833 -0.3393  0.3356
13700SOL    HW149878  10.692   0.040   5.842 -0.2493  0.6562 -0.5005
13700SOL    HW249879  10.745   0.047   5.701  1.2951 -0.2780  0.0118
13701SOL     OW49880   8.844   6.097   9.090 -0.2100  0.0329  0.0816
13701SOL    HW149881   8.824   6.013   9.131 -0.4602  0.6642  1.2876
13701SOL    HW249882   8.802   6.162   9.146  0.7721  1.0313 -0.3113
13702SOL     OW49883   1.207   6.649  11.578  0.1297  0.6006  0.0019
13702SOL    HW149884   1.194   6.741  11.600 -2.2738  0.0700  1.1911
13702SOL    HW249885   1.282   6.648  11.519  1.1549  3.1427  1.1177
13703SOL     OW49886   2.288   6.641   5.045  0.2011 -0.2783  0.7094
13703SOL    HW149887   2.211   6.632   5.101 -0.6056 -0.3075 -0.3832
13703SOL    HW249888   2.329   6.722   5.075 -2.1624  1.6595 -0.9064
13704SOL     OW49889   6.250   7.126   1.077  0.0820  0.1285  0.6010
13704SOL    HW149890   6.277   7.215   1.102  2.8656 -0.2572 -0.6622
13704SOL    HW249891   6.249   7.077   1.159 -0.1906  0.9906  1.1311
13705SOL     OW49892   1.581   5.209   4.348 -0.2025 -0.0169 -0.0010
13705SOL    HW149893   1.517   5.161   4.297 -0.2901  0.0395  0.0561
13705SOL    HW249894   1.590   5.159   4.429 -0.0736 -0.0987 -0.0648
13706SOL     OW49895   5.352   7.666   3.235 -0.3054  0.0551  0.3217
13706SOL    HW149896   5.288   7.725   3.275  1.0429  2.2474 -0.5615
13706SOL    HW249897   5.403   7.633   3.308 -1.1612 -0.1465  0.8440
13707SOL     OW49898   2.093   5.469   4.472  0.3773 -0.7291 -0.7919
13707SOL    HW149899   2.056   5.530   4.408  1.4201 -1.4297 -2.1104
13707SOL    HW249900   2.026   5.402   4.483  0.2455 -0.6752 -1.2480
13708SOL     OW49901   3.523   5.762  12.301  0.4413  0.4558 -0.4200
13708SOL    HW149902   3.503   5.740  12.392  1.0838  0.4763 -0.2719
13708SOL    HW249903   3.446   5.733  12.252  0.4677 -0.3800  0.0211
13709SOL     OW49904   1.408  12.010   4.203 -0.7256 -0.5601  0.0968
13709SOL    HW149905   1.437  12.101   4.209 -1.7299 -0.1296 -1.1689
13709SOL    HW249906   1.489  11.959   4.196 -0.1652  0.2655  0.4385
13710SOL     OW49907   1.659   7.980   2.560 -0.1750 -0.1913  0.4740
13710SOL    HW149908   1.670   7.992   2.654  0.7646  0.9413  0.2497
13710SOL    HW249909   1.748   7.969   2.527 -0.5493 -1.3513 -0.2063
13711SOL     OW49910   4.624  10.767  12.409  0.0828  0.5266 -0.0260
13711SOL    HW149911   4.636  10.768  12.314 -2.2231 -0.3158 -0.4085
13711SOL    HW249912   4.634  10.674  12.433 -1.7122  0.3335  0.1238
13712SOL     OW49913   7.319   5.529   3.545  0.0313 -0.2496 -0.0369
13712SOL    HW149914   7.232   5.523   3.506  0.5018 -1.6026 -0.9550
13712SOL    HW249915   7.342   5.439   3.565  0.8581  0.1863  1.0415
13713SOL     OW49916  10.341  11.171  11.801  0.2652 -0.1100 -0.4961
13713SOL    HW149917  10.393  11.205  11.728  1.3556 -1.9842 -0.6466
13713SOL    HW249918  10.267  11.126  11.760  0.3482 -0.3199 -0.4198
13714SOL     OW49919   5.425  11.937   7.649  0.6600  0.0295  0.8725
13714SOL    HW149920   5.364  11.920   7.577  1.2338  1.9973 -0.1651
13714SOL    HW249921   5.466  12.021   7.626  1.4970  0.2919  3.0817
13715SOL     OW49922   2.842   8.389   7.287 -0.2736  0.0330  0.3878
13715SOL    HW149923   2.867   8.368   7.198  0.0238  0.4542  0.3709
13715SOL    HW249924   2.754   8.426   7.279 -0.5928 -0.7088  0.3649
13716SOL     OW49925  11.549   4.234   7.648  0.1788  0.7731  0.5682
13716SOL    HW149926  11.627   4.221   7.702 -0.3781 -1.6376  0.9193
13716SOL    HW249927  11.524   4.146   7.621 -0.8434  1.7270 -1.8503
13717SOL     OW49928  11.878   7.997  11.682 -0.2531 -0.2113 -0.0831
13717SOL    HW149929  11.832   7.920  11.715 -0.6322  0.1428  0.2295
13717SOL    HW249930  11.958   8.001  11.734 -0.0716 -0.5910 -0.3363
13718SOL     OW49931  10.643   7.577   6.791 -0.4522 -0.0901  0.1037
13718SOL    HW149932  10.668   7.516   6.722 -1.2175  0.5764 -0.7869
13718SOL    HW249933  10.711   7.567   6.858 -1.4489 -3.1391  0.8007
13719SOL     OW49934  10.276   5.273   3.577  0.1750 -0.1158 -0.6341
13719SOL    HW149935  10.236   5.187   3.588 -1.6585  0.6715 -0.8772
13719SOL    HW249936  10.272   5.314   3.663  0.0951  0.1224 -0.7485
13720SOL     OW49937   2.504   2.277  12.168  0.2162 -0.4934  0.2419
13720SOL    HW149938   2.551   2.316  12.095 -0.7195  0.6914  0.2411
13720SOL    HW249939   2.435   2.224  12.127 -0.2009  0.0334  0.2520
13721SOL     OW49940   0.681   4.035   4.487 -0.4807  0.2867 -0.5255
13721SOL    HW149941   0.661   4.111   4.432 -4.4136 -1.2751 -1.5871
13721SOL    HW249942   0.733   3.977   4.431  1.7211  1.6325 -0.0186
13722SOL     OW49943   8.028   5.591  10.730  0.0431  0.1997 -0.0310
13722SOL    HW149944   7.977   5.526  10.682  0.5376  0.4363 -0.8843
13722SOL    HW249945   7.979   5.673  10.719 -0.1787  0.1321  0.4116
13723SOL     OW49946   7.489  10.047  12.246 -0.2636  0.5165  0.0998
13723SOL    HW149947   7.415  10.016  12.297 -0.7946  0.9409 -0.3976
13723SOL    HW249948   7.501  10.138  12.273 -0.9107  0.9225 -0.9195
13724SOL     OW49949  11.535   7.132   0.664 -0.4563 -0.4905  0.0303
13724SOL    HW149950  11.472   7.182   0.612 -1.2406  2.2944  3.2744
13724SOL    HW249951  11.620   7.168   0.639 -0.6108 -0.7326 -0.8579
13725SOL     OW49952   1.078   0.815   5.059 -0.2850 -0.1125 -0.2535
13725SOL    HW149953   1.061   0.905   5.087  1.0850  0.4161 -1.0165
13725SOL    HW249954   0.996   0.768   5.078 -1.3459  1.4831 -0.6536
13726SOL     OW49955   3.130   9.879   1.946  0.5894  0.1209  0.2942
13726SOL    HW149956   3.224   9.876   1.961  1.1035  1.9669 -1.9251
13726SOL    HW249957   3.092   9.892   2.033  2.4996  0.8921  1.0640
13727SOL     OW49958   3.492  12.449   8.172  0.4295  0.0909  0.1029
13727SOL    HW149959   3.572  12.409   8.137  1.1191  1.1876  0.4041
13727SOL    HW249960   3.494  12.539   8.140 -0.6431  0.1569  0.1965
13728SOL     OW49961   4.142   4.280   7.370  0.4203  0.0346 -0.2277
13728SOL    HW149962   4.066   4.269   7.313  0.0788 -0.3629  0.2973
13728SOL    HW249963   4.182   4.193   7.374 -0.3780 -0.3041  1.2663
13729SOL     OW49964   3.735   1.743   6.949  0.4133  0.7397  1.1428
13729SOL    HW149965   3.773   1.671   7.000 -1.2108 -0.5485  0.5933
13729SOL    HW249966   3.762   1.726   6.859  0.6863  1.2855  1.1155
13730SOL     OW49967  11.259   7.122   7.425 -0.3080  0.0980 -0.2446
13730SOL    HW149968  11.345   7.080   7.432  0.4370  1.3118 -1.6213
13730SOL    HW249969  11.228   7.098   7.338 -2.5862 -2.4061  1.0937
13731SOL     OW49970   3.684  12.360   2.250 -0.5980 -0.0146  0.3242
13731SOL    HW149971   3.749  12.360   2.320  0.7361  1.0440 -0.8813
13731SOL    HW249972   3.604  12.327   2.292  0.1576  0.6028  2.3413
13732SOL     OW49973   2.535   5.376   6.554 -0.3134 -0.1819 -0.5853
13732SOL    HW149974   2.467   5.322   6.595  0.5657 -0.3984  0.6477
13732SOL    HW249975   2.527   5.461   6.597  0.6501 -0.4234  0.0996
13733SOL     OW49976   3.258   4.228   0.511  0.0299 -0.2258 -0.0149
13733SOL    HW149977   3.342   4.274   0.519  0.7623 -1.2399 -1.4260
13733SOL    HW249978   3.192   4.295   0.529  1.1286  0.7326  0.5621
13734SOL     OW49979  11.719   8.121   4.694  0.4566  0.3712  0.2949
13734SOL    HW149980  11.644   8.078   4.653 -0.3575  1.0443  1.0236
13734SOL    HW249981  11.775   8.049   4.723  0.4725 -0.1275 -0.9409
13735SOL     OW49982   5.033   4.033   8.290  0.1916 -0.2714  0.2797
13735SOL    HW149983   5.006   4.116   8.251 -1.4358 -0.2024  1.4623
13735SOL    HW249984   5.084   4.059   8.368  2.4810 -0.4182 -1.0638
13736SOL     OW49985   1.537   3.008   6.754  0.7596  0.9040 -0.4752
13736SOL    HW149986   1.544   3.060   6.674  3.2625  2.0294  0.3831
13736SOL    HW249987   1.621   3.019   6.798  0.1882 -1.2848  1.3727
13737SOL     OW49988  10.340   7.349   7.370  0.1877  0.0862 -0.0189
13737SOL    HW149989  10.272   7.416   7.376  0.4488  0.4975 -1.4356
13737SOL    HW249990  10.411   7.391   7.322  1.9034 -0.0001  2.2597
13738SOL     OW49991   9.333  12.050   5.212 -0.4564  0.1184 -0.1777
13738SOL    HW149992   9.398  11.991   5.250 -0.6265  0.2362  0.3029
13738SOL    HW249993   9.339  12.035   5.118  0.7566  0.6092 -0.2006
13739SOL     OW49994   4.579   4.861   1.668  0.3244 -0.5237 -0.1250
13739SOL    HW149995   4.627   4.922   1.723 -0.4072 -0.0405 -0.0111
13739SOL    HW249996   4.487   4.879   1.686  0.0096 -3.5877  2.0979
13740SOL     OW49997   2.293   9.097   3.415 -0.6402 -0.2103 -0.1720
13740SOL    HW149998   2.307   9.187   3.444 -1.5459 -0.4900  1.2430
13740SOL    HW249999   2.369   9.077   3.361  0.0554  1.0809  0.2832
13741SOL     OW50000   4.675  11.253   1.443  0.2257  0.0019  0.1324
13741SOL    HW150001   4.585  11.260   1.413 -0.2404 -0.6506  1.3163
13741SOL    HW250002   4.686  11.160   1.464  1.9891 -0.4799 -2.3914
13742SOL     OW50003   2.544   9.599   7.212 -0.2067 -0.3847  0.1829
13742SOL    HW150004   2.505   9.613   7.126 -0.5334 -2.3910 -0.0339
13742SOL    HW250005   2.482   9.640   7.273 -0.7320 -0.2704 -0.4171
13743SOL     OW50006   8.153  11.020  11.001 -0.0066  0.4792 -0.4537
13743SOL    HW150007   8.154  11.090  10.936 -1.5771 -0.6280 -1.7578
13743SOL    HW250008   8.203  10.949  10.961  1.3750  0.7288  0.7599
13744SOL     OW50009   1.746   0.117   6.122  0.6331 -0.0537 -0.2401
13744SOL    HW150010   1.657   0.131   6.088  0.2933  0.9691  0.9952
13744SOL    HW250011   1.752   0.022   6.132  0.9066 -0.4731 -3.4205
13745SOL     OW50012  10.953  11.872   4.653  0.3248 -0.0514 -0.0304
13745SOL    HW150013  10.890  11.889   4.583  1.1213 -1.6740 -1.1928
13745SOL    HW250014  11.001  11.954   4.662  0.8823 -0.0915 -2.1282
13746SOL     OW50015   3.087  10.572   0.351 -0.4246  0.1836 -0.6336
13746SOL    HW150016   3.084  10.551   0.444 -0.8410  2.6063 -0.0343
13746SOL    HW250017   3.144  10.504   0.313 -0.0157 -0.6920  1.4064
13747SOL     OW50018   4.793  11.635   9.676 -0.2067 -0.7821 -0.0171
13747SOL    HW150019   4.879  11.667   9.647 -0.5498 -0.7692 -1.0760
13747SOL    HW250020   4.811  11.583   9.754  0.5526  0.6784  0.8145
13748SOL     OW50021   8.460   3.565   4.596 -0.3589  0.4994  0.6542
13748SOL    HW150022   8.541   3.614   4.608  0.3856 -1.2380  3.8059
13748SOL    HW250023   8.489   3.477   4.572 -1.5116  0.5897 -1.2746
13749SOL     OW50024   3.132   2.022   9.049 -0.4977  0.4647 -0.4595
13749SOL    HW150025   3.129   1.930   9.076  0.4760  0.2732 -0.9594
13749SOL    HW250026   3.152   2.018   8.955  2.2242  1.2042  0.0123
13750SOL     OW50027   2.354  10.530   2.100 -0.7041 -0.0407  0.4082
13750SOL    HW150028   2.325  10.617   2.073 -0.5730 -0.2395 -0.4073
13750SOL    HW250029   2.444  10.543   2.131 -1.6732  0.6345  3.2592
13751SOL     OW50030   3.872   1.862   8.780  0.5472 -0.4643 -0.3293
13751SOL    HW150031   3.904   1.922   8.847  2.2714 -1.6842  0.0025
13751SOL    HW250032   3.785   1.835   8.811 -1.0633  2.9988 -1.2925
13752SOL     OW50033   5.910   5.286   6.256  0.1734  0.3517  0.2629
13752SOL    HW150034   5.864   5.358   6.211 -1.7704 -0.8090  0.2888
13752SOL    HW250035   5.857   5.209   6.237  2.3933 -1.1665 -0.0248
13753SOL     OW50036   5.795   1.581   7.597 -0.1940  0.2857  0.0947
13753SOL    HW150037   5.839   1.651   7.548 -0.0705 -0.3088 -0.6589
13753SOL    HW250038   5.722   1.625   7.640  0.2291  0.9957  0.1215
13754SOL     OW50039   1.325   5.061  11.529 -0.0960  0.1302  0.2685
13754SOL    HW150040   1.278   5.084  11.449 -0.6780 -0.6135  0.3836
13754SOL    HW250041   1.270   5.092  11.600 -0.7572 -1.2967  0.4199
13755SOL     OW50042   5.784   6.687   2.227 -0.0480 -0.6644  0.0647
13755SOL    HW150043   5.853   6.751   2.208 -0.8707 -0.3008 -1.8580
13755SOL    HW250044   5.739   6.723   2.303 -0.2715  0.9058 -0.7644
13756SOL     OW50045   7.078   1.567  11.113  0.0217 -0.1731 -0.2109
13756SOL    HW150046   7.133   1.537  11.041  0.3341 -0.5064  0.1616
13756SOL    HW250047   7.002   1.606  11.070 -0.0539 -0.8554 -0.7118
13757SOL     OW50048   0.291   1.770   5.651  0.7258  0.0973 -0.0959
13757SOL    HW150049   0.358   1.714   5.691 -1.4995 -1.3712  1.7909
13757SOL    HW250050   0.263   1.722   5.573  1.1348  0.2328 -0.3323
13758SOL     OW50051  11.647   8.913   9.109 -0.0648 -0.1424  0.0827
13758SOL    HW150052  11.570   8.948   9.153  0.1563  2.4116 -1.3151
13758SOL    HW250053  11.721   8.957   9.152  0.4550 -0.9197 -0.0028
13759SOL     OW50054   4.039   8.979   4.436 -0.5985 -0.2321  0.3973
13759SOL    HW150055   3.965   9.030   4.402 -0.0828 -0.0325 -0.4524
13759SOL    HW250056   4.112   9.000   4.377  0.4859  0.5513  1.9204
13760SOL     OW50057  11.758   8.094   0.011  0.0989  0.1208  0.2649
13760SOL    HW150058  11.849   8.108  -0.015 -0.1439 -0.1590 -0.7770
13760SOL    HW250059  11.758   8.008   0.052  0.2359 -0.0497 -0.0886
13761SOL     OW50060   8.774   9.582   2.615  0.0209 -0.2952  0.4049
13761SOL    HW150061   8.696   9.592   2.670 -0.1282 -0.5421  0.2443
13761SOL    HW250062   8.740   9.549   2.531  0.3794 -1.2592  0.6221
13762SOL     OW50063   4.020   2.600   9.632  0.0452  0.0369 -0.5211
13762SOL    HW150064   4.111   2.580   9.656  0.0351  0.7637  0.1879
13762SOL    HW250065   4.027   2.651   9.552  0.2734  0.1605 -0.4250
13763SOL     OW50066  10.789   1.915   6.607  0.2795  0.2715 -0.1714
13763SOL    HW150067  10.751   1.910   6.519 -2.0505 -1.2598  0.8177
13763SOL    HW250068  10.713   1.925   6.665  1.6578  0.0962  1.7461
13764SOL     OW50069   6.495   0.780   7.265 -0.0960 -0.0376 -0.1169
13764SOL    HW150070   6.484   0.721   7.190  0.3530 -0.5616  0.2180
13764SOL    HW250071   6.447   0.859   7.240  1.9693  0.7286 -1.9580
13765SOL     OW50072   5.162   4.898   2.375  0.5165  0.4676  0.3738
13765SOL    HW150073   5.165   4.845   2.455 -1.5369  0.4662  0.4955
13765SOL    HW250074   5.084   4.954   2.386  0.9662  1.4264 -1.0458
13766SOL     OW50075   0.760   5.924  10.536  0.0491 -0.9071  0.0427
13766SOL    HW150076   0.770   5.891  10.447 -0.3088 -1.0321  0.0448
13766SOL    HW250077   0.813   5.865  10.590  0.7440 -0.4765 -0.1538
13767SOL     OW50078   1.898  12.409   0.232  0.4392 -0.3821  0.6914
13767SOL    HW150079   1.991  12.424   0.248  0.4961 -1.1206  1.0995
13767SOL    HW250080   1.859  12.496   0.234  1.0214 -0.1250  1.2313
13768SOL     OW50081  10.314   1.347   3.679  0.3206 -0.0770 -0.5716
13768SOL    HW150082  10.334   1.255   3.695  0.5967 -0.5422 -3.1026
13768SOL    HW250083  10.226   1.346   3.642  0.6052  0.5735 -1.2923
13769SOL     OW50084   7.547   4.234   3.753 -0.1157  0.0859 -0.0438
13769SOL    HW150085   7.491   4.200   3.823  0.2019  2.3472  1.4105
13769SOL    HW250086   7.622   4.174   3.751 -0.7516 -0.7568  0.6602
13770SOL     OW50087   3.347   3.067   9.292  0.6560 -0.4787  0.0536
13770SOL    HW150088   3.364   2.977   9.262  0.0692  0.0703 -2.1775
13770SOL    HW250089   3.418   3.118   9.254  2.1845 -0.1846  3.0161
13771SOL     OW50090   5.500   7.827  12.330  0.1791  0.3358 -0.2569
13771SOL    HW150091   5.566   7.777  12.280  0.6757 -1.2037  1.8208
13771SOL    HW250092   5.419   7.816  12.280  0.9038 -0.0736 -1.3933
13772SOL     OW50093   7.129   9.015   2.162 -0.1098  0.5093  0.2063
13772SOL    HW150094   7.125   8.939   2.104 -4.2644  1.3924 -1.0218
13772SOL    HW250095   7.176   8.983   2.239  2.0185 -1.9392 -1.9031
13773SOL     OW50096   3.769  11.045   4.027 -0.7188  0.5733 -0.3829
13773SOL    HW150097   3.702  11.046   4.095 -2.5106 -0.0035 -2.0403
13773SOL    HW250098   3.721  11.029   3.946  1.3850  0.6573 -1.7370
13774SOL     OW50099   8.055   9.682   0.662  0.2766 -0.0239 -0.3620
13774SOL    HW150100   7.984   9.746   0.666  0.1022 -0.2252  3.0917
13774SOL    HW250101   8.038   9.632   0.582 -0.4527  3.1441 -2.3797
13775SOL     OW50102   0.840   0.626   5.485  0.1903 -0.2112 -0.3034
13775SOL    HW150103   0.910   0.562   5.492 -2.3331 -3.2131 -0.0895
13775SOL    HW250104   0.842   0.672   5.569  1.8263 -0.2432 -0.2930
13776SOL     OW50105   2.466   7.173  12.445  0.2809  0.3137  0.6321
13776SOL    HW150106   2.373   7.182  12.423  0.0310  0.0648  1.5208
13776SOL    HW250107   2.467   7.168  12.541  1.2067  0.2059  0.6253
13777SOL     OW50108   3.098  12.407  10.525 -0.0520 -0.0120 -0.2481
13777SOL    HW150109   3.152  12.487  10.523  0.7095 -0.4985  0.1730
13777SOL    HW250110   3.161  12.336  10.516 -0.4143 -0.6750  1.9681
13778SOL     OW50111   4.126  11.347   7.067  0.2213 -0.3214  0.6611
13778SOL    HW150112   4.151  11.346   6.974 -1.2066  0.0482  0.2496
13778SOL    HW250113   4.208  11.332   7.114  1.1959  0.7480 -0.6122
13779SOL     OW50114   3.551   7.961   8.897 -0.5090 -0.1898  0.8990
13779SOL    HW150115   3.612   8.016   8.945 -0.6127  0.2834  0.5013
13779SOL    HW250116   3.584   7.962   8.807 -0.9575 -0.1313  0.7325
13780SOL     OW50117   3.923   8.532   9.145  0.1880 -0.9530  0.5691
13780SOL    HW150118   3.867   8.496   9.077  0.2422 -0.5399  0.2976
13780SOL    HW250119   3.887   8.500   9.227 -0.0310 -1.2467  0.3560
13781SOL     OW50120   8.949  10.757   4.367 -0.5642  0.2423  0.1871
13781SOL    HW150121   9.037  10.746   4.403  0.8028  0.3310 -2.8461
13781SOL    HW250122   8.946  10.849   4.338 -1.4861  0.1196 -0.1596
13782SOL     OW50123   7.000  11.993   8.419  0.1248 -0.3458 -0.2935
13782SOL    HW150124   7.077  12.032   8.379  0.2717  0.1807  0.4764
13782SOL    HW250125   6.956  12.066   8.462  0.5148 -1.0361  1.3618
13783SOL     OW50126   7.400   9.387   8.561 -0.1619 -0.0164 -0.1726
13783SOL    HW150127   7.347   9.367   8.638 -0.3364 -0.4221 -0.4007
13783SOL    HW250128   7.423   9.480   8.572 -2.8693  0.8577 -1.2613
13784SOL     OW50129   3.731   6.656   1.418 -0.3008 -0.1724  0.3689
13784SOL    HW150130   3.689   6.703   1.347 -0.0260  0.5684  0.6851
13784SOL    HW250131   3.782   6.587   1.375  1.9535  1.8454 -0.4008
13785SOL     OW50132   6.126   3.482  11.459  0.1261 -0.7339  0.1481
13785SOL    HW150133   6.156   3.501  11.370 -0.8708 -0.1265 -0.0698
13785SOL    HW250134   6.033   3.463  11.449 -0.4623  1.3132  1.3075
13786SOL     OW50135  11.916   3.922   7.185  0.1467  0.6302 -0.1610
13786SOL    HW150136  11.861   3.948   7.259 -0.6541 -1.4323  0.0394
13786SOL    HW250137  12.001   3.964   7.202  0.2493 -0.4271  2.3927
13787SOL     OW50138  11.415   6.828   8.750  0.1445 -0.1728  0.3536
13787SOL    HW150139  11.401   6.772   8.827  0.8256 -1.1675 -0.2193
13787SOL    HW250140  11.417   6.917   8.785 -1.6026 -0.4307  1.2180
13788SOL     OW50141  11.990   0.381   9.616  0.6085  0.7051 -0.1276
13788SOL    HW150142  11.936   0.303   9.630  1.8816 -0.0584  0.6982
13788SOL    HW250143  12.067   0.349   9.568 -0.8982  2.2606 -3.9942
13789SOL     OW50144   6.321  12.301   1.676 -0.1232  0.6160  0.1121
13789SOL    HW150145   6.411  12.332   1.685 -1.0090  3.3265  0.5619
13789SOL    HW250146   6.287  12.299   1.766 -1.1788  2.0151 -0.2104
13790SOL     OW50147   7.988   7.818  11.475 -0.7178 -0.1683 -0.6072
13790SOL    HW150148   8.043   7.775  11.540  2.2352  1.4421 -1.8357
13790SOL    HW250149   7.898   7.803  11.505  0.1539 -4.6044  0.5327
13791SOL     OW50150   1.059   7.137   0.060 -0.0262 -0.3180 -0.2661
13791SOL    HW150151   1.129   7.082   0.024 -0.4116  0.3198 -2.1367
13791SOL    HW250152   0.988   7.076   0.080  0.3702 -0.7582 -0.1960
13792SOL     OW50153   5.837   0.098   3.173 -0.0488 -0.1348 -0.8776
13792SOL    HW150154   5.819   0.174   3.229  0.0063 -0.9947  0.3613
13792SOL    HW250155   5.881   0.036   3.231  0.7359 -0.7603 -2.0980
13793SOL     OW50156   2.840   9.586   3.340 -0.6238  0.0736 -0.3900
13793SOL    HW150157   2.844   9.680   3.322  1.3525 -0.1491 -1.4454
13793SOL    HW250158   2.897   9.573   3.415 -0.5527 -0.3200 -0.5079
13794SOL     OW50159   9.907   0.328   0.039 -0.4162  0.2138 -0.5008
13794SOL    HW150160   9.944   0.282   0.114  1.6740  0.6499 -1.2060
13794SOL    HW250161   9.850   0.395   0.078  0.1303  0.0165  0.6721
13795SOL     OW50162   7.633   3.132   9.540  0.1252  0.2502 -0.3213
13795SOL    HW150163   7.705   3.151   9.600 -1.0826  0.1689  1.1925
13795SOL    HW250164   7.634   3.205   9.478  0.6185  0.9929  0.5356
13796SOL     OW50165   6.975   1.175   9.370 -0.3281  0.3866 -0.0013
13796SOL    HW150166   6.908   1.135   9.316 -1.4662 -1.0167  2.2914
13796SOL    HW250167   6.939   1.174   9.459  2.9227 -1.1045  1.5070
13797SOL     OW50168   6.869   9.120  10.595  0.5194 -0.1497 -0.0105
13797SOL    HW150169   6.929   9.104  10.522  0.6207  0.8631 -0.1751
13797SOL    HW250170   6.797   9.058  10.582 -0.2305  1.0234 -1.8793
13798SOL     OW50171  10.539   7.784   7.267  0.6883  0.0018  0.1673
13798SOL    HW150172  10.573   7.784   7.178  1.2390 -0.9155  0.3600
13798SOL    HW250173  10.572   7.865   7.306 -0.0684  0.7181 -0.6356
13799SOL     OW50174   2.044   0.462  12.315 -0.1649 -0.0920 -0.0866
13799SOL    HW150175   2.012   0.518  12.245 -2.7713 -1.5772 -0.2117
13799SOL    HW250176   2.002   0.497  12.394  1.3430  0.4901  0.4899
13800SOL     OW50177   2.276   0.493  11.089 -0.0613 -0.1665 -0.1028
13800SOL    HW150178   2.188   0.468  11.060  0.0849 -0.8295  0.0013
13800SOL    HW250179   2.330   0.485  11.010 -0.2225  0.9434 -0.3383
13801SOL     OW50180   9.135  10.341   2.079  0.0461 -0.1865 -0.0283
13801SOL    HW150181   9.160  10.330   2.171  0.7768 -2.6829 -0.4496
13801SOL    HW250182   9.065  10.406   2.081 -0.0187 -0.2321  2.2906
13802SOL     OW50183  10.851   9.094   5.082 -0.3084 -0.1466 -0.0251
13802SOL    HW150184  10.909   9.170   5.071  1.3736 -1.0280  2.0800
13802SOL    HW250185  10.772   9.130   5.123  0.0464  0.6277 -0.0012
13803SOL     OW50186   4.171  10.405  12.550 -0.0540  0.2506 -0.1321
13803SOL    HW150187   4.171  10.490  12.506  1.6359  0.7987  0.8159
13803SOL    HW250188   4.205  10.344  12.485 -0.7411  0.4078 -0.6421
13804SOL     OW50189  10.209   6.950   0.980  0.1076 -0.2578  0.9412
13804SOL    HW150190  10.270   6.955   1.054  1.8423 -1.6014 -0.3314
13804SOL    HW250191  10.183   7.041   0.964  0.3956  0.1464  2.5980
13805SOL     OW50192   0.414   7.143   5.971 -0.1697  0.8158  0.2132
13805SOL    HW150193   0.477   7.124   5.902 -0.9363 -0.2456 -0.2371
13805SOL    HW250194   0.466   7.175   6.045  0.9696 -0.6089  0.0636
13806SOL     OW50195   7.792   7.272   2.845  0.1244  0.1212 -0.0737
13806SOL    HW150196   7.854   7.341   2.867 -0.0333  0.4033 -0.4894
13806SOL    HW250197   7.707   7.315   2.844  0.1339  0.1541 -1.3010
13807SOL     OW50198  12.134   6.380   6.679  0.0563 -0.2164 -0.8082
13807SOL    HW150199  12.097   6.341   6.759  1.0945 -0.1274 -0.2699
13807SOL    HW250200  12.120   6.313   6.612  1.3947 -1.3884  0.0045
13808SOL     OW50201   3.427   8.677  11.472 -0.5408  0.2960 -0.4389
13808SOL    HW150202   3.408   8.694  11.379 -1.6165 -1.3813 -0.5679
13808SOL    HW250203   3.358   8.725  11.519  0.0857  1.2598 -0.4735
13809SOL     OW50204   4.251   4.477   0.116  0.1666 -0.7677  0.1778
13809SOL    HW150205   4.167   4.438   0.138 -0.1780 -0.3754 -0.4358
13809SOL    HW250206   4.314   4.405   0.122  0.0441 -0.7791  2.0635
13810SOL     OW50207   2.879   3.696  11.657  0.0052 -0.1369 -0.4873
13810SOL    HW150208   2.855   3.772  11.710 -0.2086  1.2188 -2.4364
13810SOL    HW250209   2.832   3.707  11.575 -0.2813 -2.5738 -0.7360
13811SOL     OW50210   8.665  12.390   2.159  0.1331 -0.1547 -0.5205
13811SOL    HW150211   8.614  12.466   2.186  0.3249 -0.1323 -0.2123
13811SOL    HW250212   8.640  12.375   2.068  0.6634  0.7507 -0.8326
13812SOL     OW50213   3.421   3.860   9.124  0.5141  0.6273  0.6083
13812SOL    HW150214   3.456   3.917   9.055  0.3078 -0.2184 -0.2025
13812SOL    HW250215   3.328   3.881   9.127  0.5020  0.5823  0.5497
13813SOL     OW50216   0.280  11.910   3.075  0.1199 -0.1493 -0.3687
13813SOL    HW150217   0.191  11.877   3.078  0.3119 -0.7737 -1.1039
13813SOL    HW250218   0.278  11.980   3.010  0.2436 -0.4387 -0.6887
13814SOL     OW50219   1.113   1.626   5.384  0.1116 -0.4478 -0.5049
13814SOL    HW150220   1.020   1.642   5.399  0.5520  0.3267  1.8424
13814SOL    HW250221   1.119   1.532   5.368 -0.7954 -1.2107  2.8404
13815SOL     OW50222   5.845   0.651   5.876  0.0897 -0.6878  0.1301
13815SOL    HW150223   5.828   0.735   5.919 -0.7629 -1.1856  0.7967
13815SOL    HW250224   5.823   0.586   5.942  2.0572 -1.4391  0.1034
13816SOL     OW50225   2.253   0.812   5.114 -0.1127  0.0367  0.2276
13816SOL    HW150226   2.297   0.856   5.041  0.6420  0.5467  0.9670
13816SOL    HW250227   2.200   0.880   5.155 -0.5223 -0.2436  0.1667
13817SOL     OW50228   5.717   7.833   9.371 -0.3726 -0.1639 -0.5266
13817SOL    HW150229   5.677   7.772   9.434 -1.8789  0.2056 -1.0909
13817SOL    HW250230   5.731   7.913   9.421 -0.4092 -0.2745 -0.3392
13818SOL     OW50231   0.220   9.699   9.283  0.0305 -0.9818 -0.3237
13818SOL    HW150232   0.251   9.619   9.326 -0.5302 -0.6146  0.8236
13818SOL    HW250233   0.124   9.692   9.285 -0.0224 -0.3444 -0.3168
13819SOL     OW50234   7.718   4.254   8.415  0.1036 -0.6011  0.1564
13819SOL    HW150235   7.638   4.257   8.363 -1.3151  2.0874  2.2584
13819SOL    HW250236   7.739   4.161   8.421 -0.6764 -1.1614 -3.5432
13820SOL     OW50237   5.499   7.775   9.052  0.2199 -0.0376 -0.3505
13820SOL    HW150238   5.422   7.740   9.009 -1.9782  2.9549  0.8239
13820SOL    HW250239   5.541   7.829   8.985  0.4924 -0.5149 -0.5692
13821SOL     OW50240   3.988   0.335   4.620  0.0859 -0.1437 -0.4255
13821SOL    HW150241   3.942   0.258   4.652  2.6540 -0.7874  2.1154
13821SOL    HW250242   3.997   0.391   4.697  3.1353  0.0780 -0.8247
13822SOL     OW50243   9.095   0.573   8.045  0.2530  0.1938  1.2616
13822SOL    HW150244   9.019   0.519   8.065  0.0238  0.1486  0.2843
13822SOL    HW250245   9.063   0.639   7.984  1.3059 -0.7328 -0.3551
13823SOL     OW50246   0.799   6.148  12.012 -0.1339  0.1171  0.0886
13823SOL    HW150247   0.708   6.176  12.022 -0.4334 -0.7060 -0.2395
13823SOL    HW250248   0.799   6.057  12.042 -0.0156 -0.7934 -2.4169
13824SOL     OW50249   9.155   1.219  11.676  0.6733  0.3215  0.0026
13824SOL    HW150250   9.068   1.254  11.653  0.9321  1.0626  0.1137
13824SOL    HW250251   9.214   1.256  11.610  0.4075 -3.1857 -2.4584
13825SOL     OW50252  10.373   9.156   1.184 -0.2111 -0.5940  0.5698
13825SOL    HW150253  10.280   9.169   1.200 -0.5312 -1.3219 -0.5633
13825SOL    HW250254  10.411   9.244   1.192 -1.1965 -0.0746 -0.1686
13826SOL     OW50255  11.349   8.610  10.117 -0.4960 -0.2789  0.2918
13826SOL    HW150256  11.412   8.569  10.177  0.2584  1.2136  0.5769
13826SOL    HW250257  11.337   8.546  10.047  1.0243 -0.7885  0.4633
13827SOL     OW50258   7.823   1.616   1.862 -0.1033 -0.2838  0.1404
13827SOL    HW150259   7.808   1.701   1.820 -0.8547  0.0037  0.9535
13827SOL    HW250260   7.773   1.621   1.944  0.3350 -1.2865  0.4820
13828SOL     OW50261   9.543   1.609   1.762 -0.1487  0.6481 -0.1414
13828SOL    HW150262   9.580   1.541   1.818 -0.7043  0.1255 -0.3998
13828SOL    HW250263   9.487   1.660   1.820 -0.3405  0.4042 -0.1091
13829SOL     OW50264   2.012   8.386   9.598 -0.0216 -0.3978 -0.1759
13829SOL    HW150265   2.011   8.478   9.571  0.3351 -1.2166 -3.4468
13829SOL    HW250266   1.921   8.358   9.594  0.1663 -0.8613 -2.1428
13830SOL     OW50267  11.817   2.289   3.606  0.3308 -0.1320 -0.3955
13830SOL    HW150268  11.893   2.280   3.548 -0.4848 -1.2304 -1.3386
13830SOL    HW250269  11.855   2.309   3.692  1.7045 -0.8448 -0.8005
13831SOL     OW50270   2.485   1.580   6.647  0.1631  0.3532  0.2336
13831SOL    HW150271   2.391   1.588   6.630  0.4570 -0.6545 -2.2607
13831SOL    HW250272   2.496   1.490   6.677  0.2783  0.6578  1.1297
13832SOL     OW50273   1.746  11.093   0.559  1.0300 -0.1516  0.0126
13832SOL    HW150274   1.721  11.130   0.644  1.7605 -1.1909  0.7055
13832SOL    HW250275   1.842  11.099   0.558  0.9509  1.7536 -1.6501
13833SOL     OW50276   1.615   4.658   6.311 -0.2944  0.2102  0.1237
13833SOL    HW150277   1.674   4.645   6.386 -0.6496 -2.0850  0.0737
13833SOL    HW250278   1.671   4.688   6.241  0.7617 -1.3285  0.2604
13834SOL     OW50279   4.396   2.195  11.203 -0.0134 -0.1285 -0.1832
13834SOL    HW150280   4.382   2.158  11.115 -0.1263  0.7266 -0.5355
13834SOL    HW250281   4.308   2.222  11.231  0.3487  2.0469 -0.9407
13835SOL     OW50282   4.063   8.423   0.177  0.4779  0.0618  0.2354
13835SOL    HW150283   4.004   8.376   0.117  0.0815  1.0990 -0.2029
13835SOL    HW250284   4.141   8.440   0.125  0.7586 -0.4092  0.5006
13836SOL     OW50285   1.280   2.165   9.631  0.4652  0.2645 -0.2684
13836SOL    HW150286   1.268   2.259   9.642  1.5855  0.3562  0.2677
13836SOL    HW250287   1.253   2.127   9.714  0.4238  0.1520 -0.3323
13837SOL     OW50288  12.153   4.928   5.282  0.6870 -0.0204 -0.2963
13837SOL    HW150289  12.135   4.850   5.230 -2.2978  0.5682 -0.3071
13837SOL    HW250290  12.103   4.998   5.239  2.9916  1.8866 -0.0850
13838SOL     OW50291  12.130   5.339  10.246 -0.5475 -0.4242 -0.3719
13838SOL    HW150292  12.112   5.355  10.154  0.9662  0.7747 -0.4936
13838SOL    HW250293  12.089   5.412  10.292  0.6360  0.2296 -0.3219
13839SOL     OW50294   4.846   8.910  11.182  0.0038 -0.0507  0.2259
13839SOL    HW150295   4.933   8.924  11.144  0.1499 -0.0693  0.5516
13839SOL    HW250296   4.800   8.993  11.167 -0.1151 -0.2249 -0.4377
13840SOL     OW50297   3.968   3.273   6.058  0.2021  0.7114  0.2622
13840SOL    HW150298   4.010   3.345   6.011  0.4646  0.9113  0.7879
13840SOL    HW250299   3.898   3.315   6.109 -0.1581  0.4815 -0.0386
13841SOL     OW50300   6.251   0.139   8.423 -0.4076  0.3874 -0.3375
13841SOL    HW150301   6.284   0.058   8.461 -0.4336  0.5334  0.0102
13841SOL    HW250302   6.167   0.153   8.467 -0.1275  0.9076  0.0490
13842SOL     OW50303   4.515   8.471   9.577 -0.3625  0.2650 -0.0727
13842SOL    HW150304   4.448   8.405   9.556 -0.7030 -0.4251  2.7792
13842SOL    HW250305   4.474   8.554   9.553 -0.9644 -0.3418 -1.2754
13843SOL     OW50306   5.722   5.080   8.062  0.2324  0.1780 -0.4435
13843SOL    HW150307   5.691   5.169   8.043 -0.7124  0.3181  1.5168
13843SOL    HW250308   5.774   5.056   7.985 -0.6689  1.8690 -1.6529
13844SOL     OW50309   1.833   7.763   6.966  0.0775  0.7097  0.1687
13844SOL    HW150310   1.905   7.745   7.026  1.5895 -1.3871 -2.0593
13844SOL    HW250311   1.868   7.828   6.905 -0.4274  0.7692 -0.0633
13845SOL     OW50312   5.686   0.751   3.480 -0.2718  0.3008 -0.1085
13845SOL    HW150313   5.655   0.803   3.406 -0.8189  1.2796  0.7821
13845SOL    HW250314   5.659   0.800   3.557  0.2992 -0.6897  0.7539
13846SOL     OW50315   7.539   3.212  12.112 -0.5552 -0.4227  0.3018
13846SOL    HW150316   7.542   3.156  12.034  0.2985  0.0021  0.0262
13846SOL    HW250317   7.476   3.281  12.089 -0.0266 -0.0902 -0.1522
13847SOL     OW50318   6.529   7.548   7.933  1.1147 -0.1023 -0.6247
13847SOL    HW150319   6.500   7.627   7.980  1.0384 -0.9560  0.8391
13847SOL    HW250320   6.449   7.506   7.904  1.0078 -0.7225  0.4869
13848SOL     OW50321   9.685   2.949   7.489  0.7162 -0.2868 -0.4562
13848SOL    HW150322   9.718   3.003   7.417 -0.5494  1.7097  0.3825
13848SOL    HW250323   9.754   2.955   7.556 -0.1088  1.7773  0.2942
13849SOL     OW50324   6.680   5.928   0.440  0.6661  0.0192 -0.0724
13849SOL    HW150325   6.734   5.907   0.364  1.1682  0.3325  0.1907
13849SOL    HW250326   6.736   5.982   0.495 -0.0920  0.8113 -0.0428
13850SOL     OW50327   0.932  11.892  10.124 -0.4254 -0.7550  0.0772
13850SOL    HW150328   0.959  11.802  10.139  0.7590 -0.4892 -0.3817
13850SOL    HW250329   0.973  11.917  10.042 -0.3144  0.3595  0.4459
13851SOL     OW50330   4.169  10.165  10.531 -0.3103 -0.0635  0.1758
13851SOL    HW150331   4.081  10.187  10.500 -0.8447 -2.1712  0.0649
13851SOL    HW250332   4.186  10.078  10.496  1.4775 -0.0631  0.9279
13852SOL     OW50333  10.778   0.020   3.144  0.1738 -0.1682 -0.0945
13852SOL    HW150334  10.754  -0.071   3.163 -1.7869  0.4632  0.6861
13852SOL    HW250335  10.788   0.023   3.049  3.0640 -1.7704  0.0323
13853SOL     OW50336   7.212   4.229   9.613 -0.2598  1.0404 -0.6170
13853SOL    HW150337   7.285   4.199   9.668 -1.8036 -0.9865  0.4522
13853SOL    HW250338   7.194   4.318   9.645 -0.8808  0.0695  2.0041
13854SOL     OW50339   1.147  10.944   2.821 -0.7189  0.4070  0.2532
13854SOL    HW150340   1.112  11.016   2.768 -0.4350  0.6747  0.4260
13854SOL    HW250341   1.081  10.876   2.815  0.2834 -0.4501 -2.2615
13855SOL     OW50342   6.787   7.526   2.877  0.0981  0.2997  1.2290
13855SOL    HW150343   6.822   7.507   2.964 -1.7468  0.6166  2.0965
13855SOL    HW250344   6.695   7.499   2.882 -0.0362  0.2645 -0.6568
13856SOL     OW50345   7.900   9.197  10.052  0.4590  0.1516  0.0242
13856SOL    HW150346   7.910   9.288  10.025  1.1246  0.5375  1.4331
13856SOL    HW250347   7.970   9.184  10.117  1.4129 -1.8525 -1.3151
13857SOL     OW50348   2.568   5.913   7.999  0.6751 -0.5867 -0.0702
13857SOL    HW150349   2.539   5.824   7.980  1.0744 -1.3026  2.3531
13857SOL    HW250350   2.583   5.952   7.913 -0.8312 -2.3907 -1.2185
13858SOL     OW50351  11.292   3.602  12.577 -0.0940 -0.0527  0.1071
13858SOL    HW150352  11.298   3.690  12.614 -1.5890  0.5108 -0.8971
13858SOL    HW250353  11.202   3.575  12.596  0.0676 -0.9916 -0.4159
13859SOL     OW50354   1.252  12.483   7.795 -0.3695  0.2803  0.0722
13859SOL    HW150355   1.175  12.431   7.815 -0.1237 -0.7776 -1.5389
13859SOL    HW250356   1.221  12.549   7.732 -0.1800  0.5400  0.2484
13860SOL     OW50357   6.314   6.545   7.116 -0.6816  0.2593 -0.6688
13860SOL    HW150358   6.271   6.490   7.183 -0.6288  1.3339  0.2782
13860SOL    HW250359   6.291   6.503   7.033 -1.3507 -0.7091 -0.0246
13861SOL     OW50360   1.811   4.053   9.463 -0.0192  0.1081 -0.3143
13861SOL    HW150361   1.844   4.085   9.546 -0.4248 -1.3121  0.4256
13861SOL    HW250362   1.743   3.989   9.486 -1.4050  0.9779 -1.7568
13862SOL     OW50363   3.958   8.974   6.690 -0.0779 -0.3476  0.2961
13862SOL    HW150364   3.939   9.065   6.665  0.5977 -0.0524  0.8287
13862SOL    HW250365   3.871   8.935   6.704 -0.3755  0.1883 -0.0182
13863SOL     OW50366   1.053   1.724   1.734 -0.2443  0.0186  0.1177
13863SOL    HW150367   1.120   1.789   1.710  0.4506 -0.0690  1.7258
13863SOL    HW250368   0.976   1.749   1.682  0.0739  2.0191  0.5134
13864SOL     OW50369   5.740   1.440   3.443 -0.5193 -0.1100  0.1333
13864SOL    HW150370   5.768   1.523   3.482  1.4477 -0.8498  0.4104
13864SOL    HW250371   5.664   1.413   3.495 -1.1656  1.4712  0.0619
13865SOL     OW50372  12.527   1.379   9.635  0.2982 -0.4026 -0.0543
13865SOL    HW150373  12.468   1.341   9.570  1.8494 -4.1670  0.4680
13865SOL    HW250374  12.589   1.431   9.583  1.6123 -3.4651 -1.7987
13866SOL     OW50375   2.306   1.174   5.801  0.6444  0.1316 -0.2063
13866SOL    HW150376   2.293   1.081   5.822 -1.3392  0.3835 -0.1305
13866SOL    HW250377   2.312   1.176   5.706 -0.9444  0.0563 -0.3358
13867SOL     OW50378   7.971   9.865   4.952 -0.1670 -0.3564 -0.2279
13867SOL    HW150379   7.950   9.803   5.022 -0.8865  0.0898 -0.0414
13867SOL    HW250380   7.886   9.903   4.928  0.1825  0.0653 -0.8004
13868SOL     OW50381   3.292   2.806   9.922 -0.1069  0.3405 -0.1735
13868SOL    HW150382   3.351   2.757   9.865  0.9143  4.4555 -3.1057
13868SOL    HW250383   3.218   2.830   9.866 -1.0598  1.2541  1.3820
13869SOL     OW50384   2.948   3.609   8.449 -0.6256  0.0688 -0.2561
13869SOL    HW150385   2.929   3.695   8.410 -0.4382 -0.6898 -2.0983
13869SOL    HW250386   2.940   3.547   8.376 -1.4398 -1.5817  1.1785
13870SOL     OW50387   3.397  10.262   7.645 -0.1625  0.0780 -0.0956
13870SOL    HW150388   3.444  10.206   7.584 -0.0882 -0.4183  0.4091
13870SOL    HW250389   3.414  10.224   7.731  2.1933  2.4415  0.6137
13871SOL     OW50390  11.667   7.180   3.399  0.1757 -0.4760  0.6208
13871SOL    HW150391  11.686   7.199   3.491  1.8695 -0.5075  0.3130
13871SOL    HW250392  11.608   7.250   3.372 -0.1314 -0.3110  1.6508
13872SOL     OW50393   3.962   0.604   7.017  0.1331  0.1710 -0.2638
13872SOL    HW150394   3.933   0.527   6.967 -0.1770  0.9385 -1.3029
13872SOL    HW250395   4.044   0.576   7.058 -0.6237 -1.1302  0.4407
13873SOL     OW50396   2.103   0.050   8.838  1.1398 -0.4113  0.2272
13873SOL    HW150397   2.051   0.088   8.909  0.8864  0.1659 -0.2545
13873SOL    HW250398   2.192   0.046   8.873  1.0098 -0.1794  0.5974
13874SOL     OW50399   5.725   1.911   3.587 -0.2958 -0.6284 -0.1491
13874SOL    HW150400   5.801   1.909   3.528  0.0010  0.4747  0.1728
13874SOL    HW250401   5.684   1.825   3.576  1.9472 -1.9224  0.9501
13875SOL     OW50402   2.289  10.030   1.576  0.1535  0.1482 -0.2104
13875SOL    HW150403   2.198  10.003   1.558  0.6320 -1.0467 -0.9719
13875SOL    HW250404   2.290  10.049   1.670 -0.4431 -1.7085  0.2127
13876SOL     OW50405   5.452   4.713   6.707  0.4104 -0.5691  0.1860
13876SOL    HW150406   5.543   4.736   6.728  0.0695  1.4721 -0.4088
13876SOL    HW250407   5.416   4.791   6.664 -1.0181 -2.0714 -1.5220
13877SOL     OW50408   4.549   4.912   8.874 -0.1412  0.1678 -0.0247
13877SOL    HW150409   4.528   4.820   8.861  0.3885  0.3149 -2.5488
13877SOL    HW250410   4.609   4.913   8.948 -1.3606 -1.3170  1.0273
13878SOL     OW50411   3.403   9.671   5.110  0.1855 -0.3484  0.2246
13878SOL    HW150412   3.395   9.577   5.096 -2.7031 -0.3548  1.1338
13878SOL    HW250413   3.393   9.682   5.205 -2.8771  0.9784 -0.1250
13879SOL     OW50414  11.506   1.467  12.543  0.3057 -0.6270 -0.4695
13879SOL    HW150415  11.471   1.556  12.537 -1.5729 -1.3761 -1.7627
13879SOL    HW250416  11.500   1.445  12.636 -0.0995  0.2568 -0.2731
13880SOL     OW50417  11.144   1.686   0.351  0.3632  0.0655  0.1800
13880SOL    HW150418  11.172   1.721   0.436  0.5567 -1.0868  0.6067
13880SOL    HW250419  11.067   1.633   0.371 -1.2447  1.8785 -0.7600
13881SOL     OW50420   0.737   1.899  11.110  0.2506 -0.0363  0.6550
13881SOL    HW150421   0.752   1.953  11.187  1.0889 -1.0254  1.1948
13881SOL    HW250422   0.669   1.946  11.061  3.0369  3.2578 -0.5292
13882SOL     OW50423   2.621  10.291   2.455 -0.1028 -0.5047 -0.3443
13882SOL    HW150424   2.532  10.308   2.422  0.0972 -2.0906 -1.8598
13882SOL    HW250425   2.665  10.247   2.382  2.1554  0.8420  0.1393
13883SOL     OW50426   0.598   2.697   9.840 -0.2416 -0.2105  0.1345
13883SOL    HW150427   0.668   2.637   9.812  0.9776  1.1006  0.2445
13883SOL    HW250428   0.550   2.648   9.907  2.1171 -0.2921  1.8895
13884SOL     OW50429   1.463   0.748   3.835  0.0566 -0.1419  0.1320
13884SOL    HW150430   1.392   0.804   3.806 -1.6302 -1.9282  0.6172
13884SOL    HW250431   1.513   0.729   3.755 -1.4628 -0.8190 -0.6835
13885SOL     OW50432   1.099   6.714  10.461  0.1763 -0.7231  0.1425
13885SOL    HW150433   1.106   6.785  10.398 -0.2803 -0.7035  0.1123
13885SOL    HW250434   1.153   6.643  10.423  0.2928 -0.5438 -0.0296
13886SOL     OW50435   8.327   8.125   1.909 -0.0885 -0.1503  0.1573
13886SOL    HW150436   8.322   8.169   1.824  0.8369 -1.1286 -0.4233
13886SOL    HW250437   8.368   8.040   1.890  0.5539 -0.1994  1.6565
13887SOL     OW50438   1.504   9.489   0.374  0.2126 -0.1928 -0.2033
13887SOL    HW150439   1.449   9.428   0.325 -0.5044  0.1280  0.1920
13887SOL    HW250440   1.593   9.473   0.341 -0.1809 -0.3629 -1.2061
13888SOL     OW50441   7.623   0.157   0.473  0.1903  0.2559 -0.4551
13888SOL    HW150442   7.548   0.203   0.437 -0.7713 -1.0488 -0.1828
13888SOL    HW250443   7.661   0.110   0.398 -0.1226 -0.2134 -0.3227
13889SOL     OW50444   1.691  11.814   7.729  0.4803 -0.7159 -0.0280
13889SOL    HW150445   1.716  11.755   7.657  1.8346  0.6831 -0.7790
13889SOL    HW250446   1.771  11.823   7.780  0.2207  0.2465  0.2200
13890SOL     OW50447   1.203   5.912   0.896  0.0897 -0.1278 -0.2883
13890SOL    HW150448   1.184   5.876   0.982  0.7070 -1.8107 -0.8274
13890SOL    HW250449   1.178   5.843   0.834 -0.2280  0.9943 -1.4653
13891SOL     OW50450   7.076   1.831   1.940  0.1719  0.0209 -0.2899
13891SOL    HW150451   7.078   1.910   1.885 -1.0498 -0.4985 -1.1401
13891SOL    HW250452   7.138   1.771   1.898 -0.1044 -0.0491 -0.6098
13892SOL     OW50453   7.187  12.606   5.819 -0.2018  0.6422 -0.0802
13892SOL    HW150454   7.161  12.514   5.821 -0.5920  0.7448 -0.3359
13892SOL    HW250455   7.269  12.609   5.869  1.3952 -0.3666 -2.4448
13893SOL     OW50456   0.254   1.189   6.391  0.6475  0.3708 -0.1066
13893SOL    HW150457   0.202   1.259   6.428  1.1649  0.1918  1.0018
13893SOL    HW250458   0.333   1.186   6.445  0.5195 -1.2324  0.0504
13894SOL     OW50459  10.178  10.090   0.619 -0.0401  0.3127  0.2393
13894SOL    HW150460  10.090  10.054   0.632 -0.1156 -0.6101 -2.2607
13894SOL    HW250461  10.170  10.145   0.542  1.3338  1.2299  0.7199
13895SOL     OW50462   6.079  10.842   7.834 -0.0667 -0.2315  0.2180
13895SOL    HW150463   6.111  10.910   7.774 -0.0946 -0.9690 -0.6490
13895SOL    HW250464   6.132  10.765   7.814 -0.8069 -0.7968  0.3944
13896SOL     OW50465   7.575   2.744   5.064 -0.0274  0.4650  0.0004
13896SOL    HW150466   7.649   2.745   5.125 -1.2225 -1.3746  1.5756
13896SOL    HW250467   7.499   2.767   5.118 -1.0443 -0.7330 -0.8722
13897SOL     OW50468   9.268  11.896   4.477  0.5095  0.2726  0.0532
13897SOL    HW150469   9.263  11.802   4.459 -0.6924  0.1676  0.8143
13897SOL    HW250470   9.347  11.925   4.432  0.7268 -1.0436 -0.4556
13898SOL     OW50471  11.727   4.280   8.941  0.5582 -0.4808  0.0210
13898SOL    HW150472  11.704   4.237   9.024 -1.4730 -1.3722 -0.9316
13898SOL    HW250473  11.718   4.374   8.960 -3.0636 -0.7148  0.0809
13899SOL     OW50474   8.289   5.789   2.709 -0.3833 -0.1664 -0.2771
13899SOL    HW150475   8.370   5.819   2.748 -0.6619  1.1047 -0.6285
13899SOL    HW250476   8.314   5.714   2.655  0.8009  1.0411 -1.4721
13900SOL     OW50477   2.001  11.362   2.468 -0.0133  0.2185  0.0976
13900SOL    HW150478   1.985  11.313   2.548 -0.2359 -0.1829 -0.1911
13900SOL    HW250479   1.919  11.357   2.420  0.5786 -0.8565 -0.8578
13901SOL     OW50480  12.501   9.101   0.066 -0.7252  0.0669 -0.0487
13901SOL    HW150481  12.469   9.163   0.000 -1.8203 -0.2841  0.1198
13901SOL    HW250482  12.435   9.031   0.066  0.5058 -1.1380 -0.2843
13902SOL     OW50483   6.605   0.146  10.761 -0.0222 -0.0624 -0.2472
13902SOL    HW150484   6.688   0.134  10.714  0.3391 -1.5312  0.6939
13902SOL    HW250485   6.541   0.097  10.710 -0.4639  1.5097 -1.2668
13903SOL     OW50486   2.291  10.317   0.629  0.7276 -0.3109  0.4716
13903SOL    HW150487   2.233  10.362   0.567  2.2643 -1.9341 -2.3572
13903SOL    HW250488   2.232  10.263   0.682 -0.4812 -1.0844 -1.5495
13904SOL     OW50489  11.740   4.663   9.427  0.2456 -0.2540 -0.1149
13904SOL    HW150490  11.722   4.756   9.444 -0.6921 -0.5364  0.5254
13904SOL    HW250491  11.774   4.629   9.509 -1.7500 -1.0145  0.4601
13905SOL     OW50492   3.035   7.003   0.403  0.2248  0.0534 -0.3296
13905SOL    HW150493   3.108   6.979   0.347 -0.3715 -0.8366 -0.7474
13905SOL    HW250494   3.005   7.087   0.369  1.2426  0.5825  0.0508
13906SOL     OW50495   4.811   3.762  10.277 -0.1233 -0.3812 -0.8267
13906SOL    HW150496   4.815   3.682  10.330  1.2743 -0.2554 -0.7114
13906SOL    HW250497   4.718   3.786  10.277 -0.3479 -1.1647  0.4036
13907SOL     OW50498   2.678  11.594   6.120 -0.5886  0.3308 -0.0880
13907SOL    HW150499   2.592  11.634   6.128  0.0942  2.0045 -0.6108
13907SOL    HW250500   2.719  11.606   6.205 -1.1266 -1.2133  0.4325
13908SOL     OW50501   6.644  11.638   0.318  0.1490 -0.4764  0.3304
13908SOL    HW150502   6.732  11.607   0.297  0.3678  0.6606 -0.5429
13908SOL    HW250503   6.649  11.733   0.308 -1.1730 -0.3936  0.2664
13909SOL     OW50504   3.446   9.300   7.615 -0.0780  0.3344 -0.5131
13909SOL    HW150505   3.386   9.287   7.689  1.4658 -0.1204  0.7304
13909SOL    HW250506   3.394   9.279   7.538 -1.5658  0.1566  0.4861
13910SOL     OW50507   2.639   3.370   4.052 -0.0568  0.2776 -0.0591
13910SOL    HW150508   2.641   3.450   4.000 -0.5939  0.3131 -0.0300
13910SOL    HW250509   2.601   3.304   3.994  0.4504  0.0258 -0.1075
13911SOL     OW50510   8.767   0.787  11.079 -0.3162 -0.2105  0.1312
13911SOL    HW150511   8.798   0.699  11.054  0.2415 -0.3041  1.0839
13911SOL    HW250512   8.787   0.842  11.003  1.3358 -0.4845  0.3289
13912SOL     OW50513  11.906   8.518  12.232  0.2049  0.0004  0.1590
13912SOL    HW150514  11.966   8.477  12.294 -1.3056 -0.9759  1.0439
13912SOL    HW250515  11.870   8.593  12.279  0.7448  0.6191 -0.3885
13913SOL     OW50516   1.172   2.064  10.428 -0.1681 -0.5970 -0.0993
13913SOL    HW150517   1.226   2.130  10.471 -0.7046 -0.4308  0.3151
13913SOL    HW250518   1.115   2.030  10.497 -1.5263  0.1643 -0.8269
13914SOL     OW50519   1.305   5.577   1.137  0.3137 -0.0027 -0.5101
13914SOL    HW150520   1.290   5.484   1.118  2.0935 -0.4115 -0.0342
13914SOL    HW250521   1.397   5.592   1.116  0.1385  1.5833 -0.2652
13915SOL     OW50522   2.788   2.430   2.507 -0.1077  0.0335  0.3794
13915SOL    HW150523   2.798   2.412   2.414 -3.6235 -0.4699 -0.0417
13915SOL    HW250524   2.851   2.500   2.525  1.3273 -0.5019 -2.1094
13916SOL     OW50525   8.643   1.337   0.970  0.6456  0.2022  0.1630
13916SOL    HW150526   8.685   1.262   1.011  0.1094 -0.2812 -0.1648
13916SOL    HW250527   8.710   1.373   0.911  0.8302 -0.1512  0.1583
13917SOL     OW50528   6.250   6.340   9.109 -0.0217 -0.1688 -0.1808
13917SOL    HW150529   6.155   6.326   9.110 -0.0701  0.1172 -0.6160
13917SOL    HW250530   6.261   6.429   9.142  0.2602 -0.9958  2.1938
13918SOL     OW50531   4.513   1.910   1.904 -0.1905  0.6013 -0.9365
13918SOL    HW150532   4.432   1.956   1.882 -0.0009  0.5668 -1.7457
13918SOL    HW250533   4.583   1.973   1.884  0.1911 -0.5827 -3.8257
13919SOL     OW50534   2.090   0.623  10.713 -0.3936 -0.5641  0.4185
13919SOL    HW150535   2.064   0.582  10.631 -1.2281  0.0697  0.3466
13919SOL    HW250536   2.136   0.703  10.686 -2.7728  0.9173  0.5270
13920SOL     OW50537   7.337   1.466   6.763  0.4300  0.1281  0.3296
13920SOL    HW150538   7.334   1.514   6.846 -1.0493 -0.9382  0.9430
13920SOL    HW250539   7.338   1.374   6.788 -3.7830 -0.4068 -0.7055
13921SOL     OW50540   6.387   0.376  12.529  0.0491  0.0234 -0.1139
13921SOL    HW150541   6.292   0.376  12.516 -0.0381  0.1004  0.5023
13921SOL    HW250542   6.416   0.458  12.488  0.3875 -1.7044 -3.8195
13922SOL     OW50543  10.345   7.137   8.883 -0.2112  0.3452 -0.5055
13922SOL    HW150544  10.374   7.226   8.866  1.0957  0.0443  0.0594
13922SOL    HW250545  10.410   7.082   8.839 -0.9878 -0.3471 -0.8279
13923SOL     OW50546  10.245   6.685   8.039  0.6814  0.1202 -0.2703
13923SOL    HW150547  10.251   6.597   8.003 -0.5347 -1.5727  3.1767
13923SOL    HW250548  10.310   6.686   8.110  1.1494  2.2787 -0.6700
13924SOL     OW50549   1.274   0.430   8.686  0.1130 -0.2945  0.0594
13924SOL    HW150550   1.324   0.415   8.606  0.6860 -0.1845  0.3918
13924SOL    HW250551   1.197   0.373   8.677 -0.6288  0.8462 -1.2542
13925SOL     OW50552   6.730   4.622   5.059 -0.5173 -0.4967 -0.3656
13925SOL    HW150553   6.781   4.656   5.133 -1.7927  0.8486 -0.0547
13925SOL    HW250554   6.786   4.637   4.983 -1.0876  2.7521 -0.3045
13926SOL     OW50555   9.743   1.481  10.668 -0.3612  0.9413 -0.1603
13926SOL    HW150556   9.723   1.543  10.738 -1.2963  1.1564 -0.6031
13926SOL    HW250557   9.774   1.535  10.595  1.4467  0.6520  0.3387
13927SOL     OW50558  11.498   2.735   6.897  0.7355  0.2672 -0.1720
13927SOL    HW150559  11.470   2.655   6.942 -0.6693 -0.4388 -2.1782
13927SOL    HW250560  11.590   2.746   6.923  1.2589 -2.5270 -0.5616
13928SOL     OW50561   4.584   1.974   4.132  0.0407  0.4739 -0.1980
13928SOL    HW150562   4.510   1.972   4.072  1.6747  0.3720 -2.3360
13928SOL    HW250563   4.590   2.065   4.161 -0.5673  0.6013 -0.4572
13929SOL     OW50564  10.580   6.685   2.152 -0.2066 -0.3072 -0.2420
13929SOL    HW150565  10.651   6.643   2.103  0.6547 -1.4051  1.8347
13929SOL    HW250566  10.593   6.657   2.242 -1.5658  1.8467  0.7054
13930SOL     OW50567   6.275   8.040   4.033 -0.3057  0.1702 -0.1685
13930SOL    HW150568   6.323   8.080   3.961 -0.2195 -1.4875 -1.0807
13930SOL    HW250569   6.205   7.991   3.991  0.9407 -2.5099  0.6471
13931SOL     OW50570   7.777   0.162   3.116  0.4998  0.0320  0.1375
13931SOL    HW150571   7.693   0.142   3.157 -0.5052 -0.6933 -2.1358
13931SOL    HW250572   7.794   0.254   3.139 -1.1387  0.3345  0.2540
13932SOL     OW50573   0.306   8.484   0.781  0.1673  0.1318  0.0340
13932SOL    HW150574   0.287   8.424   0.708 -0.7808  0.9588 -0.4122
13932SOL    HW250575   0.231   8.475   0.839  0.3418  0.4055  0.3039
13933SOL     OW50576   0.770   3.385   0.009 -0.4346  0.2077  0.3720
13933SOL    HW150577   0.758   3.325  -0.065 -1.5083  0.6105  0.1989
13933SOL    HW250578   0.849   3.435  -0.013 -0.1049 -0.4429  0.0459
13934SOL     OW50579   2.128   3.780   3.859  0.5279 -0.0183  0.5168
13934SOL    HW150580   2.198   3.719   3.881 -0.3384 -0.7152  1.4417
13934SOL    HW250581   2.155   3.818   3.776  1.7660 -0.6261  0.6168
13935SOL     OW50582   4.814   6.853   4.452 -0.4036  0.1693 -0.0404
13935SOL    HW150583   4.774   6.767   4.440  2.5539 -1.1241 -1.6570
13935SOL    HW250584   4.878   6.840   4.522 -0.5351  1.3045  0.3102
13936SOL     OW50585   8.236   9.198   3.760 -0.7688 -0.1526 -0.2092
13936SOL    HW150586   8.323   9.195   3.800 -1.0661  0.5447  0.5105
13936SOL    HW250587   8.179   9.228   3.830 -1.4967 -0.0500 -0.8419
13937SOL     OW50588   8.261   2.222   2.519 -0.1119  0.4071  0.3606
13937SOL    HW150589   8.299   2.135   2.503  0.7751  0.6895  0.8033
13937SOL    HW250590   8.182   2.225   2.466 -0.2870 -0.7665  0.5334
13938SOL     OW50591   4.058   1.729   6.639  0.3540  0.2192  0.2072
13938SOL    HW150592   4.087   1.663   6.702 -0.7085 -1.7761 -1.2608
13938SOL    HW250593   4.087   1.696   6.554 -2.0370  0.4949 -0.8066
13939SOL     OW50594  11.970  10.360  12.589 -0.2949  0.1570  0.6042
13939SOL    HW150595  12.039  10.314  12.636  1.4207  0.3491 -1.5801
13939SOL    HW250596  11.930  10.294  12.533 -0.3707  0.5073  0.2360
13940SOL     OW50597   4.455   5.940  11.133 -0.1155  0.1782 -0.0009
13940SOL    HW150598   4.514   5.957  11.206  0.2275 -0.3688 -0.1455
13940SOL    HW250599   4.391   6.012  11.136 -0.5676 -0.2572  1.2996
13941SOL     OW50600   4.443   6.218   0.291  0.9871 -0.1781  0.2588
13941SOL    HW150601   4.470   6.139   0.245 -0.4110 -0.7025  0.2775
13941SOL    HW250602   4.394   6.185   0.367 -1.1278  0.6619 -0.6617
13942SOL     OW50603   9.928   5.505  11.625  0.0152  0.0699  0.3813
13942SOL    HW150604  10.020   5.502  11.651  0.3736 -0.4628 -0.8759
13942SOL    HW250605   9.898   5.591  11.656  1.1876  0.6434  0.0052
13943SOL     OW50606  11.340   7.289   9.531  0.1018  0.4192  0.3949
13943SOL    HW150607  11.377   7.244   9.608 -1.0350 -0.9335  0.1752
13943SOL    HW250608  11.264   7.336   9.565 -0.1302  0.1962  0.1901
13944SOL     OW50609   7.322   1.950   6.927 -0.4554 -0.3116  0.1769
13944SOL    HW150610   7.270   2.025   6.956  0.4851  0.9008 -1.1433
13944SOL    HW250611   7.388   1.938   6.995 -0.3299  0.3706  0.1857
13945SOL     OW50612  11.057   1.164   5.872  0.4283 -0.1289  0.2837
13945SOL    HW150613  11.021   1.248   5.843 -2.1849 -1.3874 -0.4200
13945SOL    HW250614  11.099   1.184   5.956  1.1283  2.0988 -0.5043
13946SOL     OW50615   5.286   1.503   6.543  0.2795 -0.2670 -0.5400
13946SOL    HW150616   5.336   1.457   6.475  0.5260  0.1316 -0.6330
13946SOL    HW250617   5.232   1.565   6.494  1.9600  1.4969 -0.2954
13947SOL     OW50618  12.411   5.582  10.222 -1.0594 -0.8036 -0.1535
13947SOL    HW150619  12.358   5.661  10.209 -2.5449 -1.4999  1.2518
13947SOL    HW250620  12.484   5.612  10.276 -1.5097 -0.3236  0.2142
13948SOL     OW50621  11.127   8.207   1.974 -0.2669 -0.0693  0.5524
13948SOL    HW150622  11.141   8.143   2.043  1.4088 -1.6351 -1.1133
13948SOL    HW250623  11.187   8.279   1.996  0.2782 -0.5735  0.7518
13949SOL     OW50624   3.142   5.938   7.418 -0.3809  0.2134 -0.4685
13949SOL    HW150625   3.228   5.949   7.460 -0.5886 -1.2621  0.4379
13949SOL    HW250626   3.137   6.009   7.355  0.8672  1.2481  0.5241
13950SOL     OW50627   8.001   4.836   5.518 -0.3694  0.0271 -0.7211
13950SOL    HW150628   7.962   4.873   5.598 -1.6127 -0.1208 -1.2401
13950SOL    HW250629   8.066   4.901   5.491 -0.7627  0.6372 -0.2293
13951SOL     OW50630   5.134   1.639  11.441  0.3054 -0.3923 -0.2164
13951SOL    HW150631   5.185   1.617  11.364  0.4372  0.4548 -0.3769
13951SOL    HW250632   5.184   1.708  11.485 -1.5929  1.9515 -1.4495
13952SOL     OW50633   8.882   1.800  11.659  0.6178  0.1922 -0.3174
13952SOL    HW150634   8.976   1.813  11.647  0.9856 -1.1122  0.8790
13952SOL    HW250635   8.846   1.804  11.570  1.7283  1.0422 -0.7633
13953SOL     OW50636  10.611   7.883  11.128  0.2110  0.4782  0.2445
13953SOL    HW150637  10.645   7.949  11.068  0.6796 -0.1339 -0.1885
13953SOL    HW250638  10.556   7.931  11.190 -2.0465  0.8559 -1.9367
13954SOL     OW50639   9.329  12.303   2.713  0.1610 -0.1093 -0.0463
13954SOL    HW150640   9.333  12.374   2.776 -1.4235 -0.6081  0.6422
13954SOL    HW250641   9.353  12.343   2.629  0.6532  0.9100  0.5771
13955SOL     OW50642   6.801   3.242   4.445  0.2512 -0.0374 -0.0707
13955SOL    HW150643   6.781   3.313   4.383  2.8619  0.2113 -0.7883
13955SOL    HW250644   6.846   3.176   4.392 -2.7346 -2.7043  0.4309
13956SOL     OW50645   0.253   8.184   5.998  0.1112 -0.2413  0.4293
13956SOL    HW150646   0.293   8.204   5.913  1.3091  1.1438  1.2677
13956SOL    HW250647   0.328   8.161   6.054 -0.5312 -0.0293  1.3970
13957SOL     OW50648   6.770   2.065   4.360  0.3332  0.5313 -0.4610
13957SOL    HW150649   6.860   2.045   4.331  0.2398 -1.0371  0.2340
13957SOL    HW250650   6.760   2.016   4.441 -1.2361  0.4936 -0.6552
13958SOL     OW50651   1.345   4.039   2.208 -0.4283 -0.2170 -0.7424
13958SOL    HW150652   1.391   4.020   2.290  0.6087  1.2667 -0.9432
13958SOL    HW250653   1.329   4.134   2.211 -1.8881 -0.4075 -1.5157
13959SOL     OW50654   1.886   2.807   4.957 -0.5033 -0.1265  0.3469
13959SOL    HW150655   1.796   2.790   4.929 -0.9750  1.1922  1.0272
13959SOL    HW250656   1.884   2.894   4.995  0.6057 -0.9200  2.3929
13960SOL     OW50657  11.540   4.905   0.492 -0.0599  0.0388 -0.2556
13960SOL    HW150658  11.522   4.836   0.428 -0.7534  0.2670 -0.3195
13960SOL    HW250659  11.457   4.916   0.538  0.2595  0.3114  0.2617
13961SOL     OW50660  11.706   6.976   9.571  0.1840  0.1797  0.0344
13961SOL    HW150661  11.760   6.898   9.564 -1.1336 -0.6909 -0.8379
13961SOL    HW250662  11.649   6.960   9.647 -1.3926 -0.6109 -1.2417
13962SOL     OW50663   4.467   4.164   3.051 -0.0961  0.2125 -0.3349
13962SOL    HW150664   4.412   4.137   2.977 -0.9643 -0.6840  0.6105
13962SOL    HW250665   4.549   4.117   3.037 -0.1800  0.2059 -0.8370
13963SOL     OW50666   1.753   3.065   3.743  0.1951 -0.0349  0.0121
13963SOL    HW150667   1.774   3.148   3.785 -1.1474  0.5421 -0.3841
13963SOL    HW250668   1.835   3.037   3.701  1.0407  0.3314  1.3653
13964SOL     OW50669   4.431   8.718   9.240  0.2394  0.2938 -0.0326
13964SOL    HW150670   4.384   8.791   9.198 -0.8077  1.0579  2.3141
13964SOL    HW250671   4.373   8.643   9.226  0.8610  0.0650 -1.6181
13965SOL     OW50672   1.106   5.591   9.377  0.2238  0.2667  0.8274
13965SOL    HW150673   1.169   5.602   9.448 -0.4755  2.8341  1.1576
13965SOL    HW250674   1.020   5.591   9.421 -0.1442 -0.0676  0.1282
13966SOL     OW50675   8.240  11.328   3.132 -0.1310 -0.4246  0.8366
13966SOL    HW150676   8.219  11.241   3.167  1.3873 -0.4687  1.7021
13966SOL    HW250677   8.196  11.389   3.191 -0.2710 -0.5724  0.8863
13967SOL     OW50678  10.803   6.701   9.889  0.7822  0.0686 -0.3196
13967SOL    HW150679  10.721   6.680   9.844  0.4441  0.6176  0.0339
13967SOL    HW250680  10.805   6.641   9.963  0.6249  0.1540 -0.2450
13968SOL     OW50681   9.630  12.527   1.658 -0.4944 -0.0649  0.6255
13968SOL    HW150682   9.540  12.529   1.692 -0.7375  1.8552 -0.0544
13968SOL    HW250683   9.622  12.553   1.567  0.6629 -0.8450  0.2870
13969SOL     OW50684   3.692  12.577   7.391 -0.0504 -0.0268 -0.2331
13969SOL    HW150685   3.733  12.662   7.404 -0.1287  0.4684 -2.6302
13969SOL    HW250686   3.607  12.584   7.434  0.2606  0.8181  0.2578
13970SOL     OW50687  10.119   8.715  11.554 -0.5165 -0.0711 -0.0906
13970SOL    HW150688  10.072   8.632  11.554 -1.0510  0.2064  1.2698
13970SOL    HW250689  10.070   8.771  11.493 -0.8524 -0.3850 -0.1084
13971SOL     OW50690   7.311   2.623   0.574 -0.7923  0.0755 -0.0735
13971SOL    HW150691   7.344   2.671   0.498  1.4412  0.2056  0.9087
13971SOL    HW250692   7.229   2.667   0.596 -0.3651  1.4297 -1.0799
13972SOL     OW50693   5.947   6.670   5.505 -0.5966  0.3658  0.2592
13972SOL    HW150694   5.877   6.706   5.560  0.7761  0.6389  1.8836
13972SOL    HW250695   6.027   6.707   5.541  0.5634 -1.5460 -0.2439
13973SOL     OW50696  11.334   7.739  10.903  0.3671 -0.4453 -0.4663
13973SOL    HW150697  11.411   7.788  10.932  0.1169 -0.8201  0.8764
13973SOL    HW250698  11.316   7.678  10.974 -0.5752 -1.0642 -1.2080
13974SOL     OW50699   3.274   1.312   9.861  0.1208 -0.1493  0.3928
13974SOL    HW150700   3.220   1.346   9.790 -0.6845 -0.8726  0.6469
13974SOL    HW250701   3.282   1.386   9.922  1.3592  0.6840 -0.7218
13975SOL     OW50702   3.871   4.760  11.383 -0.2707 -0.1097 -0.0857
13975SOL    HW150703   3.960   4.729  11.393 -0.3561  0.1306  1.7407
13975SOL    HW250704   3.875   4.823  11.310  0.2144 -2.9508 -2.6933
13976SOL     OW50705   7.665   4.363   2.490  0.3257 -0.0172 -0.1380
13976SOL    HW150706   7.661   4.322   2.576  0.4766 -1.3188 -0.7371
13976SOL    HW250707   7.757   4.388   2.480  0.6686 -1.3593 -0.5730
13977SOL     OW50708   6.128  11.311  10.481  0.3586 -0.0958 -0.0667
13977SOL    HW150709   6.151  11.312  10.574  0.1339 -0.8626  0.0055
13977SOL    HW250710   6.184  11.244  10.443  0.8875  0.6419 -0.6141
13978SOL     OW50711   1.022   7.030   7.163  0.6938  0.0930  0.2302
13978SOL    HW150712   0.995   7.065   7.248  0.3691  2.0300 -0.6193
13978SOL    HW250713   1.101   6.980   7.182  0.7729  0.6843  1.6336
13979SOL     OW50714   0.781   4.986   9.480 -0.2808  0.0311  0.4933
13979SOL    HW150715   0.764   5.076   9.509 -2.0847 -0.0918 -0.0982
13979SOL    HW250716   0.697   4.954   9.449  0.6196 -1.4266 -0.5690
13980SOL     OW50717   8.513   9.063   7.807  0.0091 -0.0114  0.0512
13980SOL    HW150718   8.582   9.102   7.860  0.3341  0.0262 -0.3917
13980SOL    HW250719   8.558   8.996   7.755 -0.1220  0.6236 -0.8944
13981SOL     OW50720  12.444  11.923   7.980  0.1601  0.0389  1.1164
13981SOL    HW150721  12.395  11.857   8.029  1.5974 -0.6471  1.6763
13981SOL    HW250722  12.428  12.004   8.028 -0.6144 -0.1160  1.1418
13982SOL     OW50723   6.457   0.505   4.154 -0.0417 -0.3348 -0.0421
13982SOL    HW150724   6.466   0.594   4.121 -0.8366 -0.2739 -0.1145
13982SOL    HW250725   6.454   0.451   4.075  0.8827 -0.4746  0.0122
13983SOL     OW50726   3.510   2.566   5.174 -0.0437 -0.4247 -0.5182
13983SOL    HW150727   3.601   2.576   5.201 -0.6829 -0.0429  1.6950
13983SOL    HW250728   3.474   2.499   5.232 -1.5558  0.5460 -0.2754
13984SOL     OW50729   8.897   5.126   0.392  0.4656 -0.4365  0.2400
13984SOL    HW150730   8.827   5.173   0.438  0.7034 -1.2125  1.4150
13984SOL    HW250731   8.914   5.180   0.314 -0.4390  0.5161  0.6742
13985SOL     OW50732   7.878   3.404   8.248 -0.2069  0.2386  0.6676
13985SOL    HW150733   7.915   3.319   8.269  1.7063  1.0227  0.6543
13985SOL    HW250734   7.821   3.425   8.323  0.2950 -0.4837  1.2629
13986SOL     OW50735   8.407   0.780  12.513  0.0861  0.1733 -0.0048
13986SOL    HW150736   8.464   0.715  12.471  0.6824  0.4609  0.3502
13986SOL    HW250737   8.445   0.793  12.600  0.6047  1.7832 -0.4381
13987SOL     OW50738   1.529  11.411   8.615  0.4770  0.3755 -0.2406
13987SOL    HW150739   1.603  11.470   8.600 -0.2414  0.8317 -2.1821
13987SOL    HW250740   1.542  11.339   8.554  0.6397 -0.8671  1.1938
13988SOL     OW50741   5.973   4.168   7.082  0.5851  0.3333  0.2128
13988SOL    HW150742   6.013   4.119   7.154 -0.2073  0.5296  0.8059
13988SOL    HW250743   6.001   4.122   7.003  2.0559  0.5272  0.5911
13989SOL     OW50744  11.829   6.952   5.365  0.1736 -1.0760  0.3105
13989SOL    HW150745  11.907   6.923   5.413  1.0571 -0.7957 -0.8837
13989SOL    HW250746  11.853   6.942   5.273 -1.0694 -0.5929 -0.0893
13990SOL     OW50747   6.164   8.419   2.489  0.1231 -0.3452  0.0440
13990SOL    HW150748   6.137   8.510   2.480  1.7155  0.4464  2.3546
13990SOL    HW250749   6.081   8.370   2.495 -0.7483  0.8734 -1.4947
13991SOL     OW50750   9.578   5.150   0.566 -0.0004  0.3126 -0.4877
13991SOL    HW150751   9.511   5.214   0.542  1.0260  1.4894 -0.2909
13991SOL    HW250752   9.632   5.142   0.487  1.8530  2.2524  0.4849
13992SOL     OW50753  11.723   3.448   1.232  0.3330 -0.0108  0.8944
13992SOL    HW150754  11.762   3.466   1.318 -0.2830 -2.5281  1.7974
13992SOL    HW250755  11.791   3.473   1.170  2.5310 -1.9270  2.3195
13993SOL     OW50756   4.420   3.840   8.146  0.4239 -0.0477  0.1544
13993SOL    HW150757   4.469   3.919   8.124  0.4292 -0.8554 -3.1774
13993SOL    HW250758   4.376   3.815   8.065  0.8917 -3.7783  0.8538
13994SOL     OW50759   1.397   0.776   0.769 -0.3558  0.0937  0.2484
13994SOL    HW150760   1.348   0.837   0.824  2.0934  2.1350  0.3666
13994SOL    HW250761   1.393   0.692   0.815  0.1460  1.3078  2.6503
13995SOL     OW50762  12.304   2.164   5.501  0.1974  0.0984 -0.7295
13995SOL    HW150763  12.236   2.098   5.514 -0.7885  1.0317 -1.0224
13995SOL    HW250764  12.260   2.235   5.454  0.6776  1.8763  1.3478
13996SOL     OW50765   7.373   3.511   7.439  0.0758 -0.0463  0.5119
13996SOL    HW150766   7.447   3.470   7.395  0.5486  0.9668  0.3152
13996SOL    HW250767   7.306   3.517   7.371  0.6092  1.0168  0.0477
13997SOL     OW50768   6.607   5.250   0.259  0.2914  0.1211  0.2227
13997SOL    HW150769   6.678   5.265   0.198  1.4425  0.6840  1.6471
13997SOL    HW250770   6.586   5.157   0.250  0.8875  0.0559 -0.5373
13998SOL     OW50771   5.679   6.215   8.527  0.5469 -0.6662  0.6816
13998SOL    HW150772   5.623   6.177   8.460 -0.3370 -0.0393  1.0531
13998SOL    HW250773   5.708   6.298   8.490  1.0027 -0.8582  0.6046
13999SOL     OW50774   9.650  10.601   1.978 -0.2866  0.1192  0.2071
13999SOL    HW150775   9.649  10.517   2.023  1.7943  1.2973  2.7092
13999SOL    HW250776   9.582  10.652   2.021 -1.0576 -0.0327 -0.8144
14000SOL     OW50777   1.600   1.763  11.022 -0.1972 -0.0686  0.1725
14000SOL    HW150778   1.679   1.708  11.025  1.4040  2.1562  1.2113
14000SOL    HW250779   1.573   1.759  10.930  2.0230  0.2840 -0.5583
14001SOL     OW50780   5.875   9.165   7.809  0.1536 -0.1372  0.0886
14001SOL    HW150781   5.867   9.227   7.737 -0.7534  0.0002  0.2930
14001SOL    HW250782   5.826   9.205   7.881  0.7490 -0.4352  0.6729
14002SOL     OW50783   8.400   0.654   4.160  0.4997 -0.1022 -0.1051
14002SOL    HW150784   8.314   0.695   4.151  1.2515  1.2441 -1.8062
14002SOL    HW250785   8.435   0.687   4.243 -0.5572 -0.5860  0.5491
14003SOL     OW50786   3.125   4.963   6.781 -0.3493 -0.4646  0.5148
14003SOL    HW150787   3.116   5.052   6.816  1.1404 -0.3806  0.7347
14003SOL    HW250788   3.037   4.926   6.789 -1.4486  1.5188 -1.1025
14004SOL     OW50789  12.424  11.340   8.044  0.2730 -0.0091 -0.1451
14004SOL    HW150790  12.416  11.299   8.130 -0.6398  0.4339 -0.0065
14004SOL    HW250791  12.337  11.332   8.005  0.2957  1.0371 -0.4535
14005SOL     OW50792   1.457   2.007   7.194  0.6742 -0.1472  0.5710
14005SOL    HW150793   1.460   1.992   7.289 -1.1896  0.2565  0.7376
14005SOL    HW250794   1.385   1.952   7.164  1.2243 -0.2383 -0.6257
14006SOL     OW50795   5.146  10.211   0.126 -0.3122 -0.1794 -0.1978
14006SOL    HW150796   5.058  10.244   0.109 -0.3425 -0.3138 -0.3048
14006SOL    HW250797   5.148  10.125   0.083 -0.0634 -0.0888 -0.3661
14007SOL     OW50798   3.795   8.477  12.172 -0.2390  0.1685  0.1493
14007SOL    HW150799   3.735   8.518  12.109  1.7697  0.4642 -1.7001
14007SOL    HW250800   3.819   8.393  12.131 -0.8942 -0.8626  1.8014
14008SOL     OW50801   6.209   3.344  11.678  0.1076  0.3113 -0.5222
14008SOL    HW150802   6.156   3.397  11.619 -0.5378  0.4016  0.1216
14008SOL    HW250803   6.265   3.407  11.723  0.0266  0.3347 -0.4546
14009SOL     OW50804   3.876  11.946   8.189  0.2823 -0.2699  0.5556
14009SOL    HW150805   3.817  11.921   8.118 -0.2297 -0.4422  1.0247
14009SOL    HW250806   3.938  11.874   8.196 -0.1870 -0.6522  0.8329
14010SOL     OW50807   6.596   3.935   6.963  0.1941  0.3529  0.6541
14010SOL    HW150808   6.557   3.920   7.049 -0.1997 -0.2574  0.3795
14010SOL    HW250809   6.529   3.905   6.901  0.7520  0.1267  0.1527
14011SOL     OW50810   7.180   8.777   2.026 -0.7242  0.1373 -0.3119
14011SOL    HW150811   7.196   8.748   2.116 -2.4591  1.1994  0.3959
14011SOL    HW250812   7.153   8.698   1.980 -0.6183 -0.2700  0.3155
14012SOL     OW50813   0.077   3.853   7.935  0.2207  0.4955  0.1258
14012SOL    HW150814   0.029   3.771   7.942 -0.0487  0.6022 -0.4009
14012SOL    HW250815   0.078   3.888   8.024  1.1231 -0.5041  0.5272
14013SOL     OW50816   3.731   8.495   7.373 -0.3789  0.0241 -0.0169
14013SOL    HW150817   3.638   8.515   7.378 -0.4231  0.3755 -1.6520
14013SOL    HW250818   3.775   8.577   7.392 -0.2787 -0.6153  3.0480
14014SOL     OW50819   0.176   2.019   5.310  0.2889  0.0124 -0.0617
14014SOL    HW150820   0.159   2.046   5.400 -0.6317  0.8233 -0.4678
14014SOL    HW250821   0.264   2.052   5.291 -0.6972  2.6778 -0.4693
14015SOL     OW50822   9.439   3.539  10.159  0.4303  0.8921  0.2957
14015SOL    HW150823   9.471   3.618  10.201  0.6879 -0.2815  2.4545
14015SOL    HW250824   9.362   3.514  10.210  0.0332  0.0283 -0.6717
14016SOL     OW50825   1.016   7.440   7.541 -0.0368  0.6007 -0.0611
14016SOL    HW150826   1.022   7.354   7.583  0.0357  0.5961 -0.0797
14016SOL    HW250827   1.084   7.492   7.585 -0.5787  0.8692  0.4716
14017SOL     OW50828   1.079   3.905   7.397 -0.0595  0.1817 -0.0656
14017SOL    HW150829   1.108   3.994   7.377 -1.1631  0.3509 -0.9843
14017SOL    HW250830   0.988   3.914   7.424 -0.2953 -0.7079 -0.5206
14018SOL     OW50831   7.765   5.347   4.379  0.1232  0.9155 -0.4504
14018SOL    HW150832   7.781   5.281   4.311  1.9622  1.8016 -0.9724
14018SOL    HW250833   7.820   5.318   4.452  1.9888  2.4384 -1.1461
14019SOL     OW50834   1.464   3.127  11.817  0.2722 -0.0856  0.6030
14019SOL    HW150835   1.376   3.102  11.791  0.8790 -1.2027 -0.5012
14019SOL    HW250836   1.482   3.208  11.768  0.0799 -0.2000  0.3389
14020SOL     OW50837   7.783   2.767   4.819  0.3143  0.5907 -0.2135
14020SOL    HW150838   7.704   2.800   4.863  0.6919  0.6005  0.4772
14020SOL    HW250839   7.778   2.803   4.731 -1.3665 -0.8664 -0.7687
14021SOL     OW50840   0.849   2.315   1.791 -0.7541 -0.5772 -0.4646
14021SOL    HW150841   0.808   2.361   1.864  0.9202  0.2171  0.0442
14021SOL    HW250842   0.868   2.383   1.727 -0.5478 -0.9708 -0.8262
14022SOL     OW50843   3.534   7.923  11.079 -0.0337  0.6265 -0.4045
14022SOL    HW150844   3.619   7.889  11.051 -0.2623  0.6529 -1.1349
14022SOL    HW250845   3.549   8.016  11.094  0.1695  0.5470 -0.0882
14023SOL     OW50846   2.048  11.634  10.972  0.2561  0.0884 -0.1998
14023SOL    HW150847   2.061  11.728  10.980  1.4577 -0.0252 -0.5411
14023SOL    HW250848   2.097  11.609  10.894 -0.0024 -0.8215 -0.0857
14024SOL     OW50849   4.244   9.945   6.403 -0.2782  0.1201  0.2511
14024SOL    HW150850   4.311   9.960   6.469  0.5065 -1.8526 -0.0452
14024SOL    HW250851   4.293   9.917   6.325 -1.3848 -0.8355 -0.1268
14025SOL     OW50852   2.510  10.385   5.504 -0.8850 -0.4021  0.5891
14025SOL    HW150853   2.475  10.366   5.592 -1.6746 -0.6907  0.2185
14025SOL    HW250854   2.538  10.300   5.471  0.9312 -0.0777  1.1803
14026SOL     OW50855   9.456   1.230   1.723 -0.0852 -0.3255  0.4912
14026SOL    HW150856   9.442   1.154   1.665 -1.5291  0.5180 -0.3363
14026SOL    HW250857   9.533   1.273   1.687  0.7226 -1.3400  0.9384
14027SOL     OW50858   3.290   9.062   0.318 -0.1467 -0.3926 -0.5725
14027SOL    HW150859   3.296   8.966   0.327 -0.5659 -0.4193 -0.5634
14027SOL    HW250860   3.226   9.075   0.248 -0.2784 -0.1154 -0.3993
14028SOL     OW50861   8.365   0.666   6.112  0.2524 -0.2446 -0.1372
14028SOL    HW150862   8.335   0.696   6.198  0.4742 -0.7919  0.1357
14028SOL    HW250863   8.432   0.729   6.087 -0.5568  0.5380 -0.4005
14029SOL     OW50864   6.060   9.996  12.498  0.6376 -0.4210 -0.0314
14029SOL    HW150865   6.090  10.082  12.468 -0.2044  1.1716  3.1773
14029SOL    HW250866   6.140   9.953  12.527  0.7782  0.6197  1.2336
14030SOL     OW50867   7.184  10.812   6.578  0.0662 -0.5148 -0.3550
14030SOL    HW150868   7.149  10.881   6.521  0.0416 -0.3300 -0.1171
14030SOL    HW250869   7.133  10.819   6.658  0.4761 -0.4144 -0.1023
14031SOL     OW50870  10.348   0.675   9.053 -0.0830  0.1408 -0.6208
14031SOL    HW150871  10.365   0.596   9.002 -1.3454 -0.0254 -0.8202
14031SOL    HW250872  10.399   0.664   9.133 -2.1235 -2.0922  0.5219
14032SOL     OW50873   3.387   9.742   8.483  0.4541 -0.0226  0.1939
14032SOL    HW150874   3.402   9.830   8.519 -0.9444  0.3904 -0.1556
14032SOL    HW250875   3.458   9.689   8.517  1.6901  1.3960 -0.0932
14033SOL     OW50876   4.451   8.590  11.465 -0.0351  0.1553 -0.1704
14033SOL    HW150877   4.509   8.519  11.494 -0.2822  0.1695  0.3797
14033SOL    HW250878   4.372   8.545  11.435  0.6700  0.0606 -1.9939
14034SOL     OW50879   3.433   0.922   2.382 -0.8670 -0.8226 -0.0435
14034SOL    HW150880   3.452   0.998   2.437  0.4073 -2.4158  1.8498
14034SOL    HW250881   3.431   0.957   2.293  1.7315  1.1209  0.5269
14035SOL     OW50882   5.759   3.172   8.773 -0.1482 -0.0157  0.2137
14035SOL    HW150883   5.778   3.090   8.819  3.9429  0.3320 -0.5448
14035SOL    HW250884   5.747   3.146   8.682 -0.0051  0.1426  0.1502
14036SOL     OW50885   3.272   2.621   1.279 -0.2473 -0.3797  0.5210
14036SOL    HW150886   3.269   2.714   1.256  1.1826 -0.4548 -0.0616
14036SOL    HW250887   3.211   2.613   1.352 -1.6474  0.6966 -0.4556
14037SOL     OW50888   1.808   4.765  12.610 -0.3291 -0.3081  0.8397
14037SOL    HW150889   1.801   4.806  12.696 -0.6733 -1.1306  1.2131
14037SOL    HW250890   1.902   4.760  12.594 -0.2488 -0.5845  1.3803
14038SOL     OW50891   4.752   0.678   3.048 -0.3953  1.1243  0.0192
14038SOL    HW150892   4.804   0.750   3.011 -0.0704  1.9620  1.9745
14038SOL    HW250893   4.807   0.641   3.118 -0.3004 -1.4731 -1.3051
14039SOL     OW50894  11.245   7.147  12.278  0.2801 -0.6891  0.5906
14039SOL    HW150895  11.248   7.167  12.184  0.2143 -0.3143  0.6638
14039SOL    HW250896  11.198   7.222  12.316  1.8842  0.0654  1.1628
14040SOL     OW50897   6.293   4.289   8.769 -0.1618  0.2357 -0.3891
14040SOL    HW150898   6.227   4.358   8.755 -0.9094 -0.6793 -1.6061
14040SOL    HW250899   6.249   4.226   8.825 -0.8620 -1.0085 -2.2345
14041SOL     OW50900   4.129   0.818   3.142  0.0358  0.5071 -0.3674
14041SOL    HW150901   4.119   0.722   3.145 -1.6584  0.6090 -1.3830
14041SOL    HW250902   4.183   0.834   3.065  1.6837  0.3154  0.7155
14042SOL     OW50903   4.728   1.084   7.054  0.3002 -0.4407 -0.2184
14042SOL    HW150904   4.822   1.098   7.057  0.1611  0.7038 -0.6480
14042SOL    HW250905   4.715   1.020   6.984  0.7891 -0.9812  0.1814
14043SOL     OW50906   0.730   7.337   3.125  0.0569 -0.2256  0.3900
14043SOL    HW150907   0.738   7.429   3.148 -0.5302 -0.1718  0.4153
14043SOL    HW250908   0.776   7.328   3.042  0.8105 -0.0817  0.7832
14044SOL     OW50909  12.362   4.245  12.422  0.1120 -0.0567  0.2969
14044SOL    HW150910  12.308   4.241  12.501  1.3107 -1.5340  1.0963
14044SOL    HW250911  12.336   4.167  12.372  2.6382 -1.8790  1.5593
14045SOL     OW50912   2.816  10.222  11.191  0.4739 -0.2689  0.0436
14045SOL    HW150913   2.787  10.132  11.201 -1.3273  0.3380  0.7963
14045SOL    HW250914   2.894  10.217  11.135 -1.4235 -2.0042 -2.7037
14046SOL     OW50915  10.203   7.869  11.075 -0.1827 -0.2887 -0.2705
14046SOL    HW150916  10.126   7.863  11.018 -0.3309  1.8932 -0.3923
14046SOL    HW250917  10.167   7.899  11.159  0.5215  0.8228 -0.3523
14047SOL     OW50918  10.273   4.837   5.540  0.1316  0.2043 -0.4386
14047SOL    HW150919  10.265   4.931   5.556  0.7423  0.3023 -0.6480
14047SOL    HW250920  10.290   4.831   5.446  0.5302 -0.0843 -0.3494
14048SOL     OW50921   6.588   8.446   5.235 -0.0664  0.6145 -0.0996
14048SOL    HW150922   6.532   8.506   5.185  0.9504  1.1519 -0.6274
14048SOL    HW250923   6.670   8.443   5.185  0.8617  0.8875  1.3427
14049SOL     OW50924   4.553   7.213   9.972 -0.6020  0.0046 -0.0898
14049SOL    HW150925   4.515   7.151  10.035 -1.4028  0.7898  0.2213
14049SOL    HW250926   4.495   7.209   9.896 -0.5555  0.2428 -0.1389
14050SOL     OW50927   4.047  11.235   5.188 -0.0355  0.0680  0.1179
14050SOL    HW150928   4.123  11.275   5.145 -0.2349  0.1574 -0.1567
14050SOL    HW250929   4.074  11.224   5.279  0.4896 -0.3738 -0.0883
14051SOL     OW50930   1.070  12.354   0.136  0.1444 -0.3914 -0.1505
14051SOL    HW150931   1.002  12.417   0.111  1.5205  1.0880 -0.3079
14051SOL    HW250932   1.123  12.345   0.057  0.6008 -0.9158  0.2132
14052SOL     OW50933   3.255   7.522   5.644  0.2194  0.0626 -0.5665
14052SOL    HW150934   3.335   7.477   5.671 -0.6445 -0.2355  1.8028
14052SOL    HW250935   3.204   7.456   5.599  0.2960 -0.4722  0.1064
14053SOL     OW50936  12.299   3.474   8.578  0.7220 -0.2577  0.3488
14053SOL    HW150937  12.311   3.408   8.509  0.5833  0.3401 -0.2570
14053SOL    HW250938  12.387   3.505   8.596  0.6336  0.4723 -0.4501
14054SOL     OW50939   2.323   8.447   9.547 -0.4559  0.6160 -0.0251
14054SOL    HW150940   2.267   8.391   9.493 -1.1179  0.9300  0.3225
14054SOL    HW250941   2.363   8.386   9.609  0.4085  0.2313 -0.9279
14055SOL     OW50942  12.534   2.111  10.553  0.1135  0.4914  0.2341
14055SOL    HW150943  12.497   2.126  10.641  2.6567 -0.2386  1.5324
14055SOL    HW250944  12.487   2.036  10.519 -0.8306  0.7112  1.0231
14056SOL     OW50945   5.484  11.581   2.474 -0.1084 -0.1216 -0.1306
14056SOL    HW150946   5.488  11.498   2.426 -1.6979 -0.3634  0.1114
14056SOL    HW250947   5.455  11.556   2.562 -2.3940  0.8228 -0.5403
14057SOL     OW50948  10.255   0.740   8.288  0.5696  0.5538 -0.2247
14057SOL    HW150949  10.306   0.674   8.242 -1.2742 -1.0100 -0.1196
14057SOL    HW250950  10.222   0.797   8.220  0.7065  0.3162 -0.4920
14058SOL     OW50951   1.660   0.858  11.671  0.3778  0.1648 -0.4462
14058SOL    HW150952   1.699   0.771  11.663  2.3565  0.8956  0.6472
14058SOL    HW250953   1.566   0.844  11.654  0.6057 -2.1878 -0.0776
14059SOL     OW50954   7.281  11.246   2.136 -0.2398  0.7237 -0.7284
14059SOL    HW150955   7.306  11.209   2.220 -1.7749 -1.1601 -1.0300
14059SOL    HW250956   7.360  11.288   2.103  1.0753 -0.6464  0.5463
14060SOL     OW50957  12.468   1.077   0.780 -0.0450  0.4005  0.5297
14060SOL    HW150958  12.487   0.989   0.812 -0.6096 -0.2271 -0.7800
14060SOL    HW250959  12.396   1.065   0.717  1.0269  1.5402 -0.9816
14061SOL     OW50960   7.103   6.350   6.596 -0.2790 -0.8838  0.3734
14061SOL    HW150961   7.012   6.378   6.588  0.1163 -0.0586 -2.0043
14061SOL    HW250962   7.100   6.254   6.591 -0.8840 -0.8226 -3.0912
14062SOL     OW50963   1.127   3.450   8.677  0.0318 -0.0959 -0.0138
14062SOL    HW150964   1.098   3.525   8.729  0.7965 -0.0798  0.4129
14062SOL    HW250965   1.062   3.441   8.607  0.2390  1.3194 -0.4050
14063SOL     OW50966   9.766  10.512   5.289 -0.1495 -0.0758 -0.4804
14063SOL    HW150967   9.689  10.459   5.265 -2.0996  1.7215  1.3204
14063SOL    HW250968   9.730  10.600   5.303  1.9956  0.5488  1.7889
14064SOL     OW50969   7.327   2.621   8.064 -0.2083  0.0944 -0.2895
14064SOL    HW150970   7.421   2.619   8.043 -0.3079  0.7966 -0.8467
14064SOL    HW250971   7.325   2.636   8.158  0.2537  1.2819 -0.4488
14065SOL     OW50972   6.340   0.071   1.977 -0.1453  0.2974  0.6058
14065SOL    HW150973   6.265   0.113   2.020  0.3820  1.3397  0.5419
14065SOL    HW250974   6.318   0.071   1.884 -0.1677  0.3755  0.6112
14066SOL     OW50975  10.261   6.400   4.549 -0.6740  0.0226  0.2153
14066SOL    HW150976  10.240   6.317   4.507 -0.4069  0.2472 -0.3918
14066SOL    HW250977  10.179   6.429   4.589 -1.2419  0.3337 -1.1242
14067SOL     OW50978   0.011   6.508   1.767  0.1050 -0.2779 -0.5717
14067SOL    HW150979  -0.047   6.526   1.693 -0.1921 -1.3719 -0.6140
14067SOL    HW250980   0.077   6.578   1.763 -0.8759  0.6601 -0.8500
14068SOL     OW50981  12.153  10.093  11.659  0.1689 -0.0313 -0.5080
14068SOL    HW150982  12.235  10.135  11.685 -0.1531 -0.2018  0.8526
14068SOL    HW250983  12.096  10.166  11.636  0.5470  0.1136 -1.0068
14069SOL     OW50984  11.161   5.122   7.299  0.2873  0.3015  0.3300
14069SOL    HW150985  11.225   5.103   7.368 -0.8085 -0.3603  1.2080
14069SOL    HW250986  11.167   5.049   7.239  0.8920  0.6305 -0.0202
14070SOL     OW50987  10.177   5.520   3.496 -0.1215  0.1954 -0.2786
14070SOL    HW150988  10.150   5.556   3.581 -0.6162  0.1327 -0.4061
14070SOL    HW250989  10.232   5.445   3.519  1.5451  1.4359  0.0019
14071SOL     OW50990  11.759   7.022   9.273 -0.1760  0.3665 -0.3606
14071SOL    HW150991  11.850   6.996   9.284 -0.1319  0.7542  0.2609
14071SOL    HW250992  11.717   6.996   9.355 -1.1903 -2.0773 -1.5588
14072SOL     OW50993   7.848  11.609  10.171  0.5584 -0.0837  0.5132
14072SOL    HW150994   7.937  11.645  10.168  0.7946 -0.6900 -0.1976
14072SOL    HW250995   7.825  11.596  10.079  0.4063 -1.5252  0.7352
14073SOL     OW50996   0.497  11.128  11.418  0.1021  0.1673 -0.0177
14073SOL    HW150997   0.562  11.092  11.478  0.3232  0.0745 -0.3128
14073SOL    HW250998   0.541  11.200  11.374  0.3322 -0.5183 -0.9346
14074SOL     OW50999   6.240   7.269   5.381  0.3504  0.0040 -0.1733
14074SOL    HW151000   6.178   7.338   5.357 -0.2660  0.1017  1.5345
14074SOL    HW251001   6.276   7.298   5.465 -1.6535 -2.7509  1.8396
14075SOL     OW51002   0.253   4.181   5.129 -0.6667  0.1561 -0.2904
14075SOL    HW151003   0.296   4.217   5.207 -1.6729 -0.7968  0.7572
14075SOL    HW251004   0.176   4.135   5.164 -1.3371  0.0065 -1.8946
14076SOL     OW51005   3.664  11.769   1.484 -0.1951 -0.0746 -0.1457
14076SOL    HW151006   3.589  11.711   1.472 -0.5446  0.2180  0.5585
14076SOL    HW251007   3.669  11.819   1.402  0.2555 -1.2468 -0.8526
14077SOL     OW51008  10.342   8.232  11.926  0.3448  0.4093  0.3551
14077SOL    HW151009  10.407   8.273  11.983 -0.1485  1.9694 -0.1636
14077SOL    HW251010  10.258   8.248  11.969 -0.0137  1.4186 -0.6581
14078SOL     OW51011   6.676  11.963  12.012  0.1074  0.2688  0.2495
14078SOL    HW151012   6.691  12.053  12.041  1.3063  1.5584 -3.7109
14078SOL    HW251013   6.585  11.962  11.983  0.4903  0.6857 -1.0198
14079SOL     OW51014   1.985  11.995   5.990 -0.0085  0.2282  0.1756
14079SOL    HW151015   2.069  12.004   6.036 -0.9780  0.8253  1.9462
14079SOL    HW251016   1.929  11.950   6.053 -1.5298  1.4474 -0.2415
14080SOL     OW51017   7.470   6.440   0.036  0.2534 -0.2219  0.1473
14080SOL    HW151018   7.430   6.520   0.070 -0.0351 -0.4969  0.4663
14080SOL    HW251019   7.400   6.375   0.040  1.3865 -1.4582  3.3448
14081SOL     OW51020   6.963   6.643   4.157 -0.8171 -0.5538  0.0548
14081SOL    HW151021   6.879   6.687   4.144 -0.5734  0.4764  1.7294
14081SOL    HW251022   6.972   6.635   4.252  0.7457 -1.1267 -0.1092
14082SOL     OW51023   4.300   2.553  10.019  0.4961 -0.7038  0.4476
14082SOL    HW151024   4.208   2.562   9.994  0.6295  0.9233  0.4460
14082SOL    HW251025   4.314   2.619  10.087  1.1090 -2.4780  2.1520
14083SOL     OW51026  12.471   9.689   0.434  0.0554 -0.0533 -0.2215
14083SOL    HW151027  12.446   9.717   0.346 -1.7847 -1.1285 -0.0763
14083SOL    HW251028  12.440   9.759   0.491 -2.6827 -1.2708 -0.0613
14084SOL     OW51029   9.536  12.552   3.935  0.3199  0.4554  0.3268
14084SOL    HW151030   9.610  12.523   3.882  0.2371  1.5050 -0.3841
14084SOL    HW251031   9.467  12.488   3.917  0.2085  0.9400 -1.0408
14085SOL     OW51032   1.249  10.642   4.734  0.9685  0.4494  0.0412
14085SOL    HW151033   1.257  10.549   4.755  0.9938  0.2226 -0.9496
14085SOL    HW251034   1.182  10.646   4.666 -0.6310  1.3907  1.5876
14086SOL     OW51035   2.723   5.305  10.029 -0.2324 -0.0345 -0.4817
14086SOL    HW151036   2.674   5.378  10.069  1.0532  0.1591  0.8359
14086SOL    HW251037   2.807   5.344  10.004  0.1587 -0.8763 -0.5035
14087SOL     OW51038  11.107  11.334   1.560 -0.2145  0.1727 -0.4524
14087SOL    HW151039  11.068  11.422   1.567  0.0976  0.4495 -1.8531
14087SOL    HW251040  11.127  11.324   1.467 -0.4852 -1.5076 -0.3585
14088SOL     OW51041   9.971   4.680   5.817  0.2975  0.0799  0.1868
14088SOL    HW151042   9.998   4.649   5.730 -1.7120 -1.5722  0.0611
14088SOL    HW251043   9.894   4.735   5.799  1.3511  1.8473  0.7795
14089SOL     OW51044   1.605  11.871  10.593 -0.4500  0.0484 -0.0552
14089SOL    HW151045   1.651  11.788  10.581  1.4590  1.0262  0.1283
14089SOL    HW251046   1.642  11.908  10.673 -4.0433 -0.6239  2.1445
14090SOL     OW51047   2.574   1.277  11.790  0.7062  0.3661  0.5851
14090SOL    HW151048   2.563   1.190  11.828  0.2969 -0.2508 -0.8937
14090SOL    HW251049   2.662   1.278  11.755  0.1655 -0.0676 -0.8522
14091SOL     OW51050   8.274   9.929  10.833 -0.5728  0.3633 -0.0292
14091SOL    HW151051   8.228   9.982  10.898  0.3618 -1.0221  1.8831
14091SOL    HW251052   8.230   9.844  10.836 -0.0411  0.0549 -0.7017
14092SOL     OW51053   9.855   2.550   1.984 -0.4057 -0.3585  0.4094
14092SOL    HW151054   9.850   2.518   2.074  0.4745  0.1172  0.6345
14092SOL    HW251055   9.947   2.572   1.971 -0.5203 -0.4523 -0.6192
14093SOL     OW51056   5.750   3.463   4.271  0.0938 -0.7396 -0.0261
14093SOL    HW151057   5.772   3.500   4.357  1.8259 -0.3711 -0.5909
14093SOL    HW251058   5.668   3.506   4.247 -0.2278 -0.5684  1.2661
14094SOL     OW51059   2.010   9.265   9.657  0.4442  0.6848  0.4373
14094SOL    HW151060   2.083   9.267   9.718 -0.9309  2.7289  2.1714
14094SOL    HW251061   2.002   9.355   9.625  0.9083 -0.2353 -2.6335
14095SOL     OW51062   5.472   0.680   9.718 -0.3720 -0.5464 -0.3572
14095SOL    HW151063   5.416   0.603   9.712  0.1502 -0.9294 -0.4596
14095SOL    HW251064   5.413   0.754   9.705 -0.6465 -0.9921 -1.8439
14096SOL     OW51065  11.172   7.682   1.743  0.5956  0.1812 -0.7565
14096SOL    HW151066  11.195   7.769   1.775 -2.7948  0.4643  1.3544
14096SOL    HW251067  11.176   7.626   1.820 -0.4575 -0.8245 -1.4048
14097SOL     OW51068   3.970   1.056   2.600 -0.0248  0.1322 -0.0697
14097SOL    HW151069   4.002   1.058   2.510 -0.6300  1.5919 -0.2782
14097SOL    HW251070   3.889   1.005   2.595  1.4650 -2.4531  0.2378
14098SOL     OW51071   9.989   0.795   3.770  0.6528 -0.1073 -0.2112
14098SOL    HW151072   9.984   0.720   3.711 -0.6126  0.8469 -1.4051
14098SOL    HW251073   9.954   0.763   3.853  1.6041 -1.2305 -0.2218
14099SOL     OW51074   8.601   4.004  12.240 -0.3632 -0.4744 -0.5253
14099SOL    HW151075   8.527   4.053  12.273  0.9869 -0.6253  3.2251
14099SOL    HW251076   8.622   4.044  12.156 -2.1207  2.3103  0.2493
14100SOL     OW51077  10.691   0.718   5.863  0.2858  0.0652 -0.2938
14100SOL    HW151078  10.760   0.702   5.799  1.2191 -0.2559  0.7388
14100SOL    HW251079  10.736   0.763   5.935 -0.6793  0.2557  0.2010
14101SOL     OW51080   9.527   6.171  12.278  0.4221  0.2891 -0.1372
14101SOL    HW151081   9.509   6.263  12.256 -1.2281  0.2959  1.0439
14101SOL    HW251082   9.446   6.125  12.257  1.1225 -0.8514 -0.4070
14102SOL     OW51083   6.195   9.217   4.611 -0.2902 -0.0214  0.7090
14102SOL    HW151084   6.112   9.235   4.655 -1.4975  1.2204 -1.8448
14102SOL    HW251085   6.177   9.143   4.553  0.4451  0.0860  0.3250
14103SOL     OW51086   5.790  11.259   9.726 -0.6287  0.1891 -0.0729
14103SOL    HW151087   5.825  11.171   9.710  1.3306  0.6932  1.0563
14103SOL    HW251088   5.862  11.305   9.770 -2.5495  1.5252  1.8655
14104SOL     OW51089   5.482  10.689   4.883 -0.6097 -0.2012 -0.1435
14104SOL    HW151090   5.527  10.606   4.865 -1.5048 -0.3983 -1.6996
14104SOL    HW251091   5.410  10.691   4.819 -0.5155  1.8452 -0.2393
14105SOL     OW51092   9.060  11.704   9.818 -0.1640 -0.0252 -0.0405
14105SOL    HW151093   8.978  11.666   9.786 -0.5258  0.2941  0.4901
14105SOL    HW251094   9.034  11.786   9.859  0.8028  1.6871 -2.6417
14106SOL     OW51095   5.127  10.529  11.405  0.1189 -0.3974 -0.4323
14106SOL    HW151096   5.032  10.524  11.415 -0.1966  1.7548 -1.5510
14106SOL    HW251097   5.162  10.486  11.482 -1.7494 -1.4435 -0.0967
14107SOL     OW51098   6.778   4.500   9.186  0.9196 -0.6644  0.3391
14107SOL    HW151099   6.812   4.505   9.097  0.0978  0.1427  0.0522
14107SOL    HW251100   6.751   4.589   9.206  0.8336 -0.8993  1.2950
14108SOL     OW51101   0.839  12.242   6.833  0.4084  0.0801  0.1064
14108SOL    HW151102   0.876  12.273   6.915  0.8051  2.6909 -0.9440
14108SOL    HW251103   0.914  12.210   6.783  0.8250  2.0537 -0.6396
14109SOL     OW51104   5.440  10.067   0.782 -0.1545  0.2750 -0.4346
14109SOL    HW151105   5.445  10.118   0.701  0.9998  0.1645 -0.4535
14109SOL    HW251106   5.525  10.023   0.788 -1.0180 -1.4607 -0.2960
14110SOL     OW51107   0.725   3.802   8.994  0.1710  0.0331 -0.0911
14110SOL    HW151108   0.744   3.781   9.086 -2.7139 -0.9432  0.3928
14110SOL    HW251109   0.789   3.752   8.944 -0.2718 -2.1122  1.3401
14111SOL     OW51110   1.327   5.369   5.533 -0.8233  0.1344  0.6932
14111SOL    HW151111   1.315   5.367   5.628 -1.8967 -1.5600  0.5666
14111SOL    HW251112   1.241   5.347   5.498 -0.4635  0.8594 -0.6828
14112SOL     OW51113   3.783   8.198   9.018  0.3267  0.0238  0.2247
14112SOL    HW151114   3.833   8.152   8.951  4.5263  2.4585  1.3390
14112SOL    HW251115   3.795   8.147   9.098 -0.9922 -0.5341  0.1055
14113SOL     OW51116  10.808   3.294   2.724 -0.9989  0.0518  0.0732
14113SOL    HW151117  10.788   3.387   2.732 -0.5998  0.1086  0.4844
14113SOL    HW251118  10.903   3.291   2.712 -1.1899 -0.2154 -1.6415
14114SOL     OW51119   3.613  11.510   2.561 -0.0516 -0.4745  0.1238
14114SOL    HW151120   3.669  11.457   2.618  0.2875 -1.4092 -1.0205
14114SOL    HW251121   3.654  11.596   2.561 -1.0270  0.0618  2.6028
14115SOL     OW51122  11.608   5.001   4.392  0.5462  0.1829  0.3032
14115SOL    HW151123  11.577   5.090   4.410 -1.5443  0.0485 -2.0208
14115SOL    HW251124  11.688   5.013   4.341  2.0044  0.6115  2.5546
14116SOL     OW51125   6.005   0.015  12.471 -0.3008  0.2388 -0.0667
14116SOL    HW151126   6.036   0.101  12.442 -0.1536  0.4295  0.6317
14116SOL    HW251127   5.955  -0.019  12.396 -2.0917  1.7974  0.3301
14117SOL     OW51128   6.705   4.563   7.091 -0.0059 -0.1716 -0.3190
14117SOL    HW151129   6.771   4.541   7.025  0.6303  2.5642 -0.7080
14117SOL    HW251130   6.756   4.591   7.167 -0.7403 -0.3114  0.2332
14118SOL     OW51131   2.976   9.904  10.633  0.2612  0.1134 -0.0299
14118SOL    HW151132   3.062   9.906  10.591  0.1396  0.8162 -0.2430
14118SOL    HW251133   2.916   9.941  10.568 -0.1416 -0.0163  0.2621
14119SOL     OW51134   9.481  11.130   4.172 -0.0851 -0.5006  0.0252
14119SOL    HW151135   9.565  11.159   4.207  0.1877 -1.4852  0.2231
14119SOL    HW251136   9.495  11.124   4.078  0.0362 -0.5303  0.0445
14120SOL     OW51137   7.065  10.309  11.809  0.1533  0.1267  0.5666
14120SOL    HW151138   7.006  10.382  11.789  2.3501  2.4699  1.9532
14120SOL    HW251139   7.115  10.340  11.885  1.7456 -2.5616  0.7277
14121SOL     OW51140   5.291   9.498   4.402 -0.8221 -0.0461  0.3180
14121SOL    HW151141   5.250   9.424   4.446  0.9146 -2.1704 -1.3860
14121SOL    HW251142   5.220   9.539   4.353 -1.8070 -0.6377  1.2043
14122SOL     OW51143   5.805   6.794   8.867  0.4391  0.4949 -0.0911
14122SOL    HW151144   5.852   6.864   8.913  2.2009 -0.8621  0.2733
14122SOL    HW251145   5.822   6.716   8.919  0.1371 -0.5638 -1.5306
14123SOL     OW51146   6.886  10.560   5.446  0.4775 -0.9360 -0.5985
14123SOL    HW151147   6.792  10.572   5.432  0.2362  0.4876  1.7400
14123SOL    HW251148   6.903  10.470   5.419 -0.8437 -0.2739 -4.2108
14124SOL     OW51149   0.779   4.563  11.170 -0.1110  0.2958 -0.0669
14124SOL    HW151150   0.866   4.595  11.193 -1.1592  1.0831  3.5048
14124SOL    HW251151   0.795   4.491  11.109  3.3585 -1.9630  3.0372
14125SOL     OW51152   7.103  10.455   3.796  0.2113  0.3087 -0.1843
14125SOL    HW151153   7.145  10.522   3.742  1.2812 -0.9901 -1.0558
14125SOL    HW251154   7.033  10.501   3.841  0.2501  1.7938 -1.5246
14126SOL     OW51155   9.183   0.978  11.512  0.2063 -0.4558 -0.3744
14126SOL    HW151156   9.156   1.063  11.547  0.5860 -0.8180  0.8908
14126SOL    HW251157   9.199   0.993  11.419  1.7630  1.2466  0.1093
14127SOL     OW51158   6.112   3.500   4.300 -0.0459 -0.0485 -0.1044
14127SOL    HW151159   6.107   3.405   4.295  1.7776 -0.2170  0.5741
14127SOL    HW251160   6.075   3.530   4.217 -0.9868 -1.3088 -0.1787
14128SOL     OW51161   4.823   9.862   6.238 -0.6538  0.4625 -0.1350
14128SOL    HW151162   4.887   9.931   6.218  0.1517  0.4618  2.0968
14128SOL    HW251163   4.819   9.861   6.334  1.3489 -4.2817  0.1591
14129SOL     OW51164   7.933  11.233   4.654 -0.1116 -0.3918  0.7691
14129SOL    HW151165   8.003  11.175   4.624  1.3171  2.0498 -0.9709
14129SOL    HW251166   7.853  11.193   4.620  1.0500 -0.1915 -2.5064
14130SOL     OW51167   9.494   0.232   3.880 -0.1510 -0.1798 -0.3146
14130SOL    HW151168   9.559   0.166   3.906  0.1648  0.1275 -0.3112
14130SOL    HW251169   9.412   0.200   3.916  0.3801  0.6124  1.7335
14131SOL     OW51170   2.338   8.029   9.104  0.2520  0.2616 -0.4679
14131SOL    HW151171   2.300   7.944   9.128  0.0800  0.1582 -1.0760
14131SOL    HW251172   2.278   8.093   9.141  2.2902  0.2754  3.3065
14132SOL     OW51173   6.474  10.290   0.913  0.1639 -0.3072  0.1778
14132SOL    HW151174   6.526  10.360   0.953  2.9403 -0.8663 -2.1302
14132SOL    HW251175   6.529  10.212   0.920 -1.3647 -1.4844 -0.3990
14133SOL     OW51176   4.280   8.375   6.002  0.3265  0.2557  0.5440
14133SOL    HW151177   4.303   8.421   5.922 -0.1768  1.7295  1.2113
14133SOL    HW251178   4.340   8.410   6.068 -0.2332  0.1551  1.1160
14134SOL     OW51179  11.551   1.399   0.190 -0.2655 -0.1237 -0.2859
14134SOL    HW151180  11.471   1.416   0.240  0.0144  0.1250  0.0848
14134SOL    HW251181  11.610   1.470   0.214  0.4167 -0.8268  0.1984
14135SOL     OW51182   3.343   2.278   8.967 -0.4747  0.1952 -0.1491
14135SOL    HW151183   3.299   2.193   8.963 -0.7790  0.3683 -0.5516
14135SOL    HW251184   3.278   2.336   9.007 -0.4630  0.3589 -0.3668
14136SOL     OW51185   8.583   9.146   9.396 -0.6152  0.0364  0.2051
14136SOL    HW151186   8.510   9.206   9.404 -0.4822  0.2099  0.1040
14136SOL    HW251187   8.543   9.063   9.369 -0.7617  0.1594  0.0436
14137SOL     OW51188   8.615   1.223   5.385 -0.6808 -0.5633 -0.1030
14137SOL    HW151189   8.649   1.168   5.455 -0.4593  0.1749  0.3806
14137SOL    HW251190   8.601   1.308   5.426  0.8353  0.3130 -1.2854
14138SOL     OW51191   9.896   3.414   3.248  0.0617 -0.3053 -0.0716
14138SOL    HW151192   9.979   3.454   3.270  0.0794 -0.2072 -0.3147
14138SOL    HW251193   9.901   3.326   3.286 -0.5319  0.3727  1.7030
14139SOL     OW51194   2.388  11.055   2.638  0.2028 -0.0869 -1.1577
14139SOL    HW151195   2.445  10.987   2.602  0.5307 -0.4246 -0.0217
14139SOL    HW251196   2.430  11.082   2.719  0.2804  1.7576 -1.7709
14140SOL     OW51197   6.099   5.747   5.561 -0.6261  0.4017  0.0560
14140SOL    HW151198   6.194   5.754   5.569 -0.5561  0.4622 -0.7703
14140SOL    HW251199   6.065   5.815   5.619 -0.1483  1.0099 -0.3655
14141SOL     OW51200   5.388   7.590   9.991 -0.4001  0.0896 -0.3999
14141SOL    HW151201   5.457   7.524   9.997 -1.1446 -0.5698  1.4760
14141SOL    HW251202   5.425   7.657   9.934  0.8136 -1.3989 -1.4742
14142SOL     OW51203  11.935   5.916   6.350  0.2257  0.1248  0.7456
14142SOL    HW151204  11.870   5.892   6.284  0.2820  1.1097  0.3077
14142SOL    HW251205  11.888   5.912   6.433  0.3735 -1.9552  0.7640
14143SOL     OW51206   7.662   2.776  11.563 -0.1505 -0.1831  0.5540
14143SOL    HW151207   7.619   2.770  11.478  0.5711 -1.0611  0.2320
14143SOL    HW251208   7.750   2.741  11.548  0.9876  2.2639  0.9870
14144SOL     OW51209  10.603   8.690  11.297 -0.2219 -0.0073 -0.0685
14144SOL    HW151210  10.606   8.623  11.365 -0.2156 -2.3554 -2.2296
14144SOL    HW251211  10.511   8.715  11.291 -0.4664 -0.9208 -0.2241
14145SOL     OW51212   1.118  12.094  10.377 -0.4609  0.2838 -0.0096
14145SOL    HW151213   1.098  12.034  10.449  0.2149  2.3254  1.9865
14145SOL    HW251214   1.039  12.146  10.366  0.0460  1.1769  0.5049
14146SOL     OW51215   5.496   0.652   5.438 -0.2608  0.1781 -0.3568
14146SOL    HW151216   5.492   0.603   5.521  2.1243  1.3354  0.5351
14146SOL    HW251217   5.470   0.741   5.462  0.4479  0.5194 -0.8323
14147SOL     OW51218   2.817  12.122   1.772  0.2071  0.1928  0.0171
14147SOL    HW151219   2.768  12.093   1.849  0.5708 -0.0283  0.1697
14147SOL    HW251220   2.773  12.079   1.699  0.1713 -0.0047  0.1523
14148SOL     OW51221   1.612  11.049   2.438 -0.1318 -0.1034  0.3737
14148SOL    HW151222   1.582  11.130   2.479  0.4196 -1.2730  3.3557
14148SOL    HW251223   1.533  10.996   2.429 -0.2401  0.1216 -0.0300
14149SOL     OW51224  12.253   5.052   8.543  0.7864  0.3163  0.3938
14149SOL    HW151225  12.252   5.146   8.524  2.3224  0.2611 -0.0729
14149SOL    HW251226  12.224   5.045   8.634  0.4094  1.2120  0.3514
14150SOL     OW51227   3.790   5.641   3.057  0.1712  0.3658 -0.4229
14150SOL    HW151228   3.862   5.581   3.034  0.1587  1.2198 -3.0749
14150SOL    HW251229   3.829   5.728   3.051 -0.7608  0.7788 -0.5551
14151SOL     OW51230   5.417   4.182   9.158  0.3657 -0.0317 -0.2354
14151SOL    HW151231   5.452   4.094   9.166  0.3824 -0.0963 -0.9398
14151SOL    HW251232   5.492   4.240   9.169  0.3574 -0.1008  0.2073
14152SOL     OW51233  11.579   6.738   9.019  0.0959 -0.1408  0.1394
14152SOL    HW151234  11.583   6.833   9.030 -0.4857 -0.2427  1.3819
14152SOL    HW251235  11.487   6.719   9.002  0.4317 -0.3621 -1.6403
14153SOL     OW51236   7.882   9.076   3.901  0.3728  0.1820  0.7469
14153SOL    HW151237   7.966   9.066   3.947  0.2408 -3.6376  0.5116
14153SOL    HW251238   7.852   8.986   3.887 -2.1564  1.3057 -2.1891
14154SOL     OW51239   9.794   4.806   5.211  0.0337 -0.2386  0.0247
14154SOL    HW151240   9.823   4.853   5.290 -0.5839  0.7479 -0.3221
14154SOL    HW251241   9.766   4.875   5.151 -1.5544 -1.0724 -0.2472
14155SOL     OW51242   8.110   6.919   2.485 -0.3435  0.4168 -0.1130
14155SOL    HW151243   8.180   6.865   2.521 -1.4642 -1.4440 -0.5768
14155SOL    HW251244   8.111   6.901   2.391 -0.8081  1.1308 -0.2631
14156SOL     OW51245  12.025   5.947  10.047 -0.2841  0.3999 -0.0175
14156SOL    HW151246  12.055   5.861  10.018 -3.7896 -0.7912 -0.6190
14156SOL    HW251247  12.082   6.009  10.002  1.6362 -1.5813 -0.4541
14157SOL     OW51248   6.708   8.117   8.157 -0.1247 -0.0497 -0.0862
14157SOL    HW151249   6.794   8.080   8.137 -0.5909  0.3236 -3.2760
14157SOL    HW251250   6.645   8.054   8.119 -1.1682  0.8212  0.1404
14158SOL     OW51251   7.263   6.758  12.273 -0.2670 -0.0085 -0.1451
14158SOL    HW151252   7.252   6.842  12.319 -2.9164 -0.2490 -0.1944
14158SOL    HW251253   7.222   6.772  12.188  0.0505 -1.1055 -0.4901
14159SOL     OW51254  11.246  11.044   0.208  0.7561  0.5790 -0.1926
14159SOL    HW151255  11.192  11.118   0.237  2.5932  2.0324 -0.2940
14159SOL    HW251256  11.221  10.972   0.266 -3.6365  0.0846 -2.2755
14160SOL     OW51257   5.794  11.113   7.708 -0.9006  0.2625 -0.1863
14160SOL    HW151258   5.728  11.101   7.776 -0.1411  0.7012  0.6428
14160SOL    HW251259   5.878  11.101   7.753 -0.4094 -1.4087 -1.4314
14161SOL     OW51260  11.646   9.677   8.620  0.6761 -0.2563  0.2389
14161SOL    HW151261  11.674   9.769   8.625  0.7787 -0.2878  0.2458
14161SOL    HW251262  11.688   9.635   8.695  0.4633 -0.2656  0.3544
14162SOL     OW51263  12.062   7.253   2.101 -0.0466 -0.1187  0.4145
14162SOL    HW151264  11.988   7.291   2.148 -1.3809 -0.1580 -1.5490
14162SOL    HW251265  12.103   7.327   2.055 -0.5239 -0.4937 -0.6392
14163SOL     OW51266   6.086   1.778   6.000  0.5675 -0.0914  0.1913
14163SOL    HW151267   6.053   1.794   5.911  0.1654 -0.0082  0.3500
14163SOL    HW251268   6.006   1.769   6.053  0.7336 -2.7342  0.1016
14164SOL     OW51269   9.079   1.879   2.062  0.1738 -0.3845 -0.7137
14164SOL    HW151270   8.989   1.898   2.089  0.2959  1.3339 -1.3707
14164SOL    HW251271   9.101   1.950   2.001  1.8986 -0.9080 -0.7544
14165SOL     OW51272   3.097   1.007   1.949  0.4090  0.2344 -0.0008
14165SOL    HW151273   3.028   1.073   1.953  0.6499  0.4200  2.2218
14165SOL    HW251274   3.135   1.018   1.862 -2.2382  0.2002 -1.2595
14166SOL     OW51275   5.102   3.094   1.132 -0.2472  0.0686 -0.8580
14166SOL    HW151276   5.103   3.157   1.205  0.7814 -0.6959 -0.1828
14166SOL    HW251277   5.039   3.027   1.160  0.4290 -0.4205 -0.4889
14167SOL     OW51278   7.086  11.449   3.438  0.2043 -0.3316 -0.5867
14167SOL    HW151279   7.001  11.437   3.394 -0.0458  1.7045 -0.7356
14167SOL    HW251280   7.108  11.541   3.423  2.0246 -0.5970  0.2250
14168SOL     OW51281   4.660   0.031   9.358 -0.4338  0.2783  0.0325
14168SOL    HW151282   4.598   0.003   9.290  0.2596 -1.2757  0.0148
14168SOL    HW251283   4.722   0.087   9.311 -1.5302  1.5134 -0.0286
14169SOL     OW51284   0.008   4.548   9.027 -0.2532 -0.0657 -0.5163
14169SOL    HW151285   0.039   4.614   8.966 -1.0336 -0.4722 -1.3662
14169SOL    HW251286  -0.087   4.558   9.029 -0.4368 -1.4679 -1.0425
14170SOL     OW51287   7.271   4.609  11.557  0.2162 -0.4173  0.5574
14170SOL    HW151288   7.254   4.525  11.514 -1.0526 -0.3699  0.9147
14170SOL    HW251289   7.221   4.672  11.506 -0.6120 -0.2292  1.5652
14171SOL     OW51290  10.015   6.456  10.177  0.1955 -0.0031  0.1310
14171SOL    HW151291  10.068   6.515  10.232 -0.4287 -0.0167  0.7555
14171SOL    HW251292  10.070   6.377  10.167  1.3598  0.9280 -1.3312
14172SOL     OW51293   4.772   1.558  10.159  0.1646 -0.3481 -0.3248
14172SOL    HW151294   4.766   1.566  10.064 -1.9948 -1.4106 -0.3397
14172SOL    HW251295   4.758   1.646  10.192 -0.4993 -0.2052 -0.9705
14173SOL     OW51296  11.179   7.971  10.901  0.1701  0.0501  0.1662
14173SOL    HW151297  11.137   7.964  10.987 -0.5287  0.9206 -0.0907
14173SOL    HW251298  11.234   7.892  10.894  1.1701  0.5409  1.9095
14174SOL     OW51299  12.026   9.816  11.579  0.8769  0.0112 -0.5000
14174SOL    HW151300  11.997   9.907  11.568 -0.8654 -0.4624 -0.2077
14174SOL    HW251301  11.965   9.780  11.643  3.1629 -0.6690  1.4254
14175SOL     OW51302   3.686   0.174   0.546 -0.0043  0.5893 -0.3034
14175SOL    HW151303   3.740   0.208   0.616  0.7292  1.9494 -1.4776
14175SOL    HW251304   3.720   0.086   0.530  0.2752  0.5347  0.5548
14176SOL     OW51305   5.575  12.361  12.546 -0.2563  0.0810 -0.3571
14176SOL    HW151306   5.601  12.451  12.524 -1.2585  0.1767 -1.2177
14176SOL    HW251307   5.642  12.306  12.506  0.5216  0.4400  0.4147
14177SOL     OW51308  11.209   5.069   4.687 -0.4024  0.4277 -0.4774
14177SOL    HW151309  11.300   5.083   4.712 -0.2270  0.3066 -1.0496
14177SOL    HW251310  11.167   5.154   4.702 -0.3683  0.2835  0.5047
14178SOL     OW51311   8.423  11.012   6.218  0.2018 -0.1038  0.3153
14178SOL    HW151312   8.408  10.958   6.140  1.1588  0.6662 -0.4290
14178SOL    HW251313   8.340  11.056   6.234 -0.2184 -0.8280  0.1789
14179SOL     OW51314   0.267  11.718   5.557  0.1654  0.0686 -0.2024
14179SOL    HW151315   0.266  11.624   5.572  0.2452  0.2111  0.7641
14179SOL    HW251316   0.349  11.748   5.596 -0.2818  0.6553  0.2990
14180SOL     OW51317  10.350   7.298   8.433 -0.1201  0.1319  0.0514
14180SOL    HW151318  10.433   7.312   8.478  0.7714 -0.3507 -1.3847
14180SOL    HW251319  10.288   7.274   8.503  0.9647  0.3416  1.1128
14181SOL     OW51320   8.037   0.089   1.640 -0.0499 -0.0623  0.1358
14181SOL    HW151321   7.980   0.153   1.684  1.2187  0.2340  1.4199
14181SOL    HW251322   8.033   0.011   1.695  0.5233 -0.1511  0.0553
14182SOL     OW51323   2.352   8.579   2.991  0.8027  0.6994 -0.5686
14182SOL    HW151324   2.287   8.609   3.055  0.5818  0.5869 -0.7383
14182SOL    HW251325   2.310   8.506   2.947  0.8964  0.8699 -0.9458
14183SOL     OW51326   7.155  10.672   0.767 -0.3157  0.1466 -0.2978
14183SOL    HW151327   7.149  10.685   0.862 -1.1790  1.3555 -0.4928
14183SOL    HW251328   7.235  10.621   0.755 -2.4387 -4.1138  1.4286
14184SOL     OW51329   4.606  11.978   6.232  0.5090  0.2376  0.9786
14184SOL    HW151330   4.627  11.955   6.141 -1.9296  1.6904 -0.0670
14184SOL    HW251331   4.654  11.914   6.285 -0.1269 -2.4461 -1.4108
14185SOL     OW51332  12.360   7.329   1.431  0.2382 -0.1839 -0.0519
14185SOL    HW151333  12.416   7.346   1.356  1.6676  0.9564  1.2084
14185SOL    HW251334  12.356   7.233   1.436  1.9384 -0.3140 -0.3370
14186SOL     OW51335   9.677   5.827   1.934 -0.1328  0.1684 -1.0441
14186SOL    HW151336   9.668   5.912   1.977 -0.0180  0.0215 -0.7318
14186SOL    HW251337   9.731   5.775   1.993  1.7656  0.6140 -2.2925
14187SOL     OW51338   1.545   0.131  10.581  0.3480 -0.0819  0.4797
14187SOL    HW151339   1.616   0.174  10.534 -0.4243  1.8654  0.9779
14187SOL    HW251340   1.493   0.088  10.512  0.4820  0.8116 -0.1947
14188SOL     OW51341   8.098   0.784   3.414 -0.0500 -0.2966 -0.4544
14188SOL    HW151342   8.069   0.836   3.339  0.9416  1.0353  0.0526
14188SOL    HW251343   8.192   0.774   3.401  0.0697 -0.3599  0.4393
14189SOL     OW51344   0.478   6.704  11.739 -0.0909 -0.5037  0.6788
14189SOL    HW151345   0.390   6.698  11.700  0.0123  0.9310  0.1517
14189SOL    HW251346   0.474   6.783  11.794  1.3280  0.5464 -0.6529
14190SOL     OW51347  11.233  12.223   5.631 -0.2226 -0.5511 -0.0966
14190SOL    HW151348  11.261  12.255   5.717  1.3154 -2.8294  0.3325
14190SOL    HW251349  11.156  12.169   5.650  0.3936 -1.4368 -0.0397
14191SOL     OW51350   7.949   7.090   7.971 -0.2625  0.3506 -0.1295
14191SOL    HW151351   7.991   7.101   8.056 -1.9072  3.5420  0.4231
14191SOL    HW251352   8.017   7.050   7.916  2.4485  2.3624  1.4996
14192SOL     OW51353   4.187   9.331   6.743 -0.6142 -0.6938  0.7135
14192SOL    HW151354   4.256   9.395   6.761 -0.9611 -0.3855  0.9745
14192SOL    HW251355   4.233   9.252   6.715 -0.2052 -0.1644 -0.1191
14193SOL     OW51356   6.318   4.008   1.532 -0.1784  0.0216 -0.1205
14193SOL    HW151357   6.277   4.065   1.597  1.0678 -0.8782  1.5241
14193SOL    HW251358   6.267   3.927   1.536 -0.1655  0.0028 -0.3422
14194SOL     OW51359   5.506   3.651  11.505 -0.3254  0.3637 -0.1165
14194SOL    HW151360   5.416   3.676  11.526 -0.6600  0.2028 -1.2627
14194SOL    HW251361   5.526   3.580  11.566 -0.5809  1.1129  0.8641
14195SOL     OW51362   0.016   4.006   8.758  0.8133 -0.2251 -0.1638
14195SOL    HW151363   0.046   3.917   8.776 -1.4543 -1.7005 -2.9021
14195SOL    HW251364  -0.061   4.017   8.814  0.5765 -0.3550 -0.4587
14196SOL     OW51365   6.372  10.376  12.580  0.2800 -0.1350  0.0364
14196SOL    HW151366   6.384  10.306  12.644 -1.8426 -0.7802 -0.2208
14196SOL    HW251367   6.358  10.455  12.633 -0.8734 -0.5553  0.3723
14197SOL     OW51368   1.451   2.534   1.617  0.3238 -0.2508 -0.0687
14197SOL    HW151369   1.472   2.543   1.524  3.3325 -1.7230  0.3315
14197SOL    HW251370   1.536   2.531   1.661 -0.9322 -1.2217  2.5584
14198SOL     OW51371   6.481   3.129   2.060 -0.2418 -0.0356 -0.0639
14198SOL    HW151372   6.532   3.110   1.981 -0.2801 -0.9393  0.1219
14198SOL    HW251373   6.416   3.059   2.064 -1.1051  0.7617  0.0481
14199SOL     OW51374   4.273   8.706   1.940  0.1634  0.4627 -0.0558
14199SOL    HW151375   4.230   8.757   1.871  0.0140  0.8955  0.3545
14199SOL    HW251376   4.352   8.672   1.898  0.0482  0.6784 -0.4579
14200SOL     OW51377   8.900   6.978   1.344  0.5277 -0.2367  0.2827
14200SOL    HW151378   8.875   6.962   1.435  1.2182  0.2299  0.5577
14200SOL    HW251379   8.981   6.929   1.332  0.7472  0.1733  0.0874
14201SOL     OW51380   2.715   5.510   2.972  0.2268  0.2113  0.0749
14201SOL    HW151381   2.632   5.469   2.947  0.7190 -0.2217 -0.9168
14201SOL    HW251382   2.694   5.562   3.050 -1.1267  0.6460 -0.5391
14202SOL     OW51383   1.939   0.221   9.628 -0.3380  0.2089 -0.8168
14202SOL    HW151384   1.857   0.235   9.581  0.0367  1.5802 -1.0889
14202SOL    HW251385   1.975   0.309   9.641  1.5490 -0.4245 -1.5166
14203SOL     OW51386   2.676   5.690   0.107 -0.1691 -0.6841 -0.1449
14203SOL    HW151387   2.624   5.764   0.137  1.3919 -0.0657  1.1471
14203SOL    HW251388   2.611   5.621   0.091 -1.6077  0.7680 -0.9534
14204SOL     OW51389   7.227   7.951   2.365 -0.5020  0.3943  0.3900
14204SOL    HW151390   7.211   7.858   2.379  0.6751  0.1768  0.3288
14204SOL    HW251391   7.217   7.990   2.452 -0.2084  0.0951  0.5563
14205SOL     OW51392   0.911   6.060  10.064 -0.2316 -0.3204 -0.4777
14205SOL    HW151393   0.965   6.129  10.026 -1.4879  0.3765 -1.0447
14205SOL    HW251394   0.925   5.984  10.007  1.1016 -0.5368  0.1107
14206SOL     OW51395   1.181   6.674   5.156 -0.0931  0.3446 -0.1676
14206SOL    HW151396   1.198   6.617   5.231  2.7080  0.5410 -0.5339
14206SOL    HW251397   1.148   6.615   5.088  1.1603 -0.5856 -0.0074
14207SOL     OW51398  12.019   9.140   9.573 -0.3610  0.1111  0.0122
14207SOL    HW151399  12.065   9.086   9.637 -1.0856  0.1767  0.6006
14207SOL    HW251400  12.086   9.199   9.539 -0.1564  0.7007  1.3731
14208SOL     OW51401   3.127   8.631   5.359 -0.4162  0.2896  0.4842
14208SOL    HW151402   3.059   8.687   5.323 -0.2508 -0.8207 -1.7206
14208SOL    HW251403   3.124   8.551   5.305  1.0680 -0.7461  1.8313
14209SOL     OW51404   1.973   3.542   3.933  0.1691  0.6515 -0.2291
14209SOL    HW151405   1.941   3.623   3.974  2.3091  1.6253 -0.3471
14209SOL    HW251406   1.963   3.558   3.839 -0.0483  0.4920 -0.2328
14210SOL     OW51407   4.226   3.876  12.490  0.6029  0.4478 -0.0864
14210SOL    HW151408   4.137   3.909  12.506  0.7867  0.1059  1.7760
14210SOL    HW251409   4.227   3.789  12.530  1.6657  0.2572 -0.4855
14211SOL     OW51410   0.621   6.675   2.716  0.2797  0.3375  0.5957
14211SOL    HW151411   0.670   6.723   2.783 -0.6783 -0.1771  1.7051
14211SOL    HW251412   0.623   6.584   2.746  0.5920 -0.0456 -0.5631
14212SOL     OW51413   2.602  12.158   2.999  0.2343 -0.4844 -0.2474
14212SOL    HW151414   2.620  12.064   2.993 -0.5770 -0.5808 -2.1548
14212SOL    HW251415   2.619  12.180   3.090  0.7486 -2.4170  0.1816
14213SOL     OW51416   6.753   7.273   8.865  0.5776 -0.3347  0.8441
14213SOL    HW151417   6.827   7.301   8.812 -0.5752  1.5818  0.1553
14213SOL    HW251418   6.699   7.221   8.805  0.3565 -0.0179  0.7690
14214SOL     OW51419   9.683   6.744   8.064  0.6498 -0.1763 -0.1123
14214SOL    HW151420   9.684   6.664   8.010 -2.5030 -1.1901  1.0477
14214SOL    HW251421   9.752   6.730   8.129  1.3502 -1.1166 -1.0197
14215SOL     OW51422   8.659   1.811   6.734 -0.0029  0.0378 -0.3492
14215SOL    HW151423   8.642   1.792   6.642 -1.1591  0.0335 -0.1471
14215SOL    HW251424   8.632   1.732   6.780  0.2790  0.1573  0.0240
14216SOL     OW51425   1.635   1.918  11.487  0.1237 -0.5114 -0.3486
14216SOL    HW151426   1.642   1.933  11.581  0.3147 -1.3989 -0.2050
14216SOL    HW251427   1.724   1.929  11.454 -0.1102  0.7547 -0.5908
14217SOL     OW51428   4.655   2.766   7.672  0.4239  0.0274  0.4399
14217SOL    HW151429   4.660   2.798   7.582  0.2693  1.2709  0.8548
14217SOL    HW251430   4.726   2.702   7.679 -0.2569 -0.9097 -0.8664
14218SOL     OW51431   2.789  10.552  10.885  0.4127  0.1520  0.3830
14218SOL    HW151432   2.734  10.549  10.807 -0.0076 -2.1202  0.6887
14218SOL    HW251433   2.873  10.516  10.857  0.5513  0.1728  0.7650
14219SOL     OW51434  12.463   3.597  10.001 -0.1137 -1.0028  0.1315
14219SOL    HW151435  12.505   3.618   9.917 -0.3292 -1.2456 -0.0377
14219SOL    HW251436  12.532   3.612  10.066  0.1838 -1.2211 -0.1289
14220SOL     OW51437   8.875   8.267   0.117  0.3247  0.1422 -1.2537
14220SOL    HW151438   8.825   8.191   0.087 -0.1191 -0.5331  1.0137
14220SOL    HW251439   8.910   8.240   0.201  0.2710  2.4168 -0.4572
14221SOL     OW51440   9.015  11.436   4.032  0.2374  0.1775  0.5298
14221SOL    HW151441   9.016  11.351   3.987  0.3857  1.2129 -1.5181
14221SOL    HW251442   8.969  11.495   3.972  0.7127  1.7275  1.6186
14222SOL     OW51443   6.157   2.535   3.918  0.1016  0.1543  0.3246
14222SOL    HW151444   6.192   2.446   3.920 -0.3201 -0.0073  0.4637
14222SOL    HW251445   6.208   2.581   3.985  4.6523  1.6631 -3.5706
14223SOL     OW51446   2.319   7.991   5.877  0.3663  0.4131  0.9582
14223SOL    HW151447   2.369   7.954   5.804 -1.3207  0.4670 -0.2779
14223SOL    HW251448   2.249   7.927   5.893 -2.5047  2.7513 -1.1006
14224SOL     OW51449   4.836   6.158   1.363 -0.1867  0.1113 -0.4912
14224SOL    HW151450   4.823   6.149   1.457 -1.2976  0.6341 -0.5720
14224SOL    HW251451   4.842   6.068   1.331  0.1475 -0.0698  0.0635
14225SOL     OW51452   4.490   8.637  10.079 -0.0290  0.4950  0.3542
14225SOL    HW151453   4.484   8.720  10.126 -0.7490 -0.5327  2.2308
14225SOL    HW251454   4.512   8.573  10.147  0.2025 -0.8963 -0.9690
14226SOL     OW51455  12.436   7.504   8.531 -0.2148  0.1525 -0.0362
14226SOL    HW151456  12.400   7.519   8.619 -1.5071  0.9612 -0.6744
14226SOL    HW251457  12.531   7.505   8.544 -0.3599  1.1801  1.2238
14227SOL     OW51458   4.266   2.252   5.440  0.2150  0.5357  0.6150
14227SOL    HW151459   4.286   2.343   5.464 -1.6959  1.1748 -0.0672
14227SOL    HW251460   4.189   2.229   5.492  0.6944 -0.7268  0.8070
14228SOL     OW51461  10.188  10.280   3.531  0.5505  0.3819 -0.4349
14228SOL    HW151462  10.284  10.276   3.534  0.5367 -0.6041 -0.9111
14228SOL    HW251463  10.165  10.232   3.451 -0.4486 -1.5084  0.9333
14229SOL     OW51464   7.049   0.089   0.869  0.0163 -0.8811  0.1388
14229SOL    HW151465   7.090   0.147   0.805 -1.2697 -1.0427 -0.8753
14229SOL    HW251466   7.056   0.135   0.952 -1.1779  0.8608 -0.6727
14230SOL     OW51467   8.131   5.494   0.653  0.1521  0.8092 -0.0521
14230SOL    HW151468   8.079   5.456   0.724 -0.0743  1.0356 -0.0948
14230SOL    HW251469   8.205   5.435   0.643  0.9420  1.5182  1.3114
14231SOL     OW51470   0.494   8.720  10.372  0.4511 -0.6391  0.2035
14231SOL    HW151471   0.526   8.810  10.369  1.5280 -1.0341 -0.8443
14231SOL    HW251472   0.556   8.671  10.319 -1.3497 -1.6360 -1.0617
14232SOL     OW51473   8.760   2.179   7.426 -0.5408  0.2877 -0.2075
14232SOL    HW151474   8.787   2.164   7.516 -4.4285 -1.7704  0.8057
14232SOL    HW251475   8.666   2.197   7.430 -1.6477 -3.0410 -3.9265
14233SOL     OW51476   7.956   1.323  11.156 -0.1812  0.3095 -0.3633
14233SOL    HW151477   7.985   1.359  11.072 -0.7214  1.6493 -0.0034
14233SOL    HW251478   7.869   1.287  11.138 -0.6958  1.4158 -0.2139
14234SOL     OW51479   3.650   9.372   4.072  0.3692 -0.4178 -0.0150
14234SOL    HW151480   3.743   9.357   4.085  0.3340 -2.1533 -1.4154
14234SOL    HW251481   3.613   9.284   4.061 -1.1729  0.3238 -1.0705
14235SOL     OW51482  12.201   2.798   2.318  0.0078  0.5401 -0.0133
14235SOL    HW151483  12.126   2.789   2.259 -0.3843  1.7821  0.2784
14235SOL    HW251484  12.162   2.805   2.405  0.5783 -1.1004  0.4096
14236SOL     OW51485  12.543   5.416   8.712  0.1120  0.0766 -0.6432
14236SOL    HW151486  12.602   5.460   8.652  0.8962 -0.1552 -0.0565
14236SOL    HW251487  12.535   5.475   8.787  0.0027 -0.1239 -0.4942
14237SOL     OW51488   0.103   0.205   2.252 -0.1557  0.0919  0.2195
14237SOL    HW151489   0.191   0.240   2.267 -0.6077  0.8984  1.1648
14237SOL    HW251490   0.103   0.120   2.294  0.1201  0.1700  0.3771
14238SOL     OW51491   4.194   8.169  12.599 -0.1452  0.1140  0.2078
14238SOL    HW151492   4.235   8.254  12.613  0.9997 -0.0729 -1.5514
14238SOL    HW251493   4.100   8.186  12.600  0.0706  1.4161 -0.1647
14239SOL     OW51494   5.291   2.051   0.337  0.1790  0.4241  0.3102
14239SOL    HW151495   5.380   2.056   0.304  0.1359  0.9299  0.2601
14239SOL    HW251496   5.267   1.958   0.328  0.9940  0.1197  1.1224
14240SOL     OW51497   6.410   7.299   3.748 -0.1238 -0.2664  0.1944
14240SOL    HW151498   6.323   7.268   3.726  0.6028 -0.9083 -2.0330
14240SOL    HW251499   6.423   7.272   3.839 -2.0291 -0.6217  0.3901
14241SOL     OW51500   5.859  12.331   4.294  0.2543 -0.0379 -0.1237
14241SOL    HW151501   5.923  12.286   4.239  1.0529  0.8548  0.0702
14241SOL    HW251502   5.776  12.322   4.245  1.0199  1.1086 -1.7192
14242SOL     OW51503   7.943   2.902   1.722  0.5098 -0.3862 -0.0525
14242SOL    HW151504   7.881   2.836   1.691  0.6660 -0.6004  0.0939
14242SOL    HW251505   7.909   2.985   1.686 -0.1258 -0.4361  0.4021
14243SOL     OW51506   2.087   0.837   9.710 -0.4225  0.2640  0.2087
14243SOL    HW151507   2.138   0.756   9.718  0.5838  0.4860 -2.6966
14243SOL    HW251508   1.996   0.809   9.717 -0.1177 -1.2503 -1.1206
14244SOL     OW51509   7.302   8.627   4.653 -0.0411 -0.1618  0.6457
14244SOL    HW151510   7.398   8.635   4.650  0.1702 -2.3138 -1.7090
14244SOL    HW251511   7.272   8.687   4.584 -0.5007  1.0286  1.8380
14245SOL     OW51512  10.593   9.212   0.295  0.2223 -0.0188 -1.2027
14245SOL    HW151513  10.660   9.225   0.228  1.3202 -1.3148 -0.4067
14245SOL    HW251514  10.642   9.207   0.377 -0.7846 -1.5642 -0.6575
14246SOL     OW51515  11.830   3.866   5.599 -0.4559  0.5275  0.1246
14246SOL    HW151516  11.812   3.806   5.671  1.7928  0.0788  0.4005
14246SOL    HW251517  11.902   3.824   5.551 -0.0440  2.1456 -0.7413
14247SOL     OW51518   9.296   3.363   7.262  0.0352  0.1033 -0.0730
14247SOL    HW151519   9.304   3.335   7.353  0.1881  0.6253  0.0773
14247SOL    HW251520   9.224   3.426   7.262 -0.1706 -0.1312 -0.3688
14248SOL     OW51521   7.558  12.096   3.730  0.3173 -0.3601  0.0985
14248SOL    HW151522   7.572  12.115   3.823 -0.4899 -0.9056  0.3373
14248SOL    HW251523   7.590  12.007   3.718  1.7546  0.1983 -0.4775
14249SOL     OW51524  11.559   3.822  12.511 -0.0579 -0.3134 -0.2550
14249SOL    HW151525  11.529   3.870  12.589  0.6658 -2.3740  1.3964
14249SOL    HW251526  11.483   3.771  12.483  0.1404 -0.8255  0.1290
14250SOL     OW51527   6.978   3.916   3.526  0.1092  0.0059 -0.3443
14250SOL    HW151528   7.040   3.977   3.567  0.8340 -0.0504 -1.3228
14250SOL    HW251529   6.927   3.970   3.466 -2.8516  0.6516  2.4781
14251SOL     OW51530  11.889   2.725   8.155  0.2495 -0.3882  0.1981
14251SOL    HW151531  11.935   2.788   8.211  0.0621  0.6499 -0.7833
14251SOL    HW251532  11.932   2.734   8.070 -0.0054 -1.3600 -0.0403
14252SOL     OW51533   1.331   3.958  12.094  0.0811 -0.6178 -0.1688
14252SOL    HW151534   1.336   3.956  12.190  2.5366 -1.6317 -0.2328
14252SOL    HW251535   1.363   4.044  12.070 -1.0385 -0.1639 -0.1021
14253SOL     OW51536   7.879  11.169   1.245 -0.0039 -0.0957  0.3582
14253SOL    HW151537   7.830  11.111   1.304 -2.1965  0.6413 -0.6296
14253SOL    HW251538   7.860  11.135   1.158 -0.9813  1.8192 -0.2133
14254SOL     OW51539   0.871  10.859  11.462 -0.1865 -0.3421 -0.3200
14254SOL    HW151540   0.819  10.792  11.418  1.2002  0.7174 -4.0176
14254SOL    HW251541   0.961  10.842  11.432  0.5847  1.6310  0.7115
14255SOL     OW51542  11.827   9.655   9.522  0.9909 -0.0901 -0.2247
14255SOL    HW151543  11.776   9.577   9.498  0.3083 -0.0307  0.9420
14255SOL    HW251544  11.765   9.710   9.570  1.3968  1.2956 -1.2173
14256SOL     OW51545   0.084  11.688  11.958  0.8741  0.3499  0.5599
14256SOL    HW151546   0.128  11.682  11.873  0.5495 -0.7953  0.4495
14256SOL    HW251547   0.072  11.782  11.973  1.1432  0.5723 -0.5506
14257SOL     OW51548   0.216   5.026   5.388 -0.0966  0.4813 -0.3926
14257SOL    HW151549   0.235   4.986   5.472 -1.3304  0.2318 -0.2150
14257SOL    HW251550   0.215   5.121   5.405  0.6357  0.4868 -0.3498
14258SOL     OW51551   4.697   3.933   0.437  0.0431 -0.0913  0.0473
14258SOL    HW151552   4.676   3.953   0.346 -0.6846 -0.0419  0.2203
14258SOL    HW251553   4.618   3.893   0.472  0.0899  0.4909  0.8410
14259SOL     OW51554   5.846  10.897   5.113  0.0128 -0.6026 -0.0923
14259SOL    HW151555   5.788  10.854   5.175  1.5080 -1.3218  0.8625
14259SOL    HW251556   5.865  10.983   5.152  0.0213 -0.5865 -0.1318
14260SOL     OW51557   9.865   6.277  11.345 -0.2255  0.1843 -0.1116
14260SOL    HW151558   9.946   6.228  11.346 -0.8287 -0.8341  0.5264
14260SOL    HW251559   9.880   6.347  11.281  0.5624 -0.9653 -1.2393
14261SOL     OW51560   3.826   5.501  11.477 -0.4626  0.5005 -0.2171
14261SOL    HW151561   3.893   5.495  11.545 -1.8516  0.4731  1.1943
14261SOL    HW251562   3.809   5.594  11.467  0.5637  0.5985 -1.4294
14262SOL     OW51563   4.553   2.825   8.998 -0.2112 -0.5071  0.2579
14262SOL    HW151564   4.513   2.881   8.932  2.3722 -0.0892 -1.0508
14262SOL    HW251565   4.571   2.884   9.072 -0.1905 -0.2672  0.0607
14263SOL     OW51566   0.776   2.733   2.018 -0.3285 -0.3741  0.0816
14263SOL    HW151567   0.842   2.665   2.021  0.9836  0.8511  0.1966
14263SOL    HW251568   0.825   2.815   2.027 -1.8532  0.5860  0.1148
14264SOL     OW51569   1.663   1.360   0.555 -0.0385  0.7131  0.3102
14264SOL    HW151570   1.671   1.392   0.465  0.0024  0.7769  0.3372
14264SOL    HW251571   1.593   1.413   0.593 -1.2169 -0.4176 -0.1891
14265SOL     OW51572   9.029   8.292   0.787 -0.1503 -0.4269 -0.0557
14265SOL    HW151573   9.125   8.287   0.792 -0.0720  0.0883 -0.7721
14265SOL    HW251574   8.998   8.228   0.850  0.6480  0.9984  1.8735
14266SOL     OW51575  12.044   4.764   1.736  0.0262 -0.5024  0.7629
14266SOL    HW151576  12.051   4.823   1.812 -1.6260 -1.0995  1.4219
14266SOL    HW251577  11.958   4.783   1.698  1.5055  1.0718 -2.1428
14267SOL     OW51578  10.524   7.380   1.068  0.3465  0.0027  0.2867
14267SOL    HW151579  10.479   7.307   1.110  0.0324  0.0371  0.0123
14267SOL    HW251580  10.472   7.399   0.990  0.4022  0.5399  0.3727
14268SOL     OW51581   6.754   6.938   9.200  0.1436 -0.1834  0.2330
14268SOL    HW151582   6.760   6.927   9.295 -2.0393  0.3983  0.4918
14268SOL    HW251583   6.756   7.032   9.186  0.5990 -0.2706 -0.3178
14269SOL     OW51584   7.027  12.576   9.389 -0.2724 -0.0519  0.2601
14269SOL    HW151585   6.952  12.554   9.334 -0.5795  2.6569 -0.5360
14269SOL    HW251586   6.990  12.630   9.459  0.8502  0.9544  0.0997
14270SOL     OW51587   7.959   2.685   6.002 -0.2674  0.3148  0.0826
14270SOL    HW151588   7.891   2.753   6.004  0.2390  0.8208  0.2300
14270SOL    HW251589   7.991   2.686   5.912 -1.4903 -0.9799 -0.4144
14271SOL     OW51590   7.670  11.613   9.401 -0.0807  0.2469  0.5955
14271SOL    HW151591   7.592  11.588   9.351 -0.5094 -1.2429  1.9217
14271SOL    HW251592   7.698  11.695   9.361 -0.7819 -0.5062 -1.6325
14272SOL     OW51593   4.682   4.412   4.122 -0.3287 -0.7704  0.0881
14272SOL    HW151594   4.677   4.317   4.126 -1.6286 -0.7080  0.2107
14272SOL    HW251595   4.616   4.437   4.057  0.9271 -0.0202 -0.9433
14273SOL     OW51596   6.943   6.863  11.432  0.4396  0.0162  0.3339
14273SOL    HW151597   6.869   6.811  11.461  0.1083 -0.3894 -1.1895
14273SOL    HW251598   6.911   6.912  11.357  1.4568  0.5475  0.2191
14274SOL     OW51599   2.832   8.557   6.558  0.0394 -0.2800 -0.0443
14274SOL    HW151600   2.820   8.462   6.563 -0.9769 -0.1134  1.6219
14274SOL    HW251601   2.805   8.588   6.645  1.3564  1.4339 -0.2059
14275SOL     OW51602   6.454   6.429   7.774  0.0557  0.5136 -0.8628
14275SOL    HW151603   6.456   6.486   7.697 -2.1865  0.5823 -0.9491
14275SOL    HW251604   6.459   6.340   7.738  0.5979  0.5839 -0.9625
14276SOL     OW51605   6.703   5.140  12.136  0.8243 -0.2471  0.5024
14276SOL    HW151606   6.677   5.230  12.115  0.3904 -0.6798 -0.9379
14276SOL    HW251607   6.676   5.128  12.227 -1.0912  0.3922  0.0791
14277SOL     OW51608   9.339   0.094   9.302  0.5702  0.1046 -0.0741
14277SOL    HW151609   9.253   0.077   9.341  1.8104 -3.9167  1.3305
14277SOL    HW251610   9.331   0.061   9.212  0.9311 -1.4782  0.4465
14278SOL     OW51611   9.860   6.183   3.954 -0.0089  0.3815  0.4860
14278SOL    HW151612   9.949   6.216   3.964  0.4953 -0.4934 -0.9344
14278SOL    HW251613   9.816   6.249   3.901  0.5035 -0.3481 -0.8757
14279SOL     OW51614  12.500   4.843   0.695 -0.0142 -0.2827 -0.1572
14279SOL    HW151615  12.468   4.878   0.612  0.6443 -1.7340 -1.0630
14279SOL    HW251616  12.591   4.873   0.701  0.8522 -2.4003 -1.3757
14280SOL     OW51617  11.452   2.183  10.899 -0.3860  0.3460 -0.4141
14280SOL    HW151618  11.443   2.271  10.863  0.7731  0.5143 -0.3349
14280SOL    HW251619  11.365   2.144  10.890 -0.7019  1.2026 -1.2138
14281SOL     OW51620   4.744  10.858  12.182  0.5773  0.2818  0.0646
14281SOL    HW151621   4.804  10.791  12.215  0.8475  0.7448  0.5421
14281SOL    HW251622   4.765  10.866  12.089  0.0822 -0.7663 -0.1381
14282SOL     OW51623   1.445   6.714   9.593 -0.3026 -0.1710 -0.4059
14282SOL    HW151624   1.368   6.702   9.648 -0.1534 -0.1076 -0.1797
14282SOL    HW251625   1.518   6.684   9.647 -0.3246 -1.6853 -1.1718
14283SOL     OW51626  10.040   2.053   5.608 -0.2317  0.5771  0.7191
14283SOL    HW151627  10.100   2.008   5.549 -1.6779 -0.3799 -0.0927
14283SOL    HW251628  10.059   2.017   5.694  2.3959  2.5014  1.0825
14284SOL     OW51629  12.540   7.295   1.205 -0.6475 -0.0924 -0.1089
14284SOL    HW151630  12.583   7.377   1.230 -0.1424 -0.5859  0.7012
14284SOL    HW251631  12.605   7.227   1.224 -0.6965 -0.6157 -1.6947
14285SOL     OW51632   4.920   8.258   2.738  0.2530 -0.0958  0.2808
14285SOL    HW151633   4.886   8.212   2.661  0.7349  0.4999 -0.2977
14285SOL    HW251634   5.008   8.222   2.750  0.0165 -0.5086  0.8332
14286SOL     OW51635   9.896   1.239   0.086 -0.0009  0.6392 -0.1704
14286SOL    HW151636   9.904   1.276   0.174 -1.3908  1.1900 -0.2629
14286SOL    HW251637   9.927   1.149   0.096  3.4159  1.6779  0.0773
14287SOL     OW51638  10.026   3.450   9.366 -0.2498  0.3275 -0.4815
14287SOL    HW151639   9.956   3.442   9.302  0.9544 -1.4450 -1.6639
14287SOL    HW251640  10.106   3.460   9.314  0.4944  1.6362  0.8119
14288SOL     OW51641   7.091   2.239   8.856 -0.3894  0.0963 -0.1527
14288SOL    HW151642   7.064   2.310   8.914 -1.5582 -0.0418 -0.5025
14288SOL    HW251643   7.124   2.283   8.778  1.7343  0.3027  0.7759
14289SOL     OW51644   4.177   1.904   6.903  0.1576  0.2491  0.5613
14289SOL    HW151645   4.128   1.823   6.917 -0.1359  0.3699  0.2461
14289SOL    HW251646   4.144   1.939   6.821  0.7393  0.3620  0.3677
14290SOL     OW51647   7.570   9.196   2.622  0.0719 -0.4456  0.7760
14290SOL    HW151648   7.651   9.153   2.648  0.0900 -0.0519  1.3713
14290SOL    HW251649   7.506   9.125   2.618  0.1839 -0.5904  1.4069
14291SOL     OW51650   6.724   7.780  10.672  0.1501 -0.5726 -0.1113
14291SOL    HW151651   6.641   7.792  10.719 -0.3339  0.7627 -1.2348
14291SOL    HW251652   6.790   7.777  10.741 -0.7235 -0.5371  0.7494
14292SOL     OW51653   8.933   2.094   7.243  0.4980 -0.1679 -0.1456
14292SOL    HW151654   8.877   2.130   7.312 -0.5141  0.1355 -1.1167
14292SOL    HW251655   8.880   2.025   7.203  0.9574 -0.1139 -0.8490
14293SOL     OW51656   0.865   4.307   5.772 -0.2582  0.0738 -0.0296
14293SOL    HW151657   0.889   4.354   5.692 -0.3162 -2.4637 -1.6562
14293SOL    HW251658   0.938   4.247   5.788 -1.0072 -0.6439  0.8363
14294SOL     OW51659  12.192   4.823   6.064 -0.5609 -0.0856 -0.1363
14294SOL    HW151660  12.191   4.783   6.151  0.9669 -2.3426 -1.0773
14294SOL    HW251661  12.273   4.874   6.062  0.4177 -1.6058 -0.8388
14295SOL     OW51662   5.592   2.862  10.295  0.6988 -0.5654  0.5577
14295SOL    HW151663   5.637   2.945  10.309 -1.3022  0.5005  1.0946
14295SOL    HW251664   5.634   2.801  10.355  1.0255  0.5381  1.4692
14296SOL     OW51665   5.671   7.238   8.123 -0.1218  0.6943  0.0497
14296SOL    HW151666   5.646   7.261   8.034 -1.0485 -3.0870 -0.8814
14296SOL    HW251667   5.588   7.229   8.170  0.1041 -0.7135  0.2387
14297SOL     OW51668  10.020  10.328   2.716  0.3994  0.8777 -0.0050
14297SOL    HW151669   9.953  10.394   2.696  1.5579  2.8009  2.0105
14297SOL    HW251670  10.080  10.333   2.642 -0.5910  0.5956 -0.8488
14298SOL     OW51671   5.114   7.479  10.401 -0.0482  0.0155  0.0745
14298SOL    HW151672   5.191   7.523  10.365 -0.4033  0.0912 -0.6032
14298SOL    HW251673   5.040   7.535  10.376 -0.5938 -1.3283 -1.4645
14299SOL     OW51674   6.493  10.272   0.617  0.7197 -0.3565 -0.3571
14299SOL    HW151675   6.504  10.274   0.712 -1.3769 -0.0536 -0.0899
14299SOL    HW251676   6.448  10.190   0.600  1.3769 -0.5710 -1.1584
14300SOL     OW51677   6.377   7.087  11.204 -0.2343  0.5291 -0.1594
14300SOL    HW151678   6.392   7.052  11.116  1.1939 -0.3494  0.4185
14300SOL    HW251679   6.434   7.036  11.261 -2.6500 -0.3543  1.6228
14301SOL     OW51680   2.415  10.908   1.258  0.2222  0.1165 -0.3512
14301SOL    HW151681   2.326  10.928   1.288  0.8755  1.5925  0.7108
14301SOL    HW251682   2.407  10.905   1.162 -0.7915  1.2401 -0.3350
14302SOL     OW51683   4.706   7.701  10.737  0.6771  0.1735  0.1910
14302SOL    HW151684   4.791   7.746  10.731 -0.3138  1.9457 -3.2555
14302SOL    HW251685   4.643   7.771  10.753 -0.3988 -0.7799  0.2722
14303SOL     OW51686   3.081   0.443  12.354 -0.0994 -0.0973  0.0913
14303SOL    HW151687   3.024   0.520  12.363 -0.9147 -0.7646  0.8076
14303SOL    HW251688   3.039   0.390  12.286 -0.1193 -0.4090  0.3457
14304SOL     OW51689  12.374  11.221  12.478  0.3284 -0.3583 -0.0285
14304SOL    HW151690  12.425  11.150  12.517 -1.6449 -1.5939  0.4716
14304SOL    HW251691  12.355  11.191  12.389  2.6229  1.2976 -1.1705
14305SOL     OW51692   5.443   1.464   3.109 -0.3637 -0.6040  0.3067
14305SOL    HW151693   5.456   1.392   3.170  2.2738 -0.6794 -0.2035
14305SOL    HW251694   5.382   1.523   3.152 -3.3745 -3.4926  0.3631
14306SOL     OW51695   7.055   6.149   3.175  0.2618 -0.3180 -0.0078
14306SOL    HW151696   7.059   6.061   3.212  0.8129  0.4627  1.9199
14306SOL    HW251697   6.969   6.183   3.201  1.0794  0.6349  1.6468
14307SOL     OW51698   6.536   8.489   6.579  0.0922 -0.6044 -0.4767
14307SOL    HW151699   6.461   8.478   6.520  0.1662 -0.6414 -0.5632
14307SOL    HW251700   6.509   8.560   6.638  0.4518  0.1795 -1.2445
14308SOL     OW51701   4.335   1.882   6.543 -0.3325  0.2270  0.4128
14308SOL    HW151702   4.277   1.958   6.532  2.0836  2.0835 -0.4031
14308SOL    HW251703   4.319   1.828   6.466 -0.2584  1.2566 -0.3433
14309SOL     OW51704  12.282   9.504   9.060  0.1658 -0.0449  0.1300
14309SOL    HW151705  12.192   9.477   9.046 -0.2997  0.8780  1.2396
14309SOL    HW251706  12.278   9.571   9.127  1.8262 -1.0494  1.3241
14310SOL     OW51707  10.487   2.912   8.406 -0.4044 -0.3557 -0.2503
14310SOL    HW151708  10.503   2.825   8.369 -1.5053 -0.0657 -1.4792
14310SOL    HW251709  10.544   2.970   8.356  0.3210 -0.3567  0.5619
14311SOL     OW51710   8.660   9.573   2.104  0.3473  0.5637 -0.2734
14311SOL    HW151711   8.582   9.570   2.048  0.7076 -1.2613 -0.7476
14311SOL    HW251712   8.732   9.549   2.046  0.7304 -1.3903  0.8968
14312SOL     OW51713   9.524  12.038  10.621  0.0757  0.2951 -0.6046
14312SOL    HW151714   9.555  12.118  10.579 -0.8668  0.9125 -0.1751
14312SOL    HW251715   9.442  12.064  10.664  0.0516 -0.7616  0.0304
14313SOL     OW51716   1.587   0.856  10.669 -0.0790  0.4602  0.0427
14313SOL    HW151717   1.513   0.831  10.614  0.6961  2.1197 -1.9022
14313SOL    HW251718   1.567   0.945  10.697  0.8815  0.6999 -0.0025
14314SOL     OW51719   7.111   9.050   9.138 -0.1949  0.1298 -0.3979
14314SOL    HW151720   7.101   9.143   9.156  0.8473  0.3219 -0.7628
14314SOL    HW251721   7.190   9.044   9.085 -0.0392 -0.9986 -0.0673
14315SOL     OW51722   2.987   6.251  10.258  0.1235  0.1743  0.0276
14315SOL    HW151723   2.921   6.191  10.293 -0.5739  1.2009  0.5307
14315SOL    HW251724   3.042   6.273  10.333  1.4364 -1.1131 -0.5020
14316SOL     OW51725   1.085  10.760   5.738 -0.1039 -1.1654 -0.1771
14316SOL    HW151726   1.128  10.843   5.758 -0.9787 -0.5164 -0.8987
14316SOL    HW251727   1.055  10.728   5.823  1.2122 -1.3139  0.2471
14317SOL     OW51728   0.395   9.372   6.086 -0.0356  0.5294 -0.1641
14317SOL    HW151729   0.414   9.278   6.087  0.2165  0.5727  1.4705
14317SOL    HW251730   0.480   9.414   6.077 -0.2240  0.6065 -1.7431
14318SOL     OW51731   2.066  11.870   6.701 -0.0586  0.3557 -0.2294
14318SOL    HW151732   2.015  11.924   6.762  0.5057 -0.0645  0.6320
14318SOL    HW251733   2.025  11.886   6.616 -0.4140  1.5031  0.1362
14319SOL     OW51734   9.124   1.129  12.459 -0.2008  0.1987  0.1899
14319SOL    HW151735   9.035   1.118  12.426 -0.5761 -2.9272  1.8568
14319SOL    HW251736   9.115   1.193  12.530 -0.8342  0.8600 -0.4566
14320SOL     OW51737   6.282  12.358   5.211  0.4270 -0.0998  0.9605
14320SOL    HW151738   6.218  12.357   5.282 -0.7022 -1.4729 -0.0298
14320SOL    HW251739   6.258  12.436   5.159 -1.2335 -1.1957 -0.0303
14321SOL     OW51740   5.927   3.872   8.036 -0.2938 -0.1252 -0.2675
14321SOL    HW151741   5.953   3.891   8.127  0.8735 -0.8817 -0.4184
14321SOL    HW251742   5.954   3.781   8.022  0.0495  0.1585 -1.5544
14322SOL     OW51743   9.312   8.638   4.209  0.3774  0.5392  0.6795
14322SOL    HW151744   9.369   8.684   4.147  0.0379  0.0822  0.0206
14322SOL    HW251745   9.360   8.558   4.230 -0.2622 -0.1259 -0.3259
14323SOL     OW51746  10.696   2.191   6.817  0.0702  0.7815  0.3007
14323SOL    HW151747  10.630   2.222   6.880  0.6592  1.0616  0.7854
14323SOL    HW251748  10.776   2.238   6.841  0.3714  0.6876 -0.4912
14324SOL     OW51749   0.417   3.310   3.886  0.5952  0.1352  0.0670
14324SOL    HW151750   0.481   3.344   3.823  0.4360 -0.8368 -0.6458
14324SOL    HW251751   0.470   3.277   3.959  0.7573  1.7310  0.7021
14325SOL     OW51752  11.260   0.352   3.296  0.1368 -0.2404 -0.0974
14325SOL    HW151753  11.328   0.295   3.260  0.6084  0.3860 -0.2222
14325SOL    HW251754  11.191   0.351   3.230 -0.2043 -1.2591  0.2456
14326SOL     OW51755   5.307  11.582   8.616  0.3377  0.3977 -0.1219
14326SOL    HW151756   5.369  11.552   8.682  0.0822 -1.3332 -0.6296
14326SOL    HW251757   5.342  11.550   8.533 -0.7447  0.2008 -0.5179
14327SOL     OW51758   0.635   2.537   1.094 -1.0131 -0.4121 -0.4857
14327SOL    HW151759   0.699   2.541   1.164 -0.5776 -1.9362 -0.7711
14327SOL    HW251760   0.679   2.576   1.019  0.7044 -3.8300 -1.4471
14328SOL     OW51761  12.183  12.448   8.945  0.5483 -0.0567 -0.5018
14328SOL    HW151762  12.276  12.426   8.937  0.9581  1.5421 -0.4901
14328SOL    HW251763  12.183  12.535   8.984 -1.0065 -0.6665  0.9977
14329SOL     OW51764   0.391   6.893  11.284 -0.2284 -0.4388  0.6295
14329SOL    HW151765   0.443   6.813  11.274  0.7260  0.4024 -2.0216
14329SOL    HW251766   0.440   6.959  11.235 -1.9731  1.3015  1.1262
14330SOL     OW51767   3.845   1.749   8.286  0.2298 -0.5487 -0.1677
14330SOL    HW151768   3.831   1.719   8.196 -0.6128 -1.1342  0.1427
14330SOL    HW251769   3.898   1.680   8.326  1.2160  0.0543 -0.4013
14331SOL     OW51770  11.403   4.903  11.566 -0.0712 -0.0047 -0.1274
14331SOL    HW151771  11.320   4.855  11.558 -0.4414  0.3580  1.2153
14331SOL    HW251772  11.376   4.992  11.591  0.5627  1.1647 -3.2200
14332SOL     OW51773   5.831   9.148   4.234  0.1714 -0.3431  0.2311
14332SOL    HW151774   5.917   9.114   4.211 -0.1296 -2.8810  2.3878
14332SOL    HW251775   5.782   9.147   4.152  2.1158  1.1727 -1.0507
14333SOL     OW51776   5.029  12.202   9.311  0.0456  0.2843 -0.5270
14333SOL    HW151777   4.963  12.161   9.368 -0.3257  1.0621 -0.3929
14333SOL    HW251778   5.112  12.190   9.358 -0.1153  0.0240 -0.3077
14334SOL     OW51779  12.072   0.514   7.797 -0.0700  0.2254  0.1171
14334SOL    HW151780  12.104   0.426   7.816 -0.5749 -0.1972 -0.9420
14334SOL    HW251781  12.148   0.560   7.759  0.0010  0.0342  0.0264
14335SOL     OW51782   6.479  10.917   5.536  0.1302 -0.6128 -0.5703
14335SOL    HW151783   6.519  10.830   5.542 -1.1712 -1.2705 -0.9994
14335SOL    HW251784   6.388  10.904   5.565  0.8135  1.3420  3.0350
14336SOL     OW51785   7.028   9.837   2.570 -0.1377 -0.3537 -0.2846
14336SOL    HW151786   6.990   9.826   2.483  1.9540 -0.5138 -1.2238
14336SOL    HW251787   7.053   9.929   2.574 -1.0948 -0.1110  0.5525
14337SOL     OW51788  12.003   4.179   9.959 -0.1638  0.0473 -0.5217
14337SOL    HW151789  11.976   4.098   9.915 -0.5018  0.0880 -0.3929
14337SOL    HW251790  11.921   4.216   9.993 -0.0367  0.5455 -0.7479
14338SOL     OW51791   4.087   6.283  10.328  0.0374 -0.1579 -0.1203
14338SOL    HW151792   4.058   6.352  10.388 -0.6551 -1.5969  1.2547
14338SOL    HW251793   4.182   6.277  10.342  0.1881  0.8384 -0.6299
14339SOL     OW51794  10.570  10.728   4.816 -0.1300  1.0094  0.0745
14339SOL    HW151795  10.600  10.645   4.854 -0.6871  0.8883  0.2566
14339SOL    HW251796  10.650  10.780   4.806  0.0312  1.0841  1.4998
14340SOL     OW51797  12.073   0.331   0.070  0.3421  0.0480 -0.3385
14340SOL    HW151798  12.141   0.349   0.006  0.8576 -1.2404 -0.1884
14340SOL    HW251799  11.995   0.372   0.035  0.4880 -1.0374 -2.0673
14341SOL     OW51800   1.272  12.510   8.108 -0.6121  0.4067 -0.6279
14341SOL    HW151801   1.179  12.512   8.082 -0.4923  1.1328 -1.0414
14341SOL    HW251802   1.292  12.417   8.116 -1.6068  0.2592  0.3292
14342SOL     OW51803  11.611   3.025  12.528  0.4589 -0.9755 -0.5513
14342SOL    HW151804  11.689   3.080  12.533  0.4906 -1.1073  1.0832
14342SOL    HW251805  11.539   3.084  12.549  0.4532 -1.4194  0.8287
14343SOL     OW51806   3.218  11.213   4.988  0.2954  0.0967  0.3535
14343SOL    HW151807   3.294  11.272   4.992  0.3952 -0.1059  1.9635
14343SOL    HW251808   3.257  11.125   4.990  0.0530 -0.0243 -0.0560
14344SOL     OW51809   5.273  10.609   3.794  0.0059 -0.4086  0.8643
14344SOL    HW151810   5.310  10.692   3.827 -1.1073  0.1121  0.8355
14344SOL    HW251811   5.245  10.563   3.872 -4.5001  1.6942  0.7958
14345SOL     OW51812   0.183   1.931   0.494  0.0868  0.3089  0.2225
14345SOL    HW151813   0.098   1.888   0.484  0.1583  0.0390  0.7402
14345SOL    HW251814   0.247   1.860   0.486  0.2446  0.4517  0.2162
14346SOL     OW51815   2.686   4.930  10.545 -0.1328  0.2876 -0.0471
14346SOL    HW151816   2.591   4.919  10.538 -0.0940  0.9054 -2.9042
14346SOL    HW251817   2.722   4.857  10.494  0.9388  0.3404  0.5968
14347SOL     OW51818   5.546   5.777   5.888  0.4968 -0.0882  0.4495
14347SOL    HW151819   5.493   5.791   5.810 -1.0167 -1.5301  1.1320
14347SOL    HW251820   5.625   5.734   5.857  0.6620  0.8389 -0.4480
14348SOL     OW51821  12.590  12.193  11.089  0.4223  0.1891  0.3888
14348SOL    HW151822  12.684  12.183  11.071  0.2180 -0.6617 -0.2777
14348SOL    HW251823  12.586  12.210  11.183  1.3033  1.2415  0.2578
14349SOL     OW51824   4.958  12.480   2.734  0.0870  0.1730  0.3215
14349SOL    HW151825   5.006  12.400   2.711 -0.3435 -0.1673  0.5980
14349SOL    HW251826   4.901  12.496   2.659  1.5352  1.3030 -0.5831
14350SOL     OW51827   9.952  11.517   1.026  0.3111 -0.0135 -0.0558
14350SOL    HW151828   9.857  11.519   1.039  0.1613  0.2066 -1.1003
14350SOL    HW251829   9.980  11.434   1.064 -0.4107 -0.4438 -0.4600
14351SOL     OW51830   6.851   8.470   4.268 -0.3929 -0.1707  0.4987
14351SOL    HW151831   6.940   8.501   4.250 -0.4843  0.2464  0.7654
14351SOL    HW251832   6.862   8.376   4.286 -0.2515 -0.5523 -1.3844
14352SOL     OW51833   2.490  11.833  11.405  0.2279  0.2491  0.8236
14352SOL    HW151834   2.535  11.806  11.325  0.1412  1.2329  0.4355
14352SOL    HW251835   2.397  11.814  11.388  0.4261 -1.6996  1.5915
14353SOL     OW51836   3.926   0.272   3.339 -0.2441 -0.2440 -0.1442
14353SOL    HW151837   4.006   0.270   3.391 -0.5996 -0.2047  0.4079
14353SOL    HW251838   3.881   0.352   3.366 -1.0972 -0.9220  0.5030
14354SOL     OW51839  11.018  11.802   6.059 -0.3789  0.5524 -0.8294
14354SOL    HW151840  11.012  11.809   5.964  0.0670  1.5289 -0.7941
14354SOL    HW251841  11.075  11.874   6.085 -0.6321  0.3970  0.1934
14355SOL     OW51842  12.356   7.796   1.910  0.2890  0.2609 -0.4512
14355SOL    HW151843  12.399   7.775   1.992  1.4640 -1.6035 -1.4759
14355SOL    HW251844  12.277   7.742   1.910 -0.6479  1.5846  0.1936
14356SOL     OW51845   3.737   6.928   6.808  0.0788 -0.2309  0.2255
14356SOL    HW151846   3.819   6.934   6.856  0.9846 -0.5291 -1.2262
14356SOL    HW251847   3.735   6.839   6.774 -0.9286 -0.2797  0.3963
14357SOL     OW51848   1.780   4.464   0.245 -0.4420 -0.0122  0.0366
14357SOL    HW151849   1.715   4.511   0.193 -1.2376 -0.3294  0.7262
14357SOL    HW251850   1.830   4.414   0.180 -1.3591 -0.3356 -0.4393
14358SOL     OW51851   3.593  12.130   7.494 -0.3639 -0.4356 -0.2945
14358SOL    HW151852   3.644  12.054   7.467  0.2822 -0.0177 -0.2784
14358SOL    HW251853   3.590  12.187   7.416  0.8385  0.4142  0.2529
14359SOL     OW51854   8.191   2.915   8.424 -0.2844 -0.0377 -0.6626
14359SOL    HW151855   8.150   2.891   8.507  0.8820 -2.5730 -0.7091
14359SOL    HW251856   8.130   2.883   8.358 -1.5943  2.6771 -0.8858
14360SOL     OW51857   4.596   6.339   4.156  0.4817 -0.1845 -0.1966
14360SOL    HW151858   4.602   6.246   4.177  0.0539  0.1668  1.7447
14360SOL    HW251859   4.502   6.359   4.163  0.6500  0.5288  0.1958
14361SOL     OW51860   3.664   2.359   4.897  0.0347 -0.1882  0.1206
14361SOL    HW151861   3.592   2.324   4.844  0.1241 -1.0996  0.5810
14361SOL    HW251862   3.647   2.327   4.985  0.7108  0.0335  0.3362
14362SOL     OW51863   6.106   9.064  11.574  0.5437  0.9294  0.4360
14362SOL    HW151864   6.164   9.044  11.500  2.6411  2.4388  1.5731
14362SOL    HW251865   6.118   8.991  11.635  0.7460  0.9144  0.3775
14363SOL     OW51866   6.572   8.610   6.178 -0.2934 -0.1141  0.8356
14363SOL    HW151867   6.630   8.676   6.219  0.7157 -0.3605 -0.1538
14363SOL    HW251868   6.493   8.659   6.157  1.5424  1.6988 -2.7318
14364SOL     OW51869  11.849   5.063   4.258  0.3421 -0.3127 -0.1670
14364SOL    HW151870  11.882   5.004   4.190 -0.4954 -0.2857 -0.6006
14364SOL    HW251871  11.896   5.035   4.337  0.0498 -1.4833 -0.3838
14365SOL     OW51872   0.564   7.417   4.838  0.2131 -0.1139  0.2109
14365SOL    HW151873   0.559   7.513   4.833 -1.1384 -0.2284 -1.9484
14365SOL    HW251874   0.473   7.388   4.833  0.6679 -1.5243 -0.2960
14366SOL     OW51875   7.260  10.399   7.228  0.0373 -0.1018 -0.2347
14366SOL    HW151876   7.171  10.418   7.197  0.0657 -1.5066 -1.2603
14366SOL    HW251877   7.305  10.366   7.151  0.6870 -1.8999  0.8709
14367SOL     OW51878   5.390   4.109   6.352  0.2028  0.2390  0.0488
14367SOL    HW151879   5.393   4.151   6.438  0.6261  1.4960 -0.5515
14367SOL    HW251880   5.468   4.054   6.350  1.1970  1.5822 -0.1632
14368SOL     OW51881   9.740   8.371  11.115 -0.3943 -0.7128 -0.0074
14368SOL    HW151882   9.766   8.442  11.056 -2.5966  0.5922  0.5033
14368SOL    HW251883   9.816   8.360  11.173  0.5655  0.1787 -1.0361
14369SOL     OW51884   9.972   6.826   2.782  0.1535 -0.0842  0.1672
14369SOL    HW151885   9.910   6.779   2.726 -1.1000  1.6117  0.0494
14369SOL    HW251886  10.034   6.759   2.811 -1.0406 -1.6157 -0.6749
14370SOL     OW51887   8.294   3.332   0.005  0.0558 -0.1881  0.0969
14370SOL    HW151888   8.205   3.356   0.033 -0.6449 -0.4996 -1.7324
14370SOL    HW251889   8.341   3.414  -0.000  0.0511 -0.0625  1.5561
14371SOL     OW51890   0.218   3.222   5.034  0.1623 -0.1150  0.4236
14371SOL    HW151891   0.189   3.183   5.116  1.9493  0.5867  1.4364
14371SOL    HW251892   0.299   3.268   5.056 -0.5830  2.1678 -1.2322
14372SOL     OW51893   1.086  11.930   1.791 -0.0932  0.1076 -0.0730
14372SOL    HW151894   1.006  11.960   1.834  0.4247 -0.5091  1.3847
14372SOL    HW251895   1.074  11.836   1.782 -0.5111  0.3181 -2.0232
14373SOL     OW51896  11.199   0.671  10.832  0.4021 -0.3224 -0.1151
14373SOL    HW151897  11.254   0.610  10.880  1.0833  0.2337 -0.1814
14373SOL    HW251898  11.136   0.703  10.897  1.1376  0.2072  0.3417
14374SOL     OW51899  11.052  10.290  11.448  0.0732 -0.1206  0.0812
14374SOL    HW151900  11.124  10.295  11.511  2.4133 -0.0234 -2.4371
14374SOL    HW251901  11.022  10.380  11.438  0.8870  0.1148 -0.2493
14375SOL     OW51902   0.864   3.318  11.828  0.1347 -0.2162  0.0524
14375SOL    HW151903   0.912   3.339  11.748  0.8605 -0.8338  0.3106
14375SOL    HW251904   0.777   3.355  11.814  0.3601 -0.0055 -0.8728
14376SOL     OW51905   7.490  11.970  10.801 -0.5012  0.1162  0.1386
14376SOL    HW151906   7.573  12.017  10.795 -1.5988  2.4625  1.8448
14376SOL    HW251907   7.459  11.965  10.711  1.1994 -0.3767 -0.4777
14377SOL     OW51908  10.607   2.418   6.251  0.1717 -0.7199 -0.1876
14377SOL    HW151909  10.616   2.358   6.326  1.1524 -1.1950 -0.6613
14377SOL    HW251910  10.539   2.378   6.196 -1.0268 -0.0281  0.7406
14378SOL     OW51911  10.356  10.463   1.845 -0.2980  0.6426 -0.3957
14378SOL    HW151912  10.325  10.535   1.790 -0.5436  1.2338  0.5003
14378SOL    HW251913  10.429  10.500   1.895 -0.8014  0.4560  0.4977
14379SOL     OW51914   2.968   7.493   5.930  0.2199  0.0259 -0.3804
14379SOL    HW151915   2.886   7.461   5.894  0.0368  1.3314 -1.1949
14379SOL    HW251916   2.950   7.584   5.955  0.7418 -0.3880  1.7322
14380SOL     OW51917   0.717  12.544   7.973  0.1873  0.0160 -0.0974
14380SOL    HW151918   0.635  12.508   7.941  1.2325 -1.4072 -1.2884
14380SOL    HW251919   0.728  12.506   8.060 -0.1421 -0.2237 -0.1591
14381SOL     OW51920   9.516   5.545  11.744 -0.2637 -0.5242 -0.6358
14381SOL    HW151921   9.507   5.492  11.664  1.2704 -0.2843 -1.0013
14381SOL    HW251922   9.560   5.625  11.714  0.1246 -0.3383  0.4174
14382SOL     OW51923   4.953   6.959  10.685 -0.3710  0.8216 -0.4109
14382SOL    HW151924   5.003   7.039  10.699 -2.5646  1.9702  1.4829
14382SOL    HW251925   4.863   6.983  10.704 -1.1324 -2.1003  0.1912
14383SOL     OW51926   6.031  11.881   8.024 -0.0171  0.1457  0.1347
14383SOL    HW151927   5.989  11.811   8.074  0.2511  0.6860  1.1510
14383SOL    HW251928   6.123  11.879   8.053 -0.1083  1.2119  0.5394
14384SOL     OW51929   6.221   8.597  10.971 -0.1091 -0.2636  0.0316
14384SOL    HW151930   6.222   8.687  11.003  1.5646 -0.0942 -0.3694
14384SOL    HW251931   6.246   8.544  11.046 -0.0255 -0.2802 -0.0077
14385SOL     OW51932   6.731   4.133  12.024  0.0984  0.0875 -0.0771
14385SOL    HW151933   6.701   4.074  11.954 -1.6942 -1.8783  2.1590
14385SOL    HW251934   6.657   4.193  12.037  0.0427 -0.1465  0.7081
14386SOL     OW51935   1.227   6.976  11.415 -0.1516 -0.1189 -0.2038
14386SOL    HW151936   1.261   7.065  11.424 -2.5734  0.9139 -0.6137
14386SOL    HW251937   1.193   6.953  11.501 -0.2490 -0.3367 -0.2980
14387SOL     OW51938   2.341   4.516   0.590 -0.1016  0.1923  0.1067
14387SOL    HW151939   2.317   4.609   0.582 -4.0152 -0.7546 -2.1251
14387SOL    HW251940   2.404   4.502   0.519 -0.0505  0.9970 -0.0243
14388SOL     OW51941   4.147  11.671   0.029 -0.0538 -0.0006  0.1933
14388SOL    HW151942   4.138  11.637   0.118 -1.4477  1.8676  0.8191
14388SOL    HW251943   4.059  11.669  -0.007  0.4241 -0.3253 -1.0083
14389SOL     OW51944   7.741  10.513   5.237  0.4140  0.5278 -0.0863
14389SOL    HW151945   7.816  10.573   5.226  0.2695  0.5549 -1.0168
14389SOL    HW251946   7.734  10.468   5.153  1.1598 -1.5911  0.9131
14390SOL     OW51947   9.366   5.648  10.183  0.0107 -0.1636  1.1553
14390SOL    HW151948   9.445   5.613  10.142  0.4917  0.2919  1.6767
14390SOL    HW251949   9.326   5.702  10.116  0.2459 -0.2390  0.9522
14391SOL     OW51950   3.611  12.191  11.921 -0.1458 -0.2862 -0.4538
14391SOL    HW151951   3.525  12.165  11.888 -0.7927  1.0131  0.1260
14391SOL    HW251952   3.635  12.268  11.869 -0.1879  0.4543  0.5728
14392SOL     OW51953   0.533   3.727  12.023 -0.4849  0.1179 -0.6003
14392SOL    HW151954   0.445   3.713  11.989 -0.2800  0.0118 -1.1087
14392SOL    HW251955   0.542   3.663  12.094 -0.7315 -0.0388 -0.7097
14393SOL     OW51956  11.435   7.327   4.914  0.2285 -0.1278  0.0379
14393SOL    HW151957  11.368   7.393   4.895  2.0978  1.5702 -1.0578
14393SOL    HW251958  11.397   7.245   4.882 -0.9989  0.9282 -1.3734
14394SOL     OW51959  10.645   5.294  12.033 -0.1112 -0.0037  0.0302
14394SOL    HW151960  10.721   5.293  11.974  1.4826 -0.6015  1.9732
14394SOL    HW251961  10.677   5.252  12.113 -2.2888  0.4500  1.1970
14395SOL     OW51962  10.584  11.877   8.303 -0.5612  0.0168 -0.4654
14395SOL    HW151963  10.627  11.930   8.236 -0.9203 -1.3828 -1.8653
14395SOL    HW251964  10.494  11.868   8.272 -1.2928  0.9666  1.2386
14396SOL     OW51965  10.451   3.619   5.379  0.2389  0.0810 -0.3010
14396SOL    HW151966  10.538   3.644   5.411 -0.4143 -0.6533  2.3025
14396SOL    HW251967  10.426   3.545   5.434 -2.5744  1.1080 -0.0258
14397SOL     OW51968   2.228   8.311  11.939  0.0189 -0.1496 -0.2494
14397SOL    HW151969   2.259   8.236  11.887  1.0799  0.1342 -0.0452
14397SOL    HW251970   2.258   8.388  11.891  0.0610  0.1252  0.2113
14398SOL     OW51971  11.010   6.647   3.502  0.1060 -0.0793 -0.2529
14398SOL    HW151972  11.089   6.601   3.474  0.4615  0.5307 -0.2968
14398SOL    HW251973  10.977   6.596   3.576  0.4345 -0.4517 -0.3623
14399SOL     OW51974   0.908   0.288   4.715  0.3228 -0.3032 -0.4944
14399SOL    HW151975   0.858   0.226   4.662 -0.5143  0.7019 -0.9208
14399SOL    HW251976   0.844   0.325   4.776  1.1736 -1.0834  0.9219
14400SOL     OW51977   3.379   5.240   8.429 -0.1546  0.1639 -0.0794
14400SOL    HW151978   3.374   5.333   8.447  0.3225  0.2944 -0.5692
14400SOL    HW251979   3.433   5.234   8.350  1.2878 -0.6333  0.9145
14401SOL     OW51980   8.241   4.272   0.396  0.3397  0.7050 -0.8128
14401SOL    HW151981   8.250   4.305   0.485 -0.7295 -2.1324  0.4928
14401SOL    HW251982   8.154   4.300   0.368  1.5140  3.5069 -1.9491
14402SOL     OW51983   4.258  11.242   3.241 -0.2814  0.2047 -1.0987
14402SOL    HW151984   4.233  11.231   3.333 -1.2713  1.2510 -1.2115
14402SOL    HW251985   4.221  11.166   3.196 -2.2788  1.0840 -1.0510
14403SOL     OW51986   7.218   3.197   6.165 -0.7762  0.1451 -0.3145
14403SOL    HW151987   7.296   3.152   6.133 -0.5591  1.0825 -1.1662
14403SOL    HW251988   7.229   3.200   6.260  0.2805  0.3584 -0.4362
14404SOL     OW51989   3.598   0.648   2.155 -0.2683  0.3031 -0.2687
14404SOL    HW151990   3.644   0.692   2.226 -0.5471  0.2902 -0.0820
14404SOL    HW251991   3.508   0.638   2.186 -0.0264 -1.1570  0.0387
14405SOL     OW51992   1.632   2.657   2.455  0.5498 -0.4403  0.1170
14405SOL    HW151993   1.619   2.664   2.360  1.3224 -0.4565  0.0025
14405SOL    HW251994   1.547   2.629   2.489 -0.7972  2.8730 -0.1759
14406SOL     OW51995   5.189   8.928   9.669 -0.6031 -0.2053  0.0701
14406SOL    HW151996   5.271   8.975   9.689 -0.0008 -1.4925  0.7525
14406SOL    HW251997   5.123   8.974   9.720  0.1337 -0.5880  1.4410
14407SOL     OW51998   7.615  12.130   3.995  0.3796  0.1682 -0.0739
14407SOL    HW151999   7.568  12.107   4.075 -1.0013  0.0218 -0.8961
14407SOL    HW252000   7.692  12.178   4.025  0.2343 -0.4673  1.3637
14408SOL     OW52001   9.473   1.337   8.087 -0.7483 -0.1944 -0.2251
14408SOL    HW152002   9.475   1.244   8.063  1.3745 -0.6039  1.2533
14408SOL    HW252003   9.540   1.377   8.033  1.8713 -0.5581  2.4686
14409SOL     OW52004   1.652   6.095   2.311 -0.3722 -0.5469 -0.0608
14409SOL    HW152005   1.585   6.071   2.376 -0.2085 -0.3631  0.1746
14409SOL    HW252006   1.602   6.130   2.237 -0.5319 -0.3157  0.1548
14410SOL     OW52007   5.257   2.142   9.284 -0.0063 -0.1697  0.1710
14410SOL    HW152008   5.268   2.099   9.199 -1.3580  0.1241 -0.1836
14410SOL    HW252009   5.319   2.098   9.342  1.8927  0.5061 -1.2592
14411SOL     OW52010   7.384  10.321  12.611  0.0634  0.5075  0.1759
14411SOL    HW152011   7.381  10.362  12.698 -1.5983  1.6059 -0.3437
14411SOL    HW252012   7.336  10.239  12.623 -0.1746  0.6618  0.3074
14412SOL     OW52013   6.755  10.127   5.554  0.8109  0.1523  0.3018
14412SOL    HW152014   6.768  10.045   5.506  2.1152  0.9105 -0.7053
14412SOL    HW252015   6.708  10.183   5.492 -1.2726 -0.2259  1.4523
14413SOL     OW52016   2.599   4.071   1.107  0.2448 -0.6191 -0.0764
14413SOL    HW152017   2.624   4.163   1.107 -0.1042 -0.5229  0.0158
14413SOL    HW252018   2.678   4.025   1.077 -0.0599 -0.1675 -1.6696
14414SOL     OW52019   3.168   8.108   2.032  0.0615  0.2848  0.8180
14414SOL    HW152020   3.100   8.123   2.097 -1.1721 -0.4266 -0.2466
14414SOL    HW252021   3.134   8.148   1.952  0.7777 -0.3202  0.1939
14415SOL     OW52022   2.721   0.568   9.488 -0.3749 -0.1329 -0.1040
14415SOL    HW152023   2.736   0.506   9.559  0.2786 -1.3844 -1.2989
14415SOL    HW252024   2.791   0.633   9.498  0.0263 -0.5903  0.0856
14416SOL     OW52025   6.870   1.028   4.252  0.6303 -0.0443  0.3874
14416SOL    HW152026   6.807   1.041   4.322  0.5258  0.1464  0.2581
14416SOL    HW252027   6.835   0.956   4.200  0.0610  0.6383 -0.1987
14417SOL     OW52028   5.682   4.166   5.718  0.5379 -0.1795 -0.3318
14417SOL    HW152029   5.625   4.222   5.665  1.4264  2.0055  0.8643
14417SOL    HW252030   5.637   4.157   5.801  0.0105 -2.0410 -0.7751
14418SOL     OW52031   1.322   7.780   8.742  0.1976 -0.0714  0.3654
14418SOL    HW152032   1.256   7.722   8.705  0.7104 -0.1750 -0.4096
14418SOL    HW252033   1.392   7.721   8.770 -0.4249 -0.0568  2.0888
14419SOL     OW52034   5.850   6.788   2.531  0.5184  0.0038 -0.3272
14419SOL    HW152035   5.891   6.850   2.591 -0.7764  0.1300  0.4689
14419SOL    HW252036   5.888   6.703   2.554  0.8765  0.2175 -0.1185
14420SOL     OW52037  10.089   3.113  11.179  0.0642 -0.1505 -0.5329
14420SOL    HW152038  10.043   3.162  11.110 -1.9243 -0.8922  0.2086
14420SOL    HW252039  10.097   3.024  11.144 -0.9653 -0.5337  0.1488
14421SOL     OW52040   9.647   7.538  11.242  0.1629 -0.4467 -0.3101
14421SOL    HW152041   9.661   7.625  11.204  0.8779 -0.1656  0.5566
14421SOL    HW252042   9.649   7.478  11.168  0.2715  0.2155 -0.8499
14422SOL     OW52043   7.778   1.228   9.699 -0.4584  0.2514 -0.0710
14422SOL    HW152044   7.858   1.247   9.748  0.0694 -1.4306 -0.2074
14422SOL    HW252045   7.788   1.276   9.617 -0.5173  1.6358  0.6995
14423SOL     OW52046   3.960   2.685   9.228  0.4277  0.3823 -0.1933
14423SOL    HW152047   4.055   2.670   9.227  0.5951  1.3462 -0.8891
14423SOL    HW252048   3.948   2.759   9.287  0.0071 -0.2643  0.5438
14424SOL     OW52049   2.234   4.767   6.425 -0.4484  0.2359 -0.0205
14424SOL    HW152050   2.195   4.832   6.483  0.0780  0.1500  0.4449
14424SOL    HW252051   2.166   4.702   6.412 -0.6638  0.3936  0.2977
14425SOL     OW52052   5.107   6.109  10.963  0.4593 -0.4538  0.8518
14425SOL    HW152053   5.044   6.050  10.923  0.7444  0.0322 -0.3535
14425SOL    HW252054   5.062   6.192  10.970  0.2629 -0.6328  1.9920
14426SOL     OW52055   5.657   3.737  10.428  0.1316 -0.0043  0.1656
14426SOL    HW152056   5.575   3.785  10.436  0.8531  1.0302  1.8174
14426SOL    HW252057   5.651   3.693  10.343 -1.2442  1.6878 -0.6742
14427SOL     OW52058   3.381   4.845  11.847  0.6915 -0.3360  1.0070
14427SOL    HW152059   3.329   4.925  11.851  0.2332 -0.6546  1.6713
14427SOL    HW252060   3.439   4.850  11.923 -0.3706 -1.2996  1.9378
14428SOL     OW52061   3.043  10.858  11.535 -0.0338  0.5584 -0.0924
14428SOL    HW152062   2.985  10.788  11.506  1.0774 -0.8782  1.0161
14428SOL    HW252063   3.055  10.913  11.457  0.3570 -1.3948 -1.4847
14429SOL     OW52064   0.245  10.991   3.599 -0.1548  0.3476 -0.0889
14429SOL    HW152065   0.264  10.904   3.564  0.7351 -0.4861  2.2093
14429SOL    HW252066   0.261  10.982   3.693 -0.1147  2.9934  0.2266
14430SOL     OW52067   2.818   6.767   4.484  0.1754  0.4017 -0.4531
14430SOL    HW152068   2.826   6.712   4.406  1.5718 -1.3866  0.8594
14430SOL    HW252069   2.906   6.803   4.498  0.4711 -0.8669  1.3212
14431SOL     OW52070   0.013   2.219   1.740  0.3632 -0.3180  0.1424
14431SOL    HW152071   0.075   2.280   1.701 -0.1679 -1.5475 -2.8865
14431SOL    HW252072  -0.065   2.271   1.758  0.2982  0.1474 -1.3894
14432SOL     OW52073   4.498   3.520   2.563 -0.3090  0.2303 -0.1911
14432SOL    HW152074   4.486   3.562   2.478  0.8639  1.0478  0.0213
14432SOL    HW252075   4.409   3.514   2.599 -1.2695 -2.7149 -2.5927
14433SOL     OW52076  10.524   8.993   3.139  0.1710  0.0630  0.7749
14433SOL    HW152077  10.454   8.935   3.108 -1.5817  2.7038 -0.6011
14433SOL    HW252078  10.594   8.983   3.074 -0.1971 -0.3444  0.4314
14434SOL     OW52079   8.720   1.115   8.460  0.4148 -0.0587 -0.4686
14434SOL    HW152080   8.809   1.103   8.426  1.2892  0.2411  1.5560
14434SOL    HW252081   8.712   1.051   8.530 -0.5713  0.6512  0.0886
14435SOL     OW52082   3.871   9.351  11.305  0.2806 -0.4661 -0.3276
14435SOL    HW152083   3.894   9.269  11.260  2.1712  0.8679 -2.0015
14435SOL    HW252084   3.791   9.330  11.353  0.5565 -3.2165 -0.8649
14436SOL     OW52085   0.172   0.718   6.247 -0.0004 -0.0465  0.2445
14436SOL    HW152086   0.146   0.646   6.190 -2.2812 -0.9612  2.2285
14436SOL    HW252087   0.134   0.796   6.205  0.6170 -0.2886 -0.8010
14437SOL     OW52088   1.418  11.642   3.979 -1.1750 -0.4550 -1.0470
14437SOL    HW152089   1.496  11.596   3.949  0.6421  1.1325  0.8764
14437SOL    HW252090   1.379  11.583   4.044 -1.2570 -1.0162 -1.5979
14438SOL     OW52091   5.885   8.059  12.406 -0.0324  0.3213 -0.0658
14438SOL    HW152092   5.870   7.999  12.479  1.1364 -0.8027 -0.6965
14438SOL    HW252093   5.960   8.022  12.360  0.9336  2.4852 -0.3171
14439SOL     OW52094   8.572  10.573  11.447 -0.1516  0.5833  0.0811
14439SOL    HW152095   8.535  10.654  11.482  0.4362  0.1706  1.7475
14439SOL    HW252096   8.550  10.506  11.511  1.4967 -0.1000 -0.0102
14440SOL     OW52097   2.303   4.043   4.578  0.5911 -0.6304  0.3395
14440SOL    HW152098   2.316   4.050   4.673  3.1089 -2.2624  0.2261
14440SOL    HW252099   2.236   3.975   4.568  0.0511 -0.2012  0.9434
14441SOL     OW52100   0.259   5.298   8.753  0.0801  0.5549 -0.2960
14441SOL    HW152101   0.267   5.377   8.700 -0.8942  0.2791 -0.8928
14441SOL    HW252102   0.168   5.271   8.742  0.1906 -0.2214  0.5220
14442SOL     OW52103   7.313   4.560   6.597 -0.5217 -0.0055  0.2352
14442SOL    HW152104   7.352   4.479   6.563 -0.7028  0.6571 -1.6487
14442SOL    HW252105   7.327   4.625   6.528 -0.5486  1.5513  1.6335
14443SOL     OW52106   1.225  11.787  10.361 -0.1006  0.0389 -0.2410
14443SOL    HW152107   1.247  11.833  10.280 -0.6687  1.8690  0.6015
14443SOL    HW252108   1.295  11.722  10.371 -0.0831 -0.3282 -2.2334
14444SOL     OW52109   2.144   5.465   3.498 -0.6976  0.5574 -0.3295
14444SOL    HW152110   2.135   5.558   3.475  0.4122  0.9385  0.6602
14444SOL    HW252111   2.171   5.423   3.417 -1.1177  1.1142 -0.7662
14445SOL     OW52112   2.525   4.240   1.612  0.1293 -0.2629  0.1544
14445SOL    HW152113   2.474   4.160   1.619 -0.2456  0.0099  0.6742
14445SOL    HW252114   2.460   4.309   1.600  0.3809  0.0681  0.6355
14446SOL     OW52115   2.955   4.828   2.609  0.5644  0.8612 -0.3290
14446SOL    HW152116   3.039   4.847   2.569 -0.3297 -0.7249 -3.3294
14446SOL    HW252117   2.894   4.890   2.569  0.2816  2.4695  2.3236
14447SOL     OW52118   9.277   9.684  12.276  0.3614 -0.5858 -0.4754
14447SOL    HW152119   9.192   9.687  12.321 -0.6771  0.2121 -2.3891
14447SOL    HW252120   9.257   9.706  12.185  2.8852  1.5763 -0.6310
14448SOL     OW52121   1.358   3.252   2.345 -0.3370 -0.1912 -0.1973
14448SOL    HW152122   1.336   3.320   2.282  0.9236 -0.7228 -1.2686
14448SOL    HW252123   1.385   3.177   2.291 -0.1298 -0.9759  0.9622
14449SOL     OW52124   3.324   2.274   4.497 -1.1909 -0.4653 -0.3858
14449SOL    HW152125   3.348   2.340   4.432 -0.8818 -1.1534 -0.9820
14449SOL    HW252126   3.407   2.230   4.518 -1.6609 -1.9449 -1.4406
14450SOL     OW52127   3.558   5.964   7.992  0.1360  0.2336  0.1563
14450SOL    HW152128   3.623   5.990   7.927 -0.2840 -0.2151 -0.4623
14450SOL    HW252129   3.499   5.906   7.944 -1.9440  2.2342  0.0829
14451SOL     OW52130   0.113   4.755   9.254 -0.1966 -0.4236 -0.4058
14451SOL    HW152131   0.133   4.708   9.335  2.2136 -1.5319 -1.5436
14451SOL    HW252132   0.083   4.687   9.194 -0.1715  0.0757 -0.9919
14452SOL     OW52133   5.521   8.859   0.073 -0.1724 -0.0694  0.1391
14452SOL    HW152134   5.609   8.832   0.102 -0.4172 -0.5507  0.4472
14452SOL    HW252135   5.513   8.823  -0.016  0.8848  2.0832 -0.8998
14453SOL     OW52136  10.212   4.723   3.335 -0.0371 -0.2882  1.0717
14453SOL    HW152137  10.253   4.636   3.330 -0.9911 -0.6610 -1.4976
14453SOL    HW252138  10.275   4.781   3.293 -0.8360 -0.3811 -0.3260
14454SOL     OW52139   3.307   7.740   4.569 -0.0338 -0.0387 -0.5812
14454SOL    HW152140   3.238   7.806   4.569  0.4228  0.5193 -2.5945
14454SOL    HW252141   3.288   7.686   4.492  0.7410 -1.0096 -0.1053
14455SOL     OW52142   9.993   5.237   0.207  0.1625  0.3169  0.5863
14455SOL    HW152143  10.035   5.299   0.147  4.4439 -1.3615  1.5416
14455SOL    HW252144  10.005   5.275   0.294 -1.5557  0.3474  0.8507
14456SOL     OW52145   1.319   6.671  10.026  0.3684 -0.1047 -0.3310
14456SOL    HW152146   1.299   6.616   9.951  0.7618 -0.3668 -0.2417
14456SOL    HW252147   1.298   6.617  10.102  0.0691  0.1238 -0.2462
14457SOL     OW52148   7.397   4.698   0.010 -0.4287 -0.0122 -0.4730
14457SOL    HW152149   7.426   4.607   0.018 -2.4790 -0.6853 -0.0795
14457SOL    HW252150   7.411   4.735   0.096  0.4319  0.0543 -0.6382
14458SOL     OW52151   9.907   4.672   6.963  0.3480  0.0814  0.6488
14458SOL    HW152152   9.829   4.629   6.996 -0.0573  1.2044  1.2151
14458SOL    HW252153   9.979   4.637   7.017  0.9675 -3.8834 -2.3250
14459SOL     OW52154   7.759   2.528   0.387 -0.0649 -0.2053  0.4291
14459SOL    HW152155   7.748   2.451   0.333  2.8118 -1.5538  1.5670
14459SOL    HW252156   7.717   2.506   0.471 -1.6248  0.6101 -0.0851
14460SOL     OW52157  12.456  10.834   4.374  0.2058  0.1814 -0.0199
14460SOL    HW152158  12.504  10.916   4.369 -0.7925  0.7377 -1.0537
14460SOL    HW252159  12.504  10.774   4.316  0.9226  0.0240  0.7215
14461SOL     OW52160   7.721   9.592   8.714  0.4673  0.2797 -0.1343
14461SOL    HW152161   7.738   9.528   8.645 -0.8802 -1.5930  1.1444
14461SOL    HW252162   7.640   9.635   8.688 -0.0109 -0.3887  0.2130
14462SOL     OW52163  10.418   3.777  11.893  0.3558  0.2765  0.0774
14462SOL    HW152164  10.335   3.771  11.845 -0.6048 -0.4291  1.7302
14462SOL    HW252165  10.477   3.718  11.846 -0.8377 -1.1339  0.2478
14463SOL     OW52166   2.556   1.146   7.977 -0.1231 -0.2383  0.1971
14463SOL    HW152167   2.621   1.197   7.929 -0.1298 -0.4120  0.0051
14463SOL    HW252168   2.481   1.140   7.917  0.4221 -1.7397 -0.3771
14464SOL     OW52169   5.430  10.256   4.997 -0.5287  0.0364  0.3752
14464SOL    HW152170   5.471  10.316   4.935  0.5556 -0.5677  0.4843
14464SOL    HW252171   5.373  10.201   4.943 -0.5516  0.3283  0.1005
14465SOL     OW52172   0.577   0.054  11.159 -0.0985 -0.2427  0.3667
14465SOL    HW152173   0.658   0.059  11.110 -0.8688 -0.2566 -0.9427
14465SOL    HW252174   0.571   0.138  11.204 -0.6634  0.8786 -1.6815
14466SOL     OW52175   7.760  12.303   8.916  0.6186  0.0905 -0.1096
14466SOL    HW152176   7.774  12.245   8.991  1.5193 -0.3303 -0.5882
14466SOL    HW252177   7.702  12.371   8.949  0.8400 -0.1996  0.9176
14467SOL     OW52178   7.435   2.722  12.434  0.8002  0.5517  0.7925
14467SOL    HW152179   7.352   2.761  12.408  1.1590  2.1856  1.8945
14467SOL    HW252180   7.462   2.669  12.359 -1.6335 -0.7418  0.7648
14468SOL     OW52181  11.785   4.678   6.324  0.3212 -0.3178  0.1161
14468SOL    HW152182  11.836   4.752   6.357  1.8358 -1.6851  0.9417
14468SOL    HW252183  11.846   4.605   6.322 -1.2097 -1.6413 -0.3837
14469SOL     OW52184   5.005   9.887   5.782  0.0430  0.4852  0.5315
14469SOL    HW152185   5.005   9.976   5.817 -1.5022 -0.1199  2.2157
14469SOL    HW252186   5.098   9.866   5.771  0.5092  1.5872  2.0267
14470SOL     OW52187   3.390   6.789   1.648 -0.7410  0.6440 -0.0551
14470SOL    HW152188   3.420   6.814   1.561  1.5176 -0.0550  0.4561
14470SOL    HW252189   3.424   6.859   1.705  0.8860 -0.6830  0.6761
14471SOL     OW52190   2.168   2.710   9.858  0.0992 -0.0330 -0.0518
14471SOL    HW152191   2.210   2.645   9.915 -0.2506  0.2371  0.5328
14471SOL    HW252192   2.188   2.794   9.899 -0.0482  0.1759 -0.4065
14472SOL     OW52193   1.355   4.732  12.529 -0.5351  0.0328 -0.2114
14472SOL    HW152194   1.374   4.766  12.616  0.7611 -0.2108 -0.3669
14472SOL    HW252195   1.318   4.806  12.481  1.3359  1.0033 -0.2646
14473SOL     OW52196   1.478   2.626   6.465  0.0576  0.0646  0.1504
14473SOL    HW152197   1.569   2.595   6.461  0.2664  0.6154  0.4507
14473SOL    HW252198   1.463   2.667   6.380  0.0122 -0.2296  0.0149
14474SOL     OW52199   4.951   7.493   3.415 -0.5251 -0.0868  0.4314
14474SOL    HW152200   4.874   7.540   3.447 -0.5623  0.3449 -0.2744
14474SOL    HW252201   4.991   7.552   3.351 -0.8289 -1.1907 -0.8270
14475SOL     OW52202  10.277   2.810   7.334  0.3693  0.1599 -0.6741
14475SOL    HW152203  10.369   2.790   7.354 -0.3062 -0.2012  2.6795
14475SOL    HW252204  10.269   2.904   7.346 -0.0669 -0.0750  1.3312
14476SOL     OW52205  12.431   5.253   7.825  0.2069  0.2963 -0.2663
14476SOL    HW152206  12.356   5.267   7.882  0.1747  0.8519 -0.4463
14476SOL    HW252207  12.438   5.157   7.818 -0.6756  0.2457 -0.5101
14477SOL     OW52208   7.912   0.619   7.502  0.0924  0.4906  0.1060
14477SOL    HW152209   7.889   0.688   7.440  2.1071  1.3569  0.2362
14477SOL    HW252210   7.942   0.666   7.580  3.5431 -0.3910 -0.5394
14478SOL     OW52211   4.904   1.908   7.340  0.0522 -0.4045  0.6642
14478SOL    HW152212   4.908   1.850   7.415  0.9543  0.0659  0.9864
14478SOL    HW252213   4.857   1.986   7.372 -2.2246 -1.3767 -0.0817
14479SOL     OW52214   5.070   3.873   8.993  0.4426  0.6928 -0.2083
14479SOL    HW152215   5.000   3.933   8.967 -2.4297 -1.6474  1.3955
14479SOL    HW252216   5.077   3.884   9.088 -0.2172 -1.4243  0.1413
14480SOL     OW52217   1.508  12.096   0.690  0.4812  0.1142  0.2310
14480SOL    HW152218   1.479  12.121   0.602 -0.2557 -0.8133  0.1960
14480SOL    HW252219   1.602  12.082   0.681  0.3612 -0.2685 -0.4802
14481SOL     OW52220   9.996   6.760   2.462 -0.1565  0.3627 -0.3227
14481SOL    HW152221   9.958   6.684   2.507 -0.8367  0.4685 -0.7021
14481SOL    HW252222   9.922   6.821   2.452  0.4204  1.1618  0.1536
14482SOL     OW52223   9.860   9.860   9.666  0.0374  0.2433  0.0520
14482SOL    HW152224   9.846   9.879   9.574 -0.3962 -0.6235 -0.0693
14482SOL    HW252225   9.935   9.914   9.691 -0.8192  1.7117 -0.3886
14483SOL     OW52226   6.071  11.868   3.860  0.1000 -0.0508 -0.8783
14483SOL    HW152227   5.999  11.928   3.879  1.8237  1.7847  0.1909
14483SOL    HW252228   6.140  11.893   3.921  1.6568 -1.7653 -1.8457
14484SOL     OW52229   7.490   3.815  11.191  0.2534  0.3801  0.3923
14484SOL    HW152230   7.572   3.863  11.203  0.8025  0.0597 -1.7157
14484SOL    HW252231   7.513   3.723  11.202 -0.3716  0.4029  2.2804
14485SOL     OW52232   8.043   6.996   0.468  0.1089  0.4647 -0.5504
14485SOL    HW152233   7.964   6.988   0.523 -0.2452 -0.9933 -1.2273
14485SOL    HW252234   8.074   6.906   0.457  1.1424  0.9007 -1.3588
14486SOL     OW52235  11.127   7.874  10.500  0.4239  0.3829 -0.0794
14486SOL    HW152236  11.155   7.817  10.571 -0.6085  0.1844  0.1834
14486SOL    HW252237  11.185   7.852  10.427  2.3735  1.5060  1.0509
14487SOL     OW52238   0.816   2.898   7.510 -0.0807  0.4347 -0.2971
14487SOL    HW152239   0.750   2.931   7.571  2.0692  0.3554  2.2324
14487SOL    HW252240   0.878   2.971   7.501  0.4834 -0.1333 -1.1682
14488SOL     OW52241   5.500   6.227   4.908  0.2302  0.3444 -0.4958
14488SOL    HW152242   5.554   6.154   4.879  1.4360  1.0109 -0.0218
14488SOL    HW252243   5.461   6.197   4.991  1.6776  0.6336  0.3275
14489SOL     OW52244   9.866   6.960  10.325 -1.6909 -0.0889 -0.4098
14489SOL    HW152245   9.851   6.923  10.238 -0.5214  0.6239 -0.9461
14489SOL    HW252246   9.838   7.051  10.317 -0.8124  0.2044 -0.3060
14490SOL     OW52247   0.860   7.816   5.015  0.0490  0.2874  0.2437
14490SOL    HW152248   0.862   7.720   5.016  0.8349  0.3068  1.4615
14490SOL    HW252249   0.771   7.839   5.042 -0.4675 -0.0778 -1.0332
14491SOL     OW52250   2.482   2.778   9.655 -0.0738  0.4061  0.4360
14491SOL    HW152251   2.395   2.744   9.634 -0.2852  0.9244  0.4601
14491SOL    HW252252   2.504   2.739   9.739  1.1878 -2.4564 -1.0907
14492SOL     OW52253   5.546   7.838   7.008  0.6787 -0.2488  0.2805
14492SOL    HW152254   5.634   7.874   7.022  1.0281 -1.7470  2.5400
14492SOL    HW252255   5.492   7.914   6.988  2.6625  0.5822 -2.5324
14493SOL     OW52256   3.530   9.814   5.638 -0.5919 -0.4848 -0.0058
14493SOL    HW152257   3.582   9.828   5.717 -0.4072  0.8098 -0.3333
14493SOL    HW252258   3.445   9.851   5.659 -0.5735 -0.2282 -0.3757
14494SOL     OW52259  11.682   6.215  11.290 -0.3996 -0.1054  0.4898
14494SOL    HW152260  11.682   6.306  11.262  1.7267 -0.3946 -0.6649
14494SOL    HW252261  11.734   6.169  11.224 -0.7188 -2.0237  1.4780
14495SOL     OW52262   9.359   5.553   3.744 -0.3658  0.5856  0.4420
14495SOL    HW152263   9.323   5.639   3.721 -0.7353  0.2143 -0.3869
14495SOL    HW252264   9.321   5.493   3.681  0.5275 -0.0681  0.5075
14496SOL     OW52265   4.246  10.591  10.561  0.5562  0.1374  0.3653
14496SOL    HW152266   4.243  10.601  10.656  0.5498 -0.5183  0.4382
14496SOL    HW252267   4.291  10.507  10.546  0.0365 -0.0572 -0.1871
14497SOL     OW52268   0.732   1.416   3.271 -0.4225  0.3952  0.6636
14497SOL    HW152269   0.677   1.405   3.349 -0.6643 -2.1202  0.2372
14497SOL    HW252270   0.683   1.373   3.201  1.0514  0.1137 -0.2412
14498SOL     OW52271   7.520   4.047   7.763  0.2355  0.1509  0.1801
14498SOL    HW152272   7.458   4.019   7.696 -0.6305  1.6292  0.3019
14498SOL    HW252273   7.561   4.125   7.726 -0.4621  1.1638  1.4434
14499SOL     OW52274   3.858   5.336   3.814 -0.3691 -0.2854  0.2792
14499SOL    HW152275   3.823   5.265   3.761  2.1886 -0.0845 -1.8800
14499SOL    HW252276   3.820   5.416   3.776  0.4484 -0.2220 -0.4135
14500SOL     OW52277   8.928   4.411   5.347  0.0896 -0.4633  0.4956
14500SOL    HW152278   8.864   4.340   5.349  0.7341 -1.0604 -0.1011
14500SOL    HW252279   8.877   4.488   5.319 -0.7205 -0.5495  1.6412
14501SOL     OW52280   9.574   3.157   9.073 -0.2849 -0.1000 -0.0636
14501SOL    HW152281   9.508   3.095   9.106  0.8511 -1.1502  0.2987
14501SOL    HW252282   9.560   3.236   9.125 -1.1643 -0.3460  0.1044
14502SOL     OW52283   9.576   2.710   3.041 -0.2376  0.2588  0.1083
14502SOL    HW152284   9.532   2.792   3.065 -1.3245 -0.3253  0.1362
14502SOL    HW252285   9.619   2.682   3.122  1.2468  1.4551 -0.2196
14503SOL     OW52286   2.128   0.612   5.688  0.4351  0.2143  0.7768
14503SOL    HW152287   2.206   0.663   5.664  0.1687  1.4002  2.2834
14503SOL    HW252288   2.136   0.531   5.637  1.1136  1.5334 -1.3590
14504SOL     OW52289   4.139   3.610   0.943  0.7057  0.4720  0.0167
14504SOL    HW152290   4.069   3.545   0.946 -1.3447  2.3931 -2.3865
14504SOL    HW252291   4.186   3.592   0.862  2.4091 -0.1074  1.0688
14505SOL     OW52292  11.963   3.924   6.047 -0.3886 -0.0949  0.0403
14505SOL    HW152293  11.906   3.868   6.100 -2.9638  1.1673 -1.2187
14505SOL    HW252294  12.040   3.938   6.102 -2.1342 -0.2759  2.7405
14506SOL     OW52295  10.287   4.191   8.083  0.1437  0.4617 -0.1966
14506SOL    HW152296  10.205   4.142   8.073 -0.0065  0.8728 -1.1677
14506SOL    HW252297  10.350   4.127   8.116 -0.1396 -0.3095 -1.0967
14507SOL     OW52298   4.734  11.545   0.926 -0.4813 -0.1275  0.7382
14507SOL    HW152299   4.647  11.585   0.914  0.7464  2.5823 -0.1880
14507SOL    HW252300   4.746  11.492   0.847 -0.0221  2.2885 -0.9357
14508SOL     OW52301  11.068   8.476   4.094 -0.1378  0.0603 -0.4308
14508SOL    HW152302  11.109   8.416   4.156  0.1317 -0.4107 -1.0530
14508SOL    HW252303  10.975   8.468   4.111  0.0022  1.4236  1.2579
14509SOL     OW52304   8.466   1.866  10.259 -0.6769 -0.4081  0.1315
14509SOL    HW152305   8.542   1.813  10.284  0.9804  1.0451 -1.4973
14509SOL    HW252306   8.425   1.817  10.188  1.2755  0.6782 -1.8722
14510SOL     OW52307  12.134   5.086   8.783 -0.1109 -0.4136 -0.7086
14510SOL    HW152308  12.060   5.132   8.743 -0.1710  0.0980 -0.0327
14510SOL    HW252309  12.095   5.038   8.856  0.4772  1.5732  1.0317
14511SOL     OW52310   7.851   1.873   2.076  0.4458  0.0848 -0.4267
14511SOL    HW152311   7.762   1.902   2.055  0.5060  0.5123 -0.0986
14511SOL    HW252312   7.838   1.787   2.117  0.0760  0.6408  0.6783
14512SOL     OW52313   4.210  11.692   2.590  0.3536 -0.2527 -0.2723
14512SOL    HW152314   4.275  11.646   2.643 -1.0976 -0.4073  1.4760
14512SOL    HW252315   4.155  11.623   2.555  0.4086 -0.0494 -0.7704
14513SOL     OW52316   7.211   0.419   8.495  0.2865 -0.7507 -0.2934
14513SOL    HW152317   7.177   0.414   8.584 -1.4005 -1.8354 -0.9317
14513SOL    HW252318   7.199   0.511   8.470 -2.7676 -1.0966 -0.5953
14514SOL     OW52319   3.205   5.606  11.495 -0.0839 -0.1656  0.1223
14514SOL    HW152320   3.200   5.511  11.509 -2.4132 -0.5033 -2.1082
14514SOL    HW252321   3.141   5.643  11.555  0.2594 -0.0948  0.4432
14515SOL     OW52322  11.269   4.648  10.576 -0.2945 -0.1811 -0.0671
14515SOL    HW152323  11.258   4.643  10.671  0.1718  2.7142  0.2156
14515SOL    HW252324  11.180   4.642  10.542 -0.4158 -1.9527  0.4393
14516SOL     OW52325   3.136   1.603   4.060  0.0687 -0.3569 -0.0954
14516SOL    HW152326   3.074   1.531   4.070  0.1690 -0.2981  1.0217
14516SOL    HW252327   3.214   1.562   4.020  1.0509 -1.4256  2.6944
14517SOL     OW52328   3.582   5.285  12.118 -0.7907 -0.2398  0.1577
14517SOL    HW152329   3.554   5.318  12.203  0.1123  2.7334 -0.5819
14517SOL    HW252330   3.510   5.307  12.058 -0.6365 -0.6264 -0.1730
14518SOL     OW52331   1.526   0.746   6.274  0.4046 -0.0034  0.1058
14518SOL    HW152332   1.449   0.799   6.293 -0.5183 -1.2036 -0.1575
14518SOL    HW252333   1.546   0.701   6.356 -0.0336 -0.7334 -0.1704
14519SOL     OW52334  10.241   1.214  11.629 -0.0016  0.1260  0.3601
14519SOL    HW152335  10.151   1.197  11.603 -0.0296  1.5536 -0.5888
14519SOL    HW252336  10.237   1.296  11.679  0.7145 -0.0554  0.7382
14520SOL     OW52337   0.754   4.092   9.143  0.6866  0.4354  0.4550
14520SOL    HW152338   0.710   4.170   9.109  0.5585  1.1372  2.0927
14520SOL    HW252339   0.844   4.098   9.113  0.6337  1.1478  0.4422
14521SOL     OW52340   7.242   2.549   4.713  0.4181 -0.1999  0.2480
14521SOL    HW152341   7.223   2.582   4.625  1.4224 -0.9272 -0.2543
14521SOL    HW252342   7.157   2.550   4.757  0.3219  2.6959  0.1725
14522SOL     OW52343   2.854   1.714  10.674  0.2227  0.1158  0.0645
14522SOL    HW152344   2.792   1.781  10.702 -2.2898 -1.5092 -1.2067
14522SOL    HW252345   2.815   1.631  10.703  1.4806 -1.0276 -1.3026
14523SOL     OW52346   5.280  12.584  10.666 -0.1259  0.1012  0.1402
14523SOL    HW152347   5.219  12.639  10.617 -0.2031 -0.2970 -0.2172
14523SOL    HW252348   5.330  12.646  10.719 -0.0093  0.5533 -0.4760
14524SOL     OW52349   9.460   4.263   5.185 -0.2139 -0.0052  0.1611
14524SOL    HW152350   9.371   4.231   5.202 -0.8404  1.5552 -0.0494
14524SOL    HW252351   9.453   4.358   5.189  0.4335  0.4759 -4.4866
14525SOL     OW52352  11.234  11.172   1.331  0.1954 -0.5136 -0.2299
14525SOL    HW152353  11.288  11.204   1.403 -0.8309 -1.1246  0.8403
14525SOL    HW252354  11.222  11.249   1.275 -0.7544  0.5651  1.3652
14526SOL     OW52355   6.832   5.627   5.313 -0.0908  0.0923 -0.0190
14526SOL    HW152356   6.856   5.536   5.328  0.2076  0.2304  0.3563
14526SOL    HW252357   6.896   5.658   5.249 -0.8902 -0.2758 -1.0413
14527SOL     OW52358  10.234   5.623   7.328  0.2203 -0.5759 -0.0763
14527SOL    HW152359  10.167   5.559   7.352  0.7420 -2.2669 -2.6881
14527SOL    HW252360  10.201   5.662   7.247  1.2167  0.4609 -0.0049
14528SOL     OW52361   2.401   1.308   9.443  0.2121  0.3456 -0.3326
14528SOL    HW152362   2.350   1.288   9.365 -1.2552 -0.3220  0.7560
14528SOL    HW252363   2.361   1.387   9.479 -0.0952 -0.1863  0.5321
14529SOL     OW52364   1.686   1.841  10.368 -0.0720  0.0766  0.1418
14529SOL    HW152365   1.599   1.819  10.402  0.5364 -0.9270  1.1340
14529SOL    HW252366   1.669   1.908  10.302 -1.4551  1.1641  1.5084
14530SOL     OW52367   6.327  10.298   9.070 -0.1811 -0.7657  0.2012
14530SOL    HW152368   6.280  10.320   9.151  0.6280 -1.0021  0.7551
14530SOL    HW252369   6.286  10.352   9.003 -0.3190  0.0603  0.9271
14531SOL     OW52370   3.940   3.032   7.038 -0.6541 -0.5835  0.2967
14531SOL    HW152371   3.942   2.957   7.098 -2.5415  0.3668  1.6638
14531SOL    HW252372   3.856   3.023   6.993 -1.1151  0.9363  0.8161
14532SOL     OW52373  10.627   6.484   4.384  0.1150 -0.1830 -0.3923
14532SOL    HW152374  10.542   6.483   4.340 -0.6122 -3.7961  0.7502
14532SOL    HW252375  10.689   6.456   4.317 -0.0853 -0.4120 -0.4838
14533SOL     OW52376  11.306  11.942   8.553 -0.2129 -0.9548 -0.3713
14533SOL    HW152377  11.304  12.037   8.547  1.4090 -0.9122 -0.8263
14533SOL    HW252378  11.273  11.923   8.641 -0.2092  0.0600 -0.1382
14534SOL     OW52379  11.665   5.306  11.451  0.0918 -0.0354 -0.0903
14534SOL    HW152380  11.661   5.211  11.453  0.8855 -0.0774 -0.2771
14534SOL    HW252381  11.736   5.329  11.511  0.1856  0.4177 -0.3644
14535SOL     OW52382   2.354   0.003   2.775  0.7527 -0.2491 -0.2260
14535SOL    HW152383   2.397  -0.081   2.763  1.6261  0.3560 -1.6086
14535SOL    HW252384   2.363   0.047   2.690  0.0429  1.1067  0.3672
14536SOL     OW52385  11.622   8.661   2.373  0.1345 -0.4572 -0.4576
14536SOL    HW152386  11.601   8.750   2.345  0.3073 -0.4519 -0.5761
14536SOL    HW252387  11.712   8.647   2.341  0.1650 -0.6156 -0.3024
14537SOL     OW52388   9.860   0.940   6.404  0.1555 -0.0316 -0.4778
14537SOL    HW152389   9.768   0.937   6.432  0.2384  0.1767 -0.1861
14537SOL    HW252390   9.863   1.012   6.341  0.7034  1.9244  1.6567
14538SOL     OW52391   4.696  10.911   7.891  0.2192  0.6543  0.2284
14538SOL    HW152392   4.658  10.827   7.917 -0.2214  0.5340 -0.7704
14538SOL    HW252393   4.777  10.917   7.943  0.7622 -0.8421 -0.3766
14539SOL     OW52394   8.972  10.839  11.004  0.2384  0.2986  0.1385
14539SOL    HW152395   9.016  10.906  11.056 -0.8356  0.6940  0.5648
14539SOL    HW252396   8.952  10.769  11.066  0.0228  0.2442  0.0095
14540SOL     OW52397   4.537   5.883  12.391 -0.2730  0.1225 -0.3282
14540SOL    HW152398   4.442   5.872  12.398 -0.7472  1.9154 -2.9716
14540SOL    HW252399   4.564   5.905  12.480 -2.2798 -0.5727  0.5275
14541SOL     OW52400   1.326   1.113   1.384  0.3872 -0.1284 -0.6814
14541SOL    HW152401   1.295   1.119   1.294  0.8757 -1.4084 -0.9565
14541SOL    HW252402   1.408   1.063   1.378 -0.4043 -1.6745  0.6180
14542SOL     OW52403   1.252   4.712   9.631 -0.2355 -0.2781  0.0689
14542SOL    HW152404   1.170   4.748   9.597 -0.4398 -0.6956  0.1025
14542SOL    HW252405   1.319   4.773   9.602 -0.7446  1.1167  1.6356
14543SOL     OW52406   5.142   4.315  11.099  0.1035 -0.2603 -0.1118
14543SOL    HW152407   5.160   4.246  11.162 -0.0170 -0.5813 -0.4245
14543SOL    HW252408   5.068   4.363  11.136  2.2955  1.8818  1.8405
14544SOL     OW52409  11.559   7.893  10.985 -0.6524  0.2140 -0.1935
14544SOL    HW152410  11.614   7.954  11.034  0.0321 -1.7741  1.6879
14544SOL    HW252411  11.610   7.873  10.906  0.4417 -0.0887  0.5658
14545SOL     OW52412   1.227   1.753  10.049  0.0187 -0.4438 -0.3341
14545SOL    HW152413   1.251   1.688  10.115 -0.8681 -1.4981 -1.0140
14545SOL    HW252414   1.260   1.836  10.085 -1.4348 -0.7732  2.0066
14546SOL     OW52415  12.588  11.061  12.099 -0.3526  0.3729  0.4176
14546SOL    HW152416  12.493  11.064  12.108 -0.3344  1.7165  0.2889
14546SOL    HW252417  12.604  11.095  12.011  0.2779  0.6961  0.6549
14547SOL     OW52418   9.461  11.763   1.072 -0.2780  0.2728 -0.0298
14547SOL    HW152419   9.455  11.790   1.164  0.1044  1.0426 -0.2178
14547SOL    HW252420   9.446  11.844   1.023 -1.9704 -0.3862 -0.6845
14548SOL     OW52421   2.873  12.344   3.401  0.2503 -0.1961 -0.0250
14548SOL    HW152422   2.830  12.425   3.429 -0.6789  0.4495 -2.9695
14548SOL    HW252423   2.965  12.367   3.393 -0.1282  0.9146 -1.7020
14549SOL     OW52424  12.563   0.791   4.393  0.3990 -0.2277  0.3701
14549SOL    HW152425  12.578   0.884   4.409  1.8194 -0.0561 -1.5273
14549SOL    HW252426  12.606   0.747   4.466 -0.0675  0.5910  1.1520
14550SOL     OW52427   1.371  10.354   6.648 -0.5462 -0.0464 -0.5986
14550SOL    HW152428   1.314  10.280   6.668  0.6340 -1.1027 -1.0117
14550SOL    HW252429   1.408  10.333   6.563  1.0339  0.2218 -0.0084
14551SOL     OW52430   3.476   8.194   7.934 -0.0603  0.2304 -1.0373
14551SOL    HW152431   3.418   8.138   7.987  0.6568  0.9156  0.5439
14551SOL    HW252432   3.479   8.151   7.848 -1.1949 -0.9912 -0.4995
14552SOL     OW52433  11.397   1.165   7.171 -0.3409 -0.5664  0.0640
14552SOL    HW152434  11.449   1.135   7.098 -2.3506  0.1779 -1.7805
14552SOL    HW252435  11.344   1.089   7.196 -1.8725 -0.0231 -1.3575
14553SOL     OW52436   4.470   0.072   7.290  0.2059 -0.4028  0.4836
14553SOL    HW152437   4.390   0.034   7.327  0.0037  0.4202  0.9302
14553SOL    HW252438   4.513   0.114   7.365  0.2435  0.5262 -0.0438
14554SOL     OW52439   9.360   5.847   8.388 -0.3472 -0.2627  0.3363
14554SOL    HW152440   9.387   5.759   8.416 -0.2125  0.0861  1.3553
14554SOL    HW252441   9.371   5.901   8.466 -1.9616  0.3450  0.1782
14555SOL     OW52442   2.258  12.043   2.475  0.6329  0.1809 -0.8647
14555SOL    HW152443   2.165  12.028   2.491  0.2021  2.1828 -1.3007
14555SOL    HW252444   2.299  12.040   2.561 -0.1020  0.9448 -0.4859
14556SOL     OW52445  11.796   2.534   7.182 -0.5167  0.4684  0.3494
14556SOL    HW152446  11.765   2.471   7.116  0.2081  0.2123  0.2422
14556SOL    HW252447  11.757   2.504   7.264 -1.3408  0.7271  0.0603
14557SOL     OW52448   4.164   0.395  11.640 -0.1320 -0.0416  0.6935
14557SOL    HW152449   4.176   0.472  11.585  0.3981  0.0634  0.9471
14557SOL    HW252450   4.124   0.330  11.582 -1.5594  0.7390  0.7293
14558SOL     OW52451  10.064   8.688   3.376  1.0370  0.3959  0.0094
14558SOL    HW152452  10.053   8.713   3.468 -1.3345  0.1228 -0.1316
14558SOL    HW252453  10.036   8.766   3.327 -2.9775 -1.0805 -0.4110
14559SOL     OW52454   6.065  11.142   4.752 -0.1028  0.1879  0.3286
14559SOL    HW152455   6.067  11.054   4.791  1.2708 -0.2087 -0.5592
14559SOL    HW252456   6.051  11.126   4.659 -0.4319  0.9543  0.2410
14560SOL     OW52457   7.369   6.011   7.226 -0.2362 -0.1422  0.1054
14560SOL    HW152458   7.374   5.916   7.236  0.0687 -0.0432  1.0190
14560SOL    HW252459   7.447   6.034   7.177 -0.8625 -0.4629 -1.0995
14561SOL     OW52460  10.641   2.310   4.543 -0.4314  0.9240  0.6226
14561SOL    HW152461  10.645   2.401   4.571 -0.0768  1.0791  0.0723
14561SOL    HW252462  10.644   2.313   4.448  1.1773  0.2885  0.6095
14562SOL     OW52463  12.364   5.851   1.296 -0.2110  0.2427 -0.4775
14562SOL    HW152464  12.276   5.836   1.330 -0.2503  1.6779  0.1243
14562SOL    HW252465  12.414   5.775   1.325 -0.9752 -0.0226  0.1868
14563SOL     OW52466  11.286  12.452   0.316 -0.3489 -0.2439  0.1148
14563SOL    HW152467  11.281  12.545   0.339 -0.8282 -0.4534  0.9112
14563SOL    HW252468  11.238  12.445   0.234 -2.6517 -0.1846  1.3781
14564SOL     OW52469   3.205   1.356   3.805 -0.4516 -0.3932 -0.1453
14564SOL    HW152470   3.246   1.273   3.781 -0.4017 -0.4401  0.0961
14564SOL    HW252471   3.140   1.332   3.871  0.9142 -0.0141  1.4007
14565SOL     OW52472  11.046   5.344   6.684 -0.0170  0.1982 -0.2271
14565SOL    HW152473  11.039   5.329   6.778 -1.6223 -0.5349 -0.4344
14565SOL    HW252474  11.086   5.264   6.650  1.1088  0.6999 -0.1164
14566SOL     OW52475   3.547   6.997   3.399  0.3136 -0.3574  0.8111
14566SOL    HW152476   3.518   7.088   3.396  1.8911  0.1919  1.0884
14566SOL    HW252477   3.638   7.000   3.369  0.7983 -1.6544  2.0422
14567SOL     OW52478   0.343   5.198   8.248  0.2981 -1.0227 -0.0908
14567SOL    HW152479   0.413   5.233   8.303  0.0705 -1.2062  0.3161
14567SOL    HW252480   0.332   5.108   8.278 -0.8055 -0.6878  0.5339
14568SOL     OW52481   3.145   9.418  10.671  0.0942 -0.0010 -0.1174
14568SOL    HW152482   3.088   9.483  10.630  0.5602  0.2994 -0.2950
14568SOL    HW252483   3.179   9.463  10.749 -1.1792 -0.7311  0.9086
14569SOL     OW52484   2.544   0.667   0.538 -0.4102  0.2432 -0.7968
14569SOL    HW152485   2.553   0.686   0.444  0.6717 -1.1509 -1.0149
14569SOL    HW252486   2.464   0.614   0.543 -1.2443  1.4567 -0.7093
14570SOL     OW52487   6.887   7.527  11.815  0.1501 -0.2107 -0.0300
14570SOL    HW152488   6.966   7.476  11.794 -0.1486 -0.7177  0.0767
14570SOL    HW252489   6.821   7.495  11.753 -0.3687 -0.7839  0.8043
14571SOL     OW52490   5.242   9.878   5.334  0.3587  0.4653  0.0584
14571SOL    HW152491   5.195   9.961   5.338 -0.4652 -0.0171  0.5680
14571SOL    HW252492   5.330   9.900   5.366  0.1371  1.1326  0.2427
14572SOL     OW52493  11.345   0.893   8.419 -0.3387 -0.1979  0.2797
14572SOL    HW152494  11.289   0.962   8.385 -0.0265  0.1689  0.5080
14572SOL    HW252495  11.284   0.824   8.446 -0.8117  0.7722  1.8505
14573SOL     OW52496   0.612  12.219   6.518 -0.2574 -0.0038  0.5555
14573SOL    HW152497   0.665  12.298   6.522 -1.7907  1.0593  0.5866
14573SOL    HW252498   0.572  12.221   6.431 -2.3030  0.6422  1.4515
14574SOL     OW52499   3.254   2.041  11.955  0.1042  0.4309 -0.7277
14574SOL    HW152500   3.276   1.965  11.900 -1.6556 -0.3486 -0.3967
14574SOL    HW252501   3.241   2.005  12.042 -1.5080  0.9769 -0.7178
14575SOL     OW52502   7.765  12.562   3.754  0.1836  0.3415  0.6430
14575SOL    HW152503   7.770  12.578   3.660  0.3642 -0.4687  0.5062
14575SOL    HW252504   7.741  12.647   3.792 -0.1725  0.6069 -0.1582
14576SOL     OW52505   8.698   3.500   0.514 -1.2373  0.2893 -0.1551
14576SOL    HW152506   8.676   3.592   0.527  0.8018  0.6685  1.2275
14576SOL    HW252507   8.614   3.456   0.501 -2.2648  2.3067 -0.7195
14577SOL     OW52508   0.508   7.429   5.311 -0.4172  0.0270  0.3611
14577SOL    HW152509   0.499   7.359   5.376 -0.5862 -1.1310 -0.8571
14577SOL    HW252510   0.544   7.503   5.360  0.2715 -1.0696  1.5898
14578SOL     OW52511   5.128   8.810   3.377 -0.0956 -0.0180  0.2769
14578SOL    HW152512   5.046   8.831   3.421 -0.5849 -0.5435 -0.3717
14578SOL    HW252513   5.149   8.889   3.328  0.1527  0.3637  0.9865
14579SOL     OW52514   8.800   0.810   3.220 -0.3034  0.2033  0.0915
14579SOL    HW152515   8.794   0.863   3.300 -1.2794  0.0128  0.1560
14579SOL    HW252516   8.861   0.858   3.165 -1.3392  1.5459  0.0510
14580SOL     OW52517   3.616   1.523   4.687  0.6130 -0.6318 -0.0388
14580SOL    HW152518   3.673   1.589   4.648  1.7932 -1.3179  0.4606
14580SOL    HW252519   3.633   1.443   4.638  0.2135 -0.8940  0.2365
14581SOL     OW52520   3.969   0.441   2.824  0.4949 -0.5145  0.1736
14581SOL    HW152521   3.881   0.441   2.786  0.6950  0.4827 -0.3416
14581SOL    HW252522   3.972   0.363   2.878  0.2338 -2.1361 -2.0079
14582SOL     OW52523   6.620   5.204   1.117  0.2915 -0.9390 -0.4217
14582SOL    HW152524   6.530   5.174   1.133  0.0007  0.0129 -0.2038
14582SOL    HW252525   6.639   5.263   1.190  0.4333  0.2724 -1.4096
14583SOL     OW52526   0.416  12.162   1.523  0.1346 -0.0907 -0.7138
14583SOL    HW152527   0.510  12.147   1.519  0.2925  1.0232 -1.9006
14583SOL    HW252528   0.382  12.124   1.442  0.0299  2.2597 -1.8508
14584SOL     OW52529   6.913  10.744   3.223 -0.2989 -0.0805 -0.0779
14584SOL    HW152530   6.942  10.693   3.299  1.2068  0.0201 -0.5486
14584SOL    HW252531   6.967  10.712   3.151 -1.1734  0.3577 -0.9496
14585SOL     OW52532   4.070   3.185   8.283 -0.3643  0.1637 -0.4002
14585SOL    HW152533   4.012   3.251   8.244  1.4789  1.3034 -1.3098
14585SOL    HW252534   4.157   3.223   8.278  0.6384 -1.9554 -0.0681
14586SOL     OW52535   4.407   1.477  11.857  0.5012  0.5075  0.8899
14586SOL    HW152536   4.426   1.385  11.877  2.1757  0.8314  0.9283
14586SOL    HW252537   4.460   1.497  11.780 -1.9662  0.7184 -0.8814
14587SOL     OW52538   0.208   2.414  11.737 -0.3322  0.1775 -0.2388
14587SOL    HW152539   0.146   2.480  11.705  0.9593  1.4113 -0.3322
14587SOL    HW252540   0.286   2.465  11.760  1.1521 -1.4458 -1.4255
14588SOL     OW52541   5.987   1.332   9.217  0.5106 -0.4895 -0.4690
14588SOL    HW152542   5.911   1.280   9.190 -0.4045  0.3467  0.4441
14588SOL    HW252543   6.024   1.364   9.135  0.3164 -1.4891 -0.9676
14589SOL     OW52544   8.236  11.986   1.272 -0.5786  0.4449  0.4879
14589SOL    HW152545   8.159  11.967   1.218 -1.1862  0.0977  1.4396
14589SOL    HW252546   8.307  11.997   1.210 -1.2603  0.0904 -0.3783
14590SOL     OW52547   4.665   3.670   4.006 -0.4039  0.4588 -0.3366
14590SOL    HW152548   4.750   3.697   4.040 -1.3250  3.9094 -0.4256
14590SOL    HW252549   4.657   3.715   3.922 -2.4999  0.6840 -0.0831
14591SOL     OW52550   7.158   0.228   2.660  0.4437  0.2796 -1.1088
14591SOL    HW152551   7.094   0.291   2.694  0.1375  0.3795 -1.8451
14591SOL    HW252552   7.126   0.207   2.572 -0.3776 -2.1414 -0.3071
14592SOL     OW52553  10.241   9.651   1.599 -0.3662 -0.0528 -0.4687
14592SOL    HW152554  10.313   9.686   1.652  0.4316  1.6136 -2.5325
14592SOL    HW252555  10.177   9.721   1.594 -1.7817 -1.2017  0.5719
14593SOL     OW52556   5.511  11.042   6.257  0.0100 -0.1522  0.3515
14593SOL    HW152557   5.474  11.040   6.168 -1.1619 -2.8775  0.8001
14593SOL    HW252558   5.440  11.011   6.313  1.9958 -2.7398  1.6587
14594SOL     OW52559   0.987   0.801  12.456  0.1001 -0.0956  0.1090
14594SOL    HW152560   1.067   0.753  12.432 -0.8600 -1.5347 -0.2885
14594SOL    HW252561   0.922   0.734  12.472 -0.4557  0.9552  2.8022
14595SOL     OW52562   5.959   3.522   6.614 -0.3100  0.3445  0.2121
14595SOL    HW152563   5.879   3.508   6.564  0.2618 -0.7115 -0.4470
14595SOL    HW252564   6.012   3.581   6.559 -0.7544  1.3361  0.8100
14596SOL     OW52565  10.245  10.960  11.618 -0.0375 -0.5269  0.0194
14596SOL    HW152566  10.337  10.945  11.598  0.1075  0.2124  0.0758
14596SOL    HW252567  10.198  10.933  11.540  0.3196  0.0855 -0.4168
14597SOL     OW52568   4.019   3.264   5.225  0.4743  0.4844 -0.1857
14597SOL    HW152569   4.068   3.227   5.151 -0.4985 -1.1961 -0.0424
14597SOL    HW252570   3.927   3.256   5.199  0.0738 -0.7349  1.4401
14598SOL     OW52571   9.285   9.997   3.552 -0.0029 -0.1862 -0.0382
14598SOL    HW152572   9.326   9.947   3.481  0.4851  0.5824 -0.3136
14598SOL    HW252573   9.225   9.935   3.593  0.5889 -1.0014 -0.3640
14599SOL     OW52574   6.134  10.793   4.412 -0.0972  0.5042  0.1702
14599SOL    HW152575   6.084  10.714   4.392  0.3080  0.3406 -0.2183
14599SOL    HW252576   6.225  10.767   4.399  0.0386  1.0259  0.0767
14600SOL     OW52577   1.845  11.243   2.088  0.4603  0.7406  0.3588
14600SOL    HW152578   1.886  11.181   2.027  1.0396  1.1391  0.3371
14600SOL    HW252579   1.918  11.280   2.138  0.0157  0.5767  1.1583
14601SOL     OW52580   0.363   0.370  12.103 -0.3889 -0.1806  0.0979
14601SOL    HW152581   0.404   0.288  12.077 -0.9953 -0.0349 -1.4439
14601SOL    HW252582   0.359   0.366  12.199  0.7831 -1.3444  0.1301
14602SOL     OW52583   2.547  10.468   0.415  0.0361  0.0659 -0.0068
14602SOL    HW152584   2.559  10.433   0.503 -0.2210  0.8046  0.3330
14602SOL    HW252585   2.634  10.461   0.374  0.6524  1.4656  0.9740
14603SOL     OW52586  12.610  12.108   3.657 -0.1138  0.0752 -0.1477
14603SOL    HW152587  12.691  12.159   3.652 -0.2378  0.4482  1.3319
14603SOL    HW252588  12.640  12.017   3.662  0.1004 -0.1141 -3.1122
14604SOL     OW52589   4.328   5.578   5.565 -0.0249  0.4816 -0.2553
14604SOL    HW152590   4.393   5.647   5.580  2.5459 -1.4662 -1.4840
14604SOL    HW252591   4.337   5.520   5.640  1.2668 -0.8842 -1.3955
14605SOL     OW52592   4.576   0.695  10.485  0.1715 -0.5540 -0.3196
14605SOL    HW152593   4.481   0.709  10.487  0.2976  0.4428 -0.6815
14605SOL    HW252594   4.613   0.782  10.473  1.1882 -0.8150  0.7488
14606SOL     OW52595   7.599   7.746   1.342  0.3050  0.3646  0.4945
14606SOL    HW152596   7.515   7.723   1.383  0.0073 -0.0777 -0.3414
14606SOL    HW252597   7.630   7.821   1.392 -0.2476  0.0930  1.2713
14607SOL     OW52598   6.066   2.178  11.281  0.1341 -0.5643  0.2343
14607SOL    HW152599   6.157   2.152  11.268  0.0023 -1.3808  0.8503
14607SOL    HW252600   6.070   2.255  11.337  0.4140 -1.1954  1.1007
14608SOL     OW52601   9.390   5.375   8.842 -0.0980 -0.0975 -0.4039
14608SOL    HW152602   9.334   5.298   8.847 -0.4764  0.1524 -0.7371
14608SOL    HW252603   9.459   5.351   8.780 -1.6878  0.7353 -2.6133
14609SOL     OW52604   0.328   2.836   1.681  0.1504 -0.2956 -0.0355
14609SOL    HW152605   0.296   2.911   1.631 -2.3296 -0.7064  0.7712
14609SOL    HW252606   0.347   2.769   1.614 -0.0739  0.2078 -0.6149
14610SOL     OW52607   4.661   7.000  11.208  0.5470  0.2679  0.0126
14610SOL    HW152608   4.712   7.025  11.285  0.2380  0.3241  0.1989
14610SOL    HW252609   4.570   7.016  11.233  0.5795  3.5935 -1.5635
14611SOL     OW52610   2.881   3.470   8.983 -0.4343 -0.2192 -0.5014
14611SOL    HW152611   2.870   3.380   9.014 -0.9811  0.1115  0.3257
14611SOL    HW252612   2.895   3.462   8.889  2.4410 -1.3549 -0.0557
14612SOL     OW52613   4.997   1.584  12.332 -0.0063  0.1239  0.1632
14612SOL    HW152614   5.052   1.631  12.268 -1.1339  2.0733  0.5521
14612SOL    HW252615   4.962   1.510  12.282 -0.1322  1.0816 -1.2515
14613SOL     OW52616   7.369  10.821   2.954 -0.4754 -0.1981  0.5302
14613SOL    HW152617   7.448  10.770   2.938 -0.5720 -1.0819  2.5656
14613SOL    HW252618   7.330  10.782   3.032 -1.6328  1.7381  1.0018
14614SOL     OW52619  11.175   7.863   4.663 -0.2039 -0.2300  0.2524
14614SOL    HW152620  11.259   7.897   4.692 -0.2695  0.9913 -0.8745
14614SOL    HW252621  11.114   7.935   4.679 -0.9027 -0.8399  0.3813
14615SOL     OW52622   4.778   6.174   3.360 -0.2816 -0.1200  0.2049
14615SOL    HW152623   4.698   6.177   3.307  0.5103 -0.6618 -1.0666
14615SOL    HW252624   4.760   6.230   3.435 -2.6444 -1.8604  1.0648
14616SOL     OW52625   4.763   8.939   8.513 -0.1254 -0.0890  0.1306
14616SOL    HW152626   4.757   8.874   8.583  0.4029 -1.4426 -1.0266
14616SOL    HW252627   4.853   8.972   8.519  0.6963 -1.8886 -1.2742
14617SOL     OW52628   8.998  12.397  12.553 -0.2236 -0.3237 -0.2445
14617SOL    HW152629   9.007  12.372  12.645 -0.2904  0.2055 -0.0947
14617SOL    HW252630   9.061  12.468  12.541 -0.2067 -0.3999 -0.6113
14618SOL     OW52631   6.325   3.623   3.457 -0.1849 -0.3203  0.1446
14618SOL    HW152632   6.397   3.560   3.459 -0.1805 -0.3030  1.1899
14618SOL    HW252633   6.251   3.573   3.423 -0.4446 -1.2167  1.9065
14619SOL     OW52634   2.068   8.362  11.551  0.4251 -0.3763  0.3785
14619SOL    HW152635   2.024   8.447  11.553 -0.4220 -0.7874 -0.1562
14619SOL    HW252636   2.038   8.318  11.630 -0.2170 -0.6923 -0.0330
14620SOL     OW52637  10.540   1.972  10.784  0.0241 -0.6917 -0.2649
14620SOL    HW152638  10.624   2.003  10.749  0.8934 -0.7413  1.6576
14620SOL    HW252639  10.485   2.051  10.789 -0.0120 -0.6301 -1.3779
14621SOL     OW52640  11.628   8.361   4.569 -0.3094 -0.1967  0.1050
14621SOL    HW152641  11.708   8.405   4.541 -0.7528 -0.0161 -0.9590
14621SOL    HW252642  11.656   8.298   4.635  0.5889  0.4143  0.3189
14622SOL     OW52643   3.648  11.890  11.501 -0.0987 -0.6340 -0.3990
14622SOL    HW152644   3.574  11.868  11.445 -0.3433 -1.6699  0.3114
14622SOL    HW252645   3.699  11.953  11.449 -1.7113  0.4829 -0.6919
14623SOL     OW52646   6.285   4.800   6.994 -0.0457  0.3130  0.6102
14623SOL    HW152647   6.334   4.876   7.025  2.3460 -0.0148 -1.9967
14623SOL    HW252648   6.211   4.838   6.946 -0.9467  0.8473  2.3134
14624SOL     OW52649   0.150   8.537   7.380 -0.0908  0.1772 -0.1781
14624SOL    HW152650   0.139   8.532   7.475  1.1415  1.0314  0.0290
14624SOL    HW252651   0.085   8.601   7.351 -1.0075 -0.6657 -0.0298
14625SOL     OW52652   6.110   4.646   2.184 -0.4519  0.0331  0.2863
14625SOL    HW152653   6.173   4.594   2.134 -0.0314  1.9249 -1.2338
14625SOL    HW252654   6.117   4.611   2.273  1.5863 -0.8868 -0.1702
14626SOL     OW52655   1.049  12.263  11.834 -0.2407  0.1190 -0.1380
14626SOL    HW152656   0.992  12.278  11.759  0.6198 -0.3510 -0.9160
14626SOL    HW252657   1.051  12.167  11.843 -0.4361  0.1781  0.5618
14627SOL     OW52658  11.002   4.769   7.815 -0.4409  0.2433 -0.0175
14627SOL    HW152659  11.033   4.764   7.724 -1.8204  0.0086 -0.4999
14627SOL    HW252660  11.042   4.849   7.849 -0.5090  0.7456 -1.0803
14628SOL     OW52661  10.527   2.928  11.255 -0.3830 -0.5377 -0.2157
14628SOL    HW152662  10.598   2.915  11.318 -0.4608 -1.3250 -0.2767
14628SOL    HW252663  10.518   2.843  11.212 -1.8634 -0.6849  0.3165
14629SOL     OW52664   8.878   5.769   2.876  0.1877  0.0669  0.3129
14629SOL    HW152665   8.881   5.778   2.781 -2.5517 -1.4002 -0.0183
14629SOL    HW252666   8.871   5.674   2.890  0.9183  0.2379  2.0089
14630SOL     OW52667   4.395   8.490   7.627  0.1774 -0.3779  0.0132
14630SOL    HW152668   4.323   8.475   7.689  0.4929  0.9480  0.7497
14630SOL    HW252669   4.372   8.573   7.584  2.3467  1.3839  1.9633
14631SOL     OW52670  10.692  12.100   8.138  0.3530 -0.4798  0.7590
14631SOL    HW152671  10.744  12.167   8.183  1.8139 -0.4928 -0.7648
14631SOL    HW252672  10.655  12.146   8.062 -0.8776 -0.7814  1.1542
14632SOL     OW52673   1.545  11.912   8.197  0.7111 -0.3245  0.1527
14632SOL    HW152674   1.460  11.922   8.155  1.0121 -1.0656 -0.6689
14632SOL    HW252675   1.551  11.986   8.258 -0.7446 -0.5981  0.6478
14633SOL     OW52676   4.497   2.396   6.282  0.4098  0.2238 -0.3364
14633SOL    HW152677   4.571   2.428   6.334  0.4318  1.7738 -1.2620
14633SOL    HW252678   4.499   2.449   6.202 -0.6387 -0.9431 -1.1712
14634SOL     OW52679   6.730   4.172   0.361  0.4178  0.2444  0.0444
14634SOL    HW152680   6.655   4.158   0.418  0.4901 -2.9154 -0.4820
14634SOL    HW252681   6.803   4.191   0.420 -0.3060  0.9817  0.7046
14635SOL     OW52682   2.147  10.176   9.378  0.3606  0.5826  0.0028
14635SOL    HW152683   2.052  10.167   9.389 -0.0464  0.6886 -2.6684
14635SOL    HW252684   2.166  10.131   9.295  2.7276  0.1956  0.6933
14636SOL     OW52685   3.091   9.386   8.673 -0.4268 -0.0680 -0.9015
14636SOL    HW152686   3.047   9.470   8.675 -0.3782 -0.0525  0.4816
14636SOL    HW252687   3.184   9.407   8.686 -0.5308 -0.3786  0.5096
14637SOL     OW52688   0.195   6.940   9.401 -0.7502 -0.1738  0.6994
14637SOL    HW152689   0.237   6.944   9.315  0.6324  1.1008  1.3848
14637SOL    HW252690   0.135   7.014   9.401  1.9750  2.2602  2.0817
14638SOL     OW52691   3.378   6.928   7.118  0.1851  0.0318  0.4154
14638SOL    HW152692   3.316   6.948   7.187 -0.2503  0.2820 -0.0429
14638SOL    HW252693   3.448   6.880   7.162 -0.8161 -1.1684  0.7628
14639SOL     OW52694   8.488  11.544   2.311 -0.3025 -0.7456 -0.1788
14639SOL    HW152695   8.393  11.550   2.296  0.0348  1.8021 -1.9528
14639SOL    HW252696   8.502  11.586   2.395 -0.8098 -2.2507  0.7039
14640SOL     OW52697   3.955  11.008   1.314  0.0681  0.1154  0.1473
14640SOL    HW152698   3.911  11.009   1.399  2.1236  1.5777  1.2617
14640SOL    HW252699   3.935  10.921   1.279 -1.3289 -0.3145  1.8213
14641SOL     OW52700   1.038   0.779   8.074  0.0980 -0.3208 -0.3489
14641SOL    HW152701   1.027   0.689   8.105 -2.1084 -0.7035 -1.9562
14641SOL    HW252702   1.004   0.833   8.144 -0.4952 -0.8751 -0.1957
14642SOL     OW52703   9.036   8.669   8.230 -0.3928 -0.1502 -0.1822
14642SOL    HW152704   9.039   8.594   8.289  0.8144  0.1994  0.2418
14642SOL    HW252705   9.107   8.653   8.167 -3.1461 -1.7306 -3.1518
14643SOL     OW52706  11.652   7.740  12.480  0.1283 -0.3533 -0.1965
14643SOL    HW152707  11.625   7.817  12.430  1.1962  0.5459  0.5354
14643SOL    HW252708  11.571   7.704  12.515 -0.3270  1.1554  0.4009
14644SOL     OW52709  11.505   4.432   8.274  0.2322  0.2041 -0.3367
14644SOL    HW152710  11.568   4.409   8.343 -1.2115  1.6407  1.5768
14644SOL    HW252711  11.430   4.375   8.290  0.7564 -1.1509 -2.2953
14645SOL     OW52712   5.971   2.745  10.379  0.5367 -0.0307 -0.5312
14645SOL    HW152713   5.945   2.837  10.388  2.7685  0.6189  0.2295
14645SOL    HW252714   5.919   2.698  10.444 -0.6664  0.6814 -0.9628
14646SOL     OW52715   8.984   6.257  12.137  0.8270 -0.1039 -0.1000
14646SOL    HW152716   8.969   6.217  12.222 -0.4622  0.4511 -0.0486
14646SOL    HW252717   8.950   6.346  12.145  0.8030  0.0022 -1.1586
14647SOL     OW52718  10.985  10.704   1.145 -0.2662 -0.2719  0.5943
14647SOL    HW152719  11.049  10.775   1.144 -0.8997  0.3051  0.1936
14647SOL    HW252720  10.995  10.662   1.060  1.4756 -1.9408  1.5534
14648SOL     OW52721   6.067   5.215   5.212 -0.2169  0.0001  0.3055
14648SOL    HW152722   5.975   5.189   5.207 -0.4889  0.9351  0.2791
14648SOL    HW252723   6.066   5.310   5.201  0.7803 -0.0078  0.0243
14649SOL     OW52724   5.379  12.226   2.360  0.6623  0.3904 -0.1122
14649SOL    HW152725   5.354  12.184   2.442  1.5512 -0.7401 -0.3985
14649SOL    HW252726   5.307  12.206   2.300  1.2496 -1.1043 -0.3556
14650SOL     OW52727   8.642   8.353  11.161 -0.0534  0.3797 -0.1226
14650SOL    HW152728   8.595   8.419  11.110  0.3119  0.3897 -0.4513
14650SOL    HW252729   8.657   8.281  11.099 -0.5895 -0.0821  0.2752
14651SOL     OW52730   5.147   5.897   0.414  0.0644 -0.3988  0.0047
14651SOL    HW152731   5.058   5.909   0.383 -1.0883 -3.1677  1.8372
14651SOL    HW252732   5.147   5.809   0.452  3.1871  0.0966  1.4300
14652SOL     OW52733   8.358   3.532   8.909 -0.0895  0.4894  0.4168
14652SOL    HW152734   8.417   3.573   8.847 -3.5221  3.2688 -1.3814
14652SOL    HW252735   8.331   3.450   8.866 -0.2112  0.9701 -0.4535
14653SOL     OW52736   4.103   7.617   9.921 -0.5118  0.1992 -0.4968
14653SOL    HW152737   4.044   7.560   9.970  0.9943  0.0557  1.2856
14653SOL    HW252738   4.169   7.557   9.886 -0.7599  0.4834 -1.4632
14654SOL     OW52739   0.128  12.042   2.835  0.3654  0.0969  0.2479
14654SOL    HW152740   0.098  11.978   2.770 -1.2854  1.8293 -0.8153
14654SOL    HW252741   0.149  12.120   2.784  0.2076  1.1099  1.6709
14655SOL     OW52742   4.685   3.727   1.934 -0.2210 -0.4550 -0.3107
14655SOL    HW152743   4.651   3.691   1.852  1.9623 -0.2162 -1.4025
14655SOL    HW252744   4.779   3.709   1.930  0.1807  0.9978  1.4154
14656SOL     OW52745   8.989   5.995   0.427 -0.3300  0.1654 -0.1739
14656SOL    HW152746   9.067   5.940   0.417  0.8070  0.7935  3.5878
14656SOL    HW252747   8.982   6.041   0.344  2.1371 -1.3577 -1.3708
14657SOL     OW52748   8.172   4.480   5.624 -0.2201 -0.0259 -0.5029
14657SOL    HW152749   8.147   4.488   5.716 -1.0427 -1.7535 -0.5423
14657SOL    HW252750   8.090   4.485   5.576 -0.1169 -1.8905 -0.9210
14658SOL     OW52751   8.509   2.064   0.987 -0.5591  0.4315  0.0173
14658SOL    HW152752   8.521   2.157   0.968 -0.0808  0.5767  0.9409
14658SOL    HW252753   8.595   2.025   0.971 -0.0592  0.6097  2.0316
14659SOL     OW52754   1.779   4.061   6.582  0.5258  0.3377 -0.2701
14659SOL    HW152755   1.834   3.987   6.556 -1.0759 -0.9804 -0.0741
14659SOL    HW252756   1.835   4.114   6.638  0.9372 -2.2354  1.9720
14660SOL     OW52757   8.930   2.839   3.007 -0.6211  0.3565  0.8338
14660SOL    HW152758   8.956   2.867   3.095  1.3139  0.1329  0.3932
14660SOL    HW252759   9.004   2.787   2.976 -0.6459  1.5442 -1.4391
14661SOL     OW52760   7.450   1.495   9.678 -0.5340 -0.4518  0.1572
14661SOL    HW152761   7.475   1.469   9.589 -2.2703 -0.1389 -0.4676
14661SOL    HW252762   7.460   1.590   9.678  1.7165 -0.6329  1.0862
14662SOL     OW52763   4.593   5.703   4.212 -0.3891  0.1505 -0.2227
14662SOL    HW152764   4.582   5.614   4.245 -0.6357  0.3854  0.3474
14662SOL    HW252765   4.677   5.701   4.166 -0.3647 -0.3635 -0.1614
14663SOL     OW52766   3.365  11.737   3.130 -0.2488 -0.7894 -0.1383
14663SOL    HW152767   3.353  11.832   3.134  1.2699 -0.4431 -2.1546
14663SOL    HW252768   3.456  11.723   3.156  0.0013 -1.4948 -1.3076
14664SOL     OW52769  11.719  10.047   4.451  0.1744  0.4060  0.0817
14664SOL    HW152770  11.775  10.118   4.481  1.3483 -0.2464 -0.4972
14664SOL    HW252771  11.743  10.035   4.359  2.3666 -2.8080  0.9051
14665SOL     OW52772   6.749   9.889   0.586  0.1031  0.2054 -0.0601
14665SOL    HW152773   6.740   9.821   0.519  1.9598  0.4099 -0.5714
14665SOL    HW252774   6.843   9.908   0.588  0.2232 -0.3114  3.1439
14666SOL     OW52775  11.431   0.484   9.508 -0.1323 -0.2870 -0.4691
14666SOL    HW152776  11.492   0.409   9.505 -0.1333 -0.3446  0.6143
14666SOL    HW252777  11.345   0.445   9.494 -0.0331 -0.3473 -0.9351
14667SOL     OW52778   2.058   7.086   6.101 -0.6440  0.0648  0.2569
14667SOL    HW152779   2.027   7.059   6.188 -1.7281 -2.0356 -0.7027
14667SOL    HW252780   2.087   7.004   6.060  1.0902  1.2039 -0.9171
14668SOL     OW52781  12.579   3.218  10.293  0.2996  0.5195 -0.6710
14668SOL    HW152782  12.616   3.295  10.335 -3.2144  2.3059 -0.4823
14668SOL    HW252783  12.609   3.224  10.202  2.3090  0.4680 -0.0700
14669SOL     OW52784   7.383   8.725  12.460 -0.0167  0.6657  0.6651
14669SOL    HW152785   7.464   8.770  12.485  0.7374 -0.6761  0.7446
14669SOL    HW252786   7.393   8.711  12.365 -0.1934  0.5579  0.6625
14670SOL     OW52787   1.318  10.062  10.391  0.1338 -0.4227  0.7617
14670SOL    HW152788   1.306  10.001  10.318  0.2987  0.4841 -0.0514
14670SOL    HW252789   1.233  10.105  10.401  0.7861  1.3218 -0.6669
14671SOL     OW52790   8.340   0.608   7.299 -0.4746 -0.0515 -0.1571
14671SOL    HW152791   8.307   0.651   7.378 -0.4978 -0.4651  0.0592
14671SOL    HW252792   8.283   0.532   7.287 -0.1759 -0.2579 -0.3013
14672SOL     OW52793   4.286  11.203  11.746 -0.1577  0.2905 -0.0015
14672SOL    HW152794   4.225  11.199  11.819  0.2054  1.6664  0.3980
14672SOL    HW252795   4.296  11.111  11.719 -0.9061 -0.1572  1.1474
14673SOL     OW52796  12.384   5.062   8.944 -0.1377 -0.1642  0.2364
14673SOL    HW152797  12.374   5.014   9.026  0.0935 -2.4326 -1.0063
14673SOL    HW252798  12.300   5.052   8.899  0.0404  0.2841 -0.2086
14674SOL     OW52799   4.031   6.925   2.516 -0.4688  0.6485 -0.1629
14674SOL    HW152800   4.125   6.941   2.517 -0.2874 -0.3277  0.7530
14674SOL    HW252801   3.994   6.999   2.468  0.6505  1.7011  0.5342
14675SOL     OW52802   2.812   2.255   6.241  0.0522 -0.1841  0.1926
14675SOL    HW152803   2.787   2.273   6.332  2.2303  0.1230  0.7879
14675SOL    HW252804   2.758   2.180   6.216  0.4041 -1.2035  2.2441
14676SOL     OW52805  11.227  10.549   2.866 -0.2397  0.6800 -0.5565
14676SOL    HW152806  11.187  10.483   2.923  1.0022  0.0399 -0.4048
14676SOL    HW252807  11.165  10.623   2.869 -1.4899 -0.3243 -0.4686
14677SOL     OW52808   3.682  12.542   2.806 -0.9373  0.8433  0.1212
14677SOL    HW152809   3.695  12.517   2.715 -2.6299  1.0458 -0.2155
14677SOL    HW252810   3.591  12.518   2.824 -0.3432 -0.1702  2.0910
14678SOL     OW52811   0.496   3.588   9.601 -0.2667 -0.0736  0.0080
14678SOL    HW152812   0.475   3.675   9.567 -1.0503 -0.0226  0.5951
14678SOL    HW252813   0.582   3.598   9.643 -0.4743  0.4768  0.3043
14679SOL     OW52814  11.723   9.494  12.342 -0.3502 -0.1767 -0.3506
14679SOL    HW152815  11.770   9.572  12.372 -0.9074  0.8622 -2.0151
14679SOL    HW252816  11.779   9.457  12.274 -1.0481  0.0258 -1.0604
14680SOL     OW52817   5.445   0.454   3.626  0.2357  0.3417  0.3918
14680SOL    HW152818   5.426   0.389   3.694 -1.2107  1.2397  0.9046
14680SOL    HW252819   5.378   0.439   3.559 -0.0433  1.1834  0.4574
14681SOL     OW52820   8.795   4.737   1.497 -0.2844  0.0756  0.1864
14681SOL    HW152821   8.812   4.822   1.536  1.1621 -0.6296  1.2158
14681SOL    HW252822   8.859   4.730   1.426 -2.2092  0.9203 -1.7395
14682SOL     OW52823  10.893   4.134   4.972  0.0498  0.2665  0.2127
14682SOL    HW152824  10.943   4.209   5.005  0.4869 -0.2367  0.7313
14682SOL    HW252825  10.875   4.081   5.050  0.4568 -0.5744 -0.2466
14683SOL     OW52826   2.343   6.372   0.291 -0.2293 -0.7703  0.4118
14683SOL    HW152827   2.402   6.315   0.241  0.1574 -2.0633  2.2292
14683SOL    HW252828   2.378   6.460   0.279  0.9995 -1.2963 -0.0129
14684SOL     OW52829   1.963   2.392   8.683 -1.0308  0.2760 -0.4367
14684SOL    HW152830   1.893   2.333   8.654 -1.4385  0.2406  0.5949
14684SOL    HW252831   1.955   2.468   8.626 -1.4673 -0.0241 -0.7824
14685SOL     OW52832   5.055   0.031   0.994  0.2358  0.2575  0.3235
14685SOL    HW152833   5.102   0.043   0.912 -1.0244 -1.6740 -0.7734
14685SOL    HW252834   5.121  -0.000   1.056  0.9083  0.2785 -0.3697
14686SOL     OW52835   8.553   4.437   0.326  0.5340  0.2646 -0.2883
14686SOL    HW152836   8.649   4.439   0.322  0.4978  0.5722 -1.3968
14686SOL    HW252837   8.526   4.407   0.239 -0.3432 -1.3802  0.5018
14687SOL     OW52838  10.356   2.587   1.598  0.0088  0.0886 -0.4412
14687SOL    HW152839  10.331   2.495   1.596 -1.1220  0.3621  0.4597
14687SOL    HW252840  10.280   2.633   1.562 -0.4935  0.8716  1.5316
14688SOL     OW52841   6.482  10.249   6.322 -0.3970  0.0580 -0.0658
14688SOL    HW152842   6.511  10.338   6.301 -0.3348  0.2513  0.8116
14688SOL    HW252843   6.496  10.200   6.240 -1.7286  1.1495 -0.9931
14689SOL     OW52844   3.432   6.811   7.958  0.0202 -0.4085 -0.2551
14689SOL    HW152845   3.432   6.885   7.897 -0.0242  1.0633  1.4636
14689SOL    HW252846   3.520   6.809   7.993  0.2346 -1.6705 -0.8204
14690SOL     OW52847   1.493   5.169  12.398 -0.4666  0.2956 -0.1412
14690SOL    HW152848   1.411   5.133  12.363 -0.2374 -0.0870 -0.2870
14690SOL    HW252849   1.552   5.095  12.402 -0.6842  0.1765  1.6850
14691SOL     OW52850   4.342   5.866   8.585  0.1935 -0.0973  0.7462
14691SOL    HW152851   4.345   5.955   8.619 -3.0922 -0.1787  1.6617
14691SOL    HW252852   4.326   5.811   8.662  0.3906 -1.2715 -0.0132
14692SOL     OW52853   0.572   9.439   6.943 -0.2054 -0.3433 -0.1252
14692SOL    HW152854   0.571   9.483   6.857  0.3316  0.2840  0.1802
14692SOL    HW252855   0.561   9.346   6.922 -3.0504  0.0191 -0.6870
14693SOL     OW52856   0.122   2.884   0.685  0.0505  0.5192 -0.4167
14693SOL    HW152857   0.035   2.876   0.646 -0.2376 -0.7631  0.4300
14693SOL    HW252858   0.148   2.794   0.703 -0.0107  1.0227  2.7058
14694SOL     OW52859   0.917   0.795  10.357  0.3725  0.4164 -0.5389
14694SOL    HW152860   0.883   0.712  10.325 -0.5835  0.1587  1.0706
14694SOL    HW252861   0.840   0.851  10.366  0.6647  0.6463  0.7476
14695SOL     OW52862   4.634   0.401   9.290 -0.8051  0.2475 -0.2754
14695SOL    HW152863   4.626   0.355   9.207  1.3698  0.1762 -0.4973
14695SOL    HW252864   4.695   0.472   9.273  0.4169 -0.3036  1.4304
14696SOL     OW52865  10.163   7.313  11.259 -0.8625 -0.3945  0.1636
14696SOL    HW152866  10.076   7.352  11.264 -0.2322  1.0736  0.3896
14696SOL    HW252867  10.199   7.349  11.178  0.6232  1.5105  1.5688
14697SOL     OW52868   2.617   7.652   6.433  0.1529 -0.6850 -0.0805
14697SOL    HW152869   2.526   7.625   6.444  0.1737 -1.8093 -2.1459
14697SOL    HW252870   2.613   7.728   6.375  0.5441 -1.5839 -1.3490
14698SOL     OW52871   1.138   1.936  12.605  0.0674  0.3922 -0.2184
14698SOL    HW152872   1.115   1.958  12.515 -1.0843  0.6814  0.1415
14698SOL    HW252873   1.180   2.014  12.639  2.2157 -0.3190 -1.0456
14699SOL     OW52874   2.531   1.196   7.134  0.3259 -0.1612 -1.1317
14699SOL    HW152875   2.512   1.255   7.061 -1.5353  0.0115 -0.5456
14699SOL    HW252876   2.482   1.116   7.114 -2.4666  0.8092  1.1116
14700SOL     OW52877   3.059   3.602   1.375 -0.0975 -0.4424  0.0265
14700SOL    HW152878   3.094   3.521   1.338  2.0247  0.1860  0.5661
14700SOL    HW252879   3.083   3.669   1.311  0.2443  0.0936  0.7089
14701SOL     OW52880   4.640  11.524   2.757  0.1699 -0.3370  0.0821
14701SOL    HW152881   4.615  11.562   2.673 -2.2465 -0.9764  0.4106
14701SOL    HW252882   4.588  11.573   2.821  0.6408 -1.0131  1.0056
14702SOL     OW52883   3.662   7.009   4.502 -0.2809  1.3315  0.5707
14702SOL    HW152884   3.584   6.992   4.556 -0.2646  0.7569  0.4265
14702SOL    HW252885   3.734   7.015   4.565 -0.2513  0.5860  0.6187
14703SOL     OW52886   9.387   9.245   6.086 -0.8054 -0.3319 -0.2636
14703SOL    HW152887   9.416   9.245   5.994  0.4595 -0.8241  0.1159
14703SOL    HW252888   9.426   9.167   6.124  1.0823  1.2775  1.3886
14704SOL     OW52889   5.219   2.446   2.467  0.2880 -0.6633 -0.5012
14704SOL    HW152890   5.306   2.486   2.463  0.8358 -1.6625  0.7731
14704SOL    HW252891   5.216   2.387   2.392  0.5571 -0.3323 -0.7760
14705SOL     OW52892   6.662   6.205   1.066  0.3951  0.9906  0.1373
14705SOL    HW152893   6.583   6.160   1.035  0.5042  0.2777  0.8617
14705SOL    HW252894   6.672   6.280   1.007 -0.2403  0.5061 -0.5954
14706SOL     OW52895  11.074   9.252   1.601  0.6275  0.2090  1.2117
14706SOL    HW152896  11.013   9.321   1.627 -1.3044 -0.1796 -1.7347
14706SOL    HW252897  11.115   9.286   1.522 -0.5870 -1.9846 -0.4986
14707SOL     OW52898  10.818   2.865   6.527 -0.3920  0.0659 -0.3810
14707SOL    HW152899  10.756   2.828   6.464 -0.5416  0.3336 -0.3918
14707SOL    HW252900  10.764   2.912   6.590 -0.2409 -0.1663 -0.0736
14708SOL     OW52901   9.241   5.955   4.858 -0.9853  0.0989  0.2717
14708SOL    HW152902   9.252   6.044   4.889 -1.8006  0.6028 -0.8472
14708SOL    HW252903   9.160   5.924   4.899 -0.6252 -0.1909  0.7776
14709SOL     OW52904   9.931   4.863   3.743 -0.2729  0.6714 -0.0558
14709SOL    HW152905   9.921   4.798   3.812 -0.1330  0.0896 -0.5738
14709SOL    HW252906   9.842   4.883   3.715 -0.4055  1.7756  1.0661
14710SOL     OW52907   2.243   7.015   6.590 -0.0915 -0.7617  0.4722
14710SOL    HW152908   2.149   7.001   6.579  0.0740 -1.4231 -0.2734
14710SOL    HW252909   2.251   7.078   6.661 -1.1029 -0.5894  0.4392
14711SOL     OW52910   7.423   5.405   5.382 -0.0493  0.5355  0.2196
14711SOL    HW152911   7.428   5.493   5.420  1.0853 -0.3825  2.3684
14711SOL    HW252912   7.500   5.400   5.326  0.0515  0.8113  0.3277
14712SOL     OW52913   6.038   3.297   2.382  0.0536  0.0677 -0.2603
14712SOL    HW152914   6.131   3.321   2.375 -0.3157  1.4691 -0.6993
14712SOL    HW252915   5.993   3.360   2.327 -1.3544  0.6731  1.4842
14713SOL     OW52916   5.528   7.806   0.666 -0.1037 -0.2428  0.6399
14713SOL    HW152917   5.548   7.712   0.662 -1.1198 -0.4244 -1.2404
14713SOL    HW252918   5.605   7.848   0.628 -0.7861 -0.5591 -1.2225
14714SOL     OW52919  12.521   3.581   1.412 -0.2513 -0.2158  0.1109
14714SOL    HW152920  12.548   3.643   1.345 -0.6696  0.2976  0.4081
14714SOL    HW252921  12.575   3.504   1.397 -0.4642 -0.1702 -0.9191
14715SOL     OW52922   1.144   6.421   7.696 -0.4969  0.2229 -0.5067
14715SOL    HW152923   1.074   6.374   7.741 -0.0763  0.1102  0.0371
14715SOL    HW252924   1.173   6.488   7.757 -0.1296  0.2711 -0.7269
14716SOL     OW52925   6.459   6.161  12.396 -0.3520  0.2149 -0.2550
14716SOL    HW152926   6.472   6.066  12.394 -0.5935  0.1863 -0.6125
14716SOL    HW252927   6.407   6.176  12.474 -0.8118 -0.0145 -0.5116
14717SOL     OW52928  11.432   4.428   4.975 -0.6199  0.1741  0.1525
14717SOL    HW152929  11.516   4.457   4.940 -0.4418  0.0638  0.4765
14717SOL    HW252930  11.374   4.425   4.900  0.4374 -2.6936 -0.7122
14718SOL     OW52931   2.328   8.656   9.354  0.5503 -0.0319  0.2591
14718SOL    HW152932   2.297   8.616   9.435  0.5080  1.6082  1.1023
14718SOL    HW252933   2.316   8.750   9.368  0.9130  0.3055 -1.5070
14719SOL     OW52934   4.073   2.803   5.308  0.2450 -0.3595 -0.1464
14719SOL    HW152935   4.085   2.736   5.375 -0.4229  0.2871  0.6443
14719SOL    HW252936   3.980   2.824   5.311 -0.2623 -1.7671 -2.7190
14720SOL     OW52937  10.766   1.940   7.833  0.4077 -0.3728  0.1959
14720SOL    HW152938  10.672   1.958   7.835  0.5840  0.6066  0.1723
14720SOL    HW252939  10.807   2.025   7.849  1.3165 -0.1316 -2.7789
14721SOL     OW52940   7.653   2.147   4.379 -0.5602 -0.6407 -0.5804
14721SOL    HW152941   7.635   2.119   4.468 -0.9097 -0.3652 -0.5640
14721SOL    HW252942   7.670   2.065   4.331 -1.8111 -0.9111 -0.5897
14722SOL     OW52943   2.806   3.672   8.764  0.1412  0.0708 -0.9204
14722SOL    HW152944   2.813   3.577   8.758 -0.7273 -0.0404 -0.4768
14722SOL    HW252945   2.852   3.705   8.687  0.1709 -0.7210 -1.2537
14723SOL     OW52946   5.654   2.415   9.114  0.0563  0.2156 -0.1155
14723SOL    HW152947   5.681   2.355   9.183 -2.1547 -1.3235 -0.5100
14723SOL    HW252948   5.592   2.475   9.156  0.1491  0.4853 -0.3515
14724SOL     OW52949   2.398   3.660   8.246 -0.0216 -0.2758  0.3553
14724SOL    HW152950   2.488   3.665   8.278 -0.0571  0.2451  0.3688
14724SOL    HW252951   2.345   3.701   8.314 -0.2931 -0.7204  0.4197
14725SOL     OW52952   7.720  11.581  10.632  0.0078 -0.9635  0.2437
14725SOL    HW152953   7.664  11.614  10.561 -0.4784 -0.8805  0.6583
14725SOL    HW252954   7.777  11.654  10.654 -0.7323 -0.5480  0.8237
14726SOL     OW52955   7.027   5.917   8.298 -0.1030 -0.2228  0.0584
14726SOL    HW152956   7.103   5.892   8.352  1.1157  0.7181 -1.1403
14726SOL    HW252957   6.992   5.995   8.341 -1.2956 -1.4233  1.3911
14727SOL     OW52958   0.583   5.869   3.808 -0.2015 -0.4555 -0.3329
14727SOL    HW152959   0.564   5.781   3.775 -1.0183 -0.8311  1.0444
14727SOL    HW252960   0.534   5.875   3.890 -1.2846  1.7792 -1.0478
14728SOL     OW52961   1.281  12.070  10.983 -0.3261 -0.3161  0.1331
14728SOL    HW152962   1.327  11.993  11.014  1.2207  0.2184 -0.7394
14728SOL    HW252963   1.263  12.121  11.062  1.6247  0.0089  0.4150
14729SOL     OW52964   9.688  10.297   2.616  0.5740  0.1830 -0.3524
14729SOL    HW152965   9.724  10.329   2.533 -1.1793 -0.5161 -1.4458
14729SOL    HW252966   9.702  10.203   2.614 -0.2410  0.0503 -0.2814
14730SOL     OW52967   3.415   0.365   2.341 -0.1816  0.0397  0.1306
14730SOL    HW152968   3.504   0.378   2.373  1.2165  0.9033 -3.5550
14730SOL    HW252969   3.381   0.453   2.328 -0.0397 -0.1696 -2.0204
14731SOL     OW52970  10.944   5.143   3.815  0.2048  0.3735 -0.3979
14731SOL    HW152971  10.922   5.155   3.722 -1.0364  0.0672 -0.1633
14731SOL    HW252972  10.892   5.068   3.842 -1.0729  1.6903  1.0471
14732SOL     OW52973   0.766  12.598   1.947  0.3598  0.1501  0.1107
14732SOL    HW152974   0.858  12.583   1.926  0.3750  1.3910 -0.7597
14732SOL    HW252975   0.717  12.548   1.881  0.3895 -0.6362  0.6675
14733SOL     OW52976   6.724   4.446   0.180 -0.0059 -0.4611  0.6312
14733SOL    HW152977   6.714   4.370   0.236 -0.6809 -0.5231  0.4349
14733SOL    HW252978   6.759   4.412   0.098 -0.2924 -0.5639  0.5491
14734SOL     OW52979   3.351   0.975  11.009 -0.2975  0.2845 -0.2509
14734SOL    HW152980   3.263   0.981  11.048 -1.1567 -0.5070 -1.9616
14734SOL    HW252981   3.339   1.004  10.919  1.0773 -0.5133 -0.7147
14735SOL     OW52982   5.871   2.396   3.297  0.0412 -0.4913  0.3014
14735SOL    HW152983   5.786   2.403   3.341  0.3561  0.4958  0.7998
14735SOL    HW252984   5.925   2.462   3.340  0.9372 -0.8103 -0.3024
14736SOL     OW52985   1.902   6.913   8.909  0.0277 -0.0017 -0.3593
14736SOL    HW152986   1.848   6.986   8.940 -1.5198 -1.5350  0.6756
14736SOL    HW252987   1.885   6.909   8.814 -1.2846 -0.1354 -0.1322
14737SOL     OW52988  11.911   5.267   6.436 -0.7097 -0.1972  0.2841
14737SOL    HW152989  11.966   5.190   6.450 -0.4493 -0.0869 -0.1205
14737SOL    HW252990  11.881   5.291   6.524  0.2547  0.0166  0.5673
14738SOL     OW52991   5.561   7.048  12.476 -0.3668  0.0640  0.1225
14738SOL    HW152992   5.618   7.124  12.462  0.8168 -0.6672  0.8197
14738SOL    HW252993   5.479   7.072  12.433 -0.7305  2.5696  1.9438
14739SOL     OW52994   6.430  10.889  10.898 -0.1858  1.0036  0.1144
14739SOL    HW152995   6.514  10.862  10.862 -0.7112  0.4594 -0.7428
14739SOL    HW252996   6.438  10.983  10.912 -0.1620  1.3789 -2.0603
14740SOL     OW52997   1.673   7.394   1.280 -0.3722 -0.2960 -0.2979
14740SOL    HW152998   1.649   7.430   1.194 -1.3084  0.8344  0.4096
14740SOL    HW252999   1.602   7.421   1.338  0.6959 -0.2792  1.0360
14741SOL     OW53000  12.076   4.429   7.654 -0.2221 -0.5422 -0.0492
14741SOL    HW153001  11.981   4.436   7.653 -0.5680 -3.3065  2.0539
14741SOL    HW253002  12.105   4.499   7.712 -1.0587 -0.3576  0.1523
14742SOL     OW53003   5.777   4.902   5.988 -0.0128 -0.0565 -0.2424
14742SOL    HW153004   5.847   4.903   5.923  0.0031 -0.1004 -0.2260
14742SOL    HW253005   5.721   4.828   5.961 -0.2972  0.2496 -0.5150
14743SOL     OW53006  12.298   4.595   6.438 -0.3115 -0.1818 -0.6502
14743SOL    HW153007  12.333   4.597   6.527  0.2099  0.8764 -0.8660
14743SOL    HW253008  12.368   4.553   6.387 -1.0818 -1.8732 -0.3908
14744SOL     OW53009   3.479   8.680   2.473 -0.5469 -0.1596 -0.1567
14744SOL    HW153010   3.451   8.679   2.382  0.0739 -0.7425 -0.3469
14744SOL    HW253011   3.466   8.591   2.504  1.9722 -0.7440 -0.5437
14745SOL     OW53012   1.691  12.590   0.579 -0.8343 -0.7222 -0.4054
14745SOL    HW153013   1.739  12.563   0.500  2.4450  0.1405  1.1211
14745SOL    HW253014   1.692  12.512   0.635  0.5299 -0.2027  0.3522
14746SOL     OW53015  12.352   7.758  11.294 -0.0800 -0.4505 -0.3522
14746SOL    HW153016  12.434   7.749  11.246  0.2730  0.2110  0.1098
14746SOL    HW253017  12.340   7.675  11.339  0.5096 -0.4272 -0.1525
14747SOL     OW53018   2.812   0.251   9.885  0.7125  0.3025 -0.3911
14747SOL    HW153019   2.893   0.300   9.898  0.8659  0.2383 -1.0697
14747SOL    HW253020   2.834   0.161   9.907  1.2997 -0.0290 -2.1750
14748SOL     OW53021   7.050  12.358   9.574 -0.0534  0.5378 -0.3183
14748SOL    HW153022   7.043  12.439   9.524 -0.7906  1.5520  1.3411
14748SOL    HW253023   7.087  12.385   9.658  1.2138 -1.1181 -0.2893
14749SOL     OW53024   0.650   6.790   8.016  0.4221 -0.3799  0.9972
14749SOL    HW153025   0.709   6.762   7.946  1.1049  1.5119  0.7610
14749SOL    HW253026   0.582   6.841   7.972  0.1924 -0.1646  1.5902
14750SOL     OW53027  12.254  11.260   4.497 -0.2893 -0.0420  0.5179
14750SOL    HW153028  12.254  11.355   4.489 -2.0819  0.2233  2.8376
14750SOL    HW253029  12.294  11.243   4.582  0.1939 -1.4061  0.0478
14751SOL     OW53030   2.698  12.577   3.984  0.8090 -0.1267 -0.2618
14751SOL    HW153031   2.681  12.562   3.891  4.4220 -0.2207 -1.0252
14751SOL    HW253032   2.697  12.672   3.994 -1.0807 -0.1270  0.0267
14752SOL     OW53033   9.441   1.215   4.737  0.2444  0.0062  0.2275
14752SOL    HW153034   9.358   1.252   4.707  0.0106  0.2256  1.1025
14752SOL    HW253035   9.415   1.143   4.795  0.6514  0.2055  0.6660
14753SOL     OW53036   5.948  10.680   6.401  0.4759  0.2005  0.7218
14753SOL    HW153037   5.977  10.718   6.318 -2.2169 -0.7087 -0.7726
14753SOL    HW253038   6.022  10.693   6.461  2.1869  1.6975 -1.5388
14754SOL     OW53039   6.869  11.737   3.440  0.2726 -0.2073  0.0262
14754SOL    HW153040   6.785  11.781   3.425  0.1291 -0.8739 -1.3220
14754SOL    HW253041   6.860  11.697   3.526 -0.7865 -0.2429 -0.0886
14755SOL     OW53042  11.996   2.124   9.214 -0.2450  0.3476  0.3292
14755SOL    HW153043  12.081   2.100   9.253 -0.1672 -0.7786 -0.4907
14755SOL    HW253044  12.016   2.199   9.158 -0.0804  1.0242  1.2638
14756SOL     OW53045   1.214   3.062  11.387  0.0683 -0.1264  0.0380
14756SOL    HW153046   1.136   3.009  11.372 -0.4368  0.8307 -0.8582
14756SOL    HW253047   1.216   3.075  11.482 -1.3722  0.5564  0.0048
14757SOL     OW53048  11.033   2.941   6.365  0.2780  0.1369 -0.3971
14757SOL    HW153049  11.010   2.888   6.289  0.3423  1.4686 -1.3817
14757SOL    HW253050  10.974   2.910   6.434  1.3536 -2.2568 -0.4383
14758SOL     OW53051   6.944   7.951   9.973 -0.4519 -0.0637  0.1883
14758SOL    HW153052   6.983   7.878   9.925  1.0150  1.3961 -0.9556
14758SOL    HW253053   6.946   7.923  10.065 -1.4311 -2.0839 -0.3310
14759SOL     OW53054   2.596   6.705  12.218  0.0665 -0.2759  0.7531
14759SOL    HW153055   2.538   6.769  12.259  2.0193  1.3442  1.1321
14759SOL    HW253056   2.567   6.700  12.127 -2.3324 -1.5747  1.5102
14760SOL     OW53057   5.643   1.906   2.940  0.6343 -0.2728 -0.6551
14760SOL    HW153058   5.557   1.911   2.899 -0.0008 -0.4246  0.6163
14760SOL    HW253059   5.656   1.812   2.956  0.2287 -0.1130  0.7579
14761SOL     OW53060   0.464   8.382   5.580 -0.6014 -0.3766  0.3328
14761SOL    HW153061   0.420   8.322   5.519 -1.0895  0.1848  0.1224
14761SOL    HW253062   0.412   8.462   5.576  0.3674  0.2564  0.1907
14762SOL     OW53063   2.293  11.705   5.945  0.4146 -0.2208  0.8123
14762SOL    HW153064   2.330  11.793   5.958  1.4409 -0.5031 -0.0522
14762SOL    HW253065   2.340  11.650   6.008  0.7583 -0.3939  0.4082
14763SOL     OW53066   6.837  12.321   0.399 -0.3827 -0.1950  0.8517
14763SOL    HW153067   6.795  12.236   0.414 -0.0406 -0.3175  1.1175
14763SOL    HW253068   6.920  12.315   0.446 -0.4474  0.3633  1.0365
14764SOL     OW53069   0.488   2.587   0.006  0.0484  0.1201 -0.1297
14764SOL    HW153070   0.430   2.596   0.083 -0.0283 -0.4185 -0.1202
14764SOL    HW253071   0.431   2.606  -0.069  0.0027  0.1648 -0.0846
14765SOL     OW53072   9.850   9.361   5.876 -0.1142 -0.1356 -0.3640
14765SOL    HW153073   9.876   9.370   5.784 -0.8750 -0.1816 -0.5841
14765SOL    HW253074   9.932   9.341   5.921  0.2641 -0.1435 -1.0348
14766SOL     OW53075  11.441   0.413   0.379  0.3801 -0.1003 -0.1150
14766SOL    HW153076  11.461   0.503   0.405  0.3059 -0.4543  1.2872
14766SOL    HW253077  11.347   0.404   0.394  0.4278 -0.4709 -0.0092
14767SOL     OW53078   6.179   7.691  11.032  0.2912  0.3096 -0.0928
14767SOL    HW153079   6.119   7.684  10.957 -0.4666 -0.4840  0.5609
14767SOL    HW253080   6.235   7.613  11.026  0.8715  0.7436 -0.3690
14768SOL     OW53081   3.908  10.236   8.052 -0.4109  0.3248  0.2256
14768SOL    HW153082   3.959  10.169   8.098 -0.1747  0.7184  0.5453
14768SOL    HW253083   3.827  10.244   8.102 -0.4631  0.2421  0.1557
14769SOL     OW53084   7.535   1.065   8.438 -0.1597 -0.5269 -0.3674
14769SOL    HW153085   7.607   1.127   8.451  0.0018 -0.7782 -0.0567
14769SOL    HW253086   7.488   1.066   8.521 -0.0705 -0.9328 -0.3127
14770SOL     OW53087   1.226   3.111  11.676 -0.3597 -0.2332  0.1031
14770SOL    HW153088   1.200   3.203  11.664 -1.2976 -0.6531 -1.3726
14770SOL    HW253089   1.146   3.067  11.705 -0.2923 -0.8108 -0.5518
14771SOL     OW53090   5.088   7.414  12.404  0.0989  0.2095  0.3113
14771SOL    HW153091   5.063   7.323  12.415  0.2748  0.1349  0.1030
14771SOL    HW253092   5.181   7.417  12.428  0.3185  0.1660 -0.5004
14772SOL     OW53093   3.163  11.766   7.688 -0.1375  0.0107  0.2264
14772SOL    HW153094   3.070  11.781   7.676  0.2402  0.9008 -2.0464
14772SOL    HW253095   3.173  11.752   7.782 -2.3885  0.9955  0.6748
14773SOL     OW53096  10.299   9.148  12.124 -0.8319  0.5347  0.3513
14773SOL    HW153097  10.325   9.059  12.100  0.7812  0.9884  0.2764
14773SOL    HW253098  10.263   9.139  12.212 -0.4502 -0.1637  0.4428
14774SOL     OW53099  11.282   5.971   9.216 -0.0294  0.7155  0.5281
14774SOL    HW153100  11.293   5.879   9.193 -0.2475  0.5656  1.0088
14774SOL    HW253101  11.253   6.013   9.134 -1.1641  0.1249  0.5970
14775SOL     OW53102   1.366   4.763   6.400  0.2975  0.1734 -0.3753
14775SOL    HW153103   1.327   4.686   6.359  0.3245 -0.7312  1.1955
14775SOL    HW253104   1.460   4.754   6.383  0.2027  0.3874 -1.0260
14776SOL     OW53105   2.398   6.515  11.709  0.3277  0.0590 -0.7686
14776SOL    HW153106   2.312   6.473  11.713  0.6421 -0.6223 -1.0830
14776SOL    HW253107   2.380   6.608  11.727 -0.4874 -0.0555 -0.9532
14777SOL     OW53108  10.473  11.163  10.164  0.5499  0.5136 -0.3802
14777SOL    HW153109  10.533  11.142  10.236 -2.3946 -2.9465  1.4154
14777SOL    HW253110  10.427  11.242  10.193 -0.5376 -0.7713  1.7128
14778SOL     OW53111  12.335   3.538  11.325  0.0555  0.7008  0.5476
14778SOL    HW153112  12.382   3.520  11.406 -2.6652  1.9140  2.5793
14778SOL    HW253113  12.290   3.456  11.304 -0.4920  0.8217  1.2145
14779SOL     OW53114  11.030   8.678   5.019 -0.0755 -0.9747 -0.2735
14779SOL    HW153115  11.081   8.598   5.033 -0.4584 -1.1750 -0.0031
14779SOL    HW253116  10.939   8.648   5.017 -0.1199 -0.8909 -2.5748
14780SOL     OW53117   0.824  10.222   1.085  0.7585  0.1308 -0.4620
14780SOL    HW153118   0.824  10.317   1.075  0.8801  0.7377  3.8138
14780SOL    HW253119   0.900  10.203   1.140  1.0644 -2.5705 -1.6470
14781SOL     OW53120   8.191  10.515   6.029 -0.2255 -0.6106  0.7268
14781SOL    HW153121   8.110  10.502   6.079 -2.0791 -0.1483 -1.9500
14781SOL    HW253122   8.183  10.455   5.955  1.1938  0.4865 -0.3620
14782SOL     OW53123  12.181   1.744   2.063 -0.0210 -0.2492  0.0726
14782SOL    HW153124  12.264   1.746   2.111  0.1412  1.4020 -0.1904
14782SOL    HW253125  12.122   1.800   2.114 -0.2739  0.3953 -0.8859
14783SOL     OW53126  10.319  12.587   0.695 -0.0822  0.6301 -0.1366
14783SOL    HW153127  10.245  12.533   0.667 -0.0867  0.0088  1.0013
14783SOL    HW253128  10.302  12.605   0.788  1.2377  0.3820  0.1743
14784SOL     OW53129   7.986   7.767   1.276 -0.1151  0.3540 -0.1782
14784SOL    HW153130   7.985   7.690   1.333 -2.3575  0.0775 -0.4814
14784SOL    HW253131   8.057   7.821   1.309 -2.1226  0.9048  3.9160
14785SOL     OW53132   5.457   1.368  10.719  0.4212  0.8494  0.5622
14785SOL    HW153133   5.461   1.326  10.633 -1.7346 -0.0831  0.8374
14785SOL    HW253134   5.466   1.295  10.781 -1.0051  1.0657  1.0635
14786SOL     OW53135   4.970  11.809   4.686 -0.0042 -0.5895 -0.2880
14786SOL    HW153136   4.935  11.814   4.597 -0.3267 -0.3395 -0.1502
14786SOL    HW253137   4.901  11.847   4.740  0.1737 -0.7824  0.0736
14787SOL     OW53138   2.771   4.220   9.213  0.4235  0.2762  0.6989
14787SOL    HW153139   2.825   4.243   9.288  0.2369 -1.3592  1.3749
14787SOL    HW253140   2.698   4.170   9.251  0.0108 -0.0651 -0.5125
14788SOL     OW53141  11.179   4.486   0.941 -0.5045  0.5986 -0.4116
14788SOL    HW153142  11.107   4.449   0.993 -0.1816 -1.4088 -1.2812
14788SOL    HW253143  11.256   4.437   0.970  0.1182  1.2331 -0.9904
14789SOL     OW53144   9.385   0.429   9.852 -0.0290  0.0850  0.3848
14789SOL    HW153145   9.299   0.471   9.842 -0.0271  0.4940  1.7914
14789SOL    HW253146   9.365   0.342   9.887  0.1492  0.7329  2.2234
14790SOL     OW53147   2.639   2.336   2.038  0.0888 -0.6892  0.2563
14790SOL    HW153148   2.546   2.355   2.049  0.5602  0.7628  2.4166
14790SOL    HW253149   2.672   2.409   1.984  0.1767 -0.5739  0.4647
14791SOL     OW53150  12.562   6.328  10.452 -0.3266  0.0702  0.9065
14791SOL    HW153151  12.496   6.370  10.507  0.3310 -0.5296  2.1869
14791SOL    HW253152  12.643   6.375  10.470  0.4640 -1.7458  2.4957
14792SOL     OW53153   7.414   6.719   6.069  0.3185  0.0531  0.8359
14792SOL    HW153154   7.401   6.745   6.161 -2.2904  0.0976  0.5461
14792SOL    HW253155   7.368   6.635   6.062 -1.6976  1.1975 -0.9110
14793SOL     OW53156  11.921   4.606  10.990 -0.0654  0.0120 -0.3482
14793SOL    HW153157  11.886   4.631  10.905  0.6447 -0.8130 -0.9024
14793SOL    HW253158  11.908   4.683  11.045  0.8372  1.1194 -1.6193
14794SOL     OW53159   3.692  11.416   9.911  0.0312  0.7126 -0.2818
14794SOL    HW153160   3.775  11.369   9.915 -0.6329 -0.5274 -0.2907
14794SOL    HW253161   3.703  11.479   9.840  1.2577  1.1984  0.3082
14795SOL     OW53162   4.653  11.955   8.375  0.0734  0.4221 -0.1114
14795SOL    HW153163   4.675  12.017   8.306  0.3559  1.0751  0.5444
14795SOL    HW253164   4.570  11.916   8.348 -0.7104  1.9550  0.0340
14796SOL     OW53165   5.157   1.111  12.033 -0.1185 -0.2765 -0.7325
14796SOL    HW153166   5.176   1.200  12.001 -1.9301  2.0985  3.8374
14796SOL    HW253167   5.195   1.109  12.121 -1.3723 -3.5700 -0.1451
14797SOL     OW53168   3.159   0.012   9.671  0.2831 -0.3258 -0.3963
14797SOL    HW153169   3.096   0.078   9.643  1.4995  1.5358  1.0315
14797SOL    HW253170   3.147   0.005   9.765 -0.4194 -2.8743 -0.6074
14798SOL     OW53171   3.932   7.145   4.719 -0.4487 -1.0883 -0.1272
14798SOL    HW153172   3.935   7.096   4.801 -1.0030 -0.3824  0.3371
14798SOL    HW253173   3.966   7.085   4.653  1.4012 -1.1872  0.8515
14799SOL     OW53174   2.645  10.532   3.401 -0.1889 -0.0967 -0.6492
14799SOL    HW153175   2.576  10.537   3.467 -0.0870  0.3034 -0.5728
14799SOL    HW253176   2.606  10.482   3.330  0.1776 -1.8192  0.3074
14800SOL     OW53177   1.454   3.744   3.988 -0.5387  0.0357  0.0443
14800SOL    HW153178   1.387   3.795   4.033  0.6210 -0.8402  3.0878
14800SOL    HW253179   1.522   3.730   4.055  0.5840 -2.9002 -1.4902
14801SOL     OW53180   6.979   2.516  10.099  0.6493 -0.0639  0.2950
14801SOL    HW153181   6.962   2.507  10.005  1.8078  1.9711 -0.1832
14801SOL    HW253182   7.056   2.461  10.115  1.8107  1.2444 -0.4837
14802SOL     OW53183   1.847   7.511  10.709  0.2730 -0.0591 -0.3007
14802SOL    HW153184   1.767   7.511  10.762 -0.7289 -0.5739 -1.7607
14802SOL    HW253185   1.909   7.565  10.759 -1.1075  0.6699  0.6823
14803SOL     OW53186   5.166   9.237   0.368  0.3148 -0.0069 -0.3418
14803SOL    HW153187   5.167   9.327   0.336 -0.2816  0.5821  1.2330
14803SOL    HW253188   5.158   9.184   0.289  1.8251  1.2516 -1.3978
14804SOL     OW53189   1.957   7.209   4.341 -0.4632  0.0620  0.1672
14804SOL    HW153190   2.028   7.214   4.405  0.7511  1.8340 -1.1924
14804SOL    HW253191   1.933   7.301   4.326 -0.5671 -0.2754 -2.0259
14805SOL     OW53192  12.507   2.678   6.052 -0.3920 -0.5521 -0.2054
14805SOL    HW153193  12.491   2.587   6.026 -2.4683 -0.3300  0.1201
14805SOL    HW253194  12.449   2.693   6.126 -0.7975  1.2958 -0.8261
14806SOL     OW53195   1.896  10.038   8.272 -0.1648  0.0048 -0.7026
14806SOL    HW153196   1.857   9.954   8.246 -1.0323  0.5315 -1.1559
14806SOL    HW253197   1.950  10.017   8.348  0.8475 -1.2218 -1.7166
14807SOL     OW53198  12.304   3.818   9.033  0.7995 -0.5388 -0.3009
14807SOL    HW153199  12.310   3.909   9.060 -1.2616 -0.5732  0.4840
14807SOL    HW253200  12.288   3.770   9.114 -1.4114 -1.1567 -1.0329
14808SOL     OW53201   4.288   3.642   1.689 -0.1477  0.2499 -0.2260
14808SOL    HW153202   4.227   3.579   1.727 -1.7658  2.3964  0.9077
14808SOL    HW253203   4.289   3.620   1.595 -0.7259 -1.3661  0.1048
14809SOL     OW53204   7.518   8.093   4.293  0.1376 -0.2979 -0.0809
14809SOL    HW153205   7.483   8.044   4.367 -0.7203  1.9825  1.1152
14809SOL    HW253206   7.481   8.050   4.216 -3.6838  0.6275  1.0277
14810SOL     OW53207   9.995  11.832  12.372  0.0971  0.2179  0.4501
14810SOL    HW153208   9.900  11.823  12.384 -0.0745 -1.6052 -1.7497
14810SOL    HW253209  10.029  11.837  12.462 -2.1915  3.2965  1.3041
14811SOL     OW53210   8.477   3.642   9.722  0.0220 -0.4985 -0.1433
14811SOL    HW153211   8.432   3.690   9.652 -0.8628  0.6287  1.1324
14811SOL    HW253212   8.514   3.566   9.679  1.1341  1.1097 -2.1981
14812SOL     OW53213   4.186   1.792   7.663 -0.1208  0.5792  0.0735
14812SOL    HW153214   4.106   1.761   7.706 -2.0284  1.7994 -2.3370
14812SOL    HW253215   4.183   1.887   7.674 -0.5259  0.9103 -2.3130
14813SOL     OW53216   9.294   7.141   4.660  0.7385 -0.2883  0.0795
14813SOL    HW153217   9.241   7.185   4.727  0.6644 -0.4622  0.1358
14813SOL    HW253218   9.353   7.084   4.710  1.4347  0.3934  0.0539
14814SOL     OW53219   4.378   3.386  11.953 -0.2314  0.0882 -0.3458
14814SOL    HW153220   4.292   3.352  11.978 -0.0272 -0.6186 -0.5487
14814SOL    HW253221   4.360   3.461  11.897 -0.7291 -0.4144 -0.8645
14815SOL     OW53222   6.555   2.174   7.136  0.1076 -0.2795 -0.1504
14815SOL    HW153223   6.583   2.123   7.060 -0.2435  0.7808 -1.0130
14815SOL    HW253224   6.502   2.113   7.187  0.3321 -1.0087 -0.7684
14816SOL     OW53225   7.987   2.164   1.639 -0.3298  0.1800  0.1327
14816SOL    HW153226   7.996   2.145   1.733 -0.2723  0.9707  0.2912
14816SOL    HW253227   7.998   2.258   1.633  1.3114 -0.0431 -0.8627
14817SOL     OW53228   1.906   8.005   0.873 -0.6267  0.7227  0.3745
14817SOL    HW153229   1.905   7.977   0.781 -0.1887  1.1886  0.2281
14817SOL    HW253230   1.980   7.958   0.912 -1.0460  0.2271  0.5877
14818SOL     OW53231   1.268   9.623   7.652  0.1531  0.2456  0.1313
14818SOL    HW153232   1.222   9.558   7.705  1.2993  0.7700  1.8683
14818SOL    HW253233   1.207   9.697   7.645  0.1464  0.3505  1.1483
14819SOL     OW53234  10.831   9.487  11.017 -0.1491  0.0790 -0.5411
14819SOL    HW153235  10.893   9.432  10.970  1.8100  0.9820  0.8524
14819SOL    HW253236  10.747   9.441  11.010  1.1296 -2.3862 -0.5134
14820SOL     OW53237   7.893   6.677   3.956  0.2412 -0.5040 -0.6437
14820SOL    HW153238   7.927   6.669   3.867 -0.7093 -0.4521 -1.0305
14820SOL    HW253239   7.969   6.701   4.009  0.6226  0.5347 -1.6192
14821SOL     OW53240  10.474   8.554   4.730  0.4787 -0.0953  0.3894
14821SOL    HW153241  10.392   8.599   4.748  0.9478  0.8156  0.2983
14821SOL    HW253242  10.456   8.503   4.651  0.9473  2.8403 -1.7962
14822SOL     OW53243  11.844   1.500  11.390 -0.4944 -0.1851 -0.6345
14822SOL    HW153244  11.834   1.595  11.393  0.6243 -0.0817  1.5425
14822SOL    HW253245  11.754   1.466  11.394 -0.8405  0.7849  0.2636
14823SOL     OW53246   3.458   9.803   2.454 -0.0093  0.2230  0.4594
14823SOL    HW153247   3.522   9.855   2.502  1.0937 -0.1453 -0.5350
14823SOL    HW253248   3.461   9.717   2.495 -0.2072  0.3291  0.7004
14824SOL     OW53249   0.554   2.536   4.155  0.0224 -0.0142  0.3589
14824SOL    HW153250   0.460   2.549   4.168 -0.7099 -1.3673 -2.7139
14824SOL    HW253251   0.575   2.461   4.210 -1.3610 -1.4223 -0.9489
14825SOL     OW53252   4.403   0.891  11.721  0.6028  0.5654 -0.0418
14825SOL    HW153253   4.333   0.828  11.707  0.9233  0.3757 -0.8164
14825SOL    HW253254   4.378   0.967  11.669  0.7654  0.6565  0.0118
14826SOL     OW53255  11.651   1.226   1.323 -0.4213 -0.0897  0.6414
14826SOL    HW153256  11.670   1.144   1.278  0.8018  1.3491 -1.6539
14826SOL    HW253257  11.732   1.277   1.317 -0.7299  0.8380  3.1306
14827SOL     OW53258   0.017  12.000   6.987  0.1641  0.5126 -0.3770
14827SOL    HW153259   0.070  11.994   6.908  1.0976 -0.6793  0.3172
14827SOL    HW253260  -0.016  12.090   6.986  1.1055  0.8746 -1.5162
14828SOL     OW53261   2.746   1.803  11.328 -0.4386 -0.4228 -0.4140
14828SOL    HW153262   2.734   1.784  11.235 -0.2655 -0.9218 -0.3434
14828SOL    HW253263   2.723   1.721  11.372  1.2363 -0.7936 -0.1468
14829SOL     OW53264  11.354   7.876   3.235  0.6341 -0.3048  0.1213
14829SOL    HW153265  11.301   7.928   3.174  0.5678 -1.0241 -0.4424
14829SOL    HW253266  11.422   7.937   3.264  0.9697 -0.0869 -1.0626
14830SOL     OW53267   4.153  12.433   8.479  0.6322 -0.4916  0.1183
14830SOL    HW153268   4.073  12.424   8.531 -0.7495  0.7714 -1.6765
14830SOL    HW253269   4.190  12.517   8.505 -1.0125  1.0084 -2.0282
14831SOL     OW53270   8.574   1.952   1.762 -1.4878  0.1985 -0.5458
14831SOL    HW153271   8.571   1.892   1.837 -3.8101 -2.4910 -2.5807
14831SOL    HW253272   8.542   2.035   1.797 -0.3114 -0.2777  1.9070
14832SOL     OW53273   4.271   7.199   2.169  0.1808  0.4639  0.0522
14832SOL    HW153274   4.200   7.235   2.117 -0.2667 -0.5168 -0.0418
14832SOL    HW253275   4.330   7.159   2.106  0.2155  0.2527  0.2167
14833SOL     OW53276   9.495   1.523   2.141 -0.2614 -0.1973  0.4497
14833SOL    HW153277   9.412   1.533   2.094 -0.3556 -1.7563  0.2230
14833SOL    HW253278   9.474   1.548   2.231 -0.8822 -0.1923  0.3129
14834SOL     OW53279   1.221   4.874   6.617  0.3274  0.1712 -0.2618
14834SOL    HW153280   1.270   4.817   6.557 -1.8077 -0.6106 -1.3928
14834SOL    HW253281   1.190   4.946   6.562  0.4077  0.7727  0.4680
14835SOL     OW53282   1.279  10.807   7.391 -0.4254 -0.2597  0.6594
14835SOL    HW153283   1.367  10.776   7.371 -0.0543  0.6999  0.7597
14835SOL    HW253284   1.272  10.797   7.486  0.2523  1.3341  0.8983
14836SOL     OW53285   4.931   6.654   5.699 -0.4195 -0.4732 -0.4652
14836SOL    HW153286   5.001   6.704   5.656 -0.6154  1.0502  0.9011
14836SOL    HW253287   4.877   6.720   5.742  0.2037 -1.8796  2.7914
14837SOL     OW53288   1.765   1.203   2.152  0.3577  0.3352 -0.0612
14837SOL    HW153289   1.690   1.150   2.177 -0.3562  0.8949 -0.9402
14837SOL    HW253290   1.832   1.182   2.217 -0.2028 -0.9455  0.1361
14838SOL     OW53291   9.378   0.564   4.203 -0.2426  0.2605 -0.1172
14838SOL    HW153292   9.333   0.648   4.192 -1.1458 -0.4346 -2.2951
14838SOL    HW253293   9.327   0.518   4.270 -1.4349  0.3902 -0.9013
14839SOL     OW53294   6.051   1.734  11.090 -0.3557 -0.5397  0.1151
14839SOL    HW153295   6.111   1.661  11.107 -0.8321 -1.5195 -2.0310
14839SOL    HW253296   5.994   1.702  11.021 -0.8687  1.7517 -0.6029
14840SOL     OW53297  12.479   4.939   9.887 -0.4137 -0.6333  0.2776
14840SOL    HW153298  12.427   5.001   9.938 -3.5542 -1.3093 -1.7488
14840SOL    HW253299  12.501   4.869   9.948 -0.8369  0.2896  1.5229
14841SOL     OW53300  11.380  11.777   1.241  0.1540 -0.0291  0.3471
14841SOL    HW153301  11.392  11.811   1.330  2.2367 -0.6270  0.3550
14841SOL    HW253302  11.328  11.698   1.252  0.3199 -0.0513  1.0347
14842SOL     OW53303   2.976   0.419  11.516 -0.1968 -0.6492  0.5002
14842SOL    HW153304   2.946   0.362  11.587  1.2694 -1.3715  0.5717
14842SOL    HW253305   3.012   0.496  11.561 -2.9393  0.8258  0.3884
14843SOL     OW53306   1.945   5.387   9.377  0.7474  0.6254 -0.3832
14843SOL    HW153307   1.860   5.371   9.335  1.7528 -2.5585 -1.4962
14843SOL    HW253308   1.943   5.332   9.455  1.8935  0.2320 -0.6209
14844SOL     OW53309   5.548   2.594   6.743 -0.1736 -0.3928  0.1655
14844SOL    HW153310   5.572   2.636   6.661  1.7627 -0.2777  0.7279
14844SOL    HW253311   5.512   2.664   6.797 -0.1618 -0.1742 -0.1131
14845SOL     OW53312   1.786   5.563   3.786 -0.5328 -0.1867 -0.2271
14845SOL    HW153313   1.838   5.643   3.777 -0.2872 -0.3887 -0.6521
14845SOL    HW253314   1.843   5.493   3.752 -1.1127 -0.3976 -0.7958
14846SOL     OW53315   1.277  11.021   3.660 -1.1076  0.1146 -0.1897
14846SOL    HW153316   1.240  11.108   3.676  1.1389  1.1794 -0.3769
14846SOL    HW253317   1.350  11.037   3.600 -0.5506 -1.8837 -0.0960
14847SOL     OW53318   5.802   2.721   6.082  0.4256  0.1033  0.1415
14847SOL    HW153319   5.786   2.642   6.031  0.4700  0.6586 -0.7634
14847SOL    HW253320   5.733   2.782   6.055  0.0151  0.1767  1.2843
14848SOL     OW53321   1.810   5.887   8.751  0.3224 -0.3676 -0.3075
14848SOL    HW153322   1.820   5.836   8.832 -1.8965 -0.0023  0.2445
14848SOL    HW253323   1.863   5.840   8.687  0.3838 -1.9089  0.8234
14849SOL     OW53324   2.445   9.813  10.352  0.3924  0.2678 -0.3008
14849SOL    HW153325   2.362   9.861  10.341 -0.6225 -0.9224  1.6223
14849SOL    HW253326   2.489   9.859  10.424 -0.2136 -1.1026  0.9982
14850SOL     OW53327   3.422  11.521   8.393 -0.3614  0.1352 -0.2745
14850SOL    HW153328   3.334  11.553   8.371 -0.0045  0.8147 -0.7381
14850SOL    HW253329   3.438  11.556   8.481 -1.1859 -1.3299  0.4912
14851SOL     OW53330  10.898   8.472   4.564  0.0720  0.0168  0.0320
14851SOL    HW153331  10.820   8.495   4.613 -0.5899 -1.4127 -0.3023
14851SOL    HW253332  10.968   8.473   4.629 -0.6957 -1.2955  0.9087
14852SOL     OW53333   2.608   4.181   6.285 -0.0809  0.6049  0.4015
14852SOL    HW153334   2.625   4.168   6.192  0.7646 -2.8096  0.8858
14852SOL    HW253335   2.671   4.247   6.312 -0.1279  1.4166 -1.3746
14853SOL     OW53336   1.896   2.164   7.547 -0.0383 -0.9046 -0.0126
14853SOL    HW153337   1.851   2.237   7.504  0.1362 -0.1931  0.9686
14853SOL    HW253338   1.855   2.086   7.511  0.6483 -0.3800 -2.0520
14854SOL     OW53339  12.568   3.292   2.274 -0.0035 -0.3869 -0.0341
14854SOL    HW153340  12.613   3.377   2.268 -0.4666  0.0207  1.8192
14854SOL    HW253341  12.632   3.234   2.315 -0.3370 -0.4278  0.4351
14855SOL     OW53342   2.005   0.912   4.888  0.4787  0.5190 -0.1308
14855SOL    HW153343   2.019   0.921   4.794  0.1396 -0.7924 -0.3258
14855SOL    HW253344   2.040   0.825   4.909 -2.5068 -0.6726  0.3222
14856SOL     OW53345   5.595   9.881   3.068  0.6827  0.4912 -0.0080
14856SOL    HW153346   5.671   9.824   3.079  0.4891  0.3625  0.7650
14856SOL    HW253347   5.615   9.934   2.991  1.1689 -0.1432 -0.3327
14857SOL     OW53348   0.578   4.643   5.336  0.4764  0.3482  0.1529
14857SOL    HW153349   0.564   4.712   5.271  2.6038  1.0600  0.3910
14857SOL    HW253350   0.618   4.689   5.410  1.0842 -1.0107  0.6804
14858SOL     OW53351  10.734   5.570   8.286  0.6528  0.0127  0.6032
14858SOL    HW153352  10.687   5.488   8.271  0.7557  0.0704 -0.1116
14858SOL    HW253353  10.694   5.632   8.225  0.8756  0.3729  0.8183
14859SOL     OW53354   7.528   1.263   1.994 -0.1146  0.0388 -0.0964
14859SOL    HW153355   7.495   1.175   2.010  0.2719 -0.0237  0.3982
14859SOL    HW253356   7.593   1.253   1.924  0.4184 -0.1839  0.4193
14860SOL     OW53357   8.741   0.448  10.006  0.8774  0.2860  0.0087
14860SOL    HW153358   8.708   0.363  10.034  0.1669  0.7878  0.7449
14860SOL    HW253359   8.668   0.486   9.956  1.3379  0.2959 -0.6642
14861SOL     OW53360  10.886   4.823   5.420 -0.1074  0.0089 -0.4476
14861SOL    HW153361  10.870   4.771   5.499 -0.5424  0.6029 -0.1453
14861SOL    HW253362  10.823   4.789   5.356 -2.2221  1.8565  0.5216
14862SOL     OW53363   4.826   8.890  11.686 -0.3388 -0.4273 -0.1844
14862SOL    HW153364   4.811   8.850  11.600  1.3659 -0.0003 -0.7151
14862SOL    HW253365   4.873   8.823  11.735  1.4695  0.4350 -0.6757
14863SOL     OW53366   3.187   9.708   2.465  0.0977  0.7287  0.3914
14863SOL    HW153367   3.264   9.764   2.452  1.0035  0.0439  2.3128
14863SOL    HW253368   3.184   9.694   2.560  1.8620 -4.9568 -0.0018
14864SOL     OW53369  10.330   0.747  10.802 -0.1990  0.3787  0.0380
14864SOL    HW153370  10.408   0.700  10.830 -1.0397 -1.2292 -0.2337
14864SOL    HW253371  10.274   0.750  10.880  0.2303  1.8174  0.3273
14865SOL     OW53372  12.441   0.804   7.967  0.6629 -0.2232  0.3358
14865SOL    HW153373  12.481   0.721   7.943 -1.1777 -0.8354 -0.8262
14865SOL    HW253374  12.419   0.795   8.060  1.2941 -0.6684  0.4443
14866SOL     OW53375   3.997   7.779   0.660 -0.0096 -0.6671 -0.4029
14866SOL    HW153376   3.905   7.759   0.646 -0.6018  1.5443 -0.1429
14866SOL    HW253377   4.014   7.756   0.751  0.0264 -2.0819 -0.7448
14867SOL     OW53378  10.644  10.390   1.291 -0.0618 -0.0845  0.1796
14867SOL    HW153379  10.589  10.370   1.215  0.7028 -1.5460 -0.0403
14867SOL    HW253380  10.704  10.458   1.260 -1.1281  0.8529  0.1408
14868SOL     OW53381   9.833   0.218   2.637 -0.3265 -0.0414  0.1231
14868SOL    HW153382   9.888   0.247   2.709  0.8562 -1.6066 -0.0854
14868SOL    HW253383   9.754   0.185   2.679  0.8005 -1.9674  0.8735
14869SOL     OW53384   8.811   1.522  12.470  0.6010  0.9209  0.0134
14869SOL    HW153385   8.817   1.606  12.515 -2.0879  1.3502 -0.3000
14869SOL    HW253386   8.792   1.545  12.379  0.2465 -0.0264 -0.1604
14870SOL     OW53387   5.374   7.700   4.490 -0.0466  0.1174 -0.0390
14870SOL    HW153388   5.455   7.738   4.456  0.3386 -1.3845 -0.9355
14870SOL    HW253389   5.402   7.622   4.538 -0.9916 -1.6027 -2.0708
14871SOL     OW53390   1.648   9.105   3.499 -0.3222 -0.0596  0.3734
14871SOL    HW153391   1.614   9.035   3.443  0.0667 -2.2770  2.6949
14871SOL    HW253392   1.571   9.137   3.546 -0.3024  0.1666  0.2533
14872SOL     OW53393   8.286   4.448   3.764 -0.1279 -0.0782 -0.1724
14872SOL    HW153394   8.207   4.418   3.719 -0.1049 -0.1002 -0.1978
14872SOL    HW253395   8.261   4.532   3.803  0.0548  0.2659 -0.7872
14873SOL     OW53396  12.298  12.488  12.242 -0.1304 -0.4109  0.0466
14873SOL    HW153397  12.230  12.462  12.179  0.3568 -3.3247  0.5769
14873SOL    HW253398  12.270  12.449  12.325  0.5839  1.1367  1.0703
14874SOL     OW53399   8.649   3.091   1.252  0.6915  0.1741 -0.5689
14874SOL    HW153400   8.725   3.149   1.259  0.2340  0.9085 -1.4939
14874SOL    HW253401   8.605   3.099   1.337  0.9043  0.8001 -0.5171
14875SOL     OW53402   0.516  10.065   8.860 -0.1258 -0.0190  0.7159
14875SOL    HW153403   0.448  10.109   8.809 -0.2299 -0.3036  0.6060
14875SOL    HW253404   0.471  10.033   8.938  0.0307  0.4040  0.9861
14876SOL     OW53405   8.912   1.001   7.941  0.3276  0.4313  0.7510
14876SOL    HW153406   8.926   1.050   8.021  1.1938 -0.3020  1.0649
14876SOL    HW253407   8.822   1.021   7.916  0.5664  1.9598  1.0016
14877SOL     OW53408   7.893   1.916   4.678 -0.2255  0.7558 -0.5561
14877SOL    HW153409   7.883   1.865   4.597 -0.0344  1.4752 -1.0422
14877SOL    HW253410   7.983   1.948   4.676  0.3213 -0.6044  0.7860
14878SOL     OW53411  11.385   1.681   6.743 -0.3863 -0.7676  0.4201
14878SOL    HW153412  11.397   1.620   6.670  2.9156 -0.5688  0.6468
14878SOL    HW253413  11.400   1.767   6.706  1.6609 -0.6820  1.2522
14879SOL     OW53414  10.224   1.727   1.309 -0.2656 -0.1880  0.0254
14879SOL    HW153415  10.182   1.803   1.268 -1.2949 -0.7979 -0.0942
14879SOL    HW253416  10.151   1.678   1.348  0.4506 -0.8122  0.5984
14880SOL     OW53417   1.442  11.087   1.737 -0.1059 -0.0480 -0.1999
14880SOL    HW153418   1.527  11.045   1.721  0.4009  0.2653  1.4658
14880SOL    HW253419   1.392  11.022   1.787 -0.2156  0.3915  0.2698
14881SOL     OW53420  12.521   1.839  11.598  0.4348 -0.1049 -0.1253
14881SOL    HW153421  12.523   1.848  11.502  1.3702 -1.7863 -0.3012
14881SOL    HW253422  12.569   1.915  11.630  1.4601 -0.3168 -1.0799
14882SOL     OW53423   8.821   2.936   8.485  0.2430 -0.3139  0.4606
14882SOL    HW153424   8.780   2.866   8.535  1.3565 -1.8729 -0.7152
14882SOL    HW253425   8.888   2.972   8.543  1.1318 -1.7142  0.3430
14883SOL     OW53426   3.667   1.064   0.237 -0.0793  0.0635  0.1673
14883SOL    HW153427   3.634   1.140   0.285 -0.5866 -0.0601  0.0248
14883SOL    HW253428   3.636   0.989   0.288  0.4454 -0.0478  0.3249
14884SOL     OW53429   6.202   1.504  11.174  0.0290 -0.6827 -0.2285
14884SOL    HW153430   6.162   1.421  11.150 -1.6588 -0.1965  0.7092
14884SOL    HW253431   6.193   1.508  11.270  0.9603  0.1561 -0.1520
14885SOL     OW53432   5.098   7.538   1.153 -0.2327 -0.1784  0.1658
14885SOL    HW153433   5.117   7.588   1.074 -0.5021 -0.2050  0.0862
14885SOL    HW253434   5.177   7.484   1.166 -0.2314 -0.2526 -0.1442
14886SOL     OW53435   0.675   1.261  11.351 -0.0556 -0.0337 -0.0129
14886SOL    HW153436   0.587   1.271  11.385  0.1406 -1.2080  0.8932
14886SOL    HW253437   0.703   1.351  11.331 -0.3469  0.7074  2.5077
14887SOL     OW53438   9.563   4.657  11.869 -0.2254 -0.5191 -0.3160
14887SOL    HW153439   9.641   4.609  11.896  1.4866  1.7420 -0.8947
14887SOL    HW253440   9.566   4.655  11.773 -1.4411 -1.2152 -0.3580
14888SOL     OW53441   9.222   3.600  11.507  0.6295 -0.1919 -0.2893
14888SOL    HW153442   9.148   3.551  11.542  0.8361  0.5364  1.2788
14888SOL    HW253443   9.184   3.684  11.479  0.6743 -0.2738 -0.5973
14889SOL     OW53444   4.295  12.474   7.980  0.1821  0.2588 -0.3634
14889SOL    HW153445   4.229  12.405   7.982  0.8317 -0.3608  2.0624
14889SOL    HW253446   4.378  12.429   7.998  0.7553  1.5277  0.2813
14890SOL     OW53447   1.833  12.289   2.036 -0.2690 -0.1317  0.0711
14890SOL    HW153448   1.770  12.358   2.015  0.3788  0.1688 -0.9491
14890SOL    HW253449   1.913  12.336   2.060  0.7341 -0.4613 -2.3268
14891SOL     OW53450  12.285   4.673   5.828 -0.0199 -0.1510 -0.1426
14891SOL    HW153451  12.222   4.636   5.767 -0.5109  2.7214 -1.5566
14891SOL    HW253452  12.232   4.716   5.895  0.4688  0.0278  0.1370
14892SOL     OW53453   9.133   9.354  11.326 -0.0315 -0.5924  1.0101
14892SOL    HW153454   9.090   9.269  11.340 -0.2013 -0.7440 -0.2740
14892SOL    HW253455   9.226   9.334  11.322 -0.1205 -0.8788 -0.1520
14893SOL     OW53456  11.654   8.965   4.274 -0.6082  0.2681 -0.2982
14893SOL    HW153457  11.595   8.936   4.205 -1.6010  0.5572  0.4027
14893SOL    HW253458  11.666   9.059   4.257 -1.7153  0.5794  0.5066
14894SOL     OW53459   3.057   0.700   4.790  0.3318  0.1156  0.2481
14894SOL    HW153460   3.122   0.650   4.839 -0.1614 -1.5069 -0.6839
14894SOL    HW253461   3.105   0.735   4.715  0.6491  0.9676  0.8346
14895SOL     OW53462   8.370   2.995   3.722  0.2325 -0.1692  0.9928
14895SOL    HW153463   8.412   3.077   3.693  0.4960  0.0017  1.8487
14895SOL    HW253464   8.347   2.951   3.640 -0.5160  1.0578  0.5029
14896SOL     OW53465   1.017   1.460   8.185  1.0258  0.2654 -0.2551
14896SOL    HW153466   1.011   1.369   8.156 -2.8747 -0.1966  1.3970
14896SOL    HW253467   1.072   1.457   8.263  0.3035 -0.8991  0.2422
14897SOL     OW53468   5.793   1.228   0.700 -0.5694 -0.1843  0.4076
14897SOL    HW153469   5.748   1.143   0.699 -0.0515 -0.4556 -0.5046
14897SOL    HW253470   5.850   1.224   0.777  0.5620 -1.2649 -0.4571
14898SOL     OW53471  11.756   2.692   9.979 -0.0595  0.0845 -0.5619
14898SOL    HW153472  11.788   2.782   9.978 -0.1511  0.1194 -0.3514
14898SOL    HW253473  11.718   2.681  10.066  0.3382 -0.2922 -0.4342
14899SOL     OW53474   8.993   6.551   8.407  0.0307 -0.1725 -0.3113
14899SOL    HW153475   8.910   6.527   8.366  0.7809  0.6221 -2.4148
14899SOL    HW253476   9.053   6.564   8.334  1.3034  1.9140  1.0022
14900SOL     OW53477   4.616   7.329   6.397  0.2385  0.4991  0.0184
14900SOL    HW153478   4.561   7.408   6.400 -0.4105  0.1622 -1.8859
14900SOL    HW253479   4.575   7.271   6.461 -0.9194  0.7140 -0.4980
14901SOL     OW53480  12.606   5.856   4.947  0.2160 -0.7028 -0.0056
14901SOL    HW153481  12.538   5.804   4.905 -0.2946 -0.3079  0.3186
14901SOL    HW253482  12.605   5.940   4.901  1.4753 -1.1729 -0.9575
14902SOL     OW53483   5.413   8.331   5.501 -0.3654  0.2733 -0.4070
14902SOL    HW153484   5.402   8.363   5.590  1.2046  2.1887 -0.8265
14902SOL    HW253485   5.431   8.410   5.449 -1.6889 -0.7242 -2.5230
14903SOL     OW53486  12.167   5.629   5.962 -0.1974  0.5551 -0.2988
14903SOL    HW153487  12.087   5.579   5.976 -0.4704  0.5715 -1.5972
14903SOL    HW253488  12.146   5.686   5.888  1.7283 -1.1679 -2.3282
14904SOL     OW53489  10.218   1.221   0.967 -0.1327 -0.5038 -0.4819
14904SOL    HW153490  10.126   1.200   0.950 -0.1044  0.1165 -1.5073
14904SOL    HW253491  10.258   1.226   0.881  0.6268  0.2675 -0.1066
14905SOL     OW53492  10.063   6.108   2.471  0.2649 -0.0876 -0.1945
14905SOL    HW153493  10.075   6.014   2.460 -0.8077 -0.1898 -0.6311
14905SOL    HW253494  10.106   6.128   2.554  1.1963 -0.8151 -0.4869
14906SOL     OW53495   0.093   7.859   6.818 -0.6158 -0.0790  0.1009
14906SOL    HW153496   0.172   7.821   6.856 -0.4767  0.1537  0.0466
14906SOL    HW253497   0.030   7.787   6.817  0.0716 -0.7010 -1.2646
14907SOL     OW53498   5.098   0.997  10.918 -0.6366  0.0855  0.0857
14907SOL    HW153499   5.154   0.945  10.860  0.2898  0.5117  0.5813
14907SOL    HW253500   5.070   1.071  10.865  0.1757  0.4514  0.1434
14908SOL     OW53501  11.710   2.304   2.570  0.1979 -0.0110 -0.0899
14908SOL    HW153502  11.627   2.272   2.606  0.2954 -2.0102 -1.4825
14908SOL    HW253503  11.777   2.269   2.629  0.1376  0.6422  0.3816
14909SOL     OW53504  12.000   6.213  10.852 -0.0634  0.1390 -0.3791
14909SOL    HW153505  11.946   6.164  10.790  0.5781 -0.1253 -0.7338
14909SOL    HW253506  12.061   6.148  10.888 -0.3311  0.3164  0.4327
14910SOL     OW53507   3.750   0.550   7.228 -0.0993  0.0303  0.1335
14910SOL    HW153508   3.796   0.475   7.189  0.2681  1.6945 -2.9886
14910SOL    HW253509   3.791   0.563   7.313  0.7978 -2.3787  0.1438
14911SOL     OW53510   1.974   9.147   6.126 -0.3124  0.3240 -0.5718
14911SOL    HW153511   1.878   9.142   6.133 -0.3056  0.9445  0.0497
14911SOL    HW253512   1.991   9.144   6.032 -0.8256 -1.6993 -0.6667
14912SOL     OW53513   2.135   0.960   7.484  0.5449  1.1213 -0.2009
14912SOL    HW153514   2.228   0.975   7.465  0.7348 -0.4223 -0.6150
14912SOL    HW253515   2.136   0.906   7.563  0.0672 -0.0976 -1.0058
14913SOL     OW53516   7.753   8.800   2.271 -0.0988  0.5160  0.8324
14913SOL    HW153517   7.686   8.787   2.339 -0.8977  0.0412 -0.0290
14913SOL    HW253518   7.706   8.845   2.200  0.8453  1.4417  0.7734
14914SOL     OW53519   6.487   1.001   5.198 -0.3439  0.6606 -0.2422
14914SOL    HW153520   6.493   1.041   5.285  0.6743  2.5598 -1.1464
14914SOL    HW253521   6.572   0.957   5.186 -0.1912  1.0443 -0.5748
14915SOL     OW53522   1.160   3.523   3.270 -0.1873 -0.4170  0.5488
14915SOL    HW153523   1.246   3.482   3.271 -0.4589 -1.0485 -0.4300
14915SOL    HW253524   1.153   3.566   3.355  2.4363  2.4985 -0.5415
14916SOL     OW53525   4.381   2.058   2.951 -0.3555  0.1433 -0.0030
14916SOL    HW153526   4.421   2.121   2.891  0.3136 -1.5252 -1.4170
14916SOL    HW253527   4.429   2.069   3.033  0.6490  0.5653 -0.6226
14917SOL     OW53528   3.901   1.613  10.653 -0.3638 -0.4275  0.2247
14917SOL    HW153529   3.871   1.673  10.585 -0.5660 -2.1283 -1.2557
14917SOL    HW253530   3.995   1.602  10.635 -0.8289 -2.5716 -1.2265
14918SOL     OW53531   6.818   1.690  11.053 -0.2688  0.1230 -0.7010
14918SOL    HW153532   6.739   1.706  11.001 -0.2453  0.9304 -0.5069
14918SOL    HW253533   6.838   1.776  11.092  0.2376 -0.2615 -0.1036
14919SOL     OW53534   8.521   0.582  12.383 -0.3774 -0.0291  0.0074
14919SOL    HW153535   8.494   0.547  12.298 -2.4976 -1.8134  1.3262
14919SOL    HW253536   8.524   0.506  12.441  0.8269  1.1672  1.6151
14920SOL     OW53537   8.210   0.055  10.194  0.5151 -0.5471  0.1262
14920SOL    HW153538   8.150   0.062  10.120  1.1711 -1.8052 -0.5675
14920SOL    HW253539   8.291   0.021  10.156  2.0164  1.9018  0.8837
14921SOL     OW53540   8.354  10.499   2.320 -0.2950  0.2818 -0.1523
14921SOL    HW153541   8.266  10.461   2.319  0.0204 -0.5061 -1.6468
14921SOL    HW253542   8.362  10.542   2.235  0.9919 -0.2367 -0.3103
14922SOL     OW53543   5.133  10.687   4.183 -0.2789 -0.0677 -0.5492
14922SOL    HW153544   5.224  10.664   4.202 -0.3155  0.3366  0.1899
14922SOL    HW253545   5.132  10.710   4.091  0.2320 -0.7234 -0.7229
14923SOL     OW53546  10.819   8.065  10.596  0.1042  0.1878  0.1404
14923SOL    HW153547  10.844   8.116  10.673 -0.3816  0.0095  0.4208
14923SOL    HW253548  10.901   8.028  10.564  0.2630 -0.0399  0.7880
14924SOL     OW53549  10.682   4.929   0.777 -0.2809  0.6435 -0.1328
14924SOL    HW153550  10.683   4.838   0.745  0.4369  0.2118  1.0662
14924SOL    HW253551  10.650   4.980   0.702 -1.0600 -0.6359 -0.7127
14925SOL     OW53552   7.862   9.901   8.907 -0.4548 -0.0042  0.0740
14925SOL    HW153553   7.857   9.928   8.999  1.1919  1.2703 -0.1701
14925SOL    HW253554   7.771   9.880   8.884 -1.1337  1.0927  1.5697
14926SOL     OW53555   3.468   8.101   5.490 -0.2984 -0.0818 -0.6211
14926SOL    HW153556   3.497   8.114   5.580 -1.0015  0.1678 -0.4240
14926SOL    HW253557   3.502   8.177   5.442  1.1901 -0.8611 -0.8556
14927SOL     OW53558   2.190   0.883   6.090  0.1224 -0.2090  0.2971
14927SOL    HW153559   2.131   0.848   6.024 -0.3030 -1.6504  1.3806
14927SOL    HW253560   2.265   0.917   6.041 -1.7453  2.1321 -1.1593
14928SOL     OW53561   2.033   5.961   0.818 -0.6896  0.9640 -0.0454
14928SOL    HW153562   1.981   5.991   0.892 -0.3143  1.2131  0.1210
14928SOL    HW253563   2.012   5.868   0.809  0.0489  0.6739  1.0375
14929SOL     OW53564  12.199  12.438   7.331 -0.2720  0.1594 -0.2779
14929SOL    HW153565  12.193  12.388   7.413  0.7600  0.5047  0.0173
14929SOL    HW253566  12.114  12.483   7.325 -0.2436  0.3851  0.7685
14930SOL     OW53567   6.426   2.708   5.177 -0.3265 -0.0490  0.1620
14930SOL    HW153568   6.363   2.765   5.221 -0.3096  0.3597 -0.3455
14930SOL    HW253569   6.373   2.659   5.114 -0.4670 -1.1126  1.0734
14931SOL     OW53570   1.669   1.972  11.756 -0.4089  0.3726  0.2500
14931SOL    HW153571   1.639   1.928  11.835  0.4630 -0.7939 -0.0506
14931SOL    HW253572   1.674   2.065  11.781 -2.8886  0.4470  0.6882
14932SOL     OW53573   0.570   2.790   7.676  0.1125  0.5577  0.1039
14932SOL    HW153574   0.559   2.793   7.771 -0.9741 -0.4502  0.0234
14932SOL    HW253575   0.481   2.789   7.642  0.4497 -1.8130 -0.8255
14933SOL     OW53576   6.386   7.606   8.358 -0.5237  0.0217 -0.3997
14933SOL    HW153577   6.308   7.660   8.368  0.1869  0.9060  0.5420
14933SOL    HW253578   6.454   7.666   8.328  0.1549 -0.4333  0.1832
14934SOL     OW53579   0.147  11.022  12.316  0.4358  0.1997  0.1874
14934SOL    HW153580   0.102  11.046  12.235  2.2718  1.4673 -0.5362
14934SOL    HW253581   0.124  10.931  12.331  0.2224 -0.1261 -1.8999
14935SOL     OW53582   3.865   1.617   1.770  0.3647 -0.0818 -0.2753
14935SOL    HW153583   3.862   1.541   1.827  0.3441 -0.7050 -1.0982
14935SOL    HW253584   3.907   1.586   1.690 -0.2317  0.5985 -0.8697
14936SOL     OW53585   6.346   0.172   4.780  0.0878  1.0732  0.4526
14936SOL    HW153586   6.396   0.138   4.854 -1.2245  0.3892  1.0457
14936SOL    HW253587   6.273   0.219   4.819 -2.0582 -1.3901 -0.3136
14937SOL     OW53588   6.017   8.388   8.796  0.5012 -0.3147 -0.4722
14937SOL    HW153589   5.961   8.445   8.848  1.1207  0.0039 -0.1482
14937SOL    HW253590   6.000   8.300   8.829 -2.4255 -0.7594 -2.6753
14938SOL     OW53591   3.837   0.754   8.010 -0.0232 -0.2196  0.3131
14938SOL    HW153592   3.906   0.817   8.027  0.0810 -0.1432 -0.3728
14938SOL    HW253593   3.814   0.720   8.096 -0.1335  0.8036  0.6941
14939SOL     OW53594   9.790   9.402   0.569  0.2840  0.1778  0.1360
14939SOL    HW153595   9.774   9.467   0.638  0.5535  0.8328 -0.4098
14939SOL    HW253596   9.885   9.390   0.569  0.2408 -0.1943  0.2024
14940SOL     OW53597   5.824  11.541   7.226 -0.0772  0.0199 -0.2944
14940SOL    HW153598   5.785  11.501   7.149 -0.0688 -1.2810  0.3427
14940SOL    HW253599   5.883  11.608   7.192 -1.1329  0.4472 -1.3475
14941SOL     OW53600   9.544  11.105   0.526 -0.7852 -0.2567  0.2653
14941SOL    HW153601   9.604  11.031   0.518 -1.1084 -0.4798 -0.1127
14941SOL    HW253602   9.528  11.132   0.436 -0.9195  0.0736  0.3882
14942SOL     OW53603   5.771   6.339   6.838 -0.5812  0.1270  0.2277
14942SOL    HW153604   5.708   6.336   6.765 -0.5879  0.9880  0.1869
14942SOL    HW253605   5.734   6.404   6.898  0.1791  0.5180  0.2783
14943SOL     OW53606   7.323   4.136   3.323  0.8012  0.2071 -0.0111
14943SOL    HW153607   7.375   4.107   3.248  1.1452 -2.2415  1.0929
14943SOL    HW253608   7.284   4.056   3.358  0.1121  1.3544  2.0285
14944SOL     OW53609   4.330   9.248   4.668  0.1569 -0.3481 -0.6067
14944SOL    HW153610   4.398   9.305   4.704 -0.7084  0.9022 -0.8538
14944SOL    HW253611   4.291   9.300   4.597 -2.4654 -0.1111  0.8899
14945SOL     OW53612   5.122  11.033   0.368 -0.3296  0.2716  0.0344
14945SOL    HW153613   5.169  10.951   0.358  0.3241  0.5666  0.6117
14945SOL    HW253614   5.122  11.050   0.462 -2.5498 -0.2522  0.1917
14946SOL     OW53615   0.245   2.907  10.981 -0.3307 -0.7314 -0.4463
14946SOL    HW153616   0.339   2.888  10.975 -0.1447 -1.1019  2.2261
14946SOL    HW253617   0.240   3.002  10.972  0.9271 -0.1123  3.3206
14947SOL     OW53618   4.985   5.474   3.479 -0.2687 -0.5570 -0.4178
14947SOL    HW153619   4.900   5.498   3.516  0.3487  1.1042  0.0407
14947SOL    HW253620   5.033   5.433   3.551 -0.3025 -0.4682 -0.3437
14948SOL     OW53621   1.178   3.401   6.725 -0.5234  0.3820  0.0955
14948SOL    HW153622   1.129   3.320   6.711  0.6576 -0.3352 -0.0607
14948SOL    HW253623   1.253   3.394   6.666 -0.4082  1.6048  0.0679
14949SOL     OW53624   5.222   2.313   0.649 -0.0018 -0.5854 -0.1151
14949SOL    HW153625   5.294   2.250   0.656  1.4644  1.0394  0.0697
14949SOL    HW253626   5.165   2.276   0.580  0.7215 -2.1486  0.0695
14950SOL     OW53627   6.120   8.488  10.430  0.0878 -0.0853 -0.8786
14950SOL    HW153628   6.037   8.474  10.477  0.7398 -2.9050 -0.3833
14950SOL    HW253629   6.102   8.560  10.370 -1.5998  1.8534  1.7611
14951SOL     OW53630  10.127   5.249   7.360 -0.4520 -0.1713  0.0976
14951SOL    HW153631  10.069   5.324   7.376 -2.6698 -1.4813 -1.2507
14951SOL    HW253632  10.083   5.176   7.403  0.0014 -1.2955 -1.2874
14952SOL     OW53633   6.048   6.933   1.007  0.7186 -0.6358  0.2279
14952SOL    HW153634   6.112   6.999   0.981  1.7715 -1.2236  1.2364
14952SOL    HW253635   6.099   6.853   1.017 -0.6243 -1.7985 -1.5887
14953SOL     OW53636  11.515   6.793   1.423  0.4032  0.3306 -0.3820
14953SOL    HW153637  11.523   6.860   1.355  0.6613  1.3857  0.6477
14953SOL    HW253638  11.495   6.842   1.503  0.9444 -0.7862  0.4738
14954SOL     OW53639   4.677   2.605   9.091 -0.3311 -0.2956  0.1005
14954SOL    HW153640   4.757   2.650   9.116  0.1766 -1.7201  1.1900
14954SOL    HW253641   4.615   2.675   9.072  0.2339  0.9068  2.3300
14955SOL     OW53642  11.921   3.952   0.888 -0.1266  0.1263 -0.5906
14955SOL    HW153643  11.897   4.045   0.889 -0.4624  0.0884  1.8079
14955SOL    HW253644  11.996   3.947   0.948  0.1014 -1.1122 -0.9631
14956SOL     OW53645  10.003   8.631   2.998 -0.2538 -0.7130  0.1923
14956SOL    HW153646  10.084   8.624   2.947 -0.6089  0.2326 -0.5104
14956SOL    HW253647   9.933   8.623   2.934 -0.7143  1.6015  0.3145
14957SOL     OW53648   7.036  10.755   2.156  0.5837  0.7027  0.8480
14957SOL    HW153649   7.108  10.692   2.155  0.1329  0.1456 -1.0219
14957SOL    HW253650   7.079  10.840   2.160  1.4589  0.4260 -1.1935
14958SOL     OW53651   0.383   2.674   4.909  0.1387 -0.2728 -0.3056
14958SOL    HW153652   0.392   2.763   4.942  0.1167 -0.7442  1.0147
14958SOL    HW253653   0.349   2.685   4.820  0.7912  1.0474 -0.4162
14959SOL     OW53654   9.656   5.880   9.687  0.2579  0.0498  0.5454
14959SOL    HW153655   9.577   5.919   9.725  0.0567  0.3964 -0.2014
14959SOL    HW253656   9.703   5.842   9.762 -0.5583 -0.0692  1.0089
14960SOL     OW53657   2.403   3.573   5.379 -0.4339  0.1786  0.5602
14960SOL    HW153658   2.471   3.637   5.401  0.0278  0.4884 -1.5590
14960SOL    HW253659   2.327   3.600   5.431  0.0425  1.8887  0.4375
14961SOL     OW53660   8.352   7.967   0.364 -0.2797 -0.6693 -0.4503
14961SOL    HW153661   8.405   8.027   0.417 -1.4509 -0.8491  1.0001
14961SOL    HW253662   8.263   7.976   0.399 -1.4835  0.3650 -3.4162
14962SOL     OW53663   3.720   2.975   0.831  0.0557 -0.2160  0.0907
14962SOL    HW153664   3.636   3.002   0.795  1.2466  0.7831 -2.1030
14962SOL    HW253665   3.757   3.054   0.870  1.0399 -0.0091 -1.1989
14963SOL     OW53666   6.707   6.806   7.274  0.2942  0.4998  0.1823
14963SOL    HW153667   6.615   6.832   7.261 -0.0676 -0.7443  0.1258
14963SOL    HW253668   6.758   6.880   7.240 -0.6877  1.1123  0.0063
14964SOL     OW53669   6.644  12.192  12.241 -0.5575  0.2252  0.4959
14964SOL    HW153670   6.718  12.233  12.285  0.3439 -0.2807 -0.5205
14964SOL    HW253671   6.600  12.142  12.310  1.6311 -1.6981  0.5883
14965SOL     OW53672   5.731   2.447   5.677  0.1912  0.3575 -0.0975
14965SOL    HW153673   5.811   2.449   5.731 -1.0713  0.1262  1.9009
14965SOL    HW253674   5.664   2.484   5.734 -1.6773 -1.8728 -0.7133
14966SOL     OW53675   6.900  10.924  12.088  0.2197 -0.2418 -0.0194
14966SOL    HW153676   6.981  10.894  12.046 -0.5916 -2.4387 -0.1054
14966SOL    HW253677   6.834  10.922  12.019 -0.4037 -0.6524  0.5717
14967SOL     OW53678  10.200   1.497   7.778 -0.4594  0.7209  0.0462
14967SOL    HW153679  10.200   1.591   7.756 -0.4166  0.1059 -3.1943
14967SOL    HW253680  10.110   1.469   7.764 -0.0946 -0.0445 -0.9041
14968SOL     OW53681  10.588   5.339   8.942  0.7463 -0.5323  0.1257
14968SOL    HW153682  10.648   5.413   8.940  1.1859 -0.8898 -0.1115
14968SOL    HW253683  10.595   5.305   9.032  0.2082 -0.0187  0.3653
14969SOL     OW53684   6.393  11.282   5.226  0.0722  0.6299  0.3436
14969SOL    HW153685   6.469  11.301   5.172 -0.7837  1.7284 -0.5301
14969SOL    HW253686   6.415  11.201   5.272  2.2735  1.5882  1.0982
14970SOL     OW53687   6.252   3.075   6.774 -0.3824  0.3787 -0.5406
14970SOL    HW153688   6.244   2.994   6.824 -1.8762  1.7126  1.5083
14970SOL    HW253689   6.183   3.070   6.708 -0.7361  0.1591 -0.1553
14971SOL     OW53690   7.815   5.665  11.177 -0.2725 -0.1911 -0.2582
14971SOL    HW153691   7.838   5.601  11.109 -0.6669 -0.5613 -0.0478
14971SOL    HW253692   7.721   5.655  11.189 -0.4402  0.8415 -0.6279
14972SOL     OW53693  12.252   7.982   5.279  0.2360  0.4938  0.2247
14972SOL    HW153694  12.298   7.991   5.195  1.6607  2.9882  1.1547
14972SOL    HW253695  12.163   8.012   5.260 -0.0866 -1.0000 -0.8166
14973SOL     OW53696   2.149   5.204   8.898 -0.0651 -0.2465 -0.3309
14973SOL    HW153697   2.174   5.241   8.982 -2.3479  0.0217  0.3016
14973SOL    HW253698   2.225   5.220   8.841  1.1647  0.3786  1.4012
14974SOL     OW53699   5.739   9.376   4.928 -0.2348  0.1121 -0.2361
14974SOL    HW153700   5.699   9.290   4.941  0.7706 -0.7592 -2.5071
14974SOL    HW253701   5.675   9.425   4.877  0.3779 -0.3259 -1.4599
14975SOL     OW53702   5.912   5.901   1.962 -0.0193  0.4893  0.1555
14975SOL    HW153703   5.942   5.813   1.982 -2.4444 -0.4963 -0.1261
14975SOL    HW253704   5.965   5.958   2.018  2.1147 -1.0251 -0.1938
14976SOL     OW53705   4.898   0.639   7.795  0.3881  0.1202 -0.4302
14976SOL    HW153706   4.817   0.623   7.844  0.3295  0.8172 -0.2935
14976SOL    HW253707   4.907   0.734   7.794  0.9747  0.0636 -0.8277
14977SOL     OW53708   6.584  10.861   9.886 -0.4666 -0.1523 -0.0309
14977SOL    HW153709   6.511  10.855   9.824 -1.6360 -0.5845  1.3564
14977SOL    HW253710   6.609  10.953   9.883 -0.9102 -0.0412 -0.6877
14978SOL     OW53711   8.775   9.942   0.492 -0.3908 -0.1750  0.2610
14978SOL    HW153712   8.808   9.998   0.421  1.4046 -1.4904 -0.0301
14978SOL    HW253713   8.848   9.936   0.554 -0.7953 -1.5508  0.6506
14979SOL     OW53714  10.939   4.877  12.410 -0.4389  0.3215  0.3697
14979SOL    HW153715  10.866   4.922  12.453 -0.8032 -0.1798  0.2838
14979SOL    HW253716  10.968   4.813  12.475  0.6045  1.2051  0.8089
14980SOL     OW53717  11.637   9.765   5.416 -0.2665 -0.8256 -0.7083
14980SOL    HW153718  11.612   9.744   5.326  0.6759  0.5503 -1.3307
14980SOL    HW253719  11.731   9.782   5.412 -0.5233  1.1361  0.1243
14981SOL     OW53720   9.354   5.955   6.551  0.4050 -0.4533  0.5360
14981SOL    HW153721   9.399   6.035   6.578  1.3495 -0.8587  0.1940
14981SOL    HW253722   9.369   5.950   6.456 -0.5457 -0.4926  0.3686
14982SOL     OW53723   2.156   6.095  10.126 -0.1392 -0.1299  0.1543
14982SOL    HW153724   2.067   6.060  10.122  0.1447 -0.9173  0.7097
14982SOL    HW253725   2.209   6.024  10.160  0.6633  0.4333  0.1131
14983SOL     OW53726   3.760  11.033  12.437  0.1653 -0.2538  0.2434
14983SOL    HW153727   3.679  11.082  12.452  0.8325  1.0801 -0.2845
14983SOL    HW253728   3.830  11.096  12.458  1.0983 -1.6676  1.6457
14984SOL     OW53729   5.506   2.639   9.901  0.2580  0.8917 -0.0604
14984SOL    HW153730   5.426   2.587   9.914  1.5490 -0.8275  1.6532
14984SOL    HW253731   5.555   2.591   9.834  0.6856  0.8523  0.2743
14985SOL     OW53732   4.979   4.906   7.322 -0.5169  0.1405  0.0266
14985SOL    HW153733   4.893   4.887   7.284 -0.0438 -0.8872 -0.5673
14985SOL    HW253734   5.040   4.893   7.250  0.1931  0.3036  0.5922
14986SOL     OW53735   2.734   8.231   9.771 -0.0927  0.5829 -0.0627
14986SOL    HW153736   2.678   8.180   9.712 -1.9712  2.4462  0.0134
14986SOL    HW253737   2.806   8.261   9.715  0.1389 -0.7001 -0.4890
14987SOL     OW53738  12.437   6.271  11.859 -0.5450 -0.1708  0.3874
14987SOL    HW153739  12.346   6.242  11.857 -0.3211 -0.8568 -1.5319
14987SOL    HW253740  12.441   6.344  11.797  0.4506 -0.9847 -0.5515
14988SOL     OW53741   0.601   5.024   9.205  0.1439  0.5698  0.5665
14988SOL    HW153742   0.588   5.116   9.228 -1.6581  0.7310 -0.8660
14988SOL    HW253743   0.512   4.989   9.198  0.7492 -0.7548 -0.8836
14989SOL     OW53744   6.574   5.437   0.927 -0.5126  0.1355  0.6034
14989SOL    HW153745   6.552   5.367   0.989 -1.2300 -1.0514 -0.9059
14989SOL    HW253746   6.635   5.396   0.865 -0.9298  0.8284 -0.2897
14990SOL     OW53747   8.343   6.625   7.479 -0.0395 -0.0089 -0.0607
14990SOL    HW153748   8.311   6.539   7.507  1.2395 -0.4629  0.0667
14990SOL    HW253749   8.325   6.628   7.386 -1.6255  0.2932  0.2296
14991SOL     OW53750   5.871  10.432   7.825 -0.5351  0.1476  0.1527
14991SOL    HW153751   5.942  10.395   7.877  0.2352  0.8342 -0.3857
14991SOL    HW253752   5.819  10.483   7.888 -0.3566 -0.0761  0.4815
14992SOL     OW53753   7.677  12.261   6.716  0.1726 -0.4534 -0.8123
14992SOL    HW153754   7.716  12.257   6.803 -2.2072  0.8777  0.4257
14992SOL    HW253755   7.739  12.311   6.663  1.6448 -1.2713  0.0851
14993SOL     OW53756   0.512   6.525   2.140  0.0978  0.2631  0.6174
14993SOL    HW153757   0.481   6.597   2.195  1.2028  1.1821  0.0646
14993SOL    HW253758   0.445   6.457   2.151  0.2923  0.3874  3.0996
14994SOL     OW53759   1.235   4.208  10.764 -0.0546  1.1609  0.6542
14994SOL    HW153760   1.310   4.177  10.712 -0.6954  2.1744 -0.9638
14994SOL    HW253761   1.225   4.143  10.833  0.1956 -0.8571 -1.1126
14995SOL     OW53762   7.697   5.530  10.733 -0.3965 -0.1334  0.0743
14995SOL    HW153763   7.721   5.567  10.648  1.5505 -1.5355 -0.0632
14995SOL    HW253764   7.686   5.436  10.716 -1.3521 -0.2280  1.1213
14996SOL     OW53765   0.100   8.436   0.950  0.0575 -0.3907  0.1755
14996SOL    HW153766   0.051   8.509   0.912  0.1800 -0.2288  0.3259
14996SOL    HW253767   0.038   8.395   1.011  0.3189  0.2291  0.8784
14997SOL     OW53768   7.575   3.788   0.312  0.0042  0.2435  0.0467
14997SOL    HW153769   7.567   3.749   0.399 -2.1931 -0.1496 -0.2819
14997SOL    HW253770   7.515   3.863   0.313 -1.4581 -0.8129 -1.6301
14998SOL     OW53771   3.971   5.151   6.149 -0.3255  0.2110  0.5098
14998SOL    HW153772   3.907   5.081   6.134 -0.3644  0.1795  0.8147
14998SOL    HW253773   4.047   5.106   6.185 -0.0999  0.2381  0.0738
14999SOL     OW53774   0.562  10.427   2.831 -0.2060 -0.3931 -0.4106
14999SOL    HW153775   0.645  10.468   2.807 -0.3271 -0.1899 -0.4850
14999SOL    HW253776   0.550  10.358   2.766  0.4665 -1.1753  0.2754
15000SOL     OW53777   7.505  12.468   8.066 -0.2198  0.0188  0.0064
15000SOL    HW153778   7.531  12.430   7.982  1.8447 -0.3629  0.7577
15000SOL    HW253779   7.583  12.516   8.095 -1.0532  0.5124  1.4971
15001SOL     OW53780   9.469  11.827   5.244 -0.0192 -0.0146  0.2223
15001SOL    HW153781   9.427  11.749   5.207  0.8929 -0.5364  0.2645
15001SOL    HW253782   9.557  11.827   5.207  0.9534 -0.5711  2.3411
15002SOL     OW53783  11.001   1.313   4.672 -0.0690 -0.3744 -0.3495
15002SOL    HW153784  10.976   1.232   4.629 -2.2998  0.1558 -0.1423
15002SOL    HW253785  10.919   1.359   4.688  1.0362  1.3995  0.6090
15003SOL     OW53786   1.160   6.888   0.711 -0.1493 -0.0528  0.1862
15003SOL    HW153787   1.085   6.899   0.769 -0.4304 -0.6283 -0.0584
15003SOL    HW253788   1.179   6.794   0.714  2.3347  0.3787  2.4523
15004SOL     OW53789   1.585  10.568   2.929 -0.1459  0.1966  0.8283
15004SOL    HW153790   1.512  10.529   2.881  1.0302 -2.4214  1.0126
15004SOL    HW253791   1.589  10.519   3.011  0.4177  1.8543  1.8472
15005SOL     OW53792   0.302  12.461   1.711  0.4535  0.4075 -0.2818
15005SOL    HW153793   0.219  12.415   1.727  1.0507 -0.1098  1.5449
15005SOL    HW253794   0.293  12.543   1.759 -0.2769  1.9516 -2.8524
15006SOL     OW53795   6.738   9.512   9.523  0.0592 -0.1172  0.3615
15006SOL    HW153796   6.708   9.535   9.611 -0.0252  2.1069 -0.1868
15006SOL    HW253797   6.822   9.557   9.514  0.2935 -0.7178 -0.5529
15007SOL     OW53798   4.417   6.109  10.705 -0.3457 -0.0128  0.2648
15007SOL    HW153799   4.410   6.018  10.674  0.2738 -0.0314  0.1653
15007SOL    HW253800   4.511   6.127  10.705 -0.3665  0.2171  1.4832
15008SOL     OW53801   3.707   2.247   9.706  0.2101  0.1879  0.1762
15008SOL    HW153802   3.703   2.256   9.801 -1.6994  0.6294  0.0918
15008SOL    HW253803   3.797   2.273   9.683  0.5732  0.4757  1.8055
15009SOL     OW53804   3.989  10.998   7.276  0.1255  0.5797  0.0514
15009SOL    HW153805   3.939  10.921   7.249  0.2611  0.2405  0.7567
15009SOL    HW253806   4.048  11.014   7.202  0.4511 -0.3078  0.1044
15010SOL     OW53807   6.489   0.917  11.740  0.3139 -0.1612 -0.2208
15010SOL    HW153808   6.558   0.911  11.806 -1.3819  0.8659  1.7259
15010SOL    HW253809   6.417   0.865  11.774 -0.3235 -0.3166 -1.7001
15011SOL     OW53810   4.768  12.471   7.967 -0.3784  0.2804  0.0960
15011SOL    HW153811   4.814  12.488   7.885 -0.6233  0.2014 -0.0583
15011SOL    HW253812   4.702  12.541   7.972 -2.4065 -1.4243 -1.2841
15012SOL     OW53813   5.059   8.948  11.052 -0.5875 -0.2007 -1.1636
15012SOL    HW153814   5.125   8.919  11.115 -4.5759 -2.4385  2.4626
15012SOL    HW253815   5.083   9.039  11.034  1.9333 -0.0244  2.1005
15013SOL     OW53816  11.059   4.838   8.872  0.2419  0.1442 -0.3923
15013SOL    HW153817  10.969   4.818   8.900 -0.3357  3.5240  0.6522
15013SOL    HW253818  11.051   4.864   8.781  0.1637  0.4236 -0.3057
15014SOL     OW53819  10.552   7.087   4.864  0.3246 -0.0430  0.2484
15014SOL    HW153820  10.550   7.082   4.959  1.7701  0.2901  0.3271
15014SOL    HW253821  10.460   7.088   4.837 -0.1177 -1.6223  1.5519
15015SOL     OW53822   4.870   9.421   5.761  0.2014  0.1802 -0.0562
15015SOL    HW153823   4.882   9.508   5.800  1.4563  0.6021 -1.3275
15015SOL    HW253824   4.921   9.363   5.817  0.5289  0.4913 -0.0312
15016SOL     OW53825   2.653   3.038  10.895  0.4379 -0.3645  0.7392
15016SOL    HW153826   2.604   3.024  10.814 -0.4522 -0.2597  1.2496
15016SOL    HW253827   2.628   3.125  10.924  2.7984  0.7325 -0.2389
15017SOL     OW53828   4.304   9.813   2.841  0.1644  0.0849 -0.3937
15017SOL    HW153829   4.374   9.840   2.902 -2.1012 -0.3274  2.6298
15017SOL    HW253830   4.311   9.718   2.839 -1.1726 -0.0951  1.2055
15018SOL     OW53831   1.462   4.420   9.078  0.2781  0.3044 -0.1148
15018SOL    HW153832   1.479   4.470   8.998 -0.4858  0.4058 -0.2211
15018SOL    HW253833   1.368   4.433   9.095  0.1374 -0.7998  0.0570
15019SOL     OW53834   4.689   1.667   0.931  0.0762  0.5494 -0.5456
15019SOL    HW153835   4.615   1.719   0.962 -1.4298 -1.4297 -0.6252
15019SOL    HW253836   4.721   1.621   1.009  0.1150  0.0976 -0.8238
15020SOL     OW53837   8.414  11.951  11.546  0.5525  0.4699  0.3832
15020SOL    HW153838   8.454  12.005  11.479 -0.0020  0.5473  0.1123
15020SOL    HW253839   8.473  11.876  11.555  0.2251  0.0527 -0.7738
15021SOL     OW53840  12.484  10.629   2.869 -0.2182  0.3425 -0.4451
15021SOL    HW153841  12.521  10.619   2.782 -0.1908  0.0220 -0.3973
15021SOL    HW253842  12.543  10.690   2.914 -0.6177  1.0560 -0.8737
15022SOL     OW53843   3.921   0.549   1.980  0.8831 -0.1696 -0.0119
15022SOL    HW153844   3.908   0.577   1.889 -0.6133  1.0725  0.5381
15022SOL    HW253845   3.940   0.629   2.028 -0.5180 -0.4631  1.1186
15023SOL     OW53846   7.365   0.083   6.357 -0.2180 -0.6260  0.5152
15023SOL    HW153847   7.407   0.143   6.295 -0.8073  0.2731  0.9580
15023SOL    HW253848   7.421   0.006   6.358  0.5803 -0.0691 -0.0543
15024SOL     OW53849  12.577  10.617   7.509 -0.6489  0.5231 -0.2837
15024SOL    HW153850  12.567  10.556   7.436 -0.2167  2.2133 -1.8124
15024SOL    HW253851  12.672  10.621   7.524 -0.6400  1.1344 -0.4839
15025SOL     OW53852   9.314   5.534   7.357 -0.0902  0.3472 -0.1991
15025SOL    HW153853   9.250   5.559   7.290  0.3001 -0.9293 -1.1039
15025SOL    HW253854   9.267   5.474   7.414 -0.2391  0.9402  0.3165
15026SOL     OW53855   3.326   0.012   6.380 -0.2778  0.1178  0.1116
15026SOL    HW153856   3.244   0.020   6.430 -0.6869 -0.9514 -0.3629
15026SOL    HW253857   3.300  -0.032   6.299  0.6925  0.2116 -0.2589
15027SOL     OW53858  11.011   9.055  11.184  0.1348  0.2430  0.3452
15027SOL    HW153859  11.066   9.132  11.200  0.7527 -0.0976 -0.0966
15027SOL    HW253860  10.921   9.087  11.196  0.2728  1.4474 -1.4512
15028SOL     OW53861   2.574   1.799   4.316 -0.1103  0.0464 -0.3582
15028SOL    HW153862   2.553   1.886   4.282  0.7529  1.2562  1.9964
15028SOL    HW253863   2.559   1.806   4.410 -0.1298 -2.4137 -0.1177
15029SOL     OW53864   5.745   2.002   8.645 -0.0203 -0.1397  0.1852
15029SOL    HW153865   5.694   1.922   8.662  0.4966 -0.5654 -0.2222
15029SOL    HW253866   5.794   1.983   8.565  0.9142  0.1877  0.6613
15030SOL     OW53867   3.395   1.074   7.548 -0.1480 -0.1675 -0.0190
15030SOL    HW153868   3.439   0.997   7.512 -1.7308 -1.0476 -0.1624
15030SOL    HW253869   3.440   1.091   7.630  1.1394 -0.3740 -0.6647
15031SOL     OW53870   2.509   5.486   8.511  0.3877 -0.1866 -0.0449
15031SOL    HW153871   2.590   5.505   8.559  1.4297 -1.3505 -1.2563
15031SOL    HW253872   2.530   5.504   8.420 -0.9583  0.1481 -0.3174
15032SOL     OW53873   7.388   6.250   2.183 -0.2601  0.3211 -1.0990
15032SOL    HW153874   7.437   6.264   2.102  3.0239 -0.9784  0.4704
15032SOL    HW253875   7.364   6.157   2.181  1.7482 -0.2822  0.2743
15033SOL     OW53876   6.073  11.243   8.164  0.2457 -0.3714 -0.1456
15033SOL    HW153877   6.060  11.337   8.152 -1.1832 -0.6397 -1.0071
15033SOL    HW253878   6.167  11.229   8.154  0.5017  0.9820  0.2299
15034SOL     OW53879   7.117   9.388   7.812  0.2165  0.0610  0.4234
15034SOL    HW153880   7.151   9.314   7.863  0.6636  0.0552  0.1283
15034SOL    HW253881   7.104   9.352   7.724 -1.7934 -0.2787  0.8095
15035SOL     OW53882   5.545   0.962   5.792 -0.0481 -0.1155  0.4156
15035SOL    HW153883   5.551   0.923   5.880  1.4838  0.0058  0.3934
15035SOL    HW253884   5.492   0.900   5.742 -0.2934 -0.5728  1.2196
15036SOL     OW53885   4.349   8.764   6.618  0.6365  0.0898  0.3593
15036SOL    HW153886   4.258   8.764   6.648  0.5738  0.1734  0.1717
15036SOL    HW253887   4.400   8.737   6.695  0.2819 -1.9239 -0.0555
15037SOL     OW53888   4.851   4.695  12.448  0.3007  0.2833 -0.0962
15037SOL    HW153889   4.778   4.753  12.470 -0.8399 -0.9610 -0.4580
15037SOL    HW253890   4.815   4.635  12.383  1.3679 -0.9512  0.4097
15038SOL     OW53891  10.114   2.636   1.971  0.2528  0.0170  0.1448
15038SOL    HW153892  10.193   2.649   1.918  1.0924 -0.4761  1.2290
15038SOL    HW253893  10.118   2.706   2.036 -0.2048 -0.0175  0.2085
15039SOL     OW53894   8.596   6.589  11.111  1.0921  0.3802 -0.0243
15039SOL    HW153895   8.545   6.519  11.153  2.5106 -0.4352  0.4399
15039SOL    HW253896   8.581   6.577  11.018  1.7667 -0.9607  0.0097
15040SOL     OW53897   3.823   2.459   4.362 -0.4762 -0.2378  0.2804
15040SOL    HW153898   3.911   2.464   4.324 -0.3160  1.9578  0.7715
15040SOL    HW253899   3.830   2.506   4.445 -1.6071 -2.0383  1.4680
15041SOL     OW53900  10.638   4.908   5.609 -0.3510 -0.0710 -0.0969
15041SOL    HW153901  10.662   4.974   5.675 -1.6953 -0.3408  0.7111
15041SOL    HW253902  10.640   4.954   5.526  1.1698  0.3376  0.1355
15042SOL     OW53903   9.495  10.600   1.184 -0.1275 -0.2274 -0.5250
15042SOL    HW153904   9.410  10.605   1.140 -1.0197  0.8053  1.2167
15042SOL    HW253905   9.519  10.690   1.202  1.2067 -0.5251 -0.6754
15043SOL     OW53906   4.685   6.893  12.548  0.3675 -0.4264 -0.1476
15043SOL    HW153907   4.710   6.850  12.467 -1.0654 -0.8256 -0.4053
15043SOL    HW253908   4.630   6.966  12.521  1.5760  0.7167  0.3701
15044SOL     OW53909   7.811   3.461   4.236 -0.0420  0.2238 -0.3893
15044SOL    HW153910   7.822   3.556   4.245  1.7198  0.0455 -0.3924
15044SOL    HW253911   7.745   3.439   4.302  1.3051  1.1231  1.3373
15045SOL     OW53912   7.046  10.715   2.988 -0.1652 -0.3979  0.4656
15045SOL    HW153913   6.988  10.769   2.935  1.0226  0.8771  0.4125
15045SOL    HW253914   7.125  10.705   2.934  1.4248  1.6597  2.2526
15046SOL     OW53915  12.211  11.873   2.011 -0.0283  0.4022  0.1393
15046SOL    HW153916  12.119  11.898   2.016 -0.0691  0.0898  1.0930
15046SOL    HW253917  12.220  11.834   1.924 -0.5979  1.1926 -0.2845
15047SOL     OW53918   1.001  12.509   1.806 -0.2786  0.1398 -0.2275
15047SOL    HW153919   1.028  12.596   1.835  0.5936 -0.4185  0.7307
15047SOL    HW253920   1.082  12.468   1.775 -0.8092 -0.0873 -1.3641
15048SOL     OW53921   1.750   6.994   1.433 -0.1832 -0.1564  0.8131
15048SOL    HW153922   1.798   7.069   1.399  0.7749 -1.5250 -1.0068
15048SOL    HW253923   1.682   6.977   1.367  0.7914 -1.9822  0.2112
15049SOL     OW53924  11.833  11.539   9.441  0.2338 -0.6456 -0.0671
15049SOL    HW153925  11.799  11.602   9.504  1.4127 -1.3039  1.2956
15049SOL    HW253926  11.757  11.510   9.391 -0.7498 -0.1627  1.1199
15050SOL     OW53927  10.734   5.808   0.238  0.0213  0.1102  0.2246
15050SOL    HW153928  10.825   5.790   0.213  0.4654  1.7356  0.5709
15050SOL    HW253929  10.740   5.847   0.325 -0.7878  2.1869 -0.5748
15051SOL     OW53930   1.207   1.732   7.815  0.1656  0.2162  0.1942
15051SOL    HW153931   1.294   1.760   7.843 -0.8055  2.0039  1.6265
15051SOL    HW253932   1.224   1.671   7.743  2.6305 -0.8090  1.5088
15052SOL     OW53933   3.146   5.058   3.736  0.4828  0.1999  0.2248
15052SOL    HW153934   3.112   5.083   3.822 -0.1151  2.6478 -0.6696
15052SOL    HW253935   3.238   5.085   3.738  0.5230  0.0716  0.1528
15053SOL     OW53936   5.529   0.233   6.266 -0.3610  0.0414  0.2091
15053SOL    HW153937   5.604   0.238   6.325  0.1235  0.0224 -0.4038
15053SOL    HW253938   5.481   0.314   6.283 -1.4608 -0.9471  2.2376
15054SOL     OW53939   1.853   3.795   3.848  0.0917  0.0523  0.3078
15054SOL    HW153940   1.948   3.800   3.836  0.1402 -0.6755  0.3099
15054SOL    HW253941   1.837   3.831   3.935  0.4089 -0.1404  0.4481
15055SOL     OW53942   4.962  11.098   8.303  0.1224  0.4613 -0.4948
15055SOL    HW153943   4.999  11.022   8.348 -1.4360 -0.6111 -0.9473
15055SOL    HW253944   5.037  11.140   8.261  1.2738  0.2250  1.2344
15056SOL     OW53945   4.335   6.354   1.726 -0.4487  0.2827 -0.0245
15056SOL    HW153946   4.245   6.378   1.751 -0.7460  0.5480 -1.2998
15056SOL    HW253947   4.373   6.435   1.693  0.6111  0.4070  1.3938
15057SOL     OW53948   2.729   2.333   9.227 -0.1191 -0.2587  0.2682
15057SOL    HW153949   2.666   2.261   9.223 -0.1554 -0.2898  1.1302
15057SOL    HW253950   2.815   2.290   9.234 -0.1262 -0.2221  0.5990
15058SOL     OW53951  12.206   2.539  11.508 -0.2206  0.1967  0.6778
15058SOL    HW153952  12.232   2.539  11.600  0.0472  1.0564  0.6122
15058SOL    HW253953  12.126   2.487  11.506  0.8536 -1.5627  1.0632
15059SOL     OW53954  10.313   4.682   2.376 -0.1817  0.0658 -0.2480
15059SOL    HW153955  10.386   4.680   2.314  0.6488  0.0643  0.7043
15059SOL    HW253956  10.351   4.717   2.457 -0.9432 -1.0365  0.6278
15060SOL     OW53957  10.363   4.176  11.771 -0.4575 -0.3787  0.4199
15060SOL    HW153958  10.446   4.213  11.741 -0.7425  0.1135  0.2376
15060SOL    HW253959  10.326   4.133  11.694  1.1070 -3.4226  1.1942
15061SOL     OW53960   4.679   3.493   7.542  0.0737 -0.3059  0.1188
15061SOL    HW153961   4.663   3.406   7.505  0.1061 -0.5685  0.7110
15061SOL    HW253962   4.730   3.539   7.475  1.4438 -1.2804  0.4497
15062SOL     OW53963   4.323   4.970  11.669 -0.3665  0.1032 -0.3120
15062SOL    HW153964   4.231   4.993  11.658 -0.5657 -1.3712 -2.3475
15062SOL    HW253965   4.327   4.877  11.645  1.5177 -0.1162  0.6573
15063SOL     OW53966   1.548   5.690   0.793  0.1272 -0.3997 -0.1650
15063SOL    HW153967   1.610   5.728   0.731  1.0647 -0.3272  0.7887
15063SOL    HW253968   1.558   5.743   0.872  0.2065 -1.5441  0.6172
15064SOL     OW53969   1.631  12.263   0.871  0.4659 -0.5234 -0.2314
15064SOL    HW153970   1.554  12.251   0.815  0.1845 -2.0701  0.4112
15064SOL    HW253971   1.653  12.174   0.899  2.0386 -0.0193  0.2009
15065SOL     OW53972   4.073   5.537   7.028  0.5134  0.0323  0.1117
15065SOL    HW153973   4.058   5.626   7.060 -1.7732  0.5077 -2.0006
15065SOL    HW253974   4.027   5.481   7.090 -0.0964  0.5365  0.1238
15066SOL     OW53975   3.641   4.783  10.079  0.4926 -0.2388  0.6463
15066SOL    HW153976   3.700   4.787  10.004  1.0679  0.0610  1.1020
15066SOL    HW253977   3.593   4.866  10.076  0.1496 -0.4486  0.3203
15067SOL     OW53978   9.111  12.059  10.908  0.2148 -0.5679 -0.2340
15067SOL    HW153979   9.180  12.111  10.868  0.5224  0.4503  1.5194
15067SOL    HW253980   9.130  12.062  11.002 -0.3507 -3.0029  0.0371
15068SOL     OW53981   1.227   3.781   5.664  0.0406  0.0349 -0.3471
15068SOL    HW153982   1.310   3.734   5.670  0.2222  0.3318 -0.5300
15068SOL    HW253983   1.247   3.869   5.696  0.0513  0.4296 -1.4185
15069SOL     OW53984   0.446   1.367   7.185  0.5909  0.4897 -0.6797
15069SOL    HW153985   0.399   1.327   7.112  0.1740 -0.0302 -0.1333
15069SOL    HW253986   0.449   1.460   7.164 -2.2209  0.8324  0.0949
15070SOL     OW53987  10.700   5.556   0.533 -0.1722 -0.4639  0.4142
15070SOL    HW153988  10.719   5.489   0.598  0.1287  0.8478  1.7280
15070SOL    HW253989  10.756   5.534   0.459 -0.7983 -2.1995  0.4150
15071SOL     OW53990  12.150   9.673   0.680  0.3541  0.0191 -0.6129
15071SOL    HW153991  12.077   9.642   0.626  0.9974  0.3226 -1.6933
15071SOL    HW253992  12.200   9.593   0.700 -0.8534 -0.3589  1.0902
15072SOL     OW53993  10.159   6.986   3.464 -0.4332  0.2492  0.4950
15072SOL    HW153994  10.095   6.953   3.401 -1.9289  0.6491  1.7325
15072SOL    HW253995  10.198   7.062   3.421  0.3697 -0.8994 -0.8947
15073SOL     OW53996   7.870  10.471  11.248 -0.0076 -0.0787 -0.1770
15073SOL    HW153997   7.943  10.531  11.265  0.4977 -0.7978  0.2745
15073SOL    HW253998   7.826  10.463  11.333  0.2667 -0.7685 -0.0918
15074SOL     OW53999   6.446  10.727   1.549  0.1006 -0.5145  0.0054
15074SOL    HW154000   6.496  10.801   1.582  0.5950 -1.0933  0.6028
15074SOL    HW254001   6.387  10.764   1.484  0.7649  0.3064 -0.1474
15075SOL     OW54002  11.014   0.628   9.243 -0.3321  0.2706  0.1019
15075SOL    HW154003  11.004   0.538   9.276 -1.5937  0.0288 -0.8527
15075SOL    HW254004  11.108   0.642   9.240 -0.1197 -0.9685  0.4187
15076SOL     OW54005   9.981   7.649   7.701  0.2467 -0.0324  0.4562
15076SOL    HW154006  10.048   7.581   7.711 -0.0150 -0.2734  0.5868
15076SOL    HW254007   9.946   7.634   7.613  0.3004  0.0363  0.4227
15077SOL     OW54008  11.608   1.405   8.962 -0.1469  0.3908 -0.3077
15077SOL    HW154009  11.639   1.329   8.913 -1.1799  0.3952 -0.9914
15077SOL    HW254010  11.598   1.374   9.052  0.2445 -0.0439 -0.4109
15078SOL     OW54011   8.524  12.320   1.050 -0.1941 -0.0675 -0.3989
15078SOL    HW154012   8.572  12.399   1.027  0.1156 -0.4366 -1.0425
15078SOL    HW254013   8.535  12.311   1.145  0.8326 -0.0367 -0.5112
15079SOL     OW54014   0.931   3.606   8.329 -0.0604  0.1393  0.2367
15079SOL    HW154015   0.911   3.692   8.366 -0.9051 -0.2073  0.6177
15079SOL    HW254016   0.994   3.624   8.259  2.4374  0.7196  2.4688
15080SOL     OW54017   0.578   8.484  11.879 -0.1270  0.1092  0.3474
15080SOL    HW154018   0.645   8.516  11.939  0.3197 -0.6128  0.2553
15080SOL    HW254019   0.517   8.435  11.935 -0.0053 -0.1106  0.2878
15081SOL     OW54020   6.344   4.856   2.373  0.1519  0.1524  0.3514
15081SOL    HW154021   6.385   4.834   2.457  0.4603  1.6120  0.6165
15081SOL    HW254022   6.255   4.882   2.397 -0.0658 -0.3458  0.0988
15082SOL     OW54023   1.619  12.019   7.354 -0.2345  0.6289  0.2943
15082SOL    HW154024   1.578  11.967   7.423  0.9970  0.6781  1.0899
15082SOL    HW254025   1.578  11.988   7.273 -0.4443 -0.6748  0.8757
15083SOL     OW54026   1.484   4.037   2.433 -0.2356  0.1330  0.6078
15083SOL    HW154027   1.517   4.052   2.522  1.3552 -1.0330  0.2475
15083SOL    HW254028   1.542   3.971   2.397 -0.9602  0.4743 -1.2723
15084SOL     OW54029   0.547   0.988   5.680 -0.2723  0.2119  0.2712
15084SOL    HW154030   0.525   1.074   5.715  1.9525  0.6235  0.7816
15084SOL    HW254031   0.526   0.994   5.587  0.4541  1.5591  0.1653
15085SOL     OW54032   4.060  11.689   6.946  0.3168  0.3782  0.1616
15085SOL    HW154033   4.033  11.619   7.005 -1.6665  0.9106 -0.0382
15085SOL    HW254034   4.131  11.651   6.894 -0.2129 -1.2175  0.5674
15086SOL     OW54035   6.010  10.598   4.275 -0.5182  0.4363  0.1062
15086SOL    HW154036   6.001  10.512   4.234  0.5930  0.8067 -0.9594
15086SOL    HW254037   6.036  10.656   4.204 -0.6971  1.5574  0.9222
15087SOL     OW54038   6.044   9.783   3.511 -0.3876 -0.0512  0.5496
15087SOL    HW154039   5.978   9.714   3.499 -0.0785 -0.4951  1.3425
15087SOL    HW254040   6.056   9.790   3.605 -0.0473  0.7522  0.4585
15088SOL     OW54041   2.225   2.264   1.083 -0.1754  0.1876  0.4449
15088SOL    HW154042   2.262   2.345   1.118  0.2954  1.1125 -1.9940
15088SOL    HW254043   2.211   2.282   0.990  1.7944 -3.1164 -0.6968
15089SOL     OW54044   4.113   2.496   4.544  0.3544 -0.1141 -0.3290
15089SOL    HW154045   4.143   2.481   4.455  1.4863  0.1485 -0.0075
15089SOL    HW254046   4.170   2.442   4.599 -0.4658 -0.4428  0.2267
15090SOL     OW54047  11.132   0.551   2.160  0.0393  0.0873  0.5670
15090SOL    HW154048  11.129   0.522   2.251  1.6678  0.3708  0.7248
15090SOL    HW254049  11.189   0.628   2.160  0.5770 -0.2765 -0.7831
15091SOL     OW54050   7.140   8.812  11.063  0.2013  0.5665  0.2767
15091SOL    HW154051   7.167   8.800  10.972 -2.7611 -3.9682 -0.3136
15091SOL    HW254052   7.218   8.793  11.114  1.3017  0.7118 -1.2609
15092SOL     OW54053  11.821   8.226   1.441 -0.0030  0.3463  0.4991
15092SOL    HW154054  11.727   8.222   1.456 -0.0448  0.5013  0.2895
15092SOL    HW254055  11.860   8.206   1.525 -0.2242  0.8052  0.7137
15093SOL     OW54056   4.336   1.805  10.750  0.0802 -0.2055 -0.1773
15093SOL    HW154057   4.399   1.877  10.759  1.2325 -0.9969 -1.4313
15093SOL    HW254058   4.383   1.728  10.782 -0.2703 -0.8052 -1.0792
15094SOL     OW54059   9.971   9.665   3.880  0.3867  0.6825 -0.1679
15094SOL    HW154060   9.921   9.630   3.954 -1.9329 -0.1873 -2.0352
15094SOL    HW254061   9.932   9.624   3.803  2.6051  1.6714 -1.9312
15095SOL     OW54062   9.234   1.882   8.436  0.2435 -0.2525 -0.4202
15095SOL    HW154063   9.223   1.828   8.514  0.8522 -0.1026 -0.2307
15095SOL    HW254064   9.203   1.826   8.364 -0.1153 -0.4648 -0.1024
15096SOL     OW54065   3.559   4.215   0.710  0.0484 -0.2418 -0.0224
15096SOL    HW154066   3.517   4.129   0.709 -2.0051  0.6750  1.1023
15096SOL    HW254067   3.579   4.231   0.802 -0.0281  0.6570 -0.1474
15097SOL     OW54068   1.645   3.895   8.600 -0.1616  0.4228 -0.3458
15097SOL    HW154069   1.551   3.903   8.586 -0.3758 -2.1971 -0.9672
15097SOL    HW254070   1.683   3.906   8.513 -0.0718 -0.2233 -0.3949
15098SOL     OW54071   6.887   0.963   3.111  0.0785 -0.7888 -0.3592
15098SOL    HW154072   6.967   1.002   3.077 -0.0180 -0.8126 -0.6128
15098SOL    HW254073   6.917   0.888   3.163  0.3024 -0.0588  0.5898
15099SOL     OW54074   2.534   9.949   2.871  0.3876  0.0167  0.4792
15099SOL    HW154075   2.534   9.965   2.966  1.2608  1.2200  0.2955
15099SOL    HW254076   2.601  10.008   2.837 -0.4732  0.1926 -0.9887
15100SOL     OW54077  11.842   4.317   6.005 -0.6320 -0.4872 -0.5022
15100SOL    HW154078  11.915   4.289   5.950 -2.1093 -0.1866 -2.7071
15100SOL    HW254079  11.841   4.412   5.998 -1.0060 -0.4605 -0.1702
15101SOL     OW54080   9.499   8.279   0.224 -0.0848  0.6571  0.5548
15101SOL    HW154081   9.504   8.209   0.289  2.1003 -1.6648 -1.8855
15101SOL    HW254082   9.582   8.326   0.231 -0.5387  1.4898  0.5416
15102SOL     OW54083   0.488   2.276   8.161 -0.3715 -0.3264 -0.0698
15102SOL    HW154084   0.544   2.339   8.116 -1.1802 -0.0942 -0.7764
15102SOL    HW254085   0.411   2.267   8.104 -0.7545 -1.1297  0.5564
15103SOL     OW54086   0.726   8.996  10.318 -0.3702 -0.0237 -0.4305
15103SOL    HW154087   0.791   8.930  10.297  0.7331  1.4315 -1.7498
15103SOL    HW254088   0.734   9.008  10.413 -0.3681 -1.5069 -0.2190
15104SOL     OW54089   6.068   9.643   7.201  0.0060  0.6285 -0.2330
15104SOL    HW154090   5.983   9.656   7.244 -0.6049 -0.5364 -1.0481
15104SOL    HW254091   6.132   9.651   7.272 -0.8461  0.7281  0.5365
15105SOL     OW54092   9.359   7.970  10.260  0.0924 -0.0508 -0.0579
15105SOL    HW154093   9.328   7.977  10.170 -0.0677  2.9330  0.1398
15105SOL    HW254094   9.353   8.059  10.295  3.0322 -0.4839  1.9403
15106SOL     OW54095   5.764   4.924   9.471  0.6359  0.1462 -0.3331
15106SOL    HW154096   5.749   4.992   9.537  1.8173  0.0654  0.0586
15106SOL    HW254097   5.687   4.867   9.476  0.1432  0.8397  0.1039
15107SOL     OW54098  10.709  10.783  12.164  0.4001 -0.0918  0.0013
15107SOL    HW154099  10.775  10.842  12.202  0.8919 -1.1990  0.9344
15107SOL    HW254100  10.750  10.751  12.083  1.4297 -1.4234  0.9895
15108SOL     OW54101   5.811   5.281   4.486  0.1047  0.3704 -0.0718
15108SOL    HW154102   5.849   5.194   4.497 -1.8183 -0.6567 -1.0578
15108SOL    HW254103   5.866   5.324   4.421  0.4001 -0.5475 -0.4412
15109SOL     OW54104   8.849   7.056   9.939  0.1358 -0.0236  0.2692
15109SOL    HW154105   8.766   7.010   9.952  0.0952 -0.6953 -1.9621
15109SOL    HW254106   8.846   7.130  10.000 -1.6855 -0.5562  0.8738
15110SOL     OW54107   4.726   5.765   7.973  0.1404  0.3907 -0.0238
15110SOL    HW154108   4.727   5.758   7.878 -0.9094  0.1437 -0.0277
15110SOL    HW254109   4.783   5.840   7.992  1.0060 -0.0540 -0.7845
15111SOL     OW54110   5.751   2.901  11.080 -0.1537  0.2454 -0.1079
15111SOL    HW154111   5.823   2.936  11.133  1.0192  0.8459 -2.0010
15111SOL    HW254112   5.727   2.819  11.123  0.0496  1.1754  1.9038
15112SOL     OW54113   9.300   8.508   1.730  0.4249  0.0995  0.0367
15112SOL    HW154114   9.311   8.483   1.822  1.0190 -1.0040 -0.3244
15112SOL    HW254115   9.388   8.531   1.701 -0.1253  3.1406  0.4617
15113SOL     OW54116   5.056   4.051   5.732  0.2168 -0.3626 -0.3906
15113SOL    HW154117   4.983   4.074   5.790  0.0808  0.9620 -1.0343
15113SOL    HW254118   5.134   4.085   5.777  0.4074 -1.4174  0.1051
15114SOL     OW54119  10.087   4.816   2.306 -0.1431 -0.1088 -0.2029
15114SOL    HW154120  10.091   4.812   2.211  1.1886  0.9415 -0.2191
15114SOL    HW254121  10.167   4.773   2.336 -0.1858  0.2281  0.4166
15115SOL     OW54122  11.543   0.616   8.447 -0.8565  0.2567  0.2813
15115SOL    HW154123  11.497   0.536   8.471 -2.1163  0.7575 -0.3959
15115SOL    HW254124  11.480   0.687   8.465  0.4336  1.1750  1.4400
15116SOL     OW54125   3.685   9.031   8.280  0.3003  0.4363 -0.6733
15116SOL    HW154126   3.743   8.965   8.241  0.6306  0.4016 -0.1277
15116SOL    HW254127   3.628   8.980   8.338  0.1606  0.5584 -0.7029
15117SOL     OW54128   3.482   1.061  11.353  0.2647 -0.0152 -0.1747
15117SOL    HW154129   3.500   1.108  11.434  0.5873  0.2533 -0.3970
15117SOL    HW254130   3.386   1.057  11.348  0.1546  2.1082 -0.9648
15118SOL     OW54131  11.087  11.395   6.382 -0.5182  0.3865 -0.0108
15118SOL    HW154132  11.043  11.477   6.403  1.8444  1.7023  0.2525
15118SOL    HW254133  11.161  11.421   6.327  0.7256 -1.4381  0.6764
15119SOL     OW54134   9.488   4.817   9.677 -0.2456  0.0346  0.6363
15119SOL    HW154135   9.551   4.885   9.702  0.4285  0.0747 -1.0480
15119SOL    HW254136   9.437   4.857   9.607  0.4526 -1.3382 -0.6903
15120SOL     OW54137   0.963   1.285  10.787 -0.2499  0.8011  0.2072
15120SOL    HW154138   0.869   1.266  10.783 -0.1880  0.1945  1.0946
15120SOL    HW254139   0.971   1.350  10.857  0.0148  0.6161  0.3501
15121SOL     OW54140   7.348  12.319   1.159  0.3741 -0.2495  0.6724
15121SOL    HW154141   7.394  12.315   1.243  2.0903 -1.5900 -0.2521
15121SOL    HW254142   7.378  12.400   1.119  0.2006 -0.0219  0.9971
15122SOL     OW54143   3.828   4.168   8.782 -0.2438 -0.6610 -0.2890
15122SOL    HW154144   3.740   4.200   8.765  0.7250  1.7138 -1.3163
15122SOL    HW254145   3.819   4.074   8.791 -3.0391 -0.3676  0.8014
15123SOL     OW54146   3.091   9.788   8.412 -0.3743  0.2123  0.1042
15123SOL    HW154147   3.173   9.749   8.441  0.0506  2.2432  1.9688
15123SOL    HW254148   3.038   9.794   8.492 -2.0960 -0.4407 -0.9396
15124SOL     OW54149  11.379   3.476   2.150  0.4638  0.5063  0.2007
15124SOL    HW154150  11.343   3.451   2.234  0.9328  0.3963  0.3711
15124SOL    HW254151  11.474   3.475   2.163  0.5206  2.2182  0.1880
15125SOL     OW54152   0.519   2.925   5.914  0.4199 -0.5781 -0.2152
15125SOL    HW154153   0.575   2.848   5.918  0.7898 -0.2525  1.8393
15125SOL    HW254154   0.557   2.978   5.844  0.0337 -2.2882 -1.8028
15126SOL     OW54155   4.485   0.971  12.398 -0.2011  0.2812 -0.3416
15126SOL    HW154156   4.427   1.042  12.371  0.2106  0.4916 -0.7050
15126SOL    HW254157   4.559   1.016  12.440  0.8011  0.2022 -1.9282
15127SOL     OW54158   5.226   6.282   6.093  0.5571  0.2928  0.2127
15127SOL    HW154159   5.210   6.249   6.181  1.1215  2.4332  1.1867
15127SOL    HW254160   5.319   6.266   6.077  0.7663  1.1083  0.5722
15128SOL     OW54161   0.665   9.328   9.019 -0.3732  0.1828 -0.1224
15128SOL    HW154162   0.749   9.359   8.985 -0.7750  1.6277  0.1435
15128SOL    HW254163   0.599   9.371   8.965 -0.9671 -0.2395  0.2432
15129SOL     OW54164   8.352  11.305  11.481  0.2488  0.2895  0.1549
15129SOL    HW154165   8.303  11.254  11.545 -0.0167 -1.7755 -1.5953
15129SOL    HW254166   8.368  11.245  11.409  0.0856  2.6409 -1.9721
15130SOL     OW54167   2.926  12.510   7.440  0.4411 -0.0075 -0.6369
15130SOL    HW154168   2.981  12.479   7.512 -0.7171  0.3719  0.4426
15130SOL    HW254169   2.864  12.439   7.424  1.3990 -0.5603 -2.0545
15131SOL     OW54170   2.656   7.070  11.078 -0.3372  0.3428  0.3124
15131SOL    HW154171   2.687   7.056  10.988  1.0161  1.4087  0.5773
15131SOL    HW254172   2.593   7.142  11.071 -1.1091 -0.3492  0.0683
15132SOL     OW54173  11.070   0.957   4.838  0.1677 -0.2097  0.2168
15132SOL    HW154174  11.127   0.887   4.805 -1.9494 -2.4780  1.0533
15132SOL    HW254175  10.995   0.955   4.779 -0.0097  1.3106  0.3648
15133SOL     OW54176   0.559   1.526   6.618  0.0023 -0.0361 -0.3508
15133SOL    HW154177   0.645   1.485   6.616  0.2254  0.4348 -0.4091
15133SOL    HW254178   0.513   1.481   6.689  0.7045  0.5132  0.4710
15134SOL     OW54179   6.212   6.854  11.355 -0.4185 -0.2488  0.3527
15134SOL    HW154180   6.295   6.817  11.386 -0.3737 -1.4262 -1.0639
15134SOL    HW254181   6.196   6.929  11.413  1.0984 -0.6177  1.3080
15135SOL     OW54182  10.892   2.181   7.875 -0.7590 -0.1061 -0.2541
15135SOL    HW154183  10.825   2.245   7.896  1.6636  2.3123  0.7617
15135SOL    HW254184  10.936   2.216   7.797  0.7300 -0.3750  0.4166
15136SOL     OW54185  11.749   7.093  11.452 -0.1280 -0.3395  0.5193
15136SOL    HW154186  11.689   7.128  11.387 -0.3629  0.0907  0.9623
15136SOL    HW254187  11.795   7.022  11.407  0.3146  0.5003 -0.3764
15137SOL     OW54188   7.394   1.358   3.878 -0.7431 -0.2816 -0.5438
15137SOL    HW154189   7.396   1.382   3.970 -1.9924 -0.9476 -0.3158
15137SOL    HW254190   7.304   1.327   3.863 -0.4760 -0.4750 -1.9033
15138SOL     OW54191   2.962   3.052   8.529 -0.1428  0.4627  0.4635
15138SOL    HW154192   2.883   3.100   8.555  0.4731  0.6419  2.0788
15138SOL    HW254193   3.013   3.115   8.478 -0.9779  0.3631 -0.5440
15139SOL     OW54194   8.430   3.812   2.944  0.2806  0.2613  0.0006
15139SOL    HW154195   8.486   3.734   2.938  1.5834  1.1880 -0.3952
15139SOL    HW254196   8.475   3.878   2.892  0.3123  1.9042  1.9714
15140SOL     OW54197   4.482  10.614   9.855  0.4601 -0.5147  0.3051
15140SOL    HW154198   4.461  10.534   9.903  0.6657 -0.5452  0.3450
15140SOL    HW254199   4.416  10.677   9.885 -1.1573 -1.2956 -1.4275
15141SOL     OW54200   2.953   7.155   2.457  0.3740 -0.0630  0.1252
15141SOL    HW154201   3.047   7.169   2.462  0.4341 -0.7229  1.0728
15141SOL    HW254202   2.915   7.242   2.472  0.7711 -0.3660  3.7987
15142SOL     OW54203   3.071   4.858   4.045  0.0802 -0.3670  0.3532
15142SOL    HW154204   3.122   4.908   4.108  0.3064  0.6916 -0.6247
15142SOL    HW254205   3.131   4.790   4.015  0.7882  0.5373 -0.3887
15143SOL     OW54206   1.834   4.388   9.268 -0.0018 -0.1243 -0.5272
15143SOL    HW154207   1.907   4.379   9.206  1.0529  0.3374  0.6039
15143SOL    HW254208   1.768   4.327   9.236  0.8374 -0.4820 -1.6454
15144SOL     OW54209   6.222   5.448   2.518 -0.1037 -0.2376  0.1773
15144SOL    HW154210   6.273   5.490   2.449  0.7287 -1.7976 -0.2093
15144SOL    HW254211   6.206   5.517   2.582  0.2489  0.9185 -0.9388
15145SOL     OW54212   7.296  11.846   2.778  0.8034 -0.0761 -0.1883
15145SOL    HW154213   7.330  11.782   2.715  0.5137 -0.3195 -0.1002
15145SOL    HW254214   7.329  11.930   2.747 -1.6699  0.2082 -2.3108
15146SOL     OW54215   4.016   8.676   5.980  0.0845  0.1965  0.2918
15146SOL    HW154216   4.015   8.709   6.070  0.0528 -0.8792  0.6961
15146SOL    HW254217   4.108   8.682   5.954  0.2637 -0.4169  0.7561
15147SOL     OW54218  12.513   0.499   2.438 -0.4571  0.2387 -0.1844
15147SOL    HW154219  12.540   0.424   2.491  0.5312 -0.6242 -1.8168
15147SOL    HW254220  12.556   0.574   2.479 -1.2859 -0.0883  1.3525
15148SOL     OW54221  10.366   6.327   8.728  0.4603  0.2490  0.8197
15148SOL    HW154222  10.412   6.244   8.732 -1.6732 -0.9610  1.8340
15148SOL    HW254223  10.368   6.361   8.817  0.1169  0.5931  0.7023
15149SOL     OW54224   6.240   9.032   8.690 -0.1695 -0.7140 -0.2072
15149SOL    HW154225   6.292   9.103   8.727 -2.4796  0.9094  0.1319
15149SOL    HW254226   6.237   9.051   8.596 -0.9416 -0.2030 -0.0922
15150SOL     OW54227   0.473   2.537   2.761 -0.0239 -0.5049  0.1835
15150SOL    HW154228   0.399   2.563   2.816 -0.3872  0.9014 -0.9262
15150SOL    HW254229   0.546   2.589   2.794 -0.5471  1.3979 -1.4508
15151SOL     OW54230   0.327   3.581   4.191 -0.1391  0.3198  0.0119
15151SOL    HW154231   0.253   3.557   4.135  0.7357 -0.3790 -0.8809
15151SOL    HW254232   0.359   3.663   4.154  1.1126 -0.6843 -1.2541
15152SOL     OW54233  11.224   9.889  10.427 -0.2369  0.2761 -0.0265
15152SOL    HW154234  11.163   9.818  10.405 -0.0675  0.2919 -0.5454
15152SOL    HW254235  11.248   9.871  10.518  1.4136 -1.5419 -0.7646
15153SOL     OW54236  11.202   2.952  10.625 -0.2494 -0.4351 -0.4650
15153SOL    HW154237  11.227   2.859  10.627 -0.0765 -0.4092 -1.3345
15153SOL    HW254238  11.199   2.977  10.718  0.6163 -1.0680 -0.2514
15154SOL     OW54239   9.440  11.494  11.052 -0.3837 -0.2376  0.4243
15154SOL    HW154240   9.403  11.566  11.103  0.6317 -0.1445  1.0656
15154SOL    HW254241   9.525  11.527  11.021  0.2327 -1.2460  0.9850
15155SOL     OW54242  11.830   5.917   5.866  0.6072 -0.4360 -1.1315
15155SOL    HW154243  11.765   5.971   5.820  0.5742  0.3547 -0.1738
15155SOL    HW254244  11.907   5.973   5.874 -0.2061  0.3853  1.9523
15156SOL     OW54245  12.328  10.891   4.812 -0.0018 -0.0875 -0.2551
15156SOL    HW154246  12.273  10.932   4.878 -0.6129 -0.0996 -0.7477
15156SOL    HW254247  12.410  10.873   4.857 -0.4403 -0.1796  0.5201
15157SOL     OW54248   3.011   7.687  10.879 -0.3989 -0.1463  0.1263
15157SOL    HW154249   3.089   7.705  10.826  0.1808 -1.5988  0.4423
15157SOL    HW254250   2.966   7.771  10.884  0.8905  0.6168 -0.4743
15158SOL     OW54251  10.452   2.830  10.222 -0.0195  0.6738  0.0234
15158SOL    HW154252  10.518   2.876  10.170  0.0648  0.5912  0.0571
15158SOL    HW254253  10.397   2.899  10.258  0.3666  0.7762  0.4234
15159SOL     OW54254   6.416   3.164  11.619  0.2292  0.5569 -0.4416
15159SOL    HW154255   6.384   3.077  11.643 -0.2235  0.9454  0.4292
15159SOL    HW254256   6.344   3.222  11.641  0.2790  1.0935 -1.6316
15160SOL     OW54257   6.698   9.675  10.935  0.6027 -0.4158 -0.4721
15160SOL    HW154258   6.653   9.758  10.924 -0.6447 -0.9413  0.4437
15160SOL    HW254259   6.767   9.694  10.999  1.2516  0.2332 -1.3522
15161SOL     OW54260   9.506   3.532   1.504 -0.2114 -0.0436  0.9770
15161SOL    HW154261   9.530   3.551   1.414 -0.3958  1.0184  1.1334
15161SOL    HW254262   9.520   3.615   1.550  0.9563 -0.8585  2.1580
15162SOL     OW54263  10.538   1.993   6.709  0.2425 -0.0990 -0.2531
15162SOL    HW154264  10.590   2.069   6.736  0.4679 -0.0245 -0.8892
15162SOL    HW254265  10.475   2.027   6.647  0.8182 -0.5420 -1.1008
15163SOL     OW54266   9.918   2.091   7.936 -0.3659 -0.2545  0.1443
15163SOL    HW154267   9.898   2.110   8.028  0.5026 -1.0640  0.5126
15163SOL    HW254268   9.924   1.996   7.932  2.6448 -0.1561 -0.0540
15164SOL     OW54269   2.007   4.175   1.497 -0.0073 -0.4635  0.7102
15164SOL    HW154270   2.043   4.236   1.433 -0.8873  0.0718  0.7077
15164SOL    HW254271   1.956   4.114   1.445 -0.9743  0.1539  0.9075
15165SOL     OW54272  11.793   7.651   0.301 -0.1512  0.1158 -0.7279
15165SOL    HW154273  11.865   7.595   0.329 -0.6330 -0.7989 -1.2653
15165SOL    HW254274  11.739   7.594   0.246 -0.6870  1.0960 -1.2395
15166SOL     OW54275  11.249   1.350   0.598  0.5416 -0.1403  0.5410
15166SOL    HW154276  11.170   1.298   0.585  0.9534 -0.6451 -0.0003
15166SOL    HW254277  11.307   1.295   0.651  1.9875 -1.3677 -2.0767
15167SOL     OW54278   3.278  11.497   4.942  0.1302 -0.1927 -0.7854
15167SOL    HW154279   3.224  11.495   5.021 -1.9379  3.3852 -1.8887
15167SOL    HW254280   3.227  11.448   4.876  0.5717 -0.8559 -0.6514
15168SOL     OW54281   3.284   5.355   4.507  0.0405 -0.0892 -0.0415
15168SOL    HW154282   3.241   5.350   4.593  0.0995 -0.4305 -0.0270
15168SOL    HW254283   3.214   5.371   4.445 -0.0408 -0.1199  0.0426
15169SOL     OW54284  11.165  12.557   9.382  0.3855  0.1760 -0.0840
15169SOL    HW154285  11.080  12.597   9.403  0.6619  0.9671 -0.4434
15169SOL    HW254286  11.191  12.514   9.464 -0.2986  0.0326  0.0706
15170SOL     OW54287   1.269  11.749   9.746 -0.4666  0.3719  0.1593
15170SOL    HW154288   1.263  11.799   9.664  0.3735 -1.6716 -1.2311
15170SOL    HW254289   1.363  11.746   9.764 -0.6062  0.3235  0.8911
15171SOL     OW54290  11.873   3.679   2.156 -0.0333  0.0643  0.2349
15171SOL    HW154291  11.943   3.622   2.187 -0.7988 -2.3814 -2.0686
15171SOL    HW254292  11.913   3.730   2.086 -0.0426  0.1965  0.3271
15172SOL     OW54293  11.599  11.633   5.966  0.9028 -0.0196 -0.1763
15172SOL    HW154294  11.614  11.723   5.995 -1.8976  0.8132 -1.0401
15172SOL    HW254295  11.531  11.640   5.900  1.1620 -2.7345 -0.8457
15173SOL     OW54296   4.730   3.991   5.058 -0.9948 -0.4146 -0.1110
15173SOL    HW154297   4.669   4.030   4.995 -0.0308  0.7340 -0.3538
15173SOL    HW254298   4.710   4.034   5.141  0.2973  0.9260 -0.4480
15174SOL     OW54299   8.436   3.718  11.427 -0.0159  0.5191 -0.5996
15174SOL    HW154300   8.376   3.652  11.462  0.9129 -0.2040 -0.3131
15174SOL    HW254301   8.424   3.794  11.483 -0.2162  0.1636 -0.1482
15175SOL     OW54302   7.002   3.851   2.610 -0.2451  0.3916 -0.0647
15175SOL    HW154303   6.935   3.799   2.565 -1.0304 -0.3145  1.8020
15175SOL    HW254304   6.962   3.937   2.621 -0.7792  0.0318  0.8638
15176SOL     OW54305   8.515  11.574   0.338 -0.4239 -0.0899  0.0708
15176SOL    HW154306   8.502  11.652   0.392 -0.8597 -0.8148  1.0532
15176SOL    HW254307   8.430  11.556   0.299 -0.6404 -0.7272  0.7934
15177SOL     OW54308   4.833   5.165   4.382 -0.3893 -0.0807 -0.7679
15177SOL    HW154309   4.755   5.162   4.437 -0.2163  1.8873 -0.3581
15177SOL    HW254310   4.903   5.193   4.441  0.2011  0.1570 -1.5640
15178SOL     OW54311   0.431   3.143   6.729  0.3943  0.9851  0.6461
15178SOL    HW154312   0.374   3.072   6.699  0.8681  0.3200  1.2896
15178SOL    HW254313   0.373   3.218   6.739 -0.4619  0.2190  1.6589
15179SOL     OW54314   3.685   6.962   5.059 -0.0302 -0.3342  0.2697
15179SOL    HW154315   3.734   6.903   5.002  0.3728  0.0446  0.2248
15179SOL    HW254316   3.600   6.972   5.017 -0.2105 -1.1256  0.4331
15180SOL     OW54317  10.597   3.507   4.078 -0.0977  0.2964  0.2242
15180SOL    HW154318  10.630   3.592   4.107  0.9201  0.2487 -0.6916
15180SOL    HW254319  10.658   3.444   4.116 -0.5842  0.0131  0.5303
15181SOL     OW54320   8.967   0.178  12.075 -0.2052  0.4817  0.0171
15181SOL    HW154321   8.969   0.271  12.098 -0.6277  0.5216 -0.0941
15181SOL    HW254322   8.875   0.160  12.056 -0.2701 -0.1737  0.9090
15182SOL     OW54323   4.502   1.356   5.939 -0.3475  0.2033 -0.1150
15182SOL    HW154324   4.464   1.270   5.925  1.8444 -0.9035  0.3429
15182SOL    HW254325   4.452   1.414   5.881 -1.3580 -1.4918 -1.0059
15183SOL     OW54326   6.709   5.754   9.358 -0.2122 -0.4194 -0.2876
15183SOL    HW154327   6.704   5.818   9.288  2.0972 -1.4886 -1.5648
15183SOL    HW254328   6.770   5.792   9.421  0.9165 -1.1536 -0.8950
15184SOL     OW54329   9.905   1.554   1.867  0.2149  0.1280  0.5302
15184SOL    HW154330   9.835   1.492   1.887  1.3333 -1.2802  0.2254
15184SOL    HW254331   9.887   1.582   1.777 -0.4852  0.5120  0.7862
15185SOL     OW54332   0.569  10.567   5.911 -0.0368  0.1503 -0.4641
15185SOL    HW154333   0.582  10.625   5.986  1.3472 -1.1517  0.3550
15185SOL    HW254334   0.641  10.586   5.852 -0.4307  0.3043 -0.9058
15186SOL     OW54335   4.057  11.335   4.493 -0.0233 -0.1768 -0.3315
15186SOL    HW154336   4.119  11.318   4.422 -0.6004  0.0724 -0.9057
15186SOL    HW254337   4.018  11.250   4.513  0.1665 -0.2530 -0.2848
15187SOL     OW54338   6.855   9.893   9.355 -0.3690 -0.0370 -0.5380
15187SOL    HW154339   6.866   9.902   9.450  0.3413 -0.6082 -0.5570
15187SOL    HW254340   6.826   9.979   9.326 -2.2463 -0.3140  0.4167
15188SOL     OW54341   2.775   0.495   0.006  0.0072  0.0785 -0.8374
15188SOL    HW154342   2.760   0.447  -0.076 -2.6575 -1.9702  0.7108
15188SOL    HW254343   2.705   0.560   0.009 -0.3882 -0.3744  0.1317
15189SOL     OW54344   7.748   4.697   6.562  0.0112  0.3449  0.4130
15189SOL    HW154345   7.800   4.723   6.486  1.5381 -0.8015  1.0301
15189SOL    HW254346   7.669   4.752   6.556  0.6940  1.2324 -1.2391
15190SOL     OW54347  10.522   6.838  12.148  0.2242 -0.0917  0.2240
15190SOL    HW154348  10.519   6.750  12.186 -1.1252 -0.5185 -0.8104
15190SOL    HW254349  10.441   6.880  12.179  0.3957  0.4649 -0.0693
15191SOL     OW54350   1.534   7.864   1.896  0.1953  0.7993 -0.3629
15191SOL    HW154351   1.551   7.902   1.982  0.2216  2.7932 -1.2065
15191SOL    HW254352   1.614   7.815   1.875  0.4696  0.8955  0.4252
15192SOL     OW54353  11.879   7.765   5.689  0.0015  0.6316  0.0041
15192SOL    HW154354  11.833   7.822   5.628 -1.1597  0.5577  0.7928
15192SOL    HW254355  11.810   7.718   5.736  0.9096 -0.4657  0.2810
15193SOL     OW54356  11.078  10.836   1.707  0.1369  0.4160 -0.8463
15193SOL    HW154357  11.162  10.830   1.753 -1.0735  1.3519  1.6561
15193SOL    HW254358  11.052  10.928   1.717 -1.2086  0.1391 -1.5571
15194SOL     OW54359   3.178   6.522   1.873  0.6208 -0.5063  0.0144
15194SOL    HW154360   3.218   6.586   1.931  0.2823 -0.2048 -0.0757
15194SOL    HW254361   3.218   6.539   1.787  0.2415 -0.1365 -0.0982
15195SOL     OW54362   4.353   0.909  10.054 -0.2659 -0.0239  0.1768
15195SOL    HW154363   4.277   0.862  10.089 -1.0608  1.0938 -0.0016
15195SOL    HW254364   4.358   0.988  10.108  0.1781  0.3766 -0.4472
15196SOL     OW54365   7.986   5.541   3.494  0.4633  0.2581 -0.0435
15196SOL    HW154366   7.994   5.623   3.446 -0.1217  0.3470  0.0110
15196SOL    HW254367   8.075   5.504   3.493  0.9178  1.2832  0.6484
15197SOL     OW54368  11.009   0.190  11.319  0.1289  0.1163  0.1082
15197SOL    HW154369  11.040   0.201  11.409 -3.2063  0.9893  1.3272
15197SOL    HW254370  10.929   0.243  11.315  0.2525  0.2542 -3.4728
15198SOL     OW54371   3.722   2.181   0.639  0.0431 -0.8550 -0.2666
15198SOL    HW154372   3.724   2.177   0.543 -2.6561 -1.3320 -0.4029
15198SOL    HW254373   3.639   2.138   0.662  0.5682 -0.6292  2.2878
15199SOL     OW54374   9.919   0.772   5.971  0.1831 -0.2958 -0.7338
15199SOL    HW154375   9.923   0.766   6.067  1.3056 -0.4650 -0.7872
15199SOL    HW254376   9.840   0.723   5.949 -1.2102  1.3963  0.2216
15200SOL     OW54377   8.702   1.922   9.704  0.1372 -0.0724 -0.1412
15200SOL    HW154378   8.660   1.911   9.789  0.4902 -1.0211 -0.0788
15200SOL    HW254379   8.712   1.833   9.670  0.7070  0.2420 -0.8300
15201SOL     OW54380   6.863   1.575   5.631  0.7635 -0.1041 -0.1505
15201SOL    HW154381   6.839   1.665   5.652 -0.9639 -0.2484 -1.3392
15201SOL    HW254382   6.903   1.580   5.544 -1.1701 -0.6762 -1.1294
15202SOL     OW54383   1.557   8.692  10.463  0.3790 -0.1996 -0.1858
15202SOL    HW154384   1.604   8.758  10.411 -0.0881  0.0361 -0.3183
15202SOL    HW254385   1.476   8.676  10.414  0.9143 -1.5860 -0.6550
15203SOL     OW54386   3.802   3.656   7.452  1.0140 -0.0956 -0.6796
15203SOL    HW154387   3.833   3.742   7.423  1.6373  0.4322  1.3928
15203SOL    HW254388   3.731   3.634   7.391  0.8387  1.8844 -1.2572
15204SOL     OW54389   2.706  10.562  11.649  0.2704  0.2735  0.4909
15204SOL    HW154390   2.717  10.509  11.569 -1.2306 -0.1858  0.5572
15204SOL    HW254391   2.697  10.652  11.617 -3.4113 -0.1754 -0.2452
15205SOL     OW54392   8.274  12.447  12.570  0.3892  0.5355 -0.1580
15205SOL    HW154393   8.225  12.441  12.487  0.6289  0.4345 -0.2951
15205SOL    HW254394   8.303  12.357  12.586 -0.3750  0.3904  0.4817
15206SOL     OW54395   6.370   1.735  10.146  0.1612 -0.2781  0.6036
15206SOL    HW154396   6.341   1.659  10.095 -0.2320  0.1343  0.1927
15206SOL    HW254397   6.369   1.705  10.237  0.8669 -1.0261  0.3816
15207SOL     OW54398  11.121   9.845  12.278 -0.1473 -0.5049  0.1307
15207SOL    HW154399  11.095   9.937  12.268  1.7848 -0.0970 -1.9940
15207SOL    HW254400  11.039   9.797  12.284 -1.2730  1.1900 -0.8876
15208SOL     OW54401  10.469   6.422   9.137  0.8070  0.7274  0.0266
15208SOL    HW154402  10.526   6.452   9.066  0.5401 -0.2190 -0.5982
15208SOL    HW254403  10.486   6.484   9.209  2.5134  0.5366 -0.1836
15209SOL     OW54404  11.025   6.299  11.698  0.1725  0.6394 -0.3170
15209SOL    HW154405  11.102   6.304  11.642  0.7752  0.5168  0.4826
15209SOL    HW254406  10.992   6.389  11.702  0.1290  0.6468 -0.8620
15210SOL     OW54407   2.769   5.472   0.433 -0.2697 -0.3770 -0.0034
15210SOL    HW154408   2.850   5.422   0.427 -0.3218 -0.8715  2.2599
15210SOL    HW254409   2.702   5.414   0.398  0.0976 -0.6606 -0.2490
15211SOL     OW54410   0.309  10.039   1.469  0.2474  0.0706 -0.6040
15211SOL    HW154411   0.382  10.083   1.424  0.4484  0.3876  0.0284
15211SOL    HW254412   0.310  10.074   1.558  0.1889 -0.9435 -0.1833
15212SOL     OW54413   7.157   7.492   3.309 -0.9670  0.4910 -0.3256
15212SOL    HW154414   7.208   7.413   3.288 -1.9149  0.2074 -1.7411
15212SOL    HW254415   7.102   7.466   3.383 -0.6940  0.0881 -0.2595
15213SOL     OW54416   3.465   2.601   6.067 -0.1606 -0.0152 -0.2807
15213SOL    HW154417   3.450   2.533   6.001  0.4597  0.8555 -1.3464
15213SOL    HW254418   3.495   2.677   6.017  0.5201  0.6102  1.0291
15214SOL     OW54419   6.805   8.646   2.879  0.5528 -0.2397  0.5966
15214SOL    HW154420   6.777   8.731   2.914 -0.4178 -1.1789  2.2284
15214SOL    HW254421   6.896   8.638   2.907  1.0418  0.7601 -0.6170
15215SOL     OW54422   3.449  12.172   3.806  0.4724 -0.3064 -0.3229
15215SOL    HW154423   3.370  12.163   3.752  0.7298 -1.2769 -0.5474
15215SOL    HW254424   3.472  12.265   3.798  0.1200 -0.2920 -1.3339
15216SOL     OW54425   5.977   9.945   5.628 -0.2322 -0.2004  0.2371
15216SOL    HW154426   6.022   9.945   5.713 -1.5623  2.1986  1.0551
15216SOL    HW254427   5.886   9.963   5.650 -0.8572 -0.8803 -1.6462
15217SOL     OW54428   2.420  11.307   4.424  0.3394  0.0290 -0.0395
15217SOL    HW154429   2.355  11.244   4.455  0.2125  0.4684  0.6066
15217SOL    HW254430   2.499  11.285   4.474  0.9586 -1.0620 -1.4434
15218SOL     OW54431   5.372   2.367   3.476 -0.2195 -0.4833 -0.1778
15218SOL    HW154432   5.430   2.428   3.522  0.0332  0.3680 -1.5853
15218SOL    HW254433   5.284   2.396   3.500 -0.1245  1.0794 -1.5847
15219SOL     OW54434   8.935  11.461   2.385  0.0890  0.2191  0.4519
15219SOL    HW154435   8.892  11.510   2.315 -1.3974 -0.2840  0.9752
15219SOL    HW254436   8.921  11.514   2.464 -0.4315 -0.4031  0.7939
15220SOL     OW54437   5.154  10.738   8.953 -0.1472 -0.1508 -0.1295
15220SOL    HW154438   5.105  10.769   9.030  0.1620  0.7060 -0.2657
15220SOL    HW254439   5.095  10.753   8.879  0.2263  0.6998 -0.2692
15221SOL     OW54440   2.813  11.157  12.094 -0.2149  0.3116 -0.0754
15221SOL    HW154441   2.800  11.067  12.065  0.4939  0.4586 -0.9040
15221SOL    HW254442   2.732  11.202  12.069 -1.1407 -0.3636  1.5760
15222SOL     OW54443   9.140   8.453  11.644 -1.1914 -0.2170  0.3404
15222SOL    HW154444   9.215   8.460  11.702 -0.6918  0.2559 -0.3408
15222SOL    HW254445   9.142   8.533  11.592 -1.9197 -0.3979  0.0156
15223SOL     OW54446   9.318   5.432   0.467  0.3390 -0.8293 -0.4685
15223SOL    HW154447   9.251   5.369   0.441 -1.6104  1.0972 -0.3912
15223SOL    HW254448   9.269   5.508   0.499  2.5196  1.2214 -1.6645
15224SOL     OW54449   7.396   0.450   6.751  0.1061  0.2797 -0.5293
15224SOL    HW154450   7.469   0.503   6.719  1.6605 -0.9660  0.8217
15224SOL    HW254451   7.363   0.406   6.673  1.0904  0.5041 -1.0939
15225SOL     OW54452   3.352   6.443   7.597  0.4249 -0.0494  0.3047
15225SOL    HW154453   3.262   6.417   7.578  0.9371 -0.5498 -1.7765
15225SOL    HW254454   3.352   6.538   7.591 -0.0540 -0.0167  0.7906
15226SOL     OW54455   0.043   3.787   1.240  0.0166 -0.3985 -0.2730
15226SOL    HW154456   0.058   3.784   1.145  1.5609 -1.2162 -0.0328
15226SOL    HW254457   0.125   3.820   1.276 -0.4732 -0.3232  0.8020
15227SOL     OW54458   7.477   4.683   2.024  0.2135 -0.1657  0.1253
15227SOL    HW154459   7.562   4.727   2.018 -0.2778  0.6950 -1.0675
15227SOL    HW254460   7.493   4.596   1.987  0.9923 -0.7054  1.6703
15228SOL     OW54461   7.937   8.987   1.471 -0.0608  0.4513  1.4457
15228SOL    HW154462   7.970   9.071   1.440  1.0797 -1.1797 -2.4193
15228SOL    HW254463   8.011   8.949   1.519  1.1498 -0.0885 -0.7108
15229SOL     OW54464   5.050   0.632   1.251  0.0675  0.2078 -0.1492
15229SOL    HW154465   5.127   0.622   1.306  0.1333  0.5616 -0.1716
15229SOL    HW254466   5.074   0.699   1.187  0.2448 -0.6987 -1.0666
15230SOL     OW54467   6.036   8.199   7.236 -0.1234  0.1519 -0.2727
15230SOL    HW154468   6.046   8.226   7.145 -0.2150 -2.8123 -1.2688
15230SOL    HW254469   5.944   8.171   7.243  0.1970 -0.8036  0.3600
15231SOL     OW54470   3.458  10.747   7.152  0.0748  0.0434  0.7514
15231SOL    HW154471   3.516  10.715   7.221 -1.1442  0.2269  1.9013
15231SOL    HW254472   3.411  10.820   7.191  0.9688  1.6393 -1.0179
15232SOL     OW54473   7.390   7.933   1.187 -0.0736 -0.1883  0.6679
15232SOL    HW154474   7.427   8.019   1.207 -0.4020 -0.1745  1.2550
15232SOL    HW254475   7.346   7.907   1.268  1.0525 -1.4583  0.9146
15233SOL     OW54476   2.794   2.627   5.811  0.3125  0.5174 -0.6755
15233SOL    HW154477   2.879   2.637   5.767  1.3529 -0.1713  1.1000
15233SOL    HW254478   2.751   2.711   5.798  1.8569  1.3821 -0.4141
15234SOL     OW54479  11.626   8.814  10.310 -0.0341 -0.0445  0.3552
15234SOL    HW154480  11.648   8.856  10.393  0.2021  0.1129  0.2152
15234SOL    HW254481  11.709   8.810  10.262 -0.7072  3.1203 -1.3644
15235SOL     OW54482   4.987   7.799   3.682  0.3160  0.1565  0.0650
15235SOL    HW154483   5.031   7.858   3.621 -0.4477  0.3803 -0.2779
15235SOL    HW254484   4.940   7.737   3.626  0.7772 -0.5352  0.4235
15236SOL     OW54485   0.598  12.101   5.272 -0.2576 -0.0687  0.3195
15236SOL    HW154486   0.669  12.043   5.243  0.8515  0.7200  1.3717
15236SOL    HW254487   0.543  12.111   5.194  1.4246  0.2260 -0.9081
15237SOL     OW54488   0.774   8.748   5.631 -0.5547  0.4019  0.3008
15237SOL    HW154489   0.803   8.779   5.545 -1.5830  1.3797  0.2746
15237SOL    HW254490   0.780   8.825   5.687  0.2236 -0.2604  1.1505
15238SOL     OW54491   4.141   1.298   3.304  0.0072  0.0662  0.0102
15238SOL    HW154492   4.132   1.208   3.273  1.9391 -0.4240  0.7142
15238SOL    HW254493   4.213   1.334   3.251 -0.9944  1.3395 -0.5259
15239SOL     OW54494   3.375  11.621   3.667  0.0638 -0.3060  0.0164
15239SOL    HW154495   3.303  11.649   3.724  0.0918  0.5689 -0.3575
15239SOL    HW254496   3.426  11.701   3.652  0.1807 -0.5660 -1.0528
15240SOL     OW54497   3.934   5.600   5.982  0.1501  0.7369 -0.2825
15240SOL    HW154498   3.966   5.533   5.921 -1.4809  0.0242 -0.4180
15240SOL    HW254499   3.963   5.569   6.068 -0.9725 -0.4391 -0.2912
15241SOL     OW54500   4.185   4.918   7.083  0.2129  0.2094 -0.4263
15241SOL    HW154501   4.166   5.007   7.115  0.6098  0.5234 -1.0363
15241SOL    HW254502   4.238   4.932   7.005  1.1010 -0.6033  0.0214
15242SOL     OW54503   8.490   1.926   2.689 -0.1196 -0.2590 -0.3620
15242SOL    HW154504   8.555   1.984   2.648  0.8909 -1.3854 -0.3810
15242SOL    HW254505   8.408   1.946   2.642  0.2037  1.1360 -0.3787
15243SOL     OW54506   0.383   6.572   9.118  0.0153 -0.2423  0.3833
15243SOL    HW154507   0.338   6.491   9.095  0.2705 -0.1196 -0.6044
15243SOL    HW254508   0.397   6.566   9.212 -1.0848 -0.7726  0.5232
15244SOL     OW54509   4.014   1.929   9.846  0.0455 -0.2526 -0.7988
15244SOL    HW154510   4.083   1.865   9.864 -0.8042 -1.3591 -1.3706
15244SOL    HW254511   3.963   1.932   9.927 -0.6434 -1.2411 -1.1879
15245SOL     OW54512   8.299   8.155   4.228  1.0930  0.2868  0.1281
15245SOL    HW154513   8.355   8.230   4.208 -0.5095  1.7496  0.8977
15245SOL    HW254514   8.239   8.148   4.154  0.3958  0.6021  0.6533
15246SOL     OW54515  10.620   8.258  10.527 -0.7713  0.5336  0.0185
15246SOL    HW154516  10.667   8.326  10.576  0.6497  0.5995 -1.3606
15246SOL    HW254517  10.678   8.183  10.529 -0.2886  0.7718 -2.1543
15247SOL     OW54518   9.826  11.256   4.661  0.5742  0.3550  0.2792
15247SOL    HW154519   9.784  11.336   4.630  1.9293  1.1293  0.3707
15247SOL    HW254520   9.826  11.198   4.585  0.4945  0.8250 -0.0815
15248SOL     OW54521   7.292   8.759   3.143 -0.1632  0.4540  0.1873
15248SOL    HW154522   7.378   8.770   3.103 -1.0458  1.0569 -1.6879
15248SOL    HW254523   7.307   8.770   3.237  1.7932  0.4763 -0.0887
15249SOL     OW54524   2.767   1.870  10.382 -0.5688  0.4995 -0.2347
15249SOL    HW154525   2.802   1.787  10.414  0.0442  0.8766  0.0910
15249SOL    HW254526   2.673   1.866  10.400 -0.6279 -0.3404 -0.7026
15250SOL     OW54527   3.505   2.489   3.131  0.0331  0.4097 -0.0429
15250SOL    HW154528   3.439   2.459   3.193  1.0006  0.7882  1.2248
15250SOL    HW254529   3.585   2.444   3.157  0.4572  0.5280 -1.0756
15251SOL     OW54530   5.477  12.377  10.613 -0.2386 -0.1360  0.9388
15251SOL    HW154531   5.411  12.429  10.659 -1.7206  0.1733 -1.3942
15251SOL    HW254532   5.501  12.430  10.537 -0.4402 -2.0490 -0.5218
15252SOL     OW54533  12.357  10.447   5.752 -0.3001  0.0375  0.6618
15252SOL    HW154534  12.451  10.445   5.764  0.0770 -1.7285 -1.8130
15252SOL    HW254535  12.344  10.507   5.678 -1.4105  2.1529  2.4624
15253SOL     OW54536   4.946   0.537   2.378  0.3047  0.8390  0.2175
15253SOL    HW154537   4.968   0.572   2.464 -0.0202 -0.7794  0.9887
15253SOL    HW254538   4.943   0.442   2.390  1.5166  0.4731 -1.8752
15254SOL     OW54539   4.447   5.153   3.335  0.3176  0.1692 -0.0390
15254SOL    HW154540   4.385   5.126   3.268 -1.4133  0.4200  1.3668
15254SOL    HW254541   4.525   5.180   3.287  0.2642 -2.4120 -1.7690
15255SOL     OW54542   3.244   4.056   4.974  0.2417  0.2163 -0.0964
15255SOL    HW154543   3.191   3.996   4.921 -0.4081 -0.1909  0.9816
15255SOL    HW254544   3.198   4.060   5.058  0.6398  1.7063  0.0811
15256SOL     OW54545   6.839   7.599  10.495 -0.3415 -0.2316 -0.0306
15256SOL    HW154546   6.808   7.525  10.547  0.3251  0.4095  1.3281
15256SOL    HW254547   6.805   7.676  10.541 -1.9625  0.3279 -2.0286
15257SOL     OW54548   2.586   4.829   1.359 -0.0435  0.6066  0.2436
15257SOL    HW154549   2.572   4.748   1.410  0.5944 -0.4415 -1.1866
15257SOL    HW254550   2.631   4.887   1.420  1.0877 -0.7648  0.7873
15258SOL     OW54551   5.811  11.418   9.036  0.8110 -0.0236  0.3611
15258SOL    HW154552   5.758  11.457   8.967  2.7559  1.3221 -0.4461
15258SOL    HW254553   5.877  11.367   8.991 -0.3632 -2.5928  1.3781
15259SOL     OW54554   0.846   0.682   8.474 -0.2140  0.1683 -0.1644
15259SOL    HW154555   0.896   0.701   8.395 -0.4422 -0.6796 -0.5273
15259SOL    HW254556   0.912   0.668   8.541 -0.0227  1.1693 -0.1236
15260SOL     OW54557   3.264   7.293   6.197  0.0290 -0.4089  0.0331
15260SOL    HW154558   3.227   7.219   6.149  0.9008 -0.8316 -0.0027
15260SOL    HW254559   3.264   7.265   6.288 -0.2774 -0.1844  0.1002
15261SOL     OW54560  11.230   1.900  11.652  0.2465  0.9782  0.2630
15261SOL    HW154561  11.278   1.967  11.700 -3.0182  2.8202  1.2442
15261SOL    HW254562  11.241   1.924  11.560  0.2835  2.0676  0.5341
15262SOL     OW54563   5.075   3.169  11.428 -0.1048 -0.5322 -0.4189
15262SOL    HW154564   4.981   3.159  11.413 -0.3161 -1.1261  1.0658
15262SOL    HW254565   5.097   3.096  11.486  1.3077 -0.4631 -0.8272
15263SOL     OW54566  12.303  10.032   1.515  0.3186 -0.3314  0.8812
15263SOL    HW154567  12.282  10.095   1.584 -0.4645  0.6251 -0.2093
15263SOL    HW254568  12.222  10.022   1.465  0.8155 -1.1702  0.2166
15264SOL     OW54569   2.833   6.637  10.425 -0.0210 -0.1800 -0.1219
15264SOL    HW154570   2.785   6.719  10.427 -0.0960 -0.1946 -1.1076
15264SOL    HW254571   2.848   6.619  10.332  2.0649 -0.0793  0.1317
15265SOL     OW54572   3.021   3.345   3.374 -0.0930  0.3675  0.3093
15265SOL    HW154573   3.006   3.318   3.284  0.4018  0.1222  0.2913
15265SOL    HW254574   2.952   3.301   3.424 -1.0835  1.4414 -0.0845
15266SOL     OW54575   8.460   1.623  12.290  0.4417  0.1131  0.0248
15266SOL    HW154576   8.542   1.581  12.264 -0.1421 -1.6764  0.8787
15266SOL    HW254577   8.486   1.688  12.356  1.1949 -0.3496  0.2023
15267SOL     OW54578   5.321   9.679   6.860  0.0076 -0.2989 -0.1944
15267SOL    HW154579   5.342   9.703   6.769  2.2437 -0.0859  0.3035
15267SOL    HW254580   5.317   9.584   6.859 -1.8625 -0.2437 -0.8463
15268SOL     OW54581   4.763   9.319   1.274 -0.3445 -0.5454 -0.9342
15268SOL    HW154582   4.857   9.300   1.274 -0.5526 -1.6542 -0.4723
15268SOL    HW254583   4.751   9.380   1.347 -0.0468 -0.7947 -0.6723
15269SOL     OW54584  10.907   6.034   7.788  0.1333 -0.4440 -0.2325
15269SOL    HW154585  10.853   6.066   7.860  0.8545 -0.9063  0.5347
15269SOL    HW254586  10.990   6.011   7.829  0.5982 -0.6090 -1.2384
15270SOL     OW54587   5.792   3.503   5.005  0.7767  0.2162 -0.3340
15270SOL    HW154588   5.861   3.505   4.939  1.4618  0.4905  0.3716
15270SOL    HW254589   5.820   3.567   5.070  1.2933 -1.6030  1.3447
15271SOL     OW54590   2.175   9.260   6.266 -0.0671 -0.3098  0.4417
15271SOL    HW154591   2.132   9.188   6.220 -0.7547  0.4914 -0.1939
15271SOL    HW254592   2.103   9.314   6.298  0.3972 -0.6959  2.2502
15272SOL     OW54593  10.127   7.223  12.516 -0.2254 -0.1859 -0.0901
15272SOL    HW154594  10.180   7.301  12.535 -1.0723  0.3664  0.0710
15272SOL    HW254595  10.162   7.155  12.574  1.8580 -0.5397 -1.6253
15273SOL     OW54596  10.631   3.191  11.342 -0.4870  0.4161 -0.0427
15273SOL    HW154597  10.658   3.256  11.277 -2.0097 -0.1820 -1.3320
15273SOL    HW254598  10.708   3.136  11.355  0.4229  1.6878  0.1148
15274SOL     OW54599  10.720   5.456   7.815  0.4746 -0.5136 -0.1883
15274SOL    HW154600  10.797   5.499   7.852  1.4521 -1.1135 -1.4107
15274SOL    HW254601  10.657   5.527   7.802  1.1316  0.1378  0.0676
15275SOL     OW54602   6.416   8.203   2.903  0.0463 -0.5316  0.3595
15275SOL    HW154603   6.395   8.264   2.832 -2.7886 -0.5405  1.0511
15275SOL    HW254604   6.509   8.216   2.920  0.5715  0.2530 -2.5830
15276SOL     OW54605   3.868   5.722   0.621 -0.3701  0.4792  0.0810
15276SOL    HW154606   3.903   5.762   0.700 -0.7890  1.0615 -0.0233
15276SOL    HW254607   3.924   5.646   0.606  0.3666  0.9565  0.3464
15277SOL     OW54608  10.605   5.703   4.059  0.1040  0.2551  0.1084
15277SOL    HW154609  10.567   5.778   4.013  0.8547  0.7247  0.2421
15277SOL    HW254610  10.546   5.630   4.038 -0.6592  0.8854  0.0118
15278SOL     OW54611   4.953   8.057   7.019 -0.5502 -0.6607 -0.4162
15278SOL    HW154612   4.992   7.978   7.054  0.6018  0.2432  0.4152
15278SOL    HW254613   4.881   8.077   7.079 -1.0822 -1.2707 -0.8434
15279SOL     OW54614  11.957   7.263   3.980 -0.0324 -1.0077 -0.2894
15279SOL    HW154615  11.997   7.232   4.062 -1.1716 -1.4476  0.1190
15279SOL    HW254616  12.031   7.287   3.925  0.7774 -1.3035  0.6407
15280SOL     OW54617  11.288  11.378  11.373 -0.5926 -0.2241 -0.4483
15280SOL    HW154618  11.234  11.457  11.366 -1.5555 -0.8303  0.0167
15280SOL    HW254619  11.361  11.405  11.429 -2.1240 -0.2643  1.7025
15281SOL     OW54620   5.731   9.505   6.378 -0.0128 -0.4330 -0.0930
15281SOL    HW154621   5.704   9.572   6.314  1.0198  0.0045 -0.0869
15281SOL    HW254622   5.810   9.467   6.340 -0.4525 -1.4849  0.0313
15282SOL     OW54623   1.066   3.070   3.081 -0.2871 -0.1802 -0.1913
15282SOL    HW154624   1.155   3.041   3.060  0.0477  0.3224  0.4693
15282SOL    HW254625   1.070   3.165   3.074 -0.2195  0.0110  1.7296
15283SOL     OW54626  12.459   7.101   3.199  0.4298 -0.6156  0.6754
15283SOL    HW154627  12.449   7.140   3.112 -1.6838  0.1547  1.1934
15283SOL    HW254628  12.398   7.027   3.200 -0.3534 -0.0012  1.7799
15284SOL     OW54629   8.765   4.796  11.071  0.4741 -0.3561 -0.3521
15284SOL    HW154630   8.702   4.792  11.143  0.4255 -1.2410 -0.4372
15284SOL    HW254631   8.832   4.857  11.101  0.1241 -0.2173  0.1692
15285SOL     OW54632   9.257   2.319   7.854  0.1059 -0.3839  0.3137
15285SOL    HW154633   9.312   2.375   7.799 -0.9408  1.0042  0.6258
15285SOL    HW254634   9.317   2.282   7.919  1.2429 -1.5112 -1.2779
15286SOL     OW54635   4.867   1.880  12.234  0.5408  0.0459  0.7017
15286SOL    HW154636   4.858   1.788  12.209  0.0193  0.5589 -1.1573
15286SOL    HW254637   4.821   1.928  12.165  1.4884  1.7470  1.1945
15287SOL     OW54638   3.884   4.929   2.471  0.3301  0.1354 -0.0196
15287SOL    HW154639   3.941   4.861   2.507 -1.5124 -1.3560  0.2563
15287SOL    HW254640   3.876   4.994   2.540  0.3084 -0.5241  0.6088
15288SOL     OW54641   3.001  11.232   4.517  0.4502 -0.4780  0.2757
15288SOL    HW154642   2.944  11.267   4.449  1.3489 -0.2288 -0.3747
15288SOL    HW254643   2.959  11.151   4.545 -0.0037 -0.5147 -0.4851
15289SOL     OW54644   7.507   4.921   3.128 -0.4615 -0.6931  0.2992
15289SOL    HW154645   7.482   4.843   3.179  0.2074 -0.6900  0.6390
15289SOL    HW254646   7.490   4.896   3.037 -3.2069 -0.1424  0.5666
15290SOL     OW54647   0.828   5.912   7.313 -0.5741  0.4045  0.0077
15290SOL    HW154648   0.806   6.000   7.343  0.4188  0.4884  0.5255
15290SOL    HW254649   0.807   5.914   7.219 -0.7972  1.1049  0.0606
15291SOL     OW54650   1.090   5.143  10.617  0.1915 -0.0765 -0.5102
15291SOL    HW154651   1.032   5.212  10.585  1.1760  0.7608 -0.5445
15291SOL    HW254652   1.044   5.062  10.598 -1.8288  0.5882  1.1078
15292SOL     OW54653   1.056  10.173   8.627  0.5565 -0.0918  0.1032
15292SOL    HW154654   1.067  10.079   8.638  2.1928 -0.0180 -0.5718
15292SOL    HW254655   1.025  10.184   8.537  3.6359  0.1155 -1.0506
15293SOL     OW54656   0.545   9.006   0.965 -0.6028 -0.3319  0.2554
15293SOL    HW154657   0.629   9.037   1.001 -0.5706  1.2430 -1.0553
15293SOL    HW254658   0.569   8.959   0.886 -0.9529  0.0425 -0.0744
15294SOL     OW54659   4.731   8.648   9.477  0.0094  0.3253  0.6608
15294SOL    HW154660   4.736   8.709   9.551  1.1864 -0.4121  1.2304
15294SOL    HW254661   4.653   8.595   9.494 -0.1608  0.6698  0.9655
15295SOL     OW54662   0.749   1.917   8.779 -0.6949 -0.2322  0.3818
15295SOL    HW154663   0.733   1.828   8.808  1.8059 -0.6728  0.6126
15295SOL    HW254664   0.750   1.912   8.684 -0.5561 -0.4701  0.3962
15296SOL     OW54665   4.215  10.016   2.125  0.2610  0.2935  0.4687
15296SOL    HW154666   4.270   9.986   2.198  1.7722 -0.5170 -0.9190
15296SOL    HW254667   4.278  10.046   2.060 -1.0898  1.9547 -0.1244
15297SOL     OW54668   5.782   6.124  10.641  0.0516  0.1100  0.4689
15297SOL    HW154669   5.739   6.191  10.588 -0.3924  0.1340  0.8562
15297SOL    HW254670   5.742   6.042  10.612  0.0256  0.0936  0.5514
15298SOL     OW54671   6.146  12.494   7.675  0.1052  0.0106  0.7306
15298SOL    HW154672   6.131  12.506   7.581 -2.9293  0.5910  1.1702
15298SOL    HW254673   6.198  12.414   7.681  0.4349 -0.0012 -1.4406
15299SOL     OW54674   4.804  11.030  10.153  1.2061 -0.0103 -0.5557
15299SOL    HW154675   4.750  11.011  10.229  3.8004 -0.0873  1.4008
15299SOL    HW254676   4.845  10.946  10.132  2.2871  0.5080 -0.5430
15300SOL     OW54677   2.517   5.770   2.620 -0.1458  0.2133  0.2502
15300SOL    HW154678   2.551   5.690   2.659  0.4421 -1.1267 -2.7115
15300SOL    HW254679   2.473   5.741   2.540 -1.0725  2.7373 -0.2452
15301SOL     OW54680  11.506   1.067   9.264 -0.6302  0.4608 -0.3453
15301SOL    HW154681  11.452   1.109   9.197  0.9223  1.5970 -0.9399
15301SOL    HW254682  11.560   1.005   9.216  1.0109  1.8002 -0.2907
15302SOL     OW54683   5.511   3.417  12.292  0.6207 -0.5225  0.5011
15302SOL    HW154684   5.537   3.385  12.378  0.6928  0.0849  0.7113
15302SOL    HW254685   5.593   3.440  12.248  0.5106  3.1450  1.8431
15303SOL     OW54686   8.435   6.163   8.675 -0.5346  0.0520  0.1406
15303SOL    HW154687   8.475   6.220   8.740 -0.0398  0.8932 -0.8692
15303SOL    HW254688   8.341   6.171   8.691 -0.4187  0.1821  0.7909
15304SOL     OW54689   0.019   9.866   6.264  0.2397 -0.2342  0.4361
15304SOL    HW154690  -0.031   9.845   6.185 -0.0042  1.0957  0.2240
15304SOL    HW254691  -0.032   9.935   6.307  1.7903  1.0435  0.2989
15305SOL     OW54692   0.989   1.866   9.833 -0.2014  0.4311  0.7029
15305SOL    HW154693   0.911   1.919   9.847 -0.2936  0.3800  0.3930
15305SOL    HW254694   1.062   1.926   9.851 -0.2962  0.8060 -0.1081
15306SOL     OW54695  10.644   5.267   1.269  0.5755  0.4778 -0.0704
15306SOL    HW154696  10.602   5.348   1.295  1.7135  1.7156 -1.8595
15306SOL    HW254697  10.572   5.207   1.251 -0.2726  0.7945  1.9968
15307SOL     OW54698   8.002   4.662   6.701  0.3123 -0.0261 -0.0375
15307SOL    HW154699   7.909   4.682   6.693  0.0982 -0.0767  1.8617
15307SOL    HW254700   8.043   4.704   6.626 -1.0292  1.5022  0.0424
15308SOL     OW54701   7.524   0.385   2.532  0.6897  0.4678  0.1228
15308SOL    HW154702   7.429   0.381   2.533  0.6245  1.5043 -0.3768
15308SOL    HW254703   7.551   0.343   2.614 -0.0980 -1.4845 -0.5739
15309SOL     OW54704  12.056   2.712   3.715  0.3476  0.3970  0.3002
15309SOL    HW154705  12.015   2.686   3.798 -1.1642 -0.6636 -0.7409
15309SOL    HW254706  12.150   2.708   3.733  0.1136 -2.0110  1.3487
15310SOL     OW54707   9.750  11.771   6.015  0.1715  0.0935  0.4758
15310SOL    HW154708   9.729  11.863   6.032  0.7836  1.3449 -4.1935
15310SOL    HW254709   9.840  11.761   6.048  0.6616  1.6653 -0.3060
15311SOL     OW54710   5.682   4.892   2.512 -0.4667  0.0616  0.3142
15311SOL    HW154711   5.730   4.956   2.459 -0.1707  1.0793  1.7380
15311SOL    HW254712   5.676   4.933   2.598  0.1885 -2.0410  1.4350
15312SOL     OW54713  11.108   8.330   5.586 -0.1036  0.1005 -0.1094
15312SOL    HW154714  11.071   8.275   5.654 -0.4514  1.2361  0.6473
15312SOL    HW254715  11.134   8.411   5.631  0.9059  0.3508 -1.0803
15313SOL     OW54716   0.480   3.141   1.104  0.0394 -0.1890  0.1839
15313SOL    HW154717   0.523   3.105   1.026 -0.2907 -1.3207  0.4961
15313SOL    HW254718   0.551   3.180   1.155  0.3188  0.1889 -0.4795
15314SOL     OW54719   5.659   9.011   6.464  0.0171 -0.5158 -0.5791
15314SOL    HW154720   5.665   9.102   6.493 -0.6940 -1.0598  1.5114
15314SOL    HW254721   5.578   9.006   6.414 -0.0964 -0.0478 -0.4397
15315SOL     OW54722   9.407   0.883   2.434 -0.6886 -0.3937  0.7491
15315SOL    HW154723   9.375   0.905   2.522 -0.2261  1.3710  0.5200
15315SOL    HW254724   9.503   0.882   2.444 -0.5984  0.5840  0.1332
15316SOL     OW54725   1.376   5.148   8.476  0.1044  0.3891  0.2644
15316SOL    HW154726   1.295   5.108   8.443  1.2275 -1.7658 -0.0439
15316SOL    HW254727   1.429   5.163   8.398  1.3951 -1.5570  0.6946
15317SOL     OW54728   8.393   0.305   9.654  0.1383 -0.1481  0.7445
15317SOL    HW154729   8.482   0.277   9.677 -0.4298 -0.6204  2.4340
15317SOL    HW254730   8.349   0.226   9.624  0.3762  0.1612 -0.4921
15318SOL     OW54731   4.423   2.473   0.685  0.6839  0.4364  0.0354
15318SOL    HW154732   4.475   2.522   0.622  0.2691 -0.0855 -0.7260
15318SOL    HW254733   4.487   2.427   0.739  1.0478 -1.0209 -1.5503
15319SOL     OW54734   5.709  12.014   4.180  0.1233 -0.8044 -0.3215
15319SOL    HW154735   5.699  12.109   4.184 -1.0126 -0.9418  3.2895
15319SOL    HW254736   5.698  11.984   4.270  1.4254 -4.3140 -1.1451
15320SOL     OW54737   6.055   5.832  12.516 -0.3374 -0.4637  0.3025
15320SOL    HW154738   5.982   5.795  12.565 -0.0683 -1.9715 -0.3791
15320SOL    HW254739   6.122   5.850  12.582 -1.1744  0.6153  0.8829
15321SOL     OW54740  12.080   8.864   6.662  0.6791 -0.4836  0.4516
15321SOL    HW154741  12.012   8.908   6.611 -0.4207 -0.7249  1.6530
15321SOL    HW254742  12.033   8.824   6.735  2.4663  2.4019  3.4753
15322SOL     OW54743   9.406   8.471  12.128  0.0154  0.3103  0.2399
15322SOL    HW154744   9.312   8.489  12.123  0.1206  0.9407  0.4516
15322SOL    HW254745   9.441   8.506  12.046  0.1493  0.6374  0.4335
15323SOL     OW54746   8.777   6.256   7.503 -0.6657  0.3399 -0.2941
15323SOL    HW154747   8.870   6.255   7.477 -0.7459 -0.5033 -0.5823
15323SOL    HW254748   8.777   6.296   7.590 -0.0359  0.4245 -0.3274
15324SOL     OW54749   8.817   5.880   4.853 -0.5734 -0.4903  0.2499
15324SOL    HW154750   8.835   5.971   4.829 -0.6471 -0.4116  0.4831
15324SOL    HW254751   8.834   5.830   4.774  3.3158 -0.7817  1.0331
15325SOL     OW54752   4.127   8.697   4.272  0.0705 -0.2944  0.0986
15325SOL    HW154753   4.059   8.747   4.227  2.3723  1.9853 -1.0747
15325SOL    HW254754   4.105   8.705   4.365 -0.2170  2.0475 -0.1282
15326SOL     OW54755   3.769   4.363   4.377  0.4672 -0.7728 -0.2107
15326SOL    HW154756   3.706   4.343   4.308  0.4841  0.2969 -0.5656
15326SOL    HW254757   3.761   4.458   4.389  0.2094 -0.9761  1.5100
15327SOL     OW54758  11.664   2.547  11.996 -0.3338  0.1166  0.0715
15327SOL    HW154759  11.644   2.509  11.911 -1.7968  0.5254  0.2123
15327SOL    HW254760  11.644   2.640  11.987  0.0212  0.2601  0.7015
15328SOL     OW54761  11.011  12.401   5.054  0.3303  0.3316 -0.7134
15328SOL    HW154762  10.943  12.410   5.121 -0.5741 -0.6931 -1.4650
15328SOL    HW254763  11.086  12.448   5.090 -0.0874 -0.2918  1.0738
15329SOL     OW54764   7.052   0.668   3.879 -0.5672  0.1005  0.1012
15329SOL    HW154765   7.090   0.735   3.821  0.4848 -0.1997  0.4203
15329SOL    HW254766   7.122   0.605   3.891 -0.2710  0.8091  2.7623
15330SOL     OW54767   6.010  10.349   6.961 -0.0880 -0.2804  0.5772
15330SOL    HW154768   6.090  10.331   7.010 -0.6346 -1.6689  1.0130
15330SOL    HW254769   6.040  10.360   6.870  0.4887 -2.0747  0.5161
15331SOL     OW54770   5.026   7.450   5.667  0.6502  0.7573  0.2553
15331SOL    HW154771   5.047   7.542   5.687  0.2192  1.2371 -1.3371
15331SOL    HW254772   4.934   7.452   5.641  1.5609  0.6278 -3.5868
15332SOL     OW54773   0.854   9.670   2.508 -0.4608 -0.2443 -0.2305
15332SOL    HW154774   0.910   9.684   2.432  0.3965  0.6209  0.5320
15332SOL    HW254775   0.820   9.757   2.529 -0.9810 -0.5363  0.1526
15333SOL     OW54776   2.222   6.493  10.617  0.6209  0.3045  0.1923
15333SOL    HW154777   2.305   6.538  10.603 -0.6765  2.1018 -2.9277
15333SOL    HW254778   2.159   6.564  10.631 -0.4994 -0.9919  2.3160
15334SOL     OW54779   8.931   2.062   0.631  0.3665 -0.0692 -0.8538
15334SOL    HW154780   9.022   2.034   0.625  0.5098  0.6021 -2.0942
15334SOL    HW254781   8.930   2.126   0.703  0.9386  0.1767 -1.0622
15335SOL     OW54782   6.354   0.775   7.506  0.4455 -0.2031 -0.5107
15335SOL    HW154783   6.386   0.750   7.419 -1.8802 -2.3032 -0.9052
15335SOL    HW254784   6.355   0.871   7.506  0.3964 -0.1393 -2.9304
15336SOL     OW54785   0.703   8.859  10.805 -0.1865 -0.6593 -0.2483
15336SOL    HW154786   0.675   8.778  10.848  0.1997  0.0000  1.3257
15336SOL    HW254787   0.773   8.893  10.862 -0.5232  0.9069 -0.7342
15337SOL     OW54788   3.216   1.663   3.158 -0.2771 -0.1923 -0.5867
15337SOL    HW154789   3.138   1.688   3.208 -1.2817 -0.3496 -2.0334
15337SOL    HW254790   3.212   1.567   3.155  1.8185 -0.4896  2.1705
15338SOL     OW54791   4.218   5.814   9.569  0.0074  0.2740  0.4817
15338SOL    HW154792   4.191   5.748   9.506 -0.7596 -0.0341  1.1161
15338SOL    HW254793   4.147   5.816   9.634 -0.2627  2.1186  0.1817
15339SOL     OW54794   6.779   7.019   6.145 -0.0895  0.1108  0.0923
15339SOL    HW154795   6.730   6.940   6.169 -0.9394 -0.3383 -2.7933
15339SOL    HW254796   6.712   7.083   6.122  0.4948 -0.4116 -3.6016
15340SOL     OW54797   0.442  11.583   9.704  0.1070 -0.0428  0.2130
15340SOL    HW154798   0.398  11.514   9.653  1.1253 -1.2344  0.8773
15340SOL    HW254799   0.385  11.599   9.778  0.1898 -0.6945  0.4242
15341SOL     OW54800   3.192   8.845   5.916  0.0802 -0.8853 -0.6688
15341SOL    HW154801   3.221   8.799   5.995 -0.5000  0.6496  0.4783
15341SOL    HW254802   3.101   8.868   5.934  0.4307  0.9468 -1.0634
15342SOL     OW54803   1.620   2.921   3.388  0.4553  0.1739  0.3211
15342SOL    HW154804   1.666   2.857   3.442 -0.5311 -0.8375  0.0011
15342SOL    HW254805   1.667   2.923   3.305  0.9810  0.4950  0.6218
15343SOL     OW54806   4.279  10.970  12.387  0.3661 -0.3706  0.3803
15343SOL    HW154807   4.298  10.957  12.480  2.6962  0.9301  0.1795
15343SOL    HW254808   4.364  10.993  12.348 -1.1136  3.0924 -1.2940
15344SOL     OW54809   6.878   4.194   3.099 -0.2696  0.3685  1.1089
15344SOL    HW154810   6.925   4.277   3.085 -0.7315  0.7706  1.8543
15344SOL    HW254811   6.921   4.132   3.040  0.3598  1.0357  0.8425
15345SOL     OW54812  10.604   0.315   0.673 -0.0551 -0.0043  0.1978
15345SOL    HW154813  10.581   0.339   0.763  1.9574 -0.5954  0.9146
15345SOL    HW254814  10.537   0.252   0.647  0.5857 -1.5715  2.1275
15346SOL     OW54815   2.721  12.150   6.337  0.2131 -0.1737 -0.3404
15346SOL    HW154816   2.729  12.193   6.422  2.6378 -2.0330  0.5285
15346SOL    HW254817   2.668  12.072   6.354 -0.0158 -0.0982 -0.7085
15347SOL     OW54818   7.578   2.596   8.784 -0.0651  0.0023 -0.7351
15347SOL    HW154819   7.631   2.521   8.757  1.0063  1.0031 -1.5026
15347SOL    HW254820   7.501   2.557   8.825  0.0544 -1.5396 -1.8746
15348SOL     OW54821  12.195   1.958   5.872 -0.3299  0.5697 -0.0858
15348SOL    HW154822  12.279   1.972   5.829  0.4525  0.8942  1.4974
15348SOL    HW254823  12.196   1.866   5.898 -0.7806  0.3860 -0.6906
15349SOL     OW54824   1.109  10.582   9.808  0.1943  0.0125  0.4614
15349SOL    HW154825   1.118  10.565   9.714  0.2466 -0.0218  0.4729
15349SOL    HW254826   1.190  10.627   9.832  0.4602 -0.5598  0.6279
15350SOL     OW54827   5.022   3.743   7.093  0.3680 -0.3473  0.2467
15350SOL    HW154828   5.095   3.732   7.032  0.1243 -1.5596  0.1439
15350SOL    HW254829   5.046   3.819   7.146  0.0110  1.5967 -2.1588
15351SOL     OW54830   8.937   0.055   6.054 -0.1248  0.1262  0.0523
15351SOL    HW154831   8.955   0.014   5.969  0.1408  1.0065 -0.3234
15351SOL    HW254832   8.872   0.123   6.035  2.1591  2.4419 -0.0499
15352SOL     OW54833   6.803   9.500  11.884 -0.0107  0.2103 -0.2916
15352SOL    HW154834   6.796   9.484  11.978  0.4803  2.0782  0.0861
15352SOL    HW254835   6.814   9.594  11.876  0.4502  0.0307 -2.2059
15353SOL     OW54836   5.758   5.884   1.724 -0.1696 -0.1899 -0.0554
15353SOL    HW154837   5.815   5.898   1.800  1.6616 -0.5807 -1.2904
15353SOL    HW254838   5.693   5.954   1.731  0.0667 -0.0803  1.7283
15354SOL     OW54839   9.993   2.441   9.916 -0.7501 -0.9771  0.2423
15354SOL    HW154840  10.080   2.410   9.890 -1.1457 -0.3489 -2.0382
15354SOL    HW254841  10.010   2.520   9.968  0.0586 -0.4436 -0.7908
15355SOL     OW54842  12.564   2.537  11.632 -1.0209 -0.0299 -0.5042
15355SOL    HW154843  12.515   2.459  11.658  0.1527 -0.1496  1.6418
15355SOL    HW254844  12.523   2.608  11.682 -0.4494  0.2540 -0.4302
15356SOL     OW54845   5.620   6.851   6.300 -0.2106 -0.0752 -0.4579
15356SOL    HW154846   5.646   6.877   6.212  2.9277 -0.3929  0.2529
15356SOL    HW254847   5.580   6.765   6.289  0.0941 -0.0868 -1.5933
15357SOL     OW54848   1.332   3.061   5.776 -0.6621  0.0355  0.2550
15357SOL    HW154849   1.388   2.992   5.812  0.0805  0.8428  0.6562
15357SOL    HW254850   1.373   3.143   5.803 -2.8975  0.6879  1.9143
15358SOL     OW54851  11.342   4.431  10.937  0.3264  0.3003 -0.2191
15358SOL    HW154852  11.406   4.380  10.887 -1.4095 -0.4730 -1.7999
15358SOL    HW254853  11.286   4.365  10.978 -0.1087  0.9585  0.2613
15359SOL     OW54854   6.638   3.875   6.068 -0.2344 -0.1085 -0.0930
15359SOL    HW154855   6.671   3.938   6.132  0.0096  0.3055 -0.6170
15359SOL    HW254856   6.712   3.816   6.052  0.7581  1.6246 -2.2812
15360SOL     OW54857   6.443   1.292   9.854 -0.0094 -0.2074 -0.2075
15360SOL    HW154858   6.536   1.309   9.844 -0.1578  0.3969 -0.6067
15360SOL    HW254859   6.436   1.196   9.859  0.6637 -0.2337  0.2183
15361SOL     OW54860   2.013   4.031  11.591 -0.0785 -0.3306 -0.7093
15361SOL    HW154861   1.967   4.102  11.635 -0.2258  0.4624 -2.0745
15361SOL    HW254862   1.978   3.951  11.631  0.8096  0.3318  1.5554
15362SOL     OW54863   2.891   7.115   1.093 -0.6811  0.1025 -0.4991
15362SOL    HW154864   2.924   7.040   1.142  0.3782  1.4558  0.9402
15362SOL    HW254865   2.831   7.077   1.028  0.8659 -2.0918 -0.7378
15363SOL     OW54866   1.836   4.921  12.209  0.2248 -0.0853 -0.4496
15363SOL    HW154867   1.770   4.864  12.249 -0.0188  0.9089  0.6374
15363SOL    HW254868   1.916   4.902  12.257  0.7727 -1.2800 -1.7602
15364SOL     OW54869  12.512   1.445   5.065  0.2487 -0.1396 -0.1979
15364SOL    HW154870  12.475   1.390   4.996 -1.7103  0.4615  0.2910
15364SOL    HW254871  12.571   1.388   5.113 -0.3406 -1.2980 -0.8061
15365SOL     OW54872   6.708   2.868   9.658 -0.0602 -0.2700  0.3735
15365SOL    HW154873   6.756   2.920   9.722  0.5246  0.8982 -0.9725
15365SOL    HW254874   6.740   2.898   9.573 -1.1348 -1.4665 -0.4987
15366SOL     OW54875  10.221   7.956  11.657  0.0078  0.2053  0.0985
15366SOL    HW154876  10.138   7.908  11.661  0.3758 -0.4888 -0.4344
15366SOL    HW254877  10.268   7.917  11.583  1.4710 -0.4507  1.3280
15367SOL     OW54878  12.029   8.941   8.428 -0.1862  0.6265  0.4680
15367SOL    HW154879  11.983   8.867   8.387  1.0080 -0.2149  0.5958
15367SOL    HW254880  11.989   8.948   8.515 -0.6807  0.5029  0.2581
15368SOL     OW54881   5.894   2.915  11.806  0.2285 -0.0678  0.4357
15368SOL    HW154882   5.812   2.925  11.855 -0.3260 -1.0013 -0.2590
15368SOL    HW254883   5.961   2.908  11.874 -0.4230 -0.5705  1.0564
15369SOL     OW54884  10.015  12.090   6.193 -0.3644  0.2399 -0.2082
15369SOL    HW154885  10.068  12.169   6.206 -0.1884  0.2448 -0.9077
15369SOL    HW254886  10.042  12.057   6.107  0.4254 -1.2690  0.5806
15370SOL     OW54887   8.872  12.216   6.100  0.2551 -0.2913  0.9445
15370SOL    HW154888   8.941  12.157   6.131 -0.8292 -0.7571  2.6005
15370SOL    HW254889   8.812  12.159   6.051 -0.8304 -0.6553  2.6061
15371SOL     OW54890   5.063  10.698   7.950 -0.5148  0.9617  0.1511
15371SOL    HW154891   5.102  10.691   7.863 -0.4086  1.8134  0.1180
15371SOL    HW254892   4.971  10.674   7.937 -0.0140 -1.1479  0.2490
15372SOL     OW54893  10.755   4.184  10.045 -0.6101  0.1483 -0.0196
15372SOL    HW154894  10.825   4.124  10.070 -0.2184  0.8681  0.6428
15372SOL    HW254895  10.696   4.131   9.991  0.0037 -0.6850  0.1165
15373SOL     OW54896   1.053  12.048   0.030  0.1921  0.1038  0.5879
15373SOL    HW154897   1.016  11.998  -0.042  1.5990 -1.3687  0.8232
15373SOL    HW254898   0.985  12.046   0.098 -0.0634 -0.8847  0.3174
15374SOL     OW54899   5.096   5.223   9.299 -0.3015 -0.1236  0.1844
15374SOL    HW154900   5.158   5.275   9.248 -0.5778  0.8350  0.8133
15374SOL    HW254901   5.015   5.224   9.248  0.3220 -1.8942 -0.9528
15375SOL     OW54902   3.677   4.954   8.060 -0.2977 -0.0423 -0.6807
15375SOL    HW154903   3.726   4.965   8.141  0.3742  0.4487 -1.1417
15375SOL    HW254904   3.731   4.997   7.993 -1.1368  0.1090 -1.2803
15376SOL     OW54905   0.164   1.482   8.686 -0.0889 -0.2296 -0.1256
15376SOL    HW154906   0.221   1.552   8.721  1.1397 -1.0219 -0.4693
15376SOL    HW254907   0.160   1.417   8.756 -1.7831  0.4426  0.4578
15377SOL     OW54908  11.035   4.165   2.026 -0.6020  0.1963 -0.1225
15377SOL    HW154909  10.966   4.222   1.991 -1.0333 -0.0504  0.3020
15377SOL    HW254910  10.997   4.129   2.107  0.8624  1.7929  1.3468
15378SOL     OW54911   0.161   9.893   0.021  0.5516 -0.0325  0.1099
15378SOL    HW154912   0.255   9.875   0.031  1.0911  0.6888 -2.7013
15378SOL    HW254913   0.130   9.823  -0.037 -0.5105  0.1096  0.4968
15379SOL     OW54914  10.271   1.538   1.649 -0.2309 -0.0474 -0.0899
15379SOL    HW154915  10.267   1.492   1.565  0.3122 -1.7981  0.7856
15379SOL    HW254916  10.207   1.493   1.704  0.2552  0.2940  0.7819
15380SOL     OW54917   5.861   2.372   6.141  0.3351 -0.1269  0.5237
15380SOL    HW154918   5.951   2.371   6.110  0.2784 -4.1436 -0.0401
15380SOL    HW254919   5.866   2.342   6.232 -0.3943 -0.2727  0.5220
15381SOL     OW54920   1.939   8.799   0.289  0.1234 -0.6118  0.1619
15381SOL    HW154921   1.949   8.757   0.203 -1.8692 -1.5487  0.3206
15381SOL    HW254922   2.017   8.772   0.338 -0.2830 -2.8581 -0.2941
15382SOL     OW54923   5.817   3.668   1.233  0.1753  0.4054 -0.3318
15382SOL    HW154924   5.841   3.736   1.170 -1.6872  1.7462  0.3188
15382SOL    HW254925   5.768   3.604   1.183 -2.9068  2.3582 -0.0940
15383SOL     OW54926   6.728   7.242  11.983 -0.2651  0.1624  0.3176
15383SOL    HW154927   6.637   7.265  11.965 -0.3512  2.1551  2.7542
15383SOL    HW254928   6.769   7.236  11.896 -2.1900  1.5145 -0.7577
15384SOL     OW54929   0.238   4.904   9.739  0.3703  0.4540 -0.0658
15384SOL    HW154930   0.178   4.935   9.671  0.6610  1.3674  0.0784
15384SOL    HW254931   0.227   4.966   9.812  1.3463  0.5384  0.0338
15385SOL     OW54932  11.948  11.435  12.596  0.3701 -0.0475 -0.4285
15385SOL    HW154933  11.897  11.409  12.519 -0.2214  2.9236 -1.1969
15385SOL    HW254934  12.017  11.491  12.560 -0.4181  2.0968  1.1661
15386SOL     OW54935   4.087  12.384   0.553 -0.3436 -0.1964 -0.2209
15386SOL    HW154936   4.095  12.341   0.639  1.1029 -0.9575 -0.7113
15386SOL    HW254937   4.061  12.314   0.494 -0.3936  0.1287 -0.5881
15387SOL     OW54938   5.285  11.947   3.672  0.0448 -0.0881  0.0116
15387SOL    HW154939   5.360  11.896   3.643  1.6036  0.9455  2.0097
15387SOL    HW254940   5.282  12.022   3.613  0.9923  0.2062  0.3343
15388SOL     OW54941  11.039   6.023   4.404  0.4844 -0.3570  0.1234
15388SOL    HW154942  10.961   6.072   4.379  1.3664  0.3091 -1.5046
15388SOL    HW254943  11.006   5.937   4.430 -0.7058 -0.5942 -1.9447
15389SOL     OW54944   0.968   0.546   4.416  0.1536  0.1577  0.2613
15389SOL    HW154945   1.032   0.540   4.487 -0.3633  1.5738  0.8670
15389SOL    HW254946   0.977   0.462   4.370  1.4180 -0.2592  1.1935
15390SOL     OW54947   6.629   0.184   4.162 -0.0523  0.7897  0.1824
15390SOL    HW154948   6.622   0.248   4.233  1.1495  2.3949 -1.0708
15390SOL    HW254949   6.590   0.104   4.198 -1.2239  2.0872  1.9482
15391SOL     OW54950   8.432  10.198   3.644  0.4346 -0.0418  0.5581
15391SOL    HW154951   8.365  10.240   3.698  0.4405 -0.5454  0.9634
15391SOL    HW254952   8.487  10.270   3.613  0.1021  0.3057  0.7705
15392SOL     OW54953   2.323   0.024   6.691  0.2979  0.0126 -0.3958
15392SOL    HW154954   2.390   0.027   6.622 -0.5730  0.5128 -1.2374
15392SOL    HW254955   2.352  -0.046   6.749  1.9898  0.7318 -0.2861
15393SOL     OW54956   3.540   2.543   7.444 -0.3049 -0.0580  0.2920
15393SOL    HW154957   3.501   2.509   7.524  1.1055 -1.4222  0.4389
15393SOL    HW254958   3.511   2.635   7.440 -1.8565 -0.4592  1.3940
15394SOL     OW54959   1.295   2.320   4.640  0.0441  0.6637 -0.0164
15394SOL    HW154960   1.221   2.292   4.586 -0.9849  2.3773  0.4252
15394SOL    HW254961   1.317   2.242   4.692 -1.7612  0.2155  0.1561
15395SOL     OW54962   2.880   1.376  10.477 -0.0691 -0.0630 -0.7586
15395SOL    HW154963   2.909   1.294  10.436 -1.0043 -0.9618  0.3114
15395SOL    HW254964   2.957   1.408  10.524  0.6789  0.3752 -2.2223
15396SOL     OW54965   0.956   3.783   5.126 -0.4006 -0.2066 -0.1809
15396SOL    HW154966   0.891   3.760   5.193 -1.7934  1.0768 -1.0157
15396SOL    HW254967   1.040   3.769   5.168 -1.1738 -2.5929  0.7368
15397SOL     OW54968   1.351   5.691  12.200  0.2295 -0.2271 -0.0757
15397SOL    HW154969   1.427   5.744  12.175  0.0885 -0.7233 -1.6710
15397SOL    HW254970   1.359   5.612  12.148 -1.6953 -0.0451 -0.7245
15398SOL     OW54971   0.547   5.881   0.812  0.0570  0.2998  0.0692
15398SOL    HW154972   0.575   5.805   0.762 -0.0534 -0.1032  0.6146
15398SOL    HW254973   0.585   5.956   0.765  0.1167 -0.0806 -0.4990
15399SOL     OW54974   2.553  12.558   4.209  0.0569 -0.3162 -0.3947
15399SOL    HW154975   2.614  12.556   4.135  1.2139  0.1831  0.5201
15399SOL    HW254976   2.514  12.471   4.210  0.2950 -0.4484 -1.3738
15400SOL     OW54977   0.384   5.506   8.638 -0.1808  0.1333  0.0641
15400SOL    HW154978   0.414   5.582   8.588  2.4302 -0.1518  1.0405
15400SOL    HW254979   0.440   5.505   8.716  0.0368 -2.9043 -0.0152
15401SOL     OW54980  12.568   7.698   5.500 -0.1919  0.2718 -0.2499
15401SOL    HW154981  12.488   7.749   5.516  0.3549  0.4461  2.2940
15401SOL    HW254982  12.543   7.608   5.520 -0.0408  0.1449 -0.6159
15402SOL     OW54983   0.472   5.608   4.335 -0.4296 -0.3809  0.4251
15402SOL    HW154984   0.407   5.668   4.371  0.6101  0.7616  0.4706
15402SOL    HW254985   0.547   5.617   4.393 -0.5089 -2.3507  0.8938
15403SOL     OW54986   8.818   4.356   0.348  0.2528  0.3531 -0.2694
15403SOL    HW154987   8.840   4.266   0.321  1.8881  0.6969 -0.1259
15403SOL    HW254988   8.885   4.380   0.411 -1.6504  0.7785  1.6992
15404SOL     OW54989   5.298  11.081  10.315 -0.3510  0.4101 -0.0105
15404SOL    HW154990   5.226  11.124  10.362 -0.2471 -0.5386  1.0952
15404SOL    HW254991   5.254  11.021  10.255 -0.4949  0.2091  0.2899
15405SOL     OW54992  12.302  10.907   3.650 -0.0761  0.1827  0.1515
15405SOL    HW154993  12.376  10.951   3.608 -1.9860  2.6141 -0.8588
15405SOL    HW254994  12.231  10.914   3.587 -1.3758 -1.6258  1.3176
15406SOL     OW54995  11.850   2.710   2.952  0.5026  0.4817  0.1365
15406SOL    HW154996  11.776   2.717   2.892  0.7253  1.3035 -0.0475
15406SOL    HW254997  11.841   2.785   3.010  1.1325  0.5222  0.1811
15407SOL     OW54998  12.016   3.911  12.145  0.3213 -0.6831  0.6288
15407SOL    HW154999  12.097   3.929  12.099  0.5189  1.2914  1.6251
15407SOL    HW255000  11.947   3.921  12.079  0.5825  2.2278  0.7007
15408SOL     OW55001   7.433   6.699   3.914  0.1236 -0.5268 -0.6352
15408SOL    HW155002   7.466   6.634   3.976  0.2178  0.5475  0.4666
15408SOL    HW255003   7.339   6.705   3.933  0.4855  1.2402  0.8063
15409SOL     OW55004  10.251   8.161   5.633 -0.3817 -0.2705  0.0139
15409SOL    HW155005  10.275   8.245   5.593  1.1702 -1.1986 -1.1095
15409SOL    HW255006  10.161   8.145   5.604 -0.5588  0.8235 -0.0635
15410SOL     OW55007   8.104   5.937   4.899 -0.1541 -0.0619 -0.3849
15410SOL    HW155008   8.128   6.001   4.833  1.8206  0.5417  0.8488
15410SOL    HW255009   8.170   5.868   4.892  0.2238  0.1211  1.0817
15411SOL     OW55010   2.104   2.012   9.444  0.4160  0.2447 -0.0053
15411SOL    HW155011   2.142   1.929   9.415  0.2285  0.3000 -0.4194
15411SOL    HW255012   2.158   2.079   9.400 -0.1237  0.3245 -0.5655
15412SOL     OW55013   1.348   3.069   1.387  0.1578  0.3454  0.0006
15412SOL    HW155014   1.278   3.116   1.343  0.1197  0.9907  0.7307
15412SOL    HW255015   1.381   3.130   1.453 -0.4939 -0.9294  1.5908
15413SOL     OW55016   4.836   0.169   3.071  0.1645  0.3306  0.0581
15413SOL    HW155017   4.790   0.251   3.056 -1.4469 -0.6356 -0.6297
15413SOL    HW255018   4.892   0.159   2.994 -1.1659 -0.1478 -0.9011
15414SOL     OW55019  10.241  11.142   3.543  0.1686 -0.4278  0.7011
15414SOL    HW155020  10.270  11.229   3.572 -0.4655 -0.0217  0.1575
15414SOL    HW255021  10.319  11.087   3.550  1.7132  1.0457 -2.5878
15415SOL     OW55022   3.073   4.008   9.319  0.1784 -0.8117  0.2008
15415SOL    HW155023   2.982   3.978   9.315  0.3963 -1.4575  0.0373
15415SOL    HW255024   3.114   3.973   9.240  0.9388 -1.7628  0.9910
15416SOL     OW55025  11.074   2.407  10.387  0.4479 -0.5847  0.3941
15416SOL    HW155026  11.135   2.480  10.391  0.1994 -0.4082  1.1530
15416SOL    HW255027  11.070   2.384  10.294  0.5098  0.3727  0.1451
15417SOL     OW55028   3.109   8.493   1.356 -0.0251  0.2622 -0.0542
15417SOL    HW155029   3.098   8.496   1.451 -0.7820 -0.2451 -0.1190
15417SOL    HW255030   3.153   8.575   1.335 -0.5912  0.7594  0.6474
15418SOL     OW55031   7.011  12.227  11.120 -0.4436 -0.4204  0.1074
15418SOL    HW155032   7.036  12.158  11.182  2.6982 -0.7172 -1.2961
15418SOL    HW255033   7.079  12.294  11.131 -0.4966  0.0619 -2.1220
15419SOL     OW55034   0.753  12.003   2.886 -0.4165 -0.7538 -0.1044
15419SOL    HW155035   0.678  11.979   2.831 -2.1428  2.3844  0.6000
15419SOL    HW255036   0.723  11.987   2.975 -0.1270  0.1933  0.1694
15420SOL     OW55037   2.847   7.354   5.165  0.6786  0.3156 -0.0981
15420SOL    HW155038   2.915   7.361   5.231  1.5533 -3.4773 -0.3670
15420SOL    HW255039   2.884   7.297   5.098 -1.6980  0.5389 -1.7269
15421SOL     OW55040   2.310   1.557   3.028  0.1024 -0.0443  0.2836
15421SOL    HW155041   2.365   1.480   3.038  0.4035  0.4147  3.0950
15421SOL    HW255042   2.224   1.522   3.002  0.9909 -0.9830 -1.5729
15422SOL     OW55043  11.614   6.326   8.037  0.5590 -0.0487 -0.6935
15422SOL    HW155044  11.636   6.236   8.061 -0.4859  0.2638  1.7250
15422SOL    HW255045  11.531   6.319   7.990  0.7351 -0.3829 -0.9559
15423SOL     OW55046   0.039   6.478  10.845 -0.1411  0.3942  0.0841
15423SOL    HW155047  -0.033   6.502  10.903 -0.8779  2.2880 -1.4931
15423SOL    HW255048   0.100   6.552  10.849 -0.7276  1.0949 -2.2610
15424SOL     OW55049   2.881   6.806   6.101  0.4312 -0.0576  0.4589
15424SOL    HW155050   2.905   6.841   6.015 -0.9572 -0.6133 -0.1816
15424SOL    HW255051   2.827   6.874   6.141 -0.4091 -0.5263  0.1399
15425SOL     OW55052   4.485   4.764   7.485  0.0728 -0.1642  0.0837
15425SOL    HW155053   4.532   4.835   7.528  2.2140 -0.9047 -0.8993
15425SOL    HW255054   4.479   4.791   7.393  1.5816 -1.5202 -0.4553
15426SOL     OW55055   6.471  11.623   3.933  0.4426 -0.0948 -0.4346
15426SOL    HW155056   6.492  11.714   3.954 -0.2445  0.1153 -0.6192
15426SOL    HW255057   6.489  11.574   4.013 -1.8099  0.6317  0.5963
15427SOL     OW55058   3.211   0.091   5.434  0.1642 -0.2603  0.4088
15427SOL    HW155059   3.159   0.154   5.484 -0.1155  0.4062 -0.6859
15427SOL    HW255060   3.160   0.076   5.354  1.4525  0.0998 -0.5062
15428SOL     OW55061   2.670  11.617   1.462  0.1714  0.5349  0.4267
15428SOL    HW155062   2.731  11.635   1.390  0.6538 -0.0210  0.6908
15428SOL    HW255063   2.717  11.556   1.519  1.0922  3.2183  2.8625
15429SOL     OW55064   6.576   3.506   0.005 -0.0364  0.0455  0.1188
15429SOL    HW155065   6.638   3.488   0.076  0.1629  0.5066  0.0711
15429SOL    HW255066   6.631   3.540  -0.066 -0.3354  0.3925  0.0530
15430SOL     OW55067  12.329   6.716  12.148  0.1229  0.0221  0.3821
15430SOL    HW155068  12.248   6.690  12.191 -0.6688  1.1195 -0.4151
15430SOL    HW255069  12.391   6.731  12.220 -1.2762  2.1910  1.2153
15431SOL     OW55070   4.982   7.225  11.706 -0.0276  0.2603  0.3722
15431SOL    HW155071   4.984   7.170  11.784  1.2722 -0.4000 -0.0886
15431SOL    HW255072   5.051   7.189  11.650  0.7369  2.2172 -0.0400
15432SOL     OW55073   4.769   9.003   4.259  0.7509  0.7182  0.0619
15432SOL    HW155074   4.709   8.932   4.234  1.1723  0.1879  0.5112
15432SOL    HW255075   4.807   9.033   4.177  0.5583  0.4243 -0.1354
15433SOL     OW55076   2.634  11.024   3.611 -0.1953 -0.0206  0.3772
15433SOL    HW155077   2.576  11.097   3.588  1.4760  1.4850  0.7282
15433SOL    HW255078   2.658  11.040   3.702  0.0472 -1.1286  0.5196
15434SOL     OW55079   7.185   9.505   1.283 -0.1201 -0.1571 -0.0121
15434SOL    HW155080   7.176   9.600   1.275  0.7037 -0.1813 -1.5789
15434SOL    HW255081   7.105   9.478   1.329 -0.7006  1.2157 -0.1513
15435SOL     OW55082   6.532   5.622   7.081 -0.2500  0.1824  0.4643
15435SOL    HW155083   6.583   5.597   7.157 -0.1871  0.0453  0.3779
15435SOL    HW255084   6.457   5.562   7.081 -0.4617  0.4443  0.6452
15436SOL     OW55085   1.273   9.108  10.368 -0.5099 -0.2775  1.1904
15436SOL    HW155086   1.275   9.156  10.451  0.6994  0.4146  0.7834
15436SOL    HW255087   1.272   9.016  10.394 -2.4757 -0.0799  1.9828
15437SOL     OW55088   3.702   5.687   7.952 -0.1519  0.2382  0.4549
15437SOL    HW155089   3.614   5.680   7.913  0.7903 -3.7817 -1.5181
15437SOL    HW255090   3.749   5.747   7.895  0.0487 -2.5063 -2.5173
15438SOL     OW55091   1.937   9.271   6.932 -0.0971 -0.4150 -0.0951
15438SOL    HW155092   1.927   9.307   7.021  0.0765  1.8265 -0.9316
15438SOL    HW255093   1.937   9.176   6.945 -0.3579 -0.1550  2.2723
15439SOL     OW55094  11.389  11.859  10.486  0.1977 -0.4059 -0.0181
15439SOL    HW155095  11.369  11.803  10.411  0.3680 -0.5622  0.0541
15439SOL    HW255096  11.463  11.912  10.456 -0.1787  0.0233 -0.2077
15440SOL     OW55097   1.547   8.339  12.002  0.1725  0.0547 -0.0251
15440SOL    HW155098   1.587   8.402  11.942 -0.5937 -0.0304 -0.6424
15440SOL    HW255099   1.618   8.313  12.061  1.1724 -0.5202 -1.4310
15441SOL     OW55100   3.864   6.927   8.336  0.0586 -0.2726 -0.4128
15441SOL    HW155101   3.786   6.889   8.376 -1.7010  0.5603 -2.8148
15441SOL    HW255102   3.847   7.021   8.335  1.7242  0.0682  0.2053
15442SOL     OW55103   9.723  11.156   6.626  0.4446  0.9234  0.0033
15442SOL    HW155104   9.801  11.144   6.680  0.6000 -0.4893 -0.4890
15442SOL    HW255105   9.666  11.083   6.648  1.3950 -0.9724 -3.1551
15443SOL     OW55106   1.068   5.040   5.168 -0.2954 -0.0218  0.1784
15443SOL    HW155107   1.053   5.084   5.251  0.6520 -0.2149  0.4649
15443SOL    HW255108   1.110   5.106   5.113  0.1257 -0.2288  0.2442
15444SOL     OW55109   6.104   3.055   0.492  0.1989 -0.3473 -0.3590
15444SOL    HW155110   6.196   3.080   0.492  0.5054 -1.3346 -1.4963
15444SOL    HW255111   6.093   3.008   0.409 -1.4760  0.2606 -0.5135
15445SOL     OW55112  10.131   6.707  10.734  0.4284 -0.2923  0.6107
15445SOL    HW155113  10.054   6.730  10.786  0.0404 -0.4821  0.1348
15445SOL    HW255114  10.143   6.613  10.749 -0.0699 -0.4867 -0.1173
15446SOL     OW55115   3.558   8.605   6.572  0.4393  0.3923 -0.0149
15446SOL    HW155116   3.613   8.605   6.493 -0.0834 -2.3839 -0.4958
15446SOL    HW255117   3.472   8.635   6.541 -0.2692 -2.3898 -1.0365
15447SOL     OW55118  10.083  10.503   3.801 -0.5517 -0.5560 -0.7695
15447SOL    HW155119  10.171  10.494   3.835 -0.4983 -0.4668 -0.8834
15447SOL    HW255120  10.028  10.454   3.863 -0.5144 -0.0461 -0.3234
15448SOL     OW55121   7.392   1.772  12.082  0.1516  0.7440  0.1096
15448SOL    HW155122   7.329   1.700  12.094 -2.5522  3.0809  1.2017
15448SOL    HW255123   7.458   1.758  12.150  0.4012 -1.3209 -0.4941
15449SOL     OW55124   4.318   5.358  11.855  0.1356 -0.2824 -0.2940
15449SOL    HW155125   4.239   5.336  11.905 -1.1585 -0.9563 -2.4792
15449SOL    HW255126   4.389   5.319  11.905 -1.1772 -1.7300  0.5511
15450SOL     OW55127  12.555   2.716  10.902  0.1351  1.2465 -0.2780
15450SOL    HW155128  12.620   2.688  10.966 -1.8099 -1.9884  0.4996
15450SOL    HW255129  12.561   2.650  10.832 -2.3386  0.7697 -0.1028
15451SOL     OW55130  10.578   1.336   8.391 -0.3553 -0.0279  0.8944
15451SOL    HW155131  10.662   1.295   8.411 -1.3524 -2.3635  0.6820
15451SOL    HW255132  10.599   1.406   8.329  1.5453  0.2777  1.8190
15452SOL     OW55133   5.631   4.143   1.222 -0.5103 -0.9293  0.3127
15452SOL    HW155134   5.637   4.191   1.304  0.7399 -1.9189  0.8320
15452SOL    HW255135   5.537   4.138   1.203 -0.9026 -1.6327  2.2572
15453SOL     OW55136   4.532   0.182   4.514 -0.0587 -0.2032 -0.7662
15453SOL    HW155137   4.509   0.105   4.566 -0.2601  0.0043 -0.5476
15453SOL    HW255138   4.468   0.184   4.443 -0.5071  0.1808 -0.3518
15454SOL     OW55139   2.948   5.853   2.754 -0.4392  0.6595  0.1263
15454SOL    HW155140   3.026   5.852   2.810 -0.7059  1.8737  0.5516
15454SOL    HW255141   2.877   5.877   2.813 -1.2700 -1.0300 -0.1316
15455SOL     OW55142   5.048   1.826  10.135  0.3032 -0.4697 -0.0132
15455SOL    HW155143   5.072   1.888  10.204  1.0240 -0.0310 -0.6364
15455SOL    HW255144   4.960   1.797  10.158  1.1810 -1.6724  2.0266
15456SOL     OW55145   6.924   9.066   3.588  0.3905 -0.2046  0.1657
15456SOL    HW155146   6.925   9.072   3.492  0.7887  0.5054  0.2101
15456SOL    HW255147   6.859   9.130   3.615 -1.1215 -1.7177  0.3070
15457SOL     OW55148   9.029   0.581   3.646  0.1911 -0.0844  0.6299
15457SOL    HW155149   9.001   0.513   3.585 -0.0784  1.5274 -1.1494
15457SOL    HW255150   8.956   0.643   3.646 -0.2750 -0.4970  3.4419
15458SOL     OW55151   0.387   4.746   8.732  0.5985 -0.3627  0.0787
15458SOL    HW155152   0.342   4.830   8.738 -0.6022 -1.0171  0.4415
15458SOL    HW255153   0.430   4.736   8.817 -0.4579 -0.7621  0.5831
15459SOL     OW55154   5.852  12.560   0.905 -0.2934 -0.1991 -0.3195
15459SOL    HW155155   5.923  12.623   0.917  0.1829 -0.9831  1.1656
15459SOL    HW255156   5.884  12.502   0.836  0.3628 -0.3209  0.0770
15460SOL     OW55157   3.147   5.619   5.280 -0.4605 -0.0384 -0.0971
15460SOL    HW155158   3.194   5.610   5.197  0.2119 -0.6339  0.3364
15460SOL    HW255159   3.167   5.539   5.328  2.1026  1.7484  2.1079
15461SOL     OW55160   6.171   5.689   9.383  0.7380  0.0448 -0.1486
15461SOL    HW155161   6.105   5.689   9.314  1.0755 -0.0698 -0.4705
15461SOL    HW255162   6.157   5.607   9.430  1.1053 -0.3034 -0.6471
15462SOL     OW55163  12.444   2.686  10.314  0.2260 -0.1117  0.0051
15462SOL    HW155164  12.493   2.619  10.266 -1.5018 -1.1149 -0.4397
15462SOL    HW255165  12.441   2.761  10.254  1.3203  0.0277  0.1040
15463SOL     OW55166   0.134  11.826   0.210  0.3572 -0.4854 -0.0612
15463SOL    HW155167   0.225  11.798   0.209  0.2212 -0.9251 -0.2603
15463SOL    HW255168   0.131  11.898   0.146  0.5063 -0.6600 -0.2666
15464SOL     OW55169   6.004   6.800   6.640 -0.1941 -0.0812 -0.5561
15464SOL    HW155170   5.960   6.807   6.725 -0.0546 -0.4255 -0.4540
15464SOL    HW255171   5.933   6.787   6.577 -0.2815 -0.0256 -0.4695
15465SOL     OW55172   3.606   5.417  12.492  0.2883  0.2251  0.0316
15465SOL    HW155173   3.530   5.360  12.484  0.6736 -0.2920 -0.0373
15465SOL    HW255174   3.658   5.377  12.562 -0.1994  1.3814  1.0841
15466SOL     OW55175   9.248   1.626   9.148  0.8886 -0.1933 -0.1870
15466SOL    HW155176   9.318   1.587   9.096  0.8971 -0.2151 -0.1593
15466SOL    HW255177   9.199   1.552   9.182  0.8023 -0.1757 -0.2736
15467SOL     OW55178   0.477   1.731   8.496 -0.0325 -0.4319  0.3689
15467SOL    HW155179   0.533   1.750   8.420 -0.5039 -0.6129 -0.0261
15467SOL    HW255180   0.393   1.770   8.474 -0.7427 -2.0998 -0.0349
15468SOL     OW55181   8.372   3.513   2.584  0.1482  0.7015 -0.6209
15468SOL    HW155182   8.282   3.501   2.554 -0.0427  2.4063 -0.8432
15468SOL    HW255183   8.367   3.511   2.679  0.0684 -0.3401 -0.6369
15469SOL     OW55184   6.751   0.581   6.387  0.8794 -0.1025 -0.0064
15469SOL    HW155185   6.760   0.615   6.476 -0.8619 -0.8670  0.5046
15469SOL    HW255186   6.684   0.513   6.394  2.6443 -2.1202 -1.3865
15470SOL     OW55187   3.606   5.685   7.513  0.3567 -0.2666  0.0284
15470SOL    HW155188   3.698   5.660   7.521  0.5182  0.4858  0.8327
15470SOL    HW255189   3.571   5.630   7.443  1.4536 -0.4614 -0.3862
15471SOL     OW55190   2.555  10.287   8.316 -0.8619 -0.4284  0.0791
15471SOL    HW155191   2.646  10.313   8.311 -1.3316  1.4020  0.4094
15471SOL    HW255192   2.554  10.197   8.284  0.7799  0.1389 -1.7522
15472SOL     OW55193   0.751  11.666   0.611 -0.3960  0.2767  0.1826
15472SOL    HW155194   0.790  11.599   0.667 -0.4798  1.4167  1.6389
15472SOL    HW255195   0.814  11.677   0.540  1.4398  1.2618  1.8865
15473SOL     OW55196   3.414   2.124   3.119  0.1652  0.3469 -0.2813
15473SOL    HW155197   3.322   2.116   3.145 -0.3087 -0.7484 -2.0995
15473SOL    HW255198   3.460   2.151   3.199 -1.3824 -1.3420  1.2531
15474SOL     OW55199   8.794   1.431   1.625  0.3315  0.3585 -0.3226
15474SOL    HW155200   8.824   1.370   1.692  1.4683 -1.2249 -2.1374
15474SOL    HW255201   8.722   1.385   1.582  0.7475  0.5736 -1.2785
15475SOL     OW55202  10.656   0.501   3.005  0.5108  0.3977  0.1156
15475SOL    HW155203  10.663   0.546   3.089 -2.3349  0.8112  0.2403
15475SOL    HW255204  10.588   0.435   3.019 -1.2632  1.5692 -2.2472
15476SOL     OW55205  12.067   2.943   8.236  0.6876  0.5709 -0.2531
15476SOL    HW155206  12.155   2.927   8.203 -0.0573 -1.0446 -1.6250
15476SOL    HW255207  12.019   2.977   8.161  0.1744  1.6820  0.5452
15477SOL     OW55208   2.998   5.356  12.340  0.5768 -0.3475 -0.7904
15477SOL    HW155209   3.069   5.396  12.391  1.5057  2.0108 -3.6147
15477SOL    HW255210   2.918   5.389  12.381  1.2333  0.4392 -0.1002
15478SOL     OW55211  11.370   5.341  10.565 -0.0833 -0.7376  0.0809
15478SOL    HW155212  11.354   5.345  10.660  0.3375 -0.5082  0.1451
15478SOL    HW255213  11.426   5.264  10.554  0.5343 -0.2983  0.1177
15479SOL     OW55214   4.924   2.440   2.533 -0.9458  0.1492 -0.0060
15479SOL    HW155215   4.952   2.391   2.456 -1.1679  1.6430 -1.0727
15479SOL    HW255216   4.989   2.419   2.600  1.0674  1.2211 -1.5285
15480SOL     OW55217   0.830   7.582   3.851 -1.0312 -0.5277 -0.2482
15480SOL    HW155218   0.859   7.516   3.789  0.2652 -0.4216  0.2178
15480SOL    HW255219   0.830   7.537   3.936  1.3237  0.4122  0.3176
15481SOL     OW55220   7.881  10.330   8.941  0.0154  0.0565  0.2893
15481SOL    HW155221   7.962  10.345   8.988  1.0151 -2.9361 -0.3175
15481SOL    HW255222   7.820  10.297   9.007 -0.3675  1.1522  0.5053
15482SOL     OW55223   0.415   9.645   6.787 -0.2304  0.0871  0.0337
15482SOL    HW155224   0.406   9.715   6.852  0.5477  0.3211 -0.1118
15482SOL    HW255225   0.443   9.690   6.707  2.0691 -0.5844  0.4078
15483SOL     OW55226  11.723   1.616   0.268  0.1170 -0.3369 -0.1439
15483SOL    HW155227  11.737   1.602   0.362  0.8606 -0.1313 -0.2140
15483SOL    HW255228  11.703   1.709   0.261  1.2107 -0.0999 -0.2988
15484SOL     OW55229   7.973  11.289  12.435  0.3999 -0.1244 -0.5138
15484SOL    HW155230   8.012  11.348  12.370  0.8438  0.1307 -0.0187
15484SOL    HW255231   7.880  11.313  12.436  0.9542  2.5143  1.6442
15485SOL     OW55232   1.738   9.605   4.912  0.4913  0.5902 -0.2127
15485SOL    HW155233   1.720   9.686   4.865 -0.5002  0.3869 -0.2170
15485SOL    HW255234   1.722   9.536   4.847  0.6279  0.3702 -0.0110
15486SOL     OW55235  11.959  12.057  12.179 -0.4937 -0.3115  0.4272
15486SOL    HW155236  12.035  12.088  12.131 -0.2087  0.9815  1.6487
15486SOL    HW255237  11.975  12.083  12.270 -1.2745 -2.1532  1.1486
15487SOL     OW55238   3.212   2.891   4.047 -0.8335  0.0480  0.1529
15487SOL    HW155239   3.152   2.943   4.099 -0.1392  2.0746 -0.9721
15487SOL    HW255240   3.278   2.861   4.110 -0.5883  1.5687  0.6619
15488SOL     OW55241   5.893   0.146  11.530 -0.0648 -0.2626 -0.1336
15488SOL    HW155242   5.876   0.069  11.476  0.4161  0.1315 -0.8587
15488SOL    HW255243   5.849   0.218  11.484  1.8318  0.4117 -0.9796
15489SOL     OW55244   3.395  10.961  11.826  0.4178  0.3919 -0.1055
15489SOL    HW155245   3.311  10.917  11.835  1.9726 -2.8119  0.2404
15489SOL    HW255246   3.419  10.985  11.916 -0.5562  2.3436 -0.3237
15490SOL     OW55247   7.419   5.507   0.804  0.5354  0.3272  0.0705
15490SOL    HW155248   7.364   5.561   0.747 -0.0672 -0.3761 -0.0305
15490SOL    HW255249   7.370   5.501   0.886  1.0887  0.7858  0.4393
15491SOL     OW55250   8.015  11.100  11.952 -0.4331 -0.1539  0.1856
15491SOL    HW155251   8.082  11.055  12.003 -1.2911 -0.5989  0.9595
15491SOL    HW255252   8.031  11.193  11.969  0.5429 -0.2074 -0.3771
15492SOL     OW55253   2.887  11.311  10.446  0.2894 -0.0284  0.0798
15492SOL    HW155254   2.804  11.360  10.451  1.2079  1.5119  1.4289
15492SOL    HW255255   2.903  11.302  10.352 -1.2831 -0.1773 -0.2155
15493SOL     OW55256   9.898   7.571   7.445 -0.0781  0.5066  0.1851
15493SOL    HW155257   9.833   7.640   7.437 -0.5227  0.1189  0.4415
15493SOL    HW255258   9.848   7.489   7.440  0.5989  0.1620 -1.6708
15494SOL     OW55259  10.712   3.009   6.878  0.0178  0.1640 -0.4965
15494SOL    HW155260  10.674   2.926   6.909  1.6464  0.0968  1.5490
15494SOL    HW255261  10.657   3.076   6.919  0.9077  0.0617  0.9321
15495SOL     OW55262   1.343   6.412   2.819 -0.0818 -0.4042  0.2932
15495SOL    HW155263   1.279   6.483   2.823 -0.6087 -0.8729  0.3061
15495SOL    HW255264   1.310   6.354   2.750  0.2005 -0.7713  0.4646
15496SOL     OW55265   3.397   6.490   6.248 -0.6593 -0.2936 -0.3063
15496SOL    HW155266   3.445   6.527   6.322 -0.3625  1.9161 -1.5195
15496SOL    HW255267   3.453   6.420   6.216  1.3545  1.5723 -1.0710
15497SOL     OW55268   1.229   0.696  12.351  0.4724  0.2130 -0.1469
15497SOL    HW155269   1.320   0.679  12.327  0.3224 -0.3125 -0.3460
15497SOL    HW255270   1.198   0.613  12.386  0.1401  0.4629  0.1562
15498SOL     OW55271   4.492   8.366   5.737  0.3721 -0.0837 -0.8814
15498SOL    HW155272   4.502   8.288   5.791 -1.7342  0.1116 -0.1502
15498SOL    HW255273   4.398   8.381   5.731  0.6870  2.3363 -1.0861
15499SOL     OW55274   1.521   7.670   4.805  0.6538  0.6302  0.2160
15499SOL    HW155275   1.539   7.599   4.745 -1.6062  0.5531 -0.4673
15499SOL    HW255276   1.508   7.747   4.749 -0.5472  0.7544  0.6285
15500SOL     OW55277   9.021   7.248  11.177 -0.1517  0.0030  0.3084
15500SOL    HW155278   8.987   7.304  11.247 -2.0760 -1.4784  0.6364
15500SOL    HW255279   9.036   7.163  11.220  0.6540 -0.3581 -0.6481
15501SOL     OW55280   1.285   5.170   8.802  0.0514 -0.3368  0.2161
15501SOL    HW155281   1.292   5.214   8.886  0.9037 -2.6310  1.4265
15501SOL    HW255282   1.193   5.180   8.777 -0.3432 -0.1225  1.6938
15502SOL     OW55283   7.727  11.048  11.481 -0.1328  0.9324 -0.3111
15502SOL    HW155284   7.676  11.034  11.561 -0.1590  0.3812 -0.4247
15502SOL    HW255285   7.745  10.960  11.448 -1.3047  1.1556 -1.6561
15503SOL     OW55286   2.609  12.539   5.982 -0.0895 -0.0745  0.1524
15503SOL    HW155287   2.593  12.445   5.986 -0.5032 -0.1671 -2.0819
15503SOL    HW255288   2.667  12.557   6.056  1.2798 -2.3695 -0.2453
15504SOL     OW55289   1.062   0.116   8.327 -0.5138  0.3900  0.1973
15504SOL    HW155290   1.154   0.106   8.353 -0.5123 -0.4666 -0.0749
15504SOL    HW255291   1.055   0.064   8.247 -1.4948 -0.5103  0.8343
15505SOL     OW55292   8.706  11.175  12.563  0.2732 -0.4531  0.0161
15505SOL    HW155293   8.666  11.221  12.636  1.8923 -0.7919  1.1485
15505SOL    HW255294   8.717  11.242  12.495 -1.1168 -0.1155  0.0900
15506SOL     OW55295   1.480   7.480   6.845  0.3701  0.3593  0.0188
15506SOL    HW155296   1.534   7.433   6.908  0.8334  0.0628 -0.5893
15506SOL    HW255297   1.414   7.416   6.818  0.0307  0.5579  0.3711
15507SOL     OW55298   9.661   6.169   7.814  0.0089 -0.4566  0.3232
15507SOL    HW155299   9.756   6.158   7.812  0.0748  0.0921  0.3805
15507SOL    HW255300   9.628   6.085   7.846  0.5695 -0.1513  1.7750
15508SOL     OW55301   0.641   7.982   9.978  0.0166  0.0082  0.0177
15508SOL    HW155302   0.668   8.019  10.062  2.2596  1.4388 -1.2210
15508SOL    HW255303   0.676   7.892   9.980  2.1407  0.7619 -0.2105
15509SOL     OW55304   4.836   0.034   3.977  0.0876  0.5013  0.1402
15509SOL    HW155305   4.925   0.039   3.943  0.1430  0.5177  0.2843
15509SOL    HW255306   4.811  -0.058   3.969  0.5515  0.2757  1.1855
15510SOL     OW55307  12.298   1.654  10.711  0.5871  1.0219  0.7315
15510SOL    HW155308  12.264   1.591  10.648 -0.1379  0.5432  1.5784
15510SOL    HW255309  12.282   1.614  10.796  4.4376  0.1515  1.2419
15511SOL     OW55310   4.472   6.867   6.526 -0.1898 -0.0043  0.2105
15511SOL    HW155311   4.416   6.858   6.449  0.9031  2.0947 -0.9194
15511SOL    HW255312   4.551   6.817   6.504  1.0307  2.3484 -1.0466
15512SOL     OW55313  11.761   7.462   4.385 -0.3685  0.3059 -0.3221
15512SOL    HW155314  11.849   7.480   4.353 -0.9322  0.1392 -2.0629
15512SOL    HW255315  11.774   7.416   4.468  1.2550 -1.6412 -1.5669
15513SOL     OW55316  10.160  10.339   2.451  0.2718 -0.2154 -0.4419
15513SOL    HW155317  10.115  10.270   2.403  0.6730 -0.7651 -0.0355
15513SOL    HW255318  10.199  10.394   2.383  1.3842 -1.3556 -0.7622
15514SOL     OW55319   3.227   2.085  11.636 -0.7190 -0.3379 -0.5099
15514SOL    HW155320   3.250   2.004  11.681 -3.2346 -0.6195  0.4289
15514SOL    HW255321   3.297   2.146  11.659 -0.2620 -1.4164  1.1085
15515SOL     OW55322   5.588   6.310  11.538  0.1857 -0.0516  0.0428
15515SOL    HW155323   5.633   6.392  11.561  0.6832 -0.1904 -0.4040
15515SOL    HW255324   5.561   6.322  11.447  1.0988 -0.7343 -0.3383
15516SOL     OW55325   3.099   1.476  10.631  0.4805 -0.0174  0.1948
15516SOL    HW155326   3.121   1.386  10.656 -0.0010  0.1889  1.4394
15516SOL    HW255327   3.144   1.531  10.696  0.7489  0.6545 -0.5300
15517SOL     OW55328   6.512  10.831  11.765  0.0704  0.2506  0.6796
15517SOL    HW155329   6.595  10.859  11.804  0.6137  1.2780 -1.0780
15517SOL    HW255330   6.538  10.762  11.704 -0.2362  1.0994 -0.4392
15518SOL     OW55331   4.352   3.719   6.221  0.7957  0.1994  0.4175
15518SOL    HW155332   4.364   3.670   6.303  0.0955 -0.5232  0.1030
15518SOL    HW255333   4.440   3.749   6.199  1.6629 -2.5797 -0.3676
15519SOL     OW55334   6.360   8.560   6.828  0.1427 -0.2903  0.1035
15519SOL    HW155335   6.414   8.616   6.884  0.2255  1.4150 -1.5914
15519SOL    HW255336   6.318   8.620   6.767  1.1447 -2.1591 -2.5966
15520SOL     OW55337   8.797   7.465   1.257 -0.1491 -0.5273 -0.1430
15520SOL    HW155338   8.824   7.532   1.319  1.4407 -1.5165  0.2978
15520SOL    HW255339   8.829   7.383   1.294 -2.0438 -1.5596 -0.6693
15521SOL     OW55340   3.706   5.823   9.201  0.2850  0.2753  0.8357
15521SOL    HW155341   3.680   5.822   9.108  0.7292  0.2929  0.7088
15521SOL    HW255342   3.728   5.914   9.219 -0.9354  0.4947  1.2864
15522SOL     OW55343   8.157   8.175   3.062 -0.4725  0.2460  0.0922
15522SOL    HW155344   8.236   8.221   3.031 -0.1916 -0.0266  0.3999
15522SOL    HW255345   8.155   8.094   3.011 -1.7796  1.2148 -1.5411
15523SOL     OW55346  10.753   5.826  11.432  0.1195 -0.0081  0.0959
15523SOL    HW155347  10.803   5.751  11.464  1.4721 -0.0299 -1.8570
15523SOL    HW255348  10.817   5.881  11.387 -1.5596 -0.0433 -2.5718
15524SOL     OW55349  12.403   9.025   7.484  0.5345  0.5954  0.2797
15524SOL    HW155350  12.486   9.023   7.532  0.7977  1.1657 -0.1465
15524SOL    HW255351  12.423   8.982   7.401 -0.4257 -2.3167  1.4086
15525SOL     OW55352   1.731   2.395   3.154 -1.2707 -0.1273  0.0116
15525SOL    HW155353   1.740   2.471   3.097 -2.0553  0.0654  0.1390
15525SOL    HW255354   1.684   2.427   3.230 -1.8194 -0.7888 -0.0368
15526SOL     OW55355   5.680  12.241   2.657 -0.4123 -0.2141 -0.6745
15526SOL    HW155356   5.680  12.196   2.741 -0.4582 -0.9844 -1.0743
15526SOL    HW255357   5.643  12.177   2.596 -1.4005  0.7181 -1.0811
15527SOL     OW55358   0.080   3.676   3.815  1.0269  0.0253 -0.4441
15527SOL    HW155359  -0.015   3.689   3.819  1.1543  0.7212  0.5278
15527SOL    HW255360   0.103   3.693   3.724  0.6461  3.0599 -0.0515
15528SOL     OW55361   9.536   1.497   9.752 -0.0018 -0.4362  0.4384
15528SOL    HW155362   9.510   1.431   9.816  1.3476 -0.3590  1.1001
15528SOL    HW255363   9.624   1.470   9.724  0.1434  0.5180 -0.0513
15529SOL     OW55364   7.946   6.881   5.598 -0.7362  0.4391  0.4853
15529SOL    HW155365   7.898   6.942   5.541 -1.7201 -0.1250  0.6784
15529SOL    HW255366   7.885   6.863   5.670  0.1165  0.3828  1.2136
15530SOL     OW55367   4.388   4.808   4.768 -0.0088 -0.1018 -0.9694
15530SOL    HW155368   4.383   4.741   4.836  3.9244 -1.0328 -1.3554
15530SOL    HW255369   4.340   4.882   4.804  1.1892 -0.8200  2.5089
15531SOL     OW55370   5.483   6.823   2.149  0.9825 -0.2010 -0.5551
15531SOL    HW155371   5.510   6.790   2.235 -0.2096 -0.2576 -0.1912
15531SOL    HW255372   5.527   6.908   2.142 -0.3058  0.6295  0.8987
15532SOL     OW55373   3.374   4.719   7.170 -0.4919  0.2232 -0.0889
15532SOL    HW155374   3.306   4.656   7.145 -0.0304 -0.4115  0.2532
15532SOL    HW255375   3.330   4.804   7.163 -1.0520 -0.1079 -0.7733
15533SOL     OW55376  11.961   6.256  10.342  0.0972 -0.5969  0.2829
15533SOL    HW155377  11.992   6.287  10.427  0.8771  0.1140 -0.2426
15533SOL    HW255378  12.040   6.234  10.294 -0.4008 -2.7438  0.3582
15534SOL     OW55379  11.398   7.187   9.810  0.3985  0.3861  0.0408
15534SOL    HW155380  11.355   7.225   9.887  1.3580 -0.2266  0.9032
15534SOL    HW255381  11.358   7.100   9.801 -0.0501  0.6385 -0.4490
15535SOL     OW55382  10.448  10.787   2.779 -0.4700  0.1354  0.2554
15535SOL    HW155383  10.377  10.803   2.842  0.2524 -0.1182  1.1556
15535SOL    HW255384  10.524  10.767   2.834  0.5382  1.3075 -0.6689
15536SOL     OW55385   8.385   0.177   0.802 -0.3948  0.0251  0.8697
15536SOL    HW155386   8.417   0.245   0.742  0.9910  0.0545  1.6067
15536SOL    HW255387   8.403   0.213   0.889  2.5917 -2.2115  1.3264
15537SOL     OW55388   8.699  10.860   3.624  0.1455  0.2636 -0.7261
15537SOL    HW155389   8.608  10.885   3.640  0.3473  0.1292  0.7314
15537SOL    HW255390   8.702  10.766   3.641  0.6034  0.3043 -0.5565
15538SOL     OW55391   6.259  11.574  10.200  0.3275 -0.5905 -0.1384
15538SOL    HW155392   6.262  11.479  10.202 -0.1937 -0.6196 -0.4917
15538SOL    HW255393   6.303  11.602  10.280 -1.6907 -1.1860  1.2581
15539SOL     OW55394   6.116   7.469   7.692 -0.2792  0.7734 -0.0053
15539SOL    HW155395   6.086   7.379   7.708  0.0307  0.9717  1.9077
15539SOL    HW255396   6.201   7.458   7.650 -1.4166  0.2213 -2.3544
15540SOL     OW55397   2.465  11.445   3.794  0.3419 -0.6371  0.5129
15540SOL    HW155398   2.395  11.486   3.845  0.4795  0.2659  0.0058
15540SOL    HW255399   2.531  11.421   3.858  0.8962  1.2552  0.7281
15541SOL     OW55400   2.556   0.434   7.263  1.0174  0.1316  0.5705
15541SOL    HW155401   2.614   0.389   7.202  0.4568  1.5715 -1.0754
15541SOL    HW255402   2.614   0.470   7.330  1.7738 -0.3796  0.2017
15542SOL     OW55403   6.326  11.136   8.713  0.1096 -0.1975  0.1653
15542SOL    HW155404   6.275  11.089   8.779  1.1729 -1.6751 -0.0269
15542SOL    HW255405   6.310  11.229   8.732  1.9496 -0.4440  3.8328
15543SOL     OW55406  12.339   7.474  10.304 -0.4695 -0.6376  0.3913
15543SOL    HW155407  12.264   7.533  10.306  0.2699  0.3116  1.3587
15543SOL    HW255408  12.404   7.517  10.359  1.3167 -0.7500 -1.5203
15544SOL     OW55409   6.078   0.223  10.411  0.3901  0.1045  0.2795
15544SOL    HW155410   6.006   0.286  10.415  0.8317  0.6153  0.3277
15544SOL    HW255411   6.113   0.231  10.322 -0.8712 -1.5885 -0.4197
15545SOL     OW55412   7.108  10.042   7.404 -0.1767  0.2203  0.1595
15545SOL    HW155413   7.059   9.969   7.441 -0.1883  0.4686  0.6375
15545SOL    HW255414   7.041  10.106   7.379 -0.1259  0.3648  0.3908
15546SOL     OW55415   8.557   7.380  11.521 -0.3033  0.0428 -0.1689
15546SOL    HW155416   8.580   7.404  11.610 -2.7491  0.9487  0.2939
15546SOL    HW255417   8.552   7.284  11.522 -0.1523  0.0402  0.6183
15547SOL     OW55418   3.996   1.526   9.918  0.3809  0.3762  0.3611
15547SOL    HW155419   3.912   1.513   9.874  0.2772  2.0655  0.0100
15547SOL    HW255420   3.973   1.561  10.004  0.7385  1.2316  0.1106
15548SOL     OW55421   0.069  10.861   0.097  0.1900  0.2895 -0.1895
15548SOL    HW155422   0.032  10.924   0.034 -2.4016 -0.3428  0.5665
15548SOL    HW255423   0.124  10.804   0.044 -0.4449  0.8917 -1.5654
15549SOL     OW55424   0.176   6.483   3.462 -0.3265 -0.2164 -0.5330
15549SOL    HW155425   0.174   6.481   3.366  1.3528 -0.7329 -0.5798
15549SOL    HW255426   0.209   6.397   3.487 -0.1013  0.1577  0.4927
15550SOL     OW55427  10.713   3.513   2.581 -0.4494 -0.0693  0.2456
15550SOL    HW155428  10.722   3.589   2.524 -0.3161  0.4249  0.9114
15550SOL    HW255429  10.683   3.443   2.523  1.5536 -0.1057 -0.8218
15551SOL     OW55430   0.088   3.506   3.510 -0.0309 -0.1029 -0.5831
15551SOL    HW155431   0.135   3.466   3.437  0.2285 -2.1774  0.6319
15551SOL    HW255432   0.095   3.442   3.581 -1.0181  1.4425  0.9977
15552SOL     OW55433  10.505   2.066   8.785  0.4574  0.2352  0.1191
15552SOL    HW155434  10.515   2.043   8.693  0.2380  0.2529  0.0897
15552SOL    HW255435  10.417   2.102   8.792  0.6153  0.5992  0.2633
15553SOL     OW55436  11.624  12.433   7.981 -0.6980  0.8436 -0.2202
15553SOL    HW155437  11.662  12.407   8.065  0.3513 -2.2571 -1.5258
15553SOL    HW255438  11.634  12.528   7.980 -0.5281  0.9920  3.0196
15554SOL     OW55439   3.713   5.649  10.592 -0.1586  0.1587  0.1766
15554SOL    HW155440   3.778   5.697  10.540 -0.4093  0.2035 -0.0967
15554SOL    HW255441   3.632   5.658  10.543 -0.0339 -1.2908 -0.3504
15555SOL     OW55442  12.041   3.530   3.548  0.0235  0.0151  0.5323
15555SOL    HW155443  11.985   3.488   3.613 -0.9680  1.8210  0.9188
15555SOL    HW255444  11.996   3.513   3.464 -0.0855 -0.1325  0.6192
15556SOL     OW55445   7.805   0.415   3.914  0.0809 -0.1165  0.0192
15556SOL    HW155446   7.851   0.368   3.984 -1.7007 -0.8854  0.7231
15556SOL    HW255447   7.813   0.507   3.938  0.6355 -0.2842  0.5048
15557SOL     OW55448   9.617   6.301   0.279 -0.2943 -0.3881 -0.2008
15557SOL    HW155449   9.649   6.212   0.263 -0.0070 -0.3402  0.0795
15557SOL    HW255450   9.637   6.316   0.372  0.2848  0.2227 -0.4220
15558SOL     OW55451   1.148   0.558  12.051 -0.4102 -0.5112  0.0651
15558SOL    HW155452   1.220   0.618  12.033  1.0829 -2.0181  0.7826
15558SOL    HW255453   1.097   0.557  11.970 -1.2746  2.6480  0.4285
15559SOL     OW55454   5.787   4.151   8.314  0.2180  0.0363 -0.6108
15559SOL    HW155455   5.708   4.105   8.289  0.1035  0.3771 -0.8873
15559SOL    HW255456   5.801   4.127   8.406  0.4756 -0.9775 -0.9041
15560SOL     OW55457   5.037   0.684   9.143  0.0642 -0.0012  0.3884
15560SOL    HW155458   4.991   0.722   9.218  1.6540 -1.8672  2.4372
15560SOL    HW255459   5.113   0.741   9.130  0.5763 -0.4717  1.2054
15561SOL     OW55460   1.119   7.896   0.614 -0.4306  0.0152 -0.1664
15561SOL    HW155461   1.196   7.844   0.637 -0.4784 -0.4353 -0.9792
15561SOL    HW255462   1.047   7.855   0.661 -0.6733 -1.4099 -1.6885
15562SOL     OW55463   5.547   7.127   1.773 -0.1046 -0.4257 -0.0807
15562SOL    HW155464   5.563   7.193   1.841 -1.1259  0.2219 -0.4499
15562SOL    HW255465   5.624   7.071   1.776  0.7289  0.7022  0.3447
15563SOL     OW55466  11.083   1.270   2.398  0.1354  0.0310 -0.7921
15563SOL    HW155467  11.176   1.276   2.416  0.1456 -0.3347 -0.7164
15563SOL    HW255468  11.065   1.176   2.394 -0.7512 -0.0064  1.9504
15564SOL     OW55469  10.440   0.850   5.374 -0.2002  0.7766  0.1019
15564SOL    HW155470  10.377   0.877   5.441  0.8849 -0.2643  1.6112
15564SOL    HW255471  10.523   0.843   5.421  0.3619 -1.1853 -1.0591
15565SOL     OW55472  10.106   6.085   9.599 -0.1551 -0.2793 -0.3772
15565SOL    HW155473  10.064   6.002   9.579  0.2608 -0.6237  0.1329
15565SOL    HW255474  10.180   6.090   9.537 -0.5632  0.0289 -0.8496
15566SOL     OW55475   2.415   9.416   4.047  0.2013 -0.0956  0.5802
15566SOL    HW155476   2.427   9.500   4.003 -0.5633  0.2947  1.0901
15566SOL    HW255477   2.433   9.351   3.980  2.0132  0.4375  0.4859
15567SOL     OW55478   6.351   5.926  11.841 -0.3497  0.0246 -0.2112
15567SOL    HW155479   6.393   5.980  11.908  0.0769  0.9836 -1.2260
15567SOL    HW255480   6.326   5.846  11.887  0.2276  0.5270  1.0159
15568SOL     OW55481   4.961   5.697   1.115  0.3951 -0.7613  0.8402
15568SOL    HW155482   4.950   5.670   1.024 -0.4546 -2.3276  1.3516
15568SOL    HW255483   5.054   5.684   1.133  1.0251  1.5695 -0.3398
15569SOL     OW55484   2.049  10.641   8.043 -0.0782 -0.1922 -0.0124
15569SOL    HW155485   2.018  10.601   8.124  1.2340 -1.8977 -0.3041
15569SOL    HW255486   1.971  10.678   8.003 -0.5828  2.0403  2.6867
15570SOL     OW55487  12.105   0.703   3.884  0.5371  0.2926 -0.0910
15570SOL    HW155488  12.155   0.623   3.902 -0.5867 -0.2763  0.6071
15570SOL    HW255489  12.048   0.680   3.811  1.0217  0.8282 -0.6473
15571SOL     OW55490   3.415  10.958   8.335  1.0491  0.0401  0.1574
15571SOL    HW155491   3.421  11.030   8.273  2.1323  1.2250  1.5643
15571SOL    HW255492   3.349  10.900   8.298  1.5295  0.7810 -1.9743
15572SOL     OW55493   4.186   7.034   6.066 -0.1102  0.6874  0.4128
15572SOL    HW155494   4.143   6.958   6.027 -1.6545  0.5161  2.3520
15572SOL    HW255495   4.275   7.032   6.029 -0.9301 -0.4710 -1.6415
15573SOL     OW55496   1.254   3.705   7.484  0.1322 -0.1596  0.3414
15573SOL    HW155497   1.343   3.738   7.470  0.3633 -1.2442 -1.0002
15573SOL    HW255498   1.199   3.783   7.482  0.8824  0.3653 -0.5955
15574SOL     OW55499   0.004   6.888   3.468  0.4289 -0.4245 -0.1839
15574SOL    HW155500   0.024   6.982   3.471  0.9520 -0.5445  0.0586
15574SOL    HW255501   0.013   6.865   3.375 -0.6208 -0.0395 -0.3974
15575SOL     OW55502   5.496   3.923  11.082  0.2595  0.0311  0.1057
15575SOL    HW155503   5.412   3.969  11.081  0.5070  0.5579  1.2446
15575SOL    HW255504   5.561   3.989  11.060  0.7331  0.5829  2.8023
15576SOL     OW55505   0.431   8.134  10.450  0.4219 -0.1390 -0.0653
15576SOL    HW155506   0.489   8.090  10.513  1.1053 -0.8027 -1.1118
15576SOL    HW255507   0.424   8.072  10.377 -1.2848  0.1182 -0.1602
15577SOL     OW55508  12.541   7.403   9.916 -0.2335 -0.4910  0.4765
15577SOL    HW155509  12.487   7.363   9.984  0.7252 -0.6120  1.1923
15577SOL    HW255510  12.608   7.451   9.964  0.2721 -0.3180 -0.3853
15578SOL     OW55511   6.397   5.929   8.718 -0.4357 -0.3014  0.0786
15578SOL    HW155512   6.480   5.954   8.758 -0.4766 -0.4953  0.2924
15578SOL    HW255513   6.332   5.983   8.762 -0.1889  1.5252 -1.7010
15579SOL     OW55514   7.777  10.043  11.920 -0.6348  0.0839 -0.0436
15579SOL    HW155515   7.871  10.053  11.935 -0.7952  0.5730  0.6909
15579SOL    HW255516   7.743  10.132  11.921 -1.0216 -0.0418 -0.9828
15580SOL     OW55517  10.881   7.260   5.815 -1.0136  0.4792 -0.1167
15580SOL    HW155518  10.952   7.253   5.751 -0.7590  0.2576  0.1857
15580SOL    HW255519  10.888   7.349   5.850 -0.0675  0.0544  0.8401
15581SOL     OW55520   5.756   8.035   7.687 -0.1600  0.2421  0.6444
15581SOL    HW155521   5.744   7.942   7.707 -2.0156  0.3420  0.1850
15581SOL    HW255522   5.746   8.040   7.592 -0.6456  0.9788  0.7331
15582SOL     OW55523   3.511  11.277   3.165  0.1750 -0.2684  0.2852
15582SOL    HW155524   3.572  11.332   3.116  1.1033 -1.1751  0.3956
15582SOL    HW255525   3.507  11.315   3.252 -0.8056  0.8349 -0.2097
15583SOL     OW55526   1.687  11.210   7.840  0.6156 -0.4569 -0.1636
15583SOL    HW155527   1.653  11.206   7.929  1.0411 -1.6874 -0.0302
15583SOL    HW255528   1.760  11.148   7.840  0.9933 -0.0267 -1.2108
15584SOL     OW55529   6.151   4.802   3.553 -0.0432 -0.9134 -1.0908
15584SOL    HW155530   6.139   4.711   3.526 -0.6287 -0.7685 -1.3247
15584SOL    HW255531   6.244   4.808   3.574 -0.2651 -1.9728  0.4012
15585SOL     OW55532   3.908   7.430   4.796 -0.4009 -0.5512 -0.3581
15585SOL    HW155533   3.903   7.337   4.774 -1.7267 -0.7369  0.6185
15585SOL    HW255534   3.865   7.474   4.723 -1.1884 -0.8463 -0.0859
15586SOL     OW55535  10.015   4.963   3.233  0.1021  0.7552  1.2980
15586SOL    HW155536   9.922   4.988   3.231 -0.3723 -0.8603 -0.9693
15586SOL    HW255537  10.022   4.902   3.306 -0.9881 -0.2025  0.6387
15587SOL     OW55538   3.923   9.311   4.850 -0.3353  0.1568  0.3651
15587SOL    HW155539   3.868   9.389   4.855 -0.6663  0.0643 -1.2463
15587SOL    HW255540   3.937   9.297   4.756 -0.3365 -1.7607  0.5956
15588SOL     OW55541   2.061   3.043   5.266  0.1010  0.1489  0.3085
15588SOL    HW155542   2.028   2.954   5.277 -0.3936  0.2434 -0.3508
15588SOL    HW255543   1.982   3.097   5.260  0.3896  0.7439  1.4947
15589SOL     OW55544  11.999   2.014   1.945 -0.4048 -0.2720 -0.0423
15589SOL    HW155545  12.026   2.074   2.015  1.5770 -0.3045 -0.7218
15589SOL    HW255546  12.045   2.047   1.867  0.1411 -2.2184 -0.5872
15590SOL     OW55547  10.133   9.796   0.726 -0.0004 -0.1418  0.1798
15590SOL    HW155548  10.188   9.721   0.702  0.3089 -0.5886  2.1361
15590SOL    HW255549  10.189   9.849   0.783 -0.6279  0.9589 -0.2120
15591SOL     OW55550   1.316   9.377   6.586  0.4066 -0.2287 -0.0067
15591SOL    HW155551   1.306   9.348   6.677 -0.8141  1.2449  0.3632
15591SOL    HW255552   1.245   9.439   6.572  0.0583 -1.0246 -2.2529
15592SOL     OW55553  12.074   5.988   5.533  0.0094  0.3356  0.4196
15592SOL    HW155554  12.166   5.986   5.560  1.1794 -0.4573 -3.0631
15592SOL    HW255555  12.050   5.896   5.522 -0.5130  0.5700 -0.5774
15593SOL     OW55556   2.024   4.541   4.506  0.3634  0.2055 -0.3594
15593SOL    HW155557   2.046   4.596   4.431 -1.0743 -1.2800 -1.9775
15593SOL    HW255558   2.080   4.464   4.498 -0.1461 -0.1910 -0.2219
15594SOL     OW55559   7.878  10.782   2.832  0.0748 -0.3506  0.5165
15594SOL    HW155560   7.964  10.809   2.801  0.1124  0.5147  1.3330
15594SOL    HW255561   7.894  10.701   2.879  0.6678  0.4800  1.7840
15595SOL     OW55562   1.237   0.466   9.573 -0.7049 -0.1757  0.7551
15595SOL    HW155563   1.153   0.420   9.572 -1.0591  0.4699 -0.3177
15595SOL    HW255564   1.303   0.396   9.582 -1.2310 -0.9001 -0.7097
15596SOL     OW55565   7.972   2.866  12.486  0.0221 -0.2389  0.6085
15596SOL    HW155566   7.932   2.783  12.460 -1.7063  0.7406 -0.0279
15596SOL    HW255567   8.021   2.846  12.566  0.5518 -2.0794 -0.1475
15597SOL     OW55568  11.754   5.871   7.609  0.4675  0.7099 -0.0513
15597SOL    HW155569  11.765   5.830   7.523  0.8094  0.1091  0.2684
15597SOL    HW255570  11.729   5.961   7.589 -2.5340 -0.1709 -0.7906
15598SOL     OW55571   4.772   9.089   4.521 -0.1326  0.7758 -0.0221
15598SOL    HW155572   4.772   9.047   4.436 -1.1828  1.1254 -0.2100
15598SOL    HW255573   4.850   9.145   4.521 -0.0478  0.6581 -0.6881
15599SOL     OW55574   6.757   0.928   2.805  0.2021  0.3444  0.1339
15599SOL    HW155575   6.776   0.859   2.868  2.2628  0.1847 -0.5914
15599SOL    HW255576   6.686   0.892   2.750 -1.0086  0.1507  1.7518
15600SOL     OW55577   9.691   4.452   3.291 -0.4185 -0.5636 -0.5473
15600SOL    HW155578   9.641   4.384   3.338 -0.1860 -1.2436 -1.2643
15600SOL    HW255579   9.774   4.409   3.270  0.1171  0.2661 -0.1700
15601SOL     OW55580   0.086   5.254   0.562 -0.4738  0.2678  0.1605
15601SOL    HW155581   0.109   5.299   0.481 -0.5862 -0.8108 -0.4889
15601SOL    HW255582  -0.006   5.278   0.577 -0.6446 -0.0194 -0.3794
15602SOL     OW55583   3.038   6.737   2.033 -0.0775 -0.0307 -0.1862
15602SOL    HW155584   2.950   6.769   2.018 -0.2459 -0.5234 -0.2732
15602SOL    HW255585   3.042   6.654   1.986 -0.0967 -0.8208  1.1479
15603SOL     OW55586   1.710   2.820   1.482  0.2887  0.6224  0.4234
15603SOL    HW155587   1.630   2.841   1.530  0.3342  0.2838  0.6581
15603SOL    HW255588   1.780   2.861   1.534  0.1862  1.7787 -0.3271
15604SOL     OW55589   9.232   6.350   9.906 -0.1041 -0.6608  0.1068
15604SOL    HW155590   9.324   6.345   9.932 -0.3649 -1.0918  0.9646
15604SOL    HW255591   9.233   6.406   9.828  0.9577 -1.1629 -0.2592
15605SOL     OW55592   0.351   4.979   3.052 -0.5001 -0.3401 -0.1809
15605SOL    HW155593   0.358   5.058   3.000  3.1914 -0.2285  0.2342
15605SOL    HW255594   0.263   4.945   3.033 -0.6900  1.6171 -3.5474
15606SOL     OW55595  11.500   6.666   3.382 -0.0351 -0.0266 -0.1201
15606SOL    HW155596  11.452   6.680   3.463 -2.3243  1.2372 -1.5718
15606SOL    HW255597  11.555   6.745   3.372  0.0354 -0.0535  0.0545
15607SOL     OW55598   4.599   4.570   7.209  0.5339  0.2631  1.0028
15607SOL    HW155599   4.588   4.528   7.294  1.1617  0.8223  1.3666
15607SOL    HW255600   4.630   4.500   7.152  1.7398  0.2617  1.6415
15608SOL     OW55601   9.789  10.162   4.121  0.2886 -0.4235  0.6901
15608SOL    HW155602   9.707  10.119   4.096  0.0083 -0.3040  1.3725
15608SOL    HW255603   9.761  10.245   4.161  0.7834 -0.0008  0.1735
15609SOL     OW55604   2.913   6.584   3.615 -0.3083 -0.3034 -0.2822
15609SOL    HW155605   2.914   6.637   3.694 -0.8363 -1.6743  0.6856
15609SOL    HW255606   2.999   6.597   3.575  0.4442 -0.5713  1.2064
15610SOL     OW55607   0.455   8.541   8.427  0.5115 -0.4961  0.5061
15610SOL    HW155608   0.372   8.514   8.467  0.3539 -0.2894  0.3168
15610SOL    HW255609   0.520   8.484   8.468  0.2648 -0.7273  0.5845
15611SOL     OW55610   8.651   4.304   2.861 -0.0060 -0.1139  0.3785
15611SOL    HW155611   8.578   4.366   2.863 -0.1391 -0.1587 -1.2730
15611SOL    HW255612   8.726   4.355   2.830  0.5029 -0.2398  1.3550
15612SOL     OW55613  10.047   1.571   3.062 -0.3893  0.3193  0.0010
15612SOL    HW155614  10.087   1.650   3.097 -0.8603  1.0085 -0.9674
15612SOL    HW255615  10.120   1.512   3.044  0.0148  0.7792  0.1358
15613SOL     OW55616  11.620  10.587   3.150  0.3415  0.2194  0.4015
15613SOL    HW155617  11.619  10.508   3.095 -1.3987  0.3114  0.2404
15613SOL    HW255618  11.587  10.656   3.092  2.5355  1.2907  0.3045
15614SOL     OW55619   5.131   0.520   3.512 -0.1208  0.3416 -0.4627
15614SOL    HW155620   5.142   0.520   3.607 -2.0224  2.0663 -0.1646
15614SOL    HW255621   5.118   0.428   3.489 -0.2742 -0.0356  1.0369
15615SOL     OW55622   6.298   2.713   8.593 -0.5230  0.4833  0.0599
15615SOL    HW155623   6.366   2.754   8.538  1.4087 -1.0371  1.1771
15615SOL    HW255624   6.274   2.781   8.656  1.4165  0.5012  0.8592
15616SOL     OW55625   8.525  11.286   1.730  0.1257  0.7720  0.2887
15616SOL    HW155626   8.568  11.205   1.757 -2.5719 -1.4956 -1.7501
15616SOL    HW255627   8.508  11.276   1.637 -3.0385  2.2922  0.5553
15617SOL     OW55628  12.306   0.953   9.486 -0.0426 -0.2195 -0.0280
15617SOL    HW155629  12.238   0.983   9.546  1.0551  0.1402  1.0609
15617SOL    HW255630  12.367   0.904   9.541  1.1464  0.3758 -0.7917
15618SOL     OW55631  10.057   4.248   3.421  0.0065  0.3931  0.2423
15618SOL    HW155632  10.008   4.324   3.388  1.1825  1.0018 -0.1703
15618SOL    HW255633  10.028   4.175   3.367 -0.7061  0.6673  0.2465
15619SOL     OW55634   8.091   9.032   3.597 -0.2792 -0.1466 -0.5563
15619SOL    HW155635   8.163   9.073   3.550 -0.3465 -0.2311 -0.7371
15619SOL    HW255636   8.118   9.033   3.689 -1.0919  2.0078 -0.2866
15620SOL     OW55637   2.976   7.996  11.350 -0.0905 -0.0556  0.7084
15620SOL    HW155638   3.017   8.083  11.347  0.5170 -0.3585 -1.1926
15620SOL    HW255639   3.038   7.939  11.304 -0.9909 -1.2811  0.9781
15621SOL     OW55640   5.919  12.577  12.198  0.6132 -0.2992 -0.1572
15621SOL    HW155641   5.968  12.577  12.116  0.7655 -0.1936 -0.0676
15621SOL    HW255642   5.833  12.613  12.175  1.5196  2.3222  0.2133
15622SOL     OW55643   2.966   8.449   8.280  0.1262 -0.2300 -0.1546
15622SOL    HW155644   2.871   8.447   8.291  0.2390 -0.9492  0.8616
15622SOL    HW255645   2.999   8.491   8.360  0.6221  0.9480 -0.9520
15623SOL     OW55646   3.365   4.488  10.958  0.0493 -0.3390  0.3899
15623SOL    HW155647   3.314   4.538  11.022  0.0450 -0.9372  0.8659
15623SOL    HW255648   3.456   4.502  10.983  0.1084  0.4080 -0.2196
15624SOL     OW55649   1.690  11.816   2.664 -0.1299 -0.1427 -0.0026
15624SOL    HW155650   1.649  11.738   2.701  0.9383 -0.6933  0.0653
15624SOL    HW255651   1.723  11.788   2.579  1.3264 -0.1401  0.5232
15625SOL     OW55652   3.171   0.131   6.905 -0.4247 -0.0436  0.6082
15625SOL    HW155653   3.223   0.066   6.951 -0.8283 -0.1478  0.9302
15625SOL    HW255654   3.230   0.170   6.841  0.5949  1.1327  2.1784
15626SOL     OW55655   9.119   3.951   0.008  0.0242  0.1725  0.7071
15626SOL    HW155656   9.054   3.976   0.074  2.9495  1.3579  3.4105
15626SOL    HW255657   9.175   3.887   0.053  1.0528 -0.4304 -1.3066
15627SOL     OW55658   3.885   7.035   2.287 -0.2491  0.1006 -0.2200
15627SOL    HW155659   3.815   6.971   2.300  0.3254 -0.7209 -1.0290
15627SOL    HW255660   3.886   7.050   2.193  0.3010  0.5289 -0.1484
15628SOL     OW55661  10.707  11.936  11.401  0.1748  0.1786 -0.0218
15628SOL    HW155662  10.690  11.966  11.491  0.2203  0.4928 -0.1176
15628SOL    HW255663  10.644  11.983  11.348 -0.9520 -1.2043  0.0240
15629SOL     OW55664   6.609   7.320   1.652 -0.7328 -0.1109  0.1262
15629SOL    HW155665   6.526   7.313   1.606 -0.1569 -1.7810 -0.7479
15629SOL    HW255666   6.658   7.242   1.626  0.0397 -0.6045  2.7660
15630SOL     OW55667  11.552   6.856   5.348 -0.3506 -0.0217  0.2009
15630SOL    HW155668  11.519   6.798   5.416 -0.3266 -0.4250 -0.1304
15630SOL    HW255669  11.642   6.874   5.373  0.2917 -1.7427 -0.7438
15631SOL     OW55670   7.251   4.317   4.969  0.5816 -0.1619 -0.0056
15631SOL    HW155671   7.203   4.392   5.003  1.4698  0.1863  0.4902
15631SOL    HW255672   7.309   4.291   5.040  0.9741 -0.7175 -0.5190
15632SOL     OW55673   7.088  11.879  12.285 -1.1024 -0.2832 -0.2447
15632SOL    HW155674   7.095  11.943  12.215  0.9940 -0.5491 -0.3383
15632SOL    HW255675   7.009  11.828  12.263 -0.4941 -0.3848 -2.4391
15633SOL     OW55676  12.215   7.372  12.318 -0.1951 -0.5567 -0.5965
15633SOL    HW155677  12.284   7.313  12.345 -1.0899 -1.3305  0.0575
15633SOL    HW255678  12.223   7.448  12.376  0.1347 -0.6215 -0.5582
15634SOL     OW55679  12.382   8.346  10.052  0.1503 -0.1237 -0.3251
15634SOL    HW155680  12.408   8.431  10.089  3.5441 -0.1275 -2.3061
15634SOL    HW255681  12.447   8.284  10.086 -0.7050 -1.4093 -0.9629
15635SOL     OW55682  10.032  10.687   1.677 -0.1466 -0.5340 -0.4939
15635SOL    HW155683  10.004  10.760   1.621  0.1962  0.0562  0.0760
15635SOL    HW255684   9.989  10.704   1.760  2.1810  0.6836  0.5836
15636SOL     OW55685   2.221  10.066   4.887  0.1015  0.0441 -0.4285
15636SOL    HW155686   2.275  10.145   4.882  0.3318 -0.0717  0.1249
15636SOL    HW255687   2.147  10.091   4.942  0.0304 -0.0442 -0.4832
15637SOL     OW55688   1.535   0.215   2.025 -0.4598 -0.3934  0.1379
15637SOL    HW155689   1.473   0.284   2.002 -1.2848 -1.4524 -0.9061
15637SOL    HW255690   1.495   0.169   2.098 -1.1072 -1.3229 -0.7900
15638SOL     OW55691  11.338   9.994   1.831  0.7317  0.0160 -0.4635
15638SOL    HW155692  11.249  10.014   1.801  1.3037  0.5114 -1.9401
15638SOL    HW255693  11.372  10.078   1.863  0.1594 -0.4884  1.6231
15639SOL     OW55694   0.844  11.145   9.470  0.6733  0.5013  0.4546
15639SOL    HW155695   0.766  11.089   9.465  1.2863 -0.2644 -2.6962
15639SOL    HW255696   0.882  11.141   9.383  3.7647  1.6213  1.6148
15640SOL     OW55697   3.546   6.851   3.648 -0.0022 -0.5580 -1.2023
15640SOL    HW155698   3.547   6.892   3.561  1.3325  0.7339 -0.6320
15640SOL    HW255699   3.613   6.899   3.697 -0.2513 -1.7202  0.3369
15641SOL     OW55700   8.682   9.952   5.057  0.5320  0.1251 -0.4784
15641SOL    HW155701   8.647   9.983   4.973  2.3851 -0.2793 -1.4409
15641SOL    HW255702   8.691   9.858   5.045 -1.4459 -0.3345  1.0791
15642SOL     OW55703   8.899   0.210   1.210  0.4775  0.3738  0.0845
15642SOL    HW155704   8.941   0.136   1.167 -0.6381 -0.3379  0.1723
15642SOL    HW255705   8.877   0.178   1.297 -0.6244  0.5593 -0.1049
15643SOL     OW55706  12.527   3.642  11.813  1.0427  0.4848  0.1469
15643SOL    HW155707  12.513   3.715  11.752 -0.2137 -0.6148 -0.9589
15643SOL    HW255708  12.472   3.664  11.889  2.2391  1.6301  0.7193
15644SOL     OW55709   8.674   6.243   9.248 -0.6967  0.1553 -0.4702
15644SOL    HW155710   8.592   6.198   9.271 -0.4667  0.3829  0.8827
15644SOL    HW255711   8.648   6.306   9.181 -2.0121  1.4583  1.1787
15645SOL     OW55712   3.082   4.897   4.580 -0.3330  0.0171  0.0090
15645SOL    HW155713   3.028   4.828   4.619 -0.7105 -0.1743 -0.8267
15645SOL    HW255714   3.020   4.950   4.529  0.3931 -0.8815 -1.9218
15646SOL     OW55715   5.234   3.501   9.810 -0.4859  0.3406 -0.1082
15646SOL    HW155716   5.301   3.434   9.825 -0.7071  0.2067  0.2988
15646SOL    HW255717   5.153   3.452   9.795 -0.6543  0.5109  0.2216
15647SOL     OW55718   9.615   5.199   8.178 -0.2045  0.2279 -0.3369
15647SOL    HW155719   9.601   5.243   8.094 -1.8342 -0.1253 -0.2961
15647SOL    HW255720   9.674   5.126   8.157  1.8265  1.8753 -0.5620
15648SOL     OW55721   6.495   6.715   2.867  0.1184  0.4833 -0.4851
15648SOL    HW155722   6.481   6.747   2.778  3.2646 -0.1545 -1.3270
15648SOL    HW255723   6.522   6.624   2.855 -2.6355 -0.7343  1.4448
15649SOL     OW55724   7.760   6.011   8.291 -0.2987 -0.5184 -0.4326
15649SOL    HW155725   7.724   5.958   8.220  0.2199  0.6509 -1.6037
15649SOL    HW255726   7.685   6.030   8.347 -0.9839 -0.3541 -1.3851
15650SOL     OW55727   7.054   2.864  10.168 -0.4352 -0.0166  0.2741
15650SOL    HW155728   6.967   2.904  10.169 -0.2379  0.4301  1.1697
15650SOL    HW255729   7.037   2.772  10.149 -0.9848  0.2994 -0.8413
15651SOL     OW55730   4.469   8.869   6.928 -0.2717 -0.4207  0.0051
15651SOL    HW155731   4.457   8.922   6.850  0.3645 -1.1653 -0.6111
15651SOL    HW255732   4.426   8.918   6.998  1.4355  1.5826 -0.2686
15652SOL     OW55733   1.495   8.958   0.954 -0.1104  0.3154  0.0975
15652SOL    HW155734   1.452   8.888   1.005 -2.1942  2.2371  1.1491
15652SOL    HW255735   1.532   9.016   1.020  0.0224  1.1450 -0.6904
15653SOL     OW55736   0.914  11.904   6.224 -0.4306 -0.2181 -0.5484
15653SOL    HW155737   0.945  11.995   6.228  1.7803 -0.9286 -0.6946
15653SOL    HW255738   0.843  11.907   6.159 -1.4622  1.6508  0.5604
15654SOL     OW55739  10.743  10.800   2.575 -0.1439 -0.5156  0.4196
15654SOL    HW155740  10.812  10.771   2.515  0.1811  0.9847  0.0284
15654SOL    HW255741  10.783  10.796   2.662  0.2092 -0.3291  0.2670
15655SOL     OW55742   9.207   4.509   6.777 -0.2666 -0.1301  0.1396
15655SOL    HW155743   9.158   4.543   6.702  0.5078  0.5325 -0.0706
15655SOL    HW255744   9.297   4.539   6.763  0.5345 -2.5237 -0.2039
15656SOL     OW55745   1.811   1.292   8.335  0.4741 -0.1227 -0.4172
15656SOL    HW155746   1.761   1.276   8.254  1.3874  0.2902 -1.0887
15656SOL    HW255747   1.876   1.222   8.337  1.3873  0.6819 -0.8299
15657SOL     OW55748   2.084  10.633   0.065 -1.0436 -0.2446 -0.4299
15657SOL    HW155749   2.178  10.624   0.049 -1.2968 -0.6514 -1.9067
15657SOL    HW255750   2.077  10.667   0.154  0.5196  0.4257 -0.5404
15658SOL     OW55751   1.468   5.359   9.832  0.0781  0.0357 -0.4159
15658SOL    HW155752   1.507   5.444   9.813  1.5132 -0.4519  0.1802
15658SOL    HW255753   1.385   5.359   9.785  1.0300  0.9229 -2.1732
15659SOL     OW55754   4.424   1.444   0.930 -0.6943  0.0902  0.1108
15659SOL    HW155755   4.487   1.373   0.939 -0.7034  0.0317 -0.2648
15659SOL    HW255756   4.347   1.402   0.890  0.1394  0.7510 -2.3876
15660SOL     OW55757   4.756   6.751  11.543 -0.5394 -0.0019 -0.3551
15660SOL    HW155758   4.786   6.780  11.457  0.1649 -1.4636 -0.6450
15660SOL    HW255759   4.666   6.783  11.550  0.2240  2.3579 -0.5294
15661SOL     OW55760   2.819   6.297  12.117 -0.2804 -0.1746  0.6690
15661SOL    HW155761   2.853   6.360  12.054  1.2933  0.9082  2.4852
15661SOL    HW255762   2.755   6.347  12.169 -0.7162 -0.7303  0.6855
15662SOL     OW55763   7.953   6.027   6.651  0.3023  0.1404 -0.4402
15662SOL    HW155764   8.031   6.039   6.706  0.4261 -0.3007 -0.5164
15662SOL    HW255765   7.908   5.952   6.689 -0.6717  1.0535  0.2608
15663SOL     OW55766   4.117   9.114   0.508 -0.6462 -0.0424  0.6715
15663SOL    HW155767   4.150   9.037   0.555  1.5355  0.6821  0.4470
15663SOL    HW255768   4.169   9.187   0.542  2.2428  0.3578 -3.6707
15664SOL     OW55769   8.527   5.021   8.142 -0.2949 -0.1483  0.2566
15664SOL    HW155770   8.443   4.996   8.179 -0.2144  2.5588  2.6292
15664SOL    HW255771   8.592   4.977   8.196 -0.1396 -0.7160 -0.3705
15665SOL     OW55772   7.048   6.543   8.626 -0.2215  0.0763 -0.2799
15665SOL    HW155773   7.049   6.467   8.568  0.1809 -0.0424 -0.1261
15665SOL    HW255774   7.049   6.506   8.714 -0.8674  0.2551 -0.1934
15666SOL     OW55775   0.255   6.781   4.565  0.1552 -0.3279  0.0060
15666SOL    HW155776   0.307   6.705   4.537 -0.2637 -0.5147 -0.2696
15666SOL    HW255777   0.231   6.825   4.483  2.2368  1.3687  0.2105
15667SOL     OW55778   2.212   2.114  11.513 -0.1609  0.0696  0.1971
15667SOL    HW155779   2.142   2.166  11.475 -0.3821 -2.6813 -3.7955
15667SOL    HW255780   2.168   2.039  11.554  0.3103  0.3596  1.2527
15668SOL     OW55781  10.677   5.902   9.174 -0.4231 -0.1023 -0.0073
15668SOL    HW155782  10.653   5.995   9.174 -2.8825 -0.6151 -2.0588
15668SOL    HW255783  10.732   5.892   9.096 -1.1748 -0.5395 -0.4958
15669SOL     OW55784   8.229   6.446   5.141  0.9623  0.5149  0.6356
15669SOL    HW155785   8.266   6.472   5.056 -0.5277 -1.6504 -0.7711
15669SOL    HW255786   8.282   6.371   5.168  1.6902  1.4359  1.9010
15670SOL     OW55787   6.018   0.134   6.323  0.0502 -0.2310  0.2687
15670SOL    HW155788   6.060   0.157   6.407 -0.7830  1.8234  0.1811
15670SOL    HW255789   6.083   0.160   6.257  0.3346 -0.9997  0.2386
15671SOL     OW55790   5.503   9.510   7.514  0.1694 -0.2751  0.1082
15671SOL    HW155791   5.512   9.427   7.560  0.7429  0.5087  1.4623
15671SOL    HW255792   5.435   9.494   7.448  0.6233 -1.9386  0.0099
15672SOL     OW55793   1.526   1.187   6.954 -0.0035  0.6369 -0.4467
15672SOL    HW155794   1.566   1.201   7.039 -0.0420  0.7826 -0.4522
15672SOL    HW255795   1.593   1.140   6.903  0.3615  1.3400 -0.6233
15673SOL     OW55796   1.201   0.582  11.360  0.0407 -0.1119  0.3597
15673SOL    HW155797   1.179   0.490  11.375  1.3247 -0.7051 -1.0512
15673SOL    HW255798   1.290   0.579  11.322 -0.2588  1.6220 -0.5773
15674SOL     OW55799   1.317   7.803   7.910 -0.1389  0.2159 -0.0012
15674SOL    HW155800   1.388   7.746   7.939  0.6184  1.8330  1.4850
15674SOL    HW255801   1.339   7.825   7.819  2.3723  2.2272  1.0007
15675SOL     OW55802   0.400  11.915   3.373 -0.0365  0.0931  0.1118
15675SOL    HW155803   0.375  11.908   3.280 -1.1289  0.4279  0.3648
15675SOL    HW255804   0.421  11.825   3.398 -1.6692 -0.3473  0.0388
15676SOL     OW55805   7.001   2.876   8.791 -0.2783 -0.7384  0.0605
15676SOL    HW155806   6.950   2.807   8.834  0.1879 -1.1931 -0.1132
15676SOL    HW255807   6.947   2.904   8.717  0.2790 -2.1408 -0.9222
15677SOL     OW55808   0.301   0.812   6.522 -0.0980  0.2185  0.3772
15677SOL    HW155809   0.265   0.772   6.443 -0.0394  0.5074  0.2041
15677SOL    HW255810   0.369   0.750   6.551 -0.1318  0.1036  0.2119
15678SOL     OW55811   8.364   0.704   9.365  1.0951 -0.0661 -0.4730
15678SOL    HW155812   8.333   0.793   9.385 -2.2512 -0.9435 -1.1606
15678SOL    HW255813   8.447   0.718   9.320  0.2868  2.8032 -1.3410
15679SOL     OW55814   4.373  11.316   7.223 -0.3859  0.1923  0.1883
15679SOL    HW155815   4.456  11.340   7.181  0.4994 -2.0970  0.4855
15679SOL    HW255816   4.398  11.291   7.313 -1.5382  0.3091  0.5576
15680SOL     OW55817  10.765   0.799  12.048  0.2148  0.2875  0.7357
15680SOL    HW155818  10.858   0.785  12.063  0.0502 -0.4673  1.1099
15680SOL    HW255819  10.728   0.711  12.045 -0.4196  0.5704  0.1402
15681SOL     OW55820   8.217  11.724   9.183  0.4477 -0.1918  0.4143
15681SOL    HW155821   8.282  11.741   9.251 -0.1975 -0.7117  1.1849
15681SOL    HW255822   8.258  11.660   9.125  1.1016  0.4523  0.1614
15682SOL     OW55823   3.012  11.740   6.630  0.6554 -0.6943  0.7517
15682SOL    HW155824   3.081  11.802   6.605 -0.6897 -0.2363 -2.1913
15682SOL    HW255825   2.935  11.794   6.645 -0.6725 -1.5201 -2.3294
15683SOL     OW55826   8.328   7.617  12.228  0.0300 -0.6432 -0.2701
15683SOL    HW155827   8.392   7.598  12.297  0.7335  1.8869 -0.1394
15683SOL    HW255828   8.244   7.588  12.265  0.5566 -0.4559  1.1582
15684SOL     OW55829  11.225   8.686   2.452  0.5564  0.0758 -0.0285
15684SOL    HW155830  11.291   8.694   2.383  0.5224  0.4728 -0.0138
15684SOL    HW255831  11.172   8.611   2.425  0.8812 -0.1163 -0.1485
15685SOL     OW55832   9.239   4.157   0.941  0.0297 -0.0057  0.7253
15685SOL    HW155833   9.183   4.218   0.893 -1.5655 -0.7474  1.5782
15685SOL    HW255834   9.305   4.130   0.878 -0.9552  0.4002 -0.5140
15686SOL     OW55835   3.357   0.757   6.690 -0.0611  0.5132  0.0762
15686SOL    HW155836   3.313   0.672   6.700 -0.1451  0.6637  1.0655
15686SOL    HW255837   3.290   0.821   6.716 -0.2292  0.9447 -1.3207
15687SOL     OW55838   5.887  10.069   3.249 -0.2035 -0.7880  0.5331
15687SOL    HW155839   5.978  10.045   3.261  0.2152 -0.7787 -2.0739
15687SOL    HW255840   5.865  10.040   3.161 -2.6032 -0.3853  0.9082
15688SOL     OW55841  10.676   0.809   4.414  0.5406 -0.0358  0.3308
15688SOL    HW155842  10.687   0.903   4.432 -0.7575  0.0109  0.9333
15688SOL    HW255843  10.716   0.798   4.327 -1.0353  1.4987 -0.6809
15689SOL     OW55844   2.720  11.148  12.470 -0.0264 -0.1784  0.4722
15689SOL    HW155845   2.762  11.080  12.522  1.1388  0.4500  0.3774
15689SOL    HW255846   2.716  11.224  12.527 -1.4958 -0.3428  0.6410
15690SOL     OW55847   3.559  10.958   5.899 -0.6459 -0.0648 -0.3056
15690SOL    HW155848   3.493  10.974   5.967  0.7935  0.0746  1.1112
15690SOL    HW255849   3.564  11.040   5.850  0.1004  0.7406  1.0588
15691SOL     OW55850  10.139   1.577   4.105 -0.2650 -0.0481  0.5956
15691SOL    HW155851  10.229   1.545   4.112  0.5531  2.0461  0.1181
15691SOL    HW255852  10.136   1.625   4.023 -1.0056  2.2876  1.9082
15692SOL     OW55853  12.066   0.215   4.150  0.0784  0.2208 -0.5587
15692SOL    HW155854  12.110   0.214   4.235 -2.1971 -1.1865  0.7103
15692SOL    HW255855  11.982   0.258   4.167 -0.5992 -0.4446 -1.9957
15693SOL     OW55856  11.024  11.932   9.491  0.6755 -0.3382 -0.2431
15693SOL    HW155857  10.953  11.907   9.433  0.1926  2.0757 -0.7976
15693SOL    HW255858  10.980  11.967   9.569  1.2799 -0.4422  0.1512
15694SOL     OW55859  12.502   7.951   0.058  0.4770 -0.6169 -0.4992
15694SOL    HW155860  12.440   7.882   0.034  0.2835 -0.0449 -1.7302
15694SOL    HW255861  12.543   7.920   0.139 -3.1954  0.1007  1.8557
15695SOL     OW55862  12.474   4.000  10.071  0.5511  0.1776  0.3152
15695SOL    HW155863  12.453   3.948  10.148  0.0771 -0.8387 -0.4874
15695SOL    HW255864  12.563   4.031  10.087  1.6719 -2.6004 -0.0922
15696SOL     OW55865   9.758  10.900   3.302 -0.1437  0.0489 -0.5003
15696SOL    HW155866   9.849  10.870   3.304 -0.0148  0.3144 -1.7064
15696SOL    HW255867   9.738  10.923   3.393  1.0140  0.0752 -0.2429
15697SOL     OW55868   3.648   0.696   7.027  0.3118 -0.4651 -0.7004
15697SOL    HW155869   3.664   0.658   7.113 -0.6926  2.2786  0.8215
15697SOL    HW255870   3.730   0.681   6.979  2.6480  1.5936  2.2296
15698SOL     OW55871   4.426   4.880   9.479 -0.3482  0.1139  0.0706
15698SOL    HW155872   4.351   4.828   9.448  0.3027 -1.5896  1.1986
15698SOL    HW255873   4.496   4.815   9.491  1.0469  1.5400 -0.1181
15699SOL     OW55874   3.378   3.219  12.034 -0.1185 -0.0034 -0.2375
15699SOL    HW155875   3.297   3.253  11.997 -0.8711 -1.0821  0.3452
15699SOL    HW255876   3.441   3.225  11.963 -1.0557 -0.3418 -1.1302
15700SOL     OW55877   7.125   1.415   6.351 -0.4663  0.1888 -0.4480
15700SOL    HW155878   7.130   1.342   6.412 -0.9088 -0.3378 -1.0358
15700SOL    HW255879   7.212   1.421   6.313  0.0494  1.0177  0.7797
15701SOL     OW55880   5.850  12.383  10.765  0.1570 -0.2132 -0.0544
15701SOL    HW155881   5.911  12.457  10.759 -0.6439  0.7837  2.6286
15701SOL    HW255882   5.764  12.424  10.779 -0.4384 -1.6293  0.6219
15702SOL     OW55883  10.994   1.037  12.364 -0.1117 -0.0887 -0.0231
15702SOL    HW155884  11.069   1.012  12.419 -1.1714  2.1473  2.6739
15702SOL    HW255885  11.029   1.038  12.275  2.9815  0.5398  1.0866
15703SOL     OW55886  10.324  12.091  11.350 -0.3793  0.3682 -0.5823
15703SOL    HW155887  10.363  12.127  11.270  1.4426  3.3082  1.4613
15703SOL    HW255888  10.365  12.006  11.360  2.3448  1.5605 -0.8292
15704SOL     OW55889   8.601   6.593   7.573 -0.2028  0.5009 -0.2102
15704SOL    HW155890   8.658   6.529   7.615  0.9004  0.1659 -2.0715
15704SOL    HW255891   8.525   6.600   7.630  1.3963  0.4687  2.0515
15705SOL     OW55892  12.176   5.088  10.268  0.1678 -0.7682 -0.1672
15705SOL    HW155893  12.088   5.049  10.257  0.3903 -1.8219  1.4182
15705SOL    HW255894  12.160   5.181  10.278 -0.6568 -0.7827 -1.2180
15706SOL     OW55895   2.499   8.935   0.256 -0.7875 -0.0335  0.6632
15706SOL    HW155896   2.458   8.964   0.338 -0.3244  2.1703  0.1897
15706SOL    HW255897   2.490   8.840   0.257  1.2207 -0.3702  4.3864
15707SOL     OW55898   6.070   6.489  10.353 -0.2100  0.0177  0.0495
15707SOL    HW155899   6.116   6.411  10.385 -0.3753 -0.2195 -0.2899
15707SOL    HW255900   6.019   6.519  10.429 -0.0365 -0.1222  0.2223
15708SOL     OW55901   2.283   1.446   9.855 -0.3714  0.3560 -0.0537
15708SOL    HW155902   2.292   1.524   9.910  0.3468 -2.2841  3.9277
15708SOL    HW255903   2.200   1.407   9.882 -0.3195 -0.7478 -1.3661
15709SOL     OW55904   4.076   1.528   6.903 -1.2340  0.0434 -0.5239
15709SOL    HW155905   4.047   1.570   6.984 -0.7835 -0.0358 -0.3220
15709SOL    HW255906   3.996   1.520   6.851 -1.2814  1.5227 -0.7333
15710SOL     OW55907   2.720   5.368   0.077 -0.1874  0.3726  0.1739
15710SOL    HW155908   2.706   5.288   0.027  1.2064 -0.2816  0.7755
15710SOL    HW255909   2.815   5.377   0.082 -0.2434  3.1302 -1.5392
15711SOL     OW55910  10.959   6.417  10.311 -0.4857  0.1855 -0.5475
15711SOL    HW155911  10.960   6.427  10.407 -1.8780 -0.0545 -0.4986
15711SOL    HW255912  11.016   6.342  10.295 -2.2216 -1.3865  0.3170
15712SOL     OW55913   5.013   4.751  10.434 -0.3779  0.7070  0.9104
15712SOL    HW155914   4.946   4.687  10.407 -1.9340  2.8499 -0.5909
15712SOL    HW255915   5.025   4.733  10.528 -1.1856 -1.3574  0.6890
15713SOL     OW55916   4.933   1.897   6.653  0.0236 -0.1851  0.1689
15713SOL    HW155917   4.852   1.852   6.631 -0.3237  0.4501  0.1057
15713SOL    HW255918   4.905   1.985   6.679  0.5403 -0.4688  1.8163
15714SOL     OW55919   6.441   9.869   7.216 -0.0485 -0.0834 -0.5281
15714SOL    HW155920   6.348   9.876   7.195  0.1157 -0.9233 -1.6795
15714SOL    HW255921   6.450   9.785   7.260  0.0279  0.4565  0.5164
15715SOL     OW55922   5.368   3.946   5.000  0.1164  0.0424 -0.0431
15715SOL    HW155923   5.453   3.966   4.962  0.5479  1.5490  1.5493
15715SOL    HW255924   5.317   3.910   4.928  1.4677  0.9749 -1.5343
15716SOL     OW55925   6.902   5.418   1.520 -0.3431  0.3554 -0.4050
15716SOL    HW155926   6.876   5.338   1.565  0.1186  0.5547  0.2355
15716SOL    HW255927   6.996   5.408   1.505 -0.7946 -0.5938 -3.1708
15717SOL     OW55928   1.336   9.161   7.136 -0.1864 -0.9888  0.3366
15717SOL    HW155929   1.339   9.066   7.143 -0.2125 -0.9454  1.0071
15717SOL    HW255930   1.374   9.180   7.050  1.3517 -1.5124  0.8656
15718SOL     OW55931  11.801   3.013   9.532 -0.4635  0.7072  0.4169
15718SOL    HW155932  11.858   3.010   9.609  0.2508  2.4547  0.0146
15718SOL    HW255933  11.718   2.976   9.561  0.5061 -0.8348  1.3521
15719SOL     OW55934   2.326   6.382   6.143 -0.2716  0.2542  0.5232
15719SOL    HW155935   2.274   6.302   6.149  1.0482 -0.6898  0.0417
15719SOL    HW255936   2.396   6.370   6.208  1.9400 -0.6136 -1.8197
15720SOL     OW55937   2.271   3.378   1.737  0.7608 -0.4764  0.0678
15720SOL    HW155938   2.362   3.408   1.735  0.3882  1.1290  2.3189
15720SOL    HW255939   2.239   3.406   1.823 -2.0365 -0.4406 -0.8878
15721SOL     OW55940  10.728  11.453   9.942  0.3229  0.2635 -0.4150
15721SOL    HW155941  10.774  11.499   9.872  0.9731 -0.0381 -0.1943
15721SOL    HW255942  10.724  11.362   9.913 -1.6662  0.5383 -1.2227
15722SOL     OW55943   7.003  11.147   3.183 -0.2689 -0.2086  0.4721
15722SOL    HW155944   7.060  11.218   3.151 -0.6112 -1.0183 -2.1934
15722SOL    HW255945   6.925  11.153   3.128 -1.1006 -1.4979  1.4672
15723SOL     OW55946  10.716   8.907   2.075 -0.3955 -0.0464  0.2546
15723SOL    HW155947  10.745   8.957   1.999  0.4581 -0.3242  0.3857
15723SOL    HW255948  10.654   8.843   2.041 -1.3593  0.9717  0.0575
15724SOL     OW55949   8.057   2.890   6.302 -0.2987  1.2478  0.2734
15724SOL    HW155950   8.131   2.926   6.253 -0.0301 -0.1191 -0.3602
15724SOL    HW255951   8.095   2.855   6.382 -0.4079  1.3998  0.3938
15725SOL     OW55952   9.193   1.235   6.025 -0.4418  0.1081 -0.4409
15725SOL    HW155953   9.131   1.301   5.994  1.5022  2.4902  0.3955
15725SOL    HW255954   9.265   1.237   5.962 -0.0409 -0.7486 -0.0334
15726SOL     OW55955   0.199   5.230  11.384  0.5702 -0.0398 -0.1330
15726SOL    HW155956   0.224   5.245  11.476 -0.5478 -1.1793  0.3864
15726SOL    HW255957   0.105   5.249  11.382  0.6240  0.1487 -1.1032
15727SOL     OW55958   8.136  11.253   2.195 -0.4134 -0.3325 -0.2478
15727SOL    HW155959   8.198  11.222   2.129  1.3035  0.1995  1.0393
15727SOL    HW255960   8.184  11.319   2.245 -0.8631 -2.1768  2.8850
15728SOL     OW55961   8.364   4.984  12.440 -0.3184  1.2408 -0.1727
15728SOL    HW155962   8.413   4.988  12.358 -1.7212  1.5579 -1.0172
15728SOL    HW255963   8.390   5.064  12.487 -0.2343  1.5349 -0.7159
15729SOL     OW55964  10.042  10.968   2.380 -0.3168 -0.1203  0.0364
15729SOL    HW155965  10.033  10.898   2.444  2.7710  0.3155  1.1519
15729SOL    HW255966  10.111  11.024   2.416 -1.2756  2.4367 -1.7566
15730SOL     OW55967  10.584  12.277  12.183  1.0033  0.2933 -0.1161
15730SOL    HW155968  10.565  12.216  12.254 -2.1585  0.3959 -0.7364
15730SOL    HW255969  10.652  12.233  12.131  1.1626 -1.1535  1.2524
15731SOL     OW55970   2.643   5.915   2.824  0.0469  0.2927  0.2011
15731SOL    HW155971   2.624   6.008   2.815 -2.0860 -0.0913  0.1495
15731SOL    HW255972   2.617   5.876   2.741  2.2027 -0.2158 -0.2980
15732SOL     OW55973   1.160   1.767  12.118  0.3526 -0.0961 -0.3090
15732SOL    HW155974   1.190   1.677  12.132  1.2747  0.1946 -0.3867
15732SOL    HW255975   1.239   1.820  12.125 -0.3627  0.8462  0.9328
15733SOL     OW55976   4.254   5.755   6.862  0.1727 -0.2843  0.1549
15733SOL    HW155977   4.247   5.748   6.767  1.1723  0.5088  0.0018
15733SOL    HW255978   4.220   5.672   6.895 -1.3655 -0.0914 -0.8239
15734SOL     OW55979   1.884   6.408   4.158  0.0654  0.3995  0.7590
15734SOL    HW155980   1.958   6.470   4.158 -0.0443  0.6283 -1.7577
15734SOL    HW255981   1.926   6.322   4.155  0.2690  0.5316 -0.7753
15735SOL     OW55982   2.229   0.527   2.110 -0.8068 -0.4736 -0.0124
15735SOL    HW155983   2.262   0.559   2.194 -0.1929 -0.0089 -0.4229
15735SOL    HW255984   2.253   0.595   2.047  0.6242 -1.7702 -0.9338
15736SOL     OW55985   6.920   9.691  11.112  0.3272 -0.3344  0.0634
15736SOL    HW155986   6.973   9.708  11.190 -0.0490  1.1313  0.0335
15736SOL    HW255987   6.852   9.630  11.142  1.9326 -2.1906  0.1139
15737SOL     OW55988   1.657   7.298  11.788 -0.3841 -0.1507  0.3863
15737SOL    HW155989   1.634   7.217  11.742 -1.2397  1.1043 -1.5113
15737SOL    HW255990   1.731   7.333  11.739 -1.3913  1.2809 -0.1980
15738SOL     OW55991   6.525   2.633   9.503  0.1155 -0.5712 -0.1569
15738SOL    HW155992   6.595   2.570   9.487  0.6581 -0.2486  0.8656
15738SOL    HW255993   6.560   2.692   9.570  0.4196  2.0933 -2.4747
15739SOL     OW55994  10.039  11.907   3.601 -0.0693 -0.1108  0.0687
15739SOL    HW155995   9.944  11.903   3.617 -0.2851  1.9084 -0.3583
15739SOL    HW255996  10.056  11.836   3.540 -2.0688  1.8065 -2.9911
15740SOL     OW55997  12.343  10.235  10.727  0.0710 -0.3540 -0.3909
15740SOL    HW155998  12.316  10.197  10.644 -1.1623  0.3635 -0.3424
15740SOL    HW255999  12.349  10.160  10.786 -0.5184 -0.7039 -0.7590
15741SOL     OW56000   1.135   3.892   4.903  0.6991 -0.5548  0.3426
15741SOL    HW156001   1.081   3.913   4.827  0.8822 -2.1532 -0.2570
15741SOL    HW256002   1.088   3.822   4.948  0.1553  0.9079  2.2354
15742SOL     OW56003   3.009   4.046  10.397  0.4207 -0.1129  0.1883
15742SOL    HW156004   2.968   3.996  10.326  0.6622  0.3293 -0.2742
15742SOL    HW256005   3.102   4.046  10.376  0.4916  0.0460  0.4915
15743SOL     OW56006  10.630   0.466   3.524  0.3201 -0.1323 -0.1401
15743SOL    HW156007  10.685   0.435   3.453  0.9014 -0.7035  0.5488
15743SOL    HW256008  10.541   0.444   3.496  0.3840  1.1003 -1.4086
15744SOL     OW56009   4.731   1.710   6.550  0.3612  0.1441  0.3896
15744SOL    HW156010   4.787   1.655   6.496  0.9769 -0.0946  1.2427
15744SOL    HW256011   4.659   1.652   6.576  0.2744  0.1450  0.1514
15745SOL     OW56012   4.795   7.697  12.154 -0.1323 -0.1468  0.3839
15745SOL    HW156013   4.863   7.630  12.146  1.0208  1.0227 -0.0727
15745SOL    HW256014   4.838   7.769  12.201 -1.1351  0.5275  0.3056
15746SOL     OW56015  10.945   6.222   0.087 -0.3254 -0.4909 -0.3720
15746SOL    HW156016  11.000   6.166   0.143 -1.8506 -1.5230  0.1598
15746SOL    HW256017  10.933   6.302   0.139 -0.2181 -0.6990 -0.0169
15747SOL     OW56018   3.156   0.019   2.704  0.2801  0.8081  0.7352
15747SOL    HW156019   3.152   0.009   2.609 -0.7397  0.3185  0.8082
15747SOL    HW256020   3.073  -0.019   2.735  1.2963 -0.5438  1.9476
15748SOL     OW56021  11.077   1.838   3.079 -0.2200  0.0027 -0.3001
15748SOL    HW156022  11.065   1.809   2.989 -0.1123  0.2612 -0.3974
15748SOL    HW256023  11.155   1.792   3.110 -0.2496 -0.0762 -0.3439
15749SOL     OW56024  10.754   9.309  11.777  0.1515 -0.2645  0.1014
15749SOL    HW156025  10.684   9.248  11.752 -0.2295 -0.8811  2.4333
15749SOL    HW256026  10.786   9.344  11.694 -2.1462 -0.8287 -1.1102
15750SOL     OW56027  10.274   4.329   7.529 -0.4812  0.2395 -0.3874
15750SOL    HW156028  10.245   4.267   7.596  1.5826 -1.3341 -0.8456
15750SOL    HW256029  10.199   4.337   7.470 -1.5718 -0.0235  0.8979
15751SOL     OW56030   0.384   2.116   9.239 -0.2846  0.0553 -0.0507
15751SOL    HW156031   0.435   2.179   9.189 -0.6850  1.2306  0.9528
15751SOL    HW256032   0.293   2.138   9.218 -0.4548  0.5464  1.1178
15752SOL     OW56033   7.580   4.524   1.137  0.1033  0.0873 -0.2817
15752SOL    HW156034   7.520   4.597   1.153  1.2897  0.9378  0.5053
15752SOL    HW256035   7.662   4.566   1.111 -0.0670 -1.1115 -2.9774
15753SOL     OW56036   9.737   2.531  12.516 -0.3917  0.3245 -0.0494
15753SOL    HW156037   9.725   2.438  12.538 -1.0561  1.2630  4.4992
15753SOL    HW256038   9.673   2.547  12.447 -2.4799 -2.0028  1.1758
15754SOL     OW56039   7.461   1.466  10.148 -0.0225  0.2378  0.3623
15754SOL    HW156040   7.525   1.534  10.168 -0.5501  0.6701  0.5969
15754SOL    HW256041   7.514   1.388  10.130  0.5419  0.3047  1.6259
15755SOL     OW56042   0.216   5.296   5.443 -0.0852  0.2570  0.4850
15755SOL    HW156043   0.162   5.348   5.383 -0.7791  0.1172  0.9832
15755SOL    HW256044   0.202   5.336   5.529  0.5780  0.1964  0.6278
15756SOL     OW56045   3.321   2.557   8.194  0.0921  0.4660  0.2970
15756SOL    HW156046   3.368   2.474   8.192  0.2363  0.5365  0.6554
15756SOL    HW256047   3.379   2.619   8.151  1.2524  1.0099  2.4749
15757SOL     OW56048   7.935   0.015  10.553 -0.3696 -0.2867  0.1746
15757SOL    HW156049   8.023   0.019  10.590 -0.4922  1.1232  0.3654
15757SOL    HW256050   7.880  -0.010  10.627 -0.2325 -0.4028  0.2383
15758SOL     OW56051   4.939   4.514   2.080 -0.2818 -0.0299 -0.1232
15758SOL    HW156052   4.873   4.482   2.019  0.1224 -0.4185 -0.3620
15758SOL    HW256053   4.889   4.550   2.153 -0.7590 -0.9863  0.0416
15759SOL     OW56054   2.010   6.104   1.950 -0.4930  0.1239 -0.2284
15759SOL    HW156055   1.939   6.118   2.013 -0.8502  1.4302 -0.8859
15759SOL    HW256056   2.088   6.138   1.993 -0.0287 -2.1663  0.8769
15760SOL     OW56057   2.794   1.119   4.688  0.3258 -0.1354  0.7477
15760SOL    HW156058   2.750   1.070   4.757  0.2746 -0.2924  0.6036
15760SOL    HW256059   2.887   1.104   4.704  0.3393 -3.0630 -1.2416
15761SOL     OW56060   1.973   1.237  10.175  0.5242  0.0716  0.0306
15761SOL    HW156061   1.933   1.292  10.243 -0.5908  0.6822 -1.0659
15761SOL    HW256062   1.992   1.154  10.219 -1.0264  0.1258  0.8765
15762SOL     OW56063  10.413   5.034   8.223  0.5924  0.3420 -0.5657
15762SOL    HW156064  10.452   4.975   8.159  1.2402  0.5838 -0.3970
15762SOL    HW256065  10.319   5.024   8.210  0.7121  0.1377 -1.3242
15763SOL     OW56066   3.107   2.576   3.484  0.5272  0.1020 -0.2561
15763SOL    HW156067   3.067   2.633   3.550 -1.0660 -1.8656  0.5785
15763SOL    HW256068   3.195   2.558   3.517  0.7265  1.3069 -0.0808
15764SOL     OW56069  10.811   2.237   2.510  0.4310 -0.4156  0.2654
15764SOL    HW156070  10.766   2.214   2.428 -0.4973  0.4698  0.5098
15764SOL    HW256071  10.903   2.243   2.485  0.3760 -1.7391 -0.3624
15765SOL     OW56072  11.410  12.241   0.700  0.2972 -0.2151  0.3223
15765SOL    HW156073  11.335  12.229   0.641 -1.3378  1.6637  1.8682
15765SOL    HW256074  11.459  12.159   0.694 -1.8696 -1.5256 -0.7622
15766SOL     OW56075   3.527   3.652   0.366  0.4526 -0.4450 -0.4842
15766SOL    HW156076   3.473   3.582   0.330 -0.8426  0.8388 -1.1155
15766SOL    HW256077   3.595   3.666   0.300  0.6329 -0.9739 -0.4222
15767SOL     OW56078   4.190   3.096   6.005 -0.1376 -0.0994  0.1243
15767SOL    HW156079   4.246   3.021   6.025 -1.1271 -0.7140  0.6622
15767SOL    HW256080   4.102   3.059   5.995 -0.0555  0.3432 -3.7710
15768SOL     OW56081   3.379   7.960   6.246 -0.5108  0.4651  0.2351
15768SOL    HW156082   3.444   7.904   6.287  1.0787  1.7150 -0.4814
15768SOL    HW256083   3.350   7.911   6.169 -1.8306 -0.8843  1.5090
15769SOL     OW56084   7.578   1.919   8.583  0.5195 -0.1993  0.1166
15769SOL    HW156085   7.503   1.889   8.634 -0.1906  0.7005 -0.3838
15769SOL    HW256086   7.582   2.013   8.599  1.8629 -0.2974  0.5458
15770SOL     OW56087   0.985   4.125   6.524  0.5895 -0.2870  0.1334
15770SOL    HW156088   0.925   4.164   6.588  0.3241  1.3138 -1.0329
15770SOL    HW256089   0.978   4.182   6.447  1.5831 -1.6363 -0.9964
15771SOL     OW56090  10.364   2.374  11.096  0.7349  0.0506 -0.3029
15771SOL    HW156091  10.305   2.354  11.169  0.2390 -0.1181 -0.7478
15771SOL    HW256092  10.446   2.400  11.138  0.5812 -0.4394  0.3118
15772SOL     OW56093   0.284   1.194   2.864 -0.2297  0.5189 -0.0350
15772SOL    HW156094   0.191   1.182   2.883 -0.0690 -0.5671  0.1299
15772SOL    HW256095   0.305   1.123   2.804  0.4319  0.9460 -0.3183
15773SOL     OW56096  10.888   7.703   8.288 -0.2916 -0.2591 -0.0999
15773SOL    HW156097  10.884   7.798   8.298 -1.0063 -0.3406  0.4379
15773SOL    HW256098  10.980   7.681   8.303  0.3391  0.5741 -2.3771
15774SOL     OW56099   7.288   2.322   8.102 -0.2858 -0.4470 -0.0184
15774SOL    HW156100   7.258   2.399   8.151  2.2779  0.2513  0.5763
15774SOL    HW256101   7.210   2.294   8.053 -1.6323  1.7623  0.6774
15775SOL     OW56102  11.112   6.151   0.286 -0.2852 -0.1604 -1.0205
15775SOL    HW156103  11.054   6.163   0.361  0.1655 -0.5805 -0.5917
15775SOL    HW256104  11.196   6.125   0.325 -0.1801 -0.8696 -1.6953
15776SOL     OW56105  10.375   2.626  10.699  0.3681  0.0308 -0.5509
15776SOL    HW156106  10.313   2.559  10.669 -1.9415  2.5607 -1.9518
15776SOL    HW256107  10.423   2.651  10.620  0.1236  1.0170 -0.4072
15777SOL     OW56108   7.470   4.505   2.369 -0.0127  0.0645 -0.0175
15777SOL    HW156109   7.537   4.443   2.400  1.0301  0.9194 -0.4956
15777SOL    HW256110   7.435   4.545   2.448 -1.1757 -1.5744  0.3496
15778SOL     OW56111  10.149  11.513  11.727 -0.0614  0.1741  0.0483
15778SOL    HW156112  10.094  11.439  11.701  0.0191  0.3179 -0.5420
15778SOL    HW256113  10.096  11.560  11.792 -0.0091 -0.5338  0.6146
15779SOL     OW56114   0.022   8.507   2.835  0.2420 -0.3306  0.1136
15779SOL    HW156115   0.023   8.500   2.931 -1.4075  0.8960  0.2639
15779SOL    HW256116  -0.031   8.432   2.807 -0.5390  0.1414  0.2904
15780SOL     OW56117  10.347   4.219   0.504  0.0013  0.0654 -0.0915
15780SOL    HW156118  10.273   4.200   0.562  0.5717  0.3309  0.7464
15780SOL    HW256119  10.314   4.286   0.444  0.4308  2.6424  2.3253
15781SOL     OW56120   4.590   5.959   4.846 -0.2527  0.1171 -0.6550
15781SOL    HW156121   4.564   5.929   4.933 -1.7575 -0.2975 -1.2287
15781SOL    HW256122   4.508   5.984   4.804  0.5372  1.0341 -1.6972
15782SOL     OW56123   5.444   8.887   4.663 -0.0232 -0.2460 -0.0968
15782SOL    HW156124   5.355   8.854   4.650 -0.1231  0.6170 -1.8576
15782SOL    HW256125   5.496   8.809   4.680 -0.8474 -0.9283 -0.6055
15783SOL     OW56126  10.081   5.605   1.194 -0.4712 -0.2149 -0.0003
15783SOL    HW156127  10.109   5.514   1.196  0.7930  0.1307 -0.6983
15783SOL    HW256128  10.163   5.655   1.193 -1.0301  0.8357 -2.9840
15784SOL     OW56129   6.376   5.544   2.318  0.0559 -0.0849 -0.0815
15784SOL    HW156130   6.394   5.508   2.231 -0.1137  0.4137 -0.3250
15784SOL    HW256131   6.341   5.631   2.301 -2.0772 -0.7922  0.4088
15785SOL     OW56132   6.107  11.979   1.651  0.0623  0.3874  0.1484
15785SOL    HW156133   6.050  12.038   1.701  1.4093  0.7210  1.3482
15785SOL    HW256134   6.147  12.034   1.584 -0.4530  0.3012 -0.2434
15786SOL     OW56135  11.814   5.725   5.268 -0.1869 -0.2361 -0.9466
15786SOL    HW156136  11.899   5.756   5.299  0.7233 -1.7013 -1.9032
15786SOL    HW256137  11.753   5.749   5.338  0.7925  1.8040 -0.7201
15787SOL     OW56138   6.569   2.463  12.103  0.0043 -0.2316 -0.1271
15787SOL    HW156139   6.526   2.545  12.126  0.2465  0.0416 -0.6464
15787SOL    HW256140   6.626   2.444  12.177  0.6070  0.5244 -0.3853
15788SOL     OW56141   6.612  12.571   3.456  0.1593  0.1277 -0.6455
15788SOL    HW156142   6.589  12.486   3.419  1.3098 -0.5430  0.1257
15788SOL    HW256143   6.698  12.592   3.418 -0.2666  1.1208 -1.0993
15789SOL     OW56144   0.651  10.675  10.073 -0.0994  0.4392  0.4036
15789SOL    HW156145   0.639  10.724  10.155 -0.0396  1.3879 -0.1444
15789SOL    HW256146   0.589  10.715  10.012  0.8987  0.7335 -0.4425
15790SOL     OW56147   2.283   7.253  10.622  0.1848  0.1710  0.1855
15790SOL    HW156148   2.328   7.308  10.686  1.0863 -0.1535 -0.1617
15790SOL    HW256149   2.303   7.294  10.537 -1.9990  1.3276  0.1520
15791SOL     OW56150   4.712  10.647   6.438  0.7027 -0.2470 -0.4830
15791SOL    HW156151   4.678  10.568   6.479 -0.0202  0.3556  0.0996
15791SOL    HW256152   4.660  10.657   6.358 -1.8252  1.6358  1.2658
15792SOL     OW56153   3.142   7.254  10.005  0.1517  0.1287 -0.2163
15792SOL    HW156154   3.135   7.174  10.056  0.0065 -0.0098 -0.4514
15792SOL    HW256155   3.051   7.280   9.988  0.1768  0.8722  0.6774
15793SOL     OW56156  10.746   0.088   5.266 -0.5295 -0.0360  0.0459
15793SOL    HW156157  10.789   0.167   5.299 -0.1899 -1.0938  2.3543
15793SOL    HW256158  10.659   0.118   5.239 -0.8612  0.9959  2.0292
15794SOL     OW56159   8.867   5.261   5.150 -0.1274 -0.2432  0.4036
15794SOL    HW156160   8.840   5.255   5.059 -0.5222 -0.1754  0.5125
15794SOL    HW256161   8.899   5.174   5.172  1.5593  0.1792 -0.2875
15795SOL     OW56162  10.470   6.596  10.812  0.4371  0.6878  0.0941
15795SOL    HW156163  10.513   6.650  10.879  0.3748  0.7581  0.0776
15795SOL    HW256164  10.518   6.615  10.732  0.4541  0.6721  0.1010
15796SOL     OW56165   9.831   3.109   9.336 -0.1362 -0.1002 -0.2929
15796SOL    HW156166   9.883   3.125   9.415 -1.7952  1.3758  0.5836
15796SOL    HW256167   9.803   3.018   9.343  0.6314 -0.3058  0.2465
15797SOL     OW56168   4.784   3.337   2.853 -0.0850 -0.3815 -0.0676
15797SOL    HW156169   4.800   3.387   2.933 -0.9276 -0.5474  0.2155
15797SOL    HW256170   4.871   3.311   2.824  0.1989 -0.9620  1.2153
15798SOL     OW56171   7.790   4.158   0.500 -0.4582  0.3563  0.3705
15798SOL    HW156172   7.810   4.243   0.540 -1.9886  0.5642  0.7734
15798SOL    HW256173   7.806   4.172   0.407  2.0587  0.1998  0.7163
15799SOL     OW56174  11.844  12.331   5.531 -0.6403  0.2289 -0.1721
15799SOL    HW156175  11.782  12.376   5.474 -1.8956 -0.6425  0.4677
15799SOL    HW256176  11.797  12.254   5.563  0.4253  0.0663  1.1269
15800SOL     OW56177   2.981  10.878  10.715  0.3269 -0.5009  0.2703
15800SOL    HW156178   2.944  10.861  10.802  1.6772 -0.3473  0.9008
15800SOL    HW256179   2.992  10.973  10.712  0.1029 -0.4848 -0.1648
15801SOL     OW56180  11.081   1.558   6.005  0.1186 -0.4629 -0.2106
15801SOL    HW156181  11.173   1.576   5.987  0.4148 -1.1433  0.5847
15801SOL    HW256182  11.035   1.594   5.929  1.1000 -0.8610 -1.0262
15802SOL     OW56183   2.995  11.505   8.550 -0.1650  0.0047  0.4760
15802SOL    HW156184   3.014  11.433   8.610  2.9910  0.5052  0.2491
15802SOL    HW256185   3.047  11.486   8.472 -1.2858  1.2528 -0.6405
15803SOL     OW56186   4.119  12.022   2.463  0.5637  0.4048 -0.1014
15803SOL    HW156187   4.127  12.109   2.425 -1.2889 -0.0209 -1.6043
15803SOL    HW256188   4.185  11.970   2.416 -0.4200  0.3204 -1.4370
15804SOL     OW56189   0.592   9.867   5.100  1.0636  0.4195 -0.1241
15804SOL    HW156190   0.683   9.854   5.124  0.2139  0.8309  4.2573
15804SOL    HW256191   0.580   9.962   5.104  0.4996  0.4047 -1.1138
15805SOL     OW56192   6.838   7.798   1.942 -0.5279 -0.1231  0.2782
15805SOL    HW156193   6.788   7.717   1.929  0.3352 -0.5457 -0.4898
15805SOL    HW256194   6.917   7.771   1.988  0.4635  0.0190 -1.2694
15806SOL     OW56195   0.199   0.691   8.503 -0.0083 -0.4956  0.3819
15806SOL    HW156196   0.208   0.741   8.584 -1.1739 -1.6458  1.2713
15806SOL    HW256197   0.265   0.728   8.444  0.6188  0.6100  1.7208
15807SOL     OW56198  10.397   3.030   8.050  0.1005 -0.1167  0.4029
15807SOL    HW156199  10.453   3.082   8.108  0.0818 -0.3782  0.6611
15807SOL    HW256200  10.444   2.946   8.042  0.8573  0.4215 -1.1610
15808SOL     OW56201   2.060   6.710   5.252  0.3137 -0.0095  0.3033
15808SOL    HW156202   2.029   6.776   5.314  0.2421 -0.0750  0.3359
15808SOL    HW256203   1.980   6.672   5.215  0.3559 -0.1204  0.3277
15809SOL     OW56204   3.521   0.433   8.937  0.0348  0.3118  0.4315
15809SOL    HW156205   3.435   0.393   8.922  1.1570 -1.8444 -0.8464
15809SOL    HW256206   3.512   0.478   9.020 -1.8790 -1.3046  1.1971
15810SOL     OW56207   4.005   6.755   6.044 -0.2064  0.1828  0.0084
15810SOL    HW156208   4.092   6.721   6.023 -0.6418  0.2686 -2.1142
15810SOL    HW256209   4.000   6.838   5.998 -1.4650  0.1071 -0.0179
15811SOL     OW56210   4.492   7.071  12.503  0.3092  0.2294 -0.8694
15811SOL    HW156211   4.443   7.014  12.562  0.7278 -0.5128 -1.2217
15811SOL    HW256212   4.432   7.143  12.484 -0.4519 -0.3859 -0.8750
15812SOL     OW56213   0.564   8.366   3.962 -0.6110  0.1219 -0.5506
15812SOL    HW156214   0.659   8.373   3.950 -0.5898 -0.1139 -0.5155
15812SOL    HW256215   0.528   8.368   3.873 -0.5456 -0.1993 -0.5852
15813SOL     OW56216   6.817   6.512   3.601  0.1301 -0.2026 -0.4094
15813SOL    HW156217   6.801   6.426   3.638  0.2314 -1.0834 -2.3376
15813SOL    HW256218   6.810   6.572   3.676 -3.4215 -1.4382  0.4143
15814SOL     OW56219   1.056  11.542   9.740  0.2889 -0.4544  0.9338
15814SOL    HW156220   1.110  11.464   9.726  1.4347  0.4137  0.3882
15814SOL    HW256221   1.114  11.615   9.722 -1.1882  0.5241 -0.0717
15815SOL     OW56222   2.874   6.157   9.993 -0.1096 -0.4396  0.4899
15815SOL    HW156223   2.891   6.230  10.052  1.6546 -0.1619 -0.3109
15815SOL    HW256224   2.872   6.080  10.049 -1.4321  0.1308  1.2675
15816SOL     OW56225   0.805   5.978   4.787  0.5998  0.5118 -0.2354
15816SOL    HW156226   0.892   5.940   4.794  0.9442  1.2763 -0.2899
15816SOL    HW256227   0.747   5.914   4.830  1.1353 -0.1455 -0.4868
15817SOL     OW56228  10.703   4.647   0.671 -0.2031  0.0665 -0.1126
15817SOL    HW156229  10.702   4.556   0.702 -1.1021  0.5840  1.4703
15817SOL    HW256230  10.648   4.646   0.592 -0.5905 -0.6845  0.1541
15818SOL     OW56231   5.186   5.049   3.287  0.0884 -0.2404  0.3266
15818SOL    HW156232   5.254   5.117   3.283 -0.2101  0.0296 -1.9929
15818SOL    HW256233   5.235   4.967   3.285  0.3984 -0.0726  0.8999
15819SOL     OW56234   1.737   5.433   5.537 -0.3074 -0.2685  0.0037
15819SOL    HW156235   1.698   5.503   5.589  0.0689  0.0406 -0.1235
15819SOL    HW256236   1.767   5.476   5.457 -1.2533 -0.8118 -0.6679
15820SOL     OW56237   7.694   7.175   8.246  0.5010 -0.3255 -0.1957
15820SOL    HW156238   7.716   7.200   8.156 -0.0967  0.2285 -0.1940
15820SOL    HW256239   7.767   7.208   8.298  1.8269 -2.3260 -0.6657
15821SOL     OW56240   7.243   0.366   5.794 -0.0530  0.2847 -0.0014
15821SOL    HW156241   7.259   0.362   5.889  0.6881 -0.1780 -0.1386
15821SOL    HW256242   7.326   0.396   5.757 -0.8984  2.3345 -0.3605
15822SOL     OW56243   9.359   1.405  12.024  0.4233 -0.1303  0.3760
15822SOL    HW156244   9.355   1.342  12.096  0.6440  1.7858  2.1447
15822SOL    HW256245   9.293   1.471  12.046  0.5585  0.5598 -1.1512
15823SOL     OW56246   2.653   9.981   5.055  0.0200 -0.1104  0.4766
15823SOL    HW156247   2.627  10.052   5.113  0.4538  0.6475 -0.2475
15823SOL    HW256248   2.574   9.963   5.003  0.0785  0.2456  0.2590
15824SOL     OW56249   9.396   1.833  11.455 -0.0592 -0.0827 -0.1728
15824SOL    HW156250   9.449   1.775  11.401 -0.1730  0.2256 -0.6245
15824SOL    HW256251   9.383   1.911  11.400 -1.6472 -0.4674 -0.3809
15825SOL     OW56252   2.656   3.173   9.873 -0.7373 -0.1315  0.2494
15825SOL    HW156253   2.649   3.101   9.936 -0.5063  0.1389  0.5884
15825SOL    HW256254   2.648   3.131   9.787  0.9627 -0.7914  0.3791
15826SOL     OW56255   9.274   4.696   8.583 -0.3727 -0.7116  0.1158
15826SOL    HW156256   9.335   4.631   8.549 -1.3335 -2.3190  1.3482
15826SOL    HW256257   9.313   4.726   8.665 -0.4053 -0.4427  0.0351
15827SOL     OW56258  12.332   2.386  12.403  0.3668 -0.9701 -0.1918
15827SOL    HW156259  12.347   2.296  12.371  1.2755 -1.1279  0.6341
15827SOL    HW256260  12.411   2.408  12.451  0.1954  0.3317 -0.4659
15828SOL     OW56261   1.249   2.877   8.030  0.1425 -0.4403  0.5147
15828SOL    HW156262   1.172   2.934   8.032  0.3734 -0.0477 -0.9026
15828SOL    HW256263   1.225   2.802   8.084 -0.0904  1.0735  2.6221
15829SOL     OW56264   7.288   5.541  11.388 -0.2074  0.0130 -0.2414
15829SOL    HW156265   7.243   5.457  11.389 -0.7407  0.2933  0.7881
15829SOL    HW256266   7.301   5.562  11.480  0.9748  0.5103 -0.5073
15830SOL     OW56267  11.258   3.894   3.770 -0.1779  0.1783 -0.2624
15830SOL    HW156268  11.196   3.955   3.810  0.1344  0.6994 -0.5478
15830SOL    HW256269  11.344   3.932   3.789  0.3635 -2.1990  2.9984
15831SOL     OW56270   9.504   9.419   8.047 -0.1486 -0.3779 -0.1091
15831SOL    HW156271   9.531   9.365   7.972 -0.6604 -0.8834  0.0720
15831SOL    HW256272   9.442   9.482   8.010  0.5747  0.2063 -0.3521
15832SOL     OW56273   0.846   3.205   4.441 -0.2123  0.7095 -0.3149
15832SOL    HW156274   0.872   3.240   4.526  0.1907 -2.5237  1.0658
15832SOL    HW256275   0.751   3.195   4.446 -0.0978 -0.3184  0.1889
15833SOL     OW56276   2.947   8.791   3.547  0.1921  0.1817 -0.7155
15833SOL    HW156277   2.968   8.768   3.457 -2.5575 -1.0308 -1.1586
15833SOL    HW256278   2.890   8.720   3.577 -0.3937  1.4531  1.3830
15834SOL     OW56279   4.375   5.217   5.020  0.1746  0.2721 -0.0378
15834SOL    HW156280   4.405   5.207   4.930 -1.0301 -1.4552 -0.3002
15834SOL    HW256281   4.451   5.250   5.067  0.3833  2.8701 -1.9438
15835SOL     OW56282  11.850  10.577   7.379  0.8941 -0.1929  0.0550
15835SOL    HW156283  11.879  10.612   7.463 -0.0116 -1.7010  1.0558
15835SOL    HW256284  11.775  10.631   7.355  1.3155  0.4109  0.0751
15836SOL     OW56285   1.277  10.299   9.676  0.3531  0.4705 -0.0626
15836SOL    HW156286   1.256  10.379   9.627 -0.1123  0.9288  0.8440
15836SOL    HW256287   1.263  10.228   9.614 -1.7204  0.9136 -0.1921
15837SOL     OW56288   6.799   0.306  11.466 -0.1080  0.3125  0.3869
15837SOL    HW156289   6.807   0.237  11.532 -0.3184  0.0339  0.1210
15837SOL    HW256290   6.715   0.290  11.424 -1.1283  1.9370  1.6865
15838SOL     OW56291   3.049   0.187  12.205  0.3916 -0.8919  0.4447
15838SOL    HW156292   3.114   0.184  12.135 -0.2705  0.3858 -0.2736
15838SOL    HW256293   2.981   0.245  12.172  0.2217  0.0504  2.2836
15839SOL     OW56294   5.596   8.138   9.082  0.0944  0.0375 -0.3833
15839SOL    HW156295   5.671   8.094   9.123 -0.9296 -0.9173  0.5475
15839SOL    HW256296   5.609   8.231   9.102 -0.1734 -0.3353  1.8940
15840SOL     OW56297   3.983   2.003  11.439 -0.1177  0.7717  0.2759
15840SOL    HW156298   3.939   2.071  11.490  1.0260  1.0158  0.9563
15840SOL    HW256299   4.065   2.044  11.410  0.0303  0.0701 -0.3293
15841SOL     OW56300   7.371   4.481   1.477  0.1337  0.1639  0.1941
15841SOL    HW156301   7.369   4.538   1.400 -1.7154  2.7753  1.9949
15841SOL    HW256302   7.440   4.518   1.532 -0.8161  0.4739  1.2132
15842SOL     OW56303  12.610   8.237  10.186  0.5957  0.0004 -0.1905
15842SOL    HW156304  12.665   8.190  10.249  2.3670 -1.1109 -2.4095
15842SOL    HW256305  12.671   8.265  10.117 -1.3907  0.0326 -2.0398
15843SOL     OW56306   9.196   2.240   5.755  0.2001  0.4064  0.3054
15843SOL    HW156307   9.226   2.329   5.772  1.1186  0.2465 -0.3686
15843SOL    HW256308   9.103   2.249   5.733 -0.1904  0.9757  2.0471
15844SOL     OW56309   7.837   5.232   9.074 -0.2270  0.8049 -0.1317
15844SOL    HW156310   7.885   5.271   9.147  0.1310  0.7228 -0.3210
15844SOL    HW256311   7.763   5.292   9.059  0.7627  1.8813 -0.9530
15845SOL     OW56312   9.696   8.681   8.863  0.5698 -0.1608 -0.0375
15845SOL    HW156313   9.613   8.684   8.912  0.3108  1.2950 -0.5018
15845SOL    HW256314   9.687   8.605   8.806 -0.7472  0.3121 -0.5189
15846SOL     OW56315   0.379   3.063   0.762  0.5787  0.0629  0.2084
15846SOL    HW156316   0.324   3.003   0.712  2.0952 -0.3136 -1.0908
15846SOL    HW256317   0.317   3.116   0.812 -1.1488  1.1524 -2.8296
15847SOL     OW56318   3.596   3.629   1.946 -0.0255  0.3384  0.4309
15847SOL    HW156319   3.532   3.700   1.941 -0.0003  0.3569  0.3669
15847SOL    HW256320   3.547   3.550   1.924  0.3184  0.5521 -1.2357
15848SOL     OW56321   5.617  12.147   8.749 -0.2568  0.1740 -0.2629
15848SOL    HW156322   5.555  12.148   8.822  0.7509 -0.1974  0.6360
15848SOL    HW256323   5.676  12.220   8.767 -0.8989  1.0239 -1.5374
15849SOL     OW56324   9.847   4.800   2.548  0.1302 -0.3102 -0.2541
15849SOL    HW156325   9.900   4.855   2.491 -1.3975 -1.1036 -2.5904
15849SOL    HW256326   9.855   4.712   2.511 -1.7140 -0.6829  0.1058
15850SOL     OW56327   4.399  11.342   0.243 -0.2729 -0.5192  0.0955
15850SOL    HW156328   4.400  11.436   0.226  0.2692 -0.4550  0.4611
15850SOL    HW256329   4.424  11.303   0.159  1.5345 -0.2391  0.4642
15851SOL     OW56330   7.430   4.569  10.526 -0.0350 -0.0465 -0.2972
15851SOL    HW156331   7.476   4.549  10.445 -2.5501  0.4406 -1.9868
15851SOL    HW256332   7.374   4.493  10.542  0.4933 -0.1814  1.0769
15852SOL     OW56333  11.200   6.566  10.612  0.4331  0.1742  0.0442
15852SOL    HW156334  11.295   6.578  10.622  0.6116 -0.6504 -0.6000
15852SOL    HW256335  11.183   6.587  10.520 -0.2132  1.5340  0.4491
15853SOL     OW56336   1.550  12.447   3.309 -0.0895  0.0333 -0.3369
15853SOL    HW156337   1.645  12.447   3.304 -0.0705  0.7749 -0.0553
15853SOL    HW256338   1.521  12.493   3.231 -0.1473  1.3897  0.4536
15854SOL     OW56339   0.693   4.087   5.658 -0.0920  0.1008  0.4094
15854SOL    HW156340   0.731   4.002   5.681  2.0859  0.6697 -0.8592
15854SOL    HW256341   0.730   4.148   5.722  2.1801  0.8580 -1.5103
15855SOL     OW56342   0.849  10.976   7.449  0.2450 -0.0222  0.3249
15855SOL    HW156343   0.940  11.004   7.455  0.7585 -0.9275 -2.0137
15855SOL    HW256344   0.811  11.032   7.381 -1.1082  0.6332  1.5556
15856SOL     OW56345   7.632  12.018   2.967 -0.1091  0.2493 -0.2919
15856SOL    HW156346   7.670  11.967   3.038 -1.0273  0.5581  0.4384
15856SOL    HW256347   7.684  11.995   2.890 -0.0778 -1.2775  0.1500
15857SOL     OW56348   2.862  10.094   1.098  0.2261  0.0427 -0.5300
15857SOL    HW156349   2.805  10.022   1.126  0.6808  0.1482  0.7367
15857SOL    HW256350   2.808  10.146   1.039  0.0590 -1.6384 -1.9540
15858SOL     OW56351   2.294   0.314   1.060 -0.0734 -0.3126 -0.3435
15858SOL    HW156352   2.229   0.256   1.020  1.2245 -0.8135 -1.8581
15858SOL    HW256353   2.300   0.388   0.999  1.2136 -0.5880 -0.5815
15859SOL     OW56354  11.792   8.078  10.399  0.4320  0.1661  0.2192
15859SOL    HW156355  11.826   7.990  10.418 -0.7323 -0.0560  1.4723
15859SOL    HW256356  11.858   8.118  10.343  2.6063 -0.3598  2.2236
15860SOL     OW56357   8.237   1.790   0.447  0.4292 -0.1890  0.6434
15860SOL    HW156358   8.310   1.769   0.390  1.3077  1.7968  0.9256
15860SOL    HW256359   8.262   1.755   0.532  1.9383  1.8920  1.1492
15861SOL     OW56360   5.305   4.831   4.252  0.2212 -0.4545 -0.4088
15861SOL    HW156361   5.262   4.811   4.169 -1.6373 -2.6268  0.9411
15861SOL    HW256362   5.394   4.798   4.241  0.5131  0.6897 -1.9838
15862SOL     OW56363  10.188  12.276  12.176  0.1183  0.3757 -0.0843
15862SOL    HW156364  10.242  12.230  12.111 -1.0291  0.1650 -0.9250
15862SOL    HW256365  10.132  12.208  12.213 -1.0483  0.9309 -0.7763
15863SOL     OW56366  11.726  11.012   8.836 -0.3710  0.0171  0.4977
15863SOL    HW156367  11.726  11.105   8.858  0.5351 -0.2142  1.5626
15863SOL    HW256368  11.639  10.996   8.799 -0.7269  1.1649  0.7957
15864SOL     OW56369   8.079   3.611   9.216  0.2001 -0.2149  0.7198
15864SOL    HW156370   8.171   3.635   9.206  1.1115 -2.8533  1.7993
15864SOL    HW256371   8.056   3.569   9.133  0.3957 -0.7595  0.9385
15865SOL     OW56372  12.151   1.285   8.960  0.0776  0.2334  0.6139
15865SOL    HW156373  12.232   1.241   8.987  0.7913  0.6694 -0.7188
15865SOL    HW256374  12.116   1.230   8.890 -1.2283 -0.3741  1.7053
15866SOL     OW56375   4.715   4.381   3.008  0.0223 -0.0837 -0.3213
15866SOL    HW156376   4.667   4.354   3.086  0.3340 -1.2712 -0.5090
15866SOL    HW256377   4.792   4.324   3.006  1.6316  1.9529  0.1288
15867SOL     OW56378   6.982   7.448   0.872 -0.2683 -0.2068 -0.0726
15867SOL    HW156379   6.917   7.488   0.816 -1.4337  0.7347  1.8423
15867SOL    HW256380   6.948   7.361   0.891  0.5379 -0.8525 -1.4128
15868SOL     OW56381   0.681   4.511   3.800  0.3550  0.1177 -0.0269
15868SOL    HW156382   0.671   4.512   3.705 -0.8286  0.2416  0.0890
15868SOL    HW256383   0.634   4.589   3.830 -0.2783 -0.5378  0.7423
15869SOL     OW56384   5.620  10.576  11.337 -0.1821 -0.2430  0.1828
15869SOL    HW156385   5.570  10.649  11.374  0.2195 -0.1115  0.4747
15869SOL    HW256386   5.563  10.539  11.269 -0.4946  0.1725  0.2198
15870SOL     OW56387  12.150  10.461   3.149 -0.1546 -0.7444 -0.2232
15870SOL    HW156388  12.160  10.457   3.244  2.5356 -0.8400 -0.4371
15870SOL    HW256389  12.164  10.553   3.128  2.1073 -1.1439 -0.7048
15871SOL     OW56390  12.475   1.954   3.452  0.0322 -0.4591 -0.4780
15871SOL    HW156391  12.526   2.008   3.512 -0.4218 -0.1578 -0.3581
15871SOL    HW256392  12.457   1.873   3.500 -0.9386  0.0631  0.0743
15872SOL     OW56393   7.882   5.312   7.652  0.0499  0.8949  0.0400
15872SOL    HW156394   7.861   5.400   7.620 -0.3098  0.6246 -0.4722
15872SOL    HW256395   7.930   5.272   7.580 -1.8990 -0.1833 -0.7220
15873SOL     OW56396  10.135   2.519  12.026 -0.2411  0.1927 -0.6499
15873SOL    HW156397  10.123   2.604  12.068  0.5503 -0.7242  1.5898
15873SOL    HW256398  10.078   2.459  12.075 -0.8228 -0.5938 -2.2101
15874SOL     OW56399  10.308   4.208   6.561 -0.2261  0.3773 -0.1153
15874SOL    HW156400  10.354   4.134   6.601 -0.6292  0.1083 -0.1452
15874SOL    HW256401  10.233   4.223   6.618 -0.2112  0.6893 -0.1762
15875SOL     OW56402   1.539  11.195   7.347 -0.3197 -0.2599 -0.0511
15875SOL    HW156403   1.576  11.189   7.435 -0.4598  1.6282  0.1621
15875SOL    HW256404   1.615  11.184   7.289  0.2069  1.0147  0.3546
15876SOL     OW56405   4.107   6.815   4.369  0.4037  0.2584  0.5204
15876SOL    HW156406   4.113   6.723   4.344 -0.5233  0.2054  0.4572
15876SOL    HW256407   4.170   6.860   4.312 -0.1130 -0.1571 -0.4047
15877SOL     OW56408   5.453  10.223  11.386  0.8812 -0.1740  0.0674
15877SOL    HW156409   5.459  10.260  11.298 -1.3652 -0.6959 -0.3529
15877SOL    HW256410   5.473  10.130  11.374  2.0086  0.0068  0.3853
15878SOL     OW56411   0.310   6.186   8.786 -0.2234  0.3895  0.6831
15878SOL    HW156412   0.236   6.151   8.737  0.8792 -0.3158 -0.5795
15878SOL    HW256413   0.363   6.109   8.808  1.9677  1.0750 -1.6522
15879SOL     OW56414   2.583   2.897   2.799  0.7090  1.2306  0.8484
15879SOL    HW156415   2.632   2.969   2.839  0.2083  0.9352  2.0258
15879SOL    HW256416   2.493   2.910   2.828 -0.1570  2.2321 -1.9409
15880SOL     OW56417   1.957   5.694   4.324 -0.7259  0.0431  0.6212
15880SOL    HW156418   1.982   5.771   4.375  0.4659  1.4737 -1.8964
15880SOL    HW256419   1.871   5.714   4.289 -1.4621 -0.8531  1.8503
15881SOL     OW56420  10.317   0.763   8.704 -0.6124 -0.2922  0.0368
15881SOL    HW156421  10.399   0.792   8.745 -1.3885 -0.6075  1.8921
15881SOL    HW256422  10.337   0.676   8.670 -0.3667 -0.6581  1.1018
15882SOL     OW56423   5.434   5.835   3.020 -0.0965  0.1384 -0.1217
15882SOL    HW156424   5.343   5.860   3.002  0.1294  2.9360  1.8888
15882SOL    HW256425   5.482   5.917   3.012  1.7126 -0.6441  1.9711
15883SOL     OW56426   9.845   5.935   1.126 -0.0913 -0.2148 -0.3958
15883SOL    HW156427   9.869   5.994   1.197 -1.3894  0.2313 -0.3111
15883SOL    HW256428   9.885   5.975   1.048 -0.7289  0.6458 -0.2963
15884SOL     OW56429   6.910  11.276   1.121 -0.0510 -0.1793 -0.0631
15884SOL    HW156430   6.912  11.234   1.035 -0.5541 -2.3836  0.9491
15884SOL    HW256431   6.993  11.251   1.162 -0.2329  0.0591  0.4560
15885SOL     OW56432   9.649  10.045   3.794  0.3151 -0.7930 -0.0074
15885SOL    HW156433   9.604  10.052   3.878 -0.3174  0.2953 -0.4160
15885SOL    HW256434   9.630  10.127   3.749  0.9984 -1.1743 -1.0499
15886SOL     OW56435  11.576  11.915   4.961 -0.6252 -0.3405  0.5647
15886SOL    HW156436  11.625  11.849   4.911  0.9646  0.6590  0.7381
15886SOL    HW256437  11.554  11.982   4.897  0.0944  0.2130  0.8768
15887SOL     OW56438  12.439  11.025   6.883  0.0281  0.0352 -0.1749
15887SOL    HW156439  12.401  10.939   6.867  1.1214 -0.3078 -1.0052
15887SOL    HW256440  12.492  11.014   6.962 -1.0823  0.3785  0.6604
15888SOL     OW56441   3.141   1.886   9.699 -0.0443 -0.0236  0.2146
15888SOL    HW156442   3.172   1.913   9.613  1.6020  1.8504  1.2866
15888SOL    HW256443   3.136   1.791   9.695  1.6018 -0.0869 -1.4644
15889SOL     OW56444   4.342   0.265   8.783  0.1774 -0.2309 -0.3579
15889SOL    HW156445   4.350   0.180   8.827  0.1908  0.1251  0.3450
15889SOL    HW256446   4.253   0.265   8.748 -0.3404  0.0185  0.8793
15890SOL     OW56447   9.002   2.241  12.139 -0.5767 -0.5925  0.1334
15890SOL    HW156448   8.951   2.212  12.064 -1.8043  1.6058  0.0418
15890SOL    HW256449   9.028   2.160  12.183 -3.6582 -1.8777 -0.1513
15891SOL     OW56450   5.864   5.066   0.774  0.5796 -0.1418  0.0027
15891SOL    HW156451   5.832   5.067   0.683  3.2302 -0.0879 -1.0133
15891SOL    HW256452   5.813   4.997   0.816 -0.9517  0.0515 -1.4242
15892SOL     OW56453   2.848  12.484   8.598 -0.1366  0.1393  0.2587
15892SOL    HW156454   2.867  12.413   8.660  0.8665 -0.6420 -0.8919
15892SOL    HW256455   2.784  12.446   8.538 -0.8641  0.7843  0.6129
15893SOL     OW56456   4.666   8.271   7.864  0.3728  0.3474 -0.1873
15893SOL    HW156457   4.616   8.215   7.805 -0.2147 -0.0536  0.6769
15893SOL    HW256458   4.652   8.360   7.830 -0.9034  0.2346  0.0128
15894SOL     OW56459   6.550   6.422   0.404 -0.3312  0.2283 -0.1453
15894SOL    HW156460   6.644   6.428   0.420 -0.5796  1.3032  1.0398
15894SOL    HW256461   6.527   6.506   0.365 -0.9357  0.2959  0.3368
15895SOL     OW56462   9.028   2.215   6.963 -0.0050  0.1989 -0.6653
15895SOL    HW156463   8.983   2.150   7.018  0.8778 -2.1571 -2.5364
15895SOL    HW256464   9.116   2.219   7.000 -0.3268  1.1058  0.0332
15896SOL     OW56465   1.165   3.705   1.128 -0.4228  0.2387 -0.0393
15896SOL    HW156466   1.128   3.787   1.097  0.3920  1.1025  1.2073
15896SOL    HW256467   1.189   3.721   1.219  1.6759 -0.7101 -0.3499
15897SOL     OW56468   1.053   7.219   7.698 -0.0881 -0.6129  0.5793
15897SOL    HW156469   1.047   7.240   7.791 -1.2946  0.9889  0.1925
15897SOL    HW256470   1.040   7.124   7.693  0.3986 -0.7745  2.0541
15898SOL     OW56471   8.807   6.046   0.637  0.5481  0.9740  0.7075
15898SOL    HW156472   8.875   6.028   0.572  1.5976 -0.0173  2.0147
15898SOL    HW256473   8.806   6.141   0.645  1.5218  1.0261  0.3628
15899SOL     OW56474   4.025   4.158   4.138  0.0468 -0.2273  0.1940
15899SOL    HW156475   4.059   4.148   4.049 -0.6186 -0.7725 -0.0104
15899SOL    HW256476   3.931   4.167   4.126  0.1471  2.3254  0.6645
15900SOL     OW56477  11.589   1.555   0.776 -0.3438 -0.0279  0.2506
15900SOL    HW156478  11.636   1.475   0.800  0.1740  0.0213 -0.5554
15900SOL    HW256479  11.560   1.592   0.860 -0.3954 -0.9347  0.6449
15901SOL     OW56480   8.682   7.672  11.515 -0.6317 -0.2628  0.2827
15901SOL    HW156481   8.650   7.587  11.485 -0.6364 -0.6744  1.4138
15901SOL    HW256482   8.642   7.685  11.601 -0.7879  0.9806  0.0523
15902SOL     OW56483   5.822  11.743   8.964 -0.5520 -0.4296  0.2089
15902SOL    HW156484   5.887  11.674   8.952 -0.1977  0.0657 -0.8137
15902SOL    HW256485   5.741  11.696   8.985 -0.1299 -1.1092  0.3509
15903SOL     OW56486   3.416   8.662   3.275 -0.1151 -0.0380 -0.2462
15903SOL    HW156487   3.466   8.636   3.352 -0.8563  0.1351  0.3041
15903SOL    HW256488   3.352   8.725   3.308 -1.4252 -1.0839 -0.7258
15904SOL     OW56489   0.857   5.621   9.486 -0.4405 -0.3644  0.1075
15904SOL    HW156490   0.784   5.565   9.511 -0.8035  0.1161  0.1293
15904SOL    HW256491   0.816   5.699   9.448  0.0785 -0.7447 -1.2946
15905SOL     OW56492   2.722  10.911   0.348 -0.1304 -0.4555 -0.4075
15905SOL    HW156493   2.739  10.921   0.255 -1.4434  0.8755 -0.5635
15905SOL    HW256494   2.775  10.979   0.390  1.1671 -1.6458 -0.0660
15906SOL     OW56495   4.870   6.937  12.014 -0.3725  0.3758  0.3219
15906SOL    HW156496   4.777   6.961  12.016 -0.0065  1.8325  2.1486
15906SOL    HW256497   4.893   6.938  11.921 -2.0400  0.5328 -0.1205
15907SOL     OW56498   1.368   4.985   5.730 -0.5628 -0.0208 -0.2528
15907SOL    HW156499   1.334   5.072   5.747  0.3451  0.2522  0.2662
15907SOL    HW256500   1.360   4.974   5.635 -0.4676  0.7278 -0.3542
15908SOL     OW56501   7.094   3.999   7.137 -0.5724  0.2039 -0.3820
15908SOL    HW156502   7.006   3.986   7.100 -0.3672 -0.6587 -0.5823
15908SOL    HW256503   7.153   3.995   7.062 -0.3178  0.2962 -0.1877
15909SOL     OW56504   1.040   0.623   8.667 -0.1455  0.3253  0.4058
15909SOL    HW156505   1.093   0.543   8.674 -1.4478 -0.5752  0.4221
15909SOL    HW256506   1.077   0.682   8.732  1.1804 -0.0583  0.0254
15910SOL     OW56507   8.334   8.077  10.819 -0.2576  0.2519 -0.1093
15910SOL    HW156508   8.390   8.004  10.793 -0.7886  0.1166 -0.8959
15910SOL    HW256509   8.392   8.135  10.870  0.0235 -0.9974  1.0498
15911SOL     OW56510   5.089   3.695   8.416 -0.1060  0.4051  0.2559
15911SOL    HW156511   5.184   3.697   8.417 -0.1064  1.6528 -0.1487
15911SOL    HW256512   5.065   3.645   8.494  0.8648  1.1047  1.0276
15912SOL     OW56513   4.947   3.410   0.161  0.1578 -0.0843  0.2708
15912SOL    HW156514   4.909   3.323   0.169 -2.1096  0.6439 -1.6417
15912SOL    HW256515   4.983   3.412   0.072 -0.1167  1.0207  0.1756
15913SOL     OW56516   3.672   5.226   7.220 -0.7920 -0.2112  0.6327
15913SOL    HW156517   3.612   5.179   7.162 -0.3313  0.2614 -0.2406
15913SOL    HW256518   3.686   5.165   7.293 -2.5350 -0.2272  1.0064
15914SOL     OW56519   7.168   6.235   7.891 -0.2661  0.2386  0.1865
15914SOL    HW156520   7.225   6.283   7.830  0.7734  1.3737  1.9703
15914SOL    HW256521   7.125   6.303   7.942  0.6807 -0.6495  2.2990
15915SOL     OW56522   8.613   0.333   5.448 -0.4439 -0.1139  0.3496
15915SOL    HW156523   8.704   0.307   5.432 -0.6217 -2.2428  2.2398
15915SOL    HW256524   8.584   0.371   5.365  1.3050 -2.0220 -1.2528
15916SOL     OW56525   9.604  10.333   3.205 -0.2716  0.5494  0.3431
15916SOL    HW156526   9.514  10.314   3.231 -1.1316  1.5150 -1.7309
15916SOL    HW256527   9.608  10.428   3.198  0.9993  0.5363  0.6332
15917SOL     OW56528  12.486  10.969   8.877 -0.6698 -0.4813  0.0810
15917SOL    HW156529  12.496  11.037   8.945 -0.4182 -0.7535  0.3163
15917SOL    HW256530  12.501  11.016   8.795 -1.0206 -0.1390  0.2056
15918SOL     OW56531   4.316   1.015   4.047 -0.7930 -0.3886 -0.2773
15918SOL    HW156532   4.394   0.959   4.039 -0.6195 -0.2895  0.6306
15918SOL    HW256533   4.247   0.965   4.003  0.0679  0.1394 -2.3197
15919SOL     OW56534   3.594   5.618   9.898  0.6812  0.2413 -0.0541
15919SOL    HW156535   3.547   5.647   9.976  0.3408  1.4872 -0.6966
15919SOL    HW256536   3.526   5.587   9.838  0.7619  1.1096 -0.6020
15920SOL     OW56537   5.122   2.876   6.303  0.3577 -0.2402 -0.1889
15920SOL    HW156538   5.186   2.834   6.360  0.4457  0.2007  0.0425
15920SOL    HW256539   5.038   2.863   6.347  0.4136  0.0194 -0.0046
15921SOL     OW56540   1.956   6.154   8.820 -0.1336  0.3190  0.3171
15921SOL    HW156541   1.986   6.084   8.762  0.7429 -0.8154  2.0650
15921SOL    HW256542   1.878   6.119   8.862  0.2969  0.3719  1.1880
15922SOL     OW56543   6.509   1.860   8.813  0.3094 -0.3235 -0.4995
15922SOL    HW156544   6.415   1.844   8.816  0.4322 -0.9610  0.8014
15922SOL    HW256545   6.533   1.875   8.905  1.3071  0.8769 -0.9326
15923SOL     OW56546  11.368   7.348   0.096  0.3512 -0.5412 -0.7090
15923SOL    HW156547  11.361   7.257   0.067  1.2231 -0.9241  0.2354
15923SOL    HW256548  11.298   7.393   0.048 -0.7629 -1.8882 -0.4492
15924SOL     OW56549   0.406  12.482   8.261 -0.6016 -0.4469  0.0632
15924SOL    HW156550   0.343  12.491   8.190 -0.3985  1.2800  0.0552
15924SOL    HW256551   0.464  12.558   8.252 -1.5847  0.8439  3.0638
15925SOL     OW56552  10.646   2.185  10.158  0.4182  0.0295  0.1995
15925SOL    HW156553  10.600   2.215  10.235  0.8901  3.1538 -0.6140
15925SOL    HW256554  10.593   2.112  10.125 -2.1400  1.3757  1.0962
15926SOL     OW56555  10.066   9.509   7.267 -0.6567  0.3184 -0.1858
15926SOL    HW156556  10.099   9.599   7.268 -2.2226  0.9254  0.2356
15926SOL    HW256557  10.050   9.489   7.359  0.0315 -0.5440 -0.2475
15927SOL     OW56558   0.268   8.052   9.880 -0.2897  0.4114  0.2726
15927SOL    HW156559   0.194   8.000   9.848 -0.4442  0.3819  0.6826
15927SOL    HW256560   0.287   8.017   9.967 -0.1859  0.8267  0.4183
15928SOL     OW56561   5.137  10.875   8.153  0.0322  0.1767 -0.3202
15928SOL    HW156562   5.101  10.847   8.237 -1.1363  1.1888 -0.4432
15928SOL    HW256563   5.111  10.806   8.092  1.4895 -0.9154  0.2398
15929SOL     OW56564   7.316   3.305   7.661 -0.0816 -0.4099 -0.5868
15929SOL    HW156565   7.337   3.387   7.615 -0.1027  0.7900  1.4367
15929SOL    HW256566   7.378   3.303   7.734 -3.0399  0.2613  2.1446
15930SOL     OW56567   6.800  11.909  10.333 -0.1576  0.0416  0.3874
15930SOL    HW156568   6.845  11.927  10.251 -0.9510  0.1761 -0.0294
15930SOL    HW256569   6.707  11.916  10.312 -0.4760 -2.1790  0.7660
15931SOL     OW56570   9.933   1.475   7.712  0.2681 -0.2328 -0.0473
15931SOL    HW156571   9.887   1.525   7.780 -0.3290 -1.2996  0.3667
15931SOL    HW256572   9.865   1.455   7.648  0.6123 -0.1081 -0.4556
15932SOL     OW56573   2.641  11.909   1.391 -0.3299  0.1903 -0.2890
15932SOL    HW156574   2.664  11.820   1.419 -0.3356  0.5848  1.0375
15932SOL    HW256575   2.626  11.956   1.473 -3.1705  0.6687 -0.9696
15933SOL     OW56576   6.310   9.799  11.754  0.5263  0.1017  0.0093
15933SOL    HW156577   6.345   9.715  11.783  0.0709 -0.3770 -0.7857
15933SOL    HW256578   6.344   9.863  11.817  2.4144 -0.3977 -0.4401
15934SOL     OW56579   3.367  11.435  11.652 -0.1947 -0.5494 -0.1474
15934SOL    HW156580   3.301  11.497  11.682  0.6653 -0.3076  1.3846
15934SOL    HW256581   3.318  11.357  11.626 -1.0404 -0.9998  2.5016
15935SOL     OW56582  11.166   8.057   0.788  0.3249 -0.0138  0.6688
15935SOL    HW156583  11.245   8.105   0.812 -0.0562  0.9575  0.0693
15935SOL    HW256584  11.160   8.067   0.693 -1.8488  2.1434  0.9324
15936SOL     OW56585   9.286   4.834   9.508  0.5387  0.6053  0.0501
15936SOL    HW156586   9.216   4.772   9.529 -0.2724  0.4708 -2.6565
15936SOL    HW256587   9.242   4.907   9.465  1.9420  0.9872 -0.7994
15937SOL     OW56588   9.416   5.751   4.942 -0.0924 -0.0844  0.1232
15937SOL    HW156589   9.461   5.805   5.007 -0.0062  0.0157 -0.0212
15937SOL    HW256590   9.354   5.810   4.900  1.3159  0.4093 -1.3672
15938SOL     OW56591  10.279   5.857  10.008 -0.4661  0.2216 -0.3778
15938SOL    HW156592  10.344   5.926   9.998 -0.5536  0.4892  0.7460
15938SOL    HW256593  10.203   5.901  10.044 -0.5818 -0.4230  0.1918
15939SOL     OW56594   8.670   5.946  11.512 -0.5595  0.3464 -0.1824
15939SOL    HW156595   8.679   5.979  11.422  1.3863 -0.8814 -0.4891
15939SOL    HW256596   8.690   5.853  11.506  1.1382  0.5056  1.7245
15940SOL     OW56597   9.007   5.529  10.855 -0.4551  0.0399 -0.4731
15940SOL    HW156598   8.958   5.570  10.783 -1.2737 -1.8246 -1.0334
15940SOL    HW256599   8.964   5.445  10.868  1.3663 -0.8059  0.3988
15941SOL     OW56600   1.116  12.338  10.767  0.2077  0.2122 -0.7632
15941SOL    HW156601   1.201  12.296  10.766  0.2683  0.3253 -1.6754
15941SOL    HW256602   1.101  12.363  10.675 -1.6848 -1.5790 -1.0112
15942SOL     OW56603   0.882  12.433  10.858 -0.1226 -0.2194  0.4206
15942SOL    HW156604   0.959  12.391  10.818  0.5890 -1.0808  2.5054
15942SOL    HW256605   0.810  12.373  10.841 -0.4753  0.7659 -1.8590
15943SOL     OW56606   4.949   0.463   6.460  0.3999  0.4538  0.2608
15943SOL    HW156607   4.978   0.549   6.430  0.3831  0.5970  0.6517
15943SOL    HW256608   5.029   0.412   6.470  0.2889 -0.4036 -2.4074
15944SOL     OW56609   2.584  11.873   4.489  0.1260 -0.0637  0.3464
15944SOL    HW156610   2.603  11.963   4.518 -2.9122  0.3816  1.3622
15944SOL    HW256611   2.591  11.820   4.569  0.5087 -0.4968  0.0310
15945SOL     OW56612   8.880   0.659  12.182  0.5552 -0.5251 -0.5339
15945SOL    HW156613   8.853   0.573  12.149 -0.5217 -0.9043  1.2271
15945SOL    HW256614   8.844   0.663  12.270  0.9398  1.5877 -0.4330
15946SOL     OW56615   0.255   6.819   3.577 -0.2338 -0.1150 -0.0033
15946SOL    HW156616   0.163   6.840   3.558 -0.4216 -0.8208  0.1151
15946SOL    HW256617   0.267   6.731   3.543  0.4864  0.0811 -0.2749
15947SOL     OW56618   9.903  11.370   5.367 -0.5527 -0.0758 -0.1997
15947SOL    HW156619   9.812  11.363   5.339 -1.1059 -0.7545  1.6034
15947SOL    HW256620   9.926  11.282   5.396  1.1102 -0.2181 -1.7619
15948SOL     OW56621   1.777   3.178   2.846  0.0331  0.0869  0.1142
15948SOL    HW156622   1.793   3.225   2.764 -2.0736  1.7687  0.5977
15948SOL    HW256623   1.786   3.086   2.822  0.7614  0.5838 -1.6917
15949SOL     OW56624   4.974   9.844   5.482 -0.3138  0.2433  0.7129
15949SOL    HW156625   5.053   9.885   5.446 -0.7255  0.8325  0.4690
15949SOL    HW256626   4.980   9.858   5.576  0.2684 -0.4215  0.7851
15950SOL     OW56627   8.723   6.813   8.303  0.1465 -0.0884  0.8546
15950SOL    HW156628   8.726   6.746   8.235 -1.1235  0.0030  0.6905
15950SOL    HW256629   8.648   6.868   8.280  0.8090  1.0526  1.3085
15951SOL     OW56630   3.542   3.212   5.613 -0.3040  0.1804  0.4242
15951SOL    HW156631   3.558   3.301   5.582 -0.5417  0.4949  1.1943
15951SOL    HW256632   3.524   3.221   5.707  1.4716 -0.8636  0.9161
15952SOL     OW56633   9.398   1.232  11.534 -0.3938  0.1897  0.3313
15952SOL    HW156634   9.472   1.184  11.498 -0.6205 -0.5773  0.8650
15952SOL    HW256635   9.358   1.275  11.458  0.7246  0.8173  0.0668
15953SOL     OW56636   7.867   0.666  10.006  0.1318 -0.2027 -0.3200
15953SOL    HW156637   7.816   0.608   9.950 -0.4497 -1.5124  1.4623
15953SOL    HW256638   7.935   0.610  10.043 -0.3296  0.2575  1.3154
15954SOL     OW56639   7.691   4.585  12.310  0.9905  0.2404 -0.5537
15954SOL    HW156640   7.699   4.498  12.349  0.6845  0.5930  0.3112
15954SOL    HW256641   7.743   4.580  12.230  0.0558 -1.0817 -1.1081
15955SOL     OW56642   9.715   1.003   6.107 -0.1956  0.1741 -0.2007
15955SOL    HW156643   9.661   1.058   6.051  2.3488  2.0885 -0.9322
15955SOL    HW256644   9.741   0.929   6.052 -0.3673  0.3440 -0.5066
15956SOL     OW56645   7.394   3.666  11.480  0.3847 -0.3880  1.0793
15956SOL    HW156646   7.484   3.642  11.503 -0.0143 -2.0056  1.0605
15956SOL    HW256647   7.341   3.591  11.508 -0.3971 -1.6163 -3.0614
15957SOL     OW56648   8.179   1.072   8.751 -0.0710  0.1407 -0.0006
15957SOL    HW156649   8.257   1.127   8.739  0.9326 -1.1692  0.3381
15957SOL    HW256650   8.169   1.026   8.667 -1.2588  1.2151 -0.4954
15958SOL     OW56651   6.385   0.385   3.599 -0.0982  0.7183 -0.3054
15958SOL    HW156652   6.436   0.394   3.680  0.5043  2.9754 -0.8799
15958SOL    HW256653   6.298   0.418   3.620 -0.9120 -1.5181  0.1850
15959SOL     OW56654  10.315  11.410   3.696 -0.3547  0.5322 -0.0278
15959SOL    HW156655  10.290  11.445   3.610 -0.7797  0.9386  0.2567
15959SOL    HW256656  10.369  11.478   3.734 -1.7713  1.2287  0.8251
15960SOL     OW56657   9.092  11.548   0.674  0.1402  0.1991 -0.2967
15960SOL    HW156658   9.024  11.513   0.618 -1.1502  3.6143 -1.0854
15960SOL    HW256659   9.048  11.569   0.756  1.0070 -0.5765  0.3880
15961SOL     OW56660   3.655   6.303  10.904  0.2212  0.1831  0.2721
15961SOL    HW156661   3.750   6.301  10.916  0.5834  1.4305 -1.9021
15961SOL    HW256662   3.622   6.352  10.980  1.0815 -1.6524  1.9194
15962SOL     OW56663   0.252  11.098   2.948  0.0982 -0.5602 -0.6344
15962SOL    HW156664   0.296  11.181   2.965 -0.1251 -0.5089 -0.2890
15962SOL    HW256665   0.232  11.100   2.854 -2.8376  1.2360 -0.0890
15963SOL     OW56666   9.298   7.649  11.025 -0.4238 -0.4796 -0.0718
15963SOL    HW156667   9.213   7.613  11.051 -0.1759  0.0163  1.5178
15963SOL    HW256668   9.342   7.575  10.982 -1.3533 -0.9655 -0.2277
15964SOL     OW56669   6.613   5.841   1.253  0.0662  0.4059  0.6209
15964SOL    HW156670   6.566   5.761   1.231 -0.4895  0.6196  1.0004
15964SOL    HW256671   6.661   5.863   1.173 -0.9302  0.4780  0.0134
15965SOL     OW56672   8.639   3.847   7.221 -0.4983  0.0813  0.0532
15965SOL    HW156673   8.553   3.854   7.262 -1.3993 -0.1964 -1.7042
15965SOL    HW256674   8.631   3.774   7.159  0.2545  1.5446 -1.8685
15966SOL     OW56675   2.700  10.755   3.584  0.5257  0.3073  0.7833
15966SOL    HW156676   2.665  10.843   3.591  1.2367  0.6900 -0.2715
15966SOL    HW256677   2.700  10.736   3.491  2.2264 -0.0146  0.8030
15967SOL     OW56678   5.291   0.792   1.591  0.4476 -0.2682  0.1559
15967SOL    HW156679   5.326   0.732   1.657 -0.3320 -1.8792 -0.8197
15967SOL    HW256680   5.198   0.769   1.585  0.3905  0.2143 -1.1069
15968SOL     OW56681   6.476   7.293   7.331 -0.1453 -0.3750 -0.2302
15968SOL    HW156682   6.456   7.342   7.251 -0.0865 -0.3921 -0.2561
15968SOL    HW256683   6.568   7.268   7.321 -0.5913 -1.8881 -0.9713
15969SOL     OW56684   3.165   3.482  10.727 -0.3060  0.0144  0.0687
15969SOL    HW156685   3.128   3.396  10.711  2.3452 -1.3622  0.7542
15969SOL    HW256686   3.150   3.498  10.820  0.4431 -0.3666  0.2591
15970SOL     OW56687   0.145  11.461   6.050  0.2822  0.1272  0.1860
15970SOL    HW156688   0.068  11.434   6.099 -0.2252 -2.6630 -1.9212
15970SOL    HW256689   0.110  11.498   5.969  1.1471  0.8042  0.1049
15971SOL     OW56690   0.243   8.748   4.974  0.8319 -0.4091  0.1932
15971SOL    HW156691   0.318   8.785   4.927 -0.2234 -0.5779 -1.7145
15971SOL    HW256692   0.225   8.812   5.043  0.1051  1.8775 -1.9655
15972SOL     OW56693  11.859   8.606  11.113 -0.7024 -0.3945  0.4490
15972SOL    HW156694  11.933   8.610  11.052  0.1921  0.6030  1.5430
15972SOL    HW256695  11.835   8.513  11.115 -0.1090 -0.5858 -0.6608
15973SOL     OW56696   6.045   5.801   4.836  0.6535  0.1278  0.5705
15973SOL    HW156697   5.993   5.880   4.825 -0.4174 -0.3853  1.6939
15973SOL    HW256698   6.051   5.789   4.931  1.3564 -0.7819  0.4290
15974SOL     OW56699   5.957  11.772   7.114 -0.1571  0.0510 -0.1069
15974SOL    HW156700   6.043  11.747   7.149  0.2107  1.0354 -0.2735
15974SOL    HW256701   5.974  11.790   7.021 -0.8346 -1.1193 -0.4776
15975SOL     OW56702   3.219   6.999   4.832 -0.1569 -0.2003  0.2846
15975SOL    HW156703   3.266   7.065   4.782  0.2179 -0.9021 -0.3107
15975SOL    HW256704   3.167   7.049   4.895 -0.3978  0.6905 -0.5886
15976SOL     OW56705  12.117   7.504   6.387 -0.4064 -0.0823 -0.1306
15976SOL    HW156706  12.165   7.468   6.462  1.7229 -0.2668 -1.5080
15976SOL    HW256707  12.065   7.430   6.355 -0.2400 -0.3934  0.3061
15977SOL     OW56708   7.837   3.880   3.113 -0.2965  0.4879  0.8001
15977SOL    HW156709   7.767   3.942   3.137 -1.5065 -0.4445 -0.1778
15977SOL    HW256710   7.835   3.814   3.182  0.5449  1.1577  1.4862
15978SOL     OW56711   3.550   4.010   8.906 -0.0832 -0.8596  0.3416
15978SOL    HW156712   3.601   4.005   8.825  1.3547 -0.2774  1.1776
15978SOL    HW256713   3.492   4.085   8.893  1.1735  0.1594  0.3789
15979SOL     OW56714  11.424   0.297  11.674  0.0607 -0.5328 -0.2019
15979SOL    HW156715  11.474   0.216  11.688 -2.1369 -1.6198  2.2111
15979SOL    HW256716  11.454   0.355  11.744  1.1238  0.5489 -1.5104
15980SOL     OW56717   9.685   3.796   5.563 -0.4113  0.2449 -0.4238
15980SOL    HW156718   9.663   3.707   5.589 -0.9614  0.6284  0.4706
15980SOL    HW256719   9.715   3.838   5.644 -2.5629  1.5990 -0.2396
15981SOL     OW56720   8.107   1.132   0.803  0.0045 -0.5710 -0.0254
15981SOL    HW156721   8.084   1.185   0.726  1.2765 -0.2717 -0.2276
15981SOL    HW256722   8.046   1.160   0.870 -2.1736 -1.9366 -1.3141
15982SOL     OW56723  10.846   6.385   2.187 -0.0327 -0.0370 -0.3693
15982SOL    HW156724  10.780   6.363   2.253 -0.4006 -0.2581 -0.8051
15982SOL    HW256725  10.929   6.363   2.228 -0.0612  2.0189  0.9270
15983SOL     OW56726   8.042  12.019   8.443  0.1158 -0.3408  0.4533
15983SOL    HW156727   8.113  12.073   8.409 -0.2737 -0.3579 -0.4279
15983SOL    HW256728   7.968  12.039   8.385  0.4883 -3.2944 -1.2035
15984SOL     OW56729   8.370   4.560  10.567 -0.1810 -0.3031  0.0470
15984SOL    HW156730   8.286   4.515  10.568  0.4104 -1.4511  0.2337
15984SOL    HW256731   8.410   4.537  10.651  0.3992  0.0873 -0.1133
15985SOL     OW56732   6.823   2.984   6.697  0.1011 -0.0155  0.5155
15985SOL    HW156733   6.885   2.966   6.768  2.1395  1.9685 -0.6478
15985SOL    HW256734   6.812   3.079   6.698 -0.3331 -0.0171 -1.3827
15986SOL     OW56735  11.971  10.893   8.232 -0.1276 -0.4803 -0.0264
15986SOL    HW156736  11.925  10.866   8.311 -1.0022 -2.4166 -1.1394
15986SOL    HW256737  11.914  10.959   8.192 -0.0515 -0.0642  0.5406
15987SOL     OW56738  10.697   0.508  12.045 -0.0329 -0.3077 -0.0921
15987SOL    HW156739  10.606   0.529  12.023 -0.4745 -1.4894  0.4876
15987SOL    HW256740  10.691   0.430  12.100  1.2701  0.3154  0.9851
15988SOL     OW56741  11.366   0.950   8.018  0.2705  0.3780  0.1779
15988SOL    HW156742  11.349   0.862   7.986  2.4846  0.3549 -1.1497
15988SOL    HW256743  11.334   1.008   7.948 -0.0783  0.5955  0.5096
15989SOL     OW56744   4.217   5.815   5.675 -0.4349 -0.8635 -0.2112
15989SOL    HW156745   4.140   5.836   5.729  0.4370 -0.5113  0.9333
15989SOL    HW256746   4.182   5.763   5.603 -2.3022  2.1876 -1.6865
15990SOL     OW56747   0.733   2.253  12.018  0.5390  0.2220  0.3842
15990SOL    HW156748   0.697   2.171  11.984  0.9176 -0.5070  1.6576
15990SOL    HW256749   0.699   2.320  11.959 -0.9426 -0.6918  0.1272
15991SOL     OW56750   8.553  11.498   4.611  0.9389 -0.1589  0.5980
15991SOL    HW156751   8.553  11.590   4.586 -1.7520 -0.9574 -3.2806
15991SOL    HW256752   8.487  11.492   4.681 -0.0992  0.6738 -0.2855
15992SOL     OW56753   0.557   9.637   1.477  0.3203 -0.0441 -0.4770
15992SOL    HW156754   0.584   9.708   1.417  0.5998 -0.7287 -1.1812
15992SOL    HW256755   0.638   9.610   1.520  0.2248  0.0145 -0.2591
15993SOL     OW56756   9.653   5.317   9.307  0.7097  0.3217 -0.1671
15993SOL    HW156757   9.566   5.288   9.335  1.4867 -1.0578  0.9480
15993SOL    HW256758   9.642   5.410   9.289 -1.4546 -0.1978 -1.9856
15994SOL     OW56759   4.027   4.203  12.267  0.2074  0.7304 -0.1535
15994SOL    HW156760   4.042   4.110  12.247 -0.0133  0.8566 -0.9495
15994SOL    HW256761   4.114   4.243  12.262  0.4602  0.3974  1.2022
15995SOL     OW56762   9.117   0.954   7.535 -0.1059  0.9310  0.3848
15995SOL    HW156763   9.104   0.922   7.445  0.0236 -0.6730  0.9097
15995SOL    HW256764   9.029   0.980   7.563 -0.7246 -1.3827  0.7917
15996SOL     OW56765   4.341   6.455   3.022  0.2578 -0.4135 -0.1299
15996SOL    HW156766   4.276   6.461   2.951  1.0932 -1.3800 -1.0126
15996SOL    HW256767   4.424   6.441   2.977  0.7460 -1.5362  1.0609
15997SOL     OW56768   7.427  11.307   6.489  0.4856 -0.3578  0.1220
15997SOL    HW156769   7.451  11.386   6.440  0.5776  0.3627  1.2822
15997SOL    HW256770   7.334  11.294   6.468  0.2701  0.4927  0.4726
15998SOL     OW56771   8.376   5.385   1.470 -0.0716 -0.6421  0.1655
15998SOL    HW156772   8.450   5.445   1.478 -0.0931 -0.5551 -0.2776
15998SOL    HW256773   8.393   5.335   1.390 -0.4454 -0.6827  0.1077
15999SOL     OW56774   5.989   4.312   9.157 -0.0246 -0.4318 -0.1264
15999SOL    HW156775   5.933   4.285   9.084 -0.4332 -0.1372  0.0696
15999SOL    HW256776   6.000   4.406   9.145  1.3815 -0.6644 -0.8008
16000SOL     OW56777   4.238   4.760   6.064 -0.3923  0.5154 -0.3736
16000SOL    HW156778   4.147   4.763   6.095 -0.3381  0.7520 -0.2375
16000SOL    HW256779   4.265   4.669   6.081 -1.4470 -0.3554 -2.8676
16001SOL     OW56780   1.057  10.801   2.230  0.4005 -0.6587  0.2588
16001SOL    HW156781   1.036  10.875   2.174 -2.1936 -1.4860 -0.0004
16001SOL    HW256782   1.040  10.723   2.176  2.7932 -1.5075  0.6023
16002SOL     OW56783   4.024  11.783   4.393  0.3595 -0.7232 -0.0294
16002SOL    HW156784   3.989  11.853   4.337  2.5392 -0.5269 -1.2801
16002SOL    HW256785   4.025  11.821   4.481 -1.0824 -0.2148 -0.2124
16003SOL     OW56786  10.237   5.888   6.085 -0.2067 -0.0854 -0.5454
16003SOL    HW156787  10.259   5.952   6.153  0.5585 -0.9728  0.0754
16003SOL    HW256788  10.297   5.815   6.101 -0.2038 -0.4347 -2.0149
16004SOL     OW56789   7.648   6.973   9.881  0.5218 -0.3448 -0.0019
16004SOL    HW156790   7.573   6.937   9.929 -0.0025  0.9581  0.1913
16004SOL    HW256791   7.636   6.942   9.791 -0.1981 -0.2397  0.0491
16005SOL     OW56792   0.476   3.487   6.497  0.2319 -0.7051 -0.4912
16005SOL    HW156793   0.503   3.409   6.449  1.8685 -0.7349  0.4308
16005SOL    HW256794   0.505   3.560   6.442  1.8038 -0.7423  0.2432
16006SOL     OW56795   6.966   5.966   9.330 -0.2618  0.7368 -0.3336
16006SOL    HW156796   6.967   5.897   9.263  1.5929 -0.4931  0.8370
16006SOL    HW256797   7.058   5.993   9.336 -0.9249  3.2376 -0.6295
16007SOL     OW56798   0.132   3.079   5.244  0.0497  0.0688  0.0706
16007SOL    HW156799   0.063   3.070   5.311 -2.0921 -0.0178 -2.0307
16007SOL    HW256800   0.131   2.995   5.198  1.8198 -0.0369  0.1523
16008SOL     OW56801   0.482   0.855   9.425 -0.2436  0.2459 -0.0974
16008SOL    HW156802   0.448   0.853   9.514 -1.1284 -0.6593 -0.4325
16008SOL    HW256803   0.412   0.818   9.372  0.3522  0.5818 -1.1461
16009SOL     OW56804  10.132   3.578   5.119 -0.3375 -0.2330 -0.2570
16009SOL    HW156805  10.080   3.540   5.048  2.2912 -1.2032 -1.8042
16009SOL    HW256806  10.070   3.634   5.166 -2.7328 -1.2489 -1.9581
16010SOL     OW56807  10.304   5.763   5.602 -0.5554  0.2019  0.1426
16010SOL    HW156808  10.349   5.711   5.535 -0.6447 -1.2294  1.1401
16010SOL    HW256809  10.368   5.769   5.673  0.5857  3.9436 -0.9447
16011SOL     OW56810   9.917   6.539   0.632  0.2305 -0.2718 -0.3409
16011SOL    HW156811   9.939   6.508   0.720 -2.0875  2.4923  1.4188
16011SOL    HW256812   9.975   6.614   0.618 -2.9473  2.8566  1.4878
16012SOL     OW56813  11.961   7.997   9.214  0.3210 -0.2491  0.1138
16012SOL    HW156814  11.985   7.905   9.201  0.1451 -0.6711  2.3191
16012SOL    HW256815  11.991   8.017   9.303 -0.9609  1.3877  0.2268
16013SOL     OW56816   2.130   3.547   5.045  0.1640 -0.4476 -0.1081
16013SOL    HW156817   2.215   3.589   5.052 -0.5038  0.8129  0.7210
16013SOL    HW256818   2.111   3.517   5.134 -0.6735  0.1222 -0.0890
16014SOL     OW56819   3.261   5.319   4.158 -0.0679  0.5417 -0.3005
16014SOL    HW156820   3.351   5.323   4.124  0.0038  0.9550 -0.0740
16014SOL    HW256821   3.252   5.400   4.209 -0.3862  0.2324  0.1340
16015SOL     OW56822   6.429   9.789  12.076 -0.7005 -0.2232  0.1162
16015SOL    HW156823   6.440   9.727  12.149 -0.3407  0.5799  0.7592
16015SOL    HW256824   6.342   9.827  12.089  0.0343  1.1654  1.1232
16016SOL     OW56825  12.060  11.235  10.720  0.4956 -0.2741 -0.7897
16016SOL    HW156826  11.998  11.275  10.659  0.3043  1.7775  0.6647
16016SOL    HW256827  12.130  11.202  10.664 -0.9120 -0.8203 -2.3002
16017SOL     OW56828   4.466   0.305   5.076 -0.1691  0.5186  0.1106
16017SOL    HW156829   4.549   0.315   5.030 -0.0906  0.7771  0.3072
16017SOL    HW256830   4.464   0.213   5.103 -0.0542  0.4556 -0.0971
16018SOL     OW56831   5.707   1.301   0.293 -0.5808 -0.1227  0.0700
16018SOL    HW156832   5.795   1.304   0.254 -0.5775  2.3385  0.1429
16018SOL    HW256833   5.712   1.358   0.369 -1.4827 -2.3442  1.9295
16019SOL     OW56834   2.665   8.413   2.341  0.3252 -0.4486  0.5740
16019SOL    HW156835   2.670   8.325   2.302 -1.0700 -0.4350  0.3098
16019SOL    HW256836   2.642   8.398   2.432 -0.4560 -0.3545  0.4003
16020SOL     OW56837  12.271   3.983   5.536 -0.4806 -0.0507 -0.1762
16020SOL    HW156838  12.355   4.006   5.575  0.2728  0.7903 -2.1729
16020SOL    HW256839  12.283   3.894   5.502  0.0087  0.4606 -1.4115
16021SOL     OW56840   5.324   1.704   3.787  0.4007  0.1586 -0.0834
16021SOL    HW156841   5.271   1.754   3.849  0.7379 -1.1247  1.2871
16021SOL    HW256842   5.414   1.727   3.809  0.4906  0.6872 -0.9760
16022SOL     OW56843   0.896  11.774   5.290 -0.4697 -0.7659  0.1600
16022SOL    HW156844   0.891  11.864   5.257 -1.1223  0.4231  3.1036
16022SOL    HW256845   0.982  11.743   5.263 -0.7253  0.2490 -2.0032
16023SOL     OW56846   5.738  11.275   5.891  0.4407  0.3060  0.4176
16023SOL    HW156847   5.698  11.266   5.977  0.3450 -0.1025  0.3314
16023SOL    HW256848   5.769  11.365   5.888 -1.9300  1.1625 -0.1504
16024SOL     OW56849   4.795   6.986   4.185 -0.2817  0.8034  0.4313
16024SOL    HW156850   4.869   7.023   4.137 -0.3993  0.9842  0.3899
16024SOL    HW256851   4.834   6.945   4.262 -0.1444  0.9448  0.4361
16025SOL     OW56852   9.489   1.000   6.940  0.3052 -0.0797 -0.7060
16025SOL    HW156853   9.493   1.069   6.874  0.7856 -0.0749 -0.6804
16025SOL    HW256854   9.562   1.019   6.998  2.1027 -2.0443 -2.1576
16026SOL     OW56855   8.614  10.552  11.891 -0.1372 -0.0429 -0.6979
16026SOL    HW156856   8.684  10.488  11.878 -1.0331 -1.6999  1.7938
16026SOL    HW256857   8.595  10.548  11.985 -2.9945  0.9531 -1.1297
16027SOL     OW56858   2.629   5.322   4.779 -0.2163  0.6242 -0.1876
16027SOL    HW156859   2.647   5.326   4.685  1.0675  0.9827  0.0539
16027SOL    HW256860   2.541   5.358   4.789 -0.8281 -0.4471 -1.3580
16028SOL     OW56861   0.689   2.802  11.203  0.0276  0.0896 -0.3317
16028SOL    HW156862   0.725   2.728  11.252  0.0122 -0.8088 -1.6093
16028SOL    HW256863   0.599   2.810  11.235 -0.5394 -1.5930 -1.3668
16029SOL     OW56864   2.056   5.296   7.528  0.1999 -0.0581  0.1598
16029SOL    HW156865   2.007   5.378   7.531 -0.3741 -0.3391 -0.9799
16029SOL    HW256866   2.146   5.321   7.547  0.3302  1.1114 -1.7085
16030SOL     OW56867   3.892   2.667   4.846 -0.1350 -0.0463  0.3795
16030SOL    HW156868   3.904   2.575   4.870  2.4428 -0.7330 -2.7849
16030SOL    HW256869   3.959   2.714   4.896 -0.8933  0.0287  1.3536
16031SOL     OW56870   1.828   9.302   0.094 -0.0485 -0.1835 -0.2624
16031SOL    HW156871   1.749   9.304   0.041 -0.1820 -1.3597 -0.1250
16031SOL    HW256872   1.840   9.210   0.117  1.4919 -0.0688 -0.4775
16032SOL     OW56873   1.660   4.354  12.494  0.2239 -0.2735 -0.0608
16032SOL    HW156874   1.634   4.435  12.538  0.8500  0.3691 -0.8453
16032SOL    HW256875   1.681   4.294  12.566  0.4312  0.4838  0.5296
16033SOL     OW56876   5.041   2.279   0.186  0.5653 -0.2013 -0.9029
16033SOL    HW156877   5.081   2.218   0.124  1.0418  0.6024 -1.4062
16033SOL    HW256878   5.106   2.349   0.196  1.4038 -1.2448  2.0420
16034SOL     OW56879   5.767   6.078   9.192  0.0955 -0.0677  0.3881
16034SOL    HW156880   5.672   6.073   9.178 -0.0304  0.0606  1.1519
16034SOL    HW256881   5.779   6.053   9.284  0.7683  0.2772  0.3965
16035SOL     OW56882   8.690   5.005   1.827 -0.3316 -0.2041 -0.6959
16035SOL    HW156883   8.596   4.988   1.830 -0.2543 -0.8189 -1.3899
16035SOL    HW256884   8.726   4.959   1.902 -0.7309  1.1566  0.3727
16036SOL     OW56885  12.511   4.211   8.089 -0.5205 -0.4844 -0.2431
16036SOL    HW156886  12.531   4.173   8.003 -0.6354 -0.2937 -0.3547
16036SOL    HW256887  12.422   4.247   8.079 -0.7047 -0.8505  0.0868
16037SOL     OW56888  11.839   4.528   5.409 -0.0820  0.0792 -0.2180
16037SOL    HW156889  11.769   4.582   5.446  2.0489  1.2452  2.5001
16037SOL    HW256890  11.847   4.455   5.470  1.3367  0.2018 -0.2295
16038SOL     OW56891   3.189   1.607   2.833 -0.6926 -0.2083 -0.0974
16038SOL    HW156892   3.216   1.692   2.797 -0.0461 -0.1417  0.5191
16038SOL    HW256893   3.233   1.543   2.777 -0.5749 -0.1271 -0.0983
16039SOL     OW56894  10.384   0.730   2.761 -0.1679  0.0959  0.0066
16039SOL    HW156895  10.408   0.822   2.772 -0.7761  0.1521  0.9885
16039SOL    HW256896  10.354   0.703   2.848  0.4941 -1.1781 -0.1375
16040SOL     OW56897  11.601   3.125   5.048 -0.4329  0.1491 -0.4114
16040SOL    HW156898  11.589   3.202   5.103  0.5393  0.5643 -0.7523
16040SOL    HW256899  11.513   3.103   5.018 -0.7398  1.0409 -0.1989
16041SOL     OW56900   0.138  12.362   3.022  0.0776  0.0470  0.1943
16041SOL    HW156901   0.163  12.354   2.930  0.9118  0.5456  0.3757
16041SOL    HW256902   0.203  12.420   3.061  1.6108 -2.5479  1.8204
16042SOL     OW56903   9.710   2.923   5.495 -0.1065 -0.4707 -0.2504
16042SOL    HW156904   9.781   2.912   5.558 -0.8581  1.6385  1.0790
16042SOL    HW256905   9.702   3.018   5.484 -2.3571 -0.6541 -0.7403
16043SOL     OW56906   8.899   0.893   5.209 -0.5692  0.7945  0.6918
16043SOL    HW156907   8.974   0.912   5.153 -0.5620 -0.1513  0.3517
16043SOL    HW256908   8.855   0.977   5.221  0.9397  1.5009  1.4940
16044SOL     OW56909   6.243   6.927  11.974 -0.2066  0.0004 -0.0075
16044SOL    HW156910   6.148   6.938  11.974 -0.3386 -0.6359  2.7284
16044SOL    HW256911   6.265   6.911  11.882 -2.6036  1.0201 -0.8362
16045SOL     OW56912   1.868  10.371   9.962 -0.1463  0.5435 -0.4827
16045SOL    HW156913   1.902  10.451  10.001 -0.6720  0.3882  0.3247
16045SOL    HW256914   1.931  10.303   9.988 -0.5056  0.4372  0.1406
16046SOL     OW56915  10.534   6.768   4.298 -0.0988 -1.0342 -0.0723
16046SOL    HW156916  10.480   6.702   4.256 -0.5127 -0.1562 -0.9778
16046SOL    HW256917  10.558   6.730   4.383 -0.8201 -2.0774 -0.3198
16047SOL     OW56918   7.517   5.018   4.541 -0.2182 -0.1453  0.0762
16047SOL    HW156919   7.587   5.001   4.478 -0.8347 -1.0234 -0.4065
16047SOL    HW256920   7.471   5.094   4.505  0.9467  0.9227  0.8139
16048SOL     OW56921  11.951  10.724   3.839 -0.3405  0.3037  0.0533
16048SOL    HW156922  11.887  10.767   3.782 -0.2050  0.7233  0.2113
16048SOL    HW256923  12.004  10.670   3.781  0.7570  1.8762 -0.4493
16049SOL     OW56924   6.416   4.626  10.532 -0.3637 -0.2118 -0.0599
16049SOL    HW156925   6.491   4.567  10.525 -0.5688 -0.4521 -0.2938
16049SOL    HW256926   6.340   4.567  10.532 -0.5184 -0.0255  1.0415
16050SOL     OW56927   9.977   1.556   6.404 -0.5896  0.3861  0.6393
16050SOL    HW156928   9.944   1.644   6.388  4.0609  2.4421  0.9755
16050SOL    HW256929  10.005   1.525   6.318  0.3040  0.4056  0.9180
16051SOL     OW56930  10.288   4.544   4.192 -0.6136  0.1397  0.0199
16051SOL    HW156931  10.215   4.511   4.138  0.8658  0.0575 -2.0643
16051SOL    HW256932  10.286   4.639   4.180 -0.4170  0.1404 -0.0143
16052SOL     OW56933   4.424   8.884  12.363  0.1308 -0.1759 -0.0108
16052SOL    HW156934   4.345   8.900  12.415 -0.8963 -2.0441 -0.9053
16052SOL    HW256935   4.412   8.937  12.285 -1.8583 -2.7599 -1.6192
16053SOL     OW56936   9.715   7.005   0.164 -0.4470 -0.4147 -0.0248
16053SOL    HW156937   9.736   7.077   0.223  0.8242  0.7887 -1.8108
16053SOL    HW256938   9.761   7.028   0.083 -1.0163 -2.6481 -1.0370
16054SOL     OW56939  11.150   2.306   1.764 -0.1844  0.3908 -0.5032
16054SOL    HW156940  11.103   2.374   1.811 -2.9941 -2.2991  0.9558
16054SOL    HW256941  11.131   2.323   1.672 -2.3476  0.6363 -0.0646
16055SOL     OW56942  10.996   3.442   3.170  0.1692  0.1708  0.5993
16055SOL    HW156943  10.946   3.449   3.251 -1.9583  1.1156 -0.6988
16055SOL    HW256944  10.951   3.374   3.120  1.7577 -0.7562  0.3761
16056SOL     OW56945  10.886   6.971  10.755 -0.9476  0.1972 -0.2215
16056SOL    HW156946  10.963   7.012  10.795  0.6423 -2.8580  0.1647
16056SOL    HW256947  10.828   6.952  10.829 -0.1286 -1.1949  0.1147
16057SOL     OW56948   5.049  10.954   5.124  0.5360  0.3223 -0.2292
16057SOL    HW156949   5.054  10.918   5.036  0.1106 -0.5197  0.0692
16057SOL    HW256950   5.136  10.937   5.162  1.1492  1.8532 -0.8966
16058SOL     OW56951   7.653   8.826   8.424 -0.2423  0.1879 -0.2888
16058SOL    HW156952   7.681   8.893   8.487 -1.2051 -1.4765  2.0757
16058SOL    HW256953   7.569   8.796   8.457 -1.2331 -0.1848 -2.9567
16059SOL     OW56954   7.231   9.487   5.060  0.6542 -0.5412 -0.2941
16059SOL    HW156955   7.283   9.546   5.114  0.2010 -0.8362  0.4803
16059SOL    HW256956   7.147   9.480   5.107 -0.1988  0.1405 -1.6432
16060SOL     OW56957   7.022   0.484   6.269  0.1507  0.2536  0.1494
16060SOL    HW156958   6.982   0.427   6.334  2.0368 -0.0993  1.0633
16060SOL    HW256959   6.959   0.555   6.258 -0.2937  0.2837  2.3283
16061SOL     OW56960   0.281   8.827   2.497 -0.4539  1.2673  0.2652
16061SOL    HW156961   0.290   8.767   2.571  0.4633 -0.0749 -0.8800
16061SOL    HW256962   0.228   8.778   2.433 -0.2613  1.9430 -0.4251
16062SOL     OW56963   0.620   4.897  12.356 -0.0475 -0.0134 -0.4079
16062SOL    HW156964   0.707   4.884  12.319 -0.8249 -1.5512 -1.8409
16062SOL    HW256965   0.630   4.873  12.449  0.9072 -0.9211 -0.7162
16063SOL     OW56966   0.675   8.822   8.701  0.0719 -0.4631 -0.4082
16063SOL    HW156967   0.604   8.842   8.640 -2.5855 -2.0650  1.9344
16063SOL    HW256968   0.665   8.887   8.771  0.1860 -1.3755  0.4729
16064SOL     OW56969   3.982   9.650   0.890 -0.6011  0.1614  0.2440
16064SOL    HW156970   3.992   9.639   0.796 -1.5856  0.5198  0.0883
16064SOL    HW256971   3.959   9.742   0.902 -1.2418 -0.0564  0.7576
16065SOL     OW56972   4.138  10.759   5.689  0.1730  0.0795 -0.2138
16065SOL    HW156973   4.100  10.796   5.769  0.0016 -0.3784 -0.0813
16065SOL    HW256974   4.229  10.790   5.690  0.2832 -0.2424  0.3631
16066SOL     OW56975   5.366   5.408   1.619 -0.3273  0.0183 -0.3750
16066SOL    HW156976   5.416   5.487   1.637 -0.0861 -0.6401  2.1045
16066SOL    HW256977   5.303   5.402   1.691 -3.5573  0.3941 -2.9201
16067SOL     OW56978  12.093   6.741   4.567 -0.0749 -0.0106  0.2324
16067SOL    HW156979  12.132   6.656   4.589  1.5179  1.1233  2.1105
16067SOL    HW256980  11.999   6.726   4.573  0.1876 -1.5235  1.1043
16068SOL     OW56981   6.330  11.352  11.931 -0.4887  0.4590 -0.1256
16068SOL    HW156982   6.282  11.294  11.872 -1.5563  1.2622 -0.0892
16068SOL    HW256983   6.333  11.436  11.885  0.6253  0.5094  0.0175
16069SOL     OW56984   4.217   1.469   5.434 -0.2728  0.4268 -0.0793
16069SOL    HW156985   4.249   1.411   5.365 -1.1832  0.4522 -0.5368
16069SOL    HW256986   4.281   1.540   5.438  1.3623 -1.0229  1.1111
16070SOL     OW56987  10.685   0.850  11.625  0.2186  0.1782 -0.0828
16070SOL    HW156988  10.658   0.880  11.712 -1.4598 -0.2953 -0.3996
16070SOL    HW256989  10.623   0.780  11.604  1.9697 -1.2487 -0.7434
16071SOL     OW56990   4.673   1.330   8.469  0.4419 -0.4388  0.0084
16071SOL    HW156991   4.686   1.273   8.393  0.6067  1.5247 -1.5361
16071SOL    HW256992   4.583   1.314   8.496  0.4726 -1.3821 -0.4195
16072SOL     OW56993   3.928   0.310   4.351 -0.4576 -0.3964 -0.2133
16072SOL    HW156994   3.906   0.401   4.332 -2.7662 -0.6976  0.6682
16072SOL    HW256995   3.929   0.305   4.447  0.5305 -1.1140 -0.2495
16073SOL     OW56996   4.864   2.877   7.466  0.0660  0.0294 -0.3317
16073SOL    HW156997   4.876   2.848   7.556 -0.7899 -1.1015 -0.5594
16073SOL    HW256998   4.945   2.923   7.444  0.5490 -0.2620  0.7954
16074SOL     OW56999   8.004   1.770   4.183  0.1202 -0.3407  0.2655
16074SOL    HW157000   7.977   1.847   4.234 -0.2219 -0.1684 -0.1702
16074SOL    HW257001   8.084   1.798   4.139  1.2275 -0.9484  1.7911
16075SOL     OW57002   9.284  11.180   4.894  0.4985 -0.1671 -0.2306
16075SOL    HW157003   9.228  11.116   4.851  0.8687 -0.5673 -0.1340
16075SOL    HW257004   9.251  11.184   4.984  0.1333  0.1871 -0.3794
16076SOL     OW57005   2.857   1.203   7.134 -0.4314  0.0069  0.3855
16076SOL    HW157006   2.789   1.236   7.076 -0.1421 -0.6401 -0.3406
16076SOL    HW257007   2.840   1.246   7.218 -1.3013  0.3915  0.0259
16077SOL     OW57008   0.691  12.347   5.220 -0.4044 -0.3814 -0.0508
16077SOL    HW157009   0.665  12.265   5.264 -1.5961 -0.5962 -1.0729
16077SOL    HW257010   0.750  12.319   5.150 -1.4128 -0.5078 -0.8944
16078SOL     OW57011   1.516   9.997   5.125 -0.3674 -0.5413  0.2909
16078SOL    HW157012   1.604   9.996   5.164 -0.0383  2.3482 -0.1280
16078SOL    HW257013   1.521   9.936   5.052  1.7287  0.4744 -0.4941
16079SOL     OW57014   0.654  10.648   6.981 -0.0626 -0.4474  0.1963
16079SOL    HW157015   0.726  10.586   6.974 -0.6733 -1.1105 -0.3648
16079SOL    HW257016   0.595  10.608   7.045 -0.2628 -0.2467  0.1378
16080SOL     OW57017   0.026  12.174   7.481 -0.9169 -0.3397 -0.2460
16080SOL    HW157018  -0.020  12.102   7.524 -1.5757  0.3612  0.2577
16080SOL    HW257019  -0.022  12.252   7.509  0.0996  0.3394 -0.3639
16081SOL     OW57020   0.749   1.209   4.259 -0.2458 -0.0318  0.4907
16081SOL    HW157021   0.738   1.172   4.347  0.2838  1.6935  1.3213
16081SOL    HW257022   0.681   1.167   4.206 -1.4607 -0.1060  2.0482
16082SOL     OW57023   1.389   3.938   0.459 -0.2335 -0.0955 -0.7845
16082SOL    HW157024   1.428   3.875   0.521 -2.5714 -1.3207 -0.4364
16082SOL    HW257025   1.368   4.014   0.513  1.4406  0.5416 -0.9554
16083SOL     OW57026  11.462  10.670   1.415  0.6021  0.0645 -0.2667
16083SOL    HW157027  11.520  10.651   1.489  0.9316 -0.5145 -0.6685
16083SOL    HW257028  11.443  10.764   1.423  1.7344  0.3054 -0.2261
16084SOL     OW57029   3.537  10.347   9.339  0.5881  0.3811 -0.5868
16084SOL    HW157030   3.485  10.269   9.321 -0.7886  0.7238  1.4972
16084SOL    HW257031   3.628  10.319   9.327  0.2230 -1.9417  1.2876
16085SOL     OW57032  11.532   4.754  11.335 -0.2656  0.1210 -0.1121
16085SOL    HW157033  11.440   4.776  11.350 -0.2801  1.2706 -1.6182
16085SOL    HW257034  11.561   4.817  11.269  1.5788 -0.2939  0.2398
16086SOL     OW57035  11.331   2.872   5.886 -0.8516 -0.0211  0.7916
16086SOL    HW157036  11.262   2.869   5.820 -0.2567 -0.8389  0.1740
16086SOL    HW257037  11.406   2.830   5.843 -0.1249  0.3995  1.6188
16087SOL     OW57038   6.058   7.481   5.329 -0.0200  0.1062  0.0937
16087SOL    HW157039   5.994   7.525   5.274  0.1138  0.9205  0.5677
16087SOL    HW257040   6.070   7.541   5.404  0.5487 -0.4979  0.4939
16088SOL     OW57041  11.696   1.645   1.558 -0.1208 -0.2943  0.5919
16088SOL    HW157042  11.669   1.565   1.513  0.5151  0.3153 -0.9088
16088SOL    HW257043  11.747   1.693   1.494 -1.2515  1.7780  1.1831
16089SOL     OW57044   7.107   2.844  10.463  0.2655  0.1169  0.5254
16089SOL    HW157045   7.098   2.866  10.370  0.2727 -0.4542  0.3882
16089SOL    HW257046   7.130   2.751  10.464  1.3247  0.3619  1.0533
16090SOL     OW57047   6.684   9.690  10.216  0.2375  0.3421  0.0513
16090SOL    HW157048   6.710   9.650  10.299 -3.0912  1.0677  1.6367
16090SOL    HW257049   6.675   9.783  10.236  0.0187  0.6377 -1.3173
16091SOL     OW57050   2.000   0.480   2.792 -0.4717  0.0403 -0.3410
16091SOL    HW157051   1.937   0.439   2.732 -2.3028  3.5499 -1.0957
16091SOL    HW257052   2.071   0.508   2.735 -0.8151  0.7743 -0.4227
16092SOL     OW57053   0.472   5.179   6.763  0.0767  0.1920  0.3445
16092SOL    HW157054   0.417   5.173   6.841  0.3963  1.1570  0.6569
16092SOL    HW257055   0.458   5.268   6.731 -0.7168 -0.4565 -1.2130
16093SOL     OW57056  11.131   5.486   4.257  0.2476  0.6192  0.3352
16093SOL    HW157057  11.128   5.438   4.175  0.2963  0.2034  0.5727
16093SOL    HW257058  11.174   5.569   4.236  0.4450  0.4279 -0.0117
16094SOL     OW57059   9.568   7.722   2.905 -0.0200  0.4941  0.2181
16094SOL    HW157060   9.603   7.697   2.819  0.6246 -0.5014  0.7533
16094SOL    HW257061   9.479   7.685   2.906  0.9162 -1.9196  0.9985
16095SOL     OW57062  11.752   6.539  10.443 -0.5929  0.5362 -0.5790
16095SOL    HW157063  11.805   6.614  10.472  0.7479 -0.3373 -0.6457
16095SOL    HW257064  11.663   6.560  10.471 -1.0397  3.7982 -3.6602
16096SOL     OW57065   0.907   3.125   4.993  0.7396  0.0390  0.4759
16096SOL    HW157066   0.866   3.127   5.079  0.4970 -0.1079  0.3670
16096SOL    HW257067   0.931   3.033   4.979  0.3139 -0.0351  0.1795
16097SOL     OW57068  12.439   8.299   2.831  0.2378  0.0482  0.4870
16097SOL    HW157069  12.368   8.363   2.833 -0.0703 -0.3008  1.1016
16097SOL    HW257070  12.428   8.255   2.747 -1.1232 -0.9105  1.1264
16098SOL     OW57071   8.475   8.821  10.618  0.2090  0.6108  0.1506
16098SOL    HW157072   8.383   8.806  10.641 -0.3058  2.5358 -0.4869
16098SOL    HW257073   8.487   8.915  10.626  1.7240  0.5824 -1.2671
16099SOL     OW57074   4.985  10.444   2.546 -0.0929 -0.2099 -0.2225
16099SOL    HW157075   4.971  10.350   2.554 -2.6120  0.1017 -0.1911
16099SOL    HW257076   4.958  10.480   2.631 -0.6303  0.6534 -0.7389
16100SOL     OW57077   0.061   5.722   9.364 -0.3442 -0.2224  0.1811
16100SOL    HW157078   0.132   5.767   9.409 -1.3465  2.1490 -0.4634
16100SOL    HW257079  -0.004   5.705   9.433 -1.4851  2.6005 -0.0808
16101SOL     OW57080   9.543   6.286   1.330  0.7806 -0.4440  0.3126
16101SOL    HW157081   9.484   6.258   1.260  1.2719 -0.8494  0.0512
16101SOL    HW257082   9.496   6.266   1.411  0.4520 -0.5125  0.1073
16102SOL     OW57083   9.647   1.356   9.342  0.1366 -0.1217 -0.1532
16102SOL    HW157084   9.690   1.368   9.257  1.2822 -0.7182  0.3314
16102SOL    HW257085   9.619   1.444   9.367  0.2372  0.1337 -0.9046
16103SOL     OW57086   9.643   9.084   1.850 -0.4483  0.0054 -0.3504
16103SOL    HW157087   9.617   8.993   1.836  1.1062 -0.6878  0.9754
16103SOL    HW257088   9.738   9.084   1.839  0.1928  0.5494  3.7250
16104SOL     OW57089   6.279   4.233  10.741 -0.0176 -0.3051 -0.2200
16104SOL    HW157090   6.185   4.248  10.746  0.4728  3.8230  0.5134
16104SOL    HW257091   6.303   4.207  10.830 -0.1464  2.2147  0.6396
16105SOL     OW57092   5.175   2.070   4.254  0.3081 -0.2171  0.1005
16105SOL    HW157093   5.165   2.158   4.218  0.1972 -0.7795 -1.2875
16105SOL    HW257094   5.094   2.054   4.302 -0.7519 -0.4896 -1.7259
16106SOL     OW57095  10.341   6.130   0.533 -0.2517 -0.5013  0.2519
16106SOL    HW157096  10.417   6.171   0.575 -0.2529  0.5660 -0.7391
16106SOL    HW257097  10.375   6.048   0.498  0.0735 -0.7501  1.1209
16107SOL     OW57098  10.514   7.083   1.759 -0.1873  0.0647 -0.1050
16107SOL    HW157099  10.431   7.104   1.802 -0.4278  0.1087 -0.5815
16107SOL    HW257100  10.500   6.995   1.722 -0.5890  0.6902 -1.5347
16108SOL     OW57101   9.944   0.911   0.439  0.3250  0.1255 -0.3169
16108SOL    HW157102  10.010   0.855   0.479  0.0108 -0.3729 -0.4951
16108SOL    HW257103   9.885   0.933   0.510 -0.1420 -0.6278 -0.4628
16109SOL     OW57104  12.232  10.963   0.439  0.3434  0.6410  0.4229
16109SOL    HW157105  12.288  10.906   0.492  0.5072  0.4630  0.0628
16109SOL    HW257106  12.260  11.052   0.461  0.8380  0.5518  0.1821
16110SOL     OW57107   8.751   2.310   1.876 -0.3870  0.0822  0.0302
16110SOL    HW157108   8.772   2.348   1.791 -0.2809  1.0371  0.4616
16110SOL    HW257109   8.706   2.381   1.923  0.3112 -0.1242  1.0632
16111SOL     OW57110   2.604  10.813   8.612 -0.3435  0.6899 -0.1231
16111SOL    HW157111   2.678  10.826   8.671 -0.0390  0.1938 -0.3832
16111SOL    HW257112   2.573  10.901   8.593 -0.5037  0.8523  0.8388
16112SOL     OW57113   4.216   4.872   1.918  1.0851 -1.0659 -0.3430
16112SOL    HW157114   4.220   4.926   1.839  0.5060 -1.0827 -0.3876
16112SOL    HW257115   4.304   4.836   1.927  1.2638 -0.7378 -0.7518
16113SOL     OW57116   6.678   2.926   5.816  0.0600 -0.3413  0.0755
16113SOL    HW157117   6.684   2.837   5.851  2.1112 -0.4472 -0.4150
16113SOL    HW257118   6.678   2.982   5.894 -3.3639 -0.7192  0.5189
16114SOL     OW57119  11.733   9.527   3.298 -0.4030  0.0787  0.2363
16114SOL    HW157120  11.778   9.500   3.377  3.0983  1.8167 -0.9402
16114SOL    HW257121  11.765   9.468   3.230  0.6699  1.7016 -0.7419
16115SOL     OW57122   5.529  10.073   1.705  0.4386 -0.2879  0.0481
16115SOL    HW157123   5.519   9.999   1.645 -0.8551 -1.3278  1.4785
16115SOL    HW257124   5.457  10.132   1.684  1.0387  0.2387 -0.5934
16116SOL     OW57125  12.576   3.640   6.951  0.1072 -0.1976  0.3357
16116SOL    HW157126  12.532   3.609   6.872 -0.0701 -1.5711  0.9506
16116SOL    HW257127  12.505   3.676   7.006 -0.1739 -1.6863  0.9876
16117SOL     OW57128  10.940  10.239   1.792  0.3867 -0.2382  0.2816
16117SOL    HW157129  10.859  10.231   1.742 -0.0557 -0.6387  1.0329
16117SOL    HW257130  10.954  10.333   1.801 -0.0060 -0.1664  0.1606
16118SOL     OW57131   6.209   6.821   8.094  0.3090  0.1514 -0.6421
16118SOL    HW157132   6.293   6.851   8.058 -0.4249  0.9290 -1.7502
16118SOL    HW257133   6.154   6.899   8.094  0.3308  0.3186  2.5126
16119SOL     OW57134  11.682   5.305   9.250  0.1252  0.7821 -0.1049
16119SOL    HW157135  11.637   5.300   9.165  0.8635 -2.4607 -0.4250
16119SOL    HW257136  11.705   5.398   9.259 -2.9651  1.8706 -1.7983
16120SOL     OW57137   0.354  10.787   4.108  0.8257  0.1675  0.0748
16120SOL    HW157138   0.414  10.841   4.159  1.5531  0.0178 -0.6121
16120SOL    HW257139   0.403  10.707   4.091 -0.1781 -0.6692  0.9461
16121SOL     OW57140   1.735   7.494   0.782  0.0841  0.3625  0.2479
16121SOL    HW157141   1.799   7.548   0.737  1.2730 -2.1587 -1.2907
16121SOL    HW257142   1.678   7.461   0.713 -1.4825  0.7039  1.3182
16122SOL     OW57143   3.915  12.469  12.506 -0.9147 -0.2871 -0.0057
16122SOL    HW157144   3.953  12.543  12.458 -2.0556  0.5582  0.3341
16122SOL    HW257145   3.990  12.425  12.546 -0.0805 -0.1565 -1.3616
16123SOL     OW57146   2.235   0.582  11.436 -0.2046  0.6287 -0.0516
16123SOL    HW157147   2.303   0.615  11.376 -0.3203  1.7080  0.3854
16123SOL    HW257148   2.280   0.575  11.520 -0.0170 -0.9763 -0.2577
16124SOL     OW57149   8.168   9.949   3.520 -0.3299  0.2494 -0.1204
16124SOL    HW157150   8.260   9.974   3.521 -0.6189  1.3870  0.2337
16124SOL    HW257151   8.126  10.010   3.581 -1.4341  0.2960 -0.8909
16125SOL     OW57152   4.840   8.974   9.500  0.1888  0.0779 -0.0674
16125SOL    HW157153   4.915   8.949   9.447  0.2046  1.0569 -0.5405
16125SOL    HW257154   4.830   8.903   9.564  0.5103 -0.8487 -1.0233
16126SOL     OW57155   8.071   6.092   7.082 -0.4742 -0.1020 -0.5972
16126SOL    HW157156   7.998   6.088   7.020  0.3144  2.7789 -1.8773
16126SOL    HW257157   8.149   6.090   7.028  0.2589  1.3553  0.3419
16127SOL     OW57158   1.719   4.189   8.425  0.5525 -0.6087 -0.1850
16127SOL    HW157159   1.676   4.172   8.509  0.2037 -0.8370 -0.4080
16127SOL    HW257160   1.757   4.105   8.399  0.3402 -0.6291 -0.4354
16128SOL     OW57161   6.491   7.572   6.898 -0.4145 -0.0473 -0.4157
16128SOL    HW157162   6.545   7.500   6.864  0.4733  0.9790 -1.2244
16128SOL    HW257163   6.456   7.538   6.980  2.2602 -0.4415  0.6609
16129SOL     OW57164   2.983  11.298  10.176  0.2077  0.3880 -0.1773
16129SOL    HW157165   3.036  11.362  10.127 -1.7783  0.9815 -1.6630
16129SOL    HW257166   2.903  11.289  10.125  0.0462 -2.7140  0.4374
16130SOL     OW57167   5.690   2.297   1.882 -0.5291 -0.1245 -0.5355
16130SOL    HW157168   5.759   2.322   1.943 -1.2787  0.3508  0.1281
16130SOL    HW257169   5.711   2.345   1.801 -0.3146  0.3487 -0.2041
16131SOL     OW57170   8.044   6.615   2.466  0.0692 -0.0412  0.1138
16131SOL    HW157171   7.982   6.546   2.446 -0.3905  0.7717 -1.4995
16131SOL    HW257172   7.994   6.679   2.516  0.7465 -1.2531  2.4677
16132SOL     OW57173   0.803   1.393   7.153 -0.0620 -0.1905  0.2997
16132SOL    HW157174   0.823   1.459   7.219 -1.3698  0.0081  0.5319
16132SOL    HW257175   0.770   1.318   7.203  0.5523 -0.6839 -0.0214
16133SOL     OW57176   4.503   4.610   2.614  0.4986  0.5763 -0.5488
16133SOL    HW157177   4.585   4.659   2.608  0.6409  0.7761  1.8753
16133SOL    HW257178   4.529   4.522   2.639  0.0196  0.4739 -0.3901
16134SOL     OW57179  11.635   2.529   4.597  0.2700 -0.0209  0.1641
16134SOL    HW157180  11.564   2.530   4.533  0.8717 -1.1226 -0.5600
16134SOL    HW257181  11.604   2.472   4.667 -0.4913  1.3816  1.0188
16135SOL     OW57182  10.942   0.291   0.343  0.0121  0.5421  0.5503
16135SOL    HW157183  10.903   0.297   0.431 -0.6512  1.9921  0.1816
16135SOL    HW257184  10.933   0.199   0.320 -0.2590  0.2270  1.8002
16136SOL     OW57185   2.614   5.499  10.987 -0.3474  0.2646 -0.1169
16136SOL    HW157186   2.687   5.499  10.926  0.5961 -0.2175  0.9778
16136SOL    HW257187   2.609   5.408  11.019 -0.8142  0.5052  0.5234
16137SOL     OW57188   6.358   1.501   1.174  0.3354  0.1935 -0.5971
16137SOL    HW157189   6.348   1.481   1.081  0.1805 -0.4982 -0.4315
16137SOL    HW257190   6.448   1.535   1.181  1.4405 -2.4598 -0.5601
16138SOL     OW57191   6.476   3.720   8.643 -0.5282 -0.1573  0.4060
16138SOL    HW157192   6.549   3.692   8.698  1.4050  0.2041 -1.8117
16138SOL    HW257193   6.464   3.813   8.664  2.0086  0.7078 -1.5414
16139SOL     OW57194  10.932   2.257   6.965 -0.1547 -0.5612 -0.2817
16139SOL    HW157195  10.992   2.183   6.968 -1.4012 -1.5824 -0.0211
16139SOL    HW257196  10.971   2.316   6.900  1.6960 -0.6635  0.6734
16140SOL     OW57197   3.657   8.555  10.458  0.1953 -0.5155  0.1431
16140SOL    HW157198   3.583   8.574  10.516  1.5289 -1.9995  2.5198
16140SOL    HW257199   3.628   8.480  10.406 -0.5515 -0.0055 -0.1981
16141SOL     OW57200   9.110   1.841   6.232  0.1478 -0.2752  0.5402
16141SOL    HW157201   9.197   1.822   6.195  0.5461  3.5990 -0.9225
16141SOL    HW257202   9.129   1.876   6.319  0.1243  0.6270  0.1980
16142SOL     OW57203   3.791   2.286   5.609  0.1193  0.7335  0.2422
16142SOL    HW157204   3.851   2.326   5.545  0.5126  1.7643  1.2260
16142SOL    HW257205   3.793   2.193   5.588  2.5165  0.6400  0.5770
16143SOL     OW57206   0.555   0.539  11.414 -0.3444 -0.1318 -0.4238
16143SOL    HW157207   0.605   0.609  11.371 -2.0991  1.1604 -0.5131
16143SOL    HW257208   0.540   0.572  11.502  1.0489 -1.6265  0.4136
16144SOL     OW57209   3.394   8.447   1.936  0.1832 -0.2165 -0.2846
16144SOL    HW157210   3.409   8.396   1.857 -0.6761  1.1107 -1.3643
16144SOL    HW257211   3.465   8.512   1.936 -1.0020  1.1535 -1.1961
16145SOL     OW57212   8.252  10.323   3.801  0.0796 -0.4817 -0.3510
16145SOL    HW157213   8.214  10.299   3.886 -1.7969 -0.9064 -1.2574
16145SOL    HW257214   8.285  10.412   3.814  1.2774 -1.1045  1.2345
16146SOL     OW57215   9.678   9.964   0.615  0.4539  0.2664  0.1612
16146SOL    HW157216   9.594   9.918   0.609  1.2390 -1.0635 -1.6975
16146SOL    HW257217   9.706   9.949   0.705 -1.2279  0.6450  0.7859
16147SOL     OW57218   4.640   0.045   0.182  0.1505  0.0134  0.6192
16147SOL    HW157219   4.731   0.075   0.180 -0.3529  1.5763 -1.2769
16147SOL    HW257220   4.603   0.085   0.260  1.3379 -1.6042  2.0952
16148SOL     OW57221   4.499   9.908   9.153  0.4723  0.3767  0.5676
16148SOL    HW157222   4.477   9.999   9.170 -1.5035 -0.1905  1.2451
16148SOL    HW257223   4.457   9.859   9.224  0.8765 -1.1365 -0.1976
16149SOL     OW57224  11.774  10.180  12.034  0.3895  0.5274  0.4123
16149SOL    HW157225  11.711  10.159  11.965 -0.1888 -0.0728  1.1183
16149SOL    HW257226  11.721  10.197  12.112  1.1030 -0.3417  1.1053
16150SOL     OW57227   0.002   6.531   6.182  0.1012  0.4054 -0.0166
16150SOL    HW157228  -0.015   6.454   6.129  0.6604  1.7752 -2.3418
16150SOL    HW257229   0.032   6.597   6.120 -0.7293  2.6373  1.7905
16151SOL     OW57230   9.740   6.404   3.840  0.2483 -0.3603  0.3152
16151SOL    HW157231   9.799   6.472   3.808 -0.1614 -0.1603 -0.0194
16151SOL    HW257232   9.699   6.441   3.918  0.5613 -0.5019  0.5517
16152SOL     OW57233   4.239   9.949  10.395  0.0426  0.5048 -0.1724
16152SOL    HW157234   4.243   9.858  10.423  2.5037  0.0792 -1.5528
16152SOL    HW257235   4.178   9.948  10.321  2.0936 -0.6939 -1.9866
16153SOL     OW57236   1.336   6.106  12.180 -0.3121 -0.2865  0.0501
16153SOL    HW157237   1.321   6.046  12.253  0.4147 -0.0811  0.3792
16153SOL    HW257238   1.253   6.152  12.169 -0.1935  0.2538  1.2698
16154SOL     OW57239   7.915   1.294   5.233  0.3351  0.8153 -0.4916
16154SOL    HW157240   7.917   1.234   5.158 -0.3970  0.3226 -0.1307
16154SOL    HW257241   7.870   1.371   5.201 -0.4940  0.3744 -0.4073
16155SOL     OW57242   2.862   3.057   3.907 -0.0148 -0.3718  0.0028
16155SOL    HW157243   2.904   2.990   3.854  0.3502 -1.0914  1.1735
16155SOL    HW257244   2.804   3.009   3.967 -0.3160  0.4043  0.3612
16156SOL     OW57245  10.333   3.648   9.554 -0.4039  0.3654 -0.1637
16156SOL    HW157246  10.320   3.694   9.637 -1.0384 -1.0447  0.5577
16156SOL    HW257247  10.262   3.680   9.498 -1.0122  0.0745  0.4244
16157SOL     OW57248   4.048   8.845  10.973  0.0247 -0.1219  0.0388
16157SOL    HW157249   4.030   8.875  10.884  0.2994  1.6653  0.5305
16157SOL    HW257250   4.030   8.922  11.028 -1.0298 -1.4437  1.6452
16158SOL     OW57251   2.412   7.149   4.942 -0.5144  0.4005 -0.0584
16158SOL    HW157252   2.468   7.210   4.990  1.2453 -1.0188 -0.1971
16158SOL    HW257253   2.423   7.065   4.987 -0.5218 -0.4706 -1.6031
16159SOL     OW57254   3.301   5.254   7.206  0.3187  0.0346  0.6870
16159SOL    HW157255   3.335   5.247   7.117  2.7733  0.4594  1.5133
16159SOL    HW257256   3.333   5.175   7.250 -1.2205 -0.3763  1.1087
16160SOL     OW57257   2.883   1.696   0.667  0.2075 -0.2630 -0.1270
16160SOL    HW157258   2.855   1.612   0.632 -0.9886 -0.2377  0.7189
16160SOL    HW257259   2.835   1.761   0.614  0.9771 -0.1117 -0.6492
16161SOL     OW57260   2.418   8.010   6.990 -0.2614 -0.4038  0.4596
16161SOL    HW157261   2.450   8.088   6.944 -0.9700  0.1828  0.9380
16161SOL    HW257262   2.483   7.943   6.972  0.3184  0.2805 -0.0321
16162SOL     OW57263   5.101   2.702   5.795 -0.4200 -0.3873 -0.1163
16162SOL    HW157264   5.152   2.641   5.741 -0.2060  0.1069 -0.4781
16162SOL    HW257265   5.027   2.650   5.827  0.0796 -0.9916  0.0620
16163SOL     OW57266   4.406   8.661   2.777 -0.1412 -0.2183 -0.3030
16163SOL    HW157267   4.409   8.731   2.842  0.7127 -0.7528  0.2591
16163SOL    HW257268   4.474   8.684   2.714 -0.0283 -0.4141 -0.2525
16164SOL     OW57269   1.963  10.145  10.270 -0.1335 -0.3737 -0.1287
16164SOL    HW157270   1.926  10.071  10.319 -0.1701  0.7771  1.6587
16164SOL    HW257271   1.889  10.204  10.257  0.2171  0.0618 -0.1647
16165SOL     OW57272   6.982   9.361   0.173  0.3871 -0.3779  0.1250
16165SOL    HW157273   7.045   9.290   0.188  0.3745 -0.6307 -0.9674
16165SOL    HW257274   6.965   9.396   0.261  1.0484 -1.1597  0.5843
16166SOL     OW57275   9.012   9.573   0.638 -0.3527 -0.1097 -0.5471
16166SOL    HW157276   8.917   9.563   0.630 -0.3855 -1.2033  0.8860
16166SOL    HW257277   9.043   9.487   0.664  1.0154  0.3085 -0.7332
16167SOL     OW57278  11.365   1.682   0.018  0.2613  0.2251 -0.2709
16167SOL    HW157279  11.365   1.708   0.110  1.6706 -0.3256 -0.0810
16167SOL    HW257280  11.303   1.741  -0.025 -1.0789 -0.0686  1.1677
16168SOL     OW57281   2.982   4.185  10.858  0.0615 -0.4800 -0.2714
16168SOL    HW157282   2.984   4.266  10.909  1.5786  0.0986 -1.1738
16168SOL    HW257283   2.920   4.201  10.788  1.1845  0.3649 -1.1113
16169SOL     OW57284  11.964   1.727   9.395  0.6621  0.3935  0.4527
16169SOL    HW157285  11.953   1.789   9.323  1.1475 -1.2423 -1.1191
16169SOL    HW257286  11.953   1.641   9.354 -0.2794 -0.5816  2.5913
16170SOL     OW57287   3.230   8.254   0.156 -0.0385 -0.3530 -0.1024
16170SOL    HW157288   3.230   8.347   0.135 -0.3747 -0.7532 -2.0101
16170SOL    HW257289   3.151   8.220   0.113  0.6715 -1.7129 -0.3790
16171SOL     OW57290   4.012   9.743   9.872  0.5156  0.5009 -0.8554
16171SOL    HW157291   3.993   9.835   9.858 -1.3611  0.1710 -0.7081
16171SOL    HW257292   4.089   9.742   9.929  0.7226  1.9419 -1.0836
16172SOL     OW57293   3.704   9.715   3.440 -0.3217 -0.0460  0.0381
16172SOL    HW157294   3.668   9.780   3.500 -0.8326  1.0792 -1.4224
16172SOL    HW257295   3.651   9.724   3.361 -0.1382 -1.9849 -0.3435
16173SOL     OW57296   5.113   1.715   8.686  0.8262 -0.3130 -0.0108
16173SOL    HW157297   5.202   1.707   8.722  0.7787  1.3481  0.5793
16173SOL    HW257298   5.075   1.789   8.734 -0.8902 -0.9966 -0.2557
16174SOL     OW57299   6.212   7.330  12.499 -0.0293 -0.0084  0.4902
16174SOL    HW157300   6.193   7.342  12.406  2.0163 -0.0312  0.0397
16174SOL    HW257301   6.184   7.240  12.518 -0.7298  0.0978 -0.0065
16175SOL     OW57302  11.750   0.806  12.488  0.0046  0.4390  0.4948
16175SOL    HW157303  11.816   0.842  12.428 -0.9093  0.4116 -0.5413
16175SOL    HW257304  11.728   0.720  12.451 -0.5524  0.4130  0.8826
16176SOL     OW57305   6.459   5.542   5.289  0.0922 -0.1230 -0.3801
16176SOL    HW157306   6.493   5.458   5.318  0.4429  0.1905  0.1171
16176SOL    HW257307   6.509   5.607   5.337 -2.0062  0.3479  1.3552
16177SOL     OW57308   0.963   5.447   6.006 -0.0777  0.3912  0.2173
16177SOL    HW157309   0.982   5.359   6.039 -0.5988 -0.9489 -2.7456
16177SOL    HW257310   1.047   5.493   6.012  0.6670 -0.9053  0.1574
16178SOL     OW57311   6.425   1.036  11.011 -0.1085  0.4315 -0.2030
16178SOL    HW157312   6.385   1.033  11.098  1.3653 -1.4970  0.4730
16178SOL    HW257313   6.494   1.102  11.018 -1.7560  2.3590 -0.8226
16179SOL     OW57314  10.912   9.525  11.293 -0.4749  0.3353 -0.0270
16179SOL    HW157315  10.857   9.481  11.229  0.0853 -1.1626  0.4582
16179SOL    HW257316  10.878   9.614  11.298 -4.1212 -0.9913  1.6851
16180SOL     OW57317   7.166   3.783   5.512 -0.1480  0.2457 -0.1141
16180SOL    HW157318   7.240   3.730   5.481 -0.1857 -0.3705  0.7852
16180SOL    HW257319   7.089   3.741   5.474 -0.1261  0.0448  0.0575
16181SOL     OW57320   9.110  11.966   0.546 -0.3904  0.0341  0.1459
16181SOL    HW157321   9.070  12.021   0.479  1.6012 -1.1338 -2.1742
16181SOL    HW257322   9.166  12.026   0.597 -0.2363  0.5890 -0.6634
16182SOL     OW57323  10.990   3.286   7.112  0.8859 -0.3000  0.4372
16182SOL    HW157324  11.057   3.342   7.152  1.9707 -1.0020 -0.3317
16182SOL    HW257325  11.030   3.258   7.030 -0.2765 -0.9327  0.0830
16183SOL     OW57326   1.880   1.152   0.034  0.0323 -0.2674  0.1009
16183SOL    HW157327   1.870   1.098  -0.045  0.4351  1.2134 -1.0116
16183SOL    HW257328   1.963   1.123   0.072 -0.2550 -1.1240  0.0906
16184SOL     OW57329  11.758   1.957   5.376  0.2353 -0.2034  0.4143
16184SOL    HW157330  11.679   2.010   5.390 -1.1867 -1.6634 -1.4758
16184SOL    HW257331  11.751   1.888   5.442 -0.3928 -0.6131 -0.0571
16185SOL     OW57332   9.671   4.834   0.239 -0.3753  0.2674 -0.2701
16185SOL    HW157333   9.648   4.754   0.191 -0.6099  0.8293 -1.1216
16185SOL    HW257334   9.729   4.804   0.309 -0.3687 -0.6323 -0.6424
16186SOL     OW57335  10.841  11.761   3.664 -0.4740 -0.0293  0.9521
16186SOL    HW157336  10.822  11.703   3.590  1.9877 -0.7938  0.8362
16186SOL    HW257337  10.830  11.706   3.741  0.6944 -0.3574  0.9055
16187SOL     OW57338  11.612   3.179  10.746 -0.4607 -0.0701  0.4308
16187SOL    HW157339  11.602   3.117  10.673 -0.3084  0.3551  0.0446
16187SOL    HW257340  11.543   3.243  10.733  1.8933  2.2892 -1.6584
16188SOL     OW57341   5.259   9.517  12.365  0.3918 -0.1332  0.0783
16188SOL    HW157342   5.259   9.570  12.444 -2.0492  0.9457 -0.5589
16188SOL    HW257343   5.294   9.575  12.297 -1.6710  0.5485 -0.4833
16189SOL     OW57344   0.261   0.830   0.660 -0.1402 -0.4692  0.3806
16189SOL    HW157345   0.194   0.899   0.659 -0.5400 -0.8537  0.1601
16189SOL    HW257346   0.288   0.824   0.751 -1.2480 -1.1058  0.6866
16190SOL     OW57347   9.123  11.050   0.815 -0.1124 -0.0462  0.2237
16190SOL    HW157348   9.108  11.047   0.910  0.9690 -0.5204  0.3951
16190SOL    HW257349   9.137  11.143   0.796  0.7497 -0.0686  0.7174
16191SOL     OW57350   4.522   0.416  12.383  0.0114  0.4525  0.2424
16191SOL    HW157351   4.571   0.367  12.449  0.3401  0.7411  0.2119
16191SOL    HW257352   4.475   0.348  12.334  0.4784  0.1638  0.1872
16192SOL     OW57353   1.485   8.415   8.593 -0.4351 -0.3886 -0.1540
16192SOL    HW157354   1.425   8.388   8.663  0.1289 -2.4687 -0.4088
16192SOL    HW257355   1.502   8.335   8.544 -0.4314  0.9113 -2.4095
16193SOL     OW57356  10.194   7.718   2.755 -0.2411 -0.2205  0.2730
16193SOL    HW157357  10.128   7.664   2.798 -1.4596  0.5267 -0.5969
16193SOL    HW257358  10.267   7.722   2.818 -0.8454 -1.3787  1.0838
16194SOL     OW57359   8.117   1.280   2.775  1.4746 -0.5492  0.1149
16194SOL    HW157360   8.190   1.239   2.821  2.7024  1.0544 -0.3251
16194SOL    HW257361   8.152   1.303   2.689  0.6139  0.6947  0.0762
16195SOL     OW57362   0.361   6.614   4.994 -0.2381  0.3906  0.2681
16195SOL    HW157363   0.401   6.648   4.914  0.3128  0.3895  0.5425
16195SOL    HW257364   0.348   6.691   5.050 -0.5343  0.3775  0.2227
16196SOL     OW57365  10.337   3.386   4.095 -0.6720  0.5468  0.0052
16196SOL    HW157366  10.411   3.437   4.061  1.2161 -1.5500  0.7142
16196SOL    HW257367  10.329   3.313   4.035 -1.1939 -0.0520  0.7874
16197SOL     OW57368   1.913   5.431  10.394  0.3207 -0.9936 -0.3781
16197SOL    HW157369   1.855   5.477  10.333  0.5452 -2.0440 -1.4195
16197SOL    HW257370   1.853   5.389  10.456  0.0106 -1.0607 -0.7136
16198SOL     OW57371   8.571   9.359   3.201 -0.4245 -0.1888  0.0655
16198SOL    HW157372   8.647   9.337   3.256  0.5617 -1.9881 -1.8840
16198SOL    HW257373   8.553   9.279   3.152 -2.1752  0.9042 -1.1665
16199SOL     OW57374   9.448   1.814  10.810  0.5864 -0.4117  0.1064
16199SOL    HW157375   9.462   1.908  10.797  0.0024 -0.5165 -1.4895
16199SOL    HW257376   9.358   1.799  10.782  0.0799 -1.1800  2.0112
16200SOL     OW57377   0.018   1.386  12.120  0.3045 -0.2777  0.3698
16200SOL    HW157378   0.051   1.465  12.162  0.2541  1.1939 -2.1496
16200SOL    HW257379   0.086   1.362  12.057 -0.3403 -1.3760  0.0681
16201SOL     OW57380   7.961  12.244   8.169  0.0576  0.4121 -0.1973
16201SOL    HW157381   7.913  12.163   8.183 -0.7624  0.6941 -1.1920
16201SOL    HW257382   7.929  12.303   8.237  2.9006 -0.9416  2.5528
16202SOL     OW57383   4.753   8.292  10.782 -0.6517 -0.0269  0.4547
16202SOL    HW157384   4.709   8.239  10.848  0.9881 -1.1826  0.6942
16202SOL    HW257385   4.761   8.234  10.706 -0.9923  0.7134 -0.1568
16203SOL     OW57386   6.793   0.468   1.419 -0.5271 -0.0077  0.0645
16203SOL    HW157387   6.849   0.432   1.487 -0.6517  0.6359  0.5043
16203SOL    HW257388   6.838   0.547   1.389 -0.2165 -0.5514 -0.9620
16204SOL     OW57389   2.182   0.535  10.342  0.1992 -0.6106 -0.0369
16204SOL    HW157390   2.093   0.557  10.371  0.3476  0.5953 -0.4276
16204SOL    HW257391   2.236   0.604  10.380  0.6715 -0.1307 -1.5289
16205SOL     OW57392  11.935   0.945  12.359 -0.2140 -0.4492 -0.0561
16205SOL    HW157393  11.916   1.036  12.384  1.1373 -0.1421 -0.0725
16205SOL    HW257394  12.028   0.934  12.378 -0.0114 -1.3704 -1.4312
16206SOL     OW57395   6.480   9.638   1.819 -0.2271  0.8696 -0.4285
16206SOL    HW157396   6.517   9.580   1.753 -0.2169  1.2121 -0.7272
16206SOL    HW257397   6.394   9.601   1.839  1.1750 -1.4187  2.1072
16207SOL     OW57398   4.660   1.615   5.083 -0.3693 -0.0362  0.3811
16207SOL    HW157399   4.681   1.641   4.993  0.5429 -0.5415  0.4419
16207SOL    HW257400   4.618   1.692   5.121 -0.5902  0.2503 -0.4120
16208SOL     OW57401   7.791   5.786   4.964 -0.2569  0.1296  0.3035
16208SOL    HW157402   7.746   5.828   4.891 -0.9272  0.7968  1.0853
16208SOL    HW257403   7.860   5.734   4.923 -1.2866 -0.3579 -0.8718
16209SOL     OW57404   5.295   5.128   5.720  0.0836 -0.4882  0.5042
16209SOL    HW157405   5.273   5.215   5.753  0.4301  0.2031 -1.0034
16209SOL    HW257406   5.375   5.104   5.768  1.2577  1.0051 -0.6164
16210SOL     OW57407   4.690   1.698  12.505 -0.2585  0.2444  0.3255
16210SOL    HW157408   4.774   1.696  12.460 -0.8281 -0.2331 -0.7752
16210SOL    HW257409   4.636   1.756  12.451 -1.5419 -1.8353 -0.7622
16211SOL     OW57410   7.830   6.740   2.627 -0.1743 -0.6179  0.6943
16211SOL    HW157411   7.801   6.814   2.574  1.5421  0.2517  0.8918
16211SOL    HW257412   7.766   6.671   2.609 -0.7333  0.2822 -0.9883
16212SOL     OW57413   2.487   0.691   8.750 -0.2971  0.3099 -0.2277
16212SOL    HW157414   2.567   0.737   8.777 -0.4116  0.5025 -0.2188
16212SOL    HW257415   2.474   0.624   8.817 -0.5692  0.7708  0.1799
16213SOL     OW57416   6.894   9.147   7.863  0.1633  0.0846  0.4482
16213SOL    HW157417   6.868   9.234   7.891 -0.4967  0.1446 -0.3079
16213SOL    HW257418   6.988   9.143   7.879  0.6087  1.6864 -1.4094
16214SOL     OW57419   1.442  11.317   2.793 -0.3744 -0.7576 -0.0670
16214SOL    HW157420   1.431  11.246   2.856 -1.1329  0.1956  0.9107
16214SOL    HW257421   1.505  11.376   2.835 -0.0525 -0.6507 -0.6921
16215SOL     OW57422   5.612   1.770   5.213 -0.4752  0.2894  0.0011
16215SOL    HW157423   5.668   1.698   5.241 -1.7894 -0.6513  0.2402
16215SOL    HW257424   5.622   1.772   5.117  0.9593  0.9948  0.1258
16216SOL     OW57425  10.439   7.354   4.617  0.2081  0.3828  0.0514
16216SOL    HW157426  10.372   7.356   4.684 -0.8455 -0.0523 -0.9583
16216SOL    HW257427  10.490   7.434   4.632  0.1733  0.1490  1.5171
16217SOL     OW57428   5.060   7.583   3.175 -0.3854 -0.0684 -0.3665
16217SOL    HW157429   5.084   7.651   3.111  1.8289 -0.2194  0.2407
16217SOL    HW257430   5.105   7.505   3.144  1.4097  0.0411  1.7451
16218SOL     OW57431   8.702  10.343  12.604 -0.0469 -0.2057 -0.3834
16218SOL    HW157432   8.762  10.314  12.673  0.8123 -1.0546 -1.4467
16218SOL    HW257433   8.704  10.438  12.608  0.7996 -0.2351  0.0881
16219SOL     OW57434   0.656   7.584   8.052  0.0334 -0.4250 -0.2487
16219SOL    HW157435   0.650   7.614   7.962  2.7692 -1.2451 -0.7771
16219SOL    HW257436   0.747   7.597   8.077 -0.0769 -2.4526  1.5694
16220SOL     OW57437   5.550   2.794   7.979 -0.5501  0.5711 -0.0167
16220SOL    HW157438   5.590   2.863   7.925 -0.5689  1.5100  1.1137
16220SOL    HW257439   5.616   2.776   8.047 -0.5450 -0.5429 -0.2982
16221SOL     OW57440   6.700   6.796   0.402 -0.0757 -0.0297 -0.1075
16221SOL    HW157441   6.662   6.777   0.487  0.5336  0.2359  0.2280
16221SOL    HW257442   6.671   6.886   0.382 -0.1402 -0.0578 -0.1426
16222SOL     OW57443   7.122   4.129   3.656 -0.7045 -0.1031  0.1254
16222SOL    HW157444   7.207   4.158   3.622 -0.2419 -3.0360 -1.6907
16222SOL    HW257445   7.118   4.163   3.745  2.4741  0.0357  0.3394
16223SOL     OW57446   7.794   1.526  10.873 -0.2568  0.0289 -0.0786
16223SOL    HW157447   7.730   1.457  10.894 -0.7008  0.5587  0.3650
16223SOL    HW257448   7.743   1.607  10.877 -0.0698  0.2922 -1.9663
16224SOL     OW57449   3.971   8.970  10.731  0.5821  0.2562 -0.0183
16224SOL    HW157450   3.898   9.032  10.740 -0.4087 -0.5443 -1.9648
16224SOL    HW257451   3.983   8.962  10.636  1.7687 -1.2937  0.2396
16225SOL     OW57452  12.095   8.569   2.085 -0.2587  0.1614  0.2085
16225SOL    HW157453  12.046   8.579   2.166 -1.5833 -0.2688 -0.5095
16225SOL    HW257454  12.041   8.612   2.019  0.7669  0.4496 -0.4643
16226SOL     OW57455   4.674  11.837   8.026  0.0495 -0.4141  0.2292
16226SOL    HW157456   4.766  11.817   8.046 -0.4086 -1.7870  1.0955
16226SOL    HW257457   4.678  11.890   7.946  1.5631 -1.1120 -0.1955
16227SOL     OW57458   7.985   4.983   6.657 -0.2804  0.7877  0.1682
16227SOL    HW157459   8.032   4.990   6.740 -0.6309  0.4462  0.3996
16227SOL    HW257460   7.893   4.994   6.680 -0.3641  0.8635 -0.1986
16228SOL     OW57461   8.068  12.086   3.026  0.0567  0.3226 -0.4787
16228SOL    HW157462   7.986  12.128   3.052  2.0850  2.8587  2.4893
16228SOL    HW257463   8.091  12.128   2.944  0.3161  2.6783  0.7166
16229SOL     OW57464   5.534   6.069   8.340  0.1330  0.6230  0.3372
16229SOL    HW157465   5.448   6.031   8.359  0.0711 -1.1658 -2.7457
16229SOL    HW257466   5.586   5.996   8.307  2.4523  1.9248  0.8712
16230SOL     OW57467   0.020   7.244   0.399 -0.2743 -0.0162  0.5545
16230SOL    HW157468   0.115   7.234   0.391 -0.5341 -2.1481 -0.4283
16230SOL    HW257469  -0.008   7.167   0.448 -1.5699  0.3153  0.3597
16231SOL     OW57470   2.847   7.455   7.848  0.0001  0.2534 -0.1029
16231SOL    HW157471   2.763   7.500   7.859 -0.7960 -0.8716 -1.2924
16231SOL    HW257472   2.833   7.396   7.774  1.0275 -1.8793  1.3025
16232SOL     OW57473   6.220  11.492  12.490  0.1641 -0.5240  0.1668
16232SOL    HW157474   6.299  11.535  12.459  0.5706 -1.5132 -0.1998
16232SOL    HW257475   6.200  11.535  12.573  0.5288  0.3899 -0.2118
16233SOL     OW57476   6.189   1.884   6.849  0.2118 -0.2435  0.0725
16233SOL    HW157477   6.152   1.967   6.820 -0.6152 -1.1296 -1.5773
16233SOL    HW257478   6.145   1.865   6.931 -0.8027  0.1958 -0.3549
16234SOL     OW57479   9.486  11.654   6.279  0.1250  0.2802  0.1162
16234SOL    HW157480   9.500  11.733   6.332  1.7745 -0.2721  0.5331
16234SOL    HW257481   9.509  11.582   6.337  0.0194 -0.4406 -0.7297
16235SOL     OW57482   1.052   1.620   3.864  0.0040 -0.0891 -0.3135
16235SOL    HW157483   1.004   1.660   3.791  0.3726  0.6601 -0.1645
16235SOL    HW257484   1.143   1.615   3.833  0.1494  0.1693  0.0651
16236SOL     OW57485   2.089   4.836  11.910 -0.4128 -0.2099  0.3520
16236SOL    HW157486   2.109   4.747  11.883 -0.7806 -0.3789  0.6202
16236SOL    HW257487   2.174   4.874  11.934 -0.3618 -0.8175  1.1874
16237SOL     OW57488   3.325   4.462   4.953 -0.3161 -0.1995 -0.2877
16237SOL    HW157489   3.327   4.377   4.909 -1.1586  0.2240 -1.1920
16237SOL    HW257490   3.280   4.520   4.891  1.9948  1.4185 -0.5576
16238SOL     OW57491   4.490   6.236   0.577 -0.0796  0.4383 -0.3809
16238SOL    HW157492   4.441   6.315   0.601  0.3516  0.5131  0.2849
16238SOL    HW257493   4.540   6.214   0.655 -0.4844 -0.7305 -0.4245
16239SOL     OW57494   2.278   7.363   2.726 -0.0830  0.3061  0.7070
16239SOL    HW157495   2.308   7.430   2.787 -0.1972  0.5496  0.4917
16239SOL    HW257496   2.249   7.411   2.649 -0.5884  0.0383  0.7284
16240SOL     OW57497   5.429   9.284   6.055 -0.3477 -0.1140 -0.1006
16240SOL    HW157498   5.409   9.267   5.963  0.2179 -1.1949 -0.0359
16240SOL    HW257499   5.385   9.367   6.074  0.1760  0.5337 -1.5624
16241SOL     OW57500   6.648  10.019   1.615 -0.5531  0.2649  0.1982
16241SOL    HW157501   6.594  10.093   1.588 -0.5645  0.7495  1.4657
16241SOL    HW257502   6.633   9.952   1.548 -1.8029  0.8174 -0.1047
16242SOL     OW57503   0.736   7.862   9.491  0.2729 -0.4105 -0.3759
16242SOL    HW157504   0.805   7.917   9.455  0.4076 -0.7885 -0.7100
16242SOL    HW257505   0.656   7.914   9.483  0.4780 -0.0648 -0.2054
16243SOL     OW57506   9.680   7.253  12.526  0.4634  0.6965 -0.3972
16243SOL    HW157507   9.591   7.288  12.531 -0.5940 -1.9277  0.9408
16243SOL    HW257508   9.736   7.330  12.540 -1.6282  2.1486  0.6141
16244SOL     OW57509  11.641  12.508   1.744  0.0662  0.0005  0.5779
16244SOL    HW157510  11.677  12.426   1.711 -0.9007 -0.1575 -0.1098
16244SOL    HW257511  11.717  12.554   1.780  0.7810 -0.7641  0.0993
16245SOL     OW57512   6.355   2.383   7.124 -0.3180 -0.5117 -0.2711
16245SOL    HW157513   6.393   2.459   7.167 -1.9328  0.1765 -0.0081
16245SOL    HW257514   6.427   2.319   7.122  0.8352  0.7159  0.1990
16246SOL     OW57515   3.404   3.223  11.543 -0.2153  0.2103  0.5242
16246SOL    HW157516   3.488   3.191  11.510 -0.4809  0.2854 -0.2448
16246SOL    HW257517   3.339   3.171  11.496 -0.6524  1.6881 -0.5671
16247SOL     OW57518   6.607   2.202  11.282  0.0366 -0.2436 -0.5180
16247SOL    HW157519   6.513   2.208  11.267 -0.0547 -0.3690 -0.0292
16247SOL    HW257520   6.632   2.117  11.245  0.3561  0.6945 -2.5830
16248SOL     OW57521   0.772   3.185  12.439 -0.3133  0.5643  0.7011
16248SOL    HW157522   0.858   3.163  12.475 -0.0981  0.7361  0.3040
16248SOL    HW257523   0.724   3.103  12.439 -0.5489  0.6821  1.9835
16249SOL     OW57524   2.845  10.602   7.984 -0.0853 -0.2801 -0.5270
16249SOL    HW157525   2.884  10.621   8.069  0.3816 -0.3328 -0.7267
16249SOL    HW257526   2.892  10.524   7.954 -1.6993 -1.5864  0.1239
16250SOL     OW57527   3.771   4.253   2.395  0.1464 -0.1019  0.0193
16250SOL    HW157528   3.852   4.255   2.343  0.4039  0.9280  0.4340
16250SOL    HW257529   3.786   4.185   2.460 -0.5174 -2.0256 -1.7501
16251SOL     OW57530   2.252   9.940   6.721 -0.1643 -0.1156  0.1917
16251SOL    HW157531   2.179   9.992   6.687  0.1871 -0.1042 -0.5750
16251SOL    HW257532   2.214   9.888   6.792 -0.7931  0.2812  0.1536
16252SOL     OW57533  11.050   4.414   0.591 -0.0184  0.1908 -0.4509
16252SOL    HW157534  11.128   4.366   0.619  0.1454  1.5771  1.6482
16252SOL    HW257535  11.073   4.449   0.505  0.0793 -2.8477 -1.8109
16253SOL     OW57536   4.589   7.972   8.466 -0.2299  0.0727 -0.1254
16253SOL    HW157537   4.684   7.960   8.470 -0.0805  1.0601 -0.3583
16253SOL    HW257538   4.573   8.006   8.378 -1.0868 -2.2947 -0.9554
16254SOL     OW57539   9.903   2.998   7.709  0.8798 -0.1900  0.0561
16254SOL    HW157540   9.941   2.911   7.696 -2.8287 -1.8823 -0.8889
16254SOL    HW257541   9.875   2.998   7.801 -0.9858 -0.9190 -0.4741
16255SOL     OW57542   4.601   8.327   9.818 -0.1079  0.8117  0.7728
16255SOL    HW157543   4.540   8.269   9.864 -0.9293 -0.3317 -1.5813
16255SOL    HW257544   4.552   8.358   9.742  2.1598 -0.1589 -1.2305
16256SOL     OW57545   7.002   9.786   4.514 -0.5173  0.5279  0.0253
16256SOL    HW157546   6.943   9.853   4.481 -0.9837  0.6156  0.9986
16256SOL    HW257547   7.037   9.823   4.595  1.2158  0.6620 -0.7471
16257SOL     OW57548   1.797   6.510  10.444  0.4021  0.2644 -0.2550
16257SOL    HW157549   1.780   6.601  10.419 -1.4475  0.4559  1.4246
16257SOL    HW257550   1.840   6.517  10.530 -0.4997 -0.4324  0.2682
16258SOL     OW57551   1.716  11.828   3.918 -0.3168  0.1365 -0.0341
16258SOL    HW157552   1.693  11.919   3.937  0.9595  0.4601  0.0177
16258SOL    HW257553   1.663  11.806   3.841 -0.1614  1.1362 -0.4476
16259SOL     OW57554   9.068   2.753   0.724 -0.8269  0.2952  0.0147
16259SOL    HW157555   9.128   2.770   0.651  0.2532  2.7253  1.3298
16259SOL    HW257556   8.995   2.812   0.710 -1.6059 -0.6803 -0.1278
16260SOL     OW57557   4.867   1.292   4.197 -0.3961 -0.2795 -0.8535
16260SOL    HW157558   4.918   1.363   4.158 -0.8058 -0.2963 -1.4384
16260SOL    HW257559   4.925   1.253   4.261 -0.7317  1.7068  0.7656
16261SOL     OW57560  12.115   3.867   0.014 -0.1813 -0.4886  0.5034
16261SOL    HW157561  12.046   3.933   0.025  0.0759 -0.1986  0.3914
16261SOL    HW257562  12.093   3.821  -0.067 -0.8470 -1.1337  1.0337
16262SOL     OW57563   1.686   3.710  12.331  0.2096 -0.0255  0.0381
16262SOL    HW157564   1.591   3.698  12.331  0.2629 -0.5907  1.1281
16262SOL    HW257565   1.715   3.667  12.411  1.8132 -2.9438 -1.9723
16263SOL     OW57566   9.471   5.737   6.647 -0.2493 -0.3094  0.5090
16263SOL    HW157567   9.433   5.824   6.634 -1.2409 -0.7869  0.1523
16263SOL    HW257568   9.535   5.728   6.576 -1.4202 -0.5594 -0.5481
16264SOL     OW57569   1.549   9.010  12.294  0.2749  0.1427  0.6267
16264SOL    HW157570   1.519   9.059  12.370 -2.7203  0.0734 -0.3773
16264SOL    HW257571   1.569   9.078  12.228  1.7379  0.1574  1.0540
16265SOL     OW57572   3.950   6.744  10.609 -0.0945  0.3645 -0.2697
16265SOL    HW157573   4.036   6.785  10.620 -0.8359  1.8151  0.4686
16265SOL    HW257574   3.895   6.787  10.674 -1.7298  0.4978 -1.6656
16266SOL     OW57575  10.473   2.656  10.431 -0.2775  0.3613 -0.1968
16266SOL    HW157576  10.568   2.642  10.436 -0.2106  0.7029 -0.4429
16266SOL    HW257577  10.462   2.717  10.358 -0.6397  0.7647  0.1916
16267SOL     OW57578  12.020   2.058  12.265 -0.0688  0.0146 -0.3216
16267SOL    HW157579  11.984   2.099  12.187 -0.0541  0.0782 -0.2951
16267SOL    HW257580  11.943   2.031  12.316 -0.0841  0.4383 -0.1147
16268SOL     OW57581   5.031   2.587   9.941  0.8761 -0.3393 -0.2811
16268SOL    HW157582   4.979   2.661   9.912  1.2982 -0.1757 -0.6333
16268SOL    HW257583   4.967   2.520   9.966  0.4927 -0.6053 -1.8869
16269SOL     OW57584   6.614   1.999   6.109 -0.1248 -0.4768 -0.0386
16269SOL    HW157585   6.553   1.933   6.139  0.2886 -1.9642 -2.2187
16269SOL    HW257586   6.699   1.955   6.108  0.2888  0.3018 -0.8307
16270SOL     OW57587   0.276   8.360   8.942 -1.0408 -0.0497  0.4694
16270SOL    HW157588   0.335   8.293   8.908 -0.9112 -0.3899  1.3401
16270SOL    HW257589   0.326   8.442   8.935 -0.7416 -0.2279  0.5177
16271SOL     OW57590   1.366   7.312   7.735 -0.1069 -0.3770 -0.1217
16271SOL    HW157591   1.304   7.259   7.786 -0.2174  0.5223  0.6942
16271SOL    HW257592   1.424   7.351   7.801 -0.7797  1.4923 -0.5971
16272SOL     OW57593   3.295   9.270   6.401 -0.0445  0.7830 -0.1943
16272SOL    HW157594   3.322   9.265   6.493 -0.0829  1.1924 -0.1603
16272SOL    HW257595   3.287   9.178   6.374  0.7825  0.6446 -0.0251
16273SOL     OW57596   5.923   9.278  12.300 -0.5294  0.6766  0.1917
16273SOL    HW157597   5.896   9.347  12.361 -0.0960  1.4699 -0.4830
16273SOL    HW257598   6.004   9.312  12.262 -0.3142 -0.2164 -0.1583
16274SOL     OW57599   2.482   6.284   5.692  0.3619  0.9511 -0.1865
16274SOL    HW157600   2.486   6.209   5.753  1.4444  0.2871 -1.0435
16274SOL    HW257601   2.430   6.349   5.739 -1.9327 -0.8620  0.0217
16275SOL     OW57602  11.126   0.112   4.406  0.2139  0.1098 -0.3931
16275SOL    HW157603  11.179   0.037   4.434  0.1663 -0.1601 -0.9992
16275SOL    HW257604  11.038   0.076   4.395 -0.1013  0.5579  0.6088
16276SOL     OW57605   0.334  10.138   1.713 -0.0696 -0.1003 -0.4031
16276SOL    HW157606   0.355  10.228   1.689 -0.4679  0.0915 -0.0530
16276SOL    HW257607   0.283  10.146   1.793 -0.3901 -0.6224 -0.5495
16277SOL     OW57608   6.657   7.252  12.353 -0.0261 -0.4804 -0.7802
16277SOL    HW157609   6.739   7.203  12.340 -0.1147 -0.6767 -0.6138
16277SOL    HW257610   6.646   7.301  12.272 -0.5960 -1.7172 -1.4865
16278SOL     OW57611  10.375   5.447  10.595 -0.2447 -0.8551 -0.0625
16278SOL    HW157612  10.399   5.395  10.519 -0.0302 -0.5918 -0.1734
16278SOL    HW257613  10.299   5.498  10.567 -0.0488 -0.6166 -0.1588
16279SOL     OW57614   9.144   3.181   0.202  0.1830  0.1148  0.4844
16279SOL    HW157615   9.207   3.220   0.262  2.2657 -0.1060 -1.4419
16279SOL    HW257616   9.093   3.255   0.169  0.3802  0.4893  1.0120
16280SOL     OW57617   0.081  11.146   1.060  0.0440 -0.0534  0.2411
16280SOL    HW157618   0.007  11.197   1.027  0.3315 -0.0632 -0.4514
16280SOL    HW257619   0.090  11.173   1.151  0.4014  1.3985 -0.1951
16281SOL     OW57620   1.961   6.098   9.146  0.1801  0.2041  0.4526
16281SOL    HW157621   1.880   6.134   9.110 -0.3142 -0.8384  0.4922
16281SOL    HW257622   2.028   6.163   9.123 -0.7592  1.4371  1.0340
16282SOL     OW57623   0.761   5.731  11.407 -0.5580 -0.1158  0.0891
16282SOL    HW157624   0.826   5.684  11.460  0.1041 -0.8267 -1.3070
16282SOL    HW257625   0.693   5.666  11.391  0.0121 -0.4112 -1.2416
16283SOL     OW57626   2.340   0.769   3.289  0.3270 -0.5899 -0.4165
16283SOL    HW157627   2.365   0.789   3.199  1.7159 -1.0033 -0.1451
16283SOL    HW257628   2.386   0.833   3.342  0.0590 -0.7739  0.0423
16284SOL     OW57629   9.485   1.620   7.630  0.2236 -0.1390 -0.2055
16284SOL    HW157630   9.529   1.705   7.625  1.2756 -0.7353 -3.4823
16284SOL    HW257631   9.400   1.639   7.669  1.0438  2.1131  0.6571
16285SOL     OW57632  10.409  12.138  12.332  0.2784 -0.2070 -0.0664
16285SOL    HW157633  10.327  12.173  12.296  0.8831  1.4370  0.0520
16285SOL    HW257634  10.382  12.084  12.406 -0.7971 -1.1676 -1.1184
16286SOL     OW57635  11.461  10.297   9.260  0.1328  0.0636 -0.1182
16286SOL    HW157636  11.420  10.212   9.245 -0.1886  0.1547  0.2116
16286SOL    HW257637  11.431  10.351   9.187 -1.2059  0.4305  0.6544
16287SOL     OW57638   5.589   6.983  10.046  0.7950 -0.3471  0.2623
16287SOL    HW157639   5.521   7.040  10.082 -0.4994 -2.5271  1.4701
16287SOL    HW257640   5.542   6.909  10.010  2.4730 -1.3867  0.1066
16288SOL     OW57641   5.612   9.558   1.519  0.0974  0.5346 -0.3304
16288SOL    HW157642   5.649   9.576   1.606 -0.7419 -0.1891  0.2082
16288SOL    HW257643   5.678   9.588   1.457  0.7888  0.9117  0.5684
16289SOL     OW57644   3.000   0.162   3.419 -0.4530  0.4178 -0.0375
16289SOL    HW157645   3.030   0.253   3.413  0.8348 -0.0685 -2.4887
16289SOL    HW257646   2.927   0.157   3.358  1.1783 -0.7128 -2.0227
16290SOL     OW57647   9.349  12.303   0.323  0.3569  0.0750 -0.8226
16290SOL    HW157648   9.356  12.329   0.231 -1.6975 -1.2118 -1.4134
16290SOL    HW257649   9.438  12.277   0.347  0.6319 -1.2205 -2.9877
16291SOL     OW57650   4.947   7.887   2.420 -0.0094  0.3787  0.3767
16291SOL    HW157651   4.923   7.827   2.349  1.4606 -1.0545  1.0208
16291SOL    HW257652   4.863   7.923   2.450 -0.6646  1.4328 -2.3448
16292SOL     OW57653   9.902   6.237   9.838  0.5221  0.0079  0.0616
16292SOL    HW157654   9.940   6.152   9.820  1.8007  0.6534 -0.4289
16292SOL    HW257655   9.814   6.233   9.800  1.2653 -0.4551 -1.7246
16293SOL     OW57656   5.639   6.560  11.983 -0.4520 -0.5421 -0.2418
16293SOL    HW157657   5.726   6.598  11.967 -1.0593  0.7540 -0.6104
16293SOL    HW257658   5.597   6.557  11.897 -1.5393  0.8652  0.2003
16294SOL     OW57659   4.017   4.470   1.326  0.0048 -0.7865  0.8326
16294SOL    HW157660   4.065   4.443   1.404  0.8154 -3.3790 -0.4473
16294SOL    HW257661   3.964   4.394   1.303  0.1175 -0.2648 -1.3675
16295SOL     OW57662   9.909  12.544   0.994 -0.2797 -0.0653 -0.3184
16295SOL    HW157663   9.821  12.566   1.023 -0.5429 -0.3804 -0.8674
16295SOL    HW257664   9.954  12.628   0.986  0.1359  0.0058  1.9726
16296SOL     OW57665   3.039   5.305   7.123 -0.5700  0.2289  0.3216
16296SOL    HW157666   3.132   5.296   7.144 -0.5358  1.8881  1.0614
16296SOL    HW257667   2.994   5.245   7.182  0.0408 -1.1169 -0.5243
16297SOL     OW57668   4.960   3.956  11.993  0.0323 -0.2780 -0.9014
16297SOL    HW157669   4.883   4.012  11.999 -0.6271 -1.2576  0.1326
16297SOL    HW257670   5.032   4.010  12.026 -1.1435 -0.9839  3.4621
16298SOL     OW57671   6.696   8.125  12.050  0.0064  0.5629 -0.1140
16298SOL    HW157672   6.776   8.168  12.018  0.1356  0.4580  0.0727
16298SOL    HW257673   6.626   8.170  12.003  0.0167  2.0650  1.2332
16299SOL     OW57674   6.905  11.023   1.404  0.1697  0.0053  0.1555
16299SOL    HW157675   6.875  10.932   1.406  0.9192 -0.2837 -0.9873
16299SOL    HW257676   6.830  11.073   1.371 -0.3412 -0.1430  1.0675
16300SOL     OW57677   8.634   1.348  10.396 -0.0800 -0.1103 -0.0301
16300SOL    HW157678   8.573   1.403  10.445  1.0286  3.0824 -1.9286
16300SOL    HW257679   8.713   1.345  10.451 -0.1400  0.2631  0.0818
16301SOL     OW57680   4.261   1.959   6.115 -0.1099 -0.0142  0.0458
16301SOL    HW157681   4.308   2.035   6.148 -0.0706 -0.3331  0.7357
16301SOL    HW257682   4.193   1.941   6.180  0.0433 -0.7159  0.0277
16302SOL     OW57683  11.091   4.385   3.255  0.5521 -0.1327  0.5669
16302SOL    HW157684  11.070   4.388   3.349  0.5503  0.5576  0.5546
16302SOL    HW257685  11.026   4.443   3.215 -0.5903 -1.8190 -0.1024
16303SOL     OW57686   4.915   4.135   8.994 -0.2982  0.6848 -0.0834
16303SOL    HW157687   5.008   4.150   9.011 -0.0308  0.3728 -1.2037
16303SOL    HW257688   4.903   4.159   8.902 -1.3066  0.6276  0.0259
16304SOL     OW57689  11.283   4.383   9.186 -0.0047  0.5701  0.1029
16304SOL    HW157690  11.369   4.425   9.193 -0.4355  1.5118 -0.1256
16304SOL    HW257691  11.298   4.308   9.129  0.8127  0.3092  0.6364
16305SOL     OW57692   2.462  12.071   5.073  0.0981  0.2167  0.2877
16305SOL    HW157693   2.509  11.988   5.083  0.8098  0.5573 -0.1809
16305SOL    HW257694   2.440  12.075   4.980  0.0192  0.5232  0.3201
16306SOL     OW57695   5.657  11.691  10.955 -0.1022 -0.2003 -0.2579
16306SOL    HW157696   5.633  11.619  11.013 -1.5767  0.5031  0.0468
16306SOL    HW257697   5.682  11.762  11.015 -0.8148  0.2543 -0.4895
16307SOL     OW57698   4.299   5.408  10.047  0.0175  0.2991 -0.0652
16307SOL    HW157699   4.313   5.452  10.131  1.5982 -0.3432  0.0463
16307SOL    HW257700   4.364   5.338  10.046 -0.7883 -0.4636 -1.3148
16308SOL     OW57701  12.281  12.413   8.250 -0.0021 -0.3484 -0.4191
16308SOL    HW157702  12.291  12.508   8.261  3.0677 -0.7963  1.9542
16308SOL    HW257703  12.339  12.390   8.178 -1.0308 -0.4565 -1.2485
16309SOL     OW57704  12.260  10.486   0.626  0.2063  0.1662  0.2891
16309SOL    HW157705  12.171  10.508   0.654  0.1375 -1.5406  1.5445
16309SOL    HW257706  12.292  10.425   0.692  1.5176 -0.9486 -1.2901
16310SOL     OW57707  10.388   0.583  12.554 -0.3073  0.5242  0.0035
16310SOL    HW157708  10.314   0.525  12.534 -0.5420  0.7201  0.3048
16310SOL    HW257709  10.464   0.525  12.554 -0.6750  0.0162  1.3670
16311SOL     OW57710  11.529   4.358   5.334  0.6411  0.7264 -0.2952
16311SOL    HW157711  11.524   4.265   5.315  0.4051  0.4606  0.9486
16311SOL    HW257712  11.617   4.384   5.305  1.8985 -0.5652  1.9790
16312SOL     OW57713   5.346   7.419  12.433 -0.3777 -0.3560 -0.8663
16312SOL    HW157714   5.375   7.475  12.506 -0.7761 -1.4200  0.1364
16312SOL    HW257715   5.421   7.419  12.373 -0.1794  0.8381 -0.6453
16313SOL     OW57716   6.451   1.831   5.897 -0.1016  0.1732 -0.1026
16313SOL    HW157717   6.425   1.740   5.910 -1.8076  0.6700  0.2075
16313SOL    HW257718   6.546   1.828   5.891 -0.1828 -1.7545 -1.2185
16314SOL     OW57719   8.816   1.934   3.324  0.4071 -0.0089 -0.1763
16314SOL    HW157720   8.809   2.015   3.273  0.4358  0.3290  0.3399
16314SOL    HW257721   8.746   1.878   3.292  0.3183  0.2658 -0.4662
16315SOL     OW57722   2.836   6.435   6.266 -0.6125  0.1607  0.1238
16315SOL    HW157723   2.928   6.444   6.243 -0.1021 -1.2870  1.4351
16315SOL    HW257724   2.828   6.475   6.353 -1.5489  1.5111 -0.5369
16316SOL     OW57725  10.802   6.849   5.733 -0.2083 -0.1891 -0.7005
16316SOL    HW157726  10.710   6.845   5.710  0.2931 -1.4259 -2.7196
16316SOL    HW257727  10.821   6.763   5.773 -0.0800  0.3498  0.4493
16317SOL     OW57728   9.735  11.697   6.425  0.3363  0.1702  0.6368
16317SOL    HW157729   9.706  11.783   6.396  1.5438  1.1184  2.1112
16317SOL    HW257730   9.706  11.691   6.516  0.8231 -0.7145  0.7482
16318SOL     OW57731  11.766   9.678   3.679  0.0381 -0.1735 -0.4429
16318SOL    HW157732  11.771   9.599   3.626 -1.2325  0.6499 -1.8757
16318SOL    HW257733  11.759   9.749   3.615  0.3434  1.0357  0.8199
16319SOL     OW57734   3.046   5.737   5.733  0.0089 -0.0555 -0.6402
16319SOL    HW157735   3.037   5.651   5.692  0.7233  0.0257 -0.9770
16319SOL    HW257736   3.123   5.775   5.692 -0.5156  0.8994 -0.7590
16320SOL     OW57737   7.104   2.761   9.222  0.1758 -0.4415 -0.0419
16320SOL    HW157738   7.043   2.704   9.176  0.2797  0.3889 -1.2526
16320SOL    HW257739   7.163   2.794   9.154  1.3397 -0.4165  0.9363
16321SOL     OW57740   2.101   9.525   2.389  0.2303  0.0561 -0.2485
16321SOL    HW157741   2.069   9.604   2.346  0.5512 -0.7799 -2.1195
16321SOL    HW257742   2.181   9.503   2.341  0.3650 -1.1842  0.5044
16322SOL     OW57743   1.258   9.640  12.230 -0.4031  0.5707 -0.2466
16322SOL    HW157744   1.212   9.703  12.285  0.0521  0.7168 -0.0330
16322SOL    HW257745   1.300   9.693  12.163 -0.6132  0.4289 -0.4934
16323SOL     OW57746  11.037  11.900   2.792  0.5165 -0.0175 -0.0070
16323SOL    HW157747  11.010  11.965   2.727  2.1286 -1.2907 -2.0888
16323SOL    HW257748  11.128  11.922   2.811 -0.4119  1.5350  3.5059
16324SOL     OW57749   0.630  10.561   0.320 -0.3583  0.2060  0.5890
16324SOL    HW157750   0.673  10.640   0.286  1.6858 -0.8856  0.4475
16324SOL    HW257751   0.637  10.498   0.249 -0.2917 -0.6606  1.3511
16325SOL     OW57752   2.742  12.504   3.092  0.0983 -0.0724  0.0970
16325SOL    HW157753   2.675  12.507   3.024 -2.0882  1.5632  2.1608
16325SOL    HW257754   2.733  12.418   3.132 -1.7175  0.5342  1.1283
16326SOL     OW57755   5.717   9.996  11.538  0.1031 -0.2623 -0.2874
16326SOL    HW157756   5.638   9.969  11.492  0.9538  0.3538 -2.1878
16326SOL    HW257757   5.788   9.948  11.496  0.8716 -0.1101  0.7733
16327SOL     OW57758   3.778   0.701   9.006 -0.1446 -0.5127 -0.2035
16327SOL    HW157759   3.842   0.746   9.060 -1.4830 -0.4077  1.3796
16327SOL    HW257760   3.766   0.616   9.050 -0.7139 -0.7251 -0.7603
16328SOL     OW57761   1.696   2.419  11.449 -0.0553  0.5263  0.0811
16328SOL    HW157762   1.719   2.446  11.538  0.1782 -2.2805  0.9913
16328SOL    HW257763   1.632   2.349  11.461  0.4241 -0.3242 -1.9121
16329SOL     OW57764   4.567   4.819  11.270 -0.1274  0.4896  0.5031
16329SOL    HW157765   4.542   4.729  11.291  0.5301  0.3709  0.7964
16329SOL    HW257766   4.574   4.820  11.175  2.5289 -0.5195  0.5982
16330SOL     OW57767   8.875   4.079   5.113  0.2976  0.1855 -0.3394
16330SOL    HW157768   8.905   4.099   5.025  0.7685 -1.7603 -0.6605
16330SOL    HW257769   8.938   4.016   5.147 -0.1822  0.4834  1.1940
16331SOL     OW57770   6.415  12.606   7.748 -0.4560 -0.5516  0.1878
16331SOL    HW157771   6.432  12.675   7.684  0.1756 -1.8618 -1.0895
16331SOL    HW257772   6.323  12.583   7.734 -0.7053  0.0889  0.7045
16332SOL     OW57773   3.987  11.776   1.833 -0.0794  0.3183 -0.6373
16332SOL    HW157774   4.024  11.789   1.921  1.4636 -3.3050 -0.5756
16332SOL    HW257775   4.064  11.770   1.776 -1.0010  0.7792 -1.9608
16333SOL     OW57776   1.570   2.218  11.068  0.0757  0.2914 -0.2646
16333SOL    HW157777   1.538   2.179  11.150 -0.5905  0.3460 -0.4900
16333SOL    HW257778   1.494   2.265  11.033  0.0488 -0.5726 -1.4364
16334SOL     OW57779   9.521   0.476   5.844  0.1678 -0.4221  0.1722
16334SOL    HW157780   9.428   0.496   5.856 -0.2272 -1.0700 -1.6155
16334SOL    HW257781   9.526   0.427   5.762  1.9981 -1.1465  0.6548
16335SOL     OW57782   4.555   9.118   2.836  0.1561  0.2656  0.3186
16335SOL    HW157783   4.641   9.122   2.794  1.3150  1.3168  2.5991
16335SOL    HW257784   4.574   9.092   2.926 -1.8420  1.2438  1.0809
16336SOL     OW57785   9.719   2.728  11.598 -0.1356 -0.1978  0.2775
16336SOL    HW157786   9.717   2.779  11.679  0.0718  1.0986 -0.5038
16336SOL    HW257787   9.788   2.663  11.612 -0.3909 -0.2522  1.2946
16337SOL     OW57788   0.960   8.941   0.820 -0.3946 -0.4042  0.0039
16337SOL    HW157789   1.042   8.982   0.791 -0.1388 -0.1506  1.0702
16337SOL    HW257790   0.912   8.925   0.738  0.1175  0.7101 -0.5455
16338SOL     OW57791   8.123   1.755   3.230 -0.6623 -0.0408 -0.0156
16338SOL    HW157792   8.162   1.766   3.143  0.6906 -0.2430  0.5352
16338SOL    HW257793   8.056   1.823   3.235  2.2735  3.0957  0.4219
16339SOL     OW57794  10.637   6.894  12.502  0.7131  0.7162  0.3856
16339SOL    HW157795  10.648   6.803  12.477 -0.3356  0.5040  0.6485
16339SOL    HW257796  10.714   6.938  12.467  1.0264 -0.1937 -0.0996
16340SOL     OW57797  11.339   1.655   5.959 -0.0994 -0.2640 -0.6139
16340SOL    HW157798  11.397   1.729   5.977 -0.5908 -0.0065 -0.0916
16340SOL    HW257799  11.390   1.578   5.985  0.3181 -0.1028 -0.9313
16341SOL     OW57800  12.536   7.611  10.458  0.3046  0.1562 -0.0112
16341SOL    HW157801  12.624   7.620  10.493  0.3202 -0.3044  0.0749
16341SOL    HW257802  12.478   7.634  10.531  0.3360  2.8784 -0.7282
16342SOL     OW57803   9.510   2.600  10.167 -0.4469 -0.1242 -0.1848
16342SOL    HW157804   9.440   2.552  10.122 -1.1914  0.7032  0.0521
16342SOL    HW257805   9.471   2.685  10.188  0.3986  0.0901  0.6077
16343SOL     OW57806   2.253   6.632   6.734  0.1098 -0.7793  0.1822
16343SOL    HW157807   2.287   6.542   6.731  1.0171 -0.4249 -0.5203
16343SOL    HW257808   2.294   6.671   6.811  0.8453 -0.5399 -0.3195
16344SOL     OW57809   4.649   1.773   9.575 -0.0179 -0.5882 -0.0247
16344SOL    HW157810   4.600   1.780   9.493  1.2861  1.3234 -0.7090
16344SOL    HW257811   4.625   1.852   9.624  0.1706 -1.0921  0.8992
16345SOL     OW57812   8.767   6.210   3.384  0.1102 -0.3794 -0.5903
16345SOL    HW157813   8.863   6.208   3.394 -0.0472 -1.0683  1.1714
16345SOL    HW257814   8.752   6.267   3.308  1.8171  1.9220  0.6553
16346SOL     OW57815   4.371  10.465   7.330 -0.3016 -0.5331  0.2879
16346SOL    HW157816   4.428  10.516   7.387  1.3252 -1.3680 -0.5248
16346SOL    HW257817   4.372  10.512   7.246  0.9145 -1.6520 -0.3569
16347SOL     OW57818   1.127   2.105   3.828  0.0355  0.0356  0.4617
16347SOL    HW157819   1.144   2.188   3.785  0.0476 -1.0397 -1.7765
16347SOL    HW257820   1.034   2.087   3.809 -0.0504 -0.3148  1.1847
16348SOL     OW57821   9.086   6.597   4.811 -0.4608  0.0573  0.4193
16348SOL    HW157822   9.018   6.541   4.848  0.9674 -0.2721  2.7459
16348SOL    HW257823   9.049   6.629   4.729 -2.2463 -2.3952  0.1664
16349SOL     OW57824  11.142   5.731  10.943  0.2928  0.0705 -0.3404
16349SOL    HW157825  11.047   5.736  10.958  0.5459 -0.4188  1.7512
16349SOL    HW257826  11.167   5.821  10.922 -0.8672 -0.1189 -2.8956
16350SOL     OW57827   6.926   6.910   0.520 -0.2731  0.0823 -0.2461
16350SOL    HW157828   6.848   6.889   0.469  1.1637  0.0424 -2.5628
16350SOL    HW257829   6.987   6.839   0.501  0.8125  0.8055  0.4144
16351SOL     OW57830   0.354  11.564   4.707 -0.3510  0.5453  0.5808
16351SOL    HW157831   0.412  11.639   4.723  0.3039  0.2687 -0.4195
16351SOL    HW257832   0.320  11.578   4.619 -0.7427 -0.0039  0.6383
16352SOL     OW57833  11.268   7.476   3.239  0.2712 -0.4905  0.0860
16352SOL    HW157834  11.181   7.501   3.209  0.4157  0.4476  0.3972
16352SOL    HW257835  11.309   7.559   3.264  0.9372 -1.0102  0.7666
16353SOL     OW57836   4.135  10.477  10.144 -0.0170  0.0820  0.2911
16353SOL    HW157837   4.224  10.496  10.174  1.0131  1.8926 -3.2419
16353SOL    HW257838   4.147  10.413  10.074 -1.5240  0.1666 -0.0814
16354SOL     OW57839   1.713   2.499  11.207  0.9035 -0.2331  0.5275
16354SOL    HW157840   1.758   2.434  11.152  0.3838  1.0594 -1.5638
16354SOL    HW257841   1.713   2.461  11.295  0.7036 -3.0185 -0.5699
16355SOL     OW57842   8.501   0.325   4.891 -0.2720 -0.3306  0.3124
16355SOL    HW157843   8.449   0.330   4.811 -1.2213  1.9607  0.9919
16355SOL    HW257844   8.436   0.314   4.961 -0.1517  3.7739  1.3014
16356SOL     OW57845  10.580   3.534   4.408  0.3001  0.2507 -0.8015
16356SOL    HW157846  10.594   3.624   4.435  1.9217 -0.1187 -0.2830
16356SOL    HW257847  10.607   3.532   4.316 -1.0709  0.5701 -1.2324
16357SOL     OW57848   8.094   6.525  10.138 -0.1220 -0.0824 -0.1354
16357SOL    HW157849   8.063   6.478  10.060 -0.9464 -0.1535  0.2306
16357SOL    HW257850   8.071   6.616  10.121  0.9007  0.1134 -0.5567
16358SOL     OW57851   2.089  10.866  10.983  0.0110  0.5180 -0.0832
16358SOL    HW157852   2.030  10.910  11.044 -0.5122 -2.0899  1.4376
16358SOL    HW257853   2.049  10.780  10.969  0.9959  0.3929 -2.8693
16359SOL     OW57854  12.513   5.057   2.516 -0.6881  0.1648  0.8478
16359SOL    HW157855  12.478   4.969   2.530 -0.6152  0.2034  1.2643
16359SOL    HW257856  12.608   5.045   2.514 -0.5399  0.5540  3.2675
16360SOL     OW57857   8.246   9.235   8.815  0.2225  0.3961 -0.2889
16360SOL    HW157858   8.237   9.203   8.725 -1.6745  2.6126 -0.9749
16360SOL    HW257859   8.341   9.244   8.828  0.5099  0.9064 -2.4022
16361SOL     OW57860   1.527   6.724   1.165 -0.1971  0.0088  0.2151
16361SOL    HW157861   1.502   6.745   1.255 -0.6360 -1.3194  0.4349
16361SOL    HW257862   1.473   6.648   1.144  1.1364 -0.7400 -0.5715
16362SOL     OW57863   6.825  10.525  10.358  0.3112 -0.7145 -0.0809
16362SOL    HW157864   6.777  10.472  10.295  0.6539 -0.7324 -0.3307
16362SOL    HW257865   6.765  10.596  10.381 -0.6135 -1.8414  1.1500
16363SOL     OW57866   9.069   4.936  10.564  0.3814  0.0395  0.2748
16363SOL    HW157867   9.067   5.015  10.618  0.0684  0.0061  0.3143
16363SOL    HW257868   8.990   4.888  10.588  0.0203  0.2258 -0.5103
16364SOL     OW57869  11.977  11.725   7.995 -0.3528 -0.0402  0.3258
16364SOL    HW157870  11.910  11.687   7.938  0.6334 -2.1528  0.4809
16364SOL    HW257871  12.058  11.679   7.971  0.7362  1.2718  1.2850
16365SOL     OW57872   4.859   9.119  10.019  0.4273  0.1224  0.0849
16365SOL    HW157873   4.827   9.191  10.072  2.3006  2.1366 -1.3325
16365SOL    HW257874   4.819   9.132   9.933  0.6281 -0.6587 -0.1373
16366SOL     OW57875   3.160   2.043   4.269  0.7395 -0.1978 -0.2702
16366SOL    HW157876   3.066   2.064   4.269  0.8112  0.2725  1.2661
16366SOL    HW257877   3.170   1.979   4.199 -0.5525  0.4751 -1.1136
16367SOL     OW57878   3.149   1.884   4.038  0.2710 -0.3814  0.0142
16367SOL    HW157879   3.115   1.796   4.048 -0.9399  0.1958  1.4119
16367SOL    HW257880   3.218   1.877   3.972 -0.8676 -2.0641 -1.0465
16368SOL     OW57881   6.924   4.637   3.656  0.0286  0.4866 -1.0269
16368SOL    HW157882   6.890   4.615   3.743 -0.0138  2.4346 -0.5041
16368SOL    HW257883   6.849   4.624   3.598 -0.4523  0.7813 -0.4944
16369SOL     OW57884   0.782   7.217  10.184  0.4826 -0.2039 -0.2448
16369SOL    HW157885   0.741   7.155  10.244 -0.9110  3.0433  2.4254
16369SOL    HW257886   0.857   7.251  10.232  0.7287  0.8180 -1.3012
16370SOL     OW57887   8.815   5.816   1.551 -0.2121  0.0840 -0.1489
16370SOL    HW157888   8.733   5.848   1.513  0.0433 -0.4508 -1.1875
16370SOL    HW257889   8.832   5.734   1.505 -0.4391 -1.1671  1.9074
16371SOL     OW57890   9.598   5.105  11.034 -0.0252 -0.1340  0.2979
16371SOL    HW157891   9.589   5.200  11.037 -0.2624 -0.1270 -0.3728
16371SOL    HW257892   9.687   5.088  11.065 -0.1713  0.2653  0.9374
16372SOL     OW57893   7.846   5.554   6.259 -0.1110  0.2115 -0.4491
16372SOL    HW157894   7.921   5.531   6.314 -0.2544  0.7113 -0.0344
16372SOL    HW257895   7.880   5.619   6.198 -0.3502  0.9023  0.1450
16373SOL     OW57896   6.889   2.709   3.235 -0.6157 -0.3657 -0.5041
16373SOL    HW157897   6.903   2.803   3.227 -0.5727  0.0148  2.5321
16373SOL    HW257898   6.850   2.682   3.152  1.8552  1.7698 -2.5380
16374SOL     OW57899   7.581   5.188  11.173  0.2400 -0.1139  0.3218
16374SOL    HW157900   7.676   5.181  11.170  0.5050  2.6849  0.3087
16374SOL    HW257901   7.559   5.199  11.265 -0.0426 -0.1439  0.2610
16375SOL     OW57902   1.079   5.426   5.688 -0.2976  0.2130  0.1473
16375SOL    HW157903   1.069   5.354   5.625  1.6669 -0.7804  0.8794
16375SOL    HW257904   0.995   5.471   5.687 -1.5667 -2.0329 -0.4406
16376SOL     OW57905  10.858   0.589  10.420  0.7508  0.1403  0.4944
16376SOL    HW157906  10.900   0.522  10.473 -0.7160 -0.9973  0.2668
16376SOL    HW257907  10.930   0.628  10.370  1.5428 -1.8407 -0.0050
16377SOL     OW57908   4.940   0.321   3.284  0.0090 -0.2703  0.4175
16377SOL    HW157909   4.861   0.282   3.247 -0.9094 -0.8205  2.7904
16377SOL    HW257910   4.992   0.246   3.314 -0.5822  0.1411  2.6738
16378SOL     OW57911   9.145   4.149   3.130  0.3411 -0.3636 -0.0693
16378SOL    HW157912   9.158   4.055   3.114 -1.1753 -0.9468  1.7844
16378SOL    HW257913   9.087   4.153   3.206 -0.5773  2.0941 -0.8040
16379SOL     OW57914   0.984  10.723   2.805 -0.4195 -0.1549 -0.1922
16379SOL    HW157915   0.955  10.633   2.824 -1.4328  0.1921  0.0116
16379SOL    HW257916   1.065  10.713   2.756 -0.3064 -1.1760  0.1805
16380SOL     OW57917   5.371   7.917   8.183  0.2501 -0.1362 -0.0822
16380SOL    HW157918   5.276   7.918   8.198  0.2461 -2.7063  0.5307
16380SOL    HW257919   5.389   7.830   8.147  2.3191  0.5391 -0.8516
16381SOL     OW57920  10.701   1.127   2.553 -0.6517 -0.1524  0.1443
16381SOL    HW157921  10.637   1.161   2.491 -0.9803 -0.5132  0.2808
16381SOL    HW257922  10.713   1.035   2.527  0.6930  0.2047 -0.6167
16382SOL     OW57923   2.069   9.279   0.352 -0.0490 -0.2313 -0.6467
16382SOL    HW157924   2.059   9.220   0.277 -0.3980  1.9254 -2.3876
16382SOL    HW257925   1.981   9.311   0.370  0.3008  0.6995 -0.5412
16383SOL     OW57926  11.427   6.564  12.523 -0.8124  0.0525  0.3153
16383SOL    HW157927  11.419   6.621  12.446 -0.7341 -1.0299 -0.5269
16383SOL    HW257928  11.502   6.508  12.503  0.0573  0.6450  1.8007
16384SOL     OW57929   3.492   8.642   7.352 -0.3319  0.1281  0.1361
16384SOL    HW157930   3.499   8.618   7.445  2.8873  2.7354  0.7585
16384SOL    HW257931   3.454   8.730   7.353  0.8089  0.6502 -0.9049
16385SOL     OW57932   4.626   1.481  11.687  0.1368  0.0733 -0.5497
16385SOL    HW157933   4.628   1.432  11.605 -2.2490  1.5268 -1.5908
16385SOL    HW257934   4.677   1.428  11.748  1.4571 -1.3786 -2.7718
16386SOL     OW57935   0.639   7.027   6.129 -0.2425  0.0809  0.3421
16386SOL    HW157936   0.728   7.053   6.154 -0.0135 -1.4226  1.2313
16386SOL    HW257937   0.583   7.069   6.194 -0.6223  3.6256 -1.9518
16387SOL     OW57938  11.861   6.756   9.547 -0.1970  0.1855 -0.1138
16387SOL    HW157939  11.792   6.691   9.530 -0.2269  0.0574  0.5029
16387SOL    HW257940  11.923   6.743   9.475  0.1870 -1.0470  0.4155
16388SOL     OW57941   6.586   5.611   3.605  0.3230  0.2064 -0.0144
16388SOL    HW157942   6.578   5.638   3.697 -0.5641  1.9475 -0.5511
16388SOL    HW257943   6.539   5.528   3.600  0.1986  0.1979  1.0458
16389SOL     OW57944   8.725   2.755   3.791  0.0021  0.0266 -0.1932
16389SOL    HW157945   8.695   2.674   3.832 -2.5285  1.0931  0.2149
16389SOL    HW257946   8.685   2.755   3.704  0.6612  0.4806 -0.5115
16390SOL     OW57947   6.408  11.086   6.208 -0.0409  0.4127 -0.0801
16390SOL    HW157948   6.410  11.012   6.268 -0.0951 -1.6792 -2.4735
16390SOL    HW257949   6.347  11.060   6.139 -0.1747  2.7701 -0.9505
16391SOL     OW57950   4.435   7.074  10.987 -0.4443 -0.3365 -0.1606
16391SOL    HW157951   4.346   7.067  10.951 -1.7960  2.2739  2.2061
16391SOL    HW257952   4.424   7.054  11.080  1.9843 -2.2596 -0.1863
16392SOL     OW57953   1.660   1.721   2.279  0.4695  0.2943 -0.5012
16392SOL    HW157954   1.725   1.749   2.214  1.2328  1.7659  0.8362
16392SOL    HW257955   1.660   1.626   2.273  0.6089  0.3767 -2.5550
16393SOL     OW57956   1.036   1.090   2.346  0.5684  0.5844  0.6377
16393SOL    HW157957   1.065   1.149   2.277  1.8269  0.8380  1.3477
16393SOL    HW257958   1.037   1.144   2.426  0.6015 -0.0748  1.0950
16394SOL     OW57959  12.598   8.730   5.722  0.2980  0.1304  0.5778
16394SOL    HW157960  12.533   8.667   5.752  1.3424 -1.4257 -0.3076
16394SOL    HW257961  12.606   8.792   5.795 -3.2737  1.3317  0.1097
16395SOL     OW57962  11.137   1.378  10.720 -0.1497 -0.0621 -0.9000
16395SOL    HW157963  11.063   1.437  10.706 -0.4462  0.4142  2.0262
16395SOL    HW257964  11.109   1.321  10.792  2.5754  0.7473  0.9626
16396SOL     OW57965   6.136   5.935   7.660  0.0003  0.2019  0.0231
16396SOL    HW157966   6.155   6.007   7.720 -0.1659  0.0770  0.2266
16396SOL    HW257967   6.194   5.864   7.688  1.1105  0.6940 -1.0089
16397SOL     OW57968   1.129   1.735   0.232  0.1429 -0.4143  0.2207
16397SOL    HW157969   1.197   1.671   0.250  0.1622 -0.8109 -1.1605
16397SOL    HW257970   1.092   1.756   0.318  1.5427 -0.6889  0.9117
16398SOL     OW57971   7.833   1.906  11.563 -0.3514  0.0853  0.2881
16398SOL    HW157972   7.765   1.839  11.554  0.5845 -0.6765 -2.1205
16398SOL    HW257973   7.870   1.914  11.475  3.4944 -0.4525  1.6374
16399SOL     OW57974   3.608   9.200  12.497 -0.0248 -0.4035 -0.3182
16399SOL    HW157975   3.635   9.181  12.587 -1.8409  0.2470  0.4049
16399SOL    HW257976   3.643   9.127  12.446 -1.6066 -2.5187  1.4241
16400SOL     OW57977   8.765   2.691   5.102 -0.4844 -0.3998  0.2203
16400SOL    HW157978   8.838   2.750   5.081 -1.3463  0.3079 -0.8888
16400SOL    HW257979   8.741   2.714   5.192  0.1728 -0.1162  0.3296
16401SOL     OW57980   5.768   5.228  11.628 -0.6736 -0.1557 -0.0543
16401SOL    HW157981   5.734   5.229  11.717  0.8900  1.0884  0.5818
16401SOL    HW257982   5.799   5.139  11.614 -0.2718 -0.1778  0.9250
16402SOL     OW57983   2.931   8.837   9.900 -0.2410 -0.1984 -0.4271
16402SOL    HW157984   2.884   8.796   9.828 -0.2965  0.3475 -0.7101
16402SOL    HW257985   3.014   8.790   9.904  0.0271  0.1795 -1.2665
16403SOL     OW57986   1.086   6.124   3.394 -0.2991 -0.2306 -0.3728
16403SOL    HW157987   1.070   6.052   3.334 -0.7614 -1.4217  1.0963
16403SOL    HW257988   1.003   6.173   3.397 -0.2997 -0.2179 -0.6402
16404SOL     OW57989   3.157   7.897   4.212 -0.0417  0.6678 -0.4110
16404SOL    HW157990   3.100   7.967   4.181 -0.4639  1.8750  2.6832
16404SOL    HW257991   3.246   7.930   4.199 -0.0515 -0.1350 -2.9055
16405SOL     OW57992  10.340   2.555   4.252 -0.5748  0.0246 -0.3139
16405SOL    HW157993  10.394   2.486   4.214  2.7401  2.8833 -1.3709
16405SOL    HW257994  10.301   2.599   4.177 -0.0686  1.1592  0.0675
16406SOL     OW57995   8.645   1.254   6.740 -0.3269  0.1840 -0.0061
16406SOL    HW157996   8.588   1.187   6.777  0.0551  0.8672  2.0104
16406SOL    HW257997   8.596   1.291   6.667 -1.0274 -1.4581 -0.4131
16407SOL     OW57998  11.079   6.740   0.462  0.2085 -0.3884 -0.6213
16407SOL    HW157999  10.996   6.752   0.415  0.0312  1.0371  0.0220
16407SOL    HW258000  11.074   6.650   0.495 -2.4382  0.5381  1.9013
16408SOL     OW58001   1.106  10.906   4.451 -0.1188 -0.5670 -0.5877
16408SOL    HW158002   1.163  10.860   4.390 -0.0268 -0.5642 -0.5046
16408SOL    HW258003   1.022  10.913   4.406  0.1412  0.0338 -0.9903
16409SOL     OW58004   8.696   2.755   9.223 -0.1055  0.3356  0.6679
16409SOL    HW158005   8.609   2.727   9.251 -0.1532  0.5829  0.7695
16409SOL    HW258006   8.684   2.845   9.192 -0.1152 -0.0154 -0.4089
16410SOL     OW58007   6.659  11.591   2.653  0.4233 -0.3659 -0.2028
16410SOL    HW158008   6.566  11.606   2.672  1.0934  0.6111  2.7237
16410SOL    HW258009   6.681  11.657   2.587 -0.4722  0.7900  0.6276
16411SOL     OW58010   0.226   0.316   0.943 -0.0859 -0.0234 -0.0980
16411SOL    HW158011   0.192   0.391   0.990 -1.1082 -0.1873 -0.5510
16411SOL    HW258012   0.226   0.342   0.851  1.6392  0.1990 -0.0631
16412SOL     OW58013   2.036   2.877   5.662 -0.0025 -0.1185 -0.3029
16412SOL    HW158014   2.111   2.822   5.686  0.7294  0.8913 -0.2090
16412SOL    HW258015   2.067   2.967   5.677 -1.1281  0.3247 -0.5699
16413SOL     OW58016   4.597   4.021  11.022  0.2058 -0.5053 -0.2162
16413SOL    HW158017   4.530   3.985  10.963 -1.1212 -0.0580  0.9594
16413SOL    HW258018   4.573   4.113  11.030  1.6689 -0.0669 -0.6650
16414SOL     OW58019   4.682   5.359  11.181  0.3942  0.4925  0.0714
16414SOL    HW158020   4.683   5.419  11.255  0.8005  1.4318 -0.6619
16414SOL    HW258021   4.590   5.344  11.162  0.2923  0.0513  0.9134
16415SOL     OW58022   8.323   6.299   0.083  0.5208  0.4434 -0.5383
16415SOL    HW158023   8.390   6.247   0.126 -2.5050 -2.6876  0.9005
16415SOL    HW258024   8.281   6.239   0.022 -4.2418  0.2872  2.3569
16416SOL     OW58025   5.794   5.764   1.447  0.2377  0.3157  0.1219
16416SOL    HW158026   5.880   5.804   1.444  0.5539 -0.4111 -2.0414
16416SOL    HW258027   5.791   5.719   1.532  1.7587  0.7723  0.4411
16417SOL     OW58028  12.609   1.475  10.867  0.1729 -0.1607  0.1492
16417SOL    HW158029  12.637   1.386  10.889  1.0621 -0.3509 -1.6251
16417SOL    HW258030  12.514   1.469  10.859  0.3391 -1.3659 -1.5433
16418SOL     OW58031   8.747   4.193   7.862  0.6074  0.6529 -0.4961
16418SOL    HW158032   8.800   4.215   7.786  1.4999  0.2938  0.0134
16418SOL    HW258033   8.745   4.097   7.863  1.1317  0.6455  0.2874
16419SOL     OW58034   3.916   7.686  10.512  0.0084  0.2236  0.0160
16419SOL    HW158035   3.976   7.612  10.527  1.2851  0.9819 -1.1149
16419SOL    HW258036   3.936   7.715  10.423 -1.4382  1.0828 -0.0548
16420SOL     OW58037   0.844  11.826   5.882 -0.2435 -0.0555  0.1273
16420SOL    HW158038   0.866  11.749   5.935 -2.1920 -0.3787  0.5465
16420SOL    HW258039   0.921  11.882   5.888  1.1817 -1.9152 -0.1002
16421SOL     OW58040  11.651   6.222   0.179 -0.3687  0.0336 -0.1186
16421SOL    HW158041  11.695   6.291   0.129 -1.4224 -0.7095 -2.2035
16421SOL    HW258042  11.603   6.269   0.247 -0.1136  1.2517 -0.7467
16422SOL     OW58043   0.714   5.175   2.886 -0.3553  0.0065  0.0650
16422SOL    HW158044   0.648   5.219   2.940 -0.1634 -0.5898  0.8099
16422SOL    HW258045   0.716   5.225   2.805 -1.1183  0.5404  0.3614
16423SOL     OW58046   6.679   4.442  12.036  0.8323 -0.1055  1.1703
16423SOL    HW158047   6.728   4.386  12.097  0.3255  0.2135  1.8763
16423SOL    HW258048   6.721   4.427  11.952 -0.4197 -2.9949  0.9463
16424SOL     OW58049   7.096  10.666   1.030  0.7237  0.5336  0.2965
16424SOL    HW158050   7.013  10.691   0.991 -0.3510 -1.1197  1.4278
16424SOL    HW258051   7.106  10.726   1.105  0.1424  0.1991  0.6453
16425SOL     OW58052   0.751   4.555   2.831  0.2752 -0.2734  0.0127
16425SOL    HW158053   0.714   4.585   2.748 -0.3765 -0.0593  0.3769
16425SOL    HW258054   0.687   4.580   2.897  0.3982 -1.1739  0.4957
16426SOL     OW58055   9.459   1.151   0.487  0.7570  0.2327  0.1932
16426SOL    HW158056   9.542   1.139   0.533  1.8368  0.8102 -1.5237
16426SOL    HW258057   9.468   1.235   0.442 -0.7203  0.2505 -0.1237
16427SOL     OW58058   9.893   4.230   7.611 -0.2622  0.5391  0.1322
16427SOL    HW158059   9.840   4.293   7.660 -1.3062  0.0517 -0.3387
16427SOL    HW258060   9.971   4.218   7.664 -1.4737 -0.2121  1.8624
16428SOL     OW58061   2.584   5.866   6.175  0.0484 -0.0456 -0.1472
16428SOL    HW158062   2.571   5.784   6.127  0.4727  0.1933 -0.6798
16428SOL    HW258063   2.678   5.882   6.170 -0.0729  0.6419 -0.3317
16429SOL     OW58064  12.371   2.600   3.282  0.1084  0.0610  0.3246
16429SOL    HW158065  12.419   2.525   3.247  0.6756  0.6704 -0.2374
16429SOL    HW258066  12.283   2.591   3.247  0.6685  0.6848 -1.3718
16430SOL     OW58067   1.881   7.753   3.655 -0.0376  0.2271 -0.4613
16430SOL    HW158068   1.820   7.694   3.698 -0.8649  1.0047 -0.5348
16430SOL    HW258069   1.878   7.728   3.562  0.2481 -0.1589 -0.3667
16431SOL     OW58070   9.678   6.463  12.238 -0.4537  0.4941 -0.4043
16431SOL    HW158071   9.584   6.466  12.221 -1.0080 -2.0707  1.6515
16431SOL    HW258072   9.687   6.490  12.329  0.7760  0.3527 -0.4676
16432SOL     OW58073  10.828   1.705   2.319 -0.2975  0.8103 -0.6637
16432SOL    HW158074  10.871   1.624   2.348 -0.0689  1.3886  0.6743
16432SOL    HW258075  10.736   1.682   2.311  0.0363 -0.1158 -2.3525
16433SOL     OW58076   5.923   4.063   0.629 -0.3930  0.4141 -0.2274
16433SOL    HW158077   5.862   4.070   0.556 -0.1717  2.6284 -0.2688
16433SOL    HW258078   5.902   4.137   0.686  2.1348  1.2299 -0.2000
16434SOL     OW58079   7.602   6.500   2.634 -0.0486 -0.2002  0.4338
16434SOL    HW158080   7.555   6.419   2.653 -0.0114  0.0969  1.8926
16434SOL    HW258081   7.549   6.544   2.567  0.9317 -2.2913 -1.8713
16435SOL     OW58082   4.279   6.437   8.504 -0.4321  0.6186  0.1031
16435SOL    HW158083   4.245   6.364   8.452 -0.2455  0.6641 -0.0862
16435SOL    HW258084   4.352   6.471   8.452  1.4331 -0.9580  1.5221
16436SOL     OW58085   3.583   8.761   3.763 -0.0941  0.2260 -0.2162
16436SOL    HW158086   3.532   8.700   3.816 -0.9149  0.8305 -0.2785
16436SOL    HW258087   3.526   8.782   3.689  0.8294 -0.2070 -1.0756
16437SOL     OW58088   1.450   5.310   7.363  0.5441  0.5259  0.1315
16437SOL    HW158089   1.400   5.244   7.315 -3.0787  1.7782  1.7925
16437SOL    HW258090   1.435   5.392   7.316  0.9245  0.9804  0.7700
16438SOL     OW58091   9.093  10.910  11.826  0.0288 -0.0085  0.7910
16438SOL    HW158092   9.120  10.818  11.833  1.1698  0.2631  0.3104
16438SOL    HW258093   9.120  10.949  11.909  0.8689  0.1872  0.4430
16439SOL     OW58094  12.322   3.789   3.583 -0.1235  0.0073 -0.1268
16439SOL    HW158095  12.232   3.789   3.551 -0.1825  1.3941 -0.0080
16439SOL    HW258096  12.367   3.855   3.531  1.0399 -1.1681 -0.6929
16440SOL     OW58097   2.200   4.971   9.106  0.8543  0.6481 -0.1579
16440SOL    HW158098   2.156   4.942   9.186  0.8872  0.7142 -0.1166
16440SOL    HW258099   2.166   5.059   9.090 -0.5190 -0.0212 -1.1950
16441SOL     OW58100  11.507   6.355   0.403 -0.5190  0.7032  0.4670
16441SOL    HW158101  11.504   6.363   0.498 -1.3610  1.8601  0.3579
16441SOL    HW258102  11.424   6.391   0.373  0.2584  1.5375 -0.7751
16442SOL     OW58103   8.916   0.006   0.812  0.5513  0.4847  0.4387
16442SOL    HW158104   8.908  -0.086   0.786  1.0866  0.3232  0.8300
16442SOL    HW258105   8.990   0.039   0.761  1.4450  0.2352  1.5106
16443SOL     OW58106   2.043   2.592   5.003  0.1118  0.1373 -0.1892
16443SOL    HW158107   1.998   2.674   4.984  0.1444  0.7460  2.0930
16443SOL    HW258108   1.979   2.540   5.052  0.9253 -0.1578  0.5864
16444SOL     OW58109   3.347   9.125   1.960 -0.0988 -0.4707  0.0737
16444SOL    HW158110   3.313   9.213   1.975  0.7632  0.0328 -0.7895
16444SOL    HW258111   3.355   9.119   1.864  1.4875 -0.8298  0.1999
16445SOL     OW58112   1.630   1.706  12.288 -0.0555  0.2195 -0.2654
16445SOL    HW158113   1.579   1.668  12.360  0.3331 -0.1450 -0.1715
16445SOL    HW258114   1.675   1.631  12.249  4.8681  0.9205  3.1556
16446SOL     OW58115   5.267   9.777   4.153  0.1608  0.2635  0.3646
16446SOL    HW158116   5.213   9.846   4.191  0.0172  0.4836 -0.2170
16446SOL    HW258117   5.346   9.774   4.207 -0.9194 -0.8737  1.9648
16447SOL     OW58118   5.142   6.451   8.791  0.6963  0.5320 -0.6225
16447SOL    HW158119   5.139   6.521   8.725  0.0465  0.7583 -0.3518
16447SOL    HW258120   5.067   6.467   8.847  1.4684  0.5611  0.4186
16448SOL     OW58121   7.375   2.925   1.108  0.0825  0.4411  0.2411
16448SOL    HW158122   7.373   2.899   1.016  0.9410 -0.6713  0.5126
16448SOL    HW258123   7.462   2.961   1.121 -0.2586  1.1938  0.4703
16449SOL     OW58124   2.873   2.880   5.441 -0.5493 -0.2157 -0.1820
16449SOL    HW158125   2.902   2.938   5.511  1.4998 -1.1711 -0.1797
16449SOL    HW258126   2.831   2.938   5.377 -1.1567  0.8457  1.1445
16450SOL     OW58127   2.001   0.463   4.175 -0.2838  0.7916  0.3260
16450SOL    HW158128   2.033   0.527   4.239  0.3467 -0.4320  1.2823
16450SOL    HW258129   2.063   0.391   4.180 -1.0790  0.0146 -0.5885
16451SOL     OW58130  10.081   5.247   5.981 -0.0963  0.7163  0.2472
16451SOL    HW158131  10.098   5.285   6.067 -0.2520 -0.3250  0.7547
16451SOL    HW258132  10.012   5.182   5.996 -0.5673  0.9499 -0.7786
16452SOL     OW58133   5.399  12.261   0.936  0.1476 -0.1508  0.2220
16452SOL    HW158134   5.310  12.287   0.914 -0.4906 -0.7317  1.9672
16452SOL    HW258135   5.425  12.201   0.866 -1.5736 -1.5211  0.7006
16453SOL     OW58136   7.283   2.622   6.214  0.4152  0.5038 -0.3935
16453SOL    HW158137   7.314   2.531   6.218  0.3403  0.5159  0.5484
16453SOL    HW258138   7.283   2.652   6.305  0.7801  1.5693 -0.7311
16454SOL     OW58139   8.576   2.886  11.555  0.8362 -0.0735  0.0529
16454SOL    HW158140   8.642   2.851  11.495  1.1547  0.6342 -0.0090
16454SOL    HW258141   8.525   2.809  11.581  0.8073 -0.4157 -0.9803
16455SOL     OW58142   5.013   4.847   1.416  0.1026 -0.4863  0.4480
16455SOL    HW158143   4.965   4.766   1.435  1.6958 -1.6529 -0.3262
16455SOL    HW258144   5.104   4.820   1.405  0.3070  0.9609 -2.6049
16456SOL     OW58145  12.513   3.002  12.567 -0.0029  0.2061  0.5703
16456SOL    HW158146  12.425   2.966  12.565  0.3640 -0.7266 -1.6409
16456SOL    HW258147  12.571   2.926  12.571  0.7317  0.6897 -0.4456
16457SOL     OW58148  11.524   7.733   6.052  0.5595  0.2642 -0.9956
16457SOL    HW158149  11.431   7.711   6.062  0.0156  1.7973 -2.2626
16457SOL    HW258150  11.538   7.807   6.112  0.1347  2.0270 -2.9416
16458SOL     OW58151   4.714   8.595   8.915 -0.1028  0.1133 -0.5416
16458SOL    HW158152   4.723   8.596   9.010 -1.3497  1.9117 -0.4022
16458SOL    HW258153   4.731   8.504   8.890  2.6770  0.0505  1.1109
16459SOL     OW58154   4.513   2.241   4.084 -0.0381  0.2716  0.2767
16459SOL    HW158155   4.460   2.292   4.146 -0.2835  2.3618 -1.5072
16459SOL    HW258156   4.543   2.306   4.020  1.8794 -1.4441 -0.6689
16460SOL     OW58157  11.623   5.151   0.601  0.0448  0.1310 -0.0735
16460SOL    HW158158  11.626   5.062   0.567  0.3514  0.1787 -0.1755
16460SOL    HW258159  11.540   5.156   0.649 -1.3737  0.6293 -2.3983
16461SOL     OW58160   9.219   3.510   2.663  0.4474 -0.3390 -0.3797
16461SOL    HW158161   9.128   3.485   2.681  0.7662 -2.4189 -1.3315
16461SOL    HW258162   9.217   3.543   2.573  0.5934 -0.2229 -0.3400
16462SOL     OW58163   4.187   0.676   6.878  0.0721 -0.7579 -0.4753
16462SOL    HW158164   4.194   0.768   6.903 -0.5386 -1.0567  0.9211
16462SOL    HW258165   4.098   0.667   6.844 -0.2487 -1.0494  0.4234
16463SOL     OW58166   6.932   0.359   3.463  0.3489 -0.1810  0.2533
16463SOL    HW158167   6.837   0.350   3.451  0.3371 -1.9473  1.3364
16463SOL    HW258168   6.950   0.451   3.443 -1.1226 -0.4580 -2.8867
16464SOL     OW58169  10.060   4.511   4.017  0.1115  0.1077 -1.0111
16464SOL    HW158170  10.040   4.474   4.104  0.8261  3.3205  0.6760
16464SOL    HW258171   9.985   4.566   3.997  1.1188  1.5172 -1.0783
16465SOL     OW58172   3.354   6.843   3.011  0.4515  0.5124  0.1068
16465SOL    HW158173   3.341   6.804   2.925 -1.8472  1.4099 -0.0399
16465SOL    HW258174   3.432   6.897   3.003  0.3901  0.4116 -1.3569
16466SOL     OW58175   5.122   1.734   0.486  0.2615  0.0407 -0.2704
16466SOL    HW158176   5.196   1.757   0.541  2.4644 -1.2460 -2.4952
16466SOL    HW258177   5.053   1.707   0.547  1.9626  0.3178  1.8539
16467SOL     OW58178   7.836   3.691  10.041 -0.2009 -0.2980 -0.0720
16467SOL    HW158179   7.807   3.782  10.054 -0.6218 -0.5668  0.9987
16467SOL    HW258180   7.795   3.643  10.112  0.8325 -1.1649 -0.0409
16468SOL     OW58181  11.325   2.337   5.916 -0.0644  0.3225  0.1479
16468SOL    HW158182  11.413   2.370   5.929  0.3521 -1.1516  1.3097
16468SOL    HW258183  11.281   2.405   5.865  1.9718  0.7076 -1.1949
16469SOL     OW58184   7.869   2.226   8.581  0.0747 -0.0655  0.0453
16469SOL    HW158185   7.890   2.318   8.597  0.0680  0.2153 -1.3700
16469SOL    HW258186   7.828   2.196   8.661 -0.4047  1.3206  0.3473
16470SOL     OW58187   6.410   6.385   8.205 -0.6373  0.1061 -0.1553
16470SOL    HW158188   6.435   6.453   8.268  0.4605 -0.7870  0.3876
16470SOL    HW258189   6.391   6.308   8.258  0.2670 -0.6578 -0.8949
16471SOL     OW58190   3.643  11.296   4.352  0.0225  0.0948 -0.0054
16471SOL    HW158191   3.565  11.321   4.303  1.0023 -1.6041 -2.6212
16471SOL    HW258192   3.627  11.205   4.378  0.7435  0.0257  0.2307
16472SOL     OW58193   5.489   9.940  11.311 -0.3246 -0.3604  0.6782
16472SOL    HW158194   5.425   9.951  11.240  0.3659  1.9112  0.3359
16472SOL    HW258195   5.453   9.870  11.365 -2.3539 -0.1598 -0.3235
16473SOL     OW58196   5.981   5.854   1.200 -0.0566  0.4072 -0.5108
16473SOL    HW158197   5.978   5.849   1.296  1.0290  1.0033 -0.4393
16473SOL    HW258198   5.974   5.763   1.172 -2.2019  0.3406  0.0481
16474SOL     OW58199   5.934   5.107   9.914 -0.5484 -0.1778  0.2615
16474SOL    HW158200   5.877   5.059   9.973 -0.3564 -1.6758 -0.7358
16474SOL    HW258201   6.023   5.078   9.936 -0.3163  0.6327  0.4528
16475SOL     OW58202   8.897   3.006   2.778  0.3615 -0.3834 -0.5659
16475SOL    HW158203   8.907   3.091   2.822 -0.6149  0.1949 -1.4056
16475SOL    HW258204   8.888   2.943   2.850  2.0722  0.0576  0.0809
16476SOL     OW58205   4.055  11.664  11.531  0.0707  0.2041  0.2140
16476SOL    HW158206   4.111  11.594  11.563 -1.0826 -0.6008  0.5333
16476SOL    HW258207   4.050  11.650  11.436 -1.7517 -1.4185  0.4827
16477SOL     OW58208   0.423  11.810  10.951 -0.3862  0.3829 -0.2480
16477SOL    HW158209   0.414  11.715  10.941  3.3018 -0.0084 -1.4610
16477SOL    HW258210   0.440  11.842  10.863 -0.5538  2.0353  0.2949
16478SOL     OW58211   7.438  11.550   8.797  0.5054 -0.3485  0.6258
16478SOL    HW158212   7.415  11.465   8.836  0.6649 -0.8316 -0.3205
16478SOL    HW258213   7.503  11.530   8.731  1.2099  0.6299  0.9947
16479SOL     OW58214   3.456   6.923   6.031 -0.0483 -0.2331 -0.0976
16479SOL    HW158215   3.473   6.851   5.970 -1.7288 -1.5071  0.8483
16479SOL    HW258216   3.441   6.999   5.975  0.8462 -0.8236 -1.1677
16480SOL     OW58217   8.740   5.810  10.129  0.0747  0.2323  0.4692
16480SOL    HW158218   8.709   5.720  10.132 -0.5222  0.4137  0.0658
16480SOL    HW258219   8.740   5.839  10.220 -1.3935  0.3647  0.4477
16481SOL     OW58220  11.998   6.071   5.089  0.1398 -0.3791  0.5268
16481SOL    HW158221  12.056   5.996   5.075 -1.8754 -1.7035 -1.3918
16481SOL    HW258222  11.912   6.040   5.061 -1.3778  1.7501  2.4885
16482SOL     OW58223   5.247  11.496   5.919 -0.0129 -0.3065 -0.3361
16482SOL    HW158224   5.219  11.468   5.832  0.6516 -1.9817 -0.0497
16482SOL    HW258225   5.179  11.463   5.978 -0.1295  0.2625 -0.1416
16483SOL     OW58226   9.141   7.818   1.985  0.4393  0.3891 -0.7858
16483SOL    HW158227   9.205   7.856   2.045 -0.6493 -1.3195  1.6158
16483SOL    HW258228   9.078   7.888   1.970  1.1866  1.1092 -0.6383
16484SOL     OW58229   8.872   1.163   0.391  0.1388  0.5603  0.1447
16484SOL    HW158230   8.810   1.235   0.404 -0.4675  0.2398 -0.9035
16484SOL    HW258231   8.955   1.198   0.424 -0.6031  0.9250  1.7407
16485SOL     OW58232  11.417   2.704   8.302  0.2629 -0.2565  0.2892
16485SOL    HW158233  11.416   2.762   8.379 -1.5724  0.5492 -0.2859
16485SOL    HW258234  11.482   2.637   8.324  0.5471  0.5311  2.0959
16486SOL     OW58235   4.710  12.347   0.084 -0.2117 -0.0098  0.3866
16486SOL    HW158236   4.671  12.434   0.094 -0.4286 -0.1058  0.3737
16486SOL    HW258237   4.653  12.289   0.135  1.4073  0.2675  2.6666
16487SOL     OW58238   3.262   3.089   0.533  0.1017 -0.1725  0.3330
16487SOL    HW158239   3.202   3.019   0.508  0.8480 -0.2567 -1.4277
16487SOL    HW258240   3.294   3.124   0.449  1.9548  0.3365  1.1877
16488SOL     OW58241   7.152   1.400   1.360 -0.0360 -0.5398  0.1277
16488SOL    HW158242   7.095   1.391   1.437  0.0842  0.0008  0.2846
16488SOL    HW258243   7.151   1.313   1.319  0.6039 -1.0875  1.2347
16489SOL     OW58244   7.502   4.065   4.168  0.0654 -0.1880  0.4421
16489SOL    HW158245   7.498   4.148   4.214 -1.3254  0.1406 -0.2216
16489SOL    HW258246   7.468   4.084   4.081  0.9249 -1.1838 -0.1339
16490SOL     OW58247   3.247   8.182   6.328 -0.4139 -0.2781  0.2133
16490SOL    HW158248   3.285   8.096   6.308 -0.4922 -0.4488  0.7823
16490SOL    HW258249   3.322   8.241   6.333 -0.1918 -0.6489  1.5082
16491SOL     OW58250  11.214   6.380   5.416  0.2678 -0.1626 -0.0769
16491SOL    HW158251  11.178   6.458   5.372  1.8643  0.0235 -1.1214
16491SOL    HW258252  11.234   6.410   5.505 -0.7681  0.1066  0.0867
16492SOL     OW58253  10.748   8.927  11.426  0.5450  0.0008  0.2303
16492SOL    HW158254  10.757   8.832  11.414 -0.2647 -0.1382  0.6449
16492SOL    HW258255  10.791   8.945  11.509 -1.4391 -0.4174  1.4201
16493SOL     OW58256  11.148   8.231   3.668  0.2576  0.6109 -0.2164
16493SOL    HW158257  11.203   8.246   3.746 -0.0763 -0.6351  0.2829
16493SOL    HW258258  11.060   8.255   3.696  0.1795  0.4056 -0.2848
16494SOL     OW58259   0.547   3.452   3.650  0.3617  0.3914  0.0711
16494SOL    HW158260   0.534   3.376   3.593 -0.0147 -0.3023  1.0562
16494SOL    HW258261   0.639   3.447   3.676  0.2651  0.1041  0.3625
16495SOL     OW58262   5.614   8.261   1.728  0.0023 -0.0275 -0.1073
16495SOL    HW158263   5.644   8.339   1.774 -0.4419 -0.9552  1.8806
16495SOL    HW258264   5.694   8.212   1.710  0.1231 -0.1296  0.6494
16496SOL     OW58265   3.054   3.641   5.566 -0.5544  0.6101 -0.7028
16496SOL    HW158266   2.961   3.634   5.587 -0.5863  1.2144 -0.6191
16496SOL    HW258267   3.062   3.726   5.523 -0.5437 -0.6460 -3.4207
16497SOL     OW58268   0.438   6.017   4.004 -0.3365  0.2113 -0.5718
16497SOL    HW158269   0.349   6.051   3.999 -0.3342  0.0355 -2.0480
16497SOL    HW258270   0.494   6.094   4.004 -0.4375  0.2822 -0.8795
16498SOL     OW58271   3.960  10.889  10.436  0.3645  0.3191 -0.0373
16498SOL    HW158272   4.001  10.869  10.520 -1.1433 -0.6745  0.4971
16498SOL    HW258273   3.966  10.807  10.386 -1.0408  0.0996  0.1108
16499SOL     OW58274   8.044   8.525   3.876 -0.0523 -0.0965 -1.1483
16499SOL    HW158275   8.017   8.445   3.921  1.5359  0.2023  0.4435
16499SOL    HW258276   8.111   8.497   3.814  0.6022 -0.0076 -0.4943
16500SOL     OW58277  10.869  10.990  12.251 -0.1160  0.0403 -0.1118
16500SOL    HW158278  10.880  11.002  12.346  0.1757  0.2427 -0.1702
16500SOL    HW258279  10.953  10.959  12.220 -0.0368  0.5127 -0.3885
16501SOL     OW58280   7.678   8.760   5.303  0.5546 -0.2912 -0.4703
16501SOL    HW158281   7.605   8.785   5.360  1.0385  0.6241 -0.2324
16501SOL    HW258282   7.641   8.766   5.214  0.1740 -0.4036 -0.3225
16502SOL     OW58283   5.837   6.028   9.720  0.2279  0.3433 -0.3446
16502SOL    HW158284   5.744   6.013   9.703  0.4992 -0.4245 -1.2139
16502SOL    HW258285   5.853   6.118   9.690 -0.4004  0.7893  0.5941
16503SOL     OW58286   0.264  11.665  10.714 -0.0136 -0.4799 -0.1650
16503SOL    HW158287   0.180  11.704  10.691  0.6086  1.0246  0.0395
16503SOL    HW258288   0.329  11.731  10.690  1.0171 -1.0689  0.9188
16504SOL     OW58289   6.805   4.083   8.068  0.5170  0.0068 -0.0515
16504SOL    HW158290   6.810   4.057   7.976  1.5700 -0.2301  0.0588
16504SOL    HW258291   6.845   4.010   8.116 -0.0020  0.1364  0.5974
16505SOL     OW58292   1.578   1.527   3.994  0.2056  0.1527 -0.1382
16505SOL    HW158293   1.506   1.568   4.042  1.9191  1.7660  1.1621
16505SOL    HW258294   1.597   1.587   3.922 -0.6497 -1.0100 -1.4153
16506SOL     OW58295   9.862  10.780   2.843  0.5405  0.5353 -0.0077
16506SOL    HW158296   9.889  10.870   2.828  0.1470  0.9777  1.7636
16506SOL    HW258297   9.800  10.785   2.916 -1.4465 -0.8840 -1.5001
16507SOL     OW58298   3.186   4.345   3.571 -0.4618  0.3314  0.4451
16507SOL    HW158299   3.096   4.331   3.601 -0.9354 -0.4592 -1.2579
16507SOL    HW258300   3.195   4.289   3.494  1.9960 -0.7906  1.4681
16508SOL     OW58301  11.231   6.769   6.595  0.4623 -0.0287 -0.0669
16508SOL    HW158302  11.308   6.811   6.557 -1.4348  4.4346  0.3699
16508SOL    HW258303  11.262   6.682   6.622  4.7561  0.7717 -1.5505
16509SOL     OW58304   3.529  11.701   2.233  0.1731  0.1498  0.5214
16509SOL    HW158305   3.472  11.709   2.309 -2.3878  0.8486 -1.3090
16509SOL    HW258306   3.491  11.761   2.168  2.6452  0.1221 -1.0765
16510SOL     OW58307   4.001   6.469   5.849  0.0352  0.3805  0.5772
16510SOL    HW158308   3.977   6.535   5.783 -0.4298 -0.9121 -0.6042
16510SOL    HW258309   4.095   6.456   5.835  0.1551  0.8756  0.9001
16511SOL     OW58310   2.603   0.370   6.724  0.1023  0.0197  0.1313
16511SOL    HW158311   2.681   0.316   6.732 -0.7309 -1.5218 -1.4118
16511SOL    HW258312   2.631   0.444   6.669  0.3308 -0.9489 -1.1195
16512SOL     OW58313   7.539   6.869   1.799 -0.8329  0.0579 -0.0509
16512SOL    HW158314   7.542   6.941   1.863  0.2900  1.1830 -1.3007
16512SOL    HW258315   7.606   6.891   1.735  0.2831 -2.6607  0.0515
16513SOL     OW58316   5.358   7.901   5.333 -0.2543  0.5966  0.2704
16513SOL    HW158317   5.324   7.867   5.416 -0.4749 -1.0410 -0.4459
16513SOL    HW258318   5.406   7.828   5.295 -0.4851  1.1893 -1.2265
16514SOL     OW58319   1.878   5.590   4.831 -0.8463  0.3368 -0.0695
16514SOL    HW158320   1.848   5.656   4.768 -2.4643 -0.0448  0.2613
16514SOL    HW258321   1.825   5.605   4.909 -0.4704 -0.6638  0.3946
16515SOL     OW58322  10.160   3.164   4.022  0.4922 -0.4524  0.0346
16515SOL    HW158323  10.215   3.189   3.947 -0.9752  0.1582 -0.8858
16515SOL    HW258324  10.112   3.086   3.991  0.2643 -0.5130  0.5308
16516SOL     OW58325   8.162   6.648   3.439  0.1636  0.0671 -0.5295
16516SOL    HW158326   8.128   6.719   3.384  0.1451  0.9250  0.5721
16516SOL    HW258327   8.126   6.665   3.526  0.6788 -0.9355 -0.1089
16517SOL     OW58328   5.325   7.409   5.233  0.1371 -0.5302  0.7453
16517SOL    HW158329   5.271   7.332   5.217 -0.5296  0.0431  0.1351
16517SOL    HW258330   5.263   7.482   5.231  1.1216  0.3773 -1.9266
16518SOL     OW58331   7.914   0.088  11.023  0.1239  0.1053  0.9918
16518SOL    HW158332   7.888   0.068  11.113  0.3634  1.8931  1.4917
16518SOL    HW258333   7.867   0.168  11.001 -1.8907 -1.5975 -1.4327
16519SOL     OW58334  11.678   0.214   3.339 -0.0023 -0.2048  0.3401
16519SOL    HW158335  11.750   0.225   3.277 -1.3632  2.1871 -0.9721
16519SOL    HW258336  11.634   0.133   3.312  0.7579 -0.3899 -0.3706
16520SOL     OW58337   6.666   8.195   2.967 -0.0114  0.0381 -0.6090
16520SOL    HW158338   6.754   8.171   2.938  0.7335  1.6637  0.1618
16520SOL    HW258339   6.643   8.127   3.031  1.0909  0.1206 -0.0999
16521SOL     OW58340  11.197   4.763   4.605  0.0118  0.1172  0.6319
16521SOL    HW158341  11.266   4.778   4.669 -0.7052  2.8099  0.8954
16521SOL    HW258342  11.220   4.820   4.531 -1.3614  0.3116  0.3150
16522SOL     OW58343   3.848  11.772   9.292 -0.7516 -0.1094  0.6794
16522SOL    HW158344   3.932  11.776   9.337 -0.2124 -1.5267 -0.1318
16522SOL    HW258345   3.784  11.800   9.357  0.1922 -0.4059  1.7568
16523SOL     OW58346   5.000   1.432   1.049  0.3892  0.2647  0.7371
16523SOL    HW158347   4.949   1.365   1.004  1.9207 -0.5007  0.0637
16523SOL    HW258348   4.944   1.462   1.120 -0.1379 -2.1079  1.3776
16524SOL     OW58349   1.446  11.012   6.625  0.1410  0.0667 -0.0342
16524SOL    HW158350   1.520  11.014   6.564 -0.3518 -1.6684 -0.7588
16524SOL    HW258351   1.439  10.920   6.650 -0.3276  0.5678  1.8709
16525SOL     OW58352  12.472   3.478   6.276  0.2124  0.0107  0.6224
16525SOL    HW158353  12.400   3.416   6.285  0.2880 -0.3135 -0.8026
16525SOL    HW258354  12.438   3.548   6.220  0.9378 -0.0709  0.0557
16526SOL     OW58355  10.561   4.964  11.081  0.0899 -0.1254 -0.2851
16526SOL    HW158356  10.471   4.935  11.096  0.0718 -0.2489 -0.6219
16526SOL    HW258357  10.599   4.970  11.169  0.1455 -1.3573 -0.2139
16527SOL     OW58358   1.041   9.647  10.489  0.4541  0.1290  0.2148
16527SOL    HW158359   1.010   9.722  10.540 -2.3404 -0.3474 -0.6210
16527SOL    HW258360   0.992   9.573  10.524 -0.0765 -0.5425 -1.7996
16528SOL     OW58361   2.625  10.493   2.879 -0.3328  0.3125 -0.0022
16528SOL    HW158362   2.706  10.462   2.839 -0.3954  0.3772 -0.1799
16528SOL    HW258363   2.639  10.481   2.973  0.7494  2.3016  0.1468
16529SOL     OW58364   6.732   9.841   8.977 -0.1084 -0.5528 -0.1370
16529SOL    HW158365   6.734   9.747   8.993  0.3807 -0.4437  0.5249
16529SOL    HW258366   6.690   9.877   9.055 -1.0862 -0.2866 -0.7701
16530SOL     OW58367   6.330   8.795   1.742 -0.0635 -0.2712 -0.3921
16530SOL    HW158368   6.304   8.710   1.706 -0.0573 -0.3188 -0.2822
16530SOL    HW258369   6.403   8.823   1.686  0.4073 -0.6709  0.0172
16531SOL     OW58370   9.541  12.542   3.015 -0.1956 -0.0351  0.1268
16531SOL    HW158371   9.473  12.540   2.947 -1.1791  0.3378  1.0737
16531SOL    HW258372   9.523  12.465   3.069 -0.4940  0.6068  0.9619
16532SOL     OW58373   2.831   5.327   1.912 -0.0351 -0.0808  0.8994
16532SOL    HW158374   2.759   5.320   1.850  0.2325  0.2152  0.5440
16532SOL    HW258375   2.910   5.330   1.857  0.0924  2.6406  1.0563
16533SOL     OW58376   0.006  10.405   3.778 -0.6877 -0.3321 -0.2046
16533SOL    HW158377   0.046  10.318   3.772 -0.3982 -0.1924 -0.3121
16533SOL    HW258378  -0.029  10.421   3.691 -0.5107 -0.2309 -0.2566
16534SOL     OW58379   2.367   1.225  12.047  0.5932 -0.4181  0.0617
16534SOL    HW158380   2.277   1.257  12.038  0.7639 -0.1135 -0.5433
16534SOL    HW258381   2.361   1.132  12.023  0.8506  0.1256 -2.3522
16535SOL     OW58382   7.919   7.348   8.706 -0.3636  0.0197  0.5701
16535SOL    HW158383   7.857   7.312   8.769 -1.6796  0.5790 -0.3627
16535SOL    HW258384   7.907   7.443   8.713  1.8761  0.2851  1.8246
16536SOL     OW58385   7.406   4.830   7.646 -0.6899 -0.6578 -0.6923
16536SOL    HW158386   7.403   4.923   7.624 -1.2163 -0.7865 -1.1937
16536SOL    HW258387   7.495   4.803   7.624 -0.8150 -0.4820 -1.4243
16537SOL     OW58388   2.604   7.181   5.673  0.3276  0.3128 -0.0782
16537SOL    HW158389   2.674   7.194   5.737 -2.0322 -2.2785  3.3902
16537SOL    HW258390   2.588   7.087   5.674 -2.6596  0.7019 -1.2683
16538SOL     OW58391   2.094   7.028   3.067  0.2555 -0.5869 -0.1751
16538SOL    HW158392   2.106   7.036   3.162 -0.2665 -0.4525 -0.1129
16538SOL    HW258393   1.999   7.025   3.056  0.3067 -0.3303 -0.7142
16539SOL     OW58394  10.446   4.387   8.541  0.1791 -0.4339 -0.2840
16539SOL    HW158395  10.452   4.373   8.447 -0.4728 -2.5253 -0.0529
16539SOL    HW258396  10.532   4.361   8.575  0.8116  1.3821 -0.3603
16540SOL     OW58397   0.556   1.110  10.643 -0.2109  0.2118  0.2130
16540SOL    HW158398   0.466   1.124  10.673 -0.5884 -0.5082 -0.5204
16540SOL    HW258399   0.554   1.023  10.603  1.4074 -0.9068  2.3528
16541SOL     OW58400   7.415   6.474   4.950  0.1950 -0.2586 -0.2228
16541SOL    HW158401   7.484   6.522   4.996 -1.5812  1.1589  1.1363
16541SOL    HW258402   7.406   6.520   4.866  0.6651 -0.2404 -0.2667
16542SOL     OW58403   6.800   6.564   8.148 -0.2496  0.3369 -0.2383
16542SOL    HW158404   6.763   6.517   8.073  0.0775 -1.6971  0.8145
16542SOL    HW258405   6.768   6.654   8.137 -3.3385 -0.7020 -0.8093
16543SOL     OW58406   3.522   7.435   9.776  0.2124  0.6377  0.4546
16543SOL    HW158407   3.615   7.435   9.750 -0.5643  0.0333 -2.7726
16543SOL    HW258408   3.521   7.479   9.861  3.4285  0.7195  0.5932
16544SOL     OW58409   3.127   1.354   6.800 -0.1125  0.1029 -0.2869
16544SOL    HW158410   3.132   1.378   6.708  0.6973  1.4046  0.0738
16544SOL    HW258411   3.115   1.437   6.846 -1.2920 -0.6100  0.7362
16545SOL     OW58412   5.236   1.554   5.938  0.2228  0.1779 -0.1816
16545SOL    HW158413   5.329   1.565   5.916  0.2462 -0.2554 -0.3070
16545SOL    HW258414   5.195   1.636   5.911  0.3754 -0.0682 -1.1856
16546SOL     OW58415   7.414  10.044  11.050  0.2762 -0.3277  0.2460
16546SOL    HW158416   7.479  10.076  11.113 -0.8785  0.5958  1.0165
16546SOL    HW258417   7.381   9.964  11.090 -1.7051  1.1439  1.7944
16547SOL     OW58418   9.616   7.624  11.516 -0.2742 -0.1703  0.4308
16547SOL    HW158419   9.642   7.624  11.424  0.1616  0.1131  0.5481
16547SOL    HW258420   9.573   7.540  11.530  1.3759 -1.0296  0.4523
16548SOL     OW58421   9.762   5.086  12.040 -0.1793  0.0150 -0.0804
16548SOL    HW158422   9.701   5.033  11.989  1.4835 -2.6311  0.4892
16548SOL    HW258423   9.767   5.041  12.125  2.3380  0.2220 -0.0365
16549SOL     OW58424   3.997   5.316   5.543 -0.2675 -0.0462 -0.5556
16549SOL    HW158425   3.971   5.225   5.533  1.0824 -0.4998 -0.2131
16549SOL    HW258426   4.055   5.333   5.468  2.2342 -0.5651  1.1300
16550SOL     OW58427   3.394   4.580   6.685  0.0396 -0.9363 -0.1974
16550SOL    HW158428   3.378   4.630   6.765 -1.2083 -1.7980  0.1346
16550SOL    HW258429   3.332   4.507   6.690 -0.6219 -0.5885 -2.3417
16551SOL     OW58430  12.562   6.620   7.271  0.3322 -0.3051 -0.2487
16551SOL    HW158431  12.531   6.672   7.197 -1.0100  1.6620  1.5437
16551SOL    HW258432  12.538   6.672   7.348  3.1883 -1.3916  1.5478
16552SOL     OW58433   7.600   6.334   5.939  0.3249 -0.1806 -0.2785
16552SOL    HW158434   7.571   6.392   5.868 -1.0006 -0.1149  0.2733
16552SOL    HW258435   7.615   6.392   6.013 -0.4613 -0.4669  0.1169
16553SOL     OW58436  10.001   7.382   6.775 -0.4594 -0.2547  0.2893
16553SOL    HW158437  10.029   7.349   6.689  0.2049  2.4832 -0.6552
16553SOL    HW258438  10.079   7.423   6.812 -1.4151  1.0853  0.9147
16554SOL     OW58439   1.788   6.589   1.162  0.2538  0.0833  0.2899
16554SOL    HW158440   1.811   6.641   1.085 -0.0036 -2.5774 -1.7113
16554SOL    HW258441   1.698   6.617   1.184  0.5015  1.1883 -0.0361
16555SOL     OW58442   6.481   6.438   5.871 -0.1721 -0.0791  0.1992
16555SOL    HW158443   6.394   6.477   5.866  0.2367  0.7677 -0.8163
16555SOL    HW258444   6.534   6.504   5.917  0.4171  0.3931 -1.1024
16556SOL     OW58445   9.044   0.064   2.759  0.7755  0.2524  0.0189
16556SOL    HW158446   9.042   0.159   2.743 -1.8940  0.2495  0.0443
16556SOL    HW258447   9.030   0.025   2.673  1.5709 -0.1392  0.0596
16557SOL     OW58448  12.132   1.201   1.587  0.0200  0.1806  0.0731
16557SOL    HW158449  12.112   1.294   1.582  0.2288  0.4547  2.8602
16557SOL    HW258450  12.065   1.166   1.646  1.3583 -0.9496  0.9792
16558SOL     OW58451   1.649   0.624   3.115 -0.1527  0.4903  0.0050
16558SOL    HW158452   1.563   0.582   3.107 -0.0235  0.3203 -0.5235
16558SOL    HW258453   1.712   0.554   3.103  0.0824  0.3953  1.5688
16559SOL     OW58454   2.126   4.253   8.975 -0.4564  0.8431 -0.1605
16559SOL    HW158455   2.047   4.198   8.978 -0.1332  0.3399 -0.5617
16559SOL    HW258456   2.156   4.246   8.884 -1.3893  3.1102 -0.7030
16560SOL     OW58457   1.655  10.867   5.247  0.7878 -0.1247  0.1609
16560SOL    HW158458   1.643  10.856   5.153  0.1398 -1.3759  0.3707
16560SOL    HW258459   1.568  10.855   5.285  0.8364  1.4243  0.8533
16561SOL     OW58460   2.397   2.044   5.872  0.3796  1.0523  0.3094
16561SOL    HW158461   2.355   2.090   5.946 -0.4942 -2.5079  2.2920
16561SOL    HW258462   2.478   2.008   5.909 -0.3431 -1.2705 -0.1478
16562SOL     OW58463   5.253   1.973   7.525  0.2727  0.2947  0.0018
16562SOL    HW158464   5.297   1.979   7.610 -0.0391 -0.1462  0.1947
16562SOL    HW258465   5.169   2.016   7.538  1.5939  3.5589 -1.0602
16563SOL     OW58466   4.340  11.110   1.634 -0.5544 -0.0156  0.5973
16563SOL    HW158467   4.320  11.105   1.540  1.0323 -2.8629  0.3065
16563SOL    HW258468   4.385  11.028   1.654 -2.8251 -0.5954  4.3893
16564SOL     OW58469   7.677   1.744  12.557 -0.2622  0.4833 -0.0859
16564SOL    HW158470   7.702   1.832  12.528  0.7980  0.5173  0.8469
16564SOL    HW258471   7.600   1.758  12.612  1.4953  1.2739  2.4172
16565SOL     OW58472  10.048   2.964   5.273  0.0952  0.3993  0.4044
16565SOL    HW158473   9.973   2.935   5.221  1.0053  0.6616 -1.1272
16565SOL    HW258474  10.016   2.963   5.364 -1.6520  0.2107 -0.1644
16566SOL     OW58475   5.402   7.273   9.905  0.7643 -0.1897 -0.5223
16566SOL    HW158476   5.451   7.290   9.985  2.0370 -0.1865 -1.2812
16566SOL    HW258477   5.451   7.318   9.836  1.7347 -3.0461 -1.8766
16567SOL     OW58478   9.851   0.617   2.402  0.2052  0.1204 -0.3864
16567SOL    HW158479   9.810   0.530   2.405 -0.3143  0.4041  1.2122
16567SOL    HW258480   9.794   0.673   2.453  1.9303  0.8030  0.9082
16568SOL     OW58481   8.848   3.149  10.390  0.2704 -0.0848  0.2151
16568SOL    HW158482   8.756   3.131  10.375  0.5782 -0.5972 -1.1722
16568SOL    HW258483   8.854   3.168  10.484 -1.3957  0.9891  0.1318
16569SOL     OW58484   0.729  12.552   0.500 -0.3135  0.8232  0.6992
16569SOL    HW158485   0.808  12.499   0.515  0.1625  1.6443  1.1525
16569SOL    HW258486   0.663  12.513   0.557 -0.5409 -0.4797 -0.3867
16570SOL     OW58487   5.579   7.801   7.867  0.2113 -0.5159 -0.1697
16570SOL    HW158488   5.604   7.718   7.828 -0.5646 -0.3041 -1.1347
16570SOL    HW258489   5.485   7.795   7.879  0.2475 -0.0397  0.4084
16571SOL     OW58490   0.753   6.608   0.655 -0.4318 -0.2461 -0.1132
16571SOL    HW158491   0.700   6.570   0.726  0.0963  1.4173  1.2266
16571SOL    HW258492   0.711   6.692   0.636  0.9758  0.5254  0.1008
16572SOL     OW58493   1.575   0.962   8.974  0.2087 -0.4755 -0.3836
16572SOL    HW158494   1.647   0.903   8.952  0.8329 -0.2295  0.8994
16572SOL    HW258495   1.615   1.049   8.978 -0.3291 -0.2168 -0.4886
16573SOL     OW58496   0.713   3.096   1.635 -0.0497 -0.1001  0.4463
16573SOL    HW158497   0.802   3.072   1.611 -0.0392 -0.4957  0.8587
16573SOL    HW258498   0.685   3.027   1.696 -0.0414  0.9225  1.6443
16574SOL     OW58499   2.851   7.593  10.507 -0.4017  0.7024  0.0574
16574SOL    HW158500   2.766   7.612  10.467 -0.8310 -0.7658  0.2102
16574SOL    HW258501   2.893   7.678  10.516  0.4503  1.1279 -5.0099
16575SOL     OW58502   4.287  11.846  11.350  0.0989  0.5678 -0.1275
16575SOL    HW158503   4.301  11.891  11.266 -0.2858  0.3256 -0.3259
16575SOL    HW258504   4.325  11.759  11.337 -0.1266  0.4680 -0.1094
16576SOL     OW58505  12.014   8.393   4.681  0.1067 -0.0730  0.1018
16576SOL    HW158506  11.973   8.343   4.751  1.7645 -0.6124  0.7275
16576SOL    HW258507  12.100   8.416   4.715  0.9697 -0.3601 -1.7504
16577SOL     OW58508   8.997   7.675   3.695 -0.3149  0.3777  0.0233
16577SOL    HW158509   9.052   7.723   3.757  0.4862  0.7325 -0.9361
16577SOL    HW258510   8.934   7.739   3.665 -1.0596  0.0596  0.8677
16578SOL     OW58511   3.052  12.201   2.620 -0.1283 -0.2613  0.0754
16578SOL    HW158512   3.110  12.257   2.569  0.3927 -0.6246  0.2649
16578SOL    HW258513   3.096  12.191   2.704 -0.3676 -0.7094  0.1487
16579SOL     OW58514   9.068   0.943   3.141  0.2937 -0.0385 -0.2027
16579SOL    HW158515   9.004   0.991   3.194  1.2225  1.6831 -0.5858
16579SOL    HW258516   9.081   0.860   3.188 -1.8308 -0.2375  0.1306
16580SOL     OW58517   9.914   2.915   6.797  0.2379  0.9348 -0.0022
16580SOL    HW158518   9.879   2.830   6.823 -0.0203  1.4335  1.3301
16580SOL    HW258519   9.984   2.933   6.859  0.5846  1.5086 -0.5435
16581SOL     OW58520  10.043  10.020  10.983 -0.4694 -0.1946  0.8128
16581SOL    HW158521  10.065  10.111  10.966 -0.6940 -0.3768 -0.5770
16581SOL    HW258522   9.952  10.022  11.013 -0.0855  0.1279  2.0250
16582SOL     OW58523   7.641   1.538   6.011  0.7475  0.5156 -0.2381
16582SOL    HW158524   7.563   1.590   5.991  0.5728  0.2987 -0.1393
16582SOL    HW258525   7.657   1.554   6.104 -0.3918 -0.9951  0.2664
16583SOL     OW58526   9.639   7.228   2.027  0.3171 -0.0742 -0.2275
16583SOL    HW158527   9.606   7.138   2.033  0.7428 -0.3745 -1.9255
16583SOL    HW258528   9.732   7.221   2.049  0.5601 -0.2183 -1.2638
16584SOL     OW58529   4.469   2.203   7.771 -0.1605  0.2455 -1.3074
16584SOL    HW158530   4.524   2.268   7.814 -0.7775 -0.7261  1.1202
16584SOL    HW258531   4.527   2.128   7.757 -0.7546 -0.8320  1.3800
16585SOL     OW58532   2.473   2.102  12.366  0.0413 -0.3225  0.2005
16585SOL    HW158533   2.489   2.173  12.305 -0.7337 -0.7804 -0.5616
16585SOL    HW258534   2.377   2.094  12.370  0.1141 -1.8410 -0.3652
16586SOL     OW58535   5.269  10.103   4.836 -0.0166 -0.6170  0.4743
16586SOL    HW158536   5.228  10.019   4.815 -1.8931  0.2600  0.4669
16586SOL    HW258537   5.212  10.169   4.796  1.5094  0.6783  0.3306
16587SOL     OW58538  10.906   6.659   2.732  0.2333  0.1363 -0.2290
16587SOL    HW158539  10.915   6.653   2.827 -0.6411 -0.1475 -0.1511
16587SOL    HW258540  10.848   6.586   2.709 -2.2636  2.0905 -0.5546
16588SOL     OW58541   4.013   7.686   1.584  0.4258  0.3135  0.6919
16588SOL    HW158542   3.939   7.629   1.602  1.3479 -1.5664 -1.0121
16588SOL    HW258543   3.977   7.775   1.587 -1.5397 -0.4573  1.3304
16589SOL     OW58544   3.262   3.297   4.022  0.2551  0.0632  0.4428
16589SOL    HW158545   3.312   3.216   4.031 -0.4666 -0.4485 -0.0745
16589SOL    HW258546   3.316   3.363   4.066 -0.1618 -1.0891  2.8918
16590SOL     OW58547   1.525   5.498  11.796  0.0862 -0.5751 -0.0589
16590SOL    HW158548   1.551   5.430  11.858 -0.0663 -0.4712  0.1213
16590SOL    HW258549   1.572   5.576  11.825 -0.9951 -0.1888  0.7356
16591SOL     OW58550   3.166   9.784   4.939 -0.4148 -0.1334  0.2072
16591SOL    HW158551   3.169   9.874   4.973 -0.7227  0.1076 -0.3750
16591SOL    HW258552   3.177   9.729   5.016 -0.8279  0.3984  0.6609
16592SOL     OW58553   2.705   6.152   4.203  0.0846 -0.0571 -0.2423
16592SOL    HW158554   2.730   6.128   4.114  0.2165 -0.7553 -0.0198
16592SOL    HW258555   2.618   6.113   4.215  0.2945 -0.4081  0.1184
16593SOL     OW58556   4.856  11.036   9.294 -0.5388  0.1722 -0.2357
16593SOL    HW158557   4.775  11.058   9.341  0.1173  0.2472  0.8903
16593SOL    HW258558   4.925  11.083   9.341  0.0875  0.6365 -1.5920
16594SOL     OW58559   2.669   1.459   5.555 -0.1173  0.2998 -0.2759
16594SOL    HW158560   2.596   1.479   5.613  1.8801 -0.6312  2.7436
16594SOL    HW258561   2.676   1.364   5.556 -0.4998  0.1730 -2.7988
16595SOL     OW58562   1.430   6.391   0.781  0.1884 -0.6743 -0.1150
16595SOL    HW158563   1.498   6.415   0.719  0.7875 -1.0430  0.3866
16595SOL    HW258564   1.417   6.297   0.767  1.2150 -1.0308  1.1477
16596SOL     OW58565   8.122   7.372   2.055 -0.1246 -0.2539 -0.2193
16596SOL    HW158566   8.087   7.459   2.035  1.2961  0.8526  1.6894
16596SOL    HW258567   8.188   7.388   2.122  0.7468 -2.7512 -0.3757
16597SOL     OW58568   6.054   7.565   1.692  0.5712 -0.4028  0.9433
16597SOL    HW158569   5.989   7.557   1.622  0.6931  1.5320  0.5339
16597SOL    HW258570   6.005   7.545   1.772 -0.4289  0.4703  0.5853
16598SOL     OW58571   2.320   6.060   8.563 -0.0596  0.2230  0.1154
16598SOL    HW158572   2.375   6.128   8.525  0.2374 -0.3299 -0.4665
16598SOL    HW258573   2.330   6.070   8.658  0.0057  0.9622  0.0325
16599SOL     OW58574   4.029   6.006   3.341  0.5466  0.3174  0.1788
16599SOL    HW158575   4.078   5.961   3.410 -0.5386 -1.4654 -0.1363
16599SOL    HW258576   4.096   6.031   3.277  1.4117  0.8697  1.2594
16600SOL     OW58577   4.719   8.811   7.178  0.0102  0.2960 -0.3986
16600SOL    HW158578   4.640   8.831   7.229  0.6897 -0.0577  0.8226
16600SOL    HW258579   4.708   8.860   7.097 -0.4910  1.9503  0.6230
16601SOL     OW58580   5.207   8.187  12.236 -0.0301  0.0674 -0.2256
16601SOL    HW158581   5.240   8.200  12.325 -0.3842  2.6473 -0.3819
16601SOL    HW258582   5.128   8.241  12.233  0.3047  0.4960 -2.2670
16602SOL     OW58583   4.061   2.760   0.173  0.6574  0.3358 -0.2331
16602SOL    HW158584   4.137   2.791   0.222  0.8769  1.1523 -1.0410
16602SOL    HW258585   4.029   2.838   0.127 -0.0667 -0.2096 -0.6857
16603SOL     OW58586  11.875   8.570   3.109  0.3481  0.0094  0.0435
16603SOL    HW158587  11.931   8.573   3.187  0.2895  2.2809  0.0602
16603SOL    HW258588  11.933   8.591   3.036  0.2338 -1.3143 -0.4678
16604SOL     OW58589  10.527  10.032   5.010  0.3348 -0.4171 -0.1249
16604SOL    HW158590  10.464   9.965   4.987 -0.4624 -0.1865  1.2464
16604SOL    HW258591  10.474  10.106   5.040  1.2060 -0.5081  1.8339
16605SOL     OW58592  11.256   6.058   8.919  0.3114 -0.1867 -0.1815
16605SOL    HW158593  11.214   6.117   8.856  0.8854  0.8643  0.3963
16605SOL    HW258594  11.324   6.015   8.869 -0.0179 -0.2555 -0.5770
16606SOL     OW58595   8.127   3.106  10.271 -0.0724 -0.2694  0.2941
16606SOL    HW158596   8.190   3.079  10.338 -1.4295 -0.9718  1.3482
16606SOL    HW258597   8.120   3.029  10.214  0.1762 -0.1208  0.0655
16607SOL     OW58598  11.229   7.894   1.430 -0.4047  0.7888 -0.1145
16607SOL    HW158599  11.133   7.885   1.430 -0.3119 -1.0775 -2.6117
16607SOL    HW258600  11.247   7.963   1.366 -0.0420  1.1572  0.3708
16608SOL     OW58601   6.174   0.341   8.254  0.1393  0.1164  0.3249
16608SOL    HW158602   6.083   0.312   8.260  0.2092 -0.0966  0.3556
16608SOL    HW258603   6.225   0.272   8.297  0.3310  0.1491  0.1551
16609SOL     OW58604  10.461   8.692  10.895 -0.3998 -0.9782  0.9582
16609SOL    HW158605  10.373   8.700  10.859 -0.2200 -1.7213  0.3168
16609SOL    HW258606  10.456   8.615  10.952  0.0348 -1.5792  0.2190
16610SOL     OW58607   4.328   8.491   3.016  0.7391 -0.1168  0.0691
16610SOL    HW158608   4.354   8.510   2.926 -1.8936  0.1001 -0.7297
16610SOL    HW258609   4.310   8.577   3.055  1.2978 -0.2464  0.6364
16611SOL     OW58610   6.774   9.622  12.128  0.5287  0.1395 -0.4065
16611SOL    HW158611   6.683   9.596  12.147  0.8738 -0.4978  0.4468
16611SOL    HW258612   6.780   9.713  12.156 -0.3099  0.7597 -2.0954
16612SOL     OW58613   6.852   8.622   0.956  0.0839  0.6303 -0.2509
16612SOL    HW158614   6.846   8.530   0.983 -0.2874  0.2670 -1.5127
16612SOL    HW258615   6.857   8.670   1.038 -1.0340 -0.4248  0.4753
16613SOL     OW58616   6.617  12.384   8.132  0.2197 -0.3791  0.4363
16613SOL    HW158617   6.563  12.387   8.053 -0.0682 -0.9950  0.6033
16613SOL    HW258618   6.557  12.355   8.201  0.0083  1.8758  1.2826
16614SOL     OW58619   2.041   2.723  10.273  0.9811  0.5760 -0.3099
16614SOL    HW158620   2.026   2.708  10.180  2.4647 -2.3265 -0.2019
16614SOL    HW258621   1.954   2.732  10.311  0.1878 -1.1419 -1.5987
16615SOL     OW58622   9.201   9.623  10.663  0.2969  0.1672 -0.1383
16615SOL    HW158623   9.139   9.602  10.732 -1.2242 -0.1751 -1.5403
16615SOL    HW258624   9.213   9.718  10.670 -1.6660  0.5125 -0.7996
16616SOL     OW58625   5.502   9.899   1.285 -0.5654  0.6500  0.5813
16616SOL    HW158626   5.450   9.977   1.264 -1.1251  0.7141  2.0947
16616SOL    HW258627   5.505   9.897   1.381  1.9335  0.4358  0.5709
16617SOL     OW58628   0.945   5.186   1.524 -0.2782 -0.3504  0.7495
16617SOL    HW158629   0.956   5.104   1.476 -0.1746 -1.1928  2.1756
16617SOL    HW258630   0.853   5.209   1.511 -0.0477 -0.0895 -0.5551
16618SOL     OW58631   7.942   1.821   3.844 -0.1876 -1.0853 -0.0138
16618SOL    HW158632   8.008   1.753   3.858  2.7191  1.0778 -1.9982
16618SOL    HW258633   7.911   1.806   3.755  0.7226  0.2975 -0.5906
16619SOL     OW58634   0.617   7.148  10.982 -0.4838 -0.2095  0.4885
16619SOL    HW158635   0.627   7.054  11.001 -0.7880 -0.6905 -1.4686
16619SOL    HW258636   0.522   7.161  10.977 -0.5016 -0.6911 -2.7854
16620SOL     OW58637   3.587  10.737   8.425 -0.3430 -0.0602  0.4121
16620SOL    HW158638   3.572  10.701   8.512 -2.6132  0.7612  0.4302
16620SOL    HW258639   3.540  10.820   8.425 -1.6253 -0.6854 -2.0086
16621SOL     OW58640  10.983   1.127   4.491 -0.1438  0.3707 -0.2562
16621SOL    HW158641  10.939   1.072   4.556 -0.8040  1.8111  0.5648
16621SOL    HW258642  11.021   1.065   4.429 -3.0941 -0.9693 -0.8777
16622SOL     OW58643   2.402   1.535   3.566 -0.0539 -0.3111 -0.6988
16622SOL    HW158644   2.452   1.480   3.506  2.1137  0.8417 -0.0788
16622SOL    HW258645   2.342   1.584   3.510  0.2327 -0.9971 -1.6236
16623SOL     OW58646  11.480   5.179   7.260  0.3564  0.0982  0.1498
16623SOL    HW158647  11.459   5.253   7.317  2.8232  2.9022 -2.2168
16623SOL    HW258648  11.560   5.142   7.296  0.3097 -0.0119  0.1413
16624SOL     OW58649   1.164   4.814   3.199 -0.1843 -0.4106  0.1809
16624SOL    HW158650   1.247   4.861   3.206  1.4267 -2.4364 -3.1086
16624SOL    HW258651   1.123   4.849   3.119 -1.5157 -0.9309  0.6020
16625SOL     OW58652   7.666   4.227   4.577 -0.6356  0.4426  0.0627
16625SOL    HW158653   7.718   4.245   4.656 -2.0332 -0.3959  1.2059
16625SOL    HW258654   7.624   4.311   4.557 -0.5597  0.5698  0.4216
16626SOL     OW58655   3.599  12.562   9.768  0.1475 -0.0883 -0.0459
16626SOL    HW158656   3.558  12.476   9.758 -0.9729  0.5121 -0.8991
16626SOL    HW258657   3.690  12.549   9.741 -0.1430 -0.9048 -0.6472
16627SOL     OW58658   4.427  12.607   7.045  0.1076  0.1863 -0.6876
16627SOL    HW158659   4.455  12.524   7.007  0.2518  0.4484 -1.1714
16627SOL    HW258660   4.479  12.616   7.125 -0.8232 -0.7828  0.0444
16628SOL     OW58661  10.259   1.246   7.885 -0.3430 -0.5075  0.4202
16628SOL    HW158662  10.348   1.265   7.855 -0.3639  0.6220  1.0247
16628SOL    HW258663  10.212   1.328   7.874 -0.4135 -0.0872  3.2941
16629SOL     OW58664  11.896   7.931   0.715 -0.1300  0.0622 -0.6267
16629SOL    HW158665  11.960   7.892   0.775 -0.3352 -0.9107 -1.0221
16629SOL    HW258666  11.830   7.969   0.773 -2.0183 -3.5801 -0.0607
16630SOL     OW58667   7.106   7.696  11.926 -0.2437  0.2526 -0.2259
16630SOL    HW158668   7.129   7.605  11.946 -0.0389  0.0794 -1.1807
16630SOL    HW258669   7.011   7.700  11.936 -0.0290  0.5888  2.2825
16631SOL     OW58670  12.414   9.044   5.814 -0.0692 -0.0623 -0.4647
16631SOL    HW158671  12.333   9.011   5.853 -0.3962 -0.4716 -1.4729
16631SOL    HW258672  12.413   9.011   5.725  0.3644  1.3776 -1.0382
16632SOL     OW58673   2.298   9.134   0.565  0.7142  0.0968  0.2764
16632SOL    HW158674   2.370   9.071   0.559  0.9118  0.3149  0.3410
16632SOL    HW258675   2.234   9.105   0.500  0.6643 -0.3531  0.5229
16633SOL     OW58676   8.361  10.685   0.775  0.7120  0.6311  0.0435
16633SOL    HW158677   8.318  10.742   0.711 -0.4286 -0.6204 -0.3371
16633SOL    HW258678   8.325  10.712   0.860  0.3809  0.6646 -0.1063
16634SOL     OW58679  11.626   7.277   0.405 -0.5248  0.1460 -0.5585
16634SOL    HW158680  11.666   7.332   0.338  0.5061  0.3428  0.1925
16634SOL    HW258681  11.670   7.302   0.487 -3.4470  1.6852  0.6740
16635SOL     OW58682   6.311  10.569  10.888 -0.1768  0.4326 -0.3356
16635SOL    HW158683   6.315  10.635  10.818  0.7829  0.1973 -0.5092
16635SOL    HW258684   6.236  10.596  10.941 -0.1395  1.3506 -0.7230
16636SOL     OW58685   1.963   9.753   9.611 -0.3613 -0.3417 -0.2467
16636SOL    HW158686   1.954   9.826   9.672 -0.7433 -0.4898 -0.1248
16636SOL    HW258687   1.987   9.794   9.528  0.1686 -0.1383 -0.0015
16637SOL     OW58688  11.347   3.004  12.117  0.0539  0.4162  0.2062
16637SOL    HW158689  11.322   2.986  12.026  2.8967  1.0666 -0.8125
16637SOL    HW258690  11.297   2.941  12.168 -3.1465  1.2831 -1.5451
16638SOL     OW58691   8.260  10.343   7.652  0.1338 -0.7400  0.1092
16638SOL    HW158692   8.194  10.366   7.717 -0.3644 -4.4919  1.2070
16638SOL    HW258693   8.225  10.375   7.570 -1.2346  0.5910  1.1538
16639SOL     OW58694  11.346   1.341   7.559 -0.1112  0.1051  0.1365
16639SOL    HW158695  11.255   1.314   7.545 -0.3811  0.5448  1.0173
16639SOL    HW258696  11.384   1.343   7.471 -1.4848  1.8013 -0.4854
16640SOL     OW58697  10.591   3.969   1.742  0.5117  0.6747  0.4046
16640SOL    HW158698  10.675   3.926   1.757 -0.6763 -2.7344 -1.4903
16640SOL    HW258699  10.532   3.929   1.806 -0.6015 -0.4931 -1.2639
16641SOL     OW58700  12.107   6.191   7.214 -0.0429 -0.8561 -0.1080
16641SOL    HW158701  12.192   6.211   7.177 -1.2962  3.0790 -1.3239
16641SOL    HW258702  12.064   6.135   7.148  1.0445 -1.7291 -0.1026
16642SOL     OW58703  11.568   8.622  10.715 -0.6481 -0.4939  0.2522
16642SOL    HW158704  11.560   8.527  10.702 -1.6123 -0.2871 -0.8222
16642SOL    HW258705  11.519   8.660  10.642  0.5508  0.8521  0.1136
16643SOL     OW58706  10.484  10.674  12.515  0.1625  1.0703 -0.0552
16643SOL    HW158707  10.479  10.737  12.586 -1.3041  0.4460  0.4394
16643SOL    HW258708  10.490  10.727  12.436  0.0735  1.8093  0.4296
16644SOL     OW58709   5.062  10.574   1.141 -0.0393 -0.6726 -0.4133
16644SOL    HW158710   5.041  10.481   1.137 -0.2410 -0.5991 -1.0548
16644SOL    HW258711   5.050  10.606   1.052  0.8823 -0.2179 -0.3946
16645SOL     OW58712   0.565   3.530  10.323 -0.0714 -0.0383 -0.0569
16645SOL    HW158713   0.659   3.512  10.331 -0.5779 -2.4709  1.8153
16645SOL    HW258714   0.528   3.496  10.404 -2.5985  0.8873 -0.7369
16646SOL     OW58715  12.308  10.220  11.334 -0.0150 -0.1632 -0.1846
16646SOL    HW158716  12.264  10.148  11.289 -0.5096 -0.4937  0.7843
16646SOL    HW258717  12.239  10.262  11.385  0.5293  0.1512  0.3074
16647SOL     OW58718   7.447  12.282  12.214  0.3242 -0.0858  0.0067
16647SOL    HW158719   7.383  12.352  12.200  0.5246 -0.1053 -1.1273
16647SOL    HW258720   7.436  12.257  12.305  0.8173  2.0002  0.7013
16648SOL     OW58721   8.181   9.636   4.322 -0.3690 -0.1518  0.2271
16648SOL    HW158722   8.233   9.661   4.246  1.3203 -0.5659  1.2095
16648SOL    HW258723   8.129   9.714   4.341  0.9160  0.7755  0.0587
16649SOL     OW58724   0.748   3.761   0.123  0.0365  0.3438 -0.4447
16649SOL    HW158725   0.838   3.738   0.100  0.4255  0.8329  0.5523
16649SOL    HW258726   0.720   3.819   0.052  0.6147  0.4469 -0.5954
16650SOL     OW58727   4.565   8.483   0.036 -0.0497  0.5443 -0.7109
16650SOL    HW158728   4.533   8.410  -0.018 -0.3317 -1.0129  1.4492
16650SOL    HW258729   4.652   8.454   0.065  0.8776  2.1597 -1.7200
16651SOL     OW58730   8.170   2.892  10.733  0.1861 -0.2399  0.2338
16651SOL    HW158731   8.189   2.983  10.754 -0.5125  0.1086 -0.6326
16651SOL    HW258732   8.102   2.867  10.796 -1.5057  0.6380 -1.1755
16652SOL     OW58733   9.142   7.147   1.550 -0.0034  0.4486 -0.4518
16652SOL    HW158734   9.132   7.056   1.580  0.4836  0.8396  1.0152
16652SOL    HW258735   9.086   7.153   1.473 -0.4110 -0.9791 -0.3061
16653SOL     OW58736   2.952   3.968   4.208 -0.1601  0.1625  0.2390
16653SOL    HW158737   2.999   3.887   4.225  1.0377  0.7308 -0.2219
16653SOL    HW258738   2.897   3.981   4.285 -0.0927 -0.8916  0.4764
16654SOL     OW58739   7.641   2.670   1.212  0.3483 -0.1336 -0.1222
16654SOL    HW158740   7.651   2.765   1.202  1.5232 -0.2281 -0.0482
16654SOL    HW258741   7.568   2.660   1.273 -1.2900  0.6395 -1.8582
16655SOL     OW58742   6.632   8.431   8.860  0.2267  0.1360 -0.0478
16655SOL    HW158743   6.559   8.435   8.922 -0.5355 -1.3087 -0.8035
16655SOL    HW258744   6.672   8.518   8.864 -1.9010  1.1761 -0.0358
16656SOL     OW58745  10.871  11.999   9.732 -0.2122 -0.1950 -0.0681
16656SOL    HW158746  10.929  11.975   9.805 -0.6236 -1.8157 -0.2294
16656SOL    HW258747  10.788  11.955   9.751 -1.0142  1.0965 -0.4615
16657SOL     OW58748   4.904   4.640   1.559 -0.4389 -0.1394  0.0439
16657SOL    HW158749   4.902   4.553   1.518  0.5186  0.0544 -0.4585
16657SOL    HW258750   4.914   4.622   1.653  2.7626 -0.6255 -0.2780
16658SOL     OW58751   8.900   7.254   8.337 -0.4033 -0.0791  0.6800
16658SOL    HW158752   8.834   7.311   8.297 -0.9044 -0.4141  1.0262
16658SOL    HW258753   8.983   7.300   8.321 -0.7394  0.4707  0.4636
16659SOL     OW58754   4.902   2.164  10.836  0.2950  0.6555  0.4038
16659SOL    HW158755   4.851   2.244  10.832  0.0212  0.4506 -0.2366
16659SOL    HW258756   4.983   2.189  10.881  0.7344  1.5621 -0.8631
16660SOL     OW58757  12.058   6.210  11.199  0.0615  0.0503 -0.5314
16660SOL    HW158758  12.117   6.165  11.138 -1.2587 -3.0042  0.2542
16660SOL    HW258759  11.972   6.205  11.158 -0.6909 -1.2493  1.0583
16661SOL     OW58760   5.407  10.655   4.615  0.4584  0.4689 -0.1762
16661SOL    HW158761   5.464  10.662   4.538 -0.3795 -0.4704 -0.9153
16661SOL    HW258762   5.368  10.568   4.608 -0.3953  0.7528  0.7778
16662SOL     OW58763   2.701   9.416   1.115  0.1224 -0.1978  0.2610
16662SOL    HW158764   2.615   9.378   1.134 -0.3714  0.4318 -0.6386
16662SOL    HW258765   2.720   9.471   1.191 -1.0813  1.0156 -0.2760
16663SOL     OW58766  11.654   1.242  11.826 -0.3917 -0.4116  0.2015
16663SOL    HW158767  11.642   1.163  11.878 -2.0835 -0.4809 -0.2376
16663SOL    HW258768  11.656   1.211  11.736 -1.0749  0.0231  0.0281
16664SOL     OW58769   0.846   3.090   8.265  0.5249  0.1205  0.1905
16664SOL    HW158770   0.848   3.169   8.319 -1.1101  0.5891 -0.3697
16664SOL    HW258771   0.753   3.078   8.244  0.6706 -2.1967  0.5991
16665SOL     OW58772   1.490   2.814   0.109 -0.3367 -0.7398 -0.0947
16665SOL    HW158773   1.427   2.886   0.120 -0.8971 -1.3276  0.6673
16665SOL    HW258774   1.446   2.752   0.051 -0.2281 -0.8969 -0.0093
16666SOL     OW58775   2.881   5.509   7.535 -0.8351  0.3061 -0.1966
16666SOL    HW158776   2.951   5.527   7.597 -0.4727 -1.8450  0.1062
16666SOL    HW258777   2.914   5.541   7.451 -0.0291  0.4581  0.1773
16667SOL     OW58778   2.744   7.729   0.051  0.6960 -0.4744 -0.1484
16667SOL    HW158779   2.834   7.738   0.018  0.9825  0.2734  0.7931
16667SOL    HW258780   2.693   7.704  -0.026  1.2885  1.5186 -1.2595
16668SOL     OW58781   5.098   1.618   4.219  0.1195 -0.1666  0.2674
16668SOL    HW158782   5.011   1.591   4.249  0.3732 -2.0400 -0.5307
16668SOL    HW258783   5.158   1.586   4.286  0.2244  1.1147  0.8121
16669SOL     OW58784   0.012  11.100   6.333 -0.1513  0.4063  0.7862
16669SOL    HW158785   0.034  11.192   6.349 -0.6091  0.9476 -1.3322
16669SOL    HW258786   0.085  11.051   6.370 -0.1307  1.5700  2.3802
16670SOL     OW58787   3.404   8.585   4.008 -0.2648  0.0236  0.4701
16670SOL    HW158788   3.447   8.599   4.092  1.1572  0.1096 -0.2364
16670SOL    HW258789   3.342   8.658   4.000 -0.3903  0.0289  1.4099
16671SOL     OW58790   6.736   1.166   7.211 -0.3283  0.3253 -0.0598
16671SOL    HW158791   6.678   1.161   7.135  0.7614  0.2314 -0.9136
16671SOL    HW258792   6.805   1.227   7.184  0.1429  0.1844  0.8048
16672SOL     OW58793  10.133  10.541   5.592 -0.9661  0.3244 -0.0375
16672SOL    HW158794  10.219  10.559   5.555 -0.9219  0.3353  0.0700
16672SOL    HW258795  10.077  10.523   5.517 -0.8640  0.2945 -0.1059
16673SOL     OW58796   1.330   8.270   3.842 -0.3242 -0.1686  0.5559
16673SOL    HW158797   1.398   8.211   3.875  0.1505 -0.0341 -0.1699
16673SOL    HW258798   1.277   8.215   3.784  0.3668  0.1998 -0.4502
16674SOL     OW58799   9.585   9.271   1.607 -0.5204 -0.1732  0.0194
16674SOL    HW158800   9.675   9.300   1.624 -0.3517 -0.6089 -0.1014
16674SOL    HW258801   9.589   9.176   1.616 -1.3790 -0.0766  1.8961
16675SOL     OW58802   0.908  10.250   0.199  0.1407 -0.4749 -0.5884
16675SOL    HW158803   0.972  10.269   0.268 -0.9748 -0.6636  0.5362
16675SOL    HW258804   0.869  10.167   0.225 -2.9482  1.2074  0.6793
16676SOL     OW58805   2.890   6.972  11.637  0.3422  0.5596 -0.3362
16676SOL    HW158806   2.942   6.892  11.639 -0.3901 -0.0383 -2.4334
16676SOL    HW258807   2.936   7.033  11.695  0.9882 -1.3111  1.1922
16677SOL     OW58808   0.398   6.323   1.072  1.0224 -0.6430  0.5559
16677SOL    HW158809   0.439   6.302   0.988 -1.1277 -0.3437 -0.6421
16677SOL    HW258810   0.408   6.243   1.124  0.0082 -1.8645 -1.0282
16678SOL     OW58811   9.216   4.119   4.586 -0.8781  0.3454  0.4491
16678SOL    HW158812   9.224   4.213   4.603 -0.6160  0.2425  0.9037
16678SOL    HW258813   9.199   4.114   4.492  1.6331  0.7333 -0.1167
16679SOL     OW58814   9.812   9.341  10.466 -0.1898  0.1958  0.3707
16679SOL    HW158815   9.819   9.252  10.431  3.1632 -0.5156  2.4094
16679SOL    HW258816   9.773   9.330  10.553  1.6743  0.3757  1.2995
16680SOL     OW58817   6.372   0.284  10.845  0.3874 -0.4854  0.7579
16680SOL    HW158818   6.368   0.250  10.934  2.2660 -1.4259  0.5488
16680SOL    HW258819   6.455   0.250  10.811 -0.2502 -0.0861 -1.3264
16681SOL     OW58820  12.545  10.147   3.549 -0.3415 -0.0032  0.8517
16681SOL    HW158821  12.554  10.066   3.498  0.4930  0.4869  0.1771
16681SOL    HW258822  12.571  10.122   3.638  3.6456  0.2310 -0.0245
16682SOL     OW58823   5.905   5.270   2.882  0.2522  0.3813 -0.4146
16682SOL    HW158824   5.892   5.353   2.927  0.9163 -0.2661  1.0022
16682SOL    HW258825   5.982   5.232   2.922 -1.2273 -1.8901  0.4838
16683SOL     OW58826   1.950   2.812   2.870  0.2704  0.4191  0.0378
16683SOL    HW158827   1.899   2.850   2.799  0.7876  0.9375 -0.0620
16683SOL    HW258828   2.038   2.802   2.834  0.0988 -1.1014 -0.0122
16684SOL     OW58829  11.702  11.193   3.221  0.3150  0.8017  0.9076
16684SOL    HW158830  11.754  11.273   3.209  1.4211  0.0227  0.3973
16684SOL    HW258831  11.622  11.223   3.264  1.0311  2.0761  1.3928
16685SOL     OW58832   8.517   9.981  10.748  0.1355  0.3607 -0.3043
16685SOL    HW158833   8.532   9.927  10.670 -0.0899 -0.5217  0.2474
16685SOL    HW258834   8.426   9.962  10.772  0.8088 -0.9530  1.3450
16686SOL     OW58835   0.504   0.251   9.449 -0.2371  0.0808  0.3335
16686SOL    HW158836   0.574   0.299   9.405 -1.1056  0.6683 -0.4596
16686SOL    HW258837   0.459   0.205   9.378 -0.8884  0.0141  0.7826
16687SOL     OW58838   2.472   4.027   5.834 -0.1902  0.7399  0.0650
16687SOL    HW158839   2.391   4.072   5.810 -0.8191 -0.3731  0.0222
16687SOL    HW258840   2.502   3.987   5.753 -1.1317 -1.1791  0.6027
16688SOL     OW58841   8.062   3.330   2.807 -0.2717  0.2642 -0.0637
16688SOL    HW158842   8.096   3.243   2.787  1.3870  0.4850  1.5122
16688SOL    HW258843   8.045   3.327   2.901  1.2150  2.0513  0.3198
16689SOL     OW58844   6.636   5.167  12.405 -0.5635 -0.6772  1.0835
16689SOL    HW158845   6.610   5.247  12.449 -1.0407 -0.1161 -0.1491
16689SOL    HW258846   6.561   5.108  12.415 -1.5340  0.1724 -0.6284
16690SOL     OW58847   9.710   2.875   7.195  0.0069 -0.2924 -0.8684
16690SOL    HW158848   9.738   2.791   7.159 -0.3940 -0.7797 -0.0557
16690SOL    HW258849   9.786   2.905   7.245 -0.7302 -1.4522  1.0489
16691SOL     OW58850   9.982   2.691  12.577 -0.0027  0.2420 -0.0872
16691SOL    HW158851   9.903   2.637  12.574 -0.2709  0.6267 -0.0972
16691SOL    HW258852  10.047   2.636  12.621 -0.2959 -0.0560 -0.0180
16692SOL     OW58853   6.427   3.606   6.760  0.3300  0.1853  0.3764
16692SOL    HW158854   6.370   3.611   6.836  1.3181 -0.7753  1.2114
16692SOL    HW258855   6.389   3.537   6.705 -0.2077  0.6697  0.1240
16693SOL     OW58856   3.961   6.889   7.381  0.0279 -0.0788 -0.3663
16693SOL    HW158857   3.955   6.954   7.311  0.1785 -1.8286 -2.0826
16693SOL    HW258858   3.910   6.814   7.349 -0.8412 -0.5468  1.9030
16694SOL     OW58859   2.828  11.165   8.362  0.5787 -0.0335 -0.4444
16694SOL    HW158860   2.911  11.163   8.316  1.2385 -0.5292  0.7211
16694SOL    HW258861   2.845  11.120   8.445 -0.0310  2.5020  1.1708
16695SOL     OW58862   2.836   7.429  11.679 -0.4375 -0.7536 -0.6672
16695SOL    HW158863   2.771   7.454  11.744 -0.3125 -0.0407 -0.8087
16695SOL    HW258864   2.805   7.469  11.597 -0.2992 -1.1761 -0.9330
16696SOL     OW58865   2.609   0.089   8.479 -0.0846 -0.3898 -0.1055
16696SOL    HW158866   2.694   0.133   8.482 -0.9696  1.7628 -2.6961
16696SOL    HW258867   2.549   0.147   8.525 -0.3560 -1.5455  1.0744
16697SOL     OW58868   7.891   7.444  11.861  0.5152 -1.0943  0.1441
16697SOL    HW158869   7.845   7.403  11.788 -0.0421 -1.5459  0.7352
16697SOL    HW258870   7.821   7.479  11.916  0.9386 -0.5336  0.3330
16698SOL     OW58871   0.155   5.032   4.615  0.3110  0.3728 -0.2100
16698SOL    HW158872   0.220   4.962   4.616  0.6737  0.7005 -0.3768
16698SOL    HW258873   0.140   5.051   4.708  0.9927  0.7780 -0.1738
16699SOL     OW58874   3.784   6.967  10.498 -0.2315 -0.4110  0.3343
16699SOL    HW158875   3.858   6.977  10.557 -1.0233 -0.3918  1.3563
16699SOL    HW258876   3.748   7.055  10.489  0.7691 -0.1336 -1.4153
16700SOL     OW58877   9.165   4.674  10.780  0.4120  0.2991 -0.4114
16700SOL    HW158878   9.088   4.689  10.835  0.4061  0.8063 -0.5486
16700SOL    HW258879   9.209   4.759  10.778  0.9155  0.0420 -0.4237
16701SOL     OW58880   3.156  11.003   3.985 -0.1593  0.1214  0.1852
16701SOL    HW158881   3.136  11.011   4.078 -0.4884 -0.7224  0.1997
16701SOL    HW258882   3.145  10.910   3.967  2.0389 -0.1326 -0.1968
16702SOL     OW58883   4.840   8.101   5.261  0.2160  0.0927  0.0670
16702SOL    HW158884   4.842   8.099   5.166 -0.5995  0.7252  0.0233
16702SOL    HW258885   4.823   8.193   5.283  2.5542  0.4003  0.8816
16703SOL     OW58886   1.541  11.770   3.692  0.1145 -0.1369  0.5408
16703SOL    HW158887   1.575  11.683   3.711 -0.4512 -0.3804  0.4530
16703SOL    HW258888   1.469  11.755   3.631 -0.9265  0.2771  1.6465
16704SOL     OW58889   4.197  10.988   7.116  0.0222 -0.3048  0.4120
16704SOL    HW158890   4.231  11.053   7.055  1.3848 -1.0069  0.3852
16704SOL    HW258891   4.226  10.904   7.081 -1.0411 -0.8832  0.8632
16705SOL     OW58892   2.357   3.919   7.622 -0.3562  0.3345 -0.2036
16705SOL    HW158893   2.279   3.895   7.672 -1.5235  0.6500 -1.7895
16705SOL    HW258894   2.332   4.000   7.577  0.2918 -0.4486 -2.0303
16706SOL     OW58895   1.947   6.545  11.147 -0.0611  0.0321  0.2994
16706SOL    HW158896   1.858   6.550  11.181 -0.1265  3.4151 -0.0435
16706SOL    HW258897   1.999   6.511  11.220 -1.2195  0.6873  1.4686
16707SOL     OW58898  12.450   1.674   6.139 -0.3546  0.1989 -0.3294
16707SOL    HW158899  12.489   1.750   6.183 -1.3204  0.3125  0.3558
16707SOL    HW258900  12.451   1.604   6.205 -0.9233  0.0863 -0.4320
16708SOL     OW58901  10.966   1.768  10.472  0.7466  0.2106 -0.3783
16708SOL    HW158902  10.937   1.767  10.563  1.6007 -0.8407 -0.1003
16708SOL    HW258903  10.903   1.824  10.427 -0.2274 -0.0174  0.6732
16709SOL     OW58904   4.481   6.637  10.754 -0.0733 -0.5891  0.8974
16709SOL    HW158905   4.561   6.633  10.807  0.3662 -1.8774  0.1824
16709SOL    HW258906   4.503   6.591  10.673 -1.4859 -0.8239  0.6129
16710SOL     OW58907  11.067   1.455  11.831  0.1672 -0.1123 -0.0481
16710SOL    HW158908  11.122   1.424  11.759  0.5902  0.0579  0.1988
16710SOL    HW258909  10.980   1.422  11.810 -0.4465  2.5798 -2.3412
16711SOL     OW58910   8.738   1.108   1.110  0.3352  0.5847 -0.2882
16711SOL    HW158911   8.818   1.062   1.086 -0.0270 -0.0496 -0.3062
16711SOL    HW258912   8.678   1.039   1.139 -0.1741  1.0579 -0.1894
16712SOL     OW58913   5.494   2.553  12.406 -0.1933 -0.0748 -0.3418
16712SOL    HW158914   5.451   2.629  12.445  1.6433  0.1158  1.4970
16712SOL    HW258915   5.424   2.505  12.363 -1.8702  1.2165  0.8192
16713SOL     OW58916   5.210   8.218   1.687 -0.0113 -0.0377 -0.0542
16713SOL    HW158917   5.115   8.226   1.696 -0.0432  0.0430 -0.4640
16713SOL    HW258918   5.231   8.135   1.730 -0.3099 -0.2263 -0.2688
16714SOL     OW58919   1.665   4.181   4.409  0.4262 -0.2613 -0.2497
16714SOL    HW158920   1.754   4.148   4.417  0.8003  0.9825  1.0409
16714SOL    HW258921   1.634   4.187   4.499 -0.3777  0.8853 -0.5903
16715SOL     OW58922   1.318   1.524  12.193 -0.2974  0.4504 -0.0461
16715SOL    HW158923   1.366   1.487  12.119 -2.0212  1.7481 -1.9410
16715SOL    HW258924   1.283   1.448  12.239  0.6821 -0.3970 -0.6521
16716SOL     OW58925   6.280   6.173   1.233  0.0331  0.3885 -0.5391
16716SOL    HW158926   6.289   6.125   1.151  1.4225  1.3915 -1.0112
16716SOL    HW258927   6.361   6.224   1.241 -0.5922  1.2458  0.8463
16717SOL     OW58928   8.212   5.444   4.789  0.0983 -0.1182  0.2495
16717SOL    HW158929   8.156   5.367   4.778 -1.6764  1.2666 -0.8565
16717SOL    HW258930   8.250   5.459   4.703  0.2466  0.3836  0.4005
16718SOL     OW58931   6.131  11.478   9.616 -0.1886  0.1447 -0.2549
16718SOL    HW158932   6.082  11.448   9.539 -0.8680 -2.8225  1.1775
16718SOL    HW258933   6.068  11.529   9.667 -0.8025 -0.7806 -0.0630
16719SOL     OW58934  11.814   9.598   4.559 -0.3280 -0.4040 -0.6321
16719SOL    HW158935  11.741   9.659   4.554 -0.7007 -0.6371  1.1863
16719SOL    HW258936  11.876   9.629   4.493 -1.0728  1.1507 -0.6447
16720SOL     OW58937   0.606   2.899   4.665 -0.1856 -0.6981  0.2278
16720SOL    HW158938   0.637   2.845   4.737  0.1491  0.6579  1.1536
16720SOL    HW258939   0.652   2.983   4.676  0.0281 -0.5141 -1.6889
16721SOL     OW58940   8.375   6.445  11.193 -0.1269 -0.0459  0.2925
16721SOL    HW158941   8.365   6.539  11.209  0.1021  0.5478 -2.5270
16721SOL    HW258942   8.302   6.405  11.240 -1.1521  1.7104  0.2813
16722SOL     OW58943   8.368   6.524   0.228  0.2135 -0.2318 -0.5124
16722SOL    HW158944   8.412   6.490   0.306 -1.9444 -1.0999  0.3934
16722SOL    HW258945   8.361   6.447   0.170 -3.0064 -1.0397  0.7642
16723SOL     OW58946   0.984   3.421   7.504  0.4168  0.0753 -0.1517
16723SOL    HW158947   1.070   3.423   7.460 -0.7366 -2.1148 -2.8625
16723SOL    HW258948   1.003   3.392   7.593  2.5690  0.6920 -0.3564
16724SOL     OW58949   1.149   6.244   5.039 -0.3288 -0.1491  0.2565
16724SOL    HW158950   1.059   6.249   5.073 -0.5515  0.0702 -0.3537
16724SOL    HW258951   1.203   6.269   5.114 -0.8819  1.5450  0.1376
16725SOL     OW58952   7.540   3.749   0.052 -0.1597 -0.1590  0.4776
16725SOL    HW158953   7.453   3.717   0.076  0.5382 -2.7610 -0.1847
16725SOL    HW258954   7.586   3.755   0.135 -0.2595 -1.0884  0.6084
16726SOL     OW58955   8.088   6.102   0.415 -0.4250  0.1775  0.2105
16726SOL    HW158956   8.061   6.193   0.409  1.3613  0.7216 -0.2050
16726SOL    HW258957   8.088   6.071   0.324  0.3917  0.2233  0.1874
16727SOL     OW58958  11.693   9.922  11.647 -0.5004  0.2250 -0.0861
16727SOL    HW158959  11.735   9.965  11.572 -1.2357  1.3975  0.1432
16727SOL    HW258960  11.734   9.836  11.651  1.9347  1.3139  0.1749
16728SOL     OW58961   7.922   1.468   3.937  0.2947 -0.3371  0.1032
16728SOL    HW158962   7.827   1.470   3.948  0.1143 -0.4142 -1.2122
16728SOL    HW258963   7.943   1.374   3.932  0.1003 -0.3223 -1.8823
16729SOL     OW58964   0.986   3.649   5.715 -0.3873 -0.0702 -0.3555
16729SOL    HW158965   1.003   3.557   5.738  0.0356  0.1310  0.1492
16729SOL    HW258966   1.072   3.683   5.689 -0.4300  0.3417  0.0287
16730SOL     OW58967   2.888  12.088   4.493  0.0187 -0.1652  0.0908
16730SOL    HW158968   2.802  12.130   4.497  0.0313 -0.2707  1.9771
16730SOL    HW258969   2.906  12.081   4.399 -2.1583 -0.4383 -0.3510
16731SOL     OW58970   6.005   3.668  11.159  0.5667 -0.5784 -0.0547
16731SOL    HW158971   6.030   3.734  11.223  0.2084 -1.5530  1.1227
16731SOL    HW258972   6.088   3.626  11.134  0.9616  1.0564 -1.7234
16732SOL     OW58973   5.125  12.104   7.799 -0.4182  0.2180 -0.7351
16732SOL    HW158974   5.159  12.030   7.749 -0.8050  0.0321 -0.7198
16732SOL    HW258975   5.168  12.098   7.884 -0.2290  0.1819 -0.8324
16733SOL     OW58976   0.863   7.040   4.987  0.5234  0.1187  0.5300
16733SOL    HW158977   0.834   7.082   5.068  0.9410 -0.8210  1.1892
16733SOL    HW258978   0.909   6.961   5.016 -0.1353 -0.7315 -0.6599
16734SOL     OW58979  11.744   0.944   6.714 -0.2357  0.0972  0.0648
16734SOL    HW158980  11.718   0.852   6.724 -1.2076  0.3568 -0.0130
16734SOL    HW258981  11.667   0.994   6.741  0.2557  0.8911  0.0208
16735SOL     OW58982   6.167   3.010  10.504 -0.5376  0.0452  0.3268
16735SOL    HW158983   6.213   2.968  10.431 -0.3429 -1.4997  1.2878
16735SOL    HW258984   6.236   3.027  10.569 -0.9125  0.1558  0.6976
16736SOL     OW58985   4.519   8.855   5.769  0.3329  0.0843  0.4858
16736SOL    HW158986   4.486   8.942   5.790 -0.9780  0.3734 -2.3007
16736SOL    HW258987   4.498   8.843   5.676  1.1659 -2.9152  0.5761
16737SOL     OW58988   7.313   6.388   1.521  0.1198  0.3291  0.0388
16737SOL    HW158989   7.395   6.339   1.525  0.3538  0.7866  0.8984
16737SOL    HW258990   7.327   6.464   1.577 -1.3157 -0.2035  1.1680
16738SOL     OW58991   0.424   9.789   7.025 -0.1837 -0.1130 -0.5790
16738SOL    HW158992   0.406   9.869   6.975 -0.9544 -0.2170 -0.4793
16738SOL    HW258993   0.432   9.819   7.115  0.4740 -0.0246 -0.6623
16739SOL     OW58994   5.497  10.826  12.192  0.2828 -0.2466 -0.0262
16739SOL    HW158995   5.571  10.875  12.228  0.8034 -0.0464 -1.2934
16739SOL    HW258996   5.514  10.735  12.217  0.8061 -0.1613 -0.0454
16740SOL     OW58997   1.628   7.919   3.804  0.0876  0.3376 -0.1944
16740SOL    HW158998   1.664   7.851   3.862 -1.4047 -0.2262  0.1245
16740SOL    HW258999   1.696   7.931   3.737  1.1775 -0.1318  0.7750
16741SOL     OW59000   7.400   3.956  10.609 -0.6769  0.0028 -0.1245
16741SOL    HW159001   7.322   4.002  10.580 -1.1418 -0.3751  0.4927
16741SOL    HW259002   7.443   4.016  10.670 -1.8229 -0.7284  1.4803
16742SOL     OW59003   3.535   6.041  11.019 -0.0101 -0.5076  0.1874
16742SOL    HW159004   3.583   5.962  11.041  0.6035  0.4295  2.4787
16742SOL    HW259005   3.602   6.108  11.007 -0.5575 -0.1379 -1.0021
16743SOL     OW59006   5.147   7.450  11.725  0.0530 -0.0080  0.0743
16743SOL    HW159007   5.208   7.423  11.656  0.4182 -0.3278  0.5107
16743SOL    HW259008   5.071   7.393  11.713 -0.7088  1.2260 -1.2412
16744SOL     OW59009   5.495   0.484   0.959  0.6790 -0.2819 -0.2459
16744SOL    HW159010   5.524   0.457   0.872  0.7097  0.8443 -0.5974
16744SOL    HW259011   5.459   0.572   0.947 -0.7469 -0.7139  0.6106
16745SOL     OW59012   6.045   8.687   2.459  0.8257 -0.1567 -0.1114
16745SOL    HW159013   6.058   8.720   2.370 -0.5086 -1.0305 -0.6461
16745SOL    HW259014   6.013   8.763   2.508 -0.8460 -0.2562 -0.9937
16746SOL     OW59015   8.073   9.454  11.136 -0.4550  0.4739  0.1133
16746SOL    HW159016   8.069   9.397  11.213  0.7309  1.7638  1.1796
16746SOL    HW259017   7.985   9.491  11.129 -0.3250  1.1002  1.4664
16747SOL     OW59018  11.432   7.856   5.078  0.1271 -0.2516 -0.0921
16747SOL    HW159019  11.374   7.909   5.024 -0.6357 -1.8415 -0.9035
16747SOL    HW259020  11.373   7.803   5.132  0.8647 -0.4603  0.5354
16748SOL     OW59021   4.355   2.878   6.097  0.5116 -0.0478  0.2596
16748SOL    HW159022   4.408   2.920   6.164  0.3680  1.4308 -0.5112
16748SOL    HW259023   4.420   2.840   6.036  0.6394 -1.0620  0.9922
16749SOL     OW59024   8.457   0.907   1.954  0.2723  0.0351  0.2253
16749SOL    HW159025   8.494   0.994   1.966 -0.7087  0.6635 -1.0923
16749SOL    HW259026   8.366   0.915   1.986  0.6726 -1.0094  1.7626
16750SOL     OW59027   9.313   3.344   8.848  0.3302  0.2745  0.5648
16750SOL    HW159028   9.386   3.299   8.804 -0.5367 -0.8245  0.2188
16750SOL    HW259029   9.344   3.356   8.938  1.7893  1.7839 -0.0712
16751SOL     OW59030   0.724   4.606   3.505 -0.1458 -0.2240 -0.6182
16751SOL    HW159031   0.724   4.531   3.445 -0.5307 -0.3103 -0.5152
16751SOL    HW259032   0.811   4.606   3.544 -0.2138 -0.7422 -0.4638
16752SOL     OW59033   8.879   0.513   2.637 -0.4562  0.2840  0.2863
16752SOL    HW159034   8.898   0.595   2.591 -1.1612  0.2386 -0.0924
16752SOL    HW259035   8.956   0.458   2.620 -0.5419  0.4057 -0.5415
16753SOL     OW59036  11.470   4.907   5.358 -0.5099 -0.0732 -0.4055
16753SOL    HW159037  11.386   4.864   5.369 -0.6271  0.1847 -0.2935
16753SOL    HW259038  11.469   4.980   5.420 -0.1792 -0.1078 -0.3545
16754SOL     OW59039  11.406   0.748   4.465  0.1043  0.1112 -0.1186
16754SOL    HW159040  11.334   0.789   4.417  1.1905  0.7394 -1.2686
16754SOL    HW259041  11.485   0.786   4.427  1.0782 -1.1872  0.5273
16755SOL     OW59042   0.311   7.288  12.286 -0.7897 -1.1656 -0.3931
16755SOL    HW159043   0.358   7.243  12.356  2.1078  0.0684 -1.3680
16755SOL    HW259044   0.314   7.381  12.310  3.3115 -0.2050 -3.4415
16756SOL     OW59045   5.872   4.463   8.621  0.4765 -0.6530  0.6135
16756SOL    HW159046   5.823   4.381   8.622  0.4836 -0.6835 -0.2202
16756SOL    HW259047   5.809   4.529   8.651  0.4035 -0.9291  1.0668
16757SOL     OW59048  12.452   6.406   0.176 -0.7953 -0.3586 -0.0330
16757SOL    HW159049  12.407   6.488   0.158  0.8491  0.7105  0.4721
16757SOL    HW259050  12.494   6.419   0.261  0.9176 -1.0286 -0.7179
16758SOL     OW59051   0.263  11.646   9.894  0.5783  0.0214  0.1805
16758SOL    HW159052   0.242  11.637   9.987  1.8352 -0.1253  0.4678
16758SOL    HW259053   0.180  11.629   9.850 -0.4592  1.7852  1.3145
16759SOL     OW59054   7.011   7.381  10.152 -0.3309  0.6700 -0.5888
16759SOL    HW159055   7.011   7.316  10.081 -0.5961  0.4002 -0.3450
16759SOL    HW259056   6.992   7.464  10.109  2.0660  0.9570 -1.2339
16760SOL     OW59057   5.289   2.386   6.187 -0.0563  0.1241 -0.0253
16760SOL    HW159058   5.383   2.391   6.207 -0.2868 -0.7448  1.4168
16760SOL    HW259059   5.268   2.294   6.197 -1.0759  0.3250 -0.2818
16761SOL     OW59060   9.126   1.427   1.173  0.4164 -0.3541 -0.3979
16761SOL    HW159061   9.128   1.332   1.171  0.4949 -0.3805  0.6399
16761SOL    HW259062   9.137   1.453   1.081  0.0687 -1.3397 -0.7340
16762SOL     OW59063   3.682   6.730   8.103  0.4585 -0.0064 -0.2895
16762SOL    HW159064   3.765   6.696   8.137 -0.5768  1.1265  4.0806
16762SOL    HW259065   3.636   6.654   8.068  1.7645 -1.4076  0.9522
16763SOL     OW59066   1.550   3.349   7.984 -0.0914  0.1643  0.0303
16763SOL    HW159067   1.465   3.306   7.978 -0.4908  0.9850 -0.3176
16763SOL    HW259068   1.552   3.386   8.072  0.8176 -1.6775  0.8431
16764SOL     OW59069  11.389   0.793   2.968  0.2511 -0.1870  0.1789
16764SOL    HW159070  11.405   0.706   2.933  1.5257  0.3666 -0.6804
16764SOL    HW259071  11.396   0.782   3.063  0.9083 -0.9361  0.0545
16765SOL     OW59072   5.594   4.021   4.886  0.3585 -0.4410 -0.6363
16765SOL    HW159073   5.611   4.001   4.794  0.3887 -0.4766 -0.6228
16765SOL    HW259074   5.679   4.049   4.920 -0.2522  2.8482 -1.4447
16766SOL     OW59075   5.529   9.673   3.499 -0.1548  0.1774  0.2665
16766SOL    HW159076   5.544   9.666   3.405 -2.4264  1.0294 -0.2283
16766SOL    HW259077   5.450   9.621   3.515  0.7873 -0.8317  1.9243
16767SOL     OW59078   0.302  10.826   5.968  0.2430 -0.3849 -0.4655
16767SOL    HW159079   0.245  10.760   5.929 -2.7497  1.3711  0.5882
16767SOL    HW259080   0.350  10.864   5.894  0.0504 -1.8757 -1.4003
16768SOL     OW59081   3.451   1.412   8.226  0.2877 -0.4144  0.3703
16768SOL    HW159082   3.381   1.406   8.162 -0.2711  2.2460  0.5975
16768SOL    HW259083   3.526   1.446   8.177  0.7348 -1.0710  0.5851
16769SOL     OW59084   1.269   4.029   5.781  0.0043 -0.6101  0.0134
16769SOL    HW159085   1.206   4.097   5.759 -1.9212 -1.6664  1.8496
16769SOL    HW259086   1.354   4.074   5.786 -0.8612  1.1916 -0.8651
16770SOL     OW59087   0.247   0.833   8.749 -0.8357  0.4086  0.1137
16770SOL    HW159088   0.291   0.839   8.834 -1.3829 -0.4726  0.4719
16770SOL    HW259089   0.274   0.912   8.703  1.1728 -0.1155  0.2872
16771SOL     OW59090  10.001   2.716  10.038 -0.1212  0.3612 -0.3690
16771SOL    HW159091   9.907   2.723  10.020  0.1289  0.6523 -1.7047
16771SOL    HW259092  10.025   2.802  10.073 -0.6030 -0.1807  1.3770
16772SOL     OW59093   1.356   6.625  11.127  0.3442 -0.1335  0.2797
16772SOL    HW159094   1.340   6.595  11.216 -1.3433 -1.1467 -0.3108
16772SOL    HW259095   1.449   6.612  11.113  0.5927 -0.1194  1.8331
16773SOL     OW59096   0.995   3.846   8.478 -0.3893  0.6141 -0.6235
16773SOL    HW159097   1.046   3.847   8.559  3.2326  2.8001 -2.6400
16773SOL    HW259098   0.948   3.929   8.478  0.3902  1.0679 -1.1375
16774SOL     OW59099   0.367   9.603   7.770  0.0263  0.3050 -0.4637
16774SOL    HW159100   0.388   9.579   7.680  0.4080  0.5517 -0.4419
16774SOL    HW259101   0.274   9.629   7.767 -0.0645 -0.0472 -0.7096
16775SOL     OW59102   6.733   0.947  10.019 -0.1989  0.6289  0.2861
16775SOL    HW159103   6.797   0.891   9.976 -0.2286  1.0237 -0.2934
16775SOL    HW259104   6.775   1.033  10.022 -1.0208  1.0939 -0.8844
16776SOL     OW59105   8.491  11.413  12.094  0.3078  0.1477 -0.0757
16776SOL    HW159106   8.575  11.448  12.062  0.4096  0.4604  0.5347
16776SOL    HW259107   8.465  11.473  12.164 -0.1035 -0.3255  0.1763
16777SOL     OW59108  11.983   5.477   7.962 -0.2512 -0.3331 -0.0777
16777SOL    HW159109  11.921   5.546   7.988  0.1034 -0.3822  0.9162
16777SOL    HW259110  11.932   5.421   7.904 -0.7162  0.4342 -0.4327
16778SOL     OW59111   4.408   3.235   9.061  0.2116 -0.2535 -0.0767
16778SOL    HW159112   4.424   3.174   8.989  1.5029  0.4224 -0.4012
16778SOL    HW259113   4.318   3.216   9.090  0.1503 -1.4358 -0.9807
16779SOL     OW59114  10.161  12.528  11.181 -0.6558 -0.3392 -0.3856
16779SOL    HW159115  10.215  12.523  11.102 -0.9401  1.1405 -0.6956
16779SOL    HW259116  10.078  12.564  11.151 -1.9210 -2.6856  0.0650
16780SOL     OW59117   5.979   5.504   8.453  0.2349  0.2610 -0.4208
16780SOL    HW159118   6.039   5.578   8.465 -1.1601  1.0114  3.3479
16780SOL    HW259119   5.911   5.537   8.395  0.4293  1.4433  0.0045
16781SOL     OW59120   9.615  12.114  10.106 -0.4780  0.2645  0.0100
16781SOL    HW159121   9.599  12.138  10.015 -1.1162 -1.9449 -0.5390
16781SOL    HW259122   9.710  12.099  10.110 -0.7085 -1.9545 -1.0123
16782SOL     OW59123   0.058   2.646  10.460  0.5524  0.4572 -0.2498
16782SOL    HW159124   0.089   2.585  10.393 -1.2256  0.1723 -0.8587
16782SOL    HW259125  -0.034   2.660  10.439  0.4620  1.9270  0.9795
16783SOL     OW59126   1.099   4.153   9.407 -0.2932  0.2825  0.1514
16783SOL    HW159127   1.156   4.220   9.445 -1.1645  0.7227  0.7076
16783SOL    HW259128   1.093   4.178   9.314  1.1405 -0.3039 -0.1313
16784SOL     OW59129   8.190   7.001   1.317  0.7834 -0.3734  0.2105
16784SOL    HW159130   8.223   7.074   1.265  0.7412 -0.1122  0.5442
16784SOL    HW259131   8.122   6.962   1.262 -0.1965  0.7201  0.5925
16785SOL     OW59132   1.808   1.015   6.320 -0.7123  0.4459 -0.5510
16785SOL    HW159133   1.785   1.107   6.312  1.1830  0.8711 -1.5032
16785SOL    HW259134   1.903   1.013   6.320 -0.7079 -1.5149 -0.4855
16786SOL     OW59135   4.262   2.349   4.718 -0.4661 -0.1741 -0.3748
16786SOL    HW159136   4.274   2.414   4.787 -1.0959  0.2629 -0.6648
16786SOL    HW259137   4.350   2.316   4.700 -0.2485 -0.0084  0.3574
16787SOL     OW59138  10.070   3.211  10.346  0.2997  0.3588  0.0119
16787SOL    HW159139  10.147   3.212  10.289  0.7325 -0.4183  0.5755
16787SOL    HW259140  10.105   3.197  10.434 -0.4330  0.7326  0.3741
16788SOL     OW59141   0.757   2.851  11.741 -0.1164 -0.2060 -0.2093
16788SOL    HW159142   0.690   2.855  11.809 -0.8039  0.9786 -0.9270
16788SOL    HW259143   0.710   2.824  11.662  0.0475  1.4576 -0.9142
16789SOL     OW59144   3.347   0.724  10.688 -0.3182 -0.5653  0.3251
16789SOL    HW159145   3.436   0.758  10.697 -0.5332 -0.2685  1.5247
16789SOL    HW259146   3.319   0.752  10.600  0.0498  1.0896  0.7065
16790SOL     OW59147   7.833   6.690  12.297  0.0725  0.1073 -0.0150
16790SOL    HW159148   7.771   6.743  12.347  1.1202  0.0472  1.4044
16790SOL    HW259149   7.783   6.660  12.221 -1.5815  0.2028  0.9786
16791SOL     OW59150   4.617   0.822  11.539 -0.1019  0.6286  0.2105
16791SOL    HW159151   4.551   0.837  11.607 -0.0987  1.7121 -0.0070
16791SOL    HW259152   4.621   0.905  11.491 -0.5634 -0.2987 -1.5334
16792SOL     OW59153  12.032   4.177   2.526 -0.9435  0.4970  0.4653
16792SOL    HW159154  12.114   4.157   2.480 -2.0524 -3.0041 -0.2943
16792SOL    HW259155  12.057   4.242   2.591  1.8935  1.4046 -1.3205
16793SOL     OW59156  10.863   4.699   2.549  0.5771 -0.0204  0.1259
16793SOL    HW159157  10.911   4.621   2.522 -1.2433 -0.5089 -1.9448
16793SOL    HW259158  10.804   4.667   2.618  1.8391  0.2095  1.3732
16794SOL     OW59159  12.246   5.548   3.649  0.4128 -0.6196  0.3299
16794SOL    HW159160  12.312   5.618   3.648  0.3464 -0.5592 -0.0085
16794SOL    HW259161  12.188   5.571   3.721 -0.1683  0.2033 -0.3827
16795SOL     OW59162   0.967  12.564   6.471 -0.2596 -0.6238 -0.5412
16795SOL    HW159163   0.885  12.539   6.512 -1.8390 -0.4813 -3.4083
16795SOL    HW259164   1.002  12.482   6.435  1.0603 -0.7305  0.8508
16796SOL     OW59165  12.566   2.138   3.681  0.0153  0.4882 -0.4909
16796SOL    HW159166  12.526   2.205   3.736  0.5178 -0.7249  1.4455
16796SOL    HW259167  12.645   2.112   3.728  0.7423 -0.2480 -2.0558
16797SOL     OW59168   3.203   8.210   7.125 -0.6924  0.1447  0.7282
16797SOL    HW159169   3.171   8.125   7.096 -0.4252 -0.4291  2.0222
16797SOL    HW259170   3.294   8.214   7.094 -0.0372 -0.9498  2.3376
16798SOL     OW59171   5.711   5.697  12.407  0.4399 -0.6435 -0.3662
16798SOL    HW159172   5.739   5.606  12.422 -0.4382 -0.8197  0.2365
16798SOL    HW259173   5.730   5.742  12.489  1.4872 -0.1131 -0.8836
16799SOL     OW59174   4.240   5.255  11.557  0.1818 -0.2188 -0.2273
16799SOL    HW159175   4.297   5.190  11.517  0.1236 -1.5926  1.7600
16799SOL    HW259176   4.293   5.335  11.560  1.6350 -1.1616  0.5698
16800SOL     OW59177   8.283   9.873  11.446  0.3174  0.1880  0.7544
16800SOL    HW159178   8.216   9.805  11.446 -0.3084  0.8004  0.4293
16800SOL    HW259179   8.264   9.927  11.369  0.3403  1.1835  1.4219
16801SOL     OW59180   2.770  10.789   5.543 -0.4581  0.3478 -0.2716
16801SOL    HW159181   2.771  10.701   5.581 -0.0892  0.3429 -0.2870
16801SOL    HW259182   2.681  10.800   5.510 -0.2470 -0.4019 -1.1475
16802SOL     OW59183   8.129   6.542   9.473 -0.4935 -0.1820  0.0648
16802SOL    HW159184   8.185   6.604   9.519 -2.0383  1.5046 -0.2513
16802SOL    HW259185   8.091   6.488   9.542 -1.3006  1.0738  0.6260
16803SOL     OW59186   1.699  10.536  10.582  0.3258  0.6073  0.2947
16803SOL    HW159187   1.632  10.471  10.559 -1.0525  1.0090  2.8416
16803SOL    HW259188   1.672  10.615  10.534 -1.2061  0.8105  1.3999
16804SOL     OW59189   5.362   4.122  10.132  0.0020 -0.2348  0.4878
16804SOL    HW159190   5.396   4.209  10.111 -0.7272 -0.1474 -0.3985
16804SOL    HW259191   5.435   4.077  10.176  0.5639  0.6293  0.4602
16805SOL     OW59192  11.792  10.111  11.011  0.0301 -0.0425 -0.1049
16805SOL    HW159193  11.751  10.190  11.044 -0.4395 -0.3605  0.0886
16805SOL    HW259194  11.804  10.127  10.917  2.6251  1.4053  0.4015
16806SOL     OW59195   4.846   5.796   1.588  0.0525 -0.4390 -0.5514
16806SOL    HW159196   4.837   5.888   1.611  0.1837 -0.4152 -0.5948
16806SOL    HW259197   4.834   5.749   1.671 -0.9324 -0.4388 -0.6803
16807SOL     OW59198  10.501   5.169   5.576 -0.2593 -0.4660 -0.3125
16807SOL    HW159199  10.537   5.134   5.495  2.0967 -0.5218  0.6905
16807SOL    HW259200  10.472   5.092   5.624  2.9630 -1.0445  0.9695
16808SOL     OW59201   3.829   6.668   6.839  0.2110  0.1765 -0.0533
16808SOL    HW159202   3.906   6.705   6.796  0.4785 -0.1937  0.1010
16808SOL    HW259203   3.865   6.615   6.910 -0.0933 -1.2304 -0.9057
16809SOL     OW59204   3.731   2.777   5.756  0.0125  0.2680 -0.6453
16809SOL    HW159205   3.744   2.708   5.690 -1.2505 -0.6716  0.0218
16809SOL    HW259206   3.643   2.760   5.790  0.8547  0.3101  1.7333
16810SOL     OW59207   8.415   9.647  11.830  0.3886  0.4631  0.1828
16810SOL    HW159208   8.351   9.662  11.760  0.2396  0.1056  0.2354
16810SOL    HW259209   8.463   9.729  11.837 -1.1851  1.3364  1.2880
16811SOL     OW59210   5.410   0.590   1.815 -0.4263 -0.0329 -0.2586
16811SOL    HW159211   5.408   0.558   1.906 -0.3647 -0.4686 -0.4070
16811SOL    HW259212   5.444   0.516   1.765 -2.2272 -0.4779 -0.9115
16812SOL     OW59213   9.888   4.021   0.718 -0.5697 -0.1282  0.1862
16812SOL    HW159214   9.803   4.066   0.714 -1.6047 -2.0531 -0.9180
16812SOL    HW259215   9.867   3.934   0.753  0.8022 -0.9405 -0.8988
16813SOL     OW59216  11.557   0.426  12.128 -0.2322 -0.4564  0.8083
16813SOL    HW159217  11.528   0.395  12.213 -2.7056 -2.4159 -0.6193
16813SOL    HW259218  11.512   0.510  12.116 -0.3395 -0.4600  1.1751
16814SOL     OW59219   1.039  11.534  10.485 -0.2267  0.2213  0.1751
16814SOL    HW159220   0.962  11.578  10.448  0.6442  0.4101 -1.5184
16814SOL    HW259221   1.100  11.527  10.411  2.3691  2.2093  1.9541
16815SOL     OW59222   0.222   8.541  10.219  0.3336  0.4702  0.4617
16815SOL    HW159223   0.200   8.449  10.238 -1.4997  1.1024  1.6199
16815SOL    HW259224   0.279   8.536  10.142 -1.5107 -1.5208 -0.8918
16816SOL     OW59225   2.304   0.502   1.353 -0.2657  0.2698  0.1907
16816SOL    HW159226   2.325   0.571   1.416  1.0583 -0.1211  0.2218
16816SOL    HW259227   2.264   0.433   1.406  0.1665  0.2410  0.4895
16817SOL     OW59228   0.006   9.960   0.379  0.7744  0.2026  0.2881
16817SOL    HW159229   0.027  10.024   0.311  0.1644  0.0772 -0.0313
16817SOL    HW259230  -0.049   9.895   0.334  0.5258  0.0153  0.8534
16818SOL     OW59231  11.586   9.720   5.157 -0.1909 -0.1048  0.1056
16818SOL    HW159232  11.627   9.634   5.165 -0.2910 -0.0360  1.6131
16818SOL    HW259233  11.581   9.736   5.063 -0.5155 -1.9158 -0.2152
16819SOL     OW59234   4.515   5.418   2.274  0.5517 -0.4445 -0.3971
16819SOL    HW159235   4.593   5.469   2.255  0.3028 -0.4331 -1.4612
16819SOL    HW259236   4.476   5.400   2.188 -1.0641  0.2688  0.1301
16820SOL     OW59237   1.909   5.750   2.201  0.0136  0.7568 -1.0381
16820SOL    HW159238   1.941   5.686   2.265  0.4333  4.2601  2.7137
16820SOL    HW259239   1.969   5.743   2.127 -0.3532 -3.4282 -1.1739
16821SOL     OW59240  10.639   8.080   5.193  0.5865  0.0364  0.5229
16821SOL    HW159241  10.688   8.114   5.268 -2.5169  1.5994  2.0588
16821SOL    HW259242  10.560   8.043   5.232  0.3642 -2.2133 -1.8032
16822SOL     OW59243   1.388   9.259  11.649  0.1665  0.2791 -0.3944
16822SOL    HW159244   1.377   9.216  11.734  2.9040 -1.7360 -0.9441
16822SOL    HW259245   1.307   9.237  11.602 -0.4574 -0.4230  0.9262
16823SOL     OW59246   3.791   4.564   0.109  0.4336 -0.2768 -0.3361
16823SOL    HW159247   3.825   4.609   0.186  1.6868 -1.6900 -0.0376
16823SOL    HW259248   3.797   4.630   0.039  3.7276 -0.3692 -0.2753
16824SOL     OW59249   8.801   0.386   0.738  0.0719 -0.2478 -0.0139
16824SOL    HW159250   8.731   0.449   0.757  1.5730  1.5715 -0.1234
16824SOL    HW259251   8.834   0.414   0.653  1.0120 -0.9782  0.1044
16825SOL     OW59252   3.011   5.485   8.654  0.0201  0.9827  0.7512
16825SOL    HW159253   2.965   5.435   8.586 -0.9969  1.7385  0.8537
16825SOL    HW259254   3.095   5.440   8.665 -0.2263  0.2428 -0.2694
16826SOL     OW59255   6.231  11.376   8.803  0.2228  0.8075  0.1454
16826SOL    HW159256   6.214  11.451   8.746 -0.9335  0.9442  0.6591
16826SOL    HW259257   6.146  11.353   8.839  0.8988  0.6048  1.6833
16827SOL     OW59258  11.233   1.164  11.066 -0.3876 -0.3166  0.0785
16827SOL    HW159259  11.187   1.124  10.992 -0.3216  1.0774 -0.7469
16827SOL    HW259260  11.173   1.230  11.099 -0.0433 -0.3153  0.7107
16828SOL     OW59261   5.886   2.465   7.414  0.4264  0.5855 -0.2256
16828SOL    HW159262   5.947   2.392   7.402 -3.0788 -2.4962 -1.5237
16828SOL    HW259263   5.879   2.505   7.327  0.6420  0.9891 -0.0592
16829SOL     OW59264   4.739  11.123   6.458 -0.5332  0.1701 -0.4560
16829SOL    HW159265   4.676  11.051   6.471 -0.4044  0.1125 -0.1351
16829SOL    HW259266   4.777  11.105   6.373  0.6542 -1.0604  0.2851
16830SOL     OW59267   9.587   0.758   5.820  0.3269 -0.7343 -0.6815
16830SOL    HW159268   9.577   0.663   5.821  0.9063 -0.8029 -0.6351
16830SOL    HW259269   9.499   0.792   5.804  0.0081 -1.2603 -0.1173
16831SOL     OW59270  12.441   7.485   6.842  0.2525 -0.5778  0.4000
16831SOL    HW159271  12.410   7.442   6.922 -2.6774 -1.2663 -0.9207
16831SOL    HW259272  12.384   7.561   6.832 -0.2661 -1.1484 -1.5456
16832SOL     OW59273   2.008   7.077   7.050  0.2218 -0.3144  0.9259
16832SOL    HW159274   2.015   7.037   7.137  2.3600  0.8747  1.3553
16832SOL    HW259275   2.098   7.095   7.024 -0.5082  1.8903 -0.3476
16833SOL     OW59276   8.316   3.080   3.992  0.5743 -0.1237  0.0559
16833SOL    HW159277   8.350   3.033   3.916  1.3265  0.0840  0.2530
16833SOL    HW259278   8.337   3.172   3.974 -0.3316  0.0729 -0.0408
16834SOL     OW59279   6.810   5.833  10.071 -0.1970  0.1773 -0.5649
16834SOL    HW159280   6.739   5.856  10.132  0.0701  0.2693 -0.2828
16834SOL    HW259281   6.790   5.744  10.043  0.4992 -0.4648  0.8644
16835SOL     OW59282   4.123   1.519   5.703 -0.4678 -0.6046 -0.7552
16835SOL    HW159283   4.188   1.449   5.690 -0.0067 -0.3130 -0.1215
16835SOL    HW259284   4.095   1.542   5.615 -2.2877 -3.0947 -0.9356
16836SOL     OW59285   8.853   5.751   4.619  0.0174  0.0635  0.1070
16836SOL    HW159286   8.911   5.675   4.618  0.3514  0.2149  2.2077
16836SOL    HW259287   8.773   5.721   4.575  0.0787 -1.5945  1.0490
16837SOL     OW59288   4.712  10.717   7.214  0.0073 -0.2262  0.1568
16837SOL    HW159289   4.747  10.632   7.187 -1.2892 -0.5863 -0.4806
16837SOL    HW259290   4.684  10.758   7.133 -1.3942 -0.1374  0.6569
16838SOL     OW59291   2.655  11.773   7.585 -0.7100  0.0314 -0.1271
16838SOL    HW159292   2.627  11.708   7.520 -1.5532  1.4334 -1.2291
16838SOL    HW259293   2.641  11.857   7.542  1.6075  0.9550  0.7407
16839SOL     OW59294   3.138   8.866   2.375 -0.1603  0.1193  0.7536
16839SOL    HW159295   3.180   8.890   2.458 -0.6361 -2.4913  1.8751
16839SOL    HW259296   3.088   8.943   2.350  3.3081  2.5537  0.5642
16840SOL     OW59297  11.883   6.314   3.640  0.5508  0.0195  0.1000
16840SOL    HW159298  11.816   6.356   3.693 -1.4712 -1.2061 -1.3165
16840SOL    HW259299  11.877   6.358   3.555  0.2684 -1.2818 -0.5803
16841SOL     OW59300   1.679  11.915   8.758 -0.5516  1.0346 -0.0975
16841SOL    HW159301   1.679  11.886   8.667 -1.4233  1.0612 -0.1095
16841SOL    HW259302   1.736  11.853   8.803  2.5288  2.8287 -1.2029
16842SOL     OW59303   7.217  11.020   1.006 -0.5353 -0.6129 -0.0242
16842SOL    HW159304   7.300  11.063   1.029  0.5768 -2.9648  0.7829
16842SOL    HW259305   7.198  11.049   0.917  1.8365 -0.8848 -0.6978
16843SOL     OW59306   1.655   8.391   2.122 -0.5391 -0.2305  0.1578
16843SOL    HW159307   1.582   8.453   2.118  0.2658  0.8196  1.0562
16843SOL    HW259308   1.720   8.427   2.061 -0.3531 -0.5786  0.1504
16844SOL     OW59309   0.664   2.088   1.634 -0.6276 -0.0077  0.0642
16844SOL    HW159310   0.731   2.079   1.566  0.2007 -3.0589  1.1513
16844SOL    HW259311   0.691   2.166   1.683 -0.0172  0.9715 -1.7268
16845SOL     OW59312   7.375   5.489   9.086 -0.0930 -0.3752 -0.1262
16845SOL    HW159313   7.432   5.557   9.049 -1.4311  0.3441 -0.9530
16845SOL    HW259314   7.320   5.536   9.148 -1.3097 -0.5947 -1.0002
16846SOL     OW59315   8.749   4.044   8.239 -0.2131  0.0580  0.1036
16846SOL    HW159316   8.742   4.078   8.150  1.3297 -1.4973 -0.6904
16846SOL    HW259317   8.699   4.105   8.293 -1.3152  0.9572 -1.8428
16847SOL     OW59318   7.711   8.743   3.627  0.2230 -0.0593 -0.1463
16847SOL    HW159319   7.724   8.835   3.606 -2.6696  0.6368  0.6422
16847SOL    HW259320   7.736   8.736   3.720 -0.7672  0.2483  0.1504
16848SOL     OW59321   3.276   5.005  12.264  0.1549 -0.5034 -0.0380
16848SOL    HW159322   3.185   4.981  12.283  0.7852 -2.2805  0.9314
16848SOL    HW259323   3.306   4.938  12.202  1.0077 -0.3248  0.1729
16849SOL     OW59324   1.185  11.513   6.464  1.0968 -0.1582 -0.1264
16849SOL    HW159325   1.160  11.434   6.416 -1.3444  0.1691  0.4775
16849SOL    HW259326   1.262  11.487   6.516  1.9513 -1.3364 -1.8863
16850SOL     OW59327   2.331   7.561   9.091  0.1483 -0.1162  0.2078
16850SOL    HW159328   2.408   7.506   9.102 -0.1013 -0.3816  0.6948
16850SOL    HW259329   2.258   7.507   9.122 -0.0663  0.5642  0.9281
16851SOL     OW59330   5.168  10.868  11.252 -0.4106  0.5899  0.3478
16851SOL    HW159331   5.202  10.955  11.230 -1.6744  1.1595  0.5414
16851SOL    HW259332   5.173  10.864  11.347 -0.1058  0.3479  0.3205
16852SOL     OW59333   2.897   0.991  12.519  0.1654  0.4277  0.5255
16852SOL    HW159334   2.874   0.961  12.607 -0.3198  2.3602  1.0844
16852SOL    HW259335   2.986   1.026  12.528  0.3803  0.0155  0.0782
16853SOL     OW59336   0.938   8.494  12.448  0.2856 -0.0627  0.2118
16853SOL    HW159337   0.882   8.501  12.370  1.4171  0.9961 -0.5476
16853SOL    HW259338   0.976   8.406  12.442  1.2375  0.3974 -1.0938
16854SOL     OW59339  10.447   8.866   2.518  0.8518  0.6991  0.1074
16854SOL    HW159340  10.531   8.859   2.472  0.3983  1.2773 -0.8257
16854SOL    HW259341  10.400   8.934   2.471 -1.0673 -1.1608 -0.8131
16855SOL     OW59342   6.386  12.429   9.112  0.1058  0.0676 -0.4304
16855SOL    HW159343   6.335  12.435   9.032 -1.6333  0.2263  0.6355
16855SOL    HW259344   6.431  12.345   9.106  0.1464  0.1571 -1.6285
16856SOL     OW59345  11.729   0.067   4.591 -0.3721 -0.2307  0.3765
16856SOL    HW159346  11.706   0.101   4.504  1.9379  2.9587  0.8471
16856SOL    HW259347  11.655   0.093   4.646  0.0747  1.6100  0.1511
16857SOL     OW59348   2.259  12.267   8.761 -0.1158  0.2563  0.1902
16857SOL    HW159349   2.341  12.317   8.757  1.0772 -1.4199  1.9726
16857SOL    HW259350   2.223  12.287   8.847 -1.0356  0.1454 -0.1646
16858SOL     OW59351   3.319   2.469   3.671 -0.3104 -0.4891  0.1185
16858SOL    HW159352   3.303   2.529   3.745 -0.0666 -1.6925  1.1773
16858SOL    HW259353   3.276   2.388   3.697 -0.2807 -0.9099 -1.1208
16859SOL     OW59354  12.214  12.274   1.698 -0.1983 -0.2174 -0.0073
16859SOL    HW159355  12.120  12.271   1.711 -0.1223 -0.2615  0.5690
16859SOL    HW259356  12.227  12.243   1.608 -0.7307 -0.1920 -0.0942
16860SOL     OW59357   1.753  10.768   2.870  0.3335 -0.2595 -0.4087
16860SOL    HW159358   1.709  10.683   2.874 -0.1911 -0.0429 -1.2899
16860SOL    HW259359   1.840  10.749   2.836  0.7658 -0.6258  0.8463
16861SOL     OW59360  10.051   3.439  12.029  0.1622 -0.5123  0.2523
16861SOL    HW159361  10.084   3.370  11.970  1.6189  0.9864 -0.7699
16861SOL    HW259362   9.993   3.491  11.974  0.0427 -0.2017  0.6699
16862SOL     OW59363  10.082   5.280   4.425 -0.0179 -0.2579 -0.3075
16862SOL    HW159364  10.115   5.199   4.464  3.2356  1.6487  1.3165
16862SOL    HW259365  10.124   5.285   4.339 -0.6192 -0.5275 -0.6185
16863SOL     OW59366  10.978   7.828   1.375  0.0740  0.5340 -0.0578
16863SOL    HW159367  10.984   7.777   1.294 -2.9411  0.9442 -0.6559
16863SOL    HW259368  10.931   7.771   1.435 -0.1913  1.2986  0.4664
16864SOL     OW59369   9.874   2.430   1.515 -0.0580  0.0173 -0.2072
16864SOL    HW159370   9.866   2.505   1.574  0.3730 -0.6793  0.7555
16864SOL    HW259371   9.915   2.362   1.568  3.3137  0.3437 -2.1603
16865SOL     OW59372   2.489   1.907  12.112  0.0397 -0.5273  0.1150
16865SOL    HW159373   2.475   1.820  12.149 -1.0493 -0.1143  0.7218
16865SOL    HW259374   2.468   1.967  12.184  2.2290  0.2348  0.1972
16866SOL     OW59375   7.797   8.642  10.804  0.1410  0.7906  0.3601
16866SOL    HW159376   7.719   8.595  10.774 -0.5348  1.7808  0.5267
16866SOL    HW259377   7.807   8.616  10.895  1.3943 -1.1506 -0.2723
16867SOL     OW59378   8.261   7.998   3.861  0.1970  0.0354  0.3049
16867SOL    HW159379   8.317   8.072   3.884 -0.7660  0.5450  1.0907
16867SOL    HW259380   8.202   8.032   3.794  0.3152 -0.2767  0.0370
16868SOL     OW59381   5.632  10.440   2.535  0.0731  0.1274 -0.1095
16868SOL    HW159382   5.657  10.493   2.460 -1.8333  1.0346 -0.1497
16868SOL    HW259383   5.545  10.471   2.560 -1.2564 -3.0559 -0.2253
16869SOL     OW59384   0.387   2.622   0.956  0.4463  0.0632 -0.7177
16869SOL    HW159385   0.327   2.673   1.011 -0.2101 -0.5369 -0.8618
16869SOL    HW259386   0.460   2.601   1.014 -0.6716 -1.3700  0.2412
16870SOL     OW59387   5.758   3.415   2.826  0.4549  0.2558  0.1592
16870SOL    HW159388   5.776   3.460   2.908  0.5250 -0.8033  0.7384
16870SOL    HW259389   5.662   3.404   2.825  0.2187  1.9609 -0.8336
16871SOL     OW59390   8.086   8.707   1.460 -0.6006 -0.2665 -0.0241
16871SOL    HW159391   7.995   8.704   1.431 -1.3636 -0.7893  2.2536
16871SOL    HW259392   8.114   8.615   1.461 -0.2538 -0.1634 -0.0947
16872SOL     OW59393   6.515   0.050  11.374  0.4110  0.3007 -0.7790
16872SOL    HW159394   6.515   0.145  11.376  0.8568  0.3073 -0.9730
16872SOL    HW259395   6.423   0.026  11.374  0.1992  0.6467  2.7517
16873SOL     OW59396   2.444  11.579   5.741  0.6326 -0.2685 -0.2378
16873SOL    HW159397   2.405  11.624   5.816 -0.9849  0.2253 -1.3344
16873SOL    HW259398   2.374  11.575   5.676  1.7722 -1.3591 -1.4516
16874SOL     OW59399   5.741   2.115   7.078  0.4508 -0.0278 -0.5683
16874SOL    HW159400   5.747   2.101   7.172 -0.7578 -0.2217 -0.5124
16874SOL    HW259401   5.705   2.033   7.044 -1.1894  0.8152 -0.9324
16875SOL     OW59402   9.453   1.955   6.119 -0.6270 -0.0803  0.1563
16875SOL    HW159403   9.389   2.017   6.153 -0.5618  0.7822 -1.2235
16875SOL    HW259404   9.418   1.869   6.143 -0.8449  0.4468  1.8777
16876SOL     OW59405   3.681   7.346  11.189  0.4004 -0.4664  0.2879
16876SOL    HW159406   3.745   7.277  11.173  1.4419 -0.1892  2.8247
16876SOL    HW259407   3.717   7.397  11.262 -0.8746  2.0808 -0.7162
16877SOL     OW59408   5.706   3.671   0.778  0.1744 -0.5555 -0.3304
16877SOL    HW159409   5.785   3.621   0.756  0.4066 -0.3337 -0.0048
16877SOL    HW259410   5.641   3.605   0.800  0.6852 -0.7130  0.8055
16878SOL     OW59411  10.088   3.101   8.550 -0.3034  0.2028 -0.4239
16878SOL    HW159412  10.019   3.166   8.568 -0.2432 -0.0493  0.8199
16878SOL    HW259413  10.045   3.017   8.562 -0.1259  0.0138 -1.0590
16879SOL     OW59414   8.807   6.071   5.642 -0.5279  0.4988 -0.0129
16879SOL    HW159415   8.825   6.162   5.668 -0.3892  0.1971  1.0178
16879SOL    HW259416   8.807   6.073   5.547 -0.5088  1.5798 -0.0112
16880SOL     OW59417  12.483   8.263   8.363 -0.0445 -0.0172  0.4066
16880SOL    HW159418  12.403   8.234   8.407  0.3968 -0.0628  1.2034
16880SOL    HW259419  12.554   8.217   8.408  0.4195 -0.2128 -0.4837
16881SOL     OW59420   9.024  12.167  12.365 -0.4824 -0.0374 -0.0615
16881SOL    HW159421   9.022  12.243  12.424 -0.4648  2.0661 -2.5940
16881SOL    HW259422   9.113  12.167  12.329 -0.1749 -1.9030  0.5693
16882SOL     OW59423   7.138  11.193  11.135 -0.0722  0.3594 -0.6710
16882SOL    HW159424   7.069  11.148  11.184  2.0587 -1.7766  0.6098
16882SOL    HW259425   7.107  11.283  11.127 -1.4731  0.3583  2.8934
16883SOL     OW59426  12.358   8.701   1.714  0.0336 -0.2419 -0.6600
16883SOL    HW159427  12.353   8.775   1.774  0.9232  0.0500 -0.9318
16883SOL    HW259428  12.376   8.626   1.770  1.4065  0.1164 -0.6021
16884SOL     OW59429   6.147   5.709   8.474  0.1071  0.6990 -0.3376
16884SOL    HW159430   6.104   5.781   8.428  0.4318  0.1635 -1.5146
16884SOL    HW259431   6.127   5.724   8.566 -2.1579  0.7835 -0.7831
16885SOL     OW59432   2.482   9.667   6.161 -0.1649  0.3983 -0.2574
16885SOL    HW159433   2.563   9.693   6.205 -0.8625  1.7333  0.3058
16885SOL    HW259434   2.489   9.572   6.150  1.3650  0.4709 -0.0192
16886SOL     OW59435  11.210   9.375   1.378 -0.4308  0.3232 -0.4484
16886SOL    HW159436  11.208   9.373   1.282  0.6207 -0.4197 -0.4724
16886SOL    HW259437  11.294   9.336   1.401 -1.0297 -0.3011  0.8009
16887SOL     OW59438   2.804   7.872   5.152 -0.3325 -0.5042 -0.3552
16887SOL    HW159439   2.722   7.853   5.198 -0.7270 -0.6848 -1.1095
16887SOL    HW259440   2.777   7.929   5.079  0.5068  1.1677  0.5716
16888SOL     OW59441   0.222   0.492   6.970 -0.1259 -0.0555 -0.3274
16888SOL    HW159442   0.152   0.434   6.999  1.4557 -2.1585 -0.5088
16888SOL    HW259443   0.196   0.518   6.882 -1.6703  0.9482  0.3708
16889SOL     OW59444  12.155   3.086   5.176  0.2217 -0.0766 -0.2240
16889SOL    HW159445  12.133   3.124   5.261 -0.8533 -0.7362 -0.1846
16889SOL    HW259446  12.083   3.112   5.119  0.0220 -1.1119 -0.4680
16890SOL     OW59447   8.585   1.337   7.665 -0.2732 -0.0689 -0.1739
16890SOL    HW159448   8.512   1.290   7.625  0.0878  0.1993 -1.1968
16890SOL    HW259449   8.660   1.315   7.610  1.0226 -2.3543  2.2623
16891SOL     OW59450  12.136  10.368  10.837 -0.5671 -0.0001  0.0190
16891SOL    HW159451  12.164  10.449  10.881 -0.3779 -1.4204  2.7755
16891SOL    HW259452  12.218  10.325  10.811 -0.5885 -0.0429  0.0223
16892SOL     OW59453  10.745   4.671   9.889  0.5684  0.6037 -0.3275
16892SOL    HW159454  10.749   4.575   9.900  1.6042  0.7030  0.3166
16892SOL    HW259455  10.670   4.697   9.942  0.1552  0.1359 -0.6653
16893SOL     OW59456   2.444   2.904   2.184 -0.0892  0.1099 -0.3683
16893SOL    HW159457   2.432   2.974   2.248  0.0526  2.2314 -2.4896
16893SOL    HW259458   2.486   2.833   2.232  0.8890  1.9397  1.6365
16894SOL     OW59459   4.153  12.378   4.126 -0.0104  0.1656  0.1669
16894SOL    HW159460   4.116  12.392   4.213 -1.3026 -0.5053 -0.2501
16894SOL    HW259461   4.248  12.384   4.139 -0.0692 -1.7277  1.9689
16895SOL     OW59462   1.132   3.007   6.612 -0.7626 -0.2030  0.1669
16895SOL    HW159463   1.166   3.049   6.690 -2.2678  0.7579  0.3404
16895SOL    HW259464   1.203   2.951   6.582  1.1097  1.9603  0.2960
16896SOL     OW59465   8.286   6.600   7.219 -0.3035  0.9548  0.3919
16896SOL    HW159466   8.238   6.630   7.142 -0.3769  0.1656  0.1190
16896SOL    HW259467   8.303   6.507   7.202  0.7206  1.0535  0.7889
16897SOL     OW59468   8.844   4.812  10.669 -0.0219 -0.5086 -0.2481
16897SOL    HW159469   8.775   4.764  10.714 -1.9785  0.6905 -1.8193
16897SOL    HW259470   8.877   4.873  10.736 -0.0092 -1.5127  0.6950
16898SOL     OW59471   2.174   6.033   3.058  0.2472  0.6697 -0.1765
16898SOL    HW159472   2.266   6.013   3.045 -0.3546 -3.2358  0.1507
16898SOL    HW259473   2.144   6.069   2.974  1.8479  1.0943 -0.5882
16899SOL     OW59474   0.173   4.084   9.982  0.6804 -0.1058  0.0723
16899SOL    HW159475   0.171   4.029   9.904  2.4998 -0.8943  0.5322
16899SOL    HW259476   0.144   4.170   9.951  0.7909 -0.5467 -1.3412
16900SOL     OW59477  11.485   3.784   7.344 -0.6434 -0.1041 -0.4566
16900SOL    HW159478  11.432   3.807   7.267 -0.0719 -1.6171 -1.3400
16900SOL    HW259479  11.560   3.737   7.309  0.2937  0.2724  0.9501
16901SOL     OW59480  11.856   7.562   3.006 -0.8358 -0.1575 -0.5550
16901SOL    HW159481  11.784   7.508   2.974 -2.1588  1.2542 -0.1022
16901SOL    HW259482  11.833   7.651   2.978  1.9620  0.0807 -2.5127
16902SOL     OW59483   5.156   2.047  10.361  0.0131  0.1364 -0.2164
16902SOL    HW159484   5.233   2.048  10.417  0.5696 -0.9525 -0.9121
16902SOL    HW259485   5.113   2.131  10.377  0.3680  0.0239  1.5027
16903SOL     OW59486   8.965  12.184   1.706 -0.3877  0.3439  0.2735
16903SOL    HW159487   8.913  12.109   1.678 -0.1882  0.6789 -1.0478
16903SOL    HW259488   9.052  12.148   1.724 -0.2922  0.2602 -0.3575
16904SOL     OW59489   1.295   2.367  10.375 -0.1184 -0.0470  0.5164
16904SOL    HW159490   1.201   2.369  10.395 -0.4502 -2.2865 -0.5417
16904SOL    HW259491   1.333   2.435  10.431 -2.0163 -0.8305  2.9245
16905SOL     OW59492   6.565   0.962   8.401  0.0477  0.1582  0.1050
16905SOL    HW159493   6.608   0.882   8.374  1.2529  1.2633 -1.3923
16905SOL    HW259494   6.600   0.981   8.488 -0.2739 -0.9259  0.4782
16906SOL     OW59495   2.341   5.766   1.809 -0.4028  0.8415 -0.6328
16906SOL    HW159496   2.271   5.831   1.795 -1.5995 -0.0496  0.7849
16906SOL    HW259497   2.338   5.710   1.732 -0.8178  1.2279 -0.9036
16907SOL     OW59498  12.507  11.562  10.874  0.2886 -0.2877  0.3270
16907SOL    HW159499  12.463  11.599  10.951 -0.9795  2.3751 -1.5378
16907SOL    HW259500  12.449  11.492  10.845  0.4873 -0.9274  1.3992
16908SOL     OW59501   3.742  11.590   5.940  0.2103  0.1182 -0.1483
16908SOL    HW159502   3.705  11.617   6.024  0.4286 -1.5471  0.5219
16908SOL    HW259503   3.681  11.625   5.875  0.0737  1.4948  0.6669
16909SOL     OW59504  10.266   9.453   2.040 -0.1098 -0.4406 -0.2108
16909SOL    HW159505  10.223   9.426   2.121  1.1836 -0.8621  0.3752
16909SOL    HW259506  10.250   9.548   2.035  1.0725 -0.0992  1.3924
16910SOL     OW59507   1.432   3.248   7.029  0.0991 -0.1125  0.2093
16910SOL    HW159508   1.430   3.198   7.111  2.1192 -0.4913  0.0791
16910SOL    HW259509   1.387   3.330   7.049  0.5869 -0.1875  1.7170
16911SOL     OW59510   2.725   3.818   2.075  0.2206 -0.1822 -0.1047
16911SOL    HW159511   2.651   3.875   2.096  1.9713  2.1230  0.1508
16911SOL    HW259512   2.743   3.835   1.983  0.6160 -0.5335 -0.0966
16912SOL     OW59513  10.152   2.791   0.342 -0.1576  0.5231  0.4892
16912SOL    HW159514  10.067   2.757   0.315  0.6151 -0.9602 -0.1807
16912SOL    HW259515  10.149   2.884   0.318 -0.7201 -0.0077 -1.7820
16913SOL     OW59516   2.720   8.012  12.224 -0.1184 -0.0266  0.2155
16913SOL    HW159517   2.697   7.923  12.197 -2.4150  0.5419  0.0753
16913SOL    HW259518   2.716   8.009  12.320  1.5500 -0.4588  0.3008
16914SOL     OW59519   6.652   7.211   3.361 -0.2072 -0.0005  0.2918
16914SOL    HW159520   6.643   7.295   3.405 -1.6248 -1.0100  2.0557
16914SOL    HW259521   6.585   7.156   3.400 -1.1086 -1.2159 -2.6951
16915SOL     OW59522   4.378   4.876  10.441 -0.5561  0.0224  0.3001
16915SOL    HW159523   4.377   4.782  10.462 -0.9501  0.1524  0.8584
16915SOL    HW259524   4.285   4.900  10.434 -0.5163 -0.3116 -2.9300
16916SOL     OW59525   4.294   1.136   7.605  0.4760 -0.1156  0.2950
16916SOL    HW159526   4.373   1.152   7.552  0.6637 -0.7170  0.3893
16916SOL    HW259527   4.252   1.222   7.612 -0.2038 -0.2270 -1.8496
16917SOL     OW59528   3.238   4.715  11.175  0.1419 -0.4191  0.2219
16917SOL    HW159529   3.330   4.731  11.194  0.5667 -3.1349  0.8980
16917SOL    HW259530   3.199   4.802  11.168  2.3927  0.7886  1.6256
16918SOL     OW59531  12.198   4.628   3.896 -0.4184 -0.5419  0.1186
16918SOL    HW159532  12.113   4.590   3.873  0.4752 -2.2203 -0.5631
16918SOL    HW259533  12.208   4.702   3.836 -1.2729 -0.4891  0.0262
16919SOL     OW59534   5.345   9.316  11.510 -0.1847  0.0243  0.0176
16919SOL    HW159535   5.392   9.251  11.562 -0.1202  1.0463  1.3081
16919SOL    HW259536   5.396   9.396  11.519 -1.1840  0.6993 -0.0719
16920SOL     OW59537   8.875   8.493   4.085  0.0400  0.5515  0.1218
16920SOL    HW159538   8.840   8.433   4.151 -0.6144 -0.0756 -0.7682
16920SOL    HW259539   8.945   8.444   4.042 -0.6536  0.3002 -0.7707
16921SOL     OW59540  12.029   0.135   0.388 -0.2884  0.0784 -0.6852
16921SOL    HW159541  12.066   0.222   0.396  0.8980 -0.2117 -2.4044
16921SOL    HW259542  12.076   0.082   0.452 -0.6674  0.5873  0.0171
16922SOL     OW59543   6.012  10.830   1.861  0.5652  0.0085 -0.2731
16922SOL    HW159544   6.016  10.734   1.865  2.8554  0.0598 -0.1828
16922SOL    HW259545   5.972  10.849   1.776 -0.4337 -1.0159 -0.0535
16923SOL     OW59546  11.782   4.926   0.917  0.1562 -0.0773 -0.1985
16923SOL    HW159547  11.862   4.968   0.885  0.5137  0.1756  0.9949
16923SOL    HW259548  11.715   4.994   0.910  0.3623  0.1629  0.1486
16924SOL     OW59549   8.856   2.640   8.388 -0.4805  0.5614 -0.4281
16924SOL    HW159550   8.903   2.573   8.339  0.1682  0.3551  0.4504
16924SOL    HW259551   8.910   2.719   8.377  0.1147  0.3127  0.6225
16925SOL     OW59552  11.916  10.502   2.553  0.0152  0.1257 -0.7586
16925SOL    HW159553  11.879  10.482   2.640  2.4920 -0.6945  0.1990
16925SOL    HW259554  11.971  10.427   2.533  2.0214  1.7276 -1.5440
16926SOL     OW59555   6.136   5.146   0.321  0.1596  0.2849 -1.1093
16926SOL    HW159556   6.189   5.073   0.353  3.4982  1.8462 -2.6549
16926SOL    HW259557   6.126   5.204   0.396 -2.0711 -1.3678 -0.0144
16927SOL     OW59558   7.939   0.175   3.955 -0.4434  0.0582  0.2670
16927SOL    HW159559   8.008   0.134   3.903 -0.9467  2.1434 -2.2808
16927SOL    HW259560   7.860   0.167   3.901 -1.2967  1.2716  1.2675
16928SOL     OW59561   4.278  11.600  12.231 -0.4575  0.4079  0.4819
16928SOL    HW159562   4.260  11.579  12.139  0.9567  0.8118  0.0908
16928SOL    HW259563   4.191  11.609  12.271 -1.0947 -0.4072 -0.6563
16929SOL     OW59564   0.984   4.492   0.569  0.0935 -0.7704 -0.1760
16929SOL    HW159565   0.921   4.564   0.569  1.5338  0.5494 -1.2713
16929SOL    HW259566   1.007   4.480   0.661  1.3390  1.6044 -0.1065
16930SOL     OW59567  11.443   4.373   4.395  0.2276  0.2770  0.5025
16930SOL    HW159568  11.407   4.459   4.420  1.7091  0.9950  0.2809
16930SOL    HW259569  11.466   4.332   4.478  1.2512  0.8933  0.5336
16931SOL     OW59570   7.594   8.992   9.060  0.0703  0.1846  0.6985
16931SOL    HW159571   7.682   8.961   9.081  0.3076 -1.6738 -2.4419
16931SOL    HW259572   7.603   9.088   9.057  1.1914  0.2373  3.2074
16932SOL     OW59573   2.296   7.633   8.490  0.3097  0.6509 -0.0805
16932SOL    HW159574   2.251   7.583   8.422  1.6866  0.9210 -1.2325
16932SOL    HW259575   2.387   7.605   8.484  0.3376  0.0906  2.2214
16933SOL     OW59576  11.183   2.746   8.178 -0.5986  0.4836 -0.1214
16933SOL    HW159577  11.192   2.832   8.138  1.8806 -0.3891 -1.6392
16933SOL    HW259578  11.265   2.732   8.224 -0.9853 -1.0610  0.1476
16934SOL     OW59579   3.277   2.418   6.836 -0.2618  0.2750 -0.3288
16934SOL    HW159580   3.224   2.493   6.863 -0.3223  0.2177 -0.2864
16934SOL    HW259581   3.217   2.343   6.842  0.5397 -0.2647  2.5319
16935SOL     OW59582   7.273   6.935   7.884 -0.2040 -0.1934 -0.6735
16935SOL    HW159583   7.185   6.965   7.908 -0.3346 -1.0330 -0.0751
16935SOL    HW259584   7.294   6.868   7.948  1.3969  0.8498 -0.0414
16936SOL     OW59585   5.825  10.664  10.173 -0.1118  0.0465  0.0077
16936SOL    HW159586   5.818  10.749  10.217  1.4866  0.3843 -0.3210
16936SOL    HW259587   5.793  10.680  10.084  2.9294  1.1651 -1.0211
16937SOL     OW59588   9.491  10.846   3.412 -0.5565  0.5669  0.0625
16937SOL    HW159589   9.549  10.845   3.488 -0.2020  1.3518 -0.1787
16937SOL    HW259590   9.525  10.776   3.356 -0.3529  0.4787  0.2933
16938SOL     OW59591  10.193   5.817  12.113 -0.1554 -0.1203 -0.3525
16938SOL    HW159592  10.107   5.832  12.073 -1.0066 -1.2731  0.9422
16938SOL    HW259593  10.178   5.824  12.207  0.7376 -2.1193  0.0081
16939SOL     OW59594   5.091  10.367  10.202  0.8759  0.6525  0.1798
16939SOL    HW159595   5.014  10.315  10.181  1.5414 -0.9836  1.5461
16939SOL    HW259596   5.061  10.457  10.199 -0.3773  0.2345 -2.0451
16940SOL     OW59597   7.922   3.941   9.806 -0.6576 -0.2713 -0.0935
16940SOL    HW159598   7.982   4.011   9.832 -1.5993  0.8718 -0.8874
16940SOL    HW259599   7.967   3.897   9.734 -1.4257  1.6907 -1.8817
16941SOL     OW59600   4.630  10.566   2.158 -0.3831 -0.1351 -0.3908
16941SOL    HW159601   4.608  10.644   2.108  0.3603  0.6828  0.5218
16941SOL    HW259602   4.704  10.527   2.110  0.6402  0.9062  0.2966
16942SOL     OW59603  12.096   0.652   3.048  0.4198  0.4110 -0.7063
16942SOL    HW159604  12.112   0.591   2.975 -0.9427 -1.2520  0.3197
16942SOL    HW259605  12.003   0.642   3.067  1.0546 -0.6806  2.4944
16943SOL     OW59606   1.929   6.849   3.691 -0.3189  0.1260  0.1901
16943SOL    HW159607   1.945   6.915   3.758  0.6070  0.8617 -0.7409
16943SOL    HW259608   1.990   6.870   3.620  0.2795 -1.9349  0.0194
16944SOL     OW59609  10.203   6.378   2.834 -0.1215  0.0903  0.7023
16944SOL    HW159610  10.185   6.399   2.742 -0.8231  0.4972  0.9204
16944SOL    HW259611  10.297   6.392   2.845 -0.0338  0.0296  0.0489
16945SOL     OW59612   6.852   4.531   1.186  0.5721  0.3741 -0.0161
16945SOL    HW159613   6.927   4.472   1.175 -0.3539 -1.1964  1.6246
16945SOL    HW259614   6.860   4.565   1.275  0.4014  1.8177 -0.5141
16946SOL     OW59615   8.944  11.631   2.633 -0.6634 -0.1229  0.5841
16946SOL    HW159616   9.008  11.702   2.625 -0.8624 -0.1448 -2.0601
16946SOL    HW259617   8.863  11.675   2.661 -0.5352  0.5375 -0.0663
16947SOL     OW59618   7.870   2.894   2.627  0.2320  0.1808  0.0756
16947SOL    HW159619   7.928   2.840   2.681  1.1311 -0.0059 -1.0470
16947SOL    HW259620   7.899   2.878   2.537  0.6250  2.6167 -0.3109
16948SOL     OW59621   4.111   2.325   8.451 -0.1197  0.1480 -0.5631
16948SOL    HW159622   4.139   2.395   8.510 -0.9956  0.4014 -0.4431
16948SOL    HW259623   4.031   2.290   8.490 -0.9111  0.5530 -1.7778
16949SOL     OW59624   0.914   4.562   9.062  0.5370  0.7553  0.0555
16949SOL    HW159625   0.859   4.605   8.997  1.9924  1.4284 -0.7659
16949SOL    HW259626   0.859   4.491   9.096 -0.9124  1.5430 -0.5525
16950SOL     OW59627  11.278  12.391   2.362 -0.0259  0.1490 -0.4814
16950SOL    HW159628  11.273  12.344   2.279  2.2864 -0.6207 -0.2544
16950SOL    HW259629  11.286  12.322   2.428 -0.5207  0.7946  0.2720
16951SOL     OW59630   7.040   7.580   1.256  0.1797 -0.3807 -0.5120
16951SOL    HW159631   7.079   7.600   1.342 -1.9168  0.3603  0.3287
16951SOL    HW259632   6.978   7.509   1.274  2.2749 -2.7923 -2.1467
16952SOL     OW59633  10.626   2.465   3.934 -0.0177  0.4021  0.0161
16952SOL    HW159634  10.623   2.505   3.847  0.1221  1.2551  0.3966
16952SOL    HW259635  10.710   2.418   3.934 -0.5378 -0.5630 -0.7103
16953SOL     OW59636   2.643   5.189   4.261  0.1723 -0.3919  0.3768
16953SOL    HW159637   2.553   5.155   4.259  0.2642 -0.6278  0.2126
16953SOL    HW259638   2.696   5.119   4.224  0.4284 -0.2571  0.4843
16954SOL     OW59639   2.537   6.051   0.731 -0.4359 -0.0739 -0.4790
16954SOL    HW159640   2.464   6.088   0.781 -0.0556  0.4494 -0.3016
16954SOL    HW259641   2.537   6.100   0.649  0.6601  1.0116  0.1406
16955SOL     OW59642   9.948   7.009   4.323  0.6309  0.3429  0.4914
16955SOL    HW159643   9.998   7.090   4.313  0.0893  0.6844  0.5183
16955SOL    HW259644   9.961   6.963   4.240  0.5088  0.7074  0.2659
16956SOL     OW59645   2.406   0.634  10.485 -0.3449  0.3586  0.1239
16956SOL    HW159646   2.449   0.581  10.552  1.3382  2.9915  1.2968
16956SOL    HW259647   2.473   0.647  10.418  0.0812  2.6932  0.9084
16957SOL     OW59648   8.941   7.438   6.629  0.1380 -0.3574  0.1006
16957SOL    HW159649   8.927   7.440   6.535  0.2637  1.3892  0.0835
16957SOL    HW259650   8.855   7.460   6.666  0.0801 -1.0725  0.3999
16958SOL     OW59651   6.328   7.078   2.545  0.2237 -0.2595  0.0422
16958SOL    HW159652   6.349   7.087   2.452 -1.3771 -1.9965 -0.5411
16958SOL    HW259653   6.239   7.112   2.553  0.5118  0.2923  1.0430
16959SOL     OW59654   0.300  10.340   7.513  0.2735 -0.7154  0.2469
16959SOL    HW159655   0.320  10.262   7.460 -0.4491 -0.1889 -0.8114
16959SOL    HW259656   0.205  10.345   7.514  0.3153  0.1376  0.3549
16960SOL     OW59657  11.256   2.172   3.713  0.3052  0.3913 -0.5463
16960SOL    HW159658  11.324   2.118   3.753  0.7501 -0.2189 -2.0461
16960SOL    HW259659  11.231   2.124   3.634  0.8308  2.4581 -2.0321
16961SOL     OW59660   1.299   9.726  11.246  0.5408 -0.0680  0.3689
16961SOL    HW159661   1.382   9.679  11.239 -0.5063 -1.9221 -0.1789
16961SOL    HW259662   1.302   9.767  11.332  2.8191  1.5839 -0.3925
16962SOL     OW59663  11.360  10.232   2.877  0.0584 -0.3673  0.2955
16962SOL    HW159664  11.338  10.146   2.842  1.9616 -0.1134 -1.7478
16962SOL    HW259665  11.289  10.289   2.847 -0.1021 -0.8173 -0.1918
16963SOL     OW59666   6.616   9.911  11.728  0.8952 -0.2646 -0.5911
16963SOL    HW159667   6.642   9.841  11.668 -1.0682 -1.3953 -0.2336
16963SOL    HW259668   6.660   9.890  11.810  0.8996 -0.6701 -0.6919
16964SOL     OW59669   2.199   9.007  11.825  0.9188 -0.1710  0.0470
16964SOL    HW159670   2.106   8.986  11.825  0.7940  0.3383 -0.6359
16964SOL    HW259671   2.203   9.097  11.859  1.1468 -0.1367 -0.0722
16965SOL     OW59672   5.125   4.063   4.280 -0.2450  0.1182  0.0533
16965SOL    HW159673   5.191   4.047   4.348 -0.1958  1.4615  0.3496
16965SOL    HW259674   5.081   4.144   4.307  0.6800  1.4685 -2.1985
16966SOL     OW59675   7.998   2.338   9.377  0.3469  0.0808 -0.0950
16966SOL    HW159676   7.939   2.275   9.336  0.1733 -0.4758  0.9823
16966SOL    HW259677   8.038   2.385   9.303  0.8108 -1.5845 -0.9554
16967SOL     OW59678   1.387   2.702   3.688  0.7417  0.1372 -0.1636
16967SOL    HW159679   1.411   2.795   3.687 -0.0967  0.3556 -0.2830
16967SOL    HW259680   1.383   2.679   3.780  1.4709  0.0728 -0.1387
16968SOL     OW59681   3.065  10.120  11.935  0.1467 -0.3564 -0.3857
16968SOL    HW159682   3.065  10.200  11.988 -0.4418  0.2859 -1.3390
16968SOL    HW259683   3.156  10.088  11.941  0.9066  1.4447 -1.5442
16969SOL     OW59684  11.569   7.415   7.915  0.7337  0.1868  0.1036
16969SOL    HW159685  11.663   7.432   7.928  0.4599  1.1288  0.9173
16969SOL    HW259686  11.539   7.488   7.860  0.2560  0.4974  0.7675
16970SOL     OW59687  11.291   7.528   2.408  0.2770  0.0761 -0.7089
16970SOL    HW159688  11.232   7.538   2.333  0.8021  0.9574 -1.0175
16970SOL    HW259689  11.264   7.597   2.468  0.9993  0.4955 -0.8581
16971SOL     OW59690   1.752   5.515  10.186  0.0754  0.1964 -0.1929
16971SOL    HW159691   1.802   5.549  10.112 -1.8993  1.3003 -1.1063
16971SOL    HW259692   1.714   5.434  10.153 -0.9914  0.8060 -0.5018
16972SOL     OW59693   8.439   5.028   7.124  0.0022 -0.1456  0.1628
16972SOL    HW159694   8.495   5.065   7.056 -0.0144 -0.7634 -0.1948
16972SOL    HW259695   8.472   5.066   7.206  0.1487  0.4492 -0.1616
16973SOL     OW59696   1.341   8.261   0.510 -0.1140  0.5768 -0.2162
16973SOL    HW159697   1.404   8.312   0.459  0.8583 -0.5588 -0.1887
16973SOL    HW259698   1.350   8.294   0.600 -0.6443  1.4378 -0.4669
16974SOL     OW59699   1.741   2.613   2.948 -0.1288 -0.3975  0.7387
16974SOL    HW159700   1.658   2.654   2.924  0.0456 -0.9771 -1.0008
16974SOL    HW259701   1.806   2.652   2.889  0.1374 -2.6960 -0.5889
16975SOL     OW59702  10.396   1.093   8.690 -0.1472 -0.1424 -0.0628
16975SOL    HW159703  10.489   1.094   8.714 -0.2726 -0.0523  0.4214
16975SOL    HW259704  10.391   1.149   8.612  0.1305  0.2232  0.1801
16976SOL     OW59705   2.215  12.438   5.602 -0.4219 -0.2903 -0.6282
16976SOL    HW159706   2.233  12.396   5.518  0.3388 -0.4890 -0.3750
16976SOL    HW259707   2.292  12.419   5.656  0.0096  1.5004 -0.5318
16977SOL     OW59708   4.050   7.677  12.398  0.2662 -0.0016 -0.0928
16977SOL    HW159709   4.133   7.633  12.415  0.8639  0.7949 -0.8638
16977SOL    HW259710   4.073   7.753  12.345 -0.8928  0.5430  0.1380
16978SOL     OW59711   2.218   5.741   8.734 -0.5529  0.2050 -1.0838
16978SOL    HW159712   2.308   5.752   8.702  0.2318 -1.2690  0.4265
16978SOL    HW259713   2.226   5.749   8.829 -2.2574  1.3156 -0.9978
16979SOL     OW59714   0.196   0.382   5.135 -0.7726 -0.4005 -0.5119
16979SOL    HW159715   0.210   0.314   5.068  0.2068 -0.5665 -0.1655
16979SOL    HW259716   0.129   0.439   5.098 -1.2864 -1.2986 -1.0104
16980SOL     OW59717  10.066   8.380   0.675  0.1160 -0.8104  0.0566
16980SOL    HW159718  10.145   8.326   0.681  0.3995 -0.4064 -0.0365
16980SOL    HW259719  10.016   8.341   0.604  1.0037 -0.0800 -0.9943
16981SOL     OW59720   3.926   9.515  10.064 -0.5180 -0.0521  0.2080
16981SOL    HW159721   3.937   9.433  10.017  1.6928  0.2275  0.1361
16981SOL    HW259722   3.908   9.580   9.996  0.6061 -0.0059 -0.0586
16982SOL     OW59723   7.495   4.192  12.566  0.2728  0.0536  0.0825
16982SOL    HW159724   7.460   4.117  12.517 -3.4658  0.5453  1.6368
16982SOL    HW259725   7.545   4.153  12.637 -1.1172 -0.9975  0.5236
16983SOL     OW59726  10.959   4.383   6.505  0.2434 -0.3527  0.3834
16983SOL    HW159727  10.875   4.409   6.467  0.3654  0.1409  0.4511
16983SOL    HW259728  10.963   4.288   6.490 -0.2750 -0.3637  0.2843
16984SOL     OW59729   8.588   2.723   2.267  0.5324  0.1672 -0.0143
16984SOL    HW159730   8.621   2.812   2.275  0.2831  0.2068  0.6761
16984SOL    HW259731   8.582   2.707   2.173  2.0242  0.3332 -0.1527
16985SOL     OW59732   8.418   8.322  12.234 -0.3576  0.1998  0.6630
16985SOL    HW159733   8.427   8.351  12.325  0.6512  0.9936  0.3268
16985SOL    HW259734   8.501   8.346  12.193 -1.4179  1.4274 -0.8946
16986SOL     OW59735   7.039   0.007   8.445 -0.2914 -0.0024  0.2375
16986SOL    HW159736   6.979   0.048   8.384  1.1337  3.5315  0.9654
16986SOL    HW259737   6.984  -0.018   8.520 -1.2070  1.0172 -0.0689
16987SOL     OW59738   2.948   3.288  10.208  0.2870 -0.2688  0.0518
16987SOL    HW159739   2.998   3.366  10.231 -0.9728 -0.2278  3.1192
16987SOL    HW259740   2.929   3.298  10.115  0.8104  2.6955  0.1683
16988SOL     OW59741   6.210   8.068   4.706  0.0573 -0.5648  0.2222
16988SOL    HW159742   6.305   8.055   4.698  0.1013 -0.1654  0.0583
16988SOL    HW259743   6.172   8.020   4.633  0.4482  3.0668 -2.6661
16989SOL     OW59744   4.794   5.213   7.175  0.4242  0.5807  0.4279
16989SOL    HW159745   4.835   5.268   7.108  1.8599 -0.5311  0.3442
16989SOL    HW259746   4.861   5.148   7.197 -0.6840 -0.2121  1.6133
16990SOL     OW59747   8.449   3.177   3.412 -0.7167  0.5884  0.1247
16990SOL    HW159748   8.397   3.162   3.491 -2.0284  1.1208 -0.5979
16990SOL    HW259749   8.508   3.249   3.435  0.7557 -0.9493  1.4008
16991SOL     OW59750  11.482   7.973   2.050  0.1125  0.4632 -0.1053
16991SOL    HW159751  11.480   7.964   2.145  1.6228 -0.3321 -0.1132
16991SOL    HW259752  11.455   8.063   2.034  0.6884  0.8811  1.1414
16992SOL     OW59753   5.761  12.056   5.950  0.2973  0.1145 -0.1111
16992SOL    HW159754   5.721  12.141   5.933 -0.2311  0.0056  0.5539
16992SOL    HW259755   5.847  12.061   5.908  0.2624  0.9645 -0.0998
16993SOL     OW59756   3.363   5.567   9.752 -0.1408 -0.4091  0.0480
16993SOL    HW159757   3.350   5.601   9.663 -0.7910 -0.4403  0.1274
16993SOL    HW259758   3.337   5.639   9.809 -1.3845 -0.9701  0.2176
16994SOL     OW59759   6.358   6.810   6.000  0.5483 -0.1876 -0.5950
16994SOL    HW159760   6.348   6.746   5.930  0.8285  0.7967 -1.5699
16994SOL    HW259761   6.268   6.834   6.023  0.4539  0.1944 -1.3144
16995SOL     OW59762   4.052  10.427   2.637  0.0387  0.3047 -0.7548
16995SOL    HW159763   3.969  10.385   2.660 -0.9605  2.5513  0.0972
16995SOL    HW259764   4.110  10.355   2.612 -1.5328 -1.5264  0.5628
16996SOL     OW59765   0.679   4.263   3.899 -0.0359 -0.2473 -0.5011
16996SOL    HW159766   0.668   4.357   3.895  1.0931 -0.0597  0.2475
16996SOL    HW259767   0.729   4.241   3.821 -1.0356 -0.3702 -1.1312
16997SOL     OW59768   1.833   7.439   1.884 -0.0708  0.5531  0.0389
16997SOL    HW159769   1.828   7.508   1.817  1.0542 -0.4146 -1.0910
16997SOL    HW259770   1.898   7.472   1.946 -0.2377  0.9279  0.0197
16998SOL     OW59771  10.067   0.861   4.087 -0.3101  0.0970  0.1428
16998SOL    HW159772  10.021   0.887   4.166 -1.1094 -1.4388  0.2260
16998SOL    HW259773  10.018   0.786   4.054  2.0849 -1.6213  0.2109
16999SOL     OW59774   0.297   7.040   8.300  0.1628  0.1063  0.0388
16999SOL    HW159775   0.352   7.034   8.378 -1.4813 -2.1397  1.1612
16999SOL    HW259776   0.227   7.100   8.324  1.4912  2.1934 -1.0426
17000SOL     OW59777  12.451   3.398   1.874 -0.3947  0.1544 -0.5541
17000SOL    HW159778  12.450   3.455   1.951  1.2108 -1.7267  0.9605
17000SOL    HW259779  12.489   3.452   1.805  0.4753  1.1476  0.6518
17001SOL     OW59780   7.252   1.676   0.649  0.6219  0.7502  0.1182
17001SOL    HW159781   7.245   1.744   0.716 -0.5712  0.2305  0.5540
17001SOL    HW259782   7.162   1.653   0.628  0.8553 -2.2768  1.6811
17002SOL     OW59783   4.964   9.919   8.689  0.2725  0.2116  0.1500
17002SOL    HW159784   4.932   9.995   8.739 -0.3596 -0.5907  0.9904
17002SOL    HW259785   4.946   9.942   8.597 -0.6528  0.7444  0.4519
17003SOL     OW59786  10.021  10.854   1.289  0.8377  0.1566  0.1963
17003SOL    HW159787  10.015  10.913   1.364  1.3262  0.3924  0.0554
17003SOL    HW259788  10.046  10.770   1.326  1.9775  0.4856  0.2185
17004SOL     OW59789   3.211  10.004   4.390 -0.3206  0.2815  0.3759
17004SOL    HW159790   3.234   9.930   4.446 -0.5574 -1.4237 -1.6822
17004SOL    HW259791   3.117  10.015   4.403 -0.5723 -0.7924 -0.4320
17005SOL     OW59792   4.614   4.851   7.983 -0.1120 -0.0905 -0.2269
17005SOL    HW159793   4.672   4.778   8.004 -0.6622 -0.0515  1.6559
17005SOL    HW259794   4.527   4.811   7.975 -0.2300  0.1888 -0.3706
17006SOL     OW59795  10.611   5.778  10.861 -0.3208 -0.2557 -0.0799
17006SOL    HW159796  10.570   5.856  10.822 -0.2576  1.2519  2.6449
17006SOL    HW259797  10.547   5.708  10.846 -0.9047  0.5464 -1.5878
17007SOL     OW59798   8.605   2.256   7.142 -0.0485  0.4010  0.1549
17007SOL    HW159799   8.664   2.186   7.171 -2.2473 -1.6740 -0.1210
17007SOL    HW259800   8.622   2.264   7.048  1.4493  1.5535  0.4820
17008SOL     OW59801  10.785  12.350   0.654 -0.4328  0.3696 -0.4283
17008SOL    HW159802  10.808  12.278   0.712 -0.0295  0.6254 -0.2745
17008SOL    HW259803  10.796  12.314   0.566 -0.4780  0.1671 -0.3518
17009SOL     OW59804   5.020   4.339   2.565 -0.5104  0.3458  0.3882
17009SOL    HW159805   5.011   4.378   2.478 -1.0945  1.3365  0.8710
17009SOL    HW259806   4.961   4.391   2.621  1.5333  1.2156  1.8595
17010SOL     OW59807   8.472  12.138  10.258  0.9779  0.2724  0.2573
17010SOL    HW159808   8.440  12.048  10.260  1.2092  0.1964  1.7170
17010SOL    HW259809   8.421  12.180  10.190  1.4935 -1.1846 -1.0913
17011SOL     OW59810   3.374   8.931   2.136 -0.0588 -0.4327  0.3866
17011SOL    HW159811   3.353   8.983   2.213 -0.2770 -1.1391  0.8136
17011SOL    HW259812   3.389   8.995   2.066  0.2037  0.2139  1.0310
17012SOL     OW59813   9.895   0.846   2.134 -1.7713 -0.5740  0.3631
17012SOL    HW159814   9.847   0.864   2.215 -0.4746 -1.2113  1.3095
17012SOL    HW259815   9.931   0.931   2.107 -1.3606 -0.5304  1.0341
17013SOL     OW59816   5.530   1.659   3.537  0.1431  0.2418 -0.7649
17013SOL    HW159817   5.528   1.580   3.592  0.6930 -1.2603 -2.7996
17013SOL    HW259818   5.438   1.673   3.513 -0.1680  1.1805  0.8216
17014SOL     OW59819   5.752   9.144  11.156 -0.2664  0.1873  0.0939
17014SOL    HW159820   5.750   9.240  11.151 -0.1698  0.1765 -0.2306
17014SOL    HW259821   5.785   9.124  11.243  3.1819  0.4766 -0.9959
17015SOL     OW59822   8.861   1.396   9.641 -0.8347  0.0860  0.1088
17015SOL    HW159823   8.943   1.445   9.638 -0.7209  0.0013  1.2776
17015SOL    HW259824   8.830   1.406   9.732 -0.4123 -2.6286  0.6338
17016SOL     OW59825   5.433   0.895   8.546 -0.4194 -0.3817  0.4757
17016SOL    HW159826   5.353   0.887   8.495  0.1488 -0.1078 -0.4976
17016SOL    HW259827   5.423   0.976   8.595 -0.3688  0.1419 -0.3546
17017SOL     OW59828   3.197   4.622   0.874  0.5053  0.4349 -0.1888
17017SOL    HW159829   3.251   4.544   0.863 -0.5984 -0.3602 -0.1629
17017SOL    HW259830   3.133   4.618   0.803 -1.3461 -0.2351  1.3947
17018SOL     OW59831   1.095   7.648   7.958 -0.4331  0.1754  0.4071
17018SOL    HW159832   1.180   7.689   7.945  0.6837 -2.2755 -0.5444
17018SOL    HW259833   1.033   7.707   7.915  1.1657  0.5793 -1.5003
17019SOL     OW59834   0.142   0.752   1.247 -0.1957 -0.1515  0.0069
17019SOL    HW159835   0.154   0.847   1.257  2.0125 -0.5671  2.4895
17019SOL    HW259836   0.079   0.729   1.315 -0.5175 -0.5127 -0.4082
17020SOL     OW59837  12.267   9.648  11.051  0.3935  0.3113  0.3100
17020SOL    HW159838  12.224   9.590  10.988 -0.5185  0.9403  0.3319
17020SOL    HW259839  12.208   9.650  11.126  0.4938  1.1143  0.3782
17021SOL     OW59840  10.075   5.619   5.940 -0.7960  0.3180  0.0372
17021SOL    HW159841  10.100   5.712   5.933  0.0996  0.0936  0.1856
17021SOL    HW259842  10.083   5.599   6.033  1.6302 -0.5999 -0.2980
17022SOL     OW59843   7.920   1.627   0.008 -0.6358 -0.5811  0.1484
17022SOL    HW159844   7.828   1.642  -0.016 -0.3808  0.7896 -0.0570
17022SOL    HW259845   7.917   1.556   0.072 -2.1409  1.2194  2.2252
17023SOL     OW59846   4.506   1.972   2.305  0.5496 -0.3884 -0.1743
17023SOL    HW159847   4.491   1.948   2.396 -0.3678  0.0334 -0.2020
17023SOL    HW259848   4.529   1.890   2.262  1.1038 -0.5674  0.4563
17024SOL     OW59849  11.479  11.900  10.996 -0.0120  0.2287  0.0799
17024SOL    HW159850  11.396  11.856  10.980 -0.0932  0.5422 -0.3737
17024SOL    HW259851  11.536  11.871  10.925  0.0282  0.6216 -0.0502
17025SOL     OW59852   0.223   2.368   0.188  0.4911  0.0142  0.4177
17025SOL    HW159853   0.232   2.325   0.273  1.1322 -2.9236 -0.9891
17025SOL    HW259854   0.129   2.366   0.169  0.4624 -0.3069  0.5940
17026SOL     OW59855   8.312  10.093   2.470  0.6780  0.3748  0.2469
17026SOL    HW159856   8.325  10.041   2.391  0.2314  0.1768  0.2983
17026SOL    HW259857   8.375  10.058   2.533 -0.5529 -1.0576  0.7320
17027SOL     OW59858   1.464  12.500   6.150  0.1083  0.2871 -0.2536
17027SOL    HW159859   1.463  12.502   6.054 -1.0909 -1.1450 -0.3216
17027SOL    HW259860   1.543  12.452   6.172  0.1143  0.1557 -0.5498
17028SOL     OW59861  11.247  11.077   4.656 -0.2350  0.2519  0.6118
17028SOL    HW159862  11.287  11.153   4.696  0.9040 -0.1432  0.2714
17028SOL    HW259863  11.314  11.009   4.661 -0.6437 -0.2690 -0.4909
17029SOL     OW59864   6.315   8.319  10.495  0.2145  0.2199  0.1969
17029SOL    HW159865   6.243   8.382  10.500  0.8171  0.9612 -0.3633
17029SOL    HW259866   6.295   8.266  10.418  0.3407  0.5139 -0.0378
17030SOL     OW59867   6.073   4.292  11.604 -0.2444 -0.3563 -0.2146
17030SOL    HW159868   6.114   4.339  11.677  1.0495 -0.1541 -1.0308
17030SOL    HW259869   5.987   4.267  11.637 -0.3355  1.1555  0.8206
17031SOL     OW59870   2.740   2.606  10.114  0.2349  0.4120 -0.5109
17031SOL    HW159871   2.700   2.519  10.108  2.7524 -0.9756  0.8344
17031SOL    HW259872   2.715   2.637  10.201 -0.2627  0.8619 -0.8056
17032SOL     OW59873   5.724   8.718   6.959  0.0648 -0.0136 -0.3491
17032SOL    HW159874   5.702   8.750   7.047 -0.4173  1.5794 -1.0334
17032SOL    HW259875   5.645   8.733   6.907 -0.3448 -2.6889 -0.6546
17033SOL     OW59876   5.974   3.279   5.697 -0.0987  0.2659  0.0251
17033SOL    HW159877   5.946   3.217   5.629 -1.0514  0.9953 -0.2691
17033SOL    HW259878   6.063   3.252   5.719 -0.2255 -0.7380 -0.6379
17034SOL     OW59879   8.603   7.182   9.233 -0.2465  0.6950 -0.1127
17034SOL    HW159880   8.574   7.193   9.142  0.0752  1.6893 -0.1082
17034SOL    HW259881   8.549   7.111   9.267 -1.2869  1.1829 -0.7005
17035SOL     OW59882   8.135   3.474   0.224  0.3817  0.1213 -0.0154
17035SOL    HW159883   8.120   3.413   0.296  1.8587  0.7692  0.8947
17035SOL    HW259884   8.054   3.473   0.174 -1.3208  0.8687  2.5462
17036SOL     OW59885   0.802   4.693   0.536 -0.0788 -0.6524  0.2667
17036SOL    HW159886   0.784   4.636   0.461 -0.2105 -0.9436  0.5149
17036SOL    HW259887   0.715   4.715   0.570 -0.2793  2.4807 -1.8262
17037SOL     OW59888   8.017   4.786   4.915  0.3734 -0.1142  0.1246
17037SOL    HW159889   7.979   4.746   4.993 -1.3330  1.2635  0.0725
17037SOL    HW259890   7.942   4.824   4.869  1.4551 -0.1012 -1.7232
17038SOL     OW59891   0.383   3.902   5.065  0.3321 -0.6755  0.4586
17038SOL    HW159892   0.329   3.980   5.074  1.4986  0.2336 -0.1221
17038SOL    HW259893   0.340   3.836   5.120 -1.9558 -0.3505 -0.7941
17039SOL     OW59894   4.527   9.739   5.831 -0.3663  0.0226  0.0319
17039SOL    HW159895   4.490   9.696   5.908 -0.9107 -1.0704 -0.8112
17039SOL    HW259896   4.563   9.821   5.865  1.1974 -1.3127  1.8082
17040SOL     OW59897   5.738   5.621   2.662  1.4225 -0.1879  0.0484
17040SOL    HW159898   5.649   5.642   2.691  0.8044 -2.6435  0.1980
17040SOL    HW259899   5.773   5.703   2.627 -1.1586  0.6970 -0.6580
17041SOL     OW59900  12.498   4.694   4.178 -0.1957 -0.2601  0.1312
17041SOL    HW159901  12.513   4.635   4.104 -2.4201 -1.3228  0.4262
17041SOL    HW259902  12.463   4.774   4.139 -0.1538 -0.3354 -0.0592
17042SOL     OW59903   7.751   9.344   0.161 -0.3238 -0.4512 -0.0642
17042SOL    HW159904   7.733   9.417   0.220 -0.1625  0.9855 -1.7191
17042SOL    HW259905   7.803   9.283   0.214 -0.6713  0.4981  1.4328
17043SOL     OW59906   9.613   1.847  10.206  0.1465 -0.1275 -0.2155
17043SOL    HW159907   9.631   1.935  10.173 -0.1958 -0.2420 -0.7170
17043SOL    HW259908   9.628   1.790  10.131  0.6224 -0.5309  0.1754
17044SOL     OW59909   8.307  10.495   1.072  0.0841  0.1425  0.4712
17044SOL    HW159910   8.291  10.589   1.064  1.8513  0.3906 -0.7035
17044SOL    HW259911   8.395  10.490   1.111  0.0935 -1.0180  0.3101
17045SOL     OW59912   4.719   5.025   1.804 -0.5322  0.3462 -0.2098
17045SOL    HW159913   4.756   5.017   1.892  1.5607  2.1838 -0.8516
17045SOL    HW259914   4.714   5.119   1.789 -1.4297  0.0622 -1.8598
17046SOL     OW59915   6.982   2.443   9.826 -1.0343  0.1135  0.1720
17046SOL    HW159916   7.021   2.466   9.742 -2.3793  0.7044 -0.3154
17046SOL    HW259917   7.026   2.362   9.851  0.6812  0.8848 -0.1954
17047SOL     OW59918   1.567   2.312   3.551 -0.2015 -0.2356  0.3498
17047SOL    HW159919   1.523   2.235   3.516  0.8421 -0.5979 -0.2264
17047SOL    HW259920   1.659   2.299   3.529  0.1981  0.5064  1.4797
17048SOL     OW59921   1.191   2.122   5.901 -0.3136 -0.8489 -0.4231
17048SOL    HW159922   1.239   2.076   5.970  0.2605  0.1046 -0.1657
17048SOL    HW259923   1.131   2.056   5.865 -1.3233 -1.1166  1.6158
17049SOL     OW59924   9.376   3.769   1.358 -0.4673  0.5664 -0.2195
17049SOL    HW159925   9.337   3.742   1.441  1.3685 -1.0617  0.1833
17049SOL    HW259926   9.414   3.855   1.377  0.0395  0.1630  0.6974
17050SOL     OW59927  10.658   4.750   5.036 -0.4205  0.2002 -0.2811
17050SOL    HW159928  10.565   4.768   5.023 -0.3270  0.4827 -0.5535
17050SOL    HW259929  10.701   4.834   5.024 -0.3460  0.5808  2.1776
17051SOL     OW59930  10.732   6.943  11.013 -0.5779  0.1785 -0.2554
17051SOL    HW159931  10.670   7.016  11.004 -0.8026 -0.2316 -2.8575
17051SOL    HW259932  10.677   6.867  11.028 -0.7427 -0.0931 -1.9881
17052SOL     OW59933  11.161  12.056   1.571 -0.2311  0.1231  0.2985
17052SOL    HW159934  11.120  11.971   1.553 -1.5602  0.7448  0.2147
17052SOL    HW259935  11.249  12.050   1.534 -0.4156 -1.1080  0.0414
17053SOL     OW59936  10.652   6.193  10.357  0.1874  0.5127 -0.0950
17053SOL    HW159937  10.736   6.239  10.365 -0.8423  2.4880 -0.0437
17053SOL    HW259938  10.600   6.226  10.431 -0.7122 -0.5542 -0.2295
17054SOL     OW59939   2.515  10.355   8.660  0.0707  0.4412  0.4534
17054SOL    HW159940   2.473  10.422   8.606 -0.6745  0.2718  0.8025
17054SOL    HW259941   2.602  10.389   8.678  0.8239 -0.0928 -1.9414
17055SOL     OW59942   9.788   9.173  11.916 -0.2490  0.5913  0.2347
17055SOL    HW159943   9.758   9.098  11.865 -1.1877  0.8705  0.3521
17055SOL    HW259944   9.755   9.249  11.868  0.0873  0.9020  0.4908
17056SOL     OW59945   9.028   6.932   5.292  0.2137 -0.2186 -0.2708
17056SOL    HW159946   9.018   7.027   5.297  1.2649 -0.1111  0.1098
17056SOL    HW259947   9.108   6.919   5.242  0.1006 -0.9093 -0.2812
17057SOL     OW59948   9.029   9.700  12.391  0.3667 -0.2675  0.0488
17057SOL    HW159949   9.047   9.725  12.482 -0.0623 -0.2504  0.1289
17057SOL    HW259950   8.934   9.705  12.383  0.5151  1.7759 -0.9811
17058SOL     OW59951   0.134  10.553   8.926  0.0813  0.0312 -0.2854
17058SOL    HW159952   0.207  10.530   8.868  0.9347  2.3702 -0.2649
17058SOL    HW259953   0.060  10.502   8.893  1.1262 -0.5162 -1.9059
17059SOL     OW59954   6.197   2.990   1.001 -0.0676 -0.6374 -0.2727
17059SOL    HW159955   6.129   2.979   0.934 -1.0379 -1.5460  0.8228
17059SOL    HW259956   6.279   2.991   0.951 -0.8820  4.0658 -2.0780
17060SOL     OW59957   6.290   5.598   0.395  0.1638 -0.9684  0.5804
17060SOL    HW159958   6.241   5.655   0.454 -0.4438 -0.9362  0.0512
17060SOL    HW259959   6.360   5.652   0.361  0.5146 -0.9840  1.2652
17061SOL     OW59960   2.699   8.188   0.602  0.4059 -0.5482 -0.3576
17061SOL    HW159961   2.680   8.268   0.652  1.7697 -0.9296  0.8238
17061SOL    HW259962   2.794   8.178   0.607  0.3972 -1.4875 -1.6954
17062SOL     OW59963   6.031   0.493   5.239  0.3290 -0.0235  0.4020
17062SOL    HW159964   6.119   0.457   5.250  0.9852  1.2591 -0.3232
17062SOL    HW259965   6.031   0.529   5.150 -0.5775  0.9162  0.7609
17063SOL     OW59966   5.499   1.723  11.013  0.3603  0.7445  0.6168
17063SOL    HW159967   5.495   1.745  11.106  0.3371 -0.0503  0.8116
17063SOL    HW259968   5.488   1.628  11.010 -2.0843  0.9787 -0.3764
17064SOL     OW59969   8.484   7.997   1.432 -0.0885 -0.4625  0.0430
17064SOL    HW159970   8.532   8.010   1.513  0.7742  0.7231 -0.6376
17064SOL    HW259971   8.541   7.942   1.379 -0.1574 -0.3153 -0.1848
17065SOL     OW59972   3.247   0.091   8.680 -0.3384  0.0563 -0.0163
17065SOL    HW159973   3.172   0.063   8.629  0.2234 -2.0182  0.1960
17065SOL    HW259974   3.323   0.057   8.632  0.3408  0.3890  0.7901
17066SOL     OW59975   4.154  10.731   8.966  0.3380 -0.5277  0.0340
17066SOL    HW159976   4.204  10.794   9.018  1.4616  0.5106 -2.1950
17066SOL    HW259977   4.096  10.785   8.911  0.3315 -1.4897 -0.9452
17067SOL     OW59978   5.985  11.346   9.438  0.6168 -0.0612  0.1594
17067SOL    HW159979   5.949  11.426   9.401  0.6247 -0.7836 -1.4710
17067SOL    HW259980   5.910  11.288   9.449  0.7158 -0.1053  0.6224
17068SOL     OW59981   9.464   8.189   3.051  0.3048  0.2475 -0.4131
17068SOL    HW159982   9.446   8.258   3.116  1.5657 -0.2194  0.4706
17068SOL    HW259983   9.554   8.205   3.024  0.7198 -1.2293  0.0385
17069SOL     OW59984   1.694   1.640   8.762 -0.4848 -0.7129  0.4319
17069SOL    HW159985   1.619   1.613   8.708  0.4624 -2.1509 -0.2227
17069SOL    HW259986   1.691   1.736   8.760 -0.9617 -0.7205 -1.5179
17070SOL     OW59987   2.002   3.609   7.001 -0.3579 -0.2957  0.2359
17070SOL    HW159988   2.022   3.619   7.093  0.2444  0.9909 -0.0178
17070SOL    HW259989   1.926   3.665   6.986  0.1792  0.3171 -0.2536
17071SOL     OW59990   5.612  11.578   4.478  0.6106 -0.5030  0.5125
17071SOL    HW159991   5.578  11.488   4.471  0.3371 -0.3480 -4.9912
17071SOL    HW259992   5.536  11.633   4.458  1.5743  0.6147 -0.2166
17072SOL     OW59993   1.798  10.849   3.765 -0.0337 -0.0036 -0.2727
17072SOL    HW159994   1.841  10.782   3.713  0.4795  0.7035 -0.7789
17072SOL    HW259995   1.759  10.908   3.701  1.7475  1.6329  0.0446
17073SOL     OW59996   3.180  11.709   1.738  0.3543  0.4969 -0.2078
17073SOL    HW159997   3.248  11.774   1.722  1.0540 -0.1793 -0.0418
17073SOL    HW259998   3.139  11.736   1.820 -0.2961  1.4959 -0.8395
17074SOL     OW59999   5.705   8.459   7.135  0.8300  0.0065  0.2585
17074SOL    HW160000   5.726   8.373   7.172 -0.5592 -1.0979 -1.3466
17074SOL    HW260001   5.756   8.463   7.054  2.0867  1.4151  1.0668
17075SOL     OW60002   4.794   7.017   4.767 -0.1618 -0.0684 -0.2479
17075SOL    HW160003   4.835   7.102   4.778  0.9794 -0.6508  0.1811
17075SOL    HW260004   4.861   6.963   4.724 -0.5386 -0.9824  0.2736
17076SOL     OW60005   9.576   0.004  12.184  0.0699 -0.6725 -0.1212
17076SOL    HW160006   9.542   0.021  12.272  0.7665 -0.1911  0.0655
17076SOL    HW260007   9.661  -0.038  12.199  0.6577  0.3062 -0.5272
17077SOL     OW60008   5.104  11.469  11.502  0.3246  0.6146 -0.3427
17077SOL    HW160009   5.148  11.508  11.577  0.1261 -0.9616  0.6508
17077SOL    HW260010   5.025  11.429  11.539  1.3546 -2.1882 -0.9162
17078SOL     OW60011   3.179   5.674   8.436  0.0954  0.6284 -0.0382
17078SOL    HW160012   3.181   5.661   8.341 -0.5332  3.5218 -0.5636
17078SOL    HW260013   3.096   5.719   8.452  0.8311  1.4748  1.6759
17079SOL     OW60014   6.506   3.782   4.645  0.1698  0.3588 -0.0247
17079SOL    HW160015   6.534   3.741   4.727  1.2436 -0.2386 -0.6743
17079SOL    HW260016   6.477   3.710   4.590 -0.9365  0.7963 -0.0460
17080SOL     OW60017  11.376   1.936   8.407 -0.2259 -0.0457 -0.1840
17080SOL    HW160018  11.311   1.897   8.350 -1.3281 -0.8703  1.5453
17080SOL    HW260019  11.382   2.027   8.379 -1.3432 -0.2214 -1.0370
17081SOL     OW60020   5.224   2.528   4.571 -0.1578  0.1135  0.6889
17081SOL    HW160021   5.308   2.491   4.598 -0.5295 -0.4990  1.0203
17081SOL    HW260022   5.193   2.471   4.501  0.5228  1.3540 -0.6852
17082SOL     OW60023   2.352   2.935   5.436  0.5056 -0.2281  0.7921
17082SOL    HW160024   2.279   2.872   5.434  0.1943  0.0902  1.6814
17082SOL    HW260025   2.417   2.894   5.493  0.8860 -0.3544  0.2745
17083SOL     OW60026   5.823   2.238  11.211  0.3308 -0.0237 -0.2861
17083SOL    HW160027   5.913   2.208  11.216  0.3648  0.2487  1.5105
17083SOL    HW260028   5.787   2.222  11.299 -0.4916  2.4554 -0.0663
17084SOL     OW60029  10.227   9.245   7.204  0.0702 -0.4166 -0.0468
17084SOL    HW160030  10.249   9.233   7.297  1.0972  0.0067 -0.2135
17084SOL    HW260031  10.170   9.322   7.203 -0.2572 -0.6536  0.2715
17085SOL     OW60032  12.449   7.061   0.744  0.7364 -0.5938 -0.0462
17085SOL    HW160033  12.354   7.049   0.746  0.6091 -0.1281 -1.8002
17085SOL    HW260034  12.480   7.022   0.827 -0.9347 -0.9968  0.4240
17086SOL     OW60035   4.217  11.602  10.997  0.7919 -0.4332  0.8200
17086SOL    HW160036   4.162  11.551  10.938 -0.5705  1.4763  0.3483
17086SOL    HW260037   4.306  11.571  10.980  0.2219 -1.2224 -0.8920
17087SOL     OW60038   2.411  12.055   2.703 -0.1898  0.3554 -0.5055
17087SOL    HW160039   2.409  12.054   2.798  0.1140  3.1842 -0.3725
17087SOL    HW260040   2.473  11.987   2.679 -2.4341 -2.4591  1.1054
17088SOL     OW60041  12.300   6.553   2.511 -0.4943  0.3239 -0.1813
17088SOL    HW160042  12.316   6.644   2.538 -0.4794 -0.0958  1.3083
17088SOL    HW260043  12.290   6.558   2.416  0.3696  1.7617 -0.2298
17089SOL     OW60044  12.296   1.097  10.375 -0.2217  0.3192 -0.4353
17089SOL    HW160045  12.292   1.001  10.382  0.2037  0.3459  0.2036
17089SOL    HW260046  12.374   1.114  10.323 -1.2295  0.2751 -2.0615
17090SOL     OW60047   6.709   9.373  10.351 -0.6623  0.1059  0.0271
17090SOL    HW160048   6.803   9.360  10.340 -0.6840 -0.8723  0.8793
17090SOL    HW260049   6.669   9.298  10.306 -0.9285 -0.8849  1.8499
17091SOL     OW60050   8.033   8.647   5.247 -0.0199 -0.0872 -0.5014
17091SOL    HW160051   8.023   8.678   5.337 -0.8271 -3.0846  0.5592
17091SOL    HW260052   8.046   8.726   5.196 -2.9388  2.0663  1.7730
17092SOL     OW60053  11.369   4.106  11.255  0.0380  0.6127 -0.8678
17092SOL    HW160054  11.403   4.076  11.339 -0.1062  0.9992 -0.6659
17092SOL    HW260055  11.439   4.160  11.219 -1.4706  4.2736  1.0841
17093SOL     OW60056   1.191   8.087   5.835 -0.0794  0.1277 -0.1271
17093SOL    HW160057   1.189   8.085   5.931 -1.6459 -4.0926 -0.0554
17093SOL    HW260058   1.101   8.105   5.809 -0.0794 -0.6783 -0.7291
17094SOL     OW60059   3.744   4.548   2.296  0.6319  0.4102 -0.0375
17094SOL    HW160060   3.775   4.618   2.239  2.4992  0.6020  1.1358
17094SOL    HW260061   3.814   4.536   2.361  0.1067 -2.1156  0.1822
17095SOL     OW60062  12.494   8.496   0.597  0.0358 -0.0009  0.4164
17095SOL    HW160063  12.500   8.459   0.685  0.5837 -0.1496  0.3199
17095SOL    HW260064  12.425   8.446   0.554 -1.0309  0.8225  1.1159
17096SOL     OW60065  12.147   4.675   4.253  0.8968  0.6008 -0.3511
17096SOL    HW160066  12.180   4.721   4.175  0.4597 -1.8537 -2.0781
17096SOL    HW260067  12.054   4.698   4.257  0.9150  0.7143 -0.5564
17097SOL     OW60068   5.571   0.131   7.800 -0.2677 -0.2078  0.0628
17097SOL    HW160069   5.651   0.183   7.792  1.0452 -1.1517  4.6321
17097SOL    HW260070   5.505   0.193   7.832 -0.2917 -0.2340  0.0634
17098SOL     OW60071  10.617   2.776   0.938  0.3101  0.2098  0.2791
17098SOL    HW160072  10.652   2.691   0.966  1.0816  1.0943  2.1879
17098SOL    HW260073  10.554   2.754   0.870  4.5064 -1.4961 -3.5478
17099SOL     OW60074   8.303   4.072   7.660  0.3835  0.6297 -0.2652
17099SOL    HW160075   8.336   3.983   7.671  0.4683  0.7251  0.2612
17099SOL    HW260076   8.382   4.127   7.659  0.4951  0.5451 -2.4735
17100SOL     OW60077   4.400   8.587   0.472 -0.6289 -0.4446 -0.5127
17100SOL    HW160078   4.399   8.510   0.416  0.6365 -0.3317 -0.6973
17100SOL    HW260079   4.435   8.657   0.417  2.1635 -0.6890  0.8223
17101SOL     OW60080   0.022   1.977   6.115  0.4581 -0.3681  0.4587
17101SOL    HW160081   0.064   2.063   6.110 -1.4590  0.6106  0.4000
17101SOL    HW260082   0.078   1.920   6.061  1.9155  0.7473  0.7313
17102SOL     OW60083   6.910   5.631   2.424  0.4040 -0.1775  0.5523
17102SOL    HW160084   6.823   5.647   2.388 -0.0879 -1.4916  1.0626
17102SOL    HW260085   6.897   5.635   2.519  0.9568 -0.1007  0.6237
17103SOL     OW60086  11.321   1.493   9.364 -0.2352  0.3026  0.2327
17103SOL    HW160087  11.381   1.421   9.345 -1.7061 -0.7395 -0.6699
17103SOL    HW260088  11.293   1.477   9.454  0.4482  0.5151  0.4896
17104SOL     OW60089   8.114   2.956   8.015  0.6202 -0.0453  0.2129
17104SOL    HW160090   8.070   3.041   8.016  1.3770  0.3665  1.7635
17104SOL    HW260091   8.103   2.924   7.925 -1.1780  0.8914  0.0574
17105SOL     OW60092   0.447   1.323   4.021  0.1703 -0.1489 -0.1174
17105SOL    HW160093   0.499   1.244   4.035  0.2559 -0.5524 -2.3103
17105SOL    HW260094   0.489   1.390   4.075  2.1380 -0.7999 -0.7661
17106SOL     OW60095  10.239   4.573   8.426 -0.0894  0.2340 -0.4047
17106SOL    HW160096  10.256   4.569   8.332 -0.6037 -0.4276 -0.4850
17106SOL    HW260097  10.315   4.531   8.466  1.0774  2.2719 -0.3783
17107SOL     OW60098   5.005   4.348   6.829  0.1235  0.2767  0.1528
17107SOL    HW160099   5.062   4.282   6.869 -0.2164  0.0591  0.2834
17107SOL    HW260100   5.058   4.386   6.759  0.4958  0.2084  0.3905
17108SOL     OW60101   3.785  11.646   3.417 -0.2357 -0.3355 -0.2645
17108SOL    HW160102   3.751  11.736   3.413  0.4805  0.1252  2.3899
17108SOL    HW260103   3.753  11.612   3.500 -0.4508 -2.5887 -1.1974
17109SOL     OW60104   7.583   1.752  11.517  0.0318  0.1643 -0.0466
17109SOL    HW160105   7.544   1.831  11.554 -0.8822  0.1448 -0.9110
17109SOL    HW260106   7.531   1.680  11.552 -1.0030  0.1606 -1.4827
17110SOL     OW60107   3.147   9.001   0.644 -0.0343  0.6442 -0.0364
17110SOL    HW160108   3.107   9.080   0.610  1.3279  0.7432 -1.5554
17110SOL    HW260109   3.177   9.024   0.732  1.7949  2.4013 -1.0303
17111SOL     OW60110  12.344   8.963   4.497 -0.2245 -0.1312  0.0126
17111SOL    HW160111  12.332   8.869   4.483 -1.5231  0.0318 -0.0672
17111SOL    HW260112  12.275   8.987   4.558 -0.8240  1.0359 -1.0964
17112SOL     OW60113  11.312   7.175  10.302  0.2170  0.4287 -0.6981
17112SOL    HW160114  11.232   7.226  10.317 -0.4862 -0.5148 -1.1604
17112SOL    HW260115  11.359   7.179  10.386 -0.5760  0.5399 -0.2540
17113SOL     OW60116   9.928  10.522  12.437 -0.7315  0.2549 -0.4444
17113SOL    HW160117   9.973  10.600  12.407 -1.4496  0.7180 -0.3352
17113SOL    HW260118   9.954  10.454  12.375  0.4857  0.3887 -0.1058
17114SOL     OW60119   9.107   6.684   8.609  0.0239 -0.4268  0.5876
17114SOL    HW160120   9.195   6.645   8.601  0.5843  1.0689 -1.2918
17114SOL    HW260121   9.060   6.652   8.532 -0.1099  1.0514  0.0294
17115SOL     OW60122   8.305   4.731   4.962 -0.1540  0.3388 -0.6919
17115SOL    HW160123   8.213   4.748   4.984 -0.2413  1.2305 -1.6364
17115SOL    HW260124   8.330   4.806   4.908  1.3141  0.3979  0.0361
17116SOL     OW60125   9.156  10.087  11.413  0.2290  0.7924  0.2818
17116SOL    HW160126   9.174  10.103  11.505 -0.6980 -0.7908  0.7712
17116SOL    HW260127   9.211  10.012  11.390  0.7779  1.4423 -0.5873
17117SOL     OW60128   6.845  10.019   6.970  0.4412  0.0678  0.4108
17117SOL    HW160129   6.799  10.099   6.945 -0.0291  0.2917  1.8945
17117SOL    HW260130   6.842   9.965   6.891  1.2131  1.6856 -0.7881
17118SOL     OW60131   4.720   7.994   3.980 -0.0523  0.3290 -0.4240
17118SOL    HW160132   4.813   8.010   3.991 -0.0041  0.1212 -0.5195
17118SOL    HW260133   4.702   8.017   3.889 -0.3154  1.4090 -0.1098
17119SOL     OW60134   0.183   3.382  10.399 -0.0492 -0.0027  1.1145
17119SOL    HW160135   0.221   3.359  10.314  0.3910 -0.8298  1.5118
17119SOL    HW260136   0.259   3.400  10.454 -0.3749  2.4290  0.8581
17120SOL     OW60137   8.561   5.776   0.897  0.0780 -0.5541 -0.2514
17120SOL    HW160138   8.504   5.803   0.825  0.7015 -0.9645 -0.9155
17120SOL    HW260139   8.643   5.823   0.880 -0.3788  0.8615  1.2763
17121SOL     OW60140   1.040   2.870   9.475 -0.3808 -0.4009 -0.3329
17121SOL    HW160141   1.071   2.901   9.560 -0.3014  0.7591 -0.7638
17121SOL    HW260142   1.027   2.950   9.424  0.9873 -1.1103 -1.8923
17122SOL     OW60143   6.192   5.477   5.011 -0.6155 -0.0570  0.2948
17122SOL    HW160144   6.234   5.391   5.019 -0.6034  0.0535  1.6358
17122SOL    HW260145   6.251   5.528   4.956 -1.3217 -1.3174 -1.7638
17123SOL     OW60146   6.155   6.164   2.341  0.0995  1.1212 -0.0813
17123SOL    HW160147   6.142   6.217   2.420  0.6501  2.0793 -0.6241
17123SOL    HW260148   6.246   6.180   2.316  0.7337 -1.1900  0.5364
17124SOL     OW60149   3.675   2.125   6.600  0.0833  0.1798 -0.8371
17124SOL    HW160150   3.655   2.112   6.693 -1.1022 -0.5421 -1.1880
17124SOL    HW260151   3.757   2.077   6.587  1.9047  2.6448  0.4571
17125SOL     OW60152   5.433  10.028   7.372 -0.2474  0.4199 -0.2448
17125SOL    HW160153   5.405   9.936   7.365  1.6983 -0.2314 -0.1871
17125SOL    HW260154   5.527  10.022   7.390 -0.1619  2.4391  0.1333
17126SOL     OW60155   4.493   9.773   5.538  0.4680  0.8655 -0.5704
17126SOL    HW160156   4.399   9.787   5.523  0.3402  1.4417  0.5968
17126SOL    HW260157   4.499   9.754   5.632  1.5349  0.9602 -0.6079
17127SOL     OW60158   7.055  12.521   3.219  0.1058 -0.0334  0.1130
17127SOL    HW160159   7.091  12.528   3.131 -0.0341  0.2022  0.0725
17127SOL    HW260160   7.117  12.466   3.267  0.4969  0.3384  0.0378
17128SOL     OW60161  12.555   5.754  12.332  0.4959  0.1576  0.3556
17128SOL    HW160162  12.468   5.761  12.293  0.4905 -0.1458  0.3142
17128SOL    HW260163  12.578   5.844  12.356  0.4269  0.3193 -0.1792
17129SOL     OW60164   2.091   1.215  12.036 -0.1566 -0.0467 -0.2229
17129SOL    HW160165   2.063   1.186  11.949  0.4350 -0.8419 -0.1630
17129SOL    HW260166   2.011   1.241  12.080 -0.5638 -0.4630 -0.7069
17130SOL     OW60167  10.594   0.212   6.677 -0.6271 -0.2453  0.4728
17130SOL    HW160168  10.605   0.179   6.766 -1.0658  0.4441  0.7848
17130SOL    HW260169  10.588   0.133   6.623  1.0457 -0.6768  0.8566
17131SOL     OW60170  12.351   2.501   2.391 -0.0735  0.1182  0.1738
17131SOL    HW160171  12.444   2.515   2.410 -0.1488  0.0831  0.5869
17131SOL    HW260172  12.333   2.554   2.314  0.1948  0.4533  0.3395
17132SOL     OW60173   2.893   5.613   1.599  0.3119  0.1119  0.1760
17132SOL    HW160174   2.977   5.568   1.595 -0.7127 -2.1249  1.8926
17132SOL    HW260175   2.829   5.548   1.571 -0.8976  1.8127 -1.2573
17133SOL     OW60176  11.700   4.050   0.198  0.2738 -0.5589 -0.6400
17133SOL    HW160177  11.726   4.103   0.273 -0.9709 -1.5853  0.5773
17133SOL    HW260178  11.756   4.080   0.127  1.5649  0.3942  0.7117
17134SOL     OW60179   4.683   5.277   8.299  0.2700 -0.0961  0.1468
17134SOL    HW160180   4.722   5.309   8.218  0.6660 -0.0345  0.3591
17134SOL    HW260181   4.750   5.291   8.366 -0.4120  0.7718  0.6724
17135SOL     OW60182   3.030   9.376  10.938 -0.4351 -0.1815  0.1713
17135SOL    HW160183   3.048   9.360  10.845  0.2949  1.7206 -0.0595
17135SOL    HW260184   3.114   9.363  10.981 -0.3690  0.5964  0.2977
17136SOL     OW60185   8.863   8.770   0.190 -0.2863 -0.0837 -0.2616
17136SOL    HW160186   8.773   8.790   0.216 -0.5319 -0.2801 -0.9282
17136SOL    HW260187   8.883   8.688   0.236 -1.0156 -0.8791 -1.2996
17137SOL     OW60188   2.429   6.759   7.260 -0.2251  0.3741 -0.2058
17137SOL    HW160189   2.336   6.747   7.241  0.0389 -1.0302 -0.7611
17137SOL    HW260190   2.471   6.681   7.223  1.2605  1.3041 -0.5506
17138SOL     OW60191   4.974   3.530   3.931  0.3833  0.4497  0.2046
17138SOL    HW160192   5.054   3.492   3.967 -0.0525  0.2649  0.9935
17138SOL    HW260193   4.933   3.458   3.883 -0.1164  0.0899  1.1566
17139SOL     OW60194   2.493  12.008   1.169 -0.4555  0.8326 -0.2476
17139SOL    HW160195   2.542  11.983   1.247 -0.5465  2.0973  0.2383
17139SOL    HW260196   2.555  12.060   1.118 -0.5995  0.5560 -0.7076
17140SOL     OW60197  12.452   2.353   4.651 -0.1388 -0.0633 -0.5096
17140SOL    HW160198  12.419   2.272   4.690 -0.1021  0.6432  1.0732
17140SOL    HW260199  12.537   2.367   4.694 -0.2490  0.9342 -0.6076
17141SOL     OW60200   2.655   0.744   2.374 -0.5971  0.4646 -0.2184
17141SOL    HW160201   2.668   0.788   2.290  0.0690  0.2702 -0.2178
17141SOL    HW260202   2.642   0.815   2.437  1.1615  0.7171 -0.0968
17142SOL     OW60203   5.449   8.095   7.982 -0.0143 -0.0675 -0.1797
17142SOL    HW160204   5.436   8.022   8.043 -1.3733  0.0638 -0.3017
17142SOL    HW260205   5.379   8.156   8.002  1.8552  1.8839  0.8270
17143SOL     OW60206   3.316   3.494   6.737 -0.0428 -0.1165 -0.0138
17143SOL    HW160207   3.390   3.495   6.798  0.8495 -0.0553 -1.0746
17143SOL    HW260208   3.347   3.543   6.661 -0.3626 -1.9176 -1.3794
17144SOL     OW60209   5.885   2.408   8.936  0.2824 -0.0991 -0.6640
17144SOL    HW160210   5.842   2.353   8.871 -0.3614 -0.3733 -0.0130
17144SOL    HW260211   5.824   2.412   9.010 -0.0468  2.1212 -0.9736
17145SOL     OW60212   2.910   8.158  10.446  0.3381  0.1650  0.4341
17145SOL    HW160213   2.837   8.207  10.486 -0.0511  0.2378 -0.3496
17145SOL    HW260214   2.915   8.192  10.357 -0.2074 -1.5018 -0.2717
17146SOL     OW60215  11.943  12.260   4.435  0.0614 -0.2990  0.6435
17146SOL    HW160216  12.029  12.253   4.476  0.5740 -0.4343 -0.4122
17146SOL    HW260217  11.902  12.174   4.449  0.3374 -0.4315  0.6285
17147SOL     OW60218   1.374   1.288   0.698 -0.1953  0.1612 -0.4640
17147SOL    HW160219   1.369   1.215   0.636  1.0746 -1.0224  0.7612
17147SOL    HW260220   1.311   1.351   0.665 -0.0455 -0.7094 -2.5856
17148SOL     OW60221  11.602   5.390   2.891  0.4867  0.9735 -0.3318
17148SOL    HW160222  11.508   5.372   2.890  0.4855  0.8482  0.7869
17148SOL    HW260223  11.627   5.391   2.799 -0.1712 -1.3093 -0.5832
17149SOL     OW60224   3.903   4.575  11.678  0.7219  0.2110  0.3216
17149SOL    HW160225   3.968   4.645  11.685  0.5354  0.3302  0.9259
17149SOL    HW260226   3.951   4.502  11.640  0.6187  1.0411 -1.4752
17150SOL     OW60227   7.299   7.581   4.543 -0.0555 -0.4246 -0.1167
17150SOL    HW160228   7.255   7.666   4.552  1.9782  0.5617  1.3546
17150SOL    HW260229   7.290   7.540   4.629  2.7388  0.3150  0.6207
17151SOL     OW60230   4.954  12.410   5.115  0.1574  0.0583 -0.1611
17151SOL    HW160231   4.923  12.465   5.187 -0.8083 -0.7891  0.0921
17151SOL    HW260232   5.047  12.431   5.107 -0.2036  1.7852 -0.1408
17152SOL     OW60233   2.929   3.899  10.179  0.3441 -0.1634  0.0861
17152SOL    HW160234   2.865   3.832  10.203  0.9901 -1.0765 -0.7125
17152SOL    HW260235   2.999   3.851  10.136  1.0165  0.9799 -0.1147
17153SOL     OW60236   1.502   8.316   1.532 -0.2431  0.0358 -0.2772
17153SOL    HW160237   1.441   8.389   1.528 -0.5999 -0.1044  1.5129
17153SOL    HW260238   1.455   8.247   1.579  0.7824 -0.6124 -0.1550
17154SOL     OW60239   9.063   5.709   8.838 -0.2327  0.1983 -0.0321
17154SOL    HW160240   8.975   5.678   8.854  0.4141 -1.2997  0.7702
17154SOL    HW260241   9.078   5.693   8.744 -0.2342 -1.0891  0.1799
17155SOL     OW60242   1.363   8.968   1.430  0.7648 -0.6096  0.2682
17155SOL    HW160243   1.447   8.993   1.469  0.9974 -0.7965 -0.1168
17155SOL    HW260244   1.378   8.881   1.394  0.7925 -0.0874 -1.0037
17156SOL     OW60245  11.929   0.356   3.058  0.1934 -0.2281 -0.0506
17156SOL    HW160246  11.967   0.310   2.984  1.9378 -0.0879  0.7144
17156SOL    HW260247  11.999   0.358   3.123 -1.5425 -1.1466  1.9731
17157SOL     OW60248   3.577   8.074   7.598 -0.1696 -0.3094 -0.2339
17157SOL    HW160249   3.569   8.016   7.673 -1.5042 -0.1769 -0.2413
17157SOL    HW260250   3.555   8.018   7.523  0.5469 -0.2896 -0.4623
17158SOL     OW60251   9.283  10.851   2.013 -0.1722  0.0163  0.2158
17158SOL    HW160252   9.285  10.832   1.919  1.0601  1.4803 -0.0897
17158SOL    HW260253   9.233  10.932   2.020  0.7374  0.5485  0.6808
17159SOL     OW60254   8.526   0.653   6.853  0.0218  0.4725 -0.3561
17159SOL    HW160255   8.507   0.716   6.783  0.5413  4.0150  2.4120
17159SOL    HW260256   8.442   0.636   6.893  0.2054  1.7089  0.6130
17160SOL     OW60257   1.788   1.461   6.800 -0.4518  0.3969  0.3556
17160SOL    HW160258   1.787   1.365   6.801 -0.7331  0.3949  1.3027
17160SOL    HW260259   1.760   1.486   6.888  1.1270  1.3349  0.6384
17161SOL     OW60260   6.843   1.557   9.279  0.3241 -0.0115 -0.3926
17161SOL    HW160261   6.851   1.579   9.372 -2.2827  0.7350 -0.2351
17161SOL    HW260262   6.889   1.628   9.234  0.4014  0.4084  0.3256
17162SOL     OW60263   0.274  12.384   0.811  0.1905 -0.1027 -0.0184
17162SOL    HW160264   0.315  12.348   0.890 -0.3955  1.7990  1.2391
17162SOL    HW260265   0.186  12.348   0.810 -0.8482  2.1235  1.9649
17163SOL     OW60266   7.088   5.738   1.520  0.1426  0.1489  1.2222
17163SOL    HW160267   7.080   5.806   1.453 -1.2308 -1.7722 -0.7105
17163SOL    HW260268   7.128   5.664   1.474  0.7041 -0.7217  3.0039
17164SOL     OW60269   9.366   1.586   6.478 -0.0245  0.3032 -0.0926
17164SOL    HW160270   9.448   1.563   6.520 -0.7097 -2.2597 -0.0091
17164SOL    HW260271   9.316   1.631   6.546  0.0393 -1.1448  0.9451
17165SOL     OW60272  12.022   7.162   6.567 -0.6643 -0.1259 -0.0273
17165SOL    HW160273  12.035   7.154   6.472  0.4291 -0.3079  0.1236
17165SOL    HW260274  11.927   7.164   6.578 -0.8095  0.9116 -1.2085
17166SOL     OW60275   7.970   3.184   7.987  0.1578 -0.2769 -0.4180
17166SOL    HW160276   7.887   3.229   7.974 -0.2602 -0.4772  1.3181
17166SOL    HW260277   8.029   3.251   8.021 -0.6768 -1.0366  2.9099
17167SOL     OW60278  11.073   6.809   6.863 -0.4199 -0.7773  0.0486
17167SOL    HW160279  11.081   6.791   6.770  0.3170 -2.4178  0.3924
17167SOL    HW260280  11.135   6.881   6.879  1.3021 -2.1230 -0.3205
17168SOL     OW60281   0.121  11.985   3.376  0.4117  0.6309 -0.5579
17168SOL    HW160282   0.206  11.951   3.405  0.1376  0.4627  0.0630
17168SOL    HW260283   0.132  12.080   3.375  0.0988  0.7152  1.2079
17169SOL     OW60284  11.286   7.218  11.745 -0.3269 -0.0021 -0.0200
17169SOL    HW160285  11.266   7.294  11.690  1.4705  0.1093 -0.5844
17169SOL    HW260286  11.381   7.208  11.737 -0.4034 -1.6629  0.9010
17170SOL     OW60287   5.167  11.156   2.050 -0.5715  0.2819  0.3080
17170SOL    HW160288   5.167  11.247   2.019  0.9252  1.3549  3.1530
17170SOL    HW260289   5.081  11.145   2.090 -0.0718  1.1553  1.6907
17171SOL     OW60290   3.295  12.490   7.287 -0.0685  0.5885 -0.0675
17171SOL    HW160291   3.225  12.528   7.234  0.0416  0.4004 -0.3526
17171SOL    HW260292   3.320  12.560   7.348  1.0757  1.5035 -1.5000
17172SOL     OW60293   4.179   1.231   5.698 -0.2850  0.1936 -0.1034
17172SOL    HW160294   4.090   1.221   5.663  0.1473 -1.8580 -0.7489
17172SOL    HW260295   4.236   1.209   5.624  0.7558  0.4299  0.6139
17173SOL     OW60296   5.997   6.154   8.107  0.2014  0.0049  0.2386
17173SOL    HW160297   6.076   6.199   8.137  1.5084 -1.5624 -0.6989
17173SOL    HW260298   5.988   6.079   8.166 -0.3984 -0.0258  0.1143
17174SOL     OW60299  12.612   6.035  12.345 -0.6310 -0.1007 -0.1706
17174SOL    HW160300  12.616   6.085  12.263 -1.3291  1.3692  0.6496
17174SOL    HW260301  12.687   6.066  12.396 -1.2873  0.4029  0.4993
17175SOL     OW60302   1.707   8.640   7.629  0.0133 -0.0578  0.1625
17175SOL    HW160303   1.748   8.554   7.622  1.4248  0.6387 -0.7465
17175SOL    HW260304   1.694   8.653   7.722 -0.6557 -1.4466  0.2804
17176SOL     OW60305  11.909   8.158   9.997  0.0051 -0.3255  0.5321
17176SOL    HW160306  11.840   8.182   9.935  0.5443  0.3915  0.1939
17176SOL    HW260307  11.972   8.230   9.992 -0.3172  0.1574  2.4922
17177SOL     OW60308   6.436   5.989   2.772 -0.6721 -0.2494  0.2527
17177SOL    HW160309   6.345   6.007   2.798 -1.0717 -2.3167  0.4826
17177SOL    HW260310   6.431   5.974   2.678 -0.3476  0.8468  0.0572
17178SOL     OW60311  10.109   1.131   8.626 -0.1834 -0.2592  0.4388
17178SOL    HW160312  10.192   1.130   8.673 -0.6753 -0.0356  1.3494
17178SOL    HW260313  10.127   1.178   8.545  0.5273 -0.0529  0.7109
17179SOL     OW60314   7.165  10.566   4.979 -0.3539  0.0628 -0.4423
17179SOL    HW160315   7.165  10.518   5.062 -1.6730  1.3259  0.3423
17179SOL    HW260316   7.083  10.541   4.936 -0.9773  1.4176 -0.1022
17180SOL     OW60317   9.119  12.406   6.156 -0.2583 -0.0716  0.2124
17180SOL    HW160318   9.063  12.446   6.222 -2.5189 -2.3393 -0.1470
17180SOL    HW260319   9.106  12.312   6.168  0.7842 -0.5919 -2.1797
17181SOL     OW60320   3.920   2.513   3.971 -0.8299  0.2264 -0.1182
17181SOL    HW160321   3.981   2.523   3.898 -2.1476 -2.1962 -1.6995
17181SOL    HW260322   3.974   2.478   4.042 -0.0153 -0.1021 -0.8767
17182SOL     OW60323   5.052   0.098   9.463 -0.0117 -0.4942 -0.1522
17182SOL    HW160324   5.089   0.186   9.468 -2.6820  0.6551  2.8686
17182SOL    HW260325   4.993   0.101   9.388  0.2502  0.1140 -0.3381
17183SOL     OW60326   7.509   5.643   5.546 -0.6298 -0.3307  0.0001
17183SOL    HW160327   7.509   5.568   5.606  0.7197  0.3578  0.9085
17183SOL    HW260328   7.594   5.685   5.561 -0.1433 -0.2511 -2.5557
17184SOL     OW60329  10.583   6.650  10.553 -0.1795 -0.1501 -0.8455
17184SOL    HW160330  10.587   6.645  10.457  1.3041 -0.1196 -0.8134
17184SOL    HW260331  10.666   6.691  10.578  0.7487 -2.6853  0.5829
17185SOL     OW60332   6.465   3.901   9.822  0.0911  0.2691 -0.0263
17185SOL    HW160333   6.500   3.949   9.897  2.5957 -0.6677 -0.4887
17185SOL    HW260334   6.382   3.866   9.853 -0.0545  1.8303  1.5191
17186SOL     OW60335  12.424   1.888   4.519 -0.3570  0.4827  0.3491
17186SOL    HW160336  12.462   1.833   4.587 -0.0420  1.6818  1.1690
17186SOL    HW260337  12.403   1.827   4.448 -1.0620 -0.8672  1.6516
17187SOL     OW60338   3.956   6.261  11.182  0.4064  0.1980  0.0165
17187SOL    HW160339   3.943   6.210  11.102 -1.9918 -0.1590  0.5591
17187SOL    HW260340   3.994   6.199  11.244 -0.6559 -0.4278  0.0708
17188SOL     OW60341   1.819  10.862   8.942 -0.2472 -0.2432 -0.0517
17188SOL    HW160342   1.775  10.941   8.974 -0.9138 -0.8594  0.5684
17188SOL    HW260343   1.895  10.852   9.000 -0.2095 -0.1059 -0.0767
17189SOL     OW60344   0.165  12.013   0.991 -0.5997 -0.0184 -0.1359
17189SOL    HW160345   0.137  11.932   1.033 -0.5411  0.0233 -0.0170
17189SOL    HW260346   0.084  12.061   0.974 -0.5498  0.6007  1.2093
17190SOL     OW60347  12.180   2.678   9.782 -0.0095 -0.4883 -0.2449
17190SOL    HW160348  12.160   2.615   9.713 -1.7750  0.1173 -0.3284
17190SOL    HW260349  12.176   2.763   9.739 -0.1811 -0.1648  0.3932
17191SOL     OW60350   5.272   6.872   6.636 -0.1552  0.1105 -0.3030
17191SOL    HW160351   5.328   6.812   6.686 -0.8317  0.2579  0.6468
17191SOL    HW260352   5.308   6.959   6.653  0.2361  0.0785 -0.9123
17192SOL     OW60353   8.198   5.900   5.985 -0.2536  0.0283 -0.3552
17192SOL    HW160354   8.241   5.937   5.908  0.2153 -0.8671 -0.5434
17192SOL    HW260355   8.265   5.899   6.053 -1.2207  2.7539  0.7765
17193SOL     OW60356  12.085   6.232   4.108 -0.0213 -1.1066  0.5259
17193SOL    HW160357  12.168   6.277   4.089 -0.2502 -0.5531  0.8186
17193SOL    HW260358  12.045   6.283   4.178 -1.0869 -0.7939 -0.2897
17194SOL     OW60359  10.607  11.432   0.969 -0.2739 -0.2292  0.6233
17194SOL    HW160360  10.576  11.343   0.954  1.5480 -1.1513  1.9091
17194SOL    HW260361  10.657  11.455   0.891  1.6999 -1.5348  1.4182
17195SOL     OW60362  10.802   0.637   0.566 -0.1022  0.2488 -0.2527
17195SOL    HW160363  10.837   0.583   0.637  0.3778  0.2557 -0.4819
17195SOL    HW260364  10.873   0.697   0.544 -0.1874  0.1288 -0.8642
17196SOL     OW60365   0.514   5.624   2.254  0.1445  0.5361 -0.1305
17196SOL    HW160366   0.585   5.561   2.242  0.7391  0.6415  2.3062
17196SOL    HW260367   0.556   5.709   2.249 -0.3026  0.7036 -1.3355
17197SOL     OW60368  11.548   2.605  11.171  0.1647 -0.2558  0.2739
17197SOL    HW160369  11.573   2.532  11.115  0.0032 -1.1898  1.3669
17197SOL    HW260370  11.580   2.580  11.258 -0.7905  0.5023  0.8659
17198SOL     OW60371  10.416   7.123   7.976  0.1925 -0.0187 -0.0523
17198SOL    HW160372  10.416   7.193   8.042 -1.1154  0.4089 -0.4763
17198SOL    HW260373  10.347   7.063   8.004 -0.0322 -0.0965 -0.7536
17199SOL     OW60374   9.177   4.317  11.158  0.1544 -0.3683 -0.4867
17199SOL    HW160375   9.085   4.345  11.161  0.5525  0.9131  0.2405
17199SOL    HW260376   9.212   4.361  11.080 -0.0246 -1.4797 -1.2160
17200SOL     OW60377   4.865   1.090   5.729  0.0896  0.2812  0.4919
17200SOL    HW160378   4.782   1.101   5.681 -0.1324  0.9772  1.0283
17200SOL    HW260379   4.876   0.995   5.735 -0.7956  0.1801  0.6272
17201SOL     OW60380   6.507   7.703   3.952  0.5118  0.7396  0.1428
17201SOL    HW160381   6.551   7.635   3.900  1.1752  1.0799  0.2420
17201SOL    HW260382   6.416   7.698   3.925  0.7884  0.6897 -0.8341
17202SOL     OW60383   6.422  10.076   5.096 -0.0012  1.1097 -0.3464
17202SOL    HW160384   6.413   9.986   5.127 -2.9425  1.4131 -0.0135
17202SOL    HW260385   6.482  10.070   5.021 -1.4993 -1.4721 -1.4731
17203SOL     OW60386   2.671   7.967   8.195 -0.5463  0.6710 -0.4813
17203SOL    HW160387   2.707   8.054   8.182  1.4169 -0.2374 -1.5356
17203SOL    HW260388   2.710   7.914   8.125 -2.0865 -0.9475 -0.1868
17204SOL     OW60389  11.115   7.258   5.681 -0.2800 -0.0675  0.4048
17204SOL    HW160390  11.116   7.290   5.591 -1.3624  0.1363  0.4574
17204SOL    HW260391  11.120   7.163   5.672  0.4652 -0.0179  0.1726
17205SOL     OW60392   5.220   8.298   1.430  0.3727 -0.6403 -0.2963
17205SOL    HW160393   5.310   8.316   1.401  0.5819  1.1957  1.2980
17205SOL    HW260394   5.229   8.274   1.522 -0.6949 -1.6405 -0.4313
17206SOL     OW60395   1.303   9.364   6.867 -0.4003 -0.5704  0.4493
17206SOL    HW160396   1.304   9.457   6.847 -1.0574 -1.1059 -2.6339
17206SOL    HW260397   1.221   9.350   6.915  0.6300  0.6559  2.6767
17207SOL     OW60398  12.384   4.988   8.293 -0.2948 -0.2785 -0.6004
17207SOL    HW160399  12.352   5.067   8.250 -2.5407 -1.3700 -1.1228
17207SOL    HW260400  12.349   4.993   8.382  1.2266  0.2129  0.0014
17208SOL     OW60401   2.151  10.826   3.587  0.3025 -0.4668 -0.1392
17208SOL    HW160402   2.207  10.818   3.510  0.8606 -2.2540  0.3995
17208SOL    HW260403   2.070  10.781   3.563  0.0902 -0.1572 -0.0178
17209SOL     OW60404   6.832   0.038   2.061 -0.2931 -0.1573 -0.3235
17209SOL    HW160405   6.746   0.059   2.025 -0.2678 -0.5522 -0.6202
17209SOL    HW260406   6.878  -0.006   1.990 -0.1381 -0.6787  0.0915
17210SOL     OW60407   8.234   6.438   2.597  0.6749 -0.4590 -0.2526
17210SOL    HW160408   8.171   6.509   2.610 -0.7032 -1.6303 -0.2202
17210SOL    HW260409   8.267   6.450   2.509  0.0071 -0.1016 -0.4602
17211SOL     OW60410   1.054   0.073  10.813  0.1163 -0.3875  0.4737
17211SOL    HW160411   1.024  -0.014  10.838  1.1097 -1.1815 -0.9031
17211SOL    HW260412   1.146   0.076  10.840  0.4761 -0.3132 -0.6680
17212SOL     OW60413   0.757   9.052  11.553  0.1982 -0.3453  0.0653
17212SOL    HW160414   0.829   9.106  11.587 -0.6336  0.3683  0.7314
17212SOL    HW260415   0.782   9.033  11.463  1.5712 -0.7273  0.5031
17213SOL     OW60416   6.594   9.801   2.250  0.6246 -0.2148 -0.3276
17213SOL    HW160417   6.550   9.838   2.174  0.2278 -2.1341 -1.0565
17213SOL    HW260418   6.557   9.850   2.324  1.0373  1.6939 -1.3092
17214SOL     OW60419   4.311   8.703  10.299 -0.3367  0.7227 -0.4263
17214SOL    HW160420   4.395   8.746  10.284 -0.4737  1.3659  0.6059
17214SOL    HW260421   4.265   8.760  10.360 -0.7489 -0.5925  0.5364
17215SOL     OW60422   2.649  10.850   1.990 -0.6727  0.0174  0.4261
17215SOL    HW160423   2.733  10.814   2.018 -1.2555  0.1437  2.4692
17215SOL    HW260424   2.655  10.943   2.008 -0.9566  0.1770 -0.2484
17216SOL     OW60425   1.462   9.808   0.129 -0.5170  0.2196  0.2783
17216SOL    HW160426   1.551   9.779   0.113  0.4549  3.6062 -1.4560
17216SOL    HW260427   1.409   9.763   0.063  0.4305  0.3629 -0.5931
17217SOL     OW60428   0.612   6.399   0.012  0.0561 -0.5387 -0.0233
17217SOL    HW160429   0.677   6.399  -0.058 -0.3386  1.3599 -0.4517
17217SOL    HW260430   0.652   6.451   0.082 -0.5967 -0.1765  0.0926
17218SOL     OW60431   6.791   7.962   3.666 -0.4595  0.0281 -0.3443
17218SOL    HW160432   6.731   7.958   3.740 -2.2284  0.0462 -1.6977
17218SOL    HW260433   6.879   7.963   3.705 -1.3203 -0.2832  1.6977
17219SOL     OW60434   2.228   0.607   7.417 -0.2572 -0.1387  0.2858
17219SOL    HW160435   2.295   0.547   7.451  0.8440 -0.0445 -1.5775
17219SOL    HW260436   2.230   0.593   7.322 -2.3938  0.4146  0.1149
17220SOL     OW60437  12.482   9.019   6.952  0.1923 -0.8815  0.4384
17220SOL    HW160438  12.531   9.089   6.909  0.2594 -0.2141  1.5355
17220SOL    HW260439  12.459   8.959   6.882 -1.9171  1.4096 -1.0107
17221SOL     OW60440   2.866   2.006   5.645  0.8205  0.0417  0.1996
17221SOL    HW160441   2.866   2.060   5.725 -0.4028  0.4196 -0.0337
17221SOL    HW260442   2.877   2.069   5.574  0.1782 -0.1089 -0.0319
17222SOL     OW60443   5.317   9.901   7.797  0.6137  0.6520  0.5038
17222SOL    HW160444   5.320   9.825   7.738  1.9341  1.7029 -0.8921
17222SOL    HW260445   5.263   9.873   7.870 -3.3744  0.0399 -2.3261
17223SOL     OW60446   0.088   5.056   1.404  0.1014 -0.0957 -0.1617
17223SOL    HW160447   0.140   4.987   1.361  0.6098 -0.4815  1.0232
17223SOL    HW260448   0.153   5.109   1.451 -0.3369  0.9452 -0.7066
17224SOL     OW60449  11.110   2.494   8.460 -0.5581 -0.0622  0.3197
17224SOL    HW160450  11.080   2.472   8.548 -1.6473 -1.5023 -0.3652
17224SOL    HW260451  11.044   2.555   8.427  0.9744  2.1913  1.2071
17225SOL     OW60452  10.694  10.231   2.460 -0.4228 -0.1811 -0.2522
17225SOL    HW160453  10.648  10.177   2.523  0.3459 -0.3060  0.2080
17225SOL    HW260454  10.628  10.254   2.395 -1.1618 -0.2491  0.4670
17226SOL     OW60455   1.845   3.720   1.709 -0.1343 -0.0292  0.4945
17226SOL    HW160456   1.786   3.732   1.635 -1.2173 -0.3729  1.2873
17226SOL    HW260457   1.916   3.782   1.694  0.6285 -1.3446 -1.7845
17227SOL     OW60458   5.611   9.645  12.384  0.6357 -0.1746  0.2327
17227SOL    HW160459   5.703   9.623  12.370  0.3140  0.0517 -3.0119
17227SOL    HW260460   5.577   9.574  12.437  2.1163 -1.7323 -0.7985
17228SOL     OW60461  11.493   2.177   2.644  0.5525 -0.9574 -0.3705
17228SOL    HW160462  11.425   2.113   2.624 -1.2818  1.1073 -1.0881
17228SOL    HW260463  11.505   2.171   2.738  0.5208 -2.4302 -0.4403
17229SOL     OW60464   9.468   2.945   4.362 -0.4393 -0.1180  0.4835
17229SOL    HW160465   9.476   2.863   4.410 -1.2163 -0.5891 -0.1836
17229SOL    HW260466   9.422   2.922   4.282  0.6823  0.6845 -0.4322
17230SOL     OW60467  12.052   1.778   8.472  0.0248  0.2572 -0.3341
17230SOL    HW160468  12.077   1.712   8.407 -1.8140  0.2857 -1.1178
17230SOL    HW260469  12.042   1.728   8.553 -4.4387 -1.2048 -1.5267
17231SOL     OW60470   5.511   9.112   2.858  0.3094 -0.2627 -0.0907
17231SOL    HW160471   5.572   9.183   2.878  1.0429 -1.2971  1.6205
17231SOL    HW260472   5.546   9.071   2.779  1.0697 -0.0316  0.1230
17232SOL     OW60473   9.052   3.702   3.194  0.3043  0.4370 -0.3743
17232SOL    HW160474   9.019   3.616   3.218  0.1246  0.3709 -0.8506
17232SOL    HW260475   9.061   3.748   3.278  0.5249 -0.0828 -0.1078
17233SOL     OW60476   7.600   2.575   7.906 -0.1011 -0.5528 -0.1577
17233SOL    HW160477   7.638   2.493   7.874 -0.1144 -0.5563 -0.1646
17233SOL    HW260478   7.655   2.601   7.979  1.4800  0.7674 -1.7292
17234SOL     OW60479   3.547   4.968   1.524 -0.2404 -0.0179 -0.6748
17234SOL    HW160480   3.586   4.921   1.598 -1.3892  0.3771  0.2148
17234SOL    HW260481   3.480   5.023   1.563 -1.0524  0.0179 -2.0428
17235SOL     OW60482   1.763  12.454   6.223  0.2108  0.5700 -0.1272
17235SOL    HW160483   1.748  12.407   6.305 -0.7689  2.1348  0.6418
17235SOL    HW260484   1.859  12.455   6.213  0.4329  1.3258  1.6238
17236SOL     OW60485   0.145   1.353   8.454  1.1788 -0.1661 -0.1834
17236SOL    HW160486   0.152   1.426   8.516  0.3507  0.6026 -0.9743
17236SOL    HW260487   0.110   1.281   8.505  1.1914  0.2431  0.4095
17237SOL     OW60488  12.586  10.767   1.915 -0.2623 -0.0992  0.4256
17237SOL    HW160489  12.568  10.861   1.925 -0.9491  0.1533 -2.2930
17237SOL    HW260490  12.501  10.728   1.896  0.1000 -1.1873  0.9465
17238SOL     OW60491  11.986  11.082   9.723 -0.2195  0.4160 -0.3461
17238SOL    HW160492  12.081  11.076   9.721 -0.2650 -0.4902 -0.1308
17238SOL    HW260493  11.962  11.120   9.638  0.3410  0.8506 -0.3136
17239SOL     OW60494   5.077   5.145   7.899  0.0513 -0.0087 -0.7127
17239SOL    HW160495   5.061   5.065   7.950 -0.8589  2.5904  3.6211
17239SOL    HW260496   5.172   5.152   7.896  0.1688 -1.4995 -1.7665
17240SOL     OW60497   7.822   4.230  11.092 -0.4972 -0.6280  0.3097
17240SOL    HW160498   7.727   4.228  11.079 -0.3840  1.1055 -1.1623
17240SOL    HW260499   7.857   4.259  11.008  1.3342 -0.9834  0.9062
17241SOL     OW60500   7.884   3.189   3.570 -0.0865 -0.1038 -0.2326
17241SOL    HW160501   7.888   3.094   3.577  1.1064  0.0613  2.5875
17241SOL    HW260502   7.942   3.210   3.496  1.1904 -1.4936  0.3216
17242SOL     OW60503   7.115   5.299   1.090  0.0580 -0.2361  0.2697
17242SOL    HW160504   7.027   5.284   1.124 -0.3831  1.4970  0.0048
17242SOL    HW260505   7.107   5.286   0.996  0.3821 -1.2591  0.3748
17243SOL     OW60506   9.865   5.132   7.970 -0.7329 -0.2578 -1.3648
17243SOL    HW160507   9.951   5.147   7.930  0.7151  0.9942  1.8646
17243SOL    HW260508   9.842   5.043   7.943  1.6332 -0.7033 -2.2430
17244SOL     OW60509   6.677   2.532   2.682 -0.6371  1.0199 -0.7094
17244SOL    HW160510   6.625   2.610   2.701 -1.9671  0.1800 -0.7489
17244SOL    HW260511   6.624   2.483   2.619  0.2133  0.1200 -0.7467
17245SOL     OW60512   6.095   1.663   9.591  0.0131 -0.0827  0.3255
17245SOL    HW160513   6.181   1.664   9.634  0.7442  0.6277 -1.0774
17245SOL    HW260514   6.107   1.608   9.513 -0.5861  0.6131 -0.2813
17246SOL     OW60515   3.893   0.645   1.268 -0.1232  0.0793 -0.0036
17246SOL    HW160516   3.836   0.611   1.338  0.4075  0.1579  0.4693
17246SOL    HW260517   3.843   0.630   1.188 -1.4465  1.4632  0.5159
17247SOL     OW60518   8.198   3.485   4.996 -0.0733 -0.5724  0.0194
17247SOL    HW160519   8.127   3.521   5.050  0.0421  0.1905 -0.3181
17247SOL    HW260520   8.207   3.548   4.924 -0.2385 -1.5897 -0.9023
17248SOL     OW60521   2.943   2.210   0.379 -0.2334  0.0488  0.3149
17248SOL    HW160522   3.015   2.274   0.383 -1.1623  1.2146 -0.8905
17248SOL    HW260523   2.932   2.181   0.470  0.2019  1.6201  0.9037
17249SOL     OW60524  11.332   9.058  10.826  0.0652  0.2823 -0.6753
17249SOL    HW160525  11.303   8.976  10.785 -0.9906  0.0425  0.4891
17249SOL    HW260526  11.304   9.126  10.765 -2.5361  0.0196  0.0866
17250SOL     OW60527   5.104   1.937  11.543 -0.9601 -0.0066 -0.2568
17250SOL    HW160528   5.161   1.866  11.570 -0.4525  0.1476 -0.8924
17250SOL    HW260529   5.159   1.993  11.488 -1.2444  1.0878  0.5374
17251SOL     OW60530   0.101   3.369   1.391 -0.2551  0.6919  0.3190
17251SOL    HW160531   0.185   3.398   1.357 -0.7116  0.3564 -1.1664
17251SOL    HW260532   0.120   3.290   1.441  0.1361 -0.3641 -1.4216
17252SOL     OW60533   1.162  10.299   8.250  0.4107  0.7095 -0.2143
17252SOL    HW160534   1.208  10.236   8.306  0.6778 -0.1915 -1.4065
17252SOL    HW260535   1.209  10.382   8.263  1.6573  0.0733 -0.5097
17253SOL     OW60536   1.506   8.476   1.260 -0.2128  0.6089 -0.3230
17253SOL    HW160537   1.534   8.462   1.351 -0.9979  2.4171  0.2492
17253SOL    HW260538   1.543   8.561   1.237 -1.0089  0.7132 -1.2842
17254SOL     OW60539  11.911  10.947   1.801 -0.5384  0.0824 -0.3643
17254SOL    HW160540  11.877  10.978   1.885 -1.2497  0.0631 -0.6427
17254SOL    HW260541  11.978  10.883   1.825 -0.6697  0.1394  0.1878
17255SOL     OW60542   5.221   7.473   8.286  0.2479 -0.0851  0.1124
17255SOL    HW160543   5.285   7.517   8.229 -1.3146  0.4552 -1.3153
17255SOL    HW260544   5.227   7.519   8.369  0.7140  0.9116 -0.4504
17256SOL     OW60545   4.716  10.690   8.946 -0.2818 -0.0595 -0.6393
17256SOL    HW160546   4.732  10.652   9.033 -1.8252 -1.6026 -0.9736
17256SOL    HW260547   4.724  10.784   8.960  0.4049 -0.3189  0.9836
17257SOL     OW60548   0.815   3.758  12.268 -0.4148 -0.2537 -0.4544
17257SOL    HW160549   0.772   3.786  12.349  0.2995 -0.9160  0.1691
17257SOL    HW260550   0.818   3.837  12.214  2.5374  1.2604  1.6526
17258SOL     OW60551  11.923   6.914   1.124  0.8881 -0.1825  0.4169
17258SOL    HW160552  11.882   6.977   1.183 -0.9720 -0.8437 -0.1037
17258SOL    HW260553  11.981   6.966   1.069  2.2670  0.5183  2.4323
17259SOL     OW60554   7.582   8.477   3.539  0.1533  0.2349  0.6284
17259SOL    HW160555   7.553   8.563   3.570  0.1195  0.3417  0.3025
17259SOL    HW260556   7.669   8.466   3.576 -1.0924 -1.0545  3.5287
17260SOL     OW60557   7.298  10.774  11.776 -0.3128  0.2310  0.1747
17260SOL    HW160558   7.297  10.694  11.723  0.5209  0.6357 -0.4931
17260SOL    HW260559   7.375  10.765  11.832 -0.3847  0.4376  0.3110
17261SOL     OW60560   8.921   2.438   4.236 -0.3181  0.3947  0.3124
17261SOL    HW160561   8.897   2.387   4.313 -1.2007  0.6607  0.2277
17261SOL    HW260562   8.944   2.524   4.271 -0.3929  0.4157  0.3105
17262SOL     OW60563   0.754   6.539  11.969 -0.1537 -0.4329  0.3835
17262SOL    HW160564   0.728   6.619  11.923 -1.9756  0.4536  2.7116
17262SOL    HW260565   0.818   6.497  11.911  0.3587  2.3412 -1.2340
17263SOL     OW60566   2.948   3.612  11.924 -0.2560 -0.0525 -0.0892
17263SOL    HW160567   2.943   3.706  11.942  1.1401  0.0597 -0.2055
17263SOL    HW260568   2.940   3.605  11.829  1.5666  0.1451 -0.2973
17264SOL     OW60569   2.072   7.370  10.865  0.3269  0.2033  0.1434
17264SOL    HW160570   2.072   7.451  10.814 -4.1014 -0.1494 -0.8424
17264SOL    HW260571   2.099   7.302  10.803  2.8029  0.6529  0.6329
17265SOL     OW60572   4.590  11.481   4.899  0.4694  0.3432  0.2688
17265SOL    HW160573   4.566  11.495   4.808  0.6329 -0.5966  0.0751
17265SOL    HW260574   4.533  11.410   4.928  2.0262 -0.9997  0.1986
17266SOL     OW60575  12.102   3.346   7.156  0.1763  0.0456 -0.3276
17266SOL    HW160576  12.156   3.284   7.204 -2.7151 -2.7935 -0.3653
17266SOL    HW260577  12.110   3.319   7.064 -0.6887  0.0624 -0.4148
17267SOL     OW60578   4.676  12.155  10.151  0.4577  0.5417 -0.1053
17267SOL    HW160579   4.645  12.116  10.070  0.3445 -1.5112  0.8682
17267SOL    HW260580   4.596  12.177  10.199  0.3042 -2.9277  1.5453
17268SOL     OW60581   9.119   0.063  10.214  0.7239 -0.4171  0.6763
17268SOL    HW160582   9.108  -0.031  10.198 -0.0347 -0.2785  0.3113
17268SOL    HW260583   9.096   0.104  10.130  1.8894  0.0587  0.5696
17269SOL     OW60584   4.817   9.614  10.632  0.6262 -0.1994 -0.0920
17269SOL    HW160585   4.893   9.567  10.598  0.7364 -1.0724  1.2806
17269SOL    HW260586   4.752   9.545  10.649  0.3953  0.2539  0.9291
17270SOL     OW60587  12.138  11.353  12.139 -0.9465  0.1401 -0.3350
17270SOL    HW160588  12.125  11.307  12.056  2.0688 -0.6628 -0.4657
17270SOL    HW260589  12.189  11.430  12.117  0.0113 -0.1459  0.7595
17271SOL     OW60590   9.226   2.980  11.521  0.4150  0.3018  0.3559
17271SOL    HW160591   9.233   2.941  11.433  1.4054  2.1786 -0.4530
17271SOL    HW260592   9.271   2.917  11.578  1.9911  0.2068 -0.9010
17272SOL     OW60593   9.005   0.880   9.834  0.5139 -0.0840  0.6372
17272SOL    HW160594   8.970   0.950   9.889  0.3385 -0.4051  0.9381
17272SOL    HW260595   9.082   0.849   9.881  2.1950  1.6818 -0.7745
17273SOL     OW60596   2.343  11.575   2.549  0.4262  0.0972  0.1204
17273SOL    HW160597   2.247  11.573   2.557  0.5459 -0.9441  1.5803
17273SOL    HW260598   2.372  11.492   2.588  1.8360 -0.4483 -1.9258
17274SOL     OW60599   6.429  10.105   0.033  0.1711  1.3170 -0.2196
17274SOL    HW160600   6.354  10.087   0.089  0.8826  2.9635  1.3530
17274SOL    HW260601   6.412  10.053  -0.046 -1.8241  0.4343  0.7010
17275SOL     OW60602  10.637  11.979   4.076 -0.4385  0.4209 -0.1900
17275SOL    HW160603  10.680  12.013   3.997 -3.4134 -0.2144 -2.2422
17275SOL    HW260604  10.566  12.041   4.094  1.5934  1.9618  3.6546
17276SOL     OW60605   8.629  12.383   9.169  0.1245 -0.1889  0.1571
17276SOL    HW160606   8.664  12.401   9.081  1.1842  1.7832  0.9257
17276SOL    HW260607   8.542  12.423   9.167  0.6738  1.0732  0.3911
17277SOL     OW60608   5.381   2.780   2.578 -0.2087 -0.2106 -0.1939
17277SOL    HW160609   5.416   2.697   2.546 -1.2237 -0.5320 -0.5116
17277SOL    HW260610   5.440   2.846   2.542 -0.8209 -0.6133 -2.0602
17278SOL     OW60611  12.071   6.461   5.608  0.3110 -0.1797  0.0660
17278SOL    HW160612  12.145   6.451   5.667  1.3780 -0.1818 -1.2162
17278SOL    HW260613  12.069   6.379   5.558 -0.9891 -0.4554  0.5360
17279SOL     OW60614  12.072  11.105   3.055  0.3352 -0.3383  0.2762
17279SOL    HW160615  11.978  11.091   3.067  0.6514 -1.8944  1.2042
17279SOL    HW260616  12.097  11.044   2.985  0.7219 -0.2333  0.3182
17280SOL     OW60617   4.473  10.914  12.192 -0.2969 -0.0893 -0.3859
17280SOL    HW160618   4.567  10.900  12.180  0.2453  1.1940  1.8182
17280SOL    HW260619   4.454  10.995  12.144  0.7916  2.2350  2.7998
17281SOL     OW60620   3.242   9.997   3.762  0.0698 -0.6042 -0.1031
17281SOL    HW160621   3.306  10.020   3.829  0.5508 -1.0093 -0.4155
17281SOL    HW260622   3.251  10.066   3.695 -0.3624 -0.2386  0.2111
17282SOL     OW60623   6.262   5.573   8.975  0.0014 -0.0993 -0.6091
17282SOL    HW160624   6.344   5.551   8.932  0.6292 -2.5045  1.6116
17282SOL    HW260625   6.288   5.615   9.057 -1.0346  0.3067 -0.4727
17283SOL     OW60626  12.065  12.358   5.850  0.0402 -0.2348 -0.1521
17283SOL    HW160627  12.043  12.377   5.759 -0.9302  1.9562  0.4656
17283SOL    HW260628  11.990  12.309   5.884 -1.1068  1.7014  0.2545
17284SOL     OW60629   0.050   7.071  10.758 -0.2615  0.1706 -0.1932
17284SOL    HW160630   0.107   7.035  10.690 -1.3135 -1.1014 -0.4362
17284SOL    HW260631   0.079   7.028  10.838 -0.1835  0.3378 -0.1311
17285SOL     OW60632   9.145  12.069   9.775 -0.4150  0.2015  0.1276
17285SOL    HW160633   9.061  12.085   9.733  0.5500  1.8812 -1.3345
17285SOL    HW260634   9.210  12.103   9.712  1.3743 -1.2594  1.0810
17286SOL     OW60635   2.130   5.218  11.033 -0.2442 -0.0044 -0.8549
17286SOL    HW160636   2.168   5.245  11.117  0.1396 -2.6315 -0.1028
17286SOL    HW260637   2.203   5.223  10.972 -0.5756  2.1335 -1.1579
17287SOL     OW60638   3.787   0.856   3.056  0.0538 -0.2511 -0.0153
17287SOL    HW160639   3.855   0.872   2.990  0.3938 -1.9140 -0.1103
17287SOL    HW260640   3.765   0.764   3.046 -1.3557 -0.0404  0.8551
17288SOL     OW60641   0.757   7.595   7.386 -0.4318  0.4637  0.1273
17288SOL    HW160642   0.698   7.523   7.360  2.6896 -1.3755 -2.5820
17288SOL    HW260643   0.727   7.670   7.336 -0.2914 -0.5549 -1.5563
17289SOL     OW60644   0.935   8.143   9.221  0.4878 -0.1896 -0.3764
17289SOL    HW160645   0.849   8.115   9.190  0.7362 -1.0728 -0.3190
17289SOL    HW260646   0.990   8.065   9.209  1.4537  0.5819 -1.1085
17290SOL     OW60647   5.416   2.268  12.128 -0.0524 -0.6499 -0.4867
17290SOL    HW160648   5.467   2.204  12.177  1.0109  0.2844 -0.3382
17290SOL    HW260649   5.478   2.306  12.066 -0.7670 -0.0678 -0.8625
17291SOL     OW60650   7.208   0.710   4.261  0.6364  0.8833  0.6035
17291SOL    HW160651   7.160   0.642   4.214  1.8531  1.8910 -2.3710
17291SOL    HW260652   7.145   0.743   4.326 -2.0026  0.7281 -1.6609
17292SOL     OW60653   6.411   9.566   5.362  0.2678  1.2764 -0.0653
17292SOL    HW160654   6.337   9.514   5.330  0.1013  1.9390 -0.8128
17292SOL    HW260655   6.371   9.636   5.413  0.2246  2.4609 -1.6187
17293SOL     OW60656   0.545   1.974   8.036 -0.4916  0.1113 -0.0233
17293SOL    HW160657   0.597   2.054   8.034  1.6053 -1.2003 -0.5175
17293SOL    HW260658   0.509   1.967   7.948 -0.1955  0.2132 -0.1539
17294SOL     OW60659  12.407   0.633   1.372 -0.0289  0.1804  0.2424
17294SOL    HW160660  12.326   0.636   1.322 -0.5088 -2.1537  0.7638
17294SOL    HW260661  12.471   0.594   1.313  0.0801 -0.2114  0.6133
17295SOL     OW60662   7.972   0.725   9.580 -0.3081 -0.3690  0.6095
17295SOL    HW160663   7.918   0.675   9.519  0.0020 -0.6268  0.5457
17295SOL    HW260664   7.997   0.803   9.532  0.6458 -0.9695  0.1001
17296SOL     OW60665  10.220   9.328   2.587 -0.2774  0.6587 -0.4044
17296SOL    HW160666  10.181   9.242   2.571 -2.0537  1.8425 -3.2337
17296SOL    HW260667  10.287   9.337   2.520 -2.5275  2.7209 -2.6018
17297SOL     OW60668  12.103   7.107   7.206  0.1428  0.1874  0.5523
17297SOL    HW160669  12.010   7.103   7.224  0.0632 -0.9005  0.0322
17297SOL    HW260670  12.113   7.180   7.146 -0.6033 -0.5482 -0.5097
17298SOL     OW60671   6.938  12.249   3.149  0.1536 -0.2866 -0.0944
17298SOL    HW160672   7.025  12.263   3.186 -0.0962  0.0100  0.3882
17298SOL    HW260673   6.948  12.271   3.056  0.0855  2.0293  0.3813
17299SOL     OW60674   7.451   6.382   8.106  0.4611  0.1399 -0.1524
17299SOL    HW160675   7.383   6.357   8.169 -0.5355  0.3501 -1.1185
17299SOL    HW260676   7.490   6.299   8.078 -1.0998 -0.1996 -1.4404
17300SOL     OW60677  10.660   7.703   0.405 -0.6377  0.0926  0.4232
17300SOL    HW160678  10.736   7.752   0.435 -0.0590 -0.4175 -0.1942
17300SOL    HW260679  10.607   7.768   0.359  0.1591  0.1461 -0.4548
17301SOL     OW60680  10.408   6.702   8.272 -0.0736 -0.3596 -0.3373
17301SOL    HW160681  10.398   6.647   8.350  2.6144 -1.2409 -0.5142
17301SOL    HW260682  10.448   6.782   8.304 -2.1359  0.7710 -0.3907
17302SOL     OW60683   8.954   3.852  11.048 -0.0466 -0.4159  0.7158
17302SOL    HW160684   8.962   3.757  11.044 -1.7468 -0.5556 -0.0399
17302SOL    HW260685   8.876   3.868  11.101 -0.6527  0.4942 -0.3973
17303SOL     OW60686   6.859   0.355  10.184 -0.1284 -0.5209  0.2392
17303SOL    HW160687   6.866   0.273  10.135  1.8843 -0.2196 -0.0622
17303SOL    HW260688   6.845   0.328  10.275  1.8194 -1.3003  0.3615
17304SOL     OW60689   8.055   0.751   0.460  0.5537  0.0531 -0.1142
17304SOL    HW160690   8.103   0.669   0.467  3.7910  1.7030 -1.2570
17304SOL    HW260691   8.078   0.799   0.540 -0.8508  0.1374  0.2710
17305SOL     OW60692  10.093  12.214   0.566  0.1261  0.1555 -0.1095
17305SOL    HW160693  10.185  12.216   0.540  0.2581  0.9005  0.3887
17305SOL    HW260694  10.085  12.283   0.631 -0.4913 -0.7799  0.8459
17306SOL     OW60695   4.732   5.572   9.374  0.0540  0.0986 -0.9411
17306SOL    HW160696   4.688   5.500   9.329  1.2194 -0.1194 -1.7573
17306SOL    HW260697   4.696   5.651   9.334 -0.2730 -0.0526 -0.9493
17307SOL     OW60698   2.312   6.486   8.134 -0.2790 -0.4501  0.4314
17307SOL    HW160699   2.235   6.531   8.100  0.6677 -0.4699 -1.9642
17307SOL    HW260700   2.282   6.398   8.154 -1.0530 -0.2241  0.2785
17308SOL     OW60701   8.805  10.820   4.062 -0.2544 -0.3908  0.4111
17308SOL    HW160702   8.710  10.810   4.055 -0.5905  1.7011  1.1604
17308SOL    HW260703   8.826  10.895   4.006  1.3823 -2.2864 -1.7156
17309SOL     OW60704   7.319   0.179   3.169 -0.5444  0.3305 -0.0326
17309SOL    HW160705   7.274   0.213   3.091 -0.4575  1.1612  0.2657
17309SOL    HW260706   7.268   0.213   3.243 -0.8066 -0.7056  0.2751
17310SOL     OW60707   7.189  11.678   6.407 -0.6268  0.0265 -0.2611
17310SOL    HW160708   7.179  11.771   6.391 -1.1209 -0.1621 -1.1075
17310SOL    HW260709   7.100  11.646   6.423 -0.3972 -0.2002  0.6394
17311SOL     OW60710   4.046   5.237  12.460  0.1502 -0.3511  0.0799
17311SOL    HW160711   4.134   5.232  12.423 -0.4575 -0.6335 -1.3633
17311SOL    HW260712   4.002   5.306  12.410 -1.3501 -2.1659 -1.2391
17312SOL     OW60713   3.813   1.836   4.990 -0.6635  0.2633  0.4429
17312SOL    HW160714   3.908   1.834   4.998 -0.1816  2.0646 -2.8677
17312SOL    HW260715   3.792   1.755   4.942 -0.2353  1.4857 -1.9670
17313SOL     OW60716   0.052  10.037   0.646 -0.1649  0.2017  0.3701
17313SOL    HW160717   0.037  10.131   0.659  0.6260  0.5060 -0.8339
17313SOL    HW260718   0.033  10.021   0.554  1.2207 -0.4984  0.1680
17314SOL     OW60719   1.837   3.361   2.614  0.4422 -0.1552 -0.5162
17314SOL    HW160720   1.812   3.441   2.660 -0.6111 -0.1103 -1.1288
17314SOL    HW260721   1.806   3.374   2.525  0.2615 -1.2363 -0.6317
17315SOL     OW60722   5.210   3.450   1.539  0.1372 -0.4762 -0.3232
17315SOL    HW160723   5.274   3.521   1.535  0.0962 -0.3049  1.2961
17315SOL    HW260724   5.239   3.396   1.613  0.1483 -2.1480 -1.4943
17316SOL     OW60725   8.978   6.785   9.196 -0.7877  0.3022  0.5334
17316SOL    HW160726   8.925   6.731   9.137 -1.5115  1.4033  0.1380
17316SOL    HW260727   8.914   6.833   9.249 -0.2146  1.5886  0.1108
17317SOL     OW60728   1.514   5.594   5.358 -0.0150  0.2243  0.2580
17317SOL    HW160729   1.543   5.604   5.448 -1.2442 -1.3998  0.8818
17317SOL    HW260730   1.535   5.678   5.316 -0.1347  1.2871  2.2354
17318SOL     OW60731   5.067   2.187   0.427 -0.3259  0.0343  0.0137
17318SOL    HW160732   5.128   2.121   0.395  0.2351  0.4335  0.2464
17318SOL    HW260733   5.042   2.236   0.349  1.0779  1.0371  0.1446
17319SOL     OW60734   5.624  10.037   8.766 -0.4747 -0.4318 -0.6203
17319SOL    HW160735   5.591  10.089   8.839  0.8277  0.7264 -0.8181
17319SOL    HW260736   5.626  10.098   8.692 -2.3142 -1.7201 -1.8121
17320SOL     OW60737   6.670   5.662   2.328 -0.6131 -0.0616  0.1558
17320SOL    HW160738   6.575   5.655   2.327 -0.6934  0.7372  1.0236
17320SOL    HW260739   6.698   5.619   2.248 -1.5847 -1.9370  0.7730
17321SOL     OW60740   7.365  10.081  10.565 -0.2216 -0.0837 -0.2709
17321SOL    HW160741   7.318  10.000  10.585 -0.4939  0.1747  0.1738
17321SOL    HW260742   7.427  10.057  10.497  0.2238 -0.8360  0.3772
17322SOL     OW60743  10.593   3.003   0.759  0.0084 -0.0651 -0.0483
17322SOL    HW160744  10.586   2.909   0.746 -1.0362  0.1229 -0.9766
17322SOL    HW260745  10.510   3.029   0.799  0.1587  0.5033 -0.0940
17323SOL     OW60746  10.311   1.399   6.940  0.1184 -0.1558 -0.2677
17323SOL    HW160747  10.343   1.389   6.850  0.0776  1.7096 -0.5204
17323SOL    HW260748  10.386   1.376   6.995 -0.0097 -1.8214 -0.7299
17324SOL     OW60749  12.479   9.311   9.481 -0.0962  0.0480  0.4347
17324SOL    HW160750  12.510   9.333   9.393 -0.0268  2.1706  0.9243
17324SOL    HW260751  12.559   9.290   9.529  0.1196  0.8937  0.4792
17325SOL     OW60752  11.013   3.256   9.630  0.0090  0.4853 -0.4998
17325SOL    HW160753  11.095   3.259   9.679  0.6961 -1.1368 -1.4306
17325SOL    HW260754  11.039   3.275   9.539 -0.9518  1.7262 -0.5449
17326SOL     OW60755   0.007   6.556   2.079  0.2020  0.1893 -0.2425
17326SOL    HW160756   0.070   6.613   2.034  0.1092 -0.1156 -0.7688
17326SOL    HW260757  -0.024   6.497   2.011 -1.8467  1.3393 -0.3941
17327SOL     OW60758  11.659  10.890   4.300 -0.0959 -0.2154  0.1133
17327SOL    HW160759  11.693  10.834   4.370 -0.9259 -0.2657  0.4862
17327SOL    HW260760  11.737  10.913   4.248  0.5267 -0.2301  1.0093
17328SOL     OW60761   6.780   4.059   6.553  0.6260 -0.3616  0.1273
17328SOL    HW160762   6.744   4.108   6.627  1.1384  1.2922 -0.6843
17328SOL    HW260763   6.869   4.092   6.543  1.3770 -2.2315  0.1927
17329SOL     OW60764   0.132   1.247   8.205 -0.0131 -0.1471  0.1962
17329SOL    HW160765   0.144   1.297   8.285  3.0231  1.1520 -0.9074
17329SOL    HW260766   0.144   1.156   8.232 -0.5075  0.1374  1.4323
17330SOL     OW60767   4.893   6.127  11.270 -0.1639  0.1103  0.9910
17330SOL    HW160768   4.952   6.203  11.268 -0.5016  0.3639  0.5747
17330SOL    HW260769   4.818   6.156  11.321 -0.1871 -0.0232  1.0329
17331SOL     OW60770   1.292  10.440   0.589  0.0689  0.3068  0.7613
17331SOL    HW160771   1.387  10.436   0.584  0.1339  1.8310  0.0835
17331SOL    HW260772   1.272  10.436   0.683  0.8087  0.1591  0.9152
17332SOL     OW60773   8.041   2.229   9.698  0.0205  0.4317  0.3734
17332SOL    HW160774   8.100   2.258   9.628 -0.2982  0.7130  0.2168
17332SOL    HW260775   8.038   2.134   9.688  1.3530  0.2836  1.1149
17333SOL     OW60776   8.231   2.032   8.655 -0.0021 -0.1118  0.2824
17333SOL    HW160777   8.156   1.993   8.702  1.6067 -1.5541  1.7930
17333SOL    HW260778   8.252   1.967   8.588  0.5294 -0.2251  0.5521
17334SOL     OW60779   9.560   2.171   9.127  0.6111  0.1812 -0.2282
17334SOL    HW160780   9.470   2.137   9.129  0.6798 -0.0395 -0.8140
17334SOL    HW260781   9.560   2.234   9.054  0.7353  0.7480  0.2516
17335SOL     OW60782   2.974  11.118   5.136 -0.3826  0.1653  0.2309
17335SOL    HW160783   3.055  11.168   5.127 -0.5383  0.5946  1.1127
17335SOL    HW260784   2.941  11.110   5.047  0.7023 -0.1454 -0.1585
17336SOL     OW60785   4.153   7.062  12.026 -0.3522 -0.5959  0.0322
17336SOL    HW160786   4.180   7.041  11.937  0.7462  0.2840  0.1216
17336SOL    HW260787   4.199   6.999  12.081 -0.3980 -0.6397  0.0202
17337SOL     OW60788  10.627  12.284   2.310 -0.2628 -0.8454  0.0797
17337SOL    HW160789  10.662  12.315   2.226  0.9976  1.0026  1.2043
17337SOL    HW260790  10.653  12.192   2.314  1.3667 -0.4588 -0.7298
17338SOL     OW60791   3.640   6.676  10.273 -0.1341  0.4814 -0.0444
17338SOL    HW160792   3.711   6.612  10.271 -0.7572 -0.3630  2.1257
17338SOL    HW260793   3.573   6.639  10.215  0.2578  0.1218 -0.2722
17339SOL     OW60794  11.978   2.138   2.658 -0.3332  0.0620  0.5159
17339SOL    HW160795  12.036   2.110   2.729 -0.5788  0.6981  0.9817
17339SOL    HW260796  12.027   2.120   2.578  1.1533  1.9796  0.9251
17340SOL     OW60797   7.713  11.436   1.607  0.2756  0.2769  0.0045
17340SOL    HW160798   7.791  11.382   1.613 -0.2938 -0.4190  3.1124
17340SOL    HW260799   7.649  11.380   1.561  0.7909 -0.2373 -0.0995
17341SOL     OW60800  10.412   2.696  11.922 -0.0273 -0.1869 -0.2365
17341SOL    HW160801  10.400   2.785  11.889 -1.0085 -0.8704 -1.8765
17341SOL    HW260802  10.386   2.640  11.848  0.8930 -1.8287  0.6387
17342SOL     OW60803   0.503   4.497   5.124  0.7261 -0.2142  0.1491
17342SOL    HW160804   0.533   4.528   5.210 -0.0420 -0.6964  0.6043
17342SOL    HW260805   0.558   4.544   5.061  1.2605  0.1916  0.9018
17343SOL     OW60806   9.085   1.448  12.157  0.2239 -0.1773 -0.0536
17343SOL    HW160807   9.082   1.466  12.063 -1.9286 -0.1885 -0.0377
17343SOL    HW260808   9.028   1.372  12.169  0.2307  0.0029  1.2857
17344SOL     OW60809   6.861  12.289   0.052 -0.1498 -0.6228  0.3259
17344SOL    HW160810   6.784  12.235   0.070 -0.2807 -1.5251 -2.4248
17344SOL    HW260811   6.866  12.292  -0.043  1.1270  2.4883  0.3769
17345SOL     OW60812   0.573   6.231  10.451 -0.1278 -0.1144 -0.6524
17345SOL    HW160813   0.580   6.316  10.496 -0.1065 -0.7371  0.5436
17345SOL    HW260814   0.664   6.201  10.443 -0.0356  0.4444 -2.0480
17346SOL     OW60815   6.131   1.431  11.453 -0.2148 -0.2910  0.1000
17346SOL    HW160816   6.116   1.501  11.515  0.5069 -0.9274  1.0306
17346SOL    HW260817   6.079   1.358  11.486  0.2637 -0.6679  0.0383
17347SOL     OW60818   1.430   3.481  11.171  0.1832 -0.2313 -0.1734
17347SOL    HW160819   1.487   3.405  11.159 -0.1428 -0.4793 -0.1910
17347SOL    HW260820   1.375   3.482  11.093  2.3094  1.9206 -1.7540
17348SOL     OW60821  10.147  11.841   4.977  0.0142 -0.2453 -0.6013
17348SOL    HW160822  10.150  11.930   5.010  0.6171 -0.6811  0.5790
17348SOL    HW260823  10.102  11.848   4.893 -1.5975  0.9114  0.2959
17349SOL     OW60824  11.918  11.387   7.729  0.1496  0.2746 -0.2261
17349SOL    HW160825  11.945  11.330   7.657  0.7576  0.3327 -0.0523
17349SOL    HW260826  11.877  11.462   7.686 -0.9056 -0.4112 -0.4441
17350SOL     OW60827   6.356  12.288   5.742  0.0320  0.0334 -0.0514
17350SOL    HW160828   6.389  12.207   5.703  1.7417  0.2922  0.7652
17350SOL    HW260829   6.295  12.260   5.810  1.4342 -0.6457  0.9671
17351SOL     OW60830   7.297  11.861  11.257  0.2090 -0.7921 -0.0374
17351SOL    HW160831   7.304  11.783  11.312  0.6083 -0.7962 -0.0945
17351SOL    HW260832   7.342  11.838  11.176  1.8616  0.0828  0.5883
17352SOL     OW60833   5.417   0.271   8.627  0.2450  0.5669  0.2614
17352SOL    HW160834   5.366   0.226   8.695 -2.5049  2.2791 -0.5343
17352SOL    HW260835   5.438   0.203   8.564 -0.0055 -0.4166  1.2100
17353SOL     OW60836   5.757   5.667   8.547 -0.4674  0.0625 -0.2800
17353SOL    HW160837   5.781   5.602   8.613 -1.2881  1.6508  1.6851
17353SOL    HW260838   5.830   5.729   8.545  0.3085 -0.8207 -2.1395
17354SOL     OW60839  10.776   6.189  12.001  0.3671  1.0750  0.0491
17354SOL    HW160840  10.710   6.126  11.973 -0.2406  1.5108  0.4963
17354SOL    HW260841  10.775   6.186  12.096  2.6295 -0.6059  0.1167
17355SOL     OW60842   5.107   6.113   6.348 -0.7420 -0.2230 -0.0793
17355SOL    HW160843   5.172   6.045   6.331 -1.3388 -0.5651 -1.1196
17355SOL    HW260844   5.064   6.087   6.429 -0.9138 -1.0559 -0.4329
17356SOL     OW60845   1.651  11.322   1.086 -0.1053  0.0285  0.1561
17356SOL    HW160846   1.653  11.345   1.179 -1.6451 -1.2027  0.5273
17356SOL    HW260847   1.727  11.266   1.073 -0.0484 -0.0391  0.7575
17357SOL     OW60848   1.626  11.503   3.927 -0.3449 -0.2354  0.2357
17357SOL    HW160849   1.658  11.414   3.936 -2.4540 -0.9216  1.7575
17357SOL    HW260850   1.687  11.556   3.979 -0.4916 -1.1922  1.4216
17358SOL     OW60851   4.311   9.562   9.091 -0.0809  0.7639 -0.0173
17358SOL    HW160852   4.397   9.567   9.050 -0.5069 -0.9324 -1.2300
17358SOL    HW260853   4.318   9.489   9.152 -0.4902  1.0311  0.3570
17359SOL     OW60854   5.961  11.457  12.417 -0.4885  0.3050  0.7666
17359SOL    HW160855   5.970  11.369  12.381  1.3713 -0.2329  2.4093
17359SOL    HW260856   6.049  11.493  12.415 -0.8692  1.3653  2.0214
17360SOL     OW60857   0.559   5.813   0.385  0.1380 -0.1732  0.7062
17360SOL    HW160858   0.514   5.751   0.442 -1.7869 -1.4630 -1.9885
17360SOL    HW260859   0.512   5.895   0.398 -3.4099 -1.5129 -2.1112
17361SOL     OW60860   0.689   5.390   1.384 -0.0923 -0.5174 -0.4405
17361SOL    HW160861   0.642   5.462   1.424  0.8322  0.0364 -0.3286
17361SOL    HW260862   0.621   5.326   1.363 -0.6726 -0.6011  1.4933
17362SOL     OW60863   0.357   7.822  11.383  0.0037  0.1917 -0.3140
17362SOL    HW160864   0.278   7.816  11.330  0.1758 -2.1497 -0.4029
17362SOL    HW260865   0.393   7.908  11.362 -1.2777  0.3692 -2.0472
17363SOL     OW60866   9.217   1.178   8.484 -0.0212  0.0376 -0.2890
17363SOL    HW160867   9.145   1.129   8.446 -1.3849  0.1644  1.9407
17363SOL    HW260868   9.249   1.234   8.413 -2.2710  0.1325 -1.2959
17364SOL     OW60869   6.514  10.673   3.075  0.6084 -0.1058 -0.2754
17364SOL    HW160870   6.574  10.735   3.117  0.8549 -0.3090 -0.3216
17364SOL    HW260871   6.563  10.639   3.000 -0.0243  0.6385 -1.0372
17365SOL     OW60872   3.758   5.187   4.493 -0.4588  0.1798 -0.2874
17365SOL    HW160873   3.673   5.225   4.511 -0.7651 -0.3925 -0.4910
17365SOL    HW260874   3.793   5.239   4.421 -0.3567  0.8151  0.2132
17366SOL     OW60875  11.497  11.406   7.580 -0.5218  0.1721  0.2054
17366SOL    HW160876  11.419  11.437   7.625 -1.3629 -0.9687 -0.4046
17366SOL    HW260877  11.539  11.346   7.642 -0.6855  0.0149  0.1669
17367SOL     OW60878   8.666   7.127   4.416  0.4245 -0.0937  0.3704
17367SOL    HW160879   8.601   7.192   4.391 -0.6936 -0.4646  2.0843
17367SOL    HW260880   8.720   7.170   4.482  0.4914 -0.4886  0.5813
17368SOL     OW60881  11.685   7.584   9.091  0.3927 -0.2557 -0.1015
17368SOL    HW160882  11.769   7.623   9.116  0.5370  0.2650 -1.3139
17368SOL    HW260883  11.682   7.594   8.995 -2.0784  1.8435  0.0991
17369SOL     OW60884   7.276   6.638   8.748 -0.0181  0.4663 -0.4035
17369SOL    HW160885   7.194   6.648   8.700  1.2054  0.6309 -2.6066
17369SOL    HW260886   7.336   6.699   8.705  1.0678  0.9516  1.6814
17370SOL     OW60887   1.038   5.928   3.220  0.6267 -0.1960  0.3231
17370SOL    HW160888   1.057   5.848   3.170 -1.0175  0.5115 -1.5658
17370SOL    HW260889   0.953   5.911   3.259 -0.1659  0.9280 -0.8462
17371SOL     OW60890   0.439   8.027   6.868  0.3675  0.2923 -0.4867
17371SOL    HW160891   0.487   8.101   6.831  0.0659  1.5986  1.5825
17371SOL    HW260892   0.485   8.007   6.950 -0.9044 -0.2944  0.1166
17372SOL     OW60893   6.882   8.610  11.003  0.0120  0.1382 -0.1418
17372SOL    HW160894   6.905   8.698  10.973  0.7997  0.3719  1.0494
17372SOL    HW260895   6.866   8.621  11.097  0.1501 -0.9906  0.0195
17373SOL     OW60896   1.513   1.670   7.004 -0.0179 -0.4065 -0.8322
17373SOL    HW160897   1.585   1.614   7.035 -1.4912 -1.4384  0.9273
17373SOL    HW260898   1.443   1.608   6.981 -0.5655  0.5997 -1.9748
17374SOL     OW60899   5.102   4.955   8.139 -0.5481  0.6444  0.2297
17374SOL    HW160900   5.139   4.867   8.144 -0.6476  0.6171  0.5396
17374SOL    HW260901   5.008   4.942   8.146 -0.5149  0.8354  1.2273
17375SOL     OW60902  11.491   1.317   4.397 -0.8430  0.5605  0.6035
17375SOL    HW160903  11.502   1.407   4.368 -1.6401  0.2291 -0.8104
17375SOL    HW260904  11.459   1.325   4.487 -0.9219  1.6893  0.4906
17376SOL     OW60905   1.854  11.635   6.604 -0.0040  0.1825  0.2876
17376SOL    HW160906   1.842  11.614   6.696  0.6204 -1.7768 -0.0226
17376SOL    HW260907   1.940  11.598   6.582 -0.4342  0.0016 -1.2215
17377SOL     OW60908   5.418   4.834   2.234  0.3213  0.4165 -0.1245
17377SOL    HW160909   5.325   4.843   2.254  0.9113  1.8056  2.4276
17377SOL    HW260910   5.431   4.740   2.223 -1.4294  0.2354 -0.8754
17378SOL     OW60911  10.564   7.376   8.558 -0.5923  0.2457  0.4609
17378SOL    HW160912  10.613   7.431   8.498 -1.0731  0.5057  0.3062
17378SOL    HW260913  10.588   7.409   8.645 -0.9695  0.7761  0.3653
17379SOL     OW60914   8.880   6.413   9.318 -0.4540 -0.5214 -0.1330
17379SOL    HW160915   8.862   6.327   9.280 -1.6226 -0.5613  0.4654
17379SOL    HW260916   8.851   6.475   9.252  0.9932 -0.5465 -0.8454
17380SOL     OW60917   7.780   1.622   2.178 -0.1729 -0.3279 -0.4772
17380SOL    HW160918   7.837   1.618   2.254  1.8154 -3.1516 -1.9595
17380SOL    HW260919   7.701   1.575   2.205  0.0844 -0.3964  0.1749
17381SOL     OW60920   4.188   0.957   6.830 -0.9454  0.0935  0.2879
17381SOL    HW160921   4.210   0.922   6.743  2.2163  1.5568  0.3549
17381SOL    HW260922   4.196   1.052   6.820 -1.5425  0.3527  1.9547
17382SOL     OW60923   7.853   0.067   7.143  0.2845 -0.1478 -0.7642
17382SOL    HW160924   7.778   0.127   7.135 -2.2902 -2.9858  0.0373
17382SOL    HW260925   7.875   0.045   7.052  0.6456  1.2394 -1.0321
17383SOL     OW60926   6.547   0.312  12.166  0.0218 -0.5510 -0.1584
17383SOL    HW160927   6.566   0.341  12.077  0.1724  0.6200  0.2308
17383SOL    HW260928   6.455   0.284  12.163  0.1006 -0.7677 -0.7300
17384SOL     OW60929   1.670   4.207   9.111 -0.1641  0.1685 -0.1126
17384SOL    HW160930   1.649   4.131   9.056 -1.1029  0.4493 -0.1530
17384SOL    HW260931   1.605   4.272   9.087 -0.9881  0.0881  1.7781
17385SOL     OW60932   0.316  11.890   2.517  0.1048  0.2877 -0.3718
17385SOL    HW160933   0.375  11.816   2.500  0.6548  1.2325 -3.0982
17385SOL    HW260934   0.363  11.944   2.580 -0.3368 -1.6229  1.7397
17386SOL     OW60935   7.169   5.002  10.624 -0.0203  0.0766 -0.9012
17386SOL    HW160936   7.151   5.032  10.713  0.5254 -1.1385 -0.3671
17386SOL    HW260937   7.246   4.947  10.632  0.0468 -0.0430 -2.1387
17387SOL     OW60938   6.395   7.708  10.453  0.5374  0.1359  0.6079
17387SOL    HW160939   6.439   7.701  10.369  0.2320 -0.5721  0.5019
17387SOL    HW260940   6.400   7.802  10.475 -0.4066  0.5267 -0.7484
17388SOL     OW60941   7.812   9.162  10.702  0.0004  0.2090  0.1071
17388SOL    HW160942   7.724   9.173  10.665  0.4826  0.3712 -1.0151
17388SOL    HW260943   7.816   9.070  10.728 -0.7105  0.3453  0.7301
17389SOL     OW60944   7.581  11.392   5.055 -0.7404  0.1210  0.5808
17389SOL    HW160945   7.577  11.365   4.963 -1.6084  0.4565  0.5042
17389SOL    HW260946   7.507  11.452   5.065  1.6817  3.4031  0.4546
17390SOL     OW60947   0.758  11.219   2.130 -0.1880 -0.0735  0.1982
17390SOL    HW160948   0.801  11.210   2.045 -0.3519 -2.7038  0.3061
17390SOL    HW260949   0.789  11.302   2.165  1.5415  0.0577 -1.5229
17391SOL     OW60950   6.061   2.276   3.476 -0.3925 -0.5904 -0.4346
17391SOL    HW160951   6.045   2.370   3.485  0.0895 -0.6087  0.8979
17391SOL    HW260952   5.995   2.246   3.413 -0.7361  0.5832 -0.6626
17392SOL     OW60953  10.166   6.885   9.447 -0.2966  0.2444 -0.0716
17392SOL    HW160954  10.155   6.802   9.401 -1.0989 -0.7504  1.8268
17392SOL    HW260955  10.167   6.862   9.539  1.2286  2.1782  0.4627
17393SOL     OW60956   0.739   3.979   0.795  0.5234 -0.3385 -0.9215
17393SOL    HW160957   0.673   4.037   0.832 -0.2982 -3.0697  2.4548
17393SOL    HW260958   0.694   3.934   0.724 -0.3176 -0.1225 -0.5359
17394SOL     OW60959  10.943   2.150  10.493 -0.5605 -0.0720  0.3226
17394SOL    HW160960  10.964   2.239  10.465 -2.0160  0.1330 -0.2043
17394SOL    HW260961  11.026   2.103  10.489  0.1369  1.1526  0.1742
17395SOL     OW60962   8.457   0.805   9.973 -0.7527  0.0361  0.2470
17395SOL    HW160963   8.543   0.845   9.988 -0.3002 -1.0739  0.7617
17395SOL    HW260964   8.400   0.878   9.950  0.3320  0.7907 -0.1108
17396SOL     OW60965   6.615   6.420   8.001 -0.3964 -0.1683 -0.0202
17396SOL    HW160966   6.560   6.448   7.928  0.2755  0.6281 -0.2379
17396SOL    HW260967   6.555   6.414   8.075 -1.2036 -1.5498 -0.7322
17397SOL     OW60968   9.980   6.616   8.078 -0.4100  0.1781 -0.5691
17397SOL    HW160969  10.067   6.644   8.049 -0.1104 -1.4827 -1.3550
17397SOL    HW260970   9.957   6.679   8.147  2.1770 -0.3606  0.9206
17398SOL     OW60971  10.802   8.545   6.791  0.3573 -0.2298 -0.0632
17398SOL    HW160972  10.769   8.590   6.713  0.0769 -0.4609 -0.0775
17398SOL    HW260973  10.768   8.456   6.785 -0.5297  0.0280  0.8443
17399SOL     OW60974   7.828   1.328   8.877 -0.1829  1.4287 -0.2418
17399SOL    HW160975   7.776   1.399   8.841  3.3438  2.9639 -2.8536
17399SOL    HW260976   7.835   1.265   8.805 -1.2832 -0.5307  1.2663
17400SOL     OW60977  10.785   6.982  10.200  0.0478 -0.4905 -0.3806
17400SOL    HW160978  10.730   7.046  10.246 -0.2268  0.1600 -1.5632
17400SOL    HW260979  10.872   7.022  10.198 -0.4520  0.6257 -2.4732
17401SOL     OW60980   2.275  10.930   2.973 -0.4067 -0.4306 -0.4236
17401SOL    HW160981   2.255  11.020   2.999  0.8033 -0.5357  1.0691
17401SOL    HW260982   2.367  10.933   2.945  0.0933 -1.4038  0.9722
17402SOL     OW60983   8.316  11.239   1.513 -0.1596  0.4969 -0.0734
17402SOL    HW160984   8.229  11.278   1.502 -0.1724  0.6568  0.5767
17402SOL    HW260985   8.359  11.254   1.429 -0.4557  1.1859 -0.1142
17403SOL     OW60986   2.827   7.115   1.536  0.1687 -0.0473 -0.1712
17403SOL    HW160987   2.902   7.171   1.517  1.2691 -0.7808  1.7075
17403SOL    HW260988   2.854   7.027   1.508 -0.3783 -0.1631 -0.3604
17404SOL     OW60989   1.314   6.661   0.759 -0.5238  0.4010  0.4754
17404SOL    HW160990   1.390   6.685   0.705  1.5758  0.3880  3.2237
17404SOL    HW260991   1.340   6.581   0.804 -1.4046  1.3253  2.8116
17405SOL     OW60992   9.246   7.546   6.117 -0.7218 -0.5537 -0.0602
17405SOL    HW160993   9.245   7.618   6.180 -0.8392  0.5958 -1.3397
17405SOL    HW260994   9.336   7.545   6.083 -0.3224 -1.9443  0.9580
17406SOL     OW60995   7.585   4.858   3.543  0.7436 -0.1619 -0.3001
17406SOL    HW160996   7.619   4.929   3.598  0.4066  1.0127 -1.5502
17406SOL    HW260997   7.518   4.816   3.597 -0.1177  1.4442 -0.0420
17407SOL     OW60998  10.088   9.364   2.256  0.4551 -0.1094 -0.2340
17407SOL    HW160999  10.052   9.423   2.323 -1.0136  2.4455 -3.0047
17407SOL    HW261000  10.079   9.277   2.293 -1.5107  1.0641  2.3613
17408SOL     OW61001   9.751   6.042   9.508 -0.1835 -0.1856  0.1831
17408SOL    HW161002   9.819   6.008   9.451  0.5589  1.4492  0.0346
17408SOL    HW261003   9.732   5.971   9.569  0.4222 -1.2526 -0.8478
17409SOL     OW61004   3.956   8.010  11.053  0.4014  0.0179 -0.2311
17409SOL    HW161005   4.013   8.044  10.983  1.0662 -1.1497 -0.2719
17409SOL    HW261006   3.893   7.955  11.007 -0.4937  0.9282 -0.1289
17410SOL     OW61007   4.735  12.448   9.550  0.0470  0.1558  0.1959
17410SOL    HW161008   4.828  12.464   9.534  0.0577  1.2571  1.2253
17410SOL    HW261009   4.691  12.525   9.514 -0.2718  0.6333  1.5544
17411SOL     OW61010   5.908   7.603   4.011  0.8315  0.4174  0.1438
17411SOL    HW161011   5.898   7.598   3.916 -0.7517 -0.9130  0.3467
17411SOL    HW261012   5.970   7.676   4.025  0.7998  0.8747 -1.8665
17412SOL     OW61013   8.691  11.356   3.216  0.0705 -0.5761  0.5804
17412SOL    HW161014   8.607  11.378   3.175 -0.0412 -0.9622  0.6050
17412SOL    HW261015   8.756  11.399   3.160 -0.0820 -1.0520  0.0224
17413SOL     OW61016   4.959  10.010   4.545 -0.5066 -0.4470  0.1373
17413SOL    HW161017   4.915  10.092   4.569  1.9005  1.3043 -0.9641
17413SOL    HW261018   4.967  10.014   4.450 -0.8028 -2.2609  0.0095
17414SOL     OW61019   3.465   4.821   9.139  0.0196 -0.9601 -0.4041
17414SOL    HW161020   3.430   4.891   9.194 -1.5234 -0.7527 -1.5652
17414SOL    HW261021   3.549   4.799   9.179 -0.1818  0.4497  0.9165
17415SOL     OW61022   3.222  11.461  12.060  0.3749  0.2362  0.2496
17415SOL    HW161023   3.301  11.416  12.091  0.4885  0.3492  0.1249
17415SOL    HW261024   3.150  11.405  12.089  0.4418  0.6621  1.2713
17416SOL     OW61025   6.401   5.428  12.561  0.6188 -0.6734  0.0539
17416SOL    HW161026   6.387   5.345  12.607  0.2058 -0.3907  0.4576
17416SOL    HW261027   6.313   5.467  12.555  0.7726 -0.3759 -0.3444
17417SOL     OW61028   8.600   0.990   9.787  0.0024 -0.1953 -0.1069
17417SOL    HW161029   8.632   0.900   9.788 -0.8920 -0.5627 -1.6173
17417SOL    HW261030   8.675   1.041   9.756  0.5419 -0.3690  0.8428
17418SOL     OW61031   2.117   9.822   2.697  0.1986 -0.3521 -0.3219
17418SOL    HW161032   2.156   9.908   2.682  1.3257 -0.8414 -0.2616
17418SOL    HW261033   2.128   9.806   2.791  0.4502 -0.7835 -0.4238
17419SOL     OW61034   7.182   5.667  12.372  0.1966 -0.5551  0.5617
17419SOL    HW161035   7.253   5.604  12.358  0.1206 -0.4303 -0.4242
17419SOL    HW261036   7.225   5.744  12.410  0.5045 -0.6826  0.4747
17420SOL     OW61037   8.180   9.684  10.887  0.0139 -0.1371  0.2772
17420SOL    HW161038   8.158   9.617  10.821 -1.4241  0.6840 -0.1315
17420SOL    HW261039   8.149   9.646  10.970 -1.3348  0.2217 -0.0350
17421SOL     OW61040   9.262   8.210   1.541  0.4133  0.7932  0.1725
17421SOL    HW161041   9.285   8.303   1.543 -0.6067  1.0622 -0.0517
17421SOL    HW261042   9.292   8.177   1.626  0.4084  1.4241  0.4306
17422SOL     OW61043   8.142  10.420   7.432  0.2362 -0.1168  0.3370
17422SOL    HW161044   8.091  10.349   7.393 -1.2195  0.2976  1.3956
17422SOL    HW261045   8.082  10.494   7.433  0.9657  0.4777  1.3584
17423SOL     OW61046  11.182  11.009   5.190 -0.5319 -0.4529 -0.1434
17423SOL    HW161047  11.101  11.030   5.144 -0.1264  0.7905 -0.3357
17423SOL    HW261048  11.249  11.061   5.145  0.1588 -0.5288  0.7754
17424SOL     OW61049  11.752   1.199   8.851 -0.2918  0.5974  0.4361
17424SOL    HW161050  11.835   1.246   8.855 -0.6515  1.2501  0.4772
17424SOL    HW261051  11.765   1.121   8.905  1.0010 -0.4746 -1.3320
17425SOL     OW61052  10.643   0.764   6.495  0.1984 -0.0152  0.8105
17425SOL    HW161053  10.736   0.743   6.506  0.4951  0.8397  0.1137
17425SOL    HW261054  10.597   0.682   6.510  0.9889 -0.2336  2.1634
17426SOL     OW61055   3.472   5.596   2.294  0.5295 -0.1033 -0.1541
17426SOL    HW161056   3.486   5.609   2.200 -0.3603 -0.0157 -0.2878
17426SOL    HW261057   3.448   5.683   2.326 -0.8669 -0.4595 -0.1795
17427SOL     OW61058   6.977   3.220  12.000 -0.3229  0.0864  0.3035
17427SOL    HW161059   6.959   3.242  12.091  0.0207  2.3322 -0.1262
17427SOL    HW261060   7.009   3.130  12.003  0.7340  0.4844  2.5437
17428SOL     OW61061   9.743   0.962   0.657 -0.1986  0.3276 -0.0349
17428SOL    HW161062   9.709   1.051   0.645 -1.9881 -0.1102  1.3977
17428SOL    HW261063   9.735   0.946   0.751  2.0666 -0.6312  0.0577
17429SOL     OW61064   7.410   9.038   3.109 -0.3807 -0.4706 -0.1700
17429SOL    HW161065   7.452   8.973   3.052 -1.3613 -0.4426 -0.9540
17429SOL    HW261066   7.479   9.100   3.130  0.8714 -2.2992  1.4464
17430SOL     OW61067   0.621   3.724   4.049  0.2605 -0.1687 -0.3223
17430SOL    HW161068   0.573   3.783   4.107  1.0731 -0.1028  0.2908
17430SOL    HW261069   0.628   3.643   4.098  2.3708  0.3892  0.3712
17431SOL     OW61070   4.255  10.627   5.270  0.3662  0.0036  0.0367
17431SOL    HW161071   4.233  10.718   5.249  2.4258  0.3757 -0.7508
17431SOL    HW261072   4.302  10.595   5.193  0.3721 -1.4691  0.6191
17432SOL     OW61073  10.221   2.561   8.224 -0.1339 -0.0485  0.3655
17432SOL    HW161074  10.146   2.502   8.230 -0.7103  0.4970 -1.0288
17432SOL    HW261075  10.280   2.531   8.293 -1.2484 -1.0329  0.9371
17433SOL     OW61076   0.957   1.643   0.530  0.1941  0.0409  0.4129
17433SOL    HW161077   0.883   1.614   0.584  0.2711  0.7656  0.9227
17433SOL    HW261078   0.919   1.707   0.470  0.3283  0.0803  0.3698
17434SOL     OW61079  10.855   7.656   8.993 -0.0537 -0.3894  0.1096
17434SOL    HW161080  10.840   7.563   8.976 -0.1928 -0.0853 -1.6399
17434SOL    HW261081  10.948   7.668   8.974  0.4083 -0.4728  2.0501
17435SOL     OW61082   4.392  11.298   6.673  0.1983  0.3061  0.3727
17435SOL    HW161083   4.388  11.280   6.579  0.0129 -3.1846  0.9159
17435SOL    HW261084   4.483  11.279   6.697 -0.1656 -0.6053  1.1234
17436SOL     OW61085   8.851  10.658   1.252 -0.2495 -0.0363  0.2691
17436SOL    HW161086   8.905  10.590   1.293  2.4232  0.3878 -2.1699
17436SOL    HW261087   8.832  10.623   1.165 -1.3273  1.1782 -0.0049
17437SOL     OW61088   4.391   1.520   2.882 -0.3515 -0.0431 -0.5601
17437SOL    HW161089   4.357   1.607   2.904  0.1684  0.4286 -1.5186
17437SOL    HW261090   4.486   1.528   2.894 -0.2845 -0.4319 -0.8134
17438SOL     OW61091   4.708   3.601   7.274  0.1003 -0.3967 -0.4582
17438SOL    HW161092   4.706   3.671   7.209 -1.5701 -0.8025 -0.8899
17438SOL    HW261093   4.689   3.522   7.224 -0.3941 -0.8302  0.3945
17439SOL     OW61094   6.407   1.987  10.377  0.1774  0.2530 -0.0062
17439SOL    HW161095   6.427   1.894  10.375  0.2986  0.2073  1.7551
17439SOL    HW261096   6.322   1.995  10.334  0.4611 -0.5665 -0.7430
17440SOL     OW61097   3.156   6.185   0.792  0.1991 -0.5670 -0.4420
17440SOL    HW161098   3.115   6.103   0.763  1.3693 -0.3030 -3.0701
17440SOL    HW261099   3.090   6.252   0.774  0.2007 -0.6280 -0.6745
17441SOL     OW61100   7.065   2.409   7.300  0.1166 -0.3544  0.2515
17441SOL    HW161101   6.972   2.394   7.282  0.1453  0.7285 -0.9717
17441SOL    HW261102   7.094   2.329   7.344 -1.5867 -0.3419  1.4794
17442SOL     OW61103   1.452   3.970   4.515 -0.3959  0.3006 -0.7679
17442SOL    HW161104   1.419   3.988   4.603  0.6854 -0.5128 -0.1665
17442SOL    HW261105   1.399   3.896   4.484 -0.8879  0.6947 -0.8776
17443SOL     OW61106   9.206   3.220   9.837  0.1573  0.3025 -0.2140
17443SOL    HW161107   9.126   3.220   9.890 -0.5461  2.2111 -1.1746
17443SOL    HW261108   9.266   3.276   9.885  0.3970  0.0772 -0.2470
17444SOL     OW61109   9.490   6.333  11.213 -0.1388 -0.1176 -0.5948
17444SOL    HW161110   9.399   6.314  11.191  0.2022 -2.6814  0.0042
17444SOL    HW261111   9.504   6.293  11.299  1.7739 -0.5181 -1.0363
17445SOL     OW61112  11.145   5.174   2.907  1.0098  0.0484  0.2153
17445SOL    HW161113  11.174   5.173   2.999  0.8478  0.9687  0.2805
17445SOL    HW261114  11.074   5.238   2.905  0.5609 -0.4629 -0.4242
17446SOL     OW61115   8.917   3.046   4.712 -0.0458  0.1587  0.6762
17446SOL    HW161116   8.933   3.123   4.766 -1.3709  0.1826  1.0618
17446SOL    HW261117   8.862   2.989   4.766  0.0867 -0.6204  0.0210
17447SOL     OW61118   6.390   8.895   0.871 -0.3570  0.0978 -0.0766
17447SOL    HW161119   6.396   8.959   0.943  0.6453  0.9849 -0.9178
17447SOL    HW261120   6.297   8.871   0.868 -0.5165  0.5094  1.1156
17448SOL     OW61121   2.871   0.558  10.556  0.2008  0.2354 -0.0234
17448SOL    HW161122   2.817   0.607  10.617  0.8185  2.2764 -1.0285
17448SOL    HW261123   2.813   0.488  10.524 -1.0343  0.8764  0.7360
17449SOL     OW61124   6.792   2.073   5.798 -0.0013 -0.8999  0.2121
17449SOL    HW161125   6.868   2.085   5.855 -0.6994  0.1880  0.9657
17449SOL    HW261126   6.788   2.154   5.747  0.3891 -1.7044 -1.1459
17450SOL     OW61127   6.163   6.442  10.672 -0.5751  0.3594 -0.2804
17450SOL    HW161128   6.119   6.506  10.728  1.7231  0.2888  1.7830
17450SOL    HW261129   6.106   6.365  10.675 -0.7757  0.5306  1.6250
17451SOL     OW61130   9.624   6.486  10.847 -0.1247  0.1964 -0.1724
17451SOL    HW161131   9.655   6.572  10.819  0.6850  0.2647  0.8848
17451SOL    HW261132   9.528   6.492  10.842 -0.0367  0.5766 -1.7402
17452SOL     OW61133   4.150   8.603   2.631  0.6019 -0.4496 -0.5187
17452SOL    HW161134   4.187   8.653   2.704 -1.8332 -1.0251  1.2486
17452SOL    HW261135   4.087   8.543   2.673  0.2997 -1.9593 -2.9647
17453SOL     OW61136   0.213   5.498   0.091  0.2072 -0.2787  0.3876
17453SOL    HW161137   0.176   5.558   0.026 -0.1804 -0.4724  0.4221
17453SOL    HW261138   0.300   5.533   0.110  0.3393 -0.2402 -0.2634
17454SOL     OW61139   7.246  10.412   8.995  0.3272 -0.3730  0.1056
17454SOL    HW161140   7.296  10.331   9.006  2.0381  0.6433  0.0281
17454SOL    HW261141   7.160  10.391   9.032  0.6580 -2.2820 -0.0841
17455SOL     OW61142   6.230   5.681   8.725 -0.4566 -0.2094  0.2193
17455SOL    HW161143   6.259   5.660   8.814  1.2363 -1.0589 -0.4737
17455SOL    HW261144   6.278   5.761   8.703  0.3773 -0.8722 -0.4574
17456SOL     OW61145   6.956   5.353   2.295 -0.6188  0.3413  0.6508
17456SOL    HW161146   7.023   5.394   2.350  1.0581 -0.4082 -0.7088
17456SOL    HW261147   6.885   5.417   2.291  1.0814  2.2914  0.1393
17457SOL     OW61148   8.799  10.592   4.215  0.0381  0.1667  0.1595
17457SOL    HW161149   8.845  10.621   4.294  0.1814  2.3155 -0.6570
17457SOL    HW261150   8.817  10.660   4.151 -0.4114 -1.3248 -1.6333
17458SOL     OW61151   7.775   2.807   4.557  0.4280 -0.5486  0.3454
17458SOL    HW161152   7.816   2.753   4.489  1.9370  0.1972  0.6222
17458SOL    HW261153   7.795   2.897   4.531 -3.3879  0.1032 -0.9721
17459SOL     OW61154   8.274  10.491  11.716  0.5461  0.1131  0.2119
17459SOL    HW161155   8.236  10.578  11.730  0.5369 -0.0656  1.3199
17459SOL    HW261156   8.293  10.458  11.803  2.5477 -0.1393 -0.2740
17460SOL     OW61157   2.173   4.778   9.599  0.1568 -0.4202 -0.4770
17460SOL    HW161158   2.174   4.720   9.523 -1.9030  0.1800 -1.0341
17460SOL    HW261159   2.114   4.735   9.661  0.0754  0.1755 -0.1343
17461SOL     OW61160   1.981  10.040   3.886 -0.0888 -0.3455 -0.3593
17461SOL    HW161161   1.958   9.953   3.853 -0.4881  0.2228 -1.6557
17461SOL    HW261162   1.965  10.098   3.812  2.1091  0.5835 -0.1919
17462SOL     OW61163   5.293   2.108   6.975  0.4080 -0.1701 -0.5448
17462SOL    HW161164   5.318   2.141   6.889 -2.5569  0.5785 -1.2132
17462SOL    HW261165   5.312   2.014   6.970  0.2894 -0.1455 -2.0191
17463SOL     OW61166   3.396   4.232   6.025 -0.3006 -0.5465  0.1634
17463SOL    HW161167   3.302   4.252   6.031 -0.1553 -0.2387  1.6125
17463SOL    HW261168   3.433   4.266   6.106  0.9344 -1.4444 -0.0044
17464SOL     OW61169   0.203   7.036   6.964  0.1725 -0.3876 -0.0330
17464SOL    HW161170   0.278   6.994   7.007  0.4457  1.4039  1.3463
17464SOL    HW261171   0.127   7.000   7.009  0.3763  0.0732  0.7047
17465SOL     OW61172   1.163   9.596  11.892  1.1997 -0.3278 -0.3583
17465SOL    HW161173   1.083   9.607  11.944  1.1975 -0.6141 -0.3049
17465SOL    HW261174   1.141   9.528  11.829  0.8680  0.6742 -1.3753
17466SOL     OW61175   3.127   6.416   9.276 -0.8196  0.4706 -0.1811
17466SOL    HW161176   3.214   6.454   9.274  0.6451 -2.5991  0.0745
17466SOL    HW261177   3.102   6.416   9.369 -0.4501  0.0593 -0.0798
17467SOL     OW61178   7.457  12.120   0.738  0.0473 -0.2521 -0.0939
17467SOL    HW161179   7.516  12.161   0.801  0.5198 -1.7162  0.4603
17467SOL    HW261180   7.383  12.181   0.731  0.0121 -0.0023  1.8192
17468SOL     OW61181   4.837   6.344   8.623 -0.0500  0.0809  0.1139
17468SOL    HW161182   4.888   6.389   8.556 -1.0566 -0.7870 -1.2877
17468SOL    HW261183   4.800   6.414   8.676 -0.4411  0.8774 -1.1584
17469SOL     OW61184   9.587   0.269   6.544 -0.0963 -0.0910  0.4891
17469SOL    HW161185   9.623   0.188   6.581  2.0492  0.5706  0.0241
17469SOL    HW261186   9.623   0.339   6.599  0.9204  0.7251 -1.1382
17470SOL     OW61187   8.356   3.887   0.394 -0.3848 -0.3556 -0.0127
17470SOL    HW161188   8.332   3.802   0.358 -0.4602 -0.1982 -0.3410
17470SOL    HW261189   8.343   3.949   0.321 -1.6815  0.1578  0.6229
17471SOL     OW61190   0.246   8.045   8.678  0.4220 -0.5165 -0.7708
17471SOL    HW161191   0.296   7.973   8.717  1.1100 -0.5858 -1.7482
17471SOL    HW261192   0.310   8.094   8.626 -0.2961  0.0486 -1.1414
17472SOL     OW61193   2.462   7.183   8.833  0.1600 -0.7933  0.0863
17472SOL    HW161194   2.392   7.173   8.769  1.2114  0.9599 -1.4226
17472SOL    HW261195   2.537   7.214   8.783  1.6058 -1.1957  1.8805
17473SOL     OW61196   3.381   8.630   7.057 -0.2837  0.3683  0.1485
17473SOL    HW161197   3.382   8.604   7.149  0.3391 -1.5418 -0.3545
17473SOL    HW261198   3.294   8.670   7.045 -0.4548  0.4559  1.4884
17474SOL     OW61199   3.241   8.211   4.384  0.5504 -0.0182  0.1379
17474SOL    HW161200   3.322   8.220   4.434  1.3096 -0.0566 -1.0550
17474SOL    HW261201   3.269   8.187   4.296 -0.8489 -2.7556  0.3305
17475SOL     OW61202   6.677  12.373   6.627  0.9164  0.8890 -0.3292
17475SOL    HW161203   6.764  12.412   6.637  1.0447  0.1198  2.4784
17475SOL    HW261204   6.632  12.395   6.709  0.1598 -2.6688  0.3764
17476SOL     OW61205   3.197   3.745   0.896 -0.2901  0.3396  0.1217
17476SOL    HW161206   3.164   3.726   0.984  1.0988  0.1436  0.6190
17476SOL    HW261207   3.200   3.659   0.854 -0.7375  0.4052 -0.0545
17477SOL     OW61208   1.954   2.797   5.321  0.4820  0.1544  0.2577
17477SOL    HW161209   1.887   2.733   5.300 -0.1907  1.2420 -1.0012
17477SOL    HW261210   1.964   2.790   5.416 -1.5340  0.0953  0.5005
17478SOL     OW61211  11.973   6.814   0.132 -0.1427  0.0898  0.0816
17478SOL    HW161212  12.033   6.868   0.183  1.1619 -1.1467 -0.1060
17478SOL    HW261213  11.918   6.878   0.085  1.0625  1.2542  0.1814
17479SOL     OW61214   8.285   3.255   4.858 -0.4483  0.1072  0.0363
17479SOL    HW161215   8.248   3.338   4.889  0.3382 -0.1021  1.6557
17479SOL    HW261216   8.209   3.200   4.839 -0.9701  1.0724 -0.7334
17480SOL     OW61217   3.173   6.517  11.589 -0.3887 -0.4725 -0.1101
17480SOL    HW161218   3.191   6.466  11.510  0.5242 -1.6762  0.8594
17480SOL    HW261219   3.102   6.470  11.633 -0.3114 -0.2785  0.2248
17481SOL     OW61220   9.812   4.617   7.550 -0.0273 -0.0074  0.1550
17481SOL    HW161221   9.820   4.560   7.626  1.2064 -0.5762 -0.3590
17481SOL    HW261222   9.812   4.557   7.475 -1.3697  0.5298 -0.2980
17482SOL     OW61223   7.960   1.232   1.005  0.2282 -0.2785 -0.1574
17482SOL    HW161224   8.038   1.285   1.017 -0.2272  0.6146 -0.9802
17482SOL    HW261225   7.891   1.294   0.983 -1.0675 -0.8882  1.8588
17483SOL     OW61226   4.103   2.843   0.455 -0.2536  0.6912 -0.2057
17483SOL    HW161227   4.032   2.902   0.481  0.0583  1.2434 -0.5917
17483SOL    HW261228   4.182   2.887   0.484  0.0211  0.7506 -1.0274
17484SOL     OW61229   7.587   2.805   2.720 -0.4586  0.0558 -0.2952
17484SOL    HW161230   7.663   2.823   2.664  0.2109 -2.5014 -0.3514
17484SOL    HW261231   7.622   2.807   2.809 -0.9512  1.5550 -0.1222
17485SOL     OW61232   0.598  11.712   7.066 -0.1371  0.4109 -0.3322
17485SOL    HW161233   0.624  11.676   6.981 -0.1288  1.7158 -0.9229
17485SOL    HW261234   0.643  11.797   7.070  0.7326 -0.0884  1.4743
17486SOL     OW61235   9.164   4.821   2.755  0.0571  0.0370 -0.5304
17486SOL    HW161236   9.077   4.845   2.722 -0.0183  0.4566 -0.0395
17486SOL    HW261237   9.221   4.825   2.678 -0.4499 -0.7426 -0.9572
17487SOL     OW61238   4.103   9.183   3.814 -0.0716  0.2093 -0.7616
17487SOL    HW161239   4.148   9.257   3.773  0.1208 -0.0570 -1.0403
17487SOL    HW261240   4.173   9.119   3.831  0.0058  0.7034  0.8773
17488SOL     OW61241   5.308   8.001   8.774 -0.0779  0.1836  0.5537
17488SOL    HW161242   5.247   8.064   8.735  1.3201  1.1394 -0.1809
17488SOL    HW261243   5.349   8.049   8.846 -0.5246 -0.6183  1.3641
17489SOL     OW61244  11.317   8.971   0.756  0.0172 -0.2478  0.6256
17489SOL    HW161245  11.298   8.966   0.662  3.0409  0.5521 -0.1687
17489SOL    HW261246  11.239   9.010   0.795 -1.7886 -1.7104 -1.3345
17490SOL     OW61247   1.439   4.877   0.823 -0.4577  0.3671 -0.2205
17490SOL    HW161248   1.431   4.909   0.913 -2.2978 -0.2457 -0.1291
17490SOL    HW261249   1.425   4.955   0.768  0.0718  0.6224 -0.0105
17491SOL     OW61250   2.204   4.843   8.810 -0.1072  0.2419 -0.5725
17491SOL    HW161251   2.123   4.884   8.840  0.3655 -0.8477  2.6393
17491SOL    HW261252   2.274   4.893   8.852  0.8501  0.3735 -2.2445
17492SOL     OW61253   9.325  10.644   3.667 -0.3237  0.1100  0.0611
17492SOL    HW161254   9.392  10.671   3.730 -0.1970 -0.8429  0.3543
17492SOL    HW261255   9.242  10.661   3.712 -0.2764  0.8380 -0.1127
17493SOL     OW61256   5.478   4.345  12.268 -0.1478 -0.2170  0.5711
17493SOL    HW161257   5.531   4.405  12.216  0.3370 -2.3153 -1.5251
17493SOL    HW261258   5.542   4.288  12.311 -0.6468 -0.8397  0.4967
17494SOL     OW61259   1.810   6.135   8.159 -0.4860 -0.6135 -0.4476
17494SOL    HW161260   1.878   6.202   8.152  0.6003 -1.7192 -0.9052
17494SOL    HW261261   1.845   6.072   8.222 -1.8738 -0.3263  0.6488
17495SOL     OW61262   1.430   3.107   7.269  0.6499 -0.0489 -0.8647
17495SOL    HW161263   1.347   3.059   7.263 -0.1034  1.1138 -0.0216
17495SOL    HW261264   1.477   3.063   7.340 -0.2579  0.7446  0.2626
17496SOL     OW61265   5.241   2.811   6.034  0.1614  0.1770 -0.5846
17496SOL    HW161266   5.206   2.848   6.115 -0.2512 -0.6802 -0.3634
17496SOL    HW261267   5.165   2.798   5.978  0.5399  1.5993 -1.4795
17497SOL     OW61268  11.786   9.498   2.833 -0.4326  0.0442  0.1526
17497SOL    HW161269  11.732   9.438   2.885  0.0518 -1.0340 -0.5370
17497SOL    HW261270  11.865   9.511   2.886 -1.0872  1.1464  0.8927
17498SOL     OW61271  10.167   4.701   0.215  0.4675  0.0966 -0.4252
17498SOL    HW161272  10.105   4.773   0.223  0.6535  0.1321  1.0754
17498SOL    HW261273  10.222   4.723   0.140  1.2364  2.0869  0.6637
17499SOL     OW61274  10.186   7.785   1.883 -0.0626  0.1067 -0.1389
17499SOL    HW161275  10.183   7.690   1.875 -1.2376  0.1336 -0.1620
17499SOL    HW261276  10.232   7.815   1.804  0.4323 -0.4369 -0.0623
17500SOL     OW61277  11.567  10.399   8.747 -0.0884  0.1719  0.5906
17500SOL    HW161278  11.576  10.482   8.794  2.0156  0.0469  0.4846
17500SOL    HW261279  11.601  10.416   8.660  0.9208 -0.9418  0.7496
17501SOL     OW61280  11.302  11.159   7.465 -0.2237  0.4297 -0.2482
17501SOL    HW161281  11.305  11.117   7.379  1.0141 -0.1690  0.0632
17501SOL    HW261282  11.378  11.217   7.466 -2.3893  3.5235 -1.0315
17502SOL     OW61283   5.277   0.645  12.448  0.3254 -0.3208 -1.0050
17502SOL    HW161284   5.328   0.580  12.496  0.4827  0.6382  0.1926
17502SOL    HW261285   5.210   0.674  12.510  1.0495  1.5680 -1.0267
17503SOL     OW61286   4.604  11.079   2.599  0.3311 -0.1144  0.7545
17503SOL    HW161287   4.681  11.134   2.616  1.4554 -1.0153 -1.0629
17503SOL    HW261288   4.635  10.990   2.613 -0.8159 -0.4275  1.3725
17504SOL     OW61289  11.707  10.379   5.877 -0.0370 -0.2873  0.2356
17504SOL    HW161290  11.616  10.350   5.890  0.1846 -0.4974  1.3835
17504SOL    HW261291  11.716  10.456   5.932 -0.0888  0.9778 -1.4324
17505SOL     OW61292  12.532  10.049   8.203 -0.2021  0.3444  0.2630
17505SOL    HW161293  12.458   9.990   8.196 -0.6169  0.8396  0.4351
17505SOL    HW261294  12.568  10.033   8.290 -1.0177  1.1494  0.7690
17506SOL     OW61295  11.552   5.003   7.583  0.0366  0.4179  0.4864
17506SOL    HW161296  11.582   4.971   7.498 -1.6035  1.7718 -0.6294
17506SOL    HW261297  11.555   4.925   7.639  0.5471 -0.6404 -0.9476
17507SOL     OW61298   6.033   0.845   0.668 -0.4751  1.0854  0.5687
17507SOL    HW161299   5.965   0.901   0.630  0.9972  2.5355 -0.0611
17507SOL    HW261300   5.995   0.757   0.668 -2.0690  1.7342 -0.4244
17508SOL     OW61301   5.578   4.896   9.181  0.4189  0.3723 -0.4520
17508SOL    HW161302   5.649   4.859   9.129  1.3847  0.1219  0.9603
17508SOL    HW261303   5.588   4.991   9.171 -0.5443  0.3210 -2.1318
17509SOL     OW61304   8.511   1.151   6.050 -0.7067  0.2490  0.4452
17509SOL    HW161305   8.455   1.117   5.980  0.1583 -0.3063 -0.0013
17509SOL    HW261306   8.544   1.073   6.094 -0.2041  0.5616  0.6299
17510SOL     OW61307  10.924   5.190   9.846 -0.3964 -0.3357  0.3651
17510SOL    HW161308  11.007   5.145   9.831 -0.5614  0.1489 -2.4301
17510SOL    HW261309  10.949   5.274   9.885  0.8144  1.0384 -3.0254
17511SOL     OW61310   8.268   6.521  11.714 -0.4018 -0.2156 -0.4524
17511SOL    HW161311   8.186   6.554  11.680 -1.1746 -1.5154  0.0839
17511SOL    HW261312   8.298   6.458  11.649  1.2736  1.6828 -1.6739
17512SOL     OW61313   6.243  11.627   7.938  0.1256  0.0467  0.3285
17512SOL    HW161314   6.295  11.554   7.905  1.1573 -0.1573  2.2616
17512SOL    HW261315   6.301  11.703   7.928  0.3951  0.0073  1.4441
17513SOL     OW61316   3.374   1.548  11.910  0.0710  0.3063 -0.7494
17513SOL    HW161317   3.423   1.470  11.883  0.5739  0.5834 -0.6455
17513SOL    HW261318   3.282   1.521  11.904  0.2487 -0.7509  0.5580
17514SOL     OW61319  11.409   2.624  11.740 -0.1017 -0.3817  0.5165
17514SOL    HW161320  11.323   2.654  11.711 -0.0954  0.6800  1.5107
17514SOL    HW261321  11.466   2.700  11.730  0.8910 -1.2519 -0.7223
17515SOL     OW61322   3.784   8.231  12.041 -0.3065 -0.5540 -0.1857
17515SOL    HW161323   3.863   8.178  12.028  0.2034  0.4070 -1.1929
17515SOL    HW261324   3.740   8.191  12.116  1.0191 -1.2481  0.2516
17516SOL     OW61325   4.585  12.128   4.070 -0.5699  0.1794  0.0744
17516SOL    HW161326   4.490  12.133   4.064 -0.9173 -1.6680  2.5237
17516SOL    HW261327   4.605  12.142   4.162  1.3516 -1.1257 -0.0640
17517SOL     OW61328   3.268  10.264  11.432  0.0511  0.1902 -0.3673
17517SOL    HW161329   3.321  10.342  11.449 -0.5404  0.6368 -0.5228
17517SOL    HW261330   3.290  10.238  11.343 -0.9884  1.2057 -0.9618
17518SOL     OW61331   9.949   7.904   7.838  0.8589 -0.3205  0.3008
17518SOL    HW161332   9.976   7.824   7.794 -1.3913 -0.9729 -0.0306
17518SOL    HW261333   9.855   7.892   7.854  0.9891  1.1421  2.6179
17519SOL     OW61334   9.149   5.935   3.919 -0.0940 -0.0930 -0.4357
17519SOL    HW161335   9.059   5.966   3.921 -0.1449 -0.2552 -0.1232
17519SOL    HW261336   9.201   6.010   3.951  0.0648  0.5948 -2.2120
17520SOL     OW61337   4.912   5.484   8.544 -0.4561  0.1077  0.0320
17520SOL    HW161338   4.887   5.574   8.523 -0.7088 -0.3689 -1.9240
17520SOL    HW261339   5.005   5.480   8.525 -0.7769 -0.4510 -1.5850
17521SOL     OW61340   3.718   6.323  12.302  0.4843 -0.5053  0.3075
17521SOL    HW161341   3.697   6.344  12.393 -0.1780 -0.4916  0.1606
17521SOL    HW261342   3.787   6.257  12.308 -0.5834 -1.6270  0.8683
17522SOL     OW61343   5.441   2.511   7.486 -0.3562 -0.0068 -0.4612
17522SOL    HW161344   5.392   2.429   7.475 -0.5003  0.1425 -1.0055
17522SOL    HW261345   5.421   2.561   7.406  0.7273  0.0360 -0.7182
17523SOL     OW61346   1.751   4.023   0.261  0.0177  0.3705 -0.3052
17523SOL    HW161347   1.698   3.976   0.196  1.9625 -1.1030 -0.9553
17523SOL    HW261348   1.690   4.081   0.305 -2.5515 -2.5405  0.3160
17524SOL     OW61349   4.190   2.254   3.553  0.2360 -0.0301  0.0294
17524SOL    HW161350   4.131   2.244   3.628  0.6073  0.1805  0.3538
17524SOL    HW261351   4.160   2.333   3.509  0.3340  0.1261  0.2452
17525SOL     OW61352   2.852   2.393   4.233  0.3035  0.1791  0.2558
17525SOL    HW161353   2.864   2.299   4.249 -0.9482  0.2147  1.5338
17525SOL    HW261354   2.761   2.401   4.204  0.2487  1.0686  0.6417
17526SOL     OW61355   3.113   1.987   6.321  0.1362  0.0876  0.1154
17526SOL    HW161356   3.058   1.949   6.253  0.0224  1.9622 -0.9313
17526SOL    HW261357   3.135   1.914   6.379 -0.2581 -1.4571 -1.5935
17527SOL     OW61358   3.981   9.688   1.970 -0.0712  0.0153  0.1157
17527SOL    HW161359   4.019   9.682   2.057 -2.0163  0.0218  1.0076
17527SOL    HW261360   3.978   9.597   1.939 -1.1817 -0.2220  0.8814
17528SOL     OW61361   4.974   5.610  11.981 -0.6584 -0.4074  0.2335
17528SOL    HW161362   5.044   5.641  12.039 -0.4162  0.7730 -0.6562
17528SOL    HW261363   4.924   5.689  11.960 -1.2343 -0.9594 -0.5018
17529SOL     OW61364   4.444  10.878  11.041 -0.2730  0.1603  0.1120
17529SOL    HW161365   4.500  10.939  11.089 -0.5258 -0.7849  1.6839
17529SOL    HW261366   4.451  10.905  10.949  1.7918  0.8110  0.4234
17530SOL     OW61367   7.108  10.843  11.199  0.5248 -0.1494 -0.0673
17530SOL    HW161368   7.082  10.859  11.290  1.2162  0.9388 -0.0426
17530SOL    HW261369   7.062  10.762  11.175  1.5126 -1.3210  1.7201
17531SOL     OW61370   1.022   2.442   7.020 -0.2123  0.1847  0.4105
17531SOL    HW161371   1.062   2.389   6.951  1.2817 -0.0948  1.4317
17531SOL    HW261372   0.999   2.524   6.977  1.5883  0.3932 -0.2367
17532SOL     OW61373   5.068   7.782   0.188 -0.0214 -0.0288 -0.0419
17532SOL    HW161374   4.998   7.841   0.161  0.1009  0.8082  1.3667
17532SOL    HW261375   5.050   7.700   0.141 -2.5844 -0.2157  1.0722
17533SOL     OW61376   5.408  11.920   7.151  0.0434  0.1732 -0.6764
17533SOL    HW161377   5.457  11.840   7.128 -0.7013  0.1746 -2.3941
17533SOL    HW261378   5.318  11.889   7.166  0.3232  0.2844  1.7230
17534SOL     OW61379   0.194   9.615   3.494  0.6360 -0.4138  0.7303
17534SOL    HW161380   0.230   9.685   3.550  0.9535  0.2809 -0.3161
17534SOL    HW261381   0.236   9.628   3.410  0.2813 -1.5549  0.3609
17535SOL     OW61382  11.733  11.334   1.789 -0.2063 -0.0955 -0.3697
17535SOL    HW161383  11.819  11.377   1.787 -0.3261  0.1576 -0.1087
17535SOL    HW261384  11.720  11.302   1.700  0.2535 -0.3227 -0.3572
17536SOL     OW61385   4.283   7.112   3.916 -0.0073 -0.0329 -0.1344
17536SOL    HW161386   4.288   7.046   3.985 -0.7696 -1.2896 -1.2369
17536SOL    HW261387   4.349   7.086   3.852  0.8191  1.2246  0.1613
17537SOL     OW61388   0.888  10.956   4.300 -0.7817 -0.0076 -0.1827
17537SOL    HW161389   0.930  10.970   4.215 -1.4284  0.6800 -0.4008
17537SOL    HW261390   0.869  11.044   4.331 -3.8710 -0.2668 -1.0113
17538SOL     OW61391   2.682   8.091   6.316  0.0282 -0.6479  0.3304
17538SOL    HW161392   2.732   8.018   6.352  2.7682  0.0149 -1.8109
17538SOL    HW261393   2.730   8.118   6.238 -0.5210  3.7896  1.2284
17539SOL     OW61394   5.461   5.902   1.872  0.1692 -0.0384  0.3725
17539SOL    HW161395   5.509   5.979   1.904  0.9399 -0.4768  0.3111
17539SOL    HW261396   5.380   5.901   1.923  0.9478 -0.1793  1.6470
17540SOL     OW61397   1.548   2.031   6.932 -0.2157 -0.3003 -0.1284
17540SOL    HW161398   1.512   2.009   7.018 -0.3705  2.0846  0.4826
17540SOL    HW261399   1.589   2.116   6.944 -0.3009  0.1364 -2.4573
17541SOL     OW61400   4.953   9.216   4.849  0.1327  0.0109  0.7282
17541SOL    HW161401   4.971   9.251   4.762  1.2146  0.5556  1.1514
17541SOL    HW261402   4.968   9.122   4.841  1.0535  0.1728  0.5248
17542SOL     OW61403   9.413   8.584  10.128  0.2787  0.0678  0.5058
17542SOL    HW161404   9.484   8.623  10.179  0.6307  1.8665 -1.2273
17542SOL    HW261405   9.452   8.506  10.088  1.0163  0.5344  0.3008
17543SOL     OW61406  12.458   9.584  10.397  0.2541 -0.1187 -0.7002
17543SOL    HW161407  12.505   9.526  10.457  1.0811 -0.0897 -1.3011
17543SOL    HW261408  12.376   9.538  10.379  1.1232 -1.3908 -1.5862
17544SOL     OW61409   0.695   5.853   5.331 -0.0931  0.4101 -0.6355
17544SOL    HW161410   0.775   5.839   5.382 -1.2420 -0.3084  1.0690
17544SOL    HW261411   0.644   5.773   5.344 -1.3750  1.1184 -1.1096
17545SOL     OW61412   1.221   4.743  10.542  0.0610 -0.0025 -0.6687
17545SOL    HW161413   1.254   4.706  10.461  0.9869 -1.2582  0.2492
17545SOL    HW261414   1.299   4.768  10.592 -0.5083  1.7380 -0.5733
17546SOL     OW61415   4.274  11.837   3.837 -0.4135  0.4002 -0.0663
17546SOL    HW161416   4.327  11.815   3.914  0.1277  3.4898  0.5756
17546SOL    HW261417   4.325  11.805   3.763  1.2491  1.2151  0.6724
17547SOL     OW61418  10.349   9.245   3.521  0.3587  0.1446  0.0626
17547SOL    HW161419  10.383   9.172   3.573 -0.2757 -0.7192 -0.7014
17547SOL    HW261420  10.424   9.275   3.470  0.7549  0.3885  0.7704
17548SOL     OW61421   0.987   5.937   7.755  0.2253 -0.2828  0.4391
17548SOL    HW161422   0.989   5.884   7.675  1.4291 -0.6415  0.6748
17548SOL    HW261423   1.029   5.881   7.821 -1.4566 -0.3129  1.5388
17549SOL     OW61424   5.912   6.022   4.806  0.2485 -0.2617 -0.0256
17549SOL    HW161425   5.870   5.985   4.728 -1.7279 -0.0142  0.8652
17549SOL    HW261426   5.922   6.115   4.786 -0.8379 -0.0794  0.2384
17550SOL     OW61427   2.667   2.277   1.612 -0.1414 -0.0784 -0.0600
17550SOL    HW161428   2.608   2.316   1.676 -0.7097 -0.8587 -0.1027
17550SOL    HW261429   2.736   2.343   1.599 -0.3938  0.3630  0.8296
17551SOL     OW61430   6.727   0.377   8.261  0.0566  0.0988  0.2136
17551SOL    HW161431   6.633   0.359   8.255 -0.2505  1.7477 -0.3200
17551SOL    HW261432   6.755   0.389   8.171  0.8903 -0.7696  0.3374
17552SOL     OW61433   4.946   2.912  11.469  0.7200  0.2199  0.2170
17552SOL    HW161434   4.937   2.841  11.533 -0.5412  0.1380 -0.0300
17552SOL    HW261435   5.019   2.885  11.413  0.0607 -1.0439 -0.0662
17553SOL     OW61436   4.702   3.885   9.096 -0.0743 -0.5035  0.2439
17553SOL    HW161437   4.706   3.825   9.170  1.2783  0.2059  0.7855
17553SOL    HW261438   4.673   3.968   9.134 -1.5303 -0.6901 -0.4248
17554SOL     OW61439   4.547   8.097   3.198 -0.2653 -0.0156  0.0359
17554SOL    HW161440   4.558   8.158   3.271  1.1642  2.6563 -2.2259
17554SOL    HW261441   4.461   8.120   3.161 -1.0131 -1.4065  0.8199
17555SOL     OW61442   4.562   1.344  10.956  0.0885  0.7456  0.0188
17555SOL    HW161443   4.508   1.421  10.940  1.0284  1.2546 -0.7540
17555SOL    HW261444   4.633   1.350  10.892 -0.7883 -1.7042 -1.3068
17556SOL     OW61445   4.464   3.114   4.131  0.5938  0.3188 -0.3499
17556SOL    HW161446   4.425   3.131   4.216 -2.3226  1.9120 -1.8759
17556SOL    HW261447   4.435   3.026   4.108  1.5353 -0.1866  0.3146
17557SOL     OW61448  12.344  10.372   2.978 -0.2500 -0.0203  1.1881
17557SOL    HW161449  12.261  10.388   3.022 -0.6707 -0.9430  0.7424
17557SOL    HW261450  12.343  10.431   2.903 -1.2028 -1.1016  0.3133
17558SOL     OW61451   9.155  10.600   0.616 -0.3039  0.4733  0.8674
17558SOL    HW161452   9.245  10.621   0.642  0.0125  0.4122 -0.1478
17558SOL    HW261453   9.112  10.685   0.609  0.1332  0.6226 -0.2285
17559SOL     OW61454   1.659   7.094   1.677  0.1823  0.1331 -0.2764
17559SOL    HW161455   1.615   7.015   1.710 -0.2416  0.6212  0.3569
17559SOL    HW261456   1.710   7.063   1.602  1.5760 -1.1390  1.1051
17560SOL     OW61457   3.956   1.405   2.915  0.1646 -0.1184 -0.0075
17560SOL    HW161458   3.910   1.463   2.975  0.5509 -0.2607  0.4320
17560SOL    HW261459   4.049   1.422   2.931  0.2746  0.4979 -1.2075
17561SOL     OW61460   8.084   5.538  12.261 -0.3653 -0.1966 -0.0295
17561SOL    HW161461   8.049   5.460  12.303 -0.5703 -0.0832  0.0113
17561SOL    HW261462   8.084   5.605  12.330  0.1665 -0.2646  0.0377
17562SOL     OW61463   2.774   6.392  10.582  0.3744 -0.3700  0.5105
17562SOL    HW161464   2.729   6.440  10.512  0.9222  1.3667  1.3015
17562SOL    HW261465   2.727   6.309  10.587 -0.3660 -0.1012 -1.1831
17563SOL     OW61466   3.064   1.184   8.167 -0.6101 -0.5142 -0.0174
17563SOL    HW161467   2.997   1.240   8.206  0.1571 -1.0657  2.2145
17563SOL    HW261468   3.016   1.129   8.105 -1.9956 -0.0151  0.5703
17564SOL     OW61469  11.601   0.368   0.958 -0.1579 -0.1479  0.3635
17564SOL    HW161470  11.654   0.339   0.884  0.5710  3.7391 -0.8532
17564SOL    HW261471  11.521   0.401   0.918 -1.0211 -0.6220  1.6413
17565SOL     OW61472  11.389   3.969  10.901  0.7605 -0.3205 -0.3012
17565SOL    HW161473  11.481   3.993  10.910  0.6548 -0.0298  0.0138
17565SOL    HW261474  11.354   4.031  10.837  0.3781  0.7015  0.8449
17566SOL     OW61475   6.227   7.891   0.830 -0.1007 -0.0359 -0.2878
17566SOL    HW161476   6.230   7.924   0.919 -0.7830  2.2034 -1.0224
17566SOL    HW261477   6.315   7.906   0.795 -0.6114  1.8675 -0.8595
17567SOL     OW61478   6.288   0.518   1.975  0.1542 -0.3176  0.3257
17567SOL    HW161479   6.219   0.453   1.967  0.3544 -0.5807  0.6980
17567SOL    HW261480   6.367   0.467   1.993  0.7205 -0.1345 -1.4843
17568SOL     OW61481   9.937   3.973  11.386 -0.3457  0.6436  0.3114
17568SOL    HW161482   9.846   4.002  11.375 -0.0425  2.0256  1.1787
17568SOL    HW261483   9.988   4.038  11.338  0.2508  0.5522  0.8155
17569SOL     OW61484   5.642   0.165   1.556 -0.2449 -0.5110 -0.1979
17569SOL    HW161485   5.550   0.142   1.541 -0.6954  0.5793  0.7279
17569SOL    HW261486   5.650   0.172   1.651  0.7136 -0.2553 -0.2832
17570SOL     OW61487   0.667   0.353   6.996  0.6752  0.9575  0.2030
17570SOL    HW161488   0.718   0.351   7.077 -0.4983  0.9690  0.9651
17570SOL    HW261489   0.644   0.261   6.980 -0.6098  1.1357  0.8950
17571SOL     OW61490   4.650   4.082   1.186  0.3054 -0.0596 -0.4758
17571SOL    HW161491   4.571   4.135   1.172 -0.0688  0.1915  2.0967
17571SOL    HW261492   4.626   3.995   1.156 -0.4250  0.3303 -1.0834
17572SOL     OW61493   9.736  10.533  11.295 -0.0859  0.1796  0.2533
17572SOL    HW161494   9.656  10.562  11.252  0.4226  1.1079 -0.0895
17572SOL    HW261495   9.743  10.588  11.373  0.4828  0.4564  0.0105
17573SOL     OW61496   6.186   6.427   6.322 -0.5774 -0.1545  0.4789
17573SOL    HW161497   6.229   6.404   6.405  0.6135 -1.5965 -0.4725
17573SOL    HW261498   6.231   6.505   6.292 -0.2714 -0.2606  0.6616
17574SOL     OW61499   9.483   9.899   8.663 -0.0849 -0.0577  0.0990
17574SOL    HW161500   9.560   9.951   8.640  0.7012 -0.1435  2.3064
17574SOL    HW261501   9.443   9.946   8.736 -3.0401  0.7704 -1.8560
17575SOL     OW61502   1.717  10.067   9.758  0.7206  0.3540  0.0127
17575SOL    HW161503   1.625  10.091   9.770  1.0870  1.6457  0.4842
17575SOL    HW261504   1.741  10.024   9.840  0.5111 -0.0660 -0.1464
17576SOL     OW61505   3.431   1.464  10.965 -0.3661  0.0563  0.0089
17576SOL    HW161506   3.376   1.531  10.925  1.1995  2.2396  1.2772
17576SOL    HW261507   3.515   1.472  10.918 -0.3905 -1.6269 -0.3662
17577SOL     OW61508  12.054   8.831   7.447 -0.2355  0.4631 -0.2412
17577SOL    HW161509  11.960   8.849   7.443 -0.1028  1.0810 -0.7476
17577SOL    HW261510  12.068   8.798   7.536 -0.9008  0.5420 -0.1021
17578SOL     OW61511   5.997   4.447  11.073 -0.2584  0.6172  0.4708
17578SOL    HW161512   5.973   4.356  11.092  0.2256  0.4154  0.1342
17578SOL    HW261513   5.954   4.497  11.142 -2.9743  0.4525 -0.9687
17579SOL     OW61514  12.314   8.351   3.404 -0.4757  0.0079  0.5217
17579SOL    HW161515  12.370   8.300   3.462 -1.1052 -0.1230  1.0348
17579SOL    HW261516  12.359   8.351   3.320  0.2058 -0.2287  0.8776
17580SOL     OW61517   5.538  12.288   0.205  0.3710 -0.1461  0.1628
17580SOL    HW161518   5.457  12.239   0.215 -0.1866  0.6272 -0.4988
17580SOL    HW261519   5.535  12.323   0.116  1.6838 -0.5591 -0.0697
17581SOL     OW61520   9.943  11.139  11.388 -0.4478  1.1386 -0.1933
17581SOL    HW161521   9.903  11.140  11.301  0.8675 -1.1870 -0.9416
17581SOL    HW261522   9.891  11.076  11.437  0.7521 -0.0964 -0.4277
17582SOL     OW61523   9.191   6.063  11.772  0.2154  0.2532 -0.6172
17582SOL    HW161524   9.267   6.070  11.715  0.6611 -0.0125 -0.0605
17582SOL    HW261525   9.119   6.042  11.712  0.8140 -0.8086 -0.9909
17583SOL     OW61526  11.236   2.699   2.301 -0.4054 -0.6195 -0.5629
17583SOL    HW161527  11.180   2.763   2.258  1.1236  0.2178 -1.4126
17583SOL    HW261528  11.186   2.669   2.377 -1.2474  1.4471 -0.2532
17584SOL     OW61529   0.804   8.473   0.898 -0.9001 -0.5556  0.1209
17584SOL    HW161530   0.773   8.415   0.829 -1.3392  1.5928 -1.5677
17584SOL    HW261531   0.725   8.497   0.946 -0.7791 -0.9176  0.5166
17585SOL     OW61532   3.961   5.630   1.674 -0.5371 -0.5607  0.0279
17585SOL    HW161533   3.919   5.681   1.743 -0.8342 -1.4819  0.5416
17585SOL    HW261534   3.889   5.588   1.627 -0.2579 -1.7245  0.5866
17586SOL     OW61535   5.952   1.316   0.485  0.4063  0.4963  0.1838
17586SOL    HW161536   5.889   1.293   0.553  1.9009 -0.0168  1.4601
17586SOL    HW261537   5.963   1.235   0.434  0.2950  0.4853  0.1775
17587SOL     OW61538  11.769   7.512   6.747  0.6344  0.5641  0.2254
17587SOL    HW161539  11.732   7.548   6.666  2.7704  1.6365 -0.3793
17587SOL    HW261540  11.835   7.577   6.773  1.7839 -1.0002  1.4007
17588SOL     OW61541   7.250   1.796   6.692  0.3054  0.0275 -0.2291
17588SOL    HW161542   7.179   1.848   6.654  1.0140  1.2551  0.0646
17588SOL    HW261543   7.266   1.836   6.777 -0.4705 -1.9534  0.9120
17589SOL     OW61544   9.951   2.303   5.696  0.1512 -0.4640  0.2752
17589SOL    HW161545  10.013   2.238   5.663 -0.9118 -1.3597 -0.0052
17589SOL    HW261546   9.866   2.275   5.663 -0.3998  0.8303  0.5184
17590SOL     OW61547   1.042   3.139   6.009  0.1916 -0.2652 -0.2868
17590SOL    HW161548   1.030   3.133   5.915  0.7859 -1.9412 -0.2869
17590SOL    HW261549   0.987   3.070   6.046 -0.1556  0.4684  0.6082
17591SOL     OW61550   6.415  10.214  10.391  0.2198  0.1502  0.1146
17591SOL    HW161551   6.417  10.310  10.389 -0.8390  0.1761 -1.6129
17591SOL    HW261552   6.507  10.189  10.395  0.6060  1.2519 -1.0238
17592SOL     OW61553   2.876   7.811   8.825 -0.2195  0.2380  0.5444
17592SOL    HW161554   2.892   7.811   8.920  1.5617 -0.1455  0.2912
17592SOL    HW261555   2.806   7.875   8.813  0.6679  1.5751  1.9719
17593SOL     OW61556  11.405   6.259   5.243  0.0531  0.6684  0.1280
17593SOL    HW161557  11.475   6.324   5.237  0.0941  0.6065 -0.0967
17593SOL    HW261558  11.336   6.303   5.293  0.7042  0.3185  1.3670
17594SOL     OW61559  11.512  12.296   7.390  0.1557 -0.0195 -0.1783
17594SOL    HW161560  11.599  12.277   7.354 -0.0912 -0.8839 -0.3549
17594SOL    HW261561  11.507  12.391   7.391  1.0510  0.0416 -0.3000
17595SOL     OW61562   6.810   8.653   6.381  0.1537  0.2491 -0.7409
17595SOL    HW161563   6.859   8.619   6.455  0.7192 -0.5994 -1.4779
17595SOL    HW261564   6.734   8.697   6.420  0.0964 -0.7340  0.3095
17596SOL     OW61565   8.768   7.767   0.533 -0.5046 -0.2652  0.5284
17596SOL    HW161566   8.797   7.756   0.624 -0.5427  2.1428  0.8795
17596SOL    HW261567   8.673   7.764   0.538 -0.4967 -0.7974  0.4491
17597SOL     OW61568   2.324   9.739  11.229 -0.0558 -0.2051 -0.1660
17597SOL    HW161569   2.326   9.749  11.324  0.9271  0.5890 -0.2616
17597SOL    HW261570   2.233   9.761  11.205 -0.1120  0.3408  0.5117
17598SOL     OW61571   7.299   1.838   5.692 -0.5147 -0.1932 -0.3646
17598SOL    HW161572   7.368   1.783   5.654 -1.7163 -2.3295  0.3768
17598SOL    HW261573   7.219   1.813   5.645 -0.9871  1.5412 -0.5549
17599SOL     OW61574  11.293   6.710   8.983  0.1261  0.0431  0.3821
17599SOL    HW161575  11.230   6.666   8.925  1.1790 -1.4421  0.2951
17599SOL    HW261576  11.245   6.724   9.064  0.2878 -3.4424  1.2660
17600SOL     OW61577   6.182   6.564   3.603 -0.1996 -0.4598  0.3450
17600SOL    HW161578   6.100   6.541   3.647 -0.0903 -0.1733  0.7010
17600SOL    HW261579   6.155   6.602   3.520 -0.5482  1.9157  1.4514
17601SOL     OW61580   9.664   3.782  12.315 -0.5431  0.1475  0.0021
17601SOL    HW161581   9.655   3.864  12.265 -2.0904 -0.3891 -0.6822
17601SOL    HW261582   9.664   3.810  12.407 -0.7916  0.9515 -0.2288
17602SOL     OW61583  11.037   0.078   0.827 -0.3936 -0.3868 -0.3490
17602SOL    HW161584  10.982   0.040   0.758 -0.3163  0.5995 -0.9717
17602SOL    HW261585  11.109   0.121   0.780 -1.0538  1.4626  0.2317
17603SOL     OW61586  10.642   5.032   7.154  0.3312  0.1790 -0.2457
17603SOL    HW161587  10.721   5.001   7.109 -0.8446 -2.2619 -0.8432
17603SOL    HW261588  10.570   5.005   7.096 -1.0668 -0.1773  1.5616
17604SOL     OW61589   0.790   7.472   1.042 -0.1960  0.2137  0.3083
17604SOL    HW161590   0.817   7.467   0.950 -0.5677 -1.5816  0.2527
17604SOL    HW261591   0.695   7.487   1.038 -0.2633 -0.1702  0.3727
17605SOL     OW61592   2.760   2.849  10.581 -0.1908 -0.2113 -0.1073
17605SOL    HW161593   2.781   2.798  10.659  0.9220 -0.2603 -0.4349
17605SOL    HW261594   2.821   2.819  10.514 -0.5336  0.4715 -0.7506
17606SOL     OW61595   6.997   7.041   8.308 -0.0699 -0.0411 -0.6604
17606SOL    HW161596   6.986   7.112   8.371 -1.4058 -0.1606 -0.7481
17606SOL    HW261597   6.935   7.060   8.238  0.6648 -0.4743 -1.4528
17607SOL     OW61598   9.784   2.274   9.963 -0.0917  0.8032 -0.2432
17607SOL    HW161599   9.858   2.331   9.944  0.0603  0.2352 -1.4643
17607SOL    HW261600   9.736   2.318  10.033  0.6090  1.8793 -0.4288
17608SOL     OW61601  11.746   2.342   6.989 -0.4458 -0.0589 -0.5625
17608SOL    HW161602  11.704   2.317   6.907 -0.8765 -1.5303  0.0712
17608SOL    HW261603  11.752   2.260   7.038  0.4452  0.6714  0.5880
17609SOL     OW61604   8.036   1.523   4.322  0.1657  0.3764  0.2617
17609SOL    HW161605   8.016   1.599   4.267  0.3035  1.1274  1.2186
17609SOL    HW261606   7.952   1.498   4.360 -0.0075 -0.4205 -0.6194
17610SOL     OW61607   8.007   0.910   7.129 -0.5035  0.3386  0.6762
17610SOL    HW161608   8.011   0.832   7.073 -0.6989  0.2084  0.8408
17610SOL    HW261609   8.066   0.972   7.088 -1.2152  0.5233 -0.0966
17611SOL     OW61610  12.604  11.516   6.631 -0.0409 -0.1116 -0.1290
17611SOL    HW161611  12.630  11.602   6.663 -0.1989  0.7071 -2.0484
17611SOL    HW261612  12.574  11.469   6.709 -2.4060  2.4487  0.6575
17612SOL     OW61613   3.420  12.062   4.464 -0.0505  0.0789  0.5976
17612SOL    HW161614   3.474  12.061   4.384 -1.6452 -1.1073 -0.5217
17612SOL    HW261615   3.431  11.975   4.501 -0.7622  0.0155  0.6601
17613SOL     OW61616   4.632   7.401   4.011 -0.0385 -0.0015  0.2989
17613SOL    HW161617   4.606   7.314   4.041 -0.7729 -0.3132 -1.1691
17613SOL    HW261618   4.681   7.438   4.085 -1.1218 -1.0106  1.5717
17614SOL     OW61619   2.707   8.299  10.040  0.0248 -0.1589  0.4583
17614SOL    HW161620   2.721   8.280   9.947  1.1232  0.9753  0.3628
17614SOL    HW261621   2.623   8.258  10.061 -2.0543  2.4998 -1.9321
17615SOL     OW61622   7.937  11.532   5.777  0.0233 -0.4858  0.2270
17615SOL    HW161623   7.899  11.453   5.813 -0.3149 -0.6032 -0.3706
17615SOL    HW261624   8.025  11.536   5.816 -0.1411 -0.8812  0.6465
17616SOL     OW61625   5.863   4.368   9.431  0.4302 -0.4983  0.3374
17616SOL    HW161626   5.932   4.387   9.368 -1.1113  1.7470 -0.8154
17616SOL    HW261627   5.898   4.399   9.515  0.3019  2.2109 -0.5069
17617SOL     OW61628   0.527   4.586   3.045 -0.0633 -0.4782  0.0051
17617SOL    HW161629   0.472   4.639   3.102 -0.6586 -1.3573  0.2660
17617SOL    HW261630   0.512   4.496   3.074  0.5052 -0.8421 -0.7898
17618SOL     OW61631   4.972   1.236   7.848 -0.5822 -0.5477  0.0128
17618SOL    HW161632   5.034   1.287   7.796  0.0453 -0.2170  1.0484
17618SOL    HW261633   4.965   1.284   7.931 -0.6777 -1.6524  0.6712
17619SOL     OW61634   5.460   3.748   7.353  0.0911  0.0873  0.6774
17619SOL    HW161635   5.409   3.808   7.408 -0.8043  0.5271 -0.5794
17619SOL    HW261636   5.394   3.689   7.315  0.6680 -0.1385  0.0122
17620SOL     OW61637   3.475   1.954   0.703 -0.1345  0.3197 -0.1175
17620SOL    HW161638   3.433   1.881   0.748  1.3128 -1.4932 -1.5481
17620SOL    HW261639   3.418   1.973   0.629 -0.1186  0.1322 -0.1770
17621SOL     OW61640   6.926   4.517   8.305 -0.3412  0.0760  0.3408
17621SOL    HW161641   6.867   4.501   8.231 -1.9911  1.1354  1.3471
17621SOL    HW261642   6.899   4.454   8.371 -0.0094  0.2487  0.6420
17622SOL     OW61643   9.643  10.138   5.107 -0.6780 -0.0224  0.0156
17622SOL    HW161644   9.736  10.158   5.099 -0.2469 -0.5446  2.7291
17622SOL    HW261645   9.602  10.221   5.128 -0.7090  0.0444 -0.2971
17623SOL     OW61646   4.621  12.007  12.263  0.5107  0.1732 -0.0085
17623SOL    HW161647   4.535  11.996  12.303  0.2187  0.4279 -0.5637
17623SOL    HW261648   4.622  12.097  12.231  0.4438 -0.2454 -1.2466
17624SOL     OW61649   4.158   0.486   7.179 -0.3314 -1.0119 -0.0515
17624SOL    HW161650   4.231   0.438   7.140  0.4194 -0.3012  0.4462
17624SOL    HW261651   4.127   0.430   7.250 -0.0302 -1.1464 -0.0269
17625SOL     OW61652   4.628   0.102   1.186 -0.5271  0.8299  0.2833
17625SOL    HW161653   4.688   0.102   1.261 -0.9516 -0.4155  0.6373
17625SOL    HW261654   4.683   0.120   1.111  0.1161  0.7859  0.7388
17626SOL     OW61655   1.787  11.062   9.347  0.0389 -0.2332 -0.3254
17626SOL    HW161656   1.811  10.974   9.317 -0.0179 -0.8875  1.3966
17626SOL    HW261657   1.869  11.100   9.378 -0.2331 -0.5016  0.8083
17627SOL     OW61658  12.375  11.028   5.209  1.0539 -0.1397 -0.2055
17627SOL    HW161659  12.404  11.041   5.299  0.1998  1.3075 -0.1164
17627SOL    HW261660  12.352  11.115   5.178 -0.1799 -0.8093 -1.2911
17628SOL     OW61661   8.816  10.714   2.381  0.3227 -0.0502  1.4536
17628SOL    HW161662   8.747  10.648   2.386 -1.3588  1.1071 -2.4961
17628SOL    HW261663   8.893  10.667   2.350 -0.3936 -0.4833  0.2688
17629SOL     OW61664   8.302   3.446   8.296 -0.5774  0.2914  0.3664
17629SOL    HW161665   8.346   3.532   8.293 -1.7798  0.9107 -0.3495
17629SOL    HW261666   8.223   3.462   8.348 -2.1799  0.3199 -1.9403
17630SOL     OW61667   5.126   6.097   3.733 -0.0387 -0.0119  0.3921
17630SOL    HW161668   5.192   6.153   3.692 -0.2458 -1.2748 -1.8058
17630SOL    HW261669   5.044   6.120   3.690 -0.2688 -1.3457  0.0575
17631SOL     OW61670   3.925   2.381   1.265 -0.0587  0.3078  0.2054
17631SOL    HW161671   3.939   2.304   1.210 -2.5135 -1.1031  1.3674
17631SOL    HW261672   3.959   2.454   1.213  0.1112 -1.2593 -2.0379
17632SOL     OW61673   0.150  10.121  10.611 -0.2342  0.1337  0.2526
17632SOL    HW161674   0.235  10.164  10.599  1.6574 -2.8561  1.7425
17632SOL    HW261675   0.112  10.166  10.687  0.6533  0.6450  0.4115
17633SOL     OW61676   7.380   3.106   5.156 -0.2876  0.2379  0.3559
17633SOL    HW161677   7.326   3.149   5.091  0.8795 -0.8301 -1.4115
17633SOL    HW261678   7.447   3.170   5.179  0.5374 -0.0479 -1.1165
17634SOL     OW61679   0.069  11.704   4.726 -0.5259 -0.7123 -0.1313
17634SOL    HW161680   0.095  11.632   4.784  3.4665  1.5434  1.2533
17634SOL    HW261681   0.049  11.776   4.785  2.3373  1.2418 -1.3403
17635SOL     OW61682   2.458   5.721   2.061  0.1483 -0.1606  0.1760
17635SOL    HW161683   2.448   5.644   2.117  1.5777 -1.0681 -0.7462
17635SOL    HW261684   2.421   5.695   1.976  1.8260 -0.3404 -0.5372
17636SOL     OW61685   6.437   2.359   4.849 -0.0230 -0.1736  0.0954
17636SOL    HW161686   6.381   2.299   4.899 -2.5845  2.5998  0.8461
17636SOL    HW261687   6.394   2.367   4.764  0.1970  0.6548  0.0504
17637SOL     OW61688  11.278   0.568   6.794  0.0956  0.5295  0.1903
17637SOL    HW161689  11.265   0.522   6.711  0.7171 -0.1268  0.4382
17637SOL    HW261690  11.192   0.600   6.818 -0.5523 -1.2839  0.4428
17638SOL     OW61691  11.991   6.598   9.345  0.2288 -0.3010 -0.2333
17638SOL    HW161692  12.029   6.662   9.285 -0.9061 -0.2959 -0.9754
17638SOL    HW261693  11.939   6.540   9.289 -0.0421 -0.9078  0.6232
17639SOL     OW61694   6.600   0.051   8.772  0.2734  0.5089  0.2241
17639SOL    HW161695   6.544   0.096   8.708  0.4058  0.9915  0.4444
17639SOL    HW261696   6.653   0.121   8.811  1.4008 -0.0133 -0.3483
17640SOL     OW61697   4.138   0.134   5.428 -0.2145 -0.5008 -0.3404
17640SOL    HW161698   4.101   0.099   5.346 -2.7882  2.0025 -0.4075
17640SOL    HW261699   4.165   0.057   5.477 -1.4392 -2.2833 -2.3012
17641SOL     OW61700   6.917   5.333  11.821  0.3063  0.3941 -0.1506
17641SOL    HW161701   6.886   5.373  11.740 -3.2664 -0.1344  0.8154
17641SOL    HW261702   6.921   5.405  11.884 -1.1727  0.1351  0.2728
17642SOL     OW61703   3.928   7.344  10.623  0.6114 -0.8859 -0.5314
17642SOL    HW161704   3.861   7.336  10.556  1.0226 -0.2599 -1.0234
17642SOL    HW261705   3.879   7.357  10.705  0.1225  1.5999 -1.1364
17643SOL     OW61706   7.722  11.150   2.157  0.4225 -0.0396 -0.0373
17643SOL    HW161707   7.725  11.072   2.101  0.4257  0.5090 -0.8055
17643SOL    HW261708   7.773  11.215   2.110 -1.3830  1.1217 -0.4483
17644SOL     OW61709   3.499   5.322   1.286  0.2222 -0.0609  0.0542
17644SOL    HW161710   3.410   5.296   1.312  0.3824 -0.6903 -0.0329
17644SOL    HW261711   3.549   5.320   1.367  0.2179  0.0613  0.0607
17645SOL     OW61712   8.630  10.835   1.798 -0.6068 -0.1266  0.1555
17645SOL    HW161713   8.713  10.801   1.831  0.3811  2.9406  1.1823
17645SOL    HW261714   8.625  10.805   1.708  1.2008 -1.1049  0.3415
17646SOL     OW61715   4.651   3.011   4.865 -0.7156  0.1770  0.2066
17646SOL    HW161716   4.617   3.028   4.952 -0.9016 -0.3772  0.2439
17646SOL    HW261717   4.742   3.041   4.869 -0.8043  0.4151  0.5016
17647SOL     OW61718   3.204   9.664   4.698  0.9802 -0.0801  0.1454
17647SOL    HW161719   3.191   9.704   4.784  0.4133  0.1249 -0.0364
17647SOL    HW261720   3.256   9.585   4.716  1.4965  0.3543  0.5871
17648SOL     OW61721   5.337  11.591   8.998 -0.4289  0.0423  0.1526
17648SOL    HW161722   5.308  11.673   8.957  0.6584  2.0360  3.0292
17648SOL    HW261723   5.299  11.593   9.086 -0.1733 -2.4809  0.3943
17649SOL     OW61724  12.024   3.744   6.904  0.2948  0.0164  0.1487
17649SOL    HW161725  11.952   3.691   6.938 -0.0224 -0.7352 -1.5810
17649SOL    HW261726  12.002   3.834   6.929  0.7155 -0.5548  2.9187
17650SOL     OW61727   3.697   4.218   3.039  0.5449 -0.0247  0.1061
17650SOL    HW161728   3.610   4.252   3.020  0.2925 -0.4144  0.5326
17650SOL    HW261729   3.751   4.296   3.052  0.4072  0.2264 -0.7636
17651SOL     OW61730   0.898   9.492   5.850 -0.1952 -0.3258 -0.2180
17651SOL    HW161731   0.967   9.546   5.887  0.4171 -0.6364 -0.8760
17651SOL    HW261732   0.900   9.511   5.756 -0.6836 -0.6882 -0.3083
17652SOL     OW61733  11.383   6.021   0.641  0.0672 -0.1204 -0.6587
17652SOL    HW161734  11.302   6.072   0.642 -0.0602 -0.3219 -0.6378
17652SOL    HW261735  11.438   6.062   0.708 -0.2764 -0.4031 -0.2073
17653SOL     OW61736   3.428  11.402   8.961  0.5724  0.2799  0.3111
17653SOL    HW161737   3.411  11.388   9.054  0.9239  2.8789  0.8529
17653SOL    HW261738   3.478  11.325   8.934 -2.5401 -2.2784  1.3126
17654SOL     OW61739   0.956   2.269   9.836 -0.0230  0.3823  0.1939
17654SOL    HW161740   0.861   2.282   9.835 -0.0612  0.1583  0.6605
17654SOL    HW261741   0.968   2.178   9.808  0.1051  0.6750 -0.7163
17655SOL     OW61742   8.033   0.941   9.426  0.2252 -0.4977  0.1345
17655SOL    HW161743   7.966   1.000   9.393  0.6717  0.0115  0.1261
17655SOL    HW261744   8.104   0.947   9.362  1.4839  1.1891  1.5760
17656SOL     OW61745   5.664   4.896   6.803  0.4185 -0.4253 -0.1590
17656SOL    HW161746   5.711   4.978   6.799 -0.2760 -0.0183 -0.1574
17656SOL    HW261747   5.701   4.844   6.731  0.3435  0.1759 -0.6454
17657SOL     OW61748   6.662   9.214   2.408 -0.7388  0.4766 -0.2510
17657SOL    HW161749   6.726   9.152   2.443  0.3431  1.7280  0.0294
17657SOL    HW261750   6.613   9.162   2.344 -1.2616 -1.2364  1.4222
17658SOL     OW61751   8.193   3.875   1.144 -0.2643 -0.5106 -0.0596
17658SOL    HW161752   8.274   3.831   1.172  0.6694  1.4954  0.5363
17658SOL    HW261753   8.216   3.920   1.063 -1.4261 -1.6773 -1.0925
17659SOL     OW61754   3.759  12.209   3.569  0.6464 -0.4126  0.1336
17659SOL    HW161755   3.805  12.245   3.644  3.2226 -1.0804 -1.0333
17659SOL    HW261756   3.701  12.142   3.606 -0.7400  1.5514  1.8035
17660SOL     OW61757  11.802   6.543   8.472  0.2027 -0.1088  0.0861
17660SOL    HW161758  11.855   6.564   8.394  2.3031 -1.9592  0.8933
17660SOL    HW261759  11.855   6.572   8.546 -0.8551 -0.1743  0.8994
17661SOL     OW61760   9.854   4.136   9.993 -0.5797 -0.3501  0.1517
17661SOL    HW161761   9.915   4.084   9.940  0.4624 -1.1268  2.0278
17661SOL    HW261762   9.850   4.221   9.950 -2.7926 -2.0045 -3.3974
17662SOL     OW61763   9.184   3.369   3.983  0.7992  0.0797  0.1004
17662SOL    HW161764   9.224   3.302   4.039 -0.7642 -0.8732  0.1517
17662SOL    HW261765   9.102   3.391   4.027  0.2773  0.4569 -1.0127
17663SOL     OW61766   3.744   4.323   8.464 -0.4801 -0.4054  0.2663
17663SOL    HW161767   3.828   4.363   8.485 -1.0419  2.3356 -1.9980
17663SOL    HW261768   3.758   4.280   8.380 -1.0530 -0.9118  0.4239
17664SOL     OW61769   5.203   2.018   5.696  0.0527 -0.4038 -0.0006
17664SOL    HW161770   5.181   1.955   5.627  1.4724  0.3161 -1.1573
17664SOL    HW261771   5.281   1.981   5.738  1.2067  0.7776 -1.0267
17665SOL     OW61772   7.595   9.013   1.651 -0.4615  0.0622  0.1149
17665SOL    HW161773   7.631   8.930   1.681  0.1072  0.7460  1.3911
17665SOL    HW261774   7.507   9.015   1.687 -1.2396 -0.8760 -1.6359
17666SOL     OW61775   4.426   7.467   4.310  0.5098  0.7251  0.0780
17666SOL    HW161776   4.333   7.492   4.303  0.4954  0.3996 -1.1316
17666SOL    HW261777   4.431   7.415   4.390 -0.9861 -1.8113 -1.3335
17667SOL     OW61778  10.949   7.675  12.097  0.5675  0.3575 -0.5430
17667SOL    HW161779  10.903   7.612  12.151  2.3049  0.5808  1.2942
17667SOL    HW261780  10.986   7.738  12.159 -1.0145  3.2077 -2.2614
17668SOL     OW61781   3.171   9.645  12.472  0.0991 -0.1399 -0.1017
17668SOL    HW161782   3.081   9.620  12.453  0.1511  0.0997 -0.6896
17668SOL    HW261783   3.188   9.719  12.414  0.6107 -0.0617  0.1457
17669SOL     OW61784   7.592   6.559   8.884  0.2810  0.4147 -0.1703
17669SOL    HW161785   7.512   6.507   8.889  0.2274  0.6176  1.7975
17669SOL    HW261786   7.561   6.649   8.873  0.3344  0.2649 -1.7993
17670SOL     OW61787   9.686   4.870  11.427 -0.2813 -0.7174  0.3225
17670SOL    HW161788   9.780   4.885  11.434 -0.3902  1.1262 -1.3342
17670SOL    HW261789   9.678   4.799  11.363 -0.0357 -0.3479 -0.1223
17671SOL     OW61790   1.684   0.577   7.917 -0.0936 -0.2862 -0.3512
17671SOL    HW161791   1.668   0.529   7.836  0.3900 -1.4941  0.2415
17671SOL    HW261792   1.602   0.621   7.936 -0.5964 -0.9837 -0.8615
17672SOL     OW61793   8.919  11.447  11.030 -0.1593  0.0424 -0.0581
17672SOL    HW161794   9.006  11.429  10.997  0.2372 -1.0877  1.4917
17672SOL    HW261795   8.881  11.509  10.967  0.8569 -1.2555 -2.0365
17673SOL     OW61796   7.757   1.095  11.647  0.7666  0.3630 -0.0756
17673SOL    HW161797   7.668   1.085  11.680  0.4245 -0.1274 -1.1102
17673SOL    HW261798   7.802   1.016  11.677  0.7888  0.4775  0.2043
17674SOL     OW61799  11.718   9.445   1.012  0.0614 -0.6389 -0.6963
17674SOL    HW161800  11.637   9.417   1.055 -0.7446  2.1054 -0.2876
17674SOL    HW261801  11.712   9.407   0.924 -1.8480 -0.2252 -0.7808
17675SOL     OW61802   7.851   3.717   2.901 -0.0621 -0.9418  0.3079
17675SOL    HW161803   7.944   3.695   2.904  0.6283  1.4726 -0.7584
17675SOL    HW261804   7.842   3.794   2.958 -1.4031 -1.1264  0.3809
17676SOL     OW61805   2.561   6.889   5.683 -0.3797 -0.4332  0.1750
17676SOL    HW161806   2.628   6.880   5.615 -1.4594 -1.2264 -0.8349
17676SOL    HW261807   2.591   6.834   5.754  0.8201  0.4840  0.4138
17677SOL     OW61808   8.647   1.492   8.504 -0.0445 -0.0454  0.1463
17677SOL    HW161809   8.662   1.456   8.417  0.0067  0.1247  0.0838
17677SOL    HW261810   8.558   1.528   8.501 -0.4188 -0.9270  0.4716
17678SOL     OW61811   3.281   3.534   1.591  0.6271  0.2714  0.0475
17678SOL    HW161812   3.242   3.472   1.653 -0.8102  0.7109 -0.3683
17678SOL    HW261813   3.218   3.537   1.518  1.4364  1.0531 -0.6404
17679SOL     OW61814   7.835   7.629   4.083  0.1151  0.0698  0.3178
17679SOL    HW161815   7.924   7.621   4.117  0.9962  3.5392 -0.7741
17679SOL    HW261816   7.846   7.643   3.989 -1.5705  0.7472  0.1834
17680SOL     OW61817  10.429   2.033   3.689  0.1860 -0.3715 -0.7415
17680SOL    HW161818  10.433   2.084   3.608  0.1624  0.5859 -0.1609
17680SOL    HW261819  10.486   1.958   3.674  1.5411  0.6894 -1.0535
17681SOL     OW61820   6.291   6.154  12.582  0.6851 -0.7883 -0.4088
17681SOL    HW161821   6.297   6.224  12.646  3.1135 -0.4249 -0.9464
17681SOL    HW261822   6.309   6.074  12.632  0.3882 -0.7619 -0.2553
17682SOL     OW61823   1.672   9.975  11.295  0.1234 -0.0101 -0.3831
17682SOL    HW161824   1.717   9.896  11.265 -0.0719 -0.2351 -0.0870
17682SOL    HW261825   1.628   9.948  11.375  0.9005  0.6707  0.2900
17683SOL     OW61826   9.260   9.888   7.632 -0.3449  0.1565  0.0189
17683SOL    HW161827   9.303   9.806   7.607  0.4919  0.1095  1.4967
17683SOL    HW261828   9.174   9.884   7.589  0.0932 -0.9851 -0.8051
17684SOL     OW61829   3.476   9.585   9.319  0.1902  0.6311 -0.0023
17684SOL    HW161830   3.440   9.518   9.261  0.6891  0.8293 -0.5553
17684SOL    HW261831   3.500   9.537   9.398 -0.6545  0.3861  0.1131
17685SOL     OW61832   0.042   4.917   2.204 -0.8633  0.2064  0.2412
17685SOL    HW161833   0.041   4.945   2.296 -1.6254 -0.8294  0.5667
17685SOL    HW261834  -0.045   4.879   2.190 -0.8568  0.6141 -1.0058
17686SOL     OW61835   6.036   1.048   3.707  0.3814  0.2129  0.0807
17686SOL    HW161836   5.944   1.059   3.682 -0.2021 -1.1211  1.4463
17686SOL    HW261837   6.085   1.061   3.626 -1.1013 -0.0928 -0.9054
17687SOL     OW61838  11.515   4.105   3.513 -0.8295  0.0172  0.4942
17687SOL    HW161839  11.479   4.040   3.573 -1.6660  1.2576  1.3757
17687SOL    HW261840  11.488   4.189   3.549 -0.0258  0.8614 -0.7815
17688SOL     OW61841  11.883   0.043   8.733 -0.2148 -0.5472 -0.0049
17688SOL    HW161842  11.929  -0.039   8.713 -1.7490 -1.4306  0.0023
17688SOL    HW261843  11.795   0.016   8.758 -0.9146  1.1451 -0.5340
17689SOL     OW61844   8.441   2.987   0.844 -0.0008 -0.1395 -0.4392
17689SOL    HW161845   8.357   2.999   0.799  0.0151 -0.0692 -0.4512
17689SOL    HW261846   8.496   2.942   0.780  0.1696  0.3703 -0.6609
17690SOL     OW61847   0.994   5.767   7.005  0.0220  0.1159 -0.1094
17690SOL    HW161848   1.008   5.752   6.912 -0.5331 -0.5284 -0.0973
17690SOL    HW261849   0.899   5.777   7.014  0.0239 -0.2814  0.4410
17691SOL     OW61850   3.443  11.383  12.354  0.1336 -0.3254  0.5879
17691SOL    HW161851   3.504  11.319  12.315  1.7678  0.9073  1.0278
17691SOL    HW261852   3.445  11.457  12.294 -1.6111 -0.5703  0.1819
17692SOL     OW61853  12.159   8.236  11.636 -0.3281  0.0351  0.4882
17692SOL    HW161854  12.150   8.178  11.561 -1.9130 -0.7792  1.2587
17692SOL    HW261855  12.240   8.284  11.620 -1.5968  1.3821 -2.7706
17693SOL     OW61856   6.348   2.087   9.098  0.4882  0.7133  0.6311
17693SOL    HW161857   6.276   2.113   9.040  0.8220 -0.6154 -0.4531
17693SOL    HW261858   6.310   2.021   9.156  1.0572 -0.9658 -0.7986
17694SOL     OW61859   6.261   1.604   4.759 -0.3370 -0.2033  0.9707
17694SOL    HW161860   6.283   1.512   4.743  2.3439  0.3166  1.1465
17694SOL    HW261861   6.195   1.625   4.694  0.5460 -1.7091 -0.4896
17695SOL     OW61862  10.795  11.433   8.053  0.3017 -0.4492 -0.1053
17695SOL    HW161863  10.869  11.427   7.994 -1.6004 -2.6474 -2.4632
17695SOL    HW261864  10.828  11.402   8.137  2.2491 -0.4482 -0.8354
17696SOL     OW61865   4.557   5.012   2.514  0.1174 -0.1321  0.5059
17696SOL    HW161866   4.534   5.050   2.599  0.3168  0.0672  0.4703
17696SOL    HW261867   4.563   4.918   2.531 -1.3809 -0.2809  0.3753
17697SOL     OW61868   1.995   4.902  10.794  0.2759 -0.4179 -0.4589
17697SOL    HW161869   1.923   4.863  10.743 -0.6524 -1.1547  1.3137
17697SOL    HW261870   2.011   4.987  10.752 -2.3663  0.2395 -0.3097
17698SOL     OW61871   1.726  12.059   9.157 -0.2097  0.4664 -0.2938
17698SOL    HW161872   1.719  12.096   9.069 -1.0818  1.0332  0.0055
17698SOL    HW261873   1.765  12.129   9.209 -0.1304  0.2978 -0.1255
17699SOL     OW61874   7.342   6.143   0.329 -0.5452 -0.2911 -0.5589
17699SOL    HW161875   7.286   6.079   0.373  0.4663 -0.8289 -0.0264
17699SOL    HW261876   7.348   6.112   0.238 -2.5845  0.7867 -1.1344
17700SOL     OW61877  11.994   3.570   6.468  0.1328  0.1153  0.7591
17700SOL    HW161878  11.914   3.621   6.481 -0.0602  0.2442 -0.7733
17700SOL    HW261879  11.970   3.481   6.492 -0.6011  0.0767 -0.0842
17701SOL     OW61880   4.869   6.228   7.599 -0.6222 -0.2994 -0.0599
17701SOL    HW161881   4.796   6.185   7.643  0.0179 -0.4049  0.9177
17701SOL    HW261882   4.829   6.304   7.556 -0.9011  1.3733  2.9120
17702SOL     OW61883   9.229   9.312   4.109  0.2310 -0.0582 -0.2562
17702SOL    HW161884   9.214   9.218   4.103  1.4745 -0.4238  1.5186
17702SOL    HW261885   9.245   9.340   4.019  0.1900 -1.6102 -0.7643
17703SOL     OW61886   9.819  11.562   2.205 -0.6823  0.2420 -0.2037
17703SOL    HW161887   9.882  11.499   2.240  0.8777  0.6835 -2.0096
17703SOL    HW261888   9.812  11.540   2.112 -0.7749  2.1229 -0.6933
17704SOL     OW61889  10.295   4.870  12.300 -0.0595 -0.0562 -0.3860
17704SOL    HW161890  10.273   4.861  12.392  0.6826  0.0493 -0.1886
17704SOL    HW261891  10.223   4.829  12.253 -1.4285  1.6296  0.1625
17705SOL     OW61892   6.251   6.080  12.228 -0.4099  0.6176 -0.0699
17705SOL    HW161893   6.287   6.084  12.140 -0.8926 -0.3325 -0.3289
17705SOL    HW261894   6.286   6.157  12.273  1.6565 -0.0658 -0.4015
17706SOL     OW61895   8.020   4.766   3.539 -0.1882 -0.4027  0.3560
17706SOL    HW161896   8.098   4.711   3.527  0.4074  0.4863  0.1174
17706SOL    HW261897   7.956   4.729   3.479  0.1334 -0.9785  0.3587
17707SOL     OW61898   7.260   0.677   1.292 -0.0459  0.0158  0.0429
17707SOL    HW161899   7.250   0.717   1.206  0.2121 -1.9733 -0.9605
17707SOL    HW261900   7.232   0.586   1.280 -0.6698 -0.1380  2.2342
17708SOL     OW61901   6.019  12.451  10.127  0.4337  0.5169  0.2007
17708SOL    HW161902   5.965  12.383  10.087 -1.3652  1.9177  0.1205
17708SOL    HW261903   6.056  12.410  10.205  0.0731 -0.7855 -0.2882
17709SOL     OW61904   7.210   4.829   0.730 -0.1659  0.5201  0.1655
17709SOL    HW161905   7.184   4.901   0.788 -2.5443  0.0947 -0.2712
17709SOL    HW261906   7.208   4.868   0.642 -2.0534 -0.1515 -0.1359
17710SOL     OW61907   1.019   0.232   6.556  0.1000 -0.2218  0.4781
17710SOL    HW161908   1.115   0.239   6.559  0.0758 -0.2449  1.7155
17710SOL    HW261909   1.003   0.144   6.521  0.5055  0.1959 -0.8232
17711SOL     OW61910   5.796   0.934   5.037  0.4584 -0.3532  0.4003
17711SOL    HW161911   5.867   0.881   5.002  1.1333  0.4608  0.5068
17711SOL    HW261912   5.831   1.023   5.040 -0.7783  0.1750 -0.1236
17712SOL     OW61913   5.451   2.772  12.574  0.1044  0.3114  0.0196
17712SOL    HW161914   5.423   2.859  12.602 -0.3780 -0.1399  0.9784
17712SOL    HW261915   5.477   2.728  12.655  0.8645 -0.2623 -0.5207
17713SOL     OW61916   4.287  11.102  11.300  0.5594  0.4080  0.2664
17713SOL    HW161917   4.332  11.127  11.220  0.1381 -0.0158 -0.1060
17713SOL    HW261918   4.320  11.015  11.321 -1.0534 -0.5120 -0.7716
17714SOL     OW61919  11.723   2.632   5.922  0.0572  0.1836  0.0327
17714SOL    HW161920  11.775   2.627   5.842  1.0511 -2.6358  0.7442
17714SOL    HW261921  11.662   2.558   5.916 -0.4913  0.4803  1.4744
17715SOL     OW61922   8.258   1.881   2.002  0.4471  0.3789  0.5740
17715SOL    HW161923   8.247   1.817   2.071  1.0450 -0.1700  0.1782
17715SOL    HW261924   8.323   1.943   2.036 -0.9328  1.4269  1.3907
17716SOL     OW61925   6.645  10.584   9.075  0.3475 -0.2131  0.2942
17716SOL    HW161926   6.669  10.643   9.003  0.4062  0.0545  0.5303
17716SOL    HW261927   6.689  10.502   9.054 -1.1600 -0.7468 -0.9646
17717SOL     OW61928   4.628  11.843   4.575 -0.3310  0.5661  0.0015
17717SOL    HW161929   4.708  11.894   4.584 -0.2165  0.6420 -1.2366
17717SOL    HW261930   4.658  11.753   4.562 -0.4604  0.5282 -0.0401
17718SOL     OW61931   8.028   3.179   8.340  0.2380  0.0457  0.2910
17718SOL    HW161932   7.987   3.123   8.405  1.0362 -0.0310  0.7422
17718SOL    HW261933   8.120   3.151   8.339 -0.2535 -2.1059 -3.0433
17719SOL     OW61934   1.581   4.755  12.323  0.5181  0.1475  0.0347
17719SOL    HW161935   1.540   4.720  12.244  1.1114 -0.0484 -0.1917
17719SOL    HW261936   1.552   4.697  12.394 -1.6948  1.5086  0.3382
17720SOL     OW61937   0.049   5.317   3.524  0.4285 -0.0615  0.5227
17720SOL    HW161938   0.101   5.346   3.449 -1.2004 -0.1199 -0.6907
17720SOL    HW261939   0.101   5.248   3.564  0.7890 -0.9140 -1.3315
17721SOL     OW61940   4.071   5.076  11.394 -0.0400  0.3429 -0.1609
17721SOL    HW161941   4.112   5.143  11.449  0.2673  0.7227 -0.8358
17721SOL    HW261942   3.984   5.111  11.375 -0.5051 -0.2178  0.8316
17722SOL     OW61943   4.432   4.937   0.754 -0.0998  0.3418  0.0610
17722SOL    HW161944   4.443   4.852   0.796  1.3368  0.0493 -0.8165
17722SOL    HW261945   4.348   4.930   0.708  0.4715 -1.0101 -0.8519
17723SOL     OW61946   8.695  10.356   4.109  0.4345  0.7725 -0.0056
17723SOL    HW161947   8.615  10.338   4.159  0.9000 -1.1571  0.1152
17723SOL    HW261948   8.728  10.438   4.146 -0.2045  0.3331  1.6216
17724SOL     OW61949   8.888  12.441   4.285 -0.0154  0.4886 -0.2898
17724SOL    HW161950   8.915  12.393   4.363 -0.0795  1.1131  0.1184
17724SOL    HW261951   8.891  12.375   4.215  0.2213 -0.0296  0.1964
17725SOL     OW61952   5.298  12.372   6.379  0.0878  0.0576  0.2638
17725SOL    HW161953   5.388  12.359   6.408  0.3167 -0.8812 -0.8007
17725SOL    HW261954   5.252  12.292   6.405 -1.1003  1.4742  2.9800
17726SOL     OW61955  10.788   9.187   0.101 -0.6295 -0.3302  0.3666
17726SOL    HW161956  10.870   9.220   0.064 -0.2266 -0.9036  0.7328
17726SOL    HW261957  10.794   9.092   0.091  0.7141 -0.8327  4.2187
17727SOL     OW61958   3.797   2.546   2.687  0.2245 -0.0182 -0.5896
17727SOL    HW161959   3.806   2.467   2.633  0.8633 -0.1907 -0.2387
17727SOL    HW261960   3.887   2.570   2.710 -0.0409 -0.0343  0.5102
17728SOL     OW61961   7.750   6.531   4.148  0.3837 -0.4128 -0.3024
17728SOL    HW161962   7.785   6.449   4.114  1.0031  0.2039 -1.1930
17728SOL    HW261963   7.782   6.598   4.087 -2.1862  0.2271 -1.0652
17729SOL     OW61964   6.843   5.197   4.987 -0.2398 -0.1070  0.1844
17729SOL    HW161965   6.922   5.179   5.037  0.8898 -0.6055 -1.6636
17729SOL    HW261966   6.801   5.111   4.976 -0.8166  0.0901  0.7752
17730SOL     OW61967   3.257   5.391   2.333 -0.5891 -0.5200  0.4747
17730SOL    HW161968   3.318   5.464   2.338 -1.1779  0.0729 -0.6480
17730SOL    HW261969   3.177   5.424   2.374 -0.9530 -0.4297 -0.3017
17731SOL     OW61970   7.385   2.473   0.222  0.4058  0.5121  0.1591
17731SOL    HW161971   7.315   2.538   0.217  0.7310  0.7922 -1.2565
17731SOL    HW261972   7.371   2.429   0.306 -1.1428  0.9116  0.1398
17732SOL     OW61973   6.133  11.035   3.366  0.7187 -0.5533 -0.0762
17732SOL    HW161974   6.228  11.034   3.356  0.6158 -0.4572 -1.2464
17732SOL    HW261975   6.111  10.946   3.394  1.2592 -0.1949  1.6003
17733SOL     OW61976  12.088   6.365   1.634  0.6626  0.2528  0.1230
17733SOL    HW161977  12.174   6.354   1.675  0.7440 -0.0349 -0.1179
17733SOL    HW261978  12.083   6.294   1.571  0.6873  0.8895 -0.6149
17734SOL     OW61979   5.535   1.182   7.031  0.0021  0.0936  0.0348
17734SOL    HW161980   5.478   1.106   7.045 -3.1493  2.4896  1.5430
17734SOL    HW261981   5.560   1.176   6.939 -1.6683 -1.7974 -0.3617
17735SOL     OW61982   7.315   2.945  10.120  0.1537 -0.6947 -0.1440
17735SOL    HW161983   7.225   2.917  10.135 -0.0722 -0.9524 -1.8041
17735SOL    HW261984   7.323   3.027  10.167 -1.0450 -0.5212 -0.2167
17736SOL     OW61985   6.451   5.424   8.275  0.4145  0.2238  0.1922
17736SOL    HW161986   6.401   5.343   8.285 -1.5712  1.3067 -0.5625
17736SOL    HW261987   6.492   5.437   8.361 -1.5830 -0.1077  1.2612
17737SOL     OW61988  11.182   9.907   1.131 -0.0920 -0.1528  0.1075
17737SOL    HW161989  11.231   9.943   1.205  1.3066 -1.0356 -0.3381
17737SOL    HW261990  11.107   9.863   1.170  0.6702 -0.6738  1.0202
17738SOL     OW61991   7.553   3.542  11.157  0.5729 -0.1295  0.2453
17738SOL    HW161992   7.538   3.488  11.234  1.7372 -1.8886 -0.6772
17738SOL    HW261993   7.648   3.551  11.153  0.5922 -0.7521 -1.3856
17739SOL     OW61994   2.469   3.647   7.597 -0.8838  0.8035  0.4203
17739SOL    HW161995   2.432   3.735   7.598  0.3011  1.3416  1.5551
17739SOL    HW261996   2.397   3.590   7.624 -1.5640  1.4656  0.0432
17740SOL     OW61997   3.949   9.930  10.600 -0.1525 -0.1710 -0.7552
17740SOL    HW161998   4.027   9.956  10.552 -0.4827 -0.1209 -1.2746
17740SOL    HW261999   3.918   9.852  10.555 -0.2027 -0.3994 -0.3302
17741SOL     OW62000  11.155   3.479   7.247  0.8920  0.9061 -0.4134
17741SOL    HW162001  11.141   3.570   7.222  0.7127  1.3126  1.0386
17741SOL    HW262002  11.117   3.472   7.335 -0.8730 -1.0837 -1.2558
17742SOL     OW62003   5.205   6.514   9.645 -0.0426  0.6102 -0.5745
17742SOL    HW162004   5.171   6.602   9.664 -0.2298  0.7447 -1.5046
17742SOL    HW262005   5.215   6.474   9.731 -1.3333  1.0364 -0.2027
17743SOL     OW62006   5.615   4.792  12.416  0.3924  0.3248  0.2126
17743SOL    HW162007   5.604   4.829  12.329 -0.3066  0.6722  0.4406
17743SOL    HW262008   5.639   4.866  12.471 -1.8165  0.6562  0.8331
17744SOL     OW62009   4.884   3.005   2.084 -0.2860 -0.3853 -0.2112
17744SOL    HW162010   4.867   2.927   2.137  2.9295 -1.5909 -0.7360
17744SOL    HW262011   4.966   3.040   2.118 -0.7003  1.7070 -1.2302
17745SOL     OW62012   5.521   0.436   2.782  0.5348 -0.0427  0.0684
17745SOL    HW162013   5.438   0.459   2.823 -1.5028 -1.9892 -2.5773
17745SOL    HW262014   5.553   0.519   2.745  0.7611  1.0705  2.5553
17746SOL     OW62015   7.468   8.362   2.139  0.4388 -0.4011 -0.1826
17746SOL    HW162016   7.375   8.372   2.163  0.8675 -1.5165  2.2732
17746SOL    HW262017   7.468   8.292   2.074 -0.3795 -1.1929  0.6324
17747SOL     OW62018   5.387   6.676   5.291 -0.0418  0.0647 -0.1704
17747SOL    HW162019   5.328   6.650   5.362 -2.1159  0.3525 -1.7021
17747SOL    HW262020   5.405   6.594   5.244  2.9655 -0.5179  1.6986
17748SOL     OW62021   3.300   2.350  12.360 -0.2584 -0.1978 -0.5134
17748SOL    HW162022   3.208   2.375  12.355  0.1684  1.2564 -1.6096
17748SOL    HW262023   3.313   2.293  12.284 -0.1940 -0.2337 -0.4754
17749SOL     OW62024   3.277   3.942   8.321 -0.1617 -0.4780  0.1628
17749SOL    HW162025   3.361   3.910   8.288  0.4628  1.5728 -0.3709
17749SOL    HW262026   3.300   4.015   8.377 -1.5919  0.0594  0.0870
17750SOL     OW62027   0.150  11.230   3.520  0.1467 -0.0591  0.6025
17750SOL    HW162028   0.201  11.284   3.459  0.5420  0.0587  1.0279
17750SOL    HW262029   0.207  11.156   3.540  0.8449  0.8773  2.3247
17751SOL     OW62030   6.509   5.977   7.738  0.3299 -0.1122 -0.6088
17751SOL    HW162031   6.451   5.907   7.768  1.3136 -0.3533  0.7947
17751SOL    HW262032   6.587   5.932   7.707  1.0349  0.3394  0.4475
17752SOL     OW62033   0.911   3.800   3.412  0.0693 -0.2907  0.4965
17752SOL    HW162034   0.879   3.715   3.382  0.2904 -0.3453  0.4148
17752SOL    HW262035   0.832   3.848   3.436 -0.0462 -0.5780  0.6957
17753SOL     OW62036   4.909   4.479   4.945  0.2561 -0.1895 -0.3265
17753SOL    HW162037   4.950   4.405   4.900 -1.5880 -1.4742 -0.0286
17753SOL    HW262038   4.851   4.438   5.010  0.0431  1.5552  0.6464
17754SOL     OW62039   6.638   8.128   8.579 -0.0455  0.1023 -0.1375
17754SOL    HW162040   6.676   8.168   8.657 -0.9791  0.0424  0.3596
17754SOL    HW262041   6.680   8.043   8.573  0.7741  0.5019 -0.2880
17755SOL     OW62042   1.926   6.677   4.669 -0.2041 -0.2919 -0.0260
17755SOL    HW162043   2.002   6.663   4.612 -0.5899 -1.3750 -0.2931
17755SOL    HW262044   1.962   6.669   4.758 -0.0508 -1.0528 -0.1552
17756SOL     OW62045   0.593   6.491   0.834 -0.1585  0.4645 -0.0024
17756SOL    HW162046   0.505   6.457   0.821 -0.4213  1.1478 -0.0290
17756SOL    HW262047   0.624   6.447   0.913 -0.4860  0.1516 -0.0464
17757SOL     OW62048   8.594   0.354  12.494  0.1736 -0.2404 -0.1193
17757SOL    HW162049   8.524   0.313  12.543  2.4491 -1.4910  2.3490
17757SOL    HW262050   8.636   0.282  12.447  0.1819  0.3827 -1.1010
17758SOL     OW62051   7.639   2.940   3.884  0.0851 -0.3291 -0.0466
17758SOL    HW162052   7.657   3.017   3.830  0.5759 -1.0911 -1.0200
17758SOL    HW262053   7.712   2.880   3.865 -0.2140 -0.9727  0.7916
17759SOL     OW62054   9.405   2.499   1.189  0.2660  0.2009  0.2089
17759SOL    HW162055   9.404   2.409   1.222 -0.7381 -0.3097 -1.1516
17759SOL    HW262056   9.399   2.490   1.094 -0.8531  1.7229  0.0997
17760SOL     OW62057   4.271   8.172  10.660 -0.7667 -0.8633  0.2890
17760SOL    HW162058   4.364   8.192  10.649 -0.7948 -0.1950  1.1439
17760SOL    HW262059   4.228   8.218  10.588 -0.6409  0.7487  1.1773
17761SOL     OW62060   9.951  12.604   3.896 -0.4950  0.1444 -0.2435
17761SOL    HW162061  10.000  12.665   3.840  0.0583  1.0114  1.1214
17761SOL    HW262062   9.920  12.658   3.969 -2.2096 -0.7123 -0.2951
17762SOL     OW62063  10.188   4.025   9.550 -0.6571  0.2036 -0.6739
17762SOL    HW162064  10.268   4.028   9.498 -0.4236  0.3525 -0.3010
17762SOL    HW262065  10.151   3.938   9.531  0.0297 -0.2068 -0.1911
17763SOL     OW62066   8.768   1.237   3.617  0.5882  0.4220 -0.0257
17763SOL    HW162067   8.861   1.256   3.603  0.2997  1.4222 -0.7202
17763SOL    HW262068   8.760   1.144   3.599  1.0451  0.7868 -2.4343
17764SOL     OW62069  11.796   4.786   1.622  0.2490 -0.6612  0.0567
17764SOL    HW162070  11.788   4.879   1.603 -0.7713 -0.5774  0.7986
17764SOL    HW262071  11.710   4.750   1.599 -0.4661 -0.8481  2.7569
17765SOL     OW62072   4.866   5.344   2.909 -0.1272 -0.0760  0.0400
17765SOL    HW162073   4.847   5.422   2.856  1.2682 -0.3456 -0.9260
17765SOL    HW262074   4.780   5.307   2.928 -0.7447  0.8133 -0.8560
17766SOL     OW62075   2.631  11.669   3.317 -0.3004  0.0712  0.0940
17766SOL    HW162076   2.645  11.739   3.380 -0.5497  0.3726 -0.1827
17766SOL    HW262077   2.610  11.714   3.235  0.3238 -0.3085 -0.2796
17767SOL     OW62078   8.406   0.522   8.918 -0.2885 -0.3287  0.0654
17767SOL    HW162079   8.486   0.493   8.964  0.0368  0.9673  0.3607
17767SOL    HW262080   8.393   0.456   8.850  1.4709 -0.1914 -0.4697
17768SOL     OW62081   8.691   3.567   6.708 -0.1664  0.5855  0.1735
17768SOL    HW162082   8.720   3.529   6.626 -0.3109 -0.4325  0.5719
17768SOL    HW262083   8.758   3.631   6.731  1.1546 -0.8414  0.4667
17769SOL     OW62084   3.534   1.459   5.011 -0.1144 -0.0726 -0.0191
17769SOL    HW162085   3.590   1.395   4.967  0.0782  0.4916 -0.5988
17769SOL    HW262086   3.452   1.458   4.962 -0.5345 -0.6946  0.6631
17770SOL     OW62087  10.303  11.372   0.222  0.3002 -0.7420  0.2279
17770SOL    HW162088  10.267  11.390   0.309  1.1318 -1.6981  0.7961
17770SOL    HW262089  10.322  11.458   0.184 -1.1300 -0.2848  0.5263
17771SOL     OW62090  10.626  11.803  10.862  0.1318 -0.4517 -0.2378
17771SOL    HW162091  10.612  11.767  10.775  0.6297 -0.6389 -0.2467
17771SOL    HW262092  10.552  11.862  10.876  0.6677  0.5194 -1.2951
17772SOL     OW62093   3.610   9.179   2.595  0.1369  0.3780  0.0781
17772SOL    HW162094   3.672   9.113   2.564  0.8695  1.3769 -0.6326
17772SOL    HW262095   3.624   9.184   2.689  1.1171  0.5737 -0.0753
17773SOL     OW62096  10.053   1.783   2.042  0.0833 -1.0340 -0.1304
17773SOL    HW162097   9.965   1.754   2.021 -1.1972  2.1152  0.3004
17773SOL    HW262098  10.104   1.766   1.962 -1.1251 -2.0119 -0.7220
17774SOL     OW62099   5.853   1.900   8.422  0.2942  0.0873 -0.3251
17774SOL    HW162100   5.903   1.951   8.358 -2.3310  1.1983 -1.6154
17774SOL    HW262101   5.854   1.811   8.388  0.1756  0.3863 -1.1446
17775SOL     OW62102   6.701   3.866   1.387 -0.3251 -0.2346 -0.0526
17775SOL    HW162103   6.690   3.854   1.292  0.3878 -0.1187 -0.1620
17775SOL    HW262104   6.631   3.925   1.413  0.4379  1.0378 -0.8060
17776SOL     OW62105   7.971   5.830   3.106 -0.2378  0.2962  0.1563
17776SOL    HW162106   8.028   5.788   3.042  0.3284 -2.0335  2.0215
17776SOL    HW262107   7.969   5.922   3.081  0.9271 -0.3065 -2.4264
17777SOL     OW62108  10.698   3.380   1.330 -0.6941 -0.1705  0.0819
17777SOL    HW162109  10.674   3.290   1.349 -1.7441  0.1342  0.2772
17777SOL    HW262110  10.614   3.425   1.315 -0.4491  1.4130  2.7926
17778SOL     OW62111   1.950   5.963  11.668  0.0146 -0.3232  0.0608
17778SOL    HW162112   1.890   5.903  11.625 -1.7671  1.5144 -0.1309
17778SOL    HW262113   1.894   6.032  11.705  1.8297  0.3988  1.6519
17779SOL     OW62114   4.340   6.596   9.336  0.0951 -0.4187 -0.0909
17779SOL    HW162115   4.322   6.641   9.418  2.4561  0.8117 -0.1556
17779SOL    HW262116   4.270   6.624   9.277 -0.0262  1.0041  0.6941
17780SOL     OW62117   7.061   2.989  11.413 -0.1228 -0.2077 -0.1417
17780SOL    HW162118   6.982   2.951  11.375 -0.6133 -1.1192  1.6335
17780SOL    HW262119   7.033   3.019  11.500  1.7750 -1.9716  1.1740
17781SOL     OW62120  10.221   0.177   2.507  0.4386 -0.0609 -0.4626
17781SOL    HW162121  10.147   0.235   2.490 -0.5163 -1.8181 -3.1420
17781SOL    HW262122  10.262   0.165   2.421  2.4849 -0.9030  0.5560
17782SOL     OW62123   9.430   0.165   6.309  0.4890 -0.1165 -0.2355
17782SOL    HW162124   9.465   0.187   6.395  0.5365  0.5086 -0.4064
17782SOL    HW262125   9.490   0.207   6.247 -0.0413  0.1952 -0.5517
17783SOL     OW62126   3.096   0.314   7.099 -0.0491  0.1011  0.0364
17783SOL    HW162127   3.181   0.359   7.100 -0.8479  1.7018 -0.0596
17783SOL    HW262128   3.111   0.235   7.048  1.0319  1.1311 -1.3260
17784SOL     OW62129   8.494   8.791   0.556 -0.1218 -0.0049 -0.1461
17784SOL    HW162130   8.538   8.875   0.566  0.0061 -0.2487  1.7697
17784SOL    HW262131   8.557   8.727   0.590 -0.7650 -0.7005 -0.2385
17785SOL     OW62132   2.564   8.805  10.446  0.6116  0.3227 -0.1329
17785SOL    HW162133   2.613   8.839  10.371  0.5184 -0.5540 -0.6033
17785SOL    HW262134   2.631   8.776  10.507  0.6846  0.5492 -0.1045
17786SOL     OW62135   8.871   6.095   3.945  0.1228  0.4879  0.2170
17786SOL    HW162136   8.884   6.063   4.035 -0.1179  1.0100  0.4409
17786SOL    HW262137   8.789   6.056   3.917  0.5928 -0.3262 -0.0775
17787SOL     OW62138   2.642   8.562  11.770 -0.2287 -0.3806 -0.1168
17787SOL    HW162139   2.686   8.492  11.721 -0.3281 -1.0310  0.7135
17787SOL    HW262140   2.700   8.582  11.843 -0.2692  0.3141 -0.2646
17788SOL     OW62141   7.505   2.234   6.807  0.1662 -0.4220 -0.6748
17788SOL    HW162142   7.497   2.151   6.854 -0.9382 -0.9612 -1.7473
17788SOL    HW262143   7.599   2.251   6.804  0.2922 -0.5023  1.4368
17789SOL     OW62144   9.663   4.676   7.296 -0.2183 -0.0558 -0.0748
17789SOL    HW162145   9.742   4.623   7.309  0.8963  1.4584 -0.3976
17789SOL    HW262146   9.594   4.612   7.278  0.7047 -1.4910  1.1981
17790SOL     OW62147   4.854  11.602   2.216 -0.2016 -0.0445 -0.3730
17790SOL    HW162148   4.760  11.584   2.220 -0.1987 -0.8224 -2.5675
17790SOL    HW262149   4.860  11.689   2.177 -0.0191 -0.4165 -1.1967
17791SOL     OW62150  11.895   4.921   3.006  0.2328 -0.1746 -0.3130
17791SOL    HW162151  11.815   4.958   2.968  0.0091 -0.7069 -0.3645
17791SOL    HW262152  11.943   4.886   2.931  0.7085  0.4917 -0.3329
17792SOL     OW62153   3.154   0.902   2.360  0.4736 -0.3581  0.0082
17792SOL    HW162154   3.240   0.864   2.347  0.4300 -0.3916 -0.1868
17792SOL    HW262155   3.171   0.994   2.381  0.5189 -0.0833 -1.1394
17793SOL     OW62156   5.643   6.346   2.973  0.0897 -0.3781  0.6898
17793SOL    HW162157   5.663   6.318   3.063  0.2672  0.3367  0.8804
17793SOL    HW262158   5.554   6.381   2.978 -0.3442 -1.4101  0.3338
17794SOL     OW62159   8.272   6.172   5.058 -0.2145  0.0866 -0.8092
17794SOL    HW162160   8.323   6.107   5.106 -0.2071  0.8087  0.1775
17794SOL    HW262161   8.322   6.187   4.977 -1.3494 -2.7940 -2.1750
17795SOL     OW62162  12.538   2.297   9.274 -0.0588  0.1691  0.0402
17795SOL    HW162163  12.483   2.332   9.204 -3.0965 -1.4496  1.4189
17795SOL    HW262164  12.537   2.365   9.342 -0.3082  0.1689  0.0379
17796SOL     OW62165   4.605   7.520   8.269  0.3816  0.4477 -1.1149
17796SOL    HW162166   4.678   7.459   8.279 -0.2254 -0.3215 -1.2045
17796SOL    HW262167   4.595   7.561   8.355 -0.9798 -1.6765 -0.1602
17797SOL     OW62168  10.356   7.889   3.914 -0.2665  0.5169  0.0858
17797SOL    HW162169  10.407   7.826   3.864 -0.0044 -0.2062  1.2155
17797SOL    HW262170  10.266   7.879   3.882 -0.5737 -1.7249  1.4016
17798SOL     OW62171   4.621   0.196   4.003  0.5370 -0.4780 -0.2427
17798SOL    HW162172   4.632   0.265   3.938  1.4165  0.1526  0.5511
17798SOL    HW262173   4.699   0.141   3.994  0.1382 -1.0281 -0.4499
17799SOL     OW62174   9.467  11.423   3.033 -0.4808  0.2775  0.3988
17799SOL    HW162175   9.486  11.456   2.945  1.5208  0.1635  0.7577
17799SOL    HW262176   9.530  11.353   3.047 -0.6396  0.4213  2.0065
17800SOL     OW62177   9.886  10.170   0.672 -0.0971  0.3946  0.1038
17800SOL    HW162178   9.829  10.243   0.696 -0.5693  0.6507 -1.6802
17800SOL    HW262179   9.876  10.162   0.577  0.1263 -1.8321  0.2183
17801SOL     OW62180   1.784  11.794  10.787 -0.5646  0.4072  0.1478
17801SOL    HW162181   1.812  11.705  10.763 -0.3555  0.5085  0.0112
17801SOL    HW262182   1.756  11.787  10.878  0.4741  0.4271  0.4833
17802SOL     OW62183   5.282   7.874   0.649  0.1993 -0.2747  0.3995
17802SOL    HW162184   5.258   7.818   0.575 -0.9847 -0.4842  0.9241
17802SOL    HW262185   5.378   7.870   0.652  0.4920  1.7014 -2.6279
17803SOL     OW62186  10.330   4.447   5.071 -0.3508  0.1764  0.1635
17803SOL    HW162187  10.281   4.520   5.108  0.9645  0.6177  1.1369
17803SOL    HW262188  10.399   4.488   5.018 -2.0848 -0.4353 -2.7879
17804SOL     OW62189  12.194  11.759   0.250 -0.0597 -0.6560  0.4283
17804SOL    HW162190  12.200  11.755   0.155 -0.4016 -0.8633  0.4147
17804SOL    HW262191  12.185  11.668   0.278 -0.3879 -0.5667  0.6262
17805SOL     OW62192   3.817  10.410   3.960  0.6906  0.5527 -0.1565
17805SOL    HW162193   3.824  10.457   4.043 -1.7645  0.7241  0.0295
17805SOL    HW262194   3.789  10.477   3.897 -0.7045 -0.1914 -0.3647
17806SOL     OW62195  10.895   8.267   3.112  0.5979 -0.2181 -0.0694
17806SOL    HW162196  10.883   8.172   3.100 -1.2290 -0.2037  1.2789
17806SOL    HW262197  10.901   8.278   3.207 -1.1762  1.1912 -0.0818
17807SOL     OW62198   4.173  11.865   0.618 -0.5795  0.3569 -0.2392
17807SOL    HW162199   4.144  11.951   0.587  0.2439  1.0166  0.7319
17807SOL    HW262200   4.103  11.835   0.675 -0.1159  1.2206  0.8384
17808SOL     OW62201   4.555   6.306   4.433 -0.1080  0.2634 -0.0567
17808SOL    HW162202   4.600   6.325   4.515 -0.1674  0.3153 -0.0361
17808SOL    HW262203   4.590   6.370   4.371  0.0603  0.1170 -0.1157
17809SOL     OW62204   2.106   6.778   5.635  0.4112 -0.6912  0.4237
17809SOL    HW162205   2.164   6.849   5.606  1.3207 -1.3302  0.6492
17809SOL    HW262206   2.042   6.822   5.692  0.0303  0.1903 -0.6480
17810SOL     OW62207   6.352   1.485   2.822 -0.3788  0.3121 -0.2747
17810SOL    HW162208   6.320   1.569   2.854  0.5342  0.9019 -0.8792
17810SOL    HW262209   6.446   1.499   2.808  0.3666 -1.5258  2.0707
17811SOL     OW62210   9.947   1.189   6.097 -0.4439  0.1290  0.1179
17811SOL    HW162211   9.876   1.125   6.092 -1.0788  0.9102 -2.7349
17811SOL    HW262212  10.013   1.156   6.037  0.8307  0.3843  1.3184
17812SOL     OW62213  11.578   7.435  12.096  0.2853  0.8327 -0.0910
17812SOL    HW162214  11.524   7.479  12.162  0.2522  2.3644 -1.0887
17812SOL    HW262215  11.516   7.405  12.029  0.2959 -0.8828  0.6152
17813SOL     OW62216   3.655   0.423   2.442  0.2834  0.2312  0.3078
17813SOL    HW162217   3.717   0.399   2.510  0.4661  2.4400  0.9890
17813SOL    HW262218   3.708   0.434   2.363  0.3771 -0.2580  0.2996
17814SOL     OW62219   6.861   6.436   1.727  0.5340  0.3222 -0.1455
17814SOL    HW162220   6.946   6.430   1.683  0.0067  0.0650 -1.1512
17814SOL    HW262221   6.841   6.347   1.754 -0.0676  0.1175 -1.1985
17815SOL     OW62222   9.896   4.745  11.587  0.3681 -0.5003 -0.0768
17815SOL    HW162223   9.923   4.822  11.637  0.5435 -1.2346  0.9877
17815SOL    HW262224   9.864   4.683  11.653 -0.8557 -0.9144 -1.0054
17816SOL     OW62225   8.130   0.806   4.896  0.6312 -0.6160  0.2506
17816SOL    HW162226   8.206   0.862   4.883  0.1105 -0.0955 -0.6816
17816SOL    HW262227   8.148   0.758   4.977  1.3581  0.4459  0.7335
17817SOL     OW62228  10.947   3.767   3.966  0.1657 -0.3873  0.0620
17817SOL    HW162229  10.999   3.712   4.025  1.1586 -0.1412 -0.5619
17817SOL    HW262230  10.920   3.708   3.896  0.4279 -0.3031 -0.1126
17818SOL     OW62231   3.946   6.320   0.033 -0.4642  0.0921  0.2173
17818SOL    HW162232   3.995   6.373  -0.030 -2.1134  0.6448 -0.6445
17818SOL    HW262233   4.004   6.315   0.109  1.3231 -0.1042 -1.0940
17819SOL     OW62234   9.540  12.186   9.844 -0.0534 -0.4709  0.1169
17819SOL    HW162235   9.558  12.096   9.817  0.6096 -0.3399  0.1105
17819SOL    HW262236   9.619  12.234   9.820 -0.8291  0.3398 -0.9079
17820SOL     OW62237  11.755  12.121   6.695 -0.0782 -0.2158 -0.4442
17820SOL    HW162238  11.659  12.128   6.693 -0.2678 -1.6871  1.0405
17820SOL    HW262239  11.772  12.027   6.698  1.3804  0.0445  0.3128
17821SOL     OW62240   2.824   4.334   6.380  0.5268  0.2115 -0.0295
17821SOL    HW162241   2.906   4.332   6.330  0.7611  5.0347 -0.3616
17821SOL    HW262242   2.852   4.338   6.471  0.7124  1.2344 -0.1135
17822SOL     OW62243   2.321   9.833   5.789 -0.0218  0.9181 -0.5808
17822SOL    HW162244   2.233   9.845   5.754 -0.1907 -1.0664 -0.9529
17822SOL    HW262245   2.358   9.921   5.792 -1.2940  1.5646 -2.3424
17823SOL     OW62246   9.540   1.306   5.586  0.0050  0.2875  0.0055
17823SOL    HW162247   9.558   1.302   5.492  1.1415  0.3680  0.1999
17823SOL    HW262248   9.488   1.228   5.604 -1.3676  0.9518 -0.9039
17824SOL     OW62249   4.167   5.046   8.494 -0.4926  0.0505 -0.0545
17824SOL    HW162250   4.074   5.024   8.496 -0.7316  0.9242 -0.9101
17824SOL    HW262251   4.196   5.036   8.584 -1.1676 -1.2572  0.0404
17825SOL     OW62252  11.773  11.440   8.037  0.1621  0.0214  0.7793
17825SOL    HW162253  11.818  11.518   8.005 -0.6519  0.5558  0.9020
17825SOL    HW262254  11.801  11.370   7.978 -0.1322  0.6881 -0.1738
17826SOL     OW62255   1.755   7.402   6.276  0.2911 -0.3918  0.0237
17826SOL    HW162256   1.781   7.438   6.361 -0.2296 -1.8718  0.8425
17826SOL    HW262257   1.826   7.343   6.252  0.7374  0.4810 -0.9056
17827SOL     OW62258   0.691   5.234   8.890  0.1170 -0.8269 -0.2045
17827SOL    HW162259   0.748   5.163   8.919  1.1031 -0.2046 -0.5560
17827SOL    HW262260   0.638   5.255   8.967 -0.2761 -2.0019 -0.1308
17828SOL     OW62261   2.939   8.877   8.383  0.3682 -0.2204 -0.4809
17828SOL    HW162262   3.023   8.911   8.415  0.4346 -0.7638 -0.0623
17828SOL    HW262263   2.887   8.865   8.462 -0.2176  0.4015 -0.7636
17829SOL     OW62264   6.228   5.168   7.724  0.0660 -0.1178 -0.1147
17829SOL    HW162265   6.308   5.217   7.739 -1.0721  1.6809  0.4396
17829SOL    HW262266   6.227   5.102   7.793  1.9171 -1.4184 -1.2296
17830SOL     OW62267   8.714   3.158   2.112  0.3621 -0.3664 -0.0812
17830SOL    HW162268   8.620   3.173   2.122  0.8198  2.7637  0.5162
17830SOL    HW262269   8.726   3.146   2.017 -0.7065 -1.6796 -0.0719
17831SOL     OW62270   6.714   1.587   2.303  0.3393 -0.4580  0.1275
17831SOL    HW162271   6.637   1.568   2.250  0.0903 -0.5957  0.5345
17831SOL    HW262272   6.768   1.644   2.249  0.4798 -1.2647 -0.6094
17832SOL     OW62273   8.345  11.518   4.332  0.1355  0.3356  0.4151
17832SOL    HW162274   8.437  11.529   4.354  0.5079  0.2235 -0.9890
17832SOL    HW262275   8.316  11.606   4.307 -1.3221  1.3489  4.7177
17833SOL     OW62276  10.315   4.110   1.817 -0.4516  0.5950  0.3274
17833SOL    HW162277  10.231   4.067   1.800 -0.5749  0.8782  0.2170
17833SOL    HW262278  10.293   4.184   1.873  0.0167 -0.6173  2.1848
17834SOL     OW62279   7.617   3.645   9.791 -0.6611 -0.4731  0.8295
17834SOL    HW162280   7.530   3.605   9.790 -0.6029 -0.6003  0.8749
17834SOL    HW262281   7.617   3.703   9.867 -0.9071 -0.0312  0.4991
17835SOL     OW62282  10.483   6.432  11.172  0.1859  0.4830  0.5272
17835SOL    HW162283  10.535   6.395  11.243  0.0422  0.6488  0.7242
17835SOL    HW262284  10.521   6.397  11.092  0.1697  0.0672  0.7004
17836SOL     OW62285   6.611   8.504   8.081  0.1835  0.2219  0.4338
17836SOL    HW162286   6.571   8.425   8.116 -0.9982  0.9853  0.8508
17836SOL    HW262287   6.704   8.495   8.101  0.3033 -1.6932 -0.7597
17837SOL     OW62288   6.982   9.562   4.109 -0.0044  0.4435 -0.4444
17837SOL    HW162289   6.938   9.498   4.052  0.1678  1.7117 -2.0723
17837SOL    HW262290   7.024   9.623   4.048 -0.0549  2.0350  1.0484
17838SOL     OW62291   8.456   7.318  10.758 -0.1367 -0.0703 -0.4876
17838SOL    HW162292   8.422   7.280  10.839  1.7271 -0.6369  0.0892
17838SOL    HW262293   8.528   7.260  10.733 -0.1581  0.5572 -2.1273
17839SOL     OW62294   9.044  10.003  12.527 -0.5827 -0.0145 -0.4180
17839SOL    HW162295   8.952   9.980  12.513 -0.8933  1.8781 -1.8003
17839SOL    HW262296   9.089   9.970  12.449 -0.5157  1.1147 -0.8795
17840SOL     OW62297   4.337  12.202   1.776 -0.4219 -0.0973  0.2948
17840SOL    HW162298   4.252  12.202   1.732  0.1846  0.3867 -0.9461
17840SOL    HW262299   4.395  12.157   1.715  0.2581 -0.2434  1.0360
17841SOL     OW62300  12.215   1.312   9.252  0.1327  0.1651 -0.4582
17841SOL    HW162301  12.251   1.287   9.167 -0.9799 -0.9142 -0.6396
17841SOL    HW262302  12.126   1.342   9.233 -0.8279 -1.9007  0.5012
17842SOL     OW62303  12.215   4.547   1.675 -0.4923 -0.2232  0.1110
17842SOL    HW162304  12.269   4.570   1.599  1.7644 -1.0705  1.3619
17842SOL    HW262305  12.134   4.596   1.662 -0.2130 -0.3578 -2.8373
17843SOL     OW62306   1.845   9.425  12.181  0.0790 -0.1760  0.3908
17843SOL    HW162307   1.847   9.485  12.255 -0.2290 -0.3144  0.5111
17843SOL    HW262308   1.777   9.460  12.123 -0.3522 -0.6057  0.6300
17844SOL     OW62309   5.689  10.820   7.255  0.4653 -0.4862 -0.6153
17844SOL    HW162310   5.736  10.902   7.243  0.1015 -0.0827  0.6251
17844SOL    HW262311   5.623  10.820   7.186 -0.9263  1.2774  0.6453
17845SOL     OW62312   1.497   8.510  11.194  0.4621  0.2278  0.0248
17845SOL    HW162313   1.434   8.454  11.239 -1.1621  1.0157 -1.1465
17845SOL    HW262314   1.445   8.583  11.161  2.0774  1.1216 -0.6738
17846SOL     OW62315  11.826   1.335  10.582 -0.1580 -0.0637 -0.6212
17846SOL    HW162316  11.879   1.311  10.506 -0.3826  0.9530 -1.1021
17846SOL    HW262317  11.781   1.253  10.606  1.1810 -0.8110 -0.5375
17847SOL     OW62318   5.532  10.539  12.214 -0.0762 -0.6685 -0.0017
17847SOL    HW162319   5.547  10.501  12.128 -0.5266 -0.9408  0.0338
17847SOL    HW262320   5.619  10.548  12.253  0.1469 -0.3514 -0.5627
17848SOL     OW62321  10.175   4.917   6.210 -0.0893 -0.3132 -0.5748
17848SOL    HW162322  10.154   4.893   6.120  1.2325  0.3763 -1.1033
17848SOL    HW262323  10.253   4.865   6.231 -0.0726 -0.0703 -0.0289
17849SOL     OW62324   4.610  11.066   5.014 -0.0786  1.0407  0.5676
17849SOL    HW162325   4.529  11.110   5.036  0.6632  2.3909  0.6908
17849SOL    HW262326   4.667  11.135   4.979  0.6067 -0.0837 -0.6510
17850SOL     OW62327   4.764   2.247  10.224 -0.2032 -0.5298 -0.1706
17850SOL    HW162328   4.708   2.172  10.201 -0.7404 -0.6835  1.4825
17850SOL    HW262329   4.793   2.229  10.314  0.0503  1.0106  0.0915
17851SOL     OW62330   3.298   8.746   0.748 -0.1703  0.2668  0.3633
17851SOL    HW162331   3.343   8.775   0.827  1.1310  0.7900 -0.5375
17851SOL    HW262332   3.208   8.729   0.777  0.2834  0.3966  1.9504
17852SOL     OW62333   3.084  11.039  10.245  0.5056 -0.1160  0.2728
17852SOL    HW162334   3.132  11.007  10.168 -1.7235 -1.9077 -0.4882
17852SOL    HW262335   3.048  11.123  10.217  1.0059 -0.0087 -0.0689
17853SOL     OW62336   2.220   1.683   9.992 -1.1385  0.1401 -0.4161
17853SOL    HW162337   2.131   1.660  10.017 -0.2351 -3.2412  0.1819
17853SOL    HW262338   2.267   1.693  10.075 -0.5898  0.1275 -0.7205
17854SOL     OW62339   4.030  10.192   4.011 -0.6068 -0.2997 -0.0346
17854SOL    HW162340   3.943  10.163   3.985 -0.8904 -0.7818  1.3473
17854SOL    HW262341   4.015  10.248   4.087  0.4005 -2.2694  1.7243
17855SOL     OW62342   1.612   5.748  12.122 -0.3885  0.5032  0.1291
17855SOL    HW162343   1.655   5.732  12.039 -0.9294  0.5413 -0.1616
17855SOL    HW262344   1.670   5.709  12.187  0.2455  0.8505 -0.2239
17856SOL     OW62345  11.986   8.021   7.133 -0.0834 -0.6277 -0.4246
17856SOL    HW162346  11.953   7.957   7.070  0.2092 -0.3123 -0.9012
17856SOL    HW262347  12.078   7.997   7.146 -0.2059 -0.8466  0.0814
17857SOL     OW62348   6.630   9.334   1.647  0.2823  0.5192 -0.6566
17857SOL    HW162349   6.686   9.285   1.588  1.0404  0.1411  0.3574
17857SOL    HW262350   6.663   9.424   1.643 -0.1236  0.6409 -1.3434
17858SOL     OW62351   6.017   0.782   7.012 -0.1018  0.1658  0.1053
17858SOL    HW162352   5.945   0.751   7.067  2.1076 -0.4948  2.8375
17858SOL    HW262353   6.036   0.870   7.045  2.3142 -0.8545  1.6691
17859SOL     OW62354   5.975   8.609   1.484 -0.9335  0.4756 -0.2815
17859SOL    HW162355   5.964   8.691   1.436  0.2193  1.0285  0.3795
17859SOL    HW262356   5.904   8.610   1.549 -0.8500  1.0076 -0.1952
17860SOL     OW62357   4.318   6.403  12.178 -0.0187  0.9173  0.3119
17860SOL    HW162358   4.315   6.350  12.257  1.3117  1.9456  1.0931
17860SOL    HW262359   4.358   6.345  12.112 -0.7558  0.1915  0.4926
17861SOL     OW62360  12.574  12.210   5.139  0.1441 -0.2713  0.1442
17861SOL    HW162361  12.499  12.268   5.127  0.4206 -0.0953 -0.8043
17861SOL    HW262362  12.535  12.124   5.157 -0.3343 -0.4901 -1.7443
17862SOL     OW62363   6.726   4.957   4.179 -0.2828 -0.5095 -0.0196
17862SOL    HW162364   6.784   4.916   4.114  0.7139 -0.6682  0.9412
17862SOL    HW262365   6.785   5.009   4.234 -1.2853  0.7366 -0.0662
17863SOL     OW62366   0.047   9.175   4.842  0.3079 -0.0594 -0.0936
17863SOL    HW162367  -0.038   9.132   4.849 -0.1946  0.6125 -1.7977
17863SOL    HW262368   0.072   9.193   4.933 -1.9295  0.8031  0.4205
17864SOL     OW62369   8.888  10.005  11.426 -0.3223  0.2919  0.7440
17864SOL    HW162370   8.948   9.963  11.487  0.2192  1.3874  0.9929
17864SOL    HW262371   8.945  10.044  11.359 -0.8373  0.1650  0.2205
17865SOL     OW62372   7.098  10.842   8.381 -0.1945 -0.5178 -0.5182
17865SOL    HW162373   7.085  10.855   8.475 -0.5262  0.5323 -0.6908
17865SOL    HW262374   7.184  10.800   8.374  0.2024  0.1407  0.2084
17866SOL     OW62375   2.506   0.561   9.191  0.2502 -0.0919 -0.0993
17866SOL    HW162376   2.416   0.528   9.187  0.5532 -0.8463 -0.7969
17866SOL    HW262377   2.560   0.483   9.202  1.0773 -0.0280 -2.9322
17867SOL     OW62378   9.891  11.892   3.921 -0.2518 -0.1309  0.0742
17867SOL    HW162379   9.853  11.917   3.837 -1.2395 -0.2947  0.4557
17867SOL    HW262380   9.932  11.807   3.904  2.0799  1.1037 -0.9257
17868SOL     OW62381  10.332   3.507  10.660  0.3706 -0.3940 -0.0763
17868SOL    HW162382  10.289   3.542  10.582 -0.2932  0.0931  0.4975
17868SOL    HW262383  10.304   3.565  10.731  2.3673  0.2607  0.2430
17869SOL     OW62384  10.895   9.209   9.777  0.0084  0.2860 -0.2063
17869SOL    HW162385  10.815   9.260   9.765  1.3062  2.4745 -0.2961
17869SOL    HW262386  10.867   9.129   9.820 -2.1097  1.4247  0.6881
17870SOL     OW62387   5.430   0.655   4.314 -0.3643  0.3948 -0.3618
17870SOL    HW162388   5.377   0.711   4.371  0.6029  0.4425  0.5207
17870SOL    HW262389   5.448   0.577   4.367  1.8037  1.0835 -0.0085
17871SOL     OW62390   9.767  12.259   9.764  0.2236  0.2289 -0.2375
17871SOL    HW162391   9.815  12.330   9.806 -1.9052  1.4925  0.2131
17871SOL    HW262392   9.785  12.269   9.670  0.0738  1.2735 -0.1583
17872SOL     OW62393   9.271   9.998   3.974 -0.0429  0.3416  0.3593
17872SOL    HW162394   9.250   9.928   4.036 -1.2273  1.2281  0.9848
17872SOL    HW262395   9.193  10.008   3.921 -0.5805  2.3505  1.4238
17873SOL     OW62396   2.151   6.187  11.779 -0.2201 -0.0216 -0.4740
17873SOL    HW162397   2.090   6.190  11.852  0.9408 -0.7957  0.5848
17873SOL    HW262398   2.152   6.276  11.743 -1.8254  0.0319 -0.4315
17874SOL     OW62399   5.111   8.211   8.691 -0.3395 -0.0147 -0.2346
17874SOL    HW162400   5.072   8.164   8.617  0.6250 -0.4961 -0.4515
17874SOL    HW262401   5.076   8.300   8.683  0.7201  0.2922 -2.0420
17875SOL     OW62402   6.116   7.630   8.658  0.0792  0.0625 -0.3802
17875SOL    HW162403   6.056   7.704   8.673  0.4215  0.0630  1.1622
17875SOL    HW262404   6.147   7.642   8.568  0.5665  2.1244  0.0152
17876SOL     OW62405   4.919   6.611  11.052 -0.3483  0.7566  0.2765
17876SOL    HW162406   5.010   6.580  11.057 -0.5732  0.0406  0.0784
17876SOL    HW262407   4.883   6.566  10.976 -1.4084 -0.4523  1.4319
17877SOL     OW62408   5.814  10.787   7.910 -0.2348 -0.7707  0.7846
17877SOL    HW162409   5.773  10.769   7.826 -1.7655 -0.2556  1.3766
17877SOL    HW262410   5.898  10.827   7.888  0.2270 -2.3465 -0.4809
17878SOL     OW62411   3.565   0.804   5.061 -0.0654 -0.0804 -0.4377
17878SOL    HW162412   3.514   0.822   5.141  1.9351  0.1580  0.8419
17878SOL    HW262413   3.639   0.864   5.066  0.7886 -0.9831 -1.8285
17879SOL     OW62414   4.609   3.196   5.589 -0.0913 -0.5897  0.1164
17879SOL    HW162415   4.692   3.242   5.595 -0.6952  0.4167  1.1040
17879SOL    HW262416   4.547   3.250   5.638 -1.3112 -1.3693 -0.4969
17880SOL     OW62417   2.913   4.891   4.954  0.1035 -0.5857  0.4345
17880SOL    HW162418   2.867   4.955   4.899  1.6028 -0.6404 -0.9673
17880SOL    HW262419   2.902   4.808   4.907  3.2715 -0.2755 -1.1247
17881SOL     OW62420   2.023   6.448   9.136  0.6532  0.1298 -0.1571
17881SOL    HW162421   1.936   6.408   9.134  0.0547  1.0749  2.6022
17881SOL    HW262422   2.018   6.518   9.071 -1.1296  0.9962  0.8409
17882SOL     OW62423   4.761   2.316   5.973  0.1585 -0.0954  0.4657
17882SOL    HW162424   4.767   2.280   6.062  0.3359  0.4604  0.6836
17882SOL    HW262425   4.696   2.387   5.980 -0.3040 -0.4660  0.0073
17883SOL     OW62426   1.323   5.234   2.901 -0.1048  0.0870  0.0708
17883SOL    HW162427   1.410   5.199   2.880 -0.9204 -0.0763 -3.5333
17883SOL    HW262428   1.271   5.156   2.921  0.0337 -0.0216  0.0143
17884SOL     OW62429   0.537  11.422   1.608 -0.1293  0.1742  0.1062
17884SOL    HW162430   0.451  11.416   1.568 -0.3835  0.3614  0.6178
17884SOL    HW262431   0.585  11.484   1.553 -0.0178 -0.5982 -0.6975
17885SOL     OW62432  11.042   0.532   4.745  0.4232 -0.1282 -0.0248
17885SOL    HW162433  11.064   0.439   4.746  2.1275  0.1406 -3.0230
17885SOL    HW262434  10.961   0.538   4.694  0.1812  0.0346  0.3712
17886SOL     OW62435   2.235   1.316  11.776  0.3245  0.3273 -0.1724
17886SOL    HW162436   2.326   1.295  11.755  0.5437  1.5502 -0.5427
17886SOL    HW262437   2.200   1.236  11.815  1.9682  0.2600  1.2818
17887SOL     OW62438   9.026   3.975   7.853 -0.3401 -0.1526 -0.0233
17887SOL    HW162439   9.072   3.920   7.790 -0.2111  1.1620 -1.1269
17887SOL    HW262440   9.081   4.053   7.861 -1.3403  0.5401  0.2291
17888SOL     OW62441   3.134   8.883   2.677  0.0735  0.0338  0.0124
17888SOL    HW162442   3.094   8.969   2.690  0.9178  0.5385 -0.6589
17888SOL    HW262443   3.225   8.895   2.702 -0.0739 -1.0133  1.1658
17889SOL     OW62444   2.521   9.325   8.279 -0.2117 -0.1764 -0.1714
17889SOL    HW162445   2.505   9.285   8.193 -0.3585  0.4957 -0.4647
17889SOL    HW262446   2.580   9.398   8.261 -1.4285  0.9015  0.0563
17890SOL     OW62447   4.792   2.698   0.326 -0.3890 -0.7553  0.0240
17890SOL    HW162448   4.811   2.736   0.240  0.3206 -0.0137  0.4859
17890SOL    HW262449   4.717   2.748   0.358 -0.9152 -1.3106 -0.3317
17891SOL     OW62450   3.489   3.527   4.584 -0.6334 -0.0228  0.0324
17891SOL    HW162451   3.462   3.614   4.555 -1.9604 -0.7611 -1.1338
17891SOL    HW262452   3.574   3.513   4.542 -0.5299  0.6115  0.0209
17892SOL     OW62453   8.632   1.031   2.659  0.4827  0.0698 -0.6928
17892SOL    HW162454   8.647   0.938   2.676 -0.3199  0.0179 -0.2037
17892SOL    HW262455   8.704   1.076   2.702  0.1923 -0.2596  0.1451
17893SOL     OW62456   1.050  12.109   6.739  0.1383 -0.8732 -0.0408
17893SOL    HW162457   1.125  12.131   6.794 -1.7121 -0.1912  2.3771
17893SOL    HW262458   1.056  12.014   6.727  0.6700 -1.0195  1.2664
17894SOL     OW62459   6.825  11.165  10.050 -0.0489  0.4270  0.0902
17894SOL    HW162460   6.831  11.251  10.007  0.5886 -0.3804 -1.5296
17894SOL    HW262461   6.745  11.126  10.016  0.5327 -0.2760 -0.5351
17895SOL     OW62462  11.623   3.305   7.802 -0.3248  0.1674  0.7555
17895SOL    HW162463  11.596   3.312   7.710  0.8909 -1.0345  0.2755
17895SOL    HW262464  11.595   3.388   7.842  0.9657  1.6008 -1.1643
17896SOL     OW62465   6.982   8.751   3.843 -0.1029 -0.4001  0.7086
17896SOL    HW162466   7.024   8.832   3.869  0.5249 -0.2752 -0.6198
17896SOL    HW262467   6.901   8.748   3.895  0.2531  0.6622  1.3507
17897SOL     OW62468   2.067   7.944  12.040  0.5106  0.4404 -0.0523
17897SOL    HW162469   2.118   7.948  12.122  0.2007 -0.3439  0.1969
17897SOL    HW262470   2.017   8.025  12.038  0.1039  0.2227  0.8270
17898SOL     OW62471  11.499   4.804   7.128 -0.1238 -0.7485 -0.1956
17898SOL    HW162472  11.481   4.717   7.091 -0.4961  0.0204 -1.9433
17898SOL    HW262473  11.495   4.863   7.052 -0.9602  0.9528  1.1180
17899SOL     OW62474  12.399  10.797   6.199 -0.2037 -0.7401  0.5005
17899SOL    HW162475  12.323  10.854   6.212  0.8035 -0.0707  5.5823
17899SOL    HW262476  12.471  10.858   6.183  0.1717 -0.8748  1.6241
17900SOL     OW62477   6.478   7.817   6.795  0.6202  0.0817  0.5670
17900SOL    HW162478   6.498   7.730   6.830  0.8442  0.6026  1.7960
17900SOL    HW262479   6.437   7.863   6.868 -0.7775  0.5709 -0.4895
17901SOL     OW62480   4.598  11.198  11.746 -0.0033  0.0003 -0.2610
17901SOL    HW162481   4.632  11.119  11.705  0.9434 -0.2500  0.9484
17901SOL    HW262482   4.508  11.204  11.716  0.0163 -1.3460 -0.6504
17902SOL     OW62483   4.210   7.180   2.462  0.3009 -0.0520  0.3787
17902SOL    HW162484   4.242   7.205   2.376  0.5522 -2.2659 -0.2465
17902SOL    HW262485   4.276   7.120   2.496 -2.0981 -3.2565 -0.1315
17903SOL     OW62486   7.908  10.871  10.975  0.0414 -0.3177  0.4020
17903SOL    HW162487   7.882  10.806  11.040  0.1953  0.6345  1.4665
17903SOL    HW262488   7.995  10.900  11.003 -0.4763  1.1375  0.6306
17904SOL     OW62489   4.165  12.475   4.648  0.4867  0.1615  0.1284
17904SOL    HW162490   4.218  12.399   4.623 -0.1887 -0.7438  1.3168
17904SOL    HW262491   4.077  12.439   4.660 -0.4880  1.6725 -1.9987
17905SOL     OW62492  10.701   5.966  10.589 -0.3194  0.7367 -0.0480
17905SOL    HW162493  10.750   5.940  10.510 -2.7201 -1.4475 -0.9628
17905SOL    HW262494  10.614   5.928  10.576 -0.6340 -0.3018  3.9552
17906SOL     OW62495  10.264   4.588   6.787  0.3390 -0.3919  0.2188
17906SOL    HW162496  10.173   4.591   6.757  0.5001 -0.0341 -0.2334
17906SOL    HW262497  10.266   4.513   6.847 -0.5249  0.2916  1.1429
17907SOL     OW62498   6.579   0.852   3.028 -0.0079 -0.4829  0.5495
17907SOL    HW162499   6.605   0.773   3.075  1.4162 -0.5287 -0.2454
17907SOL    HW262500   6.657   0.909   3.032  0.3190 -0.6376 -2.0030
17908SOL     OW62501   1.136   0.295   9.860 -0.5082  0.0211 -0.1389
17908SOL    HW162502   1.062   0.265   9.806 -0.2670 -0.1265 -0.3858
17908SOL    HW262503   1.191   0.218   9.870 -0.4271  0.1109  0.1162
17909SOL     OW62504   1.409   2.980  10.102  0.1027  0.2425 -0.0099
17909SOL    HW162505   1.504   2.989  10.104 -0.0087  1.6673 -0.1326
17909SOL    HW262506   1.381   3.034  10.028 -0.7020 -1.4612 -1.0082
17910SOL     OW62507   8.647   7.927  10.819  0.1915  0.3386  0.2391
17910SOL    HW162508   8.737   7.918  10.848  0.2985 -0.0797 -0.1958
17910SOL    HW262509   8.596   7.936  10.899  0.4815 -0.7545  0.5724
17911SOL     OW62510   2.493  10.105  11.206 -0.1013  0.1776 -0.0955
17911SOL    HW162511   2.587  10.090  11.197 -0.3214 -0.7080 -1.1315
17911SOL    HW262512   2.474  10.179  11.149 -0.1452 -0.0975 -0.4390
17912SOL     OW62513   6.496   8.251   1.371 -0.0772 -0.3021 -0.4699
17912SOL    HW162514   6.403   8.268   1.353 -0.0696 -1.3558 -1.6421
17912SOL    HW262515   6.541   8.279   1.292  0.3612 -1.7298 -0.7535
17913SOL     OW62516   9.751   5.862   2.992  0.4740  0.2179 -0.1026
17913SOL    HW162517   9.732   5.955   2.994  1.5358  0.4433  0.5135
17913SOL    HW262518   9.739   5.833   3.083  1.6212  0.1012  0.0379
17914SOL     OW62519   9.838   8.976   3.770 -0.7406 -0.4236  0.0924
17914SOL    HW162520   9.892   8.972   3.849 -0.2197  3.8620  0.2187
17914SOL    HW262521   9.900   8.999   3.700 -1.3546 -3.1480 -1.5043
17915SOL     OW62522   8.309   4.016   5.457 -0.1397 -0.0029  0.0576
17915SOL    HW162523   8.297   3.994   5.549  1.5125 -2.6924 -0.2713
17915SOL    HW262524   8.370   4.089   5.456  0.2388 -0.3018  1.0830
17916SOL     OW62525   7.533   7.351   2.901 -0.0001  0.1794  0.1183
17916SOL    HW162526   7.463   7.382   2.845 -0.0764  1.7826  1.0408
17916SOL    HW262527   7.578   7.430   2.930  2.2092 -0.7843 -0.4393
17917SOL     OW62528   5.168   3.934  10.889 -0.0575 -0.2689 -0.1178
17917SOL    HW162529   5.172   3.841  10.911 -0.6654 -0.7533 -1.9317
17917SOL    HW262530   5.227   3.944  10.815 -0.7815  0.5687 -0.6051
17918SOL     OW62531  12.473   4.120   2.732 -0.1046  0.5822  0.3462
17918SOL    HW162532  12.560   4.096   2.700  0.4054  1.3682  1.0938
17918SOL    HW262533  12.486   4.203   2.778 -1.1435  0.4128  0.9956
17919SOL     OW62534   6.197   8.108   3.504  0.4046 -0.0796  0.5635
17919SOL    HW162535   6.247   8.169   3.558  0.0203  1.3965 -0.6759
17919SOL    HW262536   6.107   8.141   3.508  0.2523 -0.3507 -0.3971
17920SOL     OW62537   5.133  10.531  10.526  0.1719 -0.0159 -0.3992
17920SOL    HW162538   5.116  10.579  10.445  1.0106  0.1815 -0.4712
17920SOL    HW262539   5.083  10.577  10.593 -1.5752 -0.9465 -1.0047
17921SOL     OW62540  11.842   1.868  11.963  0.3605  0.0761  0.5449
17921SOL    HW162541  11.836   1.847  12.056 -1.0085  2.1502  0.9651
17921SOL    HW262542  11.881   1.955  11.960 -0.2264  0.3161 -0.7876
17922SOL     OW62543  11.818   7.957  11.209  0.4588 -0.8270  0.5536
17922SOL    HW162544  11.885   7.948  11.277 -0.4453 -0.7951  1.4685
17922SOL    HW262545  11.741   7.990  11.255 -0.3571 -1.3604 -0.3780
17923SOL     OW62546   3.480   7.760   9.752  0.2465 -0.6253 -0.0501
17923SOL    HW162547   3.445   7.715   9.675  1.1078 -0.6578 -0.4342
17923SOL    HW262548   3.459   7.702   9.825 -0.9409 -0.4018 -0.1819
17924SOL     OW62549  10.100   2.073   3.162  0.6176  0.0532 -0.7106
17924SOL    HW162550  10.080   2.115   3.078 -0.3507 -0.8708 -0.9617
17924SOL    HW262551  10.019   2.076   3.211  1.4882  1.6673  0.7178
17925SOL     OW62552   9.672   4.516  11.538 -0.5109 -0.0452 -0.2840
17925SOL    HW162553   9.696   4.432  11.500 -0.2057 -0.3246  0.4995
17925SOL    HW262554   9.733   4.527  11.611 -0.0173  1.2330 -0.8590
17926SOL     OW62555   9.887   1.068   6.639 -0.2624  0.2752 -0.2507
17926SOL    HW162556   9.903   1.021   6.557 -0.2668 -0.1907  0.0117
17926SOL    HW262557   9.957   1.133   6.644 -0.6501  0.7658 -0.9588
17927SOL     OW62558   4.813   7.366  12.527  0.0192 -0.3227  0.1690
17927SOL    HW162559   4.893   7.419  12.531 -0.3720  0.1800  1.7989
17927SOL    HW262560   4.817   7.324  12.441  0.6036  1.9314 -0.9920
17928SOL     OW62561   6.180   5.555   0.727  0.2249  0.3489 -0.5511
17928SOL    HW162562   6.258   5.502   0.747  1.2087  1.2174 -1.9202
17928SOL    HW262563   6.211   5.645   0.732 -0.7114  0.7081 -1.0833
17929SOL     OW62564   5.195  12.085   2.193  0.7977  0.3003  0.2716
17929SOL    HW162565   5.276  12.034   2.188  0.1309 -0.8298  0.6011
17929SOL    HW262566   5.163  12.087   2.103  0.7053 -0.0723  0.2952
17930SOL     OW62567   1.142   7.276   3.438 -0.6997  0.0159  0.5639
17930SOL    HW162568   1.145   7.280   3.534  1.4952 -0.3244  0.5658
17930SOL    HW262569   1.208   7.210   3.415  1.6119  2.7007 -1.2775
17931SOL     OW62570   2.358   9.712   4.359  0.7467  0.8165  0.2727
17931SOL    HW162571   2.298   9.784   4.378  1.3710  1.0013  1.6374
17931SOL    HW262572   2.388   9.729   4.270 -0.7907  1.0124 -0.2416
17932SOL     OW62573  11.687   5.749   8.773  0.1310 -0.0085  0.0481
17932SOL    HW162574  11.775   5.783   8.758 -0.1358  0.3662 -0.7062
17932SOL    HW262575  11.684   5.667   8.724  0.6616 -0.9814  1.5858
17933SOL     OW62576   2.572   5.501  10.147 -0.4456  0.2118 -0.1537
17933SOL    HW162577   2.481   5.506  10.116 -0.0614  1.6272 -1.1438
17933SOL    HW262578   2.577   5.569  10.214 -0.3987 -0.6349  0.7168
17934SOL     OW62579   9.325   3.260  10.446 -0.2205 -0.4819  0.0912
17934SOL    HW162580   9.261   3.213  10.500 -2.6004 -2.0620 -3.7168
17934SOL    HW262581   9.302   3.352  10.456 -0.3121 -0.6793  2.0010
17935SOL     OW62582   1.112  12.005  11.915  0.0365 -0.4046  0.2386
17935SOL    HW162583   1.208  11.995  11.912  0.1185  0.3325 -2.4128
17935SOL    HW262584   1.081  11.953  11.840 -1.4501  0.8968 -0.0996
17936SOL     OW62585  11.323   2.638   2.657  0.9467  0.7196 -0.1832
17936SOL    HW162586  11.251   2.612   2.599  1.5980  1.1878 -1.2064
17936SOL    HW262587  11.402   2.625   2.605  1.5524  1.0272  0.6471
17937SOL     OW62588   1.279   5.549   5.816  0.1688  0.1586  0.1346
17937SOL    HW162589   1.209   5.498   5.776 -0.4274  0.6496  0.5162
17937SOL    HW262590   1.250   5.561   5.907  0.1551  1.3893 -0.0160
17938SOL     OW62591   5.215   9.358   9.940  0.2112 -0.3630 -0.1254
17938SOL    HW162592   5.175   9.376  10.025 -3.0882 -0.0798 -1.5786
17938SOL    HW262593   5.183   9.428   9.883  2.4394 -0.4705 -1.6193
17939SOL     OW62594   6.616   2.956   4.027  0.2696  0.0583  0.0017
17939SOL    HW162595   6.553   2.990   3.962 -0.8850  0.0056  1.0583
17939SOL    HW262596   6.674   2.900   3.976 -0.7248 -0.1345 -0.9696
17940SOL     OW62597  11.937   1.786  10.764 -0.0313  0.1722 -0.0149
17940SOL    HW162598  11.938   1.692  10.745  0.3493  0.0638  0.5338
17940SOL    HW262599  11.908   1.791  10.855  0.2545  0.5708  0.0548
17941SOL     OW62600   1.938   8.531   8.069 -0.0074  0.0051 -0.4118
17941SOL    HW162601   1.853   8.503   8.104  0.1497  1.6334  1.4658
17941SOL    HW262602   1.919   8.559   7.979 -1.8354  1.8447  0.4575
17942SOL     OW62603   5.036   2.021   8.686 -0.0623 -0.2058 -0.7113
17942SOL    HW162604   5.088   2.064   8.617 -1.5199  1.3066 -0.9361
17942SOL    HW262605   5.057   2.071   8.765  0.6547 -1.1501 -0.2860
17943SOL     OW62606   9.536   8.965   1.605  0.2796  0.0214  0.7049
17943SOL    HW162607   9.497   8.934   1.523 -0.9518 -1.1257  1.6813
17943SOL    HW262608   9.572   8.886   1.645 -0.4483  0.3009  1.9512
17944SOL     OW62609  10.965  11.050   4.217 -0.1488  0.2442  0.4809
17944SOL    HW162610  10.940  11.138   4.246  0.3139  0.5044  0.1115
17944SOL    HW262611  11.060  11.055   4.205 -0.2110 -0.0948 -0.2262
17945SOL     OW62612   9.647   4.599  12.348  0.0684  0.1558  0.0469
17945SOL    HW162613   9.565   4.555  12.326 -0.1554  1.3487 -1.6889
17945SOL    HW262614   9.713   4.555  12.293  0.4173 -0.1329  0.6906
17946SOL     OW62615   0.015   5.806   3.335  0.1806 -0.0554  0.3055
17946SOL    HW162616   0.002   5.823   3.428 -0.7735  2.3406 -0.1884
17946SOL    HW262617   0.029   5.893   3.297  0.2503 -0.9459 -1.8268
17947SOL     OW62618  10.584   3.024   4.385  0.0005 -0.4852  0.3267
17947SOL    HW162619  10.539   3.104   4.357 -0.3234 -0.4634  0.8950
17947SOL    HW262620  10.622   2.988   4.304  1.5617  1.0904  0.3133
17948SOL     OW62621  10.195   5.119   9.594 -0.5010 -0.2019  0.4149
17948SOL    HW162622  10.152   5.115   9.679 -0.5592 -0.1066  0.3905
17948SOL    HW262623  10.288   5.128   9.615 -0.6591  1.6926  0.4983
17949SOL     OW62624   6.620   5.843  10.892 -0.1326  0.1001 -0.1037
17949SOL    HW162625   6.595   5.812  10.805  0.2134 -2.0184  0.4916
17949SOL    HW262626   6.698   5.897  10.877  0.1957 -0.6133 -1.0867
17950SOL     OW62627  12.605   8.921   5.984  0.3697 -0.2065 -0.0157
17950SOL    HW162628  12.588   8.959   6.070  0.3591 -3.0769  1.3891
17950SOL    HW262629  12.548   8.968   5.924  0.0430  1.5729  1.6122
17951SOL     OW62630   7.507   7.135   4.346  0.1352  0.1826  0.1378
17951SOL    HW162631   7.515   7.159   4.438 -0.6655 -1.0332  0.5433
17951SOL    HW262632   7.415   7.150   4.324  0.2038 -0.0235 -0.3166
17952SOL     OW62633   9.116   0.742   2.009  0.1636 -0.0940 -0.2308
17952SOL    HW162634   9.121   0.825   1.963  0.6757 -0.9814 -1.8600
17952SOL    HW262635   9.193   0.740   2.066  1.5499 -0.4756 -2.0357
17953SOL     OW62636  11.955   9.164  10.118  0.2670  0.1716 -0.2301
17953SOL    HW162637  11.861   9.147  10.114  0.2327  0.0365  0.8527
17953SOL    HW262638  11.966   9.250  10.078 -0.2168 -0.0958 -0.9671
17954SOL     OW62639   0.630  12.163   0.167  0.6937 -0.6493 -0.5858
17954SOL    HW162640   0.567  12.156   0.238 -0.0742 -1.4300 -1.3253
17954SOL    HW262641   0.584  12.129   0.090  1.1914  0.9860 -1.6671
17955SOL     OW62642   0.259  10.713  10.931  0.2229  0.0037 -0.1988
17955SOL    HW162643   0.244  10.620  10.916  1.0562 -0.2726  0.6209
17955SOL    HW262644   0.170  10.750  10.938 -0.2159 -1.3091  2.7931
17956SOL     OW62645   3.704   9.346   6.533 -0.6712 -0.5980  0.0805
17956SOL    HW162646   3.642   9.281   6.567 -1.9622  0.8721  0.6432
17956SOL    HW262647   3.790   9.314   6.561 -1.2680 -2.0119  0.4012
17957SOL     OW62648   2.128   9.033   7.284  0.3242  0.2089  0.0373
17957SOL    HW162649   2.061   9.029   7.352  0.5682 -1.3947  0.2196
17957SOL    HW262650   2.192   8.967   7.310  0.9358  0.2771 -1.2317
17958SOL     OW62651   7.397   7.505   4.283  0.2230 -0.2649  0.3929
17958SOL    HW162652   7.345   7.482   4.360  1.4454 -1.1337  0.9904
17958SOL    HW262653   7.386   7.431   4.224 -2.5824  1.3819 -1.3561
17959SOL     OW62654   4.804   2.219  11.199 -0.3415  0.1111 -0.8152
17959SOL    HW162655   4.779   2.293  11.254 -1.6228 -0.7274 -0.2020
17959SOL    HW262656   4.763   2.237  11.115 -2.4290 -0.8261 -0.0712
17960SOL     OW62657   4.649   8.671   5.512  0.1114 -0.6347  0.5368
17960SOL    HW162658   4.577   8.719   5.553  1.5112  0.7299  1.4827
17960SOL    HW262659   4.671   8.603   5.576 -0.5828 -1.3433  0.0515
17961SOL     OW62660   5.826  12.330   4.907  0.1169 -0.2150  0.4891
17961SOL    HW162661   5.764  12.351   4.837 -1.2164  0.6738  1.8579
17961SOL    HW262662   5.777  12.272   4.965  0.2732  1.0152  1.9381
17962SOL     OW62663   1.415  12.217  11.307 -0.0674  0.0770 -0.3451
17962SOL    HW162664   1.455  12.303  11.316  1.4488 -0.3772 -2.0402
17962SOL    HW262665   1.322  12.234  11.293 -0.1087  1.3019  1.1428
17963SOL     OW62666   5.720   0.020  11.156  0.8447  0.5172 -0.3984
17963SOL    HW162667   5.702  -0.066  11.119  2.6440  0.2693 -0.7954
17963SOL    HW262668   5.698   0.082  11.085  0.2794  0.3516 -0.3748
17964SOL     OW62669   1.724   2.044   5.578 -0.8128 -0.3501  0.0392
17964SOL    HW162670   1.761   1.957   5.564  2.2788  0.9106 -0.5366
17964SOL    HW262671   1.693   2.071   5.491 -0.7680 -0.4866 -0.0190
17965SOL     OW62672   8.291  12.287   5.076  0.0353 -0.0244  0.3312
17965SOL    HW162673   8.278  12.378   5.101 -0.4212 -0.0342  0.1395
17965SOL    HW262674   8.348  12.291   4.999 -0.4755  0.1354 -0.0436
17966SOL     OW62675  11.788   5.481   7.443  0.1899 -0.1101 -0.0023
17966SOL    HW162676  11.824   5.505   7.529 -0.8799  0.1395  0.3937
17966SOL    HW262677  11.805   5.557   7.388  0.8129 -0.2391 -0.0045
17967SOL     OW62678   6.397   2.242   1.147  0.4447 -0.1354  0.5978
17967SOL    HW162679   6.431   2.215   1.061 -0.5473 -1.5185  0.6071
17967SOL    HW262680   6.441   2.184   1.209 -0.2716 -0.4454  0.8253
17968SOL     OW62681  11.078  11.480   8.011 -0.3815 -0.2947  0.0156
17968SOL    HW162682  11.066  11.575   8.009  1.1195 -0.0863 -1.2138
17968SOL    HW262683  11.113  11.461   8.098 -0.7589  0.2578  0.2930
17969SOL     OW62684   7.001   6.315   4.311 -0.0981  0.1469  0.2676
17969SOL    HW162685   7.055   6.300   4.388 -0.5417 -0.0212  0.5509
17969SOL    HW262686   7.058   6.294   4.237  0.2862  0.1745  0.5549
17970SOL     OW62687   9.198   9.929   0.496 -0.0201 -0.0042 -0.3718
17970SOL    HW162688   9.217   9.960   0.408  0.4478  0.0052 -0.2656
17970SOL    HW262689   9.270   9.871   0.518 -1.7885 -2.7348 -1.3076
17971SOL     OW62690   2.794   9.917   6.226  0.4105  0.7394  0.0627
17971SOL    HW162691   2.752   9.952   6.304  2.1974  0.6482  1.1269
17971SOL    HW262692   2.805   9.824   6.245  1.5948  0.8643  0.0964
17972SOL     OW62693   4.027   4.146   2.921 -0.0747 -0.3447  0.4834
17972SOL    HW162694   3.959   4.084   2.897 -0.0169  0.1676 -1.1444
17972SOL    HW262695   4.108   4.094   2.924  0.5755 -0.0497 -3.9504
17973SOL     OW62696   7.572   7.240   0.946 -0.5569  0.0849 -0.1999
17973SOL    HW162697   7.549   7.324   0.985 -0.7275  0.4227 -1.0133
17973SOL    HW262698   7.666   7.232   0.959 -0.1033  1.4902 -2.1206
17974SOL     OW62699   1.691   0.252   9.508  0.2547  0.2646 -0.0908
17974SOL    HW162700   1.613   0.246   9.563  1.6245 -0.0206  1.9008
17974SOL    HW262701   1.711   0.345   9.504 -0.8354  0.4764 -1.6416
17975SOL     OW62702  10.504  11.525   5.319  0.1512  0.3828 -0.0989
17975SOL    HW162703  10.467  11.591   5.378  0.3447  0.4709 -0.0755
17975SOL    HW262704  10.437  11.514   5.251  0.2819  0.8859 -0.3121
17976SOL     OW62705   7.686   1.374   6.485 -0.0148 -0.5658  0.0129
17976SOL    HW162706   7.736   1.336   6.557  0.6074  1.0456  0.4807
17976SOL    HW262707   7.595   1.371   6.514 -0.0204 -1.8038 -0.0482
17977SOL     OW62708   4.208   8.670   7.789 -0.2105 -0.2577  0.2791
17977SOL    HW162709   4.124   8.648   7.750 -0.0333 -0.1805 -0.1506
17977SOL    HW262710   4.226   8.759   7.760  0.9998 -0.9839 -1.4000
17978SOL     OW62711   2.730  10.510   8.662  0.6793 -0.2655 -0.2028
17978SOL    HW162712   2.810  10.511   8.609 -0.1892 -0.2259 -1.5527
17978SOL    HW262713   2.724  10.599   8.698  1.8429 -0.5918  0.9037
17979SOL     OW62714   5.505   0.143   5.222  0.5834 -0.3698 -0.1903
17979SOL    HW162715   5.560   0.219   5.240 -1.4951  1.0834  0.4278
17979SOL    HW262716   5.505   0.135   5.127  1.5968 -0.2420 -0.2143
17980SOL     OW62717   7.106   8.905   6.301 -0.2821 -0.5690  0.1811
17980SOL    HW162718   7.175   8.844   6.325 -0.1306 -0.7616 -0.6817
17980SOL    HW262719   7.035   8.850   6.269 -0.7149 -0.3585  0.7799
17981SOL     OW62720   2.002   6.858   0.619  0.1106  0.2971 -0.1590
17981SOL    HW162721   2.075   6.891   0.671 -0.3249 -0.2085  0.7885
17981SOL    HW262722   2.005   6.909   0.538  0.0910  1.9426  0.8363
17982SOL     OW62723   3.119   2.999   6.547  0.0329 -0.7006  0.0976
17982SOL    HW162724   3.189   2.934   6.541 -1.1102 -1.8505 -2.7381
17982SOL    HW262725   3.136   3.045   6.629  3.0976 -2.0283  0.3562
17983SOL     OW62726  12.090   9.893  10.789  0.0082 -0.4714  0.5619
17983SOL    HW162727  12.166   9.836  10.781 -1.0164 -1.9475  0.9720
17983SOL    HW262728  12.027   9.842  10.839 -1.7886  0.1617 -0.9484
17984SOL     OW62729  10.855   1.373   7.056  0.4804  0.3394  0.1518
17984SOL    HW162730  10.767   1.356   7.022  0.8463 -1.4114  0.0154
17984SOL    HW262731  10.892   1.437   6.996 -0.9785  1.7880  0.6986
17985SOL     OW62732   7.046   9.619   5.275  0.4587  0.1107 -0.1987
17985SOL    HW162733   6.982   9.548   5.274  1.3296 -0.6919 -0.7124
17985SOL    HW262734   7.093   9.608   5.357  0.8907 -0.1879 -0.4819
17986SOL     OW62735   8.993   7.523   0.021 -0.1971 -0.2689  0.0178
17986SOL    HW162736   8.984   7.428   0.023  0.1613 -0.2985  1.3866
17986SOL    HW262737   8.935   7.554   0.092  0.5573  0.4339  0.3404
17987SOL     OW62738   5.821  11.663   6.317  0.8481  0.1851 -0.1903
17987SOL    HW162739   5.782  11.734   6.265 -0.6039 -1.0502 -0.8694
17987SOL    HW262740   5.844  11.704   6.400  0.5602  1.5767 -0.7653
17988SOL     OW62741  11.670  10.565   4.453  0.9054  1.1808 -0.5759
17988SOL    HW162742  11.711  10.616   4.523  3.2911 -1.6113  0.2360
17988SOL    HW262743  11.742  10.535   4.399 -0.5522  0.0354 -1.9859
17989SOL     OW62744   0.294   1.989   0.747  0.2706 -0.1251  0.2046
17989SOL    HW162745   0.290   1.899   0.781 -0.3163 -0.1178  0.1649
17989SOL    HW262746   0.259   1.983   0.658 -0.2502  0.2284  0.3830
17990SOL     OW62747   2.153   1.912   1.406 -0.0590  0.0252 -0.2381
17990SOL    HW162748   2.130   1.819   1.397 -1.2904  0.2913  0.0231
17990SOL    HW262749   2.096   1.956   1.344 -0.6484  0.7716  0.8168
17991SOL     OW62750   0.722   3.613   2.108  0.1997 -0.3253 -0.0575
17991SOL    HW162751   0.706   3.519   2.117  0.1834 -0.2272  1.0378
17991SOL    HW262752   0.776   3.635   2.183  0.5654  0.4641 -0.5478
17992SOL     OW62753   2.918   6.639   9.489 -0.0865  0.3186  0.2157
17992SOL    HW162754   2.955   6.686   9.414  0.1340  1.0161  0.7494
17992SOL    HW262755   2.827   6.668   9.492  0.2513  1.3272  1.0123
17993SOL     OW62756  10.117   1.193   0.675 -0.3389 -0.2120  0.3353
17993SOL    HW162757  10.156   1.107   0.662 -0.3521 -0.4862  1.9213
17993SOL    HW262758  10.057   1.181   0.748  0.4549  1.3623  1.3072
17994SOL     OW62759  10.105   9.450  11.908 -0.4433 -0.4422 -0.5493
17994SOL    HW162760  10.064   9.439  11.822 -0.1880 -1.2018 -0.5809
17994SOL    HW262761  10.114   9.544  11.919 -0.0252 -0.3490 -1.5808
17995SOL     OW62762   4.899  11.140   1.604  0.0664  0.4133 -0.3654
17995SOL    HW162763   4.816  11.106   1.571 -0.4392  0.6049  0.6814
17995SOL    HW262764   4.939  11.065   1.649  0.2476  0.4466 -0.4716
17996SOL     OW62765   2.338   4.520   6.065  0.1533  0.1989  0.2299
17996SOL    HW162766   2.294   4.452   6.116 -1.3232 -0.1569 -1.4237
17996SOL    HW262767   2.287   4.600   6.084 -0.2065  0.1282 -0.4173
17997SOL     OW62768   3.645   6.028   7.702  0.3453 -0.3206 -0.7365
17997SOL    HW162769   3.663   5.980   7.621  0.4097 -0.7260 -0.4841
17997SOL    HW262770   3.673   6.118   7.683 -1.1547 -0.0355 -1.7186
17998SOL     OW62771  11.576  11.890   6.125  0.2246  0.2251  0.0280
17998SOL    HW162772  11.523  11.898   6.204 -2.0753 -3.5801 -0.8645
17998SOL    HW262773  11.657  11.849   6.154 -0.1420 -0.1296  0.5609
17999SOL     OW62774   0.712   6.698   4.637 -0.2080  0.2474 -0.0662
17999SOL    HW162775   0.770   6.770   4.662  0.0559  0.6160 -1.6658
17999SOL    HW262776   0.759   6.652   4.568 -0.2664 -1.6513  1.0952
18000SOL     OW62777   1.997   2.144   0.290  0.0240 -0.1918  0.4640
18000SOL    HW162778   1.950   2.186   0.218  1.5765  1.0128  0.1290
18000SOL    HW262779   2.013   2.214   0.353  0.8401 -0.7100  0.8512
18001SOL     OW62780   1.184   6.185   3.057 -0.4262 -0.4638 -0.0925
18001SOL    HW162781   1.132   6.104   3.057  1.2721 -1.6014  0.6293
18001SOL    HW262782   1.251   6.170   2.990 -0.7427  0.8165 -0.7254
18002SOL     OW62783  10.896  11.991  11.232  0.0652  0.1898  0.3895
18002SOL    HW162784  10.811  11.995  11.276 -0.3337 -0.1814 -0.3369
18002SOL    HW262785  10.875  11.970  11.141  0.8654  1.2165 -0.0493
18003SOL     OW62786   3.556   8.822   8.424  0.0098 -0.2803  0.2888
18003SOL    HW162787   3.603   8.826   8.507  0.7102 -0.7026 -0.0727
18003SOL    HW262788   3.574   8.734   8.390 -1.6939 -0.7263  0.4969
18004SOL     OW62789   7.385  10.609   1.321  0.0033 -0.7460 -0.1402
18004SOL    HW162790   7.398  10.576   1.410 -0.4654 -0.5791 -0.0070
18004SOL    HW262791   7.435  10.549   1.266  1.9606  0.3009  0.3996
18005SOL     OW62792   5.766  10.849  12.321  0.1629  0.8332 -0.6289
18005SOL    HW162793   5.849  10.895  12.320  0.4740  0.2852 -1.9762
18005SOL    HW262794   5.790  10.756  12.319 -0.4783  0.6656 -0.7312
18006SOL     OW62795   1.909   5.283   2.991 -0.8789 -0.6251 -0.1503
18006SOL    HW162796   1.817   5.289   2.964 -1.0312 -0.1158  0.4367
18006SOL    HW262797   1.951   5.229   2.924 -0.9875  1.4445 -1.9834
18007SOL     OW62798  11.732  10.793   4.020 -0.5078 -0.8407 -0.3965
18007SOL    HW162799  11.669  10.722   4.016 -1.8093  0.3353 -2.5828
18007SOL    HW262800  11.687  10.868   3.981  1.1289  0.9607  0.9414
18008SOL     OW62801  10.285   1.955   1.493  0.4159  0.6445 -0.0761
18008SOL    HW162802  10.277   2.012   1.416  0.9666  0.6496 -0.1368
18008SOL    HW262803  10.196   1.927   1.511  0.3871 -0.1611 -1.3321
18009SOL     OW62804   3.763  11.707   8.345 -0.2379  0.2658 -0.2437
18009SOL    HW162805   3.775  11.737   8.435  2.7666  0.4074 -0.6213
18009SOL    HW262806   3.701  11.769   8.307 -0.3936  1.0874  1.2815
18010SOL     OW62807   3.908  10.283   0.591  0.4021 -0.0496 -0.4729
18010SOL    HW162808   3.931  10.266   0.682 -0.1261  0.7835 -0.1765
18010SOL    HW262809   3.821  10.322   0.594  1.1590  1.7773 -1.1690
18011SOL     OW62810   0.052   6.690   0.225 -0.0747  0.0113  0.2551
18011SOL    HW162811   0.077   6.768   0.176 -0.0432 -1.0434 -1.4823
18011SOL    HW262812   0.133   6.662   0.267  0.1697  0.2833 -0.0273
18012SOL     OW62813   3.120   0.449  10.537  0.5355  0.3818 -0.3051
18012SOL    HW162814   3.142   0.413  10.623 -0.0570  1.7434  0.4530
18012SOL    HW262815   3.037   0.495  10.552  0.1817  0.2381 -1.7236
18013SOL     OW62816   4.808   3.660   1.355 -0.0819 -0.1306  0.7144
18013SOL    HW162817   4.886   3.692   1.310 -0.9019 -0.5327 -1.0955
18013SOL    HW262818   4.828   3.568   1.375 -0.3526 -0.4911 -0.5228
18014SOL     OW62819   5.290   1.987   9.065  0.4251 -0.1553  0.3634
18014SOL    HW162820   5.336   1.920   9.116  3.3995  0.8235 -0.7969
18014SOL    HW262821   5.239   1.938   9.001  0.4964 -1.3199  1.1620
18015SOL     OW62822  11.997   7.481   2.502  1.2703 -0.5975 -0.3878
18015SOL    HW162823  12.049   7.555   2.472  1.3865 -0.1570  0.8557
18015SOL    HW262824  11.924   7.520   2.550  0.7486 -1.2639 -0.6138
18016SOL     OW62825   3.612  11.990   4.266  0.2653 -0.5698 -0.0673
18016SOL    HW162826   3.680  12.054   4.286  0.4181 -0.5420 -0.6410
18016SOL    HW262827   3.658  11.906   4.264 -0.0507 -0.7946  1.3201
18017SOL     OW62828   2.574   2.421  11.907 -0.2010  0.6405  0.5588
18017SOL    HW162829   2.629   2.465  11.844  1.1930 -0.4037  0.9977
18017SOL    HW262830   2.499   2.390  11.856  0.4988  0.5187 -0.4274
18018SOL     OW62831   8.835   6.576   5.631  0.0346 -0.1889  0.5955
18018SOL    HW162832   8.902   6.634   5.594 -0.8160  0.6393  0.3251
18018SOL    HW262833   8.798   6.531   5.556  0.8187 -1.2604  0.8217
18019SOL     OW62834   6.689   4.486   4.723  0.2576 -0.2130 -0.3851
18019SOL    HW162835   6.605   4.464   4.761  0.1036 -2.1756 -1.7488
18019SOL    HW262836   6.669   4.552   4.657  0.2334  1.4951  1.2421
18020SOL     OW62837   7.388   8.070   6.598  0.1550 -0.3211  0.7057
18020SOL    HW162838   7.411   8.147   6.651  0.5333 -1.3258  2.0720
18020SOL    HW262839   7.388   8.102   6.508 -0.8759  1.5616  1.2987
18021SOL     OW62840   3.296  11.700   4.689 -0.4779  0.2014  0.2928
18021SOL    HW162841   3.296  11.759   4.764 -0.4800  0.1090  0.3663
18021SOL    HW262842   3.218  11.646   4.701 -0.9803  0.7959 -0.2622
18022SOL     OW62843   1.059   2.130  10.168 -0.2274  0.0900  0.3729
18022SOL    HW162844   0.974   2.090  10.148  0.5364 -1.0894 -0.6728
18022SOL    HW262845   1.074   2.110  10.260 -0.4636 -0.9039  0.2043
18023SOL     OW62846   4.222   1.945   5.482 -0.1000 -0.1445  0.1583
18023SOL    HW162847   4.165   1.939   5.406  1.3447 -1.7018 -0.8613
18023SOL    HW262848   4.222   2.038   5.505  0.7238  0.6678 -2.7933
18024SOL     OW62849   3.542   2.108   5.445 -0.3402  0.1373 -0.0662
18024SOL    HW162850   3.539   2.099   5.540  0.7334 -0.0428 -0.0439
18024SOL    HW262851   3.475   2.047   5.414  0.9036 -1.5774  0.4858
18025SOL     OW62852   4.942   1.214   2.013 -0.1492 -0.3293 -0.4215
18025SOL    HW162853   4.980   1.269   1.944 -0.9330 -0.7040 -1.1741
18025SOL    HW262854   4.848   1.212   1.992 -0.4265 -0.2883  0.7772
18026SOL     OW62855  11.772   6.690   5.045 -0.1267  0.7715  0.2562
18026SOL    HW162856  11.832   6.717   5.114 -1.0182  2.9557  0.2672
18026SOL    HW262857  11.829   6.654   4.977  0.9005  0.0823  1.4312
18027SOL     OW62858   6.923  12.575  12.421 -0.1923  0.2080  0.3867
18027SOL    HW162859   6.936  12.649  12.362  0.2271  1.1094  1.5699
18027SOL    HW262860   6.831  12.580  12.446 -0.3650 -0.1616 -0.1548
18028SOL     OW62861   3.572   3.183   3.277  0.1095 -0.3834 -0.3318
18028SOL    HW162862   3.591   3.222   3.192 -1.5772  0.8221 -0.2189
18028SOL    HW262863   3.585   3.089   3.265 -1.0240 -0.3427 -2.2231
18029SOL     OW62864   1.672   6.188   0.538 -1.0853  0.2582 -0.0526
18029SOL    HW162865   1.755   6.158   0.499 -0.9270  1.5033 -0.6963
18029SOL    HW262866   1.687   6.279   0.561 -1.0500 -0.4311  3.2970
18030SOL     OW62867   0.997  11.686  12.558  0.0959 -0.2514 -0.4151
18030SOL    HW162868   1.085  11.692  12.594 -0.4842  0.7966  0.9146
18030SOL    HW262869   0.995  11.750  12.487  0.0931  0.5304  0.2784
18031SOL     OW62870   6.024   9.211   6.528 -0.3649  0.1432  0.1698
18031SOL    HW162871   5.954   9.248   6.474 -1.5516 -1.2328  0.6862
18031SOL    HW262872   6.087   9.176   6.466 -1.0077 -0.1496 -0.3256
18032SOL     OW62873   5.220   9.871   9.187  0.2465 -0.3112 -0.0627
18032SOL    HW162874   5.213   9.809   9.260  0.8106  1.1225  1.2637
18032SOL    HW262875   5.305   9.913   9.199  0.5924 -0.4188 -1.8851
18033SOL     OW62876   2.117   0.809   8.866 -0.2385  0.3040  0.3861
18033SOL    HW162877   2.178   0.872   8.828 -0.7784  0.0795 -0.9117
18033SOL    HW262878   2.104   0.744   8.797 -1.7335  0.2123  0.7210
18034SOL     OW62879   7.243   7.815   7.347  0.4367  0.0412  0.0237
18034SOL    HW162880   7.172   7.768   7.390  0.4189 -1.1331 -1.2359
18034SOL    HW262881   7.202   7.854   7.269  1.0365 -0.1587 -0.4017
18035SOL     OW62882   9.406   3.982   9.690  0.3022  0.0487  0.6442
18035SOL    HW162883   9.454   3.908   9.652  1.7645  1.6984 -0.9465
18035SOL    HW262884   9.452   4.002   9.771  0.7148  0.0026  0.4253
18036SOL     OW62885   1.890  12.165   7.391 -0.3277  0.4751  0.0865
18036SOL    HW162886   1.959  12.135   7.450 -0.0843  1.0190  0.0854
18036SOL    HW262887   1.823  12.096   7.395  0.5146 -0.3950 -0.4464
18037SOL     OW62888   3.875   8.351   5.493  0.1501  0.5217 -0.2612
18037SOL    HW162889   3.922   8.303   5.425  0.7680 -0.3143  0.7286
18037SOL    HW262890   3.932   8.424   5.515  0.9794 -0.4416  0.8766
18038SOL     OW62891   8.637   7.115  11.887 -0.6215  0.4895  0.0263
18038SOL    HW162892   8.688   7.099  11.808  0.8327  0.5012  0.9174
18038SOL    HW262893   8.698   7.098  11.959 -2.2445 -0.7987  1.1942
18039SOL     OW62894   1.894   7.598   1.017  0.0991 -0.1029  0.0887
18039SOL    HW162895   1.826   7.554   0.966  0.5548 -0.6684 -0.0423
18039SOL    HW262896   1.893   7.554   1.102 -1.2255  1.3801  0.8980
18040SOL     OW62897   9.370   6.677   0.656  0.8733 -0.0862  0.4817
18040SOL    HW162898   9.318   6.622   0.598  1.8532  2.4386 -3.1075
18040SOL    HW262899   9.314   6.753   0.674  1.8529  0.8577 -0.2791
18041SOL     OW62900  12.052   7.119   4.771  0.3720  0.1505  0.2095
18041SOL    HW162901  12.106   7.138   4.695 -0.8817  2.1406 -0.2683
18041SOL    HW262902  11.968   7.162   4.752  0.6412  2.5668  3.5451
18042SOL     OW62903  10.040   8.805   2.300 -0.2558  0.2305  0.4058
18042SOL    HW162904  10.088   8.765   2.373  0.5445  1.7620  0.7603
18042SOL    HW262905  10.063   8.751   2.225 -0.2799 -0.7740  1.0950
18043SOL     OW62906   8.067  10.135   3.694 -0.5358 -0.6094  0.2770
18043SOL    HW162907   8.001  10.176   3.751 -1.2642  1.3330 -1.8048
18043SOL    HW262908   8.138  10.199   3.689 -0.6042 -0.6031 -1.1402
18044SOL     OW62909  11.380   3.560   5.771 -0.2227 -0.0213  0.0613
18044SOL    HW162910  11.302   3.534   5.820 -2.4156  2.5404 -1.7372
18044SOL    HW262911  11.378   3.507   5.692  0.5112 -0.7034  0.4874
18045SOL     OW62912   7.605  10.236   6.478  0.4129  0.1562 -0.2571
18045SOL    HW162913   7.553  10.313   6.457 -1.1217 -1.3927 -2.5799
18045SOL    HW262914   7.557  10.192   6.548  0.8178  0.7969  0.4402
18046SOL     OW62915   7.626   5.565   0.413  0.2988  0.7983  0.1271
18046SOL    HW162916   7.591   5.646   0.375  1.3282  0.8198 -0.8310
18046SOL    HW262917   7.699   5.594   0.467  0.8783  0.5057 -0.4766
18047SOL     OW62918   8.292   5.797  10.039 -0.0859  0.7449 -0.2748
18047SOL    HW162919   8.306   5.702  10.035 -0.3162  0.7356 -0.9958
18047SOL    HW262920   8.355   5.828  10.103  1.0698  0.2948 -1.1611
18048SOL     OW62921   2.966  12.369   8.855  0.6231  0.4272 -0.3078
18048SOL    HW162922   2.914  12.380   8.934  0.3746 -1.0192 -0.2442
18048SOL    HW262923   3.048  12.416   8.873  0.0020  1.3286  0.2265
18049SOL     OW62924  10.797   5.525   9.564 -0.0781 -0.2826 -0.8304
18049SOL    HW162925  10.751   5.493   9.487  0.0625  1.5257 -1.7140
18049SOL    HW262926  10.733   5.582   9.607  1.0320  1.6794 -1.6763
18050SOL     OW62927  11.007   8.195   2.701 -0.3126 -0.3641  0.3518
18050SOL    HW162928  11.084   8.163   2.749 -0.7562  0.4389  1.6389
18050SOL    HW262929  11.011   8.290   2.711 -0.3246 -0.1359 -1.3979
18051SOL     OW62930   4.068   6.873   5.394  0.0305 -0.7201  0.0898
18051SOL    HW162931   4.032   6.948   5.440 -0.4520 -0.8720 -0.0370
18051SOL    HW262932   3.999   6.807   5.398  0.8051 -1.5046  1.0388
18052SOL     OW62933   1.908   5.961   8.321 -0.5026  0.0001 -0.0135
18052SOL    HW162934   1.977   5.989   8.381  0.0980  1.8716 -1.5033
18052SOL    HW262935   1.840   5.926   8.379  0.1960  1.3858  1.7489
18053SOL     OW62936  10.848   3.022   5.546  0.3158  0.4465 -0.1568
18053SOL    HW162937  10.838   3.076   5.625 -0.3014 -0.4387  0.3886
18053SOL    HW262938  10.844   2.932   5.578 -0.2952  0.0739 -1.2491
18054SOL     OW62939   7.995  10.871   0.782 -0.1640 -0.0023  0.3775
18054SOL    HW162940   8.071  10.928   0.773 -0.4514  0.0901 -2.4283
18054SOL    HW262941   7.945  10.883   0.701 -0.0606 -4.4277 -0.6269
18055SOL     OW62942  11.443   7.177   5.417  0.9557 -0.1581 -0.6476
18055SOL    HW162943  11.436   7.131   5.333  1.0455 -0.4686 -0.4879
18055SOL    HW262944  11.375   7.243   5.414  0.8902 -0.2366 -0.9241
18056SOL     OW62945   6.353  11.035   0.146  0.2284 -0.3157 -0.1912
18056SOL    HW162946   6.331  10.994   0.230  0.1559 -2.4891 -1.2195
18056SOL    HW262947   6.340  11.129   0.162 -0.3104 -0.7067  2.0584
18057SOL     OW62948   6.530   7.602   4.790 -0.1576  0.3331 -0.1196
18057SOL    HW162949   6.592   7.539   4.826 -0.8643  0.4443  1.4262
18057SOL    HW262950   6.584   7.666   4.743  0.9357  0.5193  1.3097
18058SOL     OW62951   9.513   7.898   1.380  0.0889  0.1726 -0.3477
18058SOL    HW162952   9.437   7.939   1.339 -1.1048 -0.6390  0.9583
18058SOL    HW262953   9.488   7.806   1.390  0.3104  0.3161  2.0976
18059SOL     OW62954   7.765  10.148   1.309  0.4738  0.1808 -0.2246
18059SOL    HW162955   7.671  10.152   1.323  0.7552  0.1569  2.0224
18059SOL    HW262956   7.777  10.078   1.244 -1.0375  0.2504 -0.6050
18060SOL     OW62957   5.015   5.316   4.594  0.2036  0.1041  0.1197
18060SOL    HW162958   5.024   5.258   4.670 -0.0512 -1.0469 -0.7022
18060SOL    HW262959   4.969   5.393   4.628 -0.4174 -0.6447  1.0142
18061SOL     OW62960   4.338   2.908   1.472  0.0392  0.2947  0.5024
18061SOL    HW162961   4.351   2.889   1.565 -1.7251 -0.0968  0.7035
18061SOL    HW262962   4.422   2.887   1.431  0.9628  0.8188  2.0442
18062SOL     OW62963   6.647   6.541  11.430 -0.0768  0.4962 -0.0332
18062SOL    HW162964   6.616   6.492  11.506 -2.4448  1.4436 -0.3234
18062SOL    HW262965   6.659   6.474  11.362  2.2724 -0.3874  1.1215
18063SOL     OW62966   5.584   5.403   4.546  0.0522  0.2073  0.4210
18063SOL    HW162967   5.586   5.498   4.539 -0.9782  0.1624 -0.6033
18063SOL    HW262968   5.676   5.377   4.544  0.2811  1.0448 -1.5152
18064SOL     OW62969   1.023   8.501   5.883  0.3725  0.5766 -0.0848
18064SOL    HW162970   1.001   8.474   5.793 -0.7925 -0.5106  0.4961
18064SOL    HW262971   0.942   8.537   5.917  1.6840  4.3814 -0.5763
18065SOL     OW62972  11.764   4.190   2.576 -0.9439 -0.0635  0.2976
18065SOL    HW162973  11.856   4.190   2.549 -0.9000  1.3546  0.3559
18065SOL    HW262974  11.715   4.193   2.494 -0.8778  1.1132  0.2825
18066SOL     OW62975  12.117   4.804   8.308  0.0249  0.3144 -0.0512
18066SOL    HW162976  12.122   4.885   8.256  0.8717 -0.3209 -0.9871
18066SOL    HW262977  12.034   4.812   8.355  0.8821  2.5510  1.2809
18067SOL     OW62978   5.604   5.586   8.047  0.2851 -0.2752 -0.2384
18067SOL    HW162979   5.511   5.564   8.051  0.6989 -2.3477 -0.7761
18067SOL    HW262980   5.609   5.658   7.984 -0.9535 -0.0330 -0.0780
18068SOL     OW62981  10.734  10.358   6.449  0.3117  0.0778  0.2865
18068SOL    HW162982  10.747  10.373   6.543  0.5103 -0.4040  0.3420
18068SOL    HW262983  10.707  10.443   6.414 -2.1958 -0.2689  1.1923
18069SOL     OW62984   2.611   4.355   3.030 -0.4108  0.2911  0.1716
18069SOL    HW162985   2.669   4.430   3.015  0.0307 -0.0487  0.1889
18069SOL    HW262986   2.528   4.381   2.988  0.1083  0.2945 -0.8836
18070SOL     OW62987   2.693   9.029   7.612  0.1264 -0.1684  0.6271
18070SOL    HW162988   2.707   9.054   7.521  0.9325  1.3007  1.1127
18070SOL    HW262989   2.779   9.004   7.644  0.2376  1.1381  1.4567
18071SOL     OW62990   3.361  11.004   5.639  0.0936 -0.3808  0.6861
18071SOL    HW162991   3.290  11.028   5.699  0.4337 -0.3759  1.0925
18071SOL    HW262992   3.438  11.049   5.673  0.6222 -1.5714  1.1332
18072SOL     OW62993   3.592   6.058  12.467 -0.1556 -0.4589 -0.4145
18072SOL    HW162994   3.629   6.101  12.545 -1.6267  1.4201 -0.6836
18072SOL    HW262995   3.668   6.017  12.425  1.2097  1.0943  0.3886
18073SOL     OW62996  11.252   3.827  10.321 -0.9479 -0.1739  0.0206
18073SOL    HW162997  11.323   3.875  10.279  0.3155 -0.8797  1.2559
18073SOL    HW262998  11.237   3.874  10.403 -2.7464  0.6500 -0.7289
18074SOL     OW62999   4.148   8.250   9.307  0.3125 -0.3814  0.1109
18074SOL    HW163000   4.098   8.168   9.300  0.2810 -0.3359 -0.2236
18074SOL    HW263001   4.235   8.227   9.276  0.6118 -0.5498  1.0347
18075SOL     OW63002   1.996   5.275   6.480  0.1773 -0.0833  0.6037
18075SOL    HW163003   1.970   5.325   6.558 -1.3731 -0.6741  0.4896
18075SOL    HW263004   2.036   5.340   6.422  0.1688  0.6089  1.3566
18076SOL     OW63005   9.011   3.730   5.920  0.4727  0.3342  0.4455
18076SOL    HW163006   8.925   3.690   5.909  0.5242  0.1262  0.7851
18076SOL    HW263007   9.043   3.742   5.831 -0.1583  0.9624  0.2951
18077SOL     OW63008   8.425   5.197   3.298 -0.9058 -0.5132 -0.2213
18077SOL    HW163009   8.478   5.267   3.336 -0.8228 -0.9110  0.4054
18077SOL    HW263010   8.446   5.199   3.205 -0.2915 -0.2264 -0.0785
18078SOL     OW63011   3.948   6.677   3.734 -0.2597 -0.4129 -0.3532
18078SOL    HW163012   3.892   6.601   3.721  0.2967 -1.2338  1.7308
18078SOL    HW263013   3.916   6.717   3.815  1.7138 -0.5275  0.5263
18079SOL     OW63014   6.298   8.468   3.128  0.6873 -0.1205  0.7135
18079SOL    HW163015   6.211   8.486   3.091  1.1269 -0.6887 -0.6622
18079SOL    HW263016   6.304   8.372   3.127  1.2432 -0.0870  0.9910
18080SOL     OW63017   5.340   3.495   5.686  0.2060 -0.0380  0.6340
18080SOL    HW163018   5.288   3.520   5.610 -0.9068 -0.4502  1.2408
18080SOL    HW263019   5.413   3.557   5.687  0.7633 -0.6183 -1.2988
18081SOL     OW63020   7.621   1.631   4.437  0.3366 -0.4542  0.1219
18081SOL    HW163021   7.537   1.671   4.458  0.0940 -0.5604 -0.6026
18081SOL    HW263022   7.636   1.567   4.507 -0.4076 -0.7607  0.0085
18082SOL     OW63023   3.983   3.894   4.716 -0.4563  0.0504  0.1646
18082SOL    HW163024   4.025   3.957   4.657  0.5368 -1.2824 -0.6144
18082SOL    HW263025   4.056   3.841   4.748 -1.4196 -1.6501 -0.3664
18083SOL     OW63026   2.291   2.035   2.998  0.0723 -0.2571  0.2839
18083SOL    HW163027   2.229   2.053   2.928  1.4314  1.1349 -0.6207
18083SOL    HW263028   2.348   1.967   2.962  0.6658  0.3362  0.0838
18084SOL     OW63029   6.924   8.158  10.534 -0.4432  0.0369  0.3626
18084SOL    HW163030   6.931   8.206  10.617 -0.9984 -3.7316  2.8175
18084SOL    HW263031   7.014   8.134  10.512 -0.5085 -1.5713  1.6715
18085SOL     OW63032   7.990   1.395   9.105  0.2339 -0.3723  0.4038
18085SOL    HW163033   7.937   1.361   9.034  2.0652 -0.2981 -1.0723
18085SOL    HW263034   8.080   1.394   9.071  0.9676  1.2114  2.1057
18086SOL     OW63035   3.990   9.811   7.085  0.5704 -0.4113 -0.6994
18086SOL    HW163036   3.932   9.787   7.013 -1.1109  0.7180  0.2042
18086SOL    HW263037   3.938   9.871   7.139  2.3723  0.1509  0.5207
18087SOL     OW63038   5.373   4.448   6.688 -0.1886 -0.3232 -0.0259
18087SOL    HW163039   5.438   4.517   6.694  0.3442 -0.7050 -1.1219
18087SOL    HW263040   5.297   4.482   6.736 -0.2451  1.3884 -1.2318
18088SOL     OW63041  12.587   7.399   9.485 -0.0473  0.4559 -0.0830
18088SOL    HW163042  12.681   7.387   9.473 -0.2304 -0.1682 -1.0228
18088SOL    HW263043  12.564   7.337   9.555 -0.0261 -0.6321 -1.0110
18089SOL     OW63044   3.458   6.323   9.196  0.1600  0.1271 -0.3805
18089SOL    HW163045   3.536   6.303   9.146 -0.1292 -1.9501 -0.0846
18089SOL    HW263046   3.435   6.413   9.170  2.3269  0.6154 -0.8222
18090SOL     OW63047  11.381   6.151  11.072  0.0950 -0.0858  0.4331
18090SOL    HW163048  11.468   6.169  11.037  0.1071  0.4221  0.7080
18090SOL    HW263049  11.390   6.161  11.167 -1.0853  4.1110  0.3411
18091SOL     OW63050   7.780   1.339  10.135  0.0259 -0.0032  0.2114
18091SOL    HW163051   7.875   1.330  10.142  0.1798 -0.0358 -1.5088
18091SOL    HW263052   7.765   1.431  10.116 -0.1643 -0.2505 -0.9080
18092SOL     OW63053   6.357   6.974   3.347 -0.0574  0.0044  0.1656
18092SOL    HW163054   6.311   7.053   3.317  3.1866  1.9862 -0.0291
18092SOL    HW263055   6.393   6.935   3.268 -0.6934 -1.0694  0.3897
18093SOL     OW63056   6.283   3.317   5.335 -0.7488 -0.5491 -0.3305
18093SOL    HW163057   6.252   3.369   5.409  0.6382 -0.3895  0.1804
18093SOL    HW263058   6.207   3.305   5.279 -1.0586  2.3523 -0.6529
18094SOL     OW63059  11.284  10.357   3.131  0.1163 -0.3689 -0.0608
18094SOL    HW163060  11.356  10.346   3.069 -0.9214 -1.4089 -1.1486
18094SOL    HW263061  11.289  10.448   3.158 -0.7208  0.8781 -3.4939
18095SOL     OW63062   8.079   2.909   4.624  0.4110  0.1768 -0.6706
18095SOL    HW163063   8.041   2.947   4.704 -0.1375  1.9997 -1.7255
18095SOL    HW263064   8.092   2.985   4.567  2.8329 -0.7934 -1.5036
18096SOL     OW63065   1.068   7.713   9.632 -0.0892  0.3936  0.2809
18096SOL    HW163066   1.028   7.732   9.547 -1.6067  2.2388  1.3314
18096SOL    HW263067   1.035   7.627   9.655 -1.4625  0.8013 -0.0433
18097SOL     OW63068   0.440   0.612   6.052  0.3513 -0.4790  0.4762
18097SOL    HW163069   0.519   0.615   5.997  1.1769 -2.1022  1.5061
18097SOL    HW263070   0.411   0.703   6.057  2.1068  0.1414  0.0034
18098SOL     OW63071   3.283   2.324  10.993 -0.1269 -0.5993  0.2891
18098SOL    HW163072   3.191   2.309  11.016 -0.2506 -1.7882 -0.8218
18098SOL    HW263073   3.330   2.319  11.076 -1.1679  1.2215  1.0443
18099SOL     OW63074   3.871   5.305   8.176 -0.1915 -0.8056 -0.3404
18099SOL    HW163075   3.938   5.240   8.197  1.0540  0.6350  0.3621
18099SOL    HW263076   3.871   5.308   8.080  1.4681 -0.1861 -0.3661
18100SOL     OW63077   4.336   7.595   5.697 -0.1666 -0.7173 -0.3215
18100SOL    HW163078   4.356   7.646   5.776  0.6124 -3.0389  1.0783
18100SOL    HW263079   4.242   7.607   5.685 -0.3105 -0.3220  0.9866
18101SOL     OW63080   8.082   8.484   1.273  0.4833  0.4414  0.0362
18101SOL    HW163081   8.084   8.563   1.220  0.2454  0.6520  0.3351
18101SOL    HW263082   8.173   8.458   1.281  0.8312  1.9947  1.8677
18102SOL     OW63083  11.186   6.220   0.672 -0.4482 -0.5284 -0.3539
18102SOL    HW163084  11.109   6.209   0.616 -1.5751  0.7460  0.8308
18102SOL    HW263085  11.168   6.165   0.748  0.8574 -1.8971 -0.9874
18103SOL     OW63086   5.476   7.415   7.630 -0.3634  0.1171  0.1014
18103SOL    HW163087   5.545   7.463   7.677  0.9041  0.1836 -1.7044
18103SOL    HW263088   5.430   7.482   7.581  0.3079 -0.2717 -1.0981
18104SOL     OW63089   0.243   4.106   7.424 -0.3429 -0.2603  0.1835
18104SOL    HW163090   0.274   4.029   7.378 -3.9761 -1.0882 -1.2490
18104SOL    HW263091   0.226   4.075   7.514 -1.7876 -1.2220 -0.3818
18105SOL     OW63092   5.022   4.051   1.898 -0.2361  0.8255 -0.0105
18105SOL    HW163093   5.115   4.052   1.920 -0.3155 -0.9263  0.5216
18105SOL    HW263094   5.011   4.126   1.839  1.8577  0.1284 -1.4123
18106SOL     OW63095   4.561   2.099   3.154  0.2108  0.1566  0.5558
18106SOL    HW163096   4.623   2.071   3.222 -1.8433  0.9708  2.9541
18106SOL    HW263097   4.548   2.193   3.171  0.0197  0.5184 -1.3587
18107SOL     OW63098   9.264   9.071   3.799 -0.4540 -0.3039 -0.4331
18107SOL    HW163099   9.297   9.156   3.827 -1.9019 -0.2748  1.3397
18107SOL    HW263100   9.242   9.083   3.706 -0.1609  1.1014 -0.3390
18108SOL     OW63101  11.468   5.047   9.393  0.0100 -0.2836  0.0838
18108SOL    HW163102  11.431   5.121   9.441 -1.4402 -0.7494 -0.2628
18108SOL    HW263103  11.531   5.008   9.454  0.2497  0.7937  0.5401
18109SOL     OW63104   6.177   5.445   1.121  0.0864  0.3808 -0.6268
18109SOL    HW163105   6.238   5.511   1.155 -0.1480 -0.3851  1.4383
18109SOL    HW263106   6.120   5.424   1.196 -2.0001  0.2414 -2.1602
18110SOL     OW63107   4.544   6.227   3.218  0.4511  0.5041  0.7353
18110SOL    HW163108   4.556   6.281   3.140  1.6937 -0.0301  0.5253
18110SOL    HW263109   4.458   6.250   3.251  0.1753  1.2053 -0.4363
18111SOL     OW63110   5.466   4.327   4.532  0.6590 -0.4958 -0.0960
18111SOL    HW163111   5.491   4.399   4.475  0.2791 -0.7675 -0.6081
18111SOL    HW263112   5.528   4.332   4.605  0.2226  0.7568  0.2204
18112SOL     OW63113   1.994   8.704   3.755 -0.1944 -0.7732 -0.0523
18112SOL    HW163114   1.933   8.769   3.789 -0.1386 -1.7549  2.0962
18112SOL    HW263115   1.995   8.719   3.660  0.2085  2.6276  0.3863
18113SOL     OW63116   0.952   1.436   9.040 -0.2875 -0.4104  0.0877
18113SOL    HW163117   1.001   1.485   8.973  0.0933 -1.5370 -0.4805
18113SOL    HW263118   0.876   1.492   9.059  1.3623  1.5824  1.2897
18114SOL     OW63119   4.169   7.813   0.160 -0.2502  0.3411 -0.3031
18114SOL    HW163120   4.112   7.777   0.228 -0.4211  1.0271 -0.0751
18114SOL    HW263121   4.228   7.741   0.137 -1.8782 -0.7314 -1.2987
18115SOL     OW63122   1.349   6.263   0.055  0.2455 -0.4645  0.2563
18115SOL    HW163123   1.257   6.275   0.076  0.2178  0.8703 -0.5371
18115SOL    HW263124   1.352   6.184   0.001 -0.3801 -0.7052  0.5654
18116SOL     OW63125  10.807  10.396   3.454 -0.3822  0.1947  0.4263
18116SOL    HW163126  10.841  10.421   3.368  1.0891  0.2264  0.9959
18116SOL    HW263127  10.852  10.455   3.515  0.7438 -1.6876  1.4857
18117SOL     OW63128  11.253   4.122   0.350  0.0665  0.2137 -0.7535
18117SOL    HW163129  11.327   4.111   0.291  1.0134  2.0995 -0.0272
18117SOL    HW263130  11.182   4.155   0.295  1.1952  2.8002 -0.8040
18118SOL     OW63131  11.862   3.395   9.226 -0.1109  0.1839  0.4519
18118SOL    HW163132  11.956   3.404   9.245  0.2403 -0.7541 -0.7084
18118SOL    HW263133  11.841   3.305   9.254 -0.5270  0.1935  0.1806
18119SOL     OW63134   8.668   8.536   3.910  0.0088  0.1419  0.7056
18119SOL    HW163135   8.637   8.608   3.965 -1.4621 -0.0921  0.2501
18119SOL    HW263136   8.754   8.514   3.944  0.1220  1.5563  1.3937
18120SOL     OW63137   4.205   7.490   2.413 -0.4648  0.0522 -0.1085
18120SOL    HW163138   4.156   7.538   2.479 -1.1422  2.6295 -2.2739
18120SOL    HW263139   4.154   7.412   2.396 -0.8487 -0.0933  1.5679
18121SOL     OW63140  10.270  11.967   2.989 -0.5948 -0.0157 -0.5008
18121SOL    HW163141  10.356  11.962   2.948 -1.2688  0.0023 -1.9477
18121SOL    HW263142  10.284  12.026   3.064  0.0712  2.2000 -2.2640
18122SOL     OW63143   4.586   7.808  10.991  0.4003 -0.5003 -0.1385
18122SOL    HW163144   4.633   7.892  10.997  1.3983 -1.1475  2.1165
18122SOL    HW263145   4.654   7.742  11.007 -0.7008 -1.6557 -0.1232
18123SOL     OW63146   1.664   5.357   9.140  0.8832 -0.1200  0.5528
18123SOL    HW163147   1.589   5.416   9.136  1.6024  1.0316  2.4032
18123SOL    HW263148   1.629   5.277   9.180  0.0975 -0.6618 -1.1278
18124SOL     OW63149   2.842   0.622   8.362  0.1304  0.3560 -0.3025
18124SOL    HW163150   2.901   0.684   8.405 -1.2272  1.6611 -0.2688
18124SOL    HW263151   2.821   0.662   8.278 -0.9164  0.0491 -0.2047
18125SOL     OW63152   4.052   2.081   7.197 -0.4376  0.2119 -0.5398
18125SOL    HW163153   3.970   2.032   7.189 -1.4589  1.8200 -0.2886
18125SOL    HW263154   4.026   2.173   7.193  0.9839  0.8642  2.4276
18126SOL     OW63155   3.834   7.766   9.994  0.6601 -1.0800  0.3200
18126SOL    HW163156   3.742   7.755  10.018  0.7913 -1.3195  0.7293
18126SOL    HW263157   3.882   7.747  10.074  1.0276  0.0847  0.3847
18127SOL     OW63158  10.638   1.100   4.598 -0.1971 -0.1750 -0.9131
18127SOL    HW163159  10.663   1.171   4.537  0.3634  0.0039 -0.4871
18127SOL    HW263160  10.575   1.140   4.657 -0.7538 -0.3525 -1.3831
18128SOL     OW63161   7.241   1.554   9.362  0.4626 -0.2210  0.1237
18128SOL    HW163162   7.305   1.552   9.291  1.2675 -0.1777  0.8206
18128SOL    HW263163   7.177   1.487   9.339 -0.3353  1.0540 -1.5638
18129SOL     OW63164   1.641   1.451   0.297 -0.1573 -0.1433 -0.0366
18129SOL    HW163165   1.660   1.540   0.326 -1.4946  0.3891 -0.6901
18129SOL    HW263166   1.666   1.449   0.205 -0.9039 -0.1773 -0.2449
18130SOL     OW63167   3.208   0.576   4.390  0.4808  0.2102  0.8165
18130SOL    HW163168   3.122   0.537   4.404  0.8798 -0.7297  0.7383
18130SOL    HW263169   3.225   0.563   4.296  0.8523  0.0764  0.9002
18131SOL     OW63170   8.428   2.725   9.264 -0.3545 -0.1955  0.2510
18131SOL    HW163171   8.385   2.731   9.350  1.5961 -0.8709  1.3393
18131SOL    HW263172   8.390   2.796   9.213 -2.3884 -0.4685  1.2658
18132SOL     OW63173   8.377   0.963   1.660  0.1890 -0.4038  0.0330
18132SOL    HW163174   8.361   0.935   1.750  1.6873  0.3429  0.5620
18132SOL    HW263175   8.462   1.006   1.663 -0.0624  0.2781 -1.6066
18133SOL     OW63176   4.818   5.668   3.292 -0.3012 -0.6026 -0.1117
18133SOL    HW163177   4.763   5.618   3.352  0.1634 -1.7776 -0.6532
18133SOL    HW263178   4.760   5.737   3.259 -0.6941 -0.2238  1.3079
18134SOL     OW63179  10.641   2.361  10.685  0.3856 -0.3551  0.4594
18134SOL    HW163180  10.676   2.292  10.742 -0.1860 -0.9730  0.0835
18134SOL    HW263181  10.715   2.387  10.630  0.3884 -1.3292 -0.0202
18135SOL     OW63182   5.690   7.257   3.480  0.1744  0.6287 -0.0527
18135SOL    HW163183   5.697   7.244   3.385 -0.9262 -0.8127  0.0320
18135SOL    HW263184   5.764   7.314   3.502  1.0175  0.2107 -1.6447
18136SOL     OW63185   4.552   4.055  12.228  0.4114  0.3093  0.0598
18136SOL    HW163186   4.525   4.015  12.310  0.7298 -1.8087 -0.8166
18136SOL    HW263187   4.474   4.051  12.172  1.2008 -1.8465 -1.0016
18137SOL     OW63188   5.178   6.189   1.567  0.4447 -0.0312  0.0360
18137SOL    HW163189   5.206   6.276   1.595  0.0081  0.1701 -0.1509
18137SOL    HW263190   5.225   6.174   1.485  0.5712  0.0012  0.1023
18138SOL     OW63191   5.922   7.209   2.344 -0.3965  0.5535  0.5497
18138SOL    HW163192   5.960   7.215   2.431  0.7775 -1.8678  0.2596
18138SOL    HW263193   5.844   7.265   2.349 -1.2649 -0.6914  3.6417
18139SOL     OW63194   9.421   7.391  10.961 -0.0806  0.5604 -0.0342
18139SOL    HW163195   9.393   7.327  10.896  0.7600  0.6919 -0.5522
18139SOL    HW263196   9.434   7.341  11.041 -0.7666  0.3284 -0.0656
18140SOL     OW63197   2.850   8.723   0.742 -0.3647 -0.4933 -0.3698
18140SOL    HW163198   2.906   8.796   0.767 -0.2950 -0.5932 -0.2299
18140SOL    HW263199   2.892   8.686   0.664 -0.7885  0.0505 -0.8583
18141SOL     OW63200   2.484   4.002  10.922 -0.9024 -0.2433 -0.6227
18141SOL    HW163201   2.416   4.068  10.907 -1.8034 -1.1694 -0.6616
18141SOL    HW263202   2.566   4.052  10.922 -1.4733  0.7385 -1.7265
18142SOL     OW63203   7.347   6.415   8.895  0.5999  0.2684 -0.4486
18142SOL    HW163204   7.358   6.381   8.806 -2.7724 -1.0750 -0.4882
18142SOL    HW263205   7.307   6.501   8.883 -0.2148 -0.0766 -0.2484
18143SOL     OW63206   4.930  11.815   0.566 -0.3100 -0.3497 -0.0010
18143SOL    HW163207   4.995  11.745   0.575  1.3527  1.1037 -0.1663
18143SOL    HW263208   4.884  11.796   0.485 -0.6003 -1.7920  0.4781
18144SOL     OW63209   1.900   7.126  11.553  0.0896  0.8679  0.4130
18144SOL    HW163210   1.986   7.153  11.521  0.8023 -0.2620  1.3300
18144SOL    HW263211   1.865   7.070  11.484 -0.0915  1.6365 -0.1327
18145SOL     OW63212   7.656   2.164   0.934 -0.1082 -0.3761  0.0022
18145SOL    HW163213   7.693   2.151   1.021 -0.9148 -2.6745  0.0815
18145SOL    HW263214   7.719   2.221   0.889  0.1461  1.1530  2.1507
18146SOL     OW63215   1.026  11.123  12.601  0.0943 -0.2151 -0.3098
18146SOL    HW163216   1.028  11.204  12.551 -0.8158  1.7915  2.6250
18146SOL    HW263217   1.116  11.110  12.631 -0.2976  1.6094  1.8613
18147SOL     OW63218  10.867   3.001   0.250 -0.3625  0.0233 -0.2600
18147SOL    HW163219  10.940   3.008   0.312 -0.6941  1.6948 -0.0295
18147SOL    HW263220  10.842   3.091   0.232 -2.9050 -0.4925  0.3112
18148SOL     OW63221   1.530   8.790   8.089 -0.2841 -0.2555 -0.3502
18148SOL    HW163222   1.494   8.858   8.146  0.0903 -0.1593 -0.2250
18148SOL    HW263223   1.496   8.708   8.125  1.8877 -0.4180  1.5244
18149SOL     OW63224   0.237   3.682   9.207  0.3587 -0.2418 -0.1129
18149SOL    HW163225   0.263   3.599   9.167  1.3698 -0.4170  0.8541
18149SOL    HW263226   0.147   3.668   9.238 -0.2386 -0.2772 -1.7686
18150SOL     OW63227   0.693   3.722   3.608  0.3289 -0.1057  0.0589
18150SOL    HW163228   0.606   3.719   3.569  0.1720  0.7649  0.3130
18150SOL    HW263229   0.683   3.678   3.693  0.4371 -1.1050 -0.4309
18151SOL     OW63230   0.135  12.172   8.787 -0.2853 -0.0528  0.4979
18151SOL    HW163231   0.134  12.262   8.821  0.9750 -0.3187  1.3015
18151SOL    HW263232   0.107  12.118   8.861  0.2418 -0.4354  0.4224
18152SOL     OW63233  10.535   5.259   4.538  0.6336 -0.2512  0.3259
18152SOL    HW163234  10.523   5.333   4.596  0.2234  0.1926 -0.3119
18152SOL    HW263235  10.626   5.232   4.550  0.7604  0.3107  0.6097
18153SOL     OW63236  12.031   7.922   3.403  0.0505 -0.1138  0.1719
18153SOL    HW163237  12.088   7.846   3.390 -0.1929 -0.4159  0.8586
18153SOL    HW263238  12.089   7.998   3.392  0.1612 -0.3609 -1.2303
18154SOL     OW63239   4.754   8.978   5.866 -0.3125 -0.2114  0.2894
18154SOL    HW163240   4.797   9.017   5.789  0.8302 -0.0049  1.0109
18154SOL    HW263241   4.683   8.925   5.829  0.1450 -0.0314 -0.9062
18155SOL     OW63242   6.088  10.769   9.997 -0.0750  0.2686  0.0406
18155SOL    HW163243   6.004  10.800  10.030  0.3045 -0.7062  2.0356
18155SOL    HW263244   6.075  10.759   9.902 -1.0369  3.7381 -0.3342
18156SOL     OW63245   2.456  11.526   8.611  0.1343 -0.4023 -0.0238
18156SOL    HW163246   2.516  11.601   8.613 -2.0637  1.4962 -0.6738
18156SOL    HW263247   2.494  11.467   8.545  1.2094  0.7966 -0.5339
18157SOL     OW63248  11.148  11.862   6.323  0.1084  0.0585 -0.6108
18157SOL    HW163249  11.166  11.772   6.297 -1.7369 -0.3689 -0.5147
18157SOL    HW263250  11.188  11.915   6.255  2.2245 -0.7593 -0.0681
18158SOL     OW63251   5.795   4.003   3.530  0.1461  0.3297 -0.5217
18158SOL    HW163252   5.713   4.020   3.483 -0.3417 -1.6679 -0.4789
18158SOL    HW263253   5.819   4.088   3.567 -0.9466  1.3483 -2.0228
18159SOL     OW63254   6.125   5.272   0.565 -0.1368  0.1780  0.4931
18159SOL    HW163255   6.142   5.224   0.646 -0.9039  0.6410  0.9381
18159SOL    HW263256   6.137   5.364   0.588  1.2580  0.2362 -0.3350
18160SOL     OW63257   9.261  12.341   8.430 -0.2392 -0.4233 -0.6343
18160SOL    HW163258   9.217  12.277   8.486  0.3367  0.2865  0.6936
18160SOL    HW263259   9.341  12.297   8.400  0.3110 -0.2655  0.5250
18161SOL     OW63260   1.359   7.649   7.282  0.3502  0.1233 -0.0436
18161SOL    HW163261   1.419   7.720   7.304  0.4080  0.5205 -1.3696
18161SOL    HW263262   1.408   7.569   7.302  0.1097  0.4182  1.9173
18162SOL     OW63263   3.051   6.802   7.475  0.1252  0.7276  0.1022
18162SOL    HW163264   3.034   6.848   7.557 -0.1955  2.1486 -0.7234
18162SOL    HW263265   2.990   6.727   7.477  0.6781  0.2817  1.4850
18163SOL     OW63266  12.202   5.109   9.513  0.1159 -1.1001  0.1661
18163SOL    HW163267  12.177   5.017   9.501 -1.2747 -0.7348  0.0737
18163SOL    HW263268  12.135   5.158   9.465 -1.0322  0.0969  2.8256
18164SOL     OW63269   9.418   7.838  11.200 -0.1020 -0.0960  0.0167
18164SOL    HW163270   9.384   7.783  11.129 -1.4398 -0.4574  0.9061
18164SOL    HW263271   9.341   7.884  11.234  0.6421  0.6333  0.7526
18165SOL     OW63272   4.325   5.612   6.231  0.2789 -0.1534 -0.4511
18165SOL    HW163273   4.409   5.617   6.277 -0.3103  0.5713  0.6037
18165SOL    HW263274   4.326   5.527   6.188  0.9353 -0.8140  0.8009
18166SOL     OW63275   9.932   2.943   3.124  0.4433 -0.3016  0.3105
18166SOL    HW163276   9.945   2.862   3.075  1.3792  0.5894 -1.0019
18166SOL    HW263277   9.841   2.940   3.152  0.0827 -1.1932 -0.8902
18167SOL     OW63278   7.809   0.645  10.786 -0.1525 -0.0355  0.4888
18167SOL    HW163279   7.868   0.572  10.805 -0.7502 -0.5063  0.5491
18167SOL    HW263280   7.721   0.607  10.789 -0.3748 -0.0134 -2.5709
18168SOL     OW63281   2.759   1.169   6.269  0.2205  0.2197 -0.3229
18168SOL    HW163282   2.668   1.196   6.260  0.6875  1.7795 -0.5696
18168SOL    HW263283   2.754   1.075   6.289 -1.3886  0.0144 -1.4997
18169SOL     OW63284  10.740   5.170   0.233 -0.0657  0.4292  0.7924
18169SOL    HW163285  10.830   5.164   0.198 -0.8336  1.1113 -1.5126
18169SOL    HW263286  10.708   5.079   0.229  0.5219  0.1655  1.7176
18170SOL     OW63287   9.217   7.494   2.593 -0.1251  0.8088 -0.3973
18170SOL    HW163288   9.222   7.398   2.594 -0.2907  0.8007 -0.0018
18170SOL    HW263289   9.251   7.520   2.679  0.7471  1.1481 -0.8318
18171SOL     OW63290  11.175   2.025  11.026  0.0334  0.0584 -0.3911
18171SOL    HW163291  11.167   2.117  11.050  0.1545  0.1174 -0.5736
18171SOL    HW263292  11.084   1.993  11.022  0.0050  0.0994 -0.0672
18172SOL     OW63293   3.925   1.057   4.630 -0.3479  0.1147 -0.3528
18172SOL    HW163294   3.850   1.025   4.580  0.2392 -1.1336 -0.4767
18172SOL    HW263295   3.887   1.100   4.706 -1.2064  0.2852 -0.8630
18173SOL     OW63296   0.525   0.857   8.149 -1.0161 -0.0287  0.0927
18173SOL    HW163297   0.487   0.940   8.119  0.1599 -0.0358 -1.5827
18173SOL    HW263298   0.498   0.794   8.083 -1.7078 -0.9739  1.2370
18174SOL     OW63299  12.072   5.486   8.229  0.2845 -0.0239 -0.9312
18174SOL    HW163300  12.158   5.521   8.206  0.1466  2.5416  1.8531
18174SOL    HW263301  12.018   5.502   8.151  1.8978 -0.2076 -2.1365
18175SOL     OW63302   1.446   1.876   6.388 -0.2725  0.1118  0.2881
18175SOL    HW163303   1.403   1.957   6.416 -0.7805  0.7555 -2.1670
18175SOL    HW263304   1.502   1.902   6.315 -1.0543 -1.8397 -1.1036
18176SOL     OW63305   7.967   4.177   7.326 -0.2060 -0.0220  0.3816
18176SOL    HW163306   7.889   4.154   7.275  0.0846  2.4556 -1.3965
18176SOL    HW263307   7.936   4.244   7.388  0.4323  0.9660 -0.3255
18177SOL     OW63308  12.111   2.819   2.608  0.3225  0.1639 -0.7267
18177SOL    HW163309  12.049   2.890   2.625 -0.7209 -0.4153 -1.9865
18177SOL    HW263310  12.077   2.745   2.657 -0.9750 -0.6334 -2.7350
18178SOL     OW63311   6.679   3.386   8.198 -0.5835 -0.1959  0.0735
18178SOL    HW163312   6.615   3.412   8.264 -1.4804 -1.6420 -0.1973
18178SOL    HW263313   6.764   3.399   8.240 -1.1326 -1.0168  1.4934
18179SOL     OW63314   0.052   4.556   7.110 -0.2398  0.5555  0.0512
18179SOL    HW163315   0.115   4.498   7.069 -1.4845 -0.8065 -0.0372
18179SOL    HW263316   0.016   4.504   7.182  0.3670  2.1263  1.5473
18180SOL     OW63317   9.435   5.989   1.337  0.4511  0.4465  0.5643
18180SOL    HW163318   9.500   5.972   1.405  1.2075  0.9223 -0.0101
18180SOL    HW263319   9.374   5.916   1.342  0.8307  0.1784  1.3595
18181SOL     OW63320   8.664   2.630   5.823  0.0440 -0.1864 -0.3629
18181SOL    HW163321   8.592   2.681   5.786  0.4511  2.3307  2.0102
18181SOL    HW263322   8.623   2.580   5.894  0.6551  2.1157  1.7507
18182SOL     OW63323   9.961  10.497   7.104  0.2453  0.2569  0.0486
18182SOL    HW163324   9.953  10.512   7.010 -1.5042 -0.8975 -0.0326
18182SOL    HW263325  10.048  10.458   7.115 -0.1441 -1.0887 -1.3275
18183SOL     OW63326  11.970   0.847   1.532  0.2410  0.2014  0.4477
18183SOL    HW163327  12.045   0.787   1.536  1.0364  1.0917 -0.6946
18183SOL    HW263328  11.973   0.894   1.615  1.7194  1.1017 -0.0834
18184SOL     OW63329   7.112   2.789   8.481  0.3769  0.5684 -0.1945
18184SOL    HW163330   7.122   2.752   8.569 -2.6667 -1.4070 -0.4994
18184SOL    HW263331   7.075   2.876   8.496  0.1280  0.3542  0.4864
18185SOL     OW63332   9.921   1.509  10.214  0.5995  0.0191  0.4019
18185SOL    HW163333   9.944   1.482  10.126 -1.3348 -1.2950  0.2317
18185SOL    HW263334   9.950   1.437  10.270  1.7903  0.8305  0.8632
18186SOL     OW63335  10.680   7.520   4.632 -0.8114 -0.4838 -0.3207
18186SOL    HW163336  10.766   7.561   4.626 -1.2037  0.3007 -0.6057
18186SOL    HW263337  10.618   7.591   4.618 -1.5771 -0.6014  2.1431
18187SOL     OW63338   4.489   6.737   3.322  0.2601 -0.5935 -0.6509
18187SOL    HW163339   4.405   6.710   3.285  1.0510 -1.8074 -1.6422
18187SOL    HW263340   4.519   6.660   3.372  0.3840  0.1410  0.4502
18188SOL     OW63341  10.008   4.644   6.707  0.7515 -0.2166  0.4708
18188SOL    HW163342   9.940   4.586   6.673 -0.8868  1.4726  0.6284
18188SOL    HW263343   9.975   4.670   6.793  0.3423  2.4367 -0.3720
18189SOL     OW63344   5.002  12.094   3.425 -0.5328  0.2089 -0.0775
18189SOL    HW163345   4.934  12.129   3.367  0.4445  0.9261 -0.8340
18189SOL    HW263346   5.007  12.157   3.497  0.8924  1.4802 -1.1976
18190SOL     OW63347   4.807  12.126   8.211 -0.3375 -0.9356 -0.0881
18190SOL    HW163348   4.774  12.120   8.121  0.1412  1.3393 -0.4692
18190SOL    HW263349   4.901  12.109   8.203  0.0625  1.2226 -0.3616
18191SOL     OW63350  10.825   0.594   7.166  0.2233  0.0259 -0.6390
18191SOL    HW163351  10.738   0.573   7.200 -0.6724 -0.3856 -2.9752
18191SOL    HW263352  10.811   0.668   7.108  1.7075  0.8448 -0.0121
18192SOL     OW63353   8.419   6.759  11.671  0.5071 -0.6076  0.3833
18192SOL    HW163354   8.504   6.717  11.686  0.9290  0.2201  0.3952
18192SOL    HW263355   8.356   6.688  11.671  1.3760 -1.4308 -1.1553
18193SOL     OW63356  12.244   4.299   5.646  0.5494  0.2500  0.1590
18193SOL    HW163357  12.336   4.274   5.651  0.5874 -0.8650 -3.2370
18193SOL    HW263358  12.197   4.218   5.669  0.4917  0.1233 -0.3851
18194SOL     OW63359  11.146  10.839   3.725 -0.0548 -0.2874 -0.6130
18194SOL    HW163360  11.154  10.781   3.800 -0.2458 -0.5624 -0.8045
18194SOL    HW263361  11.174  10.787   3.650 -0.0624 -0.0799 -0.7635
18195SOL     OW63362   6.377  10.518   3.316 -0.4993 -0.3998 -0.0912
18195SOL    HW163363   6.295  10.518   3.366  0.3821  1.8541  1.5428
18195SOL    HW263364   6.409  10.428   3.322  0.0334 -0.1798  4.5298
18196SOL     OW63365   1.546   3.737  11.570 -0.7404 -0.3395 -0.1649
18196SOL    HW163366   1.551   3.679  11.646  2.2103 -0.0493 -0.0432
18196SOL    HW263367   1.614   3.706  11.510 -0.6972  1.5200 -1.1672
18197SOL     OW63368  10.838   5.857   6.384  0.4065 -0.5483 -0.1864
18197SOL    HW163369  10.898   5.840   6.456 -1.7554 -0.4844  1.7078
18197SOL    HW263370  10.892   5.904   6.319  2.2738 -0.1245  1.5754
18198SOL     OW63371   4.932   0.309   1.218  0.0731  0.1005  0.3838
18198SOL    HW163372   5.010   0.329   1.167 -0.5594 -0.6212 -0.9220
18198SOL    HW263373   4.882   0.248   1.163 -0.2700 -1.3476  2.1892
18199SOL     OW63374   7.299   2.460   3.300  0.0312  0.3953 -0.1974
18199SOL    HW163375   7.210   2.446   3.333 -0.4760  0.0861 -1.6427
18199SOL    HW263376   7.335   2.372   3.292  0.0326  0.4485 -0.7722
18200SOL     OW63377   8.386   3.355  12.283 -0.2412  0.3352 -0.0974
18200SOL    HW163378   8.394   3.317  12.196 -0.0444  0.0713  0.0357
18200SOL    HW263379   8.296   3.336  12.310 -0.1498 -0.0198 -0.0392
18201SOL     OW63380   4.389   2.122   4.439 -0.3615 -0.0727 -0.0821
18201SOL    HW163381   4.434   2.131   4.523 -0.6265 -2.4175  0.3816
18201SOL    HW263382   4.334   2.045   4.449 -2.6773  1.2590 -1.4622
18202SOL     OW63383   6.064  10.064   7.320 -0.4360  0.6294 -0.2659
18202SOL    HW163384   5.969  10.075   7.317 -0.6063 -0.6992 -0.4717
18202SOL    HW263385   6.097  10.149   7.349 -1.6588  1.2081 -0.4920
18203SOL     OW63386   5.255   6.198   3.285 -0.3806  0.2086 -0.3316
18203SOL    HW163387   5.171   6.189   3.331 -0.5050  1.2222 -0.3315
18203SOL    HW263388   5.295   6.112   3.292 -0.0597  0.4726  2.3594
18204SOL     OW63389   8.967   2.157   4.022  0.4807  0.3479 -0.6336
18204SOL    HW163390   9.036   2.190   3.965  1.9227 -0.9736  0.2591
18204SOL    HW263391   8.989   2.189   4.109 -1.4383  1.9529 -0.6629
18205SOL     OW63392   4.760  10.788   5.605 -0.0469 -0.5445 -0.1952
18205SOL    HW163393   4.829  10.818   5.547 -0.0638  2.0454  0.9658
18205SOL    HW263394   4.695  10.748   5.547 -0.1270  2.0169 -2.0372
18206SOL     OW63395   4.661   5.986   9.435  0.1813 -0.8482  0.3524
18206SOL    HW163396   4.681   5.926   9.363 -0.7699 -0.1167 -0.5592
18206SOL    HW263397   4.593   5.941   9.486 -2.3320  0.3353 -1.6997
18207SOL     OW63398   2.091   5.751   3.414  0.6235  0.2245  0.4412
18207SOL    HW163399   2.051   5.713   3.337  2.1843  0.6198 -0.6093
18207SOL    HW263400   2.019   5.795   3.460 -0.3625 -0.2082 -0.6549
18208SOL     OW63401  12.549   1.604   7.253 -0.1441  0.4759  0.4094
18208SOL    HW163402  12.487   1.538   7.283  0.4169  0.8615  2.5615
18208SOL    HW263403  12.606   1.619   7.328 -0.4564  3.6741  0.1312
18209SOL     OW63404   5.608   8.685   2.926 -0.3070 -0.5569  0.4684
18209SOL    HW163405   5.526   8.658   2.884 -0.5235 -0.2106  0.6738
18209SOL    HW263406   5.592   8.674   3.020 -0.8995  1.6290  0.6773
18210SOL     OW63407  12.006   5.108   4.641 -0.1970 -0.0772 -0.3118
18210SOL    HW163408  12.003   5.048   4.567 -0.2985 -0.9570  0.3940
18210SOL    HW263409  12.043   5.057   4.713 -1.6306  0.2575  0.7095
18211SOL     OW63410   4.536   8.538  10.870  0.4635  0.2218  0.3628
18211SOL    HW163411   4.461   8.507  10.921  0.1081  1.6075  0.7428
18211SOL    HW263412   4.501   8.612  10.820  1.5030  0.6731  0.2836
18212SOL     OW63413   0.213   3.096   1.603 -0.4949 -0.3758 -0.0266
18212SOL    HW163414   0.205   3.066   1.512 -1.3076 -1.4072  0.3644
18212SOL    HW263415   0.140   3.054   1.648  1.0705 -1.5585  1.5411
18213SOL     OW63416   6.475   5.413   2.090 -0.4973 -0.1600  0.6991
18213SOL    HW163417   6.512   5.397   2.003 -0.9934 -0.8831  0.6198
18213SOL    HW263418   6.433   5.331   2.115 -2.5833  0.7994  0.5507
18214SOL     OW63419   5.340   6.704   5.625 -0.4355 -0.6149  0.0162
18214SOL    HW163420   5.387   6.662   5.697 -1.1724  1.3430  1.7291
18214SOL    HW263421   5.279   6.637   5.594 -1.5156 -0.9015  2.5927
18215SOL     OW63422   4.204  11.830   7.183 -0.0065 -0.3622  0.0400
18215SOL    HW163423   4.169  11.913   7.216  0.3438 -0.9332  1.9586
18215SOL    HW263424   4.148  11.808   7.109 -0.1209  1.5593 -0.4933
18216SOL     OW63425   0.538   4.853   9.716  0.4146  0.0144 -0.1439
18216SOL    HW163426   0.579   4.938   9.735  0.2441 -0.1169  0.8334
18216SOL    HW263427   0.445   4.868   9.729  0.5683 -0.9647  2.6852
18217SOL     OW63428   7.666   0.850  10.007  0.2395  0.3691 -0.7426
18217SOL    HW163429   7.741   0.793  10.017  0.5163  0.8359 -0.0943
18217SOL    HW263430   7.698   0.937  10.033 -0.7416  0.4182  0.4106
18218SOL     OW63431   4.766   4.132  12.093  0.3095 -0.0205 -0.6366
18218SOL    HW163432   4.694   4.087  12.137  1.4149 -2.1384 -0.8736
18218SOL    HW263433   4.803   4.189  12.161  0.6275 -1.6057  0.5790
18219SOL     OW63434   7.901   3.928   1.391 -0.0283  0.3431 -0.3829
18219SOL    HW163435   7.848   3.995   1.433 -1.5642 -0.9168 -0.2130
18219SOL    HW263436   7.991   3.947   1.419 -0.8616  0.0637  2.8963
18220SOL     OW63437   2.837   5.546   9.728  0.4139 -0.4543 -0.0872
18220SOL    HW163438   2.849   5.640   9.727 -0.3769 -0.3328  0.6369
18220SOL    HW263439   2.864   5.519   9.815 -2.0879 -0.4785  0.7570
18221SOL     OW63440   3.320   7.167  12.582  0.2940 -0.0600  0.0961
18221SOL    HW163441   3.400   7.194  12.628 -1.1665  0.1587  2.6780
18221SOL    HW263442   3.270   7.248  12.572 -1.4472 -0.7611  2.4267
18222SOL     OW63443   7.450   6.736   5.252 -0.6405  0.5790  0.1778
18222SOL    HW163444   7.522   6.741   5.189  0.2706  0.9391  1.2256
18222SOL    HW263445   7.452   6.646   5.284 -1.0242  0.4331 -0.1815
18223SOL     OW63446   2.755  12.561   6.236 -0.6232  0.2839 -0.2895
18223SOL    HW163447   2.832  12.555   6.180  0.8914 -0.1915  1.7342
18223SOL    HW263448   2.777  12.627   6.301 -2.1946  0.5830 -0.0173
18224SOL     OW63449   0.919   8.767   1.623  0.3611  0.5030 -0.4609
18224SOL    HW163450   0.890   8.737   1.709  0.2547  1.0861 -0.2906
18224SOL    HW263451   0.905   8.692   1.566 -2.2380  0.9731 -0.5549
18225SOL     OW63452   1.249  11.736   0.038 -0.2458 -0.6970  0.0047
18225SOL    HW163453   1.302  11.656   0.043 -0.8949 -1.0701  1.4481
18225SOL    HW263454   1.289  11.795   0.101  0.0420  0.0324 -0.8375
18226SOL     OW63455   2.459  12.479   0.846  0.3414 -0.0174  0.2283
18226SOL    HW163456   2.534  12.470   0.786 -0.2233 -0.2448 -0.4474
18226SOL    HW263457   2.447  12.392   0.883 -0.0254 -0.1567 -0.2018
18227SOL     OW63458   0.820   8.747   0.005 -0.2278 -0.0522  0.2524
18227SOL    HW163459   0.728   8.722   0.010 -0.4259  0.6495  0.2557
18227SOL    HW263460   0.833   8.806   0.080 -0.5800  2.3336 -1.4683
18228SOL     OW63461   9.284   8.921  11.603  0.3910  0.1807 -0.8973
18228SOL    HW163462   9.374   8.890  11.613  0.4680  0.9855  1.3940
18228SOL    HW263463   9.232   8.842  11.592  0.7413 -0.8649  3.5066
18229SOL     OW63464   5.247   1.510   4.420  0.2716  0.3684  0.0146
18229SOL    HW163465   5.318   1.474   4.367 -0.8198 -2.3410  0.1835
18229SOL    HW263466   5.289   1.540   4.501  1.4658  0.9207 -0.7901
18230SOL     OW63467  10.002   2.271   7.260  0.1402 -0.0927 -0.6781
18230SOL    HW163468  10.080   2.235   7.218 -0.6942  0.0273 -2.4248
18230SOL    HW263469   9.968   2.335   7.198 -1.1163  0.1724  0.2331
18231SOL     OW63470   4.470   2.319   3.727 -0.0357  0.1163  0.3642
18231SOL    HW163471   4.516   2.240   3.699  0.7016  0.7766 -0.3729
18231SOL    HW263472   4.405   2.334   3.658  0.1218  0.3837  0.2711
18232SOL     OW63473   4.642   3.840  11.948 -0.5105 -0.4403 -0.8097
18232SOL    HW163474   4.706   3.863  12.016 -1.1481 -1.0773  0.0132
18232SOL    HW263475   4.569   3.901  11.962 -0.3438 -0.1014 -1.3817
18233SOL     OW63476   2.978   9.351   1.089 -0.5008  0.2332  0.0122
18233SOL    HW163477   2.885   9.342   1.107 -0.4892  0.0220 -0.0378
18233SOL    HW263478   2.991   9.311   1.003 -0.2781 -0.1833  0.2365
18234SOL     OW63479   4.114   2.759  11.848  0.6505 -0.4043 -0.2939
18234SOL    HW163480   4.160   2.811  11.783  0.3190 -0.4714 -0.5859
18234SOL    HW263481   4.179   2.697  11.881  1.0521  0.2052  0.0717
18235SOL     OW63482   2.367  12.084   9.977 -0.2841 -0.1106  0.5020
18235SOL    HW163483   2.322  12.081   9.893  1.1079 -0.0868 -0.2768
18235SOL    HW263484   2.415  12.167   9.976 -0.2684 -0.1044  1.3197
18236SOL     OW63485   4.131   5.890   2.305  0.3212 -0.1015 -0.1843
18236SOL    HW163486   4.037   5.880   2.294  0.3990  0.5859 -1.6889
18236SOL    HW263487   4.167   5.804   2.287 -0.1054 -0.8287  2.1213
18237SOL     OW63488   1.496   4.151   5.760 -0.0570  0.1613 -0.1570
18237SOL    HW163489   1.498   4.222   5.696  1.2815 -0.8469 -1.2958
18237SOL    HW263490   1.549   4.182   5.833 -2.4149  1.7301  1.0119
18238SOL     OW63491  10.833  10.718   0.271  0.1864  0.2116 -0.1697
18238SOL    HW163492  10.882  10.642   0.303 -0.2590  0.3939  0.9799
18238SOL    HW263493  10.757  10.681   0.226  1.5962 -0.0953 -2.4630
18239SOL     OW63494  11.688  10.816   8.058 -0.6169  0.0921 -0.6586
18239SOL    HW163495  11.765  10.777   8.017  0.7259  0.7728  1.1050
18239SOL    HW263496  11.632  10.741   8.081  0.3254 -0.5385 -0.3941
18240SOL     OW63497  11.295   0.742   3.558 -0.1706 -0.3345  0.0844
18240SOL    HW163498  11.215   0.752   3.507  0.7952 -0.0998 -1.4638
18240SOL    HW263499  11.350   0.684   3.506  1.9258  2.0237 -0.5444
18241SOL     OW63500   8.699  10.584  11.218 -0.0809 -0.4232  0.1640
18241SOL    HW163501   8.785  10.574  11.260 -0.1475  0.2532  0.4791
18241SOL    HW263502   8.637  10.584  11.291 -0.1763  1.0356  0.1131
18242SOL     OW63503   8.954   9.227  12.388  0.3898  0.1715  0.6063
18242SOL    HW163504   8.871   9.210  12.432 -0.4546  0.8279 -0.6537
18242SOL    HW263505   8.998   9.291  12.443 -0.1747  0.1990  1.0264
18243SOL     OW63506   2.244   1.204  10.493  0.1460 -0.2215 -0.0593
18243SOL    HW163507   2.187   1.226  10.566 -0.5059 -1.0042 -0.3134
18243SOL    HW263508   2.243   1.282  10.437 -2.4281 -0.9335 -1.1540
18244SOL     OW63509   1.151   3.645   8.134 -0.3819  0.5006  0.0652
18244SOL    HW163510   1.218   3.650   8.203 -0.6515  0.0146  0.3683
18244SOL    HW263511   1.173   3.716   8.074  0.7685 -0.0216 -0.1601
18245SOL     OW63512   4.902   3.947   4.578 -0.7611 -0.0700 -0.0666
18245SOL    HW163513   4.984   3.994   4.573 -1.1030  1.1153  3.2681
18245SOL    HW263514   4.893   3.923   4.670 -2.4039 -3.4962 -0.9444
18246SOL     OW63515   5.616  10.737  11.733 -0.8484 -0.4720  0.1066
18246SOL    HW163516   5.573  10.779  11.807 -0.4296  2.9721 -1.4352
18246SOL    HW263517   5.666  10.807  11.690  1.6134 -3.0075 -1.5674
18247SOL     OW63518  12.586   5.759  11.476 -0.3925  0.5834 -0.2058
18247SOL    HW163519  12.601   5.725  11.388  0.0215  2.2574 -0.8151
18247SOL    HW263520  12.496   5.792  11.475 -1.1063 -1.2206  0.6540
18248SOL     OW63521   2.079   6.713   3.215  0.5346  0.1237  0.2429
18248SOL    HW163522   2.019   6.675   3.151  1.3450 -0.8854  0.0606
18248SOL    HW263523   2.162   6.668   3.200  1.1843  1.0650  0.8963
18249SOL     OW63524   9.653   6.597   3.252  0.3382  0.4920 -0.0914
18249SOL    HW163525   9.677   6.649   3.328  1.6894 -1.0141  0.5637
18249SOL    HW263526   9.583   6.539   3.282  0.3070  0.4575 -0.2262
18250SOL     OW63527   1.734   9.178   9.869  0.5060 -0.2798 -0.2607
18250SOL    HW163528   1.698   9.263   9.893  2.2001  0.3383  0.2569
18250SOL    HW263529   1.827   9.185   9.890  0.7234 -2.1917 -0.4222
18251SOL     OW63530   6.668   8.827  12.401 -0.5197  0.1987  0.3478
18251SOL    HW163531   6.628   8.794  12.481 -2.6123  0.4193 -0.5473
18251SOL    HW263532   6.709   8.910  12.427 -2.3022  0.9311  0.9544
18252SOL     OW63533   8.850   2.005   2.248 -0.4595  0.9500 -0.1147
18252SOL    HW163534   8.830   2.056   2.327 -0.7385  3.0273 -1.4384
18252SOL    HW263535   8.814   2.057   2.176 -0.9119 -1.2402 -1.5962
18253SOL     OW63536   3.785   8.009   5.527  0.3364  0.2252 -0.0048
18253SOL    HW163537   3.781   8.076   5.459 -0.0110  1.8759  1.5835
18253SOL    HW263538   3.717   8.033   5.590  1.4349 -0.5104  1.5528
18254SOL     OW63539  11.982   7.106   3.283 -0.3951  0.1639  0.5212
18254SOL    HW163540  11.898   7.129   3.321 -1.7551 -0.2481 -1.9826
18254SOL    HW263541  11.971   7.122   3.189  1.7528 -1.5450 -0.1137
18255SOL     OW63542   3.397   3.812   1.985  0.4083 -0.4570  0.3341
18255SOL    HW163543   3.320   3.839   1.935  0.6863 -0.7859 -0.2769
18255SOL    HW263544   3.361   3.770   2.063 -0.0677 -2.3224 -0.8449
18256SOL     OW63545   7.348  12.455  10.914 -0.3021  0.1893  0.0939
18256SOL    HW163546   7.268  12.485  10.870  0.0488 -1.7679 -2.0813
18256SOL    HW263547   7.317  12.413  10.994 -1.4714 -0.3623 -0.6179
18257SOL     OW63548   3.180   6.586   5.573  0.2952  0.0846  0.0451
18257SOL    HW163549   3.106   6.644   5.553 -0.1001 -0.7147 -0.8523
18257SOL    HW263550   3.254   6.623   5.526 -0.0944 -0.4644 -1.0156
18258SOL     OW63551   6.713   6.542  12.316 -0.1706  0.0646 -0.1211
18258SOL    HW163552   6.674   6.531  12.229 -1.0086  0.5896  0.1761
18258SOL    HW263553   6.656   6.604  12.360  0.1038 -0.3855  0.8986
18259SOL     OW63554   5.361  11.549   2.700  0.1555 -0.4122 -0.1344
18259SOL    HW163555   5.339  11.634   2.738  0.1865 -0.4078 -0.1266
18259SOL    HW263556   5.337  11.485   2.767  0.7039 -0.3711  0.1061
18260SOL     OW63557   1.828   1.266  11.309  0.1346 -0.5651  0.2571
18260SOL    HW163558   1.877   1.271  11.227  0.8741  1.1817  0.7781
18260SOL    HW263559   1.748   1.219  11.285 -0.1480  0.7882 -1.7333
18261SOL     OW63560   8.694  10.904   1.296  0.5219  0.1355  0.2632
18261SOL    HW163561   8.623  10.886   1.234  1.8818 -1.4619 -0.9425
18261SOL    HW263562   8.762  10.841   1.273  1.6519  0.4206  2.5221
18262SOL     OW63563   2.254   2.035   8.351 -0.0874 -0.1446  0.4481
18262SOL    HW163564   2.345   2.061   8.336 -0.2955  0.8726  0.8444
18262SOL    HW263565   2.243   2.039   8.446 -0.0196 -2.1779  0.5788
18263SOL     OW63566   0.232   0.560   9.655 -0.0908 -0.0043  0.3459
18263SOL    HW163567   0.298   0.570   9.587  0.0440  0.9182  0.6061
18263SOL    HW263568   0.154   0.603   9.619  0.3068  1.5085  1.2130
18264SOL     OW63569   8.167  10.314   0.897 -0.1314 -0.4049 -0.5324
18264SOL    HW163570   8.227  10.366   0.951  0.4378 -0.7273 -0.8457
18264SOL    HW263571   8.189  10.340   0.807 -1.6227  0.7430 -0.6123
18265SOL     OW63572   5.678   0.739   0.459  0.0195 -0.4100 -0.6768
18265SOL    HW163573   5.635   0.755   0.375  0.4957  0.0335 -0.8409
18265SOL    HW263574   5.767   0.773   0.448  0.0565 -0.2488  0.0346
18266SOL     OW63575   2.655   8.976   5.240  0.0930 -0.0531  0.8142
18266SOL    HW163576   2.630   8.885   5.228 -1.7699  0.5177 -0.1519
18266SOL    HW263577   2.727   8.990   5.179 -1.0507 -0.3687 -0.6739
18267SOL     OW63578   9.891   5.737   8.283  0.0500 -0.2973  0.4392
18267SOL    HW163579   9.891   5.654   8.235 -1.4172 -0.4341  0.6243
18267SOL    HW263580   9.854   5.800   8.221  1.4148  0.3161  0.2002
18268SOL     OW63581   0.006   4.958   5.218  0.0345 -0.2288  0.4664
18268SOL    HW163582   0.061   5.011   5.276  0.2297 -0.6817  0.6973
18268SOL    HW263583  -0.063   4.923   5.276  1.3879 -2.3719  0.9007
18269SOL     OW63584   9.707  10.289  12.308  0.0843 -0.4283 -0.1984
18269SOL    HW163585   9.686  10.204  12.269 -0.2134  0.3850 -1.9383
18269SOL    HW263586   9.792  10.312  12.269 -0.0118  0.2269 -0.0310
18270SOL     OW63587  12.363   4.020   5.209  0.7747 -0.3691 -0.1183
18270SOL    HW163588  12.315   4.062   5.280  0.9770  0.8660 -0.6900
18270SOL    HW263589  12.372   3.929   5.238 -1.8260 -0.6681  0.0536
18271SOL     OW63590   6.198   5.097   8.352 -0.3216 -0.0980 -0.1875
18271SOL    HW163591   6.236   5.010   8.346  0.4115  0.2428 -0.5317
18271SOL    HW263592   6.236   5.135   8.431 -0.3001  0.0719 -0.2784
18272SOL     OW63593   6.155   5.293   3.150 -0.5080 -0.0583  0.5721
18272SOL    HW163594   6.101   5.269   3.225 -1.8957  1.6085  0.1692
18272SOL    HW263595   6.165   5.388   3.157 -1.4001  0.2684 -1.7850
18273SOL     OW63596   0.021   7.755   0.220  0.0893 -0.2123  0.3943
18273SOL    HW163597   0.006   7.687   0.154 -0.7826  0.8380 -0.5316
18273SOL    HW263598  -0.009   7.716   0.302  0.9504 -1.4478  0.1610
18274SOL     OW63599   2.544   1.746   7.193  0.0073 -0.0645  0.3149
18274SOL    HW163600   2.569   1.836   7.170  3.1407 -1.3493 -2.0282
18274SOL    HW263601   2.482   1.720   7.125 -0.8295  0.2532  0.9410
18275SOL     OW63602   7.790   5.547   6.779  0.1953  0.0966 -0.1211
18275SOL    HW163603   7.721   5.551   6.845  1.0693 -1.3346  0.9351
18275SOL    HW263604   7.744   5.551   6.696 -0.9506  1.6794  0.5349
18276SOL     OW63605   4.907   1.662  11.616 -0.2999 -0.3193  0.3488
18276SOL    HW163606   4.861   1.713  11.550  0.7725  0.3529  0.0915
18276SOL    HW263607   4.981   1.622  11.569  0.0063 -0.4960  0.9651
18277SOL     OW63608   3.542  11.110   3.761 -0.3441  0.2747 -0.4618
18277SOL    HW163609   3.520  11.203   3.755  1.2480  0.8944  1.7549
18277SOL    HW263610   3.490  11.079   3.835 -0.2310 -0.3786 -0.6554
18278SOL     OW63611   0.017   8.029   1.704 -0.1587  0.6309  0.0007
18278SOL    HW163612  -0.053   8.056   1.644 -1.4308  0.1520  1.2102
18278SOL    HW263613  -0.024   8.030   1.791  1.3181  0.2304  0.7443
18279SOL     OW63614   7.337  11.089  10.138 -0.2528  0.1893  0.0110
18279SOL    HW163615   7.349  11.090  10.233 -1.2185  2.4300  0.1636
18279SOL    HW263616   7.419  11.124  10.104  0.3054 -1.1095 -0.0718
18280SOL     OW63617   1.810   7.980   0.616 -0.4577 -1.1953  0.6889
18280SOL    HW163618   1.852   7.994   0.531  2.1617  0.9822  2.1889
18280SOL    HW263619   1.733   8.037   0.614 -0.1200 -0.7452 -0.0406
18281SOL     OW63620   2.734  10.483  11.158 -0.9466 -0.2858  0.2811
18281SOL    HW163621   2.770  10.396  11.143  0.9301  0.2271  1.5806
18281SOL    HW263622   2.763  10.534  11.083  1.0235  0.0859  1.2471
18282SOL     OW63623   5.249   2.172   8.067  0.0474  0.3948 -0.1075
18282SOL    HW163624   5.220   2.166   8.158 -1.5376 -1.5432 -0.6723
18282SOL    HW263625   5.174   2.206   8.019 -0.7549 -2.6719 -1.2717
18283SOL     OW63626   5.391   7.365   4.921 -0.3275  0.1341 -0.3350
18283SOL    HW163627   5.321   7.416   4.962 -0.7887  0.6611 -1.7436
18283SOL    HW263628   5.462   7.427   4.907 -1.5397  0.9398 -3.6891
18284SOL     OW63629   2.596   7.895   3.720 -0.3592  0.2328 -0.0080
18284SOL    HW163630   2.545   7.814   3.717  0.5175 -0.3105 -1.6135
18284SOL    HW263631   2.687   7.865   3.716  0.0286  1.2751  0.5938
18285SOL     OW63632   3.284   5.939  11.564  0.1995  0.3848  0.2299
18285SOL    HW163633   3.299   5.962  11.656  2.2805  3.7078 -0.7740
18285SOL    HW263634   3.356   5.880  11.542  1.0445  1.4272  0.1681
18286SOL     OW63635   5.284   9.264   1.434 -0.2266  0.1696 -0.2415
18286SOL    HW163636   5.286   9.179   1.390  1.1445 -0.6137  1.2300
18286SOL    HW263637   5.330   9.249   1.517 -1.1494  2.0229  0.6635
18287SOL     OW63638   5.346   9.706   2.632  0.4111 -0.3608 -0.0206
18287SOL    HW163639   5.343   9.701   2.537  0.6884  1.1833 -0.1397
18287SOL    HW263640   5.268   9.659   2.661  0.1172 -0.5104 -1.0278
18288SOL     OW63641   9.636   3.925   3.067  0.0407  0.3157 -0.3972
18288SOL    HW163642   9.564   3.863   3.078  1.5996 -1.7657 -1.1841
18288SOL    HW263643   9.715   3.874   3.087  1.2953  2.9286  2.1371
18289SOL     OW63644   2.289   4.262   6.171 -0.2015 -0.2223  0.4754
18289SOL    HW163645   2.245   4.178   6.154 -1.6010  0.2203  1.7002
18289SOL    HW263646   2.381   4.245   6.151 -0.4735 -2.0212  0.5902
18290SOL     OW63647   0.750  11.561   8.090  0.6140 -0.0655 -0.2568
18290SOL    HW163648   0.724  11.646   8.126  1.6446 -0.3917  1.3389
18290SOL    HW263649   0.807  11.523   8.157  0.1304 -2.0517 -0.9121
18291SOL     OW63650  10.761   0.195   9.310  0.6217  0.0850 -0.7781
18291SOL    HW163651  10.801   0.140   9.377 -0.3859 -1.0693 -1.0832
18291SOL    HW263652  10.823   0.267   9.298  1.9182 -0.8957 -0.2560
18292SOL     OW63653   1.021   0.841   5.641 -0.5781 -0.1034  0.5520
18292SOL    HW163654   1.055   0.930   5.630  1.8411 -0.9757  0.4867
18292SOL    HW263655   0.951   0.850   5.706 -1.4197  2.0372 -0.5575
18293SOL     OW63656   4.996   3.352   7.068  0.1721 -0.1275  0.2027
18293SOL    HW163657   4.978   3.290   7.139  0.8736 -0.4722  0.0872
18293SOL    HW263658   5.089   3.340   7.049  0.0301  0.0870 -0.6569
18294SOL     OW63659   8.106   8.113  11.918  0.6298 -0.5911 -0.2291
18294SOL    HW163660   8.122   8.192  11.866  1.3931 -0.1767  0.6007
18294SOL    HW263661   8.064   8.145  11.998  3.2307 -0.6522  1.2573
18295SOL     OW63662  11.409  10.620   4.993 -0.2277 -0.1259  0.8271
18295SOL    HW163663  11.371  10.703   4.965 -0.9133 -0.8212 -0.3641
18295SOL    HW263664  11.498  10.621   4.957  0.4321  0.8413  2.3489
18296SOL     OW63665   6.654   6.343   2.215 -0.0515 -0.4056 -0.2857
18296SOL    HW163666   6.675   6.307   2.129 -0.3643  0.3748 -0.7089
18296SOL    HW263667   6.732   6.327   2.268  0.0140 -1.1989 -0.6138
18297SOL     OW63668   7.841   1.129   3.279 -0.5907  0.3656 -0.0966
18297SOL    HW163669   7.796   1.047   3.261 -0.3133  0.4315 -1.1502
18297SOL    HW263670   7.804   1.191   3.216 -2.2094  1.5857  1.9334
18298SOL     OW63671   7.510   2.021   7.980 -0.4052  0.1882  0.4039
18298SOL    HW163672   7.417   2.013   7.958 -0.1455 -1.2954 -0.2475
18298SOL    HW263673   7.554   1.960   7.921  1.1732  1.9610 -0.3367
18299SOL     OW63674   4.638  10.811   5.095  0.0853  0.2970 -0.4860
18299SOL    HW163675   4.720  10.765   5.080 -0.5157 -1.1637  0.4978
18299SOL    HW263676   4.648  10.894   5.048  1.8319 -0.1448 -0.9593
18300SOL     OW63677   8.864  11.958   9.424  0.5100  0.9916 -0.5129
18300SOL    HW163678   8.775  11.949   9.458  1.2752  1.8644  1.8857
18300SOL    HW263679   8.906  12.022   9.481  2.7476  0.4709 -1.4640
18301SOL     OW63680   2.894   9.467  11.167 -0.2821 -0.5169 -1.0243
18301SOL    HW163681   2.943   9.444  11.089  1.1562  1.1257 -0.6596
18301SOL    HW263682   2.872   9.560  11.156  1.0175  0.1200  0.9824
18302SOL     OW63683   7.354   0.963   0.439  0.0327  0.1418 -0.1513
18302SOL    HW163684   7.434   0.948   0.389 -0.6461 -1.6287 -0.7795
18302SOL    HW263685   7.364   0.908   0.517 -0.9615 -0.8994 -0.7212
18303SOL     OW63686   4.780  10.175   0.334 -0.2016  0.4522  0.6065
18303SOL    HW163687   4.790  10.126   0.253 -1.6805  1.5002 -0.2786
18303SOL    HW263688   4.729  10.252   0.309 -0.8042  0.7570  2.5579
18304SOL     OW63689   2.087   0.078  11.980  0.0655  0.6272  0.1473
18304SOL    HW163690   2.083   0.008  11.916  0.4344  1.3200 -0.6532
18304SOL    HW263691   2.008   0.067  12.034  0.5306 -0.8822  0.5677
18305SOL     OW63692   6.662   5.960   6.699 -0.2290  0.8661 -0.0896
18305SOL    HW163693   6.661   5.865   6.692  0.5579  0.7257  1.2934
18305SOL    HW263694   6.613   5.991   6.622 -0.1180 -0.6236 -0.7872
18306SOL     OW63695   6.662   3.743   6.497  0.2403  0.1251  0.2893
18306SOL    HW163696   6.574   3.774   6.475 -0.4016 -0.8956  1.3231
18306SOL    HW263697   6.706   3.821   6.531 -1.1785  0.1119  2.3517
18307SOL     OW63698   3.766   9.773   5.868 -0.7636 -0.2121 -0.1162
18307SOL    HW163699   3.816   9.847   5.904 -0.8856 -0.6035  0.8981
18307SOL    HW263700   3.826   9.732   5.806 -0.7097  0.7535 -0.7185
18308SOL     OW63701  11.424   1.163  11.271  0.6214  0.2587  0.7747
18308SOL    HW163702  11.484   1.219  11.221 -0.0330  1.0996  0.9003
18308SOL    HW263703  11.348   1.152  11.213  0.6264 -0.2752  0.8658
18309SOL     OW63704   3.761  12.037   5.256 -0.1118 -0.3010 -0.0330
18309SOL    HW163705   3.680  12.034   5.204 -1.2548  0.0202  1.6543
18309SOL    HW263706   3.828  12.067   5.194 -1.1990 -0.8635 -1.5497
18310SOL     OW63707  12.518   6.954   8.567 -0.9244  0.7305  0.0424
18310SOL    HW163708  12.510   6.860   8.581 -0.3480  0.2657 -2.3600
18310SOL    HW263709  12.434   6.990   8.596 -0.6259 -0.2735  2.3946
18311SOL     OW63710   1.989   6.132   5.210 -0.5249  0.1839 -0.5487
18311SOL    HW163711   2.011   6.065   5.145 -0.3491 -0.8512  0.5507
18311SOL    HW263712   1.900   6.160   5.187 -0.2195  0.3277 -1.6252
18312SOL     OW63713   7.440   1.955   1.214 -0.9718 -0.4904 -0.5630
18312SOL    HW163714   7.484   1.943   1.130 -0.7380 -1.8329 -0.2852
18312SOL    HW263715   7.502   1.919   1.278 -1.3196  0.1420  0.1332
18313SOL     OW63716   5.472   6.190   2.086  0.2129  0.1762 -0.2797
18313SOL    HW163717   5.511   6.271   2.052  0.5552  0.1909  0.1408
18313SOL    HW263718   5.540   6.124   2.075 -0.2697 -0.1869 -1.1482
18314SOL     OW63719   0.581   3.447   2.479  0.2395  0.2720  0.2092
18314SOL    HW163720   0.557   3.385   2.548  0.6725 -0.2838 -0.1271
18314SOL    HW263721   0.498   3.482   2.448 -0.0378 -0.4199  0.1542
18315SOL     OW63722  11.021  10.527   1.358 -0.3346 -0.6436 -0.2950
18315SOL    HW163723  10.985  10.596   1.302  0.7862  0.5428  0.3987
18315SOL    HW263724  11.113  10.522   1.333 -0.3976 -1.9236 -0.3324
18316SOL     OW63725  10.450   5.626   7.562  0.7230 -0.6655  0.2099
18316SOL    HW163726  10.543   5.633   7.538  0.6016  0.4280  0.0065
18316SOL    HW263727  10.404   5.672   7.493 -0.0177 -1.5041  0.1243
18317SOL     OW63728   8.544   7.071   0.127 -0.1097 -0.7738  0.3045
18317SOL    HW163729   8.582   7.027   0.051 -0.2958 -0.5456  0.0780
18317SOL    HW263730   8.593   7.152   0.136 -3.0775  1.5981 -2.4994
18318SOL     OW63731  10.446   5.026  11.739  0.0168  0.1426  0.0392
18318SOL    HW163732  10.462   5.109  11.693 -0.0306  0.1745  0.0793
18318SOL    HW263733  10.520   5.018  11.799  0.5245 -0.3222 -0.6394
18319SOL     OW63734   0.234   2.424   8.979  0.2179 -0.0023  0.5343
18319SOL    HW163735   0.224   2.365   9.053 -0.6088  0.7872  1.0721
18319SOL    HW263736   0.184   2.502   9.003  2.1428  1.3804  0.3179
18320SOL     OW63737   9.791   5.450   1.324 -0.5120  0.2180  0.0836
18320SOL    HW163738   9.796   5.367   1.278 -1.2137 -0.3012  0.9315
18320SOL    HW263739   9.873   5.495   1.301 -0.0266 -0.7903 -0.2021
18321SOL     OW63740   1.874   3.764   2.831  0.0025  0.3563  0.0689
18321SOL    HW163741   1.841   3.687   2.786  0.1879  0.6793 -0.6321
18321SOL    HW263742   1.916   3.730   2.910 -1.9529 -0.0824  0.9904
18322SOL     OW63743   8.368  12.122   2.248 -0.3405  0.1919  0.0081
18322SOL    HW163744   8.394  12.135   2.157 -0.7722  2.2602  0.1390
18322SOL    HW263745   8.312  12.196   2.269 -2.1290 -1.4159  1.3222
18323SOL     OW63746   4.705   6.315   6.054  0.3067 -0.3371  0.1329
18323SOL    HW163747   4.778   6.263   6.019  0.9794  1.2140 -0.8677
18323SOL    HW263748   4.627   6.277   6.013  0.9351  0.4147 -1.9102
18324SOL     OW63749   4.801   7.074  12.265 -0.5793  0.1642  0.3253
18324SOL    HW163750   4.806   7.104  12.175 -3.3840  0.8717  0.2994
18324SOL    HW263751   4.785   6.980  12.259  1.5948 -0.2568  0.2264
18325SOL     OW63752   8.687   1.538   4.810  0.1495 -0.0004  0.1419
18325SOL    HW163753   8.608   1.499   4.848 -0.9336  1.1946 -0.7811
18325SOL    HW263754   8.741   1.463   4.787  0.4333 -0.8181  3.0276
18326SOL     OW63755   2.256   2.735   5.098  0.2022 -0.2153 -0.0817
18326SOL    HW163756   2.274   2.729   5.192 -0.5700  2.9688  0.3968
18326SOL    HW263757   2.176   2.683   5.086  0.8384 -1.4344  0.8162
18327SOL     OW63758   0.333   5.526   6.759 -0.6608  0.4784 -0.2307
18327SOL    HW163759   0.338   5.621   6.759  2.5992  0.4407 -0.5355
18327SOL    HW263760   0.354   5.501   6.669  0.7194 -0.4992  0.3219
18328SOL     OW63761   8.784   2.091  10.836 -0.6734 -0.5404  0.1301
18328SOL    HW163762   8.813   2.166  10.887 -0.2244 -0.1789 -0.6430
18328SOL    HW263763   8.707   2.123  10.789  0.4668 -0.0347 -1.4671
18329SOL     OW63764   9.540   2.934   8.559  0.5029  0.1230 -0.1239
18329SOL    HW163765   9.576   2.963   8.642 -1.6775  1.8029  0.3039
18329SOL    HW263766   9.534   3.013   8.506  0.8748 -0.7465 -1.5302
18330SOL     OW63767   8.352  11.530   0.866 -0.6709 -0.0677 -0.0071
18330SOL    HW163768   8.393  11.446   0.884 -0.0436  0.7317  2.7380
18330SOL    HW263769   8.425  11.591   0.855 -1.1282  0.2949 -1.2313
18331SOL     OW63770   6.800  10.998  11.230  0.0718 -0.2224 -0.1677
18331SOL    HW163771   6.750  10.941  11.288  0.4368 -0.1025  0.2677
18331SOL    HW263772   6.845  11.059  11.289  0.7014 -0.3013 -0.5539
18332SOL     OW63773   8.145   8.897   1.656  0.1746 -0.0612  0.3623
18332SOL    HW163774   8.168   8.828   1.593  0.2554  0.7097 -0.4792
18332SOL    HW263775   8.162   8.858   1.742  0.3314 -1.0438 -0.1040
18333SOL     OW63776  10.613  10.029   3.339 -0.2307  0.1507 -0.1444
18333SOL    HW163777  10.611   9.945   3.386 -0.8613  0.4377  0.3555
18333SOL    HW263778  10.705  10.042   3.317 -0.2606 -1.1944 -1.1820
18334SOL     OW63779   2.533   9.288  10.015 -0.3160 -0.2740  0.0539
18334SOL    HW163780   2.593   9.351  10.055 -2.4859 -0.1759  3.5780
18334SOL    HW263781   2.569   9.202  10.038 -1.3114 -0.2162  2.0350
18335SOL     OW63782   6.297   5.130  11.996 -0.4860  0.8985  0.1212
18335SOL    HW163783   6.249   5.065  12.048  1.9187 -0.4013  0.8934
18335SOL    HW263784   6.249   5.134  11.913 -1.0017 -1.5773  0.2130
18336SOL     OW63785   3.918  11.440   5.430 -0.0220 -0.0310  0.0747
18336SOL    HW163786   3.911  11.515   5.489  0.6816 -0.7547  1.1238
18336SOL    HW263787   3.886  11.366   5.482 -1.1885 -0.3957 -1.1095
18337SOL     OW63788  11.951   1.154   8.554 -0.1163 -0.3101 -0.2334
18337SOL    HW163789  12.040   1.136   8.523 -0.1302  0.6086 -0.8602
18337SOL    HW263790  11.931   1.241   8.519 -1.3840 -0.6356 -0.3646
18338SOL     OW63791   6.192   0.454   7.947 -0.1514 -0.0921  0.4929
18338SOL    HW163792   6.123   0.499   7.897  0.2515 -0.3832 -0.3435
18338SOL    HW263793   6.152   0.437   8.033  0.1697  3.1600  1.4092
18339SOL     OW63794   8.281   3.290   8.777 -0.0075 -0.0314 -0.7113
18339SOL    HW163795   8.305   3.204   8.812  0.1843  0.5324  0.6297
18339SOL    HW263796   8.351   3.312   8.716  1.1088  0.0995  0.5786
18340SOL     OW63797   5.806  10.627   4.666 -0.2585 -0.1879 -0.4498
18340SOL    HW163798   5.823  10.693   4.733 -1.1306  0.0969 -0.4989
18340SOL    HW263799   5.825  10.543   4.708  1.7332  0.1086 -0.6524
18341SOL     OW63800   3.259   5.580   0.972  0.5183 -0.5700  0.0303
18341SOL    HW163801   3.323   5.540   1.031  1.7215  0.6728 -0.3731
18341SOL    HW263802   3.199   5.509   0.950  1.3309 -1.5960  1.0011
18342SOL     OW63803   5.147   4.754  11.204 -0.4783 -0.0913 -0.0182
18342SOL    HW163804   5.178   4.824  11.262  0.2303 -0.2643 -0.1841
18342SOL    HW263805   5.154   4.674  11.257 -0.2092 -0.1945 -0.2132
18343SOL     OW63806   3.664   1.614  10.288 -0.5250 -0.2536 -0.1700
18343SOL    HW163807   3.625   1.601  10.374  2.0226  0.3027  1.1643
18343SOL    HW263808   3.659   1.709  10.273 -0.8425 -0.3336 -0.6149
18344SOL     OW63809   0.964   0.305  12.031 -0.0323  0.6330 -0.1545
18344SOL    HW163810   1.006   0.345  12.108  0.4690  0.3675 -0.2881
18344SOL    HW263811   0.870   0.320  12.045 -0.0428 -0.3218  1.0412
18345SOL     OW63812  11.873   3.809   4.131 -0.1553 -0.3826  0.0990
18345SOL    HW163813  11.958   3.828   4.169  1.4234  1.2123 -3.7098
18345SOL    HW263814  11.886   3.729   4.080 -2.2392 -2.5705  2.6378
18346SOL     OW63815   8.108   0.562  10.878  0.2691 -0.1012  0.0371
18346SOL    HW163816   8.171   0.521  10.819  0.5133 -0.1360  0.3218
18346SOL    HW263817   8.143   0.650  10.893 -0.6651  0.5122 -1.2088
18347SOL     OW63818   6.789   4.987  10.252 -0.4770 -0.3152 -0.6170
18347SOL    HW163819   6.788   4.987  10.156 -0.2237 -1.1886 -0.6290
18347SOL    HW263820   6.739   4.909  10.277  1.1251 -1.2365 -0.0992
18348SOL     OW63821   0.536   0.740   0.073 -0.5837 -0.5267 -0.3881
18348SOL    HW163822   0.498   0.826   0.057  0.0556 -0.3379 -0.9383
18348SOL    HW263823   0.631   0.754   0.069 -0.3025 -0.5058  3.4183
18349SOL     OW63824   8.297   7.370   0.588  0.0368  0.0221  0.4721
18349SOL    HW163825   8.390   7.393   0.595 -0.0820  0.6094  0.2003
18349SOL    HW263826   8.285   7.349   0.496 -0.3360  1.0271  0.2847
18350SOL     OW63827   8.942  12.094   2.144 -0.3711 -0.0232 -0.2436
18350SOL    HW163828   8.931  12.186   2.119  1.0333  0.5913  1.2357
18350SOL    HW263829   8.978  12.053   2.065  0.8933  1.1477 -0.3203
18351SOL     OW63830  11.834  11.726   6.250  0.2207  0.2451 -0.0389
18351SOL    HW163831  11.854  11.780   6.326 -0.6469  0.3916  0.1014
18351SOL    HW263832  11.915  11.678   6.232  0.2319 -0.3544  1.4393
18352SOL     OW63833  10.868   6.410   5.852 -0.2575  0.1658 -0.2078
18352SOL    HW163834  10.823   6.446   5.776 -0.6035 -0.1665 -0.1618
18352SOL    HW263835  10.849   6.471   5.923  0.1189  0.5108 -0.4022
18353SOL     OW63836   5.146   9.878  10.318  0.0719 -0.0830 -0.1677
18353SOL    HW163837   5.183   9.959  10.351 -1.1993 -0.1379  1.5487
18353SOL    HW263838   5.060   9.903  10.284 -0.3856 -0.7059  0.4977
18354SOL     OW63839   0.584   3.759   5.254  0.0478 -0.1493 -0.1679
18354SOL    HW163840   0.648   3.704   5.298 -0.7231 -0.3864  0.6700
18354SOL    HW263841   0.543   3.811   5.324 -1.4899 -0.8304 -0.5131
18355SOL     OW63842   3.667   1.138  10.807  0.3134 -0.0709  0.1297
18355SOL    HW163843   3.650   1.232  10.803  1.3796  0.0993 -1.0565
18355SOL    HW263844   3.677   1.120  10.901 -2.1896  0.5308  0.5708
18356SOL     OW63845   4.390  10.351   8.575 -0.6505  0.3138 -0.3397
18356SOL    HW163846   4.377  10.344   8.481  1.3222 -0.0228 -0.6226
18356SOL    HW263847   4.390  10.261   8.607 -1.3860  0.4287  0.0025
18357SOL     OW63848   9.838   8.997   0.445  0.5194 -0.5231  0.1492
18357SOL    HW163849   9.908   9.056   0.473 -0.3887  0.6837 -0.0685
18357SOL    HW263850   9.859   8.977   0.353  0.6430 -0.2720  0.1227
18358SOL     OW63851   1.573   1.408   9.361 -0.1543  0.1167 -0.0941
18358SOL    HW163852   1.607   1.356   9.434  0.4166  1.7023  0.7969
18358SOL    HW263853   1.641   1.402   9.294  0.0182 -0.0685  0.0955
18359SOL     OW63854   7.534   5.337   6.496  0.0084  0.6371  0.3530
18359SOL    HW163855   7.512   5.393   6.570 -1.0962 -1.2801  1.5935
18359SOL    HW263856   7.617   5.296   6.521  1.0611  2.0187 -0.7635
18360SOL     OW63857   4.325   8.613   6.363 -0.0203 -0.1067 -0.0600
18360SOL    HW163858   4.318   8.667   6.442 -0.3327  2.6093 -1.8213
18360SOL    HW263859   4.392   8.656   6.310 -0.9871 -0.8665 -1.9977
18361SOL     OW63860   0.994   8.883   3.314  0.0128  0.3925  0.0652
18361SOL    HW163861   0.955   8.846   3.393  0.3083 -0.2615 -0.0871
18361SOL    HW263862   1.075   8.925   3.345  1.5647 -2.1894 -0.2100
18362SOL     OW63863   7.493   7.977   0.701  0.0462 -0.2940 -0.5595
18362SOL    HW163864   7.399   7.961   0.696 -0.3841  1.9548 -0.7461
18362SOL    HW263865   7.520   7.931   0.781 -1.3197 -0.4899 -0.1730
18363SOL     OW63866   1.675   1.551   2.823 -0.1591  0.5792 -0.1005
18363SOL    HW163867   1.645   1.542   2.914  0.0034 -0.0239 -0.1004
18363SOL    HW263868   1.756   1.602   2.829  0.4235 -0.3626  0.2088
18364SOL     OW63869   8.661   6.307   4.703  0.3831  0.3246 -0.7699
18364SOL    HW163870   8.662   6.346   4.790 -3.6624 -0.4093 -0.1810
18364SOL    HW263871   8.575   6.330   4.668  1.6915  0.2581 -4.4879
18365SOL     OW63872  12.307   2.079   0.918 -0.7246  0.2023  0.0348
18365SOL    HW163873  12.298   2.157   0.864 -1.9770 -0.0425 -0.1437
18365SOL    HW263874  12.359   2.018   0.865  0.8580  1.1407  0.4567
18366SOL     OW63875  10.749   7.349   4.331  0.6404  0.1247  0.4513
18366SOL    HW163876  10.692   7.421   4.305 -3.4608 -2.6365  0.9848
18366SOL    HW263877  10.751   7.354   4.427  0.7536 -0.1817  0.4657
18367SOL     OW63878  10.595   8.797  10.092 -0.1062  0.1369  0.2761
18367SOL    HW163879  10.501   8.781  10.096 -0.5061  2.0889  0.1122
18367SOL    HW263880  10.629   8.730  10.034 -1.5614  0.0203 -0.4811
18368SOL     OW63881   6.522   3.539  12.132  0.2142  0.0718 -0.3524
18368SOL    HW163882   6.560   3.562  12.047 -0.1952  0.5865 -0.3979
18368SOL    HW263883   6.465   3.612  12.154 -2.2603 -1.4592 -1.1782
18369SOL     OW63884  11.194   4.366   0.079 -0.4113  0.3189 -0.5822
18369SOL    HW163885  11.177   4.344  -0.013  0.9141 -0.0916 -0.7503
18369SOL    HW263886  11.134   4.309   0.127 -0.6630  0.0612 -1.1782
18370SOL     OW63887   0.377  10.629  11.937  0.0954  0.2972 -0.1344
18370SOL    HW163888   0.421  10.545  11.946 -1.4066 -0.4704  0.5244
18370SOL    HW263889   0.445  10.689  11.907  1.3620 -0.9904  0.0405
18371SOL     OW63890   4.242  11.258   4.278  0.0293 -0.4297  0.5048
18371SOL    HW163891   4.188  11.270   4.200  1.5148 -1.5285 -0.7516
18371SOL    HW263892   4.280  11.345   4.294  0.4298 -0.3868 -0.5772
18372SOL     OW63893   5.620  11.486   8.673 -0.1903 -0.4065  0.5067
18372SOL    HW163894   5.715  11.489   8.677 -0.2269 -0.1791  2.5494
18372SOL    HW263895   5.598  11.523   8.588  1.5313 -0.1810  0.1209
18373SOL     OW63896   5.140   9.990   0.351 -0.4364  0.1778  0.0517
18373SOL    HW163897   5.181   9.996   0.437 -0.8137 -1.6365  0.4160
18373SOL    HW263898   5.210  10.013   0.290  0.6086 -0.9520  0.7571
18374SOL     OW63899   0.128   0.360   7.819  0.0000 -0.7674 -0.0508
18374SOL    HW163900   0.089   0.273   7.830  0.1897 -0.7904  0.4486
18374SOL    HW263901   0.203   0.345   7.762  0.0938 -0.9460  0.1205
18375SOL     OW63902   5.285   9.896   9.508 -0.4491  0.4029  0.0206
18375SOL    HW163903   5.289   9.801   9.502  1.4504  0.4914 -0.5838
18375SOL    HW263904   5.208   9.913   9.562 -0.3776 -1.4826  0.7889
18376SOL     OW63905   9.363  10.547   5.135  0.8128 -0.0285 -0.4562
18376SOL    HW163906   9.349  10.558   5.041 -0.5269  0.3711 -0.2396
18376SOL    HW263907   9.280  10.512   5.167  1.7302 -1.5113  0.3826
18377SOL     OW63908   4.137   7.691   0.898  0.2866  0.3944 -0.5214
18377SOL    HW163909   4.067   7.626   0.905  0.9022 -0.2630 -0.3903
18377SOL    HW263910   4.218   7.640   0.899  0.7571  1.1059 -1.2458
18378SOL     OW63911   4.599  10.068   7.880 -0.0224  0.4786  0.1763
18378SOL    HW163912   4.668  10.038   7.821 -0.0258 -2.2558  1.4184
18378SOL    HW263913   4.518  10.054   7.831 -0.0525 -2.1021  0.8243
18379SOL     OW63914   9.355  12.210   4.816 -0.0803 -0.0071  0.5423
18379SOL    HW163915   9.298  12.226   4.891 -1.1262  0.8642 -0.3955
18379SOL    HW263916   9.350  12.116   4.800  0.7229 -0.3244  1.9681
18380SOL     OW63917  10.837  11.797   4.154  0.5961  0.3085 -0.0973
18380SOL    HW163918  10.742  11.805   4.152  0.6525  0.9553 -0.6690
18380SOL    HW263919  10.853  11.705   4.177 -0.1453  0.5283  1.3954
18381SOL     OW63920   5.158   3.906   1.406  0.2420 -0.1417 -0.3640
18381SOL    HW163921   5.213   3.830   1.382 -1.9324 -2.5244  1.5887
18381SOL    HW263922   5.074   3.889   1.364 -0.9173  0.0344  1.7124
18382SOL     OW63923  10.467   1.074   7.124  0.1793 -0.2379  0.0400
18382SOL    HW163924  10.409   1.073   7.201 -0.8538 -0.5993 -0.7270
18382SOL    HW263925  10.486   1.166   7.109  1.1361 -0.2110  1.2672
18383SOL     OW63926  10.601   6.462   0.263 -0.0414 -0.1028  0.1606
18383SOL    HW163927  10.627   6.535   0.320  0.4646 -1.4733  1.7658
18383SOL    HW263928  10.682   6.418   0.242  0.0330  1.3145 -3.1604
18384SOL     OW63929   3.497   4.178   7.699 -0.1497 -0.5318 -0.0321
18384SOL    HW163930   3.546   4.194   7.780 -1.4099  0.0860  0.6329
18384SOL    HW263931   3.530   4.244   7.638  0.8190 -1.0100 -0.0395
18385SOL     OW63932   6.917   2.091   6.761  0.1184 -0.5328 -0.2887
18385SOL    HW163933   6.989   2.149   6.786  0.3480 -1.4094  1.1797
18385SOL    HW263934   6.886   2.053   6.843 -0.4264 -2.0283 -1.1344
18386SOL     OW63935   8.181   5.337  10.163 -0.0101 -0.2297 -0.2768
18386SOL    HW163936   8.258   5.286  10.191  0.1388 -0.4452 -1.0547
18386SOL    HW263937   8.110   5.304  10.218 -0.1871 -2.1753 -1.5720
18387SOL     OW63938   5.773  10.970   3.391  0.0921  0.0081  0.0493
18387SOL    HW163939   5.812  10.946   3.307 -2.5345  0.6496 -1.4935
18387SOL    HW263940   5.762  10.887   3.437  1.6292 -0.3502 -0.2026
18388SOL     OW63941  11.053   4.681   7.559 -0.0384 -0.2874 -0.3267
18388SOL    HW163942  10.984   4.615   7.564  0.3366 -0.7271 -0.8969
18388SOL    HW263943  11.034   4.730   7.479 -0.5993  0.6369  0.3404
18389SOL     OW63944  10.341   6.998   2.243  0.2898  0.0372 -0.4452
18389SOL    HW163945  10.325   7.025   2.153 -1.0996  0.5125 -0.0785
18389SOL    HW263946  10.436   6.990   2.249  0.3964 -0.0546 -1.9567
18390SOL     OW63947   0.284   1.876   7.057  0.0058 -0.4810  0.3572
18390SOL    HW163948   0.286   1.934   6.981  0.5474 -0.7556  0.1520
18390SOL    HW263949   0.219   1.915   7.116  0.4516  0.4054  0.2857
18391SOL     OW63950  12.087   0.686  12.608  0.0813  0.9942 -0.2328
18391SOL    HW163951  12.131   0.762  12.570  1.7738  0.2894  0.2287
18391SOL    HW263952  12.132   0.610  12.569  0.1754  0.2505  1.2524
18392SOL     OW63953   0.999   3.304   4.800  0.0699 -0.2845 -0.3378
18392SOL    HW163954   0.948   3.384   4.810  1.2863  0.3860  0.9675
18392SOL    HW263955   0.962   3.244   4.865  0.9630  0.2458  0.6994
18393SOL     OW63956  12.088   6.440   8.245 -0.1466 -0.1008  0.4071
18393SOL    HW163957  12.051   6.423   8.158 -0.9762 -0.3649  0.8018
18393SOL    HW263958  12.048   6.523   8.272  0.0243 -0.0767  0.5869
18394SOL     OW63959  11.501   7.540   1.386  0.2289 -0.7814  0.1183
18394SOL    HW163960  11.487   7.561   1.478  2.2798 -1.2427  0.5756
18394SOL    HW263961  11.443   7.600   1.339  0.0007  0.2527  1.6540
18395SOL     OW63962   0.636   9.734  10.261  0.3129  0.2992  0.0932
18395SOL    HW163963   0.657   9.759  10.350  1.6109  0.7450 -0.3106
18395SOL    HW263964   0.710   9.680  10.233  0.3035  0.7899 -0.9533
18396SOL     OW63965   2.717   9.678   2.283 -1.0167  0.3930  0.1535
18396SOL    HW163966   2.712   9.709   2.193 -0.9778 -0.0453  0.0008
18396SOL    HW263967   2.657   9.604   2.287 -1.0035  0.3977  0.4836
18397SOL     OW63968  11.062   6.476   0.545  0.6962 -0.3781  0.1530
18397SOL    HW163969  11.015   6.399   0.576  2.6251 -1.5412  0.2916
18397SOL    HW263970  11.123   6.443   0.479  0.8915  1.1799 -0.5054
18398SOL     OW63971   5.121   2.643   8.616  0.2117 -0.8006 -0.0727
18398SOL    HW163972   5.122   2.688   8.700  1.0517 -1.8392  0.5051
18398SOL    HW263973   5.161   2.705   8.555 -0.9855  0.2039  0.1394
18399SOL     OW63974   1.084   0.508   8.171 -0.5757 -0.3812 -0.0711
18399SOL    HW163975   1.002   0.492   8.219 -1.8611  1.2210 -1.5940
18399SOL    HW263976   1.082   0.445   8.098  0.5168 -1.6102  0.9045
18400SOL     OW63977  10.069   9.412   0.568 -0.4505  0.0611  0.5603
18400SOL    HW163978  10.120   9.493   0.568 -1.3014  0.6775 -1.9172
18400SOL    HW263979  10.117   9.353   0.509 -1.0119 -0.4558  0.6115
18401SOL     OW63980   4.624  12.277  11.810 -0.7074 -0.0110  0.3497
18401SOL    HW163981   4.647  12.230  11.729 -1.1782  1.6257 -0.7900
18401SOL    HW263982   4.704  12.321  11.836 -0.4655 -0.8122  0.9876
18402SOL     OW63983  10.130   8.300  12.054 -0.2467  0.0364 -0.1578
18402SOL    HW163984  10.095   8.383  12.087  0.1489 -0.3090  1.2186
18402SOL    HW263985  10.062   8.235  12.074 -0.1930 -0.1042 -0.4370
18403SOL     OW63986   2.051   5.014   5.163 -0.3358 -0.6300  0.4533
18403SOL    HW163987   1.962   4.986   5.143 -0.3615 -0.2178 -0.0288
18403SOL    HW263988   2.087   5.043   5.079  0.0532 -0.2526  0.7455
18404SOL     OW63989   0.105   9.306   0.537  0.0062 -0.2810 -0.1854
18404SOL    HW163990   0.039   9.299   0.606  0.4016 -1.6427  0.0796
18404SOL    HW263991   0.055   9.332   0.459 -0.7450 -0.6599  0.1613
18405SOL     OW63992  10.222   5.636   4.854  0.5152  0.1523  0.4114
18405SOL    HW163993  10.269   5.715   4.829 -0.3090  0.0821 -1.6029
18405SOL    HW263994  10.135   5.646   4.813 -0.5545 -0.5947  2.3688
18406SOL     OW63995   6.078   2.792   6.728 -0.5598  0.4202  0.0911
18406SOL    HW163996   6.149   2.764   6.670  0.2648  1.5760  0.4981
18406SOL    HW263997   6.068   2.720   6.790 -0.0721  0.0302 -0.2740
18407SOL     OW63998   6.511   9.560  12.198  0.2267  0.1001 -0.4791
18407SOL    HW163999   6.498   9.579  12.291 -0.4057  0.5618 -0.6584
18407SOL    HW264000   6.485   9.468  12.189  0.2015  0.0805 -0.2213
18408SOL     OW64001   7.653   3.613  10.780  0.0207  0.2634 -0.1672
18408SOL    HW164002   7.677   3.666  10.704  0.5539  0.1617 -0.0775
18408SOL    HW264003   7.608   3.674  10.839  1.2682  0.8304  0.2619
18409SOL     OW64004  12.562   4.128   6.611  0.0156  0.1985 -0.5425
18409SOL    HW164005  12.536   4.104   6.521  2.9764  1.0499 -1.7422
18409SOL    HW264006  12.544   4.049   6.662  0.5083 -1.2169 -2.4069
18410SOL     OW64007   3.048   8.137   4.074  0.5289 -0.2743 -0.2899
18410SOL    HW164008   3.104   8.145   3.997  0.3504  0.8762 -0.3303
18410SOL    HW264009   2.969   8.186   4.051 -0.9199 -2.6292 -0.5902
18411SOL     OW64010   5.082   2.268  11.208 -0.4580  0.1261  0.5405
18411SOL    HW164011   4.989   2.290  11.199 -0.6090 -0.8408 -0.4445
18411SOL    HW264012   5.083   2.176  11.233  0.2286  0.1453  0.5907
18412SOL     OW64013   8.391  11.509   9.432  0.6185  0.0452 -0.4044
18412SOL    HW164014   8.440  11.494   9.513  0.9332 -0.1989 -0.6375
18412SOL    HW264015   8.445  11.571   9.383 -0.6170  1.9146  0.5056
18413SOL     OW64016   0.304   0.686   2.575  0.2101 -0.0875  0.0836
18413SOL    HW164017   0.336   0.647   2.494  0.2612 -0.1740  0.1454
18413SOL    HW264018   0.336   0.629   2.644  0.3900  0.1320  0.1849
18414SOL     OW64019   6.278   8.039  12.021  0.1630 -0.3100 -0.5267
18414SOL    HW164020   6.347   8.021  12.085 -0.8030 -1.0640  0.3452
18414SOL    HW264021   6.268   7.958  11.971 -1.6927 -1.0984  0.9697
18415SOL     OW64022   0.254   0.717   9.298 -0.8311 -0.8934  0.6001
18415SOL    HW164023   0.203   0.686   9.224 -1.4007  0.5847  0.3288
18415SOL    HW264024   0.193   0.720   9.371 -1.0965  0.5854  0.3506
18416SOL     OW64025   1.672   1.467   2.229 -0.0160 -0.1089 -0.8164
18416SOL    HW164026   1.716   1.397   2.181  0.2699  0.2973 -1.1608
18416SOL    HW264027   1.599   1.424   2.273  0.9224 -0.8435  0.0416
18417SOL     OW64028  10.404   7.241   0.743 -0.0813  0.0997  0.2218
18417SOL    HW164029  10.498   7.251   0.756 -0.2107  0.8630  0.6217
18417SOL    HW264030  10.396   7.172   0.677  0.7630  0.2521 -0.0497
18418SOL     OW64031  10.385   5.591   6.364 -0.1797 -0.0360 -0.0083
18418SOL    HW164032  10.456   5.568   6.425 -0.4601 -0.0196  0.3275
18418SOL    HW264033  10.340   5.664   6.407 -0.4935 -0.1464 -0.1525
18419SOL     OW64034   7.483   3.343   8.466 -0.0114 -0.1773 -0.6653
18419SOL    HW164035   7.506   3.410   8.531  0.3644 -0.3093 -0.6640
18419SOL    HW264036   7.412   3.383   8.416 -1.0606 -0.4975  0.5192
18420SOL     OW64037  12.018   2.066   5.427 -0.2690 -0.2183  0.6598
18420SOL    HW164038  12.012   2.161   5.435 -0.6385 -0.1968  0.1437
18420SOL    HW264039  11.929   2.037   5.407  0.1511 -0.4948 -0.9274
18421SOL     OW64040   9.628   6.668   9.833  0.7932  0.3876 -0.1528
18421SOL    HW164041   9.599   6.697   9.746  0.6809 -0.8749 -0.5545
18421SOL    HW264042   9.708   6.618   9.816 -0.3854 -1.7005  0.2002
18422SOL     OW64043   9.035   1.102   1.478  0.1116 -0.2210  0.4748
18422SOL    HW164044   9.015   1.068   1.566 -0.9856 -0.5666  0.1100
18422SOL    HW264045   8.952   1.094   1.430  0.1546  1.8219 -0.0104
18423SOL     OW64046   0.359   5.363   6.984 -0.8536  0.1695 -0.3620
18423SOL    HW164047   0.347   5.417   6.905  1.3098 -0.4549 -1.1822
18423SOL    HW264048   0.421   5.413   7.037  4.2081 -2.7972 -2.7460
18424SOL     OW64049   6.569  11.176  11.524  0.2771  0.4973  0.6139
18424SOL    HW164050   6.655  11.195  11.485  0.3155  0.3230  0.6127
18424SOL    HW264051   6.506  11.212  11.461  0.3397  0.2527  0.4073
18425SOL     OW64052   3.304   0.713   9.751  0.3114  0.2477 -0.2398
18425SOL    HW164053   3.264   0.749   9.831  0.8809  0.4832 -0.0546
18425SOL    HW264054   3.397   0.728   9.763  0.3114  1.3353 -1.4700
18426SOL     OW64055   9.836   7.713   1.060  0.2838  0.3769 -0.5933
18426SOL    HW164056   9.893   7.733   0.985  1.8249  0.2674  0.5034
18426SOL    HW264057   9.808   7.623   1.046  3.0463 -0.7568  0.4054
18427SOL     OW64058   7.592   2.314   4.728 -0.2463 -0.4829 -0.3623
18427SOL    HW164059   7.603   2.226   4.692 -0.7903  0.2597 -2.4583
18427SOL    HW264060   7.503   2.340   4.702 -0.3274  0.4726  0.7668
18428SOL     OW64061   8.224   9.109   8.599 -0.3301  0.3823 -0.5644
18428SOL    HW164062   8.142   9.060   8.591 -1.0172  1.7593 -2.5238
18428SOL    HW264063   8.271   9.091   8.518  0.4345  1.1983 -0.3165
18429SOL     OW64064   2.583   8.459   7.274 -0.1107  0.0918 -0.1957
18429SOL    HW164065   2.554   8.514   7.347  0.5910 -0.3645  0.4411
18429SOL    HW264066   2.511   8.463   7.211 -0.9273  0.1443  0.7081
18430SOL     OW64067   6.603  11.797   0.891 -0.3425  0.0929  0.5373
18430SOL    HW164068   6.513  11.794   0.924 -0.9332 -0.4315 -1.0346
18430SOL    HW264069   6.647  11.726   0.937 -0.9759 -0.2284  0.6611
18431SOL     OW64070   4.253   7.785   3.151 -0.9798 -0.1727 -0.3666
18431SOL    HW164071   4.217   7.788   3.240  0.6913 -1.1978  0.3967
18431SOL    HW264072   4.279   7.694   3.138 -0.5182  0.1157 -1.6287
18432SOL     OW64073   4.985   4.236  11.772 -0.8161  0.4298  0.0849
18432SOL    HW164074   4.962   4.296  11.701 -1.6066 -0.8986 -0.8382
18432SOL    HW264075   4.990   4.150  11.729 -3.1404 -0.7271  1.9317
18433SOL     OW64076   2.688   5.624   1.013 -0.8697 -0.3335 -0.1223
18433SOL    HW164077   2.610   5.677   0.997 -1.1520 -0.7159 -0.0278
18433SOL    HW264078   2.656   5.533   1.009 -0.4298 -0.4888 -0.0942
18434SOL     OW64079  10.197  12.371   2.674  0.2444  0.1791 -0.2992
18434SOL    HW164080  10.230  12.286   2.644  3.1871  0.7382  0.9737
18434SOL    HW264081  10.165  12.354   2.763 -1.6093 -0.0401 -0.9672
18435SOL     OW64082   9.106   2.467  11.851 -0.3129 -0.1934  0.3028
18435SOL    HW164083   9.155   2.541  11.886 -2.0827  2.2440 -1.9722
18435SOL    HW264084   9.015   2.485  11.874 -0.8087 -1.6114 -0.4232
18436SOL     OW64085   4.973   7.681   9.284  0.4544  0.1851 -0.3642
18436SOL    HW164086   4.935   7.612   9.339  0.6983 -0.4018 -0.9092
18436SOL    HW264087   4.930   7.761   9.312 -0.5552 -0.3349 -0.3698
18437SOL     OW64088   3.249  10.421   0.147 -0.0749 -0.2795  0.0640
18437SOL    HW164089   3.194  10.379   0.081  1.1043 -2.2608  0.2830
18437SOL    HW264090   3.302  10.484   0.098 -1.6560  0.8185 -0.3118
18438SOL     OW64091   0.495  11.253   4.700  0.0903 -0.4074 -0.4317
18438SOL    HW164092   0.441  11.332   4.691 -0.8699 -1.1748 -1.6999
18438SOL    HW264093   0.500  11.238   4.794  0.7905  1.4966 -0.1275
18439SOL     OW64094   4.062   4.059   3.869 -0.1645 -0.1061 -0.2446
18439SOL    HW164095   4.035   3.969   3.851 -2.3029  0.5580 -0.6030
18439SOL    HW264096   4.056   4.103   3.784  1.1119  0.3345 -0.1225
18440SOL     OW64097   9.682   4.222   8.950 -0.6304 -0.3447 -0.5042
18440SOL    HW164098   9.646   4.210   9.038 -0.4591 -0.2075 -0.4131
18440SOL    HW264099   9.771   4.255   8.965 -0.4693 -0.6723 -0.7251
18441SOL     OW64100   5.651   0.642   2.704  0.2213 -0.0282 -0.2371
18441SOL    HW164101   5.739   0.661   2.737  0.4039  0.2583 -0.8616
18441SOL    HW264102   5.654   0.671   2.612 -0.4903 -0.1228 -0.2912
18442SOL     OW64103   5.049   2.812   8.824 -0.0855  0.1481  0.4278
18442SOL    HW164104   5.088   2.899   8.816 -0.7826  0.6378  1.9053
18442SOL    HW264105   4.980   2.823   8.889 -3.6891 -0.3743 -2.9573
18443SOL     OW64106   6.794  11.373   0.495  0.1309  0.0758  0.1674
18443SOL    HW164107   6.888  11.385   0.506  0.3145 -2.0548  1.5471
18443SOL    HW264108   6.759  11.462   0.491  2.2509  0.9395 -1.2867
18444SOL     OW64109   9.003   7.468   2.406  0.1420 -0.2366  0.6088
18444SOL    HW164110   9.055   7.395   2.373  0.8146  0.6032 -0.2818
18444SOL    HW264111   9.058   7.507   2.474  1.6061  1.7458 -1.5495
18445SOL     OW64112   8.593   8.735  12.255 -0.4161  0.3177  0.1521
18445SOL    HW164113   8.618   8.662  12.199 -1.3768 -0.5780  0.8589
18445SOL    HW264114   8.652   8.730  12.329 -0.7106  0.0281  0.3717
18446SOL     OW64115   5.955   7.434   8.729  0.2482  0.0047  0.2042
18446SOL    HW164116   5.917   7.467   8.811  0.0079 -0.6291  0.3511
18446SOL    HW264117   6.016   7.503   8.702 -2.0285  1.7455 -0.8337
18447SOL     OW64118  11.563   5.894   0.208  0.2159  0.2069 -0.5909
18447SOL    HW164119  11.654   5.870   0.226  1.2615  3.0526 -1.5469
18447SOL    HW264120  11.538   5.951   0.281  0.7119  2.7772 -2.2903
18448SOL     OW64121   8.823   2.561   5.482 -0.6902  0.2935  0.5497
18448SOL    HW164122   8.735   2.533   5.506 -0.2440 -0.2364  1.6635
18448SOL    HW264123   8.846   2.505   5.407 -0.2594 -1.6436  2.0218
18449SOL     OW64124   1.233   0.039   4.985 -0.2680  0.3841  0.0824
18449SOL    HW164125   1.269   0.091   5.057 -1.7281  0.9962  0.3999
18449SOL    HW264126   1.263   0.083   4.906 -0.3479  0.9125  0.3404
18450SOL     OW64127  10.607   3.195   6.620  0.2690 -0.1121 -0.7367
18450SOL    HW164128  10.701   3.182   6.607  0.4302 -3.0955  2.1032
18450SOL    HW264129  10.601   3.256   6.694  0.0510 -0.9499 -0.0473
18451SOL     OW64130  11.683  10.372  11.775  0.7071  0.1988  0.2378
18451SOL    HW164131  11.773  10.346  11.754  1.0341  1.7943 -0.4906
18451SOL    HW264132  11.686  10.467  11.783 -0.6297  0.1660  1.7801
18452SOL     OW64133  10.196   6.217  10.180 -0.0668  0.8368  0.1751
18452SOL    HW164134  10.278   6.167  10.180 -0.1504  0.6784 -0.7190
18452SOL    HW264135  10.153   6.193  10.262 -0.3355 -0.9633 -0.4543
18453SOL     OW64136   5.859   4.397   8.094  0.1646  0.1447  0.0700
18453SOL    HW164137   5.948   4.410   8.063  0.6186 -0.4760  1.0671
18453SOL    HW264138   5.867   4.391   8.189 -0.6378 -2.1333  0.0646
18454SOL     OW64139  12.016  11.101   5.945  0.1314  0.3227 -0.0020
18454SOL    HW164140  11.978  11.149   5.871  2.0453  0.1903 -1.1414
18454SOL    HW264141  12.034  11.014   5.910 -0.8110 -0.4138  1.2556
18455SOL     OW64142   4.533   1.115   3.546  0.6303  0.2218 -0.3354
18455SOL    HW164143   4.472   1.147   3.612 -1.4270 -1.4448 -1.3096
18455SOL    HW264144   4.549   1.024   3.570 -0.5656 -0.5872 -2.2986
18456SOL     OW64145   4.739   3.100   4.148 -0.1557 -0.2127 -0.3490
18456SOL    HW164146   4.779   3.178   4.110 -0.8221 -0.5888 -1.9209
18456SOL    HW264147   4.647   3.123   4.157  0.0632  0.0288  1.5577
18457SOL     OW64148   9.870   1.666   5.916  0.1447  0.1284 -0.1040
18457SOL    HW164149   9.833   1.585   5.950 -1.3485  0.0469 -1.7330
18457SOL    HW264150   9.815   1.735   5.953 -0.7810  0.1104 -1.3525
18458SOL     OW64151  11.891  11.713   4.018  0.0983  0.4503 -0.3221
18458SOL    HW164152  11.827  11.643   4.032 -1.0221  0.6038 -3.7776
18458SOL    HW264153  11.959  11.673   3.965  0.4833  1.4694 -0.6250
18459SOL     OW64154   5.866   6.908   1.501 -0.6072  0.5057 -0.7361
18459SOL    HW164155   5.859   6.994   1.542 -0.0474 -0.2077  0.9606
18459SOL    HW264156   5.780   6.869   1.512 -0.3047  0.0955  0.3632
18460SOL     OW64157   1.137   6.153   7.383 -0.4122 -0.2688 -0.0776
18460SOL    HW164158   1.164   6.114   7.466 -0.5971 -0.5140 -0.1327
18460SOL    HW264159   1.163   6.244   7.390 -0.3838 -0.2997  0.2311
18461SOL     OW64160  10.534   8.664   1.980 -0.2075  0.1135 -0.2962
18461SOL    HW164161  10.606   8.615   1.942 -0.0921 -0.0289  0.0968
18461SOL    HW264162  10.533   8.747   1.932  0.1248  0.0555 -0.4039
18462SOL     OW64163   9.777   2.008   1.473  0.2549 -0.4196  0.1602
18462SOL    HW164164   9.771   1.945   1.545  0.0818 -1.1328 -0.4700
18462SOL    HW264165   9.701   2.064   1.484 -0.3758 -1.2034 -0.0897
18463SOL     OW64166   8.369   2.217   0.533 -0.4785 -0.0194 -0.1084
18463SOL    HW164167   8.356   2.162   0.456  0.7359 -0.9790  0.3419
18463SOL    HW264168   8.449   2.267   0.513 -0.9745  0.8178 -0.0666
18464SOL     OW64169   4.627   8.160   4.182 -0.0456 -0.5012  0.3825
18464SOL    HW164170   4.540   8.120   4.185 -1.0745  1.2856 -2.2473
18464SOL    HW264171   4.675   8.107   4.118 -0.0703  0.0451 -0.0922
18465SOL     OW64172   0.205   4.339  10.366 -0.2905 -0.3843 -0.3821
18465SOL    HW164173   0.110   4.344  10.374 -0.3741 -0.9656 -0.9309
18465SOL    HW264174   0.222   4.358  10.274 -0.0370 -2.1244 -0.7321
18466SOL     OW64175   6.912   6.699   7.094  0.2226 -0.2181 -0.4162
18466SOL    HW164176   6.918   6.734   7.183 -1.1937  0.5755 -0.5998
18466SOL    HW264177   6.868   6.615   7.105  1.3753 -0.8100 -0.2302
18467SOL     OW64178   0.919  10.988   5.489 -0.1370  0.2750  0.1509
18467SOL    HW164179   0.835  10.951   5.519 -2.0721  0.9951 -3.6941
18467SOL    HW264180   0.914  11.080   5.513 -0.7411  0.4345 -0.5490
18468SOL     OW64181   4.361   0.505   3.417  0.2709 -0.4488 -0.2258
18468SOL    HW164182   4.442   0.456   3.407  2.1845  2.2715  0.6570
18468SOL    HW264183   4.356   0.561   3.340 -0.1142  0.2482  0.2820
18469SOL     OW64184   7.371  10.566   4.738 -0.1054  0.2152  0.0692
18469SOL    HW164185   7.357  10.518   4.656  2.7145 -0.1351 -0.2874
18469SOL    HW264186   7.313  10.522   4.801  0.3329 -1.9071 -0.9015
18470SOL     OW64187   0.302   1.632   2.439  0.9168 -0.1158  0.2156
18470SOL    HW164188   0.226   1.661   2.388  2.2006  3.0027 -0.1152
18470SOL    HW264189   0.342   1.564   2.384 -1.2887 -1.5092  0.1864
18471SOL     OW64190   4.324   0.791   1.321 -0.0719  0.2281 -0.5927
18471SOL    HW164191   4.290   0.753   1.239  1.6959 -0.4925 -1.0248
18471SOL    HW264192   4.417   0.768   1.322 -0.2388 -0.7841  2.1743
18472SOL     OW64193   0.164   6.293   1.804  0.0051  0.0280 -0.2180
18472SOL    HW164194   0.115   6.364   1.762 -2.0696 -0.0118  1.9768
18472SOL    HW264195   0.109   6.216   1.794  0.2929 -0.3587  1.0215
18473SOL     OW64196  11.912  12.159   5.947  0.4197 -0.0672 -0.2428
18473SOL    HW164197  11.845  12.190   6.008 -0.0152 -0.5672 -0.4623
18473SOL    HW264198  11.908  12.063   5.954  1.0206 -0.1047 -0.3551
18474SOL     OW64199   4.982   9.220   6.160  0.6243 -0.3172  0.3073
18474SOL    HW164200   4.905   9.181   6.201 -0.8117 -0.1375 -2.0542
18474SOL    HW264201   5.023   9.149   6.112  0.8735 -0.0293  0.0875
18475SOL     OW64202   3.054  10.074   8.331  0.8025  0.2902 -0.1468
18475SOL    HW164203   3.009  10.080   8.247 -3.0822 -0.5798  1.6287
18475SOL    HW264204   3.045   9.982   8.356 -2.1704  1.2385  3.0283
18476SOL     OW64205  11.838   0.733   8.621  0.3938  0.0596  0.2489
18476SOL    HW164206  11.822   0.810   8.567  3.7630  0.8742  0.2391
18476SOL    HW264207  11.755   0.684   8.617 -0.5375  1.5921 -3.1280
18477SOL     OW64208   2.162   6.102   2.290  0.1834  0.7359  0.4202
18477SOL    HW164209   2.070   6.080   2.277  0.2191 -0.7542  2.3885
18477SOL    HW264210   2.210   6.026   2.259  0.8221  1.5738 -0.7600
18478SOL     OW64211   5.639   9.970   2.338  0.1684  0.1592  0.6935
18478SOL    HW164212   5.628   9.925   2.422 -0.3341  0.0218  0.5593
18478SOL    HW264213   5.731   9.957   2.316 -0.0222 -1.0974  0.5090
18479SOL     OW64214  11.801  10.904   2.464 -0.3089 -0.8968 -0.1712
18479SOL    HW164215  11.869  10.839   2.443  2.6182  1.7246  0.4289
18479SOL    HW264216  11.801  10.908   2.559 -0.0945  0.2889 -0.2151
18480SOL     OW64217   2.935   4.437   8.430  0.1311 -0.3677  0.2086
18480SOL    HW164218   3.010   4.473   8.382  0.3669 -0.7505  0.2874
18480SOL    HW264219   2.882   4.513   8.451  0.5721 -0.0756  0.2806
18481SOL     OW64220   5.773   4.689   5.327 -0.0414 -0.2146 -0.1366
18481SOL    HW164221   5.840   4.620   5.327  0.3358 -0.0027 -3.3431
18481SOL    HW264222   5.813   4.762   5.374  0.9856 -0.9363  0.1421
18482SOL     OW64223   1.598   8.143   5.547  0.6557 -0.1641  0.2144
18482SOL    HW164224   1.555   8.222   5.515 -0.1110 -0.7265 -0.1743
18482SOL    HW264225   1.529   8.094   5.592  1.6752  0.5856  2.8092
18483SOL     OW64226   5.655   6.564   1.227  0.5660 -0.1499  0.4872
18483SOL    HW164227   5.726   6.531   1.282 -0.4964 -1.3470  1.2199
18483SOL    HW264228   5.579   6.512   1.254 -0.2663  0.0933 -1.2704
18484SOL     OW64229   4.522   5.364   3.818 -0.3632 -0.0571 -0.1039
18484SOL    HW164230   4.510   5.287   3.762  1.5293 -0.4105 -0.0937
18484SOL    HW264231   4.505   5.438   3.760  0.3319 -0.4442 -0.8204
18485SOL     OW64232   9.648   2.204   6.205  0.2639  0.0344 -0.5306
18485SOL    HW164233   9.730   2.252   6.205 -0.0058  0.4989  0.0135
18485SOL    HW264234   9.587   2.260   6.253 -0.3925 -0.2642 -1.0005
18486SOL     OW64235   2.053   9.582   4.868  0.6967 -0.4195 -0.5050
18486SOL    HW164236   1.973   9.613   4.826 -0.4077 -1.4858  0.7040
18486SOL    HW264237   2.028   9.499   4.908  1.8903  0.0907  1.4668
18487SOL     OW64238   6.911   0.615   3.170  0.1639 -0.1012 -0.0573
18487SOL    HW164239   6.941   0.614   3.261  0.8906 -1.5752 -0.2812
18487SOL    HW264240   6.832   0.561   3.170  0.6703 -0.8611 -0.4412
18488SOL     OW64241   3.513   8.794   4.585  0.1544  0.2564  0.3085
18488SOL    HW164242   3.587   8.816   4.527 -0.1858 -2.5495 -1.3896
18488SOL    HW264243   3.548   8.806   4.673  4.1667 -4.5017 -0.2190
18489SOL     OW64244   3.611   5.162  10.620 -0.5337  0.5094  0.6474
18489SOL    HW164245   3.606   5.173  10.715 -0.5690  0.9659  0.5921
18489SOL    HW264246   3.632   5.249  10.587 -0.5477  0.3553  0.2332
18490SOL     OW64247   5.750  11.573  11.784 -0.0893 -0.1470 -0.2439
18490SOL    HW164248   5.745  11.519  11.863 -0.2236  0.2300  0.0161
18490SOL    HW264249   5.704  11.654  11.809  0.4237  0.2269 -0.5004
18491SOL     OW64250   7.533   9.487  11.943  0.4624 -0.8091  0.0204
18491SOL    HW164251   7.602   9.507  12.006 -1.2316  0.1906  1.6407
18491SOL    HW264252   7.564   9.525  11.861  1.5984  0.0788  0.8276
18492SOL     OW64253   4.045   6.621   5.190 -0.6328 -0.2226 -0.2500
18492SOL    HW164254   4.097   6.677   5.249  2.9072 -1.6699 -1.7326
18492SOL    HW264255   4.026   6.543   5.242  0.5076 -0.5469 -0.3033
18493SOL     OW64256   9.630   3.003   2.263  0.6231  0.3348 -0.1187
18493SOL    HW164257   9.543   3.018   2.299  0.5995 -0.2617  0.0824
18493SOL    HW264258   9.671   3.090   2.262 -0.4755  0.8597 -1.5863
18494SOL     OW64259   1.844   9.837   3.736  0.7287  0.0620 -0.2387
18494SOL    HW164260   1.865   9.826   3.643  0.5977 -1.1664 -0.1393
18494SOL    HW264261   1.793   9.760   3.759 -0.0148  0.7852  0.6503
18495SOL     OW64262   6.087   3.115   1.933 -0.4704 -0.0323  0.4260
18495SOL    HW164263   6.136   3.178   1.880 -1.5559  0.9054  0.5043
18495SOL    HW264264   6.155   3.071   1.985  0.5017 -0.2825 -1.0045
18496SOL     OW64265   0.307  10.992   4.540 -0.7444 -0.1226  0.2350
18496SOL    HW164266   0.296  11.033   4.454  0.4408 -0.3854 -0.0560
18496SOL    HW264267   0.370  11.047   4.585 -0.9723 -0.2790  0.7540
18497SOL     OW64268   0.102   3.906   4.377 -0.6087 -0.3465  0.1327
18497SOL    HW164269   0.106   3.899   4.282 -0.2623 -1.1680  0.2043
18497SOL    HW264270   0.193   3.899   4.407 -0.6131  0.8246  0.4747
18498SOL     OW64271   7.682   5.287   3.822 -0.2907 -0.1217  0.5999
18498SOL    HW164272   7.750   5.347   3.791 -1.0950  0.9813  0.9268
18498SOL    HW264273   7.694   5.284   3.917 -0.1331 -0.6271  0.5643
18499SOL     OW64274   3.698   2.371   3.286 -0.2593  0.5869  0.0120
18499SOL    HW164275   3.768   2.392   3.224  0.6211  1.6003  1.3044
18499SOL    HW264276   3.740   2.374   3.372 -1.3705 -1.1403  0.6594
18500SOL     OW64277   5.603   4.520   8.115  0.7568 -0.3037  0.4781
18500SOL    HW164278   5.696   4.501   8.103  0.7363  0.4097 -0.9999
18500SOL    HW264279   5.598   4.615   8.115  0.0656 -0.3385  0.9082
18501SOL     OW64280   0.109   5.342   8.201  0.3880  0.1036 -0.5734
18501SOL    HW164281   0.199   5.311   8.195  0.6652  0.9727 -1.0762
18501SOL    HW264282   0.057   5.272   8.161  0.9680  0.1255 -1.4005
18502SOL     OW64283  11.044   5.050  12.241 -0.0629  0.1058  0.2710
18502SOL    HW164284  10.968   5.108  12.241  0.7161  1.1676 -1.0555
18502SOL    HW264285  11.025   4.986  12.310 -1.7650  0.8448  0.5352
18503SOL     OW64286   9.630   4.493   2.523 -0.0141  0.6013 -0.7110
18503SOL    HW164287   9.707   4.538   2.488  1.0888  0.5310  1.4269
18503SOL    HW264288   9.660   4.456   2.606 -2.9804  2.7247  1.5416
18504SOL     OW64289   9.753  10.097   8.401 -0.0284  0.4267 -0.3632
18504SOL    HW164290   9.725  10.013   8.365 -0.1778  0.0557  0.5791
18504SOL    HW264291   9.745  10.086   8.496  0.3345  1.3712 -0.2115
18505SOL     OW64292   2.469   2.807  11.824 -0.2483 -0.0517 -0.2568
18505SOL    HW164293   2.395   2.858  11.857  0.6811  0.4831  1.1091
18505SOL    HW264294   2.434   2.719  11.810 -1.2500  0.3124 -0.1216
18506SOL     OW64295   8.180   1.771   1.761 -0.1037 -0.3272 -0.1953
18506SOL    HW164296   8.185   1.830   1.836  0.8642 -0.9511  0.2505
18506SOL    HW264297   8.136   1.692   1.795 -1.0194 -0.0386 -0.6795
18507SOL     OW64298   5.757   0.072   5.513 -0.0332 -0.7050  0.0366
18507SOL    HW164299   5.774   0.130   5.587  0.1593  0.1612 -0.6741
18507SOL    HW264300   5.839   0.070   5.464 -0.2304 -1.0820 -0.2866
18508SOL     OW64301  10.102  11.757   5.737 -0.1212  0.3635 -0.2077
18508SOL    HW164302  10.016  11.726   5.766  0.3512  0.9362  2.0322
18508SOL    HW264303  10.143  11.681   5.696 -1.4809 -0.0464 -0.8737
18509SOL     OW64304  11.178   1.315   8.743 -0.2944  0.1673 -0.3074
18509SOL    HW164305  11.257   1.321   8.690 -0.9819  0.7067 -1.3018
18509SOL    HW264306  11.204   1.347   8.830  0.4624  0.7685 -0.7486
18510SOL     OW64307   3.925   9.322   7.336 -0.4973 -0.1370 -0.2549
18510SOL    HW164308   4.019   9.314   7.353 -0.0279 -0.7256 -2.6825
18510SOL    HW264309   3.912   9.414   7.311 -0.0539 -0.5435 -2.1889
18511SOL     OW64310  10.570   0.677   9.741  0.2302 -0.6702 -0.2301
18511SOL    HW164311  10.498   0.685   9.678 -0.3718 -0.2693  0.4878
18511SOL    HW264312  10.581   0.583   9.753  2.2756 -0.9213 -3.0558
18512SOL     OW64313   5.887   7.331   2.844 -0.4153  0.3737  0.3515
18512SOL    HW164314   5.805   7.302   2.803  0.0212 -0.1327 -0.1933
18512SOL    HW264315   5.861   7.364   2.930 -1.2206  0.4577  0.0824
18513SOL     OW64316   5.211   7.481   9.724 -0.1016  0.4390  1.0646
18513SOL    HW164317   5.171   7.501   9.808  0.6445 -0.5567  1.6854
18513SOL    HW264318   5.297   7.444   9.747  0.8066  1.7026 -0.1895
18514SOL     OW64319   5.086   0.032   3.863 -0.2942 -0.0130  0.0854
18514SOL    HW164320   5.110   0.121   3.834  0.8020 -0.0728  0.7737
18514SOL    HW264321   5.122  -0.025   3.795  1.4709 -0.0911  1.0281
18515SOL     OW64322   7.774   1.801   9.782 -0.4200  0.5955 -0.0323
18515SOL    HW164323   7.692   1.826   9.826 -0.7374 -0.3035 -0.0856
18515SOL    HW264324   7.746   1.756   9.703  0.1019 -0.3465  0.2972
18516SOL     OW64325   7.167   6.816   0.068  0.0061  0.2939  0.1967
18516SOL    HW164326   7.096   6.876   0.092 -0.2197 -0.4206  1.3958
18516SOL    HW264327   7.127   6.729   0.070  0.1560  0.1208 -2.2220
18517SOL     OW64328   6.662   7.989   1.631  0.0073 -0.0254 -0.5948
18517SOL    HW164329   6.571   7.960   1.636  0.3565 -1.0139  0.2058
18517SOL    HW264330   6.686   8.009   1.721  0.7026 -0.1491 -0.7469
18518SOL     OW64331  10.656   7.631   7.971 -0.1350 -0.6305 -0.1423
18518SOL    HW164332  10.734   7.674   7.936  0.3431  0.6156  2.3103
18518SOL    HW264333  10.680   7.538   7.975  0.3723 -0.5883 -1.4422
18519SOL     OW64334  12.416   9.959   1.164  0.5094 -0.0999  0.6541
18519SOL    HW164335  12.362  10.037   1.154  0.7218 -0.0705 -0.3435
18519SOL    HW264336  12.506   9.989   1.149  1.1537  0.2927  4.3301
18520SOL     OW64337   1.410   4.038  10.644 -0.6585  0.3011 -0.0618
18520SOL    HW164338   1.463   3.981  10.700 -0.2706  3.4100  3.0857
18520SOL    HW264339   1.337   3.983  10.616  0.1914 -2.0153  1.9165
18521SOL     OW64340  12.128   2.565   5.548  0.0075  0.0698  0.2770
18521SOL    HW164341  12.221   2.565   5.573  0.5050  0.9737 -1.3832
18521SOL    HW264342  12.101   2.656   5.556 -0.8353 -0.2378  1.0209
18522SOL     OW64343  11.302  12.000   9.598 -1.0106 -0.3460 -0.1639
18522SOL    HW164344  11.359  12.065   9.556  0.0605 -1.3354 -0.2736
18522SOL    HW264345  11.217  12.012   9.554 -0.7550  0.7446 -0.4121
18523SOL     OW64346   5.667  10.684   7.706 -0.8030 -0.2416  0.4197
18523SOL    HW164347   5.698  10.636   7.630 -0.8878  1.1615 -0.5430
18523SOL    HW264348   5.576  10.707   7.686 -0.4916  1.0951  0.4220
18524SOL     OW64349   0.401   7.284   1.187 -0.1952  0.2843  0.2250
18524SOL    HW164350   0.338   7.215   1.166 -0.2524  0.7155 -1.1290
18524SOL    HW264351   0.483   7.238   1.203 -0.5730 -0.1988  0.7852
18525SOL     OW64352   6.642   4.445  10.934  0.4683 -0.2566 -0.6004
18525SOL    HW164353   6.672   4.531  10.963  0.6038 -0.1900 -0.9242
18525SOL    HW264354   6.554   4.460  10.900 -0.6085 -0.7399  1.8153
18526SOL     OW64355   7.775   5.068  10.197 -0.1123  0.2427 -0.3059
18526SOL    HW164356   7.781   4.980  10.235 -1.0356 -0.5909 -1.9357
18526SOL    HW264357   7.683   5.075  10.172 -0.1401  1.8748  0.1830
18527SOL     OW64358   3.932  11.651   7.788 -0.1394  0.1898 -0.0452
18527SOL    HW164359   3.862  11.714   7.806 -0.0032 -0.3081  2.6754
18527SOL    HW264360   3.889  11.566   7.785  0.0660  0.1042 -0.5900
18528SOL     OW64361   0.834   0.064   8.451 -0.0912 -0.5720 -0.1850
18528SOL    HW164362   0.910   0.095   8.401 -0.9246 -0.4774 -1.4543
18528SOL    HW264363   0.777   0.141   8.459 -0.6773 -0.9654 -0.4694
18529SOL     OW64364  10.895   6.959   2.194  0.1560 -0.4200 -0.3160
18529SOL    HW164365  10.878   6.965   2.288  2.4127  1.0320  0.0751
18529SOL    HW264366  10.880   7.048   2.161  1.4679 -0.3926 -0.8978
18530SOL     OW64367  10.250  11.456   9.988 -0.2383 -0.2945 -0.3663
18530SOL    HW164368  10.288  11.436  10.074 -1.3018 -1.8154 -0.2063
18530SOL    HW264369  10.208  11.542  10.000 -1.7624 -1.1886  1.1655
18531SOL     OW64370   6.271   4.585   8.405  0.2241 -0.0597  0.0699
18531SOL    HW164371   6.239   4.593   8.315  0.5267 -1.3114 -0.1654
18531SOL    HW264372   6.194   4.604   8.459 -0.9889 -2.8637 -0.4919
18532SOL     OW64373   0.991   5.543   7.481  0.0819  0.2657  0.0941
18532SOL    HW164374   1.006   5.542   7.387 -1.3704 -1.7237 -0.1603
18532SOL    HW264375   0.910   5.593   7.492  0.3272  0.6215  0.3167
18533SOL     OW64376   0.365   7.729   4.755 -0.0482  0.1149  0.1414
18533SOL    HW164377   0.453   7.691   4.748 -0.1821 -0.0756 -0.6676
18533SOL    HW264378   0.379   7.813   4.798  0.1751 -1.0777  2.5742
18534SOL     OW64379   9.512   2.612   0.610  0.2394  0.3465 -0.3055
18534SOL    HW164380   9.567   2.559   0.553 -1.4626 -0.9052 -0.8830
18534SOL    HW264381   9.551   2.699   0.608  1.6748 -0.2864 -1.3460
18535SOL     OW64382   4.444  11.815   1.278  0.0377 -0.7261 -0.4413
18535SOL    HW164383   4.458  11.854   1.192  0.7880  1.1532  0.4816
18535SOL    HW264384   4.369  11.862   1.314  0.6589 -0.4231  0.5083
18536SOL     OW64385  12.460  11.640   6.424 -0.1797  0.0111  0.1577
18536SOL    HW164386  12.530  11.701   6.399 -1.1983  0.7010 -1.0954
18536SOL    HW264387  12.502  11.581   6.487  0.8055  2.0956  1.5831
18537SOL     OW64388   7.527   6.784  12.076 -0.2026  0.2487 -0.3114
18537SOL    HW164389   7.599   6.847  12.085 -0.8677  0.9789 -0.0513
18537SOL    HW264390   7.465   6.808  12.145 -0.4648 -0.6907 -0.2169
18538SOL     OW64391   7.282   8.562  10.618 -0.2733 -0.1042 -0.2765
18538SOL    HW164392   7.340   8.502  10.571  1.0660  1.8369 -1.2436
18538SOL    HW264393   7.264   8.632  10.556 -1.2458  0.8564  1.0176
18539SOL     OW64394   0.347   0.957   4.782  0.5841  0.3079  0.0082
18539SOL    HW164395   0.255   0.944   4.759  0.1960  2.3786  0.1791
18539SOL    HW264396   0.394   0.953   4.699  0.0144  1.5181 -0.3962
18540SOL     OW64397   4.851   7.412   1.070 -0.0666 -0.0029  0.1807
18540SOL    HW164398   4.926   7.399   1.128 -0.6447  0.0617  0.9483
18540SOL    HW264399   4.845   7.507   1.059  0.0429 -0.0151  0.0036
18541SOL     OW64400   9.136   5.828   1.408  0.2414  0.1234 -0.3614
18541SOL    HW164401   9.066   5.886   1.379  0.1189  1.2955  2.0918
18541SOL    HW264402   9.090   5.749   1.439 -0.2175  1.3318  2.3181
18542SOL     OW64403   9.641   3.385   1.902  0.2892  0.1273  0.1556
18542SOL    HW164404   9.628   3.356   1.812 -0.1396 -1.7628  0.7927
18542SOL    HW264405   9.570   3.447   1.917  0.3690  0.4657 -0.7986
18543SOL     OW64406   2.486   8.725   8.495  0.3720  0.1890 -0.0826
18543SOL    HW164407   2.470   8.717   8.589 -1.1807  0.6414 -0.2920
18543SOL    HW264408   2.411   8.682   8.454 -0.2832  2.1925 -1.1188
18544SOL     OW64409   4.078   8.531   8.828  0.4628 -0.5743 -0.3349
18544SOL    HW164410   3.991   8.519   8.791  0.2995 -1.0334  0.1865
18544SOL    HW264411   4.087   8.461   8.893  1.3776 -0.8022 -0.6795
18545SOL     OW64412   5.630   5.427   8.369  0.0906 -0.6276  0.5502
18545SOL    HW164413   5.659   5.456   8.455 -0.5313  1.4431  0.1191
18545SOL    HW264414   5.546   5.384   8.385  1.3635 -2.9936  1.2909
18546SOL     OW64415  11.623   6.681  11.658  0.3084  0.3389 -0.0011
18546SOL    HW164416  11.528   6.688  11.645  0.0467 -0.6004  1.1508
18546SOL    HW264417  11.636   6.590  11.683  1.5952  0.3366 -0.6146
18547SOL     OW64418   6.927   2.689   5.546  0.1270  0.1069 -0.1420
18547SOL    HW164419   6.884   2.768   5.513 -0.9781 -0.0455  0.8918
18547SOL    HW264420   6.963   2.647   5.468  0.8360  1.6810 -0.6975
18548SOL     OW64421   2.534  10.216  10.845  0.5302  0.5576 -0.7476
18548SOL    HW164422   2.541  10.141  10.785  0.5825  1.2959 -1.6806
18548SOL    HW264423   2.545  10.293  10.789 -0.9865  1.3281 -0.0608
18549SOL     OW64424  10.102   7.666  11.260 -0.0944 -0.1512  0.1635
18549SOL    HW164425  10.044   7.616  11.317 -0.0736  2.1499  2.3886
18549SOL    HW264426  10.188   7.660  11.301  0.1211  0.7998 -0.1043
18550SOL     OW64427   0.963   7.782   5.671  0.7673  0.2388 -1.1601
18550SOL    HW164428   0.914   7.862   5.692  1.3496  0.6261 -1.2328
18550SOL    HW264429   1.012   7.805   5.592  1.0571 -0.1416 -1.0911
18551SOL     OW64430   0.138   9.217   6.296  0.3389 -0.5725  0.2555
18551SOL    HW164431   0.156   9.311   6.297 -0.4753 -0.3946 -0.4316
18551SOL    HW264432   0.103   9.199   6.383  2.0482 -0.5826  0.9841
18552SOL     OW64433   6.463   1.294  10.781  0.1907  0.6088 -0.2092
18552SOL    HW164434   6.512   1.278  10.862  0.6482  0.2523 -0.5514
18552SOL    HW264435   6.397   1.225  10.779 -0.8253  1.5190  0.6213
18553SOL     OW64436   4.926  10.039   8.437  1.0386 -0.3140  0.2153
18553SOL    HW164437   4.937   9.984   8.360  0.6057  0.8479 -0.7010
18553SOL    HW264438   4.961  10.124   8.411  2.6720 -0.3846  1.9361
18554SOL     OW64439   1.358   0.907   2.689  0.0674  0.1658  0.4447
18554SOL    HW164440   1.282   0.859   2.721  0.8725 -0.4743  1.4784
18554SOL    HW264441   1.430   0.844   2.694  0.8110  0.9760  0.2148
18555SOL     OW64442  11.822  10.031  11.457  0.3786 -0.3907  0.6300
18555SOL    HW164443  11.774  10.100  11.412  0.5693  0.3675  1.5675
18555SOL    HW264444  11.846   9.969  11.388 -0.1619  0.2613 -0.1521
18556SOL     OW64445   3.480   2.230   6.808 -0.5962  0.9117 -0.4495
18556SOL    HW164446   3.408   2.293   6.812 -0.4964  0.9670  1.0512
18556SOL    HW264447   3.460   2.166   6.877  0.3699  0.4711 -0.5574
18557SOL     OW64448   3.063   7.095   3.973 -0.4134 -0.0209 -1.2894
18557SOL    HW164449   3.026   7.048   4.048  1.0254  2.2012  1.0243
18557SOL    HW264450   3.109   7.028   3.922  0.1697 -1.3894  0.9004
18558SOL     OW64451  11.390   2.459   2.273  0.4427 -0.0413  0.1651
18558SOL    HW164452  11.452   2.495   2.337  0.2002 -0.2151  0.5006
18558SOL    HW264453  11.323   2.527   2.264  1.2619  0.6389 -1.0531
18559SOL     OW64454   6.935   8.773   6.122  0.1309 -0.0956  0.4140
18559SOL    HW164455   6.905   8.696   6.169 -0.8434  0.4744  0.7542
18559SOL    HW264456   7.007   8.741   6.067 -0.7698 -1.4146 -0.0606
18560SOL     OW64457   5.784   8.684   1.686  0.2244  0.3215  0.4156
18560SOL    HW164458   5.839   8.714   1.759  0.4050  2.3226 -0.4933
18560SOL    HW264459   5.700   8.664   1.727  0.1192  2.0464  1.1057
18561SOL     OW64460   3.961  12.115   5.481  0.0239  0.0116  0.8737
18561SOL    HW164461   3.873  12.093   5.448 -0.3026  1.5690  0.6210
18561SOL    HW264462   3.953  12.206   5.510  1.5442  0.1527  0.9070
18562SOL     OW64463   5.054   4.746   9.839  0.6813  0.0544  0.3125
18562SOL    HW164464   5.092   4.716   9.757  0.1814  1.4069 -0.4416
18562SOL    HW264465   5.127   4.785   9.887  0.9665 -0.7084  0.5224
18563SOL     OW64466   8.976   6.005  10.162 -0.1232  0.4875  0.1649
18563SOL    HW164467   8.930   6.082  10.194 -1.0149 -1.1265  3.1921
18563SOL    HW264468   9.040   5.985  10.230  0.7013 -0.9270 -0.9626
18564SOL     OW64469   4.280   8.097   9.124  0.2404  0.4887 -0.4277
18564SOL    HW164470   4.308   8.021   9.176 -1.1894  0.4725  0.3599
18564SOL    HW264471   4.273   8.063   9.034 -1.8904 -0.7930  0.1442
18565SOL     OW64472   4.373  11.615   3.153  0.2194  0.3210  0.2548
18565SOL    HW164473   4.467  11.603   3.143  0.3692  1.4756  0.1555
18565SOL    HW264474   4.353  11.695   3.104 -1.1565 -0.9641 -1.4283
18566SOL     OW64475   5.528   9.384   9.552  0.1184  0.1948  0.1818
18566SOL    HW164476   5.578   9.382   9.470  0.4869  0.7748  0.3888
18566SOL    HW264477   5.451   9.330   9.534  0.5002 -0.1920 -0.3470
18567SOL     OW64478  10.159   2.617   5.652  0.0426  0.3313  0.1081
18567SOL    HW164479  10.216   2.689   5.625  0.5703 -0.7125 -1.7265
18567SOL    HW264480  10.080   2.628   5.600  0.2738 -0.6071 -0.4499
18568SOL     OW64481   0.387   8.600   7.217 -0.1038  0.1256  0.1061
18568SOL    HW164482   0.336   8.643   7.148  0.0303  1.1534  0.6248
18568SOL    HW264483   0.329   8.600   7.293 -0.2619 -1.0278  0.0014
18569SOL     OW64484   9.101  11.970   1.917  0.9868  0.2306 -0.2656
18569SOL    HW164485   9.141  11.951   1.832 -1.1194  2.8867 -2.0331
18569SOL    HW264486   9.013  11.934   1.911  0.4222  1.4528  0.2585
18570SOL     OW64487  10.714  11.488   5.521 -0.2215  0.2090  0.1050
18570SOL    HW164488  10.651  11.476   5.449 -0.4639  0.7835  0.2178
18570SOL    HW264489  10.757  11.403   5.529 -0.3150  0.0872 -0.6077
18571SOL     OW64490   4.681   0.681   3.416 -0.4321  0.5335  0.4712
18571SOL    HW164491   4.726   0.707   3.336 -0.8451 -0.0162  0.0518
18571SOL    HW264492   4.613   0.620   3.387  0.6052 -1.1570  1.4261
18572SOL     OW64493  12.492   7.238   9.709  0.2637  0.2080  0.1306
18572SOL    HW164494  12.555   7.166   9.704  0.9506  0.8201 -0.1896
18572SOL    HW264495  12.506   7.277   9.796 -2.3441 -2.0109  1.7122
18573SOL     OW64496   1.780   6.063   5.928  0.2566  0.3888 -0.3065
18573SOL    HW164497   1.864   6.075   5.884  0.3793  0.0838 -0.1603
18573SOL    HW264498   1.729   6.140   5.904  0.3967  0.3258 -0.8107
18574SOL     OW64499  12.264   6.868   6.641 -0.0887  0.0019  0.8139
18574SOL    HW164500  12.339   6.901   6.591 -0.1151 -1.6818 -0.4138
18574SOL    HW264501  12.233   6.944   6.691  0.3680  1.5860 -1.1937
18575SOL     OW64502  11.937  12.556   4.741  0.3182 -0.4821 -0.3893
18575SOL    HW164503  11.878  12.621   4.704  0.0007 -1.2847 -1.3430
18575SOL    HW264504  11.881  12.495   4.788  0.5754 -0.3023  0.1678
18576SOL     OW64505   8.991   8.959   0.426 -0.6053 -0.9989 -0.1994
18576SOL    HW164506   9.005   8.939   0.333  1.4930  0.3125 -0.2375
18576SOL    HW264507   9.011   8.877   0.471  0.9123 -0.9702 -0.7687
18577SOL     OW64508   3.230   4.511   2.317 -0.4747  0.0104  0.0882
18577SOL    HW164509   3.161   4.470   2.369 -0.3924  0.0779  0.2519
18577SOL    HW264510   3.310   4.498   2.369 -0.6612  1.5633  0.8000
18578SOL     OW64511   4.173   2.524   3.456 -0.5365  0.9499 -0.3582
18578SOL    HW164512   4.131   2.561   3.379  0.4300 -0.1840 -1.4891
18578SOL    HW264513   4.241   2.587   3.481  0.3786  0.4948 -1.6024
18579SOL     OW64514   2.304   9.203   9.227 -0.5009 -0.1458  0.4033
18579SOL    HW164515   2.294   9.122   9.277 -2.3429  1.0677  2.1564
18579SOL    HW264516   2.375   9.249   9.271 -1.0866  0.2432  0.9537
18580SOL     OW64517   1.770  12.135   3.854  0.3395  0.0127  0.5813
18580SOL    HW164518   1.721  12.218   3.846 -1.9931 -1.4023 -1.2738
18580SOL    HW264519   1.852  12.152   3.808 -0.6608  0.9557 -0.9854
18581SOL     OW64520   1.377   6.095   3.754 -0.0090 -0.1913 -0.3141
18581SOL    HW164521   1.438   6.124   3.823  1.0027 -2.8625  0.0529
18581SOL    HW264522   1.301   6.061   3.802  0.9842 -2.6949 -0.3398
18582SOL     OW64523   5.112   5.097   8.961 -0.3723  0.3555  0.0193
18582SOL    HW164524   5.065   5.169   9.004  0.4961  0.6856  0.4288
18582SOL    HW264525   5.112   5.121   8.868  1.7187  1.9969  0.3563
18583SOL     OW64526   6.520   2.244   4.425 -0.4228 -0.0448 -0.3824
18583SOL    HW164527   6.577   2.291   4.485 -0.7713  1.0521 -0.8820
18583SOL    HW264528   6.579   2.194   4.369 -0.0902 -1.0605  0.8213
18584SOL     OW64529   6.976   5.223   5.796 -0.3598 -0.3402 -0.4078
18584SOL    HW164530   7.069   5.215   5.776 -0.1167  0.1819  0.4870
18584SOL    HW264531   6.964   5.175   5.877 -1.0608 -1.2024 -1.0003
18585SOL     OW64532   9.900   8.148   1.583 -0.4752 -0.6990 -0.5889
18585SOL    HW164533   9.942   8.214   1.528 -0.9356  0.9930  0.9830
18585SOL    HW264534   9.937   8.065   1.553 -0.6754  0.0966 -3.3875
18586SOL     OW64535   9.926   5.516   2.710  0.1533  0.1296  0.8270
18586SOL    HW164536   9.936   5.515   2.615  1.9273 -0.7129  0.9796
18586SOL    HW264537   9.967   5.598   2.738  0.6005 -0.1254  0.9328
18587SOL     OW64538   1.864   7.060  10.401  0.0334  0.1171  0.3946
18587SOL    HW164539   1.944   7.065  10.348 -0.6500  1.1376 -0.5969
18587SOL    HW264540   1.871   7.134  10.461 -0.5116  0.7118 -0.2467
18588SOL     OW64541   2.467   4.145  10.175 -0.5024 -0.2573  0.2098
18588SOL    HW164542   2.464   4.115  10.084 -2.2838 -0.1887  0.1986
18588SOL    HW264543   2.449   4.239  10.170 -1.3274 -0.3733  0.6446
18589SOL     OW64544   2.674   1.015   3.867  0.4305 -0.0576  0.3405
18589SOL    HW164545   2.653   1.108   3.856  2.5873  0.5942  1.3261
18589SOL    HW264546   2.634   0.991   3.951 -1.0046 -0.3536 -0.3830
18590SOL     OW64547   2.219   8.656   4.713 -0.8466  0.2030 -0.2321
18590SOL    HW164548   2.292   8.613   4.667 -1.0016 -0.4021  0.0841
18590SOL    HW264549   2.162   8.688   4.643 -0.2917  0.6660 -0.4837
18591SOL     OW64550  10.923   8.245  10.149  0.6298 -0.8883 -0.0381
18591SOL    HW164551  10.909   8.283  10.236  1.0367 -0.6636 -0.0681
18591SOL    HW264552  10.941   8.320  10.093  0.1778 -1.0168 -0.3583
18592SOL     OW64553   2.021  11.581  11.617  0.1917  0.2009  1.1792
18592SOL    HW164554   1.945  11.638  11.611  0.4004  0.4149  0.4989
18592SOL    HW264555   2.019  11.549  11.708 -1.1722 -0.4559  0.9448
18593SOL     OW64556   2.152   5.136   7.293 -0.0085 -0.0281  0.3679
18593SOL    HW164557   2.107   5.066   7.339 -0.5699  0.0975  0.0191
18593SOL    HW264558   2.179   5.097   7.210  0.7519 -0.1754  0.6795
18594SOL     OW64559   3.022   7.192   4.628  0.8777 -0.1568 -0.5572
18594SOL    HW164560   2.982   7.216   4.711 -0.5169 -0.9034 -0.9761
18594SOL    HW264561   3.044   7.275   4.587  0.8172  0.2424  0.1998
18595SOL     OW64562   8.690  10.949   4.422 -0.7431 -0.6242  0.3037
18595SOL    HW164563   8.681  10.887   4.494  2.8755 -0.6991  0.8468
18595SOL    HW264564   8.664  11.033   4.460  1.6123 -0.5560  2.0013
18596SOL     OW64565   1.876   6.215   3.869  0.6261  0.4231 -0.6995
18596SOL    HW164566   1.822   6.215   3.790 -0.2488  2.4401 -0.1819
18596SOL    HW264567   1.813   6.214   3.941  1.3963 -0.6342 -0.0098
18597SOL     OW64568   7.412   2.601  11.140  0.1754 -0.0383  0.1882
18597SOL    HW164569   7.373   2.675  11.094  0.6959  0.9047  1.2293
18597SOL    HW264570   7.440   2.636  11.224 -2.5260 -2.1631  2.1217
18598SOL     OW64571   9.934   0.705   6.234  0.1658  0.0698 -0.0597
18598SOL    HW164572   9.938   0.610   6.224  1.1500  0.1819 -0.9221
18598SOL    HW264573   9.910   0.719   6.326 -0.9797 -1.0057 -0.1620
18599SOL     OW64574   9.066   5.614   6.677 -0.7440 -0.2350  0.5813
18599SOL    HW164575   9.045   5.603   6.769 -1.5384  2.7930  0.8696
18599SOL    HW264576   9.106   5.701   6.671 -1.8579  0.2124 -2.0645
18600SOL     OW64577   6.747   0.624  10.370 -0.1504  0.2504 -0.2308
18600SOL    HW164578   6.827   0.611  10.319  1.4792  1.4720  1.8249
18600SOL    HW264579   6.730   0.539  10.410  1.2773  0.4044  0.7892
18601SOL     OW64580   1.619  11.206   5.018 -0.7029 -0.1228  0.0260
18601SOL    HW164581   1.541  11.261   5.027 -0.6209  0.0513 -0.3156
18601SOL    HW264582   1.594  11.138   4.955  0.0251  1.0716 -1.6241
18602SOL     OW64583   9.073  10.981  11.566 -0.4184 -0.5178  0.6536
18602SOL    HW164584   9.067  10.967  11.661 -2.4698  0.5697  0.7230
18602SOL    HW264585   8.996  10.938  11.530 -0.6259  0.6337 -0.3274
18603SOL     OW64586   7.451   6.174   4.520  0.7620 -0.1572  0.0739
18603SOL    HW164587   7.427   6.225   4.442  0.7561 -0.4023 -0.0855
18603SOL    HW264588   7.371   6.127   4.543  0.5373  0.5200  0.6983
18604SOL     OW64589   3.367   7.521   3.508 -0.0661 -0.5400 -0.1414
18604SOL    HW164590   3.425   7.596   3.517 -1.1531  0.1740  1.1936
18604SOL    HW264591   3.335   7.504   3.597 -0.8678 -1.7540 -0.6290
18605SOL     OW64592  12.604   4.238   7.832  1.0438  0.0563 -0.7437
18605SOL    HW164593  12.550   4.163   7.808 -2.0369  1.1087  2.1287
18605SOL    HW264594  12.569   4.310   7.780  0.7295  0.4201 -0.0452
18606SOL     OW64595   8.448  11.274   0.819  0.8283 -0.0562  0.8259
18606SOL    HW164596   8.457  11.251   0.912  2.2673  1.1647  1.0262
18606SOL    HW264597   8.433  11.190   0.775 -1.2183 -0.5211  2.2726
18607SOL     OW64598   2.576   2.060   8.521  0.4412  0.1798 -0.0557
18607SOL    HW164599   2.612   1.972   8.514 -2.1945 -1.0046  0.1772
18607SOL    HW264600   2.550   2.082   8.431 -0.9305 -0.2574  0.2078
18608SOL     OW64601   9.718   6.669   3.499  0.2591 -0.3497  0.3026
18608SOL    HW164602   9.761   6.630   3.575  0.4746  0.0947  0.4144
18608SOL    HW264603   9.637   6.706   3.535  0.2454 -0.3517  0.2730
18609SOL     OW64604   0.199   3.698   0.884 -0.2327 -0.6379  0.4385
18609SOL    HW164605   0.199   3.604   0.897  0.9877 -0.7441 -0.2158
18609SOL    HW264606   0.210   3.710   0.789 -0.6851  0.1623  0.4725
18610SOL     OW64607   5.103   0.642   1.945 -0.0915  0.1708 -0.1941
18610SOL    HW164608   5.022   0.690   1.928 -1.3564 -1.8772 -0.1991
18610SOL    HW264609   5.116   0.649   2.040 -1.5279 -1.3306  0.1459
18611SOL     OW64610   3.392   5.760   2.553 -0.0334 -0.3392  0.6087
18611SOL    HW164611   3.448   5.692   2.590  2.1296  1.2444  0.5016
18611SOL    HW264612   3.422   5.841   2.596 -2.1602  0.6282  0.3847
18612SOL     OW64613   4.001   7.997   9.646 -0.0116  0.0841 -0.3381
18612SOL    HW164614   3.910   7.976   9.667  0.1180 -1.7830 -1.4465
18612SOL    HW264615   4.050   7.921   9.675  0.9246  0.1525 -1.6922
18613SOL     OW64616   0.735  11.229   5.535  0.1086  0.0143 -0.0580
18613SOL    HW164617   0.670  11.164   5.563 -0.4117  0.2222 -0.7406
18613SOL    HW264618   0.715  11.243   5.443  0.2063  1.1448  0.0818
18614SOL     OW64619  11.013   4.010   7.395  0.1526 -0.2195  0.1197
18614SOL    HW164620  10.969   4.073   7.451 -1.8583 -1.0906 -0.4034
18614SOL    HW264621  11.072   4.062   7.341  0.2281  0.9146  1.2630
18615SOL     OW64622   2.025  11.679  12.177 -0.0401 -0.2848 -0.1110
18615SOL    HW164623   1.936  11.698  12.147  0.1150  0.7656  0.0609
18615SOL    HW264624   2.013  11.640  12.263 -0.3110  0.8202  0.3751
18616SOL     OW64625  12.373  12.371   5.028 -0.3722  0.5772 -0.2094
18616SOL    HW164626  12.394  12.419   4.948 -1.9257 -0.3689 -1.2369
18616SOL    HW264627  12.277  12.363   5.027 -0.4440  0.5916  1.7926
18617SOL     OW64628  11.873   3.100   4.968  0.3905 -0.3187 -0.4031
18617SOL    HW164629  11.782   3.124   4.982  0.9034  1.1070  0.6805
18617SOL    HW264630  11.915   3.182   4.941  1.5955 -0.6555  0.3770
18618SOL     OW64631   6.786   5.891   0.198  0.2818 -0.0103  0.3038
18618SOL    HW164632   6.819   5.802   0.190  0.7794  0.1005  0.9967
18618SOL    HW264633   6.755   5.914   0.111  0.0399 -0.9031  0.1522
18619SOL     OW64634   8.323   8.335   1.263 -0.4945  0.6981  0.1890
18619SOL    HW164635   8.300   8.246   1.236  0.3458  0.9615 -1.5264
18619SOL    HW264636   8.414   8.345   1.236  0.1734  1.3206  2.4638
18620SOL     OW64637   6.674   6.148  12.149  0.1872 -0.1173 -0.5756
18620SOL    HW164638   6.768   6.130  12.149  0.1401 -0.5958  1.2960
18620SOL    HW264639   6.659   6.198  12.229 -1.4320 -1.7279  0.1936
18621SOL     OW64640   5.739   2.446  12.195  0.2632  0.3140  0.0633
18621SOL    HW164641   5.833   2.460  12.200  0.0688  1.5066  0.7682
18621SOL    HW264642   5.714   2.419  12.284 -0.1343  0.5571  0.0313
18622SOL     OW64643   2.569   7.597   1.205 -0.0895  0.3371 -0.3486
18622SOL    HW164644   2.518   7.596   1.123  0.1008  0.3623 -0.4674
18622SOL    HW264645   2.627   7.672   1.197  1.0314 -0.5496 -0.8750
18623SOL     OW64646   3.014   5.014   9.725 -0.1767  0.3777  0.4510
18623SOL    HW164647   2.956   4.980   9.657  0.5516  0.6855 -0.3346
18623SOL    HW264648   3.083   4.948   9.732 -0.1574  0.4312  0.7736
18624SOL     OW64649   3.907   8.379   8.672 -0.7633 -0.0082 -0.1822
18624SOL    HW164650   4.000   8.359   8.662 -0.5121 -0.0562  1.8388
18624SOL    HW264651   3.869   8.365   8.585  1.1196  0.0678 -1.0446
18625SOL     OW64652   2.098   0.359   9.932 -0.0928  0.2362 -0.0442
18625SOL    HW164653   2.175   0.394   9.978 -0.1419 -0.9178  0.9953
18625SOL    HW264654   2.028   0.420   9.952 -0.3602 -0.7445  2.3620
18626SOL     OW64655  10.256   0.915   2.274 -0.0100  0.2839 -0.5819
18626SOL    HW164656  10.253   0.883   2.184  0.0727 -1.0554 -0.1288
18626SOL    HW264657  10.271   0.837   2.327  0.1878  1.0847  0.5820
18627SOL     OW64658   0.679  10.827  12.438 -0.2365 -0.2043  0.1272
18627SOL    HW164659   0.585  10.847  12.442 -0.1824 -0.0840  1.1404
18627SOL    HW264660   0.682  10.731  12.434 -0.4060 -0.2397  0.6686
18628SOL     OW64661   5.972   5.616   1.042  0.5938 -0.0469 -0.0881
18628SOL    HW164662   6.040   5.561   1.002 -2.6931 -2.1715 -3.4242
18628SOL    HW264663   5.903   5.554   1.066 -1.0870  2.1812  1.1555
18629SOL     OW64664  11.777   6.619   2.210 -0.6456 -0.3984 -0.0536
18629SOL    HW164665  11.761   6.533   2.170 -0.8707 -0.4116  0.0671
18629SOL    HW264666  11.772   6.681   2.137 -0.2491 -0.5123 -0.1820
18630SOL     OW64667   8.658   2.353  12.113  0.1295  0.5895  0.6555
18630SOL    HW164668   8.667   2.309  12.198  2.0374 -0.7186 -0.1549
18630SOL    HW264669   8.627   2.441  12.135 -0.2555  0.0144  2.6296
18631SOL     OW64670   2.364  12.353   9.221 -0.1616  0.3963  0.4973
18631SOL    HW164671   2.395  12.440   9.246  0.6823 -0.0026  0.8869
18631SOL    HW264672   2.342  12.311   9.304  0.0379  0.0212  0.3648
18632SOL     OW64673   5.309   9.219   3.383  0.2738  0.0883 -0.6018
18632SOL    HW164674   5.299   9.309   3.413  0.6345 -0.0295 -0.1217
18632SOL    HW264675   5.278   9.220   3.293 -1.9973  0.2181  0.1000
18633SOL     OW64676   8.478   4.924   3.433  0.1151  0.2378 -0.1673
18633SOL    HW164677   8.423   4.921   3.511  0.2059 -1.1785 -0.1197
18633SOL    HW264678   8.445   4.999   3.384 -1.2526 -0.0005  0.3166
18634SOL     OW64679   9.567   2.945  12.142 -0.3793 -0.5809  0.2218
18634SOL    HW164680   9.551   2.903  12.227  1.5969 -0.6629  0.5977
18634SOL    HW264681   9.612   3.026  12.163 -0.8108 -0.0883 -0.7092
18635SOL     OW64682   2.972   2.591  11.027  0.1829 -0.1401  0.6821
18635SOL    HW164683   2.898   2.569  11.084  0.0583  3.5970  2.2854
18635SOL    HW264684   3.050   2.575  11.080  0.3717 -1.0080  0.1634
18636SOL     OW64685   1.451   8.997   5.948  0.2157  0.2499 -0.0987
18636SOL    HW164686   1.492   9.069   5.900  1.4287 -0.4614 -0.1583
18636SOL    HW264687   1.431   8.932   5.880  2.6263 -1.0875  0.3637
18637SOL     OW64688   5.066   8.482  11.139 -0.0752 -0.5085  0.3808
18637SOL    HW164689   5.124   8.493  11.064  0.9943 -3.5463  0.6020
18637SOL    HW264690   5.007   8.411  11.113 -0.4820 -0.7766  1.9460
18638SOL     OW64691  11.933  11.314   2.788  0.6705 -0.1986  0.4867
18638SOL    HW164692  11.930  11.391   2.844 -1.1036 -1.3863  2.1493
18638SOL    HW264693  11.910  11.241   2.846 -0.7972 -1.5750 -1.6687
18639SOL     OW64694  11.778  11.338   4.834  0.2990  0.3084  0.2745
18639SOL    HW164695  11.851  11.276   4.831 -0.7442 -0.9606  0.2558
18639SOL    HW264696  11.753  11.342   4.926 -1.3599 -1.4422 -0.0345
18640SOL     OW64697   3.486   7.147  11.145  0.0487 -0.2002  0.2053
18640SOL    HW164698   3.542   7.221  11.169  2.0963 -1.8549  0.7816
18640SOL    HW264699   3.470   7.160  11.051  1.3700  0.3715  0.0237
18641SOL     OW64700   8.269   1.763   9.758 -0.1024 -0.7871 -0.9762
18641SOL    HW164701   8.285   1.708   9.682  0.7811 -1.7548 -0.1222
18641SOL    HW264702   8.179   1.744   9.784 -0.2548 -0.7835 -1.5065
18642SOL     OW64703   3.812   0.684  11.850  0.2724 -0.5638 -0.0883
18642SOL    HW164704   3.825   0.695  11.756 -0.2659 -0.4586 -0.1512
18642SOL    HW264705   3.717   0.684  11.862  0.3367  0.7215  0.6043
18643SOL     OW64706   0.749   0.383   5.856 -0.5727  0.4460 -1.1191
18643SOL    HW164707   0.828   0.424   5.821  0.2367 -1.2953 -1.4446
18643SOL    HW264708   0.782   0.313   5.914 -1.8797  1.1089  0.5232
18644SOL     OW64709   5.923   3.267   6.969  0.3510 -0.0860 -0.0612
18644SOL    HW164710   6.010   3.278   7.005  0.1823 -1.0648  0.6795
18644SOL    HW264711   5.922   3.178   6.934 -0.4440 -0.1909  0.2044
18645SOL     OW64712   0.431   9.478   3.627  0.1229  0.0514 -0.1554
18645SOL    HW164713   0.468   9.521   3.550 -1.5380  1.2122 -0.3668
18645SOL    HW264714   0.363   9.420   3.592  0.7685 -1.0082  0.3061
18646SOL     OW64715  10.779   0.843   9.833 -0.0900  0.0244  0.0047
18646SOL    HW164716  10.702   0.806   9.791  0.0052 -3.6842  2.6233
18646SOL    HW264717  10.745   0.888   9.911  0.2202  0.8197 -0.3076
18647SOL     OW64718  11.047   9.114   1.301 -0.2647 -0.3319  0.0211
18647SOL    HW164719  11.059   9.060   1.380  1.0930  0.6069  0.5011
18647SOL    HW264720  11.032   9.202   1.334 -1.6230 -0.2440 -0.7709
18648SOL     OW64721   4.739   1.179  11.162 -0.2596 -0.4689 -0.2662
18648SOL    HW164722   4.715   1.251  11.104  0.9901  0.0776 -0.1430
18648SOL    HW264723   4.777   1.113  11.104  1.1397  0.1443 -0.1008
18649SOL     OW64724   9.293   6.211   0.265  0.0171 -0.2773 -0.8185
18649SOL    HW164725   9.386   6.232   0.266 -0.1882  0.6699 -0.8626
18649SOL    HW264726   9.254   6.271   0.329 -0.6890 -0.0783 -1.4240
18650SOL     OW64727  10.153   5.124   5.479  0.1363  0.7610 -0.0399
18650SOL    HW164728  10.095   5.079   5.419  0.0499  0.2535  0.4197
18650SOL    HW264729  10.095   5.179   5.532 -0.0087 -0.1451  0.7781
18651SOL     OW64730   3.625   8.358   8.492 -0.1604 -0.4448  0.0902
18651SOL    HW164731   3.580   8.414   8.556 -0.7969  0.2664 -0.9525
18651SOL    HW264732   3.561   8.343   8.423  0.3803 -1.5468 -0.1956
18652SOL     OW64733   6.789   9.498   4.532  0.0372  0.4406 -0.2202
18652SOL    HW164734   6.758   9.588   4.543 -0.9046  0.1725 -0.6765
18652SOL    HW264735   6.881   9.508   4.506 -0.8253  1.3796 -3.1964
18653SOL     OW64736   2.955   8.547  11.671 -0.1623 -0.4828 -0.0898
18653SOL    HW164737   2.974   8.457  11.647  0.9427 -0.6440  1.2688
18653SOL    HW264738   3.040   8.584  11.696 -0.7525  0.6271  0.3661
18654SOL     OW64739   9.267   9.334   3.835  0.2612 -0.4580  0.2089
18654SOL    HW164740   9.336   9.341   3.770  0.2798  0.7278  0.3404
18654SOL    HW264741   9.186   9.345   3.786  0.2383 -0.2936  0.2845
18655SOL     OW64742   6.009   6.635   4.433  0.1145 -0.2002  0.0061
18655SOL    HW164743   6.064   6.568   4.390 -0.6315 -0.0158 -1.3111
18655SOL    HW264744   5.942   6.655   4.367 -1.2698 -0.1019  1.4042
18656SOL     OW64745   2.159   5.087   5.420  0.0672  0.2150 -0.1688
18656SOL    HW164746   2.106   5.060   5.346  0.0794 -1.2642  0.3439
18656SOL    HW264747   2.220   5.015   5.435  0.3745  0.6846  0.9925
18657SOL     OW64748   7.564   9.445   4.530  0.1702  0.1388  0.3417
18657SOL    HW164749   7.506   9.381   4.490  1.4713 -0.5648 -0.5029
18657SOL    HW264750   7.608   9.487   4.455  0.3858  0.9866  0.9345
18658SOL     OW64751  10.483   5.525  10.206  0.0494 -0.8642 -0.2192
18658SOL    HW164752  10.456   5.520  10.114  1.2085 -1.3311 -0.5579
18658SOL    HW264753  10.571   5.563  10.202  0.0691 -0.7964  0.7111
18659SOL     OW64754   5.113   4.054   1.111  0.0787  0.6956  0.3777
18659SOL    HW164755   5.054   3.982   1.132 -0.6888  0.6648 -1.6713
18659SOL    HW264756   5.058   4.132   1.112 -0.1843  0.5989 -2.0704
18660SOL     OW64757  12.558   2.623   3.009  0.1733  0.8574  0.8818
18660SOL    HW164758  12.548   2.651   3.100 -0.8897 -0.5411  1.2274
18660SOL    HW264759  12.541   2.529   3.011  2.3237  0.3667 -0.4300
18661SOL     OW64760   6.772   5.826  10.396 -0.1426 -0.0966 -0.2545
18661SOL    HW164761   6.680   5.815  10.370 -1.0459  1.6771  1.8023
18661SOL    HW264762   6.796   5.742  10.434 -1.5468 -0.0818  0.7732
18662SOL     OW64763  10.154   0.464  12.513  0.3516 -0.1797 -0.1234
18662SOL    HW164764  10.121   0.552  12.495  2.7417  0.7461 -0.3465
18662SOL    HW264765  10.085   0.423  12.566 -0.8554  1.7837 -0.0719
18663SOL     OW64766   2.336   2.377   9.589  0.1817  0.1481  0.6189
18663SOL    HW164767   2.331   2.321   9.512  0.3720  1.3895 -0.3225
18663SOL    HW264768   2.398   2.333   9.647 -2.6446 -2.7313  1.7373
18664SOL     OW64769  10.587   3.612   4.944  0.3577  0.3189  0.4253
18664SOL    HW164770  10.514   3.628   5.004  0.3808 -0.9470  0.8155
18664SOL    HW264771  10.553   3.638   4.858 -2.3367 -4.4358 -0.2810
18665SOL     OW64772   2.003   7.006   0.403  0.0231 -0.0963 -0.0927
18665SOL    HW164773   1.919   6.979   0.366  0.4603 -0.3451 -0.9508
18665SOL    HW264774   2.008   7.100   0.383 -0.6805  0.2471  1.2517
18666SOL     OW64775   7.201  11.344   3.139  0.0679  0.6397 -0.3803
18666SOL    HW164776   7.207  11.433   3.174  0.0247  0.8975 -1.0011
18666SOL    HW264777   7.289  11.309   3.148  0.2112  0.9357 -0.6080
18667SOL     OW64778  10.870   3.592   7.411  0.0669 -0.3483  0.2095
18667SOL    HW164779  10.811   3.556   7.344  2.2509 -1.2205 -1.3812
18667SOL    HW264780  10.877   3.685   7.389 -1.2131 -0.0752  0.8557
18668SOL     OW64781   0.422   4.145   8.249  0.5342  0.9254  0.5501
18668SOL    HW164782   0.492   4.167   8.310 -1.0723 -1.1426  3.4046
18668SOL    HW264783   0.418   4.050   8.249 -1.2523  0.9344 -0.7399
18669SOL     OW64784   7.161   6.774   1.964 -0.7453 -0.1029  0.3599
18669SOL    HW164785   7.122   6.691   1.988  0.6969 -0.4739  1.5784
18669SOL    HW264786   7.163   6.825   2.045  0.4802  0.2166  0.1623
18670SOL     OW64787   1.032   4.545   1.916 -0.1775  0.0199 -0.7185
18670SOL    HW164788   0.968   4.474   1.926  1.0289 -1.0717 -0.4559
18670SOL    HW264789   0.980   4.620   1.886 -1.9214 -0.1799  1.5483
18671SOL     OW64790   6.472   3.019   9.997  0.2408  0.3131 -0.0843
18671SOL    HW164791   6.469   3.007   9.902 -0.3379 -1.8821  0.1479
18671SOL    HW264792   6.384   3.050  10.020 -0.3687 -1.3061 -0.0810
18672SOL     OW64793   8.891  10.718   1.895 -0.0661  0.7544 -0.2752
18672SOL    HW164794   8.959  10.663   1.857 -1.1217 -1.5183  0.8627
18672SOL    HW264795   8.820  10.656   1.916 -2.7626  3.0403 -1.9230
18673SOL     OW64796   4.296   4.007   2.638  0.6454  0.0697  0.2397
18673SOL    HW164797   4.381   4.049   2.655  1.0559 -0.5477 -0.2432
18673SOL    HW264798   4.316   3.935   2.578 -0.2836  0.1578 -0.1933
18674SOL     OW64799   8.683  10.923   2.250  0.1751 -0.0363  0.1388
18674SOL    HW164800   8.604  10.950   2.297  0.3012 -0.0503  0.3589
18674SOL    HW264801   8.711  10.843   2.294 -0.0242 -0.3613 -0.3195
18675SOL     OW64802   1.533  10.288   5.860  0.1238 -0.2256  0.2867
18675SOL    HW164803   1.628  10.275   5.863  0.1455  0.1319  1.4690
18675SOL    HW264804   1.498  10.222   5.919 -0.2616  0.5526  0.9437
18676SOL     OW64805   9.864   4.925   9.333  0.2122 -0.0537 -0.4029
18676SOL    HW164806   9.913   4.910   9.252  0.0772  0.8851 -0.6630
18676SOL    HW264807   9.782   4.966   9.305 -0.0270 -0.1270  0.1731
18677SOL     OW64808   2.350   3.965   1.909 -0.0536 -0.0390  0.4734
18677SOL    HW164809   2.418   3.986   1.972  0.1169  0.7005  0.0595
18677SOL    HW264810   2.388   3.896   1.854 -0.2639 -0.7982  1.2591
18678SOL     OW64811   9.652   6.493   7.060  0.0850 -0.6629  0.2745
18678SOL    HW164812   9.734   6.539   7.075  0.2925 -1.0399  0.3119
18678SOL    HW264813   9.670   6.433   6.988 -0.1011 -0.8850  0.4096
18679SOL     OW64814  12.554   8.277   8.013  0.1779  0.2256  0.9103
18679SOL    HW164815  12.546   8.191   7.973  1.0286  0.8693 -0.7391
18679SOL    HW264816  12.601   8.262   8.095 -1.0502 -1.0528  1.4123
18680SOL     OW64817  11.886   6.863   9.792 -0.0588 -0.1781 -0.9473
18680SOL    HW164818  11.892   6.798   9.862  1.6684  1.8033  0.8849
18680SOL    HW264819  11.872   6.811   9.712 -1.3560 -2.5816  0.7152
18681SOL     OW64820   3.516   7.640   8.826 -0.0216 -0.1593 -0.6485
18681SOL    HW164821   3.424   7.620   8.807 -0.4277  0.6111  0.4120
18681SOL    HW264822   3.544   7.697   8.755 -0.4512 -0.1702 -0.8267
18682SOL     OW64823   5.610   7.757   3.827  0.3490  0.4436 -0.6631
18682SOL    HW164824   5.543   7.794   3.884  1.6641  0.3632  1.0186
18682SOL    HW264825   5.638   7.830   3.772  1.6017  1.5983  1.3485
18683SOL     OW64826   2.025   9.952   7.755 -0.0871 -0.4890 -0.0335
18683SOL    HW164827   2.093  10.014   7.728  0.1678 -1.4417 -1.6967
18683SOL    HW264828   1.942   9.997   7.734  0.0149  0.2330  1.0058
18684SOL     OW64829   8.417   9.142   0.369  0.4109 -0.0871 -0.4033
18684SOL    HW164830   8.477   9.093   0.424  1.1699  0.8024 -0.4098
18684SOL    HW264831   8.407   9.227   0.413 -0.7153 -0.1552 -0.4908
18685SOL     OW64832  11.788   6.471   9.711 -0.5517 -0.1309 -0.0489
18685SOL    HW164833  11.748   6.501   9.630  1.3145  1.2090 -0.5386
18685SOL    HW264834  11.726   6.407   9.746 -3.4762  2.3198 -0.3273
18686SOL     OW64835   0.558  12.308   3.016 -0.2010 -0.5187 -0.0434
18686SOL    HW164836   0.513  12.226   2.995 -1.3759 -0.0826  0.6522
18686SOL    HW264837   0.591  12.296   3.105 -1.0458  0.0185  0.3558
18687SOL     OW64838   8.153   8.135   4.881  0.0907 -0.7563  0.1720
18687SOL    HW164839   8.089   8.163   4.816  0.1438  0.5032  0.6426
18687SOL    HW264840   8.108   8.142   4.964  1.7918  3.7440  0.9844
18688SOL     OW64841  11.424   4.712   8.382 -0.0096 -0.3499  0.0463
18688SOL    HW164842  11.459   4.797   8.354  0.5630 -0.8323 -0.7589
18688SOL    HW264843  11.419   4.660   8.301 -1.8228 -0.5942  0.2656
18689SOL     OW64844   0.495   1.386   0.329 -0.6595 -0.4880  0.0100
18689SOL    HW164845   0.544   1.339   0.397 -1.5206 -0.2407  0.8152
18689SOL    HW264846   0.438   1.445   0.377 -0.2725  0.7215 -0.9746
18690SOL     OW64847   8.620   4.187   3.511 -0.2686 -0.4602  0.4719
18690SOL    HW164848   8.579   4.260   3.559 -1.8753 -1.4692  0.7000
18690SOL    HW264849   8.607   4.209   3.419 -2.4289 -1.3129  0.5315
18691SOL     OW64850   9.986   4.756   8.069  0.3827 -0.1994  0.2529
18691SOL    HW164851   9.928   4.729   7.999 -0.0448  1.6149 -0.1535
18691SOL    HW264852   9.946   4.722   8.149 -0.4348 -0.2396 -0.1638
18692SOL     OW64853   7.738   8.116   3.828  0.1305 -0.3318 -0.4506
18692SOL    HW164854   7.663   8.169   3.802 -0.1760 -0.9151 -0.7563
18692SOL    HW264855   7.774   8.083   3.746 -1.3513 -2.8885 -0.1922
18693SOL     OW64856  11.609  11.339   9.623  0.1472 -0.2215 -0.6115
18693SOL    HW164857  11.571  11.257   9.655 -1.0117  0.0102 -1.3222
18693SOL    HW264858  11.676  11.361   9.687 -4.0984  1.8985  3.6619
18694SOL     OW64859  11.791   8.845   9.898  0.4812  0.2486  0.3470
18694SOL    HW164860  11.781   8.776   9.964  0.7840 -0.1007  0.0344
18694SOL    HW264861  11.874   8.825   9.855  0.2640  0.4461 -0.1752
18695SOL     OW64862   1.718  11.798   9.801  0.1026  0.3298 -0.5584
18695SOL    HW164863   1.804  11.836   9.820 -0.1950  0.9874 -0.5132
18695SOL    HW264864   1.738  11.717   9.754  0.7544  0.3603 -0.3440
18696SOL     OW64865   7.884   1.064   4.167 -0.1316  0.4089 -0.2650
18696SOL    HW164866   7.931   1.133   4.215  0.8961 -0.2705 -0.2712
18696SOL    HW264867   7.792   1.081   4.186  0.0931  1.7932 -0.2653
18697SOL     OW64868  12.218   9.675  11.422 -0.0237 -0.4989 -0.3439
18697SOL    HW164869  12.166   9.733  11.478 -0.5382 -0.8128 -0.4887
18697SOL    HW264870  12.290   9.730  11.392  0.5724 -0.4766  1.0581
18698SOL     OW64871  11.873   1.156   0.616  0.3361 -0.6825  0.2908
18698SOL    HW164872  11.899   1.066   0.597  1.9079  0.0403 -1.2949
18698SOL    HW264873  11.854   1.194   0.530 -1.6034  0.1603  1.0397
18699SOL     OW64874  10.630   6.785  11.766  0.0936  0.9674  0.6542
18699SOL    HW164875  10.605   6.707  11.816  0.0644  1.3167  1.1916
18699SOL    HW264876  10.725   6.788  11.774  0.2019  0.3993 -0.2582
18700SOL     OW64877   3.631   6.227  11.353 -0.1373  0.0299  0.6800
18700SOL    HW164878   3.658   6.256  11.440  1.4770  0.0005  0.2259
18700SOL    HW264879   3.541   6.196  11.364 -0.3776  1.1284  2.0759
18701SOL     OW64880   7.489   1.336   8.673 -0.0502 -0.4585 -0.5254
18701SOL    HW164881   7.448   1.401   8.729  0.0247 -1.8410  1.2439
18701SOL    HW264882   7.580   1.364   8.665 -0.1293 -0.1075 -0.1663
18702SOL     OW64883  10.640   5.146  10.130  0.2032  0.6720  0.0638
18702SOL    HW164884  10.646   5.072  10.070 -1.8377  0.3532  0.1885
18702SOL    HW264885  10.633   5.105  10.217  0.2111  1.0456  0.2408
18703SOL     OW64886  11.769  10.867   6.585 -0.6044 -0.1402  0.5931
18703SOL    HW164887  11.819  10.862   6.667 -0.4250  0.7862  0.5433
18703SOL    HW264888  11.745  10.959   6.577 -0.8229 -0.2675 -0.2853
18704SOL     OW64889   6.702   6.046  12.542  0.1067 -0.4787  0.2367
18704SOL    HW164890   6.618   6.007  12.517 -0.0358  0.1903 -0.3305
18704SOL    HW264891   6.709   6.125  12.489  0.3177  0.3705  1.4926
18705SOL     OW64892  11.877   3.220   7.846  0.4825 -0.4588  0.4838
18705SOL    HW164893  11.853   3.145   7.901  0.2638 -2.8579 -2.6181
18705SOL    HW264894  11.800   3.276   7.847 -0.4951 -1.7590  0.5956
18706SOL     OW64895   8.484   7.459  11.268  0.2891  0.2460 -0.3169
18706SOL    HW164896   8.509   7.443  11.359  0.4906  3.1588  0.2347
18706SOL    HW264897   8.390   7.438  11.265  0.0250  1.1042  0.8862
18707SOL     OW64898   2.553   4.701  10.057 -0.7802  0.2443 -0.0122
18707SOL    HW164899   2.570   4.607  10.044  0.4691  0.6369 -1.5536
18707SOL    HW264900   2.522   4.732   9.972 -0.8547  1.2949  0.3812
18708SOL     OW64901  12.442  12.196   8.035 -0.7009 -0.4542 -0.1191
18708SOL    HW164902  12.462  12.286   8.009 -0.4906  0.3149  2.4843
18708SOL    HW264903  12.526  12.159   8.062 -1.2739 -0.1707  2.2758
18709SOL     OW64904   9.375  10.649   2.807  0.4591 -0.6004 -0.0275
18709SOL    HW164905   9.394  10.587   2.738  0.0352 -2.4473  1.4390
18709SOL    HW264906   9.282  10.638   2.825  0.4232  0.3001  0.4323
18710SOL     OW64907   3.725   0.077   5.553 -0.0114  0.2523  0.1053
18710SOL    HW164908   3.730   0.162   5.509 -1.2329 -0.5724 -1.7661
18710SOL    HW264909   3.635   0.049   5.541  0.2908 -1.1975  0.9429
18711SOL     OW64910   6.128   2.875   2.292  0.4335  0.3098 -0.2782
18711SOL    HW164911   6.178   2.813   2.345  0.1238  1.0584  0.9219
18711SOL    HW264912   6.074   2.922   2.355 -1.9088 -0.5506 -1.5066
18712SOL     OW64913   2.446  10.095   8.587  0.6916  0.1482  0.1994
18712SOL    HW164914   2.443  10.187   8.614  1.1709 -0.4748  2.5785
18712SOL    HW264915   2.539  10.071   8.594  0.4375 -0.7700  0.6152
18713SOL     OW64916   3.634   4.482   1.259  0.0814  0.2044 -0.1529
18713SOL    HW164917   3.685   4.553   1.299  1.8731 -0.3486 -1.3533
18713SOL    HW264918   3.579   4.526   1.194 -1.2462  0.8342  1.3237
18714SOL     OW64919   6.045   5.603   6.228  0.0132  0.5903 -0.6690
18714SOL    HW164920   6.094   5.615   6.309  0.7092 -0.4566 -0.9157
18714SOL    HW264921   5.970   5.662   6.236 -0.5155 -0.2982  1.1988
18715SOL     OW64922   4.320   5.972  10.006 -0.2846 -0.1494 -0.0349
18715SOL    HW164923   4.362   5.912   9.945  0.4809 -0.3545  0.6754
18715SOL    HW264924   4.284   5.916  10.074 -0.0255  0.1649  0.3616
18716SOL     OW64925   0.138   3.345   8.037 -0.4258 -0.1108  0.5052
18716SOL    HW164926   0.180   3.431   8.040  0.5962 -0.6259  1.8607
18716SOL    HW264927   0.182   3.294   8.105 -1.3171 -1.5778  0.0314
18717SOL     OW64928   4.177   7.850  10.409  0.5251 -0.4017  0.1430
18717SOL    HW164929   4.231   7.803  10.345 -0.2946 -2.3365  0.8036
18717SOL    HW264930   4.217   7.830  10.494  0.7106  0.9032  0.3839
18718SOL     OW64931   3.641  11.155   9.590 -0.3033  0.6906  0.6327
18718SOL    HW164932   3.610  11.129   9.676  1.0093  2.1543  1.6043
18718SOL    HW264933   3.564  11.190   9.545 -1.8670 -3.3036 -0.2635
18719SOL     OW64934   0.283  10.300   6.225  0.3435 -0.0334  0.5376
18719SOL    HW164935   0.240  10.298   6.311  0.7587 -2.5505  0.7695
18719SOL    HW264936   0.215  10.334   6.166 -0.0324  1.4973  1.7698
18720SOL     OW64937   1.793   2.984  12.172 -0.5939 -0.3769 -0.4659
18720SOL    HW164938   1.714   2.984  12.118 -0.9105  1.0372 -0.0291
18720SOL    HW264939   1.808   3.076  12.193  0.0808 -0.7961  1.0341
18721SOL     OW64940   6.612   0.831   6.916  0.0642  0.0806  0.2351
18721SOL    HW164941   6.559   0.898   6.958 -0.3051 -0.7975  1.2036
18721SOL    HW264942   6.698   0.840   6.957  0.0826  0.1038  0.1922
18722SOL     OW64943   0.132   3.356   0.375 -0.1147  0.3598  0.4458
18722SOL    HW164944   0.107   3.430   0.431 -1.3103  0.1932  0.1617
18722SOL    HW264945   0.056   3.298   0.376  0.3091 -0.2381 -0.3794
18723SOL     OW64946  12.077   8.244   9.703 -0.1687 -0.4652  0.0004
18723SOL    HW164947  12.068   8.149   9.694  1.0584 -0.6189  0.1843
18723SOL    HW264948  12.150   8.255   9.765  1.2969  0.5799 -1.8120
18724SOL     OW64949   0.696   1.478  10.893 -0.3252  0.5015  0.1176
18724SOL    HW164950   0.687   1.384  10.877  0.1263  0.3202  0.8587
18724SOL    HW264951   0.766   1.505  10.833  0.1167  0.1945  0.4839
18725SOL     OW64952   6.233   6.238  10.407  0.1958 -0.2047  0.0748
18725SOL    HW164953   6.279   6.243  10.323 -0.6605 -0.7268 -0.4379
18725SOL    HW264954   6.273   6.163  10.452  3.0957  2.0810  1.6840
18726SOL     OW64955   0.577   3.701   0.842 -0.1376 -0.1521 -0.0516
18726SOL    HW164956   0.657   3.650   0.834 -0.2006 -0.0727 -1.5569
18726SOL    HW264957   0.574   3.753   0.762  0.8395  3.6346  2.1412
18727SOL     OW64958   7.610   6.054  10.995 -0.3488  0.3507  0.7029
18727SOL    HW164959   7.688   5.999  10.999  0.7344  1.3373 -3.0551
18727SOL    HW264960   7.538   5.992  10.981  0.6105 -0.3630 -1.6337
18728SOL     OW64961   0.148   2.729   5.607  0.0192  0.5724  0.1036
18728SOL    HW164962   0.121   2.780   5.683  0.5464 -0.0487  0.7082
18728SOL    HW264963   0.183   2.795   5.546 -3.7589  1.6319 -1.2465
18729SOL     OW64964  10.556   5.883   6.405 -0.5938 -0.1029  0.3968
18729SOL    HW164965  10.651   5.897   6.398 -0.6241  1.7629  2.5388
18729SOL    HW264966  10.543   5.854   6.495 -1.9853 -1.5071 -0.2221
18730SOL     OW64967   2.758  11.747  12.267  0.1473 -0.1113 -0.3495
18730SOL    HW164968   2.667  11.771  12.283  0.4370  0.4130  0.5616
18730SOL    HW264969   2.799  11.827  12.233  0.2921 -0.3077 -0.6402
18731SOL     OW64970   5.424  10.681   6.655 -0.2788 -0.8415  0.4828
18731SOL    HW164971   5.355  10.736   6.617 -0.5796 -1.0423  0.7307
18731SOL    HW264972   5.505  10.717   6.620 -0.4566 -0.1230  0.7883
18732SOL     OW64973   7.247   9.633   0.289 -0.5451 -0.0612 -0.4535
18732SOL    HW164974   7.224   9.718   0.253 -1.5592 -0.7780 -1.5693
18732SOL    HW264975   7.311   9.597   0.228  0.0516 -0.0236  0.1363
18733SOL     OW64976   9.928   8.797   1.921  0.1275 -0.1433  0.0313
18733SOL    HW164977   9.905   8.762   1.835  1.4177 -3.1292  0.7879
18733SOL    HW264978   9.972   8.725   1.966  2.0422  2.1686  2.1981
18734SOL     OW64979   7.634   3.126  11.866 -1.1096  0.3217  0.3172
18734SOL    HW164980   7.644   3.114  11.772  0.5679 -0.5526  0.5734
18734SOL    HW264981   7.623   3.220  11.878 -2.2332  0.3600 -0.7983
18735SOL     OW64982   6.646   9.789   5.748  0.5840  0.2100 -0.1146
18735SOL    HW164983   6.708   9.779   5.676 -0.1687 -2.3951 -0.5033
18735SOL    HW264984   6.646   9.704   5.791 -0.8210  0.9601  1.4631
18736SOL     OW64985  10.574   8.203   0.729 -0.0537 -0.2301  0.7001
18736SOL    HW164986  10.603   8.274   0.787  0.0385  0.2801  0.0333
18736SOL    HW264987  10.620   8.125   0.762  0.7435  0.2393  0.7110
18737SOL     OW64988   9.261   3.209  11.108  0.1220  0.2307  0.2135
18737SOL    HW164989   9.227   3.129  11.069 -0.1846  1.8946 -3.3645
18737SOL    HW264990   9.347   3.185  11.141  0.7904 -1.2764 -2.3483
18738SOL     OW64991   8.205   8.812   1.905 -0.2369 -0.1308  0.0932
18738SOL    HW164992   8.297   8.839   1.908  0.2793 -1.8464  1.1205
18738SOL    HW264993   8.197   8.747   1.975 -2.0297 -0.6451 -0.5395
18739SOL     OW64994   1.169   4.740   7.874 -0.4483  0.5676 -0.1520
18739SOL    HW164995   1.098   4.791   7.914  0.0460  0.3143  1.0910
18739SOL    HW264996   1.144   4.649   7.889  0.7579  0.4643  1.5150
18740SOL     OW64997   4.022   0.336   5.144 -0.4865  0.8386  0.3724
18740SOL    HW164998   3.981   0.295   5.068 -1.9704  1.6912  0.6701
18740SOL    HW264999   3.982   0.293   5.219  2.1621 -1.1641  0.7623
18741SOL     OW65000   1.017   6.891   6.834 -0.1040 -0.1066 -0.1022
18741SOL    HW165001   0.928   6.898   6.868 -0.4687 -0.4704 -0.9732
18741SOL    HW265002   1.038   6.979   6.803 -0.4244 -0.1846 -0.5427
18742SOL     OW65003  10.683   3.240  11.975  0.2779  0.6172  0.1006
18742SOL    HW165004  10.774   3.263  11.956  0.0797  0.0992 -1.6408
18742SOL    HW265005  10.684   3.144  11.982  0.0550  0.6871  1.2581
18743SOL     OW65006   4.739   0.943   5.239 -1.0142 -0.4225  0.1901
18743SOL    HW165007   4.670   1.003   5.212 -2.2229 -0.9717  1.9074
18743SOL    HW265008   4.820   0.991   5.223 -1.9060  1.3648  0.7462
18744SOL     OW65009   2.583   3.444   6.124  0.4164  0.1324 -0.4464
18744SOL    HW165010   2.573   3.458   6.029 -0.3851 -0.6214 -0.4862
18744SOL    HW265011   2.495   3.420   6.154  0.9779 -1.1760  0.2222
18745SOL     OW65012   1.686   9.774  10.616  0.0633 -0.2379  0.0787
18745SOL    HW165013   1.635   9.839  10.662  0.4100 -0.5527  0.9284
18745SOL    HW265014   1.655   9.690  10.650  0.1388 -0.4897 -0.4563
18746SOL     OW65015   4.679   0.575   2.623 -0.2750  0.1621  0.8533
18746SOL    HW165016   4.655   0.568   2.715  0.6444 -0.6629  1.0448
18746SOL    HW265017   4.775   0.582   2.624 -0.2069 -0.5095 -0.0671
18747SOL     OW65018   1.863  10.709  11.798  0.0328  0.2321 -0.0141
18747SOL    HW165019   1.887  10.630  11.847  0.5607  0.0477 -0.5603
18747SOL    HW265020   1.803  10.678  11.730 -1.4948  0.6327  1.0925
18748SOL     OW65021   5.074   9.377   5.533 -0.2201  0.2218  1.0292
18748SOL    HW165022   5.075   9.473   5.534 -2.0984  0.2984  0.2506
18748SOL    HW265023   4.993   9.353   5.576 -0.9519 -0.9115 -0.8296
18749SOL     OW65024   7.902   6.597  11.244  0.1209 -0.8587  0.1404
18749SOL    HW165025   7.922   6.505  11.226 -0.0913 -1.4958  2.6507
18749SOL    HW265026   7.807   6.601  11.250  0.0465 -0.1694 -1.2054
18750SOL     OW65027   0.308   7.697  11.074  0.0320 -0.5084  0.0149
18750SOL    HW165028   0.219   7.714  11.043  0.9411 -0.5167 -2.9172
18750SOL    HW265029   0.355   7.779  11.061  0.7517 -0.8338  0.4538
18751SOL     OW65030   7.951   7.097  12.480 -0.3614  0.1638  0.2123
18751SOL    HW165031   7.896   7.045  12.540 -0.9692  0.7352  0.1638
18751SOL    HW265032   7.959   7.042  12.402 -1.5450  0.3859 -0.0905
18752SOL     OW65033   9.457  10.849   9.014 -0.6972 -0.3715 -0.0968
18752SOL    HW165034   9.485  10.940   9.030 -1.7730 -0.0265 -0.1210
18752SOL    HW265035   9.506  10.798   9.078 -1.4313  0.4500  1.1756
18753SOL     OW65036   0.600   2.650   6.741  0.3003  0.5635  0.5698
18753SOL    HW165037   0.630   2.726   6.692  1.3307 -0.7826 -1.0447
18753SOL    HW265038   0.621   2.576   6.684 -1.5785 -0.8700  1.6089
18754SOL     OW65039  10.919   4.151   0.718 -0.0798  0.0821 -0.0013
18754SOL    HW165040  11.010   4.180   0.721 -0.4493  1.4885 -0.9542
18754SOL    HW265041  10.871   4.223   0.760 -0.8708  0.0362 -0.8041
18755SOL     OW65042   5.333   2.830   5.609  0.7394  0.1479 -0.3484
18755SOL    HW165043   5.271   2.758   5.597 -0.8193  1.4434 -0.4255
18755SOL    HW265044   5.335   2.875   5.525  0.0669  1.4022  0.2726
18756SOL     OW65045   7.415   1.119  10.834  0.7585 -0.0437 -0.0370
18756SOL    HW165046   7.399   1.034  10.793  1.5927 -0.0274 -0.4338
18756SOL    HW265047   7.386   1.108  10.924  0.5037 -0.6333 -0.1827
18757SOL     OW65048   0.592   7.058   5.299  0.0736  0.2025 -0.4437
18757SOL    HW165049   0.673   7.097   5.266 -0.1223  0.6641 -0.3857
18757SOL    HW265050   0.523   7.099   5.247 -0.1172 -0.2500 -0.5491
18758SOL     OW65051   4.490   2.638   7.333 -0.7570  0.1404  0.1534
18758SOL    HW165052   4.464   2.722   7.369  0.6997  0.8008 -0.2623
18758SOL    HW265053   4.584   2.647   7.316 -0.8449 -1.0734 -1.2068
18759SOL     OW65054   1.695   5.584   7.668  0.0912  0.7665  0.0564
18759SOL    HW165055   1.631   5.644   7.630  1.0273  0.7576 -1.6069
18759SOL    HW265056   1.643   5.508   7.694 -0.8077  1.4570  0.3545
18760SOL     OW65057   3.682  10.826   8.878  0.0505  0.3941 -0.1702
18760SOL    HW165058   3.610  10.847   8.819 -3.0854 -2.3346  2.2648
18760SOL    HW265059   3.727  10.753   8.835 -0.2115  0.5050 -0.6384
18761SOL     OW65060   6.509   5.766   4.419  0.5936  0.3149 -0.0604
18761SOL    HW165061   6.506   5.682   4.466 -2.5391 -0.4578 -1.3762
18761SOL    HW265062   6.428   5.811   4.445  1.9304  2.7693  0.1977
18762SOL     OW65063  10.689   1.729  11.906 -0.2187 -0.4456  0.4827
18762SOL    HW165064  10.754   1.769  11.964 -0.4008  0.2083  0.2475
18762SOL    HW265065  10.653   1.656  11.956  1.9104 -1.9187  0.0002
18763SOL     OW65066   4.410   1.416   4.732 -0.3439 -0.1900  0.7713
18763SOL    HW165067   4.383   1.484   4.670  0.9167 -0.9562 -0.6897
18763SOL    HW265068   4.360   1.339   4.706  1.0779 -0.8478 -0.1392
18764SOL     OW65069   8.281   3.938   9.137  0.2135  0.0977  0.1206
18764SOL    HW165070   8.371   3.909   9.125 -0.2027 -1.0537 -0.3420
18764SOL    HW265071   8.278   4.023   9.093  1.1581  0.3244  0.4688
18765SOL     OW65072  10.830   1.926   3.127 -0.0666 -0.2503 -0.2597
18765SOL    HW165073  10.906   1.869   3.131  0.1769  0.1638  1.8769
18765SOL    HW265074  10.858   2.007   3.169 -1.7069 -0.1365  0.7063
18766SOL     OW65075   7.714   2.274   7.447 -0.0435  0.1575 -0.0119
18766SOL    HW165076   7.751   2.362   7.449  0.7282 -0.1424  2.6589
18766SOL    HW265077   7.623   2.287   7.422  0.2391  1.5999 -0.4021
18767SOL     OW65078   6.900   0.864   9.595 -0.3187 -0.8536 -0.7528
18767SOL    HW165079   6.883   0.947   9.553  1.3863 -0.3922 -0.6002
18767SOL    HW265080   6.882   0.880   9.688  0.0093 -0.6426 -0.7229
18768SOL     OW65081   5.793  12.001   3.905 -0.6603  0.2612  0.1893
18768SOL    HW165082   5.786  11.975   3.997 -0.2155  1.9952  0.7596
18768SOL    HW265083   5.816  12.094   3.908 -3.3869  1.1308 -1.6737
18769SOL     OW65084   8.866   0.638   2.873 -0.3346  0.1574 -0.8002
18769SOL    HW165085   8.940   0.697   2.883 -0.3259  0.3134 -1.7330
18769SOL    HW265086   8.877   0.599   2.786 -0.9826 -0.3235 -0.6762
18770SOL     OW65087  12.003   1.804   9.636 -0.8512 -0.6233  0.1359
18770SOL    HW165088  12.073   1.747   9.668 -1.8369 -1.6690  0.4798
18770SOL    HW265089  11.974   1.763   9.555  0.1657  0.8375 -1.0351
18771SOL     OW65090  11.476   8.442   7.704 -0.1075 -0.1296 -0.6004
18771SOL    HW165091  11.532   8.466   7.778 -0.7466  1.4347 -0.5843
18771SOL    HW265092  11.466   8.347   7.711 -0.4901  0.0228  1.5654
18772SOL     OW65093   1.946   5.660   5.724 -0.8137  0.7458  0.1763
18772SOL    HW165094   1.978   5.724   5.660  1.3919  0.2549  0.7208
18772SOL    HW265095   1.869   5.701   5.762 -1.1689  1.7930 -1.5541
18773SOL     OW65096   9.974   4.979   7.220  0.1830 -0.0017  0.4792
18773SOL    HW165097   9.963   5.031   7.300  1.1535 -1.0939  1.3514
18773SOL    HW265098  10.015   4.898   7.249  1.0982 -0.1875 -1.2208
18774SOL     OW65099   3.409   1.110   4.047  0.2000 -0.0321 -0.0074
18774SOL    HW165100   3.492   1.062   4.043  0.3013  0.2170 -1.7788
18774SOL    HW265101   3.342   1.042   4.051  0.4618 -0.2348  1.7174
18775SOL     OW65102   5.289   3.010   7.738  0.3320  0.1594 -0.3087
18775SOL    HW165103   5.243   3.090   7.764 -0.4737  0.0717 -1.4354
18775SOL    HW265104   5.378   3.040   7.718 -0.1530  0.9190 -1.4226
18776SOL     OW65105   9.883   2.661  11.239  0.6657  0.6171 -0.3207
18776SOL    HW165106   9.878   2.698  11.151 -2.2522 -0.0007 -0.5317
18776SOL    HW265107   9.821   2.713  11.290 -0.0780 -1.0334  0.5246
18777SOL     OW65108   5.286   9.479   3.437  0.0311  0.2599  0.3319
18777SOL    HW165109   5.225   9.505   3.367  0.0392 -1.2636 -0.2820
18777SOL    HW265110   5.260   9.532   3.512 -1.7505  0.0033 -0.0512
18778SOL     OW65111   3.566   9.407   5.064  0.1481 -0.2953  0.1464
18778SOL    HW165112   3.506   9.334   5.052  0.7204 -0.7514  0.0055
18778SOL    HW265113   3.553   9.434   5.155 -1.2866  0.5408 -0.2809
18779SOL     OW65114   4.043   9.652  12.121  0.3778 -0.2702  0.1233
18779SOL    HW165115   4.125   9.604  12.134 -0.3310 -1.8010 -0.8252
18779SOL    HW265116   3.992   9.633  12.200 -0.4504 -2.3281 -0.8241
18780SOL     OW65117   3.451   0.778   7.502 -0.3933  0.2016  0.6681
18780SOL    HW165118   3.412   0.777   7.415  0.5881 -2.9523  0.1188
18780SOL    HW265119   3.432   0.692   7.538  0.9721  0.6918  2.7590
18781SOL     OW65120  10.012   1.228   4.332  0.0448  0.5655  0.1380
18781SOL    HW165121   9.918   1.248   4.338 -0.1034 -0.1869  0.3844
18781SOL    HW265122  10.027   1.211   4.239 -0.6158 -1.8429  0.4011
18782SOL     OW65123   3.941  10.942   0.864  0.3020  0.2987  0.0772
18782SOL    HW165124   4.020  10.954   0.811  0.5167  0.2610  0.3808
18782SOL    HW265125   3.898  11.028   0.862 -1.2386 -0.4417 -2.5499
18783SOL     OW65126   5.483  11.857  11.578 -0.2616  0.0424 -0.1892
18783SOL    HW165127   5.486  11.952  11.565 -0.6100  0.2967  1.4335
18783SOL    HW265128   5.411  11.843  11.640  1.7931 -0.9526  2.1259
18784SOL     OW65129   0.293   8.924  12.398 -0.0945  0.1137  0.3261
18784SOL    HW165130   0.208   8.901  12.359 -0.8121 -0.4110  2.0925
18784SOL    HW265131   0.320   9.004  12.353 -0.4700 -0.8799 -1.7654
18785SOL     OW65132   4.923   1.580  11.866  0.1537 -0.2228  0.2173
18785SOL    HW165133   4.921   1.597  11.772 -0.2680 -0.0044  0.2621
18785SOL    HW265134   4.947   1.488  11.874  0.0236 -0.2837 -0.1086
18786SOL     OW65135   6.087   1.208   2.218 -0.3803 -1.0401 -0.2431
18786SOL    HW165136   6.047   1.190   2.133 -1.0035  1.6785 -0.6159
18786SOL    HW265137   6.015   1.245   2.271  0.5403 -0.4692  0.6490
18787SOL     OW65138   1.160   9.204  11.254  0.6172 -0.5588  0.5311
18787SOL    HW165139   1.207   9.125  11.225  1.7233 -0.3660  1.7315
18787SOL    HW265140   1.100   9.223  11.182  1.7257 -1.3534 -0.6500
18788SOL     OW65141   3.929   3.749   6.346  0.1882  0.1151 -0.1091
18788SOL    HW165142   3.960   3.783   6.262  2.6417 -1.1302  0.2134
18788SOL    HW265143   4.005   3.754   6.403 -0.1810 -2.9600  0.8310
18789SOL     OW65144  11.474  11.341   6.323  0.1747  0.6251 -0.1211
18789SOL    HW165145  11.496  11.259   6.278 -1.6767  0.4697 -0.8457
18789SOL    HW265146  11.535  11.405   6.287  1.1050 -0.2425 -0.1596
18790SOL     OW65147   3.114   5.420   4.879 -0.3809 -0.2782  0.6013
18790SOL    HW165148   3.042   5.479   4.855  0.4898  1.0130  1.0226
18790SOL    HW265149   3.101   5.342   4.826 -1.2851  0.5053 -0.3626
18791SOL     OW65150  12.440   1.953   7.282 -0.0725 -0.1747 -0.3378
18791SOL    HW165151  12.527   1.961   7.243  0.7529 -1.1588  1.2134
18791SOL    HW265152  12.395   2.033   7.255  1.6175  0.7887 -0.4371
18792SOL     OW65153  11.883   7.607  12.473  0.1570 -0.1455  0.0235
18792SOL    HW165154  11.914   7.635  12.387  0.1749 -0.4828 -0.0776
18792SOL    HW265155  11.790   7.631  12.473  0.1521 -0.1657 -0.0950
18793SOL     OW65156   2.670   0.287   6.249  0.0762 -0.4219  0.4689
18793SOL    HW165157   2.588   0.337   6.247  0.2986 -0.0639 -0.8213
18793SOL    HW265158   2.735   0.347   6.285  0.0403 -0.2610  0.2650
18794SOL     OW65159   2.008  11.524  10.536 -0.3906 -0.4143  0.2112
18794SOL    HW165160   2.043  11.546  10.450 -0.5828  1.3868  0.5438
18794SOL    HW265161   1.916  11.550  10.532 -0.0846  0.9836  1.3388
18795SOL     OW65162   8.174   4.518   2.686 -0.1443  0.5315 -0.2645
18795SOL    HW165163   8.194   4.443   2.630  2.0507  1.0841 -0.3051
18795SOL    HW265164   8.123   4.577   2.630  0.1263  0.0981 -0.9842
18796SOL     OW65165   5.413   0.586  11.346  0.4000  0.0017 -0.0057
18796SOL    HW165166   5.322   0.576  11.317  0.2254 -0.9202  0.8536
18796SOL    HW265167   5.449   0.653  11.286 -0.6284 -0.1324 -0.8051
18797SOL     OW65168   4.070  11.877   3.669  0.6165 -0.1607 -0.2525
18797SOL    HW165169   3.999  11.920   3.718  0.0743 -0.5622 -0.6762
18797SOL    HW265170   4.137  11.859   3.735 -0.0702 -0.6274  0.3339
18798SOL     OW65171   5.541   0.982  11.800 -0.3498 -0.5176 -0.0025
18798SOL    HW165172   5.608   0.977  11.731  0.8799  1.2064  0.9944
18798SOL    HW265173   5.517   1.075  11.803 -0.0452 -0.4657  2.1566
18799SOL     OW65174   4.733   0.027   0.446 -0.3869  0.1590 -0.1440
18799SOL    HW165175   4.726   0.082   0.524 -0.0017 -0.1399  0.1098
18799SOL    HW265176   4.652  -0.023   0.445 -0.2734 -0.0385  0.2274
18800SOL     OW65177   5.605   3.097   7.497  0.6239 -0.3764 -0.5266
18800SOL    HW165178   5.633   3.119   7.408  0.9618  1.3120 -0.0466
18800SOL    HW265179   5.525   3.148   7.510  0.5724 -0.6159  0.1349
18801SOL     OW65180   0.150   9.646   2.843 -0.6504 -0.1429 -0.4246
18801SOL    HW165181   0.124   9.580   2.778  0.9622  0.6245 -1.9229
18801SOL    HW265182   0.148   9.729   2.796 -1.1498  0.7029  1.0123
18802SOL     OW65183   5.009   6.718   8.541  0.1431 -0.2054 -0.3038
18802SOL    HW165184   4.941   6.700   8.606  0.1609  0.7474  0.0034
18802SOL    HW265185   5.061   6.789   8.580  1.0691 -0.6463 -0.7144
18803SOL     OW65186   6.350   1.648   9.690 -0.2068 -0.4155  0.4058
18803SOL    HW165187   6.424   1.664   9.749 -1.8762 -0.6382  2.6570
18803SOL    HW265188   6.380   1.576   9.634  2.0079  0.8469 -0.1715
18804SOL     OW65189   2.533   5.207   8.511 -0.2729  0.6002 -0.2372
18804SOL    HW165190   2.509   5.298   8.494 -1.3770  0.1745 -1.1790
18804SOL    HW265191   2.528   5.165   8.424 -1.9188 -0.7953  0.4694
18805SOL     OW65192  11.084   9.035   1.773  0.0305 -0.0030  0.3533
18805SOL    HW165193  11.002   9.037   1.822 -0.6491 -0.4118 -0.7277
18805SOL    HW265194  11.082   9.114   1.720  0.2383 -0.1135  0.1791
18806SOL     OW65195   9.953   4.317   8.986 -0.3227  0.1437 -0.2389
18806SOL    HW165196  10.041   4.339   9.016  0.4146 -1.1777 -1.2975
18806SOL    HW265197   9.968   4.258   8.912 -2.0416  2.8059 -2.8988
18807SOL     OW65198   0.900  10.891   0.772 -0.5952 -0.1468  0.9344
18807SOL    HW165199   0.985  10.853   0.749  0.4861  1.2547  2.3733
18807SOL    HW265200   0.895  10.971   0.721 -1.8267 -1.0070 -0.3587
18808SOL     OW65201   4.672   8.924   7.639 -0.4968 -0.4374 -0.1035
18808SOL    HW165202   4.680   8.974   7.558  0.6650  0.4451  0.5336
18808SOL    HW265203   4.755   8.878   7.648 -0.0223  0.6228  1.3102
18809SOL     OW65204   5.775   2.394   3.982  0.0176  0.0968 -0.4651
18809SOL    HW165205   5.694   2.365   3.940 -0.0030  0.8436 -0.9707
18809SOL    HW265206   5.760   2.487   4.001  0.1366 -0.1637  0.9602
18810SOL     OW65207   9.997   5.053   2.417 -0.3284  0.2350  0.1414
18810SOL    HW165208  10.034   4.971   2.383  0.1103  0.3604  0.3128
18810SOL    HW265209  10.072   5.101   2.452 -0.2372  1.6861 -1.8858
18811SOL     OW65210   6.248   4.700  12.146 -0.0748  0.6550 -0.6493
18811SOL    HW165211   6.215   4.613  12.171  0.9109  0.3115 -0.4963
18811SOL    HW265212   6.338   4.702  12.179 -0.1244  1.7837 -0.5598
18812SOL     OW65213   3.820   2.105   7.897  0.1328  0.5792  0.0016
18812SOL    HW165214   3.903   2.078   7.858 -0.2536  0.1340 -0.5283
18812SOL    HW265215   3.763   2.122   7.822 -1.1542 -1.9125  0.3182
18813SOL     OW65216  12.096   1.530   1.350  0.1158  0.3499  0.2887
18813SOL    HW165217  12.089   1.617   1.309  0.6718  0.5512  0.6069
18813SOL    HW265218  12.189   1.509   1.344  0.0076 -0.1483  0.3768
18814SOL     OW65219  11.209   4.429   7.954 -0.0742 -0.2041  0.1492
18814SOL    HW165220  11.199   4.353   7.896 -2.2062 -0.2677  0.5312
18814SOL    HW265221  11.247   4.393   8.034 -0.3757 -0.7491  0.0514
18815SOL     OW65222   1.123   9.230   7.288  0.1790  0.3042  0.3531
18815SOL    HW165223   1.148   9.223   7.380  1.6987 -2.1369 -0.1772
18815SOL    HW265224   1.205   9.221   7.240 -0.5061  2.1007 -1.2778
18816SOL     OW65225  10.655   3.781   4.510  0.3547 -0.2658  0.2731
18816SOL    HW165226  10.744   3.805   4.485 -0.2157  0.6081 -1.0005
18816SOL    HW265227  10.599   3.826   4.448 -0.9810 -1.1363  0.7892
18817SOL     OW65228   4.892   5.824   5.782  0.0696 -0.0343 -0.3236
18817SOL    HW165229   4.836   5.752   5.811 -3.3816  2.3111 -0.5445
18817SOL    HW265230   4.855   5.851   5.698  0.9052  2.3003 -0.0117
18818SOL     OW65231   2.839   6.829   0.486 -0.4676  0.8480  0.3493
18818SOL    HW165232   2.749   6.849   0.461 -0.3204 -0.4651 -1.3931
18818SOL    HW265233   2.888   6.910   0.466 -1.0281  1.1112  0.0300
18819SOL     OW65234   1.866   5.666  11.025 -0.5409  0.3444  0.0302
18819SOL    HW165235   1.955   5.652  10.994 -0.7277 -2.0570  0.3938
18819SOL    HW265236   1.875   5.681  11.119 -0.5258 -0.0086  0.0856
18820SOL     OW65237   7.091   6.028   1.818  0.1795 -0.4505 -0.2014
18820SOL    HW165238   7.034   6.010   1.744 -0.1781  1.0401 -0.3247
18820SOL    HW265239   7.032   6.030   1.894  0.2974 -0.3886 -0.1101
18821SOL     OW65240   0.064  10.651   5.565 -0.1348  0.0412  0.1599
18821SOL    HW165241   0.028  10.705   5.494  0.6388  1.9098  1.1275
18821SOL    HW265242   0.133  10.599   5.523 -0.8045 -0.1408 -0.7620
18822SOL     OW65243   9.145   8.875   0.195  0.3313 -0.3677 -0.5141
18822SOL    HW165244   9.181   8.800   0.147 -3.0937 -1.8933 -0.9967
18822SOL    HW265245   9.139   8.944   0.130  2.4421  0.0511 -0.3487
18823SOL     OW65246   0.773  10.451  10.456 -0.2636  0.0982  0.4379
18823SOL    HW165247   0.732  10.369  10.484 -1.6125  1.2118  1.9116
18823SOL    HW265248   0.774  10.446  10.360 -0.0386 -1.7590  0.5137
18824SOL     OW65249   0.285   1.483   5.216 -0.2865  0.6027 -0.0975
18824SOL    HW165250   0.318   1.573   5.219  0.5597  0.3009  0.2166
18824SOL    HW265251   0.241   1.472   5.300  0.4712  0.4304  0.2944
18825SOL     OW65252  12.149   4.531   0.028  0.1331  0.2939  0.3583
18825SOL    HW165253  12.153   4.627   0.032  1.2768  0.3385 -1.0759
18825SOL    HW265254  12.108   4.512  -0.056  2.0280 -0.4345 -0.4647
18826SOL     OW65255   6.270   4.012  11.432 -0.4777 -0.3147  0.0381
18826SOL    HW165256   6.355   3.973  11.450 -0.2001  0.6108  0.8381
18826SOL    HW265257   6.288   4.106  11.425 -1.1767 -0.2615 -1.4379
18827SOL     OW65258  11.377   6.784   4.807 -0.0480 -0.6913 -0.1441
18827SOL    HW165259  11.285   6.797   4.784  0.2771  2.4805 -0.1330
18827SOL    HW265260  11.425   6.821   4.733  1.2939 -2.5872 -0.2980
18828SOL     OW65261  11.835   5.204  10.861  0.1147 -0.4646 -0.1400
18828SOL    HW165262  11.769   5.272  10.865 -0.9644 -1.4391 -0.7732
18828SOL    HW265263  11.905   5.235  10.919  0.1685  1.6840 -1.2570
18829SOL     OW65264   6.719   2.093  12.353 -0.8582 -0.1281 -0.3009
18829SOL    HW165265   6.753   2.045  12.277  1.3739 -0.3397  0.7303
18829SOL    HW265266   6.700   2.180  12.320 -2.0935 -0.8317 -1.5556
18830SOL     OW65267  10.413  11.584   1.104 -0.1579  0.1606 -0.2385
18830SOL    HW165268  10.449  11.670   1.125 -1.7451  0.5898  0.9048
18830SOL    HW265269  10.488  11.532   1.077  1.1127  1.3740  0.8356
18831SOL     OW65270   2.511   8.195  11.312  0.0927 -0.5011 -0.1527
18831SOL    HW165271   2.482   8.243  11.390 -0.7428 -1.8131  0.3598
18831SOL    HW265272   2.441   8.207  11.249  0.6584  0.3495 -0.6505
18832SOL     OW65273  11.204   7.201  12.012 -0.6259  0.5669  0.4046
18832SOL    HW165274  11.195   7.296  12.005  0.4269  0.6703  0.3064
18832SOL    HW265275  11.249   7.175  11.931 -3.0081 -0.3451 -0.7261
18833SOL     OW65276   9.717   3.742   9.196 -0.2515 -0.1706 -0.5386
18833SOL    HW165277   9.652   3.761   9.128 -1.8957  3.6733  1.8184
18833SOL    HW265278   9.775   3.818   9.196 -0.2795 -0.0608  2.2705
18834SOL     OW65279  11.520  10.836   6.797 -0.0710 -0.2811 -0.4352
18834SOL    HW165280  11.586  10.767   6.802 -1.0056 -1.1595  0.0857
18834SOL    HW265281  11.521  10.877   6.884 -1.2197 -1.2837  0.0852
18835SOL     OW65282   0.782   5.178  11.218  0.3041 -0.2635  0.3806
18835SOL    HW165283   0.817   5.136  11.297  0.6797 -0.8242 -0.0732
18835SOL    HW265284   0.860   5.212  11.173  0.2160 -1.0372 -0.3658
18836SOL     OW65285  12.287  11.824   6.042 -0.0233 -0.2908 -0.1997
18836SOL    HW165286  12.354  11.867   5.990 -1.2486  0.4243 -1.2545
18836SOL    HW265287  12.312  11.731   6.042  1.6302  0.1304  0.5349
18837SOL     OW65288   3.254   9.962   6.659 -0.2881  0.3397  0.4081
18837SOL    HW165289   3.342   9.929   6.640 -0.2368  0.2752  0.7351
18837SOL    HW265290   3.265  10.056   6.666 -0.5555  0.5117 -1.1723
18838SOL     OW65291  11.729   5.514   0.150  0.0882  0.3997  0.2450
18838SOL    HW165292  11.792   5.572   0.194 -0.3268  0.4048  0.8495
18838SOL    HW265293  11.644   5.543   0.183 -0.2198  0.2759 -0.4328
18839SOL     OW65294   2.114   2.138   7.390 -0.4142  0.6910  0.1788
18839SOL    HW165295   2.040   2.115   7.445 -1.7257 -0.2693 -1.8355
18839SOL    HW265296   2.091   2.222   7.351 -0.5396  0.3246 -0.5616
18840SOL     OW65297   2.862   6.068  11.615  0.3172 -0.0228  0.0691
18840SOL    HW165298   2.774   6.106  11.612 -0.9894 -2.7773  0.6315
18840SOL    HW265299   2.883   6.065  11.709  0.5320 -0.4164  0.0088
18841SOL     OW65300   8.279   0.082   4.074 -0.5138  0.4657 -0.2363
18841SOL    HW165301   8.324   0.146   4.129  0.8614 -0.6526 -0.0051
18841SOL    HW265302   8.313   0.097   3.986  0.2056 -0.2741 -0.0915
18842SOL     OW65303   2.276   1.679   5.044  0.1062  0.1628 -0.4222
18842SOL    HW165304   2.312   1.745   4.985  1.2389  0.7759  0.9071
18842SOL    HW265305   2.198   1.647   4.998  0.1168  1.6555 -1.5859
18843SOL     OW65306   8.218   1.615   4.498  0.5269 -0.1099 -0.3943
18843SOL    HW165307   8.167   1.604   4.417  0.2780 -1.0675 -0.1192
18843SOL    HW265308   8.152   1.638   4.564  0.5821 -0.3691 -0.2475
18844SOL     OW65309   9.720   0.732   0.319  0.0778  0.2921 -0.2142
18844SOL    HW165310   9.725   0.826   0.334  2.1102  0.1681  0.0895
18844SOL    HW265311   9.778   0.693   0.384 -1.9505 -1.3398  0.7388
18845SOL     OW65312   2.303   0.641  11.705  0.2098 -0.2820  0.3018
18845SOL    HW165313   2.288   0.617  11.797 -0.9352 -0.1878  0.1550
18845SOL    HW265314   2.372   0.707  11.708 -0.7801  0.7428  1.2289
18846SOL     OW65315   5.090   6.700  11.289 -0.2077  0.1950  0.0944
18846SOL    HW165316   5.183   6.689  11.309 -0.3005 -1.0475 -0.0889
18846SOL    HW265317   5.058   6.762  11.355  1.0062  1.6420 -0.5991
18847SOL     OW65318   1.257  10.568  12.362  0.3597  0.1024  0.0677
18847SOL    HW165319   1.194  10.639  12.367 -0.4452 -0.5979  0.0348
18847SOL    HW265320   1.205  10.490  12.348  1.3499 -0.2808 -1.7285
18848SOL     OW65321   2.376   3.100   2.791  0.1952 -0.3389 -0.3351
18848SOL    HW165322   2.388   3.046   2.869 -2.0036 -2.4902 -1.3437
18848SOL    HW265323   2.342   3.183   2.824  3.1322  0.4121  1.2194
18849SOL     OW65324   5.884  10.171   7.703  0.4113  0.1060  0.0894
18849SOL    HW165325   5.863  10.259   7.735 -0.4615 -0.3350  0.7762
18849SOL    HW265326   5.803  10.139   7.664  0.2813 -0.9418  1.1556
18850SOL     OW65327   3.358   1.300   9.411  0.2185  0.1800 -0.0074
18850SOL    HW165328   3.361   1.206   9.395 -3.1341  0.0821 -0.6917
18850SOL    HW265329   3.445   1.332   9.384  1.1503 -2.5516 -0.5130
18851SOL     OW65330  10.756   6.054   2.315 -0.4365 -0.3029 -0.5599
18851SOL    HW165331  10.843   6.020   2.334 -0.0511  0.3880 -1.0401
18851SOL    HW265332  10.701   5.977   2.307 -0.1760 -0.7240  1.1412
18852SOL     OW65333  11.724   4.108   7.347 -0.4495  0.0834  0.2609
18852SOL    HW165334  11.749   4.199   7.364 -1.5415  0.5738 -0.6043
18852SOL    HW265335  11.788   4.056   7.394 -0.4433  1.3163  1.6920
18853SOL     OW65336   9.290   2.678   3.977 -0.0280  0.3121  0.3521
18853SOL    HW165337   9.277   2.655   3.884  0.2043  0.3138  0.3188
18853SOL    HW265338   9.263   2.600   4.024 -0.3509  0.3870  0.2928
18854SOL     OW65339   8.169   5.647   4.455 -0.6086 -0.4061 -0.1280
18854SOL    HW165340   8.219   5.727   4.470 -0.1840  0.3464 -4.2910
18854SOL    HW265341   8.233   5.576   4.462 -0.5336 -0.2135  1.4270
18855SOL     OW65342  11.382   9.473   3.398  0.2549  0.7607 -0.0608
18855SOL    HW165343  11.413   9.541   3.458  3.5757  0.4662 -1.2351
18855SOL    HW265344  11.443   9.401   3.410 -1.6819 -1.0595 -0.6710
18856SOL     OW65345   5.997   9.777   4.271  0.1190  0.3240 -0.1496
18856SOL    HW165346   6.074   9.750   4.220  0.2663  0.7323 -0.1489
18856SOL    HW265347   6.033   9.833   4.340 -0.2274  0.8815 -0.4160
18857SOL     OW65348   6.649   5.903   9.120 -0.0850 -0.2075 -0.0549
18857SOL    HW165349   6.561   5.933   9.146  0.2800  0.6491  0.2100
18857SOL    HW265350   6.646   5.901   9.024 -0.3393 -0.0287 -0.0524
18858SOL     OW65351  11.831   4.496   5.743 -0.4019  0.5172 -0.8798
18858SOL    HW165352  11.822   4.523   5.835  0.1206  1.4157 -1.0789
18858SOL    HW265353  11.743   4.467   5.718 -0.3457 -0.6328  0.1658
18859SOL     OW65354  11.254   3.937  11.904 -0.6088 -0.3630  0.3841
18859SOL    HW165355  11.249   4.005  11.837  0.6201 -0.8455 -0.2352
18859SOL    HW265356  11.164   3.906  11.914 -1.0530  0.7991  0.1030
18860SOL     OW65357   3.997   2.958   1.095 -0.0028  0.3783  0.4089
18860SOL    HW165358   3.913   3.002   1.107  0.3943  1.0897  0.6307
18860SOL    HW265359   4.060   3.029   1.082  0.7664 -0.0654  1.4982
18861SOL     OW65360   0.333  11.760   7.515  0.6318  0.5044 -0.3470
18861SOL    HW165361   0.319  11.771   7.421 -1.0868 -0.7493 -0.2878
18861SOL    HW265362   0.289  11.835   7.555  0.8273  0.7018 -0.4987
18862SOL     OW65363  10.281   8.557  11.855  0.2824 -0.0230 -0.5403
18862SOL    HW165364  10.287   8.472  11.812  0.0242 -0.8813  1.0262
18862SOL    HW265365  10.368   8.571  11.893  1.0495  1.5230 -2.6563
18863SOL     OW65366   9.800  10.662   0.434  0.0354 -0.0866 -0.4976
18863SOL    HW165367   9.804  10.672   0.529 -1.3823  0.7812 -0.5055
18863SOL    HW265368   9.831  10.573   0.418  1.2350  0.0802  0.6731
18864SOL     OW65369   2.884  11.874   4.960 -0.1694  0.4877 -0.1985
18864SOL    HW165370   2.837  11.791   4.945 -1.0416  0.7098  1.0953
18864SOL    HW265371   2.931  11.860   5.043  0.1532  1.0881 -0.2780
18865SOL     OW65372  10.494   3.692   3.889 -0.1528 -0.0576 -0.2543
18865SOL    HW165373  10.555   3.637   3.938 -0.4482  0.9113  1.2822
18865SOL    HW265374  10.538   3.777   3.881  0.6161 -0.6318 -3.2598
18866SOL     OW65375   9.303  12.149  12.261 -0.3195 -0.0112  0.1201
18866SOL    HW165376   9.333  12.059  12.250  1.2924  0.4784  0.2433
18866SOL    HW265377   9.292  12.182  12.172  0.8643  0.2140  0.0458
18867SOL     OW65378  10.585   1.593   5.240 -0.0451  0.4019  0.7745
18867SOL    HW165379  10.663   1.604   5.294 -0.5495 -0.9477  1.8249
18867SOL    HW265380  10.589   1.502   5.210 -0.6184  0.6616 -0.1478
18868SOL     OW65381   7.371   1.619   1.415  0.1918 -0.3512  0.1824
18868SOL    HW165382   7.450   1.590   1.369  0.4125  0.2432  0.1778
18868SOL    HW265383   7.301   1.564   1.380  0.4807 -0.3865 -0.3482
18869SOL     OW65384   7.033  11.907   1.762 -0.2836  0.2949  0.0835
18869SOL    HW165385   6.997  11.985   1.721 -1.0723 -0.1618 -0.1088
18869SOL    HW265386   7.005  11.835   1.706 -0.9989 -0.2987  1.1697
18870SOL     OW65387   7.208  12.026  12.058 -0.3222 -0.1356 -0.4535
18870SOL    HW165388   7.303  12.033  12.064 -0.4220 -0.0815  1.3529
18870SOL    HW265389   7.193  11.995  11.968  1.3576  0.2519 -0.9091
18871SOL     OW65390   9.763  12.513  10.563  0.3911  0.6000  0.0688
18871SOL    HW165391   9.759  12.452  10.489 -1.1786  0.3794  0.3071
18871SOL    HW265392   9.845  12.560  10.550  1.0797 -0.7563 -0.7545
18872SOL     OW65393   2.034   6.359   5.015 -0.3642  0.1805 -0.9919
18872SOL    HW165394   2.029   6.378   5.109 -1.3484  1.1647 -1.2183
18872SOL    HW265395   2.127   6.348   4.998 -0.1415  0.3527  0.0401
18873SOL     OW65396   4.072  12.062   8.892 -0.3064  0.3629 -0.1079
18873SOL    HW165397   4.022  12.131   8.849 -2.6368 -1.0446  0.1426
18873SOL    HW265398   4.017  12.035   8.966  1.9123  0.2387  1.6122
18874SOL     OW65399   3.966   5.055   0.459 -0.2124  0.5374  0.0132
18874SOL    HW165400   4.037   5.070   0.397 -0.0920 -0.6076 -0.1516
18874SOL    HW265401   3.985   5.112   0.533  0.6034  0.6070 -0.2439
18875SOL     OW65402   5.780   6.339  12.124  0.1110 -0.5730 -0.2838
18875SOL    HW165403   5.785   6.384  12.208 -2.0184 -1.6083  0.4750
18875SOL    HW265404   5.715   6.389  12.074 -0.3218 -1.2794 -0.4352
18876SOL     OW65405   0.351   3.190   8.447 -0.0625  0.1440 -0.2833
18876SOL    HW165406   0.307   3.248   8.509  0.3725  1.6340 -1.3212
18876SOL    HW265407   0.424   3.153   8.496 -1.3650 -0.9622  0.9177
18877SOL     OW65408   0.459   1.724   5.127  0.4672 -0.2696  0.1269
18877SOL    HW165409   0.542   1.706   5.171  1.1542 -0.5266 -1.2408
18877SOL    HW265410   0.453   1.820   5.126  1.2499 -0.2180 -0.6560
18878SOL     OW65411   1.460   8.074   1.754 -0.5038 -0.6368 -0.3649
18878SOL    HW165412   1.379   8.093   1.802  1.0469  0.2161  2.0742
18878SOL    HW265413   1.499   8.001   1.801  1.8812  1.2946  0.8690
18879SOL     OW65414   3.178  11.233   3.324  0.2137  0.3239  0.9032
18879SOL    HW165415   3.199  11.201   3.237  0.8859 -1.9084  1.8209
18879SOL    HW265416   3.233  11.182   3.383 -0.3987  1.5960  2.6716
18880SOL     OW65417   9.044   1.233   3.668 -0.5145 -0.5364  0.6106
18880SOL    HW165418   9.086   1.171   3.728 -0.4557 -1.3714 -0.2737
18880SOL    HW265419   9.082   1.213   3.583  1.9134  2.8151  0.7096
18881SOL     OW65420  10.163   0.244   0.801  0.3405 -0.9086  0.0096
18881SOL    HW165421  10.159   0.184   0.876  1.0018 -1.2185 -0.1958
18881SOL    HW265422  10.129   0.327   0.834 -1.1204 -1.5376  0.1556
18882SOL     OW65423   4.604   9.207   1.064 -0.1772  0.3355 -0.0371
18882SOL    HW165424   4.668   9.252   1.120 -0.3509  0.0092  0.4277
18882SOL    HW265425   4.586   9.269   0.994 -0.8540  1.2399  0.9080
18883SOL     OW65426  12.349   8.636   2.015  0.3210 -0.0088  0.1694
18883SOL    HW165427  12.263   8.594   2.025  0.9680 -1.7139 -0.9120
18883SOL    HW265428  12.328   8.725   1.986 -1.0961 -0.3055  0.1818
18884SOL     OW65429   5.056   1.623   6.720 -0.8970  0.5178  0.0534
18884SOL    HW165430   5.068   1.713   6.689 -0.9314  0.6847  0.5116
18884SOL    HW265431   5.073   1.569   6.643  0.7956  0.8234  0.1716
18885SOL     OW65432   7.455   2.221   2.532  0.2690 -0.6430  1.2934
18885SOL    HW165433   7.392   2.282   2.494  1.2940  0.1830  0.8668
18885SOL    HW265434   7.402   2.151   2.568 -0.8087 -2.0035 -2.4433
18886SOL     OW65435   7.248   0.518   9.751 -0.4064 -0.0983 -0.1010
18886SOL    HW165436   7.257   0.433   9.794 -0.5473 -0.2271 -0.3249
18886SOL    HW265437   7.155   0.523   9.727 -0.4402  0.2046  0.0906
18887SOL     OW65438   7.364   5.890   3.287 -0.4379  0.3273  0.4889
18887SOL    HW165439   7.343   5.887   3.380  0.0868  0.0945  0.6025
18887SOL    HW265440   7.285   5.857   3.243 -1.7442  2.9097  0.6767
18888SOL     OW65441   6.827   3.020   7.413  0.2302  0.2340 -0.1191
18888SOL    HW165442   6.905   3.067   7.386  0.2147  0.4570  0.2272
18888SOL    HW265443   6.842   2.930   7.384 -0.2718  0.6851 -1.9005
18889SOL     OW65444   0.172   0.254   8.633 -0.0930 -0.0622 -0.7392
18889SOL    HW165445   0.246   0.220   8.684  0.3477  1.1567 -0.5363
18889SOL    HW265446   0.179   0.210   8.548  2.4861  1.9126 -1.6977
18890SOL     OW65447   1.193   7.163   3.715 -0.9534 -0.5361 -0.3297
18890SOL    HW165448   1.240   7.135   3.637 -1.4085 -1.5745 -0.2411
18890SOL    HW265449   1.191   7.086   3.772  0.1932  0.4398  1.1352
18891SOL     OW65450   1.868   4.262  11.672  0.3443  0.0428  0.0290
18891SOL    HW165451   1.930   4.322  11.715 -0.3457  0.7154  0.1014
18891SOL    HW265452   1.786   4.275  11.719  0.2153 -1.0638  0.1268
18892SOL     OW65453   6.119  11.220   6.402  0.4749 -0.6058 -0.4226
18892SOL    HW165454   6.102  11.255   6.314 -1.9402 -2.4959 -0.7843
18892SOL    HW265455   6.168  11.140   6.386  1.3386 -0.1952  0.0902
18893SOL     OW65456   1.011   8.664   1.227 -0.1018  0.2673 -0.1270
18893SOL    HW165457   1.055   8.739   1.267  1.5857 -0.6771 -0.1286
18893SOL    HW265458   1.039   8.665   1.136  1.6879 -1.5188  0.3254
18894SOL     OW65459   8.796   0.684   0.804  0.1068 -0.9855  0.4584
18894SOL    HW165460   8.864   0.740   0.841 -0.9779  2.1778 -1.9190
18894SOL    HW265461   8.745   0.655   0.880  1.1223  0.7242  1.8589
18895SOL     OW65462  12.344  10.558   4.458  0.5055  0.3682  1.0048
18895SOL    HW165463  12.323  10.552   4.551 -2.8241 -0.3361  0.3522
18895SOL    HW265464  12.333  10.651   4.436 -0.5560  0.2589  1.0096
18896SOL     OW65465  11.160  12.204   7.247  0.2133 -0.8573  0.0970
18896SOL    HW165466  11.090  12.147   7.214 -0.5722  0.5724 -0.7898
18896SOL    HW265467  11.158  12.281   7.190  1.4975 -0.1000  1.0196
18897SOL     OW65468   5.061   8.321   0.361  0.0624  0.0004  0.0030
18897SOL    HW165469   4.985   8.354   0.314 -0.9104 -1.3136  0.5919
18897SOL    HW265470   5.127   8.308   0.293 -0.1973  1.2106 -0.5040
18898SOL     OW65471  12.282   6.569   6.787 -0.4773 -0.6641  0.0439
18898SOL    HW165472  12.238   6.488   6.761 -0.5710 -0.5265 -0.2239
18898SOL    HW265473  12.239   6.594   6.869  0.0280 -1.2637  0.5035
18899SOL     OW65474   3.414   1.524   6.829 -0.3322  0.2659 -0.1163
18899SOL    HW165475   3.407   1.436   6.866 -0.3074 -0.3494 -1.4902
18899SOL    HW265476   3.325   1.558   6.832 -0.1998  0.5472  1.1945
18900SOL     OW65477   7.973   1.598   5.196  0.3240  0.0658 -0.2988
18900SOL    HW165478   8.019   1.682   5.202 -0.5786  0.5968 -0.5327
18900SOL    HW265479   8.038   1.532   5.219  1.1278  0.8129 -0.4044
18901SOL     OW65480   6.739   2.020   6.978  0.2681  0.2841 -0.3158
18901SOL    HW165481   6.766   2.034   7.069 -0.6284  1.0776 -0.1583
18901SOL    HW265482   6.727   1.925   6.971 -1.4264  0.3576  0.9398
18902SOL     OW65483  11.258  10.537  11.367 -0.4016 -0.1176  0.4300
18902SOL    HW165484  11.267  10.630  11.389  1.1376 -0.6785  2.4139
18902SOL    HW265485  11.192  10.505  11.429 -0.5986 -0.4567  0.0463
18903SOL     OW65486   9.951   1.718   0.069 -0.1810  0.1837  0.0071
18903SOL    HW165487   9.965   1.702  -0.025  1.2105  0.0439  0.2211
18903SOL    HW265488   9.939   1.631   0.107 -1.5803  0.2851 -0.1354
18904SOL     OW65489   8.616  10.373   3.534 -0.4666 -0.4782  0.7253
18904SOL    HW165490   8.700  10.373   3.489 -1.7362  0.5143 -1.8171
18904SOL    HW265491   8.602  10.465   3.558 -2.6706  0.3109 -2.8343
18905SOL     OW65492   1.164   6.759  12.013  0.3184  0.3862  0.2370
18905SOL    HW165493   1.094   6.812  12.054  1.1776  0.7396  1.2963
18905SOL    HW265494   1.226   6.824  11.980  0.4579  0.0622 -0.1377
18906SOL     OW65495  10.216   7.700   4.572 -0.3771 -0.9156  0.2382
18906SOL    HW165496  10.170   7.618   4.556 -0.0910 -0.6885 -2.0589
18906SOL    HW265497  10.171   7.738   4.647 -1.7807 -2.2510  0.1284
18907SOL     OW65498   2.591   3.070   2.568 -0.8007  0.0915  0.1223
18907SOL    HW165499   2.678   3.103   2.592  1.2501 -4.1971 -0.5019
18907SOL    HW265500   2.541   3.074   2.649  0.6622  0.7864  1.0313
18908SOL     OW65501   2.780   3.135   1.077 -0.2969  0.4007  0.4645
18908SOL    HW165502   2.838   3.190   1.024 -2.0270  2.0026  0.0994
18908SOL    HW265503   2.721   3.094   1.013 -0.7975  0.3517  0.9470
18909SOL     OW65504   7.884   7.893   9.071 -0.3254 -0.2968  0.3663
18909SOL    HW165505   7.881   7.823   9.136 -0.8053 -0.3342  0.3115
18909SOL    HW265506   7.798   7.935   9.078 -0.3399 -0.2318 -0.1662
18910SOL     OW65507   5.487   9.366   8.942 -0.0610 -0.8773 -0.7554
18910SOL    HW165508   5.514   9.334   8.856  1.4422  0.8030 -0.9686
18910SOL    HW265509   5.519   9.456   8.945  0.3275 -1.0253  1.7456
18911SOL     OW65510   9.179   5.902   0.083  0.0188 -0.2038 -0.0319
18911SOL    HW165511   9.212   5.990   0.065  0.1325  0.1220  1.6249
18911SOL    HW265512   9.193   5.855   0.001  4.0777  0.0720  0.2701
18912SOL     OW65513   8.208   0.182  12.109  0.0541  0.5641  0.1359
18912SOL    HW165514   8.246   0.094  12.113  0.3650  0.7074  0.4786
18912SOL    HW265515   8.249   0.223  12.033 -0.4137  0.2662 -0.2747
18913SOL     OW65516   4.651   4.510   4.826  0.0629 -0.1252 -0.1574
18913SOL    HW165517   4.743   4.507   4.854  0.7268  2.0650 -1.7430
18913SOL    HW265518   4.651   4.466   4.741 -0.8353 -1.9607  0.7382
18914SOL     OW65519  11.552   0.283   4.956  0.8236 -0.0855 -0.5241
18914SOL    HW165520  11.502   0.303   4.877 -2.3313  2.6374  1.8897
18914SOL    HW265521  11.597   0.365   4.977  0.0081 -0.0977  1.4761
18915SOL     OW65522  11.251   5.554  11.992 -0.3662 -0.1107 -0.3366
18915SOL    HW165523  11.251   5.492  12.065 -0.8522  0.2988  0.0227
18915SOL    HW265524  11.262   5.640  12.034 -0.5660  0.1212 -0.7506
18916SOL     OW65525  10.623   6.184   0.906 -0.6460  0.4275 -0.1311
18916SOL    HW165526  10.662   6.225   0.983 -0.4842 -0.1166  0.0884
18916SOL    HW265527  10.538   6.152   0.937  0.2738 -1.6629  0.4441
18917SOL     OW65528   2.045   2.359   5.711 -0.0926 -0.2470  0.2496
18917SOL    HW165529   1.951   2.344   5.721 -0.0625 -3.0120 -2.1169
18917SOL    HW265530   2.085   2.277   5.740  1.3107 -0.2237 -1.4552
18918SOL     OW65531   7.801   6.438   6.979 -0.4157  0.6568  0.1051
18918SOL    HW165532   7.757   6.508   7.027 -1.6982  0.1714 -0.3199
18918SOL    HW265533   7.871   6.409   7.038  0.1831  2.3168  0.2615
18919SOL     OW65534   4.786   5.325   4.868  0.4918  0.2310 -0.1539
18919SOL    HW165535   4.720   5.382   4.827  1.2847  0.7625 -0.7184
18919SOL    HW265536   4.785   5.245   4.815  1.8733  1.1114 -1.5854
18920SOL     OW65537   6.435   0.128   5.080  0.0543 -1.0434 -0.4842
18920SOL    HW165538   6.495   0.198   5.107  0.1336 -1.5995  0.8249
18920SOL    HW265539   6.492   0.052   5.067 -0.4120 -1.8290  1.6630
18921SOL     OW65540   8.680   0.984   7.219  0.5634 -0.4566  0.0676
18921SOL    HW165541   8.675   0.927   7.142 -0.4783 -0.9090  0.4489
18921SOL    HW265542   8.768   1.023   7.215 -0.4338  1.9556 -3.0963
18922SOL     OW65543   2.614   6.266  10.272  0.4621  0.1311  0.0880
18922SOL    HW165544   2.621   6.298  10.182  0.4311 -2.1223 -0.7780
18922SOL    HW265545   2.539   6.314  10.308  0.2367  0.8049 -1.1874
18923SOL     OW65546   4.011   6.724   1.727 -0.6789 -0.1687 -0.1160
18923SOL    HW165547   4.030   6.700   1.817 -0.5359  3.0574  0.8094
18923SOL    HW265548   3.918   6.747   1.727  0.2336  4.5365  0.5870
18924SOL     OW65549  10.289   5.304   5.833 -0.2198  1.0804 -0.1917
18924SOL    HW165550  10.338   5.222   5.830  1.2000  1.7629  1.8191
18924SOL    HW265551  10.209   5.281   5.881  0.4511  0.9557  0.9110
18925SOL     OW65552   9.258   6.419   9.269  0.1122 -0.3471  0.2641
18925SOL    HW165553   9.220   6.491   9.318 -0.2309 -0.0709 -0.3966
18925SOL    HW265554   9.237   6.438   9.177  1.0078 -0.6890 -0.0226
18926SOL     OW65555  12.503   2.913   2.158  0.1894 -0.0890  0.0728
18926SOL    HW165556  12.470   2.996   2.122  0.5693 -0.4807 -1.2439
18926SOL    HW265557  12.425   2.862   2.177 -0.1377  1.1744  2.5369
18927SOL     OW65558   1.770   7.943   5.727 -0.4410 -0.6648  0.0011
18927SOL    HW165559   1.760   8.035   5.749 -1.3583 -0.5415 -0.8498
18927SOL    HW265560   1.693   7.922   5.674  1.8195 -0.7525 -3.5940
18928SOL     OW65561   5.776   7.308  10.310  0.4648  0.0166  0.1610
18928SOL    HW165562   5.866   7.337  10.295 -0.1281  1.9937  0.1669
18928SOL    HW265563   5.748   7.355  10.389 -1.0910  0.7715 -0.7757
18929SOL     OW65564  12.412   1.542   0.108  0.1991 -0.1704 -0.3339
18929SOL    HW165565  12.497   1.580   0.131  0.4123 -0.7744 -0.1144
18929SOL    HW265566  12.425   1.507   0.020 -0.1687  0.7613 -0.7807
18930SOL     OW65567   5.438   6.775   4.417  0.0021  0.1294 -0.3267
18930SOL    HW165568   5.430   6.829   4.495 -0.7130  0.3220 -0.5289
18930SOL    HW265569   5.470   6.691   4.450  3.2855  1.2626 -0.2434
18931SOL     OW65570   3.207   0.363   5.951  0.0908 -0.0250  0.4194
18931SOL    HW165571   3.281   0.339   5.895 -1.6723  0.5543 -2.4229
18931SOL    HW265572   3.173   0.279   5.983  1.2066 -0.3736  0.7293
18932SOL     OW65573  10.284   1.068   1.180  0.3108 -0.0330  0.0514
18932SOL    HW165574  10.255   1.135   1.118 -1.2365  1.5867  2.3267
18932SOL    HW265575  10.377   1.055   1.161  0.3869  1.9559 -1.1915
18933SOL     OW65576   9.806   1.943   5.520  0.5889  0.1207 -0.4137
18933SOL    HW165577   9.892   1.958   5.559  0.2771  0.2488  0.2310
18933SOL    HW265578   9.811   1.854   5.485  0.6808 -0.2140  0.4325
18934SOL     OW65579   4.813   3.757   7.814  0.1615 -0.0398 -0.3870
18934SOL    HW165580   4.889   3.700   7.827  0.3487  0.1624 -0.5850
18934SOL    HW265581   4.779   3.773   7.901 -0.7242 -1.5875 -0.4182
18935SOL     OW65582   0.469   0.863  11.180 -0.1508 -0.1005 -0.4923
18935SOL    HW165583   0.512   0.945  11.157 -0.8153  0.4419  0.1750
18935SOL    HW265584   0.413   0.884  11.254  0.5366 -1.4166  0.4401
18936SOL     OW65585   9.623   0.089   4.126  0.1406  0.1685 -0.3475
18936SOL    HW165586   9.713   0.100   4.093 -0.0745 -0.9409 -1.3605
18936SOL    HW265587   9.585   0.022   4.070 -1.9921  2.0082 -1.2379
18937SOL     OW65588   6.770   7.064   7.217 -0.5699 -0.3658  0.2424
18937SOL    HW165589   6.789   7.145   7.169  3.7878 -1.2480  0.0656
18937SOL    HW265590   6.745   7.093   7.304 -0.6012  1.1907 -0.2553
18938SOL     OW65591   0.402   4.628  10.741  0.0908 -0.4105 -0.3932
18938SOL    HW165592   0.433   4.559  10.799 -1.2222  0.6796  1.7072
18938SOL    HW265593   0.480   4.682  10.725  0.8090 -1.5588 -0.9391
18939SOL     OW65594   4.068   5.416   3.411 -0.2974  0.2724  0.7089
18939SOL    HW165595   4.048   5.454   3.496 -1.4103  1.5279 -0.0922
18939SOL    HW265596   4.154   5.452   3.388  0.3645 -0.6573  1.5919
18940SOL     OW65597   0.476  10.371  12.003 -0.0994 -0.2155  0.4859
18940SOL    HW165598   0.480  10.291  12.056  1.2463  0.9648  2.2858
18940SOL    HW265599   0.565  10.406  12.006 -0.3627  0.7437 -1.3133
18941SOL     OW65600   5.236   9.766  11.773 -0.3194 -0.2442 -0.4396
18941SOL    HW165601   5.179   9.788  11.847 -0.3842 -0.4599 -0.4244
18941SOL    HW265602   5.208   9.824  11.702  1.1482  1.4966  0.3292
18942SOL     OW65603   3.054   1.118   3.540 -0.1658  0.1952  0.2235
18942SOL    HW165604   3.122   1.052   3.551  0.0031  0.2013 -0.7381
18942SOL    HW265605   3.102   1.198   3.518 -0.5209 -0.0828 -1.7342
18943SOL     OW65606   4.599   3.811   1.170  0.4794  0.2409  0.0491
18943SOL    HW165607   4.576   3.729   1.127  1.6887  0.8787 -1.9353
18943SOL    HW265608   4.659   3.785   1.240  2.8788 -0.4558 -2.1141
18944SOL     OW65609  10.473  12.562   4.498 -0.4051 -0.1719  0.2867
18944SOL    HW165610  10.414  12.609   4.557  0.1938  0.9060  0.0463
18944SOL    HW265611  10.537  12.521   4.556 -1.5236 -1.5866  0.5703
18945SOL     OW65612   5.422   5.485   3.288 -0.0471  0.0734  0.6890
18945SOL    HW165613   5.330   5.465   3.270  0.3899 -0.3294 -1.4231
18945SOL    HW265614   5.451   5.415   3.347 -0.2188 -2.0348 -1.5356
18946SOL     OW65615  11.092   6.938   3.335 -0.1242 -0.3428  0.2236
18946SOL    HW165616  11.073   6.931   3.241 -0.5557  1.9278  0.0892
18946SOL    HW265617  11.188   6.941   3.340 -0.0905 -0.7641 -0.1081
18947SOL     OW65618  10.745   4.767  10.991  0.0742 -0.0045 -0.0359
18947SOL    HW165619  10.703   4.846  11.025  0.2486 -0.2067  0.6727
18947SOL    HW265620  10.689   4.740  10.918 -0.3156  0.4431  0.0904
18948SOL     OW65621  11.220   7.495  12.539 -0.4555  0.0927 -0.4016
18948SOL    HW165622  11.205   7.453  12.454 -1.9736 -1.7074  0.6617
18948SOL    HW265623  11.133   7.520  12.568  0.0330  0.5664  0.6742
18949SOL     OW65624   9.814   2.470   3.634 -0.8311  0.5033  0.3440
18949SOL    HW165625   9.782   2.386   3.601 -3.5089  1.1312  1.1272
18949SOL    HW265626   9.745   2.502   3.692  0.6726  2.6678  1.0946
18950SOL     OW65627   3.963   9.362   2.192 -0.5901  0.0941 -0.1387
18950SOL    HW165628   3.946   9.384   2.100 -0.3549 -0.8469 -0.4136
18950SOL    HW265629   3.902   9.291   2.211 -1.0820  0.7045  0.6284
18951SOL     OW65630   6.996   3.244   0.849  0.1240  0.1670  0.7176
18951SOL    HW165631   6.911   3.213   0.879 -0.1080  0.0156 -0.0943
18951SOL    HW265632   6.986   3.259   0.755  0.8790  0.5228  0.6808
18952SOL     OW65633   7.229   5.263   7.290  0.0233  0.4725  0.4862
18952SOL    HW165634   7.312   5.228   7.321 -0.3203  0.4357  1.3931
18952SOL    HW265635   7.191   5.307   7.367 -0.2222  1.5702 -0.2382
18953SOL     OW65636   6.430  12.226   8.332  0.1142  0.6354  0.0535
18953SOL    HW165637   6.465  12.139   8.311  0.6020  0.4463  1.5694
18953SOL    HW265638   6.368  12.211   8.403  0.1145  1.5219  0.2515
18954SOL     OW65639   1.467   5.882   1.525  0.4330  0.0293  0.3672
18954SOL    HW165640   1.499   5.801   1.485  2.6887  0.9041  0.2800
18954SOL    HW265641   1.375   5.887   1.498  0.4675 -2.0474 -0.3245
18955SOL     OW65642   4.326  10.684  12.226  0.4346  0.7597 -0.8313
18955SOL    HW165643   4.372  10.768  12.225  0.3611  0.8203  0.0439
18955SOL    HW265644   4.338  10.649  12.138  0.4694  1.6883 -1.2044
18956SOL     OW65645   0.462  12.130   9.840  0.4136 -0.2105 -0.4929
18956SOL    HW165646   0.391  12.098   9.784  0.5842 -0.2030 -0.7151
18956SOL    HW265647   0.514  12.186   9.783  0.4727 -0.0393 -0.2698
18957SOL     OW65648   4.248  11.729   6.333  0.2528  0.0226 -0.9951
18957SOL    HW165649   4.260  11.810   6.382  1.1710 -0.4405 -0.4059
18957SOL    HW265650   4.336  11.690   6.330 -0.1931 -1.0117 -1.1368
18958SOL     OW65651   6.165   3.334  10.896 -0.1546  0.0063  0.0591
18958SOL    HW165652   6.166   3.430  10.896  2.0418  0.0336 -0.1302
18958SOL    HW265653   6.089   3.311  10.842  0.2254  1.6723 -1.3028
18959SOL     OW65654   4.633   2.930   1.163 -0.3083 -0.0209 -0.0905
18959SOL    HW165655   4.632   3.024   1.146 -0.5542  0.1585  0.8224
18959SOL    HW265656   4.562   2.895   1.109  0.0840  0.2494 -0.7825
18960SOL     OW65657   5.708   0.749   8.953  0.5856 -0.3582  0.3523
18960SOL    HW165658   5.779   0.810   8.974 -0.2181  0.8808 -0.3672
18960SOL    HW265659   5.751   0.676   8.908  1.4503  0.2008  0.2473
18961SOL     OW65660   2.403   9.605   8.062  0.1682 -0.5595  0.0882
18961SOL    HW165661   2.427   9.588   7.971  1.3426  0.8039  0.1083
18961SOL    HW265662   2.477   9.571   8.113  0.4174  0.4100  0.3974
18962SOL     OW65663   6.673  12.080   0.433 -0.4900 -0.4796  0.6175
18962SOL    HW165664   6.697  12.035   0.514  0.7504 -0.4871  0.2652
18962SOL    HW265665   6.580  12.059   0.421 -1.3253  1.2804  3.1619
18963SOL     OW65666  10.834  12.597   9.965  0.4612 -0.6567 -0.2481
18963SOL    HW165667  10.895  12.631   9.899 -0.2079  0.6223 -0.2226
18963SOL    HW265668  10.888  12.587  10.044  0.5399  0.9613 -0.0789
18964SOL     OW65669   2.959   2.868   6.345 -0.7764 -0.2369 -0.2403
18964SOL    HW165670   2.946   2.851   6.439 -1.1664 -1.6267 -0.5274
18964SOL    HW265671   3.018   2.944   6.343 -2.1626  0.9575  1.1127
18965SOL     OW65672   8.587  12.098   9.456  0.5526 -0.0576 -0.7831
18965SOL    HW165673   8.535  12.178   9.452  0.4693 -0.0379  0.3153
18965SOL    HW265674   8.587  12.064   9.366 -1.2860 -0.0181 -0.8252
18966SOL     OW65675   2.280   9.099   5.978 -0.4545 -0.2025  0.1861
18966SOL    HW165676   2.359   9.111   6.030 -0.7149  0.5833  0.4188
18966SOL    HW265677   2.263   9.005   5.980  1.2232 -0.5649 -0.9812
18967SOL     OW65678  10.381   5.028   9.771  0.4308  0.3167 -0.0839
18967SOL    HW165679  10.372   4.982   9.854  1.8976 -0.2407 -0.1856
18967SOL    HW265680  10.429   5.108   9.792  1.4319 -0.1625 -0.4671
18968SOL     OW65681   6.963   1.912  10.659  0.1110 -0.2422  0.0712
18968SOL    HW165682   6.876   1.876  10.673  0.2543 -0.7182 -0.2445
18968SOL    HW265683   6.948   1.999  10.621 -0.2163 -0.4897 -0.3641
18969SOL     OW65684  12.358  10.683   1.816 -0.0782 -0.3894 -0.2663
18969SOL    HW165685  12.298  10.734   1.870 -0.7939 -0.7153 -0.7363
18969SOL    HW265686  12.310  10.667   1.734  0.8678 -0.1681 -0.8792
18970SOL     OW65687   7.695   0.179   8.990 -0.2309 -0.1720 -0.4420
18970SOL    HW165688   7.779   0.185   8.945  0.4740  0.4485  0.9054
18970SOL    HW265689   7.681   0.267   9.026  0.9068 -1.3940  3.4306
18971SOL     OW65690   3.095   9.582   7.812 -0.0004  0.1658  0.2371
18971SOL    HW165691   3.172   9.594   7.755 -0.2406  1.7125  0.1811
18971SOL    HW265692   3.105   9.650   7.879 -0.5732 -0.5696  1.0762
18972SOL     OW65693   1.331  10.419   1.623 -0.2052 -0.1736  0.0556
18972SOL    HW165694   1.237  10.408   1.639 -0.1461  0.2993  0.7472
18972SOL    HW265695   1.373  10.382   1.700  0.2639 -1.8019 -0.9080
18973SOL     OW65696  11.051  11.939   3.659 -0.8727  0.1370  0.2298
18973SOL    HW165697  11.038  12.022   3.613 -0.5574 -0.2531 -0.5866
18973SOL    HW265698  10.967  11.894   3.650 -0.6910 -0.1041 -0.3243
18974SOL     OW65699   5.062   5.067   9.881  0.3824 -0.2564 -0.7117
18974SOL    HW165700   5.106   5.141   9.838  0.1251  2.0790  2.6216
18974SOL    HW265701   5.128   4.998   9.884  2.5545  1.7347  0.6104
18975SOL     OW65702  10.539   1.480   5.883  0.2544 -0.4624 -0.0957
18975SOL    HW165703  10.596   1.406   5.862 -0.6651 -1.4199  0.6649
18975SOL    HW265704  10.450   1.444   5.881 -0.1260  0.2692  1.6600
18976SOL     OW65705   2.410   2.573   8.745  0.3000  0.1603  0.0630
18976SOL    HW165706   2.489   2.553   8.694 -0.3896 -0.7857 -0.6531
18976SOL    HW265707   2.374   2.488   8.768 -1.4154  0.5398 -1.0546
18977SOL     OW65708   1.525   6.896   0.950 -0.5242 -0.1539  0.7160
18977SOL    HW165709   1.429   6.896   0.946 -0.5402 -0.1217  1.1453
18977SOL    HW265710   1.546   6.861   1.036 -0.1406 -0.5834  0.4494
18978SOL     OW65711  12.074   4.894   2.204 -0.1924 -0.1210  0.3176
18978SOL    HW165712  12.038   4.898   2.293 -0.4014  1.2913  0.1933
18978SOL    HW265713  12.168   4.904   2.217 -0.1807 -0.3448  0.4085
18979SOL     OW65714  12.399   1.294   4.879 -0.2382 -0.2920  0.0365
18979SOL    HW165715  12.403   1.206   4.841 -2.4379 -0.6430  0.4330
18979SOL    HW265716  12.307   1.319   4.869 -0.2969  0.7765  2.5250
18980SOL     OW65717   7.337   9.482  12.596 -0.2353 -0.1473 -0.1739
18980SOL    HW165718   7.386   9.531  12.531  0.4348 -0.3093  0.1966
18980SOL    HW265719   7.384   9.399  12.605 -0.2829 -0.1059  0.5466
18981SOL     OW65720   0.042   7.258  11.256  0.0756 -0.1816 -0.5075
18981SOL    HW165721   0.009   7.291  11.173  2.2788  0.5173 -1.1748
18981SOL    HW265722   0.093   7.181  11.233  1.3868  0.4831  0.0601
18982SOL     OW65723   3.783   3.544   5.359  0.3817 -0.1885  0.2409
18982SOL    HW165724   3.741   3.527   5.275 -0.1313  0.0916  0.4365
18982SOL    HW265725   3.827   3.628   5.348 -0.7377  0.4745  0.6320
18983SOL     OW65726   9.295  10.381   1.451  0.3111 -0.0293  0.2900
18983SOL    HW165727   9.259  10.296   1.477  1.7329 -0.7272  0.0920
18983SOL    HW265728   9.381  10.360   1.414  1.3128  1.6224  1.5405
18984SOL     OW65729   2.722   2.877   5.800  0.0608 -0.0399  0.2645
18984SOL    HW165730   2.660   2.924   5.856  1.1219  1.3060  0.3536
18984SOL    HW265731   2.808   2.905   5.831  0.7891 -2.5074  0.7094
18985SOL     OW65732   4.232   6.055   3.099  0.3255  0.4642 -0.1017
18985SOL    HW165733   4.262   6.122   3.160 -0.2771  1.2242 -0.6239
18985SOL    HW265734   4.273   6.077   3.016 -0.2565  0.4693 -0.3940
18986SOL     OW65735   5.529  12.499   6.900  0.2869  0.1097 -0.2122
18986SOL    HW165736   5.583  12.453   6.964  1.3728 -0.3378 -1.4234
18986SOL    HW265737   5.449  12.522   6.949  0.9295 -0.5173  1.1943
18987SOL     OW65738   8.961   9.800   8.187  0.5287 -0.1761  0.2158
18987SOL    HW165739   8.876   9.845   8.192 -0.5135 -2.1133  1.2498
18987SOL    HW265740   8.983   9.781   8.278  2.9363  1.6917  0.1024
18988SOL     OW65741   5.962   7.121  11.627 -0.2884 -0.3470  0.3466
18988SOL    HW165742   5.905   7.133  11.702 -0.4585  0.2636  0.1230
18988SOL    HW265743   5.985   7.210  11.599  2.2798 -0.5413  1.5580
18989SOL     OW65744  11.641   9.011   8.812 -0.4480  0.0656 -0.1176
18989SOL    HW165745  11.661   8.951   8.883 -0.6947 -0.8593 -0.8148
18989SOL    HW265746  11.653   9.098   8.850 -0.0940 -0.4178  0.9053
18990SOL     OW65747   3.482   2.226   9.309  0.3317  0.2999  0.0513
18990SOL    HW165748   3.388   2.211   9.317  0.1476  1.6770  0.8379
18990SOL    HW265749   3.499   2.302   9.366  2.2433 -1.1664  1.5726
18991SOL     OW65750  12.062   4.647   2.631  0.1612 -0.0447 -0.4729
18991SOL    HW165751  12.122   4.589   2.583 -0.6073 -0.5120 -0.8806
18991SOL    HW265752  11.982   4.597   2.640 -0.5322  0.9600 -0.8485
18992SOL     OW65753   1.947   1.606   7.650  0.0733 -0.3884 -0.0262
18992SOL    HW165754   1.936   1.691   7.693 -1.0683 -0.6693  0.2865
18992SOL    HW265755   1.991   1.626   7.568 -1.7573  0.7659 -0.7910
18993SOL     OW65756   9.386  12.595   1.756 -0.3774  0.3016 -0.5057
18993SOL    HW165757   9.380  12.683   1.720 -0.7618  0.5146  0.0683
18993SOL    HW265758   9.299  12.577   1.792  0.1708  0.3766  0.9326
18994SOL     OW65759   3.719   6.051   5.620 -0.0814 -0.4689  0.1586
18994SOL    HW165760   3.634   6.096   5.617  0.2951  0.3129  0.9543
18994SOL    HW265761   3.697   5.960   5.642 -0.5802  0.2015  2.6931
18995SOL     OW65762  12.477   5.200   7.507  0.3519  0.2290 -0.2534
18995SOL    HW165763  12.442   5.280   7.546  2.5201  1.2342 -0.2656
18995SOL    HW265764  12.432   5.194   7.422 -0.7991  0.6900  0.3063
18996SOL     OW65765   1.186   6.472   3.285  0.3141  0.2922 -0.4167
18996SOL    HW165766   1.224   6.389   3.314  0.5097  0.7097  0.5451
18996SOL    HW265767   1.094   6.467   3.309  0.2821  0.2711 -0.5431
18997SOL     OW65768   7.795   4.450   3.538 -0.3903 -0.2828 -0.0212
18997SOL    HW165769   7.778   4.540   3.510  2.0368  0.7254  1.4359
18997SOL    HW265770   7.758   4.396   3.468 -0.7540  1.8853 -1.6015
18998SOL     OW65771   1.228   1.415   4.000 -0.4599  0.0843 -0.7158
18998SOL    HW165772   1.294   1.476   3.968 -1.2019  0.7235 -1.0554
18998SOL    HW265773   1.276   1.357   4.060 -0.1072  2.3498  1.3563
18999SOL     OW65774   4.546  10.536   2.900 -0.6984  0.0793  0.4629
18999SOL    HW165775   4.560  10.603   2.967  1.0916  0.3596 -0.1354
18999SOL    HW265776   4.526  10.586   2.821 -0.5592 -0.1395  0.2895
19000SOL     OW65777   4.878   7.599   4.701 -0.7641 -0.3146  0.7729
19000SOL    HW165778   4.824   7.539   4.650  2.0619 -1.9402 -0.5441
19000SOL    HW265779   4.963   7.556   4.707  1.4357  3.4538 -0.1430
19001SOL     OW65780  10.362   1.984   4.643  0.2331  0.5395 -0.1496
19001SOL    HW165781  10.408   2.037   4.708  1.0915 -1.2654  0.7567
19001SOL    HW265782  10.345   2.045   4.571  2.0677  1.7919  0.4173
19002SOL     OW65783   3.174   2.504   9.527  0.4020  0.6049 -0.4741
19002SOL    HW165784   3.221   2.484   9.607  1.1138  1.3767 -0.6905
19002SOL    HW265785   3.109   2.570   9.552 -0.2927 -0.1321 -0.2698
19003SOL     OW65786   3.286   3.803   0.129 -0.2427  0.3960 -0.9616
19003SOL    HW165787   3.208   3.810   0.073  1.2527  1.4936 -3.0440
19003SOL    HW265788   3.311   3.710   0.124  0.5204  0.6646 -3.1585
19004SOL     OW65789   8.930  11.040   4.311 -0.6298  0.1550 -0.4557
19004SOL    HW165790   8.893  11.041   4.223 -1.8052 -1.5020 -0.0383
19004SOL    HW265791   8.856  11.018   4.367  0.6418 -1.5849  0.6202
19005SOL     OW65792   9.668  10.643   8.366 -0.1867  0.0324  0.2803
19005SOL    HW165793   9.676  10.554   8.333 -0.7206  0.2243 -0.3871
19005SOL    HW265794   9.611  10.687   8.303 -0.1318  0.7773  0.7384
19006SOL     OW65795  10.712   7.789   4.978  0.4540 -0.4257 -0.2087
19006SOL    HW165796  10.742   7.711   5.025  0.1691 -1.3595 -1.5035
19006SOL    HW265797  10.617   7.779   4.972  0.4686 -0.2757 -0.8583
19007SOL     OW65798  10.885  10.433   4.061  0.2528  0.5481  0.3008
19007SOL    HW165799  10.789  10.440   4.067  0.2399  0.0675  0.6594
19007SOL    HW265800  10.903  10.434   3.967 -0.1888 -0.4790  0.1969
19008SOL     OW65801   2.079   1.938   3.633  0.1396  0.0340  0.6214
19008SOL    HW165802   2.135   1.985   3.695  1.4342  0.0281 -0.4796
19008SOL    HW265803   2.133   1.864   3.605 -0.6688 -0.3152 -0.0254
19009SOL     OW65804   3.303   7.999   9.685 -0.1027  0.4346  0.3941
19009SOL    HW165805   3.304   7.942   9.608 -2.1370  0.3740  0.3647
19009SOL    HW265806   3.254   7.949   9.750 -1.4431  1.8949  0.5545
19010SOL     OW65807   5.471   2.890  12.328  0.2452  0.5356  0.0611
19010SOL    HW165808   5.381   2.918  12.317  0.1754  0.9499  1.4872
19010SOL    HW265809   5.475   2.855  12.417  0.7684 -2.3272 -0.9801
19011SOL     OW65810   3.244   9.377   7.996  0.3433  0.1636  0.7022
19011SOL    HW165811   3.326   9.426   7.987  0.5205 -0.1788  0.4652
19011SOL    HW265812   3.266   9.307   8.057  0.0930  0.3669  1.0267
19012SOL     OW65813   7.729   8.291  11.012 -0.1075  0.0703  0.0897
19012SOL    HW165814   7.788   8.278  11.086 -1.1831 -2.9015  0.5225
19012SOL    HW265815   7.660   8.348  11.046  1.5635  2.3342  0.0011
19013SOL     OW65816   3.586  11.151   1.322  0.4855  0.3614 -0.1420
19013SOL    HW165817   3.646  11.098   1.375 -0.6014 -0.4921  0.2838
19013SOL    HW265818   3.530  11.087   1.279  0.4299  1.1123 -1.2278
19014SOL     OW65819  11.443   5.943   6.676 -0.2401  0.2891 -0.0603
19014SOL    HW165820  11.473   5.852   6.674 -0.2750  0.1868  2.0247
19014SOL    HW265821  11.359   5.939   6.722 -0.0529  1.4119  0.4083
19015SOL     OW65822   4.504  10.640   0.917 -0.0894  0.1460  0.3646
19015SOL    HW165823   4.510  10.581   0.841  1.1342  1.5000 -0.6583
19015SOL    HW265824   4.595  10.650   0.946 -0.5439 -0.3218  2.0086
19016SOL     OW65825   2.667   4.594   2.174 -0.6042  0.3156  0.2409
19016SOL    HW165826   2.589   4.650   2.176 -0.3221  0.8533 -1.7448
19016SOL    HW265827   2.739   4.654   2.154  0.2703 -0.2667  1.5007
19017SOL     OW65828   3.296   6.330   6.719  0.0005  0.1197  0.0788
19017SOL    HW165829   3.386   6.359   6.707  0.4360 -1.2148 -0.1150
19017SOL    HW265830   3.266   6.308   6.630 -0.6704  0.9586  0.0871
19018SOL     OW65831   9.366   2.737  11.699  0.2966  0.1121  0.0042
19018SOL    HW165832   9.412   2.668  11.650 -0.0001 -0.8884  1.0961
19018SOL    HW265833   9.397   2.728  11.789  0.1174  1.3086  0.2071
19019SOL     OW65834   0.407  10.854   1.173  0.3137  0.6234  0.3901
19019SOL    HW165835   0.472  10.845   1.243  0.3440  3.4054  0.8332
19019SOL    HW265836   0.323  10.841   1.216  0.4516 -0.9516  0.2286
19020SOL     OW65837   8.192   7.697  11.215 -0.7657  0.0282  0.1221
19020SOL    HW165838   8.148   7.614  11.195  0.6112 -0.8713  0.7203
19020SOL    HW265839   8.152   7.726  11.297 -1.3461  0.0338 -0.1584
19021SOL     OW65840   7.011  10.163   3.846  0.1985  0.3367 -0.1101
19021SOL    HW165841   7.006  10.258   3.855  1.1064  0.3155  0.6967
19021SOL    HW265842   6.940  10.142   3.785 -0.2126  1.4927 -0.0678
19022SOL     OW65843   0.813   3.753   1.763 -0.2750  0.2539  0.3677
19022SOL    HW165844   0.863   3.680   1.728 -1.5778 -0.7978  0.6101
19022SOL    HW265845   0.873   3.828   1.758  0.6949 -0.5591 -0.9876
19023SOL     OW65846   3.037   6.121   5.965  0.0180  0.2401 -0.2169
19023SOL    HW165847   3.094   6.066   5.912 -0.8070 -3.1183  2.0665
19023SOL    HW265848   3.094   6.155   6.034  0.2345  1.1709 -0.8334
19024SOL     OW65849   0.588   3.727  11.516  0.2738 -0.7170 -0.1846
19024SOL    HW165850   0.533   3.650  11.531  1.3898 -1.1009  2.4929
19024SOL    HW265851   0.651   3.726  11.588 -0.3309  3.2687  0.6273
19025SOL     OW65852   0.210   7.891  11.584  0.3470  0.7678 -0.2475
19025SOL    HW165853   0.264   7.867  11.509 -0.9626 -0.5330 -0.8036
19025SOL    HW265854   0.213   7.987  11.586  0.2870  0.8316 -2.0348
19026SOL     OW65855   2.621   9.041  11.770  0.1070  0.1861 -0.2151
19026SOL    HW165856   2.636   9.012  11.680  0.5318  0.7796 -0.3389
19026SOL    HW265857   2.611   9.136  11.764 -0.0314  0.2139  0.3444
19027SOL     OW65858   7.321   4.254   5.966 -0.0217  0.6848  0.6209
19027SOL    HW165859   7.312   4.188   6.035  2.2730  1.5257  1.8142
19027SOL    HW265860   7.378   4.213   5.901 -0.1509  0.8113  0.4253
19028SOL     OW65861  10.411   7.737  11.005 -0.0046 -0.0037  0.0350
19028SOL    HW165862  10.331   7.784  11.030  0.1425 -0.3245  1.1780
19028SOL    HW265863  10.480   7.778  11.056  0.1591 -1.2764  0.8810
19029SOL     OW65864   8.043   9.283   2.734 -0.4376  0.0485  0.0691
19029SOL    HW165865   8.039   9.379   2.729  0.6493  0.1698  1.1871
19029SOL    HW265866   7.961   9.254   2.695 -1.2692  1.4724  0.6800
19030SOL     OW65867   4.518  11.076   0.220 -0.0397  0.9238  0.6459
19030SOL    HW165868   4.483  11.135   0.153 -1.2187  1.0005  1.2944
19030SOL    HW265869   4.475  11.104   0.301 -1.7807 -1.6966  0.7512
19031SOL     OW65870   1.520   0.484   6.735  0.4892 -0.3767  0.4486
19031SOL    HW165871   1.492   0.421   6.669 -0.8599  0.7397 -0.0888
19031SOL    HW265872   1.475   0.457   6.815 -0.9523  0.4987 -0.0397
19032SOL     OW65873   0.799   1.484  11.254  0.3858 -0.1868  0.5975
19032SOL    HW165874   0.720   1.539  11.254 -0.6119 -1.5661  1.2104
19032SOL    HW265875   0.852   1.519  11.326 -0.1691  0.0708  0.8914
19033SOL     OW65876   4.694   3.172   0.038 -0.1250  0.7778 -0.3127
19033SOL    HW165877   4.768   3.128  -0.003 -2.6127 -2.4049 -1.8741
19033SOL    HW265878   4.679   3.249  -0.018  0.3934 -0.0519 -1.6586
19034SOL     OW65879  10.359   2.347   6.812 -0.3326  0.1927  0.3151
19034SOL    HW165880  10.318   2.416   6.865 -0.8641  0.5731 -0.5812
19034SOL    HW265881  10.369   2.274   6.873 -2.5387  0.0048  0.5132
19035SOL     OW65882   8.381   9.299   2.017  0.9898 -0.0918 -0.2397
19035SOL    HW165883   8.438   9.235   2.061 -1.2273 -1.2845  1.1100
19035SOL    HW265884   8.322   9.330   2.086 -0.2839  0.7414 -1.6328
19036SOL     OW65885   6.041   3.916  11.317  0.6472  0.1220  0.2503
19036SOL    HW165886   6.111   3.971  11.353  0.4764  1.3515 -1.2140
19036SOL    HW265887   5.981   3.903  11.391  2.1502 -0.5748  1.4163
19037SOL     OW65888   2.600   6.558   1.676 -0.3932  0.0559 -0.2553
19037SOL    HW165889   2.507   6.576   1.662 -0.8889 -2.0419  0.0895
19037SOL    HW265890   2.644   6.633   1.636 -2.2158  1.1618 -0.3299
19038SOL     OW65891   9.223   2.372   9.206 -0.1391  0.2779  0.0180
19038SOL    HW165892   9.154   2.414   9.257 -0.2717  1.6190 -1.1965
19038SOL    HW265893   9.296   2.434   9.208  1.4714 -1.5248  2.0907
19039SOL     OW65894   5.794   3.310   6.075  0.2829  0.7871 -0.6176
19039SOL    HW165895   5.748   3.292   6.157 -1.3355  0.3580 -1.5661
19039SOL    HW265896   5.887   3.304   6.097 -0.1255  0.0673  1.0433
19040SOL     OW65897   5.502   7.789   9.842 -0.1201 -0.6083  0.1246
19040SOL    HW165898   5.538   7.850   9.907 -0.2896  0.1950 -0.5208
19040SOL    HW265899   5.448   7.844   9.786 -3.1947 -1.9086  1.6091
19041SOL     OW65900   2.277   7.440   5.529 -0.2902  0.2460  0.6960
19041SOL    HW165901   2.201   7.485   5.494 -0.5526 -0.7655 -0.0907
19041SOL    HW265902   2.241   7.367   5.580  0.1257  0.7335  1.7125
19042SOL     OW65903   4.313   0.527  11.262  0.3744 -0.1544  0.0019
19042SOL    HW165904   4.369   0.476  11.321 -0.1267 -0.6512  0.0552
19042SOL    HW265905   4.368   0.545  11.186  0.8931  0.1335  0.4363
19043SOL     OW65906   0.620   0.268  12.364 -0.0796 -0.2522 -0.0721
19043SOL    HW165907   0.525   0.270  12.350 -0.3362  0.5723  1.5388
19043SOL    HW265908   0.632   0.207  12.436  0.7543 -1.2057 -0.9865
19044SOL     OW65909   1.408   7.096   6.934  0.0663 -0.1372 -0.6236
19044SOL    HW165910   1.402   7.001   6.917 -1.1714 -0.1162 -0.3539
19044SOL    HW265911   1.339   7.114   6.998  0.6858  0.8542 -0.2149
19045SOL     OW65912   6.741   8.769   9.749  0.2224  0.4268 -0.1220
19045SOL    HW165913   6.818   8.822   9.731 -0.6419  1.0488 -2.3464
19045SOL    HW265914   6.691   8.771   9.667 -1.7045 -0.7106  0.9528
19046SOL     OW65915   6.543   1.166   7.918 -0.2197 -0.2931 -0.0140
19046SOL    HW165916   6.462   1.186   7.966  1.1963  0.6319  2.1413
19046SOL    HW265917   6.522   1.186   7.827 -2.3235  0.2109  0.5242
19047SOL     OW65918   3.604   7.756   5.064 -0.1368  0.2325  0.2618
19047SOL    HW165919   3.520   7.763   5.020  0.2696 -0.0671 -0.5711
19047SOL    HW265920   3.615   7.662   5.080 -0.6965  0.3980  1.8537
19048SOL     OW65921   6.457  11.305   3.328  0.0902 -0.2057 -0.3345
19048SOL    HW165922   6.399  11.343   3.262 -2.4106 -0.3139  1.6530
19048SOL    HW265923   6.417  11.327   3.411  1.6084 -2.4286  1.0938
19049SOL     OW65924   9.989   9.560  11.336 -0.0673  0.2138  0.3753
19049SOL    HW165925  10.073   9.569  11.291  0.2541  0.6495  1.0443
19049SOL    HW265926   9.947   9.646  11.325  0.4835  0.6953  1.8056
19050SOL     OW65927  10.951   4.904   4.285 -0.0055  0.3392  0.0712
19050SOL    HW165928  11.030   4.909   4.230 -0.1289 -0.3857 -0.1826
19050SOL    HW265929  10.895   4.974   4.252 -0.3095 -0.4321 -1.1118
19051SOL     OW65930   3.564  12.389   5.336 -0.5655  0.7071 -0.1929
19051SOL    HW165931   3.536  12.474   5.371 -1.0546  0.2925  0.4383
19051SOL    HW265932   3.658  12.387   5.352 -0.7942  0.4800  1.2517
19052SOL     OW65933  11.322   3.181   5.228  0.3409 -0.0978 -0.1306
19052SOL    HW165934  11.268   3.208   5.153 -0.9930  2.0694  1.5130
19052SOL    HW265935  11.330   3.086   5.218 -0.6261 -0.0091 -2.4677
19053SOL     OW65936  10.392   4.833   0.104 -0.3036  0.3880 -0.2520
19053SOL    HW165937  10.461   4.893   0.132  0.0228  0.6853 -1.6081
19053SOL    HW265938  10.323   4.890   0.069  0.1704  0.0055 -1.9161
19054SOL     OW65939   4.413   6.866   9.114 -0.4785 -0.3674  0.0784
19054SOL    HW165940   4.344   6.803   9.134  1.6700 -2.7677  0.4897
19054SOL    HW265941   4.432   6.852   9.021 -1.6238  1.4938 -0.4816
19055SOL     OW65942   7.465  11.306  12.080  0.5910 -0.8122 -0.0820
19055SOL    HW165943   7.560  11.296  12.077  0.9238  1.7568 -0.4492
19055SOL    HW265944   7.451  11.396  12.110 -1.6416 -0.1135 -2.7946
19056SOL     OW65945   3.422  10.367   1.068 -0.5350  1.0873  0.0746
19056SOL    HW165946   3.396  10.352   0.977 -0.2544 -0.7557  0.2512
19056SOL    HW265947   3.410  10.461   1.081 -0.5779  1.4001 -1.8584
19057SOL     OW65948  12.510  11.504   7.480 -0.1134  0.4329 -0.2429
19057SOL    HW165949  12.547  11.503   7.392  0.8556  0.4894  0.1580
19057SOL    HW265950  12.580  11.538   7.536 -1.0082  1.2183  0.4294
19058SOL     OW65951   4.179   4.214   9.582 -0.0567  0.3927  0.3949
19058SOL    HW165952   4.221   4.149   9.639  0.2332  1.4873  1.4566
19058SOL    HW265953   4.086   4.192   9.586  0.1208 -0.4192  0.1491
19059SOL     OW65954   4.543   3.762   5.019 -0.2680 -0.0101 -0.0660
19059SOL    HW165955   4.514   3.759   5.110 -1.6385  0.0133 -0.4792
19059SOL    HW265956   4.602   3.838   5.015 -1.2252  0.7879  0.5254
19060SOL     OW65957  11.676   6.764  10.725  0.0755 -0.4810  0.4269
19060SOL    HW165958  11.688   6.858  10.738  3.2061 -0.4026 -1.7217
19060SOL    HW265959  11.760   6.726  10.751 -0.4283 -2.4153 -0.5934
19061SOL     OW65960  12.379  10.341  11.051 -0.0313 -0.0318  0.4355
19061SOL    HW165961  12.474  10.349  11.059  0.0616 -1.9791  2.0178
19061SOL    HW265962  12.350  10.312  11.138 -1.6497 -2.8685 -0.9040
19062SOL     OW65963   8.127   5.643   0.980 -0.0553 -0.8727 -0.5916
19062SOL    HW165964   8.114   5.549   0.965  3.8018 -1.5044 -1.0524
19062SOL    HW265965   8.162   5.676   0.898 -1.6926  1.1484 -0.5594
19063SOL     OW65966   3.713   2.046   6.871  0.1516 -0.2925  0.0346
19063SOL    HW165967   3.761   2.103   6.931 -0.8646  1.2260 -0.5125
19063SOL    HW265968   3.721   1.959   6.908 -0.0073  0.5155  2.0869
19064SOL     OW65969   9.312   7.137   3.564  0.1236 -0.3124 -0.1482
19064SOL    HW165970   9.406   7.142   3.582 -0.0290 -1.8353  1.2859
19064SOL    HW265971   9.273   7.198   3.627  0.1679  0.9643 -1.3083
19065SOL     OW65972   5.231   7.494   6.501 -0.3130  0.2451  0.2697
19065SOL    HW165973   5.245   7.478   6.595 -2.8463 -1.7005  0.4133
19065SOL    HW265974   5.136   7.507   6.493 -0.7664 -3.3839 -2.4511
19066SOL     OW65975  11.810  12.345   7.318  0.1482  0.1377 -0.5457
19066SOL    HW165976  11.870  12.298   7.376  0.4624  0.8514 -0.2790
19066SOL    HW265977  11.851  12.431   7.306 -0.0940  0.1190 -1.5466
19067SOL     OW65978  10.746   0.814  10.740 -0.0982 -0.1173 -0.0774
19067SOL    HW165979  10.743   0.905  10.768  1.8062 -0.7800  2.6389
19067SOL    HW265980  10.831   0.804  10.698 -1.0891 -0.2679 -2.2201
19068SOL     OW65981   8.064  10.454  12.194 -0.1386  0.1024 -0.0358
19068SOL    HW165982   8.043  10.471  12.102 -0.3941 -0.2450 -0.0438
19068SOL    HW265983   8.158  10.474  12.201 -0.3803  1.3096 -0.0844
19069SOL     OW65984   1.213   6.832   6.602  0.2048  0.0898 -0.2892
19069SOL    HW165985   1.237   6.770   6.671  2.3717 -0.1099 -1.1420
19069SOL    HW265986   1.138   6.880   6.638 -0.1785 -1.5405  1.2537
19070SOL     OW65987   3.543  12.315   9.128  0.1790 -0.5820  0.5688
19070SOL    HW165988   3.621  12.283   9.174  1.0713  1.1192  0.2904
19070SOL    HW265989   3.577  12.368   9.057 -1.2078  1.6565  1.4846
19071SOL     OW65990   9.518   4.837  12.412  0.0018 -0.4390  0.0316
19071SOL    HW165991   9.461   4.855  12.338  1.1352 -0.7645 -0.9476
19071SOL    HW265992   9.570   4.761  12.385  1.8305  0.6428  0.3231
19072SOL     OW65993   0.265   4.403  10.064  0.6382  0.0872 -0.9044
19072SOL    HW165994   0.360   4.398  10.058  0.6671  1.3400 -2.1550
19072SOL    HW265995   0.234   4.376   9.978 -0.2868 -2.1763  0.0587
19073SOL     OW65996   8.960   9.142   3.149 -0.2807 -0.0777  0.2233
19073SOL    HW165997   8.874   9.148   3.106  0.2637  0.5891 -0.8160
19073SOL    HW265998   8.985   9.050   3.140 -0.0527  0.1026 -1.1692
19074SOL     OW65999  10.845   9.451  11.557  0.4756  0.3217  0.1242
19074SOL    HW166000  10.935   9.419  11.554  0.0220 -0.8946 -1.3037
19074SOL    HW266001  10.826   9.477  11.467 -0.8987 -0.2861  0.2194
19075SOL     OW66002  12.018   7.935   8.534  0.0542 -0.4242  0.5879
19075SOL    HW166003  11.927   7.962   8.531  0.0273 -0.5585 -1.4063
19075SOL    HW266004  12.033   7.891   8.450  1.7181 -1.1874  1.2292
19076SOL     OW66005   5.456   8.228   8.532 -0.3127 -0.4836  0.5150
19076SOL    HW166006   5.525   8.234   8.598 -0.1776  0.5842  0.2932
19076SOL    HW266007   5.489   8.164   8.469  0.1050 -0.5965  0.8459
19077SOL     OW66008   6.099   8.618  11.249  0.9042  0.1941  0.3838
19077SOL    HW166009   6.158   8.685  11.214 -0.2401  1.6370  1.1162
19077SOL    HW266010   6.025   8.617  11.187  1.2682 -1.0040 -0.0691
19078SOL     OW66011   1.639  10.741  11.382 -0.1325  0.5018  0.2378
19078SOL    HW166012   1.607  10.674  11.321 -0.4591  0.5750  0.3251
19078SOL    HW266013   1.559  10.779  11.420  0.0729 -0.7248  1.9999
19079SOL     OW66014   0.410  10.158   5.536 -0.0925  0.5533  0.1775
19079SOL    HW166015   0.440  10.072   5.566 -0.6296  0.8696  1.6991
19079SOL    HW266016   0.485  10.216   5.551 -0.6060  0.8645  1.7170
19080SOL     OW66017   9.230   0.881   3.489 -0.3944  0.1958 -0.1028
19080SOL    HW166018   9.295   0.915   3.428 -0.7326 -1.6369 -1.5495
19080SOL    HW266019   9.175   0.823   3.437 -1.8605 -0.0069  1.5613
19081SOL     OW66020  10.494   3.523   2.764  0.0677  0.5010  0.3400
19081SOL    HW166021  10.582   3.546   2.731 -0.0851  2.2953  1.0412
19081SOL    HW266022  10.435   3.545   2.692  0.0328  1.1363  0.5595
19082SOL     OW66023   2.242  10.472  12.435  0.2744  0.3455  0.4325
19082SOL    HW166024   2.205  10.539  12.378 -0.6336 -1.3288 -1.0566
19082SOL    HW266025   2.167  10.437  12.483  0.8288  0.7645  1.6626
19083SOL     OW66026   4.959   4.040   0.468 -0.6798 -0.5642 -0.6896
19083SOL    HW166027   5.026   3.992   0.517 -1.6940 -0.4275  0.9193
19083SOL    HW266028   4.880   3.986   0.477 -1.6537  0.9575  0.4980
19084SOL     OW66029   3.427   5.576   2.847  0.3797 -0.0928  0.3226
19084SOL    HW166030   3.452   5.524   2.770  0.0724  1.5295 -0.9358
19084SOL    HW266031   3.346   5.620   2.820  0.1610  0.3743  1.6688
19085SOL     OW66032   4.415  12.220   7.219 -0.5567 -0.3168 -0.3072
19085SOL    HW166033   4.401  12.308   7.182  1.2034  1.0255  1.9205
19085SOL    HW266034   4.510  12.214   7.228 -0.7667 -1.6722  1.3903
19086SOL     OW66035   2.220   1.291   7.172 -0.4090 -0.0163  0.5708
19086SOL    HW166036   2.294   1.315   7.227 -0.1080  1.7024 -0.5188
19086SOL    HW266037   2.246   1.207   7.133  1.0135  0.5790  0.1681
19087SOL     OW66038   8.626  10.047   3.817  0.0040 -0.1742 -0.2214
19087SOL    HW166039   8.550  10.092   3.782 -0.2458 -2.3923 -2.9664
19087SOL    HW266040   8.701  10.094   3.781 -0.2149 -0.8507 -1.6103
19088SOL     OW66041   4.716   3.745   9.344 -0.2587 -0.6844  0.1141
19088SOL    HW166042   4.704   3.821   9.401  0.2811 -0.6389  0.1764
19088SOL    HW266043   4.628   3.721   9.316 -0.3996  0.2473 -0.2759
19089SOL     OW66044   5.530  11.043   1.156 -0.4006  0.0109  0.4227
19089SOL    HW166045   5.518  10.956   1.194  0.0710  0.3192  1.3247
19089SOL    HW266046   5.470  11.046   1.082 -1.5681 -0.5172  1.3236
19090SOL     OW66047  12.178   2.876   0.547 -0.0751 -0.2318  0.4422
19090SOL    HW166048  12.148   2.785   0.548  0.8368 -0.5923 -1.4785
19090SOL    HW266049  12.142   2.912   0.466  1.2160  0.5117  0.1735
19091SOL     OW66050   9.663   7.738   4.539  0.0212 -0.3397  0.5709
19091SOL    HW166051   9.609   7.791   4.598  0.0383 -1.2472  1.4349
19091SOL    HW266052   9.749   7.780   4.541 -0.1440 -0.0040  0.6962
19092SOL     OW66053   4.008   4.445  10.886 -0.0320  0.3626 -0.3698
19092SOL    HW166054   4.052   4.496  10.818  0.9267 -1.0101 -0.8196
19092SOL    HW266055   3.942   4.505  10.922  0.2657  1.5164 -1.6587
19093SOL     OW66056   4.878   8.513   7.893  0.2299  0.0044 -0.0998
19093SOL    HW166057   4.957   8.458   7.894  0.8087  0.7938 -0.5640
19093SOL    HW266058   4.851   8.515   7.801  0.4296  0.7695 -0.1507
19094SOL     OW66059  11.266   4.152   7.354 -0.0539 -0.3200 -0.3887
19094SOL    HW166060  11.340   4.136   7.296 -0.4388  1.7213 -1.5493
19094SOL    HW266061  11.286   4.102   7.433  0.5169 -3.1785 -2.1980
19095SOL     OW66062   3.614   6.525   2.348  0.1353 -0.4343  0.4074
19095SOL    HW166063   3.555   6.588   2.389 -0.8936 -1.1555  0.0851
19095SOL    HW266064   3.694   6.529   2.400 -0.2757  0.3925  1.0003
19096SOL     OW66065   8.745   9.383  11.261  0.1552 -0.5092  0.4817
19096SOL    HW166066   8.708   9.323  11.326 -0.0463 -0.4702  0.4029
19096SOL    HW266067   8.670   9.416  11.213  0.3159 -0.6539  0.1230
19097SOL     OW66068   9.980   1.994  11.994 -0.2085 -0.8766  0.2578
19097SOL    HW166069   9.902   1.968  12.043  0.1268 -1.1610  0.6446
19097SOL    HW266070   9.964   2.086  11.970  1.0860  0.4626  3.8883
19098SOL     OW66071   0.950   6.426   2.771  0.1995 -0.3334  0.0412
19098SOL    HW166072   0.991   6.344   2.744 -1.3429 -1.1754  0.1399
19098SOL    HW266073   1.018   6.472   2.819  1.7927 -0.5544 -1.8640
19099SOL     OW66074  11.460   5.655   9.989  0.6297 -0.0761  0.5184
19099SOL    HW166075  11.511   5.603  10.052 -0.6451  0.3804  1.9614
19099SOL    HW266076  11.402   5.709  10.042 -0.6320  0.2017 -1.0534
19100SOL     OW66077   6.886   1.206  12.163  0.0189 -0.1983  0.2449
19100SOL    HW166078   6.853   1.117  12.181  2.0544 -1.6343 -2.4220
19100SOL    HW266079   6.952   1.220  12.231 -2.0971  0.4840  2.3008
19101SOL     OW66080   8.585   5.238  10.039 -0.5787  0.1601 -0.3345
19101SOL    HW166081   8.672   5.252  10.079 -0.4369 -1.4180 -0.0147
19101SOL    HW266082   8.571   5.316   9.985  0.3798  1.1478  0.7631
19102SOL     OW66083   7.939   7.050  11.903 -0.0448  0.0190 -0.2277
19102SOL    HW166084   7.903   7.029  11.817 -1.3469 -1.7890  0.7011
19102SOL    HW266085   8.007   6.984  11.917  1.2542  1.2570 -0.4835
19103SOL     OW66086   6.453   9.138   4.717 -0.2056  0.3798 -0.2114
19103SOL    HW166087   6.363   9.164   4.694 -0.5533 -0.5648  0.0471
19103SOL    HW266088   6.485   9.093   4.639  0.3697  1.4809 -0.6295
19104SOL     OW66089   1.714   5.131   7.660  0.3562 -0.0375 -0.0884
19104SOL    HW166090   1.623   5.105   7.675 -0.7331  2.1891 -2.2298
19104SOL    HW266091   1.732   5.195   7.730  0.4255 -0.7335  0.5444
19105SOL     OW66092   3.837   8.160   2.664 -0.4322 -0.2230 -0.0151
19105SOL    HW166093   3.764   8.157   2.726 -1.0007 -2.9932 -0.7174
19105SOL    HW266094   3.804   8.118   2.585  0.8950  1.4820 -1.5727
19106SOL     OW66095  12.109   6.540  11.515 -0.5568  0.3508  0.0818
19106SOL    HW166096  12.093   6.477  11.585  2.6352 -0.4737  0.2236
19106SOL    HW266097  12.166   6.606  11.556 -0.5861  1.1519 -1.1227
19107SOL     OW66098   6.114   9.343   1.629  0.1138  0.6449 -0.1286
19107SOL    HW166099   6.030   9.349   1.675  0.2499  2.0738 -0.0336
19107SOL    HW266100   6.171   9.296   1.690 -1.1048 -2.1526 -0.9788
19108SOL     OW66101   0.002  10.428   2.128 -0.8100 -0.1495  0.7633
19108SOL    HW166102   0.019  10.387   2.043 -0.6591 -2.4500  1.8332
19108SOL    HW266103  -0.076  10.384   2.162 -2.4303  2.5141  0.7938
19109SOL     OW66104  11.960  10.405   9.799 -0.4318 -0.5461 -0.2214
19109SOL    HW166105  11.911  10.325   9.819 -1.9770  0.8022  1.7485
19109SOL    HW266106  11.894  10.475   9.801  1.3801  1.2752  2.0062
19110SOL     OW66107   5.814   4.332   1.878  0.4485 -0.0067  0.0374
19110SOL    HW166108   5.739   4.359   1.930  0.1867 -1.3415  0.3680
19110SOL    HW266109   5.827   4.240   1.899 -0.1105 -0.8245 -2.7762
19111SOL     OW66110   6.664   9.702   8.150 -0.1657  0.0151  0.6710
19111SOL    HW166111   6.592   9.672   8.206 -0.7421 -0.4646 -0.3003
19111SOL    HW266112   6.738   9.711   8.209 -0.7908 -0.3693  1.5349
19112SOL     OW66113   3.783   3.044   9.935  0.1414  0.4073 -0.0498
19112SOL    HW166114   3.786   3.139   9.939  0.4453  0.4189 -0.4603
19112SOL    HW266115   3.769   3.024   9.842 -0.8899  0.0690  0.1669
19113SOL     OW66116   4.252   0.067   6.188 -0.1130  0.2763  0.0576
19113SOL    HW166117   4.283   0.130   6.253  1.9916 -0.0604 -0.5342
19113SOL    HW266118   4.332   0.023   6.158 -1.3772 -1.8966 -0.3565
19114SOL     OW66119   5.552   6.596   6.305 -0.7824 -0.4289  0.0293
19114SOL    HW166120   5.570   6.502   6.299 -0.3573 -0.4578  1.4265
19114SOL    HW266121   5.475   6.602   6.361 -2.4252 -0.0399 -2.1402
19115SOL     OW66122   5.875  10.895   8.611  0.7478 -0.1394  0.3616
19115SOL    HW166123   5.789  10.872   8.646  1.3166  0.3253  2.1635
19115SOL    HW266124   5.926  10.923   8.687  2.1140  0.8147 -0.8397
19116SOL     OW66125   3.401  10.965   2.761 -0.0996 -0.2467  0.4481
19116SOL    HW166126   3.398  10.870   2.748  1.3573 -0.2686  0.0459
19116SOL    HW266127   3.373  11.002   2.678 -0.7784 -0.3181  0.6418
19117SOL     OW66128   0.664   6.143  12.316  0.7914  0.4825  0.1161
19117SOL    HW166129   0.685   6.119  12.225  0.4976  0.9728 -0.0818
19117SOL    HW266130   0.726   6.213  12.336  0.7171  0.5142  0.2281
19118SOL     OW66131   9.098  10.628   2.177 -0.5383 -0.5717 -0.6306
19118SOL    HW166132   9.016  10.585   2.155 -1.0272 -0.5221  0.9516
19118SOL    HW266133   9.103  10.703   2.118 -2.4010  0.2872  0.2348
19119SOL     OW66134   9.121   3.021   5.868  0.3824 -0.3794  0.4858
19119SOL    HW166135   9.047   2.961   5.866  1.5050 -1.9034  1.5732
19119SOL    HW266136   9.092   3.094   5.923 -1.3279  0.6216 -1.6131
19120SOL     OW66137   5.641   5.828   7.502  0.3318 -0.1565 -0.2737
19120SOL    HW166138   5.721   5.850   7.455  0.6806 -1.3551 -0.2676
19120SOL    HW266139   5.577   5.893   7.473  0.5250 -0.8827 -2.4368
19121SOL     OW66140   5.263   5.239   3.549 -0.3710  0.0160 -0.4704
19121SOL    HW166141   5.232   5.321   3.588  1.2446 -0.3507  1.7282
19121SOL    HW266142   5.291   5.186   3.623  0.1759 -1.8970 -1.9699
19122SOL     OW66143   1.280  10.501  11.388  0.6632  0.2755 -0.0806
19122SOL    HW166144   1.331  10.528  11.464 -0.2200 -0.8071  0.9300
19122SOL    HW266145   1.344  10.457  11.332  1.0056 -0.4157  0.8241
19123SOL     OW66146   6.286   2.823  11.589 -0.3420  0.1735 -0.0829
19123SOL    HW166147   6.205   2.772  11.593  0.6016 -1.5808 -1.5629
19123SOL    HW266148   6.352   2.765  11.629  0.5436  0.7526 -0.6868
19124SOL     OW66149   0.507   6.483   5.676 -0.7015  0.2010  0.0088
19124SOL    HW166150   0.537   6.515   5.761 -0.6442 -1.0620  0.4845
19124SOL    HW266151   0.582   6.435   5.640 -0.7321  0.7067 -0.7540
19125SOL     OW66152   8.673   3.164   0.524  0.2566 -0.1712 -0.3784
19125SOL    HW166153   8.723   3.206   0.593  0.9880 -1.9215  0.1915
19125SOL    HW266154   8.719   3.187   0.443 -0.2822  1.4106 -0.2678
19126SOL     OW66155   9.003   0.755   9.167  0.7603 -0.3451  0.0038
19126SOL    HW166156   8.921   0.796   9.142  1.0101  0.7382  0.9084
19126SOL    HW266157   9.019   0.690   9.099 -0.7417 -0.4417 -0.2843
19127SOL     OW66158   2.976   9.122   4.308 -0.2607 -0.4372  0.6547
19127SOL    HW166159   2.892   9.112   4.354 -1.2961  1.1013 -0.7726
19127SOL    HW266160   3.008   9.208   4.335  0.9032 -1.0211  1.2015
19128SOL     OW66161   4.212   6.890  10.522 -0.5752 -0.1147 -0.1632
19128SOL    HW166162   4.207   6.970  10.574  1.1910  0.8524 -1.3818
19128SOL    HW266163   4.184   6.916  10.434  0.2350 -0.7631 -0.6290
19129SOL     OW66164  11.484   3.507   4.990  0.5711 -0.3273 -0.2904
19129SOL    HW166165  11.484   3.522   5.085  2.2999 -1.6875 -0.0345
19129SOL    HW266166  11.576   3.504   4.966  0.1880 -1.4300 -1.7723
19130SOL     OW66167   1.682   0.892   9.320 -0.4155  0.0996 -0.5026
19130SOL    HW166168   1.599   0.897   9.368 -2.0809 -0.9114 -3.0225
19130SOL    HW266169   1.686   0.974   9.271  0.7700  0.6921  0.5215
19131SOL     OW66170   3.655   8.630   7.881  0.3362  0.5030  0.4184
19131SOL    HW166171   3.607   8.572   7.821  1.5825  2.1372 -2.3510
19131SOL    HW266172   3.643   8.590   7.967  0.5482 -3.4928 -1.1696
19132SOL     OW66173   4.164  12.293   7.574  0.0479 -0.4493 -0.2285
19132SOL    HW166174   4.119  12.217   7.611 -2.8770 -0.0326 -2.6474
19132SOL    HW266175   4.102  12.365   7.582  0.1415  0.1855 -3.6233
19133SOL     OW66176   1.587   2.953   2.515 -0.2626  0.3955 -0.1276
19133SOL    HW166177   1.519   2.961   2.582  0.1070 -0.0179  0.3028
19133SOL    HW266178   1.586   2.860   2.491  0.8786  0.1682  0.6554
19134SOL     OW66179   7.703   0.066   3.502  0.1930  0.4481 -0.7042
19134SOL    HW166180   7.675   0.156   3.520 -0.2169  0.2379 -0.2692
19134SOL    HW266181   7.651   0.040   3.426 -0.4279  0.2349 -0.2118
19135SOL     OW66182  10.160   7.138   5.404 -0.2161 -0.1040 -0.4740
19135SOL    HW166183  10.130   7.075   5.338 -1.1336  0.9707 -1.1218
19135SOL    HW266184  10.251   7.153   5.382  0.2567 -1.7567  0.1653
19136SOL     OW66185   5.050   7.765   9.805 -0.1848  0.3247 -0.0909
19136SOL    HW166186   5.086   7.715   9.878 -1.2151 -0.9582 -0.4177
19136SOL    HW266187   5.048   7.856   9.836  3.0777  0.4836 -0.0043
19137SOL     OW66188   9.818   3.082   1.069 -0.0326  0.2182  0.6390
19137SOL    HW166189   9.723   3.090   1.068 -0.0617  0.0172  1.2143
19137SOL    HW266190   9.840   3.040   0.986 -0.3601  1.0652  0.1186
19138SOL     OW66191  11.672   1.882   0.775  0.1485 -0.1783  0.3253
19138SOL    HW166192  11.589   1.834   0.775  0.7106 -1.1568 -0.3587
19138SOL    HW266193  11.723   1.843   0.846  0.5236 -0.4517 -0.0918
19139SOL     OW66194   9.755   2.152   8.487  0.0342 -0.4437 -0.2041
19139SOL    HW166195   9.781   2.216   8.553  0.8221 -1.1817  0.2197
19139SOL    HW266196   9.693   2.094   8.532 -0.6479 -0.0190 -0.5756
19140SOL     OW66197  10.028   0.872   2.502  0.4590  0.1324 -0.5509
19140SOL    HW166198  10.040   0.932   2.429 -0.1391  1.0542  0.0941
19140SOL    HW266199  10.026   0.928   2.580 -2.1590 -0.4570 -0.0969
19141SOL     OW66200  11.291   6.455   1.986  0.4609 -0.2963 -0.7400
19141SOL    HW166201  11.345   6.506   1.925 -1.4748  1.9667 -0.7485
19141SOL    HW266202  11.327   6.476   2.072 -0.0526  0.8247 -0.7759
19142SOL     OW66203  11.332   0.205   2.481 -0.0880  0.3976 -0.0080
19142SOL    HW166204  11.361   0.114   2.477 -0.6497  0.0934  1.8414
19142SOL    HW266205  11.345   0.231   2.572 -3.6370  0.8598  0.5180
19143SOL     OW66206   0.863   4.607   4.151  0.6740 -0.1272 -0.6412
19143SOL    HW166207   0.885   4.519   4.180  2.2854  0.7450  1.0236
19143SOL    HW266208   0.890   4.610   4.060  0.5933 -1.3384 -0.7239
19144SOL     OW66209   0.875   0.595   7.346 -0.2140  0.4759  0.1298
19144SOL    HW166210   0.818   0.520   7.329 -1.3047  1.3323 -0.1231
19144SOL    HW266211   0.849   0.626   7.432 -0.1984  0.9232 -0.0214
19145SOL     OW66212   6.455   6.793   9.974  0.0943  0.6476  0.3164
19145SOL    HW166213   6.469   6.794  10.068 -1.0596  1.0564  0.4992
19145SOL    HW266214   6.361   6.807   9.963 -0.0241 -0.7195 -0.8419
19146SOL     OW66215  10.194   9.483   3.538 -0.2834  0.3797 -0.0009
19146SOL    HW166216  10.111   9.435   3.543 -0.0681  0.1041  3.5875
19146SOL    HW266217  10.260   9.415   3.524 -0.3377  0.0351  1.2639
19147SOL     OW66218  10.055   5.426  12.246  0.2177  0.3325 -0.7293
19147SOL    HW166219  10.032   5.401  12.156 -2.6194 -1.9369  0.4669
19147SOL    HW266220  10.032   5.519  12.252 -2.1273 -0.1101 -1.7065
19148SOL     OW66221   9.189   2.429   5.454  0.4581  0.0459 -0.4768
19148SOL    HW166222   9.228   2.509   5.489  1.6127 -1.7365  2.7951
19148SOL    HW266223   9.252   2.360   5.475 -1.7407 -2.1268 -0.4682
19149SOL     OW66224  10.871   1.360   7.330  0.0437 -0.4059 -0.0145
19149SOL    HW166225  10.858   1.379   7.238 -1.0268  0.1663  0.2425
19149SOL    HW266226  10.885   1.446   7.371 -0.7949 -0.5192  0.5434
19150SOL     OW66227   9.838   0.264   7.861  0.2624  0.2207 -0.4033
19150SOL    HW166228   9.860   0.330   7.927 -0.2644  1.0581 -1.0431
19150SOL    HW266229   9.744   0.276   7.847  0.0357 -1.1013 -0.0703
19151SOL     OW66230   4.765   7.726  11.841 -0.7025  0.1750  0.2659
19151SOL    HW166231   4.848   7.774  11.834 -1.1696  0.9158 -0.4501
19151SOL    HW266232   4.772   7.678  11.923  1.0305 -0.9416 -0.4709
19152SOL     OW66233   3.657  10.786   2.991  0.0308  0.6415 -0.3752
19152SOL    HW166234   3.562  10.775   2.990 -0.3538  3.1838  0.9030
19152SOL    HW266235   3.690  10.708   3.035 -1.4454 -0.2934 -0.8577
19153SOL     OW66236   5.443   6.760   0.567  0.4450 -0.3338 -0.3493
19153SOL    HW166237   5.519   6.747   0.511 -0.2463 -2.2125 -0.9553
19153SOL    HW266238   5.442   6.684   0.625  0.6509  1.1392  1.6817
19154SOL     OW66239   2.158   8.676   1.152 -0.6781 -0.0120 -0.6261
19154SOL    HW166240   2.252   8.693   1.157 -0.6009 -0.3603 -0.8334
19154SOL    HW266241   2.147   8.624   1.072 -1.0568  0.0915 -0.6441
19155SOL     OW66242   1.665   6.464   5.698  0.8612 -0.5457 -0.6292
19155SOL    HW166243   1.748   6.512   5.699  0.5067  0.1089 -1.6348
19155SOL    HW266244   1.620   6.493   5.778  0.7194  0.7095 -1.1381
19156SOL     OW66245  11.962   0.839   4.915 -0.6818 -0.4237  0.5432
19156SOL    HW166246  11.893   0.886   4.961 -1.2638 -2.6298  2.0861
19156SOL    HW266247  11.925   0.753   4.897 -0.0924 -0.0702 -3.2761
19157SOL     OW66248   0.298   1.600   9.838 -0.0414 -0.3337  0.1776
19157SOL    HW166249   0.262   1.651   9.766  0.1298 -0.8752 -0.2986
19157SOL    HW266250   0.384   1.572   9.807 -0.3153 -1.2924  0.2424
19158SOL     OW66251   0.232   5.505   7.941 -0.0480  0.1253 -0.3056
19158SOL    HW166252   0.148   5.485   7.983 -0.4802 -0.5182 -1.4067
19158SOL    HW266253   0.245   5.598   7.957  0.1810 -0.2394  1.8385
19159SOL     OW66254   2.226   1.414   5.519  0.3151 -0.2803 -0.2109
19159SOL    HW166255   2.182   1.483   5.470  0.8814 -0.7286 -1.3951
19159SOL    HW266256   2.293   1.381   5.459 -0.5770 -2.5359 -0.0797
19160SOL     OW66257   0.805  11.912  10.360  0.0473 -0.0924 -0.2728
19160SOL    HW166258   0.838  11.934  10.273 -2.4812  2.1527 -0.7824
19160SOL    HW266259   0.883  11.884  10.408  1.5904 -0.9972 -3.0721
19161SOL     OW66260  10.697   5.040  10.390 -0.0276  0.4808  0.2727
19161SOL    HW166261  10.758   4.971  10.417 -1.4560 -0.0784  2.2998
19161SOL    HW266262  10.680   5.090  10.470 -1.9749  0.8026 -0.3024
19162SOL     OW66263   1.430   0.057   7.938 -0.5284 -0.0901 -0.0685
19162SOL    HW166264   1.505   0.006   7.909 -1.3231 -1.4093  0.0982
19162SOL    HW266265   1.377  -0.005   7.988 -2.0445  0.6223 -0.7209
19163SOL     OW66266   9.507   3.409   4.360  0.1489  0.4816  0.0112
19163SOL    HW166267   9.456   3.343   4.407  0.7749  0.0773  0.1341
19163SOL    HW266268   9.442   3.462   4.314 -0.3456 -0.5306 -0.4873
19164SOL     OW66269  12.296   5.797   5.131 -0.0579 -0.7727 -0.2621
19164SOL    HW166270  12.253   5.813   5.047 -0.7069 -0.0038  0.2044
19164SOL    HW266271  12.358   5.869   5.141 -2.0909  0.8851  1.2595
19165SOL     OW66272  12.611  11.039  11.363  0.2017  0.3287  0.4429
19165SOL    HW166273  12.706  11.049  11.353  0.2782 -0.8383 -0.2920
19165SOL    HW266274  12.574  11.078  11.284  0.2124 -0.8179 -0.1604
19166SOL     OW66275   1.275   4.678  11.065 -0.5145  0.6826 -0.1278
19166SOL    HW166276   1.339   4.652  11.131  0.0623  0.5154 -0.7384
19166SOL    HW266277   1.275   4.606  11.002 -2.3795 -0.0041  0.6044
19167SOL     OW66278   4.478  11.287   1.112  0.4799 -0.9137 -0.1373
19167SOL    HW166279   4.446  11.291   1.202  1.3605  0.3036  0.1508
19167SOL    HW266280   4.509  11.197   1.102  1.0513 -0.8759  1.0362
19168SOL     OW66281   7.234   0.717   2.100  0.1937 -0.6481  0.0133
19168SOL    HW166282   7.279   0.801   2.093  0.3146 -0.8124 -1.3982
19168SOL    HW266283   7.149   0.738   2.139  0.5631 -0.0040  0.4802
19169SOL     OW66284  10.805  11.200   8.612  0.1170  0.4066 -0.0122
19169SOL    HW166285  10.833  11.183   8.702  0.6587 -1.2985 -0.4636
19169SOL    HW266286  10.793  11.113   8.574  0.0344  1.0941 -1.6365
19170SOL     OW66287  10.970   9.924   3.251 -0.2888  0.0994 -0.5003
19170SOL    HW166288  11.052   9.928   3.201 -0.7942  0.6864 -1.3162
19170SOL    HW266289  10.909   9.979   3.201 -1.1102 -0.1287  0.2267
19171SOL     OW66290  11.693  11.073   2.295 -0.0852  0.1102  0.1317
19171SOL    HW166291  11.731  11.012   2.358  0.6959  0.3741 -0.0714
19171SOL    HW266292  11.689  11.157   2.341 -1.1069 -0.0675  0.3932
19172SOL     OW66293  12.197   2.694   1.530  0.3596 -0.0095 -0.3362
19172SOL    HW166294  12.150   2.670   1.450  0.7604 -0.6994 -0.3732
19172SOL    HW266295  12.261   2.624   1.542  0.7910  0.4628  0.1926
19173SOL     OW66296   4.832   9.166   0.230 -0.3886 -0.1083  0.2002
19173SOL    HW166297   4.922   9.133   0.226 -0.0127  0.9703 -2.9306
19173SOL    HW266298   4.778   9.087   0.223  0.2471 -0.7212  1.6035
19174SOL     OW66299   2.765  12.524   0.763 -0.0766 -0.4741  0.3047
19174SOL    HW166300   2.714  12.595   0.724 -1.4904 -1.1698  0.8509
19174SOL    HW266301   2.856  12.546   0.741 -0.6355  0.4229 -1.2924
19175SOL     OW66302   8.517   0.056   3.013 -0.1456 -0.1260 -0.1254
19175SOL    HW166303   8.566  -0.025   2.997 -1.4450 -1.2661  1.2516
19175SOL    HW266304   8.479   0.078   2.929  0.4696 -0.7909 -0.5955
19176SOL     OW66305   4.034  10.505  12.180  0.2227  0.3376 -0.7264
19176SOL    HW166306   4.032  10.427  12.124  2.6006  2.1359 -3.6587
19176SOL    HW266307   4.121  10.502  12.220 -1.2031 -0.5687  2.6540
19177SOL     OW66308   9.120   5.555  10.266  0.1307 -0.0294  0.3483
19177SOL    HW166309   9.107   5.583  10.356  0.2393  0.9637  0.0685
19177SOL    HW266310   9.210   5.580  10.245 -0.3910  1.2246 -0.5315
19178SOL     OW66311  11.555   1.829   4.281 -0.4164 -0.0361  0.2023
19178SOL    HW166312  11.518   1.740   4.278  0.8488 -0.5827  0.4349
19178SOL    HW266313  11.608   1.836   4.201 -0.9035  0.7060 -0.0707
19179SOL     OW66314   2.336   1.083   1.999  0.1879  0.1824  0.2270
19179SOL    HW166315   2.387   1.152   2.042  0.6664  1.7603 -2.6041
19179SOL    HW266316   2.254   1.125   1.974  0.1696 -0.4536 -0.8638
19180SOL     OW66317   2.929   7.905   3.039  0.1254 -0.3455 -0.0960
19180SOL    HW166318   2.857   7.858   3.081 -0.0293  0.4490  0.5585
19180SOL    HW266319   2.905   7.997   3.047  0.7915 -0.1143 -0.6639
19181SOL     OW66320  10.252   1.574   0.649  0.9625 -0.3616 -0.2938
19181SOL    HW166321  10.225   1.666   0.657  1.1079 -0.3143 -0.3522
19181SOL    HW266322  10.181   1.525   0.691 -0.6683 -0.4436 -2.9122
19182SOL     OW66323   8.110   1.302  10.899  0.0275  0.1656 -0.1001
19182SOL    HW166324   8.173   1.249  10.849 -1.2912 -0.4403 -1.1874
19182SOL    HW266325   8.083   1.371  10.838  0.1135  0.8282  0.5883
19183SOL     OW66326  11.309   3.028   9.565  0.3975  0.5457  0.0556
19183SOL    HW166327  11.255   3.011   9.488  0.5668  0.7913 -0.1191
19183SOL    HW266328  11.248   3.024   9.638  0.4051 -0.7057  0.0212
19184SOL     OW66329  11.952   9.326   6.575  0.1820  0.1564  0.7120
19184SOL    HW166330  12.015   9.339   6.646 -0.9603 -1.6494  2.1296
19184SOL    HW266331  11.872   9.370   6.606  0.2875  1.2763 -0.4859
19185SOL     OW66332   7.271  10.576   2.173  0.2711  0.2938  0.3588
19185SOL    HW166333   7.306  10.493   2.204 -1.7217 -0.6561  0.2374
19185SOL    HW266334   7.291  10.577   2.079 -2.2470 -1.5155 -0.2816
19186SOL     OW66335   1.622   8.886   9.457 -0.2486  0.3902 -0.3557
19186SOL    HW166336   1.615   8.811   9.516  0.8883 -0.7683 -1.6278
19186SOL    HW266337   1.613   8.962   9.514 -0.6544 -0.6904  1.0858
19187SOL     OW66338   9.929   3.796   2.479  0.5395 -0.3159  0.1992
19187SOL    HW166339   9.873   3.858   2.526 -0.6209 -0.3124 -1.0976
19187SOL    HW266340   9.913   3.712   2.522  0.0554 -0.1859  0.2809
19188SOL     OW66341  12.604   5.841   2.862  0.7106 -0.3362  0.1897
19188SOL    HW166342  12.677   5.872   2.810  1.8120 -1.3363  1.0847
19188SOL    HW266343  12.526   5.878   2.820  1.6651  0.0439 -1.2774
19189SOL     OW66344   3.379   8.191   2.485 -0.6924  0.2018 -0.3763
19189SOL    HW166345   3.394   8.251   2.413 -1.5356  1.3129  0.3356
19189SOL    HW266346   3.351   8.109   2.444 -1.6779  0.9832 -1.2819
19190SOL     OW66347  11.290   5.475  12.260 -0.2704 -0.5547 -0.3105
19190SOL    HW166348  11.207   5.426  12.259 -0.1379 -0.9103  1.7348
19190SOL    HW266349  11.357   5.407  12.269  0.0659 -0.1276  0.4469
19191SOL     OW66350   9.077   4.042   9.689 -0.5505 -0.6528  0.1064
19191SOL    HW166351   9.167   4.019   9.667 -0.1690  0.6254  0.2318
19191SOL    HW266352   9.024   3.975   9.647  0.5454 -2.6465  1.7496
19192SOL     OW66353   1.410  12.388   1.719 -0.3383  0.2682  0.2093
19192SOL    HW166354   1.486  12.332   1.735 -0.0518  0.4160 -0.5944
19192SOL    HW266355   1.337  12.328   1.711 -0.7984  0.2223  3.4126
19193SOL     OW66356   1.078   9.953   8.380 -0.3210 -0.1043  0.2516
19193SOL    HW166357   1.149  10.016   8.368  0.4595 -0.7919  1.1316
19193SOL    HW266358   1.095   9.913   8.465 -1.1873 -1.0207  0.0155
19194SOL     OW66359  10.023   7.497   4.559 -0.2052 -0.2920  0.0090
19194SOL    HW166360   9.942   7.502   4.608 -1.0252 -0.8096 -1.2420
19194SOL    HW266361  10.005   7.434   4.489  0.1927  1.9151 -2.2125
19195SOL     OW66362   1.705   2.549  10.227  0.5435  0.1404 -0.6402
19195SOL    HW166363   1.729   2.464  10.192  1.6517 -0.9451  2.4005
19195SOL    HW266364   1.765   2.611  10.186  0.5691 -0.7240 -1.9374
19196SOL     OW66365  10.765   7.534   1.095 -0.1336 -0.7946  0.0577
19196SOL    HW166366  10.689   7.475   1.092 -0.4431 -0.4876  1.4231
19196SOL    HW266367  10.773   7.567   1.005 -0.9992 -1.5956 -0.3311
19197SOL     OW66368   9.253   6.007   2.216  0.3199  0.6936  0.5698
19197SOL    HW166369   9.247   5.993   2.310 -0.5966 -0.1734  0.3890
19197SOL    HW266370   9.163   6.005   2.185  0.6646  0.0924 -0.4484
19198SOL     OW66371  11.860   9.048   7.226 -0.5128 -1.0098  0.2055
19198SOL    HW166372  11.836   9.095   7.145 -1.3265 -0.5224  0.7139
19198SOL    HW266373  11.954   9.063   7.235 -0.3062 -1.4749 -0.8984
19199SOL     OW66374   5.659   0.179  11.966 -0.4380 -0.2836  0.0027
19199SOL    HW166375   5.629   0.246  11.905  1.9556  1.2033  0.3079
19199SOL    HW266376   5.699   0.112  11.911  2.3554  1.3858 -0.2054
19200SOL     OW66377   9.129  10.308   0.141 -0.1724 -0.6997 -0.4645
19200SOL    HW166378   9.193  10.265   0.198  0.7865 -0.7107 -1.5131
19200SOL    HW266379   9.150  10.276   0.053 -2.5813 -1.8960 -0.6946
19201SOL     OW66380   4.771   4.689   3.602 -0.2424 -0.2057  0.3275
19201SOL    HW166381   4.776   4.715   3.694  3.0260 -1.4124  0.5933
19201SOL    HW266382   4.790   4.770   3.554  0.3008 -0.0427  0.8026
19202SOL     OW66383  10.852   0.471  11.784  0.1397 -0.2594 -0.3681
19202SOL    HW166384  10.916   0.536  11.810  0.6495 -0.5615 -0.8445
19202SOL    HW266385  10.773   0.494  11.833  0.5743  0.1769  0.1405
19203SOL     OW66386   8.221  12.534  11.821 -0.9981 -0.6889 -0.5222
19203SOL    HW166387   8.257  12.446  11.818  2.7630  0.5124  1.7293
19203SOL    HW266388   8.188  12.544  11.910  0.6771  0.7587 -0.0028
19204SOL     OW66389  10.801  10.365   9.860  0.2875  0.6143  0.2507
19204SOL    HW166390  10.880  10.332   9.903  0.3634  1.5708  0.8803
19204SOL    HW266391  10.742  10.387   9.931 -1.5138 -2.1790 -0.2047
19205SOL     OW66392  11.943  11.332   1.102  0.3855  0.4185 -0.5496
19205SOL    HW166393  11.895  11.415   1.093  0.7864  0.7975  0.5637
19205SOL    HW266394  12.017  11.340   1.042 -0.2030  0.3873 -1.2860
19206SOL     OW66395   0.531   1.437   0.764  0.6334  0.4098 -0.2177
19206SOL    HW166396   0.494   1.430   0.676 -0.5509 -1.3859  0.3590
19206SOL    HW266397   0.457   1.418   0.822  1.4718  1.2164  1.1560
19207SOL     OW66398   3.052  12.133   8.761  0.1317  0.0753 -0.4808
19207SOL    HW166399   3.105  12.119   8.840 -1.4884  0.4975  0.7489
19207SOL    HW266400   3.000  12.211   8.781 -1.0478 -0.3979 -1.5641
19208SOL     OW66401   8.666   2.701  11.831  0.6166 -0.2013 -0.2547
19208SOL    HW166402   8.634   2.790  11.843  2.5156  0.4940 -0.0464
19208SOL    HW266403   8.589   2.651  11.803 -0.5938  1.3747  0.1437
19209SOL     OW66404   1.612  10.455  11.778  0.4958  0.7032  0.0448
19209SOL    HW166405   1.671  10.476  11.705  3.8713  2.3989  2.9289
19209SOL    HW266406   1.648  10.375  11.816 -1.8365 -0.7480 -0.6417
19210SOL     OW66407   2.186   8.337   6.538  0.7154 -1.0110  0.6550
19210SOL    HW166408   2.179   8.418   6.588 -1.4862  1.2779 -2.8944
19210SOL    HW266409   2.278   8.334   6.511  0.2774  2.4337 -1.9773
19211SOL     OW66410   1.117   4.024   4.618 -0.5478 -0.2142  0.6836
19211SOL    HW166411   1.092   4.104   4.663  0.4178  0.6388 -0.2399
19211SOL    HW266412   1.167   4.053   4.542 -0.9192 -1.6632 -0.1657
19212SOL     OW66413   5.897   3.512   7.653  0.0907  0.2569  0.1245
19212SOL    HW166414   5.898   3.492   7.560 -0.2220 -0.1499  0.2058
19212SOL    HW266415   5.964   3.454   7.690  0.8118  1.0154  0.0405
19213SOL     OW66416  12.441   1.388   6.259 -0.4781  0.1893 -0.5899
19213SOL    HW166417  12.346   1.395   6.257 -0.5736 -0.1045  1.3888
19213SOL    HW266418  12.460   1.324   6.328  1.1499  0.0273 -1.1265
19214SOL     OW66419   2.687   5.685   3.166  0.4370 -0.3372  0.2630
19214SOL    HW166420   2.613   5.685   3.227 -0.7042 -0.1771 -1.0736
19214SOL    HW266421   2.763   5.663   3.220 -0.3135  1.0805  1.9934
19215SOL     OW66422  10.141  10.138  12.273  0.9740 -0.3168  0.2515
19215SOL    HW166423  10.202  10.174  12.337  0.7432  0.2471  0.1689
19215SOL    HW266424  10.071  10.100  12.325  0.5231  0.6059  0.3488
19216SOL     OW66425   7.486  10.922   4.981  0.6115 -0.3674  0.4710
19216SOL    HW166426   7.502  10.954   5.069 -1.5110 -0.5181  0.9765
19216SOL    HW266427   7.510  10.829   4.985  1.5946 -0.1231  0.5398
19217SOL     OW66428  12.364   3.297   7.971 -0.2469 -0.2632 -0.1875
19217SOL    HW166429  12.376   3.323   8.062 -0.8243  2.4781 -0.8146
19217SOL    HW266430  12.270   3.292   7.959 -0.1684 -0.9931 -0.5592
19218SOL     OW66431  11.206   4.264  11.104  0.5746  0.7165 -0.1737
19218SOL    HW166432  11.178   4.332  11.165 -1.1144  0.1634 -0.2728
19218SOL    HW266433  11.247   4.197  11.158 -0.4810  0.4481  0.3084
19219SOL     OW66434   5.093   0.272  11.238 -0.1604 -0.2479  0.8066
19219SOL    HW166435   5.016   0.324  11.216 -0.3145 -0.3418  1.1140
19219SOL    HW266436   5.093   0.201  11.174 -0.0839 -0.0033  0.5359
19220SOL     OW66437   6.710   6.822   5.539  0.3916 -0.5168 -0.4103
19220SOL    HW166438   6.658   6.743   5.524  0.5753 -0.4783 -1.3279
19220SOL    HW266439   6.658   6.874   5.600 -1.4862  0.2678 -2.5524
19221SOL     OW66440   2.692   3.608   8.040 -0.0548  0.1867 -0.1960
19221SOL    HW166441   2.616   3.552   8.022  0.1258  0.0688 -0.6029
19221SOL    HW266442   2.754   3.587   7.970  0.8569 -0.6363  0.8232
19222SOL     OW66443  12.223   1.405  11.543  0.8001  0.0640  0.0871
19222SOL    HW166444  12.149   1.360  11.584  1.0653  0.3443  0.9050
19222SOL    HW266445  12.291   1.406  11.611  1.7678 -0.6888 -0.8248
19223SOL     OW66446  11.496   4.237  12.220 -0.7264  0.8076 -0.0919
19223SOL    HW166447  11.580   4.251  12.176 -1.0677 -0.5557 -1.2691
19223SOL    HW266448  11.490   4.142  12.232 -1.6322  0.9713  0.9475
19224SOL     OW66449  10.731  12.431  12.388  0.0943  1.0043 -0.1898
19224SOL    HW166450  10.669  12.369  12.348 -0.3735 -0.4246  2.5012
19224SOL    HW266451  10.769  12.478  12.314 -1.3843 -0.7706 -2.2055
19225SOL     OW66452   7.464   5.216  12.097 -0.0685 -0.0820 -0.3665
19225SOL    HW166453   7.409   5.286  12.062 -1.8721 -1.1838  0.1200
19225SOL    HW266454   7.425   5.194  12.182  0.6026 -1.4905 -0.3865
19226SOL     OW66455   1.205  11.399   6.848  0.1111  0.0746  0.2929
19226SOL    HW166456   1.259  11.397   6.926 -0.5618 -1.3351  0.7503
19226SOL    HW266457   1.232  11.322   6.798 -0.0775  0.4755 -0.4444
19227SOL     OW66458  10.678   0.461   2.737  0.0712 -0.0696  0.6698
19227SOL    HW166459  10.672   0.489   2.828  0.1547 -0.1442  0.6977
19227SOL    HW266460  10.638   0.533   2.688 -1.6902 -0.8367  0.9022
19228SOL     OW66461   3.013   3.272   3.889  0.0005 -0.1833 -0.0797
19228SOL    HW166462   3.096   3.253   3.932  0.7949  0.5336 -1.2533
19228SOL    HW266463   2.962   3.192   3.898  0.5445 -0.4096  1.2334
19229SOL     OW66464   8.909  11.775   0.500  0.2405 -0.3325  0.1487
19229SOL    HW166465   8.981  11.837   0.490 -0.0180 -0.3070 -2.0314
19229SOL    HW266466   8.890  11.745   0.411 -0.7176 -2.3288  0.9548
19230SOL     OW66467   0.532   6.942   6.612 -0.7265 -0.0936  0.1769
19230SOL    HW166468   0.455   6.886   6.623 -1.1814  0.5799  0.5130
19230SOL    HW266469   0.540   6.988   6.696 -0.9816  1.1117 -0.4318
19231SOL     OW66470  10.353   8.430  10.738 -0.1607  0.3177 -0.2449
19231SOL    HW166471  10.344   8.365  10.668 -0.7036  0.8660 -0.6854
19231SOL    HW266472  10.405   8.501  10.700  0.1877  0.2844  0.1493
19232SOL     OW66473   0.049  12.289   0.098 -0.2432 -0.2769  0.3332
19232SOL    HW166474  -0.046  12.287   0.108 -0.1397  1.6846  2.6363
19232SOL    HW266475   0.079  12.345   0.170  2.6126 -0.3085 -0.7266
19233SOL     OW66476   6.771   1.426   8.301 -0.8236  0.1366 -0.4428
19233SOL    HW166477   6.813   1.398   8.219 -2.9153  3.7907 -3.0700
19233SOL    HW266478   6.842   1.461   8.354  0.3096 -0.1946 -1.6780
19234SOL     OW66479   0.682   9.412   5.718  0.5563 -0.1372  0.3841
19234SOL    HW166480   0.604   9.460   5.744  0.7080  0.9013 -0.9413
19234SOL    HW266481   0.737   9.410   5.797  0.6579  2.1520  0.4508
19235SOL     OW66482   8.193   0.935  11.710  0.2546  0.2380 -0.2337
19235SOL    HW166483   8.248   1.010  11.687  0.9183  0.2443  1.2563
19235SOL    HW266484   8.185   0.885  11.629  0.1477  1.6874 -1.1562
19236SOL     OW66485   6.360   6.345   2.286  0.2254  0.2655  0.7238
19236SOL    HW166486   6.304   6.378   2.216  0.5918  1.0928  0.8112
19236SOL    HW266487   6.449   6.371   2.261  0.5099 -0.5133  0.8843
19237SOL     OW66488   2.432  10.428   4.037 -0.3611 -0.1159  0.2940
19237SOL    HW166489   2.367  10.418   3.968 -0.8277  0.4920  0.6342
19237SOL    HW266490   2.425  10.520   4.063  0.0211 -0.2635  0.9387
19238SOL     OW66491  12.555   9.635   1.713  0.1237  0.2639  0.4197
19238SOL    HW166492  12.482   9.680   1.671  0.0963  0.5283  0.7546
19238SOL    HW266493  12.617   9.704   1.737  0.1585  0.1096  0.7830
19239SOL     OW66494   2.988   4.489   3.228  0.4663  0.3121 -0.6213
19239SOL    HW166495   2.923   4.485   3.298  2.4654  0.4438  1.3650
19239SOL    HW266496   2.978   4.407   3.180 -0.5751 -0.0547  0.1909
19240SOL     OW66497   9.986   4.071   5.795  0.6916 -0.4535 -0.5506
19240SOL    HW166498  10.066   4.118   5.817  0.3706 -0.7438  1.4554
19240SOL    HW266499   9.918   4.113   5.848 -0.4897 -0.2571 -2.1601
19241SOL     OW66500   9.362   3.579   3.315 -0.3648  0.6475  0.8875
19241SOL    HW166501   9.271   3.592   3.290  0.2215  0.7750 -1.4615
19241SOL    HW266502   9.363   3.498   3.365 -1.8529  1.0402  1.5827
19242SOL     OW66503   4.809  10.358   6.790 -0.1605  0.1172 -1.0239
19242SOL    HW166504   4.887  10.408   6.766  0.3915  0.3654  1.1414
19242SOL    HW266505   4.748  10.424   6.822  0.1552 -0.4439  0.8096
19243SOL     OW66506   8.818   7.500   8.167 -0.1037 -0.1178  0.1683
19243SOL    HW166507   8.913   7.499   8.177 -0.1117 -1.8364  0.3862
19243SOL    HW266508   8.799   7.582   8.122  1.5479 -0.0307 -0.4204
19244SOL     OW66509   1.148  10.836  10.946 -0.4809 -0.1221  0.5741
19244SOL    HW166510   1.075  10.816  10.887 -0.9440 -0.3285  1.2006
19244SOL    HW266511   1.157  10.758  11.000  0.0607 -0.0052  0.6532
19245SOL     OW66512  11.830   9.547   2.054  0.4009  0.5849 -0.7125
19245SOL    HW166513  11.923   9.567   2.053  0.4209  0.4838 -1.1738
19245SOL    HW266514  11.788   9.624   2.015  0.3125  0.5248 -0.7367
19246SOL     OW66515   4.684   5.508  11.823 -0.1254  0.4907  0.0847
19246SOL    HW166516   4.764   5.546  11.787 -0.5998  0.7268 -0.7328
19246SOL    HW266517   4.665   5.561  11.900  0.6281  0.2843  0.4323
19247SOL     OW66518   7.788  11.878   8.918 -0.1154  0.0953 -0.8559
19247SOL    HW166519   7.707  11.901   8.871  1.1437 -2.3716 -4.6946
19247SOL    HW266520   7.762  11.806   8.975 -0.9882  0.7368 -0.4072
19248SOL     OW66521   2.445  12.257   6.572 -0.5592  0.1644  0.5494
19248SOL    HW166522   2.354  12.262   6.600 -0.8873  0.2074 -0.4887
19248SOL    HW266523   2.457  12.167   6.543 -0.1458  0.0458  1.0790
19249SOL     OW66524  10.977   1.889  10.758  0.4095 -0.1870  0.3802
19249SOL    HW166525  11.059   1.917  10.717  0.0793 -0.4563 -0.4797
19249SOL    HW266526  10.910   1.943  10.716 -0.1406 -1.6312 -0.7131
19250SOL     OW66527   3.641  11.435   2.949  0.1573  0.2788  1.0309
19250SOL    HW166528   3.710  11.391   2.901  0.6083  0.5825  1.3925
19250SOL    HW266529   3.573  11.452   2.883 -0.3096 -1.4819  1.0060
19251SOL     OW66530  11.957   7.356  12.189  0.0837 -0.0404  0.1078
19251SOL    HW166531  12.040   7.397  12.213  0.3687  0.3257 -1.3656
19251SOL    HW266532  11.894   7.428  12.188 -0.1975 -0.2634  0.9087
19252SOL     OW66533   4.398  10.515  11.393 -0.5483  0.2846  0.1122
19252SOL    HW166534   4.474  10.471  11.355  0.7167  1.4717  1.1614
19252SOL    HW266535   4.374  10.461  11.469 -1.8778 -1.0288 -1.1763
19253SOL     OW66536   4.601   8.182   1.068 -0.1804  0.3025  0.8030
19253SOL    HW166537   4.582   8.207   1.159  0.0991 -0.1579  0.9918
19253SOL    HW266538   4.685   8.137   1.073 -0.0395  0.5045  0.2732
19254SOL     OW66539   9.484   6.677   0.056 -0.2771 -0.2850 -0.0964
19254SOL    HW166540   9.467   6.715   0.142 -0.6612 -0.7726  0.0459
19254SOL    HW266541   9.398   6.673   0.014  0.0120  0.6904 -0.8205
19255SOL     OW66542   3.885   3.653   9.610 -0.9646  0.5061 -0.1140
19255SOL    HW166543   3.837   3.576   9.579 -0.7315  0.2148  0.2440
19255SOL    HW266544   3.883   3.713   9.536  1.7620 -1.1544 -1.6966
19256SOL     OW66545   1.631   3.663   9.513  0.2485 -0.3663  0.5051
19256SOL    HW166546   1.663   3.695   9.429 -1.0328 -2.0530 -0.6906
19256SOL    HW266547   1.613   3.743   9.564  1.0279  0.6902 -0.8099
19257SOL     OW66548   9.749  10.157   7.183  0.0129 -0.4896 -0.1455
19257SOL    HW166549   9.749  10.066   7.211 -1.7035 -1.1939 -2.1277
19257SOL    HW266550   9.704  10.156   7.098 -0.0528  2.2014 -0.2413
19258SOL     OW66551  10.504   6.611   9.326  0.2904  0.2979  0.5003
19258SOL    HW166552  10.483   6.686   9.382 -0.8689 -1.5842  2.7497
19258SOL    HW266553  10.586   6.578   9.360  1.6217  1.3550 -1.4818
19259SOL     OW66554   5.452   1.983  10.954  0.4729 -0.0589  0.4520
19259SOL    HW166555   5.532   2.023  10.989  1.3349  0.0479 -1.4843
19259SOL    HW266556   5.465   1.889  10.966  1.1127 -0.0702 -0.2188
19260SOL     OW66557   0.692   3.423  11.461  0.1224 -0.3794 -0.3032
19260SOL    HW166558   0.735   3.508  11.472 -0.6061 -0.0744  0.2908
19260SOL    HW266559   0.599   3.441  11.474  0.0980 -1.5341  1.5960
19261SOL     OW66560   6.618   6.853  10.608 -0.1999  0.1592  0.0037
19261SOL    HW166561   6.582   6.799  10.538 -0.2950 -0.4425  0.5143
19261SOL    HW266562   6.704   6.815  10.627  0.7112  1.5325 -1.1434
19262SOL     OW66563   2.966   8.134   4.817  0.2835 -0.3581 -0.7429
19262SOL    HW166564   2.887   8.081   4.808  0.9128 -1.5032  0.2311
19262SOL    HW266565   2.940   8.208   4.871 -0.2840 -0.3396 -1.0313
19263SOL     OW66566   9.849   5.440   4.425 -0.0622 -0.2976 -0.5012
19263SOL    HW166567   9.885   5.528   4.416  1.5041 -0.9971 -1.6818
19263SOL    HW266568   9.921   5.382   4.399 -1.5426 -1.8534 -1.3496
19264SOL     OW66569   1.341   6.589   4.857  0.0322 -0.4875 -0.5450
19264SOL    HW166570   1.261   6.578   4.805  0.5321  1.6448 -1.8862
19264SOL    HW266571   1.401   6.635   4.799  0.6626  1.9593  1.8296
19265SOL     OW66572   5.518   6.591  11.759 -0.1164  0.2187  0.2642
19265SOL    HW166573   5.523   6.571  11.666  0.0047 -1.4838  0.6122
19265SOL    HW266574   5.578   6.664  11.771 -0.4945  0.7769 -1.0600
19266SOL     OW66575   9.681   6.493   1.218 -0.5433 -0.0589 -0.3332
19266SOL    HW166576   9.614   6.543   1.171 -1.1494 -0.8897 -0.3867
19266SOL    HW266577   9.644   6.405   1.226  1.3615 -1.1019 -2.1202
19267SOL     OW66578   4.410  10.425   0.308  0.1247  0.6089  0.5250
19267SOL    HW166579   4.348  10.371   0.259 -0.3553  0.3736  1.3637
19267SOL    HW266580   4.386  10.515   0.287 -0.4833  0.5184  0.8182
19268SOL     OW66581   9.168   4.081  12.383  0.1947 -0.1381  0.4482
19268SOL    HW166582   9.094   4.109  12.330  1.3613 -0.6941 -1.5936
19268SOL    HW266583   9.137   4.003  12.429 -0.1335 -1.1766 -1.4497
19269SOL     OW66584   7.013   7.677  10.285  0.5684 -0.1641 -0.0408
19269SOL    HW166585   6.971   7.655  10.369  1.6611  0.0894  0.5842
19269SOL    HW266586   6.942   7.713  10.232 -0.1974 -0.5767  0.6786
19270SOL     OW66587   1.306   1.524   8.779  0.0783  0.3738 -0.2408
19270SOL    HW166588   1.378   1.462   8.764 -0.1441  0.1790 -0.4978
19270SOL    HW266589   1.279   1.551   8.691 -0.4354  0.1335 -0.1614
19271SOL     OW66590   5.159   5.127   6.057  0.5012 -0.2924 -0.4400
19271SOL    HW166591   5.233   5.178   6.026  0.8028 -0.9783 -0.8694
19271SOL    HW266592   5.085   5.159   6.005  0.3144  0.9826  0.5807
19272SOL     OW66593   3.998  11.814   5.845  0.6314 -0.6250 -0.2717
19272SOL    HW166594   4.045  11.822   5.762  1.6620  0.7023  0.4021
19272SOL    HW266595   3.941  11.891   5.848  0.7727 -0.5405  0.3468
19273SOL     OW66596   7.557   9.831   5.269  0.1996 -0.3223 -0.3086
19273SOL    HW166597   7.510   9.765   5.218 -1.1079  1.7953 -2.0136
19273SOL    HW266598   7.650   9.815   5.249 -0.1866 -0.6197 -2.0548
19274SOL     OW66599   9.842   4.110  11.679  0.3968 -0.3877 -0.3830
19274SOL    HW166600   9.822   4.036  11.736  0.4943 -0.9204 -1.0209
19274SOL    HW266601   9.868   4.069  11.596 -0.7847  0.3627 -1.1605
19275SOL     OW66602   7.705   0.954   2.359  0.2663 -0.1813  0.0352
19275SOL    HW166603   7.785   0.926   2.402  0.0824 -1.4610 -0.4143
19275SOL    HW266604   7.730   0.968   2.268 -0.4214 -2.6893 -0.5991
19276SOL     OW66605  11.655   2.213   3.961 -0.2897 -0.5694  0.2063
19276SOL    HW166606  11.603   2.285   3.924  0.5880  0.9110  1.7180
19276SOL    HW266607  11.741   2.222   3.919 -0.7469 -2.0801 -1.1541
19277SOL     OW66608   8.283   3.007   2.812 -0.1758  0.6937 -0.9933
19277SOL    HW166609   8.303   3.070   2.881  0.3781 -1.5868  1.0313
19277SOL    HW266610   8.245   3.060   2.742  2.4116  3.6018 -0.3826
19278SOL     OW66611   5.125   7.643  10.031  0.1971  0.1282 -0.1211
19278SOL    HW166612   5.099   7.652  10.122  1.4937 -0.5892  0.3409
19278SOL    HW266613   5.219   7.623  10.034  0.4928  1.0981 -1.6511
19279SOL     OW66614   4.337   0.574  10.643 -0.3941  0.4991  0.7214
19279SOL    HW166615   4.376   0.627  10.712  1.9676 -0.5008  0.2724
19279SOL    HW266616   4.402   0.506  10.626 -1.7228 -0.3767 -1.2073
19280SOL     OW66617   9.108   2.485   1.143  0.5402  0.2345 -0.1788
19280SOL    HW166618   9.153   2.567   1.123  0.7306 -0.1322 -1.3377
19280SOL    HW266619   9.151   2.420   1.087 -0.7321 -0.3287 -0.5316
19281SOL     OW66620   0.763   1.381   7.523  0.9174 -0.1693  0.3069
19281SOL    HW166621   0.784   1.454   7.464  2.5703 -2.4187 -2.1082
19281SOL    HW266622   0.782   1.415   7.610 -0.5893  2.9740 -0.4421
19282SOL     OW66623   7.491   9.995   8.500  0.0671  0.2409 -0.0912
19282SOL    HW166624   7.531   9.910   8.519  1.3191  0.7332 -0.4701
19282SOL    HW266625   7.449   9.983   8.415 -1.3639 -0.5169  0.6707
19283SOL     OW66626  11.818   3.051  11.141 -0.3379  0.2156  0.0539
19283SOL    HW166627  11.895   3.034  11.086 -0.6810 -0.1709 -0.3114
19283SOL    HW266628  11.757   2.982  11.119 -0.9942  0.8118 -0.0377
19284SOL     OW66629   0.636   3.877  10.844 -0.1414 -0.6514  0.6873
19284SOL    HW166630   0.645   3.816  10.771  0.5390  0.2834 -0.0287
19284SOL    HW266631   0.664   3.962  10.809 -0.0337 -0.1331  1.9583
19285SOL     OW66632   5.429   8.762   1.586  0.1369 -0.0368 -0.1802
19285SOL    HW166633   5.341   8.754   1.551  1.0524  0.0519 -2.6505
19285SOL    HW266634   5.481   8.699   1.537  1.4885 -0.1112  1.2361
19286SOL     OW66635   6.345   0.906   2.497  0.3320  0.0444 -0.7569
19286SOL    HW166636   6.371   0.943   2.413 -1.0611 -1.5117 -1.9433
19286SOL    HW266637   6.263   0.860   2.479  0.2369 -0.7416  1.3544
19287SOL     OW66638   3.690   7.565  11.036 -0.4852 -0.4317 -0.1767
19287SOL    HW166639   3.689   7.633  11.103 -1.4192 -0.1287 -0.4799
19287SOL    HW266640   3.677   7.484  11.085  0.0639 -0.3410  0.1277
19288SOL     OW66641  10.416   8.577   8.692  0.0161 -0.1678  0.4060
19288SOL    HW166642  10.420   8.673   8.687  2.6295 -0.2409 -0.0560
19288SOL    HW266643  10.485   8.553   8.755 -0.0311 -1.7797 -0.1201
19289SOL     OW66644   7.518   7.091   1.948  1.0190 -0.1644  0.4598
19289SOL    HW166645   7.438   7.116   1.902  0.8532 -1.8182 -0.2338
19289SOL    HW266646   7.491   7.080   2.039 -0.5286 -4.1412 -0.2487
19290SOL     OW66647   2.302  10.944  10.830  0.0758 -0.1709  0.1448
19290SOL    HW166648   2.212  10.917  10.848 -0.3314  1.8514  1.5313
19290SOL    HW266649   2.350  10.922  10.910  0.4318  0.2279  0.0477
19291SOL     OW66650   6.568  10.790   0.503  0.0235  0.2164  0.2548
19291SOL    HW166651   6.560  10.857   0.435 -0.4993  0.7088  0.7979
19291SOL    HW266652   6.497  10.808   0.564  0.3874 -0.3225  0.8521
19292SOL     OW66653   5.264   0.119   7.249 -0.1630  0.1878 -0.0843
19292SOL    HW166654   5.191   0.057   7.252 -1.0019  1.1563 -0.0390
19292SOL    HW266655   5.229   0.195   7.203  1.4797 -0.1562 -2.0644
19293SOL     OW66656   9.066   1.598   9.543 -0.6407  0.3046  0.4781
19293SOL    HW166657   9.153   1.578   9.576 -0.3440 -0.3489 -0.6429
19293SOL    HW266658   9.078   1.614   9.449 -1.7851 -0.2742  0.2028
19294SOL     OW66659   2.028   9.740   2.225 -0.4727  0.2356  0.3025
19294SOL    HW166660   2.091   9.766   2.157 -0.6422  1.8645  0.7230
19294SOL    HW266661   1.996   9.823   2.260 -1.7217 -0.5805  1.1510
19295SOL     OW66662   9.855   5.883   6.569  0.0194 -0.0046 -0.2388
19295SOL    HW166663   9.900   5.923   6.495 -0.7861 -0.2412 -0.8680
19295SOL    HW266664   9.896   5.922   6.647  0.4361  0.7163 -0.8136
19296SOL     OW66665   8.365   4.935   4.772  0.6073  0.1509 -0.0546
19296SOL    HW166666   8.402   5.013   4.813 -1.3715  1.6156 -0.8913
19296SOL    HW266667   8.369   4.953   4.678  1.7526 -1.5843 -0.3928
19297SOL     OW66668   4.907   4.873   5.788 -0.3472 -0.0693  0.2454
19297SOL    HW166669   4.866   4.829   5.862 -1.7363 -0.3936 -0.6830
19297SOL    HW266670   4.838   4.879   5.722  0.5383  1.2204 -0.6141
19298SOL     OW66671  12.209   2.206  11.508  0.0992  0.2249 -0.6368
19298SOL    HW166672  12.124   2.251  11.506 -1.1166 -1.5506  2.6744
19298SOL    HW266673  12.191   2.119  11.472  0.8243  0.2154 -0.9828
19299SOL     OW66674   7.426   8.055  12.604  0.4752 -0.4818  0.2166
19299SOL    HW166675   7.392   7.965  12.598 -0.7077  0.0449 -2.4973
19299SOL    HW266676   7.496   8.058  12.539  1.4336  0.2373  1.2489
19300SOL     OW66677   3.425   5.826   8.408  0.0440 -0.5126 -0.2973
19300SOL    HW166678   3.408   5.869   8.492  0.2186 -1.7146  0.3779
19300SOL    HW266679   3.341   5.789   8.383 -1.2892  3.7116 -3.0571
19301SOL     OW66680  11.235   9.192  11.428 -0.1865 -0.2640 -0.0046
19301SOL    HW166681  11.317   9.224  11.464  0.8873 -0.3312 -2.2630
19301SOL    HW266682  11.223   9.106  11.469  0.0695  0.3517  1.4324
19302SOL     OW66683  10.141  10.083   4.579  0.6428 -0.4134 -0.0327
19302SOL    HW166684  10.193  10.091   4.498  0.7126 -0.8090 -0.0285
19302SOL    HW266685  10.121   9.990   4.585  0.8476 -0.4225  0.5394
19303SOL     OW66686  11.526  12.300  10.147 -0.1231  0.0712  0.2552
19303SOL    HW166687  11.449  12.243  10.152  0.9311 -1.5536 -0.8854
19303SOL    HW266688  11.541  12.310  10.053  0.5205  1.1397  0.4620
19304SOL     OW66689   0.896   4.310   9.627  0.1131 -0.2765  0.1861
19304SOL    HW166690   0.942   4.382   9.584 -1.1322  0.5113  0.1067
19304SOL    HW266691   0.850   4.266   9.556 -1.6463  0.7991  0.5911
19305SOL     OW66692   6.114   8.077   8.564  0.1035  0.1224 -0.1939
19305SOL    HW166693   6.201   8.086   8.524 -0.0773 -0.1081 -0.6464
19305SOL    HW266694   6.067   8.155   8.536  0.0352  0.0496 -0.2807
19306SOL     OW66695   9.215   2.245   1.486  0.1113 -0.6309  0.8158
19306SOL    HW166696   9.259   2.244   1.572  0.5507 -0.1072  0.6075
19306SOL    HW266697   9.256   2.174   1.438 -1.6001 -2.3171  1.7257
19307SOL     OW66698  12.476   7.987   3.527  0.0445  0.1512 -0.3077
19307SOL    HW166699  12.534   7.912   3.543 -2.1576 -1.4282  0.8675
19307SOL    HW266700  12.442   7.974   3.439  0.2422  0.2028 -0.3923
19308SOL     OW66701   6.795   1.239   6.765 -0.5562 -0.4385 -0.9399
19308SOL    HW166702   6.726   1.184   6.803  0.2175 -1.0263 -0.3583
19308SOL    HW266703   6.876   1.209   6.807 -0.0407  0.7904 -1.0097
19309SOL     OW66704   3.833   5.193   9.935 -0.1057 -0.2970  0.6458
19309SOL    HW166705   3.763   5.245   9.898 -1.9049 -1.2178  2.5275
19309SOL    HW266706   3.891   5.257   9.977  0.2996  0.4758 -1.0021
19310SOL     OW66707   2.684   1.295   9.393 -0.0131  0.2662 -0.0484
19310SOL    HW166708   2.699   1.336   9.478 -1.7152  3.6056 -1.1613
19310SOL    HW266709   2.588   1.294   9.384 -0.0564 -3.4024 -0.5068
19311SOL     OW66710   5.771   1.666  11.834 -0.0301  0.3546 -0.6095
19311SOL    HW166711   5.766   1.592  11.772 -1.6553 -0.1194  0.0398
19311SOL    HW266712   5.856   1.655  11.877  0.3894 -0.2865 -1.5574
19312SOL     OW66713   2.542   3.751   2.567  0.4777  0.1413  0.4688
19312SOL    HW166714   2.583   3.764   2.652 -0.2354  1.0099  0.6969
19312SOL    HW266715   2.614   3.759   2.504  1.2117 -1.5927  1.0166
19313SOL     OW66716   9.745   6.118   2.667  0.2049 -0.1639  0.4235
19313SOL    HW166717   9.814   6.179   2.693 -0.3443  1.0540 -0.8660
19313SOL    HW266718   9.792   6.048   2.622  0.6196  0.8660 -0.8205
19314SOL     OW66719   4.301   7.800  10.161 -0.0878 -0.3478 -0.2347
19314SOL    HW166720   4.387   7.823  10.126 -0.1863  0.9832  0.3388
19314SOL    HW266721   4.239   7.850  10.108 -0.3129  0.8051  1.0826
19315SOL     OW66722   1.708   9.152   6.189 -0.4516 -0.1487  0.0465
19315SOL    HW166723   1.691   9.160   6.283 -1.9808 -1.0618 -0.1194
19315SOL    HW266724   1.633   9.103   6.155  1.6634 -2.8554 -1.1103
19316SOL     OW66725   8.289   9.057   4.187 -0.1096 -0.4684  0.0563
19316SOL    HW166726   8.307   8.964   4.176 -0.2362 -0.2855 -2.1527
19316SOL    HW266727   8.370   9.100   4.161 -0.4858  0.0525 -0.2841
19317SOL     OW66728   2.307  11.968  10.773  0.0619  0.2747  0.3297
19317SOL    HW166729   2.219  11.959  10.737  0.6379 -0.7150 -0.9345
19317SOL    HW266730   2.353  12.023  10.710  1.2534 -1.9612 -0.8876
19318SOL     OW66731   4.165   9.681   5.940  0.3604 -0.0625  0.5525
19318SOL    HW166732   4.086   9.634   5.912 -0.2763  0.2571  1.7827
19318SOL    HW266733   4.174   9.751   5.876 -1.8164  1.4405  1.7835
19319SOL     OW66734   7.929   7.198   9.302  0.5373 -0.2284  0.4400
19319SOL    HW166735   7.956   7.137   9.371 -0.2962 -0.1599  0.8381
19319SOL    HW266736   7.961   7.158   9.221 -0.6670 -1.6072  0.6016
19320SOL     OW66737  12.025   9.478   8.901 -0.2927  0.2843  0.2248
19320SOL    HW166738  12.050   9.386   8.911  0.4244  0.3762 -0.6153
19320SOL    HW266739  12.028   9.493   8.807  0.0954  1.3040  0.3904
19321SOL     OW66740   4.424   4.494   2.193 -0.6764 -0.7631  0.1665
19321SOL    HW166741   4.497   4.439   2.220 -1.1649 -1.5592 -0.1112
19321SOL    HW266742   4.350   4.465   2.246 -1.4646 -1.8436 -1.4470
19322SOL     OW66743   9.212  12.210   5.378  0.1280  0.1122  0.3360
19322SOL    HW166744   9.268  12.288   5.375  0.7771 -0.3083  1.0576
19322SOL    HW266745   9.259  12.145   5.325 -0.5364  0.2811 -0.4778
19323SOL     OW66746   8.701  10.118   2.014 -0.1563  0.0547 -0.0141
19323SOL    HW166747   8.651  10.175   1.957  0.3008 -1.8159 -2.4410
19323SOL    HW266748   8.790  10.154   2.013 -0.0149 -0.3103 -0.9975
19324SOL     OW66749   4.671   6.019   4.123 -0.2857 -0.0414 -0.1743
19324SOL    HW166750   4.691   5.989   4.211 -2.0376 -0.3188  0.1640
19324SOL    HW266751   4.745   6.076   4.100  0.3520 -0.2027  1.3350
19325SOL     OW66752   7.459   3.103   8.579 -0.7970 -0.6136 -0.0224
19325SOL    HW166753   7.526   3.119   8.645 -0.2907 -0.1188 -0.6521
19325SOL    HW266754   7.455   3.184   8.528 -3.4223  0.2643  1.3353
19326SOL     OW66755   8.925   7.981   3.352 -0.6487 -0.1122  0.2230
19326SOL    HW166756   8.958   7.897   3.320 -0.1126 -0.8544  2.5335
19326SOL    HW266757   8.852   8.002   3.294  0.3093 -1.2714 -1.5026
19327SOL     OW66758   6.567   6.424   3.027  0.3310  0.9689 -0.1198
19327SOL    HW166759   6.596   6.444   2.938  1.8220 -1.4651 -0.2746
19327SOL    HW266760   6.644   6.441   3.082  0.3296 -0.2261  0.2781
19328SOL     OW66761   1.909   4.759  11.248 -0.4627  0.1357 -0.4739
19328SOL    HW166762   1.919   4.676  11.201  1.5195  1.0186 -1.7436
19328SOL    HW266763   1.918   4.826  11.181  0.9385  1.4215  0.9206
19329SOL     OW66764   2.638   8.330   5.246 -0.1866  0.8118 -0.1130
19329SOL    HW166765   2.587   8.405   5.277 -0.7303 -0.0371  1.1246
19329SOL    HW266766   2.696   8.309   5.319 -1.1596 -0.9444  0.2091
19330SOL     OW66767   6.475   6.484   5.398 -0.5501 -0.3111 -0.8979
19330SOL    HW166768   6.473   6.566   5.448  2.6296 -1.6155  1.7130
19330SOL    HW266769   6.425   6.422   5.450  0.1894 -0.9202 -0.8859
19331SOL     OW66770   3.013   2.977  12.282 -0.1311  0.4358  0.2063
19331SOL    HW166771   2.939   2.929  12.319 -0.0895 -0.5481 -0.9282
19331SOL    HW266772   3.067   3.000  12.357  0.9673 -3.1798  0.7114
19332SOL     OW66773   2.157   0.270   4.311 -0.5384 -0.2644  0.7343
19332SOL    HW166774   2.250   0.291   4.320 -0.5084  0.0229 -0.2256
19332SOL    HW266775   2.115   0.321   4.380 -0.2898  1.7840 -0.5571
19333SOL     OW66776   0.882   6.671  10.823 -0.2918 -0.3206  0.0601
19333SOL    HW166777   0.942   6.724  10.770 -1.7164  0.7865 -0.5360
19333SOL    HW266778   0.925   6.664  10.908  0.4684  0.8808 -0.1910
19334SOL     OW66779   7.728  12.250  11.798 -0.4062  0.1825  1.0539
19334SOL    HW166780   7.746  12.172  11.744  1.0840  0.7999  0.6250
19334SOL    HW266781   7.726  12.217  11.888  2.9993 -0.0416  1.1961
19335SOL     OW66782   6.937   0.885   1.130  0.4461  0.2526 -0.4733
19335SOL    HW166783   6.896   0.971   1.145  1.0749  0.1768  2.0632
19335SOL    HW266784   6.939   0.844   1.216  1.3621 -1.7972 -1.4149
19336SOL     OW66785   4.192   4.615   6.856 -0.2709  0.0992 -0.2677
19336SOL    HW166786   4.232   4.630   6.942 -1.0552 -1.8724  0.4959
19336SOL    HW266787   4.263   4.580   6.802 -0.0715  0.1810 -0.0613
19337SOL     OW66788   3.626   0.332   4.957  0.3265 -0.1232 -0.2220
19337SOL    HW166789   3.628   0.237   4.945  1.9797 -0.0117 -1.1952
19337SOL    HW266790   3.630   0.367   4.868 -0.4239  0.8673  0.1195
19338SOL     OW66791   4.856  10.162   0.878  0.5166  0.2533 -0.0040
19338SOL    HW166792   4.923  10.096   0.893  0.5712  0.2639 -0.2019
19338SOL    HW266793   4.838  10.158   0.784  0.6308  0.6245 -0.0444
19339SOL     OW66794   3.276   6.965   1.003 -0.2886  0.0596 -0.0460
19339SOL    HW166795   3.363   6.989   0.972 -0.2480 -0.4566 -0.3322
19339SOL    HW266796   3.229   7.048   1.007  0.4751  0.4615  0.9382
19340SOL     OW66797   7.550   4.394  11.354 -0.5063  0.4593  0.3304
19340SOL    HW166798   7.614   4.427  11.291 -0.0284 -1.0344 -0.0234
19340SOL    HW266799   7.467   4.394  11.305  0.2157 -2.7215 -1.1862
19341SOL     OW66800   7.057   9.579   6.229  0.2939 -0.2644  0.1060
19341SOL    HW166801   7.000   9.601   6.156 -0.1747 -2.0127 -0.0907
19341SOL    HW266802   7.137   9.545   6.189  0.4737 -0.1936  0.3989
19342SOL     OW66803   9.563   6.965   2.877  0.4614  0.6489 -0.1204
19342SOL    HW166804   9.623   6.952   2.804  1.0031  0.5504  0.3434
19342SOL    HW266805   9.618   6.991   2.951  0.1297 -0.9466  0.7412
19343SOL     OW66806   7.361   8.661   0.300 -0.0674  0.1101  0.0838
19343SOL    HW166807   7.323   8.613   0.226 -1.2956  1.4862 -0.2230
19343SOL    HW266808   7.346   8.603   0.376 -0.1998 -0.6316 -0.4954
19344SOL     OW66809   0.835   7.083   0.633  0.6491  0.0918  0.2535
19344SOL    HW166810   0.919   7.100   0.591  0.0326  1.9858 -0.2948
19344SOL    HW266811   0.770   7.090   0.563 -0.0215 -1.1798  0.6988
19345SOL     OW66812   2.650   1.211  10.200  0.0518 -0.5879 -0.4356
19345SOL    HW166813   2.625   1.300  10.176  0.2841 -0.3993  0.0247
19345SOL    HW266814   2.711   1.221  10.272 -1.0553 -1.1710  0.6205
19346SOL     OW66815  11.041   0.133   5.847 -0.0101 -0.6773 -0.2768
19346SOL    HW166816  10.946   0.123   5.841  0.1412 -1.5202 -2.3403
19346SOL    HW266817  11.054   0.225   5.872 -1.3464 -0.8143  1.0571
19347SOL     OW66818   9.928   1.617   4.964 -0.2770 -0.5047  0.0565
19347SOL    HW166819   9.846   1.568   4.955  0.0171 -1.1732  0.8979
19347SOL    HW266820   9.989   1.555   5.005  1.4645 -0.9104 -2.7865
19348SOL     OW66821   9.084   7.259   0.618  0.0732  0.3883  0.0587
19348SOL    HW166822   9.029   7.337   0.621  0.9616  1.0099  1.2577
19348SOL    HW266823   9.078   7.223   0.707  0.1383 -0.5786 -0.3175
19349SOL     OW66824   3.059  11.399  10.670  0.0084 -0.0451 -0.5754
19349SOL    HW166825   3.143  11.398  10.624  0.0357 -1.7254 -0.5500
19349SOL    HW266826   2.994  11.384  10.602 -0.0679 -1.0659 -0.2922
19350SOL     OW66827   9.433   6.963  10.243 -0.2852 -0.0746 -0.6740
19350SOL    HW166828   9.437   6.874  10.207 -0.8265 -0.3082 -0.1753
19350SOL    HW266829   9.499   7.012  10.194  1.3426 -1.1978  0.2940
19351SOL     OW66830   0.773   9.436   9.281  0.2077  0.5887 -0.4491
19351SOL    HW166831   0.825   9.433   9.201  1.3522  1.6517  0.2279
19351SOL    HW266832   0.711   9.363   9.272  1.0081  0.0405 -1.8113
19352SOL     OW66833   7.079   5.406   5.521 -0.7188  0.5205  0.3916
19352SOL    HW166834   7.073   5.315   5.552  2.0184  1.0603  2.9271
19352SOL    HW266835   7.022   5.409   5.444 -2.1871 -2.9014  1.1694
19353SOL     OW66836   0.562   0.757   3.368  0.5030 -0.4857 -0.4515
19353SOL    HW166837   0.491   0.744   3.430  2.0885 -0.5645  1.4479
19353SOL    HW266838   0.525   0.812   3.299 -0.8219  1.2175  1.5354
19354SOL     OW66839  10.535   4.260   3.665 -0.3567  0.1684  0.1786
19354SOL    HW166840  10.489   4.251   3.749  0.9686 -1.1178  0.8213
19354SOL    HW266841  10.474   4.226   3.600 -1.4346  1.2473  0.5963
19355SOL     OW66842   2.827   3.853   6.145 -0.2294 -0.0762  0.1402
19355SOL    HW166843   2.801   3.766   6.176 -0.7210 -0.0544 -0.1940
19355SOL    HW266844   2.870   3.894   6.220 -0.0854 -0.5718  0.3301
19356SOL     OW66845   6.462   1.618   6.772 -0.5598 -0.0560  0.2011
19356SOL    HW166846   6.423   1.561   6.706 -0.0651  0.6324 -0.7233
19356SOL    HW266847   6.521   1.561   6.821  1.6413 -0.0006 -2.1306
19357SOL     OW66848   4.918   8.805  12.383  0.5097  0.2837 -0.1432
19357SOL    HW166849   4.961   8.840  12.306  2.4650  2.7135  1.8771
19357SOL    HW266850   4.835   8.851  12.388  0.3275  0.0357 -0.8219
19358SOL     OW66851   5.678   7.527  11.316  0.3175  0.4997  0.3269
19358SOL    HW166852   5.615   7.459  11.293 -0.6015  1.1619  0.8279
19358SOL    HW266853   5.731   7.538  11.236  2.7138 -3.0536  1.1961
19359SOL     OW66854  10.100   3.760   9.451 -0.2442 -0.4804  0.6914
19359SOL    HW166855  10.036   3.697   9.483  0.7414 -1.9852 -0.1812
19359SOL    HW266856  10.095   3.752   9.355 -0.8589  1.5861  0.4987
19360SOL     OW66857   1.601   7.375   2.682 -0.3395 -0.3727  0.8672
19360SOL    HW166858   1.614   7.418   2.766  2.9880  0.5606  0.0110
19360SOL    HW266859   1.689   7.358   2.649 -1.4552 -0.2885 -2.6431
19361SOL     OW66860   1.497   7.022  11.694  0.3481  0.1156  0.1873
19361SOL    HW166861   1.544   6.940  11.677  0.7931  0.3389  0.3098
19361SOL    HW266862   1.505   7.072  11.613  0.1992  0.0972  0.1608
19362SOL     OW66863  12.591   7.638   9.004 -0.3970 -0.1426 -0.0763
19362SOL    HW166864  12.604   7.544   9.002 -0.0002 -0.3241  3.5328
19362SOL    HW266865  12.628   7.670   8.922  0.2229 -3.0260 -1.0178
19363SOL     OW66866   8.369   4.926   4.233  0.4341  0.0448  0.0961
19363SOL    HW166867   8.425   4.999   4.206 -1.6074  1.4676 -0.5728
19363SOL    HW266868   8.308   4.915   4.159 -0.5492 -1.0020  1.0320
19364SOL     OW66869  11.026   9.441   2.833 -1.1725 -0.1660 -0.2726
19364SOL    HW166870  10.993   9.351   2.834 -1.8652  0.0649  1.4293
19364SOL    HW266871  10.948   9.494   2.813 -0.5824  0.0284 -2.2312
19365SOL     OW66872   3.412  11.019   0.343  0.1737 -0.7175  0.1840
19365SOL    HW166873   3.470  10.967   0.398 -1.3995 -2.3271  0.4038
19365SOL    HW266874   3.343  11.049   0.402 -1.2475 -2.0250 -0.7383
19366SOL     OW66875   2.774  12.569   3.514 -0.0883  0.0080 -0.0038
19366SOL    HW166876   2.783  12.639   3.450  1.9918 -0.0740  0.1449
19366SOL    HW266877   2.694  12.592   3.562 -1.9296 -0.1159 -2.7670
19367SOL     OW66878   8.026   1.731  10.686 -0.0565  0.9703 -0.4218
19367SOL    HW166879   8.089   1.797  10.658 -0.7552  1.5037 -0.7536
19367SOL    HW266880   7.953   1.740  10.625 -0.5272  0.4600  0.0528
19368SOL     OW66881   9.106   8.372   9.848 -0.2353 -0.4273  0.1117
19368SOL    HW166882   9.173   8.421   9.801  0.4117 -0.7086  0.7221
19368SOL    HW266883   9.066   8.436   9.907 -1.5513  0.1063 -1.3051
19369SOL     OW66884   1.894   2.142   6.477 -0.0411 -0.5898  0.0608
19369SOL    HW166885   1.846   2.184   6.407  0.3794  0.1885  0.2271
19369SOL    HW266886   1.833   2.141   6.551  0.2972  0.7072  0.3758
19370SOL     OW66887   2.590   3.793   4.101  0.5461 -0.2397 -0.1204
19370SOL    HW166888   2.517   3.768   4.158  0.6077 -0.3437 -0.0854
19370SOL    HW266889   2.564   3.876   4.062  0.1764 -0.5400 -0.5206
19371SOL     OW66890   1.784   1.922   4.723  0.2163  0.4535  0.4362
19371SOL    HW166891   1.728   1.983   4.770  0.6382  0.6800  0.6583
19371SOL    HW266892   1.742   1.910   4.639 -0.1421  0.6518  0.5863
19372SOL     OW66893   9.704  11.763  12.125 -0.2841 -0.2715  0.7530
19372SOL    HW166894   9.633  11.701  12.145  0.1914 -0.5387  1.6884
19372SOL    HW266895   9.783  11.709  12.125  0.0063  0.1571  0.5078
19373SOL     OW66896   8.677   3.405   2.301 -0.0498  0.1825  0.3280
19373SOL    HW166897   8.658   3.499   2.294  0.2039  0.1809 -0.5709
19373SOL    HW266898   8.623   3.365   2.232 -2.6070 -0.7476  2.6627
19374SOL     OW66899   5.262   3.253   9.281  0.0890  0.0618  0.1525
19374SOL    HW166900   5.187   3.194   9.281  1.5345 -1.8518  0.9791
19374SOL    HW266901   5.292   3.255   9.371  0.9854  0.9041 -0.1421
19375SOL     OW66902  12.417   3.522   4.547 -0.0781  0.1633  0.0111
19375SOL    HW166903  12.454   3.546   4.461  0.4532  1.1291  0.4944
19375SOL    HW266904  12.388   3.605   4.584 -0.7686 -0.3169  0.5653
19376SOL     OW66905  12.058   0.624   5.872 -0.2062 -0.2452 -0.1953
19376SOL    HW166906  12.063   0.533   5.901 -1.7501 -0.0577  0.7623
19376SOL    HW266907  12.144   0.660   5.891 -0.2959 -0.8882  1.6270
19377SOL     OW66908  11.493  12.264   9.109  0.0623  0.1496  0.4956
19377SOL    HW166909  11.523  12.242   9.020  0.8000  1.6013  0.3596
19377SOL    HW266910  11.466  12.180   9.146  0.0956 -0.5452 -0.9648
19378SOL     OW66911   5.906   4.678   9.240 -0.2648 -0.4051  0.2707
19378SOL    HW166912   5.836   4.681   9.305 -0.4035  1.8636  0.0922
19378SOL    HW266913   5.984   4.654   9.290 -0.4467  0.8930  1.2291
19379SOL     OW66914   4.087   4.387   1.751 -0.1086 -0.2984  0.3764
19379SOL    HW166915   4.162   4.440   1.724  1.3818 -1.9773  0.9954
19379SOL    HW266916   4.109   4.298   1.723 -1.6575 -0.9269  1.0157
19380SOL     OW66917   1.815   0.766   8.571  0.2239  0.6508  0.5408
19380SOL    HW166918   1.907   0.740   8.564 -0.1793 -0.3799 -1.7738
19380SOL    HW266919   1.768   0.684   8.581 -0.5544  1.0627  0.3218
19381SOL     OW66920   6.010   2.642  11.116 -0.0005 -0.1593 -0.2969
19381SOL    HW166921   6.105   2.638  11.128 -0.0876 -0.0698  0.4758
19381SOL    HW266922   5.998   2.633  11.022  0.7922  0.1150 -0.4358
19382SOL     OW66923  11.089  12.039   0.277  0.0558  0.1411 -0.6275
19382SOL    HW166924  11.033  12.114   0.293  0.7535  0.3757  0.8964
19382SOL    HW266925  11.132  12.022   0.361  0.2663 -1.6760 -1.0514
19383SOL     OW66926   0.079   3.811   7.476  0.1900 -0.0731  0.7468
19383SOL    HW166927   0.124   3.868   7.538  1.3326  0.4183 -0.4872
19383SOL    HW266928   0.061   3.731   7.526  1.9691 -0.0729  1.4674
19384SOL     OW66929   4.426   5.841   3.116  0.2193  0.1751  0.2431
19384SOL    HW166930   4.415   5.778   3.046 -0.5700  0.4908  0.0721
19384SOL    HW266931   4.342   5.888   3.120 -0.0976 -0.4725  2.0268
19385SOL     OW66932  10.376  12.437   0.243  0.0399  0.4058  0.1951
19385SOL    HW166933  10.440  12.455   0.313  1.0082  2.9612 -1.2196
19385SOL    HW266934  10.429  12.417   0.166 -1.0137 -2.3773  0.0768
19386SOL     OW66935   3.170   9.110   3.340 -0.3300 -0.3378  0.7199
19386SOL    HW166936   3.097   9.094   3.280  0.5498 -3.0057  0.2308
19386SOL    HW266937   3.160   9.202   3.366 -1.9482  0.3178 -1.8671
19387SOL     OW66938   3.816   8.918   7.581 -0.0322  0.5579  0.0253
19387SOL    HW166939   3.786   8.999   7.622 -0.5432  0.7264 -0.6681
19387SOL    HW266940   3.834   8.859   7.655 -0.7830  0.9108  0.5021
19388SOL     OW66941   5.803   5.256   3.866 -0.0448  0.3263 -0.2959
19388SOL    HW166942   5.708   5.262   3.856 -0.3098 -0.1824  1.5106
19388SOL    HW266943   5.837   5.255   3.777 -1.8532 -1.2028 -1.0294
19389SOL     OW66944  10.777  11.693  11.920 -0.3600 -0.3768  0.1564
19389SOL    HW166945  10.780  11.750  11.997  0.4816  1.0695 -0.9022
19389SOL    HW266946  10.847  11.726  11.863  0.4820 -2.7787 -0.3050
19390SOL     OW66947   6.885   5.890   5.796 -0.2167 -0.1415 -0.0332
19390SOL    HW166948   6.940   5.882   5.718 -1.7332  2.2851 -1.5077
19390SOL    HW266949   6.833   5.809   5.797  0.4598 -0.6078 -1.0038
19391SOL     OW66950   2.618  10.006   4.438 -0.2571 -0.1253  0.0307
19391SOL    HW166951   2.565   9.990   4.516  0.5577 -1.4302  0.3423
19391SOL    HW266952   2.554  10.014   4.367 -1.0635  1.8925  0.9101
19392SOL     OW66953   8.754  11.510  11.292  0.3981  0.1376 -0.6002
19392SOL    HW166954   8.788  11.539  11.207 -0.3096  0.4062 -0.8014
19392SOL    HW266955   8.659  11.509  11.280  0.3539 -2.2015 -0.5933
19393SOL     OW66956  10.807   4.999  11.567  1.1721 -0.2708 -0.3851
19393SOL    HW166957  10.767   5.011  11.653  1.5251 -1.0833 -0.0968
19393SOL    HW266958  10.832   5.087  11.539 -0.1035  0.1678 -0.2342
19394SOL     OW66959   0.269   0.044   1.037  0.4245 -0.3220 -0.0832
19394SOL    HW166960   0.210   0.041   1.112  0.0219 -0.6694 -0.4111
19394SOL    HW266961   0.242   0.122   0.988  0.4419 -0.3051 -0.0657
19395SOL     OW66962   0.768   7.307   7.905 -0.0820 -1.1387 -0.4103
19395SOL    HW166963   0.814   7.384   7.941 -0.2080 -0.8660 -0.8231
19395SOL    HW266964   0.737   7.260   7.982 -1.6476  0.2234 -0.1643
19396SOL     OW66965   4.346   9.301   2.774 -0.6636 -0.0487  0.2218
19396SOL    HW166966   4.397   9.221   2.785 -1.1369 -0.4574 -0.4394
19396SOL    HW266967   4.298   9.288   2.693 -2.3363  0.0257  1.1455
19397SOL     OW66968   0.061   0.831   3.877 -0.6028 -0.1233 -0.0676
19397SOL    HW166969   0.082   0.772   3.804 -2.3138 -0.3910 -0.3925
19397SOL    HW266970   0.045   0.772   3.951  0.6042  0.1227  0.4183
19398SOL     OW66971   1.334   6.067   1.886 -0.0408 -0.6694 -0.1177
19398SOL    HW166972   1.425   6.067   1.916  1.1534  0.2127 -3.3402
19398SOL    HW266973   1.313   5.974   1.873  1.1835 -0.8070 -1.3264
19399SOL     OW66974   3.652   5.024   2.744 -0.2236  0.0060 -0.1739
19399SOL    HW166975   3.661   5.051   2.836  0.4890 -0.8654  0.0249
19399SOL    HW266976   3.638   5.106   2.697 -2.5722  0.3284  0.9227
19400SOL     OW66977   7.582   7.679   4.153 -0.7097 -1.0099 -0.4994
19400SOL    HW166978   7.534   7.603   4.187 -0.6548  0.4028  3.2295
19400SOL    HW266979   7.674   7.653   4.156 -0.7831 -1.3138 -0.7955
19401SOL     OW66980   2.652   9.948   2.364  0.6051  0.3385  0.4181
19401SOL    HW166981   2.679   9.858   2.347  1.2486  0.7677 -0.9763
19401SOL    HW266982   2.632   9.983   2.277  0.3936  1.5514  0.9418
19402SOL     OW66983  12.224  10.053   3.851 -0.0120  0.7444  0.1495
19402SOL    HW166984  12.284   9.990   3.811 -1.5277 -1.0586  0.5868
19402SOL    HW266985  12.246  10.051   3.945  0.7504  1.8497  0.0224
19403SOL     OW66986   9.090   0.253   6.320  0.3881 -0.2298 -0.2559
19403SOL    HW166987   9.157   0.234   6.255  1.1087 -0.2863  0.4840
19403SOL    HW266988   9.058   0.340   6.297  1.4722  0.2507 -0.0098
19404SOL     OW66989   2.335   4.385   1.403  0.1656 -0.5232 -0.2963
19404SOL    HW166990   2.249   4.374   1.361 -1.1584  0.1134  2.0683
19404SOL    HW266991   2.397   4.379   1.331 -1.8581 -0.9416 -2.1255
19405SOL     OW66992   2.063   9.285  11.055 -0.1647 -0.0168 -0.3713
19405SOL    HW166993   2.139   9.286  10.997  0.8987  0.1412  0.9629
19405SOL    HW266994   2.078   9.357  11.116 -0.5818 -0.9480  0.8834
19406SOL     OW66995  11.719  10.598   9.833 -0.1235  0.4632 -0.2090
19406SOL    HW166996  11.671  10.612   9.914  0.8408  1.5164  0.1989
19406SOL    HW266997  11.668  10.531   9.786 -0.7005 -0.1470  1.2374
19407SOL     OW66998   5.780   3.880   0.052  0.2880 -0.0990  0.1211
19407SOL    HW166999   5.803   3.871   0.145  0.6517 -0.3936  0.0023
19407SOL    HW267000   5.729   3.802   0.032 -3.6063  1.9397  1.1880
19408SOL     OW67001   3.025  11.348   9.837 -0.1850 -0.0222  0.4525
19408SOL    HW167002   3.047  11.426   9.887  0.1368  1.1238 -1.3716
19408SOL    HW267003   2.960  11.378   9.773  1.0233 -0.8662 -1.2474
19409SOL     OW67004   8.057   3.613   8.064  0.1914  0.0188 -0.0976
19409SOL    HW167005   8.006   3.590   8.142  1.8633 -0.4698  0.8998
19409SOL    HW267006   8.110   3.535   8.046 -0.4874 -0.0477 -2.0242
19410SOL     OW67007   4.934   3.266   7.983 -0.1709  0.5742 -0.2413
19410SOL    HW167008   4.898   3.344   7.942 -0.7754  0.9406  0.9292
19410SOL    HW267009   4.874   3.247   8.056  1.0347  0.1612  0.6839
19411SOL     OW67010   2.482   3.727   1.767  0.1555  0.0184 -0.5818
19411SOL    HW167011   2.393   3.717   1.733  0.6175  0.5733 -2.0140
19411SOL    HW267012   2.517   3.638   1.767 -0.7135 -0.3649  0.9875
19412SOL     OW67013  10.361   2.637   9.761  0.1853 -0.1107 -0.2567
19412SOL    HW167014  10.437   2.658   9.706  1.5028  0.3589  1.6602
19412SOL    HW267015  10.286   2.656   9.705  1.4402 -0.2578 -2.1073
19413SOL     OW67016   4.992   0.808   2.991 -0.1416 -0.1370  0.0978
19413SOL    HW167017   5.033   0.797   3.077 -1.0119 -1.8787  0.3195
19413SOL    HW267018   5.057   0.774   2.930 -0.1885 -0.4473  0.2184
19414SOL     OW67019   2.788   7.441   9.338 -0.1026  0.0179  0.7725
19414SOL    HW167020   2.807   7.348   9.326 -0.4106  0.1294 -0.7136
19414SOL    HW267021   2.714   7.443   9.399  0.2700 -0.6827  1.2527
19415SOL     OW67022   3.159  11.797   5.570 -0.0338  0.3358  0.4677
19415SOL    HW167023   3.152  11.744   5.491 -0.1075  0.4150  0.4203
19415SOL    HW267024   3.068  11.816   5.594 -0.0778 -1.1198  1.5472
19416SOL     OW67025   3.550   3.608  10.434 -0.3126 -0.1908  0.4198
19416SOL    HW167026   3.475   3.553  10.412  0.6481 -2.0019  1.4607
19416SOL    HW267027   3.626   3.558  10.405  0.6358  0.2598  1.9983
19417SOL     OW67028  12.431   2.472  11.932  0.3280  0.1689 -0.2055
19417SOL    HW167029  12.481   2.405  11.980  0.8288  0.8437  0.2269
19417SOL    HW267030  12.454   2.554  11.975 -2.8062  0.3322  1.4701
19418SOL     OW67031  12.232  12.129   1.131  0.4084 -0.8119 -0.1494
19418SOL    HW167032  12.268  12.211   1.096  1.4302 -0.4809  1.5130
19418SOL    HW267033  12.306  12.088   1.177  0.0771 -3.0026 -1.4417
19419SOL     OW67034  11.238  12.401   2.819 -0.4900 -0.3753 -0.0786
19419SOL    HW167035  11.176  12.474   2.813  0.7397  0.6323 -1.3525
19419SOL    HW267036  11.299  12.428   2.887  0.1099 -0.0569 -0.7217
19420SOL     OW67037   7.897   2.476   3.413  0.1176  0.1034 -0.0196
19420SOL    HW167038   7.941   2.417   3.473 -1.3148 -1.6181 -0.5613
19420SOL    HW267039   7.840   2.419   3.361 -1.9639  2.0637 -0.0242
19421SOL     OW67040   2.699   8.407  10.344 -0.5079 -0.3477  0.1090
19421SOL    HW167041   2.668   8.319  10.324  0.9832 -0.9617  0.3524
19421SOL    HW267042   2.689   8.415  10.439  0.6860 -0.8252  0.2935
19422SOL     OW67043   4.938   7.787   1.600 -0.1543  0.2340 -0.5474
19422SOL    HW167044   5.032   7.802   1.609 -0.0297 -0.9838  0.3608
19422SOL    HW267045   4.923   7.783   1.506  0.7401  0.1760 -0.6913
19423SOL     OW67046   6.167  11.455   6.964  0.2701 -0.0238 -0.3741
19423SOL    HW167047   6.166  11.500   7.048  1.8132  0.3902 -0.5409
19423SOL    HW267048   6.137  11.521   6.901  1.2361  0.3630 -0.4367
19424SOL     OW67049   0.511  10.839  10.944 -0.1148 -0.0730  0.5545
19424SOL    HW167050   0.459  10.918  10.959 -0.3551 -0.2054  0.4108
19424SOL    HW267051   0.447  10.768  10.944 -0.1096 -0.0999 -0.9620
19425SOL     OW67052   1.942   2.817   0.105  0.4949 -0.1152 -0.7837
19425SOL    HW167053   1.862   2.773   0.075 -0.2294  0.8067 -0.2411
19425SOL    HW267054   2.012   2.773   0.057 -0.2545 -1.4657 -0.6952
19426SOL     OW67055  10.294   6.655   3.790 -0.5909  0.2931  0.2998
19426SOL    HW167056  10.232   6.684   3.857 -0.5779  1.1707 -0.0658
19426SOL    HW267057  10.374   6.636   3.839 -0.5350  1.0779  0.5194
19427SOL     OW67058   2.361  10.538   3.509  0.3091 -0.2085 -0.1768
19427SOL    HW167059   2.364  10.610   3.446  4.0804  0.2690  0.3160
19427SOL    HW267060   2.303  10.569   3.579 -1.5722  0.4468 -1.9208
19428SOL     OW67061   7.115   4.185   2.589  0.8922  0.1209  0.1765
19428SOL    HW167062   7.203   4.169   2.624  0.6142 -0.2024  0.7476
19428SOL    HW267063   7.088   4.268   2.629  0.2914 -0.6046  1.3222
19429SOL     OW67064  12.526   5.171   3.206 -0.7829  0.3713 -0.1474
19429SOL    HW167065  12.538   5.172   3.112 -2.8087  1.3920 -0.4567
19429SOL    HW267066  12.540   5.080   3.232  0.1957  0.1585 -1.3440
19430SOL     OW67067   6.177  11.459   0.754  0.2101 -0.0431  0.0938
19430SOL    HW167068   6.216  11.498   0.676  1.4634  0.4204  0.9200
19430SOL    HW267069   6.095  11.421   0.723 -0.8002  2.6836 -0.8748
19431SOL     OW67070   7.418  12.006   5.732  0.2185  0.2667 -0.8172
19431SOL    HW167071   7.500  12.027   5.688  0.0567  0.2807 -1.1144
19431SOL    HW267072   7.414  11.910   5.729  0.0642  0.2814 -1.0971
19432SOL     OW67073   6.543   4.880   6.112  0.0500 -0.3111  0.4161
19432SOL    HW167074   6.519   4.892   6.204  0.2756 -2.6248  0.8214
19432SOL    HW267075   6.497   4.951   6.067 -0.7393  0.3819  2.1938
19433SOL     OW67076   5.394  10.996   8.105 -0.3623  0.7360  0.5303
19433SOL    HW167077   5.306  10.960   8.096 -2.1965  4.8919 -0.4604
19433SOL    HW267078   5.451  10.929   8.067 -3.0870 -1.8266  0.5794
19434SOL     OW67079   7.087   2.099   5.008 -0.2309  0.6909 -0.6857
19434SOL    HW167080   7.010   2.078   4.956  0.1221  1.3627 -1.4881
19434SOL    HW267081   7.160   2.096   4.946  0.3361  0.5038 -0.0248
19435SOL     OW67082   5.942   5.192  12.111 -0.0092  0.3143  0.0777
19435SOL    HW167083   6.018   5.212  12.056  0.7898  0.6603  1.2455
19435SOL    HW267084   5.958   5.103  12.142  1.0093  1.0874  1.9387
19436SOL     OW67085   4.735   5.185   9.232 -0.7269  0.1642  0.4199
19436SOL    HW167086   4.791   5.252   9.193 -0.8187  2.1324  3.3315
19436SOL    HW267087   4.781   5.103   9.216  2.8770  1.6293  2.2047
19437SOL     OW67088   2.679   0.562  11.985 -0.0012  0.2284  0.1127
19437SOL    HW167089   2.613   0.498  11.958  0.8088 -0.6354  0.1426
19437SOL    HW267090   2.724   0.586  11.904  1.2120 -0.9819  0.4011
19438SOL     OW67091   2.995   1.327   2.253  0.3841 -0.1419  0.5595
19438SOL    HW167092   2.911   1.372   2.255 -0.0317 -0.9067  1.7441
19438SOL    HW267093   3.049   1.373   2.317  1.4271  1.3022 -1.2753
19439SOL     OW67094   3.384   3.611   9.243  0.4062  0.1465  0.1349
19439SOL    HW167095   3.390   3.705   9.228 -1.8889  0.5227  1.0637
19439SOL    HW267096   3.370   3.603   9.338 -3.5676 -0.7139 -0.3464
19440SOL     OW67097   6.958   2.442   8.236 -0.1231 -0.0305 -0.0492
19440SOL    HW167098   6.904   2.437   8.314  0.6433 -0.7475  0.4436
19440SOL    HW267099   7.044   2.469   8.267  0.1027  0.0163 -0.6874
19441SOL     OW67100   5.235   6.349   7.990  0.1465 -0.4618 -0.3274
19441SOL    HW167101   5.258   6.353   8.083 -0.5306 -0.8444 -0.1356
19441SOL    HW267102   5.145   6.316   7.989  0.4115 -1.2165 -1.1451
19442SOL     OW67103   2.953   5.972   5.158 -0.1976  0.9253  0.4795
19442SOL    HW167104   2.957   5.877   5.166 -0.8148  0.8076 -0.4423
19442SOL    HW267105   2.874   5.998   5.206 -0.1208  0.9580  0.5896
19443SOL     OW67106   7.815   9.941   2.232 -0.1100  0.1608  0.2754
19443SOL    HW167107   7.788   9.939   2.140  0.2979 -0.1788  0.1599
19443SOL    HW267108   7.762   9.874   2.274  0.6514 -0.6269  0.0143
19444SOL     OW67109  11.698  10.759   0.003  0.4544 -0.1194  0.1964
19444SOL    HW167110  11.779  10.711   0.019 -1.2335 -2.9872  0.7413
19444SOL    HW267111  11.674  10.738  -0.087 -1.5246 -2.5025  1.1505
19445SOL     OW67112   0.861  10.659   6.308  0.3544 -0.1235  0.0580
19445SOL    HW167113   0.798  10.681   6.239  0.4728 -1.9224 -0.6592
19445SOL    HW267114   0.929  10.725   6.300 -0.1817  0.3474 -0.8154
19446SOL     OW67115   0.886   2.352   7.511  0.8062  0.3454 -0.4844
19446SOL    HW167116   0.866   2.441   7.483 -3.0611 -0.5804 -1.2709
19446SOL    HW267117   0.915   2.307   7.431  1.3242  0.5238 -0.4000
19447SOL     OW67118   0.441   4.821   0.047 -0.1404 -0.2105  0.1873
19447SOL    HW167119   0.420   4.748  -0.012  0.8458 -0.1731 -0.2322
19447SOL    HW267120   0.529   4.801   0.080 -1.8775 -2.0101  4.4107
19448SOL     OW67121   4.263   4.636   0.627  0.1498  0.4832  0.2372
19448SOL    HW167122   4.263   4.568   0.560  0.9611 -0.7233  1.4329
19448SOL    HW267123   4.241   4.716   0.579  0.5451 -0.3678 -1.4364
19449SOL     OW67124   9.509  11.631   0.566  0.0078  0.2032  0.2163
19449SOL    HW167125   9.425  11.675   0.552 -1.0025 -0.7809  2.7071
19449SOL    HW267126   9.551  11.679   0.637  0.6617 -0.5265  0.3461
19450SOL     OW67127  11.105   5.609   1.341 -0.4178 -0.0329  0.1129
19450SOL    HW167128  11.132   5.578   1.428 -0.8511  0.4903  0.4377
19450SOL    HW267129  11.142   5.697   1.334  2.1748 -1.1356 -1.4520
19451SOL     OW67130   2.679   5.050   1.558  0.0638  0.2391 -0.4823
19451SOL    HW167131   2.668   5.109   1.483 -1.7540 -0.1748 -0.5736
19451SOL    HW267132   2.768   5.017   1.549  1.2392  3.0512 -0.3559
19452SOL     OW67133   3.488  11.365   3.439  0.0301 -0.6056 -0.0129
19452SOL    HW167134   3.402  11.388   3.475 -0.6673 -0.2747 -1.8079
19452SOL    HW267135   3.548  11.429   3.478 -0.6547 -0.3857  0.6971
19453SOL     OW67136  12.473   8.172   9.591 -0.1044 -0.2360  0.9836
19453SOL    HW167137  12.515   8.092   9.559  1.1469  0.3097  1.2140
19453SOL    HW267138  12.415   8.142   9.661  0.4466 -0.9235  1.1529
19454SOL     OW67139  10.509   2.788   8.014 -0.0995  0.7127  0.0157
19454SOL    HW167140  10.492   2.726   8.084  0.3343 -0.1591 -0.6305
19454SOL    HW267141  10.464   2.751   7.938  0.6466  0.8772 -0.5174
19455SOL     OW67142   9.037   2.287   8.769  0.4003 -0.0533  0.6693
19455SOL    HW167143   9.016   2.379   8.756  1.1511 -0.0058 -0.3414
19455SOL    HW267144   9.056   2.254   8.681  0.1348 -1.1793  1.0103
19456SOL     OW67145  10.153  11.802  11.124  0.0697  0.3808  0.4338
19456SOL    HW167146  10.234  11.851  11.138  0.4603 -0.5575  1.6852
19456SOL    HW267147  10.181  11.719  11.087 -0.1840 -0.3690  1.8585
19457SOL     OW67148  12.274   8.018  11.472 -0.1459 -0.1727  0.2254
19457SOL    HW167149  12.305   7.940  11.426  1.8603  1.7471 -1.9196
19457SOL    HW267150  12.343   8.037  11.536 -1.2342 -0.8051  1.6461
19458SOL     OW67151  11.921   1.887   4.807  0.7632  0.3458  0.0310
19458SOL    HW167152  11.870   1.891   4.726  0.0085  0.1756  0.4825
19458SOL    HW267153  11.970   1.805   4.802 -0.5887 -0.5271  0.4834
19459SOL     OW67154   0.117   2.770   2.063 -0.1732 -0.2027  0.8527
19459SOL    HW167155   0.040   2.809   2.105 -0.5925 -0.8960  0.7575
19459SOL    HW267156   0.138   2.829   1.990 -2.6306 -1.6133 -1.1763
19460SOL     OW67157   6.738   4.836  11.850 -0.0982  0.1924 -0.5475
19460SOL    HW167158   6.668   4.892  11.882 -1.9560 -1.5165 -1.4145
19460SOL    HW267159   6.808   4.846  11.915 -1.4996  1.2148  0.8907
19461SOL     OW67160   4.107   7.870   2.517  0.3868 -0.3471  0.1093
19461SOL    HW167161   4.032   7.830   2.473  0.2228 -1.5311  1.3931
19461SOL    HW267162   4.156   7.795   2.553  0.4073  0.5608  2.0708
19462SOL     OW67163   3.939   1.772   7.778  0.1161 -0.3897 -0.0606
19462SOL    HW167164   3.966   1.864   7.770  1.6314 -0.5724  2.0187
19462SOL    HW267165   3.850   1.770   7.743  0.0593  1.8675 -0.1873
19463SOL     OW67166  12.357  10.788  10.267  0.2225 -0.0577  0.0411
19463SOL    HW167167  12.336  10.695  10.281  1.3588 -0.2075  0.9310
19463SOL    HW267168  12.444  10.786  10.227 -0.5264  0.5921 -1.7173
19464SOL     OW67169   0.155   2.264   3.342  0.5096 -0.3631  0.0777
19464SOL    HW167170   0.173   2.327   3.272 -1.4263  0.4642  0.2413
19464SOL    HW267171   0.150   2.318   3.421 -1.8149 -0.5296  0.1363
19465SOL     OW67172   6.829   5.731   6.643 -0.0921 -0.0869 -0.1233
19465SOL    HW167173   6.821   5.646   6.600 -0.0809 -0.6297  0.9173
19465SOL    HW267174   6.903   5.773   6.600 -0.6570 -0.2292 -1.2550
19466SOL     OW67175   6.445   6.577   0.911  0.1344  0.1983 -0.6063
19466SOL    HW167176   6.409   6.654   0.955  1.3397 -0.0331  0.8895
19466SOL    HW267177   6.371   6.516   0.904 -0.2125  0.4446  0.6893
19467SOL     OW67178  12.026  11.381   8.386 -0.4301 -0.7024 -0.1980
19467SOL    HW167179  11.932  11.393   8.396 -0.1085  1.3752  0.9313
19467SOL    HW267180  12.040  11.288   8.405 -2.4223 -1.5280 -2.3606
19468SOL     OW67181   4.253   7.480  10.246 -0.0620 -0.4452 -0.0582
19468SOL    HW167182   4.324   7.415  10.243  0.8177  0.4131  1.0774
19468SOL    HW267183   4.287   7.555  10.197  0.1278  0.2355  1.0740
19469SOL     OW67184   7.555   1.112   8.815 -0.0131  0.2163  0.5384
19469SOL    HW167185   7.536   1.183   8.754  0.1979 -0.4069 -0.2703
19469SOL    HW267186   7.514   1.035   8.776 -0.3943 -0.0727  1.5005
19470SOL     OW67187   0.484  12.162   6.258  0.7419  0.3862 -0.2138
19470SOL    HW167188   0.477  12.083   6.204 -2.6139  0.7098 -0.5183
19470SOL    HW267189   0.487  12.234   6.194 -0.6859  0.6468 -0.0279
19471SOL     OW67190   7.886   5.209   7.906 -0.4184 -0.4429  0.4578
19471SOL    HW167191   7.898   5.246   7.819 -2.5799  0.9612  0.6602
19471SOL    HW267192   7.943   5.132   7.908  1.6777  0.9582 -1.2230
19472SOL     OW67193   3.020   1.254  10.864 -0.4803 -0.0513 -0.2681
19472SOL    HW167194   3.066   1.215  10.790 -0.7031  0.1704 -0.5271
19472SOL    HW267195   3.088   1.275  10.928 -0.3011 -0.3507 -0.3618
19473SOL     OW67196   4.167   3.164  11.512  0.5649  0.5206  0.0166
19473SOL    HW167197   4.209   3.093  11.463  1.9312  0.0734  1.7339
19473SOL    HW267198   4.100   3.120  11.565  0.7977  0.6268  0.4045
19474SOL     OW67199  12.159  11.956   9.014 -0.1619 -0.1892 -0.2826
19474SOL    HW167200  12.199  12.043   9.019  0.4760 -0.4456 -0.8101
19474SOL    HW267201  12.227  11.901   8.977 -1.2624 -0.4788 -2.0021
19475SOL     OW67202   3.614   0.734   0.835  0.2604  0.1962 -0.4532
19475SOL    HW167203   3.696   0.766   0.873  0.3873  1.8458 -1.9935
19475SOL    HW267204   3.547   0.795   0.865 -0.1381 -0.2234 -0.4809
19476SOL     OW67205  12.022  11.842   3.007  0.0258 -0.1625 -0.6579
19476SOL    HW167206  11.984  11.754   3.003 -0.3570  0.0157 -1.0782
19476SOL    HW267207  12.107  11.834   2.964  0.1239 -0.3948 -0.4197
19477SOL     OW67208  11.593  10.098   4.805 -0.5395 -0.6317  1.1414
19477SOL    HW167209  11.597  10.191   4.782  0.7538 -1.1410 -0.8864
19477SOL    HW267210  11.640  10.093   4.889  2.7115  0.1123 -0.4709
19478SOL     OW67211   9.789   3.116   8.722  0.7614 -0.2734  0.3584
19478SOL    HW167212   9.826   3.103   8.810  0.0965  2.6272  1.1555
19478SOL    HW267213   9.816   3.204   8.697 -1.2911 -0.0148 -1.2249
19479SOL     OW67214   5.774   2.975   1.841  0.6709  0.1328  0.0272
19479SOL    HW167215   5.844   2.932   1.791  0.7870  1.2388 -0.7882
19479SOL    HW267216   5.741   3.043   1.783  0.1255  0.7965  1.0834
19480SOL     OW67217   0.645   9.577   7.780  0.2236  0.8130  0.1834
19480SOL    HW167218   0.660   9.570   7.686  0.0162  0.2614  0.1862
19480SOL    HW267219   0.577   9.512   7.799 -0.1728  1.3460  0.6198
19481SOL     OW67220   0.565   9.237  10.326 -0.2318  0.9684  0.3770
19481SOL    HW167221   0.594   9.223  10.236 -0.6325  1.9937  0.0798
19481SOL    HW267222   0.525   9.153  10.350  2.8937 -0.5372  0.8391
19482SOL     OW67223   7.880   3.489   7.004  0.5270 -0.5179 -0.8194
19482SOL    HW167224   7.892   3.404   7.046  1.9643 -0.2759 -0.6987
19482SOL    HW267225   7.899   3.472   6.911  1.0588 -0.2734 -0.7530
19483SOL     OW67226   0.911   5.511   2.854 -0.4664  0.5361 -0.5920
19483SOL    HW167227   0.898   5.554   2.770  0.7664 -0.0319 -1.1008
19483SOL    HW267228   0.999   5.537   2.881 -0.5126  0.0052  0.0940
19484SOL     OW67229   7.904   3.595   4.553  0.1165 -0.3849  0.4531
19484SOL    HW167230   7.868   3.639   4.477 -1.0115 -0.4128  0.9470
19484SOL    HW267231   7.955   3.522   4.517 -0.2860 -0.3140 -0.2774
19485SOL     OW67232  11.195   8.364   0.648  0.0135  0.8543 -0.1593
19485SOL    HW167233  11.201   8.351   0.743  0.4972  0.4828 -0.2378
19485SOL    HW267234  11.103   8.349   0.627 -0.0352  0.6410  0.2082
19486SOL     OW67235  10.764  11.188   5.920 -0.1836 -0.4132 -0.4896
19486SOL    HW167236  10.741  11.114   5.864  0.1608 -0.5574 -0.4445
19486SOL    HW267237  10.702  11.257   5.895  0.7705 -0.0283 -1.9793
19487SOL     OW67238  11.976   7.014  11.687  0.1193  0.2815 -0.5466
19487SOL    HW167239  12.041   7.004  11.618 -0.2563 -1.1086 -0.7132
19487SOL    HW267240  11.909   6.948  11.669  1.0665 -1.6842  2.3090
19488SOL     OW67241  12.148   2.880   1.984 -0.1379 -0.5560  0.2157
19488SOL    HW167242  12.104   2.953   2.027 -0.1025 -0.4391  0.0546
19488SOL    HW267243  12.080   2.814   1.973 -0.3149 -0.3131 -0.1807
19489SOL     OW67244   3.816   1.540  12.509  0.9679 -0.4810  0.2776
19489SOL    HW167245   3.885   1.533  12.575  1.1036 -1.5035  0.0516
19489SOL    HW267246   3.863   1.567  12.429  0.6123  2.1559  0.8758
19490SOL     OW67247   1.929  11.637   8.614  0.1747 -0.6002  0.4693
19490SOL    HW167248   1.967  11.710   8.662  1.1436 -1.1187  0.5272
19490SOL    HW267249   1.936  11.563   8.674 -0.4649 -0.8249  0.2761
19491SOL     OW67250   5.269   6.137   5.763  0.3912  0.2907  0.9930
19491SOL    HW167251   5.292   6.070   5.827 -1.9771 -0.0395  1.5973
19491SOL    HW267252   5.353   6.170   5.731  1.6232 -1.9373  1.7379
19492SOL     OW67253   8.484   7.323  10.441  0.5086 -0.1855 -0.0159
19492SOL    HW167254   8.514   7.268  10.513  0.4898  0.1210  0.2295
19492SOL    HW267255   8.394   7.294  10.424  0.7238 -0.6788 -0.3319
19493SOL     OW67256   3.574   8.928   1.606 -0.2213  0.0636 -0.3750
19493SOL    HW167257   3.615   8.903   1.523 -1.4573 -2.7533 -0.2563
19493SOL    HW267258   3.646   8.964   1.658  1.0199 -0.0751 -1.9017
19494SOL     OW67259   1.778   8.059   3.569  0.2848  0.1596  0.0473
19494SOL    HW167260   1.703   8.092   3.521  1.5612  1.6601 -0.9993
19494SOL    HW267261   1.837   8.024   3.502  0.7810 -0.4939  0.7955
19495SOL     OW67262   9.536   5.011   8.423  0.1524  0.1393 -0.0447
19495SOL    HW167263   9.527   5.079   8.490  0.3453 -0.2062  0.3433
19495SOL    HW267264   9.557   5.058   8.343 -0.2997  0.5802  0.0922
19496SOL     OW67265   9.901   0.482   9.230  0.0208 -0.0312 -0.0975
19496SOL    HW167266   9.830   0.524   9.279  1.3728 -0.7425  2.6524
19496SOL    HW267267   9.949   0.554   9.190  1.1642  1.0507  2.9502
19497SOL     OW67268   5.084  10.412   8.100  0.5009 -0.1946 -0.2793
19497SOL    HW167269   5.164  10.381   8.142  0.7169  0.7267  0.0287
19497SOL    HW267270   5.115  10.458   8.021  0.3274  0.6277  0.1208
19498SOL     OW67271   6.119  10.038   7.963  0.4534 -0.3240  0.2879
19498SOL    HW167272   6.122  10.101   8.035 -0.6488 -0.4091  0.4261
19498SOL    HW267273   6.167  10.080   7.892 -1.1902  1.1789 -0.0033
19499SOL     OW67274  11.807   6.198   9.277 -0.4528  0.2041  0.2809
19499SOL    HW167275  11.781   6.274   9.225 -0.0904 -0.2879 -0.6430
19499SOL    HW267276  11.737   6.134   9.261 -0.3441  0.0534  0.4118
19500SOL     OW67277   1.663   6.085   8.522  0.3840 -0.2629  0.4014
19500SOL    HW167278   1.708   6.032   8.588 -1.3503 -1.5696  0.6208
19500SOL    HW267279   1.612   6.022   8.471 -0.1101  0.9816 -0.7113
19501SOL     OW67280  10.073   7.134   3.836 -0.1956  0.0812 -0.0184
19501SOL    HW167281  10.150   7.078   3.822 -0.7071 -0.6824  0.1809
19501SOL    HW267282  10.042   7.153   3.748 -0.1330 -0.1131 -0.0844
19502SOL     OW67283   3.834  11.039   8.182  0.3117 -0.2091  0.4205
19502SOL    HW167284   3.770  11.110   8.186  1.0218  0.4170  0.9572
19502SOL    HW267285   3.792  10.972   8.127  0.1631  1.1591 -1.2210
19503SOL     OW67286  11.837   9.330   0.276  0.0677 -0.5521  0.6467
19503SOL    HW167287  11.928   9.357   0.288 -0.1996  0.0786  1.3127
19503SOL    HW267288  11.829   9.313   0.182  0.7162 -0.0056  0.4876
19504SOL     OW67289   8.420   5.559   4.067 -0.1927 -0.3680 -0.4081
19504SOL    HW167290   8.334   5.589   4.096  0.5566  0.5827  0.9400
19504SOL    HW267291   8.479   5.631   4.088  1.1790 -1.5715  0.0487
19505SOL     OW67292   2.464   6.913   4.055 -0.0256  0.0447  0.7214
19505SOL    HW167293   2.555   6.933   4.080 -0.5812  2.9062  0.7779
19505SOL    HW267294   2.418   6.907   4.138 -0.2364  0.5710  0.6444
19506SOL     OW67295   2.509   3.482   2.155 -0.1528  0.7897 -0.0975
19506SOL    HW167296   2.423   3.484   2.114 -1.2522 -1.6605  1.8248
19506SOL    HW267297   2.497   3.527   2.239  0.8056  1.5434 -0.3375
19507SOL     OW67298   5.088   3.035   9.217  0.2542 -0.2684 -0.2864
19507SOL    HW167299   5.055   3.070   9.134  0.3172 -0.7717 -0.5253
19507SOL    HW267300   5.010   3.023   9.270  0.3215  1.2381  0.1941
19508SOL     OW67301   0.813  11.844   4.482 -0.1695 -0.0163 -0.4327
19508SOL    HW167302   0.792  11.812   4.394 -0.3886 -0.0885 -0.3534
19508SOL    HW267303   0.773  11.780   4.541  2.1533 -1.4163 -0.2597
19509SOL     OW67304   3.175   2.294   7.733  0.4154  0.2737  0.9323
19509SOL    HW167305   3.154   2.236   7.660  0.1955  0.1982  1.0542
19509SOL    HW267306   3.232   2.242   7.789  1.1690  0.5763  0.4565
19510SOL     OW67307   2.575   9.518   2.894 -0.0452 -0.1411 -0.0409
19510SOL    HW167308   2.511   9.585   2.871  0.3809  0.6395  0.9925
19510SOL    HW267309   2.523   9.451   2.940 -0.1575  0.4531  0.7287
19511SOL     OW67310   4.267   1.400  12.566 -0.6098 -0.8795  0.8192
19511SOL    HW167311   4.290   1.480  12.519  1.0985 -0.8140  1.7041
19511SOL    HW267312   4.278   1.330  12.501 -1.0707 -0.5210  0.3452
19512SOL     OW67313  10.755   2.894  11.430 -0.2584  0.0602  0.6250
19512SOL    HW167314  10.755   2.835  11.505 -0.9484  0.5713  1.0424
19512SOL    HW267315  10.813   2.853  11.367  0.6338 -0.1862  1.5853
19513SOL     OW67316   7.675   3.190   7.998  0.0899  0.2661 -0.9223
19513SOL    HW167317   7.675   3.172   8.092 -1.0697 -0.2536 -1.0023
19513SOL    HW267318   7.687   3.284   7.992 -1.2915  0.5215 -0.1754
19514SOL     OW67319  11.018   3.946   5.590  1.3196  0.2157  0.1677
19514SOL    HW167320  11.093   3.897   5.556  0.2049 -1.0995 -0.4835
19514SOL    HW267321  10.956   3.949   5.517  1.0880  2.1049  0.3800
19515SOL     OW67322   8.010   1.339   6.051 -0.2436  0.5263  0.3565
19515SOL    HW167323   8.015   1.384   5.966  1.2817  0.2191  0.2416
19515SOL    HW267324   7.998   1.247   6.028 -0.5986  0.5378  0.4990
19516SOL     OW67325   6.209   7.965   1.527  0.0051 -0.2085 -0.1847
19516SOL    HW167326   6.244   7.930   1.609 -1.2438  0.9960  0.9217
19516SOL    HW267327   6.280   7.954   1.464  1.1425 -0.8228  1.1451
19517SOL     OW67328   4.067   0.068  12.009 -0.3056 -0.9508 -0.2272
19517SOL    HW167329   4.098   0.081  12.098  1.3486  1.4677 -1.0504
19517SOL    HW267330   3.978   0.104  12.008 -0.8484 -2.1924  0.6957
19518SOL     OW67331   1.385   8.218  11.720 -0.0130  0.0169  0.2734
19518SOL    HW167332   1.456   8.222  11.784 -0.7661 -2.3731  1.3602
19518SOL    HW267333   1.306   8.203  11.772 -1.4558  2.8399 -0.8770
19519SOL     OW67334   8.892   6.772   4.611 -0.1462 -0.2418  0.6445
19519SOL    HW167335   8.846   6.811   4.537  1.0123 -0.1205 -0.0534
19519SOL    HW267336   8.953   6.710   4.570  0.4781 -0.2055  1.5027
19520SOL     OW67337   8.778  10.705  11.656 -0.3207  0.0860  0.5012
19520SOL    HW167338   8.703  10.651  11.680 -0.3696 -0.4339 -0.7322
19520SOL    HW267339   8.782  10.772  11.724 -1.5902 -0.1764  0.8614
19521SOL     OW67340   9.353   4.440   8.884 -0.0266  0.3812 -0.1986
19521SOL    HW167341   9.329   4.533   8.890  0.7578  0.6529 -0.9811
19521SOL    HW267342   9.338   4.406   8.972 -0.6696  1.1629  0.0149
19522SOL     OW67343   0.287   1.748   4.853  0.0098 -0.8101 -0.1514
19522SOL    HW167344   0.355   1.717   4.912 -0.1125  0.8425  0.8983
19522SOL    HW267345   0.207   1.706   4.886 -0.2002  0.7308  1.4335
19523SOL     OW67346   0.689  10.826  11.242  0.4459 -0.7016  0.6273
19523SOL    HW167347   0.646  10.741  11.233  1.6815 -1.4785  1.7536
19523SOL    HW267348   0.771  10.817  11.193  1.9711 -1.2138  3.1136
19524SOL     OW67349   7.880   4.174   4.749 -0.1816 -0.5253  0.1565
19524SOL    HW167350   7.837   4.161   4.834 -1.1222 -2.4726 -0.5652
19524SOL    HW267351   7.964   4.130   4.759 -0.1910 -0.5463  0.1401
19525SOL     OW67352  10.507   4.212  10.805  0.5112 -0.5503  0.4112
19525SOL    HW167353  10.521   4.286  10.864  1.0899 -1.1801  1.0844
19525SOL    HW267354  10.571   4.146  10.833  1.1567 -0.6781 -1.2582
19526SOL     OW67355  12.029   7.900   2.053  0.7413  0.3808  0.3010
19526SOL    HW167356  12.035   7.960   2.127  1.9821 -1.2217  1.5869
19526SOL    HW267357  11.983   7.823   2.088  1.1679 -0.3171 -0.6185
19527SOL     OW67358   5.787   2.053   1.102 -1.0807  0.5567 -0.2277
19527SOL    HW167359   5.780   2.098   1.018  0.1369  0.1161 -0.5940
19527SOL    HW267360   5.871   2.007   1.098 -1.4206 -0.2220  0.8732
19528SOL     OW67361   8.204   1.516   7.164 -0.0782 -0.7601 -0.0789
19528SOL    HW167362   8.240   1.602   7.184 -3.3813  0.3136  2.2309
19528SOL    HW267363   8.144   1.532   7.091 -0.0870 -1.2783 -0.1886
19529SOL     OW67364   1.961  11.981   5.325 -0.5379  0.3037 -0.1299
19529SOL    HW167365   1.895  12.049   5.308  0.0910  1.2541  1.0767
19529SOL    HW267366   2.041  12.030   5.344 -0.1725 -0.7586  1.1690
19530SOL     OW67367   6.926   8.758   6.826 -0.4206 -0.4374 -0.1503
19530SOL    HW167368   6.978   8.775   6.748 -0.5201 -0.3175 -0.1896
19530SOL    HW267369   6.864   8.830   6.831 -1.1453 -1.0129 -0.5740
19531SOL     OW67370   1.237  10.089   7.956 -0.4023 -0.0841 -0.2437
19531SOL    HW167371   1.245  10.179   7.927  0.6760 -0.1990 -0.3567
19531SOL    HW267372   1.283  10.086   8.040 -0.6503 -0.4695 -0.1155
19532SOL     OW67373   9.488   1.050   8.092 -0.0605 -0.3236 -0.1613
19532SOL    HW167374   9.555   1.006   8.039  0.3735  0.8002 -0.5759
19532SOL    HW267375   9.527   1.056   8.180  0.2287 -0.0268 -0.3065
19533SOL     OW67376   9.091   3.798   3.432 -0.0638 -0.3717 -0.2042
19533SOL    HW167377   9.164   3.860   3.423 -1.3455  0.9487 -2.5939
19533SOL    HW267378   9.058   3.813   3.521  0.9176  0.9248 -0.0271
19534SOL     OW67379   3.340   6.725   7.622  0.3911 -0.0142 -0.2517
19534SOL    HW167380   3.375   6.742   7.535  0.9020 -0.8543 -0.2235
19534SOL    HW267381   3.353   6.807   7.670 -0.6983  0.7501 -1.2071
19535SOL     OW67382   4.396  10.274   1.124  0.6377 -0.5410  0.2721
19535SOL    HW167383   4.322  10.222   1.155  1.2297 -2.6964 -1.6356
19535SOL    HW267384   4.461  10.268   1.194 -1.2636  2.4446  2.5648
19536SOL     OW67385   0.107   0.374  11.473 -0.0983  0.3000  0.1063
19536SOL    HW167386   0.130   0.415  11.555 -3.4547  1.4183  0.6595
19536SOL    HW267387   0.122   0.441  11.406  0.3296  0.2420  0.1460
19537SOL     OW67388   3.081   1.908   8.429  0.2561  0.0398 -0.0637
19537SOL    HW167389   3.124   1.923   8.345 -0.0710  1.5911  0.0192
19537SOL    HW267390   3.141   1.947   8.493  0.1416 -0.4537  0.3426
19538SOL     OW67391  12.098   4.053   0.624 -0.1504  0.0928  0.1983
19538SOL    HW167392  12.192   4.033   0.620 -0.0777  0.3368  0.6341
19538SOL    HW267393  12.056   3.978   0.583  0.3263  0.7665 -1.6143
19539SOL     OW67394   1.999  11.841  12.481  0.0422 -0.5519  0.0619
19539SOL    HW167395   1.972  11.819  12.570 -0.3260  0.9354  0.3491
19539SOL    HW267396   1.920  11.877  12.440  0.6549  0.5236 -0.2351
19540SOL     OW67397  10.142   0.152   6.857  0.2098  0.0766 -0.6615
19540SOL    HW167398  10.162   0.103   6.777 -0.5471 -3.2317  0.9806
19540SOL    HW267399  10.212   0.127   6.919  1.5181  3.5486 -0.5088
19541SOL     OW67400   7.175   0.804   5.855  0.3714  0.1150  0.3343
19541SOL    HW167401   7.226   0.789   5.934 -1.7084 -2.6088  1.3186
19541SOL    HW267402   7.120   0.879   5.876  0.5829  0.0678  1.0858
19542SOL     OW67403   2.570  11.484  10.826 -0.3677  0.4547 -0.5652
19542SOL    HW167404   2.551  11.576  10.845 -1.0999  0.5112 -1.4659
19542SOL    HW267405   2.542  11.472  10.735  1.7739 -0.1026 -1.2235
19543SOL     OW67406  10.198   7.238   9.095  0.1892  0.3806 -0.2361
19543SOL    HW167407  10.222   7.327   9.072  0.7883  0.3872  0.3643
19543SOL    HW267408  10.249   7.183   9.035 -1.5667  0.4394 -1.8724
19544SOL     OW67409   8.845   2.616   1.864 -0.3284 -0.0494 -0.5679
19544SOL    HW167410   8.888   2.611   1.949 -1.7520  2.1903  0.3747
19544SOL    HW267411   8.917   2.610   1.800  0.7687 -1.6910  0.7402
19545SOL     OW67412  11.544  10.019   3.171  0.2545  0.5446  0.4785
19545SOL    HW167413  11.542   9.923   3.174  0.4479  0.5410  0.4889
19545SOL    HW267414  11.460  10.046   3.209 -0.4611  0.3476 -0.8926
19546SOL     OW67415   0.870   7.988   8.642 -0.0845  0.1160 -0.1939
19546SOL    HW167416   0.964   7.997   8.660 -0.0795  2.8988 -1.2400
19546SOL    HW267417   0.841   7.919   8.702  2.2787  0.4093  1.4101
19547SOL     OW67418   7.165   7.739  10.775 -0.0852 -0.0673  0.0681
19547SOL    HW167419   7.165   7.784  10.690 -2.4748 -0.1087 -0.0241
19547SOL    HW267420   7.226   7.790  10.829  0.4878  0.7339 -1.2847
19548SOL     OW67421   1.253   3.727   7.880  0.1112 -0.0745  0.0486
19548SOL    HW167422   1.232   3.805   7.829 -0.2722 -1.0762 -1.3681
19548SOL    HW267423   1.269   3.659   7.815 -2.4574 -1.9412  1.2301
19549SOL     OW67424   9.905   0.583   0.484 -0.2524 -0.0890  0.0933
19549SOL    HW167425   9.972   0.649   0.502  0.7108 -0.4627 -1.8507
19549SOL    HW267426   9.947   0.521   0.425 -1.2037 -2.3628  1.6517
19550SOL     OW67427  11.184   9.289  11.190 -0.2261  0.1187 -0.3593
19550SOL    HW167428  11.210   9.315  11.279 -0.7146  1.7254 -0.6520
19550SOL    HW267429  11.266   9.284  11.142 -0.1853  3.6208 -0.8862
19551SOL     OW67430  11.252   0.073   8.046  0.3594 -0.3091  0.0537
19551SOL    HW167431  11.283   0.085   8.136  0.1537 -1.2076  0.2481
19551SOL    HW267432  11.275  -0.017   8.024 -1.4217 -0.7717 -0.0585
19552SOL     OW67433   5.725   7.925   3.135 -0.6989 -0.3193 -0.2634
19552SOL    HW167434   5.683   7.867   3.072  0.6866 -0.2089 -1.3465
19552SOL    HW267435   5.818   7.922   3.112 -0.1743 -0.0935  1.6484
19553SOL     OW67436   0.646  12.058  10.750  0.0626  0.4612 -0.2353
19553SOL    HW167437   0.578  12.062  10.817  0.0393  0.0267 -0.2284
19553SOL    HW267438   0.667  11.965  10.743  1.0429  0.6485  0.1552
19554SOL     OW67439   7.284  11.537   8.085 -0.0246 -0.0139  0.0868
19554SOL    HW167440   7.193  11.536   8.113 -0.2324  0.3055 -0.5452
19554SOL    HW267441   7.290  11.612   8.025  1.0792  1.1040  1.5151
19555SOL     OW67442   6.647  10.943   2.628 -0.2216  0.3016 -0.6842
19555SOL    HW167443   6.651  10.891   2.548 -0.6362 -2.1204  0.7630
19555SOL    HW267444   6.592  11.018   2.606 -0.7894 -0.6082 -2.5038
19556SOL     OW67445   8.785  12.269   5.430  0.0870  0.2019  0.2717
19556SOL    HW167446   8.735  12.213   5.488  0.6643  0.9406  1.5108
19556SOL    HW267447   8.794  12.352   5.477  1.5999  0.4264 -0.3403
19557SOL     OW67448   8.627   7.918   1.106  0.0366  0.7557  0.0962
19557SOL    HW167449   8.638   7.868   1.187 -0.2532  1.7170  0.7460
19557SOL    HW267450   8.574   7.861   1.050 -0.4322  0.3935  0.8871
19558SOL     OW67451   6.766   3.481  11.404  0.7379  0.4096  0.0515
19558SOL    HW167452   6.720   3.398  11.399 -1.7687  1.6657  0.8470
19558SOL    HW267453   6.830   3.470  11.475  0.0521 -0.6410  0.5154
19559SOL     OW67454   5.875  11.782  12.355  0.0040 -0.1858 -0.9361
19559SOL    HW167455   5.928  11.848  12.311  3.2247 -1.1601  1.1444
19559SOL    HW267456   5.845  11.825  12.435 -1.2543 -0.0741 -1.4501
19560SOL     OW67457   7.482   1.663   3.129 -0.9222 -0.7487 -0.0988
19560SOL    HW167458   7.511   1.628   3.214 -0.9735  2.2301  1.2850
19560SOL    HW267459   7.556   1.648   3.071 -0.5509 -2.1188  0.6780
19561SOL     OW67460   8.748   5.904   5.887  0.2481  0.1608  0.5586
19561SOL    HW167461   8.779   5.967   5.822  1.2612 -0.7101  0.1603
19561SOL    HW267462   8.683   5.952   5.938  1.2207  1.6227  0.4839
19562SOL     OW67463  11.655  10.595   6.822  0.7026 -0.3110  0.2665
19562SOL    HW167464  11.748  10.585   6.841  0.3306 -2.2768  1.2355
19562SOL    HW267465  11.610  10.539   6.885 -1.2289  1.2669  0.4137
19563SOL     OW67466   8.691   4.930   8.814 -0.7303  0.0189  0.3761
19563SOL    HW167467   8.786   4.928   8.804 -0.4989  0.0607  2.2363
19563SOL    HW267468   8.675   4.884   8.897 -2.4667 -1.3671 -0.6576
19564SOL     OW67469   1.205   3.974   7.771 -0.3017 -0.7173  0.3823
19564SOL    HW167470   1.169   4.027   7.700  0.3385  1.4294  1.5541
19564SOL    HW267471   1.167   4.012   7.850 -0.5714 -2.6947  1.2635
19565SOL     OW67472   4.595   1.514  11.232  0.1595 -0.7305 -0.4413
19565SOL    HW167473   4.600   1.520  11.136  0.9765 -0.3280 -0.3800
19565SOL    HW267474   4.676   1.553  11.263 -1.4504  2.1205  0.5574
19566SOL     OW67475   0.573   3.174  10.955  0.5695  0.3850  0.3508
19566SOL    HW167476   0.587   3.088  10.915  1.2010  0.0075  1.3403
19566SOL    HW267477   0.587   3.159  11.049  1.4141  1.7163  0.4626
19567SOL     OW67478   9.962  11.656  11.889 -0.4673  0.4603  0.5805
19567SOL    HW167479   9.904  11.634  11.962  0.5329  0.7314  1.4810
19567SOL    HW267480  10.002  11.739  11.915  2.1465 -0.8893  1.1371
19568SOL     OW67481   9.982   5.886   5.218 -0.4500  0.0677  0.2705
19568SOL    HW167482  10.006   5.820   5.283  1.2654 -0.6995 -1.0963
19568SOL    HW267483   9.963   5.837   5.138  1.4993  1.1991 -0.9619
19569SOL     OW67484   3.391   6.810   3.290  0.0519  0.8239  0.6040
19569SOL    HW167485   3.387   6.811   3.194 -0.5282  1.1505  0.6283
19569SOL    HW267486   3.457   6.877   3.312  2.1220 -1.0292  0.3662
19570SOL     OW67487  11.994   6.063   9.712 -0.0313  0.3476 -0.0218
19570SOL    HW167488  12.079   6.057   9.756  0.6816 -0.0990 -1.3946
19570SOL    HW267489  12.013   6.111   9.631 -0.8167 -0.9520 -0.9998
19571SOL     OW67490   6.992   2.345   8.607 -0.0492  0.5819  0.1196
19571SOL    HW167491   6.934   2.303   8.671  0.4009 -2.8615 -1.4619
19571SOL    HW267492   6.934   2.373   8.536 -0.0698 -1.2003 -0.6297
19572SOL     OW67493   0.166   9.160   3.260 -0.1535 -0.0399  0.3795
19572SOL    HW167494   0.125   9.215   3.327 -0.9360 -0.2418  0.0774
19572SOL    HW267495   0.124   9.187   3.178  1.3264  0.7285 -0.1497
19573SOL     OW67496   3.278  11.190  11.562  0.1606 -0.2496 -0.3879
19573SOL    HW167497   3.190  11.152  11.552  0.6266 -1.2247 -0.8919
19573SOL    HW267498   3.309  11.201  11.472  0.5215  0.1765 -0.2098
19574SOL     OW67499   1.238   4.272   5.383  0.4813  0.1466  0.3488
19574SOL    HW167500   1.194   4.229   5.310  0.8992  1.0495 -0.4654
19574SOL    HW267501   1.322   4.228   5.390  0.7563  0.5606 -0.2376
19575SOL     OW67502   6.036  12.405   0.780 -0.4039  0.3967  0.1185
19575SOL    HW167503   6.031  12.318   0.740 -0.3198  0.5797 -0.3028
19575SOL    HW267504   6.083  12.391   0.862 -0.0922  0.0991 -0.1058
19576SOL     OW67505  12.366   2.623   0.039 -0.1587  0.8392  0.5485
19576SOL    HW167506  12.409   2.631   0.123  0.1177 -1.8657  0.7663
19576SOL    HW267507  12.423   2.565  -0.012 -3.3262 -3.0502  0.9036
19577SOL     OW67508   2.738   1.410   0.853  0.2201 -0.5938  0.5711
19577SOL    HW167509   2.741   1.335   0.912 -0.9378  1.4234  3.4085
19577SOL    HW267510   2.658   1.396   0.801 -0.3017 -1.0741  1.4747
19578SOL     OW67511   8.906  12.134   3.434 -0.4945 -0.4869  0.1905
19578SOL    HW167512   8.896  12.193   3.359  1.3821 -1.0633 -0.5716
19578SOL    HW267513   8.962  12.182   3.495 -1.7077 -0.1718  1.0758
19579SOL     OW67514   8.589   9.492   3.616  0.0408 -0.5506  0.2162
19579SOL    HW167515   8.613   9.572   3.570  0.3341 -1.5134 -1.3969
19579SOL    HW267516   8.519   9.518   3.676  0.4599  0.9852  0.0615
19580SOL     OW67517   1.460   0.096   8.648 -0.8014 -0.3480 -0.7792
19580SOL    HW167518   1.424   0.158   8.585 -1.0621 -1.1567 -1.4460
19580SOL    HW267519   1.383   0.052   8.686 -0.6277 -0.1718 -0.2157
19581SOL     OW67520   1.563   7.201   0.997 -0.7081 -0.1141 -0.6217
19581SOL    HW167521   1.618   7.223   1.073  0.0726 -0.3637 -1.1135
19581SOL    HW267522   1.583   7.110   0.978 -2.1187 -0.5629 -0.1343
19582SOL     OW67523  11.993   5.052  12.459  0.2107  0.1470 -0.2103
19582SOL    HW167524  11.946   5.104  12.394  0.7978 -1.2327 -1.8056
19582SOL    HW267525  11.944   4.971  12.466 -0.4865  0.6727  1.9868
19583SOL     OW67526   8.157  10.551   1.957 -0.7064  0.4178 -0.0804
19583SOL    HW167527   8.119  10.473   1.998 -2.8360  0.8767 -1.0415
19583SOL    HW267528   8.127  10.546   1.866 -0.4526  2.0901 -0.2782
19584SOL     OW67529   9.967   4.434  12.571 -0.5827  0.0839  0.1636
19584SOL    HW167530   9.950   4.521  12.534 -1.8340  0.1152  0.7528
19584SOL    HW267531   9.894   4.380  12.539 -0.2619 -0.5429  0.4756
19585SOL     OW67532   4.582  10.571   7.682 -0.3368 -0.0349 -0.3586
19585SOL    HW167533   4.511  10.526   7.727 -0.5959  0.3569 -0.3732
19585SOL    HW267534   4.597  10.519   7.603 -3.9521  2.4446 -3.0276
19586SOL     OW67535   3.520   2.390   9.528  0.1482  0.3580 -0.0430
19586SOL    HW167536   3.453   2.433   9.582 -2.0708 -0.0484 -2.2663
19586SOL    HW267537   3.562   2.327   9.586 -3.0785 -1.0624  0.9808
19587SOL     OW67538  12.135   9.260  12.483  0.2974 -0.1423 -0.2460
19587SOL    HW167539  12.160   9.238  12.393 -0.2932 -1.4084 -0.1227
19587SOL    HW267540  12.071   9.193  12.507 -0.5840  0.9841  0.6478
19588SOL     OW67541  11.559   4.397   6.299  0.3805  0.2767  0.4228
19588SOL    HW167542  11.479   4.376   6.251  1.2988 -0.3066 -0.9009
19588SOL    HW267543  11.618   4.324   6.280  1.8640  1.5566 -0.1096
19589SOL     OW67544   3.985   6.744   9.454  0.3039  0.4143  0.3685
19589SOL    HW167545   4.069   6.742   9.500  0.5954 -0.8674 -0.1853
19589SOL    HW267546   3.920   6.741   9.524  0.7010  0.9991  0.7821
19590SOL     OW67547   0.491   4.014   6.948  0.5856  0.6002  0.9862
19590SOL    HW167548   0.451   4.051   6.869  0.2965  0.9322  1.2849
19590SOL    HW267549   0.416   3.992   7.005  0.7765  0.0818  1.0458
19591SOL     OW67550   3.088   1.827   8.156  0.2878  0.3278  0.0270
19591SOL    HW167551   2.994   1.843   8.170 -0.1214 -1.0307 -0.9369
19591SOL    HW267552   3.101   1.737   8.185  1.8891  1.2868  2.6216
19592SOL     OW67553   9.380   1.333   3.036  0.1061  0.4913 -0.1168
19592SOL    HW167554   9.335   1.255   3.069  0.7217  0.3591  0.4251
19592SOL    HW267555   9.312   1.400   3.032 -0.1106  0.3400  0.8446
19593SOL     OW67556   2.259  12.534   4.543  0.3503  0.4713  0.1105
19593SOL    HW167557   2.269  12.570   4.455  2.6212  1.3791  0.6552
19593SOL    HW267558   2.175  12.568   4.574  0.0093  1.0011 -1.3124
19594SOL     OW67559   5.328   4.085   5.880 -0.1689 -0.0441  0.5680
19594SOL    HW167560   5.344   3.995   5.908  0.8508 -0.6016 -1.6082
19594SOL    HW267561   5.407   4.133   5.905  0.3904 -0.3542 -0.5793
19595SOL     OW67562   9.456   6.506   3.895 -0.7349  0.0241 -0.3848
19595SOL    HW167563   9.467   6.483   3.803 -0.4479 -1.0931 -0.0875
19595SOL    HW267564   9.362   6.499   3.911 -0.7050 -0.5221 -0.4216
19596SOL     OW67565   5.760   8.652   8.322  0.0386  0.2836 -0.0206
19596SOL    HW167566   5.764   8.653   8.418 -4.3414  0.1794  0.3371
19596SOL    HW267567   5.729   8.739   8.299 -2.5508 -0.8033 -0.9504
19597SOL     OW67568   1.151   8.813   4.436  0.0051  0.1558 -0.0767
19597SOL    HW167569   1.153   8.750   4.364  1.1793  0.4589 -0.3349
19597SOL    HW267570   1.070   8.793   4.484 -1.1461  0.3731 -1.8389
19598SOL     OW67571   5.985  10.429   9.578 -0.0971  0.2958 -0.2144
19598SOL    HW167572   6.014  10.435   9.487 -1.4789 -0.3966 -0.7331
19598SOL    HW267573   5.896  10.394   9.572  0.3765 -1.3790  1.4760
19599SOL     OW67574   9.809   9.647   7.603  0.2545  0.0958 -0.2646
19599SOL    HW167575   9.837   9.685   7.687 -0.2575 -0.2196  0.0526
19599SOL    HW267576   9.774   9.722   7.554  0.6157  0.2932 -0.2243
19600SOL     OW67577   1.572   2.062  10.582  0.3538  0.3663  0.3560
19600SOL    HW167578   1.593   2.139  10.529  0.5605 -1.1017 -1.8653
19600SOL    HW267579   1.655   2.039  10.625  0.5932  0.7212  0.0913
19601SOL     OW67580   6.599   0.597   9.377 -0.1963 -0.0414 -0.1943
19601SOL    HW167581   6.618   0.689   9.360 -0.9338  0.1083 -0.2482
19601SOL    HW267582   6.527   0.576   9.318 -0.6146 -0.4134  0.4303
19602SOL     OW67583   6.949   4.244   5.099 -0.4033  0.3678 -0.3963
19602SOL    HW167584   7.043   4.226   5.102  0.1424  2.9584  1.3338
19602SOL    HW267585   6.937   4.293   5.017 -0.3645 -0.4261 -0.8841
19603SOL     OW67586   8.837   1.316   2.501  0.1240  0.1776  0.0300
19603SOL    HW167587   8.781   1.385   2.537  0.9837  0.9703 -0.1239
19603SOL    HW267588   8.920   1.360   2.483  0.5529 -0.8132 -0.4474
19604SOL     OW67589   6.202   2.299   5.233 -0.5473  0.1913  0.1087
19604SOL    HW167590   6.224   2.272   5.322 -0.5134 -0.7623 -0.1823
19604SOL    HW267591   6.132   2.364   5.245  1.2908  2.1414  0.9545
19605SOL     OW67592   1.377   9.700   8.629  0.3562 -0.0498 -0.0122
19605SOL    HW167593   1.350   9.616   8.593  1.3509 -0.2954 -0.2140
19605SOL    HW267594   1.463   9.684   8.668 -0.4531  0.3407  2.0231
19606SOL     OW67595   2.556   9.339   1.492  0.1295  0.6107 -0.5033
19606SOL    HW167596   2.474   9.378   1.462 -0.6685  0.5019  1.3940
19606SOL    HW267597   2.621   9.408   1.482 -0.8087  1.7067  0.6965
19607SOL     OW67598   6.652   5.045   1.750  0.4638  0.0830  0.7074
19607SOL    HW167599   6.674   4.970   1.806 -1.6157 -1.3406 -0.2811
19607SOL    HW267600   6.565   5.072   1.780  1.0881  1.9955  0.8844
19608SOL     OW67601   2.868   5.820   9.742  0.3318  0.1935 -0.4645
19608SOL    HW167602   2.899   5.880   9.674 -1.6301  1.5173 -0.2744
19608SOL    HW267603   2.813   5.875   9.798  0.4214 -1.2845  1.1516
19609SOL     OW67604   3.251   8.346  10.782 -0.5225  0.5881  0.3150
19609SOL    HW167605   3.289   8.402  10.849 -0.5763  1.3605 -0.2969
19609SOL    HW267606   3.158   8.341  10.805 -0.2496 -0.5514  1.2757
19610SOL     OW67607   9.579   5.524  10.523 -0.0598  0.3091  0.1758
19610SOL    HW167608   9.574   5.451  10.585  2.1787  1.2691  1.6348
19610SOL    HW267609   9.518   5.589  10.558 -0.7663 -0.1671 -0.1478
19611SOL     OW67610   2.820   7.326   8.929  0.2997  0.3133  0.4353
19611SOL    HW167611   2.909   7.294   8.914  0.3363  0.6129  0.0219
19611SOL    HW267612   2.830   7.419   8.947  0.0081  0.4802 -0.2539
19612SOL     OW67613   2.918   2.093   4.966  0.5121  0.1923 -0.0002
19612SOL    HW167614   2.853   2.152   4.929 -0.8677 -0.9073  0.5949
19612SOL    HW267615   2.988   2.151   4.998 -0.4020  1.4294 -0.1917
19613SOL     OW67616   4.401   2.487   3.911  0.0346  0.2247  0.6711
19613SOL    HW167617   4.466   2.494   3.981  0.2699 -1.1326  0.6203
19613SOL    HW267618   4.436   2.419   3.853  1.0632  2.8808 -2.1022
19614SOL     OW67619   5.123   9.713   7.075  0.3277  0.6974  0.0131
19614SOL    HW167620   5.173   9.701   6.994  0.3753 -1.8653  0.3618
19614SOL    HW267621   5.088   9.802   7.068 -2.1775 -0.3300 -4.2570
19615SOL     OW67622   5.126   7.167  11.035 -0.5158 -0.5602 -0.1240
19615SOL    HW167623   5.151   7.250  11.077 -1.2422 -0.6498  0.5036
19615SOL    HW267624   5.030   7.166  11.040 -0.7194 -0.1621 -2.5889
19616SOL     OW67625   6.363   7.933   6.568 -0.0892 -0.3315 -0.3027
19616SOL    HW167626   6.420   7.979   6.506 -1.5784  0.2817 -1.2510
19616SOL    HW267627   6.419   7.920   6.645  1.4663 -0.1281 -1.3388
19617SOL     OW67628   6.666   3.965  11.743  0.4100  0.0076 -0.2034
19617SOL    HW167629   6.760   3.984  11.741  0.4435 -0.1734 -0.3895
19617SOL    HW267630   6.656   3.889  11.687  0.3083 -0.6587  0.6912
19618SOL     OW67631  10.961   3.274   1.085 -0.0701 -0.0037 -0.1570
19618SOL    HW167632  10.906   3.244   1.013 -2.7115  0.1431  1.6567
19618SOL    HW267633  10.917   3.351   1.119  2.5247  1.5198  0.0382
19619SOL     OW67634   2.932   7.323   3.553  0.6609 -0.2775 -0.3083
19619SOL    HW167635   2.857   7.354   3.501 -0.2356 -1.8903 -0.0462
19619SOL    HW267636   3.008   7.365   3.513 -0.2539  0.3946 -1.4003
19620SOL     OW67637   7.653   1.475  11.427  0.0236  0.1093 -0.4035
19620SOL    HW167638   7.670   1.568  11.417 -1.0959  0.3532 -0.1544
19620SOL    HW267639   7.626   1.465  11.518  1.0940 -0.6281 -0.1398
19621SOL     OW67640   2.407  10.799  11.413  0.1884 -0.4136  0.5517
19621SOL    HW167641   2.428  10.889  11.388  0.1698 -0.1264  1.5228
19621SOL    HW267642   2.481  10.747  11.381  0.1591 -0.0709 -0.0869
19622SOL     OW67643   4.644   4.810  10.350 -0.0347  0.4563  0.9112
19622SOL    HW167644   4.715   4.873  10.363 -0.7285  1.3111  0.6663
19622SOL    HW267645   4.578   4.858  10.300 -0.8670 -0.2526  1.2930
19623SOL     OW67646   0.842   3.628   0.637  0.0174 -0.1233  0.0482
19623SOL    HW167647   0.933   3.658   0.638  0.4704 -1.3669 -1.0355
19623SOL    HW267648   0.820   3.620   0.544 -1.3236  0.4952  0.2916
19624SOL     OW67649   2.187   5.352  12.600  0.0706  0.0665  0.0483
19624SOL    HW167650   2.167   5.413  12.671 -1.6295 -0.8425  0.3987
19624SOL    HW267651   2.117   5.364  12.536  0.0007 -1.1169 -0.1313
19625SOL     OW67652   4.032   6.782   6.681 -0.3627 -0.1271 -0.3137
19625SOL    HW167653   4.120   6.783   6.719 -0.6872  0.3542  0.4569
19625SOL    HW267654   4.028   6.700   6.631  0.0619 -0.8390  0.7752
19626SOL     OW67655   3.634   5.508   4.228 -0.1193 -0.2649  0.1701
19626SOL    HW167656   3.626   5.566   4.153 -0.3538  0.5160  0.7781
19626SOL    HW267657   3.615   5.420   4.194 -0.8234  0.1602 -0.5483
19627SOL     OW67658   5.390   6.605  12.120  0.2843  0.4094 -0.6386
19627SOL    HW167659   5.372   6.523  12.166 -0.3934  0.9509  0.0884
19627SOL    HW267660   5.476   6.592  12.080  0.6930 -0.2371  0.4223
19628SOL     OW67661   6.728  10.144   8.280 -0.1560  0.2264 -0.0469
19628SOL    HW167662   6.766  10.057   8.294  0.1627  0.5777  1.4165
19628SOL    HW267663   6.787  10.204   8.326 -0.0369  1.3072 -1.5644
19629SOL     OW67664   6.015   8.332   6.749 -0.2698 -0.5948 -0.0417
19629SOL    HW167665   6.035   8.302   6.661 -0.2481 -0.0951 -0.2107
19629SOL    HW267666   5.993   8.425   6.739 -0.6642 -0.6297  0.4213
19630SOL     OW67667   2.278   7.619   7.346 -0.3402 -0.8496  0.1242
19630SOL    HW167668   2.224   7.662   7.281 -0.3490 -0.0544  0.6496
19630SOL    HW267669   2.361   7.600   7.301  0.4085  1.4838  0.4046
19631SOL     OW67670   2.835  12.503  11.589  0.2151 -0.0008 -0.2873
19631SOL    HW167671   2.835  12.579  11.531 -1.9872  1.3644  1.3200
19631SOL    HW267672   2.921  12.464  11.577  0.7747  1.6910 -2.5138
19632SOL     OW67673   2.299   5.932  12.033  0.1950 -0.2581 -0.2352
19632SOL    HW167674   2.284   5.841  12.007 -0.8937  0.1504 -1.1508
19632SOL    HW267675   2.324   5.976  11.952 -0.8665  0.5652 -0.1431
19633SOL     OW67676   6.408   4.058   5.461  0.6510 -0.2964 -0.3118
19633SOL    HW167677   6.323   4.016   5.475  0.2315  0.3551 -0.8380
19633SOL    HW267678   6.469   4.007   5.514 -0.2985  0.0493  1.2026
19634SOL     OW67679   5.143   7.192  11.994 -0.1097  0.0124  0.3783
19634SOL    HW167680   5.195   7.228  12.066  0.5264 -0.4734  0.1765
19634SOL    HW267681   5.208   7.152  11.935 -0.4450  1.7528 -1.2762
19635SOL     OW67682   9.554   8.782   1.895  0.2640 -0.0046 -0.2023
19635SOL    HW167683   9.614   8.764   1.967  0.8078 -0.1931 -0.6887
19635SOL    HW267684   9.570   8.711   1.832 -0.0717  0.2513 -0.5873
19636SOL     OW67685  11.176   5.488   6.092  0.2878  0.1079 -0.2772
19636SOL    HW167686  11.083   5.470   6.081  0.1917 -0.6831  1.5085
19636SOL    HW267687  11.219   5.403   6.076  0.3575 -0.4039  2.1862
19637SOL     OW67688  10.191  12.363   6.140  0.3515 -0.2242  0.2646
19637SOL    HW167689  10.283  12.388   6.147  0.3525 -0.1347 -0.0721
19637SOL    HW267690  10.192  12.285   6.084  0.0067  1.1549 -1.7666
19638SOL     OW67691  12.594  10.505  11.479  0.2043 -0.0624 -0.4585
19638SOL    HW167692  12.561  10.578  11.426 -0.1491  0.4402  0.4357
19638SOL    HW267693  12.541  10.508  11.559 -0.0156 -1.4839 -0.5282
19639SOL     OW67694   6.789   0.798  10.903 -0.3607 -0.3412  0.2628
19639SOL    HW167695   6.827   0.762  10.983 -0.4372 -1.0685 -0.0210
19639SOL    HW267696   6.855   0.780  10.835 -0.5007 -0.1549  0.0770
19640SOL     OW67697  11.224   3.919   8.507 -0.1520 -0.1462 -0.0474
19640SOL    HW167698  11.269   4.003   8.523  0.5614 -0.5433  0.0829
19640SOL    HW267699  11.261   3.860   8.572 -0.8035 -0.5161 -0.0095
19641SOL     OW67700   8.270  10.231  11.071 -0.1763 -0.1312  0.1891
19641SOL    HW167701   8.215  10.226  10.993 -2.5584 -0.0867  1.7643
19641SOL    HW267702   8.305  10.320  11.070 -3.9373  1.5290  1.4486
19642SOL     OW67703   9.244   2.137   6.251  0.4194 -0.5443 -0.7773
19642SOL    HW167704   9.185   2.193   6.301  2.0996 -0.4018  1.1947
19642SOL    HW267705   9.206   2.133   6.164  0.0478  3.4370 -0.9697
19643SOL     OW67706   5.532   5.082   5.863 -0.2196  0.6311 -0.0686
19643SOL    HW167707   5.566   5.007   5.912 -0.7212  0.8305  0.6165
19643SOL    HW267708   5.604   5.110   5.807 -0.1470 -0.5905 -0.6113
19644SOL     OW67709  12.343   3.807   8.617 -0.1099 -0.4641 -0.2411
19644SOL    HW167710  12.262   3.819   8.667 -0.1371 -0.5478 -0.2666
19644SOL    HW267711  12.413   3.824   8.681 -0.1494  0.6433 -0.4673
19645SOL     OW67712   5.029   9.777   0.656  0.9143  0.3780  0.4276
19645SOL    HW167713   5.105   9.755   0.601 -0.3389 -1.2755 -0.7443
19645SOL    HW267714   5.022   9.703   0.717 -1.0345 -0.6740 -0.9649
19646SOL     OW67715   4.536  12.548  11.723  0.3070 -0.7314 -0.5121
19646SOL    HW167716   4.447  12.571  11.750 -0.6919 -1.9260 -2.6003
19646SOL    HW267717   4.571  12.499  11.798 -0.5863  0.1730  0.5338
19647SOL     OW67718   3.084  11.865   1.244  0.4564 -0.4046 -0.0361
19647SOL    HW167719   3.000  11.819   1.233  0.0720  0.1083  0.6665
19647SOL    HW267720   3.109  11.891   1.155  0.1257 -0.9976 -0.3123
19648SOL     OW67721  11.301   6.576   9.314  0.3588 -0.0374 -0.1983
19648SOL    HW167722  11.290   6.652   9.371 -3.9913 -0.5404  0.0389
19648SOL    HW267723  11.284   6.501   9.371  0.8942 -0.9338 -1.1729
19649SOL     OW67724   2.022   6.216   6.905 -0.0120  0.5118  0.0867
19649SOL    HW167725   2.018   6.207   6.810  0.8529  0.9778  0.0027
19649SOL    HW267726   2.026   6.311   6.920 -0.5965  0.4626  0.6119
19650SOL     OW67727   4.886  12.103   0.555  0.1276 -0.1664  0.7314
19650SOL    HW167728   4.842  12.099   0.470 -0.2011  2.3542  0.7065
19650SOL    HW267729   4.921  12.015   0.568 -2.3350 -1.4726 -0.6322
19651SOL     OW67730   3.806  12.309  12.309 -0.3380  0.0716  0.4644
19651SOL    HW167731   3.845  12.348  12.387 -0.9054  1.6085  0.0246
19651SOL    HW267732   3.757  12.381  12.268  1.7751  0.0280 -2.5512
19652SOL     OW67733   0.383  10.213   3.704  0.2239  0.1431  0.6957
19652SOL    HW167734   0.390  10.283   3.639  0.3740 -1.6045 -1.3143
19652SOL    HW267735   0.471  10.175   3.708 -0.7123 -2.6492 -1.6640
19653SOL     OW67736  10.247   7.529   7.993 -0.0021 -0.2675  0.0604
19653SOL    HW167737  10.266   7.469   8.065 -0.2960  0.6971  0.9827
19653SOL    HW267738  10.319   7.592   7.995  0.6791 -0.9564 -1.3497
19654SOL     OW67739   4.385   9.367   5.978 -0.9164 -0.8394  0.4040
19654SOL    HW167740   4.306   9.350   5.927 -0.1575 -2.0066 -0.4560
19654SOL    HW267741   4.456   9.364   5.913 -0.1598  0.2176  1.1413
19655SOL     OW67742   7.967   4.934   1.236 -0.2261 -0.2445  0.0259
19655SOL    HW167743   7.884   4.949   1.192  0.1395  2.4126  0.1234
19655SOL    HW267744   7.948   4.867   1.302 -2.1293 -0.1136 -0.3507
19656SOL     OW67745   4.870   4.498   7.436  0.3534  0.2621  0.2283
19656SOL    HW167746   4.840   4.451   7.358  0.5584 -1.2963  1.0505
19656SOL    HW267747   4.952   4.538   7.409 -0.4721  1.2909 -0.8808
19657SOL     OW67748  11.343   8.808   1.478 -0.0022 -0.2797  0.9339
19657SOL    HW167749  11.406   8.824   1.549 -0.4364 -0.9490  1.4847
19657SOL    HW267750  11.260   8.843   1.511  0.1730  1.1401 -0.0267
19658SOL     OW67751   6.511   9.086   3.310  0.1859 -0.3456  0.6738
19658SOL    HW167752   6.420   9.063   3.292 -0.2713  1.6384  0.2004
19658SOL    HW267753   6.540   9.135   3.233  1.6344 -0.8255  0.8725
19659SOL     OW67754   5.258  12.420   2.132  0.2698  0.2894 -0.0177
19659SOL    HW167755   5.270  12.415   2.037  1.5218  0.7858  0.0958
19659SOL    HW267756   5.165  12.402   2.145 -0.1100  1.0658 -1.4113
19660SOL     OW67757  12.212  10.135   7.425 -0.2897 -0.7823  0.5151
19660SOL    HW167758  12.198  10.092   7.341  0.7981 -2.4636  1.1304
19660SOL    HW267759  12.193  10.227   7.409  0.1075 -1.0209 -1.6116
19661SOL     OW67760   8.863   5.807   3.815 -0.0953 -0.1901 -0.3192
19661SOL    HW167761   8.806   5.882   3.830 -1.2277 -0.8694 -1.0629
19661SOL    HW267762   8.901   5.823   3.729 -3.1248 -2.0768 -2.2094
19662SOL     OW67763   2.487   9.325  12.352  0.0720 -0.4189  0.5208
19662SOL    HW167764   2.425   9.291  12.289  0.1849 -1.2718  0.8634
19662SOL    HW267765   2.452   9.300  12.437 -0.3651  1.1895  0.8469
19663SOL     OW67766   0.795  10.610   2.092  0.2340  0.1838  0.1361
19663SOL    HW167767   0.818  10.523   2.060  1.8448  0.7593 -0.3999
19663SOL    HW267768   0.749  10.594   2.174  1.8758 -1.1615  0.8524
19664SOL     OW67769   5.939  10.480  11.169  0.0835  0.1036  0.3361
19664SOL    HW167770   5.924  10.447  11.258 -1.1110  1.7230  0.7601
19664SOL    HW267771   5.892  10.418  11.113  0.0398 -0.3769  0.8869
19665SOL     OW67772   3.120   3.772   7.302  0.2085 -0.0435 -0.5963
19665SOL    HW167773   3.073   3.721   7.368 -0.2089  1.6125  0.4443
19665SOL    HW267774   3.185   3.821   7.352 -0.3317  1.4844 -1.3482
19666SOL     OW67775   7.728   7.288   3.438  0.1588  0.0287 -0.0703
19666SOL    HW167776   7.655   7.336   3.397 -1.1578  0.8452  2.9296
19666SOL    HW267777   7.690   7.204   3.463  0.9086 -0.4298 -0.4558
19667SOL     OW67778   2.789   7.435   0.697  0.2304 -0.4902  0.0019
19667SOL    HW167779   2.722   7.480   0.646 -0.4088 -1.5789 -0.1641
19667SOL    HW267780   2.872   7.456   0.653 -0.3196 -1.5287 -1.6335
19668SOL     OW67781   3.509  12.059   0.187 -0.0687  0.4221  0.5701
19668SOL    HW167782   3.602  12.036   0.195 -0.5937 -1.7158  1.2597
19668SOL    HW267783   3.487  12.040   0.096 -0.0694 -0.1436  0.6838
19669SOL     OW67784   3.708   3.860   4.312 -0.2718  0.3371  0.0760
19669SOL    HW167785   3.691   3.927   4.246 -0.3845 -0.7711 -1.0437
19669SOL    HW267786   3.784   3.812   4.279  0.0768  0.1684  1.0795
19670SOL     OW67787   4.222   2.201   1.164  0.2191  0.2874  0.0325
19670SOL    HW167788   4.292   2.158   1.115  0.0840  0.2840 -0.1541
19670SOL    HW267789   4.144   2.149   1.147  0.0984  0.4865 -0.0280
19671SOL     OW67790  10.350   2.452   7.120  0.2322  0.7218 -0.2488
19671SOL    HW167791  10.259   2.425   7.108 -0.5023  3.0044 -0.3407
19671SOL    HW267792  10.344   2.545   7.145  2.5616  1.1453 -1.0541
19672SOL     OW67793   3.447   0.793  11.643  0.1860  0.6217 -0.2829
19672SOL    HW167794   3.540   0.784  11.625 -0.0503 -0.5383 -1.0526
19672SOL    HW267795   3.426   0.719  11.701 -0.5778 -0.2196 -1.5703
19673SOL     OW67796   9.681   0.127   2.870 -0.1018  0.6453 -0.7878
19673SOL    HW167797   9.739   0.058   2.836  1.5146  2.2313 -1.4399
19673SOL    HW267798   9.616   0.080   2.923  2.1541 -1.2220  0.5372
19674SOL     OW67799  11.479   1.026  10.416 -0.3793  0.2242 -0.0947
19674SOL    HW167800  11.463   1.033  10.510 -1.3890 -1.3347 -0.1156
19674SOL    HW267801  11.573   1.015  10.408 -0.3561 -0.2935  0.7907
19675SOL     OW67802   4.675   1.873   7.621  0.0392 -0.8023 -0.3457
19675SOL    HW167803   4.670   1.800   7.683  0.1404 -0.1463  0.4621
19675SOL    HW267804   4.601   1.860   7.562 -0.3460 -1.1854  0.2077
19676SOL     OW67805   2.443  11.702   1.575 -0.0590  0.6046  0.6436
19676SOL    HW167806   2.523  11.715   1.525 -0.4081 -0.2807 -0.1638
19676SOL    HW267807   2.440  11.608   1.593 -1.1542  0.5497  0.2572
19677SOL     OW67808   9.841   2.658   1.731 -0.1793 -0.4425  0.1859
19677SOL    HW167809   9.824   2.630   1.820 -0.2855  0.9481  0.6280
19677SOL    HW267810   9.809   2.748   1.727  3.0691  0.8497 -0.1732
19678SOL     OW67811  11.753   2.792   1.720  0.0239  0.6493 -0.1186
19678SOL    HW167812  11.711   2.707   1.730 -0.1952  0.7168 -0.4623
19678SOL    HW267813  11.778   2.796   1.628 -0.6774  1.2847 -0.2848
19679SOL     OW67814  10.584   1.589   2.270 -0.4057 -0.0708  0.4120
19679SOL    HW167815  10.593   1.531   2.194  0.8559  1.0117 -0.3217
19679SOL    HW267816  10.537   1.666   2.237 -0.7805 -0.0401  0.9994
19680SOL     OW67817   6.174   3.909   4.968 -0.1613 -0.2520 -0.0780
19680SOL    HW167818   6.119   3.969   5.018 -0.6226  0.4975 -1.4600
19680SOL    HW267819   6.256   3.956   4.956 -0.2942 -0.1511 -0.6090
19681SOL     OW67820   2.239   4.688   9.027 -0.3088 -0.0468  0.0818
19681SOL    HW167821   2.210   4.752   8.961 -1.4116  0.7947  1.3164
19681SOL    HW267822   2.197   4.718   9.108  1.4694 -0.7147  1.2920
19682SOL     OW67823   0.323   6.304   3.833 -0.0178 -0.2141  0.6994
19682SOL    HW167824   0.395   6.312   3.896 -0.9162 -1.5283  1.9656
19682SOL    HW267825   0.283   6.219   3.854 -0.6258 -0.4886 -1.3763
19683SOL     OW67826   8.261   5.220  12.243 -0.2164  0.3551 -0.3065
19683SOL    HW167827   8.329   5.278  12.278  0.4948 -2.1822  2.9845
19683SOL    HW267828   8.190   5.225  12.306 -1.3770 -0.1803 -1.5230
19684SOL     OW67829   9.685   9.143   6.347 -0.3531 -0.0362  0.2142
19684SOL    HW167830   9.590   9.146   6.335 -0.3079  0.3119 -0.0676
19684SOL    HW267831   9.721   9.185   6.269 -0.0487  1.8765  1.3040
19685SOL     OW67832   9.909  10.462   7.732 -0.1312 -0.4547  0.2388
19685SOL    HW167833   9.970  10.501   7.794 -0.3164  0.7601 -0.3100
19685SOL    HW267834   9.919  10.367   7.744  1.5589 -0.2744  0.4427
19686SOL     OW67835  10.488  12.183   5.211 -0.4052  0.1593  0.0343
19686SOL    HW167836  10.408  12.139   5.240 -1.2169  1.1671 -0.5793
19686SOL    HW267837  10.487  12.175   5.116 -1.0117  2.1290 -0.1741
19687SOL     OW67838   6.139  10.645   5.845  0.1749 -0.7242 -0.1798
19687SOL    HW167839   6.163  10.711   5.780 -1.0886 -0.3241 -0.2714
19687SOL    HW267840   6.121  10.697   5.924 -0.6345 -0.9745 -0.1966
19688SOL     OW67841   5.680   4.515   0.891 -0.1164  0.2711 -0.0414
19688SOL    HW167842   5.684   4.551   0.979  1.7641  0.3455 -0.1238
19688SOL    HW267843   5.600   4.463   0.890 -0.4779  0.7463  1.5039
19689SOL     OW67844  11.342   6.996   1.074 -0.0781  0.3615 -0.3426
19689SOL    HW167845  11.399   6.999   0.997  0.0709  0.7224 -0.2212
19689SOL    HW267846  11.256   6.972   1.039  0.7968 -3.7340 -0.1588
19690SOL     OW67847   3.871   3.126  10.408  0.1347  0.3109  0.4143
19690SOL    HW167848   3.893   3.183  10.335  0.3906 -0.4622 -0.1201
19690SOL    HW267849   3.795   3.076  10.378 -1.5203  1.8963  1.6936
19691SOL     OW67850   2.948  11.679  12.423 -0.2176 -0.1077  0.3537
19691SOL    HW167851   2.949  11.741  12.495  1.0788  0.1275  0.1541
19691SOL    HW267852   2.869  11.701  12.373  1.1825  2.6981 -0.8146
19692SOL     OW67853   5.356   5.685  11.876 -0.0845  0.1891 -0.1824
19692SOL    HW167854   5.388   5.768  11.910  0.9041 -0.5705  0.7949
19692SOL    HW267855   5.433   5.630  11.869 -0.5237 -0.2796 -2.0281
19693SOL     OW67856   9.848   7.073   1.901  0.3173  0.3436 -0.0865
19693SOL    HW167857   9.787   7.006   1.871 -1.3357  1.8617 -0.3058
19693SOL    HW267858   9.865   7.050   1.992 -1.1662  0.2555  0.1962
19694SOL     OW67859   2.395   6.756   9.723 -0.1240 -0.6141  0.0956
19694SOL    HW167860   2.301   6.742   9.712 -0.1612  1.0183 -2.3054
19694SOL    HW267861   2.402   6.839   9.770  0.1422 -1.0741  0.8891
19695SOL     OW67862   4.085   7.365  10.909  0.0960 -0.7026 -0.2123
19695SOL    HW167863   4.055   7.456  10.906 -2.0660 -1.3770 -1.1936
19695SOL    HW267864   4.078   7.340  11.001  0.5262  0.0466  0.0326
19696SOL     OW67865  10.722   1.065  10.891 -0.3607  0.1640 -0.5422
19696SOL    HW167866  10.708   0.981  10.935  1.1251  0.6096  0.8763
19696SOL    HW267867  10.638   1.110  10.899 -0.5503 -0.3386  0.5921
19697SOL     OW67868   4.425   4.964   9.204 -0.5854 -0.9499 -0.2000
19697SOL    HW167869   4.499   4.932   9.153  1.0811  0.4480  1.1924
19697SOL    HW267870   4.430   4.916   9.286  0.0478  0.5601  0.6814
19698SOL     OW67871   1.928   7.931   7.782 -0.0398 -0.4891  0.4868
19698SOL    HW167872   2.011   7.961   7.746  0.0651 -0.0805  1.0625
19698SOL    HW267873   1.916   7.982   7.862 -0.3558 -1.2517  0.9394
19699SOL     OW67874   9.449   6.038  12.546  0.2892  0.3712  0.0215
19699SOL    HW167875   9.531   6.077  12.516 -0.0086  0.8531 -0.1841
19699SOL    HW267876   9.460   5.944  12.531  1.9120  0.0501  2.6830
19700SOL     OW67877   4.320   9.065   9.302  0.1032 -0.1247 -0.7878
19700SOL    HW167878   4.407   9.033   9.326  0.2930  0.3355 -0.8506
19700SOL    HW267879   4.260   9.010   9.351  0.4723  0.9423  0.9969
19701SOL     OW67880  11.878   0.115   5.783  1.0231 -0.3159  0.0928
19701SOL    HW167881  11.972   0.100   5.776  1.1372 -0.0599  0.9530
19701SOL    HW267882  11.867   0.207   5.762  0.8336 -0.5802 -1.0099
19702SOL     OW67883   6.901   2.354   6.335 -0.2117  0.1834 -0.5726
19702SOL    HW167884   6.813   2.319   6.348 -0.3111 -0.1180 -1.8545
19702SOL    HW267885   6.899   2.394   6.248  1.1803 -0.7383 -1.0776
19703SOL     OW67886   2.246   8.757   9.697  0.6400 -0.3198  0.4142
19703SOL    HW167887   2.272   8.821   9.764  0.4682  1.7616 -1.3959
19703SOL    HW267888   2.325   8.705   9.683  1.9322  1.7126 -0.4011
19704SOL     OW67889   7.435   4.035   0.359  0.5164  0.4224 -0.5689
19704SOL    HW167890   7.399   4.044   0.447 -1.4378 -1.0605 -1.1353
19704SOL    HW267891   7.448   4.125   0.329 -1.1919  1.0041  0.3035
19705SOL     OW67892   1.833   1.971   0.818 -0.5242 -0.1948 -0.3162
19705SOL    HW167893   1.768   1.964   0.748 -0.2188 -0.8004 -0.5572
19705SOL    HW267894   1.910   1.925   0.783  0.5294  1.6624 -0.6056
19706SOL     OW67895   9.765  10.590   3.975 -0.3612 -0.1509  0.3942
19706SOL    HW167896   9.736  10.606   3.885  0.3562  1.1529  0.3707
19706SOL    HW267897   9.797  10.500   3.974 -1.6241 -0.6255 -0.2978
19707SOL     OW67898   8.268  12.296   9.092 -0.1347  0.5138  0.0584
19707SOL    HW167899   8.274  12.371   9.151  0.6202  0.6627 -0.1899
19707SOL    HW267900   8.221  12.230   9.143 -1.6323  1.4408 -0.0384
19708SOL     OW67901  10.520   5.327   3.434 -0.1557  0.3614  0.4617
19708SOL    HW167902  10.527   5.299   3.343  1.0757 -1.7018  1.1183
19708SOL    HW267903  10.438   5.287   3.464  0.5848 -0.9150  0.8468
19709SOL     OW67904   0.624   6.810  10.014 -0.0910  0.0748 -0.1049
19709SOL    HW167905   0.624   6.774   9.926 -0.8861 -1.1429  0.3751
19709SOL    HW267906   0.574   6.891  10.007  0.8953  0.6241 -1.0000
19710SOL     OW67907   5.504   9.016  11.119  0.1970 -0.4239 -0.0591
19710SOL    HW167908   5.488   9.066  11.039  0.1847 -1.8350 -0.9828
19710SOL    HW267909   5.588   9.050  11.152  1.4974 -1.4579 -2.0552
19711SOL     OW67910  11.372   5.710   6.999 -0.4790  0.3962  0.1054
19711SOL    HW167911  11.368   5.630   6.947 -2.7157  1.2573 -1.1963
19711SOL    HW267912  11.322   5.689   7.078 -1.7076  0.6931 -0.5712
19712SOL     OW67913   4.856   5.730   4.099  0.1157 -0.5152  0.0426
19712SOL    HW167914   4.916   5.772   4.161 -0.9029  0.2605  0.5418
19712SOL    HW267915   4.868   5.779   4.018  1.1918 -1.3007 -0.2911
19713SOL     OW67916   1.530   5.933   4.056  0.3050  0.1309  0.1668
19713SOL    HW167917   1.624   5.930   4.040  0.3958 -0.4583  0.7440
19713SOL    HW267918   1.491   5.886   3.983  0.3090  1.8884 -1.0183
19714SOL     OW67919  10.981   8.838  12.522 -0.0303 -0.1611 -0.6139
19714SOL    HW167920  10.959   8.900  12.452 -0.9318  0.7389  0.4267
19714SOL    HW267921  10.916   8.855  12.590 -0.0325 -1.9736 -0.1118
19715SOL     OW67922   0.923   1.819   9.124 -0.5988  0.2024  0.1359
19715SOL    HW167923   0.986   1.825   9.052  0.6691 -2.4299  0.8824
19715SOL    HW267924   0.859   1.755   9.094 -0.4167 -0.4374  1.0477
19716SOL     OW67925   6.473   9.583  11.869 -0.1138 -0.5885  0.4785
19716SOL    HW167926   6.484   9.623  11.955 -0.9849 -0.4629  0.5393
19716SOL    HW267927   6.556   9.600  11.824 -0.3754  1.1177  0.5825
19717SOL     OW67928   0.492   8.413   3.696 -0.3222 -0.3549 -0.2101
19717SOL    HW167929   0.424   8.416   3.628 -0.0243 -1.1602 -0.5552
19717SOL    HW267930   0.536   8.329   3.682  1.1464  0.4145 -0.3893
19718SOL     OW67931   1.676   5.899   4.567  0.4089  1.0792  0.0786
19718SOL    HW167932   1.604   5.918   4.508  0.2131  0.1976  0.0236
19718SOL    HW267933   1.754   5.930   4.521  0.3039  0.0571 -0.8255
19719SOL     OW67934   8.397   2.475   7.746 -0.2709 -0.2369  0.1626
19719SOL    HW167935   8.350   2.425   7.812 -1.0598 -1.1339 -1.0175
19719SOL    HW267936   8.327   2.519   7.696  0.2279 -0.3132 -0.6259
19720SOL     OW67937   3.911   7.148   8.941  0.1533 -0.2487  0.2924
19720SOL    HW167938   3.844   7.097   8.987  0.3801 -0.7049  0.1268
19720SOL    HW267939   3.865   7.226   8.910 -0.3001 -0.5534  0.1864
19721SOL     OW67940   7.696   6.383   0.208 -0.0581  0.1014 -0.1542
19721SOL    HW167941   7.673   6.446   0.277 -2.2615  0.4226 -1.0994
19721SOL    HW267942   7.624   6.389   0.146  2.0824  0.2052 -2.7968
19722SOL     OW67943   6.799  11.276   4.239 -0.5634 -0.8241 -0.1935
19722SOL    HW167944   6.820  11.215   4.168 -2.4316 -2.3379  0.4764
19722SOL    HW267945   6.775  11.220   4.312 -1.2982  0.7377  0.8115
19723SOL     OW67946  12.115   0.848   2.636 -0.6778  0.0962  0.2004
19723SOL    HW167947  12.038   0.903   2.652 -1.1955 -0.8056  0.9171
19723SOL    HW267948  12.081   0.759   2.638 -0.2367 -0.2559 -3.0039
19724SOL     OW67949   1.432  10.195  12.523 -0.6746 -0.2490 -0.2264
19724SOL    HW167950   1.454  10.141  12.447  0.0671 -0.9785  0.4883
19724SOL    HW267951   1.338  10.180  12.537 -1.0903  0.7672 -1.6466
19725SOL     OW67952  10.660   1.661   1.253 -0.5007  0.4199 -0.1151
19725SOL    HW167953  10.717   1.696   1.322  1.8767 -0.8997 -1.2611
19725SOL    HW267954  10.645   1.569   1.278 -0.4390  0.2043 -0.8366
19726SOL     OW67955   8.947   6.753   5.983 -0.2789 -0.1687  0.4542
19726SOL    HW167956   8.859   6.754   5.944 -0.1805 -0.9591  0.1986
19726SOL    HW267957   9.006   6.763   5.908 -0.1286 -0.3978  0.5403
19727SOL     OW67958   4.837   8.442   0.175  0.6983  0.7922 -0.3482
19727SOL    HW167959   4.830   8.532   0.207  3.0714  0.7179  0.5786
19727SOL    HW267960   4.896   8.447   0.100  2.8134 -0.2255  1.1540
19728SOL     OW67961   7.482   1.888   2.624  0.1597  0.2251 -0.4825
19728SOL    HW167962   7.541   1.886   2.699 -0.2742 -1.0192 -0.1404
19728SOL    HW267963   7.401   1.927   2.657  0.1079  0.0594 -0.4147
19729SOL     OW67964   3.239   3.867   9.497 -0.1548 -0.4419  0.8781
19729SOL    HW167965   3.183   3.918   9.439 -0.0933 -0.8831  0.4190
19729SOL    HW267966   3.312   3.926   9.518 -0.3619 -0.1564  0.8081
19730SOL     OW67967   1.553   4.732   9.844 -0.6667 -0.0354 -0.0554
19730SOL    HW167968   1.506   4.776   9.773 -1.0387  0.3342  0.4122
19730SOL    HW267969   1.588   4.804   9.897  1.7095 -0.2543 -1.1857
19731SOL     OW67970   7.664  10.791   5.505 -0.1180  0.3581 -0.4054
19731SOL    HW167971   7.750  10.813   5.542  0.4255  0.3811 -1.6394
19731SOL    HW267972   7.601  10.831   5.566  0.7342  0.3658  0.4964
19732SOL     OW67973   6.128  12.596   5.177  0.5036 -0.4356 -0.7414
19732SOL    HW167974   6.206  12.628   5.222  1.2361 -0.8499 -1.6846
19732SOL    HW267975   6.116  12.657   5.104 -0.9520  0.5133  0.2465
19733SOL     OW67976   3.464  12.267  11.058  0.5226 -0.0707 -0.3668
19733SOL    HW167977   3.475  12.362  11.069  1.0851 -0.1246 -0.4748
19733SOL    HW267978   3.532  12.228  11.113 -2.1578 -0.5277  2.9855
19734SOL     OW67979  10.478   0.689   4.931  0.1671  0.0388 -0.4953
19734SOL    HW167980  10.467   0.594   4.928  0.5185 -0.0115 -3.2775
19734SOL    HW267981  10.401   0.723   4.886  0.5942  1.0015 -0.5292
19735SOL     OW67982   1.681   8.444   2.599  0.0137 -0.1114 -0.4376
19735SOL    HW167983   1.627   8.487   2.533  0.7031  0.9100 -0.3620
19735SOL    HW267984   1.752   8.403   2.549  0.4392  0.5139 -0.3540
19736SOL     OW67985   6.537   9.062   9.297  0.1687 -0.5018 -0.6979
19736SOL    HW167986   6.480   9.136   9.277 -0.3848 -1.2418 -1.9366
19736SOL    HW267987   6.514   9.039   9.387 -0.2221  0.3087 -0.5741
19737SOL     OW67988  10.786   6.418   8.031 -0.7244 -0.1463 -0.0584
19737SOL    HW167989  10.876   6.441   8.053 -0.0294 -1.8039 -1.0188
19737SOL    HW267990  10.736   6.499   8.047  0.6522  0.3993  1.8979
19738SOL     OW67991   0.628   5.932   0.134  0.0919  0.1144  0.0829
19738SOL    HW167992   0.601   5.875   0.206 -0.1790 -0.5118 -0.5046
19738SOL    HW267993   0.710   5.972   0.164  0.5776 -1.0043  0.2843
19739SOL     OW67994   8.736  11.972   3.566 -0.2552  0.1414 -0.4742
19739SOL    HW167995   8.808  12.022   3.528 -1.3156  1.1197 -1.2450
19739SOL    HW267996   8.758  11.966   3.659 -0.0084  1.9223 -0.3855
19740SOL     OW67997  10.521   9.120   2.181 -0.1330  0.3245  0.1985
19740SOL    HW167998  10.552   9.096   2.093 -0.9520 -1.2885  0.3100
19740SOL    HW267999  10.496   9.212   2.173  1.3428  0.6848 -0.8023
19741SOL     OW68000   3.521   4.355  10.501 -0.4492 -0.6392  0.0493
19741SOL    HW168001   3.517   4.262  10.483 -1.7289 -0.6037  0.0676
19741SOL    HW268002   3.451   4.371  10.564 -0.9050  0.5001 -0.7211
19742SOL     OW68003   2.172   7.291   1.219 -0.6216  0.1110 -0.3290
19742SOL    HW168004   2.201   7.201   1.230 -0.6434  0.0197 -0.9876
19742SOL    HW268005   2.244   7.334   1.174  0.3197  0.9793  1.8538
19743SOL     OW68006   3.869   5.630   5.345  0.0483 -0.1194 -0.2712
19743SOL    HW168007   3.897   5.603   5.257  1.0614  0.7502 -0.2499
19743SOL    HW268008   3.783   5.670   5.332 -0.5342 -1.4202 -0.6023
19744SOL     OW68009   8.806   2.599   7.996  0.3024 -0.0720 -0.1880
19744SOL    HW168010   8.721   2.624   8.032 -0.5062 -0.1303 -1.9204
19744SOL    HW268011   8.796   2.507   7.971  0.8754 -0.0909 -0.3850
19745SOL     OW68012  12.550   0.812   8.850  0.1903  0.0697  0.5658
19745SOL    HW168013  12.645   0.808   8.841  0.3337  1.6526  0.9528
19745SOL    HW268014  12.520   0.851   8.768  0.1372  1.6810  1.3061
19746SOL     OW68015   2.394   4.638   7.552  0.5746 -0.0028 -0.2618
19746SOL    HW168016   2.390   4.547   7.579  1.7718  0.1809  0.6271
19746SOL    HW268017   2.307   4.673   7.569 -0.0776 -1.1092 -1.1794
19747SOL     OW68018   4.620   4.864   3.016 -0.3921  0.0053  0.6596
19747SOL    HW168019   4.608   4.879   3.110  1.3566  1.7355  0.6511
19747SOL    HW268020   4.619   4.951   2.977 -1.6770 -0.7107 -1.0578
19748SOL     OW68021   5.638   8.175   9.890 -0.7780 -0.7271  0.0558
19748SOL    HW168022   5.552   8.211   9.870 -1.4122 -1.2292  1.7009
19748SOL    HW268023   5.699   8.243   9.863 -1.8297  0.6371  0.9769
19749SOL     OW68024   9.258   2.742   9.647  0.5403 -0.0903 -0.1687
19749SOL    HW168025   9.310   2.812   9.687  0.4460  0.1151 -0.4041
19749SOL    HW268026   9.190   2.722   9.712 -0.2654  0.9774 -0.6577
19750SOL     OW68027   0.253   9.212   8.827  0.0859 -0.2596  0.2716
19750SOL    HW168028   0.329   9.161   8.856 -0.2635 -0.9115  0.0533
19750SOL    HW268029   0.277   9.243   8.739  0.1250 -0.4139  0.2280
19751SOL     OW68030   9.690   3.089   4.039  0.0273  0.0035 -0.1372
19751SOL    HW168031   9.666   3.179   4.060 -0.1040 -0.2650  0.8795
19751SOL    HW268032   9.617   3.057   3.985  0.6216  0.8531 -1.5211
19752SOL     OW68033   7.724   8.549   1.036 -0.2679 -0.1755 -0.2363
19752SOL    HW168034   7.687   8.605   1.104  0.9858  1.0555 -0.5057
19752SOL    HW268035   7.724   8.604   0.958  1.1618 -0.4694 -0.4724
19753SOL     OW68036   4.421   7.273   3.231 -0.4035 -0.1344 -0.2454
19753SOL    HW168037   4.508   7.237   3.211  0.2542  0.7230  0.9317
19753SOL    HW268038   4.376   7.202   3.276 -0.4102 -0.6637 -1.0611
19754SOL     OW68039  10.150   3.888   1.943 -0.2950 -0.1833 -0.2256
19754SOL    HW168040  10.128   3.799   1.969 -0.8529  0.4346  1.5773
19754SOL    HW268041  10.066   3.934   1.942 -0.0668  0.2443 -1.5376
19755SOL     OW68042   7.144   4.188  10.044 -0.0154  0.7011 -0.1894
19755SOL    HW168043   7.117   4.135   9.968 -0.5410  1.4034 -0.5046
19755SOL    HW268044   7.121   4.133  10.119  0.9120 -0.1901 -0.5249
19756SOL     OW68045  11.758   0.779  10.755  0.2081 -0.6734 -0.0424
19756SOL    HW168046  11.777   0.729  10.675  0.0094  0.7111 -0.9902
19756SOL    HW268047  11.795   0.726  10.826  0.0612 -2.1134 -1.0028
19757SOL     OW68048   7.335   9.706   3.212  0.1675  0.2610  0.1478
19757SOL    HW168049   7.370   9.619   3.228  1.4809  1.0576  1.9826
19757SOL    HW268050   7.352   9.754   3.293 -1.3553  1.9689 -0.4782
19758SOL     OW68051  11.555   4.511   2.597 -0.6448  0.0042 -0.1858
19758SOL    HW168052  11.500   4.545   2.527 -0.8906  0.1363  0.0657
19758SOL    HW268053  11.510   4.538   2.678 -0.3975 -0.1917  0.0208
19759SOL     OW68054   8.772   3.911   7.899 -0.3689  0.1870  0.1333
19759SOL    HW168055   8.860   3.932   7.867 -0.7494  1.6242 -0.0406
19759SOL    HW268056   8.786   3.848   7.970  0.9923  2.0298  1.5924
19760SOL     OW68057   6.315   8.452  12.003 -0.3453  0.3335 -0.2174
19760SOL    HW168058   6.245   8.391  12.026 -0.7328  0.4393 -1.0882
19760SOL    HW268059   6.347   8.421  11.918  1.2046 -0.1793  0.5172
19761SOL     OW68060  10.028   8.188  10.947  0.0987  0.0884 -0.3262
19761SOL    HW168061   9.942   8.157  10.973  0.6543 -1.7313 -0.5194
19761SOL    HW268062  10.057   8.241  11.021 -0.5978 -0.4841  0.3790
19762SOL     OW68063   9.468   1.384  10.608  0.4997  0.3196 -0.4686
19762SOL    HW168064   9.526   1.445  10.653 -0.0074  0.0798  0.5280
19762SOL    HW268065   9.519   1.304  10.599  0.3716  0.1381  0.3288
19763SOL     OW68066  11.976   3.865   4.876 -0.0971  0.3365  0.5885
19763SOL    HW168067  11.948   3.839   4.788  0.8658 -1.3044  0.7213
19763SOL    HW268068  12.055   3.916   4.862  1.3921 -1.8546  0.5362
19764SOL     OW68069   8.938  12.218  11.704 -0.3578  0.0314 -0.1144
19764SOL    HW168070   8.871  12.263  11.755  0.4902 -0.9659  2.0059
19764SOL    HW268071   8.980  12.158  11.766  2.5095  0.5870 -1.3308
19765SOL     OW68072   7.661   5.250   2.858  0.1488 -0.1401  0.3065
19765SOL    HW168073   7.576   5.293   2.864 -0.2726 -0.8020 -0.7735
19765SOL    HW268074   7.688   5.237   2.949 -1.6658 -1.4004  0.7025
19766SOL     OW68075  11.046   3.593   4.176 -0.5067 -0.3243  0.1784
19766SOL    HW168076  11.029   3.584   4.269  2.1720 -1.1786  0.6698
19766SOL    HW268077  11.142   3.590   4.168 -0.6039  0.5754 -2.5152
19767SOL     OW68078   5.093   7.816   3.032  0.0474  0.3075  0.0479
19767SOL    HW168079   5.165   7.833   2.972  0.6668 -0.1247  0.6576
19767SOL    HW268080   5.020   7.867   2.997  0.6814  0.8553 -0.5017
19768SOL     OW68081   7.469  12.592   5.533  0.0281 -0.1992  0.0026
19768SOL    HW168082   7.562  12.607   5.547 -0.4679  1.3249  2.3668
19768SOL    HW268083   7.432  12.680   5.523 -1.0813 -0.8153 -1.8205
19769SOL     OW68084  10.951   9.062   3.822  0.5176 -0.1338  0.6099
19769SOL    HW168085  10.887   9.116   3.776  0.9798 -0.0558  0.0508
19769SOL    HW268086  11.022   9.122   3.843 -0.2953  0.1746  2.7214
19770SOL     OW68087   5.135   6.001   1.214 -0.1232 -0.1055 -0.1179
19770SOL    HW168088   5.049   5.989   1.254  0.2250  0.1543  0.7430
19770SOL    HW268089   5.169   5.913   1.204 -1.3470 -0.4043 -2.5155
19771SOL     OW68090   7.913   9.588   1.559  0.3193  0.7624  0.0486
19771SOL    HW168091   7.895   9.627   1.473 -0.1720 -1.9105 -1.1869
19771SOL    HW268092   7.836   9.534   1.576  1.0219  0.1909  1.5369
19772SOL     OW68093   0.786   9.923   4.857 -0.1620 -0.1858 -0.7850
19772SOL    HW168094   0.744   9.859   4.799 -0.4991 -0.4748 -0.2360
19772SOL    HW268095   0.738  10.004   4.841 -0.5209 -0.3612 -0.6279
19773SOL     OW68096   6.699   5.688  12.539 -0.8355  0.4240 -0.5623
19773SOL    HW168097   6.746   5.752  12.485  0.3696  0.5662  0.6049
19773SOL    HW268098   6.758   5.613  12.543 -1.2189  0.1481 -0.0364
19774SOL     OW68099   8.809  12.600   7.112  0.2147  0.2872  0.3572
19774SOL    HW168100   8.743  12.586   7.043 -0.2577  2.6208  0.2443
19774SOL    HW268101   8.833  12.512   7.140  0.0944 -0.7430 -2.4676
19775SOL     OW68102   7.995  10.663   5.153 -0.4668  0.0426 -0.2850
19775SOL    HW168103   8.028  10.695   5.069  0.5403 -0.7389 -0.2043
19775SOL    HW268104   8.068  10.673   5.214 -1.4034  1.2456  0.6977
19776SOL     OW68105   3.599   1.557   6.119  0.0234  0.1849 -0.4810
19776SOL    HW168106   3.525   1.500   6.097  1.9671 -2.1333 -1.4845
19776SOL    HW268107   3.671   1.524   6.066  1.2329  3.9332 -1.4515
19777SOL     OW68108   3.081  10.456   9.955  0.2896 -0.2470  0.2560
19777SOL    HW168109   3.091  10.536  10.007  0.4918  0.5841 -0.9879
19777SOL    HW268110   3.053  10.488   9.869 -0.6034 -1.6054  0.0206
19778SOL     OW68111   0.645   6.550   8.193  0.3204  0.1010  0.3955
19778SOL    HW168112   0.668   6.478   8.134 -0.8868 -0.5419  0.6697
19778SOL    HW268113   0.646   6.628   8.137 -1.7809 -0.6295 -0.7639
19779SOL     OW68114  11.112   7.002   0.939  0.8298  0.2511 -0.3922
19779SOL    HW168115  11.120   6.996   0.844  2.7350 -1.8691 -0.1785
19779SOL    HW268116  11.032   6.953   0.960  0.8387  0.0390 -0.8476
19780SOL     OW68117   4.146   1.870  11.963 -0.0653  0.1715 -0.5474
19780SOL    HW168118   4.067   1.818  11.948 -2.2986  3.0099  0.3724
19780SOL    HW268119   4.147   1.933  11.891  1.2862  0.3066 -0.4344
19781SOL     OW68120   3.041   1.183   9.119 -0.3452 -0.0133  0.9088
19781SOL    HW168121   3.123   1.204   9.074 -0.9304  1.0898  0.3302
19781SOL    HW268122   3.008   1.267   9.150 -1.1557 -0.4727  1.3284
19782SOL     OW68123   6.048   0.519   0.801 -0.7318  0.2441 -0.2541
19782SOL    HW168124   5.984   0.460   0.760 -1.4708  1.5776 -1.0733
19782SOL    HW268125   6.123   0.518   0.742 -0.2512 -0.7636  0.3419
19783SOL     OW68126   1.082   4.146   2.788  0.2496  0.0795 -0.1281
19783SOL    HW168127   1.009   4.190   2.830  0.1607  1.0430 -1.2470
19783SOL    HW268128   1.106   4.204   2.715  3.2816  0.7514  1.2397
19784SOL     OW68129   1.866   7.579   4.978 -0.4287 -0.1402  0.2698
19784SOL    HW168130   1.866   7.520   4.903 -0.3990 -1.8973  1.5754
19784SOL    HW268131   1.778   7.572   5.015  0.1545 -0.9669  1.5869
19785SOL     OW68132   4.662   9.369   2.700  0.3538 -0.1470 -0.1290
19785SOL    HW168133   4.582   9.318   2.710  0.8098 -0.7772  0.4265
19785SOL    HW268134   4.656   9.437   2.767  0.2338 -0.1242 -0.1619
19786SOL     OW68135   7.924   7.566  12.558 -0.1001  0.0378 -0.1739
19786SOL    HW168136   7.859   7.583  12.627  0.7816  1.2160  0.4053
19786SOL    HW268137   7.874   7.570  12.477 -0.8692  0.2971  0.2985
19787SOL     OW68138   9.611   4.245   3.449  0.6088 -0.3335 -0.0263
19787SOL    HW168139   9.626   4.178   3.517 -0.6151 -0.1837  0.4117
19787SOL    HW268140   9.566   4.198   3.379 -0.9750  0.1679  0.6161
19788SOL     OW68141   6.494   6.035  11.619 -0.3877  0.2475 -0.5191
19788SOL    HW168142   6.509   5.959  11.563 -0.5476  0.2142 -0.5160
19788SOL    HW268143   6.422   6.009  11.677 -0.9812  0.6849 -1.0462
19789SOL     OW68144   0.527  11.527  11.093 -0.1912  0.3450 -0.3036
19789SOL    HW168145   0.448  11.547  11.143  0.5738  0.8002  0.7443
19789SOL    HW268146   0.495  11.473  11.020 -1.5991  1.3104 -0.4587
19790SOL     OW68147   9.349   3.218   6.323 -0.3601  0.3048 -0.1935
19790SOL    HW168148   9.411   3.206   6.251  0.9343  0.6534  0.8417
19790SOL    HW268149   9.270   3.172   6.293  0.8601 -1.4540 -0.9298
19791SOL     OW68150   3.172   3.555   1.096  0.1853 -0.0997  0.0853
19791SOL    HW168151   3.088   3.532   1.057 -0.7452  1.2283  1.1810
19791SOL    HW268152   3.201   3.475   1.141 -0.3829 -0.6265 -0.4720
19792SOL     OW68153  12.177   2.106   4.486 -0.5339  0.3435  0.4807
19792SOL    HW168154  12.159   2.012   4.481 -2.2703  0.5135  2.4535
19792SOL    HW268155  12.251   2.113   4.546  0.8585  0.1810 -1.1329
19793SOL     OW68156   5.429   5.055   0.048 -0.3623 -0.4680  0.2141
19793SOL    HW168157   5.430   5.135  -0.004  1.4552 -0.1196  0.7059
19793SOL    HW268158   5.499   5.001   0.011  0.6398 -0.4307  1.9153
19794SOL     OW68159   9.789   0.931   8.301 -0.2011 -0.6238 -0.2071
19794SOL    HW168160   9.729   0.983   8.353  1.7933  2.3069 -0.6145
19794SOL    HW268161   9.738   0.853   8.276 -2.1773 -0.7013  3.4447
19795SOL     OW68162   1.931   0.140   0.437 -0.1217 -0.4266 -0.2182
19795SOL    HW168163   1.960   0.078   0.504 -0.7933  0.4227  0.8858
19795SOL    HW268164   2.011   0.160   0.387  0.1120 -2.1346 -0.6036
19796SOL     OW68165   6.817   5.916   9.552  0.3622  0.3007 -0.3849
19796SOL    HW168166   6.866   5.927   9.634  1.5377 -2.8310 -0.5485
19796SOL    HW268167   6.877   5.947   9.484  0.2164  0.8934 -0.2541
19797SOL     OW68168   1.592   5.968  11.072 -0.4472  0.6480 -0.5160
19797SOL    HW168169   1.555   6.033  11.130 -0.7689 -1.4075  1.7607
19797SOL    HW268170   1.530   5.895  11.074  2.4315 -2.0465  1.7205
19798SOL     OW68171  11.792   4.956   0.444 -0.0213  0.0357 -0.0968
19798SOL    HW168172  11.795   4.979   0.351  0.3552 -1.3452 -0.4537
19798SOL    HW268173  11.701   4.928   0.458 -0.3470  1.1911  0.2166
19799SOL     OW68174   4.339   9.204   4.953  0.4113 -0.0349  0.3083
19799SOL    HW168175   4.374   9.271   4.895  1.0762  0.1824  0.9404
19799SOL    HW268176   4.414   9.149   4.974  0.1587 -0.1731  0.8743
19800SOL     OW68177   6.912   4.361   9.515  0.0814 -0.3093  0.5964
19800SOL    HW168178   6.974   4.434   9.504 -0.2992 -0.0872 -0.1788
19800SOL    HW268179   6.916   4.314   9.431 -2.4961  1.0566 -0.4140
19801SOL     OW68180   0.830   7.823   4.118 -0.3200 -0.4466  0.1521
19801SOL    HW168181   0.873   7.776   4.046  2.0625 -0.0722  1.2526
19801SOL    HW268182   0.785   7.754   4.167 -1.0792 -0.8450 -1.0406
19802SOL     OW68183   3.717   4.535  10.167  0.0357 -0.1979  0.2756
19802SOL    HW168184   3.680   4.606  10.115 -1.3700 -0.6236  0.6501
19802SOL    HW268185   3.765   4.579  10.237 -0.8845  0.4146  0.5468
19803SOL     OW68186   9.702   2.663   2.609 -0.0818 -0.6925 -0.0443
19803SOL    HW168187   9.641   2.712   2.665  1.0794  1.5618 -0.6100
19803SOL    HW268188   9.662   2.668   2.522  0.5788  0.2515 -0.3031
19804SOL     OW68189  10.161  10.928   4.065 -0.0746  0.1217 -0.2212
19804SOL    HW168190  10.237  10.937   4.123 -0.6685  2.0318  0.3640
19804SOL    HW268191  10.118  10.847   4.094 -0.6977  1.3090  2.5488
19805SOL     OW68192   0.460   9.458   8.654 -0.4042  0.2773 -0.1787
19805SOL    HW168193   0.443   9.479   8.746  1.9947  1.8332 -0.0028
19805SOL    HW268194   0.527   9.390   8.657 -1.2017 -0.5472 -0.7938
19806SOL     OW68195   4.984   9.864   3.848  0.2177 -0.6530 -0.3138
19806SOL    HW168196   4.919   9.796   3.866  0.2165 -0.5342  0.1257
19806SOL    HW268197   4.962   9.896   3.760 -1.8347  1.0935  0.7485
19807SOL     OW68198   8.149  10.282   0.275 -0.0906  0.6044  0.5421
19807SOL    HW168199   8.209  10.207   0.273 -0.5565  0.2332  0.4103
19807SOL    HW268200   8.111  10.280   0.362  0.2162  0.9476  0.6875
19808SOL     OW68201   5.216   5.236  10.948 -0.0379  0.2537 -0.1442
19808SOL    HW168202   5.129   5.237  10.908 -0.2613  1.7019  0.3270
19808SOL    HW268203   5.211   5.168  11.015 -0.1871 -1.0067 -1.3923
19809SOL     OW68204  11.966   5.121   9.981  0.0390  0.1047  0.4365
19809SOL    HW168205  11.992   5.066   9.907  1.1075  2.2842 -0.9148
19809SOL    HW268206  11.976   5.065  10.058  1.6791 -1.4014 -0.7967
19810SOL     OW68207   6.681   9.223  11.050 -0.4323  0.2054  0.5610
19810SOL    HW168208   6.612   9.158  11.058 -0.4410  0.3102  1.4495
19810SOL    HW268209   6.660   9.271  10.970 -0.2050 -1.1312 -0.3435
19811SOL     OW68210   8.007   4.008  10.172  0.7154 -0.2368  0.2559
19811SOL    HW168211   8.007   4.058  10.090 -1.0208 -0.2902  0.1922
19811SOL    HW268212   8.059   3.930  10.152 -0.0270 -0.4519 -0.9420
19812SOL     OW68213   0.440   9.433  10.470 -0.1605  0.0035 -0.5646
19812SOL    HW168214   0.458   9.400  10.558 -2.1605 -0.2215 -0.1967
19812SOL    HW268215   0.474   9.365  10.412  0.2688 -0.3192  0.0471
19813SOL     OW68216   8.137   5.358   8.909 -0.2451  0.4887 -0.4240
19813SOL    HW168217   8.093   5.303   8.844  1.3144  0.3957 -1.4665
19813SOL    HW268218   8.122   5.314   8.992  1.1479 -1.6985 -1.2558
19814SOL     OW68219   4.355   7.766   2.114  0.4043 -0.2802 -0.3111
19814SOL    HW168220   4.277   7.819   2.099  0.2485 -0.4610 -0.1413
19814SOL    HW268221   4.387   7.744   2.026 -0.9401 -1.9864 -0.4225
19815SOL     OW68222   1.906   5.475   1.758 -0.1715 -0.0631  0.1642
19815SOL    HW168223   2.000   5.478   1.741 -0.1157  0.2184  0.5300
19815SOL    HW268224   1.898   5.452   1.851 -0.4711 -0.5415  0.0286
19816SOL     OW68225  11.307   3.252  10.955  0.5432  0.4041 -0.4418
19816SOL    HW168226  11.396   3.228  10.931  0.7479 -0.5398  1.1147
19816SOL    HW268227  11.315   3.340  10.991  0.7499  0.5277 -0.7806
19817SOL     OW68228   7.263  11.784   4.673 -0.4049  0.1425 -0.5852
19817SOL    HW168229   7.259  11.817   4.583 -1.0178 -2.4990 -1.6297
19817SOL    HW268230   7.200  11.838   4.721 -1.3835  0.4741 -2.1668
19818SOL     OW68231   6.466   2.637   7.268  0.0048  0.1958 -0.5710
19818SOL    HW168232   6.514   2.624   7.350  0.1495  0.4922 -0.6089
19818SOL    HW268233   6.520   2.696   7.217 -0.6839  1.0331 -0.3597
19819SOL     OW68234   4.036   4.060   8.646  0.1721  0.1592  0.5098
19819SOL    HW168235   4.077   3.997   8.705 -0.9439 -1.1594 -0.0906
19819SOL    HW268236   3.975   4.109   8.702  2.6976  2.4290  1.5085
19820SOL     OW68237  10.762   1.095   6.776  0.4934 -0.5486  0.3797
19820SOL    HW168238  10.725   1.178   6.745 -1.2065 -0.6202  2.0480
19820SOL    HW268239  10.826   1.121   6.842 -0.2377 -0.5392  1.1024
19821SOL     OW68240  10.837   1.053   9.107 -0.1941 -0.3191 -0.0092
19821SOL    HW168241  10.829   1.059   9.202 -1.0068  1.0465 -0.1474
19821SOL    HW268242  10.859   1.142   9.079 -1.5705 -0.3416 -1.2438
19822SOL     OW68243   6.734  10.944   1.805 -0.1915 -0.4314  0.1949
19822SOL    HW168244   6.746  10.965   1.898 -1.4779 -0.3120  0.3522
19822SOL    HW268245   6.821  10.951   1.767  0.3232 -0.3285  1.3675
19823SOL     OW68246  10.067   5.352   6.951 -0.2015  0.0372  0.0641
19823SOL    HW168247  10.063   5.312   6.864 -0.8162 -2.3136  1.0878
19823SOL    HW268248  10.140   5.308   6.995 -1.1927 -0.3642  1.3966
19824SOL     OW68249   4.380   7.511   5.404 -0.1447 -0.6016  0.7851
19824SOL    HW168250   4.402   7.554   5.487  0.0534  0.2930  0.2895
19824SOL    HW268251   4.430   7.561   5.338  2.3679 -3.2991  0.4370
19825SOL     OW68252   3.267  10.975   3.460 -0.1316 -0.2801 -0.0349
19825SOL    HW168253   3.275  10.933   3.375  0.0940 -0.3157  0.0032
19825SOL    HW268254   3.357  10.995   3.486 -0.2775  1.1744 -0.5330
19826SOL     OW68255   7.818   7.978   3.614  0.5926  0.4872  0.6709
19826SOL    HW168256   7.831   8.045   3.547 -2.9433  0.5345 -0.1591
19826SOL    HW268257   7.895   7.922   3.608  0.9417  1.1420 -2.6955
19827SOL     OW68258   2.540  10.521   9.739  0.7095 -0.1425 -0.1383
19827SOL    HW168259   2.500  10.477   9.665 -0.3342 -0.0061  0.3309
19827SOL    HW268260   2.630  10.538   9.711 -0.2010  1.7688 -2.1970
19828SOL     OW68261   3.568   5.197  11.812  0.2018  0.2373  0.1824
19828SOL    HW168262   3.611   5.129  11.761  0.6470  0.8729 -0.2938
19828SOL    HW268263   3.537   5.152  11.891 -2.1845 -1.2002 -1.4406
19829SOL     OW68264   7.901   9.417   1.836 -0.2254 -0.2371 -0.0368
19829SOL    HW168265   7.840   9.490   1.850  1.8209  2.5170 -3.7555
19829SOL    HW268266   7.861   9.365   1.766 -0.8716 -1.8724  1.4603
19830SOL     OW68267   0.012   1.264   5.430 -0.0506 -0.3002  0.7227
19830SOL    HW168268  -0.041   1.275   5.510  1.3862 -0.9805  1.8166
19830SOL    HW268269   0.045   1.174   5.436  1.0851  0.0494 -0.0018
19831SOL     OW68270   6.078  10.621   9.760  0.1984 -0.3161  0.0288
19831SOL    HW168271   6.152  10.584   9.807  2.2418  0.1207 -2.5860
19831SOL    HW268272   6.054  10.554   9.696  0.5475  0.7572 -1.2959
19832SOL     OW68273   2.488  10.432  11.771 -0.6363 -0.3673 -0.3601
19832SOL    HW168274   2.575  10.468  11.753 -1.3229  1.2964 -0.5348
19832SOL    HW268275   2.452  10.413  11.684 -0.5040 -0.9616 -0.2919
19833SOL     OW68276   1.771   1.993   2.231  0.5761 -0.1992  0.6684
19833SOL    HW168277   1.743   1.945   2.309 -0.4472 -0.5127  0.1326
19833SOL    HW268278   1.720   1.954   2.160  0.8535  0.6627 -0.0141
19834SOL     OW68279   1.122   0.358  11.479  0.6188 -0.2330  0.1367
19834SOL    HW168280   1.140   0.264  11.476  1.5104 -0.3605  4.2782
19834SOL    HW268281   1.031   0.364  11.507  0.1645  0.2262 -1.3439
19835SOL     OW68282   8.217   9.166   1.583  0.0636 -0.3848 -0.8109
19835SOL    HW168283   8.171   9.083   1.596  2.0263 -1.4049 -0.0053
19835SOL    HW268284   8.192   9.219   1.659  1.5482 -1.5929  0.5770
19836SOL     OW68285  10.385  12.458   3.635 -0.3489 -0.7845  0.4080
19836SOL    HW168286  10.291  12.454   3.652 -0.6124  0.4836 -0.6294
19836SOL    HW268287  10.400  12.387   3.572 -0.8193 -0.2672 -0.2959
19837SOL     OW68288   2.340  11.543   1.234  1.0349  0.9180 -0.2179
19837SOL    HW168289   2.407  11.612   1.240 -0.0155  1.9308  0.4762
19837SOL    HW268290   2.257  11.590   1.247  0.3021 -0.5364  0.5993
19838SOL     OW68291   4.444  10.035   6.858 -0.5672 -0.6305  0.2292
19838SOL    HW168292   4.379   9.969   6.833  0.0351 -0.5337 -1.7496
19838SOL    HW268293   4.395  10.117   6.862 -1.0079 -0.9297  1.0928
19839SOL     OW68294   5.034   0.806   5.796 -0.1061 -0.8009  0.3722
19839SOL    HW168295   5.072   0.862   5.864 -2.0302  1.2794 -0.1320
19839SOL    HW268296   4.953   0.774   5.835 -1.1779  0.3300 -0.8201
19840SOL     OW68297  12.412   5.559  11.729 -0.1032 -0.2193 -0.3316
19840SOL    HW168298  12.376   5.643  11.702  0.1738 -0.1356 -0.4491
19840SOL    HW268299  12.378   5.545  11.818  0.1640  0.2035 -0.1626
19841SOL     OW68300   2.977   4.534   5.175 -0.2054 -0.1535 -0.0414
19841SOL    HW168301   2.919   4.490   5.112 -0.3469 -1.1517  0.7470
19841SOL    HW268302   2.920   4.593   5.223 -0.4209 -0.5416  0.1891
19842SOL     OW68303   1.723   5.947  12.538 -0.0325 -0.2507 -0.3902
19842SOL    HW168304   1.745   6.036  12.512 -1.2896 -0.5122 -2.5731
19842SOL    HW268305   1.744   5.943  12.632 -0.1282  2.3586 -0.2015
19843SOL     OW68306   3.569  10.705  11.565 -0.2987 -0.7196 -0.4795
19843SOL    HW168307   3.525  10.663  11.639 -2.1134 -0.6096 -1.4432
19843SOL    HW268308   3.529  10.791  11.558  0.3447 -0.4650 -1.1535
19844SOL     OW68309   4.126   7.409   0.655 -0.5959 -0.0299 -1.0076
19844SOL    HW168310   4.186   7.356   0.602  0.6626 -0.2793  0.5833
19844SOL    HW268311   4.180   7.442   0.727 -2.4724 -0.6255  0.7658
19845SOL     OW68312  11.896   3.544   1.028  0.1475  0.2558 -0.0004
19845SOL    HW168313  11.856   3.542   0.941 -2.3728  0.7467  1.0524
19845SOL    HW268314  11.989   3.531   1.012 -0.4483 -1.5274 -2.6068
19846SOL     OW68315   4.870   3.826   8.325 -0.1173  0.3260 -0.3988
19846SOL    HW168316   4.938   3.774   8.366  0.8151  0.3606 -1.8175
19846SOL    HW268317   4.904   3.916   8.325  0.3917  0.1739 -2.1236
19847SOL     OW68318   8.111  10.139   9.271 -0.2706 -0.2554 -0.4564
19847SOL    HW168319   8.190  10.167   9.226 -0.1094 -0.9831 -0.6412
19847SOL    HW268320   8.129  10.049   9.298 -1.9372 -1.3783 -2.7147
19848SOL     OW68321   8.508   9.229  11.706  0.3438  0.0237 -0.0937
19848SOL    HW168322   8.510   9.152  11.763 -0.8494 -1.2773 -1.6913
19848SOL    HW268323   8.438   9.284  11.742  1.6225  0.7582  1.4337
19849SOL     OW68324  10.863   4.407   9.359  0.0235 -0.4131 -0.3744
19849SOL    HW168325  10.840   4.390   9.450 -0.5677 -1.0154 -0.6231
19849SOL    HW268326  10.950   4.369   9.348  0.5490  0.5899  0.2034
19850SOL     OW68327   3.619   9.311  11.420  0.1671  0.0434 -0.2803
19850SOL    HW168328   3.544   9.252  11.413  1.4498 -2.0417  2.2632
19850SOL    HW268329   3.596   9.371  11.491  0.0572  0.8310 -0.9589
19851SOL     OW68330   7.546   3.395  11.428 -0.1923  0.0511  0.2695
19851SOL    HW168331   7.599   3.459  11.475  1.8303 -3.1502  2.7848
19851SOL    HW268332   7.475   3.374  11.489  0.0925 -1.1857  0.1972
19852SOL     OW68333   6.385   1.903   2.389  0.2599  0.1668  0.4119
19852SOL    HW168334   6.394   1.845   2.313 -1.4815  1.2172 -0.6653
19852SOL    HW268335   6.467   1.891   2.438  1.4610 -0.5527 -1.6192
19853SOL     OW68336  10.734  12.065   9.048  0.0039  0.2157 -0.1836
19853SOL    HW168337  10.731  12.058   8.953  0.4329  0.8783 -0.2526
19853SOL    HW268338  10.778  11.985   9.077 -0.0281  0.0639 -0.5474
19854SOL     OW68339  12.183   6.569  10.621  0.4177 -0.1715 -0.3649
19854SOL    HW168340  12.190   6.658  10.586  0.7031 -0.3680 -0.8131
19854SOL    HW268341  12.272   6.546  10.646  0.3227 -0.2838 -0.1240
19855SOL     OW68342   0.619  10.627  10.596  0.0102  0.1499  0.7217
19855SOL    HW168343   0.659  10.578  10.525 -1.4668 -2.0713  1.2970
19855SOL    HW268344   0.574  10.560  10.648 -0.8605  1.9764  2.4371
19856SOL     OW68345  10.642   3.020  12.240 -0.5861  0.0290 -0.2659
19856SOL    HW168346  10.604   3.104  12.264 -1.8203 -0.5336 -0.1441
19856SOL    HW268347  10.721   3.013  12.293 -1.0875  0.6100  0.5896
19857SOL     OW68348   1.607   5.900   0.949  0.0147  0.4271  0.7752
19857SOL    HW168349   1.693   5.915   0.987 -0.1852  2.0907  0.6380
19857SOL    HW268350   1.546   5.909   1.022 -0.0066 -2.0639  1.1504
19858SOL     OW68351  10.037  10.494   0.065 -0.4127  0.4091 -0.1394
19858SOL    HW168352  10.090  10.573   0.075  0.7232 -0.1102 -1.5247
19858SOL    HW268353  10.023  10.487  -0.030 -0.2187 -1.1803 -0.0827
19859SOL     OW68354   8.669   1.940   7.191 -0.1429 -0.2195  0.0670
19859SOL    HW168355   8.575   1.958   7.183  0.0630  0.7560 -0.3841
19859SOL    HW268356   8.698   1.931   7.100  0.1227 -0.9647  0.2241
19860SOL     OW68357   8.399  10.948   2.393 -0.2824  0.0957  0.5831
19860SOL    HW168358   8.370  10.987   2.476 -0.8602  0.0580  0.4050
19860SOL    HW268359   8.428  10.860   2.417 -0.5977  0.0278  0.7269
19861SOL     OW68360   5.558   4.302   7.864 -0.1501  0.3538  0.0880
19861SOL    HW168361   5.646   4.263   7.869 -1.1481 -1.9687  0.9250
19861SOL    HW268362   5.542   4.338   7.951  0.0844  1.0496 -0.1550
19862SOL     OW68363  11.170   4.016   6.984  0.1156 -0.0487 -0.1147
19862SOL    HW168364  11.244   3.961   7.012 -0.0187 -0.0294  0.2926
19862SOL    HW268365  11.109   3.955   6.943 -0.2797 -0.3004  0.8266
19863SOL     OW68366   5.318  11.390  12.001  0.6432 -0.3026 -0.3202
19863SOL    HW168367   5.298  11.483  12.001 -0.6251 -0.5572 -0.9568
19863SOL    HW268368   5.244  11.349  12.046  0.3898 -1.1543 -1.4661
19864SOL     OW68369   1.253   0.504  10.814  0.1744  0.2702  0.3270
19864SOL    HW168370   1.268   0.410  10.818  1.0053  0.4223  1.0239
19864SOL    HW268371   1.231   0.529  10.904  1.6561  1.0037  0.5130
19865SOL     OW68372   1.421   9.125  12.531  0.3109 -0.4319  0.2691
19865SOL    HW168373   1.428   9.101  12.623 -1.4995 -1.1118  0.2627
19865SOL    HW268374   1.356   9.195  12.528  1.6250  0.8292 -0.3360
19866SOL     OW68375   3.359   8.969   2.824 -0.3645 -0.0354 -0.2274
19866SOL    HW168376   3.368   8.977   2.919  0.2282 -1.9086 -0.0753
19866SOL    HW268377   3.356   9.059   2.792 -1.3688  0.6451  1.6219
19867SOL     OW68378   4.273   8.064   3.483  0.4561 -0.1387  0.1600
19867SOL    HW168379   4.284   7.970   3.469 -0.0653 -0.6556  2.7130
19867SOL    HW268380   4.182   8.081   3.461  0.7805 -0.0036 -1.1796
19868SOL     OW68381   7.377   5.613   3.813  0.4202  0.0716  0.1218
19868SOL    HW168382   7.473   5.621   3.812  0.6006 -1.7785 -0.2307
19868SOL    HW268383   7.356   5.565   3.733 -0.7258 -0.3792  0.6731
19869SOL     OW68384   7.000  12.150   7.299  0.1924  0.0689 -0.1236
19869SOL    HW168385   7.093  12.164   7.315  0.0055 -1.2907  2.7181
19869SOL    HW268386   6.962  12.238   7.291  1.5862  0.6438 -0.6120
19870SOL     OW68387  11.499   8.405  12.579  0.0841  0.0333 -0.6845
19870SOL    HW168388  11.458   8.487  12.608 -1.4876 -1.3086  1.1084
19870SOL    HW268389  11.572   8.392  12.638 -1.0695 -0.9786  0.5800
19871SOL     OW68390   2.594   0.115  11.019 -0.2788 -0.6841  0.2053
19871SOL    HW168391   2.587   0.132  10.925  1.0840 -2.4249 -0.2606
19871SOL    HW268392   2.673   0.161  11.046 -0.5247 -0.4028  0.4490
19872SOL     OW68393  10.128   3.584   7.257 -0.1066 -0.0227  0.3771
19872SOL    HW168394  10.037   3.613   7.268 -0.2049 -0.2735  0.2444
19872SOL    HW268395  10.160   3.572   7.346 -0.2177  0.0216  0.4247
19873SOL     OW68396   6.810   8.220  10.252 -0.1552  0.2453 -0.3198
19873SOL    HW168397   6.715   8.211  10.245 -0.2007 -0.6982  0.9465
19873SOL    HW268398   6.826   8.222  10.347  1.0476  0.8584 -0.5246
19874SOL     OW68399   4.215   0.889   0.186  0.0407 -0.3946 -0.3822
19874SOL    HW168400   4.217   0.951   0.113 -0.0461  0.0771  0.0123
19874SOL    HW268401   4.224   0.803   0.145 -0.0019 -0.1314 -0.9471
19875SOL     OW68402   4.116   8.338   8.996 -0.0025 -0.0667 -0.4008
19875SOL    HW168403   4.097   8.244   8.988  1.7251 -0.4872  0.0803
19875SOL    HW268404   4.104   8.357   9.089  2.4598 -0.5170  0.0700
19876SOL     OW68405   5.764   4.203   0.448 -0.5652 -0.1151 -0.1683
19876SOL    HW168406   5.832   4.242   0.393  0.4590 -1.2143  0.2761
19876SOL    HW268407   5.691   4.265   0.443  0.3310  0.9251 -0.9370
19877SOL     OW68408   6.801   8.154   4.523  0.3740  0.0504 -0.2806
19877SOL    HW168409   6.883   8.187   4.486  0.6858  0.2962  0.6038
19877SOL    HW268410   6.801   8.061   4.501  1.2628 -0.1103  0.3693
19878SOL     OW68411   8.884   2.923   1.144 -0.0018  0.3198 -0.1878
19878SOL    HW168412   8.875   2.955   1.054 -1.0062  0.8745  0.0967
19878SOL    HW268413   8.800   2.943   1.185  0.1511 -0.6766  0.6420
19879SOL     OW68414   2.790   3.943  12.251 -0.4035 -0.0484  0.1260
19879SOL    HW168415   2.831   4.029  12.259  0.5351 -0.4968  0.3217
19879SOL    HW268416   2.702   3.961  12.218  0.7461  0.8090 -2.7893
19880SOL     OW68417  10.475  11.895   5.270  0.1904 -0.0421  0.3722
19880SOL    HW168418  10.490  11.877   5.177  1.3476 -1.7743  0.8556
19880SOL    HW268419  10.562  11.907   5.307 -0.1315 -1.2305  1.5758
19881SOL     OW68420  11.772  12.210   1.306 -0.2238 -0.4272 -0.2409
19881SOL    HW168421  11.846  12.181   1.359  0.7078  1.9237 -0.1342
19881SOL    HW268422  11.778  12.305   1.307 -3.3686 -0.1433 -0.1056
19882SOL     OW68423   1.261   2.126   8.923  0.8311  0.2295  0.2054
19882SOL    HW168424   1.324   2.183   8.967 -0.0442  0.1370  1.6448
19882SOL    HW268425   1.278   2.039   8.960  1.4226 -0.2825 -1.1684
19883SOL     OW68426   5.065   2.178   8.417 -0.0511 -0.7393 -0.9484
19883SOL    HW168427   4.983   2.130   8.415 -0.2301 -0.7211  1.8800
19883SOL    HW268428   5.046   2.256   8.469  1.8036 -0.9129  0.0687
19884SOL     OW68429   0.305   0.405   2.423 -0.3515  0.0759  0.3233
19884SOL    HW168430   0.286   0.485   2.373  1.5908 -0.4951 -1.4963
19884SOL    HW268431   0.386   0.425   2.470  0.1691 -0.8015 -0.1708
19885SOL     OW68432   2.862   6.255   0.029  0.3633 -0.5654  0.0539
19885SOL    HW168433   2.775   6.217   0.027 -0.3508  0.9993 -1.1343
19885SOL    HW268434   2.855   6.328   0.091  0.4054  0.3804 -1.0011
19886SOL     OW68435   7.241   1.984  11.974  0.0248  0.5483  0.0104
19886SOL    HW168436   7.287   1.936  12.043  2.4984  2.0233 -0.4879
19886SOL    HW268437   7.211   1.917  11.914  1.0425 -0.5381  0.6765
19887SOL     OW68438   2.743   0.078  11.946  0.7756  0.1788 -0.2054
19887SOL    HW168439   2.689   0.081  11.867 -0.0768 -0.5797  0.3319
19887SOL    HW268440   2.802   0.004  11.932 -1.1546 -1.6962  0.9347
19888SOL     OW68441  10.840   8.003   5.421 -0.2569  0.0093 -0.4467
19888SOL    HW168442  10.860   8.008   5.515  3.4946  1.0623 -1.1258
19888SOL    HW268443  10.876   8.084   5.385 -0.5164 -0.9181 -2.9860
19889SOL     OW68444   0.021   2.243  11.481 -0.5811 -0.3904  0.6006
19889SOL    HW168445  -0.025   2.207  11.405  2.0749  1.6379 -2.2063
19889SOL    HW268446  -0.048   2.282  11.534 -2.4574 -0.0558 -1.8721
19890SOL     OW68447  10.674   0.809   5.521 -0.5076 -0.1057 -0.2105
19890SOL    HW168448  10.718   0.732   5.558 -0.9651 -0.2344  0.0770
19890SOL    HW268449  10.744   0.871   5.504 -0.4959  1.1628  3.6689
19891SOL     OW68450   1.144   0.186   4.739  0.1590 -0.3782  1.0132
19891SOL    HW168451   1.062   0.213   4.698  1.1447 -0.3451 -1.0460
19891SOL    HW268452   1.186   0.269   4.764  0.5102 -0.2817  0.1230
19892SOL     OW68453   3.574   6.525   8.440 -0.5551  0.3951 -0.5429
19892SOL    HW168454   3.586   6.485   8.354 -0.1611 -1.7368  0.4343
19892SOL    HW268455   3.577   6.619   8.424  0.0536  0.0400 -2.7702
19893SOL     OW68456  10.929  11.757   0.936  0.1715  0.4018 -1.2412
19893SOL    HW168457  10.853  11.758   0.877  0.8691 -0.6950 -2.2129
19893SOL    HW268458  10.993  11.703   0.890  0.3379 -1.4814  1.0091
19894SOL     OW68459   0.742   4.942   8.431  0.2296 -0.2713  0.1984
19894SOL    HW168460   0.675   4.875   8.418 -0.1151  0.0508  0.3273
19894SOL    HW268461   0.787   4.947   8.346 -0.8562  0.5535 -0.3459
19895SOL     OW68462   7.834   6.103   9.835  0.0184 -0.7393 -0.6057
19895SOL    HW168463   7.889   6.167   9.880  0.1388 -0.8777 -0.5519
19895SOL    HW268464   7.752   6.148   9.817  0.4851 -0.2298 -1.5169
19896SOL     OW68465  10.849   5.263  11.848 -0.1893  0.2335 -0.5941
19896SOL    HW168466  10.906   5.189  11.869 -1.4247 -1.1627 -1.9119
19896SOL    HW268467  10.872   5.286  11.758 -0.4954  0.8018 -0.5304
19897SOL     OW68468  11.131   1.476  12.105  0.9504 -0.0287 -0.2724
19897SOL    HW168469  11.123   1.479  12.010 -0.3154 -0.6071 -0.2052
19897SOL    HW268470  11.045   1.447  12.135  1.5643 -0.5929  1.0046
19898SOL     OW68471   7.558   2.180   8.719 -0.4738 -0.0002  0.1127
19898SOL    HW168472   7.547   2.222   8.634 -1.3730  0.1165  0.2746
19898SOL    HW268473   7.598   2.248   8.774  1.5304 -0.5514 -0.5924
19899SOL     OW68474   0.911  11.215   1.913 -0.0063  0.5141 -0.2034
19899SOL    HW168475   0.911  11.199   1.819 -1.4189  0.7513 -0.2588
19899SOL    HW268476   0.927  11.310   1.921  1.0904  0.3406 -0.1466
19900SOL     OW68477   5.753   7.191   0.522 -0.2860 -0.1276 -0.6703
19900SOL    HW168478   5.832   7.245   0.511  1.7515 -2.6902  0.3342
19900SOL    HW268479   5.691   7.248   0.567  0.9850  1.9846 -1.4544
19901SOL     OW68480   2.912   4.431   1.864  0.1060 -0.3076 -0.1821
19901SOL    HW168481   2.846   4.362   1.864 -0.1250 -0.1019 -1.1849
19901SOL    HW268482   2.947   4.430   1.953 -1.1252 -0.5319  0.3250
19902SOL     OW68483   5.437   4.122   0.317  0.1141  0.4962  0.1212
19902SOL    HW168484   5.442   4.117   0.413 -2.5883  0.3269  0.3329
19902SOL    HW268485   5.445   4.031   0.288 -1.9761  0.1345  0.4784
19903SOL     OW68486   0.947   8.628   9.044  0.0694  0.4349 -0.2417
19903SOL    HW168487   1.012   8.654   9.109  0.6400  1.0127 -1.0277
19903SOL    HW268488   0.942   8.533   9.052  0.5261  0.4473  0.2754
19904SOL     OW68489   2.303   9.711   0.891 -0.3777 -0.6582 -0.3352
19904SOL    HW168490   2.251   9.632   0.904 -0.2127 -0.6219  0.6508
19904SOL    HW268491   2.312   9.748   0.979 -1.2341  0.9645 -0.8956
19905SOL     OW68492   1.949  12.384   4.859  0.4204 -0.6006  0.0187
19905SOL    HW168493   1.944  12.361   4.766  0.6592 -2.1305  0.3494
19905SOL    HW268494   2.000  12.313   4.898  0.5100  0.1347  1.2852
19906SOL     OW68495   7.978   4.670   0.588 -0.3530 -0.4219  0.8393
19906SOL    HW168496   7.987   4.657   0.494 -1.0272  1.2662  0.4934
19906SOL    HW268497   8.037   4.743   0.608 -0.4019 -0.5972  1.6730
19907SOL     OW68498  12.443   3.782   7.320  0.0218 -0.3714 -0.0990
19907SOL    HW168499  12.467   3.828   7.240 -0.7801  2.0733  0.9928
19907SOL    HW268500  12.523   3.781   7.372  0.1928 -0.7912 -0.3596
19908SOL     OW68501   5.863   5.441   8.691 -0.5176  0.5670  0.5231
19908SOL    HW168502   5.928   5.465   8.757  0.9726 -1.4171 -0.1402
19908SOL    HW268503   5.911   5.443   8.608 -1.1862 -1.2431  0.0488
19909SOL     OW68504  11.434   6.049   4.753 -0.1105 -0.1253  0.1637
19909SOL    HW168505  11.426   6.120   4.816  1.8851 -0.0810  0.4491
19909SOL    HW268506  11.454   5.972   4.807 -1.8428 -0.8591 -0.1719
19910SOL     OW68507  12.368   2.389  10.644 -0.5066  0.5560 -0.5426
19910SOL    HW168508  12.363   2.306  10.692 -0.3001  0.4125 -0.7684
19910SOL    HW268509  12.286   2.433  10.664 -0.5071  0.4072 -0.2179
19911SOL     OW68510   7.416   0.852  11.393 -0.1407 -0.1938  0.4410
19911SOL    HW168511   7.365   0.779  11.357 -0.4116 -0.6315  1.6624
19911SOL    HW268512   7.486   0.867  11.329 -0.8573 -0.6425 -0.4720
19912SOL     OW68513   2.490   0.581   6.904  0.3865 -0.5076  0.0884
19912SOL    HW168514   2.531   0.497   6.883  0.7381  0.2013 -2.4036
19912SOL    HW268515   2.396   0.566   6.888  0.3462 -0.6091  0.4002
19913SOL     OW68516  11.731   0.037   8.336  0.0781  0.2670 -0.0348
19913SOL    HW168517  11.663   0.098   8.308 -0.9182  0.6787  2.9171
19913SOL    HW268518  11.785   0.024   8.258 -1.1274  2.9443 -1.4683
19914SOL     OW68519   3.039  12.259   9.414  0.1158  0.4404 -0.2900
19914SOL    HW168520   2.970  12.325   9.418 -0.3006 -0.0121  0.1237
19914SOL    HW268521   3.097  12.289   9.343  0.0905  1.3832  0.0734
19915SOL     OW68522  10.719   8.281   1.641  0.1283  0.1506 -0.1054
19915SOL    HW168523  10.714   8.376   1.654 -0.7286 -0.0440  1.1642
19915SOL    HW268524  10.635   8.248   1.672  0.3853 -1.0359 -0.6033
19916SOL     OW68525   8.529   8.275   8.797 -0.0138  0.3959  0.0178
19916SOL    HW168526   8.573   8.194   8.823 -0.9770 -0.2707 -0.3478
19916SOL    HW268527   8.436   8.256   8.808 -0.2776  1.3006 -0.5215
19917SOL     OW68528   6.680   9.838   6.817 -0.2961  0.1381  0.4679
19917SOL    HW168529   6.710   9.859   6.729  2.8290  0.8811  1.5866
19917SOL    HW268530   6.585   9.833   6.809 -0.1050 -0.6669 -3.0913
19918SOL     OW68531   6.176   7.080  10.650 -0.1979  0.4639  0.3961
19918SOL    HW168532   6.269   7.101  10.649  0.1022 -0.8120 -0.5421
19918SOL    HW268533   6.173   6.985  10.650 -1.5079  0.4916  0.7813
19919SOL     OW68534   9.680   4.705  10.019 -0.3201 -0.4128  0.1210
19919SOL    HW168535   9.695   4.769   9.950 -0.3363 -3.6970 -3.2539
19919SOL    HW268536   9.590   4.720  10.047 -0.1035  1.4041 -0.0213
19920SOL     OW68537   7.227  12.099   4.083 -0.5839  0.4469  0.2346
19920SOL    HW168538   7.230  12.061   3.996 -0.6426  0.0182  0.4138
19920SOL    HW268539   7.138  12.080   4.115 -0.3157 -0.0836  0.6805
19921SOL     OW68540   1.190   4.802   9.871 -0.1800 -0.3509  0.0948
19921SOL    HW168541   1.222   4.890   9.852 -0.8510 -0.4184 -1.5534
19921SOL    HW268542   1.196   4.756   9.787 -0.0258 -1.8265  0.8771
19922SOL     OW68543   8.038   2.512   2.696  0.1128 -0.2390 -0.0942
19922SOL    HW168544   8.082   2.493   2.613  0.7569  1.5972 -0.2374
19922SOL    HW268545   8.062   2.603   2.715 -0.3611 -0.4793  1.9030
19923SOL     OW68546  10.146  12.535   5.015 -0.4163 -0.1177 -0.2037
19923SOL    HW168547  10.117  12.549   4.925 -0.2393  0.0616 -0.2336
19923SOL    HW268548  10.202  12.610   5.034  0.6804 -0.8676 -0.4188
19924SOL     OW68549   3.135   3.679  11.488 -0.0201  0.2518  0.3274
19924SOL    HW168550   3.063   3.652  11.546  0.6230  0.6909  1.3435
19924SOL    HW268551   3.100   3.755  11.441 -0.4088  0.1238  0.4018
19925SOL     OW68552  10.957  11.373   5.677  0.2077 -0.1199 -0.5474
19925SOL    HW168553  10.975  11.281   5.691 -2.1598 -0.7729 -1.2121
19925SOL    HW268554  11.015  11.399   5.605  2.2195 -0.5405  0.8609
19926SOL     OW68555   0.511   4.479   4.349 -0.0898 -0.4526  0.0140
19926SOL    HW168556   0.465   4.525   4.420 -0.6606  0.3655 -0.8646
19926SOL    HW268557   0.541   4.549   4.291  1.2672 -1.0507 -0.0454
19927SOL     OW68558   2.099   9.742  12.029  0.0007 -0.7436  1.3262
19927SOL    HW168559   2.114   9.836  12.040  1.9124 -0.5902 -1.4973
19927SOL    HW268560   2.156   9.701  12.093 -0.3479 -0.0100  2.1300
19928SOL     OW68561  12.104   4.718  11.705 -0.5735 -0.2623 -0.2471
19928SOL    HW168562  12.131   4.644  11.651 -0.1482 -1.3464  1.3813
19928SOL    HW268563  12.031   4.684  11.757  2.0651 -0.9425  3.4044
19929SOL     OW68564   7.180  11.833   5.426 -0.3304  0.3202  0.3426
19929SOL    HW168565   7.088  11.808   5.430 -0.4780  0.9263  0.7032
19929SOL    HW268566   7.188  11.910   5.482 -0.1126  1.8457 -1.6728
19930SOL     OW68567   2.742   0.380   0.262 -0.2920 -0.1440  0.1682
19930SOL    HW168568   2.780   0.382   0.174 -2.1308  0.6101 -0.6423
19930SOL    HW268569   2.727   0.472   0.284 -0.4524 -0.3658  1.0161
19931SOL     OW68570   7.122   8.155  11.363  0.2205 -0.2012 -0.2023
19931SOL    HW168571   7.100   8.074  11.317  1.5058  0.0127 -1.2361
19931SOL    HW268572   7.177   8.203  11.302  0.1297  1.1059  0.7113
19932SOL     OW68573   8.170   1.254  11.919 -0.5596 -0.1430  0.0402
19932SOL    HW168574   8.158   1.160  11.924  1.8317 -0.5904 -1.1857
19932SOL    HW268575   8.254   1.271  11.961 -0.6408  1.3567 -0.3186
19933SOL     OW68576   3.238   6.175   6.157  0.3105  0.2005  0.4995
19933SOL    HW168577   3.213   6.123   6.233  1.0076 -1.6504 -0.4856
19933SOL    HW268578   3.328   6.203   6.176  0.8086 -1.0127 -0.0050
19934SOL     OW68579   2.780   2.156  10.731  0.1319  0.0210 -0.1470
19934SOL    HW168580   2.761   2.230  10.674  0.6203  0.9376  0.8510
19934SOL    HW268581   2.753   2.186  10.818  1.2452 -0.6086  0.4267
19935SOL     OW68582   0.382   2.731   1.405  0.4910  0.3970 -0.0768
19935SOL    HW168583   0.361   2.741   1.312 -0.8686  2.0306  0.3619
19935SOL    HW268584   0.442   2.803   1.423 -0.9248  1.4287  0.7393
19936SOL     OW68585   4.621   3.630   4.629 -0.3732  0.9231  0.5080
19936SOL    HW168586   4.525   3.638   4.630 -0.4381  0.1302  1.4276
19936SOL    HW268587   4.644   3.597   4.715  0.5969 -0.4221 -0.2224
19937SOL     OW68588   2.684   6.952   7.806  0.5424 -0.0388  0.9512
19937SOL    HW168589   2.693   6.882   7.742  2.0929  1.6407 -0.7885
19937SOL    HW268590   2.632   7.019   7.761  2.1637  1.4253  1.1647
19938SOL     OW68591   0.435   4.859   2.245 -0.0224 -0.1273  0.3520
19938SOL    HW168592   0.452   4.871   2.339  2.6004  0.6534 -0.1300
19938SOL    HW268593   0.364   4.920   2.225 -0.0899  0.2654  1.6903
19939SOL     OW68594   9.240   2.950   2.600 -0.2216  0.3033  0.2269
19939SOL    HW168595   9.295   2.872   2.599 -1.7462 -0.8450 -0.2876
19939SOL    HW268596   9.284   3.012   2.542 -0.9563 -1.7591 -2.8013
19940SOL     OW68597   2.430   1.312   6.770  0.2769 -0.4201  0.2550
19940SOL    HW168598   2.447   1.289   6.679 -0.3831  0.6158 -0.1399
19940SOL    HW268599   2.335   1.306   6.780  0.0143  2.1355  0.0823
19941SOL     OW68600   3.721   8.886   4.407  0.1490 -0.0329  0.3019
19941SOL    HW168601   3.716   8.980   4.390 -0.0040  0.2349  1.6811
19941SOL    HW268602   3.804   8.859   4.370  0.3148  0.7029  0.1241
19942SOL     OW68603   5.091   1.704   9.152 -0.6509 -0.3336  0.4542
19942SOL    HW168604   5.076   1.770   9.084 -0.7720 -0.6565  0.1687
19942SOL    HW268605   5.176   1.726   9.189 -0.6596 -0.0585  0.3139
19943SOL     OW68606   1.669   3.727  10.986  0.2975 -0.0106 -0.0635
19943SOL    HW168607   1.641   3.768  11.068 -0.1352  1.2085 -0.7930
19943SOL    HW268608   1.734   3.662  11.013 -0.0684  0.1342  1.2679
19944SOL     OW68609   9.271   0.958   4.306  0.0161 -0.5739  0.0540
19944SOL    HW168610   9.273   1.050   4.334 -1.3172 -1.1957  2.4821
19944SOL    HW268611   9.319   0.911   4.374  0.0331 -1.7738 -0.7552
19945SOL     OW68612   2.289   4.555   6.863  0.3240  0.1248  0.3833
19945SOL    HW168613   2.365   4.613   6.858 -0.2293  0.7337 -1.6982
19945SOL    HW268614   2.214   4.614   6.860 -0.2687 -0.5294  1.5785
19946SOL     OW68615   0.853  10.255   5.886  0.0438 -0.1252 -0.4226
19946SOL    HW168616   0.859  10.160   5.873  0.0063 -0.5636  2.1633
19946SOL    HW268617   0.766  10.279   5.853 -1.1571 -1.5527  1.5179
19947SOL     OW68618   6.540   1.482  10.460 -1.0994  0.0830 -0.7395
19947SOL    HW168619   6.562   1.403  10.411 -1.4705 -0.2077 -0.4384
19947SOL    HW268620   6.473   1.454  10.523 -0.9760  0.5535 -0.3900
19948SOL     OW68621  10.645  10.457  12.425 -0.5211  0.1552  0.1911
19948SOL    HW168622  10.614  10.463  12.335  0.9800  1.1625 -0.3009
19948SOL    HW268623  10.579  10.503  12.477 -2.3543 -1.9919 -0.0822
19949SOL     OW68624   3.413  10.697   2.661 -0.1608 -0.1307 -0.1081
19949SOL    HW168625   3.504  10.676   2.638 -0.0214  2.0918 -1.9709
19949SOL    HW268626   3.363  10.680   2.582 -0.9458  0.8635  0.1489
19950SOL     OW68627   9.252   2.531   7.138  0.4377 -0.5351  0.2413
19950SOL    HW168628   9.299   2.598   7.187 -1.2546 -0.4536  1.8671
19950SOL    HW268629   9.317   2.462   7.122  1.7044  0.6242  0.2272
19951SOL     OW68630   6.664  12.096   6.602 -0.1298  0.3927 -0.5496
19951SOL    HW168631   6.578  12.077   6.638  1.1746 -2.5732  1.3850
19951SOL    HW268632   6.667  12.191   6.597 -2.4047  0.7481  2.2698
19952SOL     OW68633   2.395  10.657  10.299  0.3029  0.2381  0.0440
19952SOL    HW168634   2.416  10.574  10.255 -1.5557 -0.4012  0.2855
19952SOL    HW268635   2.323  10.635  10.358 -1.4832  2.3493 -1.1984
19953SOL     OW68636   3.226   4.274   2.767 -0.6394 -0.2334  0.9086
19953SOL    HW168637   3.170   4.252   2.692 -0.0691 -0.3261  0.5027
19953SOL    HW268638   3.216   4.368   2.777 -1.0850 -0.2914  1.0135
19954SOL     OW68639   0.168   7.476   4.264 -0.5506  0.5050 -0.5236
19954SOL    HW168640   0.078   7.500   4.285  0.1759  1.3407  1.9616
19954SOL    HW268641   0.183   7.396   4.315  0.8079  1.7299  1.1247
19955SOL     OW68642   7.025   9.811   3.886  0.3385 -0.2649 -0.4854
19955SOL    HW168643   6.965   9.848   3.821 -0.2699 -0.0282  0.1934
19955SOL    HW268644   7.082   9.884   3.910 -0.3739  0.0476  0.2988
19956SOL     OW68645  10.121   7.111   5.911 -0.2164  0.4065  0.3289
19956SOL    HW168646  10.036   7.080   5.881  0.0154 -0.3604  0.4367
19956SOL    HW268647  10.101   7.189   5.964 -0.7463  0.8840 -0.5403
19957SOL     OW68648   8.172   8.972   4.692 -0.3324  0.3563  0.1838
19957SOL    HW168649   8.259   8.992   4.658 -1.2319  4.6701 -0.2542
19957SOL    HW268650   8.124   8.940   4.615  0.5360 -0.9781  0.1740
19958SOL     OW68651   6.162  11.526   7.575  0.2122  0.0996 -0.5515
19958SOL    HW168652   6.187  11.491   7.660  3.0852 -0.4543 -1.5198
19958SOL    HW268653   6.230  11.590   7.554 -0.5725  0.4224 -2.3435
19959SOL     OW68654   3.908   6.146  12.381 -0.0560  0.0485  0.0256
19959SOL    HW168655   3.906   6.051  12.387 -0.0239 -0.0180 -0.8981
19959SOL    HW268656   3.986   6.172  12.430  0.7217 -0.5058 -0.8957
19960SOL     OW68657   2.626   3.968   7.621 -0.0404  0.2730  0.2511
19960SOL    HW168658   2.639   4.019   7.700 -1.2365  0.6037  0.2493
19960SOL    HW268659   2.533   3.943   7.623  0.1639 -0.6167 -0.5036
19961SOL     OW68660   4.623   7.618   8.008 -0.2787  0.3331 -0.3996
19961SOL    HW168661   4.610   7.579   8.094  0.8888  0.0651 -0.3301
19961SOL    HW268662   4.666   7.550   7.956  0.9587  1.1974 -0.5435
19962SOL     OW68663   7.438   4.469  12.249  0.1013 -0.0512  0.4525
19962SOL    HW168664   7.402   4.442  12.333  1.3291  2.6960  2.0047
19962SOL    HW268665   7.509   4.530  12.272 -1.3019  3.0442 -2.5311
19963SOL     OW68666   2.430   1.923   1.366  0.5306 -0.3314 -0.3776
19963SOL    HW168667   2.458   1.832   1.352  2.1642 -0.1160  1.1435
19963SOL    HW268668   2.343   1.916   1.405  1.6532 -1.4251  2.1758
19964SOL     OW68669  11.679   6.518  12.431 -0.3825  0.7627  0.9497
19964SOL    HW168670  11.731   6.590  12.396  2.0829 -0.5968  1.5153
19964SOL    HW268671  11.672   6.456  12.358 -0.0572  0.3720  1.2428
19965SOL     OW68672   4.498   7.807   3.596  0.4117 -0.7114 -0.0320
19965SOL    HW168673   4.466   7.782   3.683 -1.2104  0.3517 -0.2793
19965SOL    HW268674   4.561   7.877   3.614 -1.6537  1.1867  0.2477
19966SOL     OW68675   3.018   8.781   2.908 -0.1589  0.0591 -0.2574
19966SOL    HW168676   3.072   8.797   2.830  2.1500 -1.6807  0.8545
19966SOL    HW268677   3.073   8.810   2.981 -1.7903  0.5220  0.8490
19967SOL     OW68678   4.839   1.275   9.639 -0.0028  0.2600 -0.0895
19967SOL    HW168679   4.895   1.319   9.703  0.5473  0.0782 -0.4430
19967SOL    HW268680   4.815   1.344   9.577 -2.0193  0.8824  1.2667
19968SOL     OW68681   9.894   8.068   5.186  0.5120 -0.3292 -0.1099
19968SOL    HW168682   9.845   7.987   5.171  0.1129  0.1055 -1.2614
19968SOL    HW268683   9.976   8.039   5.226  0.1313 -1.2450  0.0395
19969SOL     OW68684   0.018   1.053   4.416  0.6551  0.7667 -0.1857
19969SOL    HW168685   0.110   1.063   4.438  0.6999  2.3826 -1.0139
19969SOL    HW268686   0.011   1.082   4.326 -0.8188  1.5915  0.1567
19970SOL     OW68687   3.386   8.498   5.214 -0.3671  0.3664  0.6180
19970SOL    HW168688   3.371   8.563   5.145  2.0346 -1.5114 -1.9173
19970SOL    HW268689   3.481   8.502   5.230  0.6048 -4.3476 -1.9918
19971SOL     OW68690   3.601   0.951   3.849  0.1184  0.1383  0.2285
19971SOL    HW168691   3.568   0.863   3.866 -0.7741  0.6830  1.4263
19971SOL    HW268692   3.696   0.940   3.844 -0.0612 -1.1031 -1.0448
19972SOL     OW68693   7.751   4.134   8.843  0.5669 -0.4024  0.3450
19972SOL    HW168694   7.754   4.210   8.785  1.2133 -1.2595 -0.8031
19972SOL    HW268695   7.761   4.170   8.931  0.7938  0.8389 -0.1670
19973SOL     OW68696  12.590   8.632   6.019 -0.0519 -0.2420 -0.0897
19973SOL    HW168697  12.629   8.718   6.035  1.4351 -0.8014 -0.5249
19973SOL    HW268698  12.664   8.571   6.019 -0.6434 -1.1309 -2.8492
19974SOL     OW68699   1.116  11.917   6.393  0.3393  0.4974  0.5521
19974SOL    HW168700   1.193  11.924   6.337  0.0483  2.6864  0.3418
19974SOL    HW268701   1.042  11.932   6.335 -0.1449  0.0971  1.0543
19975SOL     OW68702   0.196   0.915   5.590  0.3931  0.3187 -0.6220
19975SOL    HW168703   0.134   0.936   5.520  0.0157  0.7926 -0.1601
19975SOL    HW268704   0.236   0.832   5.564 -0.8089 -0.2528 -0.6775
19976SOL     OW68705  11.101   4.271  10.189 -0.1214  0.4077  0.0285
19976SOL    HW168706  11.111   4.205  10.121 -1.2994 -1.1633  1.2957
19976SOL    HW268707  11.191   4.294  10.214  0.3357 -1.1544 -0.0548
19977SOL     OW68708   4.123   4.036   4.560  0.0529  0.0214 -0.1278
19977SOL    HW168709   4.069   4.081   4.495 -0.7154  0.5153  0.8194
19977SOL    HW268710   4.196   4.000   4.510 -0.6435  0.1729 -1.2993
19978SOL     OW68711   7.524   5.018  10.749 -0.0830  0.5153 -0.6247
19978SOL    HW168712   7.502   4.994  10.839 -0.8103  2.2342 -0.3039
19978SOL    HW268713   7.493   4.945  10.696 -0.9757  0.1297  0.3950
19979SOL     OW68714  10.374   2.594   7.776  0.5813  0.4359 -0.0646
19979SOL    HW168715  10.344   2.504   7.769  0.0688  0.6123 -0.1715
19979SOL    HW268716  10.304   2.640   7.822  1.0051  0.7009  0.3168
19980SOL     OW68717  12.585   3.799   2.391  0.0243 -0.1284 -0.0718
19980SOL    HW168718  12.596   3.875   2.335 -0.9815  0.2069  0.1735
19980SOL    HW268719  12.647   3.813   2.463 -0.0788  0.4007 -0.0827
19981SOL     OW68720   4.348  11.151  12.094 -0.0534 -0.2164 -0.5167
19981SOL    HW168721   4.369  11.208  12.168 -1.1552  0.1835 -0.5046
19981SOL    HW268722   4.284  11.200  12.043 -0.2142 -1.0007 -1.0813
19982SOL     OW68723   8.269   4.441   3.330  0.0302  0.1699 -0.0769
19982SOL    HW168724   8.174   4.449   3.337 -0.0701 -1.0815  0.2483
19982SOL    HW268725   8.301   4.531   3.327 -1.2948  0.6414 -2.4557
19983SOL     OW68726   5.020   9.999   2.976  0.0365  0.0612  0.3172
19983SOL    HW168727   5.012  10.094   2.976  0.2548  0.0954  1.4320
19983SOL    HW268728   5.115   9.983   2.975  0.0099 -0.1803 -0.9920
19984SOL     OW68729   4.993   3.531   1.677 -0.0773  0.2260  0.2251
19984SOL    HW168730   4.984   3.625   1.664 -0.4298 -0.1410 -2.8927
19984SOL    HW268731   5.073   3.507   1.629 -1.0863 -1.3112 -0.7797
19985SOL     OW68732  12.248  10.900   8.133 -0.2517 -0.0612 -0.0190
19985SOL    HW168733  12.159  10.907   8.165 -0.5428 -0.9798 -0.5947
19985SOL    HW268734  12.244  10.836   8.062  0.3101  1.9708 -2.0423
19986SOL     OW68735   3.513   0.504   9.764  0.1495 -0.1995  0.0280
19986SOL    HW168736   3.420   0.495   9.785  0.5648 -1.3022  1.6214
19986SOL    HW268737   3.519   0.480   9.672 -1.1746  0.1371 -0.1724
19987SOL     OW68738   4.429   4.262  10.616 -0.0729 -0.5726  0.9767
19987SOL    HW168739   4.424   4.305  10.701  2.8903 -1.5622  1.7727
19987SOL    HW268740   4.504   4.304  10.572 -0.2566 -1.4915 -0.2818
19988SOL     OW68741   7.699   3.450  10.433 -0.1352  0.1673 -0.0875
19988SOL    HW168742   7.639   3.490  10.497  1.6214  0.8497  1.2032
19988SOL    HW268743   7.764   3.404  10.486  0.6334 -0.3631 -1.4459
19989SOL     OW68744  10.723   5.697   6.219  0.0669 -0.5315  0.2957
19989SOL    HW168745  10.761   5.748   6.291  1.4705 -1.7294  0.4624
19989SOL    HW268746  10.645   5.656   6.258  0.4785 -0.6928  0.9681
19990SOL     OW68747   3.631   4.928   0.647 -0.2256 -0.1275 -0.1529
19990SOL    HW168748   3.651   5.022   0.648  0.1195 -0.1707 -1.2769
19990SOL    HW268749   3.564   4.917   0.715 -1.0217  1.1042 -0.7012
19991SOL     OW68750  10.057   7.017   7.814 -0.0094  0.4210 -0.1678
19991SOL    HW168751  10.107   7.062   7.746 -1.1826  2.2443  0.1004
19991SOL    HW268752  10.124   6.980   7.873  1.0028  0.7622 -1.0753
19992SOL     OW68753   2.487   9.255   8.724  0.0528  0.2293  0.1582
19992SOL    HW168754   2.399   9.291   8.725 -0.6247 -1.3282 -0.3315
19992SOL    HW268755   2.539   9.317   8.776 -0.9324  2.0622 -0.9369
19993SOL     OW68756   6.327   9.592   1.120 -0.2708  0.1177 -0.0819
19993SOL    HW168757   6.387   9.665   1.107 -0.0865 -0.0289 -0.0640
19993SOL    HW268758   6.304   9.564   1.032 -1.6327  1.2377 -0.1128
19994SOL     OW68759   8.466   4.603  11.465 -0.6101 -0.1661 -0.2019
19994SOL    HW168760   8.395   4.667  11.474 -1.8830 -1.0289 -3.0941
19994SOL    HW268761   8.513   4.608  11.548 -2.3920  2.4223  0.7697
19995SOL     OW68762   8.543   5.904   1.548 -0.1083  0.4715 -0.2103
19995SOL    HW168763   8.483   5.858   1.607 -0.1598 -0.2514 -0.8147
19995SOL    HW268764   8.498   5.986   1.527 -0.3932  0.4240  0.2033
19996SOL     OW68765   1.187   9.663   3.366 -0.2161  0.5370 -0.0496
19996SOL    HW168766   1.164   9.600   3.298  1.0791  2.6065 -2.5844
19996SOL    HW268767   1.103   9.697   3.397 -0.8421 -0.7420 -0.2693
19997SOL     OW68768   6.322   4.927   0.381 -0.5151 -0.7496  0.0200
19997SOL    HW168769   6.311   4.837   0.350 -0.0426 -1.9338  2.9536
19997SOL    HW268770   6.403   4.957   0.340  0.5429 -2.5150  0.6926
19998SOL     OW68771   8.689   3.295   5.079  0.4361  0.0335  0.0140
19998SOL    HW168772   8.607   3.343   5.084 -0.7524 -1.9401  0.3110
19998SOL    HW268773   8.724   3.297   5.168  0.2352  0.0516  0.0920
19999SOL     OW68774   1.643   6.478   8.532  0.0328 -0.2127  0.0012
19999SOL    HW168775   1.692   6.407   8.490  1.3647  0.2770  0.6703
19999SOL    HW268776   1.580   6.433   8.589  0.8711 -0.8777  0.4289
20000SOL     OW68777   2.095   8.791  10.069 -0.4913 -0.3446  0.7594
20000SOL    HW168778   2.024   8.819  10.127 -0.7899 -3.0643  1.8493
20000SOL    HW268779   2.171   8.780  10.126  0.5102  1.2730 -0.1810
20001SOL     OW68780   3.916   9.317  12.489  0.5846 -0.6141 -0.3908
20001SOL    HW168781   3.882   9.238  12.531 -0.2931  0.0109  0.1181
20001SOL    HW268782   3.850   9.384  12.508  0.6145 -0.0899 -2.0184
20002SOL     OW68783   6.126  11.022  10.844  0.2409  0.3011 -0.2018
20002SOL    HW168784   6.078  10.974  10.776  0.7282 -0.3206 -0.1153
20002SOL    HW268785   6.078  11.003  10.925  0.4542 -0.0830 -0.1615
20003SOL     OW68786   1.199   8.972   3.743 -0.1105  0.1273  0.5897
20003SOL    HW168787   1.226   9.037   3.808 -0.1880  0.5065  0.2481
20003SOL    HW268788   1.262   8.901   3.753 -0.2063  0.1175  1.1741
20004SOL     OW68789   8.861   2.088   8.859 -0.0419 -0.3143 -0.2468
20004SOL    HW168790   8.925   2.156   8.882 -0.5448  0.3544 -0.7862
20004SOL    HW268791   8.913   2.022   8.813  0.0981  0.7750 -1.7468
20005SOL     OW68792   1.260   8.676   0.560 -0.6836 -0.0215  0.4959
20005SOL    HW168793   1.270   8.592   0.606  1.1835  0.1734  0.5042
20005SOL    HW268794   1.292   8.741   0.622  1.4752  0.2904 -0.8408
20006SOL     OW68795   5.124   3.809   5.406  0.2102 -0.2208  0.3575
20006SOL    HW168796   5.038   3.849   5.393  0.2928  0.4678  1.6607
20006SOL    HW268797   5.159   3.797   5.318 -0.3584  1.4323 -0.1359
20007SOL     OW68798   0.334   5.046   0.958 -0.1497  0.4162 -0.3527
20007SOL    HW168799   0.310   5.094   0.879  0.0854 -1.2990 -1.5326
20007SOL    HW268800   0.267   4.978   0.967  1.1146 -0.9134 -0.4964
20008SOL     OW68801   1.536  11.213  11.335  0.0902 -0.1079 -0.1105
20008SOL    HW168802   1.626  11.203  11.366 -0.0258  1.9926  1.1324
20008SOL    HW268803   1.541  11.278  11.265 -0.3941 -0.4533 -0.4756
20009SOL     OW68804   6.272   4.238   1.366  0.1451 -0.1614 -0.0056
20009SOL    HW168805   6.261   4.312   1.426 -0.7136 -0.5432  0.3353
20009SOL    HW268806   6.346   4.189   1.402  0.2263  0.1109  0.2066
20010SOL     OW68807   5.751   8.461   1.346  0.2093 -0.1155 -0.6000
20010SOL    HW168808   5.677   8.447   1.286 -1.4360  1.1040  1.0214
20010SOL    HW268809   5.760   8.556   1.350 -0.5002 -0.0811  1.8993
20011SOL     OW68810   3.527  10.379   2.538 -0.3271 -0.4506 -0.1364
20011SOL    HW168811   3.434  10.396   2.526  0.1534  3.3580  0.3349
20011SOL    HW268812   3.562  10.369   2.450 -0.8646  0.1872 -0.4258
20012SOL     OW68813  12.257   6.287   3.726  0.5212  0.3756  0.1690
20012SOL    HW168814  12.223   6.269   3.639  1.5458 -0.5556 -0.0574
20012SOL    HW268815  12.202   6.234   3.784  0.1456  0.6252  0.0431
20013SOL     OW68816   4.257   2.533   3.133  0.2341 -0.3671  0.2966
20013SOL    HW168817   4.340   2.576   3.155  1.1976 -2.2755  0.6480
20013SOL    HW268818   4.252   2.459   3.193 -2.3869  0.3936  1.1472
20014SOL     OW68819   7.377   4.952   9.825  1.0885  0.5649  0.0249
20014SOL    HW168820   7.326   4.925   9.901  1.2387 -1.1100 -0.4286
20014SOL    HW268821   7.313   4.992   9.767  0.6637  0.3458  0.3342
20015SOL     OW68822  11.707   8.755   5.214  0.3421  0.5982  0.1494
20015SOL    HW168823  11.716   8.712   5.299  1.8279  0.7863  0.1168
20015SOL    HW268824  11.733   8.689   5.150  1.5378  1.1565  0.0270
20016SOL     OW68825   5.113   4.748  12.449 -0.1878  0.5435  0.3518
20016SOL    HW168826   5.107   4.839  12.419  1.0938  0.1476 -1.2723
20016SOL    HW268827   5.022   4.718  12.452 -0.5198  1.2516 -1.2600
20017SOL     OW68828  11.727   8.874  10.563 -0.2001  0.8375  0.1552
20017SOL    HW168829  11.818   8.850  10.579  0.1725  1.7611 -0.5058
20017SOL    HW268830  11.693   8.898  10.649  0.6185  1.9178  0.1985
20018SOL     OW68831   6.235   2.077   1.797 -0.3748 -0.0027 -0.2685
20018SOL    HW168832   6.329   2.084   1.813 -0.7679  1.2305  1.8862
20018SOL    HW268833   6.228   2.039   1.709  2.1148  0.3798 -0.6933
20019SOL     OW68834   5.706   5.611   4.229  0.3747  0.8293 -0.3790
20019SOL    HW168835   5.740   5.531   4.191 -0.9964  0.8929 -1.8263
20019SOL    HW268836   5.731   5.680   4.167 -2.3169  0.8683 -1.5868
20020SOL     OW68837   5.254   4.525   9.340 -0.5976 -0.0150 -0.5973
20020SOL    HW168838   5.280   4.574   9.262 -1.8436 -0.3838 -1.2751
20020SOL    HW268839   5.178   4.475   9.312  0.8018 -2.6194  0.0002
20021SOL     OW68840   9.121   8.684   0.034  0.1704 -0.0533  0.3679
20021SOL    HW168841   9.168   8.652  -0.043  1.1446 -0.1463  0.9856
20021SOL    HW268842   9.030   8.691   0.005  0.3825 -0.8683 -0.5439
20022SOL     OW68843   1.067   5.211  11.928 -0.0982 -0.6362  0.5565
20022SOL    HW168844   0.974   5.201  11.946  0.3074 -0.1826  3.5535
20022SOL    HW268845   1.110   5.159  11.996  1.8352  0.6943  0.4443
20023SOL     OW68846   3.042   0.444   9.924  0.0333 -0.1518 -0.2067
20023SOL    HW168847   3.023   0.538   9.926  0.9655  0.0755 -0.9946
20023SOL    HW268848   3.138   0.440   9.920 -0.0058 -1.1387 -0.2324
20024SOL     OW68849   4.457   0.849   5.638 -0.5023 -0.0876  0.2602
20024SOL    HW168850   4.529   0.797   5.603 -1.3125 -1.9029  1.1400
20024SOL    HW268851   4.472   0.937   5.604  1.5245 -0.6422 -0.4311
20025SOL     OW68852   1.552   2.862   4.232  0.3563  0.4742  0.1269
20025SOL    HW168853   1.601   2.876   4.150 -0.2510 -0.3898 -0.3981
20025SOL    HW268854   1.462   2.848   4.204  0.4435 -1.7639  0.7677
20026SOL     OW68855   5.657   3.383   9.670  0.0120 -0.3860  0.7003
20026SOL    HW168856   5.713   3.460   9.671  0.3493 -0.6240  1.3483
20026SOL    HW268857   5.713   3.313   9.636 -0.3005 -0.3387  0.0846
20027SOL     OW68858   0.119  12.412   9.754 -0.4249 -0.5733 -0.3429
20027SOL    HW168859   0.201  12.450   9.785 -0.9160  0.3072 -0.0598
20027SOL    HW268860   0.056  12.484   9.761 -1.2001 -1.2115 -0.6227
20028SOL     OW68861   9.758   0.009  11.620  0.6896  0.4938 -0.6862
20028SOL    HW168862   9.706  -0.072  11.618 -1.1236  1.5565  0.3507
20028SOL    HW268863   9.846  -0.018  11.594  0.2190 -1.8701 -0.0619
20029SOL     OW68864  10.312   1.696  11.879 -0.2671  0.0475 -0.3767
20029SOL    HW168865  10.273   1.715  11.964 -2.0994  0.2305 -1.2267
20029SOL    HW268866  10.368   1.771  11.861 -1.5266  1.0373 -0.2721
20030SOL     OW68867   3.610   0.896  10.360  0.2135 -0.2753  0.6501
20030SOL    HW168868   3.529   0.872  10.316  0.5361 -2.9673  1.3706
20030SOL    HW268869   3.643   0.972  10.311 -1.2310 -0.9505 -1.4820
20031SOL     OW68870   7.736   1.229   6.699 -0.0404  0.5949  0.4132
20031SOL    HW168871   7.794   1.267   6.764  2.3031 -0.0924 -1.1486
20031SOL    HW268872   7.704   1.148   6.740  2.2364 -0.3865  0.4199
20032SOL     OW68873  11.350   3.026   6.614  0.1200  0.0886 -0.0117
20032SOL    HW168874  11.428   3.063   6.655  0.7940 -1.8775  0.5958
20032SOL    HW268875  11.306   2.978   6.685 -0.0449 -1.2512 -0.9800
20033SOL     OW68876   4.922   9.948   0.185 -0.2293 -0.3803  0.6548
20033SOL    HW168877   4.985   9.956   0.113 -1.8743 -0.1828 -0.8372
20033SOL    HW268878   4.975   9.959   0.264  1.4227  0.8818 -0.5478
20034SOL     OW68879   9.613   2.691   5.407  0.2778 -0.4274  0.1153
20034SOL    HW168880   9.641   2.774   5.446 -0.6455 -0.2593  0.4546
20034SOL    HW268881   9.667   2.625   5.449  0.5658 -0.0616  0.3249
20035SOL     OW68882   6.995   3.477   7.820  0.5937  0.2327  0.2602
20035SOL    HW168883   7.007   3.527   7.901  3.3770 -0.9922  0.7345
20035SOL    HW268884   7.011   3.541   7.750 -1.1901  1.1467  0.6167
20036SOL     OW68885   9.077   1.526   0.382  0.5070 -0.0571  0.3864
20036SOL    HW168886   9.054   1.551   0.472 -0.1524  2.5841 -0.4166
20036SOL    HW268887   8.999   1.480   0.350  0.7767 -1.0931  1.1383
20037SOL     OW68888   3.583   9.445   9.550 -0.1096  0.3661 -0.1304
20037SOL    HW168889   3.644   9.391   9.499 -1.0561 -0.7891 -0.0663
20037SOL    HW268890   3.608   9.429   9.641 -1.1808 -0.9692 -0.0489
20038SOL     OW68891   2.610   0.135   7.754 -0.3733  0.4085 -0.8602
20038SOL    HW168892   2.524   0.107   7.786  0.2925 -1.3269 -0.4647
20038SOL    HW268893   2.640   0.199   7.818  0.2643 -1.8594  1.2319
20039SOL     OW68894   2.458   9.980   3.146  0.4492 -0.1039  0.6529
20039SOL    HW168895   2.538  10.031   3.156  0.4120  0.2068 -0.5221
20039SOL    HW268896   2.437   9.951   3.235  1.3400  0.5931  1.1063
20040SOL     OW68897   3.087   9.723   6.343  0.7884  0.0416  0.0102
20040SOL    HW168898   2.996   9.706   6.321  0.4189  1.4305  0.3675
20040SOL    HW268899   3.083   9.789   6.412  2.0622  0.3040 -0.1406
20041SOL     OW68900   7.094  12.607   6.468  0.0302  0.1223 -0.3821
20041SOL    HW168901   7.139  12.640   6.546  0.2452 -2.8480  0.8488
20041SOL    HW268902   7.164  12.579   6.410 -0.1317 -1.6482  0.2306
20042SOL     OW68903   9.434   9.132   6.484 -0.3501 -0.3549 -0.3765
20042SOL    HW168904   9.438   9.151   6.578  2.3041  1.5568 -0.7618
20042SOL    HW268905   9.371   9.196   6.450  0.0922  0.2336 -0.1151
20043SOL     OW68906   9.333   6.452  10.898  0.2005 -0.4924 -0.0368
20043SOL    HW168907   9.287   6.489  10.974  1.1538 -1.4260  1.0283
20043SOL    HW268908   9.264   6.438  10.833 -0.3853  2.0231 -0.0849
20044SOL     OW68909   9.764   4.092   1.295  0.5674 -0.1508  0.0633
20044SOL    HW168910   9.837   4.041   1.331 -0.7975 -0.4951  2.5692
20044SOL    HW268911   9.784   4.183   1.321  0.4372 -0.1440  0.1363
20045SOL     OW68912   7.638   2.066   4.639 -0.0974 -0.3304 -0.1671
20045SOL    HW168913   7.573   1.997   4.624 -0.4709 -0.8094  2.9483
20045SOL    HW268914   7.708   2.022   4.687 -0.0924  1.3075  1.4101
20046SOL     OW68915   4.779   7.990  11.412  0.9547 -0.5447 -0.0791
20046SOL    HW168916   4.699   7.940  11.400  0.9530 -0.5596 -0.0051
20046SOL    HW268917   4.846   7.925  11.434  0.1864 -0.2376  3.9408
20047SOL     OW68918   7.930   0.058  11.845 -0.3176 -0.2954 -0.1222
20047SOL    HW168919   7.866   0.013  11.791 -0.6971 -0.8134  0.7310
20047SOL    HW268920   7.976  -0.013  11.891  0.1043  0.1218  0.1040
20048SOL     OW68921   8.612   3.767   6.391 -0.6664  0.0538  0.0663
20048SOL    HW168922   8.610   3.822   6.470  2.7428  0.6276 -0.0771
20048SOL    HW268923   8.562   3.817   6.326  1.0215  2.3892  0.3956
20049SOL     OW68924   6.386   1.205   8.915 -0.4479  0.0182 -0.3686
20049SOL    HW168925   6.439   1.127   8.929 -1.1115 -0.6382 -1.3991
20049SOL    HW268926   6.435   1.257   8.852  0.2576  0.7236  0.7211
20050SOL     OW68927   7.211  11.806   0.972  0.6226 -0.1000 -0.1231
20050SOL    HW168928   7.245  11.812   0.883 -1.1664 -1.0248 -0.9313
20050SOL    HW268929   7.272  11.747   1.017  0.9003 -0.5609 -1.0780
20051SOL     OW68930   3.376   6.970   4.576 -0.0794 -0.4496 -0.8506
20051SOL    HW168931   3.339   6.954   4.489  1.4021  1.3507 -1.8838
20051SOL    HW268932   3.330   7.047   4.609 -1.0543 -1.4644  0.2805
20052SOL     OW68933   6.091   5.539   3.900  0.0162 -0.0482 -0.2838
20052SOL    HW168934   5.998   5.547   3.877  0.3684  0.0702 -1.8343
20052SOL    HW268935   6.137   5.580   3.826  1.2541  1.7157  1.3791
20053SOL     OW68936   3.434   4.102  10.657 -0.1473  0.8282  0.1084
20053SOL    HW168937   3.406   4.187  10.693  3.4790  1.8826  0.9299
20053SOL    HW268938   3.491   4.065  10.725 -0.4736 -1.6190 -0.8450
20054SOL     OW68939   5.931   6.798   0.408  0.9166  0.7528  0.4263
20054SOL    HW168940   6.012   6.847   0.394  0.3557  1.7473  0.5604
20054SOL    HW268941   5.942   6.760   0.496  0.8151  1.7466  0.8817
20055SOL     OW68942   8.605   8.852   0.151  0.4282 -0.3708 -0.1112
20055SOL    HW168943   8.612   8.936   0.104  0.8093 -0.3576 -0.0320
20055SOL    HW268944   8.521   8.857   0.196 -0.1888 -0.5911 -1.1942
20056SOL     OW68945   0.351   4.014   1.580 -0.2021 -0.2186  0.4664
20056SOL    HW168946   0.334   4.036   1.489  0.1639 -0.1216  0.4199
20056SOL    HW268947   0.321   4.090   1.630 -0.1793 -0.1743  0.4109
20057SOL     OW68948   9.016   2.415   7.268 -0.4931  0.4530 -0.0520
20057SOL    HW168949   9.079   2.473   7.226  0.1163  0.6824  1.1516
20057SOL    HW268950   9.054   2.327   7.260 -0.4946  0.4655 -0.1911
20058SOL     OW68951   4.047   9.003   8.821 -0.4605  0.5607 -0.3228
20058SOL    HW168952   4.019   8.977   8.734 -0.1551  0.2160 -0.3206
20058SOL    HW268953   4.091   9.086   8.809  1.2028 -0.3419 -0.7742
20059SOL     OW68954  12.594  12.316   4.208  0.3175 -0.2120 -0.4153
20059SOL    HW168955  12.579  12.351   4.296 -1.7763 -1.5890 -0.1509
20059SOL    HW268956  12.542  12.373   4.151  2.2160  1.1121 -0.9326
20060SOL     OW68957   4.686   8.668   4.453  0.3243 -1.0537 -0.8932
20060SOL    HW168958   4.649   8.585   4.422 -0.3714 -0.4678 -1.6501
20060SOL    HW268959   4.613   8.730   4.450  0.9480 -0.2958 -0.7568
20061SOL     OW68960   7.632   1.860   2.852 -0.4624  0.2089 -0.3782
20061SOL    HW168961   7.646   1.935   2.910 -2.2860  0.9290 -0.8054
20061SOL    HW268962   7.655   1.784   2.906  0.8395  1.0125  0.2584
20062SOL     OW68963   8.372   2.571   5.628 -0.1319  0.3265 -0.0993
20062SOL    HW168964   8.300   2.594   5.570 -0.8565 -0.0006  0.6521
20062SOL    HW268965   8.330   2.548   5.711  0.8322  0.0812  0.3366
20063SOL     OW68966  11.220  11.111   1.898  0.1983  0.1409  0.1921
20063SOL    HW168967  11.283  11.134   1.967  0.5603  0.5025 -0.2551
20063SOL    HW268968  11.148  11.069   1.945  1.0838 -0.9376  0.6309
20064SOL     OW68969   5.784   7.274   5.103  0.2045  0.0801  0.2129
20064SOL    HW168970   5.770   7.334   5.030 -0.7309  0.2083  0.4768
20064SOL    HW268971   5.757   7.188   5.070  0.1990  0.0594  0.2701
20065SOL     OW68972   7.382   3.120   8.168 -0.0585 -0.3533  0.6049
20065SOL    HW168973   7.301   3.156   8.204  0.0229  0.0288  0.4039
20065SOL    HW268974   7.385   3.031   8.203 -0.6681 -0.4398  0.4545
20066SOL     OW68975   0.688  11.070   0.588 -0.7511 -0.0168 -0.3930
20066SOL    HW168976   0.642  10.996   0.629  2.5939 -1.1251  1.7174
20066SOL    HW268977   0.732  11.032   0.513 -0.9313  0.4065 -0.7176
20067SOL     OW68978   6.395  10.096   9.873 -0.7259  0.0231  0.3529
20067SOL    HW168979   6.391  10.056   9.786  0.4892  0.5320  0.0412
20067SOL    HW268980   6.373  10.025   9.933 -2.4195 -0.1322 -0.3980
20068SOL     OW68981   0.403  10.413   2.000 -0.1948 -0.0311 -0.2420
20068SOL    HW168982   0.366  10.501   1.998 -0.1896 -0.0239 -0.0210
20068SOL    HW268983   0.464  10.411   1.926 -0.0113  0.2323 -0.1001
20069SOL     OW68984   6.089  11.339  11.041  0.3839  0.4728  0.0320
20069SOL    HW168985   6.156  11.287  10.996  1.6116  0.4621  1.7397
20069SOL    HW268986   6.011  11.284  11.039  1.1788 -0.7282  0.3189
20070SOL     OW68987   9.659  11.430   3.952 -0.0030  0.2904 -0.1222
20070SOL    HW168988   9.637  11.391   3.867  0.7331  1.1526 -0.7158
20070SOL    HW268989   9.734  11.379   3.983 -1.8322 -1.7655  1.2824
20071SOL     OW68990   2.750  10.159   9.943 -0.0111  0.1634 -0.1608
20071SOL    HW168991   2.824  10.113   9.904 -0.8416 -0.9916 -0.3907
20071SOL    HW268992   2.791  10.230   9.994  1.3681 -1.3756  1.0114
20072SOL     OW68993  11.270   2.876   6.838  0.3149 -0.2421 -0.1345
20072SOL    HW168994  11.359   2.856   6.867  0.0341 -0.7897  0.3570
20072SOL    HW268995  11.240   2.796   6.795 -0.0523 -0.1647 -0.0303
20073SOL     OW68996   3.157   4.372  11.437 -0.4361  0.9593  0.1507
20073SOL    HW168997   3.166   4.277  11.448 -3.6392  0.7391  2.2179
20073SOL    HW268998   3.233   4.408  11.483  1.2264 -0.5339 -1.2572
20074SOL     OW68999   5.946   5.058  11.461 -0.3522 -0.0538  0.4427
20074SOL    HW169000   5.998   5.136  11.442 -0.2644 -0.1461  0.3027
20074SOL    HW269001   5.896   5.042  11.381 -1.8448  0.9948  1.1292
20075SOL     OW69002   5.843   6.431   6.335  0.4312 -0.4547 -0.1087
20075SOL    HW169003   5.809   6.427   6.246  0.8398  2.7247 -0.5239
20075SOL    HW269004   5.927   6.384   6.331 -0.4414 -1.9998 -0.8677
20076SOL     OW69005   1.416   2.550  10.640  0.2720 -0.0141  0.3160
20076SOL    HW169006   1.480   2.620  10.653  0.0089  0.2434  0.2183
20076SOL    HW269007   1.336   2.583  10.680  0.1789 -0.3131  0.3821
20077SOL     OW69008   6.053   7.417   8.138 -0.1150  0.2290  0.2168
20077SOL    HW169009   6.036   7.324   8.150 -1.6279  0.3217 -0.9719
20077SOL    HW269010   6.027   7.457   8.221 -0.7685 -0.2635  0.2606
20078SOL     OW69011   5.401  10.421  10.686 -0.0327  0.1249  0.1398
20078SOL    HW169012   5.314  10.454  10.707 -0.8916 -1.5705 -0.6203
20078SOL    HW269013   5.434  10.483  10.620 -1.5099 -0.3448 -1.0823
20079SOL     OW69014   7.104   8.528   6.627 -0.4071  0.0531  0.7969
20079SOL    HW169015   7.162   8.459   6.594  0.2713  0.6947  0.6136
20079SOL    HW269016   7.023   8.483   6.651  0.3804 -0.9583  1.6233
20080SOL     OW69017   1.326  11.752   3.498  0.2194 -0.1040  0.0324
20080SOL    HW169018   1.306  11.795   3.415 -1.8159 -1.9051 -0.5004
20080SOL    HW269019   1.263  11.788   3.560 -0.7706 -1.4311 -0.1593
20081SOL     OW69020  11.149  12.056   4.762 -0.0483  0.2658  0.1937
20081SOL    HW169021  11.177  12.082   4.849  1.0722  2.4603 -0.7515
20081SOL    HW269022  11.212  12.096   4.703 -1.2346 -0.4944 -1.6867
20082SOL     OW69023   1.465  12.323   7.796  0.1307 -0.4805 -0.5184
20082SOL    HW169024   1.482  12.312   7.890 -0.0627  3.3814  0.1474
20082SOL    HW269025   1.387  12.378   7.793  1.6138  1.6859 -2.7959
20083SOL     OW69026   8.411  10.809  12.156 -0.1367  0.0760  0.6625
20083SOL    HW169027   8.388  10.727  12.200  0.4221 -0.4647 -0.0215
20083SOL    HW269028   8.500  10.828  12.187  0.2862 -0.3427 -0.2520
20084SOL     OW69029   3.487   9.876   1.013  0.3390 -0.0199  0.4412
20084SOL    HW169030   3.502   9.785   0.987 -1.6257  0.0371 -1.1447
20084SOL    HW269031   3.500   9.877   1.107 -0.3248 -2.1032  0.5931
20085SOL     OW69032  12.590   9.160   1.018  0.7917 -0.4211  0.2019
20085SOL    HW169033  12.518   9.112   0.977  2.0621 -1.4805 -0.8906
20085SOL    HW269034  12.606   9.114   1.100 -0.2439  0.2864  0.8236
20086SOL     OW69035   9.399  10.884   3.015  0.2827 -0.4479  0.3873
20086SOL    HW169036   9.364  10.967   2.983  1.3534 -0.3372 -0.5414
20086SOL    HW269037   9.325  10.824   3.010  0.1179 -0.1564 -1.3088
20087SOL     OW69038   9.821   0.364   6.749 -0.6855  0.3190  0.1528
20087SOL    HW169039   9.912   0.379   6.771 -1.2655  1.0590  2.2466
20087SOL    HW269040   9.818   0.272   6.722  0.5787  0.1303  0.5888
20088SOL     OW69041   3.479   2.736   2.757 -0.0104  0.2172 -0.4987
20088SOL    HW169042   3.396   2.766   2.720 -0.4204 -2.2738 -1.7883
20088SOL    HW269043   3.457   2.654   2.802  1.3898  0.6717  1.1233
20089SOL     OW69044   8.564   0.160  11.654  0.2788  0.0514  0.1943
20089SOL    HW169045   8.642   0.127  11.697  0.7668  0.3218 -0.4632
20089SOL    HW269046   8.527   0.223  11.717 -0.0790 -0.9445  1.0012
20090SOL     OW69047   9.912   9.926   3.734  0.4226  0.2079 -0.3402
20090SOL    HW169048   9.836   9.983   3.736 -0.0909 -0.4415 -0.8127
20090SOL    HW269049   9.907   9.877   3.817  0.5151  0.4081 -0.2170
20091SOL     OW69050   3.780   3.037   4.591  0.0635  0.1590  0.0221
20091SOL    HW169051   3.820   3.124   4.592  1.4679 -0.3830 -1.9122
20091SOL    HW269052   3.798   3.002   4.678  1.1820  1.0915  0.1959
20092SOL     OW69053   5.961   7.808   5.270 -0.2686  0.0142 -0.0384
20092SOL    HW169054   5.869   7.788   5.252 -0.3638  0.7700 -0.4500
20092SOL    HW269055   5.963   7.833   5.362  0.0253 -2.7726  0.7910
20093SOL     OW69056   5.668  10.356   4.586 -0.2361 -0.7254  0.5273
20093SOL    HW169057   5.665  10.449   4.562  1.9447 -0.3259  1.6496
20093SOL    HW269058   5.666  10.310   4.502 -0.5835  0.3463 -0.0712
20094SOL     OW69059  12.225   6.320   4.934 -0.1706 -0.6040  0.4176
20094SOL    HW169060  12.305   6.356   4.896 -0.3415 -1.0511 -0.3835
20094SOL    HW269061  12.254   6.243   4.982 -0.2369 -1.3550 -0.7187
20095SOL     OW69062   1.698   8.214   8.241  0.1168 -0.3604  0.0959
20095SOL    HW169063   1.775   8.173   8.281  0.9282 -0.1066 -1.1402
20095SOL    HW269064   1.645   8.243   8.315  1.9906  0.9119  1.0207
20096SOL     OW69065  11.826   7.525   8.548 -0.5030  0.5186 -0.0890
20096SOL    HW169066  11.859   7.572   8.472 -2.6699 -1.0053 -2.1522
20096SOL    HW269067  11.830   7.433   8.522  1.5314 -0.3490  2.9096
20097SOL     OW69068  12.558   9.435   3.121 -0.7704 -0.1122 -0.2927
20097SOL    HW169069  12.643   9.456   3.082 -0.2336  0.8058  1.2509
20097SOL    HW269070  12.534   9.514   3.169 -1.7352 -0.9101  0.5877
20098SOL     OW69071  11.659   3.948   5.928  0.5799  0.4827 -0.5592
20098SOL    HW169072  11.622   3.994   5.853  1.4980  0.4039 -1.0671
20098SOL    HW269073  11.700   4.017   5.981 -0.9049  0.6799  0.4056
20099SOL     OW69074   7.636   5.621   3.743  0.4161  0.0518 -0.3085
20099SOL    HW169075   7.727   5.626   3.771  0.1622 -1.7363  1.0079
20099SOL    HW269076   7.640   5.581   3.656  0.9024  0.5541 -0.5249
20100SOL     OW69077   3.149   0.333  10.781 -0.4128 -0.0294 -0.2529
20100SOL    HW169078   3.055   0.334  10.764 -0.6187  0.5221  0.8590
20100SOL    HW269079   3.159   0.377  10.865  0.6440 -1.9192  0.6697
20101SOL     OW69080   5.901   6.742   0.098  0.4995  0.0626 -0.3721
20101SOL    HW169081   5.853   6.737   0.015 -1.2328 -1.9208  0.6675
20101SOL    HW269082   5.896   6.834   0.124  0.5969  0.6125 -2.1566
20102SOL     OW69083   8.900   4.992   9.506 -0.0308 -0.4625 -0.5764
20102SOL    HW169084   8.825   4.933   9.505 -0.6098  0.2567 -0.1889
20102SOL    HW269085   8.971   4.941   9.466 -0.6250 -1.2688 -0.6280
20103SOL     OW69086   5.774   8.146   2.935  0.1471  0.0973 -0.0226
20103SOL    HW169087   5.758   8.141   3.029 -3.1352  1.0089 -0.4020
20103SOL    HW269088   5.716   8.079   2.898  0.0073  0.9693 -1.4695
20104SOL     OW69089   4.522   4.085   8.657  0.0245  0.4036  0.0376
20104SOL    HW169090   4.439   4.099   8.611  0.9123  0.1314 -1.7273
20104SOL    HW269091   4.552   4.174   8.678 -0.6661  0.5056  0.6290
20105SOL     OW69092  10.930   6.647   2.368 -0.0051 -0.0557 -0.5617
20105SOL    HW169093  10.941   6.654   2.273  2.8697 -2.5157 -0.5536
20105SOL    HW269094  11.005   6.695   2.404 -0.9056  0.5882  0.5124
20106SOL     OW69095  10.800  12.006   5.600  0.8248  0.2015 -0.6123
20106SOL    HW169096  10.749  12.036   5.525 -1.5288 -2.3085 -0.1549
20106SOL    HW269097  10.805  11.911   5.589  3.0954  0.0761  0.8594
20107SOL     OW69098   7.439  12.356   9.135  0.2988  0.0664 -0.3412
20107SOL    HW169099   7.378  12.412   9.184  1.2084  1.4600 -0.7363
20107SOL    HW269100   7.383  12.295   9.087 -0.7521  0.7995 -0.0775
20108SOL     OW69101   6.307   3.284   3.469 -0.0138 -0.1516 -0.0516
20108SOL    HW169102   6.256   3.263   3.391  1.2123  0.9250 -1.2052
20108SOL    HW269103   6.398   3.263   3.445  0.5157  1.1291  0.6994
20109SOL     OW69104   5.763   7.862   8.083 -0.0879  0.0379 -0.5130
20109SOL    HW169105   5.697   7.854   8.013 -0.3827 -0.0291 -0.2303
20109SOL    HW269106   5.752   7.951   8.116 -0.1673 -0.0362 -0.3382
20110SOL     OW69107   8.992   5.955   9.401  0.0528  0.1648 -0.2580
20110SOL    HW169108   9.061   5.891   9.417 -0.7974 -2.0973 -4.2923
20110SOL    HW269109   9.040   6.036   9.381  1.3271 -0.2669  0.8963
20111SOL     OW69110  10.143   3.412   7.028 -0.0787  0.0179 -0.5425
20111SOL    HW169111  10.236   3.413   7.004  0.8204  2.6663  2.4041
20111SOL    HW269112  10.142   3.431   7.121 -3.5508 -2.6105  0.1911
20112SOL     OW69113   0.425   4.268   8.687 -0.6580 -0.4360 -0.0606
20112SOL    HW169114   0.384   4.181   8.687 -2.9625  0.5699  0.4735
20112SOL    HW269115   0.368   4.321   8.632  1.4532  0.4732 -1.4926
20113SOL     OW69116   2.161   6.812   7.459  0.0439 -0.1885 -0.9292
20113SOL    HW169117   2.232   6.803   7.523 -2.0859 -2.5810  1.3559
20113SOL    HW269118   2.185   6.753   7.388  0.4152 -0.9322 -0.2055
20114SOL     OW69119   3.590   8.629  12.488 -0.2982  0.0995  0.0891
20114SOL    HW169120   3.544   8.713  12.485  0.3663  0.5565  1.4731
20114SOL    HW269121   3.676   8.648  12.451 -0.9604 -0.6146 -1.9540
20115SOL     OW69122   2.573   8.555   9.596 -0.5560  0.0374  0.4061
20115SOL    HW169123   2.589   8.523   9.685 -1.1677 -1.2318  0.0809
20115SOL    HW269124   2.478   8.547   9.585 -0.6574  1.4548  0.1009
20116SOL     OW69125   4.863   9.900   5.109 -0.0221  0.9117  0.2521
20116SOL    HW169126   4.946   9.860   5.083 -0.9531  0.1301 -1.7465
20116SOL    HW269127   4.827   9.840   5.174 -0.7078 -0.8115 -1.6240
20117SOL     OW69128   6.923  11.121   0.311  0.2741  0.0684 -0.2724
20117SOL    HW169129   6.936  11.037   0.269 -1.8781 -0.0839 -0.7807
20117SOL    HW269130   6.842  11.155   0.272  0.6976  2.0362  0.4371
20118SOL     OW69131   3.111   4.905   3.074 -0.2377 -0.5492 -0.3013
20118SOL    HW169132   3.189   4.946   3.036 -1.8523  2.3320 -0.7583
20118SOL    HW269133   3.093   4.830   3.017  1.4579 -0.5771 -0.8753
20119SOL     OW69134   7.151  11.482  11.078  0.5855  0.2738  0.1131
20119SOL    HW169135   7.214  11.533  11.026 -0.5427 -0.0342 -1.6622
20119SOL    HW269136   7.093  11.548  11.116  0.2485  0.4324 -0.6510
20120SOL     OW69137  10.080   0.552   0.282 -0.3528  0.3586 -0.6957
20120SOL    HW169138  10.062   0.611   0.209  0.1132 -0.1280 -1.2169
20120SOL    HW269139  10.168   0.519   0.266  1.5621  3.3756  2.2787
20121SOL     OW69140   5.776   4.631  10.284 -0.2922 -0.2208 -0.1442
20121SOL    HW169141   5.816   4.718  10.287  1.1003 -0.7955 -1.0313
20121SOL    HW269142   5.747   4.615  10.374  1.4464  0.2755  0.5548
20122SOL     OW69143   7.327   4.457   7.387  0.1826 -0.1554  0.1788
20122SOL    HW169144   7.266   4.384   7.396 -0.8670  0.9349  2.6691
20122SOL    HW269145   7.413   4.415   7.375 -0.3148 -1.8446  2.0491
20123SOL     OW69146  12.385   6.679   2.857  0.1152  0.4257  0.3298
20123SOL    HW169147  12.369   6.771   2.837  2.5644  1.1827  1.5206
20123SOL    HW269148  12.475   6.663   2.829 -0.9705 -2.3709 -2.1358
20124SOL     OW69149   4.018  10.406   3.425  0.2821  0.0461 -0.0814
20124SOL    HW169150   4.059  10.419   3.339  1.1353 -1.8100  0.0024
20124SOL    HW269151   4.057  10.475   3.479  0.5052  0.6040 -0.9217
20125SOL     OW69152   6.688   9.362   2.802  0.4681  0.0229 -0.3040
20125SOL    HW169153   6.773   9.344   2.763 -0.4456 -2.7768 -1.2075
20125SOL    HW269154   6.700   9.343   2.895  0.6059 -1.4040 -0.5919
20126SOL     OW69155   5.116   1.263   7.149  0.0093  0.1677 -0.5236
20126SOL    HW169156   5.081   1.280   7.062 -2.5499 -1.3995  0.0769
20126SOL    HW269157   5.086   1.337   7.202 -1.2300 -0.4063 -0.3611
20127SOL     OW69158   4.549   5.016   2.244  0.3895  0.0708  0.4402
20127SOL    HW169159   4.638   5.038   2.217  0.3575 -0.5888 -0.2670
20127SOL    HW269160   4.551   5.016   2.339  0.2202  3.7039  0.5655
20128SOL     OW69161   4.117   8.752   4.569 -0.5946  0.3106  0.3006
20128SOL    HW169162   4.083   8.838   4.542  0.4742  0.6290 -0.1251
20128SOL    HW269163   4.056   8.721   4.635 -2.4879  0.1974 -1.4323
20129SOL     OW69164   1.577   2.504   3.352 -0.3540  0.2158 -0.1877
20129SOL    HW169165   1.543   2.424   3.392  2.0677  0.2408  2.1742
20129SOL    HW269166   1.512   2.571   3.374  0.2800 -0.0222  2.8519
20130SOL     OW69167   7.691   2.331   8.906  0.2898  0.3007  0.2575
20130SOL    HW169168   7.787   2.330   8.895  0.2668 -0.7314  0.0550
20130SOL    HW269169   7.677   2.380   8.987  1.1222 -1.2158  1.3616
20131SOL     OW69170   1.658   5.974  10.268  0.6109 -0.1002  0.0889
20131SOL    HW169171   1.617   5.919  10.335  0.6024 -1.8206 -1.2436
20131SOL    HW269172   1.601   5.964  10.191  1.3933  0.6504 -0.6098
20132SOL     OW69173   1.108   8.548   9.809 -0.2575  0.1712  0.2483
20132SOL    HW169174   1.031   8.593   9.843  1.0327  1.4229  1.6587
20132SOL    HW269175   1.181   8.606   9.830  1.1236 -1.1401 -0.7336
20133SOL     OW69176   1.115  10.231   5.037 -0.4788 -0.1139  0.1503
20133SOL    HW169177   1.048  10.186   5.088  0.2700 -0.9156  0.4411
20133SOL    HW269178   1.067  10.301   4.993 -1.2136  0.4327  1.7143
20134SOL     OW69179   1.679  12.212   7.653  0.3426 -0.4095 -0.4840
20134SOL    HW169180   1.613  12.265   7.696  0.5864 -0.3307 -0.1988
20134SOL    HW269181   1.698  12.142   7.715  0.7792 -0.2300 -0.4116
20135SOL     OW69182  11.501   4.115  10.004 -0.3359 -0.3015  0.2032
20135SOL    HW169183  11.536   4.074   9.925 -1.6180 -0.3023 -0.3854
20135SOL    HW269184  11.489   4.207   9.980  1.1593  0.1581  1.0618
20136SOL     OW69185  10.101   0.954  12.385  0.0049 -0.7125 -0.1899
20136SOL    HW169186  10.014   0.987  12.365 -0.0868 -1.5120 -1.2462
20136SOL    HW269187  10.161   1.020  12.351 -0.1832 -0.2018  0.4631
20137SOL     OW69188   0.887   6.937   9.213  0.0369  0.1104 -0.2295
20137SOL    HW169189   0.912   6.883   9.138 -0.2804 -2.1964  1.2367
20137SOL    HW269190   0.890   6.878   9.288 -3.3869  1.2748  1.0312
20138SOL     OW69191  10.128   5.803   7.094 -0.2136  0.1869 -0.4460
20138SOL    HW169192  10.144   5.738   7.026 -1.2906  0.8946 -1.4110
20138SOL    HW269193  10.034   5.821   7.090 -0.4750 -0.3685  1.8213
20139SOL     OW69194   3.558   9.952   4.409 -0.1685 -0.4389  0.3471
20139SOL    HW169195   3.522  10.004   4.338 -0.7673 -1.6203 -0.2477
20139SOL    HW269196   3.483   9.903   4.443  0.5374 -1.6335  0.2348
20140SOL     OW69197   8.179   2.255   7.343  0.6196 -0.0057  0.3366
20140SOL    HW169198   8.250   2.289   7.396  0.4551  0.2711  0.3799
20140SOL    HW269199   8.203   2.164   7.325  0.0219 -0.5448  2.0671
20141SOL     OW69200   2.960  12.225   7.555 -0.0568  0.0080  0.7347
20141SOL    HW169201   2.974  12.135   7.585  0.6092  0.8732  3.2258
20141SOL    HW269202   2.885  12.255   7.605 -0.7408  0.6556 -0.6204
20142SOL     OW69203  11.736   6.316   6.707 -0.2279 -0.1323  0.4720
20142SOL    HW169204  11.799   6.327   6.636 -0.7772 -0.4359 -0.0712
20142SOL    HW269205  11.718   6.222   6.709  0.6974 -0.3110  1.8262
20143SOL     OW69206   8.623   1.884   8.328 -0.1449 -0.1612  0.5328
20143SOL    HW169207   8.681   1.881   8.252  0.6603 -1.4903  1.1608
20143SOL    HW269208   8.682   1.886   8.403 -0.9082 -0.8060  1.1693
20144SOL     OW69209  11.166   4.141   7.946  0.1303  0.2912 -0.0276
20144SOL    HW169210  11.073   4.123   7.941  0.1398  0.0899  0.4715
20144SOL    HW269211  11.207   4.055   7.958  0.5105  0.1891 -1.7742
20145SOL     OW69212   0.704   4.789   0.131  0.0237 -0.2679  0.1023
20145SOL    HW169213   0.718   4.884   0.130  0.8600 -0.3854  0.4127
20145SOL    HW269214   0.792   4.752   0.130 -0.1852 -1.0909 -3.3639
20146SOL     OW69215   5.183   3.024  11.677  0.1148  0.0052 -0.1325
20146SOL    HW169216   5.138   3.034  11.761 -1.0463  0.0419 -0.7334
20146SOL    HW269217   5.216   2.934  11.677  0.3615  0.0912  0.4654
20147SOL     OW69218  11.103  12.591   1.315  0.2923 -0.5796 -0.3262
20147SOL    HW169219  11.133  12.503   1.294  0.2557 -0.4745 -0.8357
20147SOL    HW269220  11.038  12.611   1.247 -1.6714 -1.1745  1.2592
20148SOL     OW69221  10.048   2.478   0.428 -0.4700 -0.0338 -0.0868
20148SOL    HW169222  10.137   2.472   0.394  0.5369  1.8623  1.9733
20148SOL    HW269223  10.014   2.560   0.392  0.1156  1.2799  2.1503
20149SOL     OW69224   1.185  11.636   0.731 -0.0624  0.2201 -0.7077
20149SOL    HW169225   1.108  11.677   0.771  0.2740  0.6299 -0.4756
20149SOL    HW269226   1.233  11.596   0.804  0.6057  1.0567 -0.6758
20150SOL     OW69227   4.078   8.045   2.996 -0.0250  0.0598  0.2010
20150SOL    HW169228   4.155   8.088   3.033  1.0760 -1.4833 -0.2161
20150SOL    HW269229   4.090   8.053   2.901  0.1654 -1.0613  0.1168
20151SOL     OW69230   0.736   0.824   2.452  0.4560  0.2403 -0.3418
20151SOL    HW169231   0.718   0.743   2.405  0.2759  0.5102 -0.7447
20151SOL    HW269232   0.700   0.810   2.539 -0.8657  0.4051 -0.8351
20152SOL     OW69233   5.502   8.690   9.603  0.0638 -0.1928 -0.6067
20152SOL    HW169234   5.428   8.743   9.573 -0.0106  0.4950  0.7080
20152SOL    HW269235   5.472   8.651   9.685  2.0113  2.3038  1.4747
20153SOL     OW69236   6.845   4.746   8.735 -0.4807 -0.3414  0.2513
20153SOL    HW169237   6.825   4.839   8.745  1.1235 -0.0229  0.8300
20153SOL    HW269238   6.860   4.735   8.641 -1.8865 -0.3088 -0.0016
20154SOL     OW69239  11.780  11.204  10.197 -0.1267  0.1396 -0.4383
20154SOL    HW169240  11.692  11.230  10.223 -0.7704 -0.6093 -1.7840
20154SOL    HW269241  11.818  11.165  10.276 -0.6276  1.3417  0.4265
20155SOL     OW69242  10.455  12.526   6.842  0.4085  0.3706  0.4225
20155SOL    HW169243  10.409  12.464   6.899  1.7640 -1.7853 -0.7141
20155SOL    HW269244  10.507  12.579   6.903  0.5752 -0.7899  1.3365
20156SOL     OW69245   4.787   7.523   2.354 -0.7156  0.1542 -0.4326
20156SOL    HW169246   4.799   7.596   2.292 -0.6215  1.1145  0.6782
20156SOL    HW269247   4.773   7.447   2.299 -1.5097  1.1339 -1.6295
20157SOL     OW69248   9.998  11.112  10.477 -0.1160 -0.4520 -0.2493
20157SOL    HW169249   9.903  11.124  10.477 -0.1980 -0.9749 -1.4212
20157SOL    HW269250  10.034  11.200  10.478 -0.6052 -0.2491 -0.0917
20158SOL     OW69251   4.591  12.572   2.805  0.6074  0.5591 -0.0602
20158SOL    HW169252   4.544  12.641   2.852 -1.9694 -0.2038 -1.3605
20158SOL    HW269253   4.601  12.607   2.716  1.6903  0.3154 -0.0441
20159SOL     OW69254   0.799   1.580   3.998 -0.1708  0.3440  0.2193
20159SOL    HW169255   0.737   1.546   4.061  1.2491  0.1936  1.5953
20159SOL    HW269256   0.780   1.531   3.917 -1.6211  0.1145  0.6722
20160SOL     OW69257   0.120   5.596   2.379 -0.3699  0.1975  0.1920
20160SOL    HW169258   0.119   5.618   2.286  0.9977 -0.1208  0.0851
20160SOL    HW269259   0.144   5.677   2.423 -1.1977  0.3960  0.3006
20161SOL     OW69260  10.287   8.347   2.245  0.2277  0.7216  0.0302
20161SOL    HW169261  10.380   8.326   2.248  0.0344 -0.0382  1.4690
20161SOL    HW269262  10.270   8.366   2.152  1.6802  0.2930 -0.3506
20162SOL     OW69263  10.301   5.835   1.096  0.0105  0.4633  0.5281
20162SOL    HW169264  10.315   5.831   1.002  1.7278 -1.4620  0.7751
20162SOL    HW269265  10.233   5.901   1.108 -1.6984 -0.6101 -2.2083
20163SOL     OW69266   7.406   6.862   5.840  0.6954  0.0766  0.3768
20163SOL    HW169267   7.469   6.816   5.785  1.1604  1.1658 -0.0319
20163SOL    HW269268   7.408   6.816   5.923  2.0554  0.1133  0.3728
20164SOL     OW69269   6.741  11.020   5.057 -0.1475 -0.3760  0.1629
20164SOL    HW169270   6.729  11.073   4.978 -0.0926  1.1734  1.1446
20164SOL    HW269271   6.829  11.044   5.088  0.0559 -1.3892  0.3983
20165SOL     OW69272   5.119   5.729   6.163  0.0726  0.5111  0.0067
20165SOL    HW169273   5.061   5.775   6.103 -0.1762  0.7107  0.3980
20165SOL    HW269274   5.197   5.784   6.167  0.0250  0.5795 -0.0075
20166SOL     OW69275   1.224   3.235   1.226  0.1269  0.2607  0.3675
20166SOL    HW169276   1.231   3.261   1.134  0.9490 -0.2261  0.2891
20166SOL    HW269277   1.152   3.288   1.260 -1.6610 -1.0862 -1.0964
20167SOL     OW69278   1.726  11.133   5.948 -0.2622 -0.2710  0.1078
20167SOL    HW169279   1.651  11.191   5.943  0.5786  0.7592 -1.2532
20167SOL    HW269280   1.736  11.100   5.858  0.9038 -0.3985  0.2761
20168SOL     OW69281   5.744   0.798   6.856 -0.0200 -0.2569  0.4567
20168SOL    HW169282   5.829   0.755   6.858 -0.4630 -1.1877 -0.0732
20168SOL    HW269283   5.684   0.733   6.893 -0.7337 -0.1618 -0.5090
20169SOL     OW69284   4.318   3.089  11.837  0.2670 -0.2394  0.2637
20169SOL    HW169285   4.305   3.042  11.919  1.7841  0.5932  1.0393
20169SOL    HW269286   4.352   3.175  11.864 -0.4235  0.5243 -1.1871
20170SOL     OW69287   9.085   2.866   1.726 -0.3088 -0.2200  0.3126
20170SOL    HW169288   9.175   2.877   1.695 -0.2287 -2.0736 -0.2049
20170SOL    HW269289   9.054   2.787   1.682 -1.7509 -0.3454  1.4941
20171SOL     OW69290   0.148   1.966   3.111  0.7489 -0.2398 -0.1172
20171SOL    HW169291   0.129   1.883   3.069 -2.0232  1.1526 -1.9027
20171SOL    HW269292   0.074   1.982   3.169  1.0803  1.0828 -0.0134
20172SOL     OW69293   5.059   6.973  12.229  0.4549  0.1902  0.2774
20172SOL    HW169294   5.088   6.891  12.190  0.3764  0.6262 -0.7168
20172SOL    HW269295   4.977   6.994  12.185  0.5437  0.8785  0.4207
20173SOL     OW69296   5.653   4.437   3.668  0.4478 -1.1902 -0.2296
20173SOL    HW169297   5.675   4.530   3.670  2.1625 -1.5680 -0.0699
20173SOL    HW269298   5.557   4.435   3.672  0.4111  0.5247  0.6541
20174SOL     OW69299  12.438   4.855   7.167 -0.0405  0.1987 -0.0857
20174SOL    HW169300  12.410   4.779   7.217 -2.6810  0.2349 -1.3452
20174SOL    HW269301  12.511   4.823   7.114 -0.1701 -1.0519  0.4494
20175SOL     OW69302   8.951   5.740   0.159 -0.0606  0.2921 -0.2681
20175SOL    HW169303   9.019   5.807   0.169  0.5511 -0.2773 -0.4734
20175SOL    HW269304   8.870   5.788   0.146  0.1434  1.0092  0.9400
20176SOL     OW69305   0.337   3.339   5.268  0.7823  0.0723 -0.0201
20176SOL    HW169306   0.322   3.341   5.363 -0.1709  1.0123 -0.1670
20176SOL    HW269307   0.264   3.389   5.232  1.0623 -0.3974 -1.2683
20177SOL     OW69308  11.517   8.055  10.403 -0.2812 -0.3336  0.3331
20177SOL    HW169309  11.606   8.077  10.428 -0.4573 -0.0314  0.6885
20177SOL    HW269310  11.527   7.992  10.331  0.2167 -0.7082  0.7243
20178SOL     OW69311   3.806   9.994   9.556  0.0498  0.8686 -0.0255
20178SOL    HW169312   3.734   9.956   9.606  0.1304 -0.2956 -0.7644
20178SOL    HW269313   3.767  10.068   9.510 -0.6123  0.4051 -0.2115
20179SOL     OW69314  10.790   1.140   3.531  0.0178  0.1734 -0.1944
20179SOL    HW169315  10.785   1.180   3.444  0.0173 -0.4775 -0.4993
20179SOL    HW269316  10.706   1.160   3.571 -0.4101 -0.4618 -0.7630
20180SOL     OW69317   9.954  12.098  10.890 -0.1166  0.1082  0.6218
20180SOL    HW169318   9.953  12.008  10.859 -2.4183  0.3253 -0.1440
20180SOL    HW269319   9.941  12.151  10.811  2.3422  1.2422  0.8806
20181SOL     OW69320   2.484   2.336   8.977 -0.2431  0.0619  0.3696
20181SOL    HW169321   2.470   2.266   8.912  0.9539  1.4754 -1.5142
20181SOL    HW269322   2.555   2.388   8.941 -1.2316  2.3992  1.5959
20182SOL     OW69323   3.412  11.393   4.124  0.4414  0.1475  0.1641
20182SOL    HW169324   3.359  11.335   4.178 -1.3805  2.4693  1.0258
20182SOL    HW269325   3.394  11.365   4.034 -1.3727  0.1349  0.4937
20183SOL     OW69326   2.648   3.428  10.233 -0.5134  0.4247 -0.4173
20183SOL    HW169327   2.679   3.338  10.226 -0.4137  0.4148  0.1423
20183SOL    HW269328   2.616   3.449  10.145  0.7274  0.3101 -0.9049
20184SOL     OW69329   1.283   8.354   8.033 -0.0329 -0.0480  0.3420
20184SOL    HW169330   1.210   8.379   8.089 -0.0964  1.2629 -0.2732
20184SOL    HW269331   1.252   8.277   7.986 -1.7113  1.4027 -1.1094
20185SOL     OW69332   6.729   4.271   9.906  0.1559  0.5580 -0.3310
20185SOL    HW169333   6.657   4.284   9.845  1.6660  0.8171 -2.1267
20185SOL    HW269334   6.787   4.346   9.892  1.0474  0.0877  0.7019
20186SOL     OW69335   1.671  10.468   7.347 -0.2883  0.4661  0.6483
20186SOL    HW169336   1.698  10.469   7.439 -0.5069 -1.1236  0.7516
20186SOL    HW269337   1.601  10.534   7.342 -0.0830  0.7689  1.5403
20187SOL     OW69338   2.508  12.544   3.314 -0.2446 -0.4684  1.0945
20187SOL    HW169339   2.524  12.469   3.371  1.0146 -2.4824 -1.6793
20187SOL    HW269340   2.586  12.550   3.259 -1.4811  1.1613 -0.6235
20188SOL     OW69341   0.957   7.986   5.315 -0.7151  0.3156  0.1533
20188SOL    HW169342   0.868   8.014   5.294 -0.5927  1.7029  1.3150
20188SOL    HW269343   0.957   7.973   5.410 -0.4999 -2.9031 -0.1792
20189SOL     OW69344   4.755   9.607   0.122 -0.2331  0.4468  0.2922
20189SOL    HW169345   4.716   9.567   0.200 -1.1119 -0.8207 -0.7560
20189SOL    HW269346   4.772   9.533   0.063  0.6121  1.3533 -0.6410
20190SOL     OW69347   0.077   6.849  11.855  0.3995 -0.6599  0.5590
20190SOL    HW169348   0.084   6.898  11.773 -2.7171  0.0455  0.5899
20190SOL    HW269349   0.086   6.757  11.829  1.2230 -0.3621 -0.2779
20191SOL     OW69350   0.019   2.622   8.606 -0.1622 -0.2188 -0.8092
20191SOL    HW169351   0.005   2.715   8.627  1.1417 -0.1485 -0.1467
20191SOL    HW269352  -0.042   2.576   8.663  0.0985  0.1821 -0.1965
20192SOL     OW69353   7.988   4.791   7.148  0.2459 -0.5984 -0.0932
20192SOL    HW169354   8.044   4.716   7.169 -0.2878 -0.6590  1.1928
20192SOL    HW269355   8.043   4.868   7.167  0.5761 -0.6558 -0.7985
20193SOL     OW69356   3.564   7.250   3.159 -0.0163  0.3216 -0.0517
20193SOL    HW169357   3.522   7.243   3.245 -1.5442 -0.6189 -0.8342
20193SOL    HW269358   3.493   7.272   3.099  1.0186  0.9319 -1.0955
20194SOL     OW69359   5.959   7.383  12.555  0.1533 -0.2145  0.1330
20194SOL    HW169360   6.050   7.360  12.534  1.3123  1.0307  3.2032
20194SOL    HW269361   5.958   7.479  12.558 -2.0036 -0.0292 -2.3089
20195SOL     OW69362   5.602   7.969   4.161 -0.0675  0.3216 -0.2194
20195SOL    HW169363   5.519   7.941   4.122 -2.4728  0.7192  4.0064
20195SOL    HW269364   5.596   8.065   4.164  0.8323  0.3944 -0.3007
20196SOL     OW69365   6.028  12.573  10.729 -0.0010  0.4024 -0.3470
20196SOL    HW169366   6.052  12.662  10.753  2.3894 -0.2298 -0.1460
20196SOL    HW269367   6.070  12.559  10.644 -0.8770 -0.3278 -0.6686
20197SOL     OW69368   1.455   4.642  12.117 -0.2837 -1.0376 -0.3557
20197SOL    HW169369   1.500   4.606  12.041  4.6398 -0.9141  2.1237
20197SOL    HW269370   1.456   4.572  12.181 -1.5152 -0.1611  0.6889
20198SOL     OW69371   6.771  12.196   2.545  0.3061  0.1482 -0.3014
20198SOL    HW169372   6.750  12.117   2.595  0.0776  1.2255  1.3856
20198SOL    HW269373   6.692  12.250   2.551  1.5108  1.8605  1.3441
20199SOL     OW69374   4.205   7.977   0.614  0.3567 -0.0397 -0.0022
20199SOL    HW169375   4.208   7.966   0.519  2.9142 -1.4508  0.1371
20199SOL    HW269376   4.129   7.927   0.642  0.8608 -1.5233 -1.1540
20200SOL     OW69377   6.450   9.109   3.677 -0.0456 -0.3733  0.9426
20200SOL    HW169378   6.444   9.190   3.626  1.1023 -0.5274  0.5372
20200SOL    HW269379   6.517   9.127   3.743 -1.3260 -0.2616  2.2847
20201SOL     OW69380   5.098   8.780   0.360  0.5212 -0.2565 -0.3115
20201SOL    HW169381   5.127   8.836   0.432  1.5240  0.0491 -0.9372
20201SOL    HW269382   5.131   8.693   0.382 -0.5354 -0.5091  0.3679
20202SOL     OW69383   1.735   5.932   9.796 -0.1168 -0.1235 -0.2081
20202SOL    HW169384   1.685   5.916   9.876  0.2633  0.4098  0.1456
20202SOL    HW269385   1.818   5.886   9.810 -0.0873 -0.1092 -0.3333
20203SOL     OW69386   3.560   6.116   8.700  0.4941  0.6085  0.1914
20203SOL    HW169387   3.501   6.190   8.686  1.1613  1.0007 -0.5354
20203SOL    HW269388   3.556   6.101   8.795  1.1279  2.2154  0.4931
20204SOL     OW69389   0.673   0.159   2.649  0.2519  0.0392  0.1143
20204SOL    HW169390   0.737   0.186   2.715  0.2760 -0.7889  0.4299
20204SOL    HW269391   0.642   0.242   2.611 -0.0223  0.5462  1.3925
20205SOL     OW69392   7.131   1.460  11.723  0.4505  0.6755  0.0695
20205SOL    HW169393   7.183   1.485  11.647  0.0557 -1.2242 -0.8872
20205SOL    HW269394   7.058   1.410  11.687  0.5688 -0.7989  1.7181
20206SOL     OW69395   0.324   0.971   3.812 -1.0674 -0.0991  0.2927
20206SOL    HW169396   0.269   1.045   3.789  0.5419  0.9129 -0.4712
20206SOL    HW269397   0.268   0.916   3.868 -2.7435  0.9596 -0.2670
20207SOL     OW69398   8.978   5.522  11.376 -0.0971  0.2387 -0.1325
20207SOL    HW169399   8.998   5.429  11.388  1.0175  0.1571 -2.1455
20207SOL    HW269400   9.064   5.565  11.373 -0.6131  1.6789  2.6665
20208SOL     OW69401   2.990   3.493   8.030  0.1693 -0.0731 -0.3384
20208SOL    HW169402   2.933   3.428   8.070  0.6127  0.3372  1.0185
20208SOL    HW269403   2.937   3.532   7.961 -1.0413 -0.0126  0.5908
20209SOL     OW69404   2.634  10.542   6.763  0.3767  0.9718 -0.2004
20209SOL    HW169405   2.636  10.483   6.688  0.7707  1.0881 -0.2811
20209SOL    HW269406   2.689  10.499   6.829  1.7534  1.8665 -0.7242
20210SOL     OW69407   2.790   0.221   5.989 -0.5755  0.6129  0.6988
20210SOL    HW169408   2.715   0.279   6.001  0.0747  1.4161  0.9770
20210SOL    HW269409   2.825   0.209   6.077  0.6868  1.7184  0.3809
20211SOL     OW69410   3.714   5.387   8.646 -0.4262  0.0903 -0.0502
20211SOL    HW169411   3.684   5.333   8.719 -0.1879 -0.3362 -0.2674
20211SOL    HW269412   3.635   5.412   8.600 -0.4544 -1.0530 -0.6416
20212SOL     OW69413  11.758  10.459   3.652 -0.1873  0.1107  0.3525
20212SOL    HW169414  11.684  10.515   3.677  0.6510  0.7312  1.5651
20212SOL    HW269415  11.742  10.438   3.560 -0.0856  3.1046 -0.4669
20213SOL     OW69416   0.755   1.813   5.904  0.1862  0.1835 -0.6347
20213SOL    HW169417   0.731   1.748   5.970 -0.0652  1.0138  0.1162
20213SOL    HW269418   0.731   1.773   5.820  1.5862 -1.3714 -0.3388
20214SOL     OW69419   2.479   9.519   7.792 -0.6020  0.2123 -0.0839
20214SOL    HW169420   2.496   9.444   7.735  1.5863  1.6522 -1.4837
20214SOL    HW269421   2.414   9.571   7.744 -0.6545  0.1638 -0.0638
20215SOL     OW69422   0.112   5.455   0.353  0.5277  0.3650 -0.6196
20215SOL    HW169423   0.110   5.459   0.257 -1.3606 -1.6738 -0.7490
20215SOL    HW269424   0.069   5.536   0.381 -1.3059 -0.1766 -1.6340
20216SOL     OW69425   3.942   1.415   5.493 -0.1709  0.2306  0.3496
20216SOL    HW169426   3.903   1.390   5.409 -0.9308  0.3671  0.6555
20216SOL    HW269427   4.034   1.434   5.472  0.3993 -2.4493  0.0264
20217SOL     OW69428   6.680   4.883   6.613  0.2015 -0.5206  0.2849
20217SOL    HW169429   6.640   4.905   6.697 -0.2743  2.0853 -0.5329
20217SOL    HW269430   6.768   4.920   6.618  0.1811 -0.3755 -0.3504
20218SOL     OW69431   5.711   1.097   8.768 -0.4222 -0.0505 -0.0758
20218SOL    HW169432   5.803   1.081   8.791 -0.4677  0.1592  0.2590
20218SOL    HW269433   5.667   1.013   8.785 -0.4262  0.0580  0.4637
20219SOL     OW69434   3.513   9.452  11.632  0.2136  0.2744  0.1207
20219SOL    HW169435   3.476   9.540  11.635  0.6709  0.5513 -1.2781
20219SOL    HW269436   3.572   9.448  11.707 -0.1582  1.0065  0.4573
20220SOL     OW69437   9.693  11.337  11.605 -0.1722 -0.1961  0.7915
20220SOL    HW169438   9.774  11.336  11.656  0.5212  1.2063 -0.2184
20220SOL    HW269439   9.637  11.271  11.647  0.3490  0.8684  3.3613
20221SOL     OW69440   8.019   1.572   6.940 -0.1010 -0.2160  0.5586
20221SOL    HW169441   8.058   1.660   6.933 -1.5478  0.5048  1.2118
20221SOL    HW269442   8.022   1.538   6.850  1.1094  0.2039  0.4169
20222SOL     OW69443   1.499   5.488  11.524 -0.4606 -0.0943  0.2064
20222SOL    HW169444   1.507   5.499  11.619  0.0505 -1.1764  0.3064
20222SOL    HW269445   1.496   5.577  11.490  1.2729  0.3722  1.1107
20223SOL     OW69446   4.820  10.086  11.309 -0.2338  0.0714 -0.1931
20223SOL    HW169447   4.793   9.996  11.292 -1.5861  0.2422  0.8884
20223SOL    HW269448   4.831  10.124  11.221  1.1046 -1.3181 -0.6760
20224SOL     OW69449   3.615   4.146   3.310 -0.3264  0.1127 -0.6849
20224SOL    HW169450   3.663   4.227   3.325  0.9869 -0.9874  1.6182
20224SOL    HW269451   3.603   4.142   3.215 -0.9914  3.2525 -0.8471
20225SOL     OW69452   5.929   0.008   3.748  0.3205  0.1820  0.3316
20225SOL    HW169453   5.853  -0.046   3.768 -0.3416  1.1235  0.4286
20225SOL    HW269454   5.894   0.097   3.740  1.0983  0.3460 -1.6400
20226SOL     OW69455  11.409   8.152   0.874 -0.1667 -0.0659  0.2660
20226SOL    HW169456  11.474   8.114   0.814 -0.0087  0.0947  0.3347
20226SOL    HW269457  11.448   8.234   0.903  0.4596 -0.8533  1.7855
20227SOL     OW69458  12.342   9.745   9.906 -0.1543 -0.3388  0.6012
20227SOL    HW169459  12.371   9.754   9.996  2.0429  2.5620 -0.2610
20227SOL    HW269460  12.385   9.665   9.874  0.2656 -0.5506  1.6717
20228SOL     OW69461  11.772   1.586   6.097  0.4105 -0.4078 -0.0899
20228SOL    HW169462  11.773   1.657   6.161 -1.0855  0.6305 -1.1428
20228SOL    HW269463  11.863   1.556   6.092  0.8876  0.7684  1.1094
20229SOL     OW69464   3.116   7.167  10.795  0.4846  0.9455 -0.4441
20229SOL    HW169465   3.055   7.149  10.723  1.3139  1.3541 -1.2753
20229SOL    HW269466   3.146   7.256  10.777  0.3717  1.2139  0.6677
20230SOL     OW69467   0.442   2.315  12.037  0.5129 -0.0880 -0.2296
20230SOL    HW169468   0.389   2.384  11.997  0.2993 -0.2778 -0.2726
20230SOL    HW269469   0.506   2.363  12.091  0.3226  0.1418 -0.2041
20231SOL     OW69470   4.149  11.671   0.315  0.3890 -0.4251 -0.3259
20231SOL    HW169471   4.142  11.686   0.409 -1.3457 -1.4767 -0.2415
20231SOL    HW269472   4.091  11.596   0.298 -0.5107  0.6479 -2.4428
20232SOL     OW69473   4.658   2.901   5.346 -0.0176 -0.0544 -0.3407
20232SOL    HW169474   4.592   2.957   5.305  1.3951  0.8413 -1.5188
20232SOL    HW269475   4.656   2.820   5.294 -1.3332 -0.7289  0.7052
20233SOL     OW69476   5.108   5.695  10.729 -0.3461 -0.1506  0.5925
20233SOL    HW169477   5.122   5.610  10.772 -0.5699  0.6829  2.3995
20233SOL    HW269478   5.196   5.726  10.709 -0.2139 -0.3815  0.8050
20234SOL     OW69479   0.372   5.972   6.022 -0.3266  0.6133  0.5351
20234SOL    HW169480   0.445   6.027   6.052 -0.9009  1.9939 -0.5160
20234SOL    HW269481   0.383   5.968   5.927 -1.0156 -0.0672  0.4773
20235SOL     OW69482  11.106   0.705   2.952  0.0457  0.8695  0.2688
20235SOL    HW169483  11.059   0.632   2.994 -2.0847  1.2697 -1.2291
20235SOL    HW269484  11.180   0.663   2.909 -2.5391 -1.0620 -2.8040
20236SOL     OW69485  10.571   3.886   6.971 -0.4993 -0.2181 -0.2551
20236SOL    HW169486  10.575   3.975   6.936  2.0625  0.7665  2.1001
20236SOL    HW269487  10.482   3.877   7.004 -0.5779  1.8543  0.2476
20237SOL     OW69488  10.070   9.559  10.981 -0.2384 -0.3553  0.2617
20237SOL    HW169489  10.022   9.589  10.903  0.0872 -0.5363 -0.0090
20237SOL    HW269490  10.007   9.505  11.029 -0.3135 -0.5774 -0.0845
20238SOL     OW69491   8.563  12.042  12.149  0.0729 -0.2645  0.4120
20238SOL    HW169492   8.509  12.120  12.133 -0.2234 -0.5580 -0.0510
20238SOL    HW269493   8.653  12.074  12.143 -0.0417 -0.0771 -0.4556
20239SOL     OW69494   9.223   7.935   4.533 -0.2405  0.4108 -0.9970
20239SOL    HW169495   9.307   7.949   4.488  0.3085 -1.2260 -0.5144
20239SOL    HW269496   9.210   8.016   4.583  0.4263  1.1950 -2.0302
20240SOL     OW69497  10.500   6.127  11.664  0.6619  0.0720 -0.0447
20240SOL    HW169498  10.589   6.135  11.699 -0.2291  1.7430  2.0903
20240SOL    HW269499  10.448   6.185  11.719 -1.8339 -1.1277 -0.9986
20241SOL     OW69500   4.596   6.544  12.246 -0.3668 -0.6362 -0.7196
20241SOL    HW169501   4.670   6.507  12.294 -1.3510  0.1031  1.5309
20241SOL    HW269502   4.520   6.524  12.301 -1.3709  1.6444 -1.1617
20242SOL     OW69503   3.077   9.394   8.967 -0.0206 -0.3985 -0.0847
20242SOL    HW169504   3.022   9.361   8.896 -0.2042  1.9079 -1.1150
20242SOL    HW269505   3.021   9.455   9.014  1.0311  0.4665  0.0900
20243SOL     OW69506   9.888   3.354   0.456 -0.3581  0.3226 -0.2900
20243SOL    HW169507   9.870   3.295   0.530 -0.2109  0.0211 -0.4893
20243SOL    HW269508   9.981   3.340   0.437 -0.4931  0.0792 -0.7990
20244SOL     OW69509   5.723   5.285   0.882  0.3778 -0.0026  0.0080
20244SOL    HW169510   5.719   5.355   0.817  0.3200 -0.0222 -0.0091
20244SOL    HW269511   5.773   5.215   0.840  0.4851  0.0505  0.0457
20245SOL     OW69512   3.420   7.314   1.067 -0.0062  0.7354 -0.9264
20245SOL    HW169513   3.375   7.259   1.002 -1.3743  1.6799 -0.8305
20245SOL    HW269514   3.349   7.357   1.115  0.9831  0.4511  0.8833
20246SOL     OW69515   1.443   9.948   9.887 -0.5264  0.1763 -0.0700
20246SOL    HW169516   1.375   9.950   9.954  0.6873  0.6874  1.2254
20246SOL    HW269517   1.456  10.040   9.863 -1.1850 -0.0319 -1.2925
20247SOL     OW69518   9.131   6.754   9.988  0.4511  0.1619  0.0893
20247SOL    HW169519   9.044   6.772  10.024  0.8952  2.1064  0.2819
20247SOL    HW269520   9.123   6.772   9.895  0.5399 -0.0604  0.0396
20248SOL     OW69521   9.983   1.209   9.704  0.1379  0.2742  0.1783
20248SOL    HW169522  10.009   1.173   9.788  1.5513  0.7935 -0.0079
20248SOL    HW269523  10.059   1.196   9.647 -1.5024 -2.0634 -1.7056
20249SOL     OW69524   8.366   3.756   6.025 -0.3471  0.5387  0.1749
20249SOL    HW169525   8.394   3.847   6.015  1.0471  0.1945  0.7454
20249SOL    HW269526   8.299   3.744   5.957  0.8110  1.4407 -1.1895
20250SOL     OW69527   7.770   4.316   0.922 -0.1711 -0.0088 -0.1217
20250SOL    HW169528   7.799   4.337   1.011 -1.2073 -1.1271  0.5050
20250SOL    HW269529   7.812   4.382   0.867  2.8556 -0.9572  0.8109
20251SOL     OW69530   1.508   6.590   2.733  0.1436  0.5442 -0.1889
20251SOL    HW169531   1.445   6.530   2.773  1.1499 -0.9921 -0.8170
20251SOL    HW269532   1.589   6.578   2.783  0.8054  0.1706 -1.2910
20252SOL     OW69533   9.314   3.874  12.062  0.0383 -0.0576 -0.2944
20252SOL    HW169534   9.404   3.907  12.070  0.2605 -1.0490  2.6756
20252SOL    HW269535   9.319   3.804  11.997  1.7017 -0.8431  0.6083
20253SOL     OW69536   0.634   9.821   8.396 -0.0025  0.2537  0.2841
20253SOL    HW169537   0.722   9.799   8.427 -0.5629 -1.2552  0.9327
20253SOL    HW269538   0.597   9.875   8.465 -0.0414 -0.2323  0.6498
20254SOL     OW69539   4.922   5.992   8.858  0.5626  0.6327  0.0746
20254SOL    HW169540   4.865   5.916   8.875 -1.0141  1.7486 -0.0087
20254SOL    HW269541   4.923   6.000   8.763 -0.0861  1.2868  0.1153
20255SOL     OW69542   1.511   2.080   9.201 -0.7698 -0.3773 -0.1631
20255SOL    HW169543   1.510   2.169   9.167  4.0004 -0.2174 -0.5099
20255SOL    HW269544   1.531   2.090   9.294  2.3112 -0.9432 -0.6576
20256SOL     OW69545   2.659   7.720   6.714 -0.2498  0.4083  0.3009
20256SOL    HW169546   2.594   7.650   6.726  0.8414 -0.5853  0.6193
20256SOL    HW269547   2.713   7.690   6.642  0.9938  0.3127  1.2358
20257SOL     OW69548   7.039   1.245   4.712  0.1150 -0.0980 -0.1113
20257SOL    HW169549   7.040   1.212   4.622 -1.9262 -1.5905  0.3462
20257SOL    HW269550   6.947   1.267   4.729  0.0018 -2.0919  2.3469
20258SOL     OW69551   7.789   4.242   0.213 -0.5892 -0.5125  0.9321
20258SOL    HW169552   7.726   4.313   0.203  1.8278  1.5931 -0.9007
20258SOL    HW269553   7.749   4.168   0.168 -2.5353  0.1440  1.5004
20259SOL     OW69554   3.412   9.504   5.703  0.3038  0.0933  0.1602
20259SOL    HW169555   3.331   9.459   5.681 -0.0500  1.2322 -1.0220
20259SOL    HW269556   3.384   9.592   5.730  1.1783  1.2004 -2.2010
20260SOL     OW69557  10.844   2.518   2.339  0.0030 -0.2108 -0.4302
20260SOL    HW169558  10.757   2.480   2.351 -0.0003 -0.1322 -0.1893
20260SOL    HW269559  10.836   2.607   2.374  0.2308 -0.2671 -0.2325
20261SOL     OW69560   1.677   2.997   0.061  0.0614 -0.1830  0.5255
20261SOL    HW169561   1.651   3.085   0.089 -1.0083 -0.4148  0.2938
20261SOL    HW269562   1.606   2.940   0.091  0.2639 -0.8272 -0.1884
20262SOL     OW69563   8.328   3.950   3.394 -0.0923  0.2796  0.5872
20262SOL    HW169564   8.269   4.016   3.430 -0.0887 -0.1746  1.4471
20262SOL    HW269565   8.307   3.870   3.442  0.4873 -0.1417  0.1537
20263SOL     OW69566   9.121   2.872   4.630  0.0920 -0.2585 -0.1046
20263SOL    HW169567   9.082   2.791   4.665 -1.0877 -0.1998 -1.2025
20263SOL    HW269568   9.071   2.942   4.671 -0.7113 -0.1723 -1.1815
20264SOL     OW69569   7.974   3.906   4.052  0.6775 -0.3155 -0.6034
20264SOL    HW169570   8.043   3.925   3.988  0.4717  0.7300 -0.5342
20264SOL    HW269571   8.021   3.881   4.131  0.9979  0.6166 -0.4858
20265SOL     OW69572   7.411   5.729   1.301 -0.8157  0.1698  0.2994
20265SOL    HW169573   7.481   5.794   1.287  1.4969 -2.3982 -1.1239
20265SOL    HW269574   7.422   5.702   1.392 -1.5700  1.4595  0.7987
20266SOL     OW69575   1.280   5.838   2.810  0.2028 -0.4632 -0.3383
20266SOL    HW169576   1.289   5.933   2.815 -1.6621 -0.2225 -0.7618
20266SOL    HW269577   1.289   5.818   2.717  2.0641 -0.9259 -0.1044
20267SOL     OW69578   9.315   5.522   2.884 -0.1145  0.2117 -0.0245
20267SOL    HW169579   9.402   5.558   2.867 -0.1326  0.3606  0.1916
20267SOL    HW269580   9.317   5.498   2.976 -0.0629 -0.4542 -0.1954
20268SOL     OW69581   4.689   3.031   3.744 -0.4799  0.3537 -0.2506
20268SOL    HW169582   4.635   3.090   3.797 -0.0802  0.8100 -0.3462
20268SOL    HW269583   4.699   2.953   3.799  0.6698  1.1593  0.7458
20269SOL     OW69584   1.599   5.119   5.857  0.1434 -0.3498 -0.4227
20269SOL    HW169585   1.505   5.105   5.861  0.3286 -1.4310  2.2188
20269SOL    HW269586   1.617   5.184   5.925  1.5686 -2.5118  1.4309
20270SOL     OW69587   2.915   4.722   4.675  0.2243  0.4207 -0.3428
20270SOL    HW169588   2.826   4.715   4.709  0.6915 -2.2286  0.5453
20270SOL    HW269589   2.907   4.700   4.582 -0.1819  1.6017 -0.6185
20271SOL     OW69590   8.518   4.299   3.296  0.0597 -0.1840  0.3428
20271SOL    HW169591   8.432   4.310   3.338 -1.4186 -0.3707 -2.3863
20271SOL    HW269592   8.521   4.368   3.230  0.0424 -2.6522 -2.4778
20272SOL     OW69593   6.916   0.613   2.383 -0.1300 -0.2254 -0.0719
20272SOL    HW169594   6.831   0.612   2.427 -0.3969  1.5531 -0.4817
20272SOL    HW269595   6.907   0.547   2.314 -1.3914  0.3334 -0.4762
20273SOL     OW69596   4.429   4.469   0.984 -0.2087  0.3248 -0.5412
20273SOL    HW169597   4.342   4.456   0.946  1.3354 -3.1350 -3.4994
20273SOL    HW269598   4.473   4.527   0.921  0.5231 -0.5145 -0.8240
20274SOL     OW69599   7.527  11.791   2.021 -0.3522  0.1563 -0.2809
20274SOL    HW169600   7.431  11.789   2.024 -0.3682 -0.6702 -0.9437
20274SOL    HW269601   7.549  11.881   2.045 -1.3669  0.7888 -1.5250
20275SOL     OW69602   0.998   4.845   9.277 -0.2277 -0.2088  0.3040
20275SOL    HW169603   0.916   4.841   9.229 -1.0005  0.5447  1.5011
20275SOL    HW269604   0.981   4.906   9.349  1.0576 -0.8375  1.1850
20276SOL     OW69605   0.394   6.707   2.319 -0.1494 -0.1022  0.1416
20276SOL    HW169606   0.317   6.666   2.359  0.5940 -0.5566  1.1436
20276SOL    HW269607   0.374   6.801   2.319 -0.9151 -0.2580 -0.0992
20277SOL     OW69608   0.600  12.226   3.849  0.4555 -0.3827 -0.1650
20277SOL    HW169609   0.619  12.165   3.779  0.7752 -1.0561  0.4951
20277SOL    HW269610   0.533  12.285   3.813  0.5501 -0.7720 -0.9874
20278SOL     OW69611   1.352   8.036   2.190  0.3022  0.1285  0.1313
20278SOL    HW169612   1.369   8.128   2.208  0.2863  0.3408 -0.8571
20278SOL    HW269613   1.438   7.994   2.196  0.6118  0.5315 -1.1374
20279SOL     OW69614   4.360   4.337   4.633 -0.3152  0.0706  0.1161
20279SOL    HW169615   4.325   4.424   4.649 -1.3113 -0.5035  1.2730
20279SOL    HW269616   4.326   4.284   4.705 -1.9478 -1.8795 -1.9276
20280SOL     OW69617   2.409   1.606   0.511  0.1339 -0.0610 -0.2026
20280SOL    HW169618   2.426   1.627   0.603 -1.2374 -1.9161  0.5256
20280SOL    HW269619   2.491   1.627   0.466  1.2750 -0.3358  1.6491
20281SOL     OW69620   2.455   8.322   8.562  0.3413  0.2554  0.3589
20281SOL    HW169621   2.533   8.363   8.599 -0.7582  1.4800  1.4538
20281SOL    HW269622   2.403   8.298   8.639 -0.9506  0.6948 -0.3438
20282SOL     OW69623  12.499   7.055   0.135  0.0600  0.4266 -0.2365
20282SOL    HW169624  12.439   7.063   0.209 -1.2671  0.5107 -1.2804
20282SOL    HW269625  12.575   7.009   0.171 -1.0033 -0.5166  0.9213
20283SOL     OW69626  12.494   4.626   4.465 -0.5189 -0.4102  0.5928
20283SOL    HW169627  12.508   4.622   4.371 -0.7713 -0.5268  0.5606
20283SOL    HW269628  12.403   4.601   4.477 -0.8016  0.6878  0.7744
20284SOL     OW69629  11.643  11.994   8.488  0.1253  0.5815 -0.0370
20284SOL    HW169630  11.611  12.081   8.514 -0.4062  0.1935  0.6512
20284SOL    HW269631  11.738  12.004   8.480 -0.0542  1.5572 -1.2996
20285SOL     OW69632   5.620   4.554  11.678 -0.3747 -0.0797  0.4501
20285SOL    HW169633   5.548   4.581  11.734 -0.0656 -0.6439  1.1329
20285SOL    HW269634   5.686   4.623  11.690 -0.0791 -0.4840  1.2399
20286SOL     OW69635   0.324   5.321   3.903  0.8691  0.0800 -0.4576
20286SOL    HW169636   0.271   5.332   3.982  1.2094  0.3739 -0.2705
20286SOL    HW269637   0.396   5.382   3.914  0.5120  0.6744 -1.3555
20287SOL     OW69638   4.745  10.319  10.803  0.7155  0.1222  0.1173
20287SOL    HW169639   4.692  10.267  10.863  1.9645 -1.9279 -0.4814
20287SOL    HW269640   4.685  10.388  10.773 -1.1367 -1.1537  0.6663
20288SOL     OW69641   5.901   1.273   4.830  0.1667  0.4271  0.6009
20288SOL    HW169642   5.959   1.224   4.888  0.2145  0.7019  0.7860
20288SOL    HW269643   5.823   1.292   4.883 -0.2604 -0.2753  0.2345
20289SOL     OW69644   2.177   4.405   9.863  0.3872 -0.2340 -0.6330
20289SOL    HW169645   2.108   4.363   9.813  1.0359 -0.7789 -1.0991
20289SOL    HW269646   2.225   4.457   9.800  0.3705  0.1874 -0.3022
20290SOL     OW69647   3.845   1.542  11.280  0.7115 -0.3473  0.2800
20290SOL    HW169648   3.815   1.618  11.330  2.3812  0.4077  0.1928
20290SOL    HW269649   3.939   1.538  11.296  0.7522 -2.1139 -0.1319
20291SOL     OW69650   9.913   0.538  12.206 -0.2558 -0.5989 -0.1056
20291SOL    HW169651   9.846   0.539  12.138  0.1695 -1.1940 -0.5423
20291SOL    HW269652   9.920   0.446  12.232 -0.3065 -0.4018  0.6443
20292SOL     OW69653   8.338   3.381   6.941 -0.2210  0.1748 -0.4725
20292SOL    HW169654   8.323   3.294   6.904  1.8684 -0.3461 -0.2052
20292SOL    HW269655   8.279   3.385   7.017 -1.7317 -0.2238 -1.5781
20293SOL     OW69656   9.790   9.057  10.413  0.1441 -0.0357 -0.1660
20293SOL    HW169657   9.854   9.034  10.345 -0.4498 -2.2731 -0.0554
20293SOL    HW269658   9.795   8.985  10.476 -0.4999  1.1652  1.3364
20294SOL     OW69659   1.084   6.228  11.420 -0.2550  0.0974  0.0579
20294SOL    HW169660   1.100   6.142  11.459 -1.1288  0.8688  2.3362
20294SOL    HW269661   1.135   6.288  11.474 -1.4297  1.2404 -0.0379
20295SOL     OW69662   3.351   5.175  10.065 -0.2813 -0.3724 -0.2019
20295SOL    HW169663   3.326   5.256  10.108 -0.0431 -0.8075  0.7822
20295SOL    HW269664   3.267   5.132  10.045 -0.3755 -0.8865  1.2443
20296SOL     OW69665   9.229   7.087  12.048 -0.1021 -0.2555 -0.5324
20296SOL    HW169666   9.297   7.081  11.981 -0.6479 -0.3364 -1.0962
20296SOL    HW269667   9.272   7.127  12.123  0.8729 -1.4149 -0.4473
20297SOL     OW69668   8.820   2.034  12.362  0.6308  0.5117  0.0479
20297SOL    HW169669   8.825   1.993  12.448 -1.7976 -0.3432 -0.1430
20297SOL    HW269670   8.892   1.995  12.313  0.7685 -0.5686  1.0672
20298SOL     OW69671   2.010   0.084   2.119  0.1312  0.3193 -0.1708
20298SOL    HW169672   1.940   0.136   2.160  0.7723  0.7068  0.4446
20298SOL    HW269673   2.050   0.143   2.056 -0.5974 -0.1533 -1.0937
20299SOL     OW69674   4.128   9.077   1.187  0.0043 -0.1454  0.7804
20299SOL    HW169675   4.065   9.149   1.178 -0.9162 -1.0202 -0.0015
20299SOL    HW269676   4.211   9.115   1.159 -0.2669  0.8730  1.2821
20300SOL     OW69677   6.182  10.099   9.411 -0.0118  1.1436  0.6155
20300SOL    HW169678   6.258  10.156   9.398  0.3881  0.7600  1.1776
20300SOL    HW269679   6.200  10.022   9.357 -1.1300  2.0441 -1.1107
20301SOL     OW69680   0.047   9.135  11.333  0.1290  0.1914 -0.5685
20301SOL    HW169681   0.095   9.206  11.291  0.7470  1.3191  1.8793
20301SOL    HW269682  -0.037   9.174  11.357 -0.9895 -0.9785 -2.2997
20302SOL     OW69683   0.348   4.523   3.996 -0.0691  0.3325  0.1225
20302SOL    HW169684   0.393   4.525   3.912 -1.8322  1.3812 -0.8454
20302SOL    HW269685   0.277   4.459   3.985 -0.5494  0.7516  0.6803
20303SOL     OW69686   7.438   7.054   9.109  0.2481 -0.3754  0.4987
20303SOL    HW169687   7.453   6.970   9.153  1.8662 -0.7719 -0.7024
20303SOL    HW269688   7.380   7.033   9.036  1.1657 -0.6125 -0.1857
20304SOL     OW69689   4.295   9.758   9.289 -0.1336 -0.3021  0.2207
20304SOL    HW169690   4.269   9.693   9.223 -0.4354  0.5963 -0.5700
20304SOL    HW269691   4.238   9.833   9.273  1.9848  1.2214 -0.6869
20305SOL     OW69692  12.266  10.984   6.565 -0.5181  0.4088 -0.2058
20305SOL    HW169693  12.179  10.988   6.526 -0.2206 -0.1800 -0.9426
20305SOL    HW269694  12.275  11.067   6.613 -1.1349  0.8627 -0.8634
20306SOL     OW69695   1.350  11.186  10.620 -0.0868  0.1027  0.5562
20306SOL    HW169696   1.388  11.196  10.708  1.5567 -1.5371  0.0978
20306SOL    HW269697   1.291  11.112  10.629  0.3916 -0.3260  0.1994
20307SOL     OW69698   3.008   5.627  10.145 -0.3924 -1.0686 -0.5887
20307SOL    HW169699   2.965   5.710  10.167  0.4253 -0.6208 -0.6258
20307SOL    HW269700   3.045   5.596  10.227 -0.3668 -1.1996 -0.6491
20308SOL     OW69701   8.901   3.915   4.259 -0.3971  0.4822 -0.5800
20308SOL    HW169702   8.928   3.979   4.194  1.3865 -0.9655 -1.3843
20308SOL    HW269703   8.837   3.860   4.214 -1.4163  1.2557 -0.1092
20309SOL     OW69704   7.186   2.326   0.877  0.0009 -0.0584 -0.7685
20309SOL    HW169705   7.185   2.250   0.818 -0.3486 -0.0551 -0.7716
20309SOL    HW269706   7.276   2.330   0.910 -0.2014 -1.0447 -0.0475
20310SOL     OW69707  11.988   2.338   9.900 -0.3215  0.6205  0.0074
20310SOL    HW169708  12.002   2.403   9.969 -1.6066 -0.1470  1.0514
20310SOL    HW269709  11.972   2.256   9.948  0.6270 -0.3350 -1.2573
20311SOL     OW69710   7.982   6.440   2.116 -0.3829  0.2646  0.5219
20311SOL    HW169711   7.923   6.432   2.191  0.1245 -0.8755  0.8370
20311SOL    HW269712   7.948   6.514   2.066 -1.8975 -0.1735  0.8396
20312SOL     OW69713   0.217   1.577   5.485  0.4632  0.1029  0.2602
20312SOL    HW169714   0.269   1.502   5.512  2.9180  1.6717  0.2506
20312SOL    HW269715   0.141   1.576   5.543 -0.0879 -2.8434 -0.3639
20313SOL     OW69716   9.535   5.627   7.498 -0.6395  0.6683  0.1665
20313SOL    HW169717   9.612   5.573   7.480  0.3996  0.9519  3.2101
20313SOL    HW269718   9.462   5.578   7.462  0.8275  0.0440 -2.1913
20314SOL     OW69719   8.417   7.459   1.017 -0.7262  0.1406 -0.0325
20314SOL    HW169720   8.510   7.482   1.005  0.0543 -2.4351  0.4643
20314SOL    HW269721   8.399   7.396   0.947 -1.7844 -0.2356  0.5628
20315SOL     OW69722   3.625  12.492   7.131  0.2067  0.0641  0.1096
20315SOL    HW169723   3.668  12.407   7.133 -1.7207 -0.9556 -0.2621
20315SOL    HW269724   3.654  12.535   7.212  1.4522 -0.7808  0.1450
20316SOL     OW69725   3.818   8.644   3.691 -0.2312  0.0282 -0.5312
20316SOL    HW169726   3.735   8.682   3.721 -0.8773 -1.0373 -0.8744
20316SOL    HW269727   3.852   8.598   3.767 -1.2130 -1.5736 -0.9922
20317SOL     OW69728   8.980  10.135   1.490  0.0312  0.2100 -0.1251
20317SOL    HW169729   8.893  10.132   1.450  0.6137  2.2182 -1.6987
20317SOL    HW269730   9.035  10.083   1.431 -0.0163 -0.8136  0.7097
20318SOL     OW69731   5.106   6.935   4.391  0.1468 -0.2293 -0.0671
20318SOL    HW169732   5.167   6.924   4.318 -0.6549 -0.4933 -0.7147
20318SOL    HW269733   5.113   7.027   4.415 -0.0147 -0.0032 -0.8767
20319SOL     OW69734   4.033   9.911   6.234  0.5167 -0.2020 -0.3866
20319SOL    HW169735   4.112   9.946   6.275 -1.0985  0.3516  2.5150
20319SOL    HW269736   3.964   9.972   6.260 -0.8910 -0.4935 -3.0894
20320SOL     OW69737   1.791   0.331  10.741  0.4385  0.1174  0.0801
20320SOL    HW169738   1.800   0.296  10.652  2.3503  0.7355 -0.0067
20320SOL    HW269739   1.720   0.395  10.734 -0.6873 -1.1234 -0.5434
20321SOL     OW69740   6.892   5.828  12.386 -0.4726  0.1358 -0.0227
20321SOL    HW169741   6.988   5.832  12.389 -0.4340 -0.5915 -0.1152
20321SOL    HW269742   6.866   5.909  12.343  0.0854  0.4754  0.2588
20322SOL     OW69743   1.354   5.827   9.401  0.1009 -0.9095 -0.8619
20322SOL    HW169744   1.376   5.809   9.310 -0.6284  1.5433 -1.5820
20322SOL    HW269745   1.422   5.887   9.431 -0.4542 -0.5957 -0.2206
20323SOL     OW69746   8.370   4.354   4.546  0.1816  0.0468 -0.2481
20323SOL    HW169747   8.444   4.327   4.600  0.4666  1.0559 -0.1139
20323SOL    HW269748   8.400   4.340   4.456  0.7064  0.8299 -0.2080
20324SOL     OW69749   5.557   4.440   5.749 -0.0067  0.1106 -0.3344
20324SOL    HW169750   5.488   4.499   5.780  0.4398  1.5493 -1.9222
20324SOL    HW269751   5.613   4.427   5.826 -2.3249 -1.6777  1.2169
20325SOL     OW69752   7.994   3.976   5.103  0.1154 -0.5734  0.0396
20325SOL    HW169753   7.908   3.973   5.145 -0.3605  0.5798 -0.7918
20325SOL    HW269754   7.998   4.062   5.062  0.2169 -1.8401 -2.9160
20326SOL     OW69755   2.047   6.180   4.175  0.1506  0.3403  0.4479
20326SOL    HW169756   2.034   6.123   4.251  0.9871  0.4993  0.7251
20326SOL    HW269757   2.106   6.131   4.118 -0.5197  0.1970 -0.1411
20327SOL     OW69758   7.391   3.086   2.569  0.2517  0.2704  0.3073
20327SOL    HW169759   7.484   3.066   2.557  0.2960 -0.4798  1.7404
20327SOL    HW269760   7.347   3.037   2.500  0.8920  0.5342 -0.3092
20328SOL     OW69761   7.601  10.947   0.457  0.2111 -0.0278  0.2855
20328SOL    HW169762   7.533  11.006   0.425  0.0541 -0.2408  0.2201
20328SOL    HW269763   7.670  11.005   0.490  0.9452  0.2269 -1.5840
20329SOL     OW69764   5.321  12.582   2.753  0.0663  0.0281 -0.4414
20329SOL    HW169765   5.382  12.655   2.748  0.2482 -0.1790 -1.2701
20329SOL    HW269766   5.373  12.510   2.788  0.3680 -0.2129 -1.3638
20330SOL     OW69767   7.380   2.206   9.548 -0.4729 -0.2110  0.1193
20330SOL    HW169768   7.361   2.147   9.475  1.9444 -0.4332 -0.4127
20330SOL    HW269769   7.437   2.273   9.511 -1.0984  1.0284  1.3124
20331SOL     OW69770   4.060   7.454   4.420  0.0793  0.6704  0.3829
20331SOL    HW169771   3.977   7.417   4.450  0.7222 -0.3841  0.9112
20331SOL    HW269772   4.038   7.498   4.338 -1.3176  1.8553  1.3274
20332SOL     OW69773   0.958   6.832   5.169 -0.4372  0.1502 -0.0743
20332SOL    HW169774   1.030   6.770   5.181  0.2048  0.9804  0.5130
20332SOL    HW269775   0.958   6.885   5.249 -2.3730 -0.4817  0.4025
20333SOL     OW69776  12.153   2.287  10.458 -0.1562 -0.4131  0.4003
20333SOL    HW169777  12.199   2.366  10.429 -1.0481  0.3123  0.8862
20333SOL    HW269778  12.171   2.222  10.390  1.9027 -0.3018  0.7685
20334SOL     OW69779   1.610   0.789   0.277 -0.0290 -0.2305 -0.3751
20334SOL    HW169780   1.530   0.832   0.308 -0.1814  0.6211 -1.8344
20334SOL    HW269781   1.591   0.695   0.284 -0.5555 -0.0566  0.7407
20335SOL     OW69782  11.006   7.494  11.016 -0.0508 -0.5737  0.2086
20335SOL    HW169783  10.988   7.571  10.961  0.9644 -0.5076 -0.0437
20335SOL    HW269784  10.940   7.499  11.086 -0.3433  0.2238 -0.1092
20336SOL     OW69785  11.499   1.998   3.917 -0.1494 -0.3551  0.1676
20336SOL    HW169786  11.561   2.068   3.940 -0.1266 -0.3911  0.2152
20336SOL    HW269787  11.510   1.987   3.822  1.1335 -1.5205  0.4215
20337SOL     OW69788  10.839   8.338  12.122  0.4678 -0.3560 -0.5949
20337SOL    HW169789  10.919   8.290  12.099  0.8801  0.0648 -0.0713
20337SOL    HW269790  10.863   8.430  12.112  0.1383 -0.2171 -0.1461
20338SOL     OW69791   3.850   6.968  12.324  0.4716 -0.6347 -0.5826
20338SOL    HW169792   3.844   7.005  12.236 -1.3171  0.7471  0.0760
20338SOL    HW269793   3.762   6.977  12.360  0.7995 -2.5464  0.8433
20339SOL     OW69794   2.696   7.125   3.999 -0.3200 -0.0492 -0.3913
20339SOL    HW169795   2.737   7.184   3.936  0.3300  0.6514  0.6577
20339SOL    HW269796   2.641   7.182   4.053  0.3281 -0.3757  0.6475
20340SOL     OW69797   8.458   4.959   8.673  0.3705  0.0355  0.5370
20340SOL    HW169798   8.460   4.985   8.580 -1.3567  0.6014  0.6060
20340SOL    HW269799   8.548   4.968   8.702  0.4428  3.3243 -0.2168
20341SOL     OW69800   6.782   4.024   2.615  0.4377  0.0006 -0.2268
20341SOL    HW169801   6.718   3.990   2.678  0.6748 -1.3174 -0.6602
20341SOL    HW269802   6.736   4.093   2.568 -0.7457 -1.0434 -0.6528
20342SOL     OW69803   2.039  12.240   8.130  0.2602  0.0754 -0.3693
20342SOL    HW169804   2.126  12.241   8.172 -0.3696  1.0380  0.9631
20342SOL    HW269805   2.038  12.319   8.076  0.6030 -0.5114 -1.2566
20343SOL     OW69806   6.246   1.924   5.085  0.1960 -0.2942 -0.1009
20343SOL    HW169807   6.152   1.923   5.097  0.2798 -0.0522  0.6183
20343SOL    HW269808   6.282   1.893   5.169  0.7526 -0.3502 -0.3528
20344SOL     OW69809   0.117   6.716   6.941  0.1847  0.0124 -0.0484
20344SOL    HW169810   0.146   6.631   6.908  1.3293  0.7481 -1.0026
20344SOL    HW269811   0.022   6.706   6.954  0.4430 -1.6984  0.7919
20345SOL     OW69812   6.194   7.181   5.818  0.8499  0.8029 -0.0875
20345SOL    HW169813   6.156   7.253   5.767 -2.4229  1.2274  2.6156
20345SOL    HW269814   6.127   7.113   5.817  2.3613 -0.7615  0.4473
20346SOL     OW69815   6.832   4.916   2.717  0.0037  0.1570  0.5908
20346SOL    HW169816   6.795   4.872   2.640 -0.5094 -1.0251  1.4717
20346SOL    HW269817   6.767   4.982   2.740 -0.1307  0.1065  0.3590
20347SOL     OW69818  10.623   3.827   8.374 -0.3214 -0.0031  0.3142
20347SOL    HW169819  10.641   3.819   8.280 -0.0306  0.5522  0.3186
20347SOL    HW269820  10.682   3.764   8.415  1.1889  1.3201  0.2785
20348SOL     OW69821   8.038   6.152   3.540  0.1080 -0.1854 -0.2301
20348SOL    HW169822   7.983   6.079   3.511  0.0246 -1.1118  2.0562
20348SOL    HW269823   8.093   6.172   3.465 -0.5071 -1.9823 -1.2226
20349SOL     OW69824   8.237   2.027   1.608 -0.0310 -0.3999 -0.1567
20349SOL    HW169825   8.193   2.101   1.567 -0.6401 -0.6581  0.0238
20349SOL    HW269826   8.262   2.059   1.695 -0.4264 -0.4436 -0.0221
20350SOL     OW69827   4.340   3.923   9.760 -0.1468 -0.3216 -0.9343
20350SOL    HW169828   4.274   3.855   9.770 -0.6607  0.2963  0.0319
20350SOL    HW269829   4.327   3.981   9.835  0.8222  0.3849 -1.2838
20351SOL     OW69830   4.518   2.098  10.677 -0.2042 -0.0539  0.9172
20351SOL    HW169831   4.560   2.179  10.647 -0.5921  1.1778  3.4439
20351SOL    HW269832   4.432   2.099  10.635  0.6859 -0.5356 -1.0716
20352SOL     OW69833   3.603   4.263   7.931  0.1152  0.0100  0.3914
20352SOL    HW169834   3.523   4.259   7.983  0.4730  0.3738  0.9743
20352SOL    HW269835   3.672   4.237   7.992  0.3457 -1.2229 -0.3472
20353SOL     OW69836   2.541   1.951   4.862 -0.2189  0.0466 -0.5361
20353SOL    HW169837   2.546   1.936   4.957 -0.5751  0.0125 -0.5217
20353SOL    HW269838   2.514   2.043   4.854 -1.3341 -0.2724 -0.5888
20354SOL     OW69839   0.607   4.528   0.803 -0.2992  0.2849 -0.3818
20354SOL    HW169840   0.699   4.518   0.827  0.4729  0.7555 -2.8616
20354SOL    HW269841   0.567   4.574   0.877  1.5919  0.6048  0.4877
20355SOL     OW69842   5.761  10.326   9.751  0.2670  0.0088  0.4683
20355SOL    HW169843   5.707  10.266   9.700 -0.4575 -0.1154  1.3469
20355SOL    HW269844   5.834  10.273   9.783 -0.3425 -0.4205  1.2006
20356SOL     OW69845   4.072  10.555  11.089  1.1651 -0.0692 -0.0176
20356SOL    HW169846   4.077  10.545  11.184  0.7386 -0.3102 -0.0187
20356SOL    HW269847   4.102  10.471  11.055 -0.7418 -0.7782 -0.0538
20357SOL     OW69848   2.381   8.587   7.480 -1.0334  0.3479  1.0307
20357SOL    HW169849   2.306   8.645   7.467 -1.6397 -0.2004  1.9259
20357SOL    HW269850   2.343   8.500   7.489 -0.1112 -0.2903 -0.6814
20358SOL     OW69851  11.163   5.550   8.080 -0.0109  0.1027  0.2832
20358SOL    HW169852  11.102   5.584   8.146 -1.6298 -1.6941 -0.2009
20358SOL    HW269853  11.208   5.478   8.125  0.1413 -0.0165 -0.0591
20359SOL     OW69854  11.843   2.227   9.448  0.1419 -0.2899 -0.2624
20359SOL    HW169855  11.866   2.183   9.530 -0.1979  1.3740  0.7878
20359SOL    HW269856  11.923   2.225   9.396  0.7921 -0.1844  0.6941
20360SOL     OW69857  11.094   7.267   9.293  0.5773  0.2461 -0.0272
20360SOL    HW169858  11.156   7.194   9.291  0.6497  0.2859  0.5367
20360SOL    HW269859  11.074   7.278   9.386 -0.3020  0.2128 -0.2009
20361SOL     OW69860   1.355   0.411   2.080  0.1279  0.2088 -0.0620
20361SOL    HW169861   1.321   0.456   2.158  0.5460 -0.1535  0.3321
20361SOL    HW269862   1.366   0.481   2.015  0.6161  0.6503  0.4897
20362SOL     OW69863  11.445   6.821   3.985 -0.0222  0.1418  0.4027
20362SOL    HW169864  11.462   6.823   3.891 -1.3903 -0.1748  0.1263
20362SOL    HW269865  11.490   6.742   4.016  0.1291  0.0518 -0.0467
20363SOL     OW69866   4.983   0.116   8.406  0.2968  0.1723 -0.0907
20363SOL    HW169867   4.912   0.075   8.358  2.4092 -2.6360 -1.0300
20363SOL    HW269868   4.979   0.208   8.380 -2.5224  0.0088 -0.5816
20364SOL     OW69869   0.285   1.182  10.431 -0.5437  0.6396  0.2308
20364SOL    HW169870   0.232   1.240  10.486  0.5100 -0.1459  2.1939
20364SOL    HW269871   0.234   1.101  10.426 -0.3612  0.4997  0.5946
20365SOL     OW69872   8.534   4.126   0.788  0.2640 -0.1392 -0.3264
20365SOL    HW169873   8.515   4.192   0.721  1.8594  1.0984  0.3710
20365SOL    HW269874   8.627   4.106   0.776 -0.2198 -2.4523 -0.6401
20366SOL     OW69875   8.438   9.135   4.991 -0.1750  0.1588 -0.2452
20366SOL    HW169876   8.418   9.194   4.919  4.8837  2.5051 -0.1985
20366SOL    HW269877   8.498   9.071   4.953 -0.8602 -1.2904  1.0250
20367SOL     OW69878   1.076   3.510  12.344 -0.5806 -0.3841  0.1612
20367SOL    HW169879   1.009   3.507  12.276 -1.3832 -0.6774  0.9305
20367SOL    HW269880   1.158   3.492  12.299 -1.3479 -2.8686 -0.4080
20368SOL     OW69881   5.925   8.226   1.393 -0.3762 -0.5544 -0.3606
20368SOL    HW169882   5.856   8.164   1.417  0.1431 -0.4690  1.4805
20368SOL    HW269883   5.880   8.308   1.374 -0.7889 -0.4686  0.9460
20369SOL     OW69884  12.611   5.856   7.590 -0.3609  0.3791 -0.1175
20369SOL    HW169885  12.642   5.766   7.578  0.1148  0.7783 -2.2506
20369SOL    HW269886  12.544   5.849   7.658 -0.3514 -1.5940 -0.2431
20370SOL     OW69887   6.682   3.252   9.065 -0.6511 -0.2136 -0.1841
20370SOL    HW169888   6.743   3.182   9.089  0.3829  0.6850 -0.1005
20370SOL    HW269889   6.666   3.299   9.147 -0.9076 -0.0183 -0.3442
20371SOL     OW69890  10.878   2.506  11.245  0.3725  0.0881  0.1201
20371SOL    HW169891  10.858   2.600  11.251  0.2804  0.1250 -0.6557
20371SOL    HW269892  10.796   2.466  11.215  0.4337 -0.2329  0.3757
20372SOL     OW69893   3.065   2.862   3.817  0.2538 -0.2800  0.4604
20372SOL    HW169894   3.140   2.888   3.763  0.6200  0.5272  1.3350
20372SOL    HW269895   3.101   2.855   3.906  0.0533 -3.1880  0.4153
20373SOL     OW69896   0.071   8.492   7.647  1.0380  0.1454  0.0894
20373SOL    HW169897   0.028   8.407   7.642  0.0479  0.7181 -3.1548
20373SOL    HW269898  -0.001   8.556   7.650  1.7083  0.9589 -0.4951
20374SOL     OW69899   9.305   4.257  12.193 -0.4487  0.1266 -0.3020
20374SOL    HW169900   9.279   4.203  12.268  0.3896  0.1807  0.0415
20374SOL    HW269901   9.244   4.233  12.123 -1.6740  0.5555  0.5868
20375SOL     OW69902   3.121   2.567   2.488  0.1543  0.2896  0.1894
20375SOL    HW169903   3.139   2.570   2.394 -1.0089 -1.2712 -0.1194
20375SOL    HW269904   3.157   2.483   2.518 -0.2247  0.3884  0.9633
20376SOL     OW69905   7.094   4.534  11.344 -0.1483  0.2228 -0.4346
20376SOL    HW169906   7.105   4.543  11.250 -0.5284 -0.8419 -0.5895
20376SOL    HW269907   7.002   4.559  11.360 -0.1379  0.2209 -0.3694
20377SOL     OW69908   0.476   5.868   4.889  0.4490 -0.1161 -0.7948
20377SOL    HW169909   0.493   5.776   4.871 -1.5275 -1.0503  1.4611
20377SOL    HW269910   0.382   5.878   4.875  0.6265  1.5492 -0.9584
20378SOL     OW69911   2.203   3.357   9.272 -0.1490 -0.3092 -0.4345
20378SOL    HW169912   2.298   3.366   9.265  0.0552 -1.5444  0.3821
20378SOL    HW269913   2.173   3.444   9.297  0.7127  0.2161 -1.1748
20379SOL     OW69914   9.613   8.547   0.107 -0.0219 -0.1577 -0.2018
20379SOL    HW169915   9.697   8.546   0.153 -0.5639 -2.1728  0.8946
20379SOL    HW269916   9.548   8.563   0.176 -0.5679  1.4009 -1.0340
20380SOL     OW69917   5.200   8.954  10.082 -0.2151  0.4248 -0.1627
20380SOL    HW169918   5.275   8.898  10.065 -1.0484 -1.0385  0.7697
20380SOL    HW269919   5.162   8.972   9.996  0.5557  0.2724 -0.5357
20381SOL     OW69920  11.053   7.300   8.380  0.3471 -0.1656 -0.1551
20381SOL    HW169921  10.995   7.225   8.397  0.9001 -0.5441  0.0895
20381SOL    HW269922  11.141   7.267   8.399  0.6359  0.4300 -0.4412
20382SOL     OW69923   2.122   5.884   5.588  0.3075  0.3765 -0.1809
20382SOL    HW169924   2.069   5.962   5.572  1.4316  1.3266  0.5799
20382SOL    HW269925   2.144   5.889   5.681  2.6133  0.6214 -0.6817
20383SOL     OW69926  12.500   2.767  11.760  0.1316  0.1745  0.0878
20383SOL    HW169927  12.411   2.799  11.769 -0.5578 -1.0884 -1.7773
20383SOL    HW269928  12.528   2.798  11.674 -0.0645 -2.8668 -1.1870
20384SOL     OW69929   4.770  11.261   4.949 -0.1437  0.1220  0.0087
20384SOL    HW169930   4.722  11.343   4.942 -0.1927  0.1329  0.4870
20384SOL    HW269931   4.837  11.267   4.881  0.1392  0.7497  0.3385
20385SOL     OW69932   1.495   8.679  12.303  0.1029  0.1769 -0.3327
20385SOL    HW169933   1.495   8.726  12.386 -1.9271  1.3313 -0.9189
20385SOL    HW269934   1.575   8.709  12.259  0.0997  1.1989  0.3287
20386SOL     OW69935   2.235   1.373   0.190 -0.1674 -0.1386  0.0738
20386SOL    HW169936   2.180   1.386   0.267  0.6263 -0.0709  0.6480
20386SOL    HW269937   2.315   1.422   0.209 -1.2233  2.8014 -2.2560
20387SOL     OW69938   7.277   5.260   0.144 -0.5678 -0.1958 -0.4217
20387SOL    HW169939   7.354   5.300   0.106 -0.9945  1.5446  0.4266
20387SOL    HW269940   7.276   5.170   0.110  1.0360  0.1770 -1.5277
20388SOL     OW69941  10.385  11.502  10.765 -0.3007  0.1540 -0.4210
20388SOL    HW169942  10.336  11.424  10.789 -1.4551  1.1095  0.4499
20388SOL    HW269943  10.322  11.556  10.717  0.5259  0.5039 -1.1436
20389SOL     OW69944  11.738   5.640  12.543 -0.1825 -0.4212 -0.2859
20389SOL    HW169945  11.677   5.713  12.555  1.8920  1.3001  0.5307
20389SOL    HW269946  11.745   5.600  12.630  0.7827  0.2038 -0.0639
20390SOL     OW69947   8.336   2.253   6.564  0.3675 -0.1036  0.6884
20390SOL    HW169948   8.347   2.190   6.494  2.8667 -1.9423  2.5481
20390SOL    HW269949   8.425   2.277   6.590 -0.4592  3.4358  0.8299
20391SOL     OW69950  12.065  10.040   1.339  0.6105  0.4019 -0.2365
20391SOL    HW169951  12.122  10.097   1.288  1.9948 -0.2022  0.5933
20391SOL    HW269952  12.026   9.981   1.274  2.4016 -0.4012 -0.6316
20392SOL     OW69953   5.222   5.110   6.321  0.4168 -0.4106 -0.1259
20392SOL    HW169954   5.155   5.044   6.336  0.9116 -1.4253 -1.9897
20392SOL    HW269955   5.229   5.116   6.226 -0.5294  3.3614 -0.1130
20393SOL     OW69956  11.368   3.306   4.783  0.4891 -0.5996  0.2606
20393SOL    HW169957  11.407   3.383   4.825 -2.2431 -0.4917  2.9327
20393SOL    HW269958  11.277   3.331   4.768  0.1819 -2.4429 -1.3137
20394SOL     OW69959   0.855   2.713   9.380 -0.1914  0.1132 -0.1199
20394SOL    HW169960   0.913   2.781   9.412 -1.5935  1.8435 -1.0919
20394SOL    HW269961   0.867   2.640   9.441  1.3473  1.2113  0.9521
20395SOL     OW69962  11.181   1.914   6.826 -0.1334 -0.2493  0.2152
20395SOL    HW169963  11.140   1.981   6.772  0.6150  0.1180  0.0926
20395SOL    HW269964  11.256   1.884   6.776  1.3048  0.9740  1.5371
20396SOL     OW69965  10.834   1.198   4.949  0.6397  0.1277 -0.0333
20396SOL    HW169966  10.805   1.246   4.871  0.9060  1.6726  0.7643
20396SOL    HW269967  10.928   1.187   4.938  0.7939  0.9675  0.3675
20397SOL     OW69968   0.012   0.586  10.762  0.2838  0.2065 -0.1975
20397SOL    HW169969   0.063   0.507  10.746  0.8306  0.3511  0.7165
20397SOL    HW269970   0.029   0.641  10.686 -0.4697 -0.7188 -1.0607
20398SOL     OW69971  12.356   3.268   7.293 -0.5239 -0.0955  0.4913
20398SOL    HW169972  12.399   3.263   7.378 -1.1521 -0.6456  0.7851
20398SOL    HW269973  12.367   3.360   7.266  0.1134 -0.0380  0.9225
20399SOL     OW69974   3.929   4.989   7.548 -0.6518 -0.0978 -0.2749
20399SOL    HW169975   3.915   4.897   7.571 -1.0388 -0.2337 -1.0535
20399SOL    HW269976   3.984   4.987   7.470  3.4723  0.4033  2.3103
20400SOL     OW69977  12.391   0.528   0.819 -0.1436  0.2813  0.1111
20400SOL    HW169978  12.306   0.484   0.816 -0.0945  0.1792  0.2048
20400SOL    HW269979  12.454   0.457   0.834  0.0547  0.2350 -0.8808
20401SOL     OW69980   7.060   9.085   0.232 -0.1936 -0.3081  0.8049
20401SOL    HW169981   7.133   9.027   0.256  0.5207  0.5640  0.8086
20401SOL    HW269982   7.053   9.075   0.137  1.7517  1.5907  0.3791
20402SOL     OW69983   9.106   3.606  11.220  0.2816 -0.1366 -0.2437
20402SOL    HW169984   9.191   3.563  11.218 -0.0198 -0.7308 -0.8755
20402SOL    HW269985   9.117   3.679  11.281  0.8924 -0.9205  0.6073
20403SOL     OW69986  10.903   2.493   2.690 -0.0889 -0.4895 -0.3628
20403SOL    HW169987  10.827   2.532   2.733  0.5338  0.4131 -0.0571
20403SOL    HW269988  10.920   2.412   2.738 -0.9376 -0.7780 -0.5287
20404SOL     OW69989   8.882   3.198   9.289 -0.0679  0.0966 -0.0873
20404SOL    HW169990   8.913   3.249   9.364  2.2370 -2.8645  1.1825
20404SOL    HW269991   8.950   3.209   9.222  0.3075 -1.0253  0.0911
20405SOL     OW69992  11.414   9.856   1.585  0.1228 -0.1924 -0.2580
20405SOL    HW169993  11.374   9.864   1.672  0.5123 -0.8899 -0.0031
20405SOL    HW269994  11.507   9.871   1.601  0.2797 -0.9387 -0.4465
20406SOL     OW69995   5.383   5.319   0.339 -0.0595  0.1952  0.6320
20406SOL    HW169996   5.339   5.383   0.284  1.5478  2.5098  1.8436
20406SOL    HW269997   5.461   5.293   0.289 -0.0804  0.1030  0.6461
20407SOL     OW69998   5.614   3.336   4.629 -0.1086  0.2533 -0.2977
20407SOL    HW169999   5.522   3.311   4.630  0.1065 -0.6729 -1.4972
20407SOL    HW270000   5.642   3.328   4.720 -1.0723 -0.0036 -0.0192
20408SOL     OW70001   4.769   3.240  10.448 -0.2161  0.3616 -0.1120
20408SOL    HW170002   4.788   3.167  10.388 -0.9798 -0.9243  1.1512
20408SOL    HW270003   4.853   3.285  10.457 -0.1836  0.9324 -2.5208
20409SOL     OW70004   8.505   0.331  10.512  0.2547  0.2333  0.5912
20409SOL    HW170005   8.500   0.267  10.441 -3.3269 -0.7670  1.5427
20409SOL    HW270006   8.541   0.409  10.471 -0.2036 -0.7987 -1.9563
20410SOL     OW70007   4.775   1.525   7.137 -0.6255  0.5171  0.3117
20410SOL    HW170008   4.804   1.479   7.059  0.2622  0.7438  0.5046
20410SOL    HW270009   4.778   1.617   7.114 -0.4105  0.5825  0.5956
20411SOL     OW70010   3.817  10.677  11.464 -0.2021  0.0479 -0.0405
20411SOL    HW170011   3.810  10.690  11.370  2.6274  2.4405 -0.0682
20411SOL    HW270012   3.731  10.702  11.499 -1.2020 -0.6103 -1.9088
20412SOL     OW70013   2.192   2.939   9.990 -0.3276  0.3093  0.0318
20412SOL    HW170014   2.150   2.971  10.070  2.1495 -1.9152  2.4104
20412SOL    HW270015   2.278   2.982   9.989  0.3962 -1.0984 -0.3844
20413SOL     OW70016   2.759   0.691   8.110  0.0431  0.5627  0.2691
20413SOL    HW170017   2.804   0.630   8.052 -0.1170  0.8038 -0.1126
20413SOL    HW270018   2.754   0.772   8.059  0.4608  0.9628  0.8547
20414SOL     OW70019   0.120   1.258   5.931  0.6477 -0.0627 -0.2963
20414SOL    HW170020   0.030   1.286   5.919  0.8627 -0.0647 -2.1858
20414SOL    HW270021   0.113   1.166   5.957  0.0988 -0.3648 -1.4329
20415SOL     OW70022   0.410  12.089   2.890  0.0087 -0.2524 -0.0341
20415SOL    HW170023   0.442  12.083   2.800  1.2077  1.8241  0.1727
20415SOL    HW270024   0.318  12.115   2.881 -0.2602 -1.3936 -0.6493
20416SOL     OW70025   6.622   0.011   6.315  0.0335 -0.3593 -0.4215
20416SOL    HW170026   6.716   0.015   6.298  0.1893 -0.7769  0.3217
20416SOL    HW270027   6.601   0.094   6.356 -0.0578  0.0148 -1.2016
20417SOL     OW70028   5.148   9.918  12.197 -0.1326  0.7669 -0.2894
20417SOL    HW170029   5.148   9.823  12.186 -0.0358  0.8730 -1.2852
20417SOL    HW270030   5.109   9.932  12.284  0.7754 -0.2157  0.3051
20418SOL     OW70031   2.066   3.089  11.474  0.4148 -0.0441  0.1131
20418SOL    HW170032   2.065   3.049  11.387 -1.2161  1.6832 -0.7460
20418SOL    HW270033   2.156   3.118  11.487  0.4573  0.6700 -1.5337
20419SOL     OW70034   2.934   6.004   4.754  0.0595  0.0873  0.0187
20419SOL    HW170035   3.004   5.942   4.732 -0.7593 -0.9299  0.1554
20419SOL    HW270036   2.870   5.951   4.801  0.6477  1.6792  2.8337
20420SOL     OW70037  11.864   9.749   9.959 -0.0241 -0.0795 -0.4677
20420SOL    HW170038  11.847   9.656   9.975  2.3478 -0.6383 -0.8673
20420SOL    HW270039  11.814   9.794  10.027  1.1937 -1.8358  1.7214
20421SOL     OW70040  10.681   4.900   0.237  0.7433  0.5767  0.4674
20421SOL    HW170041  10.727   4.911   0.320 -0.5045  0.6105  1.1709
20421SOL    HW270042  10.644   4.811   0.241  0.6430  0.5885 -0.0406
20422SOL     OW70043   1.326   3.012   0.158 -0.1447 -0.1776  0.2922
20422SOL    HW170044   1.310   3.103   0.132 -0.7163 -0.3031  0.1991
20422SOL    HW270045   1.241   2.981   0.189  0.3290 -0.2918  1.5167
20423SOL     OW70046  10.660  11.840   9.828 -0.1179  0.2013  0.4505
20423SOL    HW170047  10.632  11.755   9.862 -0.1515  0.5849  1.4263
20423SOL    HW270048  10.604  11.904   9.873  0.7980  0.8230  0.7384
20424SOL     OW70049   2.631   1.507  10.277  0.4078  0.4838 -0.1924
20424SOL    HW170050   2.619   1.491  10.370 -0.3225 -2.6969 -0.7323
20424SOL    HW270051   2.546   1.542  10.248  0.4287  0.8678  0.1953
20425SOL     OW70052  11.022  10.396   6.417 -0.2836 -0.2348 -0.4581
20425SOL    HW170053  10.930  10.395   6.444  0.1622 -1.6912  1.2051
20425SOL    HW270054  11.040  10.305   6.393  1.2139 -0.4423  1.2303
20426SOL     OW70055   7.298   7.050  10.457 -0.6759  0.2585 -0.1419
20426SOL    HW170056   7.260   7.136  10.438  1.2258  1.1304 -0.3043
20426SOL    HW270057   7.266   6.993  10.387  0.0120  1.4980 -1.5233
20427SOL     OW70058   0.044   8.046  10.855  0.6115 -0.1854  0.3451
20427SOL    HW170059   0.102   8.116  10.826 -0.0007  0.1140 -0.1611
20427SOL    HW270060   0.089   8.009  10.932  0.6202  1.1970  1.0437
20428SOL     OW70061   2.490   1.492   4.373 -0.1847  0.3418  0.5171
20428SOL    HW170062   2.409   1.528   4.407 -1.5515 -0.1913 -1.9582
20428SOL    HW270063   2.544   1.569   4.352 -0.9963  0.7948  0.0585
20429SOL     OW70064   9.541   9.162  10.415 -0.8785  0.1099 -0.3603
20429SOL    HW170065   9.631   9.130  10.403 -0.1543  1.6680  0.6099
20429SOL    HW270066   9.498   9.094  10.466 -0.2477 -0.6483 -0.8162
20430SOL     OW70067  10.884   1.668   0.623 -0.7590 -0.4857 -0.2054
20430SOL    HW170068  10.830   1.625   0.689  0.8406 -0.5957  1.0983
20430SOL    HW270069  10.875   1.613   0.545 -1.8500 -0.9484  0.2240
20431SOL     OW70070  11.901   0.027   8.121  0.0058 -0.1398  0.2496
20431SOL    HW170071  11.828   0.070   8.077 -0.1600  0.7738  1.3781
20431SOL    HW270072  11.978   0.078   8.096  0.0176 -0.0838  0.3976
20432SOL     OW70073   8.148  12.264   3.341 -0.2513 -0.0472  0.0991
20432SOL    HW170074   8.145  12.172   3.367 -2.0120 -0.2324 -0.6303
20432SOL    HW270075   8.087  12.270   3.267 -0.6440  1.8114  0.5257
20433SOL     OW70076   4.093  10.360   6.995 -0.5447 -0.8235  0.5893
20433SOL    HW170077   4.098  10.265   7.012 -0.9648 -0.9817 -0.1478
20433SOL    HW270078   4.099  10.399   7.082  2.7916 -1.3603  0.7319
20434SOL     OW70079   0.813   8.337   0.648 -0.0192 -0.3302 -0.1159
20434SOL    HW170080   0.891   8.354   0.595 -0.1898 -0.5009 -0.4284
20434SOL    HW270081   0.821   8.245   0.674 -0.3068 -0.4613 -0.4766
20435SOL     OW70082   5.543   8.106   3.731  0.3289  0.6638  0.2065
20435SOL    HW170083   5.488   8.028   3.725 -0.1580  0.9429  0.9219
20435SOL    HW270084   5.633   8.072   3.723  0.0772  0.1564 -0.5074
20436SOL     OW70085   1.682   2.980   7.070 -0.3671  0.3798 -0.2253
20436SOL    HW170086   1.631   3.051   7.110  0.7631  0.6367  0.8209
20436SOL    HW270087   1.733   3.023   7.002 -0.1049  0.4703  0.0279
20437SOL     OW70088   2.737  12.113   0.382  0.1841 -0.4688  0.1612
20437SOL    HW170089   2.826  12.118   0.348 -0.0213  1.8266 -0.1764
20437SOL    HW270090   2.744  12.144   0.473 -0.1793 -0.8997  0.3400
20438SOL     OW70091   5.528   7.662   8.603  0.4230  0.2274 -0.1015
20438SOL    HW170092   5.604   7.679   8.659  0.9947  1.5237 -1.2153
20438SOL    HW270093   5.542   7.718   8.527 -1.3707  0.0468 -0.5931
20439SOL     OW70094   9.762   8.868  11.492 -0.4748 -0.4521  0.2407
20439SOL    HW170095   9.806   8.873  11.407 -0.1727 -1.5190  0.3274
20439SOL    HW270096   9.828   8.832  11.551 -0.2076  1.6025  1.2792
20440SOL     OW70097   4.536   2.337   7.080  0.1431  0.1010  0.0151
20440SOL    HW170098   4.494   2.250   7.087  0.5814 -0.0766  0.5291
20440SOL    HW270099   4.465   2.399   7.096 -0.0443 -0.1857  0.3105
20441SOL     OW70100   1.481   1.794   9.026  0.0578 -0.6366 -0.2312
20441SOL    HW170101   1.434   1.875   9.041 -0.8274 -1.0990 -0.4237
20441SOL    HW270102   1.574   1.817   9.033 -0.1750  0.4498 -0.6374
20442SOL     OW70103  12.509   6.904   2.034 -0.2860  0.0427 -0.0285
20442SOL    HW170104  12.482   6.995   2.034 -0.9729 -0.1564 -0.4856
20442SOL    HW270105  12.604   6.907   2.024 -0.2595  0.7153  0.3952
20443SOL     OW70106   3.454   7.999   3.817 -0.2178  0.2821  0.3515
20443SOL    HW170107   3.421   7.918   3.777  0.3243 -0.0514  0.5700
20443SOL    HW270108   3.516   8.033   3.753 -2.3314  1.9401 -0.9602
20444SOL     OW70109   7.438   1.024  10.262 -0.2024 -0.0155 -0.1727
20444SOL    HW170110   7.508   1.001  10.323  0.7610  0.7870 -0.9424
20444SOL    HW270111   7.478   1.086  10.201 -0.8871 -1.3814 -2.1236
20445SOL     OW70112   5.933  11.354   0.697 -0.0142  0.0259  0.2214
20445SOL    HW170113   5.885  11.402   0.630 -0.7019 -0.1982  0.5433
20445SOL    HW270114   5.883  11.273   0.710  2.2103 -1.8475 -1.8013
20446SOL     OW70115   7.644  10.239   4.034 -0.1872 -1.1073 -0.4889
20446SOL    HW170116   7.708  10.256   4.102 -1.0653  0.3591  0.0221
20446SOL    HW270117   7.562  10.222   4.081 -1.9138  4.1356 -0.9293
20447SOL     OW70118  12.293  10.943   2.924  0.1520  0.1922 -0.3948
20447SOL    HW170119  12.296  10.982   2.836  0.0849  0.5467 -0.2455
20447SOL    HW270120  12.384  10.928   2.947  0.1165 -1.3191 -1.1302
20448SOL     OW70121   4.086   8.726   6.686  0.3473  0.0454  0.5791
20448SOL    HW170122   4.032   8.801   6.659  2.1735  1.5483  0.9441
20448SOL    HW270123   4.026   8.671   6.737 -1.1557  1.0179 -0.0523
20449SOL     OW70124   5.826  11.549   1.790  0.0033 -0.0894 -0.4189
20449SOL    HW170125   5.906  11.497   1.791 -0.6216 -1.0627  0.0905
20449SOL    HW270126   5.773  11.514   1.861 -0.4069  1.3226  0.0077
20450SOL     OW70127   3.365   3.728   0.583  0.4521  0.2819  0.3915
20450SOL    HW170128   3.275   3.736   0.552  0.9482  0.7210 -1.0604
20450SOL    HW270129   3.410   3.681   0.512  1.2275 -0.5065  1.3866
20451SOL     OW70130  10.060   3.940  11.073 -0.1907 -0.1065 -0.0418
20451SOL    HW170131  10.045   4.005  11.004 -0.7563  0.7814  0.8971
20451SOL    HW270132  10.047   3.855  11.029  1.3335  0.3506 -1.4737
20452SOL     OW70133  11.948   5.689   1.417 -0.1552 -0.2179  0.1969
20452SOL    HW170134  11.894   5.642   1.354  0.6258 -0.1271 -0.5581
20452SOL    HW270135  11.890   5.705   1.491 -1.4202  0.6062 -0.9270
20453SOL     OW70136   0.476   6.747   4.775  0.6004 -0.3615 -0.7816
20453SOL    HW170137   0.568   6.721   4.782  0.5093 -0.3293  1.3451
20453SOL    HW270138   0.479   6.836   4.739  1.3801 -0.4822 -1.0331
20454SOL     OW70139   4.020   4.750   5.498 -0.8674 -0.5436 -0.1617
20454SOL    HW170140   4.077   4.814   5.540 -0.1117 -1.3864  0.1375
20454SOL    HW270141   4.061   4.665   5.518 -1.8296 -1.1166 -0.5612
20455SOL     OW70142  12.408   7.704  10.700 -0.0168  0.7354  0.0412
20455SOL    HW170143  12.414   7.660  10.785 -0.3851 -0.0355 -0.3199
20455SOL    HW270144  12.323   7.748  10.702 -0.5083 -0.1707 -0.3277
20456SOL     OW70145   3.309   7.995   5.152 -0.3970 -0.5054  0.2250
20456SOL    HW170146   3.219   7.969   5.170 -1.1554  0.1615 -2.2554
20456SOL    HW270147   3.319   8.081   5.194 -1.2104 -0.1730 -0.2551
20457SOL     OW70148   2.315   2.298   0.817 -0.0770 -0.5219  0.3893
20457SOL    HW170149   2.396   2.348   0.809  0.6439 -1.6618  0.2809
20457SOL    HW270150   2.250   2.348   0.767  1.3317 -1.2201 -2.3170
20458SOL     OW70151  10.798   6.626   3.855 -0.3481 -0.3919  0.0722
20458SOL    HW170152  10.763   6.578   3.779  1.1638 -1.1900 -0.1621
20458SOL    HW270153  10.889   6.597   3.861 -0.1880  0.3684  1.6452
20459SOL     OW70154   7.979   0.496   5.246  0.5580 -0.2419  0.5045
20459SOL    HW170155   7.940   0.547   5.317  0.2572 -0.9582  0.8583
20459SOL    HW270156   7.926   0.516   5.170 -0.3068 -0.9434  0.9078
20460SOL     OW70157   3.851   1.520   3.866  0.1694 -0.4313 -0.0097
20460SOL    HW170158   3.831   1.471   3.787 -2.1649  0.9506 -0.3718
20460SOL    HW270159   3.919   1.582   3.839  0.8919 -1.3670 -0.3623
20461SOL     OW70160   0.424   2.007   3.906 -0.5880  0.1205 -0.5627
20461SOL    HW170161   0.447   2.043   3.992 -0.0532 -1.4580  0.0037
20461SOL    HW270162   0.465   1.920   3.905 -3.6368 -1.4597 -0.8966
20462SOL     OW70163  11.459   3.783   1.151  0.3246  0.3307 -0.1277
20462SOL    HW170164  11.444   3.737   1.069  1.6232 -1.7896  0.7380
20462SOL    HW270165  11.555   3.788   1.159  0.2434 -0.0570  1.5155
20463SOL     OW70166  12.552   4.958   6.709  0.5729  0.1213  0.3495
20463SOL    HW170167  12.461   4.970   6.684  1.0404  1.0700 -1.0404
20463SOL    HW270168  12.561   5.003   6.793 -0.0545  0.7028  0.1072
20464SOL     OW70169   0.676  10.982   6.511  0.4035  0.1851 -0.4956
20464SOL    HW170170   0.673  10.887   6.525  1.2070  0.3839  1.4293
20464SOL    HW270171   0.747  10.995   6.448  1.0137 -0.4388  0.0474
20465SOL     OW70172   7.226   1.576   3.553 -0.2063 -0.5273 -0.3874
20465SOL    HW170173   7.314   1.580   3.591 -0.5714 -0.5589  0.4828
20465SOL    HW270174   7.199   1.485   3.566 -1.0911 -0.0901  1.0554
20466SOL     OW70175   9.469  11.358  12.472  0.7963  0.2964 -0.4208
20466SOL    HW170176   9.541  11.351  12.535 -0.4827 -0.1446  1.0525
20466SOL    HW270177   9.400  11.405  12.520 -0.9877 -1.8535 -0.7119
20467SOL     OW70178   7.532   5.370   0.587  0.4245 -0.2978 -0.4111
20467SOL    HW170179   7.546   5.427   0.512  2.2929  0.2090  0.2720
20467SOL    HW270180   7.483   5.423   0.649  0.3275 -0.1511 -0.6131
20468SOL     OW70181   1.261   0.095   6.527  0.0284  0.1213  0.0746
20468SOL    HW170182   1.238   0.077   6.435 -2.6259  1.6606  0.3202
20468SOL    HW270183   1.243   0.013   6.573 -0.2078 -0.1920 -0.5601
20469SOL     OW70184   8.734   6.491   5.375  0.1431  0.5361 -0.8179
20469SOL    HW170185   8.732   6.449   5.289  0.7795  0.0570 -0.6115
20469SOL    HW270186   8.718   6.583   5.357 -0.2874  0.3573 -1.3890
20470SOL     OW70187   8.746   7.176   0.715  0.1789  0.1558 -0.0391
20470SOL    HW170188   8.679   7.205   0.653  0.5653  3.1635  0.7751
20470SOL    HW270189   8.825   7.168   0.663  0.0605  0.6841 -0.3109
20471SOL     OW70190  10.192   7.233   8.640  0.1608 -0.0404 -0.1515
20471SOL    HW170191  10.119   7.285   8.676  1.6880  0.6236  2.1950
20471SOL    HW270192  10.204   7.162   8.703  0.5537 -1.0529 -1.3470
20472SOL     OW70193   6.883   5.080   6.379  0.6474  0.4633  0.1873
20472SOL    HW170194   6.933   5.004   6.348 -1.5840 -0.9874 -0.0605
20472SOL    HW270195   6.831   5.107   6.303 -1.1592  0.0239  1.2190
20473SOL     OW70196   2.396   3.661  12.111  0.2729 -0.0416 -0.0163
20473SOL    HW170197   2.368   3.702  12.193 -0.7185  1.1682 -0.9303
20473SOL    HW270198   2.459   3.722  12.074  0.5416 -0.4755 -0.2830
20474SOL     OW70199   1.491   4.853   9.608  0.4226 -0.3367  0.5020
20474SOL    HW170200   1.557   4.860   9.539  0.2960  1.5026  0.5122
20474SOL    HW270201   1.502   4.932   9.660 -1.7366  0.0011  0.5402
20475SOL     OW70202   3.368  12.238  10.796 -0.2419  0.1614 -0.2638
20475SOL    HW170203   3.425  12.212  10.868  0.5190 -1.4234 -1.3642
20475SOL    HW270204   3.404  12.320  10.764 -0.2064  0.5458  0.7436
20476SOL     OW70205  10.983   3.062   4.916 -0.5961 -0.2026 -0.0712
20476SOL    HW170206  10.980   2.968   4.937 -0.8600 -0.2817 -0.4536
20476SOL    HW270207  10.897   3.095   4.941  0.1974  0.4093  2.1469
20477SOL     OW70208  10.260  12.258   7.585 -0.1033  0.0856 -0.0226
20477SOL    HW170209  10.323  12.194   7.552  0.3516  0.3595  0.2980
20477SOL    HW270210  10.281  12.339   7.538  0.2369  0.3555  0.5833
20478SOL     OW70211   9.345   6.170   6.086 -0.3727 -0.0733  0.2935
20478SOL    HW170212   9.410   6.100   6.092  0.5172  0.4320 -2.3125
20478SOL    HW270213   9.265   6.125   6.057 -0.7765 -0.4455  1.8842
20479SOL     OW70214   3.144  11.497  10.049 -0.4263 -0.1862 -0.0651
20479SOL    HW170215   3.238  11.493  10.035 -0.4824 -0.4113 -0.4122
20479SOL    HW270216   3.134  11.533  10.137 -0.0893  2.9523 -1.2028
20480SOL     OW70217  11.381   6.848   2.770 -0.4394 -0.6116 -0.0496
20480SOL    HW170218  11.432   6.777   2.810 -0.5077 -0.0958  0.9925
20480SOL    HW270219  11.446   6.902   2.725  0.1551  0.6488  2.1755
20481SOL     OW70220   1.136   9.202   5.404 -0.2188  0.1973  0.0141
20481SOL    HW170221   1.079   9.131   5.374 -0.5432  0.7175 -0.6220
20481SOL    HW270222   1.208   9.158   5.449 -0.1418 -0.5608 -0.8390
20482SOL     OW70223   2.173   4.199  10.231  0.0446 -0.0902 -0.0469
20482SOL    HW170224   2.100   4.261  10.234  1.1964  1.3796 -1.1540
20482SOL    HW270225   2.237   4.234  10.293  2.2348  1.9666 -3.2225
20483SOL     OW70226   4.145   4.214  10.195  0.3499 -0.2252 -0.4527
20483SOL    HW170227   4.135   4.119  10.202 -0.0260 -0.5107 -3.3558
20483SOL    HW270228   4.059   4.244  10.164  0.4693  1.0834  0.4136
20484SOL     OW70229   6.895   0.122   4.924 -0.2599 -0.0414  0.4432
20484SOL    HW170230   6.834   0.080   4.863 -0.2180 -0.1618  0.4844
20484SOL    HW270231   6.923   0.051   4.982 -1.2360  0.2986  1.3775
20485SOL     OW70232   8.219   5.241   9.272  0.4350 -0.3082 -0.1776
20485SOL    HW170233   8.193   5.167   9.216  1.1005  0.6367 -1.7846
20485SOL    HW270234   8.312   5.254   9.253  0.7601 -0.1169  1.3784
20486SOL     OW70235   7.417   3.145   4.811  0.3113 -0.4359  0.6435
20486SOL    HW170236   7.371   3.148   4.727 -0.5024  0.7161  1.1080
20486SOL    HW270237   7.503   3.181   4.793 -0.1575  0.6379  0.4628
20487SOL     OW70238   7.065   6.754   2.527 -0.4103 -0.1943  0.3110
20487SOL    HW170239   6.970   6.765   2.523 -0.2423  1.0201 -2.6661
20487SOL    HW270240   7.087   6.703   2.449  1.3652 -1.2256  1.3819
20488SOL     OW70241   4.320   7.002   0.097 -0.2809  0.6600  0.2858
20488SOL    HW170242   4.250   6.995   0.032  0.1216  0.1700 -0.1124
20488SOL    HW270243   4.291   6.948   0.170 -0.3587  0.5223  0.1535
20489SOL     OW70244  12.121   0.572   2.118  0.1262  0.0015  0.1119
20489SOL    HW170245  12.102   0.479   2.111 -0.4063  0.1349 -0.3884
20489SOL    HW270246  12.170   0.582   2.199  1.0820 -0.8518 -0.3493
20490SOL     OW70247  11.396   1.744   0.267 -0.0993  0.0321 -0.3439
20490SOL    HW170248  11.423   1.754   0.359 -1.2682  2.1743 -0.1795
20490SOL    HW270249  11.303   1.722   0.272  0.2658 -1.8228 -1.0177
20491SOL     OW70250   9.319  11.212  12.033 -0.0677  0.5360  0.0696
20491SOL    HW170251   9.371  11.209  11.953  2.8215 -0.7317  1.8267
20491SOL    HW270252   9.261  11.136  12.027 -0.1470  0.6668 -0.9596
20492SOL     OW70253   3.746   9.601   6.089 -0.6095  0.3789 -0.7597
20492SOL    HW170254   3.773   9.647   6.010 -1.3183  0.0853 -1.1737
20492SOL    HW270255   3.738   9.671   6.155 -0.2891  0.6559 -1.0093
20493SOL     OW70256  12.171   5.973   8.614  0.3229 -0.0976 -0.0757
20493SOL    HW170257  12.243   5.913   8.596  0.9119  0.7670 -0.5896
20493SOL    HW270258  12.171   6.035   8.542  1.1224  1.8759  1.5405
20494SOL     OW70259   2.041   1.580   4.942 -0.2982  0.2450 -0.3198
20494SOL    HW170260   2.003   1.668   4.946 -0.5985  0.1230 -0.4521
20494SOL    HW270261   1.987   1.533   4.878  1.1234  0.5741 -1.8451
20495SOL     OW70262   6.008  12.457   6.531  0.0382 -0.2109 -0.1364
20495SOL    HW170263   5.950  12.520   6.573  0.3982 -0.8003  1.3198
20495SOL    HW270264   6.075  12.510   6.489 -1.3827  0.4677 -1.6384
20496SOL     OW70265   9.235   0.995  11.789 -0.2400  0.0592 -0.0924
20496SOL    HW170266   9.205   1.083  11.765 -0.2753  0.6519  1.9920
20496SOL    HW270267   9.222   0.943  11.709 -0.0485  1.9611 -1.4358
20497SOL     OW70268   1.027   1.444   6.365 -0.1237 -0.4047 -0.2222
20497SOL    HW170269   1.058   1.460   6.454  0.3862  1.0100 -0.6210
20497SOL    HW270270   0.935   1.472   6.366 -0.3896 -1.2681  0.0801
20498SOL     OW70271   1.975  10.153  12.217 -0.2811 -0.0835  0.7421
20498SOL    HW170272   1.970  10.060  12.237 -0.3511 -0.0045  1.0980
20498SOL    HW270273   2.066  10.167  12.190 -0.7093 -0.6026 -1.1043
20499SOL     OW70274   0.217  11.192   8.615 -0.2473 -0.3718 -0.5937
20499SOL    HW170275   0.189  11.279   8.644  1.2699  0.0783 -0.3738
20499SOL    HW270276   0.144  11.134   8.637 -0.5994  0.5638  0.8388
20500SOL     OW70277   2.963   7.416  12.239  0.5179 -0.0089 -0.1314
20500SOL    HW170278   2.994   7.490  12.291  1.1254 -0.3538  0.0015
20500SOL    HW270279   3.039   7.359  12.230 -0.5699 -2.0104  2.1312
20501SOL     OW70280  10.707   7.359   3.919  0.3822 -0.0021 -0.3435
20501SOL    HW170281  10.780   7.396   3.969  0.0284 -2.1403  1.9227
20501SOL    HW270282  10.643   7.332   3.985 -2.4727  1.5691 -2.2203
20502SOL     OW70283  10.440  10.344   0.755  0.1955  0.0700 -0.2234
20502SOL    HW170284  10.509  10.305   0.809 -0.9593  1.7265  2.7175
20502SOL    HW270285  10.359  10.307   0.790 -0.6411  1.8269 -0.1809
20503SOL     OW70286   1.703   0.515   8.927  0.8240  0.1370 -0.1076
20503SOL    HW170287   1.609   0.504   8.942  0.8746 -0.6419 -0.3311
20503SOL    HW270288   1.732   0.572   8.999 -0.1149  1.8180 -1.0126
20504SOL     OW70289   5.079   7.225  10.749  0.1316 -0.7871 -0.0326
20504SOL    HW170290   5.132   7.219  10.828  2.2064  0.1475 -1.2911
20504SOL    HW270291   5.039   7.313  10.754  2.0063  0.1769 -1.0043
20505SOL     OW70292  11.054  12.385   8.602 -0.2986 -0.1117  0.2894
20505SOL    HW170293  10.960  12.364   8.608  0.2766 -3.5725 -0.4202
20505SOL    HW270294  11.057  12.470   8.559 -3.1099  0.3077  0.7305
20506SOL     OW70295   9.542   9.986  11.618 -0.0543 -1.0739  0.1674
20506SOL    HW170296   9.558  10.021  11.706  0.5810  0.4775 -0.5241
20506SOL    HW270297   9.623  10.004  11.571  0.0014 -2.8249 -0.4748
20507SOL     OW70298   5.076   9.460   6.032  0.0783  0.5133  0.0595
20507SOL    HW170299   5.087   9.511   6.112  1.8420  0.1303  0.1072
20507SOL    HW270300   5.047   9.374   6.062  0.9621  0.2972  0.3276
20508SOL     OW70301   8.629   1.161   3.279  0.1936  0.8414 -0.3861
20508SOL    HW170302   8.637   1.078   3.327 -2.7199 -0.0330 -1.1781
20508SOL    HW270303   8.596   1.223   3.345 -0.8432  0.4495 -0.5160
20509SOL     OW70304  11.674   6.153   5.096  0.2631 -0.0468  0.1656
20509SOL    HW170305  11.680   6.062   5.065  1.4535  0.2322 -0.4616
20509SOL    HW270306  11.677   6.206   5.016  2.3149  0.6390  0.6382
20510SOL     OW70307   3.586   6.463   3.383  0.0111  0.4275  0.1096
20510SOL    HW170308   3.537   6.492   3.306 -2.2880 -0.1780  1.2710
20510SOL    HW270309   3.620   6.377   3.359 -1.9501 -0.4229  0.2387
20511SOL     OW70310   4.545  10.031   4.709  0.3444 -0.4198 -0.5863
20511SOL    HW170311   4.619  10.021   4.770 -0.7534 -1.0569  0.7101
20511SOL    HW270312   4.537   9.945   4.667  1.8430  0.3551 -2.5910
20512SOL     OW70313   8.142   3.660   7.092  0.1534  0.1273 -0.0687
20512SOL    HW170314   8.094   3.687   7.170  0.2461 -0.2958  0.1409
20512SOL    HW270315   8.147   3.564   7.100  1.5807  0.2010  0.2561
20513SOL     OW70316   8.770   0.253   6.383  0.3431  0.2638  0.7157
20513SOL    HW170317   8.863   0.247   6.363  0.3271 -0.5448  0.8321
20513SOL    HW270318   8.757   0.343   6.413  1.0776  0.3855  0.6868
20514SOL     OW70319   3.060   5.270   1.752 -0.2043 -0.0798 -0.1588
20514SOL    HW170320   3.134   5.317   1.793  1.9703 -1.3950 -2.3088
20514SOL    HW270321   3.087   5.178   1.754 -0.7320 -0.3653 -2.9339
20515SOL     OW70322   0.981  12.282   0.920  0.8638 -0.2273  0.7923
20515SOL    HW170323   0.901  12.335   0.918  0.6030 -0.6213  0.7127
20515SOL    HW270324   1.010  12.280   0.829  1.1764  0.2305  0.8780
20516SOL     OW70325   3.885   4.488   5.775  0.4915 -0.3533 -0.2767
20516SOL    HW170326   3.818   4.512   5.711  0.3238  1.0618  0.3758
20516SOL    HW270327   3.841   4.496   5.859  1.6402  1.3984  0.2203
20517SOL     OW70328   3.761  12.540   2.547 -0.1365  0.2031 -0.0678
20517SOL    HW170329   3.852  12.568   2.547  0.5337 -1.7933  1.1171
20517SOL    HW270330   3.764  12.448   2.523 -1.9416  0.2815 -0.7548
20518SOL     OW70331   5.859   6.049   0.060 -0.1313 -0.0453 -0.8135
20518SOL    HW170332   5.910   6.071  -0.017  1.0501  1.8775  0.4421
20518SOL    HW270333   5.863   5.953   0.066 -0.1778 -0.2249 -3.0274
20519SOL     OW70334  10.690   8.606   0.007  0.2497 -0.1611  0.1299
20519SOL    HW170335  10.727   8.624   0.093 -0.4408  0.5600  0.2809
20519SOL    HW270336  10.763   8.619  -0.054  0.8320 -1.0327  0.6322
20520SOL     OW70337   7.399  12.359   8.308 -0.2071 -0.4371  0.1932
20520SOL    HW170338   7.445  12.396   8.233 -1.6813  1.3820  0.1261
20520SOL    HW270339   7.403  12.427   8.375 -2.6647 -0.2125  0.1971
20521SOL     OW70340  10.798   8.976   3.447  0.1169  0.6499 -0.0963
20521SOL    HW170341  10.779   9.068   3.464 -1.6165  0.4554 -0.7720
20521SOL    HW270342  10.718   8.941   3.409  0.7387 -1.1526  0.1257
20522SOL     OW70343   3.220  10.990   4.403 -0.1014  0.2474 -0.0306
20522SOL    HW170344   3.224  10.960   4.493  1.1189  0.9387  0.1658
20522SOL    HW270345   3.273  11.069   4.401  0.9725 -0.4506 -1.6063
20523SOL     OW70346   9.427   6.400   7.171 -0.0212 -0.0486  0.4665
20523SOL    HW170347   9.421   6.307   7.192 -1.2404  0.0123  0.5037
20523SOL    HW270348   9.512   6.410   7.128 -0.4775 -1.4676 -0.8787
20524SOL     OW70349   4.235   3.257   9.609  0.0262 -0.0875  0.1356
20524SOL    HW170350   4.267   3.323   9.672  0.0258  0.5926 -0.5632
20524SOL    HW270351   4.172   3.304   9.555  0.9680 -0.3066 -1.2135
20525SOL     OW70352   5.757  11.922   0.217 -0.4570  0.5175 -0.3509
20525SOL    HW170353   5.827  11.862   0.245 -1.3787 -1.2272 -1.5767
20525SOL    HW270354   5.746  11.981   0.291 -0.2511 -1.5563  1.4496
20526SOL     OW70355   2.513  11.401   0.307  0.7625 -0.1505 -0.2069
20526SOL    HW170356   2.485  11.323   0.354  0.7988  0.5116  0.9345
20526SOL    HW270357   2.474  11.391   0.220 -0.4817 -0.7187  0.3835
20527SOL     OW70358  11.518   1.177   5.340  0.0357  0.2034  0.1847
20527SOL    HW170359  11.457   1.187   5.414  1.4996  1.5082  1.2914
20527SOL    HW270360  11.470   1.123   5.277 -1.9204  0.4434  1.3575
20528SOL     OW70361   8.792   0.749   8.553 -0.4901 -0.2206  0.1945
20528SOL    HW170362   8.879   0.788   8.542 -1.4705  1.7115 -1.4470
20528SOL    HW270363   8.760   0.785   8.636 -0.2288  0.1211  0.1490
20529SOL     OW70364  11.089   9.424   4.083 -0.2844 -0.0884  0.3099
20529SOL    HW170365  11.045   9.370   4.149 -0.9322  0.1184  0.0584
20529SOL    HW270366  11.161   9.465   4.130 -0.7439  0.0656  0.8937
20530SOL     OW70367   3.963   7.102   1.705  0.6518  0.2254 -0.3733
20530SOL    HW170368   3.996   7.188   1.678  2.2990 -0.2511 -0.0501
20530SOL    HW270369   4.035   7.042   1.684  0.4324 -0.7335  1.3821
20531SOL     OW70370   3.512   6.798   0.102 -0.3623 -0.1430  0.9665
20531SOL    HW170371   3.429   6.801   0.054  0.4305 -0.2691 -0.4708
20531SOL    HW270372   3.566   6.865   0.060  1.3391 -2.1727 -0.2971
20532SOL     OW70373   4.884  11.180   2.102  0.0773 -1.0117 -0.0548
20532SOL    HW170374   4.800  11.167   2.146 -0.0433  0.6886  0.2723
20532SOL    HW270375   4.862  11.219   2.018  0.5794  2.5157  1.2655
20533SOL     OW70376   7.669   2.668   0.682 -0.4073  0.1946 -0.0815
20533SOL    HW170377   7.632   2.649   0.768 -1.0485  0.5606 -0.2787
20533SOL    HW270378   7.629   2.603   0.624 -0.6052  0.4736 -0.2593
20534SOL     OW70379   5.483   4.503   8.349  0.0626 -0.0160 -0.1017
20534SOL    HW170380   5.531   4.488   8.268  1.6741  0.0618  0.7897
20534SOL    HW270381   5.487   4.598   8.362  0.5747 -0.1156  0.5037
20535SOL     OW70382   3.069   2.302  11.256 -0.3168  0.9466  0.2647
20535SOL    HW170383   2.988   2.306  11.307 -0.2974  1.7986  0.2394
20535SOL    HW270384   3.120   2.232  11.298  0.4869  2.8051  2.6381
20536SOL     OW70385   3.666  11.808   9.478 -0.0353 -0.5020  0.6341
20536SOL    HW170386   3.578  11.779   9.504 -0.9276  0.1992 -1.3856
20536SOL    HW270387   3.651  11.869   9.406  2.1930 -2.6267 -1.8314
20537SOL     OW70388   9.335   4.513   8.197  0.4973 -0.2020  0.4244
20537SOL    HW170389   9.354   4.433   8.247 -0.9941 -2.1756 -1.9850
20537SOL    HW270390   9.264   4.555   8.245  0.2792 -1.1200  0.9338
20538SOL     OW70391   6.414   8.774   5.962 -0.3598 -0.1040  0.3733
20538SOL    HW170392   6.506   8.749   5.967 -0.3984 -1.2457 -2.4906
20538SOL    HW270393   6.412   8.839   5.892 -1.7016  0.0605  0.5539
20539SOL     OW70394   0.398   6.342   4.969  0.0174 -0.3162  0.3324
20539SOL    HW170395   0.360   6.311   4.887  0.2732  0.4381 -0.0752
20539SOL    HW270396   0.392   6.437   4.964  1.1712 -0.2112  0.6306
20540SOL     OW70397  12.490   8.039   5.398  0.0719  0.0459  0.1056
20540SOL    HW170398  12.427   8.013   5.330 -1.5465  1.9693  0.7571
20540SOL    HW270399  12.436   8.053   5.475  1.8054 -1.5976  1.7357
20541SOL     OW70400  12.036  11.667   7.544 -0.6052 -0.2458 -0.3858
20541SOL    HW170401  12.057  11.709   7.628 -0.0532 -1.6047  0.1920
20541SOL    HW270402  11.946  11.691   7.527 -1.4462 -1.5930  1.6759
20542SOL     OW70403   7.572  10.229   0.758 -0.7482  0.1432 -0.3065
20542SOL    HW170404   7.630  10.258   0.687  0.2975  2.0341  1.2430
20542SOL    HW270405   7.616  10.257   0.838 -3.1449  0.3891  0.9939
20543SOL     OW70406  10.947   8.887   1.089  0.3988 -0.3253  0.2066
20543SOL    HW170407  10.968   8.969   1.134 -0.4094 -0.4659  0.8417
20543SOL    HW270408  10.896   8.837   1.152 -1.1866 -0.3212 -1.0231
20544SOL     OW70409   6.479   3.329   0.847  0.0499  0.2245 -0.5013
20544SOL    HW170410   6.550   3.381   0.883  0.3656 -0.7413  0.3146
20544SOL    HW270411   6.415   3.324   0.918 -0.5252  0.5165 -0.9958
20545SOL     OW70412   8.780   9.249  11.876  0.6716  0.3725 -0.3202
20545SOL    HW170413   8.698   9.291  11.903  0.8216  0.3178  0.2369
20545SOL    HW270414   8.848   9.314  11.897  0.8081  0.2628 -0.4198
20546SOL     OW70415   4.290   6.064  11.827  0.9837  0.2422  0.1976
20546SOL    HW170416   4.208   6.099  11.863  0.7009  2.0766 -1.9466
20546SOL    HW270417   4.262   6.011  11.752  1.7013  3.1529 -2.3332
20547SOL     OW70418   2.576   9.678   3.187 -0.2894 -0.1515 -0.0033
20547SOL    HW170419   2.508   9.673   3.119 -0.8284  0.6958  0.4500
20547SOL    HW270420   2.526   9.686   3.269  0.3597 -0.1682  0.3966
20548SOL     OW70421   4.300  10.167   8.359 -0.1231  0.4687  0.4439
20548SOL    HW170422   4.246  10.132   8.288 -0.2101  2.3512 -0.4875
20548SOL    HW270423   4.271  10.120   8.437  0.6619 -2.4124 -0.8660
20549SOL     OW70424   9.578   0.955   4.679 -0.8244 -0.4282  0.5075
20549SOL    HW170425   9.520   1.023   4.713 -0.1005 -0.0907  1.1120
20549SOL    HW270426   9.656   0.960   4.736 -0.0563 -0.6200 -0.5055
20550SOL     OW70427   1.709   7.077   3.778  0.1636 -0.6012 -0.2157
20550SOL    HW170428   1.626   7.030   3.763  0.6127 -1.0439 -1.4127
20550SOL    HW270429   1.751   7.029   3.849 -0.0627 -1.1107 -0.4220
20551SOL     OW70430  12.503   2.564   1.860 -0.2521 -0.0670  0.2673
20551SOL    HW170431  12.535   2.630   1.799 -0.8840  1.3164  1.3870
20551SOL    HW270432  12.574   2.550   1.922  0.0717 -0.8418 -0.2611
20552SOL     OW70433   9.022   5.623   3.229 -0.2179 -0.2444 -0.0554
20552SOL    HW170434   9.074   5.648   3.152 -1.7100  0.5079 -0.8530
20552SOL    HW270435   9.071   5.550   3.267  2.2657  1.4094  0.1724
20553SOL     OW70436   8.692   7.057  11.250  0.0016 -0.4864  0.0942
20553SOL    HW170437   8.759   7.093  11.308  0.1532 -2.5330  1.3223
20553SOL    HW270438   8.609   7.083  11.290  0.1011 -0.9234  0.5919
20554SOL     OW70439   6.432   5.437   9.655 -0.0680 -0.5511 -0.2467
20554SOL    HW170440   6.521   5.434   9.689 -0.2068 -0.2210  0.1641
20554SOL    HW270441   6.411   5.531   9.653 -0.1659 -0.5893 -0.9755
20555SOL     OW70442   0.611   2.563   3.879  0.4222  0.1876 -0.8503
20555SOL    HW170443   0.685   2.509   3.851  0.4345 -0.2762  0.0419
20555SOL    HW270444   0.594   2.536   3.969 -0.7790  0.3492 -1.0037
20556SOL     OW70445   3.470   0.525   6.912  0.0055 -0.2932 -0.0069
20556SOL    HW170446   3.536   0.480   6.860  1.6106  1.3528  0.5005
20556SOL    HW270447   3.502   0.615   6.919 -0.7828 -0.1321  2.7202
20557SOL     OW70448   8.138   3.832   4.593  0.3778  0.3604  0.0787
20557SOL    HW170449   8.113   3.901   4.655  0.9754 -0.1722  0.9487
20557SOL    HW270450   8.060   3.816   4.541  0.0273  1.2181  0.3254
20558SOL     OW70451   7.945   8.904   7.663 -0.6244 -0.3396 -0.0710
20558SOL    HW170452   7.989   8.980   7.625 -0.9531 -0.6547 -1.0978
20558SOL    HW270453   7.983   8.829   7.618 -1.4647 -0.6789 -0.2245
20559SOL     OW70454   0.515   2.445  11.394  0.6238  0.1260  0.4417
20559SOL    HW170455   0.508   2.370  11.453 -0.4099  0.6515  1.0258
20559SOL    HW270456   0.426   2.456  11.359  1.0157  0.3898 -0.5085
20560SOL     OW70457  10.794  11.511   5.869 -0.1183  0.2734  0.2177
20560SOL    HW170458  10.819  11.592   5.824 -1.1293 -0.1769 -1.2392
20560SOL    HW270459  10.809  11.442   5.804 -0.6879 -0.5281  0.9164
20561SOL     OW70460   3.673   8.440   3.121 -0.5717  0.0358 -0.7496
20561SOL    HW170461   3.724   8.361   3.102  0.1860 -0.1832  1.8215
20561SOL    HW270462   3.714   8.508   3.068  0.9177 -0.6421 -0.5396
20562SOL     OW70463   5.136  10.678  10.296  0.1532  0.0676 -0.4848
20562SOL    HW170464   5.068  10.705  10.234  0.8058 -1.6265 -2.0422
20562SOL    HW270465   5.214  10.728  10.269 -0.5063  2.5515  1.7403
20563SOL     OW70466   5.961   2.202  10.548 -0.8313 -0.4527  0.3004
20563SOL    HW170467   5.974   2.108  10.550 -1.0020 -0.5504 -1.5024
20563SOL    HW270468   5.881   2.217  10.599  0.1279 -1.0516  2.0526
20564SOL     OW70469  11.104  12.034   2.531 -0.2383  0.1607  0.5276
20564SOL    HW170470  11.161  12.111   2.541  0.2857 -0.2688  0.9216
20564SOL    HW270471  11.159  11.960   2.558 -0.3974 -0.4801 -0.8353
20565SOL     OW70472   5.351   2.305  10.676  0.0158 -0.2136 -0.0310
20565SOL    HW170473   5.289   2.241  10.710 -1.1644  0.8771 -0.0749
20565SOL    HW270474   5.397   2.337  10.753  0.8172 -1.2903 -0.0363
20566SOL     OW70475   3.178  10.727  12.018  0.3399 -0.2208 -0.7618
20566SOL    HW170476   3.186  10.732  11.922  1.5227  0.6687 -0.6405
20566SOL    HW270477   3.264  10.697  12.047 -0.4096 -1.8067 -0.0310
20567SOL     OW70478   6.555  10.381   9.730  0.7555  0.6141  0.0874
20567SOL    HW170479   6.562  10.450   9.795  0.4519  1.3916 -0.6909
20567SOL    HW270480   6.569  10.300   9.779  2.0576  1.2709  0.8428
20568SOL     OW70481  10.782   2.110  10.706 -0.1575 -0.7020  0.3843
20568SOL    HW170482  10.834   2.154  10.774 -0.8264 -0.1403  0.5462
20568SOL    HW270483  10.835   2.119  10.627  0.0937 -0.3150  0.5900
20569SOL     OW70484   6.579   0.584   5.723 -0.0254  0.3933 -0.1157
20569SOL    HW170485   6.610   0.646   5.656  0.0475 -0.4548 -0.8875
20569SOL    HW270486   6.652   0.578   5.784 -0.5558  2.1154  0.7463
20570SOL     OW70487   2.462  10.255   1.550  0.6318  0.2505  0.7359
20570SOL    HW170488   2.398  10.188   1.573  0.2307  0.3662 -0.0219
20570SOL    HW270489   2.463  10.256   1.454 -0.4047  2.2959  0.7009
20571SOL     OW70490   3.821   1.465   6.994 -0.1173  0.3704 -0.6368
20571SOL    HW170491   3.781   1.457   7.081 -0.5422  1.1999 -0.7508
20571SOL    HW270492   3.824   1.375   6.961 -0.7403  0.1483 -0.1146
20572SOL     OW70493  10.262   7.297   1.509  0.4055  0.1731 -0.3059
20572SOL    HW170494  10.254   7.246   1.589  1.4900  1.6056  0.7687
20572SOL    HW270495  10.191   7.361   1.514  0.0673 -0.1523 -0.8339
20573SOL     OW70496   0.661   8.201   6.776  0.6029 -0.2064 -0.2941
20573SOL    HW170497   0.702   8.264   6.834  0.3468 -0.4638  0.1693
20573SOL    HW270498   0.593   8.251   6.731 -0.2812 -0.3718  0.8126
20574SOL     OW70499   8.827   3.001   7.637 -0.2445  0.2570 -0.6041
20574SOL    HW170500   8.752   3.060   7.636 -0.4736  0.1011  1.5384
20574SOL    HW270501   8.903   3.059   7.629 -0.4805  0.8843  1.1169
20575SOL     OW70502   2.335   6.713   9.276  0.0288  0.1150 -0.2097
20575SOL    HW170503   2.330   6.619   9.256  1.4762 -0.4484  1.7049
20575SOL    HW270504   2.422   6.739   9.247 -1.3237  1.6456 -3.3046
20576SOL     OW70505   4.706   7.734   4.023 -0.4278 -0.3662  0.2037
20576SOL    HW170506   4.646   7.730   4.097 -0.5519 -1.1143  0.0625
20576SOL    HW270507   4.702   7.826   3.995 -2.1705 -0.5744 -0.3401
20577SOL     OW70508   7.717   9.493   2.693  0.2534  0.5174  0.0356
20577SOL    HW170509   7.642   9.474   2.636  1.4720 -0.5808 -1.2978
20577SOL    HW270510   7.688   9.566   2.748 -1.4971  0.6626 -1.0013
20578SOL     OW70511  11.992   6.779   6.171 -0.1602  0.2020  0.5492
20578SOL    HW170512  12.053   6.798   6.242 -0.9283  1.4591  0.9021
20578SOL    HW270513  11.959   6.864   6.144  0.8127 -0.1323 -1.9876
20579SOL     OW70514   4.493   1.805  11.467 -0.5569 -0.6192 -0.3502
20579SOL    HW170515   4.495   1.899  11.448 -1.5017 -0.2772  1.0601
20579SOL    HW270516   4.443   1.767  11.395 -0.7295  0.0588 -0.5985
20580SOL     OW70517  11.404   1.898   9.846  0.2038 -0.7919 -0.2918
20580SOL    HW170518  11.479   1.939   9.804 -0.3096  1.8155  1.1094
20580SOL    HW270519  11.333   1.961   9.836 -0.9437 -1.7838  1.1046
20581SOL     OW70520   4.437   9.208   3.241  0.4750 -0.4355  0.1064
20581SOL    HW170521   4.368   9.205   3.174  1.2694  0.8156 -0.8173
20581SOL    HW270522   4.517   9.191   3.192  0.9781 -0.4541  0.9268
20582SOL     OW70523  12.378   1.674   1.634  0.1828  0.1755 -0.0440
20582SOL    HW170524  12.335   1.759   1.627 -1.0252 -0.4323 -0.2360
20582SOL    HW270525  12.384   1.658   1.729 -2.4439 -0.8919  0.0068
20583SOL     OW70526   2.009   8.232   8.143 -0.1227  0.2342  0.0606
20583SOL    HW170527   1.950   8.290   8.189 -0.3579 -0.9460  1.3137
20583SOL    HW270528   2.094   8.246   8.184 -0.3742 -0.9685  1.0592
20584SOL     OW70529  10.444   9.957   2.320 -0.0234 -0.4579 -0.0253
20584SOL    HW170530  10.506   9.892   2.352  0.0587  0.0254  0.8105
20584SOL    HW270531  10.369   9.951   2.379  0.1209  0.4265  0.2681
20585SOL     OW70532  10.629   2.549   5.234  0.2983  0.3290 -0.4961
20585SOL    HW170533  10.711   2.502   5.226  0.4896  0.8897 -2.2179
20585SOL    HW270534  10.572   2.510   5.168 -0.9138 -0.1684  0.7829
20586SOL     OW70535   4.839  10.136   0.605  0.4420  0.1269 -0.1451
20586SOL    HW170536   4.920  10.186   0.606 -0.6199  1.9201 -0.6180
20586SOL    HW270537   4.806  10.143   0.515  0.9610 -2.7013 -0.6791
20587SOL     OW70538   5.764  11.454  11.362  0.1746 -0.0391  0.2036
20587SOL    HW170539   5.697  11.520  11.379 -0.5199  0.2333 -2.9635
20587SOL    HW270540   5.847  11.499  11.376 -0.3092  1.0039 -0.2023
20588SOL     OW70541   2.475   6.073  11.059 -0.2265  0.6457  0.3307
20588SOL    HW170542   2.491   6.000  11.000 -1.9177  0.3042  0.2598
20588SOL    HW270543   2.553   6.075  11.115  0.0424 -0.9504  0.0705
20589SOL     OW70544   1.079   7.965   5.062  0.4778 -0.7010 -0.1643
20589SOL    HW170545   1.071   7.979   5.157 -0.9639  0.2863 -0.3984
20589SOL    HW270546   1.006   7.907   5.041  0.2596 -0.2061 -0.7981
20590SOL     OW70547   9.441   2.144   8.260  0.7835 -0.6144 -0.0032
20590SOL    HW170548   9.426   2.176   8.171 -2.6712 -2.7891 -0.4007
20590SOL    HW270549   9.441   2.049   8.251  0.8038 -0.8796  2.2677
20591SOL     OW70550   7.884   9.396   0.820  0.3963  0.2728  0.2858
20591SOL    HW170551   7.909   9.354   0.738 -0.7538 -2.5599  1.2913
20591SOL    HW270552   7.815   9.458   0.796  0.4145 -0.1632 -0.9250
20592SOL     OW70553   0.266   1.312   1.317  0.4811  0.7918  0.3747
20592SOL    HW170554   0.242   1.251   1.247  0.4196 -1.0493  1.9104
20592SOL    HW270555   0.194   1.375   1.319 -1.4140 -1.2365  1.0776
20593SOL     OW70556   5.252   9.907   1.043  0.1310  0.7732 -0.0788
20593SOL    HW170557   5.269   9.991   1.086  0.9878  0.8465 -0.5318
20593SOL    HW270558   5.337   9.864   1.041 -0.1520  0.2270 -0.5550
20594SOL     OW70559   7.066   5.057   7.605 -0.0506 -0.2917  0.4552
20594SOL    HW170560   7.008   5.133   7.602 -1.5436 -1.3762  0.5870
20594SOL    HW270561   7.024   4.997   7.668  1.0878 -1.2193  0.3714
20595SOL     OW70562   3.501   1.499   7.101  0.1536  0.2025  0.1803
20595SOL    HW170563   3.464   1.410   7.098 -0.4859  0.4787 -1.5780
20595SOL    HW270564   3.460   1.544   7.027  1.8583  1.4063 -0.0816
20596SOL     OW70565   8.210   1.907   1.351  0.2455  0.2960 -0.2172
20596SOL    HW170566   8.284   1.900   1.290 -0.7741  1.3242 -1.6284
20596SOL    HW270567   8.156   1.977   1.315 -2.5214 -1.8036 -0.4122
20597SOL     OW70568   9.433   4.906   0.403 -0.3809 -0.0050 -0.1039
20597SOL    HW170569   9.524   4.909   0.375  0.0839  0.9444  1.4122
20597SOL    HW270570   9.389   4.969   0.345  0.2990  0.9353  0.3752
20598SOL     OW70571   2.841   7.294   7.607 -0.7088  0.0856 -0.2897
20598SOL    HW170572   2.869   7.224   7.549  0.0946 -0.6903  0.9863
20598SOL    HW270573   2.839   7.372   7.551 -0.6932 -0.7679 -1.5099
20599SOL     OW70574   4.447  11.277  11.429 -0.2897 -0.1923  0.0869
20599SOL    HW170575   4.523  11.219  11.436  0.1440  0.5452  2.3154
20599SOL    HW270576   4.379  11.221  11.392  0.0635 -2.2440  2.2418
20600SOL     OW70577   0.963   7.292   8.188  0.2955  0.5540  0.2027
20600SOL    HW170578   0.966   7.375   8.235  0.4318  1.7193 -1.7300
20600SOL    HW270579   0.876   7.256   8.207 -0.6806  2.2887 -0.6963
20601SOL     OW70580   6.449  12.605   6.024 -0.0904 -0.3833  0.3942
20601SOL    HW170581   6.509  12.676   6.004 -0.8223  0.2157  0.2708
20601SOL    HW270582   6.490  12.527   5.985  0.4090  0.0778 -0.0207
20602SOL     OW70583   0.828   4.616   7.587  0.2924  0.5420 -0.2119
20602SOL    HW170584   0.870   4.699   7.611 -1.2229  1.9377 -2.0276
20602SOL    HW270585   0.875   4.588   7.508  1.9636 -1.3646  1.3378
20603SOL     OW70586  10.145  10.881  11.353  0.7490 -0.5539 -0.0716
20603SOL    HW170587  10.059  10.922  11.344  0.7220 -0.5811  0.0712
20603SOL    HW270588  10.162  10.842  11.266 -0.0740 -1.8943  0.3348
20604SOL     OW70589   6.775   5.908   7.509  0.4545  0.0601  0.2928
20604SOL    HW170590   6.869   5.925   7.508  0.2192  1.6318  1.0962
20604SOL    HW270591   6.737   5.984   7.466 -0.5230  0.1080  1.2109
20605SOL     OW70592   1.896  10.738   7.843  0.1280  0.1593 -0.6781
20605SOL    HW170593   1.982  10.757   7.806  0.0996  0.5373 -0.5633
20605SOL    HW270594   1.862  10.824   7.868  0.0976 -0.0720  0.1058
20606SOL     OW70595   5.245   9.862   5.679 -0.3117  0.2941  0.1394
20606SOL    HW170596   5.302   9.909   5.741 -0.5007 -0.2003  0.6987
20606SOL    HW270597   5.306   9.820   5.619 -0.1035  0.2915  0.3477
20607SOL     OW70598   7.713   2.037  12.066 -0.0033  0.1601 -0.6043
20607SOL    HW170599   7.701   2.017  12.159 -0.9669 -1.4342 -1.0353
20607SOL    HW270600   7.724   1.952  12.024 -1.9936  0.6253 -2.2540
20608SOL     OW70601   3.482   9.521   2.573  0.1669  0.4376 -0.1555
20608SOL    HW170602   3.445   9.435   2.556  1.3415 -0.0417 -0.3994
20608SOL    HW270603   3.432   9.554   2.648  0.0215 -0.6599  0.2514
20609SOL     OW70604   6.197   7.058   8.408 -0.5141 -0.3000  0.1160
20609SOL    HW170605   6.176   7.110   8.485 -1.3650  0.4063 -0.5663
20609SOL    HW270606   6.113   7.024   8.377 -0.2644 -0.1497 -0.7826
20610SOL     OW70607  10.854   8.252  12.486 -0.3021  0.3481  0.2972
20610SOL    HW170608  10.871   8.344  12.505 -1.2532  0.5489  0.2494
20610SOL    HW270609  10.910   8.232  12.411 -0.7297  1.1328 -0.2422
20611SOL     OW70610  10.290   5.229   8.557 -0.3500 -0.5059  0.3356
20611SOL    HW170611  10.331   5.148   8.528  0.9356 -0.3022  1.4971
20611SOL    HW270612  10.355   5.297   8.538 -1.2896  0.2186 -0.3488
20612SOL     OW70613   1.969  11.185   8.634  0.0216  0.4660 -0.1671
20612SOL    HW170614   1.906  11.124   8.672  0.3627  0.8561  1.0594
20612SOL    HW270615   2.054  11.142   8.647  0.1095  0.3557 -1.0093
20613SOL     OW70616   8.528   4.484   5.266 -0.4856  0.6063  0.0560
20613SOL    HW170617   8.616   4.520   5.267 -0.1610 -0.1715  0.6540
20613SOL    HW270618   8.498   4.495   5.176  0.4113  0.4211 -0.2697
20614SOL     OW70619   4.413   4.453   6.784 -0.2744 -0.1880 -0.6595
20614SOL    HW170620   4.379   4.386   6.843 -1.1011  1.0587  0.3284
20614SOL    HW270621   4.487   4.411   6.740 -0.4193 -1.5530  0.3414
20615SOL     OW70622   0.572   0.230   0.500 -0.2494 -0.1743 -0.2772
20615SOL    HW170623   0.510   0.180   0.553 -0.2462 -0.0146 -0.1229
20615SOL    HW270624   0.658   0.193   0.522 -0.4071 -1.5067 -1.6863
20616SOL     OW70625   6.124  11.477   4.354  0.0830 -0.3994 -0.3719
20616SOL    HW170626   6.140  11.522   4.437  1.5720 -1.3021 -0.1340
20616SOL    HW270627   6.029  11.465   4.352 -0.1749  1.2508  0.3215
20617SOL     OW70628   6.601   6.971   1.882 -0.2285 -0.2110  0.1920
20617SOL    HW170629   6.590   7.005   1.970  0.9027  1.2804 -0.2093
20617SOL    HW270630   6.636   6.883   1.894 -0.8583 -0.3389  1.2228
20618SOL     OW70631   5.351   8.713   2.777  0.7232  0.3458 -0.2383
20618SOL    HW170632   5.319   8.720   2.687 -0.8292  1.5262  0.3591
20618SOL    HW270633   5.286   8.659   2.822  1.8846 -0.8846  0.0325
20619SOL     OW70634   7.676   0.060   9.220 -0.1327  0.4059 -0.5303
20619SOL    HW170635   7.585   0.052   9.246 -0.4865 -0.3320 -1.9313
20619SOL    HW270636   7.673   0.097   9.132  0.9904  1.8432 -0.0058
20620SOL     OW70637   2.890   6.213   7.073  0.3645 -0.1935 -0.2033
20620SOL    HW170638   2.871   6.270   7.147 -1.1759 -0.9255  0.0170
20620SOL    HW270639   2.842   6.251   7.000  0.5046 -0.3978 -0.4037
20621SOL     OW70640   4.018   7.073   5.592 -0.9386 -0.2423 -0.1692
20621SOL    HW170641   4.062   7.140   5.644 -1.5090 -2.2377  3.1679
20621SOL    HW270642   3.927   7.103   5.586 -1.4487 -1.0493  2.2438
20622SOL     OW70643   1.108   2.461   1.871 -0.7762 -0.7466  0.5581
20622SOL    HW170644   1.112   2.380   1.922 -0.8895 -0.0511  1.7030
20622SOL    HW270645   1.022   2.459   1.829 -0.9585 -0.9963  0.9444
20623SOL     OW70646   5.528   0.280  10.161 -0.0213 -0.4441 -0.3784
20623SOL    HW170647   5.467   0.211  10.138  0.9638 -0.5955 -2.7796
20623SOL    HW270648   5.535   0.334  10.082  1.3198  0.8083  0.5379
20624SOL     OW70649   2.286   7.890   8.556 -0.1791 -0.2192  0.3275
20624SOL    HW170650   2.271   7.796   8.556  0.8766 -0.4302 -1.0696
20624SOL    HW270651   2.255   7.919   8.470 -0.9095  0.7991  0.9097
20625SOL     OW70652   6.879   5.071   0.798  0.5386  0.0489 -0.4199
20625SOL    HW170653   6.838   4.985   0.810  1.4705 -0.4544 -0.7149
20625SOL    HW270654   6.966   5.061   0.836 -0.0079  1.4722  1.3443
20626SOL     OW70655   2.016   2.020   5.068 -0.6071 -0.5680 -0.2264
20626SOL    HW170656   2.048   2.109   5.084  0.4231 -0.8708 -0.5181
20626SOL    HW270657   2.033   1.974   5.150  1.6905 -1.2713 -1.0227
20627SOL     OW70658   5.496   9.854   4.285  0.5659  0.7718 -0.0891
20627SOL    HW170659   5.557   9.895   4.345  0.4560  0.2359  0.3999
20627SOL    HW270660   5.551   9.812   4.220  0.6893  1.1895 -0.2580
20628SOL     OW70661  11.372   8.185   0.069  0.1018  0.4998  0.3116
20628SOL    HW170662  11.419   8.239   0.006 -2.0111 -0.0804 -1.9120
20628SOL    HW270663  11.314   8.247   0.115  1.0681  0.7922  1.1857
20629SOL     OW70664   7.277   0.615  11.308 -0.7528  0.2330  0.0566
20629SOL    HW170665   7.186   0.588  11.317 -0.4014 -0.9046  0.3035
20629SOL    HW270666   7.281   0.657  11.222 -1.2800 -0.6778 -0.4219
20630SOL     OW70667   4.779   3.959   7.622  0.9207 -0.9675  0.6153
20630SOL    HW170668   4.747   3.894   7.560 -0.4228 -1.0976  1.4003
20630SOL    HW270669   4.808   3.908   7.697 -0.7479 -0.6799  1.5039
20631SOL     OW70670   2.285   3.454   7.453 -0.6159  0.0649  1.4728
20631SOL    HW170671   2.362   3.447   7.396 -1.0026 -0.6324  1.0203
20631SOL    HW270672   2.297   3.387   7.520 -1.4564 -0.9732  0.6196
20632SOL     OW70673   1.283   4.324   4.867 -0.1636  0.3676 -0.3841
20632SOL    HW170674   1.224   4.395   4.892  0.0122  0.9220 -1.4631
20632SOL    HW270675   1.369   4.366   4.859 -0.1404  0.1339 -1.4612
20633SOL     OW70676   6.776   3.912   3.878 -0.7216 -0.2740  0.2215
20633SOL    HW170677   6.717   3.842   3.850 -0.8986  0.5325 -1.5541
20633SOL    HW270678   6.723   3.966   3.937 -2.1144  0.8982 -1.9769
20634SOL     OW70679  10.015   6.053   3.633  0.3474 -0.1497  0.3043
20634SOL    HW170680  10.063   5.996   3.572  0.3056  0.2085 -0.0667
20634SOL    HW270681   9.970   5.992   3.692  1.7069 -0.5030  1.0232
20635SOL     OW70682   4.052   1.096   5.195  0.2587 -0.0872 -0.3724
20635SOL    HW170683   4.127   1.061   5.146 -1.4047  0.9375 -4.0303
20635SOL    HW270684   4.040   1.184   5.159 -1.2702  0.7075  1.8876
20636SOL     OW70685  11.778   0.034   3.894 -0.7453  0.1607 -0.1053
20636SOL    HW170686  11.853   0.001   3.943 -0.3990  0.4124 -0.4627
20636SOL    HW270687  11.702   0.010   3.948 -0.3454  0.9311  0.8474
20637SOL     OW70688  10.274   7.900  10.792  0.0300  0.1778  0.7284
20637SOL    HW170689  10.286   7.968  10.859 -0.4976  1.8381 -0.7793
20637SOL    HW270690  10.188   7.863  10.810  0.1577  0.1683  1.3409
20638SOL     OW70691   3.819   2.416   9.308  0.4881  0.1884  0.0368
20638SOL    HW170692   3.884   2.354   9.342  1.5791  1.1191 -0.2838
20638SOL    HW270693   3.871   2.490   9.277 -0.6390  0.3494 -1.5468
20639SOL     OW70694   3.647  11.715   2.850 -0.4677  0.3332 -0.1622
20639SOL    HW170695   3.642  11.695   2.943  0.8873 -2.3544 -0.5877
20639SOL    HW270696   3.565  11.683   2.814 -0.4675  0.2598 -0.0966
20640SOL     OW70697   8.675   2.503  10.625  0.5643 -0.1029 -0.2729
20640SOL    HW170698   8.615   2.519  10.698  0.6358 -0.6940 -0.0762
20640SOL    HW270699   8.623   2.453  10.562 -0.0558  1.9345 -1.4633
20641SOL     OW70700   8.136  10.303   8.687 -0.3676  0.5047 -0.4199
20641SOL    HW170701   8.132  10.376   8.748 -0.2208 -0.6248  1.0063
20641SOL    HW270702   8.045  10.282   8.667 -0.4568  0.1185  0.3764
20642SOL     OW70703   4.696  11.673  12.440  0.0485  0.0816 -0.3194
20642SOL    HW170704   4.708  11.762  12.474  2.4681 -0.0491 -0.6451
20642SOL    HW270705   4.633  11.683  12.369  0.1175  1.5159 -0.2142
20643SOL     OW70706   5.212   4.646   2.514 -0.2871  0.1374 -0.3756
20643SOL    HW170707   5.301   4.651   2.479 -0.1899 -0.2556 -0.1913
20643SOL    HW270708   5.157   4.630   2.437 -0.0043 -1.4140 -0.2996
20644SOL     OW70709   9.744  11.071   3.671 -0.1445 -0.4164 -0.0474
20644SOL    HW170710   9.701  10.985   3.665 -0.5385 -0.2217 -0.0730
20644SOL    HW270711   9.830  11.058   3.631 -0.9914 -0.2829 -2.0404
20645SOL     OW70712  11.929   1.080   8.058 -0.7398 -0.6798 -0.0659
20645SOL    HW170713  11.847   1.047   8.095 -0.5351 -1.2788 -0.1265
20645SOL    HW270714  11.975   1.001   8.028 -0.9148 -0.2275 -1.6168
20646SOL     OW70715   3.904   2.960   5.959 -0.5625 -0.1035 -0.2463
20646SOL    HW170716   3.828   2.917   5.999 -0.6591  1.5516  1.5012
20646SOL    HW270717   3.887   3.054   5.971  1.5661  0.3159 -0.1857
20647SOL     OW70718  11.154   7.085   7.154 -0.4528 -0.1782  0.1204
20647SOL    HW170719  11.226   7.141   7.126  0.9705 -0.7680  2.3167
20647SOL    HW270720  11.183   6.997   7.132 -2.0984 -0.2218 -2.1232
20648SOL     OW70721  11.679   3.252   0.855 -0.3085 -0.1597 -0.0769
20648SOL    HW170722  11.626   3.310   0.908  0.0253 -0.2339  0.3405
20648SOL    HW270723  11.657   3.164   0.886  0.6908 -0.1510  0.7002
20649SOL     OW70724   9.197  12.492   4.796 -0.5058  0.5474  0.2802
20649SOL    HW170725   9.247  12.452   4.725 -0.0317 -0.5838  1.2147
20649SOL    HW270726   9.127  12.429   4.815  0.8357 -0.3985  2.4423
20650SOL     OW70727   1.363   6.836  10.748  0.6664 -0.5743 -0.3003
20650SOL    HW170728   1.455   6.827  10.721  0.4581 -0.3821 -1.1117
20650SOL    HW270729   1.339   6.925  10.722  0.0831 -0.8211 -0.6317
20651SOL     OW70730   5.964  12.287   8.263 -0.2185 -0.2728  0.4289
20651SOL    HW170731   6.011  12.204   8.263 -1.0501 -0.7574  0.7250
20651SOL    HW270732   5.912  12.285   8.343 -0.5432  0.3651  0.2437
20652SOL     OW70733   5.841   9.155   2.768  0.2502  0.1024  0.3436
20652SOL    HW170734   5.844   9.118   2.856 -0.9530  1.7686  1.1380
20652SOL    HW270735   5.760   9.122   2.730 -0.3249  1.0911  0.6868
20653SOL     OW70736   5.238   4.862   9.990  0.5948 -0.6666 -0.3095
20653SOL    HW170737   5.193   4.846  10.073 -0.8915 -1.7570 -1.2620
20653SOL    HW270738   5.326   4.829  10.004  0.0729 -1.7794  0.5402
20654SOL     OW70739  10.245   1.852   4.036  0.2509 -0.8597  0.0720
20654SOL    HW170740  10.154   1.840   4.011  0.1702 -0.5958  0.2360
20654SOL    HW270741  10.242   1.884   4.126  0.5007 -0.7141  0.0306
20655SOL     OW70742   8.581   5.778   4.186 -0.0874 -0.0017 -0.0464
20655SOL    HW170743   8.638   5.754   4.259 -1.2676 -1.2045  0.5354
20655SOL    HW270744   8.557   5.869   4.203  1.6701  0.5631 -0.3498
20656SOL     OW70745   0.951   9.689  11.536  0.4079 -0.6788 -0.6109
20656SOL    HW170746   0.861   9.671  11.564 -0.1721  1.6022 -0.8131
20656SOL    HW270747   0.941   9.749  11.462  1.8972  5.6695  3.5091
20657SOL     OW70748   0.431   3.804   9.445 -0.0191  0.1347  0.1409
20657SOL    HW170749   0.346   3.776   9.411 -1.6506  3.0767  1.3615
20657SOL    HW270750   0.467   3.860   9.375 -0.8729  1.8296  0.9883
20658SOL     OW70751  10.711   6.141  10.782  0.2731 -0.1294 -0.4137
20658SOL    HW170752  10.619   6.128  10.807  0.5345 -1.4634 -0.0740
20658SOL    HW270753  10.728   6.073  10.717  1.5709 -1.2219  0.9984
20659SOL     OW70754   1.488   6.949  12.426  0.6524  0.2802  0.0889
20659SOL    HW170755   1.492   6.863  12.384  1.4559  0.5782 -0.4533
20659SOL    HW270756   1.544   7.005  12.373  0.2234  1.1234  0.4997
20660SOL     OW70757   1.515  12.192   5.513 -0.4054 -0.8815  0.0229
20660SOL    HW170758   1.610  12.184   5.516 -0.3290 -0.0235  0.1263
20660SOL    HW270759   1.484  12.105   5.489  0.5370 -0.5845 -2.5822
20661SOL     OW70760   3.780  10.076   3.061  0.4964  0.0307  0.1585
20661SOL    HW170761   3.785   9.981   3.073 -0.4268 -0.2467 -1.4524
20661SOL    HW270762   3.686  10.094   3.056  0.6904  0.7749 -1.2473
20662SOL     OW70763  12.526   7.242   4.069  0.0376 -0.3881 -0.4856
20662SOL    HW170764  12.485   7.159   4.046 -1.8561  0.3826 -0.0536
20662SOL    HW270765  12.471   7.279   4.138 -0.6286  2.3405 -2.3090
20663SOL     OW70766   3.762   3.503   3.264 -0.1114  0.1542 -0.2516
20663SOL    HW170767   3.749   3.508   3.359  0.3214  0.3704 -0.1984
20663SOL    HW270768   3.766   3.409   3.245  0.6872  0.1083  0.0793
20664SOL     OW70769   3.910   0.029   3.490  0.0113 -0.3265 -0.2194
20664SOL    HW170770   3.934   0.115   3.454 -0.3763 -0.4026 -0.6819
20664SOL    HW270771   3.969   0.016   3.564 -0.3196  0.6075  0.2238
20665SOL     OW70772   0.002  11.835   1.144  0.3367  0.1389  0.5750
20665SOL    HW170773   0.018  11.778   1.219 -2.0516  0.5490  1.4813
20665SOL    HW270774  -0.088  11.814   1.117  0.6283  1.0643 -1.2482
20666SOL     OW70775   7.756   6.264   0.841  0.0533 -0.0795  0.3902
20666SOL    HW170776   7.825   6.212   0.798  1.7617 -0.6225  3.4605
20666SOL    HW270777   7.803   6.338   0.880 -1.5569  0.9676  0.4196
20667SOL     OW70778  12.527   7.799   2.966 -0.1588  0.4708  0.1071
20667SOL    HW170779  12.468   7.870   2.943  1.5333  1.3978 -1.7146
20667SOL    HW270780  12.591   7.839   3.025 -0.8331 -0.3251  1.4303
20668SOL     OW70781   4.619  12.309  10.731  0.0906 -0.1940 -0.2311
20668SOL    HW170782   4.658  12.347  10.652  0.2906  1.0650  0.4540
20668SOL    HW270783   4.658  12.221  10.737 -0.8987 -0.8250 -2.2088
20669SOL     OW70784   3.458   2.213  10.489  0.6585 -0.3439 -0.0252
20669SOL    HW170785   3.417   2.299  10.489  0.9260 -0.1768  1.6653
20669SOL    HW270786   3.389   2.154  10.457 -1.6294 -0.2944  4.0607
20670SOL     OW70787   3.469   4.379   0.514 -0.2994 -0.5649 -0.3680
20670SOL    HW170788   3.509   4.355   0.598  0.7025 -1.5154 -1.0869
20670SOL    HW270789   3.542   4.413   0.462 -0.3424 -2.4639 -1.7561
20671SOL     OW70790   8.843   5.247   9.295  0.0263 -0.0646 -0.2697
20671SOL    HW170791   8.803   5.172   9.339 -1.7421  0.2233 -1.3200
20671SOL    HW270792   8.770   5.298   9.262  1.2383  1.3033 -0.9588
20672SOL     OW70793   0.353   3.453   9.025  0.3492  0.7723 -0.1241
20672SOL    HW170794   0.264   3.423   9.002 -0.8283 -0.3762  4.8813
20672SOL    HW270795   0.410   3.382   8.997 -0.9200 -0.5834  0.5878
20673SOL     OW70796   0.275   5.922   0.772  0.1225  0.1954 -0.8669
20673SOL    HW170797   0.239   5.840   0.737 -0.8632  0.3251 -0.1997
20673SOL    HW270798   0.364   5.900   0.799  0.6201 -0.1223 -2.6420
20674SOL     OW70799   8.263  11.863   4.815  0.1979 -0.0886  0.0611
20674SOL    HW170800   8.170  11.844   4.828 -0.1941  1.3000 -0.6020
20674SOL    HW270801   8.285  11.821   4.731 -0.4470  1.5580 -0.9655
20675SOL     OW70802   3.987   7.631   7.779 -0.2742  0.7843  0.1500
20675SOL    HW170803   4.026   7.544   7.788 -0.4842  0.6194 -0.4650
20675SOL    HW270804   3.896   7.614   7.755 -0.0974  1.1618 -0.8633
20676SOL     OW70805   3.737  10.992   0.199  0.4098  0.8675 -0.4124
20676SOL    HW170806   3.655  11.041   0.186 -0.2005 -0.3751 -1.4990
20676SOL    HW270807   3.733  10.961   0.289 -0.4728  0.5825 -0.5373
20677SOL     OW70808  11.863   0.059   3.602  0.1389 -1.0633  0.6183
20677SOL    HW170809  11.957   0.042   3.599  0.2509 -0.7560  1.8273
20677SOL    HW270810  11.842   0.058   3.695 -0.4652  1.9375  0.6051
20678SOL     OW70811   3.243   5.306   8.710 -0.0826 -0.2439  0.1548
20678SOL    HW170812   3.288   5.243   8.766  0.6555 -0.4836 -0.6873
20678SOL    HW270813   3.302   5.320   8.637 -1.0490  0.0250 -0.5992
20679SOL     OW70814  11.935  10.245   3.346  0.6262 -0.2702  0.0289
20679SOL    HW170815  11.955  10.277   3.434  1.0917 -4.1665  1.5108
20679SOL    HW270816  12.006  10.184   3.326 -0.5553 -1.0135 -2.1737
20680SOL     OW70817   8.402  10.986   3.032  0.1376 -0.0988 -0.2326
20680SOL    HW170818   8.478  10.939   3.066 -0.3078 -1.6820 -1.3282
20680SOL    HW270819   8.399  10.963   2.939 -2.3951 -1.1482  0.0204
20681SOL     OW70820   5.039   3.332   6.600  0.3971  0.0706  0.0226
20681SOL    HW170821   5.015   3.356   6.511 -0.9025  0.2303  0.3851
20681SOL    HW270822   5.047   3.236   6.598  2.7412  0.2226 -0.7709
20682SOL     OW70823  10.660   4.922   8.089 -0.1983  0.5079  0.2677
20682SOL    HW170824  10.741   4.942   8.136 -0.4097  0.9659  0.4511
20682SOL    HW270825  10.686   4.916   7.997 -0.0677  1.3585  0.2392
20683SOL     OW70826   9.706   3.968   3.902  0.3613 -0.5296  0.2614
20683SOL    HW170827   9.793   3.928   3.903  0.4329 -0.3570  0.7927
20683SOL    HW270828   9.661   3.931   3.978  0.5461  0.6556  0.9638
20684SOL     OW70829  12.562   9.048   0.716 -0.1252  0.4056  0.0520
20684SOL    HW170830  12.578   9.002   0.633 -0.7937  0.6952 -0.2541
20684SOL    HW270831  12.507   8.987   0.766  0.8291 -0.0518  0.5723
20685SOL     OW70832   5.808   5.117   5.231  0.4953 -0.1947  0.3974
20685SOL    HW170833   5.715   5.138   5.241  1.0113  1.7854  1.5644
20685SOL    HW270834   5.814   5.024   5.255 -1.3174 -0.6992 -0.8642
20686SOL     OW70835   1.916   1.767   2.729 -0.4969  0.3368 -0.3467
20686SOL    HW170836   1.958   1.706   2.790 -0.7190  1.4299  0.9593
20686SOL    HW270837   1.982   1.782   2.661 -0.2052 -0.8435 -0.3499
20687SOL     OW70838  10.568  12.339   8.740  0.1019  0.1809 -0.0512
20687SOL    HW170839  10.551  12.393   8.816  0.6177  1.5826 -0.8996
20687SOL    HW270840  10.611  12.261   8.775 -0.3522  0.4515  1.1534
20688SOL     OW70841   5.486  11.405   6.015  0.1663  0.2837 -0.4855
20688SOL    HW170842   5.399  11.410   5.975  0.2846 -1.5976 -1.0902
20688SOL    HW270843   5.531  11.484   5.986 -0.4480 -0.0273 -2.4078
20689SOL     OW70844   1.115   5.395   4.353 -0.0963 -0.0766 -0.1243
20689SOL    HW170845   1.081   5.326   4.410 -1.0707  0.4230 -0.0612
20689SOL    HW270846   1.176   5.351   4.295  0.3768 -0.7273  0.8439
20690SOL     OW70847   4.351  10.392  12.299 -0.1928 -0.0909 -1.5783
20690SOL    HW170848   4.325  10.481  12.324 -0.8025 -0.1998 -1.7901
20690SOL    HW270849   4.446  10.392  12.303 -0.2369  0.0649  0.1544
20691SOL     OW70850   9.282   8.715   6.547 -0.1051 -0.0950 -0.0320
20691SOL    HW170851   9.248   8.674   6.468 -1.2626  0.8589 -0.0563
20691SOL    HW270852   9.345   8.780   6.516  0.5973 -0.7901 -0.0746
20692SOL     OW70853  10.926   2.693   9.607  0.0949  0.3320  0.2298
20692SOL    HW170854  11.017   2.724   9.603 -0.3497  2.1555  2.4872
20692SOL    HW270855  10.889   2.738   9.683 -1.8929 -2.5775  1.1189
20693SOL     OW70856   2.359   6.409   3.955 -0.2411  0.3510  0.6931
20693SOL    HW170857   2.283   6.359   3.925  0.4964 -0.2362 -0.2726
20693SOL    HW270858   2.415   6.345   3.999  0.5470  0.3759 -0.2397
20694SOL     OW70859   5.106   0.940   5.532  0.5805 -0.0858  0.4393
20694SOL    HW170860   5.160   0.864   5.511 -0.2009 -0.6873  0.5624
20694SOL    HW270861   5.071   0.922   5.619 -0.4688 -0.0992  0.0338
20695SOL     OW70862   7.382   4.063  10.243  0.4001 -0.0089 -0.1019
20695SOL    HW170863   7.392   4.043  10.150 -0.5612  2.2504 -0.7661
20695SOL    HW270864   7.298   4.025  10.266  0.0376  0.5204 -0.5180
20696SOL     OW70865   4.961   9.766  11.112  0.7295  1.3183  0.4680
20696SOL    HW170866   4.899   9.767  11.038  0.5967  2.0095  0.5818
20696SOL    HW270867   5.043   9.735  11.074  0.2838  0.2632  0.3401
20697SOL     OW70868   7.721  12.538   9.505 -0.4071 -0.0162  0.1279
20697SOL    HW170869   7.780  12.566   9.575 -0.2923  1.1517 -0.4046
20697SOL    HW270870   7.684  12.620   9.472  0.0472 -0.4751 -1.6141
20698SOL     OW70871   2.605   9.846   0.831 -0.1496  0.1218  0.3236
20698SOL    HW170872   2.585   9.765   0.878 -2.5116 -0.4164 -1.4348
20698SOL    HW270873   2.683   9.825   0.779  0.3844 -0.3777  1.3024
20699SOL     OW70874   2.837   8.284   6.531  0.3265 -0.1533 -0.1990
20699SOL    HW170875   2.877   8.206   6.571  0.0845 -0.1022  0.1480
20699SOL    HW270876   2.767   8.250   6.476  1.2979 -0.3017 -1.3958
20700SOL     OW70877  11.730   1.784   5.160  0.2730 -0.1147 -0.7340
20700SOL    HW170878  11.777   1.720   5.215  0.1010  1.6776  1.6346
20700SOL    HW270879  11.761   1.869   5.191 -0.1105  1.0260 -3.2583
20701SOL     OW70880  11.082   0.858   0.030 -0.3334 -0.1092 -0.0769
20701SOL    HW170881  11.138   0.904  -0.033 -2.7168  2.5131 -0.4804
20701SOL    HW270882  11.123   0.873   0.115  0.5377  0.1847 -0.5385
20702SOL     OW70883   5.102   0.936   7.149  0.2931 -0.1992  0.2944
20702SOL    HW170884   5.098   1.032   7.158 -0.8280 -0.3305  1.4007
20702SOL    HW270885   5.019   0.905   7.186  0.2972 -1.5632 -0.7587
20703SOL     OW70886   0.857   9.841   5.097  0.2639 -0.0690 -0.0325
20703SOL    HW170887   0.842   9.873   5.008  0.5616  0.2824  0.0440
20703SOL    HW270888   0.893   9.753   5.085 -0.6269 -0.4189 -0.2389
20704SOL     OW70889  11.448   9.841   1.295  0.1479 -0.5416 -0.1923
20704SOL    HW170890  11.430   9.868   1.385  1.9000  3.0262 -0.7408
20704SOL    HW270891  11.523   9.783   1.301 -0.8964 -1.8628  0.7148
20705SOL     OW70892   0.756   1.511   2.050  0.0395 -0.5774  0.3547
20705SOL    HW170893   0.695   1.513   2.124 -1.2413 -0.7769 -0.6517
20705SOL    HW270894   0.824   1.575   2.072 -1.1449  0.4909  1.0227
20706SOL     OW70895   4.598   0.076  10.386  0.5004 -0.2442 -0.2332
20706SOL    HW170896   4.509   0.109  10.402  0.0636 -0.8826 -1.2787
20706SOL    HW270897   4.655   0.140  10.429 -0.4633  0.0656  0.6293
20707SOL     OW70898   1.634   8.112   6.444  0.3548  0.4428 -0.2776
20707SOL    HW170899   1.729   8.104   6.447  0.2197 -2.7486 -0.5505
20707SOL    HW270900   1.604   8.076   6.527 -0.6187 -1.3623 -1.3376
20708SOL     OW70901  10.852  12.478   6.600 -0.4645 -0.3204 -0.0740
20708SOL    HW170902  10.862  12.388   6.632  1.1439  0.1661  0.8577
20708SOL    HW270903  10.762  12.501   6.623 -0.2932 -1.0251  1.4167
20709SOL     OW70904   5.145   2.102   3.978 -0.2178  0.6549  0.1165
20709SOL    HW170905   5.131   2.030   4.039 -0.1798  0.6848  0.1598
20709SOL    HW270906   5.057   2.128   3.951 -0.2667  1.1016  0.6879
20710SOL     OW70907   2.412   3.788  11.094 -0.1134 -0.0172 -0.2548
20710SOL    HW170908   2.397   3.854  11.027 -1.6868  0.5412  0.6079
20710SOL    HW270909   2.386   3.706  11.053 -1.3354  0.3556 -0.2546
20711SOL     OW70910  10.008   3.826  12.313  1.1125 -0.1971  0.2458
20711SOL    HW170911   9.913   3.808  12.310  0.9896  0.0451  2.0240
20711SOL    HW270912  10.024   3.876  12.233 -0.3217  0.0459  0.0676
20712SOL     OW70913   4.709  11.767   7.071 -0.0436 -0.5254 -0.2018
20712SOL    HW170914   4.641  11.732   7.129 -0.9372  1.1128 -0.2027
20712SOL    HW270915   4.782  11.705   7.081 -0.9481 -1.4699  1.0096
20713SOL     OW70916   6.918  10.772   6.741  0.1178 -0.1272  0.2319
20713SOL    HW170917   6.869  10.747   6.663 -0.7253  1.0885  0.3297
20713SOL    HW270918   6.946  10.690   6.780  1.2608 -0.7497 -1.7675
20714SOL     OW70919   5.207   4.569  11.394  0.1043  0.6824 -0.3634
20714SOL    HW170920   5.280   4.515  11.423 -0.8573 -0.4616  0.0248
20714SOL    HW270921   5.129   4.523  11.426 -0.7334  3.2540  1.6669
20715SOL     OW70922   5.542  12.419   0.445 -0.3101 -0.5152  0.0362
20715SOL    HW170923   5.590  12.384   0.369  0.2183 -0.3459  0.2861
20715SOL    HW270924   5.483  12.485   0.408  1.1413  0.7933 -0.0655
20716SOL     OW70925   8.397   4.024   6.010 -0.0438 -0.0286  0.8179
20716SOL    HW170926   8.316   4.058   6.048 -0.5204 -0.4651  0.2156
20716SOL    HW270927   8.467   4.068   6.059 -0.6407  0.4702  1.2396
20717SOL     OW70928   2.293   1.691   7.682  0.4119 -0.0716  0.0899
20717SOL    HW170929   2.279   1.698   7.588 -0.2496 -1.0390  0.0966
20717SOL    HW270930   2.229   1.752   7.720 -2.2243 -2.5831  0.0196
20718SOL     OW70931   9.969   2.171   3.513 -0.3085 -0.3828 -0.0989
20718SOL    HW170932   9.928   2.188   3.429 -0.3167 -0.3027 -0.0790
20718SOL    HW270933  10.055   2.213   3.506 -0.1478 -0.7246 -0.2164
20719SOL     OW70934   0.621   5.031   0.258 -0.1745  0.1203 -0.5454
20719SOL    HW170935   0.704   5.010   0.300  0.1457  0.6039 -0.9267
20719SOL    HW270936   0.557   4.977   0.304  0.2062  0.4290  0.3773
20720SOL     OW70937   3.124   1.447   4.459 -0.7246 -0.1554 -0.2816
20720SOL    HW170938   3.045   1.451   4.405  0.0023 -1.2870 -1.4642
20720SOL    HW270939   3.192   1.486   4.405 -0.3880  0.5201  0.6131
20721SOL     OW70940  11.236   3.551   6.412  0.3659 -0.4221  0.4576
20721SOL    HW170941  11.244   3.523   6.503  0.7686  0.1626  0.6037
20721SOL    HW270942  11.186   3.480   6.370 -0.7749 -0.1936  1.3625
20722SOL     OW70943   8.524   3.004   9.743  0.1333  0.0400  0.1498
20722SOL    HW170944   8.541   2.928   9.687 -1.4776 -0.3799  0.2066
20722SOL    HW270945   8.473   2.970   9.816 -0.4572  1.1498  0.2744
20723SOL     OW70946   2.693   2.435   1.053 -0.8128  0.0056 -0.7562
20723SOL    HW170947   2.787   2.428   1.034 -1.1072 -1.5838 -1.7745
20723SOL    HW270948   2.689   2.454   1.147  0.5141 -0.0642 -0.6658
20724SOL     OW70949   4.009   8.958  10.475  0.4045  0.2619  0.1684
20724SOL    HW170950   3.973   9.045  10.460  0.6095  0.4839  0.9258
20724SOL    HW270951   3.962   8.902  10.413 -0.5403  0.7155  0.4571
20725SOL     OW70952   0.950   4.268   8.220 -0.1022 -0.8082  0.6787
20725SOL    HW170953   0.901   4.222   8.152 -0.5661 -0.6131  0.8746
20725SOL    HW270954   0.938   4.361   8.200  2.3824 -0.7006 -0.8350
20726SOL     OW70955  12.452   6.738   1.834  0.4416 -0.1960 -0.0799
20726SOL    HW170956  12.471   6.650   1.866  1.6769 -0.9843 -2.6912
20726SOL    HW270957  12.490   6.797   1.900 -1.4844 -1.4840  2.3531
20727SOL     OW70958   5.308  11.259   7.942  0.1938  0.2757 -0.1129
20727SOL    HW170959   5.320  11.165   7.931 -0.8395  0.2391 -1.0779
20727SOL    HW270960   5.390  11.297   7.909 -0.3637 -0.1869 -2.1942
20728SOL     OW70961  12.150   6.593   2.987  0.0032  0.4747 -0.0109
20728SOL    HW170962  12.094   6.581   2.911  0.2211 -2.9761  0.2332
20728SOL    HW270963  12.230   6.631   2.952 -0.4654  0.3640 -1.2581
20729SOL     OW70964   4.969   3.362   4.829 -0.7898 -0.3636 -0.5509
20729SOL    HW170965   4.963   3.404   4.744 -1.3617 -0.2063 -0.4395
20729SOL    HW270966   4.908   3.411   4.885 -0.3141 -0.3688 -0.0104
20730SOL     OW70967   4.218   4.296   7.071 -0.4506 -0.5985  0.1782
20730SOL    HW170968   4.208   4.211   7.114  0.8414 -1.8279 -1.8121
20730SOL    HW270969   4.154   4.293   6.999 -1.0920  0.5486  0.6808
20731SOL     OW70970   6.522   0.635  12.580 -0.3004 -0.3601 -0.0637
20731SOL    HW170971   6.522   0.684  12.662 -0.2504 -0.3622 -0.0631
20731SOL    HW270972   6.614   0.624  12.558 -0.2931 -0.9460  0.2295
20732SOL     OW70973   6.769   7.745   5.238 -0.3622  0.0436 -0.2451
20732SOL    HW170974   6.778   7.718   5.330  1.1454  2.4914  0.4148
20732SOL    HW270975   6.689   7.798   5.237  0.5652  1.5002  0.1009
20733SOL     OW70976   1.868   8.009  12.220  0.0586  0.5335  0.2205
20733SOL    HW170977   1.942   8.067  12.236  0.3522  0.7664 -1.7926
20733SOL    HW270978   1.870   7.948  12.294  1.9139  0.8620  0.4909
20734SOL     OW70979   6.953   9.618   2.694  0.3316  0.1416 -0.1074
20734SOL    HW170980   6.862   9.635   2.717  0.7866  0.4247  1.6204
20734SOL    HW270981   6.982   9.699   2.650 -0.9191 -0.8879 -3.1030
20735SOL     OW70982  11.694   0.132   2.812 -0.4061 -0.2120 -0.0314
20735SOL    HW170983  11.722   0.112   2.902 -0.1639  1.3314  0.2732
20735SOL    HW270984  11.726   0.059   2.760 -0.5833 -1.1624  1.1446
20736SOL     OW70985   2.027  10.598   9.044  0.1014 -0.6837  0.4398
20736SOL    HW170986   2.107  10.650   9.046  0.3839 -1.1327  2.3245
20736SOL    HW270987   2.028  10.547   9.125 -0.9420 -2.4895 -0.6051
20737SOL     OW70988   2.223   5.380  11.792  0.2310  0.2027 -0.0973
20737SOL    HW170989   2.225   5.343  11.880  0.8458  0.2791 -0.0741
20737SOL    HW270990   2.216   5.304  11.734  0.3873  0.1162 -0.0033
20738SOL     OW70991  11.413   9.112   2.907  0.6285  0.1479  0.0798
20738SOL    HW170992  11.349   9.180   2.885  1.4896  0.5550 -1.3032
20738SOL    HW270993  11.366   9.030   2.894  0.5474  0.4257 -1.6505
20739SOL     OW70994  11.396  10.532  12.200 -0.4871  0.8394  0.0156
20739SOL    HW170995  11.464  10.561  12.140  0.3057  0.6083  0.7766
20739SOL    HW270996  11.350  10.462  12.153  1.5308 -0.8871  0.4576
20740SOL     OW70997   4.405  11.147   5.682 -0.6082 -0.5662  0.0657
20740SOL    HW170998   4.315  11.174   5.668 -0.5578  0.1021  0.9500
20740SOL    HW270999   4.455  11.229   5.686 -0.2122 -0.8390  1.2042
20741SOL     OW71000   2.145   8.628   6.415  0.4263 -0.3596  0.1377
20741SOL    HW171001   2.177   8.620   6.325  0.3058 -0.9572  0.1439
20741SOL    HW271002   2.215   8.590   6.468 -0.6344 -2.4907  0.0884
20742SOL     OW71003   7.228   6.311   2.399 -0.5835 -0.0990  0.2064
20742SOL    HW171004   7.285   6.301   2.323 -0.3891 -0.1736  0.3597
20742SOL    HW271005   7.186   6.225   2.409  0.5456 -0.5615  1.0959
20743SOL     OW71006  10.615   1.588   7.597  0.3310 -0.3722 -0.4083
20743SOL    HW171007  10.592   1.572   7.689  0.9526 -3.8629 -0.7448
20743SOL    HW271008  10.707   1.613   7.600  0.2781 -0.2030 -0.0878
20744SOL     OW71009  10.630   4.121  11.230  0.0058  0.5003 -0.1661
20744SOL    HW171010  10.649   4.215  11.230 -0.0098  0.5011 -0.6241
20744SOL    HW271011  10.715   4.079  11.244 -0.2761  0.6348  2.7123
20745SOL     OW71012   8.158   8.419  11.139  0.5757 -0.1668 -0.3387
20745SOL    HW171013   8.205   8.484  11.087 -0.0554  2.1531  1.8013
20745SOL    HW271014   8.226   8.356  11.165  1.5703  0.6144 -0.9481
20746SOL     OW71015   9.611  11.548  11.835 -0.0128  0.7024  0.0922
20746SOL    HW171016   9.611  11.569  11.742 -0.3210  2.5843  0.4827
20746SOL    HW271017   9.544  11.605  11.873  0.8598  0.7625  1.6341
20747SOL     OW71018   3.004   2.663  12.223  0.4793  0.0999 -0.6439
20747SOL    HW171019   3.016   2.743  12.172 -0.3635  0.0687 -0.8977
20747SOL    HW271020   3.028   2.688  12.312  0.4272  0.5799 -0.7626
20748SOL     OW71021   7.297   6.371   7.704  0.0351  0.0294 -0.3701
20748SOL    HW171022   7.334   6.459   7.709  0.6315 -0.1844 -0.8377
20748SOL    HW271023   7.269   6.362   7.613 -4.3512  1.4080  0.5879
20749SOL     OW71024   9.595   7.412   2.854  0.1565  0.2792 -0.1673
20749SOL    HW171025   9.646   7.443   2.929  1.6450 -1.4457 -0.3969
20749SOL    HW271026   9.613   7.475   2.784 -1.0064  1.7359  0.7704
20750SOL     OW71027   6.798   7.635   8.026  0.4102  0.8705  0.6440
20750SOL    HW171028   6.793   7.680   7.941 -1.9649 -1.2532 -0.4492
20750SOL    HW271029   6.727   7.572   8.024  1.6844 -0.8208  3.3495
20751SOL     OW71030   2.124   2.004   8.121  0.4500  0.4145  0.5325
20751SOL    HW171031   2.160   2.039   8.202  0.1594  1.5249  0.1925
20751SOL    HW271032   2.040   2.050   8.109  0.5817  0.4232 -0.4938
20752SOL     OW71033   9.659   0.898   4.406  0.2367  0.6177  0.3908
20752SOL    HW171034   9.614   0.927   4.485 -0.4075 -0.0851  0.2854
20752SOL    HW271035   9.663   0.803   4.413  0.3051  0.5556 -0.3533
20753SOL     OW71036   6.641   8.788   2.377  0.2967 -0.0174  0.0611
20753SOL    HW171037   6.719   8.735   2.391 -0.5872 -1.9989 -1.9876
20753SOL    HW271038   6.568   8.732   2.402 -0.6549  0.2919 -1.8041
20754SOL     OW71039   4.433   2.490   8.111 -0.0929 -0.0367  0.3332
20754SOL    HW171040   4.469   2.570   8.149 -0.4570  0.9304 -1.2384
20754SOL    HW271041   4.360   2.521   8.056 -0.5790 -1.5029  0.1089
20755SOL     OW71042   1.133  12.500   6.969  0.5304  0.3852 -0.1281
20755SOL    HW171043   1.173  12.422   7.008  0.9410 -0.3815 -2.0104
20755SOL    HW271044   1.043  12.500   7.004 -0.0506 -1.9478 -1.4148
20756SOL     OW71045   7.903   1.675   2.403 -0.3223 -0.3014 -0.0675
20756SOL    HW171046   7.905   1.762   2.443 -0.7648 -0.6011  0.6319
20756SOL    HW271047   7.990   1.664   2.365  0.0152  0.1211  0.5584
20757SOL     OW71048   0.555   7.635   2.515 -0.1381 -0.3735  0.4834
20757SOL    HW171049   0.528   7.624   2.424  0.6493  0.9317  0.0609
20757SOL    HW271050   0.609   7.558   2.534  1.4155  0.3339 -0.8440
20758SOL     OW71051   3.152   4.092   9.766  0.1259  0.2954  0.0807
20758SOL    HW171052   3.069   4.046   9.770  1.3025 -2.0253 -0.8437
20758SOL    HW271053   3.186   4.088   9.856 -0.3369  0.4704  0.2649
20759SOL     OW71054  11.582   4.887  12.273  0.6078  0.0851 -0.2440
20759SOL    HW171055  11.502   4.846  12.306  0.0051 -0.4614 -2.2370
20759SOL    HW271056  11.578   4.977  12.305  1.2548 -0.9213  3.0581
20760SOL     OW71057   8.471   2.812  10.338  0.2381 -0.2851 -0.1546
20760SOL    HW171058   8.392   2.787  10.290  0.5522 -1.0110 -0.3067
20760SOL    HW271059   8.512   2.729  10.363  0.2061  0.0679  1.1765
20761SOL     OW71060   0.300   0.538   0.394 -0.2698  0.2796 -0.4476
20761SOL    HW171061   0.310   0.481   0.470 -1.3750 -1.8965 -1.8376
20761SOL    HW271062   0.216   0.512   0.356 -0.3596  2.2296 -1.6767
20762SOL     OW71063   3.847   2.933   4.832 -0.0593  0.3302 -0.1993
20762SOL    HW171064   3.827   2.841   4.815 -0.0186  0.0522  1.1805
20762SOL    HW271065   3.926   2.931   4.887 -0.7958  1.1148  0.9311
20763SOL     OW71066   9.332   1.553   4.244 -0.3048  0.2164  0.1716
20763SOL    HW171067   9.380   1.625   4.284 -1.7379  0.2243  2.0391
20763SOL    HW271068   9.341   1.567   4.149  3.2550  0.2026  0.3743
20764SOL     OW71069   8.363   3.931   4.072  0.2912  0.0381 -0.5251
20764SOL    HW171070   8.341   4.009   4.020  1.3176  0.8610  0.2249
20764SOL    HW271071   8.355   3.960   4.163  0.0131 -0.9353 -0.2356
20765SOL     OW71072   2.162   9.669  10.257 -0.4694  0.1611  0.1291
20765SOL    HW171073   2.191   9.633  10.172  0.7868  1.1778  0.0963
20765SOL    HW271074   2.187   9.601  10.320  1.2717  0.6243 -0.0081
20766SOL     OW71075   6.706  11.968   6.973 -0.3637 -0.0792 -0.2425
20766SOL    HW171076   6.707  11.917   6.892 -0.4931  0.9504 -0.9109
20766SOL    HW271077   6.663  12.050   6.949  2.0216  1.3724  0.1673
20767SOL     OW71078   3.548   7.426   5.774 -0.0330  0.5221 -0.2084
20767SOL    HW171079   3.582   7.514   5.759  0.5656  0.5105  0.9470
20767SOL    HW271080   3.619   7.380   5.818 -1.3413  0.3541  1.8689
20768SOL     OW71081   0.497   8.979   2.891  0.7326  0.1227  0.3357
20768SOL    HW171082   0.428   8.918   2.918  0.3279  0.3243 -0.2070
20768SOL    HW271083   0.501   8.970   2.796  1.8019 -0.2318  0.3988
20769SOL     OW71084   8.121   9.218  11.656 -0.3868 -0.6304  0.0455
20769SOL    HW171085   8.084   9.295  11.698 -0.1249  0.5787 -1.7978
20769SOL    HW271086   8.122   9.151  11.724  0.6302  1.3638  2.1314
20770SOL     OW71087   0.444   1.708  10.936  0.0441 -0.2719  0.5410
20770SOL    HW171088   0.476   1.641  10.997 -0.5943 -0.6225  0.4985
20770SOL    HW271089   0.349   1.699  10.938  0.0358 -1.6896 -2.0261
20771SOL     OW71090  10.444   9.366   7.042 -0.3445  0.2058 -0.0098
20771SOL    HW171091  10.460   9.393   7.132 -0.0893 -0.1313  0.0452
20771SOL    HW271092  10.415   9.275   7.048 -0.2053  0.1421 -0.2745
20772SOL     OW71093   8.317  11.172   0.484 -0.7968  0.0919  0.5134
20772SOL    HW171094   8.402  11.195   0.522 -1.0978  1.1104  0.6006
20772SOL    HW271095   8.255  11.231   0.527 -1.3669  0.2139 -0.4491
20773SOL     OW71096   4.229   7.308   6.508  0.0582 -0.2159 -0.3448
20773SOL    HW171097   4.203   7.354   6.588  0.2557 -1.8748  0.7179
20773SOL    HW271098   4.323   7.291   6.519  0.1565 -0.2099 -1.0790
20774SOL     OW71099  12.234   4.473   1.927 -0.0735  0.4325 -0.2404
20774SOL    HW171100  12.159   4.512   1.972 -0.0746  0.9094 -0.6498
20774SOL    HW271101  12.234   4.514   1.840  0.3949  0.1029 -0.3996
20775SOL     OW71102   7.454   7.486   3.756  0.2210  0.0836  0.0089
20775SOL    HW171103   7.413   7.411   3.713  0.8519  0.4251 -1.2639
20775SOL    HW271104   7.543   7.457   3.775 -0.0530 -0.0565  1.1051
20776SOL     OW71105   5.294   8.499   0.914 -0.6247 -0.1793 -0.3807
20776SOL    HW171106   5.318   8.438   0.983  1.9338  0.0433 -0.9960
20776SOL    HW271107   5.206   8.472   0.888 -0.0217 -2.8861  0.1410
20777SOL     OW71108  10.878   5.986  10.233 -0.0497  0.3081  0.3748
20777SOL    HW171109  10.903   5.933  10.308 -0.6990  0.3966  0.6580
20777SOL    HW271110  10.804   6.038  10.264 -1.8738 -1.3415 -0.9799
20778SOL     OW71111   6.786  12.426   9.780  0.1978  0.5639 -0.1162
20778SOL    HW171112   6.750  12.484   9.847 -0.6247 -0.2370  0.1588
20778SOL    HW271113   6.855  12.377   9.826 -1.1166 -0.7865  0.4877
20779SOL     OW71114   8.256   8.155   8.900  0.2373 -0.0628  0.8526
20779SOL    HW171115   8.195   8.144   8.973  0.5534 -2.4393  0.8511
20779SOL    HW271116   8.276   8.065   8.872  1.2454  0.7341 -1.2300
20780SOL     OW71117   5.730   2.164   3.680 -0.1348 -0.5792 -0.1706
20780SOL    HW171118   5.721   2.076   3.643 -1.0254  0.0416 -1.4894
20780SOL    HW271119   5.825   2.180   3.680 -0.0735 -0.7391 -1.9498
20781SOL     OW71120  10.980   6.340   6.150 -0.6691 -0.0442  0.1177
20781SOL    HW171121  11.033   6.390   6.088 -0.3351 -1.0345 -0.4188
20781SOL    HW271122  11.012   6.367   6.236  1.9877 -1.8674 -0.1907
20782SOL     OW71123   7.081   8.259   4.706  0.0300 -0.1142  0.2321
20782SOL    HW171124   7.058   8.268   4.614 -1.6654  0.0944  0.6482
20782SOL    HW271125   7.086   8.349   4.739 -1.7170 -0.1975  0.8484
20783SOL     OW71126   8.907   9.695  11.808  0.8799  0.1707  0.2001
20783SOL    HW171127   8.922   9.603  11.829 -1.6045 -0.4259 -0.2782
20783SOL    HW271128   8.917   9.700  11.713 -1.4259 -0.2413 -0.1325
20784SOL     OW71129   2.289   9.689   6.326  0.5287  0.1958  0.3718
20784SOL    HW171130   2.305   9.620   6.390  0.8821  0.3590  0.4608
20784SOL    HW271131   2.359   9.680   6.262  0.8843  0.8027  0.6669
20785SOL     OW71132  10.861  10.433   4.719 -0.1674 -0.1389 -0.0087
20785SOL    HW171133  10.774  10.473   4.718 -0.0466  0.2331 -2.0880
20785SOL    HW271134  10.874  10.403   4.629  2.9394  2.3613 -0.6120
20786SOL     OW71135   7.579   9.644   6.110  0.3675 -0.1101  0.0017
20786SOL    HW171136   7.643   9.714   6.095 -0.0154  0.3570  0.5018
20786SOL    HW271137   7.562   9.647   6.205  0.3837 -0.9160  0.0355
20787SOL     OW71138   2.847   0.198   0.431 -0.2367 -0.5328  0.0912
20787SOL    HW171139   2.813   0.260   0.367 -3.3437 -3.6570 -1.5832
20787SOL    HW271140   2.770   0.168   0.479  1.1690 -2.8222  1.0786
20788SOL     OW71141   0.275  12.237   7.602  0.3448 -0.0320 -0.1328
20788SOL    HW171142   0.257  12.211   7.693 -0.6699  0.0980 -0.2826
20788SOL    HW271143   0.210  12.190   7.550 -0.1987  1.2048 -0.6134
20789SOL     OW71144   6.649  12.001   9.379  0.5302 -0.4664  0.2029
20789SOL    HW171145   6.719  11.986   9.443  1.3297 -1.5226 -0.8848
20789SOL    HW271146   6.693  12.006   9.295 -0.7531 -2.4146 -0.6739
20790SOL     OW71147   8.089   0.550   2.071  0.0682 -0.4065 -0.7137
20790SOL    HW171148   8.031   0.527   1.999  1.1336 -0.7254 -1.4834
20790SOL    HW271149   8.035   0.538   2.150 -0.6260 -1.5851 -1.3460
20791SOL     OW71150   6.536   3.842   5.602  0.3395 -0.6197  0.1404
20791SOL    HW171151   6.490   3.783   5.661  0.6999 -0.8948  0.1452
20791SOL    HW271152   6.559   3.788   5.526  0.6255 -0.4751  0.1214
20792SOL     OW71153   2.667   6.149   0.994 -0.0338 -0.5096 -0.2230
20792SOL    HW171154   2.738   6.087   1.005  1.3033  1.2133  1.5916
20792SOL    HW271155   2.634   6.133   0.905  3.2530 -0.7712 -1.5407
20793SOL     OW71156   5.777  11.885  11.395  0.3898 -0.2237 -0.2087
20793SOL    HW171157   5.747  11.799  11.425  0.8990 -1.3148 -2.5748
20793SOL    HW271158   5.873  11.879  11.398  0.4320  0.0854 -0.7911
20794SOL     OW71159   9.695   5.647   3.207 -0.3340 -0.6143 -0.2833
20794SOL    HW171160   9.701   5.552   3.200  1.8039 -0.6725  1.3379
20794SOL    HW271161   9.760   5.671   3.273 -1.3516  1.9162 -0.0611
20795SOL     OW71162   6.703   0.057   5.448 -0.2148 -0.2571  0.1141
20795SOL    HW171163   6.742  -0.030   5.447  1.0090  0.2063  2.2464
20795SOL    HW271164   6.749   0.105   5.379  0.1544 -0.8553 -0.0603
20796SOL     OW71165   9.073   0.921   5.659 -0.4593 -0.5694  0.1573
20796SOL    HW171166   8.992   0.881   5.627 -0.4844 -0.3636 -0.0449
20796SOL    HW271167   9.135   0.909   5.586 -0.6564  0.3401 -0.1763
20797SOL     OW71168  11.608   5.348   2.300 -0.2728  0.5696 -0.0148
20797SOL    HW171169  11.583   5.408   2.230  0.9688  1.8596  0.5729
20797SOL    HW271170  11.704   5.355   2.304 -0.2539 -0.0962  1.2605
20798SOL     OW71171   6.609   8.162   0.295 -0.1975 -0.1364  0.9568
20798SOL    HW171172   6.614   8.257   0.305 -1.0087  0.1068 -0.7121
20798SOL    HW271173   6.524   8.138   0.332 -1.0944  0.1499 -0.8043
20799SOL     OW71174  10.925   4.397   1.043 -0.5620 -0.2266  0.2391
20799SOL    HW171175  10.860   4.449   1.089 -0.1597  1.1044 -0.6316
20799SOL    HW271176  10.966   4.343   1.111 -0.4194  1.2123  1.3373
20800SOL     OW71177  12.244   2.851  11.756 -0.0203  0.1011 -0.3173
20800SOL    HW171178  12.188   2.896  11.692  0.1687  1.3476  0.3481
20800SOL    HW271179  12.183   2.823  11.825 -0.0239  0.1314 -0.3081
20801SOL     OW71180  11.649   6.589   9.509 -0.5045 -0.7318 -0.1082
20801SOL    HW171181  11.560   6.608   9.538 -0.1854  1.2072 -0.2464
20801SOL    HW271182  11.641   6.571   9.416 -1.0016 -2.8852  0.2915
20802SOL     OW71183   3.526   6.217  10.280 -0.0930 -0.2787  0.4443
20802SOL    HW171184   3.480   6.300  10.278 -1.1786 -0.8779 -0.2407
20802SOL    HW271185   3.544   6.197  10.188 -0.3023 -1.0465  0.5645
20803SOL     OW71186   9.093  12.314   8.815 -0.0264  0.0627 -0.0059
20803SOL    HW171187   9.106  12.298   8.721  1.1668  0.1252  0.1414
20803SOL    HW271188   9.071  12.229   8.851 -2.7366  0.3953 -0.6716
20804SOL     OW71189   7.210   2.694   7.373 -0.2291  0.2990  0.1268
20804SOL    HW171190   7.225   2.699   7.468 -0.9192 -0.1177  0.2640
20804SOL    HW271191   7.203   2.600   7.355  0.9797  0.3105 -0.5219
20805SOL     OW71192  10.531   5.604   3.461  0.1649  0.3672 -0.3738
20805SOL    HW171193  10.471   5.638   3.395 -1.4945  0.2434  1.0178
20805SOL    HW271194  10.517   5.509   3.460 -0.0175  0.3820  0.2731
20806SOL     OW71195   6.252   6.680   1.106 -0.1204 -0.0467  0.3475
20806SOL    HW171196   6.281   6.648   1.191  0.2885 -2.2537 -0.5448
20806SOL    HW271197   6.178   6.624   1.083  0.7977 -0.6405 -1.4209
20807SOL     OW71198  11.871   5.257   7.822 -0.0878  0.1480 -0.5085
20807SOL    HW171199  11.802   5.253   7.888 -0.3056  0.8798 -0.6838
20807SOL    HW271200  11.874   5.168   7.785  1.2481 -0.7807  1.6601
20808SOL     OW71201   0.801   6.089   3.038 -0.6667  0.1535 -0.0009
20808SOL    HW171202   0.787   6.038   3.117 -2.0045 -0.5971 -0.6820
20808SOL    HW271203   0.755   6.171   3.053 -0.5928  0.1681  0.1442
20809SOL     OW71204   1.716  10.387   2.356  0.3903 -0.0919  0.2330
20809SOL    HW171205   1.632  10.364   2.396 -0.0448 -0.1206 -0.6689
20809SOL    HW271206   1.732  10.477   2.383  0.8514 -0.5956  1.6975
20810SOL     OW71207   5.673   0.040  10.009 -0.5880 -0.4941 -0.1847
20810SOL    HW171208   5.599   0.069   9.956 -0.3599 -0.9649 -0.7694
20810SOL    HW271209   5.682   0.107  10.077  0.4959  1.3117 -2.0123
20811SOL     OW71210   9.461   6.369  12.008 -0.0659  0.5576  0.1909
20811SOL    HW171211   9.381   6.316  12.007  1.0836 -1.5855  3.3785
20811SOL    HW271212   9.529   6.311  11.972  0.5595  1.2940  0.1527
20812SOL     OW71213  12.468   5.569   4.248 -0.2419 -0.3288  0.2181
20812SOL    HW171214  12.551   5.593   4.289 -0.0835  1.2946 -0.9332
20812SOL    HW271215  12.452   5.479   4.276  0.9307 -0.0294  2.0023
20813SOL     OW71216   5.382  10.302   4.105 -0.3527 -0.0774  0.1915
20813SOL    HW171217   5.418  10.375   4.155  1.5101 -0.8527  0.0623
20813SOL    HW271218   5.422  10.224   4.144 -2.3771 -1.0841  0.4066
20814SOL     OW71219  12.307   4.806   3.165 -0.2326 -0.6998 -0.1060
20814SOL    HW171220  12.264   4.730   3.126 -1.5393  1.7897 -4.0550
20814SOL    HW271221  12.235   4.862   3.194  0.5544  0.4910 -0.3724
20815SOL     OW71222   2.560  10.066   8.162  0.3211 -0.1183  0.4285
20815SOL    HW171223   2.521   9.987   8.198  1.4074 -0.2369  1.4139
20815SOL    HW271224   2.606  10.036   8.083  1.0538 -0.5475  1.0123
20816SOL     OW71225   6.537   4.522   7.433  0.2041 -1.0856 -0.0141
20816SOL    HW171226   6.532   4.430   7.407  0.3740 -0.8610 -0.8859
20816SOL    HW271227   6.593   4.562   7.367  0.8400 -0.5201  0.8457
20817SOL     OW71228   7.018   7.105   3.233  0.3667  0.2407  0.5770
20817SOL    HW171229   7.071   7.079   3.158  0.7967  0.2358  0.8775
20817SOL    HW271230   6.942   7.149   3.195  0.8084  0.6475  0.1483
20818SOL     OW71231   8.678   1.403   5.730  0.2973  0.3303 -0.5669
20818SOL    HW171232   8.751   1.415   5.670 -0.3964 -1.7147 -1.9139
20818SOL    HW271233   8.694   1.318   5.772 -1.0375  0.0524 -0.5439
20819SOL     OW71234   3.448   2.876  10.430 -0.1469 -0.0395  0.1001
20819SOL    HW171235   3.486   2.816  10.494  1.0614  1.4954  0.8878
20819SOL    HW271236   3.422   2.819  10.357  3.6671 -1.3103 -0.5051
20820SOL     OW71237   4.609   1.050  11.830 -0.0119 -0.6027 -0.4314
20820SOL    HW171238   4.539   0.985  11.818 -0.9772  0.6484 -2.0670
20820SOL    HW271239   4.604   1.104  11.751  0.4576  1.7413  1.0485
20821SOL     OW71240   2.644   3.697   8.353 -0.1689  0.4159  0.3945
20821SOL    HW171241   2.695   3.738   8.283  2.1785  1.0687  2.3735
20821SOL    HW271242   2.629   3.768   8.416  1.5144 -1.0487  2.5601
20822SOL     OW71243   0.344   5.588   2.042  0.4671 -0.8772  0.5881
20822SOL    HW171244   0.395   5.613   2.119  2.9249 -1.6223 -0.7188
20822SOL    HW271245   0.365   5.654   1.976  0.4030 -1.6642 -0.2350
20823SOL     OW71246  11.626   0.281   6.490 -0.3509  0.3759  0.5117
20823SOL    HW171247  11.678   0.331   6.553  0.3314 -0.0953  0.3313
20823SOL    HW271248  11.627   0.191   6.525 -0.7184  0.2874  0.2985
20824SOL     OW71249   4.915  10.903   6.753  0.0623 -0.3716 -0.0916
20824SOL    HW171250   4.958  10.865   6.676 -1.0025 -0.0293 -0.8824
20824SOL    HW271251   4.910  10.997   6.734 -0.4512 -0.3224  0.2672
20825SOL     OW71252   1.635  12.350   9.187  0.1158 -0.7661 -0.6067
20825SOL    HW171253   1.541  12.339   9.172 -0.0849  0.5576 -0.4175
20825SOL    HW271254   1.674  12.347   9.099 -0.0196 -1.8962 -0.6420
20826SOL     OW71255   5.032   7.959  12.163  0.3143  0.2735  0.0360
20826SOL    HW171256   5.068   8.047  12.170  0.1117  0.3809 -0.2501
20826SOL    HW271257   5.005   7.951  12.072  0.8561 -0.2906 -0.0884
20827SOL     OW71258   6.300  10.463   3.018  0.4099 -0.6051  0.2791
20827SOL    HW171259   6.332  10.508   3.096 -1.2210  0.4018  0.4223
20827SOL    HW271260   6.361  10.490   2.948  0.9371 -0.2120  0.8820
20828SOL     OW71261   5.154   6.086   0.625 -0.9885 -0.3578  0.0944
20828SOL    HW171262   5.153   6.044   0.539  1.6382 -1.6240  0.5884
20828SOL    HW271263   5.096   6.033   0.678 -0.4611 -1.2669 -0.2106
20829SOL     OW71264   1.262   1.489   1.013 -0.1669 -0.1398 -0.1015
20829SOL    HW171265   1.352   1.463   1.035  0.4142  0.7437 -1.3353
20829SOL    HW271266   1.219   1.408   0.986  0.2225 -0.5884  0.5982
20830SOL     OW71267   4.812   9.137   0.603 -0.3143  0.7811 -0.6380
20830SOL    HW171268   4.820   9.120   0.509  3.0951  0.3976 -0.4239
20830SOL    HW271269   4.771   9.059   0.638 -0.1217  0.2050 -1.6490
20831SOL     OW71270   8.747   7.380   0.384 -0.3977  0.1158  0.0366
20831SOL    HW171271   8.814   7.447   0.400  1.3169 -1.3083 -0.8065
20831SOL    HW271272   8.725   7.389   0.291 -0.6012 -0.1085  0.0608
20832SOL     OW71273  12.257  10.824   4.562  0.1128  0.1028  0.0646
20832SOL    HW171274  12.330  10.837   4.503  0.5057 -0.8086  0.3278
20832SOL    HW271275  12.291  10.846   4.649  0.2626 -0.8602  0.2654
20833SOL     OW71276   5.493   3.885   2.853 -0.1435 -0.2235  0.2888
20833SOL    HW171277   5.574   3.923   2.819 -0.5262  0.0895 -0.2969
20833SOL    HW271278   5.431   3.892   2.780 -0.8411 -0.0184  0.8901
20834SOL     OW71279   5.012   8.346   3.036 -0.0327  0.5956  0.5821
20834SOL    HW171280   4.920   8.367   3.055  0.3367  2.1646  0.8319
20834SOL    HW271281   5.012   8.320   2.944 -0.9987 -1.4245  1.1030
20835SOL     OW71282  12.174   3.484   1.734 -0.3738  0.2978 -0.5559
20835SOL    HW171283  12.265   3.456   1.737  0.1699  1.6148 -2.5019
20835SOL    HW271284  12.138   3.443   1.655 -1.2303  0.4637 -0.2682
20836SOL     OW71285  11.804   2.076   7.078  0.0434 -0.3972  0.1747
20836SOL    HW171286  11.894   2.044   7.064  0.6420  1.4333 -0.4122
20836SOL    HW271287  11.749   2.001   7.054  1.3940 -1.9152  1.5257
20837SOL     OW71288   8.170   1.535   6.132  0.3333 -0.3385  0.5553
20837SOL    HW171289   8.143   1.568   6.218 -0.8924 -1.0024  0.4499
20837SOL    HW271290   8.093   1.489   6.099  1.5664 -2.2082  0.1610
20838SOL     OW71291   2.196   0.211   0.369 -0.4100  0.8486  0.1200
20838SOL    HW171292   2.272   0.175   0.415 -1.4458  1.0992  2.1638
20838SOL    HW271293   2.219   0.303   0.353 -0.1290  0.8200  0.3595
20839SOL     OW71294   1.253  12.106   2.113  0.2791 -0.1561 -0.4390
20839SOL    HW171295   1.288  12.017   2.106  0.7117 -0.0934  0.7296
20839SOL    HW271296   1.200  12.117   2.034  2.3942 -0.4512 -1.9863
20840SOL     OW71297   1.810   8.696  10.760 -0.0577  0.8088  0.4666
20840SOL    HW171298   1.751   8.768  10.781  1.5162  2.5333 -0.7177
20840SOL    HW271299   1.787   8.671  10.670 -2.0974 -1.8021  1.5806
20841SOL     OW71300  11.818   8.181   1.163 -0.5791 -0.2887 -0.5463
20841SOL    HW171301  11.803   8.214   1.251 -0.9687 -2.2511  0.1545
20841SOL    HW271302  11.901   8.222   1.137 -0.9201  1.0323  0.3431
20842SOL     OW71303   1.651  10.290  11.513  0.0583  0.5942  0.6279
20842SOL    HW171304   1.712  10.297  11.587 -0.5128 -2.6366  1.5747
20842SOL    HW271305   1.707  10.281  11.436  0.7658 -0.2225  1.2209
20843SOL     OW71306   6.511   1.618   3.533 -0.3539  1.0864  0.1342
20843SOL    HW171307   6.557   1.634   3.451 -1.0903 -0.2999 -0.5774
20843SOL    HW271308   6.579   1.620   3.600  0.8416 -1.1475 -0.9099
20844SOL     OW71309   0.703   2.465   1.957 -0.2761 -0.5957  0.2338
20844SOL    HW171310   0.694   2.560   1.953 -0.1930 -0.6073 -0.2865
20844SOL    HW271311   0.662   2.440   2.040  0.8713  0.0347  1.0341
20845SOL     OW71312   4.418  12.176   9.112 -0.2434  0.5718  0.3778
20845SOL    HW171313   4.452  12.129   9.036 -2.1047  0.0687 -0.1870
20845SOL    HW271314   4.447  12.124   9.187  1.2654  0.8508  0.0119
20846SOL     OW71315   7.100   7.432  11.600 -0.3282  0.1244 -0.3120
20846SOL    HW171316   7.008   7.422  11.573 -0.8260  1.7374  0.6074
20846SOL    HW271317   7.124   7.348  11.637 -1.4070 -0.3564 -0.6716
20847SOL     OW71318  10.391   7.547  10.637 -0.2041  0.9910  0.5170
20847SOL    HW171319  10.484   7.563  10.619 -0.1766  1.6494  1.1746
20847SOL    HW271320  10.388   7.528  10.731 -0.4311 -1.5520  0.0519
20848SOL     OW71321   2.121   8.241   5.721  0.0557  0.1550  0.3498
20848SOL    HW171322   2.154   8.245   5.811  0.6158  0.1595  0.1516
20848SOL    HW271323   2.169   8.169   5.681 -0.2318  0.1167  0.0684
20849SOL     OW71324  11.771   4.014   3.136  0.1428  0.0057  0.0107
20849SOL    HW171325  11.774   4.072   3.212  1.2729 -0.6894  0.5280
20849SOL    HW271326  11.725   3.936   3.168 -1.4836  0.6293 -0.7169
20850SOL     OW71327   2.255   8.847   1.975  0.2018  0.3491  0.3049
20850SOL    HW171328   2.230   8.875   2.063  0.8600 -0.0402  0.6215
20850SOL    HW271329   2.278   8.928   1.930 -0.9374  0.6428  0.2212
20851SOL     OW71330  11.400   7.235   3.171 -0.0636 -0.0669  0.5244
20851SOL    HW171331  11.376   7.203   3.083  0.6868  1.6006 -0.3265
20851SOL    HW271332  11.354   7.318   3.179  0.7092  0.2872  1.2998
20852SOL     OW71333   2.166   0.532   9.004 -0.6367  0.1022 -0.3180
20852SOL    HW171334   2.107   0.458   9.016 -0.7790  0.3309  0.4865
20852SOL    HW271335   2.136   0.597   9.068  0.4868  0.2154  0.1225
20853SOL     OW71336  11.221  10.093   9.490  0.6336  0.3551  0.6024
20853SOL    HW171337  11.161  10.162   9.521  1.6802  1.6962 -0.2577
20853SOL    HW271338  11.188  10.013   9.532 -2.1681  0.8891 -0.3621
20854SOL     OW71339   2.392  11.719   5.327 -0.4895 -0.0686  0.3473
20854SOL    HW171340   2.371  11.719   5.233  1.3009 -2.6710 -0.1766
20854SOL    HW271341   2.332  11.654   5.364  1.0516 -1.5907  0.2994
20855SOL     OW71342   6.334  10.333   1.875 -0.1108 -0.3101 -0.0265
20855SOL    HW171343   6.286  10.415   1.888  1.3177  0.7529 -1.0688
20855SOL    HW271344   6.353  10.332   1.781  0.9585 -1.2292  0.1826
20856SOL     OW71345   5.178  12.435  11.884 -0.4530  0.8091  0.5730
20856SOL    HW171346   5.179  12.381  11.805 -0.3766  2.7777 -0.8389
20856SOL    HW271347   5.123  12.386  11.946  0.5892 -1.4489 -0.1591
20857SOL     OW71348   7.178   0.271   3.808 -0.6231  0.2093  0.0936
20857SOL    HW171349   7.199   0.363   3.821 -1.4843  0.5075 -0.5304
20857SOL    HW271350   7.083   0.267   3.815 -0.8917 -0.1453 -2.6803
20858SOL     OW71351   2.107  11.681   7.592  0.1253  0.1966  0.2901
20858SOL    HW171352   2.104  11.638   7.678 -0.1078 -1.4226 -0.5008
20858SOL    HW271353   2.073  11.616   7.531  0.7526  1.1433 -1.1181
20859SOL     OW71354   8.983  10.290   6.862  0.0799 -0.1476 -0.2147
20859SOL    HW171355   8.912  10.341   6.901  0.2890  0.6143 -0.7884
20859SOL    HW271356   9.063  10.335   6.891  0.2149  1.3822 -2.6720
20860SOL     OW71357   9.056   6.613   0.585 -0.3676  0.1399 -0.4420
20860SOL    HW171358   8.961   6.623   0.574 -0.7271 -1.4049  0.9093
20860SOL    HW271359   9.075   6.657   0.668  0.4615  2.0976 -1.6058
20861SOL     OW71360   5.622   6.803   3.658 -0.3663  0.0251  0.0608
20861SOL    HW171361   5.607   6.787   3.565 -1.3184  0.4632  0.1285
20861SOL    HW271362   5.561   6.743   3.702 -2.5448  2.3061  0.3391
20862SOL     OW71363  12.258   3.669   1.360  0.5410  0.2485  0.0530
20862SOL    HW171364  12.345   3.634   1.381  1.0106  0.8051 -0.9349
20862SOL    HW271365  12.275   3.743   1.301 -0.5744  0.6922  0.2619
20863SOL     OW71366   6.451  11.846   6.037 -0.1088 -0.3075  0.6638
20863SOL    HW171367   6.510  11.919   6.058 -0.3030  0.1868 -0.4368
20863SOL    HW271368   6.370  11.866   6.084  0.0923 -0.1912  0.9586
20864SOL     OW71369  10.928   0.655   2.736  0.3285  0.0395  0.0301
20864SOL    HW171370  10.847   0.685   2.777  1.1983  0.4732  1.5226
20864SOL    HW271371  10.976   0.611   2.807  1.7963  0.6084 -0.5645
20865SOL     OW71372  11.737  12.397   4.843 -0.1180 -0.2153  0.4866
20865SOL    HW171373  11.655  12.389   4.794 -0.2038  0.5127  0.5063
20865SOL    HW271374  11.716  12.361   4.930 -0.3986 -0.0872  0.4729
20866SOL     OW71375   6.122   0.550   7.332 -0.2321  0.1728 -0.6070
20866SOL    HW171376   6.072   0.520   7.256  1.3107 -0.9077 -1.2459
20866SOL    HW271377   6.085   0.636   7.353 -1.6012 -0.1116 -1.7123
20867SOL     OW71378  10.203   5.021   1.947 -0.2171  0.0356 -0.7064
20867SOL    HW171379  10.177   4.930   1.962 -0.5933  0.3373  0.5046
20867SOL    HW271380  10.240   5.050   2.030  1.5870  0.4512 -1.5897
20868SOL     OW71381   2.460   5.269   2.364  0.4669  0.3540  0.2435
20868SOL    HW171382   2.497   5.182   2.345 -0.2816 -0.0963  0.7745
20868SOL    HW271383   2.526   5.330   2.333  1.5191 -0.4203  0.8825
20869SOL     OW71384   0.774  11.424   8.850 -0.9744 -0.1608 -0.3670
20869SOL    HW171385   0.805  11.356   8.910 -1.8186 -0.0744  0.1712
20869SOL    HW271386   0.709  11.380   8.796 -1.4137  0.1854 -0.1186
20870SOL     OW71387  12.029   5.369   0.394  0.4504  0.0239 -0.4543
20870SOL    HW171388  12.030   5.353   0.299  2.6051  2.3027 -0.8962
20870SOL    HW271389  12.121   5.374   0.419 -0.0811  0.1192  1.6786
20871SOL     OW71390   9.496   0.544   5.148 -0.1471  0.0931  0.5976
20871SOL    HW171391   9.485   0.528   5.054  1.9580 -0.7505  0.4281
20871SOL    HW271392   9.560   0.614   5.153 -0.5166  0.3817  1.4146
20872SOL     OW71393   0.961   3.065  11.068 -0.4887 -0.5013  0.0977
20872SOL    HW171394   0.961   3.157  11.094 -1.6545  0.1172 -1.8269
20872SOL    HW271395   1.034   3.057  11.006  0.3214 -1.1718  1.1134
20873SOL     OW71396   3.962   5.158   6.910  0.1881  0.3169 -0.0198
20873SOL    HW171397   3.903   5.205   6.852  0.0442  1.7406  1.2124
20873SOL    HW271398   3.936   5.067   6.903  0.9217  0.2574 -3.0167
20874SOL     OW71399  10.555   3.653   5.845  0.0346  0.7622  0.4125
20874SOL    HW171400  10.497   3.685   5.775  1.2903 -1.7625 -1.9830
20874SOL    HW271401  10.500   3.594   5.896 -0.1103  0.0833 -0.5003
20875SOL     OW71402   1.783   3.574   7.257 -0.0430  0.0436  0.0770
20875SOL    HW171403   1.719   3.634   7.217 -0.7463 -0.4525  0.4330
20875SOL    HW271404   1.753   3.487   7.231  0.9244 -0.1680 -0.3694
20876SOL     OW71405   9.904   6.673  10.446  0.0938  0.2735  0.4804
20876SOL    HW171406   9.882   6.730  10.372 -0.9705 -0.3283  0.3052
20876SOL    HW271407   9.997   6.653  10.436  0.0808  0.6417 -0.3839
20877SOL     OW71408   9.674  11.260  10.270  0.0147 -0.4535  0.4342
20877SOL    HW171409   9.713  11.264  10.358  2.6979  0.5395 -0.6993
20877SOL    HW271410   9.641  11.349  10.255  0.9160 -0.2076 -0.1162
20878SOL     OW71411   0.443   0.583   5.221  0.1761  0.7471 -0.2725
20878SOL    HW171412   0.374   0.521   5.199  0.4476 -0.0491  0.9834
20878SOL    HW271413   0.399   0.667   5.231 -0.9965 -0.0734  2.3293
20879SOL     OW71414  11.232   4.842   0.487 -0.0615 -0.8199 -0.2045
20879SOL    HW171415  11.147   4.798   0.483  0.0404 -0.9479 -1.0304
20879SOL    HW271416  11.279   4.811   0.410  1.3042 -1.8923  0.9931
20880SOL     OW71417   5.883   7.858  10.086  0.0278 -0.1447  0.1164
20880SOL    HW171418   5.949   7.828  10.148 -1.1847 -1.7270  0.7068
20880SOL    HW271419   5.828   7.918  10.137 -0.3305 -0.6095  0.2854
20881SOL     OW71420   2.502   3.004   6.960  0.5096 -0.4599  0.1853
20881SOL    HW171421   2.485   2.932   7.022  1.6551 -0.2322  0.7806
20881SOL    HW271422   2.562   2.967   6.896  0.7399 -0.1607  0.2295
20882SOL     OW71423   4.336   9.430  12.019  0.5207  0.0161  0.4808
20882SOL    HW171424   4.311   9.390  12.103  0.1941  0.4299  0.5851
20882SOL    HW271425   4.340   9.524  12.038  2.0289 -0.0204  0.4274
20883SOL     OW71426   3.725   6.921   1.165  0.1960  1.0862 -0.0263
20883SOL    HW171427   3.738   6.961   1.079 -0.0552  4.1506  1.2533
20883SOL    HW271428   3.640   6.955   1.194  0.7159  0.8969  1.8254
20884SOL     OW71429   3.861   2.281   6.049 -0.0277  0.2454  0.3100
20884SOL    HW171430   3.889   2.346   5.985 -0.1960  0.6334  0.6253
20884SOL    HW271431   3.929   2.283   6.117 -1.9101  2.9539  2.3336
20885SOL     OW71432   2.511   0.732  10.947  0.1289 -0.6664 -0.2223
20885SOL    HW171433   2.456   0.778  10.883  0.8736 -0.0166 -0.4126
20885SOL    HW271434   2.526   0.796  11.016 -0.4340 -1.2777  0.4736
20886SOL     OW71435   3.579  11.659   7.508 -0.4032 -0.1837  0.4483
20886SOL    HW171436   3.530  11.676   7.427  0.9526  1.4216 -0.0929
20886SOL    HW271437   3.655  11.607   7.479  0.3149  0.7597  0.5779
20887SOL     OW71438   6.349   4.556   3.766 -0.0475  0.5965 -0.1216
20887SOL    HW171439   6.272   4.506   3.738  0.2644  0.7216 -1.2942
20887SOL    HW271440   6.418   4.490   3.779  0.5119  0.6890 -2.1730
20888SOL     OW71441   4.828   6.580   5.261 -0.4302 -0.1338  0.1350
20888SOL    HW171442   4.894   6.521   5.226  0.3952 -0.0253  1.4498
20888SOL    HW271443   4.748   6.558   5.213  0.2838 -1.0547 -0.6674
20889SOL     OW71444   2.262   1.689  12.441  0.0141 -0.2868  0.1393
20889SOL    HW171445   2.223   1.714  12.357  0.1387  0.4031  0.2812
20889SOL    HW271446   2.340   1.744  12.448 -0.5460  0.4074  1.1691
20890SOL     OW71447  11.556   8.032   3.309  0.1816  0.0911  0.3179
20890SOL    HW171448  11.641   7.992   3.293  0.1493 -0.0812  0.5800
20890SOL    HW271449  11.542   8.022   3.403 -0.3028 -0.2331  0.2142
20891SOL     OW71450   8.849   0.418   9.757  0.2069 -0.6386  0.2021
20891SOL    HW171451   8.818   0.449   9.842 -0.0631 -1.2322  0.3243
20891SOL    HW271452   8.837   0.493   9.698  0.5438 -0.1727  0.7138
20892SOL     OW71453   5.825   2.133   4.093 -0.1669 -0.4462  0.7735
20892SOL    HW171454   5.848   2.220   4.061  1.2043 -0.1325  2.4821
20892SOL    HW271455   5.877   2.073   4.039 -0.7884 -0.1885 -0.1191
20893SOL     OW71456   7.733   5.028   4.371 -0.1062  0.2279  0.5917
20893SOL    HW171457   7.811   4.993   4.415 -1.9406 -2.1844  2.1935
20893SOL    HW271458   7.740   4.995   4.281 -0.7131 -2.6692  1.5185
20894SOL     OW71459   1.853   5.051   7.120 -0.0557 -0.1253 -0.2407
20894SOL    HW171460   1.920   4.992   7.155  1.6354  1.0675 -1.2885
20894SOL    HW271461   1.896   5.137   7.119 -2.2437  1.0643  0.7583
20895SOL     OW71462   5.979  10.649   4.947  0.1015  0.0757  0.2263
20895SOL    HW171463   5.921  10.711   4.903 -0.8097  0.6578  2.1579
20895SOL    HW271464   5.975  10.673   5.040  0.2455 -2.4634  0.9686
20896SOL     OW71465   4.717   7.369  10.369  0.0496 -0.2067  0.4497
20896SOL    HW171466   4.803   7.336  10.344  1.4944  2.5179  1.4337
20896SOL    HW271467   4.696   7.325  10.451 -1.1941 -3.4191 -1.3985
20897SOL     OW71468   7.964  11.874  12.308  0.0324  0.5020 -0.1461
20897SOL    HW171469   7.994  11.961  12.334 -1.2469  0.9858 -0.2547
20897SOL    HW271470   7.869  11.877  12.318  0.1524 -1.9670  3.1110
20898SOL     OW71471   4.155   6.623   7.680  0.5787  0.3376  0.2244
20898SOL    HW171472   4.061   6.607   7.668  0.5328  0.0242  0.9121
20898SOL    HW271473   4.179   6.683   7.610  0.0546 -0.2807 -0.4913
20899SOL     OW71474   5.313  12.605   5.407 -0.4198  0.2242 -0.5729
20899SOL    HW171475   5.380  12.665   5.440 -0.3630 -1.3788  2.5685
20899SOL    HW271476   5.360  12.551   5.343  1.1412 -0.3075  0.9256
20900SOL     OW71477   3.579   5.496   4.778 -0.4456 -0.2812 -0.1401
20900SOL    HW171478   3.542   5.408   4.783  0.1090 -0.4493  2.1574
20900SOL    HW271479   3.654   5.488   4.719 -0.1913 -1.4617  0.3183
20901SOL     OW71480   2.527   3.465   1.857  0.9755 -0.1225 -0.0337
20901SOL    HW171481   2.461   3.454   1.926  0.9583  0.7188  0.0868
20901SOL    HW271482   2.607   3.488   1.904  0.5551  2.2355 -0.3799
20902SOL     OW71483   9.669   0.664   3.669  0.0377 -0.1873  0.0448
20902SOL    HW171484   9.583   0.664   3.627  0.5538  1.0314 -1.1110
20902SOL    HW271485   9.659   0.606   3.745 -2.1869  0.9730  0.7455
20903SOL     OW71486   9.028  10.510   0.297  0.1126 -0.1427 -0.3909
20903SOL    HW171487   8.989  10.473   0.376  0.1320 -1.2725 -0.8846
20903SOL    HW271488   9.062  10.434   0.249 -0.4822  0.4298 -1.7962
20904SOL     OW71489   2.125   0.648   2.995  0.1295  0.1323  0.7303
20904SOL    HW171490   2.074   0.730   2.997  1.5705  1.0534  1.4623
20904SOL    HW271491   2.086   0.597   2.924 -2.7586  0.1373  2.1772
20905SOL     OW71492  10.217   7.187   7.648 -0.1830  0.0922 -0.1825
20905SOL    HW171493  10.268   7.267   7.665 -0.4129  0.5642 -1.5762
20905SOL    HW271494  10.232   7.169   7.555 -1.1936 -0.7462 -0.1938
20906SOL     OW71495   1.874   3.432   9.853  0.3995  0.2418 -0.0502
20906SOL    HW171496   1.940   3.477   9.906  0.9176  0.9487 -1.2663
20906SOL    HW271497   1.895   3.339   9.865  0.7843  0.4034  0.6189
20907SOL     OW71498   5.291  11.712   7.432  0.3775 -0.0246 -0.5936
20907SOL    HW171499   5.308  11.711   7.338  0.8239 -2.4024 -0.5582
20907SOL    HW271500   5.324  11.628   7.463 -0.3348  0.4371  1.5918
20908SOL     OW71501   6.039   3.433   8.386 -0.3176  0.1632  0.0870
20908SOL    HW171502   5.954   3.393   8.405 -0.5906  0.8968  0.4637
20908SOL    HW271503   6.102   3.360   8.391 -0.9695 -0.4555 -0.6105
20909SOL     OW71504   9.736  11.490   4.545  0.4014 -0.7019 -0.3202
20909SOL    HW171505   9.752  11.493   4.450 -0.6980 -0.9715 -0.5359
20909SOL    HW271506   9.640  11.491   4.552  0.4426 -2.0081  0.7337
20910SOL     OW71507   7.430  11.112  12.360  0.5771  0.1092 -0.5223
20910SOL    HW171508   7.373  11.064  12.300  0.7624  0.1424 -0.7287
20910SOL    HW271509   7.409  11.204  12.346 -1.1281  0.0533  1.2208
20911SOL     OW71510  12.328   9.731   2.001 -0.0595  0.2265 -0.1488
20911SOL    HW171511  12.367   9.798   1.945 -0.8027 -1.5634 -3.0175
20911SOL    HW271512  12.401   9.691   2.047  0.5673  1.8183  0.2987
20912SOL     OW71513   9.223   4.592   3.180 -0.2000  0.7918 -0.5574
20912SOL    HW171514   9.312   4.590   3.216  0.0410 -0.6669 -1.1886
20912SOL    HW271515   9.175   4.526   3.229 -0.0984 -0.5997 -2.2433
20913SOL     OW71516   7.213   3.434   0.436  0.7718  0.1429 -0.1335
20913SOL    HW171517   7.146   3.478   0.384  0.7979  1.3579  0.8192
20913SOL    HW271518   7.194   3.341   0.425 -2.1244  0.4432  1.3659
20914SOL     OW71519   7.415   3.177   7.898  0.0477  0.1455 -0.2101
20914SOL    HW171520   7.511   3.178   7.907 -0.0136 -0.7888  0.8995
20914SOL    HW271521   7.384   3.151   7.985 -1.0723 -2.3457 -1.2476
20915SOL     OW71522   4.401  11.947   5.627  0.3092  0.2919 -0.0869
20915SOL    HW171523   4.379  11.977   5.715 -2.9320 -1.5493 -0.1043
20915SOL    HW271524   4.391  12.026   5.572 -1.4445  0.6718  0.7221
20916SOL     OW71525   7.477   0.168   0.096  0.3280  0.7091  0.0591
20916SOL    HW171526   7.437   0.238   0.044  0.4540  0.7539  0.0228
20916SOL    HW271527   7.441   0.179   0.184  0.0445  0.5795 -0.0381
20917SOL     OW71528  11.033   9.064   7.443  0.2626  0.2635  0.2884
20917SOL    HW171529  10.984   9.098   7.369  3.1669  0.5489 -1.7037
20917SOL    HW271530  11.063   9.142   7.491 -1.1637  0.0950  1.5135
20918SOL     OW71531  10.932   1.326   1.962 -0.5805 -0.2738  0.1868
20918SOL    HW171532  10.936   1.421   1.970 -0.2074 -0.3509  0.9784
20918SOL    HW271533  10.985   1.294   2.034  0.0806 -1.0728 -0.6319
20919SOL     OW71534   7.606   6.065   1.875  0.5055  0.0920  0.3887
20919SOL    HW171535   7.549   6.008   1.926 -0.4143  0.0129 -0.7136
20919SOL    HW271536   7.557   6.085   1.796  2.8069 -1.7582 -1.6797
20920SOL     OW71537   7.112   8.502   4.800 -0.3092 -0.0651  0.8706
20920SOL    HW171538   7.057   8.579   4.812 -1.0983 -0.5915  0.6715
20920SOL    HW271539   7.197   8.538   4.773 -0.7236  0.7304  0.5858
20921SOL     OW71540   3.673  11.893   7.389 -0.2184 -0.0311  0.0633
20921SOL    HW171541   3.711  11.864   7.306 -0.3439 -1.2077  0.4002
20921SOL    HW271542   3.655  11.812   7.437 -0.9966  0.5968  0.8682
20922SOL     OW71543   3.872  10.773   8.435 -0.1592  0.2540  0.2065
20922SOL    HW171544   3.869  10.708   8.365 -0.8851  0.2296  0.2553
20922SOL    HW271545   3.829  10.850   8.399  1.7989  1.1904 -0.3014
20923SOL     OW71546   6.635  10.665   3.347 -0.2108  0.2966  0.1716
20923SOL    HW171547   6.664  10.600   3.410 -0.1746  0.2194  0.0763
20923SOL    HW271548   6.548  10.635   3.319 -0.2911  0.4131  0.3002
20924SOL     OW71549  11.466   4.083   1.560  0.1463  0.1484 -0.1697
20924SOL    HW171550  11.411   4.124   1.627 -1.1451 -1.0435 -0.4554
20924SOL    HW271551  11.514   4.014   1.606 -0.7728 -0.6989 -0.4463
20925SOL     OW71552   1.158   5.516  10.698 -0.1506  0.0770 -0.2893
20925SOL    HW171553   1.204   5.452  10.643  1.3043  0.6287  0.2535
20925SOL    HW271554   1.080   5.470  10.728 -0.8038 -0.3624 -2.5095
20926SOL     OW71555   2.748   2.469   7.010 -0.1701 -0.2890 -0.3383
20926SOL    HW171556   2.800   2.537   6.967 -0.2146 -0.2268 -0.2932
20926SOL    HW271557   2.796   2.388   6.994  1.2047  0.0407  1.6527
20927SOL     OW71558   7.667   6.063   3.077 -0.2015 -0.5136 -0.1450
20927SOL    HW171559   7.709   6.148   3.065 -2.5127  0.6355 -0.4466
20927SOL    HW271560   7.642   6.061   3.169 -0.9037 -0.4918 -0.3303
20928SOL     OW71561   1.828   4.073  10.259  0.1436 -0.5398 -0.4137
20928SOL    HW171562   1.740   4.110  10.270  0.4918  0.6798 -1.4712
20928SOL    HW271563   1.866   4.074  10.346 -0.7601 -0.7400 -0.0076
20929SOL     OW71564   0.823  11.473   3.026 -0.5933  0.0089  0.2034
20929SOL    HW171565   0.889  11.407   3.006 -0.9903 -0.9139  1.7474
20929SOL    HW271566   0.870  11.556   3.025  0.1204 -0.3852 -0.8047
20930SOL     OW71567  11.576   6.704   6.205 -0.4658 -0.0089 -0.1395
20930SOL    HW171568  11.544   6.662   6.126 -1.0632 -0.1747  0.1900
20930SOL    HW271569  11.596   6.632   6.265  1.3051  0.0321 -0.6132
20931SOL     OW71570   4.915   0.824   1.878 -0.1434  0.5284 -0.8375
20931SOL    HW171571   4.828   0.863   1.889 -0.6134 -0.4029 -1.1570
20931SOL    HW271572   4.975   0.898   1.888 -0.9879  1.2779 -1.0947
20932SOL     OW71573   3.057   1.678   5.065 -0.0580 -0.5781  0.2968
20932SOL    HW171574   2.978   1.732   5.072 -0.7408 -1.6038  0.7941
20932SOL    HW271575   3.063   1.635   5.150  1.3648 -0.0927  0.4588
20933SOL     OW71576   5.533  11.904   8.629 -0.1797 -0.2325  0.1429
20933SOL    HW171577   5.542  11.986   8.678  0.1007  0.3540 -0.8662
20933SOL    HW271578   5.467  11.854   8.677  0.4204  0.1247  1.3794
20934SOL     OW71579   1.462  10.288   2.393  0.4959 -0.0032  0.0151
20934SOL    HW171580   1.402  10.361   2.374  0.4315 -0.4403 -1.6144
20934SOL    HW271581   1.457  10.233   2.315 -1.8574 -3.4881  2.3185
20935SOL     OW71582   7.547   9.245   6.388 -0.3667  0.2428 -0.1985
20935SOL    HW171583   7.526   9.330   6.427  1.7228 -0.2756  2.2865
20935SOL    HW271584   7.614   9.264   6.322  0.4788  0.4844  0.7216
20936SOL     OW71585   2.709   8.633   0.977 -0.2779 -0.7258 -0.1129
20936SOL    HW171586   2.741   8.635   0.887 -1.7099  0.2158 -0.6310
20936SOL    HW271587   2.788   8.620   1.030  1.3464  3.2288 -1.1997
20937SOL     OW71588   4.211   8.827   1.654  0.3356 -0.2263 -0.1246
20937SOL    HW171589   4.185   8.879   1.578 -0.7600 -0.5209  0.0239
20937SOL    HW271590   4.199   8.736   1.626  0.4554 -0.3498  0.2167
20938SOL     OW71591   4.921   8.488   8.267  0.2031 -0.0662  0.4781
20938SOL    HW171592   4.828   8.513   8.273  0.0273 -0.7613  0.7049
20938SOL    HW271593   4.945   8.511   8.177 -0.5378 -1.0207  0.0149
20939SOL     OW71594   6.043   8.350   8.518  0.6650  0.6065  0.7176
20939SOL    HW171595   6.130   8.368   8.482  0.6499  2.4605  1.4868
20939SOL    HW271596   6.050   8.375   8.610 -0.2493 -0.8132  1.2082
20940SOL     OW71597  10.829   4.858  10.725  0.1884  0.3601  0.3987
20940SOL    HW171598  10.898   4.795  10.745  0.7065  1.1344  1.1114
20940SOL    HW271599  10.753   4.827  10.773  0.4977  0.3748  0.9018
20941SOL     OW71600   8.988   3.172   3.681 -0.5840  0.2472  0.1686
20941SOL    HW171601   9.042   3.100   3.713 -1.8617 -0.5406  0.6084
20941SOL    HW271602   9.036   3.206   3.605  0.7871 -0.0617  0.8620
20942SOL     OW71603   4.578   6.182   9.101  0.2438  0.4431  0.2392
20942SOL    HW171604   4.546   6.093   9.091  0.7297  0.3765 -0.7567
20942SOL    HW271605   4.502   6.231   9.133  0.1344 -0.4345  1.3898
20943SOL     OW71606   5.484   8.521   8.539  0.5655 -0.4895  0.2983
20943SOL    HW171607   5.555   8.522   8.476  1.0381  1.0598  0.8112
20943SOL    HW271608   5.439   8.438   8.524 -0.4643  0.5415 -3.3109
20944SOL     OW71609   3.488   9.171   6.612 -0.2873  0.8384  0.4562
20944SOL    HW171610   3.409   9.181   6.666 -0.1851  0.3169  0.7160
20944SOL    HW271611   3.509   9.078   6.618  0.7319  1.0813  0.9361
20945SOL     OW71612   1.082  11.347   2.954 -0.2860 -0.3152 -0.6022
20945SOL    HW171613   1.134  11.354   2.874 -1.7085 -2.2542 -1.7733
20945SOL    HW271614   1.142  11.374   3.023  1.3124  0.4339 -2.1960
20946SOL     OW71615   9.627   1.014   1.147 -0.1311  0.0620  0.4053
20946SOL    HW171616   9.617   0.927   1.108  1.4456 -0.3908  0.9465
20946SOL    HW271617   9.554   1.020   1.209  0.7118 -1.6416  1.6651
20947SOL     OW71618  10.538   7.511   1.534  0.0086 -0.3147  0.1903
20947SOL    HW171619  10.518   7.420   1.555  0.6542 -0.6621 -0.6743
20947SOL    HW271620  10.622   7.508   1.488  1.1264  0.9310  2.0063
20948SOL     OW71621   0.635   8.047   4.111 -0.1636 -0.8393 -0.1032
20948SOL    HW171622   0.718   8.011   4.141  0.8913  0.1496 -1.6316
20948SOL    HW271623   0.597   8.088   4.188  1.7993  0.5065  0.2259
20949SOL     OW71624  10.857   9.452   3.886 -0.2671 -0.6399  0.0057
20949SOL    HW171625  10.933   9.453   3.944 -1.1020 -1.1716  1.1438
20949SOL    HW271626  10.797   9.516   3.925 -0.2741  0.0506 -1.0923
20950SOL     OW71627   0.831   9.692   0.425 -0.0647 -0.1384 -0.4546
20950SOL    HW171628   0.910   9.705   0.371  1.0284 -0.8365  0.9018
20950SOL    HW271629   0.828   9.597   0.439 -0.3483  0.0190  0.6498
20951SOL     OW71630  12.325   4.457  12.269 -0.3945 -0.0344  0.5743
20951SOL    HW171631  12.235   4.451  12.300  0.1510 -1.7377  1.9707
20951SOL    HW271632  12.369   4.380  12.304  1.3969  0.2389 -0.8678
20952SOL     OW71633   9.509   6.834  12.026  0.5018  0.0089 -0.1731
20952SOL    HW171634   9.463   6.839  12.109 -0.5054 -0.1152 -0.7032
20952SOL    HW271635   9.499   6.921  11.987  2.3698  0.5885  0.5203
20953SOL     OW71636   0.260   7.918   5.754  0.2449 -0.8488 -0.0522
20953SOL    HW171637   0.272   8.013   5.757  1.4261 -1.0117  0.9159
20953SOL    HW271638   0.218   7.903   5.669  0.2752  0.5017 -0.3408
20954SOL     OW71639   2.642   9.294   2.048 -0.3126  0.3910  0.1919
20954SOL    HW171640   2.584   9.236   1.999 -0.8302  1.4837 -0.5294
20954SOL    HW271641   2.725   9.292   2.000  0.1367 -0.7928  0.9512
20955SOL     OW71642   9.179  11.626  12.505 -0.1468 -0.1542 -0.2947
20955SOL    HW171643   9.201  11.662  12.420 -0.3169  0.6034 -0.0257
20955SOL    HW271644   9.262  11.620  12.551 -0.0293 -0.7369 -0.5739
20956SOL     OW71645   2.917  10.404   7.813  0.9173 -0.0306 -0.6093
20956SOL    HW171646   3.012  10.391   7.817  0.6130 -2.4776  1.2938
20956SOL    HW271647   2.898  10.411   7.719  2.8428 -1.0577 -1.1321
20957SOL     OW71648   7.992   8.211  12.593  0.1808 -0.2515 -0.3998
20957SOL    HW171649   8.045   8.213  12.513  0.7865 -0.8187 -0.0314
20957SOL    HW271650   8.041   8.153  12.652  1.1978  2.2696  1.3767
20958SOL     OW71651  10.550   1.548   6.880 -0.3040  0.9552  0.6047
20958SOL    HW171652  10.498   1.585   6.809 -0.0580  0.3453  0.0966
20958SOL    HW271653  10.606   1.621   6.909 -0.1455  1.1098 -0.0766
20959SOL     OW71654   3.078   7.856   7.917 -0.2177  0.2035 -0.0603
20959SOL    HW171655   3.047   7.914   7.848 -0.3665  1.4817  1.0346
20959SOL    HW271656   3.150   7.904   7.958  0.0726 -0.6676  0.4781
20960SOL     OW71657   4.393  10.231   8.846 -0.1387  0.1289  0.3849
20960SOL    HW171658   4.401  10.149   8.797  0.6806 -0.0800  0.8515
20960SOL    HW271659   4.299  10.249   8.847 -0.2598 -0.3950 -0.3864
20961SOL     OW71660   7.967   2.117  12.045 -0.0662 -0.1895 -0.3188
20961SOL    HW171661   7.872   2.105  12.050  0.0809 -1.0964  0.4274
20961SOL    HW271662   8.004   2.033  12.070  0.9630  0.4785  0.4975
20962SOL     OW71663   6.611  12.284   6.984  0.1146 -0.2771  0.2914
20962SOL    HW171664   6.704  12.269   6.965 -0.2491 -0.7325 -1.2727
20962SOL    HW271665   6.596  12.236   7.066  0.9769 -1.2727 -0.0972
20963SOL     OW71666   5.556   4.115   0.016 -0.3505  0.2235 -0.2024
20963SOL    HW171667   5.575   4.047   0.080 -1.5431  0.6978  0.7034
20963SOL    HW271668   5.548   4.195   0.068 -1.5199  0.5922 -0.9120
20964SOL     OW71669   4.090   9.861   1.161 -0.1678  0.4151 -0.0358
20964SOL    HW171670   4.185   9.874   1.158 -0.1562  0.5217  0.6326
20964SOL    HW271671   4.079   9.779   1.210 -0.3455 -0.7885 -1.9983
20965SOL     OW71672  10.310   8.768   3.422  0.0418 -0.2330  0.0797
20965SOL    HW171673  10.335   8.716   3.346  0.7738  1.0563 -0.5896
20965SOL    HW271674  10.214   8.766   3.421  0.0127  0.5489 -1.4600
20966SOL     OW71675   9.685  11.355   3.695  0.1682  0.1307  0.5923
20966SOL    HW171676   9.722  11.268   3.682 -0.9033 -0.1923 -0.4422
20966SOL    HW271677   9.632  11.371   3.617  0.4254  1.7639  0.7172
20967SOL     OW71678   0.170   4.753   4.906  0.0591  0.5810  0.3758
20967SOL    HW171679   0.176   4.700   4.827  2.0083  2.2257 -0.6907
20967SOL    HW271680   0.233   4.713   4.966  1.5108  1.5563 -0.4185
20968SOL     OW71681  10.352   8.662   0.432  0.2080 -0.0879  0.6189
20968SOL    HW171682  10.419   8.727   0.452 -0.4473  0.5094  0.9267
20968SOL    HW271683  10.275   8.692   0.481 -1.2419  0.9666 -2.0825
20969SOL     OW71684  12.157  10.836  10.557  0.2937 -0.2612  0.4091
20969SOL    HW171685  12.160  10.890  10.636  0.7782  0.0629  0.1773
20969SOL    HW271686  12.188  10.894  10.487 -0.5598 -0.4083 -0.1063
20970SOL     OW71687   9.556   8.536   2.480 -0.1564  0.0822  0.0255
20970SOL    HW171688   9.552   8.467   2.545  2.0958  0.6203  0.8270
20970SOL    HW271689   9.503   8.504   2.407 -1.3753 -1.2536  1.4408
20971SOL     OW71690   5.332   0.553   8.641  0.5563 -0.3332 -0.0372
20971SOL    HW171691   5.300   0.586   8.557  2.0553 -0.2697 -0.6002
20971SOL    HW271692   5.316   0.459   8.638  0.6308 -0.3344 -0.4065
20972SOL     OW71693   3.307   8.166   9.288 -0.3632  0.1207  0.5719
20972SOL    HW171694   3.353   8.150   9.371 -2.7367 -0.2703  1.9082
20972SOL    HW271695   3.351   8.108   9.226  0.3257 -0.9752  2.0037
20973SOL     OW71696   6.629   9.984   7.847  0.1246 -0.2532 -0.7662
20973SOL    HW171697   6.688   9.925   7.801 -1.4374 -1.1199 -1.7505
20973SOL    HW271698   6.597  10.044   7.779 -0.6190 -0.2082 -0.3836
20974SOL     OW71699   3.674   7.460   1.080 -0.0949 -0.3089 -0.3300
20974SOL    HW171700   3.585   7.433   1.101  0.3656 -1.3213  0.3796
20974SOL    HW271701   3.682   7.444   0.986 -0.4508 -0.8047 -0.2776
20975SOL     OW71702   6.519  10.250   2.653  0.7218  0.5310  0.4151
20975SOL    HW171703   6.592  10.311   2.645  0.2032  1.0004 -0.8506
20975SOL    HW271704   6.484  10.241   2.564 -1.0627  0.6816  1.0574
20976SOL     OW71705   9.354   2.952   6.028 -0.2139 -0.2139  0.0988
20976SOL    HW171706   9.316   3.015   5.967  0.7069 -0.1480 -0.4140
20976SOL    HW271707   9.322   2.867   5.998  0.1556 -0.1723 -0.4092
20977SOL     OW71708   8.456   5.947   9.623  0.4936 -0.5486 -0.0896
20977SOL    HW171709   8.372   5.924   9.663  0.4950 -0.7329 -0.1916
20977SOL    HW271710   8.460   5.895   9.543  1.7379 -2.3569  1.0689
20978SOL     OW71711  10.946   8.385  11.034 -0.2524 -0.1226  0.1936
20978SOL    HW171712  10.958   8.396  10.939  0.8775  0.5418  0.3823
20978SOL    HW271713  10.891   8.459  11.060 -0.0509  0.0521  0.1342
20979SOL     OW71714   8.308  11.552   3.767  0.3015 -0.0181 -0.6680
20979SOL    HW171715   8.334  11.498   3.842 -1.5973 -0.8224 -0.5142
20979SOL    HW271716   8.219  11.582   3.790 -0.9999 -1.5858 -3.2199
20980SOL     OW71717   7.185   1.467  10.882 -0.4821  0.1149  0.5102
20980SOL    HW171718   7.100   1.502  10.855 -0.7209  0.2469  1.3995
20980SOL    HW271719   7.185   1.377  10.849 -1.7575 -0.4982  2.0744
20981SOL     OW71720  10.962   3.312   7.641  0.2212  0.1644 -0.1499
20981SOL    HW171721  10.930   3.292   7.553  1.8459  1.0517 -0.9955
20981SOL    HW271722  10.989   3.227   7.677 -2.2702 -0.5057  0.3297
20982SOL     OW71723  11.400   0.984   2.056  0.0822 -0.3835 -0.9740
20982SOL    HW171724  11.336   1.055   2.056 -0.5629 -0.9430 -0.3229
20982SOL    HW271725  11.466   1.012   2.120 -0.9676 -1.0300  0.4484
20983SOL     OW71726   5.492   6.663   0.018  0.3022 -0.3180  1.0653
20983SOL    HW171727   5.520   6.752   0.037 -1.1670  0.9176 -1.8524
20983SOL    HW271728   5.568   6.609   0.039  2.0788  1.8973  0.7753
20984SOL     OW71729  12.427  12.497   4.767 -0.0579  0.1210  0.2507
20984SOL    HW171730  12.375  12.508   4.687  0.9220  1.7033 -0.2201
20984SOL    HW271731  12.439  12.586   4.800  1.0861 -0.3454  1.1604
20985SOL     OW71732   9.932   2.227   5.158 -0.2099 -0.4629  0.2583
20985SOL    HW171733  10.026   2.223   5.173 -0.0537  1.6260  0.1196
20985SOL    HW271734   9.923   2.237   5.064 -0.6138 -1.0477  0.2263
20986SOL     OW71735   3.842   3.755   7.111  0.0462 -0.1498 -0.3836
20986SOL    HW171736   3.775   3.800   7.163  0.6477  0.5714 -0.2185
20986SOL    HW271737   3.906   3.823   7.090  0.7720 -0.8473 -0.4678
20987SOL     OW71738   3.075   2.265  12.014 -0.2689 -0.1195  0.3571
20987SOL    HW171739   3.149   2.211  11.985 -0.4618  0.2201 -0.8367
20987SOL    HW271740   3.029   2.211  12.078  0.2352 -0.8820  0.0915
20988SOL     OW71741   9.143   5.099   1.858  0.3273  0.0373  0.2760
20988SOL    HW171742   9.140   5.130   1.767  0.0764 -2.5043 -0.6921
20988SOL    HW271743   9.231   5.064   1.868 -0.4357 -2.1037  0.0449
20989SOL     OW71744   2.773   2.522   1.591  0.4554  0.7886 -0.5879
20989SOL    HW171745   2.698   2.582   1.581  0.0323  0.6951  1.5508
20989SOL    HW271746   2.821   2.557   1.666 -0.9981 -2.6571  2.1923
20990SOL     OW71747   9.587  11.096   2.075 -0.0365 -0.4777 -0.6026
20990SOL    HW171748   9.536  11.174   2.095  0.2100 -0.6202  0.6343
20990SOL    HW271749   9.565  11.034   2.145  1.8937 -0.4964  0.0388
20991SOL     OW71750   5.760  10.575   2.321  0.4424  0.0313  0.3489
20991SOL    HW171751   5.837  10.551   2.371  1.5271 -1.4434 -1.8789
20991SOL    HW271752   5.768  10.670   2.308 -0.0166  0.5343  2.9955
20992SOL     OW71753   6.624  11.363   9.663  0.4365  0.2473  0.0751
20992SOL    HW171754   6.575  11.364   9.582  0.4653  2.4448  0.0149
20992SOL    HW271755   6.593  11.440   9.711  0.7286 -0.7423  1.9722
20993SOL     OW71756   9.812  11.608  11.265 -0.3190  0.3398  0.0872
20993SOL    HW171757   9.868  11.651  11.329  1.4418 -1.4126 -0.1732
20993SOL    HW271758   9.736  11.578  11.315 -0.5036  1.7575  0.6890
20994SOL     OW71759   2.653   6.800   1.496  1.0200  0.7630 -0.0108
20994SOL    HW171760   2.745   6.825   1.501  0.7804  1.8421 -0.8162
20994SOL    HW271761   2.627   6.816   1.405  0.0605  0.3876  0.1768
20995SOL     OW71762   4.879   7.231   8.876 -0.2943  0.4158 -0.1464
20995SOL    HW171763   4.816   7.162   8.895  0.9809 -0.8665 -0.4663
20995SOL    HW271764   4.907   7.263   8.962  1.0285 -1.2838  0.1047
20996SOL     OW71765  10.288   5.925   1.577  0.3756 -0.7386  0.1889
20996SOL    HW171766  10.254   5.840   1.549 -0.6103  0.2310 -1.7817
20996SOL    HW271767  10.221   5.988   1.549  1.8483  0.8515  0.0688
20997SOL     OW71768   1.705   1.377  12.127 -0.6467 -0.2363 -0.4454
20997SOL    HW171769   1.623   1.378  12.078 -1.2841  0.9806  0.6102
20997SOL    HW271770   1.762   1.437  12.078 -1.1505  0.6675  0.0474
20998SOL     OW71771   2.871   6.782   4.946  0.1072 -0.3629  0.3894
20998SOL    HW171772   2.823   6.761   5.027 -0.0208 -1.2506  0.0941
20998SOL    HW271773   2.808   6.833   4.894 -0.0215 -0.3166  0.5857
20999SOL     OW71774  10.817   8.904   1.791  0.1735  0.0392  0.1757
20999SOL    HW171775  10.768   8.948   1.722  1.7186 -1.0008 -1.6627
20999SOL    HW271776  10.810   8.811   1.770 -2.5378 -0.7688  3.6298
21000SOL     OW71777   0.411   0.488   7.447 -0.0311 -0.0749 -0.0122
21000SOL    HW171778   0.322   0.511   7.472  0.0089  0.9604 -0.7384
21000SOL    HW271779   0.401   0.431   7.371 -0.1001 -1.4294  0.9865
21001SOL     OW71780   3.219   7.999   8.855  0.1147  0.2620 -0.6799
21001SOL    HW171781   3.256   7.961   8.935 -0.1595 -1.5116 -1.3493
21001SOL    HW271782   3.147   8.054   8.886  0.4329  0.1400  0.3303
21002SOL     OW71783   3.867   3.726   2.446 -0.7709 -0.3691 -0.9701
21002SOL    HW171784   3.782   3.713   2.402 -2.1094  1.9752  0.7189
21002SOL    HW271785   3.927   3.748   2.375 -1.9310 -0.5140 -2.0355
21003SOL     OW71786  10.408   1.315  10.230 -0.1866  0.0829 -0.2172
21003SOL    HW171787  10.467   1.272  10.168 -0.0858  0.8445 -0.6616
21003SOL    HW271788  10.430   1.408  10.224 -0.2391  0.1807  0.9038
21004SOL     OW71789   8.553   7.589  10.601 -0.4270 -0.3276 -0.0720
21004SOL    HW171790   8.490   7.538  10.550 -0.6296 -1.2108  1.0044
21004SOL    HW271791   8.539   7.559  10.691  2.6231 -1.7376  0.0411
21005SOL     OW71792   9.951   7.465  11.364  0.2972  0.1585  0.0285
21005SOL    HW171793   9.935   7.473  11.458  0.2130  0.4151 -0.0068
21005SOL    HW271794   9.865   7.454  11.325  0.3894 -0.7029  0.0477
21006SOL     OW71795   8.708  12.398  12.169  0.1768 -0.0875  0.1623
21006SOL    HW171796   8.617  12.429  12.168 -0.7191 -2.5577 -1.1122
21006SOL    HW271797   8.752  12.459  12.229 -2.0661  1.7585  0.1142
21007SOL     OW71798   6.673   1.034   0.452 -0.1596  0.3535 -0.1763
21007SOL    HW171799   6.610   1.007   0.385  0.7750 -1.3215 -0.4379
21007SOL    HW271800   6.673   0.962   0.515  0.0798  1.2260  0.8438
21008SOL     OW71801  10.536   5.068   8.490 -0.5901 -0.7716 -0.1672
21008SOL    HW171802  10.591   4.998   8.524 -1.5799 -0.6248  1.9078
21008SOL    HW271803  10.517   5.042   8.400  2.2897 -1.1215 -0.7749
21009SOL     OW71804   1.899   8.600   8.778  0.4554  0.3604  0.2393
21009SOL    HW171805   1.851   8.518   8.767  1.7979 -0.1341 -3.1378
21009SOL    HW271806   1.849   8.665   8.728  1.5084  0.5983 -0.5427
21010SOL     OW71807   8.001  12.394   1.090 -0.7327 -0.1030  0.2831
21010SOL    HW171808   7.908  12.385   1.111 -0.9800 -0.0972 -0.7533
21010SOL    HW271809   8.015  12.488   1.081 -0.7911 -0.1444 -0.2603
21011SOL     OW71810  12.123   5.106   6.466 -0.1069 -0.1933  0.1197
21011SOL    HW171811  12.178   5.174   6.427 -1.0116  1.2931  1.3163
21011SOL    HW271812  12.184   5.050   6.513  0.6813 -0.3875 -1.0724
21012SOL     OW71813  11.129   4.063   9.685 -0.0517  0.1100 -0.1706
21012SOL    HW171814  11.073   4.131   9.647 -0.0291 -0.7805 -1.9078
21012SOL    HW271815  11.195   4.046   9.618  0.6081 -0.8556  0.6831
21013SOL     OW71816  12.588  10.904   2.959  0.4301 -0.0168 -0.2211
21013SOL    HW171817  12.661  10.876   2.904  1.2970  1.0183  0.3374
21013SOL    HW271818  12.626  10.973   3.015 -0.6645 -0.3151  0.9414
21014SOL     OW71819   9.930   0.452   8.746 -0.0697 -0.2736 -0.8726
21014SOL    HW171820   9.873   0.424   8.818 -0.0202 -0.1860 -0.7989
21014SOL    HW271821  10.000   0.387   8.744  0.9897  0.7584  0.4095
21015SOL     OW71822   8.322   0.658   0.666 -0.1727 -0.1537 -0.0972
21015SOL    HW171823   8.275   0.735   0.698 -1.0692 -0.7901  0.1623
21015SOL    HW271824   8.396   0.694   0.617 -0.2209  0.8611  0.5410
21016SOL     OW71825   8.481   3.077   4.792  0.3967  0.0200 -0.1605
21016SOL    HW171826   8.419   3.129   4.843  1.1313 -0.6005  1.4531
21016SOL    HW271827   8.499   3.131   4.715 -0.5800  1.1222  0.3356
21017SOL     OW71828   6.819   6.547   5.605  0.3461  0.3091  0.1065
21017SOL    HW171829   6.796   6.543   5.698 -0.9402  1.6827 -0.1030
21017SOL    HW271830   6.802   6.459   5.572 -3.4097  0.7766  0.3402
21018SOL     OW71831   8.666  10.289   0.879 -0.0930 -0.4994 -0.5316
21018SOL    HW171832   8.665  10.278   0.974 -0.8709  0.6467 -0.3845
21018SOL    HW271833   8.746  10.245   0.850  1.2077  0.8276  0.8958
21019SOL     OW71834   2.972   3.352  12.242 -0.2584  0.3276 -0.0578
21019SOL    HW171835   2.885   3.311  12.240 -0.0557 -0.0742 -0.7180
21019SOL    HW271836   3.008   3.337  12.155  0.0322  1.4628 -0.1493
21020SOL     OW71837   0.974   8.432  10.777 -0.4628 -0.0589 -0.2556
21020SOL    HW171838   0.909   8.491  10.815 -0.5226  1.5920 -2.6769
21020SOL    HW271839   0.923   8.361  10.739 -0.4447 -1.3382  1.9360
21021SOL     OW71840   2.863   3.219   4.153 -0.4500  0.1465 -0.0908
21021SOL    HW171841   2.886   3.147   4.094 -1.1500 -2.3751  2.5409
21021SOL    HW271842   2.790   3.263   4.110 -1.2573 -1.9046 -0.9050
21022SOL     OW71843   3.573  11.014   7.182 -0.4204 -0.5833  0.2709
21022SOL    HW171844   3.577  11.099   7.226  0.4100 -1.0211  1.0802
21022SOL    HW271845   3.488  10.977   7.207  0.2188 -1.0202  1.9307
21023SOL     OW71846   5.194   0.747   0.186  0.2521 -0.5190  0.6316
21023SOL    HW171847   5.143   0.820   0.150  0.7462 -1.5350 -2.3327
21023SOL    HW271848   5.285   0.772   0.172  0.4442 -1.3256  0.4190
21024SOL     OW71849  11.133   0.940   2.832  0.5918 -0.0097 -0.4182
21024SOL    HW171850  11.221   0.972   2.848  1.0662 -0.1899 -2.4290
21024SOL    HW271851  11.134   0.850   2.867  1.3322 -0.1472 -0.7733
21025SOL     OW71852   7.327   0.776   3.806  0.5498  0.2931  0.2573
21025SOL    HW171853   7.376   0.853   3.779  0.6177  0.1573 -0.0130
21025SOL    HW271854   7.365   0.704   3.756 -0.8138  0.3953 -1.0085
21026SOL     OW71855   8.427   7.036   8.906 -0.5494  0.0665 -0.1540
21026SOL    HW171856   8.463   6.977   8.840 -0.4082  0.4934 -0.4674
21026SOL    HW271857   8.342   7.063   8.870 -1.6198 -1.6192  0.9791
21027SOL     OW71858   0.643   8.822   6.021 -0.4518 -0.4007  0.0124
21027SOL    HW171859   0.637   8.910   5.983 -1.2497 -1.1981 -1.8503
21027SOL    HW271860   0.557   8.806   6.059 -0.4002 -0.4895  0.0924
21028SOL     OW71861  11.602  12.160   3.003  0.0183 -0.2521 -0.3277
21028SOL    HW171862  11.534  12.135   3.066 -1.3981 -0.3473 -1.8356
21028SOL    HW271863  11.574  12.121   2.920  0.9691  1.1955 -1.3833
21029SOL     OW71864   6.080  12.580   9.360  0.0042  0.2649  0.1430
21029SOL    HW171865   6.096  12.659   9.411 -2.4447  0.4696  0.7553
21029SOL    HW271866   6.167  12.543   9.345  0.9955  0.8999  3.3597
21030SOL     OW71867   8.227   7.685   7.265 -0.9471 -0.5734 -0.2286
21030SOL    HW171868   8.294   7.709   7.201 -0.5650  0.1227  0.4072
21030SOL    HW271869   8.270   7.620   7.321  0.8123  2.7576  2.7636
21031SOL     OW71870   7.669   1.694   0.350 -0.0514 -0.5565  0.0291
21031SOL    HW171871   7.622   1.667   0.429  1.3180 -1.6910  0.4987
21031SOL    HW271872   7.760   1.672   0.367  0.8347  2.2679 -0.5462
21032SOL     OW71873   2.531   4.403   3.326 -0.3257  0.0811 -0.2016
21032SOL    HW171874   2.525   4.380   3.419  0.8203 -0.9171 -0.3554
21032SOL    HW271875   2.488   4.331   3.281 -3.1851  1.7441 -0.3901
21033SOL     OW71876   5.983   7.658  12.540 -0.2682 -0.0643  0.2570
21033SOL    HW171877   6.054   7.714  12.509  0.2025  0.1566  1.6899
21033SOL    HW271878   5.936   7.712  12.604 -0.4837 -0.9124  0.8288
21034SOL     OW71879   2.298   1.621   4.088  0.4917  0.3074  0.4036
21034SOL    HW171880   2.382   1.574   4.081  1.3197  1.8220 -0.2368
21034SOL    HW271881   2.232   1.552   4.079  1.6621 -0.8389  0.2092
21035SOL     OW71882   1.291   6.965   7.946 -0.5324  0.1402 -0.2791
21035SOL    HW171883   1.233   6.900   7.986  1.2020 -0.3814  1.5297
21035SOL    HW271884   1.261   7.049   7.983  0.3103 -0.2131  1.2734
21036SOL     OW71885   8.620   6.241  12.095 -0.2829 -0.2125  0.4765
21036SOL    HW171886   8.619   6.317  12.154 -1.0672  0.1024  0.0790
21036SOL    HW271887   8.628   6.280  12.008 -0.1593 -0.6216  0.3057
21037SOL     OW71888   7.750  11.735   0.141 -0.1311  0.0199 -0.9986
21037SOL    HW171889   7.814  11.748   0.212 -0.9365 -0.8485 -0.0912
21037SOL    HW271890   7.802  11.703   0.068  0.5390 -0.3167 -0.3895
21038SOL     OW71891   4.585   2.017   9.710 -0.0923  0.2548  0.0630
21038SOL    HW171892   4.529   1.985   9.780 -0.0013 -0.2104 -0.0696
21038SOL    HW271893   4.550   2.103   9.688 -2.0455 -0.8185 -1.3966
21039SOL     OW71894   5.576  11.030   4.426  0.0688  0.0725  0.5088
21039SOL    HW171895   5.506  10.992   4.479  0.9354  0.3027  1.8659
21039SOL    HW271896   5.630  10.956   4.399 -0.0765  0.0115  0.3831
21040SOL     OW71897   2.359  12.135  11.720 -0.5050  0.1327  0.0980
21040SOL    HW171898   2.446  12.111  11.753 -0.8362  0.5094  1.3114
21040SOL    HW271899   2.316  12.051  11.703 -0.3102 -0.0772  0.6090
21041SOL     OW71900   3.600   8.435   4.492  0.7894  0.2843  0.2790
21041SOL    HW171901   3.647   8.387   4.424 -0.6402 -1.1022  0.2254
21041SOL    HW271902   3.520   8.467   4.449  0.3741  0.2886  1.0324
21042SOL     OW71903   7.501   5.517  12.421  0.0849 -0.4194  0.3956
21042SOL    HW171904   7.531   5.592  12.472 -1.2026  0.3333  0.0909
21042SOL    HW271905   7.521   5.541  12.330 -1.3576  0.1007  0.1841
21043SOL     OW71906   8.123   8.927   3.938  0.0401 -0.1095  0.0166
21043SOL    HW171907   8.214   8.895   3.936  0.2506  0.4430  0.3684
21043SOL    HW271908   8.105   8.940   4.032 -0.0913  0.6465 -0.1105
21044SOL     OW71909   0.743   0.679   1.577  0.2832 -0.0400  0.5770
21044SOL    HW171910   0.755   0.599   1.627 -0.0581 -0.0043  0.7151
21044SOL    HW271911   0.758   0.750   1.640 -1.8718  0.0299  1.0951
21045SOL     OW71912   1.583  12.209  11.744  0.0239 -0.5573 -0.3566
21045SOL    HW171913   1.494  12.240  11.733 -0.3859 -2.0106 -1.3762
21045SOL    HW271914   1.623  12.271  11.806 -1.2067  0.9902 -1.0635
21046SOL     OW71915   2.794  10.856   0.943  0.1500  0.3173  0.6296
21046SOL    HW171916   2.823  10.944   0.967  1.6257  0.3685 -1.1226
21046SOL    HW271917   2.742  10.868   0.864 -0.9389 -0.2685  1.2313
21047SOL     OW71918   0.060   0.973   9.940  0.3243  0.9591  0.0242
21047SOL    HW171919  -0.010   0.959  10.004 -1.6523  2.1034 -1.7571
21047SOL    HW271920   0.123   1.030   9.985 -0.0638  0.2773  1.5139
21048SOL     OW71921   8.174   0.132   9.899  0.3314 -0.0347 -0.2603
21048SOL    HW171922   8.218   0.205   9.943 -0.2512 -0.8665  1.8542
21048SOL    HW271923   8.244   0.082   9.859  0.7449  1.6361 -1.7828
21049SOL     OW71924  12.303   3.681   9.267  0.3298  0.1177 -0.5327
21049SOL    HW171925  12.244   3.734   9.321 -0.4725  0.2573 -1.5167
21049SOL    HW271926  12.328   3.608   9.323 -1.1537 -0.1950 -0.2410
21050SOL     OW71927   4.779  12.483  11.888 -0.0327 -0.2805 -0.5327
21050SOL    HW171928   4.793  12.498  11.982 -0.5761  0.0920 -0.5066
21050SOL    HW271929   4.841  12.541  11.845 -1.2610  1.1929 -0.4143
21051SOL     OW71930   2.555   6.161   8.385  0.1631 -0.2182  0.2077
21051SOL    HW171931   2.540   6.167   8.291  0.5209  1.2991  0.2107
21051SOL    HW271932   2.644   6.128   8.393 -0.4074 -1.8935  0.0712
21052SOL     OW71933  10.920   4.009   7.923 -1.0238 -0.1382 -0.0869
21052SOL    HW171934  10.922   4.006   8.018 -0.4783  1.1259 -0.0326
21052SOL    HW271935  10.847   4.069   7.902 -0.5436  0.3361 -0.4268
21053SOL     OW71936   3.933   1.007  11.573 -0.5403 -0.1565  0.0151
21053SOL    HW171937   3.916   1.084  11.519 -1.2752 -0.4221 -0.1472
21053SOL    HW271938   3.878   1.020  11.651 -0.4126 -0.3548  0.1403
21054SOL     OW71939   4.520   5.863   9.650 -0.7069 -0.0591  0.5404
21054SOL    HW171940   4.497   5.883   9.740 -3.3731 -1.2164  0.2101
21054SOL    HW271941   4.438   5.838   9.609  0.8848 -2.7395 -1.3778
21055SOL     OW71942  10.775   9.570   6.936 -0.3605  0.1374  0.3132
21055SOL    HW171943  10.802   9.624   7.010  0.0072 -1.5322  1.4277
21055SOL    HW271944  10.680   9.571   6.939 -0.3588 -0.9305  1.6043
21056SOL     OW71945   3.381   1.803   3.001  0.7725 -0.3263 -0.3948
21056SOL    HW171946   3.321   1.755   3.058  1.1378 -0.0645  0.2128
21056SOL    HW271947   3.465   1.798   3.045  0.5808  1.8989  0.2968
21057SOL     OW71948   3.901   7.572   9.052 -0.6823  0.4221 -0.2892
21057SOL    HW171949   3.927   7.521   8.975 -1.5055 -0.7696  0.1813
21057SOL    HW271950   3.806   7.560   9.057 -0.3918 -1.9470  2.4698
21058SOL     OW71951  10.231   8.462   3.322  0.2077  0.6943 -0.6093
21058SOL    HW171952  10.296   8.504   3.267  1.9596  0.3720  1.0818
21058SOL    HW271953  10.174   8.533   3.351  0.4238  1.1567 -1.2976
21059SOL     OW71954   5.728   5.343  11.391  0.0314 -0.1600 -0.4664
21059SOL    HW171955   5.684   5.272  11.344  0.9424 -0.4860 -0.8445
21059SOL    HW271956   5.732   5.313  11.481 -0.4768 -0.1419 -0.4309
21060SOL     OW71957   1.158   1.193  10.054 -0.6819 -0.0924 -0.3895
21060SOL    HW171958   1.156   1.229  10.143 -2.2099  0.5515 -0.6599
21060SOL    HW271959   1.119   1.107  10.063 -1.3875  0.2108 -0.5331
21061SOL     OW71960  12.259   7.586   5.168  0.5886 -0.3313  0.0276
21061SOL    HW171961  12.351   7.597   5.195  1.0525 -0.1178 -1.5483
21061SOL    HW271962  12.243   7.492   5.173  1.1266 -0.4471 -0.4222
21062SOL     OW71963   5.128   8.107   3.730  0.4127 -0.2644  0.2995
21062SOL    HW171964   5.097   8.031   3.682 -0.1566  0.3440 -0.3099
21062SOL    HW271965   5.148   8.172   3.663  2.4872 -0.4175  0.6913
21063SOL     OW71966   2.365   9.012   8.375 -0.0679  0.1536  0.4789
21063SOL    HW171967   2.359   8.962   8.294 -2.5464  0.2244  0.5434
21063SOL    HW271968   2.443   8.978   8.419 -0.4189 -2.0605 -0.5079
21064SOL     OW71969   2.728   0.141   2.558  0.0119  0.1970  0.8157
21064SOL    HW171970   2.667   0.098   2.498  0.3307  1.9124 -0.7982
21064SOL    HW271971   2.780   0.198   2.503  2.5160 -0.5258  2.2874
21065SOL     OW71972   9.603   3.875   7.473 -0.0879 -0.4146  0.2024
21065SOL    HW171973   9.620   3.783   7.451 -1.9542 -1.0311  1.1390
21065SOL    HW271974   9.568   3.913   7.392 -3.4436 -1.7274  0.8771
21066SOL     OW71975   2.544  10.854   2.612  0.1341  0.6563 -0.0756
21066SOL    HW171976   2.639  10.842   2.603 -0.1481 -1.7051 -0.4795
21066SOL    HW271977   2.520  10.799   2.687 -0.6996  2.7138  1.2486
21067SOL     OW71978   3.697   8.821  10.365 -0.8144 -0.0432  0.4814
21067SOL    HW171979   3.763   8.801  10.298  2.2084 -0.1664  3.2459
21067SOL    HW271980   3.658   8.737  10.387 -0.7939 -0.2079 -0.0905
21068SOL     OW71981   5.867  10.871   3.163  0.0005 -0.1250  0.2281
21068SOL    HW171982   5.786  10.842   3.121  0.2945 -0.0485 -0.4099
21068SOL    HW271983   5.926  10.796   3.154  0.2605  0.1089 -0.0429
21069SOL     OW71984   5.093  10.867   5.405 -0.3969  0.2895 -0.7229
21069SOL    HW171985   5.106  10.880   5.499 -1.3847  2.1525 -0.8028
21069SOL    HW271986   5.175  10.895   5.365  0.2598 -1.1139 -0.3966
21070SOL     OW71987  11.461   2.137  11.582  0.0174  0.0769 -0.3579
21070SOL    HW171988  11.379   2.180  11.555 -0.2989 -0.4229 -0.1972
21070SOL    HW271989  11.456   2.135  11.678  1.8419  3.2858 -0.0167
21071SOL     OW71990   6.875   2.994   8.549 -0.1966 -0.1276 -0.5106
21071SOL    HW171991   6.879   3.088   8.533 -1.1028 -0.1920 -1.1954
21071SOL    HW271992   6.834   2.958   8.470 -2.6891 -0.7381  0.9357
21072SOL     OW71993  11.753   7.477   3.256 -0.3579 -0.1948 -0.4845
21072SOL    HW171994  11.804   7.499   3.179 -1.7090  0.0474 -1.3334
21072SOL    HW271995  11.819   7.459   3.324  0.8220  1.8062 -1.0378
21073SOL     OW71996   2.345  10.038   4.237  0.6866 -0.2604 -0.2043
21073SOL    HW171997   2.426  10.059   4.191  0.2427 -0.4852 -1.1052
21073SOL    HW271998   2.277  10.085   4.189  0.2828 -0.0246  0.5829
21074SOL     OW71999   3.967   5.076   9.664 -0.2990 -0.0267  0.4937
21074SOL    HW172000   3.969   4.982   9.684 -1.5805 -0.3404 -0.7229
21074SOL    HW272001   3.914   5.114   9.734  2.2357  0.2310  2.4152
21075SOL     OW72002  11.525   1.450   6.048 -0.1115  0.0101  0.6540
21075SOL    HW172003  11.613   1.486   6.057 -0.0751 -0.1230  0.8512
21075SOL    HW272004  11.508   1.409   6.133  0.0519 -0.8888  0.2687
21076SOL     OW72005  12.564  10.686   2.603 -0.0774  0.3120 -0.4062
21076SOL    HW172006  12.511  10.747   2.551 -1.1326  0.4837  0.8163
21076SOL    HW272007  12.652  10.723   2.600 -0.4069  1.0972 -0.8895
21077SOL     OW72008   5.361   8.333   6.894 -0.3898 -0.2790  0.5313
21077SOL    HW172009   5.307   8.256   6.877 -0.4382 -0.4521  1.4105
21077SOL    HW272010   5.414   8.308   6.970 -0.1927  0.4468  0.6377
21078SOL     OW72011   4.739   1.622   1.248  0.5464  0.4654  0.4138
21078SOL    HW172012   4.779   1.572   1.319  0.2221  1.4438  1.3134
21078SOL    HW272013   4.672   1.675   1.291  1.0984  1.9264 -0.4359
21079SOL     OW72014  12.496   1.197   6.468 -0.3777 -0.1022  0.2286
21079SOL    HW172015  12.586   1.229   6.475 -0.3341  0.1275 -1.0594
21079SOL    HW272016  12.469   1.180   6.558  0.5728  0.9010  0.7260
21080SOL     OW72017   3.342   7.556   5.084 -0.4501  0.1711 -0.2543
21080SOL    HW172018   3.256   7.591   5.107 -0.6026 -0.2502 -0.1736
21080SOL    HW272019   3.398   7.580   5.158 -0.8636 -0.8917  0.4252
21081SOL     OW72020   9.350   9.878   2.154 -0.2510  0.0186 -0.1281
21081SOL    HW172021   9.415   9.871   2.084  2.2143  2.8250  1.6558
21081SOL    HW272022   9.269   9.904   2.109  0.7441 -0.0181 -2.0654
21082SOL     OW72023   0.287   5.015   9.207 -0.5090 -0.3137 -0.4810
21082SOL    HW172024   0.280   5.065   9.125  0.3768 -1.4666 -1.2966
21082SOL    HW272025   0.238   4.935   9.190 -1.7248  0.1398  0.7371
21083SOL     OW72026  11.551  11.466   8.859 -0.0188  0.3044  0.2786
21083SOL    HW172027  11.524  11.558   8.852  0.2921  0.4413  0.8327
21083SOL    HW272028  11.509  11.435   8.939 -0.7623 -0.2671 -0.3083
21084SOL     OW72029   6.009   6.120   0.797 -0.2093 -0.5974  0.1136
21084SOL    HW172030   6.053   6.079   0.723 -1.7342 -2.5979  0.2470
21084SOL    HW272031   5.958   6.191   0.758 -0.1292 -0.9213 -0.5975
21085SOL     OW72032   2.111   3.339  10.710 -0.0577 -0.0122 -0.3528
21085SOL    HW172033   2.202   3.367  10.722  0.4920 -1.2707 -1.3818
21085SOL    HW272034   2.114   3.244  10.719 -1.2583 -0.0821 -0.5716
21086SOL     OW72035   9.431   7.050  11.075  0.3042  0.7007  0.1271
21086SOL    HW172036   9.441   7.025  10.983  1.4343 -0.4573  0.5312
21086SOL    HW272037   9.448   7.144  11.077  0.4552  0.6979 -0.8188
21087SOL     OW72038   0.447   8.753   4.237 -0.5308 -0.0218  0.6575
21087SOL    HW172039   0.386   8.693   4.195  0.0194 -0.2466  0.1659
21087SOL    HW272040   0.515   8.697   4.275 -1.1476  0.1588  2.0867
21088SOL     OW72041   9.571   5.303   7.669  0.5947  0.5440  0.5371
21088SOL    HW172042   9.489   5.288   7.715  1.2954  0.5671  1.8672
21088SOL    HW272043   9.551   5.287   7.577 -1.7661  3.9927  0.2869
21089SOL     OW72044   7.991  11.719   1.519 -0.1297 -0.7645  0.0128
21089SOL    HW172045   7.921  11.699   1.582 -0.2006 -2.2152 -0.4894
21089SOL    HW272046   8.071  11.687   1.561 -0.2288 -2.0825 -0.7720
21090SOL     OW72047   3.493  12.567   1.516 -0.0964  0.3479  0.9060
21090SOL    HW172048   3.465  12.476   1.528 -0.1632  0.0129 -1.3469
21090SOL    HW272049   3.557  12.581   1.586 -0.0582 -1.4436  1.2968
21091SOL     OW72050   1.441   2.331   6.872  0.1569  0.0751 -0.1550
21091SOL    HW172051   1.471   2.359   6.786  1.4694  1.2405  0.6365
21091SOL    HW272052   1.395   2.408   6.907  1.7800  0.5143  1.1339
21092SOL     OW72053   3.103   0.690   6.941 -0.1352 -0.1100  0.1901
21092SOL    HW172054   3.083   0.707   7.033 -3.9113  0.5818 -0.6056
21092SOL    HW272055   3.132   0.775   6.907  1.5161 -0.4261  0.7277
21093SOL     OW72056  11.259   6.777   0.166 -0.0495 -0.1954  0.0744
21093SOL    HW172057  11.228   6.697   0.124 -0.3047  0.5085 -1.1107
21093SOL    HW272058  11.233   6.767   0.258 -0.4118 -1.2974 -0.1360
21094SOL     OW72059  11.479   2.482   7.011 -0.3175  0.1219  0.1472
21094SOL    HW172060  11.435   2.419   7.068 -0.9430  0.4434  0.0314
21094SOL    HW272061  11.547   2.431   6.967 -1.0569 -0.5593 -0.2212
21095SOL     OW72062   4.047   6.764   6.381  0.2185 -0.0480 -0.1920
21095SOL    HW172063   4.118   6.724   6.433 -0.1787  1.4048  1.5796
21095SOL    HW272064   3.994   6.690   6.352  1.4297 -1.0297  0.0221
21096SOL     OW72065   8.925   4.679   0.600 -0.1883 -0.0620  0.1837
21096SOL    HW172066   8.894   4.734   0.528  0.8349  0.4672  0.1343
21096SOL    HW272067   8.951   4.597   0.558 -0.8212 -0.2481  0.1357
21097SOL     OW72068   4.714   8.579   3.916  0.9488  0.1851 -0.3810
21097SOL    HW172069   4.668   8.501   3.884  0.1695  0.1026  0.8558
21097SOL    HW272070   4.806   8.553   3.921  0.7395 -0.5448 -0.2955
21098SOL     OW72071   3.704   0.378   1.712  0.2144  0.0143  0.1240
21098SOL    HW172072   3.656   0.439   1.656  0.1069 -1.5338 -1.5746
21098SOL    HW272073   3.659   0.381   1.796 -1.2891  0.4910 -0.6696
21099SOL     OW72074   9.255   5.167   2.848 -0.4121 -0.4507 -0.1352
21099SOL    HW172075   9.265   5.126   2.762  1.0082  0.9499 -0.6662
21099SOL    HW272076   9.344   5.178   2.881 -0.9399 -2.8888  2.5229
21100SOL     OW72077   2.659   8.083   5.794  0.3801 -0.2264 -0.6125
21100SOL    HW172078   2.572   8.122   5.803 -0.1513 -1.5311  0.2186
21100SOL    HW272079   2.719   8.156   5.804 -0.5654  0.3581  1.3521
21101SOL     OW72080  10.175   9.137  10.737  0.0063 -0.5212  0.1024
21101SOL    HW172081  10.192   9.137  10.642  0.1548 -1.6016  0.1182
21101SOL    HW272082  10.131   9.220  10.753  0.3233 -0.1530 -0.8570
21102SOL     OW72083   3.863   9.641   7.638  0.0128  0.6525  0.2895
21102SOL    HW172084   3.912   9.620   7.559 -0.8610 -0.1386 -0.0598
21102SOL    HW272085   3.917   9.605   7.709  0.2382  0.3330 -0.0367
21103SOL     OW72086   8.269   3.453   9.508 -0.1882 -0.3188  0.3912
21103SOL    HW172087   8.202   3.410   9.561 -0.4510  1.1069  1.2547
21103SOL    HW272088   8.350   3.440   9.557 -0.1338 -0.4616  0.2668
21104SOL     OW72089   3.620   1.280   4.007  0.2927 -0.3569  0.0334
21104SOL    HW172090   3.545   1.223   3.991 -0.1864  0.0993  0.6090
21104SOL    HW272091   3.601   1.360   3.958 -1.1645  1.0318  2.6552
21105SOL     OW72092   3.193   0.898   5.203 -0.3618 -0.1465  0.0345
21105SOL    HW172093   3.118   0.957   5.210 -0.7605 -0.7041  0.4981
21105SOL    HW272094   3.233   0.920   5.119 -0.0062  1.3727  0.5587
21106SOL     OW72095   7.072   1.117   4.451  0.3862 -0.3727  0.3807
21106SOL    HW172096   6.999   1.078   4.403  0.0518  0.3231  0.2981
21106SOL    HW272097   7.150   1.090   4.404  0.0999 -0.1993 -0.2087
21107SOL     OW72098   4.371   1.484  11.390 -0.8704 -0.9257 -0.5266
21107SOL    HW172099   4.430   1.549  11.351 -3.1351  0.1873 -2.3876
21107SOL    HW272100   4.383   1.405  11.337  0.5774 -1.5071  0.6006
21108SOL     OW72101   7.655   7.186  12.204 -0.3960  0.0236 -0.1096
21108SOL    HW172102   7.594   7.255  12.177  0.2869  0.6947  0.0298
21108SOL    HW272103   7.742   7.226  12.196  0.1034 -1.2056 -1.1568
21109SOL     OW72104   4.016   3.072   7.421 -0.5875 -0.0205 -0.4775
21109SOL    HW172105   4.031   3.006   7.353 -1.5954 -2.0209  1.1136
21109SOL    HW272106   3.926   3.101   7.407 -0.7912 -0.4233 -0.0618
21110SOL     OW72107   7.820  12.291  12.354 -0.3323 -0.2784 -0.3896
21110SOL    HW172108   7.770  12.212  12.333 -1.4577  0.5890 -1.1107
21110SOL    HW272109   7.824  12.293  12.449 -0.8049 -0.8875 -0.3499
21111SOL     OW72110   0.165  12.253   3.413  0.1234  0.1666  0.1196
21111SOL    HW172111   0.221  12.293   3.347 -0.4752 -1.2848 -1.3584
21111SOL    HW272112   0.087  12.309   3.415  1.2166  1.7014  1.5588
21112SOL     OW72113   5.543  11.493   9.654  0.7238  0.7829  0.2008
21112SOL    HW172114   5.569  11.541   9.575  0.8261 -1.0581 -0.9357
21112SOL    HW272115   5.612  11.428   9.666 -0.2346 -0.1637  0.7306
21113SOL     OW72116   5.577   7.895  11.943 -0.5078 -0.1654  0.3934
21113SOL    HW172117   5.516   7.863  11.876  0.3515  0.0981 -0.5453
21113SOL    HW272118   5.595   7.985  11.918  0.0282 -0.1426  0.8295
21114SOL     OW72119   8.286   4.003   4.316 -0.1315  0.3162  0.4841
21114SOL    HW172120   8.209   4.051   4.346 -0.0447  0.5717  0.3033
21114SOL    HW272121   8.343   3.999   4.393 -0.8864 -1.0380  1.0040
21115SOL     OW72122  12.268   2.875  12.593  0.2829  0.3575 -0.3007
21115SOL    HW172123  12.298   2.788  12.618 -0.6558  0.1551  0.1428
21115SOL    HW272124  12.260   2.872  12.498  0.6434  0.0971 -0.3260
21116SOL     OW72125  10.885   1.558   2.692 -0.5888  0.4822 -0.4670
21116SOL    HW172126  10.918   1.468   2.687 -0.4017  0.5257 -0.0309
21116SOL    HW272127  10.865   1.571   2.785 -1.1744  0.6899 -0.6169
21117SOL     OW72128   7.465  10.157   8.763 -0.5252  0.1979  0.5270
21117SOL    HW172129   7.528  10.085   8.756 -0.9169 -0.4468  2.7702
21117SOL    HW272130   7.390  10.128   8.712  0.1232 -0.0362 -0.3105
21118SOL     OW72131   0.558   8.691   9.220 -0.0321  0.2429 -0.4249
21118SOL    HW172132   0.544   8.599   9.244  0.5097  0.8318  2.5948
21118SOL    HW272133   0.471   8.730   9.224 -0.2989 -0.1221 -1.9372
21119SOL     OW72134   0.045   5.420   2.962  0.4045 -0.4556 -0.0511
21119SOL    HW172135   0.095   5.483   3.014  0.6735  1.2978 -2.2917
21119SOL    HW272136  -0.046   5.450   2.969  0.4275 -0.2817 -0.4803
21120SOL     OW72137   6.116   5.259   2.251 -0.0512 -0.3767  0.0351
21120SOL    HW172138   6.083   5.288   2.336 -0.5478  1.8549 -0.8512
21120SOL    HW272139   6.211   5.252   2.263 -0.0991  0.0794  0.7227
21121SOL     OW72140   6.050   8.309   4.680 -0.8198 -0.6683  0.2166
21121SOL    HW172141   6.127   8.362   4.700 -0.7634 -1.4375  2.2803
21121SOL    HW272142   6.079   8.219   4.694 -1.8463 -1.0243  0.1725
21122SOL     OW72143   9.820   7.231   0.299 -0.0466  0.7742 -0.2910
21122SOL    HW172144   9.858   7.293   0.236 -2.7987 -0.1763 -3.1768
21122SOL    HW272145   9.771   7.287   0.360  0.5064  1.6098 -0.5867
21123SOL     OW72146   0.752   7.684   7.635  0.2433  0.4766  0.0067
21123SOL    HW172147   0.674   7.739   7.631 -1.1688 -1.3468  0.7184
21123SOL    HW272148   0.762   7.651   7.546  1.6151  2.4853 -0.6310
21124SOL     OW72149   0.819   7.302   8.614 -0.0043  0.1150  0.0514
21124SOL    HW172150   0.912   7.324   8.606  0.0534 -0.0519  0.2573
21124SOL    HW272151   0.813   7.256   8.697 -0.3704  0.6445  0.3222
21125SOL     OW72152   3.411   7.957   1.991 -0.4858  0.3913  0.2271
21125SOL    HW172153   3.321   7.971   1.964 -0.1829  0.7094 -0.6732
21125SOL    HW272154   3.433   8.035   2.041  0.0870  1.6219 -1.7963
21126SOL     OW72155   8.139   5.008   8.549 -0.1305 -0.4197  0.1703
21126SOL    HW172156   8.147   4.914   8.566 -0.3144 -0.9356 -2.2562
21126SOL    HW272157   8.071   5.015   8.482 -1.9885  1.7157  2.1000
21127SOL     OW72158   9.258   0.914   9.032  0.9908  0.0555 -0.5543
21127SOL    HW172159   9.281   0.868   9.113 -2.2134  2.2451  1.9002
21127SOL    HW272160   9.323   0.984   9.024  0.9240  0.2822  0.6488
21128SOL     OW72161  10.673   7.054   0.155 -0.5158  0.1432  0.6954
21128SOL    HW172162  10.631   7.103   0.084  0.2666 -0.8807 -0.5149
21128SOL    HW272163  10.708   6.976   0.113  1.7901  0.4971  1.8112
21129SOL     OW72164   1.161   5.396   7.025  0.3482  0.7295 -0.0398
21129SOL    HW172165   1.213   5.317   7.014  2.1040  1.9282 -0.8500
21129SOL    HW272166   1.080   5.379   6.976 -0.0176 -1.1032  1.0961
21130SOL     OW72167   6.074   2.419   5.597  0.1157 -0.0414 -0.0163
21130SOL    HW172168   6.164   2.390   5.582  0.5478  0.5080  1.3400
21130SOL    HW272169   6.081   2.514   5.608 -0.6397  0.0136  0.0514
21131SOL     OW72170   2.744   2.251   3.077 -0.1501 -0.0386 -0.0001
21131SOL    HW172171   2.734   2.322   3.013 -0.8562 -0.0375  0.1043
21131SOL    HW272172   2.712   2.173   3.032  0.5960 -0.2928 -0.1030
21132SOL     OW72173   2.404  12.598  12.222  0.1180  0.1583  0.3438
21132SOL    HW172174   2.404  12.574  12.314  0.8228  0.6923  0.4909
21132SOL    HW272175   2.340  12.539  12.181  2.1964 -2.4267  0.5655
21133SOL     OW72176   2.319   7.761   6.462 -0.0913 -0.0518 -0.2748
21133SOL    HW172177   2.301   7.815   6.385  0.4615 -0.9840 -1.0830
21133SOL    HW272178   2.325   7.671   6.427 -2.4168 -0.8603  1.2315
21134SOL     OW72179   4.124   3.203   0.178  0.4941 -0.1263  0.0887
21134SOL    HW172180   4.081   3.117   0.179  0.8640 -0.3175 -0.0479
21134SOL    HW272181   4.126   3.230   0.270 -0.7978  0.3416 -0.0046
21135SOL     OW72182   1.229   7.072   5.734  0.2842  0.3717  0.4523
21135SOL    HW172183   1.165   7.077   5.804 -2.4171 -0.9178 -1.7365
21135SOL    HW272184   1.178   7.085   5.654  3.0724  1.0169 -1.3706
21136SOL     OW72185  10.693   1.407   1.359  0.2008  0.1988  0.0843
21136SOL    HW172186  10.761   1.364   1.412  0.0154 -1.1628 -0.7375
21136SOL    HW272187  10.619   1.415   1.419 -0.2683 -2.0307 -0.1196
21137SOL     OW72188   9.260   0.401   4.376 -0.8987 -0.3167 -0.0029
21137SOL    HW172189   9.319   0.354   4.435 -0.5154  0.1769  0.0057
21137SOL    HW272190   9.172   0.372   4.402 -0.6983 -0.5716  0.4001
21138SOL     OW72191   1.207   4.017   1.704 -0.0095 -0.1940 -0.0927
21138SOL    HW172192   1.244   4.070   1.773  0.0956  1.0819 -1.0933
21138SOL    HW272193   1.248   4.049   1.623 -1.0292 -0.7991 -0.8852
21139SOL     OW72194   6.157   1.514   3.104  0.0064  0.3169  0.0875
21139SOL    HW172195   6.185   1.583   3.044  1.4667 -1.2320 -1.1281
21139SOL    HW272196   6.237   1.467   3.126 -0.7770 -0.2744  1.8251
21140SOL     OW72197  12.563   9.032   4.148  0.4222  0.5519 -0.1367
21140SOL    HW172198  12.608   9.066   4.070 -0.3807  1.4684 -0.2210
21140SOL    HW272199  12.543   8.941   4.126  1.3623  0.4139 -0.4731
21141SOL     OW72200   4.315   1.938  10.520  0.4923 -0.3894  0.0829
21141SOL    HW172201   4.310   1.859  10.574 -2.4181 -1.8102 -1.9953
21141SOL    HW272202   4.250   1.997  10.557 -1.0725 -1.1249 -1.3940
21142SOL     OW72203   0.915   9.176   5.117 -0.3166  0.2641 -0.2372
21142SOL    HW172204   0.835   9.128   5.098 -0.2406  0.8294 -2.1350
21142SOL    HW272205   0.892   9.268   5.102  0.1098  0.6583  1.3141
21143SOL     OW72206   1.879   7.715  12.025 -0.1320 -0.4780 -1.2016
21143SOL    HW172207   1.951   7.752  12.076 -1.2013 -0.1040  0.0753
21143SOL    HW272208   1.921   7.685  11.944  1.5294 -0.6762 -0.3207
21144SOL     OW72209   4.809   3.423   5.073  0.0648 -0.1784  0.6005
21144SOL    HW172210   4.757   3.343   5.073 -2.1876  1.1933  0.1364
21144SOL    HW272211   4.845   3.428   5.161  1.4441 -2.3716  0.2403
21145SOL     OW72212   6.232   7.494  10.419 -0.2228 -0.5242  0.3998
21145SOL    HW172213   6.288   7.417  10.420  0.8443  0.2184  1.9775
21145SOL    HW272214   6.293   7.568  10.417 -1.2059  0.2868 -0.2606
21146SOL     OW72215   1.171   8.497  11.138  0.2980  0.3366 -0.1546
21146SOL    HW172216   1.079   8.477  11.155  0.1328 -0.5030 -1.8105
21146SOL    HW272217   1.217   8.413  11.153  0.5387  0.3176 -0.9604
21147SOL     OW72218   7.221   1.829   1.374  0.1355 -0.1831 -0.3105
21147SOL    HW172219   7.286   1.765   1.402  1.6027  2.0151  1.6581
21147SOL    HW272220   7.263   1.875   1.301  0.1211  0.2065 -0.0712
21148SOL     OW72221   3.237   1.515   9.130 -0.3046  0.6738  0.5333
21148SOL    HW172222   3.310   1.514   9.192 -0.5578 -0.9136  0.8477
21148SOL    HW272223   3.263   1.454   9.061 -0.8449  0.9799  0.0495
21149SOL     OW72224   1.520   7.019   1.280  0.2325  0.2415 -0.0276
21149SOL    HW172225   1.448   6.991   1.224 -0.0060  1.6929 -0.4852
21149SOL    HW272226   1.487   7.098   1.324  1.9871  1.7827 -1.3151
21150SOL     OW72227   0.951   3.300   3.597 -0.3921 -0.3209 -0.1825
21150SOL    HW172228   1.032   3.285   3.547  0.3724  1.7910  0.2844
21150SOL    HW272229   0.947   3.396   3.607 -1.9556 -0.5036  1.4590
21151SOL     OW72230   6.061   0.970   2.379 -0.6594  0.0422  0.1401
21151SOL    HW172231   6.069   0.894   2.322  0.1915 -0.5302  1.0048
21151SOL    HW272232   6.071   1.045   2.320 -1.5823 -0.4844 -0.7325
21152SOL     OW72233   0.043   8.606   6.312 -0.0955  0.4257 -0.1366
21152SOL    HW172234   0.057   8.582   6.220 -0.6719  1.4974 -0.5219
21152SOL    HW272235   0.128   8.641   6.340  0.8564 -2.1845  0.5276
21153SOL     OW72236   6.286   9.122   4.987 -0.3944  0.0200  0.4332
21153SOL    HW172237   6.348   9.194   4.978  1.5087 -1.8226 -3.7312
21153SOL    HW272238   6.219   9.140   4.921 -0.5125 -1.4264  0.1422
21154SOL     OW72239   9.176   7.381   5.784  0.3077  0.3335 -0.3364
21154SOL    HW172240   9.084   7.408   5.780  0.3186  0.2406 -1.2951
21154SOL    HW272241   9.172   7.291   5.817 -0.0144  0.0220 -1.1944
21155SOL     OW72242   1.552  11.177   8.104  0.7164  0.7049  0.3353
21155SOL    HW172243   1.481  11.239   8.122 -0.9124 -0.8870 -0.2280
21155SOL    HW272244   1.533  11.102   8.160  1.6671  0.0342 -0.2041
21156SOL     OW72245   6.278   1.576   1.425  0.2331 -0.4960  0.2177
21156SOL    HW172246   6.317   1.503   1.473  2.1313  1.6231  2.1483
21156SOL    HW272247   6.287   1.551   1.333  2.7404 -1.8498  0.7241
21157SOL     OW72248   4.722   6.232   5.473  0.2239  0.1097 -0.1253
21157SOL    HW172249   4.727   6.328   5.478  0.1271  0.1349 -0.4908
21157SOL    HW272250   4.787   6.202   5.537 -0.2771  0.4166  0.5329
21158SOL     OW72251   6.780   9.633   1.176  0.4871  0.0948  0.0033
21158SOL    HW172252   6.783   9.597   1.265 -1.4989  1.1348  0.5589
21158SOL    HW272253   6.828   9.570   1.123  0.4086 -1.3619  1.5682
21159SOL     OW72254   9.258   8.487   2.566 -0.0884 -0.0275  0.3330
21159SOL    HW172255   9.295   8.454   2.648 -0.5755  0.2866  0.6832
21159SOL    HW272256   9.166   8.464   2.570 -0.0959 -0.0950 -0.1734
21160SOL     OW72257   2.434   7.619   6.133  0.3603  0.1439 -0.1274
21160SOL    HW172258   2.496   7.683   6.168 -2.0632  1.6254  1.8098
21160SOL    HW272259   2.398   7.575   6.210 -0.9989 -0.6293 -1.1464
21161SOL     OW72260   5.103   3.930   2.171  0.2595 -0.5607 -0.3484
21161SOL    HW172261   5.082   4.000   2.109 -0.0279  0.2538  0.6619
21161SOL    HW272262   5.119   3.853   2.115  1.2670  0.4582 -1.5152
21162SOL     OW72263   3.158   8.050  10.599  0.3672  0.1935 -0.4388
21162SOL    HW172264   3.171   8.036  10.506  1.8952  1.1526 -0.4078
21162SOL    HW272265   3.104   8.129  10.604  1.4320  0.9547 -0.5345
21163SOL     OW72266   4.215   8.470  10.368 -0.1060  0.5394 -0.9708
21163SOL    HW172267   4.266   8.541  10.330  1.8943 -1.4418 -2.2471
21163SOL    HW272268   4.124   8.492  10.349  0.5762  1.8331 -2.9937
21164SOL     OW72269  11.728   3.697  10.449  0.5080  0.6810 -0.0358
21164SOL    HW172270  11.728   3.619  10.505 -0.9708  0.5860 -0.1282
21164SOL    HW272271  11.711   3.770  10.509  1.8414  0.9485  0.0424
21165SOL     OW72272   8.198   6.094   0.649 -0.6669 -0.0396  0.0175
21165SOL    HW172273   8.162   6.113   0.562 -1.6223 -1.5391  0.0556
21165SOL    HW272274   8.230   6.004   0.643  0.1447  0.1720  0.9468
21166SOL     OW72275   6.717   6.534   8.875  0.3250 -0.0814  0.1607
21166SOL    HW172276   6.648   6.467   8.881  0.3326 -0.0629  0.4777
21166SOL    HW272277   6.722   6.570   8.963 -0.9259  1.5932 -0.3955
21167SOL     OW72278   2.600   7.819   6.212  0.3939 -0.0899 -0.0231
21167SOL    HW172279   2.691   7.845   6.199  0.7606 -0.9827  0.6577
21167SOL    HW272280   2.551   7.871   6.148  1.5766 -0.9363 -1.7031
21168SOL     OW72281   2.384   6.555  10.908 -0.6064 -0.0654 -0.4691
21168SOL    HW172282   2.444   6.517  10.845 -1.9659 -0.4275 -1.5930
21168SOL    HW272283   2.394   6.649  10.898 -0.5995 -0.1235 -1.0323
21169SOL     OW72284   4.530   7.282   5.965 -0.3034 -0.2308 -0.8950
21169SOL    HW172285   4.435   7.273   5.959 -0.6447  2.5833 -1.0446
21169SOL    HW272286   4.558   7.290   5.874 -0.0310 -0.3081 -0.8168
21170SOL     OW72287  10.045   9.852   1.610 -0.0391 -0.6611 -0.0386
21170SOL    HW172288  10.024   9.809   1.693  1.7727 -0.7024  0.4375
21170SOL    HW272289  10.080   9.937   1.635 -1.8853  0.4228 -0.9045
21171SOL     OW72290   2.542   2.100   7.438 -0.1728  0.5057  0.5280
21171SOL    HW172291   2.505   2.186   7.458  0.1832  0.7443  0.1578
21171SOL    HW272292   2.621   2.118   7.388 -0.5122 -0.0606 -0.2409
21172SOL     OW72293   5.565   1.001  12.434 -0.1136 -0.6731  0.0682
21172SOL    HW172294   5.481   1.000  12.480 -0.3237  2.4316 -0.0395
21172SOL    HW272295   5.621   1.057  12.488  1.6906 -2.0348 -0.2835
21173SOL     OW72296  10.438   3.066   1.926 -0.0376  0.3261 -0.1712
21173SOL    HW172297  10.445   3.162   1.932  0.0180  0.3033  0.1166
21173SOL    HW272298  10.350   3.046   1.957 -0.1457  0.3037 -0.4818
21174SOL     OW72299   2.630   1.740   8.686 -0.3863 -0.3695 -0.2479
21174SOL    HW172300   2.662   1.651   8.702 -0.7393 -0.6024 -0.8281
21174SOL    HW272301   2.709   1.791   8.670 -0.1617 -0.5237  0.3378
21175SOL     OW72302   6.207  12.183   1.477  0.5868 -0.2552 -0.0419
21175SOL    HW172303   6.283  12.213   1.428  2.6447 -0.8641  2.5633
21175SOL    HW272304   6.219  12.220   1.565 -1.2592 -1.7053  0.8886
21176SOL     OW72305   0.048   1.060   0.031 -0.0758  0.3338 -0.3821
21176SOL    HW172306   0.012   1.140   0.070  0.2279  1.0782 -1.5937
21176SOL    HW272307   0.015   1.060  -0.059 -1.7579 -1.9708  0.1285
21177SOL     OW72308   8.484   2.721   1.343  0.2781 -0.0389 -0.2771
21177SOL    HW172309   8.400   2.675   1.343 -0.3062  0.9722  1.3054
21177SOL    HW272310   8.478   2.782   1.269 -1.6138  2.0842  1.4750
21178SOL     OW72311  11.394   7.886   5.632 -0.1926 -0.0906  0.2093
21178SOL    HW172312  11.399   7.804   5.584  0.5246  0.2886 -0.3749
21178SOL    HW272313  11.301   7.909   5.631 -0.1976 -0.1324 -0.9174
21179SOL     OW72314   1.197   4.794   1.205  0.4137 -0.3886  0.0389
21179SOL    HW172315   1.285   4.807   1.170 -0.1541 -0.7856 -1.6202
21179SOL    HW272316   1.197   4.843   1.288  1.0165  3.0567 -1.7755
21180SOL     OW72317  12.145   8.692   4.706 -0.6731 -0.0869  0.0564
21180SOL    HW172318  12.141   8.662   4.616  1.1968  0.9578 -0.4301
21180SOL    HW272319  12.119   8.784   4.702  0.7255  0.3494  0.3193
21181SOL     OW72320   8.071   5.713  12.483 -0.0083  0.3567 -0.1280
21181SOL    HW172321   8.147   5.725  12.541 -1.3373 -0.6159  1.9738
21181SOL    HW272322   8.008   5.666  12.538 -0.8531 -1.9477 -2.8572
21182SOL     OW72323   2.187   6.401   3.099  0.2016  0.2098 -0.4713
21182SOL    HW172324   2.116   6.449   3.056  0.3337  1.1042  0.2608
21182SOL    HW272325   2.220   6.342   3.032 -0.9357  0.1050 -0.9565
21183SOL     OW72326   2.049   8.979  10.268 -0.1369 -0.3552  0.0872
21183SOL    HW172327   2.096   9.018  10.342 -0.4009 -0.1373  0.1464
21183SOL    HW272328   1.981   9.043  10.248  0.6323  0.1289 -1.0820
21184SOL     OW72329   1.796   4.891   5.089 -0.1872  0.3934  0.2067
21184SOL    HW172330   1.756   4.965   5.135 -0.6635  0.3033 -0.0513
21184SOL    HW272331   1.773   4.905   4.997 -0.4675 -0.1873  0.1818
21185SOL     OW72332   5.755   5.136   2.413  0.7334  0.0491 -0.3168
21185SOL    HW172333   5.746   5.144   2.318 -1.5863  1.1476 -0.0660
21185SOL    HW272334   5.835   5.184   2.434  0.3289  1.3164 -1.5509
21186SOL     OW72335   3.511   9.058   9.141  0.0432 -0.0322  0.3224
21186SOL    HW172336   3.538   8.967   9.157  0.3101  0.2890  1.8720
21186SOL    HW272337   3.467   9.055   9.056  0.9544 -1.4157 -0.1438
21187SOL     OW72338   8.538   9.284   2.396 -0.2836  0.3199  0.0207
21187SOL    HW172339   8.459   9.276   2.449 -1.6783  0.0232 -1.9924
21187SOL    HW272340   8.572   9.371   2.417 -0.6980  0.1580  1.4812
21188SOL     OW72341   8.895   3.028   0.894  0.5535  0.1897  0.0967
21188SOL    HW172342   8.924   3.118   0.880 -1.8331  1.1144  0.6563
21188SOL    HW272343   8.877   2.994   0.806 -1.8855  1.5194  0.0001
21189SOL     OW72344   4.309   5.952   8.313 -0.0451  0.0854  0.4097
21189SOL    HW172345   4.327   5.896   8.389  0.7981  0.9819  0.8901
21189SOL    HW272346   4.295   6.039   8.351  0.5457  0.5749 -0.4823
21190SOL     OW72347   2.458   5.998   1.912 -0.9021 -0.1571  0.0427
21190SOL    HW172348   2.503   5.980   1.995 -0.1836  0.4106 -0.2073
21190SOL    HW272349   2.430   5.912   1.880  2.3156 -0.9366 -1.0665
21191SOL     OW72350   5.164   0.427   8.022  0.2514 -0.1195 -0.3248
21191SOL    HW172351   5.159   0.522   8.017 -0.2962 -0.0523  1.1061
21191SOL    HW272352   5.252   0.409   8.056 -0.3449 -0.0128  1.3364
21192SOL     OW72353   5.866  12.513   2.807 -0.2142  0.5857 -0.5235
21192SOL    HW172354   5.918  12.462   2.870 -0.6847  0.5437 -0.1655
21192SOL    HW272355   5.930  12.570   2.764 -0.0518  1.4844  0.8328
21193SOL     OW72356   7.976   3.796   6.668  0.1933  0.2591  0.3134
21193SOL    HW172357   7.995   3.867   6.729 -2.2787 -0.4295  2.0671
21193SOL    HW272358   8.025   3.721   6.701  0.8640  0.5130 -0.0879
21194SOL     OW72359  11.559  11.263   4.719 -0.1345  0.0502 -0.4957
21194SOL    HW172360  11.597  11.247   4.633  0.2583 -3.7119  0.1985
21194SOL    HW272361  11.625  11.315   4.765  0.1920  1.0399 -2.0262
21195SOL     OW72362   5.726   5.467   5.639 -0.4464  0.0388  0.2653
21195SOL    HW172363   5.646   5.442   5.591 -0.7808 -1.6794  1.6154
21195SOL    HW272364   5.791   5.481   5.571 -0.8379 -2.5610 -0.7591
21196SOL     OW72365   0.803   7.002   0.233 -0.3645 -0.5675 -0.1007
21196SOL    HW172366   0.730   6.971   0.286 -1.1014 -0.2113 -0.8840
21196SOL    HW272367   0.771   7.082   0.191  1.3941  1.1738  1.6648
21197SOL     OW72368   5.157  10.906   2.671 -0.0039  0.2815 -0.3391
21197SOL    HW172369   5.097  10.974   2.703 -2.0496 -0.4400 -2.3304
21197SOL    HW272370   5.150  10.913   2.576  0.6903 -1.9119 -0.5831
21198SOL     OW72371   7.171   3.331   9.279  0.2656  0.1925 -0.6376
21198SOL    HW172372   7.153   3.359   9.189 -0.2141  2.1236  0.0012
21198SOL    HW272373   7.175   3.413   9.329 -0.4139 -0.8661  1.2622
21199SOL     OW72374  11.191   7.256   0.863 -0.0218 -0.1661 -0.5898
21199SOL    HW172375  11.166   7.321   0.929  1.2165 -0.7195  0.4739
21199SOL    HW272376  11.186   7.172   0.908  0.6724 -0.5731 -1.2403
21200SOL     OW72377   1.086   9.556   6.082 -0.0402  0.1862 -0.1015
21200SOL    HW172378   1.037   9.506   6.147  3.8991 -1.3801  2.0299
21200SOL    HW272379   1.109   9.637   6.126  2.0217 -0.5663  0.3374
21201SOL     OW72380  10.417   5.073   5.139 -0.2268  0.6096  0.4715
21201SOL    HW172381  10.325   5.080   5.163 -0.7075 -1.3952 -0.5316
21201SOL    HW272382  10.418   5.008   5.069  2.0820 -0.2492  1.2180
21202SOL     OW72383  11.426  10.877   6.009 -0.1091  0.1277 -0.5064
21202SOL    HW172384  11.379  10.958   6.032 -1.3506 -0.5892 -0.3968
21202SOL    HW272385  11.472  10.898   5.928 -1.7852  0.4720 -1.4195
21203SOL     OW72386   5.447   0.050   3.805 -0.1917 -0.8418  0.1870
21203SOL    HW172387   5.530   0.004   3.812 -0.5689 -1.5052  0.4014
21203SOL    HW272388   5.393  -0.005   3.749 -0.1240  0.1398 -0.8840
21204SOL     OW72389  11.822   3.427   1.495  0.2226  0.2199  0.0720
21204SOL    HW172390  11.824   3.344   1.542 -0.1633 -0.1388 -0.5357
21204SOL    HW272391  11.909   3.435   1.457  0.9027  1.0229  1.6840
21205SOL     OW72392  10.805  10.791   9.909  0.2048  0.3032  0.5832
21205SOL    HW172393  10.831  10.874   9.948 -2.1709  2.0592 -1.2049
21205SOL    HW272394  10.859  10.783   9.830  0.4984  0.0909  0.8047
21206SOL     OW72395   6.162  11.688  12.247  0.1700  0.4545  0.4963
21206SOL    HW172396   6.201  11.603  12.227  1.1795  0.9095  0.4777
21206SOL    HW272397   6.071  11.669  12.268  0.0588 -0.4931 -0.7487
21207SOL     OW72398  11.784  10.096   6.872  0.0181 -0.5379 -0.2546
21207SOL    HW172399  11.845  10.161   6.909 -0.2543 -0.6419  0.3770
21207SOL    HW272400  11.748  10.140   6.795 -0.0441  0.0056  0.0759
21208SOL     OW72401  10.911   6.677   6.599 -0.4434  0.5816  0.0554
21208SOL    HW172402  10.912   6.709   6.509  1.2183  1.5284  0.3729
21208SOL    HW272403  10.886   6.753   6.651  1.4253  0.8364  0.6279
21209SOL     OW72404   0.250   8.226   0.041  0.0807  0.1337 -0.2674
21209SOL    HW172405   0.169   8.250   0.086 -0.5957 -1.2205 -0.7244
21209SOL    HW272406   0.265   8.298  -0.021  0.5163  1.5474  1.3877
21210SOL     OW72407   6.850   6.063   0.602 -0.2779 -0.4040  0.1819
21210SOL    HW172408   6.790   6.128   0.639  0.0833 -0.0231  0.1082
21210SOL    HW272409   6.937   6.103   0.610 -0.1431 -0.5097 -0.6610
21211SOL     OW72410   0.120   4.064   2.654  0.8405 -0.4401  0.0821
21211SOL    HW172411   0.197   4.048   2.599  0.6924 -0.4351 -0.1327
21211SOL    HW272412   0.117   3.989   2.713  0.1393 -1.2520 -0.9355
21212SOL     OW72413   0.525   6.380   8.798  0.1679 -0.0511  0.2901
21212SOL    HW172414   0.546   6.372   8.705 -2.1400  0.7800 -0.3898
21212SOL    HW272415   0.436   6.344   8.805 -0.0425  0.7161  1.9807
21213SOL     OW72416  12.062   6.361   6.319 -0.1093 -0.7782 -0.2226
21213SOL    HW172417  12.138   6.418   6.329  0.5496 -1.2551 -2.1584
21213SOL    HW272418  11.990   6.409   6.361  1.0299  0.1093  0.7828
21214SOL     OW72419   1.902  11.308   0.843  0.3012  0.0723  0.5708
21214SOL    HW172420   1.930  11.384   0.791  0.5546 -0.0764  0.4867
21214SOL    HW272421   1.809  11.297   0.822  0.1592  0.6088  0.8973
21215SOL     OW72422  11.046   0.447  10.558 -0.5519  0.1206  0.5239
21215SOL    HW172423  11.013   0.432  10.647  1.6551  0.7031  1.5130
21215SOL    HW272424  11.134   0.409  10.559 -0.7552 -0.5277 -1.6761
21216SOL     OW72425   6.986   5.203  10.317 -0.1649  0.5213 -0.1132
21216SOL    HW172426   7.073   5.215  10.353 -0.4969  1.0328  0.5449
21216SOL    HW272427   6.999   5.203  10.222  0.6294 -0.1336 -0.0112
21217SOL     OW72428   3.704   6.425   4.985 -0.2084  0.3422  0.7738
21217SOL    HW172429   3.658   6.359   4.933 -1.4269  0.4304  1.7001
21217SOL    HW272430   3.794   6.423   4.951 -0.7067 -0.3374 -0.5939
21218SOL     OW72431   1.641   1.847   4.044  0.1287 -0.2841 -0.7663
21218SOL    HW172432   1.669   1.935   4.017 -0.7266  0.0319 -0.6673
21218SOL    HW272433   1.619   1.802   3.963 -1.3225  0.2746 -0.7226
21219SOL     OW72434   4.456   7.493  12.052 -0.1194  0.3329 -0.1807
21219SOL    HW172435   4.445   7.568  12.111 -3.4453 -2.6156  3.5912
21219SOL    HW272436   4.525   7.440  12.094 -0.3552 -0.3998 -0.7045
21220SOL     OW72437   5.086   9.989   6.719 -0.6794  0.0357 -0.7941
21220SOL    HW172438   5.083  10.075   6.676 -0.8979  0.5378  0.2050
21220SOL    HW272439   5.079  10.008   6.812  4.2736 -0.6657 -0.0314
21221SOL     OW72440   1.957  11.107  11.252 -0.1648  0.2816 -0.7091
21221SOL    HW172441   1.937  11.017  11.276 -0.7584  0.5018 -0.3691
21221SOL    HW272442   1.888  11.131  11.190 -0.0964  0.5517 -0.6822
21222SOL     OW72443   4.787   2.576   7.944 -0.1353  0.2093 -0.7997
21222SOL    HW172444   4.853   2.598   7.879 -1.6119  1.4006 -1.9649
21222SOL    HW272445   4.735   2.656   7.954  0.6218  0.4263  2.6275
21223SOL     OW72446   1.278  10.780   3.023  0.1227 -0.2979 -0.0579
21223SOL    HW172447   1.277  10.691   2.988  2.5281 -0.4481  0.0652
21223SOL    HW272448   1.280  10.836   2.945 -0.6553 -0.3713 -0.1348
21224SOL     OW72449   3.809   8.113   9.274  0.6885  0.1217  0.0765
21224SOL    HW172450   3.779   8.107   9.365 -0.3316 -0.6664 -0.3032
21224SOL    HW272451   3.879   8.048   9.268 -0.1468 -0.7948 -0.0364
21225SOL     OW72452   6.929   4.920   0.375  0.3212  0.6553  0.9197
21225SOL    HW172453   6.896   4.963   0.454  0.4071  0.2844  1.1603
21225SOL    HW272454   6.966   4.992   0.323 -0.5071  1.0216  0.8190
21226SOL     OW72455   3.967   4.536   9.232 -0.2471  0.2600  0.4329
21226SOL    HW172456   4.000   4.604   9.173  0.4873 -0.1713  0.3259
21226SOL    HW272457   4.001   4.454   9.196 -2.0987 -0.3048 -0.1105
21227SOL     OW72458   5.965   9.773   6.704 -0.1045  0.0964  0.1072
21227SOL    HW172459   6.007   9.844   6.753 -1.7970  1.2202  0.0222
21227SOL    HW272460   5.999   9.782   6.615  1.4870 -0.7282  0.5902
21228SOL     OW72461   0.127  11.477   1.744  0.1143  0.0071 -0.2751
21228SOL    HW172462   0.187  11.428   1.801  0.0197  1.3689  1.0463
21228SOL    HW272463   0.107  11.557   1.793 -0.0685  1.1908 -2.1701
21229SOL     OW72464   9.682   7.093   9.678  0.0056 -0.4419  0.5227
21229SOL    HW172465   9.608   7.142   9.713 -1.5324 -1.3722 -1.2515
21229SOL    HW272466   9.681   7.111   9.584  1.5011 -1.1834  0.3347
21230SOL     OW72467   5.114   2.690   1.541  0.6020  0.2242  0.2936
21230SOL    HW172468   5.032   2.738   1.551  0.0460 -0.9934  2.1791
21230SOL    HW272469   5.087   2.606   1.502  1.0916  0.1759  0.0558
21231SOL     OW72470  11.566  11.214   4.119  0.4826  0.1160  0.1735
21231SOL    HW172471  11.520  11.214   4.203 -0.1566  0.0081 -0.1665
21231SOL    HW272472  11.501  11.246   4.057  2.0308  4.1066  0.2974
21232SOL     OW72473  11.802   8.174   1.755 -0.2955  0.1390 -0.5590
21232SOL    HW172474  11.795   8.151   1.847  0.4220  0.4493 -0.4247
21232SOL    HW272475  11.751   8.107   1.709 -0.6240 -0.0328  0.0548
21233SOL     OW72476  10.557   4.761  10.798 -0.4006  0.6907 -0.2231
21233SOL    HW172477  10.505   4.823  10.747 -0.0064  1.1129 -0.1137
21233SOL    HW272478  10.561   4.683  10.743 -0.4607  0.9399 -0.5851
21234SOL     OW72479   3.530   6.230   6.947 -0.1666  0.3469 -0.8404
21234SOL    HW172480   3.535   6.238   6.852 -3.1651  2.4116 -0.9513
21234SOL    HW272481   3.541   6.136   6.963 -2.6661 -0.5859 -3.5730
21235SOL     OW72482   1.409   0.967   8.423  0.4546 -0.5090  0.0585
21235SOL    HW172483   1.437   0.879   8.399  0.4875  0.1658 -2.6692
21235SOL    HW272484   1.431   0.974   8.516  3.3345 -2.2813 -0.3608
21236SOL     OW72485   7.624   4.946   2.211  0.1833  0.0441 -0.4043
21236SOL    HW172486   7.580   4.967   2.293 -0.4338 -0.1245 -0.6922
21236SOL    HW272487   7.633   4.850   2.212  0.3887  0.0621 -0.4265
21237SOL     OW72488   7.012   4.772   3.448  0.4426 -0.1585 -0.1464
21237SOL    HW172489   7.017   4.693   3.394 -1.5591 -0.2761 -0.2324
21237SOL    HW272490   6.986   4.741   3.535 -2.8719  0.4712 -0.7501
21238SOL     OW72491   7.736   0.633   6.880  0.1308  0.0444  0.0814
21238SOL    HW172492   7.769   0.716   6.912 -3.5786  2.2485 -1.1915
21238SOL    HW272493   7.677   0.602   6.948  1.7415 -1.8627  0.7088
21239SOL     OW72494   4.807   3.899  10.560 -0.4394 -0.3034  0.3558
21239SOL    HW172495   4.741   3.830  10.547 -1.6584  0.9127 -0.0806
21239SOL    HW272496   4.766   3.978  10.527  1.0098  0.6219  0.6960
21240SOL     OW72497   9.558   6.310   2.634 -0.0869  0.1770 -0.4085
21240SOL    HW172498   9.624   6.240   2.634  1.1831  1.3431 -0.0518
21240SOL    HW272499   9.562   6.346   2.545 -0.2417  0.2564 -0.3829
21241SOL     OW72500   5.387   1.004  10.050  0.4492  0.1014  0.0221
21241SOL    HW172501   5.333   1.071  10.092  0.5247 -0.7570  1.5391
21241SOL    HW272502   5.324   0.940  10.017  0.3926  0.7486 -1.1734
21242SOL     OW72503   3.008   9.211   0.455 -0.0558  0.3142  0.1590
21242SOL    HW172504   2.917   9.238   0.467  0.1038  0.8560  0.1424
21242SOL    HW272505   3.015   9.193   0.361 -0.3035 -0.3173  0.2553
21243SOL     OW72506   4.314   8.320   1.693 -0.5488 -0.0848 -0.1894
21243SOL    HW172507   4.364   8.241   1.675 -0.5574  0.0557 -0.8493
21243SOL    HW272508   4.341   8.346   1.781 -0.5827 -0.8395  0.0503
21244SOL     OW72509  11.004  11.750   5.403 -0.0323  0.5026 -0.2618
21244SOL    HW172510  10.930  11.719   5.455 -1.1223  0.9564 -1.4746
21244SOL    HW272511  10.965  11.808   5.337  1.2497 -0.2267 -1.7361
21245SOL     OW72512  12.172   9.491  10.855 -0.2803  0.3850  0.2345
21245SOL    HW172513  12.220   9.520  10.778 -0.0944 -1.6900 -0.4958
21245SOL    HW272514  12.080   9.506  10.833 -0.2425 -0.4316 -0.5117
21246SOL     OW72515   2.913   8.875   3.940 -0.1272  0.8505 -0.4212
21246SOL    HW172516   2.892   8.962   3.974 -1.1957 -0.2499  1.9944
21246SOL    HW272517   3.008   8.867   3.948 -0.1098  1.5074  0.0590
21247SOL     OW72518   8.940   7.810   2.927 -0.0478  1.0216  0.2511
21247SOL    HW172519   8.881   7.780   2.996  0.6196  0.0647  0.4248
21247SOL    HW272520   9.017   7.842   2.974  0.2552  0.7121 -0.0254
21248SOL     OW72521  11.157   1.181   6.764  0.0223 -0.2209 -0.4856
21248SOL    HW172522  11.092   1.207   6.829 -0.0504 -0.2529 -0.5460
21248SOL    HW272523  11.241   1.191   6.809 -0.0703 -0.9934 -0.1280
21249SOL     OW72524   9.530   5.279   6.807  0.6234  0.2897  0.0292
21249SOL    HW172525   9.448   5.260   6.763  0.5092 -0.3405  0.4961
21249SOL    HW272526   9.525   5.372   6.827  0.3105  0.3961 -0.5232
21250SOL     OW72527   9.096   4.830  11.984  0.3013  0.2689 -0.1176
21250SOL    HW172528   9.145   4.776  11.923  0.0100 -0.2756  0.1273
21250SOL    HW272529   9.067   4.905  11.931 -0.4487 -0.4828 -0.7976
21251SOL     OW72530   7.295   8.644   5.235  0.2183 -0.0129  0.3471
21251SOL    HW172531   7.356   8.717   5.230 -0.2664  0.7346  3.3889
21251SOL    HW272532   7.349   8.567   5.217  1.3872  0.8372  0.0537
21252SOL     OW72533  10.714  11.480   9.018 -0.1686  0.0157 -0.2755
21252SOL    HW172534  10.746  11.420   8.951 -0.4662 -1.8432  1.1721
21252SOL    HW272535  10.771  11.466   9.093 -0.4377  1.3439  0.2113
21253SOL     OW72536   4.428  10.629   8.597  0.7244  0.2380 -0.2626
21253SOL    HW172537   4.473  10.642   8.680 -0.3725  2.0240  0.1178
21253SOL    HW272538   4.428  10.534   8.583  1.3297 -0.0585  1.5409
21254SOL     OW72539   9.093   3.918   0.652  0.1875  0.0237  0.0172
21254SOL    HW172540   9.033   3.868   0.597  0.2617  1.1143 -1.1070
21254SOL    HW272541   9.098   3.868   0.734 -1.1997 -0.7814 -0.3542
21255SOL     OW72542   0.251  11.442   8.339 -0.5938 -0.3339 -0.3227
21255SOL    HW172543   0.175  11.385   8.325  1.0390 -3.1012  1.1848
21255SOL    HW272544   0.245  11.468   8.431 -1.4416  2.3118 -1.0410
21256SOL     OW72545   7.477   6.599  10.090  0.1464 -0.0629 -0.0992
21256SOL    HW172546   7.416   6.646  10.034 -0.0568 -1.1639 -0.8438
21256SOL    HW272547   7.421   6.561  10.159 -0.3629 -2.4578 -1.6925
21257SOL     OW72548   0.731   6.363   1.053  0.3981 -0.0532 -0.2855
21257SOL    HW172549   0.785   6.304   1.001 -1.4167 -2.0768 -0.0467
21257SOL    HW272550   0.740   6.331   1.142  0.4002  0.8751  0.0495
21258SOL     OW72551   3.923   4.675   3.624 -0.3852  0.9621  0.0193
21258SOL    HW172552   4.006   4.695   3.666  0.5078 -1.0586 -0.6505
21258SOL    HW272553   3.857   4.692   3.691  0.8225 -0.1845  1.5689
21259SOL     OW72554   8.847  11.878   1.837 -0.2425 -0.0842  0.6169
21259SOL    HW172555   8.890  11.795   1.818  0.4589  0.4155 -0.0241
21259SOL    HW272556   8.831  11.918   1.752 -0.3641  0.5379  0.9202
21260SOL     OW72557   8.242  11.679   2.749 -0.1602 -0.1394  0.4870
21260SOL    HW172558   8.171  11.695   2.812 -1.8599  1.3723 -1.6551
21260SOL    HW272559   8.204  11.703   2.664  2.4558 -0.8025 -0.9638
21261SOL     OW72560   2.266   8.138   8.674 -0.1966  0.3783  0.3651
21261SOL    HW172561   2.277   8.050   8.636  0.0291  1.0326 -1.1678
21261SOL    HW272562   2.199   8.127   8.741  0.0474 -1.0298  0.4064
21262SOL     OW72563   5.860   1.548   7.083 -0.1346 -0.0496  0.4354
21262SOL    HW172564   5.765   1.550   7.087 -0.0889  0.5758  1.5521
21262SOL    HW272565   5.880   1.473   7.027 -1.2463 -1.4848  1.8826
21263SOL     OW72566   4.055   7.012   7.634  0.5547 -0.5980 -0.0600
21263SOL    HW172567   4.004   6.955   7.575 -2.2391  0.4845  1.1652
21263SOL    HW272568   4.115   6.952   7.679 -0.3230 -2.1152 -0.8381
21264SOL     OW72569  12.415   1.600   8.267  0.2369 -0.0971 -0.5670
21264SOL    HW172570  12.431   1.593   8.173 -0.1307  0.8240 -0.7123
21264SOL    HW272571  12.499   1.626   8.304  0.1224  0.6662 -0.8049
21265SOL     OW72572   5.555  10.052   3.856 -0.4256 -0.1507  0.3393
21265SOL    HW172573   5.603  10.020   3.779 -2.1932 -0.9372 -0.4793
21265SOL    HW272574   5.547   9.975   3.912  1.8242  0.6572  1.9213
21266SOL     OW72575   9.226   5.448  11.614  0.0737  0.3526 -0.1883
21266SOL    HW172576   9.316   5.444  11.582  0.1573  3.4542 -0.6526
21266SOL    HW272577   9.217   5.537  11.647 -2.4075 -0.3478  1.2614
21267SOL     OW72578   7.128  10.693   5.425  1.0063  0.2896 -0.2446
21267SOL    HW172579   7.142  10.756   5.354  1.2085 -0.2810 -0.7137
21267SOL    HW272580   7.034  10.676   5.424  1.0932 -0.1925 -0.7907
21268SOL     OW72581   4.799   2.504   6.422  0.2904 -0.1286  0.6438
21268SOL    HW172582   4.802   2.544   6.508  0.2548  0.5324  0.3425
21268SOL    HW272583   4.891   2.497   6.396  0.4073 -1.6669  1.3267
21269SOL     OW72584  10.010   1.142   9.240  0.2154 -0.0406  0.3237
21269SOL    HW172585  10.006   1.192   9.159 -3.8527  0.5720  0.6684
21269SOL    HW272586  10.013   1.051   9.212  0.6194  0.2096 -0.4766
21270SOL     OW72587   0.322   9.186  11.616 -0.6143  0.1388 -0.1378
21270SOL    HW172588   0.263   9.114  11.642 -0.9262  0.8804  1.3372
21270SOL    HW272589   0.410   9.150  11.629 -0.7587  0.2745  1.5416
21271SOL     OW72590   1.420   2.962   9.165  0.4905  0.3648 -0.1157
21271SOL    HW172591   1.365   2.909   9.108  0.2462  1.0759 -0.5614
21271SOL    HW272592   1.509   2.937   9.143  0.3844  0.3581 -0.5472
21272SOL     OW72593   1.494   3.240   4.661 -0.8450 -0.3775  0.1678
21272SOL    HW172594   1.445   3.322   4.670 -1.4551 -0.5221 -1.4829
21272SOL    HW272595   1.564   3.261   4.600  0.3685 -0.5409  1.4508
21273SOL     OW72596   0.746   1.812   2.455 -0.1207  0.0199  0.5422
21273SOL    HW172597   0.814   1.744   2.455 -1.0394 -0.9336 -0.0332
21273SOL    HW272598   0.669   1.768   2.491 -0.6744  0.8219  0.3527
21274SOL     OW72599   9.683   7.140  12.245 -0.1435 -0.0242 -0.4038
21274SOL    HW172600   9.587   7.135  12.253 -0.2687  1.8944 -0.1859
21274SOL    HW272601   9.716   7.085  12.316 -1.1067 -0.0316  0.0549
21275SOL     OW72602  10.068   0.578   9.669  0.3794 -0.0867  0.6440
21275SOL    HW172603  10.143   0.616   9.624  1.2303 -1.3866  0.9197
21275SOL    HW272604  10.101   0.496   9.706 -1.3111 -0.9768  0.2807
21276SOL     OW72605  11.226   3.374  10.516  0.3431  0.0385 -0.0768
21276SOL    HW172606  11.168   3.303  10.543 -0.7889  0.9491 -0.0314
21276SOL    HW272607  11.167   3.442  10.483  1.4269  0.7560 -0.5969
21277SOL     OW72608  12.543   8.710  11.294  0.1400  0.3422  0.2692
21277SOL    HW172609  12.461   8.661  11.290  0.7659 -0.7567  0.3242
21277SOL    HW272610  12.548   8.742  11.384  0.4416 -0.8534  0.7127
21278SOL     OW72611   4.547   9.739   6.525 -0.8682  0.1723 -0.0135
21278SOL    HW172612   4.631   9.784   6.520 -0.4096 -0.6382  0.2274
21278SOL    HW272613   4.514   9.740   6.435  0.5668 -1.6409 -0.6157
21279SOL     OW72614  11.148  10.039   7.562  0.4315  0.4168  0.5796
21279SOL    HW172615  11.116  10.004   7.646  0.0006  1.6907  0.9739
21279SOL    HW272616  11.175  10.129   7.583 -0.4660  1.0383 -0.8120
21280SOL     OW72617   2.433   1.910  10.044  0.5810 -0.0031 -0.3201
21280SOL    HW172618   2.508   1.966  10.026 -0.0699  1.7783  1.9923
21280SOL    HW272619   2.359   1.956  10.004 -0.0234  1.1174  1.9505
21281SOL     OW72620   8.008   5.729   9.121 -0.3680 -0.0060  0.4577
21281SOL    HW172621   8.021   5.691   9.035  0.2756  1.8720 -0.3242
21281SOL    HW272622   8.056   5.812   9.118 -0.9760  0.4657  2.3600
21282SOL     OW72623   9.302  11.714   8.286  0.1416  0.1239 -0.3813
21282SOL    HW172624   9.319  11.653   8.357  2.3419 -1.0108 -1.7491
21282SOL    HW272625   9.361  11.788   8.303 -0.0829  0.3289 -0.4824
21283SOL     OW72626   3.834   1.731   2.106  0.6365  0.0615 -0.0495
21283SOL    HW172627   3.751   1.687   2.088 -0.2228  0.2960  2.8441
21283SOL    HW272628   3.866   1.689   2.186  1.8984  1.8608  0.4418
21284SOL     OW72629  11.402   1.773   4.768  0.9780 -0.3361  0.5560
21284SOL    HW172630  11.377   1.696   4.818  0.2527 -0.1399  0.5047
21284SOL    HW272631  11.411   1.742   4.678  0.2880 -0.2852  0.4654
21285SOL     OW72632   8.884   7.258  10.124 -0.4910 -0.0536  0.7040
21285SOL    HW172633   8.815   7.309  10.168 -0.2654  0.6492  0.2587
21285SOL    HW272634   8.932   7.217  10.196 -1.2656 -0.4270  1.0301
21286SOL     OW72635   8.385  10.735   1.709 -0.5763 -0.1732 -0.1535
21286SOL    HW172636   8.438  10.656   1.696  0.3093  0.2615  0.6348
21286SOL    HW272637   8.315  10.728   1.645 -2.0537 -2.9095  1.5719
21287SOL     OW72638   4.274   8.914  10.474 -0.5440  0.2889 -0.1118
21287SOL    HW172639   4.181   8.936  10.472 -0.8273 -0.4871  1.8404
21287SOL    HW272640   4.310   8.970  10.543  0.5406  0.8719 -1.1206
21288SOL     OW72641   6.450   4.049   9.111 -0.0862 -0.0918 -0.2089
21288SOL    HW172642   6.513   4.032   9.040 -0.1615 -2.2287  0.1807
21288SOL    HW272643   6.503   4.052   9.190 -0.4070 -1.5969  0.0851
21289SOL     OW72644   0.650   6.257   9.258  0.9232 -0.4790 -0.3573
21289SOL    HW172645   0.650   6.268   9.163  1.1198  0.1783 -0.2828
21289SOL    HW272646   0.664   6.345   9.293  0.4544 -0.6498  0.2896
21290SOL     OW72647   6.367   5.803   7.321  0.0877 -0.1205  0.1321
21290SOL    HW172648   6.358   5.822   7.227 -0.6529 -1.0194  0.0101
21290SOL    HW272649   6.305   5.862   7.363 -1.0176 -1.0656 -0.1171
21291SOL     OW72650   6.919   9.949   5.073 -0.2985 -0.0049 -0.1708
21291SOL    HW172651   6.970   9.887   5.021  1.0263  0.6646  0.3000
21291SOL    HW272652   6.829   9.915   5.069  0.2252 -1.3827 -0.7541
21292SOL     OW72653  10.540   9.890   5.955 -0.5182  0.7132 -0.3042
21292SOL    HW172654  10.585   9.807   5.938  0.1055  0.7963  0.8600
21292SOL    HW272655  10.455   9.880   5.912 -0.6738 -0.7555  0.2756
21293SOL     OW72656   9.927   1.658   9.584 -0.1373  0.0463  0.1877
21293SOL    HW172657   9.912   1.564   9.593  0.9767 -0.2923 -1.0999
21293SOL    HW272658   9.900   1.678   9.495 -3.0780  1.5689  1.2893
21294SOL     OW72659   5.880  11.130   5.419 -0.5958 -0.2283  0.3178
21294SOL    HW172660   5.859  11.039   5.397  1.5041 -1.0809  1.5315
21294SOL    HW272661   5.799  11.164   5.458 -1.5001 -1.4720 -0.3724
21295SOL     OW72662   0.891   6.766   9.450  0.0473  0.5311  0.4801
21295SOL    HW172663   0.942   6.685   9.451  0.0699  0.5253 -0.4542
21295SOL    HW272664   0.828   6.755   9.522  0.2082 -0.2056  0.5199
21296SOL     OW72665  11.338   0.031   5.573  0.0121 -0.0148 -0.1034
21296SOL    HW172666  11.310   0.031   5.664 -0.8600 -4.4262 -0.1368
21296SOL    HW272667  11.433   0.040   5.577 -0.0792  0.6588  1.1323
21297SOL     OW72668  10.735  11.267   6.367  0.2986  0.0213  0.2448
21297SOL    HW172669  10.805  11.257   6.302  0.2309 -0.1271  0.1939
21297SOL    HW272670  10.781  11.293   6.447  0.6122 -1.6905  0.6545
21298SOL     OW72671   0.912  11.628   3.651  0.2963  0.1933 -0.1958
21298SOL    HW172672   0.946  11.558   3.594  0.5545  1.3737 -1.5552
21298SOL    HW272673   0.975  11.699   3.640 -0.9484  1.3023 -0.3134
21299SOL     OW72674   1.363   0.148  11.986 -0.1423 -0.3712  0.0687
21299SOL    HW172675   1.450   0.175  12.016 -0.5538  0.8783  0.1999
21299SOL    HW272676   1.364   0.166  11.892  0.5559 -2.6742 -0.4224
21300SOL     OW72677  12.173   0.269   7.785  0.5244  0.4332 -0.1201
21300SOL    HW172678  12.265   0.248   7.800  0.3926  0.9389  1.6668
21300SOL    HW272679  12.146   0.211   7.714  1.7281 -1.0575  0.5825
21301SOL     OW72680   4.113   8.745  12.078  0.3905  0.2339 -0.2036
21301SOL    HW172681   4.107   8.734  11.983  0.4915  0.0400 -0.1879
21301SOL    HW272682   4.190   8.694  12.103  0.3122  0.2113 -0.0051
21302SOL     OW72683   9.625   5.190   7.391  0.4828 -0.4789 -0.3113
21302SOL    HW172684   9.632   5.095   7.396  0.0156 -0.4565  1.2009
21302SOL    HW272685   9.710   5.219   7.357  0.6850 -1.4197 -0.6193
21303SOL     OW72686   3.026  11.244   8.663  0.1346 -0.2465 -0.2728
21303SOL    HW172687   3.115  11.247   8.697  0.2829  0.3354 -0.6997
21303SOL    HW272688   2.978  11.190   8.726  0.7655 -0.4853  0.0083
21304SOL     OW72689   7.204   1.830   4.395 -0.1365  0.4655 -0.6372
21304SOL    HW172690   7.296   1.831   4.421  0.0244 -0.8791 -1.0951
21304SOL    HW272691   7.166   1.906   4.439  1.3032  1.3583 -0.8723
21305SOL     OW72692   5.910   3.259  10.802 -0.4875  0.2908  0.3829
21305SOL    HW172693   5.868   3.343  10.820 -1.0469 -0.0218  0.5627
21305SOL    HW272694   5.863   3.223  10.727  0.8570  0.8977 -0.8011
21306SOL     OW72695   2.409   7.208  11.047 -0.2249  0.1482 -0.6580
21306SOL    HW172696   2.342   7.169  10.991  0.7337  0.2802 -1.9438
21306SOL    HW272697   2.445   7.280  10.995  0.8392  0.1542  0.0535
21307SOL     OW72698   4.822   7.768   2.185  0.0726 -0.4266 -0.1449
21307SOL    HW172699   4.754   7.834   2.173  2.1067  1.6090 -1.1620
21307SOL    HW272700   4.836   7.731   2.098 -0.3064 -1.4887  0.2221
21308SOL     OW72701  10.277   1.662  12.456 -0.2783 -0.1252  0.4036
21308SOL    HW172702  10.267   1.599  12.527 -1.8778 -0.5179 -0.1254
21308SOL    HW272703  10.187   1.690  12.436  0.1546  0.1410 -1.3048
21309SOL     OW72704   0.332   4.229   0.745 -0.3650 -0.0421 -0.4760
21309SOL    HW172705   0.305   4.230   0.837 -1.8237  0.3572 -0.8938
21309SOL    HW272706   0.426   4.211   0.749 -0.6395 -1.4611  1.0329
21310SOL     OW72707   9.696   2.524  10.920  1.1350 -0.4631 -0.2027
21310SOL    HW172708   9.758   2.453  10.931 -0.0360 -1.5134 -0.1590
21310SOL    HW272709   9.740   2.601  10.957  3.3461 -0.6012 -2.3117
21311SOL     OW72710  10.899   9.390  12.154  0.3203  0.0965 -0.3335
21311SOL    HW172711  10.811   9.355  12.152 -0.1377  1.1253  0.7288
21311SOL    HW272712  10.895   9.468  12.098  0.6238 -0.0070 -0.5017
21312SOL     OW72713   2.148  12.455   1.145  0.3397 -0.0336 -0.4034
21312SOL    HW172714   2.143  12.383   1.208 -0.1532 -0.6568 -1.1364
21312SOL    HW272715   2.168  12.412   1.062  2.1321  0.8820 -0.4927
21313SOL     OW72716  11.055   3.085   2.699 -0.5433  0.2561 -0.1536
21313SOL    HW172717  11.060   3.179   2.714 -2.4160  0.2796  0.5838
21313SOL    HW272718  11.144   3.060   2.674  0.4931  1.8897  1.6007
21314SOL     OW72719   5.171   4.761   4.630 -0.5207 -0.5152 -0.3958
21314SOL    HW172720   5.250   4.732   4.675  1.6862  1.8760 -2.4516
21314SOL    HW272721   5.103   4.758   4.698  1.5888 -1.3815  1.8234
21315SOL     OW72722   7.357   8.841   7.482  0.3335  0.5364 -0.4220
21315SOL    HW172723   7.323   8.811   7.397 -1.9177 -1.2167  0.9724
21315SOL    HW272724   7.389   8.762   7.525 -0.3021  1.0614  1.0956
21316SOL     OW72725   5.496   3.175   7.753  0.2500 -0.0423 -0.0626
21316SOL    HW172726   5.501   3.269   7.735 -0.3263  0.5371  2.4409
21316SOL    HW272727   5.586   3.143   7.741  0.6572  1.0342  0.0074
21317SOL     OW72728   0.377   1.232   4.285  0.5180  0.1242 -0.0773
21317SOL    HW172729   0.357   1.299   4.350 -2.6811 -1.3701  0.6326
21317SOL    HW272730   0.346   1.151   4.323 -1.2900 -0.8806 -3.3187
21318SOL     OW72731   9.687   3.402   8.140  0.5985 -0.1040  0.0944
21318SOL    HW172732   9.731   3.398   8.055  0.4467 -0.0325  0.0128
21318SOL    HW272733   9.718   3.484   8.179  0.1201  0.2164 -0.1919
21319SOL     OW72734   7.502   1.810   0.167  0.2792  0.5650 -0.1571
21319SOL    HW172735   7.424   1.771   0.206 -0.0948  1.3117 -0.1430
21319SOL    HW272736   7.575   1.774   0.218  0.0162 -0.7346 -0.6596
21320SOL     OW72737   1.498   1.900   5.853 -0.0074  0.3456  0.1668
21320SOL    HW172738   1.520   1.935   5.940  0.8471  0.1679  0.0311
21320SOL    HW272739   1.567   1.838   5.834 -0.8736 -0.5609 -0.1100
21321SOL     OW72740   4.723  12.610   4.259  0.1922 -0.1971 -0.3203
21321SOL    HW172741   4.661  12.682   4.259 -0.7024 -0.9411 -1.2844
21321SOL    HW272742   4.795  12.639   4.203 -0.0450  0.0417 -0.5012
21322SOL     OW72743  10.614   4.108   2.461  0.1154 -0.3778  0.4117
21322SOL    HW172744  10.664   4.181   2.497  1.4914 -0.2894 -1.5006
21322SOL    HW272745  10.660   4.030   2.492  1.4821 -0.2982 -1.2594
21323SOL     OW72746   3.876   8.741   7.790  0.2513  0.4080  0.1434
21323SOL    HW172747   3.790   8.699   7.785 -0.2894  1.5976 -1.1266
21323SOL    HW272748   3.902   8.732   7.882 -1.4618  0.4906  0.6649
21324SOL     OW72749   4.770   1.011   7.550 -0.6064 -0.2882  0.5402
21324SOL    HW172750   4.773   1.057   7.467 -1.5935 -3.0367 -1.1377
21324SOL    HW272751   4.851   1.036   7.594  0.0704  1.0223 -1.3342
21325SOL     OW72752   9.237   7.554  12.519  0.6976  0.3890  0.5180
21325SOL    HW172753   9.148   7.542  12.551  0.0886  1.8963 -0.4981
21325SOL    HW272754   9.257   7.646  12.539  1.6884  0.3166 -0.0772
21326SOL     OW72755   2.399   0.286   4.521 -0.9087 -0.0634 -0.3568
21326SOL    HW172756   2.473   0.232   4.494 -0.9035  0.3009 -1.0940
21326SOL    HW272757   2.422   0.374   4.492 -0.3574  0.6039  1.8701
21327SOL     OW72758   1.792   3.063   8.913  0.2638 -0.3371  0.0690
21327SOL    HW172759   1.884   3.060   8.940  0.5885  1.1722 -0.7740
21327SOL    HW272760   1.793   3.108   8.829 -1.3766  1.0601  0.7447
21328SOL     OW72761   9.128  10.772   3.014  0.5204  0.0208  0.6963
21328SOL    HW172762   9.122  10.695   3.070  0.6143  0.2091  0.9643
21328SOL    HW272763   9.043  10.775   2.969  1.5385 -1.9628 -1.5905
21329SOL     OW72764   5.532   9.044   5.787 -0.4324 -0.8290  0.1192
21329SOL    HW172765   5.483   9.074   5.710 -0.9673 -3.0574 -0.4878
21329SOL    HW272766   5.587   8.972   5.754  1.7137  0.2188  1.2270
21330SOL     OW72767   0.470   5.175   6.335 -0.0942  0.3664  0.0933
21330SOL    HW172768   0.514   5.232   6.272 -0.0205  1.0788  0.7746
21330SOL    HW272769   0.523   5.095   6.337  0.5701  0.8053  0.1308
21331SOL     OW72770   3.078  12.315   0.946  0.3069  0.7066 -0.4549
21331SOL    HW172771   3.128  12.397   0.951  1.3153  0.0958 -0.0840
21331SOL    HW272772   3.087  12.277   1.033 -1.8683  1.1460  0.0003
21332SOL     OW72773   3.954   4.423   3.514  0.2510  0.6067 -0.4284
21332SOL    HW172774   3.930   4.507   3.554 -0.0521 -0.9091  2.9072
21332SOL    HW272775   4.049   4.429   3.501  0.6231  0.7992  1.8479
21333SOL     OW72776   4.495   4.156   6.831 -0.5152  0.1596 -0.1204
21333SOL    HW172777   4.481   4.214   6.906 -1.5514  0.7105 -0.7195
21333SOL    HW272778   4.585   4.124   6.842 -0.8780 -0.3863  1.7764
21334SOL     OW72779  10.593   4.684   0.377 -0.3427  0.1210 -0.0524
21334SOL    HW172780  10.555   4.619   0.318  0.1288 -0.2059 -0.0021
21334SOL    HW272781  10.520   4.742   0.399  0.0154  1.9030 -3.0704
21335SOL     OW72782  11.380   1.476  10.546 -0.1121 -0.1914 -0.2616
21335SOL    HW172783  11.360   1.422  10.623 -2.8364  1.6870  0.4808
21335SOL    HW272784  11.453   1.531  10.574  1.2956 -1.9541 -0.3175
21336SOL     OW72785   9.475   8.522   1.018  0.3003  0.2854 -0.2228
21336SOL    HW172786   9.472   8.613   0.989 -0.2122  0.0123 -1.0831
21336SOL    HW272787   9.510   8.474   0.942 -1.2778 -0.4851 -0.5070
21337SOL     OW72788  10.382   3.602   7.113  0.6125 -0.6868 -0.1062
21337SOL    HW172789  10.300   3.603   7.162  1.5867 -0.8792  1.6101
21337SOL    HW272790  10.381   3.684   7.063  0.4759  0.5729  1.8530
21338SOL     OW72791  11.031   0.288  10.994  0.6291 -0.0462  0.5592
21338SOL    HW172792  10.969   0.216  10.998  0.4024 -0.0699 -1.8060
21338SOL    HW272793  10.998   0.352  11.057 -1.6479 -0.2027 -0.3873
21339SOL     OW72794   2.726   6.863   7.301 -0.6613 -0.0909 -0.6564
21339SOL    HW172795   2.782   6.786   7.296  0.2080  0.5238 -0.7801
21339SOL    HW272796   2.717   6.892   7.210  2.2205  2.1248 -0.3894
21340SOL     OW72797   6.618   9.393   8.278  0.6752  0.0374 -0.1560
21340SOL    HW172798   6.585   9.317   8.326 -1.0231  0.6584 -0.2788
21340SOL    HW272799   6.558   9.464   8.302  1.4975  1.0449 -0.9989
21341SOL     OW72800   0.193   8.383   1.338 -0.3583 -0.0160  0.5269
21341SOL    HW172801   0.210   8.445   1.267 -1.8412  1.1744  1.1515
21341SOL    HW272802   0.280   8.362   1.373  0.4721 -1.0219 -1.8926
21342SOL     OW72803   3.572   3.322   3.045  0.2458 -0.3723 -0.0681
21342SOL    HW172804   3.633   3.385   3.006 -0.5998 -0.0388 -0.8895
21342SOL    HW272805   3.490   3.370   3.052  0.1698 -0.6810  1.4290
21343SOL     OW72806   4.239   2.611  12.573  0.6143  0.1558 -0.2030
21343SOL    HW172807   4.284   2.693  12.557 -0.9517  0.9161 -0.9091
21343SOL    HW272808   4.281   2.548  12.513  1.1159  0.6822 -0.4132
21344SOL     OW72809   6.755   6.329   7.570 -0.0820  0.0880 -0.0155
21344SOL    HW172810   6.754   6.275   7.491  2.1494 -0.1303  0.0203
21344SOL    HW272811   6.769   6.418   7.538 -0.1548  0.1322  0.0757
21345SOL     OW72812   9.597   4.335   0.548  0.4598 -0.0682  0.2183
21345SOL    HW172813   9.639   4.277   0.612 -1.2022 -0.5571  0.9270
21345SOL    HW272814   9.636   4.311   0.464  0.8413 -1.1984  0.7029
21346SOL     OW72815  12.369   4.391   4.308  0.0010  0.5743 -0.1252
21346SOL    HW172816  12.319   4.449   4.365 -0.4775  0.0811 -0.0392
21346SOL    HW272817  12.437   4.355   4.365 -0.6254 -0.1059  0.2064
21347SOL     OW72818   4.799   7.135  11.490 -0.0733  0.7559  0.5284
21347SOL    HW172819   4.708   7.130  11.516 -0.0844 -0.0471  0.3664
21347SOL    HW272820   4.848   7.140  11.572 -0.0643 -2.4498  0.8472
21348SOL     OW72821  12.311   4.907   4.026 -0.2341 -0.1411  0.6375
21348SOL    HW172822  12.257   4.878   3.952  0.7663  0.3182 -0.3067
21348SOL    HW272823  12.354   4.986   3.994 -0.2259  0.3917  1.9355
21349SOL     OW72824   5.802   3.447   7.114 -0.2433 -0.1371  0.5317
21349SOL    HW172825   5.841   3.439   7.201 -1.2476 -0.0265  1.0113
21349SOL    HW272826   5.840   3.374   7.064  0.4920 -0.0832  0.9984
21350SOL     OW72827   9.217   0.240   7.525 -0.3659  0.0668 -0.0684
21350SOL    HW172828   9.126   0.265   7.511 -0.3567  0.9086  1.1658
21350SOL    HW272829   9.255   0.236   7.438 -1.5091 -0.0251 -0.5842
21351SOL     OW72830   8.503   5.092   8.414 -0.3933 -0.4029  0.0492
21351SOL    HW172831   8.506   5.121   8.323  2.0794 -3.7888 -1.1651
21351SOL    HW272832   8.577   5.137   8.456  0.0607 -0.7732 -0.3429
21352SOL     OW72833   4.050   2.071   0.541  0.7050  0.1290  0.6025
21352SOL    HW172834   4.088   2.001   0.488  0.2474 -0.3810  0.9444
21352SOL    HW272835   3.970   2.096   0.494  1.2765  0.9842  0.0527
21353SOL     OW72836   1.594   1.669   0.533 -0.5091  0.5779  0.1143
21353SOL    HW172837   1.542   1.638   0.606  1.3704 -3.2494  0.0617
21353SOL    HW272838   1.683   1.676   0.568  0.0770  0.6020 -1.3117
21354SOL     OW72839   9.699   5.069  11.625  0.1316 -0.0633 -0.4879
21354SOL    HW172840   9.686   5.015  11.547  1.0951  0.4674 -1.0312
21354SOL    HW272841   9.777   5.034  11.667 -0.0298  0.0462 -0.0909
21355SOL     OW72842   4.630   0.208  10.793 -0.2969  0.4068  0.1940
21355SOL    HW172843   4.557   0.151  10.771  0.2359  0.1730 -1.0711
21355SOL    HW272844   4.589   0.292  10.816 -0.9768  0.2505 -0.4156
21356SOL     OW72845   8.590   7.913   4.852  0.0398 -0.2700  0.1575
21356SOL    HW172846   8.528   7.873   4.791 -0.4975  3.2652 -1.8646
21356SOL    HW272847   8.535   7.957   4.917  0.5593 -0.8269  0.9921
21357SOL     OW72848   7.158  11.382   1.469 -0.1059 -0.6492 -0.1019
21357SOL    HW172849   7.195  11.404   1.383  1.0709 -0.2631  0.4842
21357SOL    HW272850   7.153  11.466   1.515  0.3232 -0.9986  0.6020
21358SOL     OW72851   4.884  10.486   4.308  0.3518 -0.3978  0.1921
21358SOL    HW172852   4.922  10.398   4.303  0.4355 -0.3177 -0.6226
21358SOL    HW272853   4.954  10.539   4.347  1.8708  0.1572 -3.0042
21359SOL     OW72854   1.806   3.820   7.422  0.0627  0.1718  0.1812
21359SOL    HW172855   1.756   3.889   7.465 -0.4586 -0.0216 -0.0949
21359SOL    HW272856   1.864   3.866   7.361 -0.6421  0.3515 -0.3697
21360SOL     OW72857   0.241  10.798   4.820 -0.2098 -0.1639  0.0881
21360SOL    HW172858   0.185  10.862   4.777 -1.8042 -2.5465 -1.5720
21360SOL    HW272859   0.322  10.799   4.769 -0.0247  0.8213  0.3739
21361SOL     OW72860   7.378  11.527   4.766  0.0191 -0.1012 -0.2739
21361SOL    HW172861   7.347  11.613   4.734 -0.9237 -0.7678 -1.2379
21361SOL    HW272862   7.401  11.479   4.686 -2.7572 -1.9611 -0.1164
21362SOL     OW72863   2.552   6.125  12.318  0.4304  0.0573 -0.0973
21362SOL    HW172864   2.611   6.075  12.261 -0.2486 -1.3519  0.3793
21362SOL    HW272865   2.574   6.216  12.301  0.8008 -0.3420 -2.0110
21363SOL     OW72866   6.435  11.827   6.593  0.5773 -0.2072 -0.2837
21363SOL    HW172867   6.401  11.896   6.537  0.8206 -0.0295 -0.2157
21363SOL    HW272868   6.375  11.753   6.580  0.4806 -0.0792 -0.5733
21364SOL     OW72869   1.142   3.933   9.607 -0.0694 -0.3719  0.5415
21364SOL    HW172870   1.148   4.009   9.549 -0.1086 -0.1100  0.8829
21364SOL    HW272871   1.139   3.969   9.695  1.0813 -0.8098  0.7845
21365SOL     OW72872   6.807  10.650   2.695 -0.4957 -0.1421  0.9401
21365SOL    HW172873   6.825  10.721   2.757 -0.7887  1.2490 -0.5191
21365SOL    HW272874   6.807  10.692   2.610  3.2235 -2.4631 -0.4876
21366SOL     OW72875  10.877   3.303  11.568 -0.2954  0.1137 -0.1002
21366SOL    HW172876  10.832   3.225  11.597  0.9450 -0.6581 -0.1806
21366SOL    HW272877  10.918   3.339  11.647  1.5377 -0.9565 -0.5160
21367SOL     OW72878   9.634   7.632   4.852  0.2517 -0.1581 -0.4867
21367SOL    HW172879   9.669   7.561   4.798  0.0023 -0.2758 -0.4922
21367SOL    HW272880   9.674   7.619   4.938 -1.0150 -1.2471 -0.0328
21368SOL     OW72881   0.311   5.913   7.235 -0.7941 -0.4489 -0.2533
21368SOL    HW172882   0.331   5.982   7.171 -0.4327 -0.6452 -0.3545
21368SOL    HW272883   0.288   5.837   7.182 -2.4262 -0.0728 -0.1460
21369SOL     OW72884   4.521   2.678   2.689 -0.2357 -0.7448 -0.2781
21369SOL    HW172885   4.543   2.593   2.651  2.9682 -0.6265  0.9364
21369SOL    HW272886   4.537   2.667   2.783 -0.2100  1.0626 -0.0342
21370SOL     OW72887   2.264  12.604   2.240  0.0883 -0.0664  0.4738
21370SOL    HW172888   2.168  12.600   2.236  0.1488 -2.0319 -0.0557
21370SOL    HW272889   2.285  12.695   2.219 -1.6548  0.3607  0.4171
21371SOL     OW72890   0.752   8.242   1.568 -0.0253 -0.5339 -0.2915
21371SOL    HW172891   0.697   8.208   1.497 -0.8855 -0.8515  0.5098
21371SOL    HW272892   0.782   8.164   1.614 -2.1259 -0.2789  1.6470
21372SOL     OW72893   2.574   7.856  10.840  0.1091 -0.2437 -0.1469
21372SOL    HW172894   2.523   7.906  10.777 -0.4876 -0.9392 -0.2345
21372SOL    HW272895   2.532   7.872  10.924 -1.1659 -1.9294 -0.4167
21373SOL     OW72896   1.605   8.878  10.823 -0.2782  0.1237  0.1623
21373SOL    HW172897   1.630   8.916  10.907  0.9779 -0.3488  0.0169
21373SOL    HW272898   1.630   8.943  10.758 -0.3437  0.0678  0.0801
21374SOL     OW72899  10.362  10.625   4.430  0.5095  0.7306 -0.1372
21374SOL    HW172900  10.456  10.641   4.426  0.8646 -1.0527 -3.9670
21374SOL    HW272901  10.350  10.566   4.504  2.4500  0.6231  0.1350
21375SOL     OW72902   3.968   0.557   0.901  0.1496  0.3742 -0.6676
21375SOL    HW172903   3.938   0.647   0.908  1.5113  0.8120 -0.1087
21375SOL    HW272904   3.962   0.536   0.808  1.0960  1.5172 -1.0045
21376SOL     OW72905  10.292   3.386   9.628 -0.0332 -0.0075  0.6595
21376SOL    HW172906  10.293   3.481   9.637 -0.6783  0.4233 -2.5066
21376SOL    HW272907  10.341   3.369   9.548  0.0956 -2.3753  1.1537
21377SOL     OW72908   9.407   8.842  11.051  0.1855 -0.1778 -0.6623
21377SOL    HW172909   9.413   8.881  10.964 -0.9103  0.4144 -0.4928
21377SOL    HW272910   9.397   8.748  11.034  0.0988 -0.0780 -1.1719
21378SOL     OW72911   6.787   9.758   7.042 -0.3396  0.2092 -0.0453
21378SOL    HW172912   6.741   9.775   6.960  0.4925 -0.9208 -0.7746
21378SOL    HW272913   6.830   9.841   7.063 -1.1436  0.7129 -0.3584
21379SOL     OW72914   2.173  12.159   8.389 -0.3322  0.2339 -0.2028
21379SOL    HW172915   2.254  12.121   8.425 -0.6101 -0.1359  0.0368
21379SOL    HW272916   2.113  12.084   8.382 -0.9727  0.6716  0.4961
21380SOL     OW72917   6.079  12.050  10.047  0.1608  0.2335 -0.7462
21380SOL    HW172918   6.124  12.117  10.098  0.2241  0.5020 -1.1462
21380SOL    HW272919   5.990  12.085  10.036 -0.1000 -0.2216 -0.0933
21381SOL     OW72920   9.395   2.444  11.252 -0.1980 -0.5270 -0.1767
21381SOL    HW172921   9.468   2.383  11.256 -1.1945 -1.7608 -0.0727
21381SOL    HW272922   9.429   2.521  11.206  0.9466 -1.3562 -0.7475
21382SOL     OW72923   1.947   7.571  11.436  0.4813  0.1246 -0.4775
21382SOL    HW172924   1.933   7.660  11.403  0.5845  1.3896  2.5842
21382SOL    HW272925   2.029   7.575  11.484 -1.2612 -0.5222  2.8763
21383SOL     OW72926   9.747   1.984   6.881 -0.5371  0.0823 -0.0139
21383SOL    HW172927   9.803   1.993   6.957 -0.4288  0.8658 -0.1765
21383SOL    HW272928   9.720   2.074   6.860 -2.0173 -0.2853  0.1847
21384SOL     OW72929   5.314  10.317   8.225 -0.0723  0.0382  0.3217
21384SOL    HW172930   5.369  10.338   8.301  0.7240 -1.9632  0.3583
21384SOL    HW272931   5.358  10.243   8.183 -0.7952  0.7519 -1.8063
21385SOL     OW72932   2.560   2.467   0.827  0.3977  0.2096 -0.2298
21385SOL    HW172933   2.627   2.505   0.769 -0.1535 -1.7648 -2.3191
21385SOL    HW272934   2.605   2.455   0.910  1.3323  2.8358 -0.2421
21386SOL     OW72935   1.175   4.175   0.702  0.2975  0.0815  0.9470
21386SOL    HW172936   1.080   4.186   0.697  0.2138  0.4237  2.7350
21386SOL    HW272937   1.192   4.151   0.793  2.1291  2.4661  1.3479
21387SOL     OW72938   6.183  12.554   1.562  0.2534 -0.5261 -0.1337
21387SOL    HW172939   6.132  12.546   1.482 -0.9371 -0.0548  0.5541
21387SOL    HW272940   6.216  12.465   1.578 -0.4073 -0.8531 -0.5524
21388SOL     OW72941   2.679  10.130   0.854  0.1587  0.1723  0.4479
21388SOL    HW172942   2.739  10.103   0.784  1.5551 -0.1010  1.7051
21388SOL    HW272943   2.614  10.060   0.859 -0.9168  0.9220 -1.5715
21389SOL     OW72944   6.599   4.187   8.397  0.3132  0.2277 -0.5199
21389SOL    HW172945   6.569   4.235   8.474  0.5814  0.1482 -0.3642
21389SOL    HW272946   6.611   4.098   8.427  0.3291  0.1756 -0.6779
21390SOL     OW72947   5.323   3.971   2.340 -1.0302  0.5072  0.3312
21390SOL    HW172948   5.240   3.983   2.293  0.5462 -0.1947 -2.9087
21390SOL    HW272949   5.330   3.877   2.351 -0.3645  0.5228  0.0274
21391SOL     OW72950   1.154   3.454   9.024  0.2258 -0.7541 -0.0346
21391SOL    HW172951   1.078   3.398   9.040 -0.1848 -0.1645  0.1094
21391SOL    HW272952   1.117   3.537   8.993  0.7773 -0.2970  0.5024
21392SOL     OW72953   4.632   2.007  12.560 -0.2043  0.3782  0.2155
21392SOL    HW172954   4.636   1.995  12.465  0.1401  0.0144  0.2763
21392SOL    HW272955   4.575   2.084  12.571 -0.3459  0.3508 -0.2768
21393SOL     OW72956   9.640   0.378   7.449 -0.2679  0.3079  0.0988
21393SOL    HW172957   9.685   0.457   7.480  0.3539  0.7743 -1.8420
21393SOL    HW272958   9.575   0.359   7.517  1.6034  0.6885  2.1018
21394SOL     OW72959  11.413   9.669   3.984  0.0074 -0.3157  0.1348
21394SOL    HW172960  11.466   9.748   3.974 -1.6848  1.0026  0.8786
21394SOL    HW272961  11.324   9.698   3.963 -0.6516 -2.0623  0.3534
21395SOL     OW72962   0.537  11.136   9.784 -0.1646  0.4113 -0.2654
21395SOL    HW172963   0.595  11.210   9.800 -0.8409  1.0361 -0.6089
21395SOL    HW272964   0.506  11.150   9.694 -0.9914  0.2060 -0.0186
21396SOL     OW72965   5.970   6.213   8.850 -0.4791  0.2609  0.0868
21396SOL    HW172966   5.960   6.216   8.754 -0.1850  0.6934  0.0615
21396SOL    HW272967   5.897   6.160   8.881 -0.3365 -0.2362 -0.4170
21397SOL     OW72968   5.092   8.481   7.286 -0.1688  0.4014  0.1075
21397SOL    HW172969   5.103   8.389   7.310 -1.2890  0.4677  0.9308
21397SOL    HW272970   5.069   8.478   7.193  0.4264 -0.0924 -0.0397
21398SOL     OW72971   6.315   5.768  11.213 -0.5674 -0.3465 -0.1878
21398SOL    HW172972   6.220   5.767  11.208 -0.5199 -1.0159 -1.4726
21398SOL    HW272973   6.344   5.752  11.123  0.7276 -2.3714  0.5030
21399SOL     OW72974   4.761   8.672   8.607  0.0196 -0.2377  0.1006
21399SOL    HW172975   4.755   8.589   8.654  0.8795  1.1712  2.9322
21399SOL    HW272976   4.854   8.681   8.584 -0.3425 -0.7811 -1.7840
21400SOL     OW72977   3.958   4.789  10.622  0.4557 -0.2016 -0.3221
21400SOL    HW172978   3.953   4.704  10.578 -0.8450  1.0989 -2.9405
21400SOL    HW272979   3.867   4.819  10.624  0.8648  1.0291  0.7818
21401SOL     OW72980   4.012   4.263   5.951  0.0778  0.0681 -0.2019
21401SOL    HW172981   4.003   4.345   5.902 -2.1313 -1.0164 -1.7596
21401SOL    HW272982   3.935   4.261   6.008  1.7217  0.4773  2.1999
21402SOL     OW72983   3.236   1.789   2.623  0.3672  0.1419 -0.4112
21402SOL    HW172984   3.277   1.819   2.542  2.3388 -1.0745  0.0668
21402SOL    HW272985   3.181   1.862   2.650  0.4297  0.9551 -2.3258
21403SOL     OW72986   8.605   3.936   6.600 -0.6810 -0.2758 -0.4200
21403SOL    HW172987   8.552   3.912   6.676  0.8871 -1.1194  0.4540
21403SOL    HW272988   8.642   4.022   6.622  0.7128 -1.0287  0.3499
21404SOL     OW72989   6.633  10.877   6.835  0.3844 -0.1395 -0.1745
21404SOL    HW172990   6.729  10.871   6.832  0.5923  1.6571  0.9494
21404SOL    HW272991   6.614  10.896   6.927 -1.1482 -1.3638 -0.2085
21405SOL     OW72992   2.183   3.858   6.460  0.0309 -0.3354 -0.7017
21405SOL    HW172993   2.214   3.812   6.539 -0.8430 -0.4190 -0.3947
21405SOL    HW272994   2.167   3.948   6.489 -2.5743 -0.8824 -0.1141
21406SOL     OW72995   1.429   1.651   3.544  0.4257 -0.0190 -0.0025
21406SOL    HW172996   1.384   1.604   3.614  0.4119  1.7884  1.2769
21406SOL    HW272997   1.384   1.736   3.540 -0.4784 -0.5059 -3.1550
21407SOL     OW72998  10.983   3.876   9.814  0.1602  0.4278  0.2752
21407SOL    HW172999  10.924   3.832   9.752 -0.8386  1.4104  0.4891
21407SOL    HW273000  11.038   3.932   9.760  0.5590 -0.1080  0.1203
21408SOL     OW73001   0.532   4.304   7.041 -0.3389  0.2289  0.5508
21408SOL    HW173002   0.527   4.371   6.973  1.3810 -0.5880 -0.4381
21408SOL    HW273003   0.525   4.221   6.994 -1.3639 -0.3292  1.6410
21409SOL     OW73004   8.121   6.148   5.276  0.3877 -0.4679 -0.0581
21409SOL    HW173005   8.110   6.054   5.287 -2.6558 -0.1915  0.1784
21409SOL    HW273006   8.136   6.160   5.182 -0.8347 -1.1239 -0.3627
21410SOL     OW73007   3.760   1.765   9.690 -0.3635 -0.2421 -0.3080
21410SOL    HW173008   3.723   1.832   9.632 -0.5315 -0.5664 -0.5776
21410SOL    HW273009   3.849   1.751   9.656  0.3527  1.1409  0.8397
21411SOL     OW73010   7.101   8.369   0.139  0.1396  0.1647  0.0554
21411SOL    HW173011   7.106   8.386   0.233  0.4658  1.2900 -0.1526
21411SOL    HW273012   7.176   8.416   0.102 -0.4842  0.4707 -0.8541
21412SOL     OW73013   5.988   4.372   3.026 -0.2353 -0.6626  0.1585
21412SOL    HW173014   5.915   4.432   3.009 -0.5521 -0.9148  0.6011
21412SOL    HW273015   5.977   4.347   3.118  1.1502  0.2762  0.6080
21413SOL     OW73016   0.778   0.700   3.600 -0.0575  0.5018  0.3767
21413SOL    HW173017   0.710   0.686   3.534  0.5654  0.2171 -0.2225
21413SOL    HW273018   0.842   0.631   3.583 -0.0819  0.1735  1.5554
21414SOL     OW73019   7.460  12.238   4.529  0.4566 -0.3507 -0.0631
21414SOL    HW173020   7.538  12.230   4.475  0.4250 -0.9948 -0.0196
21414SOL    HW273021   7.473  12.174   4.599 -0.9616 -1.8753 -1.1030
21415SOL     OW73022  10.724   9.915  11.957  0.8618 -0.3455 -0.4623
21415SOL    HW173023  10.721   9.847  12.024  0.4306  0.2830  0.1831
21415SOL    HW273024  10.632   9.932  11.936  0.9739 -0.1074 -0.7753
21416SOL     OW73025   2.224  10.477   6.835  0.4473 -0.4719 -0.0564
21416SOL    HW173026   2.139  10.502   6.800 -0.1295 -2.2631 -0.0420
21416SOL    HW273027   2.273  10.445   6.759  0.4751 -1.0429  0.1932
21417SOL     OW73028   3.520   2.490  12.499  0.1062  0.0426 -0.4832
21417SOL    HW173029   3.506   2.582  12.478  0.6205  1.2360  3.5298
21417SOL    HW273030   3.449   2.444  12.454 -1.2372  2.6300 -1.2086
21418SOL     OW73031   2.489   1.116   0.043 -0.2580  0.4525  0.4629
21418SOL    HW173032   2.420   1.182   0.049  0.0173  0.6275  2.5846
21418SOL    HW273033   2.467   1.065  -0.035 -0.6015  2.8688 -1.1314
21419SOL     OW73034   4.455   9.772   6.269 -0.6153  1.1248  0.5331
21419SOL    HW173035   4.483   9.858   6.236  1.1120 -0.5975 -3.1019
21419SOL    HW273036   4.422   9.727   6.192 -1.3996 -1.5579  2.3055
21420SOL     OW73037  10.716   9.930   1.640  0.0113 -0.6467 -0.2173
21420SOL    HW173038  10.802   9.940   1.682 -1.0696 -0.0669  2.0347
21420SOL    HW273039  10.654   9.957   1.708 -1.9129 -0.0420 -2.1404
21421SOL     OW73040   4.337   9.311   9.235 -0.3782 -0.5602  0.0459
21421SOL    HW173041   4.306   9.222   9.252  0.2108 -0.9929 -1.0811
21421SOL    HW273042   4.433   9.304   9.237 -0.2289 -0.6059 -2.9788
21422SOL     OW73043   9.805   3.549   1.211  0.1550  0.0135  0.6122
21422SOL    HW173044   9.811   3.455   1.229  0.8270  0.1733  1.2767
21422SOL    HW273045   9.712   3.569   1.218 -0.1318 -0.7866 -0.5282
21423SOL     OW73046   5.979  11.101   3.171  0.3147 -0.0936 -0.6117
21423SOL    HW173047   6.047  11.075   3.232 -1.0184 -1.9124  0.1725
21423SOL    HW273048   5.923  11.024   3.163 -0.2519  0.4953 -3.1895
21424SOL     OW73049   8.425   9.602   3.801 -0.6635  0.0406 -0.0336
21424SOL    HW173050   8.362   9.545   3.843  0.1928 -0.6523  0.3401
21424SOL    HW273051   8.380   9.686   3.793 -1.0423  0.0435  1.7735
21425SOL     OW73052   5.464  11.151   7.658 -0.2323  0.4074 -0.1270
21425SOL    HW173053   5.523  11.216   7.619  0.7721 -0.3834  0.0344
21425SOL    HW273054   5.502  11.133   7.744 -0.0012 -0.9926 -0.4888
21426SOL     OW73055   0.866   3.911  11.911  0.1896  0.0974 -0.7255
21426SOL    HW173056   0.821   3.827  11.904 -0.9840  0.4355  1.6609
21426SOL    HW273057   0.800   3.976  11.886 -0.9450  0.6054  2.9268
21427SOL     OW73058  11.609   2.786   2.806  0.5498  0.2295  0.0536
21427SOL    HW173059  11.529   2.754   2.847 -1.7284  2.2705 -2.4102
21427SOL    HW273060  11.607   2.880   2.819  1.6992  0.4914 -1.3688
21428SOL     OW73061   6.932   6.758  10.306  0.5712  0.1887  0.2459
21428SOL    HW173062   6.932   6.821  10.234 -0.3485 -0.0904 -0.0050
21428SOL    HW273063   6.931   6.813  10.385  1.7253  0.4954  0.0616
21429SOL     OW73064   2.461   6.098   7.384 -0.1894 -0.3345  0.2451
21429SOL    HW173065   2.434   6.010   7.357  0.0737 -0.4000  0.1914
21429SOL    HW273066   2.381   6.138   7.418 -0.1733 -0.8170  0.8616
21430SOL     OW73067   3.269  11.820   6.556  0.0768  0.5055  0.3651
21430SOL    HW173068   3.343  11.809   6.615  0.5130  0.0039 -0.2599
21430SOL    HW273069   3.236  11.908   6.574 -0.0216  0.2335  1.5897
21431SOL     OW73070   0.036   2.346   5.125  0.4188  0.9547 -0.2527
21431SOL    HW173071  -0.024   2.272   5.136  1.2689  0.5660  2.5106
21431SOL    HW273072  -0.017   2.413   5.082 -0.6625 -0.8537 -1.9223
21432SOL     OW73073   9.867  11.955   6.381 -0.1720 -0.4619  0.1195
21432SOL    HW173074   9.825  12.039   6.400 -0.0958 -0.4423  0.2060
21432SOL    HW273075   9.926  11.974   6.309  1.2442 -0.0015  1.3467
21433SOL     OW73076   2.270   7.487   9.395  0.3072 -0.2861  0.4322
21433SOL    HW173077   2.273   7.409   9.452  0.2740 -1.4172 -1.0395
21433SOL    HW273078   2.217   7.459   9.320 -1.8224  1.9632  0.9619
21434SOL     OW73079   7.428   8.394  11.974  0.2777 -0.0500 -0.7211
21434SOL    HW173080   7.516   8.425  11.959  0.2770 -0.0426 -0.7107
21434SOL    HW273081   7.437   8.328  12.043  0.3079 -0.2207 -0.8874
21435SOL     OW73082   4.346   3.606   9.547  0.0364  0.5763  0.5393
21435SOL    HW173083   4.428   3.580   9.589  0.4456  1.3413  0.2453
21435SOL    HW273084   4.308   3.670   9.606  0.2366  1.0872  0.1276
21436SOL     OW73085  11.737   4.453   5.157 -0.1748  0.2110  0.1654
21436SOL    HW173086  11.794   4.499   5.218  0.5936 -0.6845  0.1552
21436SOL    HW273087  11.678   4.520   5.123  0.3409  0.9983  0.7921
21437SOL     OW73088   2.755   8.982   0.183 -0.2963  0.2719  0.1356
21437SOL    HW173089   2.770   8.906   0.127  0.3848 -0.0373  0.7181
21437SOL    HW273090   2.664   8.974   0.212 -0.5130  0.1903 -0.5536
21438SOL     OW73091  10.776   5.086   9.012 -0.7012  0.3732 -0.1204
21438SOL    HW173092  10.705   5.022   9.011 -0.2756 -0.2322  2.1531
21438SOL    HW273093  10.799   5.095   9.105 -0.1610  3.2074 -0.4279
21439SOL     OW73094   3.673   9.435   0.499 -0.2244 -0.2191 -0.2610
21439SOL    HW173095   3.757   9.454   0.542  0.9816  1.9257 -3.2325
21439SOL    HW273096   3.694   9.369   0.434 -0.6736  0.7572 -1.4273
21440SOL     OW73097   4.304   7.257   7.083  0.0905 -0.1018 -0.4418
21440SOL    HW173098   4.254   7.276   7.162  0.9103 -0.9950  0.3139
21440SOL    HW273099   4.366   7.189   7.109  2.2565  1.4768 -1.0933
21441SOL     OW73100  11.932   1.618   5.797 -0.0919  0.1422 -0.8749
21441SOL    HW173101  11.855   1.621   5.740 -0.3966  0.1770 -0.4669
21441SOL    HW273102  11.926   1.532   5.840  0.7826 -0.3831 -1.7794
21442SOL     OW73103   7.087   1.503   1.113 -0.1114  0.2385  0.5134
21442SOL    HW173104   7.112   1.439   1.045 -1.5108  0.4893 -0.2885
21442SOL    HW273105   7.127   1.470   1.193 -0.6082 -1.5375  0.0705
21443SOL     OW73106   4.493  12.341   9.640  0.0806  0.1203  0.2892
21443SOL    HW173107   4.427  12.376   9.579 -0.8846  1.3760  1.9695
21443SOL    HW273108   4.574  12.386   9.616 -0.3714  0.8883  0.1554
21444SOL     OW73109  11.800   3.630  10.960  0.0641 -0.6204 -0.6430
21444SOL    HW173110  11.717   3.614  10.915  0.1964  1.2941 -1.6695
21444SOL    HW273111  11.859   3.660  10.892  1.2112 -0.6513  0.3063
21445SOL     OW73112   9.874   9.607  10.444  0.5675  0.2938  0.3619
21445SOL    HW173113   9.799   9.658  10.416  0.5940  0.4937  0.6475
21445SOL    HW273114   9.844   9.517  10.443  1.7451 -0.2815 -4.4113
21446SOL     OW73115   2.185   7.998   4.580  0.3753 -0.3869  0.0003
21446SOL    HW173116   2.256   8.048   4.620  0.9639 -0.9429 -0.3362
21446SOL    HW273117   2.196   7.909   4.612  0.8189 -0.8347 -1.3083
21447SOL     OW73118   1.470   4.701   7.964 -1.0216 -0.0212 -0.3103
21447SOL    HW173119   1.392   4.757   7.976  0.6294  2.2390  0.5700
21447SOL    HW273120   1.444   4.640   7.896 -2.9895  1.8180 -1.3562
21448SOL     OW73121   5.368   1.845   2.859  0.0925  0.0476 -0.8306
21448SOL    HW173122   5.367   1.758   2.820 -0.3878  0.2463 -1.2714
21448SOL    HW273123   5.351   1.904   2.786 -1.7594  0.3756 -0.1732
21449SOL     OW73124   7.759   3.558   2.151 -0.1790 -0.0557  0.3883
21449SOL    HW173125   7.772   3.524   2.062  0.3811 -0.5607  0.6535
21449SOL    HW273126   7.692   3.501   2.188  0.4307 -0.6026  0.6775
21450SOL     OW73127   4.785   0.738   7.538 -0.1057 -0.0045  0.4582
21450SOL    HW173128   4.771   0.832   7.551  0.2324  0.1778 -0.4518
21450SOL    HW273129   4.852   0.714   7.603 -0.0907  0.4095  0.5948
21451SOL     OW73130   5.050   7.415   2.897 -0.2883  0.1154 -0.4344
21451SOL    HW173131   5.137   7.452   2.913 -1.0544  1.4533  0.9665
21451SOL    HW273132   5.000   7.487   2.858 -1.6027  0.4037  1.6368
21452SOL     OW73133   1.684   2.300   2.173  0.1906 -0.5169 -0.2378
21452SOL    HW173134   1.646   2.244   2.106  1.2889 -0.1326 -1.2002
21452SOL    HW273135   1.651   2.263   2.256 -3.0552  0.3720 -0.9758
21453SOL     OW73136   4.094   1.047   6.210 -0.5877  0.2130  0.0453
21453SOL    HW173137   4.061   1.087   6.290 -1.4996  0.5144 -0.4636
21453SOL    HW273138   4.080   0.953   6.223  1.4681  0.0070  1.2009
21454SOL     OW73139  11.889   8.700   3.643  0.7222 -0.0513 -0.0875
21454SOL    HW173140  11.895   8.774   3.582 -1.2162 -1.1432 -1.7476
21454SOL    HW273141  11.797   8.697   3.668  0.1417 -3.1912 -1.9472
21455SOL     OW73142   1.363   6.642   8.506  0.0063  0.1300 -0.6938
21455SOL    HW173143   1.454   6.618   8.489  0.2485  0.8305 -0.4269
21455SOL    HW273144   1.312   6.578   8.457  0.6411 -0.3067 -0.8006
21456SOL     OW73145   1.635   1.045   3.642 -0.3247 -0.3265  0.0283
21456SOL    HW173146   1.637   1.058   3.547 -1.7293  2.6853  0.2792
21456SOL    HW273147   1.709   0.988   3.660 -0.4360 -1.6133 -2.9230
21457SOL     OW73148   7.922  12.406   9.817  0.0965  0.2487 -0.2837
21457SOL    HW173149   7.930  12.479   9.880  1.5145 -0.4734  0.4201
21457SOL    HW273150   7.994  12.348   9.839  0.6233 -0.0584 -2.5958
21458SOL     OW73151  11.573   9.672  10.171 -0.6860  0.1188 -0.5334
21458SOL    HW173152  11.594   9.617  10.095  1.6141 -0.3303  0.3436
21458SOL    HW273153  11.553   9.758  10.133  1.5174  0.2115 -1.6406
21459SOL     OW73154   6.859   9.719   2.244  0.0712 -0.3736 -0.4604
21459SOL    HW173155   6.767   9.724   2.271  0.4304 -1.3880  1.0763
21459SOL    HW273156   6.859   9.754   2.155 -1.9027 -0.8849 -0.7293
21460SOL     OW73157   5.853   4.883   6.598  0.1849 -0.1479  0.5228
21460SOL    HW173158   5.808   4.812   6.553 -0.6990  0.3790  0.5481
21460SOL    HW273159   5.939   4.889   6.555 -1.0210  1.0959 -1.9312
21461SOL     OW73160   1.409   5.498   7.136  0.2852  0.6311  0.4771
21461SOL    HW173161   1.337   5.506   7.074  0.8486  2.7161  0.0370
21461SOL    HW273162   1.463   5.426   7.101 -3.5591 -4.1592  3.0584
21462SOL     OW73163   1.253   8.092   9.004 -0.3873  0.1657  0.1113
21462SOL    HW173164   1.163   8.063   9.019  0.1267 -0.4938  2.4036
21462SOL    HW273165   1.303   8.011   8.992  0.0476  0.4798 -0.2658
21463SOL     OW73166   6.278   0.079   7.386  0.3603 -0.2647 -0.2587
21463SOL    HW173167   6.234   0.087   7.302 -0.6039 -2.1657 -0.0022
21463SOL    HW273168   6.260  -0.011   7.413 -0.6823  0.7179  2.6916
21464SOL     OW73169   5.734   9.739   4.411  0.1603 -0.0817  0.3305
21464SOL    HW173170   5.808   9.765   4.355 -0.1802  0.0916 -0.0394
21464SOL    HW273171   5.769   9.668   4.465  0.8048  0.4716  0.6580
21465SOL     OW73172   3.566   7.218   0.046 -0.1953 -0.0727 -0.4629
21465SOL    HW173173   3.648   7.254   0.011 -0.4508 -0.5568 -1.6132
21465SOL    HW273174   3.539   7.280   0.114  0.8106  0.4042 -0.4803
21466SOL     OW73175  12.586   9.377   1.638  0.0704  0.0194  0.5646
21466SOL    HW173176  12.598   9.325   1.717 -0.7157  1.0996  1.4292
21466SOL    HW273177  12.542   9.457   1.668  0.6134  0.8789 -0.8119
21467SOL     OW73178  12.309   2.152   1.972  0.1126 -0.4584  0.4182
21467SOL    HW173179  12.331   2.223   1.912  0.9467  0.0111  1.2483
21467SOL    HW273180  12.343   2.181   2.057 -0.6590 -1.2941  1.0347
21468SOL     OW73181  10.653   2.844   7.100  0.0654  1.1432 -0.0379
21468SOL    HW173182  10.639   2.752   7.078  0.3471  1.4994 -1.9118
21468SOL    HW273183  10.578   2.867   7.155 -0.5443  0.0388 -0.3694
21469SOL     OW73184   0.295  11.455   7.825  0.2628  0.6171 -0.1204
21469SOL    HW173185   0.258  11.367   7.827  1.2842  0.1456 -0.6181
21469SOL    HW273186   0.284  11.489   7.913 -0.4707  0.1365 -0.0194
21470SOL     OW73187   0.673   2.923   6.437  0.6264  0.0616 -0.4774
21470SOL    HW173188   0.636   2.863   6.372  0.6266 -0.3500 -0.0974
21470SOL    HW273189   0.601   2.983   6.457 -0.5086 -1.8551  1.6499
21471SOL     OW73190   5.926   4.314   4.809  0.0026 -0.2044  0.1395
21471SOL    HW173191   5.978   4.362   4.873 -1.5737 -0.3052  1.5862
21471SOL    HW273192   5.965   4.335   4.725  2.0687  0.0527  1.1047
21472SOL     OW73193  12.021  11.860   6.856 -0.2359  0.2382 -0.5786
21472SOL    HW173194  11.944  11.907   6.888  0.3035  0.0263  1.1237
21472SOL    HW273195  12.093  11.921   6.871  0.0404  0.1021 -1.3518
21473SOL     OW73196  11.438   3.449   8.742  0.3252 -0.2798  0.2410
21473SOL    HW173197  11.510   3.397   8.778  2.0541  1.2785 -0.7572
21473SOL    HW273198  11.447   3.440   8.647  0.4676  1.5001  0.0506
21474SOL     OW73199   1.357   7.120   2.276 -0.5448  0.1415  0.0936
21474SOL    HW173200   1.385   7.211   2.262  0.7099 -0.3851 -1.0858
21474SOL    HW273201   1.417   7.086   2.342 -0.1774 -0.1915 -0.4052
21475SOL     OW73202   2.000   3.808   0.231 -0.6285 -0.4975 -0.0808
21475SOL    HW173203   1.936   3.813   0.161 -0.6278 -2.1646 -0.2608
21475SOL    HW273204   1.960   3.748   0.295 -0.7499  1.1817  1.4971
21476SOL     OW73205   8.369   4.165   5.110 -0.0238 -0.5467 -0.8525
21476SOL    HW173206   8.324   4.111   5.176  0.4304  1.2593  1.0518
21476SOL    HW273207   8.448   4.117   5.090  0.1021 -0.9050  0.3867
21477SOL     OW73208   6.905   5.293   9.303 -0.7288  0.0994  0.4038
21477SOL    HW173209   6.877   5.366   9.248 -0.9812 -1.5818 -1.8596
21477SOL    HW273210   6.999   5.305   9.315  0.0719 -1.1767 -3.3645
21478SOL     OW73211   8.898   4.095  11.397 -0.7144 -0.4730 -0.0570
21478SOL    HW173212   8.900   4.075  11.303 -1.3893 -0.2609 -0.1202
21478SOL    HW273213   8.955   4.171  11.407 -1.4339  0.1244 -0.4520
21479SOL     OW73214  10.919   9.494  10.190  0.1732 -0.0079 -0.0019
21479SOL    HW173215  10.853   9.425  10.198 -2.6882  2.6118  0.9086
21479SOL    HW273216  10.898   9.537  10.107  2.4325 -0.6343 -0.9656
21480SOL     OW73217   2.512   0.970  10.139  0.0172 -0.0572  0.1223
21480SOL    HW173218   2.435   0.956  10.194  0.1320  1.9449  0.8680
21480SOL    HW273219   2.559   1.042  10.182  1.8575 -0.6591 -0.7911
21481SOL     OW73220   6.267   9.928   1.044 -0.0488 -0.2747 -0.0294
21481SOL    HW173221   6.358   9.901   1.059  0.6521  0.6480 -2.2289
21481SOL    HW273222   6.229   9.856   0.994  0.2581  0.4076 -1.2923
21482SOL     OW73223   3.737  11.195   7.454  0.4521  0.1864 -0.2925
21482SOL    HW173224   3.677  11.234   7.391  0.5220  1.0400  0.1653
21482SOL    HW273225   3.823  11.201   7.413  0.5680  1.1921  0.0870
21483SOL     OW73226  11.858  11.119   7.320 -0.3034  0.4712 -0.1237
21483SOL    HW173227  11.812  11.188   7.271 -1.8141 -0.1510  0.3476
21483SOL    HW273228  11.788  11.062   7.351  0.6716  0.3174  1.9645
21484SOL     OW73229   2.916   1.138   4.245 -0.2420 -0.4787  0.2975
21484SOL    HW173230   2.951   1.225   4.262 -1.1867 -0.0228 -0.0162
21484SOL    HW273231   2.963   1.081   4.306  1.9290 -0.1177 -0.9757
21485SOL     OW73232   1.812   9.975  12.548  0.4434 -0.2390 -0.4257
21485SOL    HW173233   1.901   9.976  12.583  0.1725  1.2976  0.2719
21485SOL    HW273234   1.786  10.067  12.545 -1.6030 -0.7333  0.6499
21486SOL     OW73235   1.557   4.976   4.597  0.2318 -0.3556 -0.4190
21486SOL    HW173236   1.583   5.049   4.653  0.8140 -0.3883 -0.6410
21486SOL    HW273237   1.629   4.967   4.535 -0.2936 -0.4731 -1.0259
21487SOL     OW73238  11.042  11.199   6.571  0.2198  0.0974  0.3994
21487SOL    HW173239  11.064  11.264   6.504  0.8168 -0.2629  0.2357
21487SOL    HW273240  10.970  11.149   6.533  1.0811 -0.6294 -0.3332
21488SOL     OW73241   0.829   4.582   6.480 -0.8103  0.6567 -0.2796
21488SOL    HW173242   0.901   4.518   6.478 -1.1434  0.2720 -2.1439
21488SOL    HW273243   0.858   4.649   6.541  0.4443 -0.2844  0.1962
21489SOL     OW73244   1.067  10.673  11.389  0.2232 -0.1279 -0.2310
21489SOL    HW173245   1.114  10.741  11.341 -0.6937 -0.1190 -1.1603
21489SOL    HW273246   1.114  10.592  11.368  0.7299  0.0838  0.0820
21490SOL     OW73247   7.119   3.896   3.847  0.2120  0.1500  0.2349
21490SOL    HW173248   7.161   3.920   3.765  0.2092 -1.7999 -0.3847
21490SOL    HW273249   7.045   3.957   3.854  1.1048  1.3503 -0.3935
21491SOL     OW73250   7.231  11.234  12.000 -0.2104 -0.2392 -0.2132
21491SOL    HW173251   7.316  11.267  12.028 -0.2595 -0.3786  0.0978
21491SOL    HW273252   7.168  11.283  12.052 -0.2562 -1.4351  0.9122
21492SOL     OW73253   9.055   0.433   1.320 -0.1116  0.0117  0.6367
21492SOL    HW173254   8.994   0.363   1.296 -1.6463  0.6563  2.4186
21492SOL    HW273255   9.065   0.424   1.415  0.9798  1.1879  0.6509
21493SOL     OW73256   7.212  10.113   8.650  0.4858 -0.0326 -0.4132
21493SOL    HW173257   7.219  10.092   8.557 -0.1944 -0.0748 -0.4591
21493SOL    HW273258   7.228  10.029   8.694  1.0156  0.0289 -0.4775
21494SOL     OW73259   7.188   4.947   3.356 -0.4995 -0.4979 -0.5250
21494SOL    HW173260   7.155   4.992   3.278  0.4849 -1.0577 -1.2767
21494SOL    HW273261   7.120   4.883   3.376 -0.5569 -0.6551 -1.1934
21495SOL     OW73262   3.787   2.322   7.482 -0.1228  0.6075 -0.0829
21495SOL    HW173263   3.755   2.284   7.401 -0.5203  0.6647  0.0463
21495SOL    HW273264   3.717   2.307   7.545 -0.8370  2.6551 -0.3292
21496SOL     OW73265  10.427   4.477  11.539 -0.2261 -0.0161  0.2252
21496SOL    HW173266  10.345   4.481  11.588 -1.6407  0.7722 -2.0318
21496SOL    HW273267  10.407   4.422  11.463  0.6108  2.0048 -1.5653
21497SOL     OW73268   0.442  10.516   7.087  0.4189  0.6983 -0.7321
21497SOL    HW173269   0.508  10.447   7.097 -1.6624 -1.6702 -2.2519
21497SOL    HW273270   0.392  10.513   7.168 -0.1022 -0.1331 -1.0680
21498SOL     OW73271   5.949  12.322   1.333  0.0924  0.3930 -0.0411
21498SOL    HW173272   6.026  12.272   1.361  0.5998  0.0792 -1.8840
21498SOL    HW273273   5.958  12.407   1.376  0.9715  0.0364  0.5037
21499SOL     OW73274  11.702   9.805   3.449 -0.0125 -0.1798  0.3387
21499SOL    HW173275  11.786   9.809   3.403  0.6229 -1.5048  1.3100
21499SOL    HW273276  11.637   9.788   3.381  0.6677 -0.3167 -0.2779
21500SOL     OW73277   2.844   0.569   2.373  0.1717  0.4950  0.5241
21500SOL    HW173278   2.819   0.502   2.309  1.0354 -0.2620  0.9576
21500SOL    HW273279   2.774   0.634   2.368 -0.0991  0.1273 -0.7178
21501SOL     OW73280   6.134   0.159   0.783  0.2626  0.0362  0.0864
21501SOL    HW173281   6.052   0.193   0.749 -1.6647 -2.5302  1.8060
21501SOL    HW273282   6.174   0.113   0.709 -0.1200  0.7924 -0.5989
21502SOL     OW73283  10.402   3.144   7.826 -0.3110  0.2138  0.1231
21502SOL    HW173284  10.385   3.070   7.769 -1.7935  1.4785 -1.1917
21502SOL    HW273285  10.394   3.109   7.915  1.6242 -1.7037 -0.3909
21503SOL     OW73286   9.317   1.805  12.231 -0.2050  0.1648  0.2761
21503SOL    HW173287   9.287   1.733  12.285  0.0648  0.6220  1.0513
21503SOL    HW273288   9.351   1.870  12.293 -0.8901  1.1718 -0.3630
21504SOL     OW73289   4.888   1.764   8.528  0.6447  0.0491  0.5065
21504SOL    HW173290   4.849   1.677   8.543 -0.2680  0.5426  1.0672
21504SOL    HW273291   4.968   1.764   8.580  1.1688 -0.8027 -0.2683
21505SOL     OW73292   5.234   4.208   1.997 -0.3923  0.1008 -0.1207
21505SOL    HW173293   5.252   4.298   1.971 -2.7787  0.7569  0.2882
21505SOL    HW273294   5.201   4.215   2.087 -0.2615 -1.2339  0.0550
21506SOL     OW73295   8.915   1.486   7.867  0.0543 -0.3653  0.7502
21506SOL    HW173296   8.868   1.510   7.947  0.4877  0.8579  0.6728
21506SOL    HW273297   9.008   1.490   7.892  0.1649 -1.2028  0.4994
21507SOL     OW73298  10.934   5.858  10.467  0.0248  0.2153 -0.1962
21507SOL    HW173299  11.028   5.851  10.447  0.3112 -0.4117  1.2107
21507SOL    HW273300  10.911   5.773  10.505 -1.2766  0.1407 -1.0897
21508SOL     OW73301  11.422   3.694  10.584  0.7088  0.0713 -0.0671
21508SOL    HW173302  11.350   3.744  10.544  1.6698  1.0449 -0.6168
21508SOL    HW273303  11.493   3.758  10.594  2.7061 -1.5362 -2.6413
21509SOL     OW73304   6.886   7.861  12.082  0.8139 -0.0065  0.0715
21509SOL    HW173305   6.864   7.944  12.125 -0.6224  0.5474 -1.6400
21509SOL    HW273306   6.939   7.887  12.007  0.8949 -0.7069 -0.1179
21510SOL     OW73307   9.751   5.199   5.311  0.1975  0.0618 -0.0739
21510SOL    HW173308   9.721   5.222   5.399 -0.1748  1.9874 -0.6530
21510SOL    HW273309   9.804   5.274   5.284  1.2082 -0.9844 -1.1011
21511SOL     OW73310   6.362  10.197   4.260  0.4625 -0.0908 -0.0374
21511SOL    HW173311   6.316  10.227   4.338 -0.1229 -0.3568 -0.2737
21511SOL    HW273312   6.328  10.109   4.244 -0.3609  0.4220 -1.3020
21512SOL     OW73313   3.357   3.946   4.281 -0.1184 -0.0734  0.3608
21512SOL    HW173314   3.416   3.941   4.206 -0.6963 -1.4642 -0.0422
21512SOL    HW273315   3.408   3.910   4.354  0.2305  0.6941  0.5037
21513SOL     OW73316   9.467   9.093   7.387  0.0123 -0.3258 -0.4451
21513SOL    HW173317   9.415   9.036   7.331 -1.2689  2.3915 -2.2476
21513SOL    HW273318   9.534   9.130   7.330  1.1954 -0.4520  0.8070
21514SOL     OW73319  10.553  11.212   8.795 -0.1913  0.1338 -0.3906
21514SOL    HW173320  10.626  11.185   8.851 -0.1392  1.6168  0.2957
21514SOL    HW273321  10.594  11.256   8.720 -0.3628  0.9937  0.0087
21515SOL     OW73322   1.353   7.906  11.755 -0.2411 -0.4259  0.0199
21515SOL    HW173323   1.298   7.983  11.771 -1.4284 -0.8827 -1.6405
21515SOL    HW273324   1.324   7.841  11.818 -1.0282 -0.3770 -0.2891
21516SOL     OW73325  11.796   1.180  11.309  0.1943  0.1176  0.2366
21516SOL    HW173326  11.865   1.135  11.261  0.0575  1.5377 -1.4079
21516SOL    HW273327  11.754   1.237  11.244 -0.6754  1.3963  1.8207
21517SOL     OW73328   2.394   1.339   8.604  0.0514  0.1823  0.0457
21517SOL    HW173329   2.300   1.357   8.616  0.2078  2.2622 -1.3218
21517SOL    HW273330   2.433   1.358   8.689 -0.5046  1.6445  0.0073
21518SOL     OW73331   5.548   6.329   8.150 -0.1806 -0.5692 -0.5258
21518SOL    HW173332   5.543   6.237   8.121  0.1007 -1.3853  1.8108
21518SOL    HW273333   5.459   6.349   8.179 -0.4140  0.1774 -1.6853
21519SOL     OW73334   1.174   2.879   0.694  0.0030 -0.2833 -0.2287
21519SOL    HW173335   1.107   2.811   0.688 -0.4479  0.0039  1.1588
21519SOL    HW273336   1.156   2.923   0.777  0.5253  1.2823 -0.9047
21520SOL     OW73337   0.690   0.207  12.110 -0.0511  0.5285 -1.2683
21520SOL    HW173338   0.723   0.118  12.119 -0.8224  0.2733 -0.8368
21520SOL    HW273339   0.682   0.240  12.200  0.5806  1.1734 -1.4366
21521SOL     OW73340   0.183   4.819   0.200 -0.0681 -0.4106 -0.2734
21521SOL    HW173341   0.216   4.769   0.275  0.8794  1.3514  0.5607
21521SOL    HW273342   0.232   4.786   0.125  1.8420  0.4280  0.5447
21522SOL     OW73343   2.237   7.651   8.130 -0.0187 -0.1842  0.1156
21522SOL    HW173344   2.273   7.730   8.169  1.1514 -0.1964 -0.8708
21522SOL    HW273345   2.208   7.597   8.204  0.2871  0.6423  0.8445
21523SOL     OW73346   1.939   0.650  10.408 -0.3037 -0.0611 -0.1033
21523SOL    HW173347   1.855   0.604  10.412 -0.6734  0.6182  0.0811
21523SOL    HW273348   1.916   0.741  10.392  0.2581  0.5563  2.2000
21524SOL     OW73349   3.468   2.182   3.383  0.2869 -0.0423 -0.2665
21524SOL    HW173350   3.417   2.142   3.453  0.6754 -0.4879 -0.2321
21524SOL    HW273351   3.559   2.159   3.403  0.3974 -0.1921 -0.9253
21525SOL     OW73352   7.397   3.437  10.912 -0.4417  0.1343 -0.3521
21525SOL    HW173353   7.464   3.454  10.846 -0.8736 -1.6466 -1.3059
21525SOL    HW273354   7.440   3.457  10.995  0.7006  0.6954 -1.0563
21526SOL     OW73355   0.990   3.053  12.527  0.0197  0.0658  0.5079
21526SOL    HW173356   1.073   3.084  12.563  0.0321 -0.3104  0.7988
21526SOL    HW273357   0.935   3.035  12.603 -1.0785  2.2675  0.3384
21527SOL     OW73358  11.965   1.971   6.456  0.0970 -0.1693 -0.3572
21527SOL    HW173359  11.973   2.021   6.375  0.1154 -0.7885 -0.7410
21527SOL    HW273360  12.040   2.000   6.509 -0.4697  0.9650 -0.1474
21528SOL     OW73361   0.412   5.859   5.152 -0.2317  0.4296 -0.4932
21528SOL    HW173362   0.453   5.784   5.195 -2.2796  0.5291  1.8729
21528SOL    HW273363   0.457   5.866   5.068  1.1872 -2.3795 -0.0930
21529SOL     OW73364   0.098   1.110   9.725  0.2073 -0.0494  0.3379
21529SOL    HW173365   0.182   1.149   9.746 -0.4009  1.0605  0.7834
21529SOL    HW273366   0.072   1.064   9.804 -0.2035  0.7262  0.6683
21530SOL     OW73367   7.156   8.719   7.733 -0.6315  0.2242 -0.6681
21530SOL    HW173368   7.064   8.693   7.724 -0.5328  0.2829 -2.1513
21530SOL    HW273369   7.205   8.643   7.700 -0.1022 -0.1224  0.8501
21531SOL     OW73370   4.340  11.179   7.807 -0.3882  0.4034 -0.0577
21531SOL    HW173371   4.314  11.108   7.865 -0.8073  0.8253  0.2832
21531SOL    HW273372   4.435  11.171   7.800 -0.3460  0.2766  0.5947
21532SOL     OW73373   5.812   1.984   9.735  0.1159  0.1724 -0.3576
21532SOL    HW173374   5.861   1.914   9.692  1.8292  2.0595 -1.6694
21532SOL    HW273375   5.775   1.943   9.814  3.3651 -1.5280  0.4440
21533SOL     OW73376   2.354   5.573   3.168  0.1610 -0.6919 -0.5239
21533SOL    HW173377   2.362   5.477   3.166 -2.1779 -0.9315 -0.7543
21533SOL    HW273378   2.393   5.598   3.252  2.6483 -1.5701 -1.3099
21534SOL     OW73379   1.781   3.715   6.309  0.0757 -0.3388 -0.1991
21534SOL    HW173380   1.809   3.759   6.228 -0.1152 -1.7098 -1.0442
21534SOL    HW273381   1.694   3.749   6.326 -0.5234 -1.1632 -1.4613
21535SOL     OW73382  12.316   7.727   6.892 -0.4295  0.1555  0.3822
21535SOL    HW173383  12.296   7.808   6.844 -2.1012 -0.3191  0.2038
21535SOL    HW273384  12.348   7.757   6.977 -2.5137  1.0867  0.9231
21536SOL     OW73385   4.184   8.542   9.558  0.3466 -0.4888 -0.1510
21536SOL    HW173386   4.179   8.618   9.616  3.2981  0.1059 -0.5605
21536SOL    HW273387   4.200   8.468   9.617  0.7621 -0.2925 -0.0176
21537SOL     OW73388   6.197   1.234   6.179 -0.6570  0.1083 -0.4085
21537SOL    HW173389   6.259   1.301   6.205 -1.6208  0.8124  0.1375
21537SOL    HW273390   6.180   1.252   6.086 -0.6082  0.3758 -0.3663
21538SOL     OW73391   7.380   7.336  12.218  0.0097  0.0520  0.2132
21538SOL    HW173392   7.374   7.340  12.313 -1.0247  0.3579  0.1381
21538SOL    HW273393   7.340   7.252  12.194  0.2334 -0.0089  0.0457
21539SOL     OW73394   2.444   6.687   4.359 -0.5598 -0.4138  0.3107
21539SOL    HW173395   2.510   6.626   4.393 -0.0697  0.4048  0.8608
21539SOL    HW273396   2.492   6.768   4.345 -1.7519  0.6854  2.2282
21540SOL     OW73397  11.469   0.177   9.696  0.3317 -0.0057  0.0586
21540SOL    HW173398  11.392   0.129   9.725  1.7485 -1.4558  1.7052
21540SOL    HW273399  11.508   0.210   9.776  0.5665  2.1503 -0.8781
21541SOL     OW73400   6.918   4.564  10.761 -0.3024  0.1053  0.3677
21541SOL    HW173401   6.913   4.648  10.716  2.0377  0.7741  1.2347
21541SOL    HW273402   6.887   4.581  10.849  1.8100  0.5784  1.0903
21542SOL     OW73403   9.074   2.485   1.779 -0.0905 -0.5323 -0.2491
21542SOL    HW173404   9.029   2.411   1.822 -0.5597 -0.7768 -1.1414
21542SOL    HW273405   9.160   2.488   1.821 -0.7586 -0.3603  1.1578
21543SOL     OW73406  11.824   1.138   7.358 -0.0627 -0.5779 -0.3064
21543SOL    HW173407  11.814   1.085   7.437  0.0089  0.4823  0.4400
21543SOL    HW273408  11.909   1.181   7.369  0.6571 -1.5559 -1.6862
21544SOL     OW73409   7.588   0.970   5.204  0.1100 -0.2326 -0.1204
21544SOL    HW173410   7.592   1.055   5.247  1.2349 -0.3834  0.1116
21544SOL    HW273411   7.502   0.968   5.163 -0.0867  0.8517  0.1981
21545SOL     OW73412   0.844   8.999  12.423 -0.1034  0.6172  0.1124
21545SOL    HW173413   0.789   9.029  12.495 -0.6943  0.5519 -0.3046
21545SOL    HW273414   0.785   8.993  12.348  0.4937  0.6535 -0.3744
21546SOL     OW73415   6.304   0.176   3.814  0.5124  0.3997  0.2303
21546SOL    HW173416   6.286   0.266   3.843  1.1508  0.3387  0.8438
21546SOL    HW273417   6.399   0.167   3.822  0.9197  0.7417 -3.0008
21547SOL     OW73418  11.626   5.315  12.057  0.0529 -0.2651  0.0414
21547SOL    HW173419  11.653   5.245  12.116  2.2690 -0.5947 -1.2436
21547SOL    HW273420  11.622   5.394  12.111  1.7140 -0.6154  0.7113
21548SOL     OW73421   9.468   7.952  10.979 -0.2508  0.5767  0.8187
21548SOL    HW173422   9.464   7.911  11.066 -0.0243  0.8911  0.9777
21548SOL    HW273423   9.492   8.043  10.997  0.4125  0.4910  0.3807
21549SOL     OW73424  11.100   7.653   0.384  0.5059 -0.3481  0.6427
21549SOL    HW173425  11.085   7.581   0.324 -0.4425 -0.6652  1.2361
21549SOL    HW273426  11.057   7.626   0.465  0.2131  0.8417  0.9062
21550SOL     OW73427   4.595   8.399   4.379  0.5578  0.1724 -0.5594
21550SOL    HW173428   4.510   8.438   4.358  1.3174  1.6385 -1.0391
21550SOL    HW273429   4.604   8.326   4.318  0.3723  1.0787 -1.7091
21551SOL     OW73430   4.764   0.365   6.307 -0.3632  0.2848  0.5989
21551SOL    HW173431   4.809   0.298   6.256 -0.1064 -0.4769  1.7882
21551SOL    HW273432   4.834   0.416   6.348 -0.4854 -1.3051  2.9725
21552SOL     OW73433   8.405   7.120   4.074  0.6278 -0.2246 -0.0681
21552SOL    HW173434   8.488   7.094   4.033  0.5852  1.8278 -1.6299
21552SOL    HW273435   8.337   7.087   4.016  0.3266 -1.2115  0.7988
21553SOL     OW73436   7.120  11.151  12.356  0.0451 -0.1237  0.2046
21553SOL    HW173437   7.126  11.110  12.442  0.8189  1.4537  0.9422
21553SOL    HW273438   7.169  11.093  12.298  1.4049 -0.1031  1.2758
21554SOL     OW73439   0.887   8.478   3.239  0.3759 -0.3612  0.2973
21554SOL    HW173440   0.796   8.450   3.230 -0.3771  1.4894  1.5031
21554SOL    HW273441   0.889   8.564   3.196  1.2591  0.1295  1.3022
21555SOL     OW73442   4.906   2.176   3.916 -0.4142 -0.2260  0.2118
21555SOL    HW173443   4.875   2.110   3.853  3.0796  0.4155 -2.4476
21555SOL    HW273444   4.865   2.257   3.888  0.0397 -0.1997 -0.3928
21556SOL     OW73445   0.029   4.104  10.335  0.7001 -0.4414  0.1258
21556SOL    HW173446   0.065   4.188  10.362 -0.8156  0.1499  0.3775
21556SOL    HW273447   0.105   4.056  10.301  1.2679  1.8164 -2.1228
21557SOL     OW73448   2.750   4.346   6.671  0.1246  0.2378  0.3210
21557SOL    HW173449   2.795   4.430   6.668 -1.4620  1.1067 -0.5446
21557SOL    HW273450   2.678   4.360   6.733 -1.1635  0.1016 -1.0814
21558SOL     OW73451   8.693  10.694   7.919 -0.1490  0.0136 -0.1667
21558SOL    HW173452   8.758  10.670   7.985 -1.0970 -0.4512  0.6238
21558SOL    HW273453   8.735  10.763   7.869  0.3487  0.8873  1.3763
21559SOL     OW73454   6.365  11.836   9.390 -0.1687 -0.3428 -0.3536
21559SOL    HW173455   6.380  11.930   9.400 -0.5549 -0.5454  4.0839
21559SOL    HW273456   6.271  11.828   9.378 -0.1259 -0.1800 -0.8154
21560SOL     OW73457   0.088   2.240   2.476  0.1742 -0.0626  0.0979
21560SOL    HW173458   0.120   2.151   2.494 -0.8808 -0.9983 -2.1841
21560SOL    HW273459   0.029   2.259   2.548  1.0921 -0.8349  1.0932
21561SOL     OW73460   3.025   7.825   2.671 -0.2554 -0.0458 -0.3331
21561SOL    HW173461   3.109   7.841   2.715 -0.2683 -0.9274  0.0276
21561SOL    HW273462   3.049   7.783   2.588 -0.3022  0.3902 -0.5686
21562SOL     OW73463   2.763  11.578  11.568 -0.2711  0.3387  0.0660
21562SOL    HW173464   2.711  11.652  11.536  0.2070  0.7278  0.1706
21562SOL    HW273465   2.829  11.565  11.501 -0.2932  0.0720  0.0976
21563SOL     OW73466  11.593   5.301   4.453  0.1351  0.1641  0.3690
21563SOL    HW173467  11.686   5.318   4.439  0.5551 -1.8251  0.4360
21563SOL    HW273468  11.578   5.323   4.545  0.4127  0.9102  0.2458
21564SOL     OW73469  12.345   5.324   0.845  0.4307 -0.2396 -0.4369
21564SOL    HW173470  12.324   5.235   0.814 -0.3043 -0.1199 -0.2995
21564SOL    HW273471  12.276   5.379   0.809  2.3826  0.8034 -2.9088
21565SOL     OW73472   9.113   2.099   2.670  0.7645  0.1927 -0.7308
21565SOL    HW173473   9.200   2.129   2.694  0.5399  0.0285  0.3263
21565SOL    HW273474   9.066   2.179   2.645  1.0992  0.3297 -0.9149
21566SOL     OW73475   7.333  11.997   1.172  0.2368 -0.0092 -0.6270
21566SOL    HW173476   7.309  11.944   1.096 -0.1642  1.1528 -1.3327
21566SOL    HW273477   7.302  12.085   1.151 -0.1521  0.2780  1.0160
21567SOL     OW73478  10.764   3.715   1.320  0.0232 -0.2447 -0.0602
21567SOL    HW173479  10.749   3.763   1.238  1.5740  0.2850 -0.0479
21567SOL    HW273480  10.715   3.765   1.385 -0.1697  0.0717 -0.4379
21568SOL     OW73481   2.434   1.445  12.510  0.1871 -0.1638 -1.1023
21568SOL    HW173482   2.406   1.408  12.426 -0.5827 -0.1008 -0.8886
21568SOL    HW273483   2.417   1.538  12.502 -0.6565 -0.2625 -0.5996
21569SOL     OW73484   8.356   0.943   4.896  0.2172  0.0554  0.2396
21569SOL    HW173485   8.350   1.020   4.840 -1.3140  0.9740  1.5656
21569SOL    HW273486   8.404   0.973   4.973 -1.2641  0.0142  1.2156
21570SOL     OW73487   7.745   3.447   6.548  0.2823 -0.0102  0.2369
21570SOL    HW173488   7.778   3.500   6.620 -0.7952  0.2320  0.5749
21570SOL    HW273489   7.817   3.444   6.485 -0.2431  3.5505 -0.7449
21571SOL     OW73490  12.467   5.312   7.128 -0.4506  0.1084  0.3747
21571SOL    HW173491  12.400   5.287   7.192 -1.0119  0.7038  0.0286
21571SOL    HW273492  12.438   5.397   7.096 -0.1051 -0.1321 -0.5843
21572SOL     OW73493   8.873  10.157   0.778  0.2390 -0.0938 -0.6286
21572SOL    HW173494   8.916  10.089   0.728  0.0677 -0.2978 -0.5039
21572SOL    HW273495   8.939  10.226   0.788 -0.1158  0.5254 -2.2328
21573SOL     OW73496   2.607   8.555   9.879  0.2479  0.1337  0.0519
21573SOL    HW173497   2.596   8.481   9.939  0.1874  0.0465 -0.0648
21573SOL    HW273498   2.577   8.631   9.927 -0.8540 -0.0965 -0.2547
21574SOL     OW73499   2.939   6.472  12.476  0.0914 -0.6833  0.0995
21574SOL    HW173500   2.898   6.519  12.404 -1.1874  1.0486  1.8552
21574SOL    HW273501   2.869   6.461  12.541  1.2570 -1.9042  1.2093
21575SOL     OW73502   1.653  10.285   2.120 -0.2654 -0.0685  0.0775
21575SOL    HW173503   1.648  10.371   2.078  0.1743  0.4788  1.1129
21575SOL    HW273504   1.658  10.304   2.214  2.9099 -1.0415  0.2489
21576SOL     OW73505   9.634  10.686   0.880 -0.1379 -0.0451  0.2218
21576SOL    HW173506   9.557  10.737   0.908 -0.0116  0.7186 -0.7592
21576SOL    HW273507   9.693  10.689   0.955 -0.4864  0.5506  0.4803
21577SOL     OW73508   9.126   3.717   4.369 -0.1738 -0.4919  0.4387
21577SOL    HW173509   9.121   3.756   4.456  0.0345 -2.7251  1.5193
21577SOL    HW273510   9.035   3.720   4.337 -0.4896 -0.8115  1.2784
21578SOL     OW73511   9.936   7.417  11.642  0.5532  0.4218 -0.8059
21578SOL    HW173512   9.887   7.444  11.719 -1.1396 -1.2520 -1.2309
21578SOL    HW273513  10.013   7.371  11.676  0.0904  0.1532 -0.1223
21579SOL     OW73514   5.426   9.503   1.897  0.1351 -0.3309 -0.3490
21579SOL    HW173515   5.506   9.470   1.936  0.4354 -0.5355 -1.1153
21579SOL    HW273516   5.438   9.598   1.895  0.0114 -0.2994  0.2693
21580SOL     OW73517   1.061   0.030   1.559 -0.0846  0.2773  0.3660
21580SOL    HW173518   1.064  -0.065   1.549 -1.5051  0.4038 -1.9798
21580SOL    HW273519   1.034   0.044   1.650  0.7052 -1.5312  0.9162
21581SOL     OW73520   1.146   4.312   8.843 -0.2182 -0.4297  0.0445
21581SOL    HW173521   1.203   4.240   8.869 -0.5685 -0.3971  0.9128
21581SOL    HW273522   1.176   4.335   8.755  1.2105 -0.3078  0.5340
21582SOL     OW73523   0.785  10.407   8.514 -0.0816 -0.2142  0.3533
21582SOL    HW173524   0.848  10.350   8.469  0.7283 -0.1149  1.3350
21582SOL    HW273525   0.824  10.495   8.506 -1.1481  0.1905 -0.8494
21583SOL     OW73526  10.267  10.126   0.199 -0.0815 -0.9864 -0.1839
21583SOL    HW173527  10.273  10.163   0.112  0.3044 -0.6621 -0.0189
21583SOL    HW273528  10.184  10.078   0.199 -1.2792  0.9638  0.0086
21584SOL     OW73529   0.694   1.494   8.686  0.2714 -0.3198  0.2638
21584SOL    HW173530   0.636   1.564   8.715  0.5913 -1.3331  3.9031
21584SOL    HW273531   0.639   1.439   8.630 -1.0378  0.9293  0.2653
21585SOL     OW73532  12.552   2.889   7.114 -1.0443 -0.5312  0.2562
21585SOL    HW173533  12.498   2.912   7.190 -0.7159  0.8525  0.0855
21585SOL    HW273534  12.641   2.885   7.148 -0.9084 -0.0067 -0.0299
21586SOL     OW73535   0.273   1.274   7.871  0.3994 -0.1240  0.1886
21586SOL    HW173536   0.232   1.274   7.784  3.0373 -0.9480 -1.1701
21586SOL    HW273537   0.255   1.361   7.906 -0.1375  0.4959 -1.4967
21587SOL     OW73538   2.468   6.284   0.042 -0.5043  0.5592  0.6428
21587SOL    HW173539   2.392   6.229   0.059 -0.5201  0.4378  0.2082
21587SOL    HW273540   2.528   6.227  -0.006  0.0424  0.5241  1.3551
21588SOL     OW73541   4.319   9.989   9.831  0.3415  0.0727 -0.4077
21588SOL    HW173542   4.381  10.062   9.821 -1.8482  2.0992 -0.0677
21588SOL    HW273543   4.286   9.974   9.743 -0.0897  0.3383 -0.2943
21589SOL     OW73544  11.907   8.328  11.727 -0.0006 -0.0563  0.5039
21589SOL    HW173545  11.981   8.293  11.679 -0.1899 -1.1602  0.9877
21589SOL    HW273546  11.918   8.423  11.723  1.9782 -0.2029  1.3913
21590SOL     OW73547   5.664   7.523  10.787  0.0100 -0.3112  0.9050
21590SOL    HW173548   5.583   7.565  10.759 -0.2245 -0.4540  1.3597
21590SOL    HW273549   5.726   7.595  10.798  0.9322 -0.4068 -2.5095
21591SOL     OW73550   5.220   1.604   2.956  0.0060  0.3495 -0.6499
21591SOL    HW173551   5.249   1.556   2.879  1.2117  0.3063 -0.1873
21591SOL    HW273552   5.257   1.692   2.945 -0.2947  0.5120 -0.3884
21592SOL     OW73553   6.361  11.117   6.780  0.0543  0.0493  0.1448
21592SOL    HW173554   6.420  11.106   6.705  0.0469 -1.4272  0.3236
21592SOL    HW273555   6.341  11.028   6.808 -1.2319  0.5482  0.9062
21593SOL     OW73556   8.707   5.230   6.638 -0.1338 -0.4088  0.9517
21593SOL    HW173557   8.778   5.190   6.689  0.6714 -0.4380 -0.1528
21593SOL    HW273558   8.699   5.175   6.561  0.6247  1.2031 -0.3443
21594SOL     OW73559   4.653  10.838   4.345  0.0888  0.2617  0.0394
21594SOL    HW173560   4.735  10.835   4.294 -0.5381  1.1043 -1.0519
21594SOL    HW273561   4.588  10.798   4.288 -0.2880 -0.4227  0.9138
21595SOL     OW73562  10.751  11.856   7.994  0.3492 -0.2475 -0.1247
21595SOL    HW173563  10.751  11.939   8.042 -0.6013  0.1453 -0.7752
21595SOL    HW273564  10.833  11.856   7.944 -0.4786  1.1563 -1.5415
21596SOL     OW73565   5.184  11.465   5.640  0.7530  0.0613 -0.4292
21596SOL    HW173566   5.223  11.457   5.552 -0.4719  0.9408 -1.0753
21596SOL    HW273567   5.091  11.445   5.627  0.7090 -0.7002  0.8535
21597SOL     OW73568   0.738   3.214   5.251  0.2428 -0.1375 -0.5209
21597SOL    HW173569   0.758   3.121   5.254  0.4044 -0.1113 -0.7691
21597SOL    HW273570   0.656   3.220   5.202 -0.3126 -0.2334  0.3846
21598SOL     OW73571  11.030  10.611  11.649 -0.3069  0.0870  0.3601
21598SOL    HW173572  11.053  10.704  11.644 -0.5908  0.2069  1.2291
21598SOL    HW273573  10.935  10.609  11.634 -0.6250  0.1359  2.2002
21599SOL     OW73574   5.442   1.792  10.286  0.1206  0.3081 -0.2308
21599SOL    HW173575   5.362   1.844  10.292  0.0817  0.0713  1.8420
21599SOL    HW273576   5.436   1.748  10.201 -1.5074  0.9929 -0.4934
21600SOL     OW73577   5.922   8.614  11.015 -0.2943  0.3516  0.4696
21600SOL    HW173578   5.961   8.683  10.961  3.1023 -1.0141  0.9224
21600SOL    HW273579   5.939   8.534  10.966 -0.6721 -0.5334  1.7560
21601SOL     OW73580  10.845   4.028   8.802  0.1200 -0.1440  0.2440
21601SOL    HW173581  10.771   4.067   8.755  1.6832  1.4487 -1.0766
21601SOL    HW273582  10.852   3.940   8.765 -1.3373 -0.4836  0.7015
21602SOL     OW73583   6.126   8.419   4.368 -0.5588  0.2864 -0.4489
21602SOL    HW173584   6.060   8.375   4.315 -0.6867 -0.2239  0.1092
21602SOL    HW273585   6.168   8.348   4.417 -0.0615  0.6799 -0.2939
21603SOL     OW73586   9.340  10.055   2.390  0.3574  0.6188  0.1406
21603SOL    HW173587   9.342   9.999   2.312 -0.5402 -0.6614  0.9841
21603SOL    HW273588   9.392  10.132   2.366 -1.6198  1.2947 -2.4662
21604SOL     OW73589   0.245   4.401  11.960  0.3629 -0.4212 -0.1883
21604SOL    HW173590   0.334   4.432  11.977  0.1154  1.0050 -1.3599
21604SOL    HW273591   0.252   4.305  11.966  2.1743 -0.3935 -1.1052
21605SOL     OW73592   8.987   0.628   6.483 -0.0833  0.8300 -0.0683
21605SOL    HW173593   9.078   0.597   6.489 -0.2550 -0.4940 -2.8515
21605SOL    HW273594   8.985   0.681   6.404 -1.7503  0.8284 -0.0559
21606SOL     OW73595   8.009   3.759  10.540  0.3200  0.1883  0.0386
21606SOL    HW173596   8.035   3.711  10.461  0.7263  0.6361 -0.1025
21606SOL    HW273597   7.978   3.844  10.508 -0.2038  0.1014  0.3046
21607SOL     OW73598   0.601  11.483  10.078  0.0441  0.2483 -0.1140
21607SOL    HW173599   0.663  11.471  10.006 -0.5171 -0.3497 -0.5137
21607SOL    HW273600   0.545  11.405  10.075  0.1317  0.1156  1.1005
21608SOL     OW73601   0.754   7.752   5.338  0.2379 -0.1277  0.1193
21608SOL    HW173602   0.731   7.838   5.301 -0.0505 -0.0270  0.5262
21608SOL    HW273603   0.733   7.760   5.431  0.0075 -0.7161  0.1171
21609SOL     OW73604   1.542  12.542   0.167 -0.1385 -0.3208  0.2901
21609SOL    HW173605   1.469  12.593   0.134 -0.4815 -0.9509  0.0551
21609SOL    HW273606   1.602  12.607   0.204 -1.1597  0.1614  1.1804
21610SOL     OW73607  11.219   7.855   3.785 -0.2189 -0.5767  0.4623
21610SOL    HW173608  11.296   7.831   3.837 -0.6330 -0.7877  0.9932
21610SOL    HW273609  11.246   7.842   3.695  0.6616  0.2241  0.5976
21611SOL     OW73610   8.755   5.560   1.943 -0.6235  0.1001 -0.0183
21611SOL    HW173611   8.670   5.571   1.900 -0.5153  4.4270  0.4384
21611SOL    HW273612   8.813   5.529   1.873 -1.9678 -0.1912 -1.0521
21612SOL     OW73613   9.470   1.162   8.561 -0.2619 -0.0075 -0.0495
21612SOL    HW173614   9.375   1.172   8.559 -0.3901 -0.7025  1.6674
21612SOL    HW273615   9.500   1.230   8.621  0.4234  0.6541 -1.0988
21613SOL     OW73616   4.073   7.627   2.621 -0.1832 -0.0466 -0.3878
21613SOL    HW173617   3.996   7.665   2.663  0.2311  0.8619 -0.4381
21613SOL    HW273618   4.110   7.568   2.687 -0.8999 -0.4769 -0.3579
21614SOL     OW73619   9.878   6.676   1.341  0.4410  0.0787  0.2645
21614SOL    HW173620   9.827   6.609   1.296 -0.4663 -0.6177  2.2229
21614SOL    HW273621   9.969   6.652   1.325  0.1224 -1.3765  0.5304
21615SOL     OW73622   7.843  12.279   1.740 -0.5774 -0.0856  0.7520
21615SOL    HW173623   7.819  12.187   1.749  1.8692 -0.6915  2.1421
21615SOL    HW273624   7.777  12.316   1.682 -2.8322 -2.2067  1.7925
21616SOL     OW73625   7.130   7.577   1.766  1.0728  0.1069  0.4425
21616SOL    HW173626   7.221   7.569   1.794  0.8047  0.2495  1.4111
21616SOL    HW273627   7.081   7.588   1.848  0.1408 -0.3911 -0.0284
21617SOL     OW73628   5.702   3.650   6.988 -0.4466 -0.1792  0.1743
21617SOL    HW173629   5.782   3.698   7.009 -1.6701  1.4525  1.3760
21617SOL    HW273630   5.718   3.561   7.019  0.4854  0.4071  1.4484
21618SOL     OW73631   5.631   9.370   2.838  0.7245 -0.2954  0.4304
21618SOL    HW173632   5.617   9.465   2.833  1.9402  0.0293  2.2350
21618SOL    HW273633   5.660   9.346   2.750 -0.1765  0.8858 -0.2268
21619SOL     OW73634   5.480   9.947   2.119 -0.2727 -0.6833  0.3976
21619SOL    HW173635   5.448  10.013   2.180  1.5640  1.1830 -0.5313
21619SOL    HW273636   5.542   9.896   2.170  2.0744  1.5452 -0.0145
21620SOL     OW73637   7.092  12.553   6.131  0.1140 -0.7684 -0.8417
21620SOL    HW173638   7.097  12.471   6.180 -0.7301  0.2958  1.1121
21620SOL    HW273639   7.180  12.566   6.096  0.6769 -1.6921  0.1790
21621SOL     OW73640   4.747   7.201   0.909 -0.5782 -0.4280  0.2131
21621SOL    HW173641   4.706   7.244   0.834  1.0903  0.2139 -0.3713
21621SOL    HW273642   4.782   7.273   0.961  0.2451 -0.9745  0.4215
21622SOL     OW73643   0.662   7.486  11.878  0.1703  0.4531  0.4877
21622SOL    HW173644   0.626   7.407  11.919 -1.8359  0.7700 -0.5542
21622SOL    HW273645   0.692   7.539  11.951  1.0932 -1.0208  1.2447
21623SOL     OW73646   4.919   1.509   2.489  0.1099 -0.3266 -0.2694
21623SOL    HW173647   4.942   1.437   2.548 -0.8971  0.1248  0.7074
21623SOL    HW273648   5.000   1.525   2.439  1.1370 -0.4569  1.2718
21624SOL     OW73649  11.378  11.456   6.552  0.0713  0.3093 -0.5876
21624SOL    HW173650  11.465  11.492   6.570  0.1664  0.0073 -0.4465
21624SOL    HW273651  11.391  11.396   6.479  0.2738 -0.9332  0.4354
21625SOL     OW73652   2.081   4.891   5.658  0.6645  0.1523 -0.1507
21625SOL    HW173653   2.025   4.948   5.605  1.3218  0.2141 -0.8048
21625SOL    HW273654   2.170   4.912   5.628  0.9592 -0.6648  0.1493
21626SOL     OW73655  10.971   7.328   1.913 -0.7069 -0.6414  0.3891
21626SOL    HW173656  10.883   7.310   1.945 -1.4639 -1.3363 -1.9079
21626SOL    HW273657  10.987   7.420   1.937 -1.7879 -0.6784  1.3375
21627SOL     OW73658   5.460   2.267   4.779  0.4117  0.7031  0.3675
21627SOL    HW173659   5.389   2.233   4.833 -0.3178  2.6997  0.7443
21627SOL    HW273660   5.429   2.253   4.689  0.4567 -0.2276  0.4803
21628SOL     OW73661   7.440  10.917   8.589  0.2376  0.1233  0.5514
21628SOL    HW173662   7.435  10.896   8.682  2.0429  3.9936  1.7296
21628SOL    HW273663   7.401  11.005   8.582 -2.0084 -0.9249 -2.8550
21629SOL     OW73664  10.741   5.924   8.379  0.4706 -0.6712  0.1194
21629SOL    HW173665  10.795   5.878   8.443 -0.8166 -2.6560 -0.1280
21629SOL    HW273666  10.801   5.943   8.307  1.1411 -1.7410  0.3656
21630SOL     OW73667   8.774  10.170  11.096  0.1172  0.3108 -0.0846
21630SOL    HW173668   8.695  10.205  11.054 -0.3436  0.3366  0.7714
21630SOL    HW273669   8.838  10.163  11.026 -0.6374  0.3303 -0.7880
21631SOL     OW73670   7.343  12.076   2.345 -0.5598 -0.2646  0.5251
21631SOL    HW173671   7.258  12.082   2.302 -1.4787 -0.3181  2.2372
21631SOL    HW273672   7.368  12.167   2.361 -1.0850 -0.2739  1.4582
21632SOL     OW73673   7.523   3.543   7.693  0.3995 -0.3979  0.4034
21632SOL    HW173674   7.571   3.467   7.660  0.3358 -0.1016 -0.4089
21632SOL    HW273675   7.585   3.616   7.682  0.7343 -0.4414  1.8687
21633SOL     OW73676  10.099   4.566   2.688  0.0044 -0.8121 -0.1361
21633SOL    HW173677  10.189   4.553   2.657 -0.1041  1.3947 -1.6119
21633SOL    HW273678  10.109   4.612   2.771  0.2272 -1.0389 -0.0339
21634SOL     OW73679   2.887   7.422  10.793 -0.3292  0.3619  0.4111
21634SOL    HW173680   2.867   7.474  10.715  1.5865  1.3104  0.4841
21634SOL    HW273681   2.929   7.484  10.853 -0.3079 -0.7179  1.5589
21635SOL     OW73682   4.884  11.232  12.241 -0.1064  0.3092 -0.2833
21635SOL    HW173683   4.842  11.218  12.156 -1.4784 -1.7048  0.6527
21635SOL    HW273684   4.811  11.246  12.302  0.8243  1.1441  0.6954
21636SOL     OW73685   8.420   3.811   0.751  0.9904 -0.2623  0.1987
21636SOL    HW173686   8.404   3.813   0.846  2.4324  0.1560  0.4604
21636SOL    HW273687   8.334   3.825   0.712 -0.0819 -2.7814  1.3892
21637SOL     OW73688  12.415   2.525   4.284  0.9528  0.3711 -0.3964
21637SOL    HW173689  12.447   2.440   4.255 -0.0609 -0.1900  0.0769
21637SOL    HW273690  12.482   2.557   4.343  1.1768 -0.2639 -0.3001
21638SOL     OW73691   8.002   0.133   3.480  0.2361  0.6399  0.3240
21638SOL    HW173692   8.046   0.102   3.401  0.6148  1.5485  0.1656
21638SOL    HW273693   7.909   0.117   3.464  0.3541  0.3772 -0.1024
21639SOL     OW73694  10.352   9.868   0.088 -0.8539  0.0952 -0.2263
21639SOL    HW173695  10.266   9.907   0.071 -0.6982  0.0578 -1.1182
21639SOL    HW273696  10.372   9.818   0.009 -0.2006 -0.2434  0.1477
21640SOL     OW73697   6.382   0.791   4.048 -0.1201 -0.3657 -0.6693
21640SOL    HW173698   6.405   0.857   3.983  0.0248  0.8912  0.6124
21640SOL    HW273699   6.297   0.756   4.018  0.0923 -0.0397 -1.6741
21641SOL     OW73700   7.607   3.034  11.589 -0.2095  0.1537  0.7860
21641SOL    HW173701   7.639   3.066  11.505 -2.6403 -1.0778 -0.7079
21641SOL    HW273702   7.653   2.951  11.602  0.5410  0.5837  0.9732
21642SOL     OW73703   9.366   7.127  10.747 -0.3750  0.3901  0.2011
21642SOL    HW173704   9.440   7.127  10.686  0.0540  0.7313  0.7204
21642SOL    HW273705   9.326   7.041  10.736  0.8389 -0.2694  0.8171
21643SOL     OW73706   9.512   0.353  12.434 -0.0412 -0.1632 -0.2768
21643SOL    HW173707   9.577   0.288  12.460 -0.3751  0.0949  1.3441
21643SOL    HW273708   9.534   0.431  12.486 -0.7387  0.4219 -0.8299
21644SOL     OW73709   1.134   3.569   0.359  0.8132  0.3849 -0.2682
21644SOL    HW173710   1.082   3.622   0.419  0.8529 -0.7817  0.8519
21644SOL    HW273711   1.097   3.481   0.367  0.1434  0.3718 -2.7755
21645SOL     OW73712   5.314   1.786  11.599 -0.6923  0.0510  0.1217
21645SOL    HW173713   5.399   1.829  11.592 -2.5700  4.2380 -0.1593
21645SOL    HW273714   5.319   1.735  11.680  2.0901 -0.1354 -0.0716
21646SOL     OW73715  10.496   5.462   5.952  0.2358  0.4558 -0.9717
21646SOL    HW173716  10.429   5.402   5.919 -0.0402  1.2922 -1.9774
21646SOL    HW273717  10.573   5.406   5.967 -0.4769 -0.4094 -0.3747
21647SOL     OW73718   6.986   2.533   7.869  0.1759 -0.3305  0.0959
21647SOL    HW173719   6.910   2.585   7.895  0.0189 -0.4066 -0.2067
21647SOL    HW273720   7.059   2.596   7.870  0.1348 -0.2840  0.5042
21648SOL     OW73721   8.580   8.621   7.776 -0.0870 -0.2441  0.2868
21648SOL    HW173722   8.585   8.701   7.829 -0.2787  2.2075 -3.0409
21648SOL    HW273723   8.670   8.589   7.773  0.2931  0.7540  0.4614
21649SOL     OW73724  10.176   7.458   7.095 -0.3573  0.0471 -0.1438
21649SOL    HW173725  10.124   7.378   7.104  1.4100 -1.2106 -0.3898
21649SOL    HW273726  10.189   7.488   7.185 -1.7540  0.5912 -0.0989
21650SOL     OW73727   8.104   9.951   8.560  0.1103  0.0432  1.0916
21650SOL    HW173728   8.146   9.988   8.483  1.7752 -1.7994  1.0288
21650SOL    HW273729   8.015   9.988   8.560  0.4984  1.0894 -0.9395
21651SOL     OW73730  12.220   8.340   5.925  0.1482 -0.1890  0.3674
21651SOL    HW173731  12.155   8.322   5.993 -3.3968  0.0762 -2.6460
21651SOL    HW273732  12.242   8.254   5.890  0.7027 -0.2074  0.7548
21652SOL     OW73733   4.573  12.011   2.282 -0.3086  0.7203 -0.0976
21652SOL    HW173734   4.661  11.978   2.300 -0.0458  0.5189 -1.6327
21652SOL    HW273735   4.516  11.962   2.342  0.5150  0.2101  0.2797
21653SOL     OW73736   6.644   8.308   0.563  0.1703 -0.5861  0.0108
21653SOL    HW173737   6.602   8.350   0.488 -0.5302 -2.4692 -0.7046
21653SOL    HW273738   6.653   8.378   0.627 -0.3352  0.8000 -1.3586
21654SOL     OW73739   5.221   3.759  10.074 -0.0119  0.2586 -0.1123
21654SOL    HW173740   5.306   3.747  10.031  0.0208  0.2249 -0.0376
21654SOL    HW273741   5.184   3.838  10.033  1.8597  2.8510  2.7328
21655SOL     OW73742   1.725  12.358   1.154 -0.1431 -0.2947  0.4191
21655SOL    HW173743   1.773  12.428   1.199 -2.2700  0.7806  1.1770
21655SOL    HW273744   1.714  12.391   1.064  1.3397 -0.9972 -0.0435
21656SOL     OW73745  11.830   6.701   6.521  0.2754 -0.6672  0.4640
21656SOL    HW173746  11.887   6.662   6.588  0.8500 -2.6992 -1.1002
21656SOL    HW273747  11.802   6.627   6.467 -0.5210  0.8263 -1.2821
21657SOL     OW73748   4.936   3.139   2.673  0.0969 -0.3709 -0.2459
21657SOL    HW173749   5.002   3.194   2.715 -0.8598  1.0614 -0.5494
21657SOL    HW273750   4.918   3.070   2.737  3.1987 -1.9532 -0.8686
21658SOL     OW73751   6.491   5.162   7.330  0.1125  0.5035  0.0551
21658SOL    HW173752   6.527   5.194   7.247  0.8602  0.3564  0.3222
21658SOL    HW273753   6.567   5.135   7.381 -0.4915 -1.6562 -0.1210
21659SOL     OW73754  10.635   3.126   3.543  0.5892  0.2296  0.3336
21659SOL    HW173755  10.547   3.109   3.576 -0.1089  1.4975 -0.7532
21659SOL    HW273756  10.646   3.064   3.471  0.0365  0.9499 -0.3894
21660SOL     OW73757   2.565   8.015   6.657 -0.0143 -0.5981  0.4038
21660SOL    HW173758   2.493   7.955   6.676 -0.9496  0.1716 -0.5673
21660SOL    HW273759   2.628   7.962   6.608 -1.3051 -0.5976 -1.3753
21661SOL     OW73760   7.171   8.998   1.025  0.1499 -0.3672  0.5447
21661SOL    HW173761   7.084   8.992   0.984  0.0988  0.3377  0.5433
21661SOL    HW273762   7.193   9.091   1.021  1.3799 -0.6651 -0.4239
21662SOL     OW73763   6.042   1.367  10.555 -0.2593 -0.5637  0.2583
21662SOL    HW173764   6.083   1.417  10.626 -0.9829 -1.0490  1.0309
21662SOL    HW273765   6.077   1.279  10.564  1.5652 -0.1054 -1.5424
21663SOL     OW73766   0.833   7.388   4.036 -0.4111  0.6158 -0.6551
21663SOL    HW173767   0.837   7.356   4.126 -1.0387  2.1801 -0.0305
21663SOL    HW273768   0.771   7.330   3.992 -0.3000  0.0030 -0.0242
21664SOL     OW73769   4.926  11.786  11.703  0.0549  0.3471 -0.6133
21664SOL    HW173770   4.955  11.717  11.763  0.5694  0.6227 -0.5411
21664SOL    HW273771   4.862  11.743  11.646  0.6909 -0.2907 -0.8510
21665SOL     OW73772  10.126   1.543  10.523 -0.4309 -0.3009 -0.0755
21665SOL    HW173773  10.070   1.615  10.553  0.2930  0.1650  0.2115
21665SOL    HW273774  10.179   1.521  10.600 -0.6403 -1.1370 -0.1686
21666SOL     OW73775   5.771  11.539   3.646  0.9218 -0.3840 -0.0804
21666SOL    HW173776   5.692  11.564   3.599  1.3033  1.1111  0.0266
21666SOL    HW273777   5.787  11.611   3.707  2.7544 -0.3111 -0.5952
21667SOL     OW73778   9.375   2.473   4.785  0.5885 -0.2997 -0.2738
21667SOL    HW173779   9.317   2.402   4.813  0.1890 -0.0674 -0.5008
21667SOL    HW273780   9.463   2.441   4.806  0.2733  0.5296  2.7947
21668SOL     OW73781   6.260   8.516  12.412  0.4292 -0.1913  0.3151
21668SOL    HW173782   6.312   8.455  12.359 -0.1145  0.2926 -0.7962
21668SOL    HW273783   6.283   8.494  12.503 -0.0100 -2.2948 -0.0317
21669SOL     OW73784   0.968   1.681   1.996  0.4081 -0.5678  0.0949
21669SOL    HW173785   0.987   1.688   1.902  0.7772 -1.6312  0.0796
21669SOL    HW273786   0.927   1.765   2.018  0.0071 -0.4249 -1.0893
21670SOL     OW73787   4.650  10.831   6.770  0.5248 -0.4207  0.2820
21670SOL    HW173788   4.617  10.882   6.844 -0.6093  0.4924 -0.8029
21670SOL    HW273789   4.744  10.846   6.769  0.3927  0.4848  0.8661
21671SOL     OW73790  10.906  10.283   0.123 -0.7593  0.2846 -0.1353
21671SOL    HW173791  11.001  10.291   0.117 -0.8910  1.1475 -1.9221
21671SOL    HW273792  10.878  10.259   0.035 -2.1792 -0.3452  0.4509
21672SOL     OW73793   7.881   6.055  11.642  0.3808 -0.1304 -0.4204
21672SOL    HW173794   7.808   6.016  11.594  0.2320  0.0992 -0.3831
21672SOL    HW273795   7.915   5.984  11.696 -0.5493  0.0533  0.4316
21673SOL     OW73796   9.489   3.753   9.026 -0.4082  0.5260 -0.6443
21673SOL    HW173797   9.406   3.719   9.060 -0.0779  0.7396  0.4156
21673SOL    HW273798   9.473   3.767   8.932 -1.1559 -0.6653 -0.7167
21674SOL     OW73799  11.155   5.748   9.149  0.3668  0.5323 -0.1453
21674SOL    HW173800  11.135   5.760   9.056 -2.3238 -0.8737  0.1323
21674SOL    HW273801  11.075   5.776   9.194  1.5079  0.8813  1.7362
21675SOL     OW73802   4.127   1.843  11.667  0.0119 -0.0404 -0.0523
21675SOL    HW173803   4.075   1.775  11.710  0.3698  0.6419  1.5235
21675SOL    HW273804   4.075   1.866  11.590 -1.8168  0.2544  1.1813
21676SOL     OW73805   0.828   5.730  10.759 -0.0467  0.4157 -0.1455
21676SOL    HW173806   0.909   5.737  10.708 -0.6635 -1.5497 -1.5554
21676SOL    HW273807   0.857   5.699  10.845  0.8389  1.7112  0.0565
21677SOL     OW73808  12.387  11.729   5.016  0.0037 -0.1252  0.0402
21677SOL    HW173809  12.363  11.740   5.108  1.6033 -0.4253  0.5268
21677SOL    HW273810  12.330  11.790   4.969 -0.8205  0.0575  1.2263
21678SOL     OW73811   5.505   7.169  11.962  0.8601  0.6847  0.4742
21678SOL    HW173812   5.445   7.195  12.032  1.6999  1.4447  0.9338
21678SOL    HW273813   5.449   7.128  11.896 -0.3973  2.6542  0.2390
21679SOL     OW73814   9.812   2.976   4.260  0.0033 -0.1565 -0.1544
21679SOL    HW173815   9.742   2.987   4.195  1.2769 -1.6928 -1.8861
21679SOL    HW273816   9.874   3.046   4.240  1.0870 -1.4667 -1.6228
21680SOL     OW73817  11.306   0.327  10.591 -0.3786  0.0832  0.1525
21680SOL    HW173818  11.385   0.372  10.623  0.0653 -0.6058  0.0309
21680SOL    HW273819  11.281   0.269  10.663  0.7974 -1.7027 -0.8343
21681SOL     OW73820   9.525  11.238   7.948  0.1134  0.2716 -0.6272
21681SOL    HW173821   9.608  11.227   7.902 -0.1958  0.5569 -1.2742
21681SOL    HW273822   9.472  11.162   7.920  0.8478 -1.0650  1.3944
21682SOL     OW73823  12.386   3.976   3.170 -0.4930  0.8675  0.1396
21682SOL    HW173824  12.305   4.008   3.130  0.6237  0.7845 -2.4317
21682SOL    HW273825  12.455   4.023   3.122  1.1270 -2.9230 -1.6329
21683SOL     OW73826  12.456  11.939  11.063  0.3210  0.3949 -0.2665
21683SOL    HW173827  12.534  11.886  11.049  0.0603 -0.0336 -0.1104
21683SOL    HW273828  12.489  12.029  11.068  0.6914  0.3316 -1.2291
21684SOL     OW73829   9.133   6.936   6.750  0.1186  0.3212 -0.0258
21684SOL    HW173830   9.166   6.877   6.818 -1.4385  0.5181  0.9516
21684SOL    HW273831   9.101   6.878   6.682  0.4728  0.0920 -0.0040
21685SOL     OW73832   3.177  10.636   2.087  0.0155 -0.3031  0.4546
21685SOL    HW173833   3.243  10.620   2.020  1.1537 -1.3811  1.7639
21685SOL    HW273834   3.205  10.717   2.129 -0.7739  0.4451 -0.4391
21686SOL     OW73835  11.931  11.818   0.765 -0.3693 -0.2217 -0.6293
21686SOL    HW173836  11.945  11.828   0.670 -0.7469 -0.6120 -0.7262
21686SOL    HW273837  11.856  11.875   0.784 -0.6723 -0.6077 -0.6704
21687SOL     OW73838  10.926   6.972   4.778  0.4641  0.1215 -0.5652
21687SOL    HW173839  10.884   7.025   4.710  0.8569 -1.1401 -1.8392
21687SOL    HW273840  10.854   6.920   4.815 -0.2026  2.4496  1.6865
21688SOL     OW73841  12.560  11.579   2.196 -0.2283 -0.0897  0.5851
21688SOL    HW173842  12.475  11.576   2.151 -0.8058  1.3936  1.5120
21688SOL    HW273843  12.552  11.651   2.259  0.0457 -2.7682  4.0188
21689SOL     OW73844   4.209   1.690   2.569 -0.1905 -0.3277  0.1760
21689SOL    HW173845   4.153   1.662   2.497  1.1425 -1.4796 -0.4603
21689SOL    HW273846   4.274   1.620   2.578  1.1978  0.9831  0.8178
21690SOL     OW73847   2.722   6.410   0.695  0.0108  0.1201  0.2404
21690SOL    HW173848   2.630   6.388   0.709 -0.6301  2.3950  0.1427
21690SOL    HW273849   2.759   6.411   0.783 -0.4921  0.7755  0.4579
21691SOL     OW73850   1.679   3.884   0.595  0.0098  0.0395  0.3769
21691SOL    HW173851   1.690   3.960   0.539 -0.2362 -1.4392 -1.7898
21691SOL    HW273852   1.747   3.894   0.662  0.9432  1.4105 -0.7056
21692SOL     OW73853   2.004   2.869   8.014 -0.4208  0.3068 -0.4117
21692SOL    HW173854   2.087   2.833   7.982  0.6188  1.5660  0.6996
21692SOL    HW273855   1.941   2.850   7.945  0.4962 -1.7897 -0.7494
21693SOL     OW73856   6.371   3.984  10.658 -0.7798  0.5911 -0.0761
21693SOL    HW173857   6.302   3.930  10.620 -0.9209 -0.0802  1.0748
21693SOL    HW273858   6.326   4.061  10.692 -0.8472  0.5632 -0.1032
21694SOL     OW73859   1.677   6.245  10.377 -0.4859 -0.2516 -0.0304
21694SOL    HW173860   1.651   6.165  10.331  1.1898 -0.7399 -0.1852
21694SOL    HW273861   1.758   6.221  10.422  0.0424  1.3554 -0.0840
21695SOL     OW73862   8.876   1.261  12.150  0.7607  0.2464  0.0619
21695SOL    HW173863   8.887   1.194  12.218 -0.0699 -0.7814 -0.7875
21695SOL    HW273864   8.783   1.284  12.155  0.4638 -0.5433 -1.3413
21696SOL     OW73865  12.466   1.491   0.644  0.2726 -0.8234 -0.4760
21696SOL    HW173866  12.412   1.457   0.573  1.1543  1.5949 -2.4490
21696SOL    HW273867  12.403   1.532   0.704 -0.4665 -2.8057  0.1923
21697SOL     OW73868   5.242  11.442   3.467 -0.3903  0.0110 -0.1359
21697SOL    HW173869   5.261  11.535   3.454  1.0610 -0.5141 -2.4325
21697SOL    HW273870   5.258  11.427   3.560  0.6544  1.7804  0.0211
21698SOL     OW73871   7.565   0.098  10.517 -0.5827  0.6117  0.0707
21698SOL    HW173872   7.503   0.166  10.545 -1.5760  0.1256 -0.8539
21698SOL    HW273873   7.535   0.019  10.562 -0.6376  0.3736 -0.3830
21699SOL     OW73874   2.404   6.771   7.607 -0.2400 -0.2761  0.1967
21699SOL    HW173875   2.406   6.694   7.664 -1.4899 -1.4441 -1.2363
21699SOL    HW273876   2.493   6.779   7.575  0.0704 -0.7000  0.9315
21700SOL     OW73877  11.805  10.828   6.335  0.7466  0.8251  0.8669
21700SOL    HW173878  11.781  10.823   6.427  0.8505  0.0064  0.8577
21700SOL    HW273879  11.727  10.800   6.288  0.7020  1.2174  0.7057
21701SOL     OW73880  11.035   9.578   6.841  0.3416 -0.1192 -0.3184
21701SOL    HW173881  11.062   9.662   6.879 -0.3120  0.9169 -2.0161
21701SOL    HW273882  10.949   9.562   6.878  0.8057 -0.4748  0.6378
21702SOL     OW73883  11.056   1.491   7.674 -0.1446  0.2221 -0.2563
21702SOL    HW173884  11.101   1.545   7.610  1.3374 -0.1350  0.4419
21702SOL    HW273885  10.964   1.518   7.668  0.3208  1.7516 -0.9570
21703SOL     OW73886   1.838   0.669   0.951 -0.0827  0.0600 -0.6781
21703SOL    HW173887   1.795   0.583   0.944 -0.1297 -0.2131  2.0228
21703SOL    HW273888   1.775   0.730   0.914 -1.2709 -0.7618 -0.0768
21704SOL     OW73889   0.016   2.152   8.482 -0.6805 -0.3601 -0.2085
21704SOL    HW173890   0.081   2.201   8.532 -0.0191  1.2538 -2.5107
21704SOL    HW273891  -0.060   2.148   8.540  0.5755 -0.0669  1.5530
21705SOL     OW73892   5.621   9.122   4.611  0.2763  0.1207 -0.0931
21705SOL    HW173893   5.553   9.054   4.612 -0.3427  0.6980 -0.8393
21705SOL    HW273894   5.585   9.190   4.554  0.5529  1.4141  1.2103
21706SOL     OW73895  10.098   0.068   2.037 -0.0613  0.0203 -0.8083
21706SOL    HW173896  10.030   0.002   2.048 -0.4378  0.6315  0.7503
21706SOL    HW273897  10.073   0.116   1.958 -1.5917  0.3885 -0.1287
21707SOL     OW73898   3.307   0.889   4.888 -0.1345 -0.2443  0.0002
21707SOL    HW173899   3.317   0.794   4.889  1.4085 -0.1539  2.9799
21707SOL    HW273900   3.392   0.923   4.915 -0.5836  2.0416 -1.2121
21708SOL     OW73901   0.826   1.210   5.675  0.2965  0.0130  0.0628
21708SOL    HW173902   0.907   1.160   5.671  2.2516  2.8402  0.8648
21708SOL    HW273903   0.784   1.182   5.757 -0.1258 -2.1725 -0.8361
21709SOL     OW73904   4.780   8.547   4.752  0.3995 -0.6584 -0.4056
21709SOL    HW173905   4.843   8.521   4.819 -0.6380  1.0943  1.3847
21709SOL    HW273906   4.797   8.640   4.739  0.1403 -0.8241 -2.1571
21710SOL     OW73907   8.422  11.120   9.785  0.3204  0.0753  0.2851
21710SOL    HW173908   8.375  11.066   9.722 -0.4699 -0.3726  1.2384
21710SOL    HW273909   8.509  11.082   9.789 -0.0936 -0.8536  0.6102
21711SOL     OW73910   1.071   4.957   3.803  0.3544  0.4556  0.2349
21711SOL    HW173911   1.119   4.876   3.823 -0.2485 -0.2225 -0.9926
21711SOL    HW273912   1.119   4.995   3.730 -1.4313 -0.7010 -1.6292
21712SOL     OW73913   6.515   5.486   3.121 -0.3729 -0.1307  0.3163
21712SOL    HW173914   6.516   5.531   3.037 -0.9437  2.7223  1.7163
21712SOL    HW273915   6.607   5.483   3.148 -0.4350  1.7456  0.8906
21713SOL     OW73916   9.259   7.601   0.801  0.0389 -0.2153 -0.4196
21713SOL    HW173917   9.220   7.688   0.794 -0.9010 -0.7009 -1.6920
21713SOL    HW273918   9.193   7.549   0.848  0.3337 -0.3853 -0.1895
21714SOL     OW73919   7.445   5.751   7.258  0.3130  0.1736  0.1127
21714SOL    HW173920   7.356   5.732   7.228  0.0804 -1.4390  1.6653
21714SOL    HW273921   7.484   5.666   7.275  1.4739  0.8989  1.3140
21715SOL     OW73922  11.616   6.917   3.397 -0.0553  0.1120 -0.4921
21715SOL    HW173923  11.690   6.897   3.454  0.3304 -0.7019 -1.2703
21715SOL    HW273924  11.618   7.013   3.389  0.5602  0.1430 -0.0485
21716SOL     OW73925   8.937  12.302   6.497 -0.1944 -0.6259 -0.3286
21716SOL    HW173926   8.898  12.225   6.455  0.3771 -1.2711  0.2881
21716SOL    HW273927   8.913  12.294   6.589  0.9332 -0.7549 -0.0318
21717SOL     OW73928   5.511   4.532  11.434  0.4628 -0.1088 -1.0711
21717SOL    HW173929   5.572   4.547  11.507  0.3236  0.2863 -1.0331
21717SOL    HW273930   5.543   4.452  11.393  0.7373 -0.1580 -0.7719
21718SOL     OW73931  12.467   2.216   1.131  0.2427  0.1245  0.0484
21718SOL    HW173932  12.411   2.206   1.054  0.3455  1.9049 -0.3130
21718SOL    HW273933  12.540   2.156   1.117 -1.2602 -1.8526  0.2731
21719SOL     OW73934   5.352  11.861   2.206 -0.3563  0.4241 -0.1074
21719SOL    HW173935   5.440  11.848   2.242 -0.9078 -0.0815  1.0981
21719SOL    HW273936   5.294  11.816   2.267 -1.3496 -0.3988 -1.6047
21720SOL     OW73937   1.330   8.817   9.834  0.5973  0.2328 -0.1708
21720SOL    HW173938   1.353   8.904   9.868 -0.9907  0.6604 -0.1047
21720SOL    HW273939   1.294   8.834   9.747  0.0842 -0.3403 -0.0725
21721SOL     OW73940  12.331   1.199   6.708 -0.1942  0.2636  0.1691
21721SOL    HW173941  12.270   1.256   6.661  1.3319  0.3915 -1.8189
21721SOL    HW273942  12.287   1.114   6.711 -1.0697  0.7026  0.0850
21722SOL     OW73943   2.885   5.774   1.881 -0.3626  0.0145  0.2273
21722SOL    HW173944   2.977   5.747   1.873 -0.5931 -1.0270  0.8866
21722SOL    HW273945   2.845   5.747   1.798 -0.1380  0.1763  0.0674
21723SOL     OW73946   3.584   0.777   8.475  0.0461  0.5087  0.3172
21723SOL    HW173947   3.609   0.728   8.554  0.2118 -1.3983 -0.8513
21723SOL    HW273948   3.667   0.807   8.439  0.1716 -0.5273 -0.2867
21724SOL     OW73949  11.585   9.251   3.397  0.3058 -0.2622  0.2281
21724SOL    HW173950  11.670   9.290   3.377  0.4233 -1.1234 -1.1230
21724SOL    HW273951  11.551   9.224   3.312 -0.5947 -1.4065  0.9214
21725SOL     OW73952   4.375   3.754  11.589  0.0755  0.1119 -0.6456
21725SOL    HW173953   4.366   3.776  11.682  1.6620 -2.9513  0.3792
21725SOL    HW273954   4.422   3.828  11.551 -0.5205  1.3852  0.9965
21726SOL     OW73955   9.468   0.741   6.120  0.0582 -0.1860  0.3347
21726SOL    HW173956   9.524   0.672   6.154  1.8530  2.0126  2.1991
21726SOL    HW273957   9.519   0.781   6.050 -0.1031  0.4844  0.5948
21727SOL     OW73958   0.762  12.041   8.525  0.2246  0.6352  0.1389
21727SOL    HW173959   0.822  11.978   8.565 -0.0085 -0.2349 -0.8563
21727SOL    HW273960   0.817  12.092   8.465  0.1751  0.5448  0.0156
21728SOL     OW73961   4.591   9.482   3.191  0.0476 -0.0710 -0.0720
21728SOL    HW173962   4.631   9.487   3.278  0.4254 -0.6755 -0.2096
21728SOL    HW273963   4.597   9.390   3.167 -1.8688 -0.2951  0.1042
21729SOL     OW73964  11.871  11.001   7.660 -0.6415 -0.1372 -0.0514
21729SOL    HW173965  11.827  11.042   7.735  0.9300  1.1424  0.2158
21729SOL    HW273966  11.905  11.074   7.609  0.4582 -1.0581 -0.6722
21730SOL     OW73967   7.627   8.734   6.331 -0.0959 -0.2207 -0.0116
21730SOL    HW173968   7.712   8.704   6.363  0.0592  0.0604 -0.1636
21730SOL    HW273969   7.579   8.760   6.409  0.3678  0.6916 -0.0251
21731SOL     OW73970   1.722   1.204   9.880 -0.1735 -0.2763  0.3599
21731SOL    HW173971   1.808   1.174   9.912  0.6382  0.0857 -1.3763
21731SOL    HW273972   1.663   1.131   9.898  0.3658 -0.3399  2.0430
21732SOL     OW73973   5.575   0.334   0.744 -0.1585  0.3917  0.2004
21732SOL    HW173974   5.499   0.280   0.720  0.0404 -0.0200  0.4781
21732SOL    HW273975   5.634   0.273   0.788  1.3863  0.1409 -2.0659
21733SOL     OW73976   5.759   0.861   7.933  0.1215  0.7091  0.3285
21733SOL    HW173977   5.852   0.847   7.952 -0.2328 -2.6556  0.1016
21733SOL    HW273978   5.716   0.861   8.018  0.2749  2.1343  0.4246
21734SOL     OW73979   8.913   5.975   2.166 -0.5458  0.8334 -0.5549
21734SOL    HW173980   8.994   5.973   2.115 -0.6102 -1.4828 -0.6963
21734SOL    HW273981   8.874   5.889   2.151 -1.9100  1.0711  1.2847
21735SOL     OW73982   4.707   4.477   6.195  0.6676  0.1393 -0.2445
21735SOL    HW173983   4.801   4.465   6.200  0.5525 -0.5166  0.6033
21735SOL    HW273984   4.689   4.551   6.253  0.5688 -0.3059  0.3003
21736SOL     OW73985  12.553  10.130  12.344 -0.1661 -0.5246  0.0309
21736SOL    HW173986  12.647  10.147  12.352 -0.0696 -0.0912 -1.6397
21736SOL    HW273987  12.511  10.209  12.377  0.1016 -0.2420 -0.2909
21737SOL     OW73988   2.454   7.928   0.248  0.6738 -0.4328  0.3824
21737SOL    HW173989   2.391   7.857   0.258 -0.5973  0.6554  0.3629
21737SOL    HW273990   2.514   7.918   0.322 -0.7317 -0.3188  1.5876
21738SOL     OW73991   8.989   3.878   9.285  0.4091  0.0849 -0.4572
21738SOL    HW173992   8.970   3.918   9.370  0.8196 -0.8607  0.0953
21738SOL    HW273993   9.062   3.819   9.302 -0.2781 -1.0226 -1.2036
21739SOL     OW73994   8.388   2.696  12.054  0.0565  0.2465 -0.0715
21739SOL    HW173995   8.344   2.612  12.040 -2.1328  1.2549  0.2385
21739SOL    HW273996   8.449   2.680  12.126 -1.9404 -0.6052  1.5369
21740SOL     OW73997   1.958   0.321   9.113  0.5954 -0.4664 -0.4224
21740SOL    HW173998   1.947   0.319   9.018  0.7799 -0.3652 -0.4475
21740SOL    HW273999   1.926   0.236   9.142  0.6055 -0.5274 -0.5846
21741SOL     OW74000   1.306   7.270   5.366 -0.0353 -0.2065 -0.5731
21741SOL    HW174001   1.332   7.361   5.352 -1.8452  0.5023  0.2761
21741SOL    HW274002   1.384   7.228   5.402  0.7985  1.0427 -0.8545
21742SOL     OW74003   2.775  11.633   2.687  0.0098 -0.2474 -0.2615
21742SOL    HW174004   2.804  11.627   2.778 -0.9278 -1.8379 -0.0210
21742SOL    HW274005   2.699  11.574   2.682 -0.7736  0.8105 -1.7668
21743SOL     OW74006   5.110   6.197   0.254 -0.3283 -0.2080 -0.1116
21743SOL    HW174007   5.104   6.275   0.310  0.3889 -0.4053  0.2529
21743SOL    HW274008   5.203   6.183   0.242 -0.4739 -0.2551 -1.2656
21744SOL     OW74009   6.289   9.348   7.672 -0.0020  0.4254 -0.2099
21744SOL    HW174010   6.370   9.352   7.722 -1.2741  1.6050  1.9023
21744SOL    HW274011   6.220   9.339   7.738 -1.6613  0.4411 -1.8622
21745SOL     OW74012   9.952   2.612   3.014  0.3459 -0.2879 -0.3305
21745SOL    HW174013   9.952   2.584   2.922 -0.2627 -1.1567 -0.0777
21745SOL    HW274014  10.030   2.571   3.052 -0.0103 -0.8516 -0.1970
21746SOL     OW74015   7.909   5.472  11.835  0.6920 -0.2266  0.3725
21746SOL    HW174016   7.990   5.512  11.866  1.2934  1.9624 -3.4247
21746SOL    HW274017   7.933   5.431  11.751 -1.7950 -0.9887 -0.0395
21747SOL     OW74018   9.176  11.491   0.406  0.3351  0.0111 -0.0166
21747SOL    HW174019   9.083  11.493   0.429  0.5681 -0.4384  1.0021
21747SOL    HW274020   9.215  11.562   0.457  0.6762 -0.2739  0.1243
21748SOL     OW74021   2.211   2.052  12.335 -0.6596 -0.2490  0.5985
21748SOL    HW174022   2.122   2.068  12.367 -0.3736  0.8955  0.8461
21748SOL    HW274023   2.206   1.966  12.294 -1.7122 -0.5066  1.2298
21749SOL     OW74024   9.760   3.710   9.771 -0.4268 -0.3799  0.0654
21749SOL    HW174025   9.826   3.695   9.704 -0.8653  1.2800 -0.7925
21749SOL    HW274026   9.799   3.774   9.830 -0.7355 -0.4714  0.3761
21750SOL     OW74027  11.803   9.013  12.575  0.0505 -0.2593 -0.4478
21750SOL    HW174028  11.750   8.937  12.599  0.8934 -0.6659  0.1743
21750SOL    HW274029  11.777   9.033  12.485 -0.6109 -0.9163 -0.4086
21751SOL     OW74030   5.922   1.448   8.690  0.4614 -0.5625 -0.1757
21751SOL    HW174031   6.010   1.486   8.681  0.1713  0.1285 -0.1916
21751SOL    HW274032   5.912   1.431   8.783  0.3484  0.0153 -0.0809
21752SOL     OW74033  12.595  10.782   1.612 -0.0891  0.1082  0.5081
21752SOL    HW174034  12.566  10.752   1.699  1.6651 -0.4073  0.9430
21752SOL    HW274035  12.529  10.846   1.587 -0.3903  0.6382  2.4432
21753SOL     OW74036   9.278   5.144  10.250  0.3861 -0.3872  0.2241
21753SOL    HW174037   9.353   5.137  10.190  0.2522  0.8484 -0.1017
21753SOL    HW274038   9.202   5.151  10.193  0.2424  0.6305  0.5204
21754SOL     OW74039   2.987   3.860   7.074 -0.5955 -0.1190  0.0666
21754SOL    HW174040   2.904   3.865   7.120  0.7011  0.8714  2.4671
21754SOL    HW274041   3.051   3.838   7.141  1.0366 -1.6168 -1.8247
21755SOL     OW74042   9.628   2.177   7.391 -0.0633  0.1433  0.7971
21755SOL    HW174043   9.680   2.102   7.362 -2.5513 -1.5960  0.6039
21755SOL    HW274044   9.583   2.208   7.313 -0.6624  0.5298  1.2877
21756SOL     OW74045   5.763  10.699   9.847 -0.2864 -0.1270  0.5290
21756SOL    HW174046   5.682  10.654   9.824  0.3348 -1.2169  0.4082
21756SOL    HW274047   5.832  10.652   9.800  0.5487  0.0732  1.4882
21757SOL     OW74048   2.692  11.127   1.932  0.0225 -0.0859  0.0272
21757SOL    HW174049   2.768  11.182   1.954  0.9004 -1.6712  1.1804
21757SOL    HW274050   2.617  11.187   1.936  0.9814  1.1148  0.8078
21758SOL     OW74051   8.301   1.770   5.447 -0.1526  0.1960  0.0172
21758SOL    HW174052   8.372   1.780   5.384 -0.0686  0.2054  0.1139
21758SOL    HW274053   8.297   1.675   5.463 -0.4943  0.1410 -0.3706
21759SOL     OW74054   3.921   8.319   0.681  0.5541 -0.5636  0.0366
21759SOL    HW174055   3.905   8.299   0.589  2.3863 -1.0729 -0.2080
21759SOL    HW274056   3.925   8.415   0.685  0.0852 -0.5261 -0.3281
21760SOL     OW74057   0.218  10.783  12.107 -0.6802 -0.5088 -0.5483
21760SOL    HW174058   0.267  10.742  12.036  1.9173  1.1854  0.1323
21760SOL    HW274059   0.230  10.877  12.094 -1.7714 -0.0922  1.0516
21761SOL     OW74060   3.925   7.850  10.253 -0.1174  0.0015  0.0215
21761SOL    HW174061   4.002   7.876  10.304 -0.0915  0.4689 -0.2491
21761SOL    HW274062   3.857   7.913  10.279 -0.0167  0.4353 -0.7504
21762SOL     OW74063   8.133   5.984   7.929 -0.5725 -0.5257  0.1991
21762SOL    HW174064   8.070   6.036   7.977 -0.7497  0.3976 -0.9953
21762SOL    HW274065   8.091   5.898   7.919 -1.0204 -0.3619  0.6735
21763SOL     OW74066   0.169   8.452   6.045  0.4295  0.1596  0.2843
21763SOL    HW174067   0.252   8.480   6.084  0.1020  1.2970  0.1956
21763SOL    HW274068   0.188   8.366   6.009  1.4601  0.2216  0.6427
21764SOL     OW74069   4.220   0.435   4.996  0.1792  0.2024  0.0915
21764SOL    HW174070   4.158   0.413   5.065 -0.8135  1.6929 -0.2808
21764SOL    HW274071   4.302   0.392   5.022 -1.1743 -2.5109  0.1575
21765SOL     OW74072   1.982   5.120   6.029 -0.1470  0.3468 -0.1675
21765SOL    HW174073   1.972   5.064   6.105  0.7727 -0.7010 -0.7853
21765SOL    HW274074   2.047   5.076   5.975 -1.7629  0.3359 -2.2201
21766SOL     OW74075  11.765   2.660  10.246 -0.5650  0.5039  0.0132
21766SOL    HW174076  11.725   2.611  10.317  1.1110  0.5379  1.0312
21766SOL    HW274077  11.843   2.700  10.285  1.4429 -0.9520 -2.2445
21767SOL     OW74078  12.137   2.432   6.595  0.1665 -0.4525 -0.2187
21767SOL    HW174079  12.183   2.438   6.679 -0.3156  3.0291 -0.0369
21767SOL    HW274080  12.045   2.447   6.617  0.0957  1.0014 -1.3671
21768SOL     OW74081   7.411   4.577   9.071  0.3478  0.0419 -0.1801
21768SOL    HW174082   7.451   4.660   9.046  0.3836  0.5830  1.5277
21768SOL    HW274083   7.351   4.600   9.142  1.6858 -1.5893  1.5792
21769SOL     OW74084   7.781   5.339   6.082 -0.1009 -0.4598  0.2861
21769SOL    HW174085   7.835   5.271   6.121  2.1503  0.9222 -0.2822
21769SOL    HW274086   7.789   5.414   6.142 -0.9025 -0.0093 -0.1393
21770SOL     OW74087  11.900   8.680   0.199  0.8811  0.0436 -0.4411
21770SOL    HW174088  11.936   8.766   0.178 -0.3363  0.1059 -2.6590
21770SOL    HW274089  11.974   8.631   0.236  2.5176  1.0284 -2.2098
21771SOL     OW74090   5.976   2.702   9.677  0.5885  0.1435  0.3300
21771SOL    HW174091   5.985   2.761   9.752  0.0696  0.7373 -0.0637
21771SOL    HW274092   6.003   2.616   9.710  1.2965  0.5837  0.9298
21772SOL     OW74093  12.405  12.150  12.291 -0.1253  0.6882  0.4342
21772SOL    HW174094  12.477  12.087  12.290 -0.6565  0.0575 -0.3602
21772SOL    HW274095  12.446  12.235  12.276  0.4994  0.3864  0.4402
21773SOL     OW74096   2.418   5.957   1.586 -0.1199 -0.2527  0.2969
21773SOL    HW174097   2.509   5.954   1.615  0.2543 -2.1657 -0.8953
21773SOL    HW274098   2.388   5.866   1.591 -1.9513  0.3258  0.5779
21774SOL     OW74099   6.042   4.605   7.443  0.2893 -0.0093  0.1696
21774SOL    HW174100   6.088   4.636   7.364 -1.7253 -1.1901 -1.5731
21774SOL    HW274101   5.975   4.546   7.410 -0.7309 -0.4669  2.8138
21775SOL     OW74102   5.985   8.123   7.773 -0.4063  0.1876 -0.7207
21775SOL    HW174103   5.902   8.082   7.748 -0.0609 -0.5851 -0.6336
21775SOL    HW274104   6.038   8.118   7.693 -0.3428  0.4167 -0.6924
21776SOL     OW74105  10.251   5.628   1.473 -0.9859  0.6539 -0.5422
21776SOL    HW174106  10.256   5.539   1.438 -2.1321  0.6427 -0.7238
21776SOL    HW274107  10.198   5.619   1.552 -1.6824  1.2666 -0.9276
21777SOL     OW74108   5.909   3.481   0.824 -0.4289 -0.7622 -0.3819
21777SOL    HW174109   6.003   3.494   0.817 -0.0863 -0.6664  2.9034
21777SOL    HW274110   5.898   3.424   0.900 -3.0410 -0.6049 -0.5334
21778SOL     OW74111   4.193  10.902   5.177  0.2728 -0.4319  0.5758
21778SOL    HW174112   4.223  10.905   5.086 -0.2447  0.0805  0.4131
21778SOL    HW274113   4.232  10.980   5.218  1.2389 -1.1322  1.0433
21779SOL     OW74114   3.767   5.832   3.913 -0.7011  0.0457 -0.1435
21779SOL    HW174115   3.742   5.924   3.906 -2.1925 -0.2537  0.8852
21779SOL    HW274116   3.828   5.819   3.841  0.9969  2.2834  0.7875
21780SOL     OW74117  11.232   1.821  11.343 -0.0015  0.2238 -0.4047
21780SOL    HW174118  11.205   1.912  11.356  0.3032  0.5470 -1.8813
21780SOL    HW274119  11.157   1.779  11.302  0.3424  0.1607 -0.9814
21781SOL     OW74120   9.119   3.046   5.338  0.2345  0.1330 -0.0872
21781SOL    HW174121   9.125   3.082   5.249 -1.9100  0.1314 -0.2967
21781SOL    HW274122   9.118   2.952   5.325  0.8115  0.1140  0.0146
21782SOL     OW74123   2.492   4.044   0.368 -0.2394  0.0173  0.6849
21782SOL    HW174124   2.536   4.117   0.412  1.0679 -1.3106  1.6875
21782SOL    HW274125   2.482   4.073   0.277 -0.8614  1.8941  1.3172
21783SOL     OW74126   4.818   4.510   2.636  0.4421  0.2761 -0.0282
21783SOL    HW174127   4.841   4.552   2.718  1.3209  1.4468 -0.8365
21783SOL    HW274128   4.729   4.478   2.649  0.9475 -0.5462  1.7379
21784SOL     OW74129   9.444   9.086   4.128 -0.5166 -0.7689 -0.0318
21784SOL    HW174130   9.386   9.025   4.082  0.5667 -1.7211 -0.1752
21784SOL    HW274131   9.487   9.136   4.058 -1.3022  0.0946  0.0808
21785SOL     OW74132   1.400   1.101   0.936  0.2296 -0.0757 -0.3257
21785SOL    HW174133   1.314   1.078   0.900  0.1444 -0.1703 -0.0629
21785SOL    HW274134   1.431   1.174   0.881 -0.9995  1.4845  0.9319
21786SOL     OW74135   7.366  10.289   1.767 -0.6392  0.7688  0.1210
21786SOL    HW174136   7.397  10.328   1.849  1.4939 -2.0768  0.8096
21786SOL    HW274137   7.324  10.207   1.794 -1.4191  0.5867 -1.5402
21787SOL     OW74138   1.508   3.251  12.606  0.4473  0.5074 -0.2127
21787SOL    HW174139   1.562   3.252  12.685  0.5542  0.5606 -0.2874
21787SOL    HW274140   1.570   3.261  12.534  0.6726 -2.0176 -0.4739
21788SOL     OW74141   5.380   8.858   6.479 -0.5978  0.2339  0.2421
21788SOL    HW174142   5.330   8.933   6.513  0.0675  0.4299  0.7982
21788SOL    HW274143   5.336   8.836   6.397 -0.8451  1.1960  0.1014
21789SOL     OW74144   8.867   6.145   8.667  0.5709  0.2363 -0.6568
21789SOL    HW174145   8.928   6.146   8.740  1.0935  2.8594 -1.0471
21789SOL    HW274146   8.863   6.053   8.641  1.0970 -0.6253  2.0034
21790SOL     OW74147  12.330   9.174   8.063  0.1712 -0.6822  0.2375
21790SOL    HW174148  12.293   9.094   8.026 -0.2045 -0.2209 -0.4159
21790SOL    HW274149  12.415   9.182   8.020 -1.1879  1.0728 -2.4169
21791SOL     OW74150   5.922   8.262   0.614  0.0420  0.4227  0.1296
21791SOL    HW174151   5.999   8.312   0.638  1.8652 -1.8061 -0.6530
21791SOL    HW274152   5.925   8.184   0.670 -0.2598 -0.8537 -1.5480
21792SOL     OW74153   8.642   6.109  10.209  0.0220 -0.2801  0.0921
21792SOL    HW174154   8.620   6.201  10.190  1.5368 -0.2541 -1.9475
21792SOL    HW274155   8.724   6.114  10.258  0.9345 -0.5130 -1.3405
21793SOL     OW74156   0.234   1.641  11.889 -0.2929 -0.4358 -0.1519
21793SOL    HW174157   0.185   1.664  11.809 -0.8419 -0.4904  0.1628
21793SOL    HW274158   0.319   1.683  11.878 -0.3183 -0.5382 -0.8221
21794SOL     OW74159   6.301  10.612   0.734 -0.0001 -0.0458  0.0627
21794SOL    HW174160   6.359  10.637   0.805  0.3243  1.3884 -0.6728
21794SOL    HW274161   6.291  10.691   0.681 -2.1865 -0.3976 -0.1552
21795SOL     OW74162   0.971   4.748   0.179 -0.0690  0.0262 -0.0458
21795SOL    HW174163   1.018   4.795   0.248  2.0791 -1.3773 -0.4762
21795SOL    HW274164   1.039   4.707   0.126 -1.7695 -2.5911 -0.4043
21796SOL     OW74165   3.453  10.850   0.782  0.2472  0.6440  0.6249
21796SOL    HW174166   3.390  10.797   0.734  0.6238 -0.1976  1.0293
21796SOL    HW274167   3.472  10.924   0.724  0.6742 -0.3316 -0.5081
21797SOL     OW74168   2.531  10.354   3.226  0.1884 -0.1337  0.2941
21797SOL    HW174169   2.442  10.339   3.195  0.0590  1.0300  0.0425
21797SOL    HW274170   2.549  10.281   3.284 -0.4390 -1.0916 -0.6825
21798SOL     OW74171  11.291   6.996   0.414  0.0831  0.2280 -0.5123
21798SOL    HW174172  11.379   7.003   0.376  0.7008  0.5755  0.9002
21798SOL    HW274173  11.285   6.905   0.442 -0.2315  0.0630 -1.1078
21799SOL     OW74174   2.419   1.501  11.905 -0.0567 -0.5869 -0.9859
21799SOL    HW174175   2.444   1.414  11.935  0.7824  0.1379  0.4928
21799SOL    HW274176   2.494   1.531  11.853  0.6122  0.1103  0.3487
21800SOL     OW74177   5.110   8.475   0.596 -0.3139 -0.2647  0.5363
21800SOL    HW174178   5.101   8.408   0.528 -0.4405 -0.8473  1.1271
21800SOL    HW274179   5.023   8.481   0.635 -0.0514 -0.4840  1.1657
21801SOL     OW74180   3.134   9.384   3.372 -0.4029 -0.3802 -0.0508
21801SOL    HW174181   3.130   9.455   3.436 -0.7921  0.1921 -0.7015
21801SOL    HW274182   3.096   9.421   3.292  1.2804 -0.6566 -1.0171
21802SOL     OW74183   7.277  12.305  10.433  0.3125  0.1576 -0.3332
21802SOL    HW174184   7.217  12.237  10.464 -0.3439 -0.0288 -1.9090
21802SOL    HW274185   7.357  12.258  10.409  1.0008  0.3571  1.3812
21803SOL     OW74186   9.724   7.071   3.089 -0.0240 -0.2149 -0.0065
21803SOL    HW174187   9.643   7.087   3.138 -0.5054 -1.7066 -0.2609
21803SOL    HW274188   9.788   7.129   3.130 -0.2468 -1.8197  2.8870
21804SOL     OW74189   4.405  10.851   5.905 -0.1123  0.4463  0.6253
21804SOL    HW174190   4.313  10.825   5.907 -0.0836  0.3159  0.2817
21804SOL    HW274191   4.431  10.842   5.813  0.3228  0.2072  0.7680
21805SOL     OW74192   0.825   1.133   8.698 -0.1695  0.3733 -0.2155
21805SOL    HW174193   0.893   1.099   8.641  0.7923  0.4227  0.8706
21805SOL    HW274194   0.774   1.056   8.724 -0.9682  0.4262 -1.5637
21806SOL     OW74195   3.795  11.376   0.331 -0.1840  0.9050 -0.5397
21806SOL    HW174196   3.778  11.395   0.423 -0.0115  1.8443 -0.6913
21806SOL    HW274197   3.708  11.368   0.291 -0.2761  1.9165 -0.5670
21807SOL     OW74198   2.665  11.274   6.632  0.0811  0.3982 -0.3370
21807SOL    HW174199   2.649  11.329   6.709  3.2139  2.2684 -0.8624
21807SOL    HW274200   2.668  11.185   6.666  0.5111  1.0936  1.5725
21808SOL     OW74201   1.989   2.450   2.713 -0.3860 -0.1748  0.6293
21808SOL    HW174202   2.069   2.420   2.668 -0.8480 -0.6877  0.1334
21808SOL    HW274203   1.937   2.491   2.643 -0.3092  0.6741  1.0627
21809SOL     OW74204   4.878   1.513  11.301 -0.3012  0.0793 -0.2561
21809SOL    HW174205   4.896   1.573  11.228 -1.4687  0.7038 -0.0620
21809SOL    HW274206   4.922   1.553  11.376  4.2062 -2.4673 -1.1856
21810SOL     OW74207   5.137   8.055   4.248 -0.3469 -0.4940  0.0266
21810SOL    HW174208   5.124   7.961   4.239 -0.5713 -0.3840 -0.8404
21810SOL    HW274209   5.053   8.094   4.226 -0.0541 -0.0566 -0.3464
21811SOL     OW74210   4.793  12.535  10.002 -0.3103  0.1028 -0.4574
21811SOL    HW174211   4.754  12.623  10.000 -0.2645  0.1160 -0.9807
21811SOL    HW274212   4.888  12.551   9.999 -0.2899  0.0451 -0.1469
21812SOL     OW74213   8.725   4.661   1.044  0.0149 -0.6414 -0.1303
21812SOL    HW174214   8.652   4.724   1.042 -0.4654 -1.1774  0.1623
21812SOL    HW274215   8.682   4.575   1.044  0.5834 -0.9838  2.0602
21813SOL     OW74216   1.982  12.007   3.998 -0.1115 -0.0963  0.1893
21813SOL    HW174217   2.057  11.950   3.978 -0.4189 -0.0241 -1.3007
21813SOL    HW274218   1.916  11.983   3.933 -0.2698  1.9054 -0.4470
21814SOL     OW74219   3.339   8.892   7.474  0.4634 -0.2786  0.4259
21814SOL    HW174220   3.259   8.889   7.422  0.3502 -0.6141  0.6158
21814SOL    HW274221   3.367   8.983   7.470 -1.9101  0.7614  3.3049
21815SOL     OW74222   4.226   9.299   7.307 -0.2554  0.2312  0.6063
21815SOL    HW174223   4.289   9.271   7.373  1.9672  1.9899 -0.6634
21815SOL    HW274224   4.242   9.241   7.233 -1.3431 -0.4031  0.8416
21816SOL     OW74225   1.470   8.896   9.227 -0.0736  0.6291  0.0982
21816SOL    HW174226   1.532   8.969   9.230 -0.9502  1.3919  0.1138
21816SOL    HW274227   1.494   8.842   9.302  0.9398  0.5962 -0.2270
21817SOL     OW74228   0.431  10.117  12.062  0.3015  0.2855 -0.1588
21817SOL    HW174229   0.503  10.076  12.015 -0.2101  1.5774 -2.2320
21817SOL    HW274230   0.353  10.092  12.013 -0.3018  1.3660  0.2052
21818SOL     OW74231   2.534   6.034   2.174  0.0357 -0.5436  0.4303
21818SOL    HW174232   2.472   6.057   2.243  1.1477  1.6301  0.7849
21818SOL    HW274233   2.614   6.080   2.197  0.5512 -0.0019 -2.1207
21819SOL     OW74234   7.840   4.963   8.995 -0.0006  0.1180  0.3856
21819SOL    HW174235   7.855   4.945   8.902  1.3448  0.7871  0.4512
21819SOL    HW274236   7.867   5.054   9.006  0.2781 -0.0951  1.5203
21820SOL     OW74237  10.612   6.195   6.930 -0.9053 -0.0518  0.3665
21820SOL    HW174238  10.586   6.273   6.879 -0.1436  0.0514  0.1217
21820SOL    HW274239  10.627   6.228   7.018 -1.1582 -0.0302  0.4025
21821SOL     OW74240   8.058   7.604   4.225  0.3234 -0.2430 -0.2510
21821SOL    HW174241   8.029   7.613   4.315 -0.4613 -1.3347 -0.3766
21821SOL    HW274242   8.147   7.569   4.232 -0.3200 -1.8967  0.1132
21822SOL     OW74243  12.109   2.459   0.728 -0.0588 -0.0862  0.1231
21822SOL    HW174244  12.112   2.506   0.644 -0.4789  0.3308  0.3406
21822SOL    HW274245  12.044   2.390   0.715  0.1568 -0.2643 -0.0173
21823SOL     OW74246  10.045   9.058  11.439  0.3512 -0.6183 -0.2955
21823SOL    HW174247  10.130   9.079  11.478  0.2350 -0.0215 -0.3457
21823SOL    HW274248   9.982   9.071  11.510  0.3739 -1.8033 -0.0466
21824SOL     OW74249   4.152   3.192   4.979 -0.4617 -0.6282  0.3511
21824SOL    HW174250   4.124   3.107   4.944 -1.2705 -0.7006  1.1252
21824SOL    HW274251   4.242   3.201   4.950 -0.7621 -1.1757 -0.8031
21825SOL     OW74252   2.496   1.344   5.901 -0.0495 -0.7081 -0.6773
21825SOL    HW174253   2.434   1.271   5.893 -1.6858  0.5290  0.1461
21825SOL    HW274254   2.460   1.413   5.844  0.6753 -0.0156 -0.3235
21826SOL     OW74255   8.632   6.774   4.012 -0.3593 -0.1568  0.2627
21826SOL    HW174256   8.604   6.808   4.097 -1.2188  0.6937 -0.3370
21826SOL    HW274257   8.612   6.845   3.950  0.7414 -0.5423 -0.5792
21827SOL     OW74258   4.128   7.948   1.806  0.2866 -0.0563  0.0738
21827SOL    HW174259   4.035   7.932   1.816 -0.3657  3.0528 -0.0743
21827SOL    HW274260   4.142   7.956   1.712  0.2766  1.3882  0.1735
21828SOL     OW74261   8.805  11.868   0.738 -0.0291  0.1636 -0.1308
21828SOL    HW174262   8.853  11.821   0.670 -1.9132 -0.9507 -0.7739
21828SOL    HW274263   8.755  11.934   0.691 -1.0881 -0.3942  0.1706
21829SOL     OW74264  10.196   4.450   9.435  0.2332 -1.0483 -0.3601
21829SOL    HW174265  10.117   4.413   9.396 -1.1703  0.1587  1.1669
21829SOL    HW274266  10.167   4.533   9.473  1.8811 -1.2739  1.5625
21830SOL     OW74267   4.997   1.268   8.115 -0.3996  0.2862 -0.5577
21830SOL    HW174268   5.078   1.272   8.064  0.8016 -0.3784  1.1703
21830SOL    HW274269   5.026   1.274   8.206 -2.2671 -0.3919  0.1366
21831SOL     OW74270   3.177   1.360   3.165  0.0521 -0.0150  0.0115
21831SOL    HW174271   3.102   1.334   3.112  0.7233  3.3832 -2.9883
21831SOL    HW274272   3.253   1.331   3.113  0.7440  1.3409  0.2298
21832SOL     OW74273   5.174  11.648   6.507 -0.0770 -0.8792  0.4036
21832SOL    HW174274   5.252  11.595   6.524  1.9669  1.2625 -1.5416
21832SOL    HW274275   5.192  11.732   6.549 -1.3262 -0.3270 -0.1102
21833SOL     OW74276   7.205  10.286   3.102  0.4724 -0.3754 -0.1510
21833SOL    HW174277   7.121  10.311   3.140  0.3923 -0.7414 -0.0813
21833SOL    HW274278   7.182  10.221   3.035  0.6186  0.1842 -0.7533
21834SOL     OW74279   4.740  12.345   4.069  0.0321 -0.1838  0.2326
21834SOL    HW174280   4.688  12.265   4.065 -0.3570  0.0986 -0.6729
21834SOL    HW274281   4.690  12.403   4.127 -0.3312 -0.1593 -0.0958
21835SOL     OW74282  10.720   9.649   4.015 -0.1725  0.2544  0.0619
21835SOL    HW174283  10.735   9.722   4.075 -0.2631 -0.7635  1.3656
21835SOL    HW274284  10.652   9.597   4.058 -0.6681 -0.1890 -1.2256
21836SOL     OW74285   1.019  10.701   6.856  0.2429  0.0584  0.3441
21836SOL    HW174286   1.102  10.659   6.835  0.3468  0.2313  0.4096
21836SOL    HW274287   0.953  10.640   6.823  0.3929 -0.1441  0.4118
21837SOL     OW74288   1.918  11.257   8.971  0.6412  0.3657 -0.2654
21837SOL    HW174289   1.930  11.245   9.065 -1.8598 -2.2743 -0.1423
21837SOL    HW274290   1.990  11.206   8.931  1.1646  0.7260  0.2102
21838SOL     OW74291   7.133   5.506   4.672 -0.1188  0.0865  0.0278
21838SOL    HW174292   7.126   5.416   4.705  0.1492 -0.1008 -0.4136
21838SOL    HW274293   7.047   5.544   4.688  0.0401  0.0319  1.0296
21839SOL     OW74294   6.009   0.758   8.690  0.1591  0.1426  1.0883
21839SOL    HW174295   5.990   0.793   8.602  0.7524 -2.1851 -0.0200
21839SOL    HW274296   6.044   0.833   8.738 -0.9212  1.6790 -0.3892
21840SOL     OW74297   5.284   3.478  10.153  0.2462 -0.3414  0.6461
21840SOL    HW174298   5.275   3.569  10.127 -2.2673 -0.7264 -0.0814
21840SOL    HW274299   5.234   3.471  10.234 -1.5360 -1.4617 -0.4683
21841SOL     OW74300   8.686   2.994   0.099  0.3108  0.5397 -0.5625
21841SOL    HW174301   8.711   3.003   0.006  0.9297 -0.9352 -0.5576
21841SOL    HW274302   8.615   3.058   0.110  1.0089  1.5869 -1.7446
21842SOL     OW74303  12.335   3.479   3.242 -0.3908  0.2058 -0.3147
21842SOL    HW174304  12.366   3.564   3.212 -0.5310  0.0566 -0.9038
21842SOL    HW274305  12.332   3.486   3.337 -0.9752  1.0581 -0.3847
21843SOL     OW74306  11.394   8.775  10.913  0.6718 -0.4027  0.0588
21843SOL    HW174307  11.455   8.821  10.856  1.3611 -1.2311  0.0963
21843SOL    HW274308  11.341   8.722  10.854  0.3300 -0.0784  0.0702
21844SOL     OW74309   8.876   3.307   6.527  0.1878 -0.3152 -0.0689
21844SOL    HW174310   8.913   3.389   6.560 -0.9746 -0.0152  0.5588
21844SOL    HW274311   8.906   3.241   6.589 -1.5724  0.1724  1.4033
21845SOL     OW74312  12.248   8.681   5.952 -0.2808  0.7461 -0.0060
21845SOL    HW174313  12.303   8.628   5.894 -3.0932 -2.0315 -0.3748
21845SOL    HW274314  12.267   8.647   6.040 -0.1189  1.0238  0.0667
21846SOL     OW74315   7.409  12.326   6.790 -0.4198  0.4404 -0.0634
21846SOL    HW174316   7.484  12.323   6.730 -1.0818  0.1595 -0.9033
21846SOL    HW274317   7.430  12.397   6.851  0.4011  0.5555 -0.4595
21847SOL     OW74318   2.213   8.819   5.980 -0.4428 -0.3915  0.2610
21847SOL    HW174319   2.159   8.835   5.902  2.4242  0.2838 -1.7595
21847SOL    HW274320   2.260   8.738   5.960  0.0840 -0.3942  1.4599
21848SOL     OW74321   6.530   1.546  12.324  0.2863 -0.0297 -0.7172
21848SOL    HW174322   6.492   1.509  12.404 -1.3524  0.7573 -1.0859
21848SOL    HW274323   6.587   1.477  12.291 -1.8174 -1.8420 -0.8082
21849SOL     OW74324   9.893   2.172  12.370 -0.1852  0.3261 -0.1609
21849SOL    HW174325   9.987   2.170  12.354 -0.0862 -0.8951  0.4141
21849SOL    HW274326   9.862   2.086  12.342 -1.7829  1.8897 -3.7293
21850SOL     OW74327   6.823  12.281  11.533  0.3114 -0.2878 -0.0956
21850SOL    HW174328   6.742  12.319  11.502  0.5640 -0.8749 -1.5394
21850SOL    HW274329   6.798  12.193  11.564  0.8263 -1.9808 -3.8912
21851SOL     OW74330   2.795   9.064   8.228  0.3929  0.0255 -0.4272
21851SOL    HW174331   2.770   9.128   8.295 -1.5459 -0.7547 -0.3208
21851SOL    HW274332   2.848   8.999   8.275  2.4169  1.5252 -0.5503
21852SOL     OW74333   9.521   3.476  10.553 -0.1750 -0.0970 -0.1290
21852SOL    HW174334   9.537   3.390  10.514  1.6034  0.1867 -0.1143
21852SOL    HW274335   9.430   3.495  10.532 -0.5193 -1.8432 -0.3975
21853SOL     OW74336   1.807   4.647   7.628 -0.0737 -0.4051  0.4839
21853SOL    HW174337   1.718   4.681   7.622 -0.0172 -0.1762  0.9008
21853SOL    HW274338   1.858   4.718   7.667  0.4561 -0.2533 -0.4662
21854SOL     OW74339  10.068  12.467   4.296 -0.6343 -0.2182  0.3141
21854SOL    HW174340  10.103  12.445   4.210 -3.1793 -0.9140 -0.5983
21854SOL    HW274341  10.096  12.558   4.310 -1.3526  0.4059 -1.9034
21855SOL     OW74342   9.283   1.370   8.289  0.0628  0.0432  0.3139
21855SOL    HW174343   9.331   1.325   8.219 -1.0345  0.2869 -0.6240
21855SOL    HW274344   9.326   1.455   8.296  2.5381 -1.2152  2.4998
21856SOL     OW74345   1.538   0.326   4.974  0.2346  0.0395  0.0844
21856SOL    HW174346   1.526   0.418   4.948  0.6281 -0.2160 -1.0528
21856SOL    HW274347   1.480   0.315   5.050  0.0605  1.1792  0.1404
21857SOL     OW74348  11.300   6.257  11.336 -0.1221 -0.2178  0.2670
21857SOL    HW174349  11.289   6.307  11.418 -0.3094  1.9049 -0.9698
21857SOL    HW274350  11.229   6.288  11.280  0.0028 -1.6354 -0.7060
21858SOL     OW74351   5.707   7.226   7.669  0.3403  0.3438  0.7447
21858SOL    HW174352   5.743   7.220   7.580  1.6112  3.5063  0.8909
21858SOL    HW274353   5.627   7.279   7.658  0.4592  0.6767  1.4430
21859SOL     OW74354   4.951   7.202   9.820  0.3087  0.1115  0.5565
21859SOL    HW174355   4.984   7.235   9.904  1.1808  2.3228 -0.5807
21859SOL    HW274356   5.029   7.188   9.767 -0.3023  0.3838 -0.4381
21860SOL     OW74357   5.141   2.733   3.160 -0.0377  0.3519 -0.6895
21860SOL    HW174358   5.196   2.806   3.134 -0.5193  0.5729 -1.1040
21860SOL    HW274359   5.083   2.769   3.227  1.4387 -0.3031  1.0262
21861SOL     OW74360  12.295   1.693   3.836 -0.0766 -0.6114  0.0263
21861SOL    HW174361  12.373   1.670   3.887  0.7509 -1.6779 -1.6424
21861SOL    HW274362  12.297   1.789   3.832  0.2165 -0.5411  1.3875
21862SOL     OW74363  11.790   5.824   7.090  0.3062  0.2213  0.4539
21862SOL    HW174364  11.875   5.790   7.064 -0.7036 -0.9628 -1.4945
21862SOL    HW274365  11.736   5.818   7.012 -1.3839  1.6565  1.4279
21863SOL     OW74366   9.468   1.924   9.754  0.4174  0.4227 -0.0965
21863SOL    HW174367   9.376   1.899   9.747  0.0489  1.2434  1.2884
21863SOL    HW274368   9.506   1.860   9.815  0.4295  0.8430  0.3479
21864SOL     OW74369   0.429   7.905   9.150  0.0504 -0.1749 -0.4711
21864SOL    HW174370   0.349   7.895   9.098  0.0928 -0.6132 -0.4561
21864SOL    HW274371   0.398   7.902   9.241  0.2313 -1.7242 -0.4443
21865SOL     OW74372   0.501   4.679   1.807  0.4341  0.0794 -0.3457
21865SOL    HW174373   0.408   4.684   1.789  0.0649 -0.7530  1.1239
21865SOL    HW274374   0.506   4.657   1.900  2.0886 -0.0154 -0.4261
21866SOL     OW74375   4.999  11.520  10.719 -0.4020  0.3944  0.4293
21866SOL    HW174376   5.084  11.538  10.680 -0.4048  0.3484  0.4010
21866SOL    HW274377   4.955  11.463  10.656 -1.5144  2.5389 -0.8446
21867SOL     OW74378   0.535   1.510   4.655 -0.0905  0.0389  0.4180
21867SOL    HW174379   0.546   1.419   4.683  0.5937 -0.3773 -1.0812
21867SOL    HW274380   0.541   1.561   4.735 -1.2847 -1.2835  1.3915
21868SOL     OW74381   5.189   4.336  10.704  0.5487  0.0699 -0.5756
21868SOL    HW174382   5.246   4.272  10.747 -0.5830 -0.4414  0.2089
21868SOL    HW274383   5.158   4.392  10.775 -0.6313 -0.2238 -0.8365
21869SOL     OW74384   5.216   0.816   9.727  0.0946 -0.4363  0.4203
21869SOL    HW174385   5.136   0.766   9.709 -0.6867  0.9567 -0.1336
21869SOL    HW274386   5.202   0.854   9.814  0.0652 -0.0588  0.2551
21870SOL     OW74387  11.430   3.947   0.872  0.3172 -0.2907 -0.3665
21870SOL    HW174388  11.448   3.855   0.894  1.6608  0.2904  1.2458
21870SOL    HW274389  11.354   3.970   0.925  2.2583  0.4988  2.3215
21871SOL     OW74390   7.176   1.004   9.316  0.0922 -0.3300 -0.3310
21871SOL    HW174391   7.233   0.971   9.386 -0.5438  0.9890  0.8507
21871SOL    HW274392   7.137   1.083   9.352  0.8955  1.2810 -2.7313
21872SOL     OW74393  11.597   9.530   9.951 -0.3846  0.0348  0.1590
21872SOL    HW174394  11.525   9.506   9.893 -0.3370  0.3939 -0.0547
21872SOL    HW274395  11.655   9.454   9.950  0.0443  0.3497 -0.9387
21873SOL     OW74396   5.111  10.482   8.919  0.2953  0.2673 -1.1138
21873SOL    HW174397   5.083  10.481   8.827  1.2103  1.4950 -1.4365
21873SOL    HW274398   5.118  10.575   8.940  1.0242 -0.0118 -0.0881
21874SOL     OW74399   1.321   3.544  10.291 -0.0062  0.2774 -0.0640
21874SOL    HW174400   1.233   3.560  10.325  0.6724  1.2793  1.2886
21874SOL    HW274401   1.357   3.476  10.347 -0.5457 -1.5331 -1.7942
21875SOL     OW74402   3.945   2.767   8.738 -0.3001 -0.0378 -0.5793
21875SOL    HW174403   3.927   2.686   8.690 -1.9447  0.5486 -1.0221
21875SOL    HW274404   3.914   2.749   8.827  1.9716 -0.8342  0.1100
21876SOL     OW74405   4.964   9.556  11.952 -0.0929  0.0193  0.0147
21876SOL    HW174406   4.906   9.631  11.939 -0.2214 -0.2935 -1.3647
21876SOL    HW274407   4.962   9.509  11.868  3.0236  0.5938 -0.5122
21877SOL     OW74408   0.623   6.684  10.862 -0.1257 -0.2071  0.5580
21877SOL    HW174409   0.587   6.597  10.843  0.4428 -0.1350 -0.9789
21877SOL    HW274410   0.716   6.675  10.844 -0.2840  1.1042 -1.1670
21878SOL     OW74411  10.103   0.650   2.628 -0.2308  0.2969  0.0811
21878SOL    HW174412  10.064   0.710   2.564  1.3061 -0.4551 -1.6312
21878SOL    HW274413  10.196   0.671   2.627  0.1272 -1.1825  0.4991
21879SOL     OW74414   9.578   4.753   8.533 -0.2324  0.3716  0.7032
21879SOL    HW174415   9.590   4.821   8.467  1.3352 -0.3681  0.1865
21879SOL    HW274416   9.511   4.695   8.497 -0.0545  0.4896  0.1823
21880SOL     OW74417   8.667   8.591   0.582 -0.1096  0.8162  0.1278
21880SOL    HW174418   8.694   8.546   0.502  1.2157  1.1405  0.3764
21880SOL    HW274419   8.739   8.577   0.643 -0.7706  1.2196  1.0248
21881SOL     OW74420   3.877   2.282   1.017  0.2196  0.5719  0.5427
21881SOL    HW174421   3.931   2.231   0.957  1.8958 -0.2454  2.5967
21881SOL    HW274422   3.809   2.221   1.046  0.5723  0.3494  0.9145
21882SOL     OW74423   6.117   1.663  11.601  0.1068 -0.0027 -0.1152
21882SOL    HW174424   6.158   1.736  11.554  0.1473  0.3907  0.5213
21882SOL    HW274425   6.167   1.655  11.682 -1.2700  0.7240  0.8530
21883SOL     OW74426  10.101   6.032  12.309 -0.5198  0.2741  0.6714
21883SOL    HW174427  10.194   6.050  12.300 -0.5767  0.0584 -0.5390
21883SOL    HW274428  10.057   6.112  12.281 -0.7100 -0.4157 -1.1686
21884SOL     OW74429   3.843   7.532   4.093  0.5192 -0.0335  0.1515
21884SOL    HW174430   3.800   7.451   4.118  0.3145  0.6463  2.1988
21884SOL    HW274431   3.936   7.516   4.108  0.2235  1.2993  4.7249
21885SOL     OW74432   0.195   4.092   6.040 -0.4207 -0.3386  0.0620
21885SOL    HW174433   0.251   4.100   5.963  0.6237 -0.3136  0.7985
21885SOL    HW274434   0.233   4.153   6.103 -1.6409  0.1022  0.3836
21886SOL     OW74435   3.561   5.412  11.452  0.2791 -0.2226  0.5859
21886SOL    HW174436   3.647   5.449  11.473 -0.6240  1.6423  1.2003
21886SOL    HW274437   3.559   5.412  11.356  0.5043  0.9065  0.5659
21887SOL     OW74438   6.668   2.384   4.589 -0.2648  0.2910  0.2970
21887SOL    HW174439   6.674   2.478   4.606 -1.2375  0.1899  1.3288
21887SOL    HW274440   6.657   2.344   4.675  1.1892 -0.8854 -0.0212
21888SOL     OW74441  12.248   3.916  11.981 -0.3558  0.4961 -0.3009
21888SOL    HW174442  12.243   3.877  11.893  0.9387 -1.0778  0.2558
21888SOL    HW274443  12.320   3.979  11.974  0.4236 -0.3515 -0.1513
21889SOL     OW74444   0.196   1.262   8.831  0.2884 -0.3437 -0.2770
21889SOL    HW174445   0.170   1.191   8.890  2.2782  0.5782  1.8908
21889SOL    HW274446   0.255   1.220   8.768  0.9983 -0.7566  0.6317
21890SOL     OW74447   5.139   8.370   7.675  0.0937 -0.3141  0.0294
21890SOL    HW174448   5.195   8.310   7.626  1.1268 -0.3129  1.1768
21890SOL    HW274449   5.092   8.419   7.607  0.9994 -0.7649 -0.9488
21891SOL     OW74450   1.579   6.761   0.674  0.6045 -0.2344  0.2175
21891SOL    HW174451   1.594   6.838   0.618  0.8424  0.1482  0.7964
21891SOL    HW274452   1.564   6.797   0.761  0.7625 -0.8466  0.5069
21892SOL     OW74453  11.030  12.279   3.232 -0.6227  0.1705  0.1233
21892SOL    HW174454  11.117  12.307   3.262  0.5759  0.4440 -3.2253
21892SOL    HW274455  10.971  12.311   3.300  1.8879 -0.6334  2.9049
21893SOL     OW74456   4.873   2.459   5.513 -0.1215 -0.5327  0.0664
21893SOL    HW174457   4.945   2.408   5.550 -0.2140 -1.0261 -0.4176
21893SOL    HW274458   4.882   2.545   5.553  0.9944 -0.4551 -0.3061
21894SOL     OW74459   7.936   0.451   7.154  0.5621 -0.1078  0.9041
21894SOL    HW174460   7.907   0.416   7.069  1.2896  2.4280 -0.4945
21894SOL    HW274461   7.856   0.465   7.203 -0.2275  1.6674 -0.7663
21895SOL     OW74462   7.018   0.539   1.002 -0.4234  0.2062  0.5978
21895SOL    HW174463   7.042   0.630   1.022  0.3670  0.7978 -2.6164
21895SOL    HW274464   7.037   0.529   0.909 -0.6898 -3.2314  0.8132
21896SOL     OW74465   2.921   3.114   4.793  0.4100  0.3062  0.6044
21896SOL    HW174466   2.846   3.109   4.734 -0.7693  0.8149  2.0218
21896SOL    HW274467   2.972   3.188   4.759 -1.3453  1.9535  1.3846
21897SOL     OW74468  12.018   0.905   3.307  0.8338 -0.4617 -0.1640
21897SOL    HW174469  12.022   0.967   3.234  0.7611 -0.2642 -0.0022
21897SOL    HW274470  12.103   0.860   3.305 -0.0669 -2.2180 -1.8884
21898SOL     OW74471  10.091   9.666   1.208  0.2348 -0.2214  0.2391
21898SOL    HW174472  10.038   9.687   1.285 -1.1220 -2.9971  0.2014
21898SOL    HW274473  10.172   9.628   1.244 -0.0599 -0.7839  0.3217
21899SOL     OW74474   5.731   7.121   7.077 -0.2914 -0.2994  0.0662
21899SOL    HW174475   5.676   7.195   7.050 -1.4797 -1.4948 -0.9419
21899SOL    HW274476   5.817   7.141   7.039 -0.3013  1.0383  0.6736
21900SOL     OW74477  12.047   8.208   5.456 -0.3905  0.1878 -0.6387
21900SOL    HW174478  12.013   8.163   5.533 -1.1098  0.3005 -0.8896
21900SOL    HW274479  12.128   8.249   5.487 -0.7951  0.4380  0.1214
21901SOL     OW74480   4.777   5.247   3.499  0.6960  0.3873  0.4701
21901SOL    HW174481   4.851   5.188   3.485  0.4728  0.6784 -2.7097
21901SOL    HW274482   4.712   5.194   3.544  0.9091 -1.5807 -1.3627
21902SOL     OW74483   1.916  11.446   5.380  0.0472 -0.5763 -0.6025
21902SOL    HW174484   1.858  11.396   5.438  0.1524 -2.1719 -1.8050
21902SOL    HW274485   1.916  11.535   5.417 -0.8295 -1.2421  1.1157
21903SOL     OW74486   1.157   3.024   9.664 -0.2694 -0.2991 -0.1673
21903SOL    HW174487   1.137   2.996   9.753 -1.5809  0.7501 -0.1123
21903SOL    HW274488   1.248   3.053   9.669 -0.4078  0.0069  0.8985
21904SOL     OW74489  11.376   5.529   6.325  0.6403 -0.7774  0.0553
21904SOL    HW174490  11.341   5.450   6.367  1.8623 -2.6993 -2.3214
21904SOL    HW274491  11.311   5.552   6.259 -0.1078  0.7679  1.2782
21905SOL     OW74492  10.076   5.838  11.529  0.3943  0.8637  0.2153
21905SOL    HW174493  10.126   5.916  11.505  1.3356 -0.0590 -1.0205
21905SOL    HW274494  10.116   5.808  11.611 -0.8027  2.3358  1.3888
21906SOL     OW74495  11.077  12.314  11.677 -0.1736 -0.2185 -0.2385
21906SOL    HW174496  11.149  12.376  11.661  0.2459 -0.9726 -1.3340
21906SOL    HW274497  11.096  12.240  11.620 -0.4075 -1.5967  1.4064
21907SOL     OW74498   6.619   8.627  10.660 -0.2964 -0.1512  0.1050
21907SOL    HW174499   6.571   8.553  10.696 -0.1449  0.2985  1.2746
21907SOL    HW274500   6.686   8.587  10.604 -0.3175 -0.8903  0.5943
21908SOL     OW74501   2.708   3.394   9.648 -0.1316  0.3633  0.4113
21908SOL    HW174502   2.627   3.434   9.615 -0.3468 -1.4820 -1.5191
21908SOL    HW274503   2.678   3.321   9.702  0.2510  0.4025  0.6796
21909SOL     OW74504   0.849   2.649   8.287  0.9061 -0.1785  0.0423
21909SOL    HW174505   0.878   2.683   8.202 -0.5128  0.0021 -0.3960
21909SOL    HW274506   0.906   2.693   8.351 -1.0535  3.4438 -0.4409
21910SOL     OW74507   3.295   2.699   6.271  0.0916 -0.2283 -0.1428
21910SOL    HW174508   3.347   2.658   6.202 -0.1102 -1.3206  0.3454
21910SOL    HW274509   3.274   2.628   6.331  1.6058  0.9783  1.9250
21911SOL     OW74510   9.257   2.534  11.489  0.3832  0.3158  0.2201
21911SOL    HW174511   9.317   2.508  11.560  1.1148  0.6457 -0.2671
21911SOL    HW274512   9.290   2.487  11.412 -0.2052  0.2237  0.0218
21912SOL     OW74513   3.310   5.235   6.944  0.3193  0.2190 -0.1362
21912SOL    HW174514   3.270   5.319   6.919 -1.3940 -0.7070 -0.7036
21912SOL    HW274515   3.307   5.183   6.863 -0.3481 -0.9976  0.6406
21913SOL     OW74516   2.342   3.284   6.088 -0.0733 -0.1271 -0.3902
21913SOL    HW174517   2.271   3.303   6.150 -0.1833 -3.2588  0.6455
21913SOL    HW274518   2.312   3.319   6.005 -1.4766  1.2323  0.6437
21914SOL     OW74519   1.528  11.375   6.006  0.1310 -0.2290 -0.1494
21914SOL    HW174520   1.599  11.375   6.070 -0.7498  0.4325  0.8524
21914SOL    HW274521   1.564  11.421   5.930  1.0663 -0.7067 -0.0061
21915SOL     OW74522  12.484   3.124   4.406  0.0086 -0.5680 -0.2277
21915SOL    HW174523  12.419   3.060   4.377 -0.3811 -0.0776 -0.4687
21915SOL    HW274524  12.442   3.169   4.479  0.3573 -0.7172  0.0662
21916SOL     OW74525  10.867   0.668   5.659 -0.2348 -0.5928 -0.9101
21916SOL    HW174526  10.934   0.736   5.654 -0.4094 -0.3939 -0.5597
21916SOL    HW274527  10.913   0.587   5.637  0.4087 -0.6517  0.5397
21917SOL     OW74528   7.296   5.998  11.551  0.1731 -0.3669  0.0093
21917SOL    HW174529   7.211   5.968  11.521  0.3954 -2.2163  1.0602
21917SOL    HW274530   7.360   5.951  11.497  0.5469  0.8002 -0.5942
21918SOL     OW74531   4.259  11.494   4.611  0.4085  0.1109  0.2250
21918SOL    HW174532   4.177  11.448   4.631  0.6669 -0.6005 -0.2953
21918SOL    HW274533   4.312  11.428   4.566  1.2096  0.6114  0.4300
21919SOL     OW74534  11.251   7.653  10.633 -0.3422  0.7302  0.5137
21919SOL    HW174535  11.193   7.579  10.651 -2.0837  1.8065 -0.3347
21919SOL    HW274536  11.285   7.679  10.718 -2.6530  1.2256  1.3598
21920SOL     OW74537  12.581   4.589   4.710 -0.1758 -0.2748 -0.5154
21920SOL    HW174538  12.559   4.606   4.618 -0.3544  0.5478 -0.3305
21920SOL    HW274539  12.502   4.612   4.759  0.9997  2.8429  0.1616
21921SOL     OW74540   1.683  11.158   6.480 -0.0492 -0.4435 -0.2135
21921SOL    HW174541   1.664  11.249   6.504 -0.9698 -1.2333  2.3583
21921SOL    HW274542   1.775  11.147   6.502  0.1729 -0.0414 -0.9117
21922SOL     OW74543   6.448   7.013   7.124  0.2065 -0.6624 -0.5184
21922SOL    HW174544   6.526   7.049   7.081  0.4762 -1.0063 -0.3254
21922SOL    HW274545   6.456   6.918   7.112  0.2361 -0.7564  0.2114
21923SOL     OW74546  12.187   3.672  11.018 -0.3560  0.0106 -0.0208
21923SOL    HW174547  12.214   3.755  11.057  0.4864 -0.5857  0.7408
21923SOL    HW274548  12.212   3.606  11.083 -0.6577 -0.8697 -0.7660
21924SOL     OW74549   7.281   3.684   7.804  0.0110  0.3067  0.4434
21924SOL    HW174550   7.245   3.698   7.716  0.9627  0.1058  0.0097
21924SOL    HW274551   7.338   3.608   7.795 -0.9128 -0.5505  1.5512
21925SOL     OW74552   7.286   8.317  10.065  0.0904  0.5004 -0.0274
21925SOL    HW174553   7.264   8.245  10.124  1.8477  0.9865  1.3241
21925SOL    HW274554   7.202   8.354  10.039 -0.7729 -0.3267  1.4446
21926SOL     OW74555   6.953   3.004   3.179 -0.1860  0.4221 -0.4256
21926SOL    HW174556   7.015   3.023   3.250  1.1227 -0.9238 -1.1493
21926SOL    HW274557   7.007   3.001   3.100 -1.6195  1.9086 -1.5245
21927SOL     OW74558   3.639   5.322   1.518 -0.0313  0.1675 -0.1091
21927SOL    HW174559   3.709   5.273   1.562 -0.5652 -1.9403 -1.4736
21927SOL    HW274560   3.570   5.328   1.583  0.5735  0.3767  0.5335
21928SOL     OW74561   4.380  11.199   3.553  0.3309  0.3380 -0.1345
21928SOL    HW174562   4.410  11.127   3.498  2.3612  0.8065  0.2778
21928SOL    HW274563   4.383  11.164   3.642 -0.3266  0.4067 -0.0856
21929SOL     OW74564   7.822   1.965   0.247  0.1349 -0.2681  0.0763
21929SOL    HW174565   7.805   1.916   0.327  1.2999  1.2130  1.3106
21929SOL    HW274566   7.747   2.024   0.238  0.2312 -0.1079  0.3348
21930SOL     OW74567   9.785   6.984   3.422  0.1188  0.6870  0.6085
21930SOL    HW174568   9.695   6.980   3.390 -0.1088 -1.1879  1.3619
21930SOL    HW274569   9.799   6.900   3.466  1.6545  1.6312  2.0620
21931SOL     OW74570   0.962   3.046  11.753 -0.2360  0.1105 -0.4324
21931SOL    HW174571   0.920   3.124  11.716 -0.7397 -1.1206 -2.6269
21931SOL    HW274572   0.898   2.976  11.740  0.9630 -1.0576 -0.2957
21932SOL     OW74573   6.916   0.724   9.209 -0.8297 -0.5518  0.1208
21932SOL    HW174574   6.959   0.739   9.125 -1.3861  1.7731  0.1943
21932SOL    HW274575   6.979   0.755   9.274 -1.4929  0.2530  0.3881
21933SOL     OW74576   6.840   9.837  10.575 -0.0955 -0.2389 -0.3309
21933SOL    HW174577   6.879   9.920  10.603  1.3170 -1.0742  0.2478
21933SOL    HW274578   6.746   9.852  10.582  0.1292  1.3041 -0.2201
21934SOL     OW74579   6.087   7.039   5.432 -0.7035  0.3649  0.6422
21934SOL    HW174580   6.130   7.124   5.423 -0.9744  0.3339 -1.4572
21934SOL    HW274581   5.999   7.060   5.465 -0.1548  0.6952  1.9632
21935SOL     OW74582   6.189   8.473   1.893 -0.1195  0.4420  0.1101
21935SOL    HW174583   6.163   8.527   1.818  0.4451  0.5885  0.0132
21935SOL    HW274584   6.284   8.466   1.885  0.0662  1.2379  1.3380
21936SOL     OW74585  10.418   7.687   1.366 -0.0642 -0.1384 -0.0417
21936SOL    HW174586  10.374   7.750   1.424  0.1127 -0.1742  0.1320
21936SOL    HW274587  10.454   7.622   1.426  0.0623 -0.2117 -0.1991
21937SOL     OW74588   7.936  11.291   2.967 -0.0884 -0.1577  0.2179
21937SOL    HW174589   7.908  11.219   2.910  0.9321  0.6053 -1.3122
21937SOL    HW274590   8.009  11.254   3.017  0.1518 -0.3288 -0.2459
21938SOL     OW74591   2.407   7.080  10.263  0.2529  0.2298 -0.5345
21938SOL    HW174592   2.426   7.078  10.170  0.7029  0.0708 -0.4420
21938SOL    HW274593   2.492   7.090  10.305  0.3688 -2.1543 -0.0475
21939SOL     OW74594   2.936   9.078   2.368  0.2262 -0.2360  1.1317
21939SOL    HW174595   2.874   9.030   2.313  0.3784 -0.8442  1.4808
21939SOL    HW274596   2.889   9.158   2.392  0.4535  0.4399 -0.5399
21940SOL     OW74597  11.199   5.886   1.350 -0.3178 -1.1793 -0.4462
21940SOL    HW174598  11.267   5.917   1.411 -1.0503 -1.1839  0.4004
21940SOL    HW274599  11.147   5.964   1.331 -2.0917 -1.7739  1.5913
21941SOL     OW74600   7.114   2.903   5.381  0.0529  0.2320  0.2987
21941SOL    HW174601   7.029   2.860   5.377  0.6010 -0.8760  0.1941
21941SOL    HW274602   7.134   2.907   5.475  0.8578 -1.5230  0.2310
21942SOL     OW74603  10.728  11.950  10.126  0.1331  0.0267  0.4849
21942SOL    HW174604  10.788  12.012  10.166  0.2777  0.7697 -0.8409
21942SOL    HW274605  10.673  12.002  10.068 -0.2719 -0.9619 -0.0574
21943SOL     OW74606   7.134   9.859   0.187  0.0695 -0.0009  0.1650
21943SOL    HW174607   7.055   9.848   0.133 -1.2019  0.4076  1.8674
21943SOL    HW274608   7.191   9.915   0.134 -1.0811  0.3040 -0.8000
21944SOL     OW74609   9.618   4.687   8.930 -0.1014  0.1854  0.0208
21944SOL    HW174610   9.600   4.612   8.874 -0.0483 -0.1042  0.3846
21944SOL    HW274611   9.706   4.671   8.964 -0.2475  0.2056  0.4169
21945SOL     OW74612   5.671  10.200   7.523 -0.2400  0.3800  0.6306
21945SOL    HW174613   5.588  10.168   7.559 -0.7447 -1.2318 -1.6957
21945SOL    HW274614   5.648  10.281   7.478 -0.6054 -0.1153 -0.0935
21946SOL     OW74615   0.515   8.217   8.881 -0.2282  0.7283 -0.7717
21946SOL    HW174616   0.558   8.276   8.819  0.9813  0.1118 -0.5418
21946SOL    HW274617   0.520   8.131   8.840  1.0515  0.2240  0.3917
21947SOL     OW74618   7.578   5.946   1.329 -0.5747  0.0820 -0.5521
21947SOL    HW174619   7.569   6.041   1.326  0.0415  0.1349 -1.0161
21947SOL    HW274620   7.638   5.931   1.402 -1.7360 -0.0520  0.4067
21948SOL     OW74621  10.598  11.766   1.348 -0.2081 -0.3248 -0.5023
21948SOL    HW174622  10.636  11.681   1.326 -0.9547 -0.7195 -0.3078
21948SOL    HW274623  10.673  11.821   1.371  0.2533 -1.0522 -0.2338
21949SOL     OW74624   0.809   0.598  12.600  0.4114 -0.1184 -0.1312
21949SOL    HW174625   0.781   0.578  12.511  2.2886 -0.3951 -0.6928
21949SOL    HW274626   0.785   0.521  12.651  2.1398 -1.3334 -1.0587
21950SOL     OW74627   4.573  10.579   2.446  0.2787 -0.5913 -0.6652
21950SOL    HW174628   4.490  10.626   2.442 -0.0471 -1.2389 -2.1488
21950SOL    HW274629   4.602  10.572   2.355  1.8349 -0.6122 -0.2037
21951SOL     OW74630   0.821  10.517   9.942 -0.4221 -0.3157 -0.6617
21951SOL    HW174631   0.770  10.579   9.994 -1.2120 -0.7804 -0.8584
21951SOL    HW274632   0.879  10.572   9.889  2.0328  0.1552  2.2297
21952SOL     OW74633   3.668   9.746   1.664 -0.6896  0.3759 -0.1608
21952SOL    HW174634   3.679   9.750   1.759 -1.8039  2.5958 -0.0539
21952SOL    HW274635   3.584   9.701   1.652  0.4913 -1.9712 -0.2716
21953SOL     OW74636   1.377  12.394   6.589  0.7512  0.2828 -0.3080
21953SOL    HW174637   1.298  12.444   6.570 -1.5576 -2.3976  1.4123
21953SOL    HW274638   1.365  12.363   6.679  2.2355 -2.7481 -1.0188
21954SOL     OW74639   8.481   5.138   0.273 -0.1497 -0.0843  0.3409
21954SOL    HW174640   8.465   5.118   0.365  2.2309 -0.2171  0.7981
21954SOL    HW274641   8.437   5.221   0.258  0.0588  0.3136  1.8157
21955SOL     OW74642   4.861   6.505  12.360  0.1218  0.5187 -0.0001
21955SOL    HW174643   4.939   6.487  12.307  0.1969  2.7533 -0.7558
21955SOL    HW274644   4.880   6.590  12.402 -1.1687  0.2204  1.2534
21956SOL     OW74645  10.307  12.230   5.790  0.1441 -0.6201 -0.6706
21956SOL    HW174646  10.400  12.227   5.767  0.0358  0.5369 -1.3354
21956SOL    HW274647  10.304  12.206   5.882  1.5987  3.2047  0.5446
21957SOL     OW74648   2.494   4.727   4.995  0.2270 -0.0301 -0.2210
21957SOL    HW174649   2.426   4.691   4.938 -1.4005 -1.3561  2.3165
21957SOL    HW274650   2.459   4.811   5.024  0.3443 -0.0404 -0.0488
21958SOL     OW74651   0.814   4.958  10.931 -0.5299  0.2534 -0.0713
21958SOL    HW174652   0.788   4.955  11.023  0.4190  2.0350  0.3019
21958SOL    HW274653   0.845   4.869  10.912 -3.6306 -1.0607  0.3668
21959SOL     OW74654   1.092   4.635  10.764 -0.2355 -0.1572 -1.1404
21959SOL    HW174655   1.132   4.668  10.683  1.7072  0.8919  0.1715
21959SOL    HW274656   1.153   4.568  10.795  0.2339  1.0041  0.5743
21960SOL     OW74657   2.132  11.471   6.847  0.4486 -0.6722 -0.2223
21960SOL    HW174658   2.038  11.491   6.845  0.5701  0.6103  2.6039
21960SOL    HW274659   2.142  11.400   6.783 -2.1726  0.0399 -1.5949
21961SOL     OW74660   8.714   4.187   9.319  0.5026 -0.4892  0.3793
21961SOL    HW174661   8.750   4.141   9.243  0.7655 -0.1025  0.2680
21961SOL    HW274662   8.694   4.117   9.381  2.5073 -0.6511  0.9016
21962SOL     OW74663   1.559   5.946   7.454 -0.0790 -0.5613  0.2055
21962SOL    HW174664   1.599   5.926   7.538 -0.3804 -1.7943  0.0779
21962SOL    HW274665   1.591   5.876   7.396  0.5916  0.5989 -0.8571
21963SOL     OW74666   4.653   6.584   4.369  0.0674  0.3296 -0.8049
21963SOL    HW174667   4.724   6.530   4.402 -1.1725 -0.6390  0.3553
21963SOL    HW274668   4.681   6.608   4.280  0.9987 -1.5361 -1.0559
21964SOL     OW74669   0.526   9.335  11.203  0.1290 -0.0752  0.0244
21964SOL    HW174670   0.446   9.377  11.171  0.2753 -0.1993 -0.5123
21964SOL    HW274671   0.535   9.367  11.293 -1.0841 -0.8633  0.4497
21965SOL     OW74672   0.157   7.275   0.700  0.2253  0.1664  0.0060
21965SOL    HW174673   0.124   7.364   0.711 -1.6137 -0.2435 -1.7260
21965SOL    HW274674   0.092   7.231   0.646  2.4539 -1.4311 -1.5528
21966SOL     OW74675  11.938   4.948   3.702  0.2685 -0.2606 -0.6621
21966SOL    HW174676  11.848   4.962   3.733 -0.2711 -0.9965 -1.7962
21966SOL    HW274677  11.967   5.034   3.672  0.2902  0.1671  0.5338
21967SOL     OW74678  10.098   4.556   2.985  0.0685  0.2307  0.0035
21967SOL    HW174679  10.078   4.649   2.989 -1.1741 -0.0074 -0.1956
21967SOL    HW274680  10.193   4.551   2.996 -0.0981  1.3422  2.8575
21968SOL     OW74681  12.287   6.449   0.644 -0.1093  0.2914 -0.3587
21968SOL    HW174682  12.221   6.460   0.575 -1.4203  0.9914  0.9396
21968SOL    HW274683  12.327   6.365   0.626 -1.7229 -0.4010 -0.9218
21969SOL     OW74684  11.314   9.375   5.205 -0.0915 -0.6222 -0.6536
21969SOL    HW174685  11.335   9.431   5.130 -1.3382  0.4572 -0.2436
21969SOL    HW274686  11.287   9.436   5.273 -1.3406 -1.7125 -0.1307
21970SOL     OW74687   5.331   2.216   5.468 -0.1096  0.0752  0.3561
21970SOL    HW174688   5.316   2.152   5.538 -0.9759 -0.0284  0.0772
21970SOL    HW274689   5.419   2.251   5.487  0.0583 -0.6348  0.9496
21971SOL     OW74690  11.700   6.505   0.946 -0.2162 -0.0677 -0.3546
21971SOL    HW174691  11.698   6.601   0.949  0.6447 -0.0421  1.9622
21971SOL    HW274692  11.718   6.479   1.037 -0.8570 -2.4459 -0.8433
21972SOL     OW74693   9.207   5.113   1.075 -0.0038  0.1768  0.0711
21972SOL    HW174694   9.283   5.084   1.024  0.1086  0.3679  0.1274
21972SOL    HW274695   9.149   5.155   1.011  0.2966  0.7297  0.1519
21973SOL     OW74696   8.629  10.888   3.147 -0.9887 -0.2646 -0.3893
21973SOL    HW174697   8.649  10.947   3.219 -1.5105  0.1124 -0.5410
21973SOL    HW274698   8.683  10.918   3.075  0.3368 -1.3074  0.1364
21974SOL     OW74699   8.212   7.360   9.490 -0.0065  0.5536 -0.4066
21974SOL    HW174700   8.126   7.334   9.523 -0.2831  1.1627 -0.6416
21974SOL    HW274701   8.274   7.309   9.542 -0.5023  0.2249 -0.1312
21975SOL     OW74702  11.004   2.397   8.681 -0.5685  0.3027 -0.0157
21975SOL    HW174703  10.945   2.328   8.653  0.8524 -0.9959  0.0171
21975SOL    HW274704  10.993   2.401   8.776 -1.0112  0.4824 -0.0724
21976SOL     OW74705   4.921  12.554  11.295  0.1079 -0.1913 -0.1962
21976SOL    HW174706   4.992  12.597  11.245  1.2597  0.3071  1.7593
21976SOL    HW274707   4.846  12.613  11.284  0.7049  0.5709 -0.3118
21977SOL     OW74708   9.864   5.923   3.834 -0.5236 -0.5285  0.5120
21977SOL    HW174709   9.780   5.940   3.791 -0.3289  1.0072  0.6833
21977SOL    HW274710   9.878   5.999   3.890  2.4224  0.8701 -1.8566
21978SOL     OW74711   5.593   0.088   2.019 -0.2998  1.1248 -0.5319
21978SOL    HW174712   5.566   0.096   2.111 -1.8692  2.0973 -1.0317
21978SOL    HW274713   5.586  -0.005   2.001 -1.2588  1.0783 -0.0066
21979SOL     OW74714   7.295   8.466   7.581  0.1571  0.1357  0.4215
21979SOL    HW174715   7.299   8.383   7.628 -0.6507 -0.3672 -0.3608
21979SOL    HW274716   7.382   8.504   7.592  1.1028 -1.5874 -0.5788
21980SOL     OW74717   8.591   3.934  12.511 -0.1783 -0.0578  0.1943
21980SOL    HW174718   8.600   3.941  12.416  0.9772  1.3603  0.3714
21980SOL    HW274719   8.662   3.875  12.537 -0.5059 -0.4601  0.1778
21981SOL     OW74720  11.433   2.495  10.157 -0.3760  0.2663 -0.1807
21981SOL    HW174721  11.345   2.472  10.187  0.5045 -1.4516  1.2403
21981SOL    HW274722  11.492   2.453  10.219  1.4986  3.9414  0.7906
21982SOL     OW74723   5.159  11.407   1.063 -0.0273 -0.3607  0.2131
21982SOL    HW174724   5.255  11.407   1.067  0.1152  1.2169 -1.6234
21982SOL    HW274725   5.132  11.330   1.113  2.2405 -1.5132 -0.2309
21983SOL     OW74726  12.459   7.016   1.336 -0.1180 -0.3765 -0.1199
21983SOL    HW174727  12.547   7.005   1.371 -0.0798  0.0342 -0.0796
21983SOL    HW274728  12.410   7.059   1.407  0.3441  1.8659 -1.0596
21984SOL     OW74729  10.337   4.529   8.888 -0.1662  0.1944 -0.6538
21984SOL    HW174730  10.301   4.456   8.837 -1.2636  0.7189 -0.6500
21984SOL    HW274731  10.335   4.498   8.978 -1.8758  0.6928 -0.4911
21985SOL     OW74732   9.904   3.839   2.848  0.2934 -0.0214  0.8100
21985SOL    HW174733   9.987   3.827   2.802 -0.2764 -0.2963 -0.1922
21985SOL    HW274734   9.871   3.750   2.862 -0.5432  0.0968 -0.1996
21986SOL     OW74735   0.142  11.184   9.898  0.4642 -0.2228 -0.1681
21986SOL    HW174736   0.047  11.180   9.887  0.3233  1.3439  0.2059
21986SOL    HW274737   0.164  11.106   9.949 -0.7207 -0.2403  0.3427
21987SOL     OW74738   4.691  11.251  12.008  0.2544 -0.4481 -0.6358
21987SOL    HW174739   4.659  11.246  11.918  0.5045 -1.4342 -0.6883
21987SOL    HW274740   4.634  11.314  12.051  1.2910  1.4952 -1.9493
21988SOL     OW74741   0.402   8.325   8.135 -0.6418  1.2627 -0.0018
21988SOL    HW174742   0.455   8.323   8.214  0.6423  0.2251 -0.8442
21988SOL    HW274743   0.408   8.416   8.104 -1.5089  1.7823  1.2735
21989SOL     OW74744   7.508   7.349   3.333 -0.4627  0.3423  0.0667
21989SOL    HW174745   7.439   7.293   3.296  0.2560 -0.0809 -0.6607
21989SOL    HW274746   7.521   7.417   3.267  0.4673 -0.1217 -0.2480
21990SOL     OW74747  10.253   7.433  12.224  0.4127 -0.2211 -0.5414
21990SOL    HW174748  10.315   7.505  12.221  0.7429 -0.4185  0.8819
21990SOL    HW274749  10.288   7.373  12.290 -1.5687 -0.0618  0.7428
21991SOL     OW74750   7.549   4.020   6.538  0.1985 -0.1799  0.0909
21991SOL    HW174751   7.624   3.968   6.568 -0.2100 -0.6632  0.2835
21991SOL    HW274752   7.563   4.106   6.576  1.8271  0.4008 -1.6704
21992SOL     OW74753   9.174   2.895  11.868  0.0670  0.6361 -0.4621
21992SOL    HW174754   9.106   2.886  11.802 -0.9860  1.7427  0.4163
21992SOL    HW274755   9.146   2.836  11.939  1.1608 -0.5072 -0.9471
21993SOL     OW74756   5.877   8.916   8.816 -0.4272 -0.2573  0.1308
21993SOL    HW174757   5.830   8.999   8.809  1.4026  0.7144 -1.9779
21993SOL    HW274758   5.938   8.917   8.742  3.1239 -1.2746  2.7499
21994SOL     OW74759  10.179  10.735   4.699  0.4635  0.3812 -0.7116
21994SOL    HW174760  10.132  10.666   4.651 -0.5406  1.4626 -1.3444
21994SOL    HW274761  10.156  10.816   4.653  1.1652  1.2075  0.3467
21995SOL     OW74762   6.433  11.305   1.343 -0.1769 -0.3023 -0.1351
21995SOL    HW174763   6.496  11.367   1.379  0.5116 -0.9923 -0.1216
21995SOL    HW274764   6.352  11.322   1.390  0.2523 -0.0328  0.5127
21996SOL     OW74765   7.944   5.491   7.903 -0.2489  0.4956  0.1403
21996SOL    HW174766   7.917   5.579   7.932  0.0119  0.6502 -0.0808
21996SOL    HW274767   7.916   5.433   7.974  1.0117  0.9461  1.0421
21997SOL     OW74768   1.568   4.950   3.386 -0.1880 -0.3091  0.1892
21997SOL    HW174769   1.609   4.956   3.473  0.5379  0.1192 -0.1669
21997SOL    HW274770   1.642   4.944   3.326 -0.6533  0.2721 -0.4586
21998SOL     OW74771   7.099   4.220   7.984  0.7331 -1.1184 -0.2616
21998SOL    HW174772   7.015   4.225   8.029  1.0802  0.7327  0.2646
21998SOL    HW274773   7.131   4.131   8.002 -0.8471 -1.6829 -0.0533
21999SOL     OW74774  12.009   4.908   9.778 -0.0016 -0.1577 -0.0453
21999SOL    HW174775  11.950   4.913   9.703  0.3673 -2.8683 -0.6319
21999SOL    HW274776  11.976   4.834   9.829  1.5894 -0.3311  0.7835
22000SOL     OW74777   3.017   3.705   2.100  0.4362 -0.4903 -0.6433
22000SOL    HW174778   3.065   3.759   2.162 -0.1417  0.9696 -1.4112
22000SOL    HW274779   2.962   3.767   2.052  0.0257 -1.7193 -1.8305
22001SOL     OW74780  10.016   3.143   4.250 -0.1850 -0.3253 -0.1864
22001SOL    HW174781  10.019   3.195   4.330  1.4464 -0.5554 -0.0708
22001SOL    HW274782  10.052   3.200   4.183 -1.8782 -0.0065 -0.8675
22002SOL     OW74783  10.490  12.581   9.519 -0.2039  0.3350 -0.4015
22002SOL    HW174784  10.533  12.574   9.434  0.0662 -0.6185 -0.1989
22002SOL    HW274785  10.561  12.570   9.583 -0.0463  3.0971  0.0056
22003SOL     OW74786   4.074   8.666   7.034  0.0789 -0.2523 -0.3044
22003SOL    HW174787   4.079   8.761   7.023 -0.2969 -0.2488 -0.4777
22003SOL    HW274788   4.000   8.640   6.979 -0.7120 -0.4656  0.8289
22004SOL     OW74789   7.264   7.234   3.212 -0.9263  0.3745  0.3341
22004SOL    HW174790   7.206   7.165   3.244 -0.1709 -0.7448 -0.6285
22004SOL    HW274791   7.261   7.225   3.117  0.6714  0.4038  0.2553
22005SOL     OW74792  10.596   2.893   0.275  0.2165 -0.8441 -0.2051
22005SOL    HW174793  10.691   2.883   0.267 -0.1445 -3.1838 -3.7184
22005SOL    HW274794  10.569   2.931   0.192 -1.8580  1.9162  1.5291
22006SOL     OW74795   4.799   8.639   6.125  0.0969 -0.0328  1.2602
22006SOL    HW174796   4.714   8.635   6.081 -0.6692  1.5442  2.5291
22006SOL    HW274797   4.845   8.711   6.081 -0.1148  0.6041  2.0679
22007SOL     OW74798   3.763  11.327   5.229 -0.1444  0.3270  0.0586
22007SOL    HW174799   3.838  11.333   5.170  0.9402 -0.3790  1.3028
22007SOL    HW274800   3.796  11.358   5.313 -0.7293 -1.5600  1.0478
22008SOL     OW74801  11.672   9.440   7.364  0.0619  0.3189 -0.2877
22008SOL    HW174802  11.636   9.516   7.319  0.9867  1.1210  0.2877
22008SOL    HW274803  11.756   9.424   7.320 -0.1139 -0.3496 -0.3830
22009SOL     OW74804   4.196   4.284   5.636 -0.4195  0.2164 -0.0228
22009SOL    HW174805   4.235   4.227   5.702  1.5590  1.2900 -0.1808
22009SOL    HW274806   4.106   4.254   5.628 -0.5689 -0.3208  2.7417
22010SOL     OW74807   7.189   2.108   0.282 -0.5100 -0.8876 -0.6888
22010SOL    HW174808   7.190   2.028   0.230 -0.0542  0.5865 -3.0851
22010SOL    HW274809   7.099   2.141   0.273 -0.7802 -1.2251  0.5290
22011SOL     OW74810   2.594  11.037   2.243  0.0136 -0.1227 -0.2959
22011SOL    HW174811   2.578  10.943   2.243  0.6415 -0.2575  1.2338
22011SOL    HW274812   2.512  11.076   2.271  0.5537 -0.4326  1.8789
22012SOL     OW74813   9.219   0.629   6.237 -0.2414  0.5133 -0.1120
22012SOL    HW174814   9.280   0.696   6.267 -0.2487  0.2087  0.6199
22012SOL    HW274815   9.225   0.560   6.304 -1.8538  0.7551  0.3227
22013SOL     OW74816   2.284   7.173   4.042  0.0823 -0.1325 -0.2020
22013SOL    HW174817   2.349   7.103   4.039 -0.1995 -0.3791 -0.9372
22013SOL    HW274818   2.306   7.223   4.120  0.8840 -0.4726 -0.1969
22014SOL     OW74819   8.685  12.275   0.037  0.6340 -0.6287  0.1569
22014SOL    HW174820   8.731  12.196   0.066  0.9395  0.4726  3.0778
22014SOL    HW274821   8.755  12.338   0.017  0.5186  0.3169  2.4013
22015SOL     OW74822   6.936   2.233   4.671  0.4421  0.0487  1.1237
22015SOL    HW174823   6.864   2.284   4.634 -0.0052 -1.4114 -0.1029
22015SOL    HW274824   6.995   2.298   4.708  1.3033  1.7534 -2.7618
22016SOL     OW74825  10.705   1.828   4.137 -0.7923 -0.2437 -0.3288
22016SOL    HW174826  10.800   1.825   4.131 -0.7450 -2.4596  0.7147
22016SOL    HW274827  10.685   1.922   4.144  1.3787  0.2103  0.6810
22017SOL     OW74828   0.054   0.081   9.673 -0.0880 -0.2427  0.1698
22017SOL    HW174829   0.017   0.158   9.717 -0.4234  0.3420 -1.1017
22017SOL    HW274830   0.148   0.093   9.679 -0.1402  0.6247 -0.6133
22018SOL     OW74831   4.446  12.458   3.902 -0.0510 -0.1980 -0.2692
22018SOL    HW174832   4.381  12.400   3.863 -0.8395  0.5773 -0.1513
22018SOL    HW274833   4.457  12.424   3.991 -1.5400  0.6030  0.2667
22019SOL     OW74834   2.744   9.751  10.311  0.2470 -0.1490 -0.0272
22019SOL    HW174835   2.698   9.828  10.279  2.6880  1.7264  0.6750
22019SOL    HW274836   2.690   9.720  10.385 -0.1096  1.7077  0.5318
22020SOL     OW74837   5.700   2.247  10.858  0.2209  0.8628  0.0812
22020SOL    HW174838   5.745   2.178  10.906 -0.9206  0.5613  0.7708
22020SOL    HW274839   5.729   2.328  10.899  0.4421  0.7010  0.2480
22021SOL     OW74840   0.481  10.581   7.634  0.9020 -0.0034  0.4962
22021SOL    HW174841   0.516  10.507   7.584 -0.2249 -0.1395 -0.1407
22021SOL    HW274842   0.548  10.649   7.627  2.5576 -1.3513  2.1725
22022SOL     OW74843   5.305   7.592   4.060  0.6536  0.1399  0.0594
22022SOL    HW174844   5.260   7.547   4.131 -1.3622  0.4091 -0.9765
22022SOL    HW274845   5.344   7.522   4.007 -1.0177 -0.3588 -0.5947
22023SOL     OW74846  12.461   2.271   9.705 -0.4148  0.2441  0.3091
22023SOL    HW174847  12.513   2.241   9.630 -0.2672 -0.3151  0.6273
22023SOL    HW274848  12.406   2.341   9.670  0.8815  1.1630  0.0752
22024SOL     OW74849   4.913   9.905  12.458  0.0350  0.2253 -0.0713
22024SOL    HW174850   4.840   9.962  12.431  0.1114  0.3498 -0.0158
22024SOL    HW274851   4.885   9.817  12.432 -0.1966  0.2532  0.0752
22025SOL     OW74852   4.191   9.405  11.393  0.3059 -0.0984 -0.0361
22025SOL    HW174853   4.111   9.439  11.354  0.8306 -0.7899 -1.8263
22025SOL    HW274854   4.179   9.415  11.487 -0.9529  1.8506 -0.3578
22026SOL     OW74855   5.621  11.466  11.140 -0.6698  0.1543  0.2366
22026SOL    HW174856   5.542  11.441  11.188 -0.7315 -1.1486 -0.4969
22026SOL    HW274857   5.693  11.449  11.200 -0.7205 -1.7452 -0.1764
22027SOL     OW74858   0.554  11.763   1.714 -0.4254 -0.0569 -0.3928
22027SOL    HW174859   0.529  11.798   1.628  0.4976 -0.8313 -1.0026
22027SOL    HW274860   0.541  11.668   1.705  0.6552 -0.2518 -0.0277
22028SOL     OW74861   3.919  11.962   4.206  0.4123 -0.9641  0.0496
22028SOL    HW174862   3.850  11.908   4.168  0.2364 -0.6068 -0.1491
22028SOL    HW274863   3.933  12.032   4.141 -0.7885  0.3938  1.1808
22029SOL     OW74864   9.792  10.348  10.261  0.3737 -0.2604  0.0121
22029SOL    HW174865   9.836  10.407  10.200 -0.2521 -0.0832 -0.2777
22029SOL    HW274866   9.800  10.261  10.222  2.1634 -0.5598  0.9215
22030SOL     OW74867   4.264  11.097   2.596 -0.7539 -0.5941 -0.4937
22030SOL    HW174868   4.335  11.069   2.537  0.5600  2.5879 -0.6528
22030SOL    HW274869   4.286  11.057   2.680  1.2977  0.2673 -0.5485
22031SOL     OW74870   6.555   0.931  10.649  0.1672  0.4007 -0.6083
22031SOL    HW174871   6.521   0.863  10.707 -1.9273  1.5239 -0.4041
22031SOL    HW274872   6.624   0.888  10.600  1.0565 -0.9859  1.6896
22032SOL     OW74873  11.576   1.617   9.535 -0.1466 -0.2850  0.2866
22032SOL    HW174874  11.598   1.706   9.505 -0.8043  0.7019  2.4818
22032SOL    HW274875  11.512   1.585   9.471 -0.7284  1.2826  0.0391
22033SOL     OW74876   9.118   3.837  11.383  0.2890 -0.3068  0.1339
22033SOL    HW174877   9.067   3.885  11.447 -1.0295 -0.8062 -0.5039
22033SOL    HW274878   9.174   3.904  11.342 -0.3517  0.3817  0.3620
22034SOL     OW74879   0.451   0.107   8.466  0.2715  0.2064 -0.5991
22034SOL    HW174880   0.418   0.136   8.381  0.0254 -0.7758 -0.8481
22034SOL    HW274881   0.526   0.164   8.483  0.0993  0.6572 -1.2946
22035SOL     OW74882   8.084   4.800   7.545 -0.3259 -0.5083  0.7625
22035SOL    HW174883   8.148   4.868   7.565  1.0172 -1.5915  0.3660
22035SOL    HW274884   8.081   4.746   7.624 -0.2103 -0.8525  0.5365
22036SOL     OW74885   7.356   7.240   3.621 -0.0875 -0.0056  0.4689
22036SOL    HW174886   7.360   7.177   3.694 -1.1006 -0.1685  0.4044
22036SOL    HW274887   7.398   7.195   3.549  1.6049  0.4443  1.1360
22037SOL     OW74888   5.947   1.772   8.812 -0.4065 -0.2263  0.0632
22037SOL    HW174889   5.854   1.770   8.789 -0.3985 -0.0740  0.0119
22037SOL    HW274890   5.993   1.753   8.730 -0.3590  1.0228 -0.2184
22038SOL     OW74891  11.800   4.552   3.646 -0.5937 -0.1221 -0.3065
22038SOL    HW174892  11.802   4.632   3.593  0.0534 -0.7753 -1.3343
22038SOL    HW274893  11.843   4.486   3.590  0.7556 -0.6943  1.3065
22039SOL     OW74894   9.257   2.155   0.042  0.0619  0.0963  0.1198
22039SOL    HW174895   9.222   2.180   0.127 -2.3622  1.1121 -1.0773
22039SOL    HW274896   9.203   2.081   0.014 -1.4986  1.8521 -1.8900
22040SOL     OW74897   6.082   4.363   4.033  0.5287  0.0085  0.4184
22040SOL    HW174898   6.128   4.445   4.049 -1.4677  1.3243 -0.1432
22040SOL    HW274899   5.992   4.380   4.063  0.0794 -1.9937  0.3355
22041SOL     OW74900   0.394   0.290   8.009  0.0432  0.4171 -0.3537
22041SOL    HW174901   0.400   0.286   7.913 -0.8228  0.3702 -0.4211
22041SOL    HW274902   0.392   0.384   8.028  0.9370  0.4378 -0.3156
22042SOL     OW74903   2.792   0.353   8.246  0.2253 -0.2014 -0.0233
22042SOL    HW174904   2.841   0.295   8.304  0.5506 -0.9489 -1.0149
22042SOL    HW274905   2.805   0.440   8.283  0.7769 -0.6029  0.7703
22043SOL     OW74906   3.233   7.605   5.925  0.4493  0.4512  0.0533
22043SOL    HW174907   3.228   7.596   5.830 -0.1912 -0.3894  0.1586
22043SOL    HW274908   3.174   7.538   5.959  2.5644 -0.9751  1.1137
22044SOL     OW74909   4.354  10.526   4.963 -0.2275 -0.2411 -0.0351
22044SOL    HW174910   4.416  10.546   4.893 -0.6476  1.2692  0.0026
22044SOL    HW274911   4.408  10.486   5.032  0.7171  1.0125 -0.0211
22045SOL     OW74912   0.635   4.727   8.646 -0.7604 -0.2449  0.1611
22045SOL    HW174913   0.637   4.677   8.564 -0.1259 -1.6742  1.0098
22045SOL    HW274914   0.544   4.722   8.675 -1.1165  0.7432 -0.7057
22046SOL     OW74915  12.250   8.107  10.815 -0.3337 -0.0847  0.2211
22046SOL    HW174916  12.206   8.116  10.730  0.2826 -0.0790 -0.0976
22046SOL    HW274917  12.253   8.013  10.831 -0.9665 -0.0633  0.5141
22047SOL     OW74918   3.320   5.571   9.155  0.0907  0.5195  0.7886
22047SOL    HW174919   3.302   5.628   9.081  2.6500 -1.0555 -1.2311
22047SOL    HW274920   3.253   5.504   9.152 -1.7461  2.1885  1.9808
22048SOL     OW74921  11.601   6.965   3.073  0.0287  0.3047 -0.5048
22048SOL    HW174922  11.635   6.877   3.093  1.9860  1.0674 -0.1888
22048SOL    HW274923  11.521   6.972   3.125 -0.9871 -1.7818 -1.6301
22049SOL     OW74924   9.231   6.484   7.375  0.7392  0.0461  0.3956
22049SOL    HW174925   9.268   6.428   7.307 -1.0206  0.3164 -0.8425
22049SOL    HW274926   9.271   6.569   7.361 -0.9340  0.5938 -1.5646
22050SOL     OW74927   5.947   6.517   3.369  0.3526 -0.1113 -0.1028
22050SOL    HW174928   5.893   6.510   3.448  1.1794 -0.4850  0.4430
22050SOL    HW274929   5.927   6.604   3.334  0.0837  0.1135  0.5961
22051SOL     OW74930   4.285  10.779   9.907 -0.4098 -0.6858 -0.3424
22051SOL    HW174931   4.263  10.832   9.984  2.6569  1.0844 -0.5373
22051SOL    HW274932   4.237  10.820   9.835  0.0296  0.3473 -0.0611
22052SOL     OW74933   0.944   4.435   5.545  0.7550 -0.0553 -0.2742
22052SOL    HW174934   0.888   4.394   5.480  0.9734 -1.0425  0.1352
22052SOL    HW274935   0.942   4.528   5.524  1.5405 -0.4232 -2.2692
22053SOL     OW74936  10.317   1.337   7.455  0.3550 -0.3872  0.1272
22053SOL    HW174937  10.300   1.416   7.404 -0.2312 -0.5478  0.0613
22053SOL    HW274938  10.293   1.361   7.545  0.3251 -0.4417  0.1338
22054SOL     OW74939  10.825  11.964   2.954  0.0033  0.6108 -0.3188
22054SOL    HW174940  10.877  11.911   2.893 -1.3191  0.1771 -1.1061
22054SOL    HW274941  10.864  12.051   2.949  0.5564  0.3328 -1.0091
22055SOL     OW74942   4.118  11.192   3.475  0.3068 -0.1379 -0.1915
22055SOL    HW174943   4.096  11.103   3.501  0.3205 -0.4219 -1.1148
22055SOL    HW274944   4.211  11.201   3.498  0.2678 -0.3144  0.0364
22056SOL     OW74945  10.563   1.449  12.582  0.5953  0.7687  0.0945
22056SOL    HW174946  10.553   1.528  12.634 -0.4395  2.0090 -1.8722
22056SOL    HW274947  10.608   1.477  12.503 -1.5828 -0.1202 -1.5688
22057SOL     OW74948   5.935   3.327  12.602 -0.0701 -0.5065 -0.1252
22057SOL    HW174949   5.914   3.389  12.672 -3.6524 -1.2470 -0.3619
22057SOL    HW274950   6.007   3.274  12.638 -0.7447  0.1225  2.3727
22058SOL     OW74951   1.443   5.559   8.992  0.2821  0.0796 -0.1285
22058SOL    HW174952   1.407   5.628   9.047 -0.5097 -1.0465  0.8190
22058SOL    HW274953   1.533   5.587   8.975  0.5672  0.4641  1.7700
22059SOL     OW74954   7.490   0.824   0.656 -0.5547 -0.2303  0.5219
22059SOL    HW174955   7.572   0.792   0.692 -0.1044 -0.0988 -0.3480
22059SOL    HW274956   7.481   0.777   0.573 -0.3024  1.2598 -0.3818
22060SOL     OW74957   0.511   3.662   5.725  0.3046 -0.1189 -0.8780
22060SOL    HW174958   0.438   3.723   5.721 -0.6614 -1.0571  0.7985
22060SOL    HW274959   0.470   3.576   5.714  1.5208 -0.5297 -2.3852
22061SOL     OW74960   4.126   9.815   8.344  0.6717 -0.8886  0.0731
22061SOL    HW174961   4.194   9.861   8.391  1.6556 -1.3144 -0.8931
22061SOL    HW274962   4.136   9.723   8.370 -0.3673 -0.7891  0.9022
22062SOL     OW74963   6.076   8.944   5.229  0.0447 -0.1295 -0.2520
22062SOL    HW174964   6.145   9.010   5.219 -0.3225  0.7958  2.3496
22062SOL    HW274965   5.995   8.994   5.221 -0.3884 -1.1240 -2.7907
22063SOL     OW74966   1.251   5.509  11.694 -0.0959  0.3823 -0.2076
22063SOL    HW174967   1.209   5.577  11.746  0.2324  0.7100 -0.3600
22063SOL    HW274968   1.341   5.505  11.727 -0.6245 -1.4140  1.1971
22064SOL     OW74969   3.506  11.796   6.699 -0.1299 -0.2005 -0.3505
22064SOL    HW174970   3.589  11.757   6.727  0.1937 -0.5072 -1.6805
22064SOL    HW274971   3.487  11.862   6.766  1.3488  0.0878 -0.1788
22065SOL     OW74972  11.583   1.203   8.375  0.2962  0.1545 -0.2740
22065SOL    HW174973  11.576   1.266   8.446 -0.2147  0.7753 -0.8673
22065SOL    HW274974  11.539   1.244   8.300  1.0728 -0.3636 -1.0417
22066SOL     OW74975   0.857  12.587   4.047 -0.2432  0.0660  0.0425
22066SOL    HW174976   0.894  12.514   4.097  0.2888  0.6619  0.5335
22066SOL    HW274977   0.933  12.631   4.010 -0.5184  0.7153  0.2393
22067SOL     OW74978   9.381   2.488   6.093 -0.1378 -0.8029 -0.5311
22067SOL    HW174979   9.300   2.442   6.111  0.2654 -1.5933 -0.7099
22067SOL    HW274980   9.408   2.457   6.006 -0.4135  0.5700 -1.1384
22068SOL     OW74981   8.898   6.216   6.028  0.2178  0.7304  0.0675
22068SOL    HW174982   8.811   6.176   6.030  0.1967  0.7922  0.3624
22068SOL    HW274983   8.915   6.242   6.119  1.1324 -0.5322  0.2767
22069SOL     OW74984   9.605  12.303   3.501 -0.4606 -0.3032  0.1106
22069SOL    HW174985   9.586  12.385   3.547  0.7126 -0.2444  0.5203
22069SOL    HW274986   9.607  12.237   3.570  1.8368 -0.1349  0.2972
22070SOL     OW74987   4.133   3.603  10.482  0.9720 -0.4268 -0.1668
22070SOL    HW174988   4.155   3.589  10.390  1.2580  1.7362 -0.4916
22070SOL    HW274989   4.046   3.642  10.481 -0.0169 -2.4969  0.6739
22071SOL     OW74990   0.602  10.731   9.479  0.2321  0.8342 -0.0285
22071SOL    HW174991   0.512  10.748   9.453 -0.3273 -1.8014 -0.0867
22071SOL    HW274992   0.598  10.719   9.574  0.0602 -1.4281 -0.2714
22072SOL     OW74993   4.967   8.818   4.998  0.0161 -0.3580  0.1969
22072SOL    HW174994   4.897   8.846   4.939 -0.8654 -1.7568  0.5028
22072SOL    HW274995   4.977   8.724   4.980 -0.8630 -1.0425  2.7726
22073SOL     OW74996   3.887   4.474   4.013 -0.0600  0.2054 -0.2360
22073SOL    HW174997   3.857   4.386   4.034  0.9753  0.0579  0.7105
22073SOL    HW274998   3.983   4.469   4.018 -0.0047  1.5617  0.6303
22074SOL     OW74999  11.795   1.564   0.556 -0.5840  0.3730 -0.0214
22074SOL    HW175000  11.827   1.653   0.541  0.5337 -0.1440 -0.8635
22074SOL    HW275001  11.744   1.570   0.636  0.7804  1.4749  0.8079
22075SOL     OW75002   3.256   7.803   9.464 -0.3269  0.1501 -0.3023
22075SOL    HW175003   3.172   7.828   9.425 -1.2712  1.2713  2.2775
22075SOL    HW275004   3.249   7.708   9.474 -1.2504  0.2150 -0.2090
22076SOL     OW75005   8.094   8.433  12.434 -0.8981  0.6085 -0.0459
22076SOL    HW175006   8.091   8.494  12.361  1.0088  1.5128  0.5620
22076SOL    HW275007   8.080   8.488  12.512  0.7385  0.2903  0.5017
22077SOL     OW75008  10.861   1.776   1.927 -0.2218  0.0293 -0.0118
22077SOL    HW175009  10.868   1.870   1.945  0.8884  0.6962 -3.2716
22077SOL    HW275010  10.770   1.762   1.901  0.1375  0.7385 -1.7649
22078SOL     OW75011   3.055   3.235  10.679 -0.2170  0.2032  0.3311
22078SOL    HW175012   3.002   3.180  10.621 -1.9824 -0.0399  2.0699
22078SOL    HW275013   3.145   3.220  10.651 -0.9477 -0.4295 -1.8575
22079SOL     OW75014  10.310   3.820   4.505  0.0640 -0.1707  0.0942
22079SOL    HW175015  10.248   3.873   4.554 -0.0189 -1.5663  1.5926
22079SOL    HW275016  10.294   3.842   4.413 -1.3626  0.8459  0.5556
22080SOL     OW75017   5.260   8.001  10.413  0.2872 -0.6422 -0.7367
22080SOL    HW175018   5.337   7.975  10.463 -0.3523 -0.5530  0.3286
22080SOL    HW275019   5.294   8.053  10.340  1.1701  0.3592  0.3515
22081SOL     OW75020   7.105   5.107   3.143  0.0478  1.1506  0.2550
22081SOL    HW175021   7.042   5.086   3.073 -0.5567  1.2500  0.7562
22081SOL    HW275022   7.127   5.199   3.129  0.0920  1.1108  0.0657
22082SOL     OW75023   3.797   1.272  12.413 -0.0393 -0.3347  0.3829
22082SOL    HW175024   3.778   1.219  12.491  0.4746  0.2973  0.9557
22082SOL    HW275025   3.793   1.363  12.445 -0.8745 -0.0188 -0.5730
22083SOL     OW75026   5.379   2.683   7.268  0.5193  0.4690 -0.5069
22083SOL    HW175027   5.342   2.763   7.305 -0.3401 -0.2601  0.2432
22083SOL    HW275028   5.334   2.672   7.184 -0.7335 -0.1955  0.2165
22084SOL     OW75029   8.376   2.326   2.290 -0.8843  0.5007 -0.7121
22084SOL    HW175030   8.452   2.349   2.344 -0.3867 -0.1500 -1.1274
22084SOL    HW275031   8.318   2.278   2.349  0.7226 -2.3678 -1.2738
22085SOL     OW75032   6.607   1.771   0.715  0.6289  0.2940 -0.1604
22085SOL    HW175033   6.684   1.826   0.724  0.8772 -0.0146 -0.3744
22085SOL    HW275034   6.634   1.702   0.654  0.1739  0.2056 -0.2646
22086SOL     OW75035   4.227   6.385   0.881 -0.2810  0.1055  0.4261
22086SOL    HW175036   4.151   6.441   0.899  0.5766  1.1267  0.9440
22086SOL    HW275037   4.239   6.392   0.786 -1.4459 -0.8899  0.1822
22087SOL     OW75038   0.384   4.729   7.685  0.3891 -0.1028  0.2082
22087SOL    HW175039   0.416   4.644   7.656  0.0271 -0.2733  0.3023
22087SOL    HW275040   0.393   4.786   7.608 -0.2279 -0.4592 -0.1284
22088SOL     OW75041   4.235   9.492   2.211  0.0713  0.0749  0.5091
22088SOL    HW175042   4.182   9.569   2.191  0.6009  0.3369  0.1151
22088SOL    HW275043   4.186   9.419   2.173  0.6196  0.4595 -1.0028
22089SOL     OW75044   0.647   8.836   7.670  0.0160 -0.2441  0.5526
22089SOL    HW175045   0.619   8.777   7.740  0.9970  0.6377  1.7441
22089SOL    HW275046   0.600   8.918   7.686  0.3242  0.0008  0.2406
22090SOL     OW75047   7.706   4.883   8.532 -0.2356 -0.3863 -0.2227
22090SOL    HW175048   7.724   4.942   8.605 -1.7650  1.0079 -0.8968
22090SOL    HW275049   7.781   4.824   8.530  1.6207  1.7723  0.2642
22091SOL     OW75050  12.529   5.474  12.319 -0.0567 -0.5825  0.6304
22091SOL    HW175051  12.547   5.568  12.310 -1.2171 -0.4284 -0.3391
22091SOL    HW275052  12.435   5.469  12.337  0.2153 -1.5132  1.9148
22092SOL     OW75053   4.987   4.005  11.518 -0.1108  0.1269 -0.4779
22092SOL    HW175054   5.000   3.926  11.465 -2.0289 -0.7999  0.3256
22092SOL    HW275055   5.008   3.977  11.608  1.6506  1.2700 -0.4847
22093SOL     OW75056   9.258   0.306  11.776  0.2602  0.7726 -0.0240
22093SOL    HW175057   9.302   0.385  11.807 -1.4063  2.4259 -1.5860
22093SOL    HW275058   9.167   0.334  11.763  0.2010 -0.5582 -3.3610
22094SOL     OW75059   4.113   3.373   4.087  0.1475 -0.4366  0.0648
22094SOL    HW175060   4.145   3.438   4.150 -0.4055  0.8357 -0.9149
22094SOL    HW275061   4.093   3.424   4.009 -0.1762 -1.8306 -0.7923
22095SOL     OW75062   5.391  12.216  11.281 -0.2474 -0.1221 -0.1619
22095SOL    HW175063   5.394  12.301  11.237 -1.2002  0.1251  0.2103
22095SOL    HW275064   5.317  12.171  11.240 -0.5170 -0.2787  0.4824
22096SOL     OW75065   2.070   0.623   0.672  0.5795  0.2310 -0.3005
22096SOL    HW175066   1.980   0.627   0.640  0.0694 -0.6624  0.9382
22096SOL    HW275067   2.066   0.657   0.761  1.1579 -1.2061  0.3155
22097SOL     OW75068   7.634   1.163   7.634  0.1526  0.6445  0.0062
22097SOL    HW175069   7.574   1.174   7.560  0.0328 -0.7191 -0.1309
22097SOL    HW275070   7.625   1.243   7.685 -2.2118  0.2632  0.2897
22098SOL     OW75071   2.549   5.580   6.711  0.5073 -0.1115  0.1095
22098SOL    HW175072   2.640   5.611   6.707  0.0835  1.2417  0.4066
22098SOL    HW275073   2.501   5.652   6.751 -1.0702  0.0470 -1.8922
22099SOL     OW75074   7.360  10.895   1.574  0.0586  0.3486 -0.1398
22099SOL    HW175075   7.282  10.848   1.604 -0.7294  1.2258 -0.7398
22099SOL    HW275076   7.395  10.842   1.503 -0.3657  0.2659 -0.2865
22100SOL     OW75077   4.393   1.353   1.849 -0.1756 -0.5218  0.0625
22100SOL    HW175078   4.445   1.390   1.778 -0.8468  0.6858  0.1740
22100SOL    HW275079   4.326   1.302   1.805 -1.0167  0.7903 -0.2241
22101SOL     OW75080   8.662   3.248   5.749 -0.3275 -0.0417 -0.0855
22101SOL    HW175081   8.710   3.208   5.677  0.6916 -0.2682  0.6867
22101SOL    HW275082   8.660   3.180   5.817  0.9953  0.9873  1.0621
22102SOL     OW75083   3.633   2.104   8.091 -0.1625  0.5068  0.6318
22102SOL    HW175084   3.716   2.100   8.042 -0.2477  2.3651  0.2708
22102SOL    HW275085   3.656   2.147   8.173 -0.9202  1.9150  0.1303
22103SOL     OW75086   4.031  10.597  10.789  0.5274 -0.5013  0.2619
22103SOL    HW175087   3.996  10.586  10.877 -0.2642  0.0213  0.0297
22103SOL    HW275088   3.956  10.582  10.731  1.0976 -1.1082 -0.3403
22104SOL     OW75089   2.316   2.320   7.488 -0.0378 -0.6318  0.6589
22104SOL    HW175090   2.324   2.326   7.583 -1.6472 -1.3593  0.8823
22104SOL    HW275091   2.245   2.257   7.474 -1.1223  0.8647 -0.9936
22105SOL     OW75092   3.837   6.085   0.144  0.6992  0.5833 -0.0180
22105SOL    HW175093   3.771   6.133   0.193  0.3976 -0.1208  0.2789
22105SOL    HW275094   3.876   6.150   0.085 -1.4490  0.6577 -1.4595
22106SOL     OW75095   7.757   2.476   8.296 -0.3048 -0.6064 -0.1036
22106SOL    HW175096   7.753   2.412   8.225 -0.6759 -2.0269  1.1422
22106SOL    HW275097   7.731   2.558   8.255 -1.5164 -1.5808 -1.4119
22107SOL     OW75098   5.682  11.788   1.750  0.4803 -0.0859  0.1844
22107SOL    HW175099   5.713  11.698   1.756  0.0290 -0.2811 -0.3692
22107SOL    HW275100   5.678  11.818   1.841  0.8787 -0.5377  0.3527
22108SOL     OW75101   5.947   7.124  10.960  0.0447  0.5132  0.3581
22108SOL    HW175102   5.937   7.155  11.050  0.2626  1.8591 -0.0495
22108SOL    HW275103   6.022   7.065  10.963 -1.2146 -1.1335  1.4191
22109SOL     OW75104   0.458   6.393  11.088 -0.5416  0.1526 -0.2455
22109SOL    HW175105   0.499   6.317  11.128  1.5040  0.7382 -1.0885
22109SOL    HW275106   0.443   6.454  11.160  1.2432  0.3960 -0.0402
22110SOL     OW75107   9.110   0.460   9.834  0.1831 -0.4629  0.3937
22110SOL    HW175108   9.107   0.551   9.864  1.2937  0.5827 -2.3076
22110SOL    HW275109   9.024   0.445   9.796 -0.4500 -1.0213  1.9983
22111SOL     OW75110   5.760   3.036   6.862 -0.0227  0.0877  0.0510
22111SOL    HW175111   5.725   2.997   6.942  0.3715 -0.5070 -0.0605
22111SOL    HW275112   5.732   2.977   6.792 -0.0008  0.3714 -0.2013
22112SOL     OW75113   6.610   9.410  10.878  0.1647 -0.0555 -0.3411
22112SOL    HW175114   6.639   9.392  10.788 -1.1690  0.1681 -0.8389
22112SOL    HW275115   6.619   9.505  10.888 -0.9033  0.0950 -0.7013
22113SOL     OW75116  10.631   3.106  10.883 -0.2546  0.1554  0.7255
22113SOL    HW175117  10.718   3.114  10.920  0.7614  0.2620 -1.4926
22113SOL    HW275118  10.618   3.187  10.834 -0.9578 -0.4798 -0.1812
22114SOL     OW75119   6.476   1.120   5.862  0.2849 -0.7452  0.0037
22114SOL    HW175120   6.506   1.193   5.916 -0.0480  0.4990 -1.4398
22114SOL    HW275121   6.510   1.138   5.775  0.3856 -2.4468 -0.3564
22115SOL     OW75122   7.815   0.405   0.520  0.3965  0.4190  0.8692
22115SOL    HW175123   7.740   0.347   0.513 -0.5397  1.7653 -1.2305
22115SOL    HW275124   7.891   0.347   0.512 -0.4876 -0.6561 -0.0485
22116SOL     OW75125   6.426   5.363  10.032 -0.1554 -0.0971 -0.5632
22116SOL    HW175126   6.486   5.296   9.999 -0.2575 -0.1447 -0.6522
22116SOL    HW275127   6.368   5.382   9.959 -1.9625 -1.9712  0.2689
22117SOL     OW75128   9.291   6.349   1.601 -0.1813 -0.2154 -0.1901
22117SOL    HW175129   9.321   6.388   1.683  3.1696  1.3157 -1.9427
22117SOL    HW275130   9.311   6.256   1.609  0.7147  0.0282  0.4952
22118SOL     OW75131  10.273   0.390  11.825 -0.4087 -0.2643 -0.5432
22118SOL    HW175132  10.216   0.460  11.792  0.7823  1.7228  1.3698
22118SOL    HW275133  10.239   0.311  11.783 -3.4935  1.0430 -0.8139
22119SOL     OW75134   6.293   4.261   6.834  0.4641  0.2957 -0.1774
22119SOL    HW175135   6.246   4.344   6.824  1.2050  0.7724  0.1812
22119SOL    HW275136   6.320   4.238   6.744 -1.0331 -0.3490 -0.4806
22120SOL     OW75137   3.106   8.228   6.098  0.2407  0.0004 -0.1730
22120SOL    HW175138   3.138   8.195   6.181 -1.0479 -1.3383 -0.1695
22120SOL    HW275139   3.080   8.319   6.116  0.1654 -0.2153  0.8297
22121SOL     OW75140   3.052   5.175   5.390  0.2834 -0.3369 -0.8707
22121SOL    HW175141   3.143   5.178   5.363 -0.1304  2.1640 -2.2592
22121SOL    HW275142   3.053   5.127   5.473  2.8112 -0.5761 -0.9810
22122SOL     OW75143   6.247   7.326  11.161 -0.2039 -0.1784 -0.9380
22122SOL    HW175144   6.292   7.241  11.162  1.3067  0.5785 -1.1462
22122SOL    HW275145   6.289   7.376  11.231 -1.7028  0.1219 -0.2075
22123SOL     OW75146   3.633   9.283   3.560 -0.1097 -0.4800 -0.3714
22123SOL    HW175147   3.551   9.265   3.605  0.0022 -0.7533 -0.2743
22123SOL    HW275148   3.682   9.201   3.565  0.3898 -0.1671  0.0416
22124SOL     OW75149   0.787   0.715   7.587 -0.5466 -0.2882  0.0384
22124SOL    HW175150   0.757   0.804   7.566  1.5835  0.2239 -1.0676
22124SOL    HW275151   0.860   0.729   7.647 -1.2115 -1.4127  1.1624
22125SOL     OW75152   7.744   8.069   7.687  0.2038  0.0861 -0.4755
22125SOL    HW175153   7.813   8.130   7.664  0.7967 -1.0179 -1.7279
22125SOL    HW275154   7.703   8.046   7.604  0.7457 -2.0615 -0.2112
22126SOL     OW75155   6.847   6.376   9.958  0.1687  0.6254  0.7228
22126SOL    HW175156   6.885   6.367   9.871  2.5519  0.1290  1.7472
22126SOL    HW275157   6.922   6.382  10.017 -1.3012 -1.5576  3.0292
22127SOL     OW75158   9.934   7.173   3.613  0.4775  0.9342  0.0343
22127SOL    HW175159   9.900   7.262   3.608  2.0303  1.5108 -1.0112
22127SOL    HW275160   9.878   7.123   3.553 -1.3781  0.8033  1.7578
22128SOL     OW75161   5.526   3.855   3.802  0.7449  0.1300  0.1894
22128SOL    HW175162   5.460   3.895   3.746 -1.7575  0.2900  2.9770
22128SOL    HW275163   5.590   3.924   3.819 -1.4053  1.8665  1.7768
22129SOL     OW75164  11.059  11.289   4.896 -0.3279 -0.6462  0.1822
22129SOL    HW175165  11.154  11.286   4.887 -0.3338 -1.4589  0.2680
22129SOL    HW275166  11.029  11.337   4.819  0.1717 -0.0853  0.3286
22130SOL     OW75167  11.483   2.149   6.643  0.8633 -0.4687  0.4563
22130SOL    HW175168  11.388   2.160   6.640  1.0062  0.7449 -0.0452
22130SOL    HW275169  11.503   2.149   6.737  0.3677 -0.7069  0.5655
22131SOL     OW75170  10.037  10.294  11.188  0.3355 -0.2815  0.2537
22131SOL    HW175171   9.948  10.262  11.197  0.1770 -0.2832 -1.1298
22131SOL    HW275172  10.092  10.223  11.224 -0.0908 -1.4221 -1.2617
22132SOL     OW75173   7.458  11.720   2.583 -0.0585  0.4026 -0.5066
22132SOL    HW175174   7.518  11.646   2.573  2.4662  2.3564 -0.9449
22132SOL    HW275175   7.406  11.720   2.502  0.4740 -0.4359 -0.8610
22133SOL     OW75176   1.360   0.171  11.693 -0.8992  0.6265  0.4602
22133SOL    HW175177   1.385   0.166  11.601 -1.2948  2.4088  0.2239
22133SOL    HW275178   1.270   0.139  11.695 -0.6286 -0.1574  0.3671
22134SOL     OW75179   1.439  11.063  10.374  0.3064 -0.2755 -0.1115
22134SOL    HW175180   1.479  11.134  10.324  0.2129 -0.5705 -0.6118
22134SOL    HW275181   1.437  11.095  10.464  0.2440  0.3656 -0.3360
22135SOL     OW75182   2.608   4.638   4.196  0.5181 -0.3521  0.2986
22135SOL    HW175183   2.681   4.649   4.135 -0.2082  0.7563 -0.4058
22135SOL    HW275184   2.619   4.549   4.231  1.5161 -0.6381 -0.6811
22136SOL     OW75185   7.205  10.120   0.085 -0.2287 -0.3427 -0.2419
22136SOL    HW175186   7.145  10.110   0.011  0.2054 -0.8171 -0.5322
22136SOL    HW275187   7.155  10.171   0.149 -0.4455  0.4916 -1.0421
22137SOL     OW75188  11.862   8.644  11.544 -0.3095 -0.3635  0.4940
22137SOL    HW175189  11.919   8.718  11.563  0.8606 -1.4714  1.5116
22137SOL    HW275190  11.836   8.656  11.453  0.7138  0.7355  0.3275
22138SOL     OW75191   1.704   6.325   5.446 -0.1955 -0.3605  0.2872
22138SOL    HW175192   1.795   6.350   5.435 -0.0841 -0.2714  1.2982
22138SOL    HW275193   1.677   6.368   5.527 -1.0635 -0.5772  0.1239
22139SOL     OW75194   3.377   7.550  12.067  0.4104 -0.4941  0.5313
22139SOL    HW175195   3.381   7.559  11.971 -1.7571 -3.0923  0.0766
22139SOL    HW275196   3.469   7.548  12.094  1.1029 -0.4397 -1.5835
22140SOL     OW75197  10.798   7.603  10.015 -0.3594 -0.0029  0.2267
22140SOL    HW175198  10.729   7.656  10.055  1.4693  2.5966  0.1884
22140SOL    HW275199  10.853   7.577  10.089 -0.8679 -1.3815  0.1591
22141SOL     OW75200   4.086  12.314   2.358 -0.6352 -0.0131 -0.4987
22141SOL    HW175201   4.028  12.351   2.425  0.7469  0.2887  0.5768
22141SOL    HW275202   4.114  12.389   2.306 -0.2367  0.0323 -0.2263
22142SOL     OW75203   4.421  11.802   4.085  0.2265 -0.1686 -0.4998
22142SOL    HW175204   4.445  11.715   4.118 -1.9794 -0.4927  0.4269
22142SOL    HW275205   4.468  11.863   4.142 -1.3634 -0.7576  1.5622
22143SOL     OW75206   3.832   9.551   6.678 -0.8309  0.5229 -0.2397
22143SOL    HW175207   3.868   9.463   6.691  0.2221  0.7206 -1.5247
22143SOL    HW275208   3.761   9.539   6.615  1.5311  0.9327 -3.1911
22144SOL     OW75209  11.960   8.911  11.348  0.2561 -0.3859  0.3148
22144SOL    HW175210  11.968   9.002  11.380 -0.9888 -0.3518  0.5648
22144SOL    HW275211  11.909   8.918  11.268  0.1028 -0.8795  0.3685
22145SOL     OW75212  10.419   1.055  10.839 -0.0959 -0.1062 -0.1023
22145SOL    HW175213  10.386   1.007  10.915 -1.2987  1.5393  0.4743
22145SOL    HW275214  10.382   1.009  10.764  0.8161 -1.5378  0.2949
22146SOL     OW75215   6.247   1.575   3.545  0.2168  0.0924  0.4796
22146SOL    HW175216   6.341   1.588   3.553  0.3325  0.1923 -0.7638
22146SOL    HW275217   6.231   1.489   3.584  1.1755 -0.9065 -1.2058
22147SOL     OW75218   7.857  12.255   0.030  0.5048 -0.5125  0.3593
22147SOL    HW175219   7.813  12.188   0.083 -0.6536  0.4291  0.6410
22147SOL    HW275220   7.900  12.312   0.094  2.0539 -1.3255  0.0918
22148SOL     OW75221  10.558   0.034  12.051 -0.1322  0.0390 -0.1330
22148SOL    HW175222  10.654   0.033  12.052 -0.1112  1.1176  0.3610
22148SOL    HW275223  10.535   0.124  12.029 -1.0414 -0.2622 -0.4686
22149SOL     OW75224   3.484   6.388   4.788 -0.0161  0.1349 -0.7447
22149SOL    HW175225   3.414   6.332   4.753  0.2684 -0.9257  0.2941
22149SOL    HW275226   3.443   6.436   4.860  0.0103  0.4409 -0.9355
22150SOL     OW75227   0.855   6.532   5.341 -0.2484  0.1062  0.2786
22150SOL    HW175228   0.785   6.588   5.311 -0.1640  0.2683  0.3821
22150SOL    HW275229   0.924   6.592   5.370 -0.2263 -0.0475  0.5514
22151SOL     OW75230  11.665   8.257  12.417 -0.1357 -0.4094 -0.6688
22151SOL    HW175231  11.606   8.314  12.465 -0.3651  0.8204 -2.3273
22151SOL    HW275232  11.692   8.191  12.481 -1.7753  0.1236  0.6407
22152SOL     OW75233  11.389   9.117   1.852  0.1717 -0.0793 -0.5731
22152SOL    HW175234  11.301   9.130   1.819 -0.7906 -0.4298  1.6526
22152SOL    HW275235  11.415   9.202   1.887  0.6972  0.0032 -1.1494
22153SOL     OW75236  10.335  11.628   0.158  0.3417  0.1151 -0.5482
22153SOL    HW175237  10.270  11.686   0.197  0.4321 -0.8739  1.1498
22153SOL    HW275238  10.324  11.639   0.063 -2.3398 -0.1051 -0.3183
22154SOL     OW75239   8.200   2.502   8.818  0.1149 -0.4272  0.0621
22154SOL    HW175240   8.116   2.547   8.809 -0.4198 -1.1799  1.0615
22154SOL    HW275241   8.258   2.567   8.858 -0.3653 -0.3160  0.5863
22155SOL     OW75242   6.033   3.249  11.988  0.0941 -0.4207  0.2059
22155SOL    HW175243   6.018   3.171  12.041 -1.0427  0.9847  2.0623
22155SOL    HW275244   5.946   3.280  11.965  0.5353  0.1412 -0.7684
22156SOL     OW75245   7.948   0.505  11.074 -0.0829 -0.8937 -0.2125
22156SOL    HW175246   7.886   0.433  11.077  0.8933 -1.7792 -0.7985
22156SOL    HW275247   7.998   0.491  10.993 -0.8431  1.2681 -1.1472
22157SOL     OW75248   4.541   6.647   1.463 -0.0094 -0.3507  0.1130
22157SOL    HW175249   4.633   6.675   1.467 -0.2504  0.6005 -0.7486
22157SOL    HW275250   4.530   6.614   1.374 -0.6082 -0.0743  0.0802
22158SOL     OW75251  12.326   2.902   8.174 -0.3505  0.5242  0.1017
22158SOL    HW175252  12.382   2.930   8.101  0.9157  0.6184  1.0708
22158SOL    HW275253  12.329   2.807   8.171 -0.5000  0.5249 -0.1135
22159SOL     OW75254  10.895   4.704   3.369  0.2496  0.3160  0.3799
22159SOL    HW175255  10.921   4.666   3.453 -1.0851 -1.0272  0.2227
22159SOL    HW275256  10.821   4.650   3.340 -0.9396  2.2843 -0.4593
22160SOL     OW75257   8.258  10.853   0.548  0.0170 -0.2403 -0.2307
22160SOL    HW175258   8.259  10.911   0.471  1.8691  1.2499  0.8202
22160SOL    HW275259   8.261  10.913   0.623 -0.1361 -1.6773  0.9683
22161SOL     OW75260   9.579   7.505   3.651  0.6467  0.1881  0.6595
22161SOL    HW175261   9.570   7.600   3.665  2.2639  0.2877  1.2260
22161SOL    HW275262   9.590   7.469   3.739  1.1754 -0.3921  0.3631
22162SOL     OW75263   6.326   5.373  10.709  0.2806  0.2266 -0.1840
22162SOL    HW175264   6.379   5.353  10.632  1.2817  0.9011  0.3099
22162SOL    HW275265   6.287   5.289  10.734  1.3538 -0.3480 -0.3961
22163SOL     OW75266   0.293   9.688   0.273  0.2250  0.6821  0.0181
22163SOL    HW175267   0.236   9.679   0.350  2.3959 -1.7916  1.5302
22163SOL    HW275268   0.363   9.747   0.302  0.0648  1.2501 -0.7409
22164SOL     OW75269   7.645   7.825   3.782  0.6890  0.0176  0.1501
22164SOL    HW175270   7.659   7.733   3.761 -0.9473  0.1527 -1.8320
22164SOL    HW275271   7.725   7.869   3.753  1.1477 -0.6694  0.3565
22165SOL     OW75272   0.247   2.817   2.379 -1.2683  0.0318  0.5383
22165SOL    HW175273   0.196   2.895   2.356 -0.0542  1.2434  1.7300
22165SOL    HW275274   0.266   2.828   2.472  2.0843  0.2358 -0.0431
22166SOL     OW75275   6.015   3.049   6.652 -0.0474  0.1676  0.2244
22166SOL    HW175276   5.947   3.083   6.711 -0.3408  0.3508 -0.2084
22166SOL    HW275277   6.002   2.954   6.652  0.0866  0.1474  0.6117
22167SOL     OW75278   3.467   9.347  10.885 -0.0830 -0.3101 -0.0153
22167SOL    HW175279   3.460   9.292  10.807 -0.7954  0.4600 -0.5198
22167SOL    HW275280   3.499   9.431  10.851  0.3204 -0.1905  0.6379
22168SOL     OW75281   4.076   9.921  12.066  0.1268 -0.0980 -0.1097
22168SOL    HW175282   4.061   9.827  12.069 -1.1709  0.0908  2.4396
22168SOL    HW275283   4.045   9.952  12.151 -0.9718  2.8669 -1.4768
22169SOL     OW75284   7.654   4.033   2.772  0.2987  0.2590  0.5099
22169SOL    HW175285   7.620   4.072   2.691 -1.7848 -1.1599  0.6352
22169SOL    HW275286   7.676   3.943   2.748 -2.6224 -0.9527  1.9611
22170SOL     OW75287   2.679   5.570   2.700  0.8921  0.5311  0.0996
22170SOL    HW175288   2.688   5.529   2.786 -2.1086 -0.5934 -0.0158
22170SOL    HW275289   2.703   5.500   2.638 -0.1241  0.2684 -0.0123
22171SOL     OW75290   1.518   8.382   4.637 -0.2394  0.0052 -0.5379
22171SOL    HW175291   1.448   8.447   4.628 -0.4540  0.0962  1.4361
22171SOL    HW275292   1.551   8.394   4.726  1.8866 -0.4674 -1.2102
22172SOL     OW75293   6.893   9.955   3.681  0.0947 -0.1523 -0.5322
22172SOL    HW175294   6.816   9.921   3.636  0.4157  0.7112 -1.7638
22172SOL    HW275295   6.966   9.936   3.622  0.6282  0.3711 -0.0550
22173SOL     OW75296  12.287   6.537   7.847  0.0978  0.1959 -0.1034
22173SOL    HW175297  12.354   6.542   7.915  1.3387  0.6316 -1.3099
22173SOL    HW275298  12.335   6.515   7.768 -1.1246  0.9547 -1.0988
22174SOL     OW75299   8.101   9.155  10.791 -0.3238 -0.1585 -0.2084
22174SOL    HW175300   8.094   9.226  10.728 -1.7038 -0.5278 -0.5166
22174SOL    HW275301   8.148   9.193  10.865  0.3878  0.5818 -1.0167
22175SOL     OW75302   7.911   3.063   8.559  0.1006  0.4527  0.4869
22175SOL    HW175303   7.959   2.993   8.604  0.4013  0.1265 -0.3251
22175SOL    HW275304   7.933   3.142   8.609  2.7608  0.6009 -0.7221
22176SOL     OW75305   7.345  11.882   1.554  0.0967 -0.2288 -0.2317
22176SOL    HW175306   7.291  11.948   1.597 -0.6768 -1.4938  0.8065
22176SOL    HW275307   7.299  11.863   1.472  0.6028  0.8661 -0.7906
22177SOL     OW75308   7.040   6.229   8.184 -0.0570  0.0960  0.3094
22177SOL    HW175309   7.029   6.144   8.140  1.7536 -0.1898  0.3336
22177SOL    HW275310   6.972   6.230   8.251 -1.1519 -0.6295 -0.7493
22178SOL     OW75311   6.790   7.540   7.198 -0.0071 -0.0467 -0.2143
22178SOL    HW175312   6.860   7.606   7.192  1.0760 -1.1867 -0.4411
22178SOL    HW275313   6.788   7.516   7.290 -0.5764  0.4645 -0.0854
22179SOL     OW75314   4.377   4.924  12.533 -0.2018  0.0855 -0.4964
22179SOL    HW175315   4.395   4.849  12.476 -0.7423 -1.1136  0.8457
22179SOL    HW275316   4.314   4.890  12.598 -0.8677  1.8533 -0.1683
22180SOL     OW75317  12.466  10.549   3.245  0.3182 -0.0976  0.2178
22180SOL    HW175318  12.405  10.536   3.173  1.5691  1.4163 -1.1844
22180SOL    HW275319  12.512  10.465   3.253 -0.0641 -0.3878 -0.5200
22181SOL     OW75320   9.707  11.068  10.481  0.4717 -0.5925 -0.0331
22181SOL    HW175321   9.699  11.052  10.387  0.9108  0.4407 -0.2549
22181SOL    HW275322   9.663  10.993  10.522 -2.2684  0.3680 -1.0758
22182SOL     OW75323   3.645   5.054  10.375  0.5115 -0.0774 -0.0712
22182SOL    HW175324   3.608   5.062  10.463 -1.1271  2.3888 -0.8825
22182SOL    HW275325   3.577   5.011  10.324  0.7230  0.0863 -0.4966
22183SOL     OW75326   7.862  11.521   3.098 -0.2174 -0.1469  0.2547
22183SOL    HW175327   7.895  11.444   3.053  1.1026  0.1525  0.6850
22183SOL    HW275328   7.850  11.493   3.188 -1.6804 -0.3938  0.0161
22184SOL     OW75329   3.292   8.035  10.892 -0.1722  0.4110 -0.3188
22184SOL    HW175330   3.380   8.025  10.854 -0.4168  0.2957 -0.8702
22184SOL    HW275331   3.240   8.073  10.821  0.0015  2.8606  0.7754
22185SOL     OW75332  12.428   2.321   7.676 -0.3548 -0.0272 -0.4308
22185SOL    HW175333  12.378   2.244   7.703 -2.7513  1.4639 -0.3197
22185SOL    HW275334  12.415   2.384   7.746  0.8494  0.7967 -0.9173
22186SOL     OW75335   6.471  10.740   6.665 -0.1360  0.2702 -0.4928
22186SOL    HW175336   6.508  10.657   6.696  1.1930  0.1066 -2.3048
22186SOL    HW275337   6.517  10.807   6.715 -1.3124 -0.0417  1.0796
22187SOL     OW75338   3.333   0.720   7.237 -0.6964  0.1644  0.3603
22187SOL    HW175339   3.347   0.814   7.225  0.4653  0.0737  0.9539
22187SOL    HW275340   3.240   0.707   7.215 -0.6209  1.2722 -0.7278
22188SOL     OW75341   4.473   9.690  10.469  0.4555 -0.1893  0.3481
22188SOL    HW175342   4.458   9.666  10.378  0.1177 -0.1654  0.3971
22188SOL    HW275343   4.538   9.761  10.464 -0.6188  0.8107  0.0280
22189SOL     OW75344   9.491   4.455   7.214  0.3837 -0.2567 -0.2856
22189SOL    HW175345   9.417   4.423   7.162 -0.7802 -0.9873  1.6954
22189SOL    HW275346   9.518   4.379   7.266  0.7363  0.7012  0.9955
22190SOL     OW75347  10.553   7.353   2.382  0.0334  0.2171  0.3261
22190SOL    HW175348  10.575   7.268   2.421  1.0889  1.1142  1.8378
22190SOL    HW275349  10.470   7.339   2.337 -0.6900 -1.2095  1.9885
22191SOL     OW75350   7.987   3.610  10.758  0.4351  0.5600  0.7327
22191SOL    HW175351   7.959   3.675  10.822  2.4431  0.6077  1.6260
22191SOL    HW275352   7.982   3.656  10.674 -1.5181  0.7217  0.9019
22192SOL     OW75353   4.692   9.293   5.451 -0.2105 -0.1748  0.0391
22192SOL    HW175354   4.636   9.371   5.456  1.6871  1.4022 -1.4831
22192SOL    HW275355   4.655   9.241   5.380 -1.7655 -0.9836  1.3653
22193SOL     OW75356   6.253  11.264  10.773  0.0434  0.1803  0.2471
22193SOL    HW175357   6.168  11.309  10.780  0.1820  0.2640  1.9788
22193SOL    HW275358   6.241  11.184  10.823  0.9120  0.0794  0.3025
22194SOL     OW75359   9.890   2.928   2.216 -0.4547 -0.0902  0.0930
22194SOL    HW175360   9.894   2.938   2.311 -1.3128  1.6669 -0.0054
22194SOL    HW275361   9.797   2.929   2.195 -0.2586  0.7612 -0.8477
22195SOL     OW75362  10.963   8.184   0.960  0.1204  0.0290 -0.3355
22195SOL    HW175363  10.949   8.140   1.044 -0.0604  0.2968 -0.2253
22195SOL    HW275364  11.028   8.130   0.915  1.2322  0.6030  0.5260
22196SOL     OW75365   5.399   1.924   4.594 -0.3747 -0.1727 -0.0542
22196SOL    HW175366   5.421   1.998   4.538 -0.0946 -0.2871 -0.0968
22196SOL    HW275367   5.483   1.892   4.626 -0.5572  0.2361  0.8743
22197SOL     OW75368   4.557  10.458   8.265 -0.2007 -0.5572  0.3490
22197SOL    HW175369   4.507  10.537   8.286  0.1108 -0.6599  1.5590
22197SOL    HW275370   4.573  10.463   8.171 -2.1910 -0.3535 -0.0149
22198SOL     OW75371  12.010  11.146   1.632  0.0306 -0.0218  0.1943
22198SOL    HW175372  12.098  11.151   1.670 -0.4182  0.9445  1.1631
22198SOL    HW275373  11.961  11.090   1.693 -0.5158  1.0020  0.7245
22199SOL     OW75374   0.039   5.564   4.747  0.5132  0.2427  0.6066
22199SOL    HW175375   0.075   5.499   4.687  1.9607 -0.0041  1.6815
22199SOL    HW275376  -0.044   5.527   4.777  0.7804 -0.5774  0.3439
22200SOL     OW75377   2.271  10.034   2.794 -0.1620  0.2731 -0.2635
22200SOL    HW175378   2.306  10.123   2.800 -1.9794  0.9539  1.5464
22200SOL    HW275379   2.343   9.982   2.758  1.2519  2.3012 -0.5292
22201SOL     OW75380   4.078   0.686  12.550  0.3294  0.3394  0.2450
22201SOL    HW175381   4.141   0.733  12.496  0.8071 -0.4999  0.0520
22201SOL    HW275382   4.056   0.608  12.499  0.3255 -0.1530  0.9785
22202SOL     OW75383   5.039  11.660   3.529  0.5500 -0.1603 -0.5906
22202SOL    HW175384   4.956  11.708   3.535  0.5254  0.3201 -3.3597
22202SOL    HW275385   5.034  11.594   3.598 -0.1863  2.5850  2.2104
22203SOL     OW75386   6.620   1.108  11.258  0.6887  0.2942 -0.3719
22203SOL    HW175387   6.583   1.165  11.325 -1.4249 -1.3404 -0.0398
22203SOL    HW275388   6.714   1.124  11.262  0.5798  0.6736  2.5835
22204SOL     OW75389   2.313   9.683  11.774 -0.2851  0.1577  0.5827
22204SOL    HW175390   2.296   9.616  11.841 -2.0368  0.0806  0.1134
22204SOL    HW275391   2.343   9.759  11.824  1.2081 -0.7723  1.1694
22205SOL     OW75392   1.002   4.541   9.491  0.0096  0.2758  0.2602
22205SOL    HW175393   1.063   4.584   9.430 -1.2893  0.3387 -1.0576
22205SOL    HW275394   0.915   4.564   9.457 -0.7841  0.5928  2.3696
22206SOL     OW75395   0.554   7.047   6.870 -0.0359  0.4277 -0.1190
22206SOL    HW175396   0.518   7.135   6.886 -0.6598 -0.0708  1.4171
22206SOL    HW275397   0.499   6.989   6.922  1.2956 -0.7070  0.0796
22207SOL     OW75398   5.237  10.597  11.167 -0.5133 -0.6581  0.4628
22207SOL    HW175399   5.219  10.568  11.256 -0.5352  0.7408  0.9401
22207SOL    HW275400   5.279  10.682  11.178 -1.8641  0.2311 -0.8969
22208SOL     OW75401  10.972  12.056   2.029  0.0042 -0.0929  0.1999
22208SOL    HW175402  10.969  12.034   2.123 -0.7618  2.2131  0.7825
22208SOL    HW275403  11.048  12.113   2.021 -0.8032  0.9429 -0.2660
22209SOL     OW75404   8.340  12.465   4.452  0.6365  0.0879  0.5971
22209SOL    HW175405   8.329  12.558   4.433  1.1798  0.0089 -0.1306
22209SOL    HW275406   8.409  12.436   4.393  1.2596 -0.5378  1.5935
22210SOL     OW75407   3.495   5.520   1.113  0.8258 -0.3608 -0.4069
22210SOL    HW175408   3.515   5.468   1.190  1.0517  0.1377 -0.1236
22210SOL    HW275409   3.567   5.583   1.107 -0.3863  1.2017  0.3950
22211SOL     OW75410  12.551   5.864   5.507 -0.2489 -0.8798  0.5831
22211SOL    HW175411  12.560   5.800   5.578 -1.6396  0.2687  1.8722
22211SOL    HW275412  12.641   5.889   5.487  0.1938 -0.2784  2.9164
22212SOL     OW75413   4.664   7.862   1.389 -0.1770 -0.6410 -0.1020
22212SOL    HW175414   4.657   7.773   1.355  1.7111 -1.2050  0.8691
22212SOL    HW275415   4.574   7.896   1.385 -1.2655 -3.1636  1.0785
22213SOL     OW75416   3.433   5.939   1.891 -0.3183 -0.2178  0.2915
22213SOL    HW175417   3.453   6.032   1.878  4.6553 -0.3219  4.0451
22213SOL    HW275418   3.485   5.894   1.825 -0.9595 -0.3986 -0.0991
22214SOL     OW75419   9.324   5.046   5.990 -0.2322  0.7499 -0.2474
22214SOL    HW175420   9.317   5.093   5.907  0.1671 -0.6632 -1.1188
22214SOL    HW275421   9.377   5.103   6.045 -1.7026  2.3804 -0.4284
22215SOL     OW75422  12.420   7.784   9.528  0.1069  0.1862 -0.5212
22215SOL    HW175423  12.469   7.730   9.591  0.5204  0.3810 -0.6724
22215SOL    HW275424  12.392   7.722   9.461  2.9673  0.5272 -2.1976
22216SOL     OW75425  10.048   7.913   7.272 -0.0295 -0.1484 -0.0481
22216SOL    HW175426  10.026   7.849   7.205 -0.2020  0.3819 -0.5078
22216SOL    HW275427  10.084   7.862   7.345 -0.6666 -0.8147 -0.1956
22217SOL     OW75428   1.780   0.799  11.098  0.2903  0.1797 -0.1575
22217SOL    HW175429   1.797   0.754  11.015 -0.0702  1.0079 -0.6997
22217SOL    HW275430   1.698   0.847  11.082 -0.4643 -0.6456  1.0972
22218SOL     OW75431   7.400   5.449   2.894  0.0496  0.3778  0.1412
22218SOL    HW175432   7.473   5.489   2.847 -0.4347 -0.1360 -1.0800
22218SOL    HW275433   7.396   5.497   2.977  1.8427  0.3289  0.2967
22219SOL     OW75434   4.140   4.566   7.246  0.1547 -0.7418 -0.6575
22219SOL    HW175435   4.151   4.471   7.257  1.3011 -0.4744  0.6241
22219SOL    HW275436   4.192   4.587   7.169  0.7331 -0.9999 -0.3399
22220SOL     OW75437  11.305   2.303   1.192  0.1015  0.0285 -0.7471
22220SOL    HW175438  11.306   2.396   1.212 -1.4656  0.1128 -0.9164
22220SOL    HW275439  11.371   2.293   1.123  1.1841  0.7713  0.1522
22221SOL     OW75440   6.921  12.254   3.836  0.1707 -0.0999 -0.3635
22221SOL    HW175441   6.936  12.279   3.745 -2.0504 -1.9297 -1.3467
22221SOL    HW275442   6.920  12.158   3.834 -2.2549 -0.1903  1.0755
22222SOL     OW75443   6.644   3.800   3.045  0.2434  0.2968 -0.1688
22222SOL    HW175444   6.643   3.890   3.077  1.5655 -0.0838  1.0258
22222SOL    HW275445   6.737   3.777   3.040 -0.0602 -0.8632 -0.8912
22223SOL     OW75446   7.127   4.225   5.764 -0.0307  0.6232  0.2244
22223SOL    HW175447   7.181   4.154   5.730  2.8918  2.6726  0.2132
22223SOL    HW275448   7.179   4.261   5.837 -0.9253  3.2880 -0.3531
22224SOL     OW75449   3.708   3.336   6.137 -0.3148 -0.2708  0.1857
22224SOL    HW175450   3.649   3.393   6.087 -3.1623 -1.8022  1.5756
22224SOL    HW275451   3.681   3.347   6.228  2.1058 -0.5123  1.0073
22225SOL     OW75452  10.876   2.472   6.194 -0.2318  0.0074 -0.6290
22225SOL    HW175453  10.893   2.566   6.188 -0.8091  0.1698  0.2396
22225SOL    HW275454  10.781   2.464   6.204 -0.0210 -0.5488  1.3053
22226SOL     OW75455   0.204   8.535   4.807  0.4537 -0.1228 -0.3169
22226SOL    HW175456   0.115   8.500   4.818  0.5585 -0.4731 -0.5818
22226SOL    HW275457   0.207   8.610   4.867 -0.6669  1.1152 -1.7406
22227SOL     OW75458   1.615   0.084   3.599 -0.3428  0.0446  0.4569
22227SOL    HW175459   1.548   0.147   3.627  0.0306  1.5497 -1.7737
22227SOL    HW275460   1.688   0.097   3.659 -0.1520  2.0149 -0.1617
22228SOL     OW75461   5.688   4.894   7.679 -0.3910 -0.3455  0.4529
22228SOL    HW175462   5.626   4.963   7.704 -0.3562 -0.2592  0.3024
22228SOL    HW275463   5.672   4.879   7.586  0.2887  0.1674  0.2429
22229SOL     OW75464   2.195   2.527  12.045 -0.3946  0.3061 -0.0258
22229SOL    HW175465   2.172   2.434  12.037  0.8648 -0.1589  1.3349
22229SOL    HW275466   2.176   2.564  11.959  2.4401 -2.0036 -1.8345
22230SOL     OW75467   0.157  11.548   3.234 -0.0262  0.3163  0.0465
22230SOL    HW175468   0.233  11.576   3.183 -0.1865  0.9889  0.1649
22230SOL    HW275469   0.184  11.465   3.274 -0.1753 -0.6454 -1.7465
22231SOL     OW75470   5.670  12.156   5.513 -0.2752 -0.3178  0.2592
22231SOL    HW175471   5.754  12.138   5.555 -0.9349 -0.6930  1.4547
22231SOL    HW275472   5.689  12.226   5.451  0.7533  0.2098  1.1417
22232SOL     OW75473   7.624   0.445   9.034 -0.0182  0.7499  0.0551
22232SOL    HW175474   7.634   0.451   9.129 -0.9079  0.9128  0.1434
22232SOL    HW275475   7.596   0.533   9.007  0.7610  0.8628 -0.4349
22233SOL     OW75476   7.602   4.974   2.729 -0.2960  0.1263  0.4173
22233SOL    HW175477   7.575   4.997   2.640 -2.8103 -1.1159  0.7646
22233SOL    HW275478   7.576   5.049   2.782  0.1594  0.3946  0.2608
22234SOL     OW75479   0.741   1.676   3.178 -0.2453 -0.0649 -0.1058
22234SOL    HW175480   0.732   1.590   3.219 -0.6231  0.7472  1.5920
22234SOL    HW275481   0.677   1.676   3.107 -1.2379 -0.6998  0.7640
22235SOL     OW75482   5.303   3.264  11.627  0.5016  0.1222 -0.8977
22235SOL    HW175483   5.224   3.316  11.640  1.0039  0.4681  1.0601
22235SOL    HW275484   5.275   3.174  11.639  0.3347  0.2278 -0.4661
22236SOL     OW75485   4.284   9.149   3.026  0.1258 -0.2587  0.5651
22236SOL    HW175486   4.295   9.193   2.941  0.6435 -3.3484 -1.1111
22236SOL    HW275487   4.200   9.103   3.018  1.0813 -2.1302  0.9219
22237SOL     OW75488   6.545   4.264   7.334 -0.0187  0.0620  0.2979
22237SOL    HW175489   6.623   4.210   7.326 -0.4776 -0.6144  0.2844
22237SOL    HW275490   6.493   4.243   7.256  0.0702  0.9754 -0.0167
22238SOL     OW75491   8.362   6.352   0.486 -0.5352 -0.3197  0.2739
22238SOL    HW175492   8.396   6.264   0.469  1.1754  0.1099  1.2049
22238SOL    HW275493   8.333   6.349   0.578  1.4727  0.6049  0.9887
22239SOL     OW75494   3.267  12.454  11.341  0.2819 -0.3338  0.0795
22239SOL    HW175495   3.201  12.451  11.272 -0.3941 -0.7656  0.7343
22239SOL    HW275496   3.297  12.363  11.349 -0.6975 -0.5800  1.3312
22240SOL     OW75497   6.456   7.093   8.317  0.0755  0.1083  0.0474
22240SOL    HW175498   6.363   7.099   8.338  0.7836  2.8147  3.1866
22240SOL    HW275499   6.482   7.183   8.297  2.1228 -0.4952 -0.2637
22241SOL     OW75500   4.774   2.284   6.235 -0.5017 -0.4573  0.5702
22241SOL    HW175501   4.744   2.251   6.319  2.1662 -1.6562  1.1702
22241SOL    HW275502   4.784   2.379   6.248 -2.4308 -0.2493  0.7661
22242SOL     OW75503   5.473   8.553  11.176  0.4161  0.3408 -0.2660
22242SOL    HW175504   5.435   8.503  11.249  0.6797  0.7702  0.1761
22242SOL    HW275505   5.406   8.549  11.107 -0.3105  0.8355  0.3893
22243SOL     OW75506   1.340  10.543   5.429 -0.2857 -0.0633  0.1727
22243SOL    HW175507   1.250  10.553   5.460  0.3866  0.7511  2.0588
22243SOL    HW275508   1.386  10.502   5.503  1.0406  0.1685 -0.4921
22244SOL     OW75509   1.083  12.448   4.327 -0.1766  0.1272 -0.2533
22244SOL    HW175510   1.134  12.516   4.371  0.9383 -0.8751  0.0681
22244SOL    HW275511   1.127  12.437   4.242 -0.9692  0.5075 -0.7207
22245SOL     OW75512  11.842   6.861   3.554  0.0829  0.0084  0.0832
22245SOL    HW175513  11.920   6.915   3.544 -0.4616  0.7768 -0.0983
22245SOL    HW275514  11.868   6.794   3.617  0.2423  1.5507  1.7434
22246SOL     OW75515   5.701  10.332   0.520 -0.3877  0.2400 -0.3427
22246SOL    HW175516   5.790  10.310   0.495 -0.5442  0.0759 -0.7722
22246SOL    HW275517   5.683  10.415   0.475 -1.1905 -0.8057 -2.0681
22247SOL     OW75518   9.058   2.271  12.475  0.2188 -0.0129 -0.5800
22247SOL    HW175519   9.051   2.245  12.566  1.3024  0.6227 -0.2959
22247SOL    HW275520   8.986   2.226  12.431 -2.1253  1.9151  1.0507
22248SOL     OW75521   3.031   9.802   3.034  0.2544  0.4766  0.3733
22248SOL    HW175522   2.936   9.795   3.024  0.3307  0.0039 -0.1130
22248SOL    HW275523   3.064   9.718   3.002  0.8732  0.8452  0.0255
22249SOL     OW75524   0.464   8.521   5.276  0.3754 -0.0574 -0.4264
22249SOL    HW175525   0.402   8.468   5.226  0.5554  1.2520 -2.1193
22249SOL    HW275526   0.523   8.457   5.317 -2.1208 -1.3624  1.4039
22250SOL     OW75527   7.938   1.975   8.120 -0.1854 -0.4051 -0.5835
22250SOL    HW175528   8.029   1.996   8.100 -0.1640 -0.5886 -0.6877
22250SOL    HW275529   7.923   2.012   8.207 -0.3869  0.7340 -1.0829
22251SOL     OW75530   1.035   4.082   2.499  0.4731  0.1308  0.1221
22251SOL    HW175531   1.047   3.991   2.525  1.4795  0.6131  1.4251
22251SOL    HW275532   1.115   4.104   2.451 -0.2806 -0.0002 -1.2414
22252SOL     OW75533   6.555   5.281   6.616  0.3518 -0.0606 -0.4879
22252SOL    HW175534   6.483   5.344   6.617 -0.3629 -0.8235 -1.8665
22252SOL    HW275535   6.575   5.269   6.523 -0.1574 -2.5650 -0.3212
22253SOL     OW75536   7.125   1.269   1.734 -0.4687  0.0384 -0.4056
22253SOL    HW175537   7.124   1.179   1.766  1.2322 -0.7153 -2.1979
22253SOL    HW275538   7.193   1.312   1.786  1.4996 -0.8712 -2.0840
22254SOL     OW75539   0.662   5.177  12.194  0.1277 -0.1564  0.0283
22254SOL    HW175540   0.569   5.158  12.182 -0.0630  0.4895  0.4182
22254SOL    HW275541   0.675   5.181  12.288  0.0749  1.8583 -0.0014
22255SOL     OW75542   9.356   7.640   0.518  0.2093  1.1528 -0.5331
22255SOL    HW175543   9.446   7.637   0.551 -0.0098  1.0862  0.0655
22255SOL    HW275544   9.302   7.622   0.594 -0.3399  1.7723 -0.7631
22256SOL     OW75545   3.911   9.338  11.008  0.1502 -0.4835 -0.5806
22256SOL    HW175546   3.938   9.416  10.962 -0.0214  0.1827  0.4158
22256SOL    HW275547   3.822   9.357  11.039  0.8284 -0.2575  1.3836
22257SOL     OW75548   1.478   6.759   1.439 -0.0028  0.2699 -0.3801
22257SOL    HW175549   1.509   6.820   1.506 -1.5794  0.4803  0.1988
22257SOL    HW275550   1.383   6.755   1.453  0.0520 -2.3877 -0.3389
22258SOL     OW75551   6.881   2.009  11.774 -0.2276 -0.4062 -0.4038
22258SOL    HW175552   6.921   2.095  11.789 -0.9415  0.3250 -2.3679
22258SOL    HW275553   6.886   1.966  11.859  2.6365  0.4958  0.0026
22259SOL     OW75554   7.406  10.808  11.512 -0.2592 -0.1610  0.7275
22259SOL    HW175555   7.411  10.713  11.507  2.2789 -0.0490 -0.3922
22259SOL    HW275556   7.367  10.826  11.598 -1.1848 -2.1697  0.7732
22260SOL     OW75557  10.460  10.146  11.267  0.2648  0.1175  0.2164
22260SOL    HW175558  10.478  10.065  11.314 -3.0011 -0.9529 -0.1197
22260SOL    HW275559  10.449  10.212  11.336  0.8352 -0.1886  0.6090
22261SOL     OW75560   4.110   1.848   5.743 -0.6199  0.4658  0.2813
22261SOL    HW175561   4.046   1.783   5.770 -1.7082  1.1035 -0.6802
22261SOL    HW275562   4.119   1.836   5.649  1.6195 -0.4156  0.5526
22262SOL     OW75563   6.653   2.810   8.855  0.3665  0.3161  0.7377
22262SOL    HW175564   6.580   2.805   8.917  0.2995 -0.0824  0.6291
22262SOL    HW275565   6.681   2.902   8.858 -0.2568  0.5133  0.6433
22263SOL     OW75566   3.158   0.724   6.454 -0.3884  0.2126 -0.5967
22263SOL    HW175567   3.153   0.714   6.549  0.9838  1.6336 -0.3293
22263SOL    HW275568   3.162   0.635   6.421  3.2787 -0.4366  1.0184
22264SOL     OW75569   3.055   5.910   0.230  0.3340 -0.8385 -0.3970
22264SOL    HW175570   3.014   5.824   0.224 -0.9424 -0.3515  0.7035
22264SOL    HW275571   3.007   5.954   0.300  0.9636  0.7599 -0.9261
22265SOL     OW75572   7.368  11.322   8.919  0.3793 -0.1599 -0.4695
22265SOL    HW175573   7.382  11.318   9.014  0.0929  1.5942 -0.3237
22265SOL    HW275574   7.274  11.309   8.908  0.2977  0.4180 -0.4513
22266SOL     OW75575   7.024  11.866   9.175 -0.1885 -0.0872 -0.5347
22266SOL    HW175576   6.928  11.867   9.179 -0.1518  0.7669  1.6013
22266SOL    HW275577   7.046  11.934   9.111 -1.0016 -0.9305 -1.7373
22267SOL     OW75578   1.622   2.214  12.558 -0.2226 -0.2366 -0.0166
22267SOL    HW175579   1.713   2.233  12.533 -0.1862  0.6547  0.7460
22267SOL    HW275580   1.625   2.202  12.653 -0.6062 -2.1116 -0.2042
22268SOL     OW75581   5.269  10.667   9.833 -0.4656 -0.5293  0.0331
22268SOL    HW175582   5.232  10.720   9.762  0.5638  1.1318  0.6787
22268SOL    HW275583   5.201  10.602   9.852 -0.9931 -0.6763 -2.0680
22269SOL     OW75584   6.716  10.404   0.630 -0.1404 -0.3060  0.1165
22269SOL    HW175585   6.627  10.373   0.615 -0.2955  0.4136 -0.4863
22269SOL    HW275586   6.709  10.464   0.704 -0.5936  1.6254 -1.4259
22270SOL     OW75587   7.006   9.229   2.376  0.0745  0.1887 -0.0526
22270SOL    HW175588   7.024   9.292   2.446  3.1421 -0.3895 -0.1822
22270SOL    HW275589   6.960   9.157   2.420  0.0230  0.7827  0.8994
22271SOL     OW75590   5.898   3.265   8.141  0.1259  0.1828  0.5242
22271SOL    HW175591   5.880   3.290   8.051 -0.0457 -0.8073  0.2810
22271SOL    HW275592   5.982   3.307   8.160  0.6710 -0.4423 -0.4362
22272SOL     OW75593   5.411  11.349   6.963 -0.2571  0.2076 -0.2714
22272SOL    HW175594   5.355  11.387   7.030 -2.4742  2.2962 -3.0611
22272SOL    HW275595   5.350  11.321   6.894  1.9017 -1.3494 -1.6705
22273SOL     OW75596   9.715  10.332   3.539  0.0212  0.0378 -0.1639
22273SOL    HW175597   9.628  10.349   3.503 -0.4584 -0.8234  0.5271
22273SOL    HW275598   9.769  10.312   3.463 -0.1569  1.4295 -0.6803
22274SOL     OW75599   3.371   0.153   1.142 -0.3577 -0.0009  0.2025
22274SOL    HW175600   3.283   0.142   1.178 -0.4451 -1.1039 -0.2944
22274SOL    HW275601   3.418   0.203   1.208 -0.3576 -2.3602  2.1506
22275SOL     OW75602   5.256   5.870  12.198  0.7099 -0.1260  0.1776
22275SOL    HW175603   5.239   5.790  12.149 -1.2999  0.1886  0.2376
22275SOL    HW275604   5.189   5.931  12.167  0.6193  0.7137  1.9014
22276SOL     OW75605   1.893   2.642   6.557  0.3996 -0.0040  0.0783
22276SOL    HW175606   1.874   2.686   6.474  0.2396  0.6724  0.4660
22276SOL    HW275607   1.879   2.709   6.624  0.5957 -0.5208  0.6509
22277SOL     OW75608   8.396   6.650   1.587  0.0247  0.5916  0.3404
22277SOL    HW175609   8.395   6.713   1.516  1.1800 -0.1093 -0.3214
22277SOL    HW275610   8.388   6.565   1.544 -1.9934  0.2605  1.2462
22278SOL     OW75611  11.487   2.003   7.289 -0.4022  0.7501  0.1983
22278SOL    HW175612  11.514   1.930   7.234  0.5312  2.3728 -1.6158
22278SOL    HW275613  11.513   1.978   7.377  1.4587 -0.3897 -0.6287
22279SOL     OW75614   8.730  12.502   1.133 -0.0798 -0.4316 -0.2718
22279SOL    HW175615   8.737  12.432   1.198 -1.1357  1.9685  2.6346
22279SOL    HW275616   8.820  12.515   1.102  0.2609 -2.4261 -0.2182
22280SOL     OW75617   1.909  10.671   3.585 -0.5365 -0.3967  0.6980
22280SOL    HW175618   1.838  10.644   3.527  1.1272 -0.4606 -1.4498
22280SOL    HW275619   1.922  10.597   3.644 -1.6051 -0.7513  0.5059
22281SOL     OW75620   0.519   8.160   3.651  0.2234 -0.0321 -0.4676
22281SOL    HW175621   0.555   8.072   3.663  1.5295  0.6318  0.8502
22281SOL    HW275622   0.427   8.146   3.630  0.7942 -1.7619 -2.1232
22282SOL     OW75623   7.655   3.788   8.910 -0.5646 -0.1265 -0.4831
22282SOL    HW175624   7.656   3.693   8.893 -0.4452  0.2055 -2.5920
22282SOL    HW275625   7.741   3.806   8.949 -1.6762 -1.2680  2.9132
22283SOL     OW75626  12.312  11.137  10.601  0.1534 -0.0130 -0.6616
22283SOL    HW175627  12.369  11.060  10.607 -0.3218 -0.4365 -1.3474
22283SOL    HW275628  12.342  11.195  10.671  1.4698 -0.1811 -1.0541
22284SOL     OW75629  11.234  11.557  12.365 -0.0718  0.0050  0.3199
22284SOL    HW175630  11.240  11.618  12.439 -0.4079  2.4751 -1.5812
22284SOL    HW275631  11.319  11.562  12.322 -0.9474  1.3199 -1.4043
22285SOL     OW75632   7.000   5.283   9.023  0.2682 -0.0508  0.3826
22285SOL    HW175633   7.068   5.328   8.973  0.0621 -1.4231 -1.2583
22285SOL    HW275634   6.920   5.332   9.004  0.8975  2.6070  3.6646
22286SOL     OW75635  11.399  11.769  12.033  0.3765  0.3271  0.2855
22286SOL    HW175636  11.318  11.751  12.080 -0.3832  2.4862 -0.0816
22286SOL    HW275637  11.373  11.829  11.963  2.1376  0.2662 -0.4690
22287SOL     OW75638   9.960  10.447   0.339  0.1387 -0.0735  0.1394
22287SOL    HW175639   9.970  10.460   0.245 -0.3158  0.1784  0.1236
22287SOL    HW275640  10.022  10.509   0.378  0.0531  0.0945  0.0104
22288SOL     OW75641   0.502   4.066   6.442  0.1804 -0.2742 -0.3052
22288SOL    HW175642   0.453   4.067   6.524  0.6466  1.0672 -0.0168
22288SOL    HW275643   0.587   4.030   6.465  0.6583  1.0308  0.0323
22289SOL     OW75644   7.971   2.245   6.143  0.1368 -0.5436  0.3126
22289SOL    HW175645   7.955   2.319   6.202  0.9770 -0.0220 -0.0920
22289SOL    HW275646   8.067   2.235   6.143  0.2074 -0.0944 -1.4668
22290SOL     OW75647   4.896   7.484   0.152  0.3894  0.1919  0.5080
22290SOL    HW175648   4.977   7.478   0.203  1.5438  0.5895 -1.1809
22290SOL    HW275649   4.915   7.549   0.085 -1.0185 -0.3800 -0.4982
22291SOL     OW75650   6.039   5.538   0.236 -0.2949  0.1147 -0.5367
22291SOL    HW175651   6.108   5.541   0.303 -0.4498  1.1126 -0.4011
22291SOL    HW275652   6.086   5.518   0.155  0.2122  1.0747 -0.4975
22292SOL     OW75653   8.203   0.969   9.670  0.1846  0.1704  0.4301
22292SOL    HW175654   8.147   0.956   9.594  0.5202  0.8680  0.0576
22292SOL    HW275655   8.147   0.949   9.745 -0.6060  0.9795  0.0754
22293SOL     OW75656   7.195   4.689   3.080  0.0071 -0.2924 -0.3849
22293SOL    HW175657   7.136   4.639   3.136 -1.5336  1.3873 -0.4193
22293SOL    HW275658   7.233   4.754   3.138 -1.1184  1.0553 -1.1032
22294SOL     OW75659   5.983   7.367  11.474 -0.3368 -0.2897 -0.0421
22294SOL    HW175660   6.058   7.425  11.468  0.0605 -0.8444 -0.4574
22294SOL    HW275661   5.907   7.425  11.468 -0.0816  0.7704  3.8763
22295SOL     OW75662  10.456   1.715   5.459  0.3964 -0.4162  0.2873
22295SOL    HW175663  10.483   1.684   5.373 -1.3038 -1.1515 -0.0225
22295SOL    HW275664  10.535   1.753   5.497  1.0450  0.5200 -1.8427
22296SOL     OW75665   4.449  11.812   6.663  0.4210 -0.4720  0.3916
22296SOL    HW175666   4.439  11.887   6.605  1.6122 -0.0274  0.7336
22296SOL    HW275667   4.372  11.757   6.645  0.1900  0.2037 -0.7728
22297SOL     OW75668  10.600   2.948   4.808  0.3392 -0.4364  0.0624
22297SOL    HW175669  10.614   2.919   4.898 -0.3679 -0.8070  0.0606
22297SOL    HW275670  10.616   3.042   4.810 -0.6816 -0.2739  0.7925
22298SOL     OW75671   3.574   4.200   6.499 -0.2176 -0.1211 -0.1228
22298SOL    HW175672   3.581   4.295   6.509 -0.4970 -0.1475  0.3600
22298SOL    HW275673   3.571   4.185   6.405 -0.1836  0.3506 -0.1967
22299SOL     OW75674   6.188  10.193   8.186 -0.0876 -0.1344 -0.2822
22299SOL    HW175675   6.282  10.180   8.177  0.1585  1.4840 -0.2969
22299SOL    HW275676   6.176  10.222   8.276 -0.7536 -1.6628  0.1427
22300SOL     OW75677   5.180   8.537  10.537 -0.6080  0.0185 -0.5235
22300SOL    HW175678   5.087   8.516  10.545 -0.7516  0.8556  0.1663
22300SOL    HW275679   5.191   8.614  10.592  0.7022 -0.6554  0.1846
22301SOL     OW75680   6.168  11.630   9.091 -0.8310  0.5382 -0.1076
22301SOL    HW175681   6.203  11.668   9.172  0.7517 -0.0561 -0.4695
22301SOL    HW275682   6.194  11.538   9.095 -1.3874  0.3323 -0.9602
22302SOL     OW75683   6.700  10.059   1.894  0.8168 -0.7819 -0.1323
22302SOL    HW175684   6.689  10.078   1.801 -0.4926 -0.2963  0.1086
22302SOL    HW275685   6.703  10.145   1.936  0.7978 -1.0053  0.3316
22303SOL     OW75686   2.117   9.917  10.449  0.0577  0.3630 -0.0704
22303SOL    HW175687   2.173   9.924  10.371  0.3585  0.2175  0.1274
22303SOL    HW275688   2.159   9.974  10.514  0.6873 -0.7030  0.4848
22304SOL     OW75689   3.374   2.153   6.318 -0.7282 -0.4898  0.0527
22304SOL    HW175690   3.306   2.086   6.328 -1.0584  0.1826  3.0650
22304SOL    HW275691   3.348   2.223   6.377  0.8649  1.3059 -1.2565
22305SOL     OW75692   9.423   0.073   4.471 -0.2011  0.1978 -0.1752
22305SOL    HW175693   9.474   0.002   4.433  1.2282  0.2897  1.4589
22305SOL    HW275694   9.486   0.122   4.525 -1.7926  0.9237  1.1149
22306SOL     OW75695  10.952   8.866   2.506  0.0879 -0.6820  0.0516
22306SOL    HW175696  10.932   8.959   2.500 -0.3884 -0.8416 -1.0615
22306SOL    HW275697  10.990   8.844   2.421  1.8648 -1.1374  0.9128
22307SOL     OW75698   3.271  11.745   8.963 -0.4915 -0.0775  0.0910
22307SOL    HW175699   3.246  11.744   8.870 -0.0579 -0.1260 -0.0317
22307SOL    HW275700   3.212  11.684   9.005 -1.4672  0.8199  0.0554
22308SOL     OW75701   1.654   1.291   9.611  0.2769  0.2592  0.1760
22308SOL    HW175702   1.658   1.224   9.680 -1.6197  0.2945  0.3615
22308SOL    HW275703   1.663   1.374   9.658 -1.4490  0.3055  0.4727
22309SOL     OW75704   3.392   2.178  11.206  0.3108 -0.2876  0.6869
22309SOL    HW175705   3.459   2.218  11.262 -1.4685  2.6645  0.9391
22309SOL    HW275706   3.339   2.126  11.266  0.3391  0.2257  1.1705
22310SOL     OW75707   5.693   3.099   4.462  0.2226  0.2167 -0.1623
22310SOL    HW175708   5.776   3.118   4.418 -0.0894 -0.2700 -0.9761
22310SOL    HW275709   5.675   3.176   4.516  1.2055  0.3216  0.0313
22311SOL     OW75710   5.660   9.323   7.926  0.0800  0.3322 -0.2834
22311SOL    HW175711   5.643   9.354   8.015  1.1674 -0.2789  0.1482
22311SOL    HW275712   5.671   9.403   7.874 -0.1540  0.6829  0.2019
22312SOL     OW75713   6.894   5.173   1.211  0.0829  0.3896 -0.3785
22312SOL    HW175714   6.819   5.128   1.171 -0.3810 -0.2487  1.1397
22312SOL    HW275715   6.954   5.102   1.236  0.7655  0.8340 -0.7370
22313SOL     OW75716   5.774   4.766   9.039  0.3425 -0.3265 -0.7934
22313SOL    HW175717   5.834   4.745   9.110  0.9491  2.0521 -0.4904
22313SOL    HW275718   5.826   4.755   8.959  0.8147  0.4772 -0.6108
22314SOL     OW75719   1.038   0.181   1.816  0.1515 -0.2160  0.3190
22314SOL    HW175720   1.006   0.270   1.797  2.7601  0.7634  0.1682
22314SOL    HW275721   1.118   0.173   1.765  0.9829 -1.9516  1.7977
22315SOL     OW75722   7.938  11.114   3.306  0.3817  0.5496 -0.3770
22315SOL    HW175723   7.917  11.032   3.261 -0.2586  0.0108  0.8649
22315SOL    HW275724   8.034  11.121   3.300  1.0651 -2.5512  3.1152
22316SOL     OW75725   7.907   4.055   6.266 -0.6372 -0.0380  0.1476
22316SOL    HW175726   7.946   3.968   6.259  0.5393  0.4874 -0.0668
22316SOL    HW275727   7.860   4.054   6.349  0.9537 -0.2880  1.0832
22317SOL     OW75728   2.413   8.154   3.096 -0.2592 -0.1286  0.0749
22317SOL    HW175729   2.409   8.117   3.184  0.4723  1.2440  0.7068
22317SOL    HW275730   2.326   8.138   3.059 -0.9323  0.2554  1.4438
22318SOL     OW75731   7.277   3.649   0.098  0.4827  0.5241  0.0766
22318SOL    HW175732   7.253   3.700   0.020  0.8920  1.5264  0.5864
22318SOL    HW275733   7.242   3.699   0.171  0.8610  0.0487  0.5949
22319SOL     OW75734   8.765   1.238   4.868  0.3082  0.1659 -0.2741
22319SOL    HW175735   8.812   1.175   4.813  0.9416  1.3537 -1.1593
22319SOL    HW275736   8.835   1.285   4.915 -0.0834  0.7764 -0.2898
22320SOL     OW75737   5.139   0.698  11.511 -0.1216  0.3567  0.0579
22320SOL    HW175738   5.067   0.757  11.489  1.4397  1.9822 -0.9913
22320SOL    HW275739   5.136   0.631  11.442 -0.0832  0.9347 -0.5142
22321SOL     OW75740   9.289   5.841  10.378 -0.6097 -0.5183 -0.0849
22321SOL    HW175741   9.326   5.777  10.316  0.3439 -2.0067  1.8942
22321SOL    HW275742   9.365   5.876  10.424 -1.3934 -1.4853  2.0817
22322SOL     OW75743  11.227   6.344  10.008 -0.4308  0.2892  0.1932
22322SOL    HW175744  11.177   6.319  10.086 -0.9609  0.3583 -0.1248
22322SOL    HW275745  11.254   6.261   9.969  0.9470  0.2534  1.1521
22323SOL     OW75746  10.257   8.233  11.671 -0.7908  0.6316  0.2045
22323SOL    HW175747  10.251   8.141  11.645 -1.8059  0.6548  0.3370
22323SOL    HW275748  10.295   8.230  11.759  3.4293  0.5865 -1.3979
22324SOL     OW75749   4.235   2.235   6.757  0.1242  0.2927  0.2439
22324SOL    HW175750   4.200   2.323   6.745  0.0811  0.1317 -0.9484
22324SOL    HW275751   4.159   2.177   6.749  0.1377  0.1393  1.1095
22325SOL     OW75752   6.942   3.898  11.760  0.0375  0.3317  0.7305
22325SOL    HW175753   7.018   3.957  11.767  0.0020  0.3421  1.0298
22325SOL    HW275754   6.977   3.820  11.717 -0.1275  0.9534 -0.5885
22326SOL     OW75755   5.538   7.287   2.483  0.0820 -0.0749  0.2359
22326SOL    HW175756   5.526   7.193   2.497 -1.5977  0.3488  2.0149
22326SOL    HW275757   5.463   7.314   2.430  0.4972  0.3106 -0.1773
22327SOL     OW75758   4.305   5.254   7.174  0.2127  0.3759 -0.1416
22327SOL    HW175759   4.390   5.210   7.174 -0.3805 -0.8294 -0.3466
22327SOL    HW275760   4.323   5.343   7.146  1.5308  0.3983  0.6903
22328SOL     OW75761  10.774  11.687   5.017  0.1938 -0.2603  0.0347
22328SOL    HW175762  10.866  11.704   4.995  0.4597 -1.6535 -0.0324
22328SOL    HW275763  10.777  11.605   5.066 -0.8726  0.4217  1.3078
22329SOL     OW75764   6.745   1.352  10.644 -0.2846 -0.3283 -0.3226
22329SOL    HW175765   6.665   1.305  10.667  0.5785 -0.5649  2.6278
22329SOL    HW275766   6.716   1.440  10.621 -1.3438  0.3721  3.1541
22330SOL     OW75767  11.694   9.115   4.008 -0.1335  0.4873  0.2645
22330SOL    HW175768  11.640   9.170   4.065  0.3779  0.0178  1.2314
22330SOL    HW275769  11.784   9.140   4.030  0.0857 -0.2836  0.2507
22331SOL     OW75770   2.617  12.028   5.369 -0.1201  0.3236  0.2415
22331SOL    HW175771   2.668  11.955   5.405  2.2042  1.8238  0.2013
22331SOL    HW275772   2.544  11.986   5.324  0.2509 -1.8887  1.5284
22332SOL     OW75773  10.274   1.384   2.077 -0.2758 -0.0526 -0.0496
22332SOL    HW175774  10.240   1.339   2.155  0.6359 -0.8294 -0.0783
22332SOL    HW275775  10.309   1.466   2.110  0.8870 -0.7490  0.5326
22333SOL     OW75776   1.191  11.652   5.286 -0.1822 -0.6355 -0.1489
22333SOL    HW175777   1.252  11.672   5.215 -0.4495  0.4006 -0.1044
22333SOL    HW275778   1.202  11.558   5.302  1.0545 -0.5592 -0.4586
22334SOL     OW75779  10.238   8.015   7.094  0.0478 -0.5893  0.2966
22334SOL    HW175780  10.198   8.053   7.016 -0.2617  2.0580  1.6304
22334SOL    HW275781  10.164   7.986   7.147  0.0962  0.3833  0.9049
22335SOL     OW75782   3.911   7.531  12.178 -0.0923  0.7842  0.2351
22335SOL    HW175783   3.938   7.481  12.255 -0.6321  0.0625 -0.0258
22335SOL    HW275784   3.923   7.622  12.203  0.8075  0.5387  0.7699
22336SOL     OW75785   0.603   2.701  11.569  0.5491 -0.0548  0.4054
22336SOL    HW175786   0.550   2.750  11.506  1.3769  0.6939  0.2738
22336SOL    HW275787   0.603   2.612  11.535 -1.0509 -0.2115  0.6959
22337SOL     OW75788   4.314   8.907   7.666 -0.0697 -0.0936  0.0139
22337SOL    HW175789   4.247   8.976   7.665 -1.5601 -1.1188  4.8396
22337SOL    HW275790   4.394   8.953   7.689 -0.1675  0.4681 -0.6987
22338SOL     OW75791   4.555  10.155   8.259  0.4894  0.5587 -0.1498
22338SOL    HW175792   4.578  10.243   8.230  0.2998  0.0154 -2.0918
22338SOL    HW275793   4.465  10.163   8.291  0.4564  1.0511 -0.3632
22339SOL     OW75794   9.555   4.468   1.167  0.0400 -0.3214  0.2171
22339SOL    HW175795   9.468   4.508   1.175 -0.1808 -0.6767 -0.3930
22339SOL    HW275796   9.578   4.442   1.256 -0.9703 -1.2548  0.2226
22340SOL     OW75797  12.575   8.915   1.488  0.3799  0.5502 -0.1839
22340SOL    HW175798  12.514   8.845   1.464 -1.0656  1.4150  0.8810
22340SOL    HW275799  12.615   8.884   1.570  0.9034  0.3027 -0.5200
22341SOL     OW75800   8.514   5.132   9.489 -0.1836  0.2430  0.3716
22341SOL    HW175801   8.526   5.062   9.553  1.5099  1.4755  1.4954
22341SOL    HW275802   8.541   5.093   9.406  1.5670 -0.2393  1.1199
22342SOL     OW75803   9.071   9.808  11.076  0.2115 -0.1905 -0.3944
22342SOL    HW175804   9.020   9.824  10.997  0.2167  0.0341 -0.3535
22342SOL    HW275805   9.005   9.792  11.144  0.1143  1.7143  0.0181
22343SOL     OW75806   3.592  11.111   5.091  0.0729  0.0560 -0.3587
22343SOL    HW175807   3.555  11.198   5.104  0.8094  0.2488  0.5190
22343SOL    HW275808   3.683  11.119   5.121 -0.1860 -1.3139  0.8988
22344SOL     OW75809   5.722   8.042   9.529  0.0481  0.0697  0.0166
22344SOL    HW175810   5.742   8.029   9.622  2.5483  0.9677 -0.3148
22344SOL    HW275811   5.635   8.081   9.529 -0.4269 -0.8357  1.9037
22345SOL     OW75812   1.660  12.359   0.442  0.0281 -0.3500 -0.5685
22345SOL    HW175813   1.569  12.332   0.426 -0.4601  0.7992  0.1690
22345SOL    HW275814   1.693  12.383   0.355 -0.4504 -0.5213 -0.8025
22346SOL     OW75815   8.641   6.332  11.839  0.0649 -0.0321 -0.5088
22346SOL    HW175816   8.605   6.292  11.760 -0.4990 -0.0472 -0.2510
22346SOL    HW275817   8.731   6.353  11.816 -0.5986  1.6807 -1.7815
22347SOL     OW75818   6.969   3.710   1.212 -0.1322 -0.3046  1.2699
22347SOL    HW175819   7.000   3.691   1.300  1.3987 -1.4293  0.5439
22347SOL    HW275820   7.036   3.767   1.174 -0.4828 -0.2876  0.6537
22348SOL     OW75821  10.974  12.254   4.553 -0.2869 -0.3870  0.1641
22348SOL    HW175822  10.986  12.314   4.479  0.5082  1.6390  1.8356
22348SOL    HW275823  11.059  12.211   4.563  0.4074  1.1364  1.3080
22349SOL     OW75824   6.338   7.427   0.487 -0.0735  0.2696 -0.1204
22349SOL    HW175825   6.381   7.509   0.462  2.4003 -0.4425  1.4312
22349SOL    HW275826   6.327   7.380   0.405  0.5068  1.2385 -0.7774
22350SOL     OW75827   5.556   8.182   1.206 -0.0411 -0.4782 -0.3940
22350SOL    HW175828   5.485   8.245   1.194 -0.3121 -0.7139 -0.0329
22350SOL    HW275829   5.630   8.219   1.158  0.5392  1.2941  1.7194
22351SOL     OW75830   2.774   0.683  11.344 -0.2979 -0.3415 -0.0414
22351SOL    HW175831   2.824   0.741  11.285 -1.2487 -0.9927 -1.5513
22351SOL    HW275832   2.792   0.595  11.311 -1.2913 -0.6821  0.2990
22352SOL     OW75833   0.549   0.265   6.359  0.2004 -0.8671 -0.2083
22352SOL    HW175834   0.489   0.336   6.337 -0.4661 -1.2913  0.1927
22352SOL    HW275835   0.510   0.188   6.318  0.0135 -1.3004  0.7510
22353SOL     OW75836   4.941   1.221   1.276  0.3089 -0.0457  0.4570
22353SOL    HW175837   4.863   1.215   1.221  0.9121  0.4473 -0.4959
22353SOL    HW275838   4.979   1.133   1.273  0.3987  0.0028 -0.0413
22354SOL     OW75839   6.904   7.409   3.100  0.3759  0.3766  0.1859
22354SOL    HW175840   6.885   7.454   3.183 -0.2114 -0.8671  0.7444
22354SOL    HW275841   6.858   7.325   3.107  1.9714 -0.6015 -0.5639
22355SOL     OW75842  10.196   8.990   0.253 -0.6237 -0.5640 -0.0692
22355SOL    HW175843  10.186   8.913   0.197 -1.3969 -0.3235 -0.2744
22355SOL    HW275844  10.137   9.055   0.215  1.2801  0.7634 -0.9797
22356SOL     OW75845   3.513   3.900   8.192  0.2071  0.4600  0.4379
22356SOL    HW175846   3.530   3.812   8.225  1.1499  0.6908  0.5887
22356SOL    HW275847   3.453   3.887   8.118  1.0733 -0.3862 -0.1310
22357SOL     OW75848   6.234   4.415  12.450  0.2996  0.0910 -0.2496
22357SOL    HW175849   6.179   4.409  12.529 -1.1746  1.1035 -1.1508
22357SOL    HW275850   6.197   4.488  12.400  1.5667 -0.1499 -1.6212
22358SOL     OW75851  10.394   4.788   9.472  0.1861  0.5850  0.6180
22358SOL    HW175852  10.350   4.804   9.388 -0.6839  0.1469  0.9860
22358SOL    HW275853  10.339   4.831   9.537  0.3903  0.1730  1.0678
22359SOL     OW75854   6.584   0.832   5.575  0.5183  0.2852 -0.1162
22359SOL    HW175855   6.679   0.825   5.577  0.5993  1.3702  1.9663
22359SOL    HW275856   6.567   0.916   5.531  0.5604  0.4537  0.1859
22360SOL     OW75857   9.330   4.172   3.666 -0.3611  0.0279  0.5024
22360SOL    HW175858   9.250   4.210   3.703 -0.7561 -0.4304  0.1474
22360SOL    HW275859   9.369   4.243   3.615 -1.8814 -0.3962 -1.4087
22361SOL     OW75860  12.379   6.109   5.023 -0.1038  0.3379  0.0804
22361SOL    HW175861  12.454   6.101   4.965 -0.5061 -1.5386 -0.2331
22361SOL    HW275862  12.411   6.081   5.109 -0.4209 -0.4029 -0.0394
22362SOL     OW75863  12.012   5.501  11.203  0.0214 -0.3296 -0.9765
22362SOL    HW175864  11.955   5.552  11.260  0.1534 -1.7046  0.4382
22362SOL    HW275865  11.985   5.410  11.215  1.9081 -0.9423 -0.9101
22363SOL     OW75866   4.214   3.773   5.836 -0.8367 -0.0273 -0.2138
22363SOL    HW175867   4.123   3.795   5.857 -0.9137 -0.8214  0.3554
22363SOL    HW275868   4.226   3.685   5.874  0.4710  0.4769  0.6054
22364SOL     OW75869   8.174   6.966   7.332  0.2329  0.3263 -0.4281
22364SOL    HW175870   8.109   6.929   7.392  0.1614  0.6807 -0.2825
22364SOL    HW275871   8.258   6.951   7.375  0.1514  0.9204 -0.0570
22365SOL     OW75872   3.081   1.738   0.889 -0.2809 -0.0393  0.1543
22365SOL    HW175873   3.014   1.732   0.821 -0.0645  0.3271 -0.0954
22365SOL    HW275874   3.091   1.649   0.922 -1.0975 -0.0467  0.3887
22366SOL     OW75875   5.572   4.051  11.403 -0.1476 -0.0636 -0.9132
22366SOL    HW175876   5.588   4.031  11.311 -0.3157  0.3484 -1.0352
22366SOL    HW275877   5.490   4.006  11.423 -0.0245 -0.2895 -0.9214
22367SOL     OW75878   2.666   9.912   5.911 -0.1503 -0.0179 -0.4731
22367SOL    HW175879   2.607   9.846   5.873 -0.7027  1.5654 -2.5639
22367SOL    HW275880   2.613   9.956   5.977 -0.5198 -0.1805 -0.6585
22368SOL     OW75881   9.231   8.753   3.443 -0.2663  0.0268  0.6872
22368SOL    HW175882   9.296   8.809   3.401 -0.7705  1.0676  1.2602
22368SOL    HW275883   9.250   8.760   3.536  0.8196 -2.2344  0.6982
22369SOL     OW75884  10.484   4.277   5.833  0.1627  0.4077 -0.0920
22369SOL    HW175885  10.459   4.303   5.921  1.7999  0.8134  0.2874
22369SOL    HW275886  10.529   4.354   5.797 -1.5599  0.7020 -1.7597
22370SOL     OW75887  12.436  11.435   0.595 -0.2405 -0.1062  0.2640
22370SOL    HW175888  12.376  11.375   0.551 -1.1007  1.2533 -0.5060
22370SOL    HW275889  12.384  11.475   0.664  0.1492  0.1766  0.4002
22371SOL     OW75890   6.649   8.363   7.594 -0.2211 -0.4183  0.4152
22371SOL    HW175891   6.726   8.415   7.571 -0.6622 -0.3219 -0.9746
22371SOL    HW275892   6.611   8.406   7.670  1.0828 -0.4619  1.1046
22372SOL     OW75893   2.502  12.009   9.160  0.4024 -0.4271  0.0411
22372SOL    HW175894   2.426  12.032   9.108  0.4300 -1.8086 -0.6413
22372SOL    HW275895   2.471  11.942   9.221  1.0929 -1.0792 -0.3171
22373SOL     OW75896   2.432   6.851   8.042  0.4223 -0.6676  0.0621
22373SOL    HW175897   2.462   6.914   8.107 -1.2979 -0.6306  0.8817
22373SOL    HW275898   2.485   6.773   8.058  0.0193 -0.6710  1.5754
22374SOL     OW75899  11.759   2.308  12.310 -0.4635  0.4049  0.0174
22374SOL    HW175900  11.854   2.317  12.325 -0.4734  1.0304 -0.2613
22374SOL    HW275901  11.752   2.251  12.233 -0.3170  0.2109  0.1473
22375SOL     OW75902   0.416   7.166  12.506 -0.1331  0.1312 -0.3320
22375SOL    HW175903   0.505   7.164  12.541 -0.6370 -0.3993  1.0127
22375SOL    HW275904   0.365   7.210  12.574 -0.9388  0.2205 -0.9835
22376SOL     OW75905   6.852  10.108   4.704  0.0691 -0.1627  0.1204
22376SOL    HW175906   6.837  10.052   4.628 -1.6795  0.5760 -0.1126
22376SOL    HW275907   6.910  10.178   4.672 -0.6670  0.1466 -0.5458
22377SOL     OW75908   0.139   2.773  10.226 -0.0180  0.5112 -0.1737
22377SOL    HW175909   0.105   2.709  10.164 -1.1191  1.5838 -0.7010
22377SOL    HW275910   0.090   2.757  10.307 -1.2338  1.4872 -0.6803
22378SOL     OW75911   0.576   3.846   0.615  0.6759  0.5782  0.3401
22378SOL    HW175912   0.497   3.895   0.594  1.0643  1.2652  0.4548
22378SOL    HW275913   0.619   3.831   0.531 -0.0610 -0.6659  0.1599
22379SOL     OW75914  11.228   1.713   2.520  0.1853  0.2180  0.4727
22379SOL    HW175915  11.171   1.686   2.449  1.0753  1.6253 -0.8299
22379SOL    HW275916  11.213   1.648   2.589 -3.4614  0.8840  0.4898
22380SOL     OW75917  12.384  11.219  11.748 -0.0126  0.0889 -0.1130
22380SOL    HW175918  12.372  11.217  11.653 -0.8129 -0.5848 -0.0069
22380SOL    HW275919  12.368  11.129  11.776 -0.1358  0.3596  0.7049
22381SOL     OW75920   9.305   2.628   5.590 -0.1004  0.0824  0.4161
22381SOL    HW175921   9.386   2.678   5.595  1.2199 -1.9771  4.1514
22381SOL    HW275922   9.237   2.693   5.573  2.0632  2.1453 -0.9884
22382SOL     OW75923  12.516   8.300   1.076  0.2928 -0.0535 -0.4755
22382SOL    HW175924  12.492   8.208   1.061  0.2857  0.0354 -1.0118
22382SOL    HW275925  12.529   8.305   1.171 -1.5343 -0.1737 -0.1826
22383SOL     OW75926  12.299   6.179   9.650 -0.0810 -0.0945  0.1392
22383SOL    HW175927  12.250   6.254   9.685 -1.5325 -0.7539 -0.4253
22383SOL    HW275928  12.384   6.184   9.694 -0.1972  1.7790  0.2446
22384SOL     OW75929   9.706   9.178   2.316 -0.1554 -0.1139  0.5110
22384SOL    HW175930   9.623   9.130   2.321 -0.7534  0.9216  0.6542
22384SOL    HW275931   9.689   9.261   2.358  1.4978 -0.5727  2.2162
22385SOL     OW75932  11.144   5.382   1.174 -0.8361 -0.0698 -0.6704
22385SOL    HW175933  11.171   5.310   1.229  0.3981  0.9884  0.1525
22385SOL    HW275934  11.152   5.460   1.229 -2.1629  0.7148 -1.5107
22386SOL     OW75935   9.011  11.621  10.398  0.2331 -0.3147 -0.3527
22386SOL    HW175936   9.087  11.678  10.384 -0.8643  2.7626  4.0087
22386SOL    HW275937   8.952  11.640  10.324  2.1607 -0.0694 -1.8964
22387SOL     OW75938   7.465  11.112   5.970 -0.2265  0.0564 -0.0231
22387SOL    HW175939   7.457  11.136   6.062  0.2655  1.8370 -0.3891
22387SOL    HW275940   7.375  11.108   5.938 -0.3706  0.2993  0.3414
22388SOL     OW75941   6.966   2.665   4.266  0.0284  0.7553  0.7899
22388SOL    HW175942   6.999   2.680   4.354 -0.2975 -0.3458  1.1043
22388SOL    HW275943   6.876   2.698   4.268 -0.0301  0.5892  0.9126
22389SOL     OW75944   6.982  11.997   3.428  0.2755  0.0377  0.3434
22389SOL    HW175945   6.921  12.023   3.496 -0.9815 -2.0119  0.0768
22389SOL    HW275946   6.978  11.901   3.427 -0.2185 -0.0258 -2.9545
22390SOL     OW75947   2.440   8.906   7.669  0.4007  1.0005  0.2596
22390SOL    HW175948   2.528   8.938   7.650  0.1144  0.9543 -1.2717
22390SOL    HW275949   2.397   8.978   7.716  1.0880  1.2037  0.5847
22391SOL     OW75950   6.194  12.137   2.784  0.0339 -0.4080 -0.2358
22391SOL    HW175951   6.109  12.163   2.748  0.4351 -0.6317 -1.3696
22391SOL    HW275952   6.252  12.211   2.765  0.9802 -1.6924 -2.7586
22392SOL     OW75953  11.835   0.139   6.952 -0.4671  0.0990 -0.3576
22392SOL    HW175954  11.852   0.067   6.891  0.4905 -0.9525  1.0707
22392SOL    HW275955  11.762   0.109   7.006 -0.1333  0.2183  0.1771
22393SOL     OW75956   9.113   2.318   9.556 -0.2923  0.4918  0.6231
22393SOL    HW175957   9.115   2.397   9.501 -3.3594 -0.7678 -1.5777
22393SOL    HW275958   9.076   2.251   9.500 -0.2276 -1.8906  3.2290
22394SOL     OW75959   1.312  11.753   1.305  0.1219 -0.2376  0.2259
22394SOL    HW175960   1.217  11.749   1.313  0.0183  0.0403 -0.8453
22394SOL    HW275961   1.336  11.670   1.263  0.2091  0.2801 -0.7672
22395SOL     OW75962   9.090   2.927   8.041  0.1486 -0.4185 -0.4142
22395SOL    HW175963   9.183   2.920   8.062 -0.1500 -0.9659  0.8198
22395SOL    HW275964   9.071   2.849   7.988  0.1397 -0.9367  0.3430
22396SOL     OW75965   7.475  12.011   4.733 -0.3835 -0.2105  0.3809
22396SOL    HW175966   7.568  11.998   4.749 -0.8188 -1.4850  2.1720
22396SOL    HW275967   7.438  11.923   4.728 -1.8501  0.2223  2.2270
22397SOL     OW75968   9.324  12.350   3.896  0.3073  0.2936 -0.1447
22397SOL    HW175969   9.313  12.393   3.810 -0.1755  0.7966  0.1620
22397SOL    HW275970   9.373  12.270   3.876  0.5871  0.6200 -0.8330
22398SOL     OW75971   4.554  11.580   7.263 -0.2559 -0.2017 -0.2530
22398SOL    HW175972   4.501  11.642   7.313  0.2602 -0.6724  0.9020
22398SOL    HW275973   4.550  11.499   7.313  2.4879  0.0568  0.5187
22399SOL     OW75974   2.163   1.578   6.139 -0.2502 -0.0523  0.8129
22399SOL    HW175975   2.172   1.486   6.117  1.5530 -0.1361  1.6582
22399SOL    HW275976   2.229   1.622   6.085 -0.9722  0.7268  0.5467
22400SOL     OW75977   9.517   2.696   7.528  0.0193  0.0513  0.8141
22400SOL    HW175978   9.427   2.721   7.546 -0.4375 -0.7377 -0.2534
22400SOL    HW275979   9.561   2.778   7.505 -0.1072  0.6142  2.4431
22401SOL     OW75980   3.094   7.597   4.227  0.4384 -0.1618 -0.3282
22401SOL    HW175981   3.112   7.691   4.218 -0.2736 -0.0245 -0.4297
22401SOL    HW275982   3.141   7.570   4.306 -0.3099  0.5409  0.3705
22402SOL     OW75983   8.510   9.423   1.687  0.3280  0.3390 -0.4082
22402SOL    HW175984   8.528   9.335   1.653 -1.7414 -1.2135  2.1426
22402SOL    HW275985   8.426   9.447   1.647 -0.1585  0.1880  0.4881
22403SOL     OW75986   1.007   8.569   0.148  0.1951  0.2674 -0.2942
22403SOL    HW175987   1.078   8.520   0.191 -0.2814 -2.5051 -2.4235
22403SOL    HW275988   0.927   8.532   0.184 -0.1807  0.4687 -0.9058
22404SOL     OW75989  11.589   2.967   3.837  0.6753  0.1678 -0.2551
22404SOL    HW175990  11.667   2.991   3.786  2.0942 -0.6918  1.4204
22404SOL    HW275991  11.623   2.944   3.923 -1.6730  2.1638  1.3464
22405SOL     OW75992   5.340   8.468  12.566  0.1247 -0.0530  0.1824
22405SOL    HW175993   5.434   8.477  12.583  0.5540 -1.0168 -1.4185
22405SOL    HW275994   5.300   8.544  12.609  1.4036 -0.5256  2.3573
22406SOL     OW75995   5.618  10.940   1.534  0.2886  0.1884 -0.8248
22406SOL    HW175996   5.574  11.011   1.487  0.2156  0.2269 -0.6993
22406SOL    HW275997   5.575  10.860   1.503 -1.2976  0.3423  0.7774
22407SOL     OW75998   3.493   6.101  10.053 -0.2808  0.0649 -0.0200
22407SOL    HW175999   3.435   6.135   9.985 -0.4294  4.6143  2.0282
22407SOL    HW276000   3.576   6.085  10.008 -1.2475 -0.1844 -1.8111
22408SOL     OW76001   6.739   8.952   6.863 -0.1600  0.3466 -0.2902
22408SOL    HW176002   6.731   9.042   6.832 -0.7070  0.4246  0.0679
22408SOL    HW276003   6.649   8.924   6.879  0.1097  0.4129  1.4836
22409SOL     OW76004   6.669  11.707   7.841  0.0311  0.3485  0.2730
22409SOL    HW176005   6.655  11.612   7.844 -0.1838  0.3537 -0.3303
22409SOL    HW276006   6.626  11.740   7.919  0.2286 -0.0680  0.5617
22410SOL     OW76007   4.839   2.871   9.002 -0.1097  0.3889  0.1902
22410SOL    HW176008   4.854   2.961   9.031  0.3430 -0.1066  1.5675
22410SOL    HW276009   4.770   2.878   8.936  1.5808  2.0269 -1.5860
22411SOL     OW76010  10.783   0.936   8.058  0.3438  0.3081 -0.1886
22411SOL    HW176011  10.864   0.889   8.075  0.3034 -0.5321 -2.0658
22411SOL    HW276012  10.791   0.966   7.967 -0.7606  1.6482  0.1223
22412SOL     OW76013   2.347   4.938   5.580 -0.4367  0.4908  1.4110
22412SOL    HW176014   2.400   5.015   5.558  2.4885 -1.6523  0.3103
22412SOL    HW276015   2.394   4.897   5.653 -0.2211 -1.7484  0.0907
22413SOL     OW76016   2.173   8.132   5.131 -0.2017 -0.0186  0.7658
22413SOL    HW176017   2.246   8.131   5.069  1.3102  0.9167  2.4205
22413SOL    HW276018   2.097   8.158   5.079  0.7356 -0.5152 -0.9146
22414SOL     OW76019  11.697   2.144   4.958  0.6158  0.0346 -0.0369
22414SOL    HW176020  11.674   2.071   4.900 -0.3672  0.8510 -0.6935
22414SOL    HW276021  11.788   2.127   4.982 -0.0786 -2.3482  1.2127
22415SOL     OW76022  10.189   2.224   7.991  0.4006 -0.0061  0.2429
22415SOL    HW176023  10.122   2.180   7.938  1.6632 -0.2042 -1.2447
22415SOL    HW276024  10.141   2.253   8.069 -1.3133 -0.5538 -0.5367
22416SOL     OW76025   8.507   7.721   0.579  0.1893 -0.2490 -0.4810
22416SOL    HW176026   8.473   7.682   0.498  0.4944  2.2682 -1.9285
22416SOL    HW276027   8.439   7.782   0.606  1.0367  0.5307 -0.0745
22417SOL     OW76028   8.191   7.517  10.078 -0.2160  0.6598 -0.2675
22417SOL    HW176029   8.212   7.428  10.049 -1.2284  0.6564 -1.0522
22417SOL    HW276030   8.248   7.532  10.154 -1.4102 -1.3831  1.1245
22418SOL     OW76031   3.455   0.267   7.860 -0.1982 -0.1007 -0.2049
22418SOL    HW176032   3.385   0.307   7.808  0.6416  0.7018 -0.7625
22418SOL    HW276033   3.511   0.341   7.886  1.0549 -0.8294 -0.7358
22419SOL     OW76034   0.961   2.921   2.585 -0.2256  0.1641  0.0860
22419SOL    HW176035   0.947   2.996   2.643 -1.6389 -0.7651  0.9891
22419SOL    HW276036   0.982   2.848   2.644  3.7793  0.2991 -0.8774
22420SOL     OW76037  10.326   9.582   1.353  0.1844 -0.2956  0.3210
22420SOL    HW176038  10.407   9.633   1.347  0.4451 -0.8036 -0.7308
22420SOL    HW276039  10.298   9.592   1.444  1.6010 -0.3546  0.7867
22421SOL     OW76040   7.646   0.550   0.179 -0.3127  0.2333  0.1063
22421SOL    HW176041   7.684   0.470   0.142  0.8199  0.1699  1.3292
22421SOL    HW276042   7.715   0.586   0.234 -1.7663  0.5030  1.8498
22422SOL     OW76043  10.276   4.293   1.076  0.0211 -0.2789  0.1594
22422SOL    HW176044  10.211   4.223   1.069  0.7151 -0.8962 -0.2690
22422SOL    HW276045  10.247   4.359   1.014 -0.7962 -0.0406  0.7701
22423SOL     OW76046   8.935   8.555   9.972 -0.4514  0.4571  0.0478
22423SOL    HW176047   9.007   8.614   9.993 -0.3742  0.1571  0.6842
22423SOL    HW276048   8.885   8.550  10.054 -2.1760  1.9773 -0.8392
22424SOL     OW76049   4.990   1.426   6.926  0.6178 -0.4267 -0.1072
22424SOL    HW176050   5.000   1.499   6.864 -0.3746  0.0878  0.3166
22424SOL    HW276051   5.013   1.348   6.876  2.6440  0.2420 -0.3150
22425SOL     OW76052   7.241  10.367  12.347 -0.5050  0.1729 -0.5951
22425SOL    HW176053   7.171  10.386  12.286  0.7416 -0.4304 -2.2862
22425SOL    HW276054   7.197  10.345  12.429 -2.1673  4.1257 -0.2358
22426SOL     OW76055   4.939   9.741   4.424  0.0716  0.6695 -0.0977
22426SOL    HW176056   4.979   9.814   4.470  0.2124  0.5464 -0.0220
22426SOL    HW276057   4.952   9.759   4.331 -0.1505  0.8836 -0.0888
22427SOL     OW76058   7.482   2.186   4.175 -0.4275  0.2918 -0.0548
22427SOL    HW176059   7.541   2.187   4.251  1.3711  1.1064 -1.3689
22427SOL    HW276060   7.485   2.096   4.143 -1.1382 -0.0382  0.7617
22428SOL     OW76061   9.256   0.194   9.726 -0.0686  0.8116 -0.4344
22428SOL    HW176062   9.225   0.281   9.750  2.5755  2.8381 -3.4504
22428SOL    HW276063   9.299   0.206   9.642  0.1405 -3.5571 -1.2066
22429SOL     OW76064   2.835   1.932   8.169  0.4015 -0.4206 -0.5226
22429SOL    HW176065   2.863   2.014   8.210  2.4362 -1.6804  0.7783
22429SOL    HW276066   2.827   1.953   8.076 -0.7402  1.6144 -0.0478
22430SOL     OW76067   9.206   5.189  10.500  0.0118 -0.2768  0.4796
22430SOL    HW176068   9.229   5.156  10.413 -1.8716 -1.2624  0.3141
22430SOL    HW276069   9.287   5.179  10.551  0.5978 -1.5477 -0.6410
22431SOL     OW76070   6.351   6.292   1.614 -0.1342 -0.0644  0.1536
22431SOL    HW176071   6.311   6.263   1.696  0.6285  1.2183  1.0021
22431SOL    HW276072   6.282   6.278   1.548 -2.2298  2.3838  1.6093
22432SOL     OW76073   5.135  10.065   3.942  0.0717  0.1248 -0.2149
22432SOL    HW176074   5.072  10.007   3.900 -1.2369  1.0663  0.3475
22432SOL    HW276075   5.162  10.126   3.872  1.2827 -0.9765 -0.7477
22433SOL     OW76076  10.259   5.400   1.291  0.1403  0.0368 -0.0342
22433SOL    HW176077  10.212   5.319   1.311 -0.2151  0.5734  1.4470
22433SOL    HW276078  10.302   5.383   1.207 -0.7734 -1.3052 -0.2599
22434SOL     OW76079   4.484   5.493  12.136  0.1829  0.4138  0.2999
22434SOL    HW176080   4.391   5.475  12.147  0.3596 -1.1015 -0.4893
22434SOL    HW276081   4.497   5.498  12.041  0.9309  0.4118  0.3940
22435SOL     OW76082   7.652   3.691   5.910 -0.3193 -0.0484 -0.4680
22435SOL    HW176083   7.733   3.743   5.916 -0.2780 -0.2412  0.9429
22435SOL    HW276084   7.677   3.605   5.943 -0.8586 -0.4110 -0.9971
22436SOL     OW76085   4.206  12.546   1.016 -0.3047 -0.0491  0.1710
22436SOL    HW176086   4.171  12.635   1.014 -0.1023  0.0308 -1.4440
22436SOL    HW276087   4.284  12.553   1.071 -0.0397  0.8912 -0.2891
22437SOL     OW76088  10.226   4.582   5.564  0.2073 -0.1945 -0.2763
22437SOL    HW176089  10.244   4.676   5.568  1.7174 -0.3300 -2.2537
22437SOL    HW276090  10.131   4.576   5.550  0.0906  1.0202 -0.1212
22438SOL     OW76091   6.384   0.157   2.419 -0.7306 -0.3199  0.2151
22438SOL    HW176092   6.339   0.091   2.471 -0.3426 -0.2873  0.6041
22438SOL    HW276093   6.427   0.213   2.485  0.4951 -0.7971 -0.1649
22439SOL     OW76094   8.961  11.699   1.356  0.2208  0.1350  0.0200
22439SOL    HW176095   8.895  11.701   1.426 -0.2911  0.1396 -0.4531
22439SOL    HW276096   8.924  11.754   1.287  0.4208 -0.3793 -0.5077
22440SOL     OW76097   2.201   0.431   5.507  0.0164  0.3683 -0.2586
22440SOL    HW176098   2.170   0.348   5.472 -0.6460 -0.0868  1.2860
22440SOL    HW276099   2.221   0.485   5.430 -0.3315 -0.9229 -1.2801
22441SOL     OW76100   4.038   4.731   1.277  0.3758  0.2461  0.5846
22441SOL    HW176101   4.126   4.752   1.309  0.4788  1.5011 -0.4393
22441SOL    HW276102   4.043   4.637   1.257  1.2333  0.1232  1.2721
22442SOL     OW76103  11.875   2.824   4.682  0.1641 -0.1470  0.1227
22442SOL    HW176104  11.825   2.858   4.609  0.1233 -0.3081  0.0758
22442SOL    HW276105  11.884   2.731   4.664  0.1214 -0.1935  0.3414
22443SOL     OW76106   1.381   9.171   2.146 -0.0057  0.1075 -0.5434
22443SOL    HW176107   1.324   9.098   2.123  1.4558 -1.1661 -0.2900
22443SOL    HW276108   1.421   9.145   2.229 -1.2027  2.2539  0.7684
22444SOL     OW76109   9.634   3.281   2.498 -0.0399  0.2316 -0.0467
22444SOL    HW176110   9.624   3.333   2.418 -0.8171 -0.1264 -0.1923
22444SOL    HW276111   9.727   3.289   2.520 -0.0188  1.1576 -0.4210
22445SOL     OW76112   7.855  10.108   0.361  0.4328  0.1254  0.4954
22445SOL    HW176113   7.938  10.147   0.388 -0.1696  1.7346  0.1848
22445SOL    HW276114   7.794  10.182   0.361 -1.2633 -1.2222  1.7873
22446SOL     OW76115   3.787   4.130   0.935  0.3457 -0.1260 -0.3642
22446SOL    HW176116   3.736   4.122   1.015  0.9193  0.9919  0.1406
22446SOL    HW276117   3.815   4.041   0.914  0.9717 -0.3173  1.1920
22447SOL     OW76118   3.254   8.690   6.118  0.0647 -0.7183  0.7545
22447SOL    HW176119   3.346   8.709   6.132 -0.0389  0.1360  0.3962
22447SOL    HW276120   3.210   8.725   6.195 -0.1374  0.6389  0.0539
22448SOL     OW76121   4.789   5.832   0.321 -0.2953 -0.8584  0.1235
22448SOL    HW176122   4.809   5.881   0.401 -0.3759 -1.1421  0.3205
22448SOL    HW276123   4.847   5.869   0.255 -1.1234  0.2619 -0.0090
22449SOL     OW76124  12.426   0.166   3.115 -0.3134 -0.1920  0.6123
22449SOL    HW176125  12.511   0.123   3.114  0.1896  0.7002  1.8635
22449SOL    HW276126  12.442   0.250   3.158 -1.2998  1.1759 -1.4728
22450SOL     OW76127   4.762  11.987   9.578 -0.0967 -0.0262  0.1995
22450SOL    HW176128   4.803  11.960   9.496 -0.3621 -1.6881  0.5556
22450SOL    HW276129   4.818  11.950   9.646 -0.5118  0.3211  0.7361
22451SOL     OW76130   0.472  11.023   3.823 -0.2259  0.2417  0.1306
22451SOL    HW176131   0.470  10.930   3.848 -1.2422  0.8218  2.4517
22451SOL    HW276132   0.557  11.054   3.853 -0.8029  0.5620  1.4945
22452SOL     OW76133   0.272   5.633  11.201  0.1387 -0.2419 -0.4186
22452SOL    HW176134   0.340   5.656  11.264 -0.0210 -0.0043 -0.3289
22452SOL    HW276135   0.310   5.564  11.147  0.4021 -0.1990 -0.2864
22453SOL     OW76136   5.632   2.271   6.043 -0.1298  0.8773 -0.0896
22453SOL    HW176137   5.602   2.253   6.132  0.2706  0.1491 -0.0900
22453SOL    HW276138   5.702   2.335   6.054  0.6486 -0.0078  0.2304
22454SOL     OW76139   3.523   4.635  11.294  0.8522 -0.3577 -0.0325
22454SOL    HW176140   3.540   4.582  11.372 -2.2164 -1.9193 -0.2725
22454SOL    HW276141   3.562   4.585  11.222 -0.8018 -1.6551 -0.0778
22455SOL     OW76142   3.200   4.244   9.435 -0.3962  0.0853 -0.1252
22455SOL    HW176143   3.172   4.177   9.372  0.0211  0.7238 -1.0144
22455SOL    HW276144   3.295   4.240   9.433 -0.3755 -0.1842  0.8145
22456SOL     OW76145   9.653  10.761   2.282  0.1286  0.0198 -0.0021
22456SOL    HW176146   9.573  10.813   2.280 -0.2908 -0.6284 -0.3783
22456SOL    HW276147   9.723  10.825   2.274 -0.4233  0.4169 -2.4855
22457SOL     OW76148   5.606   1.041   6.799  0.3635 -0.3188 -0.2608
22457SOL    HW176149   5.650   1.076   6.722 -0.3772 -0.0778 -0.5838
22457SOL    HW276150   5.654   0.960   6.819  0.4149 -0.5148 -1.1239
22458SOL     OW76151   7.417   6.292   9.580 -0.1754 -0.2337 -0.2440
22458SOL    HW176152   7.424   6.271   9.486 -1.3323 -1.3926 -0.0825
22458SOL    HW276153   7.340   6.349   9.586  1.0377  1.5104 -0.2224
22459SOL     OW76154   3.385   6.235   1.169  0.6679 -0.4214  0.2685
22459SOL    HW176155   3.299   6.210   1.204  0.2054 -0.7378 -1.0462
22459SOL    HW276156   3.444   6.165   1.196  0.0417 -1.3469 -0.6900
22460SOL     OW76157   5.683   2.936  11.950  0.3026 -0.0552  0.8747
22460SOL    HW176158   5.678   2.863  12.012  1.2034 -0.4197  0.5408
22460SOL    HW276159   5.675   3.014  12.004  1.8701 -0.3462  1.5949
22461SOL     OW76160   6.682   5.094   4.437 -0.7057 -0.3279  0.1656
22461SOL    HW176161   6.758   5.037   4.448  0.9575  1.6656 -0.1968
22461SOL    HW276162   6.716   5.182   4.453 -2.8912  0.6876 -0.3293
22462SOL     OW76163   2.304   0.857  10.294  0.2150  0.2569  0.8265
22462SOL    HW176164   2.315   0.766  10.268 -0.1374  0.7559 -1.3264
22462SOL    HW276165   2.299   0.855  10.389  1.6419 -1.7900  0.9218
22463SOL     OW76166  12.087  11.171   3.709  0.6705  0.0779 -0.0861
22463SOL    HW176167  12.029  11.248   3.709  0.4657 -0.0760 -0.2299
22463SOL    HW276168  12.169  11.203   3.748  1.5429  1.0886 -2.5651
22464SOL     OW76169   7.907   3.321   5.740  0.4534 -0.0598  0.3138
22464SOL    HW176170   7.932   3.392   5.681  0.6964  0.1655  0.6779
22464SOL    HW276171   7.890   3.365   5.824 -0.7008 -0.2713  0.2033
22465SOL     OW76172   3.872   9.273  12.038 -0.6049 -0.1214  0.5922
22465SOL    HW176173   3.936   9.307  12.102 -2.1166  2.8627  0.6808
22465SOL    HW276174   3.923   9.262  11.958  0.1381  2.1011  0.6754
22466SOL     OW76175   4.982   8.931   2.529  0.6018  0.1846  0.2450
22466SOL    HW176176   4.971   8.849   2.577 -0.3840  0.4200  0.4392
22466SOL    HW276177   4.907   8.936   2.471 -0.6893  2.0619  1.9273
22467SOL     OW76178   8.452   1.770   1.585 -0.0852  0.1638 -0.0023
22467SOL    HW176179   8.513   1.832   1.625  0.5239 -0.6164  0.2962
22467SOL    HW276180   8.479   1.684   1.618 -0.2976 -0.3756 -1.1641
22468SOL     OW76181   2.606   6.741   9.183  0.3517 -0.0124  0.3158
22468SOL    HW176182   2.652   6.675   9.235  2.1149  2.3277  1.8901
22468SOL    HW276183   2.599   6.701   9.096  0.3217 -2.6869  1.4477
22469SOL     OW76184   9.760   9.924   1.706 -0.5515 -0.0660 -0.1386
22469SOL    HW176185   9.701   9.989   1.668 -1.4001 -0.3749  0.6255
22469SOL    HW276186   9.795   9.966   1.785 -0.5727 -0.2832 -0.0126
22470SOL     OW76187   4.507   8.536  12.346 -0.3681  0.0525 -0.4597
22470SOL    HW176188   4.565   8.499  12.280 -0.0956 -0.0030 -0.1907
22470SOL    HW276189   4.492   8.465  12.407 -0.2215  0.2457 -0.1969
22471SOL     OW76190   6.685  11.018   0.969 -0.9757  0.0732  0.0265
22471SOL    HW176191   6.611  11.058   0.924 -1.0474 -1.6984 -1.5403
22471SOL    HW276192   6.761  11.069   0.940 -1.2678  0.2113 -0.5158
22472SOL     OW76193   1.621   8.421  10.987 -0.3481 -0.2245 -0.9481
22472SOL    HW176194   1.592   8.455  11.072  3.5176  1.7285 -0.1691
22472SOL    HW276195   1.572   8.472  10.923  0.3593  2.1323  0.2407
22473SOL     OW76196  10.849  11.161  11.079  0.2389 -0.0708 -0.3668
22473SOL    HW176197  10.945  11.165  11.088  0.2479 -0.5775 -0.2283
22473SOL    HW276198  10.835  11.121  10.993  0.1449  2.0552 -1.4063
22474SOL     OW76199   8.473   4.683   5.711 -0.0827  0.4471  0.3072
22474SOL    HW176200   8.511   4.598   5.734  0.0843  0.3952 -0.1454
22474SOL    HW276201   8.549   4.742   5.707 -0.2257  0.6852  0.8855
22475SOL     OW76202   7.376   3.219   3.564  0.0197 -0.2661 -0.5576
22475SOL    HW176203   7.427   3.141   3.586 -0.9919 -0.3943  1.6808
22475SOL    HW276204   7.295   3.209   3.615 -0.9501  1.3418 -1.6980
22476SOL     OW76205   8.280   1.303  11.219 -0.0347  0.0150  0.1797
22476SOL    HW176206   8.287   1.377  11.159 -0.7841  1.8798  2.2381
22476SOL    HW276207   8.187   1.279  11.219 -0.2979  0.9289  1.5337
22477SOL     OW76208   5.271   9.807   3.875 -0.2357 -0.3952 -0.1250
22477SOL    HW176209   5.185   9.843   3.852  0.3846  2.2129  1.2976
22477SOL    HW276210   5.266   9.792   3.970  1.5832  2.1553  0.4679
22478SOL     OW76211   1.607  12.042   3.652 -0.1299 -0.4384 -0.1597
22478SOL    HW176212   1.580  11.951   3.662  1.1232 -0.6034  2.5777
22478SOL    HW276213   1.580  12.084   3.734 -0.2388  1.5656 -1.1628
22479SOL     OW76214   8.177  12.075  11.473  0.0992 -0.7550  0.4702
22479SOL    HW176215   8.256  12.047  11.519 -0.5913 -1.9042  0.9898
22479SOL    HW276216   8.148  12.153  11.521  2.3756  1.3761 -1.3618
22480SOL     OW76217   5.723   3.801   8.831  0.0029 -0.0587  0.0731
22480SOL    HW176218   5.640   3.764   8.801  0.6960 -1.5624 -0.1199
22480SOL    HW276219   5.703   3.840   8.916 -0.7685 -1.0411  0.3628
22481SOL     OW76220  11.247  11.426   7.784 -0.2493 -0.0552 -0.6303
22481SOL    HW176221  11.183  11.413   7.854 -0.7330  0.3071 -1.0022
22481SOL    HW276222  11.318  11.474   7.825 -0.4960  0.0897 -0.3708
22482SOL     OW76223  10.514  12.110   9.668  0.3308  0.0573 -0.6401
22482SOL    HW176224  10.526  12.090   9.760 -0.0957 -2.3511 -1.0401
22482SOL    HW276225  10.575  12.182   9.650  0.4987  0.4800  1.4539
22483SOL     OW76226   6.103   2.407  11.404 -0.5582  0.2410  0.0777
22483SOL    HW176227   6.193   2.439  11.403 -0.2106 -0.7081  0.6864
22483SOL    HW276228   6.051   2.482  11.434  0.3762 -0.0640  2.6330
22484SOL     OW76229   8.562   3.740   7.607  0.2627 -0.6877  0.4939
22484SOL    HW176230   8.639   3.796   7.619 -0.7020  1.0304 -0.9308
22484SOL    HW276231   8.514   3.747   7.690  1.2524 -1.2403  1.1413
22485SOL     OW76232   0.461   5.312   8.469 -0.2390 -0.1941  0.1591
22485SOL    HW176233   0.544   5.360   8.475 -0.2771  0.2992 -2.3818
22485SOL    HW276234   0.403   5.359   8.529  0.7977  0.5580  0.6238
22486SOL     OW76235  10.181   3.142   7.140 -0.2123  0.2213 -0.6894
22486SOL    HW176236  10.189   3.146   7.235  0.0249 -1.7740 -0.6021
22486SOL    HW276237  10.125   3.217   7.118  1.0927  1.7403  0.8159
22487SOL     OW76238   0.007   2.615   4.737  0.0841 -0.3585 -0.2747
22487SOL    HW176239  -0.061   2.659   4.686  0.1905  0.4861  0.2921
22487SOL    HW276240   0.089   2.656   4.707  0.3393 -1.2627 -0.8462
22488SOL     OW76241   9.969   7.222   9.239 -0.6499  0.1106 -0.1217
22488SOL    HW176242   9.916   7.193   9.165  1.4925 -1.2257 -1.2106
22488SOL    HW276243  10.039   7.275   9.200 -1.2405  2.0939  1.3052
22489SOL     OW76244   6.393   9.189   9.737 -0.0154  0.1380 -0.4406
22489SOL    HW176245   6.335   9.146   9.800 -1.4052 -0.0923 -1.8083
22489SOL    HW276246   6.409   9.276   9.775  1.4582 -0.9245  1.5302
22490SOL     OW76247   6.371   4.419   9.425 -0.2612 -0.3862 -0.1973
22490SOL    HW176248   6.337   4.449   9.510  1.5210 -1.3274  0.9029
22490SOL    HW276249   6.466   4.422   9.435  0.0587  1.1004 -2.7778
22491SOL     OW76250   4.778   0.811   6.515  0.6515 -0.0650 -0.0914
22491SOL    HW176251   4.732   0.771   6.589 -0.1302 -0.1620 -0.6231
22491SOL    HW276252   4.755   0.904   6.519  0.6769 -0.0551 -0.1691
22492SOL     OW76253   9.937   1.685   4.248 -0.1994 -0.1040  0.2054
22492SOL    HW176254  10.002   1.653   4.185  2.0501 -0.7077  2.6774
22492SOL    HW276255   9.982   1.683   4.332 -3.1794  0.3229  1.9404
22493SOL     OW76256   6.893   1.779  11.603  0.6667  1.1415 -0.6766
22493SOL    HW176257   6.815   1.812  11.559  0.2098  0.5543 -0.3095
22493SOL    HW276258   6.907   1.840  11.676  1.1711  1.8574 -1.3513
22494SOL     OW76259   9.875   2.659   8.225 -0.5820  0.3127 -0.2992
22494SOL    HW176260   9.837   2.717   8.291  0.4680 -1.4680  2.0080
22494SOL    HW276261   9.814   2.663   8.151 -3.2064  0.5024  1.7322
22495SOL     OW76262   6.610   0.149   4.586 -0.5012 -0.3944  0.5607
22495SOL    HW176263   6.657   0.080   4.540  0.3037  0.8364 -0.5002
22495SOL    HW276264   6.529   0.160   4.537 -0.1101  0.2058  0.0482
22496SOL     OW76265   6.515   0.826   6.017  0.1004 -0.3660 -0.4913
22496SOL    HW176266   6.478   0.890   6.078 -0.7037 -0.5699 -0.7502
22496SOL    HW276267   6.472   0.844   5.934  0.3521 -0.8218 -0.7257
22497SOL     OW76268   6.243   5.568  12.331  0.2047 -0.4575 -0.4078
22497SOL    HW176269   6.265   5.656  12.300 -0.8212 -0.1263 -0.2280
22497SOL    HW276270   6.284   5.510  12.267  0.4230  0.1598 -0.8459
22498SOL     OW76271   7.590   7.330  10.927  0.0878  0.1581  0.6560
22498SOL    HW176272   7.547   7.336  10.842 -0.4198  0.6951  0.9469
22498SOL    HW276273   7.527   7.284  10.983  0.9356 -1.3497  0.4152
22499SOL     OW76274   7.256   5.038   2.650 -0.4657  0.4928  0.2861
22499SOL    HW176275   7.302   5.064   2.730  1.1295 -1.1002 -0.0420
22499SOL    HW276276   7.318   5.058   2.580 -0.8600 -0.3597 -0.3213
22500SOL     OW76277   0.293  11.605  12.449 -0.1366  0.4061  0.0126
22500SOL    HW176278   0.311  11.525  12.400 -1.1592 -1.3137  2.2590
22500SOL    HW276279   0.236  11.656  12.391 -0.5071 -1.0796 -0.9951
22501SOL     OW76280   0.584   6.650   6.454 -0.4354  0.0140 -0.4627
22501SOL    HW176281   0.679   6.642   6.462 -0.2997  0.5686 -1.3729
22501SOL    HW276282   0.567   6.744   6.455 -0.6537  0.0789 -3.1662
22502SOL     OW76283   9.016   0.742  10.883  0.4811 -0.0072 -0.1666
22502SOL    HW176284   9.052   0.660  10.917  0.1820  0.6876  1.9827
22502SOL    HW276285   9.088   0.805  10.890  0.3474  0.2044 -0.6369
22503SOL     OW76286   2.101   3.153   8.905  0.0338  0.4345 -0.0483
22503SOL    HW176287   2.068   3.113   8.985 -1.9563  0.6922 -0.6706
22503SOL    HW276288   2.067   3.243   8.907 -1.3507  0.0278 -1.8204
22504SOL     OW76289   1.132   5.727   6.704 -0.2748 -0.3276  0.0887
22504SOL    HW176290   1.147   5.814   6.667  0.9607 -1.6454 -2.7751
22504SOL    HW276291   1.038   5.713   6.698 -0.4188  0.6032  0.1231
22505SOL     OW76292   6.279   7.651   1.190  0.1891  0.4207 -0.3869
22505SOL    HW176293   6.244   7.740   1.192  1.5910  0.9696  0.8221
22505SOL    HW276294   6.365   7.658   1.231 -0.0396 -1.6552  0.5531
22506SOL     OW76295   1.021   7.318   9.416 -0.0910 -0.0555  0.8211
22506SOL    HW176296   1.050   7.407   9.438 -0.8480  0.1764  0.9166
22506SOL    HW276297   1.068   7.262   9.477  0.3466  0.2888  0.8064
22507SOL     OW76298  10.554   5.596   2.128  0.1986  0.2128  0.3479
22507SOL    HW176299  10.571   5.665   2.192  0.6953  1.5665 -1.1910
22507SOL    HW276300  10.502   5.639   2.060  0.2615 -1.0106 -0.4968
22508SOL     OW76301  11.922   5.855  11.796  0.3458  0.7361 -0.1739
22508SOL    HW176302  11.977   5.821  11.867  0.7024  0.6951 -0.4656
22508SOL    HW276303  11.856   5.787  11.783  1.5046 -0.2406 -1.2686
22509SOL     OW76304   5.709   2.058  10.610 -0.3246  0.4173 -0.3038
22509SOL    HW176305   5.657   2.085  10.686 -0.8730 -0.6771 -0.2700
22509SOL    HW276306   5.661   1.984  10.573  1.5132 -1.0734  0.1072
22510SOL     OW76307   1.910   2.604  10.057 -0.7989  0.6235  0.0118
22510SOL    HW176308   1.975   2.533  10.059 -0.7900  0.6437  0.8983
22510SOL    HW276309   1.903   2.627   9.964 -2.2113 -1.8318 -0.5780
22511SOL     OW76310   8.000   8.929   2.910 -0.4980 -0.0161 -0.3701
22511SOL    HW176311   8.071   8.865   2.917  0.8065  1.4247 -0.0043
22511SOL    HW276312   7.923   8.882   2.942  0.5110 -1.2597  0.3383
22512SOL     OW76313   8.409   6.241   2.738 -0.5733 -0.1888  0.5581
22512SOL    HW176314   8.446   6.185   2.670  0.9478  0.1266  1.0619
22512SOL    HW276315   8.346   6.297   2.693 -0.2028 -0.5482 -0.4269
22513SOL     OW76316   8.931   0.443  12.472 -0.4112 -0.2214  0.3841
22513SOL    HW176317   8.941   0.420  12.379  1.8617  1.4777  0.1197
22513SOL    HW276318   8.898   0.533  12.471 -0.7079 -0.3127  1.2519
22514SOL     OW76319   7.494   6.496   4.113  0.3993  0.4843  0.2937
22514SOL    HW176320   7.500   6.438   4.037  0.0496 -1.0810  1.4040
22514SOL    HW276321   7.584   6.500   4.147  1.2197  3.5310 -1.7437
22515SOL     OW76322  11.240   6.677   4.127 -0.2567 -0.3590  0.4140
22515SOL    HW176323  11.305   6.709   4.065 -1.5598 -1.4956 -1.6719
22515SOL    HW276324  11.249   6.734   4.203  2.3900  0.1972 -0.2270
22516SOL     OW76325   5.313  11.143  11.897 -0.3612 -0.2146  0.5036
22516SOL    HW176326   5.309  11.159  11.803  0.4566 -2.2677  0.0535
22516SOL    HW276327   5.305  11.229  11.937 -1.7057  0.6088 -1.4001
22517SOL     OW76328  11.791  11.475  10.205  0.2310  0.2510  0.1685
22517SOL    HW176329  11.868  11.513  10.164  0.1152  0.4447  0.1319
22517SOL    HW276330  11.795  11.382  10.182  1.2234 -0.0194  1.3600
22518SOL     OW76331   9.429   1.280   1.048 -0.1185  0.0691  0.0944
22518SOL    HW176332   9.478   1.240   0.976 -0.0114  0.9423 -0.3319
22518SOL    HW276333   9.463   1.237   1.127  1.7408  0.9918 -0.1386
22519SOL     OW76334  11.852  11.344   3.610  0.2067  1.0384 -0.3649
22519SOL    HW176335  11.926  11.374   3.558  1.1859 -0.0035  0.3810
22519SOL    HW276336  11.822  11.264   3.566  1.4645 -0.2290  0.9695
22520SOL     OW76337   6.989   0.394   2.782  0.0760  0.0535  0.1480
22520SOL    HW176338   6.909   0.396   2.835 -0.5227  1.5648 -0.7675
22520SOL    HW276339   7.017   0.486   2.776 -0.0475 -0.0028 -2.3792
22521SOL     OW76340  10.706  10.282  10.141 -0.0640  0.0248 -0.1509
22521SOL    HW176341  10.611  10.290  10.134  0.2330  2.8475 -3.1041
22521SOL    HW276342  10.734  10.363  10.183  1.0773 -1.0746  1.3257
22522SOL     OW76343   7.158   1.940  11.468 -0.8445 -0.1012  0.8664
22522SOL    HW176344   7.182   1.872  11.406  3.3401  1.2253  0.7245
22522SOL    HW276345   7.095   1.898  11.527 -1.9000 -2.5937 -1.7892
22523SOL     OW76346   2.320   0.988  11.814  0.3510  0.0251  0.0372
22523SOL    HW176347   2.337   0.983  11.720  1.7950 -0.8918  0.3193
22523SOL    HW276348   2.379   0.923  11.853  0.1582  0.7474  1.6214
22524SOL     OW76349   1.219   3.166   8.677 -0.2770  0.7072 -0.2062
22524SOL    HW176350   1.187   3.256   8.669  1.4344  1.2761 -1.3277
22524SOL    HW276351   1.295   3.172   8.735  0.5817  0.2165 -1.2418
22525SOL     OW76352  11.699  10.759   0.701 -0.4720  0.3094  0.3518
22525SOL    HW176353  11.685  10.683   0.758  2.4563 -0.8399 -0.2634
22525SOL    HW276354  11.781  10.797   0.733  0.0530  0.9859 -1.6718
22526SOL     OW76355   3.035   2.729   6.672  0.5550 -0.5147  0.1823
22526SOL    HW176356   3.128   2.736   6.650 -0.0849  1.2182 -2.5358
22526SOL    HW276357   3.004   2.653   6.623  0.0198  0.6473 -1.3580
22527SOL     OW76358   4.926   5.413   7.018  0.3353  0.1405 -0.3982
22527SOL    HW176359   5.016   5.405   6.986 -0.0504  1.9946 -2.0938
22527SOL    HW276360   4.935   5.459   7.102  0.9940 -0.2485 -0.2461
22528SOL     OW76361   1.625   8.959   2.031 -0.0390  0.2139  0.0434
22528SOL    HW176362   1.620   9.004   2.116 -0.5903  0.0998  0.0803
22528SOL    HW276363   1.549   8.993   1.983  0.6151  0.7371 -0.6378
22529SOL     OW76364   6.029   3.964  11.724  0.4554 -0.0526 -0.3300
22529SOL    HW176365   5.939   3.995  11.737  0.4413 -0.3461  0.2875
22529SOL    HW276366   6.021   3.891  11.664  0.0741 -1.1894  1.0504
22530SOL     OW76367  11.546   7.645   4.945  0.2978 -0.4807  0.3735
22530SOL    HW176368  11.606   7.614   5.013 -0.0236  0.1304  0.9412
22530SOL    HW276369  11.511   7.727   4.978 -1.5868 -1.2810  0.4917
22531SOL     OW76370  11.463  11.158   5.908 -0.3994  0.0185 -0.5105
22531SOL    HW176371  11.372  11.186   5.904 -0.8420 -1.4082 -2.2183
22531SOL    HW276372  11.514  11.239   5.909 -1.6658  0.8363 -0.4609
22532SOL     OW76373  12.411   2.409   7.974 -0.0280  0.5863  0.2003
22532SOL    HW176374  12.411   2.320   8.010  0.1371  0.8914  0.9639
22532SOL    HW276375  12.501   2.424   7.947 -0.0704  0.5007  0.0092
22533SOL     OW76376   2.064  11.626   8.345 -0.0880  0.1054  0.0049
22533SOL    HW176377   2.102  11.538   8.351 -2.5345 -0.9930  1.1871
22533SOL    HW276378   2.105  11.675   8.416 -0.5204 -0.9301  1.0231
22534SOL     OW76379   3.663   2.279  10.221  0.7494  0.0197 -0.0698
22534SOL    HW176380   3.734   2.332  10.257  1.1444  0.2038 -1.1025
22534SOL    HW276381   3.590   2.291  10.283  1.4245  0.2826  0.6891
22535SOL     OW76382   4.652  12.218   5.216  0.5398 -0.0833  0.5722
22535SOL    HW176383   4.699  12.171   5.285  0.3681 -0.0256  0.7309
22535SOL    HW276384   4.665  12.310   5.237 -0.9427 -0.0550  1.5346
22536SOL     OW76385  12.585   3.890   9.561  0.1602 -0.1606 -0.6571
22536SOL    HW176386  12.563   3.862   9.650  1.7214  0.1215 -0.1510
22536SOL    HW276387  12.515   3.951   9.538 -0.8795 -1.0903 -0.0707
22537SOL     OW76388   4.864   5.601   1.785 -0.6317  0.2373  0.2156
22537SOL    HW176389   4.915   5.595   1.704 -1.1758  0.7235 -0.1748
22537SOL    HW276390   4.905   5.538   1.844 -0.7833 -0.7844 -0.7333
22538SOL     OW76391   2.294   8.211  11.676 -0.3731 -0.2392  0.4487
22538SOL    HW176392   2.227   8.230  11.612  0.3553  0.5101 -0.1102
22538SOL    HW276393   2.314   8.118  11.663  1.1933  0.3336 -1.8561
22539SOL     OW76394   2.887   3.193  10.463  0.0176  0.0600  0.1020
22539SOL    HW176395   2.888   3.097  10.454 -1.4086 -0.0824  1.0165
22539SOL    HW276396   2.885   3.225  10.373 -2.0333 -0.8904 -0.2680
22540SOL     OW76397   6.161   2.608   1.479  0.3756 -0.1451 -0.5004
22540SOL    HW176398   6.195   2.565   1.401  0.5295  0.2092 -0.6319
22540SOL    HW276399   6.236   2.656   1.515  0.0325  0.6072 -0.7682
22541SOL     OW76400   4.541   6.802   2.885  0.5807  0.4045 -0.3356
22541SOL    HW176401   4.534   6.772   2.976 -0.4540  0.5975 -0.3408
22541SOL    HW276402   4.561   6.895   2.892 -2.7456  1.2311 -0.2159
22542SOL     OW76403   9.057   4.360   1.835  0.3971 -0.4774  0.0199
22542SOL    HW176404   9.088   4.394   1.751 -0.8743  0.6842  0.0035
22542SOL    HW276405   8.972   4.321   1.816  0.0126 -0.0457  0.7876
22543SOL     OW76406   1.504   6.383   3.522 -0.2117  0.1654  0.1837
22543SOL    HW176407   1.437   6.316   3.531 -0.5312  0.3674 -0.5979
22543SOL    HW276408   1.466   6.461   3.562 -2.2481  1.4871 -3.7818
22544SOL     OW76409   7.433   7.694  11.606  0.5112 -0.5280 -0.2240
22544SOL    HW176410   7.469   7.768  11.556  0.0610  0.0442  0.2830
22544SOL    HW276411   7.440   7.721  11.698 -0.0983 -0.9128 -0.0546
22545SOL     OW76412  12.135   5.362   9.959 -0.5937 -0.3713  0.7770
22545SOL    HW176413  12.074   5.289   9.974 -1.0115 -0.3278 -0.5454
22545SOL    HW276414  12.121   5.385   9.867  0.4707  0.5299  0.8302
22546SOL     OW76415   5.772   3.747  11.448 -0.2711 -0.5765  0.6506
22546SOL    HW176416   5.680   3.724  11.455 -0.3290 -0.9521 -0.8839
22546SOL    HW276417   5.786   3.813  11.515 -1.5831 -0.7123  1.0800
22547SOL     OW76418   0.130   7.385   2.922 -0.0040  0.0686 -0.1366
22547SOL    HW176419   0.080   7.438   2.984  0.4170 -0.0481  0.3104
22547SOL    HW276420   0.065   7.352   2.860 -0.3305  0.7474 -0.1628
22548SOL     OW76421   3.301  11.737   6.290 -0.3364 -0.0230 -0.0274
22548SOL    HW176422   3.310  11.766   6.381  1.9709  0.2870 -0.2957
22548SOL    HW276423   3.333  11.810   6.238 -3.0173  0.4053 -1.2558
22549SOL     OW76424   7.887   8.542  11.053 -0.0660  0.2799 -0.1526
22549SOL    HW176425   7.969   8.499  11.077 -0.2093  0.0873 -0.0064
22549SOL    HW276426   7.824   8.514  11.119 -0.6274 -0.7792 -1.0978
22550SOL     OW76427   5.595  12.069   0.401 -0.3133  0.2282  0.7290
22550SOL    HW176428   5.544  11.995   0.433 -0.7982  1.0289  1.8690
22550SOL    HW276429   5.534  12.119   0.346  0.1119 -0.3805 -0.3254
22551SOL     OW76430   4.933  11.166   3.262  0.2522  0.0781  0.0342
22551SOL    HW176431   4.963  11.225   3.193  1.9170  0.2948  0.9057
22551SOL    HW276432   4.856  11.124   3.225  0.4209  1.0489 -1.5077
22552SOL     OW76433   2.466   3.420   3.492 -0.4405 -0.1394  0.1910
22552SOL    HW176434   2.454   3.507   3.454  1.2334  0.0736  0.0888
22552SOL    HW276435   2.525   3.434   3.566 -1.4163 -0.9713  1.1633
22553SOL     OW76436   6.714   5.197   2.455 -0.5197 -0.4329  0.3707
22553SOL    HW176437   6.794   5.186   2.403 -0.2037  1.3940  0.4101
22553SOL    HW276438   6.643   5.183   2.392 -0.1471  0.1479 -0.1902
22554SOL     OW76439   9.103   6.569  11.869  0.0968 -0.3828 -0.2025
22554SOL    HW176440   9.194   6.579  11.897 -0.2338 -0.0461  0.8167
22554SOL    HW276441   9.057   6.640  11.914 -0.8427 -1.1907  0.1446
22555SOL     OW76442   8.360   4.876   2.980  0.8618 -0.1615 -0.0667
22555SOL    HW176443   8.421   4.817   2.936  2.0928  1.4180 -0.5580
22555SOL    HW276444   8.275   4.832   2.974  1.9007 -2.3832  0.5679
22556SOL     OW76445   4.221   4.901   6.527 -0.1984  0.1724 -0.2270
22556SOL    HW176446   4.171   4.977   6.497 -0.7555  0.0712  0.4085
22556SOL    HW276447   4.230   4.846   6.450  0.3829  0.9685 -0.7437
22557SOL     OW76448   9.592   0.713   8.231  0.0560 -0.0546 -0.3091
22557SOL    HW176449   9.500   0.702   8.206 -0.1626  0.1034  0.3945
22557SOL    HW276450   9.601   0.661   8.311  0.2478  0.9619  0.3406
22558SOL     OW76451   9.360   0.853   9.756  0.1765  0.5931 -0.4532
22558SOL    HW176452   9.415   0.907   9.812  1.9955 -3.4778  2.1442
22558SOL    HW276453   9.414   0.836   9.679  0.2105  1.1369 -0.5564
22559SOL     OW76454   7.116   5.933   5.914  0.0780  0.0585  0.1608
22559SOL    HW176455   7.121   6.022   5.950  0.3366 -0.9596  2.8437
22559SOL    HW276456   7.029   5.929   5.874  0.9176  2.1908 -2.1684
22560SOL     OW76457   5.197   7.642  10.632  0.2904 -0.0105 -0.3178
22560SOL    HW176458   5.132   7.713  10.630  1.3503  0.9747 -0.6318
22560SOL    HW276459   5.191   7.602  10.545  0.6325  0.5848 -0.6236
22561SOL     OW76460   1.809   0.536   7.488 -0.2803  0.5423  0.3542
22561SOL    HW176461   1.721   0.569   7.505 -0.7874 -1.5989  2.5287
22561SOL    HW276462   1.813   0.525   7.394 -2.2860  0.8519  0.1841
22562SOL     OW76463   2.261  11.248   1.924  0.0779 -0.1821 -0.7711
22562SOL    HW176464   2.189  11.210   1.875 -0.0531 -0.6353 -0.2352
22562SOL    HW276465   2.335  11.246   1.864 -0.0216 -0.9593 -0.8652
22563SOL     OW76466   9.015   3.265  12.389  0.4714  0.0656 -0.4590
22563SOL    HW176467   8.940   3.205  12.393 -0.6576  1.4596  1.8283
22563SOL    HW276468   9.078   3.229  12.451  0.0133  0.8633  0.5167
22564SOL     OW76469   8.707   4.478   6.802  0.4783 -0.7828  0.4179
22564SOL    HW176470   8.751   4.405   6.760 -1.5644 -0.9131 -1.7102
22564SOL    HW276471   8.730   4.471   6.894  2.2416 -2.6641 -0.1106
22565SOL     OW76472   1.049   4.437   6.468 -0.1073  0.5981  0.1559
22565SOL    HW176473   1.071   4.351   6.433 -1.4087  0.4387 -0.3283
22565SOL    HW276474   1.097   4.442   6.551  0.1730 -0.4929  0.0735
22566SOL     OW76475   6.648   1.620   5.857  0.2480 -0.0878 -0.7416
22566SOL    HW176476   6.595   1.566   5.799  1.5835 -1.3069 -0.8999
22566SOL    HW276477   6.701   1.674   5.799  0.0185  0.2706 -0.6171
22567SOL     OW76478  12.083   9.534   8.635  0.4958 -0.0076  0.0839
22567SOL    HW176479  12.023   9.609   8.631  1.7495  0.9999 -1.8352
22567SOL    HW276480  12.079   9.496   8.547  0.9928 -1.3072  0.6018
22568SOL     OW76481   1.003   8.340   6.559  0.2522 -0.1347  0.0098
22568SOL    HW176482   0.920   8.381   6.536  1.1443  1.2810 -0.8742
22568SOL    HW276483   0.979   8.266   6.614 -1.5591  0.4891  0.1282
22569SOL     OW76484   4.929   6.682   7.410  0.0944  0.1207  0.4345
22569SOL    HW176485   4.979   6.603   7.428  1.6640  1.0410  0.2769
22569SOL    HW276486   4.961   6.711   7.324  0.6975  1.7841  1.1963
22570SOL     OW76487  11.704   9.084   6.472 -0.0900 -0.0044 -0.3856
22570SOL    HW176488  11.745   9.167   6.496 -0.8320  0.3988 -0.4553
22570SOL    HW276489  11.613   9.107   6.454 -0.4231 -0.9159  0.0581
22571SOL     OW76490  10.771   3.006   4.167  0.0386  0.4513 -0.4798
22571SOL    HW176491  10.855   2.981   4.205  0.3127  0.5342 -1.0364
22571SOL    HW276492  10.755   2.942   4.098  0.4205  1.3745 -1.4563
22572SOL     OW76493   9.538   0.557  12.188 -0.0946  0.4624  0.2600
22572SOL    HW176494   9.603   0.627  12.193 -0.2147  0.5167  1.2674
22572SOL    HW276495   9.526   0.529  12.279  0.6933 -1.5312 -0.1711
22573SOL     OW76496  10.187   9.500   7.734 -0.0689 -0.4807 -0.2526
22573SOL    HW176497  10.130   9.472   7.663  0.3753 -1.1126 -0.3696
22573SOL    HW276498  10.147   9.465   7.813 -1.0514  0.9709 -0.0583
22574SOL     OW76499   1.586   7.412  10.384 -0.3155 -0.0926 -0.1501
22574SOL    HW176500   1.646   7.404  10.310  0.6368 -0.1801  0.6042
22574SOL    HW276501   1.583   7.506  10.403  0.2798 -0.1723  0.3592
22575SOL     OW76502   1.124  11.152   3.332 -0.0810  0.2654  0.0985
22575SOL    HW176503   1.125  11.139   3.426  2.2938 -1.1891 -0.0344
22575SOL    HW276504   1.038  11.120   3.304 -1.0423  1.2358  1.7648
22576SOL     OW76505   7.079  12.476  10.476 -0.5561  0.1580  1.0443
22576SOL    HW176506   7.145  12.545  10.463  0.8853 -1.1295  1.2263
22576SOL    HW276507   7.126  12.395  10.456 -2.2773 -0.7646  0.6116
22577SOL     OW76508  12.201   6.168  11.822  0.0123 -0.4045 -0.1527
22577SOL    HW176509  12.155   6.250  11.807  0.7823  0.0128 -0.3169
22577SOL    HW276510  12.147   6.101  11.779 -1.8630 -0.3640  1.9636
22578SOL     OW76511   8.307  10.942   1.833  0.1351 -0.0180 -0.0232
22578SOL    HW176512   8.327  10.924   1.925  1.2191 -1.2368 -0.4704
22578SOL    HW276513   8.338  10.865   1.786 -0.2764  0.6473 -1.4422
22579SOL     OW76514   3.832   7.626   2.838  0.2280  0.1316  0.1323
22579SOL    HW176515   3.751   7.606   2.886  0.9178  0.5144  1.4984
22579SOL    HW276516   3.858   7.713   2.869  0.3544  0.6864 -1.4468
22580SOL     OW76517  10.638   9.107  12.282 -0.1623  0.0545 -0.0026
22580SOL    HW176518  10.642   9.170  12.210 -0.3502  1.2309  0.9825
22580SOL    HW276519  10.572   9.044  12.254 -0.6624  0.8286 -0.6222
22581SOL     OW76520   9.785   2.253  12.588 -0.2279  0.4418  0.5050
22581SOL    HW176521   9.715   2.191  12.604  0.0892  0.1854  0.9175
22581SOL    HW276522   9.831   2.219  12.511 -0.0201  0.1334  0.7648
22582SOL     OW76523   0.842   1.550  10.228  0.6821  0.4410  0.3410
22582SOL    HW176524   0.892   1.624  10.192  0.0622  0.0017 -1.4928
22582SOL    HW276525   0.871   1.474  10.178 -1.4408  0.0882 -0.4301
22583SOL     OW76526   7.713   0.114   8.006  0.0746  0.1408 -0.1907
22583SOL    HW176527   7.737   0.200   8.040  1.1242  0.0891 -0.7551
22583SOL    HW276528   7.677   0.067   8.082  0.4427  0.7274  0.3562
22584SOL     OW76529   8.482   0.307   8.702 -0.0209  0.4518  0.1925
22584SOL    HW176530   8.486   0.214   8.723  0.4883  0.7441  1.4977
22584SOL    HW276531   8.389   0.324   8.687 -0.2130 -0.1279  0.6602
22585SOL     OW76532   8.071   8.864   0.849  0.0211  0.6662  0.1535
22585SOL    HW176533   8.081   8.943   0.902 -1.5807  0.9645  0.0647
22585SOL    HW276534   7.980   8.866   0.821 -0.7829 -2.3930  2.0557
22586SOL     OW76535   8.385   2.691   8.860 -0.0643  0.7228 -0.8952
22586SOL    HW176536   8.406   2.673   8.769 -0.7407 -0.1033 -0.9024
22586SOL    HW276537   8.373   2.786   8.864 -0.7999  0.6801 -1.8329
22587SOL     OW76538   0.782   0.335   7.736  0.2030  0.0046  0.0551
22587SOL    HW176539   0.734   0.417   7.747 -0.3233 -0.4936  1.7471
22587SOL    HW276540   0.742   0.294   7.659  0.0881  1.0587 -0.4622
22588SOL     OW76541  11.762   8.819   6.466  0.0861 -0.0759 -0.1299
22588SOL    HW176542  11.725   8.788   6.548  0.6087  0.1889  0.2111
22588SOL    HW276543  11.758   8.914   6.472 -0.7074 -0.0535 -0.8008
22589SOL     OW76544  10.721   4.319  11.590 -0.4602  0.5206 -0.0268
22589SOL    HW176545  10.784   4.390  11.606 -0.1612  0.0464  1.0264
22589SOL    HW276546  10.650   4.361  11.542  0.0608  1.3645 -0.0909
22590SOL     OW76547   8.277   3.924   5.710  1.0213  0.0065 -0.6274
22590SOL    HW176548   8.287   3.969   5.794  2.0466  0.1133 -0.7856
22590SOL    HW276549   8.183   3.910   5.700  0.7636  1.2719 -0.1358
22591SOL     OW76550   1.571   9.084  10.625 -0.4007  0.0474 -0.6374
22591SOL    HW176551   1.479   9.110  10.630 -1.5418 -3.5538  0.2547
22591SOL    HW276552   1.582   9.051  10.536 -0.4992 -1.0296 -0.2676
22592SOL     OW76553   6.927   2.032   7.742  0.3231  0.1765 -0.3657
22592SOL    HW176554   7.006   1.991   7.777 -0.0411  0.8910  1.4067
22592SOL    HW276555   6.952   2.123   7.725 -0.3867  0.7332  1.3619
22593SOL     OW76556   9.581   5.746   2.575  0.0962  0.1069  0.1363
22593SOL    HW176557   9.565   5.833   2.612  0.8666  0.0438  0.6547
22593SOL    HW276558   9.534   5.686   2.634 -1.7281  0.2666 -1.1015
22594SOL     OW76559   4.793   1.287   5.460 -0.2146  0.0064  0.0211
22594SOL    HW176560   4.875   1.240   5.441 -0.0479  0.6071 -0.8137
22594SOL    HW276561   4.773   1.333   5.378 -0.5200  1.1740  0.7353
22595SOL     OW76562  11.985   9.399  10.316 -0.3519  0.2545  0.6840
22595SOL    HW176563  11.964   9.418  10.225  0.6570  0.2692  0.4432
22595SOL    HW276564  11.926   9.327  10.339  0.4696 -0.8375 -0.4832
22596SOL     OW76565   1.727   2.088  12.283 -0.1992  0.3662 -0.3354
22596SOL    HW176566   1.646   2.122  12.320 -0.4706  0.9103 -1.3977
22596SOL    HW276567   1.772   2.165  12.248  0.6891  0.0432  0.0606
22597SOL     OW76568   1.819   6.424  11.647  0.2361 -0.0658  0.1052
22597SOL    HW176569   1.766   6.488  11.693  1.3242  0.5214  0.5884
22597SOL    HW276570   1.836   6.355  11.711 -0.0239 -0.3014 -0.0777
22598SOL     OW76571   5.665   0.267   9.700  0.2906  0.1672 -0.3194
22598SOL    HW176572   5.627   0.180   9.684 -0.5397 -0.0025  2.1425
22598SOL    HW276573   5.752   0.262   9.660  1.6971 -3.1042  2.5731
22599SOL     OW76574   6.238   6.848   1.938 -0.2340  0.3170 -0.4324
22599SOL    HW176575   6.307   6.846   2.004 -1.4192 -0.8102  0.8348
22599SOL    HW276576   6.264   6.781   1.874  1.1575  1.7351 -1.4387
22600SOL     OW76577  10.939   7.588   4.546 -0.6906  0.4797 -0.4225
22600SOL    HW176578  10.987   7.572   4.464 -0.8388 -2.3447 -0.0542
22600SOL    HW276579  10.986   7.660   4.588  2.9808 -1.7004 -0.3821
22601SOL     OW76580   2.098   5.322   0.457 -0.1974  0.1292 -0.5602
22601SOL    HW176581   2.108   5.227   0.443  0.0541  0.1654 -0.6257
22601SOL    HW276582   2.017   5.344   0.409 -1.4474 -0.4186  1.1925
22602SOL     OW76583   4.843   3.103   0.746  0.2949  0.0017  0.3425
22602SOL    HW176584   4.828   3.009   0.754 -0.8604  0.2056  0.7294
22602SOL    HW276585   4.901   3.112   0.670 -1.0678 -0.8882 -0.8527
22603SOL     OW76586   0.823   6.242  11.350 -0.2217 -0.5708 -0.3038
22603SOL    HW176587   0.915   6.221  11.371  0.8886  2.0353 -2.0448
22603SOL    HW276588   0.790   6.285  11.429  0.3403 -0.7060  0.0134
22604SOL     OW76589  10.928  11.771  10.153 -0.0763  0.3147  0.4044
22604SOL    HW176590  10.846  11.818  10.136  0.4766  0.9994 -0.4367
22604SOL    HW276591  10.903  11.703  10.216 -0.9896  1.4750  1.3743
22605SOL     OW76592   2.231   8.751   0.367 -0.4800 -0.1769  0.2777
22605SOL    HW176593   2.217   8.706   0.451 -1.3082 -0.1793  0.1486
22605SOL    HW276594   2.300   8.700   0.324  0.6697  0.4196  1.3744
22606SOL     OW76595   2.739  10.513   5.567  0.4967 -0.1056 -0.4279
22606SOL    HW176596   2.645  10.508   5.554  0.5056  1.2736 -1.2128
22606SOL    HW276597   2.765  10.423   5.587 -1.0771 -0.3647  0.6377
22607SOL     OW76598   7.263   3.609   8.712  0.2310 -0.1346  0.2820
22607SOL    HW176599   7.284   3.679   8.650 -0.3597 -0.2663 -0.0838
22607SOL    HW276600   7.239   3.535   8.656 -0.6837 -0.1356  0.6572
22608SOL     OW76601   4.948   2.414   3.291 -0.0130  0.0056 -0.1596
22608SOL    HW176602   4.899   2.494   3.275  0.9084  0.7133  0.4440
22608SOL    HW276603   4.977   2.386   3.204  0.2453  0.7156 -0.3092
22609SOL     OW76604  11.701   0.956   1.948 -0.5608  0.1711 -0.1255
22609SOL    HW176605  11.720   0.909   2.030 -1.3246  0.8510  0.4546
22609SOL    HW276606  11.665   1.040   1.976 -0.0244  0.7737 -1.1631
22610SOL     OW76607  11.603   4.265  11.252 -0.3834 -0.4094  0.0115
22610SOL    HW176608  11.597   4.334  11.185  0.0667 -0.6875 -0.3235
22610SOL    HW276609  11.641   4.308  11.328 -0.7790 -0.1182  0.0448
22611SOL     OW76610   1.023   3.038   8.057 -0.2046  0.1346 -0.0708
22611SOL    HW176611   0.979   3.107   8.006 -0.8364 -1.2572 -1.4994
22611SOL    HW276612   0.993   3.053   8.147  0.6463  2.4369 -0.0900
22612SOL     OW76613   3.767   5.644   8.915  1.1510 -0.3010  0.1357
22612SOL    HW176614   3.806   5.662   8.830  1.2432  0.0325  0.2463
22612SOL    HW276615   3.673   5.631   8.897  0.8128  1.7293  0.2166
22613SOL     OW76616   3.688   4.884   2.290 -0.2290  0.0636 -0.7010
22613SOL    HW176617   3.752   4.892   2.361 -1.0200 -0.7237  0.1197
22613SOL    HW276618   3.741   4.863   2.213  0.6204  0.7072 -0.3157
22614SOL     OW76619   6.463   0.017   1.642 -0.0896  0.4034  0.2938
22614SOL    HW176620   6.405   0.004   1.567 -0.4208  0.8194  0.4708
22614SOL    HW276621   6.493  -0.071   1.665 -1.8475 -0.0187  1.1444
22615SOL     OW76622   0.752   8.368   4.874 -0.0167 -0.4154 -1.1037
22615SOL    HW176623   0.662   8.381   4.904  0.3104  0.0811 -0.3058
22615SOL    HW276624   0.794   8.319   4.944  1.2215  2.2373  0.1715
22616SOL     OW76625   1.419   0.925  11.469 -0.0029  0.1423  0.1893
22616SOL    HW176626   1.471   0.881  11.401 -1.3759  0.4778 -1.1298
22616SOL    HW276627   1.378   0.853  11.518  1.3454 -0.1147  0.9986
22617SOL     OW76628   2.016   4.531   6.669  0.0929  0.3604 -0.8347
22617SOL    HW176629   2.106   4.558   6.685 -0.2198  0.8581  0.2100
22617SOL    HW276630   1.996   4.566   6.582  0.4078  1.6443 -0.4133
22618SOL     OW76631   9.915   2.987   0.826  0.6228 -0.3618 -0.0088
22618SOL    HW176632   9.876   2.900   0.822 -0.1098 -0.1388  1.6835
22618SOL    HW276633  10.003   2.973   0.861  0.8275 -0.5010 -0.5681
22619SOL     OW76634   7.794   4.208   9.094 -0.2552 -0.6240 -0.0800
22619SOL    HW176635   7.739   4.287   9.095 -0.3565 -0.6956  0.0909
22619SOL    HW276636   7.879   4.238   9.126  0.2869 -0.1720 -1.8313
22620SOL     OW76637   4.405   0.985   3.332 -0.3205  0.2643  0.2229
22620SOL    HW176638   4.449   1.050   3.386  1.8790 -1.9038  1.2030
22620SOL    HW276639   4.448   0.990   3.247 -1.2825  1.1577 -0.2363
22621SOL     OW76640   2.136   7.339   8.792  0.5787 -0.2284 -0.0712
22621SOL    HW176641   2.068   7.295   8.740 -0.0709 -1.1937  1.5086
22621SOL    HW276642   2.165   7.272   8.854  3.1470  0.0941 -0.8015
22622SOL     OW76643  12.044   8.575   8.166  0.2329 -0.4630 -0.1987
22622SOL    HW176644  12.087   8.606   8.086 -0.7673  2.7771  0.3820
22622SOL    HW276645  12.105   8.597   8.236 -0.2828 -0.2743  0.1995
22623SOL     OW76646   6.847   9.363   3.660 -0.5202  0.1385 -0.1211
22623SOL    HW176647   6.858   9.396   3.749  1.0508  0.2853 -0.3386
22623SOL    HW276648   6.805   9.434   3.613 -1.1220  0.1566  0.4380
22624SOL     OW76649   8.928   5.850   7.260 -0.2514 -0.5592  0.5479
22624SOL    HW176650   9.014   5.860   7.220 -0.9016  1.1544 -0.5516
22624SOL    HW276651   8.936   5.890   7.346  0.3402 -1.4855  0.9430
22625SOL     OW76652   2.406   0.368   4.241  0.0669  0.2022  0.0748
22625SOL    HW176653   2.423   0.455   4.278  0.2476 -0.2400  1.0365
22625SOL    HW276654   2.346   0.385   4.168 -0.5380  1.0559  0.7516
22626SOL     OW76655   7.841  12.378   3.934 -0.1226 -0.0959 -0.2594
22626SOL    HW176656   7.927  12.342   3.915 -1.1949 -2.2623 -1.3694
22626SOL    HW276657   7.829  12.449   3.871  0.7404  0.0700 -0.2408
22627SOL     OW76658   2.146   0.849  11.444 -0.8125 -0.0842  0.1458
22627SOL    HW176659   2.182   0.760  11.445 -1.1026 -0.2248 -0.8137
22627SOL    HW276660   2.080   0.847  11.374 -0.8136  0.8872  0.1069
22628SOL     OW76661   4.741   5.620   6.602  0.1559  0.7285 -0.4997
22628SOL    HW176662   4.746   5.705   6.644 -0.1940  0.5898 -0.1718
22628SOL    HW276663   4.701   5.562   6.668  3.8093 -0.6412  0.7372
22629SOL     OW76664   2.783   8.499   0.480  0.0550 -0.1897  0.1365
22629SOL    HW176665   2.713   8.483   0.543  0.1668  0.0070  0.3142
22629SOL    HW276666   2.854   8.536   0.533  0.1608 -0.0525 -0.1013
22630SOL     OW76667   9.404   0.643   6.727  0.2725  0.6278  0.2309
22630SOL    HW176668   9.347   0.693   6.786 -0.8077 -0.0555 -0.2006
22630SOL    HW276669   9.459   0.591   6.785  0.5222  1.3411  0.6584
22631SOL     OW76670   7.887   4.843   2.855 -0.0436 -0.3710 -0.2175
22631SOL    HW176671   7.910   4.931   2.826 -0.9629 -0.9222 -2.9333
22631SOL    HW276672   7.971   4.798   2.865  0.4000 -0.3694 -3.1490
22632SOL     OW76673   3.011  10.587   2.389 -0.2402  0.4735 -0.6110
22632SOL    HW176674   3.010  10.557   2.298 -0.7824  1.2743 -0.8798
22632SOL    HW276675   2.947  10.532   2.434  0.9167 -0.7640 -0.4152
22633SOL     OW76676   1.171   4.644   3.680 -0.5121  0.0314 -0.2771
22633SOL    HW176677   1.226   4.586   3.733 -0.7249 -0.7097 -0.8430
22633SOL    HW276678   1.229   4.676   3.611 -0.1973  1.1122  0.4737
22634SOL     OW76679  11.181  11.436   7.521  0.1957 -0.6529  0.3587
22634SOL    HW176680  11.161  11.524   7.488 -1.1746 -0.7555  0.8175
22634SOL    HW276681  11.216  11.451   7.609  0.5281 -0.5432  0.2092
22635SOL     OW76682  12.575   1.274   9.245 -0.1043 -0.4130  0.3074
22635SOL    HW176683  12.664   1.244   9.266  0.3515  0.7317  0.1296
22635SOL    HW276684  12.523   1.250   9.321  0.6186 -0.0939  0.9202
22636SOL     OW76685  12.017   6.726   6.741  0.6545 -0.2069  0.2088
22636SOL    HW176686  12.072   6.704   6.816  1.3089 -0.2292 -0.2668
22636SOL    HW276687  12.066   6.794   6.694  0.9191 -1.1612 -0.9452
22637SOL     OW76688   6.180   3.427   2.765  0.7019  0.2852 -0.0396
22637SOL    HW176689   6.266   3.439   2.723  0.8513  3.4566  0.9344
22637SOL    HW276690   6.120   3.479   2.713 -0.9429 -2.5192 -1.1795
22638SOL     OW76691   8.193   5.171   5.153  0.1953 -0.3564  0.2086
22638SOL    HW176692   8.179   5.116   5.076 -0.5630  0.2950 -0.1309
22638SOL    HW276693   8.113   5.224   5.160  1.1343  1.1360  0.1592
22639SOL     OW76694   2.788   9.684   3.030 -0.6010  0.5587 -0.0646
22639SOL    HW176695   2.722   9.689   3.100 -1.2877  3.2593 -0.8166
22639SOL    HW276696   2.740   9.648   2.955 -0.5894  0.3186  0.0407
22640SOL     OW76697   6.641  12.226  10.558  0.0269  0.2372  0.4330
22640SOL    HW176698   6.712  12.256  10.499 -0.8660  0.6489 -0.4641
22640SOL    HW276699   6.595  12.159  10.508 -1.2262  1.1433  0.3324
22641SOL     OW76700   0.202   3.573   9.573 -0.8551  0.0864 -0.1108
22641SOL    HW176701   0.205   3.477   9.564  0.0017  0.0128  0.8388
22641SOL    HW276702   0.278   3.594   9.627 -1.0421  1.3139 -0.3141
22642SOL     OW76703   0.178   1.741  11.198 -0.0685  0.3019  0.1233
22642SOL    HW176704   0.168   1.687  11.120 -1.5040  0.4244  0.1970
22642SOL    HW276705   0.098   1.727  11.248  0.8977  0.0640  1.7001
22643SOL     OW76706   2.140   2.039   6.411  0.1100 -0.1398  0.2256
22643SOL    HW176707   2.060   2.079   6.445 -1.6663 -1.2375 -2.3395
22643SOL    HW276708   2.126   1.945   6.421  1.4938 -0.3505  0.4927
22644SOL     OW76709   3.143   9.970   4.684 -0.0582  0.3524  0.2735
22644SOL    HW176710   3.126   9.911   4.757  0.1006  0.7725  0.6530
22644SOL    HW276711   3.059   9.978   4.640 -0.6346  1.6002  1.5291
22645SOL     OW76712   2.971   9.457   6.988  0.3013 -0.0221 -0.4757
22645SOL    HW176713   3.021   9.538   6.996 -0.5282  0.3521  1.8723
22645SOL    HW276714   3.028   9.399   6.938  0.5248  2.2476 -3.0915
22646SOL     OW76715   7.586   4.044   9.124 -0.3566  0.7967  0.3871
22646SOL    HW176716   7.622   3.961   9.091  0.2256  0.4258  1.8903
22646SOL    HW276717   7.662   4.103   9.129 -0.1958  0.5018  2.0533
22647SOL     OW76718   5.575   1.823   7.097  0.2206 -0.5405 -0.1826
22647SOL    HW176719   5.549   1.814   7.005  1.3382  0.8443 -0.6827
22647SOL    HW276720   5.495   1.845   7.143  0.1907  2.8828 -1.5378
22648SOL     OW76721   3.924   6.990   2.005  0.2314  0.5106 -0.0857
22648SOL    HW176722   3.986   6.936   1.957 -2.3751 -2.2465 -0.6606
22648SOL    HW276723   3.862   7.020   1.939 -1.4408 -0.4197  0.9876
22649SOL     OW76724   2.381   9.874   8.207 -0.0707  0.6629 -0.1646
22649SOL    HW176725   2.324   9.916   8.144 -0.4082  0.8840  0.2862
22649SOL    HW276726   2.383   9.782   8.180 -0.1281  0.7763 -0.5551
22650SOL     OW76727   7.777   2.459  12.487  0.1038 -0.2636  0.3515
22650SOL    HW176728   7.748   2.388  12.429 -0.1222 -1.4092  1.8226
22650SOL    HW276729   7.696   2.502  12.514  0.1227 -0.4640  0.7271
22651SOL     OW76730  11.333   2.177  10.062  0.2990 -0.0562 -0.0121
22651SOL    HW176731  11.336   2.116   9.988 -0.8159  0.2935 -0.3710
22651SOL    HW276732  11.391   2.249  10.036  0.6836 -0.4008 -0.1137
22652SOL     OW76733   8.222   2.746   9.698 -0.1745 -0.9448  0.1593
22652SOL    HW176734   8.138   2.789   9.687  0.4414  0.4538  0.6931
22652SOL    HW276735   8.267   2.758   9.614  0.7282  1.1751  0.8871
22653SOL     OW76736   5.023   2.258   9.209 -0.0272  0.3786 -0.3181
22653SOL    HW176737   5.097   2.207   9.243 -0.7797 -0.6464 -0.1828
22653SOL    HW276738   4.971   2.196   9.159 -0.3591  1.2862 -1.1322
22654SOL     OW76739  10.807  12.331   4.295  0.1204  0.1086 -0.4954
22654SOL    HW176740  10.727  12.279   4.299  0.7309 -0.7945  0.5170
22654SOL    HW276741  10.878  12.267   4.303  0.9830  0.8130 -1.9849
22655SOL     OW76742   4.266   3.809   2.091 -0.3005  0.1492 -1.3819
22655SOL    HW176743   4.255   3.714   2.086 -1.3167  0.1540  0.2153
22655SOL    HW276744   4.358   3.821   2.114 -0.5047 -0.5206 -0.1508
22656SOL     OW76745  10.658  12.420  10.625  0.1401  0.5597  0.0906
22656SOL    HW176746  10.713  12.360  10.575 -0.4343  1.1903 -1.3765
22656SOL    HW276747  10.719  12.471  10.678  0.6750 -0.9087  0.9446
22657SOL     OW76748   6.062   3.515   1.893  0.9619 -0.1998  0.0296
22657SOL    HW176749   6.107   3.431   1.880 -0.7080 -1.0226 -0.8158
22657SOL    HW276750   6.114   3.578   1.844  1.2967 -1.0892 -0.7978
22658SOL     OW76751   8.929  10.540  11.035  0.2191  0.7944  0.5606
22658SOL    HW176752   8.864  10.565  11.100 -0.5220  0.7186 -0.1377
22658SOL    HW276753   8.888  10.470  10.985  0.8795  0.6694  0.1741
22659SOL     OW76754   2.379  12.570   8.183  0.5103  0.0320 -0.5471
22659SOL    HW176755   2.305  12.570   8.244  0.3844 -1.1280 -0.6758
22659SOL    HW276756   2.362  12.644   8.124 -0.9641 -0.6946 -1.0696
22660SOL     OW76757  10.698   7.579   2.174 -0.3865  0.1244 -0.5348
22660SOL    HW176758  10.667   7.650   2.118  0.1068  0.8177  0.0571
22660SOL    HW276759  10.764   7.619   2.230 -1.6171 -0.2736  1.2921
22661SOL     OW76760   5.285   7.102  12.376 -0.3910  0.8829  0.4314
22661SOL    HW176761   5.232   7.121  12.453  0.4845 -0.8048  1.5026
22661SOL    HW276762   5.233   7.039  12.325 -0.8436  1.7810 -0.2607
22662SOL     OW76763   0.111   9.076   2.054  0.1148 -0.9438 -0.3710
22662SOL    HW176764   0.022   9.041   2.064 -0.4890  1.0612  2.4219
22662SOL    HW276765   0.163   9.024   2.115 -0.1500  0.8072  1.4271
22663SOL     OW76766  10.141  12.148   3.471  0.0856 -0.0921  0.3191
22663SOL    HW176767  10.097  12.074   3.512  0.1921 -0.6396 -0.5322
22663SOL    HW276768  10.093  12.225   3.503  0.2671 -0.4847  1.5769
22664SOL     OW76769   9.196   5.898   1.681  0.3862 -0.3628 -0.0956
22664SOL    HW176770   9.109   5.880   1.717 -0.7868  1.1229 -2.0307
22664SOL    HW276771   9.193   5.863   1.592  2.0464 -0.9383  0.0455
22665SOL     OW76772   7.768   0.775   2.951 -0.1357  0.1993 -0.0548
22665SOL    HW176773   7.845   0.809   2.906  1.5847 -2.0686  1.0044
22665SOL    HW276774   7.713   0.741   2.880  0.1682  1.1535 -0.7694
22666SOL     OW76775  10.544  12.561   5.593  0.3965  0.1448 -0.2268
22666SOL    HW176776  10.505  12.646   5.569 -0.1873 -0.6449 -2.3089
22666SOL    HW276777  10.551  12.514   5.510  0.5483 -1.9348  0.9029
22667SOL     OW76778  10.569   4.651   2.262  0.1993 -0.1678  0.2444
22667SOL    HW176779  10.601   4.568   2.296  0.2520  0.5111  1.9447
22667SOL    HW276780  10.544   4.632   2.172 -0.8663 -2.3151  0.9262
22668SOL     OW76781  12.319   3.348  10.453 -0.5599  0.1007  0.2864
22668SOL    HW176782  12.380   3.349  10.526  1.1121 -1.0303 -1.0106
22668SOL    HW276783  12.359   3.406  10.387 -0.4259 -1.2753 -0.8964
22669SOL     OW76784   5.645   0.016  12.159  0.3850  0.8086 -0.4679
22669SOL    HW176785   5.646   0.083  12.091  1.8365  0.2045 -1.0597
22669SOL    HW276786   5.561  -0.029  12.146  0.9845  0.1563 -2.4140
22670SOL     OW76787  12.018   5.553   3.303 -0.1622 -0.2641 -0.5892
22670SOL    HW176788  12.026   5.586   3.213  1.6529 -1.2141 -0.8366
22670SOL    HW276789  12.099   5.582   3.346 -0.3009 -1.1279  0.2963
22671SOL     OW76790   7.457   2.989   5.506  0.3586  0.6287  0.0983
22671SOL    HW176791   7.412   2.918   5.461  0.5343  0.4688  0.1741
22671SOL    HW276792   7.432   2.979   5.598  1.1396  0.0871  0.2596
22672SOL     OW76793   4.367   0.811   1.811  0.2075 -0.8000  0.2225
22672SOL    HW176794   4.450   0.812   1.859  0.4903 -0.7422 -0.2523
22672SOL    HW276795   4.373   0.734   1.755  1.0142  0.5176 -1.6087
22673SOL     OW76796  12.485   6.647   5.681  0.2586 -0.0674 -0.1799
22673SOL    HW176797  12.429   6.711   5.726  0.9637  1.5458 -1.4619
22673SOL    HW276798  12.437   6.625   5.601  0.7984  0.2643 -0.6093
22674SOL     OW76799  12.402   7.203   8.115  0.0197  0.0477  0.3015
22674SOL    HW176800  12.411   7.117   8.156  2.9575  0.3063  0.3890
22674SOL    HW276801  12.393   7.264   8.188 -0.0882  0.0217  0.3112
22675SOL     OW76802  11.237   1.397  12.348 -0.1254 -0.0273  0.5717
22675SOL    HW176803  11.204   1.438  12.268 -0.2340  1.2043  1.2267
22675SOL    HW276804  11.331   1.386  12.332 -0.4447 -1.6389 -0.4797
22676SOL     OW76805  11.755   8.030   0.930  0.4085 -0.2042  0.3024
22676SOL    HW176806  11.714   8.057   1.012 -1.4772 -1.6436 -0.1059
22676SOL    HW276807  11.845   8.063   0.936  0.9058 -1.7567  3.7394
22677SOL     OW76808  10.583   1.972   4.458 -0.2619  0.1872  0.0065
22677SOL    HW176809  10.545   2.042   4.406 -0.4861  1.0950  1.3320
22677SOL    HW276810  10.534   1.973   4.540  1.8570  0.6702  1.3333
22678SOL     OW76811   8.742   6.102   5.091 -0.5051 -0.1980 -0.3565
22678SOL    HW176812   8.810   6.036   5.103 -1.8167 -1.4809  0.3291
22678SOL    HW276813   8.674   6.078   5.153 -2.0457  0.4168 -1.7257
22679SOL     OW76814  11.575   1.340   6.290  0.0899 -0.4286  0.1791
22679SOL    HW176815  11.548   1.363   6.378  0.9814  2.5508 -0.2100
22679SOL    HW276816  11.671   1.344   6.292  0.1257 -0.4124 -0.8895
22680SOL     OW76817   8.233   5.755  11.254  0.0955  0.1096  0.5551
22680SOL    HW176818   8.159   5.812  11.230  0.2231  0.4338  0.9058
22680SOL    HW276819   8.209   5.669  11.220  0.3491  0.5776 -0.8386
22681SOL     OW76820  11.741   8.293  10.577 -0.1399 -0.1058 -0.0017
22681SOL    HW176821  11.771   8.218  10.524 -0.6659 -0.6917  0.5224
22681SOL    HW276822  11.789   8.284  10.659  1.6015  1.4788 -0.7501
22682SOL     OW76823  12.130  12.540   4.980  0.4117 -0.3836  0.2006
22682SOL    HW176824  12.062  12.571   4.919  0.1483  0.0760  0.7220
22682SOL    HW276825  12.103  12.451   5.002 -0.7180  0.2089  1.3632
22683SOL     OW76826   1.877   0.934   8.069  0.1271  0.2241 -0.3033
22683SOL    HW176827   1.789   0.942   8.108  0.3209  0.4259  0.1035
22683SOL    HW276828   1.931   0.993   8.121  0.5790 -0.1525 -0.3403
22684SOL     OW76829   0.481  11.115   9.506  0.1516 -0.3258  0.0710
22684SOL    HW176830   0.422  11.048   9.541 -0.6195  0.2630 -0.0878
22684SOL    HW276831   0.538  11.067   9.445 -1.8570 -0.4866 -1.7766
22685SOL     OW76832   9.430   2.856  10.243  0.3558 -0.3295  0.2470
22685SOL    HW176833   9.456   2.946  10.227  0.6611 -0.4389  0.1267
22685SOL    HW276834   9.356   2.863  10.304 -0.7244  0.0734 -1.0625
22686SOL     OW76835   2.542   8.960   9.010  0.6879  0.1623 -0.0895
22686SOL    HW176836   2.556   8.910   9.090  1.9675  1.4289  0.5208
22686SOL    HW276837   2.452   8.991   9.016  0.2530 -1.0747  0.0615
22687SOL     OW76838   3.686   4.753  10.342  0.6308 -0.5634 -0.0696
22687SOL    HW176839   3.680   4.788  10.253  1.2637 -1.6619 -0.5711
22687SOL    HW276840   3.776   4.770  10.369  0.9954 -1.8930 -0.3849
22688SOL     OW76841   6.126   0.517   2.233  0.6771  0.4184 -0.1094
22688SOL    HW176842   6.085   0.460   2.299  0.4711 -0.0865 -0.6608
22688SOL    HW276843   6.132   0.462   2.155  0.9615  0.9956 -0.4987
22689SOL     OW76844   6.188   0.627   2.633  0.2763  0.1806 -0.0549
22689SOL    HW176845   6.225   0.541   2.651 -1.6121 -0.8106 -0.6407
22689SOL    HW276846   6.216   0.682   2.706  1.3920 -0.9462  0.3911
22690SOL     OW76847   1.726   7.619   2.267  0.2795  0.8107 -0.3695
22690SOL    HW176848   1.677   7.656   2.341 -0.2257  0.3655 -0.4766
22690SOL    HW276849   1.658   7.587   2.208  0.7156 -0.2739 -0.2889
22691SOL     OW76850   6.559   5.890   6.071  0.7306  0.4032  0.1407
22691SOL    HW176851   6.613   5.844   6.007  0.8451  0.3060  0.3069
22691SOL    HW276852   6.618   5.954   6.112  0.5944  0.6363 -0.0242
22692SOL     OW76853   0.553   3.661   6.304 -0.0945 -0.4776  0.2247
22692SOL    HW176854   0.480   3.702   6.257 -0.3629 -0.2842  0.7960
22692SOL    HW276855   0.620   3.729   6.308 -1.0997  0.4863  2.4761
22693SOL     OW76856   3.353   4.363  10.706 -0.1555  0.1534 -0.4985
22693SOL    HW176857   3.260   4.358  10.685 -0.1411 -1.1793 -0.3534
22693SOL    HW276858   3.361   4.434  10.770 -1.1798 -0.1957  0.0298
22694SOL     OW76859   4.076   5.557   0.547  0.1166  0.3656  0.5299
22694SOL    HW176860   4.080   5.469   0.510  0.6686  0.4367  0.4071
22694SOL    HW276861   4.168   5.586   0.551 -0.0403  0.8523  0.7644
22695SOL     OW76862   2.489  12.017  11.123  0.4099 -0.3344 -0.3694
22695SOL    HW176863   2.496  12.056  11.210 -0.6081 -2.2764  0.6452
22695SOL    HW276864   2.418  12.066  11.081 -1.0306 -1.1709  0.9711
22696SOL     OW76865   7.387   0.531   0.971 -0.3258  0.7991  0.6088
22696SOL    HW176866   7.451   0.598   0.993  0.5621 -0.2537  1.3391
22696SOL    HW276867   7.307   0.579   0.952  0.9291  2.2459 -1.4218
22697SOL     OW76868   2.566   2.984   7.302  0.1668  0.4129  0.4510
22697SOL    HW176869   2.649   2.947   7.271 -1.1126 -0.5116 -2.2008
22697SOL    HW276870   2.583   3.078   7.308  1.1147  0.3928 -1.2678
22698SOL     OW76871   4.982   0.170   8.053 -0.6412  0.3373 -0.8029
22698SOL    HW176872   4.981   0.196   8.146 -0.6735 -1.4104 -0.2789
22698SOL    HW276873   5.047   0.228   8.013  0.1083  0.4729  0.5322
22699SOL     OW76874   7.452   2.024   6.583 -0.5614  0.7079 -0.4162
22699SOL    HW176875   7.547   2.032   6.596 -0.6048  0.8669 -0.2082
22699SOL    HW276876   7.419   1.994   6.667 -0.6540  0.3057 -0.5907
22700SOL     OW76877  10.151  10.160   3.298  0.2277 -0.1360 -0.2795
22700SOL    HW176878  10.199  10.086   3.261  0.8862 -0.9356  2.0181
22700SOL    HW276879  10.060  10.141   3.279  0.3950 -1.5164  0.1772
22701SOL     OW76880   1.069   1.125   1.526 -0.2103  0.2502  0.0042
22701SOL    HW176881   1.080   1.179   1.604  0.9210  0.2879 -0.1707
22701SOL    HW276882   1.156   1.090   1.508 -0.3070  0.7737 -1.6231
22702SOL     OW76883   5.566   0.434   1.499  0.5039  0.1633  0.2077
22702SOL    HW176884   5.599   0.345   1.511  2.1194  0.5440 -1.0300
22702SOL    HW276885   5.624   0.488   1.554  1.6764  0.7785 -1.5539
22703SOL     OW76886   7.875   7.836   4.867  0.2968 -0.0078 -0.7233
22703SOL    HW176887   7.929   7.902   4.911  0.9228 -0.8086 -0.2584
22703SOL    HW276888   7.804   7.886   4.827  0.3946  0.8768  0.1704
22704SOL     OW76889   5.659  10.347  12.489 -0.0473 -0.3327 -0.1107
22704SOL    HW176890   5.675  10.336  12.583  0.0022  0.9535  0.0557
22704SOL    HW276891   5.712  10.279  12.448 -1.1084 -1.7988  0.8245
22705SOL     OW76892   2.927   9.709   1.306  0.2687  0.4219  0.1937
22705SOL    HW176893   2.987   9.782   1.324  0.6090 -0.0055  0.8094
22705SOL    HW276894   2.840   9.750   1.301  0.5215  0.9471 -0.0200
22706SOL     OW76895   7.197   1.458   9.776 -0.1527 -0.3887 -0.1544
22706SOL    HW176896   7.212   1.509   9.856 -0.6565 -0.1859 -0.1865
22706SOL    HW276897   7.267   1.486   9.716 -0.1128 -0.1283  0.0134
22707SOL     OW76898  11.059   7.812  11.667 -0.2877 -0.2982 -0.0745
22707SOL    HW176899  11.119   7.858  11.609 -0.5805  0.2997  0.0905
22707SOL    HW276900  10.973   7.822  11.625 -0.3298 -0.8480 -0.1283
22708SOL     OW76901  11.163   1.465  12.596  0.1060  0.7163 -0.3780
22708SOL    HW176902  11.250   1.499  12.618  1.5416 -2.3471 -0.8925
22708SOL    HW276903  11.175   1.416  12.515 -2.0452 -0.0814 -0.2923
22709SOL     OW76904   5.150   7.661   5.762 -0.0678 -0.0365  0.2716
22709SOL    HW176905   5.107   7.736   5.803  1.2683  0.6187  0.4995
22709SOL    HW276906   5.191   7.614   5.835 -0.1760 -0.5193  0.0277
22710SOL     OW76907   0.656   6.537   1.273  0.4240  0.0051  0.0529
22710SOL    HW176908   0.664   6.443   1.256 -2.3417 -0.2507 -0.3075
22710SOL    HW276909   0.581   6.564   1.221  2.1264  2.8339 -1.1651
22711SOL     OW76910   3.137   6.857   2.253 -0.0007  0.4961 -0.1936
22711SOL    HW176911   3.052   6.867   2.295  0.5450 -0.5789  1.2323
22711SOL    HW276912   3.117   6.810   2.171 -0.7526 -0.0851  0.3048
22712SOL     OW76913   1.829  10.561   4.889 -0.2064  0.1182 -0.6232
22712SOL    HW176914   1.867  10.564   4.802 -0.6189 -3.3965 -1.0411
22712SOL    HW276915   1.737  10.541   4.875 -1.8487  5.2679  0.5258
22713SOL     OW76916   6.939   8.451  12.516 -0.1952 -0.0955 -0.5012
22713SOL    HW176917   6.971   8.404  12.439  1.1404  0.2528 -0.1780
22713SOL    HW276918   7.001   8.429  12.586 -1.4984 -0.5718  0.5475
22714SOL     OW76919   5.242   0.850  11.103 -0.0439 -0.2727  0.0754
22714SOL    HW176920   5.181   0.890  11.041 -0.3656 -0.0823  0.5076
22714SOL    HW276921   5.228   0.899  11.184  1.5010  0.5451 -0.1168
22715SOL     OW76922   5.678  10.005   8.003 -0.6495  0.2801  0.2181
22715SOL    HW176923   5.738  10.029   8.073 -1.2694 -0.7542  1.1380
22715SOL    HW276924   5.731   9.956   7.941  0.6390  3.7896 -1.6823
22716SOL     OW76925   8.771   5.203  11.636 -0.1547  0.1293  0.3086
22716SOL    HW176926   8.832   5.276  11.649  0.1054  0.2734 -1.5433
22716SOL    HW276927   8.825   5.133  11.599 -0.4184 -1.0284  1.9843
22717SOL     OW76928  11.060   9.630   1.515  0.0513 -0.2286 -0.8401
22717SOL    HW176929  11.129   9.569   1.490 -0.7923 -1.6673  0.2376
22717SOL    HW276930  11.012   9.586   1.585 -3.1296 -0.1286 -2.7653
22718SOL     OW76931   7.043  10.219   2.700  0.3974  0.2680  0.3596
22718SOL    HW176932   7.059  10.313   2.712 -0.1738  0.2092  1.6978
22718SOL    HW276933   7.126  10.185   2.669  0.7397  1.1464  0.2654
22719SOL     OW76934  11.769   4.529   9.060 -0.6813 -0.0720 -0.2341
22719SOL    HW176935  11.730   4.544   9.147  1.8857  0.5581  0.8820
22719SOL    HW276936  11.699   4.552   8.999 -2.6059 -0.6262  1.6341
22720SOL     OW76937   9.444   3.988   0.823  0.0508  0.1043  0.8513
22720SOL    HW176938   9.470   3.929   0.752 -1.4079  0.4388 -0.0161
22720SOL    HW276939   9.398   3.932   0.885  1.1122 -0.1447  1.4345
22721SOL     OW76940   9.634   5.053   4.066 -0.0609  0.8012 -0.3908
22721SOL    HW176941   9.549   5.042   4.024 -0.2129  3.2308 -0.8158
22721SOL    HW276942   9.688   5.099   4.001  0.4995  2.3185  1.0753
22722SOL     OW76943   4.486   7.909   6.458  0.9486  0.1841 -0.1277
22722SOL    HW176944   4.418   7.951   6.510 -1.6452 -2.1033 -1.4381
22722SOL    HW276945   4.532   7.982   6.416 -0.3553  1.8420  1.1548
22723SOL     OW76946  11.131   6.351   2.223 -0.5027  0.6559  0.0849
22723SOL    HW176947  11.201   6.401   2.180  0.0486  0.8794  1.2091
22723SOL    HW276948  11.161   6.340   2.313 -0.6563 -1.6503 -0.0976
22724SOL     OW76949   0.439   0.501   3.493 -0.2430  0.8725 -0.3440
22724SOL    HW176950   0.406   0.567   3.554 -0.9351  0.8120 -0.6418
22724SOL    HW276951   0.459   0.425   3.548 -0.4169  0.9807 -0.1266
22725SOL     OW76952  11.945   9.353   9.282 -0.2345 -0.3351  0.6440
22725SOL    HW176953  11.974   9.435   9.242 -2.5787  0.6312  0.7713
22725SOL    HW276954  12.000   9.344   9.359  1.1845  0.2308 -0.2564
22726SOL     OW76955   7.969   3.308   8.690 -0.0894 -0.2354 -0.0404
22726SOL    HW176956   7.922   3.323   8.772  1.4817 -0.7608  1.0147
22726SOL    HW276957   8.058   3.285   8.718  0.5774 -0.0864 -1.9146
22727SOL     OW76958   2.984  10.872   2.303 -0.0839 -0.6032  0.2928
22727SOL    HW176959   3.009  10.964   2.312  0.7616 -0.7995  0.0893
22727SOL    HW276960   3.033  10.828   2.372 -1.5224 -0.7310  1.2608
22728SOL     OW76961   7.632   7.889  11.149 -0.2045  0.4100  0.7853
22728SOL    HW176962   7.723   7.896  11.118  0.1729  1.4198  2.0417
22728SOL    HW276963   7.580   7.930  11.079  0.4055  0.7275  0.5120
22729SOL     OW76964   6.190   4.187   3.509 -0.0547 -0.4062  0.1362
22729SOL    HW176965   6.152   4.102   3.484 -0.5693 -0.6490  1.6276
22729SOL    HW276966   6.248   4.209   3.437 -1.9815 -0.6953 -1.5724
22730SOL     OW76967   4.608   4.139   5.623  0.0168 -0.1383  0.5948
22730SOL    HW176968   4.545   4.076   5.657  0.1711 -0.1537  0.8502
22730SOL    HW276969   4.680   4.138   5.685  0.7437 -0.8812 -0.2416
22731SOL     OW76970   0.753  10.597   5.160 -0.5166  0.2950 -0.3839
22731SOL    HW176971   0.840  10.570   5.132 -1.1610  0.2406 -2.5293
22731SOL    HW276972   0.757  10.693   5.161 -0.3184  0.2859 -0.0197
22732SOL     OW76973   5.793   7.561  11.574  0.5239 -0.0193 -0.0817
22732SOL    HW176974   5.743   7.541  11.494 -0.0242  0.5779  0.1076
22732SOL    HW276975   5.774   7.653  11.592  0.7768 -0.1052  0.6520
22733SOL     OW76976   4.775  10.821  10.388 -0.5642 -0.4190  0.0941
22733SOL    HW176977   4.838  10.857  10.450 -1.3293 -0.3615  0.8554
22733SOL    HW276978   4.824  10.811  10.307  0.1274  0.7065  0.3471
22734SOL     OW76979   5.333  11.059   4.784 -0.8063 -0.3751 -0.3567
22734SOL    HW176980   5.267  10.997   4.814  0.6049 -1.9638 -0.4021
22734SOL    HW276981   5.343  11.041   4.690 -3.0086  2.5120 -1.3197
22735SOL     OW76982  10.890   4.700   6.339  0.3715 -0.2317 -0.2183
22735SOL    HW176983  10.799   4.672   6.330  0.6173 -1.1941  0.1201
22735SOL    HW276984  10.900   4.717   6.433  0.4066  0.3774 -0.3285
22736SOL     OW76985   7.424   5.776   2.988  0.0434 -0.1769  0.5915
22736SOL    HW176986   7.511   5.775   2.947 -0.3649 -2.2864 -0.3749
22736SOL    HW276987   7.407   5.869   3.006  1.1952  0.6588 -2.0746
22737SOL     OW76988   2.394   6.132   2.871  0.2425  0.1324 -0.2087
22737SOL    HW176989   2.467   6.190   2.851  1.8333 -1.5584  0.3013
22737SOL    HW276990   2.320   6.168   2.823  1.0935  2.5934  0.1763
22738SOL     OW76991   0.817   5.465   0.721 -0.3205 -0.0552  0.4206
22738SOL    HW176992   0.873   5.454   0.644 -0.3709  0.2571  0.3364
22738SOL    HW276993   0.875   5.450   0.795 -0.6542 -2.1122  0.3176
22739SOL     OW76994  10.433   9.279   2.803  0.2120  0.5536  0.2677
22739SOL    HW176995  10.369   9.319   2.744 -1.4374 -2.4780 -0.1576
22739SOL    HW276996  10.518   9.309   2.769 -0.7724  0.7711 -2.2066
22740SOL     OW76997  10.866  11.426  12.379  0.2100  0.2531  0.1680
22740SOL    HW176998  10.791  11.374  12.408  1.1075 -1.0307  0.2694
22740SOL    HW276999  10.910  11.370  12.315  1.4021  0.7515  0.5254
22741SOL     OW77000   5.185  10.166  11.381 -0.9385 -0.2446  0.2550
22741SOL    HW177001   5.151  10.149  11.468 -1.2013 -1.6122 -0.0806
22741SOL    HW277002   5.280  10.175  11.393 -1.0444  0.2203  0.7573
22742SOL     OW77003  12.010   3.592  11.428  0.1386 -0.0399 -0.5665
22742SOL    HW177004  11.978   3.660  11.369 -0.0591  0.5024  0.1589
22742SOL    HW277005  12.102   3.613  11.443 -0.8884  2.8131  3.2413
22743SOL     OW77006  11.661  10.969  10.651  0.2892  0.2462  1.0253
22743SOL    HW177007  11.713  11.046  10.672  1.4943 -0.5812  1.1547
22743SOL    HW277008  11.724  10.905  10.618 -0.7068 -0.6458  0.7798
22744SOL     OW77009   6.780   1.050  11.004 -0.2199  0.3904  0.2834
22744SOL    HW177010   6.734   0.969  10.982 -0.2990 -0.0673  1.9711
22744SOL    HW277011   6.850   1.056  10.939 -1.1526 -0.1932 -0.8234
22745SOL     OW77012   9.665   1.545   4.891 -0.0275  0.3341  0.1297
22745SOL    HW177013   9.678   1.494   4.811  1.2977 -1.6248  1.4863
22745SOL    HW277014   9.570   1.556   4.897 -0.5730 -3.2003  0.3706
22746SOL     OW77015   1.572  10.468  12.112 -0.0618 -0.8307 -0.1977
22746SOL    HW177016   1.485  10.467  12.073  0.3369 -1.4397 -1.0957
22746SOL    HW277017   1.597  10.560  12.113 -0.6234 -0.6763 -0.1386
22747SOL     OW77018   6.137   9.600   6.474 -0.5278 -0.1371 -0.4900
22747SOL    HW177019   6.221   9.623   6.434 -0.8007  1.5327 -0.1523
22747SOL    HW277020   6.158   9.582   6.566 -0.2404 -1.8280 -0.8545
22748SOL     OW77021   2.006  10.418   0.821 -0.4095  0.0764  0.2940
22748SOL    HW177022   1.975  10.499   0.781 -1.2407 -1.0916 -1.5710
22748SOL    HW277023   2.091  10.440   0.859 -0.1994  1.6101 -0.9719
22749SOL     OW77024   5.779   3.689   6.189  0.1364 -0.3110 -0.2092
22749SOL    HW177025   5.790   3.657   6.279  0.1993  2.5013  0.8694
22749SOL    HW277026   5.866   3.681   6.151  1.0037  1.7328  1.1928
22750SOL     OW77027   7.665  12.275   8.652  0.1540 -0.5637 -0.8142
22750SOL    HW177028   7.734  12.307   8.593 -0.6859  1.5860 -0.7274
22750SOL    HW277029   7.703  12.281   8.739  0.6433 -1.6614 -0.9357
22751SOL     OW77030   0.546   6.923   0.321 -0.1319 -0.0533 -0.1518
22751SOL    HW177031   0.492   6.928   0.243 -0.1826  0.3380 -0.0939
22751SOL    HW277032   0.484   6.922   0.394 -0.2138 -2.8068 -0.1527
22752SOL     OW77033   5.267  10.595   2.038  0.2077 -0.3426  0.1307
22752SOL    HW177034   5.329  10.551   1.979  1.1257  1.0954 -0.0212
22752SOL    HW277035   5.314  10.601   2.122 -0.1423 -0.2063  0.3162
22753SOL     OW77036   9.530   5.143   1.285 -0.0768  0.5370 -0.2240
22753SOL    HW177037   9.587   5.100   1.348  0.9716  2.5257  0.2803
22753SOL    HW277038   9.497   5.072   1.229  0.6306 -1.0038  1.2348
22754SOL     OW77039   2.585  11.043   9.195 -0.1933  0.5778 -0.6038
22754SOL    HW177040   2.666  11.041   9.246 -0.1925 -0.3285 -0.6165
22754SOL    HW277041   2.552  11.132   9.206 -0.5509  0.2476  1.5386
22755SOL     OW77042   9.397   0.993   6.624 -0.0333 -0.3876 -0.0861
22755SOL    HW177043   9.405   0.940   6.703  0.6778 -0.1629 -0.0067
22755SOL    HW277044   9.302   1.003   6.612 -0.1572  0.1706  1.1394
22756SOL     OW77045  11.050   6.232  11.984 -0.0198  0.0909 -0.8211
22756SOL    HW177046  11.040   6.241  11.889 -1.6245  2.7466 -0.5051
22756SOL    HW277047  10.963   6.253  12.019  0.8095  0.2596  1.2897
22757SOL     OW77048   3.367   7.636   0.994  0.1827  0.2961  0.5181
22757SOL    HW177049   3.399   7.548   1.013  1.1036  0.6551  0.6660
22757SOL    HW277050   3.329   7.666   1.076  0.0012  0.0982  0.5080
22758SOL     OW77051   2.928   3.836   9.564 -0.0550  0.1822  0.1692
22758SOL    HW177052   2.917   3.818   9.470  0.3350  2.1673 -0.2874
22758SOL    HW277053   2.938   3.931   9.570 -0.3329  0.1302  2.2671
22759SOL     OW77054  10.683   7.842  10.837  0.4933 -0.4380 -0.7822
22759SOL    HW177055  10.594   7.818  10.861  0.3482  1.1521  0.4203
22759SOL    HW277056  10.673   7.889  10.754  0.5905 -2.7201 -2.1878
22760SOL     OW77057   2.197   9.686   8.586  0.1921 -0.6804  0.9101
22760SOL    HW177058   2.249   9.757   8.549  0.8566 -1.2144  0.8055
22760SOL    HW277059   2.112   9.693   8.542  0.2467  0.0524  0.9126
22761SOL     OW77060   7.169   3.465   0.865 -0.4923  0.6387 -0.2558
22761SOL    HW177061   7.175   3.469   0.960  1.6581 -0.7354 -0.2733
22761SOL    HW277062   7.118   3.385   0.848  0.5563 -0.0590 -0.2287
22762SOL     OW77063   7.483  11.533   8.522 -0.2453 -0.1099  0.0708
22762SOL    HW177064   7.468  11.621   8.556 -1.9566 -0.5587  0.5306
22762SOL    HW277065   7.517  11.547   8.433  1.0944  1.0120  0.7230
22763SOL     OW77066   3.748   1.374   2.701 -0.3189 -0.2007  0.2403
22763SOL    HW177067   3.828   1.385   2.753 -0.9473  0.7370  1.0501
22763SOL    HW277068   3.694   1.316   2.753 -0.0408 -1.1325 -0.4810
22764SOL     OW77069   9.718   5.838   3.586 -0.0084  0.5262 -0.0478
22764SOL    HW177070   9.670   5.889   3.651  0.0449  0.5213 -0.0045
22764SOL    HW277071   9.709   5.747   3.614  1.1222  0.6234  0.7037
22765SOL     OW77072  10.302   4.883  11.115 -0.3644 -0.2254 -0.5152
22765SOL    HW177073  10.280   4.793  11.091  0.5346 -0.0610 -2.1003
22765SOL    HW277074  10.234   4.936  11.074 -1.7769 -0.2200  1.6751
22766SOL     OW77075  10.427   0.133  12.344  0.2912 -0.1416  0.7424
22766SOL    HW177076  10.347   0.183  12.334  0.8979  0.6232 -0.5251
22766SOL    HW277077  10.403   0.043  12.321 -0.0606  0.2096 -0.3202
22767SOL     OW77078   1.333   1.902   4.986 -0.1659 -0.0568  0.2167
22767SOL    HW177079   1.246   1.933   5.010  0.6831  0.4408  3.1152
22767SOL    HW277080   1.338   1.814   5.022  0.7736  0.2256  0.8213
22768SOL     OW77081  10.090   2.775   6.144 -0.4621  0.9386  0.2759
22768SOL    HW177082  10.154   2.824   6.092  0.4087 -0.8166 -0.3927
22768SOL    HW277083  10.133   2.692   6.163 -2.5756 -0.3568 -0.2712
22769SOL     OW77084  11.149   4.271   3.675  0.0025  0.1604 -0.1340
22769SOL    HW177085  11.089   4.302   3.607 -1.2404  0.2466  0.9465
22769SOL    HW277086  11.118   4.314   3.755  1.4827  0.1455  0.4844
22770SOL     OW77087   4.753   6.653   8.191  0.3656 -0.4474  0.7630
22770SOL    HW177088   4.791   6.607   8.117 -2.6236 -1.0260 -0.5675
22770SOL    HW277089   4.730   6.583   8.253  1.4420 -0.1068  1.5724
22771SOL     OW77090   6.043   6.738   8.284  0.0696 -0.0118  0.6790
22771SOL    HW177091   6.116   6.748   8.223  0.4431 -0.7253  0.9967
22771SOL    HW277092   6.067   6.662   8.337 -1.1424 -0.5643  0.4524
22772SOL     OW77093   3.848   7.814   9.246  0.0599 -0.1242 -0.8120
22772SOL    HW177094   3.878   7.844   9.160  0.0786 -0.5900 -0.9721
22772SOL    HW277095   3.785   7.745   9.226 -2.4066  1.8992 -0.5513
22773SOL     OW77096   3.432   5.821   4.484 -0.2382  0.2096 -0.3768
22773SOL    HW177097   3.513   5.870   4.487  0.2776 -0.4331 -2.3533
22773SOL    HW277098   3.404   5.825   4.392 -1.3637 -1.2570 -0.1499
22774SOL     OW77099   6.306   5.634   6.832  0.1905 -0.2435 -0.4817
22774SOL    HW177100   6.296   5.553   6.882 -0.5698  0.6720  0.9264
22774SOL    HW277101   6.241   5.627   6.762 -1.4852  0.0486  0.9537
22775SOL     OW77102   8.654   0.527   2.990 -0.1220 -0.1658  0.0337
22775SOL    HW177103   8.686   0.438   2.978  0.9661  0.0977  0.8178
22775SOL    HW277104   8.725   0.582   2.958 -1.9895  0.4712 -3.4431
22776SOL     OW77105   1.993  10.328  10.864  0.0052 -0.2251  0.7692
22776SOL    HW177106   2.087  10.332  10.844 -0.4014  0.3656 -1.2843
22776SOL    HW277107   1.970  10.236  10.850 -0.1343  0.0513 -1.0439
22777SOL     OW77108   4.146   7.396   7.858 -0.0147 -0.3761  0.1597
22777SOL    HW177109   4.080   7.341   7.899 -0.7387  0.0841 -0.3518
22777SOL    HW277110   4.229   7.367   7.895 -0.5937 -0.3427  1.5098
22778SOL     OW77111   2.528   9.906   1.531  0.3807 -0.0462  0.1830
22778SOL    HW177112   2.580   9.976   1.572 -0.5758  0.3124  0.8239
22778SOL    HW277113   2.439   9.942   1.527  0.4898  0.0902 -2.6016
22779SOL     OW77114   3.218   2.526   5.070  0.3258 -0.2809 -0.4396
22779SOL    HW177115   3.137   2.543   5.118  0.4721  1.3921 -0.7038
22779SOL    HW277116   3.285   2.574   5.119  0.7264  0.2609 -1.4752
22780SOL     OW77117  10.816   3.144   6.450  0.5002  0.0167 -0.1675
22780SOL    HW177118  10.801   3.078   6.382  0.9503  0.4185 -0.6601
22780SOL    HW277119  10.858   3.095   6.521 -1.5888 -0.7887  0.5927
22781SOL     OW77120  10.875   5.453   4.668 -0.1942  0.3328 -0.0242
22781SOL    HW177121  10.930   5.376   4.679  0.2981  0.3556 -1.9386
22781SOL    HW277122  10.788   5.425   4.696 -0.3921 -1.4844 -2.1542
22782SOL     OW77123   5.795   1.546   4.904 -0.0251 -0.7778 -0.7001
22782SOL    HW177124   5.755   1.465   4.936  1.1361 -0.8471  0.6672
22782SOL    HW277125   5.889   1.530   4.908  0.2603  0.9206  0.4360
22783SOL     OW77126   5.542  10.834   6.032 -0.6399  0.3822  0.2821
22783SOL    HW177127   5.621  10.836   5.977 -0.7234 -0.5366  0.1200
22783SOL    HW277128   5.493  10.911   6.005 -0.2983  0.3813 -0.3657
22784SOL     OW77129  10.988   6.396  10.958  0.6774  0.2805 -0.1491
22784SOL    HW177130  10.947   6.466  10.906  2.2226 -0.0075 -1.8556
22784SOL    HW277131  11.074   6.429  10.980  0.7105 -0.3458  0.7072
22785SOL     OW77132   0.019   0.114  10.065 -0.0936  0.3215 -0.0324
22785SOL    HW177133  -0.076   0.129  10.065 -0.6549 -2.3457 -2.8399
22785SOL    HW277134   0.029   0.022  10.091  1.8853  0.8214  1.2607
22786SOL     OW77135   1.107   9.163  10.173  0.0432  0.1847  0.3691
22786SOL    HW177136   1.187   9.158  10.226 -1.3818 -0.4262  2.6305
22786SOL    HW277137   1.097   9.075  10.138  0.1687  0.1685  0.3714
22787SOL     OW77138   3.702   7.657  10.687  0.5388 -0.5569 -0.2192
22787SOL    HW177139   3.633   7.597  10.659 -1.0833  0.7310  0.8425
22787SOL    HW277140   3.760   7.663  10.611 -1.0497 -0.9277 -1.5323
22788SOL     OW77141  12.190   1.614   0.239  0.4365  0.1118  0.0213
22788SOL    HW177142  12.258   1.577   0.182  1.2162  1.7087 -0.1270
22788SOL    HW277143  12.202   1.708   0.233 -1.8354  0.4612 -0.0291
22789SOL     OW77144   0.224   9.161   5.084  0.4682  0.1083 -0.0367
22789SOL    HW177145   0.314   9.167   5.117  0.0934 -0.2302  1.0927
22789SOL    HW277146   0.191   9.079   5.119 -0.6969  0.8435  0.6447
22790SOL     OW77147   2.552   3.795   5.374  0.6900  0.0025  0.4228
22790SOL    HW177148   2.645   3.807   5.353  0.4929 -0.1573 -0.6025
22790SOL    HW277149   2.506   3.817   5.292 -0.1584 -0.1865  0.8370
22791SOL     OW77150   8.655   7.481   0.897  0.0111  0.2253  0.0430
22791SOL    HW177151   8.681   7.448   0.811 -2.4241  2.0469 -1.5214
22791SOL    HW277152   8.685   7.572   0.898 -0.3949  0.3604  0.9554
22792SOL     OW77153   2.098   1.519   0.006  0.0540 -0.3922  0.0505
22792SOL    HW177154   2.142   1.452   0.058 -0.4207 -1.3609 -0.7579
22792SOL    HW277155   2.165   1.551  -0.053  0.1060 -0.6950 -0.0599
22793SOL     OW77156   8.340   7.556   3.358 -0.0468  0.1682  0.0132
22793SOL    HW177157   8.341   7.463   3.335  0.7932  0.3862 -0.9184
22793SOL    HW277158   8.421   7.591   3.320 -0.6060  1.3856 -0.1173
22794SOL     OW77159   4.307   5.395   6.077  0.1584 -0.2433 -0.0348
22794SOL    HW177160   4.324   5.433   5.990 -1.5348 -1.5986 -1.0281
22794SOL    HW277161   4.383   5.340   6.095  0.6479  0.2581 -0.5356
22795SOL     OW77162   2.876   8.434   4.323  0.0975  0.0684  0.0428
22795SOL    HW177163   2.845   8.357   4.275  2.5519 -0.5643 -0.7019
22795SOL    HW277164   2.891   8.402   4.412  0.8655 -0.2622 -0.1997
22796SOL     OW77165   6.691   4.703   4.466  0.2580 -0.0335 -0.2695
22796SOL    HW177166   6.600   4.727   4.451 -0.5162 -1.0231  2.3321
22796SOL    HW277167   6.713   4.644   4.393 -1.4517 -0.4809 -0.4632
22797SOL     OW77168   7.897   2.984   9.910  0.5281 -0.0075  0.1182
22797SOL    HW177169   7.900   3.064   9.857  1.9547  0.1282  0.3471
22797SOL    HW277170   7.918   2.914   9.848  1.5807  0.0800  0.3609
22798SOL     OW77171   6.476  12.400   8.764 -0.6701  0.2135 -0.5639
22798SOL    HW177172   6.494  12.485   8.803  1.8846 -0.4434 -0.1719
22798SOL    HW277173   6.546  12.387   8.700 -1.2784 -1.3975 -0.9668
22799SOL     OW77174   2.336  12.301   0.604 -0.1670 -0.2991 -0.4748
22799SOL    HW177175   2.353  12.251   0.524 -0.6594 -0.7058 -0.3317
22799SOL    HW277176   2.353  12.392   0.581 -0.3588 -0.4116 -1.0504
22800SOL     OW77177   7.057   9.470  12.570 -0.6442 -0.0577  0.6506
22800SOL    HW177178   7.153   9.467  12.563 -0.7481 -1.8349 -1.3995
22800SOL    HW277179   7.038   9.425  12.653  0.2888 -0.9884  0.3938
22801SOL     OW77180   3.095   2.312   3.771 -0.2378  0.0345  0.2229
22801SOL    HW177181   3.080   2.266   3.854  3.3446  1.1179  1.6584
22801SOL    HW277182   3.142   2.249   3.717 -2.7783 -0.7540 -1.2355
22802SOL     OW77183   1.401   7.863  12.348  0.1791  0.2457 -0.2560
22802SOL    HW177184   1.407   7.882  12.254 -0.5048  1.7269 -0.0232
22802SOL    HW277185   1.476   7.806  12.365 -0.3891 -1.0990 -1.9340
22803SOL     OW77186   6.531   2.039  12.539  0.0210 -0.0674  0.1587
22803SOL    HW177187   6.522   2.114  12.597  0.5744 -0.3525  0.6225
22803SOL    HW277188   6.597   2.067  12.475  1.4111 -0.6971  1.2571
22804SOL     OW77189  11.974   4.706   5.216  0.9710 -0.3430  0.2710
22804SOL    HW177190  11.992   4.687   5.124  0.6640 -1.3540  0.4048
22804SOL    HW277191  11.962   4.620   5.256  1.3868  0.0669  1.3191
22805SOL     OW77192   9.974   4.609  11.315  0.1569  0.0287  0.1606
22805SOL    HW177193   9.938   4.638  11.399 -0.1770  1.5240 -0.4638
22805SOL    HW277194  10.003   4.519  11.331 -0.1537  0.1863  1.7896
22806SOL     OW77195   3.873   7.910  11.831  0.1588 -0.4619  0.1885
22806SOL    HW177196   3.946   7.939  11.884 -0.1135 -1.2763  1.0363
22806SOL    HW277197   3.903   7.828  11.791 -0.5041 -1.1657  1.0821
22807SOL     OW77198   7.731  10.837  12.529  0.0020 -0.1223 -0.0030
22807SOL    HW177199   7.697  10.830  12.618  1.2740  1.7332  0.6978
22807SOL    HW277200   7.734  10.747  12.497 -0.0799 -0.8837  1.9833
22808SOL     OW77201  11.360   8.352   9.797  0.2290  0.0033  0.2432
22808SOL    HW177202  11.342   8.364   9.890  0.0517  2.8422 -0.0701
22808SOL    HW277203  11.357   8.257   9.784 -0.4407 -0.4336  2.9662
22809SOL     OW77204  11.032  10.851   9.721  0.8213 -0.2533  0.0641
22809SOL    HW177205  11.057  10.836   9.630  2.4530  0.7979  0.2939
22809SOL    HW277206  11.058  10.770   9.766 -0.0985 -0.8219 -0.4084
22810SOL     OW77207   9.063   7.857   4.299 -0.4746  0.2918 -0.0390
22810SOL    HW177208   8.972   7.832   4.314 -0.5886  0.2835 -0.6972
22810SOL    HW277209   9.092   7.893   4.382 -0.7865 -0.5924  0.4700
22811SOL     OW77210   6.024   2.894   1.730 -0.1694  0.0311  0.2042
22811SOL    HW177211   6.079   2.822   1.759  0.8763  0.5603 -0.3985
22811SOL    HW277212   6.056   2.970   1.778  0.8249  0.6855 -1.4294
22812SOL     OW77213   1.241   0.785  10.904 -0.5276 -0.2764  0.0957
22812SOL    HW177214   1.275   0.857  10.850  0.2642 -0.5818  0.1825
22812SOL    HW277215   1.226   0.714  10.842  0.7147 -0.7463  0.3067
22813SOL     OW77216  11.053  11.468   5.985  0.0861  0.0512 -0.0761
22813SOL    HW177217  10.963  11.477   5.954 -0.1583 -0.3993  0.4852
22813SOL    HW277218  11.070  11.548   6.035 -0.3487 -0.2988  0.6507
22814SOL     OW77219   4.634   9.063   3.125 -0.3064  0.1655  0.8369
22814SOL    HW177220   4.684   8.994   3.169 -0.2311 -0.4070 -0.1329
22814SOL    HW277221   4.701   9.124   3.095  0.1076 -1.6412 -2.3191
22815SOL     OW77222   6.223   1.299  12.335  0.6145  0.5948 -0.4555
22815SOL    HW177223   6.259   1.238  12.270 -0.1786 -0.1646 -0.2048
22815SOL    HW277224   6.156   1.348  12.288 -1.6286 -1.5747  0.2881
22816SOL     OW77225   4.382  12.020   7.067  0.1488 -0.1318  0.0239
22816SOL    HW177226   4.339  11.940   7.095  0.1545 -1.0937 -2.4531
22816SOL    HW277227   4.372  12.080   7.141 -0.8518 -2.0198  1.5026
22817SOL     OW77228   8.628   3.829  10.164  0.1298  0.3305 -0.1650
22817SOL    HW177229   8.575   3.762  10.122  0.1800  0.1547  0.0509
22817SOL    HW277230   8.713   3.787  10.180  0.4044  0.6692 -0.6842
22818SOL     OW77231  12.088   1.254   7.338  0.2926  0.5435  0.2082
22818SOL    HW177232  12.129   1.179   7.295  0.3709  0.9451 -0.4291
22818SOL    HW277233  12.147   1.277   7.410 -0.4139 -0.8582  1.2813
22819SOL     OW77234   3.439  11.268   1.675 -0.4134  0.0806  0.2814
22819SOL    HW177235   3.465  11.177   1.658 -1.0726  0.0854 -0.9121
22819SOL    HW277236   3.350  11.262   1.709 -1.0978  0.3245 -1.3663
22820SOL     OW77237   2.362  12.423   2.009  0.0772  0.6672 -0.5728
22820SOL    HW177238   2.314  12.438   2.091 -1.6891  0.5224 -1.5226
22820SOL    HW277239   2.451  12.401   2.037 -0.5774  0.1971  1.3259
22821SOL     OW77240   5.239   9.796   8.516 -0.1585 -0.1511  0.9010
22821SOL    HW177241   5.302   9.861   8.484 -0.7692 -0.2654 -0.6185
22821SOL    HW277242   5.165   9.804   8.456 -1.7277  0.1642  2.8007
22822SOL     OW77243   2.824  12.432  10.396 -0.0787  0.1264 -0.0621
22822SOL    HW177244   2.919  12.437  10.402 -0.0228 -0.7392 -0.0978
22822SOL    HW277245   2.801  12.348  10.436 -0.8140  0.2694 -0.1591
22823SOL     OW77246   5.091   4.526   4.165 -0.0293  0.6602 -0.0247
22823SOL    HW177247   5.103   4.449   4.221 -2.6095  0.7002  0.7142
22823SOL    HW277248   5.169   4.528   4.110  0.4650 -2.0507  0.4387
22824SOL     OW77249   5.981   6.107  10.424  0.6020  0.0485  0.0773
22824SOL    HW177250   6.027   6.182  10.386  1.9321 -0.8920 -0.2712
22824SOL    HW277251   5.944   6.140  10.506  1.1148  1.1013 -0.0936
22825SOL     OW77252   0.074   1.970   8.946  0.6353 -0.2973 -0.1936
22825SOL    HW177253   0.119   1.886   8.948  1.2479  0.0391  0.7312
22825SOL    HW277254   0.112   2.016   8.871 -0.7190 -1.3656 -1.5888
22826SOL     OW77255   2.126  11.265  11.587  0.0538 -0.0569  0.6993
22826SOL    HW177256   2.182  11.332  11.627  1.3785 -0.4296 -0.4914
22826SOL    HW277257   2.115  11.293  11.497  0.6654 -1.4404  0.1650
22827SOL     OW77258   4.395   9.441   0.149  0.1743 -0.4079  0.1624
22827SOL    HW177259   4.377   9.428   0.056 -2.7234  0.7827  0.4618
22827SOL    HW277260   4.488   9.418   0.158  0.1336 -2.1993 -2.6574
22828SOL     OW77261   4.487   0.891   0.712 -0.1745  0.5158 -0.1267
22828SOL    HW177262   4.574   0.909   0.678  0.2596 -0.9238  0.1499
22828SOL    HW277263   4.476   0.796   0.702 -1.1625  0.4707  1.0786
22829SOL     OW77264   9.851   7.155   7.236 -0.0349  0.6115  0.1482
22829SOL    HW177265   9.780   7.136   7.175 -0.0870  3.0055 -0.6082
22829SOL    HW277266   9.924   7.182   7.180 -0.2623  3.4131  1.0881
22830SOL     OW77267   2.004   2.703   3.121  0.2020  0.6734 -0.6535
22830SOL    HW177268   1.963   2.753   3.051  0.7288  1.4071 -0.4422
22830SOL    HW277269   2.053   2.634   3.076 -2.8861 -1.5638 -0.8796
22831SOL     OW77270   3.399   4.936   2.968  0.2513 -0.4154 -0.2727
22831SOL    HW177271   3.423   4.873   2.900  2.3081  2.2799 -2.2989
22831SOL    HW277272   3.466   4.926   3.035  0.7239 -0.2587 -0.7144
22832SOL     OW77273   9.313   0.626   2.954 -0.0458 -0.1845  0.0315
22832SOL    HW177274   9.281   0.546   2.995  0.2837 -0.5357 -0.3819
22832SOL    HW277275   9.237   0.683   2.948  0.1167  0.3286  2.1663
22833SOL     OW77276   3.091  10.741   3.991  0.1578  0.3782  0.4664
22833SOL    HW177277   3.148  10.724   4.066  1.5484  0.1991 -0.5944
22833SOL    HW277278   3.117  10.677   3.926 -0.6990  0.8481 -0.3603
22834SOL     OW77279   4.176  11.309   2.443 -0.2470 -0.7404  0.4618
22834SOL    HW177280   4.084  11.290   2.460 -0.5344  0.5886  0.5171
22834SOL    HW277281   4.224  11.256   2.507 -1.0598 -0.1239  1.6110
22835SOL     OW77282   0.133   1.708   1.098 -0.1563  0.4604 -0.1840
22835SOL    HW177283   0.193   1.648   1.143 -0.1239  2.2053  2.2553
22835SOL    HW277284   0.059   1.653   1.074  1.6674 -1.4318 -1.9474
22836SOL     OW77285   2.589   4.013   9.270  0.0285 -0.2628 -0.1892
22836SOL    HW177286   2.545   4.080   9.323 -0.9874  0.3556 -1.7535
22836SOL    HW277287   2.550   3.931   9.299 -0.6183  0.0809 -0.0739
22837SOL     OW77288   0.215   9.001  10.200  0.0238 -0.3189 -0.2547
22837SOL    HW177289   0.174   8.915  10.203 -1.6565  0.4605  0.6028
22837SOL    HW277290   0.265   9.001  10.118  1.7848 -2.8016  0.6726
22838SOL     OW77291   3.698   3.584   6.360 -0.0240 -0.1678  0.6925
22838SOL    HW177292   3.669   3.583   6.269 -0.0166  0.9187  0.6731
22838SOL    HW277293   3.783   3.628   6.359  1.8422 -3.4254  0.7230
22839SOL     OW77294   9.241   7.290   4.298  0.6128  0.1667  0.2365
22839SOL    HW177295   9.248   7.385   4.306 -0.2018  0.2444  0.0783
22839SOL    HW277296   9.182   7.264   4.369  2.2102 -0.4443  1.4037
22840SOL     OW77297   2.827   8.733   0.009  0.2945 -0.2255  0.3157
22840SOL    HW177298   2.836   8.712   0.102  1.4116  0.0708  0.2914
22840SOL    HW277299   2.795   8.653  -0.031 -1.2313 -0.0325  1.1061
22841SOL     OW77300   8.922   6.924   0.657  0.3767 -0.6216  0.1483
22841SOL    HW177301   8.868   6.902   0.582  2.3317 -2.8370 -0.7333
22841SOL    HW277302   8.882   7.004   0.693 -1.2655 -0.1070 -2.5427
22842SOL     OW77303  10.430   5.924   5.216 -0.3460 -0.6939 -0.5168
22842SOL    HW177304  10.469   5.893   5.134 -1.0415 -0.3264 -0.9986
22842SOL    HW277305  10.375   5.998   5.189  1.1718  0.9315  0.5655
22843SOL     OW77306   5.597   4.989   1.435  0.2528 -0.6516 -0.5440
22843SOL    HW177307   5.619   4.943   1.354  0.8733 -0.7232 -0.3394
22843SOL    HW277308   5.546   5.064   1.407  2.3908  0.6304 -1.2258
22844SOL     OW77309   0.403   4.736   5.814  0.1920 -0.3743  0.2350
22844SOL    HW177310   0.491   4.698   5.816 -0.4762 -1.9840  2.0395
22844SOL    HW277311   0.356   4.691   5.884 -2.1567  0.2523 -0.8410
22845SOL     OW77312   7.963   2.804   2.386  0.1194 -0.3428 -0.8259
22845SOL    HW177313   8.045   2.779   2.428 -0.9387 -1.2324  0.7986
22845SOL    HW277314   7.944   2.732   2.326  0.3575 -0.2865 -0.9710
22846SOL     OW77315   3.547   8.345  11.957  0.4955  0.3645 -0.9641
22846SOL    HW177316   3.538   8.399  12.035 -0.2716 -1.2423  0.1168
22846SOL    HW277317   3.641   8.324  11.952  0.6562  1.0469 -0.9071
22847SOL     OW77318   6.649   0.141   6.770 -0.0414  0.8153 -0.1026
22847SOL    HW177319   6.576   0.203   6.769 -1.5878 -0.8779  0.9799
22847SOL    HW277320   6.631   0.084   6.845  1.0293 -1.2265 -1.3084
22848SOL     OW77321   3.115   7.390  12.510 -0.0451 -0.1699  0.0333
22848SOL    HW177322   3.047   7.452  12.536  0.3918  0.7997 -1.0365
22848SOL    HW277323   3.067   7.312  12.482 -0.6572  0.0514  0.4527
22849SOL     OW77324   6.987   9.113  11.017 -0.5442 -0.0407  0.8140
22849SOL    HW177325   6.915   9.058  10.986  0.1645 -0.6749  0.2498
22849SOL    HW277326   7.007   9.079  11.104  0.5774 -1.4221  0.0684
22850SOL     OW77327  12.453   0.333   5.438  0.3046  0.2270  0.2851
22850SOL    HW177328  12.383   0.268   5.427 -0.4421  0.9437  0.7102
22850SOL    HW277329  12.524   0.284   5.480 -0.3430 -0.2580  0.8401
22851SOL     OW77330  12.067  10.282   4.282  0.3548 -0.0470 -0.3848
22851SOL    HW177331  12.162  10.290   4.290  0.4858  0.4709 -2.1873
22851SOL    HW277332  12.051  10.270   4.189 -1.4622  1.5481 -0.3356
22852SOL     OW77333   4.931   6.484   8.959 -0.1020 -0.2775  0.5891
22852SOL    HW177334   4.888   6.402   8.982 -2.7098  0.9879  0.5294
22852SOL    HW277335   4.933   6.534   9.041  0.6741 -0.0535  0.4391
22853SOL     OW77336   4.372   5.165   6.357 -0.4409  0.0894  0.2194
22853SOL    HW177337   4.421   5.203   6.285  1.1359  0.3376  1.3707
22853SOL    HW277338   4.369   5.234   6.423 -1.4429 -0.2948  0.5883
22854SOL     OW77339  12.141   1.732  11.211 -0.5120 -0.4208  0.1548
22854SOL    HW177340  12.055   1.710  11.174 -1.4160 -0.2794  2.0676
22854SOL    HW277341  12.179   1.649  11.237 -1.0079 -0.3144  1.2480
22855SOL     OW77342   6.391   6.197   7.619  0.2314 -0.2876 -0.1983
22855SOL    HW177343   6.426   6.173   7.533 -0.7508 -1.1050 -0.3902
22855SOL    HW277344   6.409   6.121   7.674 -0.0760 -0.1898  0.0384
22856SOL     OW77345   7.713  10.364   0.981  0.0968  0.5565  0.3695
22856SOL    HW177346   7.795  10.379   1.026  0.5701 -0.0358 -0.2569
22856SOL    HW277347   7.685  10.450   0.950 -1.6766  1.5026  4.0623
22857SOL     OW77348   9.877   6.562   2.652  0.3773 -0.0029  0.0310
22857SOL    HW177349   9.876   6.494   2.585 -1.0297 -0.5844  0.6156
22857SOL    HW277350   9.878   6.514   2.735  0.6790  0.6965  0.4415
22858SOL     OW77351  12.366   4.567   6.713 -0.1250  0.2478 -0.0211
22858SOL    HW177352  12.445   4.617   6.735  0.1110 -0.3523  0.5522
22858SOL    HW277353  12.379   4.482   6.755 -0.9411  0.0293 -0.1831
22859SOL     OW77354  10.948   0.917   6.306 -0.0674  0.0136 -0.1545
22859SOL    HW177355  11.040   0.896   6.292  0.2709 -1.9541  3.6628
22859SOL    HW277356  10.949   0.993   6.365 -1.1053  2.1351 -2.6496
22860SOL     OW77357   5.984  12.175   7.973  0.4268  0.3078 -0.1773
22860SOL    HW177358   6.037  12.203   7.898  1.4047  0.3702  0.5203
22860SOL    HW277359   5.997  12.080   7.977 -0.0462  0.2299 -0.3943
22861SOL     OW77360   1.942   7.008  12.515  0.0897 -0.1306 -1.1512
22861SOL    HW177361   1.910   7.098  12.511 -2.1102 -0.6077  2.0696
22861SOL    HW277362   1.999   7.006  12.591 -1.5421 -1.8016  0.1300
22862SOL     OW77363   1.156   2.067   9.915 -0.9340 -0.3663 -0.3168
22862SOL    HW177364   1.147   2.086  10.009  1.1092  1.2153 -0.3807
22862SOL    HW277365   1.208   2.140   9.881  0.2645 -2.0472 -2.2549
22863SOL     OW77366   6.385   3.067   0.798 -0.2155  0.1053 -0.2620
22863SOL    HW177367   6.430   3.150   0.810  1.0107 -0.4892 -0.5240
22863SOL    HW277368   6.452   3.009   0.762 -0.8332 -1.1964  0.5887
22864SOL     OW77369   8.749  12.000   9.059  0.2590  0.7960  0.0218
22864SOL    HW177370   8.823  12.006   9.120  0.1936 -1.8643  0.4979
22864SOL    HW277371   8.784  11.953   8.983 -1.1323 -1.7050  0.8028
22865SOL     OW77372   0.628   0.340  11.703 -0.4484 -0.0476  0.2576
22865SOL    HW177373   0.625   0.408  11.771 -1.1173  0.0057  0.1785
22865SOL    HW277374   0.657   0.261  11.749  1.3404  0.4991  0.1624
22866SOL     OW77375   8.138   8.483   2.796  0.5512 -0.1413 -0.2750
22866SOL    HW177376   8.174   8.537   2.726  0.6391 -0.9482 -0.8585
22866SOL    HW277377   8.140   8.394   2.762 -1.6549 -0.2862 -0.1903
22867SOL     OW77378   1.647   1.940  10.113 -0.0108 -0.8545  0.0456
22867SOL    HW177379   1.597   1.873  10.068  1.1770 -1.4719 -0.4026
22867SOL    HW277380   1.585   2.011  10.128 -0.9985 -1.5879 -0.4899
22868SOL     OW77381   7.500   4.115   5.359  0.0199 -0.2308 -0.2495
22868SOL    HW177382   7.593   4.132   5.373 -0.1291  1.1654 -0.7705
22868SOL    HW277383   7.457   4.152   5.436 -0.1704  0.0842 -0.5015
22869SOL     OW77384   1.494   2.058   1.136  0.3420 -0.1778 -0.5303
22869SOL    HW177385   1.499   2.079   1.043  0.4385 -0.9147 -0.6965
22869SOL    HW277386   1.584   2.068   1.168  0.4590 -0.6696 -0.6898
22870SOL     OW77387   2.179   5.175  10.605 -0.6083  0.2997  0.5954
22870SOL    HW177388   2.129   5.099  10.574  1.2083 -1.3861  1.6175
22870SOL    HW277389   2.113   5.233  10.641 -2.0823 -0.6921 -0.3611
22871SOL     OW77390   3.792   1.683   6.416  0.1885 -0.1399  0.1411
22871SOL    HW177391   3.749   1.620   6.474 -0.2415 -0.2725 -0.3218
22871SOL    HW277392   3.732   1.694   6.343 -0.6469  2.2318  1.0707
22872SOL     OW77393   6.700   3.712   9.024  0.2514  0.0653  0.3177
22872SOL    HW177394   6.617   3.663   9.030 -0.0928  0.6297  0.2605
22872SOL    HW277395   6.724   3.729   9.115  0.7665 -0.8475  0.3642
22873SOL     OW77396  11.520   3.089   7.319 -0.4579  0.0273  0.1091
22873SOL    HW177397  11.550   3.014   7.269 -1.5840  0.6289 -1.5747
22873SOL    HW277398  11.441   3.059   7.363 -0.2000 -0.1274  0.4700
22874SOL     OW77399   6.175   6.966   7.032  0.5351 -0.4835 -0.2911
22874SOL    HW177400   6.168   6.885   7.083  1.1181  0.6175  1.6490
22874SOL    HW277401   6.264   6.997   7.049 -0.2915  1.5376  0.5858
22875SOL     OW77402   3.150   0.729  10.427 -0.1830  0.0932  0.5356
22875SOL    HW177403   3.170   0.684  10.345 -1.1805  0.3616  0.1236
22875SOL    HW277404   3.165   0.663  10.495 -0.0010 -0.3436  0.0767
22876SOL     OW77405   4.785   7.978   6.663 -0.1362 -0.0067  0.2758
22876SOL    HW177406   4.713   8.024   6.706 -1.1592 -1.0828 -0.2341
22876SOL    HW277407   4.748   7.893   6.639  1.2410 -0.4918 -0.2168
22877SOL     OW77408   8.300  10.952   9.602  0.1183 -0.1906 -0.8108
22877SOL    HW177409   8.221  10.934   9.552 -0.0645 -1.1398 -0.2142
22877SOL    HW277410   8.372  10.935   9.541 -0.1299  0.7999 -1.3919
22878SOL     OW77411   6.876   9.664   6.011 -0.2687  0.2703  0.3239
22878SOL    HW177412   6.798   9.608   6.006  1.5807 -2.5759  0.7108
22878SOL    HW277413   6.916   9.658   5.924 -0.9214  2.5429 -0.1994
22879SOL     OW77414   3.813   5.083  12.252 -0.3444  0.0755  0.1414
22879SOL    HW177415   3.853   5.002  12.221 -3.1160 -1.2045 -0.4349
22879SOL    HW277416   3.766   5.117  12.175 -1.0711  0.9926  0.9729
22880SOL     OW77417   2.955   0.899  10.412  0.4763 -0.6064 -0.0219
22880SOL    HW177418   3.021   0.830  10.421  0.2265 -0.6839  1.3557
22880SOL    HW277419   2.899   0.868  10.341  0.4813 -1.7410  0.4516
22881SOL     OW77420   7.479   3.462   1.863  0.4901 -0.2664 -0.1446
22881SOL    HW177421   7.489   3.492   1.773 -0.4191  1.0266  0.1558
22881SOL    HW277422   7.429   3.381   1.856 -0.4332  0.3283 -0.7716
22882SOL     OW77423  10.016   9.824   0.439  0.8053  0.2675  0.0658
22882SOL    HW177424  10.028   9.808   0.533  0.7780  0.1941  0.0565
22882SOL    HW277425  10.104   9.822   0.403  0.9537  1.5549  0.2899
22883SOL     OW77426   4.000   3.631   1.385  0.1448 -0.1758 -0.1369
22883SOL    HW177427   4.087   3.637   1.424 -0.6462 -0.0412  1.7095
22883SOL    HW277428   3.959   3.715   1.404 -0.4756 -0.3264 -0.7786
22884SOL     OW77429   7.210   2.526  10.327  0.6120  0.0696  0.4101
22884SOL    HW177430   7.209   2.514  10.232 -2.7149 -0.4010  0.4005
22884SOL    HW277431   7.303   2.519  10.351  1.3940 -1.3475 -2.5783
22885SOL     OW77432   2.070   4.113   7.688 -0.2154 -0.4131 -0.0440
22885SOL    HW177433   1.984   4.129   7.648  0.0370 -0.4147 -0.5922
22885SOL    HW277434   2.101   4.200   7.714 -0.9277 -0.5295  1.3211
22886SOL     OW77435   2.152   7.902  10.045  0.1531 -0.6892  0.3050
22886SOL    HW177436   2.062   7.930  10.029  0.0970 -1.5516 -1.0667
22886SOL    HW277437   2.161   7.821   9.995  1.9068 -0.2473 -0.1739
22887SOL     OW77438  10.966   0.485   0.714  0.2229  0.0963 -0.2364
22887SOL    HW177439  11.001   0.470   0.801 -1.2211  1.7114  0.6877
22887SOL    HW277440  10.930   0.401   0.687 -0.0660 -0.2246  1.0944
22888SOL     OW77441  11.569   7.471   6.169  0.1741 -0.4338 -0.1229
22888SOL    HW177442  11.578   7.563   6.146 -1.1375  0.1357  1.3888
22888SOL    HW277443  11.658   7.438   6.174  0.6285 -0.0300 -3.3911
22889SOL     OW77444   4.016  11.030   7.572 -0.3938  0.7944 -0.0937
22889SOL    HW177445   4.027  10.971   7.497 -0.5640  0.2751  0.2838
22889SOL    HW277446   4.080  11.099   7.557  1.3200 -0.5772  0.5152
22890SOL     OW77447   3.094   2.228   5.765  0.5668  0.4226 -0.2653
22890SOL    HW177448   3.063   2.259   5.680 -1.2068 -0.2084  0.1136
22890SOL    HW277449   3.144   2.149   5.745  0.3285  0.3853 -0.7312
22891SOL     OW77450  10.703   5.801   3.340  0.2758  0.3911 -0.2155
22891SOL    HW177451  10.784   5.751   3.324 -1.5434 -2.5775 -0.9949
22891SOL    HW277452  10.661   5.756   3.413 -1.0799  1.3203 -0.3859
22892SOL     OW77453   2.006   4.042   2.884  0.4757 -0.1468  0.1652
22892SOL    HW177454   1.996   4.012   2.975  1.2417  2.0591  1.0593
22892SOL    HW277455   1.976   3.968   2.831  0.4638 -1.6992  2.1897
22893SOL     OW77456  10.282   1.146   5.318 -0.1158  0.3811 -0.5100
22893SOL    HW177457  10.350   1.079   5.307  0.7783  1.0065  0.9252
22893SOL    HW277458  10.266   1.179   5.229  1.0489 -0.1784 -0.9437
22894SOL     OW77459   4.591  11.414   4.631  0.5287  0.1635 -0.3297
22894SOL    HW177460   4.548  11.358   4.566  0.4788  0.5366 -0.6202
22894SOL    HW277461   4.680  11.380   4.636  0.1612 -0.7583  0.4377
22895SOL     OW77462   8.714   9.813   0.980  0.2594  0.6973 -0.1969
22895SOL    HW177463   8.626   9.795   0.946 -0.0370  0.7380  0.5233
22895SOL    HW277464   8.764   9.842   0.904  0.2941 -1.5087 -1.0898
22896SOL     OW77465   5.516  12.309   6.601 -0.2676 -0.3330 -0.2216
22896SOL    HW177466   5.578  12.308   6.674 -0.9598  1.4253  0.4489
22896SOL    HW277467   5.473  12.223   6.605 -0.3076 -0.2758  1.4892
22897SOL     OW77468   1.973   8.902   7.696  0.3022  0.0311  0.3132
22897SOL    HW177469   1.977   8.813   7.660 -1.4408 -0.5086  1.3635
22897SOL    HW277470   1.890   8.937   7.663 -0.1711  0.3814  1.8309
22898SOL     OW77471   6.173   8.593   2.124 -0.3405  0.0145  0.2057
22898SOL    HW177472   6.171   8.539   2.046  0.7723  0.0592  0.1268
22898SOL    HW277473   6.118   8.668   2.103  0.2193  0.1935 -0.6699
22899SOL     OW77474   3.925   7.884   2.732 -0.3414  0.6706  0.5888
22899SOL    HW177475   3.999   7.873   2.672  0.3253  0.1003  1.4945
22899SOL    HW277476   3.899   7.976   2.722  0.3382  0.8143  0.1010
22900SOL     OW77477   8.545  10.358   2.670 -0.0119  0.1938  0.4934
22900SOL    HW177478   8.601  10.281   2.668  1.2720  1.1007 -1.2459
22900SOL    HW277479   8.572  10.410   2.594 -1.2533  2.0654  1.2444
22901SOL     OW77480   6.098  10.398   8.001  0.0199  0.2620 -0.8775
22901SOL    HW177481   6.155  10.335   8.046 -2.1082 -2.5638 -1.8071
22901SOL    HW277482   6.070  10.458   8.069  1.1446 -0.5636  0.3654
22902SOL     OW77483   5.654   9.389   2.527 -0.3448 -0.4134 -0.4056
22902SOL    HW177484   5.560   9.375   2.536 -0.4339  0.5424  0.3723
22902SOL    HW277485   5.663   9.483   2.509  0.4757 -0.3791  0.1026
22903SOL     OW77486   2.606   2.016   7.022 -0.2344  0.5893 -0.0096
22903SOL    HW177487   2.551   2.093   7.031 -1.2684 -0.0693 -0.5610
22903SOL    HW277488   2.629   2.013   6.929 -0.1482  0.2672  0.0198
22904SOL     OW77489   6.217   5.834   6.386  0.2941  0.1309 -0.4860
22904SOL    HW177490   6.277   5.776   6.338 -0.8237 -0.9086 -0.6660
22904SOL    HW277491   6.145   5.849   6.325 -0.1543  0.4787  0.1266
22905SOL     OW77492   4.264   5.846  12.384  0.5391  0.0598 -0.0834
22905SOL    HW177493   4.234   5.902  12.312  0.9475 -0.1533 -0.4193
22905SOL    HW277494   4.202   5.774  12.385 -1.2749  1.5338  1.6943
22906SOL     OW77495   6.614   8.073   3.191 -0.3333 -0.1972 -0.3107
22906SOL    HW177496   6.660   8.076   3.275 -0.6093 -0.2558 -0.1562
22906SOL    HW277497   6.529   8.111   3.209  0.0053  0.8356 -0.8273
22907SOL     OW77498   2.610   6.642  11.209  0.1953  0.4620  0.0453
22907SOL    HW177499   2.704   6.636  11.192  0.8449  1.3345  2.7713
22907SOL    HW277500   2.573   6.565  11.166  2.1410  0.1005 -1.0944
22908SOL     OW77501   4.043   5.071   9.399  0.2112 -0.0761  0.3993
22908SOL    HW177502   3.957   5.030   9.397  0.0260  0.3325 -1.2120
22908SOL    HW277503   4.040   5.130   9.474 -1.2591  0.6315 -0.1823
22909SOL     OW77504   6.825   4.801   2.244 -0.5394 -0.1260  0.4921
22909SOL    HW177505   6.807   4.867   2.310 -0.5342 -0.6769  1.0514
22909SOL    HW277506   6.794   4.719   2.282 -0.9548 -0.3839 -0.3742
22910SOL     OW77507  10.984  10.206   6.004 -0.2849  0.0035 -0.2777
22910SOL    HW177508  11.043  10.153   5.950 -0.0790  0.1055 -0.1529
22910SOL    HW277509  10.908  10.149   6.020 -0.2074 -0.1381 -0.4112
22911SOL     OW77510  12.466   1.892   5.360 -0.8463  0.0608 -0.3295
22911SOL    HW177511  12.382   1.845   5.368 -0.6652  0.0686  2.3283
22911SOL    HW277512  12.521   1.855   5.429  0.1557  2.4587  0.2559
22912SOL     OW77513   7.742   2.367   1.383  0.1648 -0.3800 -0.0753
22912SOL    HW177514   7.833   2.363   1.410 -0.2011 -2.7133  1.0308
22912SOL    HW277515   7.699   2.421   1.449  0.4708 -0.5560  0.2690
22913SOL     OW77516  10.972  11.117   9.652 -0.0577 -0.3460  0.0705
22913SOL    HW177517  10.993  11.038   9.702 -1.1374 -0.0565  1.0136
22913SOL    HW277518  11.057  11.153   9.627  0.4671 -1.2906  0.4404
22914SOL     OW77519   2.491   6.678   3.790 -0.1788  0.4677 -0.2857
22914SOL    HW177520   2.536   6.620   3.729  0.2085  0.5043 -0.0380
22914SOL    HW277521   2.561   6.731   3.829 -0.2711 -0.3492  1.0404
22915SOL     OW77522   4.092   7.894   8.683 -0.3903  0.1547  0.3825
22915SOL    HW177523   4.172   7.862   8.725 -1.2077 -0.9770  1.1186
22915SOL    HW277524   4.068   7.825   8.621 -0.7252  0.5652  0.0415
22916SOL     OW77525   8.073  11.914   9.943  0.3802  0.0894  0.7511
22916SOL    HW177526   8.053  11.998   9.985  0.9548  1.9905 -2.4691
22916SOL    HW277527   7.998  11.898   9.886  0.7342 -1.1025  0.5964
22917SOL     OW77528   1.227   7.527   1.517  0.1863 -0.7051  0.4822
22917SOL    HW177529   1.213   7.603   1.460 -2.3246 -0.1279  1.7459
22917SOL    HW277530   1.150   7.472   1.504  0.7835 -1.8032  1.4325
22918SOL     OW77531   1.634   0.724  11.375  0.9735  0.4796  0.5321
22918SOL    HW177532   1.690   0.650  11.399  2.0215  0.7642 -0.8593
22918SOL    HW277533   1.696   0.792  11.347 -0.0460  1.0001 -0.5388
22919SOL     OW77534   6.893   5.110   3.586  0.3017  0.3230  0.0450
22919SOL    HW177535   6.907   5.022   3.619  1.3192  0.2635 -0.5371
22919SOL    HW277536   6.943   5.166   3.646 -0.0177  0.4741  0.1754
22920SOL     OW77537   6.168   2.091   4.222  0.1135 -0.4986  0.5465
22920SOL    HW177538   6.228   2.123   4.154  0.0735 -1.1614  0.1886
22920SOL    HW277539   6.156   1.998   4.201  1.9290 -1.3297  2.7993
22921SOL     OW77540  12.485   8.638   3.099  0.0864 -0.0859 -0.5231
22921SOL    HW177541  12.413   8.646   3.161  0.3341  1.3480 -0.3918
22921SOL    HW277542  12.499   8.727   3.067  0.9316 -0.5650 -1.5374
22922SOL     OW77543   1.025   6.096   7.052 -0.6428 -0.0806  0.0652
22922SOL    HW177544   1.010   6.081   6.959 -0.0535 -1.7523  0.1965
22922SOL    HW277545   0.941   6.076   7.093 -0.8663  0.5325 -0.0817
22923SOL     OW77546   6.146   1.748   2.230 -0.5413  0.0631 -0.3250
22923SOL    HW177547   6.136   1.682   2.161 -1.2793  0.1686 -0.3294
22923SOL    HW277548   6.192   1.821   2.187 -0.5626 -0.0716 -0.5767
22924SOL     OW77549   1.493   5.714   2.193  0.5465  0.4603  0.3607
22924SOL    HW177550   1.525   5.793   2.149 -0.1421  0.8329  0.5095
22924SOL    HW277551   1.494   5.738   2.286  0.0576  0.3962  0.3813
22925SOL     OW77552   4.372   8.924  11.022 -0.5061  0.5065  0.7137
22925SOL    HW177553   4.356   8.866  10.947  0.0144  1.8930 -0.5126
22925SOL    HW277554   4.410   8.866  11.088 -0.1280 -0.5954 -0.4149
22926SOL     OW77555  11.669   9.359   2.174  0.7514 -0.1734  0.0786
22926SOL    HW177556  11.700   9.305   2.247  1.4849 -0.2956 -0.3084
22926SOL    HW277557  11.746   9.408   2.146 -0.4392  3.1579  2.1344
22927SOL     OW77558   1.582  10.209   2.949  0.3569 -0.3185 -0.0975
22927SOL    HW177559   1.648  10.172   2.890 -0.2846 -0.8447 -0.4979
22927SOL    HW277560   1.632  10.268   3.006  0.8251  1.2110 -1.9757
22928SOL     OW77561   5.312   0.440   6.870 -0.0527 -0.2428  0.2315
22928SOL    HW177562   5.311   0.360   6.817 -0.9765 -0.0910 -0.0031
22928SOL    HW277563   5.277   0.507   6.811 -1.4292 -0.1382  1.1212
22929SOL     OW77564  10.972   3.535   8.879  0.1699  0.3953 -0.3466
22929SOL    HW177565  10.977   3.450   8.835  1.9065  0.4308 -0.2593
22929SOL    HW277566  11.014   3.596   8.819 -1.2869  1.2702 -0.5203
22930SOL     OW77567  12.592   9.737   9.397  0.1269 -0.0604 -0.4238
22930SOL    HW177568  12.612   9.718   9.488 -0.8348 -0.6957 -0.3305
22930SOL    HW277569  12.559   9.827   9.398  0.7912  0.1893 -0.2622
22931SOL     OW77570   0.209   9.511  12.048  0.3582  0.4755 -0.0879
22931SOL    HW177571   0.295   9.509  12.089  0.6236 -1.4998 -0.6489
22931SOL    HW277572   0.211   9.587  11.990  1.8628  0.2458 -0.3666
22932SOL     OW77573   6.855   5.311   4.700 -0.4381  0.1012  0.0484
22932SOL    HW177574   6.947   5.286   4.703 -0.9129 -1.9209 -0.8456
22932SOL    HW277575   6.814   5.260   4.769 -1.5835 -2.5095 -2.3780
22933SOL     OW77576   5.574   2.493   8.616 -0.3552 -0.4746  0.4748
22933SOL    HW177577   5.537   2.569   8.662  0.5441  0.9342 -1.0343
22933SOL    HW277578   5.499   2.436   8.601 -1.3951  0.9320  0.0923
22934SOL     OW77579   6.822  10.744   5.041  0.5919 -0.2916 -0.0733
22934SOL    HW177580   6.876  10.811   4.999  1.9345 -0.8047  0.7798
22934SOL    HW277581   6.853  10.661   5.003  0.6770 -0.6243  0.7161
22935SOL     OW77582   1.936  10.298   4.831 -0.2801 -0.3351  0.0618
22935SOL    HW177583   2.022  10.306   4.791 -0.2090  0.0902  0.2884
22935SOL    HW277584   1.921  10.383   4.873 -1.3979  0.0872 -1.1298
22936SOL     OW77585   7.086   1.749   5.075  0.7410 -0.1137  0.4204
22936SOL    HW177586   7.148   1.814   5.109  0.1929  1.2568 -1.1035
22936SOL    HW277587   7.094   1.675   5.136  4.2231 -0.2280  0.0592
22937SOL     OW77588  12.456   5.289   1.354  0.1874  0.0728  0.2469
22937SOL    HW177589  12.407   5.232   1.295 -2.3014  2.3423 -0.0527
22937SOL    HW277590  12.425   5.265   1.442 -1.9113  1.7308  0.0401
22938SOL     OW77591  10.294   1.142   6.413  0.2039  0.0911 -0.3924
22938SOL    HW177592  10.380   1.103   6.430  0.0461 -1.6906 -3.1038
22938SOL    HW277593  10.256   1.087   6.345 -2.3314  1.9715 -0.6280
22939SOL     OW77594   2.312   6.076   6.440  0.3245 -0.9450  0.3514
22939SOL    HW177595   2.346   6.140   6.503  0.3679  0.3176 -0.9036
22939SOL    HW277596   2.369   6.000   6.449  0.8203 -0.4789  1.2681
22940SOL     OW77597  10.129   7.117   7.367 -0.2802 -0.2232  0.3605
22940SOL    HW177598  10.082   7.198   7.347  0.8100  0.6884  1.2781
22940SOL    HW277599  10.215   7.130   7.326 -0.0472 -0.8662  0.6457
22941SOL     OW77600   9.958   1.716   1.110 -0.1924 -0.1711 -0.9373
22941SOL    HW177601  10.028   1.769   1.072 -0.4919 -0.6594 -2.2269
22941SOL    HW277602   9.878   1.764   1.090 -0.2277  1.1698  1.8289
22942SOL     OW77603  10.475   8.362   0.073  0.4162  0.2041  0.3209
22942SOL    HW177604  10.521   8.378  -0.010 -0.8743 -0.3536 -0.5369
22942SOL    HW277605  10.385   8.341   0.046 -0.1530  0.5230  1.9006
22943SOL     OW77606  11.101   0.069   6.496 -0.6754  0.0291  0.0854
22943SOL    HW177607  11.035   0.047   6.430 -1.1642 -0.3117  0.6727
22943SOL    HW277608  11.050   0.094   6.573 -0.1345  1.8622 -0.0949
22944SOL     OW77609   3.175   6.490   2.326  0.0723  0.4496  0.2374
22944SOL    HW177610   3.228   6.531   2.395 -2.0253  2.3409  0.8612
22944SOL    HW277611   3.150   6.405   2.362  1.9895 -0.1820  0.2168
22945SOL     OW77612  11.156   4.672   5.579  0.0344 -0.0140 -0.4532
22945SOL    HW177613  11.152   4.595   5.521  0.7813  0.1675 -0.7482
22945SOL    HW277614  11.064   4.688   5.602 -0.1203 -1.1390 -0.1935
22946SOL     OW77615   2.136   8.412   1.815 -0.0708  0.9510  0.0966
22946SOL    HW177616   2.149   8.507   1.817  0.5356  0.9530 -1.7855
22946SOL    HW277617   2.225   8.376   1.816 -0.3019  0.3422  1.3467
22947SOL     OW77618  10.846   9.805  11.157  0.3742 -0.8279  0.3617
22947SOL    HW177619  10.887   9.829  11.241  0.4527  0.1803  0.0550
22947SOL    HW277620  10.770   9.752  11.182 -0.3883  0.5821  1.1665
22948SOL     OW77621   5.474   7.616  12.048 -0.0720 -0.1874  0.2287
22948SOL    HW177622   5.442   7.625  11.958  0.4099 -1.0722 -0.0423
22948SOL    HW277623   5.410   7.663  12.101  0.6015  1.9238 -0.7352
22949SOL     OW77624   3.092  10.198   7.133 -0.1778  0.1746  0.3769
22949SOL    HW177625   3.162  10.208   7.069  1.2857 -1.7457  1.5627
22949SOL    HW277626   3.134  10.212   7.218 -0.8265 -2.3164  1.2186
22950SOL     OW77627   5.854   1.471   1.639  0.0154  0.1833 -0.3719
22950SOL    HW177628   5.917   1.543   1.635 -0.5152  0.6446 -0.4803
22950SOL    HW277629   5.797   1.493   1.712 -0.5625  0.2094 -0.8300
22951SOL     OW77630   3.947   0.658  10.588  0.7088  0.1013  0.8617
22951SOL    HW177631   3.913   0.735  10.634  0.6394  0.6402 -0.0488
22951SOL    HW277632   3.926   0.584  10.645 -1.4728  0.4780  0.6280
22952SOL     OW77633   4.973   9.322   5.095 -0.3070  0.2968 -0.1714
22952SOL    HW177634   5.020   9.268   5.158 -1.2844 -0.1258  0.2226
22952SOL    HW277635   4.966   9.268   5.017  0.0099  0.4285 -0.2934
22953SOL     OW77636   2.195   1.308   6.081  0.3175  0.5296  0.3104
22953SOL    HW177637   2.116   1.276   6.124 -0.2069  0.8626 -0.3905
22953SOL    HW277638   2.183   1.287   5.988  0.6770  1.3206  0.0731
22954SOL     OW77639  12.569  12.391  12.233  0.1061  0.0724  0.0468
22954SOL    HW177640  12.540  12.450  12.163  0.3406  0.0281 -0.0883
22954SOL    HW277641  12.522  12.421  12.311  0.4228  0.6018  0.0396
22955SOL     OW77642   7.171   2.701  11.488  0.1284  0.0688 -0.2557
22955SOL    HW177643   7.145   2.705  11.396 -0.6023  0.8165 -0.0353
22955SOL    HW277644   7.219   2.618  11.496 -2.6402 -1.7059 -0.6122
22956SOL     OW77645   3.430   0.068   3.773  0.5924 -0.2545 -0.2389
22956SOL    HW177646   3.387   0.040   3.692  1.5126 -1.7069 -0.2592
22956SOL    HW277647   3.365   0.125   3.816  0.4908  1.4058 -2.4453
22957SOL     OW77648   7.313  10.263  12.069  0.1463  0.3034  0.2651
22957SOL    HW177649   7.286  10.300  12.153  0.1339 -1.9269  1.3037
22957SOL    HW277650   7.389  10.316  12.043  0.3963  0.7865  1.8738
22958SOL     OW77651   1.990   3.482  11.949 -0.0934  0.1452 -0.5146
22958SOL    HW177652   2.012   3.546  12.017  0.9249 -0.5325 -0.1711
22958SOL    HW277653   1.895   3.473  11.955 -0.1671  1.0769 -0.0770
22959SOL     OW77654  11.604   8.204   6.451  0.1905 -0.3348  0.7018
22959SOL    HW177655  11.629   8.113   6.465  0.7294 -0.4014 -0.5458
22959SOL    HW277656  11.680   8.254   6.480 -0.8847 -0.1097  3.4052
22960SOL     OW77657   4.428   8.823   4.501  0.3563 -0.5303  0.5230
22960SOL    HW177658   4.432   8.861   4.588  1.3533 -2.0671  1.2005
22960SOL    HW277659   4.356   8.760   4.505 -0.2500  0.1064 -0.0924
22961SOL     OW77660   0.817   3.640   4.422  0.2343  0.0446  0.2652
22961SOL    HW177661   0.762   3.563   4.433  2.1511 -1.3501  0.7149
22961SOL    HW277662   0.813   3.685   4.506 -0.1549 -0.0764  0.3128
22962SOL     OW77663   7.445   2.343   0.991 -0.7018 -0.4006 -0.1426
22962SOL    HW177664   7.473   2.361   1.081 -1.8419 -1.4676  0.4622
22962SOL    HW277665   7.491   2.262   0.968 -0.0494  0.1123 -0.7285
22963SOL     OW77666   2.491   4.510   0.354 -0.5352  0.1749 -0.1260
22963SOL    HW177667   2.547   4.588   0.352 -0.8259  0.4540  1.3632
22963SOL    HW277668   2.537   4.447   0.300 -0.0401  1.2173 -0.9604
22964SOL     OW77669  11.965   8.978   1.223  0.2445 -0.5573  0.5193
22964SOL    HW177670  12.035   8.975   1.288 -1.7547  1.2578  2.9674
22964SOL    HW277671  11.885   8.967   1.274 -1.4369  0.7530 -1.6667
22965SOL     OW77672   8.092   9.546   0.895 -0.4642  0.3652  0.0474
22965SOL    HW177673   8.012   9.494   0.897 -0.3666  0.2347  1.0392
22965SOL    HW277674   8.077   9.612   0.828 -1.8886  1.1231  1.0795
22966SOL     OW77675   0.788   8.436   1.898  0.3047 -0.1787 -0.1625
22966SOL    HW177676   0.876   8.398   1.897  0.9046  1.1119  0.8444
22966SOL    HW277677   0.737   8.376   1.951  0.7223 -0.6191 -0.2476
22967SOL     OW77678   5.994   1.979   3.936 -0.0398  0.0289 -0.2203
22967SOL    HW177679   5.984   2.072   3.914  1.2243 -0.0601 -1.2895
22967SOL    HW277680   6.081   1.956   3.903 -0.2982 -1.5164  0.1147
22968SOL     OW77681   7.305  10.544  11.603 -0.7837 -0.3013 -0.2168
22968SOL    HW177682   7.391  10.503  11.615 -0.0996  0.9794 -0.4632
22968SOL    HW277683   7.245  10.471  11.591  0.2756 -1.2356 -0.0572
22969SOL     OW77684   9.989   4.322   0.193  0.6300  0.0277 -0.4359
22969SOL    HW177685   9.980   4.366   0.108 -1.2080  0.8759  0.1528
22969SOL    HW277686   9.973   4.230   0.173  1.6721 -0.0052 -1.2243
22970SOL     OW77687   9.961   8.917   3.290 -0.0390 -0.5083  0.0183
22970SOL    HW177688   9.866   8.912   3.286 -0.0375 -0.9723  0.4516
22970SOL    HW277689   9.985   8.981   3.223 -0.6915  0.0355  0.3033
22971SOL     OW77690   1.223   5.983   3.932 -0.4227 -0.2097 -0.3465
22971SOL    HW177691   1.220   5.981   4.028 -0.5032  2.1258 -0.2568
22971SOL    HW277692   1.140   6.024   3.906 -0.1365 -0.2714 -1.3915
22972SOL     OW77693  12.187   4.678   3.421  0.0201  0.3223 -0.1488
22972SOL    HW177694  12.127   4.665   3.494 -0.0879 -0.6952 -0.4002
22972SOL    HW277695  12.136   4.730   3.358 -0.5712 -0.4151 -0.3023
22973SOL     OW77696   6.077   4.015   7.291  0.0404 -0.3761 -0.1702
22973SOL    HW177697   6.025   3.946   7.334  1.6136 -0.7753  1.1969
22973SOL    HW277698   6.104   4.073   7.362 -0.7143  1.3372 -1.2173
22974SOL     OW77699   1.582   3.763   2.929  0.2868 -0.0445  0.2247
22974SOL    HW177700   1.673   3.752   2.956  0.0278 -0.5524  0.9296
22974SOL    HW277701   1.541   3.678   2.946 -0.0736 -0.1653 -1.1026
22975SOL     OW77702   6.235   4.545   5.715 -0.1240 -0.2927 -0.3796
22975SOL    HW177703   6.299   4.532   5.785  2.1731  0.2915 -2.2353
22975SOL    HW277704   6.248   4.470   5.657 -2.3137 -1.0159 -0.0091
22976SOL     OW77705   1.916   8.662  11.214 -0.3651 -0.1139  0.2095
22976SOL    HW177706   1.896   8.589  11.156  0.9234 -0.3626  0.0569
22976SOL    HW277707   1.858   8.733  11.185 -2.6478 -1.4403  1.2298
22977SOL     OW77708   1.647   5.122   8.047  0.4050  0.1551  0.3242
22977SOL    HW177709   1.578   5.098   8.109 -1.0459  0.2469 -1.1831
22977SOL    HW277710   1.621   5.082   7.965  2.4835 -0.2919 -0.1807
22978SOL     OW77711   2.909   0.651   1.665  0.4888  0.1427  0.0470
22978SOL    HW177712   2.829   0.600   1.680  1.8561 -2.9067 -1.8588
22978SOL    HW277713   2.908   0.718   1.732 -2.8009 -0.8217  1.1705
22979SOL     OW77714   6.528   1.312  11.419  0.2515 -0.0217 -0.0346
22979SOL    HW177715   6.576   1.350  11.492  1.2376 -0.1405 -0.6119
22979SOL    HW277716   6.542   1.372  11.346 -0.1407 -0.2723 -0.3240
22980SOL     OW77717   1.221   8.397   0.243 -0.0575 -0.1557 -0.0828
22980SOL    HW177718   1.301   8.421   0.196 -0.2236  1.3275  0.3616
22980SOL    HW277719   1.191   8.317   0.200  0.7709  0.1728 -1.3037
22981SOL     OW77720   2.870  11.075   1.720  0.0223 -0.4844 -0.7790
22981SOL    HW177721   2.818  11.096   1.797  0.5440 -0.8938 -0.3073
22981SOL    HW277722   2.814  11.098   1.646  0.0582  1.2954 -0.2936
22982SOL     OW77723   7.669   6.645   8.469 -0.1200  0.0537  0.8849
22982SOL    HW177724   7.691   6.694   8.390  1.0272 -2.3139 -0.3868
22982SOL    HW277725   7.754   6.618   8.506 -0.6808 -0.5079  1.8269
22983SOL     OW77726  12.500  11.865   4.595 -0.0972 -0.1038 -0.1466
22983SOL    HW177727  12.571  11.829   4.649 -0.1612  1.0178  0.7170
22983SOL    HW277728  12.422  11.816   4.622  0.4143 -1.7511 -1.5167
22984SOL     OW77729   5.597   1.866   7.527 -0.2279  0.5114 -0.2223
22984SOL    HW177730   5.546   1.785   7.520 -0.5798  0.7748 -0.8470
22984SOL    HW277731   5.644   1.859   7.610 -1.9609  0.6627  0.8047
22985SOL     OW77732   8.428   1.111  10.118 -0.3851 -0.1986 -0.1902
22985SOL    HW177733   8.491   1.114  10.045 -0.6318 -0.0840 -0.4000
22985SOL    HW277734   8.479   1.078  10.192 -0.5573 -2.0395 -0.8479
22986SOL     OW77735   9.796  10.013   3.336 -0.6241 -0.1438  0.6162
22986SOL    HW177736   9.810  10.001   3.242  0.0275 -1.1925  0.8434
22986SOL    HW277737   9.830  10.101   3.354 -1.6198  0.4516 -0.2869
22987SOL     OW77738   9.894  11.128   1.001  0.0544 -0.4439 -0.1266
22987SOL    HW177739   9.866  11.192   0.935  0.2003  1.0839  1.2270
22987SOL    HW277740   9.818  11.116   1.057  0.6504  0.1696  0.8497
22988SOL     OW77741  11.956   8.213   9.428 -0.0432 -0.0300  0.3129
22988SOL    HW177742  11.970   8.242   9.518  0.2391  1.9212 -0.2934
22988SOL    HW277743  11.976   8.291   9.375 -2.2495 -0.4643 -1.3004
22989SOL     OW77744   4.887   9.854   8.215 -0.0482  0.2179  1.0064
22989SOL    HW177745   4.841   9.784   8.170 -0.5917 -1.0526  3.3681
22989SOL    HW277746   4.867   9.933   8.164 -1.5100 -0.9308 -0.2942
22990SOL     OW77747   2.736   7.451   3.403  0.1953 -0.1093  0.0675
22990SOL    HW177748   2.764   7.485   3.318 -0.4965 -0.6485 -0.3875
22990SOL    HW277749   2.667   7.388   3.382  0.0474 -0.2818  1.0285
22991SOL     OW77750   4.535  11.801   8.675 -0.1573 -0.6011 -0.1057
22991SOL    HW177751   4.582  11.823   8.594  2.5269 -0.6986  1.3465
22991SOL    HW277752   4.568  11.863   8.740 -0.8843 -1.7121  1.3789
22992SOL     OW77753   5.357   0.556  12.180  0.1986 -0.6766  0.0475
22992SOL    HW177754   5.369   0.605  12.261  0.7699 -1.2428  0.3235
22992SOL    HW277755   5.430   0.493  12.180  0.4658 -0.3754 -1.1314
22993SOL     OW77756   6.296   9.521   9.543  0.2847 -0.0797 -0.0082
22993SOL    HW177757   6.368   9.494   9.486 -0.5022  0.5466 -1.3316
22993SOL    HW277758   6.237   9.570   9.487  0.3496  2.1647  1.7196
22994SOL     OW77759   5.930  10.823   6.855  0.2250  0.0108  0.0080
22994SOL    HW177760   5.907  10.905   6.901 -1.1831 -1.0963  1.3870
22994SOL    HW277761   5.969  10.852   6.773  0.2286  2.0825  0.6758
22995SOL     OW77762   2.606   8.993  10.051 -0.6081  1.1273 -0.5122
22995SOL    HW177763   2.685   8.940  10.066 -0.5557  1.0235 -1.1202
22995SOL    HW277764   2.569   9.006  10.138 -0.3160  0.5573 -0.2950
22996SOL     OW77765   1.315   3.905   4.133 -0.5798 -0.0589 -0.6549
22996SOL    HW177766   1.383   3.970   4.152 -0.7130  0.2624 -1.2366
22996SOL    HW277767   1.293   3.867   4.218  2.3522 -2.2671 -0.7368
22997SOL     OW77768   4.327   5.398   8.692  0.0928  0.0744  0.2307
22997SOL    HW177769   4.407   5.344   8.687 -0.1403 -0.4033  1.4785
22997SOL    HW277770   4.268   5.349   8.748 -0.3003  1.4254  1.0393
22998SOL     OW77771   3.744   2.239   3.625 -0.9787 -0.1990 -0.6267
22998SOL    HW177772   3.715   2.177   3.558  0.8604 -0.4715 -1.2339
22998SOL    HW277773   3.790   2.307   3.576 -0.7342  0.2868  0.2556
22999SOL     OW77774   4.808   2.141   5.786  0.5830  0.3527  0.1148
22999SOL    HW177775   4.788   2.187   5.868  1.0703 -1.4399  1.2997
22999SOL    HW277776   4.803   2.048   5.809  1.5127 -0.1947 -1.7044
23000SOL     OW77777   0.290  11.384  12.230  0.2449 -0.0702  0.7418
23000SOL    HW177778   0.267  11.341  12.148  1.0659 -1.3564  1.1694
23000SOL    HW277779   0.216  11.367  12.288 -0.1367  0.4632  0.4223
23001SOL     OW77780   1.254   1.833   2.093  0.0180 -0.0373 -0.0581
23001SOL    HW177781   1.163   1.835   2.122 -0.5072  0.4441 -1.6015
23001SOL    HW277782   1.264   1.915   2.043  2.2994  1.6246  2.8007
23002SOL     OW77783   1.796  11.689   8.905 -0.4772  0.4044  0.6183
23002SOL    HW177784   1.771  11.610   8.857 -1.2109 -0.3645  2.2136
23002SOL    HW277785   1.883  11.671   8.939  1.6288  2.2465 -3.0786
23003SOL     OW77786   6.555   5.077   8.350  0.4364 -0.3590 -0.3433
23003SOL    HW177787   6.645   5.103   8.367  0.8006 -2.0307  0.4982
23003SOL    HW277788   6.502   5.138   8.400  1.0859  0.5696 -0.7608
23004SOL     OW77789  10.929   3.983   8.425  0.4555 -0.1361  0.4292
23004SOL    HW177790  10.930   3.889   8.404 -0.9827 -0.5336  1.9488
23004SOL    HW277791  11.003   3.995   8.483  1.7117  0.0711 -1.1329
23005SOL     OW77792   0.222  11.077   2.600  0.6240  0.4295 -0.2297
23005SOL    HW177793   0.158  11.100   2.533  0.9464  0.4179 -0.5443
23005SOL    HW277794   0.279  11.012   2.558  0.6531  0.2083  0.1486
23006SOL     OW77795   2.802   7.755   2.241 -0.3831  0.5189  0.2313
23006SOL    HW177796   2.753   7.766   2.160  0.7843  0.2476 -0.5332
23006SOL    HW277797   2.760   7.679   2.284 -0.0774 -0.2653 -0.8325
23007SOL     OW77798   7.855   5.369   9.491  0.4421  0.3097  0.3659
23007SOL    HW177799   7.795   5.437   9.521 -0.2853 -1.0605  2.1766
23007SOL    HW277800   7.881   5.397   9.403 -1.5147  1.8128  0.2046
23008SOL     OW77801   9.903   3.314  11.529  0.0233  0.0806 -0.5325
23008SOL    HW177802   9.841   3.382  11.556 -0.5276 -0.6513  0.1189
23008SOL    HW277803   9.956   3.355  11.461  1.6200  2.0829  1.7889
23009SOL     OW77804   8.049   1.899   6.419  0.0962  0.2847 -0.4826
23009SOL    HW177805   8.084   1.948   6.344  1.5574  1.4563  0.9195
23009SOL    HW277806   7.967   1.862   6.386 -0.1274  2.1121 -2.1686
23010SOL     OW77807   7.653   5.226  11.720 -0.0885  0.1115  0.1836
23010SOL    HW177808   7.619   5.315  11.708 -1.1372 -0.3926 -0.7692
23010SOL    HW277809   7.581   5.179  11.763 -0.2882 -0.7552 -1.0619
23011SOL     OW77810  12.413   2.728   0.807  0.1286 -0.0100  0.2473
23011SOL    HW177811  12.495   2.748   0.763 -0.1701 -1.8768 -1.3108
23011SOL    HW277812  12.390   2.808   0.855  1.7725  1.2411 -0.9675
23012SOL     OW77813  12.090   7.017   9.677  0.0902  0.0457 -0.1185
23012SOL    HW177814  12.149   6.942   9.673  0.1179 -0.0048  0.9847
23012SOL    HW277815  12.030   6.997   9.749 -0.8791  0.3856 -0.8119
23013SOL     OW77816   7.446   7.324  10.709  0.2302  0.0499  0.2592
23013SOL    HW177817   7.379   7.262  10.738 -0.5860 -0.3785 -2.2984
23013SOL    HW277818   7.404   7.409  10.714  0.0936 -0.0206  0.3080
23014SOL     OW77819   4.999   7.473   7.027  0.0725  0.3378  0.0176
23014SOL    HW177820   4.941   7.404   6.996 -0.2658  0.4259  0.4563
23014SOL    HW277821   4.941   7.543   7.054  0.4109  0.7345 -0.2691
23015SOL     OW77822   1.843  10.938   2.323 -0.7941  0.2479 -0.4630
23015SOL    HW177823   1.767  10.982   2.362 -0.5593 -0.8790  1.3651
23015SOL    HW277824   1.875  10.880   2.391  2.3301  1.3797 -0.7987
23016SOL     OW77825   8.987   8.053   1.967  0.0388  0.3550 -0.2476
23016SOL    HW177826   9.061   8.113   1.977 -0.0228  0.6152 -1.2298
23016SOL    HW277827   8.919   8.088   2.024  1.4414 -1.2373  2.6117
23017SOL     OW77828   1.854   7.193   9.908  0.2805 -0.2402 -0.5314
23017SOL    HW177829   1.833   7.129   9.977 -0.4777 -2.4133 -2.6405
23017SOL    HW277830   1.772   7.203   9.860  0.5249  2.0128 -0.5943
23018SOL     OW77831  11.864   8.317  11.124  0.1770 -0.1164  0.6134
23018SOL    HW177832  11.940   8.311  11.066  0.8426 -0.2713  1.4739
23018SOL    HW277833  11.832   8.227  11.130  0.3165 -0.1583  0.7478
23019SOL     OW77834  12.322   6.530   8.141 -0.3100  0.0381  0.1086
23019SOL    HW177835  12.238   6.511   8.182 -1.1092  0.1130 -1.4509
23019SOL    HW277836  12.363   6.595   8.198  0.2813 -2.4915  2.8215
23020SOL     OW77837  10.520   4.008   1.027  0.0910  0.4005  0.4130
23020SOL    HW177838  10.523   4.075   0.960  1.1902 -0.6492 -0.6237
23020SOL    HW277839  10.428   4.006   1.054 -0.3119  1.0622 -0.8276
23021SOL     OW77840   6.971   7.179  10.505  0.1413  0.0546 -0.0926
23021SOL    HW177841   6.959   7.247  10.571  0.2096  1.1774 -1.1940
23021SOL    HW277842   7.031   7.217  10.441 -0.1436 -0.8821 -0.9572
23022SOL     OW77843   0.925   7.536   5.299 -0.0805 -0.3601  0.5777
23022SOL    HW177844   0.930   7.517   5.205 -1.2045 -0.7398  0.5758
23022SOL    HW277845   0.866   7.611   5.305 -0.2560 -0.5316  1.0038
23023SOL     OW77846   0.869  11.459   6.757  0.8560  0.2508 -0.3801
23023SOL    HW177847   0.846  11.525   6.691  0.0690 -0.1547 -0.5161
23023SOL    HW277848   0.910  11.509   6.827 -1.5132  1.1881  0.4153
23024SOL     OW77849   5.644   3.499   1.100 -0.1025  0.1658  0.2171
23024SOL    HW177850   5.606   3.518   1.014 -1.4242 -1.6025  0.3399
23024SOL    HW277851   5.577   3.446   1.144  0.0045  2.0588  2.8500
23025SOL     OW77852  10.342   1.917   2.680 -0.6645  0.3347 -0.2444
23025SOL    HW177853  10.436   1.931   2.681 -0.7720  1.1243  1.1723
23025SOL    HW277854  10.330   1.827   2.710 -0.3904  0.4868  0.3248
23026SOL     OW77855   5.062  11.401   7.918 -0.0083  0.6953  0.2825
23026SOL    HW177856   5.092  11.487   7.891 -0.6453  0.6435 -0.6243
23026SOL    HW277857   5.141  11.347   7.919  0.3887  1.2743  0.8395
23027SOL     OW77858   1.468   0.621   6.034  0.5519 -0.4269 -0.0003
23027SOL    HW177859   1.499   0.681   6.101  0.4368 -0.2732 -0.0851
23027SOL    HW277860   1.398   0.572   6.076 -1.5008  1.6203 -0.8389
23028SOL     OW77861   1.646  11.411   4.465  0.1311 -0.0207 -0.7026
23028SOL    HW177862   1.645  11.346   4.536  0.5545 -0.8231 -1.4139
23028SOL    HW277863   1.736  11.445   4.465  0.1137  0.0255 -0.8180
23029SOL     OW77864   4.784   7.795   0.503  0.0817  0.5138 -0.5706
23029SOL    HW177865   4.817   7.869   0.451  1.5308  0.6219  0.4370
23029SOL    HW277866   4.797   7.719   0.446 -0.8082  0.9343 -1.3656
23030SOL     OW77867   7.520   5.894  11.387  0.0383 -0.9316 -0.6122
23030SOL    HW177868   7.602   5.863  11.425  3.0473  3.6540 -2.4363
23030SOL    HW277869   7.530   5.878  11.293  0.7992  2.8472 -1.3550
23031SOL     OW77870   4.976  11.720   4.978  0.5265 -0.2223 -0.5850
23031SOL    HW177871   5.035  11.675   4.918  0.1320  1.2752 -2.1520
23031SOL    HW277872   4.930  11.784   4.924 -0.5489  0.5305  1.1341
23032SOL     OW77873  11.373   0.456   0.806 -0.0130 -0.2572  0.3227
23032SOL    HW177874  11.416   0.430   0.725 -2.1905  0.2749 -1.0852
23032SOL    HW277875  11.376   0.552   0.805 -0.9789 -0.2254  0.3386
23033SOL     OW77876   8.090  12.309   4.394 -0.5777 -0.3832 -0.7560
23033SOL    HW177877   8.167  12.352   4.430 -0.5804 -1.3063  0.4290
23033SOL    HW277878   8.118  12.277   4.308 -0.3144  1.1526 -1.2619
23034SOL     OW77879   8.496   2.006   7.918 -0.7984  0.2970  1.0720
23034SOL    HW177880   8.403   1.998   7.897 -0.7802  1.0292  0.6842
23034SOL    HW277881   8.498   2.028   8.011 -0.9388 -1.4616  1.5260
23035SOL     OW77882   2.687   1.759   2.268 -0.1084 -0.2292  0.1987
23035SOL    HW177883   2.771   1.770   2.312  1.9993 -1.6464 -3.0911
23035SOL    HW277884   2.689   1.825   2.198  0.6433 -3.2846 -2.9431
23036SOL     OW77885   8.319   9.086  11.515 -0.2212  0.5453 -0.1365
23036SOL    HW177886   8.337   9.009  11.569  1.0045  0.5423 -0.5151
23036SOL    HW277887   8.269   9.144  11.573 -0.3325 -0.1331  0.4632
23037SOL     OW77888   9.127   1.649   5.473 -0.1146  0.1491 -0.1623
23037SOL    HW177889   9.219   1.629   5.485  1.0014  1.6273 -4.2595
23037SOL    HW277890   9.113   1.729   5.523  1.5601  1.1956 -1.2596
23038SOL     OW77891   6.657  11.235   0.301 -0.5644 -0.0890  0.1590
23038SOL    HW177892   6.703  11.291   0.364  1.5297 -3.4498  1.9270
23038SOL    HW277893   6.630  11.294   0.231  1.1814  3.1085  1.9633
23039SOL     OW77894   2.780   3.248   3.715  0.4702  0.0451 -0.5839
23039SOL    HW177895   2.833   3.326   3.732  0.4807 -0.2430  0.7803
23039SOL    HW277896   2.794   3.192   3.791 -0.3325 -0.8559 -1.0796
23040SOL     OW77897  11.410   4.199  12.494 -0.1618  0.0503 -0.0160
23040SOL    HW177898  11.432   4.236  12.408  1.9139 -2.0845 -0.5279
23040SOL    HW277899  11.347   4.130  12.475  1.4279 -1.4524 -0.1317
23041SOL     OW77900   8.231   5.438   3.431  0.4650  0.4076  0.1235
23041SOL    HW177901   8.319   5.427   3.468  1.3975  0.5932 -1.9148
23041SOL    HW277902   8.215   5.357   3.383 -0.1505  0.6831 -0.1454
23042SOL     OW77903   9.418   7.204   2.917  0.0481  0.3005 -0.3703
23042SOL    HW177904   9.468   7.124   2.901 -2.0604 -1.2981  0.4597
23042SOL    HW277905   9.482   7.275   2.907  2.0704 -1.4790 -0.8903
23043SOL     OW77906   6.009   2.627   1.922  0.0857 -0.5416  0.0927
23043SOL    HW177907   5.917   2.647   1.901  0.2398 -0.3258 -0.4057
23043SOL    HW277908   6.011   2.532   1.934  0.5960 -1.3694 -4.4807
23044SOL     OW77909   5.369   1.471  11.908 -0.2064  0.5699  0.6028
23044SOL    HW177910   5.443   1.476  11.968  1.2371  1.1450 -1.1541
23044SOL    HW277911   5.347   1.563  11.889  0.7858  0.4264 -1.4036
23045SOL     OW77912   1.497  11.540  10.911  0.0605 -0.5188 -0.2782
23045SOL    HW177913   1.522  11.520  10.821  0.4139  2.0954 -0.8557
23045SOL    HW277914   1.416  11.491  10.926  1.1290 -2.6918 -1.2177
23046SOL     OW77915  10.714   6.978   6.557 -0.1651 -0.0022 -0.2191
23046SOL    HW177916  10.771   7.019   6.621 -3.7222  1.4578  2.3757
23046SOL    HW277917  10.695   7.048   6.493 -2.1146  0.9238  1.2625
23047SOL     OW77918   4.263   1.923   2.203  0.5388  0.1887 -0.3246
23047SOL    HW177919   4.342   1.952   2.249  0.3561 -0.0615  0.1576
23047SOL    HW277920   4.252   1.832   2.231 -1.0639  0.8013  1.2395
23048SOL     OW77921  11.401  10.485   4.677  0.4535 -0.2875  0.0331
23048SOL    HW177922  11.330  10.547   4.695 -0.5209 -1.3528 -0.0542
23048SOL    HW277923  11.425  10.501   4.586  0.5841  0.3103  0.1635
23049SOL     OW77924  12.407  11.012   5.478  0.2923  0.0930 -0.0166
23049SOL    HW177925  12.320  10.981   5.503 -0.4854  2.2337  0.1895
23049SOL    HW277926  12.439  11.058   5.555  1.1638  0.2164 -0.4442
23050SOL     OW77927   7.182   0.153   7.382 -0.7112  0.7360  0.0440
23050SOL    HW177928   7.239   0.224   7.409 -0.5126  0.2379  0.9746
23050SOL    HW277929   7.110   0.196   7.336  0.5788  1.3395 -1.4873
23051SOL     OW77930   4.325  11.644   8.227  0.6016  0.6152 -0.4721
23051SOL    HW177931   4.375  11.615   8.150 -0.1044 -1.4998 -0.2089
23051SOL    HW277932   4.315  11.565   8.280 -2.8864  0.9007 -0.4623
23052SOL     OW77933   5.066  11.482   2.033 -0.1299 -0.0377 -0.2006
23052SOL    HW177934   4.988  11.485   2.088 -0.6617 -0.6595 -0.9160
23052SOL    HW277935   5.034  11.493   1.944  0.5521 -0.7724 -0.5474
23053SOL     OW77936  12.126   3.905   2.247 -0.3080  0.6046 -0.3842
23053SOL    HW177937  12.120   3.891   2.152 -1.0661 -0.4606 -0.1943
23053SOL    HW277938  12.038   3.888   2.279 -0.3946  2.3082  0.3663
23054SOL     OW77939   4.139  10.414   7.993  0.1188  0.4342 -0.3924
23054SOL    HW177940   4.156  10.420   8.087  1.9209 -1.0119 -0.5694
23054SOL    HW277941   4.078  10.341   7.985  0.3439  0.2446 -0.3808
23055SOL     OW77942  11.727   8.829   2.985 -0.8737  0.3152 -0.0107
23055SOL    HW177943  11.769   8.758   2.936 -1.5689 -1.9439  2.4469
23055SOL    HW277944  11.693   8.887   2.917  0.9235 -0.9189 -2.1296
23056SOL     OW77945   5.646   2.182   0.904 -0.2878  0.0456  0.4344
23056SOL    HW177946   5.673   2.249   0.841 -0.5618 -0.5377 -0.3212
23056SOL    HW277947   5.589   2.228   0.965  2.2741  1.3242  2.0565
23057SOL     OW77948   5.090   2.461   6.374 -0.0662  0.7376 -0.1726
23057SOL    HW177949   5.161   2.437   6.315 -0.2980 -1.8962  0.4686
23057SOL    HW277950   5.134   2.495   6.452  0.6191 -1.2054  0.3640
23058SOL     OW77951   0.815  11.637  10.328  0.2631  0.6307  0.0518
23058SOL    HW177952   0.765  11.589  10.261  0.5383  1.0556 -0.4619
23058SOL    HW277953   0.776  11.724  10.329  1.8442  1.4080 -1.3336
23059SOL     OW77954   4.994   6.848   4.674  0.4192 -0.1854 -0.2135
23059SOL    HW177955   5.057   6.797   4.624 -1.1624 -2.7951  0.2396
23059SOL    HW277956   4.994   6.808   4.761 -3.5947 -2.1786 -0.8644
23060SOL     OW77957   8.532   0.078  12.151 -0.4644  0.4894  0.4188
23060SOL    HW177958   8.536   0.053  12.059 -0.7466 -0.5013  0.6666
23060SOL    HW277959   8.443   0.056  12.179  0.0927 -0.7037  1.3290
23061SOL     OW77960   0.001   3.656  10.232  0.0253  0.0610  0.2676
23061SOL    HW177961   0.058   3.601  10.179 -0.2406  0.0694 -0.0320
23061SOL    HW277962   0.060   3.700  10.294  0.5663  1.2596 -1.0414
23062SOL     OW77963   4.155   0.540   8.501 -0.4838  0.1438  0.2476
23062SOL    HW177964   4.218   0.558   8.430 -1.0632  0.1220 -0.2818
23062SOL    HW277965   4.162   0.445   8.515 -1.0579 -0.0116 -0.4552
23063SOL     OW77966  11.566   8.980   8.545 -0.1813 -0.0220 -0.2869
23063SOL    HW177967  11.570   8.885   8.538 -1.6420 -0.0655 -0.9041
23063SOL    HW277968  11.578   8.997   8.639 -1.7331 -0.9563  0.1187
23064SOL     OW77969   6.132   3.656   6.463 -0.0082 -0.0370  0.4643
23064SOL    HW177970   6.184   3.660   6.383 -2.3761  0.5349 -1.1524
23064SOL    HW277971   6.166   3.727   6.517  0.2570  0.9605 -0.9577
23065SOL     OW77972  10.605  10.024   4.053 -0.1745  0.2318 -0.3642
23065SOL    HW177973  10.602   9.977   3.970  1.2102  1.9012 -1.3986
23065SOL    HW277974  10.690  10.003   4.090 -1.1802 -1.3670  1.2361
23066SOL     OW77975   0.332   0.183   2.728  0.4945  0.5325 -1.0914
23066SOL    HW177976   0.269   0.247   2.696  0.6968  1.2665 -0.0333
23066SOL    HW277977   0.413   0.232   2.739  0.4325  0.3081  0.5394
23067SOL     OW77978   8.744   9.038  12.093  0.2298  0.1080 -0.4573
23067SOL    HW177979   8.822   9.086  12.066 -0.2173  1.7328  1.0164
23067SOL    HW277980   8.774   8.980  12.163  0.2618  0.2101 -0.3860
23068SOL     OW77981   2.814   1.848   0.455 -0.2615  0.1376  0.0231
23068SOL    HW177982   2.846   1.839   0.366 -0.3231  1.2081 -0.1228
23068SOL    HW277983   2.719   1.850   0.446 -0.5236 -3.5002  0.4954
23069SOL     OW77984  11.797   0.483   5.178 -0.1884 -0.1327  0.2464
23069SOL    HW177985  11.832   0.535   5.106 -2.1640 -0.5832 -1.1309
23069SOL    HW277986  11.792   0.544   5.251 -0.8158  1.1770 -0.8331
23070SOL     OW77987   4.425   2.433  11.558 -0.2074 -0.1739  0.0642
23070SOL    HW177988   4.366   2.425  11.633  1.8554  0.1915  1.8286
23070SOL    HW277989   4.411   2.523  11.527 -1.4267 -0.4850 -0.3363
23071SOL     OW77990   2.363   3.401  12.011  0.7952 -0.2549  0.7212
23071SOL    HW177991   2.381   3.482  12.059  0.9586 -0.9587  1.8867
23071SOL    HW277992   2.299   3.427  11.945  1.5140  1.0053  0.4851
23072SOL     OW77993   4.590   8.740  12.554 -0.5550 -0.5989  0.0916
23072SOL    HW177994   4.556   8.763  12.467  2.0490  0.3627 -0.7667
23072SOL    HW277995   4.558   8.651  12.569 -0.7084 -0.9772 -2.0740
23073SOL     OW77996   7.308   7.988   7.917 -0.6927 -0.2105 -0.1904
23073SOL    HW177997   7.374   7.957   7.980  1.2911 -0.1717 -2.1376
23073SOL    HW277998   7.251   7.912   7.904  0.6309 -1.1985 -0.5012
23074SOL     OW77999   8.783  12.599   9.762 -0.2698 -0.0007 -0.1933
23074SOL    HW178000   8.724  12.537   9.720 -0.2295  0.4882 -0.9974
23074SOL    HW278001   8.870  12.574   9.731 -0.0623 -0.6145  0.8550
23075SOL     OW78002   6.957  10.912   8.141  0.6246  0.2570 -0.0969
23075SOL    HW178003   7.004  10.990   8.112  1.9210 -1.5323 -3.3854
23075SOL    HW278004   7.021  10.862   8.191  0.2216  0.6446  0.8216
23076SOL     OW78005   4.956   3.637  10.720  0.2570  0.1420 -0.3949
23076SOL    HW178006   4.914   3.670  10.799  0.8784 -1.7188  0.7766
23076SOL    HW278007   5.033   3.693  10.708  1.1978 -0.6775  1.4478
23077SOL     OW78008   9.981   7.293  10.860 -0.4267  0.0340  0.2966
23077SOL    HW178009   9.996   7.206  10.898 -0.1080 -0.0035  0.0871
23077SOL    HW278010   9.969   7.276  10.767  0.5283  0.3002  0.1148
23078SOL     OW78011   4.553   1.801   7.989 -0.1937 -0.0138  0.3664
23078SOL    HW178012   4.639   1.831   8.017 -0.8610  0.9351  1.4361
23078SOL    HW278013   4.503   1.788   8.070 -1.4513  0.6506 -0.2702
23079SOL     OW78014   1.891   1.451  10.609  0.1762 -0.3730 -0.1730
23079SOL    HW178015   1.936   1.378  10.652  1.9870  1.4251  1.1679
23079SOL    HW278016   1.962   1.503  10.570 -1.1223  0.3404 -1.7041
23080SOL     OW78017  12.269   6.351  12.300 -0.0567  0.0784 -0.2487
23080SOL    HW178018  12.232   6.263  12.299 -0.6478  0.3136  0.5572
23080SOL    HW278019  12.221   6.397  12.369  0.6973  0.8370 -0.2155
23081SOL     OW78020  12.468   3.416   1.067  0.6833 -0.6104  0.1027
23081SOL    HW178021  12.491   3.380   0.981 -0.5498 -0.6046 -0.2600
23081SOL    HW278022  12.417   3.495   1.046  0.6981 -0.3967  0.8486
23082SOL     OW78023  11.289   9.484  10.638 -0.0144  0.0676  0.1181
23082SOL    HW178024  11.273   9.533  10.558  1.6344  2.1989  1.0062
23082SOL    HW278025  11.214   9.504  10.694 -0.0365  0.4360 -0.0449
23083SOL     OW78026   0.568   1.315   1.224  0.2584  0.5721 -0.4408
23083SOL    HW178027   0.482   1.327   1.265  0.2344  2.9674 -1.0366
23083SOL    HW278028   0.586   1.221   1.233 -0.6099  0.6159  3.2363
23084SOL     OW78029   1.922  11.097   3.387 -0.0999 -0.3798  0.1037
23084SOL    HW178030   1.968  11.131   3.464  0.6112 -1.8432  0.3682
23084SOL    HW278031   1.843  11.057   3.423  0.4666 -1.4899  0.1676
23085SOL     OW78032   7.844  10.480   3.961 -0.1984  0.0522 -0.2292
23085SOL    HW178033   7.927  10.468   4.008 -0.5530  1.8575  0.9308
23085SOL    HW278034   7.778  10.488   4.030 -1.0587  0.5390 -1.0868
23086SOL     OW78035   2.081  11.248   4.731 -0.2796  0.1754  0.5571
23086SOL    HW178036   2.128  11.240   4.814  2.5457  0.8292 -0.8397
23086SOL    HW278037   2.068  11.342   4.719 -0.2427  0.1216  0.0631
23087SOL     OW78038   9.067   8.856   6.651  0.4770  0.2178  0.0031
23087SOL    HW178039   9.145   8.829   6.602  1.4263  1.4348  0.7933
23087SOL    HW278040   9.101   8.910   6.722 -1.2112  2.5898 -0.8486
23088SOL     OW78041   5.532   5.289  12.177 -0.2486 -0.3261 -0.6605
23088SOL    HW178042   5.603   5.331  12.128 -1.0390  0.7091 -0.9528
23088SOL    HW278043   5.541   5.323  12.266 -0.5192 -0.0065 -0.7541
23089SOL     OW78044   9.918  11.166   6.810  0.2174  0.0299 -0.6374
23089SOL    HW178045   9.984  11.097   6.799 -2.0753 -2.3028 -0.5726
23089SOL    HW278046   9.909  11.175   6.905 -0.3518 -0.4883 -0.6374
23090SOL     OW78047   7.453   4.318   6.496 -0.5955 -0.0993 -0.2917
23090SOL    HW178048   7.542   4.286   6.510 -1.3141 -1.6487  1.1429
23090SOL    HW278049   7.428   4.281   6.411  0.6244  1.6816 -1.5001
23091SOL     OW78050   1.145   9.298   6.215 -0.2488 -0.7099  0.2017
23091SOL    HW178051   1.081   9.291   6.145 -0.2441 -0.6449  0.1906
23091SOL    HW278052   1.104   9.355   6.280 -0.5931 -1.4340  0.6335
23092SOL     OW78053   7.607   4.674   5.396  0.1616 -0.3185  0.3973
23092SOL    HW178054   7.578   4.766   5.393  0.8736 -0.0957  0.2029
23092SOL    HW278055   7.577   4.642   5.481 -1.2179 -0.2899 -0.0452
23093SOL     OW78056   5.539   8.231   3.177  0.3421 -0.4652  0.0024
23093SOL    HW178057   5.473   8.283   3.131 -0.2072 -1.6159 -0.5620
23093SOL    HW278058   5.505   8.142   3.173  3.3463 -1.6667 -3.0207
23094SOL     OW78059   7.843   5.654   5.190  0.1437 -0.2982 -0.2140
23094SOL    HW178060   7.804   5.702   5.263  0.5109 -0.6787  0.2381
23094SOL    HW278061   7.815   5.702   5.112 -0.9590 -0.3790  0.1165
23095SOL     OW78062   1.742   0.861   6.951 -0.6240 -0.2951 -0.0513
23095SOL    HW178063   1.790   0.942   6.935 -1.1070  0.2100  0.9784
23095SOL    HW278064   1.701   0.874   7.037 -0.3983 -1.7796  0.2993
23096SOL     OW78065   9.888  12.038   4.162 -0.2880 -0.5038 -0.2793
23096SOL    HW178066   9.957  12.104   4.152 -0.6730 -0.0479 -0.0235
23096SOL    HW278067   9.885  11.993   4.078  1.8055 -2.0321  0.3856
23097SOL     OW78068   9.885   2.210   3.272 -0.5772 -0.1893 -0.2657
23097SOL    HW178069   9.922   2.278   3.215  0.6132 -2.2393 -2.1212
23097SOL    HW278070   9.798   2.194   3.236 -0.5063 -0.2639 -0.4058
23098SOL     OW78071   9.135   1.484   7.381  0.5836  0.0018 -0.0242
23098SOL    HW178072   9.083   1.565   7.377  0.4662 -0.1032 -0.8559
23098SOL    HW278073   9.165   1.479   7.472 -0.8917  0.0388  0.4930
23099SOL     OW78074   5.948   4.018   6.679  0.0397 -0.5176 -0.0828
23099SOL    HW178075   5.879   4.039   6.743  0.0553  0.8905 -0.5121
23099SOL    HW278076   6.027   4.007   6.732  0.2446  1.5108  0.1180
23100SOL     OW78077   8.936   1.198   6.756  0.0104  0.0919  0.0890
23100SOL    HW178078   8.934   1.193   6.851  0.4427 -2.0201  0.0339
23100SOL    HW278079   8.844   1.205   6.730 -0.1759 -0.3683  0.6258
23101SOL     OW78080   8.083   5.780   1.900  0.8860 -0.3998 -0.0000
23101SOL    HW178081   8.079   5.713   1.833  1.5863 -2.9400  2.3330
23101SOL    HW278082   7.994   5.814   1.906  0.8307 -0.0073 -2.2073
23102SOL     OW78083   0.914  11.609   7.319 -0.5105 -0.0514 -0.0064
23102SOL    HW178084   0.880  11.669   7.385 -0.0504  0.7977 -0.5164
23102SOL    HW278085   0.911  11.523   7.360 -2.9320  0.0290  0.0797
23103SOL     OW78086   2.909   7.200  10.317  0.3332  0.7111  0.5926
23103SOL    HW178087   2.978   7.141  10.285 -0.4155 -0.7784  1.5849
23103SOL    HW278088   2.891   7.259  10.243  1.3140 -0.1354 -0.3503
23104SOL     OW78089   8.737   6.978   2.100 -0.0161  0.3144 -0.1143
23104SOL    HW178090   8.745   7.010   2.010 -1.5829 -2.0566 -1.2033
23104SOL    HW278091   8.659   6.922   2.099 -0.1619  0.3057  2.7776
23105SOL     OW78092  12.585   1.927   1.726  0.5911  0.0151  0.3998
23105SOL    HW178093  12.598   2.022   1.730  0.8611 -0.0075  0.1298
23105SOL    HW278094  12.498   1.913   1.763  0.5757  0.3625  0.4984
23106SOL     OW78095   1.390   1.221   4.081  0.0737  0.1047  0.3089
23106SOL    HW178096   1.431   1.194   3.999  1.1047  2.4030  0.0058
23106SOL    HW278097   1.463   1.252   4.135 -0.7919  0.2365  1.4317
23107SOL     OW78098  10.951   5.905   9.774  0.4830  0.2857  0.3865
23107SOL    HW178099  10.909   5.940   9.695  0.5250  0.8668  0.6164
23107SOL    HW278100  11.044   5.906   9.754  0.4119 -0.9106 -0.0857
23108SOL     OW78101   2.381   4.964   5.056  0.2197 -0.0104  0.0624
23108SOL    HW178102   2.314   5.006   5.003  1.6039  1.0230 -0.9557
23108SOL    HW278103   2.407   5.030   5.120  1.5673  0.3189 -0.7783
23109SOL     OW78104   2.345   1.651   2.643 -0.0622  0.1995 -0.3813
23109SOL    HW178105   2.275   1.716   2.636  0.6192  0.9617 -0.2464
23109SOL    HW278106   2.380   1.644   2.554 -0.9341 -0.9112 -0.6603
23110SOL     OW78107   3.776  10.195   9.344 -0.4224 -0.4369 -0.0103
23110SOL    HW178108   3.866  10.226   9.354 -0.5480  0.0810 -0.4743
23110SOL    HW278109   3.762  10.191   9.250  0.1246 -3.4870 -0.0516
23111SOL     OW78110   5.742   8.685   9.755  0.6876 -0.2666 -0.4109
23111SOL    HW178111   5.808   8.675   9.686  0.4243  0.6749 -0.8104
23111SOL    HW278112   5.661   8.702   9.708  0.3869 -0.2081  0.1224
23112SOL     OW78113   9.503   6.961   2.016  0.2567 -0.0942  0.2520
23112SOL    HW178114   9.429   6.947   2.075  0.6386  0.5131  0.8926
23112SOL    HW278115   9.462   6.982   1.932 -0.2923 -0.9619  0.2925
23113SOL     OW78116   4.791   1.455   5.697 -0.1454 -0.0125  0.7819
23113SOL    HW178117   4.789   1.414   5.611  0.7845  0.7594  0.3642
23113SOL    HW278118   4.869   1.418   5.739 -0.5581 -0.3366  1.2740
23114SOL     OW78119  10.819   0.044   8.145  0.8882  0.1738 -0.3509
23114SOL    HW178120  10.761   0.116   8.169  0.1737 -0.0439 -1.3391
23114SOL    HW278121  10.890   0.048   8.209 -0.5147  0.0676  1.2940
23115SOL     OW78122   5.881  11.175   3.543 -0.0475  0.1423 -0.0247
23115SOL    HW178123   5.863  11.104   3.482 -0.6783 -0.6734  1.0864
23115SOL    HW278124   5.801  11.184   3.594  0.4243  0.8856  0.6114
23116SOL     OW78125   0.272   0.481  10.475 -0.1163  0.1486 -0.3570
23116SOL    HW178126   0.267   0.388  10.455 -0.4834  0.0652  0.1094
23116SOL    HW278127   0.357   0.509  10.440 -1.0331  0.1963 -2.7608
23117SOL     OW78128  10.686   4.644   7.128 -0.1726 -0.1172  0.3409
23117SOL    HW178129  10.776   4.624   7.101  0.3471  2.9555 -0.6622
23117SOL    HW278130  10.643   4.669   7.046 -1.7543 -0.8506  0.9257
23118SOL     OW78131   0.813   2.283  12.409  0.2908 -0.1643 -0.5438
23118SOL    HW178132   0.824   2.193  12.379  1.7824 -0.3541  0.4658
23118SOL    HW278133   0.851   2.337  12.339  1.4100 -0.4528 -0.1678
23119SOL     OW78134   0.742   4.315   5.106 -0.4126 -0.0503 -0.4955
23119SOL    HW178135   0.799   4.381   5.145 -0.5376 -0.2574  0.0486
23119SOL    HW278136   0.655   4.337   5.139 -0.4503 -0.4983 -0.2923
23120SOL     OW78137   4.005   4.138   9.249  0.4284  0.1594  0.1262
23120SOL    HW178138   4.096   4.161   9.266  0.3566 -0.0204  0.7984
23120SOL    HW278139   3.987   4.066   9.310  0.4710 -1.2763 -1.4922
23121SOL     OW78140   3.204   9.818   0.097 -0.7343  0.1951  0.1699
23121SOL    HW178141   3.290   9.801   0.136 -0.7322  1.7023  0.9074
23121SOL    HW278142   3.191   9.746   0.035  0.6404 -0.5669  0.7180
23122SOL     OW78143   4.498   0.706   4.188 -0.4160 -0.1062 -0.2857
23122SOL    HW178144   4.530   0.617   4.203 -2.7369 -0.8245  0.8183
23122SOL    HW278145   4.429   0.697   4.122 -0.8658  0.8387  0.0324
23123SOL     OW78146   6.443   2.400  11.871 -0.2139  0.2361  0.4690
23123SOL    HW178147   6.470   2.411  11.962  0.0022  0.2994  0.3972
23123SOL    HW278148   6.488   2.320  11.842  0.3252  0.6378  0.1864
23124SOL     OW78149  11.081   0.389   5.915 -0.2524 -0.6198 -0.2679
23124SOL    HW178150  11.140   0.375   5.989  0.1080  1.0153 -0.2303
23124SOL    HW278151  10.994   0.400   5.955  0.0549  0.9979 -0.0164
23125SOL     OW78152   7.040   1.960   3.448  0.4833  0.4267  0.4850
23125SOL    HW178153   7.090   2.020   3.503 -0.2418  2.2287 -0.7634
23125SOL    HW278154   7.045   1.996   3.360  1.2658 -2.1676 -0.6448
23126SOL     OW78155   7.050  10.611   8.108 -0.3606 -0.0283 -0.0530
23126SOL    HW178156   7.119  10.550   8.081  2.4529  2.3615  1.1535
23126SOL    HW278157   7.020  10.578   8.193  3.4818  1.7207  2.2490
23127SOL     OW78158   7.253   6.759   9.059 -0.4152 -0.4084 -0.1722
23127SOL    HW178159   7.191   6.702   9.103 -0.8314  0.0643 -0.1348
23127SOL    HW278160   7.323   6.772   9.123 -0.6907 -0.2707  0.1055
23128SOL     OW78161  11.936   5.251   3.637  0.1063  0.3433  0.1072
23128SOL    HW178162  12.008   5.305   3.605 -0.0678 -0.1427 -1.1758
23128SOL    HW278163  11.908   5.294   3.718  1.6529  0.6807  0.5053
23129SOL     OW78164   3.824   2.627  12.211 -0.2043 -0.4746  0.1561
23129SOL    HW178165   3.914   2.596  12.195 -1.1475 -3.3079 -0.2743
23129SOL    HW278166   3.790   2.568  12.279 -1.4163  1.2754  1.1473
23130SOL     OW78167   2.496   7.161  11.344 -0.3127  0.2036  0.4876
23130SOL    HW178168   2.446   7.162  11.263  1.0974  0.0669 -0.4128
23130SOL    HW278169   2.503   7.254  11.368  0.4331  0.3670 -0.3090
23131SOL     OW78170   0.061   9.731   2.448 -0.2686 -0.6954  0.2428
23131SOL    HW178171   0.051   9.794   2.519  0.0103 -1.3715  0.8950
23131SOL    HW278172   0.092   9.651   2.490 -0.2735 -1.1700 -0.6147
23132SOL     OW78173  10.446  11.673   3.001  0.0147  0.4758 -0.4427
23132SOL    HW178174  10.428  11.623   2.921  1.2983  1.0323 -1.1247
23132SOL    HW278175  10.397  11.628   3.069  0.3270 -1.1201 -1.2056
23133SOL     OW78176   9.639  10.235   0.329  0.2955 -0.3079 -0.7293
23133SOL    HW178177   9.613  10.143   0.330 -0.6158 -0.0786  1.1397
23133SOL    HW278178   9.732  10.234   0.348  0.3687 -0.8601 -1.0972
23134SOL     OW78179   2.110   8.526  10.729  0.2241 -0.0399 -0.1234
23134SOL    HW178180   2.167   8.450  10.740 -1.9910 -1.5507  1.6944
23134SOL    HW278181   2.105   8.566  10.816 -0.4268  0.8725 -0.5580
23135SOL     OW78182  12.224   1.681   9.735  0.0117 -0.2298 -0.1226
23135SOL    HW178183  12.270   1.658   9.816 -2.1358 -0.7825  1.0472
23135SOL    HW278184  12.272   1.637   9.666  2.0013  0.3659  0.8196
23136SOL     OW78185  11.741   5.395   6.969  0.6991 -0.5463  0.0174
23136SOL    HW178186  11.703   5.462   7.025 -0.3387 -0.3614 -0.8612
23136SOL    HW278187  11.681   5.320   6.977 -0.8636  0.2902 -2.6006
23137SOL     OW78188   7.226   8.876  10.777  0.4719 -0.0861 -0.0016
23137SOL    HW178189   7.205   8.859  10.685  2.3316  0.4001 -0.5613
23137SOL    HW278190   7.269   8.962  10.776 -1.6132  1.0495  1.6778
23138SOL     OW78191   9.153   0.387   0.109  0.5306 -0.7498  0.8564
23138SOL    HW178192   9.123   0.354   0.194 -0.7538  0.1518  0.7767
23138SOL    HW278193   9.148   0.311   0.051 -0.6964 -0.8717  1.0884
23139SOL     OW78194   6.677   7.467  12.544  0.2928 -0.3761 -0.2375
23139SOL    HW178195   6.623   7.396  12.511  1.5566 -1.1542 -0.6956
23139SOL    HW278196   6.700   7.441  12.633  0.6851 -0.5192 -0.3759
23140SOL     OW78197  10.583   6.748   3.577 -0.4808  0.1474 -0.2291
23140SOL    HW178198  10.556   6.803   3.651  0.5294  1.2545 -0.6568
23140SOL    HW278199  10.672   6.777   3.557 -0.8175  0.0238 -2.0371
23141SOL     OW78200   8.876   7.332  11.762 -0.1474  0.2644  0.0739
23141SOL    HW178201   8.787   7.353  11.789 -0.5031  0.1655 -0.9542
23141SOL    HW278202   8.906   7.267  11.825 -0.2352  1.3971  1.3314
23142SOL     OW78203   2.572   0.327  11.291  0.0268 -0.0200 -0.3685
23142SOL    HW178204   2.497   0.268  11.290 -0.1191  0.1407 -1.9291
23142SOL    HW278205   2.594   0.339  11.198  2.4666 -0.6731  0.0663
23143SOL     OW78206   3.496   9.084  11.725 -0.2199  0.2096 -0.7080
23143SOL    HW178207   3.458   9.134  11.652  1.5188 -1.0034 -2.5789
23143SOL    HW278208   3.589   9.105  11.722 -0.3753  1.9332  2.7736
23144SOL     OW78209   4.671  10.984  11.560  0.3330  0.1211  0.2773
23144SOL    HW178210   4.751  11.036  11.546  0.4286  1.0689  3.5199
23144SOL    HW278211   4.703  10.900  11.591  0.0766 -0.4040 -0.8359
23145SOL     OW78212   4.570   9.730   1.797 -0.4270  0.1629 -0.0033
23145SOL    HW178213   4.653   9.716   1.842 -0.6853 -0.5115  0.2887
23145SOL    HW278214   4.506   9.679   1.847 -0.8394 -0.0909 -0.7597
23146SOL     OW78215   4.267   2.731   7.042 -0.3129  0.2581 -0.4992
23146SOL    HW178216   4.278   2.825   7.027  0.8317  0.0706 -0.9868
23146SOL    HW278217   4.338   2.708   7.103 -1.8342  0.0685  1.3018
23147SOL     OW78218   9.287   3.607  12.589 -0.8298  0.4307  0.4449
23147SOL    HW178219   9.246   3.593  12.504 -0.4159 -0.3940  0.3742
23147SOL    HW278220   9.304   3.701  12.592 -2.4760  0.7669  0.3678
23148SOL     OW78221   8.772   0.706   0.480 -0.1552 -0.1125  0.0542
23148SOL    HW178222   8.839   0.701   0.412 -0.4836 -1.0591 -0.2100
23148SOL    HW278223   8.821   0.706   0.562  0.1772 -1.1102 -0.1267
23149SOL     OW78224   7.547   0.255   5.854 -0.2158  0.1009  0.4348
23149SOL    HW178225   7.639   0.274   5.835 -0.0710 -0.5563  0.4433
23149SOL    HW278226   7.503   0.263   5.769  0.0899 -0.9135  0.1730
23150SOL     OW78227   0.105  10.363  10.016  0.3686  0.4099 -0.1771
23150SOL    HW178228   0.119  10.290  10.076 -0.4139 -0.1123 -0.6168
23150SOL    HW278229   0.133  10.440  10.065 -0.5063  0.0321  0.9606
23151SOL     OW78230  10.379   7.010   1.192 -0.0067 -0.3222 -0.0371
23151SOL    HW178231  10.408   6.959   1.268 -0.4426  0.7293  0.8509
23151SOL    HW278232  10.403   7.100   1.212 -0.6573  0.0546 -0.8894
23152SOL     OW78233  10.951   2.269   1.326  0.0662 -0.2141  0.1209
23152SOL    HW178234  10.864   2.308   1.317  0.9732  3.1722  3.3957
23152SOL    HW278235  10.991   2.278   1.240 -1.8485  0.7538 -0.7234
23153SOL     OW78236   7.552   4.305  11.851  0.0354  0.0010 -0.1146
23153SOL    HW178237   7.532   4.257  11.771  2.2400 -1.3953  0.0801
23153SOL    HW278238   7.510   4.391  11.839 -1.0085 -0.7138 -2.0362
23154SOL     OW78239   5.538   1.424   0.096 -0.2253 -0.1769 -0.3039
23154SOL    HW178240   5.606   1.485   0.066 -0.1120 -0.9205 -1.6781
23154SOL    HW278241   5.558   1.409   0.188  0.2937  1.1360 -0.1804
23155SOL     OW78242   3.072   2.757   7.282 -0.2759  0.1527 -0.1722
23155SOL    HW178243   3.136   2.691   7.309  0.4778  1.3826  1.1985
23155SOL    HW278244   2.994   2.707   7.260  0.2559 -1.1962  0.8617
23156SOL     OW78245   0.233   8.294  10.376  0.0319  0.3452  0.0317
23156SOL    HW178246   0.309   8.245  10.409 -0.7470 -1.0220 -0.1469
23156SOL    HW278247   0.161   8.231  10.380 -0.1384 -0.0004 -4.3779
23157SOL     OW78248   1.755  11.769  12.196  0.2930 -0.0886 -0.6451
23157SOL    HW178249   1.732  11.849  12.243  0.6957 -0.1169 -0.3899
23157SOL    HW278250   1.714  11.699  12.246 -1.6588  0.0679 -1.9061
23158SOL     OW78251  10.260   1.463   9.868  0.7742  0.4201 -0.0718
23158SOL    HW178252  10.242   1.554   9.841  1.9638  0.6081 -0.2785
23158SOL    HW278253  10.310   1.426   9.796 -1.8244 -1.2538 -1.1894
23159SOL     OW78254  12.285   3.229   9.574  0.2364  0.5490  0.7896
23159SOL    HW178255  12.213   3.288   9.597 -0.0022  0.6643 -0.2025
23159SOL    HW278256  12.336   3.221   9.655 -0.8795  0.4655  1.5084
23160SOL     OW78257   0.777   8.442   7.695 -0.1124 -0.5410 -0.1019
23160SOL    HW178258   0.849   8.479   7.643 -0.6898 -0.8990 -1.1792
23160SOL    HW278259   0.773   8.351   7.668 -1.5117 -0.3257 -0.6943
23161SOL     OW78260   3.082   2.690   9.220  0.1767  0.1874  0.3357
23161SOL    HW178261   3.177   2.685   9.228  0.1596  0.3268  0.6391
23161SOL    HW278262   3.066   2.767   9.166  0.2766 -0.5007 -0.6962
23162SOL     OW78263   2.607   6.092   0.282  0.5712 -0.3035 -0.3671
23162SOL    HW178264   2.563   6.014   0.248 -0.3529  0.4835 -1.0429
23162SOL    HW278265   2.640   6.136   0.204  0.0060  0.6079 -0.1081
23163SOL     OW78266   4.777  10.844   1.208  0.0230 -0.8506  0.1844
23163SOL    HW178267   4.769  10.799   1.292  2.3736 -1.7233  0.0198
23163SOL    HW278268   4.859  10.893   1.215 -1.2205  1.5065 -0.5678
23164SOL     OW78269  11.574   2.613   3.241 -0.3612  0.4449 -0.2846
23164SOL    HW178270  11.560   2.518   3.239  1.8667  0.0664 -0.6056
23164SOL    HW278271  11.510   2.647   3.178 -1.5356 -0.7673  0.1904
23165SOL     OW78272   4.333   2.795  12.197 -0.1635  0.0405 -0.0658
23165SOL    HW178273   4.403   2.755  12.145  0.6722  3.2790 -1.6839
23165SOL    HW278274   4.372   2.809  12.283 -0.7546 -3.1219  0.8441
23166SOL     OW78275   1.504   5.313   1.100  0.3321 -0.1399 -0.0451
23166SOL    HW178276   1.592   5.283   1.124  0.5507  1.5088  1.4021
23166SOL    HW278277   1.514   5.344   1.009  0.9847 -0.8964 -0.2426
23167SOL     OW78278   4.848   6.676   6.023  0.5641  0.0780 -0.1588
23167SOL    HW178279   4.903   6.751   6.044  0.7054  0.8977 -3.1103
23167SOL    HW278280   4.909   6.607   5.998  0.3590 -0.5942  1.0577
23168SOL     OW78281   3.122   3.690   0.460  0.2674  0.4924  0.5708
23168SOL    HW178282   3.083   3.707   0.375 -0.3481 -0.5043  0.6410
23168SOL    HW278283   3.052   3.649   0.511  0.6952  0.8669  1.4834
23169SOL     OW78284   6.155  11.056   1.595 -0.0722 -0.2664  0.2670
23169SOL    HW178285   6.078  11.086   1.643  0.7201  0.5817  1.0494
23169SOL    HW278286   6.137  11.079   1.504 -0.3372  0.8408  0.5760
23170SOL     OW78287   4.009   8.592   0.839 -0.3661 -0.3756  0.2061
23170SOL    HW178288   4.052   8.548   0.766  0.4258 -0.6131  0.7947
23170SOL    HW278289   3.998   8.524   0.905  1.9513  0.4665  1.6117
23171SOL     OW78290   2.450   5.142   8.157  0.0705 -0.4689  0.0316
23171SOL    HW178291   2.451   5.203   8.083  0.7768 -1.5947 -0.9181
23171SOL    HW278292   2.358   5.123   8.172 -0.0059 -1.8034 -1.9127
23172SOL     OW78293  10.877   3.961  12.381  0.0286 -0.1742 -0.0019
23172SOL    HW178294  10.928   3.931  12.456  1.5535  1.3418 -0.3553
23172SOL    HW278295  10.800   4.003  12.419  0.0852 -0.6417  0.6413
23173SOL     OW78296  10.992   3.073   5.836 -0.3954 -0.8282  0.6345
23173SOL    HW178297  11.040   2.992   5.853  0.7370 -0.2330  0.3577
23173SOL    HW278298  11.052   3.143   5.863 -0.9100 -0.0496 -0.1805
23174SOL     OW78299  10.097   3.135   4.809 -0.2502 -0.6410  0.1075
23174SOL    HW178300  10.100   3.064   4.873 -2.5830 -1.1235 -0.2323
23174SOL    HW278301  10.034   3.106   4.743  0.7146  0.6340 -1.4790
23175SOL     OW78302  11.961  10.741   2.947 -0.6401 -0.2216 -0.1980
23175SOL    HW178303  12.030  10.712   3.006  0.7031  0.6621 -1.2800
23175SOL    HW278304  11.922  10.817   2.991  0.6568  0.7177 -0.6262
23176SOL     OW78305  12.036   9.151   5.466 -0.2468 -0.5691  0.1805
23176SOL    HW178306  12.089   9.107   5.399  0.6562  0.0629  0.4527
23176SOL    HW278307  12.037   9.091   5.540 -0.3847 -0.8176 -0.0198
23177SOL     OW78308   5.197  11.615   1.733 -0.5934 -0.1818 -0.5467
23177SOL    HW178309   5.265  11.675   1.702 -1.1615  1.1837  0.7203
23177SOL    HW278310   5.244  11.533   1.750  0.9258  0.9163  0.9198
23178SOL     OW78311   0.515   0.726  10.360 -0.7228 -0.4913  0.3630
23178SOL    HW178312   0.561   0.795  10.409 -2.1428 -0.3531  1.5796
23178SOL    HW278313   0.566   0.647  10.376  0.9698  0.2223 -1.0974
23179SOL     OW78314   7.184   8.115   3.109 -0.0744 -0.6288 -1.0334
23179SOL    HW178315   7.175   8.207   3.135  2.6768 -0.2921 -1.0274
23179SOL    HW278316   7.185   8.067   3.191  2.0804 -0.2327 -0.7721
23180SOL     OW78317   6.674   3.463   1.923 -0.0761 -0.4973 -0.0169
23180SOL    HW178318   6.677   3.557   1.941 -1.5820 -0.4086 -0.0287
23180SOL    HW278319   6.762   3.440   1.894  0.1998  1.0049 -0.4450
23181SOL     OW78320   8.036   8.249   1.505 -0.0650 -0.2637  0.0714
23181SOL    HW178321   8.036   8.323   1.444 -0.2317 -0.3543 -0.0372
23181SOL    HW278322   7.971   8.274   1.571 -0.9192 -0.8013 -0.5529
23182SOL     OW78323  12.318   6.309   7.013  0.2141 -0.3116  0.2534
23182SOL    HW178324  12.227   6.325   6.987  0.0689 -0.0116  0.9180
23182SOL    HW278325  12.365   6.294   6.931  0.4193  3.7595 -0.6029
23183SOL     OW78326  10.387   4.581   3.047 -0.0814  0.0969 -0.3100
23183SOL    HW178327  10.373   4.532   3.128  2.4962 -0.9862 -0.4064
23183SOL    HW278328  10.449   4.527   2.997 -0.1812  1.6111 -2.2116
23184SOL     OW78329   6.362   2.662   2.674 -0.4817  0.3720  0.0601
23184SOL    HW178330   6.362   2.692   2.765 -1.5585 -0.9848  0.5475
23184SOL    HW278331   6.420   2.585   2.674 -0.0632  0.6773 -0.5307
23185SOL     OW78332   5.065   8.649  10.078 -0.4573 -0.4811 -0.1141
23185SOL    HW178333   5.131   8.714  10.103  0.0078 -1.0195  0.0972
23185SOL    HW278334   5.053   8.662   9.984  0.3801 -0.7444 -0.2716
23186SOL     OW78335   6.594   3.021  10.421 -0.8832 -0.6536  0.2425
23186SOL    HW178336   6.512   3.027  10.373 -1.5966 -1.0908  1.3479
23186SOL    HW278337   6.590   2.936  10.465  0.2325 -0.7446  0.1906
23187SOL     OW78338  12.541  12.471   1.452  0.4976 -0.1186  0.3915
23187SOL    HW178339  12.619  12.456   1.399  2.7489 -0.1688  3.4565
23187SOL    HW278340  12.470  12.433   1.401  2.9284 -3.0834 -1.1466
23188SOL     OW78341   8.636   8.444   3.664  0.2066  0.0829  0.2031
23188SOL    HW178342   8.721   8.411   3.633 -0.3856 -2.8562  1.3348
23188SOL    HW278343   8.650   8.463   3.757 -0.3869 -0.5815  0.4374
23189SOL     OW78344   6.643   9.961   7.546 -0.1648 -0.0136  0.0896
23189SOL    HW178345   6.630  10.025   7.476  0.0266 -0.5010 -0.4034
23189SOL    HW278346   6.645   9.876   7.500 -2.0413 -0.5298  0.8822
23190SOL     OW78347   7.702  12.079   3.344  0.3057  0.4103  0.1834
23190SOL    HW178348   7.739  12.165   3.366 -0.7812  1.5708 -2.0798
23190SOL    HW278349   7.613  12.082   3.380  0.3343  0.1533  0.2713
23191SOL     OW78350  10.023   2.609  10.715 -0.4844  0.6892 -0.2400
23191SOL    HW178351  10.075   2.600  10.635 -0.2448  0.3192 -0.0453
23191SOL    HW278352  10.088   2.608  10.785 -0.8364 -1.4397  0.1296
23192SOL     OW78353  12.095   8.993  10.717 -0.1509  0.1197  0.2039
23192SOL    HW178354  12.170   9.005  10.658  0.5726  0.5639  1.1949
23192SOL    HW278355  12.060   8.908  10.693  1.4431 -0.6861  0.5560
23193SOL     OW78356   8.897   2.680   6.610 -0.4031  0.2018 -0.0490
23193SOL    HW178357   8.813   2.645   6.640  0.6445 -0.7049  2.0158
23193SOL    HW278358   8.874   2.759   6.561 -2.4939 -0.4979 -0.3094
23194SOL     OW78359   0.325   1.150   5.688 -0.3174 -0.2414 -0.2920
23194SOL    HW178360   0.280   1.091   5.628  0.1725 -1.3010  0.3596
23194SOL    HW278361   0.255   1.183   5.745 -0.8644  1.1283 -1.6708
23195SOL     OW78362  10.727   3.688   5.384 -0.0941 -0.2443 -0.4969
23195SOL    HW178363  10.769   3.677   5.299  0.3531 -0.2172 -0.2790
23195SOL    HW278364  10.719   3.783   5.395 -1.6602 -0.2471 -1.2421
23196SOL     OW78365  11.052   6.390   9.160 -0.4535  0.1269  0.1557
23196SOL    HW178366  11.119   6.451   9.190  0.2667 -0.9729  0.8484
23196SOL    HW278367  10.987   6.390   9.230 -1.4200  1.4718 -0.6773
23197SOL     OW78368  12.409   0.240   4.567  0.7187  0.6643  0.3022
23197SOL    HW178369  12.330   0.215   4.521  1.3130  2.5677 -1.9754
23197SOL    HW278370  12.386   0.238   4.659 -1.8144  0.6536 -0.2804
23198SOL     OW78371   1.650   0.168  10.928 -0.4525  0.1656  0.3030
23198SOL    HW178372   1.721   0.222  10.893 -0.6309  0.9604  1.1497
23198SOL    HW278373   1.573   0.195  10.879 -0.5044  0.5334  0.5911
23199SOL     OW78374   5.981   5.253   0.051  0.1440 -0.6297  0.1720
23199SOL    HW178375   5.940   5.244   0.137  0.4549 -1.7512  0.2218
23199SOL    HW278376   5.980   5.164   0.015 -1.7223  0.0898 -1.7909
23200SOL     OW78377   4.347  10.366   5.766  0.2655 -0.2058  0.3208
23200SOL    HW178378   4.251  10.365   5.758  0.2103 -2.6936  0.5151
23200SOL    HW278379   4.375  10.432   5.702 -1.6035  1.5807  1.2273
23201SOL     OW78380   2.262   8.141   0.231 -0.3806 -0.4191  0.5640
23201SOL    HW178381   2.318   8.066   0.251  0.0479 -0.9018 -2.1162
23201SOL    HW278382   2.181   8.103   0.198 -0.2861  0.2610 -0.5184
23202SOL     OW78383   6.524   9.194   4.018  0.4936 -0.2248 -0.2775
23202SOL    HW178384   6.462   9.255   3.977 -0.1788 -0.8696 -0.2465
23202SOL    HW278385   6.578   9.163   3.946  0.6590  0.1949 -0.3390
23203SOL     OW78386  11.229   5.803  12.194  0.3011 -0.4310 -0.4000
23203SOL    HW178387  11.181   5.777  12.273 -0.1391 -1.8485 -1.1131
23203SOL    HW278388  11.164   5.850  12.141  0.2931 -0.4586 -0.4146
23204SOL     OW78389   5.107  10.300  11.167  0.2607 -0.6748 -0.2743
23204SOL    HW178390   5.129  10.250  11.245 -2.1527 -0.5308  0.5968
23204SOL    HW278391   5.098  10.390  11.198 -1.4473 -0.7313 -0.5086
23205SOL     OW78392   9.839   8.757  12.610 -0.0536 -0.2724 -0.1879
23205SOL    HW178393   9.827   8.678  12.663  1.1699 -0.8889 -0.7774
23205SOL    HW278394   9.854   8.827  12.674 -0.7064 -0.5964  0.3276
23206SOL     OW78395   9.779   5.749   6.205  0.0657  0.0983  0.0882
23206SOL    HW178396   9.818   5.675   6.160  0.6108 -0.0038  0.7106
23206SOL    HW278397   9.841   5.821   6.192 -0.6546  0.5670 -0.8575
23207SOL     OW78398   2.962   2.660  11.834  0.1171 -0.2035  0.1547
23207SOL    HW178399   2.875   2.646  11.872 -0.1754 -0.9143 -0.7330
23207SOL    HW278400   2.984   2.576  11.794  0.5481  0.4142 -0.9582
23208SOL     OW78401   1.452  11.658   2.740 -0.1072 -0.2743  0.2448
23208SOL    HW178402   1.479  11.622   2.825  0.2006 -1.6283 -0.4049
23208SOL    HW278403   1.367  11.699   2.758 -0.4830 -1.3326  1.0409
23209SOL     OW78404  10.675  12.143   5.389 -0.3402  0.7246 -0.1469
23209SOL    HW178405  10.588  12.128   5.352  0.0957 -0.6717 -0.6705
23209SOL    HW278406  10.729  12.168   5.315  0.5219 -2.0265 -0.5706
23210SOL     OW78407   6.465   9.630   8.350 -0.1677  0.5398  0.1140
23210SOL    HW178408   6.500   9.653   8.436  2.3698  1.0983 -0.9983
23210SOL    HW278409   6.372   9.611   8.367  0.1877  0.8535  2.9056
23211SOL     OW78410   1.329  12.052  11.701  0.4865  0.3270 -0.2022
23211SOL    HW178411   1.238  12.033  11.678  0.1115 -0.1366  1.5121
23211SOL    HW278412   1.378  11.976  11.668  0.2357  0.4610 -0.9094
23212SOL     OW78413   1.163   9.109  11.908 -0.2734  0.0139  0.1481
23212SOL    HW178414   1.174   9.017  11.931  0.8671  0.5898  2.0650
23212SOL    HW278415   1.251   9.146  11.910 -0.9186  1.6366  1.7199
23213SOL     OW78416   4.437   3.357   5.728 -0.7152  0.5296  0.1127
23213SOL    HW178417   4.359   3.312   5.760  0.5113  0.0794  2.7395
23213SOL    HW278418   4.404   3.437   5.688 -2.5519  0.1688  0.8098
23214SOL     OW78419   1.548  10.816  12.464 -0.0738  0.0173  0.2314
23214SOL    HW178420   1.477  10.794  12.403  1.8666  2.0748 -3.1091
23214SOL    HW278421   1.541  10.911  12.475  1.2953  0.0526  0.9873
23215SOL     OW78422  11.254   5.583   7.824 -0.1638  0.0993  0.3593
23215SOL    HW178423  11.228   5.575   7.916 -0.9234 -0.7513  0.0808
23215SOL    HW278424  11.253   5.493   7.791 -3.6586  0.6623 -1.4969
23216SOL     OW78425  10.315   5.369   5.524 -0.0231  0.0257  0.0697
23216SOL    HW178426  10.387   5.363   5.586  1.0708  1.1216 -1.0152
23216SOL    HW278427  10.291   5.279   5.505  2.4611 -0.5022 -1.0352
23217SOL     OW78428   0.027  11.290   8.272  0.0243 -0.2069 -0.3579
23217SOL    HW178429  -0.002  11.280   8.362  1.9103 -0.2259  0.2939
23217SOL    HW278430   0.032  11.200   8.238  0.5863 -0.3023 -0.0356
23218SOL     OW78431   5.035   6.858  11.058 -0.4154 -0.0878  0.1860
23218SOL    HW178432   5.099   6.927  11.079  0.2328 -0.1839 -1.3561
23218SOL    HW278433   5.057   6.787  11.118  0.3413  0.2261  0.2998
23219SOL     OW78434   3.455  10.091   3.439  0.1288 -0.0099 -0.5994
23219SOL    HW178435   3.363  10.109   3.460 -0.0545  0.0664 -1.4377
23219SOL    HW278436   3.461  10.105   3.345  1.0535  0.1941 -0.5165
23220SOL     OW78437   1.291   5.855   9.765 -0.3067  0.6407 -0.1912
23220SOL    HW178438   1.338   5.896   9.838 -0.4031  0.2375  0.1031
23220SOL    HW278439   1.263   5.770   9.800 -0.0858  0.3174 -0.8027
23221SOL     OW78440   3.246   5.105  11.416  0.0258  0.2633 -0.1192
23221SOL    HW178441   3.270   5.165  11.487 -3.5340  0.4143  1.1245
23221SOL    HW278442   3.292   5.024  11.437  0.9264  1.0293  1.0049
23222SOL     OW78443   5.370   8.430   5.750 -0.7023 -0.3644  0.5431
23222SOL    HW178444   5.415   8.500   5.797  0.5419 -1.4412  1.0024
23222SOL    HW278445   5.294   8.409   5.805 -0.7029  0.1451  0.7423
23223SOL     OW78446  11.256  11.655   5.355  0.7432  0.4282  0.1010
23223SOL    HW178447  11.293  11.716   5.291  0.1856  0.5542 -0.1060
23223SOL    HW278448  11.162  11.672   5.352  0.2281 -2.1810 -1.8467
23224SOL     OW78449   8.044  10.948   7.399 -0.2093 -0.1720 -0.0386
23224SOL    HW178450   8.001  10.934   7.315  0.0801  1.5156 -0.4904
23224SOL    HW278451   7.972  10.945   7.463 -0.8017  1.1084 -0.6241
23225SOL     OW78452   9.859   4.227   3.210  0.3571 -0.4561  0.3353
23225SOL    HW178453   9.809   4.156   3.170  2.1700 -2.3401  1.2208
23225SOL    HW278454   9.946   4.220   3.170  0.6574  1.1414  0.6371
23226SOL     OW78455   6.344   4.982   8.993  0.3638  0.0399 -0.6147
23226SOL    HW178456   6.300   4.980   9.078  1.6303  0.9314  0.0931
23226SOL    HW278457   6.416   4.920   9.002 -0.2849 -0.8817 -1.5261
23227SOL     OW78458   3.438  12.296   4.650  0.1824  0.2376  0.1818
23227SOL    HW178459   3.392  12.232   4.595 -1.2899  1.1729  0.2599
23227SOL    HW278460   3.469  12.245   4.724 -2.0635 -0.2469  0.8835
23228SOL     OW78461   7.276   2.610   3.549  0.1374 -0.4484  0.7109
23228SOL    HW178462   7.275   2.607   3.453  0.0264  2.4279  0.5534
23228SOL    HW278463   7.339   2.543   3.574  0.5186 -0.9500 -1.3899
23229SOL     OW78464   6.486   6.872   1.070 -0.4041 -0.1568 -0.0343
23229SOL    HW178465   6.396   6.856   1.095 -1.0580  0.6003 -1.7163
23229SOL    HW278466   6.536   6.864   1.151 -2.2581  1.6884  1.4032
23230SOL     OW78467   4.670   5.372   2.490 -0.0991  0.2481  0.2238
23230SOL    HW178468   4.611   5.378   2.415  0.3845 -0.9628 -0.2839
23230SOL    HW278469   4.757   5.365   2.451  0.2165  0.2334  0.9196
23231SOL     OW78470   3.974   9.917   2.663  0.7338  0.1436  0.1821
23231SOL    HW178471   4.014   9.882   2.742 -0.1291 -1.0239  0.1279
23231SOL    HW278472   3.909   9.980   2.694  0.9257  0.2537  0.3624
23232SOL     OW78473  11.685   5.255   1.527  0.0470 -0.0055 -0.2587
23232SOL    HW178474  11.607   5.213   1.564 -0.5266  1.9973  0.9916
23232SOL    HW278475  11.758   5.208   1.565 -0.5693  0.4992  1.6701
23233SOL     OW78476   6.149  11.148   7.011  0.1950  0.1994  0.6010
23233SOL    HW178477   6.113  11.062   7.032  0.6784 -0.1403  0.0711
23233SOL    HW278478   6.172  11.186   7.095  0.9420 -0.6191  0.7823
23234SOL     OW78479   5.992   1.372   2.700  0.4611 -0.0478  0.2660
23234SOL    HW178480   6.002   1.363   2.795  0.9118 -0.8449  0.1613
23234SOL    HW278481   6.007   1.283   2.667  0.5657  0.2741 -0.5699
23235SOL     OW78482   1.635   6.632  10.997  0.1845 -0.6250 -0.0096
23235SOL    HW178483   1.673   6.549  11.026 -0.7457 -1.0071  0.1380
23235SOL    HW278484   1.707   6.694  11.003  0.6757 -1.2433  0.6889
23236SOL     OW78485  12.520  10.203  12.056 -0.1315 -0.2665  0.0166
23236SOL    HW178486  12.545  10.172  12.143  1.6445 -2.8231 -1.2628
23236SOL    HW278487  12.602  10.232  12.017 -0.6632 -0.4496 -1.2765
23237SOL     OW78488   8.521  11.291   1.322  0.0960 -0.1050  0.2833
23237SOL    HW178489   8.598  11.239   1.345  0.4706 -0.0149 -0.7391
23237SOL    HW278490   8.548  11.382   1.335  0.1559 -0.0737 -0.0666
23238SOL     OW78491   8.179   8.219   0.953  0.2168  0.4088  0.4645
23238SOL    HW178492   8.247   8.161   0.987  0.2380  0.5393  0.6439
23238SOL    HW278493   8.098   8.168   0.960  0.1026  0.7004  1.4026
23239SOL     OW78494   5.745   8.248   2.676  0.4060 -0.1488 -0.3095
23239SOL    HW178495   5.747   8.222   2.768  0.0349 -0.3507 -0.3572
23239SOL    HW278496   5.652   8.255   2.655  0.4867  1.7033 -0.1641
23240SOL     OW78497   4.573   8.523   8.285 -0.0483  0.1057  0.0696
23240SOL    HW178498   4.542   8.462   8.218 -1.8052 -0.9197  1.7239
23240SOL    HW278499   4.516   8.599   8.275  1.4815  1.1587 -1.3173
23241SOL     OW78500   3.895  10.427   0.957  0.0629  0.4772 -0.5343
23241SOL    HW178501   3.877  10.511   0.915 -0.3720  2.1048  2.6294
23241SOL    HW278502   3.815  10.408   1.007  1.0432 -0.6007  0.6931
23242SOL     OW78503   8.796   1.769   4.809 -0.0051  0.5824 -0.0758
23242SOL    HW178504   8.720   1.791   4.863 -1.0060 -1.4842 -0.5227
23242SOL    HW278505   8.778   1.681   4.777  2.4144  0.1801 -0.5606
23243SOL     OW78506  10.065   5.592  10.054  0.1857  0.5422  0.4206
23243SOL    HW178507  10.027   5.515  10.013  0.9989 -0.1384  0.9269
23243SOL    HW278508   9.991   5.634  10.099 -0.2075 -0.0946  0.3758
23244SOL     OW78509   8.903   6.990   8.386  0.2338  0.1401  0.2384
23244SOL    HW178510   8.881   7.082   8.368  0.5210  0.2633  0.5155
23244SOL    HW278511   8.828   6.941   8.352  0.9063  0.3427 -1.6573
23245SOL     OW78512   9.049  10.390   0.749 -0.2505 -0.2297  0.4165
23245SOL    HW178513   9.064  10.326   0.679 -0.0158  0.2996 -0.0228
23245SOL    HW278514   9.081  10.473   0.713 -0.4552  0.1151  1.0205
23246SOL     OW78515   2.950  11.470   2.118  0.3005  0.5208 -0.3007
23246SOL    HW178516   2.893  11.468   2.196  0.0060 -0.9879 -0.5298
23246SOL    HW278517   3.034  11.439   2.149  0.2595  0.1817 -0.5284
23247SOL     OW78518  11.831   1.450  10.255  0.3589 -0.0267  0.3736
23247SOL    HW178519  11.767   1.406  10.198  0.7562 -0.8192  0.5183
23247SOL    HW278520  11.885   1.378  10.289  1.2632  0.6238  0.3357
23248SOL     OW78521   3.187  11.918  10.215 -0.7805  0.1014  0.3198
23248SOL    HW178522   3.149  11.931  10.129  0.6596 -1.6783 -0.6564
23248SOL    HW278523   3.203  11.824  10.220  0.2469  0.3245  2.0517
23249SOL     OW78524   8.268   0.676  12.036 -0.4697 -0.2240 -0.2956
23249SOL    HW178525   8.353   0.633  12.035 -0.2804  0.0528  1.5194
23249SOL    HW278526   8.224   0.643  11.958  0.5117 -1.9668 -0.1629
23250SOL     OW78527   4.324  10.815   3.702  0.3760  0.0254 -0.4275
23250SOL    HW178528   4.308  10.809   3.796 -2.2865 -1.2253 -0.8730
23250SOL    HW278529   4.399  10.874   3.694  2.1539 -1.6084  2.5421
23251SOL     OW78530  10.763   0.854   1.702 -0.3654  0.0506  0.4844
23251SOL    HW178531  10.816   0.781   1.671 -1.5480 -0.8128  0.4152
23251SOL    HW278532  10.787   0.864   1.795  0.2247 -0.0203  0.3434
23252SOL     OW78533   5.271   5.361  12.085 -0.2901 -0.4629 -0.6074
23252SOL    HW178534   5.359   5.370  12.120  0.2810 -1.1808 -1.8028
23252SOL    HW278535   5.235   5.283  12.130 -0.5733  0.1921  0.3416
23253SOL     OW78536   1.826   1.686  10.732  0.1527 -0.2006  0.2129
23253SOL    HW178537   1.891   1.740  10.687  0.2597  0.4712  1.1352
23253SOL    HW278538   1.844   1.597  10.702  2.1716 -0.1729  1.1637
23254SOL     OW78539   6.481   7.405   9.723  0.0383 -0.3358 -0.9342
23254SOL    HW178540   6.543   7.382   9.654  0.2617  0.3496 -0.9689
23254SOL    HW278541   6.455   7.495   9.703 -0.0304 -0.1941 -0.2246
23255SOL     OW78542   5.011  10.282   1.111  0.0912 -0.0331  0.4623
23255SOL    HW178543   4.988  10.201   1.067 -1.0887  0.0815  0.8392
23255SOL    HW278544   5.012  10.260   1.204 -2.0707  0.7680  0.7242
23256SOL     OW78545   7.802   6.707   0.274 -0.4779 -0.1852  0.4722
23256SOL    HW178546   7.881   6.678   0.227 -2.0023 -0.4393 -2.1443
23256SOL    HW278547   7.769   6.627   0.316 -0.8631 -0.7425 -0.8415
23257SOL     OW78548   3.792   8.627   1.832 -0.7986 -0.2726 -0.0945
23257SOL    HW178549   3.880   8.612   1.867  0.1446  0.2144 -2.0900
23257SOL    HW278550   3.793   8.581   1.747 -0.7822  3.4873 -2.3638
23258SOL     OW78551   3.700   9.082  12.008  0.3928 -0.3020 -0.6102
23258SOL    HW178552   3.714   9.066  11.915  1.9559 -1.5889 -0.1826
23258SOL    HW278553   3.761   9.152  12.030 -1.4937  1.5492 -0.9614
23259SOL     OW78554   9.971   6.458   6.377  0.0822 -0.2818 -0.4645
23259SOL    HW178555   9.924   6.378   6.357 -1.5867  0.8244 -1.1845
23259SOL    HW278556  10.028   6.471   6.301  1.3593 -1.4347  0.2493
23260SOL     OW78557  11.695   1.756  11.759 -0.3753 -0.3689  0.6057
23260SOL    HW178558  11.761   1.781  11.824  0.1076 -1.3947  0.5303
23260SOL    HW278559  11.700   1.661  11.755 -0.8708 -0.3642 -0.4450
23261SOL     OW78560   6.615   3.690   5.400 -0.3728 -0.6674  0.0147
23261SOL    HW178561   6.702   3.689   5.361 -0.1298 -2.8787  0.4458
23261SOL    HW278562   6.570   3.615   5.360 -2.4005  0.8674 -0.7814
23262SOL     OW78563   6.220   6.762  11.721  0.3132 -0.1205 -0.1764
23262SOL    HW178564   6.206   6.848  11.681  1.1426 -0.4739 -1.2737
23262SOL    HW278565   6.137   6.717  11.709  0.0168  0.3660  0.0025
23263SOL     OW78566   8.479  10.050   0.506 -0.9119 -0.0431  0.2391
23263SOL    HW178567   8.446  10.049   0.596  1.2761 -2.7611  1.1389
23263SOL    HW278568   8.557   9.996   0.509  0.8003  2.0002 -2.7959
23264SOL     OW78569  10.580   2.828   9.086  0.1527 -0.0770  0.4341
23264SOL    HW178570  10.539   2.856   9.005  1.6865 -0.2460 -0.4517
23264SOL    HW278571  10.616   2.742   9.066  1.6380  0.4092  0.8809
23265SOL     OW78572   7.424   6.031   8.890  0.6774  0.2946 -0.1475
23265SOL    HW178573   7.450   6.037   8.799  0.7605 -0.9433 -0.2179
23265SOL    HW278574   7.504   6.006   8.936  0.8445  1.7280  0.4083
23266SOL     OW78575  10.329   6.144   6.586  0.3214  0.0028  0.0421
23266SOL    HW178576  10.419   6.164   6.561  0.0050  1.2672 -0.1396
23266SOL    HW278577  10.278   6.218   6.554 -1.0788 -1.5865 -1.5611
23267SOL     OW78578  10.589   6.300   9.772 -0.4881  0.0307  0.1895
23267SOL    HW178579  10.564   6.309   9.680 -0.1578  0.9376  0.1815
23267SOL    HW278580  10.673   6.253   9.770 -0.2938  0.3841  0.0062
23268SOL     OW78581  10.678   1.919   8.181 -0.2191  0.0839  0.5670
23268SOL    HW178582  10.744   1.960   8.237  0.3762 -3.3992  2.7480
23268SOL    HW278583  10.729   1.866   8.119 -0.9019 -1.2518  1.1143
23269SOL     OW78584   8.298   7.306  12.110  1.0118 -0.2921  0.1376
23269SOL    HW178585   8.254   7.351  12.182  2.5356  1.3984  0.0779
23269SOL    HW278586   8.230   7.297  12.043  0.4755  1.3928  0.4006
23270SOL     OW78587   3.195   3.621  10.483  0.6870  0.7115  0.1278
23270SOL    HW178588   3.230   3.710  10.486  1.2381  0.5546 -1.0894
23270SOL    HW278589   3.204   3.588  10.572  1.1977  1.6067  0.4145
23271SOL     OW78590  10.686  10.812   6.006  0.3187 -0.3556  0.4667
23271SOL    HW178591  10.704  10.725   6.044  1.0426  0.1445  1.3047
23271SOL    HW278592  10.629  10.855   6.070 -0.1792 -0.2640 -0.0293
23272SOL     OW78593   1.702   5.585   8.895 -0.5152 -0.2901 -0.1000
23272SOL    HW178594   1.760   5.621   8.962  0.1418  0.8828 -1.2557
23272SOL    HW278595   1.740   5.500   8.874 -0.4610 -0.4640  0.6678
23273SOL     OW78596   4.806   7.694   6.524 -0.3064 -0.0617  0.0385
23273SOL    HW178597   4.839   7.729   6.441 -0.7681 -1.3076 -0.7062
23273SOL    HW278598   4.816   7.599   6.515  1.0211 -0.1616  2.0170
23274SOL     OW78599   7.210  12.607   4.540 -0.1560 -0.2785 -0.0090
23274SOL    HW178600   7.184  12.698   4.525  0.1423  0.0533  1.3433
23274SOL    HW278601   7.184  12.561   4.460  1.1816  1.2871 -1.4123
23275SOL     OW78602   8.731   3.896  11.222  0.5126 -0.1277  0.3806
23275SOL    HW178603   8.662   3.843  11.182  1.7478 -0.5534 -1.3168
23275SOL    HW278604   8.729   3.873  11.315 -0.4960 -1.4125  0.0708
23276SOL     OW78605   2.476   4.053   2.379 -0.3584 -0.0230 -0.2799
23276SOL    HW178606   2.549   4.090   2.427 -1.0961  1.6109 -0.3616
23276SOL    HW278607   2.415   4.023   2.446  0.1145 -0.8678 -0.2153
23277SOL     OW78608   1.622  10.452   9.852  0.4771  0.0560 -0.5803
23277SOL    HW178609   1.715  10.431   9.860  0.4508  0.2069  0.2471
23277SOL    HW278610   1.613  10.539   9.892  0.0494  0.2284 -1.0376
23278SOL     OW78611   8.190   0.816   1.133 -0.4747  0.3007 -0.0292
23278SOL    HW178612   8.265   0.855   1.177 -0.0276  1.0072 -1.3575
23278SOL    HW278613   8.121   0.882   1.139 -1.2865 -0.6526  1.8655
23279SOL     OW78614   7.621   5.766   0.765 -0.3591  0.5995  0.8467
23279SOL    HW178615   7.702   5.743   0.718  0.6244  1.0865  2.2537
23279SOL    HW278616   7.585   5.682   0.793 -0.5187  0.3603 -0.0359
23280SOL     OW78617   8.220   4.145   8.991 -0.7207 -0.3450 -0.2953
23280SOL    HW178618   8.178   4.125   8.908 -0.8384  1.4105 -0.6977
23280SOL    HW278619   8.154   4.194   9.040 -0.3489 -0.6144  0.5041
23281SOL     OW78620   2.883  11.989   0.720 -0.0150 -0.3855 -0.1329
23281SOL    HW178621   2.807  11.941   0.685 -0.8830  0.4085  0.6139
23281SOL    HW278622   2.893  12.063   0.661  0.3124 -0.5888 -0.3388
23282SOL     OW78623   2.563   7.316   2.803  0.1083 -0.5388  0.2971
23282SOL    HW178624   2.469   7.303   2.816  0.0030  1.0151  1.4387
23282SOL    HW278625   2.581   7.276   2.718 -1.8724  0.3733 -0.6292
23283SOL     OW78626  11.317   7.106   6.407  0.0465 -0.0917  0.5112
23283SOL    HW178627  11.306   7.111   6.312 -1.2726  3.2107  0.6872
23283SOL    HW278628  11.227   7.108   6.441  0.5419  1.4498  1.8184
23284SOL     OW78629   6.867   7.872   7.292 -0.0818 -0.1317 -0.0815
23284SOL    HW178630   6.865   7.904   7.202  0.6883  0.1208 -0.0147
23284SOL    HW278631   6.815   7.936   7.341  0.6294  0.4878 -0.1197
23285SOL     OW78632   7.883   3.421   5.147  1.0147 -0.0150 -0.6642
23285SOL    HW178633   7.832   3.494   5.112 -2.2478 -1.8270 -0.0718
23285SOL    HW278634   7.904   3.446   5.237  2.0305  1.1349 -1.2010
23286SOL     OW78635  10.797   1.794  12.389  0.3256 -0.1779 -0.4841
23286SOL    HW178636  10.752   1.713  12.365 -1.9837  1.1550 -1.0303
23286SOL    HW278637  10.836   1.825  12.307  0.3741 -0.2654 -0.4937
23287SOL     OW78638   3.031   7.369   5.484 -0.0147 -0.1938 -0.0783
23287SOL    HW178639   3.018   7.297   5.545 -0.5617  0.0420  0.0896
23287SOL    HW278640   3.093   7.335   5.420  1.0436 -0.2469  0.9431
23288SOL     OW78641  12.547   3.830   0.764  0.0256 -0.1590 -0.2681
23288SOL    HW178642  12.607   3.857   0.834 -1.4258 -1.7358  1.7295
23288SOL    HW278643  12.592   3.758   0.721  1.5900  1.7850 -2.0815
23289SOL     OW78644   9.456  12.140   4.405  0.5308  0.1858 -0.3334
23289SOL    HW178645   9.486  12.186   4.327 -1.9416 -1.2307 -2.2348
23289SOL    HW278646   9.368  12.174   4.421 -0.5626 -2.2817 -0.6008
23290SOL     OW78647   9.065   2.679   2.398 -0.3703  0.2639 -0.2792
23290SOL    HW178648   9.065   2.763   2.352 -2.4482  0.4817  0.0002
23290SOL    HW278649   9.035   2.700   2.486  0.3178 -0.6092  0.1802
23291SOL     OW78650   7.894   2.680   9.372  0.3712  0.5632 -0.4661
23291SOL    HW178651   7.931   2.633   9.297 -1.2945  0.6824 -1.3976
23291SOL    HW278652   7.806   2.645   9.382  1.2880 -1.2784  3.0647
23292SOL     OW78653   2.283   7.761   8.914  0.2977 -0.5439 -0.0664
23292SOL    HW178654   2.313   7.702   8.845  0.9581  0.1225 -0.3685
23292SOL    HW278655   2.296   7.713   8.995  1.6770 -0.4911 -0.2394
23293SOL     OW78656   7.345   5.559   4.070  0.1583  0.1757 -0.2091
23293SOL    HW178657   7.360   5.578   3.977  0.3459 -1.6459 -0.5881
23293SOL    HW278658   7.258   5.596   4.088 -0.3316 -0.3477 -1.3944
23294SOL     OW78659   8.387   1.991   7.629  0.0960 -0.3954  0.4018
23294SOL    HW178660   8.444   2.014   7.703 -1.6941 -0.8006  1.9841
23294SOL    HW278661   8.298   1.996   7.665 -0.9548  0.9883 -2.1768
23295SOL     OW78662  10.222   4.854  11.785 -0.8227  0.5611  0.1839
23295SOL    HW178663  10.298   4.911  11.775 -0.6098  0.2763  0.1843
23295SOL    HW278664  10.149   4.914  11.801 -0.9664  0.9685 -1.8314
23296SOL     OW78665   7.398   4.837  10.568  0.1281  0.6291  0.1592
23296SOL    HW178666   7.395   4.861  10.475 -2.0533  0.1142  0.0604
23296SOL    HW278667   7.434   4.749  10.569 -0.2111  0.4834 -0.2372
23297SOL     OW78668   6.474   4.706   0.787  0.3740 -0.2547  0.0546
23297SOL    HW178669   6.457   4.776   0.851 -0.1176 -1.0098  0.7582
23297SOL    HW278670   6.432   4.629   0.824 -0.6119 -0.5370 -1.5743
23298SOL     OW78671   1.424  10.905   2.722 -0.0271  0.4505 -0.0720
23298SOL    HW178672   1.420  10.893   2.627  0.8913  0.2903 -0.1007
23298SOL    HW278673   1.413  10.999   2.735 -2.6410  0.2349 -0.1499
23299SOL     OW78674  11.292   7.972  11.444 -0.8926  0.2200  0.2836
23299SOL    HW178675  11.237   8.050  11.432  0.7003  1.4480  0.6064
23299SOL    HW278676  11.335   7.960  11.359  0.4554  1.0090  0.8141
23300SOL     OW78677   4.807  10.844   8.308 -0.1743 -0.2277 -0.1707
23300SOL    HW178678   4.851  10.778   8.255 -0.9411  0.2796 -1.4874
23300SOL    HW278679   4.717  10.846   8.274 -1.0523 -0.7072  1.9398
23301SOL     OW78680   1.211  10.920   1.337  0.1747  0.1667  0.3742
23301SOL    HW178681   1.292  10.956   1.374 -0.1530 -0.7423  2.1324
23301SOL    HW278682   1.166  10.881   1.413 -1.5635  0.0085 -0.6827
23302SOL     OW78683   3.250  12.043   7.647  0.0794  0.5042 -0.4151
23302SOL    HW178684   3.242  11.951   7.625 -0.9073  0.4677  0.0251
23302SOL    HW278685   3.210  12.051   7.733  0.8219  1.2206 -0.1197
23303SOL     OW78686   7.949   7.651  10.065  0.0281  0.1241 -0.3454
23303SOL    HW178687   7.967   7.734  10.019  1.3690  0.3809  0.5825
23303SOL    HW278688   8.026   7.597  10.047  0.2319 -0.0453  0.9433
23304SOL     OW78689   0.226   6.968   2.354  0.1319 -0.8277  0.7452
23304SOL    HW178690   0.179   6.982   2.272  1.5381 -0.6854 -0.0737
23304SOL    HW278691   0.275   7.048   2.368  0.5424 -1.1670  1.2928
23305SOL     OW78692  11.122   9.417  11.467 -0.0081  0.2039 -0.3663
23305SOL    HW178693  11.057   9.439  11.400 -1.4858  0.2239  0.9974
23305SOL    HW278694  11.137   9.323  11.456  2.1717  0.6949 -2.6740
23306SOL     OW78695   1.945   5.775   0.272 -0.0784  0.0662  0.3540
23306SOL    HW178696   1.871   5.832   0.253 -0.1986 -0.3040 -0.3369
23306SOL    HW278697   1.971   5.798   0.361 -0.2056  1.0962  0.1363
23307SOL     OW78698  12.067   2.440   7.554  0.2555 -0.1837  0.0630
23307SOL    HW178699  12.095   2.479   7.637 -0.6573 -0.1511  0.3613
23307SOL    HW278700  11.972   2.435   7.560  0.3136 -2.6427  0.1285
23308SOL     OW78701   5.133   6.687   5.180 -0.0017  0.0657  0.2230
23308SOL    HW178702   5.077   6.763   5.195 -0.2354  0.4632 -2.2662
23308SOL    HW278703   5.218   6.712   5.216 -0.1896  1.3799 -0.2045
23309SOL     OW78704   2.338   3.448   0.626 -0.5654 -0.2142  0.2801
23309SOL    HW178705   2.425   3.485   0.607  0.8734 -3.5082 -0.1950
23309SOL    HW278706   2.331   3.450   0.721  1.7062 -3.0612  0.6358
23310SOL     OW78707   9.313   2.944   3.396 -0.2502  0.4582 -0.0632
23310SOL    HW178708   9.404   2.970   3.379 -0.3019 -1.0469 -3.5086
23310SOL    HW278709   9.261   3.016   3.361 -0.3207 -0.7093 -2.5667
23311SOL     OW78710   6.030   5.644   7.538 -0.7000  0.4094  0.1513
23311SOL    HW178711   6.120   5.620   7.559 -1.1051 -1.2472  0.1668
23311SOL    HW278712   5.977   5.573   7.576 -1.8979  0.6244 -1.0403
23312SOL     OW78713   8.855   0.524   5.899 -0.3040  0.0873  0.2492
23312SOL    HW178714   8.917   0.582   5.855 -0.3155 -0.3795 -0.4034
23312SOL    HW278715   8.890   0.512   5.987 -0.5739  1.4860  0.5615
23313SOL     OW78716   9.101  12.095   4.406 -0.3018  0.2013  0.5692
23313SOL    HW178717   9.059  12.031   4.349  1.6494  0.6681 -1.5474
23313SOL    HW278718   9.167  12.044   4.454  0.6178  0.4083 -0.4321
23314SOL     OW78719   2.365   1.028   1.643 -0.5811 -0.0788 -0.2901
23314SOL    HW178720   2.301   0.989   1.703 -1.4131  0.2606 -0.9306
23314SOL    HW278721   2.342   1.121   1.641 -0.1772  0.0150 -0.6663
23315SOL     OW78722   0.587   1.618   2.945  0.0536  0.3956 -0.0709
23315SOL    HW178723   0.527   1.692   2.945 -1.6453 -0.9182  0.3812
23315SOL    HW278724   0.537   1.546   2.906  1.2571 -0.8048  0.5176
23316SOL     OW78725   1.587   7.276   3.510  0.3771  0.0718  0.1885
23316SOL    HW178726   1.609   7.243   3.597 -0.4881 -1.6391 -0.1808
23316SOL    HW278727   1.538   7.357   3.526 -0.2706 -0.5271  1.3337
23317SOL     OW78728   7.339   6.582   3.260 -0.7105  0.0574 -0.0277
23317SOL    HW178729   7.323   6.525   3.185 -1.4584  1.0839 -0.6891
23317SOL    HW278730   7.252   6.612   3.286 -0.3951  0.3132  0.7737
23318SOL     OW78731  11.857   9.042   9.277  0.3107 -0.3730  0.3224
23318SOL    HW178732  11.916   9.034   9.352  1.3600 -1.0786 -0.5430
23318SOL    HW278733  11.848   9.137   9.264  0.1325 -0.2446  1.3163
23319SOL     OW78734   2.169   7.743   4.697  0.4704  0.2354 -0.3946
23319SOL    HW178735   2.242   7.683   4.680  0.9907  0.1582  1.7493
23319SOL    HW278736   2.107   7.726   4.627  1.3793 -1.5793 -0.8303
23320SOL     OW78737   8.261   0.081   9.539  0.1216 -0.8492  0.5184
23320SOL    HW178738   8.230   0.020   9.472  0.1266  0.5207 -0.7789
23320SOL    HW278739   8.288   0.025   9.612 -0.7866 -2.3288 -0.2345
23321SOL     OW78740   1.408   5.780   3.861  0.0239  0.1352  0.6824
23321SOL    HW178741   1.319   5.811   3.878  0.3936  0.7266  1.6267
23321SOL    HW278742   1.399   5.684   3.856 -0.5220  0.1188  1.7276
23322SOL     OW78743  11.622   4.525   2.999 -0.1584  0.1017  0.0760
23322SOL    HW178744  11.532   4.533   2.966 -0.2270  1.2794  0.5056
23322SOL    HW278745  11.629   4.433   3.026 -1.6231  0.2612  1.1275
23323SOL     OW78746   9.953   4.696   9.748  0.5627  0.0891 -0.1397
23323SOL    HW178747   9.901   4.767   9.786 -0.0304 -0.1278 -0.5498
23323SOL    HW278748  10.000   4.738   9.675  1.8125  0.5406  0.8676
23324SOL     OW78749   6.705   5.610   6.047  0.8362  0.5271  0.2308
23324SOL    HW178750   6.618   5.610   6.008 -0.1687  0.3028  2.3510
23324SOL    HW278751   6.762   5.576   5.978 -0.4354  2.1994 -1.7771
23325SOL     OW78752   9.097   3.806   7.654 -0.3106  0.3749  0.4135
23325SOL    HW178753   9.044   3.869   7.605 -0.4111 -0.2855 -0.3483
23325SOL    HW278754   9.048   3.724   7.648  0.2358  0.0260  0.6731
23326SOL     OW78755   6.018  10.526   0.399  0.3063  0.0800 -0.0341
23326SOL    HW178756   6.074  10.569   0.334  1.3008 -2.0136 -0.6290
23326SOL    HW278757   5.937  10.506   0.351  0.7973 -0.8999 -0.4672
23327SOL     OW78758   2.884   2.995   1.297  0.0157  0.1221 -0.1863
23327SOL    HW178759   2.857   3.046   1.220  0.3627  0.6013  0.0081
23327SOL    HW278760   2.964   2.951   1.269  1.4750  2.1013  0.5992
23328SOL     OW78761  12.227   9.498  10.318  0.0075 -0.0244  0.0236
23328SOL    HW178762  12.140   9.457  10.318  0.9273 -2.1160 -0.4794
23328SOL    HW278763  12.249   9.508  10.226  0.0466  1.1340  0.1442
23329SOL     OW78764  11.619  10.894  10.241  0.5554  0.1722 -0.1896
23329SOL    HW178765  11.609  10.934  10.328  0.8248 -1.3749  0.5818
23329SOL    HW278766  11.536  10.912  10.197  0.3096  0.7438  0.4883
23330SOL     OW78767  12.468   8.973   6.356 -0.0668 -0.1252  0.3297
23330SOL    HW178768  12.438   9.012   6.274  3.6425  0.6488 -0.8600
23330SOL    HW278769  12.520   9.041   6.398 -2.0741 -0.4126  3.5974
23331SOL     OW78770  10.498   6.948   0.316  0.0135  0.1846  0.4310
23331SOL    HW178771  10.480   6.916   0.228  1.0611 -0.6761  0.5193
23331SOL    HW278772  10.576   7.002   0.306 -1.4588  2.4450  0.3632
23332SOL     OW78773   7.721   2.928   9.357  0.4949 -0.1908 -0.4612
23332SOL    HW178774   7.722   2.993   9.427 -0.7621 -0.2828 -0.3225
23332SOL    HW278775   7.796   2.872   9.373  0.9078  0.5206  0.1086
23333SOL     OW78776   6.098   8.107  11.186 -0.1090 -0.0315  0.0516
23333SOL    HW178777   6.118   8.053  11.110 -1.6870  0.1250 -0.5110
23333SOL    HW278778   6.099   8.045  11.260 -0.2004 -0.5025 -0.3338
23334SOL     OW78779  11.456   3.259  10.390  0.1922 -0.2784  0.1162
23334SOL    HW178780  11.455   3.177  10.439  0.5246 -0.8833 -0.8452
23334SOL    HW278781  11.388   3.312  10.431 -1.1094 -1.6225 -0.1770
23335SOL     OW78782   2.840  11.790   9.361 -0.2213 -0.0824 -0.1312
23335SOL    HW178783   2.854  11.753   9.448  0.0829 -2.3600 -1.0688
23335SOL    HW278784   2.873  11.880   9.367 -1.6948  0.3809  2.5098
23336SOL     OW78785   9.125   5.644   1.898  0.3430  0.2553 -0.1096
23336SOL    HW178786   9.178   5.696   1.958  0.2840  1.8463 -1.3693
23336SOL    HW278787   9.072   5.709   1.850 -0.6708 -1.0688 -0.8508
23337SOL     OW78788   5.338  11.253  10.948  0.1618 -0.4725  0.2377
23337SOL    HW178789   5.269  11.234  10.885 -0.9305  1.2408  0.8470
23337SOL    HW278790   5.373  11.338  10.920  1.0169 -0.6245  0.7989
23338SOL     OW78791  11.683  12.092   5.551 -0.4489  0.1529  0.4817
23338SOL    HW178792  11.651  12.074   5.462 -0.0653 -0.1650  0.4059
23338SOL    HW278793  11.690  12.007   5.592  0.1400  0.2265  0.5502
23339SOL     OW78794   7.585  11.193  10.042  0.0003  0.1452 -0.1562
23339SOL    HW178795   7.652  11.125  10.051  0.4135  0.7397  1.7722
23339SOL    HW278796   7.634  11.272  10.019 -0.0066  0.5351  1.0622
23340SOL     OW78797   9.743  10.362   2.346  0.3200 -0.6391 -0.0430
23340SOL    HW178798   9.746  10.292   2.281 -0.9292  0.2736 -1.1248
23340SOL    HW278799   9.782  10.437   2.302  0.7758 -0.3793  0.7797
23341SOL     OW78800   0.375   4.851   4.656 -0.2452  0.5008 -0.0131
23341SOL    HW178801   0.393   4.843   4.749 -0.0548 -0.1938 -0.1071
23341SOL    HW278802   0.453   4.891   4.619 -0.0198  0.0903  0.0147
23342SOL     OW78803  11.581   5.079  10.655 -0.0671 -0.3021  0.2392
23342SOL    HW178804  11.633   5.114  10.583 -1.5807  0.2039 -0.6517
23342SOL    HW278805  11.582   4.984  10.642  0.9716 -0.3282  0.4852
23343SOL     OW78806   3.560   2.610   1.935  0.3666  0.1295 -0.4855
23343SOL    HW178807   3.464   2.605   1.930  0.4207 -0.7597 -0.8504
23343SOL    HW278808   3.580   2.702   1.914 -0.3811  0.2314 -0.8185
23344SOL     OW78809   4.072  10.535   7.194 -0.7473  0.1886  0.3783
23344SOL    HW178810   4.097  10.573   7.278 -1.0828 -1.2265  1.1508
23344SOL    HW278811   3.977  10.532   7.196 -0.8019  0.8605 -0.4076
23345SOL     OW78812   1.086   6.841   3.424 -0.2274  0.4930 -0.2445
23345SOL    HW178813   1.045   6.779   3.363 -1.6050 -1.3503  2.3328
23345SOL    HW278814   1.155   6.791   3.467 -0.3085  1.2017  0.7617
23346SOL     OW78815  10.713   0.471   6.517  0.0733 -0.0062  0.8311
23346SOL    HW178816  10.742   0.398   6.570  0.2135 -1.8924 -1.6543
23346SOL    HW278817  10.794   0.515   6.491 -0.0434  1.6659  2.9957
23347SOL     OW78818  11.350   3.263   3.578 -0.3437  0.1734 -0.4031
23347SOL    HW178819  11.266   3.305   3.598  0.2016  1.2784 -0.3195
23347SOL    HW278820  11.327   3.181   3.535 -1.4862 -0.3128  1.0870
23348SOL     OW78821  10.868   3.630   5.134  0.1990  0.1742  0.3543
23348SOL    HW178822  10.943   3.578   5.162  0.7324  0.5638 -0.3050
23348SOL    HW278823  10.862   3.615   5.040 -1.1051 -0.5351  0.5204
23349SOL     OW78824   0.012   1.808   5.631 -0.0468 -0.0071  0.0497
23349SOL    HW178825   0.104   1.832   5.621  0.2399 -0.6904  0.8995
23349SOL    HW278826   0.014   1.723   5.675 -1.0989  1.1434  2.5207
23350SOL     OW78827  10.817   4.602   9.179  0.1880  0.1320 -0.0750
23350SOL    HW178828  10.725   4.629   9.183  0.1083 -0.0627 -0.5643
23350SOL    HW278829  10.824   4.531   9.243 -0.3574 -0.8860 -1.1321
23351SOL     OW78830  10.935   5.749   6.685  0.4868 -0.0717  0.2994
23351SOL    HW178831  10.864   5.813   6.692 -0.2131 -0.7072 -0.7758
23351SOL    HW278832  10.976   5.750   6.771  0.7905  2.1495  0.1958
23352SOL     OW78833   6.449   8.619   2.107  0.5234 -0.2040  0.1606
23352SOL    HW178834   6.492   8.556   2.164  0.2716  0.5027  1.1713
23352SOL    HW278835   6.355   8.604   2.121  0.4304 -1.1932 -1.4118
23353SOL     OW78836   8.965  10.359   3.178 -0.1513 -0.0663  0.1020
23353SOL    HW178837   8.963  10.311   3.096  1.2742  0.9991 -0.5995
23353SOL    HW278838   9.050  10.402   3.179 -0.2986  0.2795  1.9582
23354SOL     OW78839   1.596   4.458   4.446  0.4177  0.3398  0.1557
23354SOL    HW178840   1.651   4.392   4.405  1.7195  1.0632  0.6721
23354SOL    HW278841   1.591   4.529   4.382  1.6150  1.0355  0.7801
23355SOL     OW78842   4.929   8.703   2.655 -0.1307 -0.0129 -0.7181
23355SOL    HW178843   4.857   8.654   2.616 -0.1900  1.1613 -2.2269
23355SOL    HW278844   4.892   8.742   2.734 -0.9290 -0.0508 -1.0656
23356SOL     OW78845   2.708   0.385   9.674 -0.2092 -0.2764  0.4493
23356SOL    HW178846   2.622   0.345   9.658  0.3276 -1.1704 -0.2951
23356SOL    HW278847   2.745   0.335   9.746  0.0320 -0.4465  0.2092
23357SOL     OW78848   9.030   7.932   1.177  1.0052 -0.2274 -0.2856
23357SOL    HW178849   8.997   7.978   1.254  2.4408  0.8896 -0.3025
23357SOL    HW278850   8.971   7.960   1.106  1.0674  0.5855 -0.0319
23358SOL     OW78851   6.968   7.165   0.964 -0.1960  0.3889 -0.1955
23358SOL    HW178852   6.892   7.152   1.020 -0.3786  1.0778 -0.2731
23358SOL    HW278853   7.042   7.175   1.024  0.1136 -1.7988 -0.1378
23359SOL     OW78854   8.176   4.017   8.071 -0.1454  0.1072 -0.2489
23359SOL    HW178855   8.096   3.999   8.121 -0.0713 -0.2396 -0.2520
23359SOL    HW278856   8.148   4.012   7.979 -0.5051  1.7569 -0.2599
23360SOL     OW78857  11.148   2.086  12.374 -0.0732  0.1878  0.3943
23360SOL    HW178858  11.086   2.126  12.312  1.1389  1.0625 -0.3100
23360SOL    HW278859  11.228   2.075  12.323  0.8733  0.6629  1.7312
23361SOL     OW78860   8.900  10.086   0.330  0.0990  0.0488  0.0634
23361SOL    HW178861   8.925  10.148   0.398 -0.3027  0.0924  0.1704
23361SOL    HW278862   8.983  10.059   0.291  0.3740 -0.4121  0.9426
23362SOL     OW78863   5.607  11.018   2.622 -0.2551 -0.5134  0.2632
23362SOL    HW178864   5.591  11.030   2.716 -0.6871 -0.4342  0.1831
23362SOL    HW278865   5.610  11.107   2.587 -2.3464 -0.5524 -0.1534
23363SOL     OW78866   7.948   8.177  10.289 -0.3708  0.3144 -0.7878
23363SOL    HW178867   8.018   8.137  10.237  0.0735 -0.7056  0.5329
23363SOL    HW278868   7.957   8.138  10.376 -0.1936  2.9500  0.4981
23364SOL     OW78869   4.683   0.505   8.845 -0.0972 -0.0433  0.1782
23364SOL    HW178870   4.770   0.543   8.850  0.0998 -0.2797 -1.0376
23364SOL    HW278871   4.636   0.539   8.921  0.5343  1.4116 -0.0573
23365SOL     OW78872   3.939   8.296  12.574 -0.0506 -0.0893  0.3073
23365SOL    HW178873   3.977   8.356  12.510  1.3449 -0.0135  1.1684
23365SOL    HW278874   3.877   8.243  12.524 -0.1806  1.0346 -0.7710
23366SOL     OW78875   8.951   0.350   7.486  0.7527  0.9279 -0.0897
23366SOL    HW178876   8.882   0.382   7.545  0.0772 -0.4679 -0.0938
23366SOL    HW278877   8.916   0.366   7.398 -0.0518 -0.7028 -0.0988
23367SOL     OW78878   8.417  11.761   2.972  0.2045  0.5114  0.4399
23367SOL    HW178879   8.395  11.716   3.054 -0.3024  0.4974  0.2948
23367SOL    HW278880   8.360  11.722   2.906  1.1126  0.0130 -0.0738
23368SOL     OW78881   3.417   1.338   2.484 -0.4388  0.0941  0.5479
23368SOL    HW178882   3.399   1.330   2.578 -2.4994  1.9074  0.3949
23368SOL    HW278883   3.365   1.414   2.456  0.5572 -0.0505 -1.9651
23369SOL     OW78884  12.443   1.258   7.734 -0.4992  0.3638  0.3124
23369SOL    HW178885  12.494   1.338   7.749  0.3276 -0.0865  0.0115
23369SOL    HW278886  12.482   1.193   7.793  0.1942 -0.3564 -0.8949
23370SOL     OW78887   2.344   5.983  11.299  0.6071 -0.2347 -0.1175
23370SOL    HW178888   2.293   5.902  11.303 -0.7045  0.3204 -3.0905
23370SOL    HW278889   2.357   5.998  11.206  2.0289  2.2738  0.4076
23371SOL     OW78890   8.233   5.426   1.678  0.4224  0.4153  0.2390
23371SOL    HW178891   8.286   5.419   1.598  2.3887 -0.0982  1.5117
23371SOL    HW278892   8.190   5.341   1.686 -1.7264  1.2420 -1.4663
23372SOL     OW78893   8.833  12.112   8.620 -0.3350  0.3590  0.1565
23372SOL    HW178894   8.757  12.083   8.569  0.4021 -0.9495 -0.2503
23372SOL    HW278895   8.798  12.136   8.705 -1.1421 -0.8535  0.1866
23373SOL     OW78896   5.350   6.707   2.560 -0.3148 -0.2239 -0.0273
23373SOL    HW178897   5.319   6.632   2.509 -0.5483 -0.6111  0.6726
23373SOL    HW278898   5.270   6.744   2.599 -0.5252  1.7515 -2.1082
23374SOL     OW78899   4.716  10.526  11.996 -0.2144  0.1922 -0.9870
23374SOL    HW178900   4.621  10.535  11.983 -0.5821 -1.1653  0.4341
23374SOL    HW278901   4.745  10.614  12.020 -1.3592  0.3533 -0.0895
23375SOL     OW78902   5.500   0.349  11.823  0.6097  0.6323 -0.3126
23375SOL    HW178903   5.454   0.413  11.878  0.1375  1.7104 -1.8942
23375SOL    HW278904   5.435   0.322  11.759  0.5904 -1.9919  0.6804
23376SOL     OW78905   4.651  11.208  10.930  0.8286  0.2619 -0.0445
23376SOL    HW178906   4.732  11.256  10.948 -0.5001  2.9256 -0.6794
23376SOL    HW278907   4.604  11.209  11.013  0.5496  0.5634 -0.2057
23377SOL     OW78908   5.244   6.253   7.479  0.0234  0.0942 -0.1419
23377SOL    HW178909   5.288   6.322   7.429 -0.1781  0.2423 -0.1173
23377SOL    HW278910   5.275   6.265   7.569 -0.1117  0.2394 -0.1124
23378SOL     OW78911   4.164   0.417   4.143 -0.4501  0.1675  0.0829
23378SOL    HW178912   4.099   0.464   4.195  0.3892  1.3056  0.1416
23378SOL    HW278913   4.215   0.367   4.207 -1.3072 -0.8027  0.0269
23379SOL     OW78914   7.415  12.487  10.607 -0.1419 -0.2783 -0.2376
23379SOL    HW178915   7.389  12.420  10.544  1.2990 -1.2297  0.1405
23379SOL    HW278916   7.407  12.443  10.692 -0.0613  0.3367  0.0922
23380SOL     OW78917   6.634   3.239  11.488  0.3800 -0.0105 -0.2982
23380SOL    HW178918   6.687   3.161  11.502  0.1036 -0.1680 -0.1436
23380SOL    HW278919   6.544   3.211  11.502  0.3603  0.5946  0.8534
23381SOL     OW78920   4.774   9.390   7.511 -0.0880 -0.1517 -0.1300
23381SOL    HW178921   4.828   9.335   7.567 -0.4773 -1.1342 -0.7089
23381SOL    HW278922   4.832   9.418   7.440 -0.4464 -1.7138 -1.0973
23382SOL     OW78923   3.042   9.475  10.205 -0.0922 -0.1740  0.3022
23382SOL    HW178924   3.132   9.452  10.181  0.6216 -1.6552  3.7672
23382SOL    HW278925   3.038   9.570  10.195  2.0965 -0.0005  0.6462
23383SOL     OW78926   5.554   2.924   5.209 -0.3367  0.0012 -0.4196
23383SOL    HW178927   5.485   2.858   5.211  0.5868 -0.9872  0.1359
23383SOL    HW278928   5.507   3.008   5.204 -1.6388 -0.5506  1.3083
23384SOL     OW78929   8.436   5.775   6.396 -0.4349  0.4773 -0.4554
23384SOL    HW178930   8.426   5.689   6.436 -3.1182  0.7814 -0.2927
23384SOL    HW278931   8.482   5.827   6.463  0.7417 -0.6608 -0.3534
23385SOL     OW78932   6.976  12.351   4.080  0.7847  0.5750 -0.0342
23385SOL    HW178933   6.981  12.289   4.007  0.7792 -0.5666  0.9064
23385SOL    HW278934   7.056  12.403   4.072  0.9761  0.2020 -0.6316
23386SOL     OW78935  11.788   5.266   9.502 -0.7264 -0.1714  0.3675
23386SOL    HW178936  11.714   5.266   9.440  1.1496  1.0127 -2.0614
23386SOL    HW278937  11.784   5.181   9.544 -2.3224 -0.9349 -1.1899
23387SOL     OW78938   0.421   0.784   8.377  0.1932  0.1284  0.0107
23387SOL    HW178939   0.453   0.872   8.399 -1.6687  1.2380 -1.3713
23387SOL    HW278940   0.458   0.766   8.290  2.7997 -1.7357  1.3563
23388SOL     OW78941  12.185   5.499  11.985  0.5733  0.1242  0.0716
23388SOL    HW178942  12.184   5.427  11.923  1.1230  0.6890 -0.5989
23388SOL    HW278943  12.158   5.459  12.068  0.0586 -0.6766 -0.4687
23389SOL     OW78944   4.894   7.087   8.271  0.1192  0.4422  0.2449
23389SOL    HW178945   4.915   6.996   8.295  0.3922  0.0154 -1.5030
23389SOL    HW278946   4.968   7.116   8.218 -0.7096  1.1315 -0.5615
23390SOL     OW78947   8.890  11.640   0.003  0.0122 -0.5761 -0.1511
23390SOL    HW178948   8.941  11.565  -0.030  0.2245  0.4705 -2.3601
23390SOL    HW278949   8.922  11.715  -0.047 -1.4564  0.7006  0.7384
23391SOL     OW78950   8.708   6.176   3.646 -0.3559 -0.7002  0.0327
23391SOL    HW178951   8.723   6.219   3.562 -1.4366 -0.9232 -0.2924
23391SOL    HW278952   8.738   6.086   3.633 -0.9349 -0.8562 -0.2705
23392SOL     OW78953   2.012   7.565   2.855  0.4255  0.4242  0.3998
23392SOL    HW178954   1.928   7.577   2.899 -0.7667  3.4439 -2.3376
23392SOL    HW278955   2.067   7.637   2.888  1.8136 -1.1599  1.7054
23393SOL     OW78956   2.273   7.735   0.220  0.1940  0.2916 -0.5562
23393SOL    HW178957   2.299   7.650   0.256 -0.1214  0.5225  0.2458
23393SOL    HW278958   2.307   7.735   0.131 -0.5497 -1.0452 -0.8709
23394SOL     OW78959   1.438  10.861   9.015 -0.3831 -0.1408 -0.1959
23394SOL    HW178960   1.524  10.820   9.026  0.1146  0.4410 -1.6655
23394SOL    HW278961   1.456  10.955   9.013 -0.9739 -0.0348 -0.9854
23395SOL     OW78962   9.378   0.550   0.934 -0.3328  0.1449 -0.5947
23395SOL    HW178963   9.296   0.530   0.888 -0.9684 -0.7751  0.8689
23395SOL    HW278964   9.363   0.522   1.024  1.4394  0.3936 -0.1779
23396SOL     OW78965   3.666   4.045   9.496 -0.4290  0.1185 -0.0666
23396SOL    HW178966   3.645   4.093   9.416 -0.9101  0.1628  0.0797
23396SOL    HW278967   3.580   4.021   9.532 -0.1983 -0.6947 -0.0454
23397SOL     OW78968   6.703   9.742   4.200  0.3539 -0.0741  0.3962
23397SOL    HW178969   6.789   9.709   4.173  0.2088 -0.7976  0.7962
23397SOL    HW278970   6.709   9.837   4.188  0.8053 -0.2268 -0.7103
23398SOL     OW78971  12.530   5.642   9.772  0.0639 -0.1713  0.3396
23398SOL    HW178972  12.579   5.654   9.854 -0.1799  0.9570  0.3380
23398SOL    HW278973  12.564   5.561   9.736  0.9059 -0.1597  1.0596
23399SOL     OW78974   5.971  10.631  12.055  0.7386 -0.0940  0.0742
23399SOL    HW178975   5.889  10.588  12.031 -0.9418  1.6652  2.2493
23399SOL    HW278976   6.013  10.651  11.971 -1.6472  0.0469 -1.1826
23400SOL     OW78977   8.941   8.255   3.456  0.3275  1.1156  0.0535
23400SOL    HW178978   8.961   8.345   3.479 -0.2400  1.0546  0.8235
23400SOL    HW278979   8.891   8.261   3.374 -0.8512  1.6118  0.7742
23401SOL     OW78980   5.714   9.441   6.965 -0.3385 -0.1444  0.0064
23401SOL    HW178981   5.730   9.531   6.937 -0.9914 -0.6287 -2.1139
23401SOL    HW278982   5.651   9.407   6.901 -0.1785 -2.0834  0.8126
23402SOL     OW78983   2.269   0.732   4.152  0.5834  0.3427  0.0637
23402SOL    HW178984   2.362   0.755   4.163  1.8165 -2.8037 -2.2857
23402SOL    HW278985   2.240   0.786   4.079  0.6131  1.1899  0.6702
23403SOL     OW78986  11.236   1.883   7.289 -0.2369  0.1232  0.0969
23403SOL    HW178987  11.311   1.892   7.230 -0.2937  1.3626  0.1734
23403SOL    HW278988  11.248   1.954   7.353 -1.1740 -0.0157  0.4415
23404SOL     OW78989   0.866   5.034   4.665 -0.3255 -0.3464  0.1257
23404SOL    HW178990   0.893   4.945   4.689  0.7145 -0.0326  0.1347
23404SOL    HW278991   0.832   5.071   4.747  1.6486  0.1378  0.7735
23405SOL     OW78992   8.373   3.282  10.358  0.5969  0.0755 -0.6490
23405SOL    HW178993   8.421   3.363  10.345  0.7727 -0.1022 -1.1229
23405SOL    HW278994   8.307   3.281  10.289  0.3788 -0.0250 -0.4416
23406SOL     OW78995  12.086   7.063   8.157 -0.0236  0.0934 -0.1631
23406SOL    HW178996  12.157   7.016   8.200 -1.2600  0.3068  2.2407
23406SOL    HW278997  12.098   7.154   8.183 -0.2950  0.3976 -1.0404
23407SOL     OW78998   8.334   4.700   1.576  0.1505 -0.1106  0.4507
23407SOL    HW178999   8.270   4.769   1.597  1.3069  0.8611  0.9249
23407SOL    HW279000   8.392   4.741   1.512 -0.0100 -1.1737 -0.3895
23408SOL     OW79001  11.948  11.585   9.866  0.5084  0.2152 -0.1908
23408SOL    HW179002  11.885  11.608   9.797  1.2868 -0.2080 -1.0756
23408SOL    HW279003  11.975  11.669   9.902  1.6259  0.6275 -1.8422
23409SOL     OW79004   0.105  10.951   7.368  0.1138 -0.7220 -0.1653
23409SOL    HW179005   0.154  11.006   7.430 -0.9664  0.1407 -0.0355
23409SOL    HW279006   0.026  11.003   7.348 -0.5209 -1.8671 -0.7131
23410SOL     OW79007   2.661   8.394   1.174 -1.0090 -0.1914 -0.4949
23410SOL    HW179008   2.675   8.318   1.119  0.1322  0.1848 -0.7626
23410SOL    HW279009   2.671   8.469   1.114  0.2067  0.2201  0.1728
23411SOL     OW79010   6.306   8.403   7.658  0.0799  0.7802 -0.1796
23411SOL    HW179011   6.392   8.390   7.699 -0.3495  0.7929  0.7656
23411SOL    HW279012   6.251   8.437   7.729 -0.6282  1.0692 -0.8516
23412SOL     OW79013   7.312   2.715  10.878 -0.3354 -0.0838 -0.0013
23412SOL    HW179014   7.398   2.749  10.904 -1.1216  1.2632  0.9882
23412SOL    HW279015   7.329   2.665  10.799  1.2352  0.8975 -0.3343
23413SOL     OW79016   3.221   2.130   9.807  0.3782  0.1257  0.1307
23413SOL    HW179017   3.197   2.041   9.780  0.9992 -0.6880  2.0740
23413SOL    HW279018   3.316   2.127   9.820  0.4758  1.2189 -0.2312
23414SOL     OW79019   3.893   0.043   4.006  0.0242 -0.3766  0.2459
23414SOL    HW179020   3.898   0.137   4.022  1.1090 -0.5966  1.3258
23414SOL    HW279021   3.854   0.035   3.919  1.8791  1.1298 -0.7880
23415SOL     OW79022  12.297   0.840   4.646  0.3945 -0.3351  0.6632
23415SOL    HW179023  12.302   0.753   4.608 -0.6823  0.5562 -1.7829
23415SOL    HW279024  12.296   0.899   4.570 -0.0509  1.7329  2.1786
23416SOL     OW79025   6.742   8.474   9.471  0.3918 -0.8037  0.5957
23416SOL    HW179026   6.670   8.537   9.474  0.3345 -0.8400  0.1241
23416SOL    HW279027   6.722   8.412   9.540  0.0905 -0.6806  0.6237
23417SOL     OW79028   0.682   8.429   2.346 -0.0540  0.0010  0.2289
23417SOL    HW179029   0.594   8.460   2.368 -0.2846 -0.2452 -0.3102
23417SOL    HW279030   0.717   8.394   2.428 -0.6564 -0.3662  0.3332
23418SOL     OW79031   1.834   7.486   0.449  0.0885  0.3677  0.5858
23418SOL    HW179032   1.801   7.511   0.363 -0.0538 -0.0216  0.5226
23418SOL    HW279033   1.811   7.559   0.507  0.0110  0.5426  0.3342
23419SOL     OW79034  11.218   6.467   6.136  0.6738 -0.2232 -0.7700
23419SOL    HW179035  11.251   6.541   6.085  2.3985 -0.8795 -0.6625
23419SOL    HW279036  11.230   6.493   6.227 -1.8260  0.6894 -0.6238
23420SOL     OW79037   3.633   9.471   7.740 -0.8144  0.5211  0.4619
23420SOL    HW179038   3.637   9.564   7.718 -1.3452  0.8009  1.4916
23420SOL    HW279039   3.579   9.467   7.819  0.7184 -0.4558  1.5263
23421SOL     OW79040  10.457  11.369   4.042 -0.2509  0.7287  0.2290
23421SOL    HW179041  10.418  11.348   3.957 -0.1819 -3.0095  0.9543
23421SOL    HW279042  10.528  11.306   4.052  0.0892  1.4184  2.8705
23422SOL     OW79043   9.845  10.550   2.696 -0.1196 -0.6609  0.5217
23422SOL    HW179044   9.756  10.515   2.696  0.1533 -1.3946  1.6072
23422SOL    HW279045   9.839  10.630   2.749 -0.1871 -0.5400  0.3351
23423SOL     OW79046   8.502   9.445   0.472 -0.1150  1.0640  0.2435
23423SOL    HW179047   8.442   9.464   0.544  0.2404  0.6625  0.6479
23423SOL    HW279048   8.570   9.390   0.511 -2.4436 -3.4098 -1.3154
23424SOL     OW79049   0.666   4.688  11.842  0.1778 -0.2402  0.8339
23424SOL    HW179050   0.702   4.752  11.780  0.6858 -1.9050 -0.6618
23424SOL    HW279051   0.659   4.607  11.792 -3.0432 -0.7436  1.8701
23425SOL     OW79052  11.505  11.177   5.280  0.0186 -0.2093  1.0583
23425SOL    HW179053  11.546  11.112   5.336 -1.5198 -0.4893  1.9095
23425SOL    HW279054  11.419  11.193   5.319 -1.6641 -1.3134 -1.8342
23426SOL     OW79055   6.510   4.614   7.793  0.4382  0.0980 -0.3026
23426SOL    HW179056   6.539   4.690   7.741  2.2087  0.1080  0.6505
23426SOL    HW279057   6.588   4.586   7.841 -0.3014 -2.0488 -0.2582
23427SOL     OW79058   4.361  11.122   0.730 -0.5281 -0.2399  0.0710
23427SOL    HW179059   4.407  11.205   0.739  0.1037 -0.5500 -0.2097
23427SOL    HW279060   4.424  11.056   0.759 -0.6440 -0.7057 -0.7124
23428SOL     OW79061  12.157  11.358   6.161 -0.5889 -0.0735  0.0682
23428SOL    HW179062  12.253  11.355   6.157 -0.6050 -2.6130  0.1389
23428SOL    HW279063  12.128  11.330   6.074 -1.2575 -0.1927  0.3226
23429SOL     OW79064   3.309   9.406   2.020 -0.5249  0.0787 -0.4686
23429SOL    HW179065   3.321   9.462   1.944 -2.9150 -0.0076 -0.9895
23429SOL    HW279066   3.335   9.460   2.095  0.4043  0.6821 -1.2167
23430SOL     OW79067   2.518   4.669   7.886 -0.1742 -0.3146  0.1821
23430SOL    HW179068   2.502   4.727   7.961  0.9550 -0.4308  0.5242
23430SOL    HW279069   2.436   4.672   7.836 -0.9084 -0.1549  1.3641
23431SOL     OW79070   5.667   9.973   0.698  0.1590 -0.2365 -0.2603
23431SOL    HW179071   5.710   9.888   0.701  1.0644  0.2337  0.8168
23431SOL    HW279072   5.642   9.984   0.607 -0.4274 -1.8680 -0.3242
23432SOL     OW79073   5.854   2.961   5.077  0.9080 -0.2509 -0.0285
23432SOL    HW179074   5.824   3.018   5.147  0.9343  0.6245 -0.7232
23432SOL    HW279075   5.803   2.880   5.088 -1.4852  1.0431 -0.9437
23433SOL     OW79076   1.203   3.561   2.925 -0.6747 -0.5283  0.4967
23433SOL    HW179077   1.168   3.597   2.843  2.7384  1.5020 -0.2802
23433SOL    HW279078   1.128   3.521   2.968 -3.1531  0.6357 -2.4004
23434SOL     OW79079  11.055   7.615   5.601 -0.2571  0.1195 -0.1887
23434SOL    HW179080  11.054   7.593   5.508  1.1789  1.3561 -0.5387
23434SOL    HW279081  11.066   7.711   5.603  3.8283 -0.1841  1.1559
23435SOL     OW79082   8.504   3.368   7.923 -0.0098 -0.7923 -0.5503
23435SOL    HW179083   8.526   3.334   8.010  0.1963 -0.4558 -0.4685
23435SOL    HW279084   8.553   3.450   7.916  1.2301 -1.5766 -1.5850
23436SOL     OW79085   2.253  12.447  11.249 -0.1201 -0.6579 -0.3001
23436SOL    HW179086   2.273  12.353  11.248  0.1575 -0.6017 -0.1363
23436SOL    HW279087   2.338  12.490  11.256 -0.3365 -0.4213  1.0356
23437SOL     OW79088   8.345   0.489   7.780 -0.1547 -0.0271  0.2967
23437SOL    HW179089   8.302   0.495   7.694  1.3714  0.2826 -0.4692
23437SOL    HW279090   8.408   0.418   7.770  0.7748  0.7026  0.8139
23438SOL     OW79091   2.428   4.020   1.318 -0.6911  0.5609  0.6883
23438SOL    HW179092   2.349   3.984   1.275 -0.8950 -0.7174  2.0485
23438SOL    HW279093   2.485   4.045   1.245 -2.0444  0.8189 -0.3288
23439SOL     OW79094  10.377  10.378   1.444 -0.3898  0.2065  0.3501
23439SOL    HW179095  10.335  10.463   1.461  0.1247  0.4207  0.5564
23439SOL    HW279096  10.438  10.395   1.372 -0.1079  0.0702  0.5549
23440SOL     OW79097   6.825   5.593  10.581 -0.2273 -0.4924  0.1840
23440SOL    HW179098   6.760   5.641  10.632  2.5018  0.2438  3.3312
23440SOL    HW279099   6.778   5.565  10.503 -4.4260 -0.4862  2.4072
23441SOL     OW79100   3.362   4.878   4.966  0.4585  0.1709  0.6078
23441SOL    HW179101   3.321   4.928   4.896  2.0161 -1.2259 -1.3883
23441SOL    HW279102   3.297   4.811   4.989  0.7696 -0.7986 -1.1621
23442SOL     OW79103   2.319   6.326   6.608  0.2813  0.6536 -0.4712
23442SOL    HW179104   2.230   6.356   6.591 -0.2567  0.6418  1.9938
23442SOL    HW279105   2.309   6.249   6.663  1.8140  0.8496  0.1307
23443SOL     OW79106   9.082   1.951  12.578  0.1719 -0.0514 -0.0292
23443SOL    HW179107   9.160   1.899  12.560  0.9529  1.6626 -1.9087
23443SOL    HW279108   9.021   1.928  12.509  0.6912  1.7257 -1.1625
23444SOL     OW79109   9.694   2.151   6.536 -0.0061  0.3744 -0.1215
23444SOL    HW179110   9.610   2.146   6.491 -0.1638  1.8148 -0.0252
23444SOL    HW279111   9.672   2.175   6.626  0.5510  1.5816 -0.3005
23445SOL     OW79112   6.842   9.020   1.840  0.7702  0.3784 -0.0775
23445SOL    HW179113   6.820   8.931   1.813  0.7917  0.6638 -1.1073
23445SOL    HW279114   6.770   9.074   1.808  1.1367  0.8307 -0.1611
23446SOL     OW79115   8.627   8.027   3.494  0.4634 -0.0641 -0.4837
23446SOL    HW179116   8.651   8.028   3.402  1.8969  0.6773 -0.1354
23446SOL    HW279117   8.571   8.104   3.505 -1.9673 -1.6318 -1.2396
23447SOL     OW79118  12.245   0.529  11.673 -0.1848  0.0876  0.0166
23447SOL    HW179119  12.293   0.604  11.708  0.5966 -0.1287 -0.5464
23447SOL    HW279120  12.312   0.461  11.665 -0.3529  0.0828 -1.7248
23448SOL     OW79121  11.257   6.419   0.343 -0.0699  0.1152 -0.3206
23448SOL    HW179122  11.253   6.365   0.265  4.2395  0.0885 -0.7383
23448SOL    HW279123  11.271   6.508   0.310  1.3015  0.1756  0.3384
23449SOL     OW79124   2.570  12.336   8.804  0.5981  0.8554 -0.4149
23449SOL    HW179125   2.579  12.317   8.897  0.6435 -1.2140 -0.7972
23449SOL    HW279126   2.548  12.252   8.764  1.7589  1.4276 -2.4199
23450SOL     OW79127   6.826   2.291   3.201 -0.5123  0.1956  0.0393
23450SOL    HW179128   6.902   2.307   3.144  0.1461 -0.4052  0.7158
23450SOL    HW279129   6.811   2.196   3.194 -0.5699  0.1530  0.6745
23451SOL     OW79130   4.807   3.384   4.373 -0.4171 -0.0654 -0.2019
23451SOL    HW179131   4.712   3.381   4.385 -0.4839  0.4132 -0.5980
23451SOL    HW279132   4.821   3.358   4.282 -0.3156  1.6761 -0.7228
23452SOL     OW79133   5.977   9.294   7.571 -0.2971  0.1560 -0.0971
23452SOL    HW179134   5.988   9.385   7.598  2.0771 -0.6381  1.9445
23452SOL    HW279135   6.055   9.275   7.520 -0.5888 -0.8568 -0.1723
23453SOL     OW79136   6.052   7.397   7.124 -0.1278 -0.3183 -0.7326
23453SOL    HW179137   6.109   7.340   7.176  0.3454  0.3924 -0.4619
23453SOL    HW279138   6.017   7.340   7.056  0.8668 -0.7766 -0.8672
23454SOL     OW79139   4.116  11.353   4.882 -0.1742 -0.7681  0.7791
23454SOL    HW179140   4.202  11.330   4.917  0.7678  1.0694 -0.1668
23454SOL    HW279141   4.104  11.294   4.808  1.9978  1.2277 -1.3381
23455SOL     OW79142   2.278   2.303   7.749  0.2994 -0.3377  0.3098
23455SOL    HW179143   2.190   2.271   7.770  0.3438 -1.7166 -1.3661
23455SOL    HW279144   2.337   2.238   7.787  0.4977 -0.6964 -0.5936
23456SOL     OW79145   5.569   6.761   8.684 -0.4216 -0.0272  0.3956
23456SOL    HW179146   5.532   6.849   8.670  1.8955  0.5915 -3.1073
23456SOL    HW279147   5.649   6.776   8.734 -0.0199 -0.1040 -0.2133
23457SOL     OW79148   0.228   5.269  10.201 -0.2328  0.4671  0.7063
23457SOL    HW179149   0.139   5.242  10.177 -0.0862  0.5714  0.0230
23457SOL    HW279150   0.230   5.363  10.185 -0.3218  0.6576  1.7647
23458SOL     OW79151   6.500   8.117   6.411  0.3740  0.2725  0.1664
23458SOL    HW179152   6.590   8.125   6.444 -0.2896  1.7465  1.7935
23458SOL    HW279153   6.500   8.164   6.328  0.6961  2.0816  1.1363
23459SOL     OW79154   6.670   9.857   0.841 -0.5679  0.1293 -0.1896
23459SOL    HW179155   6.743   9.895   0.891 -0.7923  0.8603 -0.4095
23459SOL    HW279156   6.691   9.875   0.750 -1.3879  1.0158 -0.2166
23460SOL     OW79157   2.741  10.233   0.388  0.7123  0.8206  0.7668
23460SOL    HW179158   2.789  10.313   0.409  2.6713 -0.1885  0.3420
23460SOL    HW279159   2.759  10.173   0.460 -0.5907  0.6752  0.9953
23461SOL     OW79160   3.110  12.153   3.357  0.6026  0.2613 -0.7594
23461SOL    HW179161   3.039  12.178   3.298  0.1347 -0.8006 -0.6637
23461SOL    HW279162   3.132  12.064   3.331 -0.0241 -0.4589  1.0415
23462SOL     OW79163  12.267  11.122   1.772  0.2427  0.2098  0.3665
23462SOL    HW179164  12.237  11.142   1.861 -0.5197  0.7342  0.0001
23462SOL    HW279165  12.354  11.084   1.784 -0.0443 -0.1579  1.3691
23463SOL     OW79166   9.213   2.055   5.978 -0.1850 -0.4440  0.1455
23463SOL    HW179167   9.235   2.108   5.902  0.2409  0.4662  0.8730
23463SOL    HW279168   9.128   2.015   5.957 -0.4005  0.3455 -0.5275
23464SOL     OW79169   3.432  12.497   2.731  0.4137 -0.4294  0.0029
23464SOL    HW179170   3.349  12.535   2.760  1.0028  0.8707  0.0788
23464SOL    HW279171   3.426  12.495   2.636 -0.5048 -2.2966  0.0618
23465SOL     OW79172   6.419   0.352  10.059  0.2603  0.1861 -0.5933
23465SOL    HW179173   6.415   0.436  10.014 -0.1112 -0.4415 -1.7640
23465SOL    HW279174   6.491   0.305  10.016 -0.2659 -0.5202 -0.7255
23466SOL     OW79175  10.278   1.352   1.433  0.1185 -0.7905  0.1022
23466SOL    HW179176  10.310   1.262   1.426 -0.3504 -1.1101  1.7280
23466SOL    HW279177  10.296   1.390   1.347 -1.0953 -2.8947 -1.2006
23467SOL     OW79178   6.130   3.639   9.933 -0.1833  0.6021 -0.2487
23467SOL    HW179179   6.056   3.658   9.991  0.3068  0.3283  0.4835
23467SOL    HW279180   6.173   3.723   9.919  0.2632  0.5188  0.5850
23468SOL     OW79181   7.935  12.455   3.393 -0.9668 -0.2613  0.3630
23468SOL    HW179182   7.989  12.381   3.423 -2.5391 -1.7270 -0.2401
23468SOL    HW279183   7.969  12.476   3.306 -0.1420  0.1207  0.7694
23469SOL     OW79184   9.117   2.641  10.381 -0.0215  0.0434 -0.6662
23469SOL    HW179185   9.032   2.615  10.416  0.8697 -0.7286  1.0145
23469SOL    HW279186   9.121   2.736  10.395  0.3594 -0.2616  1.5296
23470SOL     OW79187   1.473   3.134   1.076 -0.3597  0.3414 -0.0187
23470SOL    HW179188   1.496   3.070   1.143  0.7234  1.5828  0.8352
23470SOL    HW279189   1.556   3.158   1.036 -0.9545 -0.1514 -1.6386
23471SOL     OW79190  10.214   8.172   1.877 -0.5291 -0.2952 -0.6893
23471SOL    HW179191  10.143   8.230   1.904  0.0970  0.6478 -1.0425
23471SOL    HW279192  10.206   8.165   1.782  1.0412  1.4747 -1.0162
23472SOL     OW79193  12.146   3.206   7.638  0.2598 -0.4346 -0.2974
23472SOL    HW179194  12.180   3.163   7.716 -0.1114 -0.9852 -0.4295
23472SOL    HW279195  12.205   3.178   7.568 -0.1740 -1.0200 -0.4440
23473SOL     OW79196   2.669   5.454   2.259  1.0163  0.2371 -0.5632
23473SOL    HW179197   2.708   5.529   2.214 -0.0358  1.8939  1.1780
23473SOL    HW279198   2.608   5.416   2.194  0.9049  1.4211 -1.1734
23474SOL     OW79199   4.754   1.419   5.227 -0.0565  0.4252  0.6794
23474SOL    HW179200   4.700   1.480   5.178  0.3440 -0.2680 -0.6549
23474SOL    HW279201   4.842   1.456   5.222  0.3281 -0.6379 -0.8067
23475SOL     OW79202   3.585   9.815   9.402  0.3939  0.2639 -0.1178
23475SOL    HW179203   3.544   9.734   9.373 -0.7078  0.9407 -0.4926
23475SOL    HW279204   3.648   9.836   9.333 -0.5045  0.5917 -0.8662
23476SOL     OW79205   9.258   9.225  10.304  0.1627 -0.2742  0.1253
23476SOL    HW179206   9.350   9.198  10.309  0.4561  0.7517  0.6397
23476SOL    HW279207   9.237   9.219  10.211  1.3223  1.1924 -0.2844
23477SOL     OW79208   2.894   4.779   5.891 -0.6974 -0.3917 -0.7528
23477SOL    HW179209   2.935   4.699   5.925 -2.2981 -0.6242  0.7692
23477SOL    HW279210   2.819   4.747   5.840 -1.9512  0.0922  0.6982
23478SOL     OW79211   7.045  11.095   2.011 -0.0703  0.5272 -0.0480
23478SOL    HW179212   7.114  11.125   2.071  0.7149 -1.3788  0.0765
23478SOL    HW279213   6.972  11.073   2.068 -0.2836  1.2046 -0.0505
23479SOL     OW79214   3.392   9.530  11.192 -0.9104 -0.3402  0.4176
23479SOL    HW179215   3.365   9.585  11.266  1.0797  2.8619 -0.9860
23479SOL    HW279216   3.483   9.556  11.175 -1.1936 -1.0304 -2.9885
23480SOL     OW79217   9.841   3.109  12.526 -0.2853 -0.2463 -0.3086
23480SOL    HW179218   9.902   3.182  12.537  1.4737 -1.2445 -2.5814
23480SOL    HW279219   9.810   3.091  12.615  1.5774  1.2927  0.7418
23481SOL     OW79220  11.652   7.914   1.234  0.1462  0.2459  0.3771
23481SOL    HW179221  11.615   7.881   1.316 -0.1816  0.1946  0.2113
23481SOL    HW279222  11.611   7.999   1.221 -1.0610 -0.4416 -0.5577
23482SOL     OW79223   2.471   6.381  11.104  0.3577  0.5080 -0.3034
23482SOL    HW179224   2.453   6.315  11.038  0.7847 -1.0664  1.0857
23482SOL    HW279225   2.441   6.463  11.065 -1.6610 -0.7140 -1.4706
23483SOL     OW79226   1.025   9.113   1.701  0.6023  0.2255  0.0979
23483SOL    HW179227   0.932   9.137   1.709  0.2341 -0.3445 -1.8422
23483SOL    HW279228   1.069   9.168   1.766 -0.9471  1.4947  0.1628
23484SOL     OW79229   3.911   4.231   6.394 -0.0479  0.2494  0.4446
23484SOL    HW179230   3.857   4.178   6.454 -2.4760 -0.3581 -2.0491
23484SOL    HW279231   3.853   4.248   6.319  2.4057  2.0061 -1.1937
23485SOL     OW79232   3.074   7.253   0.231  0.5883  0.6518 -0.7065
23485SOL    HW179233   3.153   7.255   0.285 -0.8682 -0.6527  1.6803
23485SOL    HW279234   3.046   7.345   0.226  0.4204  0.7746  1.4573
23486SOL     OW79235   8.194   8.746   0.624 -0.0131  0.6314  0.2473
23486SOL    HW179236   8.167   8.795   0.702 -0.1949 -0.1227  0.6601
23486SOL    HW279237   8.289   8.736   0.635 -0.4598 -3.0174  2.5155
23487SOL     OW79238   1.433   8.518   2.027 -0.3919 -0.8645  0.1013
23487SOL    HW179239   1.407   8.564   1.948 -1.4062 -1.3221  0.1539
23487SOL    HW279240   1.352   8.508   2.077  0.5245  1.2152  2.1680
23488SOL     OW79241   9.691   6.866  12.340  0.0855 -0.0368  0.5995
23488SOL    HW179242   9.749   6.851  12.265 -2.0767 -1.9012 -0.8631
23488SOL    HW279243   9.725   6.810  12.409 -0.0300 -1.2734 -0.3077
23489SOL     OW79244  12.540   0.881   8.391 -0.2019 -0.0327  0.2283
23489SOL    HW179245  12.482   0.847   8.323 -1.2692  0.6599  0.7657
23489SOL    HW279246  12.621   0.901   8.346 -0.0122 -1.9560 -0.3689
23490SOL     OW79247   0.454   0.132   9.211  0.2780 -0.3296 -0.5619
23490SOL    HW179248   0.487   0.043   9.220 -0.1525 -0.5595 -1.1857
23490SOL    HW279249   0.365   0.121   9.179  1.0993  0.3495 -3.3471
23491SOL     OW79250   9.718   5.851   8.108 -0.3412  0.4898  0.1035
23491SOL    HW179251   9.746   5.940   8.131 -1.3286  0.6992  0.5345
23491SOL    HW279252   9.646   5.864   8.046  1.1227 -0.0533 -1.8024
23492SOL     OW79253   8.151   5.238  11.434  0.1972 -0.4968 -0.5095
23492SOL    HW179254   8.243   5.259  11.454  0.5218 -1.9474 -0.3337
23492SOL    HW279255   8.103   5.262  11.513  0.7191 -1.3822  0.1073
23493SOL     OW79256   6.149   0.345   1.391 -0.3658 -0.1058 -0.6176
23493SOL    HW179257   6.095   0.390   1.327  0.6750  1.9991 -0.0967
23493SOL    HW279258   6.091   0.329   1.466 -0.8519  0.0309 -0.9621
23494SOL     OW79259  10.382   4.224   0.101 -0.0694  0.6743 -0.2305
23494SOL    HW179260  10.427   4.141   0.117 -0.4494  0.4703 -0.2014
23494SOL    HW279261  10.337   4.211   0.017  2.1952  1.8548 -1.7418
23495SOL     OW79262   0.430  10.885  11.298  0.2988  0.7203  0.5230
23495SOL    HW179263   0.440  10.969  11.343  0.2437  0.8751  0.2526
23495SOL    HW279264   0.494  10.888  11.227 -1.1929  1.4816 -0.8734
23496SOL     OW79265   6.550   8.012  11.507 -0.0290 -0.0640  0.0873
23496SOL    HW179266   6.581   8.032  11.595  0.0941 -0.6213  0.1731
23496SOL    HW279267   6.590   8.079  11.451 -1.7867  1.6174  0.7256
23497SOL     OW79268   0.115   7.131   3.698  0.1875  0.0501 -0.8020
23497SOL    HW179269   0.022   7.110   3.712 -0.0880  1.0023 -1.1612
23497SOL    HW279270   0.161   7.053   3.729 -0.6753 -0.0608  0.2822
23498SOL     OW79271   4.847  12.128   4.594 -0.3710  0.1855  0.2821
23498SOL    HW179272   4.878  12.219   4.596  3.5971 -0.9455 -0.2593
23498SOL    HW279273   4.891  12.087   4.669  1.1120 -2.0437 -1.6512
23499SOL     OW79274   5.696   4.627   4.767 -0.1195 -0.2871 -0.1509
23499SOL    HW179275   5.749   4.626   4.847  0.2055  0.4630 -0.3441
23499SOL    HW279276   5.694   4.720   4.741 -2.6265 -0.0677  0.5743
23500SOL     OW79277   0.387  11.431   8.983 -0.1402  0.0544 -0.1471
23500SOL    HW179278   0.483  11.431   8.987 -0.1286  0.5728 -0.4711
23500SOL    HW279279   0.366  11.379   8.906 -0.0844  1.2060 -0.9485
23501SOL     OW79280   1.171  12.544   3.534  0.1323  0.2896  0.1809
23501SOL    HW179281   1.197  12.635   3.532 -0.2349  0.4127 -2.2443
23501SOL    HW279282   1.253  12.495   3.540  0.3745  0.7399  0.6703
23502SOL     OW79283   4.308  11.807  10.244 -0.2303  0.1877  0.2180
23502SOL    HW179284   4.311  11.838  10.334 -0.5031  1.9437 -0.3464
23502SOL    HW279285   4.378  11.855  10.199  0.5066 -1.3353 -0.3264
23503SOL     OW79286   5.304   1.141  12.255 -0.1266 -0.2550  0.2833
23503SOL    HW179287   5.362   1.210  12.286  0.0219 -0.4933  0.5531
23503SOL    HW279288   5.266   1.105  12.336  0.7046 -1.2731  0.2485
23504SOL     OW79289   1.547   2.084   8.661  0.1854  0.2640  0.0826
23504SOL    HW179290   1.464   2.132   8.653  0.5534  1.0684  0.8280
23504SOL    HW279291   1.545   2.019   8.591 -0.6178  0.9689 -0.5652
23505SOL     OW79292   1.595   5.174   8.625 -0.2369 -0.0634 -0.6504
23505SOL    HW179293   1.509   5.144   8.596 -0.2045 -0.7577 -0.0642
23505SOL    HW279294   1.579   5.219   8.707  0.0316 -0.7332 -0.2263
23506SOL     OW79295   5.284   8.413   4.865 -0.1647 -0.2724 -0.6035
23506SOL    HW179296   5.280   8.488   4.806 -0.1940 -1.2952 -1.9321
23506SOL    HW279297   5.360   8.362   4.836 -0.2504 -0.8697  0.1600
23507SOL     OW79298   2.887   7.707   8.081 -0.3211 -0.6183 -0.3845
23507SOL    HW179299   2.824   7.709   8.010 -0.9358 -1.2956  0.1322
23507SOL    HW279300   2.963   7.755   8.048 -1.0003 -0.0409 -1.1078
23508SOL     OW79301   4.634  12.240   2.132  0.1297 -0.1156  0.1878
23508SOL    HW179302   4.610  12.168   2.190 -0.3662 -1.5001 -1.6392
23508SOL    HW279303   4.555  12.293   2.124  0.4249  0.5342  1.3378
23509SOL     OW79304   7.176   4.023  11.688 -0.4266  0.1383  0.3594
23509SOL    HW179305   7.256   4.002  11.640 -0.3994 -0.7691  0.7830
23509SOL    HW279306   7.193   3.993  11.777 -2.1472 -2.4694 -0.0758
23510SOL     OW79307  11.144   7.791   2.485 -0.1922 -0.0263  0.2673
23510SOL    HW179308  11.181   7.878   2.470  1.6184 -0.6638  0.7933
23510SOL    HW279309  11.110   7.794   2.575  1.6881 -0.4216  1.0362
23511SOL     OW79310   5.416  10.737  10.259  0.1726 -0.0120 -0.2786
23511SOL    HW179311   5.454  10.819  10.228  0.3801  0.2277  0.5830
23511SOL    HW279312   5.466  10.669  10.215  1.3511  0.3060  0.5466
23512SOL     OW79313   8.062   9.997  12.013  0.0113  0.8019  0.1904
23512SOL    HW179314   8.075  10.082  11.969 -0.8132  0.8532  0.0395
23512SOL    HW279315   8.071  10.017  12.106 -0.3691  1.0952  0.1669
23513SOL     OW79316   3.640   4.988  11.691 -0.0221  0.8931  0.0430
23513SOL    HW179317   3.692   5.002  11.612  2.8891  0.9334  1.8437
23513SOL    HW279318   3.627   4.893  11.695  0.7269  0.7924  0.0722
23514SOL     OW79319   2.526   7.885   4.017  0.0249 -0.1715  0.2742
23514SOL    HW179320   2.549   7.917   3.930 -1.4982 -1.1481 -0.5249
23514SOL    HW279321   2.455   7.943   4.046 -0.0675 -0.3920  0.4938
23515SOL     OW79322   8.547   0.840   4.644  0.1657  0.3968  0.3413
23515SOL    HW179323   8.490   0.899   4.693 -0.2022  0.2173  0.1376
23515SOL    HW279324   8.504   0.830   4.559  0.4001  0.1009  0.2533
23516SOL     OW79325   6.879   9.522   1.688 -0.3699  0.4429 -0.4713
23516SOL    HW179326   6.898   9.457   1.756  1.1225  2.3446  1.0434
23516SOL    HW279327   6.923   9.487   1.610  0.4347 -0.3596  0.3054
23517SOL     OW79328   5.737   4.632  10.552  0.4848  0.2006 -0.8311
23517SOL    HW179329   5.794   4.710  10.555 -0.5660  0.9595  0.2419
23517SOL    HW279330   5.713   4.617  10.643 -0.4631 -0.5521 -1.1939
23518SOL     OW79331   4.847   8.678   2.948  0.0879 -0.1673 -0.5522
23518SOL    HW179332   4.826   8.585   2.943  0.6939 -0.3533  0.0856
23518SOL    HW279333   4.811   8.706   3.033  0.2092  0.0962 -0.5857
23519SOL     OW79334   0.987   3.521   9.319  0.7141 -0.3103 -0.0219
23519SOL    HW179335   1.081   3.512   9.308  0.8218 -0.4928  0.9459
23519SOL    HW279336   0.976   3.553   9.409 -0.0806  1.0657 -0.5656
23520SOL     OW79337  11.542   0.781   6.333 -0.4503  0.2736 -0.3648
23520SOL    HW179338  11.498   0.804   6.251  0.3782 -0.6474 -1.0914
23520SOL    HW279339  11.541   0.685   6.335  0.3746  0.2642  0.2265
23521SOL     OW79340  11.226   1.220   6.359 -0.6695  0.3738  0.6873
23521SOL    HW179341  11.242   1.258   6.272 -2.4739  0.2721  0.2573
23521SOL    HW279342  11.313   1.207   6.396  0.2281 -0.5109 -1.5258
23522SOL     OW79343   7.164   7.342   4.031 -0.3409  0.3252  0.0095
23522SOL    HW179344   7.177   7.418   3.973 -1.6254  0.4581 -0.1404
23522SOL    HW279345   7.106   7.375   4.100  0.9899  0.1023  1.2834
23523SOL     OW79346  10.809  10.780   2.134  0.3338  0.3263  0.7243
23523SOL    HW179347  10.807  10.848   2.067  0.3331 -0.3810 -0.0081
23523SOL    HW279348  10.787  10.699   2.088 -1.6291  0.0990  1.9337
23524SOL     OW79349   9.565   8.346   0.777  0.2584 -0.0962  0.9548
23524SOL    HW179350   9.561   8.351   0.682 -0.7481 -2.1464  0.8362
23524SOL    HW279351   9.648   8.301   0.795  0.6716  0.6991  1.0963
23525SOL     OW79352   6.505  11.235   2.473 -0.4412  0.1021 -0.6574
23525SOL    HW179353   6.441  11.167   2.454  1.8096 -2.0983 -1.0150
23525SOL    HW279354   6.552  11.247   2.390  2.2227 -1.4356  0.4974
23526SOL     OW79355   1.174   3.812   9.325 -0.4417  0.3708 -0.3636
23526SOL    HW179356   1.210   3.732   9.363  0.1499  0.0711 -1.5092
23526SOL    HW279357   1.179   3.876   9.397  2.9494  0.5038 -0.5225
23527SOL     OW79358  10.824   0.581   2.444 -0.3180  0.4910  0.1728
23527SOL    HW179359  10.806   0.600   2.536 -0.1730  0.7694  0.1423
23527SOL    HW279360  10.767   0.641   2.395  0.7709  1.4696  0.0727
23528SOL     OW79361   5.683   7.628   9.181 -0.3759  0.0430 -0.6289
23528SOL    HW179362   5.618   7.674   9.128  0.2204  0.3409 -1.1142
23528SOL    HW279363   5.695   7.684   9.258  0.0244  0.4891 -1.0088
23529SOL     OW79364   3.193   7.483   2.527 -0.2046  0.2573 -0.1263
23529SOL    HW179365   3.165   7.482   2.618 -0.5552 -0.6808 -0.2393
23529SOL    HW279366   3.246   7.563   2.519  1.2047 -0.4927  1.3108
23530SOL     OW79367  11.930   0.717   5.657  0.0997  0.4723  0.0777
23530SOL    HW179368  11.939   0.810   5.680 -1.8580  0.7899 -0.2480
23530SOL    HW279369  11.962   0.670   5.734 -0.6079  1.4487  1.0022
23531SOL     OW79370  11.512  11.324   8.613  0.2306  0.3873  0.2345
23531SOL    HW179371  11.502  11.359   8.702 -0.5301 -0.4037  0.4750
23531SOL    HW279372  11.580  11.379   8.573  0.1962  1.0970  1.1205
23532SOL     OW79373  12.107  11.381   9.233  0.6584  0.0542 -0.1985
23532SOL    HW179374  12.098  11.342   9.147 -0.3196 -1.2301  0.4638
23532SOL    HW279375  12.136  11.309   9.290 -0.3549  0.4679  0.8808
23533SOL     OW79376   6.150   4.742   8.613 -0.5296 -0.2510 -0.1876
23533SOL    HW179377   6.056   4.760   8.611 -0.3844  0.5081 -1.1695
23533SOL    HW279378   6.189   4.825   8.642 -0.1393 -0.4584 -0.1131
23534SOL     OW79379   4.271   3.616   2.349  0.4826  0.2652  0.6648
23534SOL    HW179380   4.212   3.561   2.402 -0.1710 -0.4923 -0.7906
23534SOL    HW279381   4.300   3.559   2.279  1.9167  1.0433  0.6032
23535SOL     OW79382   8.229   6.401   7.873  0.2716 -0.8713  0.5347
23535SOL    HW179383   8.172   6.449   7.932  1.4698  2.3555 -0.7097
23535SOL    HW279384   8.281   6.344   7.930 -0.9981 -0.4610  2.1457
23536SOL     OW79385   1.025  12.588   1.223 -0.5799  0.3216  0.7010
23536SOL    HW179386   1.102  12.638   1.248 -0.8243  0.1587  1.7943
23536SOL    HW279387   1.056  12.498   1.215  0.0543  0.6898 -2.1001
23537SOL     OW79388  11.767  12.427  11.383 -0.1685 -0.3395 -0.4977
23537SOL    HW179389  11.689  12.424  11.438  0.7116  0.1890  0.8316
23537SOL    HW279390  11.764  12.514  11.342 -0.4965 -0.4838 -0.7766
23538SOL     OW79391   6.290  11.264   1.720  0.1145 -0.2367  0.0279
23538SOL    HW179392   6.281  11.175   1.686  1.1341  0.1590 -1.3747
23538SOL    HW279393   6.372  11.263   1.769  0.1366 -0.0595 -0.0063
23539SOL     OW79394  11.020   1.119  10.040  0.4260  0.2399 -0.3201
23539SOL    HW179395  10.955   1.074  10.093  0.8570 -0.9888 -0.8040
23539SOL    HW279396  11.032   1.204  10.084 -1.7630  0.6736 -0.4342
23540SOL     OW79397   1.696   7.537   9.975  0.1059  0.3101  0.1592
23540SOL    HW179398   1.663   7.625   9.993 -1.0540 -0.0313 -0.1938
23540SOL    HW279399   1.766   7.550   9.911 -1.8771  0.8368 -2.0759
23541SOL     OW79400  11.486   7.183   3.933 -0.3219  0.4533 -0.7118
23541SOL    HW179401  11.491   7.088   3.945 -0.1542  0.4540 -0.7749
23541SOL    HW279402  11.565   7.206   3.884 -0.6530  0.5462 -1.2104
23542SOL     OW79403   6.127   4.546   3.496 -0.2057  0.3019  0.2962
23542SOL    HW179404   6.109   4.506   3.581  0.7980  0.4871  0.6113
23542SOL    HW279405   6.160   4.474   3.443  0.5059  0.4674  0.5065
23543SOL     OW79406   4.811   2.378   7.095  0.0106  0.3124 -0.0370
23543SOL    HW179407   4.810   2.353   7.188 -0.6543 -1.3345 -0.4483
23543SOL    HW279408   4.725   2.352   7.062  0.5897 -0.0508 -1.3282
23544SOL     OW79409   9.897   7.916  11.410  0.7137  0.3968  0.3941
23544SOL    HW179410   9.914   7.823  11.424  0.0699  0.0116 -1.1686
23544SOL    HW279411   9.801   7.923  11.410  0.6978  0.6644 -1.6034
23545SOL     OW79412  12.469   9.267   9.836  0.4438  0.2463  0.1063
23545SOL    HW179413  12.543   9.264   9.898 -0.0174 -0.0103  0.6563
23545SOL    HW279414  12.472   9.181   9.793  1.3999  0.8100 -1.0016
23546SOL     OW79415   3.489   4.414   8.410  0.0576  0.2694 -0.4835
23546SOL    HW179416   3.479   4.509   8.407  0.0625  0.2524 -1.4511
23546SOL    HW279417   3.575   4.401   8.449  0.2920  0.6831 -0.8484
23547SOL     OW79418   0.402   5.486  10.998  0.4361  0.5095  0.4007
23547SOL    HW179419   0.453   5.471  10.918 -0.5494  0.9626 -0.3348
23547SOL    HW279420   0.359   5.403  11.015  0.2525  0.5588  0.1753
23548SOL     OW79421   1.217   4.934   1.799  0.0985 -0.3483 -0.4464
23548SOL    HW179422   1.303   4.964   1.828 -0.3464  1.0787 -0.5551
23548SOL    HW279423   1.169   5.014   1.777 -1.1132 -1.1436 -0.8078
23549SOL     OW79424   7.950  11.431   2.739  0.8146 -0.1744 -0.1167
23549SOL    HW179425   7.936  11.395   2.827 -0.1677  0.2339 -0.0913
23549SOL    HW279426   7.998  11.512   2.753  2.2578 -0.9918 -0.1087
23550SOL     OW79427   4.308   1.959  12.317 -0.3747  0.7019  0.5661
23550SOL    HW179428   4.228   1.915  12.288 -0.4933 -0.0361  1.9202
23550SOL    HW279429   4.294   1.972  12.411 -0.4739  3.9163  0.2124
23551SOL     OW79430   7.681   4.327   5.965 -0.2533 -0.3841 -0.6999
23551SOL    HW179431   7.767   4.344   6.003 -0.0172 -0.2880 -1.2724
23551SOL    HW279432   7.625   4.395   6.003  0.1650  0.2178 -1.1418
23552SOL     OW79433   8.923   3.530  12.458  0.4229  0.1010 -0.1526
23552SOL    HW179434   8.928   3.435  12.463  1.9843  0.2232  2.6126
23552SOL    HW279435   9.002   3.556  12.410 -0.3186  0.0225 -1.4578
23553SOL     OW79436   7.002   5.320  10.616 -0.0524  0.8251 -0.1774
23553SOL    HW179437   6.960   5.402  10.589 -0.7352  0.7465  0.5951
23553SOL    HW279438   7.078   5.347  10.668 -0.4112  0.9776  0.2752
23554SOL     OW79439  10.612   3.801   8.094 -0.4337 -0.0082  0.2481
23554SOL    HW179440  10.558   3.726   8.119  0.5442 -0.9360 -0.3495
23554SOL    HW279441  10.662   3.771   8.018  0.8301  0.8753  0.6979
23555SOL     OW79442   5.416   6.429   4.734  0.3628 -0.2807  0.1127
23555SOL    HW179443   5.400   6.406   4.643 -0.3265 -0.6127  0.3147
23555SOL    HW279444   5.444   6.347   4.775 -0.4404 -0.3996  0.4477
23556SOL     OW79445   9.768   1.902   3.210  0.4885  0.3039  0.2363
23556SOL    HW179446   9.778   1.836   3.141  0.4223 -0.1623  0.6714
23556SOL    HW279447   9.834   1.879   3.275  1.1430  1.2562 -0.0640
23557SOL     OW79448   1.485   4.327   1.043  0.3762  0.0712 -0.2079
23557SOL    HW179449   1.491   4.373   0.960  0.9887 -1.3101 -0.9552
23557SOL    HW279450   1.483   4.234   1.020  0.4210 -0.3418  1.3020
23558SOL     OW79451  10.187   8.342   6.938  0.1432 -0.1770  0.3596
23558SOL    HW179452  10.211   8.366   7.028  1.5310  1.1661 -0.3261
23558SOL    HW279453  10.185   8.425   6.891  0.1714 -0.9422 -1.0316
23559SOL     OW79454   9.224   0.970   8.169 -0.1226  0.1115  0.0042
23559SOL    HW179455   9.305   0.948   8.122 -0.5090 -1.1296 -0.1048
23559SOL    HW279456   9.243   0.949   8.260 -0.0468  0.6435  0.1180
23560SOL     OW79457   4.564   2.091   3.617 -0.0610 -0.0801  0.1071
23560SOL    HW179458   4.637   2.057   3.668  0.0637  0.2612  0.1549
23560SOL    HW279459   4.492   2.029   3.634 -0.6704  1.1140  2.3509
23561SOL     OW79460  11.072  12.275   6.866 -0.1536  0.3592 -0.3407
23561SOL    HW179461  10.985  12.259   6.830 -0.2707  0.6064 -0.1747
23561SOL    HW279462  11.132  12.244   6.799 -0.3603 -0.7030 -0.0576
23562SOL     OW79463   7.471  11.322   3.186 -0.0414 -0.1271  0.2911
23562SOL    HW179464   7.516  11.263   3.126 -1.8330 -0.4622 -0.7837
23562SOL    HW279465   7.512  11.407   3.172  2.1569 -0.9238  1.4155
23563SOL     OW79466  10.661   6.670   3.106 -0.4888 -0.2086 -0.5192
23563SOL    HW179467  10.623   6.739   3.161 -1.3404  0.0296 -1.3826
23563SOL    HW279468  10.606   6.593   3.122  0.4726 -0.7168  0.4596
23564SOL     OW79469   1.082   6.823  10.710 -0.1828 -0.4881  0.3524
23564SOL    HW179470   1.175   6.822  10.732 -0.0656  0.9322 -0.0001
23564SOL    HW279471   1.078   6.787  10.621  0.1003  0.0248  0.1321
23565SOL     OW79472   6.427   5.772   8.494 -0.6517  0.4251  0.0934
23565SOL    HW179473   6.341   5.729   8.495  0.3647 -1.8154 -1.3865
23565SOL    HW279474   6.421   5.837   8.564 -3.7722  0.8616 -0.4159
23566SOL     OW79475   9.884   0.616   7.475 -0.6251 -0.4395  0.0187
23566SOL    HW179476   9.934   0.544   7.514 -0.1663 -0.4323 -0.5529
23566SOL    HW279477   9.917   0.623   7.386  0.0189  1.1243  0.3609
23567SOL     OW79478   3.118   9.673   7.337 -0.2713 -0.7228  0.2761
23567SOL    HW179479   3.056   9.630   7.396 -0.0314 -0.2377  0.8934
23567SOL    HW279480   3.192   9.696   7.393  0.4670 -1.2855 -0.4550
23568SOL     OW79481   8.340  11.655  10.524  0.5185  0.0438  0.2269
23568SOL    HW179482   8.319  11.566  10.554  0.1143 -0.8524 -2.4545
23568SOL    HW279483   8.261  11.683  10.478  1.0516  1.3752  0.0964
23569SOL     OW79484   5.716   6.518   4.893  0.5908 -0.3203  0.0550
23569SOL    HW179485   5.751   6.437   4.929 -0.0695 -0.2326  0.9129
23569SOL    HW279486   5.636   6.492   4.848  0.2147 -0.1007  0.5954
23570SOL     OW79487   4.634   2.194   9.189 -0.0786 -0.0763  0.7336
23570SOL    HW179488   4.700   2.187   9.259 -0.5307 -0.5333  1.1245
23570SOL    HW279489   4.628   2.106   9.152  0.0898  0.1435  0.1781
23571SOL     OW79490   5.043   9.979   9.600  0.1721  0.4674 -0.5478
23571SOL    HW179491   4.951   9.986   9.626 -0.2838  0.2505 -2.0056
23571SOL    HW279492   5.049  10.029   9.518  1.4961  0.9712 -0.1733
23572SOL     OW79493  10.882   0.646   2.076 -0.3451  0.3930 -0.0689
23572SOL    HW179494  10.956   0.615   2.129  1.4733  1.5474 -1.7919
23572SOL    HW279495  10.819   0.574   2.079  0.9636 -0.7716  1.2173
23573SOL     OW79496   6.592  11.905   0.019  0.0922 -0.1743  0.6449
23573SOL    HW179497   6.613  11.817  -0.012 -1.2207  0.0326 -0.9559
23573SOL    HW279498   6.650  11.918   0.094  1.4908 -1.7535 -0.0975
23574SOL     OW79499   6.329   1.134   3.068 -0.3292  0.5748 -0.2633
23574SOL    HW179500   6.372   1.157   2.986  1.1492  0.0554  0.3353
23574SOL    HW279501   6.347   1.208   3.126 -2.5178  1.5770 -0.7593
23575SOL     OW79502   1.769   9.446   7.749 -0.1194 -0.4534 -0.4632
23575SOL    HW179503   1.674   9.458   7.753 -0.1072 -0.4163 -0.2835
23575SOL    HW279504   1.804   9.518   7.802 -0.0734 -1.9347  1.6104
23576SOL     OW79505  12.596  12.494   3.431  0.7663  0.1500 -0.1272
23576SOL    HW179506  12.510  12.453   3.426  0.5240  0.1835  2.4837
23576SOL    HW279507  12.589  12.556   3.504  2.9174  0.3493 -0.0243
23577SOL     OW79508   1.534   9.273   1.356  0.0177 -1.1710  0.3037
23577SOL    HW179509   1.567   9.313   1.275 -2.2264 -2.0971 -1.1920
23577SOL    HW279510   1.593   9.303   1.424  0.3141  2.1240 -1.2144
23578SOL     OW79511  11.989  10.269   1.135  0.0703  0.2602 -0.0364
23578SOL    HW179512  11.954  10.348   1.094 -0.6417 -0.1858 -0.2956
23578SOL    HW279513  12.011  10.212   1.062  0.4434  0.1546  0.1561
23579SOL     OW79514   6.653   8.523   7.811  0.0812 -0.0781  0.0870
23579SOL    HW179515   6.590   8.585   7.775  0.8881  1.3154  0.9775
23579SOL    HW279516   6.628   8.513   7.903 -0.4246 -1.6087 -0.1893
23580SOL     OW79517   4.918   6.317  10.881  0.7822 -0.4097  0.1647
23580SOL    HW179518   4.850   6.279  10.825  0.1792  0.8999 -0.0344
23580SOL    HW279519   4.965   6.378  10.824 -0.0185  1.1563  1.1013
23581SOL     OW79520   5.104   8.493   6.976 -0.1255  0.0126  0.6778
23581SOL    HW179521   5.111   8.587   6.960 -1.0909  0.0410  0.3353
23581SOL    HW279522   5.192   8.458   6.959  0.6839  1.0682  2.4378
23582SOL     OW79523   3.202  10.690   4.576 -0.2092  0.2340  0.8828
23582SOL    HW179524   3.237  10.773   4.608  0.5797  1.1555 -2.0483
23582SOL    HW279525   3.277  10.632   4.571  0.2352  0.8952 -1.4421
23583SOL     OW79526  11.261   2.441  11.876  0.0449 -0.3787 -0.5771
23583SOL    HW179527  11.283   2.483  11.958  1.2101 -1.0124 -0.5391
23583SOL    HW279528  11.309   2.490  11.809  0.7529 -1.0967 -0.6225
23584SOL     OW79529  12.309   3.365   8.329 -0.0243 -0.2045 -1.0114
23584SOL    HW179530  12.251   3.289   8.326 -0.7940  0.3985 -1.4479
23584SOL    HW279531  12.394   3.331   8.302 -0.7055 -0.5980 -2.7613
23585SOL     OW79532   3.272  10.684   2.436 -0.1966  0.2797 -0.0962
23585SOL    HW179533   3.292  10.695   2.343  2.3514 -2.8956 -0.0549
23585SOL    HW279534   3.184  10.645   2.436 -0.7409  1.3987 -1.0255
23586SOL     OW79535   8.324   8.769   8.533  0.3280  0.4784  0.1197
23586SOL    HW179536   8.242   8.789   8.578  0.0021 -2.4235  1.0438
23586SOL    HW279537   8.376   8.723   8.599  1.6729  0.0609 -1.1847
23587SOL     OW79538   3.997   6.249  10.047 -0.2172  0.8185 -0.2566
23587SOL    HW179539   4.021   6.272  10.137 -2.0083 -2.0191  1.0684
23587SOL    HW279540   3.905   6.277  10.039 -1.4037 -2.4806  0.3253
23588SOL     OW79541   6.932   9.012   3.010  0.1892 -0.1272 -0.0464
23588SOL    HW179542   6.882   9.087   3.043  0.9956  0.2651  0.3184
23588SOL    HW279543   7.019   9.021   3.051  0.7179 -0.5141 -1.0527
23589SOL     OW79544   2.028   9.726   6.351 -0.2721  0.0628  0.8251
23589SOL    HW179545   1.982   9.659   6.299  0.4091  0.0783  0.1937
23589SOL    HW279546   2.119   9.698   6.352 -0.5643 -1.1119  3.8690
23590SOL     OW79547   0.924   5.389  10.737  0.4501 -0.2876  0.2097
23590SOL    HW179548   0.895   5.474  10.769 -0.7439 -0.8350  0.6617
23590SOL    HW279549   0.853   5.329  10.761  0.6421 -1.1691 -1.3030
23591SOL     OW79550  10.752   6.730   7.168  0.0082  0.0963 -0.1925
23591SOL    HW179551  10.754   6.794   7.097  0.1862  1.3310  0.8872
23591SOL    HW279552  10.713   6.652   7.129  0.2334  0.6931 -1.6768
23592SOL     OW79553  10.926   2.153   3.674  0.0935  0.4849  0.4646
23592SOL    HW179554  11.005   2.099   3.674  0.8273  1.5242  0.5992
23592SOL    HW279555  10.871   2.115   3.742  0.5489 -0.1558  0.4850
23593SOL     OW79556   4.398   2.905   9.755 -0.0812  0.2565  0.7546
23593SOL    HW179557   4.340   2.965   9.803 -0.0018 -0.3350  1.6287
23593SOL    HW279558   4.457   2.871   9.823  1.0835  0.6022 -0.0607
23594SOL     OW79559  11.984   2.314   8.511  0.3759 -0.3303  0.0461
23594SOL    HW179560  12.056   2.311   8.448  2.3011 -1.2205  2.1835
23594SOL    HW279561  11.955   2.223   8.519 -1.7845  0.1162 -1.5215
23595SOL     OW79562  11.028   7.295   3.097 -0.1892  0.0426  0.4301
23595SOL    HW179563  11.042   7.389   3.109  0.1217 -0.2807  3.3540
23595SOL    HW279564  10.950   7.289   3.043 -0.7011  1.9917  0.8846
23596SOL     OW79565   9.581   4.864   2.891 -0.3824 -0.7600  0.2140
23596SOL    HW179566   9.661   4.814   2.904 -0.7234 -1.2957  0.2656
23596SOL    HW279567   9.511   4.808   2.924 -0.7659 -0.2267  0.3320
23597SOL     OW79568   9.961   6.703   8.667 -0.1356  0.1956 -1.0721
23597SOL    HW179569   9.914   6.786   8.663  1.4767  1.4834  2.2858
23597SOL    HW279570   9.924   6.658   8.743  2.2349  0.1689  0.1750
23598SOL     OW79571   3.610   0.963   4.252  0.0992  0.1144  0.3542
23598SOL    HW179572   3.547   1.023   4.291 -0.0013 -0.5299  1.2218
23598SOL    HW279573   3.558   0.886   4.227  0.4354 -0.1803  0.5438
23599SOL     OW79574   2.616  12.210   8.005  0.2792 -0.2977  1.1208
23599SOL    HW179575   2.573  12.160   7.936  0.9104  1.3929 -0.5646
23599SOL    HW279576   2.547  12.221   8.072 -1.4097  0.7488 -0.6747
23600SOL     OW79577   0.724  11.050   1.022 -0.5252 -0.3181  0.2105
23600SOL    HW179578   0.782  10.988   1.066  1.1008  0.3375 -0.9459
23600SOL    HW279579   0.721  11.126   1.080  0.6458  0.0701 -0.2242
23601SOL     OW79580   6.022  10.515   7.594  0.9746  0.0567  0.0088
23601SOL    HW179581   5.970  10.563   7.529  1.6512 -0.4295 -0.9173
23601SOL    HW279582   5.961  10.497   7.665  0.4375  1.3697 -0.0911
23602SOL     OW79583   2.761   8.779   9.635  0.6020  0.3337  0.6083
23602SOL    HW179584   2.709   8.859   9.643  2.1619  1.4363  0.1978
23602SOL    HW279585   2.713   8.726   9.572 -0.3316  1.0329  0.6985
23603SOL     OW79586   1.575   5.210   3.769  0.1990  0.0825  0.0106
23603SOL    HW179587   1.652   5.211   3.826 -0.1340  0.6429  0.4619
23603SOL    HW279588   1.587   5.286   3.711  0.1843 -0.0715 -0.1974
23604SOL     OW79589  12.351   9.370   6.070  0.7059  0.0836 -0.2770
23604SOL    HW179590  12.314   9.326   5.994  0.2470  1.0626 -0.6290
23604SOL    HW279591  12.332   9.463   6.056 -1.8913  0.0911  2.3775
23605SOL     OW79592   3.368   5.194   9.179 -0.1449  0.4142  0.2846
23605SOL    HW179593   3.299   5.243   9.223 -0.4539  0.7938 -0.5928
23605SOL    HW279594   3.393   5.125   9.241 -1.8583 -0.2147  0.3348
23606SOL     OW79595   6.458   4.015   2.301  0.6282  0.2630 -0.4069
23606SOL    HW179596   6.505   4.062   2.371 -0.7390 -0.2520  0.9252
23606SOL    HW279597   6.429   4.084   2.242  0.7340  0.8609  0.2187
23607SOL     OW79598   8.745   2.050   5.432  0.2603 -0.2662  0.0662
23607SOL    HW179599   8.692   2.010   5.501 -0.1120  0.5843  0.2796
23607SOL    HW279600   8.836   2.031   5.458  0.1246 -0.0168  0.7669
23608SOL     OW79601   7.912   8.645   1.836  0.6378  0.4810  0.6002
23608SOL    HW179602   7.888   8.737   1.825  0.1119  0.3202  0.3987
23608SOL    HW279603   7.912   8.632   1.931  1.6835  0.9395  0.6782
23609SOL     OW79604   2.996   9.464   2.652 -0.0200  0.5227 -0.2806
23609SOL    HW179605   3.074   9.515   2.671 -0.2841 -0.0498  2.9223
23609SOL    HW279606   2.929   9.530   2.631  0.7529  1.1591 -0.7862
23610SOL     OW79607   5.218   0.636  10.770  0.4137 -0.0866 -0.4213
23610SOL    HW179608   5.126   0.634  10.797  0.6506 -3.4946  0.6967
23610SOL    HW279609   5.229   0.721  10.729 -2.6581  1.3514  1.3235
23611SOL     OW79610   5.524   2.419   6.369 -0.4084 -0.1388 -0.0052
23611SOL    HW179611   5.465   2.437   6.442  0.1760  1.2113  0.1617
23611SOL    HW279612   5.580   2.348   6.400 -0.0864  0.5060  0.9056
23612SOL     OW79613  12.242   5.863   3.300 -0.2715  0.1193 -0.1425
23612SOL    HW179614  12.256   5.781   3.346  1.0482  0.0969 -0.5482
23612SOL    HW279615  12.293   5.855   3.220 -1.8092  0.5177 -1.2121
23613SOL     OW79616   7.921  12.064  10.139  0.1932  0.3053 -0.3944
23613SOL    HW179617   7.951  12.155  10.143  0.0616  0.3495 -0.4053
23613SOL    HW279618   7.854  12.064  10.070 -0.2547  0.3292  0.0341
23614SOL     OW79619   0.479   2.309   1.736 -0.3702 -0.1139 -0.1715
23614SOL    HW179620   0.464   2.365   1.660 -0.0539 -0.8301 -0.7755
23614SOL    HW279621   0.435   2.354   1.808 -3.3855 -0.9019 -1.3416
23615SOL     OW79622   8.735   0.748   8.125 -0.0821 -0.6282  0.3961
23615SOL    HW179623   8.791   0.720   8.052  0.8140  1.9030  0.0210
23615SOL    HW279624   8.796   0.779   8.192 -0.9608  0.9395  0.5190
23616SOL     OW79625   2.243   9.834   8.850  0.7417  0.4153 -0.9047
23616SOL    HW179626   2.170   9.896   8.852  0.1129 -0.2375 -2.2901
23616SOL    HW279627   2.233   9.787   8.767  1.9208 -0.6779 -0.4716
23617SOL     OW79628  10.972   4.086   6.457 -0.2059 -0.0818 -0.1897
23617SOL    HW179629  11.033   4.017   6.432  1.4970  0.7295  1.4538
23617SOL    HW279630  10.891   4.040   6.478 -0.0055 -1.2583 -1.8260
23618SOL     OW79631  12.420   9.321   8.481  0.2657  0.0372  0.3094
23618SOL    HW179632  12.370   9.290   8.557 -0.7329  0.9424  0.0513
23618SOL    HW279633  12.411   9.251   8.417 -2.9193  1.1589 -0.6948
23619SOL     OW79634   0.268   2.101  12.043  0.0730 -0.1452  0.5903
23619SOL    HW179635   0.196   2.150  12.004  1.2572  0.4094 -1.0318
23619SOL    HW279636   0.336   2.166  12.058  0.2879 -0.6658  2.0260
23620SOL     OW79637   6.180   6.724   2.560  0.0954  0.3893 -0.2505
23620SOL    HW179638   6.157   6.747   2.470  1.8340  0.3756 -0.7373
23620SOL    HW279639   6.164   6.629   2.564  1.5957  0.0529 -1.1187
23621SOL     OW79640   0.164  12.440  11.443  0.6150 -0.2452  0.1179
23621SOL    HW179641   0.174  12.430  11.538 -0.5600  1.0456  0.4052
23621SOL    HW279642   0.196  12.528  11.424  0.5198 -0.3679 -0.6458
23622SOL     OW79643   7.068   4.541   8.912 -0.0496 -0.1890  0.7491
23622SOL    HW179644   7.005   4.614   8.914 -0.0892 -0.1540 -0.5884
23622SOL    HW279645   7.095   4.536   8.820  0.5443 -1.3686  0.9737
23623SOL     OW79646   2.036  12.342   2.304 -0.3079 -0.1889  0.1715
23623SOL    HW179647   2.082  12.264   2.274  0.0430 -0.4961  1.4690
23623SOL    HW279648   2.035  12.400   2.227  2.9956  0.1936  0.2723
23624SOL     OW79649   5.305   3.240   2.946 -0.1295  0.0558 -0.4779
23624SOL    HW179650   5.370   3.304   2.917 -2.5213  2.5651 -0.6875
23624SOL    HW279651   5.316   3.236   3.041 -0.0126  0.8802 -0.4524
23625SOL     OW79652  10.181  12.422   8.867  0.2836  0.6751 -0.1221
23625SOL    HW179653  10.161  12.391   8.956  0.5175 -1.0338 -0.6316
23625SOL    HW279654  10.099  12.411   8.819  0.7671 -0.5919 -0.6839
23626SOL     OW79655   4.396  11.972   9.680 -0.6147 -0.2930  0.2546
23626SOL    HW179656   4.463  11.909   9.705 -0.0744  0.1756 -0.0098
23626SOL    HW279657   4.443  12.053   9.663 -1.2189 -0.0095 -0.1261
23627SOL     OW79658  11.163   0.816   8.882  0.0702  0.1144 -0.2879
23627SOL    HW179659  11.235   0.764   8.917 -0.6009 -1.1612 -0.7587
23627SOL    HW279660  11.205   0.895   8.849  1.4895 -1.2175 -1.8635
23628SOL     OW79661   9.949   9.854   1.072 -0.6096 -0.2802  0.4908
23628SOL    HW179662  10.001   9.923   1.112 -0.1495 -0.0320 -0.4910
23628SOL    HW279663   9.993   9.773   1.098 -0.2776 -0.1188  0.4467
23629SOL     OW79664   5.202   3.204   8.007  0.1272 -0.1313  0.2628
23629SOL    HW179665   5.120   3.191   7.959 -0.4692  0.3690  1.1275
23629SOL    HW279666   5.181   3.269   8.074  2.0186  2.4831 -1.4794
23630SOL     OW79667   2.866   2.244  11.453  0.1577  0.7570  0.2685
23630SOL    HW179668   2.904   2.205  11.532  0.6976 -2.0594 -1.2706
23630SOL    HW279669   2.791   2.189  11.432 -1.1231  2.5709 -0.2223
23631SOL     OW79670  10.108   8.035  11.285 -0.4016 -0.3455 -0.3473
23631SOL    HW179671  10.077   8.113  11.238 -1.0351 -0.4122 -0.0507
23631SOL    HW279672  10.029   7.996  11.321  0.1557  0.1343  1.4601
23632SOL     OW79673   6.510   6.823   8.313 -0.3561 -0.8131 -0.6459
23632SOL    HW179674   6.492   6.916   8.329  0.4633 -0.8586  0.7186
23632SOL    HW279675   6.574   6.824   8.242 -2.8394 -0.5207 -3.0203
23633SOL     OW79676   5.433  10.459   8.497  0.1897  0.1390 -0.4867
23633SOL    HW179677   5.407  10.538   8.451 -0.6991 -0.6534 -1.3816
23633SOL    HW279678   5.352  10.412   8.513  0.2417  0.9213  3.0631
23634SOL     OW79679   7.081   0.987   7.234 -0.1326 -0.1896  0.2131
23634SOL    HW179680   7.112   1.054   7.295 -2.5408  1.7921 -0.5837
23634SOL    HW279681   7.097   1.023   7.147 -1.4578 -0.5908 -0.2331
23635SOL     OW79682   3.386   8.260   6.640 -0.0218  0.1356 -0.4790
23635SOL    HW179683   3.423   8.335   6.687 -0.9370  0.3160 -0.0467
23635SOL    HW279684   3.408   8.277   6.548 -3.7946  3.1934 -1.0727
23636SOL     OW79685   8.746   4.431   8.909 -0.1920  0.0208  0.5297
23636SOL    HW179686   8.804   4.367   8.950 -0.3048 -0.6054 -0.2667
23636SOL    HW279687   8.805   4.500   8.879  0.3869 -1.2766 -1.5558
23637SOL     OW79688   6.433   3.205  11.946  0.2356 -0.3585  0.0240
23637SOL    HW179689   6.409   3.285  11.993 -0.0696 -0.9368  0.8869
23637SOL    HW279690   6.523   3.220  11.918  0.7461 -0.2985  1.5593
23638SOL     OW79691   3.546   4.901   0.374  0.0998 -0.1682 -0.5095
23638SOL    HW179692   3.459   4.875   0.343  1.3210 -2.9490 -1.9324
23638SOL    HW279693   3.547   4.873   0.466 -0.7791  0.7612 -0.1920
23639SOL     OW79694   5.116   6.268   6.632 -0.1613  0.4399  0.0620
23639SOL    HW179695   5.176   6.258   6.706 -0.5689 -0.0664  0.3266
23639SOL    HW279696   5.107   6.180   6.596  0.9661  0.8503 -1.3492
23640SOL     OW79697  11.275   2.967   2.599  0.4316 -0.4653 -0.9945
23640SOL    HW179698  11.368   2.990   2.610  0.6878 -1.9709  0.2973
23640SOL    HW279699  11.266   2.882   2.642 -1.6241 -0.2361 -0.8867
23641SOL     OW79700   8.368   8.362   2.954 -0.0794  0.1602 -0.1684
23641SOL    HW179701   8.296   8.418   2.926  1.4786  2.4486  0.1710
23641SOL    HW279702   8.414   8.413   3.021  1.8911 -1.1849 -0.4088
23642SOL     OW79703  11.400  10.185   9.801 -0.0168  0.1270  0.0015
23642SOL    HW179704  11.383  10.099   9.761 -0.7294  0.6474 -0.8443
23642SOL    HW279705  11.364  10.178   9.889  0.0922 -0.4997  0.0015
23643SOL     OW79706   0.825   1.648   2.741 -0.5142  0.9080  0.2804
23643SOL    HW179707   0.746   1.594   2.748  0.0888 -0.3211 -1.6054
23643SOL    HW279708   0.793   1.738   2.749 -2.1106  0.4313 -0.3105
23644SOL     OW79709   9.037   9.528   1.254 -0.2959 -0.3933  0.1169
23644SOL    HW179710   8.945   9.547   1.272 -0.2941 -0.2700 -0.0076
23644SOL    HW279711   9.044   9.432   1.260  0.0491 -0.2665  2.4461
23645SOL     OW79712   6.272   0.127  12.227  0.0433  0.5566 -0.4402
23645SOL    HW179713   6.300   0.215  12.249 -0.4689  0.5519  0.2732
23645SOL    HW279714   6.178   0.125  12.248  0.5950 -0.9954  2.4510
23646SOL     OW79715   2.131   8.970  10.567 -0.2325 -0.3335  0.0944
23646SOL    HW179716   2.160   8.879  10.573  0.8295 -0.1960 -2.2844
23646SOL    HW279717   2.211   9.022  10.572 -0.6102  0.3601 -0.8398
23647SOL     OW79718   2.061   6.492   6.912 -0.0705 -0.3106 -0.1316
23647SOL    HW179719   1.987   6.550   6.893 -1.3520 -1.9482 -0.4115
23647SOL    HW279720   2.122   6.506   6.840 -0.8843 -0.1105 -0.7957
23648SOL     OW79721   1.963   1.744   7.032  0.5867 -0.4971 -0.1443
23648SOL    HW179722   1.988   1.831   7.064  0.5363 -1.3865  2.6071
23648SOL    HW279723   1.872   1.754   7.004  0.6492  0.3681 -0.0720
23649SOL     OW79724   6.251   4.587  10.138  0.6477  0.1637 -0.0831
23649SOL    HW179725   6.264   4.525  10.210  1.8747  1.2485  0.6685
23649SOL    HW279726   6.264   4.535  10.059 -2.3003 -1.4190  0.3512
23650SOL     OW79727  11.663   6.779   3.789  0.0835  0.5862 -0.6732
23650SOL    HW179728  11.727   6.825   3.843 -1.0195 -0.6997  1.9181
23650SOL    HW279729  11.678   6.686   3.808 -0.6873  0.1106 -2.2321
23651SOL     OW79730   0.352   3.375   1.900  0.4209  0.3384  0.0802
23651SOL    HW179731   0.416   3.446   1.899  1.3145 -0.4421  0.2487
23651SOL    HW279732   0.385   3.313   1.835 -0.7477  0.4100 -0.6057
23652SOL     OW79733  12.237   2.750   9.144 -0.3242 -0.5423  0.3410
23652SOL    HW179734  12.148   2.717   9.131 -1.1115  1.0957  1.1254
23652SOL    HW279735  12.283   2.730   9.063 -1.2137 -1.9696  0.1544
23653SOL     OW79736   6.102  10.131  11.671 -0.4318 -0.4141  0.2151
23653SOL    HW179737   6.065  10.116  11.584 -0.1627 -0.1720  0.0579
23653SOL    HW279738   6.174  10.069  11.677 -0.1724 -0.1262  0.0924
23654SOL     OW79739   3.999  10.911   7.865  0.1227  0.6140  0.7233
23654SOL    HW179740   4.046  10.964   7.929 -1.0900  1.7680  0.6785
23654SOL    HW279741   4.035  10.938   7.780  0.6439  0.1787  0.7956
23655SOL     OW79742   2.841   7.972   0.369 -0.4032  0.0154  0.5400
23655SOL    HW179743   2.866   8.063   0.350  1.2663 -0.4849  0.1868
23655SOL    HW279744   2.785   7.978   0.446 -1.0658  1.4215 -0.0161
23656SOL     OW79745  10.395   6.365   9.588 -0.5725 -0.4695 -1.0190
23656SOL    HW179746  10.379   6.355   9.495  1.7956  2.5957 -1.9057
23656SOL    HW279747  10.352   6.448   9.611 -0.2879 -0.6859  0.3996
23657SOL     OW79748   3.566  11.051   1.870 -0.1010  0.0305  0.1815
23657SOL    HW179749   3.582  11.143   1.892 -0.7688 -0.2813  2.1913
23657SOL    HW279750   3.652  11.010   1.872  0.0097  0.2997  0.9011
23658SOL     OW79751   5.762  10.352   1.414 -0.6921 -0.1385  0.6881
23658SOL    HW179752   5.774  10.301   1.494 -1.0560 -1.2824  0.0500
23658SOL    HW279753   5.785  10.290   1.343 -0.8022  0.7064 -0.1030
23659SOL     OW79754   2.245   5.268   0.699  0.1810  0.1306  0.2433
23659SOL    HW179755   2.218   5.284   0.608 -0.1499 -0.6063  0.2052
23659SOL    HW279756   2.168   5.290   0.751  0.1775 -0.0102  0.2973
23660SOL     OW79757   7.985   1.307   0.620 -0.4627 -0.4219 -0.0692
23660SOL    HW179758   7.901   1.261   0.615  0.0308 -1.3236 -0.4589
23660SOL    HW279759   7.991   1.355   0.537 -0.7092 -0.1618  0.0664
23661SOL     OW79760   0.708   9.551   1.095 -0.2976  0.2843  0.2387
23661SOL    HW179761   0.732   9.518   1.182 -0.9441  1.5637  0.9419
23661SOL    HW279762   0.769   9.623   1.078  0.3065 -0.4317 -0.7180
23662SOL     OW79763   7.203  12.516   2.961  0.5326 -0.0002 -0.3200
23662SOL    HW179764   7.267  12.501   3.030 -0.8240 -0.5678  0.8696
23662SOL    HW279765   7.247  12.574   2.899  2.3554 -0.7913  0.1808
23663SOL     OW79766  10.941   5.731   3.257 -0.4329 -0.2420 -0.0310
23663SOL    HW179767  11.027   5.736   3.299 -0.6848 -0.5782  0.5386
23663SOL    HW279768  10.949   5.785   3.179  0.3281 -0.3487 -0.0344
23664SOL     OW79769   8.235   4.463   2.093  0.0363  0.5516  0.3529
23664SOL    HW179770   8.314   4.410   2.103  0.9045  2.2256  4.0245
23664SOL    HW279771   8.169   4.419   2.147 -0.5086  0.9726  0.0373
23665SOL     OW79772  12.164   4.817  10.131 -0.1396  0.2223  0.0267
23665SOL    HW179773  12.109   4.806  10.209 -1.1087 -1.6944 -0.8644
23665SOL    HW279774  12.110   4.785  10.059  1.7403 -0.7024 -1.0387
23666SOL     OW79775   8.190  11.062   1.155 -0.3062  0.1176 -0.0325
23666SOL    HW179776   8.097  11.039   1.153 -0.2363 -0.2531  0.7793
23666SOL    HW279777   8.232  10.991   1.204  0.1685  1.0934  1.0124
23667SOL     OW79778   8.123   9.946   5.607  0.0478 -0.3158  0.2793
23667SOL    HW179779   8.053   9.886   5.631 -0.5744 -0.2083 -1.1745
23667SOL    HW279780   8.084  10.003   5.541  1.2182  0.3969  0.1807
23668SOL     OW79781  10.548   3.763   9.963 -0.7440 -0.3747  0.0036
23668SOL    HW179782  10.574   3.855   9.961 -1.1983 -0.2466 -1.5465
23668SOL    HW279783  10.623   3.717   9.926 -0.9125 -0.5187 -0.1549
23669SOL     OW79784   3.831   9.152   6.911 -0.0444 -0.0170 -0.3773
23669SOL    HW179785   3.832   9.081   6.975  0.7094 -1.5407 -2.0148
23669SOL    HW279786   3.786   9.224   6.956 -2.1531 -1.9784  0.8243
23670SOL     OW79787   6.749   0.479   1.094 -0.3656  0.0365 -0.5129
23670SOL    HW179788   6.703   0.508   1.015  1.9695  2.3040 -1.1717
23670SOL    HW279789   6.840   0.470   1.066  0.2235 -0.8402  1.5400
23671SOL     OW79790  10.719   7.320   5.408 -0.4972 -0.1375  0.1100
23671SOL    HW179791  10.736   7.389   5.472 -3.6872  0.6946  0.2719
23671SOL    HW279792  10.648   7.269   5.447  0.5653 -2.4686 -0.8195
23672SOL     OW79793   7.896   0.807   6.633 -0.5479  0.1741 -0.0488
23672SOL    HW179794   7.806   0.827   6.605  0.1331  0.6480 -2.0705
23672SOL    HW279795   7.936   0.768   6.555  0.9522 -0.1746  0.8833
23673SOL     OW79796   1.187  12.183   6.032 -0.3534  0.6093  0.0846
23673SOL    HW179797   1.179  12.272   5.998  0.0880  0.5303 -0.2413
23673SOL    HW279798   1.281  12.172   6.046 -0.3055 -0.1245 -0.7569
23674SOL     OW79799   5.842   8.368   7.572 -0.4209 -0.2551  0.6140
23674SOL    HW179800   5.844   8.317   7.653 -0.0372 -0.9663  0.1714
23674SOL    HW279801   5.752   8.399   7.565 -0.2372  0.6009  1.7805
23675SOL     OW79802  10.885   5.878   7.576 -0.2510 -0.3601 -0.1953
23675SOL    HW179803  10.803   5.926   7.588 -0.3414 -0.8758  1.4994
23675SOL    HW279804  10.940   5.908   7.649  2.0265  1.8085 -2.5809
23676SOL     OW79805   5.567  10.982   4.861  0.2290  0.2109 -0.1620
23676SOL    HW179806   5.532  10.899   4.894  0.0815 -0.5434 -2.0652
23676SOL    HW279807   5.490  11.035   4.843  0.3261  0.8329  1.1321
23677SOL     OW79808   3.106   5.860   5.385 -0.4719 -0.0119 -0.0422
23677SOL    HW179809   3.117   5.769   5.360 -2.2887 -0.2363 -0.1963
23677SOL    HW279810   3.165   5.909   5.328 -0.2048 -1.0140 -0.6423
23678SOL     OW79811   2.685  12.542   9.550  0.3003 -0.0224 -0.1545
23678SOL    HW179812   2.591  12.551   9.536  0.2712 -0.9979 -0.6889
23678SOL    HW279813   2.696  12.549   9.645 -0.3251 -0.0112 -0.0802
23679SOL     OW79814   2.865   3.162   2.584 -0.1277 -0.0337 -0.4815
23679SOL    HW179815   2.882   3.223   2.656  0.0697  0.7171 -1.1437
23679SOL    HW279816   2.946   3.111   2.577  1.2651  2.1978 -2.3430
23680SOL     OW79817   9.381   6.052  11.573  0.0314  0.3475  0.7861
23680SOL    HW179818   9.325   6.103  11.514 -0.7841  0.5780  1.7132
23680SOL    HW279819   9.470   6.072  11.545 -0.3335  0.3273 -0.4489
23681SOL     OW79820  11.546   6.062   8.910 -0.1408  0.0457  0.8330
23681SOL    HW179821  11.504   6.147   8.924 -1.4897 -0.2969 -0.7322
23681SOL    HW279822  11.640   6.079   8.921 -0.4435  1.5653  1.2778
23682SOL     OW79823   4.219   2.517   1.986 -0.3017 -0.4825 -0.1321
23682SOL    HW179824   4.295   2.556   1.941 -0.4543 -0.1874 -0.1346
23682SOL    HW279825   4.149   2.581   1.976 -0.4740 -0.6285  0.1198
23683SOL     OW79826   2.278   2.968  11.948 -0.0343  0.2330 -0.5103
23683SOL    HW179827   2.212   2.946  12.013  2.0299 -0.4745  1.4600
23683SOL    HW279828   2.234   3.031  11.890 -2.6066 -0.7236  0.2607
23684SOL     OW79829   6.811   8.558   7.208 -0.7628  0.1898 -0.1408
23684SOL    HW179830   6.759   8.588   7.282 -2.1143  2.2072 -1.8038
23684SOL    HW279831   6.758   8.490   7.167 -0.0325 -0.8999  0.6808
23685SOL     OW79832   3.888   3.937   1.239  0.0655  0.3410  0.3729
23685SOL    HW179833   3.812   3.895   1.200  0.3804 -0.3663  0.5023
23685SOL    HW279834   3.855   3.977   1.320  0.1190 -1.3314  1.2724
23686SOL     OW79835  10.718  11.528   1.238 -0.0520  0.1675 -0.2778
23686SOL    HW179836  10.705  11.527   1.143  0.9155 -0.6397 -0.4217
23686SOL    HW279837  10.781  11.457   1.254 -0.5148  0.0316  1.0155
23687SOL     OW79838   6.679  11.466   0.977 -0.0861 -1.0387  0.0874
23687SOL    HW179839   6.725  11.513   1.047  1.0181 -1.7852 -0.1083
23687SOL    HW279840   6.625  11.401   1.022 -0.6536 -0.4230  0.3042
23688SOL     OW79841   1.627   7.626   6.503 -0.7606 -0.6864 -0.2644
23688SOL    HW179842   1.630   7.659   6.593 -1.0959 -0.8630 -0.1891
23688SOL    HW279843   1.683   7.686   6.454 -1.0504 -0.2423 -0.0535
23689SOL     OW79844   0.307   8.199   5.426 -0.7361  0.1098  0.1703
23689SOL    HW179845   0.318   8.168   5.336 -1.7678  1.3948 -0.4233
23689SOL    HW279846   0.240   8.142   5.463  0.7703 -1.4298  0.6726
23690SOL     OW79847   7.486   4.208   7.233 -0.3369 -0.0865  0.0696
23690SOL    HW179848   7.476   4.136   7.171 -2.0557  1.1560 -1.2045
23690SOL    HW279849   7.526   4.279   7.183  1.2039 -0.0641  1.2629
23691SOL     OW79850   0.490   1.398   0.026 -0.7506 -0.5793 -0.0642
23691SOL    HW179851   0.503   1.382   0.119 -0.3523  1.1226  0.1938
23691SOL    HW279852   0.550   1.337  -0.017  1.3097  0.6816  0.8892
23692SOL     OW79853   5.484   9.232   4.274  0.1659  0.2386 -0.8705
23692SOL    HW179854   5.579   9.227   4.264  0.1353 -0.1200 -1.0182
23692SOL    HW279855   5.470   9.301   4.338  0.5592 -0.1080 -0.4024
23693SOL     OW79856   6.271   3.661   5.292 -0.4212 -0.3884  0.0967
23693SOL    HW179857   6.329   3.732   5.264 -1.6240  0.0178 -1.4710
23693SOL    HW279858   6.311   3.582   5.255 -0.8715 -0.0981 -1.0683
23694SOL     OW79859   7.773   6.156   1.506 -0.4823  0.2538  0.0734
23694SOL    HW179860   7.817   6.076   1.535  0.0116  0.5713  0.2113
23694SOL    HW279861   7.842   6.222   1.503 -0.8271  0.6050 -0.3331
23695SOL     OW79862   5.668   8.713   7.242  0.3828  0.0126 -0.2843
23695SOL    HW179863   5.622   8.716   7.326 -0.9066 -0.1719 -0.9608
23695SOL    HW279864   5.664   8.621   7.216 -1.6792  0.4816 -1.8336
23696SOL     OW79865   4.655   6.490   6.907  0.4760 -0.4115  0.0610
23696SOL    HW179866   4.679   6.398   6.915 -3.7303 -1.6665  1.0865
23696SOL    HW279867   4.630   6.516   6.996 -2.8304  0.1444 -0.8996
23697SOL     OW79868   4.212   5.157   6.824  0.1064 -0.3814 -0.1197
23697SOL    HW179869   4.280   5.091   6.841  0.7091  0.0848 -0.6794
23697SOL    HW279870   4.140   5.132   6.882  0.8045 -0.8100  0.5937
23698SOL     OW79871  12.119  12.572   1.341 -0.4957  0.1635 -0.3721
23698SOL    HW179872  12.071  12.655   1.341  1.1225  1.1640  1.0772
23698SOL    HW279873  12.064  12.512   1.392 -0.2540  1.2997  1.3175
23699SOL     OW79874   3.869   8.226   4.522  0.4465 -0.0596  0.5821
23699SOL    HW179875   3.779   8.199   4.505 -0.1415  2.7158 -1.5008
23699SOL    HW279876   3.889   8.190   4.609 -2.4908 -1.1347  0.9329
23700SOL     OW79877   3.443  10.845  11.243  0.5774 -0.0741  0.3492
23700SOL    HW179878   3.427  10.895  11.324 -0.4643  1.8406 -0.9646
23700SOL    HW279879   3.539  10.847  11.233  0.7269 -0.3595  1.5280
23701SOL     OW79880   1.987   6.531  11.983 -0.0438 -0.5369 -0.4185
23701SOL    HW179881   1.933   6.452  11.982  0.9893 -1.2831  0.1872
23701SOL    HW279882   2.033   6.527  12.067  2.2268 -0.8419 -1.5898
23702SOL     OW79883   3.843   9.241   3.835  0.4128  0.8060  0.0704
23702SOL    HW179884   3.926   9.194   3.828  0.8325  1.3333  1.2439
23702SOL    HW279885   3.779   9.173   3.858  0.2365  0.1844 -2.0154
23703SOL     OW79886   5.297   5.658   7.275  0.0239 -0.4476 -0.2361
23703SOL    HW179887   5.388   5.670   7.303 -0.3645 -0.3626  1.0608
23703SOL    HW279888   5.281   5.565   7.284  0.0307 -0.4876 -0.6293
23704SOL     OW79889   5.043   4.830   7.559 -0.0838  0.1096  0.2663
23704SOL    HW179890   4.970   4.794   7.609 -0.3316  2.8975  2.2000
23704SOL    HW279891   5.004   4.861   7.478 -0.9977  1.0472  1.0357
23705SOL     OW79892   6.261   3.149   5.744 -0.1857  0.1708 -0.1731
23705SOL    HW179893   6.313   3.207   5.800  0.6288  0.1060 -0.8293
23705SOL    HW279894   6.231   3.080   5.803 -0.9461  1.1094  0.5616
23706SOL     OW79895   8.362   7.731  12.000 -0.1849  0.4458 -0.4945
23706SOL    HW179896   8.282   7.742  11.950  0.3128 -0.8222 -1.6348
23706SOL    HW279897   8.338   7.671  12.071 -0.2296 -0.0511 -0.9226
23707SOL     OW79898   3.959   7.805   3.044  0.3377 -0.1974  0.0550
23707SOL    HW179899   4.041   7.756   3.033  0.2187 -0.0883 -1.4987
23707SOL    HW279900   3.986   7.897   3.048  0.5459 -0.2951  2.8071
23708SOL     OW79901   8.204  11.849   1.905  0.3502  0.5719  0.4882
23708SOL    HW179902   8.203  11.942   1.881 -1.1104  0.4163 -0.1665
23708SOL    HW279903   8.116  11.832   1.939  0.7290 -0.4827  0.9820
23709SOL     OW79904   8.370   8.042  11.979 -0.3406 -0.5105 -0.2583
23709SOL    HW179905   8.344   7.950  11.985 -2.8206 -0.2288 -3.6864
23709SOL    HW279906   8.288   8.091  11.989  0.8198  1.3208  0.7843
23710SOL     OW79907   6.201   6.122   6.794 -0.1304 -0.7767  0.2078
23710SOL    HW179908   6.172   6.049   6.739 -1.2800  0.2997 -0.6902
23710SOL    HW279909   6.171   6.100   6.882 -2.0755 -0.5804 -0.3727
23711SOL     OW79910   6.037   5.913   4.096  0.0155 -0.2867 -0.1863
23711SOL    HW179911   6.036   5.913   4.000  0.4206  1.8667 -0.2456
23711SOL    HW279912   6.130   5.901   4.119 -0.1358 -1.2199 -0.0436
23712SOL     OW79913   8.110   0.962   8.479  0.5917 -0.2945 -0.4445
23712SOL    HW179914   8.122   0.928   8.390 -0.9193 -0.5673 -0.5689
23712SOL    HW279915   8.017   0.985   8.483  1.0098  1.4204  0.4842
23713SOL     OW79916   7.525   6.295  10.216 -0.2392  0.4227  0.0065
23713SOL    HW179917   7.513   6.239  10.140 -0.8201 -1.2294  1.2549
23713SOL    HW279918   7.578   6.369  10.184  2.3790 -1.8263 -1.2665
23714SOL     OW79919   4.845  10.803  11.655 -0.1794  0.2806 -0.2098
23714SOL    HW179920   4.871  10.712  11.673 -0.8113  0.0850 -0.2744
23714SOL    HW279921   4.906  10.856  11.706 -0.0771 -0.1930  0.1658
23715SOL     OW79922   5.039   5.432   6.019 -0.2339  0.0889  0.0256
23715SOL    HW179923   5.106   5.404   5.956 -1.3394 -0.1627 -1.0776
23715SOL    HW279924   5.081   5.503   6.068  1.4229 -1.1600  0.5327
23716SOL     OW79925   2.686   6.618   2.781 -0.6329  0.2853 -0.2283
23716SOL    HW179926   2.605   6.567   2.772 -0.5482  0.1127 -0.0390
23716SOL    HW279927   2.656   6.709   2.790 -0.7890  0.2609 -0.4864
23717SOL     OW79928   7.759  12.063  11.577 -0.3404 -0.6926 -0.5980
23717SOL    HW179929   7.829  12.091  11.518 -0.1374 -0.5533 -0.2901
23717SOL    HW279930   7.682  12.113  11.548  0.0994  0.4459  0.1643
23718SOL     OW79931  11.373   5.221   3.540  0.0906  0.1550  0.2258
23718SOL    HW179932  11.371   5.258   3.628  0.1097  0.9582 -0.1004
23718SOL    HW279933  11.423   5.285   3.489 -0.1654 -0.1638 -0.4260
23719SOL     OW79934  12.517   4.554   0.708 -0.2668 -0.2506  0.3711
23719SOL    HW179935  12.547   4.645   0.719  2.7756 -0.6750 -2.5606
23719SOL    HW279936  12.425   4.562   0.682  0.0252  2.0741 -0.1860
23720SOL     OW79937   9.136  12.542   7.387  0.2807 -0.4161 -0.2125
23720SOL    HW179938   9.079  12.611   7.353  2.2747  1.4667  0.0392
23720SOL    HW279939   9.210  12.539   7.327 -0.5724 -3.7431 -1.2963
23721SOL     OW79940   9.023   1.145  10.539 -0.4264 -0.0592 -0.0470
23721SOL    HW179941   8.992   1.206  10.606 -1.3616 -0.2292 -0.3085
23721SOL    HW279942   9.050   1.201  10.466 -1.1969  0.0535 -0.2532
23722SOL     OW79943   5.568   7.033   5.375  0.8048  0.1265  0.2734
23722SOL    HW179944   5.481   7.011   5.409  0.5574  1.3553  0.4877
23722SOL    HW279945   5.625   6.962   5.407  0.1444  0.0408  1.3157
23723SOL     OW79946   6.785   2.091  12.077  0.6714 -0.1481 -0.3834
23723SOL    HW179947   6.791   1.997  12.059 -1.5038 -0.3651 -0.1836
23723SOL    HW279948   6.854   2.130  12.023  2.5067 -1.9518  0.5381
23724SOL     OW79949  12.084   2.347   5.417 -0.7173 -0.0209 -0.2082
23724SOL    HW179950  12.084   2.426   5.470 -1.3331 -0.2070  0.0820
23724SOL    HW279951  12.109   2.376   5.330 -0.0975  0.3541  0.0912
23725SOL     OW79952   1.627  10.885   7.295 -0.0260  0.0127 -0.2480
23725SOL    HW179953   1.698  10.844   7.342 -0.5688 -0.7973 -0.1226
23725SOL    HW279954   1.584  10.941   7.360 -0.8354 -1.1780  0.2598
23726SOL     OW79955   7.059   1.975   6.575 -0.0492 -0.2550 -0.3934
23726SOL    HW179956   7.005   2.020   6.640 -0.2045  0.2910 -0.9006
23726SOL    HW279957   7.102   2.045   6.526  1.9788 -0.6674  0.6792
23727SOL     OW79958   4.098   7.295   3.800 -0.2969 -0.1046 -0.6612
23727SOL    HW179959   4.162   7.350   3.755  0.9562 -0.3288  0.7599
23727SOL    HW279960   4.149   7.226   3.842 -1.4017 -0.1113  0.7895
23728SOL     OW79961   4.266   5.654   5.293  0.3690 -0.0812 -0.3940
23728SOL    HW179962   4.283   5.641   5.386  2.4612  0.2457 -0.6776
23728SOL    HW279963   4.221   5.574   5.265 -0.9158  0.1158  1.0121
23729SOL     OW79964   2.176  10.013   9.142 -0.8009  0.0872  0.7571
23729SOL    HW179965   2.147  10.011   9.051 -2.0629 -0.9643  1.1545
23729SOL    HW279966   2.243  10.082   9.144 -1.8430  1.2134 -0.6384
23730SOL     OW79967   5.376   6.281   0.983  0.2306 -0.0671 -0.1404
23730SOL    HW179968   5.298   6.226   0.983  0.6052 -0.6116  0.8282
23730SOL    HW279969   5.409   6.275   0.893 -2.3223  2.3575 -1.3748
23731SOL     OW79970   4.849   6.653   2.897  0.3608  0.5261  0.1422
23731SOL    HW179971   4.768   6.635   2.945  0.8061  1.4316  1.2966
23731SOL    HW279972   4.839   6.606   2.814 -1.2131  0.3694  0.3794
23732SOL     OW79973   1.627   7.007  11.050 -0.3531 -0.5900 -0.2957
23732SOL    HW179974   1.609   6.956  11.129  1.8925  0.4008  0.9645
23732SOL    HW279975   1.541   7.035  11.019 -1.2994 -0.1844  2.4102
23733SOL     OW79976   4.733  10.643   9.775 -0.4357  0.6279 -0.0599
23733SOL    HW179977   4.764  10.662   9.863  0.2568  0.7311 -0.3173
23733SOL    HW279978   4.638  10.650   9.780 -0.5253 -0.9628  1.0553
23734SOL     OW79979  12.452   4.645   7.386  0.3498  0.2989 -0.2353
23734SOL    HW179980  12.480   4.556   7.407  0.6641 -0.3899 -3.2095
23734SOL    HW279981  12.477   4.696   7.463 -0.1968 -2.1970  1.7345
23735SOL     OW79982   8.570   0.987   7.479 -0.3040 -0.1205 -0.0689
23735SOL    HW179983   8.621   1.003   7.400 -1.4625 -0.5653 -0.9375
23735SOL    HW279984   8.508   1.060   7.482  0.5860  0.6264  1.1798
23736SOL     OW79985  11.124   2.578  11.081 -0.4543 -0.4704 -0.8518
23736SOL    HW179986  11.077   2.568  11.164 -1.1495  2.4588 -0.7961
23736SOL    HW279987  11.055   2.587  11.015 -0.0931  2.4900 -0.9543
23737SOL     OW79988   2.175   4.801   8.531 -0.3678 -0.8753  0.1653
23737SOL    HW179989   2.184   4.818   8.625  0.3604 -0.0080 -0.0611
23737SOL    HW279990   2.083   4.822   8.513  0.0359  1.1779  0.2516
23738SOL     OW79991   4.285   6.686   5.726 -0.4594 -0.0320  0.1929
23738SOL    HW179992   4.338   6.752   5.681  0.4582 -1.0475 -0.2695
23738SOL    HW279993   4.197   6.697   5.691 -0.3318  0.9650  0.1614
23739SOL     OW79994   6.140  11.589   4.121 -0.5057 -0.0158 -0.0203
23739SOL    HW179995   6.146  11.579   4.216  0.0048  1.9536  0.1952
23739SOL    HW279996   6.110  11.504   4.090 -0.4235 -0.7833  1.8739
23740SOL     OW79997   1.382   2.605   9.803 -0.8581  0.2699  0.2478
23740SOL    HW179998   1.372   2.650   9.887 -0.7016 -0.0839  0.4614
23740SOL    HW279999   1.335   2.522   9.816 -0.6807  0.1384  0.0472
23741SOL     OW80000   0.916   9.651   9.027 -0.2699  0.2933  0.2750
23741SOL    HW180001   0.920   9.557   9.010 -0.1305  0.2637  0.4645
23741SOL    HW280002   0.833   9.663   9.074  0.6305 -0.0331  2.0403
23742SOL     OW80003   6.576   6.106   8.853  0.1066 -0.7199 -0.0376
23742SOL    HW180004   6.642   6.113   8.785 -0.4414 -0.7240 -0.5842
23742SOL    HW280005   6.603   6.169   8.920  0.1885 -0.0730 -0.6619
23743SOL     OW80006   0.497   9.221   9.582  0.1943  0.1511 -0.0461
23743SOL    HW180007   0.559   9.149   9.567  0.3227 -0.1455  1.6319
23743SOL    HW280008   0.418   9.177   9.614 -0.4267  0.6227 -0.9255
23744SOL     OW80009   8.390   8.960  12.544  0.0138  0.2472 -0.4094
23744SOL    HW180010   8.326   8.988  12.609  0.6165 -0.3969  0.4910
23744SOL    HW280011   8.470   9.006  12.567  0.2588 -0.0512 -0.6510
23745SOL     OW80012   0.808   8.771   9.624  0.4430  0.1305 -0.2111
23745SOL    HW180013   0.821   8.708   9.694  0.7750 -1.7153 -1.8423
23745SOL    HW280014   0.853   8.850   9.654  3.5368 -1.6510  0.2909
23746SOL     OW80015  10.619   3.135   0.037  0.6961 -0.0573  0.2581
23746SOL    HW180016  10.529   3.114   0.062 -0.1788  0.2723 -2.3303
23746SOL    HW280017  10.659   3.170   0.117 -1.2501 -0.8219  1.6312
23747SOL     OW80018  11.491   0.606  11.260 -0.0341  0.3457 -0.1299
23747SOL    HW180019  11.519   0.552  11.334  0.8668  0.2790 -0.5069
23747SOL    HW280020  11.425   0.665  11.296  2.3700  2.2836  1.4496
23748SOL     OW80021   8.732   4.264   4.062  0.6178  0.2729 -0.3312
23748SOL    HW180022   8.772   4.215   3.990 -2.3725 -1.7369 -0.8115
23748SOL    HW280023   8.680   4.331   4.018 -0.4816 -0.3740 -0.0530
23749SOL     OW80024   4.071   0.472   0.586 -0.2226  0.6151  0.0564
23749SOL    HW180025   4.080   0.567   0.584 -0.7304  0.6672 -1.1100
23749SOL    HW280026   4.006   0.454   0.518 -0.7630 -0.4996  0.8575
23750SOL     OW80027   5.990   1.089   9.675 -0.2726  0.2840 -0.2379
23750SOL    HW180028   6.065   1.148   9.684  1.5308 -1.4169 -2.7576
23750SOL    HW280029   5.959   1.103   9.586 -1.8367 -0.3371  0.1720
23751SOL     OW80030   5.540   5.851  10.877 -0.1324 -0.0140 -0.1167
23751SOL    HW180031   5.628   5.840  10.842 -0.3492 -0.9724 -0.3968
23751SOL    HW280032   5.545   5.931  10.930  0.4085  1.0169 -1.6585
23752SOL     OW80033   8.958   0.939   1.680 -0.5543  0.4238  0.4244
23752SOL    HW180034   8.887   0.877   1.692  1.0658 -1.3910  1.1463
23752SOL    HW280035   8.975   0.974   1.767 -1.0407  1.4666  0.1239
23753SOL     OW80036  12.096   7.055   6.113 -0.1528 -0.0365  0.1710
23753SOL    HW180037  12.138   7.072   6.029 -1.5699 -1.4095 -0.8741
23753SOL    HW280038  12.168   7.028   6.171  0.5538 -1.6804 -1.3598
23754SOL     OW80039   8.646   3.873   4.122 -0.0639  0.5973  0.3975
23754SOL    HW180040   8.658   3.953   4.173 -1.0077  0.8969  0.1695
23754SOL    HW280041   8.551   3.865   4.111  0.1020  0.5662 -1.3515
23755SOL     OW80042   3.145   3.663   8.196  0.3063  0.2750 -0.8403
23755SOL    HW180043   3.087   3.602   8.150 -0.0023  0.4684 -0.7102
23755SOL    HW280044   3.153   3.738   8.138  0.8617  0.0268 -1.0983
23756SOL     OW80045   8.927   6.335   5.722  0.3120 -0.1076  0.7089
23756SOL    HW180046   8.903   6.341   5.815 -3.3613 -1.2930  0.0347
23756SOL    HW280047   8.895   6.416   5.684  1.7215  0.3336  0.4257
23757SOL     OW80048   2.145   6.416   7.200  0.2225 -0.4199 -0.5126
23757SOL    HW180049   2.091   6.440   7.125  0.5387  2.0808 -0.0477
23757SOL    HW280050   2.090   6.433   7.276  0.7639 -0.4558 -0.1061
23758SOL     OW80051  10.759   0.705   8.991 -0.2684 -0.3869 -0.3969
23758SOL    HW180052  10.825   0.639   8.969 -0.2476  0.1965 -2.2795
23758SOL    HW280053  10.739   0.748   8.907 -0.6635  1.6390  0.6769
23759SOL     OW80054   0.253   7.611   3.155  0.0837 -0.3105  0.5915
23759SOL    HW180055   0.303   7.635   3.077 -0.9770 -3.0831 -1.1049
23759SOL    HW280056   0.165   7.592   3.123 -0.7055 -0.4709  2.6738
23760SOL     OW80057  12.221   7.026  10.810 -0.0183 -0.3155 -0.1208
23760SOL    HW180058  12.228   7.028  10.906  0.8595  0.2750 -0.1851
23760SOL    HW280059  12.150   7.088  10.790 -0.4039 -0.6632  0.1619
23761SOL     OW80060   1.292   3.137   5.251 -0.5013 -0.3032  0.2148
23761SOL    HW180061   1.328   3.158   5.337  2.2892 -1.6182 -0.5044
23761SOL    HW280062   1.362   3.160   5.189 -1.6359 -1.2624 -1.5217
23762SOL     OW80063   0.621   8.271   2.119  0.2931 -0.1229  0.0402
23762SOL    HW180064   0.686   8.202   2.128 -0.5239 -0.7419  1.4855
23762SOL    HW280065   0.640   8.333   2.189  0.8366  1.0108 -1.0635
23763SOL     OW80066   5.830   5.169   7.588 -0.2924 -0.0729 -0.0113
23763SOL    HW180067   5.865   5.082   7.567  2.2751  0.5635  1.1954
23763SOL    HW280068   5.847   5.180   7.681 -2.2772  1.0345  0.2781
23764SOL     OW80069  11.658   7.258   8.850 -0.0429  0.1444  0.2773
23764SOL    HW180070  11.718   7.203   8.800  0.7207 -0.8021  2.1431
23764SOL    HW280071  11.590   7.198   8.882  0.1293  0.4746  1.3188
23765SOL     OW80072   6.968   7.673   4.009 -0.2105 -0.5675 -0.3509
23765SOL    HW180073   6.908   7.655   3.937 -0.7531  2.4304 -0.7743
23765SOL    HW280074   7.005   7.759   3.989  1.4566 -0.6904  1.7798
23766SOL     OW80075   8.660  12.446   2.986  0.0098  0.0771  0.2750
23766SOL    HW180076   8.633  12.365   2.943 -0.4094 -0.5020  1.5846
23766SOL    HW280077   8.753  12.432   3.005 -0.0952 -0.1532  0.6223
23767SOL     OW80078   3.864   8.814   1.044 -0.0855 -0.2178  0.2928
23767SOL    HW180079   3.826   8.737   1.002  1.1533  0.1894 -1.7484
23767SOL    HW280080   3.804   8.885   1.022 -0.5772 -0.3800  1.1019
23768SOL     OW80081   3.865   8.275   9.804  0.0903 -0.4558 -0.3399
23768SOL    HW180082   3.770   8.289   9.803  0.2227  1.1184  1.6216
23768SOL    HW280083   3.878   8.202   9.864  0.1647  0.6960  1.1269
23769SOL     OW80084  11.705  10.559   6.069  0.1848  0.8840  0.3622
23769SOL    HW180085  11.695  10.652   6.050  1.0580  0.8783 -0.1488
23769SOL    HW280086  11.665  10.548   6.156  1.4563  2.0314  1.1339
23770SOL     OW80087  12.603   5.644   5.125 -0.0066  0.7604 -0.6994
23770SOL    HW180088  12.611   5.723   5.072  0.2338  0.5922 -0.9148
23770SOL    HW280089  12.525   5.600   5.090 -1.0949  1.6717  0.4465
23771SOL     OW80090  11.960  10.853  11.031  0.2095  0.1075  0.0849
23771SOL    HW180091  11.991  10.820  11.115  0.5426 -0.5735 -0.3022
23771SOL    HW280092  11.879  10.806  11.015  0.3686 -0.0727 -0.1822
23772SOL     OW80093   8.471   2.864   4.461 -0.2644 -0.1530  0.6438
23772SOL    HW180094   8.481   2.770   4.454  0.2698 -0.1098  0.8450
23772SOL    HW280095   8.526   2.890   4.535 -0.5010  0.3010  0.6698
23773SOL     OW80096  10.960  12.610   6.098 -0.2724 -0.3818 -0.0427
23773SOL    HW180097  10.974  12.550   6.171 -0.0576 -0.6899 -0.3392
23773SOL    HW280098  11.043  12.657   6.089 -0.0370 -0.8891 -0.5847
23774SOL     OW80099   4.819   4.782   3.856  0.5415  0.1696 -0.1635
23774SOL    HW180100   4.910   4.799   3.878  0.3259  1.4742 -0.2010
23774SOL    HW280101   4.792   4.714   3.918  1.5839 -0.3644 -0.2769
23775SOL     OW80102  12.105   2.521   1.778  0.7130 -0.2985 -0.3729
23775SOL    HW180103  12.033   2.475   1.734 -0.5575  0.3139  0.9770
23775SOL    HW280104  12.115   2.603   1.728 -0.8379  0.4707  0.5092
23776SOL     OW80105   8.723   3.729   3.231 -0.3501 -0.7145 -0.1856
23776SOL    HW180106   8.664   3.794   3.270 -0.9364 -0.7614 -0.9805
23776SOL    HW280107   8.670   3.685   3.165  0.3184 -1.3798 -0.2839
23777SOL     OW80108  11.336   6.620   1.730  0.1436  0.1574 -0.4332
23777SOL    HW180109  11.246   6.624   1.763 -0.0952 -1.4492 -0.8034
23777SOL    HW280110  11.331   6.657   1.642  0.0725  1.1086 -0.0327
23778SOL     OW80111   8.156   7.873  11.837  0.1508  1.0659  0.0034
23778SOL    HW180112   8.126   7.962  11.859 -1.5665  0.0818  1.9416
23778SOL    HW280113   8.076   7.828  11.809  1.3487  0.6639 -3.2989
23779SOL     OW80114   6.198   8.776   4.760  0.1249 -0.7330 -0.5604
23779SOL    HW180115   6.156   8.811   4.682 -1.0076 -1.9558 -0.5490
23779SOL    HW280116   6.139   8.799   4.831  0.3031 -1.0577 -0.3037
23780SOL     OW80117   9.385   0.986   1.914  0.1501 -0.1846 -0.5672
23780SOL    HW180118   9.322   1.058   1.917 -0.5806 -0.8083 -0.4667
23780SOL    HW280119   9.378   0.945   2.000  1.2227  0.1661 -0.3017
23781SOL     OW80120  10.658  11.053   3.769  0.0745  0.3078 -0.3707
23781SOL    HW180121  10.750  11.075   3.751  0.8650 -0.1163  2.6099
23781SOL    HW280122  10.638  10.982   3.708  2.8044 -1.7635  0.9312
23782SOL     OW80123   9.039  11.589  10.112  0.2862 -0.0513 -0.1579
23782SOL    HW180124   9.102  11.661  10.112 -0.2647  0.6097  3.1727
23782SOL    HW280125   9.090  11.512  10.139  0.9761 -1.2034 -4.1521
23783SOL     OW80126   9.043   7.957  10.688 -0.5420  0.0081 -0.3817
23783SOL    HW180127   9.120   7.944  10.743 -0.8356  2.0260  0.6272
23783SOL    HW280128   9.021   7.870  10.655  2.7857 -0.5108 -1.6137
23784SOL     OW80129   3.401  12.053   3.085 -0.9121 -0.1540 -0.0467
23784SOL    HW180130   3.481  12.102   3.064 -0.8726 -0.0601  0.3104
23784SOL    HW280131   3.341  12.119   3.119 -1.2579 -0.1734 -0.6095
23785SOL     OW80132  12.500   8.970  10.065  0.2960 -0.3358  0.1180
23785SOL    HW180133  12.521   8.984  10.157 -0.4432 -0.1896  0.2673
23785SOL    HW280134  12.530   9.049  10.021 -0.7932  0.2848  0.4675
23786SOL     OW80135   6.145   6.090  11.702 -0.3810 -0.6924  0.1025
23786SOL    HW180136   6.124   6.049  11.618 -0.3517 -0.2112 -0.1432
23786SOL    HW280137   6.211   6.033  11.741  0.5410 -0.2508 -0.7721
23787SOL     OW80138   5.697   7.981   3.379 -0.0703  0.3494 -0.0670
23787SOL    HW180139   5.606   8.008   3.395 -0.0804  1.1873 -1.3807
23787SOL    HW280140   5.697   7.953   3.287  1.1058  0.8443 -0.2244
23788SOL     OW80141   5.820   5.533   3.254 -0.0151 -0.1563  0.3771
23788SOL    HW180142   5.807   5.554   3.161  0.8794 -1.7994 -0.1533
23788SOL    HW280143   5.769   5.599   3.301 -1.1413  0.2220 -1.3065
23789SOL     OW80144   2.180   6.870  12.368 -0.0061  0.4950  0.0558
23789SOL    HW180145   2.160   6.777  12.378  1.7478  0.1393  0.6254
23789SOL    HW280146   2.114   6.915  12.421 -1.0290 -0.3811 -0.4306
23790SOL     OW80147   9.950  10.771   8.329 -0.6066  0.0623  0.3140
23790SOL    HW180148   9.855  10.772   8.345 -0.2116 -1.6795  3.6906
23790SOL    HW280149   9.981  10.693   8.375  2.2781 -0.6946 -2.4917
23791SOL     OW80150  12.175   8.823  10.322 -0.1155  0.2809 -0.1889
23791SOL    HW180151  12.199   8.906  10.280 -1.1800  0.7387  0.0847
23791SOL    HW280152  12.249   8.766  10.304  0.3801  1.1098 -0.8940
23792SOL     OW80153  10.953   3.039  11.240 -0.1677 -0.1010 -0.1494
23792SOL    HW180154  11.039   3.072  11.266 -0.0025  0.1849 -1.0065
23792SOL    HW280155  10.946   3.062  11.147 -0.6886 -1.1586 -0.3860
23793SOL     OW80156   5.593   1.179  12.060  0.2111  0.0193  0.2879
23793SOL    HW180157   5.565   1.192  11.969 -0.7161 -0.4907  0.4915
23793SOL    HW280158   5.537   1.109  12.093 -0.6489  1.3717  1.7929
23794SOL     OW80159   2.537   3.149  11.147  0.1838  0.0900  0.2146
23794SOL    HW180160   2.476   3.142  11.075  0.7307  1.4698 -0.4311
23794SOL    HW280161   2.561   3.059  11.168 -0.9937 -0.3958 -0.4240
23795SOL     OW80162   0.763  11.795   0.975 -0.2758  0.9697  0.9487
23795SOL    HW180163   0.762  11.699   0.973 -0.5428  0.9796  0.4414
23795SOL    HW280164   0.677  11.820   0.941 -0.0685  1.3963  0.7454
23796SOL     OW80165   0.745   1.072   4.507 -0.0924 -0.1647  0.0869
23796SOL    HW180166   0.724   0.997   4.563 -0.4962  1.1523  1.7708
23796SOL    HW280167   0.828   1.049   4.465  0.0379 -1.3308  0.9593
23797SOL     OW80168   3.025   5.607   9.311  0.5673  0.2640 -1.0040
23797SOL    HW180169   2.939   5.566   9.300  0.8846 -0.3277 -1.3201
23797SOL    HW280170   3.085   5.534   9.321  0.9872  0.6869 -0.3994
23798SOL     OW80171   8.793   2.294   9.564  0.0755 -0.1889 -0.4732
23798SOL    HW180172   8.827   2.375   9.603 -0.6936 -0.4372  0.7753
23798SOL    HW280173   8.778   2.317   9.472 -1.1969  1.4604  0.0917
23799SOL     OW80174   1.042   8.180   4.230 -0.4341  0.0669 -0.2064
23799SOL    HW180175   1.116   8.238   4.249 -1.5089  1.4458 -0.0328
23799SOL    HW280176   1.061   8.100   4.278  1.0114  0.3371 -0.2889
23800SOL     OW80177   6.020  10.857   9.210  0.0926  0.0386  0.2247
23800SOL    HW180178   6.100  10.906   9.232 -0.2790  0.2613  1.1496
23800SOL    HW280179   5.949  10.921   9.221 -0.4220 -0.7258  1.6681
23801SOL     OW80180   9.863  11.553   1.417  0.9915  0.1179 -0.1682
23801SOL    HW180181   9.858  11.495   1.341  0.7955 -1.2804  0.8771
23801SOL    HW280182   9.773  11.583   1.431  1.1829  1.1869 -1.0564
23802SOL     OW80183   1.736   2.688  12.602  0.0172 -0.0044 -0.4675
23802SOL    HW180184   1.690   2.632  12.664  0.1283 -1.2068 -1.4305
23802SOL    HW280185   1.685   2.769  12.601 -1.9884 -1.1831 -1.2831
23803SOL     OW80186   1.209   7.272  11.784 -0.6055 -0.7370  0.1805
23803SOL    HW180187   1.157   7.208  11.833 -1.4889 -0.1866 -0.0100
23803SOL    HW280188   1.294   7.273  11.828 -0.8467 -1.4405  0.6836
23804SOL     OW80189   4.693   4.379   5.116  0.6531  0.3059 -0.6606
23804SOL    HW180190   4.602   4.353   5.099  0.8762  0.1409 -1.6245
23804SOL    HW280191   4.694   4.474   5.101  0.7689  0.2161 -1.2395
23805SOL     OW80192  12.107  10.744   9.958  0.0350 -0.7617 -0.1395
23805SOL    HW180193  12.032  10.761  10.016  1.0183  0.0674  0.9234
23805SOL    HW280194  12.168  10.816   9.975  2.0694 -2.5817  0.6777
23806SOL     OW80195   0.082  10.973  11.726 -0.1192  0.2329  0.3829
23806SOL    HW180196   0.088  11.022  11.644 -1.5263 -3.3929 -2.1493
23806SOL    HW280197  -0.011  10.976  11.749 -0.0846 -0.4573  0.6432
23807SOL     OW80198   3.663  11.661   5.087 -0.4380 -0.1953 -0.2734
23807SOL    HW180199   3.716  11.603   5.032 -0.2754 -0.0004 -0.3225
23807SOL    HW280200   3.712  11.669   5.169 -1.1494 -1.2682  0.2866
23808SOL     OW80201   2.007   6.455   9.871  0.2402  0.3745  0.1812
23808SOL    HW180202   1.930   6.404   9.895  0.2372 -0.0460 -0.6910
23808SOL    HW280203   2.064   6.450   9.948 -0.3083  0.1269  0.5791
23809SOL     OW80204  10.243   8.616   2.840  0.1753 -0.4477 -0.3078
23809SOL    HW180205  10.274   8.613   2.750  0.1703 -1.3316 -0.2844
23809SOL    HW280206  10.268   8.703   2.871  0.7090 -0.3601 -0.9687
23810SOL     OW80207   2.863   4.973   8.545 -0.2317 -0.4598  0.0912
23810SOL    HW180208   2.790   4.999   8.602  0.1300  2.5959 -0.6671
23810SOL    HW280209   2.935   5.030   8.571  1.2929 -1.9672 -0.6065
23811SOL     OW80210   3.745   1.325   5.322  0.0875  0.0516 -0.0334
23811SOL    HW180211   3.693   1.375   5.385  0.1263 -0.7962  0.6865
23811SOL    HW280212   3.699   1.242   5.314  0.0519  0.1674 -1.1862
23812SOL     OW80213  10.934   3.315  11.965  0.0840  0.4317  0.6092
23812SOL    HW180214  10.983   3.291  11.887 -0.5050 -0.7736  0.5859
23812SOL    HW280215  10.938   3.411  11.967  3.7980  0.3777  1.5304
23813SOL     OW80216   1.296   5.255   5.888  0.3965  0.2498 -0.3646
23813SOL    HW180217   1.214   5.242   5.937  0.6291 -1.8748 -0.4594
23813SOL    HW280218   1.363   5.260   5.956  0.3029  1.0645 -0.3263
23814SOL     OW80219   9.235  12.373  10.503  0.3386 -0.3532  0.3317
23814SOL    HW180220   9.238  12.413  10.416  0.3613 -2.6868 -0.8446
23814SOL    HW280221   9.326  12.347  10.520  0.0600 -1.5234  0.1725
23815SOL     OW80222   1.294  12.473   4.145 -0.3239 -0.1335  0.4703
23815SOL    HW180223   1.244  12.411   4.091  3.0192 -2.3227 -0.3860
23815SOL    HW280224   1.327  12.538   4.082 -0.1315 -0.0691  0.6385
23816SOL     OW80225   0.660   5.419   3.092 -0.9179  0.2044  0.5489
23816SOL    HW180226   0.741   5.383   3.128  0.6762 -0.2295 -2.9975
23816SOL    HW280227   0.679   5.512   3.081 -0.3223 -0.1142 -1.4659
23817SOL     OW80228   7.398   0.514   4.675 -0.6610  0.0287  0.2373
23817SOL    HW180229   7.436   0.469   4.750 -0.5853  0.3594  0.3982
23817SOL    HW280230   7.445   0.598   4.670 -0.6395 -0.0047 -0.1991
23818SOL     OW80231   0.604   4.338   6.224 -0.0731  0.4852  0.7482
23818SOL    HW180232   0.671   4.403   6.200 -0.4454  1.2398  1.6781
23818SOL    HW280233   0.593   4.350   6.318 -0.9328 -0.2033  0.7396
23819SOL     OW80234   0.184   3.442  11.625  0.5862  0.4804 -0.1252
23819SOL    HW180235   0.139   3.471  11.546 -0.2646  1.8001  0.7945
23819SOL    HW280236   0.154   3.352  11.638 -1.6395  1.2203  0.2972
23820SOL     OW80237   1.510  12.480   2.304  0.2105  0.3289  0.4354
23820SOL    HW180238   1.514  12.432   2.221 -0.3830  1.4017 -0.2472
23820SOL    HW280239   1.432  12.445   2.347 -1.0298  1.5827 -0.6858
23821SOL     OW80240   6.522   1.679   9.262  0.7255 -0.3334  0.2744
23821SOL    HW180241   6.447   1.708   9.314  1.6308  2.2239  0.2735
23821SOL    HW280242   6.579   1.634   9.324 -0.7063 -2.2643  0.2847
23822SOL     OW80243   6.702   0.877   1.348 -0.2554  0.1017 -0.3872
23822SOL    HW180244   6.736   0.967   1.344 -2.5840  1.0929  0.2346
23822SOL    HW280245   6.775   0.826   1.381  0.2996  2.3131  2.1746
23823SOL     OW80246   1.273   6.728   3.172  0.3440  0.3139 -0.0723
23823SOL    HW180247   1.365   6.727   3.147  0.5408  1.5525  0.5232
23823SOL    HW280248   1.260   6.646   3.220  0.4386 -1.1478 -2.3846
23824SOL     OW80249   5.012  10.292   9.425  0.1949  0.4761 -0.1460
23824SOL    HW180250   5.023  10.354   9.354  1.1899 -0.3531 -0.7521
23824SOL    HW280251   5.011  10.206   9.383 -0.1129  0.0178  0.7543
23825SOL     OW80252   7.028  11.427   6.138  0.4731  0.2140 -0.6304
23825SOL    HW180253   6.972  11.352   6.118  0.3152  0.7870 -2.5178
23825SOL    HW280254   6.967  11.501   6.140  0.9178  0.5908 -0.9476
23826SOL     OW80255   6.912   4.730   8.486 -0.5295 -0.2033  0.4468
23826SOL    HW180256   6.886   4.644   8.453 -0.4975 -0.7627  1.8128
23826SOL    HW280257   6.989   4.753   8.434  0.8092 -2.0211  1.5173
23827SOL     OW80258  10.790   3.570   9.637  0.3130  0.0165 -0.1644
23827SOL    HW180259  10.858   3.622   9.594 -0.3290  0.0500 -1.1603
23827SOL    HW280260  10.715   3.574   9.577 -0.6675  0.2150  1.0334
23828SOL     OW80261  12.506  11.595   9.193  0.0812 -0.0438 -0.7099
23828SOL    HW180262  12.595  11.632   9.194 -0.5914  1.7649  1.7914
23828SOL    HW280263  12.510  11.525   9.128  3.5935 -0.6599 -0.0277
23829SOL     OW80264   7.114  10.901  11.925  0.3504  0.0755 -0.4109
23829SOL    HW180265   7.179  10.844  11.884  0.9472  0.0176  0.5852
23829SOL    HW280266   7.109  10.977  11.867  2.1627  0.6026  0.0498
23830SOL     OW80267   9.541   5.626   9.545  0.2688  0.5221 -0.2164
23830SOL    HW180268   9.561   5.542   9.585  0.3440  0.8980  0.5561
23830SOL    HW280269   9.587   5.690   9.600 -1.3174  1.2334  0.3202
23831SOL     OW80270   2.689   8.266   4.875 -0.1953 -0.4465  0.6854
23831SOL    HW180271   2.609   8.254   4.926  0.5953  1.9134  2.6835
23831SOL    HW280272   2.753   8.298   4.938  1.2151  1.4820 -1.5472
23832SOL     OW80273   2.903   1.185   2.005 -0.0711 -0.3828  0.2127
23832SOL    HW180274   2.856   1.259   1.964  2.2065  0.3117 -1.3499
23832SOL    HW280275   2.955   1.226   2.075  0.7387 -0.5790 -0.2646
23833SOL     OW80276   5.552  12.446   1.139  0.2102  0.3463 -0.2195
23833SOL    HW180277   5.569  12.533   1.174 -1.2367  0.5815 -0.0614
23833SOL    HW280278   5.459  12.445   1.120  0.6408 -0.3102 -2.6190
23834SOL     OW80279   0.707   4.598   7.852 -0.6220 -0.2286  0.5285
23834SOL    HW180280   0.715   4.678   7.800  0.8172  1.2302  2.8036
23834SOL    HW280281   0.627   4.610   7.903 -0.1498  0.0187  1.2298
23835SOL     OW80282  12.293  10.697   7.051  0.6323 -0.3108  0.6289
23835SOL    HW180283  12.261  10.649   6.975 -0.7315 -0.0581  1.0136
23835SOL    HW280284  12.376  10.654   7.073 -0.0980 -1.9207  0.4227
23836SOL     OW80285   2.146   7.424   7.465  0.6470 -0.3098  0.3765
23836SOL    HW180286   2.188   7.428   7.551  2.0110 -1.0885 -0.2263
23836SOL    HW280287   2.190   7.492   7.414  0.2538 -0.2514  0.1100
23837SOL     OW80288   8.451   6.475  12.212  0.3647 -0.0598 -0.0168
23837SOL    HW180289   8.419   6.532  12.281 -0.9411 -1.5627  0.6916
23837SOL    HW280290   8.442   6.526  12.131 -2.4564  0.1476  0.3514
23838SOL     OW80291  12.597   7.645   7.860 -0.3528 -0.3745  0.3859
23838SOL    HW180292  12.574   7.552   7.860 -1.8000 -0.1517 -2.9471
23838SOL    HW280293  12.693   7.646   7.862 -0.2516 -2.0372 -1.1227
23839SOL     OW80294   0.373   2.531   5.674 -0.2583  0.2311 -0.5037
23839SOL    HW180295   0.317   2.587   5.621 -0.7569 -1.4670 -1.8979
23839SOL    HW280296   0.418   2.476   5.609  0.3191 -0.8504  0.7789
23840SOL     OW80297   7.606  12.267   2.423 -0.2815 -0.4848  0.1273
23840SOL    HW180298   7.528  12.310   2.457 -0.0424 -0.8085  1.0965
23840SOL    HW280299   7.655  12.239   2.500  0.2327 -1.3032 -0.4688
23841SOL     OW80300   0.780   7.755  10.474 -0.2769  0.3567 -0.2745
23841SOL    HW180301   0.870   7.787  10.478  0.1244 -0.5155 -1.6263
23841SOL    HW280302   0.783   7.670  10.517 -0.4250  0.2452 -0.4844
23842SOL     OW80303   0.109   0.260   1.981 -0.0053  0.0094 -0.2414
23842SOL    HW180304   0.118   0.291   2.071  0.7159 -0.6556 -0.0801
23842SOL    HW280305   0.063   0.176   1.988  0.7471 -0.4215 -0.4246
23843SOL     OW80306   0.269   8.247   9.689 -0.2181  0.2330 -0.5111
23843SOL    HW180307   0.249   8.172   9.746 -0.8877 -0.6732 -1.8816
23843SOL    HW280308   0.274   8.209   9.601  1.6940  1.4327 -0.9876
23844SOL     OW80309   5.209   0.616   2.982 -0.2503  0.4250 -0.1595
23844SOL    HW180310   5.159   0.536   2.998 -0.3145  0.5733  0.3750
23844SOL    HW280311   5.232   0.611   2.889  0.8767 -0.8665  0.1554
23845SOL     OW80312   9.052   4.440   5.048  0.1454  0.1480 -0.3355
23845SOL    HW180313   9.005   4.483   5.120  0.1624 -3.8367  2.3750
23845SOL    HW280314   9.134   4.411   5.087  1.3454  0.0268 -2.7744
23846SOL     OW80315  12.265   0.946  11.988 -0.8973 -0.1441 -0.0273
23846SOL    HW180316  12.230   0.858  11.996  0.1812 -0.9184 -2.7330
23846SOL    HW280317  12.201   0.993  11.934 -0.0882 -0.2129 -1.1002
23847SOL     OW80318  10.767   4.541   6.646 -0.6787  0.7088  0.2274
23847SOL    HW180319  10.695   4.584   6.600 -2.0841 -1.9640 -0.2833
23847SOL    HW280320  10.742   4.449   6.648  1.4981  0.0718  2.4455
23848SOL     OW80321   4.651   8.120   6.882 -0.8884  0.4889  0.6169
23848SOL    HW180322   4.585   8.188   6.897 -0.3751  1.2670 -0.5566
23848SOL    HW280323   4.731   8.153   6.922 -0.4484  0.9371 -0.5869
23849SOL     OW80324   1.177   2.412  12.259  0.0015 -0.1487  0.9931
23849SOL    HW180325   1.113   2.408  12.189  0.7584  0.6941  0.2185
23849SOL    HW280326   1.262   2.417  12.215  0.5600 -0.4748  1.9777
23850SOL     OW80327   0.259  10.532   5.437 -0.2618  0.3408 -0.0974
23850SOL    HW180328   0.292  10.610   5.391  1.2847  0.5774  1.3195
23850SOL    HW280329   0.309  10.460   5.399  1.7492  0.6502  1.7584
23851SOL     OW80330   5.641  10.005   6.703  0.3623 -0.1550  0.0645
23851SOL    HW180331   5.693  10.051   6.770 -0.2731  0.0892  0.3959
23851SOL    HW280332   5.568   9.967   6.752  0.4895 -0.9041 -0.3275
23852SOL     OW80333   7.451  10.048   0.234 -0.2640  0.1114 -0.1156
23852SOL    HW180334   7.362  10.042   0.200  0.0329 -0.9242 -0.7211
23852SOL    HW280335   7.475  10.140   0.221 -0.5333 -0.0359 -1.7465
23853SOL     OW80336   3.995   3.366   1.259  0.1757 -0.3910  0.4940
23853SOL    HW180337   4.058   3.314   1.309  1.3200  0.9275  0.4728
23853SOL    HW280338   3.997   3.452   1.301 -0.7609 -0.0069 -0.2379
23854SOL     OW80339   5.797  10.004  12.580  0.2492  0.4057  0.2811
23854SOL    HW180340   5.783  10.078  12.639 -0.2033  0.5975 -0.0488
23854SOL    HW280341   5.888  10.012  12.552  0.6987 -0.1544  1.5599
23855SOL     OW80342   3.881  12.285   2.961  0.5043 -0.0515  0.9702
23855SOL    HW180343   3.830  12.204   2.971 -1.0737  0.7688  0.0611
23855SOL    HW280344   3.820  12.354   2.987  0.1028  1.2108 -2.6943
23856SOL     OW80345   4.614   3.342  12.086 -0.2184  0.3757 -1.1916
23856SOL    HW180346   4.679   3.365  12.020  1.4237 -2.9255 -0.9326
23856SOL    HW280347   4.530   3.358  12.043  0.7687  1.2685 -2.9099
23857SOL     OW80348   8.740   0.756   9.842  0.6405 -0.1349 -0.7270
23857SOL    HW180349   8.709   0.668   9.820  0.6462 -0.1005 -0.8736
23857SOL    HW280350   8.831   0.757   9.812  1.2543 -0.7132  0.9742
23858SOL     OW80351   8.585   6.802  10.806  0.1805  0.1474  0.1935
23858SOL    HW180352   8.521   6.756  10.751 -0.1166 -0.2667  0.8745
23858SOL    HW280353   8.646   6.842  10.743 -1.1066  1.1044 -0.4909
23859SOL     OW80354   2.395   8.920   9.910  0.2282 -0.0376 -0.8389
23859SOL    HW180355   2.451   8.971   9.969  0.9479 -1.6213 -0.1066
23859SOL    HW280356   2.311   8.914   9.956 -0.3556  1.6487 -1.5780
23860SOL     OW80357   5.829   5.877   2.611  0.3270 -0.2518 -0.0364
23860SOL    HW180358   5.916   5.875   2.572  0.3282 -0.9142 -0.0146
23860SOL    HW280359   5.843   5.904   2.701  0.5247 -0.4554 -0.0049
23861SOL     OW80360  10.655   8.433   0.851  0.1565 -0.0048 -0.3950
23861SOL    HW180361  10.683   8.432   0.943 -1.0631  0.6256  0.0091
23861SOL    HW280362  10.584   8.497   0.848 -0.5340 -0.7792 -1.5745
23862SOL     OW80363   0.498  10.997   4.242  0.1706  0.6070 -0.3082
23862SOL    HW180364   0.436  11.070   4.245  2.1910  2.4111 -0.2240
23862SOL    HW280365   0.561  11.021   4.175  1.3839 -0.6492  0.3212
23863SOL     OW80366   2.354   7.734   5.273  0.0116  0.2031  0.2062
23863SOL    HW180367   2.432   7.686   5.300  0.1624  0.1121 -0.3798
23863SOL    HW280368   2.289   7.666   5.257  0.3186  0.1570 -0.9287
23864SOL     OW80369   4.967   7.706  10.273  0.2762 -0.2850 -0.0190
23864SOL    HW180370   4.958   7.783  10.216  2.2413 -1.4658 -2.1071
23864SOL    HW280371   4.889   7.708  10.328 -1.8492  0.9738 -2.7806
23865SOL     OW80372   7.249  11.989   7.098  0.4752 -0.2265 -0.0144
23865SOL    HW180373   7.330  12.036   7.079  0.6566 -1.1306 -1.6307
23865SOL    HW280374   7.273  11.927   7.167  0.7236  0.6245  0.6911
23866SOL     OW80375  12.429  10.446   7.779  0.4511 -0.8016  0.1623
23866SOL    HW180376  12.357  10.493   7.821  1.1134  0.7003 -0.3400
23866SOL    HW280377  12.466  10.508   7.716  0.2455 -2.5739 -1.8345
23867SOL     OW80378   8.445   5.817   7.014 -0.3374 -0.3558  0.7557
23867SOL    HW180379   8.378   5.824   7.082  0.6114 -1.4694  1.8392
23867SOL    HW280380   8.527   5.813   7.062  0.2907 -2.3981 -0.3809
23868SOL     OW80381   7.286   3.394   3.133  0.0780 -0.2747 -0.2191
23868SOL    HW180382   7.381   3.379   3.134  0.0561 -0.5260 -0.9895
23868SOL    HW280383   7.261   3.396   3.225  0.6835 -1.2544 -0.0106
23869SOL     OW80384   1.155   1.017   0.895 -0.0600  0.0672  0.2846
23869SOL    HW180385   1.094   1.039   0.824  0.8649  0.1546 -0.5101
23869SOL    HW280386   1.116   0.939   0.935 -0.6216  0.0270 -0.3063
23870SOL     OW80387  10.440   1.921   0.689 -0.3209 -0.5592  0.1221
23870SOL    HW180388  10.475   2.005   0.659 -0.1622 -0.5361  0.3667
23870SOL    HW280389  10.442   1.927   0.784 -1.6369 -0.2997  0.1490
23871SOL     OW80390   4.694   9.788   2.760  0.4836  0.1326 -0.8803
23871SOL    HW180391   4.787   9.811   2.763  0.2865  0.8618 -0.2358
23871SOL    HW280392   4.650   9.859   2.805 -0.2409 -0.9708  0.2362
23872SOL     OW80393   4.004  12.175   1.907 -0.3843 -0.8444 -0.1313
23872SOL    HW180394   4.078  12.167   1.967 -0.4417  0.9042  0.2219
23872SOL    HW280395   3.930  12.137   1.954 -1.1535  3.1955  2.3579
23873SOL     OW80396   6.114  11.834   9.341  0.4524  0.0007  0.1850
23873SOL    HW180397   6.094  11.830   9.434  0.8800 -3.7877  0.2721
23873SOL    HW280398   6.030  11.852   9.299  0.1626  1.2462  1.2374
23874SOL     OW80399   1.212   5.268   5.052 -0.4593  0.3959  0.4879
23874SOL    HW180400   1.165   5.312   4.981 -1.9844  0.3898  1.4477
23874SOL    HW280401   1.281   5.329   5.077 -1.2530  1.3521  0.4174
23875SOL     OW80402   3.868   8.627   2.173 -0.4458  0.1843  0.5702
23875SOL    HW180403   3.913   8.646   2.091  0.6096 -0.2801  1.0216
23875SOL    HW280404   3.873   8.709   2.223  0.2870  0.0151  0.7849
23876SOL     OW80405   4.814   7.766   8.658 -0.2531  0.5755 -0.2482
23876SOL    HW180406   4.881   7.701   8.679 -2.0593 -1.1295  0.5696
23876SOL    HW280407   4.860   7.850   8.660  2.1591 -0.6248 -1.2806
23877SOL     OW80408   9.593   3.815   9.567  0.2669 -0.5026 -0.3613
23877SOL    HW180409   9.653   3.773   9.629  1.3297  1.1731 -0.1908
23877SOL    HW280410   9.641   3.891   9.534 -2.7449  2.7330  2.0136
23878SOL     OW80411   0.367   8.718   9.768 -0.0468  0.7074 -0.1493
23878SOL    HW180412   0.446   8.717   9.713  0.8762 -1.2898  1.0973
23878SOL    HW280413   0.313   8.646   9.733 -1.0634  1.6377 -0.5705
23879SOL     OW80414   4.191   2.750   8.455 -0.2289 -0.1045  0.1427
23879SOL    HW180415   4.137   2.729   8.379 -1.5503  0.0033  1.0234
23879SOL    HW280416   4.138   2.811   8.507 -0.7722 -2.5311  2.7296
23880SOL     OW80417   3.110  11.609  10.335  0.2541  0.3592 -0.0793
23880SOL    HW180418   3.076  11.532  10.381  0.9979  0.4101  0.5650
23880SOL    HW280419   3.033  11.664  10.321 -0.1725 -0.1975  0.0462
23881SOL     OW80420  12.037   0.317   2.374  0.1956 -0.6582 -0.0715
23881SOL    HW180421  11.983   0.242   2.398  1.0953 -1.1818  0.3792
23881SOL    HW280422  12.085   0.339   2.454  0.6898 -0.2396 -0.4726
23882SOL     OW80423   2.828   5.510   9.104 -0.0855  0.1077  0.9501
23882SOL    HW180424   2.766   5.581   9.114 -0.8220 -0.3736 -0.0332
23882SOL    HW280425   2.878   5.533   9.026  1.1542  0.6024  1.8545
23883SOL     OW80426   0.782   2.954   5.246 -0.1680  0.7366 -0.0703
23883SOL    HW180427   0.847   2.912   5.302 -1.1807  1.3101  1.6545
23883SOL    HW280428   0.739   2.882   5.200  1.4336  0.3341 -1.0078
23884SOL     OW80429   0.650   1.217   7.315  0.2966 -0.5733  0.0729
23884SOL    HW180430   0.573   1.261   7.279  1.9393  1.6447 -0.9686
23884SOL    HW280431   0.667   1.263   7.398  1.3477  0.0129 -0.4497
23885SOL     OW80432   5.373   0.398   4.439 -0.0671 -0.2130  0.8156
23885SOL    HW180433   5.318   0.366   4.510  1.2390 -1.4114  1.3328
23885SOL    HW280434   5.322   0.383   4.360  0.2956 -3.3601  1.0513
23886SOL     OW80435   9.534   6.333   6.268  0.0404  0.8243 -0.5757
23886SOL    HW180436   9.457   6.376   6.304 -0.6758 -0.5018 -0.4380
23886SOL    HW280437   9.500   6.274   6.201  0.6554 -1.2369  0.8003
23887SOL     OW80438  10.643   8.902   2.339 -0.2574 -0.4069  0.2866
23887SOL    HW180439  10.658   8.823   2.288 -2.4513 -0.4785 -0.3279
23887SOL    HW280440  10.633   8.972   2.274 -0.3631  0.0081  0.7409
23888SOL     OW80441   3.931   4.677   1.607 -0.0627 -0.2698 -0.1250
23888SOL    HW180442   3.884   4.638   1.534 -2.2720  1.2410  0.3964
23888SOL    HW280443   3.933   4.771   1.588  1.6710 -0.1363  0.5088
23889SOL     OW80444   0.503   8.877   1.760 -0.1807 -0.6076 -0.0024
23889SOL    HW180445   0.527   8.785   1.775  0.1002 -0.3675  1.1075
23889SOL    HW280446   0.513   8.889   1.666 -0.4425 -1.7765 -0.1980
23890SOL     OW80447   2.834  10.080   7.134  0.1094  0.6627 -0.2531
23890SOL    HW180448   2.842   9.986   7.149  1.3710  1.0886  2.3090
23890SOL    HW280449   2.924  10.113   7.138 -0.1981  1.9236 -2.0617
23891SOL     OW80450  10.928   0.422   9.644  0.2112 -0.3521  0.4321
23891SOL    HW180451  10.838   0.397   9.665 -0.5586  0.8448 -1.2423
23891SOL    HW280452  10.936   0.511   9.679  0.0388  0.3227 -1.1624
23892SOL     OW80453   3.362   6.184  11.258 -0.2529  0.2273 -0.1785
23892SOL    HW180454   3.312   6.122  11.310  0.4527  0.8189  1.2759
23892SOL    HW280455   3.385   6.137  11.178 -1.2162 -0.7684  0.1170
23893SOL     OW80456   8.062   9.439   4.170 -0.1149 -0.1472 -0.0693
23893SOL    HW180457   8.065   9.373   4.239  1.9459  0.8118  0.8381
23893SOL    HW280458   8.071   9.523   4.216 -1.8937  0.7571 -1.2555
23894SOL     OW80459   0.840   0.391   2.452  0.6210  0.0598  0.3456
23894SOL    HW180460   0.919   0.446   2.449  0.4017  0.3557 -0.0603
23894SOL    HW280461   0.773   0.447   2.492  0.3924  0.0905 -0.0832
23895SOL     OW80462   6.427  12.234   1.052  0.4064  0.3670 -0.0835
23895SOL    HW180463   6.399  12.156   1.004  2.3653 -1.2162  1.1448
23895SOL    HW280464   6.454  12.296   0.985 -0.5158 -0.2740 -1.0790
23896SOL     OW80465  11.863   2.531   6.398  0.4762 -0.2927  0.0886
23896SOL    HW180466  11.854   2.438   6.421  1.8755 -0.6274 -0.5916
23896SOL    HW280467  11.813   2.577   6.465 -1.2748 -1.5790 -0.2549
23897SOL     OW80468   2.540   1.281   1.115  0.3375 -0.1944 -0.0707
23897SOL    HW180469   2.624   1.235   1.122  0.0974 -0.6091  0.1067
23897SOL    HW280470   2.512   1.291   1.206  0.5870  0.6789 -0.0787
23898SOL     OW80471  12.557   0.438   3.897 -0.5166  0.5242  0.2920
23898SOL    HW180472  12.550   0.437   3.802 -2.3725  1.5537  0.3616
23898SOL    HW280473  12.651   0.447   3.915 -0.0131 -0.8782 -1.3836
23899SOL     OW80474   4.793   1.437   8.882 -0.3154  0.4651  0.1256
23899SOL    HW180475   4.815   1.485   8.962  0.7672  1.0271 -0.4748
23899SOL    HW280476   4.804   1.345   8.905  1.4835  0.6699  0.2424
23900SOL     OW80477   5.201   1.703   8.388 -0.0526  0.5506 -0.3558
23900SOL    HW180478   5.200   1.690   8.483  0.9544 -1.0748 -0.5356
23900SOL    HW280479   5.258   1.779   8.375  0.1674  0.5071  0.3121
23901SOL     OW80480   8.660   9.034   2.525  0.6701 -0.1337  0.9900
23901SOL    HW180481   8.617   9.113   2.493  1.0170 -0.0045  0.8404
23901SOL    HW280482   8.591   8.986   2.570  0.1074 -0.4780 -0.2324
23902SOL     OW80483   1.245   6.313   6.667 -0.2856  0.1262  0.3343
23902SOL    HW180484   1.292   6.242   6.623 -0.3012 -1.4329  2.6421
23902SOL    HW280485   1.166   6.325   6.615  0.8385  0.1384 -1.4398
23903SOL     OW80486   2.799   2.793   0.152  0.0683  0.3262  0.2239
23903SOL    HW180487   2.738   2.857   0.115  0.9250 -0.3881 -2.7318
23903SOL    HW280488   2.884   2.820   0.118  0.6025 -1.7030 -0.1622
23904SOL     OW80489   8.153  12.460   8.398 -0.2623 -0.3222  0.0193
23904SOL    HW180490   8.160  12.545   8.442 -1.5861 -0.7442  1.1148
23904SOL    HW280491   8.233  12.414   8.422  0.6419  0.7113 -0.8798
23905SOL     OW80492   0.690   7.456   1.420  0.1204  0.7993 -0.3410
23905SOL    HW180493   0.689   7.552   1.420  1.1285  0.8391 -1.6666
23905SOL    HW280494   0.598   7.431   1.429 -0.1024  1.8690  0.6106
23906SOL     OW80495   9.925   9.768   7.814  0.2488  0.3376  0.1430
23906SOL    HW180496   9.996   9.802   7.869 -0.8387  1.1819  1.0671
23906SOL    HW280497   9.850   9.762   7.873 -0.5775 -0.1245 -0.9254
23907SOL     OW80498  11.517  10.597   0.398 -0.4709  0.2372 -0.3772
23907SOL    HW180499  11.583  10.626   0.461 -0.2209 -2.0528  0.5354
23907SOL    HW280500  11.516  10.664   0.331 -0.0703  2.3257  1.5885
23908SOL     OW80501  10.455  12.416   6.182 -0.4282  0.2380 -0.1601
23908SOL    HW180502  10.491  12.405   6.094  2.3274  0.1088  0.8524
23908SOL    HW280503  10.523  12.466   6.229 -2.1017  0.8734  1.7148
23909SOL     OW80504  12.117   5.690  10.014  0.2139 -0.0557 -0.0547
23909SOL    HW180505  12.144   5.604   9.983 -1.4359  0.0473 -2.0378
23909SOL    HW280506  12.028   5.676  10.047 -0.4423  0.9752 -1.2632
23910SOL     OW80507   2.553   5.881   5.542  0.0041 -0.2238  0.2124
23910SOL    HW180508   2.647   5.877   5.522  0.0697 -0.1352  0.4976
23910SOL    HW280509   2.547   5.942   5.615 -0.4913  1.2879 -1.0532
23911SOL     OW80510   1.622   8.483   8.958  0.6035 -0.0618  0.0587
23911SOL    HW180511   1.641   8.545   8.887  2.1551 -0.7794 -0.1873
23911SOL    HW280512   1.550   8.430   8.924  0.1000  0.7763 -0.2290
23912SOL     OW80513   4.779   6.607   3.730 -0.1983 -0.2992  0.1664
23912SOL    HW180514   4.849   6.613   3.796 -0.6610  1.0477  0.5540
23912SOL    HW280515   4.714   6.671   3.758 -0.5126  0.1459 -1.4731
23913SOL     OW80516   2.272   4.181   4.116  0.2169  0.2832  0.0308
23913SOL    HW180517   2.270   4.150   4.026 -3.2896  2.7888 -0.9937
23913SOL    HW280518   2.347   4.240   4.119  0.7418 -0.2981 -1.0533
23914SOL     OW80519  11.894   4.295   6.870 -0.2063  0.2175  0.1354
23914SOL    HW180520  11.923   4.284   6.780  0.1667  1.6873  0.0414
23914SOL    HW280521  11.848   4.214   6.892  0.6734 -0.6075 -0.9962
23915SOL     OW80522   4.660  10.940   4.724  0.6000  0.0706 -0.3389
23915SOL    HW180523   4.619  10.856   4.745  0.6755  0.0120 -0.4209
23915SOL    HW280524   4.609  11.005   4.772 -0.4426  0.1389 -1.4882
23916SOL     OW80525   9.929   9.128   8.938  0.6361  0.1958  0.0110
23916SOL    HW180526   9.918   9.033   8.946 -1.4959  0.5008  1.7340
23916SOL    HW280527  10.013   9.145   8.982  1.1541 -0.8788 -0.5037
23917SOL     OW80528   2.553   9.933   7.365  0.3206 -0.2773 -0.1376
23917SOL    HW180529   2.527   9.990   7.293 -1.9453 -0.3355  0.5722
23917SOL    HW280530   2.488   9.862   7.366  1.6303 -1.5329  0.5556
23918SOL     OW80531   5.709   0.568   9.725 -0.1976  0.3962 -0.2188
23918SOL    HW180532   5.621   0.582   9.692 -0.0108 -0.6877 -1.2558
23918SOL    HW280533   5.716   0.473   9.734  1.0335  0.4219 -0.6745
23919SOL     OW80534   2.354  10.696   8.584 -0.1084 -0.6106 -0.1834
23919SOL    HW180535   2.439  10.728   8.613 -0.7880  4.1320 -2.4076
23919SOL    HW280536   2.373  10.638   8.511  1.2494  0.1545 -0.4720
23920SOL     OW80537   0.555   3.535   0.212 -0.1000 -0.9088 -0.3155
23920SOL    HW180538   0.495   3.470   0.175  0.4081 -0.5135 -1.8976
23920SOL    HW280539   0.589   3.582   0.136 -0.5600  1.3280  0.7921
23921SOL     OW80540  10.302   5.811   0.817  0.2278 -0.6052 -0.2060
23921SOL    HW180541  10.396   5.825   0.808  0.2618 -1.6432 -1.8876
23921SOL    HW280542  10.263   5.859   0.744 -0.6040  0.1261  0.6905
23922SOL     OW80543   7.516   5.204   5.566 -0.1404  0.3570 -0.5910
23922SOL    HW180544   7.583   5.268   5.594 -0.8744  1.1385 -0.5843
23922SOL    HW280545   7.461   5.253   5.505 -1.3596  0.0475  0.2428
23923SOL     OW80546   3.243   9.303   0.811 -0.4132  0.0938  0.8583
23923SOL    HW180547   3.158   9.280   0.773  1.0277  0.1483 -2.7924
23923SOL    HW280548   3.245   9.399   0.809  0.0268  0.0835  0.0171
23924SOL     OW80549   2.113   1.615   1.389  0.0790 -0.3539  0.3924
23924SOL    HW180550   2.111   1.524   1.417 -0.0509 -1.2996 -2.3846
23924SOL    HW280551   2.144   1.612   1.299  1.5490  2.5219  0.6759
23925SOL     OW80552   2.875   9.688   0.098 -0.3475  0.4441 -0.0291
23925SOL    HW180553   2.859   9.703   0.191 -1.4430 -0.5455 -0.0339
23925SOL    HW280554   2.947   9.625   0.096 -0.8777 -0.1802  0.1833
23926SOL     OW80555   9.094   0.081   4.940 -0.0528 -0.1046  0.4263
23926SOL    HW180556   9.144   0.036   4.871  1.1267  1.2640  0.3332
23926SOL    HW280557   9.073   0.012   5.002  1.1287 -0.9239 -0.0298
23927SOL     OW80558   4.894   2.872   1.224 -0.1155 -0.7288 -1.2517
23927SOL    HW180559   4.805   2.900   1.202  0.4254  1.7706 -0.5798
23927SOL    HW280560   4.900   2.782   1.191 -2.6746 -0.7595 -1.8339
23928SOL     OW80561   4.038   6.754   1.092 -0.1199  0.5421  0.0404
23928SOL    HW180562   4.026   6.845   1.120  1.0568  0.4066  1.1257
23928SOL    HW280563   4.116   6.725   1.141 -1.4660 -1.5791  1.0832
23929SOL     OW80564  10.065   0.650   9.101  0.1314 -0.2916  0.5937
23929SOL    HW180565  10.044   0.650   9.008 -1.6210 -1.2574  0.9361
23929SOL    HW280566  10.158   0.630   9.105  0.1448 -0.6654 -0.9477
23930SOL     OW80567   8.739   7.184   5.247 -0.2627  0.5975  0.1393
23930SOL    HW180568   8.688   7.164   5.325  0.4861  1.1964  0.7943
23930SOL    HW280569   8.825   7.210   5.279  0.0111  1.0196 -0.8675
23931SOL     OW80570   3.413   8.020  10.385 -0.7103  0.2030  0.6335
23931SOL    HW180571   3.328   8.054  10.358  0.7748  1.7008 -2.6324
23931SOL    HW280572   3.397   7.927  10.400 -2.4363 -0.2220 -2.8379
23932SOL     OW80573   0.794   6.892   1.477 -0.0665 -0.3119  0.0412
23932SOL    HW180574   0.821   6.895   1.569  1.4436 -1.1215 -0.3391
23932SOL    HW280575   0.840   6.817   1.441 -2.6782 -1.6262 -0.7948
23933SOL     OW80576   0.803   1.007  11.406 -0.0886  0.0865  0.3902
23933SOL    HW180577   0.893   1.019  11.376  0.3705 -1.0855  1.2000
23933SOL    HW280578   0.760   1.091  11.390  1.5149  1.0999  1.2068
23934SOL     OW80579   2.980   6.764   5.501 -0.9112  0.2473  0.8165
23934SOL    HW180580   2.982   6.860   5.496 -0.6597  0.3116  1.9300
23934SOL    HW280581   2.889   6.743   5.523 -0.9683  0.2185  0.5635
23935SOL     OW80582   4.739   7.311   7.292  0.0528  0.3581  0.4789
23935SOL    HW180583   4.739   7.291   7.386  0.7437  0.1310  0.4368
23935SOL    HW280584   4.668   7.374   7.281  0.1956  0.6603  1.2200
23936SOL     OW80585   1.063   5.161   9.750  0.4217 -0.2854 -0.5442
23936SOL    HW180586   1.130   5.213   9.706 -0.8422  1.8886 -0.0650
23936SOL    HW280587   1.089   5.070   9.736  1.8742  0.4069 -2.8283
23937SOL     OW80588   3.073   5.259   4.670 -0.6800 -0.1919  0.8214
23937SOL    HW180589   3.039   5.169   4.664  1.9759 -1.1867 -2.8888
23937SOL    HW280590   3.019   5.309   4.608  0.5157 -0.2876 -0.3239
23938SOL     OW80591  11.482   6.809   2.261  0.3346 -0.4089  0.5445
23938SOL    HW180592  11.556   6.791   2.320  2.0634  0.1820 -1.3032
23938SOL    HW280593  11.519   6.868   2.194 -1.3882 -1.3692 -1.3693
23939SOL     OW80594   6.478   3.505  10.835  0.4852  0.4324 -0.0179
23939SOL    HW180595   6.458   3.421  10.793 -0.0212 -0.8122  2.5000
23939SOL    HW280596   6.571   3.498  10.858  0.4990  0.6559 -0.0098
23940SOL     OW80597   0.790   8.351   2.579 -0.0741  0.5855 -0.8402
23940SOL    HW180598   0.885   8.358   2.580 -0.1001  3.1204 -3.2540
23940SOL    HW280599   0.773   8.257   2.576  2.4227  0.0872 -1.9579
23941SOL     OW80600  12.574   7.483   5.945 -0.1120  0.0620  0.0453
23941SOL    HW180601  12.655   7.457   5.901 -0.9989 -1.8687 -0.5557
23941SOL    HW280602  12.506   7.431   5.903 -1.1061 -1.5865  3.3634
23942SOL     OW80603   1.401   6.864  10.371  0.3841 -0.1993  0.3086
23942SOL    HW180604   1.321   6.881  10.321  1.8646 -0.3627 -2.2900
23942SOL    HW280605   1.430   6.950  10.401 -1.0695 -0.2107  1.8842
23943SOL     OW80606  10.478   3.471   9.969 -0.3566 -0.5322 -0.5420
23943SOL    HW180607  10.569   3.450   9.992  0.0765  0.7947 -0.9478
23943SOL    HW280608  10.455   3.541  10.030 -0.7479 -0.1280 -1.1562
23944SOL     OW80609  12.168   0.804   1.963  0.0247 -0.1006  0.0878
23944SOL    HW180610  12.253   0.783   1.926  0.1325  0.3458  0.0763
23944SOL    HW280611  12.148   0.731   2.021  0.3394 -0.2858 -0.0354
23945SOL     OW80612   4.441   4.192   2.159 -0.4175  0.7813  0.2183
23945SOL    HW180613   4.499   4.120   2.135  1.1371  1.3433  2.0253
23945SOL    HW280614   4.458   4.260   2.094 -0.0092  0.4573 -0.0169
23946SOL     OW80615   9.544   8.475   2.767 -0.7444  0.7714  0.4702
23946SOL    HW180616   9.585   8.395   2.799  2.1306  1.9290  0.0033
23946SOL    HW280617   9.455   8.472   2.801  0.2611 -1.0153  3.2844
23947SOL     OW80618   8.548  10.241  11.319  0.0512  0.1944  0.6020
23947SOL    HW180619   8.525  10.320  11.269 -1.5044 -1.4719 -1.5576
23947SOL    HW280620   8.467  10.217  11.363 -0.4268 -1.7373 -1.1639
23948SOL     OW80621   5.678   7.018   2.095  0.2426 -0.3963  0.4018
23948SOL    HW180622   5.686   7.077   2.019 -1.1639 -0.0528  0.4964
23948SOL    HW280623   5.752   7.041   2.150  1.1627 -0.4865 -0.7431
23949SOL     OW80624   7.500   7.397   4.938  0.0953 -0.2594  0.4760
23949SOL    HW180625   7.449   7.350   5.003 -2.2641  0.6738 -0.5907
23949SOL    HW280626   7.544   7.329   4.887 -1.6408 -1.2397  0.2280
23950SOL     OW80627   1.639   8.585   8.679 -0.1527  0.0811  0.0501
23950SOL    HW180628   1.602   8.505   8.641  0.0729 -0.9179  1.8112
23950SOL    HW280629   1.582   8.655   8.648 -0.9639 -0.8836 -0.7197
23951SOL     OW80630   6.100   2.742   8.209  0.0258 -0.6264 -0.4558
23951SOL    HW180631   6.066   2.826   8.237  0.7781 -0.3968 -0.2184
23951SOL    HW280632   6.022   2.687   8.199 -0.5019  0.1825 -0.9374
23952SOL     OW80633   0.642   9.939   6.363 -0.3929  0.1220 -0.1606
23952SOL    HW180634   0.593   9.874   6.312  0.3274 -0.1488 -0.5203
23952SOL    HW280635   0.588  10.017   6.360 -1.5533 -0.6072  0.7431
23953SOL     OW80636   7.169  12.305   6.213 -0.2148  0.1760 -0.2490
23953SOL    HW180637   7.158  12.210   6.218  1.9603 -0.3365 -2.7017
23953SOL    HW280638   7.203  12.329   6.299  3.2233 -2.0587 -0.7510
23954SOL     OW80639   8.665   6.312   1.257  0.1972  0.0932  0.9557
23954SOL    HW180640   8.609   6.383   1.227 -2.3533 -1.7389  1.0970
23954SOL    HW280641   8.668   6.322   1.352  0.1542  0.2102  0.9449
23955SOL     OW80642   6.214  10.414   6.616 -0.2578 -0.8533 -0.2404
23955SOL    HW180643   6.138  10.408   6.558 -0.9843  0.8236  0.4870
23955SOL    HW280644   6.209  10.502   6.653  1.9483 -0.7705 -0.0220
23956SOL     OW80645   3.356   7.180   3.631 -0.2173 -0.6468 -0.4189
23956SOL    HW180646   3.396   7.242   3.691 -1.6061  0.5074 -0.6110
23956SOL    HW280647   3.272   7.157   3.673  0.4045 -2.6961 -0.1867
23957SOL     OW80648   1.418  10.218   3.766  0.1139  0.0173  0.2261
23957SOL    HW180649   1.474  10.283   3.807  0.4467  0.1473 -0.4123
23957SOL    HW280650   1.477  10.167   3.711 -0.3722  0.1310 -0.4219
23958SOL     OW80651   1.803   8.559   3.885 -0.6867  0.9095  0.1435
23958SOL    HW180652   1.894   8.588   3.878 -0.6219  0.7708  0.4037
23958SOL    HW280653   1.807   8.476   3.933 -0.7047 -0.4507 -2.0629
23959SOL     OW80654   4.084  10.269   5.564 -0.4727 -0.2055  0.1739
23959SOL    HW180655   4.080  10.198   5.500 -0.1121  0.0460 -0.1356
23959SOL    HW280656   4.096  10.348   5.511 -0.6596  0.0592  0.5272
23960SOL     OW80657  11.808  10.308   0.814  0.0066  0.3445  0.3017
23960SOL    HW180658  11.814  10.265   0.729 -2.1850 -0.6238  0.5745
23960SOL    HW280659  11.725  10.355   0.812  0.0340  0.5228  1.8085
23961SOL     OW80660   8.997   5.975   4.501 -0.2816  0.7430  0.7239
23961SOL    HW180661   8.929   5.919   4.538  0.1868 -0.4177 -0.0875
23961SOL    HW280662   8.961   6.063   4.504 -1.6367  0.2097  0.7061
23962SOL     OW80663   0.118   5.227   0.078  0.1305 -0.1931  0.1439
23962SOL    HW180664   0.035   5.267   0.102  0.5860  0.6446  0.3760
23962SOL    HW280665   0.180   5.300   0.072  1.0099 -0.8682  0.6526
23963SOL     OW80666   1.656  12.014  11.930  0.1211  0.1120 -0.6999
23963SOL    HW180667   1.624  12.058  11.851  1.3775  2.3770 -0.0134
23963SOL    HW280668   1.742  11.980  11.905 -0.4034 -1.1127 -0.9130
23964SOL     OW80669   3.192   0.890  12.028  0.6860 -0.2450  0.7354
23964SOL    HW180670   3.242   0.810  12.009  1.7225  0.2420  1.3004
23964SOL    HW280671   3.252   0.961  12.005  0.0693  0.3654  0.9817
23965SOL     OW80672   3.171   0.311   7.797 -0.3672 -0.4395  0.3439
23965SOL    HW180673   3.158   0.342   7.887  1.1473  0.4797  0.2864
23965SOL    HW280674   3.158   0.389   7.743  0.1997 -0.6438 -0.0999
23966SOL     OW80675  10.254   3.318   2.956  0.0566 -0.0752 -0.2034
23966SOL    HW180676  10.318   3.366   2.904 -0.0709  0.5166  0.1657
23966SOL    HW280677  10.208   3.263   2.893  0.2867  0.2019 -0.6216
23967SOL     OW80678   4.373   4.235  11.408 -0.1044  0.5863  0.2484
23967SOL    HW180679   4.411   4.249  11.321 -0.2418  2.9013  0.4850
23967SOL    HW280680   4.320   4.156  11.398  2.3821 -1.0594 -0.8604
23968SOL     OW80681   7.340   3.853   2.568 -0.0384  0.0448  0.2505
23968SOL    HW180682   7.292   3.908   2.506 -0.6074 -0.8875 -0.1519
23968SOL    HW280683   7.273   3.816   2.626  0.2164 -0.9397 -0.0594
23969SOL     OW80684   1.859   7.372   8.350  0.5224 -0.0685  0.4097
23969SOL    HW180685   1.910   7.298   8.317 -0.8494 -1.4021  1.1570
23969SOL    HW280686   1.813   7.338   8.427 -0.8517  1.2920  0.2506
23970SOL     OW80687  11.984   2.622   9.097  0.0181 -0.8896  0.5301
23970SOL    HW180688  11.903   2.618   9.146 -0.1243 -2.1006  0.2243
23970SOL    HW280689  11.974   2.556   9.028  0.2416  0.6774 -1.0794
23971SOL     OW80690   5.233   6.371  11.479 -0.2995  0.6523  0.5012
23971SOL    HW180691   5.177   6.349  11.404 -0.7952  1.2846  0.6716
23971SOL    HW280692   5.193   6.325  11.553  0.5479 -0.4728  0.2805
23972SOL     OW80693   9.607   2.558   3.793  0.0262  0.2238  0.4507
23972SOL    HW180694   9.607   2.489   3.859  3.6338 -0.7549 -0.3532
23972SOL    HW280695   9.600   2.639   3.843 -0.0498 -0.5702  1.7815
23973SOL     OW80696   0.291   7.878   8.197 -0.0760 -0.0340  0.1824
23973SOL    HW180697   0.386   7.873   8.194  0.1706  2.7402  0.7981
23973SOL    HW280698   0.264   7.873   8.105  0.8281  0.9658 -0.1588
23974SOL     OW80699  12.372   4.510   2.480 -0.3300 -0.0564  0.5335
23974SOL    HW180700  12.447   4.468   2.439 -1.7715 -2.5210  0.2164
23974SOL    HW280701  12.296   4.479   2.431 -1.7016  1.0612  1.8210
23975SOL     OW80702  12.072   4.488   9.816  0.4346  0.4366  0.1747
23975SOL    HW180703  12.162   4.487   9.784  0.4938  1.4538  0.2785
23975SOL    HW280704  12.059   4.402   9.856  1.1081  0.0059 -0.5190
23976SOL     OW80705   2.724   2.467   2.878  0.2898 -0.4118 -0.0301
23976SOL    HW180706   2.790   2.494   2.814  1.0233 -0.9909  0.4623
23976SOL    HW280707   2.649   2.440   2.826  0.4830  0.1381 -0.6091
23977SOL     OW80708   0.298  10.099   7.388  0.0970  0.2802  0.7585
23977SOL    HW180709   0.241  10.036   7.433 -1.1285  0.5183 -0.3843
23977SOL    HW280710   0.383  10.056   7.384 -0.7438 -1.4210 -0.1523
23978SOL     OW80711   7.119   8.362  11.711  0.8339 -0.1769  0.1429
23978SOL    HW180712   7.061   8.323  11.646 -0.2520 -3.2382  2.6752
23978SOL    HW280713   7.206   8.327  11.690  1.0536  1.0389 -1.1540
23979SOL     OW80714   8.126   6.399   9.698 -0.1340 -0.6319  0.2958
23979SOL    HW180715   8.063   6.403   9.770 -0.3021 -1.3369  0.1920
23979SOL    HW280716   8.125   6.308   9.670  1.3306 -0.7998  0.6553
23980SOL     OW80717  10.136  11.200   5.596 -0.2115 -0.0294  1.1007
23980SOL    HW180718  10.143  11.139   5.670  1.8503  0.7287  1.5798
23980SOL    HW280719  10.074  11.266   5.625  0.2167  0.0003  1.9702
23981SOL     OW80720   8.811   1.703   4.475  0.1232  0.1120  0.2390
23981SOL    HW180721   8.879   1.648   4.516 -0.2424 -1.1371 -0.7630
23981SOL    HW280722   8.837   1.708   4.383 -0.1015  1.2730  0.2298
23982SOL     OW80723   1.478   8.946   8.552  0.2312  0.2402 -0.0232
23982SOL    HW180724   1.559   8.997   8.543 -1.6783  3.5142 -0.2134
23982SOL    HW280725   1.473   8.927   8.646  1.1428  0.0941  0.0106
23983SOL     OW80726  12.612   2.571   2.444  0.1212  0.5214  0.3573
23983SOL    HW180727  12.683   2.524   2.487 -0.0944  0.0076  0.1650
23983SOL    HW280728  12.592   2.644   2.502  0.0933  0.0589  0.9362
23984SOL     OW80729   2.239   8.550  11.765 -0.2747  0.1242  0.4514
23984SOL    HW180730   2.276   8.637  11.775  0.1246 -0.0852  0.7897
23984SOL    HW280731   2.201   8.550  11.677 -0.1390  0.5835  0.3931
23985SOL     OW80732   6.158   2.292   6.923 -0.4003  0.0795  0.4296
23985SOL    HW180733   6.131   2.383   6.940 -0.9362  0.5175 -2.3016
23985SOL    HW280734   6.252   2.291   6.941 -0.2562  1.3695 -0.1324
23986SOL     OW80735  10.466  10.629   5.868 -0.8684  0.0313  0.5881
23986SOL    HW180736  10.508  10.545   5.883  2.0293  1.4464  1.1341
23986SOL    HW280737  10.505  10.688   5.933 -2.6652  1.8362  0.1372
23987SOL     OW80738   4.428   0.384   6.618  0.3017  0.9508  0.4363
23987SOL    HW180739   4.418   0.340   6.702 -0.2527  0.1399 -0.0504
23987SOL    HW280740   4.514   0.427   6.625  1.7439 -1.7017  0.2572
23988SOL     OW80741   3.208   9.792   1.595 -0.3254  0.2357  0.0471
23988SOL    HW180742   3.234   9.716   1.544 -2.1016  0.1446 -0.7945
23988SOL    HW280743   3.258   9.865   1.557  0.5137 -0.2946  0.1076
23989SOL     OW80744   1.937   1.941   8.485 -0.2923 -0.6696  0.3526
23989SOL    HW180745   1.883   1.869   8.452 -0.1359 -1.4971  1.8027
23989SOL    HW280746   1.879   2.018   8.482 -0.9241 -1.1495  0.0989
23990SOL     OW80747   1.699  12.228   7.155  0.3353 -0.0111 -0.3797
23990SOL    HW180748   1.674  12.152   7.208  0.4421  1.0057  1.1687
23990SOL    HW280749   1.784  12.255   7.189  1.3962 -0.5364 -2.4374
23991SOL     OW80750   5.749  12.187  12.437 -0.5404 -0.3027  0.0390
23991SOL    HW180751   5.749  12.113  12.498  0.7076 -0.9501 -0.6989
23991SOL    HW280752   5.735  12.146  12.351 -1.9599  0.5582 -0.1736
23992SOL     OW80753  12.243   6.451   5.342 -0.4291  0.0686 -0.7542
23992SOL    HW180754  12.246   6.357   5.325 -0.5246 -0.2897  0.9712
23992SOL    HW280755  12.152   6.470   5.362 -0.2353  0.3104 -0.0615
23993SOL     OW80756  11.239   0.060   7.042 -0.5189 -0.2917 -0.0459
23993SOL    HW180757  11.224   0.153   7.022  0.0294 -0.3089 -0.5783
23993SOL    HW280758  11.312   0.035   6.984 -0.5946 -1.0256  0.1718
23994SOL     OW80759   1.847   3.921   4.719 -0.4183 -0.3803 -0.2983
23994SOL    HW180760   1.847   4.017   4.712 -2.0179 -0.4600 -2.5268
23994SOL    HW280761   1.784   3.902   4.788  0.8756  0.1585  1.0839
23995SOL     OW80762   6.145   0.759   0.384 -0.8032 -0.2428  0.1109
23995SOL    HW180763   6.209   0.775   0.454  0.1112 -0.9922 -0.5255
23995SOL    HW280764   6.161   0.669   0.357  0.0147  0.5134 -2.1777
23996SOL     OW80765   6.719   9.097   0.973  0.1396  0.1355  0.1077
23996SOL    HW180766   6.661   9.072   0.901 -0.7251  0.3739  0.7087
23996SOL    HW280767   6.801   9.050   0.955 -0.4348 -0.6828 -0.4256
23997SOL     OW80768  10.580   0.539   8.738  0.3863 -0.0375  0.1587
23997SOL    HW180769  10.527   0.538   8.658  0.3213 -0.7678  0.2022
23997SOL    HW280770  10.609   0.630   8.747 -1.3628  0.5184  0.4611
23998SOL     OW80771   4.847   6.145   2.868  0.3689  0.2516 -0.0277
23998SOL    HW180772   4.775   6.098   2.826 -0.7886  1.6885  0.2212
23998SOL    HW280773   4.850   6.110   2.956  0.0219  0.1146 -0.0666
23999SOL     OW80774   0.701   3.990   9.640  0.4406 -0.2845  0.1477
23999SOL    HW180775   0.745   4.021   9.561 -1.8842 -0.7938 -1.4485
23999SOL    HW280776   0.649   3.915   9.611 -1.2896  0.1288  1.9309
24000SOL     OW80777   9.560  12.058   1.850  0.3630  0.1056  0.2777
24000SOL    HW180778   9.524  12.003   1.920  0.4542  0.7330  0.8292
24000SOL    HW280779   9.640  12.013   1.823 -0.7741 -1.2919 -0.9468
24001SOL     OW80780   8.281   0.978   3.723 -0.0921 -0.4420 -0.3019
24001SOL    HW180781   8.200   0.939   3.690  0.6204 -0.0167 -2.7376
24001SOL    HW280782   8.350   0.921   3.690  0.6546 -1.2912  2.4540
24002SOL     OW80783  11.256  10.114  10.036 -0.2924 -0.0918 -0.5400
24002SOL    HW180784  11.226  10.158  10.115 -1.8111 -0.1140 -1.0698
24002SOL    HW280785  11.181  10.063  10.007  0.7735 -1.4104 -1.0835
24003SOL     OW80786  12.481   4.101  11.734  0.5577  0.7056 -0.6797
24003SOL    HW180787  12.549   4.120  11.669  0.9844  0.4426 -0.3154
24003SOL    HW280788  12.479   4.179  11.790  0.6691  0.6498 -0.5973
24004SOL     OW80789   2.131  11.558  11.374  0.0645  0.2279  0.0713
24004SOL    HW180790   2.107  11.577  11.464  1.9153 -0.3747  0.7298
24004SOL    HW280791   2.119  11.463  11.365 -0.4833  0.3430 -0.4362
24005SOL     OW80792   9.629   7.474   0.407  0.4579  0.1663  0.9129
24005SOL    HW180793   9.648   7.552   0.458  0.6964 -0.3734  1.6737
24005SOL    HW280794   9.538   7.454   0.428  0.3722  0.2905  0.6556
24006SOL     OW80795  11.946   7.178  12.419  0.0242 -0.2288  0.2727
24006SOL    HW180796  11.936   7.230  12.339 -0.7894  0.2999  0.7117
24006SOL    HW280797  11.961   7.242  12.488 -3.5177 -0.2717  1.2749
24007SOL     OW80798   6.078   8.130   9.218 -0.3239 -0.7308 -0.0673
24007SOL    HW180799   6.141   8.111   9.287  1.4685  1.5178 -0.9403
24007SOL    HW280800   6.131   8.158   9.144 -2.3053  1.3031 -0.8576
24008SOL     OW80801   2.032  10.544   6.652 -0.3068 -0.0074  0.1544
24008SOL    HW180802   2.008  10.462   6.609  0.0152 -0.4590  0.8186
24008SOL    HW280803   2.049  10.605   6.580 -1.0075 -0.3824 -0.3421
24009SOL     OW80804   8.930   4.910  10.313  0.0948 -0.1113  0.2974
24009SOL    HW180805   8.958   4.924  10.222  0.0022 -0.4517  0.2122
24009SOL    HW280806   8.997   4.953  10.366  0.2142 -0.0170  0.0704
24010SOL     OW80807   7.189   4.388   5.360 -0.0108 -0.2027 -0.5377
24010SOL    HW180808   7.103   4.347   5.369 -0.3788  0.3831 -1.2890
24010SOL    HW280809   7.174   4.464   5.304  0.7024  0.7892  0.5511
24011SOL     OW80810  11.017   5.209   8.945  0.2255  0.0156 -0.2589
24011SOL    HW180811  10.933   5.203   8.990 -0.3194  1.9379 -0.9097
24011SOL    HW280812  10.998   5.186   8.854  0.2114  1.2152 -0.5742
24012SOL     OW80813   2.901   5.274   1.020 -0.2343  0.0927  0.0378
24012SOL    HW180814   2.930   5.184   1.004 -1.8872 -0.6587  1.0315
24012SOL    HW280815   2.980   5.320   1.047  0.3294 -1.5406  1.3770
24013SOL     OW80816   4.596   6.979  11.954  0.4395 -0.2184  0.0935
24013SOL    HW180817   4.539   6.986  11.878  0.7446 -0.9918 -0.2202
24013SOL    HW280818   4.541   7.004  12.028  0.0755  0.3201 -0.3562
24014SOL     OW80819   1.745   6.128  11.790  0.3192 -0.1438  0.4745
24014SOL    HW180820   1.665   6.179  11.784  2.0833  2.8547  0.4435
24014SOL    HW280821   1.723   6.055  11.849 -3.3446 -1.6182 -2.3490
24015SOL     OW80822   0.554   6.122   4.988  0.1742  0.2104 -0.1379
24015SOL    HW180823   0.516   6.062   4.924 -0.4391  0.0429  0.3749
24015SOL    HW280824   0.489   6.191   4.998  0.1309  0.0736  0.5366
24016SOL     OW80825  11.482   4.997   3.933 -0.8262  0.2347  0.0281
24016SOL    HW180826  11.504   5.055   4.005  0.9378  1.4282 -1.3861
24016SOL    HW280827  11.390   5.017   3.913 -0.9927  0.6888  1.1911
24017SOL     OW80828   1.377   2.544   4.188 -0.2181  0.4187 -0.5584
24017SOL    HW180829   1.283   2.563   4.182  0.0713  1.7959 -1.0967
24017SOL    HW280830   1.382   2.465   4.242 -1.7621 -0.3831 -1.5082
24018SOL     OW80831   9.745   9.845  11.833  0.3214  0.3126  0.0579
24018SOL    HW180832   9.678   9.908  11.859  0.8598  0.8635  0.1430
24018SOL    HW280833   9.774   9.874  11.747 -0.3515 -0.5983 -0.5002
24019SOL     OW80834   8.348   6.355   7.116 -0.1434 -0.5252  0.2373
24019SOL    HW180835   8.329   6.274   7.164  3.4738 -0.6281  1.8339
24019SOL    HW280836   8.407   6.328   7.046 -0.2255  0.5466 -0.2582
24020SOL     OW80837   1.154  12.543   6.708  0.3172  0.4371 -0.0703
24020SOL    HW180838   1.068  12.585   6.704  0.3652  0.5788  0.3068
24020SOL    HW280839   1.170  12.533   6.802  0.2727 -0.4923 -0.1552
24021SOL     OW80840   5.179   8.580   1.915  0.2528 -0.1134 -0.0122
24021SOL    HW180841   5.182   8.673   1.894 -0.9801 -0.4763 -2.0618
24021SOL    HW280842   5.220   8.573   2.001  1.9988  2.0664 -0.5975
24022SOL     OW80843   9.013   7.134   7.756  0.0645  0.0406 -0.3077
24022SOL    HW180844   9.025   7.092   7.671  2.9174  0.4779 -0.2038
24022SOL    HW280845   9.037   7.225   7.742 -2.7782  0.9619  0.2548
24023SOL     OW80846   9.640   8.731  11.170 -0.0424  0.1993 -0.1093
24023SOL    HW180847   9.595   8.815  11.181 -2.1317 -0.7627 -0.8036
24023SOL    HW280848   9.676   8.734  11.082  0.4519  0.6096  0.1036
24024SOL     OW80849   3.942   5.120  11.896  0.0098  0.0907  0.2020
24024SOL    HW180850   3.932   5.204  11.939 -0.0434  0.0764  0.2182
24024SOL    HW280851   3.945   5.056  11.968 -0.0722  0.0676  0.1851
24025SOL     OW80852   0.886   8.586   2.236  0.6801  0.1239 -0.6010
24025SOL    HW180853   0.903   8.551   2.149  1.3047 -1.4252  0.1083
24025SOL    HW280854   0.825   8.524   2.276 -0.3922  1.3384 -0.2608
24026SOL     OW80855   7.587   2.182   0.357 -0.3767  0.2287 -0.1673
24026SOL    HW180856   7.637   2.232   0.293 -1.4144  0.4699 -0.8100
24026SOL    HW280857   7.651   2.157   0.423  0.0105  3.3663  0.8014
24027SOL     OW80858   1.247   6.340   4.007 -0.3619 -0.1243 -0.0200
24027SOL    HW180859   1.305   6.416   4.003 -1.0036  0.4890  1.4208
24027SOL    HW280860   1.270   6.297   4.089 -0.8395 -0.7968 -0.2316
24028SOL     OW80861   1.970   7.965   7.499  0.1077 -0.1911 -0.1718
24028SOL    HW180862   1.983   7.905   7.425  0.2435 -0.0478 -0.2649
24028SOL    HW280863   2.052   8.014   7.505 -0.0348  0.0457 -0.1498
24029SOL     OW80864   5.350  10.732   1.647 -0.8179 -0.7976  0.1627
24029SOL    HW180865   5.332  10.638   1.636  0.1575 -0.8571 -1.0628
24029SOL    HW280866   5.438  10.735   1.683 -0.9326 -0.3486  0.4070
24030SOL     OW80867   8.329   9.307  11.277  0.0270 -0.0586 -1.0338
24030SOL    HW180868   8.366   9.334  11.194 -0.4795  0.7409 -1.0096
24030SOL    HW280869   8.400   9.319  11.340  0.1752  0.0724 -1.2244
24031SOL     OW80870   4.541  12.429  10.091 -0.5696  0.3106  0.8397
24031SOL    HW180871   4.630  12.399  10.071 -1.6953 -2.2853 -0.8656
24031SOL    HW280872   4.547  12.524  10.094  2.1563  0.2236  0.2489
24032SOL     OW80873   4.470   7.860   0.699 -0.4010  0.6034  0.2085
24032SOL    HW180874   4.537   7.863   0.768  1.6376 -0.0575 -1.6178
24032SOL    HW280875   4.449   7.951   0.682 -0.4797  0.7949  1.2816
24033SOL     OW80876   5.326   4.992   1.732  0.3096 -0.0892  0.0340
24033SOL    HW180877   5.390   5.042   1.682  1.0909 -2.2005 -1.2305
24033SOL    HW280878   5.289   5.055   1.795  2.2066  1.6642 -0.5054
24034SOL     OW80879   3.857  10.366   6.196 -0.6670 -0.0960  0.1757
24034SOL    HW180880   3.769  10.344   6.166 -0.8194  0.3281  0.3092
24034SOL    HW280881   3.851  10.458   6.222 -0.1983 -0.0811  0.2319
24035SOL     OW80882   3.624   6.718  10.544 -0.1154  0.0009 -0.3840
24035SOL    HW180883   3.654   6.809  10.552 -1.1558  0.5134 -1.8404
24035SOL    HW280884   3.654   6.690  10.458  1.7830 -1.7104  0.7489
24036SOL     OW80885   8.208   6.745   8.233 -0.2598 -0.2231  0.3119
24036SOL    HW180886   8.157   6.755   8.314 -0.7953  0.4520 -0.0991
24036SOL    HW280887   8.151   6.780   8.165  1.3848  2.1254  0.0473
24037SOL     OW80888   6.047   0.068   5.466  0.1649  0.3540 -0.3264
24037SOL    HW180889   6.129   0.039   5.507 -0.3363 -2.3317 -1.0320
24037SOL    HW280890   6.055   0.041   5.374 -0.3080  2.8049 -1.1642
24038SOL     OW80891   2.515   6.973   6.614 -0.0238  0.0383  0.4866
24038SOL    HW180892   2.590   7.032   6.614  0.8567 -0.9955  1.9878
24038SOL    HW280893   2.445   7.021   6.570  1.0098  1.7032  0.6039
24039SOL     OW80894   4.220   7.598   1.181  0.9728  0.4552 -0.0756
24039SOL    HW180895   4.220   7.649   1.262  2.0143 -0.9661  0.8622
24039SOL    HW280896   4.136   7.553   1.180  0.1514  1.9225 -0.7846
24040SOL     OW80897   9.997   6.881   2.095 -0.1245  0.2216 -0.4291
24040SOL    HW180898   9.948   6.804   2.121  0.3528  0.4633  1.2677
24040SOL    HW280899  10.070   6.846   2.043 -0.0094 -0.4546  0.1777
24041SOL     OW80900   3.855   6.899  10.230  0.6974  0.1346 -0.1460
24041SOL    HW180901   3.810   6.869  10.309  1.3302 -3.4850 -0.9715
24041SOL    HW280902   3.807   6.857  10.158  0.7402  2.5260 -1.6809
24042SOL     OW80903   8.909   1.877   5.878  0.2321  0.3289 -0.0424
24042SOL    HW180904   8.843   1.946   5.873  0.9571  1.0884  0.4636
24042SOL    HW280905   8.910   1.852   5.971  2.4361  2.1857  0.5418
24043SOL     OW80906   6.656  11.587   4.331  0.2527 -0.3461  0.0387
24043SOL    HW180907   6.562  11.569   4.328  0.1753  0.1498 -1.2152
24043SOL    HW280908   6.684  11.583   4.239  0.8753  2.4006  0.0031
24044SOL     OW80909   2.634   2.988   0.909  0.4204 -0.3604 -0.9021
24044SOL    HW180910   2.660   2.969   0.819 -0.1283 -0.7286 -0.9865
24044SOL    HW280911   2.595   2.906   0.941  1.2704 -0.4699 -0.0831
24045SOL     OW80912   5.340   9.249  11.247  0.3498  0.6418  0.3345
24045SOL    HW180913   5.395   9.172  11.261 -1.0396 -0.7444 -1.4116
24045SOL    HW280914   5.312   9.274  11.335  2.2558  0.2682  1.0900
24046SOL     OW80915   6.781   2.470   3.776 -0.0996 -0.1274  0.0013
24046SOL    HW180916   6.846   2.498   3.839 -0.0032 -0.2477 -0.0437
24046SOL    HW280917   6.708   2.439   3.829 -0.2394  0.2748  0.0532
24047SOL     OW80918  11.540   7.589   2.309 -0.3435 -0.4868 -0.1461
24047SOL    HW180919  11.456   7.556   2.340 -0.2675 -0.9592 -0.4172
24047SOL    HW280920  11.518   7.652   2.241 -0.5791  1.8306  1.9206
24048SOL     OW80921   7.479   8.981   6.267  0.1214  0.8067 -0.0278
24048SOL    HW180922   7.510   9.058   6.314  0.4250  0.0847  1.0000
24048SOL    HW280923   7.554   8.952   6.216  0.4525  0.3924  0.6772
24049SOL     OW80924   0.021   4.860   8.256  0.6159  0.3680 -0.4858
24049SOL    HW180925  -0.070   4.888   8.268  0.0424 -1.6507  0.2276
24049SOL    HW280926   0.063   4.877   8.340  0.0038 -1.6728  0.2940
24050SOL     OW80927   8.097   6.989   1.563  0.1214  0.3625  0.0616
24050SOL    HW180928   8.029   6.931   1.528 -0.6065  1.9744 -1.2735
24050SOL    HW280929   8.162   6.996   1.493  1.2060 -0.3186  0.9380
24051SOL     OW80930   4.597   0.037  12.137  0.0105 -0.2127 -0.6842
24051SOL    HW180931   4.683   0.074  12.156 -0.6574  0.4356  1.3501
24051SOL    HW280932   4.538   0.113  12.132 -0.9582 -0.7657  1.1836
24052SOL     OW80933   5.335   3.098   9.649  0.6597 -0.6160 -0.5572
24052SOL    HW180934   5.346   3.026   9.711  0.6419  0.5001  0.7889
24052SOL    HW280935   5.287   3.059   9.575 -0.6772 -1.6410  0.7854
24053SOL     OW80936   5.424   9.831   5.993 -0.0154 -0.4131  0.1554
24053SOL    HW180937   5.337   9.808   6.025  0.1628  0.9157  1.7662
24053SOL    HW280938   5.465   9.875   6.067  2.6554 -2.4468  0.0407
24054SOL     OW80939  11.791   6.960   0.749 -0.8616  0.3800 -0.2204
24054SOL    HW180940  11.826   7.043   0.782  0.7987 -0.5587  0.5136
24054SOL    HW280941  11.861   6.926   0.692 -1.0750 -0.9930  0.3019
24055SOL     OW80942   1.788  10.289  12.077  0.0092  0.0278  0.1888
24055SOL    HW180943   1.723  10.339  12.128  0.5897  0.5583  0.4250
24055SOL    HW280944   1.853  10.262  12.142 -0.1164 -0.7495  0.0001
24056SOL     OW80945   5.827   0.347  10.032  0.4410 -0.4888 -0.0435
24056SOL    HW180946   5.883   0.302   9.969 -1.4497 -1.0746 -1.4319
24056SOL    HW280947   5.817   0.284  10.104  0.9340 -0.6853 -0.1431
24057SOL     OW80948   4.797   6.636   6.706 -0.2001  0.0516  0.0206
24057SOL    HW180949   4.887   6.609   6.722  0.2709  1.5227 -0.0005
24057SOL    HW280950   4.747   6.597   6.778  0.5501 -0.2742  0.3713
24058SOL     OW80951   2.009   8.423   5.566  0.0308  0.6451 -0.4965
24058SOL    HW180952   2.025   8.378   5.483 -0.2257  1.3428 -0.9361
24058SOL    HW280953   2.061   8.375   5.630  3.0273  2.1310 -1.6449
24059SOL     OW80954   6.266   4.590   4.022 -0.0803 -0.0716 -0.2532
24059SOL    HW180955   6.299   4.591   3.931 -0.2708 -0.2624 -0.3242
24059SOL    HW280956   6.220   4.673   4.031 -1.5602 -0.7858 -0.8881
24060SOL     OW80957   1.494   9.700   9.785  0.0767 -0.1015  0.5100
24060SOL    HW180958   1.478   9.783   9.831  1.3161  0.0859  0.6542
24060SOL    HW280959   1.517   9.726   9.696  1.4165 -0.2041  0.8058
24061SOL     OW80960   0.473   8.867   6.354 -0.0549  0.0912 -0.2811
24061SOL    HW180961   0.390   8.836   6.390 -0.7366  0.4078 -1.5334
24061SOL    HW280962   0.526   8.788   6.345  0.2003  0.0142  1.4988
24062SOL     OW80963   5.077  10.281   6.642  0.0850 -0.2779 -0.1160
24062SOL    HW180964   5.056  10.373   6.660 -0.0039 -0.2084 -0.5613
24062SOL    HW280965   5.056  10.270   6.549  0.3972 -0.6649 -0.1412
24063SOL     OW80966   8.712   6.506   0.502 -0.8360  0.4213  0.3048
24063SOL    HW180967   8.711   6.504   0.406 -0.2451 -0.0033  0.3053
24063SOL    HW280968   8.669   6.425   0.528 -0.7505  0.4070  0.3999
24064SOL     OW80969   4.789   8.993   5.164 -0.3624 -0.0663  0.0817
24064SOL    HW180970   4.778   8.966   5.256  0.4798 -1.3958 -0.1712
24064SOL    HW280971   4.868   8.947   5.135  0.3432  1.6380 -0.8507
24065SOL     OW80972   4.852   6.035   7.048 -0.3503  0.1409 -0.0138
24065SOL    HW180973   4.817   6.087   6.976  0.3309  0.5418 -0.0720
24065SOL    HW280974   4.944   6.061   7.053 -0.3950  0.1357  1.0126
24066SOL     OW80975   6.786   5.989   6.956  0.3200  0.3952  0.1618
24066SOL    HW180976   6.713   5.960   7.010 -0.4217  0.2970 -0.8705
24066SOL    HW280977   6.762   5.964   6.867  1.2351  1.0977 -0.3021
24067SOL     OW80978  11.753   1.319   4.108 -0.3536  0.4215  0.3408
24067SOL    HW180979  11.748   1.293   4.016 -0.1281  0.0890  0.4220
24067SOL    HW280980  11.783   1.410   4.105 -0.0733  0.3235  0.0945
24068SOL     OW80981   3.693  12.368   5.890  0.0391 -0.3189 -0.3016
24068SOL    HW180982   3.704  12.283   5.932  0.7898  1.0689  2.6173
24068SOL    HW280983   3.782  12.402   5.881 -0.3176  0.7195 -0.0926
24069SOL     OW80984   1.743   8.719  12.172 -0.4126  0.3509 -0.1134
24069SOL    HW180985   1.788   8.726  12.088 -0.1372  0.6145  0.0516
24069SOL    HW280986   1.805   8.754  12.235 -0.6392  0.2035  0.1933
24070SOL     OW80987   4.817  10.207   3.790 -0.1124  0.1149  0.7037
24070SOL    HW180988   4.912  10.220   3.791 -0.2872  1.6292 -0.0786
24070SOL    HW280989   4.781  10.295   3.793 -1.4623 -0.2769 -1.7314
24071SOL     OW80990   9.464   1.548   8.992  0.0914  0.0386  0.1144
24071SOL    HW180991   9.537   1.487   8.999 -0.8804 -1.1596  0.2958
24071SOL    HW280992   9.504   1.635   8.991  1.4601 -0.5635  0.8375
24072SOL     OW80993   8.728   2.892  12.237 -0.1314 -0.4563 -0.5201
24072SOL    HW180994   8.666   2.941  12.292  0.1106  1.0257 -1.5096
24072SOL    HW280995   8.814   2.923  12.266  0.0341 -0.3891 -1.0855
24073SOL     OW80996  10.129   1.806   4.899  0.5875  0.1148 -0.3216
24073SOL    HW180997  10.158   1.786   4.810 -0.3594 -0.1969 -0.5686
24073SOL    HW280998  10.057   1.745   4.915  1.2561 -0.3914  0.9640
24074SOL     OW80999   1.994   3.855  12.545 -0.0521  0.6481  0.6031
24074SOL    HW181000   2.064   3.913  12.574 -2.7106  2.9995  3.0012
24074SOL    HW281001   1.943   3.908  12.485  0.0649 -0.9758 -1.0155
24075SOL     OW81002  11.951  12.229   9.719 -0.1316 -0.4049 -0.7505
24075SOL    HW181003  12.045  12.212   9.728  0.4049  2.3593 -0.2164
24075SOL    HW281004  11.909  12.152   9.758  1.9879 -0.1858  2.3782
24076SOL     OW81005  12.465   0.306   2.660 -0.3169 -0.0473  0.1748
24076SOL    HW181006  12.429   0.222   2.689 -0.7860  0.2610  0.4966
24076SOL    HW281007  12.512   0.340   2.736 -1.0647  0.4955  0.4021
24077SOL     OW81008   5.549   2.484  10.153  0.2755  0.1366  0.0329
24077SOL    HW181009   5.463   2.443  10.163  0.6654 -1.1781 -1.4739
24077SOL    HW281010   5.604   2.441  10.218 -0.1348  0.7979  0.8270
24078SOL     OW81011   5.241  10.725  11.814 -0.0279 -0.0655  0.5218
24078SOL    HW181012   5.248  10.762  11.726 -0.6781  0.9565  0.8785
24078SOL    HW281013   5.307  10.772  11.866 -0.3815  0.1041  0.8237
24079SOL     OW81014   0.708   2.380   3.570  0.5936  0.0015  0.0011
24079SOL    HW181015   0.801   2.376   3.545  1.1437  0.6658  1.7647
24079SOL    HW281016   0.700   2.317   3.641  0.0030  0.8067  0.6721
24080SOL     OW81017   9.854   5.583  10.951 -0.2065 -0.4218  0.2909
24080SOL    HW181018   9.928   5.643  10.966 -0.4666  0.3195 -1.2470
24080SOL    HW281019   9.789   5.636  10.906 -1.4384 -1.2479  1.0539
24081SOL     OW81020   8.355   4.001   8.299  0.8346 -0.6937 -0.4185
24081SOL    HW181021   8.302   3.925   8.322  1.1886 -0.6682  0.5392
24081SOL    HW281022   8.322   4.029   8.214 -2.1204  0.5602  1.0187
24082SOL     OW81023   7.299   5.803   1.678 -0.2172  0.4542 -0.2736
24082SOL    HW181024   7.297   5.881   1.624 -0.7127  0.2543 -0.5567
24082SOL    HW281025   7.215   5.760   1.661  0.1264 -0.2372 -0.2688
24083SOL     OW81026  12.610  12.078   0.412  0.5063  0.0330  0.2506
24083SOL    HW181027  12.625  12.002   0.356  1.7588  0.9029 -0.6248
24083SOL    HW281028  12.519  12.103   0.395 -0.0756 -1.5140  0.8919
24084SOL     OW81029   0.189  11.935   6.485 -0.3372  0.1451  0.0853
24084SOL    HW181030   0.168  11.971   6.571  0.1287  2.1292 -0.5543
24084SOL    HW281031   0.210  12.013   6.432 -1.3330 -0.9263 -2.0193
24085SOL     OW81032   5.763   7.499   3.037 -0.8606  0.1472 -0.0122
24085SOL    HW181033   5.826   7.562   3.002 -0.6702 -0.8070 -1.4930
24085SOL    HW281034   5.677   7.535   3.016 -0.7466 -0.5402 -1.7959
24086SOL     OW81035   6.175   6.970  11.070  0.0646  0.2006 -0.2359
24086SOL    HW181036   6.260   6.939  11.038  0.3275 -0.3852  0.9943
24086SOL    HW281037   6.176   6.952  11.164 -0.3518  2.6920  0.3079
24087SOL     OW81038   4.331   4.505   6.136  0.1091 -0.7547 -0.0915
24087SOL    HW181039   4.424   4.519   6.122  0.1635 -0.8353  0.1803
24087SOL    HW281040   4.319   4.411   6.122  0.2803 -0.9504  1.0369
24088SOL     OW81041   6.064  10.393   2.880  0.4208  0.0801  0.2183
24088SOL    HW181042   6.125  10.380   2.808  0.2357  1.0447 -0.1292
24088SOL    HW281043   6.120  10.417   2.955  0.5020  0.6528 -0.0191
24089SOL     OW81044   2.977   2.218   9.169 -0.5754 -0.5200 -0.1257
24089SOL    HW181045   3.008   2.128   9.159  0.2640 -0.1757 -0.7129
24089SOL    HW281046   3.047   2.272   9.131 -1.8199  0.2954 -1.3635
24090SOL     OW81047   5.006   5.528   9.310 -0.0769 -0.2703  0.0459
24090SOL    HW181048   5.015   5.452   9.368 -0.3961  0.2270  0.7533
24090SOL    HW281049   4.917   5.560   9.326 -0.0688  0.0472 -0.5150
24091SOL     OW81050   8.955  12.594   3.456  0.2187  0.5478  0.2409
24091SOL    HW181051   9.013  12.534   3.504 -0.4876 -0.6441 -0.3494
24091SOL    HW281052   8.867  12.567   3.481 -0.1183  1.9952  0.7118
24092SOL     OW81053  11.488   0.496   2.628  0.1659 -0.1594  0.6469
24092SOL    HW181054  11.496   0.404   2.652 -2.4998 -0.6145  0.1464
24092SOL    HW281055  11.551   0.509   2.558 -1.0459 -2.3142 -0.9604
24093SOL     OW81056  10.106   7.534   0.604  0.8083 -0.1704  0.1273
24093SOL    HW181057  10.040   7.586   0.649  0.7742  0.9904 -1.1800
24093SOL    HW281058  10.187   7.585   0.613  1.3678 -1.1896  1.0434
24094SOL     OW81059  10.215   5.298   4.833 -0.1837  0.2446 -0.3401
24094SOL    HW181060  10.206   5.357   4.908 -0.3277 -2.0661  1.5385
24094SOL    HW281061  10.292   5.331   4.786  1.0896  0.6581  1.8925
24095SOL     OW81062   2.684   4.451  11.098 -0.2709  0.2236  0.6602
24095SOL    HW181063   2.752   4.464  11.163 -0.9225 -0.1553  1.4482
24095SOL    HW281064   2.667   4.538  11.062  1.6380  0.1267 -0.6410
24096SOL     OW81065   0.275   2.837   3.240 -0.9111  0.5904  0.4721
24096SOL    HW181066   0.187   2.821   3.203 -0.4104  0.3796 -0.6897
24096SOL    HW281067   0.285   2.770   3.307  0.0888 -2.5651 -2.4929
24097SOL     OW81068  12.034  10.316  11.607  0.0469 -0.2520  0.2670
24097SOL    HW181069  12.008  10.313  11.699 -1.9035 -0.0082 -0.2164
24097SOL    HW281070  12.080  10.400  11.598 -1.7195  0.8281  0.6162
24098SOL     OW81071   6.096   6.228   8.379  0.0173  0.5624  0.1092
24098SOL    HW181072   6.181   6.205   8.416  0.3141  0.8311 -0.3938
24098SOL    HW281073   6.096   6.324   8.375 -1.6271  0.8476  3.1822
24099SOL     OW81074   2.640  10.918   0.732 -0.7136  0.1843  0.0656
24099SOL    HW181075   2.631  11.012   0.719 -1.9038  0.2629  1.2892
24099SOL    HW281076   2.555  10.882   0.709 -0.2012 -0.6398 -0.6153
24100SOL     OW81077   2.503   2.675   0.453  0.3520 -0.3825  0.4049
24100SOL    HW181078   2.582   2.715   0.489 -0.3633  1.4950 -0.0032
24100SOL    HW281079   2.455   2.643   0.529  0.6116  0.1716  0.8006
24101SOL     OW81080   4.750   8.082   7.190 -0.0227  0.0987  0.0410
24101SOL    HW181081   4.678   8.026   7.216 -1.5658  1.3599 -1.3018
24101SOL    HW281082   4.717   8.171   7.203  1.6324  0.7173  0.2697
24102SOL     OW81083  10.809   0.301   7.368 -0.2895 -0.0801  0.1078
24102SOL    HW181084  10.800   0.290   7.273  0.2433 -3.0391  0.2829
24102SOL    HW281085  10.760   0.380   7.388 -1.8562 -0.3007 -2.4181
24103SOL     OW81086  11.873   4.352   2.021 -0.2127 -0.6094  0.4211
24103SOL    HW181087  11.885   4.276   1.964 -0.3284 -0.6216  0.4121
24103SOL    HW281088  11.842   4.422   1.963  1.4857 -0.0568  0.1214
24104SOL     OW81089   9.634   0.913   9.695 -0.1979  0.1218 -0.2098
24104SOL    HW181090   9.663   0.893   9.784  1.9226  0.5096 -0.7732
24104SOL    HW281091   9.585   0.996   9.704 -2.0659 -1.0195  0.8921
24105SOL     OW81092   6.464   3.055   8.637  0.2846  0.1018  0.0358
24105SOL    HW181093   6.375   3.026   8.659  0.3774 -0.0285  0.2379
24105SOL    HW281094   6.517   3.027   8.711  0.0545  2.5232  1.2317
24106SOL     OW81095  12.104  12.184  11.018 -0.0542 -0.1790  0.2858
24106SOL    HW181096  12.025  12.237  11.010 -0.1231  0.3922  3.5060
24106SOL    HW281097  12.167  12.240  11.062  1.6162 -1.1907 -0.6942
24107SOL     OW81098   6.364   1.514   9.097 -0.0500 -0.2362 -0.3188
24107SOL    HW181099   6.438   1.574   9.106  0.4946 -0.8542 -0.5718
24107SOL    HW281100   6.331   1.528   9.009 -1.2369  1.1526  0.3183
24108SOL     OW81101   0.474  10.084   0.544 -0.6755 -0.0109 -0.0682
24108SOL    HW181102   0.522  10.167   0.555 -0.5472 -0.1179  0.1930
24108SOL    HW281103   0.397  10.094   0.599 -0.4784 -0.2019  0.2488
24109SOL     OW81104   0.852   8.926   5.404 -0.4735 -0.0189 -0.1359
24109SOL    HW181105   0.760   8.953   5.405 -0.3875  0.2717  0.1215
24109SOL    HW281106   0.869   8.904   5.313 -1.4945 -2.4990  0.2035
24110SOL     OW81107   6.583   1.797   1.434 -0.0815 -0.0490  0.4192
24110SOL    HW181108   6.677   1.789   1.446  0.0110  0.5131  0.1354
24110SOL    HW281109   6.545   1.735   1.496  0.4951 -1.4026 -0.5280
24111SOL     OW81110   6.249   7.038   2.974 -0.1698  0.4188 -0.7785
24111SOL    HW181111   6.317   6.996   3.027 -2.3841 -1.4834  0.7335
24111SOL    HW281112   6.205   6.966   2.930 -3.1361  1.1659  0.7028
24112SOL     OW81113  10.977   8.123   0.077 -0.5649  0.8107 -0.0162
24112SOL    HW181114  10.894   8.139   0.033 -0.2642  0.8332 -0.5962
24112SOL    HW281115  11.028   8.203   0.063  0.2014  0.1536 -1.1892
24113SOL     OW81116   5.222   8.066   9.425  0.3331  0.1425  0.3643
24113SOL    HW181117   5.172   7.989   9.451  0.8142  0.3178  1.9605
24113SOL    HW281118   5.283   8.035   9.359 -1.7366 -0.1046 -1.5628
24114SOL     OW81119   8.752   0.123   6.674  0.5708  0.3253  0.2949
24114SOL    HW181120   8.772   0.054   6.611  0.3876  0.2633  0.3046
24114SOL    HW281121   8.726   0.198   6.621  2.6120  1.0122  0.1895
24115SOL     OW81122  11.274   3.723   3.990 -0.1870 -0.2484  0.4043
24115SOL    HW181123  11.254   3.768   3.908  1.6380  1.6869  0.9537
24115SOL    HW281124  11.243   3.783   4.058  1.8837  0.0303  1.1530
24116SOL     OW81125   3.615   1.424   1.845  0.2173  0.7117 -0.5491
24116SOL    HW181126   3.602   1.472   1.927  0.2818 -0.6154  0.2687
24116SOL    HW281127   3.528   1.420   1.806 -0.6650 -1.8711  1.3491
24117SOL     OW81128   3.768   3.736   1.637  0.1632 -0.2061  0.4210
24117SOL    HW181129   3.758   3.653   1.591 -1.4060 -0.0893  0.5084
24117SOL    HW281130   3.783   3.712   1.728  0.6796 -0.4050  0.2833
24118SOL     OW81131   6.157   5.974   1.012  0.6898 -0.1316  0.5245
24118SOL    HW181132   6.120   6.030   0.943  0.5249 -1.7541 -0.7892
24118SOL    HW281133   6.082   5.925   1.045  0.6577  1.0788  2.3666
24119SOL     OW81134   3.677   3.880   9.903  0.4107 -0.9839 -0.3226
24119SOL    HW181135   3.754   3.917   9.859 -0.0395 -1.3819 -1.4786
24119SOL    HW281136   3.654   3.946   9.969  0.8538 -0.1652 -0.9560
24120SOL     OW81137  12.548  11.472  12.016 -0.3872 -0.2299  0.4451
24120SOL    HW181138  12.541  11.471  12.111  0.9042 -0.1741  0.5578
24120SOL    HW281139  12.596  11.552  11.996  0.7568 -1.0205 -0.1185
24121SOL     OW81140   5.294  12.306   0.560  0.2355 -0.3781  0.4736
24121SOL    HW181141   5.352  12.381   0.544  0.8812 -0.8989  0.3512
24121SOL    HW281142   5.349  12.241   0.601 -0.6890 -0.2321  2.0065
24122SOL     OW81143  11.712   8.079   9.379 -0.7193  0.4510  0.3799
24122SOL    HW181144  11.797   8.122   9.393 -0.3078 -0.4587  0.7822
24122SOL    HW281145  11.678   8.119   9.299  1.0582 -0.5970 -0.9902
24123SOL     OW81146   2.827   8.169   3.033  0.5970 -0.5622  0.0062
24123SOL    HW181147   2.882   8.245   3.051  0.1684 -0.3972  0.6632
24123SOL    HW281148   2.797   8.140   3.119  1.3090 -1.9057 -0.1713
24124SOL     OW81149  10.158   9.011   7.636  0.1678  0.1735 -0.1100
24124SOL    HW181150  10.112   9.095   7.628 -2.8097 -1.1468  1.5886
24124SOL    HW281151  10.216   9.024   7.711 -1.7092  0.1951  1.4009
24125SOL     OW81152   6.359   6.460   5.108 -0.8598  0.5142  0.1259
24125SOL    HW181153   6.332   6.551   5.096  1.9060  1.7807  2.3094
24125SOL    HW281154   6.354   6.446   5.203 -0.3762 -1.3395 -0.0814
24126SOL     OW81155   2.778   8.035  12.487  0.0032  0.0666 -0.2052
24126SOL    HW181156   2.716   8.055  12.557 -0.5927 -0.0889 -0.6857
24126SOL    HW281157   2.840   7.974  12.527  0.0127  0.4380  0.3551
24127SOL     OW81158   7.975   4.526  11.065  0.2408  0.0393  0.2777
24127SOL    HW181159   7.988   4.606  11.015 -3.7961  0.6025 -0.1693
24127SOL    HW281160   7.966   4.457  10.998 -1.7153  0.2183  0.2976
24128SOL     OW81161   1.585   1.713   1.770 -0.3588  0.2564 -0.2851
24128SOL    HW181162   1.565   1.656   1.696 -0.1636  0.7007 -0.6841
24128SOL    HW281163   1.659   1.671   1.814 -1.3445 -0.7490  0.4854
24129SOL     OW81164   1.660  11.689  11.943  0.2187  0.2836  0.1954
24129SOL    HW181165   1.687  11.711  11.853 -3.2686  1.3104 -0.7543
24129SOL    HW281166   1.739  11.703  11.995  2.9801 -2.1238 -2.8225
24130SOL     OW81167   5.906   0.100   7.199  0.3979 -0.0312 -0.1596
24130SOL    HW181168   5.869   0.049   7.270  0.5456  1.6857  1.2299
24130SOL    HW281169   6.001   0.093   7.211  0.4293 -0.0195 -0.3949
24131SOL     OW81170   4.674   0.273   8.293  0.0564 -0.2703  0.7586
24131SOL    HW181171   4.698   0.298   8.383 -1.1343  1.6599  0.5766
24131SOL    HW281172   4.693   0.351   8.241 -1.0755 -0.7102 -0.3444
24132SOL     OW81173   0.168   6.347  10.628  0.9016 -0.0449 -0.5173
24132SOL    HW181174   0.104   6.365  10.696 -1.2559 -1.7999 -1.9190
24132SOL    HW281175   0.248   6.324  10.675  0.3450  1.5305  1.3193
24133SOL     OW81176   7.817   4.649   1.094  0.2027 -0.4854  0.1832
24133SOL    HW181177   7.837   4.637   1.001 -1.0543 -0.3076 -0.1330
24133SOL    HW281178   7.798   4.743   1.102  0.5837 -0.4486  0.6826
24134SOL     OW81179   5.335   2.755   1.414 -0.2365 -0.0133  0.2223
24134SOL    HW181180   5.247   2.739   1.447 -0.2184 -1.2264 -0.2561
24134SOL    HW281181   5.323   2.776   1.321 -0.1511  1.6492  0.5622
24135SOL     OW81182  12.418   8.125   4.180  0.1602  1.1546 -0.4262
24135SOL    HW181183  12.507   8.088   4.181  0.2736  1.3751 -1.2274
24135SOL    HW281184  12.389   8.113   4.089 -0.2487  1.9680 -0.4106
24136SOL     OW81185   1.122  10.548  10.225  0.1836  0.0485  0.5325
24136SOL    HW181186   1.087  10.628  10.186 -1.3343 -0.5556  0.6109
24136SOL    HW281187   1.149  10.494  10.150 -0.1140  0.0553  0.4189
24137SOL     OW81188   8.060   0.245   0.421 -0.1513 -0.2472 -0.0202
24137SOL    HW181189   8.036   0.195   0.499 -1.6000 -0.8576 -0.8265
24137SOL    HW281190   8.153   0.226   0.409 -0.8162 -3.6326 -0.8587
24138SOL     OW81191   5.975   6.093  11.093  0.2395 -0.2220 -0.5652
24138SOL    HW181192   5.989   6.165  11.031 -0.8516 -0.8129 -1.5519
24138SOL    HW281193   6.050   6.097  11.152  0.4279  1.4390 -0.8638
24139SOL     OW81194   9.584   2.056   7.785 -0.3350  0.0013  0.2776
24139SOL    HW181195   9.522   2.010   7.728 -0.1470 -1.1335  0.9645
24139SOL    HW281196   9.632   2.115   7.726  0.0734 -1.3694 -0.8011
24140SOL     OW81197   8.611   1.980   8.720 -0.6647  0.3104  0.0136
24140SOL    HW181198   8.670   2.050   8.749  0.8081 -0.9777  0.2487
24140SOL    HW281199   8.558   2.020   8.652  0.1396  1.6613  0.1440
24141SOL     OW81200  12.213  10.252   0.138 -0.0995 -0.4269 -0.1421
24141SOL    HW181201  12.202  10.228   0.230  1.2696  0.5560  0.3217
24141SOL    HW281202  12.231  10.346   0.140 -0.1995 -0.3640 -1.4302
24142SOL     OW81203   1.809   2.327   1.546 -0.2406  0.0975 -0.4160
24142SOL    HW181204   1.783   2.402   1.599  1.6191  0.0550  0.6233
24142SOL    HW281205   1.891   2.354   1.504 -1.0615 -0.2955 -2.4045
24143SOL     OW81206   1.699  12.612   5.845 -0.1493 -0.5035 -0.1984
24143SOL    HW181207   1.671  12.523   5.866 -0.5365  0.0288  1.8005
24143SOL    HW281208   1.793  12.611   5.860 -0.1180 -0.6298 -0.3992
24144SOL     OW81209   3.475  10.745   9.981 -0.1467  0.0584 -0.3216
24144SOL    HW181210   3.468  10.830  10.025  1.1181  0.1432 -0.2458
24144SOL    HW281211   3.569  10.727   9.978 -0.2986 -0.6539 -1.6493
24145SOL     OW81212  12.554   5.786   2.161 -0.4693  0.4290 -0.2208
24145SOL    HW181213  12.471   5.740   2.160 -0.6615  0.7200  0.8031
24145SOL    HW281214  12.600   5.755   2.083 -0.3136 -2.0239  0.7417
24146SOL     OW81215   9.526   5.924  10.462  0.2671  0.0646 -0.0013
24146SOL    HW181216   9.552   6.016  10.453  1.3008 -0.1374  0.7040
24146SOL    HW281217   9.598   5.875  10.421  1.3810 -0.5375  2.4790
24147SOL     OW81218   9.811   8.601   2.741 -0.0841  0.1471  0.3719
24147SOL    HW181219   9.802   8.678   2.685 -1.1975  1.0952  1.7866
24147SOL    HW281220   9.729   8.554   2.730 -0.3552  0.3935  1.2503
24148SOL     OW81221   7.785   3.268   3.299  0.3431  0.0064  0.0495
24148SOL    HW181222   7.801   3.173   3.295  0.8278  0.0786 -3.3816
24148SOL    HW281223   7.753   3.284   3.387  0.9907 -3.2290  0.9988
24149SOL     OW81224  12.508   6.156   3.693  0.1419 -0.5841 -0.4180
24149SOL    HW181225  12.454   6.122   3.622 -0.4252 -1.4857  0.4253
24149SOL    HW281226  12.460   6.231   3.726 -0.5947 -1.3602  0.3049
24150SOL     OW81227   3.998  11.569   2.415 -0.6276  0.1785  0.0723
24150SOL    HW181228   3.923  11.597   2.363  0.2945  0.4319 -1.1787
24150SOL    HW281229   4.006  11.475   2.397 -0.0804  0.3409 -0.5700
24151SOL     OW81230   7.647   8.828   7.905  0.4769  0.0168 -0.0201
24151SOL    HW181231   7.702   8.905   7.921  0.5056  0.0472 -0.2730
24151SOL    HW281232   7.641   8.786   7.991 -0.7034  1.0635  0.4577
24152SOL     OW81233  10.040  11.335   4.807 -0.1117 -0.4442 -0.6091
24152SOL    HW181234   9.958  11.317   4.761 -0.5416  0.7761 -0.3528
24152SOL    HW281235  10.107  11.291   4.755 -0.6944  0.2137 -1.9647
24153SOL     OW81236   2.608   9.349   7.333  0.5624  0.3350 -0.1415
24153SOL    HW181237   2.558   9.274   7.299 -0.6325  0.9720  0.1383
24153SOL    HW281238   2.588   9.421   7.273  0.1022  0.9308  0.7026
24154SOL     OW81239  11.194   2.406   7.935  0.0147 -0.0469  0.2118
24154SOL    HW181240  11.279   2.403   7.978 -0.2379 -0.2720  0.7081
24154SOL    HW281241  11.132   2.419   8.006 -0.3570  0.2316 -0.1570
24155SOL     OW81242  11.281  10.592   3.244 -0.1615  0.2644 -0.3855
24155SOL    HW181243  11.249  10.576   3.333  1.5860  0.7931  0.3992
24155SOL    HW281244  11.249  10.679   3.222  2.0019  1.5203  1.0693
24156SOL     OW81245   4.112   8.051   7.808 -0.4452  0.0060  0.0689
24156SOL    HW181246   4.034   8.009   7.843 -0.1647 -0.0454  0.6376
24156SOL    HW281247   4.168   7.979   7.781 -0.5256  0.0416 -0.1971
24157SOL     OW81248   3.215   8.725   1.282  0.6927  0.0847  0.1529
24157SOL    HW181249   3.241   8.816   1.295 -1.2918  1.1637 -2.6148
24157SOL    HW281250   3.292   8.684   1.241  1.0366  0.9126 -0.0408
24158SOL     OW81251  11.405   6.028  11.684 -0.5537 -0.2510  0.2338
24158SOL    HW181252  11.466   6.043  11.612 -0.6938 -1.0406 -0.0598
24158SOL    HW281253  11.325   5.996  11.642 -0.9226  0.0776  0.6738
24159SOL     OW81254   5.728   9.151   7.516 -0.0636  0.2129  0.4339
24159SOL    HW181255   5.746   9.073   7.463 -0.6476 -0.9554  1.8743
24159SOL    HW281256   5.813   9.194   7.525  0.7533 -1.4767  1.4125
24160SOL     OW81257   8.038   6.072   2.991 -0.1581 -0.0261  0.2264
24160SOL    HW181258   8.121   6.028   3.008 -0.0565 -0.4500 -1.2116
24160SOL    HW281259   8.063   6.158   2.955 -0.1748 -1.3493 -3.3972
24161SOL     OW81260  11.881   8.139   3.307 -0.1357 -0.4166 -0.4168
24161SOL    HW181261  11.806   8.136   3.247  0.1613  0.4600 -0.8563
24161SOL    HW281262  11.936   8.065   3.280 -0.2140 -0.2855 -0.9631
24162SOL     OW81263  12.213   4.719  11.381  0.1767  0.4824  0.2311
24162SOL    HW181264  12.308   4.720  11.374  0.2397  0.6958  1.0047
24162SOL    HW281265  12.182   4.767  11.304  0.7392  1.3921  0.5585
24163SOL     OW81266   7.531  10.090   3.530 -0.2333  0.0843  0.1378
24163SOL    HW181267   7.483  10.070   3.610 -0.0116  0.8178  0.4598
24163SOL    HW281268   7.486  10.167   3.494 -0.0644  0.0183 -0.2109
24164SOL     OW81269   0.068  11.227   3.914 -0.3455  0.1522  0.2106
24164SOL    HW181270   0.028  11.262   3.994 -1.5613  1.6463 -0.9818
24164SOL    HW281271   0.043  11.135   3.913 -2.2011  0.5975  0.4985
24165SOL     OW81272   2.113   6.207   1.271  0.3091  0.1299  0.1628
24165SOL    HW181273   2.168   6.199   1.349  0.5997  0.7981  0.0347
24165SOL    HW281274   2.175   6.229   1.201  0.5302 -3.3167 -0.9176
24166SOL     OW81275  11.012  10.184   1.011  0.4083  0.0610 -0.2845
24166SOL    HW181276  11.103  10.202   1.035  0.2157 -0.6897  1.1169
24166SOL    HW281277  10.961  10.221   1.083 -0.4983  1.5351 -1.6135
24167SOL     OW81278   3.300   9.708   8.214 -0.1500  0.5523 -0.5433
24167SOL    HW181279   3.307   9.743   8.302 -0.5259  2.3035 -1.1804
24167SOL    HW281280   3.236   9.637   8.222  2.3207 -1.6862  1.2170
24168SOL     OW81281  12.501   0.003   9.461  0.3508 -0.1585 -0.2247
24168SOL    HW181282  12.549   0.022   9.381  1.6049  0.7695  0.6958
24168SOL    HW281283  12.564   0.021   9.531 -1.3608  1.2419  1.0654
24169SOL     OW81284   3.780  12.006  10.603  1.2189  0.6140  0.2021
24169SOL    HW181285   3.802  11.952  10.527 -0.3493 -0.1132  0.2382
24169SOL    HW281286   3.754  11.943  10.671 -2.0777  1.3541 -0.2097
24170SOL     OW81287   5.448  10.136   8.473 -0.4219  0.2990 -0.4696
24170SOL    HW181288   5.404  10.122   8.556 -0.5398  1.3417 -0.3495
24170SOL    HW281289   5.383  10.115   8.407 -0.3256 -0.5379 -0.3048
24171SOL     OW81290   2.569   8.619   3.544  0.1163  0.3841  0.7512
24171SOL    HW181291   2.514   8.665   3.608  1.4168  1.0205  1.4589
24171SOL    HW281292   2.540   8.653   3.460 -1.9541 -0.8123  0.9032
24172SOL     OW81293   0.793   9.005   1.023 -0.3136  0.2851 -0.0110
24172SOL    HW181294   0.859   9.048   1.077 -0.2867  1.1625 -0.7225
24172SOL    HW281295   0.844   8.947   0.965 -0.2416  0.2790  0.0582
24173SOL     OW81296  10.403   8.396  10.414 -0.1753  0.0074  0.6143
24173SOL    HW181297  10.392   8.313  10.459 -0.7835  1.0744  2.5664
24173SOL    HW281298  10.497   8.403  10.398  0.2731  0.1626  2.9955
24174SOL     OW81299   5.778   6.972   1.783 -0.1270 -0.1385  0.1799
24174SOL    HW181300   5.802   6.896   1.729 -1.4893 -1.3775  1.2474
24174SOL    HW281301   5.859   6.993   1.831  0.5332 -0.2774 -0.8352
24175SOL     OW81302   7.701   1.339   0.054  0.1108 -0.3690 -0.3999
24175SOL    HW181303   7.665   1.370   0.137  0.2806  0.7058 -0.7053
24175SOL    HW281304   7.626   1.306   0.006 -0.0063 -0.8905  0.1301
24176SOL     OW81305   5.332  12.480   9.611  0.2949 -0.9361  0.3244
24176SOL    HW181306   5.315  12.525   9.528  2.6553  0.3162  0.4277
24176SOL    HW281307   5.281  12.399   9.606 -0.7337 -0.2179 -1.7224
24177SOL     OW81308  10.261   8.340   2.989 -0.1511  0.4198  0.3387
24177SOL    HW181309  10.250   8.264   2.933  3.4576 -0.6745  0.8301
24177SOL    HW281310  10.236   8.414   2.933  0.8271 -0.8054 -1.8914
24178SOL     OW81311  11.817   8.785  12.342  0.0096 -0.0693 -0.3528
24178SOL    HW181312  11.777   8.757  12.424 -1.0527 -0.4286 -0.9777
24178SOL    HW281313  11.747   8.777  12.277  0.5619  1.1052 -1.1245
24179SOL     OW81314   1.894   6.238   6.484  0.3978 -0.0289 -0.4960
24179SOL    HW181315   1.860   6.270   6.400 -0.6590  1.1171  0.3450
24179SOL    HW281316   1.937   6.155   6.461 -0.1036  0.1138 -2.1265
24180SOL     OW81317   5.465   2.992   4.545 -0.1508  0.1534  0.1281
24180SOL    HW181318   5.553   3.020   4.518  0.5096 -1.9814 -0.1170
24180SOL    HW281319   5.410   3.068   4.529  1.7683  1.8570  1.0485
24181SOL     OW81320  12.115   7.395   0.743 -0.7151  0.3455  0.1347
24181SOL    HW181321  12.131   7.464   0.679 -2.1214  0.2117 -0.3870
24181SOL    HW281322  12.186   7.404   0.806  0.7249  0.4912 -1.4231
24182SOL     OW81323   5.277   8.884   7.881 -0.3901  0.1892 -0.3260
24182SOL    HW181324   5.303   8.846   7.964 -1.4820  0.4533  0.1502
24182SOL    HW281325   5.195   8.840   7.858 -0.3923  0.5188 -0.9776
24183SOL     OW81326  11.974   2.962  12.490 -0.3207  0.0034  0.2791
24183SOL    HW181327  11.959   2.870  12.514  1.2782 -0.7732 -1.3656
24183SOL    HW281328  12.046   2.958  12.427  0.2632  2.4812  0.6959
24184SOL     OW81329   9.168   5.104   3.683  0.0997  0.0338 -0.0877
24184SOL    HW181330   9.119   5.025   3.704  0.5035 -0.5783 -1.3885
24184SOL    HW281331   9.143   5.166   3.752 -0.4945 -1.0936  0.7461
24185SOL     OW81332  12.190   9.534   7.333 -1.1562  0.2918 -0.0517
24185SOL    HW181333  12.196   9.569   7.244 -0.9111  1.1863  0.3114
24185SOL    HW281334  12.143   9.450   7.322 -1.6217  0.6521 -0.9498
24186SOL     OW81335   2.900   4.448   1.571 -0.1314  0.2553 -0.3002
24186SOL    HW181336   2.882   4.355   1.579  1.1570  0.0559  0.4092
24186SOL    HW281337   2.944   4.472   1.652  0.3336  1.3024 -0.8377
24187SOL     OW81338  12.019   9.396   1.256 -0.0109 -0.6468  0.2429
24187SOL    HW181339  12.069   9.364   1.330 -0.1041  1.5639  1.3642
24187SOL    HW281340  12.007   9.490   1.274 -0.3248 -0.0932 -2.3964
24188SOL     OW81341   8.010   2.303  10.648 -0.0361  0.0713 -0.3465
24188SOL    HW181342   7.966   2.357  10.583  1.5127  0.1560 -1.3660
24188SOL    HW281343   8.067   2.364  10.695 -0.0377 -0.2633  0.0961
24189SOL     OW81344   8.919   7.457   0.744  0.1276 -0.2311  0.2775
24189SOL    HW181345   8.983   7.447   0.814  1.1863 -1.4158 -0.8118
24189SOL    HW281346   8.866   7.533   0.770  1.1387 -0.0223  1.8294
24190SOL     OW81347   8.977  11.627   1.696  0.1451 -0.1871  0.0338
24190SOL    HW181348   8.912  11.662   1.635  0.5749 -0.8136 -0.8013
24190SOL    HW281349   8.931  11.555   1.741  0.5613 -1.3510 -1.3357
24191SOL     OW81350   3.021   2.875   1.555 -0.0372  0.3328  0.4994
24191SOL    HW181351   2.966   2.907   1.483  1.4545 -0.8824 -1.2906
24191SOL    HW281352   2.966   2.811   1.600 -0.3265 -0.4496 -0.9083
24192SOL     OW81353   5.325   5.052   3.783 -0.1254 -0.2058 -0.8354
24192SOL    HW181354   5.340   5.104   3.862  0.0897  1.6721 -2.0521
24192SOL    HW281355   5.265   4.983   3.811  1.3577 -0.7423  1.3883
24193SOL     OW81356   3.057   7.733   3.379 -0.3936 -0.3815 -0.0164
24193SOL    HW181357   3.060   7.822   3.344 -0.9903  0.1487  1.2275
24193SOL    HW281358   2.964   7.711   3.383 -0.2892 -0.7747  0.3545
24194SOL     OW81359   8.638   4.024   9.519  0.0571  0.5696 -0.5451
24194SOL    HW181360   8.545   4.040   9.533  0.0729  0.6146 -0.4890
24194SOL    HW281361   8.661   3.955   9.582  0.0399  0.4898 -0.6263
24195SOL     OW81362   7.243   2.004   7.635 -0.4413  0.7600  0.4585
24195SOL    HW181363   7.290   2.087   7.626  2.5231 -0.9450 -1.7633
24195SOL    HW281364   7.290   1.957   7.704 -2.1106  0.8590  1.7208
24196SOL     OW81365   9.997  11.812   9.697 -0.4296 -0.1563  0.3088
24196SOL    HW181366  10.019  11.803   9.790  1.4507  1.9362  0.1391
24196SOL    HW281367   9.917  11.865   9.697 -0.5176 -0.2802  0.7292
24197SOL     OW81368   2.479   8.482   8.003  0.0717 -0.3785  0.0300
24197SOL    HW181369   2.462   8.543   7.931 -0.9488 -1.4470 -0.6860
24197SOL    HW281370   2.393   8.472   8.046  0.7486  0.5771  1.7021
24198SOL     OW81371   8.651   4.829   4.883  0.3708 -0.2732  0.3875
24198SOL    HW181372   8.587   4.838   4.812  0.7389 -1.7994 -0.1809
24198SOL    HW281373   8.728   4.877   4.853 -0.0352  0.4576  0.4895
24199SOL     OW81374   5.549   2.610  11.758  0.4469  0.6976  0.1250
24199SOL    HW181375   5.640   2.615  11.729  0.4948 -0.3389  0.0484
24199SOL    HW281376   5.549   2.543  11.826 -0.3372  0.3371 -0.2090
24200SOL     OW81377  12.017   2.085   4.965 -0.2217  0.0163  0.4734
24200SOL    HW181378  12.084   2.018   4.981 -0.0641 -0.2803 -1.1836
24200SOL    HW281379  11.963   2.047   4.895 -0.8222  1.1538  0.3029
24201SOL     OW81380   0.970  11.900  10.928  0.4341  0.2027 -0.5166
24201SOL    HW181381   0.914  11.871  10.857  1.4999 -0.2758 -1.1885
24201SOL    HW281382   1.052  11.852  10.916  0.6889  0.1989  0.9603
24202SOL     OW81383   0.388   0.002   8.723  0.2083 -0.0624 -0.2930
24202SOL    HW181384   0.434   0.086   8.730  0.5969 -0.3685  1.0368
24202SOL    HW281385   0.379  -0.012   8.629 -1.5057  2.3570 -0.6009
24203SOL     OW81386   9.660   0.555   6.053  0.5871  0.1196 -0.3774
24203SOL    HW181387   9.610   0.512   5.983  0.5691 -0.6834  0.1118
24203SOL    HW281388   9.749   0.523   6.042  1.0102  1.5256 -1.2254
24204SOL     OW81389   2.172  11.232   0.927 -0.5736 -0.3619 -0.1769
24204SOL    HW181390   2.213  11.195   0.849  0.7223  2.4475 -0.9825
24204SOL    HW281391   2.085  11.259   0.898 -0.2327  0.3279 -0.6033
24205SOL     OW81392  11.389   4.617   2.817  0.5942 -0.5018  0.1709
24205SOL    HW181393  11.377   4.674   2.892  1.0234 -1.0319  0.6483
24205SOL    HW281394  11.306   4.622   2.769 -0.1526 -1.1584  1.3672
24206SOL     OW81395   3.697   0.337   5.438  0.0536  0.6608 -0.3192
24206SOL    HW181396   3.793   0.341   5.430  0.3596 -1.3316  1.4609
24206SOL    HW281397   3.671   0.428   5.454  2.0659  0.8805  2.3811
24207SOL     OW81398   5.366  12.241   1.585 -0.1918  0.4962  0.2301
24207SOL    HW181399   5.298  12.214   1.523  0.3299 -1.3365  0.3807
24207SOL    HW281400   5.448  12.229   1.537  0.2586 -1.5495  1.4107
24208SOL     OW81401   7.549   7.992   3.535 -0.0081  0.0400 -0.0132
24208SOL    HW181402   7.612   7.944   3.590  0.5112 -0.4078 -0.9692
24208SOL    HW281403   7.530   8.071   3.584  1.1437  0.0764  0.4063
24209SOL     OW81404  12.558   9.734   7.129 -0.3490  0.1938 -0.4060
24209SOL    HW181405  12.629   9.677   7.101 -0.5635 -0.1388 -0.2737
24209SOL    HW281406  12.483   9.676   7.142  0.0667  0.0876  2.1354
24210SOL     OW81407   9.017  10.651  10.780 -0.3168 -0.8059  0.1762
24210SOL    HW181408   8.923  10.649  10.763 -0.4107  0.9610  0.2954
24210SOL    HW281409   9.029  10.722  10.843  1.0347 -1.3935  0.6167
24211SOL     OW81410  10.768   9.142  11.245  0.1439 -0.5604 -0.2160
24211SOL    HW181411  10.685   9.171  11.208  0.0412 -0.0779  0.3730
24211SOL    HW281412  10.743   9.084  11.318  0.3408 -2.7058 -1.7554
24212SOL     OW81413   4.073   6.518  10.500  0.7035 -0.3347  0.5191
24212SOL    HW181414   4.019   6.596  10.513  1.1774  0.0150  0.4155
24212SOL    HW281415   4.096   6.490  10.588  0.0063 -0.7419  0.5849
24213SOL     OW81416  12.401   7.940   3.259  0.3174  0.3017  0.5462
24213SOL    HW181417  12.481   7.961   3.210 -1.0302 -0.1427 -1.9989
24213SOL    HW281418  12.397   7.844   3.257 -0.9020  0.3405 -0.5373
24214SOL     OW81419  11.476  12.039   3.677 -0.1721  0.2411 -0.0256
24214SOL    HW181420  11.440  12.066   3.761 -0.6761  1.0390 -0.4827
24214SOL    HW281421  11.502  11.947   3.690  1.0807  0.7694  1.4005
24215SOL     OW81422   1.254   7.735   4.563 -1.1312  0.3808  0.1164
24215SOL    HW181423   1.322   7.802   4.575 -0.6173 -0.1561  0.2640
24215SOL    HW281424   1.284   7.685   4.487 -0.3188 -1.0955  1.3541
24216SOL     OW81425   5.046   2.140  12.044 -0.2910  0.2764  0.1088
24216SOL    HW181426   5.006   2.107  11.963 -1.2669  0.1428  0.6343
24216SOL    HW281427   5.068   2.231  12.025 -2.2727  0.8512  0.2726
24217SOL     OW81428   4.656   3.818   7.444 -0.7468  0.0716  0.2496
24217SOL    HW181429   4.677   3.744   7.387 -1.1493 -1.1154  1.5969
24217SOL    HW281430   4.564   3.807   7.465 -0.8395  1.0295  0.4080
24218SOL     OW81431   3.759   2.679   9.688  0.2662 -0.2101 -0.3932
24218SOL    HW181432   3.837   2.635   9.653 -1.0086 -2.7727 -0.2250
24218SOL    HW281433   3.717   2.716   9.610  2.2850  2.4765 -0.3373
24219SOL     OW81434   5.683   0.147   9.307  0.0033 -0.5543 -0.0955
24219SOL    HW181435   5.731   0.193   9.376 -2.3465  0.9804  0.6090
24219SOL    HW281436   5.688   0.054   9.332 -0.5078 -0.0663  1.9949
24220SOL     OW81437   1.173  10.366   3.847  0.4839 -0.2406 -0.0068
24220SOL    HW181438   1.248  10.331   3.895 -0.2742 -1.1019  0.6070
24220SOL    HW281439   1.206  10.384   3.759  1.6584  0.4150  0.5516
24221SOL     OW81440   1.886   6.969   6.840 -0.2513 -0.5292 -0.1532
24221SOL    HW181441   1.808   7.023   6.829 -0.7481 -1.0304  0.7846
24221SOL    HW281442   1.933   7.008   6.914  1.2372  0.7131 -1.6613
24222SOL     OW81443  12.306   2.081   7.693  0.1188  0.5598  0.2010
24222SOL    HW181444  12.241   2.112   7.630 -0.7303  1.0689  1.2952
24222SOL    HW281445  12.329   1.994   7.662 -2.0234 -0.1604  0.4581
24223SOL     OW81446   0.375  11.659   3.083 -0.0419  0.2981  0.3121
24223SOL    HW181447   0.367  11.639   2.989 -0.0101 -0.5435  0.4853
24223SOL    HW281448   0.344  11.750   3.090 -3.8439 -0.8035  0.0520
24224SOL     OW81449   2.011  11.767   9.806 -0.2232 -0.4058  0.4855
24224SOL    HW181450   2.011  11.719   9.723  0.3152  0.1341  0.1656
24224SOL    HW281451   2.050  11.706   9.869  0.2094 -0.4920  0.1400
24225SOL     OW81452   1.766   8.617   0.387 -0.1492 -0.2145  0.2219
24225SOL    HW181453   1.795   8.548   0.328 -1.9440  0.6013 -1.7860
24225SOL    HW281454   1.808   8.697   0.353 -0.4302  0.1284  0.6646
24226SOL     OW81455   3.766   8.297   5.770 -0.3313  0.6401  0.0943
24226SOL    HW181456   3.799   8.281   5.682  1.2364 -0.2475  0.7938
24226SOL    HW281457   3.799   8.384   5.792 -1.6999  1.3602 -0.5893
24227SOL     OW81458   3.222   0.389   7.415 -0.2719 -0.0423  0.2646
24227SOL    HW181459   3.246   0.440   7.337 -0.4579 -0.7709 -0.2737
24227SOL    HW281460   3.135   0.421   7.439  0.0057  0.5542  0.4892
24228SOL     OW81461   3.306   1.896   6.576 -0.2715  0.2275  0.4628
24228SOL    HW181462   3.391   1.854   6.591 -0.2093 -0.0546 -0.5920
24228SOL    HW281463   3.301   1.964   6.643  0.7872  0.2487  0.5418
24229SOL     OW81464   6.447   2.390   6.292 -0.0524 -0.4988 -0.1841
24229SOL    HW181465   6.400   2.316   6.331  0.4462 -0.1063  1.2104
24229SOL    HW281466   6.419   2.390   6.200 -1.4771 -1.2968  0.2153
24230SOL     OW81467   5.533   4.973   8.638  0.3843  0.0966  0.1312
24230SOL    HW181468   5.529   5.006   8.548  0.1943 -1.0047 -0.2783
24230SOL    HW281469   5.565   5.047   8.689 -0.8344  1.1809 -0.6150
24231SOL     OW81470   2.449   0.617  11.283 -0.3293 -0.1456  0.2889
24231SOL    HW181471   2.382   0.572  11.232  0.1674  1.1877 -1.6757
24231SOL    HW281472   2.532   0.584  11.248  0.0528 -0.1466  1.1610
24232SOL     OW81473   2.891   8.842   5.921 -0.4244  0.6641  0.0518
24232SOL    HW181474   2.857   8.756   5.896  0.1687  0.2170  0.7437
24232SOL    HW281475   2.885   8.843   6.017 -0.3152  1.3403  0.0533
24233SOL     OW81476   7.751   4.124  11.529 -0.0449 -0.3832 -0.5026
24233SOL    HW181477   7.785   4.079  11.606 -1.3696  0.9413  0.9328
24233SOL    HW281478   7.819   4.185  11.504 -0.2346  0.3269  0.6538
24234SOL     OW81479  11.498   6.705   7.950 -0.0131  0.6022  0.1062
24234SOL    HW181480  11.478   6.782   7.897 -0.4793  0.1069 -0.4628
24234SOL    HW281481  11.532   6.641   7.887 -0.5652  0.0066  0.4034
24235SOL     OW81482   5.440   8.209   2.769  0.3031 -0.1939 -0.3614
24235SOL    HW181483   5.483   8.128   2.797  0.6167 -0.0542 -0.4279
24235SOL    HW281484   5.431   8.260   2.849  0.8185  0.0290 -0.4368
24236SOL     OW81485  10.216   1.454  11.764  0.0353 -0.1691  0.4385
24236SOL    HW181486  10.257   1.530  11.805  1.3181 -0.1810 -0.7602
24236SOL    HW281487  10.148   1.492  11.708  0.9987  0.1530 -0.5350
24237SOL     OW81488   1.875   6.233  10.731  0.8672 -0.1029  0.8549
24237SOL    HW181489   1.930   6.283  10.671  0.0229  0.6879  0.7174
24237SOL    HW281490   1.853   6.154  10.683 -0.5436  0.9239 -0.2817
24238SOL     OW81491   0.020   2.911   3.146  0.8371 -0.8515  0.7230
24238SOL    HW181492  -0.057   2.871   3.106  0.1809  0.9577  0.0485
24238SOL    HW281493   0.032   2.993   3.098  0.0236  1.4849  4.1267
24239SOL     OW81494   2.078  10.673  12.025 -0.6409  0.1315  0.5563
24239SOL    HW181495   2.071  10.761  11.989 -2.3016 -0.9476 -2.0097
24239SOL    HW281496   2.153  10.634  11.980  0.2264  0.2370  1.8388
24240SOL     OW81497   8.202   0.914   1.951  0.5431  0.1754 -0.3426
24240SOL    HW181498   8.138   0.962   1.899 -1.3601  0.1957  1.8712
24240SOL    HW281499   8.153   0.841   1.989  2.1009 -0.4504  0.5910
24241SOL     OW81500   8.579   7.004  12.193  0.2323 -0.6000 -0.6426
24241SOL    HW181501   8.491   7.021  12.226  0.9704  0.4310  0.9212
24241SOL    HW281502   8.577   6.913  12.164 -0.9529 -1.0280  0.6994
24242SOL     OW81503  10.735  12.025   1.415 -0.1931  0.2879  0.4352
24242SOL    HW181504  10.674  12.094   1.442 -0.7831 -0.2162  0.3964
24242SOL    HW281505  10.777  12.059   1.336  1.9747  2.0571  2.1735
24243SOL     OW81506   8.804   7.836   8.336 -0.0628  0.2258  0.4179
24243SOL    HW181507   8.807   7.891   8.415  1.1672 -0.3202  0.7867
24243SOL    HW281508   8.896   7.811   8.321 -0.3162  0.0848 -1.0285
24244SOL     OW81509  11.872   0.372   5.679  0.6222  0.4296 -0.2177
24244SOL    HW181510  11.960   0.371   5.641  0.4704  0.8762 -0.5905
24244SOL    HW281511  11.818   0.412   5.611  0.2114  0.5592  0.1877
24245SOL     OW81512   0.014  11.284  11.553  0.3883 -0.0313  0.5611
24245SOL    HW181513   0.109  11.287  11.565  0.4455 -1.4373  0.7098
24245SOL    HW281514   0.001  11.213  11.490 -0.4922  1.1051 -0.5657
24246SOL     OW81515   2.751   3.085   5.004  0.3052  0.3720  0.0259
24246SOL    HW181516   2.663   3.082   4.966  0.1779 -1.6268  0.3480
24246SOL    HW281517   2.808   3.109   4.932 -0.2022 -1.1191 -0.9126
24247SOL     OW81518  10.018   0.293   9.412  0.3871  0.2984  0.0087
24247SOL    HW181519   9.969   0.367   9.376 -0.6568 -0.4498 -0.1338
24247SOL    HW281520  10.107   0.305   9.378  0.2502  1.5000  0.0166
24248SOL     OW81521   3.497   3.423   1.440  0.3321 -0.4425  0.4313
24248SOL    HW181522   3.560   3.428   1.512  2.4614  1.8373 -1.4417
24248SOL    HW281523   3.411   3.429   1.484  1.4547 -0.7885  2.8569
24249SOL     OW81524   5.509   4.912  11.332 -0.7540 -0.3354  0.0015
24249SOL    HW181525   5.526   4.993  11.285 -1.6981 -0.3585 -0.4025
24249SOL    HW281526   5.510   4.844  11.265 -0.4310 -0.5958  0.2673
24250SOL     OW81527   9.940   6.175   7.855  0.2624  0.4484 -0.3635
24250SOL    HW181528   9.989   6.143   7.931  0.3033  1.6906  0.1648
24250SOL    HW281529   9.960   6.269   7.853 -0.1480  0.5198 -1.6128
24251SOL     OW81530   6.796   4.887   4.702 -0.0076  0.0591 -0.4376
24251SOL    HW181531   6.872   4.922   4.655  0.1170 -0.1349 -0.3829
24251SOL    HW281532   6.754   4.828   4.638  1.8446 -2.5916  0.5934
24252SOL     OW81533   3.582   5.160   6.000 -0.0966 -0.0114  1.0456
24252SOL    HW181534   3.497   5.158   5.957  0.1225 -0.6806  0.6396
24252SOL    HW281535   3.645   5.171   5.929  0.4923 -3.6653  0.8084
24253SOL     OW81536   0.043   8.885  12.247 -0.2212 -0.4266  0.2037
24253SOL    HW181537  -0.003   8.964  12.274  0.2510  0.2896 -0.9742
24253SOL    HW281538   0.049   8.892  12.151 -0.5724 -2.1204  0.0260
24254SOL     OW81539  11.629  11.434   0.978  0.1871 -0.2361  0.1395
24254SOL    HW181540  11.700  11.495   0.994  1.7027 -2.3352  1.9809
24254SOL    HW281541  11.611  11.394   1.063 -3.3871  0.3093 -0.1954
24255SOL     OW81542  12.527   8.124   6.655  0.4506  0.1036  0.2232
24255SOL    HW181543  12.551   8.064   6.725  1.2333  1.3090  1.0388
24255SOL    HW281544  12.445   8.089   6.620 -0.1871 -0.3142  2.0143
24256SOL     OW81545   5.551   7.391   9.368  0.2018 -0.4662 -0.6193
24256SOL    HW181546   5.539   7.479   9.332 -0.2047  0.1953  1.0081
24256SOL    HW281547   5.645   7.374   9.360  1.0373  1.7633  2.3832
24257SOL     OW81548   7.636   5.618  12.162  0.1833  0.0426 -0.8212
24257SOL    HW181549   7.682   5.548  12.115  0.3243  0.4427 -1.2880
24257SOL    HW281550   7.691   5.695  12.148  1.1347 -0.1675  1.4137
24258SOL     OW81551   4.585   9.290  12.263 -0.5990  0.1016  0.5245
24258SOL    HW181552   4.658   9.307  12.204 -0.0468  0.7474  1.3651
24258SOL    HW281553   4.624   9.243  12.337 -1.3584 -1.0918  0.1909
24259SOL     OW81554   5.581   4.024   2.311 -0.3311 -0.1125 -0.2654
24259SOL    HW181555   5.612   4.114   2.322  1.1921 -0.7849  1.4097
24259SOL    HW281556   5.487   4.029   2.329 -0.2525  1.1067 -0.0804
24260SOL     OW81557   1.330  10.219  11.992  0.3926 -0.4967  0.3975
24260SOL    HW181558   1.419  10.202  12.023  0.1853 -2.5630 -0.0056
24260SOL    HW281559   1.320  10.163  11.915 -0.9245  0.4878 -0.1996
24261SOL     OW81560   3.753   4.041   5.269 -0.6361 -0.2302  0.2949
24261SOL    HW181561   3.833   4.093   5.281 -0.8676 -0.1443  1.6911
24261SOL    HW281562   3.768   3.993   5.188  1.2277 -0.8656  0.9396
24262SOL     OW81563   0.300  10.814  10.110 -0.4845  0.1244  0.2621
24262SOL    HW181564   0.356  10.829  10.034 -0.9169  1.8083  0.2316
24262SOL    HW281565   0.297  10.719  10.120  0.3712 -0.0826 -1.2267
24263SOL     OW81566  11.023   7.702   5.325 -0.5164 -0.6836 -0.1166
24263SOL    HW181567  11.051   7.784   5.283 -0.7069 -0.2655  0.5481
24263SOL    HW281568  11.100   7.646   5.322 -0.7802 -1.0018 -1.8053
24264SOL     OW81569   0.997   7.457   6.403  0.5858  0.2438 -0.4238
24264SOL    HW181570   1.036   7.370   6.407 -1.3044 -0.6331  0.4994
24264SOL    HW281571   1.002   7.490   6.493  1.1076  1.0056 -0.7287
24265SOL     OW81572   6.370  12.263  12.223 -0.2521  1.0988 -1.0204
24265SOL    HW181573   6.464  12.256  12.203  0.3165  3.6908  0.3666
24265SOL    HW281574   6.327  12.220  12.150  1.9974  0.7848 -2.2444
24266SOL     OW81575  12.459   5.745   7.196  0.0458 -0.0300 -0.3631
24266SOL    HW181576  12.464   5.673   7.259  0.5897 -1.8135 -2.3197
24266SOL    HW281577  12.550   5.773   7.184  0.0956 -0.4870 -1.1582
24267SOL     OW81578   4.134   6.943  10.270  0.1239 -0.1036 -0.3494
24267SOL    HW181579   4.039   6.942  10.257  0.0165  1.1235  0.1594
24267SOL    HW281580   4.168   6.886  10.201 -0.9635 -0.3371 -0.7190
24268SOL     OW81581   5.405  11.873   8.347 -0.3102 -0.3866  0.3006
24268SOL    HW181582   5.318  11.907   8.368 -0.8878 -1.3284 -0.4899
24268SOL    HW281583   5.459  11.899   8.421 -1.2967  0.0882  0.8776
24269SOL     OW81584  10.663   5.908   9.513 -0.5682 -0.3877  0.0674
24269SOL    HW181585  10.628   5.823   9.489 -1.7697  0.0299  0.2609
24269SOL    HW281586  10.595   5.947   9.569 -0.5017  1.1050 -0.8365
24270SOL     OW81587   8.889  10.730   2.888  0.4587 -0.6129  0.2002
24270SOL    HW181588   8.826  10.797   2.916  0.0608 -0.9927  0.2219
24270SOL    HW281589   8.883  10.731   2.792  2.3778  1.2297  0.0232
24271SOL     OW81590  11.386   8.602   3.024  0.7061  0.0486 -0.0528
24271SOL    HW181591  11.429   8.628   2.942 -0.5045  0.1527 -0.6886
24271SOL    HW281592  11.352   8.515   3.006  1.2320 -0.3118  0.6726
24272SOL     OW81593   2.748   5.387   3.497 -0.2060  0.1059 -0.0536
24272SOL    HW181594   2.682   5.451   3.525  0.0442 -0.2176  1.3582
24272SOL    HW281595   2.725   5.367   3.406 -2.2766 -0.2660  0.4938
24273SOL     OW81596   2.715   3.975  12.507 -0.4277 -0.9751  0.0050
24273SOL    HW181597   2.727   4.012  12.420 -2.1002 -0.4618 -0.0446
24273SOL    HW281598   2.794   4.000  12.555  0.1859 -0.6384 -1.1544
24274SOL     OW81599   8.641  12.120   2.617  0.2653 -0.4602  0.3459
24274SOL    HW181600   8.584  12.184   2.576  1.0916  0.0541 -0.0362
24274SOL    HW281601   8.717  12.171   2.645  0.9797 -1.2790 -0.0555
24275SOL     OW81602   9.899   1.284   5.129 -0.2019  0.3040 -0.0995
24275SOL    HW181603   9.830   1.229   5.092  0.7887 -1.2445  0.2468
24275SOL    HW281604   9.973   1.273   5.070  0.4543  0.1502  0.7363
24276SOL     OW81605  12.586   3.605  10.632 -0.3145  0.1189  0.3602
24276SOL    HW181606  12.636   3.633  10.709  1.4895  1.5336 -1.2083
24276SOL    HW281607  12.565   3.687  10.587 -1.3348 -0.6727 -0.6524
24277SOL     OW81608   4.405  10.793   1.328 -0.5833  0.3761  1.0994
24277SOL    HW181609   4.401  10.724   1.394  1.0652 -1.1885 -0.3399
24277SOL    HW281610   4.456  10.755   1.257 -1.9002  2.1768 -0.9030
24278SOL     OW81611   6.924  11.239   2.783  0.5048 -0.2747 -0.3856
24278SOL    HW181612   6.992  11.300   2.814  2.1722 -2.0638 -0.2967
24278SOL    HW281613   6.881  11.208   2.863  1.0257 -0.6999 -0.2632
24279SOL     OW81614  10.080   9.196  10.071 -0.2098  0.2949 -0.0795
24279SOL    HW181615  10.046   9.123  10.124 -1.3129  1.0470  0.2942
24279SOL    HW281616  10.099   9.264  10.134  0.9414  0.2970 -0.4177
24280SOL     OW81617   6.626   5.492   1.827 -0.2424 -0.6217 -0.7059
24280SOL    HW181618   6.699   5.515   1.770 -0.1541 -2.7300 -1.5582
24280SOL    HW281619   6.644   5.401   1.852 -0.3044  0.1564  2.6882
24281SOL     OW81620   1.996   9.370   3.268 -0.2880 -0.4377  0.0601
24281SOL    HW181621   1.910   9.360   3.308 -0.3125  1.3873  0.5383
24281SOL    HW281622   2.057   9.374   3.342 -0.1399  1.2149 -0.1263
24282SOL     OW81623   1.543  10.399   0.837 -0.3561 -0.1334 -0.6722
24282SOL    HW181624   1.639  10.407   0.840 -0.1897 -1.0383 -2.2295
24282SOL    HW281625   1.511  10.472   0.888  1.1819 -0.0530  0.2471
24283SOL     OW81626  12.451   6.484  11.289  0.2795  0.1519  0.2860
24283SOL    HW181627  12.530   6.432  11.308  0.0279 -0.5436 -0.5373
24283SOL    HW281628  12.382   6.441  11.339  0.2537  0.2580  0.3415
24284SOL     OW81629   4.478   3.142   9.636  0.1571  0.2990 -0.6205
24284SOL    HW181630   4.396   3.187   9.615 -0.2358 -0.4768 -0.7613
24284SOL    HW281631   4.451   3.055   9.666  0.8288  0.5935  0.9498
24285SOL     OW81632   3.994   5.306   7.477  0.4026 -0.4197  0.0409
24285SOL    HW181633   4.032   5.226   7.514 -1.4189 -0.9691  0.8787
24285SOL    HW281634   4.056   5.375   7.499  0.4397 -1.0882  2.2807
24286SOL     OW81635  10.976   9.411   4.416 -0.8124  0.6276  0.2938
24286SOL    HW181636  11.015   9.353   4.482  0.5433  1.4134  0.2195
24286SOL    HW281637  10.944   9.351   4.348  0.1501 -0.0758  0.4349
24287SOL     OW81638   4.799   2.123   8.200 -0.1589  0.0186  0.0968
24287SOL    HW181639   4.780   2.094   8.289 -0.2808  1.5421  0.5945
24287SOL    HW281640   4.827   2.214   8.209 -0.4900  0.3128 -1.4588
24288SOL     OW81641   2.309   0.014  10.971 -0.1917 -0.4039  0.0457
24288SOL    HW181642   2.384  -0.002  11.028 -0.1589 -2.5985 -0.5380
24288SOL    HW281643   2.315   0.107  10.950  0.9988 -0.0073  1.8834
24289SOL     OW81644   2.579   5.064   9.314  0.3390  0.5263 -0.3130
24289SOL    HW181645   2.552   5.051   9.405  0.9025  1.7283  0.0438
24289SOL    HW281646   2.663   5.018   9.308  1.7826  2.8763  0.6384
24290SOL     OW81647   7.525   0.279   9.568 -0.1196 -0.2089 -0.1024
24290SOL    HW181648   7.568   0.218   9.629 -1.8707 -0.9249  0.4936
24290SOL    HW281649   7.538   0.365   9.608  1.3896 -0.2948 -0.3461
24291SOL     OW81650   6.841  12.331   1.952  0.0717 -0.3039 -0.7919
24291SOL    HW181651   6.882  12.245   1.963  0.4055 -0.1185 -0.5884
24291SOL    HW281652   6.914  12.391   1.941 -0.1884 -0.2024 -2.0639
24292SOL     OW81653   9.580   1.506   3.251  0.6184 -0.2214  0.2206
24292SOL    HW181654   9.663   1.471   3.281  1.1888  0.6610 -0.2926
24292SOL    HW281655   9.519   1.433   3.259  1.6357 -1.1524 -0.2322
24293SOL     OW81656   0.656   4.836   3.352 -0.6842 -0.4577  0.2583
24293SOL    HW181657   0.666   4.778   3.428 -1.5112  0.7897  1.3708
24293SOL    HW281658   0.567   4.819   3.321 -0.6495 -0.3640  0.1074
24294SOL     OW81659   5.615   6.017   5.474  0.9334  0.7398 -0.4149
24294SOL    HW181660   5.668   5.938   5.474 -1.0114 -0.6320  0.7364
24294SOL    HW281661   5.543   5.998   5.415  0.1295  1.4195  0.3249
24295SOL     OW81662   3.902  11.501   0.866 -0.3124 -0.1524  0.4999
24295SOL    HW181663   3.881  11.509   0.959  2.0773  3.6647  0.9392
24295SOL    HW281664   3.990  11.463   0.865  0.1003  0.7978 -0.1172
24296SOL     OW81665   4.040   8.253   8.405 -0.2629  0.2387  0.8189
24296SOL    HW181666   4.072   8.228   8.491  0.8320  1.0124  0.6553
24296SOL    HW281667   4.119   8.269   8.353 -0.9065  0.2664 -0.1865
24297SOL     OW81668   2.538   7.313   5.231 -0.2011  0.4675 -0.2706
24297SOL    HW181669   2.536   7.242   5.296 -2.3956  0.9531  0.2549
24297SOL    HW281670   2.623   7.303   5.188  1.4319  0.1933  2.7540
24298SOL     OW81671   8.746   6.169   7.241 -0.1897  0.2653  0.1882
24298SOL    HW181672   8.726   6.195   7.331  1.1631 -0.8036  0.8460
24298SOL    HW281673   8.842   6.167   7.238 -0.2038  0.5430 -1.3709
24299SOL     OW81674   0.662   8.302  11.668 -0.1403 -0.2239  0.2952
24299SOL    HW181675   0.628   8.215  11.690 -0.3151 -0.4784 -0.9022
24299SOL    HW281676   0.625   8.360  11.734 -0.2578 -1.0115  0.9429
24300SOL     OW81677   5.381   7.960   9.660  0.3258 -0.0227 -0.0112
24300SOL    HW181678   5.344   7.909   9.588 -0.0813 -0.2061  0.3215
24300SOL    HW281679   5.404   8.044   9.621  1.1000 -0.4873 -0.5920
24301SOL     OW81680   0.941   3.268   0.331  0.0514  0.2802 -0.1045
24301SOL    HW181681   0.884   3.292   0.404 -2.7992 -0.9963 -1.7007
24301SOL    HW281682   0.932   3.173   0.323  1.3452  0.2184 -1.3073
24302SOL     OW81683   4.721   2.138   5.474  0.3013 -0.4048  0.2802
24302SOL    HW181684   4.663   2.174   5.541  1.0170 -0.9367  1.2114
24302SOL    HW281685   4.803   2.186   5.486  1.2431 -2.2053  1.4760
24303SOL     OW81686  12.090  10.711   4.153  0.0333 -0.0678  0.2461
24303SOL    HW181687  12.030  10.655   4.203  1.2495 -1.0006  0.7050
24303SOL    HW281688  12.149  10.650   4.109 -0.5885  0.7479 -1.8576
24304SOL     OW81689   0.918   2.906   0.911 -0.2275  0.3006 -0.0810
24304SOL    HW181690   0.879   2.968   0.973 -0.6201 -0.2953  0.2746
24304SOL    HW281691   0.940   2.959   0.834 -1.7456  0.6452 -0.3026
24305SOL     OW81692   0.124   2.320  12.349  0.1180  0.5744  0.4038
24305SOL    HW181693   0.210   2.355  12.328 -0.0366  0.1840 -0.9915
24305SOL    HW281694   0.141   2.231  12.380  0.1701  0.1609 -0.7703
24306SOL     OW81695   7.359  12.130   1.912 -0.4345 -0.1917 -0.2811
24306SOL    HW181696   7.359  12.150   1.819 -0.5178 -2.7246 -0.9170
24306SOL    HW281697   7.445  12.158   1.944 -0.6335  1.2549 -0.9447
24307SOL     OW81698   5.563   7.884  12.610  0.0795  0.5534 -0.0742
24307SOL    HW181699   5.550   7.895  12.516  0.2426 -0.6491 -0.2446
24307SOL    HW281700   5.475   7.876  12.646  0.0235  0.8795 -0.1333
24308SOL     OW81701  11.993   0.713   9.615  0.3593 -0.5180  0.5787
24308SOL    HW181702  12.037   0.786   9.660  1.8422 -0.4936 -0.8242
24308SOL    HW281703  12.061   0.647   9.605 -0.0993 -0.7926 -0.9855
24309SOL     OW81704   1.853  12.277   3.481  0.2903 -0.4429 -0.4404
24309SOL    HW181705   1.875  12.186   3.460 -2.1120 -0.8135 -1.6677
24309SOL    HW281706   1.843  12.319   3.396  1.0123  0.9173  0.1128
24310SOL     OW81707   9.138   4.157   0.292 -0.3003 -0.2442 -0.1631
24310SOL    HW181708   9.044   4.140   0.298 -0.0383 -2.7300 -1.4820
24310SOL    HW281709   9.170   4.151   0.382 -1.0373 -2.4067  0.0115
24311SOL     OW81710   9.038  11.718   3.563  0.1497 -0.3162  0.0811
24311SOL    HW181711   9.095  11.686   3.493 -0.8129 -1.7361 -0.0825
24311SOL    HW281712   8.950  11.714   3.527 -0.3068 -0.5417  1.1758
24312SOL     OW81713  10.816   3.078   2.070  0.1770  0.3150 -0.6036
24312SOL    HW181714  10.824   3.078   1.975  3.1596 -0.3368 -0.4813
24312SOL    HW281715  10.795   2.987   2.092  0.2352  0.2930 -0.6367
24313SOL     OW81716   3.484   0.102  10.983 -0.2455  0.7129  0.2537
24313SOL    HW181717   3.423   0.102  10.909  0.8349  1.6726 -0.6762
24313SOL    HW281718   3.507   0.010  10.996 -1.3048  0.4218  0.1307
24314SOL     OW81719  10.452   0.813  11.405 -0.1369  0.0373 -0.6693
24314SOL    HW181720  10.438   0.758  11.482  1.5489 -0.2742 -0.5419
24314SOL    HW281721  10.534   0.782  11.368 -0.1217  1.2192 -1.6960
24315SOL     OW81722   9.796   9.047   7.581 -0.4349  0.2307  0.3526
24315SOL    HW181723   9.858   9.115   7.605  0.2323 -0.2756  0.1065
24315SOL    HW281724   9.851   8.971   7.561 -1.1634 -0.4034  0.6995
24316SOL     OW81725  10.136   4.224  11.130 -0.5273 -0.3735 -0.4165
24316SOL    HW181726  10.156   4.260  11.044 -2.8647 -2.6310 -2.0766
24316SOL    HW281727  10.206   4.162  11.148 -0.4399 -0.4728 -1.0918
24317SOL     OW81728   3.990   4.149   3.615 -0.6456 -0.2269 -0.1676
24317SOL    HW181729   3.979   4.120   3.524 -3.1979 -1.6463  0.5097
24317SOL    HW281730   3.950   4.236   3.616 -0.1548  0.0083 -0.4964
24318SOL     OW81731   7.287   5.976   9.907 -0.4696 -0.4133 -0.1734
24318SOL    HW181732   7.326   5.894   9.877 -0.8116 -0.6329 -0.0289
24318SOL    HW281733   7.194   5.968   9.885  0.0595  1.6088 -3.8643
24319SOL     OW81734  11.560  10.361  11.536 -0.3900 -0.1200 -0.5330
24319SOL    HW181735  11.576  10.456  11.541  0.2002 -0.1497 -1.5997
24319SOL    HW281736  11.594  10.328  11.619  1.5466  0.3459 -1.0726
24320SOL     OW81737   4.224   9.045   4.249 -0.2364  0.0484 -0.1866
24320SOL    HW181738   4.309   9.004   4.236 -0.6660 -0.9431  0.0366
24320SOL    HW281739   4.196   9.070   4.161 -1.4623 -3.2471 -0.8922
24321SOL     OW81740   1.587   9.511  10.686 -0.1494  0.6610 -0.1675
24321SOL    HW181741   1.662   9.489  10.630 -0.4640 -0.7682 -0.0747
24321SOL    HW281742   1.518   9.536  10.625 -0.2059  0.0023 -0.3881
24322SOL     OW81743   1.772  11.750  11.692 -0.2625 -0.2343  0.0575
24322SOL    HW181744   1.717  11.815  11.648 -1.4784 -0.1659  1.5657
24322SOL    HW281745   1.845  11.800  11.728  0.3103 -0.1693 -1.1625
24323SOL     OW81746   0.727   7.396   6.268  0.0196 -0.5809 -0.8636
24323SOL    HW181747   0.751   7.489   6.269 -0.3957 -0.4743  0.0482
24323SOL    HW281748   0.779   7.359   6.196 -0.1805  0.4457 -1.5587
24324SOL     OW81749  11.281   3.615   4.589 -0.0674 -0.8835  0.0149
24324SOL    HW181750  11.316   3.645   4.673  0.4637 -0.6892 -0.2747
24324SOL    HW281751  11.204   3.563   4.613  0.0608 -0.8035  0.6209
24325SOL     OW81752  12.399   9.868   6.529 -0.0350 -0.1170  0.3265
24325SOL    HW181753  12.415   9.926   6.454  3.0880 -1.5057 -0.2472
24325SOL    HW281754  12.352   9.794   6.493  0.0435 -0.0401  0.0653
24326SOL     OW81755   1.464  10.366   1.125  0.3633 -0.6201  0.2830
24326SOL    HW181756   1.522  10.353   1.049  0.1847 -1.7112  0.3282
24326SOL    HW281757   1.507  10.320   1.197 -0.1955 -0.8272  0.4905
24327SOL     OW81758   8.805  12.395  11.074 -0.4920  0.1645  0.3483
24327SOL    HW181759   8.864  12.424  11.005  0.2931 -0.6659  0.6558
24327SOL    HW281760   8.853  12.409  11.156 -0.6162 -0.7235  0.5858
24328SOL     OW81761   3.712  10.306   7.840  0.1687  0.0414 -0.4575
24328SOL    HW181762   3.690  10.397   7.823  0.4148 -0.2628 -2.8880
24328SOL    HW281763   3.768  10.308   7.918 -0.8500  1.7925  0.2737
24329SOL     OW81764   4.805   7.308   0.467  0.0994 -0.3213  0.1335
24329SOL    HW181765   4.759   7.250   0.527 -2.1626  0.1476 -1.0313
24329SOL    HW281766   4.744   7.320   0.394  1.9560  0.6751 -1.3301
24330SOL     OW81767  10.769   3.942   6.515  0.2563 -0.4637 -0.1258
24330SOL    HW181768  10.756   3.937   6.421 -1.0700 -2.4791  0.0935
24330SOL    HW281769  10.692   3.898   6.552  0.5270  0.6556  1.9185
24331SOL     OW81770   3.145   6.945   0.661  0.3267  0.0634 -0.8228
24331SOL    HW181771   3.096   6.943   0.579 -0.0365 -0.5873 -0.5957
24331SOL    HW281772   3.147   7.038   0.686 -1.4794  0.0389 -0.4295
24332SOL     OW81773   8.236  11.772   5.168  0.4274 -0.3154 -0.4969
24332SOL    HW181774   8.266  11.850   5.216  1.4787  0.0412 -1.6754
24332SOL    HW281775   8.156  11.801   5.125  0.4044 -0.1173 -0.3249
24333SOL     OW81776  11.217   6.864   4.331 -0.0183  0.2086  0.1516
24333SOL    HW181777  11.179   6.934   4.279  0.9861 -0.5197 -1.6750
24333SOL    HW281778  11.239   6.904   4.415  0.1748  1.9673 -0.7098
24334SOL     OW81779   4.277   8.921   8.561  0.0522 -0.4088  0.2023
24334SOL    HW181780   4.229   8.844   8.592  0.5762  0.0193  2.2298
24334SOL    HW281781   4.368   8.892   8.557  0.2310  0.0463  0.8276
24335SOL     OW81782   0.672   5.869  11.858  0.3996  0.5724 -0.2319
24335SOL    HW181783   0.670   5.956  11.818  1.3614  0.6337 -0.1653
24335SOL    HW281784   0.604   5.820  11.812  1.9017  0.4340 -2.4571
24336SOL     OW81785   0.505  10.896   3.354 -0.7271 -0.5601 -0.1810
24336SOL    HW181786   0.450  10.849   3.418  1.5995  0.6015  2.9338
24336SOL    HW281787   0.590  10.853   3.359  0.2167  1.1618 -0.5866
24337SOL     OW81788   4.267   0.739   9.139 -0.3864  0.2001  0.4847
24337SOL    HW181789   4.272   0.644   9.145 -2.8468 -0.0439 -0.3663
24337SOL    HW281790   4.260   0.769   9.230 -1.7265 -0.6093  0.6578
24338SOL     OW81791   1.074   1.357   5.370 -0.6461 -0.0587 -0.1845
24338SOL    HW181792   1.122   1.283   5.331 -1.2495 -0.3511 -0.3945
24338SOL    HW281793   0.983   1.342   5.345 -0.6901  1.1288 -0.8165
24339SOL     OW81794   2.438  10.457  11.479  0.3319  0.4571  0.1531
24339SOL    HW181795   2.494  10.507  11.420  0.2433  0.7383  0.3017
24339SOL    HW281796   2.350  10.463  11.441  0.6455 -1.3425 -0.9631
24340SOL     OW81797   0.002   9.939   9.781  0.1480 -0.3060 -0.2694
24340SOL    HW181798   0.054   9.911   9.856  0.3481 -0.1898 -0.3632
24340SOL    HW281799   0.014  10.034   9.778 -0.4554 -0.2111 -0.0019
24341SOL     OW81800   8.758   8.319   4.257 -0.1203  0.6916  0.9341
24341SOL    HW181801   8.819   8.307   4.331 -1.8066 -0.5549  2.2057
24341SOL    HW281802   8.746   8.231   4.222  1.1521  1.3403 -1.3469
24342SOL     OW81803   8.871   4.703  11.810  0.2395 -0.6417 -0.0760
24342SOL    HW181804   8.853   4.790  11.775 -2.9429 -0.7420  1.0408
24342SOL    HW281805   8.918   4.719  11.892 -0.9556  0.0979  0.4886
24343SOL     OW81806   4.956   2.921   7.946  0.0910  0.1748 -0.3868
24343SOL    HW181807   4.965   2.866   7.869  0.6277 -1.5312  0.8401
24343SOL    HW281808   4.881   2.978   7.927 -1.8154 -2.3434 -0.9318
24344SOL     OW81809   7.964   0.116   4.226 -0.2056 -0.2483 -0.1666
24344SOL    HW181810   7.972   0.136   4.133 -1.0433  1.0098  0.0124
24344SOL    HW281811   7.912   0.036   4.229 -0.7015  0.0447 -0.7604
24345SOL     OW81812   2.489   2.009  11.153 -0.3085 -0.1248 -0.0837
24345SOL    HW181813   2.462   1.934  11.206  0.1650 -0.1145  0.1801
24345SOL    HW281814   2.556   2.052  11.206 -1.6558  1.3849  0.5014
24346SOL     OW81815   1.988   9.607   7.320  0.2644 -0.2636 -0.3336
24346SOL    HW181816   1.933   9.670   7.368 -0.4748 -0.8345 -0.3956
24346SOL    HW281817   2.054   9.580   7.384 -1.0850 -1.4859  0.6347
24347SOL     OW81818   5.059  12.244   5.415 -0.4698  0.2818 -0.3950
24347SOL    HW181819   5.104  12.264   5.498 -1.3875 -1.5173  0.5938
24347SOL    HW281820   4.970  12.277   5.427 -0.9552 -1.0559 -0.1533
24348SOL     OW81821   7.269   4.565  12.064  0.2958 -0.4385  0.5053
24348SOL    HW181822   7.324   4.516  12.126  1.0100 -0.1817  0.0805
24348SOL    HW281823   7.258   4.651  12.105  2.2118  0.3343 -0.4860
24349SOL     OW81824   2.446   9.274   7.088 -0.3222 -0.1036 -0.1911
24349SOL    HW181825   2.448   9.186   7.052 -0.3903  0.0421 -0.5638
24349SOL    HW281826   2.529   9.313   7.060 -0.1742 -0.1356  0.1981
24350SOL     OW81827   8.432   0.701   8.583  0.3102  0.2171  0.2627
24350SOL    HW181828   8.432   0.613   8.545  2.3859  0.1993  0.1894
24350SOL    HW281829   8.500   0.748   8.534 -0.7900  1.9028  0.2726
24351SOL     OW81830   4.989  10.292  12.495 -0.1443 -0.1009  0.1952
24351SOL    HW181831   4.906  10.324  12.530  0.1520  0.8889  0.0243
24351SOL    HW281832   4.971  10.273  12.403 -0.3249 -0.4671  0.3026
24352SOL     OW81833   7.469   7.313  10.104  0.2395 -0.5059  0.5423
24352SOL    HW181834   7.536   7.298  10.171 -1.7089 -0.2782  2.6738
24352SOL    HW281835   7.429   7.396  10.129 -0.1940 -0.1284 -1.2835
24353SOL     OW81836  11.570  11.551   3.001  0.0039  0.3915  0.1957
24353SOL    HW181837  11.627  11.628   2.993 -0.9055  1.1603  1.0133
24353SOL    HW281838  11.521  11.548   2.918 -1.1225  1.6488  0.7949
24354SOL     OW81839   7.028  10.069  11.931  0.2337  0.1370 -0.0931
24354SOL    HW181840   7.042  10.150  11.882 -1.3541  0.6873  0.3400
24354SOL    HW281841   7.026  10.001  11.863  1.9487  0.3739 -0.4274
24355SOL     OW81842   4.846   4.969   6.945 -0.1277  0.2440  0.2826
24355SOL    HW181843   4.894   4.921   7.013 -0.5663 -0.6660 -0.0326
24355SOL    HW281844   4.754   4.957   6.969 -0.2409  0.9261  0.1907
24356SOL     OW81845   4.030  12.487   4.335  0.3527  0.6919 -0.0911
24356SOL    HW181846   3.938  12.470   4.318  0.2871  0.7010  0.2575
24356SOL    HW281847   4.038  12.488   4.430  0.7548  0.4631 -0.1196
24357SOL     OW81848   1.267  10.732   5.011 -0.1163  0.5772  0.1228
24357SOL    HW181849   1.295  10.726   4.919 -0.9174  1.2444 -0.1787
24357SOL    HW281850   1.318  10.665   5.056  1.1300  1.0026 -0.5981
24358SOL     OW81851   8.734  10.423  10.863  0.0161 -0.3218  0.4689
24358SOL    HW181852   8.805  10.403  10.804  1.2783  1.5902  1.2390
24358SOL    HW281853   8.684  10.341  10.871  0.9167 -1.1247 -1.6682
24359SOL     OW81854   0.051   0.097   7.802 -0.1855 -0.2297  0.0921
24359SOL    HW181855   0.081   0.052   7.881  2.5736  3.3851  1.3596
24359SOL    HW281856   0.119   0.081   7.737 -0.3313  0.2487 -0.1831
24360SOL     OW81857   0.464  11.839   9.307  0.0571  0.2310  0.6874
24360SOL    HW181858   0.434  11.751   9.284  1.3308 -0.2983  0.9639
24360SOL    HW281859   0.424  11.857   9.391 -3.2940  1.5060 -1.0005
24361SOL     OW81860   6.909  11.721  11.463  0.0347  0.7793 -0.0662
24361SOL    HW181861   6.848  11.761  11.402  0.2108  1.4262  0.1755
24361SOL    HW281862   6.860  11.649  11.503 -0.3649  0.9096 -0.3241
24362SOL     OW81863   9.849   5.430  11.333 -0.0984 -0.3948  0.6541
24362SOL    HW181864   9.889   5.426  11.420 -0.1701  0.4856  0.7324
24362SOL    HW281865   9.875   5.515  11.298 -0.1349 -0.7130 -0.1602
24363SOL     OW81866   8.836   7.878  11.629 -0.1043 -0.5835  0.1295
24363SOL    HW181867   8.778   7.841  11.562 -0.4282 -1.8496  1.0687
24363SOL    HW281868   8.800   7.846  11.712 -0.0513  1.4157  0.9813
24364SOL     OW81869   9.791   0.359   9.011  0.1638 -0.0193  0.0305
24364SOL    HW181870   9.835   0.420   9.070  2.3148 -0.3474 -1.1197
24364SOL    HW281871   9.737   0.305   9.068  0.6307  0.9381  1.4418
24365SOL     OW81872   0.013  11.326   7.827  0.7357 -0.3070 -0.0477
24365SOL    HW181873  -0.042  11.327   7.906 -0.4552 -0.9961 -0.8176
24365SOL    HW281874  -0.017  11.401   7.775  0.7964 -0.4508 -0.2948
24366SOL     OW81875  10.101   4.496   4.763 -0.0185 -0.4271 -0.0612
24366SOL    HW181876  10.194   4.489   4.782  0.0472 -0.3372 -0.3504
24366SOL    HW281877  10.092   4.471   4.671 -0.3029 -0.6103  0.0124
24367SOL     OW81878   6.774   7.918   2.206  0.0179  0.5459 -0.0228
24367SOL    HW181879   6.788   8.013   2.201 -2.1484  0.9182 -0.0921
24367SOL    HW281880   6.813   7.884   2.125  1.5878  1.2312  0.4059
24368SOL     OW81881   3.734   6.045   1.755  0.2243  0.1506  0.6483
24368SOL    HW181882   3.806   6.108   1.765  0.0573  0.0829  2.6283
24368SOL    HW281883   3.730   6.000   1.839 -0.9456 -1.1497 -0.0666
24369SOL     OW81884   5.916   7.309   9.901 -0.5886  0.1069 -0.2763
24369SOL    HW181885   5.996   7.334   9.946 -1.4456  1.1121  0.7615
24369SOL    HW281886   5.905   7.216   9.921 -0.4823  0.3278  0.8955
24370SOL     OW81887   1.564   8.184   7.439 -0.1639  0.0940 -0.3297
24370SOL    HW181888   1.606   8.100   7.419  0.6818  0.5060 -0.3345
24370SOL    HW281889   1.636   8.247   7.437 -0.1405  0.3527  2.9859
24371SOL     OW81890   2.825   1.941   7.881 -0.1625  0.2167 -0.4703
24371SOL    HW181891   2.830   1.854   7.841 -0.0498  0.6447 -1.4163
24371SOL    HW281892   2.767   1.991   7.823 -1.0344  0.4945  0.6076
24372SOL     OW81893   9.269   7.224   2.695  0.2936 -0.1716 -0.3045
24372SOL    HW181894   9.339   7.237   2.759 -0.1410  0.2345  0.0968
24372SOL    HW281895   9.198   7.185   2.746 -0.7708  1.9124 -0.0769
24373SOL     OW81896  10.727   7.665  11.706  0.3004  0.3732  0.4398
24373SOL    HW181897  10.713   7.648  11.799  0.3724  0.5999  0.4919
24373SOL    HW281898  10.655   7.723  11.681  0.9982  1.3436  0.6485
24374SOL     OW81899  10.551   7.873   0.163  0.7054 -0.2402  0.5367
24374SOL    HW181900  10.493   7.913   0.099  0.6984 -1.3617 -0.1933
24374SOL    HW281901  10.607   7.944   0.194  0.4291  0.3987 -0.4050
24375SOL     OW81902   7.170   2.863  11.696 -0.3244  0.2948 -0.5504
24375SOL    HW181903   7.176   2.806  11.620  0.3024 -0.0408 -0.2612
24375SOL    HW281904   7.224   2.938  11.674 -2.0878  1.3670 -1.4092
24376SOL     OW81905   6.525   5.719   2.606 -0.3664 -0.0147 -0.0314
24376SOL    HW181906   6.507   5.807   2.572 -0.5947  0.3747  1.0810
24376SOL    HW281907   6.585   5.681   2.541 -0.6476  0.7751 -0.7787
24377SOL     OW81908  11.234   8.229   3.998  1.3085 -0.8791 -0.0309
24377SOL    HW181909  11.208   8.321   4.002  0.9831 -0.8706 -1.6291
24377SOL    HW281910  11.326   8.231   3.971  1.4748 -1.0144  0.5182
24378SOL     OW81911   9.361   3.796   0.985 -0.0224  0.6003 -0.9175
24378SOL    HW181912   9.315   3.829   1.063 -0.4384  0.8592 -1.2644
24378SOL    HW281913   9.346   3.702   0.986 -0.7286  0.7052 -1.1258
24379SOL     OW81914   2.044   8.653   9.532  0.2510 -0.3549 -0.5784
24379SOL    HW181915   2.103   8.683   9.601 -0.6816  0.0333  0.0775
24379SOL    HW281916   2.010   8.734   9.493 -1.5051 -0.5116  0.5228
24380SOL     OW81917   8.967   7.548   0.459  0.0660  0.7482  0.3301
24380SOL    HW181918   8.909   7.608   0.412 -2.0681 -0.1981  1.5793
24380SOL    HW281919   8.981   7.591   0.544  1.5504  1.1437 -0.1011
24381SOL     OW81920   1.200  12.167   3.847 -0.2070  0.1418 -0.0981
24381SOL    HW181921   1.266  12.110   3.885  0.8027  0.4352 -1.3460
24381SOL    HW281922   1.243  12.252   3.838 -0.5191  0.1815 -1.5222
24382SOL     OW81923   9.778  10.212  11.184  0.2515 -0.4057  0.5175
24382SOL    HW181924   9.760  10.140  11.124  0.1741  1.0871 -1.3151
24382SOL    HW281925   9.751  10.291  11.137  2.1858  1.0180  1.6385
24383SOL     OW81926   3.478   7.834   9.321  0.6707  0.1010 -0.2838
24383SOL    HW181927   3.403   7.840   9.379 -0.0095 -0.4608 -1.0843
24383SOL    HW281928   3.472   7.747   9.282  2.2131 -0.2792  0.2669
24384SOL     OW81929   8.061   4.281   1.406  0.0342 -0.0847 -0.1437
24384SOL    HW181930   8.094   4.192   1.395 -1.0815 -0.6908  1.1230
24384SOL    HW281931   8.128   4.326   1.457 -0.5254 -0.9669  1.4175
24385SOL     OW81932   8.948   8.828   3.426  0.1596  0.2489  0.1952
24385SOL    HW181933   8.886   8.772   3.474  0.5655 -0.9642 -0.6290
24385SOL    HW281934   9.034   8.790   3.444  0.4065  0.3735 -0.6854
24386SOL     OW81935   3.655   2.451   0.112 -0.7635  0.2239  0.3779
24386SOL    HW181936   3.615   2.470   0.027  0.7006 -1.8447 -0.8535
24386SOL    HW281937   3.689   2.536   0.141  0.4341  0.6791 -2.0695
24387SOL     OW81938   5.176  11.331   5.087  0.2578 -0.8127  0.5589
24387SOL    HW181939   5.095  11.377   5.110  0.4499 -0.1353 -0.0725
24387SOL    HW281940   5.219  11.314   5.171  0.1624  0.1399  0.8115
24388SOL     OW81941   5.974   0.449   7.129  0.2295 -0.2764 -0.1698
24388SOL    HW181942   5.905   0.515   7.129 -1.1313 -1.6401 -0.1190
24388SOL    HW281943   5.957   0.398   7.049  2.6040  0.7330 -1.4137
24389SOL     OW81944  12.197   8.321   2.116  0.4205  0.0274 -0.0394
24389SOL    HW181945  12.285   8.345   2.145  1.1842 -0.7757 -1.5676
24389SOL    HW281946  12.154   8.404   2.099  0.6403  0.4497  1.3401
24390SOL     OW81947   0.279   9.322  10.192  0.0987  0.3476 -0.0503
24390SOL    HW181948   0.255   9.231  10.210  0.0560  0.4497  0.4316
24390SOL    HW281949   0.374   9.326  10.208 -0.1786  0.7930  1.7648
24391SOL     OW81950   6.679   2.642   7.890 -0.1943 -0.7468 -0.0265
24391SOL    HW181951   6.694   2.638   7.985  0.1232  2.4991  0.1861
24391SOL    HW281952   6.588   2.670   7.882  0.0160 -0.2005 -0.6127
24392SOL     OW81953   7.625   2.666   9.461 -0.3104  0.6686 -0.1949
24392SOL    HW181954   7.624   2.739   9.523 -0.9264  0.2703  0.2666
24392SOL    HW281955   7.537   2.664   9.425 -0.4743 -0.2169  0.2308
24393SOL     OW81956   2.982   1.066   2.825 -0.1153  0.0679 -0.4120
24393SOL    HW181957   2.924   0.994   2.850 -1.8053  1.9419  1.3522
24393SOL    HW281958   2.952   1.091   2.737  0.4951 -1.3261 -1.0471
24394SOL     OW81959  11.904  12.284   6.334 -0.2509  0.2130 -0.1084
24394SOL    HW181960  11.859  12.261   6.252  0.8723  0.4750 -0.8118
24394SOL    HW281961  11.930  12.200   6.371  1.0486  0.1602 -1.0777
24395SOL     OW81962  11.997  11.146   1.308 -0.1239  0.2565  0.4497
24395SOL    HW181963  12.066  11.188   1.360 -2.0414  2.1069  1.6936
24395SOL    HW281964  11.984  11.206   1.234 -0.1791 -0.2673  0.0308
24396SOL     OW81965  10.479   7.291   3.570  0.2852  0.2981  0.6594
24396SOL    HW181966  10.561   7.243   3.564  0.6480  0.8906  0.8656
24396SOL    HW281967  10.443   7.266   3.655  2.1977  3.0540  2.4557
24397SOL     OW81968   8.638   2.592   3.993 -0.2412 -0.0056 -0.0335
24397SOL    HW181969   8.546   2.599   4.020 -0.1022 -0.3756  0.5434
24397SOL    HW281970   8.658   2.499   3.999  0.0116 -0.0036 -0.7199
24398SOL     OW81971   1.038   2.895   6.352 -0.2063 -0.0030  0.1817
24398SOL    HW181972   1.002   2.984   6.359 -0.4942 -0.2134  1.5323
24398SOL    HW281973   1.105   2.891   6.419 -1.1637 -1.2494  1.1177
24399SOL     OW81974   0.314   9.068   1.311 -0.0849  0.4231 -0.0196
24399SOL    HW181975   0.339   9.153   1.275 -0.0604  0.3230 -0.2468
24399SOL    HW281976   0.363   9.061   1.393 -1.4285  1.3899  0.9090
24400SOL     OW81977  11.003   9.843  10.760 -0.2752 -0.8008  0.2229
24400SOL    HW181978  11.096   9.867  10.755 -0.6714  1.2035  1.3154
24400SOL    HW281979  10.966   9.874  10.677 -0.2882  0.1011  0.5524
24401SOL     OW81980  10.961   7.001   3.095 -0.2061 -0.2770 -0.4591
24401SOL    HW181981  10.991   6.930   3.039  1.0629  0.3382 -0.5979
24401SOL    HW281982  10.944   7.074   3.035 -3.3496 -0.9610 -0.5606
24402SOL     OW81983   5.112   2.354   2.728  0.4431 -0.2690  1.2302
24402SOL    HW181984   5.167   2.382   2.655 -0.4810  3.4289  1.7764
24402SOL    HW281985   5.174   2.330   2.797  1.2999 -1.4654  0.0951
24403SOL     OW81986   3.400  12.037  12.158  0.6646  0.0444 -0.0370
24403SOL    HW181987   3.443  12.075  12.082 -2.5379 -0.5297 -2.3634
24403SOL    HW281988   3.409  11.942  12.147 -2.6123 -0.2275 -1.7796
24404SOL     OW81989   8.517   3.269  11.796  0.1736  0.1393 -0.1473
24404SOL    HW181990   8.567   3.236  11.721  0.3090  1.4218 -0.6407
24404SOL    HW281991   8.426   3.265  11.767 -0.0100 -1.7071  0.5618
24405SOL     OW81992   2.333  10.783   4.817 -0.2694 -0.1545  0.3858
24405SOL    HW181993   2.365  10.744   4.736  3.0363  1.1827  0.8863
24405SOL    HW281994   2.366  10.725   4.887 -1.7319 -0.4358  0.8783
24406SOL     OW81995   9.327   3.011   9.173 -0.0806  0.1394  0.3662
24406SOL    HW181996   9.305   2.925   9.136  0.3808  0.0916  0.1941
24406SOL    HW281997   9.253   3.032   9.231 -1.3175  0.6880 -1.3480
24407SOL     OW81998   0.904  12.513   2.490 -0.1696 -0.1628 -0.6246
24407SOL    HW181999   0.817  12.490   2.523 -0.2316  0.1332 -0.5816
24407SOL    HW282000   0.916  12.604   2.516  0.9565 -0.7607  1.0910
24408SOL     OW82001   6.940   9.584   6.483  0.2561  0.3927 -0.0030
24408SOL    HW182002   7.005   9.527   6.523 -1.2070 -0.9533  0.5889
24408SOL    HW282003   6.975   9.605   6.397  1.5153 -0.1719  0.3496
24409SOL     OW82004   7.911  12.242   6.914 -0.1103 -0.2080 -0.6500
24409SOL    HW182005   7.849  12.282   6.976  0.3451  2.3387 -1.6945
24409SOL    HW282006   7.997  12.264   6.949  0.2017 -1.7029 -0.4372
24410SOL     OW82007   8.182   0.711   0.052  0.1542 -0.4801  0.0694
24410SOL    HW182008   8.266   0.711   0.006  0.4310 -2.6570  0.4900
24410SOL    HW282009   8.162   0.804   0.065  2.9255  0.0908  0.7706
24411SOL     OW82010   8.173   8.569  12.207  0.5748  0.0615 -0.2415
24411SOL    HW182011   8.222   8.649  12.228  2.0721 -0.4210 -1.7215
24411SOL    HW282012   8.191   8.553  12.114 -1.2465 -0.9593 -0.4640
24412SOL     OW82013   9.693   7.163  11.295  0.2616 -0.0066  0.0386
24412SOL    HW182014   9.736   7.147  11.211  2.9479  0.1181  1.2795
24412SOL    HW282015   9.693   7.079  11.339 -1.4420 -0.1463 -0.1529
24413SOL     OW82016   7.327   3.147  10.834  0.1526  0.1148 -0.4613
24413SOL    HW182017   7.301   3.239  10.833 -0.6580 -0.1083 -0.9951
24413SOL    HW282018   7.371   3.135  10.918 -1.0287  0.6363  0.2628
24414SOL     OW82019   6.078   7.333   4.835  0.8733 -0.7065  0.2691
24414SOL    HW182020   6.086   7.254   4.889  0.2361  0.4368  2.0984
24414SOL    HW282021   6.163   7.376   4.842  0.7240 -0.4538  0.5284
24415SOL     OW82022  12.033   4.834   9.457  0.2936  0.0719  0.8005
24415SOL    HW182023  12.013   4.756   9.406  0.0405  1.3554 -1.2077
24415SOL    HW282024  11.948   4.877   9.469  0.5681  0.6104  0.8535
24416SOL     OW82025  11.138   9.681  11.172 -0.0396  0.2128  0.0976
24416SOL    HW182026  11.069   9.639  11.224  0.6503  0.2259  1.0580
24416SOL    HW282027  11.132   9.774  11.194 -0.7115  0.4515 -1.0188
24417SOL     OW82028   3.625   6.686   0.318 -0.4822  0.0555 -0.5163
24417SOL    HW182029   3.706   6.642   0.293 -0.3379  0.3313 -0.5403
24417SOL    HW282030   3.579   6.701   0.235 -1.6004 -2.0484 -0.3646
24418SOL     OW82031   8.621   9.708   3.481 -0.0698 -0.2056 -0.9245
24418SOL    HW182032   8.676   9.727   3.405 -1.1222 -1.1557 -1.9629
24418SOL    HW282033   8.575   9.790   3.499  1.4935  0.5416 -0.1643
24419SOL     OW82034   4.797   4.616   2.282  0.2550  0.2730  0.3091
24419SOL    HW182035   4.735   4.544   2.290 -0.0254  0.4359 -0.3624
24419SOL    HW282036   4.744   4.690   2.253  0.9161  0.1728 -1.2590
24420SOL     OW82037  11.684   6.031   6.622  0.0396 -0.3378 -0.4306
24420SOL    HW182038  11.601   6.013   6.666  0.4705 -0.4352  0.3633
24420SOL    HW282039  11.740   5.956   6.644 -0.0850 -0.9714 -2.1044
24421SOL     OW82040   8.226  11.073   3.245  0.5297  0.3688 -0.6689
24421SOL    HW182041   8.254  11.018   3.318  1.6485  0.0120 -1.3289
24421SOL    HW282042   8.274  11.038   3.170 -2.2703 -0.7341 -2.0801
24422SOL     OW82043   6.335   3.117  11.224 -0.3487  0.1692  0.3739
24422SOL    HW182044   6.416   3.162  11.246 -1.2949  1.1236  2.1411
24422SOL    HW282045   6.283   3.121  11.304 -1.8860 -1.0016 -0.5075
24423SOL     OW82046   4.266   4.467  11.647  0.2511 -0.3366 -0.1008
24423SOL    HW182047   4.315   4.546  11.623 -0.3292  0.9166  2.4807
24423SOL    HW282048   4.313   4.432  11.723 -0.7727 -1.1929  0.1679
24424SOL     OW82049   4.749   0.913   4.103  0.1385  0.5540  0.1907
24424SOL    HW182050   4.764   0.852   4.175 -2.4444  1.2312  1.4042
24424SOL    HW282051   4.732   0.857   4.027 -1.1442 -0.2558  1.0471
24425SOL     OW82052   2.555   2.151   9.254  0.2879  0.3159 -0.3366
24425SOL    HW182053   2.479   2.110   9.213 -0.4337  0.4337  0.8195
24425SOL    HW282054   2.593   2.081   9.309  0.8624  0.3363 -0.6977
24426SOL     OW82055  12.197   0.948   5.137 -0.4092 -0.5076 -0.1462
24426SOL    HW182056  12.136   1.022   5.128  1.8552  1.9367  2.6668
24426SOL    HW282057  12.263   0.979   5.198  2.1172 -4.0580 -0.8025
24427SOL     OW82058   7.632   2.315   9.416  0.2523 -0.6075 -0.6184
24427SOL    HW182059   7.692   2.262   9.467 -0.4100  0.2298  1.1231
24427SOL    HW282060   7.650   2.405   9.444  0.3280 -0.0368 -2.3850
24428SOL     OW82061   6.860   1.933   2.799 -0.4387  0.6358  0.0204
24428SOL    HW182062   6.845   1.974   2.714 -0.5692 -0.5802 -0.5758
24428SOL    HW282063   6.953   1.910   2.798 -0.4761  0.4781  0.1270
24429SOL     OW82064   2.770   6.008   7.417 -0.4215  0.0900  0.5898
24429SOL    HW182065   2.677   6.007   7.440 -0.0040 -0.5674  2.4468
24429SOL    HW282066   2.805   6.084   7.462 -0.3713  1.5087 -1.7169
24430SOL     OW82067   8.357   0.501  11.451 -0.1569 -0.9141 -0.0394
24430SOL    HW182068   8.271   0.460  11.451  0.0812 -1.4259  0.3019
24430SOL    HW282069   8.418   0.428  11.441  0.3525 -0.8409  2.1356
24431SOL     OW82070   5.369   0.889   7.057  0.1048 -0.8242 -0.0441
24431SOL    HW182071   5.282   0.917   7.085 -0.4041 -0.6567 -1.6840
24431SOL    HW282072   5.365   0.890   6.962  1.5061 -2.0790 -0.1591
24432SOL     OW82073   7.033   8.186  10.079 -0.1595 -0.5439 -0.1114
24432SOL    HW182074   7.032   8.111  10.020 -0.9232 -0.0143 -0.7955
24432SOL    HW282075   6.960   8.171  10.139  0.7933 -1.2257  0.9145
24433SOL     OW82076   9.564   0.740   1.021 -0.0959  0.5131  0.0204
24433SOL    HW182077   9.507   0.691   0.962  1.1546 -1.1876  0.1598
24433SOL    HW282078   9.562   0.691   1.103  0.0445  1.5309  0.6499
24434SOL     OW82079   1.592   4.081   3.533  0.9688 -0.4498 -0.1302
24434SOL    HW182080   1.680   4.090   3.569  1.0753 -2.1878  0.1613
24434SOL    HW282081   1.551   4.014   3.588  0.3533 -1.5085 -1.7911
24435SOL     OW82082  11.318   7.780   0.827  0.5387 -0.2644  0.9771
24435SOL    HW182083  11.317   7.874   0.809 -1.8520 -0.1109  1.5601
24435SOL    HW282084  11.371   7.771   0.906  0.8285  0.5805  0.8822
24436SOL     OW82085   1.490   1.944   1.693  0.3074 -0.2402  0.6059
24436SOL    HW182086   1.557   2.006   1.663 -0.4888  0.0631 -0.5795
24436SOL    HW282087   1.540   1.869   1.726  1.2540  0.4880  0.8834
24437SOL     OW82088   2.494   2.126   4.466 -0.0631 -0.1933 -0.3230
24437SOL    HW182089   2.505   2.100   4.374 -0.3778 -0.8194 -0.1918
24437SOL    HW282090   2.402   2.110   4.484 -0.2003  0.7707 -0.1418
24438SOL     OW82091  10.844   0.392   1.798 -0.4307  0.1114  0.6747
24438SOL    HW182092  10.927   0.347   1.818  0.3115  1.0518 -0.1634
24438SOL    HW282093  10.776   0.330   1.823  0.5009 -0.2288  2.5057
24439SOL     OW82094  10.046   9.095   3.488 -0.5836  0.6562 -0.3301
24439SOL    HW182095  10.085   9.136   3.412  0.6320  0.6917  0.2950
24439SOL    HW282096  10.007   9.014   3.455  1.3839 -0.1665 -0.7241
24440SOL     OW82097   7.773   0.631   5.914  0.0921  0.2984  0.2190
24440SOL    HW182098   7.819   0.647   5.996  0.9558 -1.9229  0.2149
24440SOL    HW282099   7.842   0.611   5.851 -0.6323  1.0370 -0.8547
24441SOL     OW82100  12.009   7.443   7.225  0.0236  0.1819 -0.1645
24441SOL    HW182101  12.096   7.435   7.264  0.2558  0.5900 -0.5855
24441SOL    HW282102  12.023   7.495   7.146 -0.2922 -1.4115 -1.2986
24442SOL     OW82103   2.794   9.186   3.761 -0.0548 -0.7918 -0.5543
24442SOL    HW182104   2.803   9.114   3.698  1.6827 -0.9736 -0.1380
24442SOL    HW282105   2.879   9.229   3.760 -0.3991 -0.0453  0.7810
24443SOL     OW82106  12.286   8.502   0.180 -0.0265  0.0413  0.7225
24443SOL    HW182107  12.310   8.462   0.263  1.4132  1.3592  0.9995
24443SOL    HW282108  12.236   8.435   0.134 -1.1613 -0.5898  2.7615
24444SOL     OW82109   9.513   0.711   6.478 -0.4455  0.0711  0.0926
24444SOL    HW182110   9.475   0.685   6.562  0.1474  0.2338  0.4122
24444SOL    HW282111   9.537   0.628   6.436  0.2998  0.0273  0.5766
24445SOL     OW82112   8.745   2.608  12.558  0.1905  0.4087  0.1600
24445SOL    HW182113   8.676   2.658  12.514  0.4092  0.6919  0.1334
24445SOL    HW282114   8.704   2.525  12.581  0.2788 -0.0728 -1.2887
24446SOL     OW82115   1.453   6.276   7.750 -0.6274 -0.4928  0.1986
24446SOL    HW182116   1.363   6.272   7.720 -0.6471 -0.0359  0.1844
24446SOL    HW282117   1.505   6.263   7.671 -0.6816  0.1320  0.0541
24447SOL     OW82118   5.084   7.927   2.028 -0.6190 -0.2925 -0.4915
24447SOL    HW182119   5.108   7.896   2.116 -0.8517 -0.4052 -0.4682
24447SOL    HW282120   5.009   7.873   2.003 -0.6657 -0.1375 -0.6866
24448SOL     OW82121   0.514   9.664  11.689 -0.2379 -0.0289 -0.0325
24448SOL    HW182122   0.522   9.728  11.760 -1.9571 -0.0850  0.2588
24448SOL    HW282123   0.446   9.603  11.719 -1.2526  0.1264 -1.8404
24449SOL     OW82124   4.014   3.922   0.302 -0.1887  0.0039 -0.1712
24449SOL    HW182125   3.979   3.952   0.386 -1.3871  1.3439 -1.1001
24449SOL    HW282126   4.108   3.939   0.308 -0.6066  2.7501 -0.0877
24450SOL     OW82127  11.887   2.759   1.480 -0.1304 -0.4922 -0.0328
24450SOL    HW182128  11.926   2.804   1.405  0.1339 -1.5435 -0.5362
24450SOL    HW282129  11.887   2.667   1.456 -3.8221 -0.5264 -0.4586
24451SOL     OW82130  11.916   1.778   7.338  0.3005 -0.1070 -0.3033
24451SOL    HW182131  11.829   1.760   7.301  0.7752 -1.5780 -0.7442
24451SOL    HW282132  11.964   1.696   7.330  2.1031  0.9571 -1.0420
24452SOL     OW82133  11.855   4.626   0.894 -0.7528  0.4339  0.1119
24452SOL    HW182134  11.800   4.582   0.829 -2.7050 -0.3468  2.1771
24452SOL    HW282135  11.817   4.713   0.903 -1.1321  0.1851  0.9436
24453SOL     OW82136   2.536   9.775  10.075  0.3964 -0.0203 -0.2465
24453SOL    HW182137   2.490   9.749  10.155  0.7878 -0.3114 -0.1151
24453SOL    HW282138   2.487   9.732  10.005  0.4403 -0.2910 -0.1116
24454SOL     OW82139   6.443   9.673   0.208  0.2901  0.4761  0.8730
24454SOL    HW182140   6.524   9.687   0.158  1.0935  1.4766  2.3824
24454SOL    HW282141   6.408   9.591   0.174  1.0845  0.8328 -0.9318
24455SOL     OW82142  10.097   4.748   4.449  0.1728  0.1324  0.3160
24455SOL    HW182143  10.027   4.701   4.405  0.9991 -0.6696 -0.1807
24455SOL    HW282144  10.052   4.805   4.512 -0.9107 -0.3294 -0.0185
24456SOL     OW82145   1.003   3.648   2.274 -0.3246 -0.4848 -0.1081
24456SOL    HW182146   1.075   3.682   2.327 -0.6543 -2.4705  1.7536
24456SOL    HW282147   1.045   3.617   2.194  0.3119  1.7345 -0.7090
24457SOL     OW82148   2.537   0.908   8.205 -0.1519  0.1073  0.2459
24457SOL    HW182149   2.589   0.884   8.129  1.1642 -0.6411  1.3268
24457SOL    HW282150   2.529   1.003   8.200 -0.4579  0.0225 -1.0482
24458SOL     OW82151   7.598   8.714   1.197  0.4981 -0.1118  0.3693
24458SOL    HW182152   7.655   8.731   1.271  0.7997  0.2385  0.0646
24458SOL    HW282153   7.568   8.800   1.170  1.8555 -0.0231 -1.0525
24459SOL     OW82154   6.540   5.553   6.755 -0.3730  0.0677  0.2908
24459SOL    HW182155   6.581   5.522   6.836 -0.9208  0.5279  0.7609
24459SOL    HW282156   6.457   5.591   6.784 -0.3612  0.6672 -0.4318
24460SOL     OW82157   4.127   3.748   9.736 -0.3272 -0.0803 -0.2111
24460SOL    HW182158   4.129   3.696   9.817 -0.6808 -1.3082 -0.9611
24460SOL    HW282159   4.056   3.708   9.685 -1.9783  2.4069 -0.0129
24461SOL     OW82160   5.899   4.734   9.624 -0.1635 -0.4391 -0.3853
24461SOL    HW182161   5.983   4.777   9.641 -1.4213  1.6466  0.9154
24461SOL    HW282162   5.854   4.791   9.562 -0.8692 -1.2344 -0.6296
24462SOL     OW82163   8.120   1.467   6.688 -0.1149  0.1089  0.4803
24462SOL    HW182164   8.189   1.532   6.676 -2.4952  2.7236  0.0596
24462SOL    HW282165   8.125   1.413   6.608 -0.0593  1.7625 -0.6760
24463SOL     OW82166  10.853   4.750  12.161  0.4128 -0.1665 -0.0664
24463SOL    HW182167  10.872   4.657  12.167 -2.0928 -0.6614  1.4367
24463SOL    HW282168  10.870   4.785  12.248 -3.0163 -0.2384  0.7648
24464SOL     OW82169   2.504  11.512   4.841 -0.2378  0.0590 -0.3576
24464SOL    HW182170   2.440  11.531   4.909 -0.3998  0.6557 -0.6702
24464SOL    HW282171   2.452  11.490   4.764 -0.0720  0.5139 -0.6050
24465SOL     OW82172   0.161   0.001   2.467  0.2808  0.0650 -0.8442
24465SOL    HW182173   0.144  -0.050   2.546 -2.5390  1.1124 -0.6625
24465SOL    HW282174   0.240   0.051   2.487  1.1126 -1.5943  0.2602
24466SOL     OW82175   1.999   2.399   0.453  0.0160  0.2484 -0.1255
24466SOL    HW182176   2.037   2.481   0.421  0.5595  0.4555  0.9995
24466SOL    HW282177   1.906   2.419   0.465  0.1315  0.6916  0.0679
24467SOL     OW82178   5.324  11.723   3.418  0.5138  0.5807 -0.0623
24467SOL    HW182179   5.248  11.758   3.465  0.4913 -0.1485  0.4660
24467SOL    HW282180   5.334  11.780   3.342 -1.7011 -0.3865 -1.1662
24468SOL     OW82181   1.500   4.592   9.296 -0.2800  0.0976 -0.1655
24468SOL    HW182182   1.406   4.590   9.311 -0.7655  2.7250 -2.1343
24468SOL    HW282183   1.513   4.536   9.220 -0.6966  1.6841 -1.4558
24469SOL     OW82184   5.711   1.480   2.594  0.2672 -0.5369 -0.3726
24469SOL    HW182185   5.724   1.468   2.688 -1.2883  1.0730  0.1005
24469SOL    HW282186   5.677   1.569   2.586  2.9433  0.4402 -2.7417
24470SOL     OW82187   3.224   3.194   2.004  0.1573  0.0607  0.5514
24470SOL    HW182188   3.229   3.145   2.086  1.4006  1.0258  1.0885
24470SOL    HW282189   3.134   3.184   1.976 -0.1768 -0.6780  1.8014
24471SOL     OW82190   2.756   0.648   3.043 -0.4308  0.1210  0.1236
24471SOL    HW182191   2.739   0.709   3.116 -1.9527  0.1152 -0.1891
24471SOL    HW282192   2.821   0.587   3.078  0.9368  1.7317  0.5422
24472SOL     OW82193   4.368   0.284   5.386 -0.0199 -0.1256 -0.1813
24472SOL    HW182194   4.328   0.369   5.364  0.9468  0.5342  0.5463
24472SOL    HW282195   4.295   0.231   5.418 -0.4606  0.7860  0.3574
24473SOL     OW82196   3.515   2.441   4.372 -0.6802  0.0561 -0.3847
24473SOL    HW182197   3.551   2.527   4.390  0.2320 -0.4565  0.3420
24473SOL    HW282198   3.572   2.380   4.420 -1.4283 -0.9320 -0.7018
24474SOL     OW82199   2.009   8.728   2.195  0.3931 -0.6352  0.0346
24474SOL    HW182200   1.915   8.710   2.196  0.6098 -1.7671  1.3450
24474SOL    HW282201   2.051   8.643   2.185  1.3541 -0.6235  3.0061
24475SOL     OW82202   5.715   4.673  10.866 -0.1182  0.5331  0.3992
24475SOL    HW182203   5.667   4.591  10.875 -1.9831  1.3085 -1.5191
24475SOL    HW282204   5.661   4.738  10.912  0.0514  1.0975 -0.1748
24476SOL     OW82205  12.230   3.745  11.745  0.2583  0.1655  0.1364
24476SOL    HW182206  12.253   3.769  11.655  0.2475  0.0250  0.0959
24476SOL    HW282207  12.256   3.653  11.753  1.4938  0.5380  0.6845
24477SOL     OW82208   0.789  11.420   9.844  0.0873  0.5660 -0.3436
24477SOL    HW182209   0.818  11.466   9.765 -2.2517 -1.2405 -2.4197
24477SOL    HW282210   0.857  11.356   9.862  0.6710  1.0426 -0.8335
24478SOL     OW82211   6.113   4.939   6.441  0.0611 -0.4760 -0.2494
24478SOL    HW182212   6.100   4.953   6.347 -1.9926 -0.9734 -0.0957
24478SOL    HW282213   6.143   5.024   6.474 -1.2555  0.3466 -1.0618
24479SOL     OW82214   2.584   5.862   9.341  0.0985 -0.2984  0.5473
24479SOL    HW182215   2.650   5.911   9.390 -0.6478  2.9411 -1.4004
24479SOL    HW282216   2.511   5.852   9.402  1.2746 -1.4924  1.8362
24480SOL     OW82217   3.787   9.077   9.639 -0.2060 -0.1898 -0.0679
24480SOL    HW182218   3.760   9.094   9.729 -1.1689 -0.1394 -0.3560
24480SOL    HW282219   3.722   9.015   9.606  0.1892 -0.2735 -0.7029
24481SOL     OW82220   1.243   0.410   4.022 -0.4427  0.5347  0.1495
24481SOL    HW182221   1.149   0.424   4.007 -0.3801  0.8155  0.0139
24481SOL    HW282222   1.247   0.329   4.073 -0.6971 -0.1909 -0.9361
24482SOL     OW82223   7.671   1.867   1.333 -0.2177  0.1395 -0.3158
24482SOL    HW182224   7.715   1.826   1.258  0.8209  1.8456 -0.6936
24482SOL    HW282225   7.734   1.932   1.365 -1.5932  1.0911  0.5547
24483SOL     OW82226  11.974   1.314   8.189 -0.5985  0.4397  0.4690
24483SOL    HW182227  11.949   1.232   8.147 -0.6142  1.3892 -1.5044
24483SOL    HW282228  12.068   1.306   8.204 -0.4877  0.2824 -0.2830
24484SOL     OW82229   6.095   2.278   7.331  0.0620 -0.1062 -0.4053
24484SOL    HW182230   6.116   2.188   7.355 -0.6059  0.3537  2.1914
24484SOL    HW282231   6.162   2.302   7.267  1.5699 -1.7198  0.4767
24485SOL     OW82232   4.846   3.306   6.096  0.0698 -0.9083 -0.2830
24485SOL    HW182233   4.782   3.374   6.078 -0.7458 -1.6911 -0.3641
24485SOL    HW282234   4.824   3.235   6.036 -0.7664 -2.3094  1.5944
24486SOL     OW82235   1.601   4.596   3.381 -0.2127  0.6124  0.2128
24486SOL    HW182236   1.679   4.586   3.325 -1.1542  0.1934 -1.0692
24486SOL    HW282237   1.564   4.508   3.386 -1.4235  1.0648 -0.4252
24487SOL     OW82238   7.962   7.085   3.525  0.5562 -0.3787 -0.0145
24487SOL    HW182239   7.869   7.063   3.512  0.1221  1.7026 -0.9091
24487SOL    HW282240   8.007   7.043   3.452  0.0391  0.0206 -0.5776
24488SOL     OW82241  11.982   1.742   4.186  0.4154  0.1531 -0.2663
24488SOL    HW182242  12.039   1.818   4.197  0.9343 -0.4899  1.9631
24488SOL    HW282243  12.036   1.668   4.211 -0.8251 -0.6954 -0.0314
24489SOL     OW82244   6.944  11.202   4.559  0.2274 -0.1019 -0.0083
24489SOL    HW182245   6.909  11.247   4.636  0.3645 -1.0144  0.6093
24489SOL    HW282246   6.867  11.163   4.517  0.1843  0.1541 -0.1610
24490SOL     OW82247   2.017   4.106  11.046  0.3374  0.2802  0.2307
24490SOL    HW182248   2.091   4.166  11.048  0.4886  0.1473 -0.9647
24490SOL    HW282249   2.015   4.067  11.133  1.0570  1.0181  0.5878
24491SOL     OW82250   7.999   6.615  11.536  0.2986  0.2588 -0.3215
24491SOL    HW182251   7.946   6.645  11.463  0.2009 -1.3994 -0.9531
24491SOL    HW282252   7.948   6.637  11.614 -0.4236  0.4053 -0.8317
24492SOL     OW82253  11.562   0.285   7.613 -0.4759 -0.1984 -0.1708
24492SOL    HW182254  11.569   0.370   7.656 -0.1671 -0.9021  1.2358
24492SOL    HW282255  11.503   0.234   7.668  0.2149 -1.2595 -0.3648
24493SOL     OW82256  12.229   8.069   6.363 -0.2516  0.3865  0.3129
24493SOL    HW182257  12.283   8.124   6.307 -2.2756  2.9735  0.7262
24493SOL    HW282258  12.176   8.017   6.303 -2.0837  2.8172 -0.3307
24494SOL     OW82259   1.034   2.709   5.840  0.5252 -0.1852 -0.0424
24494SOL    HW182260   0.980   2.699   5.918  0.2964  1.6557  0.0782
24494SOL    HW282261   0.975   2.690   5.767  0.7449 -1.9329  0.1876
24495SOL     OW82262   4.862   2.251   1.116 -0.3110 -0.0386  0.6687
24495SOL    HW182263   4.825   2.164   1.101  1.3409 -0.7949  0.7507
24495SOL    HW282264   4.945   2.250   1.069  1.5095  0.1408  3.6436
24496SOL     OW82265   6.680   1.740   2.835 -0.2871 -0.6434 -0.3320
24496SOL    HW182266   6.657   1.692   2.755  0.9765  0.1968 -1.2385
24496SOL    HW282267   6.729   1.816   2.804 -1.1399  0.5771  1.1542
24497SOL     OW82268   6.852   3.748  11.012 -0.2222 -0.3283  0.3197
24497SOL    HW182269   6.823   3.783  10.928  0.5335 -0.0108  0.1880
24497SOL    HW282270   6.847   3.822  11.073  0.1220 -0.3188  0.3393
24498SOL     OW82271   9.286   8.161   3.684  0.0922  0.1910  0.0263
24498SOL    HW182272   9.311   8.105   3.758  1.7793  1.0761  0.1710
24498SOL    HW282273   9.216   8.112   3.641 -1.2760 -0.1552  2.4245
24499SOL     OW82274  12.280   2.501   2.668 -0.4278 -0.1332  0.1090
24499SOL    HW182275  12.255   2.500   2.576 -1.0228  0.5689  0.2639
24499SOL    HW282276  12.234   2.575   2.706 -0.0143 -0.2793  0.9313
24500SOL     OW82277   3.393   4.527   2.703 -0.4937 -0.1932 -0.8365
24500SOL    HW182278   3.311   4.539   2.750 -1.0300 -0.4807 -1.6719
24500SOL    HW282279   3.433   4.613   2.702 -0.2583 -0.2655  0.5053
24501SOL     OW82280   0.364   9.490   2.530 -0.0868  0.1576  0.1599
24501SOL    HW182281   0.433   9.508   2.466  0.2701  0.0594  0.5147
24501SOL    HW282282   0.343   9.397   2.517 -0.2094  0.2062 -0.0002
24502SOL     OW82283   6.445  10.385   5.658 -0.6765 -0.3255  0.2782
24502SOL    HW182284   6.418  10.454   5.597 -0.0708 -0.3542 -0.0381
24502SOL    HW282285   6.407  10.305   5.622 -1.6638 -0.1115  0.8331
24503SOL     OW82286   3.123   8.345   2.345 -0.0893 -0.1307  0.2668
24503SOL    HW182287   3.089   8.432   2.324 -1.3535 -0.2497  1.6108
24503SOL    HW282288   3.185   8.360   2.417  0.3453 -0.2506 -0.0806
24504SOL     OW82289   5.109   1.173   6.408  0.1510 -0.4144  0.0498
24504SOL    HW182290   5.186   1.163   6.463  0.9385 -0.6243 -1.0631
24504SOL    HW282291   5.127   1.250   6.354 -1.7078  1.4017  1.7905
24505SOL     OW82292   6.550  12.079   0.845  0.2281  0.4061 -0.2343
24505SOL    HW182293   6.569  11.994   0.886 -0.4496  0.6250  0.5621
24505SOL    HW282294   6.602  12.142   0.895  0.0896  0.5695 -0.2959
24506SOL     OW82295   2.801  12.405   1.850 -0.4583  0.1713  0.0549
24506SOL    HW182296   2.806  12.454   1.768 -2.1249 -0.0369 -0.2032
24506SOL    HW282297   2.803  12.313   1.822 -1.3794  0.0985  0.2063
24507SOL     OW82298   8.806  10.572  12.337  0.4600 -0.0868 -0.0285
24507SOL    HW182299   8.767  10.587  12.423 -1.3241 -0.7778 -0.6763
24507SOL    HW282300   8.848  10.656  12.315 -0.2925  0.5519  0.8939
24508SOL     OW82301   5.045   4.253  12.025  0.4456  0.5882  0.3365
24508SOL    HW182302   5.023   4.220  11.938 -1.9444  1.7551  0.4421
24508SOL    HW282303   5.138   4.231  12.035  0.6053 -0.2412 -2.1764
24509SOL     OW82304   4.415   3.824   2.452  0.4043 -0.0886 -0.2172
24509SOL    HW182305   4.489   3.824   2.392  1.8075 -0.8930  1.4089
24509SOL    HW282306   4.357   3.754   2.420  0.9304 -0.2397 -0.8508
24510SOL     OW82307   9.423   9.822  11.198 -0.2859 -0.1111  0.3071
24510SOL    HW182308   9.388   9.834  11.110 -0.2696 -1.5495  0.0770
24510SOL    HW282309   9.515   9.798  11.184 -0.7632 -2.2920  0.5684
24511SOL     OW82310   2.052  10.644   4.075  0.1313  0.0663  0.2885
24511SOL    HW182311   2.132  10.677   4.117  1.8170  0.0644 -2.6525
24511SOL    HW282312   1.991  10.718   4.078  1.5784  1.3664 -0.5898
24512SOL     OW82313  10.440   0.958  10.417 -0.0879  0.2177 -0.3172
24512SOL    HW182314  10.492   0.879  10.431  1.4387  0.9610 -1.5432
24512SOL    HW282315  10.384   0.963  10.495  1.5187 -0.7273  0.9771
24513SOL     OW82316   3.309   6.790   5.778  0.0554  0.5868 -0.4414
24513SOL    HW182317   3.298   6.764   5.869 -0.1048 -0.2665 -0.6969
24513SOL    HW282318   3.254   6.729   5.728  0.2820  0.9243 -1.1218
24514SOL     OW82319  10.983  10.559   0.918  0.3106  0.1732  0.1917
24514SOL    HW182320  10.913  10.496   0.903 -0.1527  0.7107  0.0662
24514SOL    HW282321  11.001  10.596   0.831  2.1091 -1.3377 -0.1593
24515SOL     OW82322   2.399   5.143   9.708  0.0772  0.0456  0.0169
24515SOL    HW182323   2.421   5.063   9.661 -4.1876 -1.3920  0.0463
24515SOL    HW282324   2.412   5.121   9.800 -1.4444 -0.8654  0.0546
24516SOL     OW82325   2.615   7.661  11.165 -0.0955 -0.2460  0.8045
24516SOL    HW182326   2.567   7.671  11.247  1.1018  1.5045  1.3339
24516SOL    HW282327   2.694   7.714  11.176  1.4180 -2.0811 -0.4781
24517SOL     OW82328  12.494   9.479   0.610  0.1291 -0.0357 -0.0405
24517SOL    HW182329  12.486   9.555   0.552  0.0259 -0.5430 -0.7064
24517SOL    HW282330  12.438   9.499   0.685  1.7773  1.5029  0.8484
24518SOL     OW82331   2.291   4.008   2.923 -0.1115  0.4702  0.1015
24518SOL    HW182332   2.383   3.989   2.906 -0.6497 -1.1799 -1.3058
24518SOL    HW282333   2.253   4.019   2.836 -1.1712  1.5712  0.6797
24519SOL     OW82334   2.008   9.904   2.458 -0.6494 -0.1511 -0.1917
24519SOL    HW182335   2.021   9.871   2.547 -1.8239  0.0945  0.0975
24519SOL    HW282336   1.916   9.885   2.440 -1.1491  2.1383 -0.3550
24520SOL     OW82337  11.007   7.998  11.981  0.7315 -0.5429 -0.0962
24520SOL    HW182338  10.917   7.987  12.011  0.9298  0.4588  0.9178
24520SOL    HW282339  11.000   8.011  11.886 -0.0954 -1.4494 -0.1754
24521SOL     OW82340   7.843   0.524   1.920 -0.4282  0.0863  0.7035
24521SOL    HW182341   7.805   0.570   1.995 -2.3465 -0.8985  0.3974
24521SOL    HW282342   7.850   0.591   1.852  1.1881  0.9549  1.6614
24522SOL     OW82343   4.556   1.588   8.372  0.4314  0.1783  0.6228
24522SOL    HW182344   4.632   1.543   8.408 -0.2948 -1.0807  0.6340
24522SOL    HW282345   4.481   1.552   8.419 -0.2846  0.5749 -0.1631
24523SOL     OW82346   1.372   7.328   9.579 -0.8442 -0.0725 -0.0389
24523SOL    HW182347   1.349   7.275   9.503 -1.1527  0.3290 -0.2262
24523SOL    HW282348   1.305   7.306   9.644  0.2655 -1.5505  0.6674
24524SOL     OW82349   9.737  12.050   8.376 -0.4980 -0.1763  0.1952
24524SOL    HW182350   9.807  12.013   8.430 -0.1997  0.1175  0.0179
24524SOL    HW282351   9.779  12.064   8.290 -0.6858  0.2877  0.1740
24525SOL     OW82352   9.808   3.582   3.043  0.0047 -0.1527  0.1759
24525SOL    HW182353   9.774   3.529   2.970 -1.5465  1.3590 -0.2612
24525SOL    HW282354   9.841   3.518   3.106 -0.4843 -1.5729 -0.9608
24526SOL     OW82355   6.852   8.900   0.230  0.7270  0.1724  0.0999
24526SOL    HW182356   6.899   8.833   0.279  2.6384  0.5261 -1.1787
24526SOL    HW282357   6.911   8.975   0.228 -0.1366  0.8505 -1.0368
24527SOL     OW82358   2.478   4.580  12.038 -0.9905  0.3059 -0.3542
24527SOL    HW182359   2.508   4.540  12.120  0.5697  0.8943 -0.6062
24527SOL    HW282360   2.542   4.551  11.973 -0.8351  1.7675 -0.8745
24528SOL     OW82361   0.621   1.397  10.529  0.4580 -0.0399 -0.3773
24528SOL    HW182362   0.599   1.307  10.507 -1.1411  0.2790 -0.1665
24528SOL    HW282363   0.545   1.430  10.577  1.2505  1.2489  0.0487
24529SOL     OW82364   2.626   5.392   7.553 -0.2072  0.1989 -0.6166
24529SOL    HW182365   2.722   5.398   7.552 -0.2458  1.1193 -0.2658
24529SOL    HW282366   2.607   5.299   7.558  0.7072  0.0744  2.2634
24530SOL     OW82367   0.257   5.338  10.738  0.7409  0.3582  0.4585
24530SOL    HW182368   0.232   5.360  10.648 -0.2698  0.5027  0.7687
24530SOL    HW282369   0.348   5.369  10.746  0.6328  0.8917 -0.3159
24531SOL     OW82370   3.950   2.862   1.781 -0.6400 -0.4853 -0.0533
24531SOL    HW182371   3.912   2.947   1.804  0.2179 -0.5849  1.9501
24531SOL    HW282372   3.971   2.822   1.865 -1.7230 -3.0425 -0.9079
24532SOL     OW82373   6.763  10.870  11.846 -0.0349 -0.0171 -0.2631
24532SOL    HW182374   6.790  10.779  11.843 -0.9451 -0.2823 -0.9182
24532SOL    HW282375   6.845  10.920  11.844  0.4504 -0.7748 -2.8601
24533SOL     OW82376   3.619  10.686   1.593  0.1424  0.2900 -0.1494
24533SOL    HW182377   3.644  10.698   1.502 -0.2904 -0.7362 -0.4182
24533SOL    HW282378   3.525  10.706   1.595 -0.0242 -0.4642 -0.0987
24534SOL     OW82379   0.046   1.003   3.131  0.4360 -0.1384  0.1590
24534SOL    HW182380   0.046   0.985   3.037 -1.2873  0.1981  0.0545
24534SOL    HW282381  -0.044   0.985   3.158  0.8819 -0.1067  1.7244
24535SOL     OW82382   5.084   0.389   3.040 -0.3077 -0.7640 -0.4126
24535SOL    HW182383   5.149   0.319   3.045 -0.1923 -0.6316 -0.0390
24535SOL    HW282384   5.036   0.383   3.123  1.1870  1.0419  0.6593
24536SOL     OW82385   7.706   0.647   1.292 -0.3098 -0.6262 -0.4875
24536SOL    HW182386   7.801   0.645   1.308 -0.2774 -2.7310 -0.6473
24536SOL    HW282387   7.693   0.581   1.224 -2.1774 -2.2685  1.3356
24537SOL     OW82388   4.579   7.863   5.710  0.2844 -0.2900  0.3793
24537SOL    HW182389   4.639   7.814   5.654  1.5055  1.7835 -0.2377
24537SOL    HW282390   4.619   7.859   5.797  0.8942  0.3592  0.1405
24538SOL     OW82391  10.055  11.074   3.092  0.5469 -0.0680  0.5821
24538SOL    HW182392  10.085  11.147   3.146 -1.9496  1.7595 -0.3536
24538SOL    HW282393   9.986  11.032   3.143  0.1923 -0.1511  0.0473
24539SOL     OW82394   4.361  12.471   2.971 -0.0128  0.3708 -0.6348
24539SOL    HW182395   4.439  12.416   2.971 -0.0209  0.3394  0.8915
24539SOL    HW282396   4.393  12.559   2.990 -0.4948  0.0737  1.8061
24540SOL     OW82397  10.342   0.078  10.121 -0.1309  0.2964  0.1582
24540SOL    HW182398  10.416   0.025  10.152  0.9393  1.5545 -0.1452
24540SOL    HW282399  10.330   0.144  10.189  1.3685  2.2632 -1.3524
24541SOL     OW82400   8.466   0.356   0.259 -0.2070 -0.1358  0.7428
24541SOL    HW182401   8.408   0.353   0.182 -0.8474  0.5902  1.1888
24541SOL    HW282402   8.511   0.441   0.252 -0.2279 -0.0921  1.1480
24542SOL     OW82403  10.758   5.564  10.337  0.1866 -0.3165 -0.4348
24542SOL    HW182404  10.677   5.614  10.340 -0.0744 -0.7705  1.2067
24542SOL    HW282405  10.784   5.555  10.429  0.6260 -2.5083 -0.7204
24543SOL     OW82406   3.653   7.672   5.749  0.1010  0.0603 -0.0275
24543SOL    HW182407   3.686   7.658   5.660 -0.0623 -0.1107 -0.0603
24543SOL    HW282408   3.729   7.657   5.805 -0.0584 -0.9424 -0.0580
24544SOL     OW82409   3.751   5.957   2.021  1.0786  0.7277 -0.2486
24544SOL    HW182410   3.720   5.896   2.088 -0.4986  0.3341 -1.2858
24544SOL    HW282411   3.716   6.042   2.048  0.3101  0.5423 -0.6345
24545SOL     OW82412   4.835   7.186   7.991 -0.5236  0.6623 -0.0519
24545SOL    HW182413   4.904   7.220   8.048  0.3828 -1.2908  0.0907
24545SOL    HW282414   4.881   7.131   7.928 -1.8567  0.1837 -0.6381
24546SOL     OW82415   1.967   5.424  11.996  0.2823  0.0020  0.2529
24546SOL    HW182416   1.981   5.503  11.945  0.6599 -0.3824 -0.2537
24546SOL    HW282417   1.914   5.367  11.940  0.0329 -0.1129  0.6013
24547SOL     OW82418   8.911  12.531   8.819  0.1234 -0.2277  0.2435
24547SOL    HW182419   8.963  12.451   8.827  0.6797 -0.0465 -1.1970
24547SOL    HW282420   8.934  12.566   8.733 -1.2680  0.6702  0.1983
24548SOL     OW82421   8.051   7.439   2.866 -0.2818 -0.0929  0.6812
24548SOL    HW182422   8.074   7.523   2.905  0.3210 -0.9647  2.3302
24548SOL    HW282423   8.128   7.414   2.815 -0.6555  0.5661 -0.2245
24549SOL     OW82424   4.353   7.785   2.803 -0.0092  0.0719  0.4815
24549SOL    HW182425   4.324   7.829   2.883 -0.2531 -1.7604  1.4480
24549SOL    HW282426   4.343   7.692   2.822 -1.5818 -0.4223 -2.2682
24550SOL     OW82427   4.015   2.273  11.026  0.2596  0.2320 -0.4365
24550SOL    HW182428   4.027   2.244  10.936  0.8439 -2.1931  0.3537
24550SOL    HW282429   3.921   2.288  11.034  0.0788 -0.3982 -1.2197
24551SOL     OW82430   6.360   7.799   9.275 -0.1247 -0.0523  0.2071
24551SOL    HW182431   6.441   7.754   9.250 -0.2235 -0.4486  0.5956
24551SOL    HW282432   6.379   7.837   9.361 -0.3852 -0.2277  0.3402
24552SOL     OW82433  12.477   4.715  11.359 -0.7582 -0.1980  0.1451
24552SOL    HW182434  12.540   4.677  11.298 -0.4535  1.0137 -0.3122
24552SOL    HW282435  12.530   4.744  11.433 -1.0377 -0.9762  0.6666
24553SOL     OW82436   1.291   4.647   2.911  0.2553  0.7461  0.1665
24553SOL    HW182437   1.355   4.651   2.982  0.1414 -0.6967  0.3867
24553SOL    HW282438   1.207   4.634   2.955  0.1415  0.1827 -0.1983
24554SOL     OW82439   9.606   5.391   7.957 -0.0992  0.0457 -0.1576
24554SOL    HW182440   9.612   5.403   7.862  2.9778 -0.0636 -0.0881
24554SOL    HW282441   9.618   5.479   7.993  0.8248 -0.1879  0.1272
24555SOL     OW82442   1.445   6.182   6.123  0.0018 -0.5093  0.0849
24555SOL    HW182443   1.394   6.254   6.159 -0.7052 -1.2981  0.6792
24555SOL    HW282444   1.437   6.192   6.028 -0.6985 -0.2401  0.1721
24556SOL     OW82445   0.936   4.928   7.589  0.5277 -0.2606  0.6191
24556SOL    HW182446   0.985   4.919   7.670 -1.1325 -1.2245  1.5734
24556SOL    HW282447   0.940   5.022   7.569  2.0630 -0.2083  1.0623
24557SOL     OW82448   1.852   6.213  11.258  0.4894  0.3972  0.0174
24557SOL    HW182449   1.892   6.130  11.281 -2.1232 -0.8147  0.6388
24557SOL    HW282450   1.869   6.223  11.164  2.1175 -0.0355  0.2413
24558SOL     OW82451   6.357   4.214   1.041  0.0344  0.3125  0.3788
24558SOL    HW182452   6.361   4.180   1.130 -0.2292  0.0491  0.2907
24558SOL    HW282453   6.341   4.137   0.986  0.3962  0.4417  0.0824
24559SOL     OW82454   0.585   7.615   4.065  0.5852  0.0276  0.1520
24559SOL    HW182455   0.619   7.537   4.021  2.2154  0.0803  1.2281
24559SOL    HW282456   0.633   7.619   4.148 -1.5601  0.5551  1.4591
24560SOL     OW82457   7.231   2.235  10.610 -0.3220 -0.3325  0.1225
24560SOL    HW182458   7.170   2.278  10.551 -0.4099 -0.8714 -0.1909
24560SOL    HW282459   7.262   2.158  10.561 -0.6782 -0.9949  0.9072
24561SOL     OW82460  12.195  11.961   0.899  0.3721  0.2405 -0.3008
24561SOL    HW182461  12.110  11.925   0.871  1.4614 -2.1552 -0.7702
24561SOL    HW282462  12.182  11.986   0.990 -1.0957  0.8619 -0.6494
24562SOL     OW82463  10.052   8.479  10.712 -0.3386 -0.0304  0.0859
24562SOL    HW182464  10.024   8.506  10.625  0.4849 -0.0816 -0.2003
24562SOL    HW282465  10.147   8.466  10.704  0.2820  2.7542  1.6879
24563SOL     OW82466   0.759  11.728   8.301  0.1248 -0.4652 -0.0301
24563SOL    HW182467   0.855  11.733   8.293  0.2634  2.4497  1.9469
24563SOL    HW282468   0.742  11.749   8.393 -2.3798 -3.6102  0.4201
24564SOL     OW82469   1.762   8.295   8.765  0.4010  0.6610  0.1744
24564SOL    HW182470   1.816   8.220   8.792  0.1955  0.8067  1.0099
24564SOL    HW282471   1.682   8.256   8.731 -0.0668  0.4989  1.3956
24565SOL     OW82472   6.207  12.351   3.521 -0.5886  0.5987 -0.2465
24565SOL    HW182473   6.202  12.430   3.575 -0.6313  0.7096 -0.4132
24565SOL    HW282474   6.125  12.305   3.539 -0.7068  0.7520 -0.3985
24566SOL     OW82475   6.519   0.505   0.434 -0.4486  0.3010 -0.1082
24566SOL    HW182476   6.536   0.437   0.499 -2.4516  0.7923  1.0006
24566SOL    HW282477   6.606   0.532   0.404  0.4717 -0.7867  1.4656
24567SOL     OW82478   4.402   5.169   9.740  0.2508 -0.1493  0.7585
24567SOL    HW182479   4.471   5.208   9.794 -1.0095  1.5879  1.2119
24567SOL    HW282480   4.434   5.176   9.651  1.0933 -0.3235  1.0392
24568SOL     OW82481   1.228   7.017   4.025 -0.3771 -0.7678  0.3283
24568SOL    HW182482   1.293   7.080   4.057  1.2449 -2.4460  0.5288
24568SOL    HW282483   1.152   7.029   4.082  0.0821  0.6349  0.6775
24569SOL     OW82484  11.069  11.251  12.244  0.4875 -0.5182 -0.4204
24569SOL    HW182485  11.157  11.242  12.208  0.3143  0.5430 -1.1468
24569SOL    HW282486  11.012  11.212  12.178  0.2714  0.3578 -0.7600
24570SOL     OW82487  10.734   3.587   8.565 -0.0286 -0.4776 -0.1823
24570SOL    HW182488  10.709   3.551   8.480  0.2074  1.0856 -0.9458
24570SOL    HW282489  10.732   3.512   8.625 -1.0365 -1.4422 -1.3819
24571SOL     OW82490   9.328   5.543  12.211  0.2368 -0.2421  0.7441
24571SOL    HW182491   9.325   5.478  12.281 -0.1258 -0.6245  0.3790
24571SOL    HW282492   9.262   5.513  12.148  0.4263  0.2021  0.3336
24572SOL     OW82493   6.508   4.166   0.500  0.7387 -0.7720 -0.1093
24572SOL    HW182494   6.453   4.096   0.534  0.9445 -0.8360  0.0882
24572SOL    HW282495   6.493   4.240   0.558  2.4152 -1.3991  1.1911
24573SOL     OW82496   0.573  11.000   5.202  0.4054  0.3052  0.0293
24573SOL    HW182497   0.626  10.936   5.154 -2.6819  0.3930 -3.9614
24573SOL    HW282498   0.606  11.085   5.172  0.4918  0.4724  0.5815
24574SOL     OW82499   2.010   0.112  10.396  1.1550 -0.2971  0.2540
24574SOL    HW182500   2.017   0.198  10.438  2.3477 -0.0556 -0.4110
24574SOL    HW282501   1.961   0.128  10.316  1.1538 -0.2828  0.2572
24575SOL     OW82502   6.888   0.343   4.090  0.5149  0.0466 -0.3472
24575SOL    HW182503   6.963   0.305   4.137 -0.0587 -1.4568 -0.5872
24575SOL    HW282504   6.812   0.300   4.129 -0.0670 -0.1716 -1.6878
24576SOL     OW82505   5.562   6.958   2.672  0.2744  0.1993 -0.0525
24576SOL    HW182506   5.641   6.952   2.727  1.1579  1.7626 -1.0712
24576SOL    HW282507   5.503   7.013   2.722 -0.6259 -1.7324  1.1464
24577SOL     OW82508  11.094   9.238   9.956  0.0199  0.1514 -0.0496
24577SOL    HW182509  11.151   9.162   9.946 -1.2202 -0.8124 -0.0514
24577SOL    HW282510  11.031   9.231   9.884 -1.2787  0.1017  1.0416
24578SOL     OW82511   0.219   8.435   5.108 -0.7161 -0.0425 -0.2430
24578SOL    HW182512   0.153   8.505   5.103 -0.8870 -0.1929 -0.1191
24578SOL    HW282513   0.176   8.366   5.159  0.0135  0.3995  1.0309
24579SOL     OW82514  11.391   9.671   9.571  0.2336  0.2798  0.0177
24579SOL    HW182515  11.370   9.763   9.555 -0.8549  0.0960  0.2665
24579SOL    HW282516  11.342   9.622   9.505 -5.4240 -0.5828  4.0397
24580SOL     OW82517  11.832   5.444   5.302  0.0290 -0.5093  1.1535
24580SOL    HW182518  11.919   5.437   5.341  1.7331  1.2244 -1.9710
24580SOL    HW282519  11.819   5.538   5.290 -1.6292 -0.8201  0.1978
24581SOL     OW82520   9.524  12.449   7.327 -0.3936 -0.3155 -0.5556
24581SOL    HW182521   9.585  12.520   7.346 -0.4698 -0.7462  1.5209
24581SOL    HW282522   9.449  12.491   7.284  0.0929  0.6552 -0.4527
24582SOL     OW82523   8.108   5.635   5.293 -0.2754 -0.0473 -0.1725
24582SOL    HW182524   8.113   5.730   5.285 -0.9599  0.0799  0.7945
24582SOL    HW282525   8.170   5.602   5.228  0.7009  1.0718  0.1645
24583SOL     OW82526   1.664  11.908   4.206  0.5253  0.1711 -0.0789
24583SOL    HW182527   1.638  11.847   4.275 -0.4741  0.0996 -0.4987
24583SOL    HW282528   1.729  11.860   4.155  0.1245 -0.3569 -0.1033
24584SOL     OW82529   7.223   9.603  11.544  0.3025  0.2927 -0.2911
24584SOL    HW182530   7.208   9.583  11.636 -0.1733  1.3910 -0.1097
24584SOL    HW282531   7.159   9.671  11.523  2.6597  2.6597 -0.4498
24585SOL     OW82532   7.861  11.366  10.689 -0.1960  0.3657  0.7178
24585SOL    HW182533   7.803  11.443  10.692 -0.7305 -0.0469  1.3366
24585SOL    HW282534   7.944  11.397  10.725 -0.2050  0.8142  0.3710
24586SOL     OW82535  11.435  12.240   0.333  0.6443 -0.1130  0.3558
24586SOL    HW182536  11.520  12.276   0.308  0.6485 -0.6492 -0.4528
24586SOL    HW282537  11.374  12.314   0.328  0.7142 -0.1254 -0.9532
24587SOL     OW82538   5.712   0.313   7.172 -0.7050 -0.1722 -0.2447
24587SOL    HW182539   5.780   0.245   7.182  0.8234  0.9767 -2.1685
24587SOL    HW282540   5.671   0.293   7.088 -1.2618  0.4253 -0.1136
24588SOL     OW82541  10.123   6.666   9.036  0.3795  0.1677  0.1182
24588SOL    HW182542  10.132   6.758   9.012 -0.6545  0.1331 -0.4794
24588SOL    HW282543  10.156   6.618   8.961 -2.3069  0.0659 -1.1455
24589SOL     OW82544   0.875   0.222   2.832  0.3302 -0.0134  0.8663
24589SOL    HW182545   0.949   0.248   2.887  1.8240 -0.2606 -0.9386
24589SOL    HW282546   0.905   0.144   2.786 -0.3405  0.8753 -1.2306
24590SOL     OW82547   4.986   1.181  10.001 -0.6635 -0.0460  0.0531
24590SOL    HW182548   4.895   1.151  10.004 -0.6051 -0.2741 -0.4005
24590SOL    HW282549   4.982   1.268   9.962 -0.5682 -0.5530 -1.1044
24591SOL     OW82550   4.529   3.503   9.987  0.1914  0.0712  0.2207
24591SOL    HW182551   4.493   3.435  10.045 -0.4700  2.7430  3.2499
24591SOL    HW282552   4.619   3.515  10.018  0.6731 -0.1522 -1.0447
24592SOL     OW82553   1.560   7.671  10.417  0.0436  0.2160  0.3176
24592SOL    HW182554   1.601   7.753  10.390 -0.2557 -0.0578 -1.0021
24592SOL    HW282555   1.469   7.694  10.434 -0.1237  0.0866 -0.4032
24593SOL     OW82556   5.453   6.315   2.372  0.1317  0.0890 -0.4580
24593SOL    HW182557   5.425   6.241   2.319 -0.9703  0.6666 -0.7151
24593SOL    HW282558   5.372   6.349   2.410  0.8723 -0.2974  1.5999
24594SOL     OW82559   1.650   7.680   2.749  0.0246 -0.0334  0.3156
24594SOL    HW182560   1.701   7.640   2.819  1.7386  0.5427 -0.5554
24594SOL    HW282561   1.648   7.773   2.770 -0.4608 -0.0132  0.2029
24595SOL     OW82562  12.200   9.082  10.185  0.2206  0.1496 -0.3155
24595SOL    HW182563  12.113   9.116  10.167  0.4691  1.6591  1.0909
24595SOL    HW282564  12.260   9.150  10.154  0.7772  0.3758  1.1434
24596SOL     OW82565   9.395   8.461   4.525 -0.5097 -0.0301 -0.1276
24596SOL    HW182566   9.323   8.524   4.519 -0.9003 -0.3757  0.6959
24596SOL    HW282567   9.368   8.388   4.470  0.9076  1.3688 -2.8370
24597SOL     OW82568  10.446   6.043  10.794  0.6172 -0.5100 -0.4375
24597SOL    HW182569  10.393   6.095  10.855 -0.9206 -2.8813  0.3791
24597SOL    HW282570  10.397   6.046  10.712 -0.0298 -1.4752 -0.0994
24598SOL     OW82571   9.703   4.826   1.879  0.0766  0.2944 -0.5464
24598SOL    HW182572   9.673   4.743   1.841  3.4670 -1.7054  0.7197
24598SOL    HW282573   9.669   4.893   1.820 -0.6952 -2.1787 -3.1129
24599SOL     OW82574   4.939   9.522   4.849  0.1330  0.5501 -0.7776
24599SOL    HW182575   4.861   9.482   4.889  0.6926 -0.3751 -0.5982
24599SOL    HW282576   4.924   9.513   4.755  0.1103  0.1978 -0.7422
24600SOL     OW82577   9.329   9.040   4.371 -0.4336  0.7595 -0.1039
24600SOL    HW182578   9.351   9.073   4.284  1.0837 -0.6037 -0.2951
24600SOL    HW282579   9.263   9.101   4.404 -1.8086  0.7240 -2.5839
24601SOL     OW82580   8.154   3.130   2.607  0.7060  0.5169  0.0812
24601SOL    HW182581   8.244   3.145   2.577  0.8054 -0.0939  0.0631
24601SOL    HW282582   8.100   3.150   2.530  1.0001 -1.7619 -0.8121
24602SOL     OW82583   2.389   0.027   9.904 -0.3269  0.3245  0.3348
24602SOL    HW182584   2.351  -0.032   9.969 -1.8061 -1.1410 -1.7365
24602SOL    HW282585   2.319   0.089   9.884  0.8581  2.1980  1.6906
24603SOL     OW82586  12.149   2.818   6.557  0.1494  0.1905 -0.1125
24603SOL    HW182587  12.150   2.906   6.519  0.7834  0.2241 -0.0320
24603SOL    HW282588  12.135   2.759   6.483 -3.0636  0.4888  0.1457
24604SOL     OW82589  11.409   8.164   1.748 -0.3692  0.0373 -0.0409
24604SOL    HW182590  11.404   8.177   1.842 -2.1095  1.9303 -0.3177
24604SOL    HW282591  11.489   8.113   1.734 -0.6441 -1.2403  2.5068
24605SOL     OW82592   8.390   4.087   9.582 -0.0274  0.2262  0.4189
24605SOL    HW182593   8.313   4.046   9.622 -0.1115 -0.7739 -0.7127
24605SOL    HW282594   8.361   4.176   9.560 -0.8006 -0.0641  0.2203
24606SOL     OW82595   8.165   6.748   1.928  0.0164  0.1338 -0.0539
24606SOL    HW182596   8.135   6.824   1.880  2.0346 -0.2778 -2.0986
24606SOL    HW282597   8.130   6.673   1.879 -1.6775 -0.3485  1.7477
24607SOL     OW82598   7.267   7.587  10.392  0.5885  0.2330  0.0637
24607SOL    HW182599   7.316   7.580  10.310 -0.3664 -0.6560 -0.4578
24607SOL    HW282600   7.179   7.612  10.365  0.4839  0.8228  0.9053
24608SOL     OW82601   1.536   2.586   9.117 -0.8152  0.0654  0.5954
24608SOL    HW182602   1.522   2.660   9.057 -4.0524  1.2795  2.5830
24608SOL    HW282603   1.614   2.611   9.167 -0.1215  0.6647 -0.7121
24609SOL     OW82604   7.715   4.523  10.112 -0.1722  0.0965 -0.1365
24609SOL    HW182605   7.753   4.609  10.092 -0.8725  0.6865  0.9886
24609SOL    HW282606   7.704   4.482  10.026  1.2080  0.6628 -0.6313
24610SOL     OW82607   7.121   9.490  12.134 -0.3852  0.5686 -0.1220
24610SOL    HW182608   7.202   9.453  12.170  0.0082  0.6065 -0.9544
24610SOL    HW282609   7.052   9.459  12.193  0.3828  1.7671  1.4800
24611SOL     OW82610   9.698   8.293   2.919  0.4892  0.0854  0.1362
24611SOL    HW182611   9.741   8.228   2.863  0.9352  1.2552 -0.9427
24611SOL    HW282612   9.770   8.336   2.966  0.4894  1.4211 -0.9897
24612SOL     OW82613   0.740   3.739   4.977 -0.5577 -0.0014  0.7634
24612SOL    HW182614   0.829   3.750   5.011 -0.4268  0.8317  0.1800
24612SOL    HW282615   0.724   3.644   4.981  0.0089 -0.0719  1.7142
24613SOL     OW82616   7.497  10.805   1.815  0.7028  0.3288 -0.4637
24613SOL    HW182617   7.589  10.790   1.795  1.1334  2.1609 -0.0667
24613SOL    HW282618   7.462  10.847   1.737  0.2083 -0.2600 -0.5704
24614SOL     OW82619  10.636   5.352  11.006  0.2032 -0.5279 -0.7329
24614SOL    HW182620  10.672   5.437  11.032 -0.2954 -0.1608 -1.2149
24614SOL    HW282621  10.698   5.319  10.941  0.6766 -0.7800 -0.1608
24615SOL     OW82622  10.058   1.474  12.106  0.0878 -0.4583  0.0034
24615SOL    HW182623   9.981   1.454  12.160 -0.1696  0.7711  0.1220
24615SOL    HW282624  10.031   1.450  12.017  0.5225 -2.5136  0.3745
24616SOL     OW82625   6.139   5.998   7.359  0.4402  0.2295 -0.0573
24616SOL    HW182626   6.047   5.980   7.339  0.4893 -0.0638 -0.0253
24616SOL    HW282627   6.146   5.984   7.454  0.5323  0.1760 -0.0715
24617SOL     OW82628   2.846   7.694   4.142  0.2696 -0.6019  0.1028
24617SOL    HW182629   2.902   7.634   4.191  1.4760 -0.0503 -0.5711
24617SOL    HW282630   2.868   7.678   4.051 -1.8107 -1.4840 -0.3048
24618SOL     OW82631  10.569   5.823   1.914 -0.3728  0.0902 -0.3933
24618SOL    HW182632  10.515   5.902   1.918 -1.8693 -0.8793 -0.6278
24618SOL    HW282633  10.616   5.830   1.831 -1.4364  0.1860 -1.0159
24619SOL     OW82634  12.483  11.220  11.186  0.0216  0.1573 -0.5989
24619SOL    HW182635  12.411  11.279  11.209 -0.3451 -0.5357  0.0737
24619SOL    HW282636  12.474  11.209  11.091 -1.4709 -0.8111 -0.3822
24620SOL     OW82637   3.957  11.254   7.299 -0.4063 -0.6600 -0.1139
24620SOL    HW182638   4.020  11.284   7.233  0.3559  0.2058  0.9688
24620SOL    HW282639   3.972  11.160   7.305  1.0872 -0.4158  0.3984
24621SOL     OW82640   7.228   5.375   7.784  0.4984  0.5046  0.7543
24621SOL    HW182641   7.240   5.397   7.876 -0.8296 -0.5881  1.2250
24621SOL    HW282642   7.203   5.457   7.742  0.5813  0.8994  1.4651
24622SOL     OW82643  11.135   2.851  12.203 -0.1353  0.2256 -0.1907
24622SOL    HW182644  11.079   2.809  12.269 -0.2411  0.1780 -0.3090
24622SOL    HW282645  11.088   2.931  12.180  0.0862  0.4281  0.0638
24623SOL     OW82646   2.147  11.271   8.085 -0.3846  0.1365  0.3664
24623SOL    HW182647   2.240  11.256   8.099 -0.4557  1.5460  2.8659
24623SOL    HW282648   2.110  11.279   8.173 -2.8213  0.0346 -0.5611
24624SOL     OW82649   6.601   6.372  11.216 -0.6411  0.4026 -0.1624
24624SOL    HW182650   6.508   6.386  11.198 -0.9780  0.5080  1.4531
24624SOL    HW282651   6.628   6.306  11.153 -1.7511  0.5625 -0.8271
24625SOL     OW82652   8.638  12.605   6.892 -0.8228 -0.3179  0.2590
24625SOL    HW182653   8.686  12.606   6.810 -0.8578  1.5575  0.2023
24625SOL    HW282654   8.620  12.698   6.910 -3.4997 -0.8756  0.8211
24626SOL     OW82655   0.152  11.670  11.682 -0.5238 -0.7322  0.5489
24626SOL    HW182656   0.086  11.602  11.674  0.7600 -1.9132 -0.5145
24626SOL    HW282657   0.206  11.661  11.603  0.3928  0.7475  0.9584
24627SOL     OW82658   5.019   0.557   5.120  0.4227 -0.6446 -0.3715
24627SOL    HW182659   4.992   0.470   5.151  1.9032 -0.8089  0.5643
24627SOL    HW282660   4.954   0.580   5.054 -0.9088 -1.7760  0.4874
24628SOL     OW82661   0.523  11.373   3.537 -0.2184 -0.1020  0.0939
24628SOL    HW182662   0.542  11.458   3.577 -2.3218  0.3575  0.2426
24628SOL    HW282663   0.472  11.326   3.604 -1.0794 -0.5479 -0.8411
24629SOL     OW82664  10.517   4.396   0.584  0.3502 -0.0937 -0.4372
24629SOL    HW182665  10.464   4.319   0.563  1.2503 -0.3476 -1.8813
24629SOL    HW282666  10.454   4.462   0.612 -0.7000 -0.5206 -1.6989
24630SOL     OW82667   2.886   9.654   8.309  0.6899  0.5149 -0.1229
24630SOL    HW182668   2.937   9.577   8.285  0.3494  0.3494 -0.3163
24630SOL    HW282669   2.949   9.711   8.353  0.4658 -0.8779  2.2167
24631SOL     OW82670   9.199  11.582   8.070  0.6301 -0.0721  0.1618
24631SOL    HW182671   9.234  11.620   8.150 -0.4985 -1.1329  1.1850
24631SOL    HW282672   9.180  11.491   8.092  0.3131 -0.3990 -1.3189
24632SOL     OW82673   1.881  11.001   2.982 -0.2225 -0.1845  0.1004
24632SOL    HW182674   1.964  10.979   2.939  0.8943 -0.9405  2.5168
24632SOL    HW282675   1.821  10.932   2.954  0.0538  0.0713 -1.2347
24633SOL     OW82676  11.630   3.268  11.021 -0.2722  0.6853  0.5513
24633SOL    HW182677  11.717   3.270  11.061 -0.5808 -0.6603  1.3596
24633SOL    HW282678  11.646   3.245  10.930  0.1850 -0.2916  0.8656
24634SOL     OW82679   3.124  12.502   4.668  0.1458  0.4185  0.1418
24634SOL    HW182680   3.109  12.421   4.619  0.4875  0.9729 -0.9166
24634SOL    HW282681   3.063  12.565   4.630 -1.0207  0.3644  1.8044
24635SOL     OW82682   3.826   6.919   3.306  0.0716  0.5988 -0.7521
24635SOL    HW182683   3.821   6.832   3.345 -1.0955 -0.0661 -2.2420
24635SOL    HW282684   3.916   6.926   3.274  0.4898  0.4081  0.3465
24636SOL     OW82685   5.324   1.125   6.554 -0.7810  0.0839  0.5273
24636SOL    HW182686   5.368   1.040   6.561 -0.5578  0.1470 -0.0606
24636SOL    HW282687   5.396   1.188   6.543 -0.9694  0.2957  0.5030
24637SOL     OW82688   4.256   6.000   7.629 -0.2357 -0.0098  0.4359
24637SOL    HW182689   4.342   5.960   7.644 -0.2655 -0.7517 -1.1164
24637SOL    HW282690   4.200   5.962   7.696  0.5776  0.2734  1.2963
24638SOL     OW82691   6.554   0.026   9.672  0.3364 -0.3127  0.7199
24638SOL    HW182692   6.459   0.017   9.684 -0.0723 -2.4598 -2.8246
24638SOL    HW282693   6.592  -0.033   9.738 -0.7432  0.5004  2.1172
24639SOL     OW82694   5.396   5.996   4.163 -0.5325  0.1784 -0.1595
24639SOL    HW182695   5.316   6.018   4.210 -0.3385 -0.8620  0.6756
24639SOL    HW282696   5.370   5.930   4.099 -0.5870  0.7957 -0.7806
24640SOL     OW82697  12.268   5.100   0.717  0.3761  0.3402 -0.0326
24640SOL    HW182698  12.313   5.131   0.639  2.5741 -0.6222  0.7328
24640SOL    HW282699  12.229   5.017   0.691  0.0679  0.6053 -0.4153
24641SOL     OW82700   8.530   9.198  11.426 -0.2402  0.3929  0.0247
24641SOL    HW182701   8.441   9.162  11.433 -0.5411  1.2009  0.4901
24641SOL    HW282702   8.554   9.219  11.516  0.9211 -0.9570  0.0661
24642SOL     OW82703   3.985   3.513   2.842 -0.1714  0.0002  0.5955
24642SOL    HW182704   4.074   3.476   2.841 -0.7635 -1.5155 -0.6438
24642SOL    HW282705   3.991   3.591   2.788  0.9379  1.3897  2.6049
24643SOL     OW82706  11.746  11.669   7.872 -0.1929  0.1936  0.0614
24643SOL    HW182707  11.726  11.611   7.798 -1.8047 -0.2493  0.8028
24643SOL    HW282708  11.682  11.740   7.864  2.1133  2.3191 -1.1889
24644SOL     OW82709   2.214   4.780   5.230  0.3138 -0.2338  0.6787
24644SOL    HW182710   2.302   4.757   5.261  0.7511  0.9042  0.3105
24644SOL    HW282711   2.219   4.873   5.210 -0.5572 -0.4660 -0.7722
24645SOL     OW82712   4.966   7.939   2.715  0.0236  0.2615  0.2650
24645SOL    HW182713   4.886   7.932   2.662  0.2545  0.2697 -0.0926
24645SOL    HW282714   4.935   7.944   2.805 -0.3471 -0.7237  0.2082
24646SOL     OW82715   6.430   0.652   7.043  0.2690 -0.2916  1.0497
24646SOL    HW182716   6.489   0.696   6.982  2.6341 -2.9754  1.1672
24646SOL    HW282717   6.352   0.633   6.992  0.6059  0.9018  0.0305
24647SOL     OW82718   0.265   8.573   3.880  0.4682 -0.0364 -0.0655
24647SOL    HW182719   0.275   8.610   3.968  1.2260 -1.8861  0.6712
24647SOL    HW282720   0.340   8.514   3.871  1.6473  1.7224 -2.8295
24648SOL     OW82721   7.830   4.779   9.202 -0.2942 -0.0182 -0.0660
24648SOL    HW182722   7.841   4.842   9.132  0.3957 -0.2819 -0.2063
24648SOL    HW282723   7.736   4.758   9.201 -0.3334  0.1540 -0.7558
24649SOL     OW82724   2.851   3.856   5.283 -0.2408  0.1583  0.3920
24649SOL    HW182725   2.832   3.934   5.231 -0.1416 -0.2412 -0.2553
24649SOL    HW282726   2.917   3.884   5.345 -0.0443  0.5347  0.0153
24650SOL     OW82727   4.862   4.228   1.149  0.4644  0.1270  0.0105
24650SOL    HW182728   4.846   4.234   1.055 -2.4451  0.0554  0.4055
24650SOL    HW282729   4.801   4.161   1.180  1.7042 -0.2178  1.8998
24651SOL     OW82730   4.318   7.920  12.551 -0.0387 -0.1080 -0.2657
24651SOL    HW182731   4.272   8.003  12.564  0.2708 -0.0216  0.3196
24651SOL    HW282732   4.327   7.884  12.639  0.9231 -0.1681 -0.3814
24652SOL     OW82733  12.558   4.452  11.878 -0.3097 -0.3639 -0.5097
24652SOL    HW182734  12.633   4.395  11.898  1.4256  1.3371 -1.7733
24652SOL    HW282735  12.590   4.540  11.896 -2.3760  0.3664 -0.1835
24653SOL     OW82736   8.111  12.074   3.936  0.3821  0.2010 -0.1014
24653SOL    HW182737   8.131  12.119   3.854  2.1416  1.2401  0.8250
24653SOL    HW282738   8.163  11.994   3.933 -0.0804 -0.0935 -0.2872
24654SOL     OW82739   8.466  11.915   2.413 -0.3313  0.8224 -0.4145
24654SOL    HW182740   8.483  11.996   2.462  1.5649  0.1685  0.1024
24654SOL    HW282741   8.418  11.943   2.335 -2.0300  2.0862  1.0105
24655SOL     OW82742   4.405   7.029   7.176  0.1742  0.0624  0.2450
24655SOL    HW182743   4.375   6.941   7.153  0.5055  0.2143 -0.7942
24655SOL    HW282744   4.495   7.033   7.145  0.0853  0.8487  0.0632
24656SOL     OW82745   6.499  12.032  10.368  0.2041 -0.4653 -0.2101
24656SOL    HW182746   6.450  11.950  10.368 -0.8298  0.1351  0.6336
24656SOL    HW282747   6.540  12.035  10.281 -0.1402 -1.6303 -0.4290
24657SOL     OW82748   6.640   2.236   6.001 -0.2885 -0.7846 -0.5940
24657SOL    HW182749   6.732   2.260   6.003 -1.0243  2.5609 -0.8840
24657SOL    HW282750   6.638   2.145   6.031  3.0382 -0.9231 -0.4201
24658SOL     OW82751   8.547  11.562   1.683 -0.3879 -0.0153 -0.1260
24658SOL    HW182752   8.547  11.473   1.717 -0.2397 -0.2689 -0.7934
24658SOL    HW282753   8.511  11.615   1.755 -0.9676 -0.6812  0.0782
24659SOL     OW82754  11.502   8.459   2.528 -0.5096 -0.6610  0.1681
24659SOL    HW182755  11.441   8.509   2.584 -1.0309 -0.4661 -0.5556
24659SOL    HW282756  11.541   8.525   2.471 -0.8987 -1.0112 -0.5203
24660SOL     OW82757   3.497  10.369   4.244  0.1339  0.1153  0.0054
24660SOL    HW182758   3.574  10.325   4.208 -0.4918 -0.5965 -0.5123
24660SOL    HW282759   3.453  10.301   4.296 -0.5171  0.3030 -0.2917
24661SOL     OW82760   4.878  12.457   6.123  0.9431  0.3213 -0.2913
24661SOL    HW182761   4.849  12.367   6.138  0.3624  0.4731 -0.4800
24661SOL    HW282762   4.955  12.466   6.178  1.3465 -0.4670 -0.6984
24662SOL     OW82763   9.968   7.836   0.146  0.3885  0.7093 -0.0756
24662SOL    HW182764  10.062   7.855   0.149  0.6501 -0.3354 -1.0739
24662SOL    HW282765   9.941   7.858   0.057 -0.6831  2.4786  0.6234
24663SOL     OW82766   7.670   6.502  12.465  0.2107  0.3751  0.2298
24663SOL    HW182767   7.673   6.581  12.412  0.9486  1.2105  1.4669
24663SOL    HW282768   7.610   6.524  12.537  0.3985 -0.1978  0.5690
24664SOL     OW82769   4.128   3.851   1.141 -0.0154 -0.2502  0.1031
24664SOL    HW182770   4.107   3.774   1.087 -0.5018  0.8507 -1.3584
24664SOL    HW282771   4.044   3.879   1.175  0.2431 -0.7019  1.1538
24665SOL     OW82772   5.777   7.063   4.938  0.2360  0.0319  0.1220
24665SOL    HW182773   5.748   6.986   4.889 -1.0492  1.5511 -1.6573
24665SOL    HW282774   5.856   7.093   4.891 -0.3910  0.8849 -0.4157
24666SOL     OW82775  12.127   0.899   9.810  0.7871 -0.1581  0.2087
24666SOL    HW182776  12.209   0.947   9.814  0.1951  0.8370  0.8840
24666SOL    HW282777  12.063   0.957   9.853 -0.5126 -0.3791 -1.3328
24667SOL     OW82778  10.615  10.207   1.004  0.3735 -0.4079  0.4123
24667SOL    HW182779  10.581  10.148   0.936 -0.2187  0.7124 -0.2947
24667SOL    HW282780  10.630  10.150   1.079 -1.4309 -1.2616  0.1869
24668SOL     OW82781   1.648  11.710  12.492 -0.1514 -0.1017  0.2784
24668SOL    HW182782   1.679  11.800  12.506  2.8010 -0.1268 -4.1163
24668SOL    HW282783   1.646  11.672  12.580  3.3616  2.8590  1.9549
24669SOL     OW82784   1.848   5.533  12.205 -0.0222 -0.4235  0.0619
24669SOL    HW182785   1.885   5.488  12.128 -0.2253 -2.2777  0.9862
24669SOL    HW282786   1.766   5.486  12.222  0.0079 -0.0163  1.4020
24670SOL     OW82787   8.710   5.246  12.278  0.3311  0.0686  0.0688
24670SOL    HW182788   8.678   5.156  12.289 -0.7568  0.3379 -0.7115
24670SOL    HW282789   8.796   5.235  12.238 -0.3068 -0.6415 -1.2046
24671SOL     OW82790   1.036   6.960  12.171 -0.7033 -0.0677 -0.5158
24671SOL    HW182791   1.081   7.017  12.233 -1.2320 -0.8838  0.6511
24671SOL    HW282792   0.954   6.938  12.214 -2.4788  1.6580 -2.7139
24672SOL     OW82793   0.022  11.917   4.875 -0.1015 -0.4224  0.4657
24672SOL    HW182794  -0.014  12.003   4.858 -2.2346 -1.4006 -0.2602
24672SOL    HW282795   0.024  11.909   4.971  0.3566  0.4889  0.5409
24673SOL     OW82796   6.137   1.261   8.891  0.8175 -0.6742 -0.7073
24673SOL    HW182797   6.230   1.240   8.887  0.8892 -0.3005 -3.9445
24673SOL    HW282798   6.134   1.355   8.912  1.4633  0.1106 -3.6108
24674SOL     OW82799   2.753   2.289   6.519 -0.0052  0.3322  0.7357
24674SOL    HW182800   2.712   2.376   6.520  0.2436  0.4879 -0.6955
24674SOL    HW282801   2.766   2.268   6.612 -0.9410  1.4008  1.1354
24675SOL     OW82802   5.031   2.168   4.669 -0.1819 -0.0682  0.2769
24675SOL    HW182803   5.071   2.083   4.651  0.8511  0.6570 -1.0116
24675SOL    HW282804   4.940   2.158   4.640  0.2146 -0.4181 -0.9070
24676SOL     OW82805   9.030   6.209   7.094  0.0705 -0.0161 -0.6932
24676SOL    HW182806   8.971   6.163   7.034 -1.4133  0.1529  0.5811
24676SOL    HW282807   9.086   6.139   7.130 -0.7252 -0.5232 -0.4014
24677SOL     OW82808   1.108  10.667   0.680 -0.2158  0.0230 -0.1957
24677SOL    HW182809   1.054  10.667   0.601  0.3156 -2.1367 -0.6203
24677SOL    HW282810   1.191  10.628   0.652  1.7959  3.5648  0.3490
24678SOL     OW82811   1.647   5.646   2.744 -0.2448 -0.1838 -0.3861
24678SOL    HW182812   1.707   5.575   2.768  0.5915  0.1715 -1.3917
24678SOL    HW282813   1.580   5.644   2.813 -0.4709 -2.1965 -0.5817
24679SOL     OW82814   6.638  11.334   5.454 -0.4979 -0.1210  0.4488
24679SOL    HW182815   6.640  11.276   5.529 -1.5414  0.9153  1.3256
24679SOL    HW282816   6.546  11.354   5.441 -0.1282  2.2413  0.9417
24680SOL     OW82817   7.271   3.814   4.058 -0.3459  0.2534  0.4709
24680SOL    HW182818   7.209   3.835   3.988 -0.6695 -0.1746  0.6294
24680SOL    HW282819   7.270   3.892   4.114 -0.0298  0.6299 -0.0348
24681SOL     OW82820   6.384   2.647   4.720  0.8018  0.1400 -0.1976
24681SOL    HW182821   6.304   2.699   4.720  0.2701 -0.6548 -0.5068
24681SOL    HW282822   6.373   2.587   4.793 -0.5926 -2.4576 -2.3659
24682SOL     OW82823  11.539   5.116  12.383 -0.2397 -0.3010  0.3725
24682SOL    HW182824  11.536   5.189  12.445  1.4360  0.4153 -0.3174
24682SOL    HW282825  11.452   5.115  12.343 -0.4604  0.9961  0.7654
24683SOL     OW82826   3.377  10.111   4.746  0.1383  0.1477  0.4920
24683SOL    HW182827   3.437  10.037   4.749 -0.2175 -0.1400  0.5167
24683SOL    HW282828   3.290  10.072   4.732 -0.0591  0.5505  0.5678
24684SOL     OW82829   0.235   9.778   4.393  0.3350  0.2495  0.8401
24684SOL    HW182830   0.184   9.807   4.318  0.6959 -1.6689 -0.1987
24684SOL    HW282831   0.175   9.723   4.443  0.3166  0.9369  1.6056
24685SOL     OW82832   8.132   3.814   8.392  0.0115 -0.0340 -0.0167
24685SOL    HW182833   8.180   3.782   8.469 -0.1517  2.2403  1.1106
24685SOL    HW282834   8.056   3.757   8.385 -0.3709  0.1709  1.9978
24686SOL     OW82835   1.512   7.176   5.477  0.3622 -0.3140  0.0635
24686SOL    HW182836   1.576   7.175   5.407  0.8493  2.4733  0.3467
24686SOL    HW282837   1.533   7.254   5.528 -3.2967  0.8500  0.0965
24687SOL     OW82838   6.603   2.492  10.535 -0.1903 -0.0045 -0.6684
24687SOL    HW182839   6.532   2.460  10.590 -1.6081 -0.4546 -2.6476
24687SOL    HW282840   6.645   2.414  10.499 -1.4212  0.2254 -2.7657
24688SOL     OW82841   5.796   5.435   1.131 -0.0006 -0.5649 -0.2095
24688SOL    HW182842   5.715   5.473   1.165  0.1931 -0.0796 -0.2829
24688SOL    HW282843   5.771   5.348   1.101 -0.6907 -0.0831 -1.0751
24689SOL     OW82844  11.206   2.998   9.847 -0.0430  0.2221 -0.2103
24689SOL    HW182845  11.239   2.938   9.914  0.5761 -0.0407 -0.7302
24689SOL    HW282846  11.276   3.063   9.836 -0.6246  0.9211  0.2024
24690SOL     OW82847   2.938   4.014   2.491  0.3944 -0.1103 -0.5208
24690SOL    HW182848   2.954   4.107   2.505  0.3819 -0.1484 -0.2488
24690SOL    HW282849   3.011   3.970   2.535  0.2442 -0.2378 -0.3962
24691SOL     OW82850   0.900   5.574   5.518 -0.1294  0.3853  0.2691
24691SOL    HW182851   0.963   5.518   5.471  0.9769  1.2815  0.6361
24691SOL    HW282852   0.816   5.529   5.507  0.0750  0.4635 -2.4402
24692SOL     OW82853   7.759   4.908   7.862 -0.0166  0.4002  0.0081
24692SOL    HW182854   7.754   4.813   7.853 -1.1107  0.5818 -1.8974
24692SOL    HW282855   7.826   4.934   7.798  1.3865  0.8270  1.5814
24693SOL     OW82856   5.933   4.073   2.953  0.4994 -0.7327  0.1725
24693SOL    HW182857   5.837   4.072   2.961  0.4139 -0.9207 -0.8187
24693SOL    HW282858   5.953   4.164   2.930  0.4692 -0.9419 -0.6772
24694SOL     OW82859   5.872   1.618   3.649  0.3728  0.5100 -0.3649
24694SOL    HW182860   5.938   1.554   3.623  2.5321  2.4817 -0.0563
24694SOL    HW282861   5.838   1.584   3.732  0.0427 -1.1652 -1.1307
24695SOL     OW82862   2.122   2.344   9.754 -0.1559  0.4817 -0.5354
24695SOL    HW182863   2.046   2.352   9.696 -0.2135  0.3363 -0.4825
24695SOL    HW282864   2.197   2.349   9.695 -0.2281 -0.6275 -0.7599
24696SOL     OW82865   5.764   2.692  10.719  0.7050  0.2082 -0.0428
24696SOL    HW182866   5.738   2.727  10.805 -0.5357  0.7854 -0.6298
24696SOL    HW282867   5.817   2.762  10.681  1.4201 -0.1274  0.3201
24697SOL     OW82868   6.756   7.373  10.288 -0.1761  0.2808 -0.4228
24697SOL    HW182869   6.848   7.380  10.262 -0.0907  0.1465 -0.1598
24697SOL    HW282870   6.749   7.429  10.365 -0.2800  0.1714 -0.3528
24698SOL     OW82871   1.288  11.782   6.944  0.3282  0.2249  0.7164
24698SOL    HW182872   1.211  11.748   6.898 -1.3002  2.1118  1.8451
24698SOL    HW282873   1.289  11.735   7.028  0.8251 -0.2821  0.4292
24699SOL     OW82874  10.859   5.226   7.741  0.1904  0.0644  0.3774
24699SOL    HW182875  10.811   5.297   7.783  1.5373  1.2372  0.0179
24699SOL    HW282876  10.803   5.197   7.670 -0.2202  1.0204  0.3013
24700SOL     OW82877   8.258  11.976   0.828  0.4439 -0.2380 -0.0724
24700SOL    HW182878   8.230  12.028   0.903  0.3106 -0.1294 -0.1962
24700SOL    HW282879   8.279  12.040   0.760  0.5763 -0.3345 -0.1231
24701SOL     OW82880   6.198   3.013   6.267 -0.2948  0.1574 -0.1062
24701SOL    HW182881   6.288   2.985   6.250 -0.3515  0.1760 -0.4502
24701SOL    HW282882   6.145   2.938   6.242 -0.3329 -0.1227  0.8013
24702SOL     OW82883   2.991   2.358   3.230  0.6729 -0.0396  0.2454
24702SOL    HW182884   3.011   2.437   3.179 -0.5314 -0.1101 -0.3829
24702SOL    HW282885   2.915   2.320   3.186  0.8452 -1.2154  0.9173
24703SOL     OW82886   5.115   2.289   1.010  0.2920 -0.2276  0.0066
24703SOL    HW182887   5.174   2.355   1.048 -1.3432  0.4829  1.4639
24703SOL    HW282888   5.173   2.220   0.979  1.8869  0.4060  1.4144
24704SOL     OW82889   4.817   0.164  12.527  0.5659  0.5070 -0.4274
24704SOL    HW182890   4.869   0.085  12.521  0.2864  0.3619 -1.0318
24704SOL    HW282891   4.880   0.236  12.524  0.8173  0.3103  0.1072
24705SOL     OW82892   2.495   9.593   8.487 -0.4067  0.0921 -0.1626
24705SOL    HW182893   2.402   9.570   8.483 -0.3595 -0.0235 -0.6409
24705SOL    HW282894   2.529   9.573   8.400 -0.5584  2.8225 -0.9590
24706SOL     OW82895  11.383   2.727   4.569  0.4871 -0.2468 -0.0280
24706SOL    HW182896  11.356   2.741   4.478 -0.6746  0.6090  0.4326
24706SOL    HW282897  11.354   2.638   4.589 -1.2945  0.3411  0.1783
24707SOL     OW82898   3.686   2.094   0.994 -0.1581 -0.4325 -0.2847
24707SOL    HW182899   3.712   2.018   0.942 -0.6122 -0.5574 -0.3390
24707SOL    HW282900   3.604   2.067   1.037 -0.9979  0.4427 -1.2769
24708SOL     OW82901  10.268   0.955  10.633  0.6781  0.2987  0.3824
24708SOL    HW182902  10.178   0.949  10.600  1.0121  0.3476 -0.5809
24708SOL    HW282903  10.280   0.876  10.685  0.4488 -0.2861 -0.4429
24709SOL     OW82904   0.623   8.257   8.354 -0.0476  0.3172 -0.2608
24709SOL    HW182905   0.678   8.335   8.360  0.6174 -0.2447  1.4015
24709SOL    HW282906   0.685   8.184   8.353 -0.6975 -0.2398 -0.7181
24710SOL     OW82907   5.797   0.604   4.572  0.1574 -0.2539 -0.0188
24710SOL    HW182908   5.879   0.653   4.575  0.5557 -0.9228  0.2773
24710SOL    HW282909   5.810   0.531   4.633 -0.4817 -0.6314 -0.3197
24711SOL     OW82910   2.727  12.324   1.357 -0.7187 -0.1097  0.1234
24711SOL    HW182911   2.640  12.286   1.372 -0.0571 -1.8915 -0.3659
24711SOL    HW282912   2.786  12.249   1.356  0.4797  0.7854 -2.3146
24712SOL     OW82913   0.559   5.785   1.081 -0.2794 -0.4772  0.1664
24712SOL    HW182914   0.522   5.802   0.994 -0.0403 -2.6100 -0.3876
24712SOL    HW282915   0.610   5.705   1.071 -1.3673 -1.5773  2.5715
24713SOL     OW82916   3.310   3.384   9.070 -0.1480 -0.4471  0.5309
24713SOL    HW182917   3.354   3.433   9.140 -1.0216  0.0644  0.7420
24713SOL    HW282918   3.257   3.449   9.025 -2.5994 -1.4187  1.8164
24714SOL     OW82919   7.051   7.075   7.483  0.5523 -0.0776 -0.1240
24714SOL    HW182920   7.040   7.157   7.529 -1.0933 -0.7128  0.6815
24714SOL    HW282921   7.145   7.069   7.466  0.7434  1.7563  0.1453
24715SOL     OW82922   4.324   8.188   6.772  0.5212 -0.5673  0.2893
24715SOL    HW182923   4.262   8.259   6.789  0.3147 -0.7249  0.1937
24715SOL    HW282924   4.398   8.205   6.831  1.3267  0.7862 -1.0347
24716SOL     OW82925   4.199   5.011   6.184 -0.6835 -0.1425  0.5055
24716SOL    HW182926   4.270   5.038   6.241 -0.4738  0.4837 -0.0339
24716SOL    HW282927   4.235   4.941   6.131  0.0475  1.1780 -0.8234
24717SOL     OW82928  10.168   9.358   1.627  0.6814  0.2415 -0.5204
24717SOL    HW182929  10.095   9.336   1.569  0.6656 -0.1674 -0.3508
24717SOL    HW282930  10.185   9.451   1.611  1.0846 -0.0050 -1.6384
24718SOL     OW82931   8.274   0.090   5.588  0.1117  0.1107 -0.0375
24718SOL    HW182932   8.340   0.084   5.519  0.5135 -1.9342  0.4651
24718SOL    HW282933   8.321   0.064   5.668 -1.6024 -3.2215  0.0647
24719SOL     OW82934   6.945   8.407   6.906 -0.4237 -0.2211 -0.1589
24719SOL    HW182935   7.004   8.459   6.961 -0.9341 -0.1249  0.3111
24719SOL    HW282936   6.862   8.409   6.953 -0.5146 -1.2558 -0.2647
24720SOL     OW82937  11.403   9.693   3.573 -0.1120 -0.2354 -0.2196
24720SOL    HW182938  11.450   9.748   3.637  0.9030 -3.1088  1.6870
24720SOL    HW282939  11.313   9.691   3.606  0.2572 -1.1551  0.7661
24721SOL     OW82940   8.058   1.626   1.984  1.0419 -0.2782  0.6700
24721SOL    HW182941   7.967   1.649   1.965  0.6207 -1.7477  0.7451
24721SOL    HW282942   8.077   1.667   2.068  0.5752  0.3289  0.4861
24722SOL     OW82943   3.008   4.144   6.929 -0.3920 -0.0253 -0.0998
24722SOL    HW182944   3.009   4.070   6.990  2.2411  0.4363  0.5089
24722SOL    HW282945   2.972   4.107   6.848 -1.9461 -1.1797  1.0379
24723SOL     OW82946   3.491   8.854   6.224  0.1294 -0.0055 -0.0472
24723SOL    HW182947   3.497   8.895   6.137 -0.7595 -0.1424 -0.1801
24723SOL    HW282948   3.580   8.862   6.259  0.3007  0.8384 -0.6126
24724SOL     OW82949   7.119   3.375   6.569 -0.0043  0.4600 -0.2996
24724SOL    HW182950   7.196   3.330   6.534 -0.1159 -0.5359  0.6624
24724SOL    HW282951   7.085   3.426   6.496  0.8664 -0.0454 -1.0762
24725SOL     OW82952   4.069   6.261   2.550 -0.3714  0.1437  0.0659
24725SOL    HW182953   4.113   6.179   2.572  0.1836 -0.1009 -1.8225
24725SOL    HW282954   4.017   6.240   2.473 -1.0254  1.3245  0.1693
24726SOL     OW82955   5.584  12.553  10.401  0.3231 -0.1273 -0.4333
24726SOL    HW182956   5.678  12.554  10.384  0.3441  1.2574 -0.3091
24726SOL    HW282957   5.556  12.643  10.387 -0.7681 -0.2507  0.7722
24727SOL     OW82958  10.319   3.716   1.225  0.2000 -0.3483  0.4924
24727SOL    HW182959  10.369   3.789   1.259  2.1510 -1.6205  0.4996
24727SOL    HW282960  10.252   3.756   1.169  1.5586  1.4002  0.0538
24728SOL     OW82961   2.054   6.909   5.032 -0.3764  0.1790 -0.3655
24728SOL    HW182962   2.091   6.977   5.089 -0.2083  0.0944 -0.3727
24728SOL    HW282963   2.074   6.827   5.077  0.4400  0.0585 -0.9200
24729SOL     OW82964   6.938   8.729   4.678  0.4400 -0.2267 -0.1649
24729SOL    HW182965   6.849   8.741   4.644  0.3356  1.3361  0.5654
24729SOL    HW282966   6.995   8.743   4.602  0.1298  1.0274 -0.1799
24730SOL     OW82967   0.352   0.543   1.365  0.1153  0.6535  0.1974
24730SOL    HW182968   0.412   0.508   1.299 -1.3141 -0.3403 -0.6429
24730SOL    HW282969   0.311   0.619   1.322  1.0413  1.6026  0.9290
24731SOL     OW82970   6.292   4.655   5.419  0.3499 -0.5082  0.6381
24731SOL    HW182971   6.385   4.639   5.440 -0.0354 -1.5670  1.6676
24731SOL    HW282972   6.261   4.713   5.488  0.1442 -0.4904  0.5319
24732SOL     OW82973  10.611   6.220   1.218  0.1006  0.2102 -0.6001
24732SOL    HW182974  10.534   6.165   1.202  0.3722 -0.8350  1.3466
24732SOL    HW282975  10.677   6.159   1.251  0.6131  1.5920  1.0873
24733SOL     OW82976  10.050   4.023   1.698 -0.3069  0.0611 -0.3990
24733SOL    HW182977  10.024   4.008   1.789 -0.2383  0.1786 -0.3606
24733SOL    HW282978   9.972   4.058   1.656 -0.3003  0.1256 -0.3565
24734SOL     OW82979  12.128   6.981  11.451 -0.5589  0.0713  0.5125
24734SOL    HW182980  12.129   7.075  11.430  2.0665  0.3587  1.5381
24734SOL    HW282981  12.074   6.942  11.382 -0.1666  2.0984 -1.0534
24735SOL     OW82982   6.045  11.312   9.863 -0.1825 -0.6179 -0.2527
24735SOL    HW182983   6.133  11.349   9.869  0.3995 -2.1461  1.8621
24735SOL    HW282984   6.055  11.235   9.807  0.3633 -2.0148  1.6643
24736SOL     OW82985   6.732   8.880  12.147 -0.2362 -0.0554  0.5364
24736SOL    HW182986   6.696   8.849  12.230  0.1544 -0.0143  0.7251
24736SOL    HW282987   6.776   8.962  12.170 -1.4471  0.7826  0.0089
24737SOL     OW82988   7.422   2.046   3.519 -0.4476  0.3401  0.3170
24737SOL    HW182989   7.369   2.036   3.598 -0.2299 -1.4123  0.2717
24737SOL    HW282990   7.511   2.057   3.551 -0.6675  2.5933  0.3655
24738SOL     OW82991   2.240   1.600   9.616 -0.6313  0.1047  0.5808
24738SOL    HW182992   2.255   1.519   9.665 -2.4079 -0.4033  0.3659
24738SOL    HW282993   2.291   1.666   9.663 -0.3279 -0.8476  1.6412
24739SOL     OW82994   2.328   2.056   9.087 -0.0131  0.6400 -0.2476
24739SOL    HW182995   2.273   1.978   9.082 -0.2651  0.8631 -0.9930
24739SOL    HW282996   2.398   2.041   9.024 -0.4672  1.3282 -0.9333
24740SOL     OW82997  10.921   1.292   2.622 -0.1631  0.0351  0.2758
24740SOL    HW182998  10.848   1.232   2.607  0.4510 -1.1740  1.8626
24740SOL    HW282999  10.976   1.282   2.545 -1.9122  1.4413 -1.2588
24741SOL     OW83000   6.655   2.784   6.859  0.1556  0.1727 -0.1679
24741SOL    HW183001   6.713   2.727   6.807 -1.3267 -1.1930 -0.4027
24741SOL    HW283002   6.606   2.833   6.793  0.2700  0.5128  0.0024
24742SOL     OW83003  11.927   6.607   7.505  0.1875  0.0495  0.2596
24742SOL    HW183004  11.964   6.616   7.593 -0.4761 -0.9378  0.6595
24742SOL    HW283005  11.970   6.529   7.469 -0.6247 -0.4171  0.2818
24743SOL     OW83006   1.806  12.384   0.734  0.8442  0.1128  0.5279
24743SOL    HW183007   1.733  12.354   0.789  0.7929  0.5407  0.6973
24743SOL    HW283008   1.853  12.304   0.711  0.6885 -0.1004  0.9415
24744SOL     OW83009  10.759   1.928  10.391 -0.4546  0.2569  0.0485
24744SOL    HW183010  10.664   1.938  10.398 -0.3820  1.2022 -0.0786
24744SOL    HW283011  10.793   2.016  10.407  0.3219  0.1847 -1.0425
24745SOL     OW83012   6.713   1.311   1.189 -0.2019  0.0891  0.1336
24745SOL    HW183013   6.630   1.339   1.227  0.2042  0.6088  0.6466
24745SOL    HW283014   6.737   1.381   1.129  0.6420  0.7099  1.1603
24746SOL     OW83015   4.836   2.636   8.352  0.3323  0.2663 -0.2642
24746SOL    HW183016   4.849   2.544   8.372 -2.3921 -0.4769 -1.4905
24746SOL    HW283017   4.848   2.681   8.435 -3.1764 -1.7978  1.5642
24747SOL     OW83018   5.253   4.823  10.974  0.2673 -0.0786  0.1478
24747SOL    HW183019   5.222   4.793  11.059 -0.4569 -0.1273 -0.1207
24747SOL    HW283020   5.212   4.909  10.964 -2.2049 -1.2992 -1.4362
24748SOL     OW83021   4.804   0.131   0.984 -0.0099  0.9702  0.2311
24748SOL    HW183022   4.886   0.083   0.988 -0.4884 -0.0088 -0.9787
24748SOL    HW283023   4.819   0.198   0.917 -0.5829 -0.0680 -0.9854
24749SOL     OW83024   5.522  10.552   9.820 -0.3975 -0.1683  0.1591
24749SOL    HW183025   5.496  10.485   9.758  1.0045 -1.0597  0.4768
24749SOL    HW283026   5.449  10.614   9.821 -0.7586 -0.4908 -1.8266
24750SOL     OW83027   3.906   6.083   0.659  0.0531 -0.2122 -0.0064
24750SOL    HW183028   3.985   6.084   0.713  0.4564 -0.0080 -0.5890
24750SOL    HW283029   3.834   6.072   0.722  0.4697  0.5305  0.6200
24751SOL     OW83030  10.641   1.831  10.994 -0.2929 -0.0841 -0.1440
24751SOL    HW183031  10.584   1.772  11.043  0.8866 -2.3613 -1.3211
24751SOL    HW283032  10.589   1.858  10.919 -1.4458  1.8957  1.2833
24752SOL     OW83033   3.071  12.440   2.183 -0.2225 -0.8290  0.2112
24752SOL    HW183034   3.081  12.506   2.115 -2.8420 -1.6877 -1.1475
24752SOL    HW283035   3.147  12.383   2.173 -0.8313 -1.3004 -2.4932
24753SOL     OW83036   9.427   7.581   6.782  0.5883  0.4238 -0.0300
24753SOL    HW183037   9.441   7.563   6.689 -0.4177  1.8124 -0.4955
24753SOL    HW283038   9.333   7.568   6.795  0.9366 -1.1382  1.1483
24754SOL     OW83039   4.545   2.502   5.987  0.0310  0.3916 -0.1499
24754SOL    HW183040   4.545   2.470   5.897 -0.5244  1.6113 -0.6012
24754SOL    HW283041   4.474   2.567   5.990  1.6219  2.1883  0.4908
24755SOL     OW83042   2.274   6.093   6.742  0.3738 -0.2360 -0.4364
24755SOL    HW183043   2.220   6.020   6.770 -0.3910  0.0594 -1.0938
24755SOL    HW283044   2.336   6.107   6.814 -0.7008 -0.2977  0.5272
24756SOL     OW83045  10.698   3.804   1.081 -0.6975 -0.0134 -0.5672
24756SOL    HW183046  10.724   3.800   0.989 -0.2326  2.1593 -0.5759
24756SOL    HW283047  10.635   3.875   1.085 -1.0718 -0.3923  0.7264
24757SOL     OW83048   8.534   5.616   1.812 -0.3782 -0.5834  0.1561
24757SOL    HW183049   8.474   5.688   1.791 -1.1500 -1.2674 -0.0202
24757SOL    HW283050   8.481   5.556   1.864 -0.1867 -1.7492 -0.9526
24758SOL     OW83051   6.347   7.420   7.108  0.5626  1.2651  0.8092
24758SOL    HW183052   6.343   7.338   7.058  1.1387  1.0318  1.1368
24758SOL    HW283053   6.256   7.450   7.111  0.2561  0.3646  1.1173
24759SOL     OW83054   7.889   6.384   5.698 -0.0453 -0.3043 -0.4328
24759SOL    HW183055   7.884   6.416   5.788  1.3629 -0.5481 -0.2451
24759SOL    HW283056   7.954   6.441   5.656  1.1892 -1.7735 -0.5767
24760SOL     OW83057   3.258   4.233   1.885  0.5841 -0.0358 -0.2040
24760SOL    HW183058   3.288   4.154   1.931 -0.9652 -0.3281  0.3380
24760SOL    HW283059   3.247   4.204   1.794  2.2510  0.1842 -0.5252
24761SOL     OW83060   2.965   6.803  10.601 -0.2263 -0.4257 -0.0992
24761SOL    HW183061   3.060   6.796  10.590 -0.1179  0.8714 -0.1231
24761SOL    HW283062   2.930   6.733  10.546  0.7315 -1.5572  0.6731
24762SOL     OW83063   6.390   7.969  10.521  0.0217 -0.0723  0.0831
24762SOL    HW183064   6.434   7.952  10.604  0.5998  1.6481  0.1771
24762SOL    HW283065   6.297   7.976  10.543  0.0780 -0.4453  0.4419
24763SOL     OW83066   8.398   4.366   1.853  0.6135  0.1086 -0.3534
24763SOL    HW183067   8.378   4.283   1.811 -1.7713  0.3007  0.2401
24763SOL    HW283068   8.491   4.381   1.836  0.6577 -1.7765 -2.0121
24764SOL     OW83069  12.453   9.241   1.406 -0.1155  0.4619 -0.2882
24764SOL    HW183070  12.510   9.279   1.474 -1.4724  2.1089 -0.0192
24764SOL    HW283071  12.514   9.200   1.345  1.6691  4.0930 -1.2524
24765SOL     OW83072   6.606  10.130   6.646  0.3773  0.0417 -0.2831
24765SOL    HW183073   6.637  10.052   6.600  1.3920 -0.1532  0.6958
24765SOL    HW283074   6.517  10.143   6.612 -0.4252 -2.4443  0.6222
24766SOL     OW83075   8.861   2.952   0.626  0.7586  0.3605 -0.1957
24766SOL    HW183076   8.852   2.968   0.532 -0.0628  2.0045  0.1134
24766SOL    HW283077   8.777   2.913   0.652  1.8824 -2.4423 -0.5216
24767SOL     OW83078   0.013   7.957   2.454 -0.3129 -0.2818 -0.3233
24767SOL    HW183079  -0.060   7.903   2.484 -0.4795  0.1678  0.0927
24767SOL    HW283080  -0.028   8.033   2.413 -0.0846  0.0842  0.1124
24768SOL     OW83081   0.274   0.618   2.848 -0.0043 -0.8356  0.2929
24768SOL    HW183082   0.369   0.609   2.857  0.0431 -1.7988 -0.8747
24768SOL    HW283083   0.240   0.606   2.937  1.0452  1.2208  1.0373
24769SOL     OW83084   7.788   2.407  12.107  0.1442  0.3364  0.8324
24769SOL    HW183085   7.734   2.365  12.039 -0.3858  2.3168 -0.0673
24769SOL    HW283086   7.755   2.372  12.189 -2.3564  1.1854  0.2905
24770SOL     OW83087  10.423   4.293   9.454 -0.2523  0.5646 -0.2400
24770SOL    HW183088  10.392   4.210   9.416  0.8039  0.2654 -0.4755
24770SOL    HW283089  10.343   4.335   9.486 -0.7979 -0.6389  0.0724
24771SOL     OW83090   7.640   9.193   3.172  0.0161  0.8577 -0.2020
24771SOL    HW183091   7.705   9.211   3.240  0.5589  0.3973 -0.5891
24771SOL    HW283092   7.656   9.259   3.105  0.4875  0.3885 -0.5661
24772SOL     OW83093  12.205  12.133   8.234 -0.5715  0.4442  0.2705
24772SOL    HW183094  12.272  12.142   8.166  0.6854  1.2317  1.5605
24772SOL    HW283095  12.195  12.221   8.271 -0.6310 -0.1151  1.6468
24773SOL     OW83096   2.806   2.821  12.421  0.2185 -0.1914  0.6330
24773SOL    HW183097   2.741   2.778  12.364 -1.7142  0.6035  2.1429
24773SOL    HW283098   2.858   2.748  12.456  0.2616 -0.8380 -0.7000
24774SOL     OW83099   1.705   4.641   4.201  0.8616 -0.2026 -0.7498
24774SOL    HW183100   1.685   4.658   4.109  0.0895 -1.7676 -0.9058
24774SOL    HW283101   1.676   4.720   4.247  0.5432  0.2839 -1.7497
24775SOL     OW83102   3.366   9.036   5.587  0.0860  0.1554  0.0867
24775SOL    HW183103   3.274   9.033   5.562  0.0935 -0.1743  0.0852
24775SOL    HW283104   3.367   9.073   5.675 -0.1071 -0.4285  0.3427
24776SOL     OW83105   8.688  11.335   0.383  0.0913  0.1505 -0.0234
24776SOL    HW183106   8.646  11.421   0.379  0.0119  0.1190  0.1387
24776SOL    HW283107   8.677  11.298   0.295 -1.5532 -0.4940  0.4159
24777SOL     OW83108   4.740   6.014   5.909  0.4718  0.8524  0.2031
24777SOL    HW183109   4.758   6.075   5.838  0.7288  0.8739  0.2848
24777SOL    HW283110   4.777   5.931   5.878  0.4350  0.8219  0.2413
24778SOL     OW83111   6.823  11.065   3.700 -0.4842  0.4653 -0.2744
24778SOL    HW183112   6.780  11.072   3.615  1.0990 -0.8750 -1.2314
24778SOL    HW283113   6.911  11.032   3.681  0.3908  1.4083  1.7682
24779SOL     OW83114   3.483   0.709   4.588  0.2135 -0.0525  0.4259
24779SOL    HW183115   3.518   0.708   4.677  2.8972 -0.0384 -0.5487
24779SOL    HW283116   3.479   0.617   4.562 -0.1989 -0.0336  0.4119
24780SOL     OW83117   9.849   7.266   4.948  0.0855  0.6270 -0.1270
24780SOL    HW183118   9.914   7.198   4.928 -0.0475  0.6682 -0.7462
24780SOL    HW283119   9.800   7.231   5.022  1.1022  0.7980  0.6512
24781SOL     OW83120   9.239   1.418  12.600 -0.3529 -0.2397 -0.0443
24781SOL    HW183121   9.256   1.464  12.517  1.7667 -2.1466 -0.7432
24781SOL    HW283122   9.145   1.398  12.596 -0.1973 -0.7842 -2.2681
24782SOL     OW83123   4.310   7.897  10.681  0.3873  0.1559 -0.1848
24782SOL    HW183124   4.402   7.886  10.660  0.8699  0.5442  1.5217
24782SOL    HW283125   4.297   7.992  10.685  0.0450  0.1049  0.0469
24783SOL     OW83126   8.676   8.765   3.750  0.0219 -0.1562  0.3315
24783SOL    HW183127   8.606   8.808   3.701  0.6428  1.4334  0.7668
24783SOL    HW283128   8.632   8.694   3.797 -1.0759  0.0676 -0.3083
24784SOL     OW83129   6.820  10.001  11.348  0.5532 -0.2517 -0.8389
24784SOL    HW183130   6.793  10.006  11.256 -1.3690 -0.5214 -0.3391
24784SOL    HW283131   6.891   9.936  11.348  0.3144 -0.5562 -2.0788
24785SOL     OW83132   2.031   7.131   8.603 -0.3039 -0.1423  0.4601
24785SOL    HW183133   2.123   7.105   8.591 -0.0398  0.7578  0.4973
24785SOL    HW283134   1.986   7.049   8.626  0.0713 -1.0283 -1.7003
24786SOL     OW83135   7.011  12.342   5.808  0.7794 -0.4895  0.3102
24786SOL    HW183136   6.982  12.393   5.883  1.4443  0.5413 -0.1229
24786SOL    HW283137   7.040  12.258   5.845  0.7877 -0.1205  1.1525
24787SOL     OW83138   5.775   2.393   2.243  0.3533  0.6327  0.3889
24787SOL    HW183139   5.730   2.334   2.303 -0.9970 -0.5776 -1.6761
24787SOL    HW283140   5.724   2.473   2.243 -0.8773 -0.1068 -0.6179
24788SOL     OW83141   5.143   8.644  11.393  0.4325 -0.0045  0.6556
24788SOL    HW183142   5.125   8.612  11.304  2.7330  0.3566 -0.0023
24788SOL    HW283143   5.230   8.611  11.413  0.2687  0.5741  2.4971
24789SOL     OW83144  12.464   8.249   3.172 -0.4648 -0.0621 -0.0881
24789SOL    HW183145  12.460   8.157   3.144  1.0302 -0.0840 -0.3178
24789SOL    HW283146  12.442   8.299   3.093 -0.1968 -0.2020 -0.2519
24790SOL     OW83147  11.093  11.175  10.470  0.2434 -0.1273  0.5087
24790SOL    HW183148  11.117  11.242  10.534  1.6319  0.0190 -0.1138
24790SOL    HW283149  11.144  11.098  10.496 -0.4662 -0.5859  0.5555
24791SOL     OW83150  10.823   4.703   1.573  0.3987  0.0439  0.2942
24791SOL    HW183151  10.757   4.737   1.514 -0.1842  0.6489  1.2862
24791SOL    HW283152  10.906   4.738   1.539  0.0945  0.2738 -0.2225
24792SOL     OW83153   9.886   4.829   6.298 -0.2659 -0.0846 -0.2110
24792SOL    HW183154   9.962   4.884   6.277 -0.7449  0.2090 -1.2631
24792SOL    HW283155   9.876   4.773   6.222  0.0270 -1.4492  0.7254
24793SOL     OW83156   4.744   5.154  11.934 -0.0003 -0.4597 -0.2462
24793SOL    HW183157   4.714   5.107  11.856 -1.4316  1.7806 -1.1469
24793SOL    HW283158   4.802   5.222  11.900 -0.5732  0.5026  0.6209
24794SOL     OW83159  10.183  11.529   0.404  0.5349 -0.2459  0.9737
24794SOL    HW183160  10.180  11.621   0.376  2.2054  0.5199  3.0098
24794SOL    HW283161  10.103  11.518   0.456  1.1324  0.5948  2.1075
24795SOL     OW83162   9.386   2.074   4.882 -0.6906 -0.3325  0.1933
24795SOL    HW183163   9.442   2.132   4.829  0.6318  0.2245  2.1030
24795SOL    HW283164   9.345   2.132   4.946  0.3499 -1.4076  1.8918
24796SOL     OW83165   8.435   7.725   3.572  0.0351 -0.4621 -0.1606
24796SOL    HW183166   8.505   7.712   3.636 -2.5164 -1.1317  2.6872
24796SOL    HW283167   8.410   7.637   3.546 -0.1710 -0.2411 -0.7328
24797SOL     OW83168   1.906   7.196   3.633  0.5434  0.3277 -0.0109
24797SOL    HW183169   1.941   7.265   3.690 -1.1457  0.6674  0.6820
24797SOL    HW283170   1.835   7.157   3.684  0.4616 -0.8873 -1.0213
24798SOL     OW83171   1.722   1.752   5.855 -0.8168 -0.2986  0.8723
24798SOL    HW183172   1.799   1.808   5.866  0.0113 -1.4484  1.0920
24798SOL    HW283173   1.742   1.699   5.778 -1.4822 -0.4683  0.8088
24799SOL     OW83174  10.448   9.727   2.910 -0.5667 -0.0663  0.3843
24799SOL    HW183175  10.395   9.706   2.986 -0.1672 -0.8112  0.4662
24799SOL    HW283176  10.538   9.725   2.942 -0.3956 -0.3658 -0.1005
24800SOL     OW83177   9.831   1.925  12.258 -0.1103  0.0145 -0.1773
24800SOL    HW183178   9.829   1.846  12.204 -1.4752 -0.2838  0.2670
24800SOL    HW283179   9.741   1.957  12.257  0.8904  3.2720 -2.7301
24801SOL     OW83180  10.448   1.543  10.078 -0.2675 -0.3605 -0.1509
24801SOL    HW183181  10.527   1.552  10.025 -0.5710  0.3348 -0.4896
24801SOL    HW283182  10.386   1.498  10.021 -0.4668  0.0486 -0.2635
24802SOL     OW83183   6.811   8.799  10.328  0.7006 -0.0853  0.0209
24802SOL    HW183184   6.729   8.752  10.340 -0.0763  1.4263  0.9227
24802SOL    HW283185   6.815   8.818  10.235 -0.7219  1.0862  0.1633
24803SOL     OW83186   4.953   5.201  10.857 -0.0340  0.0106  0.2180
24803SOL    HW183187   4.944   5.269  10.924  0.9154  0.5579 -0.1830
24803SOL    HW283188   4.868   5.196  10.815 -0.7862 -0.6477  1.7371
24804SOL     OW83189   4.873  12.433   0.947  0.5337  0.0887  0.2276
24804SOL    HW183190   4.959  12.455   0.913  0.0341 -0.3059 -1.3941
24804SOL    HW283191   4.874  12.464   1.037  1.9696  1.1028 -0.1001
24805SOL     OW83192   8.238   4.811  10.904  0.5081 -0.0361  0.4921
24805SOL    HW183193   8.315   4.812  10.848  0.0438  2.6356 -0.2543
24805SOL    HW283194   8.225   4.903  10.929 -2.4463 -0.3459  0.5236
24806SOL     OW83195   1.647   0.922   7.195 -0.3435  0.0976 -0.2389
24806SOL    HW183196   1.558   0.927   7.228  0.2605  2.0830  1.2550
24806SOL    HW283197   1.701   0.906   7.272  0.8089  1.3270 -0.7423
24807SOL     OW83198   9.168   5.426   6.377 -0.1043  0.0059 -0.1580
24807SOL    HW183199   9.081   5.449   6.410 -0.8622 -0.6910 -1.5859
24807SOL    HW283200   9.226   5.442   6.451 -1.2230  1.9014  0.3934
24808SOL     OW83201   5.889  11.535   8.654  1.0617 -0.1383  0.1554
24808SOL    HW183202   5.861  11.619   8.617  0.5225 -0.8149 -1.0077
24808SOL    HW283203   5.943  11.560   8.729 -0.0874  1.2297  0.5746
24809SOL     OW83204   5.129   6.741   9.779  0.6301 -0.1294 -0.1311
24809SOL    HW183205   5.155   6.762   9.869 -0.4900 -1.3617  0.5133
24809SOL    HW283206   5.055   6.799   9.761 -0.3753 -1.1743  0.4719
24810SOL     OW83207   3.972  10.271   7.685 -0.7376  0.3442 -0.3396
24810SOL    HW183208   3.898  10.331   7.695 -0.6421  0.3816  0.1638
24810SOL    HW283209   4.041  10.324   7.645 -0.7286  0.5083 -0.1046
24811SOL     OW83210  12.361  11.060   3.904  0.0011  0.1673  0.4351
24811SOL    HW183211  12.333  11.013   3.826 -0.1967  0.6784  0.1923
24811SOL    HW283212  12.454  11.040   3.913  0.5944  1.8674 -1.2207
24812SOL     OW83213   3.128   1.438  11.831 -0.0835 -0.7055 -0.4213
24812SOL    HW183214   3.134   1.377  11.904 -1.2550 -0.9785 -0.5380
24812SOL    HW283215   3.156   1.388  11.755  0.4642 -0.6264 -0.2771
24813SOL     OW83216   1.944   4.216   4.495  0.3888  0.7685  0.5511
24813SOL    HW183217   2.034   4.222   4.525 -0.1179  0.0588  2.3071
24813SOL    HW283218   1.895   4.278   4.549 -0.5870 -0.7299  1.4696
24814SOL     OW83219  10.745  10.425   8.845 -0.2099 -0.8822  0.1496
24814SOL    HW183220  10.808  10.460   8.908  0.9194 -1.2463 -0.7493
24814SOL    HW283221  10.724  10.337   8.878 -0.9539 -0.4322  0.9259
24815SOL     OW83222  12.520   9.291   4.609  0.7627 -0.3529 -0.0584
24815SOL    HW183223  12.576   9.272   4.684  0.3568 -0.5149  0.2082
24815SOL    HW283224  12.531   9.216   4.551 -1.5242 -1.9531  1.3959
24816SOL     OW83225  12.196   9.785  11.941  0.0218 -0.1986  1.3685
24816SOL    HW183226  12.124   9.840  11.971 -2.0281 -1.8249 -0.2179
24816SOL    HW283227  12.235   9.834  11.868 -1.1425 -0.3732  0.6053
24817SOL     OW83228   8.520   7.968  11.084 -0.0792  0.2118 -0.0299
24817SOL    HW183229   8.435   7.992  11.121  0.9580  0.1071  2.6218
24817SOL    HW283230   8.524   7.873  11.092  0.3813  0.2371  0.0904
24818SOL     OW83231   7.648   8.314   1.381  0.3423  0.3557 -0.4458
24818SOL    HW183232   7.577   8.277   1.329 -0.4142  0.8274  0.2442
24818SOL    HW283233   7.719   8.327   1.318  0.6188 -2.1395 -0.7609
24819SOL     OW83234   2.169   1.323   8.330 -0.0023 -0.4059  0.5790
24819SOL    HW183235   2.188   1.276   8.411  0.3534 -1.5669 -0.1557
24819SOL    HW283236   2.200   1.412   8.347  2.0771 -1.1451  0.9893
24820SOL     OW83237  10.401   7.865  12.133  0.2163 -0.2796  0.0103
24820SOL    HW183238  10.457   7.851  12.057  0.8807 -0.1157  0.4595
24820SOL    HW283239  10.316   7.890  12.096  0.6052  0.0746 -0.6674
24821SOL     OW83240   2.958   0.190   9.611 -0.5010  0.0980  0.2844
24821SOL    HW183241   2.863   0.196   9.606 -0.3808  0.9768 -2.0114
24821SOL    HW283242   2.989   0.280   9.599  0.6296 -0.1952  0.8296
24822SOL     OW83243   1.732   3.436   2.378  0.2927 -0.1055  0.4030
24822SOL    HW183244   1.698   3.407   2.293 -1.8365 -0.6245  1.3682
24822SOL    HW283245   1.806   3.492   2.356  0.3159 -0.8791 -1.7628
24823SOL     OW83246   9.031   1.878   7.554 -0.3445 -0.2484 -0.4046
24823SOL    HW183247   9.075   1.954   7.592 -1.3581 -0.5362  1.4492
24823SOL    HW283248   8.946   1.875   7.597 -1.1158 -1.2895 -1.9204
24824SOL     OW83249   4.257  12.521   5.665  0.2943  0.1619 -0.0052
24824SOL    HW183250   4.280  12.460   5.735  2.0628  1.2867  0.4599
24824SOL    HW283251   4.242  12.605   5.709  1.1452  0.8237 -0.9048
24825SOL     OW83252   9.378   6.894   2.322  0.1445 -0.6419 -0.2704
24825SOL    HW183253   9.313   6.854   2.264  1.6202  0.6289 -2.9850
24825SOL    HW283254   9.332   6.969   2.360 -0.5304 -0.8252 -0.7070
24826SOL     OW83255   8.993   6.645   5.221  0.5514  0.3437 -0.5317
24826SOL    HW183256   8.957   6.723   5.178  0.6657  0.3835 -0.5553
24826SOL    HW283257   8.919   6.610   5.270  1.0474  1.7404  1.3383
24827SOL     OW83258   9.865   8.798  10.584 -0.3540  0.3880 -0.3594
24827SOL    HW183259   9.787   8.751  10.556  0.5146 -2.1088  0.9905
24827SOL    HW283260   9.933   8.770  10.522  0.3430 -0.8771  0.8953
24828SOL     OW83261   6.847   7.278   3.920  0.3383  0.2797  0.2478
24828SOL    HW183262   6.779   7.217   3.950 -0.7002  2.1992  2.0558
24828SOL    HW283263   6.818   7.304   3.833 -0.2089 -0.3851  0.2165
24829SOL     OW83264   4.729   5.665   9.653  0.1435  0.1100  0.1092
24829SOL    HW183265   4.654   5.724   9.650  0.1222  0.1248  0.8042
24829SOL    HW283266   4.725   5.617   9.570  0.4799  1.4548 -0.7100
24830SOL     OW83267  12.563   6.385   9.667 -0.1746 -0.9372  0.2989
24830SOL    HW183268  12.581   6.375   9.573  0.7157  0.4996  0.2956
24830SOL    HW283269  12.588   6.301   9.705 -2.3332 -2.2584 -0.9538
24831SOL     OW83270   9.017   1.824   8.248  0.4113 -0.2103  0.6328
24831SOL    HW183271   8.999   1.782   8.332  0.8834  0.3260  1.0091
24831SOL    HW283272   8.962   1.903   8.249  2.5308  1.3538  1.7189
24832SOL     OW83273  12.243  12.366   3.879 -0.1823 -0.1108  0.3189
24832SOL    HW183274  12.223  12.273   3.891 -0.7831 -0.0728 -0.3525
24832SOL    HW283275  12.255  12.400   3.968  0.7681 -0.9848  0.5368
24833SOL     OW83276   3.023   2.219   6.091  0.0496 -0.2959 -0.0273
24833SOL    HW183277   2.947   2.239   6.146  0.9789 -0.8473  1.5127
24833SOL    HW283278   3.078   2.162   6.145  1.2079 -0.5312 -1.3880
24834SOL     OW83279   7.042   2.973   0.577 -0.1665  0.1814 -0.4425
24834SOL    HW183280   7.137   2.985   0.586  0.0023 -1.3179  0.0188
24834SOL    HW283281   7.033   2.918   0.499 -0.8353  2.1853 -1.8657
24835SOL     OW83282   0.522   4.235  10.675 -0.1936  0.1584  0.3102
24835SOL    HW183283   0.523   4.293  10.750 -0.6491  1.0403 -0.3462
24835SOL    HW283284   0.592   4.172  10.692  1.7965  2.1794  0.0686
24836SOL     OW83285   5.118  11.971  10.397  0.6439 -0.4097 -0.3436
24836SOL    HW183286   5.077  11.906  10.453  0.3922  0.0843  0.0496
24836SOL    HW283287   5.047  12.001  10.339  0.8615 -0.7955 -0.8229
24837SOL     OW83288  11.502   0.931   4.663  0.1002  0.6099  0.0979
24837SOL    HW183289  11.444   0.866   4.623  2.7287 -0.8246 -1.6964
24837SOL    HW283290  11.447   1.009   4.675 -2.6494 -1.2738  0.4464
24838SOL     OW83291   9.014   4.675  12.235 -0.2971  0.1218  0.4957
24838SOL    HW183292   9.044   4.706  12.149  0.5218  0.5129  0.9091
24838SOL    HW283293   9.064   4.727  12.298 -0.2998 -0.7129  1.2099
24839SOL     OW83294   5.867   4.169  10.194 -0.1217 -0.1562 -0.3370
24839SOL    HW183295   5.875   4.184  10.288  2.5407 -2.7566 -0.0173
24839SOL    HW283296   5.905   4.247  10.154 -0.3244  0.5169  0.7346
24840SOL     OW83297   4.257   9.133  11.608  0.5523  0.2105  0.4232
24840SOL    HW183298   4.178   9.187  11.607  0.9590  0.8505 -1.4574
24840SOL    HW283299   4.324   9.189  11.646  0.6658  0.5888 -0.3133
24841SOL     OW83300   0.493   5.645   6.458 -0.2687 -0.8405 -0.1322
24841SOL    HW183301   0.562   5.664   6.394 -1.1075  1.1461 -0.5041
24841SOL    HW283302   0.460   5.731   6.484 -0.5567 -1.6181  2.3423
24842SOL     OW83303   0.061   9.287  11.638  0.2277  0.6766 -0.4052
24842SOL    HW183304  -0.009   9.343  11.605 -1.1094 -0.4628  0.3980
24842SOL    HW283305   0.127   9.287  11.568 -0.6764  1.5890 -1.2763
24843SOL     OW83306   3.518   0.528  10.116 -0.2607  0.2807 -0.2975
24843SOL    HW183307   3.536   0.614  10.079  4.2239 -0.2742  0.0968
24843SOL    HW283308   3.560   0.529  10.202 -0.3468 -2.1801 -0.1411
24844SOL     OW83309   1.640   6.966   7.412  0.6751 -0.4224  0.7155
24844SOL    HW183310   1.713   6.957   7.350  1.1848 -0.0102  1.2514
24844SOL    HW283311   1.621   6.877   7.441  1.4739 -0.4458  1.1613
24845SOL     OW83312   6.407  10.310  11.544 -0.0860 -0.8630 -0.5351
24845SOL    HW183313   6.482  10.305  11.604 -0.3352 -0.6370 -0.2011
24845SOL    HW283314   6.383  10.219  11.529 -0.4603 -0.9110  0.2707
24846SOL     OW83315   9.006   3.322  12.091  0.2961  0.1619 -0.1250
24846SOL    HW183316   9.091   3.296  12.057  0.7002  1.3819 -0.0899
24846SOL    HW283317   9.012   3.304  12.185  0.5482  0.3220 -0.1095
24847SOL     OW83318   2.497   8.187   5.052 -0.2720 -0.0398  0.2104
24847SOL    HW183319   2.511   8.227   5.137  0.3718 -1.2174  0.6848
24847SOL    HW283320   2.476   8.095   5.071  1.2131 -0.6676 -0.9078
24848SOL     OW83321   4.065   9.626   7.446  0.3744  0.2931  0.4688
24848SOL    HW183322   4.154   9.645   7.415  0.1346 -0.1892 -0.5643
24848SOL    HW283323   4.021   9.590   7.369  0.1182 -2.1662  1.6677
24849SOL     OW83324   3.967   3.207   9.347 -0.4957  0.2497  0.2357
24849SOL    HW183325   3.986   3.300   9.360 -1.9174  0.5384  0.3940
24849SOL    HW283326   3.872   3.203   9.336 -0.3643 -1.0857 -0.6949
24850SOL     OW83327  11.889  11.108  11.159 -0.4692 -0.3245 -0.1764
24850SOL    HW183328  11.877  11.078  11.250 -3.4512 -1.1911 -0.7349
24850SOL    HW283329  11.893  11.028  11.108  1.2744  0.1593 -0.8672
24851SOL     OW83330   3.674   3.035   8.775 -0.3815 -0.0312 -0.1646
24851SOL    HW183331   3.640   3.006   8.690  0.4188  1.1368 -0.9153
24851SOL    HW283332   3.683   2.954   8.826 -0.9576 -0.7443 -1.1573
24852SOL     OW83333   0.689   6.212  10.092 -0.8706  0.2847  0.0949
24852SOL    HW183334   0.768   6.158  10.081 -1.4848 -0.5705 -0.2449
24852SOL    HW283335   0.694   6.244  10.182  0.4135  1.1523 -0.2579
24853SOL     OW83336   5.421   4.735   7.815  0.8207 -0.3929 -0.4464
24853SOL    HW183337   5.441   4.649   7.778 -0.1258 -0.6460 -0.4149
24853SOL    HW283338   5.416   4.793   7.740 -2.0770 -1.0986 -0.9344
24854SOL     OW83339   8.125  11.985   3.425  0.2203  0.1063  0.3440
24854SOL    HW183340   8.210  11.947   3.447  0.2414  0.8262  1.6072
24854SOL    HW283341   8.071  11.909   3.402  1.0270 -0.4205  0.1355
24855SOL     OW83342   4.778  10.543   4.065  0.1981  0.2462 -0.8287
24855SOL    HW183343   4.808  10.628   4.032 -0.0854  0.5104 -0.4191
24855SOL    HW283344   4.815  10.538   4.153 -2.2362  1.3130  0.3468
24856SOL     OW83345  11.335   5.267   2.242  0.3626 -0.0132 -0.4819
24856SOL    HW183346  11.373   5.317   2.315  0.8136  2.3879 -2.2060
24856SOL    HW283347  11.278   5.203   2.283  1.6039  0.3535  2.0085
24857SOL     OW83348   2.562   0.386   2.612 -0.3672 -0.5037 -0.0270
24857SOL    HW183349   2.572   0.292   2.626  0.6984 -0.2640  0.9667
24857SOL    HW283350   2.522   0.393   2.525 -0.0025 -1.8524 -0.3316
24858SOL     OW83351  10.371  10.575   5.475  0.6255 -0.3815  0.1146
24858SOL    HW183352  10.343  10.648   5.418 -0.1694  0.8988  2.0358
24858SOL    HW283353  10.463  10.564   5.455  1.0261  1.8314  0.3987
24859SOL     OW83354   3.353  10.780   7.717 -0.3504 -0.0137 -0.2956
24859SOL    HW183355   3.345  10.700   7.667 -1.3011  0.6763 -1.3107
24859SOL    HW283356   3.446  10.802   7.715 -0.4211  0.2272 -2.1531
24860SOL     OW83357   5.551   9.776   4.043  0.0481  0.0048 -0.4179
24860SOL    HW183358   5.559   9.735   3.957 -1.5035 -2.6796  0.5703
24860SOL    HW283359   5.458   9.799   4.049 -0.2014 -1.2099  1.0133
24861SOL     OW83360   0.238  11.908   8.008  0.3457 -0.5394 -0.4527
24861SOL    HW183361   0.295  11.880   7.936  0.1747 -1.1422 -0.3534
24861SOL    HW283362   0.292  11.899   8.086  1.3601  2.3681 -0.6948
24862SOL     OW83363   5.388   2.505   0.388 -0.3855  0.0183  0.2270
24862SOL    HW183364   5.359   2.521   0.477  0.9805  0.4777  0.6213
24862SOL    HW283365   5.458   2.441   0.396  0.6478  1.0222 -0.3461
24863SOL     OW83366   5.770   6.224  10.250 -0.4032 -0.0166 -0.2348
24863SOL    HW183367   5.794   6.136  10.280 -1.0529  0.1663  0.8830
24863SOL    HW283368   5.848   6.256  10.206  1.5935  0.6016  3.3693
24864SOL     OW83369  12.190   2.244   3.268  0.0820  0.2040  0.2066
24864SOL    HW183370  12.286   2.235   3.265  0.0396 -0.2308  0.0903
24864SOL    HW283371  12.168   2.234   3.360  0.2919  1.9434  0.4890
24865SOL     OW83372  10.039   2.108   8.322 -0.3643  0.5339 -0.1076
24865SOL    HW183373  10.018   2.059   8.401 -1.1458 -0.3253 -0.8206
24865SOL    HW283374   9.957   2.151   8.298 -0.3504  0.1527 -0.8719
24866SOL     OW83375   7.647   8.220  11.438 -0.0139 -0.2459 -0.6967
24866SOL    HW183376   7.733   8.187  11.412 -0.2590 -0.2472 -1.5308
24866SOL    HW283377   7.584   8.160  11.397 -0.4293 -1.7397  1.8840
24867SOL     OW83378  10.402   6.383   0.092  0.0979 -0.0197 -0.3432
24867SOL    HW183379  10.334   6.374   0.158 -1.0707  1.6924 -1.2203
24867SOL    HW283380  10.482   6.401   0.141 -0.3241 -0.8022  0.6530
24868SOL     OW83381   4.388   1.773   5.889 -0.1516  0.0661 -0.2330
24868SOL    HW183382   4.459   1.716   5.861 -0.6495  0.0717 -1.5739
24868SOL    HW283383   4.325   1.714   5.930 -0.4611 -0.3169 -1.2203
24869SOL     OW83384   0.497  11.290   0.185  0.2824  0.2872  0.0718
24869SOL    HW183385   0.576  11.314   0.234  1.3953 -0.5148 -1.2627
24869SOL    HW283386   0.517  11.312   0.095  0.0417 -2.3076 -0.7161
24870SOL     OW83387   9.850   8.236   3.363  0.2355 -0.0082 -0.2197
24870SOL    HW183388   9.908   8.243   3.439 -0.8404  3.4284  0.4909
24870SOL    HW283389   9.888   8.295   3.298 -0.9445  0.1358 -0.8129
24871SOL     OW83390   6.641   4.807  10.642 -0.3987  0.1393 -0.0776
24871SOL    HW183391   6.547   4.797  10.661 -1.1239  0.9255 -2.7488
24871SOL    HW283392   6.666   4.888  10.686 -1.5081  0.9267 -0.8255
24872SOL     OW83393   6.617   2.064   7.847 -0.2075  0.1153  0.2070
24872SOL    HW183394   6.649   2.080   7.758  0.0593  0.6058  0.3840
24872SOL    HW283395   6.697   2.046   7.897 -0.3202  0.2237  0.4232
24873SOL     OW83396   1.579   0.217   8.886  0.0404  0.1072  0.5839
24873SOL    HW183397   1.628   0.298   8.875  0.9959 -0.5132  0.1113
24873SOL    HW283398   1.557   0.190   8.797  0.2194 -0.4345  0.6983
24874SOL     OW83399   1.313   3.471  12.191 -0.3616  0.9738  0.3234
24874SOL    HW183400   1.379   3.402  12.183 -0.8261  0.4845  0.5881
24874SOL    HW283401   1.280   3.483  12.103 -1.4089 -0.3012  0.5043
24875SOL     OW83402   3.228   1.960   1.262 -0.0229 -0.0115 -0.0353
24875SOL    HW183403   3.300   1.934   1.204  0.1201 -0.0998  0.1802
24875SOL    HW283404   3.252   2.048   1.292  1.5230 -1.1452  2.3950
24876SOL     OW83405   3.917   5.401   7.194  0.0325  0.1521  0.2245
24876SOL    HW183406   3.958   5.337   7.253 -0.4387 -0.0773  0.3083
24876SOL    HW283407   3.827   5.369   7.183  0.3183 -0.2277 -1.2199
24877SOL     OW83408  11.076  12.549  10.724 -0.5687  0.8832  0.4775
24877SOL    HW183409  11.072  12.456  10.748  0.2356  0.5038 -0.7268
24877SOL    HW283410  10.988  12.569  10.691 -0.0072 -0.2882 -1.9688
24878SOL     OW83411   7.179   3.090   8.594 -0.1855 -0.3249 -0.1135
24878SOL    HW183412   7.145   3.021   8.650 -0.3607  0.1319  0.3602
24878SOL    HW283413   7.273   3.073   8.589 -0.1289 -0.2346  0.5298
24879SOL     OW83414   8.498   7.767   0.912 -0.3357 -0.9526  0.3013
24879SOL    HW183415   8.524   7.789   0.822  0.0733 -0.7387  0.4700
24879SOL    HW283416   8.439   7.692   0.902 -1.3596 -0.1078 -0.2446
24880SOL     OW83417   2.173   9.071  10.003 -0.1220 -0.4623  0.3331
24880SOL    HW183418   2.115   9.089   9.929 -0.3249  0.3723  0.6903
24880SOL    HW283419   2.130   8.999  10.049 -0.8485  0.0955  0.5516
24881SOL     OW83420   9.888   4.452   6.540  0.1551  0.4039 -0.1134
24881SOL    HW183421   9.801   4.483   6.517  0.5501  1.7098  0.1004
24881SOL    HW283422   9.939   4.460   6.460  0.0776 -0.4696 -0.2697
24882SOL     OW83423   3.756   3.679   5.680  0.2947  0.0325  0.0936
24882SOL    HW183424   3.700   3.603   5.696  1.3333 -0.2600  2.8679
24882SOL    HW283425   3.845   3.642   5.672  0.7088  0.8777  0.6609
24883SOL     OW83426   9.456   1.696  11.696  0.2434 -0.0472  0.1752
24883SOL    HW183427   9.522   1.648  11.646  0.0856 -0.3964  0.3016
24883SOL    HW283428   9.428   1.766  11.637 -2.2154 -2.2684 -1.5521
24884SOL     OW83429   0.302   8.957   2.237 -0.0743  0.6127  0.3676
24884SOL    HW183430   0.329   8.883   2.292  1.4696  0.4355 -0.5624
24884SOL    HW283431   0.383   8.985   2.194 -1.4572 -0.4984 -3.2924
24885SOL     OW83432  11.471   0.154  10.865 -0.7624 -0.0567 -0.6151
24885SOL    HW183433  11.491   0.081  10.806  0.6711 -1.2060  1.1725
24885SOL    HW283434  11.383   0.135  10.897  0.0463 -1.7886  0.7844
24886SOL     OW83435   9.186   7.606   4.848  0.0158  0.4485 -0.2074
24886SOL    HW183436   9.261   7.554   4.821  0.3801 -0.9035  2.9750
24886SOL    HW283437   9.223   7.674   4.905 -1.0916 -0.5432  1.8183
24887SOL     OW83438   6.604  10.947   9.538 -0.6887  0.6194 -0.3528
24887SOL    HW183439   6.606  10.920   9.446 -0.9840  0.9241 -0.4486
24887SOL    HW283440   6.690  10.985   9.554 -0.3682 -0.1093 -0.2945
24888SOL     OW83441  10.611  11.685   0.010 -0.4700 -0.3550 -0.4546
24888SOL    HW183442  10.680  11.684  -0.057 -0.2850  0.8246 -0.3179
24888SOL    HW283443  10.532  11.709  -0.038 -1.0626 -2.8333 -0.8113
24889SOL     OW83444   0.210  11.270   5.364 -0.7446  0.0378  0.1068
24889SOL    HW183445   0.294  11.224   5.367 -0.5318  0.4393  0.3461
24889SOL    HW283446   0.203  11.313   5.449 -0.1915  1.7852 -0.6987
24890SOL     OW83447   0.664  11.220   7.539  0.2028  0.2853  0.8558
24890SOL    HW183448   0.647  11.126   7.534  1.7867 -0.1083  2.0599
24890SOL    HW283449   0.659  11.240   7.632  1.5726  1.0265  0.7958
24891SOL     OW83450   5.115   9.904   4.711  0.4594  0.1340  0.2824
24891SOL    HW183451   5.067   9.958   4.648 -0.6471  1.2639  2.0072
24891SOL    HW283452   5.048   9.877   4.775  1.5461 -0.8847  1.0344
24892SOL     OW83453   8.148  10.400  11.430 -0.2256  0.5752 -0.2418
24892SOL    HW183454   8.113  10.462  11.365  0.2124 -0.2948 -1.3406
24892SOL    HW283455   8.206  10.453  11.485 -0.0218  1.1983 -1.0344
24893SOL     OW83456   6.035   4.077  10.493  0.3080  0.3611  0.4082
24893SOL    HW183457   5.976   4.004  10.478 -1.6845  1.6451  1.5806
24893SOL    HW283458   6.040   4.085  10.588  2.0037  0.6186  0.3356
24894SOL     OW83459   3.613   3.689  12.468 -0.8864 -0.0993  0.3781
24894SOL    HW183460   3.606   3.603  12.511 -1.0664 -0.1860  0.1778
24894SOL    HW283461   3.706   3.709  12.472 -0.7721 -0.5288  0.0016
24895SOL     OW83462  11.069   2.210  11.856 -0.0881 -0.3511  0.6151
24895SOL    HW183463  11.134   2.280  11.859 -0.3206 -0.0274 -0.9857
24895SOL    HW283464  11.112   2.135  11.897  0.0510  0.7742  2.6466
24896SOL     OW83465   9.914   2.608   7.348  0.0203  0.0623 -0.0769
24896SOL    HW183466   9.885   2.645   7.432 -0.1737  0.3591 -0.2705
24896SOL    HW283467   9.998   2.567   7.368 -1.3526 -2.4589  0.9142
24897SOL     OW83468   5.627   0.068   3.597  0.4580 -0.3817  0.2346
24897SOL    HW183469   5.658  -0.003   3.653  0.4468 -0.1440  0.5442
24897SOL    HW283470   5.687   0.140   3.614  2.9900 -1.4860 -3.0093
24898SOL     OW83471  11.884   5.623  10.170  0.2694  0.2810 -0.5682
24898SOL    HW183472  11.842   5.664  10.245 -0.5434 -1.0931 -0.2397
24898SOL    HW283473  11.812   5.604  10.110  0.5702 -0.8966 -0.5822
24899SOL     OW83474   0.585  11.890  11.549 -0.1563  0.3377  0.0926
24899SOL    HW183475   0.651  11.829  11.516 -1.3199 -0.1896 -1.4062
24899SOL    HW283476   0.561  11.856  11.635  0.0306 -0.6942 -0.2459
24900SOL     OW83477   9.893   1.123   8.155 -0.3607  0.7694 -0.1179
24900SOL    HW183478   9.956   1.094   8.090  0.0372  0.8360  0.2328
24900SOL    HW283479   9.863   1.043   8.198  0.0269  0.7911  0.2033
24901SOL     OW83480  11.106  10.064   1.673  0.0346 -0.0008 -0.2630
24901SOL    HW183481  11.079  10.049   1.583  0.9348  2.0309 -0.9354
24901SOL    HW283482  11.033  10.114   1.711  0.0361 -0.1017 -0.1284
24902SOL     OW83483   4.856  11.517   1.844  0.4638 -0.5477 -0.3131
24902SOL    HW183484   4.813  11.432   1.849  0.9942 -0.8516 -0.9379
24902SOL    HW283485   4.870  11.533   1.751 -0.4743  0.6547 -0.2706
24903SOL     OW83486   6.934   3.959   1.519 -0.2423 -0.1556 -0.3456
24903SOL    HW183487   6.944   4.031   1.457 -1.9080  1.4444  1.1277
24903SOL    HW283488   6.860   3.909   1.487 -0.6225  0.2289 -0.0806
24904SOL     OW83489   4.034   3.463  12.261  0.0310 -0.2084 -0.1239
24904SOL    HW183490   4.123   3.497  12.269 -0.2809  1.3545 -2.1066
24904SOL    HW283491   4.045   3.372  12.235  1.3356  0.8789 -4.2989
24905SOL     OW83492   5.220   6.407   4.972 -0.4131 -0.2075  0.4139
24905SOL    HW183493   5.296   6.412   4.915  0.3670 -1.2292  1.3222
24905SOL    HW283494   5.150   6.375   4.916 -0.0878  0.3832 -0.3414
24906SOL     OW83495   7.809  11.745   5.689 -0.4863 -0.0639  0.2777
24906SOL    HW183496   7.876  11.812   5.706 -0.5743 -0.3235  1.8381
24906SOL    HW283497   7.855  11.662   5.698 -1.0675 -0.2605  1.9272
24907SOL     OW83498   3.570   8.472   3.806  0.0120  0.7026 -0.2179
24907SOL    HW183499   3.490   8.489   3.854 -0.1391 -0.2295 -0.1314
24907SOL    HW283500   3.624   8.420   3.865 -0.1389 -0.3754 -0.9952
24908SOL     OW83501  11.612  10.508   2.544  0.6923 -0.1271  0.5013
24908SOL    HW183502  11.703  10.533   2.527  0.4809  0.1464 -0.2896
24908SOL    HW283503  11.592  10.444   2.476 -0.0652  0.7038 -0.0931
24909SOL     OW83504   8.808   4.030   0.843  0.2208  0.0338 -0.3173
24909SOL    HW183505   8.799   3.935   0.838  2.1127 -0.1569 -1.0485
24909SOL    HW283506   8.821   4.048   0.936 -0.5618 -0.3466 -0.1174
24910SOL     OW83507   9.763   0.082   6.690  0.3835 -0.5858  0.1183
24910SOL    HW183508   9.824   0.040   6.629  1.2951 -0.0782  0.6576
24910SOL    HW283509   9.749   0.018   6.759  1.1486 -0.3045  0.5367
24911SOL     OW83510  10.730   9.825  11.681  0.6129 -0.3918  0.0858
24911SOL    HW183511  10.813   9.820  11.729  0.6868 -0.3076 -0.0330
24911SOL    HW283512  10.663   9.835  11.749  0.6429 -1.0653  0.2172
24912SOL     OW83513   4.176   8.242   0.740 -0.3390  0.3338 -0.1432
24912SOL    HW183514   4.180   8.152   0.709  0.0132 -0.3450  1.7105
24912SOL    HW283515   4.083   8.262   0.743 -0.5285 -0.5807  0.9623
24913SOL     OW83516   7.693  11.959   2.196 -0.7044  0.0310 -0.0737
24913SOL    HW183517   7.674  11.898   2.268  0.1079  0.3392  0.4206
24913SOL    HW283518   7.697  12.045   2.239  2.3596 -0.0513  0.0294
24914SOL     OW83519  10.796   0.256   9.988 -0.0395  0.1650 -0.3763
24914SOL    HW183520  10.710   0.287   9.958 -0.3801 -1.1819 -0.8619
24914SOL    HW283521  10.786   0.161   9.996  0.9392  0.1599  1.1597
24915SOL     OW83522   5.945   9.196   6.168  0.0108 -0.0289  0.1347
24915SOL    HW183523   5.954   9.291   6.169  0.2949 -0.0576  0.4909
24915SOL    HW283524   5.859   9.180   6.129 -0.9505  0.4571  1.9294
24916SOL     OW83525   4.591   8.126  10.900 -0.2199 -0.2246 -0.1775
24916SOL    HW183526   4.556   8.039  10.880 -0.7603 -0.1398  0.3671
24916SOL    HW283527   4.526   8.166  10.957  0.7015 -0.0163  0.7788
24917SOL     OW83528   2.656   0.635   0.861 -0.0482 -0.3489  0.5220
24917SOL    HW183529   2.701   0.693   0.800 -1.0575 -0.6712 -0.5739
24917SOL    HW283530   2.583   0.687   0.895 -0.9425 -0.9099 -0.4459
24918SOL     OW83531   2.543   5.390   0.287  0.2628 -0.0467 -0.1318
24918SOL    HW183532   2.595   5.393   0.207 -1.1164 -0.8431 -1.1054
24918SOL    HW283533   2.484   5.465   0.281  0.2438 -0.0329  0.1995
24919SOL     OW83534   7.004   3.540   0.288 -0.3171  0.5830 -0.3315
24919SOL    HW183535   7.011   3.635   0.287  0.3584  0.6080  1.4066
24919SOL    HW283536   6.929   3.520   0.232 -0.3517  2.1107 -0.8808
24920SOL     OW83537   4.043   2.690   7.543 -0.4186  0.0210 -0.2022
24920SOL    HW183538   4.071   2.702   7.634 -0.2560  2.1403 -0.4737
24920SOL    HW283539   3.953   2.724   7.541 -1.1834 -1.9075 -0.4401
24921SOL     OW83540   2.483   3.358   9.149  0.0971  0.7832 -0.4371
24921SOL    HW183541   2.465   3.264   9.135 -0.2733  1.0483 -1.9257
24921SOL    HW283542   2.576   3.361   9.171  0.0384  0.0327 -0.0293
24922SOL     OW83543   2.970   8.605   9.415 -0.0818  0.2113  0.1969
24922SOL    HW183544   2.972   8.613   9.320  2.2809 -0.1118  0.1562
24922SOL    HW283545   2.969   8.695   9.447 -1.4733  0.3185 -0.1069
24923SOL     OW83546  10.823  11.868   0.450  0.1611 -0.4143  0.1000
24923SOL    HW183547  10.747  11.835   0.402 -0.4493  0.0401  0.7221
24923SOL    HW283548  10.893  11.807   0.430 -0.1151 -0.3117 -1.2416
24924SOL     OW83549   4.873  12.415  11.545 -0.0270 -0.3030 -0.1629
24924SOL    HW183550   4.786  12.448  11.569  0.9782  2.6498 -0.2438
24924SOL    HW283551   4.888  12.448  11.457  1.7149  0.4538  0.3696
24925SOL     OW83552   2.571   3.990   2.986  0.2667  0.0648  0.0324
24925SOL    HW183553   2.604   4.002   3.076 -0.7868  0.6946  0.3596
24925SOL    HW283554   2.589   4.074   2.943 -0.6604  0.3354  0.1482
24926SOL     OW83555  10.897   2.491   0.551  0.1545 -0.1256  0.4770
24926SOL    HW183556  10.851   2.555   0.497  1.2602 -0.5907 -1.0899
24926SOL    HW283557  10.908   2.415   0.494  1.4014 -0.6288  1.3405
24927SOL     OW83558   5.951   2.901  10.673  0.1056  0.1629 -0.4761
24927SOL    HW183559   5.993   2.882  10.589 -0.1812 -0.1405 -0.5552
24927SOL    HW283560   5.949   2.996  10.677  0.3073  0.1811 -0.7208
24928SOL     OW83561   5.969   5.835   8.641  0.2858 -0.6649  0.3983
24928SOL    HW183562   6.011   5.812   8.724 -1.4522  0.7966  1.7668
24928SOL    HW283563   5.957   5.930   8.645 -1.6016 -0.8089 -0.6123
24929SOL     OW83564   5.198   7.816   1.633 -0.3163 -0.1597 -0.0820
24929SOL    HW183565   5.282   7.775   1.616 -0.5957 -0.8672  0.2006
24929SOL    HW283566   5.219   7.892   1.687  0.4574  1.4958 -2.5543
24930SOL     OW83567   0.095   9.613   6.337 -0.0663  0.2350 -0.0834
24930SOL    HW183568   0.012   9.566   6.336 -1.0022  1.7321  1.6619
24930SOL    HW283569   0.071   9.705   6.334  1.5044  0.7160  0.7086
24931SOL     OW83570  10.590   6.769  10.264  0.2461 -0.0747 -0.5015
24931SOL    HW183571  10.658   6.816  10.215  1.7723 -1.4589  0.1566
24931SOL    HW283572  10.555   6.834  10.324 -0.2833  1.1369 -2.0424
24932SOL     OW83573   8.515   4.688   6.718  0.0497  0.4801 -0.4076
24932SOL    HW183574   8.565   4.608   6.732  0.2344  0.5937 -0.4263
24932SOL    HW283575   8.424   4.663   6.738 -0.0822 -0.0641 -1.6521
24933SOL     OW83576   4.804   3.373   5.686 -0.0067  0.3386 -0.4020
24933SOL    HW183577   4.886   3.325   5.676  1.5102  2.4257  1.2019
24933SOL    HW283578   4.815   3.452   5.635 -0.7871  0.9078  0.2783
24934SOL     OW83579   5.144   9.657   9.000 -0.0798  0.0100  0.9133
24934SOL    HW183580   5.152   9.563   9.015 -0.0560  0.2248  2.3071
24934SOL    HW283581   5.149   9.696   9.086 -1.9394  1.1736  0.5654
24935SOL     OW83582  11.281   3.712   1.514  0.6763 -0.1059  0.2159
24935SOL    HW183583  11.358   3.731   1.568  1.1810 -0.8562 -0.2140
24935SOL    HW283584  11.304   3.746   1.427 -0.2531  1.3783  0.5257
24936SOL     OW83585   7.424   8.387  11.548 -0.1505 -0.1918 -0.0742
24936SOL    HW183586   7.377   8.341  11.618 -2.8431  0.7276 -1.1247
24936SOL    HW283587   7.474   8.318  11.505 -0.5376 -1.2784  1.1264
24937SOL     OW83588   3.719   5.748   4.386 -0.0816 -0.1199 -0.2353
24937SOL    HW183589   3.655   5.685   4.354  0.3782  0.8049 -3.3389
24937SOL    HW283590   3.690   5.832   4.351  1.4009  0.7462  0.5199
24938SOL     OW83591   3.206   7.089   6.016 -0.4903  0.0686  0.0269
24938SOL    HW183592   3.139   7.099   5.949  0.5084  0.8263 -0.8977
24938SOL    HW283593   3.230   6.996   6.012 -0.8211 -0.0057 -0.2932
24939SOL     OW83594   6.664   5.524  10.359 -0.3353  0.9647 -0.3903
24939SOL    HW183595   6.578   5.536  10.319 -1.3395 -1.5844  0.8247
24939SOL    HW283596   6.704   5.453  10.308  0.2515  0.8124  0.2741
24940SOL     OW83597  10.740   5.778   0.977 -0.4097  0.6647 -0.2575
24940SOL    HW183598  10.830   5.812   0.980 -0.2053  0.1200 -0.0543
24940SOL    HW283599  10.704   5.798   1.063 -0.3116  0.4363 -0.1621
24941SOL     OW83600  12.003   2.140   6.254 -0.8572  0.4194 -0.6480
24941SOL    HW183601  12.020   2.214   6.311 -3.1979 -0.2169  1.0582
24941SOL    HW283602  12.089   2.107   6.229  0.3747  0.2712  3.2058
24942SOL     OW83603  10.413   0.272   1.325  0.1844 -0.3527 -0.3268
24942SOL    HW183604  10.470   0.237   1.256 -0.1795 -2.7492  0.5198
24942SOL    HW283605  10.331   0.292   1.280  0.8328  0.8244 -1.0783
24943SOL     OW83606   2.661  11.847  11.608  0.0911 -0.6563 -0.2637
24943SOL    HW183607   2.674  11.935  11.643  0.5284 -0.8147 -0.0141
24943SOL    HW283608   2.595  11.858  11.540  0.4574 -0.0645 -0.5339
24944SOL     OW83609  10.201  11.522   5.669 -0.1824  0.1817  0.0624
24944SOL    HW183610  10.226  11.462   5.739  1.3468 -1.2919 -1.6454
24944SOL    HW283611  10.222  11.475   5.588 -0.2444  2.4718 -1.3837
24945SOL     OW83612   8.250   3.166   6.814  0.1851  0.2710 -0.1384
24945SOL    HW183613   8.180   3.121   6.861  1.5299 -1.7084  0.0876
24945SOL    HW283614   8.212   3.188   6.729 -1.2695  0.9611  0.6511
24946SOL     OW83615   4.455   4.236   3.994 -0.0268 -0.4470 -0.1985
24946SOL    HW183616   4.494   4.189   4.068 -2.3445  2.0118  2.8838
24946SOL    HW283617   4.391   4.174   3.958  1.0391 -1.6530 -0.0825
24947SOL     OW83618   1.645   9.549  12.027 -0.3949  0.1255  0.6460
24947SOL    HW183619   1.692   9.633  12.030 -0.1020 -0.0342  0.6173
24947SOL    HW283620   1.598   9.551  11.944  1.8001 -0.8783 -0.7224
24948SOL     OW83621   3.024   3.243   0.312 -0.1961  0.3540 -0.3916
24948SOL    HW183622   3.050   3.198   0.231  1.0134 -0.5640  0.4694
24948SOL    HW283623   2.935   3.211   0.328 -1.1687  1.9183 -2.2631
24949SOL     OW83624   3.404   9.144  11.363 -0.2304 -0.3025  0.4924
24949SOL    HW183625   3.363   9.085  11.300 -0.5372  2.0718 -1.7161
24949SOL    HW283626   3.334   9.165  11.425 -0.0375 -2.3786  1.4840
24950SOL     OW83627   9.537   6.225   3.830  0.8170 -0.4130 -0.1331
24950SOL    HW183628   9.551   6.222   3.925 -0.5942  1.6192  0.1891
24950SOL    HW283629   9.592   6.297   3.799 -0.1431  0.1669 -0.5492
24951SOL     OW83630   8.703   2.475   0.727  0.0983 -0.3278 -0.1507
24951SOL    HW183631   8.757   2.423   0.668 -0.1218 -0.6006 -0.1175
24951SOL    HW283632   8.731   2.565   0.713  2.3327 -0.6327  1.6806
24952SOL     OW83633   0.264   9.227   2.403  0.2294 -0.4607  0.1020
24952SOL    HW183634   0.329   9.164   2.372  0.5624 -0.3100  0.4894
24952SOL    HW283635   0.181   9.181   2.395  0.4915 -1.0334  0.5944
24953SOL     OW83636   0.508   3.413   7.422  0.2633  0.5637 -0.1551
24953SOL    HW183637   0.564   3.336   7.428 -0.9191 -0.4811 -1.7202
24953SOL    HW283638   0.522   3.448   7.334 -0.3477  1.2286 -0.0104
24954SOL     OW83639   5.268   2.404  12.318 -0.4825 -0.2339 -0.6800
24954SOL    HW183640   5.189   2.357  12.346  0.0365 -1.0983 -0.6412
24954SOL    HW283641   5.324   2.336  12.280  0.8128  0.1307  0.5052
24955SOL     OW83642   4.363   4.230   3.379 -0.3752  0.1397  0.2765
24955SOL    HW183643   4.417   4.301   3.411  2.3861 -1.6378 -0.0649
24955SOL    HW283644   4.394   4.215   3.289 -0.4115 -1.8321  0.5383
24956SOL     OW83645  11.738   2.241   8.047 -0.4243  0.3446 -0.0755
24956SOL    HW183646  11.722   2.239   8.142 -1.1689  2.2562 -0.1218
24956SOL    HW283647  11.830   2.219   8.038 -0.7187 -1.4704  0.9552
24957SOL     OW83648   4.499  12.548   6.135  0.2062  0.5390  0.1492
24957SOL    HW183649   4.529  12.458   6.121  0.8941  0.6614  0.7878
24957SOL    HW283650   4.504  12.588   6.048  0.9726  0.2726  0.0611
24958SOL     OW83651   6.916   3.056   4.293 -0.0587  0.4763 -0.1522
24958SOL    HW183652   6.980   3.003   4.341 -0.6560 -0.1330 -0.0154
24958SOL    HW283653   6.866   2.992   4.242 -0.2091  1.0008 -0.6792
24959SOL     OW83654   3.968   8.406   5.068  0.3330 -0.2714 -0.2990
24959SOL    HW183655   3.904   8.338   5.046  0.1854  0.1882 -1.3412
24959SOL    HW283656   4.052   8.359   5.074 -0.0161 -0.8033  0.6407
24960SOL     OW83657   7.738   3.077   7.715 -0.1737  0.2426 -0.0980
24960SOL    HW183658   7.667   3.028   7.758 -0.5616  0.8114 -0.0822
24960SOL    HW283659   7.802   3.093   7.785 -0.4823  0.5658  0.1159
24961SOL     OW83660   4.601   2.873   8.037 -0.2892 -0.5213 -0.0972
24961SOL    HW183661   4.644   2.953   8.008 -0.3478 -0.9831 -1.4903
24961SOL    HW283662   4.517   2.873   7.991 -1.0973 -0.4845  1.2998
24962SOL     OW83663   2.197  11.883   3.819 -0.1212 -0.3357  0.0295
24962SOL    HW183664   2.210  11.956   3.759 -1.5073  0.2722  0.4378
24962SOL    HW283665   2.125  11.833   3.781  1.2141 -1.8895 -0.5813
24963SOL     OW83666   1.921  10.276   6.522 -0.4986  0.7077  0.0934
24963SOL    HW183667   1.920  10.200   6.464 -1.2108 -0.3264  1.3944
24963SOL    HW283668   1.988  10.254   6.588 -0.2203  1.5286  0.1022
24964SOL     OW83669   9.347  10.464   1.747  1.0361  0.3582 -0.1458
24964SOL    HW183670   9.400  10.542   1.766 -0.4038  1.8650 -1.8768
24964SOL    HW283671   9.330  10.470   1.653 -1.1025 -0.7603  0.1193
24965SOL     OW83672   1.635   9.958   4.093  0.3379  0.8248 -0.1279
24965SOL    HW183673   1.669   9.934   4.007  1.3516  0.9689  0.2260
24965SOL    HW283674   1.569   9.892   4.113 -1.7623  2.1570 -2.1073
24966SOL     OW83675   7.149   6.722   0.483  0.1730  0.6018  0.3924
24966SOL    HW183676   7.223   6.782   0.493  0.4769  0.4972 -0.9809
24966SOL    HW283677   7.138   6.682   0.569  0.1642  2.3735  1.2670
24967SOL     OW83678   8.541   8.146   0.962  0.1806 -0.0416 -0.0548
24967SOL    HW183679   8.556   8.060   1.003 -0.9600 -0.8303 -1.1827
24967SOL    HW283680   8.557   8.209   1.032 -1.0521 -1.2984  1.4481
24968SOL     OW83681   4.737   5.764  12.604  0.4095  0.6738 -0.9179
24968SOL    HW183682   4.826   5.789  12.627  0.3666 -2.7881  4.9861
24968SOL    HW283683   4.747   5.685  12.551  0.9952 -0.2408  0.5004
24969SOL     OW83684   0.648   2.573   0.286 -0.5187 -0.1124 -0.2472
24969SOL    HW183685   0.683   2.567   0.197  0.3867  4.3487 -0.4419
24969SOL    HW283686   0.725   2.578   0.342 -1.0546 -0.5664  0.5449
24970SOL     OW83687   0.258   0.306   5.770 -0.1317  0.1798 -0.1065
24970SOL    HW183688   0.235   0.374   5.707  2.1366  1.6895  0.5948
24970SOL    HW283689   0.339   0.337   5.811 -1.0832 -1.1216  3.0156
24971SOL     OW83690   2.887   3.206   9.317 -0.1671  0.2085 -0.2315
24971SOL    HW183691   2.967   3.249   9.290 -0.9658  1.1598 -1.1645
24971SOL    HW283692   2.912   3.153   9.393  0.7955  2.6393  1.2580
24972SOL     OW83693   9.408   4.489   0.274  0.2660 -0.8544  0.4144
24972SOL    HW183694   9.387   4.523   0.361  1.9488  1.2060  0.0908
24972SOL    HW283695   9.322   4.478   0.232 -0.5261 -0.9468  1.9801
24973SOL     OW83696   5.611   1.705   2.012 -0.1486 -0.1145 -0.2212
24973SOL    HW183697   5.612   1.800   2.001  0.0810 -0.0374  0.4134
24973SOL    HW283698   5.579   1.671   1.929 -1.5228  0.5850  0.0022
24974SOL     OW83699   9.295   8.414   6.477  0.2689  0.1978 -0.4871
24974SOL    HW183700   9.379   8.393   6.435  0.2305  0.1933 -0.5618
24974SOL    HW283701   9.259   8.484   6.423  0.1138  0.0370 -0.5909
24975SOL     OW83702   5.352   3.267   4.642  0.1172 -0.8312  0.6921
24975SOL    HW183703   5.328   3.360   4.646  0.8837 -0.5820 -0.2163
24975SOL    HW283704   5.268   3.221   4.644 -0.3426 -0.0592 -0.2142
24976SOL     OW83705   3.085   0.426   9.095  0.0744 -0.5259  0.3233
24976SOL    HW183706   3.127   0.369   9.030 -0.4099 -1.0325  0.4440
24976SOL    HW283707   2.999   0.445   9.057  0.6675  1.1328 -0.2851
24977SOL     OW83708   6.864  11.757   5.845 -0.5567  0.5683 -0.1545
24977SOL    HW183709   6.867  11.675   5.795  1.5236  0.5196 -0.0634
24977SOL    HW283710   6.852  11.729   5.936  2.8614  0.0316  0.2778
24978SOL     OW83711   7.292   7.869   1.471 -0.2528  0.4120 -0.0031
24978SOL    HW183712   7.343   7.871   1.552  1.0547 -1.2565 -0.7190
24978SOL    HW283713   7.225   7.802   1.487  0.2630 -0.2123 -0.4278
24979SOL     OW83714   9.138   5.294   2.339  0.1602 -0.1719 -0.2870
24979SOL    HW183715   9.141   5.356   2.265  0.5547 -1.9837 -1.8661
24979SOL    HW283716   9.064   5.237   2.318 -0.3894 -0.0788  1.3046
24980SOL     OW83717   7.375   5.910   9.200  0.0287  0.1870 -0.0316
24980SOL    HW183718   7.354   5.845   9.268 -0.0974 -1.5529 -1.6429
24980SOL    HW283719   7.327   5.988   9.226  1.6945  0.3454  3.0141
24981SOL     OW83720   1.043  11.691  12.012 -0.4231  0.3875  0.3784
24981SOL    HW183721   1.081  11.778  12.015 -0.7462  0.5140  0.8894
24981SOL    HW283722   0.949  11.705  12.027 -0.3742 -0.1069  1.2102
24982SOL     OW83723   7.434   0.550   3.672 -0.0637 -0.2637 -0.1506
24982SOL    HW183724   7.528   0.538   3.665 -0.0948 -0.3957 -0.3612
24982SOL    HW283725   7.401   0.531   3.584 -0.0511  2.0456 -0.7303
24983SOL     OW83726   1.572   3.748   5.340 -0.3976  0.8658  0.2533
24983SOL    HW183727   1.635   3.722   5.273 -1.0113 -1.1394  0.3963
24983SOL    HW283728   1.611   3.826   5.381  2.4184 -0.7669  0.9210
24984SOL     OW83729   4.277  12.153  10.180 -0.3932  0.1382 -0.2973
24984SOL    HW183730   4.210  12.152  10.111  0.6138 -1.7213 -1.3470
24984SOL    HW283731   4.344  12.091  10.149  0.7938  0.3276  1.7040
24985SOL     OW83732   5.478   6.514   5.813  0.0070 -0.2132  0.0339
24985SOL    HW183733   5.446   6.437   5.860  1.6391 -0.9721 -0.0101
24985SOL    HW283734   5.559   6.484   5.772 -0.8025  0.7120 -2.4161
24986SOL     OW83735   3.967   4.248   1.983  0.9762  0.2107  0.7258
24986SOL    HW183736   3.999   4.312   1.918 -0.1744 -0.6877 -0.7936
24986SOL    HW283737   4.041   4.189   1.996  1.8962  1.5181  1.7896
24987SOL     OW83738   8.116   9.100   7.615 -0.0786  0.1541 -0.1289
24987SOL    HW183739   8.196   9.054   7.592  0.8398  2.1174 -1.0324
24987SOL    HW283740   8.136   9.146   7.696 -0.0318  1.2147 -0.7253
24988SOL     OW83741   5.130  12.318   3.884  0.0044  0.2191 -0.4901
24988SOL    HW183742   5.115  12.361   3.969  0.4962 -0.6058  0.0253
24988SOL    HW283743   5.225  12.309   3.878 -0.0673 -0.3549 -0.8129
24989SOL     OW83744  10.801   1.778   1.473 -0.3963  0.6063  0.6331
24989SOL    HW183745  10.712   1.784   1.507 -0.4701  0.4330  0.4736
24989SOL    HW283746  10.852   1.742   1.545 -1.0431 -2.2774 -0.2319
24990SOL     OW83747   3.686   4.117  11.288 -0.8171  0.0211  0.0520
24990SOL    HW183748   3.624   4.044  11.285  0.2263 -1.0215  1.7056
24990SOL    HW283749   3.633   4.194  11.306 -1.7840 -0.5934 -0.1283
24991SOL     OW83750  12.411   5.325   6.668  0.1504 -0.0141 -0.2492
24991SOL    HW183751  12.399   5.261   6.597 -0.8458  0.0345 -0.1449
24991SOL    HW283752  12.452   5.400   6.626  0.2560 -0.2761 -0.6244
24992SOL     OW83753  10.890   6.485   1.230 -0.1386  0.4458 -0.2611
24992SOL    HW183754  10.871   6.413   1.291  0.0819  0.5669 -0.0464
24992SOL    HW283755  10.984   6.481   1.217 -0.3067 -0.2223 -1.4083
24993SOL     OW83756   0.452   3.471  10.555  0.2881 -0.0647 -0.2102
24993SOL    HW183757   0.413   3.559  10.559 -0.1583 -0.2629 -0.1620
24993SOL    HW283758   0.404   3.422  10.622 -1.0631 -0.9880 -1.7931
24994SOL     OW83759   0.012   2.168   9.959 -0.3099 -0.0071  0.7166
24994SOL    HW183760   0.008   2.192  10.051 -2.0687  1.3652  0.3197
24994SOL    HW283761  -0.028   2.242   9.913  1.6259 -0.0860 -1.2785
24995SOL     OW83762   0.209   1.352   7.614 -0.0645 -0.3640  0.2230
24995SOL    HW183763   0.193   1.333   7.522  0.7580  3.4997 -0.9218
24995SOL    HW283764   0.303   1.369   7.619 -0.4200  1.6717  1.1925
24996SOL     OW83765   4.014  12.141   4.504  0.2394  0.2007 -0.4677
24996SOL    HW183766   4.053  12.134   4.591  0.3703  0.5139 -0.5006
24996SOL    HW283767   4.085  12.171   4.448  0.1444  0.0411 -0.6765
24997SOL     OW83768   7.443   2.707   4.848 -0.2084 -0.4927  0.5137
24997SOL    HW183769   7.498   2.709   4.926  1.7954 -1.7000 -0.7797
24997SOL    HW283770   7.400   2.622   4.850 -1.1402 -0.0228  0.9185
24998SOL     OW83771   9.852  11.624   5.786  0.2296 -0.2513  0.2106
24998SOL    HW183772   9.792  11.677   5.733 -1.0455 -1.0098  0.8228
24998SOL    HW283773   9.809  11.620   5.872  1.4712 -0.3415  0.8383
24999SOL     OW83774   8.343   0.488   2.982  0.4082  0.0735 -0.1327
24999SOL    HW183775   8.428   0.534   2.983 -0.1132  1.0569  0.1138
24999SOL    HW283776   8.278   0.558   2.988 -0.3997 -0.7407  1.1026
25000SOL     OW83777   1.584  10.688  10.007 -0.3269  0.0615 -0.3832
25000SOL    HW183778   1.674  10.672  10.032  0.1008 -1.1843 -2.4445
25000SOL    HW283779   1.581  10.780   9.982  0.2052  0.2565  0.2612
25001SOL     OW83780   7.634   8.633   2.604 -0.4253  0.4395  0.3695
25001SOL    HW183781   7.636   8.629   2.699 -0.2736  0.6272  0.3760
25001SOL    HW283782   7.567   8.570   2.578 -0.3006  0.2155  0.5891
25002SOL     OW83783   1.487   2.587   1.347 -0.1341 -0.0001 -0.6995
25002SOL    HW183784   1.558   2.585   1.284  0.3729 -0.0217 -0.1399
25002SOL    HW283785   1.446   2.673   1.334  1.6113  1.1130  0.6948
25003SOL     OW83786   8.705   4.725   4.164 -0.0447  0.0333 -0.3272
25003SOL    HW183787   8.624   4.688   4.200  1.1060 -0.7683  1.5624
25003SOL    HW283788   8.760   4.742   4.240  1.7937  0.0545 -1.5956
25004SOL     OW83789   6.793   0.434   1.813 -0.5269  0.1702  0.0283
25004SOL    HW183790   6.877   0.452   1.855 -0.1074 -0.5846 -0.4710
25004SOL    HW283791   6.751   0.519   1.806 -0.2172  0.4305  1.1547
25005SOL     OW83792   7.479   6.872   4.227 -0.3021 -0.1211  0.1709
25005SOL    HW183793   7.510   6.948   4.276 -0.5529 -0.2676  0.5659
25005SOL    HW283794   7.423   6.909   4.158 -1.2834  0.0062  1.0088
25006SOL     OW83795   1.725   4.290   5.892 -0.0882  0.0864  0.7597
25006SOL    HW183796   1.691   4.334   5.970 -0.2036 -1.7446  1.8009
25006SOL    HW283797   1.764   4.360   5.840 -2.0228  1.6953  1.3678
25007SOL     OW83798   3.161   9.793   9.250  0.4323 -0.1415 -0.2767
25007SOL    HW183799   3.102   9.856   9.208  0.8400  0.2010 -0.3433
25007SOL    HW283800   3.147   9.806   9.344  0.7075  0.2388 -0.2846
25008SOL     OW83801   9.772   6.184   5.651  0.4419  0.0374 -0.0458
25008SOL    HW183802   9.836   6.253   5.668 -0.2245  1.2983 -2.2441
25008SOL    HW283803   9.824   6.110   5.621  0.9891  0.5328 -0.3397
25009SOL     OW83804  10.334   3.881   4.868 -0.1004 -0.5366 -0.0678
25009SOL    HW183805  10.367   3.797   4.835  0.0962 -0.8284  0.8406
25009SOL    HW283806  10.326   3.868   4.962 -1.6784 -0.0862 -0.1101
25010SOL     OW83807  12.531   0.975  10.648  0.5548  0.1443 -0.1500
25010SOL    HW183808  12.462   0.910  10.635  0.3851 -0.0609  1.6403
25010SOL    HW283809  12.495   1.055  10.610 -0.2894 -0.1878 -0.0788
25011SOL     OW83810   9.375   6.515   3.333  1.0660  0.0140  0.6132
25011SOL    HW183811   9.357   6.491   3.242 -0.2980 -0.5976  1.0075
25011SOL    HW283812   9.334   6.601   3.344 -0.4887 -0.7533  1.1321
25012SOL     OW83813   4.866  11.164   3.694 -0.2111 -0.5962 -0.6757
25012SOL    HW183814   4.830  11.075   3.687  1.3329 -1.2978 -0.1986
25012SOL    HW283815   4.860  11.199   3.606 -2.3902 -0.5082 -0.5469
25013SOL     OW83816   7.200   5.230   6.888  0.5597 -0.3943 -0.0679
25013SOL    HW183817   7.163   5.318   6.876 -0.3507 -0.3089  2.8200
25013SOL    HW283818   7.148   5.191   6.958  0.8717 -3.3348 -1.3244
25014SOL     OW83819   4.612   7.599   3.304  0.3576  0.2177 -0.1858
25014SOL    HW183820   4.658   7.559   3.230 -0.4599 -1.0710 -0.0146
25014SOL    HW283821   4.584   7.684   3.271 -0.4275 -0.5386 -1.5537
25015SOL     OW83822   9.438   1.498   5.270  0.4536  0.3282 -0.2006
25015SOL    HW183823   9.475   1.586   5.272 -2.6436  1.7607 -0.6950
25015SOL    HW283824   9.423   1.476   5.362  4.1163 -1.1440  0.1898
25016SOL     OW83825   9.629   2.047   3.059  0.2233 -0.0388  0.3664
25016SOL    HW183826   9.645   2.137   3.087 -0.1444  0.5314 -1.1218
25016SOL    HW283827   9.682   1.993   3.117  1.4260  1.2277  0.4986
25017SOL     OW83828   9.998  11.709   6.128  0.4712 -0.2727 -0.1036
25017SOL    HW183829  10.032  11.760   6.201  2.6666 -1.1136 -0.4783
25017SOL    HW283830   9.947  11.639   6.170 -2.7429  2.1314  0.4104
25018SOL     OW83831   4.085  11.222   3.785  0.1382 -0.1917 -0.3168
25018SOL    HW183832   3.997  11.203   3.752  0.0225  0.0803 -0.1630
25018SOL    HW283833   4.119  11.137   3.813 -0.3654 -0.1827  0.3272
25019SOL     OW83834   0.246  10.708   7.523 -0.1165 -0.2841 -0.0630
25019SOL    HW183835   0.315  10.653   7.562  0.2881 -0.0000 -0.3639
25019SOL    HW283836   0.230  10.776   7.589  0.2035 -0.0996 -0.1735
25020SOL     OW83837   8.868   7.434   5.838  0.6876 -0.3408  0.3769
25020SOL    HW183838   8.856   7.529   5.829  1.7006 -0.0607  1.6715
25020SOL    HW283839   8.811   7.396   5.771 -0.3686  1.1536  0.3830
25021SOL     OW83840   5.395   6.441   1.288 -0.5648 -0.5259 -0.0386
25021SOL    HW183841   5.402   6.350   1.260 -0.3709 -0.2818 -0.8344
25021SOL    HW283842   5.367   6.437   1.379 -0.8886 -1.3739 -0.1682
25022SOL     OW83843  12.052   5.333   9.360  0.1597  0.7281 -0.7338
25022SOL    HW183844  11.964   5.332   9.398  1.2249  0.8786  1.9577
25022SOL    HW283845  12.056   5.255   9.305 -1.6621  0.7900 -1.0061
25023SOL     OW83846   1.151   9.080   8.188  0.0846 -0.0932  0.4132
25023SOL    HW183847   1.169   8.986   8.195  0.2108 -0.3064 -2.0079
25023SOL    HW283848   1.075   9.086   8.131  0.3318  1.2919  0.1903
25024SOL     OW83849   6.704   4.422   5.530  0.1305  0.1078  0.0432
25024SOL    HW183850   6.710   4.375   5.612  0.3383 -0.3572 -0.2343
25024SOL    HW283851   6.675   4.357   5.466  0.8388  0.2373 -0.4313
25025SOL     OW83852   0.632   2.146   2.747  0.0183  0.2083 -0.2701
25025SOL    HW183853   0.704   2.084   2.739 -0.1945 -0.0275 -0.4104
25025SOL    HW283854   0.649   2.212   2.680 -0.3671 -0.3345 -0.9153
25026SOL     OW83855   5.861   7.233  12.199  0.6314  0.5757 -0.3300
25026SOL    HW183856   5.883   7.140  12.197  0.4218  0.5310 -2.3724
25026SOL    HW283857   5.799   7.241  12.272  1.6958 -0.6039  0.7597
25027SOL     OW83858   4.492   1.812   5.213  0.0547 -0.2969 -0.0507
25027SOL    HW183859   4.469   1.865   5.136  0.1841  1.4245  1.0550
25027SOL    HW283860   4.566   1.857   5.252  1.0204 -2.0368  0.2415
25028SOL     OW83861   5.013   3.136   5.193 -0.1581 -0.5027  0.3435
25028SOL    HW183862   5.067   3.092   5.128  1.5893  1.3642  0.4475
25028SOL    HW283863   5.066   3.210   5.223 -2.7270  1.3996  0.5141
25029SOL     OW83864   0.125   5.676  12.526 -0.8482 -0.7884  0.2271
25029SOL    HW183865   0.204   5.731  12.516 -1.1452 -0.6005 -1.3264
25029SOL    HW283866   0.070   5.700  12.451 -1.3367 -2.6459 -0.0467
25030SOL     OW83867   2.362   2.797   6.168 -0.0823  0.5660 -0.7205
25030SOL    HW183868   2.291   2.825   6.109 -0.8215  1.1912  0.4248
25030SOL    HW283869   2.363   2.863   6.237 -0.7654 -1.2923  1.1862
25031SOL     OW83870   9.544   3.617   1.227 -0.7502 -0.1714 -0.4131
25031SOL    HW183871   9.480   3.678   1.262 -0.4967  0.3075 -0.7807
25031SOL    HW283872   9.491   3.549   1.184 -1.0564 -0.7457  0.8480
25032SOL     OW83873   2.872   9.672   6.739 -0.3328 -0.0079  0.1599
25032SOL    HW183874   2.960   9.669   6.777  0.0842 -0.0469 -0.7922
25032SOL    HW283875   2.866   9.592   6.687 -1.2419 -0.4212  0.8680
25033SOL     OW83876   6.926  11.944   4.543  0.3526  0.0564 -0.2037
25033SOL    HW183877   6.837  11.926   4.512 -0.4274  0.9458  1.3938
25033SOL    HW283878   6.926  12.038   4.561  0.5248 -0.4366  2.9482
25034SOL     OW83879  10.221   3.295   3.238 -0.0396 -0.1075 -0.0151
25034SOL    HW183880  10.247   3.308   3.147  1.4458 -2.9181 -0.1286
25034SOL    HW283881  10.181   3.377   3.265  0.4153  1.1461 -2.8831
25035SOL     OW83882   9.359   2.332   8.960  1.0271 -0.1187 -0.0680
25035SOL    HW183883   9.316   2.406   8.918 -1.9775 -2.7048 -2.0796
25035SOL    HW283884   9.306   2.315   9.038 -1.3367 -2.7180 -2.0307
25036SOL     OW83885   3.979   7.074  10.682  0.1473  0.2020  0.4775
25036SOL    HW183886   4.005   7.165  10.669  0.0375 -0.0730 -2.0550
25036SOL    HW283887   3.894   7.079  10.725  0.2141  1.2823  0.5044
25037SOL     OW83888   3.868   6.320   6.051 -0.4333 -0.3925 -0.5283
25037SOL    HW183889   3.935   6.313   6.119 -1.2294  0.7536  0.4267
25037SOL    HW283890   3.911   6.368   5.980 -0.0570 -0.1652 -0.1545
25038SOL     OW83891   0.205   3.766   3.148  0.2210  0.4045  0.0655
25038SOL    HW183892   0.275   3.831   3.148 -0.4648  1.1421  0.3082
25038SOL    HW283893   0.171   3.766   3.237  1.3233 -1.5187  0.5518
25039SOL     OW83894   4.576   8.365   6.147 -0.1442 -0.4081  0.3858
25039SOL    HW183895   4.615   8.451   6.160 -0.2011  0.4373 -3.8821
25039SOL    HW283896   4.626   8.308   6.205  1.4239  2.0743  1.6699
25040SOL     OW83897   3.385   9.673   5.385  0.0197 -0.4486  0.3232
25040SOL    HW183898   3.470   9.711   5.409  1.5186 -0.4700 -4.0371
25040SOL    HW283899   3.321   9.726   5.432  2.3286  1.6960  1.3108
25041SOL     OW83900   6.624  12.128   3.401 -0.3086 -0.8546 -0.1186
25041SOL    HW183901   6.540  12.146   3.444 -1.1434 -2.9135 -0.7608
25041SOL    HW283902   6.683  12.106   3.473 -0.9941 -1.7464  0.1875
25042SOL     OW83903   2.596  10.382   0.681  0.3270  0.2971 -0.7228
25042SOL    HW183904   2.612  10.288   0.693 -1.5922  0.0508  0.2108
25042SOL    HW283905   2.538  10.406   0.753  0.5333  2.1583 -1.1283
25043SOL     OW83906   9.527   4.470   2.044 -0.4714 -0.0802  0.3194
25043SOL    HW183907   9.605   4.426   2.079 -0.1938  0.1103 -0.0505
25043SOL    HW283908   9.461   4.461   2.113 -0.2413 -0.5823  0.4780
25044SOL     OW83909   4.412   3.846   3.986  0.4985  0.1791 -0.1905
25044SOL    HW183910   4.402   3.905   3.912  2.1932  1.2747  0.4068
25044SOL    HW283911   4.494   3.799   3.969 -0.3996 -1.4649 -0.2484
25045SOL     OW83912  12.607   9.736   3.898  0.0740  0.9508  0.1736
25045SOL    HW183913  12.681   9.797   3.901 -0.0807  1.1579 -0.0919
25045SOL    HW283914  12.538   9.785   3.853 -0.1148  0.6430  0.1248
25046SOL     OW83915   1.479   8.941   7.627  0.8006  0.5217  0.2993
25046SOL    HW183916   1.573   8.957   7.620  1.0285 -0.6735  0.3775
25046SOL    HW283917   1.463   8.934   7.721  0.0294  3.8238  0.5445
25047SOL     OW83918   6.406  12.363   4.423 -0.4171 -0.1779  0.2362
25047SOL    HW183919   6.312  12.344   4.418 -0.5190  0.1720  0.7628
25047SOL    HW283920   6.445  12.286   4.463 -0.6391  0.1305  1.0654
25048SOL     OW83921   1.075   8.958  10.715  0.0881  0.1194  0.0840
25048SOL    HW183922   1.008   8.914  10.663  0.7364  0.5739 -1.1877
25048SOL    HW283923   1.056   8.933  10.805 -1.1553 -0.5907 -0.3503
25049SOL     OW83924   1.703  12.431   2.503  0.0011  0.2948  0.5096
25049SOL    HW183925   1.644  12.449   2.430 -1.3272 -0.5422  1.3298
25049SOL    HW283926   1.748  12.514   2.519 -2.6334  1.6944  1.2957
25050SOL     OW83927   7.926   8.271   3.931 -0.2404  0.1990 -0.1675
25050SOL    HW183928   7.998   8.216   3.962  0.2276  1.4626  1.0581
25050SOL    HW283929   7.854   8.209   3.916  0.4788 -0.8349  0.5222
25051SOL     OW83930  12.218   6.171   0.869 -0.5448  0.4566 -0.0181
25051SOL    HW183931  12.261   6.096   0.828  2.3946  2.0407 -0.0969
25051SOL    HW283932  12.208   6.145   0.961 -0.1241 -0.2534 -0.1626
25052SOL     OW83933   4.046   0.821  11.925 -0.4404 -0.4825 -0.0340
25052SOL    HW183934   4.074   0.825  11.834 -0.4355 -0.4256 -0.0304
25052SOL    HW283935   3.983   0.748  11.928  1.3628 -2.1133  0.4064
25053SOL     OW83936  10.543   0.526   6.007 -0.2788 -0.1452 -0.3139
25053SOL    HW183937  10.599   0.603   5.995 -1.0895  0.2758 -1.5207
25053SOL    HW283938  10.465   0.560   6.050 -0.1447 -0.5138  0.2276
25054SOL     OW83939  10.853   3.536   4.875 -0.2335 -0.0912  0.0004
25054SOL    HW183940  10.762   3.539   4.907 -0.4953  0.2033 -0.7483
25054SOL    HW283941  10.847   3.491   4.790  0.3511 -0.2410  0.0344
25055SOL     OW83942  11.004   0.156  11.788 -0.4410 -0.3962 -0.0777
25055SOL    HW183943  11.074   0.107  11.831  0.6271 -0.0378 -1.3484
25055SOL    HW283944  10.959   0.201  11.860  1.5448  0.5281  0.6693
25056SOL     OW83945   9.968   9.897  10.352 -0.1363  0.0444 -0.8597
25056SOL    HW183946   9.965   9.886  10.447  1.4119 -2.3779 -0.9925
25056SOL    HW283947   9.877   9.886  10.323 -0.5564  0.4138  0.2764
25057SOL     OW83948   6.751   9.015   5.093  0.0318 -0.0873 -0.5138
25057SOL    HW183949   6.682   8.979   5.037 -3.4389  2.1860  1.9143
25057SOL    HW283950   6.775   8.942   5.151 -1.2041 -0.6108 -0.6343
25058SOL     OW83951   7.843   7.077   0.693  0.0517  0.0946 -0.2644
25058SOL    HW183952   7.762   7.095   0.645 -0.2118  1.4489  0.6049
25058SOL    HW283953   7.814   7.032   0.772  0.3240 -0.8393 -0.6947
25059SOL     OW83954   8.968   5.210   9.840 -0.9042 -0.0099 -0.2215
25059SOL    HW183955   9.036   5.162   9.793 -0.5021 -1.2755  1.5190
25059SOL    HW283956   8.895   5.216   9.778  0.0058 -0.5739 -1.3785
25060SOL     OW83957  10.912   7.600   8.023  0.4705 -0.2267  0.3868
25060SOL    HW183958  10.966   7.521   8.029 -1.0414 -1.3728 -0.3084
25060SOL    HW283959  10.876   7.611   8.110  3.0635  1.5650  1.3613
25061SOL     OW83960   6.378   1.423   6.253  0.1693  0.5845 -0.1656
25061SOL    HW183961   6.464   1.427   6.293 -0.5299  0.9870  1.3771
25061SOL    HW283962   6.370   1.504   6.202  1.0063  0.1387 -1.0452
25062SOL     OW83963   9.717   4.189   1.854  0.3724  0.3165  0.0902
25062SOL    HW183964   9.769   4.265   1.828  1.4035 -0.7201 -1.0246
25062SOL    HW283965   9.781   4.122   1.877 -0.5143 -0.2041  1.1531
25063SOL     OW83966   0.205   5.730  11.924 -0.1218 -0.1269  0.1099
25063SOL    HW183967   0.194   5.734  11.829  0.6218 -1.5588 -0.0691
25063SOL    HW283968   0.208   5.636  11.943 -0.4109  0.1443  1.5729
25064SOL     OW83969   0.625   9.689  10.542  0.4673 -0.0812 -0.3720
25064SOL    HW183970   0.552   9.630  10.523 -0.4403  1.0774 -0.5704
25064SOL    HW283971   0.646   9.673  10.634  2.1853 -2.7810 -1.1160
25065SOL     OW83972   4.930   5.809   2.011 -0.5658 -0.1081 -0.3482
25065SOL    HW183973   4.857   5.861   1.979  0.4719  0.1377 -2.4323
25065SOL    HW283974   4.946   5.842   2.100 -2.1667  0.6731 -0.3203
25066SOL     OW83975   0.600   9.811   4.208 -0.7400  0.3207  0.6711
25066SOL    HW183976   0.635   9.897   4.227 -0.2873  0.3857 -0.3781
25066SOL    HW283977   0.676   9.759   4.180 -1.0116 -0.4010  1.2456
25067SOL     OW83978   5.552   3.425   7.239 -0.4515  0.3918  0.1392
25067SOL    HW183979   5.638   3.453   7.207  0.3481 -0.0896  1.7645
25067SOL    HW283980   5.492   3.492   7.207  0.8039  1.7188  0.4564
25068SOL     OW83981   6.005  11.711  10.822 -0.1763  0.4687  0.0422
25068SOL    HW183982   5.965  11.692  10.737 -0.5320 -0.6302  0.4321
25068SOL    HW283983   5.931  11.725  10.880 -0.0243 -1.0678  0.6584
25069SOL     OW83984  11.603   8.018  11.354  0.1314 -0.5254  0.5893
25069SOL    HW183985  11.645   8.078  11.415  1.1861 -0.8884  0.2388
25069SOL    HW283986  11.559   7.954  11.410  1.1432 -0.8955  0.9848
25070SOL     OW83987   6.717   7.883   6.682 -0.1604 -0.7075  0.2446
25070SOL    HW183988   6.781   7.912   6.746 -0.6785  0.1267  0.3914
25070SOL    HW283989   6.636   7.871   6.732 -0.9806  1.4183 -0.4615
25071SOL     OW83990   0.829   2.404   8.116  0.1522  0.0353  0.4433
25071SOL    HW183991   0.817   2.487   8.161  2.2732  2.0629 -2.3682
25071SOL    HW283992   0.754   2.396   8.057 -0.0714 -0.0627  0.7423
25072SOL     OW83993   3.806   9.624  11.706 -0.5905 -0.3566  0.0025
25072SOL    HW183994   3.741   9.574  11.754 -0.4598  0.6028  1.2548
25072SOL    HW283995   3.759   9.701  11.674 -0.9259 -1.4866 -2.3882
25073SOL     OW83996   1.469  12.226   3.124 -0.4395 -0.1621  0.0267
25073SOL    HW183997   1.492  12.301   3.178  1.1494 -0.0455 -0.7442
25073SOL    HW283998   1.379  12.242   3.098 -0.3960  1.0632  0.5584
25074SOL     OW83999   1.821   3.165   5.300 -0.5976 -0.2926 -0.1507
25074SOL    HW184000   1.777   3.245   5.272 -0.5721 -0.2093  0.0389
25074SOL    HW284001   1.780   3.144   5.385  0.0856  0.0816  0.2835
25075SOL     OW84002   0.328   9.884   5.818  0.4543  0.0879  0.2444
25075SOL    HW184003   0.317   9.964   5.869  1.1595 -0.8131  1.8836
25075SOL    HW284004   0.407   9.899   5.766  1.5625 -0.1345  1.8006
25076SOL     OW84005   5.983   1.927   0.763  0.2482 -0.4913 -0.9924
25076SOL    HW184006   5.888   1.923   0.773  0.3234 -3.4641 -0.4394
25076SOL    HW284007   6.017   1.919   0.852  1.0485  0.6252 -1.1747
25077SOL     OW84008   0.997   9.166   4.515  0.1541  0.1955 -0.2384
25077SOL    HW184009   1.043   9.095   4.471  1.0040  0.5704  0.0210
25077SOL    HW284010   1.002   9.239   4.454 -1.3165 -0.1325 -0.8054
25078SOL     OW84011   0.904   4.905   7.906  0.7392 -0.2414 -0.1006
25078SOL    HW184012   0.829   4.868   7.859  0.8344 -1.5081  0.7043
25078SOL    HW284013   0.887   4.999   7.909  0.0890 -0.2908 -1.5057
25079SOL     OW84014  11.797   4.170   8.124  0.3668  0.1494  0.2439
25079SOL    HW184015  11.802   4.209   8.212 -0.1410 -0.8260  0.7217
25079SOL    HW284016  11.793   4.076   8.140  0.6049 -0.0595 -0.8491
25080SOL     OW84017   0.002   3.852   5.055 -0.1602 -0.0606  0.6443
25080SOL    HW184018  -0.090   3.825   5.056  0.2986 -1.8151 -0.2879
25080SOL    HW284019   0.002   3.933   5.003 -1.0250 -0.8225 -0.6249
25081SOL     OW84020  11.926   7.863  10.774  0.1775 -0.4138  0.0215
25081SOL    HW184021  11.930   7.858  10.679 -0.4820 -0.1091 -0.0305
25081SOL    HW284022  11.836   7.839  10.795  0.1598  0.0798  0.5280
25082SOL     OW84023  10.049   6.205   5.576  0.3394  0.1556 -0.2578
25082SOL    HW184024  10.096   6.133   5.617  1.1139  0.1126 -1.1833
25082SOL    HW284025  10.108   6.236   5.507 -0.4701  0.9236 -0.6256
25083SOL     OW84026   6.305  10.271   5.267  0.5438  0.2500 -0.3366
25083SOL    HW184027   6.223  10.302   5.228  0.4527  0.5406  0.0762
25083SOL    HW284028   6.324  10.189   5.221  1.1151  1.2050 -1.8771
25084SOL     OW84029   3.607  10.253   3.766 -0.3403  1.0696  0.4635
25084SOL    HW184030   3.598  10.278   3.674 -0.9765  1.1252  0.5377
25084SOL    HW284031   3.665  10.320   3.803  0.0560  0.9489  0.0675
25085SOL     OW84032   3.309  10.174  12.195 -0.2506  0.5953 -0.0139
25085SOL    HW184033   3.270  10.134  12.273  1.1372  0.0814  0.4524
25085SOL    HW284034   3.303  10.268  12.211 -0.7209  0.5090  0.3335
25086SOL     OW84035   8.137   0.507   4.885 -0.7964  0.3720  0.2014
25086SOL    HW184036   8.120   0.432   4.829  0.4691 -0.2258  0.5774
25086SOL    HW284037   8.221   0.542   4.855 -1.3843  1.6932 -0.0082
25087SOL     OW84038  12.082   1.611   7.009 -0.4716 -0.0113 -0.4346
25087SOL    HW184039  12.090   1.606   6.914  0.9891 -1.8460 -0.2712
25087SOL    HW284040  12.170   1.632   7.040 -0.8808  0.3536  0.5145
25088SOL     OW84041   7.724   3.818   6.585  0.4425  0.2915 -0.9078
25088SOL    HW184042   7.670   3.766   6.645  0.4554 -0.5155 -1.5611
25088SOL    HW284043   7.813   3.807   6.616  0.5218 -0.6571 -1.4333
25089SOL     OW84044  10.665   0.394  10.388  0.1462  0.1560 -0.3833
25089SOL    HW184045  10.729   0.460  10.361 -0.1769  0.5042 -0.2862
25089SOL    HW284046  10.718   0.316  10.407  0.7601  1.0230  1.6569
25090SOL     OW84047  11.324   6.452   4.289  0.0355 -0.3176  0.2289
25090SOL    HW184048  11.258   6.515   4.261 -0.0001 -1.0342 -1.4204
25090SOL    HW284049  11.346   6.478   4.378  2.0353  3.7765 -1.1891
25091SOL     OW84050   1.651   1.885   7.492  0.1955  0.4131 -0.1499
25091SOL    HW184051   1.689   1.952   7.434  1.2939  0.2386  0.3450
25091SOL    HW284052   1.660   1.804   7.443  1.0178  0.2835  0.1980
25092SOL     OW84053  12.342   5.214   8.134 -0.7831 -0.2536  0.4150
25092SOL    HW184054  12.411   5.251   8.188 -1.6878  0.6157  1.0039
25092SOL    HW284055  12.304   5.289   8.089 -0.4723 -0.8835 -0.9616
25093SOL     OW84056  11.536   6.506   2.572  0.1068  0.0303 -0.1026
25093SOL    HW184057  11.599   6.441   2.602 -0.6301 -0.3136  0.7362
25093SOL    HW284058  11.584   6.559   2.509  0.1882 -2.6287 -2.5015
25094SOL     OW84059   4.624   4.934   0.096 -0.0794  0.0507 -0.4327
25094SOL    HW184060   4.672   4.954   0.176 -3.6902  0.8539  1.7972
25094SOL    HW284061   4.574   4.854   0.117  0.5690 -1.0660 -2.7808
25095SOL     OW84062   7.127   9.376  11.342 -1.0682 -0.3411 -0.6209
25095SOL    HW184063   7.144   9.464  11.306 -0.7734 -1.0551 -2.3235
25095SOL    HW284064   7.210   9.349  11.380 -0.7761 -0.4062 -1.2941
25096SOL     OW84065   7.991   9.194  10.482 -0.5714 -0.5013  0.1998
25096SOL    HW184066   7.962   9.285  10.472 -0.8532 -0.6514 -0.3326
25096SOL    HW284067   7.928   9.156  10.544 -1.5064 -0.8141 -0.9142
25097SOL     OW84068   1.055   6.832  11.217  0.2969 -0.3723  0.4187
25097SOL    HW184069   1.121   6.828  11.148  1.3682  0.3287  1.3570
25097SOL    HW284070   1.095   6.887  11.285 -1.2341  0.0230  1.0477
25098SOL     OW84071  12.095   7.031   1.761 -0.1993  0.8587 -0.5143
25098SOL    HW184072  12.068   7.006   1.850  0.1125  0.0200 -0.6431
25098SOL    HW284073  12.013   7.040   1.713 -0.3641  1.1396 -0.1871
25099SOL     OW84074  10.742   5.652   7.465 -0.3862  0.1382 -0.3105
25099SOL    HW184075  10.805   5.619   7.401  0.1725 -2.8513  1.5529
25099SOL    HW284076  10.777   5.736   7.493  0.3076  0.6566 -2.5150
25100SOL     OW84077   8.647   8.789   4.598  0.1618  0.0562  0.1526
25100SOL    HW184078   8.659   8.695   4.611  0.0743  0.1052  0.6090
25100SOL    HW284079   8.716   8.813   4.536 -1.9055 -0.9139 -2.7072
25101SOL     OW84080   5.589   6.340   4.181 -0.1852 -0.0769  0.1266
25101SOL    HW184081   5.658   6.368   4.241 -0.2233  2.8312 -1.0207
25101SOL    HW284082   5.509   6.341   4.233 -0.1724  2.1154  0.1987
25102SOL     OW84083   9.285  10.135  11.633 -0.7171 -0.2379  0.6340
25102SOL    HW184084   9.242  10.083  11.700  1.5577 -1.7157  1.0746
25102SOL    HW284085   9.376  10.107  11.636  0.0342  1.7228 -1.1490
25103SOL     OW84086  11.327   6.134   9.835 -0.8625 -0.4319 -0.1315
25103SOL    HW184087  11.384   6.085   9.894 -0.7233 -1.1227 -0.8380
25103SOL    HW284088  11.296   6.070   9.772 -1.1840  0.2591 -0.6879
25104SOL     OW84089   2.431   6.184   9.442 -0.3964 -0.5075 -0.0704
25104SOL    HW184090   2.409   6.104   9.394  0.7239 -0.1915 -1.1715
25104SOL    HW284091   2.437   6.252   9.375  3.2005 -0.4591  0.0922
25105SOL     OW84092   2.937   2.154   5.424  0.0962  0.0960 -0.1702
25105SOL    HW184093   2.881   2.220   5.383 -0.4904 -0.2179  0.1235
25105SOL    HW284094   3.025   2.193   5.421  0.2363 -0.2629 -2.4864
25106SOL     OW84095   8.077  10.649  12.434 -0.5958 -0.2011  0.3997
25106SOL    HW184096   8.125  10.704  12.495 -1.1537 -2.0745  2.6926
25106SOL    HW284097   8.027  10.710  12.379  2.0388  1.6634 -0.0983
25107SOL     OW84098   9.278  10.901   0.510 -0.5335 -0.1862  0.3901
25107SOL    HW184099   9.294  10.995   0.499 -0.1832 -0.4570 -1.9801
25107SOL    HW284100   9.191  10.896   0.549 -0.1580  1.1160  1.4774
25108SOL     OW84101  11.096   7.396   1.070 -0.2670 -0.1673  1.0769
25108SOL    HW184102  11.161   7.375   1.137  0.0942 -0.3845  0.6733
25108SOL    HW284103  11.017   7.351   1.097  0.2354 -1.3121  0.7124
25109SOL     OW84104   0.385  10.394   8.861  0.5492  0.3787  0.0220
25109SOL    HW184105   0.343  10.312   8.835  0.6650  0.0655  0.7902
25109SOL    HW284106   0.478  10.378   8.847  0.4475  1.0694 -1.6695
25110SOL     OW84107   6.768   6.767   7.891 -0.4712  0.1537 -0.2878
25110SOL    HW184108   6.742   6.784   7.801  0.5446 -0.2850 -0.6736
25110SOL    HW284109   6.844   6.710   7.884 -1.3489 -1.2206  0.8791
25111SOL     OW84110   7.152   9.479   0.785 -0.2199  0.4553  1.0207
25111SOL    HW184111   7.098   9.546   0.826 -0.8952  0.5354  0.0249
25111SOL    HW284112   7.168   9.511   0.697 -0.2301 -0.5057  0.6572
25112SOL     OW84113  10.977   8.422  10.397  0.2863  0.0602 -0.2307
25112SOL    HW184114  10.920   8.498  10.405  0.6138  0.1204  2.2941
25112SOL    HW284115  11.064   8.454  10.422  0.2760 -1.2361  1.7597
25113SOL     OW84116   1.277   6.467   5.356  0.3989  0.5960  0.2119
25113SOL    HW184117   1.312   6.394   5.306 -0.9765 -0.0650  0.1589
25113SOL    HW284118   1.306   6.451   5.446 -2.0200 -1.5204  0.7262
25114SOL     OW84119   2.792   7.138   4.466 -0.0383  0.0572 -0.6863
25114SOL    HW184120   2.734   7.087   4.522 -0.3461  0.9515 -0.1648
25114SOL    HW284121   2.879   7.124   4.503 -0.0521 -0.4476 -0.8333
25115SOL     OW84122   4.355  10.584  10.845  0.2400 -0.1275 -0.3747
25115SOL    HW184123   4.271  10.556  10.882  1.6504  0.6587  4.0967
25115SOL    HW284124   4.346  10.678  10.834  0.8821  0.2515  1.7399
25116SOL     OW84125   2.482   7.093  10.745  0.0660 -0.0495  0.2385
25116SOL    HW184126   2.571   7.127  10.757 -0.3769  0.4796  2.5938
25116SOL    HW284127   2.426   7.170  10.752 -0.6559 -0.5744  0.3558
25117SOL     OW84128   3.562   6.757   2.762 -0.2842 -0.2080  0.2506
25117SOL    HW184129   3.631   6.787   2.822 -0.6163 -0.2634  0.6659
25117SOL    HW284130   3.601   6.764   2.675 -0.6044  2.2830  0.2198
25118SOL     OW84131   1.160   4.727   8.608  0.0582  0.3112  0.5439
25118SOL    HW184132   1.132   4.727   8.700  0.5681  0.4284  0.7032
25118SOL    HW284133   1.172   4.820   8.587 -0.9999  0.3471  0.0601
25119SOL     OW84134  11.345  12.357   4.211 -0.2464  0.0825  0.2093
25119SOL    HW184135  11.254  12.375   4.188 -0.7638 -3.2178 -0.7889
25119SOL    HW284136  11.341  12.291   4.279  1.4942  2.7359  3.1691
25120SOL     OW84137   9.494   2.219   7.993  0.1094 -0.1325  0.0997
25120SOL    HW184138   9.563   2.283   7.975 -0.4103  0.9767  1.8005
25120SOL    HW284139   9.519   2.142   7.942  3.2511 -0.2051  1.4815
25121SOL     OW84140   4.212   4.443   4.257 -0.5464 -0.3977  0.5134
25121SOL    HW184141   4.212   4.376   4.326  1.4379 -0.9735 -0.0008
25121SOL    HW284142   4.137   4.498   4.279 -0.4032 -0.9669  2.7333
25122SOL     OW84143  12.023   4.427   6.224  0.0876 -0.3700 -0.4583
25122SOL    HW184144  12.078   4.361   6.266 -0.1005 -0.3733 -0.2115
25122SOL    HW284145  12.001   4.390   6.139  1.4393  0.1366 -1.0572
25123SOL     OW84146  10.891   5.137   1.142  0.6280 -0.2812  0.1039
25123SOL    HW184147  10.812   5.186   1.164  0.6788 -0.0647 -0.1861
25123SOL    HW284148  10.863   5.070   1.080  0.7753  0.1989 -0.4928
25124SOL     OW84149   9.436   1.078  10.593 -0.1353 -0.5072  0.4501
25124SOL    HW184150   9.500   1.048  10.529  0.6888 -2.1379  1.9389
25124SOL    HW284151   9.352   1.047  10.559  0.2100 -0.8282 -0.1326
25125SOL     OW84152  10.638   5.590   0.115  0.0789  0.1961 -0.3598
25125SOL    HW184153  10.662   5.666   0.168  2.5431  0.0921 -1.2058
25125SOL    HW284154  10.596   5.628   0.038  1.0851  0.7134 -0.6736
25126SOL     OW84155   3.590   6.139   0.293 -0.5568 -0.4677  0.1300
25126SOL    HW184156   3.503   6.127   0.331 -0.8542 -0.7820 -0.6182
25126SOL    HW284157   3.645   6.077   0.340 -0.3167  1.0071  1.8676
25127SOL     OW84158   6.724   0.838   5.241 -0.4457 -0.3994  0.3097
25127SOL    HW184159   6.795   0.805   5.185  0.8765  0.4278  1.4149
25127SOL    HW284160   6.759   0.831   5.330 -0.3838  3.0771  0.6935
25128SOL     OW84161   3.597   0.282   4.373  0.1666 -0.8266  0.4190
25128SOL    HW184162   3.575   0.249   4.286 -0.4170  0.8063 -0.1058
25128SOL    HW284163   3.692   0.275   4.378  0.2634 -0.4823 -0.5804
25129SOL     OW84164   9.908   9.691   1.423  0.2674  0.1202  0.3821
25129SOL    HW184165   9.964   9.749   1.475  0.4925  0.2559 -0.0039
25129SOL    HW284166   9.834   9.671   1.480  0.8418 -0.2809  1.0052
25130SOL     OW84167   3.900   4.569   8.826 -0.0632 -0.0779  0.1155
25130SOL    HW184168   3.868   4.512   8.896 -0.2253  0.6506  0.6456
25130SOL    HW284169   3.905   4.655   8.867 -1.0580  0.5458 -1.0307
25131SOL     OW84170   0.175   2.016   1.433 -0.1095 -0.2696 -0.0313
25131SOL    HW184171   0.199   2.108   1.426 -0.1542 -0.1975  0.6794
25131SOL    HW284172   0.081   2.017   1.452 -0.1177 -0.4652 -0.0608
25132SOL     OW84173  12.407  12.304   8.483  0.1445 -0.0245  0.7329
25132SOL    HW184174  12.329  12.326   8.432  0.6652 -0.1797 -0.1670
25132SOL    HW284175  12.435  12.220   8.446  0.9260  0.1988  0.8106
25133SOL     OW84176   1.667  11.875   5.830  0.3855  0.1281  0.1137
25133SOL    HW184177   1.720  11.920   5.764 -0.4767 -0.0555 -0.7173
25133SOL    HW284178   1.579  11.876   5.795  0.1085 -0.9875  0.7408
25134SOL     OW84179  12.588   0.600  12.220  0.0785  0.1055 -0.2720
25134SOL    HW184180  12.569   0.508  12.203 -0.6967  0.0448  0.8100
25134SOL    HW284181  12.528   0.648  12.164 -0.2982 -0.0672 -0.0251
25135SOL     OW84182   4.258   9.361   6.393  0.3188 -0.6200  0.0662
25135SOL    HW184183   4.202   9.438   6.392  1.2864  0.1416  1.4436
25135SOL    HW284184   4.211   9.298   6.446  0.2136 -0.4233  0.2055
25136SOL     OW84185   0.136   3.986   9.215 -0.3487  0.2615 -0.5352
25136SOL    HW184186   0.195   3.924   9.257 -0.8155 -0.4974 -0.9780
25136SOL    HW284187   0.190   4.030   9.149 -0.3389 -0.6732 -1.1739
25137SOL     OW84188   2.243   8.472   7.064  0.2016  0.2592 -0.5684
25137SOL    HW184189   2.223   8.381   7.085 -2.1850  0.7562 -0.4138
25137SOL    HW284190   2.168   8.522   7.097  2.2864  2.5577  1.1146
25138SOL     OW84191  11.583   5.958   9.225 -0.3903 -0.0759  0.4275
25138SOL    HW184192  11.616   5.944   9.136  1.2173  0.1217  0.9589
25138SOL    HW284193  11.498   6.001   9.213 -0.3921 -0.4400 -1.0074
25139SOL     OW84194  11.813   4.407   3.339 -0.5940  0.0001 -0.0542
25139SOL    HW184195  11.901   4.381   3.313 -0.3577 -0.1191  0.8186
25139SOL    HW284196  11.799   4.491   3.297 -0.5655 -0.5662 -1.2372
25140SOL     OW84197   6.378   4.478  11.602  0.5420  0.2452 -0.3160
25140SOL    HW184198   6.352   4.569  11.587 -2.1023  0.0052  1.9726
25140SOL    HW284199   6.395   4.473  11.696 -0.3128 -1.7872 -0.2119
25141SOL     OW84200   1.068   4.839   7.140 -0.6528 -0.0863 -0.1700
25141SOL    HW184201   1.017   4.759   7.125 -2.0179  0.4193  1.4943
25141SOL    HW284202   1.084   4.874   7.052  0.0453 -2.1758 -0.9460
25142SOL     OW84203   9.978   2.533   4.649  0.3914 -1.1980 -0.1999
25142SOL    HW184204  10.040   2.590   4.603  0.6015 -1.0177  0.3095
25142SOL    HW284205   9.906   2.522   4.587 -0.1970  0.5389  0.1157
25143SOL     OW84206   7.898   2.308   6.456  0.1849 -0.4817 -0.6188
25143SOL    HW184207   7.805   2.330   6.456  0.5196  1.0255 -1.9744
25143SOL    HW284208   7.940   2.374   6.401  2.1099 -0.9825  0.1383
25144SOL     OW84209   7.713   6.992   3.568  0.3869 -0.0042  0.4253
25144SOL    HW184210   7.663   6.912   3.554 -0.3002  0.5991 -0.7344
25144SOL    HW284211   7.695   7.017   3.658 -0.6230 -0.3416  0.3252
25145SOL     OW84212   4.596   3.585   8.743  0.3724 -0.1023 -0.0344
25145SOL    HW184213   4.654   3.608   8.816  0.2951  0.1252 -0.0437
25145SOL    HW284214   4.571   3.670   8.705  0.6352 -0.2318 -0.4990
25146SOL     OW84215   8.436   2.254   4.211  0.1540 -0.2571 -0.3513
25146SOL    HW184216   8.511   2.247   4.270  0.2774  0.0532 -0.4680
25146SOL    HW284217   8.367   2.201   4.253  0.2319 -0.0174  0.0856
25147SOL     OW84218   0.111   2.879   9.112 -0.0294 -0.3059  0.0595
25147SOL    HW184219   0.102   2.972   9.134  0.6316 -0.4690  1.0796
25147SOL    HW284220   0.201   2.871   9.081  0.1682 -0.7454  0.7341
25148SOL     OW84221   2.904   3.675   5.836 -0.5904 -0.9404 -0.3443
25148SOL    HW184222   2.826   3.726   5.858 -0.3151  0.1908 -1.8272
25148SOL    HW284223   2.875   3.615   5.768 -0.5100 -1.6382  0.2191
25149SOL     OW84224   2.733   1.668   0.981 -0.1728 -0.2926 -0.4028
25149SOL    HW184225   2.739   1.735   0.913 -2.4707  1.1744  0.7247
25149SOL    HW284226   2.748   1.586   0.935  2.4948  0.8946 -1.8892
25150SOL     OW84227   9.614   4.266   8.237 -0.1705  0.8767 -0.2715
25150SOL    HW184228   9.683   4.321   8.274  2.5396 -1.7652 -0.9847
25150SOL    HW284229   9.593   4.204   8.307  0.0419  0.0965 -0.8858
25151SOL     OW84230   0.216   2.355   8.566  0.4961 -0.1485 -0.6780
25151SOL    HW184231   0.253   2.398   8.489  1.7164 -0.9408 -0.5569
25151SOL    HW284232   0.185   2.427   8.621 -0.7164  0.4148 -2.0392
25152SOL     OW84233   8.384   0.599   4.809  0.4650 -0.5637 -0.1278
25152SOL    HW184234   8.408   0.683   4.768 -0.4761  0.0982  0.6127
25152SOL    HW284235   8.400   0.612   4.902  1.3374 -1.6062 -0.1123
25153SOL     OW84236  12.461  12.169   1.746 -0.3108  0.2447 -0.2720
25153SOL    HW184237  12.374  12.200   1.723 -0.0078  0.0002 -1.8888
25153SOL    HW284238  12.494  12.232   1.810 -1.2032  1.0037 -0.5481
25154SOL     OW84239   8.943   2.320   5.586  0.3838  0.3276 -0.0835
25154SOL    HW184240   8.907   2.323   5.497 -0.1006  1.4204  0.1275
25154SOL    HW284241   9.003   2.395   5.589  1.0334 -0.1931  0.2632
25155SOL     OW84242   1.240   2.727   3.311  0.3740  0.6322 -0.0672
25155SOL    HW184243   1.320   2.726   3.257  1.2367  0.3641  1.1743
25155SOL    HW284244   1.231   2.819   3.338  0.1446  0.6998 -0.3708
25156SOL     OW84245   3.863   9.973   7.875 -0.2306 -0.0090 -0.2805
25156SOL    HW184246   3.888  10.032   7.947 -2.4355  0.8178 -0.1328
25156SOL    HW284247   3.909  10.007   7.799 -0.6285  1.2556  0.0328
25157SOL     OW84248   1.002  12.443   3.786 -0.0929 -0.0095  0.4706
25157SOL    HW184249   1.026  12.526   3.744 -0.6632 -0.4021 -0.6904
25157SOL    HW284250   1.019  12.457   3.879  0.3680  1.2120  0.2225
25158SOL     OW84251   7.238  10.426  11.293 -0.0333 -0.1652 -0.5417
25158SOL    HW184252   7.332  10.405  11.289 -0.2501 -1.0319 -1.6940
25158SOL    HW284253   7.217  10.422  11.386  1.0959  0.1244 -0.2585
25159SOL     OW84254   5.696   3.703  11.841 -0.2514 -0.0882 -0.2138
25159SOL    HW184255   5.652   3.778  11.801  0.6794  0.8575  0.4811
25159SOL    HW284256   5.755   3.742  11.906  0.0112 -1.4451  0.3897
25160SOL     OW84257   4.682   0.397   3.096 -0.1140 -0.0443  0.3803
25160SOL    HW184258   4.588   0.411   3.083 -0.1084 -0.2979  0.0607
25160SOL    HW284259   4.724   0.451   3.029 -0.0215  0.2726  0.6898
25161SOL     OW84260   1.242   6.577   7.907 -0.2513  0.2223  0.2423
25161SOL    HW184261   1.319   6.573   7.963 -1.0061 -0.1351  1.2714
25161SOL    HW284262   1.187   6.646   7.946 -1.3203 -0.8311  0.6701
25162SOL     OW84263   1.212  10.593   2.617 -0.1707 -0.2952 -0.7396
25162SOL    HW184264   1.169  10.672   2.584 -1.2262 -1.1427 -1.4647
25162SOL    HW284265   1.185  10.524   2.556 -0.3550 -1.4693  0.6278
25163SOL     OW84266   8.776   0.278   2.783 -0.0961  0.0696  0.1226
25163SOL    HW184267   8.700   0.279   2.725 -0.2862  1.3609  0.3727
25163SOL    HW284268   8.836   0.343   2.746  1.5579 -1.8978 -0.8947
25164SOL     OW84269  11.275   7.554   4.151  0.0955 -0.2164 -0.0093
25164SOL    HW184270  11.369   7.553   4.134  0.1957 -2.0631  0.4450
25164SOL    HW284271  11.237   7.597   4.075  1.1759 -0.9424 -0.9952
25165SOL     OW84272   5.766   9.876   1.304 -0.2781 -0.0340 -0.2410
25165SOL    HW184273   5.674   9.895   1.290 -0.7437 -1.6136  0.5017
25165SOL    HW284274   5.786   9.912   1.390 -0.1843  0.3070 -0.4013
25166SOL     OW84275   9.685   3.476   9.874 -0.3352  0.0096  0.2966
25166SOL    HW184276   9.706   3.548   9.816  0.2550 -0.4706 -0.0922
25166SOL    HW284277   9.596   3.449   9.848 -0.0740 -0.2035 -0.3865
25167SOL     OW84278   6.335   1.336   0.570 -0.0597 -0.2773 -0.4719
25167SOL    HW184279   6.285   1.287   0.635  0.2612  1.9882  1.6692
25167SOL    HW284280   6.268   1.380   0.517 -0.3928  0.7339  0.7379
25168SOL     OW84281  10.673   7.332  10.761 -0.0092 -0.2120 -0.2400
25168SOL    HW184282  10.623   7.372  10.833 -2.8024  0.6826 -2.4975
25168SOL    HW284283  10.744   7.394  10.744 -0.5501  0.6086  0.4116
25169SOL     OW84284   3.959   7.574  11.105  0.8983 -0.1520 -0.0894
25169SOL    HW184285   3.878   7.528  11.128  1.0726 -0.3718  0.0954
25169SOL    HW284286   3.945   7.605  11.016  0.2042  0.7169  0.3108
25170SOL     OW84287  10.742  10.760  11.003  0.0154 -0.1588 -0.4100
25170SOL    HW184288  10.753  10.717  10.918  1.4232  0.5125 -0.5911
25170SOL    HW284289  10.716  10.689  11.062  0.2217 -0.8637 -1.1438
25171SOL     OW84290  11.505   3.336   4.260  0.5168 -0.3790 -0.4780
25171SOL    HW184291  11.534   3.391   4.187 -0.6465 -0.7913 -1.2763
25171SOL    HW284292  11.464   3.397   4.321 -1.0350 -0.3376 -1.4968
25172SOL     OW84293   0.652  11.974   9.637  0.2470  0.4004 -0.1594
25172SOL    HW184294   0.598  11.908   9.593  3.0627 -1.0315 -1.7172
25172SOL    HW284295   0.612  12.057   9.614 -2.6339 -0.5996  0.7475
25173SOL     OW84296  10.500   1.371   1.912  0.1785 -0.6737  0.2550
25173SOL    HW184297  10.427   1.376   1.973  0.1789  0.9613  0.1437
25173SOL    HW284298  10.463   1.331   1.833 -1.2364  2.1919 -0.6447
25174SOL     OW84299   9.100   0.306   6.850  0.7025 -0.5100 -0.0118
25174SOL    HW184300   9.046   0.228   6.862  0.0752 -0.6748 -3.0350
25174SOL    HW284301   9.144   0.291   6.766  3.3186  0.8883  0.9971
25175SOL     OW84302   1.979   8.077   1.167  0.8668 -0.2573 -0.2404
25175SOL    HW184303   1.919   8.152   1.173  0.9453 -0.0184 -1.9493
25175SOL    HW284304   1.925   8.005   1.137  1.0840 -0.5184 -0.0121
25176SOL     OW84305   0.992   8.300   1.133  0.2543 -0.4269 -0.6171
25176SOL    HW184306   0.901   8.317   1.107  0.1837 -0.2558 -0.2653
25176SOL    HW284307   0.988   8.218   1.181  0.5008 -1.1402 -1.7785
25177SOL     OW84308   3.315   2.728   4.257 -0.2744 -0.4408  0.1781
25177SOL    HW184309   3.232   2.682   4.264 -0.0769 -1.7844 -3.8214
25177SOL    HW284310   3.376   2.677   4.311 -1.3437 -1.3774  0.5288
25178SOL     OW84311   6.182  11.880  12.042 -0.2530 -0.1375 -0.1800
25178SOL    HW184312   6.210  11.823  12.113 -2.1491 -0.9573 -0.0380
25178SOL    HW284313   6.089  11.896  12.059  0.3032  3.5897  0.1880
25179SOL     OW84314   9.143   9.939   0.211 -0.1575  0.3210 -0.0552
25179SOL    HW184315   9.117   9.988   0.133 -0.6485 -0.7512 -0.5834
25179SOL    HW284316   9.190   9.863   0.178 -2.5696 -1.5347  0.4885
25180SOL     OW84317   4.034   0.551   5.871  0.1991 -0.7553  0.6246
25180SOL    HW184318   4.061   0.637   5.839 -0.9008 -0.6782 -0.1327
25180SOL    HW284319   4.075   0.489   5.811  0.4372 -0.7409  0.7684
25181SOL     OW84320   7.366   7.469  11.502  0.1018  0.4920 -1.2108
25181SOL    HW184321   7.404   7.543  11.548  0.3998 -0.6230  0.4401
25181SOL    HW284322   7.279   7.459  11.540  0.4528 -0.6124 -0.6568
25182SOL     OW84323   4.169   2.337   6.077  0.0133 -0.1282 -0.2723
25182SOL    HW184324   4.260   2.364   6.063  0.3727 -0.6246  0.9932
25182SOL    HW284325   4.127   2.415   6.113  0.2450 -0.2562  0.2862
25183SOL     OW84326   6.906   8.980   5.366  0.4954  0.2056 -0.4056
25183SOL    HW184327   6.870   8.891   5.370  2.3279 -0.5470  1.0227
25183SOL    HW284328   6.832   9.037   5.390 -0.3938 -1.0406 -0.0959
25184SOL     OW84329   5.852   3.479  11.461 -0.6283 -0.0312 -0.3645
25184SOL    HW184330   5.799   3.448  11.534 -1.4900 -0.5223 -1.1681
25184SOL    HW284331   5.838   3.573  11.459 -0.1458  0.0679  0.4360
25185SOL     OW84332   7.120   9.222   9.705 -0.2056  0.2965 -0.4488
25185SOL    HW184333   7.037   9.263   9.682  0.3433  0.7154 -1.7792
25185SOL    HW284334   7.176   9.296   9.730 -0.6213 -0.0960  1.8626
25186SOL     OW84335  12.208  12.142   9.835  0.5535  0.5217  0.0834
25186SOL    HW184336  12.267  12.071   9.858  0.5369  0.7088  0.7411
25186SOL    HW284337  12.206  12.198   9.913 -0.5642  0.4653  0.1170
25187SOL     OW84338   3.087   4.835   5.485  0.1129 -0.0871  0.0412
25187SOL    HW184339   3.108   4.886   5.564  0.0493  0.6292 -0.3891
25187SOL    HW284340   3.037   4.760   5.517  0.2029  0.1234  0.6967
25188SOL     OW84341  11.541   3.691   6.207 -0.5873 -0.2387 -0.2187
25188SOL    HW184342  11.554   3.596   6.195 -1.2515 -0.1936 -1.4825
25188SOL    HW284343  11.451   3.706   6.180 -0.3106  0.8442 -0.5898
25189SOL     OW84344   3.520  11.248   0.198  0.4720  0.2049  0.6284
25189SOL    HW184345   3.472  11.182   0.248  1.2339  0.4228  1.6907
25189SOL    HW284346   3.487  11.332   0.231 -0.9576  0.4140 -1.1644
25190SOL     OW84347   5.289   3.742  11.159 -0.3904 -0.6682  0.5046
25190SOL    HW184348   5.370   3.773  11.117  0.2833 -2.1075  0.6492
25190SOL    HW284349   5.306   3.648  11.174 -2.3543 -1.1539 -0.0898
25191SOL     OW84350   9.287   5.057   9.147 -0.2231  0.0539  0.8340
25191SOL    HW184351   9.347   5.129   9.128  2.3456 -2.0062  0.6020
25191SOL    HW284352   9.222   5.061   9.076  0.5636  1.3881  0.1477
25192SOL     OW84353   7.785  10.269  11.071  0.0738  0.5067 -0.0990
25192SOL    HW184354   7.835  10.254  10.990  0.0094 -0.0952 -0.0307
25192SOL    HW284355   7.833  10.339  11.115  1.9217 -1.2204  0.8078
25193SOL     OW84356   7.506  11.022   3.121 -0.0493  0.4168 -0.1988
25193SOL    HW184357   7.536  10.931   3.128 -1.3598  0.0153  0.4865
25193SOL    HW284358   7.536  11.050   3.034 -1.2158 -1.2845 -1.2020
25194SOL     OW84359   9.594   3.409   9.530 -0.4608 -0.5775  0.2546
25194SOL    HW184360   9.612   3.315   9.524  0.8868 -0.3210  0.0350
25194SOL    HW284361   9.580   3.437   9.439 -3.1151 -0.9332  0.4588
25195SOL     OW84362   1.435  12.339   7.144 -0.1043  0.2790 -0.2860
25195SOL    HW184363   1.527  12.314   7.152  0.1267  1.6593  2.7724
25195SOL    HW284364   1.388  12.255   7.149  0.9053 -0.2310  1.6830
25196SOL     OW84365   2.381   1.074   7.445  0.4277  0.0604  0.1292
25196SOL    HW184366   2.433   1.047   7.370  1.8538 -0.3427  1.2183
25196SOL    HW284367   2.409   1.164   7.461 -0.7675  0.5679 -0.5428
25197SOL     OW84368   9.327   1.249  12.246 -0.0846  0.1212  0.4823
25197SOL    HW184369   9.402   1.191  12.261  1.3170  1.4108 -1.1039
25197SOL    HW284370   9.258   1.215  12.303  1.3813 -1.7247  1.2482
25198SOL     OW84371   8.145   4.882  11.413  0.5810 -0.0126 -0.6556
25198SOL    HW184372   8.177   4.798  11.378 -0.1712 -0.3054 -0.6581
25198SOL    HW284373   8.050   4.874  11.411  0.4910  0.9803 -0.9693
25199SOL     OW84374   8.917  12.004   2.820  0.0208  0.0529  0.3049
25199SOL    HW184375   8.977  12.068   2.782 -1.2238  1.6620  0.9638
25199SOL    HW284376   8.929  11.926   2.766  1.5924  0.8124 -0.5175
25200SOL     OW84377   6.750   8.669   8.692 -0.0073 -0.1241  0.0673
25200SOL    HW184378   6.675   8.716   8.730 -0.3913 -0.5033 -0.2053
25200SOL    HW284379   6.732   8.668   8.598 -1.7132 -3.5906  0.2632
25201SOL     OW84380  10.960  12.437   5.702  0.0201  0.0762  0.0460
25201SOL    HW184381  10.886  12.483   5.742  2.1022  2.9479  0.9443
25201SOL    HW284382  11.001  12.391   5.775  0.0837 -0.0826 -0.0913
25202SOL     OW84383   4.857   2.287  10.531  0.1729  0.1210 -0.3357
25202SOL    HW184384   4.844   2.372  10.573  2.4000 -0.1249  1.0482
25202SOL    HW284385   4.942   2.295  10.487 -0.4219 -0.8337 -1.7170
25203SOL     OW84386   4.251   2.361   2.202 -0.1742 -0.1474 -0.0337
25203SOL    HW184387   4.240   2.417   2.125 -1.0585 -0.0997  0.1152
25203SOL    HW284388   4.308   2.291   2.172  0.8777  0.7678 -0.2529
25204SOL     OW84389   5.220  10.026   8.331  0.2022 -0.2216  0.5327
25204SOL    HW184390   5.257   9.974   8.260 -0.9819 -0.8316  0.3378
25204SOL    HW284391   5.167  10.092   8.288  3.9974  3.2648  0.5978
25205SOL     OW84392   5.149   9.573   9.816 -0.3867  0.0125  0.1199
25205SOL    HW184393   5.203   9.560   9.738 -0.9119 -0.5818 -0.1494
25205SOL    HW284394   5.186   9.651   9.858  2.1767 -1.6971  1.2300
25206SOL     OW84395   1.453   9.352  10.886  0.4531  0.6102 -0.2800
25206SOL    HW184396   1.365   9.365  10.851  0.6508  0.7334 -0.7246
25206SOL    HW284397   1.505   9.424  10.851  0.9419  0.0557 -0.7240
25207SOL     OW84398   8.070   5.882   5.184  0.4446 -0.3165 -0.4526
25207SOL    HW184399   8.096   5.871   5.093  0.2299  3.2225 -1.0703
25207SOL    HW284400   7.978   5.858   5.186  1.1286 -3.4359 -0.3549
25208SOL     OW84401   5.178   7.147   0.921 -0.5373 -0.4011  0.8315
25208SOL    HW184402   5.166   7.171   1.013 -5.3396  0.5830  0.2146
25208SOL    HW284403   5.115   7.075   0.907  1.1721 -1.5799 -1.4029
25209SOL     OW84404   9.960   7.086   1.654  0.1311 -0.6476 -0.3509
25209SOL    HW184405   9.917   7.093   1.740  2.5943 -2.1134  1.1457
25209SOL    HW284406   9.943   7.170   1.612 -0.4696  0.4732  1.9478
25210SOL     OW84407   7.875   4.419  10.338 -0.2124  0.3268 -0.3268
25210SOL    HW184408   7.816   4.443  10.267  0.0416  1.2636 -0.2370
25210SOL    HW284409   7.927   4.498  10.353 -1.7737  0.9619  2.3972
25211SOL     OW84410   3.142   3.624   8.976  0.6994  0.6922 -0.1663
25211SOL    HW184411   3.119   3.654   8.888  0.8282  3.0382  0.5302
25211SOL    HW284412   3.059   3.595   9.014  0.4795  0.5678 -0.7313
25212SOL     OW84413  11.515   0.741  12.031  0.0917 -0.4180  0.0940
25212SOL    HW184414  11.492   0.806  12.097  0.3256 -0.4536  0.2098
25212SOL    HW284415  11.431   0.716  11.992  0.0509  0.3377 -0.3171
25213SOL     OW84416   8.959  11.920  12.463 -0.5209 -0.2499  0.1569
25213SOL    HW184417   8.902  11.886  12.395 -2.9917  0.9199  1.5040
25213SOL    HW284418   8.993  12.002  12.428 -1.8001  0.3573  0.3043
25214SOL     OW84419   3.689   4.652   4.044  0.7637  0.7322  0.4973
25214SOL    HW184420   3.773   4.615   4.016  0.6996  1.4700 -0.7744
25214SOL    HW284421   3.712   4.737   4.081  0.5787  1.0177 -0.0267
25215SOL     OW84422  12.564   4.353  10.484 -0.1835 -0.1529 -0.4729
25215SOL    HW184423  12.572   4.435  10.533  2.1351 -0.4455 -0.2346
25215SOL    HW284424  12.543   4.287  10.550 -1.8051  0.1666 -0.6299
25216SOL     OW84425   2.055   0.922   2.629 -0.2035  0.9569  0.9100
25216SOL    HW184426   2.027   0.886   2.545 -0.8346  1.5693  0.8498
25216SOL    HW284427   2.138   0.878   2.647 -0.5422  0.0887  0.4488
25217SOL     OW84428   0.395  11.931   6.126 -0.5663  0.4712  0.1991
25217SOL    HW184429   0.393  11.835   6.120 -0.3559  0.5108 -0.5905
25217SOL    HW284430   0.304  11.957   6.116 -0.7300  0.3256  1.1648
25218SOL     OW84431   1.431  10.388  10.808 -0.2773  0.3850 -0.2871
25218SOL    HW184432   1.378  10.436  10.745  0.2872  2.2725  0.6065
25218SOL    HW284433   1.419  10.296  10.785 -2.5271  0.8509 -1.2099
25219SOL     OW84434   6.039   1.644   9.858  0.3711 -0.6672  0.0372
25219SOL    HW184435   6.047   1.686   9.773 -2.1015  1.2013  0.6183
25219SOL    HW284436   6.061   1.552   9.842  1.8067 -0.0065 -2.1689
25220SOL     OW84437  11.972  12.514   2.202  0.1141 -0.0253 -0.5737
25220SOL    HW184438  12.055  12.518   2.250  0.0755 -0.5739 -0.4539
25220SOL    HW284439  11.927  12.438   2.238  0.4234 -0.9249 -2.0163
25221SOL     OW84440  11.694   7.020  11.063 -0.6888 -0.1093 -0.6282
25221SOL    HW184441  11.704   6.928  11.088  0.3334 -0.2984 -1.6289
25221SOL    HW284442  11.655   7.062  11.140  1.6137 -0.7967  1.0299
25222SOL     OW84443   1.308   4.287   7.079  0.1229 -0.0975 -0.0078
25222SOL    HW184444   1.240   4.249   7.023  0.1261 -0.9878  0.5741
25222SOL    HW284445   1.390   4.270   7.032  0.1378 -0.9548  0.3162
25223SOL     OW84446  12.401   1.907   3.034  0.6857  0.2696 -0.2068
25223SOL    HW184447  12.413   1.993   2.995 -1.2271  0.8219  0.2868
25223SOL    HW284448  12.486   1.864   3.027  1.1430  1.4109 -2.3295
25224SOL     OW84449   4.432   9.684   1.114  0.4486  0.8229  0.3504
25224SOL    HW184450   4.446   9.637   1.196  0.9287  0.6829  0.1956
25224SOL    HW284451   4.496   9.755   1.116  0.2640  0.9943  0.2269
25225SOL     OW84452   5.809   4.736  11.643  0.1603 -0.3593  0.4440
25225SOL    HW184453   5.748   4.801  11.608 -0.3129 -1.5303 -0.9918
25225SOL    HW284454   5.892   4.757  11.601  0.0875 -0.4739  0.2421
25226SOL     OW84455   7.302   6.280   9.919 -0.1907 -0.2105  0.0041
25226SOL    HW184456   7.368   6.349   9.906 -0.0421  0.0062  1.7095
25226SOL    HW284457   7.352   6.206   9.952 -0.5557 -0.6936 -0.5135
25227SOL     OW84458   8.112   0.809   1.570 -0.1338 -0.2028  0.5971
25227SOL    HW184459   8.082   0.895   1.600 -1.2212 -0.7690  1.2250
25227SOL    HW284460   8.206   0.819   1.557 -0.3878  1.3626 -0.3507
25228SOL     OW84461   8.731   6.806   4.831  0.4247 -0.3454 -0.4203
25228SOL    HW184462   8.791   6.787   4.758 -0.5146 -0.6992 -1.1242
25228SOL    HW284463   8.667   6.735   4.828 -0.9591  0.8619 -0.6932
25229SOL     OW84464  11.745   3.568   8.249  0.1110  0.1854  0.6707
25229SOL    HW184465  11.836   3.586   8.224 -0.0398 -0.1187 -0.1331
25229SOL    HW284466  11.751   3.509   8.324  0.5756  0.6671  1.0196
25230SOL     OW84467   1.000  10.149   6.533  0.4441  0.3330 -0.1276
25230SOL    HW184468   0.927  10.193   6.490 -0.5293 -1.7578 -0.7528
25230SOL    HW284469   0.974  10.057   6.537  3.2268 -0.6054 -0.8033
25231SOL     OW84470   0.903   4.236   3.206 -0.0629  0.2202 -0.2697
25231SOL    HW184471   0.861   4.150   3.201  2.5884 -1.2780  1.0244
25231SOL    HW284472   0.994   4.220   3.184  0.7758  2.4727  1.1486
25232SOL     OW84473   1.535   5.312   3.207  0.3194 -0.4751 -0.0841
25232SOL    HW184474   1.585   5.377   3.158  1.0787 -0.3948  0.7683
25232SOL    HW284475   1.576   5.228   3.183  0.4719 -0.4675  0.1453
25233SOL     OW84476  11.714   0.042   9.778 -0.4443 -0.4249 -0.4588
25233SOL    HW184477  11.782  -0.009   9.822 -3.0872 -2.8402  1.1364
25233SOL    HW284478  11.679   0.099   9.846 -0.3466  0.4903 -1.1535
25234SOL     OW84479  10.466   5.016   3.382 -0.0577  0.0496  0.5409
25234SOL    HW184480  10.433   5.092   3.336 -0.5783 -0.6641 -0.3008
25234SOL    HW284481  10.553   5.000   3.344 -0.0984  0.0138  0.4611
25235SOL     OW84482   6.470  10.633   9.527  0.1731 -0.3010 -0.3307
25235SOL    HW184483   6.520  10.653   9.448  0.0194 -0.6601 -0.5192
25235SOL    HW284484   6.505  10.694   9.593 -0.5373  0.8489 -0.9806
25236SOL     OW84485   4.540   3.355   4.402  0.2863  0.0472 -0.4233
25236SOL    HW184486   4.450   3.323   4.391  0.1967 -0.0155  0.4457
25236SOL    HW284487   4.530   3.438   4.448  0.6368  0.4224 -1.0091
25237SOL     OW84488   9.631   6.045   2.073 -0.0553  0.3232  0.1677
25237SOL    HW184489   9.612   6.031   2.166  0.6152 -0.2097  0.2333
25237SOL    HW284490   9.684   6.125   2.070  1.0726 -0.3970  0.3918
25238SOL     OW84491   5.856  11.850   9.219 -0.0043 -0.6354  0.2176
25238SOL    HW184492   5.837  11.943   9.212  0.5313 -0.5164  0.3200
25238SOL    HW284493   5.856  11.819   9.129  1.3808 -0.2146  0.0562
25239SOL     OW84494  12.602   9.268   8.860  0.2271 -0.3300  0.3224
25239SOL    HW184495  12.676   9.250   8.802 -0.0729 -0.5886  0.0178
25239SOL    HW284496  12.552   9.187   8.860 -0.4611  0.0892 -0.0685
25240SOL     OW84497   7.662   9.978  12.486 -0.0473  0.1275  0.3300
25240SOL    HW184498   7.623   9.969  12.398  1.1316 -1.8937 -0.0367
25240SOL    HW284499   7.646   9.894  12.528  3.7368 -0.8524  0.1681
25241SOL     OW84500   9.236   1.553   2.043 -0.2789  0.2222  0.0488
25241SOL    HW184501   9.164   1.546   1.981  0.6344  0.2015 -1.0459
25241SOL    HW284502   9.194   1.552   2.129 -1.7613  2.1979 -0.5752
25242SOL     OW84503   3.350   6.917  10.189 -0.5366 -0.4917  0.2404
25242SOL    HW184504   3.393   6.835  10.163 -0.5943  0.1873 -2.2170
25242SOL    HW284505   3.410   6.986  10.161 -0.9269  0.3690  1.4339
25243SOL     OW84506  10.036   7.220   7.065 -0.4833  0.3197 -0.1914
25243SOL    HW184507  10.121   7.179   7.085 -0.1463  1.0110 -0.1614
25243SOL    HW284508  10.013   7.185   6.979  0.3091  0.8464 -0.6389
25244SOL     OW84509   6.177  10.091   4.670  0.2284 -0.0816  0.2763
25244SOL    HW184510   6.091  10.094   4.629 -0.1575 -2.6282  0.7430
25244SOL    HW284511   6.160  10.103   4.764  0.4725  0.1212  0.2963
25245SOL     OW84512   8.570   3.011   9.261  0.3027 -0.1278 -0.6743
25245SOL    HW184513   8.595   3.100   9.236  1.6381 -0.4228 -0.4996
25245SOL    HW284514   8.506   2.985   9.195  1.9961 -0.0428 -2.4401
25246SOL     OW84515  12.332   1.003   5.453  0.2342 -0.1626 -0.4876
25246SOL    HW184516  12.320   1.021   5.546  0.3336  0.3050 -0.5634
25246SOL    HW284517  12.284   1.072   5.408  1.6390  0.6608 -0.7793
25247SOL     OW84518   3.102   2.884  11.779  0.0862 -0.4961 -0.1751
25247SOL    HW184519   3.055   2.964  11.803 -0.0080 -0.3127 -0.9396
25247SOL    HW284520   3.044   2.813  11.806  0.7815 -0.3618  1.7983
25248SOL     OW84521   9.979   1.129   0.915  0.2005 -0.3236  0.1351
25248SOL    HW184522   9.896   1.167   0.946 -0.7410 -0.0033 -2.4971
25248SOL    HW284523   9.955   1.042   0.884  0.1658  0.6271 -2.9364
25249SOL     OW84524  10.756   7.215   1.071 -0.1809  0.4522  0.1556
25249SOL    HW184525  10.722   7.127   1.053 -1.2037  1.0261 -0.8401
25249SOL    HW284526  10.678   7.271   1.071  0.6837  1.7350 -1.6759
25250SOL     OW84527   5.025   4.317   9.509  0.1290 -0.0575  0.0480
25250SOL    HW184528   5.022   4.300   9.415  1.0042 -0.7309  0.1386
25250SOL    HW284529   5.117   4.307   9.533 -0.0322  0.4597  0.9164
25251SOL     OW84530  10.938   2.832   0.733 -0.3734  0.2571  0.0962
25251SOL    HW184531  10.935   2.911   0.786 -2.8962 -0.4716  1.2224
25251SOL    HW284532  10.890   2.767   0.785  0.6961 -1.7255 -1.2535
25252SOL     OW84533   6.224   3.275   7.187  0.1027 -0.6041  0.4387
25252SOL    HW184534   6.274   3.308   7.262  0.5522  1.4832 -0.6997
25252SOL    HW284535   6.135   3.264   7.221  0.2844  0.3474  1.2905
25253SOL     OW84536   5.809   9.594   2.078  0.0934 -0.0303 -0.1609
25253SOL    HW184537   5.834   9.632   1.994 -0.5321  1.1341  0.1612
25253SOL    HW284538   5.889   9.595   2.130  0.2609  0.1130 -0.4198
25254SOL     OW84539   9.855  11.639   8.322  0.1550  0.3050  0.4445
25254SOL    HW184540   9.897  11.674   8.401  3.2963 -0.4382 -0.7204
25254SOL    HW284541   9.829  11.550   8.346  0.4146  0.3351  0.8502
25255SOL     OW84542   9.514   7.746   3.245  0.0509  0.2276  0.1762
25255SOL    HW184543   9.459   7.807   3.198  0.4626  0.1349 -0.4442
25255SOL    HW284544   9.461   7.716   3.319 -0.0582  1.5107  0.6270
25256SOL     OW84545   2.121  11.896   0.814 -0.5996 -0.1685  0.0469
25256SOL    HW184546   2.154  11.845   0.740 -1.7586  0.7970 -1.1875
25256SOL    HW284547   2.076  11.831   0.869  1.2083 -1.0790  0.5160
25257SOL     OW84548   0.875   2.546   4.174  0.2416 -0.2849 -0.3209
25257SOL    HW184549   0.835   2.475   4.124 -0.4979 -0.5623  0.6325
25257SOL    HW284550   0.813   2.619   4.165 -0.0372 -0.4252  0.4071
25258SOL     OW84551  11.137  12.461   8.250  0.5625  0.0976 -0.0439
25258SOL    HW184552  11.216  12.499   8.290  1.3127 -2.5232  1.1727
25258SOL    HW284553  11.150  12.471   8.156  1.7339  0.8324  0.1739
25259SOL     OW84554   6.097   0.132   4.590  0.0086  0.0790 -0.1199
25259SOL    HW184555   6.092   0.064   4.657  2.3549 -3.2118 -2.8654
25259SOL    HW284556   6.006   0.149   4.567 -0.7774  0.1156  2.6624
25260SOL     OW84557   8.251  10.389   0.664 -0.4764 -0.5837  0.0917
25260SOL    HW184558   8.347  10.394   0.666 -0.5507  1.2545  1.4390
25260SOL    HW284559   8.227  10.438   0.585 -0.3381  0.0502  0.4360
25261SOL     OW84560   8.250  12.328   3.723  0.3103  0.0862  0.2949
25261SOL    HW184561   8.223  12.386   3.794  0.1048 -1.6143  1.6481
25261SOL    HW284562   8.180  12.264   3.717  0.3689  0.1394 -1.4170
25262SOL     OW84563  10.826  12.431   7.595 -0.4207 -0.5964 -0.0280
25262SOL    HW184564  10.810  12.506   7.538  0.5153 -0.6525 -0.3877
25262SOL    HW284565  10.770  12.446   7.671  0.1602  0.7685  0.1709
25263SOL     OW84566  10.683   3.246   0.260 -0.1496  0.4297  0.3310
25263SOL    HW184567  10.684   3.339   0.281  1.5160  0.1437  1.7299
25263SOL    HW284568  10.663   3.203   0.343 -0.7706 -0.4995 -0.2699
25264SOL     OW84569   8.515   9.783  10.553  0.2775  0.4693  0.3623
25264SOL    HW184570   8.606   9.761  10.532  0.4175  0.5549  0.8692
25264SOL    HW284571   8.466   9.703  10.536  0.7547 -0.2208  2.0159
25265SOL     OW84572  12.107  10.301   5.006  0.0951  0.5425  0.2316
25265SOL    HW184573  12.160  10.296   4.926  0.6617  1.0083  0.5702
25265SOL    HW284574  12.132  10.384   5.046 -0.3387  0.4061  0.7911
25266SOL     OW84575   9.577   3.589   5.928 -0.2996  0.2600  0.4336
25266SOL    HW184576   9.580   3.506   5.976 -1.1308  0.2377  0.4731
25266SOL    HW284577   9.565   3.564   5.837  1.0194  0.3101  0.2272
25267SOL     OW84578   4.333   9.484   4.896 -0.2986  0.1241  0.3161
25267SOL    HW184579   4.272   9.497   4.824 -1.7249  0.1521  1.4911
25267SOL    HW284580   4.278   9.484   4.975  0.8409 -2.6367  1.2306
25268SOL     OW84581   8.957   7.265  12.604  0.1080  0.6275  0.4788
25268SOL    HW184582   9.031   7.251  12.545  1.3314 -0.0467  2.0896
25268SOL    HW284583   8.941   7.178  12.643 -2.8719  0.2701 -1.2632
25269SOL     OW84584   4.182   5.142   5.825 -0.4006  0.0257 -0.0944
25269SOL    HW184585   4.107   5.097   5.865 -1.9116  1.3842 -1.2520
25269SOL    HW284586   4.159   5.234   5.828  1.8737  0.6295  0.6991
25270SOL     OW84587  11.245  12.404   3.358 -0.0751  0.4622  0.4411
25270SOL    HW184588  11.286  12.455   3.288  0.9821 -0.2310  0.5329
25270SOL    HW284589  11.316  12.350   3.393 -1.3105 -1.6561 -0.1589
25271SOL     OW84590   5.450   1.376   1.584 -0.5651 -0.2168  0.0367
25271SOL    HW184591   5.377   1.437   1.593 -0.7520 -0.6440  1.8398
25271SOL    HW284592   5.414   1.291   1.610  0.1217 -0.7761 -0.8028
25272SOL     OW84593   2.729   6.224   8.635 -0.0213  0.4516  0.1566
25272SOL    HW184594   2.698   6.310   8.606  0.3846  0.5799  0.0981
25272SOL    HW284595   2.780   6.191   8.561 -0.2840  0.0997  0.1273
25273SOL     OW84596   9.732   6.604   4.489  0.5304 -0.1515 -0.4318
25273SOL    HW184597   9.807   6.582   4.544  2.0883 -0.0595 -2.3762
25273SOL    HW284598   9.738   6.699   4.476  0.6052 -0.2610 -1.2762
25274SOL     OW84599   6.775   9.179   5.895  0.3516  0.3998 -0.6054
25274SOL    HW184600   6.826   9.222   5.826  1.9592  0.3123  0.4827
25274SOL    HW284601   6.838   9.123   5.940 -0.8445 -0.1564  0.4446
25275SOL     OW84602  11.953  10.553  12.340  0.0262  0.4794  0.7504
25275SOL    HW184603  12.007  10.477  12.320 -0.5724  0.2245  0.0658
25275SOL    HW284604  12.008  10.628  12.320 -0.2529  0.2331 -1.1114
25276SOL     OW84605   8.081   2.796   2.761 -0.1042  0.4066  0.2881
25276SOL    HW184606   8.099   2.876   2.810  0.2180 -0.3447  1.4278
25276SOL    HW284607   8.117   2.813   2.674  3.6886  0.0786  1.5919
25277SOL     OW84608   1.379   0.597   2.602 -0.5640  0.0216  0.3663
25277SOL    HW184609   1.352   0.556   2.684 -1.6851  4.0848  2.2717
25277SOL    HW284610   1.304   0.650   2.575  0.7794  1.0072 -1.7117
25278SOL     OW84611   2.739   1.327  12.611  0.1652  0.7366 -0.2475
25278SOL    HW184612   2.702   1.367  12.532  0.2359 -1.7537 -1.6229
25278SOL    HW284613   2.668   1.273  12.646  1.2607 -1.0999 -0.7669
25279SOL     OW84614   1.312   7.404  10.227  0.2495  0.0977  0.9767
25279SOL    HW184615   1.276   7.367  10.308 -0.3393 -2.1437 -0.2202
25279SOL    HW284616   1.406   7.408  10.243  0.1656 -0.4979  1.7167
25280SOL     OW84617   8.416   6.102   7.236  0.2455 -0.2915 -0.1869
25280SOL    HW184618   8.476   6.168   7.272  1.1525 -0.7497 -0.8281
25280SOL    HW284619   8.385   6.054   7.313 -0.7481  1.1020  0.3435
25281SOL     OW84620   5.834   7.045   4.031 -0.2132  0.2677  0.3663
25281SOL    HW184621   5.917   7.004   4.006 -0.1537 -0.5266  1.8117
25281SOL    HW284622   5.825   7.118   3.969  0.9717 -0.3287 -0.5656
25282SOL     OW84623   7.924  12.075  12.082  0.5391 -0.3004 -0.4312
25282SOL    HW184624   7.857  12.140  12.063  0.4375  0.4964  2.3194
25282SOL    HW284625   7.886  11.992  12.053 -0.1306  0.5386 -2.1541
25283SOL     OW84626  10.779   4.213   3.533 -0.3371 -0.7573 -0.1428
25283SOL    HW184627  10.706   4.237   3.591  0.6799 -1.7586  1.6375
25283SOL    HW284628  10.827   4.146   3.581  2.5474  0.7697 -0.6442
25284SOL     OW84629  12.069   9.596   1.684 -0.5235 -0.6663  0.3909
25284SOL    HW184630  12.063   9.512   1.729 -0.7589 -1.3755 -0.9268
25284SOL    HW284631  12.162   9.619   1.686 -0.5552 -0.5919  1.3828
25285SOL     OW84632   3.891  12.561   0.444 -0.3509  0.2206 -0.0844
25285SOL    HW184633   3.841  12.577   0.524 -0.3522  2.0490 -0.4177
25285SOL    HW284634   3.957  12.497   0.470 -0.9697  0.0334  1.1135
25286SOL     OW84635  11.949   7.533   3.434 -0.3128  0.5889  0.3347
25286SOL    HW184636  12.024   7.588   3.412  1.2080 -1.6409 -0.4633
25286SOL    HW284637  11.904   7.580   3.504  2.5408  1.4564  1.7398
25287SOL     OW84638   4.380  10.264   5.011 -0.4310  0.4443  0.3783
25287SOL    HW184639   4.347  10.337   4.959 -0.0919 -0.6850 -1.5396
25287SOL    HW284640   4.335  10.187   4.975  1.3927 -0.6479  0.3074
25288SOL     OW84641   6.194   0.004   3.109  0.6531  0.2778  0.3125
25288SOL    HW184642   6.212   0.097   3.122  0.5351  0.3977 -0.3415
25288SOL    HW284643   6.178  -0.030   3.197 -0.0499  1.0269  0.4828
25289SOL     OW84644  12.210   0.759   0.308 -0.1513  0.4326 -0.3625
25289SOL    HW184645  12.304   0.743   0.316 -0.3615 -0.2096  1.2090
25289SOL    HW284646  12.184   0.714   0.228  0.4031 -1.9123  0.6906
25290SOL     OW84647  10.894   3.065   1.251 -0.6420  0.1809  0.4243
25290SOL    HW184648  10.922   3.143   1.202  0.6123 -0.5475 -0.0759
25290SOL    HW284649  10.808   3.088   1.286 -0.8202  1.3552 -0.7046
25291SOL     OW84650   6.282   9.738   5.531  0.1458  0.6364 -0.1678
25291SOL    HW184651   6.187   9.729   5.538  0.3482 -1.1949  1.0127
25291SOL    HW284652   6.304   9.812   5.587 -0.4055 -0.2984  1.3317
25292SOL     OW84653   5.889   8.597   3.444  0.4015 -0.6473  0.0946
25292SOL    HW184654   5.917   8.668   3.387 -2.3080 -0.2860 -0.9307
25292SOL    HW284655   5.919   8.623   3.531 -0.3294  1.6866 -0.2836
25293SOL     OW84656  12.347   2.182   1.602 -0.1201 -0.3403  0.2108
25293SOL    HW184657  12.347   2.247   1.672  0.9992  1.0515 -1.0255
25293SOL    HW284658  12.263   2.194   1.558  0.5209  1.0560 -0.6779
25294SOL     OW84659   0.343   5.442   6.127  0.3511 -0.6050  0.2290
25294SOL    HW184660   0.263   5.397   6.153  1.0418 -0.1557  3.5501
25294SOL    HW284661   0.321   5.483   6.043 -3.1887  0.1750  1.3443
25295SOL     OW84662   2.317   8.405   3.674  0.2758  0.5397  0.2658
25295SOL    HW184663   2.356   8.478   3.722 -1.6376  1.8107  0.0353
25295SOL    HW284664   2.292   8.342   3.741 -0.2342  1.2232  0.7291
25296SOL     OW84665   5.865   5.293   5.457  0.5937  0.0294  0.4731
25296SOL    HW184666   5.788   5.283   5.514  1.1760 -0.4595  1.2000
25296SOL    HW284667   5.861   5.217   5.399  0.5676 -0.0424  0.5670
25297SOL     OW84668   8.952   5.978   7.500 -0.2473  0.1014 -0.1458
25297SOL    HW184669   9.011   6.053   7.508  0.0746 -0.1149 -0.4299
25297SOL    HW284670   8.898   5.981   7.579 -1.5889  1.7750 -1.0522
25298SOL     OW84671  10.247   8.806   4.176  0.0913 -0.3976  0.3618
25298SOL    HW184672  10.247   8.897   4.146  0.5477 -0.8058 -0.9040
25298SOL    HW284673  10.333   8.795   4.218 -0.2904 -0.0211  1.2764
25299SOL     OW84674   8.643   9.815   5.540  0.1415 -0.3937  0.2350
25299SOL    HW184675   8.735   9.806   5.516  0.2728  0.1996  0.4856
25299SOL    HW284676   8.608   9.726   5.539  0.8136 -0.6619  0.5125
25300SOL     OW84677   0.770  10.244   8.037  0.0450 -0.1531  0.3656
25300SOL    HW184678   0.819  10.312   8.083  2.9321 -0.5803 -1.7704
25300SOL    HW284679   0.803  10.162   8.074 -1.1453 -0.4589  0.7920
25301SOL     OW84680   8.344   2.751   5.191  0.1839  0.2892  0.0471
25301SOL    HW184681   8.310   2.696   5.121 -2.2823  0.7145  0.8164
25301SOL    HW284682   8.340   2.840   5.156  0.2555  0.3741  0.2527
25302SOL     OW84683   0.537   7.899   3.268 -0.5578  0.3049 -0.4755
25302SOL    HW184684   0.613   7.900   3.325 -0.5481 -0.4170 -0.4646
25302SOL    HW284685   0.570   7.929   3.183  0.6824 -3.5866 -1.5595
25303SOL     OW84686  11.281   0.601   9.271 -0.4343 -0.7100  0.2508
25303SOL    HW184687  11.291   0.515   9.231 -1.6202 -1.4964  1.5462
25303SOL    HW284688  11.354   0.607   9.333  0.9653  0.2010 -1.3886
25304SOL     OW84689  11.764   0.213   1.512 -0.2646  0.4071  0.0864
25304SOL    HW184690  11.838   0.262   1.476  2.0420 -1.5681  1.7666
25304SOL    HW284691  11.715   0.183   1.435  1.4187  0.7467 -1.1614
25305SOL     OW84692   7.531   1.493   9.403  0.5296  0.8717 -0.4986
25305SOL    HW184693   7.594   1.495   9.331  1.1072  2.8601 -0.0088
25305SOL    HW284694   7.445   1.490   9.360  0.9018  0.6453 -1.2362
25306SOL     OW84695   1.198   4.160  10.170  0.3863  0.1987  0.2230
25306SOL    HW184696   1.104   4.150  10.153  0.1776  2.0724  0.0751
25306SOL    HW284697   1.228   4.072  10.190 -1.6432 -0.2950  1.4028
25307SOL     OW84698   2.077   7.926   1.409 -0.2043 -0.3229 -0.1800
25307SOL    HW184699   2.065   7.998   1.347  0.4160 -0.6752 -0.7255
25307SOL    HW284700   2.054   7.848   1.359  2.0011 -0.7903 -0.5419
25308SOL     OW84701  10.638   5.388   5.638  0.5836 -0.5007 -0.2987
25308SOL    HW184702  10.641   5.426   5.550  0.5745  0.1831 -0.0104
25308SOL    HW284703  10.580   5.313   5.630  0.6865 -0.5221 -0.9061
25309SOL     OW84704   1.507  11.073  12.420 -0.4809  0.1542  0.0506
25309SOL    HW184705   1.419  11.096  12.390 -0.4763  0.2104  0.0794
25309SOL    HW284706   1.549  11.158  12.436 -0.7895  0.1114  1.1301
25310SOL     OW84707  11.355  11.566   4.726 -0.7492  0.2125 -0.2064
25310SOL    HW184708  11.273  11.614   4.712 -0.1695  1.0814 -0.7199
25310SOL    HW284709  11.394  11.609   4.802 -0.4091  0.3121 -0.4359
25311SOL     OW84710   4.349   2.824   4.496 -0.2190 -0.1290  0.0240
25311SOL    HW184711   4.426   2.870   4.529 -0.4225 -0.3597  0.8311
25311SOL    HW284712   4.304   2.889   4.442  0.7327 -0.1052 -0.7727
25312SOL     OW84713  10.634   7.725   5.645 -0.3080 -0.2242 -0.2646
25312SOL    HW184714  10.604   7.811   5.675 -1.7117 -0.6225 -0.4665
25312SOL    HW284715  10.648   7.737   5.551  1.7631  0.3772  0.0721
25313SOL     OW84716   5.796   8.378   9.790  0.0927  0.2463  0.3195
25313SOL    HW184717   5.809   8.467   9.824  0.0353  0.8448 -1.1124
25313SOL    HW284718   5.882   8.352   9.758  0.7741 -1.3819  3.2149
25314SOL     OW84719   8.756   1.705   4.022  0.7065  0.0946 -0.0529
25314SOL    HW184720   8.790   1.627   3.977  1.2628 -0.1688  0.8006
25314SOL    HW284721   8.702   1.671   4.092  0.3822  0.4932 -0.1070
25315SOL     OW84722   5.648   5.363   7.800  0.0151 -0.0730 -0.0054
25315SOL    HW184723   5.628   5.285   7.749 -2.2120  0.7952 -0.5955
25315SOL    HW284724   5.585   5.361   7.872  0.0974  1.0264  0.1208
25316SOL     OW84725   0.622   1.449   2.645 -0.7967  0.2243 -0.2441
25316SOL    HW184726   0.573   1.429   2.724  0.4858  0.5377  0.6648
25316SOL    HW284727   0.591   1.535   2.618 -0.5595  0.5355  0.4687
25317SOL     OW84728  10.464   0.548  10.246 -0.2983  0.0210 -0.5201
25317SOL    HW184729  10.464   0.590  10.160  0.7955  0.7857 -0.1777
25317SOL    HW284730  10.554   0.516  10.256 -0.9058 -1.7184 -0.4326
25318SOL     OW84731  11.066  12.497   9.117 -0.5915  0.9389 -0.5695
25318SOL    HW184732  11.124  12.481   9.191 -0.6879 -1.0160 -0.8682
25318SOL    HW284733  11.112  12.563   9.064  2.3367 -1.7471 -1.7306
25319SOL     OW84734  11.779   2.996   6.472 -0.2781  0.5476  0.0524
25319SOL    HW184735  11.783   2.998   6.567 -1.7239  2.4446  0.1457
25319SOL    HW284736  11.870   3.006   6.443  0.0599  1.0546  1.2539
25320SOL     OW84737   2.050  10.190   6.745 -0.3023 -0.3171  0.6198
25320SOL    HW184738   2.105  10.222   6.816  1.3731 -0.0339 -0.7545
25320SOL    HW284739   1.966  10.171   6.787  0.1307  1.3391  2.3662
25321SOL     OW84740   8.045  12.189   5.065  0.3823  0.6921  0.3519
25321SOL    HW184741   8.036  12.183   4.970  1.2574 -0.4402  0.3085
25321SOL    HW284742   8.118  12.249   5.079  0.2588  0.8523  0.3038
25322SOL     OW84743   0.489   4.889  11.768 -0.0101 -0.2633  0.3046
25322SOL    HW184744   0.420   4.946  11.803 -0.1832 -0.3181  0.0560
25322SOL    HW284745   0.450   4.802  11.768 -0.9177  0.0487 -2.2712
25323SOL     OW84746  11.167  12.361   0.531  0.5814 -0.4298  0.4312
25323SOL    HW184747  11.231  12.380   0.463  0.9323 -3.7885 -0.3245
25323SOL    HW284748  11.099  12.311   0.487 -0.9468  0.2539  1.8995
25324SOL     OW84749  11.248   0.095   0.403  0.3524 -0.2189  0.0911
25324SOL    HW184750  11.268   0.166   0.464 -0.3866 -0.2106  0.3326
25324SOL    HW284751  11.160   0.067   0.427  0.5477 -1.0649 -0.1546
25325SOL     OW84752   5.393   2.563   5.999  0.2418  0.9131  0.0536
25325SOL    HW184753   5.358   2.507   6.068  1.8249 -0.2065  0.0095
25325SOL    HW284754   5.375   2.652   6.030 -0.8638  0.4118  0.9288
25326SOL     OW84755  10.839  10.288  12.235 -0.0734 -0.1303  0.0800
25326SOL    HW184756  10.885  10.356  12.283 -0.6169 -0.3641  0.9657
25326SOL    HW284757  10.803  10.332  12.159  1.3801  0.1071 -0.4996
25327SOL     OW84758  10.391   3.728   0.938 -0.0982 -0.5112  0.5765
25327SOL    HW184759  10.422   3.740   1.028 -2.0340  1.7250  1.0587
25327SOL    HW284760  10.415   3.638   0.916  0.9356 -0.9458  3.1246
25328SOL     OW84761   0.014  10.319   3.166  0.2770 -0.4392  0.2217
25328SOL    HW184762   0.079  10.335   3.234 -0.2044  3.0130  0.0797
25328SOL    HW284763   0.052  10.357   3.087 -1.1355  0.0133 -0.2775
25329SOL     OW84764   9.674  10.848   3.040  0.4013 -0.5977  0.3702
25329SOL    HW184765   9.687  10.867   3.133 -1.0705 -0.6781  0.6215
25329SOL    HW284766   9.580  10.856   3.028  0.3195 -2.6451 -0.6570
25330SOL     OW84767   2.938  12.069  11.714 -0.5050  0.0145  0.0551
25330SOL    HW184768   2.983  11.996  11.672 -1.6804 -1.2480  0.8912
25330SOL    HW284769   3.002  12.103  11.777 -0.2176 -0.8357  0.2418
25331SOL     OW84770  10.848   2.881   2.599 -0.3899 -0.3767  0.2085
25331SOL    HW184771  10.914   2.947   2.617  1.6185 -1.4350 -2.4483
25331SOL    HW284772  10.880   2.802   2.642 -0.4765 -0.6320 -0.1818
25332SOL     OW84773  12.413   9.248  12.481  0.3316 -0.0458 -0.6278
25332SOL    HW184774  12.448   9.328  12.443  2.2382  0.6325  2.2181
25332SOL    HW284775  12.324   9.271  12.509  0.3178  0.5964 -1.1780
25333SOL     OW84776   5.725   7.044  10.308  0.3384  0.2842 -0.3201
25333SOL    HW184777   5.688   7.012  10.226 -0.8793  0.0156  0.2964
25333SOL    HW284778   5.735   7.138  10.295 -0.0527  0.2774 -0.7083
25334SOL     OW84779   8.056   0.811   3.686  0.4345  0.0851  0.2375
25334SOL    HW184780   7.965   0.798   3.711  0.9483 -0.3067  2.0556
25334SOL    HW284781   8.058   0.792   3.592 -1.1548 -0.9745  0.3771
25335SOL     OW84782   4.466   1.763   9.402  0.2282 -0.1078 -0.4438
25335SOL    HW184783   4.443   1.820   9.328  1.1051 -0.4004 -0.9552
25335SOL    HW284784   4.390   1.705   9.412 -0.4821  0.8416 -0.2053
25336SOL     OW84785   0.183   7.553  12.429  0.0119  0.1172 -0.0591
25336SOL    HW184786   0.095   7.524  12.406  0.3627 -0.7914 -0.3119
25336SOL    HW284787   0.170   7.632  12.481 -0.9005  0.9486 -1.4842
25337SOL     OW84788   2.541   2.293   5.514 -0.0398  0.0270 -0.3184
25337SOL    HW184789   2.541   2.382   5.480  0.1803  0.0110 -0.3621
25337SOL    HW284790   2.631   2.264   5.504 -0.0383 -0.0806  0.0150
25338SOL     OW84791   3.336   9.486   8.675  0.4360 -0.6052  0.0939
25338SOL    HW184792   3.349   9.528   8.590  1.2408  2.4477  1.5702
25338SOL    HW284793   3.378   9.401   8.667  0.8131 -0.2473 -2.4252
25339SOL     OW84794   6.489   0.355  10.348 -0.3547  0.0979  0.0747
25339SOL    HW184795   6.442   0.335  10.268  0.1197  0.0498 -0.1941
25339SOL    HW284796   6.459   0.289  10.411  0.4053 -0.8313 -0.5026
25340SOL     OW84797   0.040   7.281   9.011  0.0116 -0.0268  0.5308
25340SOL    HW184798   0.101   7.258   8.941  0.7989  0.0877  1.1599
25340SOL    HW284799   0.094   7.280   9.090 -0.8502 -0.0901  1.1253
25341SOL     OW84800   6.146   9.896  11.280  0.0972  0.1909 -0.6443
25341SOL    HW184801   6.214   9.925  11.220  0.7416  0.0135 -0.0168
25341SOL    HW284802   6.192   9.840  11.343 -0.6282  0.0718 -0.2074
25342SOL     OW84803   0.394   0.695   5.623  0.5134  0.2257 -0.3303
25342SOL    HW184804   0.422   0.700   5.714 -1.9253 -2.1058  0.6772
25342SOL    HW284805   0.471   0.664   5.576  1.3052 -0.3065  1.2383
25343SOL     OW84806  12.072   9.858   9.767 -0.3052 -0.5580 -0.1641
25343SOL    HW184807  12.109   9.849   9.854 -0.8653 -0.6064  0.0703
25343SOL    HW284808  11.978   9.844   9.778 -0.5655  0.7171 -0.5646
25344SOL     OW84809   3.857   3.556   1.950 -0.9084  0.1970 -0.1744
25344SOL    HW184810   3.875   3.503   2.027 -1.1725 -0.3784 -0.5022
25344SOL    HW284811   3.762   3.567   1.950 -0.9802 -0.3298 -0.7448
25345SOL     OW84812   9.020   1.452  11.158 -0.5161  0.4305  0.3062
25345SOL    HW184813   8.964   1.392  11.109 -0.7502  0.7299  0.2022
25345SOL    HW284814   8.977   1.463  11.242  0.5249 -1.0513  1.0676
25346SOL     OW84815   1.780   8.727  11.880 -0.0137 -0.2237  0.2082
25346SOL    HW184816   1.697   8.703  11.840  0.8723  1.0211 -2.6275
25346SOL    HW284817   1.832   8.647  11.877 -0.1767 -0.3083 -0.6562
25347SOL     OW84818   6.554   5.316  10.536 -0.4399 -0.4781  0.2765
25347SOL    HW184819   6.615   5.245  10.514  0.1638  0.2785 -0.5578
25347SOL    HW284820   6.593   5.394  10.497 -0.6537  0.4817  1.8935
25348SOL     OW84821   6.958   4.397   7.499 -0.1002  0.4283 -0.5314
25348SOL    HW184822   6.888   4.434   7.554  0.2296  0.2025  0.0522
25348SOL    HW284823   7.022   4.468   7.491 -0.7848  0.9286 -1.7870
25349SOL     OW84824   9.415   4.902  11.437  0.0870  0.2092  0.5286
25349SOL    HW184825   9.507   4.921  11.455  0.1157  1.7644 -0.9835
25349SOL    HW284826   9.369   4.932  11.515  0.8279 -0.4416  1.2365
25350SOL     OW84827   4.684   7.958   5.979  0.4004  0.1325  0.3791
25350SOL    HW184828   4.713   7.871   5.952  0.8307 -0.0357  1.3496
25350SOL    HW284829   4.745   8.018   5.936  0.0184 -0.0202 -0.4026
25351SOL     OW84830  12.284   0.599   2.356  0.2933 -0.4632 -0.1328
25351SOL    HW184831  12.318   0.689   2.360  1.8677 -1.0349 -0.0956
25351SOL    HW284832  12.362   0.544   2.363 -0.3897 -1.8464 -2.4417
25352SOL     OW84833  11.756   6.087   5.652  0.4197  0.0847  0.1579
25352SOL    HW184834  11.848   6.067   5.636  0.8070  1.2431  0.7987
25352SOL    HW284835  11.746   6.178   5.624 -0.6336 -0.1412 -0.2709
25353SOL     OW84836   7.505   6.556   6.545  0.2412  0.1605  0.6434
25353SOL    HW184837   7.567   6.509   6.601  1.3378 -0.4850 -1.0207
25353SOL    HW284838   7.462   6.487   6.495  0.9080  0.8274 -0.8978
25354SOL     OW84839   9.083   5.338   4.750 -0.2102  0.3698  0.0729
25354SOL    HW184840   9.101   5.431   4.741  0.4992  0.1604 -0.7711
25354SOL    HW284841   9.168   5.298   4.770 -0.1886 -0.2881 -1.2204
25355SOL     OW84842  11.552   5.426   7.961 -0.3391 -0.4430  0.0530
25355SOL    HW184843  11.515   5.509   7.994  0.5416  0.2592 -0.6734
25355SOL    HW284844  11.561   5.372   8.039  1.2995  1.0142  0.9431
25356SOL     OW84845   5.160   5.436   8.427 -0.1342  0.2852  0.5142
25356SOL    HW184846   5.198   5.524   8.415  0.2622  0.0698  0.1588
25356SOL    HW284847   5.088   5.433   8.364 -0.2304  0.4001  0.6172
25357SOL     OW84848   2.120  10.771   6.904 -0.0099  0.4493 -0.0625
25357SOL    HW184849   2.117  10.766   6.999 -0.1986 -1.4269 -0.1197
25357SOL    HW284850   2.210  10.796   6.884  0.5525 -0.8924  0.6176
25358SOL     OW84851   9.905  12.006  10.486 -0.2537 -0.3454 -0.0269
25358SOL    HW184852   9.849  12.042  10.555 -0.4147  1.0251 -0.8301
25358SOL    HW284853   9.993  12.006  10.524 -0.5368 -0.9667  0.6653
25359SOL     OW84854   2.722   6.504   5.407  0.3755  0.0643  0.0578
25359SOL    HW184855   2.743   6.572   5.343 -1.0538  0.7271  0.2600
25359SOL    HW284856   2.676   6.437   5.356 -0.9761  0.7012  0.3937
25360SOL     OW84857   3.705   6.053   2.965  0.1070  0.3050 -0.0422
25360SOL    HW184858   3.692   6.144   2.993 -0.1694  0.2105  0.1440
25360SOL    HW284859   3.735   6.008   3.044  0.6803  0.3262 -0.2443
25361SOL     OW84860   9.410   1.555  10.896  0.0002 -0.6449 -0.3037
25361SOL    HW184861   9.447   1.634  10.856  1.4708 -0.9318  0.4247
25361SOL    HW284862   9.327   1.584  10.934  0.3428  0.4643 -0.3641
25362SOL     OW84863  12.232   2.913  10.850  0.5410  0.1986  0.4574
25362SOL    HW184864  12.234   2.980  10.782  1.4348  1.7589  1.9445
25362SOL    HW284865  12.315   2.923  10.896  0.4944 -1.6464  1.0359
25363SOL     OW84866   0.315  10.865   7.947  0.2115  0.0881  0.2211
25363SOL    HW184867   0.381  10.905   8.003  0.0207  1.5726 -0.5576
25363SOL    HW284868   0.306  10.925   7.873 -0.1058 -1.4204 -1.0288
25364SOL     OW84869  10.608   7.372   8.101 -0.1341 -0.2174 -0.2942
25364SOL    HW184870  10.643   7.291   8.064  0.1245 -0.1480 -0.2050
25364SOL    HW284871  10.517   7.350   8.124 -0.2005 -0.3498 -0.6775
25365SOL     OW84872   2.539  11.808   2.068 -0.4081 -0.1330 -0.0491
25365SOL    HW184873   2.493  11.760   2.137 -0.1491  1.2366  1.1213
25365SOL    HW284874   2.629  11.814   2.100 -0.1461  0.0026 -0.7978
25366SOL     OW84875   6.646  10.340  10.203  0.3971 -0.0965 -0.2204
25366SOL    HW184876   6.582  10.356  10.133 -0.7730  0.1774  0.8706
25366SOL    HW284877   6.688  10.258  10.178  0.7258  0.4885 -1.7490
25367SOL     OW84878   4.511   5.131   7.107 -0.5003 -0.2099 -0.3661
25367SOL    HW184879   4.592   5.162   7.147 -0.6094 -0.5047  0.0950
25367SOL    HW284880   4.527   5.138   7.013 -0.0336 -0.0285 -0.2776
25368SOL     OW84881   7.050   2.310   7.995 -0.5179 -0.2448 -0.5441
25368SOL    HW184882   7.021   2.395   7.962  1.2671  0.8652  0.5807
25368SOL    HW284883   6.969   2.267   8.025 -1.5013  0.8428 -1.5362
25369SOL     OW84884   0.851   6.121   4.534 -0.6757  0.0972  0.6366
25369SOL    HW184885   0.945   6.122   4.515 -0.7303  1.6891  0.3032
25369SOL    HW284886   0.845   6.094   4.625  0.0509 -0.8263  0.4144
25370SOL     OW84887   6.627   9.688   0.432 -0.2956  0.0992  0.1173
25370SOL    HW184888   6.611   9.670   0.339  1.3157  0.1206 -0.1884
25370SOL    HW284889   6.627   9.603   0.474 -1.0903  0.0933  0.1130
25371SOL     OW84890   5.894  11.473   5.719  0.8264 -0.3948  0.2051
25371SOL    HW184891   5.854  11.557   5.699  1.8194  0.0181 -0.1032
25371SOL    HW284892   5.974  11.494   5.767  0.6032 -1.2099  0.9748
25372SOL     OW84893   2.477   5.547  12.592  0.3727 -0.4373  0.2647
25372SOL    HW184894   2.448   5.465  12.552 -3.1164  0.3728  0.8058
25372SOL    HW284895   2.518   5.595  12.521 -0.0580 -1.5408 -0.7740
25373SOL     OW84896   2.675   6.801   7.560  0.6132  0.6636 -0.2991
25373SOL    HW184897   2.677   6.857   7.482 -2.2892 -0.5977 -1.4398
25373SOL    HW284898   2.728   6.725   7.536 -0.3358  0.2426 -1.1215
25374SOL     OW84899  10.914   2.591  10.919 -0.3132  0.3054  0.0572
25374SOL    HW184900  10.910   2.685  10.903 -1.0728  0.4708  1.1193
25374SOL    HW284901  10.822   2.564  10.925 -0.1153 -0.0792  2.0388
25375SOL     OW84902   6.029   3.709  12.408 -0.2809 -0.6278  0.2989
25375SOL    HW184903   6.054   3.665  12.490  1.5020 -0.8477 -0.3191
25375SOL    HW284904   6.068   3.797  12.416 -0.9343 -0.3178  0.0918
25376SOL     OW84905   5.513   3.693   6.371 -0.5062  0.1380  0.3701
25376SOL    HW184906   5.503   3.661   6.282 -1.2463 -0.9815  0.8298
25376SOL    HW284907   5.423   3.700   6.404 -0.2500  0.7856  0.9367
25377SOL     OW84908   1.394   9.506   5.425  0.3947  0.1655  0.3667
25377SOL    HW184909   1.450   9.547   5.359  0.5863 -1.0144 -0.2417
25377SOL    HW284910   1.418   9.548   5.507 -0.7561  2.5941 -0.4606
25378SOL     OW84911   0.206   4.630   0.735 -0.1000  0.3342  0.3706
25378SOL    HW184912   0.195   4.547   0.688  1.0005 -0.5080  1.5311
25378SOL    HW284913   0.296   4.657   0.716  0.3293  0.0317  1.8671
25379SOL     OW84914   3.535   6.818   2.106  0.1252 -0.4579 -0.7873
25379SOL    HW184915   3.493   6.900   2.080  1.4043 -0.0380 -1.6389
25379SOL    HW284916   3.546   6.826   2.201 -0.6130 -0.0595 -0.7280
25380SOL     OW84917   9.787   2.871   8.371 -0.3602  0.7856 -0.3150
25380SOL    HW184918   9.867   2.878   8.423  0.7423 -0.0407 -1.8193
25380SOL    HW284919   9.716   2.880   8.435  0.9041  2.2033  0.9706
25381SOL     OW84920   5.406   5.286   4.239 -0.1288  0.1209  0.2016
25381SOL    HW184921   5.320   5.286   4.279 -0.8812  0.5049 -1.3297
25381SOL    HW284922   5.452   5.359   4.280  0.5440 -1.7743  3.0771
25382SOL     OW84923   6.147   8.035   5.421 -0.0319  0.0236  0.5555
25382SOL    HW184924   6.196   8.068   5.497 -0.4146  1.8299  0.0399
25382SOL    HW284925   6.056   8.059   5.438  0.0862  1.9181 -1.1923
25383SOL     OW84926   5.054  11.043   7.362  0.3805  0.0745  0.0842
25383SOL    HW184927   5.115  11.079   7.427  1.7580  1.1177 -1.6666
25383SOL    HW284928   5.016  10.967   7.405 -0.1014  1.6563  2.7320
25384SOL     OW84929   2.716   0.923   7.980  0.7054  0.2569 -0.4559
25384SOL    HW184930   2.758   1.008   7.993 -0.7300  0.8726  0.4133
25384SOL    HW284931   2.658   0.936   7.905  0.3396  0.1026 -0.2012
25385SOL     OW84932   4.988   1.454   9.834  0.0548  0.1517 -0.1120
25385SOL    HW184933   5.056   1.488   9.893 -0.6833 -0.6206  1.2401
25385SOL    HW284934   5.032   1.443   9.750  1.7577 -0.7841  0.8377
25386SOL     OW84935   2.355   3.490  10.662  0.0281 -0.1046 -0.3927
25386SOL    HW184936   2.382   3.471  10.573 -1.9742 -2.4215 -0.6159
25386SOL    HW284937   2.429   3.462  10.717  0.8576  0.3771 -1.2397
25387SOL     OW84938   0.017   3.520   6.487  0.2935 -0.3927 -0.3435
25387SOL    HW184939   0.031   3.434   6.527  1.0820 -0.2097 -0.1977
25387SOL    HW284940  -0.044   3.504   6.416 -1.8037 -0.5992  1.4138
25388SOL     OW84941   0.479   6.751   9.456  0.2263 -0.5267  0.6595
25388SOL    HW184942   0.524   6.780   9.535  2.7874 -1.4967 -0.3519
25388SOL    HW284943   0.526   6.792   9.384 -2.1940  0.5164 -0.4480
25389SOL     OW84944  12.198  10.243   7.883 -0.2714 -0.3872  0.4097
25389SOL    HW184945  12.199  10.318   7.943  0.7950  0.4138 -0.5749
25389SOL    HW284946  12.140  10.271   7.812 -0.0015 -0.5685  0.1179
25390SOL     OW84947   2.950   4.439   2.735 -0.6168 -0.1764  0.0666
25390SOL    HW184948   2.874   4.481   2.696  0.9483  2.2067 -0.6534
25390SOL    HW284949   2.986   4.385   2.665 -1.3789 -1.0065  0.2915
25391SOL     OW84950   7.653   4.553   5.658  0.2471 -0.9347  0.4534
25391SOL    HW184951   7.720   4.604   5.704  0.9107 -0.9639 -0.4578
25391SOL    HW284952   7.687   4.464   5.656  0.9680 -0.6525 -1.4155
25392SOL     OW84953   7.102   0.335   4.918 -0.2269  0.0909 -0.5257
25392SOL    HW184954   7.020   0.290   4.897 -0.2595 -0.7858  1.3372
25392SOL    HW284955   7.095   0.357   5.010  1.4282  0.4516 -0.4580
25393SOL     OW84956   7.274   2.080   2.684 -1.1380 -0.2397  0.0850
25393SOL    HW184957   7.216   2.013   2.720 -1.1381 -0.0028  0.5321
25393SOL    HW284958   7.225   2.162   2.692 -1.3259 -0.2382 -0.8845
25394SOL     OW84959   0.326   9.875   5.362  0.1975 -0.2163  0.1249
25394SOL    HW184960   0.333   9.957   5.313  1.3158 -0.5870 -0.3713
25394SOL    HW284961   0.277   9.898   5.440  1.3314  1.1599  0.4748
25395SOL     OW84962   2.910   4.118   6.676 -0.3972  0.6400 -0.2847
25395SOL    HW184963   2.888   4.210   6.693 -0.5570  0.7433 -1.0276
25395SOL    HW284964   2.988   4.122   6.621  0.0904  0.3134  0.3750
25396SOL     OW84965   1.173   1.044  11.373 -0.3772  0.0129 -0.3441
25396SOL    HW184966   1.247   0.996  11.410 -0.7300 -0.1216  0.1882
25396SOL    HW284967   1.145   0.990  11.299  1.8276  1.4338 -2.3884
25397SOL     OW84968   2.913   2.203   2.207 -0.0713 -0.3832  0.0124
25397SOL    HW184969   2.908   2.151   2.127  0.7060 -1.2050  0.4873
25397SOL    HW284970   3.004   2.196   2.235  0.1493  1.5163 -0.0782
25398SOL     OW84971   7.027   9.221   1.775  0.7226 -0.2995 -0.0596
25398SOL    HW184972   7.074   9.192   1.697 -1.2485 -0.9567 -1.0778
25398SOL    HW284973   6.989   9.140   1.810 -0.9106  0.3778 -0.1862
25399SOL     OW84974   1.896  11.849   4.803  0.4505  0.1816  0.1167
25399SOL    HW184975   1.911  11.828   4.896 -1.4330  0.7682  0.5870
25399SOL    HW284976   1.877  11.764   4.763  1.2743 -0.0762  0.2322
25400SOL     OW84977   4.600  11.857   2.871 -0.5109  0.2998 -0.4771
25400SOL    HW184978   4.686  11.815   2.868 -0.1964  0.8620  0.3969
25400SOL    HW284979   4.583  11.881   2.780 -0.4396 -1.1624 -0.9137
25401SOL     OW84980   8.571   5.123   4.173 -0.0114 -0.9118 -0.2844
25401SOL    HW184981   8.645   5.063   4.182  1.3528  0.5977 -0.9345
25401SOL    HW284982   8.592   5.175   4.096 -0.2992  1.5126  1.1882
25402SOL     OW84983   1.477   3.091   6.486 -0.1853 -0.6067 -0.3989
25402SOL    HW184984   1.415   3.160   6.510 -0.7415 -1.5701  1.0773
25402SOL    HW284985   1.489   3.101   6.392 -0.6941  1.1305 -0.3155
25403SOL     OW84986   2.238   0.988   3.019  0.3391 -0.6454 -0.1558
25403SOL    HW184987   2.279   0.903   3.029 -2.2292 -2.0340 -0.5899
25403SOL    HW284988   2.164   0.988   3.080  1.9962  2.5799  2.1783
25404SOL     OW84989   2.280   7.213   6.798  0.3895 -0.7786 -0.2114
25404SOL    HW184990   2.262   7.304   6.775 -1.0590 -0.9204  0.3236
25404SOL    HW284991   2.311   7.216   6.888 -0.0054 -0.8584 -0.0750
25405SOL     OW84992  11.091  12.606   3.424 -0.4269  0.2606 -0.1220
25405SOL    HW184993  11.163  12.544   3.437 -0.7223 -0.0346  0.1250
25405SOL    HW284994  11.100  12.633   3.333 -0.6285 -0.5870 -0.4084
25406SOL     OW84995   3.245   2.360   2.640  0.1385  0.0634  0.0662
25406SOL    HW184996   3.335   2.391   2.654  1.1322 -2.3688 -0.4260
25406SOL    HW284997   3.206   2.361   2.727  1.0876 -0.0832  0.5138
25407SOL     OW84998   5.586   1.174   8.448 -0.5198 -0.1759 -0.4979
25407SOL    HW184999   5.681   1.182   8.459 -0.3485 -2.0394 -0.4334
25407SOL    HW285000   5.571   1.193   8.356  0.1853 -1.7778 -0.9781
25408SOL     OW85001   0.322  11.208   4.365  0.6916  0.2315  0.6769
25408SOL    HW185002   0.321  11.251   4.280 -0.5900 -1.2542 -0.1093
25408SOL    HW285003   0.245  11.241   4.411 -0.1196 -0.9291  0.1922
25409SOL     OW85004   0.988  11.235   5.019  0.1204 -0.3094  0.1624
25409SOL    HW185005   0.978  11.330   5.029 -2.1897 -0.2673 -1.5837
25409SOL    HW285006   0.899  11.201   5.030  0.9226 -2.3082  0.8314
25410SOL     OW85007  10.837   5.857  12.233 -0.1539  0.2482  0.3052
25410SOL    HW185008  10.746   5.830  12.243 -0.3259  0.4529 -0.6238
25410SOL    HW285009  10.841   5.897  12.146  0.9378 -0.2618  0.1001
25411SOL     OW85010   8.473  11.466   3.077  0.3255  0.7594 -0.6805
25411SOL    HW185011   8.394  11.447   3.129  0.0014  3.2943 -0.1289
25411SOL    HW285012   8.459  11.419   2.995 -1.4452  0.5984 -0.3312
25412SOL     OW85013  11.801  10.878   3.623  0.5082  0.5267 -0.4369
25412SOL    HW185014  11.722  10.881   3.677  1.0575 -0.6379  0.4964
25412SOL    HW285015  11.770  10.898   3.534 -0.5770  1.5230  0.1328
25413SOL     OW85016   0.634   1.090   6.279  0.9172  0.6759  0.3126
25413SOL    HW185017   0.604   1.092   6.370 -0.2765  1.7780 -0.0796
25413SOL    HW285018   0.573   1.030   6.236  0.6156  1.2291 -0.0386
25414SOL     OW85019  10.867   7.543   7.408 -0.1921 -0.0502  0.0225
25414SOL    HW185020  10.876   7.589   7.324  1.0715  1.0941  0.7345
25414SOL    HW285021  10.948   7.493   7.417 -0.4505 -0.4036  0.4214
25415SOL     OW85022   4.939  12.304   9.814  0.2781 -0.5603 -0.1478
25415SOL    HW185023   5.012  12.357   9.844 -1.2486  1.4044  0.3265
25415SOL    HW285024   4.933  12.323   9.720 -0.1273 -0.0457 -0.0224
25416SOL     OW85025   3.478   0.592   2.600 -0.0745 -0.6379 -0.3738
25416SOL    HW185026   3.419   0.523   2.629 -1.7111  0.1662 -1.6370
25416SOL    HW285027   3.534   0.550   2.535 -0.1840 -1.0864 -0.1817
25417SOL     OW85028  11.831   6.789   5.849  0.5505  0.1288 -0.5528
25417SOL    HW185029  11.844   6.854   5.918  0.9231  1.0974 -1.5074
25417SOL    HW285030  11.782   6.836   5.781 -0.5507 -1.0426 -0.6154
25418SOL     OW85031   7.215   6.648   7.269 -0.2134  0.6178 -0.7061
25418SOL    HW185032   7.211   6.727   7.215 -1.2530  0.2553 -1.1855
25418SOL    HW285033   7.178   6.674   7.353 -0.2381  0.7323 -0.7519
25419SOL     OW85034   5.943   9.910   2.348  0.3772 -0.4361  0.2757
25419SOL    HW185035   5.981   9.823   2.336  1.0989 -0.1550  0.4738
25419SOL    HW285036   5.977   9.940   2.432  2.1447  1.0266 -0.8632
25420SOL     OW85037   6.121  12.469   7.402  0.3957  0.4933  0.0672
25420SOL    HW185038   6.136  12.408   7.329 -1.1572 -0.2266  0.2950
25420SOL    HW285039   6.026  12.464   7.418  0.8241 -0.4238  3.0152
25421SOL     OW85040   4.985   7.372   3.909  0.2852  0.0486 -0.0637
25421SOL    HW185041   4.920   7.430   3.950  0.1412  0.2490 -0.5630
25421SOL    HW285042   5.066   7.422   3.910  0.2292  0.1422 -0.2294
25422SOL     OW85043   9.054   0.778  11.607  0.2085  0.5851  0.4261
25422SOL    HW185044   8.979   0.822  11.648  0.2742  1.2533 -0.1554
25422SOL    HW285045   9.103   0.848  11.564  1.2642  0.1777  0.9289
25423SOL     OW85046   1.127  11.229   0.480  0.4116  0.0381  0.3447
25423SOL    HW185047   1.220  11.249   0.470  0.2740  0.4893 -0.0745
25423SOL    HW285048   1.108  11.245   0.573  0.5820  0.6752  0.2718
25424SOL     OW85049   0.515   5.512   3.984  0.1957 -0.1589 -0.0593
25424SOL    HW185050   0.491   5.595   4.026 -0.8065 -2.5567  4.8655
25424SOL    HW285051   0.603   5.493   4.016  0.7799 -0.7102 -1.8436
25425SOL     OW85052   3.139   9.921   9.957 -0.4750  0.4844  0.1699
25425SOL    HW185053   3.142   9.856  10.027 -2.0075  1.7878  1.5431
25425SOL    HW285054   3.170   9.875   9.880 -1.0137 -1.7238  1.1986
25426SOL     OW85055   2.935   5.551   5.576  0.0444 -0.2489  0.4425
25426SOL    HW185056   2.935   5.507   5.491 -2.0979 -0.4998  0.5243
25426SOL    HW285057   2.869   5.505   5.627 -0.5841  1.5645  1.3429
25427SOL     OW85058   1.243  12.197  12.246 -0.1520 -0.1377 -0.5583
25427SOL    HW185059   1.282  12.261  12.186 -0.1713  0.4396  0.0314
25427SOL    HW285060   1.258  12.112  12.204  4.4435 -0.3607  0.9412
25428SOL     OW85061   5.332   0.164  10.824 -0.1408  0.0441  0.6253
25428SOL    HW185062   5.237   0.168  10.816 -0.0424  0.1236 -0.7220
25428SOL    HW285063   5.361   0.252  10.800  0.2640  0.1083  1.3259
25429SOL     OW85064   3.654   5.386   2.374  0.5432 -0.0263  0.3032
25429SOL    HW185065   3.622   5.296   2.382  1.9425 -0.6590 -0.7325
25429SOL    HW285066   3.574   5.439   2.366 -0.3258 -1.0530  1.7267
25430SOL     OW85067   4.458   0.409   7.656  0.0822 -0.3200 -0.4633
25430SOL    HW185068   4.530   0.346   7.655 -0.0181 -0.4976  1.3507
25430SOL    HW285069   4.436   0.419   7.748  0.1972  2.4820 -0.6613
25431SOL     OW85070   2.074   3.393   7.808  0.4350  0.5066  0.1545
25431SOL    HW185071   2.139   3.463   7.814  0.4059  0.4755  1.0321
25431SOL    HW285072   2.050   3.375   7.899  0.6368 -0.8258 -0.0292
25432SOL     OW85073   1.530   3.461   0.668 -0.1355  0.0024 -0.4867
25432SOL    HW185074   1.505   3.407   0.594 -0.0211  0.1254 -0.6143
25432SOL    HW285075   1.537   3.400   0.741  1.6169 -0.4289 -0.9698
25433SOL     OW85076   0.990   7.267   4.258 -0.5765 -0.7709  0.1693
25433SOL    HW185077   1.009   7.184   4.214 -1.7993 -1.1680  0.3516
25433SOL    HW285078   0.979   7.243   4.350  0.5552 -0.1599  0.4857
25434SOL     OW85079   4.278   7.640   8.547 -0.1833 -0.2010 -0.6208
25434SOL    HW185080   4.347   7.701   8.573  2.0280 -1.8401 -2.2636
25434SOL    HW285081   4.226   7.627   8.627  2.2264  0.0714  1.1142
25435SOL     OW85082   2.952   6.249   5.736  0.1907 -0.2201  0.5103
25435SOL    HW185083   2.905   6.325   5.770 -1.8429 -1.3255  0.3011
25435SOL    HW285084   3.013   6.226   5.806 -0.3128  0.6285  1.2551
25436SOL     OW85085   3.096   1.538   3.603  0.4751 -0.3085 -0.1505
25436SOL    HW185086   3.083   1.463   3.545 -3.2971 -0.7075  0.9533
25436SOL    HW285087   3.150   1.504   3.675 -0.3717 -1.7441 -0.1583
25437SOL     OW85088  10.115   7.364   2.404  0.2780  0.8877  0.1493
25437SOL    HW185089  10.129   7.444   2.455  0.2490  0.5715  0.6702
25437SOL    HW285090  10.100   7.394   2.315  1.7217  1.3892  0.0417
25438SOL     OW85091   6.693   6.636   9.134 -0.0353 -0.0782  0.2988
25438SOL    HW185092   6.654   6.556   9.169  1.2987 -0.1114  1.8367
25438SOL    HW285093   6.649   6.706   9.182  0.5393 -0.0383  0.7861
25439SOL     OW85094   6.233  11.857   4.077 -0.1464  0.6204  0.6059
25439SOL    HW185095   6.328  11.859   4.068 -0.2702  1.0835 -0.9563
25439SOL    HW285096   6.212  11.764   4.089  0.4588  0.4401  0.3183
25440SOL     OW85097  10.956   4.979   4.564  0.0697  0.1080 -0.4874
25440SOL    HW185098  11.047   4.976   4.595  0.0377  0.7008 -0.3198
25440SOL    HW285099  10.949   4.905   4.503 -0.3117 -2.1317  2.0677
25441SOL     OW85100   5.416   8.959   8.977 -0.0821  0.2234 -0.5720
25441SOL    HW185101   5.354   8.886   8.981  0.2594 -0.0999 -1.0411
25441SOL    HW285102   5.385   9.014   8.906  0.6143 -0.3695 -1.3607
25442SOL     OW85103   4.495  10.791  10.294  0.0601  0.2940 -0.5607
25442SOL    HW185104   4.493  10.826  10.383 -0.9803  1.3654 -0.9774
25442SOL    HW285105   4.585  10.803  10.265  0.3030  0.3311  0.1941
25443SOL     OW85106   8.126  10.722  11.762  0.1806  0.3955 -0.6171
25443SOL    HW185107   8.104  10.789  11.697 -0.5646  0.3815 -0.3968
25443SOL    HW285108   8.205  10.754  11.804  0.8484  0.2579 -1.7361
25444SOL     OW85109   3.254  11.237   3.909 -0.2192  0.9473  0.1266
25444SOL    HW185110   3.233  11.149   3.940 -0.6018  0.5943 -1.0720
25444SOL    HW285111   3.200  11.248   3.830  2.4782  0.8365 -1.8966
25445SOL     OW85112  10.278   2.184   2.151 -0.1731  0.0263  0.2429
25445SOL    HW185113  10.290   2.162   2.243  0.6271  0.4523  0.2456
25445SOL    HW285114  10.220   2.260   2.153  1.4952  1.3413  0.5219
25446SOL     OW85115   0.487  12.165  11.561  0.2950  1.0543  0.4457
25446SOL    HW185116   0.515  12.074  11.566  2.6003  1.7226  0.5067
25446SOL    HW285117   0.436  12.179  11.641  1.6639  0.3505  1.4732
25447SOL     OW85118  12.110   0.345  11.474 -0.3260 -0.5803 -0.0748
25447SOL    HW185119  12.152   0.394  11.545 -0.1836 -0.9672  0.1086
25447SOL    HW285120  12.165   0.362  11.397 -1.0475  0.6666 -0.3401
25448SOL     OW85121   5.887   5.331  11.140  0.0598  0.1223 -0.0786
25448SOL    HW185122   5.807   5.327  11.194 -0.1632 -1.6681 -0.4655
25448SOL    HW285123   5.958   5.314  11.202 -0.0246 -0.0874 -0.0392
25449SOL     OW85124  10.528   2.061   2.087 -0.0506  0.0839  0.6795
25449SOL    HW185125  10.494   1.995   2.026 -0.4709  0.3735  0.5984
25449SOL    HW285126  10.458   2.126   2.094 -0.0679 -0.0163  1.5873
25450SOL     OW85127   4.098  10.183   1.580 -0.0255 -0.2869 -0.1882
25450SOL    HW185128   4.130  10.249   1.518 -0.8974 -0.0872 -0.4334
25450SOL    HW285129   4.102  10.101   1.531  2.1449 -0.6479  0.4775
25451SOL     OW85130   2.453   8.499   4.432  0.5435  0.3983 -0.1775
25451SOL    HW185131   2.394   8.556   4.384 -0.6318 -0.3676  0.3068
25451SOL    HW285132   2.520   8.558   4.467 -1.1982  1.6771  1.1753
25452SOL     OW85133   1.451   4.145   9.672 -0.1425 -0.5878 -0.6761
25452SOL    HW185134   1.378   4.168   9.730 -0.3656 -2.7439  0.0087
25452SOL    HW285135   1.523   4.200   9.701 -1.7068  2.5641 -2.1922
25453SOL     OW85136   4.970   5.653   3.051  0.4327 -0.2386 -0.0785
25453SOL    HW185137   4.889   5.661   3.001  0.1474  0.7665  0.5291
25453SOL    HW285138   4.943   5.657   3.142  1.3021  1.9039  0.1501
25454SOL     OW85139  11.141   3.378   3.704  0.0285 -0.5928 -0.1940
25454SOL    HW185140  11.177   3.378   3.793  1.2397 -0.7956 -0.6638
25454SOL    HW285141  11.072   3.444   3.706  2.2564  1.8780  0.0596
25455SOL     OW85142  10.089   2.271   0.976 -0.1380 -0.0632 -0.1875
25455SOL    HW185143  10.057   2.213   0.906 -2.2456  2.0274 -1.0797
25455SOL    HW285144  10.017   2.332   0.992  0.5082 -0.0510  3.4502
25456SOL     OW85145   0.707  10.407   1.429  0.0691  0.1636  0.3642
25456SOL    HW185146   0.678  10.439   1.344  0.7880  0.3283  0.1729
25456SOL    HW285147   0.712  10.484   1.485  0.9745  0.2744  0.1451
25457SOL     OW85148   5.059   5.799   3.401 -0.3796 -0.1755  0.4533
25457SOL    HW185149   4.993   5.748   3.354 -3.1579  1.6890  2.0396
25457SOL    HW285150   5.114   5.733   3.443 -0.4902 -1.8194 -1.7840
25458SOL     OW85151   8.656   2.201   4.385  0.3726  0.3022 -0.3468
25458SOL    HW185152   8.726   2.140   4.364  1.0205  0.9844 -0.2238
25458SOL    HW285153   8.616   2.166   4.464  0.7588  0.0495 -0.2620
25459SOL     OW85154   2.190   9.498   9.331 -0.5449  0.1820  0.4533
25459SOL    HW185155   2.274   9.459   9.357  1.1465  2.5952 -1.0186
25459SOL    HW285156   2.150   9.523   9.414 -0.4976 -2.1415  1.2759
25460SOL     OW85157   5.257  11.487   3.951 -0.2970  0.1951  0.2884
25460SOL    HW185158   5.217  11.479   3.865  0.3273  0.6873 -0.0533
25460SOL    HW285159   5.301  11.572   3.950  0.8501 -0.3671  0.5993
25461SOL     OW85160   3.251   4.618   4.109 -0.3191 -0.4779  0.0008
25461SOL    HW185161   3.210   4.659   4.186 -3.5925 -1.5450 -1.0498
25461SOL    HW285162   3.261   4.526   4.133  2.1164 -0.1791  0.4052
25462SOL     OW85163   5.048   0.756   6.511  0.6453 -0.6047  0.6943
25462SOL    HW185164   5.085   0.822   6.453  0.0325 -0.5704  0.3473
25462SOL    HW285165   4.958   0.783   6.525  0.4125 -1.3275  0.6088
25463SOL     OW85166   6.857   0.818   5.545 -0.5030 -0.3022 -0.3047
25463SOL    HW185167   6.938   0.869   5.548 -0.0755 -0.9516 -0.6493
25463SOL    HW285168   6.835   0.803   5.637  0.0087 -0.4988 -0.2123
25464SOL     OW85169   2.471   0.246   4.849 -0.0161  0.1133 -0.8941
25464SOL    HW185170   2.447   0.300   4.925 -0.1760  1.0995 -1.6320
25464SOL    HW285171   2.559   0.214   4.870  0.0045  0.5049 -0.3550
25465SOL     OW85172  10.697   5.727   1.664 -0.1162  0.3513  0.6012
25465SOL    HW185173  10.793   5.737   1.658 -0.1801  0.5400 -0.3493
25465SOL    HW285174  10.685   5.637   1.694  0.3620  0.4249  1.0390
25466SOL     OW85175   3.365   7.712  11.162  0.0935  0.3260  0.1946
25466SOL    HW185176   3.396   7.622  11.156  1.9141  0.9478 -0.2377
25466SOL    HW285177   3.412   7.758  11.092  0.4355  1.9436  1.4344
25467SOL     OW85178   7.733   8.356   3.287 -0.0950  0.5877 -0.0572
25467SOL    HW185179   7.776   8.438   3.310 -1.0236  0.9900  0.3087
25467SOL    HW285180   7.646   8.382   3.255 -0.2461 -0.2199 -0.3438
25468SOL     OW85181   5.053   5.981   6.584  0.4174  0.2315  0.7021
25468SOL    HW185182   5.046   5.898   6.538 -2.6559  0.6595  0.2027
25468SOL    HW285183   5.052   5.958   6.677  0.1910 -0.2982  0.5679
25469SOL     OW85184   4.124   6.328   0.230 -0.7502  0.2768  0.2726
25469SOL    HW185185   4.206   6.377   0.237 -0.0329 -0.7245 -0.6326
25469SOL    HW285186   4.122   6.273   0.308 -0.9179  0.8137  0.6494
25470SOL     OW85187   5.972   3.062   5.538  0.8062  0.3915  0.3626
25470SOL    HW185188   5.925   2.994   5.490 -0.1844  1.4018 -0.1509
25470SOL    HW285189   6.051   3.019   5.570 -0.4669 -1.3896  1.2822
25471SOL     OW85190   8.062   8.541   3.309  0.3022 -0.0491  0.4284
25471SOL    HW185191   8.051   8.466   3.251  1.6521  0.8070 -1.0102
25471SOL    HW285192   7.973   8.567   3.331 -0.2770 -0.3615 -1.3637
25472SOL     OW85193  10.903   1.650   6.655  0.0942 -0.4753 -0.4814
25472SOL    HW185194  10.863   1.736   6.653  1.7541  0.6025  3.3789
25472SOL    HW285195  10.995   1.666   6.637  0.1920 -1.6758 -1.1384
25473SOL     OW85196  10.049   4.145   8.784  0.3395  0.5074 -0.1335
25473SOL    HW185197  10.141   4.125   8.770  0.7763  2.5299 -0.4026
25473SOL    HW285198  10.028   4.210   8.718 -1.5498 -0.5397 -0.6555
25474SOL     OW85199   8.643   8.805   8.298  0.1795  0.0699  0.4561
25474SOL    HW185200   8.711   8.834   8.236  0.1796 -0.9492 -0.0308
25474SOL    HW285201   8.690   8.790   8.380  0.6241 -0.9818  0.0253
25475SOL     OW85202   4.584   3.797   8.375 -0.4592 -0.0519 -0.1291
25475SOL    HW185203   4.540   3.828   8.296  0.0936 -0.4907 -0.6172
25475SOL    HW285204   4.675   3.786   8.349 -0.2170  0.0513  0.6458
25476SOL     OW85205   2.151   1.548   6.989  0.6501 -0.8099 -0.4213
25476SOL    HW185206   2.151   1.493   7.067 -0.3587  0.6791  0.6827
25476SOL    HW285207   2.084   1.614   7.006 -0.3490 -1.0536 -3.0049
25477SOL     OW85208  10.375   4.565   1.412  0.1201 -0.2654 -0.0843
25477SOL    HW185209  10.450   4.624   1.421 -0.6294  0.9137 -1.2353
25477SOL    HW285210  10.409   4.491   1.361  0.3111  0.6934 -1.4076
25478SOL     OW85211   3.232   2.811   9.645 -0.6483  0.1860  0.0153
25478SOL    HW185212   3.228   2.901   9.613 -0.6562  1.0738  2.2915
25478SOL    HW285213   3.314   2.776   9.611 -0.4503  1.2012 -0.5704
25479SOL     OW85214   1.657   2.382   9.359 -0.0152  0.2143 -0.4830
25479SOL    HW185215   1.675   2.445   9.429  3.5014  0.2749 -1.2914
25479SOL    HW285216   1.640   2.300   9.404 -0.2190  0.7741  0.4807
25480SOL     OW85217   2.253   1.815   4.758 -0.2406  0.5225 -0.1966
25480SOL    HW185218   2.177   1.774   4.717 -0.9496  0.7929  0.8009
25480SOL    HW285219   2.221   1.901   4.787 -0.3560 -0.3354  2.5587
25481SOL     OW85220   7.352   1.295   8.433  0.0342 -0.3024  0.3802
25481SOL    HW185221   7.415   1.309   8.503  0.4468  1.9941 -0.3735
25481SOL    HW285222   7.405   1.296   8.353 -0.7258 -0.3286 -0.1318
25482SOL     OW85223   4.435  11.431  10.925 -0.3260  0.6752 -0.0362
25482SOL    HW185224   4.418  11.342  10.954 -1.0690  1.5193  2.3674
25482SOL    HW285225   4.491  11.421  10.847  1.4828 -1.8261  1.4308
25483SOL     OW85226  11.812   6.619   2.659 -0.5104 -0.1348  0.3157
25483SOL    HW185227  11.771   6.537   2.686  0.1288 -0.7433 -0.5120
25483SOL    HW285228  11.903   6.610   2.686 -0.5041  0.4343  0.4899
25484SOL     OW85229  10.904  10.965   1.512 -0.1583  0.0895 -0.2422
25484SOL    HW185230  10.994  10.960   1.543 -0.1525  1.8834  0.1391
25484SOL    HW285231  10.885  10.878   1.477  1.8468 -0.2056 -0.6941
25485SOL     OW85232   1.906  12.593   0.853  0.2844 -0.1433  0.2408
25485SOL    HW185233   1.881  12.513   0.808  0.3527 -0.6375  1.0474
25485SOL    HW285234   1.870  12.664   0.800  0.3284 -0.7037 -0.5457
25486SOL     OW85235   6.991   9.661   0.923 -0.9017  0.4488 -0.4036
25486SOL    HW185236   6.992   9.751   0.891 -1.1645  0.1260 -1.3494
25486SOL    HW285237   7.004   9.669   1.018  0.5757  1.3911 -0.6628
25487SOL     OW85238   6.242   1.864   4.813 -0.1211  0.0891  0.2110
25487SOL    HW185239   6.259   1.879   4.906  2.0073  1.0046 -0.2765
25487SOL    HW285240   6.276   1.777   4.796  0.5745  0.3945  0.0397
25488SOL     OW85241   6.082  12.399   5.674  0.3278  0.2630  0.4345
25488SOL    HW185242   6.167  12.356   5.683 -0.5275 -1.5571  0.4395
25488SOL    HW285243   6.102  12.488   5.647  2.1614 -0.7912 -2.0167
25489SOL     OW85244   8.188   9.051   3.108 -0.3644  0.0621  0.2972
25489SOL    HW185245   8.125   9.121   3.088  0.5433  0.5752 -0.9199
25489SOL    HW285246   8.185   8.995   3.030  1.5605  0.7951 -0.3546
25490SOL     OW85247   0.342  11.209   0.623 -0.2073 -0.3113 -0.3404
25490SOL    HW185248   0.338  11.214   0.718 -0.8761 -0.1666 -0.3735
25490SOL    HW285249   0.416  11.266   0.599  0.1146 -0.5387  0.1017
25491SOL     OW85250  10.763  10.630  11.625  0.4197  0.6476  0.4169
25491SOL    HW185251  10.760  10.685  11.547  0.7595  1.2789  0.8366
25491SOL    HW285252  10.740  10.689  11.697  2.3868  0.6735  1.0876
25492SOL     OW85253   8.613   3.529   7.362  0.5577  0.1718 -0.1142
25492SOL    HW185254   8.614   3.610   7.412  0.5696 -0.4603  0.9314
25492SOL    HW285255   8.661   3.550   7.281  0.2514  1.2926 -0.0201
25493SOL     OW85256   0.348   5.114   8.971  0.6506  0.9513 -0.1836
25493SOL    HW185257   0.413   5.048   8.947  1.5510  1.5252  0.6130
25493SOL    HW285258   0.316   5.148   8.887  0.2414 -0.4055 -0.6021
25494SOL     OW85259   5.052  10.638   7.071  0.0019  0.3999 -0.1903
25494SOL    HW185260   5.137  10.650   7.028  0.5166  0.1028  0.7094
25494SOL    HW285261   5.057  10.551   7.110 -1.1617 -0.0862 -1.0751
25495SOL     OW85262   5.120   9.513   3.225 -0.0472  0.2718  0.4630
25495SOL    HW185263   5.161   9.453   3.163 -2.7912 -2.1056  0.7266
25495SOL    HW285264   5.072   9.575   3.171 -0.4116 -0.2581  0.1723
25496SOL     OW85265   9.602   4.275   5.578 -0.0268  0.3233  0.2077
25496SOL    HW185266   9.554   4.299   5.657 -0.3650 -0.2220  0.1744
25496SOL    HW285267   9.543   4.296   5.506 -0.4282 -0.7819  0.1879
25497SOL     OW85268  12.518   8.389   5.362 -0.2875  0.2548 -0.1344
25497SOL    HW185269  12.580   8.329   5.320  1.3804  0.6918  1.5876
25497SOL    HW285270  12.446   8.397   5.299  0.5748 -1.6391 -1.4437
25498SOL     OW85271   4.663   1.296   1.656 -0.5639  0.1674 -0.2774
25498SOL    HW185272   4.609   1.218   1.648 -0.8143  0.3616 -0.4994
25498SOL    HW285273   4.726   1.290   1.583  1.1639 -1.1666  1.2312
25499SOL     OW85274   4.114   9.424  10.561  0.4203 -0.1241 -0.3562
25499SOL    HW185275   4.165   9.400  10.639 -0.7278 -1.7015 -0.0309
25499SOL    HW285276   4.163   9.386  10.488  0.6222 -0.1093 -0.2308
25500SOL     OW85277   5.164   1.097   0.498  0.0804  0.8282  0.1166
25500SOL    HW185278   5.257   1.116   0.510 -0.1644  1.1639  1.7041
25500SOL    HW285279   5.162   1.028   0.432  1.4113  1.2579 -0.4010
25501SOL     OW85280   9.237   5.776   4.159  0.2340  0.2557 -0.7532
25501SOL    HW185281   9.203   5.744   4.076 -0.8259  0.1048 -0.2816
25501SOL    HW285282   9.211   5.868   4.163  1.3138  0.5820 -1.1058
25502SOL     OW85283   3.666  11.026   5.439  0.1668 -0.3049  0.1152
25502SOL    HW185284   3.685  10.933   5.425 -1.1055 -0.9133  2.0321
25502SOL    HW285285   3.575  11.036   5.413  0.0073  0.1588  0.8169
25503SOL     OW85286   4.770   0.057   8.985 -0.5671 -0.2241 -0.1515
25503SOL    HW185287   4.718  -0.022   8.968 -1.9779  0.7273 -0.4542
25503SOL    HW285288   4.796   0.088   8.898  0.7422 -0.8220  0.0108
25504SOL     OW85289   2.319   6.758  11.740 -0.4148  0.0838 -0.3227
25504SOL    HW185290   2.379   6.819  11.697 -0.4845 -0.0965 -0.6799
25504SOL    HW285291   2.244   6.752  11.681 -1.1150  0.8541  0.4612
25505SOL     OW85292   7.553  10.098  11.767  0.4866 -0.1202  0.1264
25505SOL    HW185293   7.626  10.045  11.799 -1.0230 -0.7050  2.9201
25505SOL    HW285294   7.475  10.058  11.807 -1.2309  1.3709 -1.5264
25506SOL     OW85295   7.015   2.198   9.314 -0.0531  0.0783 -0.1765
25506SOL    HW185296   7.104   2.196   9.278  0.1582  0.0319  0.3424
25506SOL    HW285297   6.995   2.291   9.322  0.5122  0.1161  1.0541
25507SOL     OW85298   4.091   9.894   0.675  0.6294 -0.6105 -0.5844
25507SOL    HW185299   4.083   9.967   0.613  0.9026  2.0539  2.2095
25507SOL    HW285300   4.173   9.851   0.652  0.5129  0.0147 -2.2849
25508SOL     OW85301   4.855   7.123   1.899 -0.3848 -0.3651  0.4320
25508SOL    HW185302   4.807   7.168   1.969 -0.8323 -0.0908 -0.0516
25508SOL    HW285303   4.938   7.097   1.941 -0.3100  0.4940  0.8554
25509SOL     OW85304   0.513   7.795   7.596  0.1091 -0.3959  0.0368
25509SOL    HW185305   0.470   7.859   7.540 -1.8751 -2.1072 -0.5173
25509SOL    HW285306   0.470   7.806   7.681  0.1677 -0.6150  0.0939
25510SOL     OW85307  11.454   4.004   4.751 -0.6019 -0.6384 -0.3099
25510SOL    HW185308  11.487   3.965   4.831 -1.8320  0.4123  0.7529
25510SOL    HW285309  11.474   3.939   4.683  4.7146  0.3646 -0.1427
25511SOL     OW85310   8.322  11.843   9.483  0.0454 -0.3332 -0.1701
25511SOL    HW185311   8.390  11.891   9.529 -0.3942  0.6625 -0.5432
25511SOL    HW285312   8.369  11.789   9.419  0.6336 -1.5049  1.2136
25512SOL     OW85313  11.457   2.865   8.489 -0.4372 -0.2787  0.0196
25512SOL    HW185314  11.432   2.922   8.561 -0.0737 -0.1692  0.0624
25512SOL    HW285315  11.553   2.873   8.484 -0.4986  0.0435 -0.7501
25513SOL     OW85316   3.898  10.186   5.283  0.2070  0.0845  0.8583
25513SOL    HW185317   3.902  10.245   5.208  0.0939 -0.2133  0.6188
25513SOL    HW285318   3.989  10.159   5.296 -0.0114 -1.4575 -0.4495
25514SOL     OW85319   6.378   4.810  11.628  0.1853 -0.3289 -0.1256
25514SOL    HW185320   6.441   4.816  11.555 -1.5766 -1.2701 -1.8125
25514SOL    HW285321   6.428   4.769  11.698  2.2181  1.4523 -0.4072
25515SOL     OW85322  12.090   3.381   3.926 -0.2509 -0.3097 -0.3391
25515SOL    HW185323  12.185   3.391   3.934 -0.4336  0.8984  0.7478
25515SOL    HW285324  12.065   3.329   4.003 -0.4264 -0.9582 -0.8320
25516SOL     OW85325   9.712   4.926   7.133 -0.0376 -0.4420  0.1528
25516SOL    HW185326   9.787   4.971   7.172  0.7135 -1.2400 -0.3506
25516SOL    HW285327   9.687   4.860   7.197 -0.9751  0.4843  0.7741
25517SOL     OW85328   1.758   8.198  10.913  0.0665 -0.2733  0.2829
25517SOL    HW185329   1.722   8.283  10.939 -0.9511 -0.7131  0.3571
25517SOL    HW285330   1.843   8.219  10.874  0.2071  0.6933  1.0678
25518SOL     OW85331   4.078   2.164   2.765 -0.1678  0.3218 -0.5824
25518SOL    HW185332   4.116   2.076   2.764 -0.7993  0.0178 -2.2861
25518SOL    HW285333   4.028   2.169   2.683 -0.7241  2.0208 -0.1815
25519SOL     OW85334   6.047   3.231   4.606 -0.1019  0.3350 -0.0404
25519SOL    HW185335   5.997   3.233   4.525  0.6854 -0.3497 -0.5509
25519SOL    HW285336   6.099   3.151   4.601 -0.2108  0.1552  1.2455
25520SOL     OW85337   5.578   6.089  10.994 -0.6703 -0.3397 -0.6935
25520SOL    HW185338   5.550   6.132  11.075 -0.3896 -1.1988 -0.1155
25520SOL    HW285339   5.518   6.122  10.927 -3.1468 -2.0924  0.4741
25521SOL     OW85340   6.962   6.683   3.034 -0.5693  0.2105  0.1342
25521SOL    HW185341   7.050   6.721   3.030  0.7194 -2.2980  2.0926
25521SOL    HW285342   6.944   6.654   2.944  0.4105  1.0895 -0.3670
25522SOL     OW85343  10.127  12.255   0.279 -0.3212  0.2880  0.0128
25522SOL    HW185344  10.100  12.266   0.370 -1.4462 -0.2155 -0.2410
25522SOL    HW285345  10.195  12.321   0.266  1.0417 -0.7444  1.6683
25523SOL     OW85346   2.387   7.092   1.466 -0.0937  0.3687 -0.7468
25523SOL    HW185347   2.413   7.041   1.543 -1.5542  1.6765  0.7019
25523SOL    HW285348   2.463   7.146   1.447  0.0674  0.5062  0.2201
25524SOL     OW85349   2.671   4.291   0.953  0.1715 -0.0352  0.1027
25524SOL    HW185350   2.578   4.311   0.942  0.1757 -0.1761 -0.1857
25524SOL    HW285351   2.716   4.357   0.901  0.2129 -0.3126 -0.2141
25525SOL     OW85352  11.539   4.120   9.163  0.1467  0.4836 -0.5348
25525SOL    HW185353  11.523   4.030   9.190 -0.4972  0.7748  0.0854
25525SOL    HW285354  11.468   4.140   9.103  0.9665  0.1972 -1.6356
25526SOL     OW85355   6.570   2.395   0.347 -0.1502  0.1418  0.1641
25526SOL    HW185356   6.521   2.458   0.400 -0.5529 -0.0581  0.0323
25526SOL    HW285357   6.631   2.355   0.409 -0.0881  0.4576  0.3106
25527SOL     OW85358   6.465   6.472   9.839 -0.9332  0.2373  0.2178
25527SOL    HW185359   6.443   6.396   9.785 -2.1538  0.2523  0.6754
25527SOL    HW285360   6.390   6.531   9.830 -1.2813  0.1364  2.1086
25528SOL     OW85361   4.690  12.506   3.456 -0.5794 -0.0388 -0.4274
25528SOL    HW185362   4.696  12.514   3.361  1.0052  0.4942 -0.3195
25528SOL    HW285363   4.644  12.423   3.471 -0.5993 -0.2629 -1.6568
25529SOL     OW85364  10.246  12.018   9.149  0.5338 -0.2823  0.5329
25529SOL    HW185365  10.234  11.952   9.082 -0.6939 -0.2936  0.7250
25529SOL    HW285366  10.195  12.093   9.118 -0.7148 -0.5599  1.7790
25530SOL     OW85367  11.346  11.322   3.966  0.1910  0.3018 -0.4102
25530SOL    HW185368  11.299  11.295   3.888 -0.5060 -0.6791  0.3209
25530SOL    HW285369  11.388  11.405   3.942 -0.0461  0.0396 -1.7867
25531SOL     OW85370   0.297   8.049   0.761  0.3477 -0.7365  0.6968
25531SOL    HW185371   0.281   8.005   0.678 -0.0097  0.2604  0.2121
25531SOL    HW285372   0.366   8.113   0.741 -0.2324 -0.0036  0.9743
25532SOL     OW85373   5.747   0.339   1.878  0.1227 -0.9479 -0.8148
25532SOL    HW185374   5.653   0.321   1.876 -0.1386  0.1103  0.5354
25532SOL    HW285375   5.770   0.336   1.971  0.3493  3.7977 -0.4953
25533SOL     OW85376  11.328   4.959  11.001  0.4205 -0.1136 -0.0086
25533SOL    HW185377  11.405   4.984  11.052  0.2624 -1.3421  0.8926
25533SOL    HW285378  11.258   4.951  11.066 -0.5011  1.0334 -0.8196
25534SOL     OW85379  11.627   1.203   9.647 -0.0508  0.3714 -0.5539
25534SOL    HW185380  11.532   1.205   9.649 -0.1918 -2.4022 -0.8496
25534SOL    HW285381  11.652   1.143   9.718  1.4332  0.3685 -1.0339
25535SOL     OW85382  11.343   4.396   4.124  0.8387 -0.0014 -0.4424
25535SOL    HW185383  11.314   4.485   4.102 -1.6106 -0.9264 -1.3698
25535SOL    HW285384  11.379   4.403   4.212  0.6615  1.8919 -0.4827
25536SOL     OW85385   8.041   2.995   7.328 -0.6395 -0.0910  0.0789
25536SOL    HW185386   8.046   3.031   7.416  1.1281  0.6830 -0.2870
25536SOL    HW285387   7.981   3.053   7.282 -3.3154 -1.7429  1.2574
25537SOL     OW85388   4.407   1.905   4.684 -0.0962 -0.0193  0.0578
25537SOL    HW185389   4.375   1.984   4.727 -1.4813 -0.9247  0.7537
25537SOL    HW285390   4.332   1.873   4.633  1.2454  0.5750 -2.4543
25538SOL     OW85391   2.180   6.610  12.471  0.6271  0.0022  0.1859
25538SOL    HW185392   2.136   6.581  12.551 -0.0893  3.8823  1.3880
25538SOL    HW285393   2.273   6.598  12.490  0.4267 -0.0878  1.1987
25539SOL     OW85394  11.080  11.521   2.634  0.3225  0.1064  0.7015
25539SOL    HW185395  11.170  11.541   2.609 -0.0044  1.4189  0.5075
25539SOL    HW285396  11.026  11.576   2.576 -0.5307  1.4348  2.6671
25540SOL     OW85397   6.462   9.159   8.430  0.0401 -0.0533  0.0951
25540SOL    HW185398   6.521   9.177   8.503  1.9642  1.6126 -1.7288
25540SOL    HW285399   6.516   9.109   8.368 -1.5815 -1.5375 -0.1854
25541SOL     OW85400   2.985   0.997   3.993 -0.0345 -0.2980  0.5835
25541SOL    HW185401   2.981   1.062   4.063 -2.6720 -0.4039  0.6349
25541SOL    HW285402   2.943   1.040   3.919  1.2285 -0.7931 -0.4495
25542SOL     OW85403   1.540   5.970   9.580 -0.6696 -0.4880 -0.2775
25542SOL    HW185404   1.620   5.977   9.633  0.5069  0.5892 -2.0669
25542SOL    HW285405   1.485   6.042   9.610 -0.6952 -0.8168  0.4961
25543SOL     OW85406  12.368   9.863   0.634  0.4350  0.2872 -0.2091
25543SOL    HW185407  12.424   9.855   0.711 -1.8779  0.5480  1.6224
25543SOL    HW285408  12.290   9.813   0.656 -0.9688  1.6865 -1.7198
25544SOL     OW85409   8.392  11.510   4.044  0.2801 -0.2135  0.6136
25544SOL    HW185410   8.323  11.577   4.039 -0.2508 -0.7916 -0.2184
25544SOL    HW285411   8.378  11.468   4.129 -1.1464 -1.0809 -0.0090
25545SOL     OW85412   0.044   0.708   2.538  0.2463 -0.3934 -0.3000
25545SOL    HW185413   0.130   0.674   2.562  0.6583  1.8468  1.6644
25545SOL    HW285414   0.061   0.793   2.498 -1.0142 -0.3990 -0.9311
25546SOL     OW85415  12.120   2.009   1.100  0.3494  0.0829 -0.0364
25546SOL    HW185416  12.182   2.019   1.027  0.9444  0.3441  0.4917
25546SOL    HW285417  12.085   2.097   1.113  1.9169  0.5374  1.4266
25547SOL     OW85418   1.918   3.252   0.377 -0.0425  0.0843  0.1454
25547SOL    HW185419   1.995   3.307   0.388  1.2624 -1.8963  1.5907
25547SOL    HW285420   1.942   3.190   0.309 -0.4174 -0.4650  0.5061
25548SOL     OW85421  11.777   1.828   1.934 -0.9723 -0.0928 -0.0916
25548SOL    HW185422  11.765   1.767   2.006  0.1414  0.9585  1.0165
25548SOL    HW285423  11.850   1.883   1.960 -0.6055  0.3916 -1.9875
25549SOL     OW85424  12.060   0.676   7.429 -0.9949 -0.5179 -0.1065
25549SOL    HW185425  12.055   0.585   7.459 -2.8835 -0.4818 -0.1977
25549SOL    HW285426  12.114   0.672   7.350  0.3687 -1.2755  0.8283
25550SOL     OW85427   8.931   4.609   9.760 -0.3903 -0.1261  0.0986
25550SOL    HW185428   8.931   4.557   9.840 -1.7610 -0.9272 -0.3877
25550SOL    HW285429   8.991   4.562   9.701  1.7218  1.2320  1.0850
25551SOL     OW85430   7.731   0.449   3.653  0.4733 -0.1621 -0.1083
25551SOL    HW185431   7.794   0.411   3.714  0.3528  0.6928  0.5742
25551SOL    HW285432   7.779   0.519   3.609 -0.2209  1.1551  1.1214
25552SOL     OW85433   2.537  10.720  12.203 -0.2128  0.1980  0.1058
25552SOL    HW185434   2.554  10.758  12.289 -2.2625 -0.5402  0.9149
25552SOL    HW285435   2.442  10.710  12.200 -0.0281 -1.7531 -1.3904
25553SOL     OW85436  11.518   6.642   9.975 -0.5539 -0.6633 -0.3118
25553SOL    HW185437  11.605   6.641   9.935 -1.1610  0.7434 -1.7757
25553SOL    HW285438  11.532   6.684  10.060  0.2493 -0.7252 -0.4079
25554SOL     OW85439   0.722  12.200  11.826 -0.8902 -0.5677 -0.2788
25554SOL    HW185440   0.736  12.294  11.825 -0.1530 -0.6659  0.0242
25554SOL    HW285441   0.759  12.169  11.743  2.5470 -1.0435  1.2478
25555SOL     OW85442   2.944   4.180  11.699 -0.0801  0.0751 -0.4218
25555SOL    HW185443   2.999   4.193  11.777  0.2354 -0.2666 -0.5879
25555SOL    HW285444   2.877   4.249  11.706 -0.8779 -0.7885  0.8673
25556SOL     OW85445   4.456   9.962   0.300  0.0173  0.2399  0.4663
25556SOL    HW185446   4.550   9.956   0.282 -0.0340  0.5429  0.0868
25556SOL    HW285447   4.416   9.898   0.241 -0.0630  0.5285  0.2047
25557SOL     OW85448   3.640   4.531  10.999  0.0993  0.1427  0.5767
25557SOL    HW185449   3.682   4.446  10.988  0.8890  0.8109 -2.1952
25557SOL    HW285450   3.709   4.595  10.981 -1.2137  1.3050 -0.6103
25558SOL     OW85451   5.464  11.165   1.420  0.3786 -0.5725  0.3107
25558SOL    HW185452   5.413  11.117   1.485 -1.3629  1.7042  0.7493
25558SOL    HW285453   5.438  11.126   1.336 -1.9369  0.3112  0.5537
25559SOL     OW85454   4.240   5.918   5.313  0.5411 -0.2111  0.2422
25559SOL    HW185455   4.246   5.828   5.281  0.6774  0.0969 -0.6130
25559SOL    HW285456   4.168   5.957   5.263  2.6116  1.1361 -1.8973
25560SOL     OW85457   7.923  10.854  12.244  0.1506  0.2955 -0.3772
25560SOL    HW185458   7.885  10.880  12.328 -2.1651  3.0556 -2.1114
25560SOL    HW285459   7.993  10.918  12.228  0.6786 -0.3025 -0.5262
25561SOL     OW85460   8.888   3.502  11.075 -0.2433 -0.3236 -0.1074
25561SOL    HW185461   8.982   3.501  11.092 -0.5081  1.4216  1.9329
25561SOL    HW285462   8.864   3.410  11.067  1.4968 -0.8427  0.2773
25562SOL     OW85463   9.800   4.528   1.845  0.2418  0.7426 -0.5907
25562SOL    HW185464   9.822   4.557   1.756 -0.7336  1.0164 -0.7502
25562SOL    HW285465   9.705   4.519   1.845  0.3263 -0.4471  0.0772
25563SOL     OW85466   1.508   3.335  11.621  0.3127  0.4191 -0.9014
25563SOL    HW185467   1.467   3.410  11.580  0.8265  0.5147 -1.2464
25563SOL    HW285468   1.602   3.353  11.617  0.4048  0.1014 -0.3254
25564SOL     OW85469   0.019  11.914   2.548  0.8466 -0.4551 -0.0799
25564SOL    HW185470   0.112  11.893   2.538  0.7826 -1.6171  1.5230
25564SOL    HW285471  -0.026  11.845   2.498  0.8175 -0.5024  0.0118
25565SOL     OW85472   1.981   8.718   8.345  0.0494  0.2276  0.4856
25565SOL    HW185473   2.034   8.710   8.266 -2.4526  2.0162 -1.5512
25565SOL    HW285474   2.042   8.747   8.412  2.0657 -0.1736 -1.0635
25566SOL     OW85475   0.685   8.534   4.181 -0.3714  0.8559 -0.3642
25566SOL    HW185476   0.726   8.612   4.144  0.3512  1.4659  1.5889
25566SOL    HW285477   0.749   8.464   4.166  1.1471  1.6321  1.9265
25567SOL     OW85478   4.485   5.843   7.623 -0.2212 -0.0835 -0.1684
25567SOL    HW185479   4.465   5.797   7.705 -1.4929 -0.2844 -0.5699
25567SOL    HW285480   4.510   5.774   7.562 -0.7931 -0.1076 -0.3820
25568SOL     OW85481   5.866   8.918   1.866  0.2069 -0.6232 -0.2722
25568SOL    HW185482   5.832   8.984   1.807  2.0037  1.6102  1.0361
25568SOL    HW285483   5.796   8.902   1.929 -0.4346 -0.3894 -0.9245
25569SOL     OW85484   0.084   5.598   3.623 -0.1654 -0.3929  0.1888
25569SOL    HW185485  -0.003   5.628   3.594  0.0645 -1.0758 -1.3015
25569SOL    HW285486   0.071   5.507   3.648 -0.0209 -0.2689  0.7341
25570SOL     OW85487   0.487   7.594   3.326  0.5288  0.2202 -0.2611
25570SOL    HW185488   0.548   7.661   3.296  1.2398  0.1894  1.0523
25570SOL    HW285489   0.403   7.620   3.288  1.2224  0.6113 -1.5803
25571SOL     OW85490   0.627   3.363   2.137  0.2733 -0.7868 -0.1000
25571SOL    HW185491   0.555   3.305   2.112  1.9465 -2.6846 -0.7124
25571SOL    HW285492   0.650   3.336   2.226 -1.7074  1.9308  1.4220
25572SOL     OW85493   3.558   7.214   2.479 -0.1484  0.4758  0.1344
25572SOL    HW185494   3.575   7.248   2.391 -1.7380  2.0673  0.3779
25572SOL    HW285495   3.612   7.267   2.536  0.6815 -0.3813  0.1631
25573SOL     OW85496   3.455   4.991   9.364  0.0176 -0.4131  0.1602
25573SOL    HW185497   3.490   5.055   9.426  0.3930  0.5051 -0.9582
25573SOL    HW285498   3.454   4.908   9.412  3.1608 -0.3787  0.4825
25574SOL     OW85499   4.354  11.405   8.397 -0.1593  0.3358  0.7317
25574SOL    HW185500   4.429  11.357   8.432 -0.6883 -1.3025 -0.2829
25574SOL    HW285501   4.288  11.401   8.466  0.3040  0.8704  1.2122
25575SOL     OW85502  11.399   0.522   7.159  0.1401 -0.2299 -0.3580
25575SOL    HW185503  11.305   0.505   7.167 -0.3412  2.3520  0.1669
25575SOL    HW285504  11.433   0.517   7.248 -0.2119  2.2834 -0.0263
25576SOL     OW85505  11.140   1.434   4.429  0.1058 -0.1235  0.1231
25576SOL    HW185506  11.121   1.403   4.518 -1.1415 -0.3413 -0.1950
25576SOL    HW285507  11.054   1.443   4.388  0.6680 -0.1830 -1.1177
25577SOL     OW85508   2.810   3.721   6.767  0.7109  0.2160 -0.1373
25577SOL    HW185509   2.812   3.716   6.863  2.2900 -1.2495 -0.2056
25577SOL    HW285510   2.764   3.642   6.739  0.2489  0.6400 -0.6101
25578SOL     OW85511  12.206   9.348   5.604  0.5431 -0.3027  0.0320
25578SOL    HW185512  12.276   9.368   5.665  0.4739 -1.0084  0.3542
25578SOL    HW285513  12.242   9.279   5.548  1.1627  1.3887 -1.7400
25579SOL     OW85514  11.210  11.445   9.977 -0.4836 -0.4619 -0.0780
25579SOL    HW185515  11.287  11.470   9.925  0.1719 -0.6908  0.7607
25579SOL    HW285516  11.147  11.515   9.960  0.0852 -0.0106 -0.4050
25580SOL     OW85517  11.342   9.635   9.836 -0.2723 -0.5921 -0.2714
25580SOL    HW185518  11.378   9.712   9.880 -0.3395 -0.4749 -0.4215
25580SOL    HW285519  11.349   9.655   9.743 -1.8464 -0.0345 -0.3023
25581SOL     OW85520   3.645   8.465   6.105  0.0084 -0.4791 -0.0405
25581SOL    HW185521   3.584   8.491   6.036 -0.7015 -1.1423  0.3222
25581SOL    HW285522   3.700   8.398   6.065  0.1610 -0.2531 -0.2123
25582SOL     OW85523   7.833   3.469   9.795 -0.0334  0.0122 -0.4203
25582SOL    HW185524   7.744   3.504   9.788 -0.3531 -0.5707  0.5064
25582SOL    HW285525   7.879   3.533   9.849 -0.3433 -0.4753  0.4404
25583SOL     OW85526  11.247  11.026   3.329  0.3525 -0.2050 -0.2879
25583SOL    HW185527  11.227  11.093   3.263 -0.3100  0.2382  0.3555
25583SOL    HW285528  11.216  11.063   3.411 -0.6808 -1.5888 -0.0162
25584SOL     OW85529   8.447   0.956   5.412 -0.1975 -0.2173 -0.4321
25584SOL    HW185530   8.493   0.891   5.464  0.5914  1.8962  1.6799
25584SOL    HW285531   8.358   0.923   5.405 -0.1507 -0.9332  1.7394
25585SOL     OW85532   1.936  11.575   8.105  0.0129  0.2179  0.4572
25585SOL    HW185533   1.985  11.592   8.185  0.3929 -0.0215  0.2793
25585SOL    HW285534   1.914  11.482   8.110  1.8690 -0.3529 -0.6855
25586SOL     OW85535   8.152   5.261   8.225 -0.1762 -0.6308  0.3288
25586SOL    HW185536   8.214   5.263   8.298 -0.1423 -0.2882  0.2922
25586SOL    HW285537   8.104   5.344   8.232  0.3447 -0.2509 -0.4762
25587SOL     OW85538   2.016   7.261   2.162  0.0020 -0.5286  0.0262
25587SOL    HW185539   1.998   7.355   2.165 -2.4454 -0.9293 -0.0501
25587SOL    HW285540   1.950   7.226   2.102  1.7491 -2.1459 -1.0508
25588SOL     OW85541   2.402   5.848   5.026  1.0329 -0.2917  0.0603
25588SOL    HW185542   2.469   5.828   5.092  2.0075  1.6098 -0.2924
25588SOL    HW285543   2.343   5.773   5.029  2.0302 -1.0744  1.8444
25589SOL     OW85544   3.314   4.704   1.421 -0.0702  0.2504 -0.4106
25589SOL    HW185545   3.376   4.667   1.484 -0.6659 -0.6059 -0.3082
25589SOL    HW285546   3.228   4.684   1.457 -0.4159  0.8965 -0.8552
25590SOL     OW85547   0.889   5.662   6.584  0.0747  0.1560 -0.5221
25590SOL    HW185548   0.816   5.701   6.632  0.7146  1.5209 -0.6216
25590SOL    HW285549   0.894   5.572   6.617 -1.2263  0.2362 -0.0433
25591SOL     OW85550   3.418   0.009  12.195 -0.0293 -0.2172  0.0427
25591SOL    HW185551   3.413   0.063  12.273 -1.5708  0.1541 -0.2724
25591SOL    HW285552   3.482   0.052  12.139  2.1547 -1.2600  1.6286
25592SOL     OW85553   1.025   3.359  12.043  0.1672 -0.4801  0.0076
25592SOL    HW185554   0.960   3.333  11.979  0.9801 -0.7535 -0.7303
25592SOL    HW285555   0.985   3.431  12.091 -1.9439 -2.6665  1.7359
25593SOL     OW85556   0.249   8.578   1.163 -0.0266 -0.0249  0.0419
25593SOL    HW185557   0.219   8.545   1.078 -1.3600 -0.3982  0.6383
25593SOL    HW285558   0.215   8.667   1.167  0.5882  0.2233 -0.0696
25594SOL     OW85559   5.329   2.432   6.561  0.1341  0.0391  0.3816
25594SOL    HW185560   5.339   2.383   6.643  2.3724  0.0991  0.2031
25594SOL    HW285561   5.281   2.511   6.586  0.0858 -0.3135  1.4687
25595SOL     OW85562   8.396   5.656   6.806  0.4235 -0.2571 -1.1451
25595SOL    HW185563   8.415   5.707   6.885 -1.6156 -0.7698 -0.2695
25595SOL    HW285564   8.453   5.579   6.814  0.0874 -0.4155 -0.0503
25596SOL     OW85565  12.052   2.565   4.012 -0.2529  0.0935  0.5990
25596SOL    HW185566  12.035   2.649   4.056  2.7850  1.0234  0.2113
25596SOL    HW285567  12.142   2.544   4.035  0.3725 -1.0717 -2.5145
25597SOL     OW85568  11.105   0.239  10.175  0.1893  0.1057  0.1888
25597SOL    HW185569  11.118   0.334  10.166 -0.3179  0.1611  0.0316
25597SOL    HW285570  11.174   0.212  10.235  1.7933  0.2009 -1.4971
25598SOL     OW85571   7.560   4.503   3.713  0.1370 -0.4125 -0.1899
25598SOL    HW185572   7.522   4.417   3.735  1.7786 -1.1308 -0.0268
25598SOL    HW285573   7.649   4.483   3.685  0.9202  1.3503  0.9105
25599SOL     OW85574   6.680   4.904   2.477 -0.0934 -0.4785 -0.9480
25599SOL    HW185575   6.597   4.858   2.489  0.5451 -1.5983 -0.6889
25599SOL    HW285576   6.661   4.995   2.502 -0.8058 -1.0842  0.8334
25600SOL     OW85577  10.298   4.011   9.961  0.4494 -0.0240 -0.2525
25600SOL    HW185578  10.281   4.098   9.925  2.2552  0.1925 -0.6535
25600SOL    HW285579  10.336   4.027  10.047  1.1359 -0.3971 -0.4799
25601SOL     OW85580   9.076  10.300  11.616  0.0891  0.1139 -0.0186
25601SOL    HW185581   9.154  10.245  11.610  0.5986  0.6012  1.7076
25601SOL    HW285582   9.107  10.389  11.601  0.1522  0.4788  2.0801
25602SOL     OW85583   2.619   1.374   6.957 -0.3899 -0.3132  0.5562
25602SOL    HW185584   2.697   1.352   6.905 -0.5721  0.7970 -0.2197
25602SOL    HW285585   2.545   1.347   6.902 -0.5769 -0.3413  0.8184
25603SOL     OW85586   1.331  11.624  11.720 -0.1253  0.0120 -0.0485
25603SOL    HW185587   1.350  11.656  11.808  1.8257  0.6663 -0.6472
25603SOL    HW285588   1.385  11.679  11.663 -3.1827  1.3097 -1.9201
25604SOL     OW85589   4.807   0.286   7.641 -0.5115 -0.1138  0.7583
25604SOL    HW185590   4.803   0.304   7.735 -0.3054 -1.8690  1.1342
25604SOL    HW285591   4.846   0.365   7.603  0.4268  0.1918  2.2768
25605SOL     OW85592   5.415   6.951   3.923 -0.0824 -0.2671 -0.6645
25605SOL    HW185593   5.465   7.032   3.933 -1.6198  0.7143 -0.6290
25605SOL    HW285594   5.335   6.977   3.876 -0.2773 -1.9014 -1.3090
25606SOL     OW85595   6.165   5.651   6.596  0.0274 -0.0927 -0.2577
25606SOL    HW185596   6.075   5.638   6.568  0.2729 -0.8114 -0.7545
25606SOL    HW285597   6.200   5.718   6.538 -0.6684  1.4372  1.0292
25607SOL     OW85598   7.512   1.732   3.401  0.3805 -0.6067  0.4179
25607SOL    HW185599   7.458   1.694   3.470 -0.0413 -0.7827  0.0022
25607SOL    HW285600   7.501   1.826   3.411  0.6611 -0.6166  0.8523
25608SOL     OW85601   3.315  11.381   9.209  0.7645  0.1015 -0.0250
25608SOL    HW185602   3.289  11.296   9.243 -0.2630  0.0190 -0.9794
25608SOL    HW285603   3.309  11.440   9.285 -1.1009 -0.1610  0.0751
25609SOL     OW85604  11.288   7.240   1.182  0.1003 -0.3341  0.0528
25609SOL    HW185605  11.370   7.289   1.186 -0.1575  0.2329 -1.1988
25609SOL    HW285606  11.315   7.150   1.162  0.3812  0.0709 -1.5109
25610SOL     OW85607   3.712  10.627   1.248 -0.3432 -0.2389  0.3854
25610SOL    HW185608   3.776  10.680   1.200 -1.1119  0.6650  0.3126
25610SOL    HW285609   3.760  10.590   1.321  0.1227  0.9377  0.6911
25611SOL     OW85610   6.206   0.195   9.643 -0.4476 -0.7516 -0.2613
25611SOL    HW185611   6.219   0.270   9.584  2.1379 -1.3445 -0.5975
25611SOL    HW285612   6.139   0.142   9.601 -1.1809  0.5920 -0.8391
25612SOL     OW85613   7.736   3.433   1.893 -0.2168  0.8291  0.0935
25612SOL    HW185614   7.642   3.426   1.878 -0.0554 -0.6574 -0.4448
25612SOL    HW285615   7.766   3.342   1.896  0.9393  1.2169  2.0477
25613SOL     OW85616   2.244   5.138   3.761 -0.4864  0.1057 -0.3421
25613SOL    HW185617   2.235   5.053   3.717 -0.8604  0.1454 -0.3453
25613SOL    HW285618   2.155   5.173   3.763 -1.0434 -1.1255  2.9444
25614SOL     OW85619   1.808   3.113   9.482  0.1434 -0.0930 -0.3457
25614SOL    HW185620   1.767   3.027   9.486  1.6531 -0.8021  1.4455
25614SOL    HW285621   1.899   3.095   9.459 -0.0956  1.3107 -2.6938
25615SOL     OW85622   7.682   1.208   6.144 -0.0575 -0.2516 -0.0293
25615SOL    HW185623   7.632   1.146   6.091  0.9781 -0.3427 -0.9498
25615SOL    HW285624   7.650   1.294   6.115  0.1464 -0.3128 -0.4417
25616SOL     OW85625   6.868   1.555   6.442  0.7025  0.0048  0.1080
25616SOL    HW185626   6.848   1.648   6.445  0.5534 -0.0346  0.5082
25616SOL    HW285627   6.960   1.550   6.415  0.5217  0.2378 -0.5366
25617SOL     OW85628   6.911   2.850   0.002  0.2813  0.1350 -0.6712
25617SOL    HW185629   6.991   2.903  -0.001  0.6628 -0.4366 -0.7839
25617SOL    HW285630   6.943   2.760   0.014 -0.3999  0.0877  1.1942
25618SOL     OW85631   2.191   0.812   3.909  0.6713 -0.3685 -0.3395
25618SOL    HW185632   2.265   0.804   3.849  0.9290 -0.8677  0.0328
25618SOL    HW285633   2.175   0.906   3.916 -0.1714 -0.3394 -2.1661
25619SOL     OW85634   5.518  10.246  12.088 -0.1952 -0.0631  0.2083
25619SOL    HW185635   5.483  10.249  12.177 -0.3482 -0.7847  0.1777
25619SOL    HW285636   5.531  10.152  12.070  0.3596  0.1060 -0.3221
25620SOL     OW85637   9.101   2.941   4.159 -0.1776 -0.3371 -0.1196
25620SOL    HW185638   9.182   2.926   4.111 -0.6872  1.8647 -1.8006
25620SOL    HW285639   9.127   2.992   4.236 -0.0399  1.1154 -1.1076
25621SOL     OW85640   9.062   9.942   7.897 -0.5996 -0.1562  0.5648
25621SOL    HW185641   9.064   9.924   7.991 -0.1261 -0.5058  0.4914
25621SOL    HW285642   8.975   9.914   7.869  0.0628 -2.3325  0.4774
25622SOL     OW85643   6.889   5.137   7.951  0.1169  0.5191 -0.6259
25622SOL    HW185644   6.937   5.054   7.959 -1.4984 -0.4658 -0.6249
25622SOL    HW285645   6.930   5.195   8.015  1.1438 -0.3447 -0.4736
25623SOL     OW85646   1.299  11.821   2.108  0.1648 -0.4454 -0.1881
25623SOL    HW185647   1.222  11.772   2.080  0.6336 -1.4657  0.2429
25623SOL    HW285648   1.339  11.766   2.176  0.7864  0.4778  0.2119
25624SOL     OW85649   9.653   4.912   7.429 -0.4871 -0.1926 -0.4228
25624SOL    HW185650   9.570   4.927   7.473  0.0639 -0.3686  0.6986
25624SOL    HW285651   9.647   4.821   7.398  0.2931 -1.1439  1.9916
25625SOL     OW85652   1.817  12.088   5.047  0.0573  0.0254  0.1642
25625SOL    HW185653   1.858  12.003   5.062  2.1653  0.4288 -2.4966
25625SOL    HW285654   1.767  12.076   4.966  0.5076  1.3108 -0.3333
25626SOL     OW85655   8.048   0.419   9.130 -0.1205  0.2953 -0.6747
25626SOL    HW185656   7.994   0.497   9.131  0.0987  0.4737 -1.4072
25626SOL    HW285657   8.136   0.450   9.152  0.1722  0.4511 -1.9520
25627SOL     OW85658   8.018   2.397   9.882  0.3782 -0.1378 -0.3833
25627SOL    HW185659   7.963   2.347   9.942  0.5221 -0.9144 -0.8736
25627SOL    HW285660   8.027   2.340   9.805  1.1514  0.3371 -0.6595
25628SOL     OW85661  11.109   4.625   4.025 -0.7324 -0.2034 -0.0824
25628SOL    HW185662  11.069   4.671   3.951  0.2425  2.4540  0.9162
25628SOL    HW285663  11.050   4.642   4.098 -0.6387 -1.0537  0.1952
25629SOL     OW85664   8.246   3.635   4.754 -0.0606  0.2619 -0.7595
25629SOL    HW185665   8.219   3.709   4.699  0.9804  0.3774 -1.1335
25629SOL    HW285666   8.313   3.590   4.702 -0.4936 -0.7973 -0.4266
25630SOL     OW85667   3.984   8.204   1.976  0.2242 -0.1534  0.0284
25630SOL    HW185668   4.015   8.273   2.036 -1.0617 -0.1512  0.7214
25630SOL    HW285669   3.988   8.124   2.028 -1.1924 -0.1026  0.2480
25631SOL     OW85670   4.574   2.365   3.442 -0.3842  0.2664 -0.0898
25631SOL    HW185671   4.514   2.333   3.375  0.7468 -1.2736 -0.4116
25631SOL    HW285672   4.652   2.312   3.432  0.1096  0.5161  1.9687
25632SOL     OW85673  11.223   8.534   9.627  0.3534 -0.1095  0.3407
25632SOL    HW185674  11.271   8.470   9.679  1.0138 -0.2352 -0.4011
25632SOL    HW285675  11.289   8.572   9.568 -0.8737 -2.2750 -2.6726
25633SOL     OW85676   7.306   1.413   4.164  0.1880 -0.3558  0.1942
25633SOL    HW185677   7.386   1.450   4.201 -0.4523  2.2538 -0.8813
25633SOL    HW285678   7.266   1.366   4.238  2.0981 -0.7641  1.0422
25634SOL     OW85679   5.082   1.348  10.472 -0.6158  0.8655 -0.3857
25634SOL    HW185680   5.000   1.371  10.427 -0.3727  1.7015 -0.4332
25634SOL    HW285681   5.132   1.430  10.471  0.3384  0.2819 -0.6115
25635SOL     OW85682   5.341  11.801   6.275  0.5303  0.3518  0.1493
25635SOL    HW185683   5.282  11.809   6.350  1.4084 -0.4185  0.9372
25635SOL    HW285684   5.408  11.867   6.291 -0.2422  1.4512 -0.9097
25636SOL     OW85685  10.313   2.988   5.402 -0.4534  0.5533 -0.4217
25636SOL    HW185686  10.352   3.064   5.446 -1.4481  0.4463  0.6973
25636SOL    HW285687  10.223   2.985   5.435  0.1616 -2.4479  1.3851
25637SOL     OW85688   9.952   3.566   9.625  0.5481 -0.0517  0.1960
25637SOL    HW185689   9.948   3.512   9.703 -1.1041  0.0902  0.2388
25637SOL    HW285690   9.967   3.504   9.553  1.4063 -0.2489  0.5346
25638SOL     OW85691   0.806  12.179   6.022  0.3157 -0.2085  0.1868
25638SOL    HW185692   0.772  12.094   6.050 -0.9334  0.5185  1.0212
25638SOL    HW285693   0.781  12.186   5.930 -2.1461  0.3947  0.8250
25639SOL     OW85694   4.994  10.659  10.724  0.4959 -0.1555 -0.4161
25639SOL    HW185695   5.042  10.742  10.727 -0.3354  0.3980 -1.5062
25639SOL    HW285696   4.922  10.672  10.785  0.6910 -0.2981 -0.1534
25640SOL     OW85697   5.487   1.437   5.449 -0.8222 -0.1058  0.3841
25640SOL    HW185698   5.448   1.380   5.382 -0.2961  0.1943 -0.1858
25640SOL    HW285699   5.478   1.388   5.531  0.6651 -1.5345 -0.2678
25641SOL     OW85700  11.455   0.293  12.413  0.0688 -0.4012 -0.2826
25641SOL    HW185701  11.522   0.234  12.448  2.3327  1.0007 -1.9729
25641SOL    HW285702  11.415   0.332  12.491  0.8814 -1.6328  0.7982
25642SOL     OW85703   2.469   4.865   8.059 -0.2116 -0.1983  0.4613
25642SOL    HW185704   2.404   4.862   8.129 -0.8070  1.4635  0.0325
25642SOL    HW285705   2.532   4.931   8.088 -0.3807  0.3877 -0.4851
25643SOL     OW85706  10.918   4.245   7.544  0.4415 -0.1697  0.5286
25643SOL    HW185707  10.915   4.235   7.639 -1.0735  0.5081  0.5774
25643SOL    HW285708  10.905   4.339   7.529  0.1506 -0.3433 -0.3617
25644SOL     OW85709   6.872   3.285   8.594 -0.0214 -0.1738 -0.0553
25644SOL    HW185710   6.835   3.315   8.677  0.4883 -1.4142  0.6490
25644SOL    HW285711   6.822   3.332   8.527 -2.6014 -1.4410  0.8494
25645SOL     OW85712  11.582   8.274   2.697 -0.2267 -0.2641  0.3431
25645SOL    HW185713  11.545   8.344   2.643 -0.9018 -1.1937 -0.4245
25645SOL    HW285714  11.537   8.283   2.781  0.5531  0.9532  0.6611
25646SOL     OW85715   8.791   7.987   8.556  0.1404  0.1507 -0.8357
25646SOL    HW185716   8.808   7.925   8.626 -0.0606  1.1286  0.0977
25646SOL    HW285717   8.721   8.043   8.589  2.0444  2.5343 -0.5594
25647SOL     OW85718   2.189   5.219   1.263 -0.1626 -0.3706 -0.2739
25647SOL    HW185719   2.119   5.285   1.271  0.4610  0.2420  0.3029
25647SOL    HW285720   2.178   5.183   1.175  0.1226  1.2587 -1.0243
25648SOL     OW85721   4.990   7.892   3.324  1.2050 -0.3146  0.5247
25648SOL    HW185722   4.929   7.960   3.294  2.5746  0.5105 -0.5338
25648SOL    HW285723   4.987   7.826   3.255  1.7045 -0.1343  0.3261
25649SOL     OW85724  12.459   6.492   8.799 -0.3592  0.4080  0.1415
25649SOL    HW185725  12.531   6.441   8.837 -0.1581  0.8310  0.3323
25649SOL    HW285726  12.386   6.430   8.794 -0.6049  0.5070  1.8494
25650SOL     OW85727   7.698  11.151   0.649 -0.0621 -0.1294  0.0404
25650SOL    HW185728   7.793  11.139   0.652 -0.1474 -1.1193 -0.6035
25650SOL    HW285729   7.686  11.246   0.644  0.9394 -0.0336 -0.9297
25651SOL     OW85730   0.935   0.842  12.065  0.3554  0.1051  0.1113
25651SOL    HW185731   0.974   0.873  12.147  0.8177 -0.6953  0.2043
25651SOL    HW285732   0.869   0.908  12.044  1.0245  0.9291  0.5169
25652SOL     OW85733   9.874   9.985   9.377  0.1271 -0.3295 -0.1279
25652SOL    HW185734   9.953  10.027   9.343 -0.0955  1.1904  1.1241
25652SOL    HW285735   9.823   9.963   9.299  1.4789 -0.7603 -0.9203
25653SOL     OW85736   3.564   2.803   8.624 -0.0534 -0.4611 -0.0355
25653SOL    HW185737   3.563   2.709   8.639 -0.9433 -0.4875 -0.1777
25653SOL    HW285738   3.546   2.813   8.530 -2.2208 -0.1210  0.3588
25654SOL     OW85739   3.329   6.272   3.884 -0.4556 -0.1449  0.0970
25654SOL    HW185740   3.389   6.345   3.867 -0.5343 -0.2067 -0.4693
25654SOL    HW285741   3.376   6.195   3.853 -0.7109 -0.2304 -0.0799
25655SOL     OW85742   6.380  12.304   1.322 -0.2210  0.6343 -0.3733
25655SOL    HW185743   6.318  12.374   1.300 -1.3255 -0.3315 -0.4561
25655SOL    HW285744   6.401  12.264   1.237  0.8999  1.2431 -0.3996
25656SOL     OW85745  10.091   0.177   9.794 -0.0728 -0.3680  0.4475
25656SOL    HW185746  10.176   0.220   9.802  0.7919 -2.2456  1.9686
25656SOL    HW285747  10.028   0.244   9.822  0.7578  1.2746 -1.3341
25657SOL     OW85748  10.800   8.734   1.259  0.1836 -0.3910 -0.0024
25657SOL    HW185749  10.874   8.689   1.300  0.9037  0.2365 -0.5965
25657SOL    HW285750  10.740   8.752   1.332  2.1012  1.9987  1.1111
25658SOL     OW85751   8.253   1.829   4.019  0.8250 -0.6614  0.2639
25658SOL    HW185752   8.321   1.872   3.967 -0.4019  0.9328 -0.1057
25658SOL    HW285753   8.251   1.739   3.986  1.5627 -0.2633 -0.9328
25659SOL     OW85754  12.378   3.678   0.971  0.4010 -0.0049 -0.1139
25659SOL    HW185755  12.422   3.681   0.887 -0.4484  1.7079 -0.5509
25659SOL    HW285756  12.357   3.770   0.991 -1.2417 -0.5561  0.9646
25660SOL     OW85757   7.550   8.497   1.766  0.1019  0.1738  0.1091
25660SOL    HW185758   7.571   8.414   1.808  1.4065  0.5860  0.3200
25660SOL    HW285759   7.524   8.474   1.677  2.0831 -0.3671 -0.3751
25661SOL     OW85760   5.027   7.254   3.143  0.4949 -0.3307  0.0697
25661SOL    HW185761   5.114   7.292   3.133  0.4614 -0.1914  0.2882
25661SOL    HW285762   4.985   7.266   3.058  0.0902  1.1447  0.4448
25662SOL     OW85763   6.841   8.610   2.452 -0.1229  0.0339  0.2507
25662SOL    HW185764   6.926   8.567   2.467 -0.1606 -0.0912  0.1162
25662SOL    HW285765   6.788   8.585   2.528 -0.2610 -0.4602 -0.0007
25663SOL     OW85766   7.066   7.995  11.841  0.0737 -0.1965 -0.6248
25663SOL    HW185767   6.990   8.042  11.808 -0.6700  0.1717  1.4424
25663SOL    HW285768   7.107   7.958  11.764 -1.5528  0.5657 -1.9132
25664SOL     OW85769   5.582   1.796  11.649  0.2643 -0.3027  0.0840
25664SOL    HW185770   5.637   1.768  11.722  0.9729  1.1661  0.1447
25664SOL    HW285771   5.642   1.804  11.575 -0.2838 -0.8672 -0.4341
25665SOL     OW85772  11.815   8.827   3.906 -0.4594  0.0887  0.0888
25665SOL    HW185773  11.848   8.882   3.835 -0.3344  2.4296  1.8480
25665SOL    HW285774  11.856   8.863   3.985 -2.3012 -0.9812  1.6164
25666SOL     OW85775  10.644  10.044   1.201  0.0073  0.0691  0.5688
25666SOL    HW185776  10.604  10.039   1.287  2.2433 -1.6550  1.6231
25666SOL    HW285777  10.627   9.959   1.161 -1.2851  0.9627 -0.8861
25667SOL     OW85778   5.317   6.973  11.054 -0.2958 -0.0542  0.2113
25667SOL    HW185779   5.395   6.982  10.998 -0.1414 -1.2069  0.2128
25667SOL    HW285780   5.261   7.047  11.030 -1.1025 -1.5186 -2.9001
25668SOL     OW85781   8.668   0.504  11.288  0.3809 -0.2568 -0.2826
25668SOL    HW185782   8.703   0.515  11.200 -1.4974 -0.3474 -1.1070
25668SOL    HW285783   8.629   0.589  11.309 -1.8921 -1.0784 -0.8749
25669SOL     OW85784  11.024   9.883  11.742  0.5286 -0.0730  0.3905
25669SOL    HW185785  11.042   9.928  11.659  0.2189  0.4776  0.6168
25669SOL    HW285786  11.110   9.858  11.774  1.0888  3.1557  1.8088
25670SOL     OW85787   7.005  12.426  11.367 -0.0365 -0.6373 -0.0743
25670SOL    HW185788   6.940  12.469  11.311  0.5424 -1.5635 -1.5245
25670SOL    HW285789   6.955  12.391  11.440 -0.4321  3.2464  1.7743
25671SOL     OW85790  11.859   2.813   7.245  0.3191  0.4852  0.1243
25671SOL    HW185791  11.874   2.720   7.229 -0.3596  0.2602  0.7670
25671SOL    HW285792  11.848   2.820   7.340  1.0939  1.3311  0.1679
25672SOL     OW85793   3.103  12.249   7.297 -0.0685 -0.0864  0.6120
25672SOL    HW185794   3.059  12.247   7.382 -1.1218  1.4383  0.1503
25672SOL    HW285795   3.144  12.335   7.294 -0.0779 -0.1092 -0.4386
25673SOL     OW85796   3.712   6.493   6.613  0.1853  0.5494 -0.1786
25673SOL    HW185797   3.698   6.538   6.530 -0.4677  2.5931  0.9596
25673SOL    HW285798   3.802   6.517   6.638  0.8367 -1.0695 -0.8276
25674SOL     OW85799  11.328   8.332   2.841 -0.1509  0.2428 -0.4465
25674SOL    HW185800  11.323   8.395   2.769  0.1612 -0.6390 -1.2522
25674SOL    HW285801  11.259   8.359   2.901 -0.3381  1.0602 -1.0109
25675SOL     OW85802   5.091   8.693   9.799 -0.7219 -0.3889  0.0301
25675SOL    HW185803   5.140   8.762   9.755  0.3623 -0.7214  0.6889
25675SOL    HW285804   5.099   8.617   9.741 -0.4091 -0.4614  0.1709
25676SOL     OW85805   4.524   9.917   7.106 -0.0545 -0.2871  0.1816
25676SOL    HW185806   4.499   9.954   7.021  2.4599  1.2123  0.0007
25676SOL    HW285807   4.445   9.923   7.159 -1.2787  0.1080 -1.6044
25677SOL     OW85808   3.341   4.872   0.850  0.5081  0.3425 -1.0945
25677SOL    HW185809   3.411   4.843   0.909 -0.3078  1.0403  0.2764
25677SOL    HW285810   3.263   4.827   0.882 -1.2604  5.0374  2.3337
25678SOL     OW85811   2.320   2.450  12.300 -0.1039 -0.5399 -0.3365
25678SOL    HW185812   2.398   2.418  12.256  1.6625  1.1647  1.3597
25678SOL    HW285813   2.288   2.522  12.246  1.8584  1.3229  0.8334
25679SOL     OW85814   1.359   6.532   7.401 -0.4021  0.7221 -0.7053
25679SOL    HW185815   1.280   6.504   7.448 -1.0022 -0.8448 -2.4996
25679SOL    HW285816   1.402   6.450   7.376  1.2105  1.5448 -0.7540
25680SOL     OW85817   3.603   6.677   4.737 -0.3140  0.6095 -0.4355
25680SOL    HW185818   3.560   6.591   4.746 -1.5542  1.1182 -1.1545
25680SOL    HW285819   3.652   6.670   4.655  1.4846 -0.1414  0.6331
25681SOL     OW85820  10.070  12.335   2.920  0.1697  0.1747  0.3253
25681SOL    HW185821  10.127  12.333   2.997  1.5992 -2.0030 -0.6857
25681SOL    HW285822  10.006  12.265   2.936  0.3800 -0.1852 -0.3738
25682SOL     OW85823   7.124   1.195   6.534 -0.1621 -0.2185 -0.1115
25682SOL    HW185824   7.116   1.118   6.591 -1.8793 -0.1429 -0.1953
25682SOL    HW285825   7.043   1.244   6.549  0.6183  1.2557 -0.5351
25683SOL     OW85826   2.813   4.683   8.483 -0.1145 -0.6568 -0.0729
25683SOL    HW185827   2.730   4.703   8.441  0.9149  0.0451 -1.9017
25683SOL    HW285828   2.837   4.763   8.529 -0.7773 -1.1068  1.0953
25684SOL     OW85829  10.066   8.028  12.299 -0.3463  0.0624 -0.0844
25684SOL    HW185830  10.061   8.122  12.280 -0.9276  0.0706  0.0750
25684SOL    HW285831  10.125   7.993  12.232  2.5335  1.0177  1.7759
25685SOL     OW85832   3.856   5.720   1.911  0.4130 -0.2348 -0.4371
25685SOL    HW185833   3.825   5.807   1.937 -0.8773 -0.5709 -0.8057
25685SOL    HW285834   3.911   5.692   1.984 -0.2677  0.3223  0.3118
25686SOL     OW85835   3.449   8.285   1.722 -0.3208  0.6480 -0.0165
25686SOL    HW185836   3.413   8.196   1.716 -1.1826  1.0062 -0.3330
25686SOL    HW285837   3.517   8.287   1.654  0.8818 -0.2778  1.1067
25687SOL     OW85838   0.041   3.048  10.022 -0.4999 -0.2261 -0.2197
25687SOL    HW185839   0.086   3.039   9.939 -0.4153  0.5666 -0.2634
25687SOL    HW285840   0.101   3.010  10.087 -0.7092 -1.1552 -0.5457
25688SOL     OW85841   2.558  12.109   0.181 -0.4509 -0.0060 -1.0617
25688SOL    HW185842   2.592  12.036   0.130  0.0907 -0.2030 -0.4439
25688SOL    HW285843   2.613  12.110   0.260 -3.2339 -1.7768  1.1302
25689SOL     OW85844   2.886   2.047   1.309 -0.1404  0.7461 -0.3636
25689SOL    HW185845   2.795   2.056   1.338 -0.4797 -0.4067 -1.0175
25689SOL    HW285846   2.884   2.070   1.216 -0.5212 -2.8308 -1.3698
25690SOL     OW85847   7.251   5.221  10.479  0.3961  0.5435  0.4221
25690SOL    HW185848   7.256   5.284  10.551 -0.0896  0.0301  0.9206
25690SOL    HW285849   7.219   5.141  10.520 -0.0012  0.2718 -0.3939
25691SOL     OW85850   3.625  10.017   6.996 -0.1774  0.2688  0.3068
25691SOL    HW185851   3.638   9.988   7.086 -1.3221  1.5821  0.9295
25691SOL    HW285852   3.713  10.013   6.957  0.3770 -0.0868  1.5356
25692SOL     OW85853   4.844   8.149   8.546  0.5044 -0.3678  0.3077
25692SOL    HW185854   4.849   8.082   8.477 -1.7443  0.7254 -1.0415
25692SOL    HW285855   4.809   8.226   8.502 -0.6753  0.4944  2.5967
25693SOL     OW85856  11.440   7.470  11.841 -0.0392  0.0490  0.4151
25693SOL    HW185857  11.461   7.410  11.769  0.8104  1.9370 -0.9740
25693SOL    HW285858  11.364   7.519  11.810  0.6368  1.2219  0.5954
25694SOL     OW85859  11.662  10.869  12.181  0.3213  0.4447 -0.9053
25694SOL    HW185860  11.673  10.785  12.225  0.6006  0.7748 -0.3259
25694SOL    HW285861  11.581  10.905  12.218  0.1060  0.3523 -1.2833
25695SOL     OW85862   1.435   3.592   9.833  0.0941 -0.2450 -0.2994
25695SOL    HW185863   1.368   3.571   9.898 -1.5991  0.4798 -1.7107
25695SOL    HW285864   1.430   3.687   9.824 -0.0092 -0.3656 -1.7515
25696SOL     OW85865   2.485   0.130   6.384  0.3188  0.2955  0.2503
25696SOL    HW185866   2.543   0.138   6.309  0.2640 -1.0602  0.0445
25696SOL    HW285867   2.477   0.036   6.399 -2.0308  0.4201  0.1189
25697SOL     OW85868   8.964   1.255   0.679 -0.2135 -0.3991 -0.0551
25697SOL    HW185869   9.050   1.213   0.669 -0.4013 -0.8332  0.1465
25697SOL    HW285870   8.979   1.346   0.654  0.0618 -0.7217 -1.0994
25698SOL     OW85871   4.938  11.907   6.933  0.1322  0.1936 -0.0324
25698SOL    HW185872   4.881  11.934   6.861 -0.8864 -0.3831  0.5313
25698SOL    HW285873   4.916  11.815   6.947 -0.5501  0.5981  1.7817
25699SOL     OW85874   4.258   1.025  10.533  0.0583  0.4870  0.1202
25699SOL    HW185875   4.172   1.068  10.530 -0.2336 -0.1242 -3.2564
25699SOL    HW285876   4.240   0.932  10.521  1.1767  0.4631 -1.8774
25700SOL     OW85877   5.323   6.747   0.891 -0.2533 -0.4495 -0.4121
25700SOL    HW185878   5.265   6.672   0.907 -0.5621 -0.3449 -1.0288
25700SOL    HW285879   5.357   6.769   0.978 -1.9581  0.1570  0.1478
25701SOL     OW85880   6.443   6.807   5.212  0.1118  0.1609 -0.1799
25701SOL    HW185881   6.412   6.860   5.139  0.3138  0.6525  0.0887
25701SOL    HW285882   6.408   6.850   5.290  0.0115 -0.2827  0.0237
25702SOL     OW85883   3.947   9.487   5.831 -0.4243  0.5587 -0.1173
25702SOL    HW185884   3.944   9.547   5.755 -2.0471 -1.7672 -2.0458
25702SOL    HW285885   3.856   9.462   5.845  0.2008 -1.5102  0.5500
25703SOL     OW85886   8.350   5.570   2.512  0.3379  0.2742  0.4546
25703SOL    HW185887   8.313   5.501   2.568 -2.0232  1.4363  0.4574
25703SOL    HW285888   8.333   5.539   2.423 -0.6367  0.7848  0.4552
25704SOL     OW85889   6.287   0.930   9.204 -0.1178 -0.5058 -0.4044
25704SOL    HW185890   6.328   0.853   9.245 -1.3021  0.6051  3.3201
25704SOL    HW285891   6.361   0.977   9.165  1.2565 -1.5569  0.7694
25705SOL     OW85892  12.444   8.554  10.773  0.3874 -0.3707 -0.3306
25705SOL    HW185893  12.466   8.589  10.859  0.8874  2.0150 -1.3541
25705SOL    HW285894  12.356   8.587  10.755  0.7077  0.0463 -1.1710
25706SOL     OW85895   5.533   9.001  10.085 -0.0415 -0.2555  0.2666
25706SOL    HW185896   5.521   9.086  10.044 -0.6744 -0.6811 -0.4639
25706SOL    HW285897   5.620   8.973  10.057  1.1387  1.0984  2.3275
25707SOL     OW85898  11.792   8.698   4.810 -0.3861 -0.2364  0.1631
25707SOL    HW185899  11.712   8.749   4.817 -0.9168 -0.8370 -1.1120
25707SOL    HW285900  11.862   8.759   4.836 -1.2636  0.1940  1.5860
25708SOL     OW85901  12.057   1.463   3.154 -1.0242  0.4931  0.4202
25708SOL    HW185902  12.089   1.444   3.242 -0.0462 -0.2658 -0.0855
25708SOL    HW285903  12.084   1.554   3.137  0.1042  0.1455  0.3318
25709SOL     OW85904   4.136   5.942   6.472 -0.1253  0.4463 -0.0768
25709SOL    HW185905   4.041   5.938   6.460  0.1013  0.7336 -2.5405
25709SOL    HW285906   4.172   5.917   6.387  2.0552 -0.6660  1.0816
25710SOL     OW85907   9.050   1.834   4.851  0.6900  0.0009 -0.4736
25710SOL    HW185908   8.958   1.815   4.832  0.3768 -0.9865  1.7296
25710SOL    HW285909   9.099   1.776   4.792 -0.1028 -0.0171 -1.1292
25711SOL     OW85910   5.651   4.480  12.127  0.4310 -0.2322  0.4111
25711SOL    HW185911   5.645   4.572  12.102  1.8858  0.0013  0.8502
25711SOL    HW285912   5.743   4.458  12.117  0.4595 -1.0944  2.2160
25712SOL     OW85913   9.952   1.389   0.617 -0.1863  0.1102  0.3508
25712SOL    HW185914   9.960   1.426   0.705  0.9542  0.5980  0.0601
25712SOL    HW285915  10.025   1.327   0.611  0.8212  1.3410 -0.8406
25713SOL     OW85916   1.650   5.167  10.877 -0.0860  0.4921  0.4016
25713SOL    HW185917   1.727   5.200  10.924  0.9908  1.0605 -1.6447
25713SOL    HW285918   1.581   5.230  10.898 -0.1069 -0.1359  2.4325
25714SOL     OW85919   1.758   5.394   8.528  0.0827  0.2053  0.1792
25714SOL    HW185920   1.800   5.411   8.613 -0.4555  1.2646  0.2426
25714SOL    HW285921   1.700   5.320   8.544  2.3126 -1.6968 -0.0471
25715SOL     OW85922   0.548   8.285   4.333  0.1214  0.9095 -0.4295
25715SOL    HW185923   0.512   8.248   4.414  0.0677  0.3818 -0.6908
25715SOL    HW285924   0.642   8.293   4.350 -0.0172  1.6661  0.0145
25716SOL     OW85925  12.556   2.762  12.304 -0.4892  0.2784  0.7408
25716SOL    HW185926  12.585   2.849  12.275 -0.4178  0.1818  0.5204
25716SOL    HW285927  12.611   2.743  12.380  1.4221 -0.7328 -0.8153
25717SOL     OW85928   7.728   7.423  11.159 -0.3429  0.6986 -0.3430
25717SOL    HW185929   7.669   7.494  11.183 -1.2110 -0.0785 -0.1211
25717SOL    HW285930   7.700   7.397  11.071 -0.1793  0.4945 -0.3358
25718SOL     OW85931   1.650   9.160  12.087  0.0046 -0.3127  0.4049
25718SOL    HW185932   1.710   9.117  12.026  1.1383 -0.2786  1.4535
25718SOL    HW285933   1.700   9.234  12.121 -0.1128 -1.0122  2.2578
25719SOL     OW85934   6.548   4.878   1.371  0.3297 -0.1048  0.0265
25719SOL    HW185935   6.517   4.855   1.283 -1.0312  0.3029  0.3802
25719SOL    HW285936   6.526   4.970   1.381  0.8565 -0.0338  0.6545
25720SOL     OW85937   1.351   8.744   2.445 -0.4508  0.2757 -0.2352
25720SOL    HW185938   1.339   8.686   2.521 -1.2495  0.3682 -0.2845
25720SOL    HW285939   1.445   8.739   2.426 -0.1795  0.4834  0.9455
25721SOL     OW85940   0.784   5.723   2.338 -0.3224  0.0039  0.3758
25721SOL    HW185941   0.771   5.643   2.287 -0.5763  0.4899 -0.3332
25721SOL    HW285942   0.879   5.725   2.353  0.2829  1.4155 -2.7672
25722SOL     OW85943   8.365  10.985   5.354 -0.3351 -0.2572  0.6132
25722SOL    HW185944   8.367  11.074   5.319 -0.9652 -0.0253  1.1614
25722SOL    HW285945   8.452  10.950   5.335 -0.1257  0.4323  0.2838
25723SOL     OW85946   8.265   2.108   4.964  0.0382  0.2824 -0.2285
25723SOL    HW185947   8.345   2.066   4.996 -0.3847 -0.7993 -0.5503
25723SOL    HW285948   8.296   2.184   4.915  0.7733  0.9010  1.1345
25724SOL     OW85949  12.281   1.799   9.378 -0.4104  0.1356  0.3752
25724SOL    HW185950  12.196   1.817   9.417 -0.8162  0.7978 -0.7674
25724SOL    HW285951  12.281   1.704   9.363 -0.3722 -0.0806  1.6368
25725SOL     OW85952   6.818   3.389   6.954 -0.3044 -1.0356  0.3313
25725SOL    HW185953   6.877   3.438   6.897 -0.9765  0.4904  0.9012
25725SOL    HW285954   6.745   3.449   6.971  0.4646 -0.8606  3.8743
25726SOL     OW85955   4.157   4.310   0.896  0.0182  0.3843  0.6048
25726SOL    HW185956   4.104   4.265   0.830  1.0039  1.0384 -0.6744
25726SOL    HW285957   4.155   4.252   0.971 -0.5839 -0.7139 -0.2241
25727SOL     OW85958   1.199  10.170   2.579 -0.2957 -0.6585 -0.3630
25727SOL    HW185959   1.195  10.213   2.493 -0.1757 -1.4150 -0.7531
25727SOL    HW285960   1.292  10.149   2.591 -0.0713  0.6886  0.5959
25728SOL     OW85961   4.514   2.843   5.871 -0.1513  0.4334 -0.5026
25728SOL    HW185962   4.441   2.864   5.813 -0.0752  0.2804 -0.6580
25728SOL    HW285963   4.587   2.896   5.839 -0.0623  0.2213 -0.6587
25729SOL     OW85964   5.510   4.939  10.741 -0.7226 -0.0595 -0.0260
25729SOL    HW185965   5.498   4.989  10.660 -2.3931 -0.5125 -0.1102
25729SOL    HW285966   5.508   4.848  10.713  0.2075 -0.2098  0.3684
25730SOL     OW85967   9.446   4.283   7.564 -0.1669 -0.1622 -0.2485
25730SOL    HW185968   9.439   4.236   7.647  1.0522 -0.7897 -0.4672
25730SOL    HW285969   9.442   4.375   7.588 -1.9310 -0.3458  0.2645
25731SOL     OW85970   5.583  10.863   1.964 -0.1090  0.3582  0.4746
25731SOL    HW185971   5.672  10.892   1.983 -0.1557  0.8306 -0.0294
25731SOL    HW285972   5.528  10.938   1.984 -0.3196  0.3130  0.0803
25732SOL     OW85973   0.696   8.060   0.665  0.3162  0.4188  0.2402
25732SOL    HW185974   0.728   8.008   0.592  0.8197  1.1494 -0.0759
25732SOL    HW285975   0.734   8.019   0.743 -2.4015 -2.0554  0.4354
25733SOL     OW85976  11.786   2.513   0.321 -0.1268  0.2819  0.3750
25733SOL    HW185977  11.726   2.457   0.271 -0.1834 -0.0999  0.8629
25733SOL    HW285978  11.764   2.495   0.413  0.4205  0.4912  0.5465
25734SOL     OW85979   1.651   5.127   5.188  0.4211 -0.3727 -0.1054
25734SOL    HW185980   1.623   5.162   5.273  0.0198  0.0201 -0.3917
25734SOL    HW285981   1.716   5.190   5.156  0.5711 -0.5197 -0.0901
25735SOL     OW85982  10.344   2.768  12.333 -0.4418  0.4377  0.4620
25735SOL    HW185983  10.264   2.782  12.282  2.8347  0.7812 -5.4109
25735SOL    HW285984  10.383   2.689  12.296  2.4265  0.7854  2.3940
25736SOL     OW85985   4.020   9.464   3.589 -0.3053 -0.0536 -0.8113
25736SOL    HW185986   4.115   9.451   3.586  0.1817  3.0673 -1.5627
25736SOL    HW285987   3.999   9.465   3.682  0.3843 -0.7515 -0.6356
25737SOL     OW85988   2.897   3.989   4.504  0.0080 -0.7138  0.0201
25737SOL    HW185989   2.890   3.965   4.596  0.0677  1.9039  0.7703
25737SOL    HW285990   2.826   3.940   4.461  0.1421 -2.1582  1.3662
25738SOL     OW85991  11.190  10.231   0.706  0.2655  0.2683 -0.4498
25738SOL    HW185992  11.177  10.324   0.725  0.3085  0.4441 -1.2505
25738SOL    HW285993  11.279  10.227   0.669  0.2972 -0.1028 -0.3331
25739SOL     OW85994   1.819   7.165   9.054 -0.4728 -0.2142  0.4700
25739SOL    HW185995   1.859   7.108   9.120  0.9004  0.6076  0.3657
25739SOL    HW285996   1.816   7.251   9.094 -2.2583 -0.2442  0.5002
25740SOL     OW85997   7.445   3.563  10.516 -0.2531  0.1615  0.2578
25740SOL    HW185998   7.431   3.572  10.610 -0.1842  1.0805  0.1858
25740SOL    HW285999   7.424   3.649  10.480  0.6919  0.1134 -0.4430
25741SOL     OW86000   7.115   6.414   4.051 -0.0270 -0.0309  0.2779
25741SOL    HW186001   7.124   6.441   3.960  0.4421  0.8086  0.5629
25741SOL    HW286002   7.056   6.479   4.090 -0.4527 -0.5473  0.5048
25742SOL     OW86003   9.201  10.799   8.907 -0.3752  0.0371 -0.0804
25742SOL    HW186004   9.244  10.759   8.832 -0.2779  0.7696 -0.4154
25742SOL    HW286005   9.272  10.817   8.969 -0.3249  0.3753 -0.2381
25743SOL     OW86006   0.120   6.163   4.964  0.6464  0.3828  0.0753
25743SOL    HW186007   0.120   6.256   4.942 -0.9989  0.2442 -0.7000
25743SOL    HW286008   0.153   6.119   4.886 -0.2606  0.2214 -0.2313
25744SOL     OW86009   8.559   8.756   4.035 -0.4595 -0.0067  0.0862
25744SOL    HW186010   8.541   8.833   3.981 -0.8064 -0.0136  0.1928
25744SOL    HW286011   8.645   8.774   4.073 -0.8852  0.7025  0.7545
25745SOL     OW86012   3.901   6.244   3.387  0.1667  0.1837 -0.1304
25745SOL    HW186013   3.942   6.158   3.384  0.2481  0.2136  0.1535
25745SOL    HW286014   3.965   6.300   3.432  0.4954  0.6001 -1.0777
25746SOL     OW86015   1.633   8.819   1.396 -0.3922 -0.4245  0.1300
25746SOL    HW186016   1.634   8.738   1.344  1.2528  0.3700 -1.1712
25746SOL    HW286017   1.692   8.801   1.469  0.6292 -0.1600 -0.6079
25747SOL     OW86018   1.028   1.278   6.088 -0.0570 -0.9109 -0.0627
25747SOL    HW186019   0.999   1.265   6.178  0.0991 -1.2049 -0.0538
25747SOL    HW286020   1.020   1.373   6.074 -0.7704 -0.9532  0.0179
25748SOL     OW86021   4.777   4.635   8.054 -0.6414 -0.5224  0.0203
25748SOL    HW186022   4.707   4.576   8.028 -0.4599 -1.9594  2.4252
25748SOL    HW286023   4.786   4.621   8.149  0.0175  2.7693  0.5696
25749SOL     OW86024  10.565   5.005   1.926 -0.0445 -0.0958 -0.4844
25749SOL    HW186025  10.608   4.930   1.885 -0.2111 -0.2894 -0.3045
25749SOL    HW286026  10.538   5.060   1.853 -0.0804 -0.2966 -0.6221
25750SOL     OW86027   9.167   9.815   4.145  0.3299 -0.1183 -0.4038
25750SOL    HW186028   9.080   9.789   4.174  0.4819 -0.9777 -0.6969
25750SOL    HW286029   9.226   9.752   4.187  0.8599  0.7520  0.1830
25751SOL     OW86030   5.194   5.082  12.111 -0.4861 -0.3755 -0.4607
25751SOL    HW186031   5.131   5.050  12.176 -0.5294  1.3177  0.3897
25751SOL    HW286032   5.169   5.038  12.030  0.0978 -3.2595  0.7713
25752SOL     OW86033   5.488  10.216   6.282 -0.5641  0.3234 -0.0399
25752SOL    HW186034   5.513  10.202   6.373 -2.1601 -0.8898  0.2720
25752SOL    HW286035   5.526  10.300   6.259 -0.3095  0.7655  1.8311
25753SOL     OW86036   2.066   2.353   3.401 -0.0076  0.0015  0.2172
25753SOL    HW186037   2.006   2.427   3.388  0.1004 -0.2543 -2.3834
25753SOL    HW286038   2.011   2.283   3.436 -0.7183  0.4989  0.1171
25754SOL     OW86039   1.530  11.360   1.945  0.0490 -0.2696  0.3015
25754SOL    HW186040   1.440  11.371   1.916 -0.7803 -2.2515  1.8968
25754SOL    HW286041   1.524  11.340   2.038  2.2700  1.0995  0.8297
25755SOL     OW86042   0.009   4.988   4.928 -0.1605  0.3210  0.1787
25755SOL    HW186043   0.055   4.907   4.904 -0.7192  0.6990 -2.3970
25755SOL    HW286044   0.004   4.984   5.024 -0.2650 -2.7446  0.1618
25756SOL     OW86045   6.232  12.155  12.031 -0.0986  0.3055  0.0131
25756SOL    HW186046   6.158  12.204  12.065 -1.1892 -0.9389 -0.4984
25756SOL    HW286047   6.202  12.064  12.029  2.0144 -0.4994  1.4051
25757SOL     OW86048   9.282   2.525   0.363  0.5247  0.9898  0.1460
25757SOL    HW186049   9.233   2.468   0.422  1.8042 -0.2339  0.0854
25757SOL    HW286050   9.263   2.614   0.394 -1.6308  0.5863  0.1633
25758SOL     OW86051  10.318   6.007   7.902 -0.4799 -0.5019  0.3167
25758SOL    HW186052  10.374   6.010   7.980  0.4231  0.8868 -0.3472
25758SOL    HW286053  10.372   6.044   7.832 -1.2322 -1.8293 -1.0204
25759SOL     OW86054   7.981  10.137   4.418 -0.0293  0.2809 -0.2594
25759SOL    HW186055   7.915  10.105   4.480 -0.0401  1.3195  0.2882
25759SOL    HW286056   7.968  10.232   4.416 -0.4787  0.2316 -2.3689
25760SOL     OW86057   6.211   1.738   2.924  0.2091 -0.3717  0.2159
25760SOL    HW186058   6.252   1.781   2.849  0.1917 -1.0887 -0.2139
25760SOL    HW286059   6.199   1.808   2.988 -0.0974  0.3232 -0.5846
25761SOL     OW86060   4.849   0.968  11.017 -0.1435 -0.1878  0.3696
25761SOL    HW186061   4.938   0.950  10.986 -0.4612  0.1228 -0.7490
25761SOL    HW286062   4.829   0.896  11.077  0.6031 -0.6212  0.1073
25762SOL     OW86063   3.740  10.995   9.378  0.0398  0.6716  0.4372
25762SOL    HW186064   3.683  10.940   9.325  0.0887  0.8432  0.2052
25762SOL    HW286065   3.687  11.073   9.397  0.0721  0.6730  0.5215
25763SOL     OW86066   3.714   8.826   1.375 -0.5483  0.3523 -0.0861
25763SOL    HW186067   3.641   8.772   1.345 -0.7928  0.8679 -0.4227
25763SOL    HW286068   3.791   8.772   1.360 -0.6669  0.5869 -1.6463
25764SOL     OW86069   4.180   9.919   0.380 -0.3455  0.5646 -0.0007
25764SOL    HW186070   4.242   9.974   0.331 -0.9587  1.8124  0.5686
25764SOL    HW286071   4.224   9.901   0.463 -0.2848  0.5012 -0.0469
25765SOL     OW86072  10.950   2.921   1.025 -0.0182  0.5202 -0.0878
25765SOL    HW186073  10.946   2.955   1.114  0.5167 -0.9995  0.5585
25765SOL    HW286074  10.958   2.826   1.036 -1.3727  0.1618 -1.7825
25766SOL     OW86075   2.358   0.207   8.568  0.3550  0.1801  0.3626
25766SOL    HW186076   2.326   0.231   8.655  1.0797 -1.3243  1.0752
25766SOL    HW286077   2.288   0.233   8.509 -0.4712  0.5533  1.4620
25767SOL     OW86078   4.858   8.913   5.437  0.4046 -0.4230  0.3392
25767SOL    HW186079   4.941   8.927   5.484  1.3867 -1.6995 -0.9118
25767SOL    HW286080   4.826   8.830   5.470 -0.9345  0.5289  1.5309
25768SOL     OW86081  11.373  12.002   7.875  0.4931 -0.1122 -0.0148
25768SOL    HW186082  11.334  12.058   7.942  1.2374 -0.8067  1.0412
25768SOL    HW286083  11.353  12.046   7.792 -0.1819  0.9370  0.6724
25769SOL     OW86084   5.417   8.190   5.044  0.0677  0.5281  0.7661
25769SOL    HW186085   5.418   8.153   5.132 -1.0477 -1.7946 -0.1142
25769SOL    HW286086   5.495   8.154   5.002  0.8719  2.0222  0.8917
25770SOL     OW86087   9.002  11.957  11.390  0.5714  0.3513  0.4559
25770SOL    HW186088   8.961  11.870  11.391  0.5047  0.3891  1.0351
25770SOL    HW286089   8.934  12.015  11.423  0.5645  0.6550 -0.0739
25771SOL     OW86090  11.917   0.244   5.160 -0.4212  0.2693  0.0372
25771SOL    HW186091  11.879   0.190   5.091 -0.0459  0.4544 -0.3170
25771SOL    HW286092  11.854   0.315   5.172 -2.3567 -1.6754  2.4586
25772SOL     OW86093   2.668   6.147   1.827  0.2902 -0.4470  0.1841
25772SOL    HW186094   2.646   6.221   1.884  1.3923  1.5359 -1.8149
25772SOL    HW286095   2.602   6.081   1.847 -2.0721  1.8839  0.5601
25773SOL     OW86096   5.565   1.758   9.023 -0.4128  0.1796 -0.2740
25773SOL    HW186097   5.494   1.747   9.086 -0.3645 -0.7204 -0.3675
25773SOL    HW286098   5.642   1.777   9.076 -0.6771  1.0156 -0.1636
25774SOL     OW86099   4.913  11.974   1.321  0.0676  0.0488 -0.1727
25774SOL    HW186100   4.870  11.889   1.309  0.7817  0.0155 -3.1815
25774SOL    HW286101   4.844  12.038   1.304 -0.0586  0.0990  0.4687
25775SOL     OW86102  11.111   2.252   7.259  0.4483  0.5356  0.1912
25775SOL    HW186103  11.078   2.338   7.237  1.2168  0.3389 -2.0123
25775SOL    HW286104  11.189   2.242   7.205  0.6883 -1.3341  0.8035
25776SOL     OW86105  11.348   4.124   5.820  0.5010 -0.4814 -0.0480
25776SOL    HW186106  11.340   4.046   5.875  0.2895 -1.0763 -0.8998
25776SOL    HW286107  11.428   4.167   5.852 -0.2158 -0.1957  1.4599
25777SOL     OW86108  10.419   3.845   1.891  0.6250 -0.4392  0.1866
25777SOL    HW186109  10.335   3.867   1.931 -0.7154  1.0655 -3.0959
25777SOL    HW286110  10.447   3.765   1.936 -3.0423 -1.5841  0.7646
25778SOL     OW86111   7.894   6.711  11.777 -0.1887  0.0466  0.0333
25778SOL    HW186112   7.957   6.740  11.843 -0.1122  0.4460 -0.2149
25778SOL    HW286113   7.843   6.789  11.756 -0.8971 -0.3134  0.3666
25779SOL     OW86114  10.672   1.471   5.567 -0.5424 -0.7568 -0.2552
25779SOL    HW186115  10.606   1.460   5.499 -0.8968 -0.2762 -0.0005
25779SOL    HW286116  10.622   1.491   5.646 -0.1067 -0.6619  0.0028
25780SOL     OW86117  12.016   7.124   8.804 -0.6169  0.0817 -0.0143
25780SOL    HW186118  12.053   7.189   8.744 -1.9591  2.8931  1.9744
25780SOL    HW286119  11.935   7.096   8.762 -0.0635 -0.2798 -0.8598
25781SOL     OW86120   0.595  10.771   3.901  0.1757  0.5510  0.6899
25781SOL    HW186121   0.671  10.825   3.922  0.1240  0.4933  1.0387
25781SOL    HW286122   0.568  10.735   3.985  0.0497  0.1941  0.5009
25782SOL     OW86123   2.930   1.161   3.793  0.5774 -0.4050 -1.1537
25782SOL    HW186124   2.987   1.155   3.717  4.1317  0.5824  1.1790
25782SOL    HW286125   2.892   1.249   3.789  0.3707 -0.5278 -1.9766
25783SOL     OW86126   9.243   8.244  11.502 -0.1238  0.4900  0.7254
25783SOL    HW186127   9.171   8.301  11.526 -0.4370  0.6896 -0.5723
25783SOL    HW286128   9.218   8.158  11.535 -1.0545  0.5185  0.1241
25784SOL     OW86129  11.643   9.562  11.976 -0.2940  0.1487  0.2703
25784SOL    HW186130  11.718   9.563  11.916 -1.5182  2.9803 -1.4316
25784SOL    HW286131  11.673   9.608  12.054 -0.0253  0.5632 -0.0769
25785SOL     OW86132   1.586   0.089   9.308 -0.0996 -0.4355  0.0284
25785SOL    HW186133   1.608   0.165   9.361  0.2710  2.2180 -3.5448
25785SOL    HW286134   1.662   0.032   9.316  1.3600  1.3875 -0.1230
25786SOL     OW86135   8.615   6.980   5.717 -0.8217  0.2488  0.1116
25786SOL    HW186136   8.662   6.912   5.765 -1.7159 -0.3294  0.1828
25786SOL    HW286137   8.532   6.989   5.762 -1.2762  0.4003 -0.7276
25787SOL     OW86138  12.120   5.657   4.659 -0.0185 -0.5358 -0.1465
25787SOL    HW186139  12.045   5.708   4.629  0.9353 -0.4534 -2.6368
25787SOL    HW286140  12.087   5.607   4.734 -2.4447 -0.2457 -0.9441
25788SOL     OW86141   0.455   9.122  12.291  0.4780  0.2691  0.2232
25788SOL    HW186142   0.512   9.151  12.361  0.1407 -1.0497  1.0988
25788SOL    HW286143   0.506   9.055  12.244  0.9791  1.6543 -1.2884
25789SOL     OW86144  10.395   2.377  10.346  0.4400  0.1338 -0.0444
25789SOL    HW186145  10.426   2.322  10.418 -1.5134  0.4582  1.1235
25789SOL    HW286146  10.428   2.464  10.368  0.1506  0.1644  0.2868
25790SOL     OW86147   9.835   9.543  10.170  0.4704 -0.2998 -0.3554
25790SOL    HW186148   9.778   9.479  10.213  1.8015 -1.4745 -0.2395
25790SOL    HW286149   9.892   9.575  10.240  0.2576  0.5104 -0.5509
25791SOL     OW86150   6.309   5.108   7.093 -0.0011 -0.6678 -0.0505
25791SOL    HW186151   6.334   5.112   7.185  1.3209 -1.0686 -0.3738
25791SOL    HW286152   6.389   5.126   7.045 -0.7229 -0.2202 -1.1349
25792SOL     OW86153   7.977   0.151   7.872  0.7224  0.0136 -0.3702
25792SOL    HW186154   7.980   0.210   7.796 -1.7356  0.8141  0.0656
25792SOL    HW286155   7.893   0.106   7.864  0.0775  0.6012  2.2021
25793SOL     OW86156   9.817   1.908   2.591 -0.9498  0.1093  0.1789
25793SOL    HW186157   9.759   1.862   2.531 -1.1548  1.0893 -0.3967
25793SOL    HW286158   9.887   1.846   2.610 -1.2154 -0.4266 -0.5821
25794SOL     OW86159   4.101   3.616  11.831  0.5623 -0.2512 -0.0719
25794SOL    HW186160   4.033   3.657  11.778  1.8201  1.1704 -0.6573
25794SOL    HW286161   4.131   3.542  11.779  1.7950  1.1349 -1.4466
25795SOL     OW86162   3.598   5.685   0.677 -0.1965 -0.0162 -0.0698
25795SOL    HW186163   3.673   5.722   0.629 -0.2568  1.0525  0.6344
25795SOL    HW286164   3.627   5.598   0.702  0.8707  0.4215  0.2904
25796SOL     OW86165   3.238   7.495  10.085 -0.1000  0.0746 -0.3181
25796SOL    HW186166   3.161   7.543  10.114 -0.3613 -0.7596  0.4225
25796SOL    HW286167   3.204   7.408  10.060  0.5624 -0.2380 -0.1517
25797SOL     OW86168   0.772   3.410   6.498  0.6243  0.1416 -0.0053
25797SOL    HW186169   0.842   3.475   6.494  1.4498 -0.7343 -0.2331
25797SOL    HW286170   0.709   3.439   6.432  1.2627  0.4012 -0.5169
25798SOL     OW86171  10.226  11.573   6.093 -0.5954  0.2148  0.1936
25798SOL    HW186172  10.135  11.602   6.084 -0.6892  0.5370  1.9163
25798SOL    HW286173  10.223  11.507   6.162  0.2431 -1.0107 -0.9082
25799SOL     OW86174   5.672  11.335  10.388  0.8920 -0.4552  0.2777
25799SOL    HW186175   5.644  11.245  10.378 -1.4166  0.3795 -1.5400
25799SOL    HW286176   5.738  11.348  10.320 -1.5389  0.1771 -2.1046
25800SOL     OW86177   2.847   2.067  12.205 -0.8257  0.0865  0.3089
25800SOL    HW186178   2.785   1.996  12.192 -0.1488 -0.7652  1.5416
25800SOL    HW286179   2.793   2.140  12.235 -1.4939  0.0468 -0.7495
25801SOL     OW86180   4.230   4.649   2.539  0.0111  0.1179 -0.4105
25801SOL    HW186181   4.317   4.654   2.579  0.4849  0.4133 -1.4359
25801SOL    HW286182   4.243   4.594   2.461 -0.2346  1.8792 -1.7665
25802SOL     OW86183   3.986   6.684   7.107 -0.3322  0.0037 -0.3959
25802SOL    HW186184   4.028   6.599   7.123 -0.2388  0.0824 -0.2145
25802SOL    HW286185   3.908   6.682   7.164 -0.7274 -0.2531 -0.9345
25803SOL     OW86186   3.498  11.012  10.057  0.2571  0.6069 -0.0424
25803SOL    HW186187   3.589  10.995  10.080  0.5281  0.7069 -0.9877
25803SOL    HW286188   3.503  11.081   9.991 -0.4056 -0.4497 -1.2383
25804SOL     OW86189   2.546   4.691   0.796 -0.2046 -0.1471  0.3842
25804SOL    HW186190   2.476   4.754   0.812 -0.2750 -0.4672  1.4419
25804SOL    HW286191   2.580   4.714   0.710  0.3255  1.8825  1.0780
25805SOL     OW86192   7.840   1.256  12.453 -0.0902  0.3741 -0.0213
25805SOL    HW186193   7.795   1.276  12.535  3.0016  2.4251  1.3991
25805SOL    HW286194   7.869   1.165  12.463 -1.5126 -0.0849  0.1705
25806SOL     OW86195   2.255   1.738  11.100  0.8072  0.0897  0.2986
25806SOL    HW186196   2.263   1.750  11.006  0.4870 -0.0460  0.2527
25806SOL    HW286197   2.345   1.727  11.131  1.1483  2.6125  0.3595
25807SOL     OW86198   3.419   5.777   3.438 -0.0992 -0.3321 -0.0362
25807SOL    HW186199   3.393   5.702   3.385  0.6094  0.2636 -1.2736
25807SOL    HW286200   3.337   5.809   3.477 -0.5291 -1.2025 -0.2099
25808SOL     OW86201   0.911  12.349   7.823 -0.0397 -0.1473  0.8088
25808SOL    HW186202   0.835  12.403   7.844  0.5271  0.3180  1.7571
25808SOL    HW286203   0.916  12.350   7.728 -0.6863  0.5646  0.7734
25809SOL     OW86204   1.383   5.332   4.152  0.3241 -0.1073 -0.4285
25809SOL    HW186205   1.462   5.338   4.206 -0.4284  1.1410  0.6073
25809SOL    HW286206   1.350   5.244   4.168  1.1156 -0.3992 -0.3153
25810SOL     OW86207  11.114   3.416   4.723  0.1164  0.0494  0.2921
25810SOL    HW186208  11.068   3.399   4.806 -0.5526  0.6367  0.0537
25810SOL    HW286209  11.098   3.337   4.671  1.2011 -0.6555  0.9980
25811SOL     OW86210   2.720  10.641   8.374 -0.2305 -0.3334 -0.0291
25811SOL    HW186211   2.638  10.649   8.326 -0.7533  0.7929  0.9708
25811SOL    HW286212   2.703  10.685   8.458  0.7649 -1.8363  1.0245
25812SOL     OW86213   4.751  12.340   6.761 -0.4943  0.7833  0.4467
25812SOL    HW186214   4.809  12.328   6.686  0.9231  0.8242  1.4916
25812SOL    HW286215   4.719  12.430   6.752 -0.2505  0.8244 -0.0499
25813SOL     OW86216  11.313  12.513  11.137  0.1011  0.0097 -0.4694
25813SOL    HW186217  11.242  12.459  11.172 -0.2615 -0.6392 -2.0918
25813SOL    HW286218  11.277  12.601  11.133 -0.3867 -0.1937 -0.6560
25814SOL     OW86219   3.596   9.039   4.098  0.0288 -0.1391 -0.4122
25814SOL    HW186220   3.520   9.078   4.139 -1.1197 -0.1953 -2.3495
25814SOL    HW286221   3.595   8.948   4.125  0.1144  0.1280  0.5171
25815SOL     OW86222  11.852  11.852  10.322 -0.0610 -0.3679 -0.5510
25815SOL    HW186223  11.916  11.782  10.320  0.9923  0.5259  0.2179
25815SOL    HW286224  11.789  11.826  10.390 -0.3817 -1.1351 -1.1365
25816SOL     OW86225   6.901   2.196  10.652  0.5761  0.3492 -0.1332
25816SOL    HW186226   6.855   2.235  10.727  2.1763 -2.3012  2.4488
25816SOL    HW286227   6.848   2.222  10.576 -2.3110  1.5810  2.0724
25817SOL     OW86228   6.771  10.729   2.135 -0.2137 -0.1052 -0.3647
25817SOL    HW186229   6.735  10.663   2.194 -0.3305  0.5165  0.2760
25817SOL    HW286230   6.865  10.724   2.149 -0.2803  0.4756  0.3658
25818SOL     OW86231  10.295   3.224   6.076  0.0683 -0.0877 -0.5995
25818SOL    HW186232  10.332   3.137   6.060 -1.1719 -0.7243 -0.1579
25818SOL    HW286233  10.206   3.220   6.038  0.1453  1.1377 -0.9660
25819SOL     OW86234   0.534   1.963   5.045 -0.5594  0.5273  0.0318
25819SOL    HW186235   0.532   1.937   4.953 -3.3606  0.5556 -0.0089
25819SOL    HW286236   0.540   2.058   5.043  0.8757  0.4513 -0.0492
25820SOL     OW86237  10.027   5.635   6.623  0.0050  0.4024 -0.2339
25820SOL    HW186238  10.114   5.625   6.586 -0.0546  1.1042 -0.5829
25820SOL    HW286239   9.994   5.718   6.587  0.4428  1.8082  2.3298
25821SOL     OW86240   5.017   7.959  10.159  0.4773 -0.9974  0.3775
25821SOL    HW186241   5.020   7.968  10.063 -0.3713 -2.0866  0.2260
25821SOL    HW286242   5.105   7.984  10.188 -0.4615  4.0804 -0.1886
25822SOL     OW86243   5.619   1.805   5.575  0.3936  0.2622 -0.5878
25822SOL    HW186244   5.582   1.826   5.661  0.0924  0.5880 -0.7952
25822SOL    HW286245   5.543   1.788   5.520  0.6056 -0.6351 -0.6240
25823SOL     OW86246   3.369   6.670  12.234 -0.4056 -0.0707 -0.2397
25823SOL    HW186247   3.319   6.751  12.222 -0.1409  0.5758  2.3961
25823SOL    HW286248   3.309   6.600  12.209 -2.7449  0.6671  2.6664
25824SOL     OW86249   8.492   3.534   4.993 -0.1198 -0.3016  0.3578
25824SOL    HW186250   8.398   3.514   4.986 -0.0919 -0.5220  0.5762
25824SOL    HW286251   8.533   3.483   4.923 -0.1089 -0.6004  0.5782
25825SOL     OW86252   8.989  12.336   4.862 -0.4431  0.4116 -0.0421
25825SOL    HW186253   8.959  12.262   4.809 -0.5341 -0.1507  0.7712
25825SOL    HW286254   8.920  12.347   4.928  0.5469 -0.1063  1.0983
25826SOL     OW86255   2.498   7.137   5.434 -0.4567  0.1680  0.4876
25826SOL    HW186256   2.416   7.090   5.447 -1.8829  2.4945  0.4164
25826SOL    HW286257   2.528   7.159   5.522  0.5442 -1.2801  0.5581
25827SOL     OW86258  11.714   9.937   7.095  0.1885  0.0382 -0.0174
25827SOL    HW186259  11.804   9.936   7.125 -0.1459 -0.6517  1.0144
25827SOL    HW286260  11.711  10.005   7.028  1.4783  0.0244 -0.1014
25828SOL     OW86261   8.830   9.216   2.688  0.0466  0.4712 -0.2432
25828SOL    HW186262   8.781   9.288   2.729 -0.1306  0.7709 -0.9652
25828SOL    HW286263   8.763   9.162   2.646  0.1358 -0.3667  0.6553
25829SOL     OW86264  12.196  10.532  11.544 -0.5264 -0.2224 -0.2923
25829SOL    HW186265  12.147  10.611  11.566  0.3551 -0.1107  1.3793
25829SOL    HW286266  12.247  10.557  11.467 -0.1715  0.8922  0.2771
25830SOL     OW86267  11.105   0.996   7.479 -0.5090  0.1462 -0.4378
25830SOL    HW186268  11.019   0.992   7.436 -0.9036  2.2344  0.0260
25830SOL    HW286269  11.147   1.074   7.441  1.5550 -1.2825 -1.2435
25831SOL     OW86270  11.267   1.921   4.061  0.2223  0.8928 -0.0967
25831SOL    HW186271  11.354   1.928   4.022  0.9897 -0.8061  1.1730
25831SOL    HW286272  11.258   1.999   4.115  1.5929  0.4145  0.8843
25832SOL     OW86273   2.096   2.991   0.484  0.2183  0.1760  0.0680
25832SOL    HW186274   2.026   2.978   0.419  0.1489 -0.9801  0.3459
25832SOL    HW286275   2.169   2.938   0.451  0.2331 -0.2983  0.8433
25833SOL     OW86276  11.048   5.238   9.467  0.2994  0.5163 -0.2227
25833SOL    HW186277  11.080   5.276   9.384 -0.5286  0.5106 -0.5541
25833SOL    HW286278  11.049   5.312   9.528 -1.2883  1.1081 -0.8606
25834SOL     OW86279   3.249   3.660   6.276 -0.1642  0.2865 -0.0095
25834SOL    HW186280   3.239   3.620   6.190 -1.6717  0.3363  0.1236
25834SOL    HW286281   3.172   3.633   6.325  1.1870 -0.6402  1.7261
25835SOL     OW86282   7.845   5.097   9.386  0.3085 -0.0943  0.0382
25835SOL    HW186283   7.928   5.061   9.354  0.9971  2.1479 -0.8715
25835SOL    HW286284   7.868   5.140   9.469  0.0360  0.4312 -0.1531
25836SOL     OW86285   2.097   4.383  10.618 -0.7987  0.2268 -0.0963
25836SOL    HW186286   2.160   4.322  10.581 -1.9831  0.8295 -3.4411
25836SOL    HW286287   2.017   4.332  10.629 -1.1906  0.6397 -0.9092
25837SOL     OW86288   0.561   2.238   3.802  0.1313  0.2028  0.3153
25837SOL    HW186289   0.489   2.300   3.814 -0.7084 -0.3332 -1.5803
25837SOL    HW286290   0.526   2.155   3.834 -0.4616 -0.2464 -1.4007
25838SOL     OW86291   5.989   7.151   6.930 -0.6226  0.4659 -0.0055
25838SOL    HW186292   6.051   7.089   6.968 -0.4537  0.7982  0.2756
25838SOL    HW286293   5.939   7.100   6.866 -0.9972 -0.1414  0.7549
25839SOL     OW86294   6.945   3.227   0.586  0.3513 -0.0693  0.0403
25839SOL    HW186295   6.978   3.138   0.578 -0.8063 -0.5701  0.6126
25839SOL    HW286296   6.987   3.275   0.515  0.4116 -1.2527 -0.7500
25840SOL     OW86297  10.409   2.427  11.781 -0.2161 -0.4319  0.3513
25840SOL    HW186298  10.413   2.375  11.862 -0.0087 -1.7311 -0.4666
25840SOL    HW286299  10.323   2.409  11.745 -1.1107  1.7094  1.2407
25841SOL     OW86300   3.937   0.486   8.111  0.7997  0.0109 -0.0242
25841SOL    HW186301   4.026   0.495   8.145  0.5520  1.7662  0.2290
25841SOL    HW286302   3.883   0.540   8.169 -0.6795 -2.0235  0.6220
25842SOL     OW86303   9.013   2.545   8.631 -0.1245 -0.5190  0.0268
25842SOL    HW186304   9.104   2.533   8.605 -0.4276 -1.8701 -0.4836
25842SOL    HW286305   8.997   2.639   8.621  1.0064 -0.3759 -0.5422
25843SOL     OW86306   9.196   4.801   8.024 -0.0590  0.5996  0.3266
25843SOL    HW186307   9.103   4.783   8.041 -0.5301  1.8364 -0.7355
25843SOL    HW286308   9.232   4.823   8.109 -0.4778 -0.8849  0.9271
25844SOL     OW86309   5.277   3.346   6.987  0.2446 -0.0162  0.0781
25844SOL    HW186310   5.240   3.375   6.904 -0.8092 -0.1771  0.4750
25844SOL    HW286311   5.356   3.298   6.964  0.9657  1.4921 -0.7194
25845SOL     OW86312   3.893   0.760   8.290  0.2654 -0.0771  0.0101
25845SOL    HW186313   3.973   0.746   8.340  1.4633  0.4888 -1.6752
25845SOL    HW286314   3.900   0.850   8.258 -0.2837 -0.5214 -1.4364
25846SOL     OW86315   7.586  10.536   3.568  0.2035 -0.2524  0.2913
25846SOL    HW186316   7.593  10.577   3.654  0.1188 -2.2256  1.3032
25846SOL    HW286317   7.674  10.542   3.531  0.3598  0.1692  0.7156
25847SOL     OW86318   1.284   8.801  10.455 -0.9472  0.2967  0.0886
25847SOL    HW186319   1.310   8.819  10.545 -0.2343 -2.2175  0.4492
25847SOL    HW286320   1.225   8.726  10.462 -0.1624 -0.5205 -1.5929
25848SOL     OW86321   3.004   5.174   2.354  0.0297  0.1889  0.1314
25848SOL    HW186322   3.012   5.096   2.299  2.0645 -1.3417  2.3801
25848SOL    HW286323   3.094   5.197   2.378 -0.6379  2.1026  1.0647
25849SOL     OW86324   1.561   6.430   2.486  0.1605  0.0480  0.1275
25849SOL    HW186325   1.478   6.398   2.451  0.1007 -1.5269  1.5783
25849SOL    HW286326   1.543   6.520   2.511 -0.1975  0.7668 -2.3979
25850SOL     OW86327   2.340   7.408   4.227 -0.2003  0.1060 -0.6405
25850SOL    HW186328   2.267   7.424   4.288 -0.5239 -0.2522 -0.9283
25850SOL    HW286329   2.360   7.494   4.192  0.3716  0.4131  0.3958
25851SOL     OW86330   4.783   2.664   3.655  0.4691 -0.0368 -0.9857
25851SOL    HW186331   4.745   2.578   3.671  0.9507 -0.1065 -0.1118
25851SOL    HW286332   4.868   2.646   3.615  0.5048  0.0378 -0.9437
25852SOL     OW86333   6.446   9.109  11.114 -0.0650  0.3013 -0.5079
25852SOL    HW186334   6.384   9.176  11.142  0.6397  0.6378  0.3063
25852SOL    HW286335   6.400   9.059  11.047 -0.7084  1.4368 -0.9463
25853SOL     OW86336   3.186   4.031   0.833 -0.3514  0.3663 -0.0865
25853SOL    HW186337   3.183   3.940   0.864  0.9301  0.0219 -0.8596
25853SOL    HW286338   3.265   4.034   0.779 -0.3614  1.9652 -0.0369
25854SOL     OW86339  12.462   0.367  12.474  0.2653  0.4168 -0.2863
25854SOL    HW186340  12.551   0.333  12.476  0.3829  0.5400 -2.0895
25854SOL    HW286341  12.407   0.293  12.501  0.8662  0.2845  0.6322
25855SOL     OW86342   6.132   6.770   2.845 -0.4900 -0.7030  0.5140
25855SOL    HW186343   6.148   6.701   2.909  1.3724 -0.8209 -0.0143
25855SOL    HW286344   6.154   6.730   2.760  1.2107  0.6552  0.2602
25856SOL     OW86345   5.100   6.185   4.541 -0.1434 -0.5391  0.3331
25856SOL    HW186346   5.063   6.195   4.629 -1.3906  2.3518 -0.3953
25856SOL    HW286347   5.171   6.248   4.538  0.8499 -1.6582 -0.3157
25857SOL     OW86348   0.059  11.838   4.006  0.7220  0.0342 -0.3757
25857SOL    HW186349   0.096  11.878   4.085 -2.6589  0.8253  0.9863
25857SOL    HW286350  -0.006  11.902   3.976 -1.2941 -2.2182 -1.1081
25858SOL     OW86351   4.772  10.006   4.013  0.5641  0.6526  0.0436
25858SOL    HW186352   4.778  10.081   3.954 -0.5989  0.4716 -0.3281
25858SOL    HW286353   4.772   9.930   3.955  1.3646  0.3649  0.3984
25859SOL     OW86354   6.843   4.608   1.988 -0.2392 -0.0041 -0.2718
25859SOL    HW186355   6.925   4.643   2.023 -0.2932  0.2983 -0.4506
25859SOL    HW286356   6.822   4.534   2.046 -0.5203  0.7183  0.5779
25860SOL     OW86357  10.178  12.342   3.742 -0.1323  0.0766  0.0020
25860SOL    HW186358  10.088  12.372   3.726  0.4047  0.9716 -1.4831
25860SOL    HW286359  10.168  12.250   3.768 -1.4511  0.0344 -0.5861
25861SOL     OW86360   2.061  12.527   6.657  0.1022 -0.4100  0.0597
25861SOL    HW186361   2.029  12.515   6.567  1.8621  0.2683 -0.6995
25861SOL    HW286362   2.146  12.569   6.646  0.2671 -0.1611  2.0757
25862SOL     OW86363  12.322   7.761  11.704 -0.5081 -0.1666  0.1139
25862SOL    HW186364  12.358   7.817  11.636 -0.5972 -0.3987 -0.1264
25862SOL    HW286365  12.324   7.814  11.783 -0.2294  0.0408 -0.0314
25863SOL     OW86366   4.722   5.278   1.776 -0.4311  0.6617  0.0053
25863SOL    HW186367   4.639   5.325   1.782 -0.1500  1.1159  0.3865
25863SOL    HW286368   4.779   5.323   1.837  0.0231  0.1914 -0.0715
25864SOL     OW86369   3.104   8.409   6.447 -0.4970 -0.0811  0.0263
25864SOL    HW186370   3.028   8.383   6.498 -0.2487 -0.6297  0.1205
25864SOL    HW286371   3.142   8.327   6.416 -0.1690  0.2057 -0.3496
25865SOL     OW86372   0.591  11.946  11.849  0.1804 -0.1985  0.2467
25865SOL    HW186373   0.500  11.940  11.821  0.1223  1.1324  0.1029
25865SOL    HW286374   0.616  12.037  11.831  1.8376 -0.7939 -0.6577
25866SOL     OW86375   8.960   7.737  10.317  0.2089  0.1422 -0.5473
25866SOL    HW186376   8.898   7.809  10.331 -1.3949 -1.4714  1.1002
25866SOL    HW286377   8.914   7.678  10.257  1.1264  0.0095 -1.1330
25867SOL     OW86378   4.579   1.349  10.638  0.5069 -0.2048  0.1977
25867SOL    HW186379   4.569   1.440  10.608  0.1660 -0.2154  0.2745
25867SOL    HW286380   4.657   1.351  10.693  0.1649  0.1680  0.6769
25868SOL     OW86381   0.721  10.272  11.371  0.3693  0.0712  0.5085
25868SOL    HW186382   0.767  10.354  11.354  0.6632  0.2584  2.0802
25868SOL    HW286383   0.787  10.214  11.409  0.5374 -1.4337 -1.8493
25869SOL     OW86384   6.364   0.181   0.439  0.4578 -0.1283 -0.0164
25869SOL    HW186385   6.383   0.140   0.355  0.8008 -0.4754  0.2297
25869SOL    HW286386   6.414   0.131   0.502  0.5079  0.3745  0.3505
25870SOL     OW86387  12.581   9.898   3.038 -0.1836  0.5174 -0.0178
25870SOL    HW186388  12.517   9.837   3.000 -0.0815  1.4429 -1.8209
25870SOL    HW286389  12.532   9.980   3.046  0.8165  1.3490 -1.8065
25871SOL     OW86390  10.818   7.058   9.674  0.4910 -0.1141 -0.1123
25871SOL    HW186391  10.833   7.035   9.766  0.1011 -1.5300 -0.3834
25871SOL    HW286392  10.904   7.048   9.632  0.2330 -1.6877 -0.3296
25872SOL     OW86393  10.150   9.396  12.196 -0.3435  0.6137 -0.3946
25872SOL    HW186394  10.082   9.404  12.129 -0.5549 -0.1023 -0.2813
25872SOL    HW286395  10.206   9.325  12.165  0.4721  1.3324 -0.5825
25873SOL     OW86396   9.212   7.998   2.511  0.2515  0.2789  0.2506
25873SOL    HW186397   9.206   8.007   2.606  0.2324  0.2532  0.2517
25873SOL    HW286398   9.277   7.930   2.497 -0.2534 -0.2048  0.2570
25874SOL     OW86399   0.956  10.274   4.689 -0.5037 -0.7338 -0.6839
25874SOL    HW186400   0.982  10.352   4.640  0.6138  0.7315  2.0180
25874SOL    HW286401   1.025  10.211   4.672  2.0968  1.1264  1.8296
25875SOL     OW86402  12.143  11.054   6.171  0.1863  0.3388 -0.2862
25875SOL    HW186403  12.096  11.078   6.092  0.2223 -0.3984 -0.5324
25875SOL    HW286404  12.218  11.113   6.173  0.7966 -0.3721 -1.3967
25876SOL     OW86405  12.599   1.435   7.970 -0.2045  0.0822  0.4298
25876SOL    HW186406  12.624   1.489   8.045 -3.0019  1.4463  0.5186
25876SOL    HW286407  12.551   1.361   8.009  0.6001 -0.6453  0.0866
25877SOL     OW86408   5.887   8.979  10.492 -0.0345  0.1730  0.3094
25877SOL    HW186409   5.964   8.940  10.532  1.0814  0.4438 -1.4572
25877SOL    HW286410   5.907   9.072  10.486 -0.1383  0.1333 -0.8883
25878SOL     OW86411   0.261  11.193  10.766 -0.2298 -0.2682 -0.7455
25878SOL    HW186412   0.196  11.217  10.700 -0.9376  1.6275  0.5321
25878SOL    HW286413   0.330  11.259  10.757  0.3904 -0.8774 -0.5527
25879SOL     OW86414   0.516   7.253  12.057  0.3668 -0.1662  0.3833
25879SOL    HW186415   0.457   7.281  11.986  0.7164  0.2709  0.2604
25879SOL    HW286416   0.464   7.190  12.108 -0.0741 -0.0741  0.0542
25880SOL     OW86417   8.877   6.147   1.844 -0.1546  0.2531 -0.0595
25880SOL    HW186418   8.965   6.121   1.871  1.0957  3.0879 -0.9474
25880SOL    HW286419   8.819   6.109   1.910  1.4976 -3.0518 -0.3244
25881SOL     OW86420  11.488   3.813   9.565 -0.4707  0.6698 -0.3653
25881SOL    HW186421  11.453   3.725   9.577  1.0812  0.1175  0.3115
25881SOL    HW286422  11.473   3.832   9.472 -0.1283 -0.6212 -0.6973
25882SOL     OW86423   5.581   9.387   4.492  0.2717  0.4414 -0.1347
25882SOL    HW186424   5.568   9.428   4.578 -1.4396  0.9887 -0.5940
25882SOL    HW286425   5.636   9.449   4.444  1.2230  0.1404  0.5457
25883SOL     OW86426   3.974   9.117   9.176  0.0934 -0.3444  0.2032
25883SOL    HW186427   3.943   9.034   9.140  0.8648 -1.2270  1.4843
25883SOL    HW286428   4.021   9.158   9.104 -1.5521 -0.3005 -0.8989
25884SOL     OW86429  10.349  10.435  11.087 -0.6503 -0.6045 -0.0566
25884SOL    HW186430  10.319  10.441  11.178 -1.0315 -1.0471 -0.1482
25884SOL    HW286431  10.440  10.406  11.094 -0.8882 -1.3198  0.1699
25885SOL     OW86432   6.372   3.786   0.037 -0.3648 -0.2918 -0.1962
25885SOL    HW186433   6.395   3.851  -0.030 -0.9860 -0.7987 -0.9257
25885SOL    HW286434   6.450   3.778   0.091  0.9251 -1.3872 -2.1118
25886SOL     OW86435   7.021   8.766   7.080 -0.5460  0.2699  0.3324
25886SOL    HW186436   6.997   8.788   6.990 -1.1600 -0.0064  0.4268
25886SOL    HW286437   7.023   8.670   7.082  1.1143  0.2746  0.1897
25887SOL     OW86438   4.248   5.870  11.363 -0.7996 -0.7383 -0.1855
25887SOL    HW186439   4.333   5.828  11.350 -0.2524  0.2388  0.1039
25887SOL    HW286440   4.198   5.848  11.285  0.7041  0.9812 -1.7472
25888SOL     OW86441   4.785   5.214   6.672  0.8331 -0.3281 -0.6426
25888SOL    HW186442   4.790   5.214   6.576  0.0096 -1.3449 -0.7064
25888SOL    HW286443   4.859   5.160   6.699 -0.6427 -2.6568 -0.8920
25889SOL     OW86444   4.939  10.210   8.764 -0.5183  0.3829 -0.4269
25889SOL    HW186445   4.961  10.283   8.706 -1.0893 -0.4706 -1.7784
25889SOL    HW286446   4.858  10.237   8.808 -0.1509  0.9848 -0.1175
25890SOL     OW86447  10.258   3.237   2.327 -0.0097  0.2591 -0.1828
25890SOL    HW186448  10.323   3.248   2.258 -0.7171  0.5818 -0.8110
25890SOL    HW286449  10.308   3.206   2.403  0.9361  0.9628 -0.5077
25891SOL     OW86450   4.727  11.559   6.341  0.1065 -0.3745 -0.1339
25891SOL    HW186451   4.646  11.563   6.290  0.5859 -0.1774 -0.9078
25891SOL    HW286452   4.730  11.469   6.374 -1.5007  0.2099  1.7576
25892SOL     OW86453  10.074   9.830   4.075 -0.5221 -0.0533  0.6683
25892SOL    HW186454  10.054   9.769   4.004 -1.5540  1.8090 -0.7654
25892SOL    HW286455  10.157   9.871   4.049 -0.2905 -0.2021  1.1585
25893SOL     OW86456  10.611   2.456   1.787 -0.2332 -0.2703  0.0113
25893SOL    HW186457  10.539   2.393   1.783  0.8803 -2.1022  3.7638
25893SOL    HW286458  10.660   2.443   1.706 -2.2371 -1.3321 -1.0987
25894SOL     OW86459   4.068   2.510   4.270 -0.1263 -0.3067 -1.0626
25894SOL    HW186460   4.141   2.461   4.233 -0.1575  1.0925 -3.1388
25894SOL    HW286461   4.081   2.600   4.238 -0.0883  1.1357  2.5127
25895SOL     OW86462   1.680   4.502  10.750 -0.0915 -0.6903 -0.0954
25895SOL    HW186463   1.767   4.519  10.786  0.4188 -0.1606 -1.5099
25895SOL    HW286464   1.625   4.488  10.827  0.9088  0.5559  0.8928
25896SOL     OW86465   6.514   8.275   2.190 -0.7101  0.2211 -0.3209
25896SOL    HW186466   6.491   8.228   2.110 -0.7886 -0.8365  0.3025
25896SOL    HW286467   6.433   8.276   2.241 -0.6896  0.9901 -0.2950
25897SOL     OW86468   4.278   5.848   1.507  0.8731 -0.3825  0.2864
25897SOL    HW186469   4.194   5.819   1.471  1.4263 -0.7773 -0.7356
25897SOL    HW286470   4.327   5.879   1.431  1.9579 -0.9419  0.7360
25898SOL     OW86471   3.560  10.747   3.481  0.4473 -0.7659 -0.4303
25898SOL    HW186472   3.638  10.694   3.467  0.8148  0.1587 -2.1172
25898SOL    HW286473   3.504  10.729   3.405 -0.1662 -0.0107 -0.1736
25899SOL     OW86474   9.920  12.454   2.024 -0.7755  0.4329  0.0926
25899SOL    HW186475   9.932  12.393   2.097 -2.8696  1.1839  1.1673
25899SOL    HW286476   9.970  12.416   1.952 -2.0069 -2.6175  0.6804
25900SOL     OW86477   7.866   5.827   3.825 -0.4755 -0.0337 -0.3270
25900SOL    HW186478   7.899   5.900   3.876 -0.4209 -0.8893  0.9074
25900SOL    HW286479   7.944   5.779   3.798 -0.4831  0.6225 -1.5597
25901SOL     OW86480  11.494  12.151   9.511  0.3982 -0.1782 -0.1430
25901SOL    HW186481  11.560  12.221   9.512  2.6584 -2.0756  3.3167
25901SOL    HW286482  11.538  12.077   9.469 -0.2272 -0.9224  0.4903
25902SOL     OW86483   1.039   1.737   8.146 -0.4104 -0.0732 -0.3311
25902SOL    HW186484   1.059   1.749   8.053  0.2636 -1.6629 -0.4222
25902SOL    HW286485   1.030   1.642   8.156 -1.1996  0.1276  1.0926
25903SOL     OW86486   8.725   3.167   6.006 -0.3053 -0.1300  0.0291
25903SOL    HW186487   8.817   3.157   6.030 -0.8890  0.7185  2.9225
25903SOL    HW286488   8.694   3.077   5.992  0.9967 -0.4060 -1.4516
25904SOL     OW86489  12.055   1.885   3.685  0.0818 -0.0953 -0.5274
25904SOL    HW186490  11.997   1.875   3.609 -2.1540  0.9856  0.9638
25904SOL    HW286491  12.026   1.817   3.746  0.4372  0.4323  0.2320
25905SOL     OW86492   4.378   5.585   0.586 -0.2516  0.1195  0.4641
25905SOL    HW186493   4.388   5.635   0.504  1.2742 -0.3614  0.3198
25905SOL    HW286494   4.356   5.650   0.652  2.2194  1.1432  0.3860
25906SOL     OW86495  10.720   8.467   3.000  0.7139  0.1903 -0.4543
25906SOL    HW186496  10.783   8.402   3.033  1.5921  0.8847 -0.7372
25906SOL    HW286497  10.707   8.442   2.909 -0.1333 -0.4989 -0.1545
25907SOL     OW86498   1.831   1.209   3.848 -0.3516 -0.9056  0.1148
25907SOL    HW186499   1.755   1.247   3.803  0.3673  0.0571 -0.3238
25907SOL    HW286500   1.794   1.167   3.926 -1.4191 -1.1277 -0.4779
25908SOL     OW86501   8.862   4.699   0.331  0.1797 -0.3322 -0.0872
25908SOL    HW186502   8.845   4.617   0.285 -1.5015  0.4992 -1.0362
25908SOL    HW286503   8.810   4.764   0.284  0.9316  1.1546  1.0630
25909SOL     OW86504   6.329  11.134   8.180 -0.4898  0.3083  0.3723
25909SOL    HW186505   6.331  11.165   8.271 -2.7415  1.0811  0.2164
25909SOL    HW286506   6.290  11.046   8.186 -0.0472  0.1025  0.2169
25910SOL     OW86507   6.354   2.822  10.681  0.1173  0.2150 -0.2066
25910SOL    HW186508   6.353   2.916  10.663  0.8835  0.2032 -0.3534
25910SOL    HW286509   6.340   2.816  10.776 -1.4674  0.3934 -0.4066
25911SOL     OW86510   7.924  10.308   0.751 -0.3169 -0.3630  0.0167
25911SOL    HW186511   7.969  10.317   0.835  0.2416 -1.4150 -0.1552
25911SOL    HW286512   7.889  10.395   0.733  1.7856  0.5449  0.0852
25912SOL     OW86513   0.801   5.907  12.128  0.3045 -0.2167 -0.8540
25912SOL    HW186514   0.734   5.886  12.063 -0.7670 -0.9848  0.4441
25912SOL    HW286515   0.841   5.822  12.148  1.3460  0.1610 -1.2283
25913SOL     OW86516   2.145   6.827  10.823  0.1239 -0.2970  0.1809
25913SOL    HW186517   2.241   6.837  10.826  0.1378 -0.5127  0.3926
25913SOL    HW286518   2.128   6.744  10.866  0.0152 -1.3581 -1.7814
25914SOL     OW86519  12.488   8.865   3.462  0.2166 -0.1498 -0.2563
25914SOL    HW186520  12.400   8.837   3.434  0.8495 -2.3764 -0.2575
25914SOL    HW286521  12.477   8.890   3.554 -0.4311 -0.4132 -0.2525
25915SOL     OW86522   1.540   0.705   9.492  0.3257 -0.0497 -0.1489
25915SOL    HW186523   1.612   0.643   9.504  0.0014 -0.6426 -1.2032
25915SOL    HW286524   1.474   0.657   9.443 -0.6544  0.5997  0.4815
25916SOL     OW86525   4.752   2.092   7.456  0.1541 -0.1346  0.4016
25916SOL    HW186526   4.748   2.181   7.491 -0.4220 -0.4013  1.0307
25916SOL    HW286527   4.710   2.038   7.522 -1.8820 -0.5317 -1.1165
25917SOL     OW86528   9.889   2.492   0.649 -0.1443 -0.2021  0.5118
25917SOL    HW186529   9.824   2.472   0.581 -0.6724 -0.7560  1.1709
25917SOL    HW286530   9.974   2.476   0.606 -0.4980 -1.9153  0.3823
25918SOL     OW86531   4.831   2.345   1.809  0.1678  0.1783 -0.6350
25918SOL    HW186532   4.809   2.340   1.902 -1.8742  0.4018 -1.0624
25918SOL    HW286533   4.867   2.433   1.798 -0.2541  0.4138 -0.1815
25919SOL     OW86534   9.344   7.825  11.790 -0.2409 -0.0360  0.5242
25919SOL    HW186535   9.306   7.853  11.873 -1.3319  1.6896 -0.5089
25919SOL    HW286536   9.369   7.734  11.805  0.6191  0.5224  3.0786
25920SOL     OW86537   4.260   2.169   7.603  0.6219  0.2939  0.5327
25920SOL    HW186538   4.337   2.181   7.659 -0.4715  0.6965  2.0233
25920SOL    HW286539   4.209   2.249   7.616 -0.9239 -0.7272  1.0474
25921SOL     OW86540   2.799   6.361   6.862 -0.0809  0.0505  0.0119
25921SOL    HW186541   2.860   6.423   6.821  0.5145  0.0395  0.8661
25921SOL    HW286542   2.822   6.276   6.824  2.7263 -0.5670  2.6684
25922SOL     OW86543   9.964   5.905   6.833  0.2733  0.0866 -0.2943
25922SOL    HW186544   9.980   5.818   6.868 -2.4139  0.2401  1.6348
25922SOL    HW286545  10.051   5.944   6.824  1.7443 -3.2638 -2.8721
25923SOL     OW86546   3.512   6.922  12.435  0.2658  0.3269  0.0008
25923SOL    HW186547   3.424   6.945  12.464  0.2110 -1.2739  1.2553
25923SOL    HW286548   3.506   6.918  12.340 -1.0501  0.1348  0.0743
25924SOL     OW86549   8.534   5.973   5.642  0.1531 -0.5448  0.3259
25924SOL    HW186550   8.626   5.989   5.664 -0.7288  4.0611  1.6752
25924SOL    HW286551   8.526   6.000   5.551  0.3266 -2.4100 -0.2843
25925SOL     OW86552   0.814   0.743   3.860 -0.6059  0.1271  0.4430
25925SOL    HW186553   0.744   0.808   3.860 -1.7422 -1.0044 -0.9808
25925SOL    HW286554   0.825   0.720   3.768  1.3116 -0.1045  0.6961
25926SOL     OW86555   4.318   3.922   4.409  0.1925  0.3362 -0.2583
25926SOL    HW186556   4.406   3.938   4.375 -0.1591  0.8431 -0.9496
25926SOL    HW286557   4.267   3.897   4.332 -0.5069  1.0530 -0.0390
25927SOL     OW86558   6.750   3.180   0.940 -0.2265  0.7888 -0.1650
25927SOL    HW186559   6.721   3.117   1.006 -0.0576 -0.7554 -1.5047
25927SOL    HW286560   6.710   3.263   0.966  0.7602  0.5077  2.4971
25928SOL     OW86561   3.858   7.614   3.787  0.5112  0.3391  0.7928
25928SOL    HW186562   3.861   7.634   3.881 -2.3257 -1.6059  1.4248
25928SOL    HW286563   3.830   7.522   3.783  0.6316  0.3405 -1.9855
25929SOL     OW86564   5.693   5.295   2.743  0.3179 -0.4689 -0.0943
25929SOL    HW186565   5.774   5.290   2.794  1.0398  2.0940 -0.8338
25929SOL    HW286566   5.640   5.359   2.789 -0.3976 -0.5400 -0.7991
25930SOL     OW86567   4.686  11.462   3.910  0.1578 -0.5699  0.0660
25930SOL    HW186568   4.687  11.466   3.814  0.9471 -2.8805 -0.0746
25930SOL    HW286569   4.766  11.508   3.937 -1.4286  2.5597 -0.1546
25931SOL     OW86570   5.371   0.046   9.379 -0.1393 -0.0178  0.2571
25931SOL    HW186571   5.351   0.114   9.443  0.1992 -0.3438  0.7152
25931SOL    HW286572   5.466   0.055   9.364 -0.2328  0.1165 -0.2699
25932SOL     OW86573   8.527  12.283   9.880  0.7551  0.3114  0.0683
25932SOL    HW186574   8.590  12.233   9.931  0.7425  0.4194  0.1886
25932SOL    HW286575   8.496  12.351   9.940  1.1376  0.7715 -0.2502
25933SOL     OW86576   2.449  12.265   8.223 -0.0201 -0.6962 -0.0720
25933SOL    HW186577   2.384  12.335   8.213  0.2188 -0.4827 -0.1444
25933SOL    HW286578   2.499  12.291   8.301  0.1147 -0.7499 -0.1421
25934SOL     OW86579  11.214   8.301   0.347 -0.0339 -0.3667 -0.0745
25934SOL    HW186580  11.219   8.320   0.441  0.2445 -1.0013  0.0474
25934SOL    HW286581  11.121   8.301   0.328 -0.1700 -1.4504  0.4798
25935SOL     OW86582   0.191  10.287  12.452  0.1052  0.3817 -0.0202
25935SOL    HW186583   0.173  10.379  12.471  3.1425  1.5589 -1.9812
25935SOL    HW286584   0.251  10.260  12.522 -0.1050  0.1507  0.0727
25936SOL     OW86585   6.191  10.866   5.658  0.1759 -0.4911 -0.0750
25936SOL    HW186586   6.136  10.938   5.626 -1.1338 -1.9791 -1.3937
25936SOL    HW286587   6.256  10.908   5.713 -0.8546  1.6381 -0.3676
25937SOL     OW86588  10.218   6.503   5.436 -0.2099  0.4913 -0.0058
25937SOL    HW186589  10.142   6.521   5.381 -0.0450  1.1030 -0.0496
25937SOL    HW286590  10.247   6.416   5.410  0.3612  1.0894 -1.4969
25938SOL     OW86591   1.976  11.944   8.360  0.0051 -0.4433 -0.0637
25938SOL    HW186592   1.976  11.862   8.310 -1.7930 -0.7400  0.3658
25938SOL    HW286593   1.884  11.964   8.373  0.4297  1.0428  0.8706
25939SOL     OW86594   4.948   6.797   5.425 -0.5052  0.1998  0.4216
25939SOL    HW186595   4.897   6.730   5.380 -0.8102 -0.9470  2.3500
25939SOL    HW286596   4.912   6.880   5.394  0.4933 -0.3939 -2.7367
25940SOL     OW86597   3.667   6.603   3.994 -0.3636 -0.1482  0.0599
25940SOL    HW186598   3.702   6.524   3.954  1.0736 -0.1040  1.1135
25940SOL    HW286599   3.580   6.613   3.957  0.2149 -1.0602 -1.6698
25941SOL     OW86600  10.590  10.447   4.843 -0.2996  0.5165 -0.3480
25941SOL    HW186601  10.586  10.414   4.933  1.8948 -0.5338 -0.5778
25941SOL    HW286602  10.522  10.397   4.797 -0.2216 -0.2584  0.3405
25942SOL     OW86603   4.927   3.001   2.897  0.2762 -0.3841 -0.2124
25942SOL    HW186604   4.912   3.016   2.990  0.1806  0.8678 -0.4214
25942SOL    HW286605   5.019   2.975   2.891  0.4086 -0.0128  0.1822
25943SOL     OW86606  12.066   5.614  12.500 -0.2560  0.0716 -0.1242
25943SOL    HW186607  11.983   5.589  12.457  1.0072 -0.2377 -2.5712
25943SOL    HW286608  12.073   5.708  12.484 -0.6026  0.2988  0.9983
25944SOL     OW86609   5.642   2.019   1.979  0.4194 -0.1136 -0.0838
25944SOL    HW186610   5.671   2.101   1.938 -1.1521  0.8845  0.6988
25944SOL    HW286611   5.654   2.035   2.073  0.3016 -0.8688  0.0590
25945SOL     OW86612   8.513   6.540   4.440  0.1635 -0.8467  0.8055
25945SOL    HW186613   8.521   6.555   4.346  1.6043 -0.1603  1.0152
25945SOL    HW286614   8.603   6.529   4.471 -0.1191  0.7417  2.3700
25946SOL     OW86615  11.382   9.986   0.680 -0.0113 -0.4576 -0.0853
25946SOL    HW186616  11.334  10.009   0.759  2.7238  0.8212  1.3618
25946SOL    HW286617  11.316   9.984   0.611 -2.0343  1.7221  1.6326
25947SOL     OW86618   7.515   5.598   9.312  0.1137  0.4611 -0.2834
25947SOL    HW186619   7.549   5.604   9.223 -1.3453  0.8761 -0.8453
25947SOL    HW286620   7.513   5.504   9.331 -0.0099  0.3410 -0.8729
25948SOL     OW86621   7.498   6.765  11.476 -0.0326  0.2146 -0.4071
25948SOL    HW186622   7.545   6.824  11.416 -0.7385  1.7936  0.5371
25948SOL    HW286623   7.406   6.787  11.464 -0.2279  0.1304  0.8234
25949SOL     OW86624   9.085   9.131   0.969 -0.8614 -0.0378 -0.5126
25949SOL    HW186625   9.054   9.217   0.997  0.5488 -0.2054  1.8310
25949SOL    HW286626   9.180   9.140   0.963 -0.7310 -1.3305 -0.6703
25950SOL     OW86627   1.834  10.440   6.238 -0.4696 -0.0125  0.0919
25950SOL    HW186628   1.883  10.522   6.236 -0.2468 -0.1503 -0.2875
25950SOL    HW286629   1.748  10.464   6.273  0.0323  0.1425  1.2864
25951SOL     OW86630   0.379  12.411   1.451  0.4119 -0.1005 -0.3606
25951SOL    HW186631   0.377  12.431   1.545  0.1660  0.2008 -0.4282
25951SOL    HW286632   0.399  12.318   1.447  0.8191 -0.0340 -0.0177
25952SOL     OW86633   7.769   8.380  10.311 -0.0326  0.1934  0.4044
25952SOL    HW186634   7.804   8.413  10.228  1.4860  2.2310  1.7626
25952SOL    HW286635   7.810   8.294  10.321 -1.7681 -0.9939 -1.8145
25953SOL     OW86636   1.013   2.275  10.972 -0.3229 -0.1210  0.1748
25953SOL    HW186637   0.966   2.332  11.033  0.3733  0.4032  0.2315
25953SOL    HW286638   0.952   2.204  10.953 -0.1418 -0.9768  2.4362
25954SOL     OW86639   3.302  12.519   0.991 -0.1405  0.4250 -0.4330
25954SOL    HW186640   3.333  12.609   0.995 -0.0537  0.4208 -0.9473
25954SOL    HW286641   3.330  12.480   1.074  0.2330  0.7358 -0.4141
25955SOL     OW86642   1.396   8.805   4.102 -0.1545 -0.4799  0.4918
25955SOL    HW186643   1.429   8.831   4.188  1.2842 -1.1420  0.1665
25955SOL    HW286644   1.475   8.797   4.048 -1.1395  3.2540 -1.8741
25956SOL     OW86645   8.584  12.238  11.566  0.4973 -0.4905  0.0975
25956SOL    HW186646   8.653  12.223  11.502  0.5453  1.5460 -0.4078
25956SOL    HW286647   8.614  12.194  11.645  2.2569  0.1040 -0.1948
25957SOL     OW86648   6.989  11.508   3.954  0.0422 -0.0088 -0.3880
25957SOL    HW186649   6.964  11.496   3.862  1.6168 -1.7370 -0.6362
25957SOL    HW286650   7.045  11.586   3.953  4.2502 -2.6784 -1.9150
25958SOL     OW86651   1.291   6.156  10.127  0.3609 -0.3259  0.3286
25958SOL    HW186652   1.283   6.110  10.211 -1.5131 -2.2395 -0.7990
25958SOL    HW286653   1.360   6.107  10.081  1.7466  1.0319  0.8697
25959SOL     OW86654  12.170   1.831   5.461  0.5261  0.4301  0.1311
25959SOL    HW186655  12.099   1.894   5.470  0.8720  0.7835  0.4067
25959SOL    HW286656  12.162   1.774   5.538  0.1476  0.0671 -0.1743
25960SOL     OW86657   0.492   7.307   4.520  0.2349 -0.1301 -0.0796
25960SOL    HW186658   0.497   7.211   4.521 -0.1039 -0.1453  0.0163
25960SOL    HW286659   0.584   7.335   4.524  0.4509 -0.4561 -1.6895
25961SOL     OW86660   1.994   9.442   6.429  0.5294 -0.1221 -0.2228
25961SOL    HW186661   2.016   9.528   6.462 -1.6024  1.0007 -1.4699
25961SOL    HW286662   1.972   9.391   6.507  2.6803  0.1266  0.6062
25962SOL     OW86663  11.963   3.415   7.551 -0.8882  0.1764  0.3927
25962SOL    HW186664  12.022   3.478   7.591  0.1829  1.0068 -2.2834
25962SOL    HW286665  11.997   3.330   7.578  1.6370  0.6340 -1.0532
25963SOL     OW86666   0.725  11.367   0.302 -0.0174 -0.4053 -0.1979
25963SOL    HW186667   0.787  11.435   0.329 -0.9315 -0.3162  1.8709
25963SOL    HW286668   0.774  11.285   0.310  0.2130 -0.2331  0.1833
25964SOL     OW86669  11.460  10.892   3.438 -0.1437 -0.0838  0.7685
25964SOL    HW186670  11.373  10.923   3.413 -0.5655 -0.2079  2.0437
25964SOL    HW286671  11.446  10.802   3.469  0.6145 -0.5051 -0.0625
25965SOL     OW86672   7.454   3.480   9.456  0.0446  0.1352  0.2462
25965SOL    HW186673   7.435   3.494   9.549  0.8336  1.4681  0.2396
25965SOL    HW286674   7.390   3.533   9.410  0.7401  0.8649  0.0970
25966SOL     OW86675   3.184   2.104  10.515 -0.0185  0.7811 -0.5034
25966SOL    HW186676   3.208   2.148  10.433  0.2444  0.6482 -0.4999
25966SOL    HW286677   3.094   2.074  10.501  0.7041 -1.0677 -1.5361
25967SOL     OW86678  10.236   2.448   4.501  0.6213  0.1861 -0.3201
25967SOL    HW186679  10.295   2.481   4.569 -1.0309  0.6408  0.9366
25967SOL    HW286680  10.249   2.508   4.427  1.5361  0.4275  0.0255
25968SOL     OW86681   9.723   6.360   1.836 -0.0479 -0.5362 -0.6187
25968SOL    HW186682   9.696   6.360   1.928 -0.3655 -4.3212 -0.5439
25968SOL    HW286683   9.720   6.452   1.810 -3.6757  0.3560  2.0935
25969SOL     OW86684   5.798   4.336  10.428  0.4537  0.2788 -0.1323
25969SOL    HW186685   5.810   4.431  10.438  0.6004  0.2333  0.1110
25969SOL    HW286686   5.781   4.304  10.516 -2.9710  0.5282 -0.5577
25970SOL     OW86687   8.469   0.994   8.301  0.3603 -0.0408 -0.7562
25970SOL    HW186688   8.449   0.964   8.213  1.3729  0.4377 -1.1587
25970SOL    HW286689   8.534   0.932   8.334 -0.5711 -0.6637 -0.0524
25971SOL     OW86690   2.878  10.525  10.301  0.1795 -0.2725  0.2755
25971SOL    HW186691   2.897  10.467  10.227  0.5395 -0.5709  0.5947
25971SOL    HW286692   2.794  10.565  10.279  0.3349 -0.2721 -0.3467
25972SOL     OW86693   1.918   7.554   7.414  0.0521 -0.6833 -0.0833
25972SOL    HW186694   1.996   7.505   7.440  0.4158 -0.3070 -0.4508
25972SOL    HW286695   1.944   7.601   7.334 -1.3551 -2.6876 -1.8285
25973SOL     OW86696   2.465   9.985   8.849 -0.2613  0.3532 -0.0925
25973SOL    HW186697   2.434  10.033   8.772  1.0491 -0.0229 -0.8685
25973SOL    HW286698   2.400   9.916   8.862 -0.6887  0.6460 -0.6237
25974SOL     OW86699   5.893   5.581   9.887  0.2325  0.4947  0.3092
25974SOL    HW186700   5.906   5.676   9.891  1.1218  0.3729  0.4788
25974SOL    HW286701   5.902   5.552   9.978 -1.6469  0.4262  0.5128
25975SOL     OW86702  11.534   1.299   9.402 -0.3670 -0.2318 -0.4984
25975SOL    HW186703  11.557   1.213   9.367  0.9794 -0.0727 -0.0639
25975SOL    HW286704  11.484   1.281   9.481  0.0619 -0.6315 -0.3125
25976SOL     OW86705  11.665   6.442  11.106  0.4321 -0.0683  0.2129
25976SOL    HW186706  11.599   6.486  11.053 -0.0972 -2.1481 -0.9954
25976SOL    HW286707  11.718   6.393  11.043  0.8495 -1.2887  1.4435
25977SOL     OW86708  11.661   4.380   6.553  0.0225  0.0774 -0.4470
25977SOL    HW186709  11.634   4.377   6.461  0.9229  0.1783 -0.7228
25977SOL    HW286710  11.725   4.451   6.557  0.0770 -0.0027  0.2388
25978SOL     OW86711   7.611   0.565  11.426  0.2940  0.1905  0.6437
25978SOL    HW186712   7.574   0.613  11.352 -1.7766 -0.6716  1.0531
25978SOL    HW286713   7.693   0.529  11.392  0.2528  1.2433 -0.6744
25979SOL     OW86714   1.510  10.770   4.777  0.3330 -0.0585  0.2917
25979SOL    HW186715   1.441  10.712   4.745  0.1716  0.6940 -0.8029
25979SOL    HW286716   1.588  10.743   4.727  0.7191 -0.5539  1.1371
25980SOL     OW86717  12.206   1.256  10.561  0.1780 -0.1256  0.1566
25980SOL    HW186718  12.301   1.260  10.551  0.1994 -0.5638  0.1631
25980SOL    HW286719  12.180   1.179  10.510 -0.3588  0.9004 -1.1710
25981SOL     OW86720  11.855   4.454   2.486  0.0381 -0.4273  0.7330
25981SOL    HW186721  11.801   4.482   2.412  1.0831  0.4957  0.2800
25981SOL    HW286722  11.802   4.474   2.563  0.0863  1.3639  0.3423
25982SOL     OW86723   5.120   0.929   2.748  0.1081  0.5236  0.3509
25982SOL    HW186724   5.215   0.935   2.732  0.1179  0.2461  0.2979
25982SOL    HW286725   5.104   0.992   2.819  0.4167  0.1998  0.7141
25983SOL     OW86726   2.028   4.809   2.275  0.3509  0.0538  0.0239
25983SOL    HW186727   2.007   4.861   2.352  1.2413  0.2084  0.1756
25983SOL    HW286728   2.124   4.812   2.270  0.3069 -0.0131 -1.0457
25984SOL     OW86729   0.978   2.348   3.050 -0.4578  0.2854  0.2165
25984SOL    HW186730   0.889   2.314   3.056 -0.0635 -0.7478  0.4274
25984SOL    HW286731   0.988   2.374   2.959 -0.9315  0.2926  0.1644
25985SOL     OW86732  12.545   4.718   1.598 -0.0626 -0.3194  0.4947
25985SOL    HW186733  12.591   4.634   1.588  1.5905  0.6330 -0.2498
25985SOL    HW286734  12.496   4.728   1.516 -0.6935 -0.7777  0.8023
25986SOL     OW86735   3.132   1.964  12.263 -0.5064  0.0942 -0.3187
25986SOL    HW186736   3.054   2.016  12.247  0.5646  1.2356 -2.1461
25986SOL    HW286737   3.112   1.914  12.343 -3.3767 -0.2524 -1.1523
25987SOL     OW86738   2.396  12.532   8.554 -0.1542 -0.0591 -0.2410
25987SOL    HW186739   2.387  12.569   8.641  0.9106 -0.2178 -0.0475
25987SOL    HW286740   2.441  12.600   8.503  0.1303 -0.3555 -0.3903
25988SOL     OW86741  11.438   4.162   8.036  0.6329 -0.1264 -0.0175
25988SOL    HW186742  11.363   4.184   7.981  1.0585  0.8780 -0.2221
25988SOL    HW286743  11.490   4.100   7.983 -0.5163 -1.6023  0.5118
25989SOL     OW86744   9.147   7.181  12.437 -0.0763  0.5579 -0.2853
25989SOL    HW186745   9.204   7.191  12.361  0.4046 -0.4160 -0.0632
25989SOL    HW286746   9.109   7.094  12.428 -0.9258  0.8854 -0.0118
25990SOL     OW86747   3.156   2.557  11.279 -0.5814  0.6487 -0.0867
25990SOL    HW186748   3.130   2.465  11.284 -1.7382  1.0325  1.3356
25990SOL    HW286749   3.118   2.598  11.356 -0.0094  2.3234 -0.6423
25991SOL     OW86750   1.499   4.995   3.907 -0.0962 -0.1920  0.8456
25991SOL    HW186751   1.539   5.066   3.858 -1.1786 -0.8428 -1.1053
25991SOL    HW286752   1.452   5.037   3.979  2.3604  0.7169  2.0037
25992SOL     OW86753   6.262  10.563   8.555  0.2017  0.2418 -0.9197
25992SOL    HW186754   6.264  10.621   8.480  1.6047  0.1605 -0.9695
25992SOL    HW286755   6.300  10.615   8.627  1.0268 -0.4222 -0.8520
25993SOL     OW86756   5.003   8.072   3.963 -0.4457 -0.3721  0.4267
25993SOL    HW186757   5.046   8.132   4.023 -2.4547  0.9044  0.7094
25993SOL    HW286758   5.048   8.085   3.879 -1.4655  2.4187  0.2020
25994SOL     OW86759  12.445  12.453  11.613  0.3330 -0.0122 -0.0283
25994SOL    HW186760  12.534  12.480  11.638 -0.2959  1.8554  0.3449
25994SOL    HW286761  12.440  12.471  11.519  0.2396  0.2446  0.0243
25995SOL     OW86762  11.881   2.380   1.948  0.2682 -0.3202 -0.1973
25995SOL    HW186763  11.801   2.401   1.997  0.1580 -1.3505  0.0832
25995SOL    HW286764  11.850   2.342   1.866  0.4559  1.1598 -1.0072
25996SOL     OW86765   3.002   6.351  11.718 -0.0253 -0.0970  0.9247
25996SOL    HW186766   2.927   6.365  11.776 -0.0695 -0.8014  1.0416
25996SOL    HW286767   3.004   6.257  11.703 -0.4492  0.1335 -0.7857
25997SOL     OW86768   5.855   6.683   3.839  0.4935  0.3089  0.0993
25997SOL    HW186769   5.927   6.744   3.851  0.4929  0.0528  1.5129
25997SOL    HW286770   5.781   6.738   3.813  0.7536  0.7701  0.3289
25998SOL     OW86771   8.547  11.258  10.849 -0.1438 -0.2610 -0.0483
25998SOL    HW186772   8.534  11.346  10.884 -1.4936  0.4937 -2.2442
25998SOL    HW286773   8.551  11.202  10.927 -1.5244  1.4431  1.3463
25999SOL     OW86774   1.771   8.928  10.006 -0.2323  0.4600 -0.3839
25999SOL    HW186775   1.864   8.941   9.987 -0.2115 -0.6026 -1.0824
25999SOL    HW286776   1.729   9.009   9.977  0.2467  0.2088 -1.8222
26000SOL     OW86777   9.834  12.261   0.333 -0.2055 -0.5950  0.0195
26000SOL    HW186778   9.850  12.167   0.344  1.3912 -0.5579 -1.5937
26000SOL    HW286779   9.900  12.289   0.270 -0.6406  1.6314  0.4873
26001SOL     OW86780   5.974   5.760   6.992  0.1460  0.0869 -0.1674
26001SOL    HW186781   6.021   5.765   7.076 -1.6755  0.7997  0.8765
26001SOL    HW286782   5.967   5.667   6.974  1.0909 -0.0567  0.1596
26002SOL     OW86783  11.577  12.448  11.091 -0.0615  0.0471  0.0033
26002SOL    HW186784  11.573  12.365  11.138 -0.7898  0.1398  0.1087
26002SOL    HW286785  11.486  12.477  11.084  0.2280  1.0890  0.4162
26003SOL     OW86786   5.026   9.710   8.375  0.1217  0.2854 -0.0957
26003SOL    HW186787   4.972   9.763   8.316 -0.4185 -0.1626 -0.0110
26003SOL    HW286788   4.985   9.624   8.375  1.4346 -0.3859 -0.8515
26004SOL     OW86789   8.896   0.877   3.532 -0.3987  0.1313  0.2296
26004SOL    HW186790   8.853   0.792   3.523  2.2443 -1.1935 -1.2183
26004SOL    HW286791   8.976   0.868   3.480 -0.5261  3.8983 -0.8357
26005SOL     OW86792   3.301   5.924  10.964 -0.4235 -0.5301  0.3261
26005SOL    HW186793   3.248   5.938  11.042  0.1069 -0.9834  0.7775
26005SOL    HW286794   3.372   5.988  10.971 -0.4585 -0.4697  0.1363
26006SOL     OW86795  11.540   1.620   8.336 -0.0223  0.1257 -0.0466
26006SOL    HW186796  11.544   1.694   8.276 -0.4706  0.5071  0.3787
26006SOL    HW286797  11.446   1.597   8.340 -0.2853  1.2850  1.8886
26007SOL     OW86798   4.035  12.565   2.513 -0.0203  0.4854  0.1816
26007SOL    HW186799   4.066  12.656   2.513 -0.0119  0.4931  0.9614
26007SOL    HW286800   4.078  12.525   2.588 -0.0277 -0.1705 -0.1566
26008SOL     OW86801   8.872   3.277   0.354 -0.2901 -0.0873  0.3463
26008SOL    HW186802   8.950   3.314   0.396 -0.1003  0.2030 -0.2429
26008SOL    HW286803   8.827   3.353   0.318  1.6472 -0.5113 -3.5339
26009SOL     OW86804   6.845   7.209   7.836  0.4462  0.1276 -0.1645
26009SOL    HW186805   6.855   7.303   7.849 -0.1191  0.1539  0.1376
26009SOL    HW286806   6.775   7.201   7.771  0.6462 -0.0833 -0.3583
26010SOL     OW86807  12.334   2.748   7.776  0.3631  0.5064 -0.3394
26010SOL    HW186808  12.335   2.718   7.685 -0.9349 -2.1515  0.4272
26010SOL    HW286809  12.418   2.720   7.812  0.5284  0.8114 -0.4795
26011SOL     OW86810  10.570   1.852   6.094 -0.1127  0.7938 -0.6128
26011SOL    HW186811  10.485   1.888   6.120  0.9043  2.7754  0.1351
26011SOL    HW286812  10.571   1.764   6.133 -1.8493  0.6577 -0.7675
26012SOL     OW86813   4.016   5.170   2.589  0.5267  0.2019 -0.4317
26012SOL    HW186814   4.105   5.147   2.561  0.2967 -0.7720 -0.3856
26012SOL    HW286815   3.987   5.234   2.524  1.2952  0.6012 -0.3911
26013SOL     OW86816   1.547   6.186  11.224 -1.3506  0.4304 -0.0637
26013SOL    HW186817   1.512   6.133  11.296 -1.7354  0.1695 -0.4347
26013SOL    HW286818   1.585   6.262  11.266  0.6318 -0.8653  0.6316
26014SOL     OW86819   3.833   3.238   5.741 -0.0819 -0.0992 -0.8822
26014SOL    HW186820   3.754   3.220   5.792 -0.2806 -0.4459 -1.3028
26014SOL    HW286821   3.801   3.278   5.661  0.1742 -0.2122 -1.0412
26015SOL     OW86822   9.701   7.493   9.918 -0.3486  0.8335 -0.1539
26015SOL    HW186823   9.608   7.491   9.939 -0.4580 -0.2288 -0.6802
26015SOL    HW286824   9.707   7.453   9.832  0.4885  1.8701 -0.6060
26016SOL     OW86825   7.448   4.844   0.285  0.5450  0.1130 -0.1543
26016SOL    HW186826   7.360   4.864   0.253  0.3946  0.9952  0.7432
26016SOL    HW286827   7.442   4.754   0.316  0.0496  0.0461 -0.4335
26017SOL     OW86828  11.541   0.849   2.564  0.0674  0.2522  0.6382
26017SOL    HW186829  11.533   0.861   2.659 -1.6176  1.0369  0.4428
26017SOL    HW286830  11.458   0.810   2.538  0.0116  1.1593 -0.6572
26018SOL     OW86831   0.169  12.397   1.292  0.0700 -0.2304 -0.3908
26018SOL    HW186832   0.165  12.303   1.276 -0.9365 -0.0246 -1.5332
26018SOL    HW286833   0.233  12.407   1.362 -0.7282 -1.8620  0.6223
26019SOL     OW86834  10.213   6.146   4.883 -0.1135  0.3624 -0.1602
26019SOL    HW186835  10.126   6.106   4.878 -0.4624  1.0989 -0.0550
26019SOL    HW286836  10.265   6.099   4.818 -0.1260 -1.2133  0.9050
26020SOL     OW86837  11.442  11.830  11.302 -0.3431 -0.8478 -0.1827
26020SOL    HW186838  11.346  11.834  11.299 -0.3737 -1.8320 -1.1303
26020SOL    HW286839  11.467  11.794  11.217  0.9010 -0.1966 -0.1097
26021SOL     OW86840   4.027   2.799   2.049 -0.4951 -0.3345 -0.0476
26021SOL    HW186841   4.089   2.838   2.110  0.2064  0.5356 -1.2742
26021SOL    HW286842   3.943   2.802   2.094 -0.1615  1.1387  0.5062
26022SOL     OW86843   0.137  11.918   7.607  0.1662 -0.2489  0.4136
26022SOL    HW186844   0.102  11.918   7.518 -1.0781  2.8597  0.7643
26022SOL    HW286845   0.073  11.870   7.659 -0.1933 -0.2588 -0.0396
26023SOL     OW86846  10.524   1.327   8.978 -0.4096 -0.4313 -0.1124
26023SOL    HW186847  10.514   1.412   9.020  1.4300  0.3722 -1.1603
26023SOL    HW286848  10.552   1.348   8.889  1.2215 -2.1318 -0.0562
26024SOL     OW86849   8.168   4.356  10.644  0.0808  0.1238 -0.1854
26024SOL    HW186850   8.248   4.327  10.689  1.1639  1.7627 -0.9593
26024SOL    HW286851   8.147   4.284  10.585  1.7759  0.1983 -0.9358
26025SOL     OW86852   2.733   9.566   9.294 -0.3972  0.2150 -0.0358
26025SOL    HW186853   2.666   9.502   9.318  1.4187 -0.9085  2.4040
26025SOL    HW286854   2.773   9.530   9.215 -0.0607 -1.2057  0.7553
26026SOL     OW86855   2.395  10.657   0.819 -0.5548 -0.1440 -0.2287
26026SOL    HW186856   2.315  10.604   0.827 -0.2180 -0.8350 -1.1927
26026SOL    HW286857   2.397  10.683   0.727  0.1060  0.2392 -0.1100
26027SOL     OW86858   7.937   7.588   4.491 -0.0000  0.1310 -0.4469
26027SOL    HW186859   7.904   7.537   4.564 -0.7534  0.8714 -0.2595
26027SOL    HW286860   7.880   7.665   4.487 -0.0257  0.0643 -1.8553
26028SOL     OW86861   8.071  11.764   2.551 -0.0716 -0.1540 -0.9367
26028SOL    HW186862   8.086  11.848   2.509 -0.9182  0.6653  0.3170
26028SOL    HW286863   7.983  11.738   2.523 -0.2192 -0.1171 -0.5174
26029SOL     OW86864  12.144  11.996  11.637 -0.1555 -0.1227 -0.2838
26029SOL    HW186865  12.184  11.917  11.602 -1.3681 -0.0548 -1.9342
26029SOL    HW286866  12.104  12.039  11.561  1.5559  2.7850  0.2822
26030SOL     OW86867   7.963   8.340   0.432  0.4902  0.0869  0.3560
26030SOL    HW186868   7.968   8.421   0.483 -0.3293  1.0034 -0.9652
26030SOL    HW286869   7.989   8.366   0.343 -1.6047 -0.6656 -0.5227
26031SOL     OW86870   1.679  10.379   1.774  0.3130  0.0247  0.1734
26031SOL    HW186871   1.603  10.335   1.814  0.0457 -0.2012 -0.5619
26031SOL    HW286872   1.694  10.455   1.829  1.8488 -1.8294  2.5210
26032SOL     OW86873   0.029   5.870   8.097 -0.3539  0.3589 -0.5437
26032SOL    HW186874   0.090   5.806   8.061  1.6149  1.5472  0.4610
26032SOL    HW286875   0.063   5.889   8.184 -2.0377  1.2918 -0.0406
26033SOL     OW86876   1.412   4.460   1.350 -0.3627 -0.1326 -0.7449
26033SOL    HW186877   1.472   4.478   1.277 -1.5446  0.4461 -1.6024
26033SOL    HW286878   1.426   4.533   1.410  0.9310 -0.8342 -0.1353
26034SOL     OW86879   1.342   5.801   4.803  0.5294  0.0708 -0.0226
26034SOL    HW186880   1.396   5.878   4.784  0.5295 -0.0789 -0.6282
26034SOL    HW286881   1.376   5.769   4.887 -1.7415  2.7614  2.1124
26035SOL     OW86882   0.099   2.992   4.364  0.1856  0.0660  0.9864
26035SOL    HW186883   0.017   3.016   4.407  0.3760 -1.4311  2.3084
26035SOL    HW286884   0.101   3.043   4.284 -2.6703 -0.8061  0.2630
26036SOL     OW86885   2.416   4.627  11.658  0.3014  0.4966  0.0146
26036SOL    HW186886   2.420   4.627  11.562 -0.9174 -1.7232 -0.0869
26036SOL    HW286887   2.505   4.652  11.686  1.6081 -1.8050 -1.7199
26037SOL     OW86888   7.974  11.714  12.559  0.0940 -0.2483  0.0653
26037SOL    HW186889   7.953  11.755  12.475  2.0406 -1.6534 -1.1867
26037SOL    HW286890   8.067  11.733  12.572  0.3484 -1.8509  0.8088
26038SOL     OW86891   3.748   2.625   6.205 -0.8120  0.1405  0.7396
26038SOL    HW186892   3.713   2.543   6.239  0.6004 -0.5117  0.7114
26038SOL    HW286893   3.817   2.650   6.267 -1.2927  1.3772  0.8130
26039SOL     OW86894   5.816   4.819   7.022 -0.3062  0.5428 -0.1512
26039SOL    HW186895   5.739   4.844   6.970 -0.6614  0.0554  0.1293
26039SOL    HW286896   5.880   4.789   6.958 -0.2891  1.0978 -0.4000
26040SOL     OW86897   1.048   9.744   0.259  0.2812  0.4304  0.0209
26040SOL    HW186898   1.020   9.822   0.211  2.8766  1.8387  0.6276
26040SOL    HW286899   1.001   9.672   0.216 -0.7260  2.0771 -1.8376
26041SOL     OW86900   7.180  11.697  11.466 -0.1517  0.2305  0.3843
26041SOL    HW186901   7.086  11.712  11.472 -0.5433 -1.7082 -0.1675
26041SOL    HW286902   7.217  11.751  11.536 -1.5363  1.8218 -0.0411
26042SOL     OW86903   7.066   5.947   7.448 -0.2288  0.0941 -0.2589
26042SOL    HW186904   7.078   6.019   7.386 -1.4225  0.2021 -0.3926
26042SOL    HW286905   7.076   5.987   7.534 -1.3050  0.5283 -0.3211
26043SOL     OW86906   9.012   7.149  11.590  0.1849 -0.0062  0.0166
26043SOL    HW186907   8.975   7.209  11.655 -2.1837 -0.0513 -1.1872
26043SOL    HW286908   9.086   7.197  11.552 -2.6125  3.0380 -2.1233
26044SOL     OW86909  10.977   1.585  10.015 -0.0506 -0.0461  0.5414
26044SOL    HW186910  10.902   1.635  10.047  0.4051  0.7776  0.3470
26044SOL    HW286911  10.957   1.495  10.039 -1.4331  0.0507 -0.1195
26045SOL     OW86912  10.763   3.910   3.094  0.1303  0.4476  0.2666
26045SOL    HW186913  10.790   3.819   3.080 -0.6707  0.4996 -2.2492
26045SOL    HW286914  10.709   3.908   3.173  1.7524 -0.8707  1.3889
26046SOL     OW86915   4.979   0.023  10.382 -0.1147 -0.0527  0.0156
26046SOL    HW186916   5.013   0.030  10.292 -1.2322 -0.6628 -0.4775
26046SOL    HW286917   4.966   0.114  10.410 -0.7416  0.1365 -0.8434
26047SOL     OW86918  11.562   3.679  11.584 -0.3326  0.3020 -0.6742
26047SOL    HW186919  11.514   3.753  11.620  0.6265  0.8032 -0.4065
26047SOL    HW286920  11.652   3.710  11.576 -0.4094  0.0716 -3.1344
26048SOL     OW86921   8.616   2.790   0.715 -0.3849 -0.0809  0.0192
26048SOL    HW186922   8.602   2.742   0.634 -4.1755  1.1415 -0.2619
26048SOL    HW286923   8.569   2.739   0.782 -0.6005  0.8527  0.6125
26049SOL     OW86924   9.917   6.084   0.582  0.1419 -0.0236  0.1400
26049SOL    HW186925   9.932   6.115   0.493  0.5052  0.4732  0.3646
26049SOL    HW286926   9.869   6.155   0.624  2.1001  0.8536  1.0311
26050SOL     OW86927   4.099   6.451   9.075  0.5270 -0.2834 -0.0540
26050SOL    HW186928   4.007   6.454   9.050  0.9436  0.9137 -1.6054
26050SOL    HW286929   4.142   6.403   9.004  1.2217 -0.1089  0.2371
26051SOL     OW86930   5.101  12.447   7.806 -0.0211 -0.2886  0.5170
26051SOL    HW186931   5.079  12.497   7.885  0.3970  2.2409 -0.8555
26051SOL    HW286932   5.017  12.414   7.774 -0.8954  2.4306 -0.2961
26052SOL     OW86933  10.619   4.413   9.585 -0.4305  0.4463 -0.3402
26052SOL    HW186934  10.556   4.360   9.537  0.5204  0.0769 -1.2123
26052SOL    HW286935  10.574   4.497   9.598 -1.6296 -0.2640  0.3212
26053SOL     OW86936   8.921   3.452   2.692  0.1287  0.4199 -0.5392
26053SOL    HW186937   8.829   3.452   2.667 -0.1285 -1.4379  0.2356
26053SOL    HW286938   8.926   3.391   2.766  2.1264 -0.2664 -1.1670
26054SOL     OW86939   2.312   7.479   6.918 -0.1642  0.1893 -0.3605
26054SOL    HW186940   2.392   7.509   6.963 -0.0119  0.9050 -1.0868
26054SOL    HW286941   2.244   7.486   6.984  0.5304 -1.3658  0.5762
26055SOL     OW86942   5.179   7.440  11.318  0.0214  0.2561 -0.0490
26055SOL    HW186943   5.232   7.406  11.245 -0.9484  2.7824 -2.0982
26055SOL    HW286944   5.104   7.380  11.322 -0.0654  0.2418 -1.3725
26056SOL     OW86945   1.830   4.550   3.234  0.0084 -0.3689 -0.3965
26056SOL    HW186946   1.898   4.574   3.298 -0.6377 -0.2184  0.2518
26056SOL    HW286947   1.831   4.454   3.233  1.4964 -0.3783 -1.7948
26057SOL     OW86948   1.292  11.175  11.426 -0.3358  0.2284  0.1156
26057SOL    HW186949   1.375  11.204  11.389 -1.4506  0.4875 -2.3394
26057SOL    HW286950   1.264  11.247  11.481  0.4446  0.6749 -0.0497
26058SOL     OW86951   5.713   1.761   0.656 -0.2896  0.3706 -1.0237
26058SOL    HW186952   5.719   1.818   0.734  2.9300 -0.1497 -0.7427
26058SOL    HW286953   5.719   1.672   0.691  0.6771  0.1153 -1.7757
26059SOL     OW86954   0.847  10.813   8.164  0.0404 -0.4426  0.1054
26059SOL    HW186955   0.812  10.828   8.252  0.1884  1.6233 -0.1583
26059SOL    HW286956   0.770  10.794   8.110 -0.0236 -2.0182  0.6962
26060SOL     OW86957   7.425   5.080   3.936  0.0433 -0.3556 -0.3679
26060SOL    HW186958   7.392   5.002   3.982 -0.3488 -0.3812 -0.6838
26060SOL    HW286959   7.373   5.084   3.855 -0.1856  0.4390 -0.1891
26061SOL     OW86960   5.478  11.090   8.334  0.0560  0.4675 -0.5039
26061SOL    HW186961   5.448  11.053   8.251  0.2462 -1.2534  0.1505
26061SOL    HW286962   5.529  11.019   8.375  0.6285  1.5446  0.7319
26062SOL     OW86963   1.521   9.062  11.527 -0.1442  0.3701  0.0958
26062SOL    HW186964   1.457   9.131  11.543  0.3586  0.7891  0.3827
26062SOL    HW286965   1.586   9.074  11.598 -0.3251 -0.7272  0.4599
26063SOL     OW86966   7.784   5.783   6.490 -0.0939 -0.0070 -0.2383
26063SOL    HW186967   7.778   5.845   6.417 -1.1940  0.8220  0.5457
26063SOL    HW286968   7.697   5.783   6.530 -0.1623 -2.1378 -0.2664
26064SOL     OW86969  11.246  12.301   1.136  0.0976  0.7976 -0.7708
26064SOL    HW186970  11.313  12.315   1.203 -1.1680 -1.0778  1.0130
26064SOL    HW286971  11.275  12.223   1.089 -1.0640 -0.4309  0.4500
26065SOL     OW86972  12.363   2.691   7.062 -0.3865  0.6429 -0.0712
26065SOL    HW186973  12.429   2.756   7.038 -0.4455  1.3583  1.5686
26065SOL    HW286974  12.280   2.740   7.064 -0.3321  0.7708  1.8688
26066SOL     OW86975   1.415   9.231  11.931 -0.0099 -0.1698 -0.1318
26066SOL    HW186976   1.481   9.214  11.998 -0.7023  1.6505  1.0811
26066SOL    HW286977   1.423   9.324  11.912 -2.2315  0.1341  0.0877
26067SOL     OW86978   0.778   1.769  10.714 -0.5785  0.0002 -0.0080
26067SOL    HW186979   0.691   1.767  10.675 -0.5223 -0.8396 -0.1048
26067SOL    HW286980   0.818   1.686  10.689  0.6131  0.7685 -0.8106
26068SOL     OW86981   4.815   6.192  10.148  1.1515  0.4458 -0.2623
26068SOL    HW186982   4.902   6.158  10.128  1.6748  1.2645  0.5885
26068SOL    HW286983   4.830   6.278  10.187 -0.0135  0.4356  0.2683
26069SOL     OW86984   4.353   9.754  12.464  0.3865 -0.6259  0.2084
26069SOL    HW186985   4.380   9.777  12.553  0.7504  1.7609 -0.4389
26069SOL    HW286986   4.259   9.737  12.471  0.4664 -0.7414  1.0916
26070SOL     OW86987   6.026   0.917  12.153 -0.0716  0.2777 -0.9924
26070SOL    HW186988   5.985   0.996  12.118  1.7529  1.3924 -0.8019
26070SOL    HW286989   5.965   0.884  12.219  1.0183  4.3906  2.5847
26071SOL     OW86990   6.461   8.690   0.691 -0.7666 -0.3508  0.2227
26071SOL    HW186991   6.443   8.770   0.740 -0.2251  0.5056 -0.9442
26071SOL    HW286992   6.376   8.663   0.656 -0.5468  1.3143 -1.7345
26072SOL     OW86993   9.562   2.461   8.653 -0.3119 -0.2318  0.2581
26072SOL    HW186994   9.471   2.431   8.659 -0.0467 -1.0680  0.1850
26072SOL    HW286995   9.583   2.454   8.560 -0.1670 -0.0488  0.2773
26073SOL     OW86996   5.709   2.504   2.977  0.1699 -0.5745  0.1571
26073SOL    HW186997   5.798   2.508   3.012 -0.7710 -0.4654  2.8101
26073SOL    HW286998   5.672   2.425   3.018 -0.8477 -0.8456 -1.2290
26074SOL     OW86999   3.464   6.959  12.194  0.6130 -0.3441 -0.2223
26074SOL    HW187000   3.497   6.910  12.119  1.0964  2.2881 -1.8516
26074SOL    HW287001   3.369   6.958  12.182  0.4625 -2.2701  0.7533
26075SOL     OW87002   6.997   0.242  11.068  0.2246  0.2431  0.8115
26075SOL    HW187003   7.083   0.260  11.030 -0.6725 -0.0338 -1.5035
26075SOL    HW287004   6.991   0.301  11.142  1.9711  1.0400  0.3827
26076SOL     OW87005   4.934   1.761   5.497 -0.4234 -0.2757  0.1457
26076SOL    HW187006   4.859   1.701   5.498 -1.6013  1.1166  1.2691
26076SOL    HW287007   4.901   1.838   5.450  0.2004  0.4657  0.9006
26077SOL     OW87008   9.230   3.571  10.911 -0.1521 -0.3597  0.0547
26077SOL    HW187009   9.247   3.642  10.973 -2.4130  0.0731  0.2535
26077SOL    HW287010   9.188   3.614  10.836  0.8186 -1.1449 -0.9750
26078SOL     OW87011   2.937   9.393   1.678  0.1057  0.9281  0.3363
26078SOL    HW187012   2.913   9.326   1.614  0.4724  1.8666 -0.8177
26078SOL    HW287013   2.912   9.356   1.763  0.2876 -0.6504 -0.2754
26079SOL     OW87014   6.436  10.617  11.971  0.1042 -0.5364  0.3632
26079SOL    HW187015   6.476  10.666  11.900 -0.4804  1.3688  1.2977
26079SOL    HW287016   6.419  10.530  11.934 -2.2164  1.0006 -2.5978
26080SOL     OW87017   5.217   6.497   2.437  0.0065  0.4532  0.0633
26080SOL    HW187018   5.139   6.452   2.469  0.4633 -0.3677  0.0670
26080SOL    HW287019   5.192   6.530   2.351  0.1489 -1.2857 -0.6889
26081SOL     OW87020   2.894   7.680   1.818 -0.6222 -0.5482 -0.1060
26081SOL    HW187021   2.835   7.692   1.893 -2.6543 -0.8065 -1.5845
26081SOL    HW287022   2.839   7.695   1.742  1.6115  0.6604 -1.5811
26082SOL     OW87023   4.304  11.568   1.292  0.3051  0.3017 -0.1660
26082SOL    HW187024   4.355  11.647   1.311 -1.2539  0.8195  2.4532
26082SOL    HW287025   4.230  11.600   1.241  0.6060  0.2171 -0.6569
26083SOL     OW87026   5.250   2.306   2.958  0.0029 -0.0961  0.4036
26083SOL    HW187027   5.276   2.398   2.967  0.2630 -0.1498  0.2452
26083SOL    HW287028   5.290   2.262   3.033  0.2930 -0.1602  0.2174
26084SOL     OW87029   5.401   5.468   9.233  0.2985  0.4351 -0.2116
26084SOL    HW187030   5.474   5.526   9.255  1.6048 -1.2422  0.0908
26084SOL    HW287031   5.384   5.419   9.314 -0.7324  0.3364 -0.4770
26085SOL     OW87032   1.339  12.578   9.334 -0.5696  0.3556 -0.2882
26085SOL    HW187033   1.294  12.601   9.253  1.0708  1.3027 -0.9786
26085SOL    HW287034   1.419  12.630   9.333  0.6335 -1.3397  0.7989
26086SOL     OW87035  11.848   5.257   1.009  0.2503 -0.6468 -0.2733
26086SOL    HW187036  11.789   5.237   0.936  0.1203  0.8614 -0.6157
26086SOL    HW287037  11.791   5.257   1.086  0.0804 -0.6544 -0.3979
26087SOL     OW87038   1.651   5.703   3.366 -0.3321 -0.0639 -0.5242
26087SOL    HW187039   1.648   5.638   3.436  0.3838  0.4800  0.0265
26087SOL    HW287040   1.642   5.787   3.411  1.0547  0.3497 -0.9866
26088SOL     OW87041  12.237   5.530   5.184  0.3130 -0.7745  0.5853
26088SOL    HW187042  12.295   5.482   5.124  0.2707  0.6379 -0.6328
26088SOL    HW287043  12.251   5.622   5.162  0.3314 -0.1847  2.8101
26089SOL     OW87044   2.713   2.240   3.828 -0.0048 -1.3347 -0.2443
26089SOL    HW187045   2.635   2.258   3.775 -0.8789 -3.7883  0.0712
26089SOL    HW287046   2.775   2.309   3.805 -2.1740  0.5718 -0.6664
26090SOL     OW87047   2.299   2.147  12.094  0.3888  0.5886  0.2068
26090SOL    HW187048   2.249   2.113  12.169  0.6346 -0.7760 -0.2119
26090SOL    HW287049   2.233   2.186  12.037 -0.1298 -0.5407  0.0058
26091SOL     OW87050   7.792   8.694   4.189  0.2038  0.0998  0.3376
26091SOL    HW187051   7.873   8.643   4.196  0.9110  1.0412 -0.6555
26091SOL    HW287052   7.791   8.748   4.268  1.2561  1.0531 -0.2782
26092SOL     OW87053   9.367   4.206   9.528 -0.0729 -0.3308  0.1786
26092SOL    HW187054   9.362   4.268   9.601  0.0881 -0.4409  0.2849
26092SOL    HW287055   9.395   4.124   9.569 -0.1431 -0.4348  0.0168
26093SOL     OW87056   2.679   5.036   0.790 -0.4761 -0.5031 -0.2920
26093SOL    HW187057   2.690   4.990   0.707  0.4376 -1.2975  0.2544
26093SOL    HW287058   2.673   5.129   0.766  0.8559 -0.6197 -1.1694
26094SOL     OW87059   3.398   2.723   5.806  0.5972  0.3769  0.6073
26094SOL    HW187060   3.392   2.756   5.717  0.0813  1.0839  0.8989
26094SOL    HW287061   3.391   2.628   5.797  2.0457  0.3146 -0.2312
26095SOL     OW87062   4.310   0.607   1.641  0.2295 -0.0078 -0.2795
26095SOL    HW187063   4.369   0.536   1.615  0.2453 -0.1472  0.1318
26095SOL    HW287064   4.257   0.570   1.712 -0.3280  0.1302 -0.6168
26096SOL     OW87065   5.927   4.501  11.996 -0.2406 -0.2495  0.1712
26096SOL    HW187066   5.992   4.472  11.932  1.8671 -0.2275  2.1585
26096SOL    HW287067   5.903   4.589  11.969 -1.7104 -1.2849 -2.2105
26097SOL     OW87068   8.355   8.522   1.460  0.5405 -0.2649  0.2432
26097SOL    HW187069   8.352   8.474   1.377  0.2920 -1.5246  0.9594
26097SOL    HW287070   8.347   8.455   1.527  3.7518  0.3398  1.4123
26098SOL     OW87071   6.007   7.447  10.273  0.2644 -0.6037  0.2813
26098SOL    HW187072   6.062   7.408  10.206 -0.2522  1.3588 -1.3988
26098SOL    HW287073   6.068   7.474  10.342  1.1105 -0.6156 -0.4459
26099SOL     OW87074  10.585   2.798   1.801 -0.5823  0.0820 -0.6893
26099SOL    HW187075  10.563   2.865   1.866  1.5281  0.2646 -0.0755
26099SOL    HW287076  10.594   2.717   1.852  1.3878  0.2866 -0.6501
26100SOL     OW87077  12.330   8.921   0.566  0.1880 -0.1816  0.3811
26100SOL    HW187078  12.293   8.856   0.625 -1.6780  0.3741 -0.0979
26100SOL    HW287079  12.365   8.870   0.492  0.4076 -0.7284  0.8578
26101SOL     OW87080   8.697   0.685   3.534  0.9315 -0.6841 -0.5481
26101SOL    HW187081   8.670   0.640   3.454  0.4170  0.3188 -0.9459
26101SOL    HW287082   8.648   0.641   3.604 -0.0742 -0.3153 -1.0096
26102SOL     OW87083   8.661  10.722   1.564  0.5339 -0.2662 -0.1268
26102SOL    HW187084   8.588  10.660   1.564 -0.0391  0.3805 -0.3455
26102SOL    HW287085   8.673  10.744   1.471 -0.1022  0.8640  0.0296
26103SOL     OW87086   6.820   1.122   1.356  0.4761 -0.0245 -0.4733
26103SOL    HW187087   6.888   1.155   1.415 -0.6757  0.3720  0.6916
26103SOL    HW287088   6.791   1.199   1.307 -1.5003  0.6234  1.5212
26104SOL     OW87089  10.284   6.160  10.991  0.2702  0.3295  0.0237
26104SOL    HW187090  10.276   6.214  11.070 -0.4634  0.3251 -0.0464
26104SOL    HW287091  10.338   6.086  11.018 -1.5893 -0.7193  1.0808
26105SOL     OW87092   1.733   4.213   5.557 -0.1950  0.1724 -0.2502
26105SOL    HW187093   1.710   4.293   5.605 -0.8623 -0.5498  0.6604
26105SOL    HW287094   1.800   4.241   5.495  1.2647  1.0278  1.6059
26106SOL     OW87095   6.953   2.978   9.439  0.5498  0.0031 -0.2556
26106SOL    HW187096   7.023   2.960   9.376  1.3081 -0.7993  0.7863
26106SOL    HW287097   6.990   3.043   9.498  0.7761 -1.0927  0.8445
26107SOL     OW87098   3.046  11.901   0.928 -0.7271 -0.1239  0.8913
26107SOL    HW187099   2.985  11.932   0.861  1.8086  0.0571 -1.5502
26107SOL    HW287100   3.087  11.824   0.889  2.7999  1.5291  0.8913
26108SOL     OW87101   4.806   8.370  10.097  0.0140  0.4590 -0.1619
26108SOL    HW187102   4.714   8.396  10.091  0.0167  1.2338  2.1318
26108SOL    HW287103   4.852   8.434  10.043 -0.7058  0.6041 -0.6256
26109SOL     OW87104   3.120   8.623  12.134  0.4075 -0.5658  0.6721
26109SOL    HW187105   3.198   8.678  12.131  0.9683 -1.1255  3.0129
26109SOL    HW287106   3.065   8.662  12.203  0.2414 -2.1419  1.4961
26110SOL     OW87107   4.052   5.069   2.190  0.1840  0.5364  0.0259
26110SOL    HW187108   4.075   5.013   2.264 -0.9244  0.3231  0.2162
26110SOL    HW287109   4.131   5.070   2.136  1.6436  2.0680  2.0108
26111SOL     OW87110   1.912   7.902   2.486 -0.2031  0.4957 -0.5192
26111SOL    HW187111   1.995   7.922   2.528 -1.5940  1.2495  2.1260
26111SOL    HW287112   1.910   7.807   2.481  0.3544  0.4081  0.5117
26112SOL     OW87113   9.932   8.443   5.917 -0.2736 -0.0702  0.2745
26112SOL    HW187114   9.892   8.356   5.919 -0.1010 -0.1429  1.7166
26112SOL    HW287115   9.880   8.492   5.853 -0.4764 -1.1656 -0.4295
26113SOL     OW87116   1.510   3.777  12.009  0.4218  0.2396 -0.7576
26113SOL    HW187117   1.565   3.828  11.949  1.0530  0.7223  0.2176
26113SOL    HW287118   1.445   3.839  12.041  1.0920  0.4229  0.3054
26114SOL     OW87119   0.088  10.927  10.836  0.3486 -0.1291  0.4359
26114SOL    HW187120   0.071  10.986  10.762  2.4688  0.0647  0.0554
26114SOL    HW287121   0.032  10.851  10.820 -1.0390  0.9458 -0.0448
26115SOL     OW87122   0.780   3.949   8.764 -0.0660 -0.4009 -0.2111
26115SOL    HW187123   0.844   3.883   8.738  0.6309 -0.1585  0.8068
26115SOL    HW287124   0.730   3.908   8.834 -0.6157 -0.3610 -0.5759
26116SOL     OW87125   8.739  11.919   2.440 -0.5692  0.2947  0.0207
26116SOL    HW187126   8.707  11.996   2.487  0.0440  0.3391  0.3863
26116SOL    HW287127   8.661  11.876   2.408 -0.9110  1.3028 -0.5587
26117SOL     OW87128   2.736   5.586   8.645  0.3465 -0.0695 -0.4663
26117SOL    HW187129   2.793   5.526   8.598  0.5867  0.5508 -0.9704
26117SOL    HW287130   2.795   5.645   8.692  0.1163 -0.6676  0.6229
26118SOL     OW87131   5.075   1.802   3.407  0.1872 -0.4625  0.0619
26118SOL    HW187132   5.053   1.895   3.415  1.4634 -0.0151 -1.1281
26118SOL    HW287133   5.016   1.769   3.339  0.6041 -0.1930 -0.4371
26119SOL     OW87134   6.464   0.289   7.680 -0.3370  0.1774 -0.6329
26119SOL    HW187135   6.458   0.373   7.636  0.0220  0.4261 -0.2219
26119SOL    HW287136   6.551   0.256   7.657  0.2735  0.7859  0.6915
26120SOL     OW87137  10.558   2.489   9.087 -0.0261 -0.9590 -0.2196
26120SOL    HW187138  10.559   2.408   9.137  0.9849 -0.1867  1.0711
26120SOL    HW287139  10.650   2.508   9.070 -0.3132 -0.8467 -1.8359
26121SOL     OW87140   2.075   9.059  12.177 -0.7028  0.0837 -0.2984
26121SOL    HW187141   1.999   9.080  12.231 -0.8121 -0.3785 -0.2733
26121SOL    HW287142   2.083   9.134  12.117 -0.5960  0.5872  0.3301
26122SOL     OW87143   5.834  10.584   5.739 -0.4226 -0.4347  0.1847
26122SOL    HW187144   5.784  10.659   5.771  0.9119  0.6230 -0.1092
26122SOL    HW287145   5.924  10.616   5.731  0.0659 -1.8769 -0.5860
26123SOL     OW87146   0.444   8.601   3.380  0.4771 -0.4849  0.2161
26123SOL    HW187147   0.503   8.675   3.391 -0.9473  0.4381  2.3605
26123SOL    HW287148   0.377   8.631   3.320 -0.6161  0.3854  1.7988
26124SOL     OW87149  11.839  10.043   1.832  0.8039 -0.3381 -0.2597
26124SOL    HW187150  11.900   9.980   1.870 -1.0184 -1.3787  1.1293
26124SOL    HW287151  11.851  10.035   1.738  0.6406 -2.8055 -0.1189
26125SOL     OW87152   1.691   3.315   4.493  0.0472  0.2519 -0.2822
26125SOL    HW187153   1.776   3.341   4.457  0.5848 -1.3844 -0.2698
26125SOL    HW287154   1.629   3.372   4.449  1.1779  1.8064  0.0607
26126SOL     OW87155   3.455   4.791   2.698 -0.7526 -0.1555 -0.1489
26126SOL    HW187156   3.534   4.844   2.700 -0.5775 -0.3781 -0.9864
26126SOL    HW287157   3.392   4.844   2.648 -0.2569 -1.1476 -1.8866
26127SOL     OW87158   1.740  12.304  10.498  0.2501  0.5283 -0.3552
26127SOL    HW187159   1.784  12.389  10.493  1.4105  0.0091  0.6060
26127SOL    HW287160   1.696  12.304  10.583 -0.7072  0.6080 -0.8434
26128SOL     OW87161   5.314   6.907   3.025 -0.2705  0.0639 -0.1654
26128SOL    HW187162   5.226   6.878   3.004 -0.1979  0.6754 -1.4259
26128SOL    HW287163   5.371   6.834   2.998 -0.1683  0.8677 -2.3954
26129SOL     OW87164   0.320   1.774   9.385  0.4284  0.3791 -0.1500
26129SOL    HW187165   0.363   1.693   9.414  0.1338  0.2488 -0.0775
26129SOL    HW287166   0.229   1.749   9.370  0.2172  0.8095  0.3634
26130SOL     OW87167   4.603   5.964   1.297  0.2454 -0.1554  0.0264
26130SOL    HW187168   4.653   5.896   1.253  1.8535  0.9452  0.0531
26130SOL    HW287169   4.512   5.938   1.286  0.6837 -0.9979 -2.1220
26131SOL     OW87170   3.149   6.498   1.214 -0.2840  0.0083  0.4372
26131SOL    HW187171   3.176   6.475   1.125 -0.1002  2.8970 -0.3593
26131SOL    HW287172   3.229   6.527   1.256 -0.7383  0.7110  0.8267
26132SOL     OW87173   6.750   5.389   8.223  0.0830 -0.2519 -0.5268
26132SOL    HW187174   6.810   5.459   8.250 -0.7231  0.3484 -0.2693
26132SOL    HW287175   6.694   5.430   8.157  0.1834 -0.9118 -1.0305
26133SOL     OW87176   6.940   0.836   9.872  0.3321  0.4815 -0.2256
26133SOL    HW187177   6.933   0.769   9.803  1.1203  0.6324 -0.4659
26133SOL    HW287178   7.034   0.845   9.886  0.1727  0.4353  0.9006
26134SOL     OW87179   0.556  11.791   2.761  0.3130 -0.3992 -0.0066
26134SOL    HW187180   0.576  11.773   2.669 -0.3451 -1.8470  0.1050
26134SOL    HW287181   0.465  11.761   2.772  0.5120 -0.6115  1.2000
26135SOL     OW87182   2.243   4.790   0.559 -0.2141 -0.6690  0.2142
26135SOL    HW187183   2.171   4.771   0.620 -0.3713 -0.8756 -0.0287
26135SOL    HW287184   2.273   4.877   0.584 -0.5618 -0.5725  0.3110
26136SOL     OW87185  10.991   4.129   2.491 -0.4266 -0.5225 -0.0456
26136SOL    HW187186  11.075   4.090   2.469 -0.9771 -0.5927 -2.2414
26136SOL    HW287187  11.013   4.211   2.535  0.7687 -0.8075 -0.0897
26137SOL     OW87188  10.183   1.988  12.219 -0.6070 -0.1588  0.2309
26137SOL    HW187189  10.129   1.958  12.146 -0.4891 -0.5162  0.2887
26137SOL    HW287190  10.260   1.931  12.218 -0.5845 -0.1405  0.6054
26138SOL     OW87191  12.219  10.745   3.082  0.1102 -0.5153  0.2000
26138SOL    HW187192  12.240  10.795   3.004  0.3919 -1.4307 -0.3176
26138SOL    HW287193  12.278  10.780   3.150 -2.3931  2.6615  0.9935
26139SOL     OW87194   2.071   5.032   3.103  0.0521 -0.2129  0.4544
26139SOL    HW187195   2.150   5.080   3.127  0.3094  0.8063 -2.0460
26139SOL    HW287196   2.095   4.940   3.112  0.8029  0.0815  1.7209
26140SOL     OW87197   1.938   9.708   7.820  0.1321  0.0078 -0.3800
26140SOL    HW187198   2.013   9.650   7.829  0.4370 -0.3662 -3.9268
26140SOL    HW287199   1.975   9.793   7.798 -0.4133 -0.1243 -1.9272
26141SOL     OW87200   5.543   2.512   5.333 -0.3089  0.2607 -0.3321
26141SOL    HW187201   5.502   2.448   5.392  0.6128 -1.1665 -1.1786
26141SOL    HW287202   5.593   2.459   5.272  2.2311  1.9073  0.1925
26142SOL     OW87203   6.427  11.156  12.286  0.3309  0.5066 -0.4195
26142SOL    HW187204   6.490  11.228  12.287 -0.6574  1.3914 -0.7660
26142SOL    HW287205   6.426  11.127  12.195 -1.2257  1.8287 -0.8557
26143SOL     OW87206   9.822   0.306   5.368 -0.1939 -0.6711 -0.7052
26143SOL    HW187207   9.833   0.343   5.456 -0.3634  0.3657 -1.1038
26143SOL    HW287208   9.904   0.328   5.324 -0.2855 -0.7998 -0.9373
26144SOL     OW87209   1.457   5.642   8.136  0.3822  0.0854 -0.3203
26144SOL    HW187210   1.451   5.574   8.203  2.6002  0.0216 -0.1178
26144SOL    HW287211   1.469   5.595   8.054  0.6649  0.2054 -0.3503
26145SOL     OW87212  12.372  12.306   6.210  0.2150 -0.0284 -0.1581
26145SOL    HW187213  12.374  12.349   6.124 -1.0530 -0.3720 -0.3793
26145SOL    HW287214  12.404  12.217   6.193 -1.0774 -0.4413 -0.5023
26146SOL     OW87215   2.030  11.948   9.167 -0.1443 -0.0270 -0.1026
26146SOL    HW187216   1.940  11.969   9.140  0.6183  2.0811 -1.1891
26146SOL    HW287217   2.031  11.852   9.173 -2.6414 -0.0823  0.6781
26147SOL     OW87218   2.692   4.210  12.038  0.3926 -0.3537 -0.1035
26147SOL    HW187219   2.779   4.250  12.027 -0.4445  1.4961 -0.4249
26147SOL    HW287220   2.668   4.231  12.129 -0.4651  0.7961 -0.5710
26148SOL     OW87221  10.344   6.018   6.287  0.2414  0.1162  0.1668
26148SOL    HW187222  10.412   5.955   6.312  1.2904  1.6212  1.2645
26148SOL    HW287223  10.383   6.104   6.305 -1.5719  1.0607 -0.2096
26149SOL     OW87224   1.473   6.240  11.815 -0.1091  0.3335  0.3856
26149SOL    HW187225   1.385   6.258  11.783  0.5301  0.1508 -1.6301
26149SOL    HW287226   1.482   6.295  11.893 -1.2379  2.0301 -0.6221
26150SOL     OW87227  11.363   3.806   4.282  0.1377 -0.1334  0.1328
26150SOL    HW187228  11.297   3.871   4.256 -0.7462 -0.5560  1.2627
26150SOL    HW287229  11.446   3.843   4.250 -0.4426  1.1583  0.0385
26151SOL     OW87230   7.344   7.720  11.197  0.0563 -0.1143  0.4440
26151SOL    HW187231   7.302   7.778  11.261 -1.0744  0.2063 -0.5645
26151SOL    HW287232   7.376   7.779  11.129  1.6107 -0.4180  0.8699
26152SOL     OW87233   1.116   2.971   4.594  0.5565  0.0784 -0.2574
26152SOL    HW187234   1.157   2.885   4.584 -2.2182 -1.2042 -1.8613
26152SOL    HW287235   1.122   3.011   4.507 -1.6294 -0.2811 -0.6460
26153SOL     OW87236   6.180  11.306  10.172 -0.2696  0.3591 -0.1694
26153SOL    HW187237   6.198  11.242  10.241 -0.1652  0.8718  0.2912
26153SOL    HW287238   6.143  11.255  10.100 -0.0289 -0.2386  0.1245
26154SOL     OW87239   2.925   3.779   7.946 -0.2767 -0.5047 -0.3179
26154SOL    HW187240   2.873   3.762   8.025 -1.3582  0.9321 -0.6840
26154SOL    HW287241   2.984   3.850   7.971  0.5705 -1.1856 -0.3268
26155SOL     OW87242   4.719   6.924   0.885 -0.1124 -0.6562  0.4739
26155SOL    HW187243   4.645   6.916   0.826  1.7204  0.6235 -2.2022
26155SOL    HW287244   4.719   7.016   0.913  1.6464  0.0063 -1.4214
26156SOL     OW87245   9.731   0.831   6.668  0.3063  0.3268  0.1057
26156SOL    HW187246   9.764   0.919   6.685  2.2654 -0.2307 -0.6155
26156SOL    HW287247   9.642   0.846   6.635  1.4155  2.2652 -2.3703
26157SOL     OW87248  12.561   5.616   0.202 -0.2805 -0.4896 -0.2545
26157SOL    HW187249  12.615   5.649   0.130  0.1615 -1.8308 -0.5658
26157SOL    HW287250  12.516   5.540   0.165  0.1540 -1.3685  0.9420
26158SOL     OW87251   7.148   0.679   8.430 -0.2079 -0.2294 -0.1235
26158SOL    HW187252   7.109   0.762   8.458 -0.6261 -0.1444 -0.9223
26158SOL    HW287253   7.088   0.646   8.363  0.1083 -1.0357 -0.0159
26159SOL     OW87254   5.890   9.747  12.444  0.1744 -0.4829 -0.1369
26159SOL    HW187255   5.864   9.831  12.481 -1.3257 -0.1769 -1.8062
26159SOL    HW287256   5.876   9.756  12.350  3.4940 -1.3698 -0.8465
26160SOL     OW87257   9.582   8.298   3.970  0.4055 -0.1001 -0.2762
26160SOL    HW187258   9.653   8.316   4.032  2.5352  0.4468 -2.7345
26160SOL    HW287259   9.626   8.283   3.886 -2.3750 -0.3867 -1.7965
26161SOL     OW87260   8.989   9.430   2.654 -0.5022 -0.2396 -0.1648
26161SOL    HW187261   8.914   9.488   2.646 -0.8315 -0.9082 -4.7322
26161SOL    HW287262   8.952   9.345   2.675 -0.6211  0.0242  0.7493
26162SOL     OW87263  11.547   7.282  11.608 -0.0219 -0.4294  0.6547
26162SOL    HW187264  11.622   7.233  11.575  0.1682  0.6463 -0.5852
26162SOL    HW287265  11.527   7.345  11.539 -1.5148 -0.0995  1.3495
26163SOL     OW87266   4.597   6.440   7.826 -0.0596  0.0974  0.0475
26163SOL    HW187267   4.533   6.499   7.868  1.2102  3.4193 -2.2551
26163SOL    HW287268   4.545   6.389   7.764 -1.2022 -1.3904  2.1079
26164SOL     OW87269   6.629   8.723   9.217 -0.0305 -0.4858  0.2397
26164SOL    HW187270   6.677   8.789   9.267  0.8553 -0.2161 -0.9396
26164SOL    HW287271   6.598   8.661   9.283 -0.4342  0.8160  1.3150
26165SOL     OW87272  11.263   7.375   5.365 -0.5722 -0.4476  0.6278
26165SOL    HW187273  11.345   7.416   5.338 -1.4088  1.7080  1.1376
26165SOL    HW287274  11.235   7.326   5.288  1.2736 -1.4400  0.5237
26166SOL     OW87275   7.666   1.891   0.665  0.1046  0.1555  0.0286
26166SOL    HW187276   7.618   1.907   0.747 -0.1704 -0.1866 -0.0630
26166SOL    HW287277   7.601   1.850   0.607 -0.4537  2.6228 -1.2527
26167SOL     OW87278   0.258  12.209  11.077 -0.1725 -0.3954 -0.4528
26167SOL    HW187279   0.342  12.218  11.033 -0.2105  1.0492 -0.2540
26167SOL    HW287280   0.279  12.205  11.170 -0.2214 -1.6863 -0.4801
26168SOL     OW87281   1.802   7.895  10.632  0.8138  0.1988  0.3908
26168SOL    HW187282   1.816   7.921  10.723 -0.3604  2.3358  0.0252
26168SOL    HW287283   1.720   7.846  10.634 -0.5967  2.3867  0.2366
26169SOL     OW87284  10.473   4.744   2.655  0.4879 -0.9903  0.2604
26169SOL    HW187285  10.510   4.827   2.625  2.0524 -1.7461 -0.0502
26169SOL    HW287286  10.412   4.768   2.724  0.4466  0.4535 -0.2415
26170SOL     OW87287   9.003   0.932   4.123  0.6058 -0.1001  0.0980
26170SOL    HW187288   9.026   1.001   4.060 -0.1117  1.0240  1.0144
26170SOL    HW287289   9.045   0.853   4.089  1.2251  0.7287 -1.1402
26171SOL     OW87290   9.659   8.774   2.557  0.0601  0.0569 -0.0735
26171SOL    HW187291   9.632   8.833   2.486  2.6798  0.7585 -0.6081
26171SOL    HW287292   9.630   8.688   2.529 -1.5548  0.7080 -0.5345
26172SOL     OW87293   9.129   4.170   6.899 -0.2652  0.1160  0.1224
26172SOL    HW187294   9.117   4.086   6.857  1.4945  0.7756 -1.9013
26172SOL    HW287295   9.043   4.192   6.935 -1.2499 -1.6206 -1.0209
26173SOL     OW87296  11.936   3.223   4.139  0.3277  0.1534  0.0261
26173SOL    HW187297  11.995   3.149   4.123 -0.5898 -0.4800 -0.5109
26173SOL    HW287298  11.850   3.183   4.153 -0.1117  1.0974  0.0881
26174SOL     OW87299   6.537   9.032   2.257  0.9051 -0.2696  0.1899
26174SOL    HW187300   6.533   9.025   2.162 -0.1123 -1.4226  0.2853
26174SOL    HW287301   6.578   8.950   2.286  0.4953 -0.2847  0.7609
26175SOL     OW87302   6.310   8.903   2.133 -0.3021  0.5383 -0.0186
26175SOL    HW187303   6.341   8.904   2.223 -0.1479 -0.9872 -0.0365
26175SOL    HW287304   6.238   8.840   2.132 -0.1184  0.3162 -1.0192
26176SOL     OW87305   7.076   1.355   3.206 -0.2622 -0.4893  0.7538
26176SOL    HW187306   7.009   1.399   3.259 -0.7823 -0.1356 -0.1665
26176SOL    HW287307   7.157   1.403   3.224 -0.6892  0.4325  0.2863
26177SOL     OW87308  10.164   1.824   2.306  0.4179  0.3121  0.4458
26177SOL    HW187309  10.220   1.900   2.287  0.5161 -0.1044 -1.0252
26177SOL    HW287310  10.093   1.829   2.242  0.3941 -0.7960  0.3588
26178SOL     OW87311   2.265  12.000   1.647 -0.2633 -0.2279 -0.0524
26178SOL    HW187312   2.186  11.947   1.644 -0.5127  0.0534  0.9607
26178SOL    HW287313   2.317  11.962   1.717  1.0817 -1.1640 -1.5007
26179SOL     OW87314  12.076   6.668   5.803  0.0178  0.2254 -0.6077
26179SOL    HW187315  11.985   6.678   5.831  0.3012  2.1440 -0.2697
26179SOL    HW287316  12.070   6.640   5.712 -0.9050  0.2098 -0.5483
26180SOL     OW87317   2.137  12.552   0.544  0.0332 -0.1949 -0.2240
26180SOL    HW187318   2.197  12.608   0.592  1.6924 -0.4084 -1.9532
26180SOL    HW287319   2.107  12.488   0.609 -1.6060  2.3065  1.7057
26181SOL     OW87320  11.167   5.526   1.596 -0.1938  0.1661  0.5069
26181SOL    HW187321  11.252   5.509   1.636 -0.1508  0.3543  0.4936
26181SOL    HW287322  11.118   5.445   1.609  0.2944 -0.2623 -0.2587
26182SOL     OW87323   7.178   0.283   4.404 -0.0506 -0.1822  0.0103
26182SOL    HW187324   7.089   0.249   4.417 -0.1357 -0.0584 -0.2413
26182SOL    HW287325   7.175   0.372   4.439  0.2943 -0.5761  1.0876
26183SOL     OW87326   7.310   7.227   5.071  0.2091  0.0453  0.1750
26183SOL    HW187327   7.245   7.193   5.010  0.3400  1.5645 -0.8624
26183SOL    HW287328   7.331   7.153   5.128 -2.3243 -0.5336  0.4757
26184SOL     OW87329   1.704  11.689   7.316  0.1851  0.1978 -0.7623
26184SOL    HW187330   1.693  11.621   7.382  2.0913 -0.2052 -0.8099
26184SOL    HW287331   1.617  11.730   7.310 -0.2403 -0.2424  1.4156
26185SOL     OW87332   1.913   9.891  12.300  1.0324 -0.5561 -0.7133
26185SOL    HW187333   1.948   9.808  12.331 -0.3772 -0.3588  1.5853
26185SOL    HW287334   1.860   9.924  12.372  2.4831  2.9503 -1.0332
26186SOL     OW87335   4.370   5.048   3.091  0.3814 -0.2903 -0.1675
26186SOL    HW187336   4.297   4.987   3.083  0.1531 -0.1362  0.6565
26186SOL    HW287337   4.384   5.081   3.002 -0.0712 -0.8699 -0.4556
26187SOL     OW87338  10.296   5.713   4.061  0.9614 -0.3497  0.6978
26187SOL    HW187339  10.204   5.724   4.082  0.5648  0.2997 -1.1863
26187SOL    HW287340  10.343   5.751   4.136 -0.3407  2.3236  0.2968
26188SOL     OW87341   4.132   7.240   8.594  0.3968  0.2183  0.1011
26188SOL    HW187342   4.212   7.269   8.638  0.5887  0.2913 -0.2885
26188SOL    HW287343   4.145   7.146   8.579  1.5214  0.6372 -2.1729
26189SOL     OW87344   2.824   3.285   6.112  0.1794  0.7189 -0.2223
26189SOL    HW187345   2.894   3.318   6.168  0.2726  0.2656 -0.0733
26189SOL    HW287346   2.744   3.323   6.150  0.2109  0.1788  0.3992
26190SOL     OW87347   2.485   2.691   1.267  0.6963  0.2852 -0.0505
26190SOL    HW187348   2.493   2.702   1.172 -0.0804 -0.8171 -0.2621
26190SOL    HW287349   2.402   2.732   1.289 -0.6541 -2.1162 -0.3611
26191SOL     OW87350   4.451   0.261   6.855 -0.8365  0.1716 -0.2318
26191SOL    HW187351   4.424   0.189   6.912  0.1900  0.3928  0.5593
26191SOL    HW287352   4.430   0.340   6.904  2.0530  0.3679  0.9144
26192SOL     OW87353   1.865  11.976   3.583  0.0758  0.0778 -0.0059
26192SOL    HW187354   1.861  12.003   3.491  0.1356  0.7131  0.1682
26192SOL    HW287355   1.781  12.006   3.620 -0.4262 -1.1649 -0.1028
26193SOL     OW87356   5.491   1.494   9.380  0.7090  0.1444  0.8121
26193SOL    HW187357   5.441   1.565   9.340  0.7221 -0.6354 -0.6384
26193SOL    HW287358   5.511   1.435   9.308 -0.6956 -2.1959  2.2145
26194SOL     OW87359   4.993   4.883   8.624  0.0119  0.3456 -0.0107
26194SOL    HW187360   5.075   4.933   8.620 -0.5344  1.2762  0.2516
26194SOL    HW287361   4.968   4.886   8.716  0.2787 -0.9383  0.1231
26195SOL     OW87362   3.579   5.871  11.265 -0.4920 -0.0902  0.8737
26195SOL    HW187363   3.654   5.925  11.240 -2.0812  2.4514  1.1884
26195SOL    HW287364   3.607   5.827  11.346  1.4110 -1.0419 -0.2403
26196SOL     OW87365   6.883   5.279   7.662  0.3803 -0.2156 -0.2807
26196SOL    HW187366   6.876   5.264   7.757  0.5183  1.4472  0.0285
26196SOL    HW287367   6.841   5.364   7.648  0.3860 -0.4262 -1.7178
26197SOL     OW87368   9.616   3.210   2.981  0.4306 -0.2002 -0.1223
26197SOL    HW187369   9.633   3.161   3.062  0.4618 -0.3587 -0.2243
26197SOL    HW287370   9.634   3.148   2.911 -3.6337 -1.5183 -0.2777
26198SOL     OW87371  11.662  10.894  11.909 -0.0484  0.4867 -0.4777
26198SOL    HW187372  11.662  10.869  12.001  0.8145  1.4438 -0.2030
26198SOL    HW287373  11.662  10.990  11.910 -1.4499  0.5253 -1.4863
26199SOL     OW87374   1.889  10.470  11.348 -0.2546  0.2155 -0.0629
26199SOL    HW187375   1.985  10.469  11.351 -0.2697 -0.4278  1.8679
26199SOL    HW287376   1.865  10.380  11.325 -0.4032  0.5684 -1.3285
26200SOL     OW87377   6.459   4.759   2.603 -0.1046 -0.3505  0.3742
26200SOL    HW187378   6.386   4.750   2.664  0.2992 -1.9510  0.6925
26200SOL    HW287379   6.513   4.681   2.619  1.3358  0.4653 -0.2905
26201SOL     OW87380  10.879   3.585   9.339 -0.6823 -0.4022  0.6930
26201SOL    HW187381  10.790   3.611   9.366 -0.1321  2.1360  0.3619
26201SOL    HW287382  10.934   3.612   9.413 -0.0760 -0.9950  0.4550
26202SOL     OW87383   9.411   6.348   5.675 -0.2179  0.4837 -0.2220
26202SOL    HW187384   9.333   6.303   5.708 -0.0078  0.5618  0.3970
26202SOL    HW287385   9.450   6.388   5.752  0.7888 -0.0957 -0.4042
26203SOL     OW87386  12.405   9.022   1.745  0.0040 -0.2815  0.6437
26203SOL    HW187387  12.338   9.089   1.728 -1.1012 -1.5041 -0.0491
26203SOL    HW287388  12.450   9.012   1.661 -1.1650 -1.7749  0.1548
26204SOL     OW87389  11.457   6.247   1.324  0.3641  0.1898  0.0975
26204SOL    HW187390  11.457   6.342   1.309  0.4768  0.4331  1.4950
26204SOL    HW287391  11.391   6.234   1.392  2.1984 -0.3694  1.8614
26205SOL     OW87392   7.114  12.268   7.050 -0.4257  0.5338  0.4301
26205SOL    HW187393   7.118  12.173   7.035  0.5135  0.5410  0.5602
26205SOL    HW287394   7.176  12.283   7.121 -1.6382  1.0683  1.4214
26206SOL     OW87395   2.654   8.161   2.450 -0.2392  0.3607  0.0291
26206SOL    HW187396   2.739   8.115   2.445 -0.4615 -0.2717  1.5575
26206SOL    HW287397   2.607   8.116   2.520 -1.4421  1.3919 -0.0899
26207SOL     OW87398   5.017   7.125   0.389 -0.3508  0.0908 -0.0160
26207SOL    HW187399   4.951   7.185   0.425  0.8574  1.1114  0.5590
26207SOL    HW287400   5.086   7.122   0.455  0.0435 -1.2298 -0.4507
26208SOL     OW87401   8.209  11.520  11.654  0.6483  0.8224 -0.1475
26208SOL    HW187402   8.175  11.492  11.569  0.5969 -0.0937  0.1653
26208SOL    HW287403   8.145  11.583  11.686  0.5017  0.9315 -0.6471
26209SOL     OW87404  10.330   6.393   0.698 -0.4909 -0.9408 -0.1725
26209SOL    HW187405  10.420   6.362   0.686 -1.0899 -2.4243 -1.0851
26209SOL    HW287406  10.314   6.449   0.622  0.2943  1.0083  1.0243
26210SOL     OW87407   7.604   5.339   6.951 -0.2051 -0.3050 -0.1299
26210SOL    HW187408   7.516   5.363   6.923 -0.4555  1.3129  1.8446
26210SOL    HW287409   7.593   5.254   6.995 -1.4928  1.3248  3.0170
26211SOL     OW87410   5.535   5.313   8.103  0.1010  0.3724  0.8607
26211SOL    HW187411   5.459   5.368   8.084  0.3474  0.2829 -0.4563
26211SOL    HW287412   5.498   5.226   8.120 -0.0816  0.2895  0.0480
26212SOL     OW87413   8.007   6.041   4.473  0.2930 -0.2194  0.4355
26212SOL    HW187414   7.950   6.091   4.415  1.9709  0.4571 -0.7060
26212SOL    HW287415   7.959   6.035   4.555 -1.2248  0.6680 -0.3544
26213SOL     OW87416   6.713   0.274   8.905  0.4106  0.9008 -0.4987
26213SOL    HW187417   6.808   0.280   8.900  0.4265  1.8168  0.5286
26213SOL    HW287418   6.682   0.352   8.858  0.2258  1.5238  0.6276
26214SOL     OW87419   4.290   8.256   7.852 -0.0075 -0.4309 -0.4010
26214SOL    HW187420   4.210   8.212   7.822  0.1707 -0.0402 -1.5009
26214SOL    HW287421   4.355   8.236   7.784  0.1782  1.2223 -0.7484
26215SOL     OW87422   2.094   4.108   1.010  0.4528 -0.7328 -0.2309
26215SOL    HW187423   2.126   4.030   0.965  0.1908 -1.0557  0.1286
26215SOL    HW287424   2.134   4.181   0.964 -0.7610 -0.9877 -1.7663
26216SOL     OW87425   7.638  11.177   4.556  0.2310  0.2762 -0.3464
26216SOL    HW187426   7.607  11.109   4.616  0.7982 -0.2664 -0.6577
26216SOL    HW287427   7.573  11.247   4.564  0.4010  0.3061  1.0630
26217SOL     OW87428   6.029   6.922   5.835 -0.3066 -0.3821  0.1851
26217SOL    HW187429   5.941   6.887   5.851 -0.1621 -0.0860  1.8890
26217SOL    HW287430   6.073   6.915   5.920  0.6983  1.1711 -0.1641
26218SOL     OW87431  12.115   4.441   8.242 -0.5751  0.5783 -0.1544
26218SOL    HW187432  12.039   4.492   8.272 -0.7659  0.7609 -0.9199
26218SOL    HW287433  12.170   4.504   8.197  0.2361  0.5228  0.7335
26219SOL     OW87434   6.995   9.937   8.859  0.2698 -0.5475  0.2431
26219SOL    HW187435   6.975   9.927   8.766 -0.0843  1.1611  0.1022
26219SOL    HW287436   6.912   9.916   8.903 -0.5178  1.6689 -0.0540
26220SOL     OW87437   9.733   2.388   1.800  0.0577  0.3415  0.1755
26220SOL    HW187438   9.767   2.439   1.874 -0.0055  0.7768 -0.0896
26220SOL    HW287439   9.641   2.374   1.821 -0.1865  1.2466 -0.2389
26221SOL     OW87440  11.484   2.355   1.997 -0.4933  0.2265  0.2439
26221SOL    HW187441  11.524   2.383   2.080  0.4877  1.1950 -0.5294
26221SOL    HW287442  11.395   2.389   2.002 -0.2426  0.8587  0.6396
26222SOL     OW87443  12.357   7.996   4.553  0.3159 -0.2610 -0.1928
26222SOL    HW187444  12.366   8.091   4.567  0.5737 -0.0098 -1.8553
26222SOL    HW287445  12.443   7.960   4.576  0.7046  0.1247 -0.9789
26223SOL     OW87446   3.529   8.711   1.193  0.3680  0.3477 -0.2840
26223SOL    HW187447   3.471   8.635   1.187 -0.3834  0.8517  0.5350
26223SOL    HW287448   3.555   8.728   1.102 -2.4172  1.3718 -0.9905
26224SOL     OW87449   8.524   5.074   7.613  0.5726  0.6397 -0.0362
26224SOL    HW187450   8.567   5.034   7.688 -0.9048  1.4345  1.2924
26224SOL    HW287451   8.495   5.159   7.645  1.3010  1.7099 -1.9979
26225SOL     OW87452   5.435   5.572   6.664  0.2463  0.4874  0.1794
26225SOL    HW187453   5.395   5.485   6.667 -1.3698  1.2002  1.4989
26225SOL    HW287454   5.402   5.616   6.743  2.2364  1.8012  0.3546
26226SOL     OW87455   7.705   2.917   5.396 -0.5502 -0.1035 -0.2125
26226SOL    HW187456   7.680   2.833   5.435 -0.6242  0.5663  1.2676
26226SOL    HW287457   7.643   2.980   5.434  0.0709  0.7519 -0.5820
26227SOL     OW87458  11.773   7.036   8.737 -0.3363  0.4134  0.0556
26227SOL    HW187459  11.785   6.956   8.789  0.5785  0.0697 -0.6527
26227SOL    HW287460  11.698   7.016   8.680 -1.6151  0.9484  1.4895
26228SOL     OW87461   5.468   5.337   6.157 -0.0116  0.2460 -0.0708
26228SOL    HW187462   5.503   5.249   6.174 -1.6466 -0.4276 -0.0378
26228SOL    HW287463   5.385   5.340   6.205 -0.5508  1.3879 -1.0119
26229SOL     OW87464   2.025   6.797   0.163 -0.1350 -0.1620  0.0404
26229SOL    HW187465   2.108   6.826   0.124 -0.9498  0.6768 -1.1505
26229SOL    HW287466   2.012   6.855   0.238 -0.2222  0.5357 -0.4959
26230SOL     OW87467   1.041   2.694  10.098 -0.3940  0.1567  0.2014
26230SOL    HW187468   1.006   2.606  10.090 -0.8217  0.3317  0.0986
26230SOL    HW287469   0.998   2.730  10.176 -0.9563  0.6011 -0.3030
26231SOL     OW87470  10.766   3.487   6.914  0.0132  0.0934  0.3473
26231SOL    HW187471  10.856   3.464   6.937  0.2417  0.3911 -0.2305
26231SOL    HW287472  10.747   3.563   6.969  0.8404  1.3115 -0.9721
26232SOL     OW87473   9.774   0.495   9.685  0.6337  0.0682  0.8856
26232SOL    HW187474   9.847   0.553   9.707  0.8776 -0.2967  1.0583
26232SOL    HW287475   9.816   0.411   9.667  0.4289  0.2852 -0.7644
26233SOL     OW87476   5.736   0.872   9.972  0.0496  0.5495  0.2618
26233SOL    HW187477   5.685   0.910  10.044  1.1017  2.3150  0.1203
26233SOL    HW287478   5.738   0.778   9.992  1.7191  1.1166  3.5324
26234SOL     OW87479   1.840  10.477   3.304 -0.0576  0.0449  0.1956
26234SOL    HW187480   1.795  10.561   3.314  1.2479  0.5793  2.1351
26234SOL    HW287481   1.933  10.500   3.303  0.2958 -1.2768 -0.8173
26235SOL     OW87482   2.667   9.829   9.357 -0.3900 -0.0764 -0.1564
26235SOL    HW187483   2.656   9.740   9.325 -0.5224 -0.3205  0.5581
26235SOL    HW287484   2.706   9.876   9.283 -1.8464 -0.3159 -1.1167
26236SOL     OW87485  11.333   2.090   7.827  0.1569 -0.2483 -0.3702
26236SOL    HW187486  11.276   2.154   7.870  0.3195  0.1931 -0.7994
26236SOL    HW287487  11.329   2.112   7.734 -1.6554 -2.3417 -0.8807
26237SOL     OW87488   9.393  11.081  11.304 -0.1911  0.3336 -0.6197
26237SOL    HW187489   9.472  11.130  11.281  1.1105 -1.7202 -0.8145
26237SOL    HW287490   9.323  11.146  11.303  1.1281  1.8357 -2.5435
26238SOL     OW87491   0.013   3.513   5.512  0.0296  0.1789 -0.3462
26238SOL    HW187492   0.082   3.578   5.524  0.9714 -0.8436 -0.0627
26238SOL    HW287493  -0.019   3.528   5.423  2.5224 -1.0539 -1.5573
26239SOL     OW87494   1.026   4.654  11.184  0.2161 -0.0905 -0.1104
26239SOL    HW187495   1.098   4.680  11.127  0.0220 -1.8809 -1.2775
26239SOL    HW287496   1.043   4.698  11.267  2.5438 -0.2853 -0.4209
26240SOL     OW87497   5.719   8.821   0.448 -0.1917  0.1149  0.1049
26240SOL    HW187498   5.753   8.792   0.532  1.7049 -1.2149 -1.0493
26240SOL    HW287499   5.633   8.779   0.442 -0.2856  0.0990  1.2971
26241SOL     OW87500  12.390   4.480   3.299 -0.3074 -0.1169 -0.0810
26241SOL    HW187501  12.335   4.548   3.337 -0.3166 -0.3468  0.3263
26241SOL    HW287502  12.336   4.442   3.229  0.4568  1.6420 -1.6881
26242SOL     OW87503   3.355   9.783   4.527  0.4472 -0.6183 -0.3486
26242SOL    HW187504   3.307   9.743   4.600 -0.2548 -0.3576 -0.6537
26242SOL    HW287505   3.363   9.712   4.463 -3.2377  0.2559 -2.1001
26243SOL     OW87506   5.938  11.690   7.538  0.0020 -0.0242  0.0092
26243SOL    HW187507   5.866  11.650   7.587 -0.0190 -1.6958 -1.2841
26243SOL    HW287508   6.005  11.622   7.533 -0.2670 -0.1959 -2.7908
26244SOL     OW87509   2.803  10.336  11.947 -0.7245 -0.1756  0.7950
26244SOL    HW187510   2.762  10.394  12.011 -1.7858 -0.0937  0.0671
26244SOL    HW287511   2.894  10.329  11.976 -1.2012 -0.2367  2.3770
26245SOL     OW87512   4.161  10.145   0.561  0.1834 -0.2287  0.2441
26245SOL    HW187513   4.111  10.178   0.636 -0.1602  0.1644 -0.1530
26245SOL    HW287514   4.113  10.176   0.484  0.4647 -0.7296 -0.1432
26246SOL     OW87515   5.892  12.206   5.660 -0.7853  0.2962 -0.3636
26246SOL    HW187516   5.977  12.245   5.678  0.1906 -0.6678 -2.6052
26246SOL    HW287517   5.849  12.268   5.601  0.1796 -1.1843 -2.7439
26247SOL     OW87518   7.598   3.559   2.658  0.3182  0.3608 -0.0083
26247SOL    HW187519   7.546   3.559   2.738  0.2325 -1.0867 -0.0387
26247SOL    HW287520   7.669   3.497   2.676 -0.5096 -1.1336 -1.5165
26248SOL     OW87521  12.335   4.053   8.522 -0.5713 -0.1046 -0.0092
26248SOL    HW187522  12.330   3.959   8.538 -1.1939  0.0583  0.8219
26248SOL    HW287523  12.296   4.093   8.600  0.5986  0.8772  0.0939
26249SOL     OW87524   6.250   8.348   1.363  0.6959  0.4300  0.3508
26249SOL    HW187525   6.168   8.299   1.351  1.0308 -0.0136 -0.1593
26249SOL    HW287526   6.227   8.438   1.340  0.4976  0.1909 -0.4225
26250SOL     OW87527   8.468   9.543   1.930 -0.2846 -0.1357  0.6031
26250SOL    HW187528   8.418   9.473   1.973 -2.8297  1.2706  0.1876
26250SOL    HW287529   8.485   9.510   1.842 -0.0698 -0.8182  0.8923
26251SOL     OW87530   4.841  10.187   1.968 -0.0464  0.6682  0.1494
26251SOL    HW187531   4.884  10.102   1.958 -1.3679  0.0279 -0.4439
26251SOL    HW287532   4.794  10.181   2.051  1.5823  1.6580  1.1942
26252SOL     OW87533   0.647  10.406   8.789 -0.4146  0.7078 -0.3997
26252SOL    HW187534   0.671  10.391   8.697 -0.9544  1.4353 -0.6639
26252SOL    HW287535   0.697  10.340   8.837  1.1431  1.3732 -1.0499
26253SOL     OW87536  11.977   5.790   2.203 -0.2893  0.5828  0.1767
26253SOL    HW187537  11.908   5.752   2.149 -0.0100 -0.5194  0.5577
26253SOL    HW287538  12.011   5.716   2.253  1.0889  1.1165  0.0794
26254SOL     OW87539   1.636   0.742   1.730  0.1935 -0.0538  0.1619
26254SOL    HW187540   1.649   0.832   1.701  2.2059  0.4745  2.3384
26254SOL    HW287541   1.650   0.746   1.825 -1.7795 -2.3220  0.6462
26255SOL     OW87542   5.826   7.837  11.578  0.5153 -0.7438  0.8079
26255SOL    HW187543   5.821   7.896  11.653  0.1893 -0.5360  0.6251
26255SOL    HW287544   5.917   7.845  11.548  0.0026  1.1649 -0.3894
26256SOL     OW87545   3.843   3.943  11.911  0.0923  0.7152 -0.0464
26256SOL    HW187546   3.906   4.015  11.909  1.0260 -0.0800 -0.2494
26256SOL    HW287547   3.875   3.882  11.844 -2.5207  1.5780 -2.2313
26257SOL     OW87548  12.530   7.852   8.575 -0.0109 -0.0256 -0.4619
26257SOL    HW187549  12.551   7.890   8.490 -3.5032  0.1220 -1.4433
26257SOL    HW287550  12.463   7.910   8.611 -0.7791 -1.7142  0.9884
26258SOL     OW87551   2.935   8.821   5.297  0.2311 -0.4607 -0.4151
26258SOL    HW187552   2.938   8.893   5.359  0.7442  0.1445 -1.1267
26258SOL    HW287553   2.857   8.771   5.322 -0.9657  1.1468 -0.7945
26259SOL     OW87554   5.833   8.876   1.164  0.4471  0.2170 -0.0402
26259SOL    HW187555   5.902   8.860   1.229  1.1556  1.1337 -0.5386
26259SOL    HW287556   5.791   8.957   1.194 -0.0841 -0.0645 -0.0189
26260SOL     OW87557   9.037   8.368   1.374  0.6641  0.2543  0.2593
26260SOL    HW187558   9.040   8.287   1.425 -0.5770  0.4087  0.6005
26260SOL    HW287559   9.108   8.358   1.309  0.9904 -0.7797  0.7597
26261SOL     OW87560   1.925  12.580   1.222  0.6262  0.1464 -0.2352
26261SOL    HW187561   1.952  12.670   1.241 -1.0287  0.0928  3.2260
26261SOL    HW287562   2.004  12.537   1.190  1.7062  2.5598 -1.0507
26262SOL     OW87563  11.497  12.245   6.357  0.5464  0.2226  0.1197
26262SOL    HW187564  11.507  12.311   6.425 -1.9378  0.6709  0.1280
26262SOL    HW287565  11.405  12.250   6.331  0.7207 -1.9584 -1.2039
26263SOL     OW87566   7.449  11.545   6.336  0.0272 -0.0287 -0.4356
26263SOL    HW187567   7.507  11.618   6.359  0.5094 -0.3443 -0.6209
26263SOL    HW287568   7.361  11.582   6.339  0.0987  0.0560  1.4602
26264SOL     OW87569   7.325   0.829   9.577 -0.5668  0.5159 -0.1263
26264SOL    HW187570   7.400   0.803   9.524 -0.6157  0.2162 -0.0535
26264SOL    HW287571   7.353   0.814   9.667 -0.2623  1.6060 -0.0293
26265SOL     OW87572   9.523   3.848  12.607  0.0548 -0.1542  0.2580
26265SOL    HW187573   9.576   3.917  12.646 -0.0332 -0.0712  0.2329
26265SOL    HW287574   9.577   3.769  12.613  0.8095  0.2091 -1.1146
26266SOL     OW87575   5.208   0.169   5.195 -0.4483 -0.3966 -1.0747
26266SOL    HW187576   5.153   0.103   5.153 -0.6932 -1.4287  0.7901
26266SOL    HW287577   5.263   0.119   5.256 -1.0721  1.1625  0.8489
26267SOL     OW87578   8.084   2.814  12.142  0.3738 -0.0301 -0.0074
26267SOL    HW187579   8.112   2.899  12.174 -0.7223  0.1476  0.5137
26267SOL    HW287580   8.157   2.756  12.161 -0.3907 -0.0636  3.3893
26268SOL     OW87581   4.334   9.396   7.958  0.5284  0.1361 -0.2681
26268SOL    HW187582   4.296   9.479   7.987  1.3251 -0.0125  1.2958
26268SOL    HW287583   4.424   9.398   7.989  0.6051 -1.2567 -0.3282
26269SOL     OW87584   3.529   6.994   9.472 -0.2410 -0.3785  0.0461
26269SOL    HW187585   3.450   7.008   9.522 -2.2539 -0.1649 -2.9212
26269SOL    HW287586   3.541   6.899   9.471 -0.6726 -0.4336  0.2208
26270SOL     OW87587   0.430   9.822   3.950 -0.2381 -0.5000 -0.0431
26270SOL    HW187588   0.462   9.747   3.900 -1.4676 -0.0073 -1.6298
26270SOL    HW287589   0.471   9.812   4.036  1.7928 -1.4861 -1.0534
26271SOL     OW87590   1.012   7.881  10.458  0.0301 -0.3708  0.0904
26271SOL    HW187591   1.024   7.938  10.534 -0.2084 -1.2136  0.7752
26271SOL    HW287592   1.090   7.895  10.405  0.9014 -0.8284  1.2028
26272SOL     OW87593   9.886  12.049  11.712  0.4651  0.0309 -0.2601
26272SOL    HW187594   9.950  12.105  11.669 -0.7892  0.5894 -1.4667
26272SOL    HW287595   9.887  11.968  11.661  0.1121  0.0838 -0.3480
26273SOL     OW87596   1.420   2.714  12.374  0.4827  0.2604  0.3273
26273SOL    HW187597   1.491   2.651  12.385 -0.4918 -1.0320 -0.4798
26273SOL    HW287598   1.378   2.719  12.459  0.2833 -0.5488  0.2809
26274SOL     OW87599   6.208   4.226   9.805 -0.0089  0.8431  0.0832
26274SOL    HW187600   6.188   4.189   9.890  0.3883  0.0549 -0.1596
26274SOL    HW287601   6.175   4.162   9.742  2.5295 -0.1887 -0.3310
26275SOL     OW87602   7.282   6.976   5.452 -0.8515  0.2333  0.6198
26275SOL    HW187603   7.331   7.058   5.460 -0.8699  0.5684 -1.9315
26275SOL    HW287604   7.344   6.915   5.411 -1.3625 -0.5485  0.9830
26276SOL     OW87605  12.102   1.785   6.678  0.3927 -0.4848  0.1384
26276SOL    HW187606  12.077   1.731   6.603 -0.3126  1.2587 -0.9469
26276SOL    HW287607  12.197   1.786   6.677  0.3963 -1.0664 -0.2949
26277SOL     OW87608   1.585   5.305   8.852  0.3851  0.3007  0.1275
26277SOL    HW187609   1.665   5.331   8.898  0.5110 -0.0858  0.1247
26277SOL    HW287610   1.518   5.304   8.920  0.4718  0.1971  0.2111
26278SOL     OW87611   0.695   6.721   6.165  0.2661 -0.1128 -0.1149
26278SOL    HW187612   0.730   6.697   6.251  2.0147 -0.1936 -0.8053
26278SOL    HW287613   0.600   6.708   6.173  0.4691 -0.8152  1.5696
26279SOL     OW87614   8.651   9.684   0.010 -0.1747 -0.1207 -0.0797
26279SOL    HW187615   8.680   9.597   0.035 -0.0365 -0.0360  0.0564
26279SOL    HW287616   8.709   9.744   0.058 -1.0883  0.0609  0.8393
26280SOL     OW87617   7.298   0.342   1.619  0.0011 -0.0269 -0.3096
26280SOL    HW187618   7.388   0.360   1.588 -0.0165 -0.2441 -0.4880
26280SOL    HW287619   7.307   0.331   1.713  0.3715 -1.3587 -0.4844
26281SOL     OW87620   0.210  10.190   2.545 -0.0143 -0.4322 -0.4662
26281SOL    HW187621   0.132  10.137   2.526 -0.5278 -0.0625  0.5264
26281SOL    HW287622   0.194  10.272   2.498 -0.7984  0.0883  0.6479
26282SOL     OW87623   1.370   1.121  11.666 -0.0228 -0.3904  0.2009
26282SOL    HW187624   1.413   1.061  11.604  0.2793  0.1823 -0.1599
26282SOL    HW287625   1.391   1.086  11.752  0.4416 -0.6097  0.0031
26283SOL     OW87626   0.629   3.088  12.066  0.1821  0.0442  0.1223
26283SOL    HW187627   0.628   3.018  12.001 -0.2080 -1.9054  2.0941
26283SOL    HW287628   0.576   3.158  12.028 -0.6532 -1.3245 -1.3230
26284SOL     OW87629   5.594   0.609   8.215 -0.3313 -0.6641 -0.3745
26284SOL    HW187630   5.619   0.695   8.182 -1.3808 -0.0639  0.3256
26284SOL    HW287631   5.676   0.571   8.248  0.1577  0.0310 -0.7677
26285SOL     OW87632   2.196   6.707   7.199 -0.3659  0.2993 -0.1564
26285SOL    HW187633   2.107   6.736   7.179  0.2422  0.3413 -3.3122
26285SOL    HW287634   2.192   6.611   7.191 -0.0621  0.3335 -0.8425
26286SOL     OW87635  10.490  12.239  10.152 -0.4394 -0.0950 -0.2095
26286SOL    HW187636  10.424  12.201  10.211 -0.7097 -1.8613 -1.5627
26286SOL    HW287637  10.509  12.325  10.189 -0.5543 -1.1425  2.4706
26287SOL     OW87638   9.633  10.999   0.220 -0.2832  0.5939 -0.3638
26287SOL    HW187639   9.634  11.094   0.222  0.3918  0.5766  0.1380
26287SOL    HW287640   9.639  10.977   0.127  0.9165  1.0288 -0.3953
26288SOL     OW87641   4.267   8.702   0.868  0.1270 -0.5783  0.0856
26288SOL    HW187642   4.193   8.730   0.923 -1.9838  1.1662 -3.2885
26288SOL    HW287643   4.265   8.606   0.874 -0.6094 -0.5014  2.1965
26289SOL     OW87644   0.874   7.365   2.830 -0.4557 -0.1033  0.8490
26289SOL    HW187645   0.792   7.393   2.789 -0.5122 -0.7936  0.4858
26289SOL    HW287646   0.939   7.375   2.761 -0.4121 -0.5162  0.8299
26290SOL     OW87647   6.501   7.989   4.964  0.0982  0.1411  0.0540
26290SOL    HW187648   6.527   7.926   5.031 -1.1323 -0.6082 -0.1423
26290SOL    HW287649   6.497   8.073   5.010  1.3581  0.0158  0.4077
26291SOL     OW87650   3.339   2.290   1.720  0.0719  0.1288  0.2445
26291SOL    HW187651   3.337   2.313   1.627  1.5069 -1.4218 -0.2058
26291SOL    HW287652   3.271   2.223   1.730 -2.0993  2.2744  0.9759
26292SOL     OW87653   0.066  10.756   9.112  0.4638 -0.7823  0.0613
26292SOL    HW187654   0.108  10.706   9.042 -1.7092 -0.3220 -1.6879
26292SOL    HW287655  -0.000  10.696   9.148 -2.2568  0.6750 -2.1446
26293SOL     OW87656  12.216   2.970   9.751  0.3005  0.4122 -0.1732
26293SOL    HW187657  12.301   2.928   9.750 -0.5205 -1.3801  0.6798
26293SOL    HW287658  12.234   3.062   9.730  2.3985  0.0513 -0.1317
26294SOL     OW87659   3.587   4.611   1.932 -0.2136 -0.0939 -0.4288
26294SOL    HW187660   3.560   4.549   1.864  0.0205 -0.3528 -0.2862
26294SOL    HW287661   3.562   4.569   2.014 -0.2091  0.0782 -0.3384
26295SOL     OW87662   8.993  11.293   7.395  0.3056 -0.0497  0.1987
26295SOL    HW187663   8.984  11.201   7.418 -2.0015 -0.1926 -1.0677
26295SOL    HW287664   8.905  11.329   7.401  0.9688  1.8199 -0.4203
26296SOL     OW87665   4.286  10.652  11.937  0.0916 -0.1967  0.1038
26296SOL    HW187666   4.206  10.652  11.884 -1.4255  0.6603  2.2685
26296SOL    HW287667   4.352  10.689  11.879 -0.9489 -1.2225 -1.8644
26297SOL     OW87668   2.941   8.535   8.948  0.6834  0.4591 -0.4842
26297SOL    HW187669   2.872   8.557   9.011  2.9942 -0.4339  2.6489
26297SOL    HW287670   2.906   8.461   8.899 -0.7652  0.2964  0.7012
26298SOL     OW87671   5.698   8.597   3.787  0.0532 -0.1545  0.3327
26298SOL    HW187672   5.736   8.682   3.809 -0.6300  0.0644  0.7024
26298SOL    HW287673   5.629   8.584   3.852 -2.7458  0.9685 -2.1713
26299SOL     OW87674   3.752  11.061  11.498 -0.1545 -0.2925  0.2519
26299SOL    HW187675   3.845  11.081  11.489 -0.2901  0.5984  0.6617
26299SOL    HW287676   3.741  11.040  11.591 -0.5261  0.6266  0.4325
26300SOL     OW87677   6.612   6.319  10.762  0.1738 -0.2966  0.1209
26300SOL    HW187678   6.646   6.254  10.700  1.2816  0.1379  0.2529
26300SOL    HW287679   6.535   6.356  10.718 -0.3042 -1.4813 -0.0726
26301SOL     OW87680   4.444   4.509  10.766 -0.3480 -0.0013  0.0396
26301SOL    HW187681   4.528   4.475  10.797 -0.6305 -1.5623 -0.7651
26301SOL    HW287682   4.401   4.544  10.844  0.4911 -0.4238  0.7034
26302SOL     OW87683   4.178   4.103   2.094 -0.2609  0.2152 -0.0248
26302SOL    HW187684   4.226   4.020   2.095  1.2657  0.9780 -2.5336
26302SOL    HW287685   4.243   4.169   2.115 -0.0140  1.2696 -3.4938
26303SOL     OW87686   9.899  11.179  12.487  0.0727 -0.0499  0.1115
26303SOL    HW187687   9.883  11.248  12.423 -0.2831 -0.1418  0.1006
26303SOL    HW287688   9.980  11.205  12.531  1.5372 -1.0712 -1.8475
26304SOL     OW87689   6.793   4.116   4.725 -0.2477 -0.6335  0.2236
26304SOL    HW187690   6.819   4.208   4.728 -0.7460 -0.4908  0.2640
26304SOL    HW287691   6.764   4.096   4.814 -1.0967 -0.5387 -0.0205
26305SOL     OW87692   2.504   6.012   4.105 -0.1815  0.1439  0.2511
26305SOL    HW187693   2.498   6.043   4.014 -0.2160 -0.1127  0.1655
26305SOL    HW287694   2.438   5.944   4.111 -1.0054  0.9821  0.8118
26306SOL     OW87695   8.112  10.389   9.071 -0.0148  0.1991  0.1459
26306SOL    HW187696   8.163  10.470   9.074  0.4925 -0.1350  1.7653
26306SOL    HW287697   8.176  10.323   9.044  0.0853  0.0204  0.7928
26307SOL     OW87698   0.231   6.938  10.617 -0.0421  0.2872  0.2603
26307SOL    HW187699   0.316   6.901  10.639  0.8115  1.7562 -0.4561
26307SOL    HW287700   0.244   6.983  10.533 -1.2530  1.3863  0.6192
26308SOL     OW87701   4.850   6.225   0.927 -0.1525 -0.4518  0.0910
26308SOL    HW187702   4.941   6.197   0.920  0.1066  0.4385 -0.1870
26308SOL    HW287703   4.854   6.318   0.951 -0.9304  0.1827 -1.9821
26309SOL     OW87704   7.223   1.140   2.682 -0.8994 -1.0220  0.4066
26309SOL    HW187705   7.174   1.176   2.608  0.5252  1.0185  0.3689
26309SOL    HW287706   7.156   1.108   2.742 -2.1963  0.2169 -0.3252
26310SOL     OW87707  10.406   1.092   3.749 -0.0252 -0.6672 -0.3191
26310SOL    HW187708  10.336   1.032   3.775  0.1837 -1.1441 -0.8529
26310SOL    HW287709  10.424   1.070   3.658  1.6765 -1.3926  0.1576
26311SOL     OW87710   0.960  11.970   9.390 -0.0978  0.7536 -0.2694
26311SOL    HW187711   0.882  11.919   9.372  0.9309 -0.4175 -1.6618
26311SOL    HW287712   1.018  11.910   9.437  0.9352  0.7632 -1.4781
26312SOL     OW87713   0.044   6.174   1.022  0.1538  0.0412 -0.0168
26312SOL    HW187714   0.001   6.117   1.086 -0.2409 -1.6684 -1.7219
26312SOL    HW287715   0.008   6.261   1.039 -0.7901 -0.5871  1.3279
26313SOL     OW87716   4.255   0.215   3.190 -0.4092  0.1792 -0.4462
26313SOL    HW187717   4.234   0.121   3.195  2.4407 -0.5158  2.2481
26313SOL    HW287718   4.238   0.248   3.279  1.0961  1.5534 -0.6232
26314SOL     OW87719  11.937   6.389   4.274  0.0936  0.0610 -0.0354
26314SOL    HW187720  11.858   6.418   4.319 -0.6659  0.8454 -1.7530
26314SOL    HW287721  11.977   6.470   4.241 -0.7641 -0.5367 -2.8466
26315SOL     OW87722   8.435   2.152  10.176 -0.1595  0.3069 -0.0285
26315SOL    HW187723   8.430   2.058  10.193  0.9019 -0.2374 -2.3254
26315SOL    HW287724   8.364   2.169  10.114 -0.3919  1.0570  0.4268
26316SOL     OW87725  11.854   3.946   7.517  0.6721  0.6088  0.1258
26316SOL    HW187726  11.942   3.912   7.535  0.7581  0.8447  0.1480
26316SOL    HW287727  11.797   3.891   7.571  0.8626  0.8481  0.5838
26317SOL     OW87728   8.149  11.532   3.302  0.0348  0.1699  0.4602
26317SOL    HW187729   8.157  11.476   3.380 -0.0649  0.8829  0.9912
26317SOL    HW287730   8.207  11.606   3.320  1.5310 -0.5861 -1.0002
26318SOL     OW87731  11.782   3.378   3.684 -0.1648  0.8972 -0.2112
26318SOL    HW187732  11.723   3.452   3.700 -0.9912  0.2291 -0.1225
26318SOL    HW287733  11.789   3.333   3.769  0.1724  0.7479 -0.3132
26319SOL     OW87734   7.928   3.645   6.199 -0.1854  0.0649 -0.5188
26319SOL    HW187735   7.967   3.597   6.273 -2.1696  0.7881  1.0976
26319SOL    HW287736   7.906   3.577   6.136 -0.8557 -0.9218  0.7274
26320SOL     OW87737   4.899   3.059   6.908 -0.4392 -0.4719  0.6487
26320SOL    HW187738   4.979   3.094   6.869 -0.5656 -1.6901 -0.7803
26320SOL    HW287739   4.925   2.974   6.944 -0.8958 -0.4562  1.0335
26321SOL     OW87740  10.638   9.468   1.825 -0.6259 -0.1751 -0.1701
26321SOL    HW187741  10.660   9.560   1.839 -0.6043  0.0193 -1.3865
26321SOL    HW287742  10.560   9.469   1.769  0.4231 -0.8657 -1.7300
26322SOL     OW87743   8.605   1.594   4.275  0.1854 -0.1002  0.1300
26322SOL    HW187744   8.693   1.566   4.301  0.1003  0.0880  0.6424
26322SOL    HW287745   8.585   1.666   4.335 -0.0164  0.3611 -0.4847
26323SOL     OW87746   2.745   4.078   5.171 -0.0466 -0.3639 -0.4843
26323SOL    HW187747   2.662   4.090   5.124 -0.3536  2.3851  0.5850
26323SOL    HW287748   2.812   4.108   5.109 -0.1151 -0.0898 -0.4278
26324SOL     OW87749   3.206  11.011   6.995  0.0859  0.6003  0.8104
26324SOL    HW187750   3.237  11.099   7.016  2.1243  0.0689  0.2517
26324SOL    HW287751   3.174  11.018   6.905  2.1344  0.3746  0.0209
26325SOL     OW87752   8.171   3.630   2.249 -0.3944 -0.0407 -0.7917
26325SOL    HW187753   8.102   3.697   2.258 -1.3414 -0.9868 -0.7466
26325SOL    HW287754   8.173   3.587   2.334 -0.8158 -1.0147 -1.2634
26326SOL     OW87755   3.972   1.260   7.353 -0.0065 -0.6642 -0.3518
26326SOL    HW187756   3.951   1.173   7.386  0.9151 -0.9325 -0.4398
26326SOL    HW287757   4.025   1.299   7.423  2.0326 -1.2646 -1.4838
26327SOL     OW87758   8.655   7.045   3.937  0.1663 -0.1152 -0.0585
26327SOL    HW187759   8.708   7.050   4.017  0.1637  0.6355 -0.0959
26327SOL    HW287760   8.706   7.092   3.871  0.4539 -1.2540 -0.6734
26328SOL     OW87761   2.865  11.384  12.532  0.5301  0.2325 -0.5124
26328SOL    HW187762   2.926  11.450  12.499  1.6887 -0.7514 -0.4029
26328SOL    HW287763   2.909  11.301  12.515 -0.3417 -0.4516  0.4959
26329SOL     OW87764   1.691   8.422   8.043  0.2269 -0.5658 -0.5615
26329SOL    HW187765   1.679   8.376   8.126 -0.0625 -1.3403 -1.0237
26329SOL    HW287766   1.623   8.387   7.986 -3.1479  3.6023  0.3185
26330SOL     OW87767   2.197   6.780   3.779 -0.5774  0.4578 -0.4085
26330SOL    HW187768   2.178   6.870   3.806  0.7379  0.0628  2.1146
26330SOL    HW287769   2.177   6.779   3.685 -1.3088  3.1624 -0.3820
26331SOL     OW87770   9.131   7.852   3.126 -0.0941  0.5015 -0.0513
26331SOL    HW187771   9.136   7.783   3.193  1.3680  0.5631 -0.0589
26331SOL    HW287772   9.222   7.870   3.104 -0.5185  1.1383 -1.4027
26332SOL     OW87773   3.453   0.453   6.201 -0.1125 -0.6577 -0.0328
26332SOL    HW187774   3.435   0.546   6.212 -0.7650 -0.5097 -2.0045
26332SOL    HW287775   3.519   0.450   6.132  1.4745 -1.6129  1.4248
26333SOL     OW87776   8.903   8.265   4.485 -0.0019  0.1579  0.2732
26333SOL    HW187777   8.969   8.222   4.431 -2.4463 -1.4499 -1.6705
26333SOL    HW287778   8.882   8.200   4.552 -0.8147 -0.0300 -0.1615
26334SOL     OW87779   8.631  12.399   9.621  0.0016 -0.0413  0.4838
26334SOL    HW187780   8.696  12.329   9.624  0.4755  0.3541 -0.2798
26334SOL    HW287781   8.566  12.374   9.687  0.1611 -1.1870  0.2227
26335SOL     OW87782  10.639  12.203   6.526 -0.2486  0.2926 -1.0564
26335SOL    HW187783  10.554  12.158   6.533  0.0848 -0.1582  0.5190
26335SOL    HW287784  10.689  12.150   6.464  0.0575 -1.4502  0.6004
26336SOL     OW87785  11.499   1.511   3.623  0.0971 -0.0086 -0.0887
26336SOL    HW187786  11.431   1.566   3.586 -0.3523 -0.4273  0.1011
26336SOL    HW287787  11.475   1.422   3.598 -0.4605 -0.3567  1.5321
26337SOL     OW87788   8.802   2.921   6.505  0.1663 -0.2310 -0.1277
26337SOL    HW187789   8.870   2.968   6.554  0.4541 -0.4969 -0.2710
26337SOL    HW287790   8.828   2.930   6.414 -0.2134  0.0138 -0.2137
26338SOL     OW87791   7.697   3.347  10.752  0.4717 -0.1842  0.0533
26338SOL    HW187792   7.788   3.322  10.765  0.5634 -0.3720 -0.8485
26338SOL    HW287793   7.695   3.441  10.767  0.7985 -0.1941  0.1662
26339SOL     OW87794   8.352   2.846   6.839  0.0556 -0.1556  0.3662
26339SOL    HW187795   8.328   2.824   6.929  1.6927 -1.1004  0.6171
26339SOL    HW287796   8.307   2.782   6.785 -2.3062  1.4359  0.3003
26340SOL     OW87797   2.806   6.104  10.392  0.1197 -0.3365  0.2721
26340SOL    HW187798   2.758   6.052  10.456 -0.2031  0.2359  0.5091
26340SOL    HW287799   2.740   6.161  10.353  0.5439  0.2399  0.3736
26341SOL     OW87800   5.546   0.312   2.281  0.4100  0.1213  0.3919
26341SOL    HW187801   5.525   0.223   2.251 -0.6737  0.5929 -0.3056
26341SOL    HW287802   5.549   0.304   2.377 -1.8300 -0.2851  0.5002
26342SOL     OW87803   7.422  12.414   4.874  0.5428  0.3410 -0.0396
26342SOL    HW187804   7.392  12.324   4.871  0.6544  0.1511  2.3559
26342SOL    HW287805   7.508  12.412   4.832 -0.3359 -0.1849 -1.9414
26343SOL     OW87806   6.142   9.482   5.701  0.4201 -0.1764  0.1173
26343SOL    HW187807   6.080   9.487   5.628  0.0239  0.9362  0.5062
26343SOL    HW287808   6.101   9.422   5.763 -0.7049  1.1877  0.7437
26344SOL     OW87809  10.515   9.986   7.605  0.1652  0.3331  0.5731
26344SOL    HW187810  10.608  10.003   7.622 -0.2168  1.9192  1.2309
26344SOL    HW287811  10.480   9.960   7.690  0.3061 -1.9440 -0.0030
26345SOL     OW87812   3.141   5.529   4.300  0.4281 -0.2008  0.1960
26345SOL    HW187813   3.159   5.621   4.320 -1.5959  0.1784  0.4530
26345SOL    HW287814   3.110   5.530   4.209 -2.0018 -0.2105  0.9425
26346SOL     OW87815  12.123   9.454   8.358 -0.6487  0.3634  0.2501
26346SOL    HW187816  12.087   9.540   8.340 -1.2956 -0.4605 -3.2819
26346SOL    HW287817  12.213   9.470   8.384 -0.7017  2.1386 -0.5097
26347SOL     OW87818  12.420  12.171   6.438  0.0952  0.6401 -0.3407
26347SOL    HW187819  12.327  12.152   6.424 -0.3435  1.2380  1.4108
26347SOL    HW287820  12.466  12.121   6.371 -1.3322 -1.6561  0.2863
26348SOL     OW87821   4.354   6.676  12.144 -0.6313 -0.1784  0.2903
26348SOL    HW187822   4.420   6.681  12.074  1.1535  0.6212  1.9282
26348SOL    HW287823   4.353   6.584  12.169  0.0021 -0.1708  0.3600
26349SOL     OW87824   2.269   9.481   3.151  0.5694  0.5346  0.5953
26349SOL    HW187825   2.192   9.436   3.117  0.6283 -0.4924  1.7204
26349SOL    HW287826   2.300   9.536   3.079 -0.0655 -0.5355 -0.5245
26350SOL     OW87827   8.683  11.285   2.884  0.1152 -0.0417  0.8721
26350SOL    HW187828   8.707  11.369   2.925 -1.2165  1.0490 -0.4508
26350SOL    HW287829   8.587  11.287   2.883  0.0871 -0.3722 -1.5154
26351SOL     OW87830   6.716   0.579   9.882  0.2624 -0.4898  0.1848
26351SOL    HW187831   6.628   0.552   9.854  0.6257 -1.1913 -0.3103
26351SOL    HW287832   6.703   0.614   9.970 -0.5792 -0.1817 -0.0440
26352SOL     OW87833   9.877   7.489   7.032 -0.0508  0.2680  0.4367
26352SOL    HW187834   9.903   7.405   6.994 -0.6384  0.2793 -0.0027
26352SOL    HW287835   9.782   7.491   7.024 -0.2230  0.1957  2.0839
26353SOL     OW87836   7.091   5.666   4.089 -0.2598 -0.1264  0.0496
26353SOL    HW187837   6.998   5.686   4.080 -0.3107 -0.2723  0.2557
26353SOL    HW287838   7.132   5.709   4.013 -0.9829 -3.4825 -2.4888
26354SOL     OW87839  11.621   4.294   2.246 -0.5185 -0.1478 -0.4625
26354SOL    HW187840  11.662   4.378   2.228  0.6578 -0.7399 -0.6256
26354SOL    HW287841  11.570   4.274   2.167 -0.4242  0.1826 -0.6050
26355SOL     OW87842   5.400  12.558   4.292 -0.2435  0.0306 -0.1151
26355SOL    HW187843   5.440  12.634   4.250 -2.8237 -0.0710 -3.0878
26355SOL    HW287844   5.345  12.519   4.225 -1.7111 -2.4914  2.3286
26356SOL     OW87845   4.114   7.507   4.138 -0.0064 -0.0814 -0.0383
26356SOL    HW187846   4.151   7.419   4.150  2.1825  0.9723  1.5109
26356SOL    HW287847   4.179   7.553   4.085  0.6158  1.5693  2.0262
26357SOL     OW87848   5.638   1.725   8.713  0.2758 -0.1938  0.3233
26357SOL    HW187849   5.582   1.692   8.783  2.2534 -0.2190  1.9911
26357SOL    HW287850   5.589   1.707   8.633 -1.4470 -1.4802  1.5760
26358SOL     OW87851   3.547   5.554   3.117  0.5624  0.1339  0.3719
26358SOL    HW187852   3.642   5.561   3.121  0.6199 -0.2546 -0.3591
26358SOL    HW287853   3.525   5.561   3.024 -0.0807 -0.3336  0.4772
26359SOL     OW87854   2.277  11.279  10.591  0.4483  0.1455 -0.6536
26359SOL    HW187855   2.238  11.250  10.508 -1.7284  0.5831  0.1523
26359SOL    HW287856   2.280  11.374  10.584  0.1301  0.1915 -0.1905
26360SOL     OW87857   2.778   4.589   7.835  0.0860 -0.1092 -0.1487
26360SOL    HW187858   2.786   4.507   7.884  0.1080  0.1510  0.2898
26360SOL    HW287859   2.687   4.616   7.847  0.0937 -0.0401 -0.2443
26361SOL     OW87860   3.750  10.184  10.117 -0.3086 -0.7038  0.0377
26361SOL    HW187861   3.685  10.253  10.102  0.6675  0.2860  0.2238
26361SOL    HW287862   3.817  10.200  10.051  0.4562 -0.8108  0.7782
26362SOL     OW87863   5.635   1.317   4.967  0.0970  0.2630 -0.1699
26362SOL    HW187864   5.646   1.256   5.040 -0.0240  1.0329  0.5117
26362SOL    HW287865   5.596   1.265   4.898 -1.6824 -0.0361  0.9975
26363SOL     OW87866   2.602   7.780   6.969  0.2419 -0.2071 -0.1713
26363SOL    HW187867   2.655   7.851   7.005  0.4246 -0.1039 -0.6436
26363SOL    HW287868   2.639   7.763   6.883 -0.2871 -0.3585 -0.3729
26364SOL     OW87869   1.504   2.581  11.040  0.7841 -0.5694 -0.1246
26364SOL    HW187870   1.474   2.668  11.065  1.8176 -0.0026 -0.7652
26364SOL    HW287871   1.551   2.549  11.117 -1.2067 -1.3807  0.8093
26365SOL     OW87872  10.333   2.726   9.428 -0.3302  0.6978 -0.2999
26365SOL    HW187873  10.325   2.630   9.425 -0.5728  0.7117 -0.1730
26365SOL    HW287874  10.269   2.752   9.494 -0.9194  1.0251 -0.9962
26366SOL     OW87875   5.573   6.036   3.319 -0.1912  0.1308 -0.1592
26366SOL    HW187876   5.488   5.993   3.324  0.4758 -1.3831 -1.2423
26366SOL    HW287877   5.604   6.019   3.230  1.8089 -0.4635  0.5954
26367SOL     OW87878  10.631  10.806   3.196 -0.4211  0.4205 -0.1915
26367SOL    HW187879  10.606  10.884   3.246 -1.0371 -0.3521  0.7476
26367SOL    HW287880  10.553  10.750   3.198  0.6126 -1.0961  0.9161
26368SOL     OW87881   1.625   8.131   4.604  0.1058 -0.0037 -0.3027
26368SOL    HW187882   1.630   8.217   4.645 -1.8737 -0.1705  0.4151
26368SOL    HW287883   1.617   8.149   4.510 -0.8078  0.6394 -0.1112
26369SOL     OW87884   6.726   9.904   1.185  0.5143 -0.1192 -0.7912
26369SOL    HW187885   6.807   9.938   1.222  0.8713  1.3481 -2.7662
26369SOL    HW287886   6.741   9.809   1.179  1.2515 -0.1413  0.7054
26370SOL     OW87887   8.363   2.452   6.269 -0.1923  0.3190 -0.1021
26370SOL    HW187888   8.450   2.415   6.258 -0.0347  0.1861  1.3485
26370SOL    HW287889   8.307   2.399   6.212  0.7415  0.7384 -1.4406
26371SOL     OW87890   0.506  12.518   5.102  0.7276  0.0168  0.9384
26371SOL    HW187891   0.434  12.456   5.091  1.6923 -0.6396 -4.8419
26371SOL    HW287892   0.576  12.466   5.141  0.4087 -1.6410 -0.5687
26372SOL     OW87893   4.890   0.165   9.235 -0.0629 -0.1745 -0.4011
26372SOL    HW187894   4.841   0.157   9.153 -1.1106  0.2630  0.1656
26372SOL    HW287895   4.935   0.249   9.227 -1.3915  0.6127  0.0896
26373SOL     OW87896  11.510   1.957  12.138  0.0857 -0.0725  0.2328
26373SOL    HW187897  11.517   1.934  12.230  1.2028  0.2711  0.2460
26373SOL    HW287898  11.417   1.975  12.125 -0.0707 -0.0340  1.3124
26374SOL     OW87899   1.631   6.226   6.932  0.1493 -0.0989 -0.7805
26374SOL    HW187900   1.684   6.299   6.900 -1.2070  1.1236 -0.3755
26374SOL    HW287901   1.541   6.257   6.924 -0.4124 -1.2979  0.4441
26375SOL     OW87902   9.981   9.460   1.898  0.6678 -0.2053  0.1422
26375SOL    HW187903  10.007   9.385   1.951  0.2592  1.0875  2.2767
26375SOL    HW287904   9.928   9.514   1.956 -0.6517  0.8403 -1.9050
26376SOL     OW87905   2.693   0.512   9.915  0.2095 -0.3491  0.0969
26376SOL    HW187906   2.728   0.503   9.827  0.4989 -1.0677  0.2726
26376SOL    HW287907   2.709   0.426   9.956  0.3342  0.0588  0.9338
26377SOL     OW87908  10.988  11.752   5.749  0.4500 -0.0522  0.3433
26377SOL    HW187909  11.078  11.766   5.779  0.9426 -2.5374  0.2538
26377SOL    HW287910  10.995  11.685   5.681 -1.3658  0.4794 -0.4225
26378SOL     OW87911   3.672   4.114   1.469 -0.3557  0.0500  0.3007
26378SOL    HW187912   3.623   4.076   1.396 -0.6388 -0.5135  0.7680
26378SOL    HW287913   3.729   4.043   1.499  1.1564  0.8603 -0.5712
26379SOL     OW87914   6.910  10.549   1.726  0.5664 -0.1144  0.4544
26379SOL    HW187915   6.951  10.477   1.774 -1.8605 -3.0171 -1.4409
26379SOL    HW287916   6.840  10.578   1.784  2.0845  1.4459  1.5961
26380SOL     OW87917   3.922   7.953   3.356  0.1223 -0.5125 -0.0926
26380SOL    HW187918   3.890   8.031   3.312 -1.5163 -1.1222 -0.0436
26380SOL    HW287919   3.955   7.985   3.440 -0.9964  0.0906  0.1411
26381SOL     OW87920   8.080   3.185  11.288 -0.2793  0.2291 -0.6215
26381SOL    HW187921   8.004   3.236  11.260 -0.9305 -0.4654 -0.1600
26381SOL    HW287922   8.139   3.184  11.212 -0.2007  1.7467 -0.6008
26382SOL     OW87923   1.413   5.341   8.266  0.2169  0.3072  0.4714
26382SOL    HW187924   1.382   5.387   8.344 -0.5812  1.3815 -0.4455
26382SOL    HW287925   1.336   5.295   8.233 -0.0631  1.6737 -0.9111
26383SOL     OW87926   0.230  10.624  12.339 -0.7317 -0.2998 -0.1455
26383SOL    HW187927   0.204  10.674  12.262 -0.6269 -0.6358 -0.4009
26383SOL    HW287928   0.304  10.571  12.310 -0.5189 -0.2270  0.2599
26384SOL     OW87929   4.711   3.204   0.493 -0.1822 -0.7886  0.1662
26384SOL    HW187930   4.631   3.177   0.538 -0.4024 -2.1272 -0.9436
26384SOL    HW287931   4.778   3.144   0.524  1.2371  2.0547  3.2971
26385SOL     OW87932   1.146   9.742   5.864  0.3102 -0.0739 -0.1514
26385SOL    HW187933   1.194   9.670   5.903 -0.4218 -0.1527  0.6263
26385SOL    HW287934   1.165   9.736   5.770  0.0076 -1.4721 -0.1374
26386SOL     OW87935   2.714   8.679   5.377 -0.4030 -0.4126 -0.5059
26386SOL    HW187936   2.625   8.653   5.356 -0.3336 -0.4254 -0.7943
26386SOL    HW287937   2.730   8.642   5.464 -1.2340  0.9858  0.2658
26387SOL     OW87938   1.237   1.205  12.516 -0.8502 -0.3881 -0.0141
26387SOL    HW187939   1.266   1.158  12.595 -0.5678 -0.0881  0.0624
26387SOL    HW287940   1.156   1.161  12.490 -1.5449  0.1966  1.0816
26388SOL     OW87941   4.279   6.345   6.573  0.1622  0.1682 -0.6415
26388SOL    HW187942   4.347   6.407   6.601  1.4553 -2.2744  2.1794
26388SOL    HW287943   4.326   6.283   6.517  1.7183 -3.7820  4.2464
26389SOL     OW87944   1.529   3.395   6.088  0.5738 -0.2270  0.0466
26389SOL    HW187945   1.594   3.429   6.148  0.1357  1.2245 -0.2614
26389SOL    HW287946   1.462   3.356   6.145 -0.4567  2.2251  0.6301
26390SOL     OW87947   9.269   7.721   3.858  0.5040 -0.2953 -0.4673
26390SOL    HW187948   9.209   7.741   3.930 -0.1975  0.6527 -1.2902
26390SOL    HW287949   9.343   7.781   3.871  0.6579 -0.5345 -0.2148
26391SOL     OW87950   9.269   6.572  10.545  0.0879 -0.6515 -0.4584
26391SOL    HW187951   9.283   6.509  10.474 -1.2553  0.4036 -1.7298
26391SOL    HW287952   9.352   6.620  10.552  0.1428 -0.5663 -1.5471
26392SOL     OW87953   9.953   4.099   6.260  0.1480 -0.1622 -0.2585
26392SOL    HW187954   9.956   4.191   6.284 -0.3247  0.3577 -2.0738
26392SOL    HW287955  10.039   4.065   6.283 -0.2022  0.2582  2.0018
26393SOL     OW87956   8.808  12.108   3.053 -0.5477  0.6261 -0.6830
26393SOL    HW187957   8.857  12.066   2.982  0.2965  0.4879 -0.0283
26393SOL    HW287958   8.716  12.096   3.028 -0.2835  2.1171 -2.6381
26394SOL     OW87959   3.075  12.404  11.157 -0.3884  0.3552  0.3327
26394SOL    HW187960   3.111  12.320  11.186  2.1343  1.3485  0.2531
26394SOL    HW287961   3.035  12.385  11.072 -0.0190 -0.7825  0.4015
26395SOL     OW87962   3.978   2.229  11.644 -0.1951 -0.4173  0.6776
26395SOL    HW187963   4.046   2.285  11.606 -0.7750 -0.4429 -0.4495
26395SOL    HW287964   4.014   2.201  11.728  1.3579 -0.7021 -0.0342
26396SOL     OW87965   2.897   8.981  10.437 -0.5167 -0.0750  0.0292
26396SOL    HW187966   2.989   9.003  10.448 -0.4062 -0.1131 -0.7736
26396SOL    HW287967   2.850   9.060  10.464 -0.3283 -0.5291  1.8239
26397SOL     OW87968   4.519   4.287   6.112 -0.0793  0.1777 -0.0387
26397SOL    HW187969   4.581   4.356   6.134 -1.2846  0.8444  1.4130
26397SOL    HW287970   4.479   4.263   6.195 -2.4920  0.4734 -1.0294
26398SOL     OW87971   2.538   2.416   4.371  0.1457  0.1597 -0.4398
26398SOL    HW187972   2.522   2.322   4.366 -0.1955  0.0543  1.6081
26398SOL    HW287973   2.458   2.452   4.408  0.1875  1.3125 -1.4048
26399SOL     OW87974   1.136   2.204  11.931  0.2318  0.2850 -0.0355
26399SOL    HW187975   1.116   2.122  11.977  0.6239 -0.3744 -0.9972
26399SOL    HW287976   1.085   2.270  11.976 -0.7353 -0.6356  0.2640
26400SOL     OW87977   1.637   2.124   7.932  0.6725  0.0703 -0.5099
26400SOL    HW187978   1.563   2.121   7.993  1.1345  0.5481  0.0848
26400SOL    HW287979   1.607   2.073   7.857 -0.2521  0.2342 -0.2734
26401SOL     OW87980   0.738   2.358   2.592  0.7688 -0.2302  0.4523
26401SOL    HW187981   0.782   2.360   2.507  0.0252 -1.1028  0.0218
26401SOL    HW287982   0.652   2.396   2.575 -0.4038 -2.8265  0.1426
26402SOL     OW87983   0.126   9.694   5.880 -0.5272  0.0416 -0.1422
26402SOL    HW187984   0.204   9.749   5.889  0.7395 -1.6923 -0.0041
26402SOL    HW287985   0.146   9.616   5.933 -1.5004 -1.3236 -1.6923
26403SOL     OW87986  11.965  12.342  11.546  0.1753 -0.2434  0.0380
26403SOL    HW187987  12.001  12.272  11.492 -0.3616 -0.4598 -0.0426
26403SOL    HW287988  11.896  12.380  11.493  0.4309  0.3191  0.1033
26404SOL     OW87989   2.507  10.077   7.156  0.4242  0.3112 -0.0411
26404SOL    HW187990   2.598  10.093   7.134  1.1789 -2.3390  0.7321
26404SOL    HW287991   2.469  10.164   7.169  2.2553  1.5657 -2.4327
26405SOL     OW87992   6.962   7.401   7.427 -0.6918  0.1284  0.5883
26405SOL    HW187993   6.966   7.497   7.437 -0.8736  0.4473 -1.7178
26405SOL    HW287994   7.036   7.369   7.478  1.3034  1.7977 -1.0532
26406SOL     OW87995   6.106   3.702   0.108 -0.0020  0.5240 -0.5249
26406SOL    HW187996   6.058   3.774   0.149  0.9509  0.9125 -0.0694
26406SOL    HW287997   6.189   3.741   0.080  1.9336 -1.0297  2.5742
26407SOL     OW87998  10.454   7.164  11.235 -0.0241  0.7422  0.3424
26407SOL    HW187999  10.462   7.114  11.154 -0.5231  0.4680  0.4591
26407SOL    HW288000  10.360   7.171  11.250  0.0599  1.0105  0.7633
26408SOL     OW88001   4.661  10.320   8.872 -0.5842 -0.8297 -0.3216
26408SOL    HW188002   4.670  10.310   8.967 -0.9153  0.0611 -0.1931
26408SOL    HW288003   4.567  10.317   8.856 -0.6738  1.0507 -0.3688
26409SOL     OW88004   9.188   5.628   8.607 -0.6368 -0.5572  0.1505
26409SOL    HW188005   9.124   5.582   8.551  0.1454 -0.2184 -1.0666
26409SOL    HW288006   9.272   5.614   8.563 -0.2622  1.3884  0.1598
26410SOL     OW88007   3.139   7.530   7.517 -0.2196  0.3790  0.6017
26410SOL    HW188008   3.228   7.515   7.547  0.3630  0.0912 -1.1513
26410SOL    HW288009   3.110   7.609   7.563  0.9561  0.4973  1.1535
26411SOL     OW88010  12.468   2.354  10.371  0.0297  0.4560  0.4549
26411SOL    HW188011  12.503   2.266  10.387  0.4416  0.4161 -0.5872
26411SOL    HW288012  12.430   2.380  10.454 -0.6901 -0.9879  0.6138
26412SOL     OW88013   0.515  11.228   9.226 -0.0866 -0.2487 -0.0773
26412SOL    HW188014   0.466  11.301   9.189  1.9313  1.3543  0.2422
26412SOL    HW288015   0.500  11.235   9.320  0.1009 -0.2536 -0.0469
26413SOL     OW88016   1.244   6.871  11.032  0.2348 -0.1618  0.1567
26413SOL    HW188017   1.262   6.876  10.938  0.7952  0.3886  0.2818
26413SOL    HW288018   1.289   6.792  11.061  0.6910  0.0680  0.0871
26414SOL     OW88019   4.567   1.781   8.693 -0.0763  0.1958  0.2088
26414SOL    HW188020   4.609   1.709   8.648  1.9489  1.3523  0.1446
26414SOL    HW288021   4.504   1.816   8.630  0.7076  0.0417 -0.6694
26415SOL     OW88022   6.771   6.444   7.100  0.4109  0.2055 -0.6526
26415SOL    HW188023   6.712   6.446   7.025 -2.0699  1.1078  1.1702
26415SOL    HW288024   6.795   6.352   7.110 -0.6016 -0.1695 -1.5430
26416SOL     OW88025   3.363   0.714   8.289  0.2323  0.8169 -0.4720
26416SOL    HW188026   3.397   0.767   8.217  1.3668  0.2829 -0.3622
26416SOL    HW288027   3.430   0.721   8.357  0.1010 -0.2408 -0.2192
26417SOL     OW88028   9.343   6.909   7.183 -0.2852 -0.0665  0.3167
26417SOL    HW188029   9.281   6.981   7.193  0.1329  0.5497 -1.2997
26417SOL    HW288030   9.298   6.847   7.125 -1.0496 -1.6435  2.4521
26418SOL     OW88031   8.354   9.380  11.862  0.1888  0.3683 -0.1324
26418SOL    HW188032   8.379   9.473  11.868 -0.2141  0.4014  1.3084
26418SOL    HW288033   8.344   9.352  11.953  4.0627 -2.1332 -0.2379
26419SOL     OW88034   4.330   6.409   7.624 -0.0560  0.1332  0.5183
26419SOL    HW188035   4.391   6.458   7.569  0.3789  1.1446  1.8271
26419SOL    HW288036   4.277   6.477   7.667 -0.8563 -0.6503  0.7999
26420SOL     OW88037   1.685   0.616   4.727  0.0238 -0.0077  0.9599
26420SOL    HW188038   1.732   0.698   4.710 -0.8153  0.3320  0.1814
26420SOL    HW288039   1.678   0.574   4.641  1.8457 -1.7110  1.5590
26421SOL     OW88040  12.190  11.648   2.475  0.6181 -0.2379  0.4090
26421SOL    HW188041  12.197  11.553   2.466  0.3876 -0.4350  1.9187
26421SOL    HW288042  12.151  11.678   2.394  0.4472 -1.4719  0.0200
26422SOL     OW88043  11.720   0.479  11.169  0.1681  0.0798  0.6861
26422SOL    HW188044  11.702   0.438  11.084  0.5895  1.2406  0.0079
26422SOL    HW288045  11.633   0.500  11.204  0.0118  0.6382 -0.0048
26423SOL     OW88046   3.092   8.835   6.302  0.2887 -0.2879  0.2629
26423SOL    HW188047   3.001   8.827   6.273  0.8240 -0.9813 -1.3384
26423SOL    HW288048   3.089   8.813   6.395 -1.1255 -0.7433  0.1346
26424SOL     OW88049  11.243   9.743   0.267  0.1159  0.0098  0.0890
26424SOL    HW188050  11.179   9.672   0.268 -0.3155  0.3897  1.2544
26424SOL    HW288051  11.328   9.699   0.254 -0.5306 -0.2597 -5.8500
26425SOL     OW88052  11.039  11.817   1.505  0.8715  0.7050 -0.3673
26425SOL    HW188053  11.116  11.776   1.545  0.3677  0.2154  0.1030
26425SOL    HW288054  11.013  11.756   1.436  1.5606  1.4054 -1.2826
26426SOL     OW88055   1.286   1.610   2.777 -0.1371 -0.5919  0.4408
26426SOL    HW188056   1.315   1.573   2.860 -1.1448 -0.7954  0.7174
26426SOL    HW288057   1.337   1.691   2.767  0.7120 -1.0802  0.7579
26427SOL     OW88058   6.370   9.879   6.087  0.1425  0.1281 -0.0833
26427SOL    HW188059   6.314   9.954   6.107 -1.2013 -1.1277  1.1017
26427SOL    HW288060   6.323   9.831   6.019  0.4214 -0.2474 -0.0175
26428SOL     OW88061   0.152   5.914   5.169  0.2553  0.2466 -1.2686
26428SOL    HW188062   0.244   5.898   5.148  0.0727 -1.3603 -0.9329
26428SOL    HW288063   0.106   5.901   5.087  0.1455 -0.6541 -1.0700
26429SOL     OW88064  12.197   9.028   5.283  0.2986 -0.2759  0.2854
26429SOL    HW188065  12.137   8.954   5.293 -0.7275  0.5516  0.4226
26429SOL    HW288066  12.281   8.988   5.262 -0.4122 -1.4450 -0.4398
26430SOL     OW88067   5.722   8.132   6.778 -0.2545  0.2062 -0.4086
26430SOL    HW188068   5.674   8.215   6.783 -2.0972 -0.7585 -1.0092
26430SOL    HW288069   5.814   8.157   6.785 -0.8279  2.0610  1.9314
26431SOL     OW88070   2.797   8.357   5.752  0.1515  0.1380 -0.4827
26431SOL    HW188071   2.828   8.364   5.662 -0.8542  1.5032 -0.7589
26431SOL    HW288072   2.767   8.446   5.774  1.2931  0.0718  1.5464
26432SOL     OW88073   1.445   9.803   7.470 -0.1883  0.0229  0.1948
26432SOL    HW188074   1.476   9.744   7.538 -0.8142 -0.1741  0.3161
26432SOL    HW288075   1.353   9.780   7.458 -1.0810  2.3190  1.7204
26433SOL     OW88076   8.542   3.343   8.639 -0.3017  0.2588  0.3268
26433SOL    HW188077   8.581   3.256   8.649 -0.9568 -0.0113  0.6232
26433SOL    HW288078   8.573   3.374   8.555 -0.9391 -0.7270 -0.2949
26434SOL     OW88079   1.329  10.710   9.927 -0.0892 -0.0183 -0.8379
26434SOL    HW188080   1.413  10.698   9.969 -0.3306  1.2241  0.0617
26434SOL    HW288081   1.350  10.721   9.834  0.8778  1.3779 -0.4902
26435SOL     OW88082  11.371   8.958   2.540  0.0480 -0.5036  0.1180
26435SOL    HW188083  11.322   8.881   2.511  0.0892 -0.1039 -1.0845
26435SOL    HW288084  11.317   8.997   2.608  0.1638 -1.7407  0.9649
26436SOL     OW88085   5.661   9.521   1.119 -0.0299  0.0553 -0.1996
26436SOL    HW188086   5.594   9.471   1.166 -0.4099 -0.5317 -1.3364
26436SOL    HW288087   5.708   9.568   1.188  0.5420 -2.0722  0.9365
26437SOL     OW88088   3.114  11.965   3.979 -0.1169 -0.3350 -0.0282
26437SOL    HW188089   3.120  12.042   3.923 -0.4219 -0.0864  0.2742
26437SOL    HW288090   3.199  11.960   4.024  0.5060 -1.1102 -1.2354
26438SOL     OW88091   7.223  12.118   9.752  0.0973  0.3307 -0.0579
26438SOL    HW188092   7.217  12.137   9.658 -0.4576 -0.2393 -0.1405
26438SOL    HW288093   7.275  12.190   9.787 -0.6000  1.1312 -0.6236
26439SOL     OW88094  12.215   3.471  11.864 -0.5090 -0.3332 -0.3608
26439SOL    HW188095  12.248   3.413  11.932  1.9227  1.5215  0.1756
26439SOL    HW288096  12.184   3.413  11.795  0.4125 -2.2522  0.7720
26440SOL     OW88097   6.986  10.604   3.437  0.9401  0.2168 -0.2293
26440SOL    HW188098   7.067  10.558   3.415 -0.0925 -1.9778  0.2950
26440SOL    HW288099   6.958  10.565   3.520 -0.2819  1.4529 -0.0266
26441SOL     OW88100   8.612   7.407  11.802 -0.3297 -0.3310  0.3457
26441SOL    HW188101   8.597   7.381  11.893  1.3848 -0.3214  0.6623
26441SOL    HW288102   8.587   7.500  11.799  0.5357 -0.0603  1.0687
26442SOL     OW88103   5.518  11.159   0.533 -0.1689 -0.2073  0.0215
26442SOL    HW188104   5.455  11.209   0.585  0.1287 -1.1084  1.2963
26442SOL    HW288105   5.603  11.198   0.554 -0.2679  1.3110 -2.0449
26443SOL     OW88106   2.493   4.587   8.214 -0.6114  0.0514 -0.1549
26443SOL    HW188107   2.449   4.638   8.282 -2.4616 -0.0648 -1.2227
26443SOL    HW288108   2.526   4.652   8.152  1.1298  0.1613  0.8122
26444SOL     OW88109   3.894   6.636   7.644  0.3093  0.0771 -0.0183
26444SOL    HW188110   3.839   6.713   7.656 -1.9805 -1.6169  0.9587
26444SOL    HW288111   3.853   6.587   7.572  1.4318 -0.4922 -0.2982
26445SOL     OW88112   0.903   9.201   5.611 -0.2059 -0.0990 -0.0534
26445SOL    HW188113   0.855   9.283   5.621 -0.2702 -0.1344 -0.0699
26445SOL    HW288114   0.928   9.199   5.518 -1.3095 -0.7148 -0.3456
26446SOL     OW88115  10.057   0.023   2.730  0.5280 -0.2363  0.1463
26446SOL    HW188116  10.038   0.104   2.777  1.7998  0.4905 -0.5257
26446SOL    HW288117   9.980  -0.032   2.745 -1.0942  1.6879 -0.7051
26447SOL     OW88118  11.544   6.374  12.168 -0.2576  0.5207 -1.4592
26447SOL    HW188119  11.592   6.294  12.146 -0.9439  0.0680 -1.3538
26447SOL    HW288120  11.455   6.344  12.186 -0.0587  1.0293  0.6094
26448SOL     OW88121   6.231  10.121   5.867 -0.4196 -0.7399 -1.0872
26448SOL    HW188122   6.199  10.204   5.832 -0.6545  0.0363  0.8338
26448SOL    HW288123   6.181  10.108   5.948  1.7395 -1.1812  0.2682
26449SOL     OW88124  12.212   0.753   6.515 -0.0610  0.0614  0.0871
26449SOL    HW188125  12.137   0.739   6.456  0.3803  2.6183 -1.2437
26449SOL    HW288126  12.286   0.770   6.456  0.7862  1.0305  1.3588
26450SOL     OW88127   9.765   8.344   1.959  0.3850 -0.3912 -0.0681
26450SOL    HW188128   9.860   8.338   1.943  0.6267  1.2939  0.4876
26450SOL    HW288129   9.758   8.402   2.035 -1.0765 -1.1200  0.3806
26451SOL     OW88130   1.724   7.755   4.000  0.2798 -0.1044 -0.0155
26451SOL    HW188131   1.640   7.713   4.021  0.5100  0.3690  2.1131
26451SOL    HW288132   1.788   7.684   4.001 -0.0223 -0.4113 -1.2896
26452SOL     OW88133  10.532   1.388   7.084 -0.2427 -0.0585  0.0978
26452SOL    HW188134  10.543   1.453   7.015 -0.2925  0.0778  0.2189
26452SOL    HW288135  10.546   1.436   7.165 -2.3321  0.2846  0.3084
26453SOL     OW88136   0.999   9.334  12.062 -0.4084  0.3373  0.0075
26453SOL    HW188137   0.933   9.299  12.123 -0.4734 -0.1385 -0.3284
26453SOL    HW288138   1.019   9.260  12.004 -0.3158  0.7771 -0.5242
26454SOL     OW88139   5.368  11.223   2.643 -0.3266 -0.3202 -0.2005
26454SOL    HW188140   5.420  11.156   2.688  1.1825  0.7254 -0.3262
26454SOL    HW288141   5.336  11.280   2.713  0.4860  0.2532 -0.2893
26455SOL     OW88142   5.172  10.698   0.588  0.0075 -0.1448 -0.0669
26455SOL    HW188143   5.221  10.638   0.643 -0.9522 -0.0239  0.9506
26455SOL    HW288144   5.161  10.651   0.505  1.4679 -0.3227 -0.1839
26456SOL     OW88145   4.149   1.945   9.103  0.0563 -0.4042 -0.3490
26456SOL    HW188146   4.104   1.944   9.019  1.2260  0.3780 -1.0201
26456SOL    HW288147   4.088   1.988   9.163 -0.4784 -0.2643 -0.9826
26457SOL     OW88148   5.632   5.697   3.450  0.1342  0.5747  0.0612
26457SOL    HW188149   5.590   5.617   3.484  0.4279  0.9113  1.2736
26457SOL    HW288150   5.594   5.709   3.363 -0.9868 -0.0971  0.4306
26458SOL     OW88151  11.586  12.318   4.594  0.3400 -0.4715  0.1510
26458SOL    HW188152  11.596  12.408   4.564 -1.0104 -0.1345  0.6071
26458SOL    HW288153  11.509  12.285   4.547 -0.1447 -0.8332  1.1536
26459SOL     OW88154   2.953   5.736   4.516  0.5924  0.0734 -0.0776
26459SOL    HW188155   2.910   5.819   4.535  1.8385  0.6535  0.2422
26459SOL    HW288156   2.988   5.747   4.427 -0.3562 -0.5968 -0.5567
26460SOL     OW88157   3.680   1.926   8.404  0.4527  0.3102  0.1874
26460SOL    HW188158   3.642   1.890   8.483  3.2767 -0.8744  1.1394
26460SOL    HW288159   3.744   1.861   8.376  2.6486  2.6053 -0.5273
26461SOL     OW88160   9.664   2.593   0.189  0.1877  0.1146  0.5509
26461SOL    HW188161   9.682   2.549   0.106  0.4042  0.9542  0.1440
26461SOL    HW288162   9.610   2.668   0.164  0.8223  0.7500  1.0884
26462SOL     OW88163   8.041   7.948   8.521  0.0838 -0.4874  0.1931
26462SOL    HW188164   8.053   7.880   8.588 -0.3555  0.2640  1.0683
26462SOL    HW288165   8.129   7.984   8.507  0.0647 -0.1215  0.9580
26463SOL     OW88166   6.223  10.103   7.701  0.4588  0.4387  0.8688
26463SOL    HW188167   6.142  10.147   7.678 -1.6492 -1.8746  3.1255
26463SOL    HW288168   6.234  10.035   7.635  0.7727  0.9295  0.4026
26464SOL     OW88169   8.945  10.677   1.553 -0.3505  0.2623  0.0490
26464SOL    HW188170   8.863  10.693   1.600 -0.3943  1.4473 -0.4097
26464SOL    HW288171   8.918  10.648   1.466 -0.2779 -2.4770  0.8192
26465SOL     OW88172  11.285   8.151   4.711 -0.2819 -0.1425 -0.6663
26465SOL    HW188173  11.297   8.243   4.733  1.4818 -0.8112  1.5201
26465SOL    HW288174  11.350   8.133   4.643  0.8889 -0.2268  0.4372
26466SOL     OW88175  11.271   3.153   9.189 -0.0125  0.4598 -0.0094
26466SOL    HW188176  11.226   3.075   9.220  0.1450  1.0337  1.8162
26466SOL    HW288177  11.224   3.179   9.110  0.8593 -2.2809 -1.5413
26467SOL     OW88178   0.015   5.175   8.778 -0.4009  0.2765 -0.2877
26467SOL    HW188179  -0.049   5.129   8.833 -0.9464 -0.0560 -1.1787
26467SOL    HW288180  -0.021   5.264   8.770  0.8606  1.0352  1.7724
26468SOL     OW88181   6.377   6.220   8.417 -0.1448 -0.1843  0.0105
26468SOL    HW188182   6.380   6.256   8.505 -0.4312 -0.4395  0.1302
26468SOL    HW288183   6.443   6.150   8.417  1.3737  1.1971 -0.6313
26469SOL     OW88184  11.325   4.990  10.708 -0.3721  0.2307  0.6755
26469SOL    HW188185  11.406   5.037  10.689 -0.1127 -0.9082 -1.3592
26469SOL    HW288186  11.322   4.985  10.803  1.2920  1.4122  0.8339
26470SOL     OW88187  10.427   1.606   8.770  0.0230  0.0757 -0.0368
26470SOL    HW188188  10.501   1.599   8.830 -0.4052 -0.4781  0.4298
26470SOL    HW288189  10.467   1.633   8.686  0.8090 -0.6848  0.0765
26471SOL     OW88190  10.373   0.379   3.456 -0.3151 -0.7756  0.5258
26471SOL    HW188191  10.333   0.331   3.528 -0.1287 -0.9447  0.5168
26471SOL    HW288192  10.303   0.437   3.424  0.1736  0.7696  2.1233
26472SOL     OW88193   4.945  10.538   0.863 -0.1130  0.1609 -0.0357
26472SOL    HW188194   4.859  10.546   0.905  0.2661 -1.2087  1.0676
26472SOL    HW288195   4.967  10.627   0.838 -1.4037  0.6861  0.5775
26473SOL     OW88196  11.474  12.521  12.398 -0.1639  0.0214  0.2806
26473SOL    HW188197  11.533  12.460  12.443 -0.8056 -2.1047 -1.6066
26473SOL    HW288198  11.520  12.542  12.316 -1.2941 -0.3977 -0.4786
26474SOL     OW88199  11.103   3.590  12.057 -0.1679 -0.0907  0.2773
26474SOL    HW188200  11.050   3.666  12.031 -1.2806 -0.5106  1.2820
26474SOL    HW288201  11.084   3.577  12.149  1.4038 -0.5116  0.5829
26475SOL     OW88202   7.368  12.598   9.514 -0.1052 -0.1770 -0.3485
26475SOL    HW188203   7.284  12.626   9.550  0.4660 -0.0542  0.9434
26475SOL    HW288204   7.396  12.672   9.460  0.0057  0.5476  0.6706
26476SOL     OW88205   4.353   1.487   7.884  0.1419 -0.1492 -0.3343
26476SOL    HW188206   4.302   1.564   7.911 -0.2892 -0.6136  0.1878
26476SOL    HW288207   4.360   1.496   7.789 -0.6958  0.0671 -0.3866
26477SOL     OW88208   4.083  10.262   2.943  0.4905  0.5389  0.3423
26477SOL    HW188209   4.149  10.246   2.875  0.1968  0.3243  0.1077
26477SOL    HW288210   4.095  10.190   3.005  1.3600  1.2197  0.9993
26478SOL     OW88211   5.425   6.573   3.418  0.2150  0.4842 -0.0934
26478SOL    HW188212   5.370   6.649   3.437  0.7068  0.9671 -0.5600
26478SOL    HW288213   5.408   6.553   3.326  1.3830  1.1300 -0.4723
26479SOL     OW88214   2.004   7.870   3.926  0.0552 -0.0677 -0.3379
26479SOL    HW188215   2.076   7.850   3.868 -0.0682 -0.7563 -0.2703
26479SOL    HW288216   1.926   7.838   3.880  0.1197 -2.1767  0.8746
26480SOL     OW88217   3.611   8.540   2.802  0.3698 -0.6226 -0.5921
26480SOL    HW188218   3.534   8.576   2.845 -1.0372  0.4606 -3.7320
26480SOL    HW288219   3.667   8.616   2.785 -0.0505 -0.6827 -2.3767
26481SOL     OW88220   1.923  10.040  11.799  0.1595  0.1682  0.5784
26481SOL    HW188221   1.897   9.953  11.769 -0.7635  0.5266  0.3163
26481SOL    HW288222   1.999  10.023  11.856 -0.1514 -0.8316  0.7290
26482SOL     OW88223   9.934  11.365   2.945  0.1335  0.4611 -0.9297
26482SOL    HW188224   9.850  11.324   2.964 -1.5854  2.6152 -3.1316
26482SOL    HW288225   9.941  11.437   3.007  1.4549 -0.8928  0.6055
26483SOL     OW88226   3.174   5.997   2.632 -0.1857  0.2689  0.0963
26483SOL    HW188227   3.153   6.017   2.540  0.2669  1.5591  0.2447
26483SOL    HW288228   3.189   5.903   2.634  0.4289  0.3131 -1.2870
26484SOL     OW88229   4.349   0.667  12.424  0.2397 -0.1950 -0.2065
26484SOL    HW188230   4.399   0.589  12.400 -0.7742 -0.4727 -1.5336
26484SOL    HW288231   4.412   0.739  12.419  0.4757 -0.4806 -2.2228
26485SOL     OW88232   6.713  12.179  11.220  0.3226  0.3865 -1.0259
26485SOL    HW188233   6.797  12.207  11.185 -0.4723  2.2661 -1.5358
26485SOL    HW288234   6.683  12.112  11.159  1.4735 -0.4066 -0.7683
26486SOL     OW88235   6.639  12.535  12.177  0.3321 -0.2772 -0.1876
26486SOL    HW188236   6.590  12.454  12.193  0.8424 -0.5336  0.1111
26486SOL    HW288237   6.658  12.569  12.265  1.7959 -0.8624 -0.2501
26487SOL     OW88238  11.779   5.740   3.799  0.3138  0.5870 -0.3297
26487SOL    HW188239  11.862   5.770   3.761  0.1462  0.5681 -0.7142
26487SOL    HW288240  11.757   5.660   3.751  0.2802  0.3617  0.0532
26488SOL     OW88241  11.275   2.252   3.439  0.3871 -0.3219  0.1944
26488SOL    HW188242  11.262   2.158   3.431 -1.1651 -0.3286  2.0448
26488SOL    HW288243  11.365   2.262   3.469  1.1039 -1.0634 -1.5332
26489SOL     OW88244   2.931   8.852   8.942 -0.0564  0.1767  0.1680
26489SOL    HW188245   2.983   8.892   8.873 -2.3274 -0.1419 -1.8174
26489SOL    HW288246   2.934   8.758   8.923 -0.5811  0.0684  0.5840
26490SOL     OW88247   2.166   2.708  11.372  0.0177  0.1057  0.0360
26490SOL    HW188248   2.190   2.743  11.458  0.0969 -0.6696  0.3458
26490SOL    HW288249   2.190   2.615  11.377  0.8558  0.2357 -1.1388
26491SOL     OW88250   7.181   6.526   3.820  0.6926  0.2834  0.1231
26491SOL    HW188251   7.253   6.489   3.768  1.3955  1.7422  0.0082
26491SOL    HW288252   7.114   6.548   3.756 -0.2092 -1.7347  0.2986
26492SOL     OW88253   0.147   9.251   9.427  0.2529 -0.6743 -0.3810
26492SOL    HW188254   0.155   9.252   9.332  1.2323  0.7506 -0.3174
26492SOL    HW288255   0.194   9.330   9.456 -0.7058 -0.6516  1.2275
26493SOL     OW88256   9.376   2.319   9.641  0.5947 -0.0611 -0.4852
26493SOL    HW188257   9.290   2.326   9.599 -0.2964 -0.5584  1.1851
26493SOL    HW288258   9.414   2.239   9.604  0.4471  0.2811 -1.3999
26494SOL     OW88259   5.297  11.991   9.023  0.1991  0.7544  0.1550
26494SOL    HW188260   5.342  12.074   9.042 -1.4574  1.2764  2.2015
26494SOL    HW288261   5.205  12.016   9.014 -0.1644 -0.7240 -0.4713
26495SOL     OW88262   0.073   3.556   2.276  0.4769  0.4993 -0.0848
26495SOL    HW188263   0.111   3.571   2.189  0.1202  0.7154 -0.2045
26495SOL    HW288264   0.046   3.643   2.305  0.8838  0.4773  0.3799
26496SOL     OW88265   9.633   3.357   7.324 -0.5793 -0.3381  0.2437
26496SOL    HW188266   9.594   3.286   7.375 -2.1521 -1.2329 -2.0559
26496SOL    HW288267   9.602   3.343   7.235  2.4275  0.8606 -1.1201
26497SOL     OW88268   4.393   5.431   7.632 -0.3486 -0.1316  0.7485
26497SOL    HW188269   4.442   5.473   7.561 -1.9369  1.9895  0.8051
26497SOL    HW288270   4.428   5.470   7.712  0.8091 -1.8475  1.1318
26498SOL     OW88271   2.007   8.006  10.505  0.1246 -0.1001 -0.2847
26498SOL    HW188272   1.938   7.980  10.566 -0.6894 -0.3648 -1.2941
26498SOL    HW288273   2.069   7.933  10.506  1.2234  0.7656  1.7565
26499SOL     OW88274   7.530   6.358   9.068  0.3423 -0.4520  0.3215
26499SOL    HW188275   7.449   6.363   9.017 -1.3736 -0.4433  2.8282
26499SOL    HW288276   7.578   6.437   9.045 -1.1984  0.4474  0.0077
26500SOL     OW88277   9.062   6.545   7.085  0.4908 -0.1091 -0.3130
26500SOL    HW188278   8.971   6.571   7.072  0.3619 -0.7618 -0.7425
26500SOL    HW288279   9.058   6.475   7.150  0.5362 -1.1472 -1.4037
26501SOL     OW88280  10.475   8.051   3.246  0.0520 -0.2142  0.1847
26501SOL    HW188281  10.564   8.036   3.277 -0.2491 -2.3303  0.1739
26501SOL    HW288282  10.477   8.138   3.205  2.0093 -0.0993  0.4687
26502SOL     OW88283  12.274   5.194   1.116 -0.8597 -0.2563  0.0660
26502SOL    HW188284  12.360   5.208   1.078 -1.0730  0.4199 -0.1765
26502SOL    HW288285  12.227   5.276   1.100 -1.5534 -0.6291  0.1733
26503SOL     OW88286   8.525   5.169   4.802 -0.0890  0.3225  0.8471
26503SOL    HW188287   8.467   5.182   4.726  1.0075 -0.5075 -0.1665
26503SOL    HW288288   8.551   5.258   4.827 -1.0626  0.6531  0.7380
26504SOL     OW88289   4.987   5.192   2.656 -0.0286  0.2791  0.3154
26504SOL    HW188290   4.985   5.236   2.741  1.0648 -0.4473  0.7354
26504SOL    HW288291   5.065   5.227   2.613 -1.4136  1.8270 -1.0810
26505SOL     OW88292   7.580   4.769   1.546 -0.0848  0.1372 -0.5192
26505SOL    HW188293   7.611   4.847   1.593  0.7190  0.1149 -1.0029
26505SOL    HW288294   7.535   4.804   1.469 -0.1683  0.1272 -0.4763
26506SOL     OW88295   3.453  11.098   0.662  0.2318  0.1077  0.1883
26506SOL    HW188296   3.477  11.188   0.642  0.7813 -0.0180  0.2861
26506SOL    HW288297   3.363  11.090   0.630  0.3872  0.5167 -0.3661
26507SOL     OW88298   1.322   5.714   7.539 -0.1305  0.2378  0.4375
26507SOL    HW188299   1.243   5.760   7.565  0.3384  0.6470  1.1612
26507SOL    HW288300   1.319   5.713   7.443 -1.2138 -0.1264  0.4586
26508SOL     OW88301   9.756   5.796   8.806 -0.5083 -0.0350  0.4239
26508SOL    HW188302   9.758   5.887   8.837  0.1116 -0.8249  2.9671
26508SOL    HW288303   9.824   5.793   8.738 -0.7565  1.4593  0.0608
26509SOL     OW88304  11.302  11.017   9.283 -0.1208  0.1406  0.0871
26509SOL    HW188305  11.381  11.045   9.238  0.7946 -1.5001  0.6018
26509SOL    HW288306  11.307  11.058   9.369  1.6834 -2.1509  1.1812
26510SOL     OW88307   9.857   4.676   1.627  0.2248  0.1205 -0.0202
26510SOL    HW188308   9.888   4.734   1.696  0.2173 -0.8219  0.7945
26510SOL    HW288309   9.935   4.632   1.595  0.4982  1.7219 -1.8006
26511SOL     OW88310   5.564   9.534   0.044  0.1910 -0.2218 -0.6671
26511SOL    HW188311   5.471   9.519   0.065  0.1364  0.5598 -0.2973
26511SOL    HW288312   5.571   9.629   0.036  1.5186  0.0105  2.1449
26512SOL     OW88313   7.721   6.555   1.590  0.0427 -0.4871  0.0677
26512SOL    HW188314   7.774   6.632   1.609  0.7587 -0.7557 -0.7338
26512SOL    HW288315   7.700   6.518   1.676  1.5100 -0.5932  0.4134
26513SOL     OW88316   2.452   8.356   6.211 -0.6774  0.1441 -0.1622
26513SOL    HW188317   2.539   8.368   6.173 -0.4934 -2.0076 -0.5528
26513SOL    HW288318   2.455   8.405   6.293  1.9436 -2.0772  1.2767
26514SOL     OW88319   2.047   3.087   2.303  0.3356  0.0788  0.7246
26514SOL    HW188320   1.966   3.078   2.353 -0.5734  0.0691 -0.6909
26514SOL    HW288321   2.093   3.005   2.317  0.1680  0.1344  1.6517
26515SOL     OW88322   9.354  12.259  11.301 -0.3324  0.2822 -0.1779
26515SOL    HW188323   9.343  12.328  11.235  0.4123 -0.6107 -1.2728
26515SOL    HW288324   9.319  12.297  11.381  0.2504  2.0200 -0.6972
26516SOL     OW88325   5.381   0.573  11.916 -0.4565  0.2891 -0.8005
26516SOL    HW188326   5.366   0.568  12.010  1.5959 -0.5155 -0.4742
26516SOL    HW288327   5.332   0.652  11.888  0.2638  1.5159  1.2192
26517SOL     OW88328   8.389   5.376   7.106  0.2326 -0.0736  0.3942
26517SOL    HW188329   8.413   5.285   7.091  1.4970  0.3821 -0.4954
26517SOL    HW288330   8.456   5.427   7.060 -0.5541  1.3071  0.7124
26518SOL     OW88331   8.236   5.509  11.865  0.2993  0.4773 -0.5090
26518SOL    HW188332   8.219   5.516  11.959  0.3908  0.7889 -0.5150
26518SOL    HW288333   8.328   5.482  11.860 -0.3219 -1.7767 -0.4664
26519SOL     OW88334   5.775   1.494   8.983  0.2857  0.2106  0.5920
26519SOL    HW188335   5.755   1.403   9.007 -0.1744  0.0553 -0.3237
26519SOL    HW288336   5.690   1.535   8.970  0.4920  0.7995  1.0754
26520SOL     OW88337   3.242  10.285   4.928 -0.1762  0.0177  0.4543
26520SOL    HW188338   3.156  10.243   4.940 -0.5012  0.2510 -0.8687
26520SOL    HW288339   3.291  10.223   4.873  0.4531 -0.0376  1.0691
26521SOL     OW88340   2.164  11.583   5.457  0.0442  0.1138  0.5901
26521SOL    HW188341   2.100  11.655   5.460  0.3282  0.4372 -0.5881
26521SOL    HW288342   2.119  11.509   5.498 -0.6417  0.6723  0.8600
26522SOL     OW88343   6.461  12.537  11.757  0.0178 -0.0032 -0.8352
26522SOL    HW188344   6.397  12.467  11.745  0.0050 -0.0951 -0.2505
26522SOL    HW288345   6.515  12.533  11.678  1.3881 -2.0921  0.1039
26523SOL     OW88346   5.740  10.074   9.189  0.0326 -0.4768 -0.2067
26523SOL    HW188347   5.822  10.124   9.194 -0.2693  0.0001  0.0107
26523SOL    HW288348   5.754  10.013   9.116  0.8269 -0.8564  0.2400
26524SOL     OW88349   7.642   0.244   7.107  0.1663  0.2544  0.7902
26524SOL    HW188350   7.546   0.242   7.104  0.1536  0.1311  1.2596
26524SOL    HW288351   7.663   0.323   7.157  0.3082  0.2196  0.7874
26525SOL     OW88352  10.653   6.627   8.133  0.1738 -0.4314 -0.0918
26525SOL    HW188353  10.559   6.630   8.149  0.2928  0.6643  0.5672
26525SOL    HW288354  10.677   6.719   8.118  1.1707 -0.6660  0.0065
26526SOL     OW88355   9.084  12.612   6.434  0.2111  0.1230  0.3575
26526SOL    HW188356   8.994  12.599   6.465  0.6727 -2.0755  0.9560
26526SOL    HW288357   9.082  12.697   6.390 -1.9901  0.4410  0.9411
26527SOL     OW88358   3.070   0.028   0.361 -0.2005 -0.4858 -0.1801
26527SOL    HW188359   2.988   0.075   0.378  0.0913  0.1605 -0.5324
26527SOL    HW288360   3.045  -0.064   0.361 -1.0939 -0.2601 -1.1043
26528SOL     OW88361   5.278   2.523   0.801 -0.3716 -0.3529 -0.0080
26528SOL    HW188362   5.259   2.443   0.753  1.2196 -1.4639  1.1143
26528SOL    HW288363   5.371   2.539   0.784 -0.2966  0.3928  1.0357
26529SOL     OW88364   4.290   1.118   8.632 -0.0419 -0.0622 -0.3781
26529SOL    HW188365   4.257   1.030   8.616  0.0722  0.0401 -1.2662
26529SOL    HW288366   4.316   1.119   8.724 -0.0459 -0.9523 -0.3630
26530SOL     OW88367   9.440  12.210   5.761 -0.0687  0.2846 -0.4189
26530SOL    HW188368   9.430  12.201   5.666  0.7012 -0.2409 -0.4574
26530SOL    HW288369   9.373  12.153   5.798 -2.0762  2.3679 -0.5980
26531SOL     OW88370   9.553   6.520   0.813  0.3533 -0.0690  0.2843
26531SOL    HW188371   9.486   6.581   0.783 -0.2368 -0.4678  0.7725
26531SOL    HW288372   9.606   6.570   0.875 -0.3461 -0.1365  0.9558
26532SOL     OW88373  10.219   0.798   7.184 -0.5545  0.6279  0.2533
26532SOL    HW188374  10.271   0.827   7.109 -0.9515  1.4478  0.2875
26532SOL    HW288375  10.188   0.879   7.224 -2.3617  0.1458 -0.1062
26533SOL     OW88376   9.754   7.138   9.098  0.1686  0.4451 -0.4109
26533SOL    HW188377   9.808   7.075   9.050 -0.9730  0.1024 -1.2847
26533SOL    HW288378   9.703   7.084   9.158 -2.2162  0.2137 -2.4720
26534SOL     OW88379   6.327   9.097   1.243 -0.5571  0.5435  0.1057
26534SOL    HW188380   6.262   9.097   1.313 -0.1639  1.7391  0.4957
26534SOL    HW288381   6.380   9.175   1.260  2.1117 -1.2786  0.8402
26535SOL     OW88382   3.314   6.186   0.312 -0.0842 -0.4350  0.1950
26535SOL    HW188383   3.330   6.133   0.390  0.0907  0.7499  0.9882
26535SOL    HW288384   3.232   6.232   0.331  0.2689  0.3185 -0.0588
26536SOL     OW88385   2.178   5.808   2.458  0.1212 -0.9553 -0.2152
26536SOL    HW188386   2.240   5.736   2.471 -0.2734 -1.2310  0.1568
26536SOL    HW288387   2.198   5.841   2.370  0.3695 -1.4534 -0.3500
26537SOL     OW88388   2.645   9.917  10.898  0.5501 -0.7319  0.4155
26537SOL    HW188389   2.622   9.916  10.805 -0.7904 -0.7648  0.7220
26537SOL    HW288390   2.561   9.903  10.943  1.2989 -1.5396  1.6093
26538SOL     OW88391   1.439   5.276   0.037  0.2026  0.2385 -0.0158
26538SOL    HW188392   1.448   5.241  -0.052 -1.5464  1.3899 -0.7035
26538SOL    HW288393   1.457   5.201   0.094  1.0623 -0.6078 -1.3379
26539SOL     OW88394  12.445   0.244   2.242 -0.3087 -0.1062 -0.3978
26539SOL    HW188395  12.540   0.254   2.250 -0.6364  2.3911  1.9529
26539SOL    HW288396  12.421   0.305   2.173 -0.2804  0.0188 -0.2994
26540SOL     OW88397   8.056   2.326  12.246 -0.1772 -0.0362 -0.5762
26540SOL    HW188398   7.992   2.298  12.180 -1.7660  0.1714  0.8119
26540SOL    HW288399   8.027   2.413  12.272  0.5231 -0.0531  0.2883
26541SOL     OW88400   0.814  10.070   7.518  0.2803  0.1740 -0.8960
26541SOL    HW188401   0.824   9.982   7.552 -0.5985  0.3334 -0.2011
26541SOL    HW288402   0.789  10.123   7.593  0.1239  0.8872 -1.4370
26542SOL     OW88403   4.588  11.999   2.609 -0.0126 -0.2521  0.3277
26542SOL    HW188404   4.552  11.947   2.537  1.4364 -0.4763 -0.2540
26542SOL    HW288405   4.535  12.080   2.609 -1.1704 -0.9851  0.1644
26543SOL     OW88406   9.652  11.230   3.323 -0.4485  0.3813 -0.3993
26543SOL    HW188407   9.647  11.307   3.380 -1.5617  0.0870 -0.0635
26543SOL    HW288408   9.562  11.197   3.320  0.1269 -1.3961  0.1458
26544SOL     OW88409  12.004   6.424   8.757  0.2046  0.1040 -0.6609
26544SOL    HW188410  11.963   6.504   8.724 -3.6124 -1.6945 -0.7679
26544SOL    HW288411  12.020   6.443   8.850 -1.9348  0.6529 -0.3327
26545SOL     OW88412   0.835   2.175   3.821 -0.5444  0.0166  0.1519
26545SOL    HW188413   0.743   2.198   3.835 -1.0628 -0.8281 -1.6212
26545SOL    HW288414   0.839   2.146   3.730  1.6664  0.8606 -0.0752
26546SOL     OW88415   7.524   8.338   2.949 -0.6511 -0.2163  0.8434
26546SOL    HW188416   7.447   8.346   2.893 -0.4391  0.4678  0.6353
26546SOL    HW288417   7.494   8.366   3.036 -0.4503  0.8326  0.5881
26547SOL     OW88418   0.545   8.624   7.832  0.4488 -0.4133  0.0933
26547SOL    HW188419   0.499   8.556   7.783  0.4453 -0.1529 -0.2737
26547SOL    HW288420   0.636   8.594   7.835  0.2922 -0.8394  0.6603
26548SOL     OW88421   9.506   1.192  10.200 -0.2751 -0.3522  0.0060
26548SOL    HW188422   9.511   1.102  10.232 -0.2946  0.0956  1.3495
26548SOL    HW288423   9.572   1.239  10.251 -1.6380  0.7908  0.7724
26549SOL     OW88424   9.941   8.348   8.406  0.0636 -0.1452  0.0058
26549SOL    HW188425   9.900   8.265   8.382  1.0702 -0.5925 -0.1902
26549SOL    HW288426   9.867   8.405   8.429 -0.5710 -1.6468  1.9555
26550SOL     OW88427   3.609  10.299   6.975  0.0285  0.2266  0.3709
26550SOL    HW188428   3.649  10.300   6.888 -1.8152  0.0074 -0.5234
26550SOL    HW288429   3.606  10.207   6.999 -0.8211  0.1392 -0.0214
26551SOL     OW88430   8.242  12.210   9.508 -0.5052 -0.0711  0.1029
26551SOL    HW188431   8.283  12.158   9.578  0.6873  0.1057 -0.4461
26551SOL    HW288432   8.152  12.222   9.538  0.8062  3.1739  3.5430
26552SOL     OW88433   3.375  10.541   7.606  0.4623 -0.1803 -0.2925
26552SOL    HW188434   3.350  10.452   7.631  0.3371 -0.5009 -1.4615
26552SOL    HW288435   3.364  10.542   7.510 -2.0131  1.8543 -0.0939
26553SOL     OW88436   2.475   0.948   6.732 -0.6279 -0.0829  0.6968
26553SOL    HW188437   2.436   0.864   6.755  0.0267 -0.6520 -0.2077
26553SOL    HW288438   2.557   0.952   6.782  0.2152 -0.7960 -0.5788
26554SOL     OW88439   9.760   0.831  11.421 -0.2534  0.3548 -0.2518
26554SOL    HW188440   9.742   0.838  11.515  0.0703  0.4410 -0.1960
26554SOL    HW288441   9.695   0.769  11.389  0.0917 -0.2279  0.1615
26555SOL     OW88442   2.024   5.905   5.042 -0.3629  0.9362 -0.5912
26555SOL    HW188443   2.103   5.894   4.989  0.4810  1.7749  0.4702
26555SOL    HW288444   2.040   5.853   5.121 -0.8962  1.0920 -0.3741
26556SOL     OW88445   3.786   9.521   4.945  0.2911  0.3682 -0.5978
26556SOL    HW188446   3.836   9.571   5.010 -1.1464  1.2648 -0.1103
26556SOL    HW288447   3.706   9.496   4.991 -0.2341 -0.0053 -1.6752
26557SOL     OW88448   9.810   7.408   4.712  0.2059  0.1230  0.3637
26557SOL    HW188449   9.801   7.369   4.798  1.1861 -1.7524 -0.3307
26557SOL    HW288450   9.809   7.334   4.651  0.1005  1.3418 -1.2016
26558SOL     OW88451  11.263   5.175  11.990 -0.6539 -0.0621  0.1095
26558SOL    HW188452  11.182   5.165  11.940 -0.3106  1.0954 -0.7362
26558SOL    HW288453  11.328   5.200  11.924 -0.0693  1.0195  1.0733
26559SOL     OW88454   8.858  11.355   1.437 -0.7497  0.0613  0.2672
26559SOL    HW188455   8.796  11.285   1.457 -0.2827 -0.1769  0.8718
26559SOL    HW288456   8.830  11.428   1.492  0.3854 -0.5160  1.6654
26560SOL     OW88457   5.498   1.755   4.347  0.1437 -0.1753 -0.0416
26560SOL    HW188458   5.497   1.838   4.300  0.1772  1.1720  2.2057
26560SOL    HW288459   5.458   1.775   4.432  2.5109 -1.7995  1.5744
26561SOL     OW88460   4.036  10.780   0.273  0.2283  0.6048 -0.5596
26561SOL    HW188461   3.985  10.710   0.313 -0.7729  0.6686 -1.6453
26561SOL    HW288462   4.004  10.784   0.182  0.2965  2.3983 -0.5515
26562SOL     OW88463  10.977   0.949   0.627 -0.1746  0.2529  0.3244
26562SOL    HW188464  11.051   0.889   0.612  0.6759  0.8367  1.9679
26562SOL    HW288465  10.954   0.936   0.719  0.9965  3.4057  1.1954
26563SOL     OW88466   1.376   5.074   6.805  0.1662 -0.1296 -0.0203
26563SOL    HW188467   1.397   5.118   6.722 -0.8812 -0.6290 -0.5780
26563SOL    HW288468   1.412   4.987   6.795 -0.3132 -0.3212 -0.1349
26564SOL     OW88469   4.633   5.255   5.102  0.1997  0.1045 -0.2173
26564SOL    HW188470   4.691   5.261   5.026  0.2589  1.3962 -0.0843
26564SOL    HW288471   4.691   5.259   5.177  0.1009 -0.7091 -0.0899
26565SOL     OW88472   6.929  11.100   6.759 -0.3862  0.2243  0.2178
26565SOL    HW188473   6.929  11.005   6.749  2.3234  0.1488  0.0896
26565SOL    HW288474   6.922  11.134   6.670  0.4440  0.0748  0.0861
26566SOL     OW88475   4.370  11.949   0.432  0.0947  0.0359 -0.0542
26566SOL    HW188476   4.453  11.911   0.461  1.3592  0.7077 -2.5647
26566SOL    HW288477   4.304  11.898   0.480  1.8465 -2.3291  0.0781
26567SOL     OW88478   5.976   6.548   8.680 -0.0720  0.1291 -0.1078
26567SOL    HW188479   6.042   6.508   8.623 -0.9293 -0.2504 -0.8628
26567SOL    HW288480   5.892   6.518   8.644 -0.6712  0.9234  0.5845
26568SOL     OW88481   4.049   4.713   3.286  0.0623 -0.3000  0.1781
26568SOL    HW188482   4.107   4.640   3.308  0.4524 -0.2507 -0.6382
26568SOL    HW288483   4.096   4.761   3.218 -1.4794 -1.0025 -1.4766
26569SOL     OW88484   3.291   5.077  10.824 -0.3687  0.3951 -0.2303
26569SOL    HW188485   3.353   5.004  10.828 -0.5547  0.1752 -1.2019
26569SOL    HW288486   3.206   5.035  10.807 -0.3680  0.8873 -1.5049
26570SOL     OW88487   2.080   6.098   4.678 -0.1266 -0.6130  0.1088
26570SOL    HW188488   2.017   6.113   4.748 -1.1448 -1.5769 -0.5490
26570SOL    HW288489   2.160   6.068   4.722 -0.3676 -0.0839  0.9151
26571SOL     OW88490   7.624  11.342   9.101  0.0817  0.7007 -0.0994
26571SOL    HW188491   7.535  11.320   9.128 -0.1162  1.2756 -0.2641
26571SOL    HW288492   7.680  11.290   9.158 -0.3622  0.2424 -0.0757
26572SOL     OW88493   6.869   6.769  10.794  0.2306 -0.1724  0.2133
26572SOL    HW188494   6.813   6.736  10.864  2.2425 -1.2299  1.4447
26572SOL    HW288495   6.905   6.690  10.754  0.1621  0.4618 -1.1384
26573SOL     OW88496   9.448   0.200   7.012 -0.1363  0.0463  0.4000
26573SOL    HW188497   9.541   0.210   6.993  0.0361 -2.0324 -0.1139
26573SOL    HW288498   9.445   0.180   7.105 -0.1124  0.6594  0.5311
26574SOL     OW88499   2.008   5.837   1.438 -0.4264 -0.1814  0.2184
26574SOL    HW188500   2.011   5.741   1.432 -0.2052 -0.2801  1.6388
26574SOL    HW288501   2.071   5.866   1.372 -0.7534 -0.9928 -0.4764
26575SOL     OW88502   5.070  11.381   1.529  0.2344  0.3130  0.0989
26575SOL    HW188503   5.043  11.302   1.576  4.0907 -0.1773  1.9380
26575SOL    HW288504   5.032  11.372   1.442 -2.6771 -1.5349  1.4061
26576SOL     OW88505   0.130   9.639   4.981  0.1111  0.1443  0.1833
26576SOL    HW188506   0.039   9.610   4.985  0.3919 -1.1412 -1.6237
26576SOL    HW288507   0.167   9.594   4.904  2.4898 -0.0363  1.3138
26577SOL     OW88508   9.361   1.890  12.511  0.1644 -0.2978 -0.2614
26577SOL    HW188509   9.393   1.978  12.531 -0.7233  0.2936 -1.2680
26577SOL    HW288510   9.437   1.833  12.522  0.4006  0.3458  1.8773
26578SOL     OW88511   4.262   2.377  10.916  0.1366 -0.4840  0.9426
26578SOL    HW188512   4.248   2.313  10.986  0.6201 -2.6940 -0.8486
26578SOL    HW288513   4.178   2.422  10.906 -1.6376 -3.7552 -0.3818
26579SOL     OW88514   4.761   2.673   7.317  0.3046  0.4795  0.4270
26579SOL    HW188515   4.798   2.590   7.348 -0.9123 -0.2398 -0.0012
26579SOL    HW288516   4.812   2.740   7.362  1.8711 -0.4741  0.1507
26580SOL     OW88517   0.303   4.876   2.756  0.1130  0.2301  0.7372
26580SOL    HW188518   0.256   4.792   2.757  0.5383 -0.0668 -0.8816
26580SOL    HW288519   0.390   4.854   2.792  0.4531 -0.1920 -0.3115
26581SOL     OW88520   6.285   2.312   9.443 -0.3097 -0.3354 -0.0960
26581SOL    HW188521   6.259   2.277   9.529 -1.3822  1.1563  0.2165
26581SOL    HW288522   6.216   2.282   9.383 -0.2679 -0.2604 -0.1810
26582SOL     OW88523   1.285   9.098  10.951 -0.1263 -0.3936 -0.7582
26582SOL    HW188524   1.330   9.069  11.030  0.1209 -1.4149 -1.2549
26582SOL    HW288525   1.347   9.157  10.908 -0.2795  0.1957 -0.1745
26583SOL     OW88526   9.933  10.667   7.327  0.2919 -0.4771 -0.7700
26583SOL    HW188527   9.848  10.636   7.358  0.5880 -1.5715 -0.9884
26583SOL    HW288528   9.942  10.628   7.240  0.7152  0.2041 -1.0370
26584SOL     OW88529   2.926   0.440   4.257  0.2828  0.1578  0.2529
26584SOL    HW188530   2.835   0.412   4.259 -0.1652  1.4800 -0.0700
26584SOL    HW288531   2.970   0.388   4.324 -0.8283 -0.1027  0.7957
26585SOL     OW88532   5.544   2.028   1.244  0.6205  0.6146 -0.6582
26585SOL    HW188533   5.630   2.031   1.202  0.8127 -0.7017 -0.3961
26585SOL    HW288534   5.554   1.964   1.315 -0.9331 -0.5989 -1.4768
26586SOL     OW88535  10.078  10.271  10.861 -0.6443  0.0145  0.3175
26586SOL    HW188536  10.103  10.292  10.771 -1.6058 -0.3937 -0.0569
26586SOL    HW288537  10.136  10.325  10.915  0.4196 -0.2352 -0.5193
26587SOL     OW88538  11.902   4.152   5.284 -0.1466 -0.0609  0.0809
26587SOL    HW188539  11.964   4.081   5.270  0.4430  0.6145 -0.7477
26587SOL    HW288540  11.860   4.165   5.199 -0.3594  0.4885  0.2653
26588SOL     OW88541  12.525   9.035   9.725  0.3778 -0.4254 -0.1791
26588SOL    HW188542  12.455   9.006   9.667  0.6822 -2.4411  0.3618
26588SOL    HW288543  12.597   8.974   9.708  1.1864  0.2054  0.8476
26589SOL     OW88544  12.545   8.275   7.611 -0.0108  0.6072 -0.1804
26589SOL    HW188545  12.459   8.235   7.598  0.5851 -0.7989  0.0245
26589SOL    HW288546  12.607   8.203   7.599  1.3645  2.0978 -3.2524
26590SOL     OW88547  10.133   0.158   3.775  0.1029  0.0280  0.2580
26590SOL    HW188548  10.186   0.199   3.844 -0.8481  0.4688  0.7373
26590SOL    HW288549  10.104   0.231   3.721  2.6436 -0.4604 -1.9849
26591SOL     OW88550   7.865   8.929   1.054 -0.0353 -0.4761  0.1866
26591SOL    HW188551   7.914   8.902   1.132  1.0808  0.1377 -0.2896
26591SOL    HW288552   7.858   9.024   1.061  1.1907 -0.2660 -1.0767
26592SOL     OW88553   4.779  11.722   5.681 -0.4633  0.0310  0.0491
26592SOL    HW188554   4.783  11.811   5.645 -1.6153 -0.1750 -0.6198
26592SOL    HW288555   4.689  11.712   5.712 -0.7852 -1.3981 -1.2304
26593SOL     OW88556   6.653   0.823   2.339  0.5905  0.0570  0.6013
26593SOL    HW188557   6.616   0.738   2.316  1.1257 -0.1045  0.3062
26593SOL    HW288558   6.684   0.859   2.256  0.2888  0.5763  0.7167
26594SOL     OW88559   6.151   8.385   0.778 -0.0302 -0.7494 -0.2151
26594SOL    HW188560   6.165   8.463   0.725 -0.0150 -1.3389 -1.1000
26594SOL    HW288561   6.198   8.403   0.859 -1.8747  1.0907  0.5367
26595SOL     OW88562   5.414   4.249   3.498  0.5949  0.0159  0.7037
26595SOL    HW188563   5.371   4.277   3.417 -1.0189 -1.0586  1.1429
26595SOL    HW288564   5.401   4.322   3.558 -0.0512 -0.0267  0.6252
26596SOL     OW88565   6.636   3.421  11.709 -0.1087  0.0768  0.0202
26596SOL    HW188566   6.628   3.365  11.632  2.7049  0.6742 -0.7934
26596SOL    HW288567   6.679   3.366  11.774  2.3168  1.0687 -0.6552
26597SOL     OW88568   3.523   3.215   9.148 -0.5777  0.0282  0.3683
26597SOL    HW188569   3.453   3.263   9.102  0.2403 -0.3559 -1.3823
26597SOL    HW288570   3.590   3.202   9.081  0.9715 -0.0494  1.8771
26598SOL     OW88571   4.298  12.470   9.504 -0.0067 -0.3360 -0.5146
26598SOL    HW188572   4.262  12.496   9.419 -0.2322 -0.2112 -0.3854
26598SOL    HW288573   4.307  12.553   9.551  1.0803 -0.2943 -0.7788
26599SOL     OW88574   8.462   0.243   1.231  0.6553  0.1701 -0.3052
26599SOL    HW188575   8.436   0.253   1.323 -0.2870  1.3128 -0.6570
26599SOL    HW288576   8.471   0.149   1.218 -0.5917 -0.0996  0.6066
26600SOL     OW88577  10.251   2.479   9.468 -0.5285 -0.7126 -0.2595
26600SOL    HW188578  10.173   2.425   9.454  0.1970 -2.0984  0.8262
26600SOL    HW288579  10.250   2.498   9.562  0.1533 -0.2603 -0.3379
26601SOL     OW88580   9.342   8.841   1.150 -0.0659  0.0350  0.4287
26601SOL    HW188581   9.392   8.819   1.072 -0.4763  0.7453 -0.0412
26601SOL    HW288582   9.254   8.806   1.134 -0.1499  0.1751  0.5783
26602SOL     OW88583  10.297   1.341  12.030 -0.0552 -0.1957  0.4884
26602SOL    HW188584  10.278   1.383  11.945  1.8095  1.7363  0.9440
26602SOL    HW288585  10.240   1.387  12.092 -1.2794 -1.4825  0.3735
26603SOL     OW88586   7.258  10.821   4.897  0.2008 -0.4852 -0.0852
26603SOL    HW188587   7.344  10.857   4.917  0.0852 -0.3250  0.1217
26603SOL    HW288588   7.261  10.732   4.930  0.6823 -0.8589 -1.0988
26604SOL     OW88589   3.363  11.340   1.315  0.0109  0.0788  0.6115
26604SOL    HW188590   3.367  11.331   1.220 -0.6726  0.7580  0.5171
26604SOL    HW288591   3.435  11.285   1.347  1.0724  0.8701 -0.3537
26605SOL     OW88592   4.218   9.700   3.827 -0.2535 -0.8478 -0.2064
26605SOL    HW188593   4.207   9.776   3.883  1.2983 -0.2330 -0.6741
26605SOL    HW288594   4.135   9.692   3.780 -0.6448  0.1981  0.2802
26606SOL     OW88595   3.923   2.354   2.312 -0.0813 -0.0500  0.1088
26606SOL    HW188596   3.985   2.361   2.240 -1.6142  0.6923 -1.2003
26606SOL    HW288597   3.920   2.441   2.351  0.5017 -0.3661  0.8937
26607SOL     OW88598  10.773   3.325   4.220  0.3553  0.1711  0.2025
26607SOL    HW188599  10.839   3.285   4.276  0.5269 -0.7653 -0.6291
26607SOL    HW288600  10.697   3.268   4.228 -0.0111  0.6724  0.3621
26608SOL     OW88601   9.420  10.613   0.697  0.0833 -0.1531  0.3225
26608SOL    HW188602   9.387  10.665   0.770 -0.5459  0.5522 -0.4465
26608SOL    HW288603   9.516  10.619   0.704  0.1209 -1.9639  2.3951
26609SOL     OW88604   0.781  10.601   5.752 -0.6762  0.0293 -0.8796
26609SOL    HW188605   0.864  10.593   5.799 -1.3239 -2.4081  0.0161
26609SOL    HW288606   0.805  10.632   5.665  1.2198 -1.0442 -0.7878
26610SOL     OW88607   7.712  11.263  12.173 -0.2667 -0.5607 -0.0402
26610SOL    HW188608   7.749  11.347  12.198  0.9753 -0.6155 -1.5510
26610SOL    HW288609   7.714  11.211  12.254 -0.4337  0.6238  0.7476
26611SOL     OW88610  11.213   6.278   1.778  0.2969  0.1324  0.1855
26611SOL    HW188611  11.238   6.357   1.825  2.4244 -0.0333 -0.5793
26611SOL    HW288612  11.148   6.307   1.715  1.4933  1.4228 -0.5006
26612SOL     OW88613   3.673   3.034   2.483 -0.0815  0.0806 -0.2434
26612SOL    HW188614   3.627   3.097   2.538  0.4576  0.0343  0.2689
26612SOL    HW288615   3.637   2.949   2.509  0.3408  0.0385  0.2047
26613SOL     OW88616  10.365   3.089   0.104  0.0396  0.2306  0.7381
26613SOL    HW188617  10.286   3.113   0.153 -0.5890  1.6720 -0.8762
26613SOL    HW288618  10.332   3.046   0.026  0.9938 -1.2902  1.1288
26614SOL     OW88619   5.884   9.853   2.788 -0.1482 -0.0350 -0.6306
26614SOL    HW188620   5.896   9.933   2.735  1.6272 -0.5625 -1.1044
26614SOL    HW288621   5.906   9.782   2.728 -1.1523 -0.8668 -0.0417
26615SOL     OW88622   0.814   1.981  10.386  0.5229  0.5953  0.1425
26615SOL    HW188623   0.736   1.925  10.382 -0.6566  1.9104  2.4690
26615SOL    HW288624   0.863   1.948  10.461  0.7324  1.5118  0.4212
26616SOL     OW88625  11.718   2.232   6.156 -0.9525 -0.1710  0.0851
26616SOL    HW188626  11.659   2.206   6.227 -1.3450 -1.2226 -0.6166
26616SOL    HW288627  11.791   2.171   6.161 -1.3460 -0.7332 -0.8807
26617SOL     OW88628  12.092   0.999   0.214 -0.6449  0.0296  0.4045
26617SOL    HW188629  12.052   0.968   0.294 -0.6859 -0.4428  0.2028
26617SOL    HW288630  12.136   0.923   0.177  1.3778  0.7575  1.1678
26618SOL     OW88631   1.708   8.379   6.044  0.6075  0.2272 -0.0304
26618SOL    HW188632   1.753   8.356   5.963  0.3363  0.3315 -0.2141
26618SOL    HW288633   1.735   8.312   6.106 -0.0091 -0.4751 -0.4986
26619SOL     OW88634   2.866   6.308   3.783 -0.1624 -0.1491 -0.2631
26619SOL    HW188635   2.919   6.300   3.704  0.6365 -1.6172  0.3869
26619SOL    HW288636   2.795   6.367   3.758  1.1494  0.9908 -1.4856
26620SOL     OW88637  10.079   0.741   2.891  0.2181  0.1159 -0.3809
26620SOL    HW188638  10.068   0.690   2.810  1.5742  0.4020 -0.7700
26620SOL    HW288639  10.145   0.693   2.941 -0.5546 -0.0147  0.5468
26621SOL     OW88640   9.921   3.345   9.790  0.3971  0.3185  0.9196
26621SOL    HW188641   9.843   3.364   9.842  0.1078 -0.0673  0.6370
26621SOL    HW288642   9.988   3.324   9.854  0.1776  0.3311  1.1551
26622SOL     OW88643   9.851  12.172   2.915 -0.0772  0.1691  0.3794
26622SOL    HW188644   9.869  12.118   2.992  1.9508 -0.0339 -0.1760
26622SOL    HW288645   9.761  12.151   2.891 -0.4329 -0.4618  2.1250
26623SOL     OW88646   2.096   9.433   8.425  0.1968  0.1403 -0.0326
26623SOL    HW188647   2.064   9.430   8.516 -0.3731 -0.7691 -0.2568
26623SOL    HW288648   2.187   9.405   8.431  0.6266  1.5390  0.4436
26624SOL     OW88649   9.516  10.598   2.490 -0.5297  0.1459  0.0962
26624SOL    HW188650   9.456  10.672   2.494 -0.2753  0.4029 -0.7577
26624SOL    HW288651   9.568  10.612   2.411 -1.3732 -1.6048 -0.8518
26625SOL     OW88652  11.623  10.841   5.740  0.0360  0.6910 -0.3300
26625SOL    HW188653  11.713  10.828   5.769  0.9427  0.8326 -2.8339
26625SOL    HW288654  11.589  10.752   5.728  0.8113  0.5729 -1.9683
26626SOL     OW88655   2.846  11.915   6.472  0.2778  0.4889  0.2084
26626SOL    HW188656   2.829  11.911   6.566 -2.8586  0.9317 -0.2259
26626SOL    HW288657   2.807  11.998   6.444  0.2979 -0.0739 -1.6241
26627SOL     OW88658   6.143   0.134   6.595 -0.3521  0.4942 -0.3264
26627SOL    HW188659   6.205   0.067   6.624 -0.8191  0.9964  2.0605
26627SOL    HW288660   6.057   0.101   6.623 -0.6089  1.9586  0.7370
26628SOL     OW88661   3.441  12.144   7.963  0.3608 -0.6598  0.0299
26628SOL    HW188662   3.498  12.107   7.895 -0.1862 -0.2473 -0.6727
26628SOL    HW288663   3.400  12.219   7.921 -0.0245 -0.4230  0.8146
26629SOL     OW88664   0.461   0.624  11.089  0.3063 -0.1758  0.7030
26629SOL    HW188665   0.435   0.619  10.997  0.2080 -1.3103  0.7721
26629SOL    HW288666   0.465   0.717  11.108  0.5149  0.0780 -0.5011
26630SOL     OW88667   3.571   1.440   9.367 -0.4549 -0.1971  0.0146
26630SOL    HW188668   3.534   1.523   9.337 -0.3936 -0.5494 -1.0713
26630SOL    HW288669   3.653   1.431   9.318 -0.2190 -0.6630  0.4834
26631SOL     OW88670  11.596   8.635   1.729  0.0075 -0.2170 -0.0672
26631SOL    HW188671  11.511   8.591   1.730  0.0712 -0.5227 -2.2021
26631SOL    HW288672  11.658   8.566   1.702  0.9997 -0.0501  1.6313
26632SOL     OW88673   2.060   5.383   8.178  0.1229  0.0503  0.3012
26632SOL    HW188674   2.099   5.441   8.244  1.8068 -1.8117  1.0532
26632SOL    HW288675   1.968   5.379   8.201  0.6412 -0.4253  2.5013
26633SOL     OW88676  12.243   9.776   3.221  0.0066  0.2266 -0.2154
26633SOL    HW188677  12.205   9.690   3.238  1.7263 -0.3013  1.2916
26633SOL    HW288678  12.203   9.804   3.138 -0.3039 -2.1752 -0.9495
26634SOL     OW88679   1.026  10.639   3.341 -0.2839  0.6426  0.3302
26634SOL    HW188680   1.009  10.703   3.273 -1.1708  1.5729  1.3978
26634SOL    HW288681   1.048  10.691   3.419 -0.0764 -0.3630  0.9683
26635SOL     OW88682   1.015   9.791   2.202 -0.4976  0.0534 -0.1891
26635SOL    HW188683   1.010   9.886   2.210 -0.7700  0.1460 -1.2536
26635SOL    HW288684   1.101   9.769   2.238 -0.1888  0.7670 -0.4610
26636SOL     OW88685  12.119  10.995   1.074  0.2139  0.1781 -0.5332
26636SOL    HW188686  12.175  10.922   1.099  1.9692  1.4331 -0.5959
26636SOL    HW288687  12.105  11.044   1.155  1.6847  1.4582 -1.0057
26637SOL     OW88688   9.212  10.998  12.574  0.5200  0.4556 -0.1870
26637SOL    HW188689   9.280  10.972  12.636  0.1239 -1.3693 -0.4581
26637SOL    HW288690   9.137  11.021  12.630  0.0861 -1.4141  0.0829
26638SOL     OW88691  12.153   8.266   3.019  0.1637 -0.2450  0.5973
26638SOL    HW188692  12.100   8.198   2.977 -0.1194 -0.0738  0.6740
26638SOL    HW288693  12.174   8.327   2.949 -0.1153 -0.0796  0.6562
26639SOL     OW88694   9.936   8.044   2.514  0.3340 -0.2263  0.4203
26639SOL    HW188695   9.925   8.095   2.595 -0.4134  1.0062 -0.4250
26639SOL    HW288696  10.001   8.092   2.464  0.5815 -0.8303  0.1536
26640SOL     OW88697   2.388   0.294   6.573  0.1201  0.4564 -0.0908
26640SOL    HW188698   2.460   0.319   6.631  1.0648  2.2307 -1.8770
26640SOL    HW288699   2.429   0.237   6.507  0.1832  2.1258 -1.5928
26641SOL     OW88700   9.795   7.738  11.904  0.1988  0.1028 -0.4078
26641SOL    HW188701   9.739   7.712  11.977  2.0345  0.2826  1.1442
26641SOL    HW288702   9.734   7.753  11.831 -1.7859  0.6678  1.2677
26642SOL     OW88703   8.029   4.652   2.500 -0.6960  0.0962 -0.4780
26642SOL    HW188704   8.039   4.665   2.405  0.7031  0.8940 -0.2418
26642SOL    HW288705   8.003   4.738   2.533 -1.5982 -0.2855 -0.1757
26643SOL     OW88706   1.723   7.551   3.760 -0.0370  0.0171  0.2296
26643SOL    HW188707   1.659   7.527   3.694 -0.5781  1.4875  0.1814
26643SOL    HW288708   1.672   7.563   3.840  0.3893 -0.2488  0.5461
26644SOL     OW88709  11.146  11.921  10.205  0.4853  0.1349 -0.1529
26644SOL    HW188710  11.069  11.866  10.195 -0.3702  1.5411 -1.8491
26644SOL    HW288711  11.217  11.860  10.225 -1.3755 -1.0202  4.0512
26645SOL     OW88712   2.272   6.202   8.129 -0.3228  0.0195 -0.2978
26645SOL    HW188713   2.209   6.132   8.111  0.5931 -0.4205 -1.9075
26645SOL    HW288714   2.320   6.214   8.047  0.4869  1.5875  0.3599
26646SOL     OW88715  10.361   4.435   2.648 -0.1646  0.8100  0.1196
26646SOL    HW188716  10.454   4.451   2.631 -0.1059  0.4729  0.1167
26646SOL    HW288717  10.333   4.376   2.578 -0.1318  0.1034  0.6906
26647SOL     OW88718   0.743  12.010   4.875 -0.1842 -0.5268 -0.0634
26647SOL    HW188719   0.657  12.041   4.847  0.7142  1.3366 -0.9228
26647SOL    HW288720   0.793  11.999   4.794  0.0628 -2.8417  0.3126
26648SOL     OW88721  10.844   4.050   4.508  0.1486 -0.3655  0.5240
26648SOL    HW188722  10.808   4.138   4.505  2.5025  0.6808  0.7165
26648SOL    HW288723  10.837   4.024   4.599 -0.3938 -0.3063  0.5004
26649SOL     OW88724   1.164   2.459   9.125  0.4156 -0.4503 -0.3187
26649SOL    HW188725   1.208   2.543   9.136  1.7926 -1.3436  1.3791
26649SOL    HW288726   1.073   2.483   9.103  1.5387  1.4407 -3.8453
26650SOL     OW88727   2.636   6.529   3.626 -0.1564  0.7350  0.7457
26650SOL    HW188728   2.731   6.530   3.612 -0.1717  1.1252  0.6614
26650SOL    HW288729   2.599   6.557   3.543 -0.2930  1.8004  1.1518
26651SOL     OW88730   0.405   8.288   1.557  0.2176 -0.0352 -0.2284
26651SOL    HW188731   0.353   8.221   1.601 -0.4575  0.3042 -0.5067
26651SOL    HW288732   0.387   8.369   1.604  1.4489 -0.1206  0.4503
26652SOL     OW88733   8.339   6.045   1.954  0.4197  0.7523 -0.6072
26652SOL    HW188734   8.250   6.076   1.940  0.7989  1.7442 -0.8946
26652SOL    HW288735   8.354   6.056   2.048 -0.0357 -0.2080 -0.4084
26653SOL     OW88736   5.041   6.505   4.270  0.3951 -0.1362 -0.7227
26653SOL    HW188737   5.059   6.585   4.320 -0.4592 -0.1630 -0.3550
26653SOL    HW288738   4.963   6.526   4.219 -1.3846 -1.5206  1.2693
26654SOL     OW88739   5.131  12.215   6.727  0.7780 -0.1410 -0.0553
26654SOL    HW188740   5.075  12.233   6.651  0.5473 -3.4210 -0.8212
26654SOL    HW288741   5.070  12.201   6.799  0.9837  2.5020  0.7580
26655SOL     OW88742   4.791   8.531   7.190 -0.1737  0.1977  0.5058
26655SOL    HW188743   4.763   8.589   7.261 -0.1929 -0.3492  0.9460
26655SOL    HW288744   4.858   8.582   7.144  0.3656  0.2743  1.3555
26656SOL     OW88745   8.552   4.736  11.240  0.1087  0.4587 -0.2406
26656SOL    HW188746   8.525   4.683  11.315  1.6288  0.7198  0.5243
26656SOL    HW288747   8.564   4.673  11.169  0.2490 -0.0100  0.1916
26657SOL     OW88748   5.350   1.858  12.321  0.5071 -0.5503 -0.0594
26657SOL    HW188749   5.272   1.913  12.313 -0.3530 -1.4852  1.4505
26657SOL    HW288750   5.353   1.809  12.239  2.5911  3.1712 -2.5436
26658SOL     OW88751   4.696   2.735   5.610 -0.3739 -0.3018  0.3285
26658SOL    HW188752   4.645   2.771   5.537 -0.5494  0.4482  0.8073
26658SOL    HW288753   4.787   2.738   5.580 -0.4973 -0.5383 -0.0771
26659SOL     OW88754  11.286  11.690  10.286  0.3369 -0.0961 -0.2535
26659SOL    HW188755  11.227  11.619  10.310 -1.1052  0.8484 -0.9205
26659SOL    HW288756  11.353  11.648  10.232 -0.2888 -1.0155 -0.3398
26660SOL     OW88757   6.324   7.528   5.893  0.6899 -0.5912 -0.6822
26660SOL    HW188758   6.336   7.469   5.818 -0.9993 -1.5429 -0.2623
26660SOL    HW288759   6.271   7.478   5.954 -1.1824  1.4911 -0.4672
26661SOL     OW88760   8.229  11.739  10.963 -0.7222 -0.3114 -0.4538
26661SOL    HW188761   8.159  11.795  10.929 -0.3582  0.5645  0.2072
26661SOL    HW288762   8.208  11.727  11.055  0.6638  1.0265  0.0698
26662SOL     OW88763   8.561   1.321   1.504 -0.2061 -0.1012 -0.0780
26662SOL    HW188764   8.516   1.304   1.421 -0.0815 -0.0233 -0.1599
26662SOL    HW288765   8.530   1.251   1.562 -0.1576 -0.2589 -0.2407
26663SOL     OW88766   6.751   2.828  10.055 -0.6503 -0.4695 -0.4999
26663SOL    HW188767   6.681   2.891  10.070  0.2933  0.9880 -1.8469
26663SOL    HW288768   6.729   2.754  10.111 -2.2786  0.6840  0.4879
26664SOL     OW88769   7.668   7.652   7.615  0.3723  0.1444  0.3061
26664SOL    HW188770   7.588   7.603   7.593  0.7267  0.0515 -0.8927
26664SOL    HW288771   7.647   7.696   7.697 -0.6694 -0.4257  0.3763
26665SOL     OW88772   4.417   7.017  10.166 -0.1024  0.5088 -0.0810
26665SOL    HW188773   4.385   6.942  10.215  2.1477 -1.0436 -0.8624
26665SOL    HW288774   4.436   7.083  10.232  2.5498 -1.4138  1.2428
26666SOL     OW88775   2.397   8.057   5.571 -0.1004 -0.6347 -0.1583
26666SOL    HW188776   2.404   7.974   5.618 -2.4083 -0.4050  0.7518
26666SOL    HW288777   2.355   8.033   5.488  1.8329 -0.7191 -1.1491
26667SOL     OW88778   3.403  12.598   6.680 -0.2519 -0.3561  0.0220
26667SOL    HW188779   3.385  12.686   6.714  0.9346  1.0992 -2.7442
26667SOL    HW288780   3.348  12.591   6.602  0.8488 -1.4115 -0.6899
26668SOL     OW88781   1.965   2.518   7.554 -0.3556 -0.8164 -0.1155
26668SOL    HW188782   1.892   2.477   7.601 -0.5117  0.2745  0.6258
26668SOL    HW288783   1.926   2.591   7.507  0.2582 -0.1603  0.3633
26669SOL     OW88784   8.638   5.417   6.361 -0.0814 -0.8067 -0.2191
26669SOL    HW188785   8.673   5.460   6.283 -1.5360 -0.0100 -0.4462
26669SOL    HW288786   8.671   5.469   6.434  1.2250 -1.5123 -0.2776
26670SOL     OW88787  10.853  10.399  11.928  0.0499  0.5862  0.0829
26670SOL    HW188788  10.835  10.306  11.921 -0.6592  0.6519  0.8881
26670SOL    HW288789  10.949  10.406  11.925  0.0782  0.0523 -2.2550
26671SOL     OW88790   7.359   7.407   1.079  1.0867  0.1313 -0.1804
26671SOL    HW188791   7.365   7.489   1.031  0.9524  0.4360  0.3104
26671SOL    HW288792   7.391   7.429   1.167 -2.0121  0.5152  0.9676
26672SOL     OW88793   8.124   0.409   6.571  0.1040 -0.1233  0.0917
26672SOL    HW188794   8.086   0.413   6.483 -1.2512 -1.9560  0.5273
26672SOL    HW288795   8.064   0.461   6.624 -0.8957 -1.5772  0.4556
26673SOL     OW88796  12.056  11.385   3.165  0.9500 -0.0118 -0.0113
26673SOL    HW188797  11.992  11.339   3.111 -0.3839  1.4048  0.2968
26673SOL    HW288798  12.139  11.340   3.147 -0.0299 -1.6224 -0.7417
26674SOL     OW88799   0.424   1.509  11.550 -0.2185 -0.0323  0.1028
26674SOL    HW188800   0.416   1.423  11.509  2.8520 -0.6356  0.5476
26674SOL    HW288801   0.393   1.570  11.484  0.8422 -1.2624 -1.6026
26675SOL     OW88802   9.171   3.360   1.268 -0.0543  0.2168  0.0766
26675SOL    HW188803   9.085   3.332   1.301 -0.7982 -1.6426 -2.9675
26675SOL    HW288804   9.163   3.455   1.259 -1.7265  0.1233  0.1398
26676SOL     OW88805   4.647   9.361   0.277  0.2924  0.0614 -0.1459
26676SOL    HW188806   4.692   9.403   0.350  0.3469 -1.1994  0.5765
26676SOL    HW288807   4.694   9.279   0.265 -2.0451 -1.5372  0.9427
26677SOL     OW88808   4.484  10.250  11.081  0.5198  0.1068  0.5642
26677SOL    HW188809   4.552  10.188  11.057  0.7197  0.5609 -0.0580
26677SOL    HW288810   4.532  10.330  11.105  0.2402  0.1915  0.8563
26678SOL     OW88811   6.347   6.566   1.304 -0.1548  0.0018 -0.1111
26678SOL    HW188812   6.410   6.506   1.265 -0.9241 -0.5330 -0.5509
26678SOL    HW288813   6.388   6.593   1.387  0.9656  0.2433 -0.7288
26679SOL     OW88814   3.664   8.843  12.125  0.4291 -0.5834 -0.0349
26679SOL    HW188815   3.683   8.923  12.076  0.0007 -0.8380 -0.6289
26679SOL    HW288816   3.676   8.868  12.217  1.1517 -0.0764 -0.2614
26680SOL     OW88817  12.478   0.047   3.612 -0.7428  0.1451 -0.1834
26680SOL    HW188818  12.513   0.063   3.700  1.7682 -1.0712 -0.8560
26680SOL    HW288819  12.402  -0.010   3.626 -0.3452 -0.0843  1.2070
26681SOL     OW88820   1.806   7.773   6.361 -0.3270  0.1430  0.0301
26681SOL    HW188821   1.837   7.707   6.298 -2.4841 -1.2994  0.3683
26681SOL    HW288822   1.879   7.835   6.368  0.5721 -0.4435 -2.7316
26682SOL     OW88823   4.694   1.745  11.790  0.0408 -0.0816 -0.2086
26682SOL    HW188824   4.649   1.666  11.758 -0.8248 -0.4902  1.8873
26682SOL    HW288825   4.785   1.732  11.765 -0.3178 -1.1024 -1.0830
26683SOL     OW88826   5.973   8.038   2.475  0.5468  0.7113  0.1153
26683SOL    HW188827   5.937   7.951   2.488  0.5023  0.7252  0.0889
26683SOL    HW288828   6.032   8.052   2.550  1.2090  0.3257 -0.3200
26684SOL     OW88829   0.150   1.081   3.529 -0.2764  0.6380 -0.2280
26684SOL    HW188830   0.240   1.066   3.501  0.0647  2.5731 -0.2644
26684SOL    HW288831   0.115   1.145   3.466 -1.1906  1.0420  0.6555
26685SOL     OW88832   1.888  10.351  12.398 -0.0694  0.4999 -0.6151
26685SOL    HW188833   1.792  10.349  12.388  0.0964  1.0075 -3.0418
26685SOL    HW288834   1.919  10.281  12.341  1.0255  0.1583  0.3654
26686SOL     OW88835   5.116   4.323   2.232  0.1889  0.8255  0.1752
26686SOL    HW188836   5.021   4.336   2.228  0.1156  0.3718  0.3875
26686SOL    HW288837   5.152   4.411   2.244 -0.2914  0.8529  1.6095
26687SOL     OW88838  10.067   3.253   8.148 -0.1913  0.1744  0.2082
26687SOL    HW188839   9.999   3.199   8.188 -0.0279  0.2741  0.6257
26687SOL    HW288840  10.062   3.233   8.054 -1.0288  0.4428  0.1914
26688SOL     OW88841  12.301   5.486   5.534 -0.3150 -0.2591  0.2810
26688SOL    HW188842  12.319   5.567   5.488  0.2665 -0.3268  0.3782
26688SOL    HW288843  12.388   5.453   5.559 -0.4677 -1.3610 -0.5394
26689SOL     OW88844   7.750   9.029  11.678 -0.3169  0.1505 -0.3751
26689SOL    HW188845   7.840   9.004  11.655 -0.3501 -0.7031  0.3674
26689SOL    HW288846   7.736   8.990  11.765 -0.6176  2.1827  0.5472
26690SOL     OW88847  11.804   3.904   8.043  0.6895  0.0452 -0.0110
26690SOL    HW188848  11.724   3.883   8.090  0.4722 -1.3375 -0.9624
26690SOL    HW288849  11.814   3.835   7.978  0.7817  2.0314 -2.2775
26691SOL     OW88850   4.940   7.105   3.940 -0.2732  0.2294  0.8434
26691SOL    HW188851   4.872   7.078   3.878  1.5885 -0.3880 -1.1050
26691SOL    HW288852   4.948   7.199   3.927  3.2296 -0.3094 -3.6849
26692SOL     OW88853   7.891   6.493   8.424  0.1846 -0.0707 -0.6673
26692SOL    HW188854   7.881   6.412   8.473  1.2589 -0.8290 -1.6479
26692SOL    HW288855   7.977   6.486   8.382 -0.1093  1.1539 -1.5405
26693SOL     OW88856   4.452   2.795   4.921 -0.8492  0.2116 -0.3958
26693SOL    HW188857   4.422   2.796   5.012  3.1174  0.7465  1.1330
26693SOL    HW288858   4.509   2.872   4.914  3.2811 -2.6475 -1.5385
26694SOL     OW88859   1.133   2.353   6.509  0.2557  0.2765 -0.7186
26694SOL    HW188860   1.151   2.411   6.435 -0.3592 -0.1901 -1.2486
26694SOL    HW288861   1.075   2.286   6.473 -1.4083  0.9525  0.5474
26695SOL     OW88862   1.739   3.714   5.157  0.4475  0.5420  0.5702
26695SOL    HW188863   1.823   3.758   5.139  0.0492  0.5329 -1.6891
26695SOL    HW288864   1.725   3.660   5.079 -0.8836 -0.7127  1.6543
26696SOL     OW88865   2.556   6.717   6.718  0.5365 -0.5646 -0.3960
26696SOL    HW188866   2.507   6.715   6.801  1.1403 -0.0792 -0.0243
26696SOL    HW288867   2.533   6.801   6.679 -0.9341 -1.4227 -1.4620
26697SOL     OW88868   9.151   5.946   5.767  0.1775 -0.8626  0.2501
26697SOL    HW188869   9.239   5.957   5.731  0.0105 -0.5523 -0.0667
26697SOL    HW288870   9.112   6.033   5.762  0.4363 -0.6305  1.9560
26698SOL     OW88871   2.371  11.092   6.139 -0.2031 -0.3331 -0.2566
26698SOL    HW188872   2.333  11.151   6.204 -0.0284 -0.8604  0.3358
26698SOL    HW288873   2.414  11.150   6.076 -1.3944  0.2385 -0.5649
26699SOL     OW88874   8.991   8.887   0.932  0.6099 -0.2111  0.7561
26699SOL    HW188875   9.000   8.980   0.954 -1.3950 -0.2348  1.9629
26699SOL    HW288876   8.927   8.854   0.995 -2.1766 -1.3837 -2.3646
26700SOL     OW88877  12.155  10.432   7.441  0.0099  0.1090 -0.7366
26700SOL    HW188878  12.122  10.473   7.361  1.0284 -0.5486 -1.5202
26700SOL    HW288879  12.187  10.505   7.494 -0.0717  0.4965 -1.2127
26701SOL     OW88880  11.635   8.095   8.313  0.2764  0.4373  0.2031
26701SOL    HW188881  11.699   8.132   8.252  0.5384  0.4486  0.4842
26701SOL    HW288882  11.622   8.005   8.283 -0.0121  0.6075 -0.1999
26702SOL     OW88883   2.280   2.103  10.647 -0.3421  0.2890 -0.3323
26702SOL    HW188884   2.324   2.024  10.677 -1.7100 -0.1853  0.5140
26702SOL    HW288885   2.333   2.175  10.680  0.1390 -0.2614  0.1018
26703SOL     OW88886   9.519  11.801  10.945 -0.4298 -0.6297 -0.1742
26703SOL    HW188887   9.427  11.826  10.936 -0.7405 -1.2766  1.0482
26703SOL    HW288888   9.531  11.784  11.038  1.3144  0.8704 -0.0659
26704SOL     OW88889   1.243   1.280   8.576 -0.2195 -1.2006  0.9006
26704SOL    HW188890   1.198   1.242   8.652 -1.2253  1.5038  1.7818
26704SOL    HW288891   1.216   1.371   8.576 -0.1343 -1.0388 -2.6700
26705SOL     OW88892   0.514  12.197   5.495 -0.5526  0.0322 -0.0356
26705SOL    HW188893   0.546  12.164   5.411  0.1895  0.0961  0.2161
26705SOL    HW288894   0.434  12.147   5.511 -0.6896  0.0029 -0.7697
26706SOL     OW88895   9.507   5.579   6.865 -0.1727  0.0524  0.2821
26706SOL    HW188896   9.590   5.606   6.904 -1.1819  1.5759  1.4777
26706SOL    HW288897   9.494   5.639   6.791 -1.2974  1.4509  1.5388
26707SOL     OW88898  12.217   0.453  12.458 -0.0781  0.1665  0.5686
26707SOL    HW188899  12.301   0.432  12.418  0.1167 -0.5158  1.2951
26707SOL    HW288900  12.151   0.415  12.399  0.1872 -0.4818  0.6759
26708SOL     OW88901   5.007   4.580   1.084 -0.1196 -0.5383  0.2328
26708SOL    HW188902   4.933   4.620   1.130 -0.1620 -0.3263 -0.0165
26708SOL    HW288903   5.065   4.551   1.154 -1.3523 -2.5480  0.5208
26709SOL     OW88904   7.359   8.852   6.065 -0.0944 -0.2261  0.1657
26709SOL    HW188905   7.373   8.891   6.151  1.6399 -0.5422  0.0741
26709SOL    HW288906   7.435   8.879   6.013 -1.0332 -0.1546 -1.2324
26710SOL     OW88907  10.754   1.253  12.076 -0.0642  0.7862 -0.1495
26710SOL    HW188908  10.806   1.215  12.005 -0.7654  2.2497 -1.5184
26710SOL    HW288909  10.702   1.179  12.109  0.6762 -0.0458 -0.7750
26711SOL     OW88910   7.565   4.760   9.238 -0.3683  0.4710 -0.6691
26711SOL    HW188911   7.586   4.827   9.302 -1.3285 -0.2790  0.4686
26711SOL    HW288912   7.473   4.738   9.255  0.0376 -1.4462 -0.6882
26712SOL     OW88913  12.332   0.154  12.571 -0.0320 -0.1649  0.3452
26712SOL    HW188914  12.400   0.113  12.625 -0.7350 -1.4540  0.2800
26712SOL    HW288915  12.250   0.118  12.604 -0.6328  0.6834 -0.1757
26713SOL     OW88916  11.563  11.932   7.557  0.3432  0.2929 -0.4597
26713SOL    HW188917  11.508  12.005   7.587  0.2924 -0.4727  1.4848
26713SOL    HW288918  11.647  11.973   7.536  0.0709  1.0186 -0.1758
26714SOL     OW88919   6.643   9.350   4.714  0.1348  0.1240  0.7713
26714SOL    HW188920   6.691   9.398   4.647 -0.4996 -0.7938 -0.3812
26714SOL    HW288921   6.585   9.292   4.665 -0.3885 -0.5410  2.1239
26715SOL     OW88922   8.561  10.626   6.911 -0.6468  0.1148  0.1794
26715SOL    HW188923   8.490  10.633   6.975 -0.2842 -0.5838  0.6684
26715SOL    HW288924   8.538  10.551   6.857  1.1908 -2.1206  2.2770
26716SOL     OW88925   8.629   0.063   3.784 -0.0447 -0.1662 -0.7349
26716SOL    HW188926   8.627   0.141   3.728 -1.9279  0.9264  0.7236
26716SOL    HW288927   8.574  -0.001   3.738 -0.3734  0.1939 -0.8496
26717SOL     OW88928   4.867  11.470  10.165  0.1944 -0.0431 -0.5250
26717SOL    HW188929   4.900  11.405  10.227  1.1094  0.2761 -0.6683
26717SOL    HW288930   4.804  11.521  10.216  2.9989  2.0950  1.0993
26718SOL     OW88931  10.394   2.840  10.924 -0.0734  0.1366 -0.1418
26718SOL    HW188932  10.482   2.848  10.886  0.5332 -1.7451  0.7554
26718SOL    HW288933  10.346   2.915  10.888  0.9423 -0.5176 -3.1714
26719SOL     OW88934   1.362   6.358   6.916 -0.0781 -0.9575 -0.0097
26719SOL    HW188935   1.337   6.321   7.001  0.4757 -1.5717 -0.1012
26719SOL    HW288936   1.301   6.319   6.853  0.9622 -2.3535 -0.2155
26720SOL     OW88937  12.306  11.266   2.837 -0.6309  0.3581 -0.3527
26720SOL    HW188938  12.281  11.213   2.913  1.2828 -1.2297 -0.7440
26720SOL    HW288939  12.269  11.220   2.762 -0.0655  0.2831 -0.5924
26721SOL     OW88940   3.745   2.922   6.360  0.7989  0.4757 -0.5532
26721SOL    HW188941   3.788   2.995   6.404  2.7507 -0.8461 -0.1850
26721SOL    HW288942   3.753   2.849   6.420 -3.0491  0.3608  0.0688
26722SOL     OW88943  10.719   6.699   5.388 -0.7217  0.5532 -0.4280
26722SOL    HW188944  10.808   6.693   5.422 -0.5811  0.5740 -0.7898
26722SOL    HW288945  10.714   6.632   5.320 -1.0329  0.4417 -0.2975
26723SOL     OW88946   4.983   1.710   3.064  0.1699  0.4942  0.4603
26723SOL    HW188947   4.927   1.643   3.024 -1.3152 -0.0581  3.2135
26723SOL    HW288948   5.072   1.681   3.046 -0.4240 -0.4668 -1.1365
26724SOL     OW88949   4.476   5.068   8.311 -0.0351  0.2416 -0.3600
26724SOL    HW188950   4.534   5.125   8.261 -0.4699  0.3221 -0.7756
26724SOL    HW288951   4.410   5.040   8.249 -0.2194 -0.1685  0.0137
26725SOL     OW88952  11.806   0.395   4.538 -0.0255  0.5632 -0.1520
26725SOL    HW188953  11.772   0.317   4.494 -0.9416  0.4951  0.6551
26725SOL    HW288954  11.730   0.454   4.542  0.6243  1.4493 -0.6393
26726SOL     OW88955   7.405   5.552   4.716  0.2930 -0.2312 -0.0714
26726SOL    HW188956   7.466   5.517   4.651  1.3183  0.2680  0.5905
26726SOL    HW288957   7.321   5.512   4.695  0.5193  0.1816 -1.9200
26727SOL     OW88958   4.522   7.161   7.896 -0.0056 -0.0279  0.3475
26727SOL    HW188959   4.585   7.136   7.828 -0.2405 -0.9023  0.4451
26727SOL    HW288960   4.567   7.143   7.978 -0.9648 -2.3055  0.4439
26728SOL     OW88961   8.388   5.135   4.565 -0.6322 -0.4620 -0.9735
26728SOL    HW188962   8.378   5.212   4.509 -1.5445 -0.0565 -0.2985
26728SOL    HW288963   8.304   5.089   4.557 -1.2694  0.2633  0.9593
26729SOL     OW88964  10.510   3.180   9.735 -0.1940 -0.2232  1.1181
26729SOL    HW188965  10.469   3.259   9.699  1.2020 -0.2731 -0.7928
26729SOL    HW288966  10.595   3.210   9.767  1.1853 -1.1466 -1.3736
26730SOL     OW88967   4.859   0.858   9.591  0.6604 -0.2797 -0.0932
26730SOL    HW188968   4.918   0.783   9.590  0.8599 -0.1601  1.0131
26730SOL    HW288969   4.823   0.859   9.680  0.8159  1.0520 -0.0210
26731SOL     OW88970   2.861   1.392   9.191  0.0983 -0.0019 -0.0194
26731SOL    HW188971   2.860   1.488   9.184  0.2879  0.0062  0.0764
26731SOL    HW288972   2.783   1.372   9.244 -0.7304  0.0080 -1.1917
26732SOL     OW88973   7.725   6.865   4.845 -0.1476  0.1710  0.1906
26732SOL    HW188974   7.730   6.770   4.853  1.8451  0.2573  0.3945
26732SOL    HW288975   7.697   6.881   4.755  1.4678 -0.6219 -0.4945
26733SOL     OW88976  10.981   9.143   2.213  0.6886 -0.0641  0.0942
26733SOL    HW188977  10.948   9.056   2.189 -1.0821 -0.1930  2.6198
26733SOL    HW288978  11.074   9.139   2.192  0.3524 -2.0058 -1.3386
26734SOL     OW88979   2.156   4.051   9.253  0.2798  0.2880 -0.0682
26734SOL    HW188980   2.168   4.008   9.169 -1.1801 -1.6745  0.6453
26734SOL    HW288981   2.061   4.060   9.262  0.4410  1.0403  1.0813
26735SOL     OW88982   4.638   4.980   9.750 -0.1353  0.4781  0.7780
26735SOL    HW188983   4.677   4.976   9.662  1.8884 -0.5547  1.6674
26735SOL    HW288984   4.547   4.954   9.736 -0.0858  1.1606 -1.1206
26736SOL     OW88985   0.713   2.117   2.257  0.0435  0.0274  0.0985
26736SOL    HW188986   0.780   2.057   2.288 -1.1417 -2.0872 -1.2258
26736SOL    HW288987   0.734   2.200   2.300  0.9483 -1.6219  3.0916
26737SOL     OW88988   6.760  10.084  10.172  0.1275 -0.1516  0.5249
26737SOL    HW188989   6.742  10.078  10.078 -2.7674  1.0591  0.8941
26737SOL    HW288990   6.853  10.105  10.177  0.8015 -2.0021 -1.9549
26738SOL     OW88991   2.732   3.420   3.049  0.1537 -0.1371 -0.0666
26738SOL    HW188992   2.809   3.469   3.020 -0.6300  0.7016 -0.8357
26738SOL    HW288993   2.729   3.433   3.143  0.9206 -0.1277 -0.0418
26739SOL     OW88994   1.982   6.516   2.746  0.8466 -0.1082 -0.3950
26739SOL    HW188995   1.952   6.433   2.710  0.6199  0.0205 -0.5043
26739SOL    HW288996   1.935   6.583   2.696  0.5248  0.0687  0.1383
26740SOL     OW88997  10.831   8.023  10.014 -0.3864 -0.5621  0.7434
26740SOL    HW188998  10.893   7.995   9.947 -2.2037 -0.9820 -0.8449
26740SOL    HW288999  10.864   8.108  10.044 -0.0993  0.1538 -1.4555
26741SOL     OW89000   4.763  12.106   5.436  0.3891  0.0286  0.3439
26741SOL    HW189001   4.839  12.050   5.416 -0.6830 -1.0327 -0.9590
26741SOL    HW289002   4.724  12.066   5.514  0.8611  0.2721  0.7110
26742SOL     OW89003   8.776   3.989   9.916 -0.4225  0.3152 -0.0756
26742SOL    HW189004   8.730   4.020   9.994  0.9220 -2.0921  1.8383
26742SOL    HW289005   8.821   3.909   9.945  0.1728 -0.6968 -3.3426
26743SOL     OW89006   5.075   4.490  10.906  0.4355 -0.4364  0.3294
26743SOL    HW189007   5.062   4.412  10.959  0.7361 -0.8269 -0.1551
26743SOL    HW289008   5.031   4.560  10.954 -0.3732 -1.0218  0.4600
26744SOL     OW89009   3.068   4.723   2.218  0.3830  0.8559 -0.3900
26744SOL    HW189010   3.088   4.735   2.126  3.5422  2.1811  0.3539
26744SOL    HW289011   3.108   4.640   2.242 -0.2661  0.6016 -0.1394
26745SOL     OW89012   9.291   5.733   2.104  0.4548 -0.3118 -0.4493
26745SOL    HW189013   9.340   5.804   2.145  1.0971 -1.6176  1.1456
26745SOL    HW289014   9.278   5.669   2.174 -1.1557 -1.2446 -1.5267
26746SOL     OW89015   4.843   5.589   6.150  0.7527  0.0236  0.0429
26746SOL    HW189016   4.871   5.581   6.241  1.5841 -0.5292 -0.2467
26746SOL    HW289017   4.855   5.502   6.113  1.8120  0.5601 -0.9646
26747SOL     OW89018   4.260   1.487  10.056 -0.0923 -0.6160  0.2774
26747SOL    HW189019   4.294   1.437   9.982 -1.1200  1.6196 -1.8443
26747SOL    HW289020   4.165   1.473  10.052 -0.4591  1.7408 -0.6567
26748SOL     OW89021   7.603   5.446   8.389  0.1866 -0.1990  0.0001
26748SOL    HW189022   7.529   5.469   8.332 -1.2469 -1.6540  1.1665
26748SOL    HW289023   7.665   5.402   8.331 -0.8472 -0.8920 -0.6165
26749SOL     OW89024   0.903  10.861   7.066  0.0043 -0.4349  0.2230
26749SOL    HW189025   0.810  10.843   7.052  0.0168 -0.7340  0.5067
26749SOL    HW289026   0.947  10.824   6.990 -0.1844  0.4478 -0.3238
26750SOL     OW89027   3.767  11.160  11.076 -0.4994  0.0461 -0.5722
26750SOL    HW189028   3.831  11.100  11.115  0.1312  2.2862  2.2521
26750SOL    HW289029   3.682  11.129  11.108 -0.2173  0.3701  0.5357
26751SOL     OW89030   0.479   8.386   5.911  0.0122 -0.4031 -0.4163
26751SOL    HW189031   0.504   8.367   5.820  1.8889  0.3407 -0.0996
26751SOL    HW289032   0.498   8.304   5.958 -0.8299 -0.7428 -0.6457
26752SOL     OW89033   1.239   0.704   3.355 -0.0997 -0.6156 -0.6103
26752SOL    HW189034   1.253   0.635   3.420  0.9617 -0.4493 -0.6435
26752SOL    HW289035   1.203   0.659   3.279  1.3930 -1.2984 -0.9464
26753SOL     OW89036   4.285  10.030   4.904  0.2398 -0.7212  0.4325
26753SOL    HW189037   4.326  10.042   4.818 -1.2567  1.0269 -0.0823
26753SOL    HW289038   4.201   9.988   4.885 -0.1993 -0.1128  1.0057
26754SOL     OW89039   2.104  11.734  10.173 -0.0264 -0.0284 -0.2677
26754SOL    HW189040   2.147  11.818  10.192  0.5214 -0.2209 -0.6425
26754SOL    HW289041   2.021  11.759  10.133  0.5898  0.3435 -1.3751
26755SOL     OW89042   4.484   9.359   6.861 -0.3158 -0.4065  0.1487
26755SOL    HW189043   4.490   9.442   6.909 -1.7323  0.6369 -1.3777
26755SOL    HW289044   4.545   9.369   6.788 -1.9231  0.1203 -1.1601
26756SOL     OW89045  11.295  12.012   6.620 -0.3114  1.1563  0.0416
26756SOL    HW189046  11.234  11.973   6.558  0.8297  1.0489 -1.0447
26756SOL    HW289047  11.343  11.938   6.657  0.8704  1.3901 -0.9698
26757SOL     OW89048   4.182   4.112   1.106 -0.3650  0.5700  0.3819
26757SOL    HW189049   4.153   4.135   1.195 -2.5858  1.1331 -0.4309
26757SOL    HW289050   4.148   4.024   1.092  0.0254  0.4629  0.0787
26758SOL     OW89051   4.620   3.950  11.285  0.1324  0.4354  0.5970
26758SOL    HW189052   4.601   3.959  11.192  1.0141 -0.6961  0.2866
26758SOL    HW289053   4.675   4.024  11.307  0.9014  0.0680 -0.0689
26759SOL     OW89054   6.788   5.543   7.639 -0.4819  0.2179  0.3972
26759SOL    HW189055   6.859   5.607   7.638 -0.1255 -0.0141  2.9341
26759SOL    HW289056   6.709   5.594   7.623  0.2481  0.1754 -4.8146
26760SOL     OW89057   8.901   1.023   4.756  0.0411 -0.2512  0.4273
26760SOL    HW189058   8.917   0.939   4.799  0.2935 -0.4730 -0.0941
26760SOL    HW289059   8.888   1.000   4.664  1.4559  0.4101  0.0397
26761SOL     OW89060  12.310   4.749  10.534  0.2399  0.0942 -0.1012
26761SOL    HW189061  12.377   4.801  10.580 -0.5885  2.0059 -0.9432
26761SOL    HW289062  12.287   4.802  10.458 -1.8123 -0.7716 -0.1477
26762SOL     OW89063   3.967   4.881   7.293 -0.2741 -0.9717 -0.3008
26762SOL    HW189064   3.988   4.955   7.237 -0.9486 -0.6726 -0.1703
26762SOL    HW289065   3.997   4.804   7.244 -1.3127 -0.7601 -1.3058
26763SOL     OW89066   7.896   9.305   9.740 -0.9681 -0.1700 -0.5885
26763SOL    HW189067   7.833   9.234   9.749 -0.4116 -1.0057 -2.7030
26763SOL    HW289068   7.979   9.262   9.720 -0.6775  1.0352 -2.1884
26764SOL     OW89069   9.414  12.516  11.451 -0.4125 -0.4151  0.6135
26764SOL    HW189070   9.466  12.512  11.371 -1.2974 -0.4984  0.0323
26764SOL    HW289071   9.414  12.609  11.475  1.2731 -0.6017  1.4942
26765SOL     OW89072   3.678   8.097   8.594 -0.1440 -0.1375 -1.1213
26765SOL    HW189073   3.771   8.077   8.584 -0.2160 -1.5111  0.5767
26765SOL    HW289074   3.676   8.192   8.608  1.0196 -0.1105 -0.9820
26766SOL     OW89075  11.800   3.018   0.507  0.3021  0.1697  0.4596
26766SOL    HW189076  11.800   3.099   0.557 -3.5620  0.5716  0.1418
26766SOL    HW289077  11.805   3.046   0.415  1.9465 -0.2072  0.4092
26767SOL     OW89078   9.756  11.518  12.533 -0.0418  0.6645 -0.0655
26767SOL    HW189079   9.749  11.460  12.457 -0.0984 -0.2571  0.6178
26767SOL    HW289080   9.717  11.601  12.504  2.9486  1.4902 -2.1144
26768SOL     OW89081   4.711   5.819   6.791  0.2374  0.2667  0.6469
26768SOL    HW189082   4.658   5.896   6.769 -2.2631 -1.5899 -0.1940
26768SOL    HW289083   4.666   5.779   6.866 -0.0985 -1.8324 -0.6116
26769SOL     OW89084   4.221   5.046   3.851  0.4933  0.7435  0.7503
26769SOL    HW189085   4.291   5.019   3.791 -0.3068 -1.3481  0.6732
26769SOL    HW289086   4.142   5.048   3.796  0.0220  0.3764  1.4029
26770SOL     OW89087   3.591   2.356   1.819  0.1307 -0.2372  0.0136
26770SOL    HW189088   3.535   2.354   1.742 -1.7116 -1.7214  1.2925
26770SOL    HW289089   3.575   2.443   1.857 -0.5088 -0.2555 -0.2029
26771SOL     OW89090   6.788   7.217  11.309  0.1099 -0.1618  0.3128
26771SOL    HW189091   6.870   7.168  11.297 -0.5256 -1.2829  0.4258
26771SOL    HW289092   6.811   7.308  11.287  1.1077 -0.6438 -0.7321
26772SOL     OW89093  10.843   2.461   1.573 -0.2023  0.0563 -0.3437
26772SOL    HW189094  10.833   2.473   1.478 -1.1306  1.7583 -0.0684
26772SOL    HW289095  10.829   2.367   1.587  0.0940 -0.2459 -1.8971
26773SOL     OW89096  12.108  11.428  10.172  0.4325  0.4404 -0.0106
26773SOL    HW189097  12.071  11.353  10.125 -0.5142  1.3092 -0.6835
26773SOL    HW289098  12.203  11.412  10.171  0.3980  0.1257 -1.7183
26774SOL     OW89099  11.936   1.917   5.708 -0.1798  0.0701 -0.4066
26774SOL    HW189100  11.914   1.869   5.788  0.7384 -1.4418 -0.9998
26774SOL    HW289101  12.017   1.962   5.729 -0.4962  0.5330 -0.1666
26775SOL     OW89102   4.636   2.812   0.518  0.0115 -0.2827 -0.0014
26775SOL    HW189103   4.667   2.734   0.565  0.9063  0.6098  0.9399
26775SOL    HW289104   4.598   2.867   0.586 -1.5199 -0.2993 -0.8029
26776SOL     OW89105  11.992  11.349   5.125 -0.4554  0.0809  0.2607
26776SOL    HW189106  11.974  11.443   5.119  1.1081  0.5623  2.1523
26776SOL    HW289107  12.082  11.343   5.156 -0.2357 -2.0766 -0.5931
26777SOL     OW89108   9.606   9.970   2.957  0.2733 -0.3742  0.7477
26777SOL    HW189109   9.698   9.979   2.985  0.9394 -0.9361 -1.1378
26777SOL    HW289110   9.603   9.885   2.912 -1.5522 -1.0718  2.0722
26778SOL     OW89111   9.653   1.755   2.455 -0.3665 -0.5222 -0.7358
26778SOL    HW189112   9.575   1.718   2.415 -0.3502 -1.4140  0.0222
26778SOL    HW289113   9.719   1.686   2.447  0.2474  0.0973 -1.0728
26779SOL     OW89114   0.238  11.169  11.341 -0.5252  0.3520 -0.2963
26779SOL    HW189115   0.209  11.200  11.256  2.3622  0.6583 -1.2905
26779SOL    HW289116   0.333  11.157  11.331 -0.3420 -1.2578  2.3763
26780SOL     OW89117  11.566   5.083   6.723  0.0646  0.6413 -0.0803
26780SOL    HW189118  11.609   5.026   6.659  0.9366  0.1509  0.9174
26780SOL    HW289119  11.627   5.088   6.797 -1.5580 -0.1078  1.3945
26781SOL     OW89120   4.447   5.852   1.758  0.1780 -0.4785  0.9066
26781SOL    HW189121   4.503   5.881   1.685 -0.6836  0.9759  0.7736
26781SOL    HW289122   4.362   5.835   1.717 -0.1608 -0.2017  1.4915
26782SOL     OW89123   9.331  12.513  10.270 -0.0299 -0.2095  0.1691
26782SOL    HW189124   9.274  12.589  10.260 -1.7218 -1.3146  1.0811
26782SOL    HW289125   9.407  12.547  10.318 -0.2874  1.0825 -0.2749
26783SOL     OW89126   6.791   7.450   0.429  0.0603  0.3786  0.2978
26783SOL    HW189127   6.848   7.501   0.486  0.0202  1.0742 -0.2758
26783SOL    HW289128   6.766   7.510   0.360 -2.6867  0.6054  1.3750
26784SOL     OW89129   9.874   3.531  11.837  0.8818  0.1374  0.1526
26784SOL    HW189130   9.815   3.487  11.774  1.6233 -1.2861  0.4176
26784SOL    HW289131   9.814   3.575  11.898  0.0666 -0.9370  0.1772
26785SOL     OW89132  11.406  12.141  10.966 -0.1032  0.1898  0.0241
26785SOL    HW189133  11.386  12.181  11.051  2.6490  1.1268  0.3067
26785SOL    HW289134  11.426  12.049  10.988 -0.6844  0.0944  0.1826
26786SOL     OW89135   7.173   7.877  11.330 -0.5351  0.8049 -0.3089
26786SOL    HW189136   7.126   7.819  11.389  0.3577  1.1873  0.8238
26786SOL    HW289137   7.212   7.943  11.388  1.6958  0.2927 -1.1051
26787SOL     OW89138   9.895   6.797   8.264 -0.2153 -0.1114 -0.1626
26787SOL    HW189139   9.819   6.790   8.322  0.9975 -0.6985  1.4304
26787SOL    HW289140   9.949   6.865   8.303  1.1866 -1.3388  0.1303
26788SOL     OW89141   2.455  10.326   7.219 -0.2428 -0.0480  0.2233
26788SOL    HW189142   2.550  10.333   7.216 -0.3711  1.6166 -0.8370
26788SOL    HW289143   2.432  10.348   7.310  0.3886 -1.1659  0.6836
26789SOL     OW89144   2.272  12.265   3.511 -0.4453 -0.3863 -0.3993
26789SOL    HW189145   2.211  12.192   3.522 -0.4557 -0.7727 -2.5964
26789SOL    HW289146   2.218  12.343   3.526 -1.3066 -0.7542 -1.4179
26790SOL     OW89147   2.142   1.301  11.263  0.1006  0.0560 -0.3602
26790SOL    HW189148   2.183   1.359  11.199 -0.5774  2.5392  1.3139
26790SOL    HW289149   2.097   1.235  11.210 -0.2124  1.8210 -2.4536
26791SOL     OW89150  11.711   4.399   8.444  0.1408 -0.2768  0.3942
26791SOL    HW189151  11.741   4.480   8.484 -3.1774  0.9788  0.6235
26791SOL    HW289152  11.700   4.339   8.518  0.4804 -0.2296  0.4889
26792SOL     OW89153   6.353   9.200   2.472 -0.6343  0.2108 -0.2374
26792SOL    HW189154   6.400   9.138   2.416  0.8337  2.1066 -1.2057
26792SOL    HW289155   6.273   9.219   2.424  0.2550  1.2266 -1.3827
26793SOL     OW89156  10.249   2.740   2.874  0.2648 -0.1931  0.3263
26793SOL    HW189157  10.234   2.653   2.837 -1.6151  0.2683 -0.1292
26793SOL    HW289158  10.299   2.786   2.807 -0.4004 -0.3520 -0.3040
26794SOL     OW89159  11.607   2.990   9.307  0.1266 -0.7615 -0.0756
26794SOL    HW189160  11.571   3.039   9.233  2.3157  0.5372 -0.3921
26794SOL    HW289161  11.690   2.955   9.274  1.3149  0.1149  1.8086
26795SOL     OW89162   1.862  11.812   0.132  0.0849 -0.2700 -0.3149
26795SOL    HW189163   1.935  11.776   0.182  1.1476 -0.4715 -1.9247
26795SOL    HW289164   1.806  11.737   0.113 -1.8614  0.2165  2.8568
26796SOL     OW89165   3.865   7.232   7.683 -0.1020  0.2700 -0.8194
26796SOL    HW189166   3.892   7.317   7.717 -1.1069 -0.3813  1.8751
26796SOL    HW289167   3.943   7.177   7.690 -0.5068 -0.1113  1.5853
26797SOL     OW89168   2.857   4.695   6.878  0.0440  0.2305  0.5070
26797SOL    HW189169   2.782   4.682   6.936 -1.4143 -1.3130 -1.5861
26797SOL    HW289170   2.858   4.790   6.862 -1.4998  0.2819  0.5459
26798SOL     OW89171   1.056  11.635  10.063 -0.5252  0.1822  0.1122
26798SOL    HW189172   1.035  11.586   9.984 -1.4558  0.7521 -0.0139
26798SOL    HW289173   1.087  11.569  10.125 -2.1369 -0.6401  0.0919
26799SOL     OW89174   6.894   6.622   5.352  0.5951  0.0347  0.4021
26799SOL    HW189175   6.804   6.634   5.319  0.9504 -0.2402 -0.7186
26799SOL    HW289176   6.907   6.527   5.348  0.3739 -0.0959  2.1424
26800SOL     OW89177   7.709  12.588   5.874 -0.4081 -0.2685  0.1129
26800SOL    HW189178   7.764  12.623   5.803  1.2798 -1.1423  0.9369
26800SOL    HW289179   7.628  12.638   5.867  0.2103  0.5996 -1.5953
26801SOL     OW89180   3.011   1.688   2.151  0.6236  0.2824  0.5174
26801SOL    HW189181   3.059   1.636   2.087 -1.9772 -1.1687 -0.4000
26801SOL    HW289182   3.022   1.640   2.233  0.4048 -0.2540  0.2368
26802SOL     OW89183  12.398   8.483  12.233 -0.4219  0.4334 -0.5636
26802SOL    HW189184  12.334   8.553  12.221  0.2250  1.1400  0.0518
26802SOL    HW289185  12.466   8.520  12.290  1.2272  0.1428 -2.2439
26803SOL     OW89186  11.230   1.264   1.362  0.5662  0.3465 -0.1113
26803SOL    HW189187  11.281   1.184   1.364  0.3902  0.1626 -1.5867
26803SOL    HW289188  11.224   1.292   1.454  1.6390 -0.6669  0.2876
26804SOL     OW89189   8.781   3.658   1.136  0.0935  0.5275  0.2889
26804SOL    HW189190   8.833   3.587   1.174 -1.2517 -0.1949  0.8789
26804SOL    HW289191   8.756   3.625   1.050 -2.0456 -0.5623  1.2586
26805SOL     OW89192   5.785   5.271   9.401 -0.4691  0.0383  0.0899
26805SOL    HW189193   5.754   5.361   9.393  0.6911  0.4128 -0.4594
26805SOL    HW289194   5.833   5.270   9.485 -1.4156 -0.3682  0.6329
26806SOL     OW89195  11.573   3.177   6.339  0.6323  0.0997 -0.0316
26806SOL    HW189196  11.622   3.108   6.384  0.3110 -0.1177 -0.0136
26806SOL    HW289197  11.483   3.145   6.337  0.2567  1.0204  0.9840
26807SOL     OW89198   9.149   4.231   2.412  0.1706  0.0612 -0.4176
26807SOL    HW189199   9.188   4.285   2.343  0.7475  3.6663  2.4087
26807SOL    HW289200   9.056   4.255   2.411  0.5285  1.6593  1.2116
26808SOL     OW89201   1.075   1.194   8.056 -0.3480  0.1164 -0.0393
26808SOL    HW189202   1.016   1.132   8.099  1.2717  0.0548  2.2769
26808SOL    HW289203   1.157   1.147   8.047 -0.1723  0.6808 -1.8954
26809SOL     OW89204   4.141   7.613   8.784  0.0147  0.1615  0.6743
26809SOL    HW189205   4.083   7.537   8.783 -0.1451  0.1596 -2.5998
26809SOL    HW289206   4.135   7.647   8.873 -0.0966 -3.4476  2.2039
26810SOL     OW89207   0.972   0.683   2.258  0.2137  0.8529 -0.2567
26810SOL    HW189208   0.967   0.658   2.350  0.2926  1.2943 -0.1307
26810SOL    HW289209   1.015   0.768   2.258 -0.5942  1.2746 -0.6284
26811SOL     OW89210   0.941   9.249   0.893  0.7605  0.0832  0.2706
26811SOL    HW189211   0.957   9.210   0.979  1.9069  0.7152  0.3690
26811SOL    HW289212   0.975   9.184   0.831  0.4741 -0.1137  0.3186
26812SOL     OW89213   9.111   7.431   0.950  0.0614  0.1692  0.2055
26812SOL    HW189214   9.149   7.345   0.930 -1.5886 -0.3251 -0.9508
26812SOL    HW289215   9.122   7.439   1.045  0.2522 -1.3299  0.3463
26813SOL     OW89216   5.182   8.064  11.608 -0.3657  0.2638  0.2383
26813SOL    HW189217   5.136   8.144  11.583 -0.6013  0.4485  1.2398
26813SOL    HW289218   5.114   8.008  11.645 -0.0583 -0.0811  0.2820
26814SOL     OW89219  12.419   1.745   8.518  0.1669 -0.7405  0.6005
26814SOL    HW189220  12.424   1.706   8.430 -1.8415 -1.4223  0.7367
26814SOL    HW289221  12.477   1.821   8.514  0.5614 -1.0922 -1.1387
26815SOL     OW89222  12.013   8.842   5.361 -0.4695  0.4845  0.3286
26815SOL    HW189223  12.044   8.780   5.294  1.5160  1.5147  0.2291
26815SOL    HW289224  11.922   8.818   5.375  0.0146 -1.9818 -0.2472
26816SOL     OW89225   3.436   4.724   9.443  0.7635 -0.2304  0.3613
26816SOL    HW189226   3.379   4.669   9.389  0.8957  1.5674 -1.7749
26816SOL    HW289227   3.504   4.665   9.476  1.0237 -1.3521 -2.0079
26817SOL     OW89228   1.354   4.117   8.964 -0.4991  0.0740  0.6055
26817SOL    HW189229   1.332   4.072   9.046  0.8539 -0.1524  0.8699
26817SOL    HW289230   1.407   4.054   8.915  1.1768  1.2228  0.8516
26818SOL     OW89231  10.375   5.415   1.039  0.0736 -0.0908  0.4852
26818SOL    HW189232  10.381   5.370   0.956 -1.1437 -1.0428  0.8849
26818SOL    HW289233  10.408   5.503   1.021 -0.4235 -0.1969 -1.0610
26819SOL     OW89234   3.941   3.376   5.475 -0.1780  0.1196  0.0273
26819SOL    HW189235   3.983   3.327   5.404 -2.7850 -0.7700 -1.0151
26819SOL    HW289236   3.895   3.447   5.430  0.5095  1.3200  1.1675
26820SOL     OW89237  10.473  10.237   4.207  0.6387 -0.8481 -0.3398
26820SOL    HW189238  10.540  10.284   4.257  0.3627 -0.3863 -0.3991
26820SOL    HW289239  10.523  10.188   4.141  0.8713  0.2899 -1.0456
26821SOL     OW89240   2.869   9.726   8.015 -0.0535 -0.7521  0.5547
26821SOL    HW189241   2.856   9.664   7.943 -1.4599 -0.8073  0.8240
26821SOL    HW289242   2.870   9.671   8.093 -1.1379 -0.4609  0.7804
26822SOL     OW89243   4.501  10.936   6.415  0.0109 -0.0285  0.2979
26822SOL    HW189244   4.558  10.917   6.340 -0.9635 -1.5878 -0.0805
26822SOL    HW289245   4.412  10.934   6.379 -0.4846 -0.9093  1.5108
26823SOL     OW89246   2.732   6.524   7.849  0.3499 -0.0729  0.7176
26823SOL    HW189247   2.805   6.472   7.881  0.1251 -0.5444  0.4812
26823SOL    HW289248   2.667   6.519   7.919 -0.1005 -1.0184  0.2501
26824SOL     OW89249  11.342   9.681   7.265  0.9114 -0.2250  0.4231
26824SOL    HW189250  11.371   9.770   7.248  0.3955  0.1789  1.5820
26824SOL    HW289251  11.358   9.668   7.358 -1.6016 -0.3477  0.9028
26825SOL     OW89252  11.412   5.220   0.416  0.0953 -0.3358  0.2899
26825SOL    HW189253  11.483   5.178   0.464  0.1610  0.3018  0.7492
26825SOL    HW289254  11.401   5.165   0.338  1.6685  0.0304 -0.2341
26826SOL     OW89255   4.748  10.651   1.021  0.0700 -0.5370 -0.0441
26826SOL    HW189256   4.773  10.725   1.077  0.4560 -0.2174 -0.6368
26826SOL    HW289257   4.725  10.582   1.083 -1.0087  0.3066  0.5282
26827SOL     OW89258   3.395  10.869   6.544 -0.7586  0.1880  0.4499
26827SOL    HW189259   3.332  10.938   6.562 -2.7349 -2.1600  3.4185
26827SOL    HW289260   3.345  10.788   6.549  1.9116 -1.6639 -0.3362
26828SOL     OW89261   5.576   9.949   3.598 -0.2315  0.5143 -0.5714
26828SOL    HW189262   5.546   9.858   3.592 -0.1422  0.4160  0.3725
26828SOL    HW289263   5.658   9.951   3.548 -0.0616 -0.0054 -0.3197
26829SOL     OW89264   2.430   6.864   3.440  0.3481  0.6511 -0.1921
26829SOL    HW189265   2.512   6.902   3.470 -0.0941 -0.0153  2.0965
26829SOL    HW289266   2.456   6.782   3.397  0.9405  0.7185  0.0217
26830SOL     OW89267   8.086   1.627   4.731 -0.3419 -0.6364 -0.9486
26830SOL    HW189268   8.012   1.667   4.777 -0.1562  0.4968 -1.6103
26830SOL    HW289269   8.153   1.617   4.798 -0.4353  0.0632 -0.7460
26831SOL     OW89270  12.199   7.133   2.656 -0.3659  0.0779  0.2118
26831SOL    HW189271  12.119   7.081   2.651 -0.0291 -0.3911 -0.4104
26831SOL    HW289272  12.171   7.216   2.695 -1.5239  0.6446 -1.6749
26832SOL     OW89273   3.008   0.018   0.737  0.3187 -0.1087  0.0638
26832SOL    HW189274   3.089  -0.007   0.693 -0.3785  1.4566 -2.2652
26832SOL    HW289275   3.017   0.112   0.752 -2.2349  0.8449 -3.2225
26833SOL     OW89276  12.285  11.641   9.628 -0.2500  0.5078 -0.3822
26833SOL    HW189277  12.296  11.692   9.708  1.9064  2.1693 -1.6291
26833SOL    HW289278  12.365  11.656   9.578 -1.6804 -0.0861 -3.0767
26834SOL     OW89279   4.402   0.437   3.071  0.0752 -0.2694  0.3901
26834SOL    HW189280   4.351   0.370   3.116  1.8002 -2.5234 -0.7846
26834SOL    HW289281   4.344   0.469   3.002  0.0008 -2.5253 -0.7077
26835SOL     OW89282   4.350   5.369   0.960  0.3952 -0.0410 -0.0442
26835SOL    HW189283   4.445   5.369   0.969  0.4574 -0.0179 -0.6534
26835SOL    HW289284   4.332   5.298   0.899  0.0816  0.4222 -0.4966
26836SOL     OW89285   9.044   6.240   3.785 -0.3653 -0.4538 -0.4038
26836SOL    HW189286   8.988   6.275   3.716 -1.5892  0.5472  1.0334
26836SOL    HW289287   8.987   6.183   3.836  0.7983 -2.0524 -0.8145
26837SOL     OW89288   4.082   1.257   4.218  0.3119  0.2103  0.1191
26837SOL    HW189289   4.093   1.163   4.225 -0.4519 -0.0491 -1.6036
26837SOL    HW289290   4.004   1.269   4.163 -0.1266  1.8527  1.0230
26838SOL     OW89291   2.273   6.231   9.921  0.0900  0.3385  0.1716
26838SOL    HW189292   2.233   6.185   9.994 -1.9898 -0.6938 -1.4972
26838SOL    HW289293   2.238   6.320   9.926  0.6151  0.5218  0.8494
26839SOL     OW89294   4.955   8.798  10.849  0.0596 -0.0792 -0.0036
26839SOL    HW189295   4.899   8.722  10.865  2.4948 -1.9505  0.2736
26839SOL    HW289296   4.976   8.831  10.936  0.2086 -0.0247 -0.0596
26840SOL     OW89297   1.223  11.894  12.239 -0.2066 -0.2823  0.2399
26840SOL    HW189298   1.270  11.842  12.304 -0.0607  0.7450  0.9886
26840SOL    HW289299   1.288  11.911  12.170 -1.1049 -3.7349 -1.6666
26841SOL     OW89300   5.579   1.080   1.351 -0.7158 -0.7862  0.0829
26841SOL    HW189301   5.580   1.174   1.331 -0.1608 -1.1588 -1.8180
26841SOL    HW289302   5.609   1.075   1.441  0.9706  0.7715 -0.3261
26842SOL     OW89303  10.923   1.663   1.678 -0.3369  0.2923 -0.0672
26842SOL    HW189304  10.906   1.663   1.772 -0.6497  0.7656 -0.1195
26842SOL    HW289305  11.007   1.620   1.669 -1.3075 -1.7985  0.2346
26843SOL     OW89306   5.353   4.587   5.850 -0.2481 -0.0121 -0.6722
26843SOL    HW189307   5.301   4.639   5.789 -0.0577 -1.1850 -1.8651
26843SOL    HW289308   5.289   4.532   5.896 -0.2524 -0.0468 -0.7206
26844SOL     OW89309   5.733   9.134   1.243 -0.2018  0.6263  0.6590
26844SOL    HW189310   5.671   9.203   1.221 -2.1696 -1.6307 -1.5303
26844SOL    HW289311   5.683   9.071   1.294 -0.3668 -1.9501 -2.3585
26845SOL     OW89312   4.753   4.766   2.534  0.1800  0.4821 -0.4197
26845SOL    HW189313   4.841   4.774   2.572  0.7231  1.3034 -1.7620
26845SOL    HW289314   4.766   4.711   2.457 -0.3512  1.1321 -0.9873
26846SOL     OW89315  11.288   3.824   0.080 -0.4020 -0.3199 -0.0765
26846SOL    HW189316  11.212   3.874   0.109 -1.1156 -1.3708 -0.1081
26846SOL    HW289317  11.350   3.831   0.153 -0.5720  0.4331  0.0027
26847SOL     OW89318   6.245   4.431  10.554 -0.7072 -0.0172  0.6620
26847SOL    HW189319   6.310   4.380  10.603  0.0611  0.9481  0.6843
26847SOL    HW289320   6.187   4.366  10.516  1.6290 -1.1183 -1.3022
26848SOL     OW89321   9.894   0.265   3.538 -0.1129  0.4866  0.1091
26848SOL    HW189322   9.910   0.171   3.549 -1.0958  0.4091  0.9737
26848SOL    HW289323   9.810   0.270   3.492  0.3239  0.9518 -0.6786
26849SOL     OW89324  10.715   1.085   8.619  0.7525 -0.7104  0.7150
26849SOL    HW189325  10.744   1.088   8.711  0.2804  1.0104  0.8363
26849SOL    HW289326  10.775   1.143   8.573  1.3389 -1.9894 -0.2152
26850SOL     OW89327   5.221   6.716  12.530 -0.2533  0.0850 -0.9428
26850SOL    HW189328   5.316   6.732  12.529  0.3128 -2.6731  0.2794
26850SOL    HW289329   5.192   6.754  12.613  0.1814 -0.8810 -0.3363
26851SOL     OW89330   3.043   9.433   8.147  0.7868  0.3506  0.0794
26851SOL    HW189331   3.062   9.376   8.222  0.9809  1.1154  0.6337
26851SOL    HW289332   3.114   9.416   8.085  0.0296 -1.0953 -0.4260
26852SOL     OW89333   8.949  12.529   5.111 -0.2208 -0.7050  0.4360
26852SOL    HW189334   8.863  12.564   5.086 -0.4564 -1.7439 -0.2452
26852SOL    HW289335   8.934  12.436   5.127  0.9508 -1.1289 -0.6874
26853SOL     OW89336   4.869  11.842   4.409  0.2511  0.1820  0.3220
26853SOL    HW189337   4.932  11.867   4.342  1.0627 -1.4609  0.4383
26853SOL    HW289338   4.786  11.880   4.379  1.0533  1.4321 -0.3949
26854SOL     OW89339   4.705   6.334  11.881 -0.3032 -0.7499  0.0152
26854SOL    HW189340   4.800   6.342  11.889 -0.3353  0.0637 -0.3060
26854SOL    HW289341   4.680   6.406  11.822 -0.8593 -2.3004 -1.7336
26855SOL     OW89342   2.519   9.473   0.378  0.4272 -0.3914  0.5047
26855SOL    HW189343   2.441   9.459   0.432 -0.5205  0.9867 -0.4387
26855SOL    HW289344   2.557   9.554   0.411  0.8786 -0.5179  0.2977
26856SOL     OW89345  11.924   3.545  11.887  0.2075 -0.4884 -0.1560
26856SOL    HW189346  12.017   3.524  11.893  0.3030  0.0192  0.1804
26856SOL    HW289347  11.880   3.470  11.927  0.3631 -1.5421 -1.8382
26857SOL     OW89348   8.064   2.591   7.886  0.1195  0.5505 -0.3522
26857SOL    HW189349   7.992   2.646   7.857  0.4816  1.4435  0.4027
26857SOL    HW289350   8.055   2.586   7.981  0.1734 -0.5920 -0.3919
26858SOL     OW89351  12.170   6.737   2.117  0.0319 -1.2567  0.2589
26858SOL    HW189352  12.110   6.799   2.075  0.9644 -0.3146  0.2692
26858SOL    HW289353  12.214   6.694   2.044  2.4331  1.1385  0.1088
26859SOL     OW89354   5.345   3.215  12.232 -0.0347  0.4452  0.3808
26859SOL    HW189355   5.405   3.289  12.225  0.7998 -0.3534 -1.7914
26859SOL    HW289356   5.400   3.144  12.265  0.4450 -0.4229 -2.0776
26860SOL     OW89357   4.009  10.813   5.433 -0.2698 -0.3374 -0.1465
26860SOL    HW189358   4.031  10.895   5.388 -1.1233  0.0083  0.0252
26860SOL    HW289359   4.073  10.806   5.503 -0.2876  0.2806 -0.0604
26861SOL     OW89360   8.443   1.137   2.386  0.8341 -0.4251 -0.6417
26861SOL    HW189361   8.411   1.049   2.368  0.4205 -0.0780 -1.7098
26861SOL    HW289362   8.438   1.182   2.301  2.1177  0.2842 -0.3737
26862SOL     OW89363   8.164   0.850  10.264 -0.6300  0.2250  0.0439
26862SOL    HW189364   8.170   0.770  10.213  0.2346  0.3663 -0.0812
26862SOL    HW289365   8.248   0.857  10.309 -1.6515 -0.3201  2.1449
26863SOL     OW89366   8.503   4.166   4.796  0.0501  0.3615 -0.3716
26863SOL    HW189367   8.538   4.254   4.811 -0.9647  0.6780  0.2488
26863SOL    HW289368   8.506   4.124   4.882  0.6850 -0.2724 -0.6997
26864SOL     OW89369   6.371   6.253   1.906 -0.3508  0.3597  0.2096
26864SOL    HW189370   6.439   6.210   1.958 -0.2879 -0.0408 -0.2050
26864SOL    HW289371   6.316   6.297   1.972  0.2826  0.6670  0.5491
26865SOL     OW89372   0.604   6.580   8.948 -0.4125 -0.5385 -0.4354
26865SOL    HW189373   0.524   6.586   9.001 -0.5711  0.0438 -0.7290
26865SOL    HW289374   0.584   6.513   8.882  0.0486 -1.7915  0.6735
26866SOL     OW89375  12.390   0.254   8.064  0.4206 -0.4392  0.4792
26866SOL    HW189376  12.386   0.233   7.971 -0.8735 -0.8554  0.6125
26866SOL    HW289377  12.475   0.297   8.075  1.6238 -2.4545 -0.4565
26867SOL     OW89378  10.459   8.491   1.655 -0.3447  0.0612  0.0414
26867SOL    HW189379  10.389   8.551   1.680 -0.5933 -1.0298  2.1565
26867SOL    HW289380  10.539   8.535   1.685 -0.3558  0.2000 -0.1337
26868SOL     OW89381   7.320   0.746   5.639 -0.3562 -0.3272 -0.0517
26868SOL    HW189382   7.411   0.773   5.649 -0.4847  1.5254 -2.9390
26868SOL    HW289383   7.279   0.769   5.723  1.3728  0.7618  0.5447
26869SOL     OW89384  12.468  12.136   2.507  0.8360  0.2842 -0.1928
26869SOL    HW189385  12.415  12.093   2.440  1.3562  0.0391 -0.4577
26869SOL    HW289386  12.537  12.072   2.526  0.5077  0.2121  0.8172
26870SOL     OW89387   7.696   0.406   9.339  0.4162  0.0527 -0.0138
26870SOL    HW189388   7.627   0.402   9.405  0.4793  2.0357  0.2194
26870SOL    HW289389   7.748   0.327   9.355 -0.5755 -0.3962  1.1604
26871SOL     OW89390   9.517   2.015   8.581 -0.3147  0.6109 -0.0128
26871SOL    HW189391   9.521   2.042   8.673  0.3100  1.5211 -0.2866
26871SOL    HW289392   9.435   2.051   8.548  0.2056  1.6736 -0.2033
26872SOL     OW89393   8.727   3.171   9.670 -0.0798 -1.0088  0.7436
26872SOL    HW189394   8.651   3.144   9.720  0.3690 -0.4298  1.7607
26872SOL    HW289395   8.787   3.209   9.734  0.3024  0.2255 -0.2900
26873SOL     OW89396   6.843   3.989  11.159 -0.2745  0.5696  0.1010
26873SOL    HW189397   6.903   4.062  11.140 -1.6868  1.5728 -0.7265
26873SOL    HW289398   6.863   3.965  11.249 -1.4663  3.7669  1.3769
26874SOL     OW89399   1.628   7.917  11.684  0.2821 -0.0796 -0.3477
26874SOL    HW189400   1.540   7.914  11.722 -0.0572  0.4556 -1.0650
26874SOL    HW289401   1.686   7.925  11.760 -0.4014  1.3783  0.0637
26875SOL     OW89402   2.325   1.615   8.743 -0.3272  0.6161 -0.5242
26875SOL    HW189403   2.353   1.588   8.656 -0.4242  1.6371 -0.8824
26875SOL    HW289404   2.230   1.625   8.736 -0.2978  1.0217 -0.4074
26876SOL     OW89405   2.822   6.763   8.531  0.7681 -0.2756  0.4337
26876SOL    HW189406   2.774   6.780   8.450  1.7149 -0.9475 -0.2769
26876SOL    HW289407   2.910   6.738   8.503  0.7883 -1.6663  1.6012
26877SOL     OW89408  11.439   8.110   1.212 -0.2154 -0.0028  0.0504
26877SOL    HW189409  11.492   8.124   1.133 -0.0726 -0.5765  0.0352
26877SOL    HW289410  11.367   8.054   1.183 -1.4909  1.7010 -0.1781
26878SOL     OW89411   4.583  10.104  12.591  0.3537 -0.2124  0.4548
26878SOL    HW189412   4.514  10.146  12.641 -0.2347 -0.0393 -0.4763
26878SOL    HW289413   4.597  10.020  12.634 -1.7323 -1.0555 -0.4010
26879SOL     OW89414   3.795   7.463   5.560  0.2758 -0.3012  0.0719
26879SOL    HW189415   3.835   7.548   5.543  1.2949 -0.3250  2.0795
26879SOL    HW289416   3.861   7.414   5.608 -1.1578 -1.3669  1.0609
26880SOL     OW89417   1.367   7.504   5.328  0.3639 -0.0811  1.1448
26880SOL    HW189418   1.369   7.541   5.416  1.0381  0.3977  0.9312
26880SOL    HW289419   1.291   7.546   5.286  1.4465  1.5514  0.7139
26881SOL     OW89420   8.928  10.920   2.062  0.4319 -0.1850  0.3153
26881SOL    HW189421   8.898  10.854   1.999 -0.4434  1.5162 -1.1308
26881SOL    HW289422   8.850  10.943   2.112  0.3175  0.9382 -0.3440
26882SOL     OW89423   6.901   0.739   1.886 -0.3888 -0.4951 -0.0855
26882SOL    HW189424   6.811   0.711   1.867 -0.4805 -1.3510  1.4536
26882SOL    HW289425   6.892   0.804   1.956  0.1566 -0.2144 -0.2736
26883SOL     OW89426   1.068   2.679   7.483  0.0040  0.3584 -0.2954
26883SOL    HW189427   1.101   2.589   7.488 -1.6827 -0.2208  2.2430
26883SOL    HW289428   1.114   2.726   7.552  1.1340  1.6109 -1.8321
26884SOL     OW89429   1.593   2.888   5.472 -0.0106 -0.8739  0.1125
26884SOL    HW189430   1.601   2.804   5.517  1.4427 -0.3380  0.9227
26884SOL    HW289431   1.571   2.865   5.382 -0.1913 -2.1016  0.4559
26885SOL     OW89432   2.841  11.644   0.949 -0.1042 -0.2745  0.0393
26885SOL    HW189433   2.923  11.607   0.915  0.0038 -2.2887  2.1820
26885SOL    HW289434   2.776  11.624   0.883  0.8438 -0.0875 -0.9764
26886SOL     OW89435   5.680   7.643   1.695 -0.1068 -0.1807 -0.3951
26886SOL    HW189436   5.710   7.644   1.786  0.5354 -0.6699 -0.5959
26886SOL    HW289437   5.678   7.735   1.670  0.5197 -0.0934 -0.1419
26887SOL     OW89438  10.836  12.346   1.374  0.0627  0.3901 -0.5745
26887SOL    HW189439  10.866  12.287   1.304  1.8814  0.4774  0.0784
26887SOL    HW289440  10.749  12.313   1.397  0.5167 -1.2831 -1.0855
26888SOL     OW89441   4.246   1.789  11.319 -0.4042 -0.1260  0.2486
26888SOL    HW189442   4.202   1.870  11.346 -1.0909  0.0687 -1.3406
26888SOL    HW289443   4.257   1.798  11.225  0.0317 -1.6474  0.1286
26889SOL     OW89444   8.696   9.334   0.841  0.1716  0.0234  0.4055
26889SOL    HW189445   8.602   9.324   0.854 -0.2219  0.8257 -1.5413
26889SOL    HW289446   8.707   9.347   0.747  2.2644 -0.3042  0.5390
26890SOL     OW89447   0.851   4.100   8.423  0.5370 -0.4763  0.3834
26890SOL    HW189448   0.867   4.169   8.359  2.3205  0.4248  1.7083
26890SOL    HW289449   0.756   4.102   8.438 -0.0167 -1.0738 -2.5239
26891SOL     OW89450   7.359   1.379   6.217  0.1851 -0.0534  0.1450
26891SOL    HW189451   7.357   1.383   6.121  2.5712 -0.3859  0.0176
26891SOL    HW289452   7.400   1.295   6.237  1.4349  0.8025  1.3917
26892SOL     OW89453   6.076   7.803   4.441 -0.1805 -0.0899 -0.3495
26892SOL    HW189454   6.019   7.875   4.416 -0.6824 -0.5868 -0.6740
26892SOL    HW289455   6.017   7.740   4.484  0.1644 -0.5007 -0.4750
26893SOL     OW89456   2.803   8.351   3.415  0.7901  0.5866  0.5827
26893SOL    HW189457   2.811   8.407   3.493 -2.5668 -0.6623  2.0426
26893SOL    HW289458   2.814   8.410   3.341  3.8364  1.8819  1.9221
26894SOL     OW89459   5.528   2.972  11.672  0.1501 -0.0618 -0.3991
26894SOL    HW189460   5.581   3.050  11.653 -2.0656  2.0350  1.3970
26894SOL    HW289461   5.531   2.963  11.767 -2.8777  0.3593 -0.1721
26895SOL     OW89462   6.503   3.243   8.043 -0.1845 -0.2774 -0.2086
26895SOL    HW189463   6.561   3.309   8.080 -2.3724  0.8205  1.4663
26895SOL    HW289464   6.558   3.194   7.981  2.3731  0.9164  1.0044
26896SOL     OW89465   7.774   4.775   4.556 -0.4110 -0.7049  0.1489
26896SOL    HW189466   7.708   4.758   4.623 -0.3935 -1.4750 -0.0309
26896SOL    HW289467   7.751   4.718   4.483  1.2240 -2.0197  0.5920
26897SOL     OW89468   4.253  10.968   0.075  0.4744  0.0217 -0.5106
26897SOL    HW189469   4.311  10.978   0.151 -0.0767  0.1803 -0.1074
26897SOL    HW289470   4.187  11.036   0.087  1.2609  1.0943 -1.9573
26898SOL     OW89471  10.912   2.757   4.933 -0.0856 -0.4407 -0.1286
26898SOL    HW189472  10.931   2.702   4.857  1.3322 -0.1119 -0.0484
26898SOL    HW289473  10.821   2.737   4.955  0.0923 -2.0431 -0.6776
26899SOL     OW89474   1.393   3.905   9.183  0.1401 -0.0423  1.0566
26899SOL    HW189475   1.440   3.974   9.229 -1.2620  1.1687  0.7300
26899SOL    HW289476   1.342   3.861   9.252 -1.5717  1.4493  0.7945
26900SOL     OW89477   1.694   7.291  12.068  0.8103  0.1039  0.3444
26900SOL    HW189478   1.675   7.204  12.103  1.1778  0.3656  1.2261
26900SOL    HW289479   1.674   7.285  11.975 -0.4574 -0.5316  0.6464
26901SOL     OW89480   0.847   9.767   8.588 -0.3033  0.0490 -0.7627
26901SOL    HW189481   0.791   9.827   8.637 -3.3040 -3.2016  0.2327
26901SOL    HW289482   0.920   9.749   8.646 -0.6360  0.8890 -0.0630
26902SOL     OW89483   3.840  11.213   5.545 -0.3701  0.0243  0.2663
26902SOL    HW189484   3.817  11.218   5.637  0.0869 -0.1066  0.3911
26902SOL    HW289485   3.789  11.139   5.511  0.4208 -0.7436  0.7144
26903SOL     OW89486  10.573   6.954   3.779 -0.4789  0.0527  0.0576
26903SOL    HW189487  10.639   7.023   3.771  0.4910 -1.0492 -2.3995
26903SOL    HW289488  10.580   6.925   3.870  0.8783  1.4495  0.4445
26904SOL     OW89489  12.463   7.352   1.753 -0.3122  0.4753  0.1898
26904SOL    HW189490  12.390   7.316   1.803  0.4709 -2.0882 -0.3589
26904SOL    HW289491  12.464   7.302   1.672  2.3400  0.0303  0.4063
26905SOL     OW89492   0.627   3.432   9.828 -0.1316 -0.3390 -0.3241
26905SOL    HW189493   0.633   3.416   9.922 -0.6866 -0.0436 -0.2337
26905SOL    HW289494   0.705   3.391   9.791  0.5945  0.3944  0.3778
26906SOL     OW89495   4.240   6.659   6.836 -0.1214  0.2182 -0.1866
26906SOL    HW189496   4.330   6.659   6.804  0.2180  0.5757  0.7385
26906SOL    HW289497   4.221   6.566   6.853  0.2604  0.1882  0.1043
26907SOL     OW89498  12.185   5.177   1.895 -0.5804  0.4264  0.0021
26907SOL    HW189499  12.195   5.270   1.876  0.1186  0.2771 -0.3763
26907SOL    HW289500  12.241   5.162   1.971 -2.1127  0.6805  1.2538
26908SOL     OW89501   0.504   0.551   3.907  0.3993 -0.1647  0.1476
26908SOL    HW189502   0.484   0.607   3.982 -0.5484 -0.5109  0.1599
26908SOL    HW289503   0.578   0.595   3.864 -0.7161  1.4438 -0.1995
26909SOL     OW89504   2.644   6.283   1.427  0.1248 -0.2593  0.0026
26909SOL    HW189505   2.580   6.296   1.497 -0.1882  1.0627 -0.4991
26909SOL    HW289506   2.600   6.224   1.365  0.1047 -0.8039  0.5235
26910SOL     OW89507   0.526   5.919   2.960 -0.5135  0.2099 -0.2226
26910SOL    HW189508   0.590   5.947   2.894  1.1271 -0.7497  0.8934
26910SOL    HW289509   0.567   5.845   3.004 -2.5780 -0.6905  0.3083
26911SOL     OW89510   9.807   3.559   2.265 -0.0765 -0.5899 -0.4036
26911SOL    HW189511   9.832   3.479   2.311  0.3309 -0.8989 -1.1475
26911SOL    HW289512   9.889   3.599   2.238 -0.3021 -0.3407 -0.7350
26912SOL     OW89513   4.991   6.203  12.294  0.0794 -0.0775  0.0983
26912SOL    HW189514   4.977   6.297  12.305 -0.5240 -0.3383  1.8321
26912SOL    HW289515   5.018   6.173  12.381  0.3743 -1.4934 -0.4616
26913SOL     OW89516   1.884   0.398   0.029  0.0195  0.1114  0.3701
26913SOL    HW189517   1.811   0.401   0.090  0.4247  1.6631  0.8280
26913SOL    HW289518   1.918   0.309   0.036 -1.5419 -0.5051  0.4561
26914SOL     OW89519   1.616   3.032  10.952  0.3012 -0.1920  0.5064
26914SOL    HW189520   1.668   3.089  11.009  0.4322 -1.4158  1.6521
26914SOL    HW289521   1.671   2.956  10.936 -1.2170 -1.6946  2.0529
26915SOL     OW89522   8.782   8.529   1.364  0.0047 -0.1723  0.0696
26915SOL    HW189523   8.722   8.475   1.312  1.0956 -0.5589 -0.8223
26915SOL    HW289524   8.867   8.485   1.356  0.6488  0.9845  0.3671
26916SOL     OW89525   8.483   7.378   4.816  0.3545  0.1680  0.0411
26916SOL    HW189526   8.569   7.355   4.782  0.9010 -0.2719  1.6258
26916SOL    HW289527   8.483   7.343   4.905 -1.0012  1.2319  0.4830
26917SOL     OW89528   6.030   1.965   5.367  0.2133 -0.1256 -0.4626
26917SOL    HW189529   5.999   1.953   5.278 -0.2483  1.8464 -0.6138
26917SOL    HW289530   5.950   1.965   5.420  0.4094 -0.2934 -0.1637
26918SOL     OW89531   9.885   0.612   6.483 -0.0800 -0.2094  0.0138
26918SOL    HW189532   9.799   0.632   6.521  0.3655 -0.8635  1.4507
26918SOL    HW289533   9.948   0.646   6.547  0.7076 -1.9062  0.1975
26919SOL     OW89534   2.930   6.654   1.203 -0.1977  0.1833  0.4446
26919SOL    HW189535   2.870   6.602   1.256 -0.6403 -0.1374 -0.3553
26919SOL    HW289536   3.010   6.602   1.199 -0.3792 -0.0802  0.2705
26920SOL     OW89537   3.054   6.929   1.258 -0.4733 -0.5448 -0.1441
26920SOL    HW189538   3.071   6.836   1.241  0.6486 -0.2015 -0.9959
26920SOL    HW289539   3.141   6.970   1.255 -0.8270  0.3768  1.2899
26921SOL     OW89540   0.235   2.709   4.627 -0.0543  0.2736 -0.1503
26921SOL    HW189541   0.238   2.804   4.611 -1.6710  0.4156  0.2107
26921SOL    HW289542   0.269   2.671   4.546  0.7210  1.1632 -0.2582
26922SOL     OW89543   8.968   9.471  12.208  0.4613  0.0374  0.1060
26922SOL    HW189544   8.952   9.397  12.267 -0.0739  0.2027  0.1681
26922SOL    HW289545   8.981   9.546  12.266  1.2127 -0.0420  0.0492
26923SOL     OW89546   1.686   4.390  12.102 -0.1543 -0.2805 -0.2960
26923SOL    HW189547   1.757   4.428  12.155  0.0320 -1.0329  0.0115
26923SOL    HW289548   1.607   4.403  12.155 -0.2070  0.2939 -0.5053
26924SOL     OW89549  10.905   7.694   1.643 -0.3267 -0.7798  0.7475
26924SOL    HW189550  10.915   7.600   1.626  0.7123 -0.3345 -1.5649
26924SOL    HW289551  10.986   7.718   1.689  1.0069 -0.5001 -1.5861
26925SOL     OW89552   1.263   5.609   0.797 -0.0945  0.2071  0.2454
26925SOL    HW189553   1.337   5.658   0.831 -0.9238 -0.2126  2.9467
26925SOL    HW289554   1.232   5.660   0.722  2.1102  1.0453 -0.1594
26926SOL     OW89555  10.316   6.863   6.309 -0.3223  0.0260  0.2260
26926SOL    HW189556  10.282   6.920   6.378 -1.6496 -0.3237 -0.1093
26926SOL    HW289557  10.253   6.872   6.238  1.0917  0.5020 -1.0266
26927SOL     OW89558  11.719   3.297   2.785  0.3939  0.3472  0.0873
26927SOL    HW189559  11.803   3.321   2.746  0.5437  0.5957  0.5512
26927SOL    HW289560  11.680   3.381   2.811  0.1365  0.2107  0.1384
26928SOL     OW89561   1.392  10.519   5.159  0.1268  0.0903  0.2370
26928SOL    HW189562   1.446  10.441   5.172 -0.3850 -0.0450  1.7156
26928SOL    HW289563   1.345  10.530   5.242 -1.8659  0.3951 -0.8613
26929SOL     OW89564   0.177   6.416   8.971 -0.3180  0.1661 -0.3918
26929SOL    HW189565   0.127   6.335   8.962 -0.5332  0.3470 -0.8258
26929SOL    HW289566   0.160   6.464   8.891  0.0635  0.5053 -0.2726
26930SOL     OW89567   5.523   8.755   6.700 -0.0071 -0.9414 -0.3520
26930SOL    HW189568   5.480   8.772   6.616 -0.5632  1.0276  0.2685
26930SOL    HW289569   5.456   8.711   6.752 -0.9336  1.0175  0.2015
26931SOL     OW89570   6.988   2.078   5.974  0.0025  0.4626 -0.0783
26931SOL    HW189571   7.077   2.079   6.011  0.8607 -1.0792 -1.8822
26931SOL    HW289572   6.940   2.018   6.030 -0.3484  2.3170  1.7094
26932SOL     OW89573   1.973   1.544   5.767  0.0661  0.2793 -0.0272
26932SOL    HW189574   1.984   1.449   5.767  0.6696  0.3454 -0.4377
26932SOL    HW289575   1.901   1.560   5.705 -1.1861 -0.0169  1.2882
26933SOL     OW89576   8.583  11.022  11.642  0.2169  0.0388  0.4596
26933SOL    HW189577   8.517  11.052  11.705  0.0916  0.0498  0.3214
26933SOL    HW289578   8.660  11.004  11.696  0.2487  0.4741  0.5652
26934SOL     OW89579   3.460   3.572  10.733  0.0066 -0.2738 -0.0306
26934SOL    HW189580   3.420   3.579  10.820  1.6977  0.2930  0.7432
26934SOL    HW289581   3.406   3.507  10.687  0.3991 -2.3846  2.2405
26935SOL     OW89582   4.058   8.002   9.370  1.0506 -0.2527  0.0034
26935SOL    HW189583   4.048   8.013   9.465  1.2255  1.9915 -0.1759
26935SOL    HW289584   4.112   7.924   9.360 -0.2570 -1.4705  1.6697
26936SOL     OW89585  10.127   0.461   3.317 -0.3250 -0.0362  0.0140
26936SOL    HW189586  10.142   0.371   3.290  0.9476  0.5331 -1.3549
26936SOL    HW289587  10.035   0.477   3.296 -0.3029 -0.7315 -0.6738
26937SOL     OW89588   7.859   7.615  10.871 -0.0747  0.0906 -0.3706
26937SOL    HW189589   7.887   7.539  10.819 -1.1630 -0.1387 -0.6625
26937SOL    HW289590   7.763   7.611  10.867 -0.1417  1.4059 -0.2710
26938SOL     OW89591  11.898   5.812   9.707 -0.1141 -0.8008  0.0869
26938SOL    HW189592  11.856   5.812   9.621  0.2052  0.3968 -0.0912
26938SOL    HW289593  11.943   5.897   9.712  0.1162 -0.9714  1.3202
26939SOL     OW89594   3.817  10.071   3.882  0.3089 -0.0842  0.1288
26939SOL    HW189595   3.882  10.055   3.814 -0.6443 -0.5038 -0.6921
26939SOL    HW289596   3.733  10.068   3.837 -0.2670  0.9506  1.0863
26940SOL     OW89597   5.210   6.716   0.406 -0.1997 -0.1587  0.2307
26940SOL    HW189598   5.284   6.714   0.467  0.0498 -0.0918 -0.0684
26940SOL    HW289599   5.214   6.804   0.368  1.8687 -1.3528 -2.6124
26941SOL     OW89600   5.862  11.188   8.576  0.6092 -0.2856  0.3664
26941SOL    HW189601   5.777  11.216   8.542  1.4773  1.0511 -0.8023
26941SOL    HW289602   5.856  11.201   8.670 -1.2450 -2.3876  0.6222
26942SOL     OW89603   6.442   3.521   2.977  0.2002 -0.0692  0.5332
26942SOL    HW189604   6.505   3.500   2.909  2.1692 -0.0534  2.2511
26942SOL    HW289605   6.474   3.602   3.016 -0.1984 -0.6690  2.2025
26943SOL     OW89606  11.654   6.243   0.793 -0.3815  0.6849  0.7035
26943SOL    HW189607  11.721   6.308   0.812 -0.6089  0.9329  0.6626
26943SOL    HW289608  11.592   6.287   0.735  0.8479 -0.3798 -1.5531
26944SOL     OW89609   7.813   2.591   1.769  0.1585 -0.6899  0.4212
26944SOL    HW189610   7.766   2.649   1.829 -0.5242 -0.6965 -0.0964
26944SOL    HW289611   7.868   2.536   1.825  1.3000  0.8601  0.8924
26945SOL     OW89612   4.581   1.958   2.740 -0.0851  0.3671  0.4914
26945SOL    HW189613   4.536   1.922   2.664 -0.9644 -0.2916  1.3111
26945SOL    HW289614   4.563   2.052   2.737  0.1639  0.3965 -0.2853
26946SOL     OW89615  11.718  12.048   9.865 -0.1546 -0.1440  0.1495
26946SOL    HW189616  11.761  12.070   9.947 -1.2178 -1.0361  0.9694
26946SOL    HW289617  11.657  11.978   9.887  0.6313 -1.5021 -1.6991
26947SOL     OW89618  11.015   2.742   4.638  0.1536 -0.3731  0.1863
26947SOL    HW189619  10.997   2.698   4.555 -0.0709  1.7753 -0.9929
26947SOL    HW289620  10.942   2.803   4.650  2.1129  2.2986 -0.2467
26948SOL     OW89621   7.830   7.603   8.735  0.0316  0.6756  0.3058
26948SOL    HW189622   7.794   7.606   8.824  1.2859 -1.2058  0.9438
26948SOL    HW289623   7.755   7.621   8.678 -1.2284  0.0461  1.6947
26949SOL     OW89624  11.927   2.435  12.066 -0.0498 -0.4315  0.3522
26949SOL    HW189625  11.960   2.441  12.156  0.1305 -0.1230  0.2645
26949SOL    HW289626  11.839   2.472  12.070  1.3635  3.4533 -0.3642
26950SOL     OW89627   2.016   4.047   0.334  0.6280 -0.1264  0.1288
26950SOL    HW189628   1.935   4.096   0.322  0.0404 -1.4425 -1.5255
26950SOL    HW289629   2.001   3.963   0.291  3.1032 -0.1486 -0.8491
26951SOL     OW89630   0.962   1.819   3.655 -0.2085 -0.2390  0.1277
26951SOL    HW189631   0.917   1.891   3.699 -0.1615 -0.6433  0.8543
26951SOL    HW289632   0.893   1.757   3.634  0.0372 -1.0771  1.6675
26952SOL     OW89633   4.391   5.365   2.038  0.4183 -0.2041  0.3733
26952SOL    HW189634   4.404   5.346   1.945  2.4696  1.1987  0.3090
26952SOL    HW289635   4.357   5.283   2.074  1.8076 -1.5600 -1.2087
26953SOL     OW89636   3.664  10.070   1.919 -0.0222 -0.2776 -0.1977
26953SOL    HW189637   3.687  10.138   1.856  0.3168 -0.5990 -0.4222
26953SOL    HW289638   3.734  10.006   1.912 -0.9738 -1.2743 -0.8915
26954SOL     OW89639   7.042   4.572   3.293  0.1492 -0.3203 -0.1662
26954SOL    HW189640   7.050   4.496   3.351 -1.1451 -1.8845 -1.9013
26954SOL    HW289641   6.967   4.552   3.238 -0.4923  2.4656 -0.4342
26955SOL     OW89642   5.133  11.003   2.409  0.6820 -0.5013 -0.2043
26955SOL    HW189643   5.090  11.085   2.432  0.4499 -0.5741 -0.3685
26955SOL    HW289644   5.087  10.974   2.330 -0.8217 -1.9696  1.1300
26956SOL     OW89645   7.965   0.920  10.465  0.0614 -1.0552  0.0732
26956SOL    HW189646   8.053   0.955  10.480  0.0175 -0.2027 -1.4160
26956SOL    HW289647   7.967   0.888  10.375 -0.8349 -2.0617  0.3891
26957SOL     OW89648   8.349   4.097   0.215 -0.2499  0.1589  0.1686
26957SOL    HW189649   8.293   4.166   0.252 -1.9935 -0.2163 -1.6025
26957SOL    HW289650   8.424   4.145   0.179 -0.1452  0.8382  1.2359
26958SOL     OW89651   0.523   8.215   0.976 -0.8284 -0.2167  0.0872
26958SOL    HW189652   0.535   8.281   0.908 -1.8776 -0.1790 -0.0722
26958SOL    HW289653   0.556   8.134   0.937 -0.7119 -0.0453 -0.1745
26959SOL     OW89654   4.963  11.114   6.592  0.5646  0.4966 -0.6744
26959SOL    HW189655   4.881  11.144   6.554 -0.6787 -0.8817  0.7431
26959SOL    HW289656   5.005  11.063   6.523 -0.7310 -0.3949 -0.8418
26960SOL     OW89657   0.560   0.581   7.117  0.0951 -0.1033  0.0467
26960SOL    HW189658   0.595   0.514   7.059 -1.2337 -0.0536 -0.8431
26960SOL    HW289659   0.531   0.532   7.195  0.0218 -0.4353 -0.1883
26961SOL     OW89660   6.520  10.843   4.971 -0.0434  0.3362 -0.3335
26961SOL    HW189661   6.603  10.876   5.006 -0.1878  1.2155 -0.7704
26961SOL    HW289662   6.545  10.780   4.904  0.2420 -0.8738  0.8758
26962SOL     OW89663   6.573   9.172   5.195  0.3070  0.2084  0.0668
26962SOL    HW189664   6.554   9.238   5.129 -1.6296  0.4775  0.8177
26962SOL    HW289665   6.653   9.129   5.164  0.5005  1.5503 -1.4543
26963SOL     OW89666   2.827  10.138   2.108 -0.0525 -0.3472  0.8103
26963SOL    HW189667   2.870  10.167   2.188  1.9752  1.7999 -0.8748
26963SOL    HW289668   2.881  10.065   2.077  1.5437  1.2097 -0.3797
26964SOL     OW89669  11.031   0.727   1.840 -0.9581 -0.1184  0.3218
26964SOL    HW189670  11.113   0.772   1.858 -1.5218  1.4180 -0.6979
26964SOL    HW289671  10.995   0.707   1.926 -1.1780  2.4055  0.8959
26965SOL     OW89672   5.088   3.056  10.464 -1.0161 -0.3132  0.2326
26965SOL    HW189673   5.034   2.978  10.453  0.4619 -2.1772  4.2523
26965SOL    HW289674   5.178   3.024  10.457 -0.3495  0.7337  2.7683
26966SOL     OW89675   2.206   8.660   1.425  0.4813 -0.1999 -0.1837
26966SOL    HW189676   2.294   8.655   1.460  1.5477 -1.7879 -2.7392
26966SOL    HW289677   2.218   8.663   1.330 -2.2030 -2.4126 -0.7318
26967SOL     OW89678   0.274   2.575  11.324 -0.8170  0.2567  0.3776
26967SOL    HW189679   0.210   2.544  11.388 -0.6499  1.3129  1.0799
26967SOL    HW289680   0.315   2.651  11.366  0.5839 -0.1223 -0.2334
26968SOL     OW89681   7.156   9.782   1.294  0.1669 -0.1826 -0.7034
26968SOL    HW189682   7.225   9.848   1.302  0.1132 -0.2290  0.2442
26968SOL    HW289683   7.076   9.832   1.276  0.4450 -0.1327 -1.8694
26969SOL     OW89684   1.629  12.610   1.001 -0.0230 -0.4691  0.0153
26969SOL    HW189685   1.618  12.619   1.096  1.3735 -0.8897  0.2492
26969SOL    HW289686   1.724  12.609   0.988 -0.1693 -2.0329 -1.2242
26970SOL     OW89687   6.721  11.661   4.750 -0.2075 -0.0289  0.1027
26970SOL    HW189688   6.658  11.638   4.819  0.7126  0.0890  1.0077
26970SOL    HW289689   6.704  11.597   4.681 -2.9404  1.4514 -0.7645
26971SOL     OW89690  11.059   0.204   2.957  0.1687  0.9749 -0.0049
26971SOL    HW189691  11.043   0.169   3.044  0.2828  0.5743 -0.1442
26971SOL    HW289692  11.048   0.130   2.898 -1.4071  1.5545 -0.4883
26972SOL     OW89693   8.766   6.020   2.833 -0.0488  0.3227  0.2066
26972SOL    HW189694   8.783   6.025   2.739  0.0135 -0.0111  0.2005
26972SOL    HW289695   8.788   5.930   2.858 -1.4742 -0.0422  0.2578
26973SOL     OW89696  11.945   0.149   9.104 -0.2410  0.0149  0.4706
26973SOL    HW189697  11.953   0.204   9.181 -0.9777  0.3949  0.2836
26973SOL    HW289698  12.035   0.122   9.084  0.2050  1.5355  0.2847
26974SOL     OW89699  12.308   5.645   8.224  0.3781 -0.3421  0.3364
26974SOL    HW189700  12.381   5.679   8.275  0.9613 -0.8045 -0.1703
26974SOL    HW289701  12.284   5.716   8.165  1.4267 -0.7004 -0.5477
26975SOL     OW89702   4.197   0.938   0.812 -0.4006 -0.3892  0.1907
26975SOL    HW189703   4.252   0.862   0.800  0.2587  0.1482 -0.2231
26975SOL    HW289704   4.202   0.986   0.730 -0.0350  0.5980  0.7724
26976SOL     OW89705   6.316   1.955   5.692  0.1225  0.4044 -0.3764
26976SOL    HW189706   6.332   1.874   5.741  2.3046  0.1790 -1.3660
26976SOL    HW289707   6.396   2.006   5.702 -1.0520  2.2829 -0.1525
26977SOL     OW89708   0.818   9.725   6.008  0.0762 -0.0457 -0.1318
26977SOL    HW189709   0.783   9.721   5.919 -1.0463  1.7536  0.1932
26977SOL    HW289710   0.880   9.797   6.006 -0.1150  0.1417  0.5908
26978SOL     OW89711   7.213   9.148   1.579 -0.7636 -0.3853  0.7776
26978SOL    HW189712   7.232   9.185   1.493 -2.0625  2.8478  1.7295
26978SOL    HW289713   7.198   9.055   1.562 -1.1527  0.1442 -2.5021
26979SOL     OW89714   9.594  12.357  11.608 -0.1209 -0.1809  0.4452
26979SOL    HW189715   9.610  12.276  11.559  1.8448  0.6583 -0.4164
26979SOL    HW289716   9.545  12.412  11.547  0.6318  0.1318  0.0976
26980SOL     OW89717  11.716   1.331   5.468 -0.0825 -0.1255  0.0929
26980SOL    HW189718  11.650   1.301   5.405  0.9432 -2.2893 -0.0574
26980SOL    HW289719  11.793   1.350   5.414  0.2210 -0.1625  0.5111
26981SOL     OW89720   5.733   0.544   1.712 -0.5327 -0.9487 -0.4588
26981SOL    HW189721   5.777   0.617   1.755 -0.3615 -0.3044 -1.6857
26981SOL    HW289722   5.745   0.470   1.771  1.2370 -0.5127 -0.2292
26982SOL     OW89723  10.064   0.137   4.240  0.0927 -0.1626  0.5980
26982SOL    HW189724  10.058   0.207   4.305 -0.4502 -0.1775  0.5712
26982SOL    HW289725  10.157   0.130   4.221  0.1241  0.7915  0.3405
26983SOL     OW89726   9.597   3.029   3.437 -0.0248 -0.1697 -0.2423
26983SOL    HW189727   9.624   2.958   3.495  2.0976  1.4492  0.9107
26983SOL    HW289728   9.544   3.086   3.492 -1.3721 -0.6010 -1.0496
26984SOL     OW89729  10.078   9.833  10.811  0.0811  0.4948  0.2418
26984SOL    HW189730  10.095   9.902  10.875 -0.4346  2.2086 -1.3642
26984SOL    HW289731  10.148   9.842  10.747 -0.6096  0.2989 -0.5716
26985SOL     OW89732   8.017   5.007   0.314  0.5444 -0.1727  0.6831
26985SOL    HW189733   7.928   5.013   0.348  0.0742 -0.0313 -0.5188
26985SOL    HW289734   8.008   4.962   0.230  1.3798  1.1893 -0.1880
26986SOL     OW89735   6.801   6.136   5.828 -0.6033  0.2075  0.1060
26986SOL    HW189736   6.884   6.163   5.867  0.1015  0.2067 -1.3314
26986SOL    HW289737   6.811   6.042   5.812 -1.0700  0.1120  0.3700
26987SOL     OW89738   0.338   4.972  12.312  0.0824  0.4364  0.0657
26987SOL    HW189739   0.349   5.043  12.247  0.4556  0.6743  0.3861
26987SOL    HW289740   0.365   5.011  12.395  2.2045 -0.6602 -0.0525
26988SOL     OW89741   4.794   5.270   6.053  0.4660 -0.0774 -0.5652
26988SOL    HW189742   4.763   5.281   5.963  0.0588  0.4097 -0.3688
26988SOL    HW289743   4.888   5.286   6.048  0.5140 -0.4564 -0.9715
26989SOL     OW89744   7.729  10.475   1.294  0.0750  0.1111  0.3540
26989SOL    HW189745   7.648  10.463   1.246 -0.5570  0.1528  1.3784
26989SOL    HW289746   7.782  10.398   1.273 -0.5260 -0.2761  0.2598
26990SOL     OW89747   6.680   1.669   3.238  0.0546 -0.4874 -0.1328
26990SOL    HW189748   6.742   1.732   3.202 -0.2737  2.0537  3.2177
26990SOL    HW289749   6.594   1.702   3.211 -0.0487 -2.0366 -1.8881
26991SOL     OW89750   6.712   8.368  12.352 -0.1273 -0.0366 -0.3092
26991SOL    HW189751   6.654   8.425  12.302 -0.2098 -1.7252 -2.2917
26991SOL    HW289752   6.791   8.421  12.367  0.6456  0.0815 -3.8922
26992SOL     OW89753  11.045   5.097   1.733 -0.2250  0.0731  0.1785
26992SOL    HW189754  11.079   5.008   1.744 -0.0219  0.4125  2.7526
26992SOL    HW289755  11.057   5.115   1.639 -2.1794 -3.3285 -0.9322
26993SOL     OW89756   6.982   2.091   1.738  0.4787 -0.6742  0.1230
26993SOL    HW189757   7.023   2.173   1.768 -0.5297 -0.4277  0.8699
26993SOL    HW289758   7.020   2.076   1.652  0.0856  1.0364 -0.3903
26994SOL     OW89759   1.931   2.097  11.747  0.0363 -0.0481 -0.3296
26994SOL    HW189760   1.858   2.051  11.788 -0.1500  0.8404  0.3699
26994SOL    HW289761   1.959   2.039  11.676 -1.5444 -0.2890 -0.8183
26995SOL     OW89762   0.624   4.119  10.181  0.2496  0.9788 -0.4537
26995SOL    HW189763   0.588   4.204  10.156 -0.2186  0.5660 -1.2261
26995SOL    HW289764   0.717   4.134  10.191  0.2924  1.4155 -1.3945
26996SOL     OW89765   2.869   5.704   0.275 -0.1484 -0.5492 -0.4066
26996SOL    HW189766   2.795   5.712   0.215 -0.1426 -0.8239 -0.4522
26996SOL    HW289767   2.838   5.647   0.345 -0.5318  0.6655  0.4562
26997SOL     OW89768   2.166   7.198   3.374  0.0696  0.0294  0.1840
26997SOL    HW189769   2.231   7.161   3.314  0.3193  0.5360  0.1384
26997SOL    HW289770   2.181   7.152   3.456 -0.4140 -0.8211 -0.1897
26998SOL     OW89771   1.436   5.110   6.125 -0.0790  0.0513 -0.2655
26998SOL    HW189772   1.427   5.089   6.218  1.2627 -0.3011 -0.1867
26998SOL    HW289773   1.427   5.025   6.080  1.0321 -0.0622 -0.2998
26999SOL     OW89774   9.716   3.002   4.539  0.1776 -0.5219  0.0213
26999SOL    HW189775   9.726   3.018   4.445 -3.4681  1.0133 -0.2749
26999SOL    HW289776   9.687   2.911   4.545 -1.1439 -0.1475 -0.5260
27000SOL     OW89777   9.787   2.881   0.525 -0.3862 -0.1139  0.2049
27000SOL    HW189778   9.707   2.880   0.578 -0.8343  1.2941 -0.3981
27000SOL    HW289779   9.845   2.943   0.569  0.4124 -1.1518  0.6568
27001SOL     OW89780   6.535   1.301   2.368  0.6785  0.4397 -0.1656
27001SOL    HW189781   6.465   1.344   2.417  0.2037  0.6581 -1.0048
27001SOL    HW289782   6.541   1.350   2.286  0.0561 -1.1218 -1.1939
27002SOL     OW89783   0.006   6.029   0.785 -0.4335 -0.0186 -0.3102
27002SOL    HW189784   0.001   6.090   0.858 -0.3328  1.0707 -1.1811
27002SOL    HW289785   0.093   5.990   0.791  0.6702  2.0589 -1.3333
27003SOL     OW89786  10.416   5.560   9.951 -0.0400  0.6337  0.2452
27003SOL    HW189787  10.420   5.468   9.928  0.1749  0.7787 -0.3030
27003SOL    HW289788  10.507   5.586   9.966 -0.0801  0.8142  0.1799
27004SOL     OW89789   3.164   5.953   3.374 -0.1415 -0.5241  0.3828
27004SOL    HW189790   3.176   5.956   3.279 -0.6087 -0.1444  0.3375
27004SOL    HW289791   3.109   5.876   3.388 -0.9895  0.0557  0.2518
27005SOL     OW89792  10.726   8.648  10.833  0.6037 -0.2184 -0.6262
27005SOL    HW189793  10.636   8.672  10.855  1.1159  0.4509  0.9246
27005SOL    HW289794  10.757   8.720  10.777  0.5636  0.2050 -0.1119
27006SOL     OW89795  10.427   7.959   7.837  0.0028 -0.2320  0.1593
27006SOL    HW189796  10.415   7.893   7.769 -1.1009 -0.3407  0.4362
27006SOL    HW289797  10.444   8.040   7.789  0.6354 -0.5767 -0.2019
27007SOL     OW89798   3.237   4.573   0.253 -0.0653 -0.0026  0.2856
27007SOL    HW189799   3.291   4.495   0.257 -0.4259 -0.4576 -2.2284
27007SOL    HW289800   3.261   4.615   0.170 -1.8562  1.0564  0.2545
27008SOL     OW89801   3.813  12.210   0.833  0.2990 -0.2664 -0.7580
27008SOL    HW189802   3.878  12.278   0.811  1.5418 -1.0865  0.2255
27008SOL    HW289803   3.806  12.157   0.754  0.5153  0.0741 -1.0094
27009SOL     OW89804   7.036  10.504   4.416 -0.3194  0.4791 -0.4869
27009SOL    HW189805   6.978  10.580   4.423 -1.5695 -0.5116  0.4019
27009SOL    HW289806   7.122  10.538   4.442 -1.0565  1.3938  0.9449
27010SOL     OW89807   8.349   4.137   3.785  0.1314  0.0840 -0.1735
27010SOL    HW189808   8.398   4.083   3.723 -0.6015  0.5654 -1.1968
27010SOL    HW289809   8.384   4.225   3.773  0.4010  0.0762  0.5339
27011SOL     OW89810   8.774   4.245  12.328  0.6183  0.0370  0.0185
27011SOL    HW189811   8.690   4.206  12.306  0.4584  1.4467 -2.1209
27011SOL    HW289812   8.754   4.337  12.346  1.6828  0.4246 -0.6598
27012SOL     OW89813   2.649  10.516   4.726  0.5468  0.3561  0.2446
27012SOL    HW189814   2.634  10.491   4.817  2.8015 -0.6819  0.4035
27012SOL    HW289815   2.697  10.599   4.732 -0.6464  1.0980 -0.0852
27013SOL     OW89816   9.040   1.751   7.313 -0.3787  0.4022  0.2697
27013SOL    HW189817   9.058   1.791   7.398 -0.6545  0.0408  0.4941
27013SOL    HW289818   8.950   1.720   7.318  0.3334 -1.7797  0.7039
27014SOL     OW89819   0.413   8.169   4.557  0.4359 -0.6799  0.3425
27014SOL    HW189820   0.490   8.186   4.611 -0.6739  3.4219  1.0080
27014SOL    HW289821   0.338   8.184   4.615 -0.8803 -1.7893 -0.9619
27015SOL     OW89822   7.166  11.109  11.776 -0.5564  0.2712 -0.2124
27015SOL    HW189823   7.223  11.130  11.702 -0.3720 -0.7594 -0.3758
27015SOL    HW289824   7.205  11.156  11.850  1.2544 -1.3347 -0.0549
27016SOL     OW89825   1.661   5.221   2.926  0.6210 -0.2257  0.5133
27016SOL    HW189826   1.682   5.128   2.920 -0.2011 -0.3030 -2.5231
27016SOL    HW289827   1.660   5.252   2.836  0.6560  2.7127  1.4135
27017SOL     OW89828  11.672   2.498   8.473  0.1384  0.1050 -0.3721
27017SOL    HW189829  11.701   2.475   8.562 -1.2130  0.8185  0.2920
27017SOL    HW289830  11.578   2.480   8.474  0.3663 -1.4288 -2.1999
27018SOL     OW89831   1.817   5.980  10.928 -0.5562 -0.7351  0.2438
27018SOL    HW189832   1.753   5.974  10.998 -1.1733  1.6632 -0.0610
27018SOL    HW289833   1.849   6.070  10.931  0.6086 -1.0343 -1.5077
27019SOL     OW89834   4.405   9.184   7.073 -0.3399 -0.5269  0.3869
27019SOL    HW189835   4.408   9.239   6.995 -2.3107 -1.7993 -0.6801
27019SOL    HW289836   4.488   9.200   7.117  0.3135  1.1704 -1.3176
27020SOL     OW89837   5.379  10.209   5.527 -0.3193 -0.0316  0.2024
27020SOL    HW189838   5.290  10.243   5.526 -0.1116  0.5124  0.0962
27020SOL    HW289839   5.377  10.138   5.592 -0.5440  0.7582  1.0816
27021SOL     OW89840   9.407   4.169   1.163  0.5656  0.6097 -0.1363
27021SOL    HW189841   9.344   4.169   1.091  1.2417  0.0344 -0.7527
27021SOL    HW289842   9.489   4.143   1.122  0.6108 -1.5080  1.1674
27022SOL     OW89843   2.698   2.503  11.622 -0.1498  0.2285  0.0669
27022SOL    HW189844   2.764   2.434  11.618 -1.2188 -0.7861 -1.3054
27022SOL    HW289845   2.628   2.472  11.563 -0.2814  2.9057 -1.3142
27023SOL     OW89846  12.312   2.173   7.195  0.6210  0.2986 -0.0599
27023SOL    HW189847  12.228   2.210   7.168 -0.2499 -1.1747  0.5364
27023SOL    HW289848  12.330   2.215   7.279  0.0155 -0.0346  0.2465
27024SOL     OW89849   0.387   5.061   8.017  0.2232  0.5109  0.0888
27024SOL    HW189850   0.356   5.128   8.079  1.3953  0.6571  0.5501
27024SOL    HW289851   0.312   5.045   7.960 -0.0352  2.3865 -0.1859
27025SOL     OW89852   8.916   2.458   3.814  0.3186  0.1650  0.5782
27025SOL    HW189853   9.006   2.428   3.804  0.3653  0.7097 -0.9696
27025SOL    HW289854   8.920   2.553   3.801 -0.4549  0.2222  0.6731
27026SOL     OW89855   2.997   8.585   2.369 -0.0134  0.2008  0.3618
27026SOL    HW189856   2.952   8.626   2.294  2.0134  0.6684 -0.6577
27026SOL    HW289857   3.068   8.646   2.391  1.9975 -1.8680 -0.0545
27027SOL     OW89858  12.496  10.499   7.045  0.1427  0.3491 -0.1755
27027SOL    HW189859  12.471  10.442   6.972  0.0881  0.6547 -0.3971
27027SOL    HW289860  12.578  10.463   7.077 -0.1499 -0.1600  0.0153
27028SOL     OW89861   0.693   0.236  10.136 -0.2775 -0.6085 -0.5166
27028SOL    HW189862   0.777   0.213  10.096 -1.0042 -0.2559 -2.3520
27028SOL    HW289863   0.704   0.215  10.229  2.7480  1.8171 -0.1558
27029SOL     OW89864   4.648   6.654   3.101  0.1309  0.1395 -0.2963
27029SOL    HW189865   4.571   6.674   3.155 -0.1908  1.6105 -1.2315
27029SOL    HW289866   4.721   6.689   3.151 -0.0292  0.4338 -0.2632
27030SOL     OW89867  11.996   3.002   1.619  0.3683  0.3892  0.0924
27030SOL    HW189868  11.952   3.001   1.534 -0.1234 -1.0069  0.3296
27030SOL    HW289869  12.002   2.910   1.644  1.4866  0.6995  1.0793
27031SOL     OW89870  10.427  10.935   9.721  0.0529 -0.0862 -0.0729
27031SOL    HW189871  10.484  10.957   9.795 -0.0649  0.7806 -0.2293
27031SOL    HW289872  10.415  11.017   9.674 -0.5508 -0.4556 -0.5919
27032SOL     OW89873  12.064   1.074   6.314 -0.0922  0.8410 -0.0999
27032SOL    HW189874  12.114   1.005   6.271 -1.3685 -1.7911  2.3096
27032SOL    HW289875  11.984   1.030   6.344 -1.5787  3.7054  0.4762
27033SOL     OW89876   3.347   1.679   5.267  0.0060  0.1840  0.1733
27033SOL    HW189877   3.308   1.631   5.195  1.0877 -0.7746  0.1925
27033SOL    HW289878   3.440   1.687   5.242 -0.4487  4.4127 -1.0240
27034SOL     OW89879   6.657   7.355  11.697 -0.2853 -0.1822 -0.0759
27034SOL    HW189880   6.634   7.344  11.605  1.1718  2.3318 -0.8502
27034SOL    HW289881   6.577   7.384  11.740 -1.6227 -3.6182  0.0794
27035SOL     OW89882   7.091   4.584  11.084 -0.3293  0.6733  0.1120
27035SOL    HW189883   7.042   4.630  11.016 -0.8295  1.2884  0.8638
27035SOL    HW289884   7.108   4.498  11.047 -1.1809  0.7597 -0.5294
27036SOL     OW89885   7.896   8.890   5.207  0.1428 -0.0394  0.0499
27036SOL    HW189886   7.969   8.924   5.259 -0.3279  0.6476  0.2868
27036SOL    HW289887   7.842   8.842   5.270 -1.6986  2.7706  0.8190
27037SOL     OW89888   8.723   3.202   8.448 -0.2458 -0.2353 -0.3146
27037SOL    HW189889   8.728   3.110   8.477 -2.1300 -0.3400 -0.2199
27037SOL    HW289890   8.798   3.212   8.388  1.7717 -0.9591  1.9200
27038SOL     OW89891   8.567  12.427  10.351  0.4890 -0.1248 -0.0831
27038SOL    HW189892   8.521  12.442  10.269 -0.1045  0.2147  0.3007
27038SOL    HW289893   8.626  12.502  10.359  2.7779 -1.6289 -1.6445
27039SOL     OW89894   6.504   9.317   9.453  0.1807  0.2375 -0.1917
27039SOL    HW189895   6.590   9.332   9.412  1.0059 -0.4400  1.1970
27039SOL    HW289896   6.516   9.346   9.543 -0.0051 -2.8418  0.9344
27040SOL     OW89897  10.548   5.317   5.117 -0.1555 -0.4908 -0.5727
27040SOL    HW189898  10.490   5.243   5.097  0.6720 -1.4958  0.6080
27040SOL    HW289899  10.636   5.280   5.115  0.3179  0.5963 -0.4811
27041SOL     OW89900   9.110   1.457   4.354  0.3344  0.3102 -0.1062
27041SOL    HW189901   9.188   1.492   4.312  0.9421  1.3388  1.7773
27041SOL    HW289902   9.126   1.363   4.360  1.6182  0.5592  0.6081
27042SOL     OW89903   5.955   6.407  12.508  0.2647  0.6643  0.4579
27042SOL    HW189904   5.945   6.315  12.480  0.6950  0.6082  0.4784
27042SOL    HW289905   5.888   6.454  12.459  2.0557  0.8515 -2.0529
27043SOL     OW89906   9.525  10.339  11.048 -0.1101  0.1736  0.3914
27043SOL    HW189907   9.510  10.321  11.141  1.1665  1.5045  0.9036
27043SOL    HW289908   9.509  10.256  11.004 -1.7292 -0.2474  1.6641
27044SOL     OW89909   5.006  11.438  12.578  0.7465 -0.2243 -0.3106
27044SOL    HW189910   5.049  11.376  12.637  0.4757  0.3704  0.5199
27044SOL    HW289911   5.073  11.459  12.513  1.4544  0.0573  0.4948
27045SOL     OW89912   4.538   9.391   0.891  0.3512  0.0271 -0.5881
27045SOL    HW189913   4.472   9.451   0.926  0.9505  0.7476 -0.6925
27045SOL    HW289914   4.586   9.442   0.827  0.0555 -0.9381 -1.6083
27046SOL     OW89915   9.493   9.680  11.713  0.4052  0.2220  0.6528
27046SOL    HW189916   9.507   9.773  11.731 -0.6881  0.6718 -0.7070
27046SOL    HW289917   9.399   9.671  11.700  0.5295 -1.0242  0.4560
27047SOL     OW89918   7.375   4.590   0.351  0.0408  0.0984  0.1654
27047SOL    HW189919   7.320   4.588   0.430 -2.0553 -1.0376 -1.2277
27047SOL    HW289920   7.407   4.500   0.342 -0.4003  0.0177 -0.6962
27048SOL     OW89921   7.229  11.582   5.312 -0.1538 -0.4555  0.2438
27048SOL    HW189922   7.235  11.674   5.340 -1.9110 -0.2892  0.2120
27048SOL    HW289923   7.136  11.569   5.294  0.2535 -1.8705 -1.0554
27049SOL     OW89924   0.661   7.648   8.420  0.4802  0.5201 -0.0308
27049SOL    HW189925   0.600   7.575   8.410  0.4241  0.6520 -0.7105
27049SOL    HW289926   0.635   7.711   8.352  2.7465 -0.4069 -1.9174
27050SOL     OW89927   6.956   8.486   8.432  0.7472  0.5226  0.1613
27050SOL    HW189928   6.991   8.464   8.519  0.4360 -0.7870 -0.0213
27050SOL    HW289929   6.866   8.513   8.449  0.5236 -0.2333  0.2003
27051SOL     OW89930   8.877   9.363   5.455 -0.5411 -0.0323 -0.3337
27051SOL    HW189931   8.807   9.395   5.512 -1.8293  0.0136 -1.8731
27051SOL    HW289932   8.839   9.287   5.411  1.2194 -1.5051  0.5289
27052SOL     OW89933   1.853  10.625   0.714  0.5170  0.6612 -0.1477
27052SOL    HW189934   1.822  10.714   0.697  0.8683  1.0194  0.9761
27052SOL    HW289935   1.799  10.570   0.658 -0.9382  1.4372  0.4355
27053SOL     OW89936   4.241   9.816  11.081 -0.3353  0.0018 -0.5907
27053SOL    HW189937   4.228   9.847  10.991  0.5676  1.1928 -0.3324
27053SOL    HW289938   4.286   9.888  11.125  0.8636 -1.2710  0.3398
27054SOL     OW89939   7.035   8.741   3.001  0.6562  0.1110 -0.5190
27054SOL    HW189940   6.985   8.811   3.044  0.0530  0.0202 -1.0564
27054SOL    HW289941   7.113   8.731   3.055 -1.3278 -1.8996  2.2766
27055SOL     OW89942   4.602   7.527   7.450  0.5436  0.3971  0.8632
27055SOL    HW189943   4.545   7.503   7.377  0.3977 -1.4133  1.5201
27055SOL    HW289944   4.553   7.500   7.528  2.0810 -0.7537  1.4731
27056SOL     OW89945  10.883   9.594  11.970  0.0208  0.0474  0.3576
27056SOL    HW189946  10.922   9.672  11.930  1.5699 -0.6160  0.4795
27056SOL    HW289947  10.800   9.624  12.007 -0.6696  1.0628 -1.8258
27057SOL     OW89948  10.615   3.189   5.822 -0.5396 -0.1443  0.0295
27057SOL    HW189949  10.646   3.279   5.811  1.4637 -0.9083 -1.3243
27057SOL    HW289950  10.533   3.197   5.870  0.7925  2.2424  2.1365
27058SOL     OW89951   0.396   9.878   0.896 -0.2087  0.0998 -0.6114
27058SOL    HW189952   0.450   9.821   0.842 -1.9420 -1.0057 -1.2576
27058SOL    HW289953   0.457   9.945   0.929  1.1561  0.1088 -2.9290
27059SOL     OW89954   4.593   7.385   9.636  0.4573 -0.1061  0.1031
27059SOL    HW189955   4.668   7.423   9.682  0.6531 -0.4214  0.0426
27059SOL    HW289956   4.630   7.316   9.582  0.0610 -0.6033  0.4550
27060SOL     OW89957  10.231   3.871   7.505  0.1384  0.9143  0.1418
27060SOL    HW189958  10.204   3.828   7.586 -1.0701  2.0388  0.3759
27060SOL    HW289959  10.251   3.961   7.531 -1.6774  1.7086 -1.0013
27061SOL     OW89960   5.316   9.502  11.818 -0.4823 -0.4785  0.0261
27061SOL    HW189961   5.271   9.583  11.796 -0.4443  0.1019  1.8699
27061SOL    HW289962   5.246   9.438  11.831 -0.5345 -0.6465 -1.0102
27062SOL     OW89963   4.885   2.869   4.666  0.2163  0.4678 -0.3342
27062SOL    HW189964   4.820   2.893   4.600 -1.8296  0.8558  1.7176
27062SOL    HW289965   4.911   2.951   4.706  1.2750  0.2149 -0.4670
27063SOL     OW89966   4.249  10.468   4.601 -0.0923 -0.2753  0.2438
27063SOL    HW189967   4.336  10.450   4.636  0.1515 -0.2966 -0.3594
27063SOL    HW289968   4.194  10.479   4.678  0.4039 -0.4632  0.6296
27064SOL     OW89969   2.687   5.149  12.564 -0.2617  0.2553  0.3572
27064SOL    HW189970   2.676   5.055  12.550  1.4944 -0.2304  1.7111
27064SOL    HW289971   2.686   5.187  12.477  0.0733 -1.1825 -0.3085
27065SOL     OW89972   4.796   7.418   9.838 -0.2899 -0.0571 -0.0700
27065SOL    HW189973   4.756   7.404   9.924 -0.7221 -0.1414 -0.2876
27065SOL    HW289974   4.842   7.335   9.819 -1.3834 -0.5674 -0.5615
27066SOL     OW89975   6.104   0.310   2.392  0.0399  0.3877 -0.1834
27066SOL    HW189976   6.023   0.265   2.369 -0.0312  0.0600  0.6764
27066SOL    HW289977   6.173   0.247   2.369  0.0560  0.6668 -0.9153
27067SOL     OW89978   9.006  12.316  11.297  0.3963 -0.0165  0.0112
27067SOL    HW189979   9.054  12.320  11.214 -0.4495  0.8682 -0.4600
27067SOL    HW289980   9.073  12.328  11.364  1.0244 -0.2113 -0.5690
27068SOL     OW89981   2.238   1.718   7.396 -0.7432  0.3630 -0.2909
27068SOL    HW189982   2.256   1.786   7.330 -1.1076 -0.3913 -1.1936
27068SOL    HW289983   2.147   1.692   7.378 -0.0163 -1.7182 -1.2518
27069SOL     OW89984   9.037  11.392  12.461 -0.2383  0.3806  0.6192
27069SOL    HW189985   9.094  11.468  12.463 -0.7371  0.7915 -0.3092
27069SOL    HW289986   9.092  11.322  12.425 -0.2247  0.7048 -0.0107
27070SOL     OW89987   0.395  10.093   2.826 -0.0221 -0.0777 -0.2412
27070SOL    HW189988   0.394  10.101   2.731 -0.2177  1.1362 -0.1495
27070SOL    HW289989   0.303  10.102   2.851 -0.1689 -1.8226 -0.0229
27071SOL     OW89990   1.347   0.704   6.630 -0.2361 -0.1662 -0.3058
27071SOL    HW189991   1.367   0.776   6.690 -0.0279  0.6952 -1.3981
27071SOL    HW289992   1.395   0.629   6.667  0.7266  0.5975  0.0419
27072SOL     OW89993  10.708   3.475   8.014  0.2767 -0.2099 -0.3673
27072SOL    HW189994  10.732   3.559   7.974  0.3792 -0.8270 -1.6660
27072SOL    HW289995  10.789   3.425   8.013  0.0082 -0.6457 -0.4648
27073SOL     OW89996   9.662  12.351  10.325 -0.0094  0.0542 -0.1349
27073SOL    HW189997   9.673  12.259  10.301  0.5324  0.2945 -0.8340
27073SOL    HW289998   9.697  12.400  10.251 -1.0563  0.8362 -0.1383
27074SOL     OW89999   6.691   3.994   8.949  0.6948 -0.1262  0.5974
27074SOL    HW190000   6.699   3.938   8.871 -0.6882  0.9425 -0.3568
27074SOL    HW290001   6.738   3.946   9.017  0.9729 -1.6471 -0.5977
27075SOL     OW90002   5.377   9.590   9.685  0.2003  0.0556 -0.4009
27075SOL    HW190003   5.455   9.620   9.730 -0.0310  1.4441 -0.9024
27075SOL    HW290004   5.410   9.533   9.615  1.0174  2.7591 -2.3642
27076SOL     OW90005   7.159   2.724   9.823 -0.2137 -0.2151 -0.3133
27076SOL    HW190006   7.070   2.751   9.846  0.1537 -0.0754  1.0096
27076SOL    HW290007   7.184   2.663   9.891  1.1948  0.7720  0.1113
27077SOL     OW90008   2.188  10.620   2.858  1.0117 -0.3885 -0.1831
27077SOL    HW190009   2.128  10.692   2.874 -0.0950 -1.8064  3.0019
27077SOL    HW290010   2.134  10.552   2.818  0.9634 -0.8783  0.6716
27078SOL     OW90011   6.939   2.954   3.662 -0.3055  0.7912 -0.3116
27078SOL    HW190012   6.943   2.991   3.750  1.4132 -0.3628  0.1351
27078SOL    HW290013   7.030   2.932   3.641 -0.9806 -1.2377 -1.3819
27079SOL     OW90014   1.742   5.060   2.433  0.2175  0.3117  0.1563
27079SOL    HW190015   1.660   5.105   2.414  1.3127  2.9018  1.0598
27079SOL    HW290016   1.716   4.973   2.462 -2.0340  0.2761 -1.7693
27080SOL     OW90017   3.863   7.197   8.419 -0.3660 -0.4657 -0.5099
27080SOL    HW190018   3.837   7.285   8.391 -0.2777 -0.3717 -0.2938
27080SOL    HW290019   3.956   7.192   8.399 -0.0411  0.0147  0.8297
27081SOL     OW90020   6.586   4.933   0.316 -0.2576  0.2287 -0.3948
27081SOL    HW190021   6.602   4.838   0.314 -2.1630 -0.2240  1.4860
27081SOL    HW290022   6.632   4.963   0.394 -0.1790  0.7502 -0.6416
27082SOL     OW90023  12.023   1.957   8.168 -0.0679  0.6535 -0.5222
27082SOL    HW190024  11.937   1.919   8.185  0.2850  0.0086 -0.1423
27082SOL    HW290025  12.060   1.972   8.255  0.9049 -0.7242 -0.6549
27083SOL     OW90026   4.131   2.733   4.125  0.4471 -0.5570  0.1138
27083SOL    HW190027   4.045   2.770   4.106  1.2509  0.8210 -0.9514
27083SOL    HW290028   4.163   2.701   4.041  0.8808 -1.3191  0.5536
27084SOL     OW90029   0.279   8.248   4.811  0.1045 -0.6996 -0.2635
27084SOL    HW190030   0.245   8.337   4.814 -1.0167 -1.0697 -1.1472
27084SOL    HW290031   0.339   8.242   4.885  0.1973  0.7816 -0.1904
27085SOL     OW90032   0.320   7.805  10.742  0.0193 -0.1648 -0.0583
27085SOL    HW190033   0.338   7.838  10.830  0.6035 -1.1789  0.2204
27085SOL    HW290034   0.229   7.774  10.745 -0.4363  1.0938 -0.2396
27086SOL     OW90035   6.493  11.646   4.935  0.5871  0.3867 -0.0013
27086SOL    HW190036   6.549  11.579   4.975  1.3531  0.6807 -0.5529
27086SOL    HW290037   6.461  11.697   5.009  1.8590  0.8186  0.2881
27087SOL     OW90038   6.241   2.273   3.995 -0.2782 -0.4134  0.4680
27087SOL    HW190039   6.329   2.244   3.972  0.3590  1.2196  0.6430
27087SOL    HW290040   6.185   2.242   3.924  0.9211  0.8681 -1.1205
27088SOL     OW90041  11.626   8.390   0.500 -0.6390 -0.6269 -0.0546
27088SOL    HW190042  11.585   8.401   0.585 -0.7318 -2.3376  0.1479
27088SOL    HW290043  11.627   8.295   0.485  0.0132 -0.4086 -1.6387
27089SOL     OW90044   5.246   1.097   4.211  0.1484 -0.1644 -0.7602
27089SOL    HW190045   5.327   1.048   4.223  0.4566  0.3371 -0.7358
27089SOL    HW290046   5.205   1.060   4.133 -0.6653 -1.8491  0.3906
27090SOL     OW90047   5.034   9.564   0.811  0.3233 -0.0965  0.2290
27090SOL    HW190048   5.083   9.531   0.887  2.7573 -1.1180 -1.6655
27090SOL    HW290049   4.994   9.487   0.772 -0.5480  0.3604  0.1960
27091SOL     OW90050   3.141   4.778   8.328  0.3734  0.3031  0.0679
27091SOL    HW190051   3.142   4.818   8.241 -1.1637 -0.8948 -0.5402
27091SOL    HW290052   3.078   4.829   8.378 -0.3097 -0.2852 -0.1809
27092SOL     OW90053   4.912   4.444   5.904  0.6196  0.1099 -0.1768
27092SOL    HW190054   4.937   4.455   5.812  1.0455  1.4910  0.0698
27092SOL    HW290055   4.851   4.517   5.920  0.1894 -0.3974  0.5132
27093SOL     OW90056  11.333  11.213   5.524 -0.2481 -0.1602  0.3439
27093SOL    HW190057  11.401  11.275   5.551 -0.2861 -0.2466  0.6421
27093SOL    HW290058  11.348  11.137   5.579 -0.4982 -0.2349  0.3066
27094SOL     OW90059   8.303   8.054   1.259  0.0511 -0.6631 -0.0116
27094SOL    HW190060   8.310   7.970   1.214 -0.1388 -0.8155  0.2396
27094SOL    HW290061   8.377   8.055   1.319 -0.3629 -0.9724  0.5098
27095SOL     OW90062   7.199  12.462   2.123 -0.3395  0.4684  0.2678
27095SOL    HW190063   7.289  12.431   2.117 -0.1047  0.4364  2.8559
27095SOL    HW290064   7.207  12.557   2.134 -0.5800  0.4258  0.8624
27096SOL     OW90065   3.523  11.678   5.805 -0.5429 -0.0180  0.4304
27096SOL    HW190066   3.475  11.634   5.875 -0.9366 -0.1047  0.1108
27096SOL    HW290067   3.463  11.747   5.775  0.1664  0.9315  1.1091
27097SOL     OW90068   6.927   0.061   1.631  0.1518  0.0866 -0.1122
27097SOL    HW190069   6.973   0.062   1.715 -2.3655 -2.0466  1.4445
27097SOL    HW290070   6.855   0.122   1.642 -1.6117 -1.9402  0.2827
27098SOL     OW90071   4.720   5.524   3.521 -0.3850  0.0201  0.8557
27098SOL    HW190072   4.732   5.430   3.508 -0.7026  0.1629 -0.6455
27098SOL    HW290073   4.629   5.534   3.549 -0.9659  0.0160 -0.9294
27099SOL     OW90074   4.519  12.089   3.748 -0.4821  0.3108 -0.2529
27099SOL    HW190075   4.542  12.093   3.841 -0.4653 -2.4107 -0.0426
27099SOL    HW290076   4.440  12.141   3.741 -0.6369  0.3566  1.3495
27100SOL     OW90077   2.118   2.363  12.466  0.1293  0.3228  0.2809
27100SOL    HW190078   2.127   2.382  12.559  0.1506 -0.4869  0.4539
27100SOL    HW290079   2.202   2.391  12.428  0.2341  0.3835  0.5534
27101SOL     OW90080   4.659   9.779   3.511 -0.0016 -0.2908  0.0608
27101SOL    HW190081   4.688   9.705   3.564 -2.8200 -2.3705 -1.0216
27101SOL    HW290082   4.602   9.829   3.570 -0.3171 -0.6082  0.0344
27102SOL     OW90083   6.402   0.774  10.825 -0.2800  0.4734  0.1206
27102SOL    HW190084   6.309   0.777  10.848  0.0445 -1.5397  2.0290
27102SOL    HW290085   6.439   0.710  10.885  1.9135 -0.5071 -2.1264
27103SOL     OW90086   7.511   7.791   9.671 -0.5000 -1.1705  0.4415
27103SOL    HW190087   7.511   7.696   9.661  0.2264 -1.4477  2.4755
27103SOL    HW290088   7.588   7.809   9.726  0.5786  0.8251 -1.5571
27104SOL     OW90089  11.861  10.225   4.609 -0.5564 -0.4832 -0.3835
27104SOL    HW190090  11.777  10.268   4.629 -0.8324 -1.4720  0.6953
27104SOL    HW290091  11.925  10.297   4.608 -1.0829  0.0318  0.9024
27105SOL     OW90092  11.537   9.419  10.632 -0.2973  0.2710  0.2750
27105SOL    HW190093  11.446   9.438  10.652 -0.7589  0.2288 -1.5505
27105SOL    HW290094  11.570   9.499  10.592 -0.3185 -0.5172 -1.4141
27106SOL     OW90095   3.458   9.112  12.116 -0.0808  0.5456 -0.4163
27106SOL    HW190096   3.448   9.207  12.119  1.4213  0.7110  1.5216
27106SOL    HW290097   3.548   9.098  12.089 -0.0395 -0.2900  0.1124
27107SOL     OW90098   6.376   3.168   0.477 -0.4272  0.2351  0.1581
27107SOL    HW190099   6.389   3.244   0.420  1.1311 -0.7344 -0.8681
27107SOL    HW290100   6.461   3.125   0.478 -1.5195 -2.0449 -0.0948
27108SOL     OW90101   3.096   6.921   1.825  0.4624 -0.4470  0.6718
27108SOL    HW190102   3.042   6.918   1.904 -0.5725  1.1573  0.0586
27108SOL    HW290103   3.057   6.857   1.767 -2.9925  2.8138 -1.0286
27109SOL     OW90104   1.760   3.646  12.061 -0.0197 -0.0274 -0.4894
27109SOL    HW190105   1.668   3.673  12.061 -0.0365  0.0783  1.4923
27109SOL    HW290106   1.790   3.664  12.150  1.4668 -1.5664 -0.6279
27110SOL     OW90107  11.080   8.413   4.809  0.2435 -0.1085  0.2780
27110SOL    HW190108  11.153   8.461   4.849 -0.7650  0.5925  1.3490
27110SOL    HW290109  11.016   8.403   4.879 -0.4925 -1.1561 -0.5057
27111SOL     OW90110  12.014   9.074   6.466  0.2763  0.1828  0.4708
27111SOL    HW190111  12.094   9.088   6.417  0.4585  0.4591  0.8390
27111SOL    HW290112  11.992   9.160   6.501  0.0945  0.0090  0.7897
27112SOL     OW90113   3.674   3.126  12.278  0.3070 -0.0051  0.2137
27112SOL    HW190114   3.714   3.177  12.207 -1.1916 -0.1555 -0.7687
27112SOL    HW290115   3.673   3.036  12.246  0.8826 -0.3088  1.0164
27113SOL     OW90116   5.972   7.228   4.191  0.3756  0.1245 -0.0857
27113SOL    HW190117   5.933   7.142   4.177 -0.0034  0.4119 -0.8805
27113SOL    HW290118   5.916   7.288   4.140  0.6235  0.8380  0.4649
27114SOL     OW90119   2.431   4.474  10.857 -0.3995  0.0633  0.1049
27114SOL    HW190120   2.499   4.407  10.852 -0.5582 -0.0375 -2.8106
27114SOL    HW290121   2.354   4.429  10.892  0.0221 -0.7957 -0.0630
27115SOL     OW90122  12.017   8.301   3.483 -0.1149  0.7167 -0.6949
27115SOL    HW190123  12.101   8.261   3.460 -0.7036 -0.6484 -0.5577
27115SOL    HW290124  11.955   8.265   3.420 -1.0267 -0.0907  0.6200
27116SOL     OW90125  11.555   5.265   8.790 -0.0289  0.1481  0.3516
27116SOL    HW190126  11.463   5.254   8.813 -0.1934 -1.0861 -0.7814
27116SOL    HW290127  11.566   5.360   8.780 -1.1493  0.3145  0.5884
27117SOL     OW90128   0.518  10.591   4.103 -0.0658  0.3339  0.1855
27117SOL    HW190129   0.565  10.523   4.055 -0.2026  0.6448 -0.3978
27117SOL    HW290130   0.498  10.551   4.188  0.3300 -0.1618  0.0489
27118SOL     OW90131   3.621   3.039   6.622  0.4699 -0.4356 -0.9011
27118SOL    HW190132   3.621   3.029   6.526 -1.2808  0.8667 -1.0969
27118SOL    HW290133   3.564   3.114   6.638 -0.1652 -1.2908  1.2360
27119SOL     OW90134   5.862   5.592   4.716  0.7898  0.4522 -1.0163
27119SOL    HW190135   5.922   5.526   4.750 -0.4250 -0.4480 -0.5400
27119SOL    HW290136   5.894   5.675   4.753 -0.0189 -0.3721  1.8258
27120SOL     OW90137   2.540   1.924   3.485 -0.0083  0.2120  0.1941
27120SOL    HW190138   2.635   1.919   3.487  0.0430  1.1766  0.6979
27120SOL    HW290139   2.521   1.982   3.411 -0.3329 -2.1623 -1.6856
27121SOL     OW90140  11.240   0.502  11.206  0.4198 -0.0358  0.4336
27121SOL    HW190141  11.323   0.531  11.243  0.5280  1.9502 -1.1525
27121SOL    HW290142  11.260   0.480  11.115 -0.2409 -2.6518  0.8372
27122SOL     OW90143   0.872  11.479   4.442  0.1930 -0.4467  0.3143
27122SOL    HW190144   0.928  11.499   4.367 -0.9445 -0.7304 -0.6393
27122SOL    HW290145   0.785  11.466   4.404 -0.4496 -0.3831  1.7162
27123SOL     OW90146   8.980   6.240   6.723 -0.0915 -0.1244 -0.3084
27123SOL    HW190147   9.034   6.162   6.715 -0.8559 -0.5979 -1.0522
27123SOL    HW290148   8.899   6.210   6.764 -1.1935 -0.1685 -2.3659
27124SOL     OW90149  10.388   1.531  12.239 -0.5039 -0.0033 -0.5545
27124SOL    HW190150  10.348   1.547  12.324 -1.6779  0.7300 -1.2171
27124SOL    HW290151  10.376   1.613  12.191  0.9909 -0.0702 -1.1187
27125SOL     OW90152  12.132   1.320   4.798  0.1927  0.2143  0.2036
27125SOL    HW190153  12.053   1.345   4.749  0.6540  1.4523  0.0546
27125SOL    HW290154  12.130   1.225   4.798 -0.2251  0.1768 -1.5990
27126SOL     OW90155   6.614   7.949   3.883 -0.9362 -0.2662 -0.3389
27126SOL    HW190156   6.571   7.864   3.896 -0.2886 -0.3199  1.8205
27126SOL    HW290157   6.542   8.012   3.884 -1.2601 -0.6297 -0.2280
27127SOL     OW90158  11.856  10.106   9.532  0.0957 -0.7600 -0.6148
27127SOL    HW190159  11.948  10.099   9.504  0.7635  2.6786  0.3389
27127SOL    HW290160  11.860  10.110   9.627 -0.9831  0.0452 -0.5847
27128SOL     OW90161   3.529  11.013   3.505  0.1172  0.3586 -0.0375
27128SOL    HW190162   3.560  10.923   3.521 -0.1436  0.2755  0.0093
27128SOL    HW290163   3.550  11.060   3.585  0.9939  0.5454 -0.3707
27129SOL     OW90164   0.465   4.419   7.288 -0.1565  0.3119  0.2543
27129SOL    HW190165   0.504   4.385   7.207 -0.7708  1.1263 -0.4172
27129SOL    HW290166   0.429   4.342   7.332 -2.7889  0.1299 -1.9214
27130SOL     OW90167   6.801   8.512   5.662 -0.0757  0.7154 -0.4631
27130SOL    HW190168   6.707   8.528   5.669 -0.6373 -1.6482 -1.3844
27130SOL    HW290169   6.809   8.451   5.589  2.0360 -0.1649  0.4099
27131SOL     OW90170   9.582   3.170   0.784  0.3178 -0.1850  0.0386
27131SOL    HW190171   9.520   3.240   0.766 -0.0101 -0.4702  0.0500
27131SOL    HW290172   9.602   3.178   0.877  0.4410  0.0194 -0.0042
27132SOL     OW90173   5.160  12.512   4.770 -0.3278 -0.1499 -0.2018
27132SOL    HW190174   5.113  12.595   4.778  0.9379  0.5406  0.4184
27132SOL    HW290175   5.161  12.493   4.676 -1.4281  0.0426 -0.2670
27133SOL     OW90176  12.441   5.119   5.520 -0.1966  0.4288  0.1568
27133SOL    HW190177  12.512   5.055   5.524 -0.2819  0.2286 -1.0668
27133SOL    HW290178  12.477   5.197   5.562  0.2832 -0.0807  0.7098
27134SOL     OW90179   1.753   2.881   0.980 -0.0741 -0.2954 -0.3154
27134SOL    HW190180   1.664   2.847   0.981 -0.0716 -0.3552  1.9868
27134SOL    HW290181   1.743   2.976   0.977 -0.1707 -0.3190 -0.9863
27135SOL     OW90182  12.227   7.263   3.308  0.5292  0.5373  0.2362
27135SOL    HW190183  12.148   7.215   3.333  1.2521 -0.6169  0.4094
27135SOL    HW290184  12.286   7.195   3.276  1.3849  1.4062 -0.0585
27136SOL     OW90185  10.373   1.515  11.303 -0.0685  0.4443 -0.5998
27136SOL    HW190186  10.383   1.560  11.386  0.2519  0.8769 -0.8665
27136SOL    HW290187  10.414   1.573  11.239 -1.2365  0.6253 -1.2217
27137SOL     OW90188   7.212   6.121   9.309 -0.1941 -0.0573  0.3728
27137SOL    HW190189   7.291   6.164   9.276  0.6718 -0.2763  2.0383
27137SOL    HW290190   7.169   6.187   9.363 -0.4831 -0.3214  0.4715
27138SOL     OW90191   1.937   5.232   4.491 -0.1480  0.2896 -0.3625
27138SOL    HW190192   1.949   5.184   4.574  0.8681 -1.9634 -1.7200
27138SOL    HW290193   1.853   5.277   4.503 -0.5824 -0.8582  1.5019
27139SOL     OW90194  12.018   5.066   0.821  0.2889  0.5406 -0.2455
27139SOL    HW190195  11.979   5.104   0.743  1.3514 -1.0586 -1.6268
27139SOL    HW290196  12.111   5.086   0.814  0.6369 -0.9750 -0.2480
27140SOL     OW90197   7.591   1.288   1.403 -0.1404  0.1234  0.6369
27140SOL    HW190198   7.593   1.349   1.329 -1.2357 -1.4036 -0.7280
27140SOL    HW290199   7.588   1.345   1.481 -1.2103  1.8189 -0.5683
27141SOL     OW90200   1.372   7.135  12.155 -0.1617  0.4354  0.6780
27141SOL    HW190201   1.419   7.199  12.208  0.8993  1.5721 -1.5004
27141SOL    HW290202   1.325   7.081  12.218  1.3851  1.4040  2.7669
27142SOL     OW90203   6.638   0.606   2.162 -0.0099 -0.3102 -0.1573
27142SOL    HW190204   6.687   0.561   2.093 -1.6067 -0.9196 -0.9231
27142SOL    HW290205   6.560   0.640   2.119 -0.5155  0.2329  1.1324
27143SOL     OW90206   3.350   4.470   1.794  0.4971 -0.2985  0.0130
27143SOL    HW190207   3.301   4.413   1.853  0.3486 -1.5623 -1.2754
27143SOL    HW290208   3.413   4.412   1.751  0.2733  0.4617 -1.4023
27144SOL     OW90209   4.399   6.505   4.782  0.8737 -0.0451 -0.0813
27144SOL    HW190210   4.455   6.441   4.737  0.6380 -1.3150  1.3426
27144SOL    HW290211   4.460   6.565   4.824  1.0987  0.7485 -1.4934
27145SOL     OW90212   3.720   6.820   8.948  0.3452  0.3905 -0.0161
27145SOL    HW190213   3.684   6.746   8.997  2.2652 -0.9590 -0.5022
27145SOL    HW290214   3.737   6.886   9.015 -3.2078  1.2914  0.1941
27146SOL     OW90215   6.518   8.933   2.598 -0.0467  0.1145  0.3271
27146SOL    HW190216   6.565   8.970   2.672 -1.5174  0.2681  1.2274
27146SOL    HW290217   6.551   8.844   2.590  0.0951  0.0806  1.2043
27147SOL     OW90218   9.615   3.321   2.214 -0.5263  0.0117  0.1696
27147SOL    HW190219   9.646   3.308   2.124  0.7118 -0.7821  0.6754
27147SOL    HW290220   9.563   3.401   2.210 -0.8705 -0.2560 -1.3370
27148SOL     OW90221   9.510   5.138   5.689 -0.6203 -0.6903 -0.7352
27148SOL    HW190222   9.417   5.159   5.699 -0.7737 -1.9149  0.6462
27148SOL    HW290223   9.512   5.052   5.646 -0.0845 -0.3419 -1.4507
27149SOL     OW90224   1.372   5.184   2.057 -0.1664  0.7563 -0.3323
27149SOL    HW190225   1.333   5.097   2.067 -0.4222  0.8870 -0.2037
27149SOL    HW290226   1.314   5.243   2.104 -0.2614  1.0752 -0.8376
27150SOL     OW90227   4.346   1.221   0.265  0.0160 -0.2645  0.1539
27150SOL    HW190228   4.257   1.242   0.238 -0.3398 -0.6260  1.0084
27150SOL    HW290229   4.399   1.293   0.232 -0.6907  0.2627  0.1595
27151SOL     OW90230   0.369  12.139  10.815 -0.1286  0.4761  0.3130
27151SOL    HW190231   0.419  12.207  10.860 -0.7975  0.7864  0.6028
27151SOL    HW290232   0.287  12.133  10.864  0.2134 -1.0596  0.7382
27152SOL     OW90233   9.524   3.144   8.798 -0.4178  0.1116 -0.1618
27152SOL    HW190234   9.546   3.173   8.887  0.5679 -2.3308  0.4893
27152SOL    HW290235   9.601   3.169   8.746 -0.3127  0.1521  0.0104
27153SOL     OW90236   7.018  10.639   6.255  0.1210  0.5417 -0.7840
27153SOL    HW190237   6.936  10.595   6.236  0.0024  0.3998  0.0374
27153SOL    HW290238   7.078  10.609   6.187  0.2405 -1.4236  0.1150
27154SOL     OW90239   2.843   9.857   5.244 -0.1230 -0.2027 -0.4947
27154SOL    HW190240   2.782   9.810   5.300 -0.9881  0.4552 -0.8611
27154SOL    HW290241   2.790   9.889   5.172  0.3605  1.5702 -0.1225
27155SOL     OW90242   3.133   8.882  10.659  0.0671 -0.2329  0.6387
27155SOL    HW190243   3.068   8.883  10.730 -1.9765  2.5077 -1.0493
27155SOL    HW290244   3.167   8.972  10.657 -0.1401 -0.1395 -1.9706
27156SOL     OW90245  11.881   8.083   0.484  0.1591  0.2230 -0.8855
27156SOL    HW190246  11.871   8.021   0.556 -0.1452  0.1329 -1.0043
27156SOL    HW290247  11.795   8.086   0.442 -0.4195  2.2509  0.3282
27157SOL     OW90248   8.851   1.993   6.520  0.1213  0.3302 -0.3630
27157SOL    HW190249   8.785   1.949   6.573 -0.2611 -1.2570 -2.0224
27157SOL    HW290250   8.898   2.050   6.581 -1.7213  0.2939  1.1775
27158SOL     OW90251   2.373  10.116  12.437  0.1445  0.0776 -0.0655
27158SOL    HW190252   2.401  10.025  12.441 -1.1353 -0.3329 -0.0015
27158SOL    HW290253   2.340  10.135  12.525 -1.7990 -0.1673 -0.6884
27159SOL     OW90254   5.618   9.925  10.805 -0.0630  0.2028 -0.2848
27159SOL    HW190255   5.567  10.006  10.806  0.5718  0.6123 -0.5289
27159SOL    HW290256   5.698   9.948  10.758  1.4083  0.2154  2.0921
27160SOL     OW90257  11.263   2.684   6.068  0.4977  0.1300 -0.2339
27160SOL    HW190258  11.306   2.754   6.020  0.5280 -0.5262 -1.1862
27160SOL    HW290259  11.202   2.646   6.005  0.0440 -0.3087  0.4578
27161SOL     OW90260   1.994   2.280  11.462  0.2413 -0.2073 -0.1276
27161SOL    HW190261   1.920   2.223  11.441 -1.6355  1.7728  0.7415
27161SOL    HW290262   1.970   2.322  11.544  2.8644 -0.2621  0.7611
27162SOL     OW90263   9.369   5.811   6.288  0.5650 -0.0340  0.1908
27162SOL    HW190264   9.293   5.758   6.264  0.1405 -0.6408  2.5477
27162SOL    HW290265   9.433   5.747   6.321  2.1775  0.4603 -1.8226
27163SOL     OW90266   3.354   1.462  11.521  0.2616 -0.5229 -0.5587
27163SOL    HW190267   3.380   1.491  11.434  0.3194  1.8433  0.1877
27163SOL    HW290268   3.261   1.438  11.511  0.3410 -0.5423 -1.3128
27164SOL     OW90269  10.729   6.345   8.732  0.0526  0.5384 -0.7474
27164SOL    HW190270  10.653   6.287   8.729 -2.9126  3.7593  2.2294
27164SOL    HW290271  10.782   6.310   8.804 -0.4490  0.1453 -0.5536
27165SOL     OW90272   9.608   3.386  11.990  0.1760  0.4586  0.5826
27165SOL    HW190273   9.641   3.362  11.904 -0.8216  1.7138 -0.1861
27165SOL    HW290274   9.638   3.316  12.048  1.6374  0.0623 -0.5997
27166SOL     OW90275   3.418   3.645   9.508 -0.2189  0.4014  0.3574
27166SOL    HW190276   3.482   3.635   9.578 -0.1465 -0.8179  0.1391
27166SOL    HW290277   3.356   3.710   9.540  0.5821  0.8753  0.9728
27167SOL     OW90278   9.545   6.665   6.693 -0.0681 -0.2580  1.1665
27167SOL    HW190279   9.549   6.695   6.602 -3.3428  0.1805  1.0503
27167SOL    HW290280   9.548   6.569   6.686 -1.0804 -0.2558  0.4866
27168SOL     OW90281   9.069   5.050   5.203  0.5575  0.0954  0.0217
27168SOL    HW190282   9.160   5.080   5.195 -0.0195  1.7810 -0.8369
27168SOL    HW290283   9.049   5.060   5.296  0.2175  3.2294 -0.2635
27169SOL     OW90284   5.581   9.005   3.617  0.4624  0.7145 -0.3608
27169SOL    HW190285   5.544   8.933   3.668  0.3067  1.1988  0.2174
27169SOL    HW290286   5.670   9.016   3.650 -0.1615  2.0964  0.9808
27170SOL     OW90287   1.551   6.730   7.496  0.5998  0.0903 -0.8555
27170SOL    HW190288   1.524   6.741   7.587  0.7521 -0.9312 -0.6835
27170SOL    HW290289   1.486   6.671   7.459  0.6548  0.3446 -1.3621
27171SOL     OW90290   1.616  10.499   9.586  0.1662 -0.1007 -0.3983
27171SOL    HW190291   1.709  10.494   9.605  0.0194  1.5408  0.9592
27171SOL    HW290292   1.573  10.485   9.670 -0.7871 -0.0026 -0.8497
27172SOL     OW90293   6.645   2.527   6.447  0.2083  0.5867  0.0156
27172SOL    HW190294   6.690   2.600   6.405  1.5447 -0.9203 -1.3060
27172SOL    HW290295   6.579   2.500   6.383 -2.4404  2.4731  1.7432
27173SOL     OW90296   6.404   5.166   2.270 -0.6969  0.1064  0.3668
27173SOL    HW190297   6.404   5.125   2.357  2.0617  0.5252  0.6749
27173SOL    HW290298   6.463   5.110   2.218 -1.1819  0.6733 -0.8338
27174SOL     OW90299   3.808   3.069   1.859  0.6112  0.1258 -0.5197
27174SOL    HW190300   3.869   3.118   1.914  1.1656  0.8531 -1.7540
27174SOL    HW290301   3.730   3.126   1.854  0.5115  0.0016 -0.3839
27175SOL     OW90302   5.514   9.526   8.371 -0.4820  0.2623 -0.1717
27175SOL    HW190303   5.582   9.593   8.376 -0.1512 -0.0922  0.1742
27175SOL    HW290304   5.435   9.574   8.348  0.0361  0.5680 -1.3728
27176SOL     OW90305   4.732   2.426   2.865 -0.0962  0.4768  0.1302
27176SOL    HW190306   4.816   2.449   2.905 -0.4545  1.2724  0.4685
27176SOL    HW290307   4.739   2.456   2.775  0.2427 -0.1235 -0.0457
27177SOL     OW90308   1.056   5.115   7.281 -0.3004 -0.5757 -0.1255
27177SOL    HW190309   1.087   5.025   7.272 -1.0709 -0.7851 -0.8401
27177SOL    HW290310   0.969   5.107   7.321  0.3249 -0.0336  1.3815
27178SOL     OW90311  10.252   4.340   6.912  0.1397  0.7791 -0.1320
27178SOL    HW190312  10.218   4.251   6.912  1.1611  0.3571 -1.7562
27178SOL    HW290313  10.266   4.360   7.005  2.5611 -1.8282  0.2051
27179SOL     OW90314   8.155  12.105   1.799  0.2143  0.5636  0.5743
27179SOL    HW190315   8.103  12.183   1.781 -0.1174  0.3955  0.7896
27179SOL    HW290316   8.176  12.070   1.713 -1.0373 -0.0233  0.4899
27180SOL     OW90317  10.377   9.848   4.838 -0.2569 -0.3991  0.1680
27180SOL    HW190318  10.426   9.766   4.853  1.8481  1.0121  1.6315
27180SOL    HW290319  10.371   9.855   4.743 -0.3935 -2.1815  0.0100
27181SOL     OW90320   0.331  10.737   3.530  0.0870  0.9742  0.3912
27181SOL    HW190321   0.394  10.673   3.563 -0.7181 -0.3540 -0.5498
27181SOL    HW290322   0.253  10.686   3.510 -0.2078  2.0446 -1.4442
27182SOL     OW90323   8.263   0.317   5.068  0.1815 -0.1263 -0.1656
27182SOL    HW190324   8.206   0.254   5.025  0.8783  0.3852 -1.9688
27182SOL    HW290325   8.227   0.402   5.044  0.4167  0.1821  0.5427
27183SOL     OW90326   9.382   1.558   5.540 -0.4489 -0.1847  0.0731
27183SOL    HW190327   9.387   1.472   5.582  0.2009 -0.8532 -1.3023
27183SOL    HW290328   9.444   1.612   5.588  1.4421 -1.3664 -0.9430
27184SOL     OW90329   0.010   8.340   8.877 -0.1302  0.6163 -0.1003
27184SOL    HW190330   0.034   8.305   8.791 -0.8303 -2.0852  0.6949
27184SOL    HW290331   0.093   8.365   8.917  0.4695 -0.3147 -0.7160
27185SOL     OW90332   1.322   2.871  12.160 -0.5279 -0.6809  0.5014
27185SOL    HW190333   1.268   2.947  12.178 -0.1868 -0.6494  1.4378
27185SOL    HW290334   1.315   2.816  12.238  0.2401 -0.9951  0.3655
27186SOL     OW90335   3.327   7.225   7.142 -0.0811  0.2127  0.2596
27186SOL    HW190336   3.418   7.196   7.140 -0.3423 -0.7309  0.9704
27186SOL    HW290337   3.313   7.268   7.058  1.3487  1.4336  0.6005
27187SOL     OW90338  11.328   0.174   0.150  0.5115 -0.1973 -0.3781
27187SOL    HW190339  11.319   0.151   0.242  3.1591 -0.3825 -0.1045
27187SOL    HW290340  11.296   0.264   0.145 -0.6196 -0.5256  0.4858
27188SOL     OW90341   5.927   6.093   8.565 -0.0569 -0.2061  0.3546
27188SOL    HW190342   5.997   6.118   8.504  0.2374 -0.5673  0.5394
27188SOL    HW290343   5.851   6.144   8.537 -0.7269 -2.3104 -2.0011
27189SOL     OW90344   1.337   1.503  10.813  0.3799  0.1267 -0.5438
27189SOL    HW190345   1.428   1.532  10.813  0.2080  0.6893 -0.2974
27189SOL    HW290346   1.291   1.570  10.761 -0.0686  0.4529  0.2540
27190SOL     OW90347   3.463   8.850  12.409 -0.1352  0.1542  0.7488
27190SOL    HW190348   3.424   8.842  12.322 -0.2853  1.4434  0.6752
27190SOL    HW290349   3.388   8.860  12.468 -0.0469 -0.9886  1.0746
27191SOL     OW90350   6.681   8.345   7.085 -0.5171 -0.3966  1.0105
27191SOL    HW190351   6.619   8.282   7.050  0.2206 -1.1659  1.0649
27191SOL    HW290352   6.751   8.292   7.123 -0.3238  0.4379  1.8703
27192SOL     OW90353   6.791   8.758  11.898 -0.4381 -0.3213  0.1376
27192SOL    HW190354   6.797   8.813  11.976 -1.7948  0.1548 -0.0585
27192SOL    HW290355   6.864   8.697  11.905 -0.6606 -0.4371  1.8953
27193SOL     OW90356   5.066   3.736   6.002  0.2447  0.4639  0.2493
27193SOL    HW190357   5.133   3.668   6.002 -0.7613 -0.5925  1.5338
27193SOL    HW290358   5.055   3.760   5.910  3.1178  1.4620  0.0794
27194SOL     OW90359   7.973  12.429  11.958 -0.1539 -0.0957  0.2562
27194SOL    HW190360   7.884  12.396  11.946 -0.1243 -1.3414  2.7066
27194SOL    HW290361   7.972  12.469  12.045  0.5286  4.2985 -1.4960
27195SOL     OW90362   4.469   9.792   8.465  0.7323 -0.9256 -0.5010
27195SOL    HW190363   4.534   9.862   8.464 -0.1292 -0.0000  1.7354
27195SOL    HW290364   4.470   9.760   8.556 -1.2443 -1.5322 -0.6416
27196SOL     OW90365  10.937   8.777   3.541 -0.4894  0.2064  0.0756
27196SOL    HW190366  10.897   8.857   3.508 -0.8047  0.4190  0.9690
27196SOL    HW290367  10.884   8.752   3.617 -0.0363 -0.5188  0.1682
27197SOL     OW90368   8.831   4.784   5.936  0.6349  0.4042 -0.3733
27197SOL    HW190369   8.904   4.732   5.901  1.3439 -0.1352  1.7506
27197SOL    HW290370   8.859   4.875   5.925  1.4227  0.2129 -0.0420
27198SOL     OW90371  10.915   3.142   6.775  0.0676 -0.6369 -0.1946
27198SOL    HW190372  10.851   3.081   6.811 -0.3475  1.6082  3.3347
27198SOL    HW290373  10.995   3.125   6.826 -0.0118  1.5440  0.7500
27199SOL     OW90374   5.759   7.927   0.582 -0.1478  0.0638 -0.2792
27199SOL    HW190375   5.837   7.880   0.553  0.2998  0.0207  0.9252
27199SOL    HW290376   5.790   8.013   0.607 -0.7046  0.4753 -0.9748
27200SOL     OW90377   8.319   1.232  10.682 -0.2356  0.3945  0.1743
27200SOL    HW190378   8.345   1.305  10.738 -0.0298 -0.5179  1.3122
27200SOL    HW290379   8.382   1.163  10.702  0.7205  0.4978 -2.2469
27201SOL     OW90380   0.812  10.791   0.213  0.0113 -0.5013 -0.3805
27201SOL    HW190381   0.755  10.851   0.261  0.6036  0.0813 -0.3969
27201SOL    HW290382   0.829  10.835   0.130  0.9671 -0.3912 -0.1357
27202SOL     OW90383   8.276   2.428  11.955 -0.4012  0.1181  0.4259
27202SOL    HW190384   8.187   2.404  11.929 -0.0462 -0.6199 -0.1252
27202SOL    HW290385   8.271   2.439  12.050 -1.1516  0.4081  0.3584
27203SOL     OW90386   7.401   7.129   8.131 -0.3498 -0.4781 -0.3662
27203SOL    HW190387   7.403   7.036   8.154  0.0263 -0.2268  0.6915
27203SOL    HW290388   7.490   7.148   8.099 -0.7081 -0.6930 -1.5485
27204SOL     OW90389  10.444   2.371   8.034 -0.6427 -0.7728 -0.0294
27204SOL    HW190390  10.394   2.390   8.114  0.3953 -0.2883  0.5352
27204SOL    HW290391  10.405   2.427   7.968  1.4647  2.5970  1.2896
27205SOL     OW90392   7.863   6.346   3.991  0.3099 -0.2658  0.6993
27205SOL    HW190393   7.825   6.276   3.938 -0.2811  0.1695  0.5382
27205SOL    HW290394   7.953   6.317   4.009  0.5199 -0.4275 -0.5263
27206SOL     OW90395   4.436   7.562   2.277 -0.1418  0.1134 -0.7051
27206SOL    HW190396   4.353   7.519   2.294  0.1815 -0.4720 -0.5931
27206SOL    HW290397   4.412   7.650   2.249 -0.7888  0.0432 -0.3877
27207SOL     OW90398   9.667   1.418   2.945 -0.4463  0.4884  0.4532
27207SOL    HW190399   9.586   1.428   2.994 -0.2190  0.1145  0.9158
27207SOL    HW290400   9.648   1.455   2.858 -1.0223  0.6422  0.6427
27208SOL     OW90401   5.303   3.408   4.283 -0.3473  0.0341  0.2021
27208SOL    HW190402   5.286   3.315   4.273  1.0553 -0.1967 -0.2623
27208SOL    HW290403   5.293   3.424   4.377  0.9589 -0.9408  0.5365
27209SOL     OW90404   7.124   5.029   0.900  0.3768 -0.2460  0.4386
27209SOL    HW190405   7.095   4.998   0.986  1.2869  0.7672  1.1386
27209SOL    HW290406   7.175   5.107   0.919  2.9479 -1.5035 -0.7629
27210SOL     OW90407  11.968   2.236   4.620 -0.1709 -0.2154 -0.0426
27210SOL    HW190408  11.998   2.163   4.565  0.1446 -0.9300  1.0291
27210SOL    HW290409  12.048   2.285   4.640  0.4618 -2.2082  2.9433
27211SOL     OW90410  11.654   3.520   2.104 -0.7130  0.2689  0.1911
27211SOL    HW190411  11.649   3.522   2.199 -1.7947  1.5572  0.1355
27211SOL    HW290412  11.714   3.590   2.081 -1.6258  0.9736 -0.1134
27212SOL     OW90413   3.761  12.087  12.121 -0.4704 -0.4549 -0.3252
27212SOL    HW190414   3.708  12.118  12.048  1.2385  0.6225 -1.1774
27212SOL    HW290415   3.755  12.157  12.187 -1.6484 -1.2240  0.4270
27213SOL     OW90416   0.769   7.607   3.255 -0.0494  0.1948  0.3534
27213SOL    HW190417   0.845   7.549   3.264 -1.0387 -1.0778  0.7299
27213SOL    HW290418   0.785   7.654   3.173  1.1405 -0.0572  0.4234
27214SOL     OW90419   0.315   7.951   0.507 -0.0996 -0.1089  0.1063
27214SOL    HW190420   0.250   7.972   0.439 -1.0031  0.6560  1.1721
27214SOL    HW290421   0.392   7.921   0.458 -0.8812 -0.0140 -1.2334
27215SOL     OW90422   2.953   7.612   5.399  0.3964 -0.0410 -0.2719
27215SOL    HW190423   2.864   7.618   5.433  0.0681  1.9858 -1.3590
27215SOL    HW290424   2.996   7.547   5.455 -1.3561 -0.0510  1.1376
27216SOL     OW90425   5.001  10.215   6.950 -0.1893 -0.1519  0.4199
27216SOL    HW190426   5.037  10.270   7.019 -2.0060  0.0696  1.2487
27216SOL    HW290427   4.955  10.277   6.892  0.3511 -0.4666 -0.3633
27217SOL     OW90428   2.409  12.478  11.868  0.2327 -0.0688  0.0034
27217SOL    HW190429   2.464  12.547  11.832  0.5891 -0.9418 -1.1755
27217SOL    HW290430   2.469  12.425  11.921  0.3556 -0.4995 -0.5535
27218SOL     OW90431   4.200  12.323   7.039 -0.2000 -0.8315 -0.2961
27218SOL    HW190432   4.174  12.413   7.059 -2.3667 -1.1031 -1.5888
27218SOL    HW290433   4.294  12.329   7.022 -0.2367  1.1220 -0.0768
27219SOL     OW90434   8.206  11.199   3.644 -0.1465  0.1679 -0.0423
27219SOL    HW190435   8.226  11.271   3.585 -0.5565  0.2457 -0.0938
27219SOL    HW290436   8.199  11.123   3.586 -0.8382  0.2973 -0.1393
27220SOL     OW90437  10.539   9.509   0.101  0.3211 -0.1882  0.5970
27220SOL    HW190438  10.453   9.518   0.060  0.3187  1.5256  0.8995
27220SOL    HW290439  10.586   9.589   0.076  2.5166 -1.8760 -1.0966
27221SOL     OW90440  11.983   7.835   1.561  0.2704 -0.0568  0.0332
27221SOL    HW190441  11.982   7.915   1.508  1.3270  0.0910  0.2005
27221SOL    HW290442  12.051   7.852   1.627  0.3113 -0.9887  0.2352
27222SOL     OW90443   0.987   9.272   4.076  0.3112  0.2959 -0.0540
27222SOL    HW190444   0.935   9.279   3.995  0.1387  0.0682  0.0361
27222SOL    HW290445   1.077   9.285   4.047  0.5043 -1.9395 -0.6375
27223SOL     OW90446  12.165   2.558   4.847  0.0312 -0.5333 -0.1666
27223SOL    HW190447  12.161   2.546   4.752  2.8842 -3.0438 -0.1407
27223SOL    HW290448  12.094   2.502   4.881 -2.1300  1.6951 -0.7464
27224SOL     OW90449   6.572  12.256   7.317  0.3980  0.1928 -0.0965
27224SOL    HW190450   6.598  12.346   7.297  0.1920  0.3257  0.2235
27224SOL    HW290451   6.654  12.207   7.321  0.5863  0.5582  0.6539
27225SOL     OW90452  10.997   5.586   9.358  0.3176  0.0626 -0.2111
27225SOL    HW190453  10.927   5.565   9.420 -1.0626  0.1534 -1.6756
27225SOL    HW290454  11.073   5.539   9.391 -0.6470 -0.7460  0.9541
27226SOL     OW90455  12.496   8.287   0.772  0.3124 -0.3704 -0.6148
27226SOL    HW190456  12.472   8.289   0.864 -0.5545  1.4255 -0.8377
27226SOL    HW290457  12.540   8.203   0.760  1.1205 -0.3151  1.5974
27227SOL     OW90458   4.302   5.306   8.147  0.2214 -0.6368 -0.3516
27227SOL    HW190459   4.350   5.388   8.161 -0.5336 -0.1330 -0.6025
27227SOL    HW290460   4.287   5.303   8.053 -0.2037 -0.7994 -0.2814
27228SOL     OW90461   2.881   1.968   4.739 -0.6588  0.3715  0.1394
27228SOL    HW190462   2.870   1.995   4.830 -2.3451 -0.9924  0.4002
27228SOL    HW290463   2.966   2.004   4.713  0.2027  0.1974  2.4653
27229SOL     OW90464  11.034   7.578   1.989  0.3519 -0.6349  0.0547
27229SOL    HW190465  10.971   7.649   1.978  2.1437  0.7172 -2.4215
27229SOL    HW290466  11.083   7.601   2.068  0.9503  0.9764 -0.7461
27230SOL     OW90467   6.443  11.429   8.986 -0.1728 -0.0234  0.0193
27230SOL    HW190468   6.451  11.516   8.948  0.9675 -0.2200 -0.2238
27230SOL    HW290469   6.386  11.381   8.925 -0.1567  0.3117 -0.2595
27231SOL     OW90470   1.298   8.084  11.460 -0.1253  0.0101 -0.1364
27231SOL    HW190471   1.225   8.101  11.519  1.1364  4.9518  0.3947
27231SOL    HW290472   1.374   8.074  11.518  0.2280 -1.3958 -0.7989
27232SOL     OW90473   1.799   1.870  12.424  0.0914  0.3592  0.4866
27232SOL    HW190474   1.758   1.939  12.372  0.5089  0.5755  0.4388
27232SOL    HW290475   1.759   1.789  12.393  1.1180  0.3751 -0.9464
27233SOL     OW90476  10.910  10.913   6.146  0.0643  0.1081 -0.0412
27233SOL    HW190477  10.918  11.001   6.183  1.0136 -0.5545  1.4268
27233SOL    HW290478  10.829  10.916   6.095 -0.7883  1.3698  1.2962
27234SOL     OW90479   3.417  11.362   6.182  0.4889 -0.1013 -0.2407
27234SOL    HW190480   3.488  11.417   6.214 -0.2021  0.1608  0.9240
27234SOL    HW290481   3.404  11.389   6.091  1.6806  0.0373 -0.3749
27235SOL     OW90482  10.442  12.378  11.771 -0.7318  0.2068 -0.2330
27235SOL    HW190483  10.495  12.454  11.748 -2.9145  1.5994 -1.0047
27235SOL    HW290484  10.436  12.381  11.867  0.2991  0.1897 -0.1596
27236SOL     OW90485   5.173  12.092   6.431  0.0796 -0.3739 -0.5231
27236SOL    HW190486   5.163  12.066   6.340  0.4378 -4.0476  0.3183
27236SOL    HW290487   5.107  12.041   6.478 -0.1370  1.4717  1.3191
27237SOL     OW90488   2.461   5.383   2.915  0.2884  0.3957 -0.3114
27237SOL    HW190489   2.393   5.344   2.969  0.2475 -0.4592 -0.9662
27237SOL    HW290490   2.474   5.321   2.843  0.3210  1.5144 -1.3039
27238SOL     OW90491   5.684  12.388   4.678  0.8208 -0.2783 -0.3407
27238SOL    HW190492   5.594  12.386   4.645  0.4501  0.0180  0.6336
27238SOL    HW290493   5.732  12.330   4.619  0.0388 -0.2721 -1.0020
27239SOL     OW90494   1.641   6.781   6.979 -0.1137  0.3043  0.3032
27239SOL    HW190495   1.594   6.745   7.054 -0.5129  0.5079  0.1510
27239SOL    HW290496   1.599   6.741   6.903 -0.4015  0.9103  0.1424
27240SOL     OW90497  10.861   2.774  11.213 -0.0009  0.2449  0.0937
27240SOL    HW190498  10.912   2.855  11.221  0.7186 -0.1831 -0.0854
27240SOL    HW290499  10.842   2.767  11.120 -0.8905  0.6977  0.2310
27241SOL     OW90500  11.584   1.418  11.457 -0.7372 -0.5192 -0.0324
27241SOL    HW190501  11.543   1.347  11.506 -1.0920 -0.3060 -0.0159
27241SOL    HW290502  11.552   1.498  11.499 -3.9491 -0.1565 -2.7376
27242SOL     OW90503   9.407   5.565   4.585 -0.1216  0.0552 -0.1828
27242SOL    HW190504   9.381   5.563   4.493  0.7495 -2.4276 -0.4449
27242SOL    HW290505   9.486   5.511   4.589 -1.7044 -2.3089  2.4363
27243SOL     OW90506   6.410   6.515   3.230  0.8229  0.3155 -0.6298
27243SOL    HW190507   6.454   6.497   3.146  0.1755  1.5097 -1.2569
27243SOL    HW290508   6.480   6.508   3.295  1.0497 -2.0914 -1.0580
27244SOL     OW90509  12.020   5.284   2.813 -0.3554 -0.1529 -0.0076
27244SOL    HW190510  12.114   5.296   2.823 -0.5553  0.9581  0.6523
27244SOL    HW290511  11.987   5.274   2.902 -0.8857 -0.3492 -0.2204
27245SOL     OW90512   7.639   2.448   1.635  0.2225  0.2532 -0.4450
27245SOL    HW190513   7.573   2.444   1.703  0.1786  2.6898 -0.2658
27245SOL    HW290514   7.717   2.482   1.678 -0.1053  2.8818 -1.7113
27246SOL     OW90515  11.647   9.159   3.746  0.7983  0.4303 -0.1903
27246SOL    HW190516  11.644   9.165   3.842 -0.7468  1.3598 -0.2477
27246SOL    HW290517  11.558   9.182   3.719  1.8277  2.7698 -1.9555
27247SOL     OW90518   2.705   6.414   4.097 -0.7398 -0.1278 -0.6879
27247SOL    HW190519   2.617   6.384   4.122  0.6626 -2.2737  2.2030
27247SOL    HW290520   2.753   6.334   4.075  1.3545  0.5851  0.9686
27248SOL     OW90521   7.321   5.575   8.445  0.1867  0.3288 -0.3155
27248SOL    HW190522   7.295   5.662   8.476 -0.5590 -0.1220  0.3710
27248SOL    HW290523   7.248   5.546   8.391 -0.3052 -0.5216  0.7708
27249SOL     OW90524  10.532   1.454  11.725  0.0547  0.1224  0.2850
27249SOL    HW190525  10.532   1.362  11.754  1.4015 -0.0513 -0.1570
27249SOL    HW290526  10.512   1.504  11.804  0.5039 -0.5067  0.8185
27250SOL     OW90527   1.340  12.294   9.280 -0.3082 -0.5004  0.3833
27250SOL    HW190528   1.349  12.390   9.279 -1.6236 -0.3531  0.9747
27250SOL    HW290529   1.390  12.266   9.357  1.3105 -0.4631 -0.5991
27251SOL     OW90530   9.959   6.279   2.983 -0.1097  1.0368 -0.5529
27251SOL    HW190531  10.018   6.216   3.023 -1.3084 -1.8777 -2.9516
27251SOL    HW290532   9.910   6.316   3.056 -0.3276 -1.9410  0.9662
27252SOL     OW90533   7.395   6.106  10.398  0.3548 -0.9193  0.5890
27252SOL    HW190534   7.380   6.143  10.312 -0.9485  0.2955  1.3095
27252SOL    HW290535   7.490   6.096  10.404  0.6617  1.1444 -0.1262
27253SOL     OW90536   5.604   4.321   3.161 -0.4764  0.6542 -0.5435
27253SOL    HW190537   5.521   4.316   3.209 -1.0275  2.0479 -1.2845
27253SOL    HW290538   5.586   4.380   3.087  1.6108  2.4571  0.2557
27254SOL     OW90539   8.809   6.831   5.071 -0.4685 -0.2914 -0.0382
27254SOL    HW190540   8.793   6.827   4.977  1.8367 -0.4544 -0.4680
27254SOL    HW290541   8.738   6.778   5.109 -1.1212 -0.6797 -1.7014
27255SOL     OW90542   9.593   7.528   4.398 -0.2094  0.6154 -0.2398
27255SOL    HW190543   9.606   7.592   4.468  1.2265  0.0259  0.0812
27255SOL    HW290544   9.548   7.455   4.440  1.4494 -0.1260  0.3567
27256SOL     OW90545   6.892  12.297  12.375 -0.0763  0.3147  0.7248
27256SOL    HW190546   6.968  12.275  12.321  0.6974  0.0357  1.8829
27256SOL    HW290547   6.899  12.392  12.390 -0.5660  0.4778 -0.0623
27257SOL     OW90548   4.265  11.052   1.353  0.3171  0.0460 -0.3706
27257SOL    HW190549   4.311  10.968   1.360  0.8415  0.2416 -1.3373
27257SOL    HW290550   4.230  11.053   1.264  1.0497  1.2126 -0.6667
27258SOL     OW90551   5.154   7.743   0.447  0.1186 -0.0741 -0.4461
27258SOL    HW190552   5.089   7.679   0.478  0.6316 -0.1519  0.5232
27258SOL    HW290553   5.121   7.772   0.362 -0.2340 -1.4679 -0.8006
27259SOL     OW90554   6.997   4.538   2.393  0.0135  0.5867 -0.3041
27259SOL    HW190555   7.050   4.500   2.323  0.5245  1.0263 -0.1692
27259SOL    HW290556   7.042   4.620   2.415 -0.7120  0.9518 -0.1612
27260SOL     OW90557  12.294   7.288  10.657  0.0238 -0.1965 -0.1591
27260SOL    HW190558  12.272   7.365  10.604  0.8502  1.5156  1.8402
27260SOL    HW290559  12.211   7.262  10.697 -0.2656 -0.3860 -0.8674
27261SOL     OW90560   6.683   3.190   4.699 -0.3699 -0.1223  0.3054
27261SOL    HW190561   6.761   3.189   4.754 -0.7266 -2.2585  0.8807
27261SOL    HW290562   6.716   3.195   4.610  0.3233  1.0338  0.6108
27262SOL     OW90563   2.928   8.555   5.555  0.0502 -0.0291  0.9181
27262SOL    HW190564   3.018   8.572   5.528  0.5093 -1.8359  1.1863
27262SOL    HW290565   2.897   8.488   5.495 -1.5678  1.3845  0.0766
27263SOL     OW90566   6.759   8.694  11.236  0.5150  0.3614 -0.3254
27263SOL    HW190567   6.694   8.765  11.229  1.0043  1.0530  1.6894
27263SOL    HW290568   6.832   8.733  11.284  1.3325 -1.1682 -0.2744
27264SOL     OW90569   4.276   8.460   3.318 -0.1422  0.3705 -0.3472
27264SOL    HW190570   4.338   8.388   3.303 -0.5195 -0.1062  0.3489
27264SOL    HW290571   4.201   8.419   3.360 -0.8074  1.0038 -0.8871
27265SOL     OW90572   6.623   4.067   3.100  0.1386 -0.2666  0.0109
27265SOL    HW190573   6.572   4.147   3.103 -0.6716 -0.7741 -0.0016
27265SOL    HW290574   6.714   4.097   3.092  0.0943  0.7052  2.4032
27266SOL     OW90575  10.329   3.905   3.419  0.2611 -0.2437 -0.5797
27266SOL    HW190576  10.307   3.854   3.497 -0.6383  3.2619  1.7200
27266SOL    HW290577  10.248   3.910   3.369  0.3928 -1.1141 -0.8939
27267SOL     OW90578   3.787   4.910   6.250  0.4494  0.3597  0.2575
27267SOL    HW190579   3.775   4.864   6.333  0.2192  1.1519  0.6734
27267SOL    HW290580   3.841   4.851   6.198 -0.6211 -0.8164  0.4100
27268SOL     OW90581  11.888   1.359   1.240 -0.7300  0.7016 -0.7055
27268SOL    HW190582  11.956   1.293   1.224 -0.5462  0.9264 -0.8704
27268SOL    HW290583  11.929   1.421   1.300 -1.2160  0.1851  0.1737
27269SOL     OW90584   1.199   6.432  10.800 -0.0429 -0.7655  0.0274
27269SOL    HW190585   1.284   6.469  10.776  0.6308 -2.6993 -0.8027
27269SOL    HW290586   1.139   6.463  10.733  0.1454  0.0613  0.2299
27270SOL     OW90587  12.050   8.870  11.663 -0.6731 -0.0955 -0.0984
27270SOL    HW190588  12.093   8.894  11.745 -0.5085 -1.0711  0.1169
27270SOL    HW290589  11.958   8.862  11.686 -0.7156  0.2503 -0.1504
27271SOL     OW90590   3.977   9.235  11.575  0.3065  0.3248 -0.2942
27271SOL    HW190591   3.950   9.304  11.515 -0.3260  2.3959  2.2109
27271SOL    HW290592   4.020   9.281  11.647  1.3347 -2.0750  0.7325
27272SOL     OW90593   6.625   3.087   0.497  0.1678 -0.4575 -0.2879
27272SOL    HW190594   6.673   3.119   0.573  1.6560 -1.1062 -0.9138
27272SOL    HW290595   6.645   2.993   0.494 -0.3688 -0.5576 -1.1272
27273SOL     OW90596   1.156   0.589   9.832  0.0736 -0.3496 -0.6058
27273SOL    HW190597   1.153   0.503   9.875 -2.8305 -0.4729 -0.8850
27273SOL    HW290598   1.225   0.579   9.766  1.1980 -1.7691  0.6886
27274SOL     OW90599  12.364   7.342   0.094  0.0846 -0.2175 -0.5465
27274SOL    HW190600  12.387   7.250   0.111  0.6511 -0.0945 -0.6197
27274SOL    HW290601  12.369   7.351  -0.001 -0.2153 -0.1734 -0.5574
27275SOL     OW90602   3.004   4.210   4.430  0.4733  0.1724 -0.4058
27275SOL    HW190603   2.956   4.135   4.464  0.0321 -0.4121 -2.2167
27275SOL    HW290604   2.943   4.284   4.440  0.0667 -0.1324 -0.5950
27276SOL     OW90605   8.069   2.247   6.678  0.8094  0.7228 -0.2160
27276SOL    HW190606   8.019   2.252   6.596  0.3964 -2.4535 -0.2695
27276SOL    HW290607   8.160   2.244   6.650  0.7026  0.3065 -0.5399
27277SOL     OW90608   2.941   4.692   1.815 -0.6116  0.0591  0.5243
27277SOL    HW190609   2.922   4.599   1.818  1.1167 -0.4709 -1.9372
27277SOL    HW290610   3.027   4.701   1.855 -0.6459  0.5674  0.4947
27278SOL     OW90611   0.763  10.138   7.772 -0.3621 -0.6112  0.3058
27278SOL    HW190612   0.793  10.192   7.845  0.8072 -2.3809  1.1999
27278SOL    HW290613   0.675  10.110   7.797 -0.4233 -0.2815  0.4750
27279SOL     OW90614  12.147   1.935   5.175 -0.2449  0.0794 -0.1265
27279SOL    HW190615  12.062   1.979   5.167 -1.4040 -2.0215 -0.2398
27279SOL    HW290616  12.175   1.954   5.265 -0.6663  1.0411 -0.1840
27280SOL     OW90617  12.027   7.431   4.535  0.1115  0.6903  0.1644
27280SOL    HW190618  12.091   7.361   4.523 -0.1267  0.0996  1.9853
27280SOL    HW290619  12.074   7.511   4.512  1.1445  0.1453  0.3256
27281SOL     OW90620  12.408   2.879  10.080  0.4336  0.6102  0.4571
27281SOL    HW190621  12.455   2.951  10.036 -0.3158  0.9760  0.2392
27281SOL    HW290622  12.415   2.805  10.019  0.8791  0.6074  0.5088
27282SOL     OW90623   1.255   9.847  12.003  0.5554 -0.6810 -0.3319
27282SOL    HW190624   1.209   9.774  11.962  3.3143 -1.7142 -1.7714
27282SOL    HW290625   1.313   9.881  11.936  1.3550  1.0899  1.1545
27283SOL     OW90626  12.317   5.407   9.441  0.1715  0.1507 -0.0221
27283SOL    HW190627  12.377   5.377   9.373 -1.4650 -1.5045 -0.8529
27283SOL    HW290628  12.231   5.375   9.412 -1.1670  2.5495  1.0092
27284SOL     OW90629  11.279   8.891   2.888  0.5697  0.6535 -0.5648
27284SOL    HW190630  11.300   8.815   2.941 -0.2564  0.3695 -0.6197
27284SOL    HW290631  11.204   8.863   2.835  0.6681  1.2919 -1.0592
27285SOL     OW90632   9.719   0.957   3.288  0.5858  0.3935  0.0024
27285SOL    HW190633   9.726   0.907   3.369 -0.7406  0.5144  0.2203
27285SOL    HW290634   9.775   1.033   3.300 -0.9361  1.3343  1.5395
27286SOL     OW90635  11.728  11.175   0.143  0.2998  0.1770 -0.0495
27286SOL    HW190636  11.636  11.163   0.165 -0.2819  1.3524 -1.7360
27286SOL    HW290637  11.756  11.249   0.197  1.0945 -1.8271  2.5402
27287SOL     OW90638  10.828   6.419   2.970 -0.2845 -0.7157  0.3539
27287SOL    HW190639  10.859   6.509   2.956 -0.0447 -0.9159 -0.4830
27287SOL    HW290640  10.886   6.365   2.916 -1.6290 -1.1791 -0.6849
27288SOL     OW90641   4.537   6.093   7.355 -0.2015  0.0868 -0.1834
27288SOL    HW190642   4.457   6.108   7.406 -0.5310  0.2819 -0.7415
27288SOL    HW290643   4.550   6.176   7.308 -1.2953 -0.8825 -2.3076
27289SOL     OW90644   4.784  12.074   2.766  0.5363 -0.5240  0.3171
27289SOL    HW190645   4.771  12.168   2.768 -0.0283 -0.6124  0.9766
27289SOL    HW290646   4.720  12.042   2.702  0.0100 -0.5614  0.8505
27290SOL     OW90647   3.671   5.495   5.954 -0.2289  0.1053 -0.2049
27290SOL    HW190648   3.606   5.563   5.937  0.3895  0.4226 -1.3334
27290SOL    HW290649   3.755   5.540   5.956  0.0291 -0.3734  0.8137
27291SOL     OW90650   9.941   5.202   8.242 -0.1434  0.1023 -0.2849
27291SOL    HW190651   9.865   5.201   8.301 -0.5366  2.0816 -0.6729
27291SOL    HW290652   9.911   5.157   8.163  0.2139 -2.0889  0.7660
27292SOL     OW90653  11.262   2.687   0.458  0.6907  0.3917  0.0547
27292SOL    HW190654  11.191   2.696   0.396  0.3500  0.7042  0.4840
27292SOL    HW290655  11.330   2.638   0.411 -0.0063 -0.3616 -0.1848
27293SOL     OW90656   6.958  10.111  10.595 -0.2744  0.3771  0.0074
27293SOL    HW190657   7.031  10.101  10.657  0.5063  1.2820 -0.7281
27293SOL    HW290658   6.973  10.196  10.554 -1.0369  0.0159 -1.0784
27294SOL     OW90659   6.414   6.828   2.644 -0.2100  0.2396 -0.0282
27294SOL    HW190660   6.324   6.795   2.647  0.0565 -0.4188  1.5716
27294SOL    HW290661   6.405   6.921   2.625 -1.0357 -0.4347 -3.6120
27295SOL     OW90662   7.352   1.289  11.737  0.4330  0.6366 -0.6617
27295SOL    HW190663   7.284   1.337  11.690  2.7128  2.2262 -2.5648
27295SOL    HW290664   7.367   1.211  11.684 -1.1328 -0.7381  0.7931
27296SOL     OW90665  10.857   2.056   8.810  0.0176  0.1744 -0.0647
27296SOL    HW190666  10.868   1.982   8.870  0.3124 -0.4212 -0.8350
27296SOL    HW290667  10.894   2.131   8.858  3.0732 -0.8380 -0.5997
27297SOL     OW90668   5.620   8.436   1.967 -0.1165 -0.1255 -0.4422
27297SOL    HW190669   5.680   8.488   2.021 -1.1421  0.5208  0.0952
27297SOL    HW290670   5.569   8.501   1.918 -1.1338 -0.6264 -0.0699
27298SOL     OW90671   0.309  11.912  12.120 -0.1456  0.2978 -0.1536
27298SOL    HW190672   0.390  11.927  12.169 -0.2329  1.3764 -0.3173
27298SOL    HW290673   0.329  11.837  12.064  0.5637  0.2173  0.1977
27299SOL     OW90674   5.001  11.294  11.860  0.4485 -0.4208 -0.1749
27299SOL    HW190675   4.953  11.331  11.786 -0.2031 -0.1493  0.3772
27299SOL    HW290676   5.029  11.370  11.911  2.2043 -0.5175 -0.9157
27300SOL     OW90677  10.526   4.594   9.257 -0.3530  0.3156 -0.5858
27300SOL    HW190678  10.496   4.685   9.251 -1.7131 -0.0710 -0.0084
27300SOL    HW290679  10.468   4.554   9.321 -1.5520 -1.6482 -2.7742
27301SOL     OW90680  12.218   6.801  11.910 -0.1374  0.4469 -0.3195
27301SOL    HW190681  12.260   6.774  11.992 -0.0157 -1.3021 -0.9177
27301SOL    HW290682  12.244   6.892  11.899  1.8269  0.0323  0.3988
27302SOL     OW90683   2.895   4.915   0.596 -0.4250  0.0677  0.5775
27302SOL    HW190684   2.918   4.951   0.682  0.2410  0.6298  0.1719
27302SOL    HW290685   2.974   4.925   0.544 -0.9630  0.1565 -0.2405
27303SOL     OW90686   8.765   0.990  10.499 -0.4625 -0.0333 -0.0353
27303SOL    HW190687   8.784   0.914  10.554  0.4386 -0.6635 -1.1786
27303SOL    HW290688   8.841   1.047  10.511 -1.6438  1.2801  1.7153
27304SOL     OW90689   1.160   4.318   4.214  0.4094 -0.3371  0.2778
27304SOL    HW190690   1.184   4.397   4.262  3.4053 -0.3583 -1.0057
27304SOL    HW290691   1.216   4.250   4.250 -1.1925 -1.6230  0.4356
27305SOL     OW90692   2.455  10.306  12.041  0.1807 -0.1427 -0.0672
27305SOL    HW190693   2.517  10.356  12.093  1.4214 -2.2870  0.6557
27305SOL    HW290694   2.464  10.339  11.952  2.4134 -0.4196  0.0150
27306SOL     OW90695   1.385   2.140   5.223 -0.3966  0.3860 -0.0088
27306SOL    HW190696   1.391   2.162   5.130 -2.2274  1.6112  0.1037
27306SOL    HW290697   1.360   2.048   5.224  0.3396  0.1641 -0.6939
27307SOL     OW90698   3.639   4.972   7.120  0.6784 -0.0688 -0.3400
27307SOL    HW190699   3.672   4.883   7.127 -1.8778 -1.1692 -1.0874
27307SOL    HW290700   3.640   4.992   7.026  0.1215  0.2197 -0.2923
27308SOL     OW90701  11.717   3.561  12.222 -0.3300  0.0040  0.0486
27308SOL    HW190702  11.623   3.545  12.221 -0.3107 -0.0926 -0.7410
27308SOL    HW290703  11.732   3.619  12.147  0.1809  0.3762  0.4285
27309SOL     OW90704   8.590   0.530  10.354  0.0060 -0.2135  0.6518
27309SOL    HW190705   8.530   0.535  10.280 -0.6319 -2.3492  0.9596
27309SOL    HW290706   8.673   0.563  10.321 -0.8639  1.0525 -0.3176
27310SOL     OW90707   7.194   0.035  11.664  0.1096 -0.1835 -0.3363
27310SOL    HW190708   7.142   0.047  11.744  0.1363  0.8500 -0.4592
27310SOL    HW290709   7.279   0.076  11.684  0.9621 -1.9892 -0.0787
27311SOL     OW90710   4.577  10.564   6.733 -0.1800  0.4180  0.2627
27311SOL    HW190711   4.618  10.647   6.757 -0.4717  0.5693  0.2446
27311SOL    HW290712   4.532  10.582   6.651 -0.0124  0.1665  0.1137
27312SOL     OW90713   5.389  12.340   8.866  0.3721  0.5281  0.0917
27312SOL    HW190714   5.294  12.348   8.864  0.2842 -0.3108  0.5326
27312SOL    HW290715   5.421  12.429   8.853 -0.4691  0.8104 -0.0975
27313SOL     OW90716   2.311  11.031   6.454  0.9328  0.1252  0.9065
27313SOL    HW190717   2.336  11.047   6.363  2.0484 -0.6398  1.0650
27313SOL    HW290718   2.340  10.942   6.472 -0.1536 -0.0906  1.7302
27314SOL     OW90719   4.194   6.940   1.689  0.3102  0.0749  0.0155
27314SOL    HW190720   4.262   6.919   1.626 -1.0732  1.0272 -1.8875
27314SOL    HW290721   4.133   6.867   1.685  0.5683 -0.1933  0.7974
27315SOL     OW90722   7.503  11.491   6.045 -0.3841 -0.0320  0.3580
27315SOL    HW190723   7.419  11.465   6.007 -0.8182  2.7345 -0.8407
27315SOL    HW290724   7.482  11.514   6.136 -0.4342 -1.4836  0.7352
27316SOL     OW90725   3.447   2.440   1.160  0.0869 -0.3040 -0.1912
27316SOL    HW190726   3.377   2.486   1.206 -0.9279 -1.8429 -0.1196
27316SOL    HW290727   3.490   2.387   1.227  0.9688  0.2013 -0.3439
27317SOL     OW90728   6.252   2.346   1.846  0.5521 -0.1992  0.3351
27317SOL    HW190729   6.251   2.251   1.837  0.9217 -0.0963 -0.9555
27317SOL    HW290730   6.344   2.368   1.856  0.5725  0.0960 -0.4209
27318SOL     OW90731   7.962   0.513  10.490  0.6149  0.4047 -0.1574
27318SOL    HW190732   7.898   0.551  10.550  0.2988  1.0527 -0.8762
27318SOL    HW290733   7.949   0.419  10.497 -0.7124  0.5271 -0.5782
27319SOL     OW90734   1.909   6.026  12.202 -0.0683 -0.3435 -0.4624
27319SOL    HW190735   1.883   5.937  12.226 -1.3354  0.2779  0.6027
27319SOL    HW290736   1.826   6.072  12.187  0.5499  0.7859 -0.4940
27320SOL     OW90737   2.894  10.748   2.048  0.1164  0.1277 -0.6616
27320SOL    HW190738   2.952  10.793   2.109  0.7136  0.8969 -1.7563
27320SOL    HW290739   2.943  10.744   1.966  0.1764 -2.7423 -0.5891
27321SOL     OW90740   3.198  11.455   7.787 -0.2051  0.1028 -0.7192
27321SOL    HW190741   3.128  11.396   7.759 -2.2631  2.5436 -1.0838
27321SOL    HW290742   3.256  11.461   7.711 -0.1079 -1.2064 -0.7663
27322SOL     OW90743  12.577   4.095   3.010 -0.0742 -0.5424 -0.3727
27322SOL    HW190744  12.563   4.180   2.969  1.7021 -0.1434 -0.2235
27322SOL    HW290745  12.554   4.031   2.943  2.4078  0.0920 -1.9396
27323SOL     OW90746   2.744   6.501   3.032 -0.3635 -0.4843  0.4899
27323SOL    HW190747   2.671   6.507   3.092 -2.4471 -2.9483 -1.5469
27323SOL    HW290748   2.717   6.551   2.955  0.7787 -0.1577  0.2778
27324SOL     OW90749   7.780   9.737  10.512  0.4633  0.1080 -0.3619
27324SOL    HW190750   7.818   9.781  10.436  0.7910 -0.4378 -0.5232
27324SOL    HW290751   7.689   9.720  10.487  0.4064  0.4666 -0.3964
27325SOL     OW90752   4.406  12.443   9.109 -0.0275 -0.1339  0.3602
27325SOL    HW190753   4.369  12.355   9.105 -1.5914  0.5437 -1.2916
27325SOL    HW290754   4.491  12.431   9.151 -0.3560 -2.3711  0.5059
27326SOL     OW90755   0.637   7.684   4.800  0.2592 -0.0526 -0.4353
27326SOL    HW190756   0.632   7.754   4.864  0.1693  0.9724 -1.5318
27326SOL    HW290757   0.729   7.682   4.773  0.1790 -0.0741 -0.7138
27327SOL     OW90758   1.394   0.540  10.140  0.2989 -0.0834 -0.3048
27327SOL    HW190759   1.338   0.563  10.214  1.5120  0.3971  0.4972
27327SOL    HW290760   1.343   0.477  10.090 -0.2931 -0.9324  1.2945
27328SOL     OW90761   9.145   0.492  12.047  0.5475 -0.1907  0.3029
27328SOL    HW190762   9.210   0.552  12.011  0.7809 -0.7748 -0.2629
27328SOL    HW290763   9.061   0.536  12.032  0.7594  0.2548  0.4150
27329SOL     OW90764   0.954   4.506   2.413  0.3689 -0.5872  0.1740
27329SOL    HW190765   0.915   4.592   2.399  0.5748 -0.6238 -0.7210
27329SOL    HW290766   1.034   4.507   2.359  0.8274 -1.0319  0.8244
27330SOL     OW90767   3.305   0.635   9.315 -0.0282  0.3484  0.0140
27330SOL    HW190768   3.364   0.680   9.375  1.7037 -1.2103 -0.4313
27330SOL    HW290769   3.222   0.682   9.323  0.8613  1.7346  1.7209
27331SOL     OW90770   3.730   2.720   7.085 -0.1626  0.0241 -0.0070
27331SOL    HW190771   3.722   2.668   7.164  0.7567 -0.0502  0.0445
27331SOL    HW290772   3.741   2.656   7.015  0.8254  0.1361  0.0387
27332SOL     OW90773   4.945   1.986   2.027  0.2834 -0.1943  0.3221
27332SOL    HW190774   4.928   1.909   2.082 -0.4101  0.4261  1.0060
27332SOL    HW290775   4.929   2.060   2.085 -0.5190  0.4873 -0.7358
27333SOL     OW90776   6.057  12.396   2.586  0.5117  0.0438  0.1868
27333SOL    HW190777   6.056  12.317   2.532 -3.3773 -0.0580  0.1470
27333SOL    HW290778   6.031  12.365   2.673 -2.2730  1.2603 -0.0898
27334SOL     OW90779   8.429  10.477   6.154 -0.1275  0.2235  0.3706
27334SOL    HW190780   8.419  10.416   6.227  0.1818 -0.9376 -0.5349
27334SOL    HW290781   8.341  10.485   6.117  0.2285 -1.7684 -1.1066
27335SOL     OW90782   1.099  12.442  10.120  0.1338  0.1863 -0.0097
27335SOL    HW190783   1.055  12.365  10.084 -1.1021  1.1156 -0.5386
27335SOL    HW290784   1.191  12.416  10.124 -0.0088 -0.7722 -1.7004
27336SOL     OW90785   3.473  10.614   5.114 -0.4269  0.5495  0.2738
27336SOL    HW190786   3.460  10.580   5.026  0.2392  0.2857  0.2728
27336SOL    HW290787   3.547  10.674   5.107 -1.7877  2.3137  0.2043
27337SOL     OW90788   3.216   1.563   7.431 -0.2480  0.0422 -0.2494
27337SOL    HW190789   3.132   1.563   7.386 -0.8113 -0.6704  0.7713
27337SOL    HW290790   3.269   1.499   7.383 -1.1702 -1.4544  0.6538
27338SOL     OW90791   1.779  11.789   8.215 -0.1625  0.6523  0.1938
27338SOL    HW190792   1.685  11.806   8.207 -0.2223  0.5082  0.5703
27338SOL    HW290793   1.794  11.709   8.163 -0.0657  1.2261 -0.6968
27339SOL     OW90794  12.385   2.095   4.722 -0.6094  0.2360  0.0092
27339SOL    HW190795  12.404   2.022   4.663  2.3488  0.8281  0.0449
27339SOL    HW290796  12.379   2.054   4.809  1.1375 -0.0525  0.0491
27340SOL     OW90797   0.898   2.872   7.779  0.4888  0.2745 -0.1353
27340SOL    HW190798   0.867   2.845   7.693 -0.0500 -0.3370  0.2400
27340SOL    HW290799   0.900   2.968   7.776  4.0983  0.3236 -2.0863
27341SOL     OW90800  11.426   3.183   3.858  0.5817  0.5793  0.5436
27341SOL    HW190801  11.483   3.106   3.854  0.1204  0.2054  1.0855
27341SOL    HW290802  11.395   3.193   3.768  0.3082 -0.1332  0.5473
27342SOL     OW90803   8.493   3.450   6.211 -0.1745 -0.2304 -0.1759
27342SOL    HW190804   8.565   3.412   6.262  0.2646 -1.8522 -1.8751
27342SOL    HW290805   8.537   3.503   6.145 -0.4709 -1.4284 -1.3792
27343SOL     OW90806   7.479   2.016   9.319  0.0214  0.0921  0.5988
27343SOL    HW190807   7.504   2.065   9.241 -0.5717 -1.2537 -0.4721
27343SOL    HW290808   7.383   2.016   9.317  0.0057 -1.8390  0.0709
27344SOL     OW90809  10.891   4.465   3.065  0.4101 -0.4731 -0.0355
27344SOL    HW190810  10.885   4.561   3.068  0.8753 -0.4471  0.1599
27344SOL    HW290811  10.801   4.435   3.080 -0.0018 -0.0516 -1.5322
27345SOL     OW90812   8.984   1.392   8.295 -0.2825 -0.6904 -0.1650
27345SOL    HW190813   9.078   1.403   8.284 -0.5056  1.7403 -0.3661
27345SOL    HW290814   8.972   1.301   8.322  1.7909 -2.0685 -3.3836
27346SOL     OW90815   1.160   8.798   8.212  0.1550 -0.1771 -0.4803
27346SOL    HW190816   1.106   8.783   8.290  0.1278  0.7134 -0.3194
27346SOL    HW290817   1.110   8.760   8.140 -0.9483  1.0769 -0.4133
27347SOL     OW90818   0.401   2.196   3.257 -0.3820  0.1508  0.0903
27347SOL    HW190819   0.324   2.238   3.294 -0.3527  1.0573 -0.8214
27347SOL    HW290820   0.394   2.212   3.162  1.1314  0.6398  0.0265
27348SOL     OW90821   0.125   6.040   1.719 -0.0911  0.0569 -0.0666
27348SOL    HW190822   0.211   6.013   1.753  0.4440  1.3045 -0.3977
27348SOL    HW290823   0.140   6.060   1.627 -0.7428  0.2919 -0.1266
27349SOL     OW90824   1.188   4.695  12.088 -0.4737 -0.3310  0.3666
27349SOL    HW190825   1.144   4.616  12.056 -0.1782 -1.3134  2.2617
27349SOL    HW290826   1.281   4.671  12.091 -0.3930  0.0451  1.0563
27350SOL     OW90827   4.360   1.662   1.993 -0.5321 -0.6602 -0.0052
27350SOL    HW190828   4.374   1.754   1.971  0.1910 -0.1490  2.2548
27350SOL    HW290829   4.385   1.615   1.914  0.2673  1.0267 -0.8244
27351SOL     OW90830   3.506   7.694   2.841  0.1384  0.3393  0.3010
27351SOL    HW190831   3.412   7.703   2.859  0.4460  0.6966  1.9084
27351SOL    HW290832   3.522   7.754   2.768 -0.7671  0.7742  0.4409
27352SOL     OW90833   5.356   0.888   7.712  0.0184 -0.1053 -0.5193
27352SOL    HW190834   5.291   0.873   7.644  0.7884 -1.3867 -1.0137
27352SOL    HW290835   5.380   0.801   7.743  2.2243  0.2165 -1.0925
27353SOL     OW90836   2.482   7.134   1.065 -0.5126  0.6908 -1.3150
27353SOL    HW190837   2.413   7.107   1.126  1.0285 -0.6356 -0.0670
27353SOL    HW290838   2.486   7.229   1.075 -1.8490  0.7560 -1.1006
27354SOL     OW90839  12.132  10.330   2.721  0.3631 -0.1123  0.3092
27354SOL    HW190840  12.084  10.338   2.803  1.2085 -1.2413  0.9478
27354SOL    HW290841  12.176  10.414   2.709 -0.4510  0.3572  0.5478
27355SOL     OW90842   6.837   1.779   4.801 -0.4755  0.3091  0.0142
27355SOL    HW190843   6.928   1.749   4.797 -0.4098  0.3288  1.1453
27355SOL    HW290844   6.805   1.746   4.885 -2.0221 -1.0885 -1.0724
27356SOL     OW90845   5.353   5.088   5.454 -0.0743  0.3930  0.5864
27356SOL    HW190846   5.261   5.109   5.438 -0.3534  0.1875  1.7829
27356SOL    HW290847   5.361   5.092   5.549  0.8644 -0.7830  0.5720
27357SOL     OW90848  11.397   2.152   1.798  0.0036 -0.3600  0.3133
27357SOL    HW190849  11.439   2.193   1.874 -0.2463  2.7373 -1.0785
27357SOL    HW290850  11.321   2.207   1.779 -0.3114 -1.4157 -1.8246
27358SOL     OW90851  10.748  12.044   0.030 -0.0789  0.9803 -0.1928
27358SOL    HW190852  10.713  12.059   0.118  0.6109 -1.2830  0.5503
27358SOL    HW290853  10.823  11.986   0.044 -0.0319  0.4519 -2.2947
27359SOL     OW90854   9.871   3.463   1.978 -0.3756  0.2572 -0.0624
27359SOL    HW190855   9.922   3.398   2.028  2.4050  3.1227  1.1455
27359SOL    HW290856   9.790   3.417   1.956  1.3908 -3.6149  0.6402
27360SOL     OW90857   3.242   5.310   1.425  0.1307 -0.4780  0.4735
27360SOL    HW190858   3.283   5.259   1.494 -3.0117 -0.1341  2.8209
27360SOL    HW290859   3.208   5.388   1.470  0.7364  1.4224 -2.1133
27361SOL     OW90860  10.273   3.834   2.244  0.8729  0.0937  0.5554
27361SOL    HW190861  10.351   3.890   2.239  1.2998 -0.5900 -0.8813
27361SOL    HW290862  10.292   3.761   2.186 -0.3965 -0.6695  1.0633
27362SOL     OW90863   2.541   9.400   6.257  0.4886  0.4773 -0.1320
27362SOL    HW190864   2.608   9.458   6.292  1.3778 -0.8261  0.3987
27362SOL    HW290865   2.473   9.398   6.325 -0.0476  1.6810 -0.6059
27363SOL     OW90866  10.893   7.467  10.676 -0.1417 -0.0632  0.1098
27363SOL    HW190867  10.882   7.418  10.595 -0.7731  2.0325 -1.1721
27363SOL    HW290868  10.985   7.453  10.700  0.3877  0.1416 -1.6175
27364SOL     OW90869   1.289   1.583   4.351  0.3957  0.2619 -0.3600
27364SOL    HW190870   1.238   1.644   4.405  2.2844  0.8005  0.9096
27364SOL    HW290871   1.363   1.558   4.406  0.5060 -2.0128 -1.4377
27365SOL     OW90872   9.247   1.415   9.692 -0.0547 -0.0737 -0.0927
27365SOL    HW190873   9.314   1.365   9.644  1.5253  3.2649 -1.7217
27365SOL    HW290874   9.292   1.445   9.771 -0.9127 -0.9561  0.7571
27366SOL     OW90875   2.440   6.503   2.852 -0.8011 -0.0395  0.7360
27366SOL    HW190876   2.401   6.502   2.765  0.9664 -0.1053 -0.0870
27366SOL    HW290877   2.378   6.553   2.905 -0.6398  2.3542 -1.1829
27367SOL     OW90878   5.641   4.821   5.635  0.5399  0.2295  0.2654
27367SOL    HW190879   5.585   4.774   5.573  3.7533 -0.2228 -2.5728
27367SOL    HW290880   5.634   4.769   5.716 -2.4599 -0.1638 -0.1100
27368SOL     OW90881  10.292   5.020   2.474 -0.2051  0.1235  0.6091
27368SOL    HW190882  10.270   4.978   2.557  0.6015 -1.2599  0.1590
27368SOL    HW290883  10.325   5.107   2.499 -0.3675 -0.1144  1.6963
27369SOL     OW90884  10.615   6.225   2.904  0.0603  0.1145  0.1489
27369SOL    HW190885  10.620   6.252   2.812 -0.9003  0.7438  0.2684
27369SOL    HW290886  10.652   6.298   2.953 -1.2778  0.6609  0.3831
27370SOL     OW90887   2.155   4.778   3.112 -0.4699 -0.1910 -0.0160
27370SOL    HW190888   2.248   4.790   3.094 -0.4538 -2.1608 -1.6461
27370SOL    HW290889   2.151   4.700   3.167 -1.1414  0.2040  0.5155
27371SOL     OW90890  12.263   5.462   2.590  0.1529  0.2068  0.2128
27371SOL    HW190891  12.189   5.518   2.617 -1.4097 -1.4587 -0.4422
27371SOL    HW290892  12.257   5.385   2.646  0.5085 -0.6068 -0.8371
27372SOL     OW90893   7.284  12.202   3.658  0.2159 -0.0096  0.1509
27372SOL    HW190894   7.317  12.259   3.727  0.7240  0.5054 -0.5180
27372SOL    HW290895   7.362  12.167   3.616 -0.0134 -2.6170  1.6610
27373SOL     OW90896   1.577   6.292   1.638  0.0387  0.2040 -0.3571
27373SOL    HW190897   1.519   6.345   1.693  0.7790  1.3315 -0.6145
27373SOL    HW290898   1.585   6.209   1.683 -0.9885  0.3914  0.1852
27374SOL     OW90899   5.026   6.472   8.408 -0.3992  0.2225 -0.0727
27374SOL    HW190900   5.011   6.543   8.471 -0.5714  0.1741 -0.0598
27374SOL    HW290901   5.121   6.470   8.397 -0.2136 -0.9416  1.5265
27375SOL     OW90902   3.654   7.670   3.055  0.3456 -0.0712  0.6277
27375SOL    HW190903   3.589   7.679   3.125 -1.1191 -0.9476 -0.5462
27375SOL    HW290904   3.609   7.701   2.976  1.9079  0.7659  0.0288
27376SOL     OW90905   0.718   8.396   5.297  0.0790  0.1276  0.5323
27376SOL    HW190906   0.806   8.429   5.280 -0.4268 -0.0070 -3.4932
27376SOL    HW290907   0.718   8.307   5.261 -1.5880 -0.0000  0.7471
27377SOL     OW90908   5.918   7.567   5.045 -0.1529 -0.5033 -0.1869
27377SOL    HW190909   5.886   7.523   4.966 -1.1968 -1.2397  0.6153
27377SOL    HW290910   5.839   7.591   5.093  0.4630 -0.0498  0.6244
27378SOL     OW90911   7.768   2.274   3.833  0.0396 -0.8119 -0.6491
27378SOL    HW190912   7.697   2.337   3.821  0.5349 -0.3419 -1.2437
27378SOL    HW290913   7.837   2.325   3.876  0.6433 -0.7962 -1.6118
27379SOL     OW90914   2.327   2.548   4.498 -0.3443 -0.5301  0.0374
27379SOL    HW190915   2.325   2.502   4.582 -0.4081  0.1857  0.4331
27379SOL    HW290916   2.240   2.585   4.488 -0.1331 -0.0417 -0.0219
27380SOL     OW90917   8.879   5.114   3.600 -0.0379 -0.2518  0.4785
27380SOL    HW190918   8.974   5.109   3.592 -0.1031  0.3997 -1.1047
27380SOL    HW290919   8.851   5.024   3.615  0.8504 -0.3675  1.5405
27381SOL     OW90920   9.110   5.294  11.899  0.0694  0.1920  0.1413
27381SOL    HW190921   9.198   5.268  11.927 -0.0486  0.8846  1.1928
27381SOL    HW290922   9.111   5.389  11.903 -0.5924  0.2242 -0.3083
27382SOL     OW90923   9.298  10.757   8.672  0.0535 -0.6828  0.2065
27382SOL    HW190924   9.301  10.748   8.577 -1.1250  0.2476  0.0433
27382SOL    HW290925   9.381  10.798   8.695 -0.0719  0.0563 -0.5736
27383SOL     OW90926   0.202   7.777   2.485 -0.3402 -0.3081  0.1558
27383SOL    HW190927   0.145   7.852   2.467 -3.3449 -2.4873 -0.2538
27383SOL    HW290928   0.196   7.765   2.580 -1.1614 -0.8956  0.0464
27384SOL     OW90929   3.296   7.868   6.024  0.0318  0.1511 -0.4565
27384SOL    HW190930   3.359   7.907   5.963 -0.0065 -1.2535 -1.4442
27384SOL    HW290931   3.258   7.794   5.976 -0.1483 -0.8914  1.1929
27385SOL     OW90932   7.438   9.779   2.167 -0.3975  0.2164 -0.3381
27385SOL    HW190933   7.456   9.760   2.075  0.1158  2.2014 -0.6859
27385SOL    HW290934   7.524   9.780   2.209 -0.5678  0.0189  0.0218
27386SOL     OW90935   6.980   6.542   5.968  1.0436  0.4362 -0.2398
27386SOL    HW190936   6.970   6.561   5.875  0.0932 -0.9548 -0.4631
27386SOL    HW290937   7.016   6.453   5.970  0.4561  0.2023  0.7073
27387SOL     OW90938   4.406  10.015  12.079  0.0872  0.4603 -0.1091
27387SOL    HW190939   4.357   9.953  12.025 -0.6016  0.2416  0.7525
27387SOL    HW290940   4.351  10.093  12.081  0.6054  0.8551 -0.5701
27388SOL     OW90941   8.252  11.380   2.656 -0.1259 -0.2036  0.7062
27388SOL    HW190942   8.158  11.396   2.668 -0.4392  0.5042 -1.9815
27388SOL    HW290943   8.294  11.460   2.687 -0.4610 -0.2505  1.2956
27389SOL     OW90944   1.737   6.246   3.650 -0.0536 -0.2094 -0.1124
27389SOL    HW190945   1.749   6.199   3.567 -1.0972 -1.5434  0.4566
27389SOL    HW290946   1.668   6.309   3.631  1.6915  1.5561 -1.0197
27390SOL     OW90947   9.374   2.710   1.859 -0.1098 -0.3587  0.4698
27390SOL    HW190948   9.355   2.746   1.773  1.9632 -1.6623 -0.6344
27390SOL    HW290949   9.427   2.777   1.902  1.6979 -0.9609 -0.6516
27391SOL     OW90950   7.704   1.600  10.178 -0.1821 -0.6047 -0.0387
27391SOL    HW190951   7.768   1.586  10.248 -0.9082  0.4573  0.8686
27391SOL    HW290952   7.699   1.695  10.169  0.4901 -0.7112 -2.1260
27392SOL     OW90953  10.664   8.349   2.377  0.0289 -0.0425 -0.4214
27392SOL    HW190954  10.671   8.300   2.295  0.8826  0.6030 -0.7535
27392SOL    HW290955  10.666   8.441   2.350 -2.2950  0.2459  0.1164
27393SOL     OW90956   7.396   2.540   9.128 -0.3387  0.1809  0.3955
27393SOL    HW190957   7.359   2.628   9.118  1.3954  0.7855 -1.0205
27393SOL    HW290958   7.395   2.503   9.040 -0.5938 -1.0687  0.8972
27394SOL     OW90959   6.428   0.640  10.565 -0.3179  0.1934 -0.6180
27394SOL    HW190960   6.413   0.664  10.656  0.8328 -0.9369 -0.0997
27394SOL    HW290961   6.515   0.600  10.564 -0.8863 -1.1215 -1.9501
27395SOL     OW90962   7.739   5.819   7.101  0.1788  0.8006 -0.0766
27395SOL    HW190963   7.802   5.801   7.031 -0.6724 -0.1651 -0.6178
27395SOL    HW290964   7.689   5.738   7.110 -0.6688  1.3894  0.6660
27396SOL     OW90965  11.101  12.006   9.154 -0.8877 -0.4218 -0.7559
27396SOL    HW190966  11.032  11.952   9.117 -0.3707  0.4942 -3.2439
27396SOL    HW290967  11.063  12.094   9.158 -0.3259 -0.1706 -0.7979
27397SOL     OW90968   0.887  12.258   2.939 -0.3489  0.0648  0.4333
27397SOL    HW190969   0.868  12.277   2.847  3.1601 -0.3553 -0.5454
27397SOL    HW290970   0.845  12.173   2.955  0.6998 -0.9148 -1.5339
27398SOL     OW90971  10.635   3.455  12.138 -0.0621  0.4216  0.2393
27398SOL    HW190972  10.693   3.513  12.088 -0.5191  0.4071 -0.3100
27398SOL    HW290973  10.670   3.367  12.123  0.4214  0.5105  0.7934
27399SOL     OW90974  11.085   9.811   4.154 -0.1416  0.1628 -0.0533
27399SOL    HW190975  11.104   9.776   4.067  0.4979  0.7339 -0.1494
27399SOL    HW290976  11.155   9.775   4.209 -0.6008 -0.2763  0.2538
27400SOL     OW90977   7.712   1.536   8.014 -0.4778 -0.2950  0.6175
27400SOL    HW190978   7.806   1.521   8.013 -0.7365 -2.3974 -1.8226
27400SOL    HW290979   7.702   1.629   8.035  2.2322  0.4396 -0.9365
27401SOL     OW90980   4.030  12.164   0.380 -0.1223  0.4245 -0.2809
27401SOL    HW190981   4.123  12.187   0.377 -0.2208  1.4191  2.0432
27401SOL    HW290982   3.995  12.192   0.296  1.5057  0.8497 -0.8432
27402SOL     OW90983  11.657   6.191   6.260 -0.3989 -0.3251 -0.5642
27402SOL    HW190984  11.606   6.262   6.220  0.5387 -0.7391 -2.6630
27402SOL    HW290985  11.592   6.130   6.292 -1.2216  0.4238 -0.7542
27403SOL     OW90986   6.923   6.365   5.290 -0.3315 -0.0786 -0.5756
27403SOL    HW190987   6.875   6.359   5.208 -3.3524 -0.6471  1.0598
27403SOL    HW290988   6.905   6.282   5.334  0.8603  0.3533  0.8042
27404SOL     OW90989   9.161  10.228   0.536 -0.0384  0.2397 -0.3494
27404SOL    HW190990   9.233  10.289   0.551 -0.0484  0.9230 -2.7709
27404SOL    HW290991   9.203  10.143   0.523  0.1457  0.1957  0.4644
27405SOL     OW90992   3.885  11.832   4.631  0.0074  0.2117 -0.3190
27405SOL    HW190993   3.869  11.768   4.700  1.4888  1.2664  1.0549
27405SOL    HW290994   3.800  11.876   4.618  0.1344  1.4132  2.3309
27406SOL     OW90995   6.427   6.579   8.381  0.6218  0.1613  0.0732
27406SOL    HW190996   6.493   6.555   8.446  0.2605 -0.1286  0.3357
27406SOL    HW290997   6.428   6.675   8.380 -0.5833  0.2440  1.7875
27407SOL     OW90998   0.386   6.972   1.625  0.2999  0.0552  0.1125
27407SOL    HW190999   0.415   6.885   1.655 -1.0198 -0.1625  0.7891
27407SOL    HW291000   0.426   6.981   1.538 -0.9674 -2.0034 -0.7514
27408SOL     OW91001   5.137   8.556   2.823 -0.0366  0.1625 -0.1381
27408SOL    HW191002   5.060   8.570   2.768 -0.4900 -1.7082 -0.0351
27408SOL    HW291003   5.109   8.579   2.911  0.3275  1.9741 -0.4544
27409SOL     OW91004   8.773   1.060   1.412  0.5817  0.5412 -0.1573
27409SOL    HW191005   8.747   1.084   1.501 -0.8734  2.5385 -1.0620
27409SOL    HW291006   8.721   0.982   1.392 -0.5398  1.2139  0.0795
27410SOL     OW91007   2.089   7.112   1.490 -0.0930 -0.3821  0.3369
27410SOL    HW191008   2.007   7.135   1.446  1.1982  1.0567 -1.4490
27410SOL    HW291009   2.157   7.128   1.425  1.9465  1.9109  2.7884
27411SOL     OW91010  10.147   7.223   0.917  0.2033 -0.4937 -0.2231
27411SOL    HW191011  10.099   7.188   0.842  1.5115 -1.5776 -0.6056
27411SOL    HW291012  10.236   7.237   0.884  0.9679 -1.5786  1.2521
27412SOL     OW91013  12.539   3.223   8.683  0.6771  0.9378 -0.1490
27412SOL    HW191014  12.478   3.181   8.743 -0.4687  2.2814 -0.3099
27412SOL    HW291015  12.611   3.253   8.739  1.0532 -0.3460  0.0941
27413SOL     OW91016   5.918   1.577   3.281 -0.0731  0.4064  0.1410
27413SOL    HW191017   5.967   1.530   3.214 -0.4839 -0.0402  0.1496
27413SOL    HW291018   5.843   1.521   3.300 -0.8508  1.3005 -0.2097
27414SOL     OW91019  12.216  12.247   2.487 -0.0911 -0.1361 -0.5733
27414SOL    HW191020  12.174  12.333   2.490 -2.6055 -1.2989  0.7631
27414SOL    HW291021  12.306  12.263   2.516 -1.1406  1.7489  2.0018
27415SOL     OW91022  10.107   6.302   1.661  0.3959  0.0161 -0.2951
27415SOL    HW191023  10.179   6.281   1.720 -0.2138 -1.8270 -0.1541
27415SOL    HW291024  10.114   6.397   1.648  2.0158  0.0867  0.7716
27416SOL     OW91025  12.285  10.700   9.216  0.1913 -0.1098  0.1078
27416SOL    HW191026  12.228  10.657   9.280  0.6609  0.0507  0.6347
27416SOL    HW291027  12.370  10.659   9.228  0.8013  1.3654  1.0322
27417SOL     OW91028   1.721   6.521   1.552 -0.0362 -0.0947 -1.1769
27417SOL    HW191029   1.783   6.592   1.566 -0.2491  0.2541 -1.9138
27417SOL    HW291030   1.636   6.559   1.574 -0.2287  0.0986 -2.1691
27418SOL     OW91031   0.496   9.213   6.852  0.1488 -0.0429  0.7053
27418SOL    HW191032   0.457   9.127   6.868  1.8659 -0.6409  1.8698
27418SOL    HW291033   0.568   9.197   6.791 -0.7401  0.9043 -0.6618
27419SOL     OW91034  10.800   2.573   8.983  0.4755 -0.0378  0.0873
27419SOL    HW191035  10.800   2.657   8.937  0.1164 -0.4383 -0.6470
27419SOL    HW291036  10.880   2.575   9.035 -0.1228  1.2770  1.0372
27420SOL     OW91037   9.883   2.167  11.253  0.3394  0.8946  0.7877
27420SOL    HW191038   9.897   2.151  11.346  1.4067  0.0144  0.5007
27420SOL    HW291039   9.869   2.081  11.215 -2.7454  1.4119  0.4760
27421SOL     OW91040   0.858   6.013   6.218 -0.3366  0.1091 -0.4042
27421SOL    HW191041   0.901   5.962   6.287 -2.1236 -0.4119  0.3657
27421SOL    HW291042   0.901   6.099   6.221 -0.1860 -0.0040  1.1452
27422SOL     OW91043  11.182   8.991   0.527 -0.0788  0.0968 -0.1745
27422SOL    HW191044  11.109   9.047   0.501 -0.4982 -1.6082 -3.1333
27422SOL    HW291045  11.226   8.969   0.444  2.5689 -0.6242  1.3022
27423SOL     OW91046   5.147   9.541   4.166 -0.1531 -0.7970 -0.1499
27423SOL    HW191047   5.220   9.602   4.170  0.0969 -1.0997 -0.0770
27423SOL    HW291048   5.104   9.561   4.083 -0.3321 -0.2302  0.0720
27424SOL     OW91049   4.991  12.491  10.902 -0.4790  0.6632 -0.5105
27424SOL    HW191050   4.987  12.451  10.816 -2.5488 -0.8402  0.2225
27424SOL    HW291051   4.906  12.472  10.942  0.0386  2.1897  1.4935
27425SOL     OW91052   7.096   7.685   8.995 -0.1859 -0.4338  0.0050
27425SOL    HW191053   7.124   7.764   9.041 -1.7121 -1.4025  2.8662
27425SOL    HW291054   7.168   7.623   9.007  0.2219 -0.0928 -0.6215
27426SOL     OW91055   0.604   6.882   0.627 -0.1517 -0.6411  0.1802
27426SOL    HW191056   0.654   6.960   0.601  0.3177 -0.8634  0.4003
27426SOL    HW291057   0.558   6.909   0.706  0.6735 -0.8388  0.7396
27427SOL     OW91058  10.439   9.063  11.164  0.1487 -0.0158  0.5514
27427SOL    HW191059  10.386   8.999  11.116  0.0219  0.5260 -0.0388
27427SOL    HW291060  10.469   9.124  11.097 -1.9015  2.1051  1.4289
27428SOL     OW91061   9.294   0.581   2.453  0.3479 -0.1045  0.2446
27428SOL    HW191062   9.328   0.611   2.537  1.2159  1.5693 -0.6486
27428SOL    HW291063   9.227   0.516   2.476  1.5922 -0.7882  2.1598
27429SOL     OW91064   6.969   7.705   5.042 -0.2158  0.3066 -0.1792
27429SOL    HW191065   6.937   7.711   5.132  2.1705  2.2198  0.6742
27429SOL    HW291066   6.935   7.784   4.999 -0.7348 -0.2262 -0.7810
27430SOL     OW91067   8.420   5.333   6.156 -0.7835  0.0246  0.0744
27430SOL    HW191068   8.494   5.351   6.215 -0.4678  1.8971 -0.8361
27430SOL    HW291069   8.344   5.368   6.203 -1.0304 -1.3182  0.7220
27431SOL     OW91070   8.447   0.846  11.562  0.5230  0.3252  0.0732
27431SOL    HW191071   8.439   0.803  11.648  0.1939  0.7856  0.2760
27431SOL    HW291072   8.365   0.826  11.518  0.2688  0.9340  0.2597
27432SOL     OW91073   6.053   6.506   6.722  0.1444 -0.0090 -0.6436
27432SOL    HW191074   6.072   6.546   6.637 -2.3031  1.1301 -0.7254
27432SOL    HW291075   6.005   6.573   6.770  0.5167 -1.0291  1.2541
27433SOL     OW91076   3.650  10.795   9.160 -0.4634  0.4707  0.1068
27433SOL    HW191077   3.737  10.758   9.171 -0.3757  0.3189 -1.0446
27433SOL    HW291078   3.641  10.811   9.066 -1.1110  1.8840  0.3750
27434SOL     OW91079  11.088   7.218  11.483 -0.5843 -0.1582  0.0659
27434SOL    HW191080  11.027   7.151  11.511 -1.5683  0.3560 -0.7629
27434SOL    HW291081  11.174   7.176  11.486 -1.0777 -1.1603  0.4260
27435SOL     OW91082  10.480   7.065   4.301  0.5986 -0.2897 -0.0360
27435SOL    HW191083  10.429   7.003   4.354 -1.1406  1.2018  0.1144
27435SOL    HW291084  10.526   7.119   4.364 -0.2612  0.4910 -0.0614
27436SOL     OW91085   4.039   2.943   6.601  0.2824 -0.1166  0.6990
27436SOL    HW191086   4.073   2.958   6.689 -2.1044  0.6652  1.5654
27436SOL    HW291087   3.961   2.889   6.613 -0.4820  0.5571 -0.8491
27437SOL     OW91088   2.775  11.727   5.888 -0.4745  0.6337  0.5593
27437SOL    HW191089   2.765  11.655   5.826 -0.7093  1.5573 -0.5060
27437SOL    HW291090   2.719  11.703   5.962 -0.1105 -0.5331  0.4654
27438SOL     OW91091   5.299   0.841  11.903 -0.0359 -0.1563 -0.4798
27438SOL    HW191092   5.232   0.905  11.877  0.7829  0.4948 -1.0216
27438SOL    HW291093   5.378   0.892  11.918 -0.3019 -0.5139  3.0446
27439SOL     OW91094   4.018   0.277   3.040  0.6555  0.0480 -0.1923
27439SOL    HW191095   3.955   0.269   3.112  2.7118 -0.3883  1.6502
27439SOL    HW291096   4.093   0.225   3.067  2.1922  1.2370 -1.9015
27440SOL     OW91097  10.771  11.287   1.983 -0.3799  0.5379 -0.2139
27440SOL    HW191098  10.784  11.294   2.077  0.5875 -2.0176 -0.0686
27440SOL    HW291099  10.851  11.323   1.945  0.1186 -0.2450  0.0587
27441SOL     OW91100   3.228   1.372  12.380  0.0534  0.0344 -0.6142
27441SOL    HW191101   3.273   1.295  12.346 -0.2772  0.5698 -2.3169
27441SOL    HW291102   3.277   1.395  12.459  1.8381 -0.2906 -1.5730
27442SOL     OW91103  10.492  11.679   9.035  0.3492  0.4100 -0.0773
27442SOL    HW191104  10.550  11.618   9.082  1.5518  1.0054 -0.7291
27442SOL    HW291105  10.447  11.728   9.104 -0.1415 -0.7559  0.4493
27443SOL     OW91106   1.359   9.336   0.198  0.2356 -0.2042 -0.2453
27443SOL    HW191107   1.323   9.341   0.109  4.0515 -0.4907 -2.0344
27443SOL    HW291108   1.405   9.253   0.201  0.3019 -0.1477  2.0208
27444SOL     OW91109   3.670   6.815   5.826  0.0595 -0.1731 -0.0523
27444SOL    HW191110   3.655   6.883   5.760 -1.5394 -0.7162 -0.2901
27444SOL    HW291111   3.705   6.741   5.776  1.1344  0.2193  0.0993
27445SOL     OW91112  10.670   4.437   5.507  0.1125  0.2150  0.3993
27445SOL    HW191113  10.611   4.372   5.469 -0.1224  0.4621  0.3349
27445SOL    HW291114  10.663   4.513   5.449  1.2562 -0.1026 -0.1720
27446SOL     OW91115   7.472   5.296  10.849  0.4393  0.2413 -0.4031
27446SOL    HW191116   7.495   5.217  10.800 -0.6265 -0.1503 -0.3199
27446SOL    HW291117   7.535   5.299  10.921  1.9010  0.7242 -1.6654
27447SOL     OW91118   6.182   2.803   8.950  0.2640 -0.6419 -0.1205
27447SOL    HW191119   6.141   2.794   9.036  0.0665  1.0652  0.0071
27447SOL    HW291120   6.212   2.715   8.928  1.8950 -0.8684  2.4826
27448SOL     OW91121   3.508  10.009   2.256 -0.8199  0.2322  0.4542
27448SOL    HW191122   3.417  10.038   2.254 -0.4133  1.5470 -1.2204
27448SOL    HW291123   3.506   9.925   2.302 -2.9513 -0.0698 -0.1165
27449SOL     OW91124   0.837   9.985  12.156  0.2781  0.1784 -0.2256
27449SOL    HW191125   0.867  10.034  12.232 -0.5629  3.1523 -1.6806
27449SOL    HW291126   0.907   9.996  12.091  0.6561 -1.7224 -0.2278
27450SOL     OW91127   7.674   4.259  10.800 -0.5107 -0.3514  0.5686
27450SOL    HW191128   7.617   4.218  10.865 -0.0402 -0.3820  0.9698
27450SOL    HW291129   7.627   4.249  10.717 -0.5906 -1.3351  0.7233
27451SOL     OW91130   5.856   8.109   1.777 -0.3016  0.4065  0.1082
27451SOL    HW191131   5.937   8.150   1.748  1.0390 -2.4096 -0.4979
27451SOL    HW291132   5.884   8.041   1.839 -1.9905 -1.5979 -1.1863
27452SOL     OW91133   3.170  10.438   7.900  0.1047  0.6044 -0.8630
27452SOL    HW191134   3.222  10.371   7.855 -0.4351  0.0313 -0.6314
27452SOL    HW291135   3.223  10.518   7.892  1.1853 -0.0353 -0.3596
27453SOL     OW91136   2.820   6.309   4.387  0.0977  0.2424  0.0416
27453SOL    HW191137   2.767   6.273   4.316 -0.0986 -0.0366  0.3246
27453SOL    HW291138   2.765   6.376   4.427 -1.0579 -1.6521  1.8602
27454SOL     OW91139   1.397   0.659   7.033  0.3865  0.1735  0.5567
27454SOL    HW191140   1.344   0.620   6.964  0.7168  1.1884 -0.3056
27454SOL    HW291141   1.347   0.735   7.062  2.4193  2.7737 -2.1513
27455SOL     OW91142   6.075   3.741  11.552  0.2789  0.2006 -0.0290
27455SOL    HW191143   6.089   3.647  11.541 -0.0172  0.2215 -0.6245
27455SOL    HW291144   6.140   3.782  11.493 -1.2243  0.3195 -1.6900
27456SOL     OW91145   5.450   4.898   0.554 -0.0945 -0.2002  0.6572
27456SOL    HW191146   5.428   4.972   0.612 -1.4713  1.5666 -1.8992
27456SOL    HW291147   5.397   4.913   0.476  0.0671 -3.6232 -0.2622
27457SOL     OW91148   1.781   4.280   1.911  0.3951  0.1646 -0.0762
27457SOL    HW191149   1.802   4.281   1.817 -0.9695  2.3302 -0.4384
27457SOL    HW291150   1.866   4.282   1.955  1.0588 -0.9694 -1.2419
27458SOL     OW91151   3.274   9.854   9.714  0.3365  0.2009  0.1928
27458SOL    HW191152   3.316   9.920   9.660  0.0356  0.5134  0.3414
27458SOL    HW291153   3.339   9.784   9.721  1.1395  1.0013  1.0490
27459SOL     OW91154   6.002   9.420   6.348  0.1532  0.6622 -1.0680
27459SOL    HW191155   6.032   9.485   6.410 -1.1283  2.4601 -2.2257
27459SOL    HW291156   6.082   9.377   6.316  0.9556  1.1297  0.2591
27460SOL     OW91157   7.498   7.344   2.571 -1.1735  0.1175  0.2399
27460SOL    HW191158   7.501   7.253   2.600 -1.3712  0.2338  0.6394
27460SOL    HW291159   7.560   7.389   2.629 -2.2275  0.5157  1.0907
27461SOL     OW91160   8.995   6.291   3.229 -0.2577 -0.2034 -0.2591
27461SOL    HW191161   9.030   6.361   3.174  1.7363 -0.7851  0.1926
27461SOL    HW291162   8.958   6.228   3.167 -1.8365  1.0780 -0.6791
27462SOL     OW91163   1.164   1.917   4.030  0.6569 -0.0533 -0.1771
27462SOL    HW191164   1.234   1.962   4.078  1.1374 -0.2478 -0.6929
27462SOL    HW291165   1.155   1.966   3.949  1.9055 -1.4697 -1.2177
27463SOL     OW91166   1.386   7.317   1.997 -0.2306  0.3449  0.0500
27463SOL    HW191167   1.390   7.280   1.908  0.5470 -1.5665  0.8292
27463SOL    HW291168   1.470   7.294   2.036 -0.8512  0.5307  1.5341
27464SOL     OW91169   5.200  12.600   8.292  0.0109  0.5111  0.3032
27464SOL    HW191170   5.133  12.539   8.263  0.0101 -0.7429  2.6353
27464SOL    HW291171   5.154  12.661   8.350  0.3274  1.6923 -0.6608
27465SOL     OW91172   4.109   4.644  11.454 -0.8484 -0.3641  0.4396
27465SOL    HW191173   4.158   4.718  11.417 -1.5387 -0.1347 -0.0490
27465SOL    HW291174   4.116   4.656  11.549 -0.3587 -0.0774  0.3749
27466SOL     OW91175   6.094   6.426   1.814  0.2378  0.1040  0.3096
27466SOL    HW191176   6.037   6.477   1.872 -1.8445 -1.8072  0.0659
27466SOL    HW291177   6.061   6.446   1.726  1.1358  0.3386  0.0211
27467SOL     OW91178   2.870   6.546   0.486 -0.1503 -0.2698  0.4387
27467SOL    HW191179   2.812   6.513   0.555 -1.2981 -0.0209 -0.3895
27467SOL    HW291180   2.869   6.641   0.497 -1.5079 -0.1066 -0.7906
27468SOL     OW91181   8.375  10.120   2.082 -0.1521  0.4345  0.0007
27468SOL    HW191182   8.281  10.113   2.096  0.2392 -0.4784  2.8598
27468SOL    HW291183   8.412  10.047   2.132  2.0106 -0.6590 -2.8882
27469SOL     OW91184   4.468   6.216   7.742  0.6628 -0.0351 -0.3174
27469SOL    HW191185   4.436   6.178   7.824  1.2586  0.8178  0.3265
27469SOL    HW291186   4.394   6.266   7.708  0.1184 -1.1155 -0.7888
27470SOL     OW91187   9.638  10.348   2.877  0.3274  0.0138 -0.0090
27470SOL    HW191188   9.665  10.327   2.787 -1.2250  0.5122 -0.6276
27470SOL    HW291189   9.620  10.263   2.917  0.2441 -0.1756 -0.4374
27471SOL     OW91190   3.694   3.326   8.135  0.2269  0.6563  0.2646
27471SOL    HW191191   3.775   3.375   8.152  0.5974  1.3017 -2.6638
27471SOL    HW291192   3.710   3.282   8.051 -3.0895  2.5030 -1.5734
27472SOL     OW91193   8.967   6.037   8.245  0.3837  0.1917 -0.5730
27472SOL    HW191194   8.981   5.960   8.301  0.1695  1.0793  0.7515
27472SOL    HW291195   9.052   6.080   8.241  0.4627 -0.0146 -1.1681
27473SOL     OW91196   3.921   2.062   6.316 -0.2678 -0.7724  0.6706
27473SOL    HW191197   3.828   2.073   6.294 -0.4721 -1.4893  1.1516
27473SOL    HW291198   3.938   1.969   6.301  0.6146 -0.4785 -0.3021
27474SOL     OW91199   3.759   0.241   2.033  0.1767  0.2197 -0.6285
27474SOL    HW191200   3.688   0.181   2.056  1.2696 -0.3969  1.4265
27474SOL    HW291201   3.719   0.328   2.036 -0.3465 -0.0296  1.4569
27475SOL     OW91202  11.190   6.114   6.332  0.6561 -0.6914 -0.1161
27475SOL    HW191203  11.181   6.033   6.382  2.3099 -0.9864 -0.2328
27475SOL    HW291204  11.207   6.181   6.398 -0.9503 -0.3705  0.0009
27476SOL     OW91205   6.798   4.658   9.930 -0.2787 -0.3150 -0.1140
27476SOL    HW191206   6.884   4.681   9.966  0.0083 -2.7488  0.9774
27476SOL    HW291207   6.816   4.587   9.868 -1.5239 -1.2828  0.5917
27477SOL     OW91208  12.604   9.398   5.420 -0.3456  0.5018 -0.6108
27477SOL    HW191209  12.697   9.377   5.432 -0.5566  0.3259  0.9396
27477SOL    HW291210  12.558   9.325   5.462 -1.1358  2.0141  1.3160
27478SOL     OW91211   5.997   6.191  10.789  0.0514 -0.2379  0.0091
27478SOL    HW191212   6.035   6.103  10.795  1.1542  0.3039  1.5911
27478SOL    HW291213   5.909   6.177  10.753 -0.0305 -2.0482  0.8274
27479SOL     OW91214   4.278   1.132   0.591 -0.5704 -0.3073 -0.0480
27479SOL    HW191215   4.257   1.202   0.653  1.2592  1.3023 -1.1234
27479SOL    HW291216   4.254   1.167   0.505  1.8644 -0.2284 -0.7963
27480SOL     OW91217  12.504   7.969   7.369 -0.8826 -0.3007  0.0876
27480SOL    HW191218  12.537   7.969   7.280 -2.7327 -1.4702 -0.6481
27480SOL    HW291219  12.410   7.956   7.360 -1.0048 -1.3395  2.2371
27481SOL     OW91220  12.259  10.536   1.404 -0.0957 -0.2201 -0.0439
27481SOL    HW191221  12.194  10.466   1.404 -0.3780  0.0252  0.9412
27481SOL    HW291222  12.330  10.503   1.350 -1.0318 -0.4958 -1.1440
27482SOL     OW91223  10.726   6.104   4.943  0.4327  0.5947 -0.3636
27482SOL    HW191224  10.757   6.053   5.018  0.6503  1.5772  0.2299
27482SOL    HW291225  10.799   6.102   4.881  0.6871  0.7195 -0.0712
27483SOL     OW91226  10.520   9.392  11.080 -0.4231  0.3654 -0.4443
27483SOL    HW191227  10.468   9.372  11.158 -0.7234  2.1076 -0.1687
27483SOL    HW291228  10.466   9.455  11.031  1.1974  1.8548 -0.3830
27484SOL     OW91229  11.604   8.351  11.361  1.0191  0.1491 -0.2662
27484SOL    HW191230  11.593   8.346  11.456  1.8253 -0.7487 -0.2008
27484SOL    HW291231  11.625   8.443  11.344 -0.2734  0.5775  0.2728
27485SOL     OW91232   6.644   0.827  11.511 -0.0590  0.2670  0.6332
27485SOL    HW191233   6.597   0.852  11.590 -0.5394 -2.1796  1.2050
27485SOL    HW291234   6.712   0.894  11.501 -2.5584  2.9788  0.6824
27486SOL     OW91235   8.503   1.956   9.914  0.6323  0.0318  0.5856
27486SOL    HW191236   8.446   2.027   9.885  0.9460  1.2194  2.6941
27486SOL    HW291237   8.444   1.896   9.961  0.7559  0.1201  0.8551
27487SOL     OW91238   1.475   7.461   1.474 -0.4024  0.8047 -0.2289
27487SOL    HW191239   1.485   7.426   1.563  1.0359  0.7213 -0.4029
27487SOL    HW291240   1.392   7.509   1.477 -1.0852 -0.3670  0.7618
27488SOL     OW91241   4.022   0.230   5.937 -0.6391 -0.1819 -0.1415
27488SOL    HW191242   3.972   0.309   5.914 -0.0402  0.8298  1.7798
27488SOL    HW291243   4.084   0.260   6.004  2.6522 -1.3365 -2.4296
27489SOL     OW91244   3.179   6.462   8.123 -0.0458 -0.4493  0.3594
27489SOL    HW191245   3.197   6.552   8.096 -0.8967 -0.3654  0.0455
27489SOL    HW291246   3.222   6.408   8.057 -1.6261 -0.2487 -0.8968
27490SOL     OW91247   8.996   1.853  11.931  0.0705 -0.2329 -0.0177
27490SOL    HW191248   8.967   1.778  11.879 -0.0855  0.0635 -0.3646
27490SOL    HW291249   9.089   1.837  11.945 -0.3251 -1.4310  1.5105
27491SOL     OW91250  12.360  10.823   7.490  0.1412  0.0330 -0.4800
27491SOL    HW191251  12.292  10.776   7.539  1.0062 -0.7513  0.0004
27491SOL    HW291252  12.432  10.761   7.484  1.6860  1.6011  0.9514
27492SOL     OW91253   2.577   5.899   8.489  0.4391 -0.5771 -0.0260
27492SOL    HW191254   2.623   5.901   8.405  0.9961  2.1219  0.2337
27492SOL    HW291255   2.522   5.978   8.488 -0.4632 -1.1226  1.6636
27493SOL     OW91256   2.070   4.097   4.294  0.4681 -0.1003  0.2184
27493SOL    HW191257   2.023   4.151   4.358 -0.0576 -0.2955  0.0016
27493SOL    HW291258   2.140   4.154   4.262 -0.0973  0.4696 -0.0255
27494SOL     OW91259   0.782   3.063  11.295 -0.4057 -0.2078 -0.8900
27494SOL    HW191260   0.804   3.120  11.222  1.6658 -1.2273 -1.1407
27494SOL    HW291261   0.767   2.977  11.255  3.3328 -1.4292 -0.0422
27495SOL     OW91262   2.981   7.461   3.000  0.4441  0.3189 -0.5963
27495SOL    HW191263   3.038   7.402   3.048  0.6481 -0.2082 -1.4575
27495SOL    HW291264   2.922   7.498   3.066 -0.1669 -1.4069 -0.1340
27496SOL     OW91265   2.332   5.665   6.242  0.8802 -0.3491 -0.0081
27496SOL    HW191266   2.347   5.758   6.262  1.9531 -0.7501  1.1254
27496SOL    HW291267   2.403   5.619   6.286 -1.3352 -1.9862  2.1786
27497SOL     OW91268   2.233   7.001   2.826  0.0037 -0.6428 -0.0839
27497SOL    HW191269   2.166   6.986   2.893 -1.2738 -0.2303 -1.2159
27497SOL    HW291270   2.239   7.097   2.819 -0.3305 -0.6830 -0.9839
27498SOL     OW91271   6.568   4.263   7.760  0.1550  0.1244  0.1564
27498SOL    HW191272   6.597   4.348   7.792  0.3430  0.2259 -0.2714
27498SOL    HW291273   6.624   4.199   7.803  1.7108  0.3732 -1.4120
27499SOL     OW91274   6.366   7.396   7.560 -0.9523  0.3634 -0.3864
27499SOL    HW191275   6.419   7.476   7.552  0.8448 -0.6693  0.6563
27499SOL    HW291276   6.385   7.346   7.481  0.7431 -0.5972  0.5733
27500SOL     OW91277   3.792   5.038   8.341  0.3127 -0.0800  0.4173
27500SOL    HW191278   3.812   5.131   8.340 -0.6663  0.1410 -0.1888
27500SOL    HW291279   3.726   5.028   8.409 -0.8687 -0.0287 -0.6930
27501SOL     OW91280   7.559  10.146   7.196 -0.0754  0.3661 -0.3456
27501SOL    HW191281   7.593  10.068   7.240 -0.2098 -0.1755 -1.1730
27501SOL    HW291282   7.534  10.205   7.267  1.1079  0.1310  0.2778
27502SOL     OW91283   7.079   1.801   3.690 -0.4686  0.0648  0.6181
27502SOL    HW191284   7.094   1.745   3.614  1.1840  1.1013  0.1306
27502SOL    HW291285   7.066   1.888   3.653 -3.4921  0.0544  1.3224
27503SOL     OW91286   5.256   7.742   2.578  0.1894  0.2558 -0.2720
27503SOL    HW191287   5.163   7.765   2.578  0.0594 -0.2267  0.3919
27503SOL    HW291288   5.261   7.662   2.526  0.5565  1.3823 -2.0791
27504SOL     OW91289   7.815   4.973   4.837  0.0075  0.1709 -0.0892
27504SOL    HW191290   7.741   5.006   4.785  0.1169 -0.4093 -0.6234
27504SOL    HW291291   7.776   4.910   4.898  0.2378 -1.4034 -1.4847
27505SOL     OW91292   2.432   0.003   1.853 -0.3894  0.0331 -0.1902
27505SOL    HW191293   2.355   0.050   1.819  0.2430  2.4956  1.5567
27505SOL    HW291294   2.397  -0.056   1.920 -0.7148  2.4248  1.8870
27506SOL     OW91295  10.162  11.918   1.763 -0.3220 -0.3938  0.6437
27506SOL    HW191296  10.239  11.889   1.812  0.0646  0.1219  0.3570
27506SOL    HW291297  10.087  11.894   1.818 -0.0797 -2.5112  0.1560
27507SOL     OW91298   6.450   8.755   6.640  0.0199 -0.7687 -0.8349
27507SOL    HW191299   6.357   8.752   6.661  0.1037 -0.2994 -0.3660
27507SOL    HW291300   6.481   8.838   6.678  0.6832 -1.0453 -0.7520
27508SOL     OW91301   0.135  11.684   7.120  0.8187  0.2512  0.5685
27508SOL    HW191302   0.132  11.777   7.142  0.1154  0.0998  1.1774
27508SOL    HW291303   0.135  11.682   7.025 -0.5523  0.8640  0.5257
27509SOL     OW91304  12.511   5.118   3.964  0.0832  0.1086 -0.0951
27509SOL    HW191305  12.521   5.135   4.057 -0.1342 -0.0337 -0.0460
27509SOL    HW291306  12.524   5.203   3.922 -0.4021  0.2791  0.1037
27510SOL     OW91307   5.189   4.688   8.458 -0.2217  1.0723  0.4228
27510SOL    HW191308   5.266   4.723   8.413 -0.7204  0.2598 -1.1182
27510SOL    HW291309   5.203   4.711   8.550  1.3374  1.8682  0.0217
27511SOL     OW91310   6.436   0.091   1.135 -0.6044  0.0750  0.3413
27511SOL    HW191311   6.469   0.108   1.223 -0.3308 -1.8189  0.6625
27511SOL    HW291312   6.346   0.125   1.136 -0.2446  1.0570  0.9829
27512SOL     OW91313   0.910  10.776   3.134  0.4457  0.2786 -0.0171
27512SOL    HW191314   0.919  10.871   3.124 -0.3391  0.3898  0.2322
27512SOL    HW291315   0.959  10.739   3.060  0.6082  0.8820 -0.2154
27513SOL     OW91316  11.750  11.282   8.902  0.2173  0.4466  0.2632
27513SOL    HW191317  11.831  11.322   8.872  0.4375  0.2855  0.6408
27513SOL    HW291318  11.683  11.349   8.889  0.3671  0.4951 -0.2727
27514SOL     OW91319  10.348   2.686   4.942  0.4944  0.6518  0.3708
27514SOL    HW191320  10.299   2.766   4.919  0.1566  0.8433  1.6761
27514SOL    HW291321  10.426   2.718   4.987  0.6163  0.2489  0.4451
27515SOL     OW91322   1.663   4.435   8.301 -0.2897  0.6144 -0.7279
27515SOL    HW191323   1.666   4.342   8.324 -2.1370 -0.2824 -3.5863
27515SOL    HW291324   1.700   4.480   8.377 -0.9455 -2.3174  1.4980
27516SOL     OW91325   5.214   4.426   4.519 -0.5736 -0.1517  0.8149
27516SOL    HW191326   5.198   4.497   4.581 -1.3928  1.2075 -0.8894
27516SOL    HW291327   5.307   4.405   4.530 -0.5889  0.3983  2.1250
27517SOL     OW91328   0.215   9.196   0.893 -0.0633  0.5701  0.0236
27517SOL    HW191329   0.125   9.198   0.926 -0.0500  0.8993  0.0509
27517SOL    HW291330   0.223   9.112   0.849 -0.8069  1.0856 -1.1605
27518SOL     OW91331   3.245   8.415   8.188 -0.0872 -0.0995 -0.6302
27518SOL    HW191332   3.234   8.398   8.094  0.8401  0.8211 -0.9164
27518SOL    HW291333   3.156   8.409   8.223 -0.4970 -0.0951 -1.6211
27519SOL     OW91334   4.091   3.668   8.319 -0.6086 -0.0387 -0.1229
27519SOL    HW191335   4.151   3.743   8.319  0.5971 -0.9582  1.0611
27519SOL    HW291336   4.053   3.667   8.407 -0.5212 -0.8665 -0.0819
27520SOL     OW91337   1.172   3.896  11.787 -0.3798 -0.3237  0.1220
27520SOL    HW191338   1.257   3.935  11.766  0.2142 -1.7066 -0.2056
27520SOL    HW291339   1.109   3.943  11.733 -0.1238  1.9418  1.6711
27521SOL     OW91340   1.172   2.596   3.546  0.3872 -0.0477 -0.0148
27521SOL    HW191341   1.255   2.621   3.587  1.0821 -2.3988  0.1802
27521SOL    HW291342   1.189   2.604   3.452 -0.1597  2.2576  0.0390
27522SOL     OW91343   1.390   6.131   2.878 -0.5106  0.2746 -0.0458
27522SOL    HW191344   1.406   6.215   2.836 -0.0444  0.7433  1.0243
27522SOL    HW291345   1.478   6.100   2.903 -0.8327  0.4878  1.4458
27523SOL     OW91346   3.593   4.657   7.562  0.1439 -0.9492  0.1684
27523SOL    HW191347   3.629   4.734   7.518 -1.8166  0.2008  0.4620
27523SOL    HW291348   3.550   4.607   7.493 -1.0660 -0.2542  0.3836
27524SOL     OW91349   7.049   5.519   3.599 -0.3485 -0.2571  0.6286
27524SOL    HW191350   7.000   5.598   3.619  0.6763  0.3599  0.7645
27524SOL    HW291351   7.038   5.464   3.677  0.9676  0.7935  1.5962
27525SOL     OW91352   0.242   4.332  10.734 -0.4023 -0.2080  0.6723
27525SOL    HW191353   0.296   4.371  10.803  0.5395 -0.4047  0.0741
27525SOL    HW291354   0.160   4.309  10.778  0.7614 -1.8454  2.1435
27526SOL     OW91355   0.915  10.812  10.772 -0.5073 -0.2649  0.0439
27526SOL    HW191356   0.841  10.873  10.772 -0.6689 -0.4126  1.7207
27526SOL    HW291357   0.875  10.726  10.762 -0.7126 -0.4407  1.9781
27527SOL     OW91358   7.176  11.434   0.833  1.0847 -0.3714 -0.0737
27527SOL    HW191359   7.082  11.431   0.845  0.9467  0.7735 -0.6835
27527SOL    HW291360   7.199  11.348   0.798 -0.0055 -0.0674 -1.6401
27528SOL     OW91361   0.612   5.625   0.706 -0.3075 -0.0977 -0.0384
27528SOL    HW191362   0.539   5.575   0.742 -0.7275  0.3482 -0.2517
27528SOL    HW291363   0.687   5.567   0.715 -0.3062  0.1339  1.8933
27529SOL     OW91364   5.998  12.250  12.169 -0.3921 -0.1836  0.2510
27529SOL    HW191365   5.933  12.286  12.108  0.1668 -0.6689 -0.6505
27529SOL    HW291366   5.993  12.308  12.245  0.7702  2.1084 -1.2909
27530SOL     OW91367   8.762   8.077   4.663 -0.1932  0.3749 -0.0468
27530SOL    HW191368   8.675   8.069   4.626 -0.2981 -2.0711  0.5560
27530SOL    HW291369   8.754   8.146   4.729 -1.9534 -0.5130  0.7253
27531SOL     OW91370   2.491   9.905  11.667 -0.0683  0.3242  0.1540
27531SOL    HW191371   2.433   9.851  11.613  3.6330 -1.7425 -2.2273
27531SOL    HW291372   2.505   9.984  11.615  0.6061 -0.0175 -0.2055
27532SOL     OW91373   1.552   6.123  10.861  0.2260  0.3343 -0.4093
27532SOL    HW191374   1.603   6.194  10.898  0.9274 -0.1427 -0.4521
27532SOL    HW291375   1.559   6.052  10.924  0.6638 -0.1632 -0.9995
27533SOL     OW91376   2.085  10.337  11.154 -0.3032 -0.1442  0.3407
27533SOL    HW191377   2.124  10.365  11.071  2.3354 -3.6437  0.1647
27533SOL    HW291378   2.037  10.258  11.133 -1.7887  0.3064  1.8173
27534SOL     OW91379   4.043   1.566   8.400 -0.2902 -0.6653 -0.2497
27534SOL    HW191380   4.121   1.552   8.346 -0.2909  0.8947 -0.7265
27534SOL    HW291381   4.058   1.514   8.478  2.1321  0.9733  0.5034
27535SOL     OW91382   1.612   9.147   9.284  0.0042  0.0384 -0.7662
27535SOL    HW191383   1.696   9.119   9.322 -1.3798 -2.4884  0.7303
27535SOL    HW291384   1.605   9.239   9.309  0.9280 -0.5144  1.9949
27536SOL     OW91385   6.459   0.230   5.644  0.0823  0.3604  0.0963
27536SOL    HW191386   6.546   0.216   5.682 -0.1740  1.3504  1.1195
27536SOL    HW291387   6.472   0.298   5.578  0.5721 -1.5378 -1.8454
27537SOL     OW91388   2.476   1.700   0.783  0.2199  0.1338 -0.2390
27537SOL    HW191389   2.555   1.751   0.762  0.7503 -0.9772 -1.0466
27537SOL    HW291390   2.436   1.747   0.857  2.8122 -0.4677  1.6815
27538SOL     OW91391   1.347   3.774   5.144 -0.2832 -0.1232 -0.3026
27538SOL    HW191392   1.352   3.862   5.106 -1.7738  1.1861  2.2408
27538SOL    HW291393   1.432   3.761   5.186 -0.6222  0.8298  0.7078
27539SOL     OW91394   2.735  12.373  11.798  0.0344 -0.0608 -0.6196
27539SOL    HW191395   2.803  12.377  11.865 -0.3161 -0.2145 -0.2514
27539SOL    HW291396   2.761  12.438  11.733 -0.8020  1.7266  0.7598
27540SOL     OW91397   0.633   8.405   3.242 -0.0680 -0.1909 -0.0400
27540SOL    HW191398   0.670   8.365   3.321  2.7562  2.2167  0.0424
27540SOL    HW291399   0.552   8.446   3.271  0.4232 -0.1831  1.3959
27541SOL     OW91400  11.821   0.664   5.392  0.0622 -0.4798 -0.1349
27541SOL    HW191401  11.867   0.670   5.476 -0.9595 -0.8576  0.4809
27541SOL    HW291402  11.755   0.734   5.396  0.6946  0.1967 -1.0901
27542SOL     OW91403  12.382  11.569   5.994 -0.5886 -0.2839 -0.0306
27542SOL    HW191404  12.449  11.531   6.051  0.3244  1.2637 -0.0230
27542SOL    HW291405  12.370  11.503   5.925  2.0125 -0.0497 -0.8389
27543SOL     OW91406   0.167  10.591   1.057 -0.1128 -0.2702  0.1617
27543SOL    HW191407   0.224  10.517   1.039 -0.1794 -0.0618 -0.9552
27543SOL    HW291408   0.196  10.660   0.997 -0.7023  0.2751  0.4821
27544SOL     OW91409   4.826   5.816   4.502 -0.1992 -0.0150  0.4918
27544SOL    HW191410   4.804   5.906   4.476  0.4769  0.2627  0.8408
27544SOL    HW291411   4.864   5.777   4.424  2.9553  1.1943  1.2333
27545SOL     OW91412  11.703   6.261   3.081 -0.3615 -0.0472  0.1921
27545SOL    HW191413  11.636   6.248   3.014 -0.1695 -0.9756  0.1653
27545SOL    HW291414  11.667   6.329   3.137 -1.1027 -0.1720 -0.1115
27546SOL     OW91415  11.936  11.366  10.516  0.5517  0.0674 -0.1428
27546SOL    HW191416  11.987  11.445  10.496  0.1268  0.3335 -0.1956
27546SOL    HW291417  11.954  11.307  10.443  0.0948  0.4997 -0.6077
27547SOL     OW91418  12.503   5.809  11.954 -0.0912  0.4009  0.0337
27547SOL    HW191419  12.592   5.792  11.923 -0.3906 -0.2824 -0.5016
27547SOL    HW291420  12.503   5.901  11.979  1.0120  0.1725  0.9206
27548SOL     OW91421  10.137   5.758   9.765 -0.2394 -0.2950  0.4927
27548SOL    HW191422  10.084   5.835   9.787 -0.1483 -0.7191  2.4043
27548SOL    HW291423  10.087   5.713   9.697 -1.8770 -0.1412  1.5171
27549SOL     OW91424   7.192   1.022   9.882 -0.1663  0.2186 -0.4025
27549SOL    HW191425   7.179   1.084   9.810  4.6674  3.0240  0.7111
27549SOL    HW291426   7.263   0.965   9.852  0.3478 -0.0708  1.2670
27550SOL     OW91427   5.983  10.662   7.117  0.2224 -0.1619 -0.1770
27550SOL    HW191428   5.978  10.749   7.156 -2.5923  0.2835 -1.2311
27550SOL    HW291429   6.071  10.657   7.080  0.9816  1.5963  1.2413
27551SOL     OW91430   6.052   7.754  12.102 -0.3284  0.4059  0.1769
27551SOL    HW191431   6.008   7.772  12.019 -3.9000  2.8506  2.3139
27551SOL    HW291432   6.067   7.659  12.101 -0.1073  0.3596 -3.2108
27552SOL     OW91433   8.055   2.282   4.364 -0.2108 -0.1734  0.8683
27552SOL    HW191434   8.091   2.259   4.449  2.1416  0.1621  0.0465
27552SOL    HW291435   8.075   2.375   4.354  1.1222 -0.5926 -0.7337
27553SOL     OW91436   4.571   8.128   2.783  0.4497  0.3668 -0.4262
27553SOL    HW191437   4.597   8.040   2.811  0.9975 -0.0254 -2.0488
27553SOL    HW291438   4.622   8.187   2.839 -0.5796 -0.2972  1.2883
27554SOL     OW91439  11.601  10.912   9.147 -0.1033 -0.0432 -0.0897
27554SOL    HW191440  11.668  10.977   9.169 -0.2284 -0.0888  0.4371
27554SOL    HW291441  11.649  10.845   9.098 -0.1044  0.7606 -1.2195
27555SOL     OW91442   8.857  10.333   3.408 -0.2295 -0.6267 -0.0593
27555SOL    HW191443   8.928  10.312   3.469 -0.3391  1.1617  0.7631
27555SOL    HW291444   8.899  10.339   3.322  0.5882  0.1175  0.3763
27556SOL     OW91445   5.743   0.658  12.104 -0.4866 -0.3737 -0.7513
27556SOL    HW191446   5.723   0.704  12.023 -3.4208 -0.3329 -0.0966
27556SOL    HW291447   5.733   0.725  12.172 -0.6599 -1.0164 -0.1372
27557SOL     OW91448   3.667  10.605   2.086 -0.1725 -0.2006 -0.1683
27557SOL    HW191449   3.698  10.581   1.999 -0.1260  1.5715 -0.6640
27557SOL    HW291450   3.739  10.656   2.124  0.3528 -2.0156  1.4514
27558SOL     OW91451   2.803   4.364   9.563 -0.2569  0.0862  0.6090
27558SOL    HW191452   2.765   4.432   9.617 -0.6813  0.4802 -0.1713
27558SOL    HW291453   2.882   4.404   9.526 -0.5965  0.2191  0.0181
27559SOL     OW91454   6.706   1.187  12.482 -0.1132 -0.2554 -0.2221
27559SOL    HW191455   6.751   1.103  12.489 -2.0256 -1.2530  1.0272
27559SOL    HW291456   6.637   1.171  12.417 -1.5462 -0.2297  1.2258
27560SOL     OW91457  10.141   6.684   4.477  0.0778  0.0989 -0.5204
27560SOL    HW191458  10.154   6.594   4.449 -0.4769 -0.1486 -0.0272
27560SOL    HW291459  10.060   6.681   4.528  0.3523  0.7703 -0.0287
27561SOL     OW91460  10.619   5.985  11.938  0.1909  0.3632  0.1936
27561SOL    HW191461  10.651   5.936  11.862 -1.1651  1.9226 -1.4692
27561SOL    HW291462  10.545   5.933  11.971  0.5065 -0.0983  0.1737
27562SOL     OW91463   6.371   5.626   1.817  0.2323  0.4501 -0.3210
27562SOL    HW191464   6.414   5.690   1.874 -0.2621  0.0893  0.4798
27562SOL    HW291465   6.433   5.553   1.812 -0.6502 -0.5184  1.6742
27563SOL     OW91466   5.020   8.228  10.837 -0.6139 -0.1520  0.0232
27563SOL    HW191467   5.053   8.185  10.757  0.1050 -1.1996  0.8553
27563SOL    HW291468   4.950   8.286  10.805  1.4261  1.5406 -1.7031
27564SOL     OW91469   1.620  12.067   7.919  0.2212 -0.3706  0.2921
27564SOL    HW191470   1.545  12.010   7.905 -2.2578  2.3086  1.6779
27564SOL    HW291471   1.681  12.014   7.971 -1.5582 -2.0230  0.8159
27565SOL     OW91472   8.002   3.149   0.213 -0.2044  0.1878 -0.3418
27565SOL    HW191473   7.981   3.219   0.275  0.5445 -0.7182  0.9856
27565SOL    HW291474   7.959   3.072   0.250  0.7240 -0.4817 -0.6352
27566SOL     OW91475   1.283   5.413   3.911  0.2065 -0.0633  0.2131
27566SOL    HW191476   1.360   5.412   3.855  0.9740 -2.8974  1.1332
27566SOL    HW291477   1.310   5.367   3.990 -1.6449  1.3500  1.7707
27567SOL     OW91478   3.954   4.229   1.446 -0.1793 -0.1066  0.2828
27567SOL    HW191479   3.936   4.150   1.497 -1.3434  0.1257  0.2594
27567SOL    HW291480   3.871   4.249   1.403 -0.2032  1.7220  1.0978
27568SOL     OW91481  12.000   8.992  12.095 -0.1911 -0.0399 -0.2238
27568SOL    HW191482  11.959   8.968  12.012 -1.2234  1.9680 -0.3594
27568SOL    HW291483  11.927   9.012  12.153  0.5530  1.0769  0.3622
27569SOL     OW91484   8.968   2.256   0.888 -0.3661  0.3141  0.2604
27569SOL    HW191485   8.931   2.327   0.835 -1.4551  0.8297  1.6468
27569SOL    HW291486   9.058   2.284   0.906  0.0256  0.1456 -1.2292
27570SOL     OW91487   2.849   7.091   2.870 -0.0524 -0.0294 -0.0461
27570SOL    HW191488   2.917   7.055   2.927 -1.1375  1.2067  2.1461
27570SOL    HW291489   2.837   7.180   2.901 -2.2152 -0.0217 -0.7985
27571SOL     OW91490  11.502   4.592   6.026 -0.0143 -0.1713  0.2987
27571SOL    HW191491  11.461   4.520   6.074 -0.7668 -1.3478 -1.9450
27571SOL    HW291492  11.430   4.631   5.976  0.6999  1.1064  0.2179
27572SOL     OW91493   6.011   9.725   4.629  0.5042  1.3787  0.1393
27572SOL    HW191494   5.943   9.785   4.658 -1.0444 -0.2381  0.0153
27572SOL    HW291495   6.035   9.675   4.707 -1.3059 -0.7060 -0.5237
27573SOL     OW91496   6.684   8.788   4.599  0.1529 -0.3276 -0.0780
27573SOL    HW191497   6.611   8.792   4.661  0.0191  0.0071 -0.2518
27573SOL    HW291498   6.654   8.838   4.524  0.2488 -0.8743 -0.4867
27574SOL     OW91499   5.610   5.107   4.238  0.4781  0.0657  0.4353
27574SOL    HW191500   5.556   5.186   4.241  1.5412  0.9220 -1.1459
27574SOL    HW291501   5.700   5.140   4.235  0.9834 -1.2352  0.5051
27575SOL     OW91502   5.442  11.092   5.984 -0.0494 -0.1165 -0.4762
27575SOL    HW191503   5.466  11.183   6.004 -0.1071 -0.5163  1.6398
27575SOL    HW291504   5.355  11.098   5.946 -0.3071  0.6832  0.2109
27576SOL     OW91505   2.370  12.206  11.381  0.3730 -0.1057 -0.1874
27576SOL    HW191506   2.412  12.250  11.455 -1.5928  2.0677 -0.2513
27576SOL    HW291507   2.327  12.130  11.420 -0.0854  0.6372  0.8041
27577SOL     OW91508   6.844   5.372   6.165  0.4161  0.1263 -0.1142
27577SOL    HW191509   6.777   5.437   6.143 -1.1005 -1.0984  0.6841
27577SOL    HW291510   6.926   5.422   6.168 -0.3042  1.5253 -1.9053
27578SOL     OW91511  11.060  10.318   9.574 -0.1589  0.2663 -0.0431
27578SOL    HW191512  11.004  10.317   9.652 -1.2277  0.8865 -0.7763
27578SOL    HW291513  11.135  10.372   9.600  0.4231 -1.0611  1.1481
27579SOL     OW91514   8.339   7.733   3.956  0.0071 -0.4259  0.0305
27579SOL    HW191515   8.275   7.798   3.927  0.1221  0.0384  0.7753
27579SOL    HW291516   8.300   7.649   3.936 -0.1197 -0.1328 -1.0110
27580SOL     OW91517   6.335  12.231   7.068  0.3780  0.1474  0.1329
27580SOL    HW191518   6.371  12.249   7.155 -2.0822  0.7301  1.1234
27580SOL    HW291519   6.312  12.138   7.070  0.7752  0.0455 -0.0737
27581SOL     OW91520   4.277   8.435   5.260 -0.2468 -0.5562 -0.0456
27581SOL    HW191521   4.198   8.402   5.303  0.5508 -0.8761  1.2375
27581SOL    HW291522   4.350   8.401   5.313  0.6951  1.1412 -0.1565
27582SOL     OW91523   8.869   0.737   6.828  0.7538 -0.2855 -0.7134
27582SOL    HW191524   8.901   0.651   6.803 -1.4877 -1.0797 -1.0889
27582SOL    HW291525   8.869   0.788   6.747  1.3993 -0.1530 -0.6331
27583SOL     OW91526  11.100   5.504   2.677  0.1456 -0.5375  0.2428
27583SOL    HW191527  11.128   5.542   2.594  1.0622 -1.2868  0.1782
27583SOL    HW291528  11.074   5.578   2.730  0.2140  0.0154 -0.4782
27584SOL     OW91529   7.686   2.899   2.959  0.2194 -0.6849 -0.0719
27584SOL    HW191530   7.620   2.968   2.960  1.2032  0.3328  1.7246
27584SOL    HW291531   7.669   2.850   3.040  0.6580 -1.4246 -0.4246
27585SOL     OW91532   4.008  11.136   1.605  0.2666  0.2064 -0.3793
27585SOL    HW191533   4.046  11.139   1.517 -1.9339  2.1777 -1.3588
27585SOL    HW291534   3.953  11.214   1.611  0.3778  0.1960  2.8188
27586SOL     OW91535   3.077   2.832  10.901  0.2232 -0.2870  0.6075
27586SOL    HW191536   3.050   2.790  10.983  0.5347  0.5093  1.1257
27586SOL    HW291537   3.059   2.925  10.915  1.4941  0.0291  0.2626
27587SOL     OW91538   2.146   8.456   5.112  0.6582  0.1976  0.8493
27587SOL    HW191539   2.238   8.446   5.087 -0.0105 -0.2861 -1.7370
27587SOL    HW291540   2.127   8.379   5.166  1.4531 -0.3857  0.3134
27588SOL     OW91541  12.476   6.374   7.992  0.0330  0.2345 -0.5543
27588SOL    HW191542  12.404   6.416   8.040 -0.1870  0.5820 -1.1760
27588SOL    HW291543  12.553   6.388   8.048 -0.8128 -2.6442  1.5853
27589SOL     OW91544   2.893   6.138   6.745 -0.7982 -0.3546  0.1168
27589SOL    HW191545   2.962   6.138   6.678 -0.9954 -0.5841 -0.0882
27589SOL    HW291546   2.815   6.107   6.699 -0.9103 -0.6199  0.4783
27590SOL     OW91547   7.774  12.011   0.410 -0.5842 -0.0436  0.1194
27590SOL    HW191548   7.856  12.055   0.434 -0.7900  1.1954 -1.2739
27590SOL    HW291549   7.733  11.989   0.493  1.3953 -1.1962  0.8674
27591SOL     OW91550   0.501  11.660  10.434  0.1767  0.0418 -0.4985
27591SOL    HW191551   0.519  11.753  10.447 -1.4668  0.2761  0.5128
27591SOL    HW291552   0.500  11.648  10.339  1.7231  0.7473 -0.6244
27592SOL     OW91553   6.067  10.174   2.269  0.1938 -0.7564 -0.2892
27592SOL    HW191554   6.104  10.262   2.276  1.0079 -0.9125 -2.0820
27592SOL    HW291555   5.974  10.185   2.292  0.2427  0.5943 -0.6608
27593SOL     OW91556   6.606   7.696   2.208 -0.2696  0.1346 -0.2784
27593SOL    HW191557   6.672   7.765   2.215 -0.0951 -0.0501 -0.0905
27593SOL    HW291558   6.644   7.621   2.254 -0.6466  0.0529 -0.0923
27594SOL     OW91559  11.911   3.375  10.974 -0.6253 -0.0426 -0.3255
27594SOL    HW191560  11.899   3.323  10.894 -2.4825 -0.4343  0.1524
27594SOL    HW291561  11.866   3.457  10.956  0.2846  0.4860 -0.2253
27595SOL     OW91562  10.346  10.478   2.231  0.1045  0.1753  0.1307
27595SOL    HW191563  10.296  10.560   2.230  0.5875  0.5096  1.5527
27595SOL    HW291564  10.299  10.421   2.170 -0.5111  1.3385 -0.5252
27596SOL     OW91565   4.881   9.568   9.899  0.0382  0.2479  0.6883
27596SOL    HW191566   4.858   9.595   9.988  1.0517  0.4468  0.9035
27596SOL    HW291567   4.977   9.568   9.898  0.0451  1.1654 -0.6719
27597SOL     OW91568   6.845   6.028   4.398  0.2678 -0.5912  0.1236
27597SOL    HW191569   6.932   5.997   4.375 -0.3509 -1.9683 -0.5102
27597SOL    HW291570   6.807   6.057   4.315 -0.2416 -1.0116  0.2009
27598SOL     OW91571  12.098   5.118  11.501  0.7153 -0.0658  0.6100
27598SOL    HW191572  12.194   5.115  11.493  0.8318  0.0816  1.7936
27598SOL    HW291573  12.080   5.083  11.588 -0.2097  1.1442  0.9374
27599SOL     OW91574  12.298   3.969  11.121  0.4012 -0.5824  0.1477
27599SOL    HW191575  12.386   3.936  11.135  0.9366  0.3775 -0.8784
27599SOL    HW291576  12.309   4.054  11.079 -0.9996 -0.2128  0.4501
27600SOL     OW91577  12.040   6.482   9.009 -0.0916  0.3649  0.0276
27600SOL    HW191578  12.031   6.428   9.087 -4.2259  1.1861  0.3453
27600SOL    HW291579  12.042   6.572   9.042  2.4742  0.6880 -0.7262
27601SOL     OW91580  11.579   2.807   6.101 -0.0921  0.4445 -0.6752
27601SOL    HW191581  11.610   2.797   6.011  0.4657  3.1131 -0.8469
27601SOL    HW291582  11.531   2.890   6.101  0.2387  0.6889  1.5639
27602SOL     OW91583   1.736   6.737   7.875 -0.2505  0.3195  0.1218
27602SOL    HW191584   1.738   6.790   7.956  0.2363  0.3947  0.0672
27602SOL    HW291585   1.708   6.651   7.904  2.0794 -0.2920  0.7737
27603SOL     OW91586   3.177  12.330   6.245 -0.8618 -0.2866 -0.0901
27603SOL    HW191587   3.267  12.343   6.215 -1.4428 -0.5737 -2.0812
27603SOL    HW291588   3.186  12.301   6.336  1.0038  0.6180  0.0530
27604SOL     OW91589   4.394  12.048   8.853  0.5531  0.0380 -0.0839
27604SOL    HW191590   4.386  12.073   8.761  2.9916  1.1492 -0.0689
27604SOL    HW291591   4.307  12.066   8.890 -0.7542 -1.2501 -2.2903
27605SOL     OW91592   1.905   7.944   6.754 -0.4970  0.5575 -0.4884
27605SOL    HW191593   1.983   7.999   6.749 -0.1565  0.1216 -0.1438
27605SOL    HW291594   1.917   7.879   6.685 -0.7392  0.7159 -0.6801
27606SOL     OW91595  12.501  10.742   5.781  0.0924  0.0628  0.0203
27606SOL    HW191596  12.433  10.748   5.713  0.5224 -0.7840 -0.5016
27606SOL    HW291597  12.583  10.749   5.733  0.4218 -1.1988  0.3549
27607SOL     OW91598   0.719  11.110   7.243 -0.2914 -0.8269 -0.0794
27607SOL    HW191599   0.757  11.112   7.155 -0.1112  1.1628  0.0029
27607SOL    HW291600   0.625  11.120   7.229 -0.3545 -1.3782 -0.0733
27608SOL     OW91601  12.237   6.258   9.367 -0.1068 -0.4426  0.0597
27608SOL    HW191602  12.143   6.279   9.371 -0.2820 -1.3711  1.3555
27608SOL    HW291603  12.258   6.225   9.454  1.7853  1.1283  0.2686
27609SOL     OW91604  12.440   5.149  12.398 -0.2299 -0.2168 -0.4832
27609SOL    HW191605  12.435   5.156  12.493 -1.4028 -0.0656 -0.5467
27609SOL    HW291606  12.357   5.185  12.366 -0.7508 -2.1405 -1.4542
27610SOL     OW91607   9.621   7.975   2.048 -0.6131  0.4611 -0.1881
27610SOL    HW191608   9.649   7.884   2.057 -0.6045  0.4570 -0.2553
27610SOL    HW291609   9.679   8.011   1.981 -0.4189  0.5983  0.0523
27611SOL     OW91610   5.219   4.410   7.133  0.4798 -0.0225 -0.3136
27611SOL    HW191611   5.308   4.403   7.100  0.9017 -0.3075  0.8459
27611SOL    HW291612   5.174   4.334   7.096  0.8829 -0.2213 -0.3984
27612SOL     OW91613   1.101  11.109   8.507 -0.0539  0.8202 -0.2297
27612SOL    HW191614   1.096  11.021   8.544  0.9790 -0.2477 -2.4515
27612SOL    HW291615   1.109  11.167   8.583 -1.7346 -0.8721  1.3283
27613SOL     OW91616   4.098   0.100   9.904 -0.3103  0.1100  0.0491
27613SOL    HW191617   4.158   0.040   9.948 -0.2764 -0.9580 -1.3923
27613SOL    HW291618   4.026   0.044   9.873 -0.1558  0.7410 -1.5448
27614SOL     OW91619  10.987  12.100   8.794  0.1911  0.4444  0.9117
27614SOL    HW191620  10.967  12.135   8.881 -1.9490 -0.0960  0.7125
27614SOL    HW291621  11.007  12.177   8.741 -2.7475  1.3280  0.8975
27615SOL     OW91622   0.482   5.605   9.422  0.1767 -0.0930 -0.3865
27615SOL    HW191623   0.412   5.670   9.412  2.7623  3.0171  0.1718
27615SOL    HW291624   0.493   5.596   9.517  0.6532 -0.3861 -0.4654
27616SOL     OW91625  12.191   1.501  10.473 -0.2945  0.3068  0.0418
27616SOL    HW191626  12.221   1.509  10.383 -0.4586  0.6984  0.0220
27616SOL    HW291627  12.180   1.406  10.486 -1.1723  0.3011 -0.6490
27617SOL     OW91628  10.501   3.650   8.794  0.1844  0.6838  0.4712
27617SOL    HW191629  10.575   3.603   8.755 -1.1315 -0.7295 -0.4446
27617SOL    HW291630  10.426   3.592   8.779 -1.8104  3.5866 -1.8243
27618SOL     OW91631   6.988   4.125   7.522 -0.1674  0.0382 -1.1284
27618SOL    HW191632   7.026   4.076   7.594  0.4632  1.0111 -0.7858
27618SOL    HW291633   6.985   4.216   7.552 -3.0707 -0.0002 -1.0107
27619SOL     OW91634  12.516  11.895   1.946  0.4373  0.4352  0.4073
27619SOL    HW191635  12.561  11.975   1.971 -0.8748  1.0003  1.1049
27619SOL    HW291636  12.427  11.906   1.981  0.1505 -1.2028  0.2907
27620SOL     OW91637  10.063  12.210  11.397 -0.2495  0.8786  0.0182
27620SOL    HW191638  10.072  12.216  11.492 -1.5785 -0.0301  0.2359
27620SOL    HW291639  10.141  12.163  11.368 -1.1319 -1.3295  1.0173
27621SOL     OW91640   5.153   8.939   0.650 -0.5735 -0.1603  0.0437
27621SOL    HW191641   5.124   8.959   0.739 -0.2432  1.6030 -0.2089
27621SOL    HW291642   5.172   9.024   0.612  1.1763 -1.0024 -1.0781
27622SOL     OW91643   0.546   3.389   8.249 -0.1827 -0.0260  0.2140
27622SOL    HW191644   0.609   3.414   8.182 -0.9630  1.0968 -0.1345
27622SOL    HW291645   0.599   3.375   8.328  0.6374 -0.4452 -0.3985
27623SOL     OW91646  10.767  10.625   3.867  0.1902 -0.0158  0.0417
27623SOL    HW191647  10.738  10.693   3.927  0.8792 -1.3133  1.9787
27623SOL    HW291648  10.688  10.575   3.846 -0.2919  1.2561 -1.2829
27624SOL     OW91649   4.423  11.104   0.467 -0.9539  0.3784 -0.4885
27624SOL    HW191650   4.359  11.051   0.420 -1.1309 -0.4014  0.5821
27624SOL    HW291651   4.395  11.099   0.559  0.4895  0.2352 -0.0380
27625SOL     OW91652   0.140   2.455   3.535  0.4156  0.2142  0.6245
27625SOL    HW191653   0.094   2.539   3.535 -0.1238 -0.0758  1.4294
27625SOL    HW291654   0.228   2.476   3.566  0.4581  0.5650  0.2831
27626SOL     OW91655   0.503   4.694   8.969 -0.3010 -0.1143  0.5984
27626SOL    HW191656   0.498   4.598   8.968  1.8856 -0.2986  1.3364
27626SOL    HW291657   0.481   4.719   9.058 -1.2438  0.1207  0.3099
27627SOL     OW91658   3.101   0.350   5.408  0.3835  0.0447  0.4255
27627SOL    HW191659   3.169   0.352   5.341  0.0442  0.4692  0.0899
27627SOL    HW291660   3.099   0.440   5.443  0.7094 -0.2243  1.1612
27628SOL     OW91661   4.412   5.688   2.629  0.0827 -0.0907 -0.1768
27628SOL    HW191662   4.365   5.661   2.551 -0.0506 -0.3566 -0.0027
27628SOL    HW291663   4.450   5.773   2.605 -1.5260  0.7529  0.0877
27629SOL     OW91664   8.340   8.818   2.369  0.0837 -0.5799 -0.2298
27629SOL    HW191665   8.399   8.846   2.439  0.9569 -0.2232 -1.0949
27629SOL    HW291666   8.394   8.763   2.312 -0.4107 -0.2530 -1.0327
27630SOL     OW91667   0.178   6.764   5.826 -0.4107  0.3784 -0.0128
27630SOL    HW191668   0.202   6.843   5.875 -0.7896  0.7201 -0.3687
27630SOL    HW291669   0.258   6.741   5.778 -0.7425  1.5213 -1.2070
27631SOL     OW91670   9.680   0.124   9.412  0.1082  0.5324 -0.7785
27631SOL    HW191671   9.739   0.057   9.378 -1.9826 -2.1857  0.4975
27631SOL    HW291672   9.731   0.168   9.481  1.5466  0.2723 -1.6360
27632SOL     OW91673   5.914   1.416   6.045 -0.0925  0.1801 -0.1825
27632SOL    HW191674   5.840   1.367   6.010 -1.1853  3.5723 -3.2168
27632SOL    HW291675   5.990   1.381   5.998 -0.3408 -0.6994  0.0520
27633SOL     OW91676   7.020  12.066   5.890  0.3648  0.2777  0.2215
27633SOL    HW191677   7.024  11.971   5.904 -0.2271  0.0574 -0.9544
27633SOL    HW291678   6.931  12.081   5.859  0.9813  0.9638 -1.2816
27634SOL     OW91679  12.554   7.590   0.978 -0.3135 -0.1562  0.3310
27634SOL    HW191680  12.561   7.685   0.989  0.0488 -0.2930  1.4151
27634SOL    HW291681  12.622   7.554   1.035 -0.2654 -1.0642 -0.2801
27635SOL     OW91682   1.742   8.687   2.138  0.5280  0.7097 -0.2669
27635SOL    HW191683   1.695   8.765   2.108 -0.3423 -0.1390 -1.2189
27635SOL    HW291684   1.748   8.632   2.059  2.0033  0.2349  0.1460
27636SOL     OW91685  12.078   2.133   7.967 -0.4263  0.3127 -0.2889
27636SOL    HW191686  12.035   2.103   7.887  1.1989 -1.1431 -0.6651
27636SOL    HW291687  12.065   2.062   8.029 -0.4552  0.8219  0.2918
27637SOL     OW91688   2.636   1.894  11.883 -0.1094  0.1315  0.3855
27637SOL    HW191689   2.672   1.982  11.883 -0.4213  0.3028 -1.5758
27637SOL    HW291690   2.570   1.895  11.953  1.2402  0.8258  1.6996
27638SOL     OW91691   1.564   0.441   3.509 -0.9028 -0.1199  0.4635
27638SOL    HW191692   1.491   0.382   3.492  0.0619 -1.1002 -0.4709
27638SOL    HW291693   1.638   0.401   3.463 -0.0739  1.5332  0.2996
27639SOL     OW91694   8.542   6.102  12.392 -0.2523 -0.2387 -0.1303
27639SOL    HW191695   8.471   6.056  12.347 -0.0817  0.2684 -0.9414
27639SOL    HW291696   8.621   6.074  12.346 -0.0608  0.1914 -0.0601
27640SOL     OW91697   6.743  11.406   6.715  0.1881 -0.1369  0.0901
27640SOL    HW191698   6.735  11.381   6.623 -0.6149  0.7873 -0.1144
27640SOL    HW291699   6.750  11.323   6.762  4.0784 -0.6220 -1.0175
27641SOL     OW91700  10.939   3.831  11.496  0.5468 -0.0513 -0.3364
27641SOL    HW191701  10.884   3.861  11.569 -0.5217  0.6390 -1.3931
27641SOL    HW291702  10.977   3.911  11.460 -0.4794 -0.1523 -1.7213
27642SOL     OW91703   3.850   7.991   8.171 -0.4125 -0.0938 -0.0712
27642SOL    HW191704   3.788   8.050   8.214 -2.2656 -2.3988  0.5802
27642SOL    HW291705   3.928   7.995   8.226 -0.8293  1.0200  0.4762
27643SOL     OW91706   1.773   0.155   1.852  0.0008  0.4323 -0.2514
27643SOL    HW191707   1.722   0.096   1.908 -0.0667 -0.1622 -0.9237
27643SOL    HW291708   1.779   0.236   1.902  2.1038 -0.8631  1.7602
27644SOL     OW91709   8.254   6.953  12.407 -0.0752 -0.7066  0.0885
27644SOL    HW191710   8.213   6.940  12.493 -1.4116 -1.3443 -0.6236
27644SOL    HW291711   8.226   7.041  12.381  0.7515 -0.3070  0.5127
27645SOL     OW91712   5.252  10.601   7.417 -0.0472 -0.0732 -0.2215
27645SOL    HW191713   5.202  10.522   7.437 -0.6579  0.2779 -0.3482
27645SOL    HW291714   5.191  10.657   7.368  0.9191 -0.2606 -1.7220
27646SOL     OW91715   7.142   6.433   9.104 -0.2324  0.6509  0.3020
27646SOL    HW191716   7.217   6.446   9.162  0.2729  1.2988 -0.4880
27646SOL    HW291717   7.180   6.422   9.017 -0.9613 -0.8224  0.1391
27647SOL     OW91718   9.749   5.782   4.148  0.3481  0.4878  0.0558
27647SOL    HW191719   9.723   5.811   4.236  0.5159 -1.4313  0.7701
27647SOL    HW291720   9.667   5.783   4.098  0.4955  3.1987 -0.3274
27648SOL     OW91721  10.000   3.870   6.642  0.3839 -0.0018  0.4949
27648SOL    HW191722   9.985   3.778   6.660  2.1790 -0.2700  0.8141
27648SOL    HW291723   9.913   3.906   6.626 -0.2863 -1.9479 -0.6512
27649SOL     OW91724   0.289   1.820  11.615  0.6064 -0.4453  0.3237
27649SOL    HW191725   0.376   1.860  11.623  0.1817  0.9605 -1.5145
27649SOL    HW291726   0.229   1.886  11.650  0.0918 -0.3601 -0.6731
27650SOL     OW91727   8.637   2.346  10.176 -0.4477 -0.0699 -0.4326
27650SOL    HW191728   8.601   2.425  10.216  0.1121 -0.6147  1.2431
27650SOL    HW291729   8.568   2.280  10.184 -0.8845  0.2039 -1.7572
27651SOL     OW91730  10.352   0.262  10.322  0.3556  0.4947 -0.0160
27651SOL    HW191731  10.278   0.322  10.324 -0.3634 -0.3839  0.6944
27651SOL    HW291732  10.429   0.319  10.330 -0.3544  1.2549  2.0845
27652SOL     OW91733   0.352   5.832   3.407 -0.4598 -0.1060  0.1702
27652SOL    HW191734   0.262   5.809   3.385  0.0066 -1.4928 -0.4276
27652SOL    HW291735   0.374   5.775   3.481  0.3671 -0.8227 -0.6004
27653SOL     OW91736   2.430   1.786  11.309 -0.1090 -0.1438  0.3164
27653SOL    HW191737   2.433   1.820  11.398  0.8166 -1.0548  0.6513
27653SOL    HW291738   2.427   1.691  11.319 -3.7665 -0.2969 -0.5580
27654SOL     OW91739   7.213   5.590   9.959  0.0516 -0.1940  0.2476
27654SOL    HW191740   7.243   5.616   9.872 -0.0491  1.4408  0.6718
27654SOL    HW291741   7.118   5.603   9.957  0.2034  1.2829  1.0211
27655SOL     OW91742   1.078   6.501   2.122 -0.1154 -0.2680 -0.9461
27655SOL    HW191743   1.046   6.586   2.151 -1.1064 -1.0053  0.2657
27655SOL    HW291744   1.132   6.520   2.046  2.5965  1.8323  1.2715
27656SOL     OW91745   7.713   3.896   5.144  0.0622 -0.0429  0.7292
27656SOL    HW191746   7.736   3.832   5.211 -0.8066 -2.1399 -0.8915
27656SOL    HW291747   7.628   3.869   5.112  0.4642  0.8397 -1.2754
27657SOL     OW91748   6.810   2.653  11.116  0.0377  0.2291  0.3175
27657SOL    HW191749   6.821   2.563  11.083 -1.1205  0.4532 -0.7844
27657SOL    HW291750   6.802   2.706  11.037  0.6755  1.3092  0.9682
27658SOL     OW91751   0.896   8.707   8.544 -0.0283 -0.4186  0.1948
27658SOL    HW191752   0.983   8.701   8.583 -0.0202 -0.4170  0.1769
27658SOL    HW291753   0.838   8.729   8.617  0.1385  0.6073  0.0286
27659SOL     OW91754   9.081   2.459   6.710  0.3014  0.0198 -0.9089
27659SOL    HW191755   9.117   2.508   6.784 -1.1784 -1.8437  1.1988
27659SOL    HW291756   9.015   2.517   6.672 -1.4611 -0.1837  1.5569
27660SOL     OW91757   1.072   8.947   5.128  0.0684  0.0230  0.0826
27660SOL    HW191758   1.022   9.028   5.116 -1.3455 -1.0362 -1.6251
27660SOL    HW291759   1.008   8.877   5.118  1.8359 -1.4129 -2.1538
27661SOL     OW91760  10.396   3.813   8.558  0.1632  0.1509 -0.2969
27661SOL    HW191761  10.441   3.777   8.634  2.2131 -3.1072 -2.7594
27661SOL    HW291762  10.466   3.840   8.499 -1.3170  1.5584 -1.5138
27662SOL     OW91763   8.850   8.150  10.615 -0.3122  0.1077 -0.3134
27662SOL    HW191764   8.917   8.083  10.616 -1.5903 -1.3105 -2.2151
27662SOL    HW291765   8.852   8.185  10.525 -3.3271 -1.3810 -1.0981
27663SOL     OW91766   6.622   5.726   5.451  0.0552 -0.6653  0.0844
27663SOL    HW191767   6.692   5.688   5.397 -2.7356 -2.8621 -2.3161
27663SOL    HW291768   6.606   5.661   5.518  0.1517 -0.2633  0.5000
27664SOL     OW91769  10.012   0.930   4.325  0.4506  0.3212  0.0267
27664SOL    HW191770  10.030   1.019   4.355 -1.0500  0.3875  0.8287
27664SOL    HW291771   9.972   0.887   4.401 -0.1655 -0.6022 -0.7941
27665SOL     OW91772   4.146   1.648   0.207  0.2704  1.1485 -0.0878
27665SOL    HW191773   4.241   1.649   0.200  0.2572  0.0342 -0.7426
27665SOL    HW291774   4.115   1.669   0.119 -0.0886  1.3482  0.0837
27666SOL     OW91775   2.768   4.466   0.015 -0.3967 -0.3027 -0.0724
27666SOL    HW191776   2.848   4.416  -0.000  0.3356  1.2957 -1.7821
27666SOL    HW291777   2.763   4.475   0.110  1.3374 -0.6284  0.0732
27667SOL     OW91778   2.440   1.254  12.299 -0.6473 -0.7563  0.1767
27667SOL    HW191779   2.433   1.260  12.204  0.1230  1.4917  0.2188
27667SOL    HW291780   2.524   1.210  12.315 -0.1397  0.0660 -0.1917
27668SOL     OW91781   4.071   4.596   0.840 -0.4022  0.1286 -0.1180
27668SOL    HW191782   4.119   4.605   0.758 -2.0192  0.2557 -1.0991
27668SOL    HW291783   4.102   4.513   0.876 -0.6710 -0.6462 -1.5797
27669SOL     OW91784  11.288   5.088   7.538 -0.1417 -0.2337  0.4477
27669SOL    HW191785  11.230   5.056   7.607  1.1054 -2.0908  0.7202
27669SOL    HW291786  11.373   5.048   7.559  0.6390  0.4471 -1.2767
27670SOL     OW91787  11.781   1.527   1.047  0.4038  0.2873  0.3302
27670SOL    HW191788  11.834   1.464   1.097 -0.0722 -0.1228  0.3178
27670SOL    HW291789  11.691   1.509   1.073  0.3076  1.4835  0.9192
27671SOL     OW91790   5.039   9.893   7.489 -0.0921 -0.4354  0.0823
27671SOL    HW191791   5.027   9.871   7.581  0.3189 -0.5278  0.1153
27671SOL    HW291792   4.988   9.827   7.442  1.3374 -1.6482  0.1677
27672SOL     OW91793   2.920   4.208   7.615  0.4462 -0.2016  0.0944
27672SOL    HW191794   3.014   4.188   7.611  0.6659  0.8650 -2.1167
27672SOL    HW291795   2.917   4.301   7.634 -0.2418 -0.4886  1.4580
27673SOL     OW91796   6.693   2.149   2.911 -0.4442  0.4588  0.4380
27673SOL    HW191797   6.606   2.114   2.927 -1.0252  2.1345  1.2139
27673SOL    HW291798   6.735   2.084   2.855 -3.2313  0.9793 -2.5593
27674SOL     OW91799   9.743  12.518   9.199 -0.8686  0.1400 -0.7113
27674SOL    HW191800   9.659  12.487   9.233 -0.3634 -1.2350 -0.6591
27674SOL    HW291801   9.723  12.605   9.162 -2.7593 -0.9411 -2.4626
27675SOL     OW91802   8.844   7.222   4.623 -0.1261 -0.0903  0.1741
27675SOL    HW191803   8.841   7.317   4.630 -0.8660 -0.0600 -0.5489
27675SOL    HW291804   8.823   7.191   4.712 -0.1911  0.4070  0.3344
27676SOL     OW91805   3.456  10.043   7.362  0.5344 -0.0410 -0.5166
27676SOL    HW191806   3.410   9.980   7.306  0.2121 -0.2829  0.0035
27676SOL    HW291807   3.522   9.991   7.407  0.0895 -0.0703  0.1162
27677SOL     OW91808  10.680   4.524   3.306  0.1457 -0.4556  0.1162
27677SOL    HW191809  10.659   4.450   3.249 -1.8182 -0.0291  0.2398
27677SOL    HW291810  10.610   4.525   3.371  0.3071  1.3222  0.3102
27678SOL     OW91811   7.958   6.230  11.049 -0.2506 -0.6175 -0.4461
27678SOL    HW191812   7.906   6.256  10.973  0.8533 -0.6049 -1.2122
27678SOL    HW291813   7.995   6.145  11.025 -0.6151 -1.0477  0.4552
27679SOL     OW91814  10.180   4.457   4.515 -0.6787  0.5890  0.8333
27679SOL    HW191815  10.226   4.540   4.523  0.2150  0.2927 -0.9163
27679SOL    HW291816  10.249   4.392   4.505 -1.3950 -0.2893  1.3959
27680SOL     OW91817   2.215   5.049   2.343  0.6727 -0.0811 -0.0915
27680SOL    HW191818   2.137   5.037   2.397  1.2566  0.6457  0.9583
27680SOL    HW291819   2.235   5.143   2.350  1.2707 -0.1392 -0.8622
27681SOL     OW91820   1.725   6.188   9.339 -0.2248 -0.3707  0.3381
27681SOL    HW191821   1.704   6.144   9.421  0.1714  0.0108  0.6477
27681SOL    HW291822   1.799   6.245   9.360 -0.5113  0.1906 -0.1374
27682SOL     OW91823   4.964  10.586   5.373 -0.0870  0.4010  0.3744
27682SOL    HW191824   5.007  10.604   5.457 -0.7866  0.6965  0.6793
27682SOL    HW291825   4.874  10.616   5.386 -0.1784  0.5312 -0.5118
27683SOL     OW91826  10.014   8.460   0.155  0.2318  1.2538  0.0722
27683SOL    HW191827  10.078   8.424   0.216 -1.0358 -0.1477  0.6579
27683SOL    HW291828  10.057   8.536   0.116  2.5173 -0.0615 -0.1323
27684SOL     OW91829   3.132   9.738   6.048  0.6364 -0.8636 -0.0193
27684SOL    HW191830   3.038   9.744   6.029  0.3511  2.5698  1.6901
27684SOL    HW291831   3.137   9.731   6.143  2.1753 -3.2805 -0.1949
27685SOL     OW91832   0.003  11.662   1.922 -0.0351  0.0484 -0.2015
27685SOL    HW191833   0.019  11.630   2.011  1.8844  2.1108  0.2957
27685SOL    HW291834  -0.036  11.748   1.934 -0.2815  0.1154 -1.3850
27686SOL     OW91835   1.755  10.865   1.161 -0.5409  0.1759 -0.1731
27686SOL    HW191836   1.781  10.780   1.127  0.6322  0.2614  0.4439
27686SOL    HW291837   1.833  10.919   1.151 -0.7714  0.7312  0.8964
27687SOL     OW91838  11.205   5.017   9.583  0.6429  0.1788  0.0383
27687SOL    HW191839  11.268   5.023   9.511  0.9674  0.8509  0.3638
27687SOL    HW291840  11.138   5.083   9.563 -0.4063 -1.0755 -0.7110
27688SOL     OW91841   6.594   8.050   0.681  0.0896  0.0514  0.3312
27688SOL    HW191842   6.623   8.059   0.772  1.4677 -0.5102 -0.0301
27688SOL    HW291843   6.602   8.138   0.645  0.1975  0.1386  0.5636
27689SOL     OW91844   1.457   8.739  11.398 -0.1059 -0.4144 -0.3775
27689SOL    HW191845   1.435   8.814  11.452  0.0764  0.1632 -1.0858
27689SOL    HW291846   1.380   8.682  11.403 -0.4700  0.0822 -0.2789
27690SOL     OW91847   7.712   9.895   7.866  0.5163  0.4614 -1.2322
27690SOL    HW191848   7.741   9.980   7.833  0.7056  0.7463 -0.3590
27690SOL    HW291849   7.663   9.856   7.794  1.3469  0.8474 -2.0191
27691SOL     OW91850  10.626   2.103  11.824  0.1029  0.4487  0.4681
27691SOL    HW191851  10.645   2.133  11.735  1.2181 -2.5143 -0.4026
27691SOL    HW291852  10.705   2.058  11.851 -0.4649  0.7094  2.7604
27692SOL     OW91853  11.788   3.150   5.424  0.2783 -0.1956  0.6672
27692SOL    HW191854  11.876   3.156   5.389 -0.4513 -0.9269 -1.4538
27692SOL    HW291855  11.749   3.074   5.380 -1.4458  0.1653  1.4504
27693SOL     OW91856  12.493   9.399   8.158 -0.7832 -0.5482 -0.3995
27693SOL    HW191857  12.558   9.373   8.093  0.3288 -0.5539  0.6677
27693SOL    HW291858  12.440   9.465   8.114 -1.5842 -2.2231 -2.0770
27694SOL     OW91859   8.800   5.850   9.202  0.3334 -0.6129  0.3498
27694SOL    HW191860   8.838   5.868   9.288  0.7659  1.7050 -0.2567
27694SOL    HW291861   8.749   5.771   9.215 -0.2090  0.0621  2.9337
27695SOL     OW91862   1.167   1.859   7.424  0.4834 -0.6287  0.5092
27695SOL    HW191863   1.154   1.771   7.459  0.4924 -0.5047  0.8203
27695SOL    HW291864   1.159   1.848   7.329 -0.6508 -0.7667  0.6127
27696SOL     OW91865  12.417   3.308   3.718 -0.0181 -0.2795  0.0655
27696SOL    HW191866  12.393   3.375   3.655 -2.3648 -1.4335 -0.3633
27696SOL    HW291867  12.420   3.355   3.802  0.5182  0.7416 -0.4985
27697SOL     OW91868   6.918   8.934   0.881 -0.8777 -0.3717 -0.2705
27697SOL    HW191869   6.892   8.848   0.914  0.7566 -0.6556  0.3527
27697SOL    HW291870   6.917   8.923   0.786  0.0054 -1.3163 -0.1912
27698SOL     OW91871   0.060   7.355   6.872  0.8207 -0.5119  0.2429
27698SOL    HW191872   0.074   7.321   6.784  2.0716  2.4356 -0.8261
27698SOL    HW291873  -0.020   7.407   6.866  0.3065 -1.1600  1.1639
27699SOL     OW91874   8.171   1.078   6.980  0.5475 -0.0643 -0.1420
27699SOL    HW191875   8.138   1.074   6.890  0.8985 -0.1296 -0.2714
27699SOL    HW291876   8.218   1.162   6.985  0.7488 -0.1775 -0.0997
27700SOL     OW91877   2.889  12.109   1.372 -0.4119  0.8496  0.3634
27700SOL    HW191878   2.933  12.075   1.450  0.9239  0.6077 -0.4545
27700SOL    HW291879   2.862  12.031   1.324  1.1156  0.9071 -0.6674
27701SOL     OW91880  10.707   6.871   4.910 -0.5122 -0.3867 -0.2045
27701SOL    HW191881  10.644   6.800   4.915 -0.7239 -0.4016 -2.0988
27701SOL    HW291882  10.655   6.948   4.885 -0.0973  0.1301  0.4792
27702SOL     OW91883  12.464   9.998   1.992  0.3514  0.1777  0.3131
27702SOL    HW191884  12.374  10.029   2.001  0.8070  2.4566 -1.7740
27702SOL    HW291885  12.501  10.052   1.922  3.3485 -0.7081  1.0527
27703SOL     OW91886   8.761   0.337   4.831 -0.4462 -0.4712 -0.5237
27703SOL    HW191887   8.672   0.330   4.863 -0.2455 -2.3821 -0.2700
27703SOL    HW291888   8.757   0.402   4.761 -2.1020 -0.8067 -0.7674
27704SOL     OW91889   3.479   1.860   6.985 -0.0952 -0.0843  0.6862
27704SOL    HW191890   3.478   1.907   7.069  0.2756  0.9516  0.1326
27704SOL    HW291891   3.557   1.804   6.990  1.0173  1.3407  0.3520
27705SOL     OW91892   4.214  12.162   8.023  0.2381  0.1992  0.3717
27705SOL    HW191893   4.299  12.120   8.010  0.0585  0.3465 -1.5245
27705SOL    HW291894   4.220  12.200   8.111  2.1947  0.3553  0.2290
27706SOL     OW91895   0.189   1.747   9.001  0.6560  0.3983  1.0138
27706SOL    HW191896   0.149   1.738   9.088 -1.6484  0.3238  0.0376
27706SOL    HW291897   0.215   1.658   8.977 -2.8950 -0.5260 -0.1115
27707SOL     OW91898   5.054   5.890   0.841 -0.2567 -0.8552  0.0045
27707SOL    HW191899   5.085   5.799   0.831 -0.1214 -0.9562  1.2570
27707SOL    HW291900   4.960   5.884   0.824 -0.2820 -1.2669  0.2579
27708SOL     OW91901   5.613  11.701   5.354 -0.1202 -0.0457  0.6369
27708SOL    HW191902   5.534  11.651   5.374 -0.8620  1.0402  0.5606
27708SOL    HW291903   5.675  11.637   5.321 -1.9087 -0.5835 -2.0028
27709SOL     OW91904  11.718  10.961   3.354  0.1393 -0.2738  0.2647
27709SOL    HW191905  11.699  11.034   3.296 -0.6018  0.1451  1.0147
27709SOL    HW291906  11.633  10.919   3.369  0.0348  0.5469  2.2424
27710SOL     OW91907   5.329   8.624   0.512 -0.3666 -0.3288  0.1757
27710SOL    HW191908   5.253   8.573   0.538 -0.6440 -0.2684 -0.4964
27710SOL    HW291909   5.381   8.633   0.593 -2.5555  2.2587  1.4303
27711SOL     OW91910   8.550   9.129   2.173  0.1004 -0.0303 -0.2217
27711SOL    HW191911   8.542   9.179   2.255 -2.3788  0.5764 -0.7768
27711SOL    HW291912   8.523   9.040   2.197 -1.3417  0.3178 -0.5191
27712SOL     OW91913   5.207   6.770   3.761  0.6346  0.3601 -0.1123
27712SOL    HW191914   5.233   6.805   3.676  1.7881 -1.5924 -0.6010
27712SOL    HW291915   5.289   6.757   3.808  0.0241  1.2100  1.2649
27713SOL     OW91916   3.912   0.512   0.316 -0.0451 -0.3736  0.0210
27713SOL    HW191917   3.845   0.517   0.384 -0.0983  0.0601 -0.0594
27713SOL    HW291918   3.905   0.595   0.269  1.6434  0.4080  1.0551
27714SOL     OW91919   8.674  11.240   9.531 -0.6744  0.1586 -0.3167
27714SOL    HW191920   8.602  11.207   9.479 -0.9532  0.0512  0.1311
27714SOL    HW291921   8.634  11.305   9.590 -0.0504  1.8185 -1.6183
27715SOL     OW91922   5.474   4.845   9.421 -0.1453 -0.2583 -0.3048
27715SOL    HW191923   5.516   4.856   9.336 -1.0728  0.5207 -0.6742
27715SOL    HW291924   5.387   4.881   9.410 -0.2168  0.0359  1.0427
27716SOL     OW91925   9.513   2.390   6.345 -0.3714  0.5757 -0.2477
27716SOL    HW191926   9.497   2.443   6.267 -0.5385 -0.8630 -1.2496
27716SOL    HW291927   9.426   2.363   6.374 -0.2139 -1.3537 -1.4022
27717SOL     OW91928   3.217   8.568  11.836 -0.8412 -0.1055  0.6849
27717SOL    HW191929   3.241   8.655  11.801 -0.2821 -0.3393  0.4782
27717SOL    HW291930   3.190   8.585  11.926 -0.7653  0.2900  0.6370
27718SOL     OW91931   7.727   6.778   7.923  0.0829  0.0502  0.0866
27718SOL    HW191932   7.676   6.858   7.937 -0.4953 -0.1897 -0.6309
27718SOL    HW291933   7.705   6.723   7.999 -0.2864  0.1743  0.0727
27719SOL     OW91934  11.030   9.441   9.239  0.3051 -0.3239  0.2362
27719SOL    HW191935  10.971   9.514   9.221  2.0916  1.0240 -0.4427
27719SOL    HW291936  11.098   9.478   9.296  1.3812 -1.3775 -0.3169
27720SOL     OW91937  12.281   8.373   4.816  0.3323  0.6542  0.1186
27720SOL    HW191938  12.333   8.333   4.746 -0.0806  0.1187  0.1083
27720SOL    HW291939  12.238   8.299   4.859 -1.5134  1.1541 -0.7413
27721SOL     OW91940   5.284   1.636   6.185 -0.2190 -0.0815  0.0390
27721SOL    HW191941   5.379   1.635   6.175 -0.1493 -0.1125  0.6481
27721SOL    HW291942   5.250   1.612   6.099  0.2621  1.8471 -0.7340
27722SOL     OW91943   2.102   9.592   0.113 -0.1131 -0.0537 -0.0518
27722SOL    HW191944   2.187   9.551   0.127  0.3527  1.1489  0.7717
27722SOL    HW291945   2.070   9.611   0.201 -1.0337 -0.0633 -0.3714
27723SOL     OW91946  12.458   1.303   4.406  0.3377  0.4058  0.0558
27723SOL    HW191947  12.366   1.303   4.433  0.3846 -0.9245  0.2632
27723SOL    HW291948  12.500   1.240   4.464  1.2679  0.5667 -0.4276
27724SOL     OW91949  11.306   7.557  10.378 -0.0002 -0.3686  0.5812
27724SOL    HW191950  11.292   7.590  10.467 -0.4868 -0.3710  0.5098
27724SOL    HW291951  11.371   7.488  10.388  1.3655  0.8911  0.6713
27725SOL     OW91952  11.844   5.097   7.168  0.4561  0.0575  0.8479
27725SOL    HW191953  11.838   5.191   7.180  0.7808  0.3274 -0.8021
27725SOL    HW291954  11.902   5.067   7.238 -0.0936  0.9841  1.7248
27726SOL     OW91955   0.696   5.387   9.430 -0.5116 -1.0031 -0.5002
27726SOL    HW191956   0.626   5.446   9.405 -0.0721 -0.5278 -0.6194
27726SOL    HW291957   0.665   5.345   9.511  0.2087  1.2427  1.0282
27727SOL     OW91958   2.335  10.711   5.348  0.5063  0.0140 -0.2851
27727SOL    HW191959   2.287  10.794   5.345 -0.2042 -0.3782 -0.1265
27727SOL    HW291960   2.272  10.649   5.384  0.9610 -0.6430 -0.6140
27728SOL     OW91961   2.283   4.316  11.521  0.2267  0.4578  0.0647
27728SOL    HW191962   2.359   4.274  11.561  1.0573  3.2601  1.6883
27728SOL    HW291963   2.221   4.329  11.592 -0.2185  1.4365 -0.4668
27729SOL     OW91964  12.477   6.242  11.014 -0.7206 -0.2784  0.4049
27729SOL    HW191965  12.557   6.206  10.977 -1.1614 -2.2295  1.2319
27729SOL    HW291966  12.464   6.324  10.967  2.0288  0.3771  0.6319
27730SOL     OW91967   7.298  12.162   4.888  0.5785 -0.4340 -0.2431
27730SOL    HW191968   7.223  12.103   4.895  1.2722 -1.1484  2.1016
27730SOL    HW291969   7.371  12.105   4.863  0.9685 -0.3588  0.6650
27731SOL     OW91970  12.278   7.355   6.590 -1.0908  0.6954 -0.0313
27731SOL    HW191971  12.195   7.310   6.603 -1.6086  1.2452 -1.2897
27731SOL    HW291972  12.337   7.316   6.655 -2.3597  0.4228  0.9825
27732SOL     OW91973   5.022   7.327   8.138  0.1690 -0.1830 -0.0281
27732SOL    HW191974   5.079   7.364   8.205  0.1595 -0.2087 -0.0055
27732SOL    HW291975   4.995   7.402   8.085  1.7429 -0.4167 -1.2089
27733SOL     OW91976   6.476   4.148   4.339 -0.0039  0.2396 -0.4399
27733SOL    HW191977   6.522   4.092   4.402  0.9747  2.4290  0.8915
27733SOL    HW291978   6.386   4.115   4.340  0.2222 -0.4390  1.3421
27734SOL     OW91979   1.935   1.293  11.053 -0.1705  0.1428 -0.4823
27734SOL    HW191980   1.858   1.237  11.047  1.0820 -1.9987  1.6926
27734SOL    HW291981   1.982   1.279  10.971 -0.7215 -0.7023 -0.6631
27735SOL     OW91982   8.043   4.055   3.073 -0.0076  0.2243 -0.4184
27735SOL    HW191983   8.124   4.017   3.107  0.5033  0.2801 -1.5354
27735SOL    HW291984   7.977   3.986   3.084  0.4122 -0.1769 -0.4200
27736SOL     OW91985   4.474   6.791  10.526 -0.6932 -0.1883  0.4309
27736SOL    HW191986   4.456   6.757  10.613  0.9367  1.6817  1.5637
27736SOL    HW291987   4.392   6.834  10.500 -1.1516 -0.6558  1.0675
27737SOL     OW91988   1.012   5.836   5.553  0.1876  0.2550  0.4155
27737SOL    HW191989   0.985   5.747   5.531 -1.3044  1.1343 -1.6360
27737SOL    HW291990   1.097   5.846   5.510  0.0059  0.0509 -0.0014
27738SOL     OW91991   6.207   9.063   1.511 -0.2461  0.2065  0.0183
27738SOL    HW191992   6.300   9.071   1.531 -0.1676 -0.7278  0.0656
27738SOL    HW291993   6.163   9.072   1.596 -0.0801 -1.1118  0.2589
27739SOL     OW91994   1.035  10.652   0.050 -0.5843 -0.2311 -0.0982
27739SOL    HW191995   1.023  10.736   0.006  0.6767  0.2197  0.3561
27739SOL    HW291996   0.958  10.642   0.106 -1.3077  0.0516 -1.0104
27740SOL     OW91997  12.328   4.795   1.972  0.8587  0.3341 -0.1080
27740SOL    HW191998  12.273   4.800   1.894  2.2450 -1.7310 -1.2898
27740SOL    HW291999  12.416   4.779   1.939  1.6929  0.6076  1.8501
27741SOL     OW92000   6.193   7.699   9.084  0.2099  0.2901 -0.0986
27741SOL    HW192001   6.241   7.727   9.162  1.9499 -1.5871 -0.4102
27741SOL    HW292002   6.120   7.648   9.119  1.1904 -0.8613  0.3453
27742SOL     OW92003   3.938   8.659   1.349 -0.3109  0.0447  0.1076
27742SOL    HW192004   3.872   8.616   1.294 -0.7427 -0.0548  0.6890
27742SOL    HW292005   4.022   8.633   1.311 -0.6066  0.1905 -0.6597
27743SOL     OW92006   2.987   3.058   0.091  0.1533 -0.5737  0.2309
27743SOL    HW192007   3.047   3.037   0.019 -0.2135  0.1949 -0.3213
27743SOL    HW292008   2.902   3.070   0.047 -0.5417 -2.1862  1.0568
27744SOL     OW92009   5.320   6.969   6.136 -0.2191  0.2998 -0.2459
27744SOL    HW192010   5.268   7.038   6.094 -0.6368  0.2578  0.1959
27744SOL    HW292011   5.281   6.959   6.223  0.8405  0.6124  0.2846
27745SOL     OW92012   9.335   2.677   4.581  0.6511  0.4664 -0.5249
27745SOL    HW192013   9.285   2.744   4.628 -0.2088  0.2142 -1.0668
27745SOL    HW292014   9.350   2.608   4.645 -0.1880  0.2929 -0.5108
27746SOL     OW92015  12.126   0.608  11.001 -0.3861 -0.6944 -0.6680
27746SOL    HW192016  12.030   0.610  10.995 -0.4187 -1.4890 -0.5332
27746SOL    HW292017  12.154   0.691  10.963 -1.2639  0.9298  1.9755
27747SOL     OW92018   6.850   0.451   8.033 -0.0943 -0.3127 -0.1108
27747SOL    HW192019   6.777   0.401   7.997  0.0847  0.5790 -1.8166
27747SOL    HW292020   6.843   0.537   7.991  0.0856  0.8463  2.1212
27748SOL     OW92021   7.858   8.374   1.205  0.1026  0.3125 -0.4618
27748SOL    HW192022   7.824   8.442   1.147  1.0419 -0.4977 -2.0333
27748SOL    HW292023   7.936   8.413   1.246  0.0697  0.5112 -0.5915
27749SOL     OW92024   8.143   7.580   4.871  0.4151 -0.0057 -0.2939
27749SOL    HW192025   8.059   7.581   4.916 -0.1965 -1.0605 -1.3620
27749SOL    HW292026   8.188   7.503   4.907  0.6849  0.2162 -0.1530
27750SOL     OW92027  11.786   1.044   9.480 -0.1282  0.4828  0.0637
27750SOL    HW192028  11.733   1.121   9.501 -1.2571 -0.2950  0.1614
27750SOL    HW292029  11.858   1.078   9.427 -0.7179  1.5753 -0.0626
27751SOL     OW92030   0.824  12.342   2.156 -0.1162  0.2237  0.0005
27751SOL    HW192031   0.751  12.404   2.147  0.5290  1.2423  1.3602
27751SOL    HW292032   0.900  12.398   2.173  1.0179 -0.8152 -1.3709
27752SOL     OW92033   8.086  12.117   1.044  0.2896 -0.0319 -0.5323
27752SOL    HW192034   8.017  12.080   1.099  1.7299 -1.7392  0.2004
27752SOL    HW292035   8.063  12.210   1.038 -0.2661  0.1430  2.4742
27753SOL     OW92036   4.887  12.212  12.576  0.0566 -0.7077 -0.2183
27753SOL    HW192037   4.900  12.263  12.497  1.0135  0.2585  0.5387
27753SOL    HW292038   4.822  12.262  12.626  1.3892  0.0876  0.7660
27754SOL     OW92039   5.455   3.657   2.073  0.5463 -0.8870 -0.3348
27754SOL    HW192040   5.453   3.629   2.165 -0.7549 -0.8181 -0.3219
27754SOL    HW292041   5.534   3.711   2.066  0.5695 -0.7461  0.7903
27755SOL     OW92042   5.264   0.661   8.890 -0.1090 -0.2718  0.3665
27755SOL    HW192043   5.312   0.667   8.807 -0.2768 -0.5071  0.2499
27755SOL    HW292044   5.319   0.706   8.953  0.5985 -1.1304  0.3868
27756SOL     OW92045   6.945   8.646   9.098  0.1167  0.0384  0.1441
27756SOL    HW192046   6.926   8.703   9.023  1.4109  1.1133  0.5938
27756SOL    HW292047   6.915   8.560   9.070 -2.5940  1.0143 -0.2872
27757SOL     OW92048   7.706  12.167   4.366  0.5500  0.1428  0.0512
27757SOL    HW192049   7.625  12.138   4.325  0.7501 -1.3205  0.6386
27757SOL    HW292050   7.765  12.188   4.293 -0.7030  2.4116 -0.4035
27758SOL     OW92051   5.683  12.119   5.017  0.1417  0.4742 -0.4083
27758SOL    HW192052   5.706  12.056   5.085 -1.1021  1.2378  0.7716
27758SOL    HW292053   5.700  12.073   4.935  1.6030 -0.5006  0.4005
27759SOL     OW92054   5.680   4.080   3.060 -0.4588  0.1256  0.1834
27759SOL    HW192055   5.669   4.168   3.096 -1.1179 -0.3177  1.1122
27759SOL    HW292056   5.623   4.025   3.113 -0.5907 -0.7584 -0.8379
27760SOL     OW92057  11.343   8.726   7.236 -0.3369  0.0885  0.1180
27760SOL    HW192058  11.387   8.641   7.226 -1.6320 -0.5535 -0.3902
27760SOL    HW292059  11.344   8.765   7.149  1.3167  1.1675  0.5897
27761SOL     OW92060   8.951   0.496   6.742  0.3301  0.0642  0.4694
27761SOL    HW192061   9.006   0.503   6.665 -0.7532 -0.6200 -0.4039
27761SOL    HW292062   9.005   0.448   6.806  1.3853  1.0095  0.3090
27762SOL     OW92063   3.946   2.388   0.094  0.5502  0.0224 -0.0445
27762SOL    HW192064   3.859   2.382   0.134  1.1256  0.4576  1.3456
27762SOL    HW292065   3.954   2.307   0.043  0.5709 -1.7040  2.4732
27763SOL     OW92066   3.249   5.817   8.666 -0.0919  0.1878  0.2681
27763SOL    HW192067   3.232   5.906   8.636  2.4991  0.2417 -1.3369
27763SOL    HW292068   3.214   5.761   8.596 -0.5172 -0.0260  0.6453
27764SOL     OW92069  10.651   9.705  10.847  0.0941 -0.4049  0.0903
27764SOL    HW192070  10.613   9.729  10.931  0.2477 -0.4393  0.1683
27764SOL    HW292071  10.738   9.672  10.868 -0.0580 -0.8927 -0.0328
27765SOL     OW92072   2.261   8.637   8.308  0.0836  0.1556  0.3316
27765SOL    HW192073   2.265   8.600   8.219  1.7318  1.1579 -0.0371
27765SOL    HW292074   2.290   8.727   8.298 -1.4244  0.8352  1.6350
27766SOL     OW92075  11.470   2.263   9.026  0.1699  0.2778  0.3250
27766SOL    HW192076  11.469   2.184   8.971  0.3815  1.7111 -1.8376
27766SOL    HW292077  11.539   2.246   9.089  0.5008 -1.1016 -0.3547
27767SOL     OW92078   0.916   7.451   1.279  0.2224 -0.4050 -0.2768
27767SOL    HW192079   0.855   7.432   1.351  1.2960  1.1498  1.1229
27767SOL    HW292080   0.859   7.478   1.206 -0.8625  3.5245  1.7393
27768SOL     OW92081   5.372   6.151  12.523 -0.5016  0.3493  0.1504
27768SOL    HW192082   5.451   6.136  12.574 -1.2449 -0.2619  1.1712
27768SOL    HW292083   5.398   6.136  12.433  0.3916 -0.5101  0.5329
27769SOL     OW92084   6.693   8.419   2.312 -0.4051  0.0580 -0.0864
27769SOL    HW192085   6.642   8.359   2.259 -1.2442  0.5811  0.1075
27769SOL    HW292086   6.630   8.458   2.372  0.1398  1.0243 -0.1174
27770SOL     OW92087  10.328  10.020   3.951 -0.4529 -0.0130 -0.7708
27770SOL    HW192088  10.410  10.012   4.000  0.0540 -0.4436 -1.6598
27770SOL    HW292089  10.328   9.945   3.893 -2.0263 -0.6340 -0.0217
27771SOL     OW92090   2.104   8.533  10.321  0.3098  0.2747 -0.3533
27771SOL    HW192091   2.100   8.459  10.261 -0.5604  0.2417 -0.2539
27771SOL    HW292092   2.187   8.576  10.299  0.5821 -0.4332 -0.7487
27772SOL     OW92093   7.716   6.695   1.189 -1.0378  0.0028  0.7350
27772SOL    HW192094   7.764   6.776   1.168  0.9567 -1.5540 -1.1832
27772SOL    HW292095   7.646   6.691   1.123  1.1742 -1.5779 -1.7121
27773SOL     OW92096   6.777   0.339   8.533 -0.0759 -0.2400  0.0621
27773SOL    HW192097   6.862   0.319   8.572 -0.0295  1.9896  1.3190
27773SOL    HW292098   6.786   0.312   8.441  2.0524  0.0635  0.1143
27774SOL     OW92099   8.227   3.900  10.067 -0.3550  0.3498  0.0478
27774SOL    HW192100   8.175   3.916   9.989 -1.2339  0.9912  0.7494
27774SOL    HW292101   8.299   3.962  10.061 -1.9903  2.4891  1.1396
27775SOL     OW92102   1.406   5.653   2.954  0.2325 -0.3487  0.1043
27775SOL    HW192103   1.360   5.708   2.891  1.5142 -1.4138 -1.8718
27775SOL    HW292104   1.339   5.594   2.988 -0.6820  0.9009  0.5546
27776SOL     OW92105  11.179   7.721   2.770  0.5832  0.1233 -0.5927
27776SOL    HW192106  11.270   7.710   2.742 -0.0356 -0.6705 -2.3951
27776SOL    HW292107  11.137   7.637   2.752 -0.2866  0.0984  1.2741
27777SOL     OW92108   7.530   5.628  11.115 -0.1614  0.1191  0.7746
27777SOL    HW192109   7.477   5.549  11.116 -2.4664  1.5844  0.7429
27777SOL    HW292110   7.470   5.698  11.090  1.7766  1.9127  0.7910
27778SOL     OW92111   9.011  11.986   0.851  0.4617 -0.1547  0.0815
27778SOL    HW192112   8.979  12.019   0.935  3.0796  3.3736 -0.1084
27778SOL    HW292113   8.933  11.952   0.808 -1.2607 -0.5636  3.2080
27779SOL     OW92114   8.555   6.256   7.964 -0.0381  0.5096  0.0277
27779SOL    HW192115   8.597   6.271   8.049  0.9399 -0.9542 -0.1628
27779SOL    HW292116   8.461   6.264   7.983  0.2233  2.0534  0.8384
27780SOL     OW92117   5.423   4.636   1.725  0.3018 -0.5446 -0.0800
27780SOL    HW192118   5.495   4.598   1.776  0.0753 -0.9809 -0.0814
27780SOL    HW292119   5.344   4.608   1.771  0.0325 -1.9903 -1.3509
27781SOL     OW92120  12.400   2.970   1.870 -0.2573 -0.6415  0.0516
27781SOL    HW192121  12.309   2.968   1.901 -1.5049  2.0959 -2.8606
27781SOL    HW292122  12.401   2.914   1.792 -0.1975  1.3070 -1.4152
27782SOL     OW92123   1.849   4.454  12.334  0.0520  0.1809 -0.6791
27782SOL    HW192124   1.862   4.543  12.366 -1.7904  0.7662 -1.4557
27782SOL    HW292125   1.792   4.413  12.399 -0.1022 -0.0424 -0.9546
27783SOL     OW92126   6.551   2.009  10.614  0.4207 -0.0794  0.4293
27783SOL    HW192127   6.633   2.025  10.568  0.2232 -1.0202 -0.2714
27783SOL    HW292128   6.483   2.025  10.549  0.1396 -1.5707  0.3164
27784SOL     OW92129   0.261   6.186   0.670  0.0108 -0.3738 -0.2126
27784SOL    HW192130   0.215   6.168   0.589  0.4594 -0.1997 -0.5109
27784SOL    HW292131   0.280   6.099   0.706  2.6602 -0.6238 -1.9233
27785SOL     OW92132  11.901   3.764   3.589 -0.0898 -0.0375 -0.0507
27785SOL    HW192133  11.948   3.681   3.589 -1.5330 -0.8726  0.0286
27785SOL    HW292134  11.818   3.745   3.545  0.0356  1.6537 -1.1264
27786SOL     OW92135   7.901  11.369   0.096  0.3913  0.0551 -0.1024
27786SOL    HW192136   7.957  11.327   0.031 -2.0543  0.0874 -2.4169
27786SOL    HW292137   7.944  11.453   0.114  2.6337 -1.1914  0.6162
27787SOL     OW92138   3.224  10.633   3.481  0.4196 -0.5054 -0.2001
27787SOL    HW192139   3.262  10.719   3.463 -2.2801  0.8969  0.2842
27787SOL    HW292140   3.149  10.626   3.422  0.8393 -2.7839 -0.5741
27788SOL     OW92141   3.082  10.674   0.078  0.5153  0.4120  0.1968
27788SOL    HW192142   3.139  10.742   0.114  0.1419 -0.4457  2.5690
27788SOL    HW292143   3.054  10.623   0.154 -0.1798 -1.6750 -1.3564
27789SOL     OW92144   5.937   7.436   3.506  0.5380 -0.1802 -0.0914
27789SOL    HW192145   5.912   7.480   3.425  1.3003 -0.3760 -0.4480
27789SOL    HW292146   5.979   7.355   3.477  0.5486 -0.3971  0.5108
27790SOL     OW92147   6.446   5.044   4.046 -0.3903  0.0881  0.2612
27790SOL    HW192148   6.506   5.058   4.119  3.0888 -1.0623 -2.1109
27790SOL    HW292149   6.411   4.956   4.061  0.5170 -0.2536  0.4614
27791SOL     OW92150   5.119  11.366   8.517  0.4279  0.7081  0.0008
27791SOL    HW192151   5.044  11.383   8.574 -0.8915  0.7178 -1.6379
27791SOL    HW292152   5.093  11.403   8.432  1.6774 -0.6047 -1.0057
27792SOL     OW92153   9.838  11.526   6.242 -0.1801 -0.4076  0.0270
27792SOL    HW192154   9.844  11.445   6.293  0.9736 -1.4829 -1.6956
27792SOL    HW292155   9.791  11.587   6.298 -0.1566 -1.9469  1.7988
27793SOL     OW92156  11.705   0.986   9.810 -0.3939  0.5141 -0.3659
27793SOL    HW192157  11.793   1.006   9.842 -0.5370 -0.2420  0.5772
27793SOL    HW292158  11.713   0.897   9.774 -0.5694  0.7976 -1.1149
27794SOL     OW92159  12.026  10.953  11.700  0.4143 -0.3900 -0.3388
27794SOL    HW192160  12.004  11.046  11.699  0.8138 -0.2837 -2.2507
27794SOL    HW292161  12.070  10.940  11.784  1.4109  1.4114 -0.5299
27795SOL     OW92162   8.307   0.623  10.142 -0.4596 -0.0978  0.0324
27795SOL    HW192163   8.388   0.649  10.097 -1.7104  3.8090 -0.3228
27795SOL    HW292164   8.302   0.529  10.128  3.8807 -0.5259 -0.0787
27796SOL     OW92165   0.586   4.188  11.338 -0.1251 -0.0760  0.5729
27796SOL    HW192166   0.547   4.108  11.373 -0.4282  0.3031  1.1307
27796SOL    HW292167   0.511   4.244  11.317  0.0788 -0.0279 -0.0365
27797SOL     OW92168   5.638   1.762   3.302 -0.4325  0.2361 -0.3264
27797SOL    HW192169   5.600   1.721   3.379  0.4952  1.7696  1.0276
27797SOL    HW292170   5.730   1.777   3.327 -0.1222  0.7639 -1.7322
27798SOL     OW92171   1.744   0.524   9.536  0.1313 -0.2803  0.0625
27798SOL    HW192172   1.803   0.543   9.464 -0.5992 -0.4676 -0.5994
27798SOL    HW292173   1.788   0.560   9.613 -0.7574  3.4408 -0.9442
27799SOL     OW92174   5.145   3.956   6.545  0.3631  0.5311  0.1912
27799SOL    HW192175   5.182   3.880   6.500  0.6390  1.4821 -1.2625
27799SOL    HW292176   5.221   4.005   6.576  0.2288  0.8125  0.0839
27800SOL     OW92177   0.563   8.705   9.556 -0.1461  0.4170  0.1435
27800SOL    HW192178   0.571   8.641   9.485  0.7538 -1.7662  2.0799
27800SOL    HW292179   0.654   8.725   9.580 -0.4377  0.9394  0.8460
27801SOL     OW92180   0.859   5.539  10.043  0.2395 -0.2688 -0.1928
27801SOL    HW192181   0.791   5.516  10.107  2.0731 -0.5040  1.7956
27801SOL    HW292182   0.816   5.531   9.958 -2.8624  1.8335  1.0065
27802SOL     OW92183  10.538   0.704   3.645 -0.2129 -0.0509 -0.0344
27802SOL    HW192184  10.577   0.627   3.602 -0.8262 -0.1060 -0.5103
27802SOL    HW292185  10.444   0.687   3.644 -0.5262  1.4059 -1.6184
27803SOL     OW92186   8.367  10.745  11.291 -0.1598  0.0172  0.0765
27803SOL    HW192187   8.321  10.823  11.322 -1.1330 -0.7102  0.4939
27803SOL    HW292188   8.429  10.724  11.360  0.8534  1.0019 -0.4886
27804SOL     OW92189   6.928   4.963   4.421  0.3011  0.2280  0.2576
27804SOL    HW192190   6.954   4.898   4.356  0.2197  0.4027  0.0468
27804SOL    HW292191   6.992   4.954   4.492 -1.1886 -1.8719  1.4499
27805SOL     OW92192  11.498   6.486   8.232 -0.2763  0.3593 -0.1229
27805SOL    HW192193  11.546   6.446   8.160  0.1034  0.3050  0.1573
27805SOL    HW292194  11.418   6.520   8.191 -0.3635 -0.2242 -0.4528
27806SOL     OW92195   7.799   7.015   3.277 -0.2026  0.1786  0.3210
27806SOL    HW192196   7.887   7.004   3.241  1.5744  2.3124  3.5280
27806SOL    HW292197   7.757   7.080   3.221  0.8244  0.2828 -0.3354
27807SOL     OW92198   2.025   8.565   0.945  0.6281  0.1573 -0.0398
27807SOL    HW192199   1.982   8.489   0.905 -0.1842 -0.1094  1.2794
27807SOL    HW292200   1.988   8.640   0.898 -2.8844  0.1018  2.2591
27808SOL     OW92201   2.275   1.697   2.159  0.6406 -0.0243 -0.6020
27808SOL    HW192202   2.230   1.781   2.171 -0.9181 -0.8350 -0.3978
27808SOL    HW292203   2.326   1.708   2.079  0.1286  0.9873 -0.8016
27809SOL     OW92204   6.490   5.887  12.480  0.0374 -0.3931 -0.2094
27809SOL    HW192205   6.557   5.825  12.510 -0.7397 -1.7495 -1.1802
27809SOL    HW292206   6.445   5.842  12.409 -0.9876  1.0513 -0.5308
27810SOL     OW92207   0.619   0.273  10.876 -0.0848 -0.4082  0.2832
27810SOL    HW192208   0.606   0.300  10.966  0.3759 -1.3869  0.6655
27810SOL    HW292209   0.686   0.333  10.842 -1.5745  1.1540 -0.0150
27811SOL     OW92210   9.004   7.750   2.256  0.6551  1.0970  0.1967
27811SOL    HW192211   8.983   7.663   2.291 -0.5463 -0.0955 -3.0681
27811SOL    HW292212   9.091   7.740   2.218 -0.4674  0.4065 -2.4317
27812SOL     OW92213  12.099   0.422   7.513 -0.2138 -0.0234  0.5143
27812SOL    HW192214  12.096   0.363   7.588 -0.9855  0.3355  0.7772
27812SOL    HW292215  12.139   0.370   7.443  1.2719 -0.1112  1.3779
27813SOL     OW92216   1.206   2.420   8.411 -0.0322  0.0068  0.3095
27813SOL    HW192217   1.225   2.506   8.448  0.7857 -0.2743  0.5532
27813SOL    HW292218   1.118   2.429   8.375 -0.9606  0.2470  2.4822
27814SOL     OW92219   0.793   9.265   0.169 -0.0461  0.2366 -0.3320
27814SOL    HW192220   0.730   9.259   0.097  1.7402  0.9607 -2.0783
27814SOL    HW292221   0.862   9.203   0.144 -0.0419 -0.5499  1.5195
27815SOL     OW92222   0.229   5.061   9.954  0.0519  0.4496 -0.2565
27815SOL    HW192223   0.154   5.106   9.991  0.3810  0.3467  0.5740
27815SOL    HW292224   0.305   5.114   9.979  0.4949 -0.7546  1.1627
27816SOL     OW92225   1.782   4.985   4.429  0.5588 -0.3427 -0.1440
27816SOL    HW192226   1.874   5.006   4.446  0.4921  0.2107 -0.4527
27816SOL    HW292227   1.779   4.967   4.335  0.3678 -0.4600 -0.1155
27817SOL     OW92228   1.305   8.497   1.535  0.0773 -0.3844  0.3687
27817SOL    HW192229   1.231   8.464   1.484  0.3557  0.6803 -0.7892
27817SOL    HW292230   1.266   8.555   1.600 -0.1840 -0.6503  0.4508
27818SOL     OW92231   4.422  11.037   9.794 -0.6145 -0.1588 -0.3285
27818SOL    HW192232   4.466  10.960   9.760  0.2780  0.2879 -0.2129
27818SOL    HW292233   4.493  11.097   9.819 -1.2819  0.8487 -0.7554
27819SOL     OW92234   0.888   3.615   0.903 -0.4135 -0.3258 -0.2802
27819SOL    HW192235   0.863   3.631   0.812  1.1418 -0.3874 -0.7355
27819SOL    HW292236   0.946   3.539   0.899 -1.3907 -1.1825  0.9416
27820SOL     OW92237   8.795   8.555   3.424 -1.2610  0.1217 -0.1137
27820SOL    HW192238   8.794   8.513   3.338 -1.1168  0.0013 -0.0569
27820SOL    HW292239   8.722   8.617   3.422 -2.1308 -0.8685  0.1784
27821SOL     OW92240   3.637   3.700   8.964  0.4945 -0.2980  0.4370
27821SOL    HW192241   3.585   3.767   9.007 -0.3049 -0.5108 -0.1779
27821SOL    HW292242   3.578   3.662   8.899  0.6218 -2.2509  1.4031
27822SOL     OW92243   0.668   1.535   5.970 -0.5259 -0.1874  0.0300
27822SOL    HW192244   0.636   1.517   5.881 -0.4577 -1.4602  0.2417
27822SOL    HW292245   0.641   1.458   6.020  0.1155  0.1703  0.9347
27823SOL     OW92246   7.098   0.807   4.739 -0.7943  0.2754  0.3338
27823SOL    HW192247   7.073   0.717   4.763 -1.4542 -0.1187 -1.6635
27823SOL    HW292248   7.018   0.845   4.703  0.0691  0.8630 -1.0365
27824SOL     OW92249   3.909   3.965   7.377  0.0591  0.2040  0.3032
27824SOL    HW192250   3.823   3.985   7.414 -0.9455 -2.7187 -0.2270
27824SOL    HW292251   3.912   4.016   7.296 -1.0056  0.6796  0.5409
27825SOL     OW92252   2.132   1.476   2.371 -0.8672  0.3610  0.0683
27825SOL    HW192253   2.136   1.571   2.356 -0.8125  0.3316 -0.1108
27825SOL    HW292254   2.096   1.441   2.290  1.5428 -0.0256 -0.9345
27826SOL     OW92255   1.238   3.121   4.815  0.0012 -1.1228 -0.4095
27826SOL    HW192256   1.219   3.104   4.723  2.0495  0.8167 -1.3116
27826SOL    HW292257   1.184   3.197   4.836  2.3599  0.9873 -1.3549
27827SOL     OW92258   5.734  11.510   3.009  0.1443  0.2556 -0.4917
27827SOL    HW192259   5.754  11.529   3.100  0.1559 -0.6200 -0.3032
27827SOL    HW292260   5.807  11.548   2.960  1.8532 -2.0088  0.1054
27828SOL     OW92261   3.339  10.941   2.490 -0.0883  0.3320 -0.2552
27828SOL    HW192262   3.336  10.851   2.456 -0.8074  0.8804 -1.7257
27828SOL    HW292263   3.389  10.989   2.424 -0.6825  1.2405 -0.0532
27829SOL     OW92264   1.669   3.364   6.508  0.1219  0.3345 -0.5173
27829SOL    HW192265   1.740   3.300   6.505 -1.0997 -1.1515  0.4063
27829SOL    HW292266   1.612   3.332   6.578 -1.7876  1.1039 -1.6502
27830SOL     OW92267   3.676  10.176   4.715  0.3428 -0.1132 -0.1508
27830SOL    HW192268   3.665  10.229   4.794  0.9554  0.2989 -0.3355
27830SOL    HW292269   3.729  10.101   4.744  1.7113  0.7164 -0.4443
27831SOL     OW92270   6.459   6.892   7.773 -0.1152  0.0177 -0.4003
27831SOL    HW192271   6.439   6.976   7.815 -1.0770  0.2757 -1.3216
27831SOL    HW292272   6.376   6.862   7.738  0.0606 -1.7291  0.5595
27832SOL     OW92273   6.060   1.071   0.303 -0.7166  0.3702  0.0144
27832SOL    HW192274   6.110   0.998   0.339 -0.3339  0.7574  0.2713
27832SOL    HW292275   6.107   1.096   0.224  0.0043  1.2915  0.7081
27833SOL     OW92276   1.498   1.785   9.954 -0.0359 -0.3196  0.0108
27833SOL    HW192277   1.514   1.709   9.898 -0.7120 -0.2188 -0.3297
27833SOL    HW292278   1.416   1.765   9.999 -0.3693  0.3217 -0.2943
27834SOL     OW92279   2.045   1.401   0.376  0.1704 -0.3896 -0.9160
27834SOL    HW192280   1.984   1.466   0.341  0.9561  0.5177 -0.6407
27834SOL    HW292281   2.050   1.420   0.469  0.5425 -0.7375 -0.8641
27835SOL     OW92282   3.909   8.173  10.457 -0.5623  0.2628 -0.9800
27835SOL    HW192283   3.898   8.208  10.369  0.9022  2.5167 -0.3435
27835SOL    HW292284   3.993   8.127  10.454  1.8515  4.1446  0.1917
27836SOL     OW92285   6.300   3.256   9.339 -0.1450 -0.3355 -0.1847
27836SOL    HW192286   6.222   3.311   9.347 -1.0299 -1.4669 -0.7018
27836SOL    HW292287   6.372   3.311   9.371 -0.5708  2.0339 -2.8465
27837SOL     OW92288   1.921   9.908   6.678 -0.7291 -0.5649  0.1184
27837SOL    HW192289   1.894   9.993   6.644 -0.0948 -0.7059 -0.7560
27837SOL    HW292290   1.897   9.911   6.771 -0.4863  0.6702  0.1567
27838SOL     OW92291   6.294   9.397   8.194  0.0357 -0.2034  0.1632
27838SOL    HW192292   6.293   9.467   8.129  1.4142  0.8035  1.1528
27838SOL    HW292293   6.359   9.334   8.161 -0.5807 -0.6047 -0.3043
27839SOL     OW92294   4.982   0.651   0.882  0.3216 -0.0209 -0.4069
27839SOL    HW192295   5.051   0.674   0.945  1.3143  1.0456 -1.8141
27839SOL    HW292296   5.015   0.682   0.798 -1.9974  0.7448 -1.1178
27840SOL     OW92297   9.550   5.590   0.344  0.0326  0.2422  0.1004
27840SOL    HW192298   9.463   5.552   0.332 -0.4509  1.1072  0.7207
27840SOL    HW292299   9.547   5.627   0.433  0.1470  2.4934 -0.7702
27841SOL     OW92300  10.791   9.611   8.282 -0.1631 -0.4771 -0.5657
27841SOL    HW192301  10.806   9.694   8.328 -0.1541 -0.6332 -0.2868
27841SOL    HW292302  10.801   9.544   8.349  1.4782 -0.8188 -1.0943
27842SOL     OW92303   2.019  11.914   2.216  0.4574  0.5737 -0.1012
27842SOL    HW192304   1.947  11.942   2.159  0.3741  0.6269  0.0298
27842SOL    HW292305   2.000  11.954   2.301 -2.0589 -3.3146  1.4331
27843SOL     OW92306   1.005  11.252   1.469 -0.0479  0.1383  0.1503
27843SOL    HW192307   0.995  11.176   1.527  2.0619 -0.6439 -0.4191
27843SOL    HW292308   1.004  11.327   1.528 -0.1513 -0.4799  0.9576
27844SOL     OW92309   6.519  10.376   7.933  0.1380  0.6781  0.1748
27844SOL    HW192310   6.502  10.320   8.009 -0.0887  0.4873 -0.0153
27844SOL    HW292311   6.612  10.363   7.914  0.0100  0.1108 -0.0723
27845SOL     OW92312   9.246   3.501   3.748  0.4027 -0.0494 -0.2639
27845SOL    HW192313   9.219   3.445   3.675 -0.1861 -0.2203  0.0763
27845SOL    HW292314   9.228   3.448   3.826  0.2256  0.4542  0.0397
27846SOL     OW92315  12.347   5.985   5.662 -0.6235  0.3978 -0.2080
27846SOL    HW192316  12.414   5.936   5.615 -0.4165  0.6513 -0.1841
27846SOL    HW292317  12.391   6.067   5.687 -0.7829  0.3405  0.2697
27847SOL     OW92318   8.863   0.325  10.377 -0.6919 -0.2027 -0.1527
27847SOL    HW192319   8.797   0.371  10.429  0.1042  1.1309 -0.2833
27847SOL    HW292320   8.913   0.395  10.334 -0.2897 -1.2289 -1.4188
27848SOL     OW92321   0.939   8.769  11.533 -0.3036  0.1877  0.1263
27848SOL    HW192322   0.961   8.684  11.570 -0.4433  0.2398  0.3299
27848SOL    HW292323   1.008   8.828  11.564 -0.4492  0.2423  0.3462
27849SOL     OW92324   9.396   9.972   0.947  0.2601  0.0661  0.4526
27849SOL    HW192325   9.418   9.960   0.855  0.2370 -2.5366  0.7314
27849SOL    HW292326   9.354  10.058   0.950  0.7479  0.4477 -1.8514
27850SOL     OW92327   1.629   0.255   2.783 -0.3190 -0.3040  0.6018
27850SOL    HW192328   1.659   0.275   2.695 -0.0982 -1.0782  0.4914
27850SOL    HW292329   1.603   0.163   2.779  2.8352 -1.4132  2.1431
27851SOL     OW92330   4.209   1.642   4.816 -0.1181  0.4718 -0.2667
27851SOL    HW192331   4.270   1.665   4.746 -0.2984  0.5908 -0.3841
27851SOL    HW292332   4.202   1.547   4.812 -0.8595  0.5468 -1.0254
27852SOL     OW92333   6.671   3.407   1.075 -0.6744  0.5826 -0.3561
27852SOL    HW192334   6.753   3.455   1.058  0.4509 -0.8586  0.7218
27852SOL    HW292335   6.651   3.426   1.166 -0.0836 -1.1223  0.1552
27853SOL     OW92336   5.785   4.550   2.996 -0.5843  0.0119 -0.1586
27853SOL    HW192337   5.792   4.625   2.937 -2.0265  0.4920  0.2453
27853SOL    HW292338   5.691   4.541   3.013 -0.2846 -0.7176  1.2914
27854SOL     OW92339  11.310   5.171   6.677 -0.2764 -0.6037  0.4443
27854SOL    HW192340  11.322   5.076   6.674  1.0586 -0.4139 -0.7949
27854SOL    HW292341  11.390   5.204   6.717  0.0473  0.1120 -0.7469
27855SOL     OW92342   1.026   8.366   1.592  0.1549  0.0413  0.4522
27855SOL    HW192343   0.935   8.352   1.565 -0.1218  1.9067  0.2853
27855SOL    HW292344   1.071   8.393   1.512  0.6569 -0.0550  0.6999
27856SOL     OW92345   3.343   8.473   9.678 -0.0144 -0.7389  0.1463
27856SOL    HW192346   3.293   8.525   9.616 -0.4910  1.7695  2.4311
27856SOL    HW292347   3.282   8.406   9.709 -0.1545 -1.1995 -1.0872
27857SOL     OW92348   3.158   1.202   5.963  0.0401 -0.4888 -0.6529
27857SOL    HW192349   3.195   1.144   5.897  0.0591 -0.6869 -0.4686
27857SOL    HW292350   3.205   1.284   5.951 -1.9013  0.4303 -2.7968
27858SOL     OW92351   4.502   7.673   1.544  0.0561 -0.8457  0.3515
27858SOL    HW192352   4.527   7.630   1.463  0.3576 -0.8645  0.4506
27858SOL    HW292353   4.410   7.697   1.532  0.6491  1.0280 -0.8211
27859SOL     OW92354   1.697   7.601   5.748 -0.1793  0.3019 -0.0060
27859SOL    HW192355   1.739   7.617   5.832  0.3589  0.7036 -0.3465
27859SOL    HW292356   1.642   7.678   5.733 -1.7453 -0.6093  0.8461
27860SOL     OW92357   7.679  10.747   3.734  0.1769 -0.4046  0.1800
27860SOL    HW192358   7.741  10.819   3.747  1.5274 -1.2129 -1.4293
27860SOL    HW292359   7.661  10.714   3.822 -0.4460  1.8383  0.9445
27861SOL     OW92360  12.397   9.417   1.952  0.0000 -0.1510 -0.1477
27861SOL    HW192361  12.430   9.487   1.897 -0.6285  0.3971  0.1628
27861SOL    HW292362  12.329   9.375   1.899 -0.9468  0.6857  0.3726
27862SOL     OW92363   2.384   8.833  10.724  0.7165  0.4619 -0.2549
27862SOL    HW192364   2.441   8.886  10.668  1.3670  0.4546  0.3829
27862SOL    HW292365   2.323   8.790  10.663 -0.7572  2.9974 -0.6872
27863SOL     OW92366   7.725   2.783  10.119 -0.3068  0.2946 -0.5957
27863SOL    HW192367   7.806   2.732  10.126  0.3670  1.4421  0.6849
27863SOL    HW292368   7.749   2.869  10.152 -1.7010  1.1098 -1.6085
27864SOL     OW92369  10.206   9.087   8.037 -0.9517  0.3361  0.3080
27864SOL    HW192370  10.121   9.052   8.007 -1.1286 -1.2283  2.4331
27864SOL    HW292371  10.246   9.014   8.084  1.3973  1.2133 -0.2296
27865SOL     OW92372   9.263   0.265   1.009 -0.4111 -0.6946 -0.6261
27865SOL    HW192373   9.174   0.292   0.988  0.1384  0.9872 -0.9844
27865SOL    HW292374   9.287   0.320   1.084  0.7025 -0.2924 -1.2559
27866SOL     OW92375   9.482   5.542   1.930  0.5438  0.6219 -0.3439
27866SOL    HW192376   9.546   5.493   1.981  0.7823  0.9908 -0.2877
27866SOL    HW292377   9.469   5.623   1.978  0.0415  0.5578 -0.3622
27867SOL     OW92378   1.489   4.739   3.119  0.7403 -0.3697  0.3154
27867SOL    HW192379   1.492   4.696   3.204 -2.7173  0.0174  0.7590
27867SOL    HW292380   1.484   4.832   3.138 -1.8465 -0.3506 -0.1320
27868SOL     OW92381  11.345   8.244  11.323 -0.4505 -0.3915 -0.2969
27868SOL    HW192382  11.309   8.223  11.237 -2.2674 -0.2783  0.3858
27868SOL    HW292383  11.436   8.268  11.306 -1.1219  0.9854 -2.3890
27869SOL     OW92384   7.613  12.181   1.989 -0.1250 -0.1483  0.0341
27869SOL    HW192385   7.670  12.143   1.922  1.7349 -1.1856  2.0992
27869SOL    HW292386   7.646  12.146   2.072 -2.5080  0.8668  1.5070
27870SOL     OW92387   7.936   3.750   2.264 -0.0035 -0.3772 -0.3169
27870SOL    HW192388   7.940   3.781   2.173 -0.0060 -0.9471 -0.5116
27870SOL    HW292389   7.857   3.696   2.268  0.7148 -1.4549 -0.3289
27871SOL     OW92390  10.077   6.692   6.756  0.4472  0.1884 -0.1851
27871SOL    HW192391  10.160   6.646   6.742 -0.2473 -0.8128 -1.1530
27871SOL    HW292392  10.103   6.780   6.783  1.8623  0.3309 -1.8355
27872SOL     OW92393   3.343   9.092   4.210  0.7178  0.2079 -0.4958
27872SOL    HW192394   3.275   9.078   4.144 -0.2564  1.9972  0.0522
27872SOL    HW292395   3.332   9.018   4.271 -0.6888  0.3989 -0.4769
27873SOL     OW92396   7.823   9.276   5.807 -0.0567 -0.1958  0.1117
27873SOL    HW192397   7.828   9.303   5.716 -0.8281 -0.1708  0.0677
27873SOL    HW292398   7.762   9.339   5.847  1.6767  0.9389  1.0734
27874SOL     OW92399  12.325   0.448   0.424  0.4333 -0.2054  0.5543
27874SOL    HW192400  12.375   0.409   0.352 -0.0659  2.9762 -1.7265
27874SOL    HW292401  12.389   0.502   0.470 -0.0568  0.9566 -0.0837
27875SOL     OW92402   4.353   3.521   7.877 -0.3034 -0.3839  0.3901
27875SOL    HW192403   4.364   3.434   7.839 -1.5591 -0.2050 -0.4638
27875SOL    HW292404   4.290   3.508   7.948 -0.0117 -0.2661  0.6729
27876SOL     OW92405  11.377   8.954   3.647 -0.1556  0.0990  0.5046
27876SOL    HW192406  11.329   8.895   3.589  2.0095  0.5866 -1.9792
27876SOL    HW292407  11.330   9.037   3.640  0.1244  0.1756 -0.6787
27877SOL     OW92408   2.533   3.966   0.840 -0.7265 -0.0508 -0.1219
27877SOL    HW192409   2.512   4.002   0.926 -0.4037  0.4359 -0.2417
27877SOL    HW292410   2.577   3.882   0.859 -1.6440 -0.4819  0.1536
27878SOL     OW92411   5.124   3.341   7.352 -0.6950 -0.1692 -0.6688
27878SOL    HW192412   5.065   3.281   7.399 -1.3304 -0.3014 -1.5995
27878SOL    HW292413   5.066   3.409   7.318  0.2165  2.1395  1.9898
27879SOL     OW92414   5.338   6.944   5.499 -0.2419  0.5391  0.1528
27879SOL    HW192415   5.375   7.001   5.566  0.4638 -0.0249  0.2490
27879SOL    HW292416   5.349   6.856   5.532  0.0147  0.2566 -0.6550
27880SOL     OW92417   1.883   1.311   4.444  0.5275  0.1329 -0.1437
27880SOL    HW192418   1.860   1.391   4.397  2.0487  0.0997 -0.9960
27880SOL    HW292419   1.955   1.273   4.395 -0.8615 -2.4058 -0.4482
27881SOL     OW92420  12.549   4.362   1.273 -0.3138  0.4346  0.1829
27881SOL    HW192421  12.514   4.335   1.358  1.1453  1.6314  1.2100
27881SOL    HW292422  12.474   4.402   1.228 -0.8037  0.9717  1.4360
27882SOL     OW92423   6.033   0.839   3.894  0.5343 -0.0474 -0.1302
27882SOL    HW192424   5.967   0.872   3.956  1.8179  0.8945  0.7802
27882SOL    HW292425   6.031   0.902   3.821 -1.0205 -1.1907 -1.1388
27883SOL     OW92426   5.211   8.791   5.710  0.0376 -0.5048 -0.1575
27883SOL    HW192427   5.194   8.728   5.640 -0.2056 -0.9653  0.3098
27883SOL    HW292428   5.292   8.760   5.751 -0.7623 -1.2737  0.8977
27884SOL     OW92429   2.866   6.467  11.436  0.4514 -0.3843  1.0093
27884SOL    HW192430   2.901   6.379  11.436 -0.6370 -0.8580  2.0933
27884SOL    HW292431   2.864   6.493  11.344  0.1983 -1.7328  0.6174
27885SOL     OW92432   2.030   3.824   9.601  0.4545  0.3219 -0.0759
27885SOL    HW192433   1.988   3.738   9.594 -0.7755  0.9396 -0.7387
27885SOL    HW292434   2.012   3.853   9.691 -1.5559  1.0170 -0.6287
27886SOL     OW92435  11.906   4.405   4.547  0.3353 -0.6267  0.0298
27886SOL    HW192436  11.849   4.418   4.622  2.3293  1.8791  1.2925
27886SOL    HW292437  11.975   4.347   4.579  1.6573  1.1268  0.5185
27887SOL     OW92438   5.280   8.002   7.236 -0.0123  0.0359  0.4107
27887SOL    HW192439   5.280   8.086   7.189  0.3293 -0.0762  0.2045
27887SOL    HW292440   5.247   7.939   7.172 -2.9244  0.4250  1.3655
27888SOL     OW92441   3.196   2.149   7.504  0.0367  0.0664  0.2953
27888SOL    HW192442   3.254   2.224   7.492 -1.3494  1.4284  1.5826
27888SOL    HW292443   3.119   2.168   7.450 -0.5138 -0.1879  0.9585
27889SOL     OW92444   2.283  11.038   9.105  0.3999  0.3947 -0.1465
27889SOL    HW192445   2.368  11.050   9.148  0.8625  0.6346 -1.0995
27889SOL    HW292446   2.257  11.126   9.080  0.7130  0.1425 -1.4158
27890SOL     OW92447   3.633   7.030  11.657  0.3690 -0.0334 -0.0030
27890SOL    HW192448   3.574   7.059  11.587 -2.3471 -0.6499  1.8465
27890SOL    HW292449   3.706   6.989  11.612  0.6046  2.8107 -2.5065
27891SOL     OW92450  11.645   7.459   0.161  0.1641  0.8543  0.5222
27891SOL    HW192451  11.550   7.456   0.152  0.1229  0.5490  1.0415
27891SOL    HW292452  11.678   7.444   0.073 -0.2401 -1.8598  0.7728
27892SOL     OW92453   1.187   5.630   7.865 -0.5362 -0.0665 -0.4287
27892SOL    HW192454   1.152   5.680   7.938  0.4944  0.2758 -0.1533
27892SOL    HW292455   1.110   5.590   7.824 -1.1971  0.3475  0.3810
27893SOL     OW92456   1.732   2.218   8.327 -0.3309  0.1451 -0.2808
27893SOL    HW192457   1.734   2.231   8.422 -1.8958 -0.5207 -0.1152
27893SOL    HW292458   1.659   2.158   8.313  0.0928 -0.0485 -1.8887
27894SOL     OW92459   5.609   2.178   9.659  0.2426 -0.2835 -0.6417
27894SOL    HW192460   5.562   2.213   9.735  2.0091  0.0477  0.3485
27894SOL    HW292461   5.679   2.126   9.696  0.8661 -0.5074 -2.0722
27895SOL     OW92462   3.347   9.177  12.400  0.2712 -0.8115  0.5747
27895SOL    HW192463   3.433   9.174  12.441  1.5422  1.9715 -1.5195
27895SOL    HW292464   3.358   9.132  12.316  0.1026  0.6130 -0.2504
27896SOL     OW92465   3.585   0.304   8.322  0.1219  0.7819 -0.5753
27896SOL    HW192466   3.656   0.278   8.263 -0.3776  2.2417 -1.8931
27896SOL    HW292467   3.604   0.259   8.404  2.0558  0.4118 -1.1755
27897SOL     OW92468  11.915   9.783   8.767 -0.1190  0.6785  0.0739
27897SOL    HW192469  11.917   9.831   8.849 -1.6382  1.7606 -0.4874
27897SOL    HW292470  11.979   9.828   8.711  1.7176 -0.7132  0.9471
27898SOL     OW92471   0.591   4.219   0.843 -0.2771  0.3267  0.2817
27898SOL    HW192472   0.622   4.220   0.934 -0.0826 -0.3183  0.2272
27898SOL    HW292473   0.602   4.309   0.813 -1.5871  0.8869  1.3184
27899SOL     OW92474   7.963  11.130  10.616  0.1341  0.1637 -0.9533
27899SOL    HW192475   7.948  11.164  10.528 -0.2687  2.0851 -0.1870
27899SOL    HW292476   7.913  11.189  10.673 -1.4178 -2.2906  0.4234
27900SOL     OW92477   7.955   2.142   1.951 -0.7877 -0.3462 -0.0542
27900SOL    HW192478   7.934   2.068   2.008 -0.4677  0.7831  1.5789
27900SOL    HW292479   7.919   2.218   1.996  0.4243  0.7167 -0.8253
27901SOL     OW92480   9.032   3.860   8.769  0.1260 -0.3511 -0.5743
27901SOL    HW192481   9.062   3.924   8.834 -1.5293 -1.9092  1.9197
27901SOL    HW292482   9.098   3.863   8.700  2.2445  1.1590  1.3496
27902SOL     OW92483   9.413  10.289   4.208  0.1641 -0.2749 -0.3475
27902SOL    HW192484   9.338  10.343   4.182 -0.3428 -0.9315 -0.2745
27902SOL    HW292485   9.385  10.248   4.291  1.3336  0.9556  0.6992
27903SOL     OW92486   9.341  12.062  11.951  0.3403  0.1529  0.5136
27903SOL    HW192487   9.381  12.144  11.923  0.0935  0.4596  1.0520
27903SOL    HW292488   9.410  11.997  11.940  0.0538  0.1046 -1.5093
27904SOL     OW92489  10.526   3.297   7.485 -0.2592  0.7288 -0.5322
27904SOL    HW192490  10.445   3.282   7.534 -0.5313  1.8682 -0.5905
27904SOL    HW292491  10.584   3.339   7.549  0.0697  0.4508 -0.6529
27905SOL     OW92492  12.143  11.542   1.487 -0.2194  0.3273 -0.0402
27905SOL    HW192493  12.187  11.591   1.557  0.0910 -0.0540  0.0291
27905SOL    HW292494  12.057  11.584   1.480 -0.2159  0.4373  0.5019
27906SOL     OW92495   5.473   5.390   6.940 -0.6058  0.1326 -0.1019
27906SOL    HW192496   5.558   5.415   6.977 -1.0614  0.0575  1.0237
27906SOL    HW292497   5.484   5.297   6.917 -0.3220  0.1726 -0.1355
27907SOL     OW92498   7.380   1.490   0.831  0.6371 -0.0274  0.1530
27907SOL    HW192499   7.311   1.536   0.783  0.4911 -0.4166 -0.0138
27907SOL    HW292500   7.461   1.527   0.797  0.7484 -2.8819 -3.2381
27908SOL     OW92501   9.326   1.306   2.411  0.3030  0.0007  0.2545
27908SOL    HW192502   9.287   1.243   2.471  0.4979 -0.7574 -0.4017
27908SOL    HW292503   9.400   1.343   2.459  1.4324 -1.7588 -0.0725
27909SOL     OW92504   5.129   5.758   3.797 -0.0476  0.6715 -0.1761
27909SOL    HW192505   5.046   5.796   3.824 -0.1105 -0.1247  0.8087
27909SOL    HW292506   5.182   5.758   3.876 -0.0348 -1.2019 -0.1439
27910SOL     OW92507  10.997   6.040   1.282 -0.1640 -0.0924 -0.2102
27910SOL    HW192508  10.986   6.112   1.220 -0.4186 -0.4235 -0.5515
27910SOL    HW292509  10.908   6.017   1.308 -0.0383  0.5679  0.8988
27911SOL     OW92510   9.405  12.218   7.382 -0.2589  0.1844  0.2366
27911SOL    HW192511   9.452  12.301   7.384 -1.8912  1.1387  0.5601
27911SOL    HW292512   9.464  12.158   7.335  1.5576  1.0987  1.2704
27912SOL     OW92513   8.569   3.318   1.813 -0.4178  0.1473  0.2791
27912SOL    HW192514   8.588   3.362   1.730  2.8879 -0.3576  0.6237
27912SOL    HW292515   8.585   3.225   1.795  1.1811  0.1155  1.6257
27913SOL     OW92516   7.462  12.288  11.493 -0.1895 -0.7600  0.1038
27913SOL    HW192517   7.409  12.317  11.567  1.0827 -0.4023  0.9048
27913SOL    HW292518   7.457  12.192  11.496 -1.4725 -0.7279 -0.3673
27914SOL     OW92519   1.820   4.769   3.080 -0.0882 -0.1079 -0.1893
27914SOL    HW192520   1.827   4.839   3.145  0.1231  0.7774 -1.1404
27914SOL    HW292521   1.816   4.689   3.132 -0.7240  0.6282  0.9422
27915SOL     OW92522   0.129   3.729   4.650  0.2924 -0.6603 -0.2426
27915SOL    HW192523   0.079   3.809   4.632  2.8592  1.2725  0.5891
27915SOL    HW292524   0.131   3.683   4.566  0.1714  1.0408 -1.2310
27916SOL     OW92525  10.791   0.358   7.886  0.2873 -0.1738 -0.2822
27916SOL    HW192526  10.886   0.365   7.889  0.2314  0.3642  0.7616
27916SOL    HW292527  10.774   0.286   7.825  1.4298 -1.5120  0.8881
27917SOL     OW92528  11.886   1.299   3.373 -0.3185  0.5127  0.2680
27917SOL    HW192529  11.830   1.242   3.319  0.6870 -1.6747  1.4310
27917SOL    HW292530  11.974   1.264   3.362 -0.0128  0.2354  2.9704
27918SOL     OW92531   0.102   2.959   1.054 -0.1689 -0.1928  0.0382
27918SOL    HW192532   0.024   2.985   1.104 -1.4981 -0.2189 -1.9108
27918SOL    HW292533   0.132   3.039   1.012 -1.6379 -0.8587 -2.4510
27919SOL     OW92534   9.046   5.261   8.171 -0.2048 -0.3539  0.3101
27919SOL    HW192535   9.127   5.306   8.145  0.1070 -0.9769  0.1906
27919SOL    HW292536   8.977   5.318   8.137  0.1319  1.0588  1.8629
27920SOL     OW92537   2.524  11.982   6.512  0.0881  0.3904  0.2727
27920SOL    HW192538   2.567  11.950   6.591  0.3673 -0.8337 -0.3546
27920SOL    HW292539   2.452  11.920   6.497  0.0910  0.5590 -0.4826
27921SOL     OW92540  11.839  11.104  12.244 -0.2506  0.1867  0.0886
27921SOL    HW192541  11.766  11.045  12.224 -1.6682  1.5558  0.9065
27921SOL    HW292542  11.819  11.136  12.333  1.8730 -0.1146  0.7137
27922SOL     OW92543   5.410   5.503   5.694  0.2268  0.3628  0.1549
27922SOL    HW192544   5.394   5.593   5.665 -1.3241  0.0687 -0.0031
27922SOL    HW292545   5.446   5.459   5.617 -0.1386  0.5624 -0.1355
27923SOL     OW92546   2.580   0.220   1.387  0.4214  0.2307  0.4287
27923SOL    HW192547   2.661   0.254   1.347  0.4527  1.1829  1.2587
27923SOL    HW292548   2.611   0.163   1.458  0.3840  1.0069  1.0843
27924SOL     OW92549   2.997   0.245   4.077  0.2472  0.4740  0.2542
27924SOL    HW192550   3.046   0.253   3.996 -1.9685 -0.0494 -1.2328
27924SOL    HW292551   3.025   0.319   4.130  1.1850  1.2815 -1.3032
27925SOL     OW92552   9.960   4.915   4.639  0.6837 -0.5590 -0.3680
27925SOL    HW192553  10.028   4.981   4.651  1.0385 -0.7230 -1.3518
27925SOL    HW292554   9.889   4.942   4.697  1.4314 -0.1640  0.3806
27926SOL     OW92555   4.982  11.851   0.873 -0.1634 -0.4881 -0.3888
27926SOL    HW192556   4.889  11.853   0.853 -0.0888 -0.1942 -0.7282
27926SOL    HW292557   5.000  11.761   0.900 -0.8711 -0.1513  1.2979
27927SOL     OW92558   0.149   2.379   4.646  0.1464 -0.2953  0.5391
27927SOL    HW192559   0.111   2.447   4.591  0.6982 -0.1519  0.3268
27927SOL    HW292560   0.167   2.423   4.729 -0.1425 -0.3646  0.6417
27928SOL     OW92561   1.112  11.533   1.426  0.1789 -0.2069 -0.1186
27928SOL    HW192562   1.207  11.545   1.420  0.2224 -0.9530 -1.4419
27928SOL    HW292563   1.099  11.491   1.511  0.9355  0.6110  0.4243
27929SOL     OW92564   9.295   8.776   0.405 -0.0062  0.5716  0.3940
27929SOL    HW192565   9.244   8.826   0.341  0.2087  0.0589 -0.1796
27929SOL    HW292566   9.233   8.712   0.440  0.9729 -2.4290 -2.8019
27930SOL     OW92567   6.121  12.012   9.665 -0.1732 -0.6787 -0.2578
27930SOL    HW192568   6.081  12.095   9.691  1.2846  0.4832 -1.5311
27930SOL    HW292569   6.096  11.950   9.734  0.2838  1.2704  1.7659
27931SOL     OW92570   7.682   8.480  11.884 -0.4609 -0.3206  0.3397
27931SOL    HW192571   7.743   8.452  11.952 -0.1086 -0.5928 -0.0858
27931SOL    HW292572   7.706   8.428  11.807 -0.9102 -0.0759  0.0303
27932SOL     OW92573   9.806   5.320   0.955  0.1752  0.1126  0.2174
27932SOL    HW192574   9.728   5.375   0.954 -0.0622 -0.1652  1.6503
27932SOL    HW292575   9.872   5.372   0.909 -0.1230  1.4963  1.2675
27933SOL     OW92576   8.895   6.893   7.073 -0.3364  0.1228  0.0531
27933SOL    HW192577   8.903   6.833   6.999  0.1067 -0.4279  0.5376
27933SOL    HW292578   8.851   6.842   7.141 -0.2031  0.4340  0.3767
27934SOL     OW92579  11.766   1.127  11.577 -0.6246  0.2953 -0.5698
27934SOL    HW192580  11.710   1.050  11.591 -0.9495  0.8641  1.6462
27934SOL    HW292581  11.762   1.142  11.483 -0.9260 -2.1064 -1.0131
27935SOL     OW92582   0.349  11.301   3.313  0.5214  0.5267  0.3706
27935SOL    HW192583   0.380  11.239   3.247 -0.7649  1.4166 -1.1355
27935SOL    HW292584   0.427  11.350   3.338  0.9137  0.6987 -1.0908
27936SOL     OW92585   5.965   4.179  11.082  0.5487  0.1547 -0.0355
27936SOL    HW192586   5.969   4.084  11.071  2.3891  0.2907 -0.9250
27936SOL    HW292587   5.969   4.193  11.176 -0.3911 -0.6583  0.1370
27937SOL     OW92588   6.882  11.458   5.486 -0.2516 -0.4382  0.2232
27937SOL    HW192589   6.944  11.427   5.419 -1.9124 -0.6127 -1.3071
27937SOL    HW292590   6.798  11.420   5.459 -0.5824 -2.8548  3.9773
27938SOL     OW92591   4.155   0.414   1.353  0.3963 -0.2771  0.0576
27938SOL    HW192592   4.081   0.443   1.299  0.4240  2.3926  1.3383
27938SOL    HW292593   4.115   0.362   1.422 -0.0291 -0.5894 -0.4101
27939SOL     OW92594   2.517   5.545   9.527  0.4020 -0.0835  0.2019
27939SOL    HW192595   2.576   5.604   9.573  1.0370 -0.8755  0.4205
27939SOL    HW292596   2.572   5.503   9.460  0.2818 -1.3234  0.8438
27940SOL     OW92597   8.319   6.492   3.288 -0.4447 -0.1563  0.4119
27940SOL    HW192598   8.388   6.558   3.279  0.8120 -1.1049  2.3408
27940SOL    HW292599   8.256   6.533   3.347 -1.0965  0.3608 -0.6235
27941SOL     OW92600  10.062   6.506   0.059  0.2458 -0.8108 -0.7237
27941SOL    HW192601   9.999   6.457   0.113 -0.6521 -0.7968 -1.7270
27941SOL    HW292602  10.056   6.596   0.092  2.0177 -1.3445  1.2335
27942SOL     OW92603   3.897   0.257   2.500 -0.2132 -0.3998  0.2487
27942SOL    HW192604   3.937   0.340   2.476 -0.1993 -0.6692 -0.6761
27942SOL    HW292605   3.869   0.269   2.591  1.2768  0.0509  0.6779
27943SOL     OW92606   3.989   8.095   3.586 -0.0925  0.0690 -0.3917
27943SOL    HW192607   4.067   8.119   3.637 -0.0007  0.6246 -0.7897
27943SOL    HW292608   3.937   8.042   3.646  0.1056  0.5535  0.2171
27944SOL     OW92609   6.278   8.505   4.694 -0.1395 -0.8777 -0.1738
27944SOL    HW192610   6.264   8.595   4.724  0.1210 -1.1247  0.7389
27944SOL    HW292611   6.309   8.514   4.604 -0.2089 -0.0623 -0.1261
27945SOL     OW92612   8.138   7.315   4.341 -0.4513 -0.3320 -0.3170
27945SOL    HW192613   8.160   7.225   4.316  1.1630  0.3385 -1.4632
27945SOL    HW292614   8.049   7.327   4.309 -0.4777 -1.3292 -0.6678
27946SOL     OW92615   0.962   4.262   0.963  0.2695 -0.0691  0.4424
27946SOL    HW192616   0.983   4.254   0.870 -0.7641 -1.8579  0.3196
27946SOL    HW292617   1.044   4.240   1.008 -0.1732 -3.3765 -0.0706
27947SOL     OW92618   9.544   4.258   5.841 -0.2156  0.3831  0.4143
27947SOL    HW192619   9.505   4.343   5.864 -2.2796 -0.0443 -1.2483
27947SOL    HW292620   9.487   4.193   5.882  1.0071 -0.2474  1.1695
27948SOL     OW92621   7.833   3.355  11.749  0.3780  0.3684 -0.5620
27948SOL    HW192622   7.748   3.385  11.717 -0.4796 -0.9596  0.3910
27948SOL    HW292623   7.849   3.408  11.827  1.5934  2.2823 -2.0022
27949SOL     OW92624   8.257   2.049  10.900  0.0490 -0.1560 -0.5057
27949SOL    HW192625   8.343   2.018  10.929 -0.1005  0.7798  1.0581
27949SOL    HW292626   8.274   2.093  10.817  0.7945 -1.3962 -1.0417
27950SOL     OW92627   3.001   3.733   6.559 -0.4550 -0.3728  0.2133
27950SOL    HW192628   2.940   3.730   6.633 -0.1831  1.0796  0.5192
27950SOL    HW292629   3.072   3.790   6.588 -0.5970  0.6529 -1.3588
27951SOL     OW92630  10.560   4.664   3.854  0.0741  0.3412  0.4112
27951SOL    HW192631  10.499   4.590   3.856  0.2607  0.0552 -1.8934
27951SOL    HW292632  10.575   4.685   3.946 -0.3593 -2.1794  1.1301
27952SOL     OW92633  10.800  11.613   3.008  0.1820 -0.3092  0.2915
27952SOL    HW192634  10.769  11.652   2.926 -0.5151 -3.4691 -1.1010
27952SOL    HW292635  10.895  11.604   2.996  0.0454 -1.0146 -0.3114
27953SOL     OW92636   8.245   5.480   3.847 -0.7311  0.2381 -0.1105
27953SOL    HW192637   8.254   5.388   3.822  0.2055  0.4275 -0.5504
27953SOL    HW292638   8.290   5.487   3.931 -0.1254  0.4317 -0.4422
27954SOL     OW92639  10.613   3.817  11.054 -0.3669  0.1178  0.5003
27954SOL    HW192640  10.687   3.758  11.039 -0.4801 -0.3601  1.6754
27954SOL    HW292641  10.604   3.819  11.150 -0.3101  2.1093  0.5157
27955SOL     OW92642   3.264  12.308   3.116  0.0068  0.1364 -0.6591
27955SOL    HW192643   3.280  12.403   3.121  2.1453 -0.1022 -1.8247
27955SOL    HW292644   3.218  12.288   3.198 -0.4903  2.1653 -0.3789
27956SOL     OW92645   0.352   7.823   7.252  0.0612  0.0637 -0.0560
27956SOL    HW192646   0.290   7.855   7.317 -0.6069 -0.1265 -0.5799
27956SOL    HW292647   0.395   7.902   7.220 -1.4959  0.4870 -1.2560
27957SOL     OW92648   3.043   5.980   8.938 -0.3524  0.8280  0.1568
27957SOL    HW192649   3.032   6.041   9.011 -0.7563 -0.9527  1.6550
27957SOL    HW292650   3.096   5.909   8.974 -0.1584  0.1342 -1.4400
27958SOL     OW92651   1.785   6.860   4.981  0.4537 -0.5985 -0.2322
27958SOL    HW192652   1.729   6.932   5.011 -0.2846 -0.7943 -1.1001
27958SOL    HW292653   1.874   6.887   5.006  0.1051  0.2751  0.1068
27959SOL     OW92654   2.856   1.405   2.759  0.1862 -0.2096 -0.4009
27959SOL    HW192655   2.896   1.485   2.792  0.6603 -0.1307 -1.1431
27959SOL    HW292656   2.924   1.364   2.705 -0.5337 -0.3584 -1.2249
27960SOL     OW92657   7.609   6.327   2.373 -0.2034  0.6652  0.3351
27960SOL    HW192658   7.550   6.278   2.430 -1.8221  3.2293  1.0370
27960SOL    HW292659   7.562   6.332   2.289  0.7638 -0.4234 -0.3054
27961SOL     OW92660  10.098   4.706   8.820 -0.2679 -0.1115  0.2334
27961SOL    HW192661  10.103   4.726   8.726  0.5993 -0.8840  0.0992
27961SOL    HW292662  10.183   4.667   8.841 -1.2831 -2.1771  0.7955
27962SOL     OW92663   6.870   4.756   7.525 -0.1166 -0.1363  0.0932
27962SOL    HW192664   6.907   4.802   7.600  0.8000 -0.8446  0.0868
27962SOL    HW292665   6.867   4.665   7.552 -1.0511 -0.2095 -0.2411
27963SOL     OW92666   0.977   9.398  10.079  1.0269 -0.3173 -0.1387
27963SOL    HW192667   0.947   9.472  10.132 -1.7369 -0.7058 -0.9819
27963SOL    HW292668   0.986   9.325  10.141 -0.3804 -0.3003  0.1159
27964SOL     OW92669   2.095   9.892   1.838 -0.3945 -0.3228 -0.4368
27964SOL    HW192670   2.090   9.931   1.750 -0.4803 -1.3863 -0.9127
27964SOL    HW292671   2.134   9.806   1.824 -0.4124 -0.5089  0.5778
27965SOL     OW92672   7.108   5.482   6.804 -0.1629 -0.4824  0.2610
27965SOL    HW192673   7.087   5.562   6.852  1.6168  0.7277 -0.8529
27965SOL    HW292674   7.028   5.463   6.753 -1.2521 -0.5168  1.9185
27966SOL     OW92675   1.297  11.009   9.902  0.1709 -0.1295 -0.0138
27966SOL    HW192676   1.231  10.942   9.922 -0.5168  1.1820  2.6261
27966SOL    HW292677   1.264  11.051   9.823 -1.1221 -0.7925  0.1353
27967SOL     OW92678   3.335   1.082   3.777 -0.2188  0.1606 -0.4883
27967SOL    HW192679   3.374   1.036   3.702 -1.5802  0.0366 -1.1558
27967SOL    HW292680   3.369   1.037   3.854  0.2774 -0.4780 -1.0718
27968SOL     OW92681   0.554   3.188   0.586 -0.1488 -0.2388 -0.0527
27968SOL    HW192682   0.492   3.130   0.629 -0.2287 -0.8181 -0.9273
27968SOL    HW292683   0.505   3.227   0.513 -0.0638  0.8480  0.4434
27969SOL     OW92684   1.165  11.863   1.028 -0.1957 -0.8041 -0.3393
27969SOL    HW192685   1.246  11.830   1.066 -0.3842 -2.1066 -1.0258
27969SOL    HW292686   1.100  11.851   1.097  0.0610 -0.3285 -0.0066
27970SOL     OW92687   8.210  12.339   7.020  0.1132 -0.3255  0.1921
27970SOL    HW192688   8.150  12.385   7.078  0.6577  1.1222 -0.3352
27970SOL    HW292689   8.264  12.408   6.982  0.1288 -1.2697 -1.6354
27971SOL     OW92690   5.923  12.067   7.510 -0.5418 -0.2068 -0.1041
27971SOL    HW192691   5.960  12.034   7.592 -2.7789  0.6219  1.3498
27971SOL    HW292692   5.898  11.988   7.462  1.7155 -0.7321 -0.5196
27972SOL     OW92693   3.902   1.084   7.139 -0.0575  0.6250  0.0721
27972SOL    HW192694   3.911   1.029   7.217  1.4041 -1.3934 -1.4230
27972SOL    HW292695   3.938   1.169   7.166 -2.2111  0.9168  2.3940
27973SOL     OW92696   2.374   1.727   6.989  0.2894 -0.0393  0.1513
27973SOL    HW192697   2.295   1.673   6.981  0.0781  0.3658 -0.5286
27973SOL    HW292698   2.353   1.808   6.943  0.4850  0.7715  1.4229
27974SOL     OW92699   0.022   1.540   5.932 -0.0665  0.5132  0.4630
27974SOL    HW192700   0.071   1.623   5.932 -0.2086  0.5983 -0.0014
27974SOL    HW292701  -0.023   1.539   6.016 -0.5445  1.1910  0.2197
27975SOL     OW92702   5.596   9.803  11.766 -0.2204  0.5303  0.7039
27975SOL    HW192703   5.542   9.846  11.699 -1.3318 -0.4658  0.9170
27975SOL    HW292704   5.658   9.750  11.716 -0.8952 -0.0303  0.4429
27976SOL     OW92705  11.291   5.319   8.181  0.6361  0.0082 -0.1169
27976SOL    HW192706  11.375   5.275   8.189 -0.5237 -2.1688  0.8421
27976SOL    HW292707  11.241   5.290   8.257 -1.8473 -0.7844 -1.9119
27977SOL     OW92708   0.840   6.479   7.328  0.0556 -0.1603  0.0878
27977SOL    HW192709   0.873   6.544   7.266  0.1120  1.2000  1.4782
27977SOL    HW292710   0.745   6.491   7.328  0.1544  1.0431  1.4293
27978SOL     OW92711   5.102   7.307   9.556  0.6064  0.5761 -0.3535
27978SOL    HW192712   5.149   7.374   9.604 -0.6442 -0.8303  3.2057
27978SOL    HW292713   5.160   7.230   9.558  0.0979  0.1882 -0.0359
27979SOL     OW92714   2.814  10.535   0.391 -0.4907  0.0110 -0.5916
27979SOL    HW192715   2.910  10.540   0.390 -0.3773 -0.9495  1.1973
27979SOL    HW292716   2.787  10.600   0.455 -0.8577 -1.2266  0.5553
27980SOL     OW92717  10.714   1.276   5.832  0.3390 -0.3098  1.0150
27980SOL    HW192718  10.792   1.296   5.781 -0.7864  1.7197 -0.0137
27980SOL    HW292719  10.746   1.222   5.904  2.6175  0.2024  0.4665
27981SOL     OW92720   9.960   9.702  11.982  0.3409  0.1480 -0.0808
27981SOL    HW192721   9.899   9.759  11.933 -1.8137 -1.4326  0.5832
27981SOL    HW292722  10.043   9.749  11.981 -1.3159  3.3458  0.5187
27982SOL     OW92723  11.418   6.514   6.646 -0.2092  0.3139 -0.1978
27982SOL    HW192724  11.504   6.557   6.650 -1.1470  2.2170  0.5888
27982SOL    HW292725  11.412   6.468   6.730 -0.0584  0.3693 -0.1550
27983SOL     OW92726  10.403  11.256   5.284  0.3390  0.3799 -0.1114
27983SOL    HW192727  10.456  11.333   5.304  1.2958 -0.1900 -0.3926
27983SOL    HW292728  10.451  11.211   5.214 -0.9235  0.2629 -0.9373
27984SOL     OW92729   1.760   5.549   0.097 -0.1869 -0.0050 -0.3091
27984SOL    HW192730   1.760   5.454   0.087  1.5630 -0.3029  1.7568
27984SOL    HW292731   1.853   5.572   0.105 -0.6527  1.2736  3.5133
27985SOL     OW92732   4.104   9.249   1.528 -0.2986 -0.0357 -0.4090
27985SOL    HW192733   4.083   9.329   1.481 -0.0146  0.1845 -0.1619
27985SOL    HW292734   4.198   9.235   1.512  0.2023  0.9247  1.4001
27986SOL     OW92735   5.423   3.663   3.026  0.1226  0.6594  0.3261
27986SOL    HW192736   5.483   3.722   2.981  0.9577  0.8936  1.6997
27986SOL    HW292737   5.472   3.581   3.034 -0.3705  0.3270 -0.0123
27987SOL     OW92738  12.112   8.053  11.834 -0.1762 -0.4213 -0.1825
27987SOL    HW192739  12.130   8.112  11.761  0.1509 -0.6589 -0.2940
27987SOL    HW292740  12.108   8.109  11.911 -1.0501 -0.0922 -0.4492
27988SOL     OW92741  10.184   3.187  10.577 -0.4832 -0.1777 -0.1335
27988SOL    HW192742  10.259   3.139  10.613 -0.3839  0.2226  0.1971
27988SOL    HW292743  10.199   3.278  10.603 -1.6235 -0.2537  0.8770
27989SOL     OW92744  10.696   3.434   8.798  0.4382 -0.8052 -0.1058
27989SOL    HW192745  10.667   3.352   8.757  0.8284 -1.1733  0.3500
27989SOL    HW292746  10.660   3.430   8.887  1.7429 -1.2009  0.4252
27990SOL     OW92747   5.058   2.503  12.570 -0.7825  0.3284 -0.1403
27990SOL    HW192748   5.011   2.430  12.529 -2.0909  0.0249  1.7610
27990SOL    HW292749   5.130   2.462  12.616  0.1272  0.5718 -1.2953
27991SOL     OW92750   3.935   6.502   8.375 -0.2777 -0.0574 -0.1038
27991SOL    HW192751   3.870   6.503   8.445  0.2794 -0.0606  0.4203
27991SOL    HW292752   3.899   6.442   8.309 -0.9024  0.1085  0.0821
27992SOL     OW92753   8.486   2.501   7.102 -0.1246  0.0227 -0.2154
27992SOL    HW192754   8.567   2.536   7.065 -0.4635  0.4932 -0.5342
27992SOL    HW292755   8.505   2.409   7.120  2.0254  1.0531  4.1403
27993SOL     OW92756   2.985   7.790   1.044  0.1885 -0.2738  0.4422
27993SOL    HW192757   3.021   7.840   0.970 -0.6031  1.1832  0.9966
27993SOL    HW292758   3.045   7.807   1.116 -0.4168  0.3946  0.7962
27994SOL     OW92759   3.298   3.908   6.405 -0.2165 -0.0210 -0.3210
27994SOL    HW192760   3.234   3.964   6.363 -0.6156 -0.5517 -0.4314
27994SOL    HW292761   3.281   3.820   6.370  0.5603 -0.1744 -0.3510
27995SOL     OW92762   1.805   6.752   6.574  0.2589 -0.2690 -0.0922
27995SOL    HW192763   1.713   6.755   6.549 -0.1126  0.8696  1.2672
27995SOL    HW292764   1.809   6.689   6.646  0.5273 -0.2607 -0.0969
27996SOL     OW92765   8.024   8.048   2.258  0.0963 -0.2939  0.2874
27996SOL    HW192766   8.078   8.099   2.319 -0.5279 -0.2672  0.8296
27996SOL    HW292767   8.053   8.076   2.171  0.1041  0.6296  0.5755
27997SOL     OW92768   5.685  12.397   8.412 -0.1398 -0.3612 -0.4103
27997SOL    HW192769   5.711  12.305   8.420  0.6190 -0.1069  0.2149
27997SOL    HW292770   5.594  12.394   8.382 -0.4314 -1.3324  0.5088
27998SOL     OW92771   2.966   9.422   3.125  0.3438 -0.6061  0.5561
27998SOL    HW192772   2.914   9.487   3.171 -0.4505 -0.8016 -0.0377
27998SOL    HW292773   2.910   9.393   3.053  1.5444 -0.3100 -0.5365
27999SOL     OW92774   2.762   7.614   3.146  0.0386 -0.2892 -0.0154
27999SOL    HW192775   2.748   7.660   3.063  0.8102  0.5436  0.2933
27999SOL    HW292776   2.705   7.538   3.141 -2.1309  1.2461 -0.1188
28000SOL     OW92777  12.489  11.533   3.495 -0.9355  0.5618  0.3577
28000SOL    HW192778  12.556  11.517   3.562 -0.9842 -0.2381  0.2332
28000SOL    HW292779  12.428  11.459   3.505 -0.6043  0.0804 -0.9714
28001SOL     OW92780  11.853   2.667  11.155 -0.1701 -0.3719 -0.1682
28001SOL    HW192781  11.931   2.695  11.203  0.2140 -1.3776 -0.1859
28001SOL    HW292782  11.780   2.700  11.207  0.2498 -0.9288  0.8112
28002SOL     OW92783   3.843  12.336   3.800  0.3884  0.6938  0.0450
28002SOL    HW192784   3.928  12.368   3.830 -0.2127  0.8274  1.7039
28002SOL    HW292785   3.791  12.415   3.789 -0.2587  0.4879  1.4624
28003SOL     OW92786   2.925   4.803   6.358  0.0694  0.3207  0.1676
28003SOL    HW192787   2.847   4.753   6.383 -1.3621  2.1095 -0.5092
28003SOL    HW292788   2.911   4.889   6.397  1.4992  0.8270 -0.3892
28004SOL     OW92789   5.993   1.773   6.511 -0.6120 -0.4261  0.1073
28004SOL    HW192790   5.898   1.773   6.515 -0.5673 -0.6394  2.9140
28004SOL    HW292791   6.021   1.730   6.592  1.8770 -1.1339 -1.0140
28005SOL     OW92792   7.752   1.619   3.382  0.6230 -0.3618  0.2025
28005SOL    HW192793   7.738   1.531   3.418  2.4956 -0.0690  1.8267
28005SOL    HW292794   7.666   1.660   3.383  0.2112 -1.1914  2.2391
28006SOL     OW92795   1.504   9.351   9.629  0.4863 -0.3147 -0.1380
28006SOL    HW192796   1.561   9.354   9.552  2.0826 -1.5884  0.9305
28006SOL    HW292797   1.415   9.362   9.594  1.1519 -1.0825 -2.1743
28007SOL     OW92798   7.377   3.579   8.333  0.0446 -0.1131 -0.5371
28007SOL    HW192799   7.317   3.645   8.366  1.7977  0.9217  0.7274
28007SOL    HW292800   7.425   3.623   8.263  1.4584  0.1278  0.5365
28008SOL     OW92801   7.446   3.235   0.675 -0.0093  0.0493  0.7390
28008SOL    HW192802   7.406   3.229   0.762 -2.2230 -0.0759 -0.2114
28008SOL    HW292803   7.434   3.327   0.649  0.1674 -0.0300  0.3625
28009SOL     OW92804   7.981  10.974   2.537 -0.0672  0.0111 -0.3002
28009SOL    HW192805   8.009  10.895   2.492  0.3310 -0.2840  0.4541
28009SOL    HW292806   7.961  11.036   2.467  0.0577 -0.6055 -0.8844
28010SOL     OW92807   7.672  11.832   3.556  0.0324  0.1715 -0.0425
28010SOL    HW192808   7.734  11.900   3.530 -0.2997  0.2873 -0.5431
28010SOL    HW292809   7.726  11.766   3.600  0.3410  0.8039  0.5535
28011SOL     OW92810   1.006   3.331  11.087 -0.4144  0.0044  0.7349
28011SOL    HW192811   1.065   3.364  11.155 -0.2476 -0.9595  1.0784
28011SOL    HW292812   0.920   3.366  11.111  0.1409  2.3770 -0.3989
28012SOL     OW92813   3.542  11.689  10.283  0.2942  0.0020 -0.3526
28012SOL    HW192814   3.616  11.748  10.266 -0.4235  0.5083 -1.9603
28012SOL    HW292815   3.477  11.744  10.326  0.9151 -0.5059  1.2912
28013SOL     OW92816   1.612   7.155   9.811 -0.0586 -0.0636  0.1387
28013SOL    HW192817   1.613   7.082   9.750 -0.8983 -1.8295  2.1159
28013SOL    HW292818   1.607   7.233   9.755 -2.8559 -1.6211 -2.0660
28014SOL     OW92819  11.632  11.819   3.646 -0.2380 -0.3210  0.0159
28014SOL    HW192820  11.629  11.782   3.558 -0.6241 -0.3995  0.0588
28014SOL    HW292821  11.697  11.889   3.641  0.9073 -1.3484  0.0684
28015SOL     OW92822  12.363   3.566  12.598  0.5451 -0.0895  0.2686
28015SOL    HW192823  12.299   3.633  12.622  1.0867  0.0875  1.2828
28015SOL    HW292824  12.313   3.484  12.596  0.1703  0.1349  0.4522
28016SOL     OW92825   3.325   4.934   6.298  0.6299 -0.0718 -0.1133
28016SOL    HW192826   3.273   4.931   6.379  1.5578 -0.0556  0.5086
28016SOL    HW292827   3.332   5.027   6.278 -0.9421 -0.1433 -1.1327
28017SOL     OW92828   8.287   0.564   1.220  0.4022 -0.1283 -0.3318
28017SOL    HW192829   8.373   0.549   1.260  1.2745  1.1821 -1.6001
28017SOL    HW292830   8.282   0.659   1.210 -0.9920 -0.2248 -0.7427
28018SOL     OW92831   3.768   6.463  10.375 -0.8907 -0.3892 -0.2184
28018SOL    HW192832   3.830   6.468  10.449 -0.3727 -0.6113 -0.6287
28018SOL    HW292833   3.699   6.404  10.405  0.5087 -2.3873 -0.7477
28019SOL     OW92834   2.689   4.318   0.298 -0.7221  0.3885  0.0162
28019SOL    HW192835   2.666   4.237   0.253 -1.5922 -1.0148  2.7550
28019SOL    HW292836   2.783   4.310   0.314 -0.0879  1.5689 -2.6184
28020SOL     OW92837   0.210   5.903   5.445  0.7450  0.4617 -0.2835
28020SOL    HW192838   0.264   5.974   5.481  2.8003 -1.0808 -0.1166
28020SOL    HW292839   0.211   5.917   5.350  1.9929  0.1270 -0.3345
28021SOL     OW92840   6.782   2.634   2.993  0.1681 -0.3145  0.0963
28021SOL    HW192841   6.751   2.705   2.936  1.9435 -1.1761 -2.0631
28021SOL    HW292842   6.711   2.570   2.993  0.5324 -0.7808 -2.0798
28022SOL     OW92843   0.012   6.678  11.261 -0.6358  0.2311  0.4067
28022SOL    HW192844  -0.027   6.757  11.224 -1.1204 -0.8946 -1.6637
28022SOL    HW292845  -0.058   6.613  11.258  0.4182 -0.9247 -0.2477
28023SOL     OW92846   6.809  11.122   3.008 -0.0353  0.2359 -0.2428
28023SOL    HW192847   6.716  11.141   2.993  0.0950  0.3367 -0.9966
28023SOL    HW292848   6.816  11.028   2.995 -0.0241  0.2363 -0.2406
28024SOL     OW92849   2.049   1.362   3.920  0.0724  0.1667 -0.1345
28024SOL    HW192850   2.099   1.374   3.839  0.9563 -0.2857  0.3277
28024SOL    HW292851   1.994   1.285   3.902 -0.2600  0.4932 -0.5459
28025SOL     OW92852   0.188  10.239  11.662 -0.2101  0.0501  0.3523
28025SOL    HW192853   0.164  10.312  11.606 -1.5287 -0.3550  0.3685
28025SOL    HW292854   0.178  10.273  11.751 -0.4332 -0.0293  0.3574
28026SOL     OW92855   0.452   0.083   5.326  0.7909  0.5977 -0.2797
28026SOL    HW192856   0.409   0.023   5.386  1.0525  1.8071  1.1677
28026SOL    HW292857   0.538   0.043   5.310  0.6008  0.1108 -0.0811
28027SOL     OW92858  10.555   2.266   9.471 -0.4661  0.2932  0.3192
28027SOL    HW192859  10.610   2.188   9.479 -1.3900 -0.3153  0.9969
28027SOL    HW292860  10.602   2.334   9.520  0.2810  0.1254 -0.1596
28028SOL     OW92861   4.944  11.517   7.348  0.0748  0.0787 -0.2928
28028SOL    HW192862   5.000  11.467   7.407 -1.7007 -0.7226  0.8086
28028SOL    HW292863   4.862  11.526   7.396 -0.5389  1.7425 -1.5939
28029SOL     OW92864   7.948   5.549   5.912  0.3818 -0.0212 -0.3717
28029SOL    HW192865   7.926   5.491   5.985 -0.1513  1.2287  0.4815
28029SOL    HW292866   7.963   5.489   5.838 -1.7672 -1.1790  0.0594
28030SOL     OW92867   1.380  10.320  11.220  0.0665 -0.1457  0.3552
28030SOL    HW192868   1.335  10.316  11.136  0.2721  0.9545  0.1817
28030SOL    HW292869   1.384  10.229  11.250 -0.0304 -0.5386 -0.8063
28031SOL     OW92870   2.029   7.552   5.789 -0.1643 -0.5499 -0.2515
28031SOL    HW192871   2.053   7.513   5.873 -1.9656 -1.1248  0.0442
28031SOL    HW292872   1.937   7.578   5.800 -0.3607 -0.3853 -1.9470
28032SOL     OW92873  11.294  12.366   9.537 -0.7829  0.0398  0.0297
28032SOL    HW192874  11.224  12.317   9.495 -0.2177  1.4877 -2.8700
28032SOL    HW292875  11.371  12.309   9.530 -0.9393 -0.1874  0.1418
28033SOL     OW92876   1.867   0.881   6.548 -0.1280  0.3170  0.3983
28033SOL    HW192877   1.796   0.921   6.598 -1.5684 -1.8004  0.1506
28033SOL    HW292878   1.845   0.901   6.456 -1.4306 -1.7732  0.1947
28034SOL     OW92879   2.655   0.850   7.257  0.0426  0.1053  0.3224
28034SOL    HW192880   2.581   0.826   7.201 -0.0149  0.0720  0.4112
28034SOL    HW292881   2.664   0.776   7.317 -0.8096  0.7523  1.2894
28035SOL     OW92882   5.836  11.957   8.808  0.4407  0.3035  0.1777
28035SOL    HW192883   5.838  11.882   8.868  0.4732 -0.1298 -0.3482
28035SOL    HW292884   5.767  12.014   8.841  1.1961  0.6100  1.2566
28036SOL     OW92885   9.106   0.209  10.453 -0.3492  0.0933  0.3070
28036SOL    HW192886   9.123   0.172  10.367 -0.3854  0.2911  0.2135
28036SOL    HW292887   9.013   0.229  10.454 -0.3881 -0.0963  0.4655
28037SOL     OW92888   0.469   6.556   1.876  0.2833 -0.3502 -0.2855
28037SOL    HW192889   0.468   6.553   1.972  0.9567  0.6863 -0.2278
28037SOL    HW292890   0.527   6.485   1.850  0.1071 -0.6290  0.0716
28038SOL     OW92891   3.827  11.517   7.441 -0.0565 -0.0005 -0.3328
28038SOL    HW192892   3.846  11.432   7.403  0.7108 -0.0891  0.2057
28038SOL    HW292893   3.878  11.579   7.388 -0.7928  0.1582 -0.8664
28039SOL     OW92894  11.964  10.490   0.957 -0.0021 -0.0200  0.1187
28039SOL    HW192895  11.925  10.575   0.976 -1.5976 -0.5491 -0.5739
28039SOL    HW292896  11.901  10.447   0.899  1.2307 -1.2939 -0.3453
28040SOL     OW92897   3.587   5.971   7.013  0.6339 -0.2236  0.0652
28040SOL    HW192898   3.542   5.897   6.973  0.5898 -0.1946  0.0623
28040SOL    HW292899   3.641   5.932   7.081 -1.0086 -0.0403  1.5213
28041SOL     OW92900   2.912   6.866   1.496  0.0696  0.0129  0.1342
28041SOL    HW192901   2.980   6.833   1.554  0.0271  0.7805  0.6434
28041SOL    HW292902   2.954   6.874   1.410  0.4415 -0.1142  0.3081
28042SOL     OW92903  12.065   9.026   5.711  0.2406  0.3480 -0.6253
28042SOL    HW192904  11.978   8.987   5.705  0.2839  0.1998 -0.3188
28042SOL    HW292905  12.096   9.002   5.799  0.8526 -0.1539 -0.9715
28043SOL     OW92906   0.369   0.093  12.106  0.3057 -0.0484  0.2953
28043SOL    HW192907   0.445   0.067  12.159  1.3287  2.0109 -0.0592
28043SOL    HW292908   0.401   0.091  12.016 -0.4024 -0.2090  0.0398
28044SOL     OW92909   1.923   1.488   4.687  0.3027  0.2711  0.4488
28044SOL    HW192910   1.875   1.429   4.630  0.1390 -0.4907  1.3438
28044SOL    HW292911   1.918   1.573   4.644 -2.7711  0.4608  0.9780
28045SOL     OW92912  11.396   7.557   7.745 -0.0977 -0.5240  0.0702
28045SOL    HW192913  11.402   7.481   7.687  2.3655  0.6242 -1.3588
28045SOL    HW292914  11.360   7.627   7.691  2.6197  0.6803 -0.3397
28046SOL     OW92915   5.654   3.731  10.982 -0.6654  0.0612  0.4101
28046SOL    HW192916   5.657   3.685  11.066 -0.5176  1.1462  1.0170
28046SOL    HW292917   5.577   3.787  10.988 -0.7736 -0.0049 -0.2732
28047SOL     OW92918   1.215   3.550   4.278  0.2775 -0.2651  0.0614
28047SOL    HW192919   1.253   3.547   4.190  1.2056  0.3738  0.4265
28047SOL    HW292920   1.133   3.501   4.270  1.6266 -2.5727 -0.5223
28048SOL     OW92921   5.840   8.961   2.991 -0.1068 -0.0752 -0.0909
28048SOL    HW192922   5.821   8.870   2.970  0.4462  0.1752 -1.8966
28048SOL    HW292923   5.933   8.972   2.971 -0.4335  1.1535 -1.1155
28049SOL     OW92924  11.025  10.316  10.047 -0.0074 -0.2363 -0.1507
28049SOL    HW192925  10.989  10.277  10.126 -0.9621 -0.0706 -0.4915
28049SOL    HW292926  11.051  10.404  10.073  0.7880 -0.5881  0.2621
28050SOL     OW92927   0.609   8.192  10.775  0.0764 -0.2605  0.2945
28050SOL    HW192928   0.657   8.179  10.856  0.1570 -0.2760  0.2447
28050SOL    HW292929   0.606   8.105  10.734  1.0457 -0.0468 -0.2757
28051SOL     OW92930   2.163  12.524   9.078  0.2873  0.2890 -0.7480
28051SOL    HW192931   2.130  12.490   8.995 -0.3857 -1.1203  0.0538
28051SOL    HW292932   2.217  12.453   9.113  0.1670  0.6739  0.2407
28052SOL     OW92933   6.642   3.665  11.903 -0.0992 -0.1488  0.3599
28052SOL    HW192934   6.681   3.618  11.829 -0.9679 -1.5735  0.7682
28052SOL    HW292935   6.578   3.723  11.862  0.4897  0.1894 -0.1066
28053SOL     OW92936   5.610   3.350  10.781  0.9798  0.1699  0.5902
28053SOL    HW192937   5.520   3.362  10.812  1.6075  1.0762  2.1728
28053SOL    HW292938   5.621   3.416  10.713  0.5045  0.1501  0.4894
28054SOL     OW92939   8.282   6.740   2.663 -0.0338 -0.2508  0.2148
28054SOL    HW192940   8.302   6.692   2.583  0.5893 -0.3016  0.3928
28054SOL    HW292941   8.336   6.699   2.730  2.1088  1.9305 -0.0124
28055SOL     OW92942  10.494  12.155   8.955 -0.0126  0.0595  0.4522
28055SOL    HW192943  10.586  12.135   8.940  0.0382  0.2960  0.4345
28055SOL    HW292944  10.487  12.167   9.050 -0.5340 -2.4098  0.7778
28056SOL     OW92945   4.924   0.288   3.671 -0.4009  0.6637  0.3909
28056SOL    HW192946   4.978   0.247   3.603 -1.3490  0.6550 -0.3698
28056SOL    HW292947   4.849   0.231   3.680 -1.2556  1.6945  0.0271
28057SOL     OW92948   4.737   5.028   5.360 -0.0323 -0.1404  0.7436
28057SOL    HW192949   4.688   4.948   5.380 -1.3211 -0.3122 -2.5341
28057SOL    HW292950   4.822   4.998   5.331  0.2671 -0.1415  1.5848
28058SOL     OW92951  10.333   2.576   0.347 -0.2700  0.1255 -0.0541
28058SOL    HW192952  10.313   2.667   0.326 -0.1183  0.3279  0.6655
28058SOL    HW292953  10.346   2.534   0.262  0.1455  0.8816 -0.3688
28059SOL     OW92954   3.762   2.672   0.224  0.2877 -0.9146 -0.2376
28059SOL    HW192955   3.832   2.702   0.282 -0.4979 -1.0501  0.8246
28059SOL    HW292956   3.748   2.745   0.163  0.1863 -0.1852  0.6355
28060SOL     OW92957   6.937   6.169   0.133 -0.5186 -0.6062  0.5950
28060SOL    HW192958   6.854   6.152   0.089  0.3279 -2.4352 -0.4636
28060SOL    HW292959   6.913   6.196   0.222 -2.2609  2.0597 -0.5771
28061SOL     OW92960   5.810  11.693   4.665 -0.4071 -0.3003  0.1166
28061SOL    HW192961   5.854  11.615   4.698  1.4289 -0.4361 -2.3310
28061SOL    HW292962   5.744  11.658   4.604  0.3831 -0.0022 -0.9431
28062SOL     OW92963   2.008  10.977   5.085  0.1637  0.1797 -0.5421
28062SOL    HW192964   2.009  10.984   5.181  1.3962 -0.1527 -0.5218
28062SOL    HW292965   1.994  11.067   5.055 -1.8059  0.0823 -0.0553
28063SOL     OW92966  11.462   7.128   2.338 -0.2714  0.4741  0.6007
28063SOL    HW192967  11.368   7.117   2.325  0.1048 -0.6021 -1.6311
28063SOL    HW292968  11.469   7.201   2.400 -2.5568  0.3407  1.1078
28064SOL     OW92969   8.129   6.834  11.881  0.0591 -0.7935  0.3636
28064SOL    HW192970   8.217   6.866  11.903 -0.1236  0.4686 -0.6439
28064SOL    HW292971   8.124   6.844  11.786 -1.1062 -1.0542  0.3905
28065SOL     OW92972   7.039   2.883   4.073 -0.0960  0.1712 -0.4675
28065SOL    HW192973   7.069   2.800   4.036  0.3928 -0.0046  0.3084
28065SOL    HW292974   7.094   2.897   4.150 -2.2890 -0.4393  1.3237
28066SOL     OW92975   1.024   1.729   4.158  0.2803 -0.4492  0.2142
28066SOL    HW192976   0.957   1.776   4.208  2.0048  0.8900  1.4250
28066SOL    HW292977   1.072   1.798   4.112  2.9830 -0.8325  2.1383
28067SOL     OW92978  11.662  11.933   8.791  0.6305 -0.0730  0.5542
28067SOL    HW192979  11.750  11.903   8.816  1.6005  2.2306  0.1530
28067SOL    HW292980  11.678  11.996   8.721 -1.4706 -0.4852 -0.3538
28068SOL     OW92981   9.186   7.946  11.274 -0.6451  0.1793  0.2769
28068SOL    HW192982   9.118   8.008  11.247 -2.6079 -2.6139 -1.7417
28068SOL    HW292983   9.147   7.899  11.348  0.0372  0.0416  0.5563
28069SOL     OW92984   6.096   3.591   8.069 -0.1384 -0.1890 -0.1429
28069SOL    HW192985   6.158   3.519   8.060 -0.9227 -0.8768 -0.1833
28069SOL    HW292986   6.148   3.670   8.053  0.6053 -0.7839 -0.7293
28070SOL     OW92987   4.960   1.784   0.801  0.3710  0.0075  0.2575
28070SOL    HW192988   4.877   1.739   0.785  0.0767  0.0197  1.6548
28070SOL    HW292989   5.000   1.737   0.873  1.7161 -0.1387 -0.5539
28071SOL     OW92990   6.366   1.859   0.819 -0.0442 -0.0184 -0.2053
28071SOL    HW192991   6.434   1.798   0.793 -0.7921 -0.8881 -0.1656
28071SOL    HW292992   6.291   1.837   0.764 -1.0705 -0.7063  1.3781
28072SOL     OW92993   4.529   4.221   1.484  0.1549  1.0076 -0.2296
28072SOL    HW192994   4.484   4.220   1.400  0.1330 -0.9355 -0.2389
28072SOL    HW292995   4.592   4.149   1.479  1.4382  1.9799  0.7675
28073SOL     OW92996   7.688   5.335   0.289 -0.0414  0.0347  1.3589
28073SOL    HW192997   7.659   5.419   0.324  0.4403  0.7543  0.0654
28073SOL    HW292998   7.614   5.276   0.305 -0.7281  0.9130  1.4990
28074SOL     OW92999   0.547   0.198   3.459  0.0640  0.1998  0.1203
28074SOL    HW193000   0.517   0.176   3.547 -0.9767 -1.4347 -0.5949
28074SOL    HW293001   0.642   0.189   3.463 -0.0759 -1.3254  0.7293
28075SOL     OW93002   8.522   1.844   2.962  0.5967 -0.1460 -0.5588
28075SOL    HW193003   8.460   1.902   3.005  2.0445  2.0424 -1.2460
28075SOL    HW293004   8.511   1.861   2.869  0.6760 -1.4372 -0.8333
28076SOL     OW93005   2.043  11.500   4.670 -0.5297  0.2095  0.0437
28076SOL    HW193006   2.119  11.555   4.653  0.5328 -1.5204 -1.2434
28076SOL    HW293007   1.997  11.497   4.586  0.1151 -1.7496 -0.3048
28077SOL     OW93008  10.386   6.333   5.862  0.8703 -0.2773  0.2574
28077SOL    HW193009  10.351   6.417   5.893  1.0534  0.3683 -1.1760
28077SOL    HW293010  10.320   6.269   5.888  0.3778  0.4156  0.7647
28078SOL     OW93011   2.088   2.866   4.662  0.2585  0.0326 -0.1043
28078SOL    HW193012   2.062   2.828   4.746 -0.6399  1.5528  0.3361
28078SOL    HW293013   2.091   2.791   4.602 -1.1137 -0.7879  0.8036
28079SOL     OW93014  10.628   9.026   4.225  0.0859 -0.5958 -0.1649
28079SOL    HW193015  10.718   8.993   4.231  0.8488  1.5434  0.9443
28079SOL    HW293016  10.623   9.066   4.138  1.1153  1.5819  0.6999
28080SOL     OW93017  10.623   7.586   3.366 -0.2821  0.1577 -0.6932
28080SOL    HW193018  10.652   7.568   3.456  0.4794  1.8717 -0.5556
28080SOL    HW293019  10.641   7.504   3.319  2.0852  0.1638  0.0682
28081SOL     OW93020   0.221   8.062   3.610 -0.0707  0.3957  0.3932
28081SOL    HW193021   0.198   8.039   3.520  1.0371  0.4641  0.0814
28081SOL    HW293022   0.192   7.988   3.662  1.0991 -0.5674 -0.2781
28082SOL     OW93023  10.121   2.911   8.114 -0.2668 -0.6987 -0.3155
28082SOL    HW193024  10.111   2.911   8.209 -0.6863 -1.4191 -0.3531
28082SOL    HW293025  10.205   2.954   8.099  0.0216 -0.9880  0.4095
28083SOL     OW93026   9.415   2.757   0.986  0.2153  0.1855  0.3489
28083SOL    HW193027   9.406   2.833   1.043 -0.7547 -0.1013  0.6040
28083SOL    HW293028   9.334   2.707   1.000  1.1026 -1.2115  0.6609
28084SOL     OW93029   9.508   7.031   7.905  0.6777 -0.5215  0.2964
28084SOL    HW193030   9.572   6.961   7.894  0.0555 -0.9695 -0.5561
28084SOL    HW293031   9.545   7.105   7.857  0.3910 -0.9028 -0.5393
28085SOL     OW93032   9.643   0.427   7.158 -0.4206  0.6045  0.0078
28085SOL    HW193033   9.724   0.451   7.113 -0.3348 -0.5539 -0.4992
28085SOL    HW293034   9.668   0.418   7.250  0.7621 -2.5397 -0.5006
28086SOL     OW93035   5.911   6.556  10.574  0.2325 -0.3883  0.0890
28086SOL    HW193036   5.870   6.538  10.659 -0.7076 -1.9027 -0.6415
28086SOL    HW293037   5.844   6.602  10.524  1.0645  1.2321  0.4007
28087SOL     OW93038  11.960   1.438   0.853  0.3716 -0.2961  0.0037
28087SOL    HW193039  11.877   1.468   0.889  1.1741  2.8131 -0.4161
28087SOL    HW293040  12.006   1.400   0.928 -0.9730 -1.1364  0.4501
28088SOL     OW93041   4.785  12.086   8.566  0.2028  0.1703 -0.1996
28088SOL    HW193042   4.751  12.037   8.492 -0.2923  1.1856 -0.6644
28088SOL    HW293043   4.716  12.148   8.588  1.6260  2.2063 -1.0892
28089SOL     OW93044   3.247   3.528   7.914 -0.0952 -0.0980  0.3203
28089SOL    HW193045   3.162   3.515   7.956  0.0091  0.9132  0.8904
28089SOL    HW293046   3.311   3.508   7.983  0.1006  0.2179  0.2376
28090SOL     OW93047   3.028   2.854   4.600 -0.3352  0.1054 -0.2984
28090SOL    HW193048   3.028   2.825   4.691 -1.8041  0.3477 -0.2115
28090SOL    HW293049   3.121   2.863   4.578  0.1404 -2.2792  0.4181
28091SOL     OW93050  11.976   0.257   4.741  0.1220 -0.0206 -0.1089
28091SOL    HW193051  12.069   0.270   4.723  0.3444 -0.8927  0.3573
28091SOL    HW293052  11.932   0.296   4.666  0.8328  0.9714 -0.0340
28092SOL     OW93053   1.496   8.547  10.786 -0.5441 -0.3633  0.3054
28092SOL    HW193054   1.417   8.576  10.831 -0.0643  0.2290  0.7801
28092SOL    HW293055   1.524   8.623  10.735 -0.1135 -0.4691  0.3814
28093SOL     OW93056  11.050   8.639   3.210 -0.7119 -0.2087 -0.4259
28093SOL    HW193057  11.103   8.603   3.281 -0.0099  1.8364  0.1424
28093SOL    HW293058  11.074   8.587   3.134  2.8821  1.1712 -0.4148
28094SOL     OW93059   3.092   0.313   2.716  0.0403  0.7245  0.2817
28094SOL    HW193060   3.022   0.378   2.708 -0.2706  0.7489  2.6217
28094SOL    HW293061   3.060   0.237   2.666 -1.2589  1.0583  0.5700
28095SOL     OW93062   2.515  11.315   6.013  0.0316  0.1086  0.1953
28095SOL    HW193063   2.461  11.388   6.045  0.7654  0.7874 -0.0815
28095SOL    HW293064   2.456  11.262   5.962 -0.1938  1.3378 -0.8706
28096SOL     OW93065   5.570   6.954  10.957  0.9925 -0.0826 -0.4843
28096SOL    HW193066   5.637   6.896  10.992  0.6823 -1.0433 -1.4278
28096SOL    HW293067   5.618   7.025  10.915  1.5258 -1.5722 -2.5577
28097SOL     OW93068   5.206   0.403   8.982  0.0727 -0.0396  0.2116
28097SOL    HW193069   5.296   0.392   9.012  0.8090  1.0329 -1.4719
28097SOL    HW293070   5.207   0.485   8.933 -2.1122  0.6434  1.1708
28098SOL     OW93071   2.976   9.179  11.212  0.4274  0.6429  0.1513
28098SOL    HW193072   2.979   9.266  11.172  0.5929  0.3235 -0.5345
28098SOL    HW293073   2.981   9.197  11.306 -2.1048  1.5387  0.1949
28099SOL     OW93074  12.473   6.316   6.106 -0.3249  0.5215 -0.2422
28099SOL    HW193075  12.418   6.241   6.083 -0.1256  0.5525 -0.8636
28099SOL    HW293076  12.416   6.392   6.095 -0.1463  0.5622 -0.9915
28100SOL     OW93077   6.923   0.086   7.978 -0.2768  0.2967 -0.4697
28100SOL    HW193078   6.986   0.015   7.965 -0.4591  0.1614 -0.6081
28100SOL    HW293079   6.839   0.049   7.954 -0.9124 -0.4854  2.5010
28101SOL     OW93080   3.651   2.941   3.218 -0.2517 -0.7034 -0.1403
28101SOL    HW193081   3.733   2.960   3.173 -0.3841  0.2621  0.0123
28101SOL    HW293082   3.607   2.878   3.162  0.5757 -1.2053 -0.2415
28102SOL     OW93083   4.604  11.114   7.729  0.0995 -0.1175 -0.4431
28102SOL    HW193084   4.682  11.169   7.727 -0.6769  1.1912  1.8948
28102SOL    HW293085   4.623  11.048   7.797  0.2929 -1.6600 -1.9285
28103SOL     OW93086   6.028   0.571   7.762  0.5629 -0.6298  0.8851
28103SOL    HW193087   5.959   0.618   7.716 -0.2325 -1.1928  1.4715
28103SOL    HW293088   6.066   0.514   7.696  1.6466  0.9070  0.1245
28104SOL     OW93089  11.684  11.571   4.114  0.1464  0.0086  0.0566
28104SOL    HW193090  11.643  11.613   4.190  1.4639 -0.6252  1.1691
28104SOL    HW293091  11.621  11.582   4.043 -1.6168 -0.3101  1.5030
28105SOL     OW93092  11.546   3.241   1.274 -0.3731 -0.1509  0.1884
28105SOL    HW193093  11.467   3.250   1.327  0.5921 -0.2993  1.7414
28105SOL    HW293094  11.593   3.323   1.287 -0.0532 -0.2409 -0.3587
28106SOL     OW93095   0.114  11.943   6.072  0.4451 -0.0484  0.3547
28106SOL    HW193096   0.123  11.863   6.019 -1.7572 -0.0710 -0.0524
28106SOL    HW293097   0.077  12.008   6.012 -0.9523  0.2744  1.5246
28107SOL     OW93098  12.153   2.399   3.062 -0.0837 -0.1365 -0.4043
28107SOL    HW193099  12.109   2.478   3.096 -1.0587 -0.8993  0.1795
28107SOL    HW293100  12.159   2.341   3.138  1.8120 -0.1494 -0.5143
28108SOL     OW93101   1.918  12.310  11.496 -0.2570  0.0094  0.0333
28108SOL    HW193102   1.845  12.304  11.558 -1.8276  0.2510 -1.7077
28108SOL    HW293103   1.908  12.397  11.456  2.2325  0.9116  1.1714
28109SOL     OW93104   5.493   8.953   5.282 -0.2945 -0.1036 -0.4959
28109SOL    HW193105   5.513   8.873   5.232 -1.6821 -1.6679  1.3158
28109SOL    HW293106   5.565   9.012   5.261  0.5245 -1.6216 -2.3098
28110SOL     OW93107   0.394   2.162   5.228 -0.6842 -0.0205  0.2613
28110SOL    HW193108   0.483   2.165   5.193 -0.4424  0.6338  0.8956
28110SOL    HW293109   0.402   2.197   5.317 -1.7098  0.8304  0.0425
28111SOL     OW93110   3.098   1.025   4.428 -0.1113  0.2398 -0.3956
28111SOL    HW193111   3.124   1.086   4.497 -0.7254 -0.3050  0.3496
28111SOL    HW293112   3.139   0.942   4.454 -1.8615 -0.4407  0.3813
28112SOL     OW93113   4.630  10.336   7.946 -0.8737  0.2623  0.6279
28112SOL    HW193114   4.607  10.243   7.942 -1.7138  0.5159 -1.9523
28112SOL    HW293115   4.721  10.339   7.915 -1.5907  0.4535 -1.6515
28113SOL     OW93116   9.551   6.255  11.782 -0.1234 -0.6925  0.3478
28113SOL    HW193117   9.509   6.168  11.777  0.0287 -0.7314 -0.3368
28113SOL    HW293118   9.565   6.279  11.690  0.6740 -0.3456  0.5624
28114SOL     OW93119  12.438   8.943  10.664 -0.7688  0.4579  0.0034
28114SOL    HW193120  12.433   8.991  10.582  0.0442 -0.7875 -0.8165
28114SOL    HW293121  12.412   9.006  10.731  1.0830  2.3050 -0.9140
28115SOL     OW93122  11.168  12.003   3.901 -0.3474  0.4035 -0.5822
28115SOL    HW193123  11.229  11.931   3.916  0.2029  1.0095  0.1765
28115SOL    HW293124  11.125  11.981   3.819 -1.1761 -1.4709  0.3018
28116SOL     OW93125   1.149   2.136   4.859  0.4395  0.3896 -0.6432
28116SOL    HW193126   1.108   2.112   4.942  0.2551  0.6404 -0.6595
28116SOL    HW293127   1.138   2.058   4.804  1.8286 -0.3121  0.0175
28117SOL     OW93128   7.123   6.287   1.920 -0.0346 -0.4638  0.0388
28117SOL    HW193129   7.107   6.213   1.860 -0.8886  0.5995 -1.0879
28117SOL    HW293130   7.213   6.313   1.902  1.0519 -2.5322  1.9768
28118SOL     OW93131   3.683   3.571   3.518  0.0607 -0.1642  0.3014
28118SOL    HW193132   3.615   3.536   3.575 -0.9859  0.3365 -0.6074
28118SOL    HW293133   3.668   3.666   3.517 -0.1032 -0.1814 -0.9763
28119SOL     OW93134   9.275   0.856   6.875 -0.1181  0.3194 -0.2727
28119SOL    HW193135   9.226   0.937   6.887  0.2614  0.4253  0.6710
28119SOL    HW293136   9.364   0.877   6.901 -0.2686 -0.6932  1.2023
28120SOL     OW93137   2.010   9.401  12.528 -0.3074  0.0782 -0.5028
28120SOL    HW193138   1.961   9.340  12.583  0.1722 -2.3339 -2.5561
28120SOL    HW293139   2.041   9.468  12.588 -1.4140 -1.3553  1.7982
28121SOL     OW93140   2.478   4.922   9.532  0.0258  0.4205 -0.8729
28121SOL    HW193141   2.515   4.849   9.581 -1.5857  0.7037  0.8977
28121SOL    HW293142   2.399   4.887   9.492 -0.8313  1.1743  0.0961
28122SOL     OW93143   3.186   8.305   7.938  0.5193 -0.2687 -0.0145
28122SOL    HW193144   3.091   8.306   7.948  0.4033  0.7192 -1.0169
28122SOL    HW293145   3.213   8.219   7.971 -0.4547  0.2850  2.3828
28123SOL     OW93146   6.437   3.399   2.641 -0.1841 -0.1883 -0.4904
28123SOL    HW193147   6.463   3.307   2.635  0.8556 -0.0700  1.5029
28123SOL    HW293148   6.516   3.446   2.667 -0.5940  1.3672 -1.8457
28124SOL     OW93149   0.425   5.554   3.420 -0.0571 -0.1663 -0.6917
28124SOL    HW193150   0.508   5.554   3.372  1.3708  1.6664  1.5839
28124SOL    HW293151   0.423   5.469   3.463 -0.3168 -0.9650 -2.2116
28125SOL     OW93152   4.597  12.374   1.630 -0.3899 -0.3458 -0.5601
28125SOL    HW193153   4.675  12.401   1.679 -1.1602 -1.1925  1.2436
28125SOL    HW293154   4.554  12.456   1.606 -0.0576  0.1122  0.3539
28126SOL     OW93155   6.606   2.638   8.337  0.0854  0.2591 -1.0266
28126SOL    HW193156   6.591   2.730   8.356  1.1331  0.0203  1.2659
28126SOL    HW293157   6.519   2.598   8.341 -0.0215  0.6002  1.5793
28127SOL     OW93158   4.418   0.282   2.798 -0.1058  0.0603 -0.8659
28127SOL    HW193159   4.372   0.366   2.804  1.4558  1.0031 -1.2663
28127SOL    HW293160   4.472   0.290   2.719  2.6893  0.1226  0.9095
28128SOL     OW93161   3.494   3.788   6.195 -0.1779 -0.4359  0.2196
28128SOL    HW193162   3.415   3.760   6.242  0.1140 -1.5262  0.0848
28128SOL    HW293163   3.467   3.795   6.104 -0.7677  1.7679  0.5130
28129SOL     OW93164   3.393   1.300   5.695  0.0314  0.1058  0.2921
28129SOL    HW193165   3.449   1.366   5.655 -0.8680  0.6416 -0.1198
28129SOL    HW293166   3.419   1.218   5.654 -0.2769  0.5206 -0.7665
28130SOL     OW93167   4.435   2.837   2.156  0.0396  0.6845 -0.5295
28130SOL    HW193168   4.521   2.804   2.181 -0.3433 -0.1109 -0.2339
28130SOL    HW293169   4.373   2.791   2.213 -0.6173  0.9348 -1.0196
28131SOL     OW93170   2.800   3.523   5.632 -0.1134 -0.3879 -0.2473
28131SOL    HW193171   2.852   3.463   5.578  0.3240 -0.1919 -0.0437
28131SOL    HW293172   2.764   3.468   5.701 -0.2963 -0.5508 -0.4700
28132SOL     OW93173   1.017   4.138   2.140  0.1106  0.1462 -0.6590
28132SOL    HW193174   1.035   4.222   2.098 -1.0605  1.2904  0.9831
28132SOL    HW293175   0.926   4.118   2.117  0.4418 -0.8074 -1.2113
28133SOL     OW93176   3.963   5.325   5.138 -0.1964 -0.0972 -0.4756
28133SOL    HW193177   3.943   5.320   5.045  1.6937 -0.4905 -0.8892
28133SOL    HW293178   3.888   5.282   5.180 -0.1853 -1.6567 -1.9336
28134SOL     OW93179   9.072   4.351   5.558 -0.3778  0.0978  0.2237
28134SOL    HW193180   9.018   4.301   5.619  1.2300 -2.4307 -0.2336
28134SOL    HW293181   9.012   4.376   5.487 -1.3741 -0.7803  0.7287
28135SOL     OW93182  11.311   9.942   3.331  0.1078 -0.3538  0.2589
28135SOL    HW193183  11.288   9.858   3.292  0.2008 -0.8287  1.1969
28135SOL    HW293184  11.303   9.928   3.425 -1.3446  1.1137  0.3951
28136SOL     OW93185   1.725  10.837   2.063 -0.1171 -0.0702 -0.1338
28136SOL    HW193186   1.817  10.812   2.072 -0.7846 -2.1585  2.0689
28136SOL    HW293187   1.726  10.932   2.054  2.2732 -0.1409 -1.5474
28137SOL     OW93188  11.816   2.618   0.839  0.0373 -0.0202 -0.4399
28137SOL    HW193189  11.777   2.692   0.792 -1.6034 -0.5783 -0.0375
28137SOL    HW293190  11.889   2.591   0.784  0.5374  1.7416 -0.7134
28138SOL     OW93191  10.545   1.161   5.636 -0.1293  0.4554 -0.4663
28138SOL    HW193192  10.595   1.201   5.708 -0.3271 -1.1318  0.6079
28138SOL    HW293193  10.581   1.201   5.557  2.2849  0.0202  0.3136
28139SOL     OW93194   5.000   6.397   5.163  0.1750  0.1284  0.1649
28139SOL    HW193195   5.063   6.447   5.110 -1.6138  0.7155 -1.5512
28139SOL    HW293196   5.054   6.343   5.220  2.2166  1.1734 -0.6697
28140SOL     OW93197   0.344   9.949  12.308 -0.0420  0.3439  0.1402
28140SOL    HW193198   0.423   9.930  12.259 -1.0334  1.3531 -1.9718
28140SOL    HW293199   0.363   9.920  12.397  3.1185  1.6033 -0.0045
28141SOL     OW93200   8.454   3.784  10.897  0.0340  0.5755  0.2379
28141SOL    HW193201   8.359   3.795  10.890  0.1843  1.2828 -0.9135
28141SOL    HW293202   8.468   3.759  10.988 -1.2233  0.8126  0.5219
28142SOL     OW93203   4.624  11.882   1.041 -0.3706  0.4376 -0.2744
28142SOL    HW193204   4.673  11.835   1.109  0.2531  1.9086  0.3429
28142SOL    HW293205   4.677  11.874   0.962 -0.2632  0.1071 -0.1673
28143SOL     OW93206   7.463   4.377   0.777  0.4829 -0.1174  0.1214
28143SOL    HW193207   7.529   4.314   0.749  0.5633 -0.4736  1.0729
28143SOL    HW293208   7.502   4.463   0.759  0.7487 -0.3287 -0.3267
28144SOL     OW93209   9.864  11.302   6.407 -0.2512 -0.4436 -0.3273
28144SOL    HW193210   9.944  11.262   6.374  2.8315  1.0446  4.3728
28144SOL    HW293211   9.814  11.229   6.444  1.2450 -1.0060  0.6935
28145SOL     OW93212  10.764   7.301  12.049  0.0226  0.1252  0.3051
28145SOL    HW193213  10.715   7.242  12.107  1.1091  0.5792  1.7598
28145SOL    HW293214  10.838   7.249  12.020  1.7398  1.0595  2.6777
28146SOL     OW93215  12.330   5.742   8.593  0.0994  0.0803 -0.5559
28146SOL    HW193216  12.245   5.723   8.553 -0.4452  1.2046  0.0106
28146SOL    HW293217  12.390   5.754   8.520 -0.3725 -0.0688 -0.9723
28147SOL     OW93218   1.087   4.732   8.296 -0.0534 -0.1335  0.5240
28147SOL    HW193219   1.083   4.644   8.258 -0.2820  0.3842 -0.6895
28147SOL    HW293220   1.090   4.717   8.391  3.5685 -1.5913  0.3535
28148SOL     OW93221   1.124  10.537   5.603  0.1653 -0.5840 -0.6584
28148SOL    HW193222   1.137  10.470   5.670  0.4409 -0.3374 -0.4664
28148SOL    HW293223   1.101  10.616   5.651  1.2536 -0.1772 -0.7838
28149SOL     OW93224  11.512   4.662   6.860  0.0313 -0.0236 -0.1997
28149SOL    HW193225  11.525   4.665   6.766  1.9321 -1.4272 -0.0471
28149SOL    HW293226  11.483   4.572   6.878 -1.5685  0.5713  0.4699
28150SOL     OW93227   8.280  12.528  12.108 -0.3640 -0.5983  0.6357
28150SOL    HW193228   8.239  12.481  12.181 -0.1669 -0.2457  0.9728
28150SOL    HW293229   8.355  12.474  12.084  0.4621  0.0370  1.6864
28151SOL     OW93230   6.133   2.002   7.379 -0.0934 -0.4538 -0.0358
28151SOL    HW193231   6.087   1.925   7.413  0.6950 -1.6402 -1.5297
28151SOL    HW293232   6.207   1.966   7.330  1.2884  1.3242  0.6108
28152SOL     OW93233   9.241   4.746  11.747  0.0875 -0.0122  0.3544
28152SOL    HW193234   9.322   4.732  11.699  0.0116  1.4414 -0.2327
28152SOL    HW293235   9.173   4.707  11.691  0.2283 -0.1043  0.2487
28153SOL     OW93236   8.052  10.784   3.244 -0.7771  0.1161  0.4251
28153SOL    HW193237   8.006  10.815   3.166 -1.3258 -1.4985  0.0794
28153SOL    HW293238   7.993  10.805   3.316 -0.2653  1.6223  0.4550
28154SOL     OW93239   5.609   2.335  12.552 -0.3604 -0.1562 -0.7022
28154SOL    HW193240   5.574   2.412  12.507  0.7143  0.8157  0.0575
28154SOL    HW293241   5.554   2.326  12.629 -1.3684 -1.0163 -1.5064
28155SOL     OW93242   4.283   9.903  11.412  0.4585 -0.0340 -0.0305
28155SOL    HW193243   4.189   9.896  11.401  0.7465 -1.1550 -2.2126
28155SOL    HW293244   4.300   9.872  11.501 -1.1679 -0.3006  0.2029
28156SOL     OW93245   5.717  12.111  10.780  0.0291  0.0994  0.7302
28156SOL    HW193246   5.654  12.152  10.839 -1.1316 -1.4364  0.6251
28156SOL    HW293247   5.677  12.120  10.693  0.6312  0.3411  0.4756
28157SOL     OW93248  11.304  10.675   3.569 -0.2995 -0.1298  0.7375
28157SOL    HW193249  11.372  10.661   3.635 -1.0344  0.8120  1.7251
28157SOL    HW293250  11.264  10.589   3.557  1.6751 -0.9312 -0.6011
28158SOL     OW93251   8.126   5.697   6.725  0.0523  0.4373  0.1195
28158SOL    HW193252   8.213   5.705   6.764  0.9494 -1.6206 -1.2647
28158SOL    HW293253   8.124   5.764   6.658  0.0947  1.2721  0.9380
28159SOL     OW93254   1.327   9.093   5.553 -0.4445 -0.1880 -0.1900
28159SOL    HW193255   1.359   9.010   5.588 -0.3268 -0.7521 -1.5545
28159SOL    HW293256   1.402   9.130   5.508  0.1646  1.8022  2.2665
28160SOL     OW93257   1.450  12.161   5.971  0.0815 -0.0538  0.4536
28160SOL    HW193258   1.470  12.236   5.916  0.3487 -0.3451  0.1432
28160SOL    HW293259   1.530  12.148   6.023  0.2416 -0.4410  0.1249
28161SOL     OW93260   7.604  10.794   8.985  0.5154 -0.3082  0.4257
28161SOL    HW193261   7.605  10.836   9.071  3.1692 -0.7111  0.6714
28161SOL    HW293262   7.576  10.863   8.925 -1.7296 -0.1172  1.5944
28162SOL     OW93263   3.912   1.885   0.934  0.0296  0.1355  0.2561
28162SOL    HW193264   3.839   1.850   0.883 -0.3500  1.9861 -0.5322
28162SOL    HW293265   3.967   1.930   0.870  1.8768 -1.1560  0.8431
28163SOL     OW93266   5.932   1.204   5.576  0.9893 -1.0012  0.5174
28163SOL    HW193267   6.024   1.194   5.600  1.5816  1.3093 -0.4618
28163SOL    HW293268   5.917   1.299   5.579 -1.1242 -1.2545 -0.2173
28164SOL     OW93269  12.318  12.595   7.121 -0.4408 -0.3058  0.5691
28164SOL    HW193270  12.240  12.636   7.083 -1.0881  0.7573  2.8504
28164SOL    HW293271  12.283  12.544   7.195  0.6554 -2.8779 -0.5742
28165SOL     OW93272  12.373   1.338   1.190  0.2994 -0.3760  0.3977
28165SOL    HW193273  12.461   1.302   1.191  1.1198  1.4766 -0.3547
28165SOL    HW293274  12.368   1.393   1.269 -0.6584 -1.4779  1.1325
28166SOL     OW93275   3.867  11.466   3.147  0.1467 -0.0074 -0.3461
28166SOL    HW193276   3.897  11.376   3.138  2.1531  0.7999 -3.2775
28166SOL    HW293277   3.787  11.470   3.095  0.4689  0.0318 -0.8497
28167SOL     OW93278   0.979   1.377   2.275 -0.7301  0.0146  0.2041
28167SOL    HW193279   1.040   1.452   2.279  0.5831 -1.0054  0.1395
28167SOL    HW293280   0.945   1.369   2.364 -0.6206  0.4920  0.2916
28168SOL     OW93281   2.340  11.492   0.609  0.0469  0.1735  0.0142
28168SOL    HW193282   2.276  11.516   0.676 -0.5160  0.1743 -0.5141
28168SOL    HW293283   2.333  11.397   0.601  1.1691 -0.0152  0.9967
28169SOL     OW93284  11.027  11.034   1.207 -0.3686  0.1637  0.0706
28169SOL    HW193285  11.076  11.079   1.276 -0.2608  2.4385 -1.3767
28169SOL    HW293286  11.094  10.992   1.154 -0.4978 -2.2982  1.7046
28170SOL     OW93287   8.096   3.018   3.242 -0.2698  0.1979 -0.1067
28170SOL    HW193288   8.002   3.025   3.228  0.0583  0.8797 -2.3898
28170SOL    HW293289   8.125   3.108   3.255  0.1016  0.0183  0.3316
28171SOL     OW93290   1.246   8.992  12.277  0.1528  0.3809  0.4304
28171SOL    HW193291   1.293   9.063  12.321 -0.0096  1.5303 -1.1696
28171SOL    HW293292   1.313   8.929  12.252  0.5526  0.8959  0.1992
28172SOL     OW93293   9.191   2.428   3.857  0.4768  0.0022  0.7635
28172SOL    HW193294   9.252   2.374   3.806  1.5029  1.0157  0.8622
28172SOL    HW293295   9.222   2.421   3.947  1.5099  1.8238  0.5955
28173SOL     OW93296   2.097   8.419   2.967  0.6185  0.0894 -0.0264
28173SOL    HW193297   2.072   8.493   3.022 -0.1387 -1.0723  1.2596
28173SOL    HW293298   2.068   8.443   2.879  0.0264  1.1466  0.4489
28174SOL     OW93299   7.737   2.171   6.045  0.4511  0.1094 -0.0391
28174SOL    HW193300   7.830   2.154   6.060  0.2609 -1.8390 -0.8741
28174SOL    HW293301   7.724   2.154   5.952 -0.8692 -0.2778  0.1967
28175SOL     OW93302   2.182   4.909   5.918  0.3867  0.1555 -0.0669
28175SOL    HW193303   2.139   4.885   5.836  0.5473  0.6805 -0.3105
28175SOL    HW293304   2.272   4.930   5.892  0.6993 -0.5908  0.3827
28176SOL     OW93305  12.166   2.510   5.188 -0.1535  0.6146  0.1997
28176SOL    HW193306  12.132   2.595   5.216 -0.3382  0.7532 -0.4331
28176SOL    HW293307  12.130   2.497   5.101 -0.7932 -0.4960  0.6129
28177SOL     OW93308   6.691   9.364  10.626  0.2731  0.7114  0.1413
28177SOL    HW193309   6.655   9.341  10.541  0.7794  1.2204 -0.2154
28177SOL    HW293310   6.775   9.319  10.630  0.1071  0.4331  0.5035
28178SOL     OW93311   0.312   2.247   4.100 -0.3273  0.4402  0.1538
28178SOL    HW193312   0.397   2.214   4.126 -1.1245 -1.6267  0.3030
28178SOL    HW293313   0.309   2.337   4.133  2.1991  0.9696 -0.8560
28179SOL     OW93314   0.787   4.486   8.081 -0.3188 -0.3430 -0.7349
28179SOL    HW193315   0.696   4.468   8.105  0.1078 -0.5955  0.8152
28179SOL    HW293316   0.783   4.511   7.988 -2.0478  0.4071 -0.4982
28180SOL     OW93317   9.835   6.960   5.168 -0.4763 -0.1156 -0.4666
28180SOL    HW193318   9.930   6.949   5.172 -0.5531 -0.3293  1.7375
28180SOL    HW293319   9.804   6.887   5.114  0.4673 -1.1517  0.3497
28181SOL     OW93320   0.881   1.809   7.209  0.4826  0.4069 -0.0674
28181SOL    HW193321   0.841   1.893   7.231  0.4763  0.3875 -0.0052
28181SOL    HW293322   0.888   1.810   7.113 -1.0448 -0.2218 -0.2160
28182SOL     OW93323  12.471   1.048   6.219 -0.0842  0.2066 -0.4286
28182SOL    HW193324  12.465   1.094   6.302  0.6847 -0.2545 -0.1159
28182SOL    HW293325  12.392   1.075   6.171 -0.6717  0.2679  0.5459
28183SOL     OW93326   3.057  11.442   0.561 -0.0379  0.7609  0.6286
28183SOL    HW193327   2.964  11.420   0.562  0.4331 -2.2992 -2.3238
28183SOL    HW293328   3.087  11.425   0.650 -1.5577 -2.6729  0.6352
28184SOL     OW93329   8.332   9.436   0.940 -0.8480  0.2362  0.3430
28184SOL    HW193330   8.364   9.504   1.000 -1.3978  0.0291  0.8876
28184SOL    HW293331   8.244   9.465   0.915 -1.4004 -0.6243  1.1818
28185SOL     OW93332   6.457   9.805   1.414  0.3268  0.4214  0.3641
28185SOL    HW193333   6.371   9.783   1.379 -0.0017 -0.3670  1.5830
28185SOL    HW293334   6.465   9.899   1.401  1.3474 -0.0819 -4.1287
28186SOL     OW93335   9.552  11.358   2.362 -0.1705 -0.1586 -0.5039
28186SOL    HW193336   9.535  11.440   2.317 -0.5884  0.2563  0.3892
28186SOL    HW293337   9.639  11.332   2.333 -0.5191 -0.0116 -1.7030
28187SOL     OW93338  12.266  11.673   4.638 -0.2042  0.1744  0.1469
28187SOL    HW193339  12.174  11.688   4.616  0.1301  0.2343 -1.3028
28187SOL    HW293340  12.283  11.583   4.612  0.8434  0.9884 -2.2991
28188SOL     OW93341   8.646   2.825   6.728  0.1904 -0.2880 -0.1887
28188SOL    HW193342   8.621   2.733   6.719 -0.5939 -0.0287 -0.7947
28188SOL    HW293343   8.647   2.859   6.638 -1.7092  0.8356  0.1600
28189SOL     OW93344   4.182   8.737   0.228  0.2384  0.3133 -0.1659
28189SOL    HW193345   4.277   8.726   0.235  0.2004 -0.2746 -0.4833
28189SOL    HW293346   4.149   8.711   0.314  0.0726 -3.2828 -1.1442
28190SOL     OW93347   3.283   6.302   7.012 -0.0204 -0.3535  0.3222
28190SOL    HW193348   3.378   6.294   7.020  0.0540  1.3964  1.6120
28190SOL    HW293349   3.266   6.285   6.919  1.3624 -1.9904  0.3127
28191SOL     OW93350  10.832   6.990   9.932 -0.1263  0.1517 -0.4003
28191SOL    HW193351  10.825   6.895   9.938 -0.2553  0.1281 -0.8763
28191SOL    HW293352  10.791   7.022  10.012  0.2374 -0.2046 -0.0705
28192SOL     OW93353   8.985   3.443   3.228 -0.2629  0.0852 -0.2165
28192SOL    HW193354   8.898   3.412   3.201  0.4860 -0.2428 -2.4499
28192SOL    HW293355   8.998   3.404   3.314 -1.1926 -2.2094 -1.0262
28193SOL     OW93356   1.024  10.760  12.362  0.2091 -0.0327  0.5433
28193SOL    HW193357   1.024  10.848  12.325 -0.8540 -0.7519 -1.3018
28193SOL    HW293358   0.944  10.756  12.415 -1.2290 -0.6349 -1.5113
28194SOL     OW93359  12.310   3.027   3.769 -0.0179 -0.2578 -0.6558
28194SOL    HW193360  12.357   3.110   3.759  0.2730 -0.3343  0.0354
28194SOL    HW293361  12.329   2.979   3.688  2.4328 -0.9337  0.2247
28195SOL     OW93362  10.965   3.235   3.526 -0.0219 -0.1832 -0.5197
28195SOL    HW193363  11.032   3.270   3.584 -2.7789 -0.1721  2.9686
28195SOL    HW293364  10.921   3.167   3.578 -2.8633 -0.0119 -2.4666
28196SOL     OW93365   6.264   9.093   9.955  0.8848  0.4087  0.3034
28196SOL    HW193366   6.215   9.165   9.994  1.7151  1.4521 -0.5276
28196SOL    HW293367   6.248   9.019  10.013 -0.5072  1.0847  0.8237
28197SOL     OW93368  11.186   2.653   9.661  0.2562 -0.2016  0.0489
28197SOL    HW193369  11.162   2.564   9.686  2.9816 -1.5920 -1.7922
28197SOL    HW293370  11.271   2.667   9.703  0.1339  1.3577 -0.1542
28198SOL     OW93371  12.346   3.247   4.593  0.1862  0.0869 -0.6393
28198SOL    HW193372  12.364   3.341   4.599  2.4405 -0.2223 -1.7427
28198SOL    HW293373  12.348   3.216   4.684  0.6003  0.8955 -0.3643
28199SOL     OW93374  12.249   5.749  11.641 -0.5189  0.9331 -0.1337
28199SOL    HW193375  12.213   5.770  11.727 -1.4848 -0.1925 -0.2391
28199SOL    HW293376  12.271   5.834  11.604 -0.5630  1.4711  1.0189
28200SOL     OW93377  11.438  10.193   3.965  0.0159  0.0411 -0.3066
28200SOL    HW193378  11.499  10.205   4.038 -2.5806 -0.3583  2.1134
28200SOL    HW293379  11.404  10.104   3.977 -1.9350  0.6803 -0.7407
28201SOL     OW93380  11.240   4.821   9.789  0.2134  0.0286 -0.4341
28201SOL    HW193381  11.218   4.877   9.714  1.5286  1.2688  0.0839
28201SOL    HW293382  11.335   4.828   9.797  0.5771 -3.0000 -0.8909
28202SOL     OW93383   4.395  11.129   5.327 -0.4291  0.0583  0.0664
28202SOL    HW193384   4.397  11.169   5.240  2.0499  1.0657  0.5108
28202SOL    HW293385   4.335  11.183   5.377  2.3295  3.0287  0.4553
28203SOL     OW93386   6.363  11.735   2.876  0.6070 -0.4216 -0.0856
28203SOL    HW193387   6.340  11.820   2.912 -0.2022 -0.9799  0.7510
28203SOL    HW293388   6.370  11.678   2.952  0.9862 -1.1502 -0.6524
28204SOL     OW93389   8.942  11.918   4.243 -0.0192  0.4339 -0.0839
28204SOL    HW193390   8.904  11.922   4.155 -0.5388  0.5871  0.1407
28204SOL    HW293391   8.999  11.841   4.241  0.4643  0.8008 -0.7414
28205SOL     OW93392   3.285   7.959   0.958 -0.2173 -0.4244  0.2654
28205SOL    HW193393   3.288   8.053   0.944  0.4981 -0.5395 -0.4047
28205SOL    HW293394   3.291   7.949   1.054 -2.2444  0.2606  0.4960
28206SOL     OW93395  10.639  11.886   6.115 -0.1457 -0.4998 -0.1630
28206SOL    HW193396  10.679  11.905   6.031  1.0192  0.9642  0.6713
28206SOL    HW293397  10.588  11.964   6.136 -1.8319 -1.5228 -0.2605
28207SOL     OW93398   1.556   5.862   8.386 -0.1724  0.1550  0.1044
28207SOL    HW193399   1.514   5.846   8.302  1.5809 -0.0970 -0.7721
28207SOL    HW293400   1.604   5.781   8.405  0.8658  0.8361  0.4695
28208SOL     OW93401   2.775   5.188   1.316 -0.1397 -0.2338  0.3341
28208SOL    HW193402   2.691   5.160   1.279 -1.3763 -0.2201  2.8917
28208SOL    HW293403   2.830   5.206   1.240 -2.2112 -0.9401 -1.4364
28209SOL     OW93404  12.349   4.715   9.082 -0.5467  0.2174  0.3828
28209SOL    HW193405  12.369   4.748   9.170 -1.9741  2.3399 -0.0082
28209SOL    HW293406  12.258   4.686   9.088 -0.1312 -1.2535 -0.0038
28210SOL     OW93407   4.990  10.587   8.461  0.5290  0.0190  0.5975
28210SOL    HW193408   4.903  10.548   8.468  0.7195 -0.3452  1.0436
28210SOL    HW293409   4.983  10.649   8.389 -0.1031  0.0011  0.6349
28211SOL     OW93410  10.304   1.437   1.161 -0.2812  0.0910 -0.1807
28211SOL    HW193411  10.376   1.469   1.107 -1.2962  0.5385 -1.3191
28211SOL    HW293412  10.248   1.388   1.100 -2.7081  2.5914 -0.1387
28212SOL     OW93413   6.941   8.901   2.753  0.1903 -0.0378  0.2268
28212SOL    HW193414   6.925   8.938   2.840 -1.8029  0.0980 -0.1310
28212SOL    HW293415   6.966   8.810   2.769 -1.2578 -0.3439  0.9530
28213SOL     OW93416   6.569  10.696   4.747  0.0852  0.2073  0.0944
28213SOL    HW193417   6.627  10.620   4.743 -0.6671 -0.5033  1.7972
28213SOL    HW293418   6.482  10.661   4.728 -0.1077  0.8745 -0.2908
28214SOL     OW93419   6.677  10.553   5.216 -0.2568  0.3190  0.5070
28214SOL    HW193420   6.660  10.492   5.143 -2.9272  2.1899 -0.6248
28214SOL    HW293421   6.709  10.632   5.174 -1.9566  1.4784  1.2682
28215SOL     OW93422   8.074   8.066   9.739 -0.2678  0.1315 -0.3024
28215SOL    HW193423   8.039   8.004   9.674 -0.2053 -1.3312  1.0036
28215SOL    HW293424   8.107   8.139   9.687 -0.6755 -0.7597 -1.8827
28216SOL     OW93425   4.661   2.957   1.948  0.1179  0.1966  0.2242
28216SOL    HW193426   4.736   2.939   2.004 -0.3636  0.0407  0.8339
28216SOL    HW293427   4.589   2.977   2.009 -0.7824 -1.3874 -0.2529
28217SOL     OW93428  10.868   1.280   8.032 -0.0705 -0.2772 -0.6630
28217SOL    HW193429  10.917   1.225   8.094 -0.3637  1.2183  0.9682
28217SOL    HW293430  10.925   1.285   7.955  1.2565 -0.5672  0.2608
28218SOL     OW93431   8.167   8.014  10.224  0.0851 -0.0811  0.2851
28218SOL    HW193432   8.216   8.064  10.159 -3.2345 -0.1188 -2.5471
28218SOL    HW293433   8.228   7.945  10.252  2.9681  2.2711  0.3089
28219SOL     OW93434   2.908   2.980   2.040 -1.0345 -0.3470  0.3036
28219SOL    HW193435   2.864   3.057   2.004 -3.2157 -1.1186  1.1289
28219SOL    HW293436   2.939   3.008   2.126 -0.7560 -0.0780  0.1192
28220SOL     OW93437   3.341   2.249   4.219  0.1315 -0.1822 -0.0895
28220SOL    HW193438   3.282   2.322   4.199  0.9909  0.8743  1.0445
28220SOL    HW293439   3.283   2.178   4.247 -0.6232  0.7949  0.9046
28221SOL     OW93440   2.191   4.740   8.196 -0.0489 -0.5871 -0.1552
28221SOL    HW193441   2.267   4.732   8.254 -1.5508 -0.4252  1.9405
28221SOL    HW293442   2.144   4.658   8.206 -1.2141  0.1048  0.1621
28222SOL     OW93443  10.806   5.621   1.322 -0.0371  0.2470  0.2567
28222SOL    HW193444  10.874   5.687   1.309 -0.5931  0.5726 -1.2622
28222SOL    HW293445  10.834   5.547   1.268 -1.6522  1.0216 -1.8073
28223SOL     OW93446  11.898   5.289   2.281 -0.4187  0.1301 -0.1659
28223SOL    HW193447  11.968   5.335   2.233 -0.6871  0.0675 -0.6164
28223SOL    HW293448  11.888   5.206   2.234 -1.3003  0.4451 -0.5473
28224SOL     OW93449   8.392   2.110   8.887 -0.1578  0.3906  0.0422
28224SOL    HW193450   8.459   2.178   8.879  0.2580  0.0078  0.2422
28224SOL    HW293451   8.374   2.083   8.797  0.4658  0.0092  0.0273
28225SOL     OW93452   8.926   1.560   0.632 -0.1003 -0.3896 -0.0861
28225SOL    HW193453   8.878   1.614   0.570  0.6762  0.5699  0.1211
28225SOL    HW293454   8.873   1.560   0.711  0.2171  0.6667  0.1448
28226SOL     OW93455   9.572  10.759  11.420 -0.3791  0.1051 -0.0364
28226SOL    HW193456   9.496  10.792  11.468  0.1122  1.7380 -0.3287
28226SOL    HW293457   9.536  10.725  11.338 -0.9283 -0.2448  0.3499
28227SOL     OW93458   7.211   0.899  10.469  0.5546 -0.2426 -0.1860
28227SOL    HW193459   7.231   0.885  10.376 -0.1242 -1.8198 -0.1312
28227SOL    HW293460   7.229   0.992  10.484  1.8599 -0.2308 -1.5892
28228SOL     OW93461   5.695   9.466   3.843  0.3766  0.3752  0.1893
28228SOL    HW193462   5.632   9.536   3.825  3.1638  2.6308 -1.5928
28228SOL    HW293463   5.683   9.404   3.771  0.5863  1.1167 -0.4955
28229SOL     OW93464   4.325  12.174   6.106 -0.3124  0.2242  0.5825
28229SOL    HW193465   4.396  12.138   6.158  0.6761  1.5417  0.2092
28229SOL    HW293466   4.365  12.246   6.057 -0.6872 -1.9791 -3.4070
28230SOL     OW93467   6.821   4.313   8.751  0.5579  0.3883  0.5789
28230SOL    HW193468   6.894   4.268   8.794  0.2601  0.6956  1.4133
28230SOL    HW293469   6.787   4.373   8.817 -0.8571 -0.2053  0.4342
28231SOL     OW93470   5.029   1.900   8.962 -0.6497 -0.1601  0.0582
28231SOL    HW193471   4.975   1.896   8.883 -0.7376 -1.6146  0.1526
28231SOL    HW293472   5.009   1.986   9.000 -0.3244  0.7254 -1.6631
28232SOL     OW93473   3.982   0.355  12.534 -0.9065 -0.7240 -0.3095
28232SOL    HW193474   4.033   0.355  12.615  0.2561 -4.1345 -0.8601
28232SOL    HW293475   3.905   0.408  12.554  0.2751  0.1859  2.3435
28233SOL     OW93476   0.772  10.510  12.064 -0.5458  0.3496 -0.2522
28233SOL    HW193477   0.721  10.588  12.084 -1.4996 -0.5562  1.0281
28233SOL    HW293478   0.764  10.455  12.142  1.7451 -0.1942 -0.3241
28234SOL     OW93479  11.813   9.210   4.873 -0.1414 -0.0769  0.5680
28234SOL    HW193480  11.831   9.172   4.787  1.5469 -1.6758  1.5566
28234SOL    HW293481  11.757   9.145   4.917 -0.2590  0.3027  0.9852
28235SOL     OW93482   8.718   4.066   9.053  0.1474  0.0740  1.0066
28235SOL    HW193483   8.769   4.078   8.973 -0.4602  0.4392  0.6583
28235SOL    HW293484   8.638   4.116   9.037  0.3411  0.7770  2.1487
28236SOL     OW93485   1.242   0.952   3.772  0.0008 -0.3733 -0.0702
28236SOL    HW193486   1.186   0.886   3.813 -1.5830 -0.4674 -2.2599
28236SOL    HW293487   1.187   0.993   3.706  2.6013 -0.8206 -2.7097
28237SOL     OW93488   2.643  10.786   7.741  0.0675  0.1374 -0.2010
28237SOL    HW193489   2.638  10.690   7.745  1.9436  0.0224  0.0441
28237SOL    HW293490   2.712  10.809   7.802  1.4294  1.4514 -2.1122
28238SOL     OW93491   2.084   4.116   4.941  0.0726 -0.4252  0.3493
28238SOL    HW193492   2.067   4.137   5.033 -0.2319  0.4482  0.1017
28238SOL    HW293493   2.151   4.048   4.945  0.3912 -0.0886  1.2148
28239SOL     OW93494   1.009   9.102   4.792  0.3229 -0.7511  0.7366
28239SOL    HW193495   1.008   9.115   4.697  0.5561 -2.7637  0.4050
28239SOL    HW293496   0.945   9.032   4.807 -0.7247  0.4645  2.2563
28240SOL     OW93497  12.367   4.423   6.125  0.2668  0.3109 -0.0747
28240SOL    HW193498  12.283   4.377   6.119  0.6148 -0.5738  1.3617
28240SOL    HW293499  12.432   4.357   6.103  0.5554  1.5109 -3.3202
28241SOL     OW93500   5.704   9.983   5.714 -0.4555 -0.2086 -0.1042
28241SOL    HW193501   5.709  10.007   5.807 -2.3905  2.8996 -0.6739
28241SOL    HW293502   5.612   9.995   5.691 -0.0682 -1.1632 -2.4103
28242SOL     OW93503   1.827   4.323   1.659 -0.4872  0.6811  0.1188
28242SOL    HW193504   1.905   4.293   1.612 -0.1918 -0.2609  1.1594
28242SOL    HW293505   1.761   4.334   1.590  1.1442  3.8660 -1.1626
28243SOL     OW93506   1.646   8.268  11.275  0.0541  0.3816 -0.0438
28243SOL    HW193507   1.708   8.255  11.204  0.1811  0.1017  0.1205
28243SOL    HW293508   1.603   8.352  11.254 -2.0470 -1.0631 -2.0475
28244SOL     OW93509   9.635   7.837  11.675 -0.0592 -0.0353  0.0559
28244SOL    HW193510   9.649   7.756  11.625  0.1273 -0.2379  0.4353
28244SOL    HW293511   9.550   7.825  11.717  0.1319 -0.1864  0.4017
28245SOL     OW93512  12.208   8.440  10.300  0.6004 -0.0654 -0.3184
28245SOL    HW193513  12.268   8.373  10.334  0.1789 -0.6726 -0.7646
28245SOL    HW293514  12.263   8.518  10.291  1.2436 -0.5199 -0.3941
28246SOL     OW93515   4.613  10.266   1.299 -0.0619  0.8091 -0.1494
28246SOL    HW193516   4.622  10.172   1.310 -1.6821  0.7953  1.6009
28246SOL    HW293517   4.667  10.304   1.367 -0.3580  1.1068 -0.0770
28247SOL     OW93518   5.397   8.945   3.078 -0.4913 -0.0362 -0.3471
28247SOL    HW193519   5.440   8.999   3.013  0.2089  0.2716  0.3520
28247SOL    HW293520   5.468   8.898   3.122 -1.0333 -1.0337 -0.4992
28248SOL     OW93521   3.108   7.039  10.209 -0.3117 -0.3808  0.2516
28248SOL    HW193522   3.201   7.024  10.225 -0.2966 -0.1898  0.3517
28248SOL    HW293523   3.075   6.956  10.175 -0.0554 -0.3772 -0.0048
28249SOL     OW93524   8.830  11.901   1.247 -0.9046  0.0830  0.1185
28249SOL    HW193525   8.819  11.933   1.157  0.2061  1.8237  0.5451
28249SOL    HW293526   8.747  11.922   1.290 -1.1505 -0.0244 -0.3019
28250SOL     OW93527   5.007  11.346   6.716 -0.5363  0.1617  0.0851
28250SOL    HW193528   5.013  11.269   6.659 -1.4126  0.4872 -0.4720
28250SOL    HW293529   4.941  11.323   6.781  0.3138 -0.1289  0.8665
28251SOL     OW93530   9.510   7.480   6.539 -0.0095  0.0039 -0.8142
28251SOL    HW193531   9.503   7.425   6.461  2.1874 -1.1869 -0.2523
28251SOL    HW293532   9.601   7.468   6.569 -0.3348  1.6463  1.0334
28252SOL     OW93533   7.358   3.924  11.443  0.4535  0.0502  0.0609
28252SOL    HW193534   7.413   3.952  11.370  2.2028  1.4010  1.7781
28252SOL    HW293535   7.369   3.829  11.446  1.3005  0.1075 -0.7220
28253SOL     OW93536   7.174   7.879  10.569 -0.3036 -0.4825 -0.0647
28253SOL    HW193537   7.231   7.951  10.597  1.2740 -1.5091 -0.5236
28253SOL    HW293538   7.183   7.876  10.474 -1.2941 -0.5583 -0.1721
28254SOL     OW93539   9.868   6.505   6.689  0.0100  0.7059  0.0896
28254SOL    HW193540   9.938   6.563   6.720  0.6976 -0.0626  0.0023
28254SOL    HW293541   9.880   6.502   6.594  0.0384  0.3430  0.1040
28255SOL     OW93542   5.925   2.943   9.562 -0.6985 -0.0727  0.3567
28255SOL    HW193543   5.837   2.929   9.528 -0.5432  1.4135 -0.7527
28255SOL    HW293544   5.953   2.856   9.592 -1.9440 -0.8843 -0.7206
28256SOL     OW93545  11.000   1.918   2.345  0.0856  0.4705  0.7213
28256SOL    HW193546  10.949   1.838   2.334 -0.3879  0.8433  0.1325
28256SOL    HW293547  11.070   1.911   2.280 -0.6812  1.0887 -0.1953
28257SOL     OW93548   3.175   9.272   8.357 -0.2248  0.0805 -0.1181
28257SOL    HW193549   3.143   9.211   8.424  0.0863  1.4708  1.3629
28257SOL    HW293550   3.249   9.227   8.318 -1.1895 -1.2938 -0.4474
28258SOL     OW93551   2.399  10.730   0.331 -0.1852  0.0124  0.7017
28258SOL    HW193552   2.445  10.664   0.384 -1.9294 -1.0433  0.9944
28258SOL    HW293553   2.401  10.694   0.243  3.2959  2.0810 -0.2705
28259SOL     OW93554   6.583   1.128   6.419  0.2772  0.1407 -0.3354
28259SOL    HW193555   6.602   1.088   6.505  0.9190  1.8588  0.3653
28259SOL    HW293556   6.593   1.222   6.434  0.8929  0.4494 -2.4280
28260SOL     OW93557   1.191   3.144   4.391  0.1265 -0.1276 -0.7684
28260SOL    HW193558   1.177   3.226   4.439  1.1608  1.1429 -2.5213
28260SOL    HW293559   1.285   3.129   4.396 -0.0066 -1.0376 -0.7805
28261SOL     OW93560   3.095  11.634   6.076 -0.0395 -0.0935  0.1749
28261SOL    HW193561   3.041  11.641   6.155 -0.3468 -0.7041  0.0218
28261SOL    HW293562   3.076  11.713   6.026 -1.2617 -0.5908 -0.1708
28262SOL     OW93563   5.883  10.384   4.792 -0.4916 -0.3067  0.2257
28262SOL    HW193564   5.898  10.425   4.877  1.3489 -2.0817  0.8363
28262SOL    HW293565   5.827  10.309   4.811  0.6343 -1.2254  0.0879
28263SOL     OW93566   6.675   9.266   0.321  0.2788 -0.3900  0.7454
28263SOL    HW193567   6.766   9.296   0.323  0.3585 -0.4932 -0.6069
28263SOL    HW293568   6.629   9.323   0.383  1.1009  0.2212  0.8043
28264SOL     OW93569   6.979   9.761   8.189  0.6856 -0.0403  0.2347
28264SOL    HW193570   7.063   9.723   8.213  0.2469 -0.3211  1.4398
28264SOL    HW293571   6.941   9.700   8.126  0.9219 -0.4843  0.5160
28265SOL     OW93572   2.859   2.343   9.462  0.3256  0.6731  0.1963
28265SOL    HW193573   2.911   2.419   9.435 -0.7535  2.0785  1.8129
28265SOL    HW293574   2.769   2.366   9.437  0.0924 -0.4814 -0.0805
28266SOL     OW93575  12.504   4.966   1.055 -0.2854 -0.3032 -0.0552
28266SOL    HW193576  12.494   4.950   1.149 -1.7906 -1.0246 -0.2989
28266SOL    HW293577  12.444   4.903   1.014  2.0531 -1.6417 -1.6322
28267SOL     OW93578  10.817   3.123   0.898 -0.6639  0.0525 -0.3699
28267SOL    HW193579  10.875   3.048   0.917 -0.3446  0.0887 -1.1792
28267SOL    HW293580  10.740   3.084   0.857 -1.1699  0.0215  0.5708
28268SOL     OW93581  10.935   2.504   5.266  0.2913 -0.5828 -0.1673
28268SOL    HW193582  10.996   2.431   5.256 -1.2310 -1.7397 -1.4835
28268SOL    HW293583  10.985   2.581   5.237  1.7682 -1.1448  0.7858
28269SOL     OW93584   7.733   7.788   9.822 -0.7988 -0.6020  0.1489
28269SOL    HW193585   7.777   7.720   9.771  1.4244  0.7902  0.0668
28269SOL    HW293586   7.791   7.802   9.897 -1.8580  0.3330  0.8230
28270SOL     OW93587   0.779   5.166   7.891 -0.1963 -0.6675  0.0977
28270SOL    HW193588   0.754   5.190   7.980 -0.9107 -2.0303  0.2874
28270SOL    HW293589   0.698   5.169   7.841  0.3672  1.0953 -0.7807
28271SOL     OW93590   9.525   8.966  10.779  0.3681  0.2481 -0.2711
28271SOL    HW193591   9.547   9.058  10.766  2.8104 -0.4401 -1.5584
28271SOL    HW293592   9.497   8.935  10.693  0.4172 -0.4329 -0.0478
28272SOL     OW93593  11.727   3.136   4.533 -0.3060  0.6388  0.1768
28272SOL    HW193594  11.703   3.197   4.464 -0.4723  0.5805  0.1797
28272SOL    HW293595  11.643   3.115   4.576 -0.7745 -1.8464 -1.6735
28273SOL     OW93596   5.510   1.660   1.222 -0.8944 -0.5923  0.1269
28273SOL    HW193597   5.430   1.610   1.236 -0.1243 -1.5671  1.2277
28273SOL    HW293598   5.518   1.715   1.300  0.6868 -2.2039  1.1691
28274SOL     OW93599   7.685   5.807   5.328  0.0446  0.1992  0.4231
28274SOL    HW193600   7.650   5.896   5.331 -2.6050 -0.7319 -0.1211
28274SOL    HW293601   7.720   5.792   5.416  0.8958  1.8785  0.4073
28275SOL     OW93602   2.883   8.095   6.079  0.2718 -0.8082  0.0174
28275SOL    HW193603   2.972   8.117   6.104 -0.1020  0.0451  0.6685
28275SOL    HW293604   2.892   8.046   5.997  1.1423  3.2634 -2.6146
28276SOL     OW93605   5.426  12.012   4.889 -0.4953 -0.6628  1.3837
28276SOL    HW193606   5.486  11.940   4.871  0.1902  0.2149 -0.0333
28276SOL    HW293607   5.345  11.988   4.843 -0.3923 -0.7133  1.2265
28277SOL     OW93608   7.256   3.689   2.298  0.0025  0.2358 -0.4337
28277SOL    HW193609   7.280   3.642   2.218 -0.8708 -0.5719 -0.2437
28277SOL    HW293610   7.196   3.629   2.344  2.4485 -0.4684  2.1190
28278SOL     OW93611   6.782   4.014   7.796  0.8285 -0.1454 -0.3366
28278SOL    HW193612   6.695   4.009   7.756  0.2872 -0.5700  0.8326
28278SOL    HW293613   6.805   3.923   7.814 -1.1863 -0.0243  4.7805
28279SOL     OW93614  10.151   0.939   9.744  0.1032  0.3792 -0.2980
28279SOL    HW193615  10.072   0.926   9.692 -0.2668  1.2186  0.0401
28279SOL    HW293616  10.140   0.883   9.820 -0.5988  1.1646  0.2013
28280SOL     OW93617   4.807   7.655   9.978  0.6870  0.2725  0.2667
28280SOL    HW193618   4.898   7.683   9.988  0.6876  0.0252  1.0403
28280SOL    HW293619   4.810   7.588   9.909  0.6068  2.4327 -1.9740
28281SOL     OW93620   2.633  10.384   2.030 -0.4650 -0.2267  0.3430
28281SOL    HW193621   2.709  10.331   2.054 -0.7850 -0.0959  1.6886
28281SOL    HW293622   2.626  10.373   1.935  1.5054  0.1300  0.1100
28282SOL     OW93623   0.840   5.106   4.257 -0.0292  0.3168 -0.8050
28282SOL    HW193624   0.907   5.038   4.263 -0.4513 -0.0960 -0.6871
28282SOL    HW293625   0.770   5.077   4.315  0.2709  1.4295  0.1525
28283SOL     OW93626   6.540   3.785  10.871  0.3883  0.1051 -0.7455
28283SOL    HW193627   6.499   3.701  10.851 -0.5667  0.1289  0.8925
28283SOL    HW293628   6.530   3.794  10.966  4.7280 -0.1665 -0.0314
28284SOL     OW93629   3.845   2.743   6.540  0.5877  0.0437  0.4399
28284SOL    HW193630   3.759   2.703   6.553  0.8007 -1.7337 -2.6611
28284SOL    HW293631   3.907   2.678   6.570  0.8638 -0.2280 -0.6639
28285SOL     OW93632   3.814   4.663   4.516 -0.1846 -0.2137 -0.2603
28285SOL    HW193633   3.785   4.618   4.596 -2.1131  0.6246 -0.4320
28285SOL    HW293634   3.834   4.752   4.545 -0.0241 -0.1524 -0.5629
28286SOL     OW93635   1.438   9.232   8.721 -0.7695 -0.3915  0.4370
28286SOL    HW193636   1.358   9.185   8.702 -1.0885  0.1953  0.3030
28286SOL    HW293637   1.427   9.317   8.679 -1.0248  0.5253  2.2418
28287SOL     OW93638   5.088   3.385  12.164  0.1995 -0.0235  0.2367
28287SOL    HW193639   5.074   3.403  12.257 -1.9348  2.9341 -0.5200
28287SOL    HW293640   5.113   3.470  12.127  1.0918 -1.1605 -1.9006
28288SOL     OW93641  12.318   9.282  10.739 -0.6518 -0.6581  0.2092
28288SOL    HW193642  12.355   9.225  10.806  1.4445  0.8543  0.4489
28288SOL    HW293643  12.292   9.361  10.786  1.4266  0.6824 -0.7381
28289SOL     OW93644  12.086   6.025   1.607 -0.4009 -0.2220 -0.3961
28289SOL    HW193645  12.064   5.956   1.545  2.3487 -1.4808 -0.0985
28289SOL    HW293646  12.019   6.018   1.675 -1.6112 -0.9058 -1.6177
28290SOL     OW93647   8.405   4.417   7.965  0.0184  0.2321  0.5781
28290SOL    HW193648   8.495   4.428   7.932 -1.3226  2.1363 -2.9965
28290SOL    HW293649   8.405   4.463   8.049  2.0143  1.5766 -0.0740
28291SOL     OW93650   0.871   0.838  10.785 -0.1914 -0.1098 -0.4253
28291SOL    HW193651   0.855   0.775  10.856  1.4301 -1.2381 -1.0030
28291SOL    HW293652   0.933   0.900  10.823  0.8655 -0.8512 -0.8786
28292SOL     OW93653   3.222   3.013   3.611 -0.8900  0.3782  0.9611
28292SOL    HW193654   3.251   3.013   3.520 -1.0580 -0.5241  0.9041
28292SOL    HW293655   3.301   3.034   3.661 -0.2889 -1.2356  0.7453
28293SOL     OW93656   2.102   6.640   9.690  0.7883 -0.1024  0.7524
28293SOL    HW193657   2.090   6.571   9.625  1.2522 -1.0020  1.6034
28293SOL    HW293658   2.069   6.602   9.771 -0.4178  1.2415  0.9463
28294SOL     OW93659   4.236   6.695   0.553  0.0278  0.1082  0.1439
28294SOL    HW193660   4.154   6.685   0.504  0.0439 -0.8124  0.2956
28294SOL    HW293661   4.209   6.715   0.642 -0.0305 -0.3685  0.2312
28295SOL     OW93662   7.009   4.853   5.730 -0.6668  0.6970  0.0726
28295SOL    HW193663   7.099   4.827   5.747  0.1364  2.2036 -1.5283
28295SOL    HW293664   6.997   4.934   5.781 -1.1808  0.4142  0.4114
28296SOL     OW93665  11.473   4.429   0.384  0.1099 -0.0881  0.2559
28296SOL    HW193666  11.411   4.385   0.326  1.1508 -0.5208 -0.5690
28296SOL    HW293667  11.469   4.521   0.357 -1.0438  0.1219  1.0437
28297SOL     OW93668   2.773   9.549  11.733 -0.4424  0.3599 -0.4239
28297SOL    HW193669   2.867   9.546  11.753 -0.4756 -0.8898 -0.3664
28297SOL    HW293670   2.736   9.476  11.782 -1.4619  0.8541 -0.4335
28298SOL     OW93671   6.489   8.442   1.101 -0.0902  0.0569 -0.5057
28298SOL    HW193672   6.570   8.444   1.152  0.6360 -0.4568 -1.6010
28298SOL    HW293673   6.512   8.396   1.021 -1.3817  0.2392 -1.0105
28299SOL     OW93674   2.031   9.677   1.135 -0.0601  0.0174  0.4813
28299SOL    HW193675   2.068   9.731   1.065  0.5566 -0.7722  0.1773
28299SOL    HW293676   1.979   9.611   1.090  1.2595 -1.2028  0.6580
28300SOL     OW93677   4.504  11.420   0.513 -0.2188  0.4812 -0.3810
28300SOL    HW193678   4.472  11.393   0.600  1.6071 -0.9219 -0.0871
28300SOL    HW293679   4.466  11.357   0.453  0.8349 -0.3317 -0.2103
28301SOL     OW93680  10.222   6.739   2.321  0.6235  0.4092  0.3450
28301SOL    HW193681  10.253   6.828   2.302 -1.0754  0.7963 -0.7851
28301SOL    HW293682  10.136   6.751   2.361  1.4917 -0.6701  2.7647
28302SOL     OW93683   7.115   4.419  10.623  1.1705 -0.5553 -0.3063
28302SOL    HW193684   7.053   4.486  10.653  0.3452 -0.5587 -1.8881
28302SOL    HW293685   7.063   4.363  10.565  1.8248 -2.5899  0.9288
28303SOL     OW93686   2.470   5.138  10.321 -0.0209 -0.3874  0.1402
28303SOL    HW193687   2.509   5.206  10.376 -0.4339  0.0590 -0.1081
28303SOL    HW293688   2.385   5.119  10.362 -0.2524 -0.1809 -0.2325
28304SOL     OW93689   3.475   8.853   5.943 -0.1923 -0.3072  0.0721
28304SOL    HW193690   3.398   8.880   5.894  0.2928 -0.5401 -0.8294
28304SOL    HW293691   3.495   8.765   5.912 -0.7288 -1.0673  1.7393
28305SOL     OW93692   0.893   3.659   6.503 -0.4926  0.4593  0.2290
28305SOL    HW193693   0.857   3.747   6.488  0.6022  0.8368 -0.2955
28305SOL    HW293694   0.926   3.661   6.593 -0.7643  0.4762  0.3285
28306SOL     OW93695   9.425   5.514   6.232  0.3385 -0.1236 -0.0829
28306SOL    HW193696   9.349   5.466   6.263 -1.2897  0.8964 -2.2347
28306SOL    HW293697   9.469   5.454   6.172  0.1340 -0.0776 -0.2829
28307SOL     OW93698   2.520   1.189   8.238 -0.0765  0.7322 -0.1037
28307SOL    HW193699   2.536   1.185   8.144  1.7264  0.0949  0.1816
28307SOL    HW293700   2.540   1.279   8.262  2.7680  0.1503  0.1140
28308SOL     OW93701  11.525   4.102   5.262  0.0125  0.5161 -0.0089
28308SOL    HW193702  11.487   4.106   5.174  2.2277  0.2945 -1.0474
28308SOL    HW293703  11.541   4.009   5.277  2.9261  0.7917 -0.9393
28309SOL     OW93704   5.460   8.708   1.036  0.0187 -0.0551 -0.3026
28309SOL    HW193705   5.398   8.648   0.996 -0.6275 -0.8022  1.6767
28309SOL    HW293706   5.509   8.654   1.098  2.0344  0.7262 -1.1360
28310SOL     OW93707   4.521   8.605   4.845 -0.2279  0.1860 -0.3383
28310SOL    HW193708   4.610   8.581   4.822 -0.7370 -1.6657 -0.5559
28310SOL    HW293709   4.473   8.600   4.763 -0.3982  1.9595 -0.3713
28311SOL     OW93710  12.453  11.756   2.385  0.2937 -0.0152 -0.3709
28311SOL    HW193711  12.433  11.838   2.341  1.1144  0.2101 -0.3375
28311SOL    HW293712  12.370  11.729   2.424 -0.3292  0.0593 -1.5818
28312SOL     OW93713  11.592   7.994   2.656 -0.4960  0.7379 -0.5932
28312SOL    HW193714  11.600   8.089   2.663 -1.5378  0.7069  2.0288
28312SOL    HW293715  11.658   7.969   2.591  1.5863  2.9602  0.5275
28313SOL     OW93716   1.694   6.075   8.930 -0.4556 -0.2094  0.2517
28313SOL    HW193717   1.718   6.032   8.849 -0.5657  0.4993 -0.1639
28313SOL    HW293718   1.607   6.039   8.951 -0.2546 -0.6881  0.2730
28314SOL     OW93719  11.748   8.996   3.440  0.4439  0.4769 -0.0523
28314SOL    HW193720  11.669   8.942   3.447  1.0615 -0.8661 -2.1645
28314SOL    HW293721  11.718   9.086   3.451 -1.1324 -0.0969  0.5559
28315SOL     OW93722   0.134   0.682   8.146 -0.0525 -0.0539 -0.2066
28315SOL    HW193723   0.068   0.685   8.076 -0.2178  0.1456 -0.0423
28315SOL    HW293724   0.085   0.657   8.224 -0.0973  0.9506  0.1014
28316SOL     OW93725   6.679   3.723   6.765  0.4944  0.5650 -0.1162
28316SOL    HW193726   6.590   3.691   6.773  1.1715 -1.1095  1.4059
28316SOL    HW293727   6.706   3.697   6.677  0.2327 -1.1051  0.2538
28317SOL     OW93728   1.793   0.054   3.140  0.3033 -0.0768  0.3104
28317SOL    HW193729   1.751   0.112   3.204  1.7700  1.4732 -0.0382
28317SOL    HW293730   1.868   0.104   3.109  0.5419 -1.4342 -1.4619
28318SOL     OW93731  12.064   3.906  10.741 -0.4271  0.0382  0.3891
28318SOL    HW193732  12.049   3.813  10.760 -1.9099  0.1782  0.0223
28318SOL    HW293733  12.114   3.938  10.816  1.2574 -1.3334 -0.0854
28319SOL     OW93734   8.744  12.200  10.216 -0.0294  0.0719 -0.0561
28319SOL    HW193735   8.667  12.162  10.174 -0.9388 -1.8513  3.0383
28319SOL    HW293736   8.805  12.127  10.226 -0.2147  0.1850  2.5850
28320SOL     OW93737   8.020   4.613   5.207  0.0695 -0.3046 -0.5441
28320SOL    HW193738   8.111   4.595   5.228 -0.0652  0.7701  1.0731
28320SOL    HW293739   7.979   4.636   5.290 -1.5938 -0.3670 -1.2939
28321SOL     OW93740   8.499   2.589  11.507 -0.2413 -0.3005  0.1379
28321SOL    HW193741   8.468   2.501  11.488  1.8235 -1.3234  1.1234
28321SOL    HW293742   8.464   2.609  11.593 -1.5048  0.2894 -0.4817
28322SOL     OW93743  10.864   3.453  10.339 -0.1596 -0.5627 -0.2405
28322SOL    HW193744  10.831   3.425  10.254 -0.9740  1.2937 -0.5894
28322SOL    HW293745  10.947   3.497  10.319 -0.7699  0.6345 -0.2123
28323SOL     OW93746   3.676   3.566   9.250 -0.0171 -0.1458 -0.3604
28323SOL    HW193747   3.614   3.634   9.224  2.6629  3.0324  0.9190
28323SOL    HW293748   3.723   3.543   9.170 -0.0472  0.4921 -0.5597
28324SOL     OW93749   6.555   0.196   0.023 -0.1681 -0.1111  0.0184
28324SOL    HW193750   6.504   0.155   0.092  2.0048 -2.6662  0.2586
28324SOL    HW293751   6.493   0.256  -0.020 -2.1175  0.1072  2.8499
28325SOL     OW93752   1.057   7.865   6.533 -0.4419  0.2697  0.4879
28325SOL    HW193753   1.028   7.789   6.482 -1.2229 -0.5557  2.0708
28325SOL    HW293754   0.999   7.936   6.507  0.6571  0.5287 -1.4293
28326SOL     OW93755   4.297   8.689   7.481  0.0226  0.2082 -0.5679
28326SOL    HW193756   4.303   8.767   7.536 -0.3640 -0.8045  0.9787
28326SOL    HW293757   4.205   8.662   7.488 -0.2430  0.4868 -2.3931
28327SOL     OW93758   1.398   2.217   4.954 -0.1854  0.0548  1.0027
28327SOL    HW193759   1.313   2.186   4.921 -0.3010  0.7638  0.6106
28327SOL    HW293760   1.389   2.312   4.955  1.3309  0.3055 -1.1097
28328SOL     OW93761   6.286   4.630   1.575 -0.5917  0.4832 -0.0421
28328SOL    HW193762   6.292   4.673   1.660 -0.6473 -0.7044  0.5773
28328SOL    HW293763   6.194   4.640   1.549 -0.6546  0.5387  0.1998
28329SOL     OW93764   6.850   2.565  10.672 -0.1051  0.1286 -0.0051
28329SOL    HW193765   6.754   2.564  10.680 -0.1180 -0.1382 -0.1813
28329SOL    HW293766   6.881   2.520  10.751 -0.2266 -2.3242 -1.2604
28330SOL     OW93767   1.039   2.648   2.061 -0.6175 -0.4969 -0.4128
28330SOL    HW193768   1.112   2.706   2.083 -1.2066  0.6104 -1.3234
28330SOL    HW293769   1.073   2.594   1.988 -1.3689  1.5471 -2.3928
28331SOL     OW93770   6.092   8.411  11.661  0.1056 -0.0138  0.2878
28331SOL    HW193771   6.151   8.345  11.625 -0.0019 -0.9683  1.7738
28331SOL    HW293772   6.135   8.494  11.641  0.6467 -0.5527 -0.9066
28332SOL     OW93773   2.573   1.398   9.898  0.0864 -0.6457  0.0898
28332SOL    HW193774   2.593   1.481   9.941  0.2817 -1.4913  1.7155
28332SOL    HW293775   2.479   1.386   9.913  0.3660 -1.4895  1.3600
28333SOL     OW93776  11.406   3.252   0.673 -0.4130 -0.3289  0.0118
28333SOL    HW193777  11.434   3.342   0.689 -1.1147 -0.1837  0.4873
28333SOL    HW293778  11.487   3.202   0.664 -0.0098  0.6283 -1.9934
28334SOL     OW93779  12.026   3.414   9.996  0.6004  0.5262 -0.1747
28334SOL    HW193780  12.119   3.391   9.987  0.2873 -0.2648 -1.8849
28334SOL    HW293781  11.994   3.357  10.066  0.8146 -1.2988 -1.4637
28335SOL     OW93782   4.502   8.563   1.507 -0.2677  0.2613 -0.2092
28335SOL    HW193783   4.411   8.536   1.513  0.2781 -1.3330  1.8976
28335SOL    HW293784   4.523   8.597   1.594  1.3774 -0.2574 -0.3669
28336SOL     OW93785   4.886  10.838   7.016 -0.6962 -0.4714 -0.4149
28336SOL    HW193786   4.924  10.763   7.061 -1.4274  0.3963  1.7693
28336SOL    HW293787   4.924  10.835   6.928  2.2621 -1.1957  0.7863
28337SOL     OW93788   4.841   5.790   2.765  0.1534 -0.0867  0.5548
28337SOL    HW193789   4.784   5.718   2.739 -2.2185  1.8523 -0.0416
28337SOL    HW293790   4.927   5.766   2.731 -1.0398 -1.5953 -1.6348
28338SOL     OW93791   9.214   5.852  12.376  0.2996  0.0661 -0.2530
28338SOL    HW193792   9.166   5.850  12.293  0.7414 -2.2192 -0.5046
28338SOL    HW293793   9.303   5.826  12.352  0.6769  0.3409  0.7996
28339SOL     OW93794  10.657   0.496  11.149  0.3942  0.2941 -0.3521
28339SOL    HW193795  10.681   0.573  11.201  0.0610  0.4246 -0.3908
28339SOL    HW293796  10.700   0.423  11.194  2.1258  0.7028 -1.2737
28340SOL     OW93797  11.632   6.847   7.689  0.2157  0.1854  0.7572
28340SOL    HW193798  11.718   6.841   7.730  0.8437  0.1335 -0.5046
28340SOL    HW293799  11.606   6.756   7.676 -0.3020  0.1959  1.6491
28341SOL     OW93800  10.559   8.094   8.795  0.2054 -0.0478 -0.0104
28341SOL    HW193801  10.653   8.090   8.814  0.1936 -1.1241 -0.0881
28341SOL    HW293802  10.551   8.051   8.709 -0.3745 -0.0908  0.0660
28342SOL     OW93803  12.547   6.056   1.943  0.1458  0.3686  0.5649
28342SOL    HW193804  12.551   5.995   2.016  0.3885 -0.1195  0.1451
28342SOL    HW293805  12.605   6.019   1.877 -0.3171  0.6396 -0.0020
28343SOL     OW93806   2.380   9.319   2.895 -0.1267 -0.0940 -0.2041
28343SOL    HW193807   2.355   9.235   2.855 -0.2424  0.1389 -0.6282
28343SOL    HW293808   2.300   9.371   2.894 -0.2081 -0.1934  0.6328
28344SOL     OW93809   3.912   3.712   6.718 -0.2779  0.2886  0.2825
28344SOL    HW193810   3.949   3.632   6.756  0.3230  0.3474 -0.1538
28344SOL    HW293811   3.989   3.767   6.699 -0.7843  1.7629  2.2720
28345SOL     OW93812   2.377   2.077   2.209 -0.0076  0.3934  0.3599
28345SOL    HW193813   2.358   2.162   2.170  0.6450  0.8713  1.0710
28345SOL    HW293814   2.453   2.045   2.160 -0.3884  0.0972 -0.0598
28346SOL     OW93815  11.112   6.813   2.216 -0.5071 -0.1846 -0.8793
28346SOL    HW193816  11.095   6.765   2.135 -0.8039  1.1979 -1.6748
28346SOL    HW293817  11.035   6.870   2.226  0.9479  1.9759 -1.3839
28347SOL     OW93818   3.345  11.563   5.965 -0.7337 -0.4417  0.5333
28347SOL    HW193819   3.303  11.555   5.880 -0.9615  0.5704  0.5430
28347SOL    HW293820   3.275  11.593   6.024 -0.6014 -1.2052  1.1011
28348SOL     OW93821   2.567   3.665   5.684  0.2296  0.0441  0.5428
28348SOL    HW193822   2.598   3.720   5.612  1.2874  1.0114  1.6788
28348SOL    HW293823   2.476   3.692   5.698 -0.5949 -1.4526 -1.5829
28349SOL     OW93824   9.596   5.156   4.640 -0.2424 -0.4427  0.3657
28349SOL    HW193825   9.610   5.248   4.618  0.6661 -0.5970  0.2602
28349SOL    HW293826   9.616   5.108   4.560  1.2423 -0.8704  0.9730
28350SOL     OW93827   0.125   7.353   8.321 -0.1440 -0.3085 -0.2287
28350SOL    HW193828   0.135   7.286   8.389  0.8919  0.8431  0.8047
28350SOL    HW293829   0.174   7.428   8.354 -3.2263  1.8749 -0.1846
28351SOL     OW93830   3.709  10.406  11.581 -0.0910 -0.1718 -0.0817
28351SOL    HW193831   3.675  10.479  11.528  0.5215  0.7061  0.7123
28351SOL    HW293832   3.800  10.398  11.554 -1.0610 -3.4236 -3.2272
28352SOL     OW93833   7.793   6.168   9.252  0.2080  0.4952  0.1992
28352SOL    HW193834   7.764   6.086   9.213 -0.9777  1.1813 -0.4197
28352SOL    HW293835   7.885   6.176   9.227  1.1168 -1.8117  2.3266
28353SOL     OW93836   1.439  10.345  10.506 -0.6447  0.3081  0.0077
28353SOL    HW193837   1.362  10.290  10.520 -0.1032 -0.9203 -1.4436
28353SOL    HW293838   1.461  10.331  10.414  1.0650  0.9600  0.2863
28354SOL     OW93839  10.295   2.908   2.386  0.1587  0.1897  0.7839
28354SOL    HW193840  10.315   2.815   2.377 -0.3750  0.2285 -1.6722
28354SOL    HW293841  10.360   2.951   2.330 -1.3487  0.9998 -0.4266
28355SOL     OW93842   1.764   3.801   2.018  0.0504  0.1170 -0.1627
28355SOL    HW193843   1.687   3.843   1.980 -0.5778 -0.6376  0.2455
28355SOL    HW293844   1.732   3.717   2.052  0.5524  0.7860  2.1233
28356SOL     OW93845  11.985   9.319   5.053 -0.3151 -0.7650 -0.1354
28356SOL    HW193846  11.910   9.314   4.993 -0.1198  0.9125 -0.5623
28356SOL    HW293847  12.055   9.273   5.007  0.1775  1.4951 -1.8226
28357SOL     OW93848   6.275   4.100   2.073  0.0121 -0.2559 -0.2920
28357SOL    HW193849   6.300   4.172   2.016 -0.5391  0.8781  0.8404
28357SOL    HW293850   6.189   4.124   2.106 -0.2630 -1.5262 -0.0099
28358SOL     OW93851   7.053  11.461   0.532 -0.1288 -0.3481  0.1155
28358SOL    HW193852   7.131  11.456   0.476  0.3218 -0.0547  0.6998
28358SOL    HW293853   7.085  11.436   0.619 -0.8271 -0.8409  0.2309
28359SOL     OW93854   8.532   8.042   0.560 -0.0950  0.0998 -0.0656
28359SOL    HW193855   8.539   8.124   0.609  1.2962  1.5340 -2.4077
28359SOL    HW293856   8.577   8.061   0.477 -1.1341 -2.5459 -1.3496
28360SOL     OW93857  12.009   1.691   0.732  0.0739  0.6517  0.7019
28360SOL    HW193858  11.997   1.600   0.759 -1.0606  0.2149 -1.1463
28360SOL    HW293859  11.964   1.741   0.801 -0.3866 -0.2519  1.0849
28361SOL     OW93860   2.519   5.592   8.187  0.0877  0.1403  0.2776
28361SOL    HW193861   2.510   5.557   8.098  2.5615 -0.2608  0.1075
28361SOL    HW293862   2.430   5.617   8.212 -0.6795  0.3396 -2.3301
28362SOL     OW93863   9.590  11.103  11.890 -0.0184  0.0334  0.0615
28362SOL    HW193864   9.525  11.090  11.821 -1.1889  2.5858  0.5687
28362SOL    HW293865   9.557  11.053  11.964  0.3729 -1.3576 -0.6638
28363SOL     OW93866   3.530   4.297   9.691  0.0434  0.3763 -0.2861
28363SOL    HW193867   3.538   4.348   9.610  0.8613  0.1282 -0.3753
28363SOL    HW293868   3.522   4.363   9.760  0.4245  0.6135 -0.4652
28364SOL     OW93869  11.652  10.161   0.099  0.4727 -0.0952 -0.1820
28364SOL    HW193870  11.571  10.211   0.091  0.3868 -0.1048  0.5339
28364SOL    HW293871  11.662  10.117   0.015 -0.2640 -0.0953 -0.2721
28365SOL     OW93872   2.106  10.314   9.708 -0.7699  0.1974  0.2547
28365SOL    HW193873   2.161  10.276   9.776 -1.1611 -1.4159 -0.2861
28365SOL    HW293874   2.091  10.243   9.646 -1.9057  1.1196 -0.5919
28366SOL     OW93875   1.040   9.686   8.305  0.1210  0.1489  0.9531
28366SOL    HW193876   1.079   9.687   8.218 -0.5202 -1.2850  0.6286
28366SOL    HW293877   1.064   9.771   8.343 -0.6484  1.3543 -1.0870
28367SOL     OW93878   1.900   7.866  10.195  0.5421  0.3398 -0.4548
28367SOL    HW193879   1.813   7.880  10.232  0.3448  0.6785 -1.0368
28367SOL    HW293880   1.895   7.902  10.106  0.6117 -1.6748 -1.3316
28368SOL     OW93881   9.793   1.907   9.639 -0.0365  0.5602  1.1110
28368SOL    HW193882   9.864   1.868   9.587 -1.1484 -0.0478 -0.0156
28368SOL    HW293883   9.769   1.839   9.702 -0.8367  0.0409  0.2674
28369SOL     OW93884   1.371   3.309   3.656  0.0606 -0.1707  0.6605
28369SOL    HW193885   1.395   3.393   3.615  2.7452 -0.6700  1.0453
28369SOL    HW293886   1.416   3.309   3.740 -2.0337 -0.9472  1.8610
28370SOL     OW93887   2.300  10.475   0.241 -0.0675  0.3467  0.9101
28370SOL    HW193888   2.371  10.440   0.293 -0.2574 -1.3719  0.0711
28370SOL    HW293889   2.335  10.480   0.152 -0.1216  2.1349  0.9588
28371SOL     OW93890  10.926   3.968  10.320 -0.1927 -0.3525  0.4612
28371SOL    HW193891  10.937   4.060  10.344 -2.0175  0.1215 -0.3262
28371SOL    HW293892  10.915   3.970  10.225 -0.2663 -1.3847  0.4432
28372SOL     OW93893   8.965   3.326   2.929  0.5183  0.6400 -0.1215
28372SOL    HW193894   8.893   3.321   2.992 -0.8360  1.2905 -1.5548
28372SOL    HW293895   9.028   3.386   2.969 -1.2198  2.6236 -0.1943
28373SOL     OW93896   3.838  10.972   3.284 -0.0767  0.7251  0.4387
28373SOL    HW193897   3.905  11.039   3.301  1.9934 -0.5926 -1.7554
28373SOL    HW293898   3.797  11.000   3.202 -0.8303  0.4645  0.7140
28374SOL     OW93899   3.969   9.428   1.891 -0.2240 -0.1731 -0.2207
28374SOL    HW193900   3.896   9.372   1.867  1.2556 -1.2842 -2.5775
28374SOL    HW293901   4.045   9.370   1.890  0.9416  1.2700  0.4191
28375SOL     OW93902   4.925   3.015   5.435 -0.5141  0.2514 -0.4769
28375SOL    HW193903   4.962   3.042   5.351  1.5465 -2.1175 -0.4723
28375SOL    HW293904   4.837   2.985   5.415 -0.2112  0.1668 -1.7346
28376SOL     OW93905  12.491  11.597   3.866  0.2883  0.0287 -0.1346
28376SOL    HW193906  12.535  11.681   3.875 -1.8221  1.1765  0.0876
28376SOL    HW293907  12.533  11.556   3.791  1.1650  1.4017 -0.4306
28377SOL     OW93908  10.866  11.655   2.011  0.4622  0.0904  0.4589
28377SOL    HW193909  10.940  11.651   1.950  0.1389 -1.9804  0.1392
28377SOL    HW293910  10.893  11.600   2.085 -0.0065  0.8801  1.2424
28378SOL     OW93911   4.930   7.123   5.598  0.2613 -0.0922  0.1147
28378SOL    HW193912   5.022   7.143   5.581  0.5274 -2.6898 -2.0689
28378SOL    HW293913   4.892   7.109   5.511 -2.1500  0.5400  0.9861
28379SOL     OW93914   8.463   9.978   3.494 -0.0721  0.0772 -0.2794
28379SOL    HW193915   8.441  10.042   3.562 -0.4259 -0.3729  0.0309
28379SOL    HW293916   8.515  10.028   3.431  0.2369  0.5088  0.3035
28380SOL     OW93917   5.335   8.844   9.417 -0.5162 -0.4228  0.1977
28380SOL    HW193918   5.420   8.885   9.430  0.4219 -1.1062 -3.0366
28380SOL    HW293919   5.273   8.904   9.459  1.1671  2.2174 -0.8569
28381SOL     OW93920   0.936   3.887   0.950 -0.1678  0.6666 -0.2150
28381SOL    HW193921   0.910   3.795   0.953 -0.5434  0.7178 -1.5237
28381SOL    HW293922   0.859   3.932   0.915  0.3583  1.3479 -0.4961
28382SOL     OW93923   9.899  10.383   4.427 -0.0848 -0.0684 -0.6293
28382SOL    HW193924   9.811  10.355   4.402 -0.5057  0.4237  0.2474
28382SOL    HW293925   9.946  10.391   4.344 -0.4058 -1.7978 -1.0191
28383SOL     OW93926   1.071   0.664   0.846  0.2131 -0.1218  0.0144
28383SOL    HW193927   0.998   0.679   0.906  0.5359  2.5126 -0.1277
28383SOL    HW293928   1.131   0.608   0.895 -1.3515 -1.3777  0.5687
28384SOL     OW93929   8.710   4.795   5.366  0.1481  0.4208  0.3698
28384SOL    HW193930   8.726   4.765   5.456  0.7556  2.2199  0.9159
28384SOL    HW293931   8.617   4.816   5.364 -0.1093 -0.6828  0.2180
28385SOL     OW93932   2.594   5.588   3.616  0.0342  0.0680  0.3577
28385SOL    HW193933   2.505   5.561   3.640 -0.8907  1.6524 -1.0543
28385SOL    HW293934   2.621   5.646   3.687 -0.8533  1.0878 -0.1029
28386SOL     OW93935   2.832   7.374  10.080 -0.3667  0.5569  0.2210
28386SOL    HW193936   2.742   7.350  10.059  0.4390 -0.7007 -2.1594
28386SOL    HW293937   2.831   7.470  10.085 -1.6500  0.6189 -0.7660
28387SOL     OW93938   5.723   1.500   5.312 -0.1605  0.4399  0.2392
28387SOL    HW193939   5.792   1.436   5.329 -0.6277 -0.1284  0.0556
28387SOL    HW293940   5.656   1.481   5.378 -1.9495 -1.7185 -1.9760
28388SOL     OW93941   3.420   7.011   0.389 -0.4446 -0.4071 -0.0929
28388SOL    HW193942   3.488   6.948   0.366  0.1828  0.1536  0.1849
28388SOL    HW293943   3.350   6.996   0.326  0.2722 -0.4562 -0.8879
28389SOL     OW93944   8.239   1.312   6.868 -0.2821 -0.6451 -0.3614
28389SOL    HW193945   8.265   1.263   6.790 -0.0809 -1.6757  0.3393
28389SOL    HW293946   8.168   1.369   6.837  0.8909  0.1814 -1.6625
28390SOL     OW93947  12.551   4.701   5.116 -0.2970 -0.2880  0.4060
28390SOL    HW193948  12.561   4.794   5.136 -0.2222 -0.1846 -0.0995
28390SOL    HW293949  12.641   4.670   5.102 -0.3315 -0.4048  0.4413
28391SOL     OW93950  11.470   4.988   1.423 -0.0010 -0.3673  0.3470
28391SOL    HW193951  11.461   4.968   1.516 -1.8509 -3.0290 -0.2775
28391SOL    HW293952  11.551   4.943   1.396  0.7185  0.6894  0.7025
28392SOL     OW93953   0.025   1.762   2.997  0.1893  0.5819 -0.1387
28392SOL    HW193954   0.021   1.743   2.903  1.4101  1.0753 -0.3061
28392SOL    HW293955   0.078   1.690   3.033 -0.2899  0.3849  0.1856
28393SOL     OW93956   9.309   5.922  11.213 -0.2297 -0.5350 -0.0411
28393SOL    HW193957   9.313   6.010  11.251  0.1472 -0.1661 -0.9089
28393SOL    HW293958   9.382   5.919  11.151 -1.5297 -0.6619 -1.6508
28394SOL     OW93959  10.171  11.764   1.074  0.5547  0.4675  0.0986
28394SOL    HW193960  10.255  11.783   1.116  0.1131 -0.1615  1.3295
28394SOL    HW293961  10.113  11.740   1.147 -0.5007  0.2126 -0.7979
28395SOL     OW93962   4.545   1.772  12.272 -0.0462 -0.2505 -0.3263
28395SOL    HW193963   4.587   1.753  12.188 -0.0247  0.0804 -0.3936
28395SOL    HW293964   4.459   1.807  12.249 -1.1382 -2.6420 -0.1573
28396SOL     OW93965   0.722  12.089   0.787 -0.2631 -0.1886 -0.5955
28396SOL    HW193966   0.666  12.020   0.820 -0.8066 -0.0076 -1.1188
28396SOL    HW293967   0.694  12.168   0.834  1.7093 -0.6514  1.5077
28397SOL     OW93968   5.698  12.436   9.097 -0.1613 -0.0704  0.1233
28397SOL    HW193969   5.735  12.403   9.016 -0.1024  1.2158 -0.3957
28397SOL    HW293970   5.768  12.428   9.161 -0.4248 -1.7293  0.2450
28398SOL     OW93971   2.855   9.117   5.405 -0.2429 -0.1777 -0.0082
28398SOL    HW193972   2.865   9.123   5.310  0.2456 -1.3476 -0.0480
28398SOL    HW293973   2.770   9.158   5.422 -0.4224 -0.1088 -0.9761
28399SOL     OW93974   6.715   4.607  12.472  0.0213  0.0659 -0.1983
28399SOL    HW193975   6.764   4.666  12.530  1.3194 -1.7993  0.6977
28399SOL    HW293976   6.632   4.652  12.459  0.1524  1.1685  2.0943
28400SOL     OW93977   4.498   6.793   4.485  0.1848  0.1666  0.1058
28400SOL    HW193978   4.435   6.821   4.419  1.3963  2.5353 -0.1912
28400SOL    HW293979   4.550   6.725   4.442  0.5259  1.2065 -1.2101
28401SOL     OW93980   5.272  11.246  12.414 -0.1440  0.5561  0.0817
28401SOL    HW193981   5.209  11.206  12.474  0.8444 -1.1502  0.0462
28401SOL    HW293982   5.219  11.273  12.339 -1.0234  0.3622  0.6157
28402SOL     OW93983   3.889   8.117   6.005  0.2222  0.2832 -0.0958
28402SOL    HW193984   3.985   8.114   6.007  0.2506  1.1818  0.7393
28402SOL    HW293985   3.869   8.176   5.932  0.2449 -1.1252 -1.2818
28403SOL     OW93986   3.213  10.350   5.201 -0.4662 -0.0521 -0.1492
28403SOL    HW193987   3.257  10.322   5.120 -1.8291  0.0557 -0.9561
28403SOL    HW293988   3.221  10.276   5.260  0.1454 -0.3071 -0.5433
28404SOL     OW93989  12.552   7.309   2.724 -0.0881  0.4149 -0.3885
28404SOL    HW193990  12.574   7.220   2.699  0.9185  0.3636  0.5713
28404SOL    HW293991  12.481   7.334   2.666 -2.0721 -1.8418  0.9112
28405SOL     OW93992   5.168   2.667  10.971 -0.0533 -0.7805 -0.0882
28405SOL    HW193993   5.189   2.755  11.001 -0.0691 -1.2607  1.4262
28405SOL    HW293994   5.221   2.609  11.025 -0.7355 -1.7437 -0.4146
28406SOL     OW93995   2.055   1.518   6.741  0.2903 -0.6570 -0.5256
28406SOL    HW193996   2.104   1.523   6.824  0.3236 -2.7061 -0.3918
28406SOL    HW293997   1.966   1.494   6.767 -0.1891  0.5322 -0.9788
28407SOL     OW93998   4.445   7.158   9.046 -0.5970 -0.2339  0.4076
28407SOL    HW193999   4.386   7.083   9.054 -1.0478 -0.5458 -3.7744
28407SOL    HW294000   4.532   7.120   9.040 -0.2825 -0.0137  2.6307
28408SOL     OW94001   3.454   3.876   6.945 -0.7095 -0.7275 -0.2273
28408SOL    HW194002   3.395   3.815   6.990 -0.5931 -1.6156 -1.2421
28408SOL    HW294003   3.498   3.823   6.879  0.2713  0.2149 -0.3569
28409SOL     OW94004   3.245   7.176   1.784  0.0474  0.3038 -0.3597
28409SOL    HW194005   3.188   7.102   1.805 -1.7374  2.3224  2.7210
28409SOL    HW294006   3.305   7.142   1.718  0.1236 -4.2462  1.6725
28410SOL     OW94007   2.576   8.156   9.152 -0.2431  0.1524  0.0678
28410SOL    HW194008   2.531   8.229   9.195  0.1574 -0.1979  1.1047
28410SOL    HW294009   2.505   8.104   9.113 -0.7280 -0.1662  1.3279
28411SOL     OW94010   0.081   4.605   9.897  0.0153 -0.4342  0.1825
28411SOL    HW194011   0.081   4.685   9.844  0.9197 -0.1418  0.6177
28411SOL    HW294012   0.001   4.559   9.870 -2.9451  2.5820  2.9536
28412SOL     OW94013   4.287   4.182   3.627  0.0026 -0.6725 -0.6224
28412SOL    HW194014   4.308   4.191   3.534  1.1387  0.9298 -0.2727
28412SOL    HW294015   4.195   4.156   3.629  0.4993 -2.7645 -2.2001
28413SOL     OW94016   2.184  11.363   1.442 -0.0558  0.3183  0.3288
28413SOL    HW194017   2.181  11.423   1.516  3.1576 -0.0258  0.8858
28413SOL    HW294018   2.226  11.413   1.372  0.5388 -0.5685  0.0374
28414SOL     OW94019   9.341   7.322   8.503 -0.0747 -0.3318  0.2834
28414SOL    HW194020   9.390   7.300   8.424 -0.3066  1.8817 -0.5461
28414SOL    HW294021   9.321   7.415   8.494 -0.3008 -0.0446  2.8586
28415SOL     OW94022  11.813   1.715  12.205  0.0588  0.1927  0.0190
28415SOL    HW194023  11.831   1.698  12.298 -1.0387  1.1837  0.4291
28415SOL    HW294024  11.730   1.671  12.188 -1.6160  2.9146  0.4958
28416SOL     OW94025   7.947   6.456   9.038  0.4020  0.2095  0.3713
28416SOL    HW194026   7.953   6.430   8.947  0.5221  0.0485  0.4252
28416SOL    HW294027   7.916   6.547   9.035  2.1218  0.8187  0.1121
28417SOL     OW94028   1.666   4.433   5.098 -0.6707  0.4156 -0.5936
28417SOL    HW194029   1.686   4.512   5.147 -1.4802  0.8598 -0.9505
28417SOL    HW294030   1.701   4.362   5.151 -1.9363  0.8438  0.8848
28418SOL     OW94031   3.668   7.801  12.472  0.6807  0.1924 -0.1375
28418SOL    HW194032   3.729   7.732  12.499  0.3726  0.3566  1.0356
28418SOL    HW294033   3.660   7.857  12.549 -1.2812 -0.0659 -0.1102
28419SOL     OW94034  10.253   6.818   2.629  0.4431  0.3776 -0.1476
28419SOL    HW194035  10.225   6.904   2.661 -0.4643 -0.5116  1.5511
28419SOL    HW294036  10.181   6.789   2.573 -0.3830 -0.3087  1.2429
28420SOL     OW94037   8.944  11.046   0.022  0.0789  0.1364 -0.1625
28420SOL    HW194038   8.872  11.101  -0.007 -0.9744 -0.1326  1.7928
28420SOL    HW294039   8.939  11.047   0.117  1.8374 -0.9920 -0.0016
28421SOL     OW94040   7.024   3.577   8.845 -0.1742  0.5951 -0.0327
28421SOL    HW194041   7.100   3.607   8.796 -0.6721  1.1132 -0.4930
28421SOL    HW294042   6.963   3.544   8.779 -0.2817  0.0021  0.3437
28422SOL     OW94043   5.041  11.031   4.398 -0.0834  0.1163 -0.5287
28422SOL    HW194044   4.962  11.023   4.344  0.4555 -0.1628 -1.2999
28422SOL    HW294045   5.008  11.046   4.487 -0.9935  0.5961 -0.9306
28423SOL     OW94046  12.416   8.463   2.344 -0.2935 -0.1985 -0.0508
28423SOL    HW194047  12.385   8.553   2.334  0.9893  0.1988 -0.5379
28423SOL    HW294048  12.508   8.471   2.366 -0.6972 -1.3476  2.4192
28424SOL     OW94049   4.712  12.304   3.728 -0.9264 -0.6428 -0.1309
28424SOL    HW194050   4.665  12.221   3.727 -0.8722 -0.6975  0.8383
28424SOL    HW294051   4.647  12.367   3.760 -0.3711 -0.7063  1.1476
28425SOL     OW94052   2.479   6.764  11.970  0.3755 -0.1535  0.4084
28425SOL    HW194053   2.411   6.748  11.905  0.0721  0.9344  0.4386
28425SOL    HW294054   2.561   6.757  11.921  0.3220 -2.2583  0.5311
28426SOL     OW94055   9.978  12.013   9.316  0.8032 -0.7445 -0.3119
28426SOL    HW194056   9.933  11.934   9.286 -0.1541 -0.1726 -0.4452
28426SOL    HW294057   9.958  12.079   9.250  0.5296 -0.0643  0.4219
28427SOL     OW94058  10.625   0.865   3.447  0.1305 -0.4471 -0.6799
28427SOL    HW194059  10.583   0.804   3.508  0.5920 -0.9862 -0.8934
28427SOL    HW294060  10.581   0.949   3.463  0.5890 -0.4571  0.7369
28428SOL     OW94061   8.326   6.031  11.262  0.5177 -0.1224  0.1239
28428SOL    HW194062   8.238   6.066  11.251  0.5793 -0.5907 -2.7466
28428SOL    HW294063   8.325   5.991  11.349 -0.5089  3.9969  2.2349
28429SOL     OW94064   1.234   1.106   9.798 -0.2257  0.5181 -0.4836
28429SOL    HW194065   1.206   1.138   9.884  1.1937  0.3615  0.0619
28429SOL    HW294066   1.188   1.022   9.788 -1.8419  1.3952 -0.7250
28430SOL     OW94067   7.506   9.782   3.963 -0.1118  0.2881 -0.0760
28430SOL    HW194068   7.486   9.691   3.942  0.1095  0.4387 -0.9953
28430SOL    HW294069   7.429   9.831   3.934 -0.2397  0.3933  0.4367
28431SOL     OW94070   7.215   2.698   1.130 -0.3452  0.3224 -0.5324
28431SOL    HW194071   7.158   2.694   1.053  0.7733  0.3872 -1.4077
28431SOL    HW294072   7.265   2.778   1.118  2.2784 -1.3296 -1.5854
28432SOL     OW94073  11.469   9.879  11.130  0.0487  0.1495 -0.4972
28432SOL    HW194074  11.381   9.843  11.123  0.7292 -1.3732 -2.1687
28432SOL    HW294075  11.465   9.961  11.080 -0.7809  0.9226  0.7913
28433SOL     OW94076   6.223   7.485   8.868 -0.3108 -0.0832  0.2298
28433SOL    HW194077   6.191   7.564   8.914  1.7302  1.3425 -0.6477
28433SOL    HW294078   6.201   7.500   8.776 -0.3874 -0.8242  0.1199
28434SOL     OW94079  10.222  10.217   7.483  0.1638 -0.0441 -0.4536
28434SOL    HW194080  10.255  10.302   7.453  0.0442  0.2632  0.2455
28434SOL    HW294081  10.130  10.217   7.459 -0.6221  1.3334  2.1535
28435SOL     OW94082   2.844   2.588   7.768 -0.0962  0.6177 -0.1924
28435SOL    HW194083   2.859   2.534   7.690  1.2286 -0.9649  1.0806
28435SOL    HW294084   2.832   2.524   7.839  2.5250  1.8926  1.5621
28436SOL     OW94085   7.233   4.770  11.236  0.6119 -0.3517 -0.0007
28436SOL    HW194086   7.185   4.840  11.279  2.1682  0.7085  0.0877
28436SOL    HW294087   7.169   4.728  11.179  0.3947  3.6425 -3.1129
28437SOL     OW94088   4.722   2.376   2.064  0.1020 -0.8252  0.5810
28437SOL    HW194089   4.639   2.424   2.056  0.3637 -0.0360  2.0811
28437SOL    HW294090   4.779   2.437   2.110  1.3566 -1.5610  0.0281
28438SOL     OW94091  11.077  11.959   9.910  0.1039  0.0569 -0.4711
28438SOL    HW194092  11.130  12.034   9.881  0.0960 -0.0596 -0.7867
28438SOL    HW294093  11.070  11.970  10.005  2.2948 -0.9329 -0.1349
28439SOL     OW94094  10.160   1.928   0.022  0.0570  0.8597  0.1017
28439SOL    HW194095  10.117   1.859   0.072 -1.0463  0.2245 -1.6544
28439SOL    HW294096  10.252   1.903   0.021 -0.4360 -1.0883 -1.2202
28440SOL     OW94097   7.955   5.843   8.342  0.1863  0.1790  0.0716
28440SOL    HW194098   7.957   5.780   8.270 -2.6777 -1.9993  1.6681
28440SOL    HW294099   7.896   5.912   8.312  2.2002  1.4684 -1.1273
28441SOL     OW94100   3.990   6.947   6.982  0.3823 -0.2590  0.2498
28441SOL    HW194101   3.980   6.993   7.065  1.3195  2.4382 -1.0140
28441SOL    HW294102   4.008   6.856   7.007 -0.2388  0.2713  2.9409
28442SOL     OW94103  10.596   8.192   2.136 -0.1085 -0.3463 -0.4184
28442SOL    HW194104  10.533   8.129   2.101  0.5073 -0.4514 -1.3672
28442SOL    HW294105  10.660   8.203   2.067  0.9829 -0.3120  0.5728
28443SOL     OW94106   6.958  12.493   0.220  0.2183  0.0033  0.1760
28443SOL    HW194107   6.919  12.424   0.167  0.2701  1.5231 -1.9921
28443SOL    HW294108   6.914  12.487   0.305 -2.3633 -0.4414 -1.1014
28444SOL     OW94109   1.255  11.404   4.543  0.3885  0.1305 -0.0649
28444SOL    HW194110   1.174  11.431   4.587  0.4839  0.0095  0.1886
28444SOL    HW294111   1.257  11.309   4.553 -0.0442 -0.0021 -1.1270
28445SOL     OW94112   6.038   8.327   0.008  0.0847 -0.2863  0.7076
28445SOL    HW194113   5.946   8.313   0.030 -0.4706  2.1578  0.2245
28445SOL    HW294114   6.037   8.352  -0.084  1.1421  0.5005  0.8919
28446SOL     OW94115   9.947   1.171  11.626 -0.4197 -0.9483 -0.2339
28446SOL    HW194116   9.938   1.109  11.699  1.2207 -1.6283 -0.5684
28446SOL    HW294117   9.887   1.138  11.559 -0.2710 -1.6273 -0.0387
28447SOL     OW94118   4.673   5.567   2.676  0.0807  0.1337 -0.5389
28447SOL    HW194119   4.694   5.500   2.611  2.4536  0.5607 -0.3034
28447SOL    HW294120   4.599   5.614   2.639  1.1786  0.1696 -2.8441
28448SOL     OW94121   5.154   7.935   7.675  0.6618 -0.1507 -0.0595
28448SOL    HW194122   5.107   7.890   7.605  0.6333 -0.4196  0.1338
28448SOL    HW294123   5.091   7.997   7.711  0.6576 -0.0550 -0.2316
28449SOL     OW94124   4.250   3.812  12.203 -0.1096 -0.5451  0.4840
28449SOL    HW194125   4.316   3.743  12.206  0.6798  0.2321  1.7574
28449SOL    HW294126   4.247   3.846  12.293  0.5741  2.0497 -0.4033
28450SOL     OW94127   0.714   6.032   2.787  0.8210 -0.4853  0.1246
28450SOL    HW194128   0.783   6.034   2.854  0.0992 -0.5561  0.8825
28450SOL    HW294129   0.700   6.125   2.766  0.4509 -0.3971  0.7150
28451SOL     OW94130   4.771   4.692   6.835 -0.1039 -0.2348  0.0851
28451SOL    HW194131   4.839   4.755   6.855 -1.0851  0.5173  1.2129
28451SOL    HW294132   4.801   4.610   6.875  0.3277 -0.0127  0.2127
28452SOL     OW94133   9.517  10.576   8.029  0.1128  0.2359  0.2128
28452SOL    HW194134   9.519  10.490   8.072 -1.0860 -1.1214 -2.1954
28452SOL    HW294135   9.607  10.588   7.998  0.1585 -0.4693  0.0388
28453SOL     OW94136  11.916   4.262   4.281  0.0051 -0.1478 -0.0841
28453SOL    HW194137  11.884   4.351   4.297  0.7214 -0.0416  0.8638
28453SOL    HW294138  11.875   4.209   4.349 -0.1498 -0.4814 -0.4353
28454SOL     OW94139   8.889  11.589  12.238  0.0007 -0.3674 -0.3275
28454SOL    HW194140   8.976  11.552  12.249  1.5381  2.2860 -2.3208
28454SOL    HW294141   8.861  11.561  12.151  0.5281  1.6127 -1.2144
28455SOL     OW94142  11.944   9.376   7.288  0.2299 -1.2031 -0.7569
28455SOL    HW194143  11.933   9.328   7.369  1.7679  0.1784  0.3363
28455SOL    HW294144  12.007   9.324   7.237  1.7829 -0.5018  0.3625
28456SOL     OW94145   6.143   8.867   8.254 -1.1384 -0.1996 -0.4409
28456SOL    HW194146   6.108   8.792   8.302 -0.4613  0.8423  1.8429
28456SOL    HW294147   6.222   8.834   8.211 -0.6322 -0.7417  0.8591
28457SOL     OW94148   2.659   2.911   4.035 -0.1944  0.1735 -0.0493
28457SOL    HW194149   2.607   2.836   4.005 -0.9242  0.4857  0.4302
28457SOL    HW294150   2.712   2.876   4.107  2.0431 -0.7515 -1.9929
28458SOL     OW94151   1.919   8.754   0.766  0.3022 -1.0942 -0.3205
28458SOL    HW194152   1.905   8.847   0.783  0.1295 -1.1430 -0.1920
28458SOL    HW294153   1.848   8.730   0.706  0.5687 -1.0574 -0.6529
28459SOL     OW94154   4.006   7.445  10.140 -0.5052 -0.1433  0.2685
28459SOL    HW194155   4.076   7.484  10.192 -0.7376  1.0507 -0.2995
28459SOL    HW294156   4.047   7.370  10.097  0.4561  0.6118 -0.1513
28460SOL     OW94157   9.370   5.444   5.594  0.1135 -0.5035 -0.9887
28460SOL    HW194158   9.275   5.432   5.593  0.1111 -0.4718 -1.2461
28460SOL    HW294159   9.394   5.456   5.502 -0.0948  2.8960 -0.7266
28461SOL     OW94160   0.992  11.306   1.204 -0.3332  0.0350 -0.1435
28461SOL    HW194161   0.952  11.219   1.194  1.6222 -0.7861 -1.5824
28461SOL    HW294162   1.014  11.312   1.297 -0.4073 -1.0710 -0.0431
28462SOL     OW94163  11.410   4.145   5.018 -0.4362 -0.3754  0.2962
28462SOL    HW194164  11.411   4.106   4.931  0.3186 -0.7682  0.4694
28462SOL    HW294165  11.457   4.228   5.008 -1.3359  0.1194  0.0984
28463SOL     OW94166  11.633   7.640   7.121  0.4985 -0.6772  0.2375
28463SOL    HW194167  11.665   7.624   7.210 -0.8081 -0.4949  0.7714
28463SOL    HW294168  11.542   7.667   7.134  0.3766 -0.3883 -1.1489
28464SOL     OW94169   2.624  10.068  11.982  0.3191 -0.0792 -0.2863
28464SOL    HW194170   2.576  10.127  12.040  0.6742  0.2114 -0.2829
28464SOL    HW294171   2.703  10.116  11.958  1.3127 -1.0646  0.8311
28465SOL     OW94172   0.534   2.951   1.444  0.5234  0.9336  0.0614
28465SOL    HW194173   0.564   3.011   1.376  0.8103  0.8873  0.1451
28465SOL    HW294174   0.609   2.943   1.503  0.7397 -0.0419 -0.3195
28466SOL     OW94175  11.071   9.704   7.464 -0.2466 -0.2765 -0.3672
28466SOL    HW194176  11.083   9.638   7.396  1.4712  1.4229 -1.7918
28466SOL    HW294177  11.015   9.771   7.423  0.9024  0.8230 -0.1841
28467SOL     OW94178   6.293   6.370   0.219  0.3150 -0.2910 -0.3746
28467SOL    HW194179   6.362   6.403   0.276 -1.3274  0.5842  1.2084
28467SOL    HW294180   6.221   6.432   0.230 -0.5780 -0.8893 -2.3495
28468SOL     OW94181   5.524   5.238   7.239  0.6916 -0.4663 -0.2594
28468SOL    HW194182   5.577   5.271   7.311 -0.0334 -1.6772  0.8716
28468SOL    HW294183   5.588   5.207   7.174  1.3624  1.5857 -0.6599
28469SOL     OW94184   3.349  11.226   4.449 -0.3155  0.4956 -0.4879
28469SOL    HW194185   3.290  11.300   4.438 -2.7493 -1.3314 -0.4480
28469SOL    HW294186   3.339  11.200   4.541  2.0883  1.2972  0.0813
28470SOL     OW94187   9.944   9.617  10.748 -0.3178  0.3638 -0.2280
28470SOL    HW194188   9.952   9.604  10.654  0.3231 -0.8404 -0.0282
28470SOL    HW294189   9.991   9.698  10.765  0.0974  0.2655 -0.8670
28471SOL     OW94190   3.189   0.558   1.621 -0.8618  0.2176 -0.5718
28471SOL    HW194191   3.098   0.546   1.649 -0.6246 -0.5963 -0.1341
28471SOL    HW294192   3.221   0.470   1.602  0.0078  0.4344 -0.1732
28472SOL     OW94193   8.497   7.117   1.064  0.0488  0.0804 -0.2959
28472SOL    HW194194   8.402   7.115   1.052  0.0652 -1.1367 -0.4178
28472SOL    HW294195   8.515   7.204   1.098 -1.3786 -0.3422  1.7497
28473SOL     OW94196   2.386   7.323   2.038 -0.2554 -0.3229 -0.0575
28473SOL    HW194197   2.329   7.392   2.075  0.0547 -0.4477  0.6761
28473SOL    HW294198   2.338   7.291   1.962 -0.9409 -0.0805  0.2587
28474SOL     OW94199   1.648   2.333   7.084 -0.1954 -0.1435 -0.0613
28474SOL    HW194200   1.587   2.361   7.015 -0.9735 -0.6186  0.4091
28474SOL    HW294201   1.721   2.294   7.038 -0.1578  0.5981 -0.6510
28475SOL     OW94202   1.797   3.599  10.593  0.6322 -0.5723 -0.6476
28475SOL    HW194203   1.820   3.682  10.635 -0.8059  0.6805 -2.2041
28475SOL    HW294204   1.881   3.561  10.567  1.4611 -0.6676  1.8716
28476SOL     OW94205   4.102   9.073   0.871 -0.7598  0.4488 -0.1802
28476SOL    HW194206   4.120   9.040   0.959 -1.9483  1.9239  0.6586
28476SOL    HW294207   4.189   9.094   0.836 -0.2343 -0.5780  0.4496
28477SOL     OW94208   5.472  11.063   2.853 -0.2371  0.1189 -0.2461
28477SOL    HW194209   5.406  11.038   2.918  2.0283 -1.1707  1.7374
28477SOL    HW294210   5.519  11.135   2.894  1.7143 -1.2002 -0.0513
28478SOL     OW94211   2.451   8.291   4.273 -0.3247 -0.1869 -0.1252
28478SOL    HW194212   2.460   8.355   4.343  0.1566  0.2850 -0.6048
28478SOL    HW294213   2.427   8.344   4.196 -0.7621 -0.6840 -0.3349
28479SOL     OW94214  11.714   7.772  11.740  0.5156 -0.0575  0.0785
28479SOL    HW194215  11.742   7.707  11.805  0.3978 -0.7088 -0.5139
28479SOL    HW294216  11.621   7.755  11.728  0.5967 -0.1364 -0.4722
28480SOL     OW94217  10.508  12.600   1.967  0.0836 -0.2389 -0.6994
28480SOL    HW194218  10.438  12.646   1.921 -1.5017 -1.9847 -0.1382
28480SOL    HW294219  10.507  12.511   1.932  1.0955 -0.6807  0.2981
28481SOL     OW94220   7.806   4.761   4.259 -0.4412  0.4989 -0.4229
28481SOL    HW194221   7.848   4.723   4.336 -0.7305  0.3861 -0.3179
28481SOL    HW294222   7.836   4.708   4.186 -0.8611  0.0443 -0.2764
28482SOL     OW94223   8.135   9.681  12.345 -0.1656  0.4607  0.2674
28482SOL    HW194224   8.092   9.705  12.427 -0.8792  0.2570 -0.0324
28482SOL    HW294225   8.213   9.633  12.371 -3.1433 -4.7055  0.9268
28483SOL     OW94226   3.175   0.096   1.294 -0.6442  0.0801  0.3696
28483SOL    HW194227   3.112   0.025   1.280  0.9917 -1.3612 -0.0382
28483SOL    HW294228   3.183   0.103   1.389 -1.4304  0.3102  0.4263
28484SOL     OW94229   7.987   1.844   7.757  0.4079  0.4572 -0.1966
28484SOL    HW194230   7.946   1.922   7.721 -0.6094  0.2718  0.5145
28484SOL    HW294231   7.935   1.824   7.836  0.6371 -0.9302 -0.3776
28485SOL     OW94232   1.234   7.049   6.386 -0.2408 -0.2480 -0.1204
28485SOL    HW194233   1.205   6.967   6.425 -1.1128 -0.7683 -1.7649
28485SOL    HW294234   1.321   7.030   6.350 -0.5959 -0.5868 -0.8258
28486SOL     OW94235   2.196   7.883   4.927 -0.6005 -0.2374 -0.6202
28486SOL    HW194236   2.186   7.830   4.848 -0.6031  0.0953 -0.8436
28486SOL    HW294237   2.224   7.969   4.895 -0.7938 -0.0438 -0.2715
28487SOL     OW94238   9.227   1.713  11.900  0.2012  0.0951 -0.1688
28487SOL    HW194239   9.319   1.703  11.876  0.2050 -0.8499  0.1882
28487SOL    HW294240   9.185   1.633  11.869 -0.1801 -0.2175  1.0951
28488SOL     OW94241   1.490   6.898   1.765 -0.6286  0.0625 -0.1638
28488SOL    HW194242   1.468   6.943   1.847  1.1282 -2.4219  1.8129
28488SOL    HW294243   1.420   6.834   1.753 -0.8833  0.4210 -0.6656
28489SOL     OW94244  11.226   1.768  11.020 -0.5320  0.3230 -0.4546
28489SOL    HW194245  11.235   1.863  11.013  1.2509  0.2303  0.1544
28489SOL    HW294246  11.149   1.755  11.076 -0.4623  1.4261 -0.0881
28490SOL     OW94247   0.623   5.589   1.633  0.4115 -0.0480 -0.1511
28490SOL    HW194248   0.545   5.584   1.578 -0.9296 -1.2158  1.7703
28490SOL    HW294249   0.647   5.682   1.633 -0.9622  0.3256 -0.7852
28491SOL     OW94250   1.671   5.666   5.055  0.2954 -0.3844 -0.2726
28491SOL    HW194251   1.584   5.677   5.016  0.0607  0.8322  0.5473
28491SOL    HW294252   1.671   5.724   5.131  0.4847 -3.1658  2.0206
28492SOL     OW94253   7.630   9.446  11.601 -0.0211 -0.0259 -0.5703
28492SOL    HW194254   7.580   9.368  11.624  2.6086 -1.9351 -0.8112
28492SOL    HW294255   7.596   9.515  11.658 -0.9999 -1.8886  1.2009
28493SOL     OW94256   6.413   1.817   2.727  0.5356 -0.1096 -0.2370
28493SOL    HW194257   6.404   1.793   2.635  0.8054  2.4940 -1.0218
28493SOL    HW294258   6.496   1.779   2.754  0.2877 -1.1993 -0.9399
28494SOL     OW94259   0.517   6.375   6.779  0.4417 -0.0335 -0.1670
28494SOL    HW194260   0.595   6.413   6.818 -0.7896  0.3501  2.1012
28494SOL    HW294261   0.549   6.328   6.702  3.0715 -0.8584  1.3075
28495SOL     OW94262   3.772  10.993  10.134 -0.4239  0.2728 -0.4977
28495SOL    HW194263   3.828  11.041  10.196 -0.8703 -1.8551  1.7036
28495SOL    HW294264   3.831  10.967  10.063  0.8237  0.2586  0.5141
28496SOL     OW94265   1.679  12.118   9.642  0.3899  0.1828 -0.2695
28496SOL    HW194266   1.727  12.042   9.610 -1.3823 -0.2945 -1.9613
28496SOL    HW294267   1.654  12.094   9.732  0.7496 -0.7604 -0.4071
28497SOL     OW94268   6.623  10.453  11.794 -0.2240 -0.2611 -0.7730
28497SOL    HW194269   6.659  10.491  11.874  0.2876  1.7747 -1.9106
28497SOL    HW294270   6.661  10.365  11.790 -0.1106 -0.3421  1.0881
28498SOL     OW94271   0.504   1.044   8.446 -0.3592 -0.3768 -0.1248
28498SOL    HW194272   0.571   1.009   8.506  0.8425 -1.9415 -2.2259
28498SOL    HW294273   0.554   1.081   8.374 -1.7595 -0.5106 -1.2033
28499SOL     OW94274   1.949   8.915  11.483 -0.7286  0.6303  0.1983
28499SOL    HW194275   1.860   8.886  11.464 -0.2424 -0.7511 -0.0713
28499SOL    HW294276   1.997   8.900  11.402 -0.1469  0.9996  0.4663
28500SOL     OW94277   1.962  11.407   4.135  0.3080 -0.2330 -0.1624
28500SOL    HW194278   1.949  11.483   4.079 -0.7265 -0.9442 -0.9127
28500SOL    HW294279   1.972  11.333   4.075  0.6181 -0.8018  0.5658
28501SOL     OW94280   8.013  11.071   2.782  0.1253  0.3243 -0.6261
28501SOL    HW194281   8.093  11.037   2.822 -0.6959 -0.3910  0.4625
28501SOL    HW294282   8.013  11.035   2.693  1.4511  1.0784 -0.9539
28502SOL     OW94283  11.522   4.743   6.608  0.2235  0.2773  0.0433
28502SOL    HW194284  11.504   4.704   6.522 -0.5932  0.4104  0.1417
28502SOL    HW294285  11.593   4.805   6.591 -1.0867  1.5925 -0.9224
28503SOL     OW94286   1.518   0.665  12.344  0.3474  0.2672  0.5620
28503SOL    HW194287   1.577   0.735  12.315  0.8512 -0.4643 -0.2386
28503SOL    HW294288   1.565   0.622  12.414  1.3779 -1.1104 -0.9038
28504SOL     OW94289   1.014   3.959  11.575 -0.4436 -0.2237 -0.2671
28504SOL    HW194290   1.040   4.030  11.516 -0.6211  1.0383  1.1138
28504SOL    HW294291   0.922   3.976  11.595  0.2965  1.0143  2.4971
28505SOL     OW94292   7.800   4.695   6.991 -0.0554  0.5089 -0.3866
28505SOL    HW194293   7.876   4.729   7.039 -0.8124 -0.0216  1.2373
28505SOL    HW294294   7.745   4.772   6.976  0.3171  0.7236 -0.6851
28506SOL     OW94295   6.528   7.278   9.976 -1.0600  0.4145 -0.1621
28506SOL    HW194296   6.455   7.221  10.000 -0.8274 -0.1284 -0.7263
28506SOL    HW294297   6.508   7.307   9.887 -1.1301  1.1478  0.0850
28507SOL     OW94298   6.277  11.886   6.280  0.4571 -0.2975 -0.5798
28507SOL    HW194299   6.273  11.790   6.286 -0.4838 -0.3238 -1.3778
28507SOL    HW294300   6.187  11.913   6.263  0.6074  0.7889  0.2310
28508SOL     OW94301   9.846   1.379  12.236 -0.3511  0.0963 -0.7197
28508SOL    HW194302   9.880   1.330  12.311 -2.9878 -0.3892  0.2490
28508SOL    HW294303   9.817   1.311  12.174 -0.9328  0.4594 -0.8514
28509SOL     OW94304   5.379   8.102   3.415  0.1531  0.6428 -0.0732
28509SOL    HW194305   5.384   8.191   3.449  0.5430  0.7461 -0.3862
28509SOL    HW294306   5.340   8.112   3.328 -1.0891  0.3561  0.4365
28510SOL     OW94307   0.749  10.315   7.384  0.4391  0.3798  0.3406
28510SOL    HW194308   0.758  10.411   7.381  2.3660  0.3021  1.6760
28510SOL    HW294309   0.784  10.291   7.470  0.8391 -1.6089 -0.3369
28511SOL     OW94310   7.139  10.338   0.901 -0.3475  0.1433  0.8724
28511SOL    HW194311   7.133  10.416   0.845 -0.8777  1.6403  2.9039
28511SOL    HW294312   7.049  10.316   0.922 -0.1350 -0.0891  1.5605
28512SOL     OW94313   1.037   4.393   7.846  0.4082 -0.3989 -0.2233
28512SOL    HW194314   0.970   4.325   7.838 -1.1343  0.9787  0.4593
28512SOL    HW294315   1.056   4.419   7.755  0.2155 -0.9767 -0.4329
28513SOL     OW94316  10.199   3.256  11.833  0.1048  0.7444  0.0135
28513SOL    HW194317  10.206   3.238  11.739  0.5315 -0.8084  0.3279
28513SOL    HW294318  10.285   3.291  11.856  0.4759 -0.2146  0.0994
28514SOL     OW94319   1.255   5.420  11.409 -0.4325 -0.8520 -0.8115
28514SOL    HW194320   1.349   5.418  11.390 -0.2574  0.3923 -0.1199
28514SOL    HW294321   1.248   5.464  11.493 -1.7783  0.9675 -1.8023
28515SOL     OW94322   5.676   0.162   6.625  0.2373 -0.1362 -0.0598
28515SOL    HW194323   5.659   0.247   6.665  0.2082  0.0740 -0.5206
28515SOL    HW294324   5.600   0.109   6.651  0.6408 -0.2705  0.9013
28516SOL     OW94325   5.503   7.135   4.833 -0.9579  0.0060  0.1101
28516SOL    HW194326   5.453   7.212   4.862  0.5951  0.5385  1.4913
28516SOL    HW294327   5.540   7.099   4.914  0.8923 -0.3587 -0.8618
28517SOL     OW94328   7.989   1.014  12.462  0.2000 -0.1234 -0.1529
28517SOL    HW194329   8.082   1.035  12.464  0.0703  0.4201  0.4199
28517SOL    HW294330   7.976   0.969  12.379  0.2985  2.9941 -2.0159
28518SOL     OW94331   4.920  10.205   7.542  0.0275  0.1788 -0.7590
28518SOL    HW194332   4.920  10.160   7.626 -1.8905  0.6492 -0.4550
28518SOL    HW294333   4.827  10.209   7.517  0.2907  2.2801 -1.6522
28519SOL     OW94334   5.837   3.622   1.763  0.9652 -0.0942  0.0733
28519SOL    HW194335   5.796   3.670   1.835 -0.9045 -0.6055 -0.5738
28519SOL    HW294336   5.918   3.588   1.800  0.2979  0.0812  1.7983
28520SOL     OW94337   7.553   9.677   2.862 -0.0449 -0.7585 -0.5701
28520SOL    HW194338   7.461   9.669   2.838 -0.0890  0.6352 -0.9713
28520SOL    HW294339   7.570   9.771   2.861  0.6346 -0.7359  2.4213
28521SOL     OW94340   3.060   7.651   4.743  0.4607 -0.1541 -0.8322
28521SOL    HW194341   3.022   7.719   4.798  0.7293 -1.4665  1.0672
28521SOL    HW294342   3.137   7.692   4.703  0.3862  0.7734 -0.0502
28522SOL     OW94343   4.394   9.515   7.269  0.4528 -0.6516 -0.0103
28522SOL    HW194344   4.338   9.586   7.235  0.1371 -0.7389  0.3248
28522SOL    HW294345   4.333   9.447   7.295  0.7499 -0.9774 -0.1627
28523SOL     OW94346   9.360   4.652   1.146 -0.5666  0.3356 -0.5492
28523SOL    HW194347   9.265   4.665   1.157 -0.6734 -1.6647  1.4453
28523SOL    HW294348   9.399   4.725   1.193 -1.0417  1.6476 -2.0677
28524SOL     OW94349   6.685   6.527   8.530  0.5223 -0.3694 -0.0072
28524SOL    HW194350   6.706   6.620   8.528 -1.7556  0.2544  1.2767
28524SOL    HW294351   6.682   6.505   8.623 -1.1359 -1.1359 -0.2010
28525SOL     OW94352   2.814  10.462   2.522 -0.3012 -0.1840 -0.0917
28525SOL    HW194353   2.738  10.412   2.494 -0.4319 -1.1537  1.8133
28525SOL    HW294354   2.820  10.446   2.616  0.9755  1.6411  0.1887
28526SOL     OW94355   1.144   8.714   4.166 -0.8472 -0.2876  0.0540
28526SOL    HW194356   1.113   8.637   4.120 -2.3797 -0.1284  0.7515
28526SOL    HW294357   1.235   8.723   4.139 -1.1816 -1.2150 -1.5244
28527SOL     OW94358   4.171   0.729   3.960 -0.4213 -0.6274 -0.8661
28527SOL    HW194359   4.181   0.750   4.052  0.9428  0.8887 -1.3025
28527SOL    HW294360   4.254   0.687   3.936 -0.1687  0.3105 -1.7007
28528SOL     OW94361   1.670  12.304  12.359 -0.1818  1.0559  0.8834
28528SOL    HW194362   1.621  12.237  12.311  2.0162 -0.3450  0.4717
28528SOL    HW294363   1.618  12.320  12.437 -1.0928 -0.6784  0.6832
28529SOL     OW94364  12.228   3.917   7.829 -0.3221 -0.3768  0.4806
28529SOL    HW194365  12.192   3.870   7.755 -0.7137 -1.5062  1.3537
28529SOL    HW294366  12.168   3.898   7.901  0.6960 -0.3179  1.3776
28530SOL     OW94367  10.004   7.126   2.259 -0.2358  0.0095 -0.2755
28530SOL    HW194368  10.037   7.044   2.222  0.8212  0.6082 -0.7049
28530SOL    HW294369   9.994   7.108   2.353 -0.7744 -0.8369 -0.4812
28531SOL     OW94370   6.358  10.844   9.713 -0.1392 -0.3698 -0.3437
28531SOL    HW194371   6.340  10.838   9.619  0.0304 -0.6509 -0.3592
28531SOL    HW294372   6.329  10.932   9.737  0.0562 -0.2008 -0.7115
28532SOL     OW94373   7.544  12.278   2.765  0.2963 -0.2866  0.0144
28532SOL    HW194374   7.626  12.241   2.732 -0.0177 -0.5725 -0.4505
28532SOL    HW294375   7.571  12.336   2.837  0.6680 -2.8685  2.1124
28533SOL     OW94376  12.500   5.831   0.527 -0.0465 -0.2897  0.1120
28533SOL    HW194377  12.495   5.735   0.529 -0.7736 -0.2888 -0.9470
28533SOL    HW294378  12.527   5.852   0.438  1.7971  0.4610  0.7921
28534SOL     OW94379   7.706   3.559  12.274  0.2523 -0.0366  0.0387
28534SOL    HW194380   7.757   3.478  12.276 -0.5553 -0.5742 -0.5878
28534SOL    HW294381   7.663   3.558  12.189  1.9133  2.1225 -0.9225
28535SOL     OW94382   2.603  12.291   9.070  0.7790 -0.0523  0.4565
28535SOL    HW194383   2.640  12.216   9.117 -0.0168 -0.9865 -0.3805
28535SOL    HW294384   2.523  12.313   9.119  0.4257 -0.4569  0.0643
28536SOL     OW94385  11.350   4.141   1.344  0.2581  0.3080 -0.0908
28536SOL    HW194386  11.388   4.100   1.422 -2.4365 -0.6400  0.8305
28536SOL    HW294387  11.294   4.074   1.306 -1.4034  1.9505 -0.6687
28537SOL     OW94388  10.749   4.061   2.864  0.2310 -0.1439  0.1518
28537SOL    HW194389  10.729   4.154   2.868  1.0305  0.1148 -1.3993
28537SOL    HW294390  10.756   4.035   2.956 -1.3308  1.0011  0.6424
28538SOL     OW94391  12.298  11.533   2.884  0.0521  0.5550 -0.2222
28538SOL    HW194392  12.306  11.439   2.868 -0.5429  0.4626  0.0010
28538SOL    HW294393  12.298  11.541   2.979  0.5180  0.8238 -0.2412
28539SOL     OW94394   9.304   4.056   8.788  0.0811 -0.1858 -0.0513
28539SOL    HW194395   9.268   4.137   8.751  1.5554  0.5885  0.1396
28539SOL    HW294396   9.292   4.065   8.882  0.0538 -0.2836 -0.0455
28540SOL     OW94397   9.833   6.363  12.527 -0.1561 -0.3721  0.4460
28540SOL    HW194398   9.747   6.372  12.569  0.3728  0.4503  1.3991
28540SOL    HW294399   9.870   6.283  12.565 -0.3448 -0.5078  0.3406
28541SOL     OW94400  10.419   1.734   4.752 -0.5434 -0.7378 -0.0497
28541SOL    HW194401  10.492   1.765   4.806 -0.3660 -1.5384  0.1769
28541SOL    HW294402  10.388   1.813   4.708  0.1527 -0.2992  0.2137
28542SOL     OW94403   7.684   4.789   6.095 -0.2921  0.0371  0.6878
28542SOL    HW194404   7.666   4.739   6.175  1.7787 -1.3636  0.3889
28542SOL    HW294405   7.766   4.834   6.114  0.7249 -1.0376 -0.8928
28543SOL     OW94406  10.315   3.852   5.458  0.0976 -0.2437  0.6270
28543SOL    HW194407  10.340   3.774   5.409 -0.6916  0.8032 -1.5605
28543SOL    HW294408  10.332   3.830   5.549  0.9444 -2.5494 -0.0378
28544SOL     OW94409   5.325   1.821   6.600 -0.1618 -0.0061 -0.0517
28544SOL    HW194410   5.285   1.781   6.522  2.4598  0.5481 -1.7907
28544SOL    HW294411   5.300   1.914   6.594  0.2790  0.0915 -0.4058
28545SOL     OW94412  10.583   5.775  10.299 -0.3959  0.4455  0.0318
28545SOL    HW194413  10.535   5.757  10.218  0.8168  0.4431 -0.7094
28545SOL    HW294414  10.546   5.857  10.331 -1.6422 -0.1012  0.0817
28546SOL     OW94415   4.691   2.381  11.607 -0.0458 -0.2357  0.2128
28546SOL    HW194416   4.696   2.476  11.601  0.3563  0.0544  3.2830
28546SOL    HW294417   4.604   2.359  11.573 -0.7877  1.4279  0.9035
28547SOL     OW94418   6.362   8.164   8.495  0.4291 -0.1520 -0.2640
28547SOL    HW194419   6.399   8.250   8.515 -0.0509  0.2920 -1.2251
28547SOL    HW294420   6.431   8.102   8.519  1.4120  0.5931 -1.0685
28548SOL     OW94421   4.518  12.582   1.451 -0.5660  0.0101  0.4066
28548SOL    HW194422   4.465  12.626   1.518 -0.6099  0.9095 -0.2051
28548SOL    HW294423   4.510  12.637   1.373  0.7260 -0.1931  0.0998
28549SOL     OW94424   3.329   2.772   6.599 -0.5766 -0.7114 -0.2416
28549SOL    HW194425   3.388   2.833   6.555 -0.0705  0.5585  2.0077
28549SOL    HW294426   3.324   2.696   6.541 -1.6240  1.5639 -3.4475
28550SOL     OW94427   3.400   1.832  10.003  0.4214  0.2698  0.2209
28550SOL    HW194428   3.417   1.745   9.967  0.7536 -0.6139  2.3825
28550SOL    HW294429   3.437   1.893   9.939 -2.4354 -0.9296 -2.8952
28551SOL     OW94430   2.725  11.752   7.856  0.0975 -0.5723 -0.1844
28551SOL    HW194431   2.651  11.691   7.866 -0.7760  0.7316  2.0617
28551SOL    HW294432   2.725  11.775   7.763 -2.5350 -0.4048 -0.2199
28552SOL     OW94433   3.288   9.121   2.311 -0.4609 -0.0210 -0.6633
28552SOL    HW194434   3.210   9.156   2.269 -0.0507  1.4853 -0.2603
28552SOL    HW294435   3.263   9.105   2.402 -0.5625 -0.4957 -0.7719
28553SOL     OW94436  12.482   1.336  11.228 -0.2648 -0.3210 -0.4117
28553SOL    HW194437  12.529   1.272  11.175  1.0068 -0.9188  1.3312
28553SOL    HW294438  12.550   1.399  11.254 -1.4612  1.7672 -2.0183
28554SOL     OW94439   8.642   7.645   2.646 -0.2282 -0.5187 -0.2069
28554SOL    HW194440   8.656   7.571   2.705 -1.3315 -0.4886  0.1144
28554SOL    HW294441   8.657   7.609   2.558 -0.0103 -0.9278 -0.0050
28555SOL     OW94442   7.759   3.988   8.505  0.1512 -0.1035 -0.5434
28555SOL    HW194443   7.811   3.977   8.584  0.6587 -0.0066 -0.8642
28555SOL    HW294444   7.704   3.909   8.502  0.2016 -0.1552 -0.1531
28556SOL     OW94445   1.220   6.753   8.793 -0.1901  0.5471 -0.5746
28556SOL    HW194446   1.305   6.753   8.748  1.0787  3.8263  1.4284
28556SOL    HW294447   1.157   6.772   8.723  1.1819  1.4193 -1.6494
28557SOL     OW94448   2.347   5.768   4.138 -0.5453  0.5814 -0.4150
28557SOL    HW194449   2.403   5.752   4.214 -0.1058 -0.6680 -0.9719
28557SOL    HW294450   2.370   5.698   4.077 -0.4087  1.9426 -1.9862
28558SOL     OW94451   8.827   8.085   1.060  0.0859 -0.0247  0.0229
28558SOL    HW194452   8.751   8.028   1.070  0.2560  0.0126  1.9168
28558SOL    HW294453   8.815   8.153   1.127  1.0365  0.8295 -0.6445
28559SOL     OW94454   8.280   2.644   7.275 -0.4472  0.4648  0.5209
28559SOL    HW194455   8.205   2.599   7.236 -1.0707  1.1946  0.8579
28559SOL    HW294456   8.353   2.583   7.263 -0.5308  0.7200 -2.0398
28560SOL     OW94457   9.847   2.457   2.244  0.2746 -0.3529  0.4449
28560SOL    HW194458   9.778   2.391   2.256  0.7388 -0.5992  1.9464
28560SOL    HW294459   9.863   2.491   2.332  0.2048  1.6327 -0.2590
28561SOL     OW94460   3.271   9.521   1.122 -0.3506  0.0529  0.2672
28561SOL    HW194461   3.291   9.555   1.035 -2.8480 -1.3885 -0.9803
28561SOL    HW294462   3.325   9.443   1.131  1.8676  1.5886  1.1937
28562SOL     OW94463   8.356   2.325   9.758 -0.0533 -0.1192  0.0924
28562SOL    HW194464   8.287   2.349   9.697 -0.5836 -1.0094  0.3273
28562SOL    HW294465   8.408   2.259   9.711 -0.7612 -1.1853  0.7549
28563SOL     OW94466   0.430   2.734   5.444 -0.5461 -0.1934 -0.5702
28563SOL    HW194467   0.408   2.806   5.385 -0.0635 -0.7631 -1.4650
28563SOL    HW294468   0.510   2.764   5.488 -1.7623  0.9115  1.0244
28564SOL     OW94469  10.369   1.647  10.434  0.1391 -0.0297 -0.2586
28564SOL    HW194470  10.293   1.589  10.441  0.0366  0.0723 -0.5212
28564SOL    HW294471  10.339   1.719  10.379  0.5211 -0.1497 -0.6324
28565SOL     OW94472   2.889   0.401  12.114 -0.7023 -0.4534 -0.4566
28565SOL    HW194473   2.897   0.362  12.027 -0.7969  0.2468 -0.7845
28565SOL    HW294474   2.873   0.494  12.097 -1.5536 -0.4500  0.2862
28566SOL     OW94475   3.385  10.095   9.632  0.2042 -0.1812 -0.0369
28566SOL    HW194476   3.437  10.175   9.640 -0.9108  0.4793  0.8940
28566SOL    HW294477   3.374  10.064   9.721  0.6907 -1.4538 -0.3895
28567SOL     OW94478   6.586   9.811   3.494 -0.0325  0.1233 -0.2699
28567SOL    HW194479   6.508   9.799   3.439 -0.1165  2.3866 -0.7401
28567SOL    HW294480   6.651   9.751   3.457 -1.0968 -0.7709 -0.7609
28568SOL     OW94481   0.632   3.489   7.872 -0.0346 -0.2127  0.3304
28568SOL    HW194482   0.698   3.544   7.914 -0.2137  0.3660 -0.1362
28568SOL    HW294483   0.636   3.513   7.779 -1.9204  0.9199  0.4813
28569SOL     OW94484   4.752   5.658   5.030  0.4627 -0.1863  0.3320
28569SOL    HW194485   4.669   5.635   5.072  0.7900 -1.2666  0.4237
28569SOL    HW294486   4.729   5.674   4.938 -0.0390  0.8030  0.6207
28570SOL     OW94487   4.171   0.740   5.636  0.0133  0.1713  0.2633
28570SOL    HW194488   4.210   0.813   5.588  0.3831  1.5334  2.5117
28570SOL    HW294489   4.245   0.683   5.658 -0.2204 -0.7223 -1.1121
28571SOL     OW94490   2.311   4.007   6.056  0.0972 -0.7364 -0.0238
28571SOL    HW194491   2.237   3.957   6.022  0.1925 -0.7060 -0.2792
28571SOL    HW294492   2.370   4.015   5.982 -0.7711  1.3962 -0.5535
28572SOL     OW94493   3.935   8.923   5.733  1.0196  0.4331 -0.3778
28572SOL    HW194494   3.946   8.927   5.638  0.7077  1.2772 -0.3830
28572SOL    HW294495   3.846   8.891   5.746  0.0901  2.8257 -0.4116
28573SOL     OW94496   7.962  11.476   8.977 -0.1239  0.1278 -0.3332
28573SOL    HW194497   7.908  11.536   8.925  0.3673  1.5501  0.7520
28573SOL    HW294498   7.933  11.490   9.068  0.5736 -0.6979  0.0346
28574SOL     OW94499  11.678   5.762   0.566 -0.3266 -0.1841  0.3167
28574SOL    HW194500  11.748   5.701   0.542 -0.1712  0.9263 -2.3419
28574SOL    HW294501  11.603   5.705   0.584  0.0666 -1.2387 -1.1755
28575SOL     OW94502   8.015   3.191   5.070  0.1738 -0.1015 -0.0489
28575SOL    HW194503   7.990   3.284   5.074 -0.4854 -0.2802  0.1769
28575SOL    HW294504   8.094   3.185   5.124 -0.0460  0.2451  0.3126
28576SOL     OW94505   2.405   7.441   3.891  0.2657 -0.0559 -0.3219
28576SOL    HW194506   2.443   7.361   3.857 -1.1141 -1.1217  0.5280
28576SOL    HW294507   2.347   7.472   3.821  0.7701  0.1948 -0.6347
28577SOL     OW94508   9.318   9.422   1.589  0.4679 -0.4725 -0.1286
28577SOL    HW194509   9.391   9.360   1.580 -1.0998 -2.1255 -2.6807
28577SOL    HW294510   9.345   9.499   1.539  0.6044 -0.9961 -0.8846
28578SOL     OW94511   8.130   8.776   7.250  0.1077  0.1741  0.3767
28578SOL    HW194512   8.063   8.841   7.229 -0.7555 -0.5682  0.7713
28578SOL    HW294513   8.097   8.695   7.212  1.1174 -0.0717 -0.0046
28579SOL     OW94514   3.443  11.289  10.290  0.1298  0.0568 -0.7615
28579SOL    HW194515   3.430  11.198  10.263 -1.2845 -0.1922  0.6611
28579SOL    HW294516   3.423  11.340  10.211 -1.8921 -0.7572 -0.8357
28580SOL     OW94517   3.813   2.940   5.258 -0.2843  0.0832  0.2834
28580SOL    HW194518   3.754   2.989   5.316  0.1509 -0.3249  1.0843
28580SOL    HW294519   3.867   3.007   5.216 -1.6744  0.5146 -0.8901
28581SOL     OW94520   6.982   6.777  12.388  0.2876  0.2145  0.2082
28581SOL    HW194521   7.073   6.750  12.402  0.2038  0.6134  1.7088
28581SOL    HW294522   6.931   6.696  12.393  0.7678 -0.4991 -3.6756
28582SOL     OW94523   7.077   6.103   6.230  0.3079  0.0677  0.0606
28582SOL    HW194524   7.153   6.051   6.204  2.2394  1.6509  2.1210
28582SOL    HW294525   7.077   6.177   6.169  1.2140  0.6914  0.7831
28583SOL     OW94526   9.942   8.641   1.673 -0.0347 -0.8049 -0.0528
28583SOL    HW194527   9.876   8.624   1.605  1.0795 -1.7826 -0.9409
28583SOL    HW294528  10.000   8.706   1.634 -0.0660 -0.4776  0.4434
28584SOL     OW94529   6.176   1.960   2.526 -0.8293  0.2948 -0.5760
28584SOL    HW194530   6.215   2.015   2.594  0.1217  0.6900 -1.4070
28584SOL    HW294531   6.246   1.951   2.461 -1.5337 -0.5357 -1.2301
28585SOL     OW94532   7.007   4.631   5.551 -0.2733 -0.0886  0.1935
28585SOL    HW194533   6.990   4.561   5.614  0.5154 -0.7256 -0.2895
28585SOL    HW294534   7.005   4.711   5.604  0.8646 -0.6595  1.1470
28586SOL     OW94535   4.901   0.661  12.175 -0.0723  0.0021  0.2258
28586SOL    HW194536   4.972   0.597  12.167 -0.8298 -0.7686 -0.6612
28586SOL    HW294537   4.840   0.621  12.237  0.0009  0.4048  0.5579
28587SOL     OW94538   4.595   2.141   8.588 -0.7207 -0.4857  0.1450
28587SOL    HW194539   4.583   2.227   8.547  0.5813 -0.3680 -0.0147
28587SOL    HW294540   4.558   2.152   8.676  2.0208  1.1791  1.2097
28588SOL     OW94541   8.532   5.955   4.873 -0.1419 -0.1916 -0.0596
28588SOL    HW194542   8.479   5.941   4.951 -0.0623 -0.4304 -0.0482
28588SOL    HW294543   8.621   5.938   4.901 -0.0716  0.0897 -0.1097
28589SOL     OW94544  12.312   8.199   9.836 -0.3747  0.0671  0.0066
28589SOL    HW194545  12.334   8.276   9.889  1.2562  0.3656 -1.0439
28589SOL    HW294546  12.309   8.127   9.899 -2.8584  1.0715  1.1622
28590SOL     OW94547  11.614   1.466   8.531 -0.5251 -0.1378 -0.1196
28590SOL    HW194548  11.604   1.526   8.457 -0.1924  0.6490  0.4739
28590SOL    HW294549  11.571   1.509   8.604  0.9828  0.0799  0.6877
28591SOL     OW94550  11.867   4.523   9.641 -0.7232  0.8092 -0.2526
28591SOL    HW194551  11.934   4.514   9.709 -1.1982  1.3068  0.2965
28591SOL    HW294552  11.824   4.438   9.638 -1.0509  0.9467  0.4495
28592SOL     OW94553   0.386  10.677   1.594  0.4554  0.6959  0.4684
28592SOL    HW194554   0.480  10.670   1.580  0.5301  0.3647  1.0723
28592SOL    HW294555   0.365  10.767   1.573  1.0096  0.9283  0.8793
28593SOL     OW94556   0.273   7.714   7.019  0.4006 -0.9084 -0.1441
28593SOL    HW194557   0.269   7.618   7.028 -3.3124 -0.8049  1.0026
28593SOL    HW294558   0.291   7.745   7.108 -0.8861 -0.5406  0.0053
28594SOL     OW94559  11.746   3.669   9.398 -0.0298  0.6083 -0.6289
28594SOL    HW194560  11.736   3.590   9.344 -2.1059  0.6651 -0.4114
28594SOL    HW294561  11.657   3.699   9.412  0.4999  1.0819  2.1463
28595SOL     OW94562   7.623   3.588   3.014 -0.0150 -0.3715 -0.7111
28595SOL    HW194563   7.555   3.652   2.994  1.0207  0.5569 -1.3143
28595SOL    HW294564   7.680   3.588   2.937  0.5256 -1.3345 -0.3272
28596SOL     OW94565   8.023   9.302   3.917 -0.1362 -0.2442 -0.2987
28596SOL    HW194566   7.962   9.228   3.919  0.5130 -0.8059 -0.9780
28596SOL    HW294567   8.014   9.343   4.003 -1.2780 -0.4693 -0.2957
28597SOL     OW94568   7.610   1.355   2.929 -0.1306 -0.7801 -0.4040
28597SOL    HW194569   7.618   1.351   2.834  1.1772 -2.2002 -0.2607
28597SOL    HW294570   7.523   1.393   2.944 -0.5459 -0.9602 -2.1532
28598SOL     OW94571   4.706   6.211  11.469 -0.3271 -0.2227  0.3219
28598SOL    HW194572   4.630   6.163  11.438 -0.5857 -0.4576  1.2962
28598SOL    HW294573   4.685   6.303  11.451 -1.2000 -0.2128  1.3266
28599SOL     OW94574  11.555   2.786   4.796  0.1218  0.1020 -0.4058
28599SOL    HW194575  11.480   2.774   4.737 -0.7196  0.5501  0.5478
28599SOL    HW294576  11.630   2.799   4.737 -0.6936  0.5275 -1.3783
28600SOL     OW94577   6.453   1.864  12.056  0.2767  0.1205 -0.1637
28600SOL    HW194578   6.381   1.810  12.085 -0.5278  1.8072  1.1706
28600SOL    HW294579   6.515   1.864  12.129  0.5009  0.6000 -0.3468
28601SOL     OW94580   6.284   5.649   1.280 -0.2045  0.0225 -0.4598
28601SOL    HW194581   6.250   5.680   1.364 -0.1776  1.4896 -0.9721
28601SOL    HW294582   6.348   5.581   1.304  0.5265  1.0945  0.7559
28602SOL     OW94583   1.688   2.397   7.883  0.3214 -0.2576 -0.0729
28602SOL    HW194584   1.660   2.310   7.911 -3.1034  1.0540  1.0875
28602SOL    HW294585   1.688   2.392   7.788 -1.4738 -1.1490 -0.0755
28603SOL     OW94586   3.719   5.578   1.550  0.0903  0.0379 -0.0145
28603SOL    HW194587   3.698   5.629   1.472 -0.2554  0.9976  0.6926
28603SOL    HW294588   3.680   5.492   1.534  1.5740 -0.3900 -1.6858
28604SOL     OW94589   7.264   8.413   2.691 -0.1487  0.0339 -0.2719
28604SOL    HW194590   7.251   8.481   2.758 -0.5958  1.1702 -1.4694
28604SOL    HW294591   7.285   8.334   2.741  0.2249  1.0104  1.1729
28605SOL     OW94592   3.836   7.319   4.491 -0.1625  0.3185 -0.2352
28605SOL    HW194593   3.864   7.278   4.573 -0.4928  0.4787 -0.0416
28605SOL    HW294594   3.767   7.379   4.517  0.0486  0.7068 -0.5737
28606SOL     OW94595   7.839   3.349  10.101 -0.0041 -0.4833 -0.0414
28606SOL    HW194596   7.769   3.398  10.058  1.6954  2.8592  0.7104
28606SOL    HW294597   7.827   3.367  10.194  0.6410 -1.6408  0.2859
28607SOL     OW94598  12.473   2.297   6.762  0.0334 -0.0498 -0.3057
28607SOL    HW194599  12.521   2.365   6.713  0.2401  0.4724  0.5899
28607SOL    HW294600  12.500   2.311   6.853  1.8369 -2.7575 -0.3218
28608SOL     OW94601   3.645   2.904  10.788 -0.6837  0.0312  0.6334
28608SOL    HW194602   3.690   2.873  10.866 -0.4575 -1.6234 -0.1165
28608SOL    HW294603   3.557   2.868  10.794 -1.5803  2.1704  1.4325
28609SOL     OW94604  10.149   6.010   9.163 -0.7096 -0.2415 -0.3466
28609SOL    HW194605  10.113   5.921   9.160 -0.2291 -0.5333  1.3252
28609SOL    HW294606  10.203   6.011   9.242  1.0444  0.9012 -1.5032
28610SOL     OW94607   5.609   5.160  11.858  0.4968 -0.2981 -0.0168
28610SOL    HW194608   5.559   5.086  11.822 -0.7976  0.6534 -0.2472
28610SOL    HW294609   5.609   5.146  11.952  0.6411 -0.8223 -0.0916
28611SOL     OW94610   7.211   3.705   7.035 -0.1245 -0.2234 -0.4141
28611SOL    HW194611   7.185   3.770   6.970 -0.1846  0.1045 -0.0693
28611SOL    HW294612   7.290   3.741   7.075  0.7375 -1.1043 -1.2918
28612SOL     OW94613   9.675   1.647   3.610  0.0197 -0.1091 -0.5986
28612SOL    HW194614   9.593   1.608   3.641  0.0397  0.6062  0.4270
28612SOL    HW294615   9.654   1.739   3.598  0.8305  0.2067  0.2992
28613SOL     OW94616   9.095  11.083   8.658  0.1517  0.4491 -0.4576
28613SOL    HW194617   9.052  11.027   8.723 -1.5483 -0.8405 -2.5746
28613SOL    HW294618   9.188  11.062   8.665 -0.2055 -1.0117  0.2869
28614SOL     OW94619  11.873  11.128   5.052  0.7671  0.2020  0.2092
28614SOL    HW194620  11.906  11.212   5.084  0.1090  1.7172 -2.7028
28614SOL    HW294621  11.779  11.142   5.039  1.2291  0.5188 -4.0967
28615SOL     OW94622   5.193  12.214  10.914 -0.4862  0.1326  0.2350
28615SOL    HW194623   5.206  12.309  10.921 -1.0695  0.3529 -1.2854
28615SOL    HW294624   5.172  12.200  10.822  1.4981 -1.7073 -0.0111
28616SOL     OW94625   5.804   9.652   0.192  0.1806 -0.3569 -0.2808
28616SOL    HW194626   5.876   9.602   0.155 -0.1654 -0.7546 -0.4214
28616SOL    HW294627   5.725   9.613   0.155 -0.2117 -1.0467  1.1811
28617SOL     OW94628   5.718  11.691   5.657 -0.4045  0.2452 -0.0103
28617SOL    HW194629   5.656  11.706   5.586 -0.3754  1.2551  0.1626
28617SOL    HW294630   5.751  11.778   5.679 -0.9288  0.0685  1.6980
28618SOL     OW94631  10.911   0.787   1.422 -0.5227  0.6550 -0.3558
28618SOL    HW194632  10.887   0.725   1.491  0.2858  2.4776  1.6611
28618SOL    HW294633  11.005   0.771   1.408 -0.3855  1.1610 -0.0570
28619SOL     OW94634   3.917   9.766  10.398  0.2004 -0.2234  0.4546
28619SOL    HW194635   3.873   9.797  10.319 -0.6139 -0.0852  0.9536
28619SOL    HW294636   3.990   9.713  10.366  1.6000  2.0778 -0.4208
28620SOL     OW94637   7.880   5.250   4.113  0.1452 -0.5679  0.6003
28620SOL    HW194638   7.928   5.168   4.099 -1.5304 -1.5172  0.0592
28620SOL    HW294639   7.788   5.225   4.107 -0.4180  1.4914 -0.2706
28621SOL     OW94640   3.098   9.098   1.122 -0.3190  0.0272 -0.4581
28621SOL    HW194641   3.103   9.190   1.146  1.5067  0.1019 -1.0141
28621SOL    HW294642   3.169   9.056   1.171 -0.0247 -0.7592 -1.5213
28622SOL     OW94643   5.973  10.628   2.726 -0.4780 -0.2283  0.2967
28622SOL    HW194644   6.034  10.613   2.798 -0.5286  2.7553  1.0613
28622SOL    HW294645   5.887  10.604   2.761 -0.0678 -2.8172 -0.2426
28623SOL     OW94646   6.272   8.018   7.686  0.1422 -0.2392  0.1958
28623SOL    HW194647   6.234   8.077   7.621 -0.3900  1.2444  1.7806
28623SOL    HW294648   6.223   7.937   7.676 -1.4768  0.6964  0.2240
28624SOL     OW94649   8.053   4.201  11.253  0.1957  0.0030 -0.1587
28624SOL    HW194650   8.018   4.264  11.316  0.7342  0.2991 -0.1475
28624SOL    HW294651   7.990   4.201  11.181  0.7589  1.4120 -0.6751
28625SOL     OW94652   0.052   6.262   7.559 -0.9597  0.2278  0.2347
28625SOL    HW194653   0.048   6.300   7.471 -1.8341  1.2597  0.7034
28625SOL    HW294654   0.084   6.173   7.545 -0.0400  0.7254 -1.0216
28626SOL     OW94655   3.973   0.637   5.158 -0.0740 -0.2396 -0.4564
28626SOL    HW194656   4.001   0.551   5.191 -0.7877 -0.2876  0.0413
28626SOL    HW294657   3.964   0.691   5.236 -0.0316  0.1742 -0.7354
28627SOL     OW94658   5.015   8.925   7.450 -0.1642  0.1088  0.1402
28627SOL    HW194659   5.090   8.980   7.472 -0.4395 -0.2615  2.1372
28627SOL    HW294660   4.992   8.952   7.360  1.6361  1.0025 -0.1000
28628SOL     OW94661   3.596   7.096   4.246 -0.3226 -0.1269 -0.1479
28628SOL    HW194662   3.633   7.083   4.333  0.0148  0.6304 -0.1746
28628SOL    HW294663   3.612   7.188   4.226  1.2501 -0.6791 -1.7703
28629SOL     OW94664  10.346   0.660   6.155  0.5649 -0.7133  0.1245
28629SOL    HW194665  10.391   0.721   6.214  1.2467  1.4734 -2.4839
28629SOL    HW294666  10.253   0.683   6.162  0.4514 -1.4138  1.2843
28630SOL     OW94667   8.053  11.218   9.354  0.1756  0.2689 -0.2957
28630SOL    HW194668   8.118  11.206   9.285 -1.3131  1.9535 -2.0978
28630SOL    HW294669   8.103  11.254   9.427  1.5131  0.0528 -1.0669
28631SOL     OW94670   8.493   0.044   1.042 -0.3063 -0.3068  0.2711
28631SOL    HW194671   8.584   0.013   1.041 -0.5144 -1.0188 -1.9142
28631SOL    HW294672   8.487   0.100   0.965 -1.4703  0.5915  0.9871
28632SOL     OW94673   3.870   7.976   7.415 -0.0940 -0.0457  0.1407
28632SOL    HW194674   3.816   8.048   7.383 -0.4711  0.3083  1.4786
28632SOL    HW294675   3.868   7.987   7.511  1.0901 -0.9391  0.2787
28633SOL     OW94676  11.572   7.215   8.419 -0.0753  1.0294 -0.5018
28633SOL    HW194677  11.656   7.259   8.433 -0.2811  1.4183 -0.4728
28633SOL    HW294678  11.537   7.257   8.341  0.6297 -0.4651 -1.6602
28634SOL     OW94679   1.231  12.360   2.332 -0.2684 -0.1530 -0.4910
28634SOL    HW194680   1.167  12.391   2.268 -0.2884  0.1783 -0.3090
28634SOL    HW294681   1.198  12.274   2.358  0.3004 -0.7740 -1.7074
28635SOL     OW94682   8.446   2.772   3.344  0.0122 -0.0539 -0.7589
28635SOL    HW194683   8.409   2.723   3.271  1.2481 -0.2376 -1.2853
28635SOL    HW294684   8.377   2.834   3.369 -0.5964 -0.3008 -1.7626
28636SOL     OW94685   2.691   5.776   4.123  0.2277  0.3656  0.1466
28636SOL    HW194686   2.672   5.774   4.029 -1.6715 -1.0880  0.5000
28636SOL    HW294687   2.667   5.864   4.150  1.5745  1.0807 -0.8287
28637SOL     OW94688   2.517   5.769   8.704  0.7766 -1.0682  0.5087
28637SOL    HW194689   2.542   5.815   8.624  0.3044 -1.0397  0.3730
28637SOL    HW294690   2.569   5.688   8.702  2.2702 -0.1577  1.1933
28638SOL     OW94691   1.714   7.320   2.947  0.2316 -0.1728 -0.0701
28638SOL    HW194692   1.664   7.243   2.923  0.9887 -0.8102  0.3448
28638SOL    HW294693   1.735   7.308   3.040 -0.1060  0.7987  0.1449
28639SOL     OW94694   7.379   2.423   9.808  0.0789  0.2733 -0.3590
28639SOL    HW194695   7.444   2.467   9.754 -1.5600  1.2936 -1.6128
28639SOL    HW294696   7.388   2.330   9.785  0.9154  0.4291 -0.6818
28640SOL     OW94697   9.814   8.253   0.835  0.3047  0.3461 -0.1204
28640SOL    HW194698   9.795   8.170   0.879 -2.6310  0.2661 -1.3337
28640SOL    HW294699   9.894   8.235   0.785  0.5509 -1.2854  0.7715
28641SOL     OW94700   7.302   3.343  12.041  0.5405  0.3271 -0.5385
28641SOL    HW194701   7.221   3.370  12.084  1.0227 -0.3560  0.8679
28641SOL    HW294702   7.276   3.271  11.984  0.3334 -0.8566  0.9725
28642SOL     OW94703   5.541   9.599  11.260  0.4586 -0.8603 -0.6189
28642SOL    HW194704   5.555   9.665  11.192  0.0677 -0.5333 -0.3825
28642SOL    HW294705   5.452   9.567  11.244 -0.0093 -0.0642  0.3556
28643SOL     OW94706  10.712  12.353   9.093  0.0883  0.1683 -0.0160
28643SOL    HW194707  10.642  12.401   9.049  1.2065 -0.3305 -2.4914
28643SOL    HW294708  10.673  12.267   9.113 -0.6395  0.6356  0.6704
28644SOL     OW94709   3.728   0.409   4.718  0.0304 -0.0418  0.6659
28644SOL    HW194710   3.820   0.432   4.718 -0.3583  1.6520 -0.6001
28644SOL    HW294711   3.710   0.380   4.629 -0.3540 -1.8587  1.2814
28645SOL     OW94712   5.191  10.855   7.234 -0.1025  0.4428  0.2845
28645SOL    HW194713   5.169  10.923   7.298 -1.5806  0.6732 -0.4485
28645SOL    HW294714   5.107  10.824   7.202  0.6108 -0.0747 -1.1438
28646SOL     OW94715   5.339   3.901  11.410  0.5618  0.3020  0.2889
28646SOL    HW194716   5.290   3.858  11.480 -2.4627  0.9552 -1.2519
28646SOL    HW294717   5.325   3.845  11.333  0.7542  1.4118 -0.5861
28647SOL     OW94718  12.372   7.174   2.939  0.3355 -0.0167 -0.1721
28647SOL    HW194719  12.405   7.237   2.874 -0.3105 -0.8437 -1.3356
28647SOL    HW294720  12.315   7.226   2.996 -0.6443  0.3780 -1.4606
28648SOL     OW94721   0.617   6.312   4.466 -0.1722  0.0989  0.6155
28648SOL    HW194722   0.640   6.228   4.425 -1.9446 -0.4578  0.6869
28648SOL    HW294723   0.637   6.299   4.559 -1.2055 -0.5682  0.7645
28649SOL     OW94724  11.528   8.781   3.162  0.6697 -0.7462 -0.2928
28649SOL    HW194725  11.606   8.775   3.107  0.4937  0.2525 -0.6743
28649SOL    HW294726  11.460   8.738   3.109  0.7478 -0.7712 -0.3747
28650SOL     OW94727   4.840   8.135   8.066 -0.6878 -0.2129 -0.1698
28650SOL    HW194728   4.786   8.175   7.998  1.5356 -0.0833 -1.9454
28650SOL    HW294729   4.928   8.169   8.051 -0.3719  1.3435  3.9846
28651SOL     OW94730  11.635  11.019   1.354  0.5006 -0.5265 -0.7564
28651SOL    HW194731  11.566  10.961   1.388  0.2069  0.8225  1.1359
28651SOL    HW294732  11.716  10.975   1.376  0.2940 -0.0134  1.2492
28652SOL     OW94733   3.817   4.981   1.527 -0.3934 -0.4741  0.5683
28652SOL    HW194734   3.731   5.023   1.525 -0.0453  0.2579 -0.6691
28652SOL    HW294735   3.870   5.034   1.467 -0.0716 -2.9966 -1.5699
28653SOL     OW94736   3.658   7.092   7.316  0.3903  0.0405  0.0492
28653SOL    HW194737   3.629   7.103   7.225 -0.7651  0.0251  0.3908
28653SOL    HW294738   3.717   7.165   7.331 -0.5064  0.8710 -0.3091
28654SOL     OW94739   4.597   2.846   4.101 -0.2841 -0.1768 -0.0529
28654SOL    HW194740   4.638   2.923   4.140 -0.7033 -0.3494  0.7323
28654SOL    HW294741   4.645   2.833   4.019 -0.0403  0.7627 -0.0703
28655SOL     OW94742   5.753   1.574  12.234 -0.0525  0.2523 -0.1211
28655SOL    HW194743   5.737   1.501  12.293 -2.6837  0.9711  0.1620
28655SOL    HW294744   5.742   1.652  12.288  0.3014  0.8994 -0.9503
28656SOL     OW94745  11.502  12.530   1.000  0.0554 -0.0667  0.0941
28656SOL    HW194746  11.433  12.593   1.022 -0.2613 -1.2041  2.7589
28656SOL    HW294747  11.584  12.579   1.008 -0.2590  0.3545  0.7802
28657SOL     OW94748  11.463   1.161   4.832  0.0573  0.3937  0.1351
28657SOL    HW194749  11.382   1.177   4.881  1.2783  0.0480  2.4161
28657SOL    HW294750  11.532   1.197   4.888  1.5548  0.0450 -1.4159
28658SOL     OW94751   3.591   2.878   3.776 -0.3084 -0.0218  0.7999
28658SOL    HW194752   3.555   2.793   3.803  1.7296 -0.8852  0.9616
28658SOL    HW294753   3.518   2.939   3.789 -2.3595 -1.9360 -0.8051
28659SOL     OW94754  11.622   3.926   1.728  0.2261  0.5781  0.7008
28659SOL    HW194755  11.712   3.915   1.759 -0.0893  0.7196  1.7361
28659SOL    HW294756  11.575   3.850   1.763  0.1583 -0.0791 -0.7668
28660SOL     OW94757   2.809   9.910   2.589  0.3092 -0.4209 -0.7370
28660SOL    HW194758   2.745   9.943   2.526 -2.9001 -2.1883  1.2689
28660SOL    HW294759   2.827   9.984   2.647 -0.1270  0.0612 -1.2137
28661SOL     OW94760   4.092   7.425   0.044 -0.2877 -0.5007 -0.7561
28661SOL    HW194761   4.102   7.355   0.109 -2.6142 -0.3219 -0.1242
28661SOL    HW294762   4.107   7.382  -0.040 -0.6154 -1.5230 -0.3143
28662SOL     OW94763   3.210   7.795   3.629 -0.9544  0.3888  0.4696
28662SOL    HW194764   3.296   7.830   3.605 -0.5083 -0.6076  0.5578
28662SOL    HW294765   3.167   7.778   3.546  0.3570 -2.4900  0.2667
28663SOL     OW94766   7.704   6.599  11.517 -0.0144 -0.0812 -0.3046
28663SOL    HW194767   7.650   6.670  11.482  1.1323  0.7419 -0.4397
28663SOL    HW294768   7.641   6.531  11.541 -1.0075  0.1059 -2.1596
28664SOL     OW94769   1.993   8.604   6.048  0.5845 -0.0002  0.8447
28664SOL    HW194770   2.082   8.573   6.063  0.2276 -1.0808  0.8025
28664SOL    HW294771   1.947   8.586   6.130 -0.3323 -2.1908 -0.0590
28665SOL     OW94772   9.166   5.045   9.389 -0.4768  0.3699 -0.7793
28665SOL    HW194773   9.122   5.130   9.402 -0.4089  0.2271  0.4858
28665SOL    HW294774   9.190   5.045   9.296 -1.3946  1.2943 -1.0418
28666SOL     OW94775   5.926   9.375  10.690  0.0059 -0.3323  0.2402
28666SOL    HW194776   5.832   9.369  10.679 -0.0130 -0.9098  0.6646
28666SOL    HW294777   5.939   9.454  10.742 -0.3118 -0.7211  0.9234
28667SOL     OW94778   0.416   4.379   5.710  0.6033 -0.2937  0.4401
28667SOL    HW194779   0.326   4.371   5.677  0.3758  0.4729  0.8521
28667SOL    HW294780   0.467   4.404   5.633  0.5867 -1.4194  0.0582
28668SOL     OW94781   9.198   2.896   2.876 -0.0510  0.3687  0.3514
28668SOL    HW194782   9.181   2.905   2.782 -2.1531  1.1188  0.7706
28668SOL    HW294783   9.198   2.985   2.910 -1.2492  0.0085  1.3628
28669SOL     OW94784   7.383   1.986  10.957 -0.4210 -0.4538  0.5412
28669SOL    HW194785   7.289   1.975  10.941 -0.4625 -0.7053  0.9403
28669SOL    HW294786   7.425   1.952  10.878 -0.6350 -1.2207  0.7501
28670SOL     OW94787  12.569   3.161   5.446 -0.4944  0.1745  0.5312
28670SOL    HW194788  12.534   3.217   5.516  0.0934  0.4612  0.6018
28670SOL    HW294789  12.511   3.085   5.445 -2.5320  1.6475 -0.8876
28671SOL     OW94790  11.856   7.306   3.644 -0.1208  0.6863 -0.1362
28671SOL    HW194791  11.868   7.377   3.582 -0.2712  0.6198 -0.2437
28671SOL    HW294792  11.925   7.317   3.708  0.8087  0.0280 -0.9923
28672SOL     OW94793   9.346   2.413   0.676  0.0587 -0.6224 -0.0783
28672SOL    HW194794   9.408   2.473   0.635  0.1817 -0.8510 -0.2333
28672SOL    HW294795   9.391   2.328   0.674  1.1031 -0.2278  2.7617
28673SOL     OW94796   3.938   5.723  10.891 -0.3003 -0.4085 -0.0714
28673SOL    HW194797   4.005   5.657  10.907 -0.9501 -0.7450  1.4630
28673SOL    HW294798   3.855   5.679  10.910 -0.7842  0.6524  0.3828
28674SOL     OW94799   0.031   9.729   8.911  0.0413  0.4050 -0.8514
28674SOL    HW194800  -0.006   9.762   8.829 -1.3267 -0.9320 -0.8112
28674SOL    HW294801   0.008   9.636   8.912  0.5008  0.2820  0.8034
28675SOL     OW94802   2.073   8.307   1.405  0.1880 -0.2228 -0.3726
28675SOL    HW194803   2.023   8.351   1.474 -2.6885 -2.8988 -0.5403
28675SOL    HW294804   2.043   8.347   1.324  0.0288 -0.2977 -0.3501
28676SOL     OW94805   8.065   0.986   3.167 -0.2659  0.2264 -0.0710
28676SOL    HW194806   8.138   1.045   3.148 -0.1081 -0.2470 -0.9974
28676SOL    HW294807   7.988   1.044   3.173  0.1194  0.6853  0.5729
28677SOL     OW94808   4.155  10.061  11.835  0.1848 -0.5022 -0.0844
28677SOL    HW194809   4.130  10.021  11.919 -0.0933  1.1960  0.6832
28677SOL    HW294810   4.187  10.148  11.859 -0.8983  0.4283 -1.8310
28678SOL     OW94811   4.036   6.389   7.956 -0.4647  0.3208 -0.4120
28678SOL    HW194812   4.008   6.480   7.963  0.2530  0.4727  0.7604
28678SOL    HW294813   4.129   6.390   7.978 -0.2970 -0.6091 -1.0252
28679SOL     OW94814   3.661   4.405   7.003 -0.1356 -0.1239  0.3003
28679SOL    HW194815   3.623   4.325   7.039  0.5518 -0.1515  0.9777
28679SOL    HW294816   3.643   4.472   7.070  0.2200  0.0548  0.2160
28680SOL     OW94817   7.344   8.767  11.256  0.1256 -0.4198  0.2328
28680SOL    HW194818   7.350   8.748  11.349  0.6582 -1.1021  0.0745
28680SOL    HW294819   7.412   8.832  11.240 -0.2179 -0.0248  0.3900
28681SOL     OW94820  12.534   1.382   3.982  0.0031  0.3938 -0.1539
28681SOL    HW194821  12.598   1.327   4.028 -1.7729 -1.9399 -0.2883
28681SOL    HW294822  12.449   1.345   4.005 -1.1046  0.6181 -3.3593
28682SOL     OW94823  12.148   7.607  11.038 -0.3976  0.0682  0.9501
28682SOL    HW194824  12.154   7.534  11.100 -1.6861 -0.2833  0.6923
28682SOL    HW294825  12.076   7.660  11.071 -0.4829  0.3803  0.2679
28683SOL     OW94826   9.307   5.316   7.739  0.3232 -0.0104  0.2953
28683SOL    HW194827   9.217   5.293   7.714  0.4769 -0.8000  0.4304
28683SOL    HW294828   9.302   5.408   7.765 -0.7248 -0.3942  1.5677
28684SOL     OW94829   8.070   5.619   2.269 -0.4608 -0.7748  0.0805
28684SOL    HW194830   8.018   5.698   2.284 -1.7988 -1.8470  1.3955
28684SOL    HW294831   8.057   5.566   2.348  0.1406 -2.4432 -0.8859
28685SOL     OW94832  10.489  12.103   6.217 -0.4979 -0.4982 -0.1052
28685SOL    HW194833  10.523  12.192   6.226 -1.5230 -0.0432 -0.5316
28685SOL    HW294834  10.471  12.075   6.307 -1.2646  0.1823 -0.0345
28686SOL     OW94835   2.751   9.243   6.810 -0.7191 -0.8225 -0.1856
28686SOL    HW194836   2.749   9.310   6.742 -2.0309 -0.6084  0.0418
28686SOL    HW294837   2.732   9.291   6.891 -0.7564 -1.3313  0.1105
28687SOL     OW94838  10.744   7.887  12.276 -0.2399  0.1700 -0.3814
28687SOL    HW194839  10.831   7.858  12.247 -0.4176 -0.0939 -0.6544
28687SOL    HW294840  10.688   7.874  12.200 -0.8314 -1.0863  0.2332
28688SOL     OW94841  11.128  11.960  10.933 -0.5353 -0.2205  1.0460
28688SOL    HW194842  11.041  11.959  10.893  0.1431  0.1010 -0.5399
28688SOL    HW294843  11.158  11.870  10.928  0.9966  0.2717 -2.7716
28689SOL     OW94844   0.341   1.623  12.608  0.0848  0.0792  0.4907
28689SOL    HW194845   0.252   1.588  12.609  0.1325 -0.4329 -2.9459
28689SOL    HW294846   0.397   1.546  12.611  0.2613  0.0525 -1.7285
28690SOL     OW94847   1.902   1.106   0.883 -0.0254  0.2942  0.0826
28690SOL    HW194848   1.885   1.029   0.829  0.0427  0.1625  0.2473
28690SOL    HW294849   1.883   1.180   0.826 -1.2420  0.1540  0.2866
28691SOL     OW94850   5.063   6.007   7.516  0.1070 -0.4296 -0.1762
28691SOL    HW194851   4.979   6.051   7.529  0.6771  0.7869 -0.4016
28691SOL    HW294852   5.121   6.077   7.486  1.2805 -1.1738  0.3038
28692SOL     OW94853   1.724   7.862  10.907 -0.1867  0.6717  0.0315
28692SOL    HW194854   1.708   7.948  10.945 -3.1846  0.1878  0.0537
28692SOL    HW294855   1.725   7.802  10.982 -2.1197  0.2303 -0.2478
28693SOL     OW94856   3.786   6.646   7.281  0.1220 -0.0274 -0.3648
28693SOL    HW194857   3.815   6.577   7.341  0.0519  0.0612 -0.2266
28693SOL    HW294858   3.690   6.645   7.287  0.1314  0.3232 -0.0832
28694SOL     OW94859   0.887   9.362   2.206 -0.2815 -0.2310 -0.3391
28694SOL    HW194860   0.898   9.297   2.275 -4.1093 -0.4353  0.2795
28694SOL    HW294861   0.931   9.440   2.240 -0.0819 -0.9993  1.2785
28695SOL     OW94862   4.393  10.906   4.420 -0.3211 -0.4755 -0.1665
28695SOL    HW194863   4.386  10.950   4.336 -2.8749 -1.7364 -0.7241
28695SOL    HW294864   4.486  10.885   4.429  0.3183  1.4002 -1.7132
28696SOL     OW94865  11.774   0.586   6.232 -0.2106  0.3861  0.0105
28696SOL    HW194866  11.782   0.620   6.143  1.4274  3.2981  1.1304
28696SOL    HW294867  11.756   0.493   6.221 -1.9242  0.9602 -3.3404
28697SOL     OW94868   6.004   8.894   4.910  0.2167 -0.2490 -0.2760
28697SOL    HW194869   5.910   8.879   4.912  0.1996 -0.1353 -0.2060
28697SOL    HW294870   6.014   8.989   4.911  0.3329 -0.2607 -0.1763
28698SOL     OW94871  12.097   3.529   2.258  0.4247 -0.1650  0.5123
28698SOL    HW194872  12.047   3.447   2.262 -1.1934  0.6399 -1.5171
28698SOL    HW294873  12.185   3.502   2.231  1.1268 -1.5564  3.6245
28699SOL     OW94874   1.533  10.685   7.476  0.1530 -0.5108  0.1580
28699SOL    HW194875   1.462  10.633   7.514  1.2558 -0.6461  2.1654
28699SOL    HW294876   1.607  10.671   7.535  0.7023  2.7343  0.4335
28700SOL     OW94877   1.822   3.249   8.710  0.0422 -0.1243  0.0444
28700SOL    HW194878   1.841   3.276   8.619  2.4610 -1.8990 -0.0864
28700SOL    HW294879   1.856   3.321   8.763  0.4467  0.0417 -0.4245
28701SOL     OW94880   7.638   8.834   6.073 -0.8882  1.0076 -0.2433
28701SOL    HW194881   7.620   8.809   5.982  0.4019  1.4558 -0.6527
28701SOL    HW294882   7.612   8.758   6.125 -0.0496  0.0593 -1.1601
28702SOL     OW94883   8.449   6.111   0.390  0.0674 -0.7186  0.0847
28702SOL    HW194884   8.367   6.071   0.363  0.2935  0.1221 -2.1417
28702SOL    HW294885   8.516   6.062   0.343  0.3893  1.6640 -2.2071
28703SOL     OW94886   4.810   9.508   2.537  0.4826  0.2601  0.0563
28703SOL    HW194887   4.857   9.441   2.487  2.6415  0.9961  1.0041
28703SOL    HW294888   4.753   9.458   2.595  2.1077 -0.8158  0.8036
28704SOL     OW94889   1.429   4.915   4.839  0.2409  0.5202 -0.2511
28704SOL    HW194890   1.444   5.002   4.878 -1.3942  0.4134  0.7228
28704SOL    HW294891   1.404   4.933   4.749  2.0298  0.9026 -0.7126
28705SOL     OW94892   3.119   3.309   8.458  0.0048 -0.1237  0.1570
28705SOL    HW194893   3.045   3.341   8.407 -0.2358 -0.9868 -0.0453
28705SOL    HW294894   3.188   3.293   8.393  0.1977  0.1926  0.2830
28706SOL     OW94895   2.945   1.037  10.049  0.2745  0.1148 -0.4957
28706SOL    HW194896   2.873   1.065   9.992 -1.7275  1.4445  2.4278
28706SOL    HW294897   2.913   0.957  10.089  0.9281  0.0896 -0.0278
28707SOL     OW94898   7.345  10.553   4.213 -0.0776 -0.1936 -0.1687
28707SOL    HW194899   7.343  10.504   4.131 -2.3811  0.5310 -0.6053
28707SOL    HW294900   7.291  10.630   4.197 -0.7094 -0.0990  2.0589
28708SOL     OW94901   5.148   2.877   7.559  0.2346  0.2484 -0.0570
28708SOL    HW194902   5.088   2.822   7.609 -0.4874  1.0553 -0.0198
28708SOL    HW294903   5.192   2.930   7.626 -0.3543  0.9621 -0.2332
28709SOL     OW94904   5.445  11.692   4.300 -0.1774 -0.0711  0.6872
28709SOL    HW194905   5.519  11.679   4.241 -0.4037  0.4261  0.3000
28709SOL    HW294906   5.384  11.621   4.279 -0.0128 -0.2188  0.7073
28710SOL     OW94907   0.877   1.064   1.214 -0.0322  0.0063  0.3238
28710SOL    HW194908   0.843   1.002   1.279  1.2355  0.4369  1.4382
28710SOL    HW294909   0.902   1.141   1.264  0.8298  0.4167 -0.6936
28711SOL     OW94910   6.417   6.206   7.334 -0.8334  0.6746  0.1461
28711SOL    HW194911   6.417   6.164   7.249  3.1199  1.9723 -0.7034
28711SOL    HW294912   6.384   6.294   7.317  1.1773  1.3741 -0.4482
28712SOL     OW94913   7.595  12.509   2.938 -0.2384 -0.0523 -0.5447
28712SOL    HW194914   7.597  12.465   3.023 -0.4498  2.5007  0.8785
28712SOL    HW294915   7.502  12.523   2.920 -0.1559  0.2743 -0.7282
28713SOL     OW94916  10.270  11.274   0.929 -0.4787 -0.4140  0.2931
28713SOL    HW194917  10.244  11.217   1.001  0.3014 -3.0522 -1.3272
28713SOL    HW294918  10.366  11.268   0.927 -0.5202 -1.9927 -1.9842
28714SOL     OW94919   9.539   8.985   0.660 -0.2815  0.3067  0.6395
28714SOL    HW194920   9.503   9.050   0.601 -1.0632 -1.1919 -0.5947
28714SOL    HW294921   9.471   8.918   0.667  0.2436 -0.1016  2.3710
28715SOL     OW94922   4.091  11.876   5.592 -0.3430 -0.0246  0.3749
28715SOL    HW194923   4.034  11.952   5.580 -0.2108  0.3173  1.6684
28715SOL    HW294924   4.130  11.861   5.506 -3.0954 -0.9065 -0.8229
28716SOL     OW94925   9.367   9.245   0.257 -0.0406  0.6022  0.0017
28716SOL    HW194926   9.281   9.248   0.299  0.0606  0.7537  0.2024
28716SOL    HW294927   9.425   9.288   0.319  0.2163  0.3329 -0.0530
28717SOL     OW94928   5.536   8.768  10.424 -0.5412  0.2080  0.5834
28717SOL    HW194929   5.553   8.841  10.484 -1.6501  1.1402 -0.1988
28717SOL    HW294930   5.619   8.756  10.378 -0.1739  0.5724  1.1318
28718SOL     OW94931  11.085   2.129   8.577 -0.1148 -0.0546 -0.5374
28718SOL    HW194932  11.100   2.127   8.482  0.0536 -0.9911 -0.4978
28718SOL    HW294933  10.990   2.127   8.586 -0.1900  1.3123 -0.6928
28719SOL     OW94934   8.363   5.320  10.992 -0.6388  0.2007 -0.3574
28719SOL    HW194935   8.391   5.266  10.918 -0.5960 -2.6075  1.5322
28719SOL    HW294936   8.284   5.364  10.961 -1.2472 -1.7301 -1.7650
28720SOL     OW94937   1.521   6.700   3.036 -0.4480 -0.0098 -0.3444
28720SOL    HW194938   1.533   6.620   2.984 -2.1742  1.3179 -2.9960
28720SOL    HW294939   1.594   6.700   3.097 -0.3248 -3.5575 -0.2762
28721SOL     OW94940   2.075   7.764   8.763  0.3949 -0.3650 -0.0526
28721SOL    HW194941   2.149   7.767   8.823 -0.6743 -0.1269  1.3184
28721SOL    HW294942   2.022   7.841   8.787  0.4689  0.3740 -2.0560
28722SOL     OW94943   1.380   2.720   8.838 -0.2942 -0.4526  0.2085
28722SOL    HW194944   1.432   2.729   8.758 -1.4627 -0.7790 -0.6167
28722SOL    HW294945   1.364   2.810   8.866 -0.5463 -0.3118 -0.3730
28723SOL     OW94946   1.075   0.804  10.581  0.2882 -0.2298  0.1215
28723SOL    HW194947   1.010   0.794  10.650 -0.0501  3.1315  0.4574
28723SOL    HW294948   1.024   0.807  10.500  0.4873 -1.9156 -0.1002
28724SOL     OW94949   4.239   2.308   8.764  0.1484 -1.0620  0.3343
28724SOL    HW194950   4.219   2.385   8.711  0.8370 -0.9161  0.2803
28724SOL    HW294951   4.181   2.316   8.840  2.2131  1.0647  1.7980
28725SOL     OW94952   9.333   5.051  11.695 -0.1860  0.4747 -0.1024
28725SOL    HW194953   9.356   5.105  11.770  0.9767  0.1901 -0.2443
28725SOL    HW294954   9.303   4.968  11.734  2.1123 -0.3373  0.0486
28726SOL     OW94955   5.993   1.947  10.477 -0.1651  0.3641 -0.1899
28726SOL    HW194956   5.981   1.986  10.390 -0.6803 -0.4969 -0.5129
28726SOL    HW294957   5.911   1.901  10.493  1.0915 -2.1560 -0.6182
28727SOL     OW94958   7.125   9.794   7.882 -0.0360  0.2815 -0.5383
28727SOL    HW194959   7.045   9.744   7.871 -0.1765  0.7319 -1.6989
28727SOL    HW294960   7.190   9.748   7.829  0.3801  0.1662  0.0492
28728SOL     OW94961   7.393   5.537   6.860 -0.4414 -0.2999 -0.0773
28728SOL    HW194962   7.412   5.621   6.904 -0.4499 -0.5028  0.3227
28728SOL    HW294963   7.299   5.540   6.844 -0.8048 -1.0168  1.6520
28729SOL     OW94964   6.990   7.000   8.698  0.0105  0.0620 -0.1041
28729SOL    HW194965   6.972   6.917   8.744 -0.3296 -0.1754 -0.6553
28729SOL    HW294966   7.058   6.977   8.634  0.7242  0.4670  0.4883
28730SOL     OW94967   5.347  11.016   3.617  0.0294 -0.4987  0.3427
28730SOL    HW194968   5.265  11.012   3.569 -0.3521  1.5772  0.6977
28730SOL    HW294969   5.414  11.027   3.549 -0.0857 -1.2003  0.1086
28731SOL     OW94970  10.008   7.788   8.078  0.3827 -0.4271 -0.0244
28731SOL    HW194971  10.077   7.725   8.057  1.3363  0.7810 -0.7431
28731SOL    HW294972  10.007   7.847   8.002 -0.3137  0.5359  0.7094
28732SOL     OW94973   7.978   1.424   3.494  0.3413 -0.2897  0.0193
28732SOL    HW194974   7.897   1.406   3.448  1.0397 -0.4078 -1.2021
28732SOL    HW294975   8.020   1.339   3.505  1.9718  0.0796 -2.5973
28733SOL     OW94976   7.963   5.646  11.409  0.5060  0.2231  0.2378
28733SOL    HW194977   7.899   5.641  11.337  1.0167 -2.5178 -0.1326
28733SOL    HW294978   8.048   5.649  11.365  0.8038 -1.0738  0.6947
28734SOL     OW94979   5.231   4.541   5.269 -0.5599  0.2420 -0.1845
28734SOL    HW194980   5.287   4.521   5.344 -0.0323 -0.8592 -0.8494
28734SOL    HW294981   5.184   4.459   5.251 -2.2382  1.0725  0.2132
28735SOL     OW94982   4.449   0.964   8.075  0.1882  0.8185 -0.1110
28735SOL    HW194983   4.478   0.914   7.998 -1.4787  1.9523 -1.5754
28735SOL    HW294984   4.492   1.049   8.066 -0.5110  1.1740 -0.1643
28736SOL     OW94985   5.446   5.182   0.976  0.0127 -0.9280  0.4026
28736SOL    HW194986   5.390   5.258   0.989 -0.6271 -1.3332  0.0594
28736SOL    HW294987   5.533   5.219   0.958  0.0519 -0.3158  1.7878
28737SOL     OW94988   0.611  12.282   0.944 -0.3888  0.5531 -0.3063
28737SOL    HW194989   0.622  12.373   0.974 -0.5946  1.1945 -2.0708
28737SOL    HW294990   0.517  12.273   0.931 -0.4127 -0.0668  0.2291
28738SOL     OW94991  11.484  12.539   7.494 -0.5029 -0.5633 -0.7641
28738SOL    HW194992  11.452  12.502   7.576 -2.2119 -0.3921 -1.3228
28738SOL    HW294993  11.412  12.593   7.462 -0.0411 -0.9734 -2.6083
28739SOL     OW94994   3.151  10.001   0.514  0.5334 -0.1565  0.3525
28739SOL    HW194995   3.133   9.923   0.461 -0.6416 -1.1523  2.1168
28739SOL    HW294996   3.235   9.982   0.556  1.0156  0.2326 -0.4206
28740SOL     OW94997   5.724   3.125  10.174  0.2478  0.1429  0.0037
28740SOL    HW194998   5.656   3.190  10.158 -0.5823 -1.1244 -1.9789
28740SOL    HW294999   5.801   3.159  10.127 -0.2162 -0.3206 -1.1219
28741SOL     OW95000   2.609   2.065   2.052  0.0760  0.0924 -0.3393
28741SOL    HW195001   2.699   2.036   2.038 -0.1254 -0.2268 -0.9849
28741SOL    HW295002   2.610   2.158   2.028  0.3903  0.2738  0.3455
28742SOL     OW95003   0.806   1.203   6.458 -0.4337 -1.1091 -0.3155
28742SOL    HW195004   0.726   1.178   6.412 -1.8991 -1.8483  2.3931
28742SOL    HW295005   0.777   1.268   6.523  1.0828 -1.6002  0.9222
28743SOL     OW95006   7.774   5.610   8.770  0.3161  0.1365 -0.5232
28743SOL    HW195007   7.742   5.520   8.773  1.0148 -0.2032 -2.2781
28743SOL    HW295008   7.774   5.632   8.677  2.4552  1.0977 -0.3465
28744SOL     OW95009   7.170   3.733   5.774 -0.6280  0.2058  0.6847
28744SOL    HW195010   7.255   3.757   5.811 -0.1749  0.7135 -0.6160
28744SOL    HW295011   7.178   3.754   5.680 -0.8415 -3.2924 -0.2684
28745SOL     OW95012  10.055  11.696   6.430  0.6035 -0.0333 -0.3276
28745SOL    HW195013  10.024  11.605   6.421  0.8133 -0.0088 -1.4285
28745SOL    HW295014   9.981  11.742   6.472  1.2166 -1.0842  2.1261
28746SOL     OW95015  10.674   5.391   8.642 -0.5054  0.1236 -0.2972
28746SOL    HW195016  10.703   5.318   8.698 -0.9452 -0.6013 -0.9894
28746SOL    HW295017  10.585   5.367   8.616 -0.9462  1.2904  0.0780
28747SOL     OW95018   5.191  11.737   5.135  0.4878 -0.2007 -0.3118
28747SOL    HW195019   5.108  11.735   5.088  0.6763 -1.3254 -0.6384
28747SOL    HW295020   5.171  11.702   5.222  0.5234  0.0366 -0.2061
28748SOL     OW95021   6.918  11.679   8.704 -0.1501  0.2358 -0.3845
28748SOL    HW195022   6.889  11.597   8.664 -0.0481 -0.6148  1.2290
28748SOL    HW295023   7.014  11.676   8.696 -0.0607 -0.4087  0.7740
28749SOL     OW95024   5.095   5.727   5.643  0.5098  0.2285  0.1084
28749SOL    HW195025   5.052   5.655   5.597  0.2320  1.0954 -1.0376
28749SOL    HW295026   5.024   5.778   5.681  0.5381  1.2159 -1.1122
28750SOL     OW95027  11.268  11.347  10.217 -0.4632 -0.1445 -0.0135
28750SOL    HW195028  11.245  11.384  10.131  1.5976  0.2151 -0.4808
28750SOL    HW295029  11.204  11.385  10.277 -0.5237  1.5072 -1.0364
28751SOL     OW95030  10.468   5.995   9.683  0.1119  0.7467 -0.1370
28751SOL    HW195031  10.398   6.057   9.660 -1.8607 -0.0286  3.0693
28751SOL    HW295032  10.486   6.012   9.776  2.0344 -1.1340 -0.0824
28752SOL     OW95033   0.954  10.438   7.532 -0.0552  0.0148 -0.0376
28752SOL    HW195034   0.945  10.466   7.623  0.6813  0.7369 -0.1829
28752SOL    HW295035   0.919  10.510   7.480  0.7104  0.1572 -0.3702
28753SOL     OW95036   1.677   2.895   9.579  0.5503  0.2784  0.2986
28753SOL    HW195037   1.733   2.872   9.654 -0.1300  1.9614  1.3769
28753SOL    HW295038   1.590   2.904   9.616 -0.2371 -0.9952 -1.1318
28754SOL     OW95039   7.673   6.065  10.446 -0.6312  0.1766 -0.2977
28754SOL    HW195040   7.737   6.001  10.414 -0.5087 -0.6508  1.4767
28754SOL    HW295041   7.715   6.150  10.433  0.7245 -0.3375  0.5965
28755SOL     OW95042   6.640   8.043   9.033 -0.2834  0.3577 -0.0278
28755SOL    HW195043   6.691   8.119   9.005 -1.6660  1.8700  1.3496
28755SOL    HW295044   6.556   8.079   9.060 -1.0683 -1.7066  0.4761
28756SOL     OW95045   1.350   5.893  11.940  0.2848 -0.0188  0.3558
28756SOL    HW195046   1.264   5.858  11.915 -0.3350  2.2727 -0.9931
28756SOL    HW295047   1.335   5.938  12.023  0.9315 -2.2087  1.7334
28757SOL     OW95048   7.159   4.062   4.917 -0.3274  0.3073 -0.0494
28757SOL    HW195049   7.137   4.029   4.830 -1.2856 -0.8418  0.5995
28757SOL    HW295050   7.181   4.154   4.903  0.3852 -0.0632 -1.6167
28758SOL     OW95051   4.424   7.166   0.984 -0.0560  0.5249 -0.1163
28758SOL    HW195052   4.498   7.167   1.044 -1.4728  0.5277  1.7449
28758SOL    HW295053   4.382   7.251   0.997 -2.4369 -0.7966  1.7074
28759SOL     OW95054   8.878   3.702   5.285 -0.0421  0.1127 -0.4792
28759SOL    HW195055   8.949   3.752   5.244  0.1410 -0.0924 -0.4080
28759SOL    HW295056   8.850   3.641   5.217 -0.1769  0.2179 -0.5194
28760SOL     OW95057   1.446   8.884  11.122  0.7111 -0.1270 -0.1802
28760SOL    HW195058   1.498   8.950  11.168  0.5258 -0.5284  0.6179
28760SOL    HW295059   1.503   8.807  11.119  0.8331 -0.0174 -0.8934
28761SOL     OW95060   9.056   3.919   6.751  0.0061 -0.0151 -0.1307
28761SOL    HW195061   9.144   3.887   6.731 -0.1600 -0.4535 -0.1678
28761SOL    HW295062   9.005   3.902   6.671 -0.5548 -1.3984  0.4819
28762SOL     OW95063  11.063   6.180  12.459  0.7521 -0.3307  0.0986
28762SOL    HW195064  11.041   6.216  12.545 -0.3078 -1.1471  0.1993
28762SOL    HW295065  11.059   6.085  12.471  1.9285 -0.4747 -0.5393
28763SOL     OW95066   5.625   0.635   6.126 -0.0759  0.1003  0.2709
28763SOL    HW195067   5.714   0.625   6.162  0.7038  0.7096 -1.3910
28763SOL    HW295068   5.615   0.561   6.067 -1.1828 -0.6511  1.3577
28764SOL     OW95069   7.621   2.144   8.218 -0.7679  0.2620 -0.7851
28764SOL    HW195070   7.691   2.198   8.181 -0.9099  1.1702  0.2250
28764SOL    HW295071   7.594   2.087   8.146  1.9698 -1.1353 -0.8348
28765SOL     OW95072   0.550   0.740   9.082 -0.2330 -0.0434 -0.3880
28765SOL    HW195073   0.466   0.760   9.124 -0.5021 -2.2829  0.3243
28765SOL    HW295074   0.610   0.724   9.156 -0.3114 -2.5004 -0.7525
28766SOL     OW95075   7.175   0.798   1.033 -0.3927  0.0201  0.7370
28766SOL    HW195076   7.086   0.833   1.040 -0.8139  0.1764 -3.1966
28766SOL    HW295077   7.231   0.876   1.027 -0.5784  0.0688 -1.1484
28767SOL     OW95078   7.427   3.749   6.320 -0.2537  0.1837 -0.2146
28767SOL    HW195079   7.404   3.710   6.236  0.7980  0.7689 -0.7976
28767SOL    HW295080   7.519   3.771   6.312  0.1537 -0.7053  1.4841
28768SOL     OW95081   8.060   6.205  10.619 -0.5856 -0.3554  0.1258
28768SOL    HW195082   8.020   6.266  10.682 -0.9848  2.3144 -2.4600
28768SOL    HW295083   8.015   6.224  10.536  3.2441  0.0529 -2.1238
28769SOL     OW95084   1.171   2.849   9.010 -0.2116  0.0498 -0.1594
28769SOL    HW195085   1.177   2.825   9.102 -0.1503  3.1194  0.7328
28769SOL    HW295086   1.141   2.769   8.967 -2.4756 -0.8908  2.8246
28770SOL     OW95087  10.913   4.813   8.369  0.6034  0.4476 -0.4950
28770SOL    HW195088  10.891   4.871   8.296  0.7244  2.0678  0.6996
28770SOL    HW295089  10.957   4.739   8.327 -0.6902  0.5797 -2.2064
28771SOL     OW95090   7.055   7.318   7.180 -0.0495 -0.0643  0.0324
28771SOL    HW195091   6.969   7.289   7.151 -0.4607  0.6791  0.4925
28771SOL    HW295092   7.039   7.362   7.263  0.6848  0.6470 -0.1886
28772SOL     OW95093   3.998   4.608   4.287  0.1148 -0.4332 -0.4675
28772SOL    HW195094   3.949   4.648   4.359 -0.3074 -1.5270 -0.1226
28772SOL    HW295095   3.934   4.599   4.217  0.5588  0.7514 -1.0449
28773SOL     OW95096   9.261   8.384   5.026  0.4039 -0.5538 -0.4890
28773SOL    HW195097   9.210   8.464   5.019  0.1523 -0.7931 -1.4299
28773SOL    HW295098   9.347   8.413   5.057 -0.0459 -0.0651  0.3425
28774SOL     OW95099   3.245   7.227   2.486  0.5469 -0.0116 -0.2697
28774SOL    HW195100   3.213   7.313   2.512  0.4972 -0.2517  0.4724
28774SOL    HW295101   3.334   7.222   2.520  0.5280 -0.2778 -0.2500
28775SOL     OW95102   6.812  10.777  10.108  0.3284  0.0941  0.4129
28775SOL    HW195103   6.862  10.849  10.146  0.0853  0.5212 -0.0549
28775SOL    HW295104   6.753  10.748  10.177 -0.0559  0.8080  0.3844
28776SOL     OW95105   2.633   1.583   5.972 -0.6995  0.3153 -0.2700
28776SOL    HW195106   2.692   1.559   5.901 -1.8613 -0.0335 -1.1478
28776SOL    HW295107   2.579   1.504   5.986 -1.0293  0.6535  0.4404
28777SOL     OW95108   2.557   2.174   2.842 -0.1059  0.1126 -0.6438
28777SOL    HW195109   2.564   2.174   2.747  0.0090  1.1998 -0.6497
28777SOL    HW295110   2.572   2.083   2.868 -2.6249 -0.7461 -1.8246
28778SOL     OW95111  12.217   8.148   6.622 -0.2755  0.0069 -0.0479
28778SOL    HW195112  12.191   8.094   6.548  1.5852 -0.7985 -0.1602
28778SOL    HW295113  12.260   8.224   6.583  1.8705 -1.0297  0.1471
28779SOL     OW95114  12.605   3.894   1.954 -0.1921  0.2261 -0.2382
28779SOL    HW195115  12.612   3.944   2.035  1.8314 -0.0447 -0.2029
28779SOL    HW295116  12.511   3.887   1.939 -0.5898  1.3237  1.4249
28780SOL     OW95117   1.755  12.058  10.119 -0.1877 -0.5439 -0.2138
28780SOL    HW195118   1.685  12.073  10.055 -1.5279  1.0368  1.5139
28780SOL    HW295119   1.717  11.994  10.180  0.4725 -0.8548 -0.1291
28781SOL     OW95120  12.050  12.435   8.690 -0.7561  0.2652  0.1725
28781SOL    HW195121  12.079  12.461   8.778  0.0047 -1.5637  0.5050
28781SOL    HW295122  12.049  12.340   8.692 -1.1463  0.1907 -1.6896
28782SOL     OW95123   2.434   0.872   3.767  0.3530 -0.4489 -0.2694
28782SOL    HW195124   2.487   0.800   3.732  1.2584 -1.5226  2.9388
28782SOL    HW295125   2.496   0.925   3.816 -0.7576  1.1095 -0.4946
28783SOL     OW95126   0.619   6.371   8.542 -0.5052  0.1328 -0.1716
28783SOL    HW195127   0.560   6.324   8.483 -0.1268 -0.3168 -0.2049
28783SOL    HW295128   0.706   6.337   8.519 -0.2597  0.6442  0.0082
28784SOL     OW95129   9.679   8.560   8.433 -0.3328 -0.2741 -0.5457
28784SOL    HW195130   9.658   8.545   8.526  1.7417 -0.7107 -0.0930
28784SOL    HW295131   9.687   8.655   8.426 -1.3695 -0.1677 -0.5145
28785SOL     OW95132  12.563   1.122   1.447 -0.0844  0.4396 -0.0974
28785SOL    HW195133  12.478   1.079   1.445 -0.5740  1.4116 -0.8519
28785SOL    HW295134  12.556   1.186   1.518 -0.0917  0.7200 -0.3475
28786SOL     OW95135   8.620   8.378   2.285 -0.7510  0.4100  0.5567
28786SOL    HW195136   8.703   8.345   2.251 -0.1104 -0.6598  2.8872
28786SOL    HW295137   8.562   8.382   2.209  0.3150 -2.5209 -0.5685
28787SOL     OW95138   2.081   4.029   8.243  0.1738  0.6089  0.3366
28787SOL    HW195139   2.081   3.934   8.238 -3.9098  0.4837 -2.0566
28787SOL    HW295140   2.128   4.058   8.165  0.5105  0.5199  0.5077
28788SOL     OW95141   0.002   6.846  11.024  0.2634  0.1795  0.2548
28788SOL    HW195142  -0.046   6.840  10.941 -1.2144  1.1703  0.9799
28788SOL    HW295143   0.059   6.770  11.025 -1.3019 -1.0799 -0.6964
28789SOL     OW95144   5.509   0.700   9.342  0.1203 -0.2220 -0.0375
28789SOL    HW195145   5.440   0.737   9.398 -0.4502 -1.0629 -0.1627
28789SOL    HW295146   5.503   0.748   9.260  0.8554  0.9118  0.5541
28790SOL     OW95147   3.705   1.414   5.916 -0.0946 -0.1193 -0.6705
28790SOL    HW195148   3.695   1.345   5.851  1.8952  0.3160 -1.4954
28790SOL    HW295149   3.798   1.435   5.915 -0.0527  0.1750  2.0538
28791SOL     OW95150   2.611   2.389   7.440  0.2160  0.6465 -0.1773
28791SOL    HW195151   2.589   2.398   7.347  1.2323  0.8914 -0.4082
28791SOL    HW295152   2.537   2.427   7.486 -0.7000 -0.2674 -0.8634
28792SOL     OW95153   8.929   4.027  10.201 -0.3726  0.6990 -0.7590
28792SOL    HW195154   8.973   4.058  10.122 -0.3402 -1.8327 -1.8269
28792SOL    HW295155   8.836   4.028  10.178 -0.3361 -0.4048 -0.9983
28793SOL     OW95156   1.995   4.853   7.796 -0.0308  0.5088 -0.0370
28793SOL    HW195157   1.948   4.923   7.751 -0.4866  0.1075 -0.2081
28793SOL    HW295158   1.974   4.865   7.888  0.8880  1.3216  0.0803
28794SOL     OW95159   4.516  10.526  11.113  0.1101  0.5914 -0.2648
28794SOL    HW195160   4.450  10.549  11.047 -0.9944  0.2879  0.6818
28794SOL    HW295161   4.553  10.610  11.140  0.4028  0.7373 -1.0755
28795SOL     OW95162   4.063   4.356   7.763 -0.0780 -0.2533  0.4514
28795SOL    HW195163   3.984   4.347   7.709  1.0471 -1.3844 -1.0907
28795SOL    HW295164   4.030   4.355   7.853 -1.9593  0.9703 -0.1641
28796SOL     OW95165   9.012   9.399   2.989 -0.0313 -0.0322 -0.0769
28796SOL    HW195166   8.918   9.412   2.991 -0.0766 -0.3755 -0.0117
28796SOL    HW295167   9.034   9.395   2.895  0.4350  3.7339 -0.2934
28797SOL     OW95168   0.585   3.979  12.033 -0.4638 -0.1161 -0.3984
28797SOL    HW195169   0.578   3.884  12.024 -0.8713 -0.1081 -0.1811
28797SOL    HW295170   0.566   4.013  11.946  0.6485 -0.2715 -0.7260
28798SOL     OW95171   5.915  12.588   9.878 -0.0364 -0.0906  0.1132
28798SOL    HW195172   5.820  12.594   9.888 -0.1178  2.9978 -1.2572
28798SOL    HW295173   5.949  12.611   9.964 -0.4129 -2.6850  1.0548
28799SOL     OW95174   4.691   4.397   8.575 -0.3816 -0.6173 -0.5586
28799SOL    HW195175   4.663   4.377   8.664 -0.7976 -0.6841 -0.7016
28799SOL    HW295176   4.758   4.465   8.585  0.5703 -1.5814 -0.1077
28800SOL     OW95177   3.117   1.784   0.488  0.2329 -0.0650  0.3910
28800SOL    HW195178   3.025   1.788   0.512  0.1826 -0.7086  0.3178
28800SOL    HW295179   3.124   1.710   0.429  0.7055  0.3165 -0.0454
28801SOL     OW95180  10.714   9.142   0.616  0.1757 -0.1927 -0.1744
28801SOL    HW195181  10.760   9.210   0.665  0.7575  1.3940 -2.7648
28801SOL    HW295182  10.781   9.099   0.564 -0.3555 -2.1593  0.6523
28802SOL     OW95183   6.385   9.435   3.184 -0.0662  0.4946 -0.4085
28802SOL    HW195184   6.390   9.411   3.091  2.3951  0.3345 -0.2961
28802SOL    HW295185   6.307   9.390   3.216 -0.5506 -0.0519 -2.2281
28803SOL     OW95186   0.349   5.527   0.823  0.1408 -0.5913 -0.1369
28803SOL    HW195187   0.273   5.557   0.773 -0.8282 -3.3628 -0.4962
28803SOL    HW295188   0.327   5.545   0.914 -0.2107  0.1213 -0.3578
28804SOL     OW95189   6.370   4.370   3.392  0.1556 -0.2243  0.1591
28804SOL    HW195190   6.444   4.347   3.449  2.6903 -1.3345 -3.2668
28804SOL    HW295191   6.391   4.458   3.361 -0.2860 -0.2987 -0.3546
28805SOL     OW95192   0.750  10.429  10.200  0.0315  0.0168  0.1218
28805SOL    HW195193   0.829  10.409  10.150  0.7948  0.7669  0.9939
28805SOL    HW295194   0.718  10.511  10.163  0.2797  0.2757  0.4678
28806SOL     OW95195   9.760   1.120   7.309 -0.0225 -0.0545  0.3468
28806SOL    HW195196   9.823   1.080   7.249  0.4865 -0.6020  1.2329
28806SOL    HW295197   9.759   1.213   7.285  0.1906 -0.2578 -0.4852
28807SOL     OW95198   5.802  10.259   2.319 -0.0261 -0.0351 -0.0849
28807SOL    HW195199   5.748  10.308   2.380  1.0329  0.5803  0.4033
28807SOL    HW295200   5.793  10.306   2.236  0.1792  0.4022  0.1336
28808SOL     OW95201   1.119   3.664   3.508 -0.0396  0.0129  0.5457
28808SOL    HW195202   1.049   3.723   3.477 -1.3704 -0.9834  1.5280
28808SOL    HW295203   1.077   3.611   3.576  1.7716 -0.4512  1.3502
28809SOL     OW95204  12.186   1.392   6.597 -0.3816 -0.1338  0.0694
28809SOL    HW195205  12.097   1.393   6.633  0.6283  0.1766  2.7841
28809SOL    HW295206  12.219   1.480   6.611  1.0962 -0.8253  1.2613
28810SOL     OW95207  10.182   4.745   1.458  0.2472  0.1827  0.3688
28810SOL    HW195208  10.248   4.681   1.430 -0.2989 -0.1108 -0.2913
28810SOL    HW295209  10.200   4.760   1.551  2.7153  1.8810 -0.2923
28811SOL     OW95210   0.795  12.389   9.562  0.6177 -0.0934 -0.1909
28811SOL    HW195211   0.831  12.361   9.646 -1.5711  1.1186  1.2447
28811SOL    HW295212   0.762  12.478   9.578 -2.2801 -0.7979 -1.5174
28812SOL     OW95213   3.483   4.615  10.450 -0.4126  0.6196 -0.1509
28812SOL    HW195214   3.523   4.537  10.488  0.6672  1.2739  0.0855
28812SOL    HW295215   3.557   4.668  10.419 -1.0827  1.8516  0.2832
28813SOL     OW95216   5.296   3.868   2.637 -0.2642 -0.0274  0.0994
28813SOL    HW195217   5.317   3.826   2.553 -0.2788 -0.1903  0.1769
28813SOL    HW295218   5.251   3.949   2.612 -2.0346 -0.9920 -0.0359
28814SOL     OW95219   1.925   5.187   9.591  0.4769  0.1381  0.2909
28814SOL    HW195220   1.909   5.097   9.620  1.5570 -0.5630 -1.1363
28814SOL    HW295221   1.905   5.241   9.667 -0.5481 -1.2764  1.0722
28815SOL     OW95222   6.727   6.214   7.836  0.4835  0.5401  0.6916
28815SOL    HW195223   6.724   6.256   7.750 -0.0038 -0.2636  0.2977
28815SOL    HW295224   6.701   6.282   7.897 -0.3742  0.7980  0.0579
28816SOL     OW95225   4.577   7.261   6.843  0.0908  0.1006 -0.1656
28816SOL    HW195226   4.589   7.202   6.917  0.5626 -0.9337 -1.0387
28816SOL    HW295227   4.647   7.326   6.852  0.8743 -0.6994 -0.3251
28817SOL     OW95228  12.064   5.889  11.393  0.2553  0.1949  0.8246
28817SOL    HW195229  12.019   5.937  11.323 -2.0446  0.4871  2.3768
28817SOL    HW295230  12.054   5.797  11.370  0.5711  0.3156  0.1819
28818SOL     OW95231   2.801   5.020   5.168 -0.0682  0.0521 -0.2103
28818SOL    HW195232   2.872   5.080   5.191 -0.7764  0.6409  0.5301
28818SOL    HW295233   2.839   4.961   5.103  0.6776  1.2840 -0.9433
28819SOL     OW95234   4.552   3.849   6.767  0.0669 -0.3865 -0.2523
28819SOL    HW195235   4.633   3.797   6.765  0.4735  0.1441  1.2541
28819SOL    HW295236   4.581   3.939   6.778 -0.7253 -0.2978  1.4745
28820SOL     OW95237   6.223   8.138   4.309  0.0969  0.0286 -0.2537
28820SOL    HW195238   6.263   8.119   4.224  0.6553  1.1244 -0.2617
28820SOL    HW295239   6.256   8.070   4.368  0.5250 -0.1402 -0.6834
28821SOL     OW95240   5.189  12.295   5.666 -0.3865  0.2816  0.2219
28821SOL    HW195241   5.158  12.211   5.698 -0.3493 -0.6205 -1.9565
28821SOL    HW295242   5.274  12.275   5.626 -0.5937  1.2653 -0.7402
28822SOL     OW95243   4.128   7.871   5.351  0.0654  0.5174  0.1697
28822SOL    HW195244   4.215   7.857   5.386  0.2629  1.7677  0.2112
28822SOL    HW295245   4.142   7.913   5.266 -0.5027  1.2505  0.4290
28823SOL     OW95246  10.572   4.086   8.146  0.2983 -0.2275 -0.3129
28823SOL    HW195247  10.622   4.143   8.086 -1.0635  1.1910 -0.1577
28823SOL    HW295248  10.595   3.998   8.119  2.0766  0.3682 -0.9270
28824SOL     OW95249  11.792   4.408   4.016  0.0529 -0.0644  0.5073
28824SOL    HW195250  11.746   4.395   4.098 -1.0275  1.1619  0.1298
28824SOL    HW295251  11.768   4.333   3.962  0.5699 -0.7425  1.2006
28825SOL     OW95252   5.781   0.388   2.136  0.0128 -0.1886 -0.0030
28825SOL    HW195253   5.692   0.373   2.169  0.3331 -1.5233  0.3214
28825SOL    HW295254   5.837   0.379   2.213  0.5832 -1.2455 -0.5136
28826SOL     OW95255   6.866   3.242  12.512 -0.0180 -0.4482 -0.2366
28826SOL    HW195256   6.961   3.248  12.520 -0.1421  0.8341  0.4054
28826SOL    HW295257   6.832   3.296  12.583 -1.2116  0.7198 -1.6430
28827SOL     OW95258   7.724   4.833   0.215  0.4061 -0.5084 -0.8079
28827SOL    HW195259   7.736   4.765   0.149  1.1241 -3.0332  1.7324
28827SOL    HW295260   7.630   4.850   0.216  0.2479 -1.3032 -1.6634
28828SOL     OW95261  12.144   7.087   5.447 -1.1526  0.1672 -0.4156
28828SOL    HW195262  12.117   6.997   5.466 -2.0151  0.5400  0.1915
28828SOL    HW295263  12.191   7.081   5.364 -0.5023 -0.9616  0.0123
28829SOL     OW95264   4.715  11.215   5.424  0.4563 -0.6229 -0.3656
28829SOL    HW195265   4.643  11.152   5.424 -0.1960  0.0624 -2.2120
28829SOL    HW295266   4.762  11.200   5.342 -0.3960  1.9533 -1.4534
28830SOL     OW95267   4.523   1.144   5.562  0.1631  0.0286  0.0538
28830SOL    HW195268   4.533   1.235   5.591 -0.9253  0.0089  0.5536
28830SOL    HW295269   4.597   1.129   5.503  1.1495  0.7963  1.0487
28831SOL     OW95270   2.775   1.648   9.204  0.5291  0.2803  0.2136
28831SOL    HW195271   2.696   1.699   9.187 -0.4408 -1.3452 -0.4848
28831SOL    HW295272   2.793   1.660   9.297 -1.0648  0.0174  0.5836
28832SOL     OW95273   4.968   0.879  11.377 -0.5638 -0.5296  0.2826
28832SOL    HW195274   4.886   0.927  11.389 -0.3032  0.3139 -1.0986
28832SOL    HW295275   5.034   0.947  11.366 -0.0471 -1.1774 -0.7984
28833SOL     OW95276   3.004   2.646   9.742  0.4673 -0.3228 -0.2635
28833SOL    HW195277   3.052   2.640   9.825  0.4108  0.2339 -0.1861
28833SOL    HW295278   3.024   2.733   9.709 -1.5367  0.4628  0.4233
28834SOL     OW95279   3.963   8.745   9.724  0.6542  0.0298  0.1602
28834SOL    HW195280   3.958   8.650   9.735  0.9434  0.1573  1.5276
28834SOL    HW295281   3.931   8.760   9.635  1.6720 -1.4411 -0.4887
28835SOL     OW95282   8.955   5.261   7.866  0.5145 -0.4718  0.2810
28835SOL    HW195283   8.966   5.356   7.858  0.1346 -0.5619 -1.9828
28835SOL    HW295284   8.860   5.249   7.872  0.5768 -0.7006  0.8329
28836SOL     OW95285   4.265   5.250   4.488 -0.1717 -0.7891 -0.4106
28836SOL    HW195286   4.273   5.300   4.407 -0.7905 -0.3625 -0.2182
28836SOL    HW295287   4.321   5.173   4.475  1.4897  0.3525 -0.3910
28837SOL     OW95288  11.648   4.150   8.695 -0.2406 -0.1097  0.1053
28837SOL    HW195289  11.555   4.172   8.696 -0.3660 -0.6000  1.4869
28837SOL    HW295290  11.678   4.164   8.785  0.6603 -1.4030  0.0396
28838SOL     OW95291   0.420   6.925   7.061  0.5985 -0.2076  0.0795
28838SOL    HW195292   0.433   6.953   7.152  0.6300  0.6486 -0.1806
28838SOL    HW295293   0.434   6.831   7.063 -0.2695 -0.3325  1.1227
28839SOL     OW95294  10.749   5.579   4.451 -0.0481 -0.0753 -0.3123
28839SOL    HW195295  10.783   5.548   4.534 -1.2667  1.4572  0.8269
28839SOL    HW295296  10.659   5.606   4.470 -0.4229  0.1625 -2.1699
28840SOL     OW95297   0.262   1.407  11.240  0.1792  0.3057 -0.3556
28840SOL    HW195298   0.339   1.438  11.191  0.6658 -0.3130  0.0068
28840SOL    HW295299   0.261   1.313  11.225 -0.7975  0.3708 -0.7521
28841SOL     OW95300   5.645   2.161   8.981  0.3052 -0.1211  0.4766
28841SOL    HW195301   5.622   2.254   8.976 -0.2107 -0.2999 -2.0237
28841SOL    HW295302   5.575   2.122   9.034 -1.2351  0.4983 -0.9910
28842SOL     OW95303   6.595   9.523  12.456 -0.5356 -0.0087  0.2219
28842SOL    HW195304   6.575   9.488  12.543  0.1562  0.0528  0.4090
28842SOL    HW295305   6.655   9.596  12.472  1.4728 -1.4213 -0.4266
28843SOL     OW95306   2.847  11.439   5.215 -0.0104 -0.3907 -0.0515
28843SOL    HW195307   2.786  11.445   5.288 -0.4772 -0.5860 -0.4235
28843SOL    HW295308   2.795  11.407   5.142 -0.0796  1.9175 -1.0927
28844SOL     OW95309   0.965  11.587   5.697 -0.3716 -0.3917  0.3648
28844SOL    HW195310   0.925  11.586   5.610  0.8249 -0.5220 -0.2131
28844SOL    HW295311   0.947  11.674   5.732  0.6616  0.3019 -0.7730
28845SOL     OW95312   6.008  12.064  11.118 -0.1076  0.1759 -0.1237
28845SOL    HW195313   6.062  12.013  11.058 -2.5990 -1.2515 -1.3252
28845SOL    HW295314   6.002  12.150  11.078  1.6199  0.5400  0.3141
28846SOL     OW95315  11.929  11.503   6.784  0.0059 -0.4357  0.3736
28846SOL    HW195316  11.984  11.497   6.706 -1.6909  1.1557 -1.0409
28846SOL    HW295317  11.985  11.470   6.855  1.9949 -0.9054 -1.2988
28847SOL     OW95318   2.826   0.648  11.722 -0.5298  0.4979  0.1582
28847SOL    HW195319   2.862   0.735  11.738  0.9014  0.1712 -1.1124
28847SOL    HW295320   2.892   0.603  11.670 -2.1522 -0.6368 -1.0464
28848SOL     OW95321   9.676   9.890   7.203  0.1919 -0.4615  0.3392
28848SOL    HW195322   9.723   9.830   7.146  1.2749 -0.7168  1.4590
28848SOL    HW295323   9.585   9.883   7.174  0.6064 -1.0586 -0.9142
28849SOL     OW95324   7.155   2.918   4.395 -0.0264  0.0533  0.4008
28849SOL    HW195325   7.236   2.955   4.359 -0.4485 -0.9886 -1.7816
28849SOL    HW295326   7.180   2.830   4.423 -0.0654  0.2987  1.2304
28850SOL     OW95327   6.494   9.839   9.999  0.1341 -0.0350  0.0890
28850SOL    HW195328   6.574   9.879   9.965  0.4585  0.7912  1.7241
28850SOL    HW295329   6.521   9.751  10.028  0.4524  0.2102  0.5587
28851SOL     OW95330   0.799   0.553   2.093 -0.0243  1.0376 -0.1363
28851SOL    HW195331   0.843   0.471   2.114 -2.7103 -0.6651 -0.6402
28851SOL    HW295332   0.849   0.620   2.139  1.4123 -1.0517  1.5121
28852SOL     OW95333   1.709  12.514   1.651 -0.2074  0.0303 -0.0100
28852SOL    HW195334   1.707  12.447   1.583 -1.8625 -0.4773  0.5074
28852SOL    HW295335   1.789  12.563   1.633  1.0463 -2.0403 -0.4405
28853SOL     OW95336   2.413   7.598  11.655 -0.0854 -0.0599  0.5282
28853SOL    HW195337   2.457   7.678  11.683  2.4364 -1.1675  0.0684
28853SOL    HW295338   2.399   7.548  11.735 -0.2860  0.1957  0.6530
28854SOL     OW95339   0.479   6.268   5.908  0.0410  0.0667 -0.2309
28854SOL    HW195340   0.465   6.323   5.831 -1.1355 -0.5466 -0.4741
28854SOL    HW295341   0.404   6.285   5.964  0.4868 -0.0894  0.4238
28855SOL     OW95342   3.352   1.478   4.797 -0.0725 -0.3240 -0.3604
28855SOL    HW195343   3.303   1.559   4.786  1.6491  0.7134 -0.7753
28855SOL    HW295344   3.432   1.491   4.746  0.1239 -2.4039 -0.6710
28856SOL     OW95345  10.130   6.493   4.916  0.7904 -0.2761  0.5397
28856SOL    HW195346  10.214   6.455   4.893  1.1761  1.3530 -0.9112
28856SOL    HW295347  10.080   6.493   4.834  0.5935  1.7200  0.6248
28857SOL     OW95348  11.935   4.414   4.922  0.0889 -0.0229 -0.1414
28857SOL    HW195349  11.938   4.509   4.912 -0.6799  0.0720  0.4908
28857SOL    HW295350  11.970   4.397   5.009  1.1547 -0.4090 -0.6181
28858SOL     OW95351   2.762  11.137   6.234  0.0178  0.1354  0.2804
28858SOL    HW195352   2.804  11.104   6.154  0.6198 -1.8579  1.3281
28858SOL    HW295353   2.810  11.217   6.255 -0.6044  1.0857 -1.6777
28859SOL     OW95354   0.671   2.846   1.124 -0.0664 -0.6052  0.0484
28859SOL    HW195355   0.716   2.796   1.056  0.5568 -2.5484  1.7688
28859SOL    HW295356   0.581   2.814   1.123  0.1327 -1.1965  0.6216
28860SOL     OW95357   9.705   5.983   5.347  0.6497  0.4764  0.2755
28860SOL    HW195358   9.761   6.057   5.324  0.0392  0.8041 -0.1742
28860SOL    HW295359   9.619   6.022   5.363 -0.3498 -0.3932 -2.5067
28861SOL     OW95360   1.922   7.448   9.575 -0.1476  0.0302  0.3358
28861SOL    HW195361   1.931   7.425   9.668 -0.5831  0.4357  0.4886
28861SOL    HW295362   1.938   7.367   9.528 -0.6723 -0.3625  0.8082
28862SOL     OW95363   8.113   8.494   0.866 -0.3643  0.2168  0.2641
28862SOL    HW195364   8.077   8.550   0.935 -1.7643  0.2964 -0.5029
28862SOL    HW295365   8.140   8.414   0.912 -1.4159  0.2059  0.8907
28863SOL     OW95366  12.381  12.069   0.729 -0.4102  0.3689  0.3033
28863SOL    HW195367  12.321  12.107   0.665  0.4302 -0.8189 -1.2395
28863SOL    HW295368  12.327  12.009   0.780 -0.2603 -2.2566 -2.4045
28864SOL     OW95369   7.980  12.526   1.367 -0.5722 -0.4580 -0.2770
28864SOL    HW195370   7.954  12.602   1.420  0.1901 -0.4178  0.0545
28864SOL    HW295371   8.053  12.558   1.314 -1.9736 -0.2004 -2.1579
28865SOL     OW95372   1.025   8.572   3.481  0.0758  0.3882 -0.3339
28865SOL    HW195373   0.960   8.543   3.417 -0.4135  0.0478  0.3067
28865SOL    HW295374   1.038   8.496   3.538  1.3892  0.2837 -0.7146
28866SOL     OW95375   3.469   7.216   6.617  0.0368 -0.3782 -0.0187
28866SOL    HW195376   3.397   7.254   6.667 -0.5849 -3.3012  1.5258
28866SOL    HW295377   3.427   7.159   6.553  0.9419  0.5806 -1.5118
28867SOL     OW95378   2.643   3.224   4.701  0.1985 -0.4704  0.3689
28867SOL    HW195379   2.573   3.159   4.712 -0.6314  0.4406  0.6815
28867SOL    HW295380   2.690   3.196   4.623  0.4147 -1.9374  1.0017
28868SOL     OW95381   9.405   6.716  10.074  0.0094 -0.6229  0.2762
28868SOL    HW195382   9.445   6.732   9.989 -0.4009 -1.1816 -0.0330
28868SOL    HW295383   9.311   6.726  10.059  0.0233  0.9636  1.0586
28869SOL     OW95384   3.328   0.361   3.560  0.5667 -0.4568  0.6636
28869SOL    HW195385   3.256   0.363   3.496  1.7752  1.8613 -0.7675
28869SOL    HW295386   3.284   0.355   3.645 -1.1576 -2.2502 -0.2478
28870SOL     OW95387   3.189   3.485   0.777 -0.6982 -0.1019 -0.2399
28870SOL    HW195388   3.238   3.417   0.824 -0.6483 -1.8568 -2.6104
28870SOL    HW295389   3.136   3.437   0.714 -0.2919  2.0415 -2.4037
28871SOL     OW95390   7.824  10.297  12.005  0.1528  0.0176 -0.0369
28871SOL    HW195391   7.919  10.291  12.000  0.1224 -0.6331  0.0800
28871SOL    HW295392   7.803  10.279  12.097  0.0216  1.8807  0.3403
28872SOL     OW95393   0.312   5.544   7.277 -0.0111  0.1362  0.2136
28872SOL    HW195394   0.346   5.535   7.366  1.1115  0.7836 -0.1390
28872SOL    HW295395   0.387   5.527   7.220 -0.7580 -0.4801 -0.6283
28873SOL     OW95396  10.203   3.087   8.911 -0.5542  0.4267 -0.3493
28873SOL    HW195397  10.156   3.015   8.869 -0.7396  1.1824 -1.4746
28873SOL    HW295398  10.139   3.158   8.917 -0.1999  0.7132  0.1659
28874SOL     OW95399   2.668   2.826   6.447  0.2564  0.4507 -0.3976
28874SOL    HW195400   2.696   2.843   6.357 -1.4567  3.3547 -0.4912
28874SOL    HW295401   2.727   2.878   6.501 -0.5807  1.1211 -0.1063
28875SOL     OW95402   1.945   0.239   1.224 -0.5722 -0.4082 -0.1159
28875SOL    HW195403   2.007   0.249   1.152 -1.8157 -0.4248 -1.2385
28875SOL    HW295404   1.944   0.324   1.267 -2.4227  0.8429 -2.3685
28876SOL     OW95405   3.854  11.770  12.127  0.2030 -0.1681  0.0095
28876SOL    HW195406   3.900  11.819  12.195  0.4395 -1.2222  0.6290
28876SOL    HW295407   3.865  11.822  12.048  0.8167  0.5520  0.5591
28877SOL     OW95408   4.913   8.808   1.658  0.4184 -0.1902  0.2799
28877SOL    HW195409   4.958   8.889   1.682  0.4336 -0.2061  0.3059
28877SOL    HW295410   4.947   8.743   1.719 -0.9937  0.1773  1.5303
28878SOL     OW95411   0.858   8.711   4.101 -0.1733 -0.2010 -1.1341
28878SOL    HW195412   0.935   8.666   4.067  0.0496 -1.2332  0.6236
28878SOL    HW295413   0.889   8.799   4.124  0.1960 -0.2296 -1.5321
28879SOL     OW95414   5.579   7.933   6.661  0.1479 -0.0216  0.1423
28879SOL    HW195415   5.628   7.998   6.710 -0.2726  0.0224  0.5137
28879SOL    HW295416   5.624   7.927   6.577 -0.5239  1.6373 -0.3773
28880SOL     OW95417   6.193   9.712   4.103  0.5636  0.0685  0.3897
28880SOL    HW195418   6.160   9.627   4.075 -0.8427  0.0237  2.0184
28880SOL    HW295419   6.276   9.693   4.146 -0.6046 -0.7898  2.3946
28881SOL     OW95420  12.383  12.113   7.721  0.3156  0.5383 -0.2149
28881SOL    HW195421  12.379  12.019   7.738  2.1176  0.2288 -1.2270
28881SOL    HW295422  12.445  12.146   7.786  0.1444  0.9210 -0.2471
28882SOL     OW95423  10.337   2.510   0.095  0.0625 -0.0589  0.1141
28882SOL    HW195424  10.366   2.596   0.065  1.3477  0.0034  1.3771
28882SOL    HW295425  10.248   2.501   0.061 -0.2545  1.9309  0.2698
28883SOL     OW95426   5.704  11.366  12.497 -0.3476 -0.6852  0.6646
28883SOL    HW195427   5.721  11.405  12.582  0.7565  0.0424  0.1311
28883SOL    HW295428   5.776  11.396  12.442 -1.3564 -0.6565 -0.6924
28884SOL     OW95429   7.847   4.302   5.223 -0.4770  0.1314  0.1840
28884SOL    HW195430   7.872   4.384   5.265  0.8392 -0.5720  0.8363
28884SOL    HW295431   7.920   4.281   5.164 -0.0524 -1.3162  1.1629
28885SOL     OW95432   7.970   6.077   5.917 -0.0555  0.2154  0.3533
28885SOL    HW195433   7.919   6.007   5.877 -0.0503  0.8764 -0.8569
28885SOL    HW295434   8.048   6.033   5.952 -0.6616 -0.5584  0.7441
28886SOL     OW95435   4.635  12.467   8.831 -0.9706 -0.6776 -0.0580
28886SOL    HW195436   4.621  12.374   8.815 -0.4377 -1.1669  2.0145
28886SOL    HW295437   4.717  12.487   8.787 -0.8758 -1.2953 -0.1620
28887SOL     OW95438   5.228   7.117   3.743 -0.2636  0.1923  0.0088
28887SOL    HW195439   5.292   7.161   3.688  0.1420 -0.5379 -0.1194
28887SOL    HW295440   5.157   7.092   3.683 -0.7552  1.1414  0.1790
28888SOL     OW95441  11.510   8.991   1.643 -0.0686 -0.3515  0.0135
28888SOL    HW195442  11.592   9.035   1.617 -0.8556  0.0292 -2.0690
28888SOL    HW295443  11.478   9.042   1.717  1.2220 -0.0760  0.4038
28889SOL     OW95444   0.192   5.649  12.223  0.0330  0.3212  0.2761
28889SOL    HW195445   0.112   5.702  12.216 -0.5245 -0.6449 -1.3468
28889SOL    HW295446   0.161   5.564  12.256  0.1846 -0.3764 -1.2775
28890SOL     OW95447   1.474   3.672   5.693 -0.3832  0.4887 -0.4003
28890SOL    HW195448   1.517   3.622   5.624 -3.8076 -0.7108 -1.8825
28890SOL    HW295449   1.469   3.611   5.768  0.2820  0.5669 -0.2906
28891SOL     OW95450  10.382   9.027  11.462  0.0755  0.0587 -0.4132
28891SOL    HW195451  10.372   9.023  11.367  2.1368  1.5935 -0.7625
28891SOL    HW295452  10.466   8.986  11.479  0.6120  1.4499  0.5004
28892SOL     OW95453   1.034  11.056   2.088 -0.5892 -0.0888  0.0455
28892SOL    HW195454   0.970  11.106   2.037  1.2384  2.5873  0.2054
28892SOL    HW295455   1.026  11.091   2.177 -0.9570 -1.8830  0.7555
28893SOL     OW95456   9.594   6.230  10.994 -0.0454  0.1211  0.2007
28893SOL    HW195457   9.603   6.314  10.949 -0.2098  0.5061  0.8778
28893SOL    HW295458   9.545   6.250  11.073 -1.2740 -0.8569 -0.2812
28894SOL     OW95459   3.152   5.368   6.086 -0.2411 -0.0967 -0.2491
28894SOL    HW195460   3.217   5.327   6.143 -0.6331 -0.1116  0.1946
28894SOL    HW295461   3.204   5.420   6.024  0.2179 -0.6679 -0.3448
28895SOL     OW95462   2.509   8.807   7.110 -0.0775  0.5310  0.6139
28895SOL    HW195463   2.568   8.869   7.067  0.9839 -2.0097 -1.8807
28895SOL    HW295464   2.555   8.782   7.191  1.8639 -0.6024 -0.7595
28896SOL     OW95465  12.400   9.819   7.801 -0.0772 -0.3055 -0.0198
28896SOL    HW195466  12.447   9.876   7.739  0.9014 -1.9547 -0.8940
28896SOL    HW295467  12.356   9.879   7.861 -1.4030  1.4117 -2.5344
28897SOL     OW95468  10.612   4.118  12.499  0.2414  0.0313 -0.3953
28897SOL    HW195469  10.622   4.116  12.594 -0.5085  0.3316 -0.3020
28897SOL    HW295470  10.551   4.047  12.479  0.4638 -0.0875 -0.6659
28898SOL     OW95471  12.284  10.533   0.148  0.0197  0.2548  0.2243
28898SOL    HW195472  12.366  10.579   0.165  0.9011 -1.3768  0.6337
28898SOL    HW295473  12.258  10.499   0.234  0.0074 -0.9676 -0.2520
28899SOL     OW95474  10.164   3.552  11.109 -0.3874 -0.0544 -0.1720
28899SOL    HW195475  10.216   3.609  11.052  1.9460 -0.5853  1.2940
28899SOL    HW295476  10.221   3.477  11.126 -1.4405 -0.4508  1.8826
28900SOL     OW95477   5.592   0.140  10.913  0.1038  0.3227  0.8494
28900SOL    HW195478   5.608   0.149  10.819 -2.1062 -2.3801  0.0627
28900SOL    HW295479   5.497   0.136  10.921  0.1238  2.3707  3.5158
28901SOL     OW95480   3.438   7.324   3.881 -0.1523 -0.7118 -0.2009
28901SOL    HW195481   3.376   7.306   3.951  0.2011  0.5854  0.4656
28901SOL    HW295482   3.404   7.402   3.838  1.0581  0.0849  0.2445
28902SOL     OW95483   6.381   7.141   9.667 -0.0808  0.1263 -0.1189
28902SOL    HW195484   6.418   7.229   9.677 -1.7645  1.4318 -3.7089
28902SOL    HW295485   6.420   7.107   9.586  1.1091 -2.8800  1.5510
28903SOL     OW95486   6.566   8.975   1.157  0.0193 -0.0546  0.5326
28903SOL    HW195487   6.589   9.044   1.095  2.7680  0.1362  1.6063
28903SOL    HW295488   6.481   9.002   1.192  0.1511  1.7977 -0.4074
28904SOL     OW95489   4.748   9.498   4.110  0.2989 -0.3370  0.1974
28904SOL    HW195490   4.814   9.431   4.128  0.0944 -1.1394 -1.7751
28904SOL    HW295491   4.698   9.504   4.191  2.3288 -0.1814  1.5369
28905SOL     OW95492   7.131   7.383   3.623 -0.0115  0.1795 -0.3623
28905SOL    HW195493   7.207   7.324   3.623 -0.3396 -0.2520 -0.5676
28905SOL    HW295494   7.087   7.366   3.706  1.3323  2.0538  0.8075
28906SOL     OW95495   9.974   0.247   2.876 -0.3123  0.1770 -0.2422
28906SOL    HW195496   9.945   0.263   2.966 -1.6876  0.9891 -0.7868
28906SOL    HW295497  10.047   0.307   2.864  0.5902 -0.7190  0.6600
28907SOL     OW95498   5.881  12.445   5.174  0.4790  0.3938  0.3823
28907SOL    HW195499   5.974  12.424   5.181  0.4642 -0.5085 -1.4078
28907SOL    HW295500   5.878  12.529   5.130  0.5021 -0.8027 -2.0909
28908SOL     OW95501   1.780   0.525   4.279  0.0841  0.6535  0.2219
28908SOL    HW195502   1.714   0.526   4.210 -0.0052  0.6008  0.3054
28908SOL    HW295503   1.856   0.482   4.240 -0.2238 -0.0433  0.3900
28909SOL     OW95504   5.201   7.107   0.595  0.4239  0.2895 -0.4641
28909SOL    HW195505   5.226   7.148   0.678  0.2167 -0.6628  0.0870
28909SOL    HW295506   5.281   7.065   0.564  0.2330 -0.3159 -0.1588
28910SOL     OW95507   4.369   8.282  11.100 -0.5903  0.3572 -0.2957
28910SOL    HW195508   4.322   8.352  11.055 -1.8005  0.8605  1.6001
28910SOL    HW295509   4.345   8.203  11.052 -2.3549  0.7874 -0.2067
28911SOL     OW95510   5.459   7.344   6.423 -0.3934 -0.2420 -0.3207
28911SOL    HW195511   5.508   7.345   6.505  0.1485  0.4281 -0.6450
28911SOL    HW295512   5.378   7.391   6.443  0.2420  0.9497 -0.4594
28912SOL     OW95513   0.862   8.343   4.109  0.2363  0.0081  0.5784
28912SOL    HW195514   0.879   8.299   4.025  1.6215  2.2084 -0.3603
28912SOL    HW295515   0.948   8.352   4.150 -0.3798 -0.6978  2.1117
28913SOL     OW95516  10.898   7.030  11.520  0.5922  0.2941 -0.1604
28913SOL    HW195517  10.896   6.951  11.466  0.0068 -0.5685  1.0769
28913SOL    HW295518  10.809   7.063  11.518  1.1877  1.9815 -2.1067
28914SOL     OW95519  11.344   9.550  11.314  0.2255 -0.5068 -0.7576
28914SOL    HW195520  11.288   9.540  11.391  1.9451 -0.7672  0.5175
28914SOL    HW295521  11.288   9.593  11.250 -1.1855  0.0214  0.7389
28915SOL     OW95522  11.820  11.947   7.000  0.2616 -0.0118  0.7072
28915SOL    HW195523  11.738  11.909   6.969  0.9067 -1.5418  0.8052
28915SOL    HW295524  11.794  12.001   7.075 -0.7531  0.2250  0.2052
28916SOL     OW95525   6.534   3.099   9.403  0.2247 -0.1107  0.0987
28916SOL    HW195526   6.505   3.008   9.402  0.9857 -0.3664  0.6120
28916SOL    HW295527   6.472   3.145   9.346 -0.8020 -0.7428  0.6966
28917SOL     OW95528   0.218   2.697   7.792  0.0844 -0.5929 -0.9766
28917SOL    HW195529   0.258   2.707   7.706  1.6278  1.1498 -0.1222
28917SOL    HW295530   0.280   2.644   7.842 -0.2844 -0.7165 -0.6448
28918SOL     OW95531   0.010   0.543   2.157  0.0952 -0.4121 -0.0749
28918SOL    HW195532  -0.050   0.487   2.108  0.8032 -0.2352 -1.1913
28918SOL    HW295533  -0.004   0.519   2.248 -0.4599 -1.5702 -0.4410
28919SOL     OW95534   3.517   9.820   3.283 -0.1934 -0.8247 -0.3996
28919SOL    HW195535   3.439   9.781   3.242 -0.1644 -0.1989 -1.0734
28919SOL    HW295536   3.502   9.914   3.279  0.8975 -0.6641 -1.1668
28920SOL     OW95537   8.923   4.327   1.329  0.0630 -0.0710 -0.5291
28920SOL    HW195538   8.844   4.274   1.343 -0.4155  0.4403 -1.2112
28920SOL    HW295539   8.920   4.350   1.237  0.4869  0.7946 -0.3366
28921SOL     OW95540  12.095   6.725   9.127 -0.0515 -0.0997  0.5329
28921SOL    HW195541  12.186   6.710   9.102  0.6184  1.2310  2.0132
28921SOL    HW295542  12.071   6.806   9.082  0.8251  1.7261  3.1400
28922SOL     OW95543   1.308  10.980   8.362  0.0387 -0.0034  0.7420
28922SOL    HW195544   1.258  11.027   8.429  0.2243 -0.2280  1.0394
28922SOL    HW295545   1.276  11.016   8.279 -1.1461 -0.6710  0.8924
28923SOL     OW95546   9.322   2.944   1.191  0.2880  0.2034  0.0426
28923SOL    HW195547   9.258   2.912   1.254 -1.6674  0.0508 -1.8900
28923SOL    HW295548   9.329   3.038   1.210 -0.6680  0.2570  0.1749
28924SOL     OW95549   5.018   5.093   9.546 -0.3202 -0.5174 -0.0209
28924SOL    HW195550   4.929   5.112   9.577  0.0515  0.4268  0.4875
28924SOL    HW295551   5.039   5.165   9.488  0.7604  0.2040  1.2158
28925SOL     OW95552   8.281   7.674   1.557  0.1641 -0.4945  0.2498
28925SOL    HW195553   8.216   7.703   1.620 -0.6497 -0.6862 -0.4912
28925SOL    HW295554   8.363   7.670   1.608 -0.6526 -1.6231  1.5494
28926SOL     OW95555   4.596   3.333   7.270 -0.5437 -0.0051  0.0380
28926SOL    HW195556   4.537   3.277   7.321  1.2590 -1.8194  0.2600
28926SOL    HW295557   4.620   3.280   7.195  1.8768  0.0854  0.6775
28927SOL     OW95558   9.943   6.038   0.108 -0.0931  0.7757 -0.0424
28927SOL    HW195559  10.035   6.013   0.113 -0.0026  0.9957 -0.5746
28927SOL    HW295560   9.915   6.013   0.020 -0.6915  0.2258  0.2876
28928SOL     OW95561  11.445   8.493  12.108  0.1726  0.1106  0.4195
28928SOL    HW195562  11.456   8.398  12.105 -0.1741  0.0309  1.3533
28928SOL    HW295563  11.362   8.509  12.062 -0.2026 -0.1291  0.9967
28929SOL     OW95564   9.850   9.781   0.172 -0.3468 -0.0095 -0.6343
28929SOL    HW195565   9.889   9.771   0.259 -1.7292 -0.2976 -0.0155
28929SOL    HW295566   9.901   9.723   0.116 -0.0848 -0.6109  0.2034
28930SOL     OW95567   9.829   2.768   4.971 -0.0074 -0.0888 -0.2894
28930SOL    HW195568   9.779   2.810   5.041  0.2263  0.8117 -0.6457
28930SOL    HW295569   9.801   2.814   4.891 -0.2977 -1.1232 -0.8008
28931SOL     OW95570  11.112   0.506   1.486 -0.0560 -0.0673  0.4905
28931SOL    HW195571  11.158   0.586   1.462  0.0115  0.4714  2.2807
28931SOL    HW295572  11.034   0.535   1.533 -0.0101 -1.0257  1.2131
28932SOL     OW95573  12.457   7.320   7.460 -0.3038 -0.1920  0.6097
28932SOL    HW195574  12.537   7.348   7.415 -1.3480  0.4246 -0.9619
28932SOL    HW295575  12.479   7.235   7.497  0.9032 -0.3136 -0.3122
28933SOL     OW95576   7.136   6.547   2.346 -0.7788  0.2833 -0.4811
28933SOL    HW195577   7.109   6.545   2.254  0.8733  1.6736 -1.0659
28933SOL    HW295578   7.175   6.461   2.361 -1.7249 -0.2263 -0.8342
28934SOL     OW95579   5.057  11.347  11.220 -0.1689  0.4673 -0.0293
28934SOL    HW195580   5.073  11.310  11.307 -1.4386  1.3824  0.6474
28934SOL    HW295581   5.144  11.364  11.184  0.4234 -1.8691  0.1673
28935SOL     OW95582   7.160   7.428  12.000 -0.3734  0.0243  0.4317
28935SOL    HW195583   7.209   7.353  12.033  0.1252 -0.2069 -0.7851
28935SOL    HW295584   7.070   7.410  12.027  0.0302 -0.0601  1.7886
28936SOL     OW95585   9.465   7.300  10.388 -0.5039 -0.2438  0.2600
28936SOL    HW195586   9.497   7.213  10.412  1.7182  0.9454  1.9900
28936SOL    HW295587   9.387   7.312  10.443 -1.0486 -1.2411 -0.2593
28937SOL     OW95588   1.581  10.227   7.257 -0.2899 -0.3887 -0.6119
28937SOL    HW195589   1.579  10.316   7.292  3.3691 -0.3847 -0.0124
28937SOL    HW295590   1.575  10.171   7.334 -2.0433 -0.7288 -0.9453
28938SOL     OW95591   7.900   0.658   0.227  0.3830  0.0383  0.9001
28938SOL    HW195592   7.966   0.647   0.294  1.9505  0.9905 -0.4179
28938SOL    HW295593   7.886   0.753   0.222 -0.2914 -0.0791  0.4255
28939SOL     OW95594  12.595   6.448   1.160 -0.5881  0.6942 -0.0784
28939SOL    HW195595  12.539   6.424   1.087  0.4532 -0.1358 -0.6352
28939SOL    HW295596  12.540   6.435   1.238 -1.3002  0.3086 -0.6333
28940SOL     OW95597   2.510   2.880   4.446 -0.1071  0.6545 -0.5877
28940SOL    HW195598   2.457   2.864   4.367  0.8652 -0.5351 -1.0193
28940SOL    HW295599   2.543   2.969   4.434 -0.2902  0.6299 -1.3309
28941SOL     OW95600   3.934   2.643  12.532 -0.1593  0.1267 -0.2486
28941SOL    HW195601   3.867   2.594  12.485  0.0646 -0.6188  0.1862
28941SOL    HW295602   3.950   2.720  12.478 -1.6260  0.5164 -0.1869
28942SOL     OW95603   5.887   5.660   6.513 -0.0250 -0.2182 -0.5404
28942SOL    HW195604   5.835   5.633   6.589 -0.4973  0.1654 -0.7205
28942SOL    HW295605   5.822   5.676   6.444  0.4134 -0.8622 -1.1216
28943SOL     OW95606   4.253   1.484  11.073 -0.4772  0.3392 -0.1788
28943SOL    HW195607   4.253   1.409  11.014 -1.3699 -1.3123  1.7796
28943SOL    HW295608   4.297   1.453  11.152 -0.1351  2.1678  0.4027
28944SOL     OW95609  10.425   9.382  10.754  0.9248 -0.1368 -0.6529
28944SOL    HW195610  10.354   9.320  10.770  1.3890 -0.3476  0.7201
28944SOL    HW295611  10.385   9.453  10.704 -0.6067  0.3805  1.1956
28945SOL     OW95612   3.556   5.173   0.358 -0.0586 -0.4703  0.3083
28945SOL    HW195613   3.468   5.187   0.323  1.2204 -0.5509 -3.3215
28945SOL    HW295614   3.565   5.077   0.362 -0.5106 -0.4884  2.0313
28946SOL     OW95615   7.470   7.201   0.377  0.1260 -0.0604  0.2312
28946SOL    HW195616   7.439   7.138   0.312 -0.2972 -0.1193  0.4852
28946SOL    HW295617   7.489   7.280   0.327  1.9115 -0.7811 -0.2847
28947SOL     OW95618   9.989  12.420   8.521  0.0373 -0.2958 -0.1229
28947SOL    HW195619   9.951  12.416   8.609  0.0999  1.0777 -0.0121
28947SOL    HW295620   9.965  12.337   8.481 -0.4806 -0.7065  0.9992
28948SOL     OW95621   7.524   5.307   5.995 -0.3609  0.6564  0.1663
28948SOL    HW195622   7.493   5.343   6.078  0.1364  0.2112  0.5525
28948SOL    HW295623   7.618   5.326   5.994  0.0139 -1.0637  0.6162
28949SOL     OW95624   8.149   5.177  10.589  0.2202 -0.6249 -0.0117
28949SOL    HW195625   8.164   5.107  10.526 -0.7927 -0.8674 -0.0005
28949SOL    HW295626   8.078   5.145  10.644  0.3565  0.0399  0.5653
28950SOL     OW95627  12.052  12.594   9.635  0.1562  0.1293 -0.2870
28950SOL    HW195628  12.011  12.659   9.577  0.2179 -0.0954 -0.5851
28950SOL    HW295629  12.146  12.600   9.615 -0.0128 -1.4648 -1.8009
28951SOL     OW95630   0.929  10.084   8.889 -0.9079  0.0845  0.3424
28951SOL    HW195631   0.888  10.159   8.932 -1.1450  0.4317 -0.4688
28951SOL    HW295632   0.975  10.122   8.814  0.1923 -0.4055  0.7398
28952SOL     OW95633   4.102   3.002   8.803 -0.3818  0.4436  0.5214
28952SOL    HW195634   4.073   2.928   8.750 -1.4844  0.9439  0.4001
28952SOL    HW295635   4.068   2.983   8.891 -1.2877  1.1175  0.3396
28953SOL     OW95636   5.743   3.183  10.574 -0.2758  1.0457 -0.6324
28953SOL    HW195637   5.753   3.229  10.490 -1.5250  2.3899 -0.1084
28953SOL    HW295638   5.668   3.226  10.615 -1.5024 -1.4662 -0.0450
28954SOL     OW95639   2.762   3.867   7.271 -0.6245  0.3469 -0.1802
28954SOL    HW195640   2.792   3.939   7.327 -0.9189  0.0911  0.3162
28954SOL    HW295641   2.770   3.790   7.326 -0.7528  0.0650 -0.5548
28955SOL     OW95642   7.159   7.894  10.300 -0.1667 -0.2333  0.1471
28955SOL    HW195643   7.122   7.806  10.292  0.6701 -0.6248  0.4550
28955SOL    HW295644   7.213   7.905  10.221  0.8640 -0.5644  0.7852
28956SOL     OW95645   0.119   6.797   7.837  0.2276 -0.3850 -0.2598
28956SOL    HW195646   0.162   6.837   7.912  1.5230 -0.6959 -0.7975
28956SOL    HW295647   0.027   6.789   7.862  0.3007  1.1296  0.5971
28957SOL     OW95648   3.875   1.842  10.462  0.5003  0.2353 -0.2026
28957SOL    HW195649   3.785   1.875  10.460  0.6722  0.6880 -1.4420
28957SOL    HW295650   3.926   1.912  10.422  1.2389 -0.4903 -0.5427
28958SOL     OW95651   7.435  11.349   9.568  0.0984 -0.3963  0.2364
28958SOL    HW195652   7.448  11.340   9.663 -0.2197 -0.4297  0.2780
28958SOL    HW295653   7.350  11.308   9.552  0.2490 -0.5811 -0.0964
28959SOL     OW95654   4.833   7.675   9.027  0.1786 -0.1134 -0.1329
28959SOL    HW195655   4.809   7.764   9.000 -1.4894 -0.2747  0.6418
28959SOL    HW295656   4.864   7.685   9.117 -0.3947 -0.3423  0.0974
28960SOL     OW95657  10.474   1.113   3.450  0.7093 -0.1256 -0.8361
28960SOL    HW195658  10.476   1.181   3.383  0.5244  0.8823  0.1496
28960SOL    HW295659  10.399   1.058   3.426 -0.8298  1.5892 -0.1951
28961SOL     OW95660   4.775   1.974   7.033  0.1106 -0.1657  0.0907
28961SOL    HW195661   4.855   1.934   7.068  0.9007  0.3342 -1.1033
28961SOL    HW295662   4.751   2.039   7.099  0.5867 -0.4449  0.5497
28962SOL     OW95663  11.783   7.747   0.948 -0.1408  0.6703  0.0386
28962SOL    HW195664  11.795   7.723   0.856 -1.3809  1.2358 -0.3003
28962SOL    HW295665  11.752   7.837   0.945 -1.1449  0.3722  0.9396
28963SOL     OW95666  12.607   2.963  12.092 -0.0426  0.3658 -0.5364
28963SOL    HW195667  12.648   2.978  12.007 -0.2424  0.2363 -0.6536
28963SOL    HW295668  12.637   3.037  12.146  1.3901 -0.3931 -0.2358
28964SOL     OW95669   3.477   0.328   1.319 -0.2391  0.6635 -0.0248
28964SOL    HW195670   3.534   0.251   1.319 -1.5706 -0.3565 -0.2369
28964SOL    HW295671   3.536   0.401   1.302  1.4128  0.0009  2.3216
28965SOL     OW95672   3.986   4.934   5.070  0.5306  0.1217  0.3443
28965SOL    HW195673   3.906   4.962   5.113 -0.7216 -0.5562 -1.4350
28965SOL    HW295674   3.961   4.858   5.017  1.8443  1.0929 -1.8380
28966SOL     OW95675   7.923   1.192   8.144  0.6446  0.3035  0.1944
28966SOL    HW195676   8.005   1.203   8.191  0.2830 -0.8898  1.1759
28966SOL    HW295677   7.875   1.127   8.196 -1.3354  1.7046  0.2150
28967SOL     OW95678  11.225   4.891  12.045  0.4417 -0.2972 -0.1417
28967SOL    HW195679  11.162   4.946  12.092  0.4297 -0.1452 -0.3336
28967SOL    HW295680  11.296   4.951  12.021  0.2929 -0.2993 -0.6046
28968SOL     OW95681   7.469   7.223   1.427  0.0726  0.0825  0.4831
28968SOL    HW195682   7.458   7.304   1.376 -0.0868  0.3054  0.8643
28968SOL    HW295683   7.379   7.195   1.446  0.1280 -0.1998  0.3281
28969SOL     OW95684   7.889   6.377   3.485 -0.2705  0.4601  0.3681
28969SOL    HW195685   7.882   6.414   3.573  0.5684  1.9562 -0.1559
28969SOL    HW295686   7.945   6.300   3.495 -1.3304 -0.2043  1.3491
28970SOL     OW95687   0.057   0.159   9.322 -0.4155  0.0561  0.3155
28970SOL    HW195688   0.055   0.245   9.364  0.3683 -0.0858  0.6596
28970SOL    HW295689   0.137   0.160   9.269  0.8899 -1.2894  2.1439
28971SOL     OW95690   8.725   5.384   7.297 -0.3540 -0.1689  0.4791
28971SOL    HW195691   8.677   5.313   7.338 -0.1714  0.0256  1.0363
28971SOL    HW295692   8.757   5.437   7.370  2.5061 -1.4177  0.2603
28972SOL     OW95693   2.305   0.241   7.379 -0.1408 -0.4641  0.0321
28972SOL    HW195694   2.335   0.158   7.340 -0.9557  0.2300 -2.2558
28972SOL    HW295695   2.381   0.299   7.374 -0.6597  0.1368 -2.2680
28973SOL     OW95696   6.179  10.364  10.742 -0.2983  0.2274  0.2245
28973SOL    HW195697   6.220  10.404  10.818 -0.6994  0.2819  0.4105
28973SOL    HW295698   6.222  10.405  10.667  0.8321 -0.5723  0.4137
28974SOL     OW95699  10.165   9.149   2.025 -0.0504  0.0314  0.4232
28974SOL    HW195700  10.074   9.165   2.051 -0.7811  0.2310 -2.0247
28974SOL    HW295701  10.200   9.236   2.006  0.0100 -0.1861 -0.5191
28975SOL     OW95702   7.646   1.270   0.346 -0.5778  0.0097 -0.2177
28975SOL    HW195703   7.688   1.250   0.430 -0.1305  0.8280 -0.2363
28975SOL    HW295704   7.623   1.184   0.310 -0.4121 -0.3701  0.5542
28976SOL     OW95705   3.517   9.362   4.527 -0.5415  0.3185 -0.4532
28976SOL    HW195706   3.591   9.381   4.585 -0.4534  0.8865 -0.7425
28976SOL    HW295707   3.440   9.384   4.579 -0.4587  0.9460 -0.5863
28977SOL     OW95708   9.435   1.354   9.973  0.5357 -0.5699  0.6210
28977SOL    HW195709   9.407   1.433  10.018 -0.3342 -0.6077  0.1713
28977SOL    HW295710   9.479   1.302  10.040 -0.2387 -0.3834  1.2800
28978SOL     OW95711   5.059   6.765   0.149 -0.1302 -0.1761  0.1162
28978SOL    HW195712   5.128   6.707   0.182  0.5895 -0.1468 -1.2838
28978SOL    HW295713   5.022   6.804   0.228  1.3184 -0.3337  0.9159
28979SOL     OW95714  11.823   3.770   0.034  0.3655  0.1130 -0.0770
28979SOL    HW195715  11.768   3.789  -0.042  0.3856 -0.5159 -0.2550
28979SOL    HW295716  11.809   3.844   0.093  1.5099  1.3870 -1.3302
28980SOL     OW95717   3.425  10.536   4.585  0.3733 -0.4602 -0.4889
28980SOL    HW195718   3.516  10.542   4.556  1.2594 -1.5969  1.8394
28980SOL    HW295719   3.408  10.442   4.591 -0.7310 -0.2544 -0.1796
28981SOL     OW95720   0.281   2.738   4.333 -0.3123 -0.0450 -0.0611
28981SOL    HW195721   0.236   2.820   4.314  1.0800  0.9207  0.6429
28981SOL    HW295722   0.374   2.759   4.322  0.0899 -1.4168  0.5655
28982SOL     OW95723   0.140   5.248   2.151 -0.2850 -0.5467 -0.2027
28982SOL    HW195724   0.069   5.259   2.215 -0.5305  0.5089 -0.6366
28982SOL    HW295725   0.213   5.213   2.202 -0.5069  0.1871  0.6503
28983SOL     OW95726   9.290   9.546   2.872 -0.1235 -0.5787  0.0513
28983SOL    HW195727   9.284   9.630   2.918  1.8950  0.0067 -0.6262
28983SOL    HW295728   9.254   9.564   2.785 -0.2919 -0.5888  0.1194
28984SOL     OW95729   4.170   6.803   2.890  0.4150 -0.5120 -0.0315
28984SOL    HW195730   4.261   6.797   2.859  0.7543  0.1350  0.8256
28984SOL    HW295731   4.131   6.872   2.836  0.3125 -1.0507 -0.6626
28985SOL     OW95732   6.784   4.436   1.759  0.5567  0.1058 -0.1628
28985SOL    HW195733   6.772   4.342   1.773  1.0621 -0.1937 -1.6013
28985SOL    HW295734   6.759   4.475   1.842  0.5840 -1.3171  0.5530
28986SOL     OW95735   1.226   6.681   1.964  0.2712  0.5864 -0.5863
28986SOL    HW195736   1.316   6.677   1.996 -1.2305 -0.0260  4.4528
28986SOL    HW295737   1.200   6.772   1.978 -0.1688  0.5522 -1.1675
28987SOL     OW95738   4.818   4.991   2.757 -0.0813  0.2698  0.2737
28987SOL    HW195739   4.891   5.042   2.721 -0.7663 -0.1167 -1.8396
28987SOL    HW295740   4.847   4.900   2.748 -0.8809  0.0972 -0.8690
28988SOL     OW95741   4.833   6.205   8.993  0.9447 -0.4525  0.5099
28988SOL    HW195742   4.745   6.205   9.030  1.2797  1.0894  1.3750
28988SOL    HW295743   4.832   6.133   8.930 -0.9138 -0.4851  0.5213
28989SOL     OW95744   9.535  11.398   0.938  0.0575 -0.6848 -0.1679
28989SOL    HW195745   9.457  11.451   0.955  0.6103  0.4812 -1.1746
28989SOL    HW295746   9.513  11.347   0.860  1.3290  1.9171 -2.3668
28990SOL     OW95747   5.777  10.110   7.312 -0.2986  0.1816  0.6022
28990SOL    HW195748   5.776  10.195   7.268  0.8960  0.1253  0.4416
28990SOL    HW295749   5.749  10.129   7.402 -2.6398  0.3158 -0.0748
28991SOL     OW95750   2.041   3.839  12.116 -0.1795  0.2185 -0.5086
28991SOL    HW195751   1.966   3.801  12.070 -0.2697  1.0316 -1.0649
28991SOL    HW295752   2.009   3.924  12.147  0.1638  0.0628  0.2676
28992SOL     OW95753   3.742   5.265   5.817 -0.5011 -0.4002 -0.3987
28992SOL    HW195754   3.682   5.251   5.744 -0.8926 -0.9738  0.0213
28992SOL    HW295755   3.718   5.352   5.851 -0.9217 -0.5111 -0.4018
28993SOL     OW95756   7.324  11.606  10.923 -0.1054  0.0118  0.1425
28993SOL    HW195757   7.379  11.659  10.980  1.1201 -0.7074 -0.3434
28993SOL    HW295758   7.383  11.572  10.856 -0.9490 -1.5383  0.1265
28994SOL     OW95759   8.791   3.955   6.015 -0.3766 -0.1954  0.1991
28994SOL    HW195760   8.751   3.899   5.949  2.4768 -1.8725 -0.2463
28994SOL    HW295761   8.884   3.953   5.996  0.1799  2.2864  2.0803
28995SOL     OW95762   8.680   6.757   1.605 -0.3938 -0.3926 -0.0240
28995SOL    HW195763   8.605   6.812   1.629  0.8448  0.8501  1.1437
28995SOL    HW295764   8.671   6.679   1.660  0.0866  0.5247  1.3920
28996SOL     OW95765   3.829   1.869   1.846 -0.1742  0.8685  0.0687
28996SOL    HW195766   3.848   1.775   1.845  2.8655  1.3642  0.3877
28996SOL    HW295767   3.823   1.891   1.939 -1.3593  0.9387 -0.0132
28997SOL     OW95768   0.963   6.902  10.063  0.2046  0.3664  0.2811
28997SOL    HW195769   0.939   6.991  10.035 -1.8573 -0.1984  0.0820
28997SOL    HW295770   0.965   6.852   9.982  0.1205 -0.0181  0.5159
28998SOL     OW95771  11.092   2.160   2.125  0.1349 -0.5273 -0.1009
28998SOL    HW195772  11.182   2.177   2.151 -0.0550  0.1753  0.1348
28998SOL    HW295773  11.040   2.218   2.181 -0.4337 -0.6591 -0.4848
28999SOL     OW95774   6.032  11.642  11.789 -0.0685 -0.5438 -0.3573
28999SOL    HW195775   5.937  11.644  11.795 -0.1381 -2.8313  0.1949
28999SOL    HW295776   6.050  11.583  11.716  0.9815  1.9099 -2.2385
29000SOL     OW95777   1.297   0.858   6.375  0.2510 -0.0351  0.0540
29000SOL    HW195778   1.299   0.809   6.457 -0.2208 -0.4653 -0.1842
29000SOL    HW295779   1.268   0.946   6.401  1.1352  0.1447  0.4863
29001SOL     OW95780   7.171   5.473   1.436  0.1466 -0.2185 -0.3274
29001SOL    HW195781   7.241   5.483   1.500  0.8864 -0.6884 -1.0422
29001SOL    HW295782   7.214   5.485   1.352 -0.6128 -0.6331 -0.7856
29002SOL     OW95783   6.490   2.035   9.472 -0.2459  0.0842 -0.1222
29002SOL    HW195784   6.561   2.046   9.535  1.3330 -0.2434 -1.7582
29002SOL    HW295785   6.463   2.124   9.450 -0.4191  0.2091  0.5585
29003SOL     OW95786   0.131   5.738  10.609  0.3198  0.7450  0.4256
29003SOL    HW195787   0.057   5.791  10.640 -0.0763  1.4451 -1.5691
29003SOL    HW295788   0.205   5.799  10.606  0.6099  0.4236  0.9627
29004SOL     OW95789   2.929   1.336  12.340  0.5289  0.2598 -0.1061
29004SOL    HW195790   3.023   1.337  12.322  0.7451  1.0991  0.9832
29004SOL    HW295791   2.921   1.286  12.421 -0.0731 -0.6097 -0.6870
29005SOL     OW95792   9.681   5.309  10.279 -0.0539  0.1663  0.3201
29005SOL    HW195793   9.774   5.292  10.271 -0.1786 -1.0284  1.1576
29005SOL    HW295794   9.675   5.404  10.293  1.0027  0.2952 -0.0546
29006SOL     OW95795   3.452   3.925  11.303 -0.0577  0.3988  0.1832
29006SOL    HW195796   3.413   3.999  11.256  0.5408 -0.8853 -2.5378
29006SOL    HW295797   3.507   3.881  11.238 -1.7692 -3.5026  1.0506
29007SOL     OW95798   2.065   3.540   9.985  0.3555  0.2863 -0.5611
29007SOL    HW195799   2.075   3.538  10.080 -1.8140  0.9844 -0.2583
29007SOL    HW295800   2.128   3.606   9.955 -1.2820  2.6297  0.8335
29008SOL     OW95801   6.325   5.214   9.774 -0.2210 -0.4697 -0.8331
29008SOL    HW195802   6.317   5.158   9.697  1.4114  0.0947 -1.4583
29008SOL    HW295803   6.365   5.295   9.740 -0.0133  0.0145  0.5052
29009SOL     OW95804  10.800   6.719   4.500 -0.7497 -0.2929 -0.1879
29009SOL    HW195805  10.752   6.636   4.490 -0.5839 -0.3849 -0.2078
29009SOL    HW295806  10.873   6.712   4.438  0.8359 -1.2464  1.6934
29010SOL     OW95807   4.608   0.059   2.186 -0.4970  0.9644  0.3586
29010SOL    HW195808   4.530   0.046   2.240 -1.7256  0.5923 -1.4564
29010SOL    HW295809   4.641  -0.029   2.168  1.6051  1.1273  2.7480
29011SOL     OW95810   2.436   4.040   7.131 -0.1717 -0.0089 -0.1233
29011SOL    HW195811   2.437   3.947   7.109 -1.0643 -0.1419  0.3737
29011SOL    HW295812   2.380   4.080   7.065 -0.6935  0.0014  0.3238
29012SOL     OW95813  10.232   0.308   1.107 -0.6205  0.7166  0.2148
29012SOL    HW195814  10.182   0.387   1.085 -1.0801  0.6185  0.8750
29012SOL    HW295815  10.167   0.238   1.104 -0.7673  0.7309  2.0776
29013SOL     OW95816   6.419   9.543   2.763  0.6803  0.6885 -0.1974
29013SOL    HW195817   6.375   9.524   2.680  0.1303 -0.4451  0.3212
29013SOL    HW295818   6.416   9.638   2.771 -0.1365  0.7457 -1.0140
29014SOL     OW95819   1.303   4.965  10.944  0.3938  0.0523  0.3222
29014SOL    HW195820   1.218   5.009  10.953 -0.2625 -1.0763 -0.2679
29014SOL    HW295821   1.292   4.882  10.989  1.3629  0.1071  0.6854
29015SOL     OW95822   2.970   8.507  10.888  0.2917 -0.2524  0.4102
29015SOL    HW195823   2.919   8.511  10.807 -1.1566 -1.1467  1.2298
29015SOL    HW295824   2.926   8.440  10.940  2.8810 -1.7931  0.8001
29016SOL     OW95825   7.102   4.348   7.742  0.0245 -0.1630  0.4046
29016SOL    HW195826   7.119   4.305   7.826  0.8649  0.4818  0.5724
29016SOL    HW295827   7.187   4.379   7.713  0.0127 -1.6749 -1.4353
29017SOL     OW95828   7.561   0.814   9.442 -0.2879  0.7917  0.4508
29017SOL    HW195829   7.634   0.753   9.442 -0.8617  0.0968  0.4538
29017SOL    HW295830   7.596   0.893   9.484  0.6885  0.7600 -0.2874
29018SOL     OW95831   8.964   2.056  11.145  0.5010 -0.3929  0.3712
29018SOL    HW195832   8.958   2.145  11.112 -1.0398 -0.1453  1.1931
29018SOL    HW295833   8.895   2.050  11.211  2.9548 -1.0322  3.1263
29019SOL     OW95834   2.371   5.326   5.120 -0.0949  0.6646 -0.0103
29019SOL    HW195835   2.378   5.388   5.193  2.5335  4.1023 -2.8675
29019SOL    HW295836   2.461   5.304   5.098 -0.7285  0.4975 -2.7591
29020SOL     OW95837   8.562   3.655   2.381 -0.3790  0.2299 -0.1282
29020SOL    HW195838   8.512   3.610   2.448  0.1168  0.9501  0.7490
29020SOL    HW295839   8.515   3.737   2.366  0.6863  1.0806  0.9660
29021SOL     OW95840  11.549   0.652   8.778  0.0443 -0.0765  0.1266
29021SOL    HW195841  11.530   0.713   8.707  0.1111 -1.4719 -1.1549
29021SOL    HW295842  11.478   0.665   8.841  0.6971  2.1226  0.5010
29022SOL     OW95843   4.924   0.612   3.247 -0.0332  0.3340  0.1014
29022SOL    HW195844   4.921   0.528   3.292 -0.1320 -0.2052 -0.9066
29022SOL    HW295845   5.010   0.613   3.204 -0.6662  0.0411 -1.2138
29023SOL     OW95846  12.492   8.754   2.262  0.1393 -0.2179  0.4735
29023SOL    HW195847  12.528   8.758   2.173  0.2542 -0.9707  0.4771
29023SOL    HW295848  12.398   8.748   2.250  0.0758  0.8022  0.4362
29024SOL     OW95849   5.529   5.973  10.147  0.2829  0.0986 -0.0724
29024SOL    HW195850   5.440   5.951  10.172  0.0676 -0.6730 -1.4425
29024SOL    HW295851   5.519   6.028  10.069  0.9838  1.0242  0.4602
29025SOL     OW95852   5.892   4.292   5.325 -0.1556  0.6520 -0.1256
29025SOL    HW195853   5.805   4.321   5.354  0.0195  1.5393 -0.4361
29025SOL    HW295854   5.951   4.322   5.395  0.0921  1.5230 -0.6957
29026SOL     OW95855   9.004   4.211   8.738  0.3671 -0.4308 -0.1580
29026SOL    HW195856   8.975   4.241   8.824  0.4090  0.7817 -0.5560
29026SOL    HW295857   8.937   4.147   8.712  0.9793 -1.7197  1.2564
29027SOL     OW95858  11.898   1.599   8.706  0.1424 -0.0992  0.6726
29027SOL    HW195859  11.913   1.563   8.793  1.1102 -1.1101  0.1007
29027SOL    HW295860  11.917   1.528   8.646 -0.8141  0.4850 -0.3786
29028SOL     OW95861   0.121   6.750   1.945 -0.5636 -0.8575  0.5762
29028SOL    HW195862   0.163   6.832   1.970  0.8528 -1.3682 -0.0172
29028SOL    HW295863   0.179   6.713   1.878 -0.5741 -2.8521  1.6073
29029SOL     OW95864   6.954   0.708   1.386  0.0598  0.0185 -0.3691
29029SOL    HW195865   6.950   0.723   1.481  0.0786 -1.1696 -0.1689
29029SOL    HW295866   7.048   0.706   1.367  0.1063 -1.4833 -0.0998
29030SOL     OW95867   9.927   5.852  12.041  0.3742 -0.1239 -0.1621
29030SOL    HW195868   9.897   5.925  12.095  0.9102 -1.2587  1.7358
29030SOL    HW295869   9.896   5.774  12.086  1.5485 -1.1522 -1.0575
29031SOL     OW95870  11.383   2.312   5.376  0.3426  0.1936 -0.3632
29031SOL    HW195871  11.451   2.318   5.310  0.4783  0.9527 -0.1650
29031SOL    HW295872  11.423   2.263   5.448 -0.4793 -2.5592 -1.6477
29032SOL     OW95873  10.159   2.187   1.238  0.3542 -0.0460 -0.2240
29032SOL    HW195874  10.208   2.269   1.249 -0.8817  0.7318 -0.3338
29032SOL    HW295875  10.119   2.195   1.152 -1.8258  0.3973  0.7599
29033SOL     OW95876   8.429   2.775   2.924  0.2762 -0.2448  0.2719
29033SOL    HW195877   8.374   2.791   3.000  0.2212  1.6983 -0.1238
29033SOL    HW295878   8.384   2.819   2.852  0.8088 -1.2377 -0.7082
29034SOL     OW95879  12.230   6.923   8.355  0.1882  0.0642 -0.2619
29034SOL    HW195880  12.295   6.855   8.338 -0.1322 -0.6067  1.0818
29034SOL    HW295881  12.256   6.960   8.439  0.4006  1.6802 -1.0100
29035SOL     OW95882   6.555   9.657   7.893  0.1885  0.1020  0.5088
29035SOL    HW195883   6.533   9.747   7.869  2.1841  0.3015 -0.7907
29035SOL    HW295884   6.583   9.662   7.984  1.1203  0.9717  0.1877
29036SOL     OW95885   2.003  10.310   8.707 -0.5524  0.2012 -0.2609
29036SOL    HW195886   2.002  10.405   8.704  1.3896  0.2987  0.8383
29036SOL    HW295887   2.046  10.283   8.626 -2.2270  0.1615 -1.1787
29037SOL     OW95888   8.223   2.346   7.960 -0.2656  0.0564 -0.2234
29037SOL    HW195889   8.188   2.434   7.944  1.8735  1.0198 -0.0431
29037SOL    HW295890   8.202   2.329   8.052 -1.3611  0.0249 -0.4651
29038SOL     OW95891   3.280   9.714   3.225 -0.5010  0.2160  0.2589
29038SOL    HW195892   3.200   9.766   3.213 -0.9461 -0.2973  0.9434
29038SOL    HW295893   3.266   9.666   3.307  0.1954 -0.4543 -0.0013
29039SOL     OW95894  12.265   6.176   9.095 -0.2666 -0.0957  0.2408
29039SOL    HW195895  12.306   6.098   9.133  0.0734  0.3163  0.7237
29039SOL    HW295896  12.215   6.215   9.167 -0.6920 -0.0383 -0.0829
29040SOL     OW95897   7.459   5.678   7.868 -1.0909  0.3817 -0.1532
29040SOL    HW195898   7.430   5.724   7.947  0.5746  0.7985  0.2619
29040SOL    HW295899   7.430   5.732   7.795 -2.5663  0.0405  0.1639
29041SOL     OW95900   3.712   5.571   3.702 -0.1189  0.7721 -0.0712
29041SOL    HW195901   3.703   5.568   3.797 -0.7523 -1.2301 -0.1597
29041SOL    HW295902   3.629   5.537   3.669  0.2210  1.1344 -1.3513
29042SOL     OW95903   7.138  12.305  12.146 -0.0173 -0.4727 -0.1032
29042SOL    HW195904   7.155  12.220  12.105  0.5812 -1.2621  1.6599
29042SOL    HW295905   7.066  12.342  12.096  0.4977 -1.4836 -1.6614
29043SOL     OW95906   9.806  10.188   2.167 -0.3157 -0.0543  0.1037
29043SOL    HW195907   9.874  10.180   2.099  0.3897  0.5564  0.7255
29043SOL    HW295908   9.762  10.103   2.165  0.7797 -0.6458  0.0113
29044SOL     OW95909   8.124   5.164   1.721  0.4711  0.1383 -0.1312
29044SOL    HW195910   8.122   5.095   1.655 -0.3542  1.0719 -1.1307
29044SOL    HW295911   8.137   5.118   1.804  2.8832 -0.9811 -1.0328
29045SOL     OW95912   6.148   7.417   9.997 -0.5486  0.2921  0.1456
29045SOL    HW195913   6.201   7.491   9.970 -1.0408  0.2651 -0.9149
29045SOL    HW295914   6.207   7.342   9.993 -0.8091  0.1512 -1.6809
29046SOL     OW95915   8.779   7.831  11.939  0.3278 -0.0690 -0.0293
29046SOL    HW195916   8.828   7.911  11.923 -0.5352  0.3708 -0.5768
29046SOL    HW295917   8.810   7.799  12.024 -0.3874  1.6568  0.9215
29047SOL     OW95918   3.547   1.119   7.788  0.5057 -0.2166  0.3345
29047SOL    HW195919   3.573   1.030   7.765 -2.3948 -0.8438 -0.9680
29047SOL    HW295920   3.520   1.114   7.879  1.8964 -0.2585  0.7583
29048SOL     OW95921   1.417   1.835   2.698  0.0932  0.2749 -0.3643
29048SOL    HW195922   1.496   1.884   2.676 -0.5118  0.8484 -1.3177
29048SOL    HW295923   1.363   1.839   2.619 -1.1320  0.3878  0.4466
29049SOL     OW95924   1.728  11.414   2.389 -0.1976  0.6478 -0.4925
29049SOL    HW195925   1.716  11.422   2.294 -1.0976 -1.6891 -0.6551
29049SOL    HW295926   1.644  11.442   2.426 -0.7018 -0.6577 -0.5846
29050SOL     OW95927   1.548   1.572   8.529 -0.4418 -0.5894 -0.0589
29050SOL    HW195928   1.515   1.569   8.440 -0.8323 -0.5331  0.0828
29050SOL    HW295929   1.519   1.490   8.569 -0.4108 -0.5381  0.0690
29051SOL     OW95930   3.584   1.117   2.001 -0.2715  0.4762  0.4924
29051SOL    HW195931   3.648   1.136   2.069  1.8373  0.2239 -1.3111
29051SOL    HW295932   3.565   1.024   2.011  0.2332  0.3801  0.5772
29052SOL     OW95933   2.647   1.202   5.710  0.0878  0.0047 -0.2039
29052SOL    HW195934   2.691   1.122   5.739 -2.0199 -1.5164 -0.9675
29052SOL    HW295935   2.620   1.245   5.791  0.2685 -0.6429  0.2077
29053SOL     OW95936   2.796   9.684   9.751 -0.6107  0.2086  0.5889
29053SOL    HW195937   2.871   9.703   9.806  0.3814 -0.6041 -0.4416
29053SOL    HW295938   2.783   9.763   9.699  0.2358 -0.0370 -0.0105
29054SOL     OW95939   0.513   6.246   1.893 -0.1098  0.1625 -0.2261
29054SOL    HW195940   0.475   6.271   1.977 -1.6877 -0.1709 -0.8090
29054SOL    HW295941   0.446   6.269   1.828  0.8849 -0.0090 -1.3525
29055SOL     OW95942   6.968   6.265   6.914 -0.0396  0.5481  0.3586
29055SOL    HW195943   6.881   6.285   6.880  0.4879  0.8460 -0.8789
29055SOL    HW295944   7.011   6.350   6.922  0.7362  0.2910 -0.7885
29056SOL     OW95945   1.692  10.696   0.308  0.4889 -0.1580  0.1693
29056SOL    HW195946   1.743  10.703   0.389  0.1127 -3.0557  0.7817
29056SOL    HW295947   1.601  10.689   0.338  0.2369 -0.1436 -0.5861
29057SOL     OW95948   8.879   5.982   4.218 -0.0273  0.1957 -0.4218
29057SOL    HW195949   8.824   5.905   4.209  0.2817 -0.0508 -0.2027
29057SOL    HW295950   8.947   5.957   4.280 -0.4997  0.9599  0.4257
29058SOL     OW95951  11.089  11.645   4.756  0.0848  0.0802 -0.1726
29058SOL    HW195952  11.038  11.570   4.726 -0.0842  0.4191 -0.7577
29058SOL    HW295953  11.045  11.721   4.717  0.8569  0.4009 -0.4445
29059SOL     OW95954   0.961   1.315   4.820 -0.0503  0.4678  0.6216
29059SOL    HW195955   0.886   1.256   4.826 -1.6470  2.0102 -2.0766
29059SOL    HW295956   0.954   1.370   4.898 -0.4777 -0.7025  1.4535
29060SOL     OW95957   0.205  10.309  11.916 -0.1271  0.3842  0.2860
29060SOL    HW195958   0.207  10.268  12.003 -0.2941  0.0411  0.1336
29060SOL    HW295959   0.284  10.362  11.912 -0.2636  0.6298  0.7552
29061SOL     OW95960   7.831   8.694   0.456  0.0310  0.1563  0.1328
29061SOL    HW195961   7.894   8.766   0.465  0.6807 -0.2505 -0.8734
29061SOL    HW295962   7.884   8.620   0.424 -0.8898 -0.3189 -0.3474
29062SOL     OW95963   3.295  12.415   0.083  0.4416  0.2124  0.4320
29062SOL    HW195964   3.272  12.507   0.068 -2.1323 -0.0324  2.2853
29062SOL    HW295965   3.347  12.391   0.006  0.1708  2.8753 -0.6892
29063SOL     OW95966   6.602   2.141   1.560 -0.0467 -0.0742  0.1540
29063SOL    HW195967   6.664   2.190   1.505  0.9465 -1.0848  0.3426
29063SOL    HW295968   6.608   2.051   1.528  0.0197 -0.5453  1.4383
29064SOL     OW95969   3.218   5.394  11.133  0.0400 -0.5467  0.1292
29064SOL    HW195970   3.193   5.486  11.130  0.1842 -0.5114  0.0197
29064SOL    HW295971   3.178   5.361  11.213  0.9875 -0.1011  0.8026
29065SOL     OW95972   9.053  10.286   5.721  0.2189  0.2507 -0.1025
29065SOL    HW195973   9.010  10.370   5.700 -1.9382 -0.5551  0.7877
29065SOL    HW295974   9.099  10.262   5.641 -2.6072  0.3019 -1.8823
29066SOL     OW95975   9.925  12.328   3.555 -0.0446  0.0368  0.1050
29066SOL    HW195976   9.920  12.395   3.487  0.8564 -1.9254 -2.0245
29066SOL    HW295977   9.835  12.321   3.587 -0.4234  1.2637 -0.5950
29067SOL     OW95978   4.313   2.420   7.380  0.6908 -0.4912 -0.2162
29067SOL    HW195979   4.357   2.335   7.376  2.5660  0.4606 -1.0010
29067SOL    HW295980   4.384   2.484   7.380 -0.7027  1.1288 -0.9389
29068SOL     OW95981   0.011   0.665   9.861  0.0264  0.3788 -0.4735
29068SOL    HW195982   0.098   0.696   9.886  0.3184 -0.8643  0.1194
29068SOL    HW295983   0.010   0.573   9.886 -0.7859 -0.1323 -2.2310
29069SOL     OW95984   1.965   3.809   5.034 -0.6183  0.1455  0.4726
29069SOL    HW195985   2.041   3.826   5.091  1.0657  2.5545 -2.2538
29069SOL    HW295986   1.985   3.725   4.993  0.2646  0.4525  0.2590
29070SOL     OW95987   2.145   6.476   7.732  0.6352  0.4734 -0.3908
29070SOL    HW195988   2.105   6.562   7.746 -0.1910  0.4451 -2.3431
29070SOL    HW295989   2.236   6.488   7.757  0.4271  1.7892 -0.1788
29071SOL     OW95990   5.546   0.509   3.958  0.0535 -0.2631  0.3992
29071SOL    HW195991   5.506   0.533   4.042 -1.2926  2.1014 -0.7940
29071SOL    HW295992   5.504   0.427   3.934 -0.0959 -0.5854  1.6685
29072SOL     OW95993   3.845   0.041   9.077 -0.1839  0.1563  0.4110
29072SOL    HW195994   3.800   0.124   9.092  0.6176  0.9300 -1.2708
29072SOL    HW295995   3.936   0.058   9.102 -0.2572 -0.5967  1.2286
29073SOL     OW95996   7.763   8.369  11.649 -0.3092 -0.0490 -0.1361
29073SOL    HW195997   7.855   8.394  11.641 -0.2731 -0.6821 -2.1492
29073SOL    HW295998   7.736   8.344  11.561 -2.2664 -0.4494  0.5074
29074SOL     OW95999   1.424   5.135  11.176  0.6455 -0.1866  0.2027
29074SOL    HW196000   1.407   5.059  11.121 -2.6090 -0.2530  1.0794
29074SOL    HW296001   1.438   5.207  11.115  0.8691 -0.9378 -0.6468
29075SOL     OW96002  11.258   2.529   8.812 -0.3377 -0.3506 -0.2543
29075SOL    HW196003  11.241   2.549   8.904  0.9356  0.8985 -0.2620
29075SOL    HW296004  11.198   2.586   8.764 -0.6649 -0.6568 -0.2137
29076SOL     OW96005   1.222  11.398   5.324  0.2286  0.3422 -0.2359
29076SOL    HW196006   1.264  11.340   5.388 -0.3955 -0.1699 -0.2755
29076SOL    HW296007   1.133  11.364   5.317  0.4410  0.0657 -1.7761
29077SOL     OW96008   6.911   9.410   0.461 -0.4422  0.2232 -0.0916
29077SOL    HW196009   6.912   9.498   0.425  1.2574 -0.6558 -2.4438
29077SOL    HW296010   6.986   9.407   0.520 -1.5696  0.8284  1.4341
29078SOL     OW96011   0.937   9.649   4.687  0.0422 -0.1578 -0.1309
29078SOL    HW196012   0.927   9.555   4.697 -0.4962  0.0732  2.3704
29078SOL    HW296013   0.851   9.681   4.661 -0.8487 -0.0962  2.5160
29079SOL     OW96014   2.400   8.814   2.399 -0.5754  0.5789  0.1487
29079SOL    HW196015   2.416   8.752   2.328  1.5685  0.9715  0.2238
29079SOL    HW296016   2.466   8.793   2.465 -0.3372  2.3863  0.5383
29080SOL     OW96017   0.599   4.239   5.875  0.1459 -1.0121 -0.4993
29080SOL    HW196018   0.562   4.293   5.806  1.0060  2.3732  1.4399
29080SOL    HW296019   0.683   4.279   5.894  0.1015 -2.0002  2.2248
29081SOL     OW96020   6.318   3.448  12.505 -0.5737 -0.4763  0.4008
29081SOL    HW196021   6.287   3.381  12.566  2.4596 -1.9271  0.5780
29081SOL    HW296022   6.398   3.482  12.547 -0.5915  1.3806 -0.9468
29082SOL     OW96023   8.993   7.262   1.333 -0.2289 -0.3930  0.0455
29082SOL    HW196024   9.058   7.315   1.286 -0.5680  0.4900  0.5495
29082SOL    HW296025   8.996   7.177   1.290 -0.7258  0.4525 -1.7670
29083SOL     OW96026   7.236   5.128   8.855  0.3274  0.0299  0.1288
29083SOL    HW196027   7.291   5.141   8.932  1.4695  0.6063 -0.7540
29083SOL    HW296028   7.168   5.196   8.863  0.1567 -0.2119  0.8459
29084SOL     OW96029  10.886   0.973   5.468  0.5695 -0.3940 -0.5833
29084SOL    HW196030  10.839   1.051   5.439  0.6129 -0.0529  0.2203
29084SOL    HW296031  10.935   0.944   5.391  0.3283  0.2022 -0.9686
29085SOL     OW96032   0.555   2.828   3.787  0.4453  0.1783 -0.0263
29085SOL    HW196033   0.564   2.737   3.815  0.2284  0.0680 -0.3156
29085SOL    HW296034   0.462   2.846   3.793  0.3480  0.0580 -0.9608
29086SOL     OW96035   9.123   8.120   8.373  0.1271  0.5171  0.8375
29086SOL    HW196036   9.038   8.141   8.336  0.7631  0.1472 -0.9486
29086SOL    HW296037   9.171   8.202   8.372  1.3675 -0.0792 -2.7189
29087SOL     OW96038   2.873   9.985   6.882 -0.3382 -0.3257  1.0736
29087SOL    HW196039   2.781  10.005   6.901 -0.6407 -0.9887  0.3665
29087SOL    HW296040   2.869   9.920   6.812  0.6839 -0.0100  0.7065
29088SOL     OW96041   9.178   7.848   1.515  0.8786  0.0786  0.8919
29088SOL    HW196042   9.178   7.942   1.530 -0.3707  0.6004 -1.8826
29088SOL    HW296043   9.127   7.812   1.588 -2.2561  2.0569 -0.1375
29089SOL     OW96044   0.972   1.532   8.723  0.0185 -0.2855  0.2706
29089SOL    HW196045   0.877   1.542   8.731  0.0761  0.1727  0.4207
29089SOL    HW296046   0.999   1.608   8.671 -0.0282 -1.8310 -2.1694
29090SOL     OW96047   2.807  10.915  10.322 -0.1656  0.1743 -0.0051
29090SOL    HW196048   2.790  10.856  10.249  2.0248  0.1468 -0.5694
29090SOL    HW296049   2.899  10.940  10.311 -0.1567  1.1959  2.0199
29091SOL     OW96050  11.261   2.928   3.124 -0.7215  0.5415  0.3192
29091SOL    HW196051  11.171   2.955   3.111 -1.6656 -0.4063  3.8454
29091SOL    HW296052  11.310   3.009   3.136 -1.5415  1.0011  0.5898
29092SOL     OW96053   5.445   2.464  10.932  0.1726  0.0576  0.3302
29092SOL    HW196054   5.510   2.515  10.980 -1.4931  2.4841  0.2009
29092SOL    HW296055   5.426   2.389  10.988  2.4005 -0.2582  0.7489
29093SOL     OW96056   2.994   8.488  10.006 -0.2555 -0.0159 -0.5084
29093SOL    HW196057   2.954   8.501   9.920  0.9636  2.8745 -0.7637
29093SOL    HW296058   3.061   8.557  10.012 -0.0105 -0.3724  2.6010
29094SOL     OW96059   0.020   7.687   1.917  0.0207  0.3576  0.5360
29094SOL    HW196060   0.050   7.725   1.999  1.1389  1.0078 -0.1499
29094SOL    HW296061   0.034   7.593   1.927  1.5881  0.5679  0.5430
29095SOL     OW96062  11.369   8.038   4.164 -0.2722 -0.0935  0.7353
29095SOL    HW196063  11.301   8.098   4.134 -0.6605 -0.9724 -0.2232
29095SOL    HW296064  11.450   8.088   4.160 -0.6987  0.5953  0.6995
29096SOL     OW96065   0.727  11.231  10.409 -0.2072  0.3605  0.0385
29096SOL    HW196066   0.812  11.237  10.365 -0.1482  0.2194  0.1341
29096SOL    HW296067   0.723  11.142  10.442 -0.2082  0.4975  0.4102
29097SOL     OW96068   8.189   3.670  12.138  0.4095  0.1826 -0.0498
29097SOL    HW196069   8.282   3.692  12.150 -0.0295  2.1099  0.1003
29097SOL    HW296070   8.190   3.597  12.076  2.0192  0.1485 -0.0357
29098SOL     OW96071  12.216   0.870   4.065  0.4503 -0.1134 -0.1082
29098SOL    HW196072  12.217   0.812   3.989 -0.3465  1.0647 -1.0662
29098SOL    HW296073  12.210   0.812   4.140  0.2850 -1.2807 -1.0058
29099SOL     OW96074  10.738   4.380  11.295 -0.3202  0.2423 -0.2538
29099SOL    HW196075  10.760   4.388  11.203 -1.7888  1.4216 -0.5413
29099SOL    HW296076  10.743   4.470  11.329 -0.7040 -0.0362  0.5798
29100SOL     OW96077   1.781  10.865   0.070  0.1661 -0.2380  0.0308
29100SOL    HW196078   1.786  10.782   0.118  0.5798 -1.1296 -1.4941
29100SOL    HW296079   1.739  10.842  -0.013 -0.0373  1.1547 -0.2703
29101SOL     OW96080   2.626   0.962   0.201  0.1911  0.2518  0.5758
29101SOL    HW196081   2.581   1.026   0.146  1.4691  0.3846 -0.3571
29101SOL    HW296082   2.597   0.877   0.166 -0.4592  0.3195  0.9382
29102SOL     OW96083   1.178   9.414   7.844  0.4960 -0.1812 -0.3000
29102SOL    HW196084   1.094   9.431   7.802  0.2462  0.6967  0.5251
29102SOL    HW296085   1.157   9.397   7.936  1.2104 -0.0084 -0.0995
29103SOL     OW96086  12.178   3.053   6.896 -0.1053 -0.3272  0.4161
29103SOL    HW196087  12.264   3.091   6.913  0.2626 -0.1665 -1.5682
29103SOL    HW296088  12.120   3.128   6.885 -0.2179 -0.4090  0.4497
29104SOL     OW96089   8.270   7.519  10.923  0.0434  0.1671 -0.5072
29104SOL    HW196090   8.342   7.509  10.860 -1.2339  0.9006 -2.1651
29104SOL    HW296091   8.230   7.603  10.900 -1.3153 -0.2059  0.3984
29105SOL     OW96092   7.168   5.063   9.706 -0.1225  0.2209  0.3645
29105SOL    HW196093   7.116   5.108   9.773 -1.1799 -2.8790  1.8095
29105SOL    HW296094   7.105   5.037   9.639  0.3062  0.1684 -0.0251
29106SOL     OW96095   7.883   3.710   8.378 -0.0002  0.3678  0.2507
29106SOL    HW196096   7.886   3.622   8.417  0.4385  0.4086  0.3048
29106SOL    HW296097   7.809   3.752   8.422 -0.4568 -0.1000 -0.0459
29107SOL     OW96098  10.333  10.537   2.932  0.1397 -0.2082  0.4944
29107SOL    HW196099  10.290  10.494   3.006 -1.1719 -1.1805 -0.7734
29107SOL    HW296100  10.416  10.491   2.921 -0.2177 -0.8887  0.6026
29108SOL     OW96101   5.793   9.220   3.956  0.1614 -0.5776  0.2057
29108SOL    HW196102   5.768   9.311   3.939 -2.1980 -1.0340  0.9034
29108SOL    HW296103   5.876   9.209   3.909 -0.6925  1.2416 -1.9143
29109SOL     OW96104   6.019   7.862   7.627  0.2769  0.2061  0.2117
29109SOL    HW196105   6.016   7.867   7.531  2.7261  0.6154  0.0765
29109SOL    HW296106   5.975   7.780   7.648 -1.2881  0.6335 -1.1431
29110SOL     OW96107   2.191   3.016   4.376 -0.0572 -0.0509 -0.6865
29110SOL    HW196108   2.193   2.986   4.284 -1.2066  0.4969 -0.9079
29110SOL    HW296109   2.101   3.000   4.404  0.2170  0.0415  0.2757
29111SOL     OW96110   0.355   3.831  11.197 -0.8661 -0.2616  0.2583
29111SOL    HW196111   0.332   3.892  11.126 -2.0952 -2.1508 -1.0804
29111SOL    HW296112   0.344   3.882  11.277 -0.1528  1.7485 -0.8580
29112SOL     OW96113   6.536   4.596  10.026  0.0951 -0.2350  0.3688
29112SOL    HW196114   6.622   4.639  10.020  0.1301 -0.2389  0.7635
29112SOL    HW296115   6.556   4.507  10.055  0.0270 -0.5470 -0.5323
29113SOL     OW96116   8.390   5.042  11.358  0.4018 -0.1818  0.1696
29113SOL    HW196117   8.412   5.090  11.438 -0.6122 -0.0504  0.3814
29113SOL    HW296118   8.312   4.991  11.380  0.2850 -0.3770 -0.6442
29114SOL     OW96119   1.091   7.589   5.858 -0.1585  0.7736  0.1727
29114SOL    HW196120   1.182   7.603   5.881 -0.7328  1.7244  2.0329
29114SOL    HW296121   1.061   7.673   5.823 -0.6603  0.8709  0.8155
29115SOL     OW96122   2.892  10.300   5.887 -0.1399 -0.0275 -0.0842
29115SOL    HW196123   2.913  10.232   5.951 -0.0836  1.4253  1.4999
29115SOL    HW296124   2.968  10.358   5.887 -0.4496  0.4078 -0.9303
29116SOL     OW96125   6.544   6.737   0.629 -0.1323 -0.1471 -0.0704
29116SOL    HW196126   6.563   6.803   0.696  0.1860 -0.3818  0.0727
29116SOL    HW296127   6.493   6.670   0.676 -0.9093  0.2471 -0.3392
29117SOL     OW96128   2.568   1.125   0.416  0.0010  0.3959  0.9305
29117SOL    HW196129   2.599   1.060   0.353 -0.2591  1.8359 -0.7553
29117SOL    HW296130   2.475   1.105   0.427 -0.0667  0.4421  0.4574
29118SOL     OW96131   8.435   0.747   0.935 -0.4287  0.1503 -0.7370
29118SOL    HW196132   8.390   0.829   0.955 -0.7195 -0.3578  0.8332
29118SOL    HW296133   8.375   0.700   0.878 -1.1746  0.1783  0.0046
29119SOL     OW96134   7.547  10.397  11.718 -0.8102  0.5370  0.2500
29119SOL    HW196135   7.527  10.303  11.723 -1.2933  0.6227 -0.0059
29119SOL    HW296136   7.642  10.400  11.710 -0.8737  0.0201 -0.8727
29120SOL     OW96137   4.488   4.244   2.423  0.2338 -0.0064 -0.6698
29120SOL    HW196138   4.414   4.295   2.457  1.1772  0.8084  0.2007
29120SOL    HW296139   4.466   4.229   2.331 -1.3773 -0.4437 -0.2465
29121SOL     OW96140   5.042   2.137   7.038 -0.7932 -0.0356 -0.0176
29121SOL    HW196141   5.027   2.231   7.030 -1.5552  0.0092  1.5615
29121SOL    HW296142   5.135   2.126   7.017 -0.8268  0.9791 -0.7595
29122SOL     OW96143   7.718   1.470   8.697 -0.3699  0.0613  0.2476
29122SOL    HW196144   7.721   1.557   8.738 -2.0379  0.8589 -1.1472
29122SOL    HW296145   7.778   1.477   8.622 -1.0500  0.2657 -0.2839
29123SOL     OW96146   3.660   2.042   9.325 -0.7560  0.1026 -0.0878
29123SOL    HW196147   3.690   2.039   9.416 -0.9780  0.8187  0.0177
29123SOL    HW296148   3.588   2.104   9.326 -0.0787  0.9361 -0.9421
29124SOL     OW96149   4.918   9.628  11.348  0.3500  0.2644 -0.7769
29124SOL    HW196150   4.905   9.682  11.270  0.6305 -0.3598 -1.2648
29124SOL    HW296151   5.007   9.649  11.377 -0.7075  2.6132  1.0567
29125SOL     OW96152   9.177   6.509  11.133 -0.1468  0.1791 -0.4258
29125SOL    HW196153   9.092   6.534  11.170  0.2958  1.9591 -0.5463
29125SOL    HW296154   9.238   6.575  11.166  1.4413 -1.6512  0.5196
29126SOL     OW96155   6.637   4.934   6.872 -0.5113 -0.1282  0.3537
29126SOL    HW196156   6.597   4.877   6.937 -0.0867 -0.7516  0.0740
29126SOL    HW296157   6.727   4.947   6.903 -0.5034  0.1075  0.2358
29127SOL     OW96158   2.878   6.542  11.142  0.2470  0.1521  0.2052
29127SOL    HW196159   2.899   6.476  11.076  0.1569 -0.5042  0.8125
29127SOL    HW296160   2.908   6.625  11.104 -0.4702 -0.1008 -0.9587
29128SOL     OW96161   4.202  10.720   3.291 -0.2794 -0.2722 -0.1305
29128SOL    HW196162   4.263  10.672   3.347 -0.8876  0.3562  1.1029
29128SOL    HW296163   4.209  10.676   3.206  1.3486 -0.6577  0.1606
29129SOL     OW96164  10.585   4.548  10.631  0.2430 -0.6055  0.0582
29129SOL    HW196165  10.522   4.541  10.559 -1.4867 -1.2108  1.5327
29129SOL    HW296166  10.666   4.511  10.596 -0.6456 -1.2271 -1.4564
29130SOL     OW96167   4.370  11.894  12.046  0.3118  0.2257  0.3200
29130SOL    HW196168   4.295  11.941  12.081  0.3971  1.5582 -1.1837
29130SOL    HW296169   4.437  11.962  12.033  0.6389 -0.3696 -1.3807
29131SOL     OW96170   4.527   4.147   7.621 -0.0722  0.0157  0.3800
29131SOL    HW196171   4.592   4.217   7.612  1.8364 -1.9175 -2.8026
29131SOL    HW296172   4.577   4.072   7.655 -1.3517 -0.6939  0.7793
29132SOL     OW96173   3.783   1.806   4.320 -0.8506  0.1472 -0.1236
29132SOL    HW196174   3.711   1.864   4.293  0.5719  1.8941 -0.3830
29132SOL    HW296175   3.786   1.739   4.252 -3.1786 -0.8889  0.7076
29133SOL     OW96176  10.580   1.973   7.484  0.5104  0.3882  0.5353
29133SOL    HW196177  10.672   1.951   7.467  0.4772  1.2852 -1.0462
29133SOL    HW296178  10.536   1.888   7.493  1.2747 -0.0753 -0.0228
29134SOL     OW96179   2.217   3.467   3.128  0.4052 -0.2128  0.1218
29134SOL    HW196180   2.171   3.424   3.055  0.7156  1.1931 -0.9430
29134SOL    HW296181   2.221   3.559   3.103  1.9557  0.0431  1.1738
29135SOL     OW96182   6.558   0.900   9.643 -0.1909 -0.3147 -0.4392
29135SOL    HW196183   6.630   0.938   9.593  0.3473 -1.1281 -0.3009
29135SOL    HW296184   6.569   0.806   9.632 -0.9330 -0.4579  0.0123
29136SOL     OW96185   2.823  12.043   4.766 -0.3311 -0.5131 -0.4141
29136SOL    HW196186   2.870  12.007   4.692 -1.0427 -1.3470 -0.4787
29136SOL    HW296187   2.857  11.996   4.842  0.1416  0.0871 -0.2448
29137SOL     OW96188   7.567   7.134  11.620 -0.3275  0.1580 -0.1126
29137SOL    HW196189   7.618   7.160  11.543 -0.5601 -0.5236 -0.5091
29137SOL    HW296190   7.523   7.215  11.648 -1.6737  0.0798 -1.7934
29138SOL     OW96191  12.037   5.524  10.409 -0.8803  0.1150 -0.5844
29138SOL    HW196192  12.041   5.610  10.365  0.8758 -0.1253 -0.9714
29138SOL    HW296193  12.084   5.538  10.491 -0.6624 -0.4476 -0.6137
29139SOL     OW96194   5.903   7.849   0.862 -0.1318 -0.4677  0.1207
29139SOL    HW196195   5.853   7.822   0.785  2.5414 -0.0206 -1.9283
29139SOL    HW296196   5.981   7.795   0.860  1.9229  2.2954  0.0697
29140SOL     OW96197   9.800   6.381  11.610 -0.0847 -0.1495  0.0864
29140SOL    HW196198   9.863   6.351  11.676  1.4110 -0.5376 -1.4244
29140SOL    HW296199   9.812   6.321  11.537 -1.5648  0.3716 -0.6266
29141SOL     OW96200   4.822   6.203   7.278  0.2211  0.1569 -0.4263
29141SOL    HW196201   4.831   6.116   7.239  0.8954 -0.1869  0.4691
29141SOL    HW296202   4.877   6.259   7.223  0.6532 -0.1937 -0.3549
29142SOL     OW96203   6.662   2.842  12.475 -0.3505  0.3770  0.2883
29142SOL    HW196204   6.744   2.862  12.521 -0.5185  2.1433 -0.1042
29142SOL    HW296205   6.642   2.922  12.426 -1.4120 -0.6325 -0.9948
29143SOL     OW96206   4.173   0.390   6.666  0.0353  0.0835  0.5394
29143SOL    HW196207   4.264   0.397   6.639  0.1381 -2.3969 -0.0155
29143SOL    HW296208   4.177   0.373   6.760  0.0019  1.9238  0.9095
29144SOL     OW96209   2.447   4.856   7.306  0.0351  0.1899  0.0217
29144SOL    HW196210   2.358   4.823   7.318  0.6325 -1.3441  0.5474
29144SOL    HW296211   2.496   4.817   7.378  0.7730  2.4962  0.8318
29145SOL     OW96212   6.204   1.953  10.178  0.4015  0.0966  0.4279
29145SOL    HW196213   6.269   1.890  10.147  0.0797 -1.9129  3.3590
29145SOL    HW296214   6.120   1.917  10.150  0.3239  0.5637  0.0426
29146SOL     OW96215   1.602   8.150   4.330 -0.3135 -0.0523  0.3134
29146SOL    HW196216   1.613   8.230   4.278 -2.3286  0.0651 -0.0060
29146SOL    HW296217   1.596   8.080   4.265  0.8795 -0.4157  0.5715
29147SOL     OW96218   3.616   3.675   9.721  0.3312  0.1868  0.0331
29147SOL    HW196219   3.612   3.733   9.797 -1.6462 -2.3048  2.0248
29147SOL    HW296220   3.709   3.670   9.699  1.0497  0.6657  2.6277
29148SOL     OW96221   4.557   4.472   1.529 -0.7105  0.2607 -1.0123
29148SOL    HW196222   4.650   4.483   1.551 -0.5469 -0.2454 -1.4249
29148SOL    HW296223   4.547   4.378   1.514 -1.0768  0.4396 -1.9180
29149SOL     OW96224  11.903   5.635  12.022  0.2281  0.4478  0.0974
29149SOL    HW196225  11.812   5.609  12.037 -0.1642  1.5890 -0.2178
29149SOL    HW296226  11.929   5.585  11.944 -0.6496  1.2634 -0.7520
29150SOL     OW96227   5.683   3.677   5.840  0.2981 -0.6330 -0.6444
29150SOL    HW196228   5.653   3.606   5.896  0.5358  0.4017  0.8474
29150SOL    HW296229   5.754   3.639   5.788  1.0936 -1.2415  0.8406
29151SOL     OW96230  11.618   5.321   6.427  0.3515  0.4539  0.3397
29151SOL    HW196231  11.693   5.266   6.406  0.5330  1.0078 -0.5048
29151SOL    HW296232  11.543   5.272   6.394  0.4827  0.5646 -0.1283
29152SOL     OW96233   3.025  10.313  12.586 -0.1829 -0.4941  0.5100
29152SOL    HW196234   2.986  10.275  12.507 -0.6385  0.5254  0.2230
29152SOL    HW296235   3.023  10.407  12.571  0.1537 -0.3038  1.5491
29153SOL     OW96236   0.999   6.796   8.995 -0.7598 -0.2904 -0.2430
29153SOL    HW196237   1.077   6.805   8.940  0.6525  0.2096  1.7342
29153SOL    HW296238   0.984   6.702   9.001  0.1397 -0.4294 -0.0586
29154SOL     OW96239   1.757   3.248   4.174 -0.2419  0.0432  0.3679
29154SOL    HW196240   1.672   3.221   4.210 -0.7397  1.4830  0.3488
29154SOL    HW296241   1.809   3.272   4.250  0.7395 -2.2781  0.5094
29155SOL     OW96242   5.374   4.432   1.211 -0.0150 -0.3255  0.5188
29155SOL    HW196243   5.436   4.362   1.189  1.0847  0.7581  0.0159
29155SOL    HW296244   5.354   4.473   1.127  1.1945  1.4126  1.0185
29156SOL     OW96245  12.292   7.302   0.517  0.0011 -0.1215  0.0924
29156SOL    HW196246  12.226   7.320   0.585 -0.3702  1.6970 -0.6648
29156SOL    HW296247  12.376   7.319   0.560  0.1599 -3.4686  1.3743
29157SOL     OW96248   3.930  10.291   8.410  0.4155  0.0633  0.0149
29157SOL    HW196249   4.012  10.316   8.367 -0.3107  0.8920 -0.9240
29157SOL    HW296250   3.895  10.221   8.355 -0.7002  1.3786 -1.0096
29158SOL     OW96251   1.293   0.042   9.851  0.3864 -0.0449  0.3615
29158SOL    HW196252   1.363  -0.024   9.852 -1.2710 -2.1178 -3.4215
29158SOL    HW296253   1.212  -0.009   9.858 -0.9472  1.5308 -2.3941
29159SOL     OW96254  12.607   7.983   9.423 -0.7785  0.4052 -0.7026
29159SOL    HW196255  12.592   7.907   9.479  2.4841 -0.0182 -0.2433
29159SOL    HW296256  12.606   7.947   9.334  0.0734 -0.0598 -0.5302
29160SOL     OW96257   8.911   6.090   1.584  0.5198 -0.3478  0.1692
29160SOL    HW196258   8.902   6.114   1.676  1.2771 -0.0582  0.1783
29160SOL    HW296259   8.880   5.999   1.580  1.6827 -0.8022  0.9649
29161SOL     OW96260   8.731   0.484   9.331  0.1648  0.5457 -0.2358
29161SOL    HW196261   8.702   0.575   9.326 -0.7549  0.2116 -1.5421
29161SOL    HW296262   8.774   0.477   9.417 -2.2584  1.4840  1.1682
29162SOL     OW96263  10.719   8.041   7.425 -0.1826  0.0262  0.6063
29162SOL    HW196264  10.804   8.075   7.452 -0.6212  0.3544  1.6007
29162SOL    HW296265  10.671   8.028   7.506 -1.3975  0.6681  0.0122
29163SOL     OW96266   6.665  11.973   4.706 -0.0513  0.1291  0.2414
29163SOL    HW196267   6.701  11.984   4.794  0.5574  0.0193  0.0081
29163SOL    HW296268   6.653  11.879   4.697  1.1000  0.0125 -0.2600
29164SOL     OW96269  11.278   6.836   9.434 -0.3244 -0.1031 -0.4769
29164SOL    HW196270  11.187   6.807   9.435  0.1655 -1.7512  1.3893
29164SOL    HW296271  11.311   6.818   9.522  1.4519  1.7164 -0.6810
29165SOL     OW96272   3.909   0.417   6.762  0.3445  0.1259  0.7312
29165SOL    HW196273   3.984   0.403   6.704 -1.3828 -2.5032 -1.0852
29165SOL    HW296274   3.886   0.509   6.748  1.8709  0.3962 -0.3426
29166SOL     OW96275   0.276  11.250   8.067  0.0093  0.6783 -0.0871
29166SOL    HW196276   0.230  11.175   8.105  0.1896  0.5711 -0.0802
29166SOL    HW296277   0.267  11.320   8.133 -0.8416  0.9112 -0.4407
29167SOL     OW96278   2.645   5.266   5.347  0.3873 -0.1001  0.1158
29167SOL    HW196279   2.659   5.231   5.259  0.1561  1.2035 -0.4557
29167SOL    HW296280   2.729   5.306   5.370 -0.0266  0.9577 -0.1747
29168SOL     OW96281   9.558   0.886  12.602  0.1138 -0.3500 -0.1864
29168SOL    HW196282   9.531   0.881  12.694 -2.6706 -0.2349 -0.9005
29168SOL    HW296283   9.610   0.966  12.598 -0.6927  0.2905  1.1041
29169SOL     OW96284   4.898  11.868   9.374 -0.3322 -0.0746 -0.5022
29169SOL    HW196285   4.916  11.778   9.404  2.9979  0.6655  0.1698
29169SOL    HW296286   4.876  11.858   9.281  1.9924 -1.5314 -0.9869
29170SOL     OW96287   3.661   6.056  11.847 -0.3853 -0.3327 -0.2091
29170SOL    HW196288   3.683   6.034  11.937 -0.0923 -1.1797 -0.4759
29170SOL    HW296289   3.621   5.976  11.813  0.4937 -0.3879 -1.1498
29171SOL     OW96290   4.588   2.288  10.512  0.1938 -0.2720  0.1681
29171SOL    HW196291   4.554   2.284  10.423  0.4414  0.9196  0.0035
29171SOL    HW296292   4.683   2.299  10.501  0.0693  1.6158  0.4989
29172SOL     OW96293   8.240   5.047   1.433  0.0381 -0.6442 -0.1843
29172SOL    HW196294   8.228   5.126   1.380 -0.9315 -0.2485  0.5960
29172SOL    HW296295   8.327   5.059   1.472  0.1382 -0.2408 -0.5130
29173SOL     OW96296   0.265   8.407  12.449 -0.3947  0.4741 -0.2424
29173SOL    HW196297   0.319   8.370  12.379  1.0699  0.6421  0.7503
29173SOL    HW296298   0.298   8.496  12.460 -1.3965  0.8468 -0.0919
29174SOL     OW96299   0.742  11.907   5.591  0.1667 -0.5418 -0.3089
29174SOL    HW196300   0.736  11.831   5.534  1.4250 -1.5592  0.8525
29174SOL    HW296301   0.820  11.891   5.644 -0.5999  0.6674  1.2509
29175SOL     OW96302   8.965   5.296   3.262 -0.6546  0.2221  0.1431
29175SOL    HW196303   8.954   5.288   3.167  0.8289  0.6406 -0.0923
29175SOL    HW296304   9.047   5.249   3.280 -0.7622  0.4059  1.1728
29176SOL     OW96305   3.475  11.398   6.519  0.1654 -0.6330 -0.0648
29176SOL    HW196306   3.532  11.470   6.545 -0.8970  0.5579 -0.9486
29176SOL    HW296307   3.389  11.420   6.554 -0.0870 -1.7016  0.0433
29177SOL     OW96308   4.769   1.000   3.756  0.3076  0.0702 -0.0805
29177SOL    HW196309   4.850   0.959   3.723  1.2370  1.8584 -0.1183
29177SOL    HW296310   4.797   1.047   3.835 -0.5637  1.2263 -0.4423
29178SOL     OW96311   0.335   0.269   3.993 -0.2050 -0.0108  0.1847
29178SOL    HW196312   0.260   0.211   3.983 -0.4715 -0.4417  3.3826
29178SOL    HW296313   0.302   0.356   3.971 -0.8604 -0.5478 -1.0110
29179SOL     OW96314   1.882   9.600  12.404  0.1283 -0.3422 -0.0335
29179SOL    HW196315   1.936   9.537  12.453 -0.2981 -0.9974 -0.4044
29179SOL    HW296316   1.826   9.639  12.471 -1.1073 -1.9052 -0.1031
29180SOL     OW96317   3.515   3.985   1.284 -0.0765 -0.4674  0.1930
29180SOL    HW196318   3.518   3.896   1.321  0.7702 -0.5584 -0.0609
29180SOL    HW296319   3.452   3.979   1.212 -0.7661 -0.6083  0.7992
29181SOL     OW96320   0.351  10.406   1.587 -0.2641 -0.5421 -0.0213
29181SOL    HW196321   0.373  10.499   1.577 -1.4588 -0.0077  1.7076
29181SOL    HW296322   0.435  10.363   1.603  0.1824  0.4492  0.3920
29182SOL     OW96323  10.507   6.421   3.160 -0.5915 -0.5483  0.3397
29182SOL    HW196324  10.592   6.379   3.160 -0.2323  0.0980 -1.3745
29182SOL    HW296325  10.445   6.352   3.135 -0.4615 -0.8343  0.8113
29183SOL     OW96326   6.625   8.754   1.662 -0.3225  0.3746  0.3484
29183SOL    HW196327   6.683   8.734   1.736 -1.2643  1.4888  1.4253
29183SOL    HW296328   6.608   8.669   1.622 -1.4451 -0.5758  2.6665
29184SOL     OW96329   3.594   3.296   0.459 -0.4080 -0.8776  0.2625
29184SOL    HW196330   3.579   3.359   0.530 -0.1679 -1.0140  0.4367
29184SOL    HW296331   3.684   3.312   0.432 -0.7770 -0.2195 -0.6241
29185SOL     OW96332   2.360   5.416   1.634 -0.0784  0.3368  0.2774
29185SOL    HW196333   2.352   5.511   1.623  1.2092  0.5457  0.9655
29185SOL    HW296334   2.355   5.381   1.545  0.9191  1.1975 -0.1396
29186SOL     OW96335   2.302   5.139  12.470 -0.4451 -0.4557  0.9365
29186SOL    HW196336   2.218   5.145  12.423 -0.5467 -1.6089  0.9534
29186SOL    HW296337   2.301   5.216  12.528 -0.6190  0.6155 -0.4248
29187SOL     OW96338  10.081   6.657   5.794 -0.0971 -0.0943  0.1258
29187SOL    HW196339  10.036   6.573   5.785 -0.6262  0.3780 -1.9049
29187SOL    HW296340  10.036   6.700   5.868 -1.2181 -0.7237 -0.1625
29188SOL     OW96341   2.761   6.096   5.954  0.0855 -0.1048 -0.0634
29188SOL    HW196342   2.718   6.168   6.000 -0.0790 -1.2097  1.5787
29188SOL    HW296343   2.855   6.114   5.964  0.0716 -0.7402  1.4434
29189SOL     OW96344  11.466   0.239   1.799 -0.0767  0.3995  0.2279
29189SOL    HW196345  11.414   0.296   1.855 -0.2893 -0.9259  1.4349
29189SOL    HW296346  11.544   0.291   1.778 -0.5746  1.3750  0.7250
29190SOL     OW96347   1.517   2.093   3.430 -0.0271  0.0214  0.6110
29190SOL    HW196348   1.425   2.070   3.442  0.7033 -2.3903  2.2110
29190SOL    HW296349   1.546   2.038   3.357  0.7007 -1.1386  1.7277
29191SOL     OW96350  11.354   4.515  11.356 -0.2961  0.0461 -0.0828
29191SOL    HW196351  11.377   4.456  11.428  0.3801  0.4217  0.0189
29191SOL    HW296352  11.424   4.503  11.292 -0.1058  0.7862 -0.0223
29192SOL     OW96353   0.079  10.759   7.179 -0.0743  0.2829 -0.1848
29192SOL    HW196354   0.117  10.673   7.193 -1.9033 -0.3217  1.4848
29192SOL    HW296355   0.109  10.812   7.253  0.4192  0.8887 -0.7970
29193SOL     OW96356   5.469  10.045   0.230 -0.9738  0.2466  0.6348
29193SOL    HW196357   5.469   9.973   0.167  1.0924  1.2852 -0.6791
29193SOL    HW296358   5.456  10.124   0.177  4.9973  1.6492  0.5129
29194SOL     OW96359  11.050   7.637   6.648  0.0557  0.0936 -0.3545
29194SOL    HW196360  10.985   7.678   6.590 -0.1573 -0.4587 -0.5118
29194SOL    HW296361  11.076   7.707   6.708  0.2509  0.6718 -1.0898
29195SOL     OW96362   3.941   5.899   4.913 -0.1839 -0.3334  0.1279
29195SOL    HW196363   4.027   5.865   4.889 -0.3630  0.2416 -1.5005
29195SOL    HW296364   3.887   5.821   4.926  0.2213 -0.6909 -0.3088
29196SOL     OW96365   9.613   2.249  11.277  0.6390 -0.4382 -0.3073
29196SOL    HW196366   9.693   2.219  11.234  0.0097 -0.2829 -1.6324
29196SOL    HW296367   9.631   2.240  11.371  1.1394 -3.2310 -0.5828
29197SOL     OW96368   5.428   8.667   7.857  0.0027 -0.0557 -0.3550
29197SOL    HW196369   5.417   8.629   7.945 -2.0246 -0.3527 -0.6876
29197SOL    HW296370   5.366   8.739   7.854  0.6032  0.4412 -1.3024
29198SOL     OW96371   0.344   5.830  12.407 -0.2661  0.0506 -0.4924
29198SOL    HW196372   0.359   5.912  12.360  5.0770  0.1261  0.7694
29198SOL    HW296373   0.353   5.854  12.499 -0.4789 -1.6893  0.0069
29199SOL     OW96374   5.069   3.751   7.541  0.3552  0.6355 -0.3168
29199SOL    HW196375   5.072   3.840   7.506 -1.1459  1.5393  1.6238
29199SOL    HW296376   5.102   3.759   7.630  0.0170 -0.7255 -0.0414
29200SOL     OW96377   3.108   2.852   3.139  0.2460 -0.2696 -0.4456
29200SOL    HW196378   3.120   2.864   3.045  0.4267  0.4036 -0.3408
29200SOL    HW296379   3.178   2.905   3.179 -0.1195 -0.1732  0.0759
29201SOL     OW96380   1.188   8.455   9.313  0.0489 -0.0095  0.0418
29201SOL    HW196381   1.212   8.490   9.399  1.2046  0.7425 -0.5614
29201SOL    HW296382   1.211   8.363   9.318 -1.4748 -0.3779  1.0902
29202SOL     OW96383  11.318   1.429   2.475 -0.3377 -1.1271  0.6009
29202SOL    HW196384  11.409   1.402   2.488  0.7502  1.0017 -1.7529
29202SOL    HW296385  11.312   1.451   2.383 -2.7418  0.6203  1.0769
29203SOL     OW96386   1.679   3.809   4.505  0.2493  0.2912  0.7513
29203SOL    HW196387   1.609   3.874   4.510  0.6176  0.6904  0.7400
29203SOL    HW296388   1.743   3.837   4.570  0.9491  0.5942 -0.0514
29204SOL     OW96389   4.172   3.104  10.583  0.5489 -0.7771  0.0785
29204SOL    HW196390   4.124   3.186  10.572 -1.6903 -1.8017  1.4372
29204SOL    HW296391   4.260   3.130  10.609 -0.3628  1.2052  1.3694
29205SOL     OW96392   7.419   4.536  11.775 -1.0759  0.9289 -0.2532
29205SOL    HW196393   7.376   4.591  11.710 -1.2666  0.4582 -0.5302
29205SOL    HW296394   7.376   4.558  11.858 -1.4001  0.9332 -0.4211
29206SOL     OW96395   4.151  10.596   0.764  0.5216 -0.6433 -0.3874
29206SOL    HW196396   4.174  10.513   0.806  1.8471 -0.5956 -0.9724
29206SOL    HW296397   4.224  10.614   0.705 -0.1581  0.5136 -0.9099
29207SOL     OW96398   5.932   2.428   4.883  0.8390 -0.1236  0.7352
29207SOL    HW196399   5.856   2.401   4.935  1.2237  0.4820  1.6416
29207SOL    HW296400   5.958   2.349   4.836 -0.4597 -0.2940  0.2579
29208SOL     OW96401  12.082  10.405  10.152 -0.2090  0.5106  0.9070
29208SOL    HW196402  12.103  10.338  10.217  1.7307  0.5022  0.3346
29208SOL    HW296403  12.105  10.365  10.068  0.4179  1.6624  0.5030
29209SOL     OW96404   7.979   2.884   9.600  0.2373  0.1040  0.5419
29209SOL    HW196405   8.003   2.955   9.540  1.2883 -0.2898  0.4761
29209SOL    HW296406   7.926   2.825   9.547  0.9488 -0.1120  0.0597
29210SOL     OW96407   1.048  10.870   7.982 -0.3871 -0.4584 -0.3163
29210SOL    HW196408   1.011  10.886   7.895 -0.3520 -1.5391 -0.5468
29210SOL    HW296409   0.974  10.875   8.042 -0.4171  0.2538 -0.4007
29211SOL     OW96410  11.018   6.645   8.370 -0.1388 -0.3713  0.0341
29211SOL    HW196411  11.102   6.673   8.408 -0.1600 -1.2912  0.8167
29211SOL    HW296412  10.990   6.573   8.427 -0.3647 -1.5600 -1.5287
29212SOL     OW96413   6.406   6.692   0.371 -0.4440  0.3529  0.0587
29212SOL    HW196414   6.468   6.750   0.417 -0.2774  1.0238 -0.9834
29212SOL    HW296415   6.330   6.747   0.355  0.1094  0.6431 -1.8618
29213SOL     OW96416   1.302  12.524   5.411  0.3609 -0.3063  0.4012
29213SOL    HW196417   1.305  12.456   5.478 -0.7809 -0.1247  0.6597
29213SOL    HW296418   1.214  12.518   5.375  0.6914  0.1586 -0.5011
29214SOL     OW96419   6.475  11.859  11.357  0.4347  0.3609  0.3014
29214SOL    HW196420   6.529  11.847  11.279 -0.5454  1.3604 -0.5646
29214SOL    HW296421   6.483  11.952  11.378 -1.2159  0.6298 -0.0862
29215SOL     OW96422   3.912   5.766  10.443 -0.0765  0.1342 -0.1466
29215SOL    HW196423   3.946   5.853  10.466  2.4289 -0.8201  0.0662
29215SOL    HW296424   3.925   5.760  10.348  2.7422 -1.0666  0.2014
29216SOL     OW96425   1.887   3.484   9.187  0.1140  0.0652 -0.2712
29216SOL    HW196426   1.916   3.570   9.215  0.8686  0.2957 -1.6444
29216SOL    HW296427   1.922   3.475   9.098 -2.1842 -0.5797 -1.1801
29217SOL     OW96428   2.951   9.608  10.609  0.2276  0.0714 -0.0988
29217SOL    HW196429   2.965   9.698  10.638  0.5932 -0.3265  0.9967
29217SOL    HW296430   2.860   9.605  10.580  0.0505  0.6423  0.4033
29218SOL     OW96431  11.871   5.579   1.170  0.1057  0.0469 -0.3375
29218SOL    HW196432  11.911   5.493   1.157 -0.3569 -0.1577 -0.4078
29218SOL    HW296433  11.790   5.576   1.119 -0.2097  0.3129  0.1419
29219SOL     OW96434  11.727   9.804   4.816  0.4031 -0.4266 -0.2245
29219SOL    HW196435  11.793   9.736   4.822  0.1888 -0.7308 -1.2013
29219SOL    HW296436  11.760   9.863   4.748 -0.3691 -0.6260 -0.7738
29220SOL     OW96437  11.715   0.482   9.461 -0.1386  0.1931  0.6310
29220SOL    HW196438  11.772   0.450   9.531  1.0536 -0.0697 -0.4072
29220SOL    HW296439  11.676   0.562   9.496 -1.6017 -1.2660  2.5329
29221SOL     OW96440   4.260   9.492   5.470  0.1117 -0.0050  0.0818
29221SOL    HW196441   4.177   9.463   5.507  0.0467  0.2107  0.0998
29221SOL    HW296442   4.273   9.434   5.394  0.1603 -0.3297  0.3321
29222SOL     OW96443  11.655   7.066   3.688  0.4192 -0.6934  0.1095
29222SOL    HW196444  11.673   6.989   3.634  0.8955  0.5707 -1.6313
29222SOL    HW296445  11.739   7.111   3.694 -0.4183  1.2355 -1.4939
29223SOL     OW96446  12.606  10.842   5.384 -0.1103 -0.0398  0.0760
29223SOL    HW196447  12.653  10.905   5.329 -1.1006  0.7516  0.0911
29223SOL    HW296448  12.531  10.892   5.418  0.9467 -0.1742  2.9363
29224SOL     OW96449   2.208   4.843   1.860  0.4645  0.1176 -0.0172
29224SOL    HW196450   2.131   4.827   1.914  0.3583 -0.9450 -0.4648
29224SOL    HW296451   2.174   4.856   1.772  0.8157 -0.6699 -0.2714
29225SOL     OW96452   9.930   8.912  10.804 -0.0304 -0.2584  0.1332
29225SOL    HW196453   9.888   8.862  10.735 -0.0920 -1.7934  1.2444
29225SOL    HW296454  10.001   8.959  10.760  0.9981 -2.5098 -0.7229
29226SOL     OW96455   6.529   8.784   8.838  0.3893 -0.5216 -0.3051
29226SOL    HW196456   6.525   8.858   8.898  0.6535  0.7294 -1.7970
29226SOL    HW296457   6.440   8.749   8.838  0.1176  0.1580 -0.0632
29227SOL     OW96458  11.373   4.575   9.907  0.0287 -0.4881  0.0284
29227SOL    HW196459  11.296   4.616   9.866  0.1252  0.5331  0.8220
29227SOL    HW296460  11.388   4.626   9.986  2.1974  0.0768 -0.6684
29228SOL     OW96461   6.903   0.072   6.283  0.1407 -0.3319 -0.5987
29228SOL    HW196462   6.962   0.064   6.209  0.6477  0.0842 -0.2426
29228SOL    HW296463   6.957   0.055   6.360 -0.6127 -1.8448 -0.3729
29229SOL     OW96464   0.700   5.402   3.767 -0.1128 -0.1428 -0.5809
29229SOL    HW196465   0.710   5.330   3.829  2.8474  1.3433  0.9047
29229SOL    HW296466   0.779   5.455   3.779 -2.0143  3.2872 -1.6537
29230SOL     OW96467  11.544  10.836   2.320 -0.1392  0.3712 -0.0223
29230SOL    HW196468  11.611  10.890   2.363  0.3546 -0.0015 -0.3113
29230SOL    HW296469  11.486  10.810   2.391  0.0252  0.6974  0.2370
29231SOL     OW96470   8.838   1.756  10.591  0.8380  0.3262  0.6177
29231SOL    HW196471   8.860   1.849  10.598 -1.9837  1.1365  0.0359
29231SOL    HW296472   8.869   1.717  10.673  3.4615  1.3928  0.2267
29232SOL     OW96473   1.690   4.386   1.435  0.2090  0.5075 -0.0616
29232SOL    HW196474   1.751   4.459   1.431 -0.9044  1.6761  2.2316
29232SOL    HW296475   1.619   4.410   1.376 -0.6626  1.8636  1.4674
29233SOL     OW96476   8.846  10.279  11.423 -0.5542 -0.0210 -0.5667
29233SOL    HW196477   8.914  10.271  11.490 -1.3073  0.0225  0.2207
29233SOL    HW296478   8.826  10.373  11.422 -0.7353 -0.0612 -0.6608
29234SOL     OW96479   5.335   1.231   0.138  0.4878  0.3232 -1.0759
29234SOL    HW196480   5.244   1.246   0.166 -0.0958 -1.9044 -1.5903
29234SOL    HW296481   5.364   1.316   0.105 -0.8647  1.4843  0.5455
29235SOL     OW96482   1.132   7.410   2.102 -0.1189 -0.5044  0.4782
29235SOL    HW196483   1.199   7.398   2.035 -1.8709  0.1185 -1.4823
29235SOL    HW296484   1.181   7.413   2.185  2.2000 -0.4485 -0.8191
29236SOL     OW96485   1.004   0.060  12.259 -0.3539 -0.3130 -0.2634
29236SOL    HW196486   1.041   0.042  12.172 -0.8719 -0.9640 -0.3611
29236SOL    HW296487   1.013  -0.023  12.306 -1.7296 -0.5086 -0.3121
29237SOL     OW96488   7.565   8.352   0.411  0.4764  0.1432 -0.4292
29237SOL    HW196489   7.517   8.435   0.400 -2.2557 -1.3946 -1.0893
29237SOL    HW296490   7.539   8.321   0.497  1.0772 -0.2908 -0.3983
29238SOL     OW96491   2.778   7.211   9.187  0.1452  0.0180  0.5206
29238SOL    HW196492   2.772   7.244   9.097  1.0982  0.9497  0.7736
29238SOL    HW296493   2.703   7.152   9.196 -2.9197  3.5756  0.6620
29239SOL     OW96494  10.861  11.694  12.442  0.1545  0.2666 -0.2809
29239SOL    HW196495  10.942  11.743  12.444  1.3364 -1.4351 -2.2279
29239SOL    HW296496  10.887  11.604  12.420 -2.2834 -0.1360 -2.0378
29240SOL     OW96497   4.210   3.626  12.590 -0.4832  0.3182  0.2870
29240SOL    HW196498   4.221   3.565  12.518  0.4629  0.3953  0.3478
29240SOL    HW296499   4.238   3.578  12.667 -1.5340  0.2202  0.6235
29241SOL     OW96500   1.235  12.513   0.498 -0.7038  0.3901 -0.1574
29241SOL    HW196501   1.283  12.592   0.473  2.8506 -1.9054 -1.4525
29241SOL    HW296502   1.200  12.480   0.415 -1.3646  0.1372  0.2198
29242SOL     OW96503   3.948   7.250   8.018 -0.2356  0.3588  0.8019
29242SOL    HW196504   4.017   7.223   8.079 -0.6687  2.1710  2.1959
29242SOL    HW296505   3.885   7.178   8.020  0.3265 -0.1319  1.5966
29243SOL     OW96506  11.572   2.303   9.960  0.2408  0.0243 -0.0817
29243SOL    HW196507  11.637   2.366   9.993 -0.4545  0.9066 -0.3696
29243SOL    HW296508  11.601   2.219   9.996  0.7514  0.6187  0.9685
29244SOL     OW96509   2.496   8.182  12.352 -0.1998  1.3324 -0.2355
29244SOL    HW196510   2.567   8.134  12.310  0.4034 -1.0385  3.1176
29244SOL    HW296511   2.434   8.115  12.380 -2.3281  3.0874 -0.4016
29245SOL     OW96512   8.959  12.405  10.859  0.2593 -0.5230  0.0451
29245SOL    HW196513   8.891  12.443  10.804 -1.2073 -1.0121  1.4193
29245SOL    HW296514   8.983  12.323  10.816 -1.9164 -1.6317  0.7738
29246SOL     OW96515   9.280  10.343   2.900  0.1451 -0.1011 -0.6031
29246SOL    HW196516   9.326  10.349   2.817 -0.1175 -0.1681 -0.7527
29246SOL    HW296517   9.202  10.398   2.889 -0.1600 -0.5267 -0.5810
29247SOL     OW96518   2.126   7.645  11.134  0.6142 -0.2120 -0.6131
29247SOL    HW196519   2.094   7.623  11.047 -1.4716  2.6377 -0.7136
29247SOL    HW296520   2.051   7.632  11.191  0.7608  1.6067  0.0691
29248SOL     OW96521  10.797  10.537  10.212  0.4789 -0.1100  0.8426
29248SOL    HW196522  10.877  10.589  10.226  0.3672  0.6871 -1.0872
29248SOL    HW296523  10.749  10.585  10.145 -1.2726 -0.9931  1.4075
29249SOL     OW96524   8.117   7.577   0.531 -0.1865 -0.0998  0.1426
29249SOL    HW196525   8.049   7.545   0.590 -0.0938  0.6594  0.6720
29249SOL    HW296526   8.188   7.513   0.539 -0.4937 -0.4260  0.2488
29250SOL     OW96527   0.135   4.924   2.481  0.2809  0.1052  0.2377
29250SOL    HW196528   0.101   4.837   2.500  2.6878 -1.1332 -0.7830
29250SOL    HW296529   0.229   4.917   2.494  0.5250  2.6786  0.4582
29251SOL     OW96530   1.272   2.684  11.523  0.1194 -0.0150  0.0637
29251SOL    HW196531   1.317   2.704  11.442  0.4828 -0.0342  0.2566
29251SOL    HW296532   1.179   2.684  11.500  0.2406 -0.5011 -0.4598
29252SOL     OW96533   6.880   4.256   7.061  0.0654  0.9107  0.2665
29252SOL    HW196534   6.923   4.327   7.109  0.1635  0.8166  0.3203
29252SOL    HW296535   6.924   4.255   6.976  1.0437  0.0147  0.7502
29253SOL     OW96536   1.529   7.813   5.642 -0.5331  0.5767 -0.7865
29253SOL    HW196537   1.463   7.870   5.681 -0.5433 -1.0313  1.8353
29253SOL    HW296538   1.503   7.804   5.550 -2.2130  2.3498 -0.5295
29254SOL     OW96539   3.664   7.411   0.264 -0.5117 -0.2270  0.2236
29254SOL    HW196540   3.758   7.408   0.243 -0.8737  1.0355 -1.9336
29254SOL    HW296541   3.653   7.493   0.312 -0.7597  0.7093 -1.3502
29255SOL     OW96542   5.839   4.263   8.907  0.0478 -0.2334 -0.0338
29255SOL    HW196543   5.916   4.258   8.850  0.0453  1.6390 -0.2453
29255SOL    HW296544   5.767   4.280   8.846 -0.1872  0.2687  0.3854
29256SOL     OW96545   2.597   2.343   3.414  0.1680 -0.0111  0.7137
29256SOL    HW196546   2.562   2.376   3.331  0.5989  0.6565  0.7898
29256SOL    HW296547   2.684   2.383   3.421  0.0545  0.0981  1.5806
29257SOL     OW96548  12.082   3.863   3.837  0.4837 -0.0452 -0.1826
29257SOL    HW196549  12.028   3.842   3.761 -0.5327  2.3473 -0.1945
29257SOL    HW296550  12.080   3.783   3.890  1.1090 -1.7215 -2.5381
29258SOL     OW96551   6.603   0.085   1.905  0.3553  0.3925 -0.2081
29258SOL    HW196552   6.612   0.087   1.810  0.6268  2.1130 -0.1824
29258SOL    HW296553   6.509   0.088   1.921  0.2269 -1.5163 -0.3998
29259SOL     OW96554   3.040   8.522  12.436  0.1248 -0.2085  0.3084
29259SOL    HW196555   3.097   8.594  12.460  1.3538 -0.9828 -0.1552
29259SOL    HW296556   3.093   8.469  12.376 -1.8192  0.1903 -1.9184
29260SOL     OW96557   9.148   7.540   4.378  0.3546  0.2542  0.4246
29260SOL    HW196558   9.151   7.591   4.459 -1.2850 -0.7228  1.1581
29260SOL    HW296559   9.064   7.562   4.339  0.3839 -0.5683 -0.1233
29261SOL     OW96560   7.209   5.074   7.940  0.4072  0.5343  0.1130
29261SOL    HW196561   7.211   5.161   7.901 -1.1801 -0.0982 -1.5334
29261SOL    HW296562   7.283   5.028   7.900 -1.5789 -0.3176 -2.9185
29262SOL     OW96563   6.173  12.571   0.609 -0.1643  0.3572 -0.4790
29262SOL    HW196564   6.164  12.505   0.678  0.1981  0.2063 -0.5743
29262SOL    HW296565   6.255  12.549   0.565  0.1807  1.1226 -0.2387
29263SOL     OW96566  10.186  10.752  11.128 -0.0916 -0.0068 -0.2605
29263SOL    HW196567  10.132  10.677  11.102  1.2290 -0.6418 -1.3120
29263SOL    HW296568  10.190  10.807  11.049  0.1452  0.4446  0.0584
29264SOL     OW96569  10.320  10.367  12.074 -0.2955  0.4338  0.1656
29264SOL    HW196570  10.372  10.337  11.999  0.4955 -0.9661  1.2452
29264SOL    HW296571  10.234  10.388  12.036  0.4321  0.9441 -1.3228
29265SOL     OW96572   3.864   7.370  11.983  0.3663  0.1622  0.6877
29265SOL    HW196573   3.845   7.288  12.030  0.3380  1.3006  2.7868
29265SOL    HW296574   3.899   7.428  12.050  1.8897  1.3824 -1.0857
29266SOL     OW96575   6.679   5.027   7.477  0.2860  0.6199 -0.2272
29266SOL    HW196576   6.725   4.947   7.451  0.1651  0.0822  1.1293
29266SOL    HW296577   6.676   5.023   7.573 -0.7688  1.6693 -0.1921
29267SOL     OW96578   5.319   4.478   0.334  0.6230  0.0391 -0.1872
29267SOL    HW196579   5.365   4.416   0.390 -2.0594 -1.5580  0.3736
29267SOL    HW296580   5.293   4.427   0.257 -0.1758  0.9132 -0.5165
29268SOL     OW96581  11.207  10.680   4.670 -0.6317 -0.2287 -0.1166
29268SOL    HW196582  11.160  10.688   4.587 -0.7489  0.2404 -0.0055
29268SOL    HW296583  11.145  10.708   4.737 -1.0129 -1.9176  0.2862
29269SOL     OW96584  10.890   7.986   2.562 -0.3271 -0.0636  0.0475
29269SOL    HW196585  10.882   7.904   2.612 -0.7482 -1.4500 -2.1548
29269SOL    HW296586  10.860   8.054   2.623  1.3300 -1.3063  2.4223
29270SOL     OW96587   4.215   2.417  10.530  0.2865 -0.4453  0.1277
29270SOL    HW196588   4.215   2.338  10.585 -1.3088  0.2620  1.2421
29270SOL    HW296589   4.245   2.487  10.589  1.2301 -0.1194 -0.7162
29271SOL     OW96590  11.466  10.506   9.072 -0.5793 -0.2293 -0.2786
29271SOL    HW196591  11.502  10.550   8.995  0.3322  0.1353  0.3359
29271SOL    HW296592  11.490  10.563   9.145  2.5649 -2.7338  0.8442
29272SOL     OW96593   1.364   3.996   4.860  0.2578  0.5190  0.6171
29272SOL    HW196594   1.348   4.091   4.857 -0.4648  0.3816 -0.3136
29272SOL    HW296595   1.276   3.958   4.868  0.5450 -0.0790  0.9822
29273SOL     OW96596   8.973  12.325   0.211  0.1204 -0.7519  0.4311
29273SOL    HW196597   9.000  12.277   0.290 -0.6748  0.3162  1.3934
29273SOL    HW296598   8.965  12.416   0.240  2.2183  0.1326 -1.5129
29274SOL     OW96599   3.253  12.127   2.838 -0.0139 -0.2215 -0.7285
29274SOL    HW196600   3.332  12.155   2.792  0.8510 -2.2546 -0.5875
29274SOL    HW296601   3.270  12.147   2.930  0.0517 -0.0319 -0.7827
29275SOL     OW96602  10.418   8.344   8.535  0.1656 -0.4581  0.5132
29275SOL    HW196603  10.333   8.308   8.563 -1.3084  2.2275 -0.2234
29275SOL    HW296604  10.411   8.438   8.551  2.3745  0.0817 -1.2197
29276SOL     OW96605   8.640   6.925  10.079  0.7458 -0.6976 -0.4237
29276SOL    HW196606   8.586   6.854  10.043  0.8934 -1.5353  0.9372
29276SOL    HW296607   8.585   7.003  10.073 -0.2354 -1.3382 -0.0151
29277SOL     OW96608  11.844   1.147   1.010 -0.4915 -0.2857 -0.3043
29277SOL    HW196609  11.893   1.101   0.942 -2.1756 -0.7720 -1.2452
29277SOL    HW296610  11.897   1.138   1.089  0.5478 -1.4422 -1.1041
29278SOL     OW96611   2.449   0.081   5.208  0.2790  0.5315  0.0216
29278SOL    HW196612   2.525   0.028   5.232  0.1663  1.0212  1.6077
29278SOL    HW296613   2.412   0.037   5.132  1.8960  0.0529 -0.5249
29279SOL     OW96614   5.854   4.412   7.412  0.8124  0.6854 -0.1288
29279SOL    HW196615   5.759   4.419   7.410  0.6688 -0.5321  1.0542
29279SOL    HW296616   5.871   4.323   7.442  2.3384  0.6316 -1.0448
29280SOL     OW96617   0.641   0.713   1.049 -0.0619  0.5483  0.1684
29280SOL    HW196618   0.569   0.684   1.106  1.9197  0.0896  2.6114
29280SOL    HW296619   0.640   0.650   0.977 -2.4038  0.8741 -0.1855
29281SOL     OW96620   2.463   6.620  10.547  0.5001  0.1909 -0.6997
29281SOL    HW196621   2.462   6.714  10.526  1.6809 -0.0905 -2.1940
29281SOL    HW296622   2.532   6.611  10.613  2.1192  0.0879 -2.3371
29282SOL     OW96623   8.192   8.182   3.351 -0.4930  0.0790  0.4967
29282SOL    HW196624   8.180   8.097   3.394  1.3919  0.0330  1.0036
29282SOL    HW296625   8.200   8.162   3.258 -1.1426 -0.1687  0.4875
29283SOL     OW96626   0.651  10.383  11.034 -0.5723 -0.5806 -0.8257
29283SOL    HW196627   0.620  10.327  10.963  1.5914  1.4778 -3.6410
29283SOL    HW296628   0.739  10.349  11.054 -0.7816 -0.5406  0.1993
29284SOL     OW96629   7.198  11.258   1.834 -0.2884 -0.1185  0.0052
29284SOL    HW196630   7.145  11.337   1.841  0.7393  0.6551 -0.6396
29284SOL    HW296631   7.170  11.204   1.908 -1.7921  0.3505 -0.1750
29285SOL     OW96632  12.232   5.610   9.708 -0.3510  0.1607 -0.0826
29285SOL    HW196633  12.324   5.586   9.718 -0.8740 -1.5255  1.0085
29285SOL    HW296634  12.213   5.666   9.783 -0.8307 -1.5783  1.1480
29286SOL     OW96635   8.978   4.986   2.537  0.2288 -0.1540  0.3806
29286SOL    HW196636   8.919   4.911   2.531 -0.4925  0.3857  0.6508
29286SOL    HW296637   8.939   5.052   2.480 -0.7621  1.0709  2.3500
29287SOL     OW96638  10.750  12.032   1.882 -0.1643 -0.2262 -0.5110
29287SOL    HW196639  10.833  12.067   1.914 -0.6740  0.4486  0.0915
29287SOL    HW296640  10.775  11.976   1.808  0.9577 -1.1444  0.5122
29288SOL     OW96641   4.687   3.207   9.462 -0.4019  0.3132 -0.4372
29288SOL    HW196642   4.695   3.302   9.457  0.3536  0.3928  1.4661
29288SOL    HW296643   4.616   3.191   9.525  0.8259 -0.3204  0.8633
29289SOL     OW96644  12.423   4.070   8.895  0.1483  0.0801 -0.3990
29289SOL    HW196645  12.332   4.093   8.878  0.5603  0.4791 -2.2390
29289SOL    HW296646  12.430   4.071   8.991 -1.9725 -0.8255 -0.1754
29290SOL     OW96647  11.731  12.326  12.435  0.0273 -0.0829  0.4829
29290SOL    HW196648  11.783  12.264  12.486  1.7752  1.2905  0.4886
29290SOL    HW296649  11.796  12.387  12.400 -1.3092  0.1130 -1.8445
29291SOL     OW96650   6.603  10.813   1.168 -0.0940  0.0812 -0.0449
29291SOL    HW196651   6.651  10.811   1.251 -2.3543 -0.1765  1.3262
29291SOL    HW296652   6.619  10.901   1.134  2.6557 -0.4971 -0.5434
29292SOL     OW96653   8.727   4.953   1.210  0.2450  0.2371  0.7050
29292SOL    HW196654   8.802   4.894   1.210  0.3680  0.3935  1.0403
29292SOL    HW296655   8.759   5.032   1.253 -0.1768  0.2247  1.0370
29293SOL     OW96656   0.176   4.118  11.912  0.1668 -0.3788  0.1315
29293SOL    HW196657   0.132   4.169  11.981 -1.2787 -0.6201 -0.5655
29293SOL    HW296658   0.142   4.029  11.923 -0.4751 -0.3178 -1.1819
29294SOL     OW96659   8.084  11.901   9.555  0.1517 -0.2559  0.1397
29294SOL    HW196660   8.160  11.872   9.505 -0.4441 -0.8347 -0.4568
29294SOL    HW296661   8.100  11.994   9.570  1.0334 -0.3947  0.1379
29295SOL     OW96662   3.170   9.150  10.711 -0.0616 -0.0867 -0.2547
29295SOL    HW196663   3.136   9.240  10.715  0.7685  0.2187  0.0184
29295SOL    HW296664   3.194   9.138  10.619  2.8057  1.1206  0.2332
29296SOL     OW96665  11.447  12.494  10.463 -0.3057  0.6519  0.1738
29296SOL    HW196666  11.452  12.499  10.558 -1.1271  1.2709  0.1931
29296SOL    HW296667  11.527  12.536  10.432  2.0166 -2.9841  0.5951
29297SOL     OW96668  11.232  11.593   9.080  0.0100 -0.9396  0.0054
29297SOL    HW196669  11.263  11.676   9.116  0.7162 -1.3384  0.3245
29297SOL    HW296670  11.148  11.578   9.124  0.1673 -0.6923  0.3911
29298SOL     OW96671   7.083   8.706   5.432 -0.1974  0.0488 -0.0827
29298SOL    HW196672   7.022   8.639   5.402 -0.9351  0.7443 -0.1961
29298SOL    HW296673   7.140   8.723   5.357 -1.8633  1.5883 -1.0865
29299SOL     OW96674   1.154   0.886  11.896 -0.4824 -0.4817  0.1299
29299SOL    HW196675   1.138   0.954  11.831 -0.4924  0.0303  0.6667
29299SOL    HW296676   1.074   0.882  11.947  0.6205  1.3742  2.1679
29300SOL     OW96677   6.095   8.565   9.746  0.0627  0.4823  0.0255
29300SOL    HW196678   6.180   8.523   9.759  0.8410  1.3183 -1.9848
29300SOL    HW296679   6.112   8.659   9.752 -1.1802  0.6530  1.8527
29301SOL     OW96680   4.013   1.507   0.682 -0.1522 -0.6675  0.1471
29301SOL    HW196681   3.925   1.534   0.657 -1.1900 -2.0219  2.1239
29301SOL    HW296682   4.068   1.534   0.608 -2.4460 -1.3141 -1.9398
29302SOL     OW96683   6.518   8.715  11.968  0.4084  0.3051  0.1920
29302SOL    HW196684   6.605   8.729  11.931  0.1691  2.0192  0.1879
29302SOL    HW296685   6.469   8.671  11.899  1.4100 -1.2179  0.4047
29303SOL     OW96686   9.312  11.973   0.254 -0.3607 -0.1151 -0.3065
29303SOL    HW196687   9.233  12.026   0.261 -0.1741  0.4387 -2.0169
29303SOL    HW296688   9.319  11.951   0.161  0.4572 -1.7857  0.1062
29304SOL     OW96689   7.648  10.479   0.640  0.8157 -0.3963  0.2591
29304SOL    HW196690   7.685  10.559   0.677 -0.0584 -0.9163  2.4040
29304SOL    HW296691   7.557  10.479   0.668  0.6868 -1.9359 -0.0746
29305SOL     OW96692   6.209   4.270   4.535  0.2505  0.1743  0.4796
29305SOL    HW196693   6.242   4.213   4.604  0.0024 -0.5300  0.0277
29305SOL    HW296694   6.165   4.211   4.474 -2.5302  1.1335  1.4106
29306SOL     OW96695   8.060   9.484  10.717 -0.1930 -0.4106 -0.4411
29306SOL    HW196696   7.986   9.469  10.775  0.7621 -1.5004  0.5376
29306SOL    HW296697   8.022   9.480  10.629 -1.5624  0.7411  0.0556
29307SOL     OW96698   2.606   2.016   7.712 -0.5071 -0.9752  0.1074
29307SOL    HW196699   2.597   1.921   7.705 -0.5747 -0.8847 -1.1913
29307SOL    HW296700   2.564   2.050   7.634  0.7333  0.0564 -0.1316
29308SOL     OW96701  11.201   1.975  10.648  0.1553 -0.3337  0.4383
29308SOL    HW196702  11.279   1.920  10.655  1.8953  1.6661 -1.4878
29308SOL    HW296703  11.227   2.058  10.689 -0.6164  0.6187 -0.9097
29309SOL     OW96704   2.741   3.846   1.790 -0.0289 -0.4504 -0.1707
29309SOL    HW196705   2.652   3.812   1.775 -0.9446  1.6933  0.0694
29309SOL    HW296706   2.798   3.779   1.754 -1.8077 -0.5959 -3.0558
29310SOL     OW96707   3.423   2.295   0.372 -0.4921 -0.3046  0.0668
29310SOL    HW196708   3.513   2.327   0.373 -1.0317  1.3231 -0.4078
29310SOL    HW296709   3.384   2.330   0.452 -1.3350  1.0629 -0.8886
29311SOL     OW96710   0.903  10.605   0.464 -0.4936 -0.2121 -0.0517
29311SOL    HW196711   0.823  10.593   0.412 -0.0439 -0.6354 -0.6649
29311SOL    HW296712   0.971  10.561   0.413 -0.1487 -1.1892  1.2173
29312SOL     OW96713   7.631  12.493  11.446  0.6524 -0.7952 -0.0040
29312SOL    HW196714   7.572  12.549  11.396  0.8498  0.0305  0.6763
29312SOL    HW296715   7.573  12.429  11.488  0.2972 -0.3262  0.2243
29313SOL     OW96716   1.873   6.562   2.468 -0.2362  0.0263  1.1722
29313SOL    HW196717   1.859   6.468   2.453 -0.0967  0.3861 -1.8473
29313SOL    HW296718   1.789   6.602   2.445  0.8744  0.9047 -1.7815
29314SOL     OW96719   1.570   4.230  10.523 -0.0395  0.8978  0.2956
29314SOL    HW196720   1.509   4.173  10.569  0.7173  1.4279  2.0334
29314SOL    HW296721   1.577   4.192  10.436 -0.3738 -1.0495  1.0689
29315SOL     OW96722  11.685   2.275  11.536 -0.1356 -0.4422 -0.1219
29315SOL    HW196723  11.617   2.207  11.544 -0.3507 -0.1101  1.1159
29315SOL    HW296724  11.765   2.231  11.564  0.3447 -1.0521 -2.3058
29316SOL     OW96725   0.908   3.593   7.920  0.1695 -0.4285  0.5528
29316SOL    HW196726   0.895   3.665   7.981 -0.6477  0.5360 -0.7223
29316SOL    HW296727   0.908   3.633   7.833 -0.3074 -1.9392 -0.1952
29317SOL     OW96728   0.484   7.290   6.198 -0.1331 -0.0174  0.5700
29317SOL    HW196729   0.425   7.278   6.273 -0.1823  0.1586  0.5606
29317SOL    HW296730   0.555   7.344   6.232 -0.7182  0.9988  0.2025
29318SOL     OW96731  11.944  10.971   7.082 -0.0792 -0.0496  0.0747
29318SOL    HW196732  12.039  10.958   7.074  0.2324  2.1284 -0.3049
29318SOL    HW296733  11.934  11.033   7.153 -1.1366  0.5253 -0.5546
29319SOL     OW96734  11.324   3.071   7.707 -0.2677 -0.1510  0.0988
29319SOL    HW196735  11.320   3.165   7.686  1.1074  0.1704  1.1711
29319SOL    HW296736  11.416   3.047   7.695 -0.6149 -1.4033 -0.2493
29320SOL     OW96737   9.739   4.953   6.739 -0.4115 -0.0496 -0.3174
29320SOL    HW196738   9.667   4.986   6.794 -0.1876 -1.3360  0.8071
29320SOL    HW296739   9.816   4.957   6.795  0.7006  2.3376 -1.8580
29321SOL     OW96740   2.655  11.835   0.316  0.2184  0.3941 -0.2212
29321SOL    HW196741   2.672  11.917   0.363 -1.2894  0.7780 -0.2878
29321SOL    HW296742   2.730  11.780   0.336  1.4611  1.9245 -0.4794
29322SOL     OW96743   8.224   8.736   3.387 -0.1887  0.1844 -0.6983
29322SOL    HW196744   8.214   8.645   3.356 -2.5049  0.3861 -0.6983
29322SOL    HW296745   8.164   8.786   3.332 -0.0886  1.4782  0.3303
29323SOL     OW96746   9.610   3.127   9.546 -0.3207 -0.4609 -0.0747
29323SOL    HW196747   9.537   3.077   9.510 -0.4419  0.8833 -1.8257
29323SOL    HW296748   9.684   3.105   9.490  0.0343 -0.0044  0.2068
29324SOL     OW96749   3.718   1.835  12.402 -0.1068 -0.4186  0.2115
29324SOL    HW196750   3.716   1.850  12.497 -0.0753  0.1808  0.1172
29324SOL    HW296751   3.674   1.910  12.364  2.0552  0.6405 -0.4034
29325SOL     OW96752   7.927   3.906   3.640 -0.6818  0.0099 -0.2919
29325SOL    HW196753   7.952   3.815   3.657  1.1996  0.2999 -1.2475
29325SOL    HW296754   7.876   3.902   3.559 -2.4774 -0.4111  0.8230
29326SOL     OW96755   3.795   7.056   6.252 -0.1724  0.2016 -0.3702
29326SOL    HW196756   3.864   7.036   6.315 -0.2422  2.1943  0.4232
29326SOL    HW296757   3.815   7.145   6.223  0.4715 -0.9280 -4.0427
29327SOL     OW96758  10.584   7.429  12.298 -0.1271 -0.2645 -0.1064
29327SOL    HW196759  10.557   7.517  12.272  1.4247  0.2618 -0.0646
29327SOL    HW296760  10.511   7.395  12.349 -1.9958 -0.1454 -2.5303
29328SOL     OW96761  11.459   9.578   4.441 -0.0470 -0.3260  0.0161
29328SOL    HW196762  11.457   9.492   4.483  1.7077 -0.0479  0.7672
29328SOL    HW296763  11.513   9.632   4.500  1.2067  0.5011 -1.8013
29329SOL     OW96764   8.313   0.505   3.522  0.6911 -0.1352  0.0535
29329SOL    HW196765   8.340   0.552   3.442 -0.6446 -0.4914 -0.6324
29329SOL    HW296766   8.325   0.569   3.592 -0.1940  0.9450 -0.7415
29330SOL     OW96767   0.704   2.681   2.505 -0.3162  0.2168  0.3331
29330SOL    HW196768   0.648   2.620   2.456  0.6283 -0.5980  0.2265
29330SOL    HW296769   0.673   2.675   2.595  0.6139 -1.5160  0.6023
29331SOL     OW96770  12.530   9.127  12.275 -0.2296  0.3402 -0.6946
29331SOL    HW196771  12.491   9.165  12.354  2.8787  1.2110  0.5743
29331SOL    HW296772  12.552   9.202  12.220  0.4456 -0.0334 -0.9462
29332SOL     OW96773   5.118   0.258   6.470 -0.4088 -0.6421 -0.0621
29332SOL    HW196774   5.159   0.244   6.385 -0.9720  1.4520 -0.7331
29332SOL    HW296775   5.120   0.172   6.512  0.5364 -1.5640 -1.8838
29333SOL     OW96776  10.764   2.022   5.325 -0.5487  0.8091  0.0954
29333SOL    HW196777  10.814   2.065   5.255 -0.3583 -1.2675 -1.1439
29333SOL    HW296778  10.817   2.035   5.403  0.6052  0.9232 -0.6700
29334SOL     OW96779  10.233  12.030   0.115  0.3069  0.3456  0.1077
29334SOL    HW196780  10.162  12.067   0.062 -2.1057 -2.2226  1.2896
29334SOL    HW296781  10.247  12.094   0.184 -0.4437  1.1684 -0.4758
29335SOL     OW96782   8.097   3.423   1.285  0.0170 -0.3005 -0.2481
29335SOL    HW196783   8.127   3.333   1.271 -2.4722 -1.0767 -1.0600
29335SOL    HW296784   8.075   3.455   1.197  0.4690  0.9789  0.0776
29336SOL     OW96785   8.714   7.519   2.938 -0.3767  0.1022 -0.0318
29336SOL    HW196786   8.648   7.498   3.004 -0.3598  0.0983 -0.0160
29336SOL    HW296787   8.770   7.584   2.978 -0.1901 -0.1188  0.0644
29337SOL     OW96788   8.749   1.444   9.894 -0.7485  0.0046 -0.2560
29337SOL    HW196789   8.674   1.500   9.875 -0.0079  0.8413 -0.8384
29337SOL    HW296790   8.722   1.391   9.969 -1.7611  0.5864 -0.1978
29338SOL     OW96791  11.600  11.473   2.712  0.7482 -0.0589 -0.0862
29338SOL    HW196792  11.600  11.569   2.716  0.8880 -0.0915  1.1534
29338SOL    HW296793  11.515  11.451   2.672 -0.1125  0.5637  1.3033
29339SOL     OW96794  12.168   0.358  12.206 -0.0565 -0.5747  0.6764
29339SOL    HW196795  12.245   0.309  12.236  1.4435  2.0715  1.5366
29339SOL    HW296796  12.167   0.345  12.111  1.5824 -0.5702  0.6207
29340SOL     OW96797   4.195   6.726  10.810 -0.2632  0.5920 -0.3187
29340SOL    HW196798   4.144   6.648  10.789 -0.8092  0.8831 -0.1173
29340SOL    HW296799   4.286   6.699  10.803 -0.4486 -0.0480 -0.2924
29341SOL     OW96800   5.343   8.735   8.104  0.0648  0.3734 -0.1543
29341SOL    HW196801   5.293   8.687   8.170  1.8332 -0.7581  0.4324
29341SOL    HW296802   5.428   8.751   8.145  0.8689  0.5289 -1.7851
29342SOL     OW96803   5.609   5.717   1.230 -0.5560 -0.1414  0.2584
29342SOL    HW196804   5.607   5.806   1.196 -0.7683 -0.6479 -1.1125
29342SOL    HW296805   5.669   5.720   1.304 -2.5117  1.7095  1.9186
29343SOL     OW96806   3.449   9.452   3.870 -0.2389 -0.1792 -0.0797
29343SOL    HW196807   3.470   9.520   3.807  0.7381  0.1588  0.5698
29343SOL    HW296808   3.534   9.428   3.908 -0.8340  0.0214  1.4821
29344SOL     OW96809   9.578   0.230   9.749  0.3734 -0.1828  0.1222
29344SOL    HW196810   9.494   0.251   9.707  0.4882 -0.9893 -0.5340
29344SOL    HW296811   9.643   0.281   9.701  0.2767  0.4445  0.6332
29345SOL     OW96812  10.102  12.242  11.659  0.7187  0.0414 -0.4373
29345SOL    HW196813  10.149  12.174  11.706  0.3472 -0.1835 -0.3887
29345SOL    HW296814  10.135  12.324  11.695 -1.3458 -0.0898  2.0487
29346SOL     OW96815  10.350   2.431   9.920  0.0926  0.7620 -0.0902
29346SOL    HW196816  10.362   2.371   9.846 -0.3622  0.4460  0.0884
29346SOL    HW296817  10.352   2.518   9.881 -0.8130  0.5790 -0.5744
29347SOL     OW96818   6.411   5.559   4.568  0.1253  0.3768 -0.0542
29347SOL    HW196819   6.408   5.472   4.608 -0.4014  0.4914  0.1743
29347SOL    HW296820   6.350   5.611   4.621  0.5310  0.9183 -0.1126
29348SOL     OW96821   7.284  10.388   8.719 -0.0171  0.9656 -0.4423
29348SOL    HW196822   7.287  10.294   8.702 -0.9359  1.1926 -2.1497
29348SOL    HW296823   7.293  10.396   8.814 -0.1428 -0.8563 -0.2431
29349SOL     OW96824   5.953  11.202   2.923 -0.2246 -0.3255 -0.6882
29349SOL    HW196825   6.007  11.281   2.922  1.6406 -1.5087 -2.4763
29349SOL    HW296826   5.937  11.185   3.016 -0.8293  2.1832 -0.2616
29350SOL     OW96827   1.224   0.201   4.198 -0.7589  0.2757 -0.5634
29350SOL    HW196828   1.301   0.158   4.235 -1.0182 -0.4006 -0.8066
29350SOL    HW296829   1.180   0.240   4.274  0.2532  1.3907 -0.5152
29351SOL     OW96830   0.766  10.570   2.576 -0.5454  0.2225 -0.7618
29351SOL    HW196831   0.785  10.659   2.607 -0.5505  0.0430 -0.2359
29351SOL    HW296832   0.819  10.513   2.631 -1.2283 -0.1627 -0.4857
29352SOL     OW96833   0.606  11.346   8.033  0.2602  0.2957 -0.5115
29352SOL    HW196834   0.664  11.420   8.015  1.6106 -0.9071 -1.3134
29352SOL    HW296835   0.586  11.353   8.126  1.8255  0.6889 -0.1768
29353SOL     OW96836   4.149   0.077   6.566 -0.4231  0.1380 -0.0777
29353SOL    HW196837   4.227   0.022   6.567  0.0835  0.8473  0.7341
29353SOL    HW296838   4.095   0.045   6.638 -0.4745  0.2176 -0.0802
29354SOL     OW96839   8.831   6.744  11.601  0.6434 -0.0999  0.1710
29354SOL    HW196840   8.898   6.677  11.585 -1.7919 -2.8445  0.5408
29354SOL    HW296841   8.785   6.751  11.518  1.6722  2.2360 -0.2666
29355SOL     OW96842   8.897   1.017   2.512 -0.1573  0.0835 -0.0084
29355SOL    HW196843   8.843   1.088   2.479 -0.0018 -0.1051 -0.6877
29355SOL    HW296844   8.986   1.052   2.512 -0.1811  0.1518  0.4187
29356SOL     OW96845  11.657   4.229   1.406 -0.0092  0.5401 -0.5583
29356SOL    HW196846  11.569   4.220   1.442 -0.3556 -1.7897 -1.7473
29356SOL    HW296847  11.672   4.146   1.359  3.6500 -0.0872  1.3584
29357SOL     OW96848   5.998   2.464   5.265 -0.2674  0.3020 -0.0267
29357SOL    HW196849   5.914   2.470   5.310 -0.7042  1.4243 -0.9542
29357SOL    HW296850   6.040   2.548   5.280 -0.3122  0.6034 -1.4728
29358SOL     OW96851  10.978   7.236   6.910  0.0193 -0.2623 -0.0645
29358SOL    HW196852  10.971   7.204   7.000 -0.9834  0.2225  0.0403
29358SOL    HW296853  11.071   7.254   6.898  0.5152 -2.4580  0.1186
29359SOL     OW96854   9.955   8.449   4.861 -0.6423  0.3205  0.2481
29359SOL    HW196855   9.997   8.535   4.858  0.5629 -0.2750 -0.9479
29359SOL    HW296856  10.009   8.394   4.805 -1.7481 -1.0769  0.4984
29360SOL     OW96857   4.451   6.327   9.514 -0.2290 -0.4418  0.2093
29360SOL    HW196858   4.396   6.397   9.549  1.9811  0.9260  1.1587
29360SOL    HW296859   4.464   6.267   9.587 -0.2253 -0.6311  0.0563
29361SOL     OW96860   4.264   8.461  10.908 -0.1929 -0.5212 -0.3750
29361SOL    HW196861   4.218   8.509  10.977  0.8485 -2.0786  1.4927
29361SOL    HW296862   4.225   8.493  10.827 -1.2054  1.6744  0.8790
29362SOL     OW96863  11.908  12.431   7.031 -0.2106 -0.1553 -0.4588
29362SOL    HW196864  11.965  12.355   7.042 -0.4372 -0.3836 -0.8149
29362SOL    HW296865  11.907  12.447   6.936 -1.7865 -0.9960 -0.6343
29363SOL     OW96866   0.540   4.118   3.344  0.2111 -0.2091 -0.4216
29363SOL    HW196867   0.502   4.089   3.427 -0.3980 -0.5275 -0.8029
29363SOL    HW296868   0.629   4.083   3.345  0.3801  0.2098  0.3109
29364SOL     OW96869   1.807   1.068   9.185 -0.1878 -0.0935 -0.4982
29364SOL    HW196870   1.761   1.119   9.118 -2.2437  1.4832  1.8843
29364SOL    HW296871   1.891   1.047   9.146 -0.0532  3.3527 -2.5160
29365SOL     OW96872  12.278   8.225   8.910  0.7944  0.2514  0.2531
29365SOL    HW196873  12.189   8.241   8.940  0.1262 -2.9069  0.2133
29365SOL    HW296874  12.333   8.244   8.986 -0.3726 -2.1053  1.7696
29366SOL     OW96875   7.594   7.804   3.309  0.1666  0.5446  0.0936
29366SOL    HW196876   7.665   7.828   3.249 -0.1888  0.0274 -0.5443
29366SOL    HW296877   7.577   7.884   3.359  0.0874  1.1703 -0.8978
29367SOL     OW96878   5.067   4.040   7.833  0.6863 -0.0746 -0.1121
29367SOL    HW196879   5.043   4.062   7.923  1.1005 -0.1680  0.0246
29367SOL    HW296880   5.024   4.107   7.780  1.2058  0.5454  0.2350
29368SOL     OW96881   1.876   1.834   9.509 -0.5532 -0.2845 -0.1891
29368SOL    HW196882   1.815   1.858   9.440 -0.1216  1.6419  0.0504
29368SOL    HW296883   1.953   1.889   9.494  1.0467 -2.4117 -0.3055
29369SOL     OW96884  12.579   2.459  10.808  0.4552  0.0933  0.0278
29369SOL    HW196885  12.498   2.447  10.759 -0.2769  1.0855  0.9528
29369SOL    HW296886  12.648   2.431  10.747 -0.5468 -0.5131 -0.8644
29370SOL     OW96887  11.030   4.180  10.919  0.1473  0.6759  0.9944
29370SOL    HW196888  11.006   4.089  10.935  2.9231 -0.5620 -0.9638
29370SOL    HW296889  11.086   4.203  10.993  2.1320 -0.4480 -0.0665
29371SOL     OW96890   2.497   9.554  12.004  0.4904  0.3249 -0.4607
29371SOL    HW196891   2.589   9.529  12.012  1.1787  2.7048 -0.3217
29371SOL    HW296892   2.491   9.639  12.047 -1.7749  0.2836 -0.5680
29372SOL     OW96893   4.475   5.183   9.463  0.1756 -0.3363 -0.1689
29372SOL    HW196894   4.506   5.093   9.468 -0.1766 -0.5000 -0.8894
29372SOL    HW296895   4.407   5.182   9.396  0.4606  0.5449 -0.4903
29373SOL     OW96896   8.543   3.150   1.481  0.4119  0.5418  0.5393
29373SOL    HW196897   8.534   3.143   1.576  0.0500  0.0109  0.4683
29373SOL    HW296898   8.576   3.239   1.466 -0.9004  1.1429  1.0649
29374SOL     OW96899   0.601   8.840   1.503  1.0831  0.8958 -0.5100
29374SOL    HW196900   0.685   8.839   1.457  0.7385  1.3054 -1.1803
29374SOL    HW296901   0.562   8.924   1.478 -0.1501  0.0838 -1.3919
29375SOL     OW96902   0.640   7.992   0.957  0.0440 -0.2993 -0.0819
29375SOL    HW196903   0.717   8.042   0.930  0.0945  0.1678  0.9197
29375SOL    HW296904   0.654   7.905   0.919  1.0207 -0.1977  0.0277
29376SOL     OW96905   5.682   8.377   9.183 -0.3072  0.2727 -0.1756
29376SOL    HW196906   5.650   8.441   9.119 -1.6734 -0.3286 -0.1281
29376SOL    HW296907   5.665   8.417   9.268 -0.7533  0.0481 -0.1548
29377SOL     OW96908  11.139   1.687   1.958 -0.4275 -0.1909 -0.1408
29377SOL    HW196909  11.177   1.739   2.029  0.7180  2.6492 -2.6371
29377SOL    HW296910  11.049   1.719   1.950  0.2329  1.4313 -1.5811
29378SOL     OW96911   5.237   6.559   7.128 -0.5613  0.5501 -0.0109
29378SOL    HW196912   5.239   6.538   7.222  0.3556  0.9664  0.0785
29378SOL    HW296913   5.221   6.653   7.125 -0.9996  0.4669 -0.2888
29379SOL     OW96914   8.365  11.937   4.005  0.4275 -0.3881  0.5696
29379SOL    HW196915   8.406  11.903   3.925 -0.5325 -2.2658  0.8201
29379SOL    HW296916   8.313  11.863   4.038 -0.4178  0.8446  2.0939
29380SOL     OW96917   6.321   1.592   8.832 -0.2228  0.9865 -0.2392
29380SOL    HW196918   6.283   1.554   8.753  0.0389  1.8854 -0.8165
29380SOL    HW296919   6.272   1.674   8.845 -0.7866  0.4883  0.9771
29381SOL     OW96920   7.329   3.242   6.420 -0.4756 -0.1836 -0.4670
29381SOL    HW196921   7.402   3.295   6.391 -0.8577 -0.2099 -1.5385
29381SOL    HW296922   7.369   3.171   6.471  0.1228  0.4936  0.0181
29382SOL     OW96923   0.858   3.602  11.602 -0.3032 -0.0934 -0.0630
29382SOL    HW196924   0.851   3.650  11.685 -0.2806  0.6728 -0.4977
29382SOL    HW296925   0.948   3.615  11.574 -0.4585  0.1157 -0.4774
29383SOL     OW96926   1.133   7.282   1.288  0.5932  0.3049  0.4816
29383SOL    HW196927   1.055   7.338   1.293 -0.1028 -0.6619  0.5938
29383SOL    HW296928   1.168   7.299   1.201 -1.3974 -1.3593 -0.7479
29384SOL     OW96929   2.887   3.533   7.247  0.7972 -0.6477  0.2397
29384SOL    HW196930   2.965   3.486   7.218  0.8780  0.0619 -0.7793
29384SOL    HW296931   2.920   3.597   7.310  1.1240 -0.1011 -0.4590
29385SOL     OW96932   5.570   3.941   2.021 -0.4177  0.2805  0.1401
29385SOL    HW196933   5.594   3.972   2.108  2.0092  0.9607 -0.6998
29385SOL    HW296934   5.592   4.013   1.962 -1.8919 -0.2121 -1.0975
29386SOL     OW96935   2.219   3.667   4.297 -0.1285 -0.3848 -0.1717
29386SOL    HW196936   2.172   3.597   4.251  1.0473 -0.9892 -0.4853
29386SOL    HW296937   2.308   3.633   4.308 -0.1615  0.0668  1.8650
29387SOL     OW96938   0.765   4.710   9.732  0.0833 -0.1657  0.1746
29387SOL    HW196939   0.685   4.761   9.728 -0.0174 -0.4397 -1.8664
29387SOL    HW296940   0.755   4.655   9.810 -1.8249 -0.3990 -0.2094
29388SOL     OW96941   4.522   9.139   8.583  0.1815  0.1022 -0.4329
29388SOL    HW196942   4.617   9.131   8.581  0.1539 -0.9590  1.2037
29388SOL    HW296943   4.490   9.050   8.591 -0.9230  0.5163 -0.0726
29389SOL     OW96944   3.836   3.309   4.651 -0.6798  0.3409  0.3924
29389SOL    HW196945   3.794   3.360   4.720  0.5660  3.8034 -1.1893
29389SOL    HW296946   3.813   3.354   4.570  2.2717 -0.3053 -0.9353
29390SOL     OW96947   4.309   2.263  12.010  0.1619 -0.4320 -0.3373
29390SOL    HW196948   4.367   2.240  11.938  0.7231 -0.1585  0.0183
29390SOL    HW296949   4.365   2.309  12.072  0.4598 -3.2800  1.7153
29391SOL     OW96950   2.446  11.030   7.390  0.0230 -0.0527  0.4227
29391SOL    HW196951   2.527  11.024   7.440  0.1758 -0.2900  0.1485
29391SOL    HW296952   2.455  10.965   7.320 -0.1117  0.3926 -0.0209
29392SOL     OW96953   8.153   1.360   2.282 -0.2142 -0.1286 -0.3033
29392SOL    HW196954   8.163   1.454   2.298  1.8104 -0.4635  0.6492
29392SOL    HW296955   8.118   1.355   2.193  1.5296  1.5257 -1.1548
29393SOL     OW96956  10.180  11.787   4.290  0.4514  0.5112  0.3462
29393SOL    HW196957  10.169  11.796   4.385  1.0450  0.6037  0.4068
29393SOL    HW296958  10.165  11.875   4.255  1.1348  0.6717  0.4449
29394SOL     OW96959   7.079   7.699   1.525 -0.0425  0.0016 -0.0313
29394SOL    HW196960   6.987   7.724   1.521 -0.3014 -0.6626  1.1535
29394SOL    HW296961   7.092   7.669   1.616  0.9153 -1.4660 -0.6082
29395SOL     OW96962   3.450  11.908   6.135 -0.8888  0.0266 -0.1614
29395SOL    HW196963   3.544  11.912   6.121 -0.6600  0.0905  1.2784
29395SOL    HW296964   3.413  11.962   6.064  0.2935  1.8173  0.5113
29396SOL     OW96965  10.103   6.868   6.127  0.4960  0.6459 -0.4329
29396SOL    HW196966  10.023   6.917   6.105  1.2868  2.7274  1.0034
29396SOL    HW296967  10.157   6.875   6.049 -0.5407 -0.4739 -1.2887
29397SOL     OW96968   7.098   3.077  10.627 -0.1649  0.2488  0.0142
29397SOL    HW196969   7.146   3.056  10.707 -0.6818  0.8075  0.4866
29397SOL    HW296970   7.108   3.000  10.571  0.2478 -0.1238  0.5965
29398SOL     OW96971   1.737   6.775   3.225  0.1579  0.1292  0.2346
29398SOL    HW196972   1.699   6.820   3.300  0.7774 -1.2759  1.4547
29398SOL    HW296973   1.805   6.719   3.263  0.7613 -0.3318 -1.4315
29399SOL     OW96974   4.229   6.203   5.075 -0.7051  0.1133  0.5576
29399SOL    HW196975   4.269   6.134   5.023 -1.6340 -0.8871  1.1230
29399SOL    HW296976   4.302   6.244   5.120  0.1750  1.2595 -1.7567
29400SOL     OW96977  11.303  11.349   2.347  0.4472  0.1667  0.3407
29400SOL    HW196978  11.316  11.337   2.441 -1.5265 -1.4524  0.4773
29400SOL    HW296979  11.331  11.439   2.330  1.4479  0.2816  2.3382
29401SOL     OW96980   6.753   1.658   5.039 -0.4046 -0.3626  0.0119
29401SOL    HW196981   6.801   1.580   5.067 -0.5591  0.0210  1.4050
29401SOL    HW296982   6.720   1.697   5.120  0.0564  1.4175 -0.6131
29402SOL     OW96983   4.998   2.964  11.872  0.1898 -0.0793  0.4392
29402SOL    HW196984   5.062   2.945  11.941 -0.1832  1.8923  1.4029
29402SOL    HW296985   4.956   3.045  11.900 -0.9968  0.0107 -1.4228
29403SOL     OW96986  11.919   0.930   0.452  0.3991 -0.1301 -0.2831
29403SOL    HW196987  11.851   0.863   0.443 -0.3962  0.5253  0.6651
29403SOL    HW296988  11.991   0.884   0.496 -0.2688 -0.2964  0.6654
29404SOL     OW96989   2.016   7.895   6.431  0.2714  0.8063  0.1597
29404SOL    HW196990   2.097   7.903   6.381 -0.6199  0.6060 -1.3698
29404SOL    HW296991   2.031   7.819   6.488 -0.3019 -2.0173 -3.1279
29405SOL     OW96992   2.368   4.914  12.262 -0.2379 -0.3006  0.4523
29405SOL    HW196993   2.353   4.980  12.329  0.7634  1.6150 -1.1054
29405SOL    HW296994   2.463   4.912  12.251 -0.3860 -0.4575 -0.9988
29406SOL     OW96995   5.448  12.594   6.662 -0.0148 -0.3151 -0.0273
29406SOL    HW196996   5.473  12.559   6.747 -1.2665  0.7800  0.8323
29406SOL    HW296997   5.432  12.516   6.608  0.1410 -1.0348  0.9317
29407SOL     OW96998   4.879   1.956   0.464  0.0498 -0.3920  0.3773
29407SOL    HW196999   4.912   2.045   0.456 -1.1968  0.2520  1.8296
29407SOL    HW297000   4.950   1.908   0.507  0.1059  0.3413  1.1390
29408SOL     OW97001   9.794  12.201   1.562 -0.3192 -0.1940  0.0808
29408SOL    HW197002   9.703  12.194   1.591 -0.5632 -0.6030 -0.7276
29408SOL    HW297003   9.796  12.152   1.480  0.3270  0.9142 -0.5921
29409SOL     OW97004   3.883   0.269   3.825  0.1699  0.2948  0.3761
29409SOL    HW197005   3.909   0.349   3.779 -0.2214 -0.1344 -0.6143
29409SOL    HW297006   3.789   0.262   3.809  0.3124 -0.7048 -0.1080
29410SOL     OW97007   0.352   0.515   6.559  0.4564 -0.2920 -0.2228
29410SOL    HW197008   0.373   0.509   6.466  1.2129 -1.1511 -0.0117
29410SOL    HW297009   0.343   0.424   6.588  0.4927 -0.0448  0.6005
29411SOL     OW97010   4.997   7.957   8.789  0.7671 -0.5619 -0.2225
29411SOL    HW197011   4.967   7.936   8.877  0.9430  0.7904  0.1707
29411SOL    HW297012   5.010   8.051   8.789  1.3151 -0.6128 -1.5343
29412SOL     OW97013   1.640  11.494   6.501 -0.1326 -0.4357 -0.1701
29412SOL    HW197014   1.698  11.561   6.538  0.5218 -0.0806 -1.7407
29412SOL    HW297015   1.627  11.522   6.410 -0.0589 -2.3011 -0.7915
29413SOL     OW97016   7.243   1.742   7.466  0.1513 -0.3758 -0.2067
29413SOL    HW197017   7.150   1.747   7.445  0.2840  0.6497 -0.6243
29413SOL    HW297018   7.267   1.832   7.488  1.5939 -0.0917 -2.5484
29414SOL     OW97019   9.655   7.773  10.884 -0.0959  0.2959  0.3233
29414SOL    HW197020   9.692   7.776  10.972 -0.0753 -0.2674  0.3363
29414SOL    HW297021   9.577   7.829  10.889 -1.3077 -1.3767  1.2856
29415SOL     OW97022   1.746   3.490   3.438 -0.4380  0.0767  0.0150
29415SOL    HW197023   1.756   3.395   3.445  0.2874  0.2103  1.1621
29415SOL    HW297024   1.822   3.519   3.388 -0.9009  0.0152 -0.7335
29416SOL     OW97025   7.850   6.290   6.048  0.5063  0.3217  0.2133
29416SOL    HW197026   7.775   6.279   5.989  0.2272 -1.2815  0.8217
29416SOL    HW297027   7.909   6.218   6.026  1.3709  0.9370  0.4824
29417SOL     OW97028   9.318  11.808   6.470 -0.3034  0.0713  0.2087
29417SOL    HW197029   9.267  11.782   6.547  1.0982 -0.2407  1.0650
29417SOL    HW297030   9.311  11.733   6.410  1.0381 -0.9778  1.3047
29418SOL     OW97031  10.642   5.195   2.805  0.2678  0.7402 -0.6406
29418SOL    HW197032  10.597   5.111   2.815  0.1653  0.9577  0.9645
29418SOL    HW297033  10.680   5.191   2.717  0.0100 -0.8500 -0.7157
29419SOL     OW97034   1.889   1.054   5.486 -0.6379 -0.6027 -0.4539
29419SOL    HW197035   1.979   1.053   5.518 -0.7195  0.5681 -0.1124
29419SOL    HW297036   1.836   1.037   5.564 -0.7867  1.0333 -0.1615
29420SOL     OW97037   8.934   3.135  11.390 -0.0347  0.2047 -0.0875
29420SOL    HW197038   8.890   3.051  11.374 -0.0084  0.0987  0.3683
29420SOL    HW297039   9.013   3.111  11.439  0.2385  0.4493 -0.4071
29421SOL     OW97040   7.263   2.553   5.607 -0.2418  0.1601  0.0135
29421SOL    HW197041   7.169   2.537   5.602 -0.5024  1.6996 -0.7934
29421SOL    HW297042   7.298   2.518   5.526 -0.0821 -0.5503  0.3821
29422SOL     OW97043  10.029   0.726   8.469 -0.4475  0.1955 -0.4361
29422SOL    HW197044  10.037   0.772   8.553  0.0300 -3.3663  1.6598
29422SOL    HW297045  10.114   0.738   8.427  0.5746 -0.7427  1.2302
29423SOL     OW97046   7.799   4.620   8.904 -0.0186 -0.4033 -0.2575
29423SOL    HW197047   7.878   4.648   8.858 -0.0112 -2.5643 -1.7374
29423SOL    HW297048   7.729   4.672   8.865  0.4589  0.3862 -0.0782
29424SOL     OW97049   7.983   6.889   4.625  0.0002  0.2159  0.3061
29424SOL    HW197050   7.971   6.968   4.679  1.3059 -0.4231  1.6081
29424SOL    HW297051   8.016   6.922   4.542 -0.2761  1.1072  0.5327
29425SOL     OW97052   0.630   7.656  10.265 -0.4090 -0.2478  0.2518
29425SOL    HW197053   0.668   7.683  10.349 -0.2221 -0.1454  0.1351
29425SOL    HW297054   0.559   7.597  10.289 -0.1138 -0.5189  0.4732
29426SOL     OW97055   7.439   6.965  10.072  0.2900 -0.5028 -0.3929
29426SOL    HW197056   7.496   7.033  10.109 -2.3149  1.8563 -0.3502
29426SOL    HW297057   7.376   6.947  10.142 -3.1983  2.1939 -2.5238
29427SOL     OW97058  10.863   5.557   2.388  0.4558 -0.1923 -0.1497
29427SOL    HW197059  10.922   5.546   2.313 -1.0742 -1.0265 -1.2805
29427SOL    HW297060  10.861   5.471   2.429  0.9194  0.1433  0.5917
29428SOL     OW97061   9.076   2.607   2.898  0.3762  0.4919 -0.2835
29428SOL    HW197062   9.085   2.515   2.923  0.2769  0.3306 -0.8206
29428SOL    HW297063   9.165   2.635   2.874  1.0837  1.5176  3.0521
29429SOL     OW97064   6.431   1.027   7.691 -0.4750 -0.0813  0.3898
29429SOL    HW197065   6.426   1.118   7.663 -0.8362  0.0469  0.8682
29429SOL    HW297066   6.363   1.018   7.758 -0.0411 -0.5486  0.7796
29430SOL     OW97067  10.303   0.420   9.304 -0.3773 -0.1033 -0.4378
29430SOL    HW197068  10.322   0.505   9.342  0.9038 -0.2470 -0.7122
29430SOL    HW297069  10.384   0.370   9.315 -1.2267 -1.4193  0.0720
29431SOL     OW97070   1.851   1.622   0.364  0.0862  0.2132 -0.3234
29431SOL    HW197071   1.895   1.686   0.308  3.4710 -0.5229  1.2593
29431SOL    HW297072   1.868   1.651   0.453 -0.1188 -1.7082  0.3955
29432SOL     OW97073   2.553   0.930   1.908  0.0763 -0.4508  0.1104
29432SOL    HW197074   2.578   0.915   1.999  1.3233  0.6174 -0.0197
29432SOL    HW297075   2.475   0.987   1.914  0.4088 -0.0286  0.5147
29433SOL     OW97076   8.377   2.388   1.868 -0.2901  0.4474 -1.0669
29433SOL    HW197077   8.338   2.301   1.860  0.7295 -0.1663  0.1754
29433SOL    HW297078   8.348   2.435   1.790 -0.2921 -1.2436 -2.1350
29434SOL     OW97079   2.981   7.882  12.593  0.1571 -0.0315  0.6229
29434SOL    HW197080   3.014   7.877  12.682  1.2610 -0.3355  0.2126
29434SOL    HW297081   3.059   7.878  12.538 -0.3937  1.3849 -0.3329
29435SOL     OW97082   4.695   7.341  11.209 -0.7362  0.3315  0.5289
29435SOL    HW197083   4.671   7.349  11.301 -3.0340 -1.3345  0.1757
29435SOL    HW297084   4.614   7.358  11.161  0.0921 -0.0935 -1.1218
29436SOL     OW97085   0.629   9.052   6.504 -0.4274  0.1793 -0.0545
29436SOL    HW197086   0.584   8.980   6.460  1.2763  0.6538 -2.8374
29436SOL    HW297087   0.566   9.124   6.503 -1.6273 -0.7824  1.4876
29437SOL     OW97088   8.890   8.218   9.863  0.2544  0.2535  0.1862
29437SOL    HW197089   8.929   8.131   9.859 -1.2447 -0.4236 -1.3296
29437SOL    HW297090   8.964   8.278   9.859  1.2430 -0.9576 -0.5929
29438SOL     OW97091   5.739   2.826   8.161 -0.0234  0.3787  0.2622
29438SOL    HW197092   5.823   2.863   8.188 -0.1605 -0.3002  1.6798
29438SOL    HW297093   5.685   2.903   8.141  1.4660  0.8122 -2.5663
29439SOL     OW97094   3.958   2.597   2.381 -0.0173 -0.5003 -0.3021
29439SOL    HW197095   4.030   2.599   2.444  0.1065  0.7633 -0.4647
29439SOL    HW297096   3.964   2.681   2.336 -0.7356 -0.9712 -1.2921
29440SOL     OW97097  10.336   3.544   1.802 -0.1851 -0.0672  0.1785
29440SOL    HW197098  10.259   3.577   1.848  0.7160  0.3438  1.4257
29440SOL    HW297099  10.410   3.568   1.857  0.9271  0.2130 -1.3643
29441SOL     OW97100   8.768   5.507   2.466 -0.0532  0.0676  0.1758
29441SOL    HW197101   8.746   5.466   2.383 -1.2863  0.5676  0.2334
29441SOL    HW297102   8.719   5.457   2.531 -1.5045  1.5048  0.2546
29442SOL     OW97103   4.311   4.421   9.821 -0.5810 -0.4304  0.1672
29442SOL    HW197104   4.365   4.410   9.743 -1.6695 -0.7840 -0.5515
29442SOL    HW297105   4.350   4.361   9.885 -0.5860 -1.2600 -0.5931
29443SOL     OW97106  10.693   7.966  11.973 -0.2352 -0.1327  0.6865
29443SOL    HW197107  10.619   7.925  11.927 -1.3619 -0.4270  2.6557
29443SOL    HW297108  10.706   8.049  11.928 -1.0722 -0.5284 -0.3374
29444SOL     OW97109   4.744   0.534  11.910  0.5082 -0.2157 -0.8068
29444SOL    HW197110   4.806   0.462  11.918  0.8106 -0.0011 -1.2055
29444SOL    HW297111   4.784   0.606  11.959  0.0208 -0.4340 -0.0714
29445SOL     OW97112   6.060   8.078   2.731  0.1593 -0.3324 -0.1297
29445SOL    HW197113   6.092   8.103   2.817  0.7575  0.6978 -0.6412
29445SOL    HW297114   5.988   8.138   2.713  0.5697 -0.0022 -0.6944
29446SOL     OW97115   1.094   9.202   7.552 -0.1172 -0.0665  0.3692
29446SOL    HW197116   1.181   9.202   7.592  0.4181  1.2065 -0.7138
29446SOL    HW297117   1.036   9.167   7.620  1.3351 -1.7343  0.8473
29447SOL     OW97118   6.740   7.216   7.437 -0.3946 -0.0488  0.0962
29447SOL    HW197119   6.801   7.291   7.440  1.4162 -1.4448  0.0273
29447SOL    HW297120   6.686   7.227   7.514 -0.6576  1.7079 -0.2809
29448SOL     OW97121   4.642   1.843  10.650  0.0253  0.0975  0.4169
29448SOL    HW197122   4.736   1.862  10.643 -0.2238  0.9861 -1.0730
29448SOL    HW297123   4.601   1.929  10.658 -0.6281 -0.3377  2.1469
29449SOL     OW97124  11.733  11.162   6.483  0.2690  0.0166  0.3202
29449SOL    HW197125  11.820  11.197   6.501  0.0244  0.0384  1.5319
29449SOL    HW297126  11.714  11.191   6.393  1.5120 -0.0233  0.0247
29450SOL     OW97127   2.748   2.525   5.113 -0.4779 -0.2627 -0.5170
29450SOL    HW197128   2.761   2.518   5.018  1.8877 -0.1014 -0.2549
29450SOL    HW297129   2.716   2.614   5.126  0.9253  0.3458 -1.0425
29451SOL     OW97130   7.632  12.138   5.924  0.2946 -0.3537 -0.2201
29451SOL    HW197131   7.648  12.117   5.832 -1.5196 -2.2645 -0.1783
29451SOL    HW297132   7.625  12.053   5.967  1.1885  0.5081  1.7455
29452SOL     OW97133   7.785  11.768   2.540 -0.1677 -0.2586  0.5858
29452SOL    HW197134   7.731  11.689   2.542  0.9169 -1.1905 -2.1266
29452SOL    HW297135   7.723  11.838   2.518 -0.7030 -0.8994 -0.0434
29453SOL     OW97136   0.819   7.991  11.486  0.2384  0.0915  0.3043
29453SOL    HW197137   0.870   7.914  11.462  0.3095  0.0597  0.5629
29453SOL    HW297138   0.737   7.957  11.520  0.8424  0.0809  1.8057
29454SOL     OW97139  12.213   8.602   4.948 -0.3789 -0.1456 -0.3599
29454SOL    HW197140  12.252   8.523   4.911  0.7230 -0.1772  0.8171
29454SOL    HW297141  12.171   8.645   4.873 -1.3690 -2.0310 -0.9539
29455SOL     OW97142  11.517   3.394   8.204 -0.0436 -0.0194  0.0633
29455SOL    HW197143  11.598   3.446   8.209  0.5461 -0.9499  0.5434
29455SOL    HW297144  11.457   3.448   8.153  1.5384 -0.1291 -2.0996
29456SOL     OW97145   4.625   5.975   2.866 -0.7841  0.1611  0.2535
29456SOL    HW197146   4.554   5.936   2.918  0.8004 -1.7216  1.1181
29456SOL    HW297147   4.682   5.902   2.843  0.4624  1.4925 -1.1353
29457SOL     OW97148   9.795   6.160   1.375  0.1100 -0.1447 -0.0890
29457SOL    HW197149   9.805   6.184   1.467  0.7067 -0.5032 -0.0568
29457SOL    HW297150   9.723   6.215   1.344  0.7101  0.8745  0.2723
29458SOL     OW97151   9.050   6.702  10.625 -0.1118  0.3498 -0.3240
29458SOL    HW197152   9.139   6.675  10.604 -0.6148 -0.4796 -1.4592
29458SOL    HW297153   8.994   6.638  10.582 -1.2573  0.0792  1.4800
29459SOL     OW97154   8.191   2.171   4.554 -0.4326 -0.0182 -0.1722
29459SOL    HW197155   8.285   2.151   4.545 -0.7155 -1.3731 -0.3398
29459SOL    HW297156   8.162   2.113   4.625 -0.9249  1.2191  0.6731
29460SOL     OW97157   7.261  11.008   3.260  0.0790  0.0637 -0.1822
29460SOL    HW197158   7.327  11.022   3.192 -0.3563 -1.8497 -1.0695
29460SOL    HW297159   7.185  11.058   3.231  0.4151  0.5063 -0.3007
29461SOL     OW97160   0.860   5.171   3.104  0.0472 -0.2361 -0.0882
29461SOL    HW197161   0.841   5.170   3.010  1.6833  0.3062 -0.4478
29461SOL    HW297162   0.832   5.085   3.135  2.3533 -1.6915 -1.7167
29462SOL     OW97163   6.945   6.067  12.127  0.4170 -0.0522  0.4065
29462SOL    HW197164   6.997   6.064  12.207  0.1328  0.3038  0.6055
29462SOL    HW297165   6.998   6.020  12.062  0.3400 -0.9749  0.9839
29463SOL     OW97166   1.919   0.058   9.165 -0.4278 -0.1971  0.3894
29463SOL    HW197167   2.000   0.008   9.154 -0.5986 -0.6839  1.2751
29463SOL    HW297168   1.889   0.037   9.253 -0.8478  0.9791  0.5492
29464SOL     OW97169   2.322   8.711  10.258  0.0690 -0.1089 -0.3588
29464SOL    HW197170   2.362   8.647  10.199  0.7791 -0.1723  0.1692
29464SOL    HW297171   2.396   8.747  10.308 -0.4152  0.5665 -0.1163
29465SOL     OW97172   5.858   0.074   1.789 -0.1933  0.3501  0.5492
29465SOL    HW197173   5.804   0.121   1.853  1.5858  0.6069  1.9262
29465SOL    HW297174   5.896   0.001   1.838  1.6485  0.8711 -0.0183
29466SOL     OW97175   1.650   0.344   0.133 -0.1292  0.1315  0.2273
29466SOL    HW197176   1.610   0.415   0.183  0.2569 -0.4644  1.4141
29466SOL    HW297177   1.596   0.338   0.054 -1.4549  0.3646  1.0700
29467SOL     OW97178   1.296   2.160   1.752  0.2646 -0.1524 -0.2774
29467SOL    HW197179   1.215   2.111   1.760 -0.2504  0.5340 -1.0795
29467SOL    HW297180   1.353   2.105   1.698  0.5306 -0.8475  0.6779
29468SOL     OW97181   8.129   5.041   1.019  0.2077 -0.9210 -0.0079
29468SOL    HW197182   8.061   5.064   0.956  0.9310 -0.6344 -0.7065
29468SOL    HW297183   8.085   4.985   1.083 -1.0239  0.4330  0.3790
29469SOL     OW97184   6.095  12.292   1.024  0.2708 -0.1747 -0.1463
29469SOL    HW197185   6.083  12.205   1.061  0.5954  0.0933  0.6146
29469SOL    HW297186   6.081  12.351   1.098  0.5253  0.3971 -0.5497
29470SOL     OW97187   5.430   8.397  12.075 -0.0022 -0.6985 -0.0345
29470SOL    HW197188   5.416   8.400  12.170  2.0974 -0.7939  0.3244
29470SOL    HW297189   5.396   8.312  12.048 -0.3589 -0.7918  0.6890
29471SOL     OW97190   2.284   2.895   3.621 -0.0820 -0.3366  0.2373
29471SOL    HW197191   2.349   2.827   3.636  0.1870  0.2162  1.8222
29471SOL    HW297192   2.301   2.960   3.690 -2.3881 -0.2384  0.8118
29472SOL     OW97193  12.583  10.656  10.845  0.0080  0.4352 -0.2482
29472SOL    HW197194  12.558  10.672  10.754  0.6380  0.5881 -0.3990
29472SOL    HW297195  12.598  10.562  10.850 -0.3613  0.3743 -0.2100
29473SOL     OW97196   7.651   3.828  11.682 -0.1934 -0.2360  0.2583
29473SOL    HW197197   7.578   3.843  11.741  0.2192  0.7939  0.5241
29473SOL    HW297198   7.728   3.862  11.729  0.3742 -0.7912 -0.2419
29474SOL     OW97199   7.018   7.005   7.899 -0.3791 -0.0710 -0.3254
29474SOL    HW197200   6.971   7.086   7.880 -1.0794 -0.3641  0.1308
29474SOL    HW297201   6.993   6.946   7.828 -1.9422 -0.7273  0.7119
29475SOL     OW97202   8.015   1.815   8.737 -0.6456 -0.4814  0.2143
29475SOL    HW197203   8.093   1.804   8.791 -0.7997  1.4078  0.9000
29475SOL    HW297204   7.943   1.780   8.790 -0.6354  0.3333  0.7788
29476SOL     OW97205   5.486   8.676   5.806  0.0160  0.5553  0.4715
29476SOL    HW197206   5.557   8.694   5.745  0.3996  3.0778  1.5356
29476SOL    HW297207   5.527   8.683   5.893 -1.1190 -0.0043  1.0784
29477SOL     OW97208   2.834   0.204  11.124  0.5650 -0.4714 -0.5765
29477SOL    HW197209   2.922   0.171  11.144  0.2230  0.2630  2.6095
29477SOL    HW297210   2.838   0.297  11.147 -0.3185  0.2852 -3.1313
29478SOL     OW97211  11.691   0.077   7.424 -0.1980 -0.1915  0.2910
29478SOL    HW197212  11.655   0.166   7.434 -3.1486 -0.9133 -2.3862
29478SOL    HW297213  11.627   0.020   7.467  0.5454 -1.2015  0.0959
29479SOL     OW97214   7.451   1.072   5.965 -0.0233 -0.1877  0.0526
29479SOL    HW197215   7.460   1.068   5.870  0.3958 -1.2391  0.1210
29479SOL    HW297216   7.491   0.991   5.997 -0.6849 -0.1308  1.0932
29480SOL     OW97217   9.113  12.161   6.311  0.1693 -0.2677  0.9912
29480SOL    HW197218   9.124  12.235   6.370 -0.9088 -0.8555  1.9600
29480SOL    HW297219   9.197  12.114   6.316  2.1238  2.4311 -1.9985
29481SOL     OW97220   2.294   9.105   7.805  0.3182  0.3723 -0.2364
29481SOL    HW197221   2.261   9.194   7.790 -0.1752 -0.0572 -1.8915
29481SOL    HW297222   2.221   9.059   7.846  1.2333  1.2050  2.5120
29482SOL     OW97223   6.578   5.207   7.067  0.1366 -0.6415  0.1096
29482SOL    HW197224   6.640   5.278   7.051 -0.6679 -0.1541 -0.9240
29482SOL    HW297225   6.602   5.139   7.004  0.4558 -1.0113  0.6196
29483SOL     OW97226   9.501   1.380   7.160  0.2282 -0.0063 -0.2556
29483SOL    HW197227   9.570   1.401   7.223 -0.2924  1.0524 -0.0061
29483SOL    HW297228   9.468   1.466   7.132 -0.9727 -0.4883 -0.3779
29484SOL     OW97229   1.474   0.138   3.904  0.0654 -0.4877  0.2664
29484SOL    HW197230   1.529   0.217   3.899  0.8659 -0.9975  0.8385
29484SOL    HW297231   1.492   0.101   3.991 -0.6646 -1.0465  0.1911
29485SOL     OW97232   1.300  11.942   6.606 -0.2538 -0.3282 -0.1130
29485SOL    HW197233   1.373  11.912   6.552 -1.0699 -1.6724 -0.4946
29485SOL    HW297234   1.226  11.950   6.546 -0.2350  2.0208  0.0617
29486SOL     OW97235  10.760   3.496   0.325 -0.8638  0.2062 -0.5108
29486SOL    HW197236  10.815   3.571   0.349 -1.6599  1.2382 -1.7468
29486SOL    HW297237  10.688   3.535   0.275 -2.0721 -1.2458  0.0365
29487SOL     OW97238   2.816   8.991   2.752  0.1293  0.1936  0.1077
29487SOL    HW197239   2.911   8.985   2.741  0.1716  0.8364  0.0786
29487SOL    HW297240   2.783   9.002   2.662 -0.0569 -1.0141  0.0187
29488SOL     OW97241  12.447   4.280   1.507  0.3890  1.2729 -0.0212
29488SOL    HW197242  12.479   4.211   1.565  1.8405  1.7157 -0.2721
29488SOL    HW297243  12.352   4.275   1.516  0.0904 -3.1243 -2.6608
29489SOL     OW97244   0.255   6.880   6.483 -0.2386  0.1254  0.0064
29489SOL    HW197245   0.230   6.873   6.390  0.9670 -1.0245 -0.2608
29489SOL    HW297246   0.219   6.802   6.523 -0.7110  0.5965  0.5086
29490SOL     OW97247   7.101   5.199  10.066  0.0614 -0.0383 -0.3655
29490SOL    HW197248   7.132   5.110  10.050 -0.6242 -0.2730 -0.4203
29490SOL    HW297249   7.176   5.255  10.045  0.7179 -0.6386  0.3139
29491SOL     OW97250   1.737   6.627   8.791 -0.3508 -0.6269 -0.4014
29491SOL    HW197251   1.730   6.533   8.807  1.1683 -0.6719  0.1681
29491SOL    HW297252   1.728   6.636   8.696 -0.1825 -1.3939 -0.4936
29492SOL     OW97253   4.771  10.071   4.903 -1.4730 -0.6547  0.2323
29492SOL    HW197254   4.815   9.996   4.946  1.8351  1.2598  0.5779
29492SOL    HW297255   4.736  10.122   4.976  0.4077  0.4169  0.4610
29493SOL     OW97256  10.615   6.727   0.896 -0.0852  0.2004  0.0955
29493SOL    HW197257  10.576   6.699   0.979  0.0074  0.0267  0.0797
29493SOL    HW297258  10.629   6.646   0.847 -0.1006  0.2994 -0.0736
29494SOL     OW97259   1.580  12.105   1.908  0.3094  0.1162 -0.2211
29494SOL    HW197260   1.645  12.107   1.838  0.6401  0.3545  0.0843
29494SOL    HW297261   1.506  12.056   1.872 -0.2789  1.7542 -1.4045
29495SOL     OW97262   2.475   4.526   8.638 -0.6010  0.0699 -0.0266
29495SOL    HW197263   2.499   4.616   8.661  1.9091 -0.3897 -0.5708
29495SOL    HW297264   2.388   4.534   8.599 -0.2147  2.3433 -0.5711
29496SOL     OW97265  11.250   2.624  10.366  1.1052  0.0947  0.0605
29496SOL    HW197266  11.275   2.638  10.457  0.6798  2.3453 -0.1055
29496SOL    HW297267  11.281   2.702  10.320 -0.4658 -0.0487 -1.3493
29497SOL     OW97268   3.418   8.961   7.143  0.6300 -0.3258  0.4023
29497SOL    HW197269   3.463   8.935   7.062  0.9504  1.9495 -0.2088
29497SOL    HW297270   3.483   8.949   7.212  0.1905 -2.8031  0.4760
29498SOL     OW97271   6.779  12.105   1.070 -0.0466  0.5565 -0.1296
29498SOL    HW197272   6.746  12.195   1.077  0.1382  0.5201  1.6530
29498SOL    HW297273   6.873  12.112   1.087 -0.1926 -0.0816  1.0083
29499SOL     OW97274   0.181   6.088   6.195 -0.2625 -0.1272 -0.3129
29499SOL    HW197275   0.248   6.032   6.156  2.2188  1.3801  1.5032
29499SOL    HW297276   0.170   6.160   6.132  2.9130  1.7152  0.9824
29500SOL     OW97277   7.059  12.152  11.540  0.3615  0.2373  0.3149
29500SOL    HW197278   6.974  12.183  11.510  0.9463  0.2441 -1.5116
29500SOL    HW297279   7.089  12.219  11.601 -0.6794  0.5346  0.5231
29501SOL     OW97280   4.188   6.139  12.456  0.6462 -0.2859 -0.2798
29501SOL    HW197281   4.273   6.121  12.417  1.0185  0.0956  0.3478
29501SOL    HW297282   4.180   6.075  12.527  0.1202 -0.7496 -0.7421
29502SOL     OW97283   4.168   0.184   1.689 -0.3100  0.3810  0.3407
29502SOL    HW197284   4.088   0.193   1.741 -0.7734 -0.9579 -0.0970
29502SOL    HW297285   4.142   0.130   1.614  0.3489  2.1733 -1.2684
29503SOL     OW97286   3.004   7.105  12.162  0.1953 -0.4316 -0.1615
29503SOL    HW197287   3.082   7.158  12.146  1.0170 -0.8318  2.1353
29503SOL    HW297288   2.932   7.169  12.161  0.7534  0.2083 -0.6180
29504SOL     OW97289  11.944   0.358   9.303  0.1226  0.2065 -0.1653
29504SOL    HW197290  11.950   0.432   9.243 -0.8424  0.1270 -0.3746
29504SOL    HW297291  11.864   0.373   9.353  0.0015 -0.6088 -0.0935
29505SOL     OW97292  10.538   2.736   1.462 -0.7324  0.1563  0.2880
29505SOL    HW197293  10.491   2.675   1.519  0.6706 -1.3027 -0.0432
29505SOL    HW297294  10.582   2.797   1.521  0.2100 -0.9663  0.7813
29506SOL     OW97295   5.848   0.529  11.492  0.3341 -0.4274  0.2021
29506SOL    HW197296   5.797   0.527  11.572 -0.5347 -0.0907 -0.3305
29506SOL    HW297297   5.806   0.465  11.434  1.7300 -1.6219  0.4555
29507SOL     OW97298   8.466   0.843   8.058 -0.3151  0.2392  0.0799
29507SOL    HW197299   8.550   0.798   8.047 -1.3112 -1.8398  0.5004
29507SOL    HW297300   8.401   0.774   8.048 -1.8894  1.3568  2.0095
29508SOL     OW97301   0.762   4.933   6.847 -0.1490  0.2440  0.0798
29508SOL    HW197302   0.761   4.873   6.922  0.7236  0.0178 -0.0790
29508SOL    HW297303   0.672   4.967   6.843  0.1649  1.5431  2.2537
29509SOL     OW97304   6.021   0.744   1.640  0.1508  0.2691 -0.1800
29509SOL    HW197305   6.046   0.691   1.565 -0.1149 -0.8875  0.5116
29509SOL    HW297306   5.983   0.824   1.603 -0.1325 -0.3590 -1.2638
29510SOL     OW97307   9.112  10.399   3.936 -0.1598  0.3074  0.5547
29510SOL    HW197308   9.050  10.440   3.875  0.0532  0.5707  0.5135
29510SOL    HW297309   9.188  10.379   3.881 -1.1673 -2.3872 -0.0046
29511SOL     OW97310   4.911  10.801   7.397  0.2192 -0.2211 -0.2863
29511SOL    HW197311   4.846  10.785   7.329 -0.1124  0.1708 -0.0572
29511SOL    HW297312   4.862  10.799   7.478  0.3587  0.8900 -0.1710
29512SOL     OW97313   3.817   3.226   0.909  0.2690 -0.2447 -0.2989
29512SOL    HW197314   3.908   3.200   0.897  0.4454  0.5052 -0.6540
29512SOL    HW297315   3.809   3.309   0.861 -0.4933 -0.0965  0.0665
29513SOL     OW97316   8.859   2.643   0.408  0.1187 -0.3860  0.4355
29513SOL    HW197317   8.840   2.672   0.319  2.9645 -3.2920 -1.3590
29513SOL    HW297318   8.928   2.702   0.438  0.0680 -0.1950  0.1799
29514SOL     OW97319   3.983   2.328   9.643 -0.0758 -0.4813 -0.8174
29514SOL    HW197320   3.990   2.424   9.646  0.4703 -0.4874  2.4569
29514SOL    HW297321   4.070   2.298   9.621 -0.0954 -0.2176 -1.2514
29515SOL     OW97322   3.787   1.066  11.785  0.0331 -0.3252  0.3837
29515SOL    HW197323   3.693   1.065  11.805  0.2694  1.1419  1.7868
29515SOL    HW297324   3.812   1.158  11.793  1.5593 -0.6495 -0.2351
29516SOL     OW97325   7.072   6.361  10.077  0.2900 -0.1928 -0.5365
29516SOL    HW197326   7.143   6.334  10.018  0.5064  0.1391 -0.4340
29516SOL    HW297327   7.089   6.313  10.158  0.4110 -0.0967 -0.5048
29517SOL     OW97328  11.790   5.673   3.400 -0.2273  0.1961 -0.4282
29517SOL    HW197329  11.833   5.724   3.469 -1.0291 -1.0631  1.0600
29517SOL    HW297330  11.861   5.623   3.359  0.0534 -0.2217  0.5449
29518SOL     OW97331  12.167   1.297   3.938 -0.1659 -0.4332  0.1277
29518SOL    HW197332  12.148   1.391   3.934  0.5450 -0.3065 -0.5678
29518SOL    HW297333  12.242   1.291   3.997  0.2971 -0.4698 -0.4543
29519SOL     OW97334  12.000  11.669  11.292 -0.0049  0.1348  0.3958
29519SOL    HW197335  11.937  11.598  11.304  1.0941 -1.3692 -1.9725
29519SOL    HW297336  11.948  11.741  11.257 -1.0263  0.3791  2.2375
29520SOL     OW97337   6.391   4.532   4.508 -1.0278 -0.1298 -0.1678
29520SOL    HW197338   6.385   4.571   4.421  3.5109 -1.4573 -1.3737
29520SOL    HW297339   6.386   4.438   4.493  1.4807 -0.4664  0.6067
29521SOL     OW97340   8.011   7.649  11.691  0.0051 -0.2860  0.4786
29521SOL    HW197341   8.098   7.659  11.728  0.0971 -1.6380  0.6774
29521SOL    HW297342   7.970   7.581  11.744  0.1043 -2.2194 -1.7638
29522SOL     OW97343   8.175   0.980  12.006 -0.3381 -0.1217 -0.0604
29522SOL    HW197344   8.163   0.942  11.919  0.0716 -0.0607 -0.1465
29522SOL    HW297345   8.233   0.919  12.050 -2.5249 -1.5056  1.0613
29523SOL     OW97346  11.278   5.055  10.321  0.1193 -0.7939  0.0136
29523SOL    HW197347  11.222   5.042  10.397  0.6288 -0.6962  0.4142
29523SOL    HW297348  11.218   5.058  10.246 -0.4285 -0.3656  0.4686
29524SOL     OW97349   6.751  11.406   8.017  0.1113 -0.0271 -0.4634
29524SOL    HW197350   6.669  11.383   8.062 -0.5176  1.9457 -0.4963
29524SOL    HW297351   6.728  11.406   7.924  0.3427 -0.1741 -0.5206
29525SOL     OW97352  10.586   3.214   8.605  0.1156  0.4524 -0.0126
29525SOL    HW197353  10.507   3.186   8.652 -0.1827 -1.6969 -1.6878
29525SOL    HW297354  10.553   3.250   8.523  0.8444  0.4552 -0.3058
29526SOL     OW97355   1.987   7.710  10.857  0.7799  0.4738 -0.0074
29526SOL    HW197356   2.051   7.781  10.848 -0.3961  1.4054 -1.3594
29526SOL    HW297357   1.909   7.752  10.891  0.2202 -0.2612 -0.3645
29527SOL     OW97358  11.718   2.937   5.248 -0.1800  0.3059  0.1627
29527SOL    HW197359  11.655   2.977   5.188 -1.1926 -0.3508  0.7532
29527SOL    HW297360  11.751   2.861   5.201 -1.3818 -0.5223  0.6156
29528SOL     OW97361   4.314  11.484   7.581  0.2933  0.0839 -0.0427
29528SOL    HW197362   4.306  11.502   7.675  2.6931 -1.1650  0.4789
29528SOL    HW297363   4.290  11.567   7.539 -0.0518  0.9213  1.6875
29529SOL     OW97364   4.035  11.582   7.212 -0.2723  0.2663 -0.3388
29529SOL    HW197365   4.064  11.630   7.290 -1.6502  2.0326 -0.8240
29529SOL    HW297366   4.101  11.514   7.199  1.2322  1.3823  1.0329
29530SOL     OW97367   1.921  11.863   0.553 -0.3409 -0.0547  0.4816
29530SOL    HW197368   1.951  11.950   0.527  0.4722 -0.2967  0.5809
29530SOL    HW297369   2.001  11.810   0.557 -1.0245 -1.3529 -1.6193
29531SOL     OW97370  12.302  11.500   4.409 -0.0299  0.4044 -0.7623
29531SOL    HW197371  12.362  11.574   4.416  0.7269 -0.0051 -2.4470
29531SOL    HW297372  12.257  11.513   4.325 -1.2975 -0.0301 -0.1778
29532SOL     OW97373   0.138  10.769   0.547 -0.4969 -0.1926  0.5597
29532SOL    HW197374   0.182  10.849   0.517  1.7771 -0.6652  2.2690
29532SOL    HW297375   0.049  10.796   0.566 -0.2176  1.5610 -0.4233
29533SOL     OW97376   7.727  11.369   8.838 -0.1170  0.6998  0.0572
29533SOL    HW197377   7.689  11.340   8.921  2.1238  0.5554  1.1300
29533SOL    HW297378   7.736  11.464   8.847 -0.7351  0.8092 -0.4271
29534SOL     OW97379   5.340   7.280  12.143  0.0345 -0.4827 -0.2614
29534SOL    HW197380   5.390   7.360  12.161  0.9072 -0.9209 -0.7010
29534SOL    HW297381   5.322   7.244  12.230 -0.6894  0.3712 -0.0397
29535SOL     OW97382  11.382  10.101   1.487 -0.2740 -0.0020 -0.1827
29535SOL    HW197383  11.381  10.010   1.519  1.8177  0.2950  0.8640
29535SOL    HW297384  11.425  10.150   1.557  1.1797  1.3177 -1.9433
29536SOL     OW97385   9.316   7.113  11.571  0.3131  0.0913 -0.8473
29536SOL    HW197386   9.346   7.135  11.659  0.7681  1.5278 -1.3392
29536SOL    HW297387   9.295   7.020  11.575  0.6313  0.0703  0.6902
29537SOL     OW97388   5.662   0.994   1.602 -0.5051 -0.3456  0.5454
29537SOL    HW197389   5.620   0.954   1.678 -2.4426  2.0065  0.8488
29537SOL    HW297390   5.688   1.081   1.632  2.8057 -0.9055 -0.3046
29538SOL     OW97391   6.947  12.119   6.518  0.7308 -0.1332 -0.4523
29538SOL    HW197392   6.856  12.117   6.546  1.2860  0.0711  1.5205
29538SOL    HW297393   6.950  12.185   6.450 -0.5551  0.0238 -0.3751
29539SOL     OW97394   9.890   4.061  12.115 -0.0233  0.4496  0.3351
29539SOL    HW197395   9.985   4.054  12.102 -0.0406 -0.4528  0.6408
29539SOL    HW297396   9.877   4.149  12.150  0.5743  1.0037 -0.7731
29540SOL     OW97397   6.278   8.947   3.513  0.3896 -0.1896 -0.4937
29540SOL    HW197398   6.354   8.984   3.559 -1.4441 -0.5687  3.1778
29540SOL    HW297399   6.303   8.857   3.495  1.3618  0.1255 -0.8106
29541SOL     OW97400   2.760   6.918  11.341 -0.0994 -0.0485 -0.0831
29541SOL    HW197401   2.719   6.885  11.422 -0.2706  3.0862  1.2505
29541SOL    HW297402   2.852   6.895  11.350  0.5332  2.8607  2.6685
29542SOL     OW97403   2.786   7.922   8.434  0.2836 -0.4497 -0.1716
29542SOL    HW197404   2.735   7.928   8.353  1.6896 -1.5224 -1.1809
29542SOL    HW297405   2.724   7.946   8.503 -0.9223  0.6129 -1.5537
29543SOL     OW97406   7.004   8.502  10.754 -0.4025  0.1981  0.5549
29543SOL    HW197407   6.942   8.548  10.810  1.3083  3.5973 -0.1278
29543SOL    HW297408   7.054   8.571  10.710  2.1917 -2.3317 -0.8273
29544SOL     OW97409   0.691   2.118   3.203  0.3236  0.4576 -0.1620
29544SOL    HW197410   0.746   2.043   3.225  0.7443  1.1603  1.2690
29544SOL    HW297411   0.613   2.107   3.258  0.5253  1.2188  0.2877
29545SOL     OW97412   1.055   9.250   6.968  0.3664 -0.5359 -0.2565
29545SOL    HW197413   1.089   9.182   6.910  0.6576  0.1962 -0.9528
29545SOL    HW297414   1.019   9.201   7.043 -1.4999 -1.6163 -1.7590
29546SOL     OW97415   4.527   2.522   5.722 -0.1105  0.1758  0.2703
29546SOL    HW197416   4.436   2.545   5.741  0.1573 -0.0740  2.0647
29546SOL    HW297417   4.571   2.606   5.712 -0.4425  0.3074 -0.0977
29547SOL     OW97418   8.308   0.964   0.140 -0.0570  0.4536 -0.2789
29547SOL    HW197419   8.232   1.021   0.125  0.0220  0.6443  0.0442
29547SOL    HW297420   8.383   1.023   0.142 -0.0685  0.4547  0.9454
29548SOL     OW97421   5.560   3.272  11.801 -0.2610  0.3537 -0.6346
29548SOL    HW197422   5.467   3.264  11.780 -0.6051  0.9799  0.5431
29548SOL    HW297423   5.605   3.247  11.720 -1.3969 -1.5546 -0.7446
29549SOL     OW97424   1.103   3.177  10.043 -0.0719  0.7912 -0.3079
29549SOL    HW197425   1.106   3.116  10.116 -0.2269  1.8414  0.5963
29549SOL    HW297426   1.192   3.175  10.007  0.1174  0.5700  0.1643
29550SOL     OW97427   2.912   1.554   9.790 -0.1203  0.1427  0.0053
29550SOL    HW197428   2.824   1.584   9.771 -0.2012 -0.3213 -0.3825
29550SOL    HW297429   2.901   1.462   9.814  0.1593  0.3149  0.8246
29551SOL     OW97430   8.413   0.247   3.174 -0.0052  0.4706 -0.0631
29551SOL    HW197431   8.385   0.320   3.118  1.0668  0.1229 -1.0833
29551SOL    HW297432   8.450   0.184   3.113  1.4659  0.1984  1.0801
29552SOL     OW97433   2.980   8.355   3.676  0.0039  0.0641 -0.1260
29552SOL    HW197434   3.032   8.396   3.745 -0.2429 -1.7212  1.1935
29552SOL    HW297435   2.916   8.302   3.723 -2.2088  1.1469 -1.7131
29553SOL     OW97436   5.063   3.669   3.606 -0.4400 -0.1022 -0.1785
29553SOL    HW197437   5.147   3.655   3.562  0.0506  0.2624  0.6191
29553SOL    HW297438   5.083   3.729   3.677 -1.7219  1.4613 -1.0729
29554SOL     OW97439   7.206   3.817   9.217 -0.7226 -0.0997  0.2637
29554SOL    HW197440   7.213   3.911   9.231 -0.6953  0.0045 -0.4104
29554SOL    HW297441   7.297   3.788   9.204 -0.7900 -0.0986 -0.2376
29555SOL     OW97442   5.284   8.020   1.078  1.0834 -0.1658  0.2075
29555SOL    HW197443   5.365   7.986   1.041  2.1680  1.6931  0.7152
29555SOL    HW297444   5.237   8.056   1.002  1.0903 -0.5606  0.0139
29556SOL     OW97445   1.764   3.428  11.567 -0.6534  0.1564  0.3956
29556SOL    HW197446   1.814   3.493  11.617 -0.7279  0.4141  0.1350
29556SOL    HW297447   1.788   3.445  11.476 -0.9948  0.0921  0.2936
29557SOL     OW97448   3.577   0.658   4.826  0.6651 -0.1435 -0.0749
29557SOL    HW197449   3.578   0.720   4.899 -0.3678 -1.6945  1.3503
29557SOL    HW297450   3.641   0.591   4.851 -0.2968 -1.1177 -0.1700
29558SOL     OW97451  10.580   0.280   7.170 -0.1325  0.2088  0.0065
29558SOL    HW197452  10.592   0.366   7.130  1.1220  0.3370  0.5748
29558SOL    HW297453  10.520   0.296   7.243 -0.1595  0.5437 -0.0858
29559SOL     OW97454  11.842   7.262   4.623  0.2342 -0.0641  0.0882
29559SOL    HW197455  11.913   7.324   4.607  0.0189  0.2944  0.4956
29559SOL    HW297456  11.781   7.309   4.680  0.3720 -0.8587  0.9235
29560SOL     OW97457   9.661   9.682   2.373  0.5430  0.3597  0.5807
29560SOL    HW197458   9.595   9.638   2.426 -0.9286  0.7654 -0.8487
29560SOL    HW297459   9.664   9.631   2.292  4.2814 -1.5695  1.6759
29561SOL     OW97460   1.791   6.742   0.948  0.0887  0.1442 -0.8773
29561SOL    HW197461   1.817   6.810   1.010  0.4541  0.9626 -1.9066
29561SOL    HW297462   1.705   6.769   0.916 -0.4210 -0.6475 -0.2172
29562SOL     OW97463   5.144   6.557   6.670 -0.0667  0.2230 -0.1239
29562SOL    HW197464   5.107   6.556   6.582  0.5546 -0.1171 -0.3926
29562SOL    HW297465   5.161   6.465   6.690  0.3875  0.3464  0.0823
29563SOL     OW97466   2.918  10.550   7.230 -0.3178 -0.0589 -0.0095
29563SOL    HW197467   3.011  10.533   7.241 -0.0715  1.0262 -0.2998
29563SOL    HW297468   2.904  10.636   7.269 -1.2425 -0.2975  0.2186
29564SOL     OW97469   3.857   0.579   2.266  0.9354 -0.1595  0.3421
29564SOL    HW197470   3.809   0.537   2.195  2.5846 -0.2136 -0.7985
29564SOL    HW297471   3.900   0.655   2.225  2.1696 -0.3706  1.1682
29565SOL     OW97472   4.825   0.717   4.299 -0.0972 -0.0548  0.5312
29565SOL    HW197473   4.916   0.693   4.317  0.6088  0.9694 -1.4061
29565SOL    HW297474   4.794   0.755   4.381  1.6462  0.8117  0.8454
29566SOL     OW97475   2.616  12.333   2.052  0.1860 -0.0404  0.2467
29566SOL    HW197476   2.630  12.241   2.075 -0.3173  0.0741  1.0701
29566SOL    HW297477   2.663  12.345   1.970 -0.3624 -1.2229 -0.2631
29567SOL     OW97478  12.464   3.937   3.994  0.2398 -0.7429  0.4123
29567SOL    HW197479  12.379   3.980   3.988  0.0200 -1.1442  0.5892
29567SOL    HW297480  12.524   4.005   4.025  0.0988 -0.3112 -0.2466
29568SOL     OW97481   1.568   9.424   7.235 -0.9903  0.4963 -0.2318
29568SOL    HW197482   1.658   9.430   7.264 -1.1110  0.2698  0.1953
29568SOL    HW297483   1.516   9.452   7.310 -1.2301  2.3462 -1.0172
29569SOL     OW97484   2.743   8.608   7.075 -0.5890 -0.4169 -0.6077
29569SOL    HW197485   2.708   8.545   7.138  2.7215 -1.2709  0.5659
29569SOL    HW297486   2.738   8.692   7.121  0.0216 -0.7353  0.0720
29570SOL     OW97487   3.904   7.556   0.215 -0.2657  0.7206 -0.2967
29570SOL    HW197488   3.982   7.512   0.180 -1.3165 -1.2721 -0.2979
29570SOL    HW297489   3.934   7.596   0.296  0.8122  0.1086 -0.3673
29571SOL     OW97490   5.197   1.421   7.978 -0.3022  0.0200  0.6804
29571SOL    HW197491   5.182   1.384   7.891 -0.0885 -0.6046  0.9075
29571SOL    HW297492   5.192   1.516   7.964 -2.0544 -0.0880  0.3150
29572SOL     OW97493   0.789  12.462   9.828  0.5127 -0.3676 -0.2536
29572SOL    HW197494   0.710  12.515   9.843  0.3973 -0.7598  0.5885
29572SOL    HW297495   0.808  12.423   9.913  1.6327 -0.2685 -0.4410
29573SOL     OW97496   1.519   2.129   0.228  0.0111 -0.6225 -0.4711
29573SOL    HW197497   1.464   2.204   0.248  1.5716  0.1325  1.3081
29573SOL    HW297498   1.467   2.053   0.257 -0.2203  0.0488  0.9788
29574SOL     OW97499   1.676   3.889   9.669  0.0617  0.5327  0.4779
29574SOL    HW197500   1.702   3.823   9.734 -0.6980 -0.6295 -0.3642
29574SOL    HW297501   1.721   3.969   9.697  1.7070 -0.5381  1.0357
29575SOL     OW97502   1.466   0.845   4.089 -0.0674  0.1078  0.7805
29575SOL    HW197503   1.485   0.815   4.000  1.5347  0.4662  0.9756
29575SOL    HW297504   1.408   0.778   4.125 -0.8516  0.0279 -0.5645
29576SOL     OW97505   8.560  11.295   6.311  0.3116  0.2113 -0.1084
29576SOL    HW197506   8.640  11.276   6.361 -0.0163  2.1381  1.2822
29576SOL    HW297507   8.491  11.250   6.359 -0.1369  2.7463  1.8941
29577SOL     OW97508   3.762   2.427   7.800 -0.7598 -0.3999  0.6110
29577SOL    HW197509   3.747   2.521   7.786  1.5761  0.0168  0.5012
29577SOL    HW297510   3.743   2.388   7.715  1.9411  0.5501 -0.5323
29578SOL     OW97511   6.151   5.994   8.825 -0.0526  0.5214 -0.1279
29578SOL    HW197512   6.110   6.065   8.874 -0.7495 -0.2225  0.3952
29578SOL    HW297513   6.114   5.914   8.863  1.3703 -0.1647 -0.1081
29579SOL     OW97514   3.063  11.636   9.315 -0.0313  0.3619 -0.2462
29579SOL    HW197515   2.999  11.707   9.318 -0.5455 -0.0745 -0.4955
29579SOL    HW297516   3.066  11.612   9.222  0.9930  0.8101 -0.3389
29580SOL     OW97517   3.136  10.960   9.513 -0.3687  0.7265 -0.1106
29580SOL    HW197518   3.130  10.865   9.506 -0.6305  0.8194 -1.2578
29580SOL    HW297519   3.064  10.984   9.571 -0.1607  0.2150  0.3700
29581SOL     OW97520   7.606   0.949   0.016 -0.0342  0.4653 -0.1758
29581SOL    HW197521   7.699   0.945   0.037 -0.1128 -0.9746  0.0074
29581SOL    HW297522   7.562   0.944   0.101 -0.2846  0.8992 -0.2771
29582SOL     OW97523   1.769  12.136   5.509 -0.4826 -0.5402  0.4796
29582SOL    HW197524   1.818  12.193   5.449 -1.0285  0.7351  1.2006
29582SOL    HW297525   1.829  12.123   5.583 -0.2620 -1.1327  0.2036
29583SOL     OW97526   4.732   6.215   6.860 -0.6754  0.1767  0.0636
29583SOL    HW197527   4.688   6.138   6.823 -0.5690 -0.0028  0.3024
29583SOL    HW297528   4.767   6.262   6.785 -0.9443  0.1160 -0.1013
29584SOL     OW97529  12.107   8.581   6.833  0.3551 -0.0529 -0.1765
29584SOL    HW197530  12.042   8.521   6.871  0.3257 -0.8792 -1.4901
29584SOL    HW297531  12.150   8.530   6.765  2.0210  0.6614  0.2924
29585SOL     OW97532   5.712   7.623   0.290 -0.6600  0.5751 -0.0573
29585SOL    HW197533   5.749   7.548   0.244 -0.6894  0.0442  0.7603
29585SOL    HW297534   5.644   7.585   0.347  0.4120  0.9977  1.5606
29586SOL     OW97535   2.653   7.447  11.887  0.0683  0.2914  0.3896
29586SOL    HW197536   2.594   7.475  11.957  2.1474  0.7797  2.0571
29586SOL    HW297537   2.669   7.354  11.905 -1.5072 -0.3230 -1.1202
29587SOL     OW97538  10.359   0.534   8.553 -0.1921 -0.0619 -0.0384
29587SOL    HW197539  10.288   0.470   8.553  1.3985 -1.9324 -0.6546
29587SOL    HW297540  10.353   0.576   8.468  0.8255 -1.9388 -1.1077
29588SOL     OW97541  10.877   0.784  12.492 -0.3354  0.5021  0.3324
29588SOL    HW197542  10.949   0.781  12.555 -1.3631  2.4377  1.6957
29588SOL    HW297543  10.895   0.860  12.437 -0.5208  0.0312 -0.4092
29589SOL     OW97544  11.068   6.662   7.781 -0.3105  0.3773 -0.1846
29589SOL    HW197545  10.982   6.662   7.740  0.0174 -1.4673 -1.0065
29589SOL    HW297546  11.058   6.716   7.859 -2.1419  0.3950 -0.3936
29590SOL     OW97547   2.915   9.685   9.468  0.0131 -0.5304  0.3502
29590SOL    HW197548   2.958   9.600   9.470 -0.2105 -0.7990 -2.3795
29590SOL    HW297549   2.827   9.668   9.435 -0.0560  0.7388 -0.2000
29591SOL     OW97550   5.119   5.316   2.196 -0.0339  0.5012  0.3644
29591SOL    HW197551   5.178   5.380   2.237  0.1325  0.6266 -0.0737
29591SOL    HW297552   5.174   5.270   2.133 -0.1732 -0.0274  0.6246
29592SOL     OW97553  11.333   2.809   6.354 -0.2906 -0.5311 -0.2098
29592SOL    HW197554  11.415   2.859   6.360  0.2084 -1.4545  1.0414
29592SOL    HW297555  11.286   2.849   6.280  0.7468  0.7949 -0.1926
29593SOL     OW97556  10.228   2.389   6.192  0.2186 -0.4733  0.1470
29593SOL    HW197557  10.279   2.469   6.179  1.1061 -1.2149 -1.0890
29593SOL    HW297558  10.252   2.333   6.118 -2.8935 -0.5966 -0.9256
29594SOL     OW97559   4.690   4.818   5.555 -0.1208  0.3703  0.3560
29594SOL    HW197560   4.609   4.773   5.581  0.2721  0.5018  1.8961
29594SOL    HW297561   4.738   4.753   5.503 -0.3555 -0.3892  1.0713
29595SOL     OW97562   0.739   9.309   9.691 -0.3672  0.8521 -0.0048
29595SOL    HW197563   0.757   9.351   9.606  1.5410  0.0831 -0.0235
29595SOL    HW297564   0.646   9.288   9.687 -0.3236  0.7885 -1.9427
29596SOL     OW97565  11.652  10.447   1.165  0.1684 -0.1858  0.0521
29596SOL    HW197566  11.669  10.362   1.207 -0.3333 -0.8347 -0.9947
29596SOL    HW297567  11.701  10.510   1.217  0.3659 -1.0848  1.0028
29597SOL     OW97568   9.314   6.919   1.092 -0.4021 -0.6964  0.2906
29597SOL    HW197569   9.356   6.906   1.007 -0.6168 -1.3959  0.2810
29597SOL    HW297570   9.320   7.013   1.108 -2.0577 -0.2393 -1.3978
29598SOL     OW97571   1.990   5.825   8.085  0.4474  0.1017  0.5034
29598SOL    HW197572   1.939   5.876   8.148 -0.5791  1.1298 -1.0849
29598SOL    HW297573   1.927   5.761   8.050  0.4497  0.7989 -0.8282
29599SOL     OW97574   9.890   4.812  12.180 -0.1105  0.4786 -0.1112
29599SOL    HW197575   9.852   4.881  12.236  0.8890  1.2665 -0.3751
29599SOL    HW297576   9.976   4.846  12.156  0.1507 -0.6125 -0.7498
29600SOL     OW97577   8.599  12.013   9.985  0.2060 -0.8669  0.2694
29600SOL    HW197578   8.631  12.007   9.895 -0.2607  1.3295 -0.1174
29600SOL    HW297579   8.529  11.949   9.989  1.0324 -1.8618 -0.5481
29601SOL     OW97580   0.546   0.551  10.635 -0.0387 -0.5749  0.4371
29601SOL    HW197581   0.630   0.518  10.666  0.0824 -1.3480 -0.6541
29601SOL    HW297582   0.487   0.476  10.641 -0.2961 -0.4202 -0.0844
29602SOL     OW97583   3.213  10.803   8.228 -0.3073  0.2743  0.2171
29602SOL    HW197584   3.138  10.757   8.264 -1.2581  0.4841 -1.4019
29602SOL    HW297585   3.225  10.766   8.140  0.9462  0.8450  0.1150
29603SOL     OW97586   3.573   9.041   4.936  0.0474  0.3746 -0.1842
29603SOL    HW197587   3.615   9.082   4.861  1.8277 -0.4123  0.3250
29603SOL    HW297588   3.608   8.952   4.938 -0.8284  0.0284  0.9234
29604SOL     OW97589   8.792   1.761  11.395  0.5563 -0.1199 -0.3883
29604SOL    HW197590   8.699   1.743  11.409  0.3440 -0.8911 -2.4441
29604SOL    HW297591   8.828   1.679  11.361  1.9249  0.2715  0.0526
29605SOL     OW97592  10.362   5.279   7.524  0.1261  0.3354  0.3803
29605SOL    HW197593  10.307   5.270   7.446  2.1652 -0.7664 -1.0173
29605SOL    HW297594  10.425   5.347   7.500  0.6051  0.1779  1.1742
29606SOL     OW97595  10.432   9.252   3.068  0.1043 -0.0498 -0.6240
29606SOL    HW197596  10.469   9.164   3.079  1.8477  0.7227  0.0547
29606SOL    HW297597  10.428   9.265   2.973 -3.4553 -2.1117 -0.9198
29607SOL     OW97598   4.733   1.478   4.749 -0.0825 -0.2335  0.5669
29607SOL    HW197599   4.643   1.511   4.753  0.0859  0.1342  1.7733
29607SOL    HW297600   4.724   1.383   4.753 -0.4795 -0.2915 -1.0423
29608SOL     OW97601  11.309   1.527   2.208  0.2654  0.1926  0.0622
29608SOL    HW197602  11.404   1.525   2.223  0.2758 -0.3933 -0.0725
29608SOL    HW297603  11.299   1.515   2.113  0.1592  2.9948 -0.3752
29609SOL     OW97604   6.037   2.551   3.441 -0.5843 -0.1098  0.1527
29609SOL    HW197605   6.032   2.621   3.377 -0.3316 -0.4210 -0.2115
29609SOL    HW297606   6.128   2.553   3.472 -0.5007 -0.4516 -0.0623
29610SOL     OW97607   2.990   0.710  12.392  0.3551 -0.7119  0.2205
29610SOL    HW197608   2.914   0.769  12.397 -0.8551 -2.2171  0.2616
29610SOL    HW297609   3.052   0.746  12.455  0.0405  1.0334 -0.4077
29611SOL     OW97610  12.503   0.377   7.562 -0.2827 -0.8151 -0.1155
29611SOL    HW197611  12.475   0.379   7.470  0.5907  0.0199 -0.3821
29611SOL    HW297612  12.589   0.334   7.559 -0.2058 -0.6890  0.3014
29612SOL     OW97613   1.897   8.020   4.285 -0.6009 -0.7705 -0.5106
29612SOL    HW197614   1.948   8.016   4.366  0.9023  0.7538 -1.3143
29612SOL    HW297615   1.811   8.052   4.313  0.0475  0.2411  0.4590
29613SOL     OW97616  11.040   8.015   3.554  0.7493  0.1995  0.3079
29613SOL    HW197617  11.096   8.090   3.577  0.7336 -0.6048  3.3902
29613SOL    HW297618  11.099   7.940   3.553  0.3908 -0.0871 -0.6408
29614SOL     OW97619   5.663  10.038  12.361 -0.0372  0.1054  0.2930
29614SOL    HW197620   5.718  10.017  12.285 -0.2028 -3.1033  0.9001
29614SOL    HW297621   5.718  10.021  12.437 -1.1733 -1.0915  0.8929
29615SOL     OW97622  10.939   6.788   0.210 -0.5963 -0.1333  0.1838
29615SOL    HW197623  10.965   6.736   0.134 -0.8579  0.0121 -0.0091
29615SOL    HW297624  11.006   6.856   0.217 -2.3620  2.0421 -2.0805
29616SOL     OW97625   9.097  12.425   1.785  0.0536 -0.2057 -0.2186
29616SOL    HW197626   9.031  12.356   1.774  0.1369 -0.1625 -1.0162
29616SOL    HW297627   9.174  12.378   1.818  0.9553 -0.9830 -3.1363
29617SOL     OW97628   7.687   5.899  10.210  0.5927  0.0534  0.3203
29617SOL    HW197629   7.592   5.888  10.205  0.6642 -0.4201 -0.0630
29617SOL    HW297630   7.719   5.819  10.251  0.5440  1.6311  3.7233
29618SOL     OW97631  10.718  11.406   2.264  0.2927 -0.0685  0.3074
29618SOL    HW197632  10.630  11.370   2.270  0.2580  0.0848  0.7722
29618SOL    HW297633  10.763  11.374   2.343 -0.0232  1.6354  1.2486
29619SOL     OW97634   3.242   3.608   7.581  0.4297  0.4806 -0.2700
29619SOL    HW197635   3.281   3.553   7.512 -2.9765 -1.4925 -0.8778
29619SOL    HW297636   3.247   3.554   7.660 -0.4943  0.3913 -0.2560
29620SOL     OW97637   6.488   9.325   4.943 -0.2518 -0.4378  0.0598
29620SOL    HW197638   6.517   9.416   4.951 -0.7820 -0.3277  0.8315
29620SOL    HW297639   6.531   9.293   4.864 -1.9506  1.1905 -1.6307
29621SOL     OW97640   7.722  11.279   4.295 -0.6875 -0.0424  0.5739
29621SOL    HW197641   7.721  11.229   4.377 -1.4421 -2.7482 -0.9406
29621SOL    HW297642   7.815  11.292   4.277 -0.3944 -1.9604  0.4958
29622SOL     OW97643   3.770   7.471   8.444  0.0334 -0.1134 -0.2397
29622SOL    HW197644   3.834   7.505   8.382  0.5912 -1.2587 -0.3154
29622SOL    HW297645   3.690   7.519   8.425  0.4506  0.2150 -1.2163
29623SOL     OW97646   0.604   9.651   0.834  0.5196 -0.8602  0.6551
29623SOL    HW197647   0.547   9.660   0.757 -0.4513  1.9979  1.5689
29623SOL    HW297648   0.685   9.695   0.810  0.2770 -0.1110  1.1572
29624SOL     OW97649  12.243   2.401   3.739 -0.5965  0.5674 -0.2161
29624SOL    HW197650  12.278   2.481   3.778  1.5592  0.0377 -0.9097
29624SOL    HW297651  12.264   2.332   3.802  0.2830  0.1445 -0.9371
29625SOL     OW97652   9.710   9.381  11.408 -0.1728  0.1503 -0.3653
29625SOL    HW197653   9.688   9.307  11.465 -1.0864  2.2563  2.2049
29625SOL    HW297654   9.804   9.372  11.393 -0.0995 -1.0632  0.6276
29626SOL     OW97655   0.606   9.887  12.212  0.6345  0.3220 -0.1324
29626SOL    HW197656   0.685   9.928  12.176 -0.1803  2.1708  0.0925
29626SOL    HW297657   0.637   9.842  12.291  1.5415  0.6461 -0.2881
29627SOL     OW97658   4.896   2.325   9.451 -0.0985 -0.2404 -0.4310
29627SOL    HW197659   4.937   2.337   9.365  0.7008 -2.0530 -0.3545
29627SOL    HW297660   4.964   2.347   9.514 -0.3847  0.1531 -0.2494
29628SOL     OW97661   9.696   4.529   4.198  0.2653 -0.0646 -0.0180
29628SOL    HW197662   9.651   4.612   4.179  0.3102 -0.3424 -1.4384
29628SOL    HW297663   9.626   4.468   4.221  0.1411  0.0942  0.0281
29629SOL     OW97664   7.346   6.331   2.758 -0.1185  0.6383 -0.0904
29629SOL    HW197665   7.374   6.251   2.803 -0.0018  0.4993 -0.4067
29629SOL    HW297666   7.369   6.316   2.666 -0.5257  0.8411 -0.2274
29630SOL     OW97667   6.326   4.899  11.353 -0.4656 -0.3117  0.1744
29630SOL    HW197668   6.354   4.990  11.351 -1.3521 -0.0130  1.0551
29630SOL    HW297669   6.253   4.897  11.414 -2.9641 -0.9044 -2.5775
29631SOL     OW97670   7.052   9.163   6.260  0.1362 -0.3787 -0.1739
29631SOL    HW197671   7.008   9.145   6.177  1.6676  1.5912 -1.5158
29631SOL    HW297672   7.109   9.088   6.273  2.2487  0.6319 -2.6786
29632SOL     OW97673   8.945   4.289   9.009  0.4738 -0.3541  0.2697
29632SOL    HW197674   8.960   4.352   9.079  2.1153  0.2148 -0.5565
29632SOL    HW297675   8.990   4.210   9.037 -0.0065 -0.5691  0.4519
29633SOL     OW97676   3.460  11.363   0.588 -0.6918 -0.1349  0.1086
29633SOL    HW197677   3.448  11.370   0.494  0.3375 -0.7709 -0.0893
29633SOL    HW297678   3.479  11.453   0.616  0.5771 -0.1784 -0.5503
29634SOL     OW97679   7.002   3.857   8.477  0.0655 -0.3421 -0.6043
29634SOL    HW197680   7.030   3.856   8.386  2.5897 -0.2686  0.0885
29634SOL    HW297681   6.988   3.950   8.496  0.1834 -0.2933 -0.7491
29635SOL     OW97682   9.262   7.843   1.079  0.0617  0.1722  0.7574
29635SOL    HW197683   9.247   7.769   1.138  0.8624 -0.0092  0.7474
29635SOL    HW297684   9.191   7.904   1.099  0.1609 -0.0062  1.7189
29636SOL     OW97685   9.389   4.838   2.146  0.4592  0.2948  0.0826
29636SOL    HW197686   9.412   4.759   2.194  1.7219  0.2161 -0.6145
29636SOL    HW297687   9.346   4.805   2.066  1.9547  0.2203 -0.7349
29637SOL     OW97688   5.676   7.870   2.339 -0.3685  0.5152  0.0603
29637SOL    HW197689   5.708   7.837   2.423  0.4436  0.2844 -0.3395
29637SOL    HW297690   5.598   7.922   2.363 -1.9396 -1.9388  0.6718
29638SOL     OW97691   0.730  12.528   2.771  0.5174  0.0509  0.4700
29638SOL    HW197692   0.711  12.606   2.718  1.3427 -0.9680 -1.4491
29638SOL    HW297693   0.772  12.562   2.850  0.7641  1.5690 -0.2770
29639SOL     OW97694   8.456  10.715   2.533  0.3893  0.3994  0.1496
29639SOL    HW197695   8.489  10.650   2.471 -0.6666  1.3776 -1.5419
29639SOL    HW297696   8.375  10.677   2.567 -0.8246  1.1838 -1.6756
29640SOL     OW97697   6.433   4.875  12.261 -0.1351  0.3558  0.1497
29640SOL    HW197698   6.496   4.803  12.257  2.2247  2.2682  0.7094
29640SOL    HW297699   6.420   4.889  12.355  0.6112  1.5749  0.0891
29641SOL     OW97700   3.215   7.764  10.674 -0.1915 -0.4860  0.0486
29641SOL    HW197701   3.203   7.859  10.666  0.4190 -0.2451  1.5532
29641SOL    HW297702   3.297   7.755  10.723 -0.0191 -1.8119 -0.4459
29642SOL     OW97703   6.615  12.027   8.800 -0.0687  0.3912  0.1225
29642SOL    HW197704   6.542  12.045   8.859 -0.3732 -1.5251  0.3945
29642SOL    HW297705   6.577  12.034   8.712 -0.8203 -1.3627  0.2718
29643SOL     OW97706   7.727   6.883   7.009  0.3055 -0.4532 -0.3693
29643SOL    HW197707   7.719   6.817   7.078 -0.5621 -0.8847 -0.8627
29643SOL    HW297708   7.636   6.902   6.985  0.5975 -0.3257 -1.4010
29644SOL     OW97709   1.852  12.144  11.020 -0.0325  0.4218  0.4661
29644SOL    HW197710   1.851  12.140  10.924 -2.0807  2.2047  0.3566
29644SOL    HW297711   1.762  12.127  11.045  0.6751 -1.0759  2.1989
29645SOL     OW97712  12.391  12.390   6.634 -0.5154  0.2546 -0.2698
29645SOL    HW197713  12.386  12.343   6.551  2.6107 -2.1773  0.7266
29645SOL    HW297714  12.395  12.321   6.701  0.8932  1.9998  1.5664
29646SOL     OW97715   4.866   2.170   4.224 -0.3416  0.2835 -0.1068
29646SOL    HW197716   4.901   2.259   4.231 -1.6156  0.6754  2.2507
29646SOL    HW297717   4.849   2.158   4.130  0.0822  2.4223 -0.5037
29647SOL     OW97718   3.228   8.630  10.950  0.1932 -0.2754  0.7729
29647SOL    HW197719   3.157   8.571  10.924  1.4065 -1.5897  0.3471
29647SOL    HW297720   3.262   8.665  10.868  0.7348 -0.4930  0.9014
29648SOL     OW97721   9.489   1.863   8.170 -0.1877 -0.4945 -0.6623
29648SOL    HW197722   9.408   1.829   8.133  0.2647 -1.4173 -0.8304
29648SOL    HW297723   9.554   1.853   8.101  0.1749 -0.1904 -0.3722
29649SOL     OW97724  11.799   3.605   6.977  0.8840  0.2860  0.2641
29649SOL    HW197725  11.709   3.605   7.011  0.7348  0.8056 -0.1316
29649SOL    HW297726  11.852   3.583   7.053  0.2386 -2.7364 -0.0157
29650SOL     OW97727   3.330   0.483  12.256  0.0759 -0.2541  0.1941
29650SOL    HW197728   3.255   0.460  12.311  0.3736 -0.8827  0.3419
29650SOL    HW297729   3.392   0.524  12.316  0.1995 -0.4993  0.2344
29651SOL     OW97730   4.187   7.345   9.860 -0.2013  0.0173  0.2843
29651SOL    HW197731   4.152   7.278   9.918  0.0258  0.0648  0.4785
29651SOL    HW297732   4.270   7.309   9.829 -0.4561 -0.1334 -0.2434
29652SOL     OW97733   5.853   0.531   8.223  0.3943  0.1709  0.4871
29652SOL    HW197734   5.923   0.586   8.259  0.0129 -0.0991  1.6889
29652SOL    HW297735   5.884   0.441   8.235  0.0035  0.0612  0.6943
29653SOL     OW97736  10.937   2.747  12.347 -0.1406 -0.1147 -0.2148
29653SOL    HW197737  10.954   2.656  12.374  0.4333  0.1103  0.2140
29653SOL    HW297738  10.847   2.746  12.314 -0.2527 -0.7758  0.0884
29654SOL     OW97739   8.749   6.867   3.699  0.1828 -0.1040  0.5430
29654SOL    HW197740   8.785   6.853   3.787 -0.0544 -1.4089  0.4489
29654SOL    HW297741   8.659   6.836   3.705  0.5092 -1.3503 -0.4510
29655SOL     OW97742   9.972   1.853   8.098 -0.1863 -0.6186  0.1836
29655SOL    HW197743   9.900   1.872   8.157  0.4260 -0.3725  0.8687
29655SOL    HW297744  10.051   1.878   8.147  0.2230  2.5992 -1.8244
29656SOL     OW97745  10.075   3.298   2.104 -0.0287 -0.4682 -0.2382
29656SOL    HW197746  10.106   3.213   2.074  0.9529 -0.3930  0.4985
29656SOL    HW297747  10.111   3.307   2.192 -0.1590  0.6818 -0.2822
29657SOL     OW97748  12.006   3.130   4.555 -0.1466 -0.3669  0.9682
29657SOL    HW197749  12.038   3.206   4.507  0.8936 -0.0015  2.1979
29657SOL    HW297750  11.911   3.137   4.550 -0.0677  0.1011 -0.3163
29658SOL     OW97751   6.143   5.540   4.390 -0.6344  0.3816  0.2537
29658SOL    HW197752   6.226   5.584   4.370 -0.5885  0.6400  0.9838
29658SOL    HW297753   6.152   5.514   4.482 -1.7709  1.3599  0.6730
29659SOL     OW97754   1.886   5.220   9.059 -0.2428  0.3069 -0.0351
29659SOL    HW197755   1.830   5.293   9.086 -0.3982  0.8744 -1.7486
29659SOL    HW297756   1.975   5.254   9.067 -0.2580  0.2785  0.2707
29660SOL     OW97757   2.993   7.836   3.772 -0.2958  0.3593 -0.0118
29660SOL    HW197758   3.020   7.923   3.800 -1.9930  0.9744 -0.1828
29660SOL    HW297759   3.064   7.806   3.715 -0.6758  2.5715 -1.8068
29661SOL     OW97760   8.682  12.002  10.490 -0.1152 -0.0764 -0.1979
29661SOL    HW197761   8.644  11.914  10.491 -1.2547  0.4054  1.3547
29661SOL    HW297762   8.692  12.025  10.582  0.3822  1.3529 -0.5854
29662SOL     OW97763   4.123   8.589   2.356  0.1199 -0.0317  0.6405
29662SOL    HW197764   4.046   8.618   2.307  0.6034 -2.2946 -1.6479
29662SOL    HW297765   4.096   8.595   2.448 -2.0889  1.0536 -0.0040
29663SOL     OW97766   8.472   9.493  11.448  0.4695 -0.3372 -0.2006
29663SOL    HW197767   8.408   9.534  11.506 -0.3455 -0.5423 -0.9398
29663SOL    HW297768   8.544   9.468  11.506 -0.0789 -0.0292  0.6321
29664SOL     OW97769  10.687   8.914   0.879 -0.1657  0.1453  0.3590
29664SOL    HW197770  10.778   8.900   0.904 -0.0868  1.0262  0.5903
29664SOL    HW297771  10.637   8.861   0.941  0.1011  1.1005  1.4135
29665SOL     OW97772   7.784  10.642   4.854  0.1833 -0.5363 -0.3264
29665SOL    HW197773   7.776  10.722   4.906  0.9775 -1.6725  1.6713
29665SOL    HW297774   7.760  10.669   4.765 -0.3533  1.7171  0.4190
29666SOL     OW97775   2.276   4.126   8.446  0.2986 -0.1151  0.0442
29666SOL    HW197776   2.196   4.106   8.398 -1.6012  0.8169  2.5476
29666SOL    HW297777   2.308   4.207   8.406 -1.1383  0.5624  0.1812
29667SOL     OW97778   5.450   6.369  10.894 -0.5656 -0.0154 -0.1770
29667SOL    HW197779   5.451   6.288  10.844 -0.2725  0.9010 -1.7328
29667SOL    HW297780   5.488   6.434  10.835  0.3031  1.0248  1.4594
29668SOL     OW97781   7.961   1.390   3.032  0.2784 -0.0001 -0.7733
29668SOL    HW197782   7.991   1.369   2.944  0.9430  1.2792 -0.8650
29668SOL    HW297783   8.039   1.420   3.078 -0.3798  0.9665 -0.2610
29669SOL     OW97784   0.473  10.197  10.871  0.6894  0.4114 -0.0584
29669SOL    HW197785   0.468  10.143  10.792 -0.7815  0.3568  0.0521
29669SOL    HW297786   0.406  10.162  10.929  0.9113  1.2408  0.7283
29670SOL     OW97787   1.326   9.658  10.926  0.5541 -0.6380 -0.4091
29670SOL    HW197788   1.397   9.713  10.959  1.4138 -0.2351 -2.7370
29670SOL    HW297789   1.290   9.707  10.853 -1.2452 -1.4792 -0.1512
29671SOL     OW97790   8.926  12.349   0.768 -0.4611  0.2883  0.0330
29671SOL    HW197791   8.838  12.330   0.800 -0.5946 -0.1995 -0.5994
29671SOL    HW297792   8.935  12.296   0.688  0.7292 -0.3672  0.5702
29672SOL     OW97793  12.199   7.390   7.416 -0.5189  0.4491  0.4348
29672SOL    HW197794  12.142   7.317   7.443 -0.9423  1.0698  1.2591
29672SOL    HW297795  12.287   7.362   7.442 -0.5079 -0.2789 -0.3439
29673SOL     OW97796  11.677   6.365   1.977 -0.5983  0.5169 -0.9323
29673SOL    HW197797  11.751   6.311   1.950 -0.5054  0.2011 -0.0700
29673SOL    HW297798  11.654   6.415   1.899  0.0189  0.0378 -1.4277
29674SOL     OW97799  11.817   5.972   4.333 -0.3811  0.4372  0.0706
29674SOL    HW197800  11.761   5.900   4.305  0.1068  0.2852 -0.5487
29674SOL    HW297801  11.764   6.022   4.394 -1.2552  0.3971 -0.6482
29675SOL     OW97802  11.306   1.598   2.812 -0.5138  0.1085  0.2252
29675SOL    HW197803  11.357   1.679   2.813  0.1094 -0.2765  1.0913
29675SOL    HW297804  11.303   1.571   2.904  1.3552 -2.1371 -0.3067
29676SOL     OW97805   2.251   8.836   7.507 -0.4542 -0.0075 -0.3214
29676SOL    HW197806   2.334   8.875   7.532 -1.6267  3.0795 -0.7699
29676SOL    HW297807   2.213   8.805   7.589 -0.3786  1.8658  0.4843
29677SOL     OW97808   7.124   1.893   2.815  0.1972 -0.2641 -0.2373
29677SOL    HW197809   7.174   1.905   2.897  1.7062  1.2236 -1.2981
29677SOL    HW297810   7.122   1.798   2.802 -0.8936 -0.6069  1.9687
29678SOL     OW97811  11.756  11.348   7.178  0.4217  0.1598 -0.1854
29678SOL    HW197812  11.811  11.409   7.227  0.3234  0.1168 -0.0173
29678SOL    HW297813  11.764  11.375   7.087  1.2313 -0.2472 -0.2386
29679SOL     OW97814   9.956   7.321   9.742  0.2673 -0.1545 -0.6729
29679SOL    HW197815   9.934   7.322   9.649  1.3759  0.1321 -0.9497
29679SOL    HW297816  10.013   7.398   9.754 -0.5279  0.2885  0.4118
29680SOL     OW97817   7.237   8.170   3.855 -0.2099 -0.6483  0.4100
29680SOL    HW197818   7.218   8.090   3.905 -0.4768 -1.1173 -0.4208
29680SOL    HW297819   7.312   8.209   3.899 -1.0374 -0.5280  1.7637
29681SOL     OW97820   6.826  10.832   5.598  0.0624  0.8326 -0.2576
29681SOL    HW197821   6.837  10.828   5.503  0.4546 -1.5792 -0.1645
29681SOL    HW297822   6.755  10.772   5.617 -0.5958  1.9418  0.9336
29682SOL     OW97823   9.388  10.707  12.161 -0.4183 -0.1593  0.0070
29682SOL    HW197824   9.331  10.750  12.225  0.2393  1.1871 -0.2984
29682SOL    HW297825   9.331  10.642  12.120 -1.1294 -0.3599  1.2380
29683SOL     OW97826   3.254  12.184   3.594 -0.4598  0.0256 -0.3922
29683SOL    HW197827   3.262  12.277   3.573  1.9272 -0.2295 -0.8328
29683SOL    HW297828   3.182  12.153   3.539 -0.7089  1.4205 -0.8906
29684SOL     OW97829  10.474   5.660   8.042 -0.3722  0.3170  0.6640
29684SOL    HW197830  10.442   5.609   7.967  2.1692  0.0272 -0.3493
29684SOL    HW297831  10.552   5.704   8.008 -1.4166  3.4717  2.0443
29685SOL     OW97832   9.982   6.207   6.017 -0.0968  0.1410  0.1968
29685SOL    HW197833   9.977   6.298   6.044 -1.7060  0.3696 -0.7829
29685SOL    HW297834  10.051   6.205   5.951 -0.8316  0.8868 -0.6127
29686SOL     OW97835   0.054   8.496   2.500  0.4282  0.3172 -0.1753
29686SOL    HW197836   0.041   8.573   2.556 -2.7076  1.2509 -1.9470
29686SOL    HW297837   0.123   8.523   2.439  0.5096  1.0899  0.2445
29687SOL     OW97838   0.985   7.520   0.764  0.2919 -0.1391 -0.0685
29687SOL    HW197839   1.047   7.473   0.708 -1.1041 -1.2378 -0.7493
29687SOL    HW297840   0.900   7.484   0.741 -0.6371  1.4400  0.7321
29688SOL     OW97841   5.089  11.284   2.490 -0.6498 -0.2025  0.4754
29688SOL    HW197842   5.093  11.368   2.445 -1.5015 -0.6626 -0.5109
29688SOL    HW297843   5.178  11.271   2.524 -0.4103  0.9153  0.3191
29689SOL     OW97844   8.536   6.790   2.083  0.2357  0.1886 -0.2848
29689SOL    HW197845   8.507   6.753   2.000  0.2470  0.9614 -0.6392
29689SOL    HW297846   8.556   6.713   2.138 -0.9981 -0.3352 -0.5441
29690SOL     OW97847   0.966   4.439  12.124  0.0937  0.5399 -0.4101
29690SOL    HW197848   0.876   4.466  12.110 -0.0493  0.1243 -0.2880
29690SOL    HW297849   0.964   4.386  12.203  0.2704 -0.3389 -0.9804
29691SOL     OW97850   7.619   6.899   8.778 -0.3934 -0.2405  0.4320
29691SOL    HW197851   7.704   6.916   8.818 -0.1323  0.0677 -0.2241
29691SOL    HW297852   7.586   6.986   8.755  0.5916 -0.4653 -2.2333
29692SOL     OW97853   9.110   0.139  11.103 -0.1036 -0.2082  0.7839
29692SOL    HW197854   9.196   0.133  11.144  0.5356  1.6587 -0.2003
29692SOL    HW297855   9.056   0.187  11.166  0.7166  2.1328 -0.1824
29693SOL     OW97856  12.592   7.541   7.162 -0.3051  0.1296  0.3026
29693SOL    HW197857  12.678   7.508   7.135 -0.2436 -1.0304  1.7846
29693SOL    HW297858  12.531   7.502   7.100  0.2607  1.5532 -1.2241
29694SOL     OW97859  12.366   6.971  11.602  0.1689 -0.0953 -0.1201
29694SOL    HW197860  12.293   6.988  11.542  0.6550  1.7532 -0.2464
29694SOL    HW297861  12.420   7.049  11.596  1.3540 -0.7835  1.1508
29695SOL     OW97862   0.944   4.028   1.700 -0.1280  0.1190  0.2244
29695SOL    HW197863   1.038   4.019   1.684  0.0988  0.7427  1.1005
29695SOL    HW297864   0.917   4.098   1.640  0.4774  1.6288  1.6297
29696SOL     OW97865   8.982   7.772   2.675  0.1369 -0.7017 -0.4197
29696SOL    HW197866   8.949   7.806   2.758 -0.2705  0.5176 -1.0631
29696SOL    HW297867   8.987   7.677   2.689  0.9702 -0.4624  1.3098
29697SOL     OW97868   7.838   5.264   0.053 -0.6326  0.0926  0.2648
29697SOL    HW197869   7.889   5.187   0.080 -0.5856 -0.3377 -0.9883
29697SOL    HW297870   7.801   5.297   0.135  1.7379  0.5026  1.2542
29698SOL     OW97871   8.530   2.401   2.084 -0.6919 -0.3765  0.0368
29698SOL    HW197872   8.466   2.377   2.151 -1.0945  1.0639  0.1920
29698SOL    HW297873   8.478   2.409   2.004 -0.4989 -0.4116 -0.0911
29699SOL     OW97874   6.368   1.453   2.523  0.5822 -0.1827 -0.9561
29699SOL    HW197875   6.344   1.437   2.614  0.1530 -0.2876 -1.0818
29699SOL    HW297876   6.310   1.525   2.495  0.6044 -0.2517 -1.1850
29700SOL     OW97877  11.228   6.971  11.522  0.3321 -0.0319  0.2672
29700SOL    HW197878  11.217   6.936  11.433  2.1201  0.2636 -0.1088
29700SOL    HW297879  11.189   6.905  11.579  1.6848 -1.6349 -0.5784
29701SOL     OW97880   2.168  12.499   7.318  0.1191  0.5433  0.1286
29701SOL    HW197881   2.156  12.559   7.244 -0.1542 -0.1306 -0.3783
29701SOL    HW297882   2.112  12.535   7.387  1.3518  1.9109  0.4775
29702SOL     OW97883   6.649   9.995   9.593 -0.2838  0.1985 -0.0087
29702SOL    HW197884   6.580  10.048   9.552 -2.2091 -0.2821  2.3548
29702SOL    HW297885   6.630   9.906   9.565  1.7462  0.4164 -2.3664
29703SOL     OW97886   2.198   4.737  11.284  0.4897 -0.3475  0.2918
29703SOL    HW197887   2.198   4.713  11.192  0.2540  0.3832  0.0929
29703SOL    HW297888   2.110   4.770  11.301 -0.0571 -2.1736  1.2579
29704SOL     OW97889   3.147   9.786   7.969  0.7836  0.3146 -0.4325
29704SOL    HW197890   3.194   9.770   8.052  0.4386  0.6584 -0.1705
29704SOL    HW297891   3.089   9.860   7.988  0.7718  0.4552 -1.0120
29705SOL     OW97892   1.504   4.446  12.310 -0.6855 -0.5618  0.6807
29705SOL    HW197893   1.418   4.430  12.350 -1.0358  0.1600  0.2322
29705SOL    HW297894   1.565   4.398  12.366 -1.0934  0.8057  2.3933
29706SOL     OW97895   5.779   9.455  10.013  0.6250  0.0887 -0.6813
29706SOL    HW197896   5.746   9.530  10.063  1.4630 -0.0094  0.0669
29706SOL    HW297897   5.739   9.463   9.927 -1.2948 -0.0320  0.1597
29707SOL     OW97898   0.942   5.495   5.107 -0.0825  0.4875 -0.3045
29707SOL    HW197899   0.989   5.503   5.190 -1.4266 -0.4290  0.5924
29707SOL    HW297900   1.006   5.519   5.040  1.7574 -1.0899  0.8146
29708SOL     OW97901  10.099   5.091   7.834 -0.4354 -0.0017 -0.0032
29708SOL    HW197902  10.114   5.025   7.767  0.2880 -0.3163  0.4449
29708SOL    HW297903  10.154   5.165   7.808  1.6355 -0.9599  1.3695
29709SOL     OW97904   6.804   3.635   0.838  0.5014 -0.4557  0.7427
29709SOL    HW197905   6.825   3.577   0.911  0.8364 -2.1724 -0.6210
29709SOL    HW297906   6.809   3.578   0.761 -1.0786  0.9851 -0.4968
29710SOL     OW97907   6.569   4.293   1.479  0.5510  0.4270  0.3041
29710SOL    HW197908   6.591   4.287   1.387 -1.3783 -0.8634 -0.1374
29710SOL    HW297909   6.622   4.225   1.521  0.4357  0.1036 -0.0731
29711SOL     OW97910  12.484   0.382   3.266 -0.7892  0.3751 -0.1200
29711SOL    HW197911  12.436   0.350   3.342  1.6047 -0.9148  0.9772
29711SOL    HW297912  12.504   0.473   3.287  0.7561 -0.2379  1.4168
29712SOL     OW97913  10.587  11.783   0.269  0.4899 -0.0236  0.2727
29712SOL    HW197914  10.547  11.717   0.325  0.7611 -0.7692 -0.3971
29712SOL    HW297915  10.587  11.744   0.182  0.3972  0.9750 -0.1913
29713SOL     OW97916   6.413   7.855   1.710 -0.7240  0.2673  0.4298
29713SOL    HW197917   6.386   7.889   1.795 -0.0592  0.3280  0.6210
29713SOL    HW297918   6.407   7.760   1.719 -1.6031  0.2999  0.2234
29714SOL     OW97919   7.554   2.841   4.134 -0.1793  0.1232  0.2772
29714SOL    HW197920   7.568   2.860   4.042 -1.3079 -0.7957 -0.0993
29714SOL    HW297921   7.551   2.927   4.176  2.7619  0.5252 -0.1214
29715SOL     OW97922   3.573   5.164   5.599 -0.1712 -0.1323 -0.2841
29715SOL    HW197923   3.569   5.069   5.607 -0.5566  0.0227  2.1692
29715SOL    HW297924   3.655   5.181   5.552  0.5613 -1.6514  0.3792
29716SOL     OW97925   1.729   9.594   3.823  0.3680  0.1735  0.0292
29716SOL    HW197926   1.761   9.505   3.811 -0.1603 -0.1123  0.6746
29716SOL    HW297927   1.762   9.620   3.909 -0.8707 -0.0362  0.5987
29717SOL     OW97928   3.977   0.847   5.966 -0.1662  0.0160  0.2349
29717SOL    HW197929   3.922   0.912   6.010  0.7494  0.4206  0.7989
29717SOL    HW297930   3.977   0.772   6.026 -0.0500  0.0356  0.2580
29718SOL     OW97931   0.275   1.508   1.558 -0.3594 -0.1949  0.3682
29718SOL    HW197932   0.208   1.571   1.584  0.3177  1.3165 -1.4130
29718SOL    HW297933   0.229   1.447   1.500 -0.3715  0.3341 -0.1749
29719SOL     OW97934   2.944   1.349   7.788  0.0402 -0.1574 -0.0151
29719SOL    HW197935   2.877   1.313   7.730 -0.5477  2.2989 -0.9597
29719SOL    HW297936   2.996   1.407   7.733  0.6127  0.8577  1.5225
29720SOL     OW97937  11.119  11.557   4.385  0.1513 -0.5874 -0.4749
29720SOL    HW197938  11.111  11.635   4.331 -1.0450 -1.5361 -1.7201
29720SOL    HW297939  11.043  11.559   4.442 -0.2554 -1.1845 -0.9857
29721SOL     OW97940   9.087   8.425   3.085 -0.2969  0.2483 -0.1264
29721SOL    HW197941   9.038   8.497   3.045  0.9752  0.9590 -0.4586
29721SOL    HW297942   9.126   8.462   3.164  0.2058 -0.1227 -0.1894
29722SOL     OW97943   4.168   7.188   2.992 -0.0536  0.2442 -0.0916
29722SOL    HW197944   4.177   7.268   3.044  1.9059  0.2620 -0.3870
29722SOL    HW297945   4.211   7.208   2.909  1.4051 -1.4019  0.2046
29723SOL     OW97946   5.634   1.842   4.645 -0.3271  0.3887 -0.3946
29723SOL    HW197947   5.629   1.753   4.680 -1.3565 -0.0353 -1.5324
29723SOL    HW297948   5.728   1.861   4.642 -0.0662 -0.8099 -0.4887
29724SOL     OW97949   9.162   5.071  12.117 -0.9147 -0.4814  0.1276
29724SOL    HW197950   9.141   4.982  12.087 -1.3515 -0.4325  0.2729
29724SOL    HW297951   9.248   5.089  12.080 -0.0577 -1.6024  1.4918
29725SOL     OW97952   9.656   6.292   8.990 -0.0369  0.0503  0.4157
29725SOL    HW197953   9.565   6.264   8.999 -0.0116  0.1617  1.0407
29725SOL    HW297954   9.664   6.368   9.047  0.5128 -0.1192  0.5744
29726SOL     OW97955  11.995   1.781   7.902 -0.0095 -0.0027  0.7842
29726SOL    HW197956  12.039   1.782   7.817 -0.0609  0.9562  0.7517
29726SOL    HW297957  11.959   1.870   7.911 -1.2949 -0.5396  1.1448
29727SOL     OW97958   9.688  12.330   1.823  0.3415  0.0143  0.0050
29727SOL    HW197959   9.678  12.404   1.763 -0.5569  1.3538  1.7134
29727SOL    HW297960   9.616  12.271   1.800  0.0164  0.5008 -0.2587
29728SOL     OW97961   4.469   4.678   5.624  0.4806 -0.0162 -0.0138
29728SOL    HW197962   4.383   4.644   5.599  0.9434 -0.2110 -1.4289
29728SOL    HW297963   4.461   4.696   5.718 -1.5792  1.3633 -0.3722
29729SOL     OW97964  12.421  12.359  10.740  0.3903  0.0122 -0.0713
29729SOL    HW197965  12.496  12.315  10.699  1.3607  1.1435  0.4471
29729SOL    HW297966  12.450  12.380  10.828 -1.3678 -1.5763  0.9604
29730SOL     OW97967   6.173   1.427   4.446 -0.0843 -0.4069 -0.6928
29730SOL    HW197968   6.253   1.418   4.499  0.1818  2.3140 -0.5271
29730SOL    HW297969   6.185   1.364   4.375  2.4942  0.3323 -1.0010
29731SOL     OW97970   7.171   7.320   5.505  0.0336  0.5190 -0.0436
29731SOL    HW197971   7.259   7.287   5.522  0.7071  2.3325  0.2344
29731SOL    HW297972   7.184   7.394   5.445 -1.2926  0.8455  0.0311
29732SOL     OW97973  10.357   3.771   5.702  0.1797  0.3727 -0.0606
29732SOL    HW197974  10.363   3.850   5.757 -0.7523  0.3462  0.1033
29732SOL    HW297975  10.265   3.745   5.709  0.0559  0.3260 -1.5758
29733SOL     OW97976   2.581   6.895   0.524  0.4303  0.5313  0.4325
29733SOL    HW197977   2.591   6.821   0.584 -1.6172  0.0871  0.2846
29733SOL    HW297978   2.552   6.967   0.579  0.9863  0.8221  0.3495
29734SOL     OW97979   5.752   9.437  11.719 -0.1581 -0.1937 -0.2420
29734SOL    HW197980   5.788   9.440  11.631  2.0589  0.8737  0.6166
29734SOL    HW297981   5.808   9.375  11.766 -0.6522  0.0383  0.6728
29735SOL     OW97982   5.779   2.415   9.592 -0.8713  0.1773  0.1753
29735SOL    HW197983   5.718   2.486   9.614 -1.7021 -0.4357 -0.1012
29735SOL    HW297984   5.863   2.459   9.580 -1.1248  0.9624  1.1574
29736SOL     OW97985   3.275  11.822   2.733  0.2160  0.9219  0.2008
29736SOL    HW197986   3.318  11.808   2.649  1.7928  1.7848  0.8158
29736SOL    HW297987   3.276  11.917   2.745 -0.5271  0.8459  0.9207
29737SOL     OW97988   2.346   1.338   0.519 -0.1731  0.2628  0.1648
29737SOL    HW197989   2.395   1.420   0.513 -0.2391  0.2685 -0.4181
29737SOL    HW297990   2.263   1.363   0.560 -0.5496  0.6711 -0.7836
29738SOL     OW97991   4.952   9.054   1.445  0.1927 -0.2378 -0.0527
29738SOL    HW197992   5.011   9.127   1.426 -1.8222  1.8562  1.2031
29738SOL    HW297993   4.896   9.048   1.367  0.1857 -0.2415 -0.0473
29739SOL     OW97994  12.188   0.222   8.711 -0.2245 -0.1526 -0.3365
29739SOL    HW197995  12.141   0.285   8.655 -0.5849  1.7060  1.9163
29739SOL    HW297996  12.256   0.186   8.654 -0.1509  2.1235 -1.8453
29740SOL     OW97997   9.170   9.113   9.901 -0.0899  0.5517  0.0627
29740SOL    HW197998   9.092   9.122   9.955  0.2861 -1.1037  0.9657
29740SOL    HW297999   9.143   9.054   9.831  1.0421 -2.7030  2.1153
29741SOL     OW98000   8.139   1.343   7.352 -0.3742 -0.0488  0.3049
29741SOL    HW198001   8.163   1.401   7.279 -0.9124 -0.8190 -0.5095
29741SOL    HW298002   8.111   1.403   7.422 -1.0295  0.6868 -0.5508
29742SOL     OW98003   6.884   8.922   1.480  0.1158  0.1615 -0.7211
29742SOL    HW198004   6.978   8.934   1.497  0.1491 -1.8811  0.8472
29742SOL    HW298005   6.866   8.831   1.506 -2.5701  0.8840  0.2583
29743SOL     OW98006   5.849  10.853   6.027 -0.0329 -0.1608  0.0379
29743SOL    HW198007   5.939  10.826   6.045  0.7511  2.4686  0.4430
29743SOL    HW298008   5.804  10.844   6.110  0.0964 -0.5521  0.0698
29744SOL     OW98009   3.190   4.489  12.113  0.2717 -0.4117  0.2338
29744SOL    HW198010   3.271   4.471  12.160  0.3547  0.9458  0.6437
29744SOL    HW298011   3.218   4.508  12.023  0.5916  1.5893  0.7243
29745SOL     OW98012  12.525   2.153   3.212 -0.1329  0.0918  0.6680
29745SOL    HW198013  12.496   2.117   3.295  0.8530 -0.2552  0.8769
29745SOL    HW298014  12.608   2.197   3.232  0.5603 -0.7363 -0.2756
29746SOL     OW98015   1.258   1.376   5.574  0.0008  0.4932  0.4456
29746SOL    HW198016   1.316   1.450   5.592  2.6070 -0.7111 -2.0968
29746SOL    HW298017   1.182   1.414   5.530  0.2761  1.8541  1.1141
29747SOL     OW98018   5.805   2.437   6.733 -0.6158 -0.3943  0.1247
29747SOL    HW198019   5.712   2.461   6.726 -0.7170  0.0312  2.1872
29747SOL    HW298020   5.844   2.509   6.784  1.2831  0.3731 -2.2403
29748SOL     OW98021  10.868   3.153  11.009  0.5334  0.1905 -0.5662
29748SOL    HW198022  10.846   3.225  11.068 -0.8348  0.5971 -1.5348
29748SOL    HW298023  10.924   3.193  10.943  1.8476 -0.2087  0.2644
29749SOL     OW98024   1.305   9.498   4.118 -0.9483  0.1182  0.1457
29749SOL    HW198025   1.296   9.455   4.203 -0.8035  0.4836  0.3491
29749SOL    HW298026   1.389   9.468   4.085 -1.1884 -0.3442 -0.0556
29750SOL     OW98027  12.523   5.724  10.986 -0.2013  0.0848  0.0432
29750SOL    HW198028  12.499   5.714  10.893 -1.3442 -0.4001  0.3767
29750SOL    HW298029  12.584   5.798  10.987  0.5534 -0.4845 -1.2124
29751SOL     OW98030  11.270   2.704   6.593  0.6691 -0.0445  0.2581
29751SOL    HW198031  11.183   2.728   6.625 -0.1890  0.1588 -2.0335
29751SOL    HW298032  11.275   2.744   6.506  2.0075 -2.2321 -0.7569
29752SOL     OW98033   6.958   2.939   1.137 -0.6987  0.0369  0.0641
29752SOL    HW198034   6.888   2.973   1.082 -1.2962  0.1326  0.8720
29752SOL    HW298035   7.035   2.941   1.080 -1.0799  1.0943 -0.4555
29753SOL     OW98036  10.995   8.065   4.699 -0.1271 -0.2245 -0.5864
29753SOL    HW198037  10.929   8.130   4.676  0.1623 -0.0258 -0.8550
29753SOL    HW298038  11.077   8.114   4.706  0.4952 -0.8321 -2.7863
29754SOL     OW98039   7.760  11.123  11.159 -0.2993  0.2915 -0.3919
29754SOL    HW198040   7.757  11.028  11.147 -0.6062  0.3787 -1.0470
29754SOL    HW298041   7.670  11.152  11.146 -0.0573  0.7696 -1.0790
29755SOL     OW98042   2.371  12.157  12.407  0.4537  0.0999 -0.6621
29755SOL    HW198043   2.462  12.162  12.378  0.5741 -1.4103 -0.6273
29755SOL    HW298044   2.353  12.243  12.445  1.7788  0.5102 -0.9182
29756SOL     OW98045  11.868   7.645   4.641  0.1287  0.2577 -0.1319
29756SOL    HW198046  11.889   7.690   4.559  0.2107 -2.4930 -1.7785
29756SOL    HW298047  11.785   7.683   4.670  0.4032  1.7060 -1.1489
29757SOL     OW98048   8.625   3.393   0.236 -0.4873 -0.0339 -0.6278
29757SOL    HW198049   8.669   3.442   0.166  1.0831  0.0203  0.3387
29757SOL    HW298050   8.563   3.456   0.273  1.5255  1.3501  0.6200
29758SOL     OW98051  10.697   1.727   3.011 -0.1979  0.5091  0.2157
29758SOL    HW198052  10.734   1.805   3.052  0.2405 -0.5442  1.9165
29758SOL    HW298053  10.771   1.668   3.001 -0.8614 -0.4656  0.8739
29759SOL     OW98054   7.046   4.342   4.643  0.2295  0.5300  0.1287
29759SOL    HW198055   7.088   4.288   4.576  1.4850  0.6806  0.7539
29759SOL    HW298056   7.043   4.430   4.604  0.0526  0.4191 -0.1063
29760SOL     OW98057   1.912   9.408   3.542  0.2413  0.5021  0.1410
29760SOL    HW198058   1.940   9.447   3.625 -0.8381 -0.9444  1.2381
29760SOL    HW298059   1.816   9.418   3.542  0.0732 -0.9109 -0.1549
29761SOL     OW98060   2.955   2.471   2.150  0.2944 -0.7254 -0.5600
29761SOL    HW198061   2.879   2.412   2.154  0.1375 -0.6048 -1.5164
29761SOL    HW298062   3.012   2.433   2.083  1.6496 -1.4468  0.9502
29762SOL     OW98063   2.277   2.647   5.411  0.0039 -0.3881  0.5310
29762SOL    HW198064   2.195   2.602   5.429 -0.3162  0.1383  0.3885
29762SOL    HW298065   2.343   2.578   5.416 -0.3178 -0.6358  1.6282
29763SOL     OW98066   4.022   5.912   5.885 -0.1719 -0.2544 -0.2570
29763SOL    HW198067   3.971   5.978   5.838 -0.5974 -0.1977  0.2695
29763SOL    HW298068   4.085   5.963   5.936  1.5624 -0.3771 -2.1625
29764SOL     OW98069   8.914   2.409   3.100  0.4237 -0.0446 -0.5777
29764SOL    HW198070   8.869   2.493   3.096  1.1243  0.5305  1.6715
29764SOL    HW298071   9.004   2.431   3.124  0.1163 -1.4215  2.4155
29765SOL     OW98072   7.853   5.929   1.967 -0.9042  0.4692 -0.0646
29765SOL    HW198073   7.821   5.839   1.956  0.5336 -0.4458  2.4978
29765SOL    HW298074   7.787   5.983   1.924 -2.4302 -1.7222 -0.6499
29766SOL     OW98075   5.995   9.540   3.019 -0.5453 -0.1979  0.6619
29766SOL    HW198076   5.993   9.485   2.940 -1.0868  0.8082 -0.0511
29766SOL    HW298077   5.904   9.541   3.049 -0.4349 -0.1470  1.0004
29767SOL     OW98078   5.090   8.193   6.109  0.2841  0.0620 -0.3733
29767SOL    HW198079   5.009   8.236   6.138 -0.1175 -1.1398  0.3421
29767SOL    HW298080   5.133   8.166   6.190  1.0168 -0.0071 -0.7781
29768SOL     OW98081   0.742   7.282   3.405 -0.0055 -0.1176  0.2374
29768SOL    HW198082   0.743   7.298   3.311 -0.4212  1.9135  0.5286
29768SOL    HW298083   0.804   7.211   3.418  1.0894  0.4724 -1.4406
29769SOL     OW98084   9.646   5.041   5.066 -0.6845 -0.2937 -0.0329
29769SOL    HW198085   9.678   5.120   5.111 -0.5050 -0.9532  1.0330
29769SOL    HW298086   9.551   5.051   5.064 -0.6451  0.0700 -0.1274
29770SOL     OW98087  11.206   4.141   0.724  0.4270  0.4138 -0.0397
29770SOL    HW198088  11.199   4.118   0.817 -0.5614  0.5436 -0.0704
29770SOL    HW298089  11.289   4.188   0.717  1.6201 -1.5350  0.3509
29771SOL     OW98090   0.508   0.481   0.228 -0.9558 -0.5794 -0.0665
29771SOL    HW198091   0.455   0.496   0.306  1.1151  0.4351  1.2243
29771SOL    HW298092   0.510   0.566   0.183 -0.3790 -0.5840 -0.0565
29772SOL     OW98093   0.921   3.340   2.671  0.4712 -0.2865  0.2058
29772SOL    HW198094   0.897   3.274   2.737  0.1380 -1.6088 -1.1792
29772SOL    HW298095   0.981   3.294   2.613  0.2875  0.6608 -0.7551
29773SOL     OW98096   7.928   1.748   0.435 -0.2270  0.4940 -0.5624
29773SOL    HW198097   8.015   1.787   0.426 -0.1675  0.2197 -1.2364
29773SOL    HW298098   7.920   1.728   0.528 -0.5029  2.6642 -0.0673
29774SOL     OW98099   7.413   5.662   0.082 -0.3546  0.1325  0.1248
29774SOL    HW198100   7.400   5.743   0.132 -0.6874  0.1658 -0.0085
29774SOL    HW298101   7.489   5.680   0.027 -0.1982  0.2202  0.3715
29775SOL     OW98102   6.987   9.832   8.600  0.4524 -0.1098  0.2414
29775SOL    HW198103   6.994   9.744   8.562 -0.5755 -0.3225  0.5052
29775SOL    HW298104   7.077   9.862   8.608  0.7282 -0.2509 -1.8890
29776SOL     OW98105   7.719   2.266   3.287 -0.0576  0.5748  0.0724
29776SOL    HW198106   7.711   2.289   3.195  0.7760 -0.1272 -0.1794
29776SOL    HW298107   7.629   2.271   3.320 -0.1160  2.8501 -0.2559
29777SOL     OW98108   9.428   2.735   6.765 -0.4091  0.1431  0.0920
29777SOL    HW198109   9.482   2.806   6.730 -0.1103  0.0126  0.2856
29777SOL    HW298110   9.396   2.689   6.687 -0.1861  0.1804 -0.0232
29778SOL     OW98111  11.349   0.322   3.720 -0.2859 -0.4453 -0.1850
29778SOL    HW198112  11.429   0.279   3.689 -0.5357 -1.2257  0.2371
29778SOL    HW298113  11.280   0.257   3.708 -0.6172 -0.2834  0.7397
29779SOL     OW98114   9.405   5.131  11.981 -0.1991 -0.0322  0.2562
29779SOL    HW198115   9.454   5.213  11.973 -1.4404  0.7131  0.1677
29779SOL    HW298116   9.468   5.063  11.954  1.2003  0.7519  1.4079
29780SOL     OW98117   1.953   8.466   3.298 -0.0937 -0.3463 -0.1719
29780SOL    HW198118   2.046   8.486   3.311 -0.2291 -0.1700  0.5882
29780SOL    HW298119   1.945   8.449   3.204  0.9019 -1.3604 -0.1059
29781SOL     OW98120   8.546   2.135   0.134 -0.6676 -0.4799  0.0988
29781SOL    HW198121   8.502   2.113   0.052  0.7272 -3.3596 -0.0373
29781SOL    HW298122   8.505   2.079   0.199 -0.5400  0.4529  1.0005
29782SOL     OW98123   6.326  10.044   6.944 -0.3398  0.4270 -0.3393
29782SOL    HW198124   6.364   9.967   6.900  1.0475  0.4259  0.8175
29782SOL    HW298125   6.264  10.007   7.007 -0.7574  0.3370 -0.7962
29783SOL     OW98126   6.424   4.983   0.929  0.6800 -0.4503  0.0905
29783SOL    HW198127   6.406   4.925   1.003  1.1192 -0.0134  0.5463
29783SOL    HW298128   6.346   5.039   0.922  0.6050 -0.5460  0.1731
29784SOL     OW98129  11.895   8.318   8.458 -0.3098 -0.5294  0.2674
29784SOL    HW198130  11.870   8.281   8.374  0.9957 -0.1629 -0.3031
29784SOL    HW298131  11.920   8.243   8.512  0.4429 -0.6504 -0.2348
29785SOL     OW98132  10.710   4.419  12.536 -0.1309 -0.0656  0.1833
29785SOL    HW198133  10.685   4.330  12.511 -2.3080 -0.0364  1.9506
29785SOL    HW298134  10.720   4.416  12.631 -1.3923  1.7969  0.4280
29786SOL     OW98135   1.874   1.629   3.215  0.2811  0.3670  0.0116
29786SOL    HW198136   1.949   1.688   3.219  0.9729 -0.5387  0.8165
29786SOL    HW298137   1.834   1.633   3.302 -0.4613  0.6381 -0.3293
29787SOL     OW98138   0.239  10.098   4.816 -0.4035  0.0160  0.5185
29787SOL    HW198139   0.151  10.103   4.778 -1.3195 -2.1678  2.1391
29787SOL    HW298140   0.229  10.040   4.892  2.1594  0.8932  1.6315
29788SOL     OW98141   3.715   1.255   0.463 -0.5973 -0.3117  0.2698
29788SOL    HW198142   3.768   1.202   0.522  0.1836 -0.8685 -0.8947
29788SOL    HW298143   3.778   1.294   0.403 -1.2937  0.8972  0.2869
29789SOL     OW98144  10.341   9.990   7.379  0.1331  0.3205 -0.3502
29789SOL    HW198145  10.395   9.967   7.454  1.6629  0.3123 -1.3945
29789SOL    HW298146  10.288  10.063   7.409 -1.8212 -1.7943  1.7587
29790SOL     OW98147   4.745   5.930   7.453  0.2597  0.0189 -0.3943
29790SOL    HW198148   4.677   5.984   7.412 -1.3469 -0.8170  1.0304
29790SOL    HW298149   4.777   5.874   7.382 -1.2674 -0.2567 -0.9121
29791SOL     OW98150   4.673   8.901   1.771  0.9527 -0.2308 -0.0758
29791SOL    HW198151   4.751   8.864   1.729  1.9370  0.8483  0.7281
29791SOL    HW298152   4.704   8.982   1.813 -0.5764  0.1618  0.3779
29792SOL     OW98153   0.819  11.490   2.544 -0.0930 -0.2847 -0.3203
29792SOL    HW198154   0.809  11.406   2.589 -0.1398 -0.4349 -0.6059
29792SOL    HW298155   0.832  11.553   2.614  2.7434 -0.9024 -0.1989
29793SOL     OW98156   8.840  11.092   5.720 -0.1493  0.5741 -0.6308
29793SOL    HW198157   8.926  11.120   5.753 -1.3692  2.9661  0.7857
29793SOL    HW298158   8.823  11.009   5.764  0.7775  0.8402  0.2664
29794SOL     OW98159  10.460   2.106   7.948  0.4096 -0.1731 -0.4822
29794SOL    HW198160  10.487   2.197   7.944 -0.3031  0.0449 -0.5995
29794SOL    HW298161  10.364   2.110   7.955  0.4106 -0.8977  0.0388
29795SOL     OW98162   2.411   3.454   6.357 -0.0794 -0.3181 -0.1848
29795SOL    HW198163   2.319   3.478   6.357  0.0260  0.1013 -0.1564
29795SOL    HW298164   2.458   3.538   6.360  0.3177 -0.4763 -1.2665
29796SOL     OW98165   9.560   5.948  11.036 -0.4332  0.0422  0.5635
29796SOL    HW198166   9.650   5.953  11.069  0.5996 -1.9034 -1.6657
29796SOL    HW298167   9.542   6.036  11.004  0.8148  0.3800  0.7074
29797SOL     OW98168  10.804   3.122   3.909  0.2312 -0.2903 -0.3081
29797SOL    HW198169  10.831   3.101   3.999 -0.8004  0.1834  0.1316
29797SOL    HW298170  10.799   3.217   3.907 -0.2101 -0.3200 -0.7290
29798SOL     OW98171   5.704   8.516   0.557  0.3125  0.7058  0.0449
29798SOL    HW198172   5.765   8.573   0.604  0.9970 -0.0240  0.0759
29798SOL    HW298173   5.628   8.509   0.615  0.7369  0.6063  0.6031
29799SOL     OW98174  10.683   4.015  10.872  0.4941 -0.4301 -0.1616
29799SOL    HW198175  10.634   3.964  10.937  0.4986  0.7704  0.8127
29799SOL    HW298176  10.766   3.969  10.863  0.1919 -1.0399  0.0994
29800SOL     OW98177   6.444   3.457   9.515  0.0404 -0.3904 -0.4282
29800SOL    HW198178   6.388   3.422   9.585  1.6650 -1.5486  0.3719
29800SOL    HW298179   6.476   3.541   9.550  0.6833 -0.8678  0.1715
29801SOL     OW98180   9.484   9.599   1.139  1.0006  0.5624 -0.1190
29801SOL    HW198181   9.577   9.621   1.151  1.2042 -0.6841  0.7981
29801SOL    HW298182   9.483   9.503   1.139 -0.3879  0.5603  0.7446
29802SOL     OW98183   1.364   1.423   0.006 -0.3735 -0.5177  0.3963
29802SOL    HW198184   1.372   1.406   0.100 -0.7384  0.2602  0.5741
29802SOL    HW298185   1.339   1.338  -0.031  1.1067 -1.1700  0.8029
29803SOL     OW98186   8.145   0.873   0.678  0.2549 -0.2459 -0.6836
29803SOL    HW198187   8.202   0.935   0.633 -0.2678  0.0293 -0.9760
29803SOL    HW298188   8.110   0.923   0.752  1.0332 -0.6647 -0.0042
29804SOL     OW98189   2.754   4.493  10.647 -0.4278 -0.1716 -0.3578
29804SOL    HW198190   2.770   4.570  10.702  0.2925 -0.7802  0.3137
29804SOL    HW298191   2.712   4.431  10.706  1.5726 -1.3429 -0.0656
29805SOL     OW98192   8.256  10.985   0.788  0.2482 -0.1744  0.5811
29805SOL    HW198193   8.194  11.054   0.809  1.1166  0.5923  0.6598
29805SOL    HW298194   8.297  10.962   0.871  1.0123  0.2601  0.3383
29806SOL     OW98195   2.862  12.195  10.979 -0.2725  0.3440 -0.0271
29806SOL    HW198196   2.935  12.212  10.920 -0.8374 -1.5979 -1.4129
29806SOL    HW298197   2.819  12.280  10.991  1.4062  1.2531 -0.2627
29807SOL     OW98198   9.498   7.849   2.509  0.1444 -0.0090 -0.1398
29807SOL    HW198199   9.508   7.855   2.604  1.3542  1.6270 -0.3295
29807SOL    HW298200   9.575   7.893   2.474 -0.2217 -0.6956 -1.8937
29808SOL     OW98201   2.841   4.447   3.887  0.3389  0.5803  0.5061
29808SOL    HW198202   2.876   4.422   3.801 -1.3737  0.1171 -0.0908
29808SOL    HW298203   2.841   4.366   3.937  0.4868  0.6696  0.6541
29809SOL     OW98204   0.040   0.611  10.451  0.8276 -0.3278  0.1729
29809SOL    HW198205   0.126   0.569  10.449  1.6112  1.2347 -0.9444
29809SOL    HW298206  -0.020   0.543  10.422  2.0526 -0.7396 -1.5859
29810SOL     OW98207   0.176   6.935   5.226  0.1211 -0.3466 -0.5007
29810SOL    HW198208   0.158   6.939   5.320  1.9322 -3.1719  0.0976
29810SOL    HW298209   0.089   6.935   5.185 -0.8072 -1.1894  1.3377
29811SOL     OW98210   7.001  10.565  11.199  1.0010  0.2655  0.2339
29811SOL    HW198211   7.071  10.533  11.255 -1.1636 -3.4364  1.1200
29811SOL    HW298212   6.994  10.499  11.130 -1.2549  0.8105 -0.1097
29812SOL     OW98213   2.059  11.488   6.066  0.0490 -0.1569  0.2814
29812SOL    HW198214   2.003  11.426   6.113 -0.5537  1.0121  1.1739
29812SOL    HW298215   2.040  11.473   5.973  0.4786 -1.8008  0.4400
29813SOL     OW98216   0.629   8.963   7.943  0.0772  0.3157 -0.2988
29813SOL    HW198217   0.638   8.880   7.989  0.4687 -0.8447 -2.3556
29813SOL    HW298218   0.586   9.021   8.006 -0.8540 -1.6470  0.9534
29814SOL     OW98219   4.402  11.051   6.942 -0.1365  0.1287  0.5245
29814SOL    HW198220   4.471  10.995   6.976 -1.2134 -1.2267  0.5565
29814SOL    HW298221   4.414  11.049   6.847 -0.0959 -0.0559  0.5330
29815SOL     OW98222   0.945   7.035   3.125  0.0119  0.1225  0.0843
29815SOL    HW198223   0.863   6.995   3.096 -0.0164 -0.7946  1.3776
29815SOL    HW298224   0.929   7.059   3.216 -0.5431  4.6963 -0.9921
29816SOL     OW98225   8.258   9.066   0.136 -0.4150  0.1053 -0.1713
29816SOL    HW198226   8.181   9.121   0.121 -1.4204 -1.2920 -0.2499
29816SOL    HW298227   8.281   9.082   0.228 -2.4891 -1.4864  0.7051
29817SOL     OW98228  10.007   7.538  10.962  0.2405 -0.0128  0.0443
29817SOL    HW198229  10.014   7.453  10.918  0.0462  1.3881 -2.9142
29817SOL    HW298230  10.073   7.534  11.031  2.1984 -1.5951 -1.7647
29818SOL     OW98231   4.298  12.281   8.292 -0.5931 -0.6559 -0.4005
29818SOL    HW198232   4.244  12.203   8.307 -0.7960 -0.6921 -1.2417
29818SOL    HW298233   4.252  12.352   8.336 -1.2396 -0.7282 -0.9382
29819SOL     OW98234   1.762  10.438   0.533  0.1213  0.1236 -0.4643
29819SOL    HW198235   1.684  10.382   0.538  0.8963 -1.0928 -1.3816
29819SOL    HW298236   1.759  10.474   0.445  0.8980 -0.4099 -0.7167
29820SOL     OW98237   6.901   3.788   9.477  0.1867  0.5007  0.0746
29820SOL    HW198238   6.845   3.813   9.550  0.5831  0.2457  0.4710
29820SOL    HW298239   6.990   3.796   9.511  0.3953  0.9114 -0.5492
29821SOL     OW98240   1.190   1.169   4.994  0.5486 -0.0617 -0.8188
29821SOL    HW198241   1.128   1.127   5.053  1.4750 -1.9825 -1.1493
29821SOL    HW298242   1.181   1.263   5.013  0.1544 -0.5339  1.6740
29822SOL     OW98243   3.452   8.280   3.214  0.3162 -0.0833  0.2553
29822SOL    HW198244   3.520   8.342   3.188  0.8065 -0.3181  0.9416
29822SOL    HW298245   3.384   8.289   3.147  1.4289 -0.5152 -0.9733
29823SOL     OW98246   0.333  11.076  10.207  0.0669  0.1862 -0.4276
29823SOL    HW198247   0.381  11.082  10.290 -0.2322  0.7046 -0.2921
29823SOL    HW298248   0.330  10.982  10.188 -0.0353  0.0494  0.2500
29824SOL     OW98249  11.329   5.671   0.913  0.5234  0.2926  0.2160
29824SOL    HW198250  11.422   5.661   0.894  0.4747 -0.7461  0.4565
29824SOL    HW298251  11.324   5.748   0.970  1.0362  1.3286 -1.1094
29825SOL     OW98252   9.773   6.793   8.863  0.0715  0.4232 -0.3358
29825SOL    HW198253   9.688   6.800   8.820 -0.1785  1.2994  0.2643
29825SOL    HW298254   9.767   6.715   8.917  1.0084 -1.7733 -3.1588
29826SOL     OW98255   4.008   5.728   9.724 -0.4758  0.6114  0.0498
29826SOL    HW198256   4.039   5.689   9.806  1.3075 -0.9533 -1.2556
29826SOL    HW298257   3.923   5.765   9.745  1.1114  2.9310  3.3378
29827SOL     OW98258   8.132   1.824   6.923  0.2791  0.1558  0.2998
29827SOL    HW198259   8.110   1.892   6.986 -1.0232  1.9010 -1.8661
29827SOL    HW298260   8.124   1.868   6.838  0.1393 -2.5167 -1.1587
29828SOL     OW98261   0.785  11.284  11.322 -0.4882 -0.0024 -0.0967
29828SOL    HW198262   0.835  11.346  11.269  0.5760 -1.1869 -0.4981
29828SOL    HW298263   0.813  11.198  11.292 -0.2545 -0.7067  2.0248
29829SOL     OW98264  12.147   4.214   7.026  0.1868 -0.4269  0.0064
29829SOL    HW198265  12.067   4.228   6.975  0.7640  1.3746 -0.4825
29829SOL    HW298266  12.166   4.300   7.065  0.8162 -1.2949  1.7353
29830SOL     OW98267   6.600   5.445  12.391 -0.4266  0.1348  0.6823
29830SOL    HW198268   6.669   5.506  12.418  0.3783 -1.6436  2.9798
29830SOL    HW298269   6.541   5.441  12.466 -0.9672 -1.1835  0.2078
29831SOL     OW98270   6.895   1.060   8.216  0.1076  0.1454  0.1811
29831SOL    HW198271   6.852   1.125   8.160 -0.4099 -0.7164 -0.4411
29831SOL    HW298272   6.831   0.990   8.225  1.7970 -1.7723 -1.8231
29832SOL     OW98273   3.901  12.608   5.795  0.4183 -0.5731  0.5251
29832SOL    HW198274   3.868  12.627   5.708 -0.6452 -3.6024  0.1542
29832SOL    HW298275   3.919  12.694   5.833 -3.0768  1.1126 -1.1303
29833SOL     OW98276   3.346   8.011   6.887 -0.5257 -0.2813  0.6050
29833SOL    HW198277   3.374   8.098   6.915 -2.6511  1.3289 -1.7288
29833SOL    HW298278   3.412   7.984   6.824 -0.9945  0.7557 -0.3809
29834SOL     OW98279   4.984   5.474  11.472  0.2241 -0.0858  0.5106
29834SOL    HW198280   5.049   5.519  11.526  0.5098 -1.1777  1.1041
29834SOL    HW298281   4.901   5.517  11.494  0.5379  0.3986  0.7796
29835SOL     OW98282   1.265   9.467   5.902  0.0593 -0.5578  0.3224
29835SOL    HW198283   1.211   9.497   5.975 -0.8278  1.2577 -0.9765
29835SOL    HW298284   1.211   9.401   5.858 -0.6276  0.3398 -0.2362
29836SOL     OW98285   4.095   9.085   4.900  0.2534 -0.9424 -0.6302
29836SOL    HW198286   4.021   9.143   4.881 -1.4678 -2.7582  0.1535
29836SOL    HW298287   4.172   9.142   4.899 -1.2172  1.1226 -0.9398
29837SOL     OW98288  11.257   6.614  10.081 -0.4553  0.7577 -0.2141
29837SOL    HW198289  11.239   6.523  10.058 -0.8345  0.4717  1.1039
29837SOL    HW298290  11.341   6.634  10.039  0.2315 -0.5870  0.4638
29838SOL     OW98291   9.606   3.011   1.991 -0.3931  0.2622 -0.2121
29838SOL    HW198292   9.585   2.997   2.083  0.5997 -1.4081 -0.1777
29838SOL    HW298293   9.532   3.059   1.955 -0.2192  2.0853  1.7174
29839SOL     OW98294   1.578   4.816   7.368  0.8714 -0.0286 -0.3671
29839SOL    HW198295   1.526   4.757   7.422 -0.3160 -0.5490 -2.0030
29839SOL    HW298296   1.638   4.759   7.321 -0.4057 -0.0149 -2.0954
29840SOL     OW98297   2.421   7.892   1.799  1.0311 -0.2437 -0.5199
29840SOL    HW198298   2.405   7.804   1.766 -1.1581  0.6089 -1.9847
29840SOL    HW298299   2.376   7.894   1.884  0.8620 -0.4641 -0.6042
29841SOL     OW98300   0.934   2.533   1.635  0.2119 -0.4143  0.1498
29841SOL    HW198301   1.023   2.545   1.599 -0.0321 -0.0223 -0.3422
29841SOL    HW298302   0.878   2.580   1.574 -0.3380 -0.6545  0.4686
29842SOL     OW98303   6.758  11.474   9.225 -0.4419  0.8704  0.2341
29842SOL    HW198304   6.776  11.508   9.137 -0.6205  1.4428  0.4095
29842SOL    HW298305   6.685  11.528   9.256 -0.9362  0.1108  0.4102
29843SOL     OW98306  11.047  11.221   0.293 -0.3009 -0.2207 -0.4246
29843SOL    HW198307  11.017  11.173   0.370  0.7581 -0.4880 -0.1706
29843SOL    HW298308  10.966  11.250   0.251 -1.0070 -2.3948 -0.7061
29844SOL     OW98309   1.890   0.325   8.866 -0.1340 -0.5407  0.3979
29844SOL    HW198310   1.864   0.286   8.782 -0.5903 -0.2010  0.3753
29844SOL    HW298311   1.831   0.399   8.877  0.4176 -0.1384  0.6690
29845SOL     OW98312   8.970   7.177  11.968 -0.1029 -0.2509  0.0500
29845SOL    HW198313   8.920   7.167  12.049 -0.1553 -0.0495  0.0431
29845SOL    HW298314   9.061   7.162  11.993 -0.2116 -1.1573 -0.0344
29846SOL     OW98315   8.551   6.644   6.865  0.3066 -0.3923 -0.2066
29846SOL    HW198316   8.577   6.644   6.773 -0.4857  0.0740 -0.4401
29846SOL    HW298317   8.470   6.592   6.867 -0.0817  0.2141  0.1011
29847SOL     OW98318   6.454   4.300   2.824  0.2170  0.5199  0.4053
29847SOL    HW198319   6.485   4.285   2.913 -0.3857 -1.1413  0.3715
29847SOL    HW298320   6.363   4.327   2.834  0.3200  0.9151  0.3076
29848SOL     OW98321   5.470   4.549   2.690 -0.9510  0.4476 -0.3448
29848SOL    HW198322   5.436   4.633   2.722  0.0145  0.6048  0.3045
29848SOL    HW298323   5.536   4.574   2.624 -1.5266  0.1617 -1.0467
29849SOL     OW98324   9.502   2.783   0.045 -0.3022 -0.1918  0.1883
29849SOL    HW198325   9.529   2.873   0.067  0.5642 -0.5744  0.7775
29849SOL    HW298326   9.408   2.782   0.058 -0.6020  1.1132 -1.5625
29850SOL     OW98327   5.019   7.319   2.298 -0.2985  0.0070  0.0329
29850SOL    HW198328   4.940   7.265   2.307 -0.6485  0.4312 -0.4608
29850SOL    HW298329   5.076   7.290   2.369 -0.9061 -0.2925  0.4029
29851SOL     OW98330   9.731   6.749  12.599  0.0073  0.0206 -0.1097
29851SOL    HW198331   9.751   6.803  12.676 -0.2173 -1.1352  0.7900
29851SOL    HW298332   9.646   6.709  12.619 -0.2493  0.0254 -1.1473
29852SOL     OW98333   2.273  11.638   3.405 -0.1210  0.4035  0.7317
29852SOL    HW198334   2.348  11.579   3.396 -0.2879  0.4969 -2.9265
29852SOL    HW298335   2.293  11.692   3.481  1.7485 -1.9312  2.0205
29853SOL     OW98336  10.593  12.214   2.990  0.2283  0.6784  0.0872
29853SOL    HW198337  10.602  12.120   2.970  2.4997  0.9387 -0.3298
29853SOL    HW298338  10.502  12.234   2.965 -0.1264 -1.2581 -0.3941
29854SOL     OW98339   3.538   3.884  11.048 -0.2514  0.3191  0.2808
29854SOL    HW198340   3.580   3.942  10.985  1.2861 -2.0106 -0.9850
29854SOL    HW298341   3.457   3.856  11.005  0.0077 -0.0402  0.0287
29855SOL     OW98342   6.500   6.397   8.944 -0.4206 -0.1996  0.0891
29855SOL    HW198343   6.437   6.360   9.006 -1.2475  1.3575  0.2064
29855SOL    HW298344   6.449   6.458   8.892  0.0613 -1.9738 -2.6802
29856SOL     OW98345   5.052   9.732   6.592  0.4314  0.1987  0.3123
29856SOL    HW198346   5.135   9.690   6.568  0.1226 -0.2740  0.0583
29856SOL    HW298347   5.078   9.817   6.627  1.1612 -0.6492  1.9523
29857SOL     OW98348   8.863   0.423   9.101  0.0745 -0.4329 -0.4224
29857SOL    HW198349   8.864   0.328   9.101 -1.5596 -0.4847 -1.1049
29857SOL    HW298350   8.814   0.447   9.180 -1.9138 -0.2896 -1.6146
29858SOL     OW98351   3.365   7.791   0.777 -0.3415 -0.3819  0.0154
29858SOL    HW198352   3.353   7.724   0.844  0.2160 -1.8698 -1.3042
29858SOL    HW298353   3.342   7.873   0.820 -1.9297 -1.5149  1.4296
29859SOL     OW98354   1.691   6.067   6.174  0.2950  0.0231  0.1411
29859SOL    HW198355   1.713   6.029   6.088 -1.4450  3.2818 -1.9582
29859SOL    HW298356   1.597   6.084   6.169 -0.3599 -1.7379  3.7126
29860SOL     OW98357   2.811   9.655   2.532 -0.1133 -0.2166  0.1859
29860SOL    HW198358   2.828   9.741   2.569 -0.3143 -0.3540  0.5991
29860SOL    HW298359   2.790   9.672   2.440  0.4826  0.1126  0.1095
29861SOL     OW98360   3.267   8.310   3.007 -0.0984  0.0963 -0.5106
29861SOL    HW198361   3.188   8.363   3.017  0.1477  0.4809 -0.5917
29861SOL    HW298362   3.235   8.225   2.978 -0.2689  1.2978 -4.3979
29862SOL     OW98363   2.914   1.120   7.941  0.3042 -0.2784  0.0622
29862SOL    HW198364   2.910   1.202   7.893  3.5316  1.3424  2.2784
29862SOL    HW298365   2.992   1.076   7.908  0.5631 -0.8027  1.3190
29863SOL     OW98366   4.737   1.914   1.534 -0.2699 -0.3580 -0.5793
29863SOL    HW198367   4.717   1.940   1.624  0.6177 -3.9824  0.8393
29863SOL    HW298368   4.829   1.938   1.523 -0.4384  0.2888 -0.6350
29864SOL     OW98369   4.173  10.931   3.502  0.4333  0.0603  0.1285
29864SOL    HW198370   4.217  10.870   3.561 -1.6407 -1.7644 -0.0723
29864SOL    HW298371   4.214  10.917   3.417  1.5828  0.7386  0.5447
29865SOL     OW98372   7.278   6.208   5.125  0.0001 -0.1038  0.2418
29865SOL    HW198373   7.214   6.137   5.124 -0.6278  0.3880  1.9912
29865SOL    HW298374   7.322   6.199   5.210 -0.7889  2.1654  0.9517
29866SOL     OW98375  11.010  10.011   7.808  0.2183 -0.3547 -0.2534
29866SOL    HW198376  11.101   9.995   7.834  0.1644  1.3091  1.1476
29866SOL    HW298377  10.965  10.034   7.890 -1.7127 -2.0205 -0.7550
29867SOL     OW98378   6.543  10.964   1.606 -0.3694 -0.4778  0.2373
29867SOL    HW198379   6.598  11.006   1.671  0.0160 -0.9304  0.2080
29867SOL    HW298380   6.457  11.004   1.617 -0.4276 -0.8857  1.3418
29868SOL     OW98381   1.567   5.881   7.718 -0.7707 -0.3218  0.7148
29868SOL    HW198382   1.582   5.934   7.796 -0.8957 -0.5262  0.8788
29868SOL    HW298383   1.474   5.859   7.721 -0.7751 -0.3373  0.5115
29869SOL     OW98384   7.852   2.050   7.647  0.4226 -0.0896  0.5261
29869SOL    HW198385   7.766   2.056   7.606  0.2954 -1.9433  0.4612
29869SOL    HW298386   7.888   2.139   7.639 -1.9068  1.0330  1.5824
29870SOL     OW98387   6.084   9.128   3.365 -0.2183  0.0179  0.6028
29870SOL    HW198388   6.147   9.056   3.375 -1.2397 -0.8443  1.0790
29870SOL    HW298389   6.123   9.186   3.300  1.0945 -0.4499  0.9386
29871SOL     OW98390   0.154  11.250   7.189  0.2072 -0.0831 -0.4969
29871SOL    HW198391   0.070  11.241   7.235  0.8679 -1.2399  0.5248
29871SOL    HW298392   0.210  11.299   7.249  0.1961  0.9680 -1.3106
29872SOL     OW98393  11.660   1.391  10.017  0.3095  0.3452  0.3372
29872SOL    HW198394  11.642   1.299  10.036  0.1411  0.5689  1.3069
29872SOL    HW298395  11.744   1.389   9.971  1.1376 -0.1789  1.8016
29873SOL     OW98396   7.905   0.132   0.227  0.1076 -0.1479 -0.2302
29873SOL    HW198397   7.960   0.188   0.283  0.1459 -1.0646  0.6889
29873SOL    HW298398   7.962   0.059   0.204 -0.1162 -0.0998 -0.9500
29874SOL     OW98399   1.979   2.457   6.789 -0.1235 -0.3816  0.6613
29874SOL    HW198400   1.928   2.496   6.719 -1.7551 -1.9436  0.8857
29874SOL    HW298401   2.052   2.412   6.745 -0.4578 -0.3474  0.0761
29875SOL     OW98402  10.547   2.325  12.259  0.1000 -0.2630  0.0109
29875SOL    HW198403  10.522   2.401  12.205 -1.7459 -0.6756  0.2228
29875SOL    HW298404  10.489   2.329  12.335  1.7052 -0.4989  1.3038
29876SOL     OW98405   0.112  11.375  11.165  0.6193 -0.7897 -0.1332
29876SOL    HW198406   0.142  11.386  11.075 -0.0467 -1.2210 -0.4155
29876SOL    HW298407   0.050  11.302  11.161  0.8299 -1.0349  0.7304
29877SOL     OW98408   1.048   7.344  10.728 -0.3908 -0.0584  0.5893
29877SOL    HW198409   0.979   7.361  10.664 -0.6265  1.1529  1.1416
29877SOL    HW298410   1.002   7.303  10.801  0.1709 -3.2994 -0.7273
29878SOL     OW98411   1.102   6.597   6.412 -0.8071 -0.5397 -0.7995
29878SOL    HW198412   1.157   6.637   6.345 -1.4624  0.4300 -0.7808
29878SOL    HW298413   1.138   6.629   6.495  0.2971 -2.1157 -0.6429
29879SOL     OW98414   5.223   1.812   4.003  1.0185  0.1000 -0.7268
29879SOL    HW198415   5.204   1.790   4.095  2.0002 -0.2424 -0.5988
29879SOL    HW298416   5.289   1.881   4.008  0.2017  0.9433 -1.1765
29880SOL     OW98417   0.206  10.212  12.190 -0.2312 -0.1719 -0.3350
29880SOL    HW198418   0.204  10.220  12.285  0.7710  1.2649 -0.4095
29880SOL    HW298419   0.290  10.169  12.172 -0.5925 -0.8009 -0.5708
29881SOL     OW98420   2.126   3.457   6.794  0.5839 -0.1080  0.1676
29881SOL    HW198421   2.081   3.479   6.876  1.5082  0.0023  0.6613
29881SOL    HW298422   2.204   3.512   6.794  0.2217  0.4461 -1.1682
29882SOL     OW98423   7.713   0.941   4.681 -0.0910 -0.0445  0.0450
29882SOL    HW198424   7.701   1.006   4.750  2.2848 -0.7904  1.3021
29882SOL    HW298425   7.808   0.924   4.680 -0.5375 -3.2182 -0.4390
29883SOL     OW98426   5.604   8.775  11.730 -0.1595 -0.2120 -0.1400
29883SOL    HW198427   5.675   8.743  11.675 -0.1971  0.2863 -0.4840
29883SOL    HW298428   5.647   8.805  11.810 -0.1235 -1.1057  0.1867
29884SOL     OW98429   3.448   5.794   6.853 -0.4475 -0.1997 -0.6371
29884SOL    HW198430   3.490   5.729   6.796 -0.6223 -0.7030 -0.2027
29884SOL    HW298431   3.391   5.742   6.910 -0.7372  0.3593 -0.4119
29885SOL     OW98432   6.179  10.942   2.628  0.2838 -0.3587  0.5895
29885SOL    HW198433   6.238  10.997   2.680 -0.6205  1.1401  0.0869
29885SOL    HW298434   6.092  10.958   2.665 -0.0066 -1.5015  0.4452
29886SOL     OW98435   4.866   7.094   5.328  0.2120 -0.5651 -0.3616
29886SOL    HW198436   4.773   7.099   5.309  0.4726  0.5166 -1.4212
29886SOL    HW298437   4.908   7.080   5.243  1.0602 -0.4759  0.0278
29887SOL     OW98438  10.835   3.071   1.790  0.4203  0.6689  1.0799
29887SOL    HW198439  10.787   3.130   1.732  1.5820 -0.2452 -0.9197
29887SOL    HW298440  10.924   3.105   1.790  0.8799 -0.5085  0.6941
29888SOL     OW98441   8.426   1.317   2.165 -0.6339  0.6596 -0.1411
29888SOL    HW198442   8.437   1.391   2.106 -0.2737 -0.6412 -1.7650
29888SOL    HW298443   8.332   1.309   2.176 -0.7492  0.4651 -1.1635
29889SOL     OW98444   6.489   9.114   1.572  0.1836  0.1992  0.9224
29889SOL    HW198445   6.561   9.051   1.574  2.2845  1.9658 -3.8096
29889SOL    HW298446   6.528   9.196   1.603  0.3159  1.1497 -1.5799
29890SOL     OW98447   9.728   5.345   0.665  0.6172 -0.3105  0.2266
29890SOL    HW198448   9.663   5.407   0.698  1.9564  1.6991 -0.7545
29890SOL    HW298449   9.676   5.269   0.637 -1.0624  0.3142  1.4718
29891SOL     OW98450   2.331   8.218   8.241  0.9510 -0.9510  0.2812
29891SOL    HW198451   2.287   8.164   8.307 -0.9128 -0.7889 -0.7675
29891SOL    HW298452   2.363   8.294   8.289 -1.1245 -0.4139  0.9189
29892SOL     OW98453   6.341   4.366   2.358  0.1251  0.6358  0.5486
29892SOL    HW198454   6.403   4.438   2.355 -0.2396  0.9396 -1.0764
29892SOL    HW298455   6.268   4.398   2.411  0.2592  1.2195  0.3798
29893SOL     OW98456   1.417   9.009   6.383  0.0012  0.3020 -0.6509
29893SOL    HW198457   1.323   9.011   6.369 -0.2957 -1.8229  0.6150
29893SOL    HW298458   1.452   8.965   6.306  0.0795  1.7714 -1.4820
29894SOL     OW98459   3.831   9.557   4.279  0.0939 -0.5719  0.4501
29894SOL    HW198460   3.851   9.612   4.355  2.0898  0.6092 -0.8484
29894SOL    HW298461   3.740   9.579   4.258 -0.1302 -0.0822  1.7832
29895SOL     OW98462   1.638   7.385   7.780 -0.3485 -0.0306  0.1507
29895SOL    HW198463   1.624   7.328   7.704  0.1464 -0.9492  0.7278
29895SOL    HW298464   1.733   7.392   7.788 -0.3930  0.0095  0.7047
29896SOL     OW98465   1.682   8.122   9.844 -0.4545 -0.0119  0.1657
29896SOL    HW198466   1.588   8.127   9.863 -0.9793 -1.3098 -1.7737
29896SOL    HW298467   1.696   8.189   9.777  0.1412  0.4988  0.7815
29897SOL     OW98468   6.604   6.874   1.314  0.1679  0.0749 -0.2095
29897SOL    HW198469   6.622   6.905   1.403  2.4886 -1.8883  0.1318
29897SOL    HW298470   6.585   6.781   1.325  1.0597 -0.3355 -1.7764
29898SOL     OW98471   1.421  10.803   5.922 -0.0722 -0.6057  0.8274
29898SOL    HW198472   1.391  10.859   5.851  2.9272  0.5924  0.3721
29898SOL    HW298473   1.391  10.847   6.002  0.4583  0.5401  0.4085
29899SOL     OW98474   6.077   2.212   4.490  0.0018 -0.5954  0.3464
29899SOL    HW198475   6.060   2.132   4.441 -0.7323  0.1021 -0.5759
29899SOL    HW298476   5.997   2.264   4.480  0.5478  0.3464  0.7349
29900SOL     OW98477   7.885   1.440   1.448  0.0289 -0.0779 -0.5718
29900SOL    HW198478   7.930   1.511   1.401 -0.6487  0.0303 -1.0776
29900SOL    HW298479   7.817   1.484   1.498  0.5412 -0.2299  0.2659
29901SOL     OW98480   1.067  10.074   2.111  0.1896  0.4321 -0.1481
29901SOL    HW198481   0.984  10.111   2.081 -1.1374 -1.1394  1.3750
29901SOL    HW298482   1.124  10.076   2.034 -1.2425  1.5493 -1.2304
29902SOL     OW98483  10.869   6.249   7.599  0.5418  0.3163  0.1848
29902SOL    HW198484  10.951   6.289   7.626 -0.1822  2.2778 -0.3112
29902SOL    HW298485  10.858   6.174   7.657  2.9338 -0.3504 -0.1359
29903SOL     OW98486   1.330   0.532   7.979 -0.1155  0.1703  0.1765
29903SOL    HW198487   1.259   0.562   8.035  0.6200  0.4099  1.0017
29903SOL    HW298488   1.357   0.449   8.016  0.2091  0.2053  0.0260
29904SOL     OW98489   8.158   7.383   2.479 -0.2766  0.5480 -0.0696
29904SOL    HW198490   8.183   7.361   2.389  0.3904 -0.8008  0.4286
29904SOL    HW298491   8.126   7.474   2.473  2.3399  1.4927 -1.1847
29905SOL     OW98492   6.744   3.843  12.428 -0.4164 -0.0356 -0.1450
29905SOL    HW198493   6.756   3.848  12.333  0.7866 -2.0760 -0.1704
29905SOL    HW298494   6.797   3.915  12.462 -0.8148  0.6821 -1.0181
29906SOL     OW98495   4.681   1.115   8.299 -1.0253  0.0147  0.0477
29906SOL    HW198496   4.733   1.100   8.220  0.2280  2.1427  0.3960
29906SOL    HW298497   4.671   1.028   8.338  1.7869 -0.6148 -0.3832
29907SOL     OW98498   5.198   2.590   8.095 -0.5906 -0.0784 -0.5725
29907SOL    HW198499   5.193   2.530   8.170 -0.1897  1.3042  0.6069
29907SOL    HW298500   5.170   2.674   8.130  1.1246  0.9645 -1.5457
29908SOL     OW98501   0.585   6.091   0.607  0.4525  0.0592  0.6804
29908SOL    HW198502   0.591   6.177   0.647 -1.3187 -0.4707  2.2554
29908SOL    HW298503   0.567   6.108   0.515  0.5724  1.3584  0.8887
29909SOL     OW98504   8.970  12.509  11.953  0.0957 -0.4981 -0.2842
29909SOL    HW198505   9.041  12.461  11.912 -0.9126 -3.1018  0.7837
29909SOL    HW298506   8.997  12.519  12.044 -0.2608 -0.1307 -0.2142
29910SOL     OW98507   7.371  11.179   8.661 -0.0613  0.3892  0.0817
29910SOL    HW198508   7.409  11.195   8.747  0.9835  3.1118 -0.7743
29910SOL    HW298509   7.279  11.157   8.678  0.1397  0.8336  1.8649
29911SOL     OW98510   1.324  10.758  10.543 -0.5150 -0.0477  0.0742
29911SOL    HW198511   1.416  10.769  10.569  0.0027 -3.3922  0.2205
29911SOL    HW298512   1.326  10.756  10.448 -0.5247  0.3887  0.0638
29912SOL     OW98513   7.698  10.771   0.675 -0.8689  0.9076 -0.3567
29912SOL    HW198514   7.765  10.784   0.608  1.2390  0.0056  1.4436
29912SOL    HW298515   7.639  10.846   0.666  1.8193  3.1482 -0.4368
29913SOL     OW98516   6.562   7.424   3.526 -0.3841  0.1220  0.1020
29913SOL    HW198517   6.541   7.508   3.568 -1.3567  0.8706 -1.7476
29913SOL    HW298518   6.544   7.358   3.593 -0.9518  1.3104  1.1572
29914SOL     OW98519   7.834   1.677   3.628 -0.1356  0.3659 -0.0541
29914SOL    HW198520   7.861   1.588   3.650  0.9454  0.5253 -0.6468
29914SOL    HW298521   7.812   1.674   3.535  0.4333  0.8167 -0.2160
29915SOL     OW98522  10.087   0.212   1.802  0.2986  0.4639  0.2142
29915SOL    HW198523  10.057   0.303   1.796 -1.2331  0.1708  2.1891
29915SOL    HW298524  10.012   0.160   1.774  0.9924 -0.2147 -0.4218
29916SOL     OW98525   8.331   8.270   1.626  0.1631  0.4399  0.1997
29916SOL    HW198526   8.284   8.204   1.574  1.9562  0.6164 -1.7936
29916SOL    HW298527   8.262   8.315   1.675 -1.4450 -0.9013 -0.7064
29917SOL     OW98528   6.791   6.158   4.628 -0.4764  0.4305  0.1182
29917SOL    HW198529   6.695   6.148   4.623 -0.2816 -1.4132 -0.6868
29917SOL    HW298530   6.823   6.115   4.549  1.3264 -4.3678  3.0262
29918SOL     OW98531  10.206   1.778   1.792  0.2186 -0.6144  0.3692
29918SOL    HW198532  10.192   1.724   1.714 -0.3924  0.2508 -0.1360
29918SOL    HW298533  10.143   1.849   1.783  1.9879  1.0032  0.2619
29919SOL     OW98534  11.983  10.540   0.651  0.5998 -0.0200 -0.1687
29919SOL    HW198535  11.966  10.516   0.742  0.9036  2.4194  0.6154
29919SOL    HW298536  11.935  10.622   0.638  1.1217  0.0522 -1.9999
29920SOL     OW98537   0.629  11.411   4.222  0.3865  0.1675 -0.1396
29920SOL    HW198538   0.631  11.488   4.278 -1.1179  0.4559 -0.4511
29920SOL    HW298539   0.539  11.379   4.227  0.2555  0.0764 -2.2075
29921SOL     OW98540   1.149   5.702   1.667 -0.3798 -0.0191 -0.1191
29921SOL    HW198541   1.187   5.657   1.591 -0.2259 -0.8678  0.4464
29921SOL    HW298542   1.059   5.721   1.640 -0.0873  0.4413 -0.8180
29922SOL     OW98543   0.623   5.924  11.281  0.1420 -0.7370 -0.0181
29922SOL    HW198544   0.700   5.880  11.316  0.3342 -0.3625  0.0320
29922SOL    HW298545   0.578   5.856  11.230 -0.2020 -1.3307  1.0375
29923SOL     OW98546   8.188   3.188   1.244 -0.1640  0.4150  0.1664
29923SOL    HW198547   8.128   3.133   1.192  1.0282 -0.0495 -0.7529
29923SOL    HW298548   8.236   3.126   1.298  1.1176  0.5397 -0.7999
29924SOL     OW98549   5.093   0.461  12.206 -0.1063  0.0387 -0.0415
29924SOL    HW198550   5.163   0.523  12.185 -0.4773  0.8922  1.1310
29924SOL    HW298551   5.114   0.429  12.293 -0.1910 -1.1431 -0.4403
29925SOL     OW98552   6.470   8.765   5.365  0.0824  0.2871 -0.5678
29925SOL    HW198553   6.552   8.726   5.334 -0.6952 -2.0261  0.1426
29925SOL    HW298554   6.401   8.709   5.330 -1.0311  0.1006  1.7499
29926SOL     OW98555   5.957   9.483  10.973 -0.1581 -0.6022  0.4069
29926SOL    HW198556   5.926   9.426  11.043 -0.6757 -0.3421  0.4027
29926SOL    HW298557   5.936   9.572  11.004 -0.5439 -0.4931 -0.1366
29927SOL     OW98558   3.076   3.382   6.185  0.1469 -0.5182 -0.0960
29927SOL    HW198559   3.074   3.476   6.201  0.4604 -0.6154  0.5555
29927SOL    HW298560   3.157   3.368   6.135 -1.0738 -0.1501 -2.3472
29928SOL     OW98561   6.215   1.663   2.472  0.3377 -0.5462  0.0938
29928SOL    HW198562   6.148   1.691   2.534 -0.0353 -2.1566  0.4516
29928SOL    HW298563   6.201   1.720   2.396 -0.2812  0.3198  0.8240
29929SOL     OW98564   7.557   2.720   3.113 -0.1784 -0.2784  0.3995
29929SOL    HW198565   7.557   2.694   3.205 -1.0175  1.2497  0.8751
29929SOL    HW298566   7.472   2.691   3.080  0.7652 -2.3144 -0.3984
29930SOL     OW98567   5.468   7.891   0.919  0.1442 -0.8690  0.1148
29930SOL    HW198568   5.488   7.866   0.829 -0.3741  1.1351 -0.6104
29930SOL    HW298569   5.553   7.904   0.960  0.4345  0.6860 -0.8784
29931SOL     OW98570   0.026  12.092   4.553  0.4481 -0.0149  0.1942
29931SOL    HW198571  -0.033  12.153   4.596 -1.0816 -1.3158  0.0424
29931SOL    HW298572  -0.013  12.006   4.569  1.1036 -0.7389 -1.7953
29932SOL     OW98573   8.471   6.627   7.834  0.0897  0.4852 -0.0588
29932SOL    HW198574   8.503   6.711   7.868  1.3964 -0.6577  1.6969
29932SOL    HW298575   8.425   6.588   7.908 -0.5682 -0.3394 -0.8805
29933SOL     OW98576  11.066   5.481   2.180 -0.6005 -0.1188 -0.6222
29933SOL    HW198577  11.006   5.485   2.106  0.9863  0.8091 -1.9083
29933SOL    HW298578  11.138   5.425   2.150 -0.6104 -0.9226  0.7576
29934SOL     OW98579   8.045   3.661   3.706  0.1026  0.5553 -0.3417
29934SOL    HW198580   8.003   3.579   3.679  1.4712  0.3662 -2.0520
29934SOL    HW298581   8.036   3.662   3.801 -0.1886 -1.4559 -0.3072
29935SOL     OW98582   8.653  11.587   0.603 -0.0434  0.6903  0.1894
29935SOL    HW198583   8.571  11.636   0.608 -0.2565  0.3202  0.3911
29935SOL    HW298584   8.703  11.630   0.534 -1.2203 -0.2666 -1.3263
29936SOL     OW98585   8.581  10.975   0.341 -0.0346  0.2513 -0.2008
29936SOL    HW198586   8.582  10.952   0.249  0.7414  0.7832 -0.3357
29936SOL    HW298587   8.530  10.906   0.383 -3.2553  1.6818 -1.4508
29937SOL     OW98588   9.535   2.733   5.700 -0.0212 -0.3595  0.0092
29937SOL    HW198589   9.517   2.716   5.793  0.9989  1.1136  0.5071
29937SOL    HW298590   9.629   2.719   5.691 -0.2742 -1.6356 -1.1069
29938SOL     OW98591   8.885  12.245   5.756 -0.1720  0.2789 -0.7000
29938SOL    HW198592   8.958  12.280   5.705  0.1804  0.0818 -0.3461
29938SOL    HW298593   8.849  12.321   5.801 -0.4640  0.4480 -1.2137
29939SOL     OW98594   0.025   4.239  12.110 -0.1365  0.4695 -0.1240
29939SOL    HW198595  -0.053   4.184  12.111  0.5034 -0.4931 -0.8031
29939SOL    HW298596   0.036   4.268  12.200 -0.1076 -1.1121  0.4081
29940SOL     OW98597   4.375   5.642   1.153  0.1828 -0.3363  0.2423
29940SOL    HW198598   4.465   5.675   1.155  0.3148 -0.7174  2.4508
29940SOL    HW298599   4.321   5.721   1.158  0.2939 -0.0238 -2.0713
29941SOL     OW98600  12.384   7.717   2.172 -0.8190  0.3517  0.0650
29941SOL    HW198601  12.463   7.698   2.221 -1.0651 -1.0044 -0.0275
29941SOL    HW298602  12.334   7.775   2.230 -0.3098  0.2247  0.6472
29942SOL     OW98603   3.167   1.304   4.857  0.4362  0.2297  0.6233
29942SOL    HW198604   3.094   1.359   4.885 -0.1530 -0.0050 -0.3963
29942SOL    HW298605   3.241   1.364   4.850 -0.2834  0.9953 -0.8467
29943SOL     OW98606   5.069  12.433   0.449  0.1739  0.5551 -0.6784
29943SOL    HW198607   5.136  12.377   0.487 -0.5364  0.2035  0.1086
29943SOL    HW298608   5.001  12.439   0.517 -1.1552 -0.1012 -1.8887
29944SOL     OW98609   1.865   7.421   6.550  0.2692 -0.2303 -0.1537
29944SOL    HW198610   1.801   7.492   6.559  0.8724  0.2739  0.2669
29944SOL    HW298611   1.864   7.378   6.635  2.9424  1.9236  1.1131
29945SOL     OW98612  11.143   4.192   5.617 -0.5142  0.0439 -0.1896
29945SOL    HW198613  11.092   4.111   5.608  0.2740 -0.4236 -0.5380
29945SOL    HW298614  11.213   4.170   5.678 -0.4685  0.5596 -0.0476
29946SOL     OW98615   2.671   9.809   1.295  0.1147 -0.0666  0.4046
29946SOL    HW198616   2.610   9.767   1.235 -0.8752  0.2813  1.1480
29946SOL    HW298617   2.616   9.842   1.366  0.8440  2.2743 -0.0233
29947SOL     OW98618  11.744  10.088   8.857 -0.1669 -0.1101 -0.1470
29947SOL    HW198619  11.795  10.038   8.920  1.6989  0.6308 -0.9862
29947SOL    HW298620  11.723  10.170   8.901  0.0580 -0.0914 -0.0785
29948SOL     OW98621  11.648   4.769   5.762  0.2241  0.4333  0.0276
29948SOL    HW198622  11.743   4.782   5.767  0.3167 -0.3475  0.4952
29948SOL    HW298623  11.632   4.689   5.812 -0.7197  0.7089  0.1979
29949SOL     OW98624   6.452   9.001   0.124 -0.0354 -0.3371 -0.3856
29949SOL    HW198625   6.461   9.096   0.115  0.7471 -0.0784  2.2286
29949SOL    HW298626   6.373   8.979   0.075 -1.0738  1.8961  0.1887
29950SOL     OW98627   3.842   0.965   0.754  0.5837  0.2529 -0.2244
29950SOL    HW198628   3.880   1.041   0.709 -0.6260  0.3773 -1.0601
29950SOL    HW298629   3.825   0.902   0.684  2.0320 -1.0365  0.5109
29951SOL     OW98630   2.295   2.808  11.168 -0.6002 -0.5331  0.3395
29951SOL    HW198631   2.255   2.785  11.252  1.0489 -1.4820  0.9277
29951SOL    HW298632   2.328   2.725  11.134  0.0046  0.0562 -0.5521
29952SOL     OW98633   1.172   9.308   5.029  0.0330 -0.0776 -0.0899
29952SOL    HW198634   1.145   9.342   5.114 -1.3005 -0.8205 -0.1854
29952SOL    HW298635   1.097   9.256   4.999  0.7329 -0.3684 -1.4203
29953SOL     OW98636  10.695   2.842   2.108  0.6158  0.4844 -0.7417
29953SOL    HW198637  10.711   2.783   2.182  2.0846  0.4739 -1.0391
29953SOL    HW298638  10.698   2.786   2.031 -2.0545  0.2900 -0.8077
29954SOL     OW98639   9.347   6.691   3.676 -0.0150  0.1519  0.6059
29954SOL    HW198640   9.251   6.692   3.676 -0.0155  0.2332  0.7152
29954SOL    HW298641   9.370   6.600   3.657 -0.1218 -0.1801  1.9635
29955SOL     OW98642   4.336   4.439   3.061 -0.5471 -0.0888  0.2816
29955SOL    HW198643   4.401   4.369   3.071 -2.0673 -1.2320  3.3008
29955SOL    HW298644   4.371   4.512   3.111  0.0343  0.5996 -1.0891
29956SOL     OW98645   2.886   3.083   7.042 -0.3231 -0.0391  0.2150
29956SOL    HW198646   2.896   3.144   6.969 -0.6105 -0.8510 -0.5207
29956SOL    HW298647   2.975   3.067   7.073 -0.3689  3.2276  2.5732
29957SOL     OW98648   5.448   5.979   0.618 -0.0321  0.3090  0.0548
29957SOL    HW198649   5.504   6.044   0.659  0.3279 -0.2252  0.4134
29957SOL    HW298650   5.360   6.016   0.623 -0.0479  0.0967  1.6417
29958SOL     OW98651   0.784   4.282   7.783  0.4526  0.3121 -0.0864
29958SOL    HW198652   0.747   4.365   7.751 -3.7158 -0.8627  1.0267
29958SOL    HW298653   0.796   4.230   7.704 -0.5959  0.6799 -0.5087
29959SOL     OW98654   4.200   7.678  11.221 -0.8374 -0.2325 -0.7989
29959SOL    HW198655   4.110   7.646  11.230 -0.2416 -2.2677 -1.6145
29959SOL    HW298656   4.207   7.705  11.129 -1.1781  1.9471 -0.2474
29960SOL     OW98657   9.202   1.781  10.708 -0.0835 -0.8790  0.8354
29960SOL    HW198658   9.136   1.850  10.711 -0.8375 -1.5358  0.0316
29960SOL    HW298659   9.155   1.704  10.677  0.9272 -1.5384  0.8760
29961SOL     OW98660  12.574  12.206   9.652  0.4130 -0.1677 -0.1739
29961SOL    HW198661  12.627  12.286   9.661 -0.8179  0.5784  0.8034
29961SOL    HW298662  12.491  12.237   9.615  0.5805 -1.2887 -1.5251
29962SOL     OW98663   7.703   3.363   3.918  0.3825 -0.2003 -0.3445
29962SOL    HW198664   7.680   3.404   4.001  2.0288 -0.4086  0.2632
29962SOL    HW298665   7.776   3.305   3.939 -0.7053 -2.0989 -1.5196
29963SOL     OW98666   1.583   6.610   6.699 -0.1921 -0.0568 -0.6598
29963SOL    HW198667   1.547   6.692   6.665 -0.9251 -0.0774  0.0715
29963SOL    HW298668   1.510   6.566   6.741  0.4080 -0.6619 -0.2240
29964SOL     OW98669   7.736  11.052  12.001  0.6889  0.3162  0.6076
29964SOL    HW198670   7.737  11.116  12.071  1.4840 -0.0468  0.9423
29964SOL    HW298671   7.821  11.062  11.958  0.1531  0.6521 -0.4233
29965SOL     OW98672  11.609   7.421   9.728 -0.0825 -0.4513  0.6139
29965SOL    HW198673  11.639   7.373   9.650  0.0816  0.7240 -0.0777
29965SOL    HW298674  11.535   7.370   9.760 -1.4672  0.0974 -1.5249
29966SOL     OW98675   7.304  11.736   2.348 -0.8030  0.4280 -0.4618
29966SOL    HW198676   7.286  11.829   2.337 -2.3339  0.2870  0.5150
29966SOL    HW298677   7.228  11.692   2.310 -1.0860 -0.3375  0.9234
29967SOL     OW98678   7.231  10.102   7.168  1.0218 -0.3221  0.1414
29967SOL    HW198679   7.264  10.187   7.199  0.1700 -0.0387  0.3096
29967SOL    HW298680   7.190  10.063   7.245 -1.7123  0.6733 -0.6785
29968SOL     OW98681   3.356   2.446   9.743  0.2754 -0.1609  0.3188
29968SOL    HW198682   3.399   2.515   9.794 -0.9517 -0.1122  1.3320
29968SOL    HW298683   3.312   2.391   9.808 -0.3561 -0.7932 -0.6104
29969SOL     OW98684  10.323   5.470   6.724 -0.2017 -0.5861 -0.3600
29969SOL    HW198685  10.404   5.429   6.695  0.0689 -0.3700  0.0723
29969SOL    HW298686  10.254   5.409   6.698  0.1781 -1.2306  0.1062
29970SOL     OW98687   8.379   3.872   5.206  0.4074  0.8869  0.1258
29970SOL    HW198688   8.465   3.905   5.230  1.3010 -1.2693  0.1778
29970SOL    HW298689   8.340   3.843   5.289  1.7708 -2.6776 -0.2682
29971SOL     OW98690   6.681   6.372   6.864  0.0059  0.4326  0.2133
29971SOL    HW198691   6.714   6.401   6.779 -0.3090 -0.1503 -0.1198
29971SOL    HW298692   6.610   6.311   6.842  0.4443 -0.3424  0.8712
29972SOL     OW98693   0.339   8.949   7.908 -0.2465  0.1413  0.3416
29972SOL    HW198694   0.434   8.941   7.903 -0.1958  0.8093  0.1090
29972SOL    HW298695   0.306   8.872   7.861  0.1559 -0.8138  1.5613
29973SOL     OW98696   5.226   2.971   3.935  0.3388 -0.2392  0.0771
29973SOL    HW198697   5.192   2.987   4.023 -1.9848 -0.3520 -0.7318
29973SOL    HW298698   5.198   3.047   3.884  0.7384 -0.6719 -0.8174
29974SOL     OW98699   8.492   8.268  11.875 -0.5753 -0.1078 -0.1349
29974SOL    HW198700   8.468   8.178  11.897 -2.5799 -0.0832 -1.9779
29974SOL    HW298701   8.587   8.265  11.860 -0.3338 -1.5267  1.4250
29975SOL     OW98702   6.116   1.062   0.964 -0.6921  0.1350  0.1481
29975SOL    HW198703   6.189   1.004   0.941 -1.0942  0.4747 -2.2422
29975SOL    HW298704   6.095   1.039   1.055  1.2148 -1.1982  0.3282
29976SOL     OW98705   5.161   1.360   7.707 -0.2247  0.4083 -0.4066
29976SOL    HW198706   5.203   1.303   7.642 -0.1158 -0.1957  0.1834
29976SOL    HW298707   5.115   1.425   7.655  0.1350  0.1302 -1.0896
29977SOL     OW98708   1.203   1.552   8.534 -0.0992 -0.0435 -0.1076
29977SOL    HW198709   1.233   1.551   8.443  0.1671 -0.6472 -0.0237
29977SOL    HW298710   1.143   1.625   8.539  1.5014  1.3366 -0.2410
29978SOL     OW98711   1.991   3.083   0.184  0.6907 -0.3083  0.5891
29978SOL    HW198712   1.943   3.006   0.151  1.0016 -0.4141  0.3800
29978SOL    HW298713   2.026   3.124   0.105  0.0136  0.3968  0.6438
29979SOL     OW98714   5.590   8.010   4.616 -0.0589  0.1826  0.7167
29979SOL    HW198715   5.496   8.011   4.598  0.1898  0.8219 -0.7109
29979SOL    HW298716   5.619   7.921   4.595  0.1564  0.7989 -1.9951
29980SOL     OW98717   6.862   6.576  12.569  0.0655 -0.5530 -0.1464
29980SOL    HW198718   6.784   6.606  12.522 -0.1969 -0.8854  0.0717
29980SOL    HW298719   6.846   6.601  12.660 -0.1475 -1.3305  0.0383
29981SOL     OW98720   1.318   1.960   0.318  0.1303 -0.1852 -0.4848
29981SOL    HW198721   1.324   1.920   0.405  0.1572  0.8313 -0.0027
29981SOL    HW298722   1.294   1.888   0.260 -0.1179 -0.8347  0.4041
29982SOL     OW98723   8.928   5.576   0.384 -0.3315  0.2173  0.0549
29982SOL    HW198724   8.946   5.494   0.338  1.5199  0.1071  0.8936
29982SOL    HW298725   8.953   5.645   0.322  0.7496  0.0870  0.3244
29983SOL     OW98726  10.854   6.233   3.753 -0.5795 -0.5907 -0.5413
29983SOL    HW198727  10.807   6.172   3.695  2.2582 -3.0482 -0.4830
29983SOL    HW298728  10.823   6.211   3.841  1.1520 -2.8876 -0.4011
29984SOL     OW98729  11.666   6.664   6.760  0.1536  0.0348 -0.9477
29984SOL    HW198730  11.724   6.600   6.802  1.4070  1.1137 -0.9839
29984SOL    HW298731  11.713   6.691   6.682  0.8456  2.8256  0.3057
29985SOL     OW98732   4.694   6.969   3.802  0.0793  0.3844  0.2314
29985SOL    HW198733   4.652   6.903   3.858  2.0645  0.1899  1.6083
29985SOL    HW298734   4.623   7.025   3.772 -1.4040 -1.1858  0.6768
29986SOL     OW98735   4.819   8.160   2.502 -0.2056  0.8000  0.4902
29986SOL    HW198736   4.902   8.188   2.462 -0.0124 -2.3146 -1.6303
29986SOL    HW298737   4.754   8.221   2.467  1.0114  2.8445  1.6166
29987SOL     OW98738  12.297   4.379   4.746 -0.6551 -0.1734 -0.3345
29987SOL    HW198739  12.323   4.388   4.837  0.3766  0.2227 -0.6533
29987SOL    HW298740  12.314   4.466   4.707 -3.6206  0.5325 -0.3106
29988SOL     OW98741   3.399   8.258   8.779 -0.1135  0.0384 -0.1064
29988SOL    HW198742   3.460   8.207   8.833  0.5203  0.5100 -0.3617
29988SOL    HW298743   3.328   8.281   8.839  0.5875  0.5678  0.5462
29989SOL     OW98744   8.083   6.809   9.352 -0.6876 -0.4841  0.1352
29989SOL    HW198745   8.145   6.800   9.280  0.9614  0.8049  1.3132
29989SOL    HW298746   8.049   6.720   9.366  0.3101 -1.0749 -1.0397
29990SOL     OW98747   8.340   3.559   1.378 -0.0305  0.9633  1.0481
29990SOL    HW198748   8.263   3.517   1.339 -0.4703  0.9572  1.8945
29990SOL    HW298749   8.368   3.498   1.447 -0.4707  1.8768  2.0719
29991SOL     OW98750   6.836  12.170   8.911 -0.0459  0.2745  0.3037
29991SOL    HW198751   6.758  12.115   8.907  1.3379 -1.7380 -2.9598
29991SOL    HW298752   6.809  12.252   8.869 -0.8186  0.2880  0.7902
29992SOL     OW98753   3.832   4.416   9.423  0.1708  0.1909  0.2531
29992SOL    HW198754   3.872   4.471   9.355  0.8342 -1.0026 -0.3519
29992SOL    HW298755   3.758   4.374   9.380  0.5588 -0.5241  0.2673
29993SOL     OW98756   1.374  11.782   1.625  0.0307  0.7395 -0.8697
29993SOL    HW198757   1.376  11.686   1.628  0.9934  0.7629 -0.5380
29993SOL    HW298758   1.455  11.807   1.582  0.3931  1.4313  0.1690
29994SOL     OW98759   4.320   2.632   2.310 -0.4610 -0.2819 -0.6445
29994SOL    HW198760   4.299   2.617   2.402 -0.3430 -0.6866 -0.6817
29994SOL    HW298761   4.274   2.562   2.263  1.7324 -1.8191 -0.6405
29995SOL     OW98762   7.267   2.886   0.844 -0.3291 -0.0229  0.1772
29995SOL    HW198763   7.314   2.933   0.775  0.8074 -1.5424 -0.1455
29995SOL    HW298764   7.205   2.830   0.798  1.2427 -1.9204  0.2324
29996SOL     OW98765   3.029   4.127   8.498  0.2979  0.5723  0.3368
29996SOL    HW198766   3.102   4.189   8.494  0.7783 -0.0215 -0.5669
29996SOL    HW298767   2.983   4.149   8.578  0.7100  1.8209  0.2500
29997SOL     OW98768  11.245  11.456   0.068  0.0855 -0.0713  0.3951
29997SOL    HW198769  11.339  11.466   0.054  0.0098 -0.6352 -0.6705
29997SOL    HW298770  11.209  11.544   0.054  0.2176 -0.2747 -1.5534
29998SOL     OW98771  11.245  11.322   7.194  0.3548  0.1247  0.6440
29998SOL    HW198772  11.275  11.269   7.121  1.1059  1.0807  0.2345
29998SOL    HW298773  11.324  11.364   7.227 -0.0629  0.1494  1.6457
29999SOL     OW98774  11.743   9.257  11.746 -0.3370 -0.0992  0.1802
29999SOL    HW198775  11.737   9.245  11.651  1.3409  2.1734 -0.3034
29999SOL    HW298776  11.666   9.213  11.781 -1.6222 -0.0261 -2.3455
30000SOL     OW98777   6.808   8.667   1.843 -0.2006  0.2956  0.0724
30000SOL    HW198778   6.888   8.615   1.838  0.7568  1.6747  0.4290
30000SOL    HW298779   6.773   8.651   1.930  0.6514  1.0161  0.5606
30001SOL     OW98780   1.646  12.059   4.849 -0.1332  0.4264 -0.0755
30001SOL    HW198781   1.609  12.035   4.764  0.0044  0.6980 -0.2122
30001SOL    HW298782   1.571  12.088   4.901 -0.0531  1.4481 -0.5138
30002SOL     OW98783   5.396   1.481   5.024 -0.0297 -0.0129  0.3263
30002SOL    HW198784   5.479   1.442   5.049 -0.1296  0.5303  1.6097
30002SOL    HW298785   5.419   1.548   4.959  0.6106  0.4973  1.0649
30003SOL     OW98786   6.543  10.473   6.182  0.2065  0.0909  0.2845
30003SOL    HW198787   6.531  10.467   6.087  3.3865  2.5247 -0.4775
30003SOL    HW298788   6.493  10.551   6.207  0.9737  0.6259  0.1861
30004SOL     OW98789  12.250   0.800   7.770  0.0530 -0.0779 -0.0328
30004SOL    HW198790  12.323   0.819   7.828 -0.7622  0.1817  0.9268
30004SOL    HW298791  12.269   0.712   7.736 -0.9233 -1.5897  2.9843
30005SOL     OW98792  11.318   8.761   0.945 -0.0191 -0.0711 -0.0612
30005SOL    HW198793  11.314   8.701   0.870  1.7480  0.2238 -0.4372
30005SOL    HW298794  11.333   8.847   0.906  0.1391  0.2065  0.6029
30006SOL     OW98795   4.649   9.013   9.835 -0.2028 -0.4358  0.1991
30006SOL    HW198796   4.580   9.045   9.777  0.5881 -0.6410 -0.8934
30006SOL    HW298797   4.707   8.963   9.777  0.2718 -1.1901  1.2965
30007SOL     OW98798  11.802   9.246   6.179 -0.0695 -0.4294 -0.1416
30007SOL    HW198799  11.850   9.175   6.222  0.9977  0.4917  0.2495
30007SOL    HW298800  11.761   9.294   6.251 -1.4017 -1.0555 -0.4546
30008SOL     OW98801   5.054   8.784   9.408  0.2299 -0.2821  0.8187
30008SOL    HW198802   5.008   8.712   9.449  2.1715 -0.8776  2.1386
30008SOL    HW298803   5.146   8.758   9.411  0.8610  1.6765  0.1588
30009SOL     OW98804   5.389   5.833   5.675  0.0636 -0.3017  0.2224
30009SOL    HW198805   5.296   5.832   5.697  0.2291  2.8753  1.5751
30009SOL    HW298806   5.392   5.868   5.586 -0.0598 -0.9998 -0.0571
30010SOL     OW98807  11.858   7.321   5.849 -0.0024 -0.2029  0.2005
30010SOL    HW198808  11.808   7.368   5.782 -1.9968 -1.5588  0.6523
30010SOL    HW298809  11.907   7.255   5.800 -0.9455 -0.7664 -0.0038
30011SOL     OW98810  11.336   3.552   4.314 -0.1370  0.1440 -0.2857
30011SOL    HW198811  11.339   3.555   4.409  1.2737 -0.9139 -0.2622
30011SOL    HW298812  11.350   3.643   4.287  1.3320  0.1897  0.5275
30012SOL     OW98813   4.654   5.299   0.993 -0.2000  0.3713  0.4370
30012SOL    HW198814   4.613   5.212   0.997  0.4000  0.0328 -0.4937
30012SOL    HW298815   4.711   5.301   1.070  0.3730 -0.3883  0.0559
30013SOL     OW98816   1.386   6.225   4.899  0.2728 -0.0610 -0.0754
30013SOL    HW198817   1.297   6.220   4.933  0.4403 -0.2608  0.3316
30013SOL    HW298818   1.420   6.308   4.933 -0.3154  0.8470 -1.5902
30014SOL     OW98819   4.790   7.257   1.655  0.1841 -0.1075 -0.3809
30014SOL    HW198820   4.818   7.210   1.734  0.8820  2.2293  0.8763
30014SOL    HW298821   4.713   7.307   1.684  0.8397  1.2902 -0.9520
30015SOL     OW98822   1.790   4.914   4.802 -0.2571 -0.4482 -0.2445
30015SOL    HW198823   1.713   4.907   4.746 -0.1334 -0.5553 -0.4044
30015SOL    HW298824   1.829   4.826   4.800 -1.2743 -0.9657  1.4964
30016SOL     OW98825   3.642   3.119   7.108  0.2021  0.1647 -0.0959
30016SOL    HW198826   3.641   3.214   7.093  1.3511  0.0298 -1.1973
30016SOL    HW298827   3.637   3.081   7.020 -2.0743 -0.8638  0.4048
30017SOL     OW98828  11.576   9.751   0.656  0.7505 -0.8665 -1.1904
30017SOL    HW198829  11.519   9.828   0.662 -0.0059 -1.3630 -1.7634
30017SOL    HW298830  11.516   9.677   0.644  1.3221 -1.8158  1.1476
30018SOL     OW98831   2.821  12.070   3.956  0.1543  0.7250 -0.2388
30018SOL    HW198832   2.774  12.075   4.039 -0.8913  2.7684 -0.8924
30018SOL    HW298833   2.862  12.156   3.946  3.0619 -0.5377 -0.3329
30019SOL     OW98834   1.400   2.439  10.082  0.0939  0.4676  0.2627
30019SOL    HW198835   1.370   2.530  10.080  0.3714  0.5895  1.2634
30019SOL    HW298836   1.466   2.437  10.151  0.4484 -0.3902 -0.0878
30020SOL     OW98837  10.241   5.887   8.221  0.0234 -0.7577 -0.5538
30020SOL    HW198838  10.238   5.839   8.304  0.0256 -1.0527 -0.7232
30020SOL    HW298839  10.194   5.831   8.159  0.7256 -0.9202 -0.9448
30021SOL     OW98840   6.911   1.565   1.710 -0.2266 -0.6020 -0.5483
30021SOL    HW198841   7.006   1.578   1.709 -0.1674 -1.0159 -0.3607
30021SOL    HW298842   6.900   1.470   1.702 -0.5812 -0.7556  1.4312
30022SOL     OW98843   2.815   3.205   9.054  0.6925 -0.9857 -0.5113
30022SOL    HW198844   2.794   3.122   9.012 -2.1657 -1.5505  1.7264
30022SOL    HW298845   2.876   3.182   9.124 -1.6565 -1.6937  1.4332
30023SOL     OW98846   2.729   3.898   5.897 -0.6233  0.0608  0.1614
30023SOL    HW198847   2.752   3.882   5.989 -2.8936  0.1715  0.8091
30023SOL    HW298848   2.635   3.919   5.899 -0.7816 -0.1423 -2.2133
30024SOL     OW98849  12.026   3.643  10.803 -0.3820  0.3753 -0.4430
30024SOL    HW198850  12.051   3.562  10.758 -3.7285 -0.9890 -0.1931
30024SOL    HW298851  12.073   3.639  10.887  0.4866 -0.6484 -0.9539
30025SOL     OW98852  10.342   0.353   6.647  0.2464 -0.2651  0.6171
30025SOL    HW198853  10.343   0.258   6.657  1.5378 -0.3875 -0.4291
30025SOL    HW298854  10.435   0.378   6.646 -0.0319  0.8074 -0.7582
30026SOL     OW98855   3.990   6.326   6.878 -0.2934 -0.2959  0.5604
30026SOL    HW198856   3.997   6.348   6.971  0.0728  0.2887  0.3926
30026SOL    HW298857   3.904   6.283   6.871 -1.3420  1.6460  0.7779
30027SOL     OW98858   9.936   1.872   6.712  1.0432 -0.2233 -0.7125
30027SOL    HW198859   9.897   1.904   6.631  1.7257  0.4150 -0.7998
30027SOL    HW298860   9.902   1.930   6.780  0.4909 -0.7435 -0.5347
30028SOL     OW98861  12.208   9.943   7.183  0.3014  0.3227 -0.3864
30028SOL    HW198862  12.113   9.928   7.187 -0.0838  2.5801  0.6847
30028SOL    HW298863  12.246   9.855   7.181 -1.7916 -0.6555 -0.2267
30029SOL     OW98864   0.371   5.451   2.436  0.0079 -0.3600  0.1507
30029SOL    HW198865   0.288   5.481   2.474  1.3661  1.9727  1.6001
30029SOL    HW298866   0.387   5.512   2.364  0.2646 -1.0816 -0.4081
30030SOL     OW98867   9.366   0.153   9.974  0.3496  0.2125 -0.2396
30030SOL    HW198868   9.325   0.150   9.887 -1.5743 -0.8707  0.6437
30030SOL    HW298869   9.427   0.080   9.974 -0.1742 -0.2267 -0.4244
30031SOL     OW98870   7.250   4.400  10.938 -0.2243 -0.0411  0.1814
30031SOL    HW198871   7.278   4.334  10.876 -0.4588  0.9381 -1.0018
30031SOL    HW298872   7.260   4.483  10.892 -1.0081  0.6708  1.2246
30032SOL     OW98873   1.191  10.527   6.140 -0.4674  0.3664  0.4358
30032SOL    HW198874   1.197  10.477   6.221  0.7990  0.2879  0.3134
30032SOL    HW298875   1.282  10.543   6.115 -0.8288  0.0080 -1.2112
30033SOL     OW98876   0.862  10.233   5.485  0.2679  0.2487  0.0006
30033SOL    HW198877   0.951  10.257   5.512  0.1751 -1.1224  1.6154
30033SOL    HW298878   0.856  10.139   5.501 -0.9389 -0.0194 -1.7264
30034SOL     OW98879   6.901   6.618   2.046 -0.2096  0.1166 -0.4248
30034SOL    HW198880   6.869   6.604   2.136  1.3438  2.5608  0.6090
30034SOL    HW298881   6.983   6.569   2.042 -0.1291  0.2508 -0.4124
30035SOL     OW98882   5.869  11.457   6.802 -0.1976  0.1805 -0.2227
30035SOL    HW198883   5.859  11.420   6.714  2.4952 -0.0917 -0.5210
30035SOL    HW298884   5.933  11.527   6.791 -1.1819  1.3713  1.2586
30036SOL     OW98885   6.728   4.070   1.006  0.0936 -0.8575  0.1807
30036SOL    HW198886   6.699   4.046   0.918  0.5702 -1.1514  0.0987
30036SOL    HW298887   6.693   4.002   1.063  2.0355 -2.2230 -0.1410
30037SOL     OW98888   6.181   0.115   7.135  0.2643 -0.4187  0.0894
30037SOL    HW198889   6.225   0.195   7.164  0.3443 -0.4206 -0.0240
30037SOL    HW298890   6.221   0.095   7.050 -0.9059  0.3454 -0.6807
30038SOL     OW98891   6.641  11.101   5.642  0.1329 -0.4206 -0.3443
30038SOL    HW198892   6.566  11.059   5.600  0.2524 -1.7126  0.6600
30038SOL    HW298893   6.713  11.038   5.632  0.8940  0.4855 -0.6715
30039SOL     OW98894  10.502   1.006   0.573  0.0755 -0.0928  0.5364
30039SOL    HW198895  10.590   0.994   0.538  0.0994 -1.6190  1.0264
30039SOL    HW298896  10.446   1.010   0.495  0.5055  0.1972  0.2398
30040SOL     OW98897   6.983  10.876   4.812  0.3153  0.7887  0.1432
30040SOL    HW198898   7.067  10.831   4.819  0.6306  1.3669  0.1086
30040SOL    HW298899   7.003  10.959   4.768 -0.2216  1.0658  0.4089
30041SOL     OW98900   6.532   0.350   0.677  0.0567  0.3264 -0.3460
30041SOL    HW198901   6.535   0.255   0.687 -1.2429 -0.0657 -2.9172
30041SOL    HW298902   6.446   0.375   0.709 -0.5765  0.2497 -1.8895
30042SOL     OW98903   1.906   8.196   2.718 -0.5537 -0.8522 -0.1165
30042SOL    HW198904   1.913   8.100   2.719  2.8192 -0.7409  2.1877
30042SOL    HW298905   1.881   8.219   2.807  0.6012  0.4341 -0.1009
30043SOL     OW98906   5.593  11.373   1.311 -1.4330  0.6092 -0.9463
30043SOL    HW198907   5.579  11.349   1.220 -0.6083 -0.9187 -0.6896
30043SOL    HW298908   5.566  11.297   1.362 -0.0680  0.6929 -0.0238
30044SOL     OW98909  10.766   6.803   0.624 -0.5980 -0.0722 -0.1500
30044SOL    HW198910  10.851   6.771   0.653 -0.3075  0.3936 -0.4816
30044SOL    HW298911  10.714   6.807   0.704  0.0659  0.7927  0.2517
30045SOL     OW98912   5.498   3.305  10.127  0.0094  0.1166  0.0473
30045SOL    HW198913   5.502   3.288  10.033  0.6026  1.5781 -0.2262
30045SOL    HW298914   5.422   3.362  10.138  0.7924  1.1736  0.2065
30046SOL     OW98915  12.067   6.300   6.922  0.0371 -0.1027  0.1289
30046SOL    HW198916  12.049   6.208   6.941  0.7090 -1.0859 -3.2387
30046SOL    HW298917  11.990   6.347   6.954 -1.6962 -2.2516 -0.5954
30047SOL     OW98918   2.304   3.207  11.607 -0.4414 -0.1848 -0.8738
30047SOL    HW198919   2.281   3.272  11.673  0.1908  0.2106 -1.0365
30047SOL    HW298920   2.377   3.246  11.559 -0.4872 -0.7320 -1.4033
30048SOL     OW98921   3.010   3.864  10.722 -0.0437  0.4992  0.4766
30048SOL    HW198922   3.099   3.867  10.688 -0.2143 -1.2990 -0.2477
30048SOL    HW298923   2.961   3.923  10.665  0.3123 -0.0249 -0.4019
30049SOL     OW98924   2.754   3.389   6.709 -0.2231  0.4826 -0.7172
30049SOL    HW198925   2.747   3.294   6.703  0.6264  0.4726 -1.9405
30049SOL    HW298926   2.756   3.419   6.618 -2.8201  1.8993 -0.3907
30050SOL     OW98927  11.035   4.396   3.885 -0.1270  0.3030 -0.2364
30050SOL    HW198928  11.039   4.480   3.930 -2.4409  0.1487  0.3845
30050SOL    HW298929  10.950   4.359   3.909  0.2850 -1.6595 -1.4920
30051SOL     OW98930   3.876   5.553   6.319 -0.1098 -0.2644 -0.4022
30051SOL    HW198931   3.791   5.544   6.275 -0.9801 -3.1091  1.5167
30051SOL    HW298932   3.937   5.505   6.263  0.0625  0.9773 -1.3080
30052SOL     OW98933   2.468   7.019   7.364  0.1900  0.2869  0.5087
30052SOL    HW198934   2.452   6.925   7.358 -1.0577  0.5716 -1.6316
30052SOL    HW298935   2.563   7.028   7.351  0.2147 -0.6334 -0.0213
30053SOL     OW98936   4.641  12.054   7.019 -0.2047  0.3544 -0.3016
30053SOL    HW198937   4.668  11.968   7.050  2.1349  1.5683  1.4081
30053SOL    HW298938   4.548  12.060   7.040 -0.6281 -2.0162 -1.2497
30054SOL     OW98939   5.909   1.765   4.629 -0.5075 -0.2132  0.1403
30054SOL    HW198940   5.937   1.674   4.635  0.5868  0.0218 -1.0971
30054SOL    HW298941   5.947   1.807   4.707  0.8191 -0.3592 -0.4087
30055SOL     OW98942   3.009  10.349   4.221 -0.5701  0.3143  0.2850
30055SOL    HW198943   2.960  10.305   4.152  1.5724  2.5043 -2.9229
30055SOL    HW298944   2.954  10.423   4.246 -0.7382  0.3580 -0.1957
30056SOL     OW98945   4.393   9.104  12.145  0.4056 -0.1894 -0.5906
30056SOL    HW198946   4.483   9.136  12.146  0.7748 -1.1690  1.1198
30056SOL    HW298947   4.394   9.033  12.081  0.6682  0.2484 -1.0817
30057SOL     OW98948   1.329   3.985   2.705  0.4900  0.5785 -0.6353
30057SOL    HW198949   1.240   3.954   2.725  1.0240  0.2076  1.4695
30057SOL    HW298950   1.317   4.075   2.677 -0.5172  0.8333  0.5081
30058SOL     OW98951   4.106   1.913   2.649  0.5521  0.7267  0.3279
30058SOL    HW198952   4.109   1.958   2.565  0.1338 -0.2446 -0.2258
30058SOL    HW298953   4.136   1.824   2.630 -1.2591 -0.0396  0.8314
30059SOL     OW98954   2.763   6.438  11.861 -0.2609  0.2399 -0.0002
30059SOL    HW198955   2.677   6.431  11.904 -0.5439 -0.8215 -0.7059
30059SOL    HW298956   2.743   6.441  11.768  0.5203 -1.6029 -0.2615
30060SOL     OW98957  10.907  10.557   2.886 -0.2397  0.4355 -0.4707
30060SOL    HW198958  10.904  10.542   2.791 -3.5832 -1.9957 -0.1844
30060SOL    HW298959  10.929  10.471   2.922 -1.4760  0.6911  0.9703
30061SOL     OW98960   4.774   6.847   1.864  0.3891  0.6059  0.0566
30061SOL    HW198961   4.700   6.807   1.817  0.6924  1.4339 -1.1854
30061SOL    HW298962   4.740   6.932   1.894  0.9732  1.2556 -1.0386
30062SOL     OW98963   2.622   2.002   6.354 -0.3518 -0.2075 -0.4381
30062SOL    HW198964   2.701   2.014   6.406 -1.7964  1.0131  1.6435
30062SOL    HW298965   2.585   1.919   6.385  0.8290 -1.6100 -2.5349
30063SOL     OW98966   4.261   2.964   1.199  0.6507 -0.4438 -0.1554
30063SOL    HW198967   4.291   3.003   1.281  0.9263  0.7364 -0.8030
30063SOL    HW298968   4.174   2.929   1.220  0.6618 -0.0454  0.6047
30064SOL     OW98969   3.959   3.782  12.610  0.0370  0.3903 -0.2459
30064SOL    HW198970   4.027   3.728  12.651  0.0772 -1.2762 -2.3007
30064SOL    HW298971   3.904   3.719  12.563 -1.1047  1.9929 -1.1526
30065SOL     OW98972   3.575   4.859   5.569 -0.4725  0.0645  0.2567
30065SOL    HW198973   3.507   4.822   5.625 -0.2458 -0.2530  0.3218
30065SOL    HW298974   3.646   4.794   5.570  0.4176  1.0175  1.3099
30066SOL     OW98975   8.246   2.768   0.284  0.0057  0.1569 -0.8733
30066SOL    HW198976   8.267   2.826   0.358 -0.0633 -2.5313  1.4236
30066SOL    HW298977   8.329   2.760   0.236  0.9133 -0.3513  0.6999
30067SOL     OW98978   1.355   7.662   4.294  0.4076  0.1523  0.0809
30067SOL    HW198979   1.450   7.656   4.295  0.4106  0.2409  0.4765
30067SOL    HW298980   1.325   7.573   4.276  0.5845  0.3652 -1.3601
30068SOL     OW98981   5.023  10.420   9.175 -0.0286  0.4654  0.3597
30068SOL    HW198982   5.053  10.436   9.086  0.4425 -2.2333 -0.0444
30068SOL    HW298983   5.094  10.454   9.230  0.0407  1.4267 -0.2916
30069SOL     OW98984  10.091   4.868   9.545 -0.1711 -0.6135 -0.0106
30069SOL    HW198985  10.060   4.871   9.454 -0.8355  1.3322  0.2201
30069SOL    HW298986  10.134   4.952   9.558  0.1015 -0.9515  1.4285
30070SOL     OW98987   8.445   5.473   8.444  0.0796 -0.3844  0.5346
30070SOL    HW198988   8.455   5.456   8.351  0.8999 -1.0353  0.7307
30070SOL    HW298989   8.369   5.421   8.471  0.3556 -0.8671  0.3944
30071SOL     OW98990  11.978  10.414  10.620  0.3468  0.0325 -0.1645
30071SOL    HW198991  12.016  10.379  10.701 -2.1455  0.7758  1.4636
30071SOL    HW298992  11.980  10.341  10.559  2.4374 -0.5199  0.4975
30072SOL     OW98993   0.673  11.204  10.931  0.2634  0.0554 -0.1644
30072SOL    HW198994   0.694  11.273  10.870  0.6312  1.6983  1.7247
30072SOL    HW298995   0.755  11.185  10.977 -0.7864  2.1375  2.9248
30073SOL     OW98996   2.517   8.968   0.528  0.3793  0.3840  0.2729
30073SOL    HW198997   2.510   8.888   0.579 -0.2508  0.1207 -0.2094
30073SOL    HW298998   2.609   8.969   0.498 -0.0603 -1.1942 -1.3419
30074SOL     OW98999  11.104   5.766   0.773 -0.2031  0.6477 -0.7142
30074SOL    HW199000  11.197   5.741   0.774 -0.5414 -0.7023  0.9162
30074SOL    HW299001  11.077   5.760   0.864 -2.1604  0.0065 -1.2965
30075SOL     OW99002  12.253   5.787  11.051  0.2775 -0.0827 -0.5550
30075SOL    HW199003  12.339   5.757  11.022 -0.8513 -2.7207 -1.4858
30075SOL    HW299004  12.245   5.753  11.140  0.1452  0.0085 -0.5326
30076SOL     OW99005   5.681   0.793   8.486  0.1295 -0.1834  0.2441
30076SOL    HW199006   5.689   0.707   8.527 -0.5731 -0.8547 -0.9769
30076SOL    HW299007   5.592   0.822   8.509  0.3248  0.1763  0.5606
30077SOL     OW99008   1.464   6.039   2.490 -0.0700 -0.3066 -0.1132
30077SOL    HW199009   1.520   6.020   2.566  1.6662  3.5522 -0.1879
30077SOL    HW299010   1.402   6.105   2.522  2.0255  3.0070 -2.2840
30078SOL     OW99011   0.772   4.765  10.449 -0.1208 -0.0135  0.0559
30078SOL    HW199012   0.693   4.794  10.402 -1.0874 -1.9209  0.3610
30078SOL    HW299013   0.844   4.787  10.390 -0.9821  0.7862 -0.7405
30079SOL     OW99014   3.353   7.663   0.316 -0.0507  0.2567 -0.1844
30079SOL    HW199015   3.413   7.652   0.243  2.5674 -2.5756  2.1252
30079SOL    HW299016   3.402   7.715   0.381 -0.0646 -1.8539  1.6341
30080SOL     OW99017   4.974   2.317  12.382 -0.1337 -0.3027  0.3091
30080SOL    HW199018   4.930   2.235  12.405 -2.0433  0.7279  0.5554
30080SOL    HW299019   4.931   2.346  12.302  1.9393 -0.5181 -0.9734
30081SOL     OW99020   6.829  11.967   8.120 -0.4465  0.1657  0.0102
30081SOL    HW199021   6.858  12.052   8.155 -0.7877  0.4092 -0.2894
30081SOL    HW299022   6.747  11.987   8.075 -2.0738 -0.8187  2.3597
30082SOL     OW99023   9.639   3.739   0.965 -0.1897 -0.4085 -0.4458
30082SOL    HW199024   9.627   3.650   1.000  1.0743 -0.3849  0.0817
30082SOL    HW299025   9.550   3.773   0.957 -0.6847  0.1176  4.1547
30083SOL     OW99026   0.127   7.928   5.514 -0.3268 -0.0031 -0.1146
30083SOL    HW199027   0.056   7.991   5.503  0.0618  0.6908  1.1104
30083SOL    HW299028   0.085   7.843   5.505 -1.4275  0.3838  1.0676
30084SOL     OW99029   6.185   7.777   8.374  0.3267  0.5398 -0.3663
30084SOL    HW199030   6.157   7.851   8.428  0.9595  1.7832 -1.6520
30084SOL    HW299031   6.134   7.785   8.293  1.1400  0.2009 -0.9315
30085SOL     OW99032   5.839   7.625  10.399 -0.3180 -0.1691  0.1942
30085SOL    HW199033   5.875   7.587  10.319  1.7104 -0.3024  1.1310
30085SOL    HW299034   5.854   7.559  10.466 -1.2902  0.2660  0.8595
30086SOL     OW99035   1.836  11.469   7.180 -0.2820  0.4636  0.0729
30086SOL    HW199036   1.784  11.408   7.128  0.4169  1.3053 -1.6917
30086SOL    HW299037   1.794  11.554   7.167  0.1977  0.7697  0.4761
30087SOL     OW99038   1.758   8.586   2.819 -0.3174 -0.1339  0.3837
30087SOL    HW199039   1.732   8.533   2.744 -0.3022 -2.3164  1.8184
30087SOL    HW299040   1.849   8.611   2.801  0.0048 -1.4688  0.1048
30088SOL     OW99041   2.433  12.461   6.884  0.0521 -0.7190 -0.2203
30088SOL    HW199042   2.470  12.546   6.909 -0.2216 -0.3322 -1.1143
30088SOL    HW299043   2.487  12.397   6.932  1.0869 -0.1067 -0.5337
30089SOL     OW99044  12.038  11.774   9.431 -0.0445 -0.0426 -0.3240
30089SOL    HW199045  12.069  11.782   9.521 -1.4046 -1.1056  0.2816
30089SOL    HW299046  12.005  11.862   9.409 -0.2278  0.0817  0.4239
30090SOL     OW99047   4.306   9.142   2.231  0.0619 -0.2878 -0.3512
30090SOL    HW199048   4.260   9.116   2.310 -0.9162  1.2829 -0.3582
30090SOL    HW299049   4.312   9.062   2.179 -0.4009 -1.0664  0.7564
30091SOL     OW99050   2.238   6.180   7.073  0.3200 -0.1754 -0.1270
30091SOL    HW199051   2.169   6.186   7.007  0.3281  0.3037 -0.0928
30091SOL    HW299052   2.214   6.246   7.138  0.9028  0.1028 -0.1936
30092SOL     OW99053   8.701   8.837   3.264 -0.5130 -0.6326 -0.4612
30092SOL    HW199054   8.739   8.823   3.178  2.0193 -1.1205  0.6369
30092SOL    HW299055   8.776   8.854   3.321 -2.1434  0.3555  1.5345
30093SOL     OW99056   7.891  12.571   1.859  0.1515  0.1958 -0.0561
30093SOL    HW199057   7.841  12.497   1.826 -0.1583  0.8090 -1.0246
30093SOL    HW299058   7.965  12.532   1.905  1.4304 -0.7636 -2.7365
30094SOL     OW99059   1.362   0.758  11.957  0.1680  0.1897  0.0599
30094SOL    HW199060   1.438   0.815  11.963  0.2078  0.1718 -0.2550
30094SOL    HW299061   1.287   0.817  11.962  0.2090  0.2763 -0.3061
30095SOL     OW99062   0.024   8.191   8.613  0.5507  0.4147  0.3028
30095SOL    HW199063  -0.050   8.145   8.651  0.2857  0.8598  0.3280
30095SOL    HW299064   0.100   8.138   8.638  0.1792 -0.4312 -0.3409
30096SOL     OW99065   5.142   9.459   1.042  0.3154  0.7300  0.0962
30096SOL    HW199066   5.195   9.522   1.091  1.4990  0.3642 -0.6524
30096SOL    HW299067   5.198   9.381   1.036 -1.0770 -0.3842  0.9254
30097SOL     OW99068  12.225   0.822  10.332  0.3398  0.0677  0.1631
30097SOL    HW199069  12.196   0.763  10.262  0.0681 -1.9365  1.8493
30097SOL    HW299070  12.313   0.791  10.355 -0.3741 -0.6991  2.0521
30098SOL     OW99071  10.630   3.304   2.457 -0.3704  0.5531 -0.3686
30098SOL    HW199072  10.541   3.270   2.468 -0.1626  0.5710  1.7365
30098SOL    HW299073  10.686   3.233   2.485  0.2565  0.9410 -0.6196
30099SOL     OW99074  10.984   0.930  10.649 -0.7201  0.0631 -0.2493
30099SOL    HW199075  11.051   0.868  10.619 -1.3360 -1.1273  0.7956
30099SOL    HW299076  10.966   0.984  10.571  0.6279 -0.3188 -0.8609
30100SOL     OW99077  12.072   9.968   5.455  0.2687  0.2285 -0.3008
30100SOL    HW199078  11.994  10.022   5.445  0.6252  0.5958 -1.2202
30100SOL    HW299079  12.112   9.967   5.368 -0.3409 -2.4590 -0.6545
30101SOL     OW99080   7.297   6.645   7.974 -0.1998  0.2387  0.1594
30101SOL    HW199081   7.344   6.663   8.056 -1.2662 -0.3754  0.9342
30101SOL    HW299082   7.220   6.596   8.002 -0.8996  0.5622 -1.1642
30102SOL     OW99083   2.211  11.007   8.645  0.4556  0.3312 -0.1397
30102SOL    HW199084   2.200  10.945   8.574  1.1986  0.4251 -0.3421
30102SOL    HW299085   2.283  11.064   8.617  0.4639  0.6431  0.4917
30103SOL     OW99086   6.181   6.195   7.797 -0.2991 -0.7624 -0.5725
30103SOL    HW199087   6.239   6.206   7.721 -0.0103 -1.9690 -0.5435
30103SOL    HW299088   6.215   6.257   7.861  2.4409 -2.9524  0.2846
30104SOL     OW99089   9.016   6.928   8.617  0.3654 -0.1806  0.4000
30104SOL    HW199090   9.049   6.838   8.625 -1.3118 -0.8385  0.2496
30104SOL    HW299091   8.998   6.938   8.523 -1.3434 -0.4258  0.6667
30105SOL     OW99092   7.165   3.376   8.979 -0.1388 -0.4377 -0.3780
30105SOL    HW199093   7.185   3.315   8.908 -0.0730 -0.2590 -0.5134
30105SOL    HW299094   7.142   3.458   8.935 -0.7160 -0.5061 -0.2118
30106SOL     OW99095  12.606   0.078  10.561  0.3971  0.4278 -0.3008
30106SOL    HW199096  12.540   0.097  10.627  0.7790  0.1115  0.1723
30106SOL    HW299097  12.591   0.145  10.493  0.5649  1.3063  0.5067
30107SOL     OW99098  10.496   2.000  10.404 -0.0039  0.2322 -0.0726
30107SOL    HW199099  10.470   2.060  10.474 -0.1577  1.8010 -1.4045
30107SOL    HW299100  10.414   1.977  10.360  0.0714 -0.8730  0.3553
30108SOL     OW99101   9.688   1.792   1.289 -0.3571 -0.0975 -0.1722
30108SOL    HW199102   9.735   1.846   1.225 -1.4039  0.4512 -0.4990
30108SOL    HW299103   9.700   1.837   1.372 -1.0405  0.5197 -0.4057
30109SOL     OW99104   4.281   2.027  10.994  0.4222 -0.5916  0.1596
30109SOL    HW199105   4.272   1.933  11.009 -0.4981 -0.0493  4.0933
30109SOL    HW299106   4.200   2.052  10.950  0.4851 -1.5184 -0.5237
30110SOL     OW99107  10.930   1.863   3.514 -0.4824 -0.1760 -0.4245
30110SOL    HW199108  10.951   1.792   3.453  1.0478 -3.4262  3.4534
30110SOL    HW299109  10.842   1.843   3.545 -0.6996  0.6222 -0.4968
30111SOL     OW99110   9.662  11.829   2.000 -0.4622 -0.5059  0.0649
30111SOL    HW199111   9.735  11.858   2.056 -0.4839 -0.1030 -0.1089
30111SOL    HW299112   9.597  11.796   2.062 -0.3555 -0.3582  0.2586
30112SOL     OW99113   0.163   0.492  11.705 -0.0381  0.2980  0.2470
30112SOL    HW199114   0.158   0.495  11.801 -1.3498  1.6317  0.1833
30112SOL    HW299115   0.214   0.570  11.682  0.8942 -0.4071 -0.1411
30113SOL     OW99116   7.519   5.384   3.322 -0.1504 -0.4197 -0.4129
30113SOL    HW199117   7.484   5.315   3.379  0.2504 -0.9751 -0.8331
30113SOL    HW299118   7.580   5.432   3.378 -1.0032  0.0965  0.1106
30114SOL     OW99119  11.179   2.015   9.247 -0.3246 -0.3494 -0.3745
30114SOL    HW199120  11.166   1.992   9.155  0.9483  0.9678 -0.9244
30114SOL    HW299121  11.222   1.939   9.285  0.3262 -0.4062 -1.1953
30115SOL     OW99122   5.929  11.634   0.917 -0.2397 -0.2387  0.4738
30115SOL    HW199123   5.880  11.657   0.838  0.8229 -1.1725 -0.4954
30115SOL    HW299124   5.993  11.569   0.888  0.0588 -0.7454  2.1534
30116SOL     OW99125   8.333   6.704   8.805 -0.0892  0.4041 -0.4124
30116SOL    HW199126   8.364   6.652   8.880 -1.4040  1.6625  1.0593
30116SOL    HW299127   8.253   6.660   8.777  0.0850  0.2789 -0.7277
30117SOL     OW99128   9.999   3.150   3.323  0.6859 -0.1024  0.2337
30117SOL    HW199129   9.975   3.087   3.254  1.4086  0.3382 -0.4332
30117SOL    HW299130  10.083   3.185   3.295 -0.3246  2.2025 -0.1662
30118SOL     OW99131   1.235   0.896   7.886  0.0677  0.4590 -0.1214
30118SOL    HW199132   1.195   0.889   7.799  0.4869 -0.6948 -0.2380
30118SOL    HW299133   1.177   0.844   7.943  0.4884  0.1406  0.0238
30119SOL     OW99134   2.534   3.895   8.025 -0.0069  0.4233  0.0146
30119SOL    HW199135   2.582   3.813   8.039  0.1344  0.8440  2.4848
30119SOL    HW299136   2.442   3.869   8.031 -0.0457  0.0856 -1.7181
30120SOL     OW99137  12.392   8.125   2.626  0.0045  0.0962 -0.3862
30120SOL    HW199138  12.330   8.052   2.630 -1.2021  1.0618 -0.7110
30120SOL    HW299139  12.437   8.114   2.542 -0.7960  0.1984 -0.8380
30121SOL     OW99140   5.251   9.858   2.917  0.2711 -0.5287  0.3698
30121SOL    HW199141   5.278   9.827   3.004  2.2888 -0.9053 -0.3305
30121SOL    HW299142   5.329   9.901   2.882 -1.1217  1.3905 -0.4936
30122SOL     OW99143   8.521   4.609   7.670  0.1234 -0.8709  0.2054
30122SOL    HW199144   8.437   4.569   7.693 -0.5803 -0.4788 -1.5234
30122SOL    HW299145   8.563   4.545   7.614  0.9341 -0.9920  0.9324
30123SOL     OW99146   0.931  10.478   3.899 -0.2827 -0.1462 -0.6959
30123SOL    HW199147   0.956  10.560   3.856 -1.8708  0.2107 -0.9959
30123SOL    HW299148   1.011  10.425   3.896  0.4547  0.9482 -1.5303
30124SOL     OW99149  11.300  10.283  11.551 -0.1439  0.1477  0.3828
30124SOL    HW199150  11.385  10.327  11.552  0.6582 -1.2614 -0.7458
30124SOL    HW299151  11.308  10.219  11.480 -1.4672 -1.3431  1.5116
30125SOL     OW99152   3.780   4.274  11.749 -0.0254  0.0038  0.1357
30125SOL    HW199153   3.689   4.248  11.767 -0.4229  1.0178 -0.3223
30125SOL    HW299154   3.776   4.369  11.740  1.2017  0.1330  0.7366
30126SOL     OW99155   5.522  12.109  10.525 -0.8316 -0.8406 -0.8224
30126SOL    HW199156   5.495  12.085  10.437 -1.7775 -0.4387 -0.6558
30126SOL    HW299157   5.459  12.175  10.552 -0.1735 -0.5010 -0.0797
30127SOL     OW99158   3.776  11.421   0.594  0.6662 -0.1965 -0.1810
30127SOL    HW199159   3.838  11.449   0.662 -0.6679 -1.3099  1.5787
30127SOL    HW299160   3.707  11.487   0.597  0.7671 -0.0641 -0.7153
30128SOL     OW99161   5.600  12.144   7.536 -0.4284  0.4349  0.1137
30128SOL    HW199162   5.680  12.117   7.581 -0.7253 -0.5451  0.0650
30128SOL    HW299163   5.607  12.104   7.449 -1.0761  0.1593  0.1877
30129SOL     OW99164  10.689  11.699   1.797  0.0360 -0.5602 -0.1665
30129SOL    HW199165  10.740  11.678   1.875 -0.2243 -0.3687  0.0556
30129SOL    HW299166  10.740  11.767   1.753  0.3563 -0.9109 -0.3456
30130SOL     OW99167  11.340   6.665  11.521 -0.3805  0.0687  0.2248
30130SOL    HW199168  11.271   6.707  11.573 -0.7818  0.8945 -0.9367
30130SOL    HW299169  11.338   6.711  11.438  0.0972 -1.3785 -0.6139
30131SOL     OW99170   0.137   5.290  12.375 -0.7063 -0.0532 -0.1114
30131SOL    HW199171   0.064   5.352  12.384 -0.7170 -0.1156  0.2260
30131SOL    HW299172   0.143   5.247  12.460 -0.5622 -0.3689 -0.2800
30132SOL     OW99173   5.076   4.017  12.597  0.3939 -0.6092 -0.6641
30132SOL    HW199174   5.161   4.032  12.556  0.4895 -1.6984 -0.9071
30132SOL    HW299175   5.088   4.046  12.688  1.1314 -1.0436 -0.6148
30133SOL     OW99176   6.098   3.678   1.055 -0.2859  0.2399 -0.0883
30133SOL    HW199177   6.026   3.735   1.028 -0.3862 -0.3195 -1.0297
30133SOL    HW299178   6.101   3.610   0.988  0.6691 -0.1344  0.3236
30134SOL     OW99179   7.836   7.291  11.625 -0.0718  0.0243  0.0970
30134SOL    HW199180   7.909   7.243  11.587  0.6533  2.0078 -1.2303
30134SOL    HW299181   7.807   7.350  11.554  0.0189  2.4773  1.9541
30135SOL     OW99182   1.619  10.845   5.570  0.0079 -0.5293 -0.0089
30135SOL    HW199183   1.553  10.816   5.508 -1.1570 -2.1387  1.8532
30135SOL    HW299184   1.637  10.768   5.624  1.6783  0.5226  1.0477
30136SOL     OW99185   5.620   0.766   3.983 -0.1778  0.3708 -1.0758
30136SOL    HW199186   5.585   0.678   3.970  1.3050 -0.3418 -0.4977
30136SOL    HW299187   5.707   0.752   4.022 -0.4904  2.1233  0.3968
30137SOL     OW99188   6.292   8.907   2.401 -0.2295  0.3376  0.1410
30137SOL    HW199189   6.216   8.957   2.430  0.3096  0.9550  0.4989
30137SOL    HW299190   6.351   8.906   2.476  0.9900  1.5771 -0.7382
30138SOL     OW99191  12.151  10.381  12.264 -0.4071 -0.2947 -0.1905
30138SOL    HW199192  12.209  10.382  12.188 -0.9524  0.9159 -0.6003
30138SOL    HW299193  12.209  10.405  12.337 -0.2220  0.1287 -0.4727
30139SOL     OW99194   3.864   2.718   3.608  0.3321  0.1551 -0.6209
30139SOL    HW199195   3.799   2.778   3.571 -1.0978 -1.2825 -0.5496
30139SOL    HW299196   3.870   2.743   3.700 -0.0723  0.3515 -0.6456
30140SOL     OW99197  11.441   3.799   5.577 -0.4910  0.0602  0.0539
30140SOL    HW199198  11.464   3.878   5.625  0.7879 -0.0804 -0.3011
30140SOL    HW299199  11.478   3.728   5.630 -4.5593 -0.7115  2.2897
30141SOL     OW99200   3.718   8.604   6.342  0.2352  0.8049 -0.1825
30141SOL    HW199201   3.736   8.680   6.287  2.3584  0.6928  0.2995
30141SOL    HW299202   3.675   8.541   6.283  0.4154  1.5384 -1.1230
30142SOL     OW99203   1.349  10.466   7.506  0.6727 -0.3570  0.0803
30142SOL    HW199204   1.359  10.373   7.526 -0.8867 -0.6671 -0.4534
30142SOL    HW299205   1.291  10.468   7.429  2.0399  0.9943 -0.9742
30143SOL     OW99206   7.004   3.776  12.044  0.6103  0.3725 -0.0391
30143SOL    HW199207   6.925   3.796  12.094  0.7962 -1.2073  0.9644
30143SOL    HW299208   6.974   3.770  11.953 -0.2909  0.4599  0.2425
30144SOL     OW99209   7.857   4.297   2.960  0.7998 -0.0882 -0.1951
30144SOL    HW199210   7.945   4.261   2.953  0.9470 -0.2848  1.9897
30144SOL    HW299211   7.869   4.392   2.966  0.6641  0.0935 -2.1048
30145SOL     OW99212   7.770   6.271  12.222  0.1659 -0.2460  0.7117
30145SOL    HW199213   7.779   6.230  12.135 -0.6455 -0.2979  0.6398
30145SOL    HW299214   7.726   6.354  12.205  1.4540  0.4979  0.9061
30146SOL     OW99215   2.287   0.423   1.679  0.3128  0.3308  1.0744
30146SOL    HW199216   2.204   0.468   1.661  0.2679 -0.7009 -2.0204
30146SOL    HW299217   2.270   0.332   1.655  2.5822  0.3108 -0.8184
30147SOL     OW99218   0.078   8.908   0.015 -0.7194 -0.2359 -0.2255
30147SOL    HW199219  -0.002   8.958   0.028 -0.3988 -0.0291  1.1065
30147SOL    HW299220   0.145   8.973  -0.003 -1.0415 -0.4781 -2.7637
30148SOL     OW99221   9.697   4.109   2.410 -0.2811  0.0232  0.0250
30148SOL    HW199222   9.733   4.082   2.494  0.5538  1.4017  0.1324
30148SOL    HW299223   9.606   4.133   2.429  0.0118  0.6960  0.6343
30149SOL     OW99224  11.750   8.879   0.499  0.0923  0.4780  0.4241
30149SOL    HW199225  11.690   8.819   0.455  0.9432  0.1743 -0.3409
30149SOL    HW299226  11.837   8.846   0.479  0.5581  1.5189  0.6487
30150SOL     OW99227   3.111   4.076   6.287  0.5264  0.0516 -0.2407
30150SOL    HW199228   3.021   4.042   6.286  0.6230 -0.2110 -0.0673
30150SOL    HW299229   3.112   4.141   6.357  0.7687 -0.7648  0.5277
30151SOL     OW99230   0.770   9.917  11.600  0.1264  0.1958  0.7353
30151SOL    HW199231   0.677   9.911  11.621  0.4070  0.8672  2.2976
30151SOL    HW299232   0.814   9.874  11.673  1.0363 -1.2523 -0.5862
30152SOL     OW99233   6.208   0.195   4.115 -0.8309 -0.4444  0.2800
30152SOL    HW199234   6.271   0.128   4.089 -1.8425 -0.8443 -1.2977
30152SOL    HW299235   6.216   0.263   4.049 -2.8394 -1.0639 -0.6835
30153SOL     OW99236   3.299   0.787   8.800 -0.1101 -0.1489  0.2807
30153SOL    HW199237   3.329   0.863   8.751  1.4727 -1.1052 -0.3125
30153SOL    HW299238   3.370   0.724   8.792 -1.0276 -1.3873  1.4574
30154SOL     OW99239   6.551   6.911   6.673  0.2436  0.0742 -0.8199
30154SOL    HW199240   6.601   6.852   6.728  1.9498  1.5356 -0.7290
30154SOL    HW299241   6.460   6.885   6.687  0.7238 -0.5959  1.5096
30155SOL     OW99242   7.962   4.971   4.106 -0.0650 -0.5120 -0.0994
30155SOL    HW199243   7.965   4.928   4.192  2.3891 -1.3437 -0.5199
30155SOL    HW299244   7.906   4.916   4.053 -2.9776  0.8689  1.3006
30156SOL     OW99245   3.970   0.579   2.506  0.1606  0.0923 -0.4319
30156SOL    HW199246   4.035   0.648   2.518 -0.1660  0.3303 -0.0197
30156SOL    HW299247   3.919   0.607   2.430 -0.8018  0.9548  0.5249
30157SOL     OW99248   0.466   4.052   1.102 -0.3419 -0.1153 -0.7348
30157SOL    HW199249   0.553   4.085   1.080 -0.7573  0.4544 -1.5956
30157SOL    HW299250   0.467   3.960   1.075  0.4950 -0.5859  0.7495
30158SOL     OW99251   0.589  11.052   3.563 -0.2783 -0.2411 -0.3456
30158SOL    HW199252   0.558  11.019   3.647 -2.1589 -0.8536 -1.2438
30158SOL    HW299253   0.517  11.037   3.503  1.4618 -0.9746 -2.3815
30159SOL     OW99254   3.245   5.295   3.286 -0.2315  0.6224  0.0016
30159SOL    HW199255   3.211   5.282   3.375 -0.2560  1.5730  0.1424
30159SOL    HW299256   3.300   5.218   3.270 -0.5150  0.2623  0.7017
30160SOL     OW99257  10.335   5.841   8.779  0.3255  0.5340 -0.1469
30160SOL    HW199258  10.371   5.817   8.694  1.9249  0.7170  0.4470
30160SOL    HW299259  10.271   5.772   8.798  1.1612 -0.4354 -0.7488
30161SOL     OW99260   5.894   7.376   1.887 -0.1196  0.0588 -0.0832
30161SOL    HW199261   5.948   7.303   1.857 -0.5978 -1.9883  3.3983
30161SOL    HW299262   5.924   7.392   1.977 -1.6059  2.6444  0.0578
30162SOL     OW99263   9.998   0.358  10.163  0.1457 -0.0852  0.7301
30162SOL    HW199264  10.019   0.283  10.219 -2.4704 -0.1111  1.7872
30162SOL    HW299265   9.950   0.418  10.219 -0.6712  0.9119 -0.9428
30163SOL     OW99266   1.280   0.664   4.143 -0.5457 -0.2647 -0.0558
30163SOL    HW199267   1.207   0.690   4.200 -1.0541  2.2265 -1.6793
30163SOL    HW299268   1.272   0.569   4.136 -4.4757 -0.0367 -1.1175
30164SOL     OW99269   5.088   7.491   4.817 -0.1843  0.0353 -0.0731
30164SOL    HW199270   5.143   7.550   4.765 -0.9425 -0.3497 -1.3539
30164SOL    HW299271   5.095   7.524   4.907  2.0578  0.0673 -0.1899
30165SOL     OW99272  12.376   2.674   1.096  0.1257 -0.1562  0.3073
30165SOL    HW199273  12.319   2.747   1.073 -0.5202 -0.3959  1.1051
30165SOL    HW299274  12.329   2.596   1.066 -0.0971 -0.3705  1.1748
30166SOL     OW99275   4.473   0.059   8.942 -0.1821  0.1105 -0.7255
30166SOL    HW199276   4.423   0.002   9.000  0.1564 -0.2295 -0.7590
30166SOL    HW299277   4.532  -0.000   8.896  0.3092  0.5160 -0.6227
30167SOL     OW99278  10.851  10.825   0.833  0.1463  0.0166  0.3706
30167SOL    HW199279  10.817  10.808   0.921 -2.3560 -1.2091 -0.7273
30167SOL    HW299280  10.827  10.748   0.782  1.9006  0.5031 -1.3425
30168SOL     OW99281   2.427   8.252   9.765 -0.0343 -0.2036 -0.1017
30168SOL    HW199282   2.511   8.233   9.806  0.3523  1.6320  0.0646
30168SOL    HW299283   2.371   8.179   9.791  0.9978 -0.5472  1.3298
30169SOL     OW99284  12.491   7.380   5.076  0.9643  0.1857  0.6526
30169SOL    HW199285  12.486   7.405   4.984  0.3254 -1.1393  0.2999
30169SOL    HW299286  12.550   7.305   5.077  1.0516  0.2588  1.3495
30170SOL     OW99287  12.035   9.826   1.875  0.2884 -0.4359 -0.3113
30170SOL    HW199288  12.030   9.774   1.955 -0.5810 -1.4486 -0.9918
30170SOL    HW299289  12.048   9.761   1.806  1.8427  0.4830 -0.9232
30171SOL     OW99290  11.699   5.102   5.006 -0.1592 -0.0310 -0.2492
30171SOL    HW199291  11.699   5.179   5.062 -0.9830  0.3552 -0.7540
30171SOL    HW299292  11.733   5.031   5.061 -0.6585  0.3992  0.6275
30172SOL     OW99293   4.167   6.738   9.175  0.5440 -0.7206  0.2422
30172SOL    HW199294   4.130   6.817   9.216  0.7760  0.5564 -1.8771
30172SOL    HW299295   4.107   6.719   9.103  0.7586 -2.2401  0.4472
30173SOL     OW99296   5.899   4.950   1.468 -0.4973  0.1493  0.4417
30173SOL    HW199297   5.847   5.015   1.517  0.3680  1.4070 -0.2629
30173SOL    HW299298   5.926   4.996   1.389  0.9254 -0.7737  0.3651
30174SOL     OW99299   8.174   4.588   7.193 -0.1692 -0.2438  0.9496
30174SOL    HW199300   8.172   4.540   7.276  1.1058  2.3777  2.6173
30174SOL    HW299301   8.251   4.644   7.199  0.0167 -0.0141 -2.1013
30175SOL     OW99302   1.564   5.725  11.349 -0.1031 -0.0072  0.4830
30175SOL    HW199303   1.472   5.741  11.369 -0.0591 -0.9674  1.5425
30175SOL    HW299304   1.567   5.717  11.254 -0.7064  2.3788  0.2010
30176SOL     OW99305  12.185   4.205   2.265  0.2569  0.4610 -0.4211
30176SOL    HW199306  12.245   4.205   2.190  0.3151  0.2442 -0.3736
30176SOL    HW299307  12.154   4.114   2.270  0.5907  0.3755  0.0935
30177SOL     OW99308  11.497   1.351  12.302 -0.6322 -0.1612  0.3384
30177SOL    HW199309  11.508   1.362  12.396 -0.2863  1.2556  0.1508
30177SOL    HW299310  11.547   1.422  12.263 -2.5350  0.6051 -0.8384
30178SOL     OW99311   4.980   3.667   2.854  0.0478 -0.2604  0.0123
30178SOL    HW199312   4.936   3.680   2.770  1.1038  0.1178 -0.4949
30178SOL    HW299313   5.070   3.644   2.831  0.6652  0.9886  1.0423
30179SOL     OW99314   1.387   0.206   7.710  0.3345 -0.0721 -0.5299
30179SOL    HW199315   1.471   0.250   7.723  0.4550 -0.5895  0.5533
30179SOL    HW299316   1.389   0.132   7.771 -1.6185  0.8791  0.7954
30180SOL     OW99317   4.093   9.725  12.551  0.5604 -0.0258  0.3530
30180SOL    HW199318   4.092   9.677  12.469  0.1503 -0.8465  0.8185
30180SOL    HW299319   4.008   9.769  12.554 -0.6315 -2.1885  1.5371
30181SOL     OW99320   9.717   2.007   3.901  0.5753 -0.1848  0.2768
30181SOL    HW199321   9.639   1.951   3.900  0.0426  0.4669  1.6214
30181SOL    HW299322   9.768   1.976   3.976  0.8498  0.3693  0.3273
30182SOL     OW99323   6.687  10.542   2.322 -0.3108 -0.3650  0.1459
30182SOL    HW199324   6.601  10.548   2.363 -0.5284  0.4631 -0.4155
30182SOL    HW299325   6.740  10.490   2.384 -0.6177  0.8714  1.4843
30183SOL     OW99326   0.625   0.166   6.619  0.6557 -0.7399  0.3195
30183SOL    HW199327   0.560   0.096   6.620 -0.0362 -0.1249  1.9130
30183SOL    HW299328   0.617   0.206   6.533 -0.3639 -1.3300  0.1357
30184SOL     OW99329   0.019  11.241  11.887 -0.1898 -0.0502  0.3102
30184SOL    HW199330  -0.020  11.318  11.929  1.4634  2.0696 -1.7554
30184SOL    HW299331  -0.040  11.220  11.814  0.6576  0.9704 -0.7064
30185SOL     OW99332   5.960  10.323  12.116 -0.5202 -0.4573  0.1355
30185SOL    HW199333   5.984  10.379  12.042  1.3324  1.5185  2.1177
30185SOL    HW299334   5.985  10.235  12.088  0.4262  0.2719 -1.4544
30186SOL     OW99335  10.194  11.949   2.696 -0.0117 -0.5169 -0.4878
30186SOL    HW199336  10.223  11.969   2.785  2.0069 -1.1143 -0.9575
30186SOL    HW299337  10.106  11.987   2.690  0.1710  0.3178  1.4537
30187SOL     OW99338  10.404   7.809  10.560  0.4175 -0.6661  0.2552
30187SOL    HW199339  10.359   7.851  10.634 -0.9293 -2.1773  0.3247
30187SOL    HW299340  10.431   7.724  10.593  1.9042 -0.4574 -0.3170
30188SOL     OW99341  10.689   8.094   4.933 -0.3365  0.2793 -0.2230
30188SOL    HW199342  10.755   8.024   4.932  0.1299  0.6594  1.1789
30188SOL    HW299343  10.665   8.103   5.026  0.2240  2.5276 -0.2337
30189SOL     OW99344   7.535   0.797   3.421  0.6408  0.2863  0.0412
30189SOL    HW199345   7.485   0.867   3.463  0.8625  0.3820  0.1472
30189SOL    HW299346   7.595   0.843   3.363  0.5651  0.1684 -0.1286
30190SOL     OW99347  11.441   5.443   0.230 -0.3968 -0.2317  0.3626
30190SOL    HW199348  11.451   5.382   0.303 -0.9996 -0.2845  0.4040
30190SOL    HW299349  11.427   5.528   0.271 -1.0710 -0.3150  0.3189
30191SOL     OW99350   0.661   3.789   8.372 -0.1767 -0.1220 -0.2851
30191SOL    HW199351   0.658   3.721   8.440 -1.6351 -0.4325 -0.6250
30191SOL    HW299352   0.663   3.871   8.420 -0.6725 -0.3521  0.1412
30192SOL     OW99353   1.631  11.440   1.598  0.2100 -0.4649 -0.0596
30192SOL    HW199354   1.694  11.509   1.580 -0.1408  0.3138  1.5413
30192SOL    HW299355   1.666  11.394   1.674 -0.9083 -0.3257  0.5598
30193SOL     OW99356   8.896   6.043  10.826  0.0889  0.3593  0.0633
30193SOL    HW199357   8.871   6.036  10.918  2.1280  0.7788  0.7030
30193SOL    HW299358   8.876   5.957  10.789 -1.3953  0.4037  0.7010
30194SOL     OW99359   6.779   4.516   2.789 -0.0405 -0.3633  0.1835
30194SOL    HW199360   6.821   4.450   2.844  1.8571  0.0405 -0.7005
30194SOL    HW299361   6.823   4.598   2.813 -0.3989  0.1007 -0.7163
30195SOL     OW99362  11.383   9.560   0.548 -0.1998 -0.0403 -0.2626
30195SOL    HW199363  11.334   9.478   0.542  1.8767 -1.2978 -1.1625
30195SOL    HW299364  11.402   9.583   0.457  2.2529 -0.5595  0.0442
30196SOL     OW99365   4.416  12.560   1.170  0.0678  0.2913 -0.0648
30196SOL    HW199366   4.497  12.611   1.181 -0.7429  1.3339  1.2754
30196SOL    HW299367   4.409  12.509   1.250 -0.3874 -0.1091 -0.3602
30197SOL     OW99368   4.553   2.450   9.305 -0.1812 -0.1983  0.4359
30197SOL    HW199369   4.554   2.360   9.273  1.6231  0.1642 -0.6897
30197SOL    HW299370   4.604   2.499   9.240 -0.5995  1.5161  1.3424
30198SOL     OW99371   2.129   2.206   0.601  0.1085  0.6147 -0.4179
30198SOL    HW199372   2.195   2.166   0.544 -1.1941 -2.1756 -0.1559
30198SOL    HW299373   2.094   2.279   0.550  3.2307  2.1393 -0.5838
30199SOL     OW99374   3.295   8.969   4.969  0.0536  0.1819 -0.4440
30199SOL    HW199375   3.254   9.024   4.902  0.2950  0.7079 -0.1588
30199SOL    HW299376   3.389   8.985   4.959  0.3199 -1.8577 -1.8466
30200SOL     OW99377   5.932   5.801   0.178  0.3487  0.4089 -0.0780
30200SOL    HW199378   5.836   5.796   0.177  0.3573  0.3517 -0.5041
30200SOL    HW299379   5.960   5.713   0.202  0.3105  0.2526 -0.5980
30201SOL     OW99380  11.246   0.530   5.242  0.6651  0.3858  0.0851
30201SOL    HW199381  11.215   0.533   5.151  0.8727  0.9767  0.0321
30201SOL    HW299382  11.282   0.442   5.251 -1.0683 -0.3539  0.1742
30202SOL     OW99383   3.721  11.352   9.249 -0.3800  0.1013  0.3806
30202SOL    HW199384   3.627  11.351   9.228 -0.2752  0.1301 -0.0958
30202SOL    HW299385   3.758  11.419   9.192  0.1718 -0.9298 -0.4988
30203SOL     OW99386  10.823   9.471   0.659  0.3184  0.0800  0.4113
30203SOL    HW199387  10.783   9.439   0.740 -0.1843  0.3026  0.2538
30203SOL    HW299388  10.885   9.538   0.687  0.6783 -0.3545  0.6672
30204SOL     OW99389  11.057   3.654   6.655  0.2859 -0.0507  0.4978
30204SOL    HW199390  10.977   3.657   6.602  1.8809  0.3974 -2.0736
30204SOL    HW299391  11.051   3.571   6.703 -1.1644 -0.6243 -0.5969
30205SOL     OW99392   6.631   3.164   6.007 -0.2389  0.3176  1.3602
30205SOL    HW199393   6.643   3.175   6.101 -1.9315  0.3785  1.6016
30205SOL    HW299394   6.555   3.218   5.986  1.2567  1.8953 -0.4258
30206SOL     OW99395   4.829   4.313   6.491 -0.2524 -0.4733 -0.4228
30206SOL    HW199396   4.839   4.264   6.409 -0.0279  1.6725 -1.7630
30206SOL    HW299397   4.917   4.319   6.527  0.0256  0.4990 -1.2308
30207SOL     OW99398  12.350   7.072   1.577 -0.2170 -0.5558  0.9387
30207SOL    HW199399  12.265   7.063   1.621 -0.1782 -1.3822  0.8582
30207SOL    HW299400  12.398   6.993   1.601 -0.3321 -1.2243 -0.8756
30208SOL     OW99401   0.259   9.895   6.767 -0.5449 -0.4225  0.0129
30208SOL    HW199402   0.319   9.864   6.698 -0.4100 -0.6526  0.2318
30208SOL    HW299403   0.194   9.947   6.720  0.0998  0.2369 -0.1700
30209SOL     OW99404   5.371   4.799   8.282  0.2795 -0.2903  0.6551
30209SOL    HW199405   5.392   4.892   8.275 -2.1816  0.4033  1.7350
30209SOL    HW299406   5.324   4.778   8.201 -1.4158  0.0835  1.5139
30210SOL     OW99407  10.310   2.604  10.181 -0.0928  0.3319 -0.0498
30210SOL    HW199408  10.363   2.684  10.187  0.3641  0.0721 -0.5467
30210SOL    HW299409  10.231   2.631  10.134  0.2085  0.4168 -0.5113
30211SOL     OW99410   0.320   0.068   0.622  0.2194 -0.4242  0.2983
30211SOL    HW199411   0.379  -0.004   0.601 -0.5716 -1.2344  0.7686
30211SOL    HW299412   0.254   0.028   0.679 -1.1987  0.2670 -0.8030
30212SOL     OW99413   4.933   4.460   8.699  0.4894  0.4012 -0.4678
30212SOL    HW199414   5.007   4.481   8.755  1.1690 -0.6073 -0.9577
30212SOL    HW299415   4.943   4.518   8.623 -0.1106  1.3561  0.1512
30213SOL     OW99416  11.557   7.087   0.050  0.5309  0.1721 -0.4405
30213SOL    HW199417  11.482   7.045   0.008  0.3026 -1.0148  1.0637
30213SOL    HW299418  11.553   7.058   0.141  3.0530 -0.2949 -0.4038
30214SOL     OW99419   2.081  10.354   4.597 -0.0912  0.4843 -0.3444
30214SOL    HW199420   2.024  10.307   4.535  0.1917  0.7821 -0.8344
30214SOL    HW299421   2.051  10.445   4.592  1.3725  0.9414 -1.7303
30215SOL     OW99422   6.118   0.633   4.035 -0.1303 -0.0227  0.1786
30215SOL    HW199423   6.069   0.658   4.113 -1.7073 -0.2979 -0.6867
30215SOL    HW299424   6.098   0.701   3.971  0.3562 -0.3225 -0.3039
30216SOL     OW99425   6.379  12.347   2.711  0.5469  0.1302  0.7548
30216SOL    HW199426   6.461  12.389   2.684  0.0185  0.7625  0.1114
30216SOL    HW299427   6.322  12.419   2.736 -0.2043 -0.2187  0.1050
30217SOL     OW99428   5.145   6.090   2.800  0.3179 -0.2142  0.6859
30217SOL    HW199429   5.051   6.104   2.810  0.5180 -0.0949  2.9045
30217SOL    HW299430   5.155   6.062   2.709 -1.9561 -1.0373  0.6055
30218SOL     OW99431   3.010  10.269   7.516 -0.7401  0.0277 -0.2804
30218SOL    HW199432   2.985  10.185   7.479 -0.4685 -0.1401 -0.0825
30218SOL    HW299433   3.033  10.250   7.606 -0.9351  0.3583 -0.1591
30219SOL     OW99434   5.935   8.382   2.169 -0.2312  0.0417 -0.2594
30219SOL    HW199435   5.925   8.353   2.260 -0.3350  0.5627 -0.0975
30219SOL    HW299436   5.925   8.303   2.117  1.1806 -0.5053  0.2466
30220SOL     OW99437   6.293  10.790  11.125  0.1670 -0.0817  0.4427
30220SOL    HW199438   6.356  10.831  11.066 -1.5112 -0.0086 -1.3805
30220SOL    HW299439   6.346  10.758  11.198  2.1490  0.9640 -0.4730
30221SOL     OW99440   4.892   3.496   5.324  0.0850 -0.1922  0.1516
30221SOL    HW199441   4.971   3.500   5.379  1.3765  1.5676 -1.6832
30221SOL    HW299442   4.826   3.543   5.374  0.3861 -1.0160  1.3766
30222SOL     OW99443   1.282   9.753   1.207  0.0606  0.4063 -0.2624
30222SOL    HW199444   1.284   9.756   1.112 -0.0936 -0.6300 -0.3001
30222SOL    HW299445   1.219   9.685   1.229  2.1032 -1.3291  0.5462
30223SOL     OW99446   2.721   7.424   7.140  0.5026 -0.1105  0.2360
30223SOL    HW199447   2.774   7.371   7.200  0.1504 -2.7855 -1.5977
30223SOL    HW299448   2.783   7.453   7.073  0.0706 -1.6474 -0.8884
30224SOL     OW99449   2.557   4.923   0.310 -0.1098  0.4719 -0.3566
30224SOL    HW199450   2.472   4.889   0.280 -1.0677  1.0479  1.5736
30224SOL    HW299451   2.536   4.980   0.384  1.8379  2.0032 -0.9049
30225SOL     OW99452  11.198  12.040   4.276  0.5390  0.2820  0.1300
30225SOL    HW199453  11.107  12.058   4.254  1.1957  1.4592 -1.8935
30225SOL    HW299454  11.214  12.088   4.358 -0.3479  1.0096 -0.1113
30226SOL     OW99455  12.589   5.453   9.561  0.1041 -0.3104  0.1225
30226SOL    HW199456  12.628   5.413   9.484 -0.8732 -0.4272 -0.3272
30226SOL    HW299457  12.496   5.432   9.555 -0.3310  1.4039  0.2528
30227SOL     OW99458  12.308   9.620  12.494  0.4496  0.1585  0.0911
30227SOL    HW199459  12.358   9.702  12.502  0.6065  0.3115 -1.8655
30227SOL    HW299460  12.360   9.566  12.436  0.4468 -1.4693  1.5273
30228SOL     OW99461  11.422   0.308   5.814 -0.4900  0.3764 -0.5903
30228SOL    HW199462  11.513   0.318   5.842  0.0906  0.1913 -2.2936
30228SOL    HW299463  11.420   0.349   5.727 -1.7533 -0.6439 -1.0631
30229SOL     OW99464   8.963   2.319  11.035 -0.2134  0.2598  0.4013
30229SOL    HW199465   9.054   2.333  11.064 -0.2366 -0.9215  1.1230
30229SOL    HW299466   8.929   2.407  11.020  1.3491  0.7191 -0.8674
30230SOL     OW99467   5.033   9.382   7.745  0.1915  0.2018 -0.0260
30230SOL    HW199468   5.024   9.309   7.685  1.0557 -0.6194  0.8160
30230SOL    HW299469   5.126   9.407   7.740 -0.2555  1.8391 -0.9632
30231SOL     OW99470  10.858   3.145  10.367  0.8073 -0.4726  0.3568
30231SOL    HW199471  10.886   3.114  10.280 -0.5266 -0.2656 -0.1744
30231SOL    HW299472  10.895   3.233  10.373 -0.2797  0.0834 -0.6408
30232SOL     OW99473   3.588  10.366   6.103 -0.6670  0.1759 -0.3167
30232SOL    HW199474   3.495  10.363   6.124 -0.4901 -0.1705  0.4603
30232SOL    HW299475   3.595  10.322   6.018 -1.1874  0.0162 -0.2789
30233SOL     OW99476  11.271   7.521  11.057 -0.1134  0.3729 -0.7346
30233SOL    HW199477  11.295   7.429  11.072 -0.3199  0.6398  1.5967
30233SOL    HW299478  11.176   7.518  11.045 -0.1657  0.3061 -0.3249
30234SOL     OW99479   6.010   8.804   2.103 -0.1038 -0.5015 -0.2423
30234SOL    HW199480   5.924   8.761   2.107 -0.7075  0.7509  1.1642
30234SOL    HW299481   5.996   8.880   2.046  0.2008 -0.5567 -0.3925
30235SOL     OW99482  12.519  10.753   3.677  0.4658  0.2360 -0.1870
30235SOL    HW199483  12.441  10.807   3.667  0.2037 -0.5492 -3.3969
30235SOL    HW299484  12.490  10.664   3.659  1.7861 -0.3281  0.3110
30236SOL     OW99485   7.948   3.424   6.714 -0.2900 -0.3137 -0.4026
30236SOL    HW199486   7.983   3.394   6.630  0.2259 -1.9305  0.3626
30236SOL    HW299487   7.888   3.355   6.741 -0.8670  0.4506  0.3109
30237SOL     OW99488   5.768   3.773   4.365  0.5754 -0.4464 -0.0162
30237SOL    HW199489   5.705   3.728   4.423  0.1763 -1.3815 -1.1366
30237SOL    HW299490   5.853   3.739   4.391  0.3600 -1.1622 -0.2301
30238SOL     OW99491   9.080   2.483   0.735 -0.2451 -0.1451 -0.1342
30238SOL    HW199492   9.174   2.475   0.755 -0.5501 -1.1397  1.0711
30238SOL    HW299493   9.061   2.576   0.743  0.6864  0.0975 -0.6232
30239SOL     OW99494   1.103   2.232   4.070  0.0575 -0.2075 -0.2623
30239SOL    HW199495   1.066   2.300   4.013 -3.6086 -0.4209  1.5725
30239SOL    HW299496   1.122   2.159   4.011  0.2517  0.9739 -1.7252
30240SOL     OW99497   9.474   7.192   8.705  0.1373  0.1273 -0.1440
30240SOL    HW199498   9.439   7.103   8.709  0.9594 -0.1795  0.5236
30240SOL    HW299499   9.417   7.238   8.644 -1.4574 -0.3381  0.9261
30241SOL     OW99500   4.324   2.759  10.196 -0.6417 -0.8303 -0.1591
30241SOL    HW199501   4.311   2.854  10.194  1.6365 -0.4421  0.6848
30241SOL    HW299502   4.413   2.747  10.229 -0.7679 -3.2740 -0.4898
30242SOL     OW99503   0.121   8.918   3.899 -0.4253 -0.0339 -0.1561
30242SOL    HW199504   0.172   8.927   3.980 -1.3090  0.0179  0.4042
30242SOL    HW299505   0.043   8.871   3.925 -0.9381  0.3956 -0.8885
30243SOL     OW99506   1.656   4.384   6.130 -0.6322 -0.1073 -0.1314
30243SOL    HW199507   1.631   4.360   6.219 -0.3528 -0.3948 -0.1280
30243SOL    HW299508   1.709   4.463   6.141 -1.9768  0.8265 -0.1836
30244SOL     OW99509   5.261   1.976   8.372 -0.6274  0.0531  0.4625
30244SOL    HW199510   5.326   2.022   8.425  0.4778  2.0065 -2.3653
30244SOL    HW299511   5.180   2.025   8.385  0.0871  1.7484 -0.9819
30245SOL     OW99512   9.516   5.963   7.946 -0.6767 -0.3579  0.3354
30245SOL    HW199513   9.453   5.900   7.912 -0.3525 -0.6912  0.3495
30245SOL    HW299514   9.480   5.991   8.030 -0.9067 -0.3952  0.2480
30246SOL     OW99515   2.699  12.300   9.697  0.2688 -0.2266  0.0902
30246SOL    HW199516   2.735  12.346   9.621  1.2560 -0.7395  0.2230
30246SOL    HW299517   2.658  12.368   9.750 -0.3495  0.1473 -0.8545
30247SOL     OW99518   8.060   1.981   0.551 -0.3231  0.5878 -0.0373
30247SOL    HW199519   8.118   1.938   0.489 -0.2566 -0.1526  0.5318
30247SOL    HW299520   8.107   1.978   0.635 -0.3303  1.7358  0.0286
30248SOL     OW99521   0.100   4.688   3.399  0.2182 -0.3340  0.1678
30248SOL    HW199522   0.140   4.654   3.480  0.8188 -0.6248 -0.2467
30248SOL    HW299523   0.009   4.706   3.423  1.1483  2.9745  1.9816
30249SOL     OW99524   9.062  12.053   8.915 -0.1163 -0.3248 -0.0137
30249SOL    HW199525   9.062  12.035   9.009  0.6695  0.1563  0.0821
30249SOL    HW299526   9.037  11.969   8.875 -2.5923 -0.0248  0.6857
30250SOL     OW99527   0.745   3.865  10.260  0.6956 -0.2250 -0.5739
30250SOL    HW199528   0.784   3.850  10.174  2.1487  1.3516 -0.2482
30250SOL    HW299529   0.692   3.944  10.249 -1.5538 -1.6521 -0.6950
30251SOL     OW99530  11.524  10.649   3.723 -0.6418 -0.6330  0.0917
30251SOL    HW199531  11.523  10.613   3.812 -3.9620  0.5344  0.6703
30251SOL    HW299532  11.566  10.735   3.731 -0.1132 -0.9086  0.3218
30252SOL     OW99533   6.555   0.600   3.134 -0.1045  0.0672 -0.1436
30252SOL    HW199534   6.471   0.603   3.179 -0.2014  1.0627 -0.3620
30252SOL    HW299535   6.538   0.554   3.052 -0.0610 -1.2139  0.5532
30253SOL     OW99536   1.748   3.722   6.929 -0.3253 -0.0821 -0.2452
30253SOL    HW199537   1.671   3.679   6.967  0.5667 -1.2201  0.3278
30253SOL    HW299538   1.756   3.682   6.842 -0.5741  0.2971 -0.4475
30254SOL     OW99539   9.700  10.424   7.196 -0.4280 -0.3478 -0.4751
30254SOL    HW199540   9.734  10.335   7.191 -0.6814 -0.4248 -0.9288
30254SOL    HW299541   9.765  10.477   7.149 -1.0506 -0.5382 -1.5939
30255SOL     OW99542   2.481   1.167   3.127 -0.3933  0.0723 -0.3106
30255SOL    HW199543   2.545   1.116   3.077  0.9104  0.9666  0.3946
30255SOL    HW299544   2.405   1.109   3.135  0.7577 -1.4701 -0.1499
30256SOL     OW99545   0.026  11.317   3.020 -0.0381  0.4629 -0.0898
30256SOL    HW199546  -0.038  11.341   3.086  0.9650  0.7347  0.8136
30256SOL    HW299547  -0.001  11.365   2.941 -1.3351  0.0058  0.0640
30257SOL     OW99548   6.045   1.288   7.199 -0.2591  0.3203 -0.1095
30257SOL    HW199549   6.032   1.226   7.271  1.2605 -2.2804 -1.9180
30257SOL    HW299550   5.960   1.291   7.155 -0.2242 -0.9132 -0.2966
30258SOL     OW99551  11.518   9.898   2.912  0.6985 -0.2747 -0.0472
30258SOL    HW199552  11.499   9.814   2.953  2.3513 -0.8111 -0.3228
30258SOL    HW299553  11.559   9.950   2.982 -0.6941  0.4861  0.2453
30259SOL     OW99554  12.074   7.688   8.737 -0.0251 -0.3562  0.0070
30259SOL    HW199555  12.042   7.645   8.658  1.5435  0.1180 -0.9323
30259SOL    HW299556  12.049   7.780   8.726  1.2911 -0.0451 -0.5793
30260SOL     OW99557   0.345   7.857   9.402 -0.1392 -0.1953  0.0098
30260SOL    HW199558   0.386   7.868   9.488 -0.8037 -0.3119  0.3487
30260SOL    HW299559   0.272   7.797   9.418 -2.3323  2.3237  0.0579
30261SOL     OW99560   6.061  10.785   4.105 -0.1392 -0.1151  0.1311
30261SOL    HW199561   6.067  10.736   4.022  2.2017 -2.3839  1.5019
30261SOL    HW299562   6.123  10.857   4.095 -0.2858 -0.0385 -0.2672
30262SOL     OW99563   2.877   1.363  11.265  0.0581  0.1444 -0.5530
30262SOL    HW199564   2.865   1.404  11.180 -1.0417  1.8358  0.3524
30262SOL    HW299565   2.794   1.319  11.283  0.2038 -0.0242 -0.2856
30263SOL     OW99566   0.319  12.442   5.568  0.1278 -0.2030  0.1706
30263SOL    HW199567   0.399  12.401   5.533  0.3867  1.2821 -1.0951
30263SOL    HW299568   0.249  12.409   5.512  0.3315  0.9968 -0.8260
30264SOL     OW99569  12.465   0.835  10.042 -0.7761  0.3124 -0.1799
30264SOL    HW199570  12.375   0.803  10.044 -0.2974 -1.0692  0.2178
30264SOL    HW299571  12.511   0.773   9.986 -0.1801  1.3250 -0.8319
30265SOL     OW99572   0.417   9.680   9.095  0.3216 -0.2767  0.3942
30265SOL    HW199573   0.360   9.695   9.171  0.9063 -0.1451  0.8133
30265SOL    HW299574   0.390   9.746   9.031 -1.0532 -1.2025 -0.0376
30266SOL     OW99575   0.420  10.367   2.284  0.4174  0.1780 -0.4406
30266SOL    HW199576   0.419  10.348   2.190  2.4118  0.9895 -0.6665
30266SOL    HW299577   0.443  10.283   2.324  0.1655 -0.0296 -0.7243
30267SOL     OW99578   5.864  12.263   3.927 -0.1887  0.4703  0.3398
30267SOL    HW199579   5.816  12.328   3.876  1.5166  0.7220 -1.0275
30267SOL    HW299580   5.930  12.314   3.974  2.0166 -0.3206 -1.7395
30268SOL     OW99581  11.152   7.414  10.750  0.2936 -0.3100  0.4257
30268SOL    HW199582  11.141   7.421  10.845 -0.5046 -1.5283  0.4527
30268SOL    HW299583  11.221   7.349  10.739  0.5884  0.0447  0.1696
30269SOL     OW99584  10.694   6.649  11.498 -0.0314 -0.7069  0.7724
30269SOL    HW199585  10.653   6.736  11.502 -0.2172 -0.8192  1.7408
30269SOL    HW299586  10.625   6.589  11.525  0.4616 -1.0147  1.3773
30270SOL     OW99587   1.441   9.943   5.851 -0.0447 -0.1033  0.1531
30270SOL    HW199588   1.484   9.975   5.771 -1.6475 -1.7095 -1.4575
30270SOL    HW299589   1.375  10.010   5.870 -0.3515 -0.2117 -0.4978
30271SOL     OW99590   8.837   2.762   0.140  0.0662 -0.0425  0.1387
30271SOL    HW199591   8.816   2.704   0.067 -0.1626 -0.9528  0.9139
30271SOL    HW299592   8.771   2.831   0.135 -0.1683 -0.2921 -0.2991
30272SOL     OW99593   9.757  12.306   9.490  0.0127  0.6358  0.3979
30272SOL    HW199594   9.826  12.373   9.486 -0.0285  0.7071  0.8493
30272SOL    HW299595   9.686  12.341   9.438  0.4910  0.3594 -0.4534
30273SOL     OW99596   7.908   9.469   9.973 -0.4125 -0.2539 -0.3739
30273SOL    HW199597   7.950   9.545   9.931 -2.7411  0.9515 -0.6442
30273SOL    HW299598   7.893   9.409   9.900 -0.2424 -0.1881 -0.4678
30274SOL     OW99599   4.287   6.693   1.860 -0.0916 -0.4266 -0.2576
30274SOL    HW199600   4.270   6.670   1.768 -1.1257 -1.2451  0.1157
30274SOL    HW299601   4.218   6.648   1.909  0.8098 -0.5010  0.9883
30275SOL     OW99602   0.808  10.598  11.701 -0.0070  0.4167 -0.1192
30275SOL    HW199603   0.839  10.584  11.791  0.0220  1.9793  0.1422
30275SOL    HW299604   0.729  10.544  11.694  0.4506 -0.3628  0.5683
30276SOL     OW99605   4.840   9.734   8.831  0.5923  0.1645  0.0536
30276SOL    HW199606   4.906   9.693   8.886  1.5147  1.3381 -0.1422
30276SOL    HW299607   4.889   9.795   8.776 -0.5576  0.4698 -0.6711
30277SOL     OW99608   7.945   4.310   6.071  0.0998 -0.0284  0.4685
30277SOL    HW199609   7.905   4.261   6.143  1.5962 -0.6458  0.9247
30277SOL    HW299610   7.968   4.395   6.110 -0.5119  0.2211  0.2849
30278SOL     OW99611   5.393  12.186   1.280  0.0321 -0.2821 -0.3891
30278SOL    HW199612   5.392  12.109   1.336 -0.9412  0.1032  0.1547
30278SOL    HW299613   5.309  12.183   1.234  0.0932  0.3045 -0.5498
30279SOL     OW99614   0.609  10.053   1.043 -0.1822  0.0324 -0.3108
30279SOL    HW199615   0.627  10.041   0.950  0.7699  1.2681 -0.3097
30279SOL    HW299616   0.679  10.111   1.074 -1.0802  0.4806  0.9519
30280SOL     OW99617   3.228   8.152   3.873 -0.6675 -0.0533 -0.3757
30280SOL    HW199618   3.260   8.230   3.828  1.0672  0.7306  1.9901
30280SOL    HW299619   3.297   8.087   3.860 -0.3386  0.0529  0.7236
30281SOL     OW99620   0.994  10.667   1.190 -0.5266  0.5827 -0.4496
30281SOL    HW199621   1.038  10.713   1.118 -0.3132  0.9637 -0.0793
30281SOL    HW299622   1.060  10.607   1.224 -0.4401  0.8218 -0.1941
30282SOL     OW99623   2.326  10.541  10.660  0.5399  0.1066  0.0943
30282SOL    HW199624   2.380  10.620  10.659 -1.6132  1.6558 -2.0080
30282SOL    HW299625   2.289  10.535  10.572 -1.3357 -1.8749  0.9221
30283SOL     OW99626   8.636   8.468  12.136  0.0425 -0.3688 -0.5992
30283SOL    HW199627   8.718   8.462  12.185 -0.0922 -3.1353 -0.5091
30283SOL    HW299628   8.657   8.428  12.051 -1.1139 -0.8201 -0.6839
30284SOL     OW99629   6.210   4.299   0.596  0.1013 -0.5476 -0.0318
30284SOL    HW199630   6.142   4.346   0.645 -0.0141 -0.7164 -0.0295
30284SOL    HW299631   6.291   4.344   0.620  0.1571 -1.1458  0.9815
30285SOL     OW99632   8.386   6.808   0.435  0.1402 -1.1706  0.2277
30285SOL    HW199633   8.472   6.850   0.439 -0.3768  0.0231 -0.5003
30285SOL    HW299634   8.394   6.730   0.490  1.1559 -0.1077  1.6565
30286SOL     OW99635   3.902   0.561   4.234 -0.4511  0.0107  0.1436
30286SOL    HW199636   3.905   0.652   4.264  0.6477 -0.3656  1.2404
30286SOL    HW299637   3.919   0.566   4.140  0.4332  0.8806  0.3403
30287SOL     OW99638   6.895   9.939  10.918 -0.5439 -0.1956 -0.0233
30287SOL    HW199639   6.948   9.935  10.997  0.4845  0.3981 -0.6581
30287SOL    HW299640   6.950   9.986  10.855 -1.6723  0.0769 -0.8308
30288SOL     OW99641   3.229   1.583   1.235  0.1565  0.4474  0.1779
30288SOL    HW199642   3.233   1.530   1.314  0.1343  0.7480  0.3843
30288SOL    HW299643   3.152   1.639   1.247 -0.9718 -0.8243 -0.9063
30289SOL     OW99644   7.263   7.290   6.730  0.4209 -0.0352  0.2269
30289SOL    HW199645   7.176   7.253   6.719 -0.2047  1.5419 -0.4221
30289SOL    HW299646   7.303   7.284   6.643  1.2270 -1.3370  0.6624
30290SOL     OW99647   6.937   4.198   0.827  0.0879 -0.2880  0.3075
30290SOL    HW199648   6.886   4.149   0.891 -0.2471 -1.2657 -0.6840
30290SOL    HW299649   7.002   4.136   0.794  0.1696  0.1513 -0.3917
30291SOL     OW99650   4.804   7.907   0.761 -0.0081  0.2208  0.9652
30291SOL    HW199651   4.742   7.979   0.767  1.1667  1.2865  0.5821
30291SOL    HW299652   4.798   7.879   0.669  1.2991  1.4706  0.4681
30292SOL     OW99653   7.491   0.540   9.616 -0.2031 -0.7091 -0.1601
30292SOL    HW199654   7.541   0.614   9.653  0.2820 -0.5149 -1.1545
30292SOL    HW299655   7.406   0.544   9.660  0.5148 -0.8155  1.3082
30293SOL     OW99656   1.617  11.814   4.468  0.5427 -0.1647  0.1060
30293SOL    HW199657   1.532  11.770   4.469  0.9080 -0.9334  2.3715
30293SOL    HW299658   1.601  11.898   4.513  0.7919  0.0843 -0.2620
30294SOL     OW99659   9.834   0.525   2.689 -0.1905  0.0306 -0.4159
30294SOL    HW199660   9.928   0.525   2.672 -0.1413 -1.1090 -0.1867
30294SOL    HW299661   9.796   0.475   2.616 -0.7116  1.0545 -0.8830
30295SOL     OW99662   1.987   3.596   2.296 -0.1422  0.1847  0.3789
30295SOL    HW199663   2.058   3.556   2.244  1.6354  1.1961  1.9013
30295SOL    HW299664   1.971   3.680   2.253  0.1034  0.2794  0.4737
30296SOL     OW99665  11.601   1.515  10.733 -0.5019 -0.2195  0.1238
30296SOL    HW199666  11.537   1.549  10.796  1.8741  0.3986  2.3951
30296SOL    HW299667  11.638   1.438  10.775  1.4672  0.4577 -0.2654
30297SOL     OW99668  10.136   4.919  10.815 -0.3490  0.0319 -0.1290
30297SOL    HW199669  10.216   4.944  10.769 -0.1829  1.1804  0.7221
30297SOL    HW299670  10.065   4.944  10.755 -0.1523  1.9724  0.3840
30298SOL     OW99671   4.870   7.974  11.092 -0.1236  0.4593 -0.6632
30298SOL    HW199672   4.855   7.956  11.185  1.1300 -0.1414 -0.5478
30298SOL    HW299673   4.868   8.069  11.085 -0.6528  0.4976 -0.1023
30299SOL     OW99674   4.573   2.498  12.553  0.5270 -0.0750  0.6096
30299SOL    HW199675   4.494   2.493  12.500  0.4127  0.6749  0.6978
30299SOL    HW299676   4.645   2.484  12.491  0.4311  1.4056  0.1172
30300SOL     OW99677   0.109  11.167   9.440 -0.2860 -0.1290  0.0343
30300SOL    HW199678   0.177  11.123   9.492 -1.0564  0.1037  1.2681
30300SOL    HW299679   0.054  11.210   9.504 -2.2400 -1.1736 -0.8585
30301SOL     OW99680   0.498   0.410   9.771  0.2518 -0.5695 -0.6863
30301SOL    HW199681   0.489   0.447   9.683 -1.0798  1.0308  0.0722
30301SOL    HW299682   0.564   0.463   9.814  0.6032 -1.0866 -0.5774
30302SOL     OW99683   1.701   3.663   9.854  0.0282 -0.2444 -0.2823
30302SOL    HW199684   1.613   3.630   9.871  0.5510 -0.1817  3.2312
30302SOL    HW299685   1.755   3.584   9.848  0.0032 -0.2317 -0.7044
30303SOL     OW99686   9.792   1.100   9.408  0.2206  0.1192 -0.6065
30303SOL    HW199687   9.747   1.184   9.408  1.3033  0.8363  2.1807
30303SOL    HW299688   9.873   1.115   9.359  1.7134  1.6627  2.0597
30304SOL     OW99689   5.819   7.126  11.918 -0.5107  0.4563 -0.4063
30304SOL    HW199690   5.815   7.221  11.930  1.4544  0.2240  4.7390
30304SOL    HW299691   5.738   7.094  11.957 -0.2412 -0.0363 -0.2488
30305SOL     OW99692   2.198   6.473  10.060 -0.4501  0.0206  0.2948
30305SOL    HW199693   2.266   6.504  10.001 -1.2419  0.5610 -0.3697
30305SOL    HW299694   2.219   6.512  10.145  0.2092 -0.0476  0.1649
30306SOL     OW99695   7.008   6.047  11.525  0.1480  0.2208  0.2517
30306SOL    HW199696   6.956   5.998  11.588 -1.3027  2.2563  0.7333
30306SOL    HW299697   6.987   6.138  11.543  0.2405  0.9128 -2.6826
30307SOL     OW99698   3.882  10.848   0.044 -0.0655  0.0950 -0.2265
30307SOL    HW199699   3.853  10.911   0.110 -0.0161 -0.1392  0.0236
30307SOL    HW299700   3.891  10.899  -0.036  0.1218  0.4366  0.0076
30308SOL     OW99701  10.658  10.114   0.526  0.1906  0.3160 -0.3822
30308SOL    HW199702  10.681  10.206   0.538  0.3184  0.3331 -0.7456
30308SOL    HW299703  10.713  10.085   0.452  0.9356 -0.3347  0.4039
30309SOL     OW99704   0.575   6.792   1.704  0.3662 -0.3362 -0.2836
30309SOL    HW199705   0.602   6.721   1.647  0.3132 -1.7465  1.3566
30309SOL    HW299706   0.569   6.752   1.791  0.9990  1.8257  0.8375
30310SOL     OW99707   5.212  12.307   2.688 -0.4095 -0.4183  0.4069
30310SOL    HW199708   5.210  12.219   2.651  1.9155 -0.4170  0.1449
30310SOL    HW299709   5.186  12.365   2.616 -1.3961 -0.8105  0.4287
30311SOL     OW99710   0.724   4.526   4.619 -0.0779  0.0945 -0.5267
30311SOL    HW199711   0.801   4.538   4.564  1.3531  0.2404  1.4100
30311SOL    HW299712   0.657   4.493   4.559  1.9313 -1.6046 -2.0037
30312SOL     OW99713  10.865   6.003   3.410 -0.1974 -0.1892  0.0260
30312SOL    HW199714  10.805   5.929   3.406  0.9156 -1.1263  0.0167
30312SOL    HW299715  10.906   6.007   3.323 -1.0390  1.1543 -0.3435
30313SOL     OW99716   9.737   3.202   0.223 -0.0706 -0.2796 -0.1140
30313SOL    HW199717   9.783   3.263   0.165 -2.5073  0.8408 -1.0294
30313SOL    HW299718   9.708   3.256   0.297  0.1007 -0.9580  0.4594
30314SOL     OW99719  10.597   5.394   7.394  0.2472 -0.5649 -0.2557
30314SOL    HW199720  10.654   5.471   7.390  1.5717 -1.5409 -1.5929
30314SOL    HW299721  10.658   5.320   7.402 -0.8057 -1.6510 -1.6875
30315SOL     OW99722   9.067   6.329   8.597 -0.4880 -0.2431 -0.1352
30315SOL    HW199723   9.042   6.367   8.513 -0.0263 -0.9563 -0.5950
30315SOL    HW299724   9.021   6.245   8.601  0.7553 -0.9600 -0.4031
30316SOL     OW99725   0.892   4.928  12.513 -0.0377 -0.1983 -0.3424
30316SOL    HW199726   0.955   4.898  12.579 -1.1953 -0.8305  0.5027
30316SOL    HW299727   0.937   5.001  12.469  1.3895 -0.8162  0.0355
30317SOL     OW99728  10.496   8.928  12.142 -0.1499  0.4092  0.0789
30317SOL    HW199729  10.488   8.936  12.047  2.1870  3.1890 -0.0182
30317SOL    HW299730  10.569   8.867  12.155 -2.3229 -2.3389  0.2832
30318SOL     OW99731   2.256  12.053  12.093  0.6742  0.4741 -0.1526
30318SOL    HW199732   2.229  12.130  12.043 -1.4165  0.4993  0.9260
30318SOL    HW299733   2.323  12.085  12.153  0.8306  1.1333 -0.6670
30319SOL     OW99734   3.383  10.706   7.981  0.0957 -0.1660  0.0166
30319SOL    HW199735   3.383  10.677   7.890 -0.7638 -1.8353  0.5150
30319SOL    HW299736   3.374  10.801   7.975  0.4074 -0.2032 -1.6426
30320SOL     OW99737  11.911   5.852   9.112  0.2021  0.1434  0.3978
30320SOL    HW199738  11.883   5.910   9.042  0.5775  1.8310  1.5732
30320SOL    HW299739  11.969   5.789   9.069 -0.1647  0.6741 -0.9223
30321SOL     OW99740   0.426   6.094   3.135 -0.6688  0.2484  0.2641
30321SOL    HW199741   0.459   6.072   3.222 -1.0134  1.0194  0.6022
30321SOL    HW299742   0.472   6.034   3.076  1.4012  1.3057  0.6965
30322SOL     OW99743   7.490   2.827   9.229  0.8076 -0.7063  0.1412
30322SOL    HW199744   7.569   2.855   9.275  0.2850  0.0629  0.5915
30322SOL    HW299745   7.418   2.860   9.282  0.1399  1.8591 -2.1448
30323SOL     OW99746   6.360  10.434  12.208  0.1392  0.3045 -0.5858
30323SOL    HW199747   6.313  10.503  12.255  0.1514 -0.5589  0.7723
30323SOL    HW299748   6.313  10.425  12.126 -1.4528  0.1996  0.2892
30324SOL     OW99749   9.409  10.416   2.623  0.1495  0.3713  0.0527
30324SOL    HW199750   9.446  10.476   2.557  1.5473 -0.3019  0.1767
30324SOL    HW299751   9.486  10.375   2.663 -0.7179 -0.0397  1.3594
30325SOL     OW99752   3.505   0.847   1.995 -0.1224 -0.4188  0.4444
30325SOL    HW199753   3.518   0.773   2.054  2.7550  0.8650  1.6298
30325SOL    HW299754   3.578   0.842   1.933 -1.0636  0.2779 -0.7624
30326SOL     OW99755  12.182   6.807   9.868 -0.2364  0.5820 -0.5877
30326SOL    HW199756  12.270   6.807   9.906 -0.0877  2.1709 -0.8291
30326SOL    HW299757  12.128   6.850   9.934 -1.0954 -1.3852  0.0371
30327SOL     OW99758   6.024  12.050   1.143 -0.1328  0.3743  0.0270
30327SOL    HW199759   6.119  12.038   1.151  0.0738  0.2728 -2.1312
30327SOL    HW299760   5.989  12.010   1.223  1.4426 -2.2119 -0.4442
30328SOL     OW99761   4.452   4.097  11.789  0.4794 -0.0498 -0.2912
30328SOL    HW199762   4.530   4.128  11.743 -1.9776  4.2491 -2.2006
30328SOL    HW299763   4.406   4.043  11.725  0.5733 -0.2547 -0.1856
30329SOL     OW99764   5.895   7.067   8.484  0.0631 -0.2397  0.5111
30329SOL    HW199765   5.928   7.009   8.553  3.4923 -0.8876 -1.4780
30329SOL    HW299766   5.856   7.008   8.420 -0.8268  0.1523  0.6698
30330SOL     OW99767   4.765   2.563   4.481  0.2780 -0.8523 -0.4829
30330SOL    HW199768   4.788   2.618   4.555  0.8623 -1.4614 -0.1995
30330SOL    HW299769   4.791   2.614   4.404  0.8755 -0.7517 -0.2214
30331SOL     OW99770   1.039   6.983   0.376 -0.6677  0.2997  0.8173
30331SOL    HW199771   1.043   7.062   0.429 -0.3281  0.6038  0.3445
30331SOL    HW299772   0.964   6.996   0.318 -0.4829  0.3718  0.5921
30332SOL     OW99773  11.185   2.974  10.900 -0.6781  0.2507  0.3384
30332SOL    HW199774  11.258   2.939  10.951  2.0878  1.8140 -2.2283
30332SOL    HW299775  11.188   3.068  10.913 -1.0937  0.5093 -1.1802
30333SOL     OW99776  11.941   8.315  11.407 -0.1929 -0.2400 -0.2589
30333SOL    HW199777  11.918   8.320  11.314  0.3612 -0.2326 -0.4001
30333SOL    HW299778  11.866   8.273  11.448 -1.2969  1.5073 -0.3942
30334SOL     OW99779   8.639   5.220   8.797 -0.4284 -0.0577  0.3280
30334SOL    HW199780   8.545   5.230   8.816 -0.1110  1.3726  1.2992
30334SOL    HW299781   8.660   5.131   8.825 -1.7603 -0.9103 -1.1939
30335SOL     OW99782   2.813   1.929   6.568 -0.0965 -0.2220  0.2384
30335SOL    HW199783   2.897   1.882   6.561 -0.2175 -0.2604 -1.1618
30335SOL    HW299784   2.748   1.860   6.578  0.0476 -0.1771  1.7938
30336SOL     OW99785   4.408   0.366  10.915  0.4672 -0.0989 -0.4057
30336SOL    HW199786   4.345   0.309  10.959  2.4178 -2.0267  0.0956
30336SOL    HW299787   4.422   0.438  10.977  1.1139 -1.3408  0.9599
30337SOL     OW99788   9.055   1.174   4.345 -0.2017  0.1950  0.9327
30337SOL    HW199789   9.097   1.088   4.347  1.8846  1.0747 -0.9959
30337SOL    HW299790   9.036   1.188   4.252 -1.1778  1.5377  1.3143
30338SOL     OW99791   9.944   0.015  11.033  0.3892  0.0364 -0.1840
30338SOL    HW199792   9.887   0.059  11.097  1.2607 -0.2562  0.8106
30338SOL    HW299793   9.989   0.087  10.989  0.5507  0.2097  0.2566
30339SOL     OW99794   6.222   5.236   4.196  0.0332 -0.5212  0.0598
30339SOL    HW199795   6.278   5.165   4.226  0.9182 -0.0420 -0.4282
30339SOL    HW299796   6.278   5.290   4.141 -1.4163 -1.1141 -2.1102
30340SOL     OW99797   2.878   2.142   2.628  0.1432  0.6457 -0.1661
30340SOL    HW199798   2.836   2.228   2.635  1.4674  1.2606  0.7334
30340SOL    HW299799   2.942   2.152   2.558 -0.9404 -0.1897 -1.3150
30341SOL     OW99800   9.465   8.774   0.913  0.4287  0.7470 -0.2718
30341SOL    HW199801   9.444   8.769   0.820 -0.5590  1.2962 -0.1018
30341SOL    HW299802   9.559   8.787   0.917  0.4189  1.1453 -1.2089
30342SOL     OW99803   1.503  10.824   7.763  0.1439 -0.3062 -0.0656
30342SOL    HW199804   1.536  10.875   7.837 -0.3265  0.5671 -0.4424
30342SOL    HW299805   1.581  10.797   7.716  0.4659 -1.1008  0.8855
30343SOL     OW99806   8.507  12.241   3.744 -0.2249 -0.1335 -0.2045
30343SOL    HW199807   8.421  12.282   3.734 -0.5012 -0.2837  1.3379
30343SOL    HW299808   8.534  12.222   3.654 -1.0214  1.4840 -0.8381
30344SOL     OW99809  12.465   6.607   1.516  0.0986  0.0318  0.2289
30344SOL    HW199810  12.389   6.610   1.574 -0.3986 -0.0826 -0.4034
30344SOL    HW299811  12.453   6.528   1.464 -1.3884  1.9151 -2.5604
30345SOL     OW99812   0.472   9.972  10.718 -0.1352 -0.0329 -0.5290
30345SOL    HW199813   0.412   9.898  10.720 -0.0517 -0.1041 -0.6186
30345SOL    HW299814   0.487   9.989  10.625  1.6575 -1.4082 -0.5503
30346SOL     OW99815  11.166   3.036   4.229  0.2188 -0.4366 -0.3017
30346SOL    HW199816  11.166   2.977   4.154 -2.3697  0.1842 -0.8658
30346SOL    HW299817  11.215   3.113   4.199 -1.8183  0.3315 -1.8840
30347SOL     OW99818   6.927   1.588  11.973  0.7631 -0.5752  0.1888
30347SOL    HW199819   6.972   1.529  11.913  1.4742  0.5366 -0.3911
30347SOL    HW299820   6.834   1.573  11.955  0.9600  0.1664 -1.6426
30348SOL     OW99821  10.763   8.621   0.282  0.5559  0.0328 -0.3416
30348SOL    HW199822  10.702   8.550   0.303  0.2885 -0.1166 -1.5405
30348SOL    HW299823  10.826   8.621   0.354 -1.6057  1.0802  1.6884
30349SOL     OW99824   4.850  11.979  11.137  0.7282 -0.2732 -0.4350
30349SOL    HW199825   4.914  11.916  11.168  1.6925 -0.2597 -2.2348
30349SOL    HW299826   4.899  12.036  11.077 -0.6726  0.5631 -0.8400
30350SOL     OW99827   2.972   2.537   6.488  0.0270  0.1943  0.2906
30350SOL    HW199828   2.925   2.577   6.414  0.5103 -1.4509 -0.9641
30350SOL    HW299829   2.934   2.450   6.496  1.9297 -0.6998  0.0920
30351SOL     OW99830  12.158   2.660  10.792 -0.2662 -0.4510 -0.4932
30351SOL    HW199831  12.228   2.626  10.848  0.6557 -1.0860 -1.9695
30351SOL    HW299832  12.180   2.752  10.779 -1.9172  0.4480  2.2392
30352SOL     OW99833   8.745   0.594   4.353  0.2216  0.4160 -0.0120
30352SOL    HW199834   8.674   0.646   4.316 -1.0298 -1.1243  0.1128
30352SOL    HW299835   8.814   0.596   4.287 -0.5125  0.7741 -0.7807
30353SOL     OW99836  10.094  10.751   4.419 -0.4834 -0.2582  0.0922
30353SOL    HW199837  10.184  10.721   4.433 -0.4417  0.1396  0.7827
30353SOL    HW299838  10.042  10.671   4.416 -0.1376 -0.4813 -0.0559
30354SOL     OW99839   6.404   2.385   4.216  0.0325 -0.0019 -0.1521
30354SOL    HW199840   6.437   2.326   4.284  1.6284  1.2596  0.2155
30354SOL    HW299841   6.355   2.327   4.157  0.1749 -1.4250  1.0508
30355SOL     OW99842  12.051   7.223  10.783  0.3591 -0.1646 -0.5781
30355SOL    HW199843  11.975   7.191  10.733 -0.6439 -0.8233  1.2349
30355SOL    HW299844  12.016   7.296  10.834  0.0349 -2.2313  2.4572
30356SOL     OW99845   1.814   3.868   7.830  0.3612  0.5788 -0.2106
30356SOL    HW199846   1.841   3.957   7.853  0.4965  0.4798  0.0209
30356SOL    HW299847   1.730   3.856   7.874  0.5530  0.4390  0.1232
30357SOL     OW99848   7.877   0.436  11.341  0.1680 -0.1255  0.0258
30357SOL    HW199849   7.959   0.459  11.385 -0.4093 -0.0610  1.1092
30357SOL    HW299850   7.891   0.459  11.249  1.2807  0.0795  0.2324
30358SOL     OW99851  10.349   4.455   1.664 -0.2273 -0.1162 -0.3395
30358SOL    HW199852  10.421   4.393   1.670  1.2667  1.4654 -1.1551
30358SOL    HW299853  10.368   4.507   1.586 -1.4736  1.2951  0.2470
30359SOL     OW99854   8.402  11.313   8.724  0.0037 -0.6263 -0.6825
30359SOL    HW199855   8.424  11.329   8.633 -1.3799 -0.3639 -0.9973
30359SOL    HW299856   8.486  11.299   8.768  0.6695 -0.8757 -2.0111
30360SOL     OW99857   0.330   7.162   7.830 -0.3711  0.2592  0.5066
30360SOL    HW199858   0.261   7.124   7.774 -2.1238 -0.1915  2.8392
30360SOL    HW299859   0.346   7.248   7.793  0.0300 -0.7486 -1.8744
30361SOL     OW99860   7.149  11.073   0.497  0.1066 -0.4513 -1.1509
30361SOL    HW199861   7.082  11.100   0.434 -1.1577 -1.3785 -0.2378
30361SOL    HW299862   7.129  10.981   0.516  0.4072 -0.1738  0.6582
30362SOL     OW99863   5.411   2.464   5.596  0.3472 -0.3734 -0.3721
30362SOL    HW199864   5.332   2.504   5.561 -0.2552 -0.4324  0.8876
30362SOL    HW299865   5.383   2.420   5.676  1.4127 -1.4739 -0.5713
30363SOL     OW99866  12.238   8.089   8.506 -0.0642  0.1916  0.2469
30363SOL    HW199867  12.169   8.025   8.525 -0.8843  1.1238  0.5399
30363SOL    HW299868  12.274   8.110   8.592 -0.1279  0.4733  0.2049
30364SOL     OW99869   5.881   8.258   6.079 -0.5102 -0.1504  0.7063
30364SOL    HW199870   5.859   8.321   6.148  1.9826 -1.2071  2.6263
30364SOL    HW299871   5.891   8.311   6.000 -0.4506  1.5718  1.8167
30365SOL     OW99872   7.545  10.589   0.251  0.4617 -0.1371 -0.0907
30365SOL    HW199873   7.528  10.495   0.253  0.9494 -0.2147  0.5880
30365SOL    HW299874   7.502  10.624   0.329  1.5501 -0.0200  0.4647
30366SOL     OW99875   6.233  11.543   1.209  0.0704 -0.1357  0.1591
30366SOL    HW199876   6.257  11.453   1.187  1.5804 -0.0619  1.3138
30366SOL    HW299877   6.256  11.552   1.302 -1.5047  0.9884  0.4922
30367SOL     OW99878   3.104   1.227  11.336 -0.2652  0.2898  0.3895
30367SOL    HW199879   3.044   1.299  11.317  0.0515  0.6090  0.5788
30367SOL    HW299880   3.131   1.242  11.427 -1.4936 -1.0120  0.9958
30368SOL     OW99881   7.507   1.716  10.536  0.1759 -0.3574 -0.0182
30368SOL    HW199882   7.470   1.713  10.448 -1.4500 -1.0719  0.6647
30368SOL    HW299883   7.482   1.633  10.576  1.7627 -0.4879  0.8083
30369SOL     OW99884   3.281   0.550   3.877  0.1100 -0.7129 -0.2450
30369SOL    HW199885   3.374   0.539   3.900 -0.3266 -0.8484  1.6869
30369SOL    HW299886   3.252   0.463   3.851  0.4399 -0.7512 -0.4885
30370SOL     OW99887   5.655  11.105  11.941  0.0754 -0.3624  0.2240
30370SOL    HW199888   5.641  11.199  11.949  0.9030 -0.2419  0.3754
30370SOL    HW299889   5.603  11.079  11.865  1.0512  0.4961 -0.7666
30371SOL     OW99890  12.458   8.915   2.507 -0.1393 -0.5671  0.6178
30371SOL    HW199891  12.476   8.852   2.437 -0.8795  0.6739 -0.7510
30371SOL    HW299892  12.383   8.878   2.554 -1.1794 -0.3300 -0.7585
30372SOL     OW99893   5.197   6.536   5.462 -0.1552 -0.2744 -0.0092
30372SOL    HW199894   5.195   6.447   5.429 -2.0511 -1.0761  2.0173
30372SOL    HW299895   5.128   6.582   5.415 -0.1833 -0.3001  0.0068
30373SOL     OW99896  12.569   2.714   7.886  0.3342  0.0455 -0.3923
30373SOL    HW199897  12.597   2.762   7.964  0.9962 -2.0816  0.7577
30373SOL    HW299898  12.644   2.659   7.863 -0.6730 -1.0842 -1.1034
30374SOL     OW99899   6.431   1.566   4.369 -0.5059 -0.4101 -0.1874
30374SOL    HW199900   6.449   1.632   4.302 -0.9061  0.5196  0.5814
30374SOL    HW299901   6.356   1.602   4.418  0.4316 -0.5171  1.4129
30375SOL     OW99902  10.818   7.985   2.170  0.1114 -0.3165  0.4538
30375SOL    HW199903  10.858   8.056   2.220  1.2435 -0.4174 -0.2729
30375SOL    HW299904  10.725   7.989   2.192  0.1580  1.3620  0.4679
30376SOL     OW99905   4.189   5.238   1.531 -0.0394 -0.3826  0.2826
30376SOL    HW199906   4.147   5.295   1.466  0.5013 -0.0813  0.1920
30376SOL    HW299907   4.198   5.294   1.609  0.8672 -0.2074  0.0624
30377SOL     OW99908   9.327  10.027   3.018  1.0420  0.3188 -0.3321
30377SOL    HW199909   9.299  10.114   2.992  0.8248  0.1456 -0.6852
30377SOL    HW299910   9.411  10.014   2.973  0.4389 -0.1697 -1.3768
30378SOL     OW99911   5.087   1.899   1.063 -0.1631  0.0963  0.1245
30378SOL    HW199912   5.082   1.835   1.135  0.0192  0.8686  0.8446
30378SOL    HW299913   5.178   1.897   1.036 -0.0725  0.3202  0.4063
30379SOL     OW99914   1.660  12.096   6.615 -0.3105 -0.5498  0.3593
30379SOL    HW199915   1.662  12.054   6.701 -3.8380  1.6381  1.7249
30379SOL    HW299916   1.593  12.048   6.566 -1.2123  0.6264  0.3753
30380SOL     OW99917   9.190   5.939   8.679 -0.2411  0.2540 -0.4597
30380SOL    HW199918   9.216   5.870   8.740 -1.5554  0.1339 -0.0045
30380SOL    HW299919   9.147   6.005   8.734 -0.1664  0.8175 -1.0684
30381SOL     OW99920   5.056   2.994   4.364  0.0968  0.2910 -0.2766
30381SOL    HW199921   5.070   3.036   4.449  0.6767 -1.1312  0.3712
30381SOL    HW299922   5.132   2.937   4.353 -0.8599 -0.9110 -0.9053
30382SOL     OW99923  11.215  12.333   6.301 -0.1283 -0.0358  0.9763
30382SOL    HW199924  11.202  12.278   6.224 -1.3930  0.1568  1.0406
30382SOL    HW299925  11.134  12.383   6.309  0.3815  0.6695  1.8561
30383SOL     OW99926  11.260  10.485   6.316 -0.2076 -0.8358  0.2531
30383SOL    HW199927  11.295  10.521   6.397  0.4436 -1.7272  0.3801
30383SOL    HW299928  11.334  10.442   6.274 -0.4891 -0.2239 -0.9196
30384SOL     OW99929   2.534   5.302   0.698  0.3378  0.0443 -0.7973
30384SOL    HW199930   2.578   5.318   0.782  0.5822 -3.4036 -0.0928
30384SOL    HW299931   2.441   5.315   0.717  0.4303 -0.2608 -0.1085
30385SOL     OW99932  10.715   6.544   5.155 -0.8919 -0.6246  0.0562
30385SOL    HW199933  10.649   6.557   5.088 -0.9990  1.0984  0.4454
30385SOL    HW299934  10.778   6.615   5.142 -0.0038 -1.2476  0.7338
30386SOL     OW99935   9.247   9.326   6.513 -0.0534  0.5025 -0.6891
30386SOL    HW199936   9.311   9.388   6.547  0.5372  0.2796 -1.3655
30386SOL    HW299937   9.170   9.379   6.493 -0.7496  0.5139  1.7542
30387SOL     OW99938  11.952  12.379   8.159 -0.0216  0.0385 -0.0321
30387SOL    HW199939  11.937  12.470   8.132 -2.8828  0.0715  1.3165
30387SOL    HW299940  11.999  12.386   8.242  0.0055  0.2529 -0.0640
30388SOL     OW99941   3.485   7.385   5.469  0.2351  0.0871 -0.1761
30388SOL    HW199942   3.529   7.372   5.553 -1.0480  1.5602  0.7788
30388SOL    HW299943   3.533   7.457   5.427  0.3853 -0.1110 -0.3448
30389SOL     OW99944   6.651   9.288  12.327 -0.3530  0.2036  0.0183
30389SOL    HW199945   6.644   9.367  12.382  1.2144 -1.2841  2.5798
30389SOL    HW299946   6.676   9.219  12.388  1.5760 -1.6307 -2.6068
30390SOL     OW99947   1.113   4.820  12.357 -0.0854 -0.8083  0.1322
30390SOL    HW199948   1.148   4.747  12.306 -1.4610 -1.3771 -0.0429
30390SOL    HW299949   1.069   4.780  12.431 -1.5128 -0.2281 -0.3685
30391SOL     OW99950   0.629   6.410  10.886 -0.3017 -0.0472 -0.3139
30391SOL    HW199951   0.712   6.400  10.934 -0.5587 -1.6870 -0.1490
30391SOL    HW299952   0.562   6.408  10.954 -0.6105 -1.3636 -0.6358
30392SOL     OW99953   5.236   9.033   3.591 -0.6303 -0.0375  0.0255
30392SOL    HW199954   5.241   9.090   3.515  0.4809  0.8562  0.7324
30392SOL    HW299955   5.309   8.971   3.579  0.5096  1.0350  1.0399
30393SOL     OW99956   5.190   4.387   7.806 -0.2008  0.2162  0.5996
30393SOL    HW199957   5.102   4.364   7.777 -0.4489  0.6590  1.0043
30393SOL    HW299958   5.191   4.366   7.899  0.6773 -1.4441  0.2490
30394SOL     OW99959  10.566   8.435   3.353  0.3579 -0.5263 -0.2620
30394SOL    HW199960  10.656   8.464   3.339  1.1642 -3.1874 -1.3542
30394SOL    HW299961  10.515   8.480   3.286  0.7654  1.2732  0.5828
30395SOL     OW99962   4.629   2.256   2.316 -0.0035  0.3080 -0.3180
30395SOL    HW199963   4.650   2.292   2.230 -0.2037  0.2306 -0.4001
30395SOL    HW299964   4.665   2.168   2.315  1.0786  0.7220  0.1246
30396SOL     OW99965   5.979   4.967   9.285 -0.1231 -0.0520  0.2773
30396SOL    HW199966   5.952   4.893   9.230 -0.5878  0.2212  0.1326
30396SOL    HW299967   5.897   5.004   9.317  0.1192  0.2642  0.5305
30397SOL     OW99968   3.524   5.396   6.886  0.3466  0.1465 -0.2732
30397SOL    HW199969   3.432   5.371   6.897 -0.0359  1.6724  0.2064
30397SOL    HW299970   3.521   5.471   6.827  1.1317  1.1704  0.9420
30398SOL     OW99971   5.153   8.619   5.502 -0.1863 -0.1740  0.3576
30398SOL    HW199972   5.244   8.600   5.478 -0.1187  1.1341 -0.5408
30398SOL    HW299973   5.116   8.662   5.424 -1.5915 -0.7144  0.6960
30399SOL     OW99974   1.094   3.698  11.526 -0.5998 -0.2331 -0.2087
30399SOL    HW199975   1.077   3.778  11.575 -0.1822  1.4151 -2.5599
30399SOL    HW299976   1.189   3.698  11.512 -0.3157 -2.1885  1.3466
30400SOL     OW99977  10.313   3.610   7.865 -0.0355  0.0441  0.5431
30400SOL    HW199978  10.231   3.655   7.886 -1.4583 -1.9226 -0.4833
30400SOL    HW299979  10.333   3.560   7.944  0.6452  1.1272  1.0802
30401SOL     OW99980   0.896   7.225  11.809 -0.7773  0.3401  0.3376
30401SOL    HW199981   0.936   7.230  11.722  0.2688  0.0771  0.7881
30401SOL    HW299982   0.970   7.218  11.869 -1.5299 -1.4326  1.1223
30402SOL     OW99983   1.816   9.190   2.361  0.0098  0.8760  0.1938
30402SOL    HW199984   1.865   9.154   2.435 -1.6475  0.3888  1.1255
30402SOL    HW299985   1.845   9.281   2.354 -1.0197  1.4664  2.6112
30403SOL     OW99986   1.739   7.718   1.768  0.5193  0.2680  0.1904
30403SOL    HW199987   1.742   7.791   1.707  0.6407 -0.4746 -0.7257
30403SOL    HW299988   1.663   7.666   1.739 -0.2674  0.6282  1.5418
30404SOL     OW99989   4.677   4.364   2.263  0.2505 -0.0136 -0.6017
30404SOL    HW199990   4.730   4.297   2.220  0.2034 -0.0709 -0.5695
30404SOL    HW299991   4.647   4.324   2.344 -0.7847 -0.3884 -1.1473
30405SOL     OW99992   1.011  12.589   0.630 -0.0454 -0.2527 -0.4346
30405SOL    HW199993   1.061  12.613   0.708 -0.2101 -0.5306 -0.2428
30405SOL    HW299994   1.077  12.563   0.566  0.1249  0.4695 -0.5654
30406SOL     OW99995  11.922   4.853   6.441 -0.0349  0.4908 -0.2145
30406SOL    HW199996  11.976   4.868   6.363 -1.1620 -0.2841 -1.1753
30406SOL    HW299997  11.966   4.902   6.510  1.7474  0.0909 -1.0140
30407SOL     OW99998   8.729   4.264   5.934 -0.0513  0.0237  0.1060
30407SOL    HW199999   8.673   4.188   5.944 -0.9553  0.5329 -0.8518
30407SOL    HW2    0   8.765   4.280   6.021 -0.4459 -1.0319  0.4691
30408SOL     OW    1   2.942   8.930  11.943  0.1071 -0.0160  0.1294
30408SOL    HW1    2   2.870   8.977  11.985 -0.1043 -0.3891  0.1866
30408SOL    HW2    3   3.020   8.954  11.994  0.3586  1.8550 -1.0297
30409SOL     OW    4   4.574  12.393   4.419  0.2447  0.5288 -0.2550
30409SOL    HW1    5   4.536  12.414   4.504 -0.2676  0.6810 -0.5119
30409SOL    HW2    6   4.625  12.470   4.395  2.0694 -0.3050  0.8193
30410SOL     OW    7   1.691   9.626   4.581 -0.4592  0.0090 -0.1085
30410SOL    HW1    8   1.742   9.595   4.506 -0.4915  1.3085 -0.7053
30410SOL    HW2    9   1.742   9.700   4.616 -0.6590 -0.3117  0.8959
30411SOL     OW   10   3.983   4.736   2.630  0.3185  0.0044 -0.1859
30411SOL    HW1   11   4.057   4.701   2.581 -0.8920  0.0290 -2.0986
30411SOL    HW2   12   3.929   4.660   2.650 -0.4763  0.2880 -1.1687
30412SOL     OW   13  12.236   8.734   2.339  0.0581 -0.1696 -0.2668
30412SOL    HW1   14  12.151   8.768   2.309  0.1190 -0.5953 -0.9492
30412SOL    HW2   15  12.235   8.748   2.434 -0.3869  0.6918 -0.3820
30413SOL     OW   16   9.944   0.901  11.794  0.2622  0.3134 -0.1479
30413SOL    HW1   17   9.852   0.921  11.807 -0.1945 -1.3647 -0.4662
30413SOL    HW2   18   9.948   0.805  11.792  2.0328  0.3356 -0.0148
30414SOL     OW   19  11.911   4.164  10.500 -0.1469 -0.0163 -0.3532
30414SOL    HW1   20  11.851   4.238  10.497 -0.0829  0.0854  0.6123
30414SOL    HW2   21  11.858   4.090  10.531 -0.5104 -0.7020 -2.4579
30415SOL     OW   22   3.599   9.787   9.703  0.3976  0.5622 -0.0316
30415SOL    HW1   23   3.678   9.736   9.686 -0.0451  0.0134 -0.4732
30415SOL    HW2   24   3.567   9.810   9.615  0.0719  0.7934  0.1461
30416SOL     OW   25   9.760   8.781   1.206 -0.2955 -0.0681 -0.0333
30416SOL    HW1   26   9.734   8.776   1.114 -1.5125  0.7303  0.2477
30416SOL    HW2   27   9.779   8.873   1.221  0.1174 -0.2286  0.4637
30417SOL     OW   28   3.241   3.144   6.770  0.4454 -0.0150  0.0268
30417SOL    HW1   29   3.303   3.152   6.697  2.0899 -0.1727  1.3329
30417SOL    HW2   30   3.297   3.128   6.847 -1.2338 -0.0931  1.2849
30418SOL     OW   31   2.384  12.239  10.328 -0.5037  0.2832  0.1702
30418SOL    HW1   32   2.324  12.248  10.253  0.0796 -0.0470 -0.3467
30418SOL    HW2   33   2.458  12.294  10.306  0.0938 -0.5395  0.0629
30419SOL     OW   34   9.294   0.458   1.189 -0.1743  0.3426  0.2254
30419SOL    HW1   35   9.209   0.492   1.217 -0.2449  0.6233 -0.3318
30419SOL    HW2   36   9.319   0.397   1.259 -1.5271 -0.9157 -0.3433
30420SOL     OW   37  12.041   7.127   7.856 -0.3449 -0.1104 -0.2165
30420SOL    HW1   38  12.017   7.138   7.949  0.4748 -1.0921  0.1199
30420SOL    HW2   39  12.037   7.216   7.821  1.7035  0.6785  1.3501
30421SOL     OW   40  12.594  11.661   1.360  0.1348 -0.2270 -0.9153
30421SOL    HW1   41  12.547  11.588   1.321  0.4953 -0.7561 -0.3801
30421SOL    HW2   42  12.558  11.667   1.449  0.6494 -0.2536 -0.7012
30422SOL     OW   43   0.369  10.658   3.025 -0.7911 -0.0473  0.4300
30422SOL    HW1   44   0.330  10.702   3.100  1.0626  0.6063  1.0510
30422SOL    HW2   45   0.429  10.594   3.063 -0.6172 -0.4525 -0.5027
30423SOL     OW   46   8.826  12.562   6.490  0.3876  0.4595  0.2331
30423SOL    HW1   47   8.742  12.567   6.444 -0.5815  0.7348  1.9410
30423SOL    HW2   48   8.843  12.468   6.499 -0.9917  0.3352  1.9822
30424SOL     OW   49   3.630   9.705  11.145  0.4747 -0.1569  0.1534
30424SOL    HW1   50   3.624   9.760  11.223  1.9510  1.9161 -1.1116
30424SOL    HW2   51   3.724   9.696  11.129  0.1954 -0.0512 -1.7058
30425SOL     OW   52  11.224   9.864   4.947 -0.1552 -0.4489 -0.2716
30425SOL    HW1   53  11.183   9.780   4.926  0.7948 -0.9974  0.0317
30425SOL    HW2   54  11.318   9.850   4.934 -0.0510  0.8630 -1.2185
30426SOL     OW   55  11.467   8.178   7.424 -0.3901  0.2809 -0.1168
30426SOL    HW1   56  11.552   8.208   7.455 -0.7708  0.4857  0.7686
30426SOL    HW2   57  11.413   8.257   7.420 -1.2830 -0.1632  1.8538
30427SOL     OW   58   8.544   2.776   9.591  0.0206 -0.2627  0.2698
30427SOL    HW1   59   8.539   2.683   9.610  1.1560 -0.1870  1.0365
30427SOL    HW2   60   8.487   2.788   9.515 -1.4111 -1.2817  1.1377
30428SOL     OW   61  11.692   2.612   2.096  0.8617  0.0694  0.6503
30428SOL    HW1   62  11.662   2.688   2.146 -1.2712 -0.1908 -0.1126
30428SOL    HW2   63  11.684   2.539   2.157  0.3717  0.0801  0.6037
30429SOL     OW   64  10.081  11.342   0.039  0.0073 -0.2130  0.3564
30429SOL    HW1   65  10.120  11.357   0.125  2.0379 -0.5470 -0.4602
30429SOL    HW2   66  10.153  11.355  -0.023 -1.7895  1.8546 -1.4831
30430SOL     OW   67   9.144   4.489  11.897 -0.2745 -0.3006  0.0521
30430SOL    HW1   68   9.076   4.481  11.964 -0.7346  0.4380 -0.3239
30430SOL    HW2   69   9.099   4.472  11.814  0.3155 -1.3219 -0.0767
30431SOL     OW   70  11.494   3.371   1.017  0.2538  0.1297 -0.1346
30431SOL    HW1   71  11.414   3.368   1.070 -0.1150 -1.9404 -0.7106
30431SOL    HW2   72  11.564   3.381   1.081 -0.2906 -0.8831  0.6669
30432SOL     OW   73  12.394   0.802   6.004 -0.5263 -0.0624 -0.3760
30432SOL    HW1   74  12.396   0.740   5.931  0.5289 -0.1997 -0.2425
30432SOL    HW2   75  12.414   0.886   5.964  1.2569 -0.3223 -0.0868
30433SOL     OW   76  11.744   2.856   0.718  0.0528  0.1230  0.0903
30433SOL    HW1   77  11.796   2.911   0.660 -0.1461 -0.9383 -1.1267
30433SOL    HW2   78  11.654   2.864   0.686 -0.2193  0.2611  0.8521
30434SOL     OW   79  11.818   0.079   5.386  0.2807  0.5483  0.4411
30434SOL    HW1   80  11.804   0.057   5.293 -0.8382  0.2432  0.6747
30434SOL    HW2   81  11.870   0.006   5.420 -1.0196 -0.3619  0.5285
30435SOL     OW   82   9.172   4.347   8.028 -0.1699  0.4597 -0.9008
30435SOL    HW1   83   9.227   4.379   8.100 -0.3715  0.7280 -0.8664
30435SOL    HW2   84   9.084   4.379   8.048 -0.4568 -0.4619 -0.6554
30436SOL     OW   85   8.258  11.413  10.597  0.9359 -0.2638 -0.3548
30436SOL    HW1   86   8.238  11.330  10.554  0.0003  0.5254 -1.4809
30436SOL    HW2   87   8.225  11.401  10.687  1.3657 -1.3088 -0.3189
30437SOL     OW   88  11.558   1.290   7.359 -0.2905  0.1196  0.7601
30437SOL    HW1   89  11.650   1.265   7.352 -0.0531  1.3292 -0.9648
30437SOL    HW2   90  11.515   1.243   7.287 -0.4170  1.9915 -0.4482
30438SOL     OW   91   1.554   6.996   0.519 -0.1090  0.4138 -0.5845
30438SOL    HW1   92   1.588   6.936   0.453 -0.2565  0.0085 -0.2930
30438SOL    HW2   93   1.630   7.047   0.547  0.6104 -1.4644  1.1218
30439SOL     OW   94   4.671   2.881   2.605 -0.3415  0.0784 -0.3179
30439SOL    HW1   95   4.752   2.838   2.578 -0.0430  0.5160 -0.1350
30439SOL    HW2   96   4.613   2.809   2.631  0.8317 -0.1357  1.8678
30440SOL     OW   97   6.586   5.113  11.237 -0.4353 -0.0759 -0.4305
30440SOL    HW1   98   6.624   5.027  11.218  0.0197  0.1250 -0.4580
30440SOL    HW2   99   6.608   5.166  11.159 -0.2269  0.2156 -0.1772
30441SOL     OW  100   7.066  11.608   4.557 -0.1174  0.1848  0.3651
30441SOL    HW1  101   7.116  11.527   4.543 -2.4872 -1.1351 -1.0705
30441SOL    HW2  102   7.104  11.671   4.496 -1.0665 -1.2356 -1.7997
30442SOL     OW  103   9.334   3.107   1.976 -0.8542  0.5904  0.0906
30442SOL    HW1  104   9.245   3.073   1.966 -0.2958 -1.2149  0.7880
30442SOL    HW2  105   9.335   3.149   2.061 -0.7728 -0.4042  0.5981
30443SOL     OW  106   2.268   5.877   2.201  0.5037  0.2505 -0.1196
30443SOL    HW1  107   2.346   5.822   2.193 -0.8340 -1.8447  0.2234
30443SOL    HW2  108   2.202   5.832   2.148 -1.3504  0.1397  2.1436
30444SOL     OW  109   9.745  11.606  10.677  0.5046 -0.0430  0.0332
30444SOL    HW1  110   9.819  11.666  10.677 -0.9363  1.9030  1.8250
30444SOL    HW2  111   9.732  11.583  10.769 -1.2327 -0.1067 -0.1853
30445SOL     OW  112   5.391   0.042  11.106  0.2387 -0.6878  0.5043
30445SOL    HW1  113   5.357   0.131  11.093 -0.4864 -1.1124 -0.5820
30445SOL    HW2  114   5.456   0.052  11.176 -1.2966  0.3477  1.8749
30446SOL     OW  115   7.856  11.693  10.936  0.1104  0.0394 -0.2314
30446SOL    HW1  116   7.797  11.765  10.956  1.5514  0.9946  0.8035
30446SOL    HW2  117   7.899  11.719  10.855 -0.3531 -0.3133 -0.5945
30447SOL     OW  118   6.401   4.654  12.513  0.2743 -0.1858  0.6785
30447SOL    HW1  119   6.342   4.582  12.492 -0.4375  0.7066 -0.5253
30447SOL    HW2  120   6.397   4.661  12.608 -0.0049 -1.4203  0.7750
30448SOL     OW  121   4.220   7.232   4.148 -0.2771 -0.3203 -0.1555
30448SOL    HW1  122   4.265   7.221   4.064 -1.6092 -0.3907 -0.8805
30448SOL    HW2  123   4.235   7.149   4.193 -0.2122 -0.5849 -0.6524
30449SOL     OW  124  10.711   4.951   9.978 -0.3496 -0.6314 -0.0827
30449SOL    HW1  125  10.798   4.979   9.952 -0.6381  0.0347 -0.3579
30449SOL    HW2  126  10.699   4.866   9.937  0.2244 -0.7912  0.0769
30450SOL     OW  127   0.533   5.326   3.567  0.2015 -0.3991 -0.4020
30450SOL    HW1  128   0.578   5.259   3.516  1.5834  0.1346  0.0725
30450SOL    HW2  129   0.593   5.347   3.638 -2.2740 -2.3019  2.5449
30451SOL     OW  130   3.594   5.327   7.796  0.7276 -0.0113 -0.8865
30451SOL    HW1  131   3.565   5.319   7.705  1.5289 -3.0588 -0.9971
30451SOL    HW2  132   3.513   5.335   7.847  0.0694 -1.1040 -1.7103
30452SOL     OW  133   4.881   0.373   1.490  0.0831  0.0704 -0.3873
30452SOL    HW1  134   4.913   0.340   1.407  1.2163  1.1370 -0.3997
30452SOL    HW2  135   4.851   0.462   1.471  0.6312  0.4314  0.3881
30453SOL     OW  136   8.380   9.722   0.345  0.2352  0.2322  0.5202
30453SOL    HW1  137   8.392   9.627   0.334 -1.5507  0.1387 -1.1325
30453SOL    HW2  138   8.388   9.757   0.256 -1.5138  1.3089  0.7449
30454SOL     OW  139   9.828   1.564   0.470  0.1575 -0.2194 -0.0673
30454SOL    HW1  140   9.881   1.506   0.525 -0.0680 -0.3978 -0.0340
30454SOL    HW2  141   9.807   1.511   0.392 -1.0334 -0.6112  0.4871
30455SOL     OW  142   7.338   2.375   4.028 -0.8084 -0.0024  0.1748
30455SOL    HW1  143   7.396   2.304   4.055 -1.3790 -0.1822  0.9651
30455SOL    HW2  144   7.360   2.448   4.086 -0.3187  0.4234 -0.5435
30456SOL     OW  145  12.320   2.715   7.499 -0.3978 -0.0910  0.2199
30456SOL    HW1  146  12.237   2.763   7.496 -0.1456  0.3645 -2.1871
30456SOL    HW2  147  12.381   2.771   7.452  1.4765 -0.1791  2.3948
30457SOL     OW  148   1.775   8.745   5.993  0.4747  0.1548 -0.2171
30457SOL    HW1  149   1.766   8.759   5.898  0.6748  1.2861 -0.0857
30457SOL    HW2  150   1.855   8.693   6.002 -0.3667 -1.2993 -0.7468
30458SOL     OW  151  11.559   4.580   1.776 -0.5955 -0.1953 -0.0247
30458SOL    HW1  152  11.530   4.492   1.803 -0.7360 -0.1184  0.0756
30458SOL    HW2  153  11.596   4.618   1.856  0.2247 -0.4710 -0.2635
30459SOL     OW  154   0.652  10.059   2.766  0.0941  0.0550 -0.6046
30459SOL    HW1  155   0.559  10.048   2.785  0.1336 -0.9534 -0.9621
30459SOL    HW2  156   0.654  10.123   2.695 -0.2691  0.7363 -0.0187
30460SOL     OW  157   0.104   7.390   7.672 -0.3842 -0.0128  0.5080
30460SOL    HW1  158   0.107   7.377   7.577 -0.8630  1.6030  0.2336
30460SOL    HW2  159   0.192   7.421   7.694 -0.4857  0.3023  0.4717
30461SOL     OW  160  12.040   6.993  10.383 -0.8526 -0.1092 -0.6019
30461SOL    HW1  161  12.120   6.940  10.389  1.5784  3.3389  0.9061
30461SOL    HW2  162  12.071   7.082  10.366 -4.3144  1.6001  0.9227
30462SOL     OW  163  12.263  10.992   8.634 -0.1679  0.6480  0.0141
30462SOL    HW1  164  12.204  10.924   8.669 -0.1034  0.4244 -0.3135
30462SOL    HW2  165  12.313  10.948   8.566  1.3194  0.4821  1.1594
30463SOL     OW  166   2.346  10.507   1.392  0.4548 -0.5067  0.6875
30463SOL    HW1  167   2.252  10.526   1.388  0.7607  1.2845  1.1578
30463SOL    HW2  168   2.356  10.425   1.344 -0.7288  1.5018 -3.4929
30464SOL     OW  169   8.474   7.604   4.144  0.6665  0.5456 -0.4809
30464SOL    HW1  170   8.415   7.579   4.215  0.5004 -2.0809 -1.4110
30464SOL    HW2  171   8.423   7.665   4.091  0.0217  0.8908  0.5184
30465SOL     OW  172  10.741   3.417   9.854 -0.7528  0.5828 -0.3984
30465SOL    HW1  173  10.752   3.328   9.821  0.0257  0.3092  0.5410
30465SOL    HW2  174  10.755   3.473   9.778 -0.5124 -0.0780 -0.8449
30466SOL     OW  175   9.267   1.772   0.729  0.0874  0.0216  0.0022
30466SOL    HW1  176   9.312   1.692   0.703 -0.2522 -0.1903  0.0610
30466SOL    HW2  177   9.185   1.742   0.768 -0.3973  0.4237 -0.6831
30467SOL     OW  178   5.920   8.020   4.378  0.7988  0.1935 -0.3307
30467SOL    HW1  179   5.964   8.095   4.338  1.0953  1.4020  2.1298
30467SOL    HW2  180   5.835   8.052   4.405 -0.3727 -1.2614 -2.0489
30468SOL     OW  181   9.118   9.701   1.448  0.0265 -0.3983 -0.3758
30468SOL    HW1  182   9.211   9.719   1.464  0.6378 -1.3329 -2.4601
30468SOL    HW2  183   9.118   9.636   1.377 -2.2254 -0.6473 -0.2245
30469SOL     OW  184   8.332   8.419   4.871 -0.0525  0.0858 -0.2646
30469SOL    HW1  185   8.267   8.351   4.852  0.3221 -0.7972  1.4341
30469SOL    HW2  186   8.299   8.462   4.950  0.4699  0.9137 -0.4832
30470SOL     OW  187   0.687   5.636   7.797  0.2521  0.6611 -0.7941
30470SOL    HW1  188   0.635   5.556   7.801  0.4677  0.5073 -1.0386
30470SOL    HW2  189   0.664   5.684   7.877  0.7624 -0.0349 -0.2198
30471SOL     OW  190   6.618   6.910   0.824  0.2074 -0.7933 -0.7043
30471SOL    HW1  191   6.592   6.888   0.913  0.8810  1.9158  0.2671
30471SOL    HW2  192   6.711   6.933   0.831  0.7989 -2.3762 -2.5224
30472SOL     OW  193   2.296   0.439  10.110  0.0603 -0.4089  0.2284
30472SOL    HW1  194   2.240   0.478  10.177  0.3026  0.6069 -0.1487
30472SOL    HW2  195   2.373   0.407  10.158  0.0352 -0.0759  0.4912
30473SOL     OW  196   1.577   4.494   7.104 -0.6307 -0.1197 -0.1887
30473SOL    HW1  197   1.495   4.499   7.152 -0.1088 -0.4401  0.7664
30473SOL    HW2  198   1.556   4.444   7.025 -1.9099  1.9643 -1.2294
30474SOL     OW  199   0.132   8.376  12.025  0.0931  0.0844  0.1917
30474SOL    HW1  200   0.097   8.289  12.005 -1.1996  0.6824 -0.1807
30474SOL    HW2  201   0.058   8.435  12.016  1.1826  1.3890 -0.5894
30475SOL     OW  202   5.376   6.364  11.816  0.8299  0.2939 -0.1426
30475SOL    HW1  203   5.293   6.395  11.851  0.0592 -1.1833 -0.5809
30475SOL    HW2  204   5.426   6.444  11.798 -1.3510  1.3455 -2.0068
30476SOL     OW  205   2.400   9.164   6.394  0.5082  0.2102  0.2865
30476SOL    HW1  206   2.322   9.181   6.342 -1.6619 -1.7393  2.6654
30476SOL    HW2  207   2.405   9.238   6.455  1.9715  1.5311 -1.3403
30477SOL     OW  208  10.289   3.202  12.303 -0.3774 -0.2615  0.1174
30477SOL    HW1  209  10.384   3.206  12.315 -0.1399  1.1489 -1.7357
30477SOL    HW2  210  10.261   3.293  12.301 -1.9587 -0.6610  1.6308
30478SOL     OW  211  11.745   6.771  12.382  0.1435  0.5159  0.9078
30478SOL    HW1  212  11.784   6.780  12.469  2.4577  0.2502 -0.0538
30478SOL    HW2  213  11.813   6.799  12.321 -1.8686  2.0415 -0.8154
30479SOL     OW  214   6.778  10.527   4.678  0.3207 -0.0744  0.1949
30479SOL    HW1  215   6.801  10.561   4.592  1.1552 -0.4179  0.2730
30479SOL    HW2  216   6.845  10.461   4.697  0.1111 -0.0531  1.0772
30480SOL     OW  217   6.558  11.047   7.980 -0.0272 -0.1777 -0.2766
30480SOL    HW1  218   6.523  11.006   8.059 -2.5599 -1.2900 -1.8476
30480SOL    HW2  219   6.627  10.988   7.951 -0.5836 -0.9414 -0.0721
30481SOL     OW  220   1.261   4.128   7.327 -0.2279 -0.1456 -0.2529
30481SOL    HW1  221   1.307   4.184   7.265  2.0768 -0.1533  1.3404
30481SOL    HW2  222   1.304   4.043   7.318 -0.6061 -0.4269  0.5803
30482SOL     OW  223   4.657   8.832  10.568 -0.1962 -0.1030 -0.0127
30482SOL    HW1  224   4.635   8.773  10.641  1.5458 -1.1107 -0.2407
30482SOL    HW2  225   4.704   8.904  10.608 -0.5502  0.1088  0.0260
30483SOL     OW  226   5.375   3.310   3.496 -0.0966  0.2346 -0.3977
30483SOL    HW1  227   5.321   3.232   3.514 -0.1146  0.3138 -0.0997
30483SOL    HW2  228   5.333   3.351   3.420  0.6350 -0.7133 -1.3442
30484SOL     OW  229  12.338  11.519   5.317  0.2953  0.6225  0.0266
30484SOL    HW1  230  12.260  11.572   5.302 -0.0195  0.2509  0.3120
30484SOL    HW2  231  12.364  11.538   5.406 -1.3373 -1.5738  1.0884
30485SOL     OW  232   3.481  12.033   8.541  0.2136  0.0416  0.5829
30485SOL    HW1  233   3.480  12.107   8.479  0.1313  1.2056  1.9122
30485SOL    HW2  234   3.388  12.010   8.552  0.3535 -2.2181 -1.9810
30486SOL     OW  235  10.035   4.886   9.014  0.0804  0.4142  0.2479
30486SOL    HW1  236  10.054   4.815   8.952  1.2886  1.9037 -1.1905
30486SOL    HW2  237   9.940   4.898   9.007 -0.0295 -0.5223 -0.0778
30487SOL     OW  238  12.229  12.553  10.936  0.1730  0.4204 -0.6545
30487SOL    HW1  239  12.316  12.572  10.901  0.9011  2.4768  1.9565
30487SOL    HW2  240  12.245  12.498  11.013 -0.8454  0.6860 -0.2349
30488SOL     OW  241   2.067   3.201   2.625  0.1342  0.0753 -0.2055
30488SOL    HW1  242   2.055   3.106   2.622 -0.3532  0.1480 -0.6004
30488SOL    HW2  243   1.981   3.237   2.604  0.6136  0.6053 -1.2883
30489SOL     OW  244   5.449  11.927   6.871 -0.1911  0.0020 -0.0520
30489SOL    HW1  245   5.426  11.954   6.960 -0.8692  0.3743 -0.3343
30489SOL    HW2  246   5.444  12.007   6.819 -0.7565 -0.3811 -0.6040
30490SOL     OW  247   9.066   4.964   1.445  0.4990 -0.1865 -0.1255
30490SOL    HW1  248   8.986   4.971   1.497 -1.5700 -1.0463 -2.9603
30490SOL    HW2  249   9.075   5.049   1.403  0.9116 -0.1999 -0.0729
30491SOL     OW  250  10.775   2.926   7.966  0.5231  0.4712  0.4912
30491SOL    HW1  251  10.821   2.869   7.905 -0.5669  0.6728 -0.5670
30491SOL    HW2  252  10.686   2.891   7.970  0.2628  1.1516  1.0605
30492SOL     OW  253  11.435   9.873  11.591  0.0819 -0.1924 -0.5301
30492SOL    HW1  254  11.449   9.779  11.581  1.1584 -0.0183 -0.8659
30492SOL    HW2  255  11.524   9.910  11.589 -0.3639  0.8898 -1.0545
30493SOL     OW  256   7.984   5.791   6.152 -0.0233  0.1806 -0.7452
30493SOL    HW1  257   8.047   5.756   6.215  0.1655  0.3247 -0.8541
30493SOL    HW2  258   8.029   5.785   6.068 -0.1477  0.3042 -0.8194
30494SOL     OW  259   6.290   4.701   6.461  0.3430  0.4227  0.3468
30494SOL    HW1  260   6.286   4.661   6.548 -0.9813 -1.0665 -0.3447
30494SOL    HW2  261   6.218   4.764   6.460 -0.2723 -0.2787  0.0068
30495SOL     OW  262  12.377   1.194   9.045  0.3361  0.4919  0.7832
30495SOL    HW1  263  12.360   1.110   9.088  0.4533  0.2648  0.3859
30495SOL    HW2  264  12.449   1.232   9.096  3.2412 -1.5097 -1.4530
30496SOL     OW  265   2.754   6.750   1.013 -0.2286 -0.0671 -0.8865
30496SOL    HW1  266   2.785   6.736   0.924  0.3717  1.4491 -0.9333
30496SOL    HW2  267   2.827   6.722   1.069  0.9487  2.5303 -0.9806
30497SOL     OW  268  12.156   1.505   4.277  0.0094  0.6894 -0.4335
30497SOL    HW1  269  12.178   1.447   4.351 -1.8638  0.6565  0.1505
30497SOL    HW2  270  12.099   1.452   4.221 -2.7220  2.2176  0.6973
30498SOL     OW  271   4.849   4.769   0.835  0.2175 -0.7073  0.2783
30498SOL    HW1  272   4.892   4.730   0.759 -0.6232 -0.0706 -0.5475
30498SOL    HW2  273   4.917   4.773   0.902  1.0494 -1.0256 -0.5297
30499SOL     OW  274   6.356   4.385   9.113 -0.4037 -0.1530  0.5893
30499SOL    HW1  275   6.313   4.402   9.196  1.8753  2.8047  1.3670
30499SOL    HW2  276   6.421   4.318   9.133 -0.0760  0.3241  1.1825
30500SOL     OW  277   7.235   9.729   5.818 -1.0106 -0.0743 -0.0305
30500SOL    HW1  278   7.238   9.747   5.912 -0.4802 -0.2456 -0.0073
30500SOL    HW2  279   7.270   9.808   5.777  0.0831 -0.5192  0.0009
30501SOL     OW  280   6.261   3.892  10.037 -0.4701  0.0187 -0.0847
30501SOL    HW1  281   6.319   3.955  10.079  1.5172  0.6027 -3.3525
30501SOL    HW2  282   6.181   3.941  10.017 -0.0871  0.6704 -0.0161
30502SOL     OW  283  12.468   7.363  11.055  0.2785  0.0424  0.6707
30502SOL    HW1  284  12.394   7.313  11.089  0.3955 -0.7945 -0.2521
30502SOL    HW2  285  12.476   7.334  10.964  0.7553  1.2846  0.3042
30503SOL     OW  286   4.070   2.373   1.647 -0.3450  0.0668 -0.3064
30503SOL    HW1  287   3.998   2.356   1.587  0.9494 -3.3364 -1.1055
30503SOL    HW2  288   4.066   2.303   1.712  1.3780  0.6399  0.4937
30504SOL     OW  289   8.178   5.449   9.437 -0.6885 -0.1763  0.5933
30504SOL    HW1  290   8.259   5.451   9.487 -0.4368  0.6492  0.1670
30504SOL    HW2  291   8.182   5.367   9.388 -0.0873 -0.1147  0.5338
30505SOL     OW  292  12.583   2.671   4.424  1.0923 -0.6010 -0.1944
30505SOL    HW1  293  12.654   2.735   4.427  0.7065 -0.0760 -1.4443
30505SOL    HW2  294  12.508   2.717   4.463  0.4939  0.2055 -2.1428
30506SOL     OW  295   6.125  11.431   2.937  0.1915  0.0150 -0.5670
30506SOL    HW1  296   6.104  11.460   2.848 -1.7616 -1.1371 -0.5636
30506SOL    HW2  297   6.219  11.444   2.946  0.1106  2.0693 -2.0672
30507SOL     OW  298  10.753   7.647   3.980  0.2260 -0.2783  0.3062
30507SOL    HW1  299  10.804   7.728   3.986 -1.2543  0.6999  0.1548
30507SOL    HW2  300  10.736   7.622   4.070 -0.5788  0.4342  0.3686
30508SOL     OW  301   7.677   4.561  10.870  0.1217  0.2224 -0.4488
30508SOL    HW1  302   7.713   4.632  10.924 -0.5902  0.1857  0.0884
30508SOL    HW2  303   7.753   4.507  10.847  0.6475  1.0842 -0.7575
30509SOL     OW  304   3.646   7.733  11.911 -0.0405 -0.0929  0.0874
30509SOL    HW1  305   3.712   7.802  11.913 -0.9484  0.8379 -1.0322
30509SOL    HW2  306   3.652   7.697  11.823  1.1881 -2.2748  0.9617
30510SOL     OW  307   2.401   1.669   8.088 -0.2904 -0.5403  0.1468
30510SOL    HW1  308   2.417   1.623   8.171 -1.7479  0.4163  1.0131
30510SOL    HW2  309   2.311   1.644   8.064 -0.8330  1.1734  0.2381
30511SOL     OW  310   8.263  12.210  10.084 -0.1136 -0.7629 -0.2014
30511SOL    HW1  311   8.176  12.225  10.121  1.1930 -1.7477  3.7975
30511SOL    HW2  312   8.303  12.297  10.080 -0.7098 -0.4995 -0.5167
30512SOL     OW  313  10.561   6.474   1.285 -0.0530  0.3773  0.2247
30512SOL    HW1  314  10.623   6.496   1.355 -0.3754  0.4651  0.4869
30512SOL    HW2  315  10.565   6.378   1.279 -0.3422  0.3301  0.6699
30513SOL     OW  316   9.952   8.555  11.921  0.4306  0.0297 -0.0154
30513SOL    HW1  317   9.864   8.564  11.883  0.3404 -0.4465  0.0643
30513SOL    HW2  318   9.965   8.460  11.926  1.0256  0.0979 -0.2024
30514SOL     OW  319   5.204  10.124   7.581  0.2910  0.0564 -0.2358
30514SOL    HW1  320   5.257  10.106   7.503  0.1934  1.7287 -0.7221
30514SOL    HW2  321   5.113  10.117   7.550  0.2435 -0.1893 -0.0439
30515SOL     OW  322   9.185   4.509   1.397 -0.6955  0.8308 -0.5256
30515SOL    HW1  323   9.180   4.603   1.382  0.9585  0.8944 -0.9098
30515SOL    HW2  324   9.095   4.482   1.413 -1.4190  2.2125 -2.0155
30516SOL     OW  325  12.387  12.244  10.318 -0.2084  0.0138  0.6454
30516SOL    HW1  326  12.434  12.326  10.333 -1.8466  1.1745 -0.2536
30516SOL    HW2  327  12.318  12.243  10.385  0.2858 -1.0456  1.1607
30517SOL     OW  328   2.335   7.962   2.042  0.7265  0.0368  0.3695
30517SOL    HW1  329   2.383   7.989   2.121  1.4938  2.1287 -0.7200
30517SOL    HW2  330   2.265   8.027   2.033  0.6833 -0.1320 -0.6717
30518SOL     OW  331   6.197   0.709   6.498  0.1674 -0.8500  0.0133
30518SOL    HW1  332   6.168   0.618   6.490  0.2315 -0.8484 -0.2468
30518SOL    HW2  333   6.221   0.734   6.409  1.4786 -1.0206  0.2999
30519SOL     OW  334   6.670  10.401   3.214 -0.1235  0.1900 -0.0722
30519SOL    HW1  335   6.676  10.365   3.126  1.1575  0.9525 -0.3230
30519SOL    HW2  336   6.652  10.494   3.201  2.7349  0.8864  0.3392
30520SOL     OW  337   0.925   3.214   1.424 -0.1365 -0.0180  0.1741
30520SOL    HW1  338   0.960   3.302   1.413 -0.9518  0.3413  0.4273
30520SOL    HW2  339   0.962   3.183   1.507 -0.3075  0.3107  0.3744
30521SOL     OW  340   4.616   1.311  11.474 -0.0348  0.5040 -0.2874
30521SOL    HW1  341   4.540   1.256  11.453 -0.2384  0.2206  1.0536
30521SOL    HW2  342   4.629   1.366  11.397 -1.8162  0.7862 -0.4185
30522SOL     OW  343   7.611   3.946   0.874 -0.2720  1.2519 -0.1095
30522SOL    HW1  344   7.596   4.028   0.827  1.1305  1.1520 -0.7738
30522SOL    HW2  345   7.648   3.887   0.809 -0.3690  0.3889  0.5958
30523SOL     OW  346   0.063   8.901   5.413  0.1709 -0.1989 -0.0528
30523SOL    HW1  347   0.122   8.974   5.432 -0.4483 -0.0965  1.6368
30523SOL    HW2  348   0.084   8.835   5.479 -2.0279  0.1189  1.0745
30524SOL     OW  349   2.060   5.344   3.218 -0.1089  0.2386 -0.3267
30524SOL    HW1  350   2.016   5.306   3.142  0.2445 -0.4352 -0.2030
30524SOL    HW2  351   2.147   5.304   3.218  0.3911  1.2827 -0.3640
30525SOL     OW  352   3.584  11.630   6.166  0.0970 -0.3859 -0.2657
30525SOL    HW1  353   3.616  11.650   6.254 -0.0113 -2.4791  0.2964
30525SOL    HW2  354   3.511  11.691   6.153  0.8085  0.6914  0.6256
30526SOL     OW  355   1.783   2.170   3.728  0.1852 -0.1267 -0.8320
30526SOL    HW1  356   1.869   2.149   3.765 -0.2974  1.7574  1.6414
30526SOL    HW2  357   1.725   2.169   3.804 -1.5587  0.8054 -2.1117
30527SOL     OW  358  10.968  10.745   2.355  0.2222  0.1228 -0.3873
30527SOL    HW1  359  10.946  10.654   2.376  1.3219  0.2527  1.5904
30527SOL    HW2  360  10.919  10.764   2.275 -0.8716 -1.8637 -0.2482
30528SOL     OW  361   5.778  10.348   5.079 -0.5784 -0.1211 -0.2863
30528SOL    HW1  362   5.828  10.283   5.128 -0.7586  0.5642  0.8533
30528SOL    HW2  363   5.713  10.380   5.141  0.5318  2.3176 -0.2477
30529SOL     OW  364  11.087   1.344  10.190  0.5843  0.0325 -1.2156
30529SOL    HW1  365  11.078   1.405  10.263  0.8125 -0.7701 -0.5097
30529SOL    HW2  366  11.163   1.291  10.212 -2.1902 -3.6732  0.5754
30530SOL     OW  367   0.015   7.992   7.122  0.0598 -0.3103 -0.1331
30530SOL    HW1  368   0.045   8.077   7.154 -0.8861  0.0193 -0.0762
30530SOL    HW2  369   0.089   7.933   7.136 -0.0979 -0.0530  2.1325
30531SOL     OW  370   2.931   5.161   2.776  0.0051  0.2662  0.2249
30531SOL    HW1  371   3.018   5.194   2.798 -0.6168  1.2290  1.3201
30531SOL    HW2  372   2.901   5.116   2.855 -0.9553  0.9669  0.2796
30532SOL     OW  373   2.398   9.083   2.327 -0.1793  0.7801 -0.6255
30532SOL    HW1  374   2.398   8.999   2.372 -0.6866  1.0751 -0.0702
30532SOL    HW2  375   2.342   9.139   2.380  1.3672  1.9308 -0.1418
30533SOL     OW  376   9.989  10.622  11.402 -0.4480 -0.7302 -0.3058
30533SOL    HW1  377   9.942  10.578  11.331 -1.6946  0.6789 -0.3954
30533SOL    HW2  378  10.071  10.652  11.362 -0.3310 -1.5039 -0.6604
30534SOL     OW  379   6.653  10.573  11.097  0.2906 -0.2979  1.1270
30534SOL    HW1  380   6.616  10.657  11.126 -0.2015  0.1102 -0.5566
30534SOL    HW2  381   6.605  10.507  11.147 -1.5453  0.3001  0.2599
30535SOL     OW  382   7.578   7.552   4.504  0.3292  0.4711  0.2982
30535SOL    HW1  383   7.577   7.556   4.408 -1.5899 -1.7073  0.1522
30535SOL    HW2  384   7.487   7.537   4.529  1.1225 -1.7693  2.2671
30536SOL     OW  385  12.331  10.508  10.310 -0.1079  0.3920  0.4525
30536SOL    HW1  386  12.420  10.527  10.339  0.9553 -2.7701 -0.2316
30536SOL    HW2  387  12.277  10.517  10.389  1.3001 -0.1132  1.5280
30537SOL     OW  388   0.269  10.813   3.838 -0.0107 -0.1624 -0.5414
30537SOL    HW1  389   0.257  10.719   3.826  2.0887 -0.3567 -1.3438
30537SOL    HW2  390   0.293  10.822   3.930 -1.0664 -0.2853 -0.2360
30538SOL     OW  391   3.840   2.192   1.773  0.4029 -0.1842 -0.6060
30538SOL    HW1  392   3.842   2.186   1.678 -1.0845 -1.6994 -0.5826
30538SOL    HW2  393   3.759   2.238   1.793 -0.7612 -2.3456 -0.0534
30539SOL     OW  394   0.629   5.110   7.197  0.4184 -0.1482  0.3771
30539SOL    HW1  395   0.629   5.050   7.271 -1.0362 -1.5843 -0.7073
30539SOL    HW2  396   0.536   5.129   7.181  0.6985  0.1437 -1.0570
30540SOL     OW  397   3.646   0.678   3.872 -0.0208 -0.2190 -0.1497
30540SOL    HW1  398   3.722   0.693   3.927 -0.7779 -0.0212  0.8698
30540SOL    HW2  399   3.669   0.601   3.819  0.1846 -1.3080  1.4627
30541SOL     OW  400   1.545   7.560   0.165 -0.5133 -0.3825  0.0285
30541SOL    HW1  401   1.514   7.488   0.221 -1.4190 -0.6552 -0.7838
30541SOL    HW2  402   1.485   7.632   0.183  0.4079  0.1859  0.8565
30542SOL     OW  403   8.203   5.916   4.188  0.1761 -0.2681  0.2334
30542SOL    HW1  404   8.277   5.945   4.134 -0.0887 -2.1721 -1.2642
30542SOL    HW2  405   8.227   5.829   4.217 -0.2925  0.1980  2.1628
30543SOL     OW  406   1.709   8.905  10.335  0.3373 -0.1317 -0.2403
30543SOL    HW1  407   1.691   8.999  10.333  2.1761  0.2419 -1.5502
30543SOL    HW2  408   1.721   8.881  10.243  0.4296 -1.5510  0.1169
30544SOL     OW  409   3.813   9.168   5.060  0.7365 -0.0203  0.3254
30544SOL    HW1  410   3.730   9.125   5.040 -0.8561  2.1475  1.7981
30544SOL    HW2  411   3.826   9.230   4.988  0.3617  0.5586  0.7446
30545SOL     OW  412   6.997   7.978   8.361 -0.4775 -0.1287  0.4150
30545SOL    HW1  413   7.086   8.014   8.359 -1.4283  2.3588 -1.0618
30545SOL    HW2  414   7.003   7.896   8.311  0.7362  0.7091 -0.8845
30546SOL     OW  415   9.309  10.858  11.471  0.0455  0.0337 -0.2851
30546SOL    HW1  416   9.216  10.873  11.488 -0.0544 -1.8061  1.0391
30546SOL    HW2  417   9.329  10.915  11.397 -2.3418 -0.2117 -1.1965
30547SOL     OW  418   1.602   4.582   2.655  0.2606  0.5679  0.3729
30547SOL    HW1  419   1.511   4.610   2.648  0.1358  0.0213 -0.3166
30547SOL    HW2  420   1.626   4.600   2.746 -0.3334  1.3015  0.3943
30548SOL     OW  421   1.130   6.165   4.469 -0.0898  0.0536 -0.0712
30548SOL    HW1  422   1.185   6.208   4.404  1.5212 -1.5516  0.1757
30548SOL    HW2  423   1.191   6.121   4.528 -1.6080 -1.9620  0.1266
30549SOL     OW  424   9.265   5.458  10.920  0.4244  0.0408 -0.1259
30549SOL    HW1  425   9.172   5.476  10.903  0.4598  0.1027 -0.2544
30549SOL    HW2  426   9.297   5.537  10.963  0.6591  0.4245 -0.9870
30550SOL     OW  427  11.439   0.074   4.081 -0.1844  0.2002  0.7728
30550SOL    HW1  428  11.464   0.166   4.076  0.0246  0.1172  0.2851
30550SOL    HW2  429  11.347   0.073   4.054  0.1111  0.1334 -0.2648
30551SOL     OW  430   5.663  10.858   2.352  0.5088 -0.2835 -0.3257
30551SOL    HW1  431   5.708  10.883   2.434 -0.2002 -1.2588  0.3869
30551SOL    HW2  432   5.574  10.891   2.363  0.7978  0.9124 -1.3801
30552SOL     OW  433   2.185   1.801  10.366 -0.1229 -0.5132 -0.2570
30552SOL    HW1  434   2.182   1.706  10.363  0.1797 -1.0308  5.5848
30552SOL    HW2  435   2.095   1.828  10.347 -0.2792 -1.8526 -1.6987
30553SOL     OW  436   6.852   3.708   2.410  0.0251 -0.4743 -0.3302
30553SOL    HW1  437   6.796   3.779   2.441 -0.8501 -0.7969 -1.1055
30553SOL    HW2  438   6.795   3.657   2.351  0.5575 -1.9568  0.3951
30554SOL     OW  439   6.114   2.087   0.181  0.5558  0.0905  0.0987
30554SOL    HW1  440   6.181   2.103   0.248  0.2581 -0.6194  0.5790
30554SOL    HW2  441   6.148   2.012   0.132 -0.3718 -0.9989  1.0461
30555SOL     OW  442   7.572   6.573  11.168  0.3251 -0.5330 -0.5346
30555SOL    HW1  443   7.494   6.583  11.222  2.7958  1.5180  3.1134
30555SOL    HW2  444   7.620   6.501  11.207  1.4636 -0.0453 -0.9689
30556SOL     OW  445   5.151   3.374  11.203  0.2549 -0.0813  0.1394
30556SOL    HW1  446   5.093   3.351  11.276  0.3457 -1.2415 -0.1368
30556SOL    HW2  447   5.236   3.336  11.227 -0.2310 -2.3807 -1.5122
30557SOL     OW  448   4.621   9.007   4.752 -0.6450  0.3221 -0.2652
30557SOL    HW1  449   4.527   9.004   4.735 -0.0663 -1.2561 -4.1670
30557SOL    HW2  450   4.656   9.066   4.686  1.1129  1.2773  1.4286
30558SOL     OW  451   6.410  12.519   4.681  0.2400  0.1739 -0.2715
30558SOL    HW1  452   6.381  12.606   4.708 -0.6499 -0.9419  2.7871
30558SOL    HW2  453   6.355  12.498   4.606 -1.2686  1.3017  0.4577
30559SOL     OW  454   6.699   0.395   4.719 -0.0081 -0.6754 -0.0444
30559SOL    HW1  455   6.742   0.426   4.639 -1.9024  1.5908 -0.2719
30559SOL    HW2  456   6.694   0.300   4.708  2.4788 -0.7511 -1.1800
30560SOL     OW  457   0.979   0.824   4.640  0.1184 -0.5881  0.4766
30560SOL    HW1  458   0.976   0.837   4.545 -1.7852 -1.8566  0.2920
30560SOL    HW2  459   1.052   0.879   4.670  1.2140 -0.6894 -1.7821
30561SOL     OW  460  11.919   5.849   8.631  0.0923  0.5874  0.6443
30561SOL    HW1  461  12.002   5.897   8.635  0.6039 -0.2117  0.1065
30561SOL    HW2  462  11.944   5.758   8.646 -0.4174  0.0822 -1.3346
30562SOL     OW  463   8.722  11.992   1.000  0.6525 -0.0764 -0.5972
30562SOL    HW1  464   8.716  12.082   0.966 -0.1905 -0.5748 -1.8591
30562SOL    HW2  465   8.723  11.938   0.921 -1.0620 -1.2945  0.1740
30563SOL     OW  466   0.975  12.189   0.638  0.5580  0.1934 -0.1977
30563SOL    HW1  467   1.006  12.256   0.576 -0.6621 -0.8966 -2.0830
30563SOL    HW2  468   0.885  12.213   0.656  0.8298  0.3505  1.0038
30564SOL     OW  469   6.857   1.886   6.162  0.3734  0.3796  0.2376
30564SOL    HW1  470   6.865   1.792   6.143 -1.9918 -0.2002  1.7005
30564SOL    HW2  471   6.880   1.894   6.254 -1.0160  0.9310  0.5648
30565SOL     OW  472   5.485   0.820   0.201 -0.6509 -0.0904 -0.1667
30565SOL    HW1  473   5.543   0.777   0.138  0.8636  0.2620  0.9444
30565SOL    HW2  474   5.502   0.914   0.190  0.0602 -0.0492  1.1462
30566SOL     OW  475   6.270   9.928   6.498 -0.6091  0.1389  0.4732
30566SOL    HW1  476   6.278  10.022   6.514 -0.9778  0.3910 -0.7444
30566SOL    HW2  477   6.176   9.910   6.509 -0.9011  0.3464 -1.3983
30567SOL     OW  478   0.225   6.220   3.585 -0.1001  0.1877 -0.1770
30567SOL    HW1  479   0.269   6.135   3.576 -0.8874 -0.1901 -0.4578
30567SOL    HW2  480   0.242   6.245   3.676  1.3340  0.4097 -0.4743
30568SOL     OW  481   8.686   4.444   7.986 -0.4394 -0.3841  0.2058
30568SOL    HW1  482   8.670   4.434   8.079 -0.2124  0.8128  0.4016
30568SOL    HW2  483   8.744   4.372   7.963  0.6455  0.1064  1.3077
30569SOL     OW  484   1.234  10.173  10.732 -0.2254 -0.0635 -0.1952
30569SOL    HW1  485   1.155  10.203  10.687 -0.4285 -1.7664 -1.0557
30569SOL    HW2  486   1.234  10.078  10.721  2.5720 -0.0397 -1.3348
30570SOL     OW  487   9.192   6.004   3.231 -0.0440  0.4930  0.6832
30570SOL    HW1  488   9.140   6.084   3.221 -0.1671  0.7543  2.9393
30570SOL    HW2  489   9.282   6.034   3.239  0.4461  0.0980 -2.2491
30571SOL     OW  490   6.450   2.919   6.192 -0.0250  0.5452  0.3148
30571SOL    HW1  491   6.515   2.869   6.142 -0.9747 -2.2721  1.6722
30571SOL    HW2  492   6.496   2.945   6.272 -0.3283 -0.8332  0.9573
30572SOL     OW  493   8.644   6.108   6.046  0.2444 -0.2390  0.4992
30572SOL    HW1  494   8.617   6.062   6.126 -0.0052  0.6112  0.9126
30572SOL    HW2  495   8.564   6.149   6.014 -0.1166 -2.1741 -1.3089
30573SOL     OW  496   4.476   1.329   4.001  0.0938  0.1910  0.4576
30573SOL    HW1  497   4.535   1.356   3.930  2.0832  0.2609  2.0397
30573SOL    HW2  498   4.526   1.264   4.050 -2.0061 -1.3601  0.6864
30574SOL     OW  499   5.267   5.940  10.197 -0.5377 -0.1411 -0.0524
30574SOL    HW1  500   5.220   5.887  10.261  0.3337 -0.1012  0.6325
30574SOL    HW2  501   5.267   5.887  10.117 -0.4905 -0.7697  0.3594
30575SOL     OW  502   3.052  11.901   4.696  0.1226 -0.0073  0.7005
30575SOL    HW1  503   3.119  11.865   4.754 -0.6435 -0.5929  1.2461
30575SOL    HW2  504   3.070  11.995   4.695  2.4382 -0.3856 -1.1213
30576SOL     OW  505   5.799  11.978   4.840  0.1719  0.2745 -0.0367
30576SOL    HW1  506   5.801  11.904   4.780  1.3203  0.1982  0.0829
30576SOL    HW2  507   5.890  12.003   4.852 -0.2522  2.8922 -1.4979
30577SOL     OW  508   8.703   2.021   0.481 -0.9644 -0.0638  0.5666
30577SOL    HW1  509   8.771   2.042   0.544 -1.2010  0.9276  0.5092
30577SOL    HW2  510   8.745   2.030   0.396 -0.7706 -0.9455  0.5589
30578SOL     OW  511   4.077  10.574   8.500 -0.0882 -0.1093 -0.3570
30578SOL    HW1  512   4.008  10.640   8.511  1.9748  2.3213 -1.1851
30578SOL    HW2  513   4.135  10.587   8.575  1.7470  0.9016 -1.8734
30579SOL     OW  514   6.038   5.885   1.465 -0.2643  0.4481  0.4110
30579SOL    HW1  515   6.094   5.833   1.523  0.0255 -0.2795 -0.5040
30579SOL    HW2  516   6.099   5.934   1.411 -0.4548 -0.8699 -1.0726
30580SOL     OW  517   5.918   8.372   5.343  0.0493 -0.5444  0.2927
30580SOL    HW1  518   5.921   8.282   5.376 -0.0538 -1.2447 -1.5078
30580SOL    HW2  519   5.992   8.378   5.282  0.4564  0.8171  0.8666
30581SOL     OW  520  10.655   7.106  12.198 -0.2949 -0.6885  0.3933
30581SOL    HW1  521  10.561   7.096  12.212 -0.6560  1.6493 -0.0020
30581SOL    HW2  522  10.694   7.090  12.284 -1.6626  4.2237  2.2519
30582SOL     OW  523   5.023   8.444   3.716 -0.4385  0.0289 -0.0320
30582SOL    HW1  524   5.072   8.391   3.653 -1.0711 -0.5588 -0.0427
30582SOL    HW2  525   4.953   8.484   3.664 -0.6786 -0.0808  0.2037
30583SOL     OW  526   0.588   1.809   9.978  0.0117 -0.0002  0.0383
30583SOL    HW1  527   0.573   1.716   9.963  1.1830 -0.3846  1.0782
30583SOL    HW2  528   0.609   1.844   9.891  3.4717 -1.5148  0.0841
30584SOL     OW  529   4.825   7.457   4.207  0.1835 -0.0836 -0.0033
30584SOL    HW1  530   4.848   7.545   4.236  1.7187 -0.0795 -1.0739
30584SOL    HW2  531   4.828   7.403   4.286 -0.5345  0.7717  0.6163
30585SOL     OW  532  12.049   3.736   5.854 -0.2761 -0.2805  0.2469
30585SOL    HW1  533  12.142   3.754   5.846 -0.5132  0.5265 -1.0417
30585SOL    HW2  534  12.012   3.814   5.896 -0.5885  0.1100 -0.7268
30586SOL     OW  535  11.959   7.912   6.204  0.0019 -0.8414  0.4482
30586SOL    HW1  536  11.982   7.856   6.130  3.5868 -0.1480  0.8653
30586SOL    HW2  537  11.991   7.865   6.281  3.2468  1.5760  0.8028
30587SOL     OW  538  11.908   9.303  10.964 -0.0530  0.0986 -0.1354
30587SOL    HW1  539  11.885   9.388  10.926 -2.1402 -0.3464  0.0220
30587SOL    HW2  540  11.956   9.325  11.044  0.7888  1.0855 -0.8764
30588SOL     OW  541   5.926   9.786   8.668 -0.4456 -0.2147  0.0274
30588SOL    HW1  542   5.831   9.785   8.680 -0.7899 -0.1499 -2.2644
30588SOL    HW2  543   5.950   9.878   8.673 -0.3919 -0.2817  1.2083
30589SOL     OW  544   5.485   9.635   0.377  0.3570  0.5672 -0.5690
30589SOL    HW1  545   5.511   9.555   0.422  0.1680  0.9919  0.3393
30589SOL    HW2  546   5.560   9.693   0.386 -0.8368  1.8732  2.2504
30590SOL     OW  547   2.655   8.425   8.356 -0.2669 -0.1512 -0.3772
30590SOL    HW1  548   2.607   8.374   8.421 -0.3361  0.2235 -0.1309
30590SOL    HW2  549   2.613   8.511   8.357 -0.0161 -0.0238 -0.6361
30591SOL     OW  550   0.400   7.829   7.858  1.0731 -0.1940 -0.7105
30591SOL    HW1  551   0.359   7.744   7.876  2.4427 -0.4851  1.2388
30591SOL    HW2  552   0.329   7.893   7.870  1.1288 -0.6276  3.1568
30592SOL     OW  553   9.898   3.078  10.682  0.0826  0.0097  0.0162
30592SOL    HW1  554   9.978   3.119  10.649  0.8303 -0.8708  0.6918
30592SOL    HW2  555   9.897   3.099  10.776 -0.4106 -0.0829  0.0339
30593SOL     OW  556  12.132   2.259   9.464 -0.7294  0.0551 -0.0319
30593SOL    HW1  557  12.198   2.217   9.409 -1.8491 -0.7874 -0.7674
30593SOL    HW2  558  12.133   2.209   9.545  1.6434  1.9166  1.2287
30594SOL     OW  559   8.853   9.054  10.360 -0.1538  0.2281 -0.0959
30594SOL    HW1  560   8.859   9.143  10.393 -0.8243 -0.1327  1.0514
30594SOL    HW2  561   8.806   9.006  10.429  2.4333 -1.6075  0.5342
30595SOL     OW  562   2.078  12.260   8.965  0.3181 -0.9027  0.4829
30595SOL    HW1  563   2.052  12.253   9.057  1.0383 -1.5151  0.6521
30595SOL    HW2  564   1.995  12.265   8.918 -0.1173 -2.1090  1.0602
30596SOL     OW  565   8.599   6.409   9.039  0.1716  0.0508 -0.4802
30596SOL    HW1  566   8.619   6.376   8.952 -0.7874 -2.1242  0.0652
30596SOL    HW2  567   8.508   6.439   9.033 -0.4677 -1.6395  0.1288
30597SOL     OW  568   2.829   4.192  12.315 -0.2373  0.4119  0.3758
30597SOL    HW1  569   2.912   4.240  12.317 -0.6474  1.1377  0.2413
30597SOL    HW2  570   2.762   4.260  12.313 -0.8147 -0.1703 -0.4898
30598SOL     OW  571   7.067  10.659   9.983  0.3572 -0.2046  1.1812
30598SOL    HW1  572   7.010  10.621  10.050  0.9632 -0.6736  1.4500
30598SOL    HW2  573   7.136  10.703  10.034 -0.5460  1.6322  0.8867
30599SOL     OW  574  11.767   3.810   1.388  0.0717  0.3379  0.1662
30599SOL    HW1  575  11.776   3.807   1.292  0.0796  1.8490  0.0975
30599SOL    HW2  576  11.854   3.831   1.420  0.5446 -2.0708  0.6898
30600SOL     OW  577   8.864   2.270   2.871  0.1236 -0.7818 -0.1575
30600SOL    HW1  578   8.907   2.315   2.798 -1.2597 -0.0642 -0.5575
30600SOL    HW2  579   8.907   2.303   2.949  2.5447 -2.5139 -0.6167
30601SOL     OW  580   2.475   1.803   5.746  0.1344  0.2068  0.1078
30601SOL    HW1  581   2.557   1.812   5.795 -0.0965  1.4901  0.2957
30601SOL    HW2  582   2.419   1.873   5.780 -1.3601 -1.1695  0.5768
30602SOL     OW  583   0.790   8.601   5.974  0.2589 -0.0670  0.6743
30602SOL    HW1  584   0.761   8.550   5.899  1.1671  0.7221 -0.2512
30602SOL    HW2  585   0.730   8.676   5.977  1.3326  0.8940 -0.4617
30603SOL     OW  586   4.921  11.883   5.367  0.4861 -0.4221  0.1875
30603SOL    HW1  587   4.925  11.788   5.379  1.6363 -0.3686  0.3863
30603SOL    HW2  588   4.853  11.896   5.301 -0.5103 -1.2916  1.0006
30604SOL     OW  589   0.296   8.815   9.133  0.0948 -0.1152 -0.4396
30604SOL    HW1  590   0.309   8.807   9.038  0.8610 -0.7373 -0.2949
30604SOL    HW2  591   0.280   8.909   9.147  0.3495  0.0427 -1.1420
30605SOL     OW  592   4.572   2.061  10.190  0.6285  0.3688 -0.9338
30605SOL    HW1  593   4.509   2.123  10.153 -0.8896 -1.2034 -1.0773
30605SOL    HW2  594   4.519   1.988  10.220  2.0664  0.3424  1.8927
30606SOL     OW  595  10.720   4.873   8.551 -0.8263 -0.0566  0.0744
30606SOL    HW1  596  10.709   4.796   8.607 -1.2077 -0.0500  0.0133
30606SOL    HW2  597  10.780   4.845   8.482  0.2669  0.1617  0.9029
30607SOL     OW  598   9.388   3.518   1.900  0.1150  0.1111 -0.0296
30607SOL    HW1  599   9.329   3.590   1.924 -1.8000 -2.1139  2.6236
30607SOL    HW2  600   9.332   3.454   1.856  1.1763 -0.8263 -0.0711
30608SOL     OW  601   7.829  10.788  11.370  0.3700 -0.1901 -0.0123
30608SOL    HW1  602   7.780  10.826  11.298 -0.2857 -0.7785  0.1131
30608SOL    HW2  603   7.774  10.716  11.402  0.5198  0.2157  1.2393
30609SOL     OW  604  12.191   7.090   5.868 -0.4658  0.3423  0.1815
30609SOL    HW1  605  12.211   7.181   5.889  1.5445  0.9872 -3.6187
30609SOL    HW2  606  12.138   7.094   5.789  1.5112 -1.6836 -1.3965
30610SOL     OW  607   0.182   5.914   0.437  0.1587 -0.3608  0.1673
30610SOL    HW1  608   0.098   5.880   0.407 -0.1158  0.2775  0.1956
30610SOL    HW2  609   0.207   5.978   0.370  0.1833  0.1040  0.6100
30611SOL     OW  610   8.962   5.599   5.125 -0.3920 -0.2040 -0.6964
30611SOL    HW1  611   9.040   5.617   5.074  1.2144 -0.7838  1.4286
30611SOL    HW2  612   8.965   5.504   5.142 -1.5317 -0.2357 -0.5381
30612SOL     OW  613   7.475  10.496  12.293  0.2045 -0.0960 -0.2429
30612SOL    HW1  614   7.385  10.466  12.308 -0.6774  2.0581 -0.8099
30612SOL    HW2  615   7.529  10.433  12.341 -1.6979 -0.6135  1.3998
30613SOL     OW  616  11.505   3.405   2.626  0.0300 -0.3008  0.7013
30613SOL    HW1  617  11.442   3.348   2.583  0.7064  0.5813 -1.5997
30613SOL    HW2  618  11.585   3.352   2.632  0.5646  0.2199 -1.1497
30614SOL     OW  619   6.929  11.825   2.027  0.2600  0.3286  0.1904
30614SOL    HW1  620   6.834  11.820   2.014  0.0559  1.1759  1.1944
30614SOL    HW2  621   6.963  11.858   1.944 -0.5459  1.8874  0.4520
30615SOL     OW  622   2.151   9.612   7.953  0.5077 -0.1962 -0.3569
30615SOL    HW1  623   2.238   9.640   7.980  0.7555 -0.4971 -0.8268
30615SOL    HW2  624   2.126   9.545   8.017  1.3662 -1.3869 -1.2014
30616SOL     OW  625   5.321   5.989   5.976  0.3720 -0.1621  0.1222
30616SOL    HW1  626   5.233   5.953   5.980  0.1256  0.5490  1.6440
30616SOL    HW2  627   5.367   5.953   6.051  1.0078  0.4217  0.0351
30617SOL     OW  628  10.206   3.988   0.388 -0.0489 -0.3807  0.2397
30617SOL    HW1  629  10.266   3.913   0.393  0.8803  0.4026  1.7849
30617SOL    HW2  630  10.200   4.020   0.478 -0.3247  1.4650 -0.3779
30618SOL     OW  631   5.737  11.645   0.712 -0.4330 -0.4928  0.2507
30618SOL    HW1  632   5.738  11.590   0.633 -2.3891 -0.2673  0.0066
30618SOL    HW2  633   5.666  11.609   0.765  0.4836 -0.2770  1.6672
30619SOL     OW  634  10.409   7.826  10.052 -0.1944 -0.3005 -0.0848
30619SOL    HW1  635  10.368   7.800  10.135 -1.8116  0.8097 -0.4849
30619SOL    HW2  636  10.494   7.860  10.077 -1.3520  1.7435  1.3917
30620SOL     OW  637   4.661   4.449   1.137  0.0039  0.4135 -0.3444
30620SOL    HW1  638   4.720   4.443   1.062 -0.5715 -0.5950 -0.7519
30620SOL    HW2  639   4.573   4.453   1.098 -0.2706  0.4512  0.2620
30621SOL     OW  640   3.388   1.499   1.006 -0.0348 -0.6639 -0.0138
30621SOL    HW1  641   3.343   1.420   0.977 -2.6642  1.0480 -0.9440
30621SOL    HW2  642   3.340   1.527   1.084  0.5082  0.2931 -0.0086
30622SOL     OW  643   4.007   3.949   7.042 -0.1435  0.3488 -0.5443
30622SOL    HW1  644   3.998   3.975   6.950 -0.7892  0.9693 -0.3187
30622SOL    HW2  645   4.101   3.951   7.059  0.0115 -0.2196 -1.3161
30623SOL     OW  646   6.078   0.708   1.301  0.1722 -0.0763  0.1026
30623SOL    HW1  647   6.023   0.689   1.225  0.8475 -2.4770  0.1429
30623SOL    HW2  648   6.140   0.773   1.270 -1.0924  0.8073 -0.6639
30624SOL     OW  649   4.960  10.574  11.770 -0.0403 -0.1970 -0.4799
30624SOL    HW1  650   5.033  10.563  11.710 -0.4046 -0.3394 -0.8993
30624SOL    HW2  651   4.963  10.497  11.826  0.3103 -0.0551 -0.3002
30625SOL     OW  652   2.080  12.577   6.156 -0.8836  0.6872 -0.9034
30625SOL    HW1  653   2.161  12.529   6.171 -0.2986  1.8347 -0.2653
30625SOL    HW2  654   2.097  12.630   6.078 -0.4938  1.9878  0.0326
30626SOL     OW  655   5.251   8.532   3.207 -0.5378  0.0162  0.1856
30626SOL    HW1  656   5.224   8.602   3.148 -1.6551 -0.3800  0.1978
30626SOL    HW2  657   5.303   8.576   3.274 -1.2767  0.8467  0.2326
30627SOL     OW  658  10.921   0.913  11.183  0.5502  0.1893  0.6280
30627SOL    HW1  659  10.998   0.948  11.228  0.5314  0.8453  0.1700
30627SOL    HW2  660  10.877   0.991  11.148 -0.2980 -0.1796  0.8442
30628SOL     OW  661  10.959   1.969   0.392 -0.3195 -0.0085  0.1171
30628SOL    HW1  662  11.017   1.915   0.339  1.9640  3.1708 -0.9258
30628SOL    HW2  663  10.956   1.925   0.477  1.9219 -1.4254 -0.4594
30629SOL     OW  664   7.474  10.486   6.504 -1.0573  0.0197  0.0174
30629SOL    HW1  665   7.381  10.467   6.514 -1.1080  0.0478 -0.3547
30629SOL    HW2  666   7.476  10.563   6.446 -0.8067  0.0462  0.0606
30630SOL     OW  667   0.696   8.618   6.710  0.0441  0.5065 -0.0285
30630SOL    HW1  668   0.746   8.673   6.650  0.9562  0.7184  0.8906
30630SOL    HW2  669   0.721   8.650   6.797  0.7257 -1.4587  0.5421
30631SOL     OW  670   7.815  10.414  11.723 -0.4910  0.4851  0.0282
30631SOL    HW1  671   7.840  10.389  11.812 -1.1969  0.2775  0.1707
30631SOL    HW2  672   7.873  10.362  11.667 -0.2227  0.4195  0.3624
30632SOL     OW  673   4.025   0.160   4.911  0.3254 -0.2237  0.1839
30632SOL    HW1  674   4.100   0.156   4.852 -0.3669 -2.0294 -0.6705
30632SOL    HW2  675   3.949   0.142   4.855 -0.5236 -0.4156  1.3467
30633SOL     OW  676  12.450   2.128   2.884  0.5039 -0.3145  0.3815
30633SOL    HW1  677  12.387   2.197   2.868 -0.8424 -1.4979  0.4052
30633SOL    HW2  678  12.535   2.172   2.882 -0.3030  1.2973  0.2945
30634SOL     OW  679   6.100   3.707  10.822 -1.0760 -0.6248 -0.0793
30634SOL    HW1  680   6.014   3.666  10.821 -2.4325  2.0188 -1.2653
30634SOL    HW2  681   6.125   3.708  10.915 -1.2743 -3.2739  0.0862
30635SOL     OW  682  11.945  12.280   1.718  0.2912 -0.5246  0.3947
30635SOL    HW1  683  11.866  12.245   1.677  0.2618  2.6012 -2.7320
30635SOL    HW2  684  11.919  12.299   1.808 -1.7389 -1.8050  0.1503
30636SOL     OW  685   1.417   3.271   7.717  0.3693 -0.4517  0.2400
30636SOL    HW1  686   1.508   3.272   7.748 -0.0261  3.2453  1.7572
30636SOL    HW2  687   1.368   3.232   7.789  0.5071 -0.3852  0.3718
30637SOL     OW  688   5.328   4.204  12.052  0.1248  0.4454 -0.1606
30637SOL    HW1  689   5.393   4.139  12.028  1.0009  1.2193  0.0616
30637SOL    HW2  690   5.348   4.225  12.143 -1.4561 -0.4769  0.4402
30638SOL     OW  691   0.736  11.480  12.073 -0.2618  0.1739 -0.1709
30638SOL    HW1  692   0.717  11.574  12.069  0.1729  0.2412 -0.6346
30638SOL    HW2  693   0.817  11.474  12.124 -1.3800 -0.1073  1.6873
30639SOL     OW  694   9.336   1.041   5.871  0.6108 -0.3230  0.0532
30639SOL    HW1  695   9.287   1.027   5.789 -0.3643  0.9123  0.3960
30639SOL    HW2  696   9.286   0.993   5.937 -0.3194  1.1029  0.4412
30640SOL     OW  697   0.203   0.182   6.211  0.6972 -0.4546  0.0382
30640SOL    HW1  698   0.194   0.278   6.207 -0.5465 -0.3886  2.5110
30640SOL    HW2  699   0.166   0.152   6.128  1.3233  1.2011 -0.9013
30641SOL     OW  700   7.587   6.988  11.186 -0.0493  0.2229 -0.0286
30641SOL    HW1  701   7.528   7.056  11.156 -1.4281 -0.9679 -0.1219
30641SOL    HW2  702   7.667   7.034  11.211 -0.2285  1.6434 -1.9168
30642SOL     OW  703   7.868   8.052   7.995 -0.2402  0.5876  0.2337
30642SOL    HW1  704   7.950   8.016   7.963 -0.4365  0.1881  0.1725
30642SOL    HW2  705   7.838   8.111   7.925  0.0825  0.8760  0.3361
30643SOL     OW  706   4.452   9.237   0.445  0.0869 -0.3416  0.3354
30643SOL    HW1  707   4.497   9.300   0.390  1.3349 -0.5757  1.0614
30643SOL    HW2  708   4.410   9.289   0.513  1.4526 -0.2891  1.1704
30644SOL     OW  709   3.169   6.316   8.348 -0.1605  0.0537 -0.4564
30644SOL    HW1  710   3.234   6.262   8.302  1.4332  1.0310  0.5532
30644SOL    HW2  711   3.147   6.385   8.286  0.9684  0.5958 -0.2908
30645SOL     OW  712  11.125  12.429   0.096 -0.3171  0.1439 -0.2488
30645SOL    HW1  713  11.109  12.354   0.040 -2.4274  1.8528 -2.1036
30645SOL    HW2  714  11.170  12.492   0.040  0.9396  0.5221  1.1159
30646SOL     OW  715   3.031   8.868   6.852 -0.4946  0.3059  0.0942
30646SOL    HW1  716   3.060   8.814   6.925 -0.0264 -0.6798 -0.7950
30646SOL    HW2  717   2.941   8.838   6.834 -0.7575  0.8319  0.5251
30647SOL     OW  718   6.332   5.610  10.550 -0.3843 -0.5604  0.0329
30647SOL    HW1  719   6.293   5.535  10.596  0.8402 -1.7386 -0.7652
30647SOL    HW2  720   6.347   5.578  10.461  1.2702  0.2288  0.0011
30648SOL     OW  721  10.958   3.772  12.599 -0.2404 -0.0871  0.1844
30648SOL    HW1  722  10.863   3.777  12.584 -0.2744  1.5854  0.7744
30648SOL    HW2  723  10.971   3.684  12.635 -1.6971 -0.0889  0.8126
30649SOL     OW  724   2.082   3.134   1.370 -0.3611 -0.1239 -0.1124
30649SOL    HW1  725   2.163   3.175   1.402 -1.1389  2.7237 -1.4471
30649SOL    HW2  726   2.063   3.065   1.433  2.9567 -0.7521  0.3839
30650SOL     OW  727   0.681   5.105   1.346 -0.3783  0.8592 -0.1824
30650SOL    HW1  728   0.689   5.015   1.379  2.0522  1.0129 -0.1590
30650SOL    HW2  729   0.599   5.106   1.297 -1.7138 -0.6794  1.8552
30651SOL     OW  730   3.183   4.959   1.687 -0.1278  0.2141 -0.2099
30651SOL    HW1  731   3.211   4.869   1.704  1.2838  0.4967 -0.9037
30651SOL    HW2  732   3.130   4.952   1.607  1.8997  0.2458 -1.6496
30652SOL     OW  733   5.212   2.860   8.439  0.9967 -0.6132  0.1527
30652SOL    HW1  734   5.302   2.866   8.406  1.5761  1.8596  1.8944
30652SOL    HW2  735   5.159   2.897   8.368  1.7216  0.6826  0.2542
30653SOL     OW  736  10.301   1.243   0.095  0.2784 -0.4421  0.1304
30653SOL    HW1  737  10.391   1.226   0.123  0.9085  0.5000 -1.2484
30653SOL    HW2  738  10.251   1.242   0.177  1.7216  0.2028  1.0764
30654SOL     OW  739   3.623   6.288   4.229  0.4805 -0.0607  0.8804
30654SOL    HW1  740   3.640   6.356   4.294  0.2502  0.3548  0.5115
30654SOL    HW2  741   3.528   6.289   4.217  0.3496 -1.1983  1.6718
30655SOL     OW  742   1.488   4.539   8.821  0.0959  0.1687 -0.1770
30655SOL    HW1  743   1.415   4.503   8.771  0.8207 -1.8019  0.1149
30655SOL    HW2  744   1.555   4.558   8.755 -0.0151  0.3060 -0.2518
30656SOL     OW  745   9.006   1.366   5.842 -0.1028 -0.1675 -0.0755
30656SOL    HW1  746   8.941   1.296   5.851 -1.5416  1.3380  2.3475
30656SOL    HW2  747   8.975   1.435   5.901  2.0371  1.9301 -1.2530
30657SOL     OW  748   2.657   2.858   4.727  0.4645 -0.3202  0.0564
30657SOL    HW1  749   2.626   2.837   4.639  2.1237  2.7037 -1.3803
30657SOL    HW2  750   2.581   2.899   4.770 -0.1158 -1.0908 -0.2018
30658SOL     OW  751   3.720  10.598   5.977 -0.3304  0.1773 -0.5039
30658SOL    HW1  752   3.658  10.545   6.027 -0.9474  1.3283 -0.0121
30658SOL    HW2  753   3.737  10.674   6.032  1.1423  0.1356 -0.8605
30659SOL     OW  754  12.078  11.043  12.133  0.3613  0.2030 -0.3244
30659SOL    HW1  755  12.056  10.985  12.205  1.4627 -0.3076 -0.3711
30659SOL    HW2  756  12.000  11.096  12.120 -1.0478 -1.8556 -0.8658
30660SOL     OW  757   2.799   5.657   6.574  0.5022 -0.3996  0.1110
30660SOL    HW1  758   2.870   5.698   6.622  0.1307  0.1755  0.1868
30660SOL    HW2  759   2.816   5.678   6.482  0.4649 -0.3051  0.1248
30661SOL     OW  760  12.311   4.875   6.502 -0.4469  0.6207  0.4743
30661SOL    HW1  761  12.271   4.794   6.469  0.6484  0.3151 -0.1374
30661SOL    HW2  762  12.401   4.872   6.471 -0.6824  2.6350 -0.5962
30662SOL     OW  763   5.936   8.868   7.989  0.2115 -0.1590  0.0955
30662SOL    HW1  764   5.918   8.956   8.021 -0.5265 -0.2792  0.0182
30662SOL    HW2  765   5.994   8.830   8.055  0.4613  0.3530  0.1716
30663SOL     OW  766   6.247   3.816   8.006 -0.0894  0.1912 -0.2241
30663SOL    HW1  767   6.310   3.811   8.078 -0.1808 -0.6730 -0.1899
30663SOL    HW2  768   6.267   3.898   7.962  1.2725 -0.2232 -0.4134
30664SOL     OW  769   0.620   3.226   4.071 -0.3605  0.2590  0.3066
30664SOL    HW1  770   0.656   3.172   4.001 -1.0420  1.3244 -0.9082
30664SOL    HW2  771   0.601   3.164   4.142  0.8773 -0.7542 -0.2044
30665SOL     OW  772   9.539   5.444   2.538 -0.1066 -0.3317 -0.2671
30665SOL    HW1  773   9.502   5.405   2.459 -2.1987 -0.9130  0.9430
30665SOL    HW2  774   9.465   5.458   2.596  1.2241  1.1227  1.1972
30666SOL     OW  775   9.233   4.318   8.667  0.2162 -0.0384  0.2285
30666SOL    HW1  776   9.250   4.360   8.751  0.9796  1.2921 -0.5517
30666SOL    HW2  777   9.143   4.285   8.674  0.2775  0.0385  1.5559
30667SOL     OW  778   2.372   0.230   3.003  0.6514  0.1049 -0.2596
30667SOL    HW1  779   2.388   0.269   2.917  0.0063  0.1146 -0.3792
30667SOL    HW2  780   2.361   0.304   3.062  0.4469  0.1045 -0.2950
30668SOL     OW  781   2.659   8.213   0.955 -0.0641 -0.2739  0.1605
30668SOL    HW1  782   2.712   8.134   0.963 -0.2355 -0.2457  2.1871
30668SOL    HW2  783   2.682   8.249   0.870  2.1702 -0.9646  0.4117
30669SOL     OW  784   1.074   1.679  10.465 -0.3412  0.0673  0.0220
30669SOL    HW1  785   1.042   1.745  10.404  0.8673  2.2831  1.6474
30669SOL    HW2  786   1.141   1.631  10.417 -2.9037 -1.7313 -1.9899
30670SOL     OW  787   1.160  10.345   5.914  0.0885  0.7171  0.2645
30670SOL    HW1  788   1.217  10.357   5.990 -0.7274 -0.5757  1.1128
30670SOL    HW2  789   1.072  10.363   5.948 -0.2658  0.3019 -0.4267
30671SOL     OW  790  10.900   3.289   5.265  0.2409 -0.5108 -0.6548
30671SOL    HW1  791  10.931   3.299   5.355  1.3203 -0.9094 -0.9585
30671SOL    HW2  792  10.828   3.352   5.257  0.3852 -0.1930  0.3666
30672SOL     OW  793  10.867   0.343  10.757  0.7637 -0.4371  0.1215
30672SOL    HW1  794  10.915   0.378  10.833  0.2404  2.1879 -0.6541
30672SOL    HW2  795  10.778   0.377  10.768  0.1870 -1.6216 -0.7088
30673SOL     OW  796   2.937   4.643  12.053 -0.5499 -0.0611  0.0899
30673SOL    HW1  797   2.964   4.615  11.965 -1.3769 -1.0884  0.1512
30673SOL    HW2  798   3.019   4.664  12.098 -0.1381  0.9487 -1.0649
30674SOL     OW  799   0.838  11.776   4.177 -0.0218  0.1419  0.4521
30674SOL    HW1  800   0.885  11.725   4.112  0.5183 -0.6186  1.4135
30674SOL    HW2  801   0.746  11.758   4.160  0.1080  0.0543 -0.1775
30675SOL     OW  802  11.757  11.185   9.158  0.1692  0.1078  0.6614
30675SOL    HW1  803  11.752  11.223   9.071 -0.9584 -0.0019  0.6645
30675SOL    HW2  804  11.844  11.209   9.190  0.4028  0.5641 -0.2954
30676SOL     OW  805  10.364   5.745   9.426 -0.1090  0.2479  0.1563
30676SOL    HW1  806  10.417   5.702   9.358  0.0959  1.6099 -0.5733
30676SOL    HW2  807  10.323   5.672   9.473  1.1746 -0.7984 -0.2546
30677SOL     OW  808   0.195  11.621   3.490 -0.1843  0.1095 -0.1707
30677SOL    HW1  809   0.283  11.654   3.474  0.2251 -1.1907 -0.6976
30677SOL    HW2  810   0.149  11.632   3.407 -0.2592  0.0092 -0.1438
30678SOL     OW  811   7.489   3.352   5.794 -0.4056 -0.0785  0.0256
30678SOL    HW1  812   7.569   3.368   5.844 -1.0378 -3.4539  2.4398
30678SOL    HW2  813   7.418   3.375   5.853 -1.1705 -1.9278 -0.0895
30679SOL     OW  814   4.984   0.553   8.567  0.0164 -0.1053 -0.4522
30679SOL    HW1  815   4.893   0.523   8.562 -0.3755  0.9998 -0.1498
30679SOL    HW2  816   5.013   0.527   8.654 -0.5289  0.9195  0.0541
30680SOL     OW  817   0.841   7.729   3.022 -0.3140 -0.0483  0.2251
30680SOL    HW1  818   0.929   7.694   3.031 -0.4675 -0.4784  0.0571
30680SOL    HW2  819   0.845   7.785   2.945 -0.4022 -0.7511 -0.3022
30681SOL     OW  820  11.069   2.388   8.202  0.4781 -0.1826  0.1112
30681SOL    HW1  821  10.978   2.380   8.230  0.8322  0.0177  1.4097
30681SOL    HW2  822  11.107   2.451   8.264  1.7871 -1.1457  0.3278
30682SOL     OW  823   1.508   5.700   0.491 -0.5343 -0.1992  0.0472
30682SOL    HW1  824   1.484   5.778   0.542  0.2706  0.8751 -1.1350
30682SOL    HW2  825   1.497   5.728   0.400  1.3909 -0.8980 -0.4498
30683SOL     OW  826  11.682   8.638  10.019  0.4374  0.0280 -0.1268
30683SOL    HW1  827  11.637   8.555  10.005  0.3081 -0.0744  0.8076
30683SOL    HW2  828  11.615   8.698  10.050  0.2500  0.8996 -2.0824
30684SOL     OW  829   9.924  12.426   8.789  0.2221  0.0384 -0.8912
30684SOL    HW1  830   9.851  12.372   8.819  0.8062 -0.1026  0.2998
30684SOL    HW2  831   9.898  12.515   8.810  0.9213 -0.1131  0.7032
30685SOL     OW  832   2.427   6.169   8.813 -0.0167 -0.0992  0.4009
30685SOL    HW1  833   2.379   6.177   8.896 -1.8260 -1.5591 -0.4247
30685SOL    HW2  834   2.431   6.259   8.779 -1.3489  0.2040  0.9811
30686SOL     OW  835   1.550  12.517   5.178  0.0843 -0.0436 -0.1008
30686SOL    HW1  836   1.469  12.533   5.129  0.1458  0.2302 -0.1130
30686SOL    HW2  837   1.585  12.437   5.139 -1.2081 -1.3428  1.2404
30687SOL     OW  838   6.025   4.443   0.723  0.0636  0.4828  0.2094
30687SOL    HW1  839   6.021   4.527   0.769 -2.2785  1.3450 -1.3743
30687SOL    HW2  840   5.975   4.383   0.778  1.1929  0.2685  1.0240
30688SOL     OW  841  12.514   8.774   4.047 -0.5181 -0.4259  0.6403
30688SOL    HW1  842  12.518   8.706   3.980  0.8636  0.8581 -0.7006
30688SOL    HW2  843  12.545   8.732   4.127  2.3619 -0.9689 -0.6123
30689SOL     OW  844   0.158  11.048   6.900  0.2750  0.0015 -0.2393
30689SOL    HW1  845   0.101  11.124   6.909 -1.4587 -0.7462 -3.5145
30689SOL    HW2  846   0.117  10.981   6.955 -0.8529  0.0924 -0.9500
30690SOL     OW  847   4.656  10.195   7.460  0.3238 -0.0503 -0.5933
30690SOL    HW1  848   4.683  10.111   7.424 -1.7209 -0.7251 -0.7066
30690SOL    HW2  849   4.561  10.198   7.445 -0.2437  0.7244  2.5264
30691SOL     OW  850   3.140   0.859   0.178  1.0970  0.0247  0.2052
30691SOL    HW1  851   3.058   0.896   0.213  1.5414 -1.9744  3.9354
30691SOL    HW2  852   3.112   0.780   0.131  0.7823  0.3306 -0.1291
30692SOL     OW  853   7.159   3.172   8.307  0.3178  0.1529  0.0655
30692SOL    HW1  854   7.131   3.167   8.398 -0.8637  0.3893 -0.2655
30692SOL    HW2  855   7.087   3.132   8.258  0.0469  1.7448 -0.9096
30693SOL     OW  856   5.869   9.103  11.397  0.3747  0.5091  0.2493
30693SOL    HW1  857   5.790   9.060  11.429  0.8304  1.1457  2.3404
30693SOL    HW2  858   5.935   9.087  11.464  1.7977  0.7512 -1.0282
30694SOL     OW  859  10.525   5.123   3.667  0.3325  0.0666  0.0266
30694SOL    HW1  860  10.465   5.109   3.594  0.3798 -0.7602  0.1325
30694SOL    HW2  861  10.597   5.062   3.651  0.6447  0.3202  0.4392
30695SOL     OW  862   6.566   1.420   8.805 -0.7119 -0.3493 -0.0473
30695SOL    HW1  863   6.522   1.503   8.793  1.4689  0.6944 -1.5226
30695SOL    HW2  864   6.587   1.417   8.898 -0.2748  1.0723 -0.0765
30696SOL     OW  865   3.518   0.198   9.663  0.2250  0.6180  0.4330
30696SOL    HW1  866   3.537   0.106   9.679 -1.1592  0.6283  2.5679
30696SOL    HW2  867   3.594   0.245   9.699  0.2901  0.3712  0.6175
30697SOL     OW  868   8.958  10.492  11.860  0.1625  0.5988 -0.2102
30697SOL    HW1  869   8.892  10.432  11.825  2.2573 -1.8505 -0.2212
30697SOL    HW2  870   8.966  10.560  11.794 -1.6673  0.4561 -0.6324
30698SOL     OW  871  12.227   2.928   8.659  0.4526 -0.3772  0.5510
30698SOL    HW1  872  12.221   2.834   8.644  0.4921 -0.2975  0.0128
30698SOL    HW2  873  12.262   2.963   8.577 -2.3362  0.4710 -0.3733
30699SOL     OW  874   4.582  12.267   8.610  0.6452 -0.1206  0.0772
30699SOL    HW1  875   4.511  12.203   8.619  1.5960 -0.9062  3.6779
30699SOL    HW2  876   4.560  12.316   8.531 -2.7111 -1.7508 -0.1880
30700SOL     OW  877  12.462   5.581   0.442 -0.2328 -0.1576 -0.2063
30700SOL    HW1  878  12.412   5.501   0.429  1.6023 -1.5732  0.8133
30700SOL    HW2  879  12.503   5.599   0.357 -0.4717 -0.4404 -0.3788
30701SOL     OW  880   1.041   7.820  11.704 -0.0015  0.2590  0.3131
30701SOL    HW1  881   0.959   7.787  11.666 -0.6344 -0.2354  1.9910
30701SOL    HW2  882   1.093   7.742  11.721  0.7312  0.5534 -0.4863
30702SOL     OW  883   3.154   3.140   1.431 -0.4103  0.6423 -0.6451
30702SOL    HW1  884   3.082   3.082   1.455  0.3275 -0.0776 -0.1275
30702SOL    HW2  885   3.114   3.205   1.373 -1.5249  0.4251 -0.1347
30703SOL     OW  886   0.323   2.485   7.938  0.0790  0.0573 -0.5351
30703SOL    HW1  887   0.311   2.390   7.927  0.7050  0.0119 -0.8643
30703SOL    HW2  888   0.244   2.513   7.985 -0.9586 -0.3387 -1.9799
30704SOL     OW  889   2.973   3.181   3.121 -0.1349 -0.2173  0.2036
30704SOL    HW1  890   2.923   3.110   3.162 -1.8648  1.0546  0.4087
30704SOL    HW2  891   3.057   3.141   3.097 -0.6546 -2.0404  1.2616
30705SOL     OW  892  10.707   9.526  12.457  0.0477  0.1043  0.1418
30705SOL    HW1  893  10.648   9.451  12.474 -1.2037  0.8472 -0.7657
30705SOL    HW2  894  10.781   9.510  12.515 -0.7956 -1.1561  0.9587
30706SOL     OW  895   6.549   4.496   6.698 -0.2141  0.0434  0.9241
30706SOL    HW1  896   6.571   4.447   6.777  0.6999  0.6631  1.0720
30706SOL    HW2  897   6.634   4.523   6.662 -0.6788  1.8333  1.0698
30707SOL     OW  898  12.341   8.774   5.338  0.2241  0.6793  0.3947
30707SOL    HW1  899  12.358   8.730   5.254  0.5103  0.8085  0.3806
30707SOL    HW2  900  12.383   8.718   5.403  0.1643  0.6755  0.4294
30708SOL     OW  901   3.096   2.744  10.603  0.2913 -0.1834  0.1983
30708SOL    HW1  902   3.125   2.654  10.593 -3.6582 -1.9706  2.3679
30708SOL    HW2  903   3.143   2.776  10.680  1.7925 -0.2820 -0.6426
30709SOL     OW  904  10.964   7.741   3.416  0.1731  0.3949  0.0245
30709SOL    HW1  905  10.975   7.826   3.458  1.2994  0.1711  0.2233
30709SOL    HW2  906  10.900   7.695   3.470  0.4031  0.7046  0.5697
30710SOL     OW  907   1.514  11.360   9.985 -0.0727 -0.5383  0.0729
30710SOL    HW1  908   1.602  11.367  10.023 -0.1595 -0.9624  0.3659
30710SOL    HW2  909   1.468  11.299  10.043 -0.9743  0.6747  0.6785
30711SOL     OW  910   3.858   4.719  11.931 -0.3623  0.2085 -0.3892
30711SOL    HW1  911   3.828   4.638  11.972  0.3441  0.3224  0.3763
30711SOL    HW2  912   3.855   4.701  11.837  2.3897 -1.7010 -0.2061
30712SOL     OW  913   3.047   6.411   9.555 -0.2193  0.8623  0.4628
30712SOL    HW1  914   3.001   6.494   9.546 -0.7525  0.4253 -1.1988
30712SOL    HW2  915   2.981   6.350   9.587 -0.7814  0.3316 -1.5356
30713SOL     OW  916  11.368  11.376   0.500  0.2909  0.0285  0.3325
30713SOL    HW1  917  11.434  11.371   0.432  0.8236  0.7733  0.7813
30713SOL    HW2  918  11.409  11.426   0.570 -0.5772  0.0894  0.8163
30714SOL     OW  919   4.121  11.717   1.177  0.7504  0.9213 -0.1912
30714SOL    HW1  920   4.084  11.791   1.225  1.6444  0.8089  0.7179
30714SOL    HW2  921   4.166  11.756   1.103  0.6586  1.2293 -0.0867
30715SOL     OW  922   0.827   9.628   4.435  0.2159 -0.1464 -0.4356
30715SOL    HW1  923   0.919   9.600   4.430  0.8573  1.9552 -1.3639
30715SOL    HW2  924   0.777   9.546   4.431  2.0291 -1.3395  0.0695
30716SOL     OW  925   6.830   2.757   3.528  0.2507 -0.5377  0.4847
30716SOL    HW1  926   6.869   2.769   3.441  1.6006 -1.0663  0.9932
30716SOL    HW2  927   6.861   2.833   3.578  0.6735 -0.9706  0.8964
30717SOL     OW  928   3.952  10.730   1.495 -0.0956 -0.0245  0.1129
30717SOL    HW1  929   3.900  10.650   1.497  0.6863 -0.5334  1.1427
30717SOL    HW2  930   4.041  10.701   1.474  0.4215  0.4106  1.5427
30718SOL     OW  931   2.339   2.292  11.743  0.0708  0.2200 -0.4636
30718SOL    HW1  932   2.307   2.266  11.657 -2.5122  1.2095  0.1039
30718SOL    HW2  933   2.356   2.209  11.788 -0.7821 -0.3544 -1.1653
30719SOL     OW  934  10.061   3.648   2.224  0.5487  0.0263  0.0019
30719SOL    HW1  935  10.124   3.717   2.243  1.3804 -0.6423 -0.3006
30719SOL    HW2  936  10.085   3.576   2.281  1.3882 -0.9980 -1.5871
30720SOL     OW  937  12.123   9.810  10.193 -0.1487  0.3196 -0.1930
30720SOL    HW1  938  12.095   9.890  10.148 -0.6140  1.3237  1.7885
30720SOL    HW2  939  12.138   9.837  10.283  1.4892 -1.4671  0.1392
30721SOL     OW  940   2.632   0.981  12.433  0.2010  0.0513  0.3901
30721SOL    HW1  941   2.720   1.005  12.459  1.3059  0.4328 -3.1685
30721SOL    HW2  942   2.644   0.915  12.365 -2.2666  0.0582 -0.1710
30722SOL     OW  943   4.353   3.664   0.255 -0.5120 -0.1424 -0.2812
30722SOL    HW1  944   4.421   3.629   0.198 -0.5627 -0.8846  0.1061
30722SOL    HW2  945   4.354   3.608   0.332  0.1716  1.4086  0.8771
30723SOL     OW  946  12.514   4.812   7.601 -0.7286 -0.2983 -0.1504
30723SOL    HW1  947  12.571   4.883   7.572 -1.3460  1.2899  2.2005
30723SOL    HW2  948  12.570   4.759   7.658 -0.7426 -0.6516 -0.4637
30724SOL     OW  949  12.345   2.471   0.293 -0.5174  0.3551 -0.1981
30724SOL    HW1  950  12.358   2.496   0.385 -2.1525  1.0056 -0.1096
30724SOL    HW2  951  12.250   2.460   0.284 -0.3026 -0.7286 -1.5667
30725SOL     OW  952   0.449   1.884   6.031  0.0295 -0.0935  0.2826
30725SOL    HW1  953   0.456   1.890   6.127 -0.4812  1.7051  0.2409
30725SOL    HW2  954   0.489   1.799   6.010  2.5017  0.5694  1.8405
30726SOL     OW  955   7.878   1.625   4.917  0.6424 -0.3476 -0.3588
30726SOL    HW1  956   7.860   1.580   5.000 -3.3391 -0.4898 -1.1353
30726SOL    HW2  957   7.875   1.718   4.939 -2.8888 -0.2863 -0.5675
30727SOL     OW  958  11.587   2.930   2.075 -0.1701 -0.3865 -0.1469
30727SOL    HW1  959  11.569   2.872   2.149 -0.2952  1.0030  0.9513
30727SOL    HW2  960  11.519   2.908   2.011  0.6176 -2.3977 -0.3764
30728SOL     OW  961   9.914   5.705   3.399 -0.4469 -0.0171 -0.9500
30728SOL    HW1  962   9.864   5.758   3.462  2.3707  2.3205 -0.4521
30728SOL    HW2  963   9.952   5.635   3.452  1.5976  1.7173  0.0255
30729SOL     OW  964   1.863  11.684  11.314 -0.1038 -0.3040 -0.2918
30729SOL    HW1  965   1.945  11.645  11.284  0.2074  1.6109 -2.1724
30729SOL    HW2  966   1.885  11.775  11.333 -1.3750 -0.2754  1.3446
30730SOL     OW  967   3.648  10.867   6.371 -0.2696 -0.4871  0.8077
30730SOL    HW1  968   3.567  10.910   6.398 -0.9939 -0.3063 -1.4303
30730SOL    HW2  969   3.717  10.918   6.415 -1.3074 -0.3309  2.3416
30731SOL     OW  970  10.602   2.859   9.887  0.0655 -0.1740 -0.1423
30731SOL    HW1  971  10.608   2.927   9.954  1.8051  0.6181 -1.0558
30731SOL    HW2  972  10.643   2.896   9.810  1.1543 -2.2704 -0.6580
30732SOL     OW  973   2.740   3.433  11.970 -0.5193 -0.7500  0.2349
30732SOL    HW1  974   2.805   3.503  11.968 -0.4385 -0.8320 -1.2424
30732SOL    HW2  975   2.779   3.366  12.026  0.9768 -1.0532 -1.0951
30733SOL     OW  976   3.125   0.991   6.508 -0.1255  0.6159 -0.2844
30733SOL    HW1  977   3.201   1.045   6.529 -0.6342  1.0344  0.5783
30733SOL    HW2  978   3.160   0.915   6.461  0.8160  0.7793  0.1417
30734SOL     OW  979  11.488   4.614   3.404 -0.2076 -0.4730  0.6632
30734SOL    HW1  980  11.509   4.549   3.338 -0.2762  1.4891 -1.4179
30734SOL    HW2  981  11.459   4.691   3.354 -1.8229  0.5922  3.0304
30735SOL     OW  982   3.929  12.556  10.507  0.3776 -0.1144  0.2483
30735SOL    HW1  983   3.988  12.556  10.432 -1.6375 -0.6613 -1.4177
30735SOL    HW2  984   3.917  12.464  10.529 -0.6797 -0.0927 -0.1566
30736SOL     OW  985  12.315   1.730   7.084 -0.6926 -0.2842  0.1196
30736SOL    HW1  986  12.350   1.736   7.173 -0.6312 -1.9369  0.2467
30736SOL    HW2  987  12.373   1.786   7.032  0.6083 -0.9741  0.7650
30737SOL     OW  988   9.667   6.229   9.699  0.0729  0.0929 -0.3655
30737SOL    HW1  989   9.613   6.165   9.745  0.6239  0.0568  0.2424
30737SOL    HW2  990   9.690   6.186   9.617 -0.3028 -0.1353 -0.3550
30738SOL     OW  991  10.216   7.073  10.232  0.6253  0.2329 -0.0719
30738SOL    HW1  992  10.219   7.029  10.147 -0.2290 -1.1054  0.5551
30738SOL    HW2  993  10.126   7.061  10.262  1.0009  0.3599  1.1817
30739SOL     OW  994  11.208   4.845   1.728  0.5389 -0.2842 -0.3215
30739SOL    HW1  995  11.190   4.760   1.768 -1.5994  0.4735  0.4647
30739SOL    HW2  996  11.166   4.840   1.642  3.0079 -1.0181 -1.6015
30740SOL     OW  997  11.595   0.456   9.212  0.3558  0.2769  0.4020
30740SOL    HW1  998  11.627   0.460   9.302  1.0516  0.1953  0.1693
30740SOL    HW2  999  11.646   0.385   9.172  0.1250  0.3781 -0.0773
30741SOL     OW 1000   6.331   1.003   7.238  0.1369  0.6587 -0.0206
30741SOL    HW1 1001   6.270   1.009   7.165 -0.4595 -2.2072  0.1278
30741SOL    HW2 1002   6.277   1.015   7.316  0.2312  0.7218  0.0356
30742SOL     OW 1003   2.962  10.663   8.266  0.0750  0.8345  0.2225
30742SOL    HW1 1004   2.882  10.690   8.312 -0.9956  1.0501 -1.6786
30742SOL    HW2 1005   2.992  10.587   8.316 -0.6203  1.4714  1.6906
30743SOL     OW 1006   6.083   8.925   4.569  0.0760  0.3568 -0.3759
30743SOL    HW1 1007   5.998   8.965   4.549  1.0391  2.2447 -1.0007
30743SOL    HW2 1008   6.116   8.895   4.485 -0.2123 -0.9084 -0.0476
30744SOL     OW 1009   7.625   9.574  10.866  0.4123  0.2291 -0.0322
30744SOL    HW1 1010   7.697   9.516  10.894  0.1007 -0.0285  0.2472
30744SOL    HW2 1011   7.572   9.519  10.809 -0.2434  0.0292  0.7473
30745SOL     OW 1012   1.323   9.566   8.952 -0.4086  0.0497 -0.1793
30745SOL    HW1 1013   1.268   9.619   9.008  2.4504  1.9029  1.1136
30745SOL    HW2 1014   1.384   9.522   9.012  0.1793 -1.1281 -1.5646
30746SOL     OW 1015   0.778   6.010   5.095  0.2094 -0.0484 -0.5967
30746SOL    HW1 1016   0.701   6.058   5.064 -0.7873 -0.7424  0.7175
30746SOL    HW2 1017   0.742   5.938   5.146  1.7511  0.6663  1.6255
30747SOL     OW 1018   5.381   5.286   7.578  0.2015  0.0500 -0.0222
30747SOL    HW1 1019   5.311   5.235   7.538 -0.5827  0.2984  0.9868
30747SOL    HW2 1020   5.336   5.355   7.628  1.1516  0.2028  0.6664
30748SOL     OW 1021   6.607   4.100  10.592  0.3704 -0.3975 -0.6027
30748SOL    HW1 1022   6.515   4.117  10.611  0.5486  1.7913 -1.3626
30748SOL    HW2 1023   6.608   4.072  10.501  0.4065 -1.1589 -0.3745
30749SOL     OW 1024   3.647   1.190   2.876  0.2958 -0.1852 -0.0759
30749SOL    HW1 1025   3.668   1.099   2.857 -1.0319 -0.4465 -0.4499
30749SOL    HW2 1026   3.699   1.212   2.954 -0.0628 -1.5621  0.5726
30750SOL     OW 1027  12.022   3.621   2.519  0.5449 -0.1127  0.4268
30750SOL    HW1 1028  12.101   3.648   2.566  1.4801 -1.0649 -0.5121
30750SOL    HW2 1029  12.055   3.587   2.436 -1.0238  1.2876 -0.8346
30751SOL     OW 1030   7.747   4.844   2.512 -0.0397 -0.2919  0.2547
30751SOL    HW1 1031   7.719   4.870   2.600 -0.7554 -1.4609  0.3912
30751SOL    HW2 1032   7.796   4.920   2.479 -2.5393  1.5112  0.3765
30752SOL     OW 1033   1.730  10.713   8.115  0.6644  0.0861 -0.6755
30752SOL    HW1 1034   1.683  10.633   8.093  1.4709 -0.0198 -2.1667
30752SOL    HW2 1035   1.803  10.684   8.169  0.0993  0.0171  0.0594
30753SOL     OW 1036   8.205   3.644   5.259 -0.0158  0.4017  0.4270
30753SOL    HW1 1037   8.147   3.692   5.199  0.5725 -0.5064 -0.9054
30753SOL    HW2 1038   8.160   3.649   5.344 -0.7609  1.9043 -0.0104
30754SOL     OW 1039  12.460   4.728   3.492 -0.1950 -0.3853 -0.0280
30754SOL    HW1 1040  12.387   4.684   3.450 -0.7435  0.6386 -0.1842
30754SOL    HW2 1041  12.421   4.776   3.566  0.1891  0.6769 -0.4859
30755SOL     OW 1042  11.360   8.972  10.416 -0.0529 -0.3902  0.1591
30755SOL    HW1 1043  11.392   8.886  10.444  0.1158 -0.4787 -0.3006
30755SOL    HW2 1044  11.424   9.034  10.451  1.3133 -0.6441 -1.7466
30756SOL     OW 1045   4.035   0.995   5.450 -0.3128  0.3453  0.0138
30756SOL    HW1 1046   4.037   1.015   5.356  0.4400 -1.1524 -0.3269
30756SOL    HW2 1047   4.115   1.034   5.484 -1.0389  1.7004  0.2479
30757SOL     OW 1048   5.644   3.019   3.315  0.4445  0.0846  0.4439
30757SOL    HW1 1049   5.660   3.068   3.395  0.6289  2.1160 -0.7620
30757SOL    HW2 1050   5.580   2.952   3.339  1.7608 -0.4793  2.6388
30758SOL     OW 1051  12.095  11.425   2.088 -0.0890  0.3174 -0.0889
30758SOL    HW1 1052  12.038  11.457   2.018 -1.4186  0.1398  0.8840
30758SOL    HW2 1053  12.134  11.503   2.125  1.1344  0.3806 -1.4094
30759SOL     OW 1054  11.778   8.717   7.825  0.2947 -0.0225  0.1797
30759SOL    HW1 1055  11.826   8.695   7.745 -0.4994 -0.2611 -0.2417
30759SOL    HW2 1056  11.730   8.638   7.848  0.1168  0.2012  0.6012
30760SOL     OW 1057   5.004   3.571   7.330 -0.2575  0.0300  0.4522
30760SOL    HW1 1058   4.969   3.639   7.388  0.0447 -1.2996  2.2716
30760SOL    HW2 1059   5.029   3.618   7.251 -0.3593  2.0015  1.5271
30761SOL     OW 1060   9.868  11.394  10.496  0.2158  0.5954 -1.3650
30761SOL    HW1 1061   9.847  11.352  10.579  1.9353  1.5826 -0.3846
30761SOL    HW2 1062   9.860  11.488  10.514  1.0133  0.8329 -2.1960
30762SOL     OW 1063  12.523   3.829  11.081  0.3353  0.6404  0.1243
30762SOL    HW1 1064  12.523   3.750  11.028  0.5861  0.3960  0.4827
30762SOL    HW2 1065  12.582   3.889  11.035 -1.1873  1.2699 -1.0851
30763SOL     OW 1066  12.157   4.289   1.551  0.1859  0.0152 -0.0891
30763SOL    HW1 1067  12.071   4.249   1.541  0.7738 -1.3207  0.0162
30763SOL    HW2 1068  12.140   4.374   1.592 -0.9879 -0.6569  0.8483
30764SOL     OW 1069   2.483   3.778  10.784  0.0580  0.3239 -0.2696
30764SOL    HW1 1070   2.490   3.864  10.825 -0.0701  0.4566 -0.5211
30764SOL    HW2 1071   2.511   3.792  10.693 -0.3401  0.1829 -0.4163
30765SOL     OW 1072   8.791   5.206  10.207 -0.4613  0.7450  0.2808
30765SOL    HW1 1073   8.836   5.125  10.186 -2.9691 -1.0704  1.4197
30765SOL    HW2 1074   8.840   5.243  10.280 -0.3868 -0.7889  1.0341
30766SOL     OW 1075   1.964   0.672   1.879  0.1232 -0.0139  0.1595
30766SOL    HW1 1076   1.968   0.593   1.933  0.4487 -0.3331 -0.3248
30766SOL    HW2 1077   1.875   0.706   1.892 -0.3391 -0.9847 -0.3701
30767SOL     OW 1078   5.452   2.667   4.418  0.1084  0.1570  0.3772
30767SOL    HW1 1079   5.520   2.728   4.389  0.6903 -1.4951 -2.0992
30767SOL    HW2 1080   5.496   2.612   4.483  0.5629  0.3245  0.2178
30768SOL     OW 1081   9.688   0.944   7.943  0.2366 -0.0029 -0.1941
30768SOL    HW1 1082   9.750   1.011   7.918  1.3081 -1.1857 -0.8240
30768SOL    HW2 1083   9.728   0.862   7.914 -1.1493 -0.8930  0.2975
30769SOL     OW 1084   3.477   6.241   2.357  0.0192  0.3705 -0.2124
30769SOL    HW1 1085   3.405   6.250   2.294 -0.5778  1.2619  0.5701
30769SOL    HW2 1086   3.527   6.322   2.347 -0.7121  1.0398  1.1915
30770SOL     OW 1087   3.049   5.297   3.059 -0.0369 -0.1654  0.4116
30770SOL    HW1 1088   2.962   5.275   3.092 -0.6051  0.7619 -0.4133
30770SOL    HW2 1089   3.109   5.272   3.129 -0.8126 -2.2104  0.4104
30771SOL     OW 1090  12.129   5.874  12.437  0.3239 -0.4567 -0.0998
30771SOL    HW1 1091  12.058   5.938  12.434  0.6741  0.2179  2.9305
30771SOL    HW2 1092  12.209   5.927  12.440  0.9209 -1.1784 -2.0250
30772SOL     OW 1093  10.758   7.117   4.150  0.0484 -0.0804  0.0943
30772SOL    HW1 1094  10.765   7.208   4.180 -0.7114  0.9895 -2.6247
30772SOL    HW2 1095  10.803   7.117   4.066  0.4805 -2.3879  0.2805
30773SOL     OW 1096   0.434  10.038  12.598  0.0397  0.4868 -0.2897
30773SOL    HW1 1097   0.445  10.088  12.517 -0.9346  2.0799  0.5164
30773SOL    HW2 1098   0.375  10.092  12.651  0.7915 -0.4451  1.5453
30774SOL     OW 1099   5.450   7.487   1.459 -0.2109  0.0737  0.2081
30774SOL    HW1 1100   5.524   7.431   1.482  2.0946  2.4995 -0.7690
30774SOL    HW2 1101   5.422   7.456   1.373  1.3942  0.6428 -0.5732
30775SOL     OW 1102   5.882   9.181   0.547  0.0927  0.4884 -0.5285
30775SOL    HW1 1103   5.861   9.149   0.460 -1.3907 -0.3512  0.0943
30775SOL    HW2 1104   5.973   9.154   0.562 -0.0999 -0.6304 -1.2720
30776SOL     OW 1105  11.365   7.753   9.062  0.4730  0.0914 -0.7744
30776SOL    HW1 1106  11.427   7.784   9.128 -0.7581 -2.4503  1.7836
30776SOL    HW2 1107  11.279   7.780   9.095 -0.1824 -1.1552 -1.3776
30777SOL     OW 1108   3.178   4.903   6.514 -0.2905 -0.1459  0.1547
30777SOL    HW1 1109   3.175   4.958   6.593 -0.4720  0.8443 -0.5225
30777SOL    HW2 1110   3.091   4.861   6.511 -0.2586 -0.2423  0.5124
30778SOL     OW 1111   7.450   7.212   5.465 -0.4279  0.5757 -0.3205
30778SOL    HW1 1112   7.501   7.240   5.389 -0.0493  0.9601  0.0699
30778SOL    HW2 1113   7.503   7.237   5.540 -1.3220  1.2532  0.1121
30779SOL     OW 1114   4.378  11.742   7.363  0.1125  0.8599 -0.5122
30779SOL    HW1 1115   4.342  11.807   7.424  1.3864  1.3513 -0.2406
30779SOL    HW2 1116   4.317  11.743   7.289 -0.2493  1.9113 -0.2293
30780SOL     OW 1117  12.124   6.044   0.532 -0.2064  0.2042 -0.0330
30780SOL    HW1 1118  12.049   6.060   0.589 -0.8893 -0.7971 -0.6292
30780SOL    HW2 1119  12.127   5.949   0.522  0.2538  0.3242 -1.1931
30781SOL     OW 1120   3.543   9.707   8.107 -0.0851 -0.2428  0.2038
30781SOL    HW1 1121   3.456   9.699   8.146  0.3298 -0.1487  1.1711
30781SOL    HW2 1122   3.596   9.750   8.174  1.1495 -1.8250  0.2952
30782SOL     OW 1123   2.219   7.855  10.338  0.2220 -0.3072  0.4662
30782SOL    HW1 1124   2.191   7.763  10.337 -0.3968 -0.1551 -1.6266
30782SOL    HW2 1125   2.173   7.894  10.264  2.0848  1.2110  0.0463
30783SOL     OW 1126   1.167   9.131  11.559 -0.4765 -0.3519  0.0174
30783SOL    HW1 1127   1.075   9.146  11.578 -1.0421 -1.8499 -1.2827
30783SOL    HW2 1128   1.177   9.154  11.467  1.2688  2.9242  0.8825
30784SOL     OW 1129   0.446  10.272  11.357 -0.7590  0.1604  0.3138
30784SOL    HW1 1130   0.542  10.268  11.357 -0.6799  1.0577 -1.4922
30784SOL    HW2 1131   0.425  10.332  11.428  0.1396  1.3220 -0.3571
30785SOL     OW 1132   5.177   7.703   0.957 -0.0840  0.6604 -0.0960
30785SOL    HW1 1133   5.129   7.686   0.876  1.5535  0.0882 -1.0088
30785SOL    HW2 1134   5.231   7.780   0.936 -0.0197  0.8214  0.6419
30786SOL     OW 1135  10.891   4.925   0.457  0.1850  0.3025  0.1192
30786SOL    HW1 1136  10.826   4.973   0.507 -0.1289 -0.0407  0.0422
30786SOL    HW2 1137  10.937   4.872   0.522  0.2861  0.4288  0.1512
30787SOL     OW 1138   1.769  10.355   9.158 -0.4545 -0.1030  0.3082
30787SOL    HW1 1139   1.837  10.422   9.147  0.9928 -1.5647  0.0144
30787SOL    HW2 1140   1.717  10.386   9.232  0.0256  1.4449  0.0515
30788SOL     OW 1141   6.901   5.635   4.678 -0.1104  0.1578  0.0815
30788SOL    HW1 1142   6.868   5.655   4.591 -0.0525  0.1864  0.0659
30788SOL    HW2 1143   6.828   5.655   4.737  0.5624  2.3030  0.2678
30789SOL     OW 1144   9.161  10.005  11.853  0.5305  0.1226 -0.3661
30789SOL    HW1 1145   9.217   9.961  11.916 -2.3931 -1.3959  1.3838
30789SOL    HW2 1146   9.118  10.074  11.903 -0.2203  0.3428 -1.2817
30790SOL     OW 1147   2.894   6.258   9.713  0.6527  0.5363  0.1912
30790SOL    HW1 1148   2.809   6.303   9.706 -0.8691 -2.0396  0.8535
30790SOL    HW2 1149   2.897   6.227   9.804  2.1088  0.1269  0.0280
30791SOL     OW 1150   2.897   4.707  12.432 -0.4685  0.2137 -0.4576
30791SOL    HW1 1151   2.855   4.750  12.506  0.5618 -2.0971  1.6366
30791SOL    HW2 1152   2.830   4.704  12.363 -2.6249 -0.4097  1.5471
30792SOL     OW 1153  11.458   5.563   0.574 -0.2458 -0.4834  0.2413
30792SOL    HW1 1154  11.387   5.626   0.562 -0.6748 -0.9206  0.4691
30792SOL    HW2 1155  11.424   5.499   0.637 -0.5526 -2.0283 -1.4080
30793SOL     OW 1156   0.673   0.273   1.958 -0.3576 -0.5321  0.4226
30793SOL    HW1 1157   0.685   0.179   1.949 -0.1120 -0.3692 -1.2502
30793SOL    HW2 1158   0.734   0.299   2.027 -1.9750 -1.8732  2.4544
30794SOL     OW 1159   9.621   8.390  11.574  0.2135  0.1992 -0.2495
30794SOL    HW1 1160   9.540   8.438  11.555  0.2113  0.5634  0.6068
30794SOL    HW2 1161   9.625   8.321  11.508  0.0656  1.2098 -1.3392
30795SOL     OW 1162  10.755   0.314   2.532 -0.0458  0.2584 -0.1164
30795SOL    HW1 1163  10.747   0.359   2.616 -1.2444  1.5140 -0.8489
30795SOL    HW2 1164  10.818   0.366   2.483  0.8604 -0.6283  0.0796
30796SOL     OW 1165   8.945   3.854   9.577 -0.0757  0.4290  0.0872
30796SOL    HW1 1166   8.870   3.844   9.634 -0.5107  0.2485 -0.5025
30796SOL    HW2 1167   8.994   3.772   9.586  0.4362  0.8200  0.9994
30797SOL     OW 1168   3.284   2.054   8.816  0.0027  0.0410 -0.3752
30797SOL    HW1 1169   3.265   2.008   8.735 -0.5049  0.3053 -0.4116
30797SOL    HW2 1170   3.344   2.124   8.790  0.2633 -0.2024 -0.4290
30798SOL     OW 1171   1.213   0.998   4.728 -0.3173  0.7441 -0.1874
30798SOL    HW1 1172   1.251   1.056   4.662 -2.6395  2.0742 -0.4460
30798SOL    HW2 1173   1.198   1.055   4.804  1.2438 -0.5078  1.1390
30799SOL     OW 1174   7.550   9.831   7.643 -0.1344 -0.0581 -0.0289
30799SOL    HW1 1175   7.598   9.821   7.561 -0.4147  0.0526 -0.2066
30799SOL    HW2 1176   7.464   9.794   7.625  0.8461 -3.2588  1.2388
30800SOL     OW 1177   9.216   2.993  12.579  0.0344 -0.0958 -0.6553
30800SOL    HW1 1178   9.195   2.905  12.548 -0.5644  0.1506 -0.9615
30800SOL    HW2 1179   9.155   3.008  12.652  0.7762 -0.2960  0.0245
30801SOL     OW 1180  12.433   7.661   3.287  0.5158  0.6593 -0.1214
30801SOL    HW1 1181  12.474   7.656   3.373 -2.1914 -0.1409  1.2394
30801SOL    HW2 1182  12.445   7.574   3.250 -1.3748 -0.1588  1.0511
30802SOL     OW 1183  11.887   8.853  10.204 -0.0206  0.3718  0.7110
30802SOL    HW1 1184  11.958   8.874  10.265  0.1433  0.4932  0.4763
30802SOL    HW2 1185  11.894   8.919  10.135 -0.8147  0.8326  1.0579
30803SOL     OW 1186   9.891   6.611   7.102 -0.1789 -0.0465 -0.6105
30803SOL    HW1 1187   9.975   6.565   7.107 -0.5299 -0.5266  2.8101
30803SOL    HW2 1188   9.907   6.684   7.041  1.5433 -2.2422 -2.9956
30804SOL     OW 1189   3.190  10.582   9.072 -0.1243 -0.3293 -0.4168
30804SOL    HW1 1190   3.268  10.574   9.017  1.5460 -0.1658  1.8153
30804SOL    HW2 1191   3.212  10.538   9.154 -1.8035  1.0176  0.8662
30805SOL     OW 1192  12.238   5.382   2.345  0.3812  0.1981  0.1748
30805SOL    HW1 1193  12.314   5.328   2.321  0.3912 -0.7885  2.1725
30805SOL    HW2 1194  12.253   5.403   2.437 -1.3361  0.7513  0.3479
30806SOL     OW 1195   2.386   7.829   2.994  0.7740  0.0893  0.0432
30806SOL    HW1 1196   2.423   7.839   3.082  1.1625 -1.2257  0.0508
30806SOL    HW2 1197   2.443   7.883   2.938 -0.8436  2.8259  0.8768
30807SOL     OW 1198   1.196   8.219   1.888  0.4527 -0.5603  0.1152
30807SOL    HW1 1199   1.165   8.300   1.847 -0.3694 -0.2823  1.2462
30807SOL    HW2 1200   1.186   8.234   1.982 -1.0460 -2.4719  0.3198
30808SOL     OW 1201   4.723   1.894   5.359 -0.1848 -0.2808  0.2178
30808SOL    HW1 1202   4.702   1.965   5.420 -1.8950  0.1720 -0.8248
30808SOL    HW2 1203   4.782   1.934   5.294  0.1616 -0.2739  0.5322
30809SOL     OW 1204   3.265   2.628   3.888  0.0439 -0.0810 -0.0978
30809SOL    HW1 1205   3.207   2.560   3.922 -0.5296  0.2602 -0.3774
30809SOL    HW2 1206   3.223   2.711   3.912  0.5005  0.1740 -0.1544
30810SOL     OW 1207   9.079   3.203   8.087  0.0783  0.0736  0.0417
30810SOL    HW1 1208   9.078   3.112   8.058 -0.0217  0.7069 -2.1592
30810SOL    HW2 1209   9.137   3.247   8.025 -1.3758  1.8494 -0.1336
30811SOL     OW 1210   7.416   1.031   6.617  0.6272  0.2981  0.5258
30811SOL    HW1 1211   7.421   1.099   6.685 -2.4744  0.6245  0.5525
30811SOL    HW2 1212   7.346   0.973   6.647  0.9481 -1.0108 -1.1618
30812SOL     OW 1213   8.242   2.525  11.256 -0.2525 -0.4276  0.0014
30812SOL    HW1 1214   8.307   2.529  11.186 -0.7911  0.3670 -0.4644
30812SOL    HW2 1215   8.282   2.469  11.322  0.6036 -0.5341 -0.5870
30813SOL     OW 1216   0.960   6.039   6.814 -0.5944 -0.2051  0.0386
30813SOL    HW1 1217   1.025   6.001   6.754  0.6111  0.8616  0.6192
30813SOL    HW2 1218   0.900   6.087   6.757  0.0200  0.0643 -0.3917
30814SOL     OW 1219  10.462   7.791  11.659  0.2164  0.1043  0.5011
30814SOL    HW1 1220  10.457   7.860  11.725  0.8178 -0.0779  0.7402
30814SOL    HW2 1221  10.426   7.713  11.702  0.7260 -0.0456  0.6540
30815SOL     OW 1222   5.789  10.078   5.961 -0.8771  0.1230  0.5686
30815SOL    HW1 1223   5.765  10.170   5.954  1.5102  0.8080  0.5286
30815SOL    HW2 1224   5.790  10.060   6.055 -0.1616  0.4922  0.6345
30816SOL     OW 1225   1.646   4.136   3.999  0.6746  0.1006 -0.5985
30816SOL    HW1 1226   1.715   4.100   4.054 -0.6137 -0.6516  0.5904
30816SOL    HW2 1227   1.649   4.083   3.920 -1.0627 -2.6522  1.0407
30817SOL     OW 1228   7.423  12.008  11.485 -0.3503  0.4029 -0.1922
30817SOL    HW1 1229   7.428  11.952  11.407  3.0075  0.0211  0.1346
30817SOL    HW2 1230   7.421  11.946  11.558  1.0154  0.6810  0.1025
30818SOL     OW 1231   7.790  11.128   3.563 -0.1290  0.3696  0.4108
30818SOL    HW1 1232   7.701  11.120   3.528 -0.2446  1.8434  0.3098
30818SOL    HW2 1233   7.846  11.103   3.489 -0.4484  0.0497  0.2741
30819SOL     OW 1234   6.632   4.937  12.608 -0.2846  0.1923 -0.0517
30819SOL    HW1 1235   6.711   4.889  12.585  0.6575  1.3417  0.6646
30819SOL    HW2 1236   6.640   4.951  12.703 -0.8556  1.1675 -0.1368
30820SOL     OW 1237   2.053   4.869   0.247 -0.3936 -0.2193 -0.1962
30820SOL    HW1 1238   2.031   4.786   0.287  0.0250 -0.4018 -0.3433
30820SOL    HW2 1239   1.970   4.918   0.246 -0.1082  0.4152  2.3086
30821SOL     OW 1240  10.418   6.375  11.775 -0.5739  0.7079 -0.2060
30821SOL    HW1 1241  10.326   6.401  11.787 -1.1795 -1.3301 -0.0942
30821SOL    HW2 1242  10.462   6.407  11.853 -2.0055 -1.5675  1.6734
30822SOL     OW 1243   7.556   5.846   9.751  0.1999 -0.5519  0.2639
30822SOL    HW1 1244   7.536   5.910   9.682  0.0569 -0.6413  0.2216
30822SOL    HW2 1245   7.652   5.846   9.757  0.2258  2.6441  3.0119
30823SOL     OW 1246   6.342  12.372   3.276 -1.0095 -0.4467  0.3637
30823SOL    HW1 1247   6.307  12.311   3.211  0.1837 -2.2476  1.2978
30823SOL    HW2 1248   6.295  12.351   3.356 -0.8319  0.1064  0.6123
30824SOL     OW 1249  10.455   9.217   3.928  0.0514 -0.0393  0.1652
30824SOL    HW1 1250  10.360   9.204   3.928  0.0161  0.1684  0.8957
30824SOL    HW2 1251  10.488   9.156   3.862 -0.4899 -0.9046  0.6731
30825SOL     OW 1252   9.927   5.920  12.480  1.0560 -0.2860  0.2035
30825SOL    HW1 1253   9.998   5.959  12.429 -0.3042  0.0429 -1.5727
30825SOL    HW2 1254   9.877   5.869  12.416 -0.4320 -0.3167  1.3256
30826SOL     OW 1255   9.348   4.330  11.667  0.2596  0.4942 -0.9188
30826SOL    HW1 1256   9.287   4.365  11.603 -0.0752  1.0691 -0.2969
30826SOL    HW2 1257   9.298   4.325  11.748  1.0966  1.2131 -0.3377
30827SOL     OW 1258   5.142   0.575  11.264  0.1656  0.5233 -0.2425
30827SOL    HW1 1259   5.056   0.539  11.243  0.9877 -1.3660 -0.5749
30827SOL    HW2 1260   5.151   0.651  11.207 -1.0926  0.4929 -0.5080
30828SOL     OW 1261   8.034   8.385  11.598  0.2584  0.1393 -0.5666
30828SOL    HW1 1262   8.076   8.395  11.684  0.8202  1.2690 -0.9602
30828SOL    HW2 1263   8.065   8.300  11.567  0.9119  0.2007 -0.1065
30829SOL     OW 1264   1.148  11.378  10.225 -0.0247  0.3454  0.4033
30829SOL    HW1 1265   1.243  11.371  10.235  0.0140  0.4844  0.1503
30829SOL    HW2 1266   1.122  11.294  10.187  0.0921  0.5695 -0.1841
30830SOL     OW 1267   1.202   4.606  11.654  0.4256  0.6714 -0.8536
30830SOL    HW1 1268   1.170   4.567  11.735  0.3367  0.4137 -1.0114
30830SOL    HW2 1269   1.278   4.553  11.629 -0.4016 -0.1627 -1.7003
30831SOL     OW 1270   7.121   7.343   0.365 -0.4044  0.2744 -0.3417
30831SOL    HW1 1271   7.125   7.349   0.461  1.9832  0.1461 -0.3574
30831SOL    HW2 1272   7.139   7.251   0.346 -1.5976  0.1494 -0.9113
30832SOL     OW 1273   7.266  12.523   9.274 -0.3149 -0.4675  0.1175
30832SOL    HW1 1274   7.181  12.544   9.312 -0.5925 -1.4330  0.0742
30832SOL    HW2 1275   7.329  12.541   9.344 -0.6536 -0.6160  0.4658
30833SOL     OW 1276   4.352   0.290   7.166 -0.4196 -0.0253  0.3770
30833SOL    HW1 1277   4.397   0.208   7.187 -0.6979 -0.8831 -2.0597
30833SOL    HW2 1278   4.373   0.348   7.239  1.1506 -1.7401  1.3767
30834SOL     OW 1279   9.676   5.224   2.653 -0.2743 -0.6196  0.4814
30834SOL    HW1 1280   9.675   5.310   2.612  0.5934 -1.2973 -1.0576
30834SOL    HW2 1281   9.693   5.163   2.580 -0.1366 -2.0212  1.6399
30835SOL     OW 1282   2.555   9.250   4.232 -0.1520 -0.1950 -0.4128
30835SOL    HW1 1283   2.547   9.317   4.299  0.5968 -0.7127  0.2165
30835SOL    HW2 1284   2.532   9.294   4.150  0.9843  1.0192 -0.1079
30836SOL     OW 1285   0.377   1.044   7.380 -0.0726  0.2607  0.0204
30836SOL    HW1 1286   0.411   1.025   7.293 -1.6975 -0.3209 -0.5231
30836SOL    HW2 1287   0.344   0.960   7.412 -0.0647  0.5963  0.9414
30837SOL     OW 1288   7.796   2.265  10.303 -0.4006  0.0489  0.3068
30837SOL    HW1 1289   7.829   2.351  10.327 -1.7817  0.5786  0.3551
30837SOL    HW2 1290   7.701   2.273  10.308 -0.5591 -1.3892  0.0060
30838SOL     OW 1291   6.021   3.908   5.820  0.1888  0.3763  0.2634
30838SOL    HW1 1292   6.074   3.972   5.868 -0.9117  1.1234  0.5021
30838SOL    HW2 1293   5.931   3.926   5.846 -0.1928 -0.9537 -0.0496
30839SOL     OW 1294   0.122   4.819   3.003 -0.1499 -0.5584 -0.1304
30839SOL    HW1 1295   0.100   4.812   3.095  0.9378 -2.5000  0.0245
30839SOL    HW2 1296   0.039   4.805   2.957 -0.6297  0.0756  0.5244
30840SOL     OW 1297   1.038   5.453   0.911  0.3285  0.5634  0.0523
30840SOL    HW1 1298   1.098   5.524   0.888  1.3461  0.6107  2.5407
30840SOL    HW2 1299   0.989   5.486   0.986  1.4344 -1.6002  1.8494
30841SOL     OW 1300   4.910  10.346   7.835 -0.3208  0.1678  0.1280
30841SOL    HW1 1301   4.917  10.413   7.766 -0.5363  0.2986  0.2304
30841SOL    HW2 1302   4.999  10.314   7.847  0.1905  1.9251  1.5460
30842SOL     OW 1303   9.673   2.448   0.462 -0.0823  0.4126 -0.0496
30842SOL    HW1 1304   9.675   2.478   0.371  1.1083  0.2574 -0.0946
30842SOL    HW2 1305   9.686   2.354   0.457  0.7667  0.5013  0.3115
30843SOL     OW 1306   7.337   3.071  11.622  0.3553  0.4397  0.0031
30843SOL    HW1 1307   7.431   3.067  11.610  0.3037  2.1729 -1.4727
30843SOL    HW2 1308   7.314   3.162  11.603 -1.4299  0.4751  1.9049
30844SOL     OW 1309   6.842   5.585   8.464 -0.6072 -0.7880 -0.4092
30844SOL    HW1 1310   6.904   5.533   8.413 -0.3832 -0.3383 -0.6044
30844SOL    HW2 1311   6.895   5.625   8.534 -0.4403  0.4711 -1.2177
30845SOL     OW 1312   1.221   1.716   1.132  0.3550 -0.1564  0.0163
30845SOL    HW1 1313   1.235   1.638   1.078  2.8748  1.3834 -1.7896
30845SOL    HW2 1314   1.216   1.683   1.221  1.6761 -2.3927 -0.6498
30846SOL     OW 1315   8.335  11.848   9.900 -0.3283 -0.1004  0.0363
30846SOL    HW1 1316   8.244  11.877   9.892 -0.1274  0.2658 -1.1668
30846SOL    HW2 1317   8.330  11.767   9.951 -1.7441 -1.8495 -2.6348
30847SOL     OW 1318   0.253   1.018   0.340 -0.7423  0.1652  0.3755
30847SOL    HW1 1319   0.208   0.952   0.287 -0.4800 -0.9163  1.4462
30847SOL    HW2 1320   0.336   0.976   0.363 -0.9857  0.4742  1.8906
30848SOL     OW 1321   0.193   6.455   9.445 -0.5608 -0.6146 -0.1567
30848SOL    HW1 1322   0.115   6.405   9.422 -1.2425  0.2719  0.1871
30848SOL    HW2 1323   0.160   6.533   9.490  0.4760  0.1668 -0.6983
30849SOL     OW 1324   8.837   0.018   1.670  0.2757 -0.3615  0.3762
30849SOL    HW1 1325   8.818   0.111   1.682  1.0507 -0.0857 -0.3780
30849SOL    HW2 1326   8.916   0.003   1.722  0.2708 -0.5448  0.3312
30850SOL     OW 1327   7.617   9.873   8.836  0.0853  0.1311  0.2404
30850SOL    HW1 1328   7.550   9.848   8.900  0.4534  0.0992  0.6185
30850SOL    HW2 1329   7.611   9.806   8.768  1.8758 -1.7553  1.8232
30851SOL     OW 1330  10.697   3.734   0.633  0.2122  0.2286 -0.6591
30851SOL    HW1 1331  10.624   3.714   0.574  0.3824  0.2847 -0.8902
30851SOL    HW2 1332  10.730   3.648   0.659  0.1754  0.2032 -0.6944
30852SOL     OW 1333   6.023   1.627   5.398  0.0159 -0.0021 -0.1069
30852SOL    HW1 1334   6.073   1.651   5.320 -0.0568  1.0386  0.1456
30852SOL    HW2 1335   6.067   1.672   5.470 -1.5441  1.3754  0.0568
30853SOL     OW 1336   0.806   7.207   5.225 -0.4081  0.5700  0.3210
30853SOL    HW1 1337   0.870   7.219   5.296 -0.5635  0.7611  0.4327
30853SOL    HW2 1338   0.784   7.297   5.198 -1.5204  0.5609  1.0974
30854SOL     OW 1339  11.076   0.354   0.937  0.5401  0.1738  0.1612
30854SOL    HW1 1340  11.097   0.345   1.030  0.1281  0.5510  0.2931
30854SOL    HW2 1341  11.022   0.277   0.917 -0.3871  0.7161  0.5331
30855SOL     OW 1342   3.214  12.366   5.511 -0.1649 -0.4937  0.4268
30855SOL    HW1 1343   3.119  12.353   5.511 -0.0369 -1.6914 -0.7363
30855SOL    HW2 1344   3.227  12.444   5.457 -0.5145 -0.0304  1.0081
30856SOL     OW 1345   3.011  10.101  11.658  0.2335 -0.1362  0.0013
30856SOL    HW1 1346   3.033  10.089  11.751  1.0973  1.1585 -0.0078
30856SOL    HW2 1347   2.916  10.102  11.655  0.1961 -0.3923  0.8419
30857SOL     OW 1348   1.284   3.740   0.199 -0.4226  0.4825  0.1946
30857SOL    HW1 1349   1.249   3.705   0.281 -1.3052  0.7943 -0.0376
30857SOL    HW2 1350   1.253   3.830   0.195  2.8535  1.8046  1.3807
30858SOL     OW 1351  10.871   1.630   7.377 -0.2562 -0.2133 -0.0882
30858SOL    HW1 1352  10.938   1.637   7.309  0.0370 -1.1385  0.0898
30858SOL    HW2 1353  10.861   1.719   7.411  1.1839 -0.1288  0.1715
30859SOL     OW 1354  12.309   7.655   9.054  0.2924 -0.1689 -0.4379
30859SOL    HW1 1355  12.343   7.600   9.125 -2.6363 -0.8365  0.5823
30859SOL    HW2 1356  12.357   7.737   9.063  3.5673 -1.8442 -0.9260
30860SOL     OW 1357   2.188  10.948   0.563  0.5279 -0.2147 -0.3413
30860SOL    HW1 1358   2.138  11.013   0.514 -2.2389 -1.3776  0.7151
30860SOL    HW2 1359   2.122  10.903   0.617  2.9381 -1.0173  2.1735
30861SOL     OW 1360   8.913   5.538   6.465  0.5506 -0.2921 -0.0334
30861SOL    HW1 1361   8.848   5.599   6.430 -0.5000 -0.3496  1.7145
30861SOL    HW2 1362   8.949   5.582   6.542 -0.4307 -1.9355  1.4273
30862SOL     OW 1363   4.610   4.683   9.574  0.0675 -0.5173 -0.4713
30862SOL    HW1 1364   4.560   4.603   9.559 -0.2441 -0.5980  0.8896
30862SOL    HW2 1365   4.637   4.677   9.666  0.7141  0.5683 -0.5796
30863SOL     OW 1366  12.448   3.485   2.851  0.5518 -0.2269 -0.4381
30863SOL    HW1 1367  12.433   3.550   2.782 -0.6840 -0.5684 -0.5253
30863SOL    HW2 1368  12.528   3.514   2.894  0.5369  0.8302 -1.0719
30864SOL     OW 1369   9.094   3.875   4.605  0.6482  0.8795  0.0514
30864SOL    HW1 1370   9.180   3.835   4.619  0.7288  0.6049 -1.1925
30864SOL    HW2 1371   9.111   3.969   4.607  0.8168  0.8423  0.7243
30865SOL     OW 1372   5.783   5.779  10.490  0.3123  0.2664  0.0208
30865SOL    HW1 1373   5.809   5.819  10.408 -2.4153 -0.9700 -1.6116
30865SOL    HW2 1374   5.824   5.692  10.489 -0.5615 -0.1502 -0.5854
30866SOL     OW 1375   9.024   8.609  11.888 -0.2645  0.0914 -0.0120
30866SOL    HW1 1376   9.003   8.669  11.959 -0.2903 -0.8018  0.7503
30866SOL    HW2 1377   9.101   8.647  11.846  0.1031  0.3311  0.8558
30867SOL     OW 1378  11.406   7.248   9.256  1.0247 -0.5548 -0.1107
30867SOL    HW1 1379  11.361   7.165   9.241 -1.5618  0.8422 -0.6794
30867SOL    HW2 1380  11.381   7.273   9.345  0.1557  0.4981 -0.6296
30868SOL     OW 1381  10.266  11.367  11.967 -0.9196  0.1571  0.5676
30868SOL    HW1 1382  10.268  11.282  11.923 -0.9539  0.1295  0.6196
30868SOL    HW2 1383  10.249  11.430  11.896 -0.5281  0.1597  0.4700
30869SOL     OW 1384   3.577   3.495   5.984  0.2706 -0.2776  0.6296
30869SOL    HW1 1385   3.589   3.583   5.949  0.2523  0.8615  3.2491
30869SOL    HW2 1386   3.497   3.463   5.941  0.9141  0.4672 -1.2360
30870SOL     OW 1387   1.233   9.418   3.607 -0.1320  0.4205  0.2179
30870SOL    HW1 1388   1.171   9.391   3.540  1.0533  1.5992 -1.4170
30870SOL    HW2 1389   1.220   9.512   3.616 -0.0526  0.3361  1.4493
30871SOL     OW 1390   5.765  12.272  10.477 -0.5665  0.1503 -0.4747
30871SOL    HW1 1391   5.681  12.232  10.456 -0.6279 -0.0153  0.0650
30871SOL    HW2 1392   5.743  12.344  10.537 -0.3982  0.6095 -0.9629
30872SOL     OW 1393   0.181   0.068   3.887  0.1348 -0.2115 -0.0096
30872SOL    HW1 1394   0.131   0.113   3.819 -1.3315  0.7077  1.6060
30872SOL    HW2 1395   0.181  -0.024   3.861  0.1293  0.1991 -1.5303
30873SOL     OW 1396   8.672   4.750   8.170 -0.0381 -0.0400  0.4171
30873SOL    HW1 1397   8.583   4.724   8.193 -0.6819  1.3437 -0.3937
30873SOL    HW2 1398   8.681   4.726   8.078  0.2658  0.2299  0.3742
30874SOL     OW 1399  10.193   3.028   0.540 -0.6272 -0.5199 -0.0894
30874SOL    HW1 1400  10.205   3.061   0.629  0.9024 -0.3829 -0.3141
30874SOL    HW2 1401  10.270   2.972   0.525 -0.5060 -0.0091 -1.5479
30875SOL     OW 1402   5.165   1.226   0.838 -0.3501 -0.3748 -0.3761
30875SOL    HW1 1403   5.207   1.152   0.795 -0.2025 -1.1017  0.9847
30875SOL    HW2 1404   5.136   1.192   0.923 -1.4642  0.7733 -0.2650
30876SOL     OW 1405   1.978   2.554   3.645 -0.2509 -0.3372 -0.2687
30876SOL    HW1 1406   1.891   2.516   3.653 -0.0570 -1.1329 -1.6750
30876SOL    HW2 1407   1.982   2.586   3.555  1.2683 -1.2921 -0.5812
30877SOL     OW 1408  10.156  10.099   1.642 -0.1755 -0.5121 -0.1423
30877SOL    HW1 1409  10.169  10.110   1.548 -0.8825 -0.0670 -0.1931
30877SOL    HW2 1410  10.218  10.160   1.682  1.0926 -1.6716 -0.2762
30878SOL     OW 1411   7.895   0.878   7.369  0.4119  0.3500 -0.0025
30878SOL    HW1 1412   7.907   0.966   7.405  2.4789  0.5967 -1.1365
30878SOL    HW2 1413   7.939   0.881   7.284 -1.9924 -0.9761 -1.3955
30879SOL     OW 1414   5.395   9.727  12.248 -0.5508 -0.5728 -0.0649
30879SOL    HW1 1415   5.478   9.701  12.289 -0.0115  0.3887 -0.5043
30879SOL    HW2 1416   5.416   9.735  12.155 -1.0677 -0.0705 -0.1443
30880SOL     OW 1417  10.005   1.778   8.404 -0.1253 -0.4164  0.6114
30880SOL    HW1 1418  10.051   1.716   8.346 -2.1592 -3.0496  1.6000
30880SOL    HW2 1419   9.944   1.824   8.347 -1.1452 -2.0062  0.3442
30881SOL     OW 1420   9.706   7.291   0.835 -0.1845  0.3790 -0.2631
30881SOL    HW1 1421   9.774   7.322   0.896 -0.4859  0.3963  0.0667
30881SOL    HW2 1422   9.629   7.344   0.856 -0.4292  0.0519 -0.3304
30882SOL     OW 1423   1.574   5.035   1.908 -0.0824 -0.4863 -0.2760
30882SOL    HW1 1424   1.645   5.037   1.973 -0.4813  0.0306  0.1584
30882SOL    HW2 1425   1.507   5.093   1.945 -1.0227 -1.4982 -0.3498
30883SOL     OW 1426  11.026   3.986   6.103 -0.7282  0.2116  0.0833
30883SOL    HW1 1427  10.983   3.929   6.166 -0.4839  0.4127  0.4376
30883SOL    HW2 1428  10.979   3.972   6.021 -0.3136 -0.9400  0.0127
30884SOL     OW 1429   4.931   4.512   9.983 -0.0956  0.3902 -0.6306
30884SOL    HW1 1430   4.992   4.550   9.920  1.8569  1.7814  1.9062
30884SOL    HW2 1431   4.866   4.580   9.997  1.8331  1.9013  1.8200
30885SOL     OW 1432  10.959  12.315   0.285 -0.4040 -0.1132  0.7030
30885SOL    HW1 1433  11.016  12.330   0.209  0.4348 -2.8720  0.6708
30885SOL    HW2 1434  10.870  12.328   0.251 -0.0066 -0.5666 -0.5743
30886SOL     OW 1435   7.596   5.608   2.742  0.4030  0.2547 -0.1236
30886SOL    HW1 1436   7.667   5.551   2.712  0.5013  0.2116  0.1876
30886SOL    HW2 1437   7.632   5.652   2.819 -0.0387 -0.0504  0.2652
30887SOL     OW 1438   7.635   0.799   1.511  0.0950  0.0324 -0.4482
30887SOL    HW1 1439   7.704   0.859   1.484 -0.4887  0.5498 -0.8138
30887SOL    HW2 1440   7.618   0.747   1.433 -0.3523  0.3213 -0.5450
30888SOL     OW 1441   0.912   9.539   0.165  0.8477  0.4424  1.0754
30888SOL    HW1 1442   0.900   9.524   0.071  1.6864  0.9028  0.8861
30888SOL    HW2 1443   0.893   9.454   0.205  1.6385 -0.0765  0.3820
30889SOL     OW 1444   5.050   7.847  10.534  0.3807  0.2548  0.0881
30889SOL    HW1 1445   5.096   7.920  10.494 -1.1381  0.7414 -0.8864
30889SOL    HW2 1446   5.009   7.802  10.459 -0.3346 -0.4054  0.8567
30890SOL     OW 1447   1.912   7.836  11.635 -0.4456 -0.2974 -0.2123
30890SOL    HW1 1448   1.955   7.855  11.552  0.7582 -3.9529 -0.6207
30890SOL    HW2 1449   1.821   7.864  11.623 -0.1266 -0.0976 -2.5102
30891SOL     OW 1450   4.409  11.232  10.578 -0.7667 -0.8177 -0.1380
30891SOL    HW1 1451   4.456  11.276  10.507 -0.2050 -1.7753 -0.3755
30891SOL    HW2 1452   4.325  11.278  10.584  0.2986  1.1876  0.5369
30892SOL     OW 1453   3.196   0.363   8.521 -0.1813  0.8268 -0.5588
30892SOL    HW1 1454   3.176   0.438   8.577  0.4908  1.4534 -1.1319
30892SOL    HW2 1455   3.231   0.297   8.581  0.1303  1.3307 -0.1816
30893SOL     OW 1456  12.451  11.882   9.161 -0.2716 -0.1932  0.4944
30893SOL    HW1 1457  12.398  11.894   9.240 -0.6683  1.9230 -0.0208
30893SOL    HW2 1458  12.541  11.883   9.192 -0.4108  0.9839  0.9215
30894SOL     OW 1459   2.604   5.028  11.889  0.3128  0.5613  1.0458
30894SOL    HW1 1460   2.527   4.990  11.933  0.8749 -2.0426 -0.0765
30894SOL    HW2 1461   2.578   5.119  11.872 -3.5263 -0.7389 -1.3460
30895SOL     OW 1462   0.508   2.146   0.769 -0.7614 -0.0731 -0.4152
30895SOL    HW1 1463   0.474   2.227   0.733  1.2816  0.6789 -0.8130
30895SOL    HW2 1464   0.459   2.077   0.725 -1.4386  0.9098 -1.2468
30896SOL     OW 1465   0.050   3.227   3.628 -0.1127 -0.6260  0.0391
30896SOL    HW1 1466   0.028   3.207   3.537  0.1449  1.2753 -0.4919
30896SOL    HW2 1467  -0.034   3.249   3.669 -0.0636 -0.1904 -0.0960
30897SOL     OW 1468   4.094   9.120  11.930 -0.8587 -0.7352  0.2333
30897SOL    HW1 1469   4.188   9.132  11.941 -1.0554  0.4944  0.8776
30897SOL    HW2 1470   4.065   9.084  12.014 -1.1526  0.3820  0.6406
30898SOL     OW 1471  10.978   5.924   2.308  0.1499 -0.0257 -0.2665
30898SOL    HW1 1472  10.953   5.860   2.241  0.0230  0.8975 -1.1270
30898SOL    HW2 1473  11.054   5.969   2.271 -1.3254  2.1265 -0.8944
30899SOL     OW 1474   4.674   8.092   8.769  0.9664 -0.0597  0.3464
30899SOL    HW1 1475   4.677   7.999   8.792  1.8570 -0.1283 -0.0295
30899SOL    HW2 1476   4.725   8.099   8.689  0.7417  0.7278  0.2617
30900SOL     OW 1477   7.170   1.639   7.024  0.0240 -0.3619 -0.0281
30900SOL    HW1 1478   7.140   1.549   7.008 -1.4512  0.1637 -0.3536
30900SOL    HW2 1479   7.123   1.665   7.103  0.2615  0.2155 -0.0786
30901SOL     OW 1480   3.710   9.652   5.503  0.3749  0.0198 -0.1952
30901SOL    HW1 1481   3.646   9.707   5.548  0.3850  0.2607 -0.4693
30901SOL    HW2 1482   3.701   9.675   5.411 -0.6474 -1.5105 -0.5059
30902SOL     OW 1483  11.194  10.049   4.451  0.0391 -0.2032  0.0102
30902SOL    HW1 1484  11.204   9.957   4.424  0.0462  0.5482 -2.9068
30902SOL    HW2 1485  11.273  10.068   4.500  0.4869 -1.5132 -0.1527
30903SOL     OW 1486   5.707   0.137   8.462  0.2634 -0.1912 -0.1771
30903SOL    HW1 1487   5.709   0.081   8.540  0.6885  0.2007  0.0933
30903SOL    HW2 1488   5.618   0.128   8.429  0.3494 -1.1176 -0.2006
30904SOL     OW 1489   4.398   9.231   8.804  0.1277  0.8047  0.1998
30904SOL    HW1 1490   4.357   9.158   8.852 -1.1843  1.6325  0.4039
30904SOL    HW2 1491   4.437   9.190   8.727 -0.6714 -0.1168  0.2611
30905SOL     OW 1492   0.936   0.542   3.391 -0.0177 -0.2449 -0.8224
30905SOL    HW1 1493   1.030   0.533   3.409 -0.0192  0.3682 -0.4870
30905SOL    HW2 1494   0.914   0.464   3.340  0.2232 -1.4827  0.8695
30906SOL     OW 1495   4.044   1.767   5.311  0.3195 -0.0036 -0.7171
30906SOL    HW1 1496   4.133   1.740   5.335  0.9838  0.4902 -2.5302
30906SOL    HW2 1497   4.036   1.746   5.218 -0.8212  1.6270 -1.0275
30907SOL     OW 1498  10.254   9.052   6.364 -0.3864 -0.5860  0.0076
30907SOL    HW1 1499  10.216   8.969   6.395 -0.9138 -0.0997  0.6852
30907SOL    HW2 1500  10.201   9.120   6.406  0.3933  0.1031 -0.1070
30908SOL     OW 1501  12.338   7.788   1.606  1.1428 -0.3161  0.4760
30908SOL    HW1 1502  12.286   7.714   1.575 -1.8527  1.5420  0.7302
30908SOL    HW2 1503  12.326   7.788   1.701  0.2615  1.0517  0.3843
30909SOL     OW 1504   1.635   9.497   3.556  0.6415 -0.4218  0.0215
30909SOL    HW1 1505   1.647   9.537   3.642 -0.3682  1.0641 -0.4881
30909SOL    HW2 1506   1.548   9.527   3.528  0.9978 -0.7903 -1.5564
30910SOL     OW 1507   3.274   2.804   2.562  0.5684  0.0193  0.0341
30910SOL    HW1 1508   3.228   2.721   2.549  2.8896 -1.1181 -1.7363
30910SOL    HW2 1509   3.271   2.847   2.477 -1.5316  2.3759  1.1927
30911SOL     OW 1510   5.128   2.238   7.334 -0.0791 -0.3657 -0.0486
30911SOL    HW1 1511   5.037   2.210   7.327  0.1366 -1.0957 -0.0780
30911SOL    HW2 1512   5.133   2.284   7.417 -0.3993 -0.6363  0.1240
30912SOL     OW 1513   5.089  12.038  11.874 -0.1977  0.2831 -0.0089
30912SOL    HW1 1514   5.079  12.119  11.824  1.2135 -1.9189 -4.3405
30912SOL    HW2 1515   5.002  11.998  11.871 -0.2635  0.4336 -0.1568
30913SOL     OW 1516   2.662   9.681  10.572  0.4145  0.7891  0.1735
30913SOL    HW1 1517   2.635   9.629  10.648  1.0599  0.3986  0.1393
30913SOL    HW2 1518   2.627   9.769  10.589 -0.4621  0.4143  0.3505
30914SOL     OW 1519   1.328   4.429   0.630  0.5439 -0.0222 -0.1315
30914SOL    HW1 1520   1.256   4.489   0.649  0.6510  0.0372  0.1001
30914SOL    HW2 1521   1.299   4.345   0.667  0.2475 -0.2026 -0.7567
30915SOL     OW 1522   4.630   3.562   2.838 -0.6293 -0.9436  0.5202
30915SOL    HW1 1523   4.670   3.476   2.850  0.0731 -1.0637 -2.0754
30915SOL    HW2 1524   4.578   3.554   2.758 -3.2781  0.1698  1.9953
30916SOL     OW 1525   3.249   7.552   9.721 -0.6631  0.1207  0.3421
30916SOL    HW1 1526   3.269   7.490   9.791 -0.0106  0.6624  0.6420
30916SOL    HW2 1527   3.271   7.505   9.640  1.8372  0.6515  0.6360
30917SOL     OW 1528  11.426   2.691   3.796 -0.8443  0.6016 -0.1612
30917SOL    HW1 1529  11.504   2.714   3.846 -0.1100 -0.1767 -0.9041
30917SOL    HW2 1530  11.437   2.736   3.712  0.0378 -1.3518 -1.1911
30918SOL     OW 1531   2.124   5.821  11.458 -0.1217  0.6438  0.0439
30918SOL    HW1 1532   2.110   5.834  11.552  0.8110  0.4851  0.2136
30918SOL    HW2 1533   2.210   5.778  11.452 -0.1408  0.7181 -0.8816
30919SOL     OW 1534   4.148   0.681  12.159  0.1835  0.4076  0.0312
30919SOL    HW1 1535   4.124   0.724  12.077  1.0741  0.5579 -0.1528
30919SOL    HW2 1536   4.233   0.640  12.141 -0.4161 -1.0527  0.3303
30920SOL     OW 1537   3.878   4.819   0.538 -0.3612 -0.3089  0.2759
30920SOL    HW1 1538   3.799   4.846   0.583 -0.9777 -1.1045 -0.2971
30920SOL    HW2 1539   3.916   4.901   0.505 -0.8193  0.0982  0.7435
30921SOL     OW 1540   9.900   9.103   1.493  0.4963 -0.1270 -0.4790
30921SOL    HW1 1541   9.908   9.093   1.398  3.0848  0.1227 -0.3584
30921SOL    HW2 1542   9.915   9.196   1.510 -0.7298 -0.0196  0.1465
30922SOL     OW 1543   8.219   0.336  10.304 -0.6972 -0.0105  0.2728
30922SOL    HW1 1544   8.305   0.334  10.262  0.2345 -0.5727  2.1028
30922SOL    HW2 1545   8.217   0.257  10.357 -2.4401 -0.0850  0.1447
30923SOL     OW 1546  11.774   7.084   7.429  0.1542 -0.1716 -0.1838
30923SOL    HW1 1547  11.766   7.097   7.523  0.6319 -0.1339 -0.1415
30923SOL    HW2 1548  11.815   6.998   7.420  0.0823 -0.1875 -0.3563
30924SOL     OW 1549   5.975   7.991   0.243 -0.0021  0.1269  0.2626
30924SOL    HW1 1550   5.987   8.083   0.265  2.1349 -0.0587  0.1096
30924SOL    HW2 1551   5.975   7.946   0.328  0.7667  0.1193  0.2684
30925SOL     OW 1552   3.017   7.511   7.240 -0.1956 -0.3702  0.4478
30925SOL    HW1 1553   3.002   7.425   7.201  0.1866 -0.2884  0.1076
30925SOL    HW2 1554   3.026   7.494   7.333 -4.7645 -0.1671  1.1455
30926SOL     OW 1555  10.558   6.610   9.752  0.2666  0.2024  0.1578
30926SOL    HW1 1556  10.562   6.515   9.755 -0.2935  0.1936  2.3522
30926SOL    HW2 1557  10.466   6.630   9.733  0.0107  0.2788  1.4116
30927SOL     OW 1558   8.765   0.015  10.386 -0.0346 -0.2103 -0.7051
30927SOL    HW1 1559   8.805   0.101  10.377 -0.2850  0.0913  0.7682
30927SOL    HW2 1560   8.824  -0.044  10.339  0.3607  0.7007 -1.3702
30928SOL     OW 1561   4.281   7.932   6.118  0.2062 -0.4893 -0.0470
30928SOL    HW1 1562   4.328   7.995   6.173 -1.0704  0.5949 -0.1635
30928SOL    HW2 1563   4.225   7.884   6.180  0.4250 -0.8148 -0.0990
30929SOL     OW 1564   2.126   0.751   9.220 -0.6029  0.4600 -0.0464
30929SOL    HW1 1565   2.094   0.804   9.147 -2.3907 -0.2446  0.1750
30929SOL    HW2 1566   2.181   0.811   9.271  1.4700  0.7027 -2.4187
30930SOL     OW 1567   4.796   4.452   0.894 -0.0190  0.1647  0.1466
30930SOL    HW1 1568   4.841   4.533   0.917 -0.0694  0.5100 -0.9352
30930SOL    HW2 1569   4.768   4.464   0.803 -0.4402 -0.8768  0.1203
30931SOL     OW 1570  10.422   1.269  11.397 -0.0908 -0.3074  0.2333
30931SOL    HW1 1571  10.357   1.270  11.467 -1.4354  0.8194 -0.9672
30931SOL    HW2 1572  10.400   1.345  11.343  1.4000 -0.6884 -0.9655
30932SOL     OW 1573   2.657   3.412   8.370  0.3142 -0.4845  0.2011
30932SOL    HW1 1574   2.652   3.507   8.360 -1.1050 -0.4531  0.9397
30932SOL    HW2 1575   2.586   3.378   8.316 -0.6920 -0.9534  1.7648
30933SOL     OW 1576   5.368   8.458   5.160 -0.2942 -0.6160 -0.2836
30933SOL    HW1 1577   5.461   8.436   5.172  0.7082  1.5349 -3.0318
30933SOL    HW2 1578   5.345   8.508   5.238  1.5942  0.7729 -0.5512
30934SOL     OW 1579  10.071   5.085   9.827  0.0990 -0.0884 -0.6033
30934SOL    HW1 1580  10.096   5.001   9.865  1.6793 -0.4784 -2.3745
30934SOL    HW2 1581   9.975   5.087   9.835  0.0647 -1.8644 -0.1502
30935SOL     OW 1582   2.841   4.204   8.948 -0.1785 -0.0854 -0.2562
30935SOL    HW1 1583   2.806   4.288   8.918 -1.3432 -0.4483  0.0698
30935SOL    HW2 1584   2.812   4.197   9.039  0.0734 -0.7610 -0.2237
30936SOL     OW 1585  11.468   9.605   9.182 -0.0272  0.4592  0.4416
30936SOL    HW1 1586  11.524   9.669   9.227 -1.3877  2.5600 -0.6886
30936SOL    HW2 1587  11.525   9.566   9.115  0.6115  1.1431  0.5763
30937SOL     OW 1588  10.606   8.788   2.733 -0.3590 -0.0386  0.1631
30937SOL    HW1 1589  10.674   8.744   2.681  0.0666 -2.0031  2.2230
30937SOL    HW2 1590  10.536   8.807   2.670  0.4840 -1.5254 -1.2987
30938SOL     OW 1591   3.589  11.173   6.609  0.2085 -0.0825  0.0769
30938SOL    HW1 1592   3.553  11.247   6.560 -0.8816  0.9326  2.2489
30938SOL    HW2 1593   3.521  11.106   6.603  0.5052 -0.3241 -0.5985
30939SOL     OW 1594   5.112  11.558   0.684 -1.0332  0.7835  0.4901
30939SOL    HW1 1595   5.129  11.599   0.768  0.6619 -1.9610  1.6082
30939SOL    HW2 1596   5.140  11.467   0.695 -1.9196 -0.0009 -2.6671
30940SOL     OW 1597  12.058   2.754  12.126  0.2950  0.2403 -0.1781
30940SOL    HW1 1598  12.064   2.839  12.170 -2.1253  1.1059 -1.3221
30940SOL    HW2 1599  12.135   2.706  12.155  1.6810  2.7701  0.6152
30941SOL     OW 1600   0.697   7.374   6.549  0.5737 -0.1425  0.0681
30941SOL    HW1 1601   0.653   7.460   6.550  0.0845 -0.3851  0.9183
30941SOL    HW2 1602   0.723   7.361   6.458  0.8244  0.9985 -0.0418
30942SOL     OW 1603   7.106   7.046   1.630  0.2286 -0.0514  0.1166
30942SOL    HW1 1604   7.168   6.979   1.660 -0.2407  0.2371  1.8795
30942SOL    HW2 1605   7.156   7.100   1.569  0.7664 -1.6954 -0.9559
30943SOL     OW 1606   2.686   8.272   8.137 -0.0423 -0.0908  0.5422
30943SOL    HW1 1607   2.700   8.307   8.226  1.3137 -1.0529  0.7334
30943SOL    HW2 1608   2.615   8.326   8.102  0.3345  1.2381  1.7008
30944SOL     OW 1609   9.404  11.025   8.459 -0.4900  0.0018 -0.1702
30944SOL    HW1 1610   9.404  11.066   8.545 -0.1435  0.0343 -0.1845
30944SOL    HW2 1611   9.451  10.943   8.470 -0.0710  0.2014 -0.4148
30945SOL     OW 1612   1.627   4.939   9.164  0.7903 -0.0465 -0.2356
30945SOL    HW1 1613   1.701   4.973   9.113 -0.8336  1.1903 -1.9500
30945SOL    HW2 1614   1.575   4.891   9.100 -2.3126  3.1398 -0.3927
30946SOL     OW 1615   9.982   2.451   8.122 -0.2411  0.0959  0.2231
30946SOL    HW1 1616   9.958   2.480   8.034 -2.0252  1.3242  1.0427
30946SOL    HW2 1617   9.959   2.525   8.178  2.9509  0.2529  1.5254
30947SOL     OW 1618   7.762   5.281  12.263 -0.1168  0.4844 -0.9967
30947SOL    HW1 1619   7.683   5.268  12.316  1.1560 -0.0805  0.8628
30947SOL    HW2 1620   7.729   5.310  12.178 -2.2281  2.5351  0.4006
30948SOL     OW 1621   5.497   2.821   0.737  0.2047  0.0571 -0.4829
30948SOL    HW1 1622   5.454   2.777   0.664  0.1898  0.4073 -0.6894
30948SOL    HW2 1623   5.439   2.806   0.812  0.3580 -0.5410 -0.4738
30949SOL     OW 1624   0.329  12.220  11.771 -0.1316 -0.2096  0.4515
30949SOL    HW1 1625   0.245  12.174  11.765 -1.3109  1.9103 -0.4883
30949SOL    HW2 1626   0.345  12.228  11.865 -1.3665 -0.0508  0.6654
30950SOL     OW 1627   3.440   0.002   9.998 -0.1349  0.2834 -0.3215
30950SOL    HW1 1628   3.432  -0.077  10.052  1.7334  0.2680 -0.0216
30950SOL    HW2 1629   3.491  -0.025   9.923 -1.6724  0.6247 -1.5468
30951SOL     OW 1630   3.465   0.006   5.518  0.1248 -0.2854 -0.1233
30951SOL    HW1 1631   3.453  -0.001   5.613 -0.4490  2.3908  0.0887
30951SOL    HW2 1632   3.384   0.047   5.487  1.7937  2.5437 -1.1449
30952SOL     OW 1633   3.798   2.453   0.692 -0.6286  0.0737  0.0102
30952SOL    HW1 1634   3.718   2.506   0.700 -0.7529 -0.3729  2.3046
30952SOL    HW2 1635   3.772   2.367   0.724  0.4985 -0.3930 -0.3145
30953SOL     OW 1636   3.041   2.890   8.753  0.4226  0.2370  0.1399
30953SOL    HW1 1637   2.986   2.930   8.686  0.3927 -1.7558 -1.0835
30953SOL    HW2 1638   3.129   2.894   8.718  0.3472 -1.2249 -0.2434
30954SOL     OW 1639   8.972   0.109  11.520  0.5602 -0.0176  0.4702
30954SOL    HW1 1640   8.910   0.164  11.472  0.8375  1.2145  1.4876
30954SOL    HW2 1641   8.997   0.041  11.457 -1.2821 -0.1526 -0.1860
30955SOL     OW 1642   7.028   7.331   2.847 -0.5794 -0.3846 -0.3435
30955SOL    HW1 1643   7.003   7.349   2.937  1.1112 -0.3226  0.1435
30955SOL    HW2 1644   6.950   7.351   2.796 -2.6187 -3.3386  1.3469
30956SOL     OW 1645   4.593   7.787   5.038  0.3245  0.4019 -0.2843
30956SOL    HW1 1646   4.549   7.722   4.983  0.2657 -1.1097  1.4386
30956SOL    HW2 1647   4.686   7.764   5.033  0.5746  1.5768 -1.3769
30957SOL     OW 1648   0.987  12.256   6.490 -0.2024 -0.1680  0.3306
30957SOL    HW1 1649   1.010  12.185   6.430  0.0040 -0.5940  0.9137
30957SOL    HW2 1650   1.046  12.245   6.564 -2.3737 -1.4279  1.9926
30958SOL     OW 1651   8.290   2.151  10.640 -0.2355  0.2473  0.4941
30958SOL    HW1 1652   8.284   2.068  10.593 -1.1422 -0.1521  1.3177
30958SOL    HW2 1653   8.205   2.193  10.626  0.1004  0.8990  0.3608
30959SOL     OW 1654   4.945   7.994   0.060 -0.1294 -0.1966 -0.2626
30959SOL    HW1 1655   5.020   8.053   0.071  2.1870 -3.1248  1.2675
30959SOL    HW2 1656   4.943   7.976  -0.034  0.0547  1.1272 -0.5414
30960SOL     OW 1657  10.699   0.494   1.368 -0.2683  0.2750  0.0389
30960SOL    HW1 1658  10.655   0.537   1.442  0.9493  0.4856  0.6664
30960SOL    HW2 1659  10.641   0.510   1.293 -0.9880  0.9851  0.7238
30961SOL     OW 1660   8.485   4.195   8.998 -0.7318  0.1784 -0.2650
30961SOL    HW1 1661   8.498   4.256   8.925  2.4720 -0.5649 -0.4589
30961SOL    HW2 1662   8.391   4.175   8.996 -1.2335  2.2934 -2.4368
30962SOL     OW 1663   0.119   5.970  11.669  0.1948  0.1307 -0.0268
30962SOL    HW1 1664   0.079   5.889  11.635 -3.3723  1.7097  0.0029
30962SOL    HW2 1665   0.105   6.034  11.599 -0.5444  1.6224  1.4240
30963SOL     OW 1666   2.795   8.587   9.171 -0.0464 -0.0033 -0.1519
30963SOL    HW1 1667   2.708   8.619   9.145  0.1136  1.9539  1.4309
30963SOL    HW2 1668   2.778   8.534   9.249  0.0321 -1.2175 -0.9304
30964SOL     OW 1669   6.353   3.177   9.066 -0.0775 -0.5544  0.7684
30964SOL    HW1 1670   6.345   3.218   9.152 -0.6737 -0.6731  0.7754
30964SOL    HW2 1671   6.344   3.084   9.083  2.4934 -0.8331  0.9049
30965SOL     OW 1672   5.928   3.159   4.341  0.3791  0.0991 -0.0107
30965SOL    HW1 1673   5.973   3.076   4.321 -0.6166 -0.4160 -0.2073
30965SOL    HW2 1674   5.952   3.217   4.269  1.4035  0.1047  0.3345
30966SOL     OW 1675   7.886   0.876   8.939 -0.4217  0.1126 -0.0296
30966SOL    HW1 1676   7.956   0.916   8.990  0.1990 -1.2362  0.2147
30966SOL    HW2 1677   7.832   0.950   8.910  2.6162  1.5973 -2.5872
30967SOL     OW 1678  12.603   6.155   0.522 -0.3118 -0.2781  0.0821
30967SOL    HW1 1679  12.554   6.122   0.446 -1.2806  0.8471  0.1748
30967SOL    HW2 1680  12.611   6.080   0.580 -0.1584 -0.9882 -0.8367
30968SOL     OW 1681   0.525   1.704   8.798  0.3430 -0.1043  0.0015
30968SOL    HW1 1682   0.476   1.756   8.862  1.5099  1.1036 -0.0276
30968SOL    HW2 1683   0.520   1.755   8.717  2.1303  0.4059  0.1611
30969SOL     OW 1684   4.998   2.429   1.350 -0.5847  0.5146 -0.0741
30969SOL    HW1 1685   5.051   2.358   1.316 -1.2120 -0.7663  1.5130
30969SOL    HW2 1686   4.921   2.387   1.387 -1.8685  2.1780 -0.7075
30970SOL     OW 1687   2.923   1.306   6.065 -0.0453 -0.0399  0.4091
30970SOL    HW1 1688   3.004   1.259   6.043  0.3240 -0.2729  2.0636
30970SOL    HW2 1689   2.883   1.253   6.134  0.3380  1.9208  2.2958
30971SOL     OW 1690  12.334   2.117  12.290  0.2120 -0.4022  0.0819
30971SOL    HW1 1691  12.249   2.127  12.248 -0.5822 -0.2351  1.6497
30971SOL    HW2 1692  12.354   2.024  12.283  0.3026 -0.3144 -0.9985
30972SOL     OW 1693   0.037   7.218   0.939  0.0640  0.3167  0.4510
30972SOL    HW1 1694   0.089   7.229   0.859 -0.8385  0.6353 -0.1075
30972SOL    HW2 1695  -0.010   7.300   0.949 -0.5220 -0.0538  0.8027
30973SOL     OW 1696   0.419   6.014   1.750 -0.8010  0.0826  0.3916
30973SOL    HW1 1697   0.488   5.974   1.698 -0.9252  1.5192 -0.9748
30973SOL    HW2 1698   0.463   6.086   1.796 -1.2145  0.5047  0.1370
30974SOL     OW 1699   7.716   2.409   9.957  0.2050  0.5625 -0.2462
30974SOL    HW1 1700   7.712   2.460   9.876  0.0358  0.1134 -0.5262
30974SOL    HW2 1701   7.687   2.470  10.025  1.0817  1.1784 -0.3998
30975SOL     OW 1702  10.830   6.731   1.251 -0.2327  0.6742 -0.2193
30975SOL    HW1 1703  10.845   6.637   1.236  0.1419  0.7373 -0.2530
30975SOL    HW2 1704  10.788   6.735   1.337 -0.1601  0.4790 -0.1729
30976SOL     OW 1705   6.673   7.846   9.243  0.1903  0.7981 -0.2193
30976SOL    HW1 1706   6.701   7.769   9.194 -0.4672  1.5124 -1.7751
30976SOL    HW2 1707   6.666   7.915   9.178  5.8272  3.8098  1.7236
30977SOL     OW 1708   5.179   8.745   3.063 -0.2326  0.0843 -0.3127
30977SOL    HW1 1709   5.244   8.813   3.080 -0.7349  0.2504  1.1211
30977SOL    HW2 1710   5.104   8.792   3.027 -1.0436  0.5438  1.8091
30978SOL     OW 1711   6.863  12.264   8.121 -0.5070  0.3326 -0.0327
30978SOL    HW1 1712   6.915  12.311   8.186 -0.8263  1.7508 -0.7601
30978SOL    HW2 1713   6.785  12.318   8.109  0.9522  1.9638 -3.9440
30979SOL     OW 1714   8.041   6.392   1.066  0.5257  0.7570 -0.1378
30979SOL    HW1 1715   8.135   6.372   1.070  0.0120 -2.0126 -0.0517
30979SOL    HW2 1716   7.998   6.307   1.057 -1.9740  1.9944 -0.9961
30980SOL     OW 1717  12.274   9.666   7.104  0.6377  0.1794 -0.1153
30980SOL    HW1 1718  12.264   9.586   7.053 -0.9094  0.8121 -0.8609
30980SOL    HW2 1719  12.289   9.735   7.039  0.8154  0.6723  0.4328
30981SOL     OW 1720  12.206   5.650   7.236 -0.1134  0.7416 -0.2342
30981SOL    HW1 1721  12.215   5.626   7.328 -2.0951  1.1361  0.1143
30981SOL    HW2 1722  12.292   5.683   7.211  0.4858  0.5363  1.4512
30982SOL     OW 1723   0.376  10.652   5.705  0.1838  0.5839  0.4756
30982SOL    HW1 1724   0.379  10.580   5.642  0.2894  0.3116  0.7855
30982SOL    HW2 1725   0.439  10.627   5.773 -1.1042  0.0505  1.5346
30983SOL     OW 1726   8.768   9.039   3.782  0.3033  0.1681 -0.1293
30983SOL    HW1 1727   8.753   8.945   3.772  0.0620  0.3175 -1.3397
30983SOL    HW2 1728   8.693   9.081   3.740  1.0112  0.8995 -0.7143
30984SOL     OW 1729   3.639   9.073   9.897 -0.4327 -0.2974  0.8852
30984SOL    HW1 1730   3.643   9.117   9.982 -0.1298 -1.1377  1.3294
30984SOL    HW2 1731   3.681   8.988   9.913  1.9595  0.4687 -0.7201
30985SOL     OW 1732  10.344   2.942  11.790  0.3550  0.5050 -0.5465
30985SOL    HW1 1733  10.248   2.940  11.791  0.2942  2.3095 -0.3873
30985SOL    HW2 1734  10.366   3.022  11.743  1.7393  1.4979  1.6598
30986SOL     OW 1735   8.749  10.343  11.766 -0.0330 -0.3179  0.4033
30986SOL    HW1 1736   8.659  10.356  11.735 -0.2016 -0.0338  0.9833
30986SOL    HW2 1737   8.749  10.255  11.803 -0.3167  0.0024  1.1894
30987SOL     OW 1738   2.344  10.130   0.094 -0.3472 -0.0342  0.5661
30987SOL    HW1 1739   2.369  10.039   0.104 -1.3985 -0.4832 -0.6539
30987SOL    HW2 1740   2.420  10.180   0.122  0.4600 -1.2971  0.6448
30988SOL     OW 1741   5.491  11.429  11.732  0.2168 -0.1935 -0.2142
30988SOL    HW1 1742   5.567  11.467  11.687 -0.1483 -0.7452 -1.3439
30988SOL    HW2 1743   5.525  11.397  11.815  1.2702 -0.6487 -0.8062
30989SOL     OW 1744   6.092  10.299   1.670 -0.2934  0.5029  0.2297
30989SOL    HW1 1745   6.103  10.377   1.725  0.0036  0.8078 -0.2592
30989SOL    HW2 1746   6.140  10.318   1.590 -0.0111 -0.2823  0.1979
30990SOL     OW 1747  11.868   0.855   8.277 -0.1909  0.2069 -0.0439
30990SOL    HW1 1748  11.839   0.890   8.360 -0.1491  2.0958 -0.7768
30990SOL    HW2 1749  11.793   0.865   8.218 -0.9539 -3.0262  0.2062
30991SOL     OW 1750  12.345   2.160  10.774 -0.4330  0.4795  1.0328
30991SOL    HW1 1751  12.324   2.066  10.774 -0.0690  0.3597 -1.0085
30991SOL    HW2 1752  12.342   2.184  10.866 -1.2882 -1.3689  1.5516
30992SOL     OW 1753   3.656   8.980   7.321  0.4484  0.0428 -0.2542
30992SOL    HW1 1754   3.744   8.993   7.288  1.2583 -3.7876 -0.1087
30992SOL    HW2 1755   3.666   8.979   7.416 -0.1821  1.7293 -0.1497
30993SOL     OW 1756   6.511   4.180   5.999 -0.6227 -0.2614 -0.5392
30993SOL    HW1 1757   6.557   4.230   6.066  1.7530 -0.7377 -1.7376
30993SOL    HW2 1758   6.527   4.088   6.021 -2.5581 -0.5277  0.0101
30994SOL     OW 1759   3.134   4.127   5.205 -0.5002  0.3030  0.3156
30994SOL    HW1 1760   3.160   4.099   5.293  2.2969 -2.1633 -1.1273
30994SOL    HW2 1761   3.182   4.208   5.190  1.7984 -1.0270 -0.0404
30995SOL     OW 1762   7.918  11.037   4.299  0.3485 -0.5799  0.4945
30995SOL    HW1 1763   7.947  11.003   4.383  1.1605 -2.0854 -0.3609
30995SOL    HW2 1764   7.884  10.961   4.252 -1.4406  0.4633 -0.0269
30996SOL     OW 1765   7.181  12.140   0.361  0.2508 -0.0421 -1.2472
30996SOL    HW1 1766   7.229  12.202   0.307  2.1201 -0.7525 -0.5008
30996SOL    HW2 1767   7.125  12.092   0.300  0.0924  1.1758 -2.0742
30997SOL     OW 1768   5.688   4.576   9.414  0.4839  0.3973  0.0093
30997SOL    HW1 1769   5.594   4.568   9.434  0.6502  0.9120  1.1280
30997SOL    HW2 1770   5.727   4.495   9.448  0.4661  0.2534 -0.3126
30998SOL     OW 1771   7.459   1.165   6.356 -0.0625  0.1164  0.3134
30998SOL    HW1 1772   7.457   1.124   6.443 -1.8632 -0.6023 -0.0134
30998SOL    HW2 1773   7.543   1.139   6.319  0.0270 -0.9745  1.2118
30999SOL     OW 1774   9.143  10.840   6.590  0.4215 -0.0446 -0.1313
30999SOL    HW1 1775   9.079  10.911   6.600 -2.0912 -1.8334 -2.2008
30999SOL    HW2 1776   9.137  10.791   6.672 -0.0568  0.4056  0.1080
31000SOL     OW 1777   1.806   7.703   7.610 -0.0036 -0.4707  0.0623
31000SOL    HW1 1778   1.860   7.653   7.671  0.9220  0.4799  0.0478
31000SOL    HW2 1779   1.824   7.665   7.524  2.7765  1.5106 -0.3523
31001SOL     OW 1780  10.889   2.933   8.211  0.3319  0.1035 -0.3244
31001SOL    HW1 1781  10.847   2.941   8.126  0.2027  2.2532 -0.1013
31001SOL    HW2 1782  10.980   2.958   8.196  0.2357  0.8118  0.2145
31002SOL     OW 1783   5.186   4.688   3.338  0.1667 -0.5301 -0.0400
31002SOL    HW1 1784   5.278   4.711   3.325  0.2893 -1.9271 -2.0237
31002SOL    HW2 1785   5.179   4.666   3.431  2.0054 -1.1567 -0.0228
31003SOL     OW 1786   1.390   6.827   4.190 -0.0692  0.3864 -0.5950
31003SOL    HW1 1787   1.324   6.883   4.150 -0.2591  0.8577  0.3489
31003SOL    HW2 1788   1.415   6.874   4.270  0.7476 -0.2276 -0.4812
31004SOL     OW 1789   0.319   9.283   0.019  0.4319 -0.5949 -0.0905
31004SOL    HW1 1790   0.350   9.354   0.076  0.7059 -0.3070 -0.5860
31004SOL    HW2 1791   0.397   9.255  -0.028  0.1111 -0.4643 -0.7115
31005SOL     OW 1792  10.173   2.813   5.897  0.2208 -0.1688  0.4181
31005SOL    HW1 1793  10.266   2.792   5.893  0.1504 -0.3335 -3.3586
31005SOL    HW2 1794  10.129   2.736   5.862 -1.2096  0.5748  0.4961
31006SOL     OW 1795   1.865   2.828   0.390  0.1950 -0.0610  0.3957
31006SOL    HW1 1796   1.874   2.847   0.297  0.2098  2.4265  0.8568
31006SOL    HW2 1797   1.774   2.797   0.399 -1.2992  3.6964  0.0561
31007SOL     OW 1798   4.452  10.370   9.990 -0.3470  0.1632  0.3420
31007SOL    HW1 1799   4.430  10.419  10.069 -0.8168  0.7463 -0.1475
31007SOL    HW2 1800   4.372  10.321   9.969 -0.7121  1.1310 -0.5878
31008SOL     OW 1801   6.569   8.407  10.404  0.4435 -0.9491  0.0740
31008SOL    HW1 1802   6.652   8.412  10.450  0.1288 -0.4942  0.6129
31008SOL    HW2 1803   6.504   8.393  10.473 -0.1846  0.9268 -0.0558
31009SOL     OW 1804   7.640   1.429   4.625 -0.1593 -0.8009  0.1600
31009SOL    HW1 1805   7.619   1.444   4.717 -1.2761  1.4965 -0.3743
31009SOL    HW2 1806   7.584   1.356   4.598 -0.6210 -0.7768  1.0348
31010SOL     OW 1807   4.641   6.828   5.297  0.1910  0.0232 -0.3637
31010SOL    HW1 1808   4.659   6.884   5.222 -0.4255  1.6113  0.6123
31010SOL    HW2 1809   4.687   6.746   5.278 -0.0978  0.2965 -2.5299
31011SOL     OW 1810   3.840  11.795  11.654 -0.2550 -0.1199  0.4222
31011SOL    HW1 1811   3.776  11.829  11.592 -0.7671 -0.6174  0.6670
31011SOL    HW2 1812   3.910  11.759  11.599 -0.6331 -0.4183  0.1277
31012SOL     OW 1813   5.301   0.974   2.270 -0.1129  0.2626 -0.0458
31012SOL    HW1 1814   5.226   0.929   2.310 -1.1900  0.5929 -1.6148
31012SOL    HW2 1815   5.373   0.911   2.277 -0.6530 -0.2581  1.0426
31013SOL     OW 1816   4.336   9.754   0.705  0.2922  0.3397  0.6671
31013SOL    HW1 1817   4.349   9.664   0.734 -0.2042 -0.0888 -0.4164
31013SOL    HW2 1818   4.424   9.792   0.702  0.4596  0.0573  1.6044
31014SOL     OW 1819   2.297   6.602   1.936 -0.0065 -0.3905  0.1035
31014SOL    HW1 1820   2.239   6.553   1.878 -1.2534  1.2988 -0.1818
31014SOL    HW2 1821   2.238   6.638   2.003  0.9485  0.1613  0.6705
31015SOL     OW 1822   5.824   7.971  11.820 -0.3453  0.1304 -0.0662
31015SOL    HW1 1823   5.744   7.921  11.806  0.1208 -1.3808  2.1604
31015SOL    HW2 1824   5.829   7.983  11.915  0.4047  3.0953 -0.3739
31016SOL     OW 1825   3.683   5.030   9.053 -0.2223 -0.2573 -0.0904
31016SOL    HW1 1826   3.764   5.057   9.010  0.2473 -2.3540 -0.6503
31016SOL    HW2 1827   3.689   5.069   9.141  2.7206 -2.4140  0.8383
31017SOL     OW 1828   5.180   2.895   7.270  0.5454  0.0201  0.3559
31017SOL    HW1 1829   5.181   2.893   7.366 -0.9855  1.3992  0.4447
31017SOL    HW2 1830   5.196   2.987   7.248  1.8421 -0.4538 -0.7665
31018SOL     OW 1831   8.497   6.846   4.218 -0.1582  0.0021  0.0096
31018SOL    HW1 1832   8.438   6.921   4.205 -5.0743 -3.4441 -0.4689
31018SOL    HW2 1833   8.499   6.834   4.313 -0.5806 -0.0438  0.0182
31019SOL     OW 1834   7.692   9.483   3.618  0.1938  0.2911  0.2585
31019SOL    HW1 1835   7.719   9.407   3.669  0.1463  0.4300  0.4930
31019SOL    HW2 1836   7.767   9.502   3.561 -0.1568 -0.5223 -0.4993
31020SOL     OW 1837   1.151   8.064   8.568 -0.4065  0.1616  0.2281
31020SOL    HW1 1838   1.150   7.999   8.497  0.1995  0.6261 -0.2142
31020SOL    HW2 1839   1.239   8.058   8.604 -0.5705  0.2532  0.6472
31021SOL     OW 1840  12.030   9.078   1.716  0.1428 -0.4322  0.2163
31021SOL    HW1 1841  12.099   9.143   1.703 -0.4597  0.3258  0.7303
31021SOL    HW2 1842  12.003   9.055   1.627  1.1795 -0.8817  0.0037
31022SOL     OW 1843  12.511  10.216   7.218  0.3154  0.1039  0.4169
31022SOL    HW1 1844  12.478  10.196   7.306 -0.1594 -1.3466 -0.0563
31022SOL    HW2 1845  12.565  10.140   7.195 -2.1497 -1.1332 -1.7822
31023SOL     OW 1846  11.542   6.113  12.140 -0.1376 -0.7219  0.1413
31023SOL    HW1 1847  11.471   6.073  12.089  0.4441  0.6573 -1.8517
31023SOL    HW2 1848  11.619   6.061  12.118  0.2756  0.3643 -1.0837
31024SOL     OW 1849   9.738   0.041   2.056  0.1064  0.4771 -0.3160
31024SOL    HW1 1850   9.784   0.062   2.137 -1.7375 -1.5078  1.3860
31024SOL    HW2 1851   9.788  -0.031   2.018  1.8154  2.3540 -1.8401
31025SOL     OW 1852   3.737  12.143   4.508  0.7216  0.0304  0.5589
31025SOL    HW1 1853   3.698  12.099   4.584 -0.5697 -0.6281 -0.4412
31025SOL    HW2 1854   3.832  12.140   4.525  0.8955 -4.2324  0.1062
31026SOL     OW 1855   9.175   6.706  10.875  0.1899 -0.1292 -0.0239
31026SOL    HW1 1856   9.097   6.713  10.820  0.1168  0.0910  0.1042
31026SOL    HW2 1857   9.141   6.714  10.964  0.6174  2.7347 -0.0219
31027SOL     OW 1858   3.469   1.085   8.048  0.3602  0.3970 -0.2432
31027SOL    HW1 1859   3.395   1.080   8.109 -1.0096 -0.5362 -1.8942
31027SOL    HW2 1860   3.510   0.999   8.052 -0.3489 -0.0045 -1.3473
31028SOL     OW 1861   2.133   8.206   9.171  0.0871  0.2269  0.8250
31028SOL    HW1 1862   2.173   8.284   9.133  0.3202  0.1991  1.0107
31028SOL    HW2 1863   2.039   8.217   9.154  0.2924 -0.3892 -0.8370
31029SOL     OW 1864  12.318   6.891   4.442  0.2294 -0.1803  0.1841
31029SOL    HW1 1865  12.274   6.973   4.462  1.5574  0.9007 -1.1250
31029SOL    HW2 1866  12.256   6.823   4.470 -0.9996  1.2422  1.0488
31030SOL     OW 1867   8.112   0.598   0.979 -0.8175  0.6632 -0.0471
31030SOL    HW1 1868   8.163   0.666   1.023  1.5765 -0.5441 -0.7206
31030SOL    HW2 1869   8.060   0.558   1.049 -0.9021  2.0036  0.6840
31031SOL     OW 1870   4.976   8.721   7.089 -0.3137 -0.0157  0.0519
31031SOL    HW1 1871   4.896   8.750   7.134 -1.1176  1.3904 -2.1320
31031SOL    HW2 1872   5.035   8.796   7.093 -0.4132  0.1433 -1.2316
31032SOL     OW 1873   6.168   9.201   5.476 -0.3700 -0.0767 -0.0611
31032SOL    HW1 1874   6.111   9.242   5.411 -0.7269 -0.8448 -0.2400
31032SOL    HW2 1875   6.232   9.152   5.425 -0.5015 -0.4831  0.1594
31033SOL     OW 1876   5.990   0.448   9.672  0.3270 -0.1149  0.1686
31033SOL    HW1 1877   6.026   0.485   9.753 -1.5837 -0.4473  1.2289
31033SOL    HW2 1878   6.063   0.449   9.611  2.4532 -1.7068  2.4666
31034SOL     OW 1879   6.597   5.763   1.536  0.3074  0.0104 -0.2824
31034SOL    HW1 1880   6.605   5.812   1.454 -2.1214  0.0285 -0.5992
31034SOL    HW2 1881   6.548   5.821   1.594 -1.6081 -1.5082 -0.2717
31035SOL     OW 1882   5.449   8.499   0.314 -0.0915  0.4020 -0.1374
31035SOL    HW1 1883   5.419   8.556   0.386  0.2239 -0.3062  0.5670
31035SOL    HW2 1884   5.445   8.555   0.237  0.9101  1.6269  0.6511
31036SOL     OW 1885   3.762  11.621   6.713 -0.0043  0.1282 -0.0911
31036SOL    HW1 1886   3.717  11.606   6.796  0.2621  0.0801  0.0492
31036SOL    HW2 1887   3.836  11.560   6.715  0.7441  1.0107  0.2198
31037SOL     OW 1888   6.665  10.876   7.708  0.2078 -0.5160 -0.3105
31037SOL    HW1 1889   6.643  10.790   7.743 -0.2452  0.0939  0.9705
31037SOL    HW2 1890   6.741  10.904   7.759 -1.4704  1.1011  1.4612
31038SOL     OW 1891   8.167   9.530   3.899 -0.0915 -0.5137 -0.2040
31038SOL    HW1 1892   8.121   9.450   3.924 -0.5908  0.3037  1.6055
31038SOL    HW2 1893   8.097   9.592   3.879  0.2653  0.0549  0.3055
31039SOL     OW 1894  12.414   2.485   5.317 -0.1868  0.1932 -0.1628
31039SOL    HW1 1895  12.394   2.542   5.391 -1.6506  0.8722 -1.0405
31039SOL    HW2 1896  12.333   2.482   5.266  0.6270 -0.6607 -1.4787
31040SOL     OW 1897   7.836   4.312  11.830 -0.0116  0.1945  0.0022
31040SOL    HW1 1898   7.741   4.297  11.836 -0.1627  0.8432 -0.6441
31040SOL    HW2 1899   7.845   4.383  11.767  0.9774 -0.6034 -0.7819
31041SOL     OW 1900   4.164   6.450   4.696  0.4975 -0.0114  0.1549
31041SOL    HW1 1901   4.248   6.455   4.742  0.3873  3.1624  0.2700
31041SOL    HW2 1902   4.140   6.542   4.680 -3.7578 -0.6440  1.5577
31042SOL     OW 1903   9.237   3.967   5.558 -0.2031  0.2924 -0.1401
31042SOL    HW1 1904   9.324   3.967   5.598 -0.6790 -1.8290  1.0765
31042SOL    HW2 1905   9.182   4.015   5.619 -0.0408  1.0553 -0.5805
31043SOL     OW 1906   0.528   1.153  11.762  0.1763 -0.0836 -0.3586
31043SOL    HW1 1907   0.611   1.113  11.736  0.9527  0.0961  1.6654
31043SOL    HW2 1908   0.554   1.236  11.802 -0.9902  0.0189  0.2124
31044SOL     OW 1909   7.732   8.058  10.170  0.0116  0.3437 -0.6986
31044SOL    HW1 1910   7.814   8.092  10.207 -0.7959  2.0030 -0.3468
31044SOL    HW2 1911   7.726   7.968  10.203  1.0968  0.5907  0.2298
31045SOL     OW 1912   3.056   8.386   6.987 -0.2241 -0.0975  0.2206
31045SOL    HW1 1913   3.091   8.312   7.037 -0.1154  1.7765  3.1515
31045SOL    HW2 1914   2.964   8.365   6.974  0.1321 -1.4078 -0.3511
31046SOL     OW 1915   8.919   6.795   3.134  0.2114  0.5074  0.5048
31046SOL    HW1 1916   8.917   6.873   3.079  0.2320  0.7063  0.7790
31046SOL    HW2 1917   8.850   6.810   3.199 -1.3421 -0.7272 -0.7965
31047SOL     OW 1918   2.244  12.010   2.948 -0.1332 -0.5204 -0.3451
31047SOL    HW1 1919   2.209  12.060   2.873 -0.4415 -1.2960 -0.7307
31047SOL    HW2 1920   2.210  11.921   2.936  0.4160 -0.8353  0.3242
31048SOL     OW 1921   8.676  12.033   0.593 -0.0458 -1.2153 -0.2121
31048SOL    HW1 1922   8.664  12.113   0.541  0.4765  0.3363  1.8908
31048SOL    HW2 1923   8.616  11.970   0.554 -1.0424  0.4314 -1.5021
31049SOL     OW 1924   6.061   6.264  12.166  0.1959  0.2567 -0.5650
31049SOL    HW1 1925   6.114   6.332  12.208  1.3539 -0.7690 -0.2993
31049SOL    HW2 1926   6.099   6.182  12.197 -0.7885 -0.5169 -1.3471
31050SOL     OW 1927  11.814   7.815   1.784  0.0745  0.4757 -0.2350
31050SOL    HW1 1928  11.859   7.736   1.812  2.3960  1.7544 -0.1282
31050SOL    HW2 1929  11.858   7.840   1.703 -0.5375  1.7268 -0.2098
31051SOL     OW 1930  10.959   7.747   2.961  0.2349  0.2627  0.0384
31051SOL    HW1 1931  10.911   7.757   2.879 -0.5572 -0.2833  0.4242
31051SOL    HW2 1932  11.051   7.746   2.935 -0.0256 -0.4499 -0.8985
31052SOL     OW 1933   2.722   0.299   8.664  0.3479 -0.9642 -0.3527
31052SOL    HW1 1934   2.712   0.389   8.634  1.3782 -0.6534  0.1980
31052SOL    HW2 1935   2.694   0.301   8.755  0.0055 -1.2860 -0.4496
31053SOL     OW 1936   4.782   3.826   5.864  0.3272  0.2816 -0.4741
31053SOL    HW1 1937   4.691   3.813   5.836  0.3663 -0.7626 -0.1352
31053SOL    HW2 1938   4.780   3.812   5.958  1.0968 -1.2491 -0.6639
31054SOL     OW 1939  10.272   3.714  10.096  0.6949 -0.6510 -0.0764
31054SOL    HW1 1940  10.250   3.682  10.183  1.3671 -1.2559 -0.1183
31054SOL    HW2 1941  10.323   3.793  10.112  1.3813 -1.1185  0.1086
31055SOL     OW 1942   4.594  12.302   2.959 -0.2334  0.4379 -0.1398
31055SOL    HW1 1943   4.688  12.315   2.952 -0.3176  0.9047 -0.4460
31055SOL    HW2 1944   4.583  12.248   3.037  0.2073  1.3714  0.5880
31056SOL     OW 1945   1.526   1.364   0.998  0.2421  0.1579 -0.1244
31056SOL    HW1 1946   1.610   1.410   0.987  0.6961 -0.7881 -0.7153
31056SOL    HW2 1947   1.547   1.290   1.055 -0.4183  0.5047  0.5707
31057SOL     OW 1948   6.079  12.190   2.442  0.2767 -0.3661  0.7499
31057SOL    HW1 1949   6.016  12.119   2.461 -2.1452  1.6604  0.8542
31057SOL    HW2 1950   6.148  12.147   2.391 -1.2492 -2.7401  0.4903
31058SOL     OW 1951   6.818   5.160   8.361  0.0521  0.1531 -0.0500
31058SOL    HW1 1952   6.789   5.233   8.305  1.8643 -0.1868 -1.5183
31058SOL    HW2 1953   6.913   5.169   8.364  0.2001 -1.4267  0.7751
31059SOL     OW 1954  10.940  10.259   1.271 -0.6981 -0.4942  0.2234
31059SOL    HW1 1955  10.963  10.349   1.296  0.2547 -0.7706  0.3820
31059SOL    HW2 1956  10.883  10.229   1.342  0.5923 -0.6821  1.2167
31060SOL     OW 1957   1.212  11.788   5.501  0.2640 -0.4044  0.1610
31060SOL    HW1 1958   1.286  11.840   5.469 -1.8350  2.5955 -0.2109
31060SOL    HW2 1959   1.187  11.734   5.426  0.0129  1.0774 -0.8575
31061SOL     OW 1960  10.355  10.921   3.329 -0.5138 -0.3004 -0.4910
31061SOL    HW1 1961  10.372  10.914   3.423 -2.0016  0.7273 -0.1129
31061SOL    HW2 1962  10.338  10.831   3.301 -2.0276 -0.4005  0.6455
31062SOL     OW 1963  11.730   0.477  10.482 -0.1949 -0.1077 -0.7552
31062SOL    HW1 1964  11.720   0.526  10.401  0.7207 -0.2125 -0.9484
31062SOL    HW2 1965  11.825   0.467  10.492 -0.3519 -1.9089 -0.7695
31063SOL     OW 1966   6.626  12.603   9.430 -0.7055 -0.2287  0.5056
31063SOL    HW1 1967   6.616  12.631   9.521  0.1022  0.4419  0.3996
31063SOL    HW2 1968   6.693  12.661   9.394 -2.7109  1.1592 -1.2273
31064SOL     OW 1969   1.759   9.785   2.807  0.4099 -0.6225  0.0117
31064SOL    HW1 1970   1.836   9.831   2.842 -0.0725 -0.0620  0.3432
31064SOL    HW2 1971   1.718   9.849   2.748 -0.9323 -0.1647  1.3813
31065SOL     OW 1972   8.200   3.065   0.044  0.1977 -0.6502  0.3617
31065SOL    HW1 1973   8.263   3.126   0.005  2.0644 -0.6823  3.0355
31065SOL    HW2 1974   8.143   3.120   0.097 -1.2412 -0.7942 -0.9522
31066SOL     OW 1975  11.580   5.570   9.088 -0.6003 -0.1100  0.4189
31066SOL    HW1 1976  11.543   5.638   9.034 -0.7498  0.5772  1.3610
31066SOL    HW2 1977  11.654   5.536   9.038 -1.4291 -0.2933 -0.7019
31067SOL     OW 1978   9.368   1.625   0.498 -0.2676  0.0369 -0.0025
31067SOL    HW1 1979   9.342   1.718   0.497 -0.0164  0.1042 -0.2390
31067SOL    HW2 1980   9.333   1.589   0.417  0.5848  0.1907 -0.4573
31068SOL     OW 1981  11.602   6.265   9.800 -0.0346 -0.6857 -0.1417
31068SOL    HW1 1982  11.603   6.179   9.757  0.0074 -0.5535 -0.4073
31068SOL    HW2 1983  11.510   6.283   9.815 -0.0887 -0.4586 -0.7300
31069SOL     OW 1984  10.043   3.720   1.173 -0.5565  0.0037 -0.0500
31069SOL    HW1 1985  10.064   3.762   1.256 -0.6203  0.6428 -0.3513
31069SOL    HW2 1986   9.971   3.660   1.194 -0.6775  0.2781  0.3207
31070SOL     OW 1987  12.524   8.638  11.965 -0.5159 -0.1182  0.6391
31070SOL    HW1 1988  12.517   8.733  11.956 -1.1661 -0.2307 -0.2806
31070SOL    HW2 1989  12.496   8.619  12.054  0.7129  0.6368  1.2171
31071SOL     OW 1990   8.976  10.971   6.255 -0.3296 -0.2224  0.1692
31071SOL    HW1 1991   9.060  10.926   6.253 -0.2402 -0.0464 -0.0330
31071SOL    HW2 1992   8.998  11.064   6.261 -0.5170 -0.2588  2.1012
31072SOL     OW 1993   4.098   2.725   0.960  0.2553 -0.6762  0.1780
31072SOL    HW1 1994   4.029   2.662   0.976 -0.1579  0.0187  1.2204
31072SOL    HW2 1995   4.067   2.806   1.001  1.6930 -0.3630  0.7100
31073SOL     OW 1996   4.203   7.211   4.441  0.0408  0.9739 -0.1002
31073SOL    HW1 1997   4.170   7.286   4.391  2.5711  2.2510 -0.0773
31073SOL    HW2 1998   4.264   7.168   4.382  0.3898  0.3692  0.6819
31074SOL     OW 1999   3.252  10.390   2.907 -0.1902 -0.2655  0.5569
31074SOL    HW1 2000   3.330  10.438   2.935  0.0917 -1.3652  1.7715
31074SOL    HW2 2001   3.264  10.302   2.943 -0.5366 -1.3834 -1.8457
31075SOL     OW 2002  11.110   3.738   7.159  0.2169 -0.0790  0.0251
31075SOL    HW1 2003  11.040   3.804   7.157 -0.6128 -0.8638  1.4288
31075SOL    HW2 2004  11.178   3.774   7.102 -1.2773  0.7543 -1.3278
31076SOL     OW 2005   4.234   5.091   0.364 -0.4939  0.2471 -1.0885
31076SOL    HW1 2006   4.263   5.100   0.273  0.2631 -0.6266 -0.9459
31076SOL    HW2 2007   4.263   5.172   0.406 -0.4056  0.4341 -1.5028
31077SOL     OW 2008   2.399   5.142  11.413  0.2711 -0.1781  0.9510
31077SOL    HW1 2009   2.472   5.203  11.418 -0.6931  1.1286 -0.1149
31077SOL    HW2 2010   2.341   5.168  11.485 -0.2682  0.3690  0.3339
31078SOL     OW 2011   8.895   7.358  11.405  0.0532 -0.2687  0.1431
31078SOL    HW1 2012   8.858   7.318  11.484 -0.5912  0.6809  0.3358
31078SOL    HW2 2013   8.951   7.428  11.438  0.7872 -0.6774 -0.2090
31079SOL     OW 2014   5.258   6.978   9.406  0.5115 -0.0208 -0.1605
31079SOL    HW1 2015   5.321   7.047   9.429  0.6471  0.9645 -3.0356
31079SOL    HW2 2016   5.299   6.934   9.331 -0.8814 -1.3497 -0.1674
31080SOL     OW 2017   8.975   8.160   2.550  0.3405 -0.1652 -0.0123
31080SOL    HW1 2018   8.926   8.087   2.512 -1.0208  1.6755 -2.1155
31080SOL    HW2 2019   9.067   8.139   2.533 -0.1199 -0.4512 -2.6510
31081SOL     OW 2020   7.861   6.475   3.741  0.1962  0.2875 -0.3947
31081SOL    HW1 2021   7.773   6.512   3.741 -0.8591 -2.0575 -0.3262
31081SOL    HW2 2022   7.869   6.429   3.824  0.8012 -0.9873 -1.1122
31082SOL     OW 2023   1.208   1.357   4.725  0.0015  0.2530 -0.0199
31082SOL    HW1 2024   1.227   1.281   4.670  1.6408  1.4817 -1.2630
31082SOL    HW2 2025   1.127   1.334   4.771  0.8599 -2.5342  0.2680
31083SOL     OW 2026  11.499  11.549   9.873 -0.0371 -0.1102 -0.0849
31083SOL    HW1 2027  11.443  11.627   9.869  0.3100  0.1932  0.7170
31083SOL    HW2 2028  11.561  11.560   9.801 -0.2106  0.1841 -0.1914
31084SOL     OW 2029   8.891   3.696   2.610  0.5963 -0.1644 -0.3527
31084SOL    HW1 2030   8.922   3.608   2.633  1.4672  0.2590  0.1337
31084SOL    HW2 2031   8.933   3.753   2.673 -1.6277  0.3986  0.7148
31085SOL     OW 2032   0.027   3.767  11.324  0.0023 -1.0183 -0.3648
31085SOL    HW1 2033  -0.017   3.783  11.240  1.4285  0.0021 -0.9547
31085SOL    HW2 2034   0.048   3.674  11.322 -2.6656 -1.7278  0.2494
31086SOL     OW 2035  10.513   3.580  10.259  0.3500  0.4337 -0.2266
31086SOL    HW1 2036  10.560   3.643  10.312  1.6063 -1.1287  0.5952
31086SOL    HW2 2037  10.422   3.588  10.288  0.8136  0.4646  1.3122
31087SOL     OW 2038   5.436  12.306   8.254 -0.1112  0.4983 -0.4575
31087SOL    HW1 2039   5.357  12.298   8.308 -1.2238  0.3475 -2.0186
31087SOL    HW2 2040   5.405  12.349   8.174  1.2734 -0.1751 -1.3851
31088SOL     OW 2041  10.641   3.664  11.745 -0.2312 -0.1619 -0.2262
31088SOL    HW1 2042  10.734   3.656  11.765 -0.5352 -1.8402  0.6816
31088SOL    HW2 2043  10.635   3.641  11.652  0.3622  0.9947 -0.5737
31089SOL     OW 2044  10.629   8.239  11.315  0.3480  0.0792  0.0045
31089SOL    HW1 2045  10.713   8.261  11.355 -0.0310  1.0156  0.3309
31089SOL    HW2 2046  10.649   8.170  11.253  1.3571  0.2756  0.0914
31090SOL     OW 2047  11.511   4.896  10.316 -0.0457  0.0650 -0.0758
31090SOL    HW1 2048  11.551   4.934  10.237  1.8483  1.1194  1.2945
31090SOL    HW2 2049  11.424   4.935  10.320 -1.0415 -1.6256 -2.7166
31091SOL     OW 2050   2.918   7.857  10.264 -0.1366  0.5745 -0.0337
31091SOL    HW1 2051   2.863   7.912  10.207  0.2981 -0.2208 -1.2759
31091SOL    HW2 2052   2.892   7.881  10.353 -3.2267 -0.4381 -0.5295
31092SOL     OW 2053   3.637   5.926   7.438  0.1651  0.2905 -0.0248
31092SOL    HW1 2054   3.666   5.933   7.347 -0.5969 -1.1960 -0.4066
31092SOL    HW2 2055   3.626   5.833   7.454  1.2731  0.4330  1.9456
31093SOL     OW 2056  10.697  10.189  12.542 -0.0182 -0.3402  0.2711
31093SOL    HW1 2057  10.731  10.144  12.464  0.2583  0.2599  0.0421
31093SOL    HW2 2058  10.638  10.255  12.507 -0.1924 -0.3242  0.5940
31094SOL     OW 2059   5.757   6.846   7.993 -0.8569 -0.0030 -0.9110
31094SOL    HW1 2060   5.715   6.930   7.976  0.1007  0.2073 -2.3850
31094SOL    HW2 2061   5.850   6.862   7.981 -0.2677 -0.4822  2.2654
31095SOL     OW 2062   9.555   9.863   1.970  0.3007  0.4340  0.2583
31095SOL    HW1 2063   9.606   9.795   1.927  0.9267  1.7445 -1.1775
31095SOL    HW2 2064   9.609   9.891   2.044  1.4601  1.4249 -0.9219
31096SOL     OW 2065   9.308   7.162   0.511 -0.4329  0.1567 -0.5715
31096SOL    HW1 2066   9.233   7.213   0.543 -1.0641 -0.9392 -0.2517
31096SOL    HW2 2067   9.293   7.154   0.417 -0.1433  0.8460 -0.6834
31097SOL     OW 2068   7.996   1.472   8.013  0.6107  0.4187 -0.4133
31097SOL    HW1 2069   8.084   1.452   7.983 -0.4041 -0.9176 -2.8010
31097SOL    HW2 2070   8.007   1.545   8.074  3.5085 -1.0183  0.9629
31098SOL     OW 2071   2.462   4.765  10.848  0.0873  0.2582  0.6887
31098SOL    HW1 2072   2.462   4.673  10.877  0.2719  0.3079  0.8438
31098SOL    HW2 2073   2.497   4.762  10.759 -0.8585  0.0544  0.3077
31099SOL     OW 2074   7.537   0.837  12.084 -0.6003  0.1267  0.0439
31099SOL    HW1 2075   7.572   0.796  12.005  0.3076  3.1811 -1.3001
31099SOL    HW2 2076   7.614   0.855  12.138 -0.7385  1.3982 -0.1396
31100SOL     OW 2077   6.278   6.628   1.772 -0.4949  0.2994 -0.3662
31100SOL    HW1 2078   6.276   6.646   1.678 -0.7039 -0.9891 -0.6300
31100SOL    HW2 2079   6.276   6.533   1.778  0.0745  0.3526  0.9418
31101SOL     OW 2080   8.507   7.195   2.038 -0.0967  0.1417  0.4729
31101SOL    HW1 2081   8.523   7.219   2.129  3.2296 -0.6369  0.2149
31101SOL    HW2 2082   8.554   7.262   1.987 -1.0608 -0.0121 -0.6621
31102SOL     OW 2083  10.384  10.783   0.973  0.2236 -0.1932 -0.0852
31102SOL    HW1 2084  10.435  10.819   1.046 -0.9394  0.5913  0.3786
31102SOL    HW2 2085  10.419  10.827   0.896  1.7117 -1.2923 -0.0961
31103SOL     OW 2086  12.121   1.349   0.598  0.5401  0.5133  0.0014
31103SOL    HW1 2087  12.036   1.341   0.554  0.4454 -1.1548  0.4135
31103SOL    HW2 2088  12.099   1.360   0.690  0.7668  2.2525 -0.1228
31104SOL     OW 2089   1.762  11.023  10.916 -0.3736 -0.0495  0.3192
31104SOL    HW1 2090   1.839  11.079  10.926 -0.3012 -0.3835  1.9075
31104SOL    HW2 2091   1.781  10.947  10.970 -0.3372 -1.8095 -2.0120
31105SOL     OW 2092   8.963   8.203   0.405  0.4711 -0.1096  0.0001
31105SOL    HW1 2093   8.880   8.248   0.422  0.8634  0.3431  0.7984
31105SOL    HW2 2094   9.030   8.267   0.429  1.0919  0.0643 -1.9948
31106SOL     OW 2095  12.195   7.670   3.412  0.1883  0.1270 -0.0837
31106SOL    HW1 2096  12.273   7.678   3.357  0.5106  1.4018  0.5119
31106SOL    HW2 2097  12.216   7.600   3.473  0.2964 -0.4974 -0.8179
31107SOL     OW 2098   8.860   4.184   6.967 -0.1315  0.4700  0.1033
31107SOL    HW1 2099   8.818   4.154   6.887 -1.5194 -0.4393  1.1174
31107SOL    HW2 2100   8.810   4.261   6.994  1.4015  1.8307 -0.7630
31108SOL     OW 2101   5.585   2.656   6.476  0.7220 -0.0853 -0.0879
31108SOL    HW1 2102   5.551   2.593   6.412  0.8127 -0.2526  0.0298
31108SOL    HW2 2103   5.680   2.648   6.470  0.7411 -1.4728  1.4111
31109SOL     OW 2104   4.054  11.200   1.117 -0.0621 -0.3267  0.4631
31109SOL    HW1 2105   4.147  11.176   1.111  0.4571  1.4384  0.8094
31109SOL    HW2 2106   4.020  11.146   1.189  0.6291 -1.1665  0.1783
31110SOL     OW 2107   2.365   0.435  12.605  0.0552  0.0053  0.5446
31110SOL    HW1 2108   2.362   0.446  12.510 -2.7672 -0.9201  0.4185
31110SOL    HW2 2109   2.330   0.516  12.640 -2.3462 -0.9256  0.5258
31111SOL     OW 2110  12.064   6.909   7.683  0.0551  0.3278 -0.4408
31111SOL    HW1 2111  12.080   6.970   7.756 -0.5991  0.1529 -0.1435
31111SOL    HW2 2112  11.983   6.864   7.707  0.0555 -0.0253 -1.0875
31112SOL     OW 2113   1.413   8.193   6.672 -0.0075  0.2657 -0.0183
31112SOL    HW1 2114   1.359   8.237   6.737 -0.6740 -1.1888  0.4445
31112SOL    HW2 2115   1.491   8.248   6.664  0.3827  0.1503  2.4651
31113SOL     OW 2116   7.566   1.190  11.881  0.2147  0.2062  0.2940
31113SOL    HW1 2117   7.520   1.158  11.958  1.2966  0.1133  0.9198
31113SOL    HW2 2118   7.498   1.229  11.827 -0.8419 -1.3195  0.4541
31114SOL     OW 2119  11.276   3.109   5.565  0.0303 -0.1729 -0.1984
31114SOL    HW1 2120  11.224   3.139   5.490 -0.6238  0.5250  0.5130
31114SOL    HW2 2121  11.230   3.031   5.596  1.6921 -1.9964 -2.0047
31115SOL     OW 2122   3.272   0.526   1.234  0.5472  0.3890 -0.3867
31115SOL    HW1 2123   3.320   0.450   1.266 -1.1274  0.0449  1.5056
31115SOL    HW2 2124   3.305   0.599   1.287  0.8510  0.6403 -0.9202
31116SOL     OW 2125   6.184   5.423   4.662 -0.2632 -0.1854 -0.3548
31116SOL    HW1 2126   6.204   5.505   4.708 -0.3457  1.8342 -3.5802
31116SOL    HW2 2127   6.111   5.385   4.710 -0.7626  2.0755  0.7873
31117SOL     OW 2128   1.148   3.889   6.003 -0.3938 -0.3352  0.3081
31117SOL    HW1 2129   1.200   3.943   5.944  0.2714 -0.2947  0.9157
31117SOL    HW2 2130   1.190   3.803   6.000 -1.4848 -0.8588 -0.7047
31118SOL     OW 2131   3.885   7.653  11.704  0.0291 -0.3608  0.3338
31118SOL    HW1 2132   3.932   7.678  11.625 -0.3499 -0.6618  0.0072
31118SOL    HW2 2133   3.895   7.558  11.709  1.0453 -0.2153  1.2936
31119SOL     OW 2134   6.922  11.128   0.861  0.1120 -0.0337  0.2126
31119SOL    HW1 2135   6.897  11.214   0.828  1.9227  1.1008  1.5376
31119SOL    HW2 2136   6.994  11.100   0.804 -0.8400 -0.9536 -0.5578
31120SOL     OW 2137   2.682   2.053   2.338 -0.0831  0.0883 -0.5592
31120SOL    HW1 2138   2.767   2.088   2.312  0.9687 -3.5305 -2.6847
31120SOL    HW2 2139   2.628   2.062   2.260 -0.6547 -0.4383 -0.2278
31121SOL     OW 2140   2.156   8.384   4.830  0.1649  0.5340  0.1612
31121SOL    HW1 2141   2.098   8.385   4.906  2.3512 -2.3969  2.1380
31121SOL    HW2 2142   2.224   8.448   4.851  0.3138  0.3296  0.3154
31122SOL     OW 2143   3.019   0.504   1.106 -0.4471  0.0626 -0.0366
31122SOL    HW1 2144   2.954   0.516   1.175 -0.5771 -0.1850 -0.1148
31122SOL    HW2 2145   3.103   0.498   1.152 -0.7021 -2.0082  0.2829
31123SOL     OW 2146   8.041   1.353  10.180  0.3445  0.3745 -0.0588
31123SOL    HW1 2147   8.101   1.285  10.151 -0.8777 -0.3256 -1.0239
31123SOL    HW2 2148   8.042   1.347  10.276  2.1970  0.7645 -0.0132
31124SOL     OW 2149   2.777   3.207   1.899 -0.0271 -0.0971  0.4218
31124SOL    HW1 2150   2.697   3.197   1.951  0.2877  1.0050  1.1406
31124SOL    HW2 2151   2.748   3.254   1.820  0.3886  3.4146  2.1704
31125SOL     OW 2152   4.096   3.563   4.612  0.3191  0.3517  0.2138
31125SOL    HW1 2153   4.016   3.612   4.595 -0.2848 -0.4813  0.6250
31125SOL    HW2 2154   4.080   3.518   4.695  0.7250 -0.8025 -0.3173
31126SOL     OW 2155   6.380   5.455   6.092 -0.1113 -0.6825  0.0960
31126SOL    HW1 2156   6.457   5.416   6.135 -0.0320  1.8650  2.5447
31126SOL    HW2 2157   6.306   5.406   6.127  0.0812  0.3280  2.1020
31127SOL     OW 2158   9.028   1.759   9.257  0.4539  0.5174 -0.7263
31127SOL    HW1 2159   8.959   1.721   9.202  0.0087 -0.2929  0.3500
31127SOL    HW2 2160   9.110   1.724   9.220  0.2390  0.7366 -1.4366
31128SOL     OW 2161  11.641   5.359   4.164  0.4540 -0.2897 -0.0755
31128SOL    HW1 2162  11.602   5.393   4.245 -3.5968  0.2717 -2.0256
31128SOL    HW2 2163  11.690   5.433   4.129  1.6260 -0.3040  1.4288
31129SOL     OW 2164   0.591   4.108   0.086 -0.3550 -0.4695 -0.3191
31129SOL    HW1 2165   0.577   4.087   0.178  0.6003 -0.1317 -0.0895
31129SOL    HW2 2166   0.503   4.114   0.050 -0.8439  1.3642  1.0206
31130SOL     OW 2167   1.550   0.201   3.371  0.2174  0.1883 -0.3529
31130SOL    HW1 2168   1.588   0.148   3.441 -0.0786  0.1863 -0.1925
31130SOL    HW2 2169   1.457   0.208   3.394  0.1750  0.4256 -0.5942
31131SOL     OW 2170  10.971   1.939   9.562 -0.1645  0.0598  0.5202
31131SOL    HW1 2171  11.051   1.886   9.556 -0.3505 -0.0718 -1.3344
31131SOL    HW2 2172  11.003   2.029   9.569  0.1625 -0.0468  0.4248
31132SOL     OW 2173   1.880   3.872   2.253 -0.5978  0.4351  0.5002
31132SOL    HW1 2174   1.937   3.948   2.266  2.3231 -1.5267  0.2646
31132SOL    HW2 2175   1.869   3.867   2.158  2.7189 -1.5579  0.0370
31133SOL     OW 2176  10.596   2.885   2.749  0.8925  0.1110 -0.0726
31133SOL    HW1 2177  10.620   2.863   2.839 -0.9452  0.8257  0.6505
31133SOL    HW2 2178  10.676   2.873   2.699  1.8567 -0.7315  1.5800
31134SOL     OW 2179   3.433   0.411  11.142  0.0857  0.0657 -1.2129
31134SOL    HW1 2180   3.344   0.441  11.128  0.5644  1.7691 -0.7748
31134SOL    HW2 2181   3.454   0.438  11.231  1.1525  0.0011 -1.4303
31135SOL     OW 2182  10.972   7.885   0.376 -0.0354 -0.0188  0.1923
31135SOL    HW1 2183  11.000   7.794   0.368  0.5748  0.1371  0.5415
31135SOL    HW2 2184  11.047   7.931   0.412 -0.6293  0.4744  0.8331
31136SOL     OW 2185  11.402   0.167  10.260  0.6796 -0.2930 -0.3386
31136SOL    HW1 2186  11.426   0.148  10.351 -0.8542  0.1149  0.1962
31136SOL    HW2 2187  11.359   0.086  10.230  1.7997 -0.6752 -0.9485
31137SOL     OW 2188   3.555   2.556   3.524 -0.0341  0.0042 -0.0602
31137SOL    HW1 2189   3.494   2.522   3.589 -0.1477  0.3964  0.0392
31137SOL    HW2 2190   3.535   2.505   3.445  0.5926 -0.9698  0.3897
31138SOL     OW 2191   3.979   9.774   9.498 -0.0327  0.2565  0.2484
31138SOL    HW1 2192   3.940   9.736   9.577  2.1989  0.2188  1.4174
31138SOL    HW2 2193   3.943   9.863   9.493 -0.6984  0.0320  0.9038
31139SOL     OW 2194  10.997   9.731  10.323  0.3054  0.0846 -0.2844
31139SOL    HW1 2195  10.973   9.690  10.406  0.4337 -1.0686 -0.7997
31139SOL    HW2 2196  10.972   9.667  10.256 -0.1869  1.1594 -1.1804
31140SOL     OW 2197   2.309  10.876   8.007  0.6610 -0.2106 -0.3899
31140SOL    HW1 2198   2.265  10.794   8.030 -1.6400  1.3898  1.4740
31140SOL    HW2 2199   2.391  10.874   8.056 -0.5966 -0.3164  1.8515
31141SOL     OW 2200   8.720   6.766   5.391  0.1710  0.3006  0.0505
31141SOL    HW1 2201   8.779   6.816   5.447  1.3455  1.2898 -1.9718
31141SOL    HW2 2202   8.648   6.826   5.371  0.7536  0.6485 -1.0604
31142SOL     OW 2203   9.779   1.242   1.061  0.0345 -0.1973  0.9537
31142SOL    HW1 2204   9.721   1.311   1.029 -0.3117 -0.1335  1.6947
31142SOL    HW2 2205   9.722   1.167   1.074  0.3181 -0.4663  0.6329
31143SOL     OW 2206   8.408   2.453   3.314 -0.1434  0.3396  0.0536
31143SOL    HW1 2207   8.380   2.468   3.223 -1.2032 -1.1180  0.1116
31143SOL    HW2 2208   8.485   2.398   3.307  1.0651  1.9641  0.0014
31144SOL     OW 2209   4.582   3.934   7.811  0.2315 -0.5076  0.2762
31144SOL    HW1 2210   4.622   3.995   7.873  0.3847 -1.1862  0.8523
31144SOL    HW2 2211   4.656   3.890   7.769  0.1115 -0.6888  0.2529
31145SOL     OW 2212   3.629   9.225  10.142  0.1257 -0.3374  0.6493
31145SOL    HW1 2213   3.570   9.279  10.089 -0.8208 -0.8785  1.1257
31145SOL    HW2 2214   3.577   9.199  10.218  0.5913 -1.8001  0.5013
31146SOL     OW 2215   1.134   3.220   8.306  0.4311  0.1435 -0.2971
31146SOL    HW1 2216   1.211   3.163   8.308  1.1557  1.0864 -0.8089
31146SOL    HW2 2217   1.138   3.264   8.221 -0.7823  0.0630 -0.4122
31147SOL     OW 2218   3.167   4.256   0.975  0.0727 -0.0282  0.3190
31147SOL    HW1 2219   3.154   4.186   0.910 -1.5722  1.8143 -1.4636
31147SOL    HW2 2220   3.238   4.309   0.938  2.3768 -1.4268  2.3951
31148SOL     OW 2221   1.100   7.279   9.793  0.1344 -0.1249 -0.2067
31148SOL    HW1 2222   1.087   7.189   9.763  3.6137 -0.4716 -1.2063
31148SOL    HW2 2223   1.179   7.275   9.848  0.9771  2.4061 -1.0620
31149SOL     OW 2224   8.598   4.474   1.445 -0.0207  0.5991 -0.4505
31149SOL    HW1 2225   8.597   4.570   1.439  0.5064  0.6827  0.5109
31149SOL    HW2 2226   8.676   4.455   1.498  0.4236 -0.4203 -1.4399
31150SOL     OW 2227   9.951   0.788   4.550  0.2958  0.1003  0.0140
31150SOL    HW1 2228   9.973   0.811   4.640 -1.7938 -0.9347  0.8487
31150SOL    HW2 2229   9.935   0.693   4.553  2.3981 -0.4191 -1.9580
31151SOL     OW 2230   3.688   3.308   9.334 -0.1121  0.6499 -0.9141
31151SOL    HW1 2231   3.618   3.265   9.286  0.4024 -0.1684 -0.9458
31151SOL    HW2 2232   3.683   3.400   9.306 -1.8410  0.8382 -0.1025
31152SOL     OW 2233   2.828  11.757  11.316 -0.0424  0.4627  0.6259
31152SOL    HW1 2234   2.756  11.713  11.270  1.1543 -0.3837 -0.4970
31152SOL    HW2 2235   2.842  11.837  11.267  0.7068 -0.0597 -0.0377
31153SOL     OW 2236   1.966   4.514   6.938  0.1309 -0.2486  0.5463
31153SOL    HW1 2237   1.926   4.601   6.941 -0.0554 -0.3349  0.6254
31153SOL    HW2 2238   1.990   4.501   6.847 -1.2013 -0.7167  0.2295
31154SOL     OW 2239  12.335   2.183  11.882  0.0517  0.0613  0.2754
31154SOL    HW1 2240  12.317   2.253  11.944 -0.6226  1.1105 -1.0518
31154SOL    HW2 2241  12.271   2.115  11.902 -0.3189  0.4959  0.5791
31155SOL     OW 2242   2.472   3.923   6.878 -0.2188 -0.1363 -0.6599
31155SOL    HW1 2243   2.527   3.973   6.818  0.3179  1.3327  0.9780
31155SOL    HW2 2244   2.533   3.865   6.923 -0.5960 -1.1131 -1.3647
31156SOL     OW 2245   4.644   2.350   7.516 -0.3730 -0.0083  0.0301
31156SOL    HW1 2246   4.584   2.310   7.453 -1.7754  0.4094  1.0315
31156SOL    HW2 2247   4.586   2.398   7.575  0.9270 -0.0748  1.4007
31157SOL     OW 2248   2.369   9.692   2.963  0.1562  0.3048 -0.0270
31157SOL    HW1 2249   2.390   9.778   2.926  0.2995  1.7408  3.0924
31157SOL    HW2 2250   2.280   9.702   2.997 -0.1961 -1.1286 -0.4843
31158SOL     OW 2251   6.781   9.722  11.549 -0.1602 -0.0712  0.0323
31158SOL    HW1 2252   6.843   9.786  11.514  0.7995 -0.5627  0.7533
31158SOL    HW2 2253   6.826   9.638  11.538 -1.8950 -0.8279 -2.0550
31159SOL     OW 2254   3.917   3.645  10.208  0.1989  0.2153  0.0771
31159SOL    HW1 2255   3.858   3.603  10.146  1.8556  1.5483 -2.5806
31159SOL    HW2 2256   3.872   3.725  10.235  0.9896  1.7044 -2.6506
31160SOL     OW 2257   5.243   4.778  12.107 -0.4071  0.7320 -0.0325
31160SOL    HW1 2258   5.314   4.799  12.169 -0.4681 -0.0936  0.3257
31160SOL    HW2 2259   5.218   4.689  12.129 -1.7723  1.1153  0.0469
31161SOL     OW 2260   6.165   0.834  12.389  0.1266  0.1087 -0.3837
31161SOL    HW1 2261   6.222   0.900  12.428  0.5066 -0.3620 -0.1307
31161SOL    HW2 2262   6.137   0.874  12.306  1.4007  0.0801 -0.8628
31162SOL     OW 2263   7.923   7.214   2.543  0.0732  0.0525  0.1029
31162SOL    HW1 2264   8.012   7.247   2.532  0.3610  0.1550  2.2427
31162SOL    HW2 2265   7.869   7.293   2.550  0.4079  0.1481  2.6419
31163SOL     OW 2266   1.139   0.467   7.106  0.2819 -0.7065  0.1048
31163SOL    HW1 2267   1.081   0.534   7.144  2.3183  1.1789  0.0858
31163SOL    HW2 2268   1.124   0.390   7.160 -2.2738 -0.3598  0.0417
31164SOL     OW 2269   3.533   1.508   4.229  0.4371 -0.2782  0.0639
31164SOL    HW1 2270   3.494   1.440   4.284 -1.0855  1.8860  1.8056
31164SOL    HW2 2271   3.481   1.506   4.149 -0.1309 -0.6171  0.4355
31165SOL     OW 2272  10.945  11.416  11.395 -0.1471  0.1490  0.3767
31165SOL    HW1 2273  10.861  11.413  11.348 -0.0546  1.7974  0.0495
31165SOL    HW2 2274  10.948  11.504  11.432  0.7729 -0.4068  1.6698
31166SOL     OW 2275   3.370   7.189   9.864 -0.4745 -0.2428  0.1425
31166SOL    HW1 2276   3.300   7.208   9.927 -2.8054 -2.0685 -1.7062
31166SOL    HW2 2277   3.371   7.265   9.806  0.2565  0.5191  1.1217
31167SOL     OW 2278   8.155  11.894   2.189  0.1229  0.0775  0.0835
31167SOL    HW1 2279   8.203  11.925   2.112 -0.7227  0.6751 -0.2215
31167SOL    HW2 2280   8.191  11.807   2.207  0.2670 -0.1072 -1.0389
31168SOL     OW 2281  10.434  12.469   4.859  0.4266  0.7732  0.3229
31168SOL    HW1 2282  10.377  12.393   4.846 -0.3281  1.5018 -0.7509
31168SOL    HW2 2283  10.511  12.450   4.805 -0.2968  1.2959 -0.9396
31169SOL     OW 2284   3.532   2.539   6.764  0.1172 -0.2478 -0.1118
31169SOL    HW1 2285   3.516   2.623   6.806  0.0779  0.9225 -2.3247
31169SOL    HW2 2286   3.457   2.485   6.788  0.0151  0.4008  1.1232
31170SOL     OW 2287   6.401   4.073   3.735 -0.1552 -0.5036  0.6081
31170SOL    HW1 2288   6.378   4.026   3.655  0.6741  1.0942 -0.6342
31170SOL    HW2 2289   6.317   4.103   3.770 -0.4906 -0.7944  0.0676
31171SOL     OW 2290   0.591   3.230   0.155 -0.2120 -0.1265 -0.4317
31171SOL    HW1 2291   0.664   3.281   0.120 -0.4488  0.0977 -0.5985
31171SOL    HW2 2292   0.582   3.260   0.245 -0.8367  0.6661 -0.7562
31172SOL     OW 2293   9.751   6.615   7.623  0.1949 -0.1663 -0.2881
31172SOL    HW1 2294   9.744   6.651   7.535 -1.6954 -0.3133 -0.2499
31172SOL    HW2 2295   9.815   6.672   7.667 -1.2820  2.0268 -0.7925
31173SOL     OW 2296   9.327   2.917   7.388  0.7035  0.4099 -0.0347
31173SOL    HW1 2297   9.301   2.899   7.478  0.6228 -2.3628 -0.5425
31173SOL    HW2 2298   9.248   2.953   7.347  0.0017 -0.6035  0.4018
31174SOL     OW 2299   2.047   9.556  11.806  0.0517  0.2777 -0.4653
31174SOL    HW1 2300   2.114   9.617  11.775  1.2967 -0.7232  0.1647
31174SOL    HW2 2301   1.993   9.609  11.865 -0.1559  1.2757 -1.5114
31175SOL     OW 2302  11.417  10.107   6.902 -0.1977 -0.0833  0.3918
31175SOL    HW1 2303  11.358  10.034   6.921  0.6750 -0.6101  1.1218
31175SOL    HW2 2304  11.453  10.086   6.815 -0.1086 -0.4116  0.5072
31176SOL     OW 2305   3.197  11.921   6.882  0.4707 -0.0083 -0.2447
31176SOL    HW1 2306   3.187  11.967   6.799  0.1611  0.1115 -0.1443
31176SOL    HW2 2307   3.291  11.924   6.901  0.6489 -0.7268 -0.9759
31177SOL     OW 2308   3.919  11.115   6.747  0.2452 -0.1970 -0.1297
31177SOL    HW1 2309   3.888  11.103   6.837  1.6428 -2.1516  0.1539
31177SOL    HW2 2310   4.014  11.113   6.754  0.3823 -1.1741 -1.7332
31178SOL     OW 2311   8.436   0.486   5.583 -0.0326  0.1680  0.1535
31178SOL    HW1 2312   8.504   0.451   5.526 -0.5866 -0.3805 -0.1846
31178SOL    HW2 2313   8.433   0.425   5.657  0.4928  0.7239  0.6431
31179SOL     OW 2314   3.709   5.604  12.145  0.7556  0.6502  0.1512
31179SOL    HW1 2315   3.662   5.660  12.206 -3.4533 -0.1989 -1.9175
31179SOL    HW2 2316   3.678   5.630  12.059  2.6584 -1.4299 -1.3034
31180SOL     OW 2317   6.253   1.665   8.316 -0.0667 -0.3541  0.0980
31180SOL    HW1 2318   6.258   1.748   8.362  0.9401  1.3360 -2.7977
31180SOL    HW2 2319   6.342   1.649   8.285 -0.3832 -2.1789  0.0289
31181SOL     OW 2320  10.199   4.886   4.245  0.6105 -0.5409 -0.1154
31181SOL    HW1 2321  10.179   4.824   4.316 -1.5650  0.5893  0.3511
31181SOL    HW2 2322  10.233   4.963   4.289 -0.6336  0.1191 -0.2583
31182SOL     OW 2323   8.385   5.799   8.353  0.0075 -0.7322  0.4289
31182SOL    HW1 2324   8.420   5.806   8.442 -1.6816  0.3038  1.0550
31182SOL    HW2 2325   8.305   5.747   8.362  0.1769 -1.1942 -0.6009
31183SOL     OW 2326   2.739   5.223  11.269  0.0585 -0.3067 -0.5998
31183SOL    HW1 2327   2.767   5.314  11.265  0.7841 -0.5076 -0.3732
31183SOL    HW2 2328   2.701   5.214  11.357  1.5865 -0.6324  0.0802
31184SOL     OW 2329   1.659   1.224  11.584  0.2844  0.1610  0.7486
31184SOL    HW1 2330   1.575   1.187  11.609  0.6439 -1.5520 -0.3554
31184SOL    HW2 2331   1.638   1.289  11.517 -0.1785 -0.0103  0.7244
31185SOL     OW 2332   3.935   7.626  10.835 -0.0230  0.1249  0.1374
31185SOL    HW1 2333   4.016   7.627  10.784  0.3799  0.7764  0.7636
31185SOL    HW2 2334   3.866   7.635  10.770  0.4793  0.9502 -0.3017
31186SOL     OW 2335   3.547   1.305  11.916  0.6757  0.0224  0.4403
31186SOL    HW1 2336   3.530   1.211  11.913  0.6676  0.0385 -0.8955
31186SOL    HW2 2337   3.574   1.322  12.006  1.9960 -1.4925  0.3752
31187SOL     OW 2338   2.594  11.489  10.205  0.1520  0.1883 -0.0536
31187SOL    HW1 2339   2.540  11.479  10.126 -0.8560  2.0865  0.3226
31187SOL    HW2 2340   2.575  11.411  10.257 -1.5699  0.3751 -0.3411
31188SOL     OW 2341   8.309   4.136   1.717 -0.2187 -0.3782 -0.1697
31188SOL    HW1 2342   8.300   4.136   1.622 -0.0114 -2.1233 -0.2174
31188SOL    HW2 2343   8.382   4.077   1.735 -1.6603 -1.8981  1.1352
31189SOL     OW 2344   2.206   2.039   3.903 -0.5191  0.0889  0.1391
31189SOL    HW1 2345   2.192   1.972   3.969 -0.7489  0.2836  0.2903
31189SOL    HW2 2346   2.275   2.004   3.846  0.3233  0.3064  1.0095
31190SOL     OW 2347   6.193   6.136  11.227  0.3506 -0.1748  0.4325
31190SOL    HW1 2348   6.256   6.208  11.223  1.3066 -1.0620 -1.3426
31190SOL    HW2 2349   6.244   6.057  11.208 -1.3020 -0.8983 -1.3307
31191SOL     OW 2350   7.923  10.820   0.232 -0.1680 -0.4768  0.4074
31191SOL    HW1 2351   7.834  10.839   0.203  0.1166 -0.6769 -0.6591
31191SOL    HW2 2352   7.946  10.739   0.185 -0.5628 -2.3021  3.1460
31192SOL     OW 2353   1.825   2.772  12.007 -0.0186 -0.3752  0.3261
31192SOL    HW1 2354   1.759   2.803  11.944 -0.9629 -1.8628  0.5362
31192SOL    HW2 2355   1.830   2.843  12.072 -0.6740  0.2038 -0.2299
31193SOL     OW 2356   7.326   3.538   5.416 -0.3188 -0.8352  0.0417
31193SOL    HW1 2357   7.334   3.465   5.477  1.4768 -1.4527 -0.8439
31193SOL    HW2 2358   7.398   3.596   5.439 -1.2018  0.2240  0.1624
31194SOL     OW 2359   2.559   1.415   8.386  0.5079 -0.3497 -0.1013
31194SOL    HW1 2360   2.509   1.494   8.367  0.3680 -0.0641  1.3210
31194SOL    HW2 2361   2.514   1.376   8.461 -0.4733 -2.7461 -1.8109
31195SOL     OW 2362   4.961   0.472   7.548 -0.3648  0.0110  0.6574
31195SOL    HW1 2363   5.007   0.551   7.577 -0.2952 -0.1266  0.9237
31195SOL    HW2 2364   4.996   0.455   7.460  0.0363 -0.0502  0.8279
31196SOL     OW 2365  11.476   9.116   4.998  0.1453  0.1057  0.1882
31196SOL    HW1 2366  11.388   9.077   4.999 -0.7859  1.9108 -1.5837
31196SOL    HW2 2367  11.483   9.161   5.082 -1.1534  0.8842 -0.0834
31197SOL     OW 2368   7.159  11.235   1.182  0.0437  0.3498 -0.1808
31197SOL    HW1 2369   7.205  11.217   1.264  0.8592  2.1825 -0.2018
31197SOL    HW2 2370   7.138  11.148   1.148  1.3612 -0.4964  1.0230
31198SOL     OW 2371   6.630   9.154   4.272 -0.2283 -0.2611 -0.2638
31198SOL    HW1 2372   6.610   9.170   4.180  1.6197  0.6339 -0.5581
31198SOL    HW2 2373   6.725   9.161   4.278 -0.4252  2.2851  2.1335
31199SOL     OW 2374   0.918   9.333  11.390 -0.0886 -0.6418 -0.3795
31199SOL    HW1 2375   0.856   9.362  11.456 -0.7966 -0.2508 -1.2086
31199SOL    HW2 2376   0.948   9.413  11.347 -0.9693 -0.9910 -1.7113
31200SOL     OW 2377   6.089   0.355   1.990  0.1934  1.0199 -0.2819
31200SOL    HW1 2378   6.102   0.270   2.030  0.7592  0.5360 -1.4433
31200SOL    HW2 2379   6.003   0.350   1.948  0.4293  0.8405 -0.7547
31201SOL     OW 2380  10.383  12.001   3.843  0.2343  0.0715 -0.2586
31201SOL    HW1 2381  10.291  12.025   3.836 -0.2724 -1.8701 -1.2612
31201SOL    HW2 2382  10.412  12.034   3.928 -1.0020  1.8363 -0.4836
31202SOL     OW 2383  11.617   0.762   7.325  0.3905  0.3697  0.2667
31202SOL    HW1 2384  11.705   0.735   7.298 -0.1727 -1.0304 -0.2531
31202SOL    HW2 2385  11.576   0.682   7.355 -0.7091  1.0174  0.5302
31203SOL     OW 2386   6.922   5.440   4.121  0.1806 -0.4035  0.6033
31203SOL    HW1 2387   6.979   5.514   4.141  1.3036 -1.2116  0.4621
31203SOL    HW2 2388   6.982   5.367   4.105 -0.9042 -1.3378  0.6980
31204SOL     OW 2389   8.199   1.245   0.056 -0.0068 -0.2637  0.0026
31204SOL    HW1 2390   8.277   1.264   0.109 -0.1007 -2.7789  1.1558
31204SOL    HW2 2391   8.210   1.299  -0.022  3.2441 -0.9925 -0.1833
31205SOL     OW 2392   5.306   8.254   0.231 -0.4549  0.0460 -0.3907
31205SOL    HW1 2393   5.345   8.337   0.259  0.4681 -0.5011 -0.0072
31205SOL    HW2 2394   5.350   8.188   0.284  0.3383 -0.8856 -2.1343
31206SOL     OW 2395   6.351   3.003  10.269  0.2932 -0.1765  0.2129
31206SOL    HW1 2396   6.334   2.909  10.274  0.3746 -0.2785 -1.1420
31206SOL    HW2 2397   6.302   3.032  10.192  0.7199  0.7960  0.2972
31207SOL     OW 2398   8.796   1.018   0.802  0.1427 -0.0501  0.1049
31207SOL    HW1 2399   8.841   0.950   0.853  1.6227  0.0824 -0.9684
31207SOL    HW2 2400   8.859   1.090   0.796 -1.0244  1.0195  0.3462
31208SOL     OW 2401   9.487  11.908   8.334 -0.1161  0.3436 -0.1043
31208SOL    HW1 2402   9.527  11.856   8.265  0.0932  2.1181 -1.3809
31208SOL    HW2 2403   9.561  11.952   8.377 -0.4316  1.3587 -0.5653
31209SOL     OW 2404   0.424   6.277  10.751  0.2837  0.0917  0.1651
31209SOL    HW1 2405   0.479   6.207  10.716  0.3662  0.5957 -0.7466
31209SOL    HW2 2406   0.485   6.335  10.796  0.4622  0.4432 -0.5100
31210SOL     OW 2407   3.074  10.674   5.410 -0.8342 -0.4664  0.6964
31210SOL    HW1 2408   3.160  10.683   5.369 -2.1722 -1.5601 -2.7145
31210SOL    HW2 2409   3.021  10.743   5.370 -1.7439 -0.1642  2.3188
31211SOL     OW 2410   9.660   4.840   6.502 -0.0422 -0.0522  0.4089
31211SOL    HW1 2411   9.700   4.875   6.581 -0.1489  0.8743  0.0612
31211SOL    HW2 2412   9.725   4.853   6.434  0.3335 -1.4990  0.4650
31212SOL     OW 2413   7.166  11.030   4.547 -0.0571  0.0541 -0.0854
31212SOL    HW1 2414   7.096  11.095   4.551 -0.5249 -0.1852 -2.7638
31212SOL    HW2 2415   7.230  11.060   4.612 -0.9587  2.3518 -0.1637
31213SOL     OW 2416  12.176   8.085   3.244 -0.2363 -0.1274 -0.2300
31213SOL    HW1 2417  12.172   8.170   3.199 -1.2745  0.5189  1.0210
31213SOL    HW2 2418  12.268   8.061   3.241 -0.2190 -0.0011 -2.4605
31214SOL     OW 2419  10.442   8.727  11.669 -0.0568 -0.1555 -0.4852
31214SOL    HW1 2420  10.375   8.676  11.714  0.4800 -0.7527 -0.3389
31214SOL    HW2 2421  10.459   8.678  11.589 -0.6135  0.6092 -1.0845
31215SOL     OW 2422   6.878   8.055  12.430 -0.2804 -0.8933 -0.0495
31215SOL    HW1 2423   6.909   8.094  12.349  0.3718  0.3281  0.7586
31215SOL    HW2 2424   6.946   8.076  12.494 -0.5868 -2.1675  0.7361
31216SOL     OW 2425   5.824   8.013   9.162  0.4285  0.0891 -0.3548
31216SOL    HW1 2426   5.788   7.964   9.236  3.2631 -0.7214  0.6202
31216SOL    HW2 2427   5.916   8.028   9.185  0.9491  1.4421 -2.9099
31217SOL     OW 2428   5.002   5.137   1.924  0.4269  0.1595 -0.0063
31217SOL    HW1 2429   5.094   5.122   1.948  0.2055 -1.0131  0.1680
31217SOL    HW2 2430   4.961   5.052   1.934 -1.0588  0.9914  1.5087
31218SOL     OW 2431   0.506  12.568   0.186 -0.2233  0.3454 -0.3926
31218SOL    HW1 2432   0.432  12.533   0.135 -0.8244  0.5601  0.3063
31218SOL    HW2 2433   0.538  12.493   0.235 -1.0352  0.5824  0.5389
31219SOL     OW 2434   2.181   1.851   6.846 -0.2244 -0.6631 -0.1061
31219SOL    HW1 2435   2.127   1.930   6.851 -0.5876 -0.9184 -0.0034
31219SOL    HW2 2436   2.121   1.782   6.820 -0.1109 -1.1091  0.7741
31220SOL     OW 2437   0.984   4.962   1.370  0.5729 -0.5071 -0.2629
31220SOL    HW1 2438   0.982   4.995   1.280  1.2823 -1.1436 -0.5202
31220SOL    HW2 2439   0.955   4.871   1.363  2.6292 -1.2344 -0.1844
31221SOL     OW 2440   6.928   5.507   0.906  0.2694  0.4155 -0.2281
31221SOL    HW1 2441   7.001   5.566   0.887 -1.1989  2.4150  0.0687
31221SOL    HW2 2442   6.939   5.485   0.999  1.4245 -0.7298 -0.5981
31222SOL     OW 2443   9.145   8.507  12.106  0.2561  0.2737 -0.5747
31222SOL    HW1 2444   9.109   8.521  12.018  1.0527  0.5592 -0.8719
31222SOL    HW2 2445   9.074   8.528  12.165  0.3715  2.3258 -1.0942
31223SOL     OW 2446   8.237  12.019   1.542  0.6042  0.1821  0.6271
31223SOL    HW1 2447   8.314  11.992   1.591  1.4330 -1.6046 -1.4860
31223SOL    HW2 2448   8.245  11.973   1.458 -2.4130  0.4759  0.0708
31224SOL     OW 2449  10.443   3.436   3.442 -0.9448  0.1461  0.3852
31224SOL    HW1 2450  10.357   3.454   3.403  0.2276  0.7596 -2.1749
31224SOL    HW2 2451  10.474   3.521   3.471 -0.4534  0.2653 -0.4517
31225SOL     OW 2452   2.097   0.168   6.790 -0.2487 -0.2678 -0.1873
31225SOL    HW1 2453   2.063   0.097   6.844  0.3129  1.6179  2.9010
31225SOL    HW2 2454   2.167   0.128   6.739 -1.5242 -2.3889 -0.3959
31226SOL     OW 2455   3.597   6.982   8.198 -0.4598  0.2412 -0.4059
31226SOL    HW1 2456   3.540   6.955   8.270 -1.0377  0.6824 -0.6900
31226SOL    HW2 2457   3.630   6.901   8.161  0.0877  0.0096  0.5460
31227SOL     OW 2458   1.559   6.017   2.037 -0.2549 -0.7239 -0.1189
31227SOL    HW1 2459   1.622   5.960   1.994  0.6188  0.5957 -0.6504
31227SOL    HW2 2460   1.602   6.103   2.040 -2.2794  0.4277 -1.2127
31228SOL     OW 2461  11.758   8.892  11.703  0.4923  0.1167  0.3703
31228SOL    HW1 2462  11.735   8.957  11.769 -1.1122 -1.2991  1.2730
31228SOL    HW2 2463  11.706   8.915  11.627  0.4397  0.2722  0.4534
31229SOL     OW 2464   8.569   5.088   9.211 -0.3425  0.1649 -0.3708
31229SOL    HW1 2465   8.588   5.005   9.169 -0.3269 -1.3759  2.4300
31229SOL    HW2 2466   8.553   5.149   9.139  2.1229 -1.6095 -2.5961
31230SOL     OW 2467   0.651   5.825   8.449 -0.6194 -0.3287  0.2943
31230SOL    HW1 2468   0.713   5.891   8.418 -0.5031 -1.3668 -1.8747
31230SOL    HW2 2469   0.609   5.866   8.525  0.2036  1.7985 -0.3051
31231SOL     OW 2470  11.437   0.928  12.251 -0.2734  0.5142  0.0157
31231SOL    HW1 2471  11.387   0.999  12.212 -2.7253  0.4173  2.6131
31231SOL    HW2 2472  11.526   0.962  12.260 -0.5166  1.8362 -2.0606
31232SOL     OW 2473   4.418   4.749   2.867  0.2921 -0.3227  0.1735
31232SOL    HW1 2474   4.456   4.703   2.793 -0.6918  0.7656 -1.0621
31232SOL    HW2 2475   4.493   4.787   2.914  0.8588  0.2597 -1.1603
31233SOL     OW 2476   7.939   4.569   6.135 -0.5931  1.3366 -0.2044
31233SOL    HW1 2477   7.859   4.601   6.178  0.1291  0.5772  1.8093
31233SOL    HW2 2478   8.007   4.629   6.164  0.0697  0.2960  0.4291
31234SOL     OW 2479   3.775   5.389  10.517 -0.1715 -0.2607  0.1522
31234SOL    HW1 2480   3.746   5.476  10.545 -1.2191 -0.7592  0.7001
31234SOL    HW2 2481   3.868   5.398  10.499 -0.9282  2.1157 -4.1065
31235SOL     OW 2482   8.618   4.422   7.485 -0.4569 -0.3272  0.0635
31235SOL    HW1 2483   8.679   4.418   7.411 -0.5159 -0.4192  0.0189
31235SOL    HW2 2484   8.532   4.428   7.444 -0.6324 -2.0588  0.0835
31236SOL     OW 2485   5.040   3.156   0.573 -0.0705  0.1764  0.8260
31236SOL    HW1 2486   5.068   3.104   0.498  0.0529  0.1541  0.8875
31236SOL    HW2 2487   5.078   3.243   0.557  1.0737 -0.1738  1.5168
31237SOL     OW 2488   0.511   8.249   5.087 -0.1386 -0.1130 -0.0701
31237SOL    HW1 2489   0.579   8.193   5.124 -0.0718  0.6678  1.0328
31237SOL    HW2 2490   0.429   8.206   5.110 -0.0926  0.2883  0.8987
31238SOL     OW 2491   0.738   8.638   2.881  0.0890 -0.2991  0.3585
31238SOL    HW1 2492   0.766   8.675   2.965 -0.6979 -0.6423  0.7882
31238SOL    HW2 2493   0.813   8.650   2.823 -0.1138  1.9103  0.4814
31239SOL     OW 2494  11.232   4.942   2.788  0.3537 -0.3813  0.2155
31239SOL    HW1 2495  11.200   5.022   2.830  0.7080 -0.4899  0.6976
31239SOL    HW2 2496  11.179   4.933   2.709  0.0328  0.1067  0.3765
31240SOL     OW 2497   8.778   1.178   5.907 -0.1008  0.3509  0.2796
31240SOL    HW1 2498   8.835   1.103   5.924 -1.8556 -1.1359 -0.1760
31240SOL    HW2 2499   8.714   1.177   5.978  0.0283  1.6371  0.4439
31241SOL     OW 2500   2.547   4.225   6.029  0.1255 -0.0940 -0.3383
31241SOL    HW1 2501   2.539   4.153   5.967 -1.0058 -0.1909 -0.0983
31241SOL    HW2 2502   2.585   4.297   5.978  2.6510 -1.2359 -0.2468
31242SOL     OW 2503   7.609   7.420   0.655  0.2478  0.2938 -0.4262
31242SOL    HW1 2504   7.631   7.331   0.627 -1.0669 -0.5740  1.1585
31242SOL    HW2 2505   7.569   7.409   0.741 -0.0489  2.4267 -0.2417
31243SOL     OW 2506   0.295   5.892   0.053  0.2394  0.4001  0.1394
31243SOL    HW1 2507   0.348   5.869   0.129  0.1776 -1.8740 -0.4314
31243SOL    HW2 2508   0.232   5.956   0.087  1.3444  0.7857  1.5635
31244SOL     OW 2509   2.410   0.530   3.769  0.1514 -0.5373 -0.8626
31244SOL    HW1 2510   2.385   0.522   3.861 -1.2667  1.0368 -1.0488
31244SOL    HW2 2511   2.500   0.561   3.771 -0.0063 -0.1071  0.0231
31245SOL     OW 2512   6.062   7.885   3.952 -0.1247 -0.4196  0.5133
31245SOL    HW1 2513   6.061   7.843   3.867  0.0266 -0.1695  0.3848
31245SOL    HW2 2514   5.970   7.904   3.972 -0.2096 -0.9848  0.6624
31246SOL     OW 2515   3.033   6.404  10.490  0.0570  0.0208 -0.0342
31246SOL    HW1 2516   2.964   6.471  10.488  0.7690  0.8131 -2.1815
31246SOL    HW2 2517   2.995   6.330  10.537 -1.7915  0.8996 -0.0724
31247SOL     OW 2518  10.204  10.011   9.007 -0.0995  0.5936 -0.1198
31247SOL    HW1 2519  10.246  10.092   8.977 -0.5366  0.7432 -0.3329
31247SOL    HW2 2520  10.220   9.948   8.936 -1.4721  1.0540 -0.8909
31248SOL     OW 2521   4.295   9.351   9.613 -0.4376  0.0821  0.2344
31248SOL    HW1 2522   4.299   9.392   9.699 -0.4918 -2.0950  1.3378
31248SOL    HW2 2523   4.237   9.408   9.562 -0.5603  1.3074  1.6735
31249SOL     OW 2524   2.094   2.637   1.006 -0.1035 -0.7323  0.5391
31249SOL    HW1 2525   2.071   2.726   1.032  0.1929 -0.5871  0.3102
31249SOL    HW2 2526   2.014   2.601   0.969  0.4054  0.3167 -1.7589
31250SOL     OW 2527   4.656  11.882   7.764  0.4149 -0.2789 -0.3711
31250SOL    HW1 2528   4.577  11.829   7.759  0.8244 -0.9411  0.0011
31250SOL    HW2 2529   4.706  11.860   7.685  0.0081  0.5149 -0.8611
31251SOL     OW 2530   4.472   7.012  12.208 -0.4538  0.0025 -0.4732
31251SOL    HW1 2531   4.498   7.059  12.287 -2.3799 -0.5664  0.5684
31251SOL    HW2 2532   4.394   6.963  12.234 -0.6468 -0.8785 -2.5121
31252SOL     OW 2533   4.444  10.644   1.548 -0.4910  0.2723  0.0438
31252SOL    HW1 2534   4.422  10.556   1.576  0.8294 -0.5178 -1.2684
31252SOL    HW2 2535   4.435  10.697   1.627  1.5340 -1.5628  1.6082
31253SOL     OW 2536   4.830  12.265   1.491 -0.8052  0.1324  1.0213
31253SOL    HW1 2537   4.738  12.263   1.520 -1.3659  2.6129 -0.3054
31253SOL    HW2 2538   4.830  12.220   1.407 -1.2712  1.9383  0.0191
31254SOL     OW 2539   0.785   5.241   5.861  0.1919 -0.3602  0.5059
31254SOL    HW1 2540   0.826   5.327   5.851 -0.2050 -0.0122  1.6891
31254SOL    HW2 2541   0.793   5.200   5.775  2.4681 -0.0743  0.5195
31255SOL     OW 2542  11.322   3.690   0.673  0.2502 -0.5902  0.2395
31255SOL    HW1 2543  11.251   3.629   0.652  1.0362 -1.8477  1.1259
31255SOL    HW2 2544  11.284   3.776   0.656 -0.4797 -1.3201 -2.3115
31256SOL     OW 2545   5.842  10.003  10.667 -0.4785 -0.2142  0.4697
31256SOL    HW1 2546   5.868   9.988  10.577 -0.2989  1.4243  0.2220
31256SOL    HW2 2547   5.885  10.085  10.692  0.2237 -1.0963  2.3565
31257SOL     OW 2548   1.314   2.812   1.285 -0.2795  0.6062  0.0168
31257SOL    HW1 2549   1.366   2.892   1.290  0.1527  0.4480 -1.5910
31257SOL    HW2 2550   1.237   2.836   1.233  0.5322 -0.3407 -1.6895
31258SOL     OW 2551   5.299   9.660  12.597  0.3318 -0.0111 -0.1877
31258SOL    HW1 2552   5.271   9.683  12.686  0.8229 -3.8371  1.1378
31258SOL    HW2 2553   5.373   9.718  12.580  1.2688 -0.2111  2.6144
31259SOL     OW 2554   5.550   8.154   0.772  0.1321  1.0489  0.9711
31259SOL    HW1 2555   5.602   8.085   0.813 -0.6861  0.1219  0.5079
31259SOL    HW2 2556   5.459   8.132   0.795 -0.3028  0.8503 -0.7745
31260SOL     OW 2557   1.969   0.431   8.577  0.3156  0.2363  0.4931
31260SOL    HW1 2558   1.945   0.364   8.641 -3.3903 -0.7856 -1.6646
31260SOL    HW2 2559   2.035   0.388   8.522  0.0869 -0.6030  0.8558
31261SOL     OW 2560   3.671   3.816  11.595  0.1559  0.3634 -0.1735
31261SOL    HW1 2561   3.625   3.804  11.678  0.7657 -1.9128 -0.0875
31261SOL    HW2 2562   3.606   3.855  11.537 -0.6357  0.9027  1.0226
31262SOL     OW 2563   6.448   0.051   2.874 -0.3730 -0.0674  0.3703
31262SOL    HW1 2564   6.504  -0.017   2.913  0.4166  1.8769  2.8836
31262SOL    HW2 2565   6.378   0.063   2.937 -1.9538 -0.2519 -1.2762
31263SOL     OW 2566   5.878   6.183   5.911  0.6159 -0.1916 -0.1012
31263SOL    HW1 2567   5.810   6.120   5.885  1.1340 -0.4751 -0.8020
31263SOL    HW2 2568   5.960   6.139   5.890  0.9886  0.9237 -1.1027
31264SOL     OW 2569  11.183   9.329   5.867 -0.5255  0.6251  0.3569
31264SOL    HW1 2570  11.213   9.275   5.940 -2.2562  0.0649  0.6965
31264SOL    HW2 2571  11.256   9.388   5.849  0.4341 -0.1222  1.6561
31265SOL     OW 2572   2.146   4.816   2.742  0.2386 -0.3186  0.3011
31265SOL    HW1 2573   2.200   4.880   2.695 -2.2334  1.4508 -0.2968
31265SOL    HW2 2574   2.173   4.826   2.834 -0.0422  1.6173  0.2272
31266SOL     OW 2575  10.861   8.341  11.453  0.4511 -0.2300 -0.0172
31266SOL    HW1 2576  10.863   8.359  11.547 -1.1802  0.7696 -0.1268
31266SOL    HW2 2577  10.926   8.400  11.416  0.2030  0.3016  0.3793
31267SOL     OW 2578   5.959   6.835   8.642 -0.1174  0.0520  0.0374
31267SOL    HW1 2579   5.883   6.840   8.700 -1.3776  1.5192 -1.6546
31267SOL    HW2 2580   5.961   6.743   8.613 -0.9453 -0.1126  0.4801
31268SOL     OW 2581  11.052   9.329  10.938  0.0262 -0.2809 -0.2376
31268SOL    HW1 2582  11.052   9.419  10.905 -0.0326 -0.9304 -2.1316
31268SOL    HW2 2583  11.113   9.331  11.012  0.3151  1.2348 -0.4826
31269SOL     OW 2584   4.520   4.937   5.055  0.0237  0.6705  0.0867
31269SOL    HW1 2585   4.551   5.014   5.102 -1.2958  1.5818 -0.4647
31269SOL    HW2 2586   4.433   4.962   5.023  0.8798  0.1993 -2.9828
31270SOL     OW 2587   7.333   0.227   0.978  0.2590  0.0390  0.0195
31270SOL    HW1 2588   7.244   0.220   1.014  0.5551  0.6144  0.9033
31270SOL    HW2 2589   7.363   0.313   1.007  0.2548  0.8733 -2.2450
31271SOL     OW 2590   0.071   1.808   5.176  0.6805  0.0112 -0.1460
31271SOL    HW1 2591  -0.010   1.859   5.180  0.0043 -1.1402  2.4943
31271SOL    HW2 2592   0.141   1.872   5.194  0.0315  0.3672  1.1664
31272SOL     OW 2593  11.945   1.581   2.462  0.0990  0.2615 -0.3283
31272SOL    HW1 2594  12.015   1.602   2.523  0.1356  0.2371 -0.3623
31272SOL    HW2 2595  11.990   1.565   2.379  0.0307  0.4795 -0.4068
31273SOL     OW 2596   8.204   8.642   2.595  0.2061  0.0538  0.0379
31273SOL    HW1 2597   8.271   8.633   2.528 -0.1050 -1.9968 -0.0700
31273SOL    HW2 2598   8.205   8.735   2.619  1.5864  0.4581 -1.4685
31274SOL     OW 2599   8.653   7.441   3.837 -0.4138 -0.1228 -0.3430
31274SOL    HW1 2600   8.588   7.414   3.772 -0.2749  0.6185 -0.7995
31274SOL    HW2 2601   8.635   7.534   3.851 -0.9637 -0.4445  1.2822
31275SOL     OW 2602   3.762   7.087   0.926 -0.1132  0.6098  0.1121
31275SOL    HW1 2603   3.851   7.094   0.961 -0.4136  1.2600  0.7849
31275SOL    HW2 2604   3.769   7.118   0.836  0.1290  1.8405  0.5313
31276SOL     OW 2605   3.659   4.901   6.867 -0.5922  0.3740 -0.2184
31276SOL    HW1 2606   3.639   4.808   6.867  1.8030 -0.2231  1.5627
31276SOL    HW2 2607   3.728   4.911   6.801 -0.7532  0.8907 -0.3162
31277SOL     OW 2608   9.107   0.795   8.807 -0.0721  0.7951 -0.4656
31277SOL    HW1 2609   9.155   0.849   8.871  0.6087  0.9489 -1.0878
31277SOL    HW2 2610   9.052   0.738   8.860 -0.1623  1.5156  0.2318
31278SOL     OW 2611   9.365   5.350   4.818  0.3799  0.6540  0.3724
31278SOL    HW1 2612   9.449   5.373   4.779  0.5626 -0.0560  0.3390
31278SOL    HW2 2613   9.353   5.257   4.797 -0.3128  0.6987  0.5522
31279SOL     OW 2614   3.642   0.986  12.573  0.7632  0.0490 -0.3913
31279SOL    HW1 2615   3.726   0.942  12.556  1.0712  0.7556 -0.7588
31279SOL    HW2 2616   3.653   1.023  12.661  1.1840  0.8852 -0.7803
31280SOL     OW 2617   1.853  11.749  10.084 -0.5210  0.2937  0.1854
31280SOL    HW1 2618   1.774  11.787  10.122 -0.7298 -1.0829  1.1983
31280SOL    HW2 2619   1.821  11.695  10.012 -0.8723 -2.3686  2.1881
31281SOL     OW 2620   2.501  11.701  10.549  0.0054  0.2182 -0.2708
31281SOL    HW1 2621   2.479  11.788  10.517 -1.7402  0.1843  0.7320
31281SOL    HW2 2622   2.504  11.711  10.644  1.3632 -0.4914 -0.2166
31282SOL     OW 2623  11.052   9.562  10.748 -0.2748  0.1622  0.3146
31282SOL    HW1 2624  10.999   9.554  10.669  0.7141 -0.5633 -0.3032
31282SOL    HW2 2625  11.051   9.655  10.769  0.7962  0.6460 -1.5352
31283SOL     OW 2626   8.764   2.347   2.233  0.0011  0.6200  0.1783
31283SOL    HW1 2627   8.704   2.383   2.168 -1.5579 -0.5982  0.8949
31283SOL    HW2 2628   8.842   2.403   2.227 -1.1360  2.1687 -0.8599
31284SOL     OW 2629   2.888  10.025   4.461 -0.6232  0.0243  0.1143
31284SOL    HW1 2630   2.794  10.022   4.443 -0.7404 -1.0839  0.8610
31284SOL    HW2 2631   2.895  10.067   4.547 -0.5146 -0.9517  0.5862
31285SOL     OW 2632   7.406   3.265   5.455  0.5392  0.0291  0.2680
31285SOL    HW1 2633   7.420   3.173   5.477  0.2045  0.0739  0.6673
31285SOL    HW2 2634   7.316   3.269   5.423  1.0649 -0.0735 -1.3131
31286SOL     OW 2635   5.128   8.128   2.628 -0.7712 -0.0050  0.4854
31286SOL    HW1 2636   5.082   8.048   2.654 -0.9565  0.1353  0.5902
31286SOL    HW2 2637   5.186   8.100   2.558  0.1477 -0.5042  1.4218
31287SOL     OW 2638   0.629  10.551   2.306  0.3945  0.2382 -0.1909
31287SOL    HW1 2639   0.658  10.547   2.397 -1.7284 -1.3278  0.4863
31287SOL    HW2 2640   0.564  10.481   2.298  0.6031  0.2440 -2.9608
31288SOL     OW 2641  11.101   6.596   7.022  0.0904 -0.2515 -0.5223
31288SOL    HW1 2642  11.022   6.546   7.001 -0.3734  0.1741  0.1626
31288SOL    HW2 2643  11.081   6.685   6.991 -0.5075  0.3325  1.3668
31289SOL     OW 2644  10.032   1.945   5.253  0.1761 -0.0472 -0.3682
31289SOL    HW1 2645  10.116   1.902   5.239  0.7429  0.9579 -0.1469
31289SOL    HW2 2646  10.054   2.034   5.281 -0.9119 -0.4440  2.0195
31290SOL     OW 2647   4.061  10.928   4.875 -0.4061 -0.1402 -0.1990
31290SOL    HW1 2648   4.030  11.005   4.828 -1.6515  0.8998  2.1278
31290SOL    HW2 2649   4.155  10.943   4.885 -0.3727  0.3020 -1.1345
31291SOL     OW 2650   0.887  12.406   7.555 -0.0889  0.3519 -0.0370
31291SOL    HW1 2651   0.886  12.384   7.462  1.5546  1.1931 -0.2961
31291SOL    HW2 2652   0.944  12.483   7.561 -0.6448  0.6850  1.5989
31292SOL     OW 2653   2.434  11.850   9.820  0.4733  0.3575 -0.0352
31292SOL    HW1 2654   2.439  11.882   9.910  0.0244 -0.2945  0.2307
31292SOL    HW2 2655   2.347  11.877   9.790  0.8363  1.0761 -0.4812
31293SOL     OW 2656   3.898   0.998   6.863  0.0489 -0.0373 -0.4767
31293SOL    HW1 2657   3.989   0.981   6.839  0.2538  1.4311 -0.8699
31293SOL    HW2 2658   3.902   1.021   6.956 -0.0650 -0.9095 -0.2488
31294SOL     OW 2659   3.605   8.402   0.853 -0.1868 -0.4235  0.3429
31294SOL    HW1 2660   3.646   8.317   0.868  0.0892 -0.0037  2.1063
31294SOL    HW2 2661   3.512   8.386   0.868 -0.0230 -0.2181  1.6374
31295SOL     OW 2662   3.921  11.581   8.183 -0.1485  0.5138 -0.4253
31295SOL    HW1 2663   3.851  11.626   8.230  0.0397  1.0392 -0.6388
31295SOL    HW2 2664   3.876  11.524   8.121 -0.4001 -0.1449  0.3514
31296SOL     OW 2665  11.295   2.826  10.192 -0.1944  0.4357 -0.6205
31296SOL    HW1 2666  11.319   2.788  10.107  1.2080  1.0176 -0.5197
31296SOL    HW2 2667  11.275   2.917  10.173  1.4287  0.9290 -0.1924
31297SOL     OW 2668   8.946   0.905  12.095 -0.0543 -0.2956 -0.3652
31297SOL    HW1 2669   8.993   0.934  12.173 -1.7675  0.6934  0.3558
31297SOL    HW2 2670   8.924   0.814  12.113  0.5863 -0.4321 -0.2315
31298SOL     OW 2671   8.646   7.776   1.350  0.2073 -0.4471  0.2341
31298SOL    HW1 2672   8.604   7.691   1.363 -0.2189 -0.3501 -0.4717
31298SOL    HW2 2673   8.738   7.761   1.373 -0.0365 -0.8707  0.9758
31299SOL     OW 2674   1.010  10.249   9.445 -0.2322 -0.2546 -0.1735
31299SOL    HW1 2675   1.012  10.164   9.490 -0.0053 -0.1000  0.1112
31299SOL    HW2 2676   1.100  10.262   9.415 -0.1257  0.1694  0.3232
31300SOL     OW 2677   7.834  10.946   3.790  0.3517  0.1974  0.3624
31300SOL    HW1 2678   7.805  10.998   3.715 -0.3624 -0.4025  0.2148
31300SOL    HW2 2679   7.900  11.001   3.833 -1.2666  1.7763  0.9264
31301SOL     OW 2680   2.394   9.911  11.923 -0.6104 -0.5310  0.3110
31301SOL    HW1 2681   2.466   9.948  11.974 -1.4545  1.6440  0.0405
31301SOL    HW2 2682   2.431   9.901  11.835  0.1116 -1.9819  0.7384
31302SOL     OW 2683   1.092   6.011   4.197  0.0895 -0.4941 -0.2957
31302SOL    HW1 2684   1.097   6.055   4.281 -0.2646 -1.3982  0.2092
31302SOL    HW2 2685   1.086   5.918   4.218  0.1388 -0.7479 -1.3194
31303SOL     OW 2686  10.045  12.466   6.362  0.4407 -0.1626 -0.1879
31303SOL    HW1 2687  10.043  12.427   6.275 -0.2766  1.2573 -0.8550
31303SOL    HW2 2688  10.130  12.441   6.399  0.0685 -2.1681 -0.6061
31304SOL     OW 2689   7.480   5.642  10.101 -0.4771 -0.2114 -0.7788
31304SOL    HW1 2690   7.393   5.665  10.070 -0.6744 -0.2279 -0.2497
31304SOL    HW2 2691   7.518   5.589  10.032 -1.0944 -0.6591 -0.7741
31305SOL     OW 2692   8.344   1.215   2.899  0.2480  0.7065 -0.3264
31305SOL    HW1 2693   8.298   1.194   2.981 -0.5486 -1.2503 -1.2179
31305SOL    HW2 2694   8.430   1.244   2.928 -0.0130  0.0842  1.2336
31306SOL     OW 2695   1.671   0.565  10.425  0.0582 -0.1222  0.6065
31306SOL    HW1 2696   1.609   0.563  10.498  1.0033 -2.1952  1.4294
31306SOL    HW2 2697   1.629   0.620  10.359 -2.1088 -0.4920  1.6006
31307SOL     OW 2698   3.934   4.257   5.348  0.4039 -0.4684 -0.1602
31307SOL    HW1 2699   3.846   4.291   5.336 -0.0501 -1.8915 -1.0737
31307SOL    HW2 2700   3.948   4.258   5.442 -0.1115  0.8782 -0.0771
31308SOL     OW 2701  11.847  10.626   9.497 -0.2047  0.4355 -0.3098
31308SOL    HW1 2702  11.908  10.625   9.570 -0.7719 -2.2027  0.2234
31308SOL    HW2 2703  11.901  10.649   9.421  0.8129  1.1550  0.6017
31309SOL     OW 2704   6.452   5.107  10.917 -0.1412  0.3210  0.4581
31309SOL    HW1 2705   6.520   5.166  10.949 -1.0121  0.9945  1.1292
31309SOL    HW2 2706   6.392   5.098  10.991 -0.4964 -0.6918  0.0568
31310SOL     OW 2707   7.346  11.633   9.580 -0.1075  0.0345  0.2578
31310SOL    HW1 2708   7.352  11.542   9.552  0.3052  0.3916 -0.8571
31310SOL    HW2 2709   7.301  11.678   9.508  0.0786  0.7896  0.5979
31311SOL     OW 2710   8.420  10.894   3.925  0.2647 -0.2180  0.2522
31311SOL    HW1 2711   8.459  10.826   3.979  1.6519  0.5618  0.2912
31311SOL    HW2 2712   8.373  10.950   3.987  1.3763  0.3536  0.6116
31312SOL     OW 2713   7.315   3.062  11.932 -0.0975 -0.0499 -0.2713
31312SOL    HW1 2714   7.346   3.065  11.841  0.9771 -0.8457  0.0491
31312SOL    HW2 2715   7.229   3.021  11.927 -1.2014  2.1611 -1.1870
31313SOL     OW 2716   8.205   1.239   3.836  0.2051  0.0887 -0.0666
31313SOL    HW1 2717   8.117   1.233   3.874  0.2934  1.6783  0.4715
31313SOL    HW2 2718   8.226   1.150   3.809 -1.9614 -0.1696 -1.0806
31314SOL     OW 2719   6.360   1.792   5.327 -0.3728 -0.0035  0.2551
31314SOL    HW1 2720   6.381   1.744   5.407  0.3017 -0.3944 -0.1442
31314SOL    HW2 2721   6.409   1.746   5.259 -0.9761  0.2978 -0.3898
31315SOL     OW 2722   3.331   5.125  11.159  0.2585  0.0011  0.9396
31315SOL    HW1 2723   3.294   5.207  11.127 -1.6803 -1.6448 -1.3618
31315SOL    HW2 2724   3.296   5.116  11.248 -0.5906  1.0442  0.7210
31316SOL     OW 2725  11.056  10.784   2.694  0.1088 -0.0252 -0.0762
31316SOL    HW1 2726  11.050  10.836   2.774  2.0973 -0.9139  0.7013
31316SOL    HW2 2727  11.098  10.842   2.631  0.3948 -0.0024  0.1366
31317SOL     OW 2728   7.495   6.039   9.533 -0.4190  0.4023  0.1370
31317SOL    HW1 2729   7.491   6.121   9.583  2.3507  0.6350  0.1726
31317SOL    HW2 2730   7.412   6.034   9.487 -1.9324  1.6277  2.5498
31318SOL     OW 2731   3.246  10.262   4.122 -0.7403 -0.2739  0.4483
31318SOL    HW1 2732   3.197  10.313   4.187  1.0998  1.8168  0.3367
31318SOL    HW2 2733   3.258  10.322   4.049 -2.1325 -2.3481 -1.6169
31319SOL     OW 2734   4.370   2.165   1.825  0.2004  0.6212 -0.7890
31319SOL    HW1 2735   4.283   2.158   1.784  0.5597  1.6573 -1.7674
31319SOL    HW2 2736   4.421   2.220   1.765  1.8607 -0.7865 -0.7541
31320SOL     OW 2737   9.558  12.560   9.656 -0.1747  0.2374 -0.4974
31320SOL    HW1 2738   9.626  12.561   9.589 -0.1220  1.7588 -0.4571
31320SOL    HW2 2739   9.529  12.651   9.662 -0.3686  0.0893  1.3481
31321SOL     OW 2740   2.700   7.438   4.318  0.1788 -0.2741 -0.7882
31321SOL    HW1 2741   2.698   7.375   4.246  0.9998 -0.5752 -0.5618
31321SOL    HW2 2742   2.648   7.512   4.287  0.6451 -0.3349 -1.7566
31322SOL     OW 2743   7.747  10.027   6.375 -0.5220  0.1611 -0.4668
31322SOL    HW1 2744   7.695  10.031   6.295  1.3387  2.1552 -1.6612
31322SOL    HW2 2745   7.702  10.087   6.436 -1.7078 -1.0516 -0.0858
31323SOL     OW 2746   6.945   1.893   8.530  0.0803  0.6963 -0.2985
31323SOL    HW1 2747   6.973   1.806   8.504  0.9059  1.4761 -2.1943
31323SOL    HW2 2748   6.862   1.907   8.485  0.0314  0.9361 -0.1366
31324SOL     OW 2749   7.742   4.639  12.611  0.5302  0.3004  0.0528
31324SOL    HW1 2750   7.836   4.625  12.614  0.3231 -1.5622 -0.7965
31324SOL    HW2 2751   7.728   4.692  12.532  0.7296 -1.2355 -1.0721
31325SOL     OW 2752   3.985   8.286   0.402  0.8153 -0.5336  0.4221
31325SOL    HW1 2753   3.988   8.204   0.353 -0.0209  0.6377 -1.7326
31325SOL    HW2 2754   4.066   8.332   0.377  1.0106 -0.4560  1.1731
31326SOL     OW 2755   3.529  11.479  10.691  0.2605 -0.4485  0.1693
31326SOL    HW1 2756   3.580  11.511  10.617  0.9195 -0.6923  0.5089
31326SOL    HW2 2757   3.518  11.385  10.674 -1.8052 -0.0681 -0.9067
31327SOL     OW 2758  12.268  11.083   7.538  0.1059 -0.3673  0.5326
31327SOL    HW1 2759  12.322  11.119   7.608  1.3014 -0.3859 -0.3545
31327SOL    HW2 2760  12.306  10.997   7.520 -0.2535 -0.4036 -0.0682
31328SOL     OW 2761   1.055   5.669   2.391  0.3796 -0.0574  0.0412
31328SOL    HW1 2762   1.120   5.600   2.403 -0.0060 -0.1833  1.7008
31328SOL    HW2 2763   1.052   5.714   2.476 -1.5990  0.0370 -0.0309
31329SOL     OW 2764   0.988   3.775   7.711  0.3168  0.3621  0.0709
31329SOL    HW1 2765   0.944   3.848   7.668 -0.8160 -1.4059 -1.9688
31329SOL    HW2 2766   1.079   3.803   7.719 -0.2353  2.2935  0.1570
31330SOL     OW 2767   4.674   5.719   8.293 -0.0571  0.4459  0.1083
31330SOL    HW1 2768   4.685   5.753   8.205  0.9294 -1.3513 -0.4961
31330SOL    HW2 2769   4.630   5.635   8.282 -0.1481  0.3029  1.3490
31331SOL     OW 2770  12.032   6.488   3.863  0.1956  0.1625  0.0245
31331SOL    HW1 2771  12.053   6.492   3.770 -0.9596 -3.0602 -0.4927
31331SOL    HW2 2772  11.940   6.514   3.869 -0.6331 -2.4553 -0.2480
31332SOL     OW 2773   8.552   5.759   2.090 -0.0920 -0.2810  0.0843
31332SOL    HW1 2774   8.565   5.725   2.179  0.6341  1.7385  0.8050
31332SOL    HW2 2775   8.461   5.741   2.070 -0.0900 -1.3683  0.9566
31333SOL     OW 2776   5.652   4.774   1.987  0.0166 -0.2147  0.1240
31333SOL    HW1 2777   5.622   4.843   2.046  1.6574  0.5593  0.1110
31333SOL    HW2 2778   5.667   4.819   1.904  0.9068 -0.6140  0.0544
31334SOL     OW 2779   4.415   2.797  12.482 -0.1370  0.4219  0.3311
31334SOL    HW1 2780   4.507   2.817  12.497  0.0196  1.1101 -1.3681
31334SOL    HW2 2781   4.367   2.864  12.531  0.2157 -0.4429  1.9187
31335SOL     OW 2782  10.659   4.314   3.093  0.1582 -0.0787  0.0011
31335SOL    HW1 2783  10.583   4.316   3.034 -0.9324 -0.0126  1.3397
31335SOL    HW2 2784  10.638   4.245   3.156  0.4534  1.0101  1.3457
31336SOL     OW 2785  10.349  12.457   8.633  0.1318  0.2657  0.0500
31336SOL    HW1 2786  10.429  12.412   8.662  1.1024  0.6596 -1.8216
31336SOL    HW2 2787  10.293  12.458   8.710  1.7308 -0.4787  1.2992
31337SOL     OW 2788  12.321   2.040   6.843  0.0013 -0.3822 -0.3448
31337SOL    HW1 2789  12.326   2.114   6.783  2.1901 -0.8291 -0.7795
31337SOL    HW2 2790  12.241   1.995   6.818 -1.7632  2.1358  0.3494
31338SOL     OW 2791   9.154  12.253   0.518 -0.0813 -0.3933  0.3501
31338SOL    HW1 2792   9.223  12.277   0.457  1.5360 -2.5821  1.2074
31338SOL    HW2 2793   9.146  12.328   0.577 -0.0528  0.7913 -1.1097
31339SOL     OW 2794   0.773  12.459   7.297  0.0779  0.1120  0.3666
31339SOL    HW1 2795   0.697  12.406   7.322  0.3437  0.0875  1.1396
31339SOL    HW2 2796   0.759  12.477   7.204 -1.1552  0.5676  0.6203
31340SOL     OW 2797  10.402   2.168   6.566  0.2522  0.4729 -0.0780
31340SOL    HW1 2798  10.383   2.218   6.645 -3.9457 -0.1134 -0.4976
31340SOL    HW2 2799  10.347   2.208   6.498  0.5968 -1.5543 -1.6525
31341SOL     OW 2800  10.185  10.405   3.138 -1.3949 -0.2399 -0.3267
31341SOL    HW1 2801  10.190  10.321   3.183  3.1428  0.7267  1.4595
31341SOL    HW2 2802  10.094  10.433   3.150 -2.7612 -4.1863  0.0762
31342SOL     OW 2803   7.068   3.276   4.536 -0.4880  0.2063 -0.0829
31342SOL    HW1 2804   7.023   3.264   4.620 -0.5241 -1.7219 -0.3153
31342SOL    HW2 2805   7.004   3.320   4.480 -0.9316  0.3335  0.5160
31343SOL     OW 2806  11.189  10.772   0.542 -0.0467 -0.5952 -0.2842
31343SOL    HW1 2807  11.197  10.751   0.448 -0.4960  0.4255 -0.5661
31343SOL    HW2 2808  11.194  10.867   0.545 -1.6690 -0.5069  0.5705
31344SOL     OW 2809   9.294   0.741  11.076 -0.2714  0.3770  0.3270
31344SOL    HW1 2810   9.219   0.779  11.121 -0.6260  0.5775 -0.4292
31344SOL    HW2 2811   9.259   0.664  11.031 -0.3185  1.2029 -1.1074
31345SOL     OW 2812   1.026   7.225   5.397  0.1277  0.5118 -0.0375
31345SOL    HW1 2813   0.992   7.288   5.460  0.3717  1.0839 -0.4670
31345SOL    HW2 2814   1.108   7.264   5.365 -0.9196  1.1871 -2.1173
31346SOL     OW 2815   5.989   5.339   1.338  0.1087  0.0455 -0.3460
31346SOL    HW1 2816   5.975   5.244   1.330  0.1163  0.0222 -0.0695
31346SOL    HW2 2817   5.922   5.377   1.281 -0.7251 -0.0861  0.5169
31347SOL     OW 2818   1.201   2.741   7.766  0.4594 -0.6007  0.3749
31347SOL    HW1 2819   1.128   2.791   7.802  1.5202  0.0259  1.7484
31347SOL    HW2 2820   1.277   2.797   7.778  1.5278 -2.1029  0.9887
31348SOL     OW 2821   3.883   1.230   3.983  0.0639 -0.7913 -0.6620
31348SOL    HW1 2822   3.793   1.261   3.990  0.1426 -0.8620  0.9907
31348SOL    HW2 2823   3.926   1.294   3.927 -0.1877  1.1869  1.2836
31349SOL     OW 2824   1.877   5.975   6.721 -0.0120  0.2367  0.0542
31349SOL    HW1 2825   1.870   5.987   6.816  2.0744 -0.8356  0.3974
31349SOL    HW2 2826   1.917   5.889   6.710 -2.4295 -0.7556 -1.9161
31350SOL     OW 2827   7.404  12.530   1.021  0.0759  0.2942 -0.2779
31350SOL    HW1 2828   7.397  12.625   1.033  0.3540  0.2058  0.6823
31350SOL    HW2 2829   7.465  12.519   0.948  0.1777  0.8560 -0.2796
31351SOL     OW 2830   2.512   9.279  11.682 -1.0669 -0.1350 -0.5447
31351SOL    HW1 2831   2.429   9.242  11.652 -1.5547  0.4424  0.0640
31351SOL    HW2 2832   2.512   9.368  11.648 -2.3703  1.1146  2.3292
31352SOL     OW 2833   1.821   9.320   4.249  0.3742  0.2553 -0.3853
31352SOL    HW1 2834   1.860   9.354   4.330 -0.6783 -0.7499  0.5815
31352SOL    HW2 2835   1.880   9.250   4.221 -0.2619 -0.7064  0.6139
31353SOL     OW 2836   4.592  11.030   1.083  0.5526 -0.6171  0.0712
31353SOL    HW1 2837   4.635  10.975   1.149  1.0358 -2.6077 -1.7703
31353SOL    HW2 2838   4.662  11.053   1.021  0.0358  0.8322 -0.0024
31354SOL     OW 2839   3.063   3.928   2.246  0.0936  0.2608 -0.3941
31354SOL    HW1 2840   3.093   4.010   2.206  0.6071  0.4590  0.3749
31354SOL    HW2 2841   2.968   3.939   2.253  0.0803  0.5095 -0.9151
31355SOL     OW 2842   7.066   4.639   6.682 -0.1064 -0.3329  0.0385
31355SOL    HW1 2843   7.153   4.600   6.672 -0.5168 -0.8712 -1.8973
31355SOL    HW2 2844   7.056   4.653   6.776  2.1686 -0.0117  0.2788
31356SOL     OW 2845   0.436  11.413  10.741 -0.0069 -0.0469 -0.0908
31356SOL    HW1 2846   0.386  11.492  10.716 -0.4959 -0.8020 -1.6442
31356SOL    HW2 2847   0.527  11.435  10.721  0.1572  0.8706  1.5227
31357SOL     OW 2848   8.327   5.924   7.418 -0.1593  0.8563 -0.3342
31357SOL    HW1 2849   8.263   5.949   7.485  0.7434 -1.4663  1.5395
31357SOL    HW2 2850   8.276   5.878   7.352 -0.7827  1.4036 -0.2465
31358SOL     OW 2851   6.389   2.531   9.842  0.2955 -0.2637  0.1830
31358SOL    HW1 2852   6.381   2.464   9.909 -0.6608  0.1458  0.5011
31358SOL    HW2 2853   6.468   2.580   9.866  1.5917 -1.8704 -0.6331
31359SOL     OW 2854   7.123   2.006   8.774 -0.0150 -0.1067  0.4270
31359SOL    HW1 2855   7.163   2.017   8.687 -0.5010  0.0313  0.2182
31359SOL    HW2 2856   7.106   2.096   8.803 -1.8274 -0.1962 -0.2618
31360SOL     OW 2857   3.954  10.027   4.336 -0.4101  0.1314 -0.0450
31360SOL    HW1 2858   3.971  10.116   4.305 -0.6658  0.4209  0.6334
31360SOL    HW2 2859   3.945  10.036   4.431  2.4784 -1.0486  0.4390
31361SOL     OW 2860   9.513   7.027   6.438  0.1942 -0.0820  0.1912
31361SOL    HW1 2861   9.529   6.934   6.452  0.5379 -0.1046 -0.3287
31361SOL    HW2 2862   9.470   7.056   6.519  2.4370 -0.1355  1.4833
31362SOL     OW 2863   0.731   8.532   1.516 -0.5696  0.0232  0.3684
31362SOL    HW1 2864   0.707   8.440   1.530  0.9352 -0.5041 -0.3378
31362SOL    HW2 2865   0.701   8.551   1.427  0.0377 -0.1116  0.1301
31363SOL     OW 2866   5.211   0.847  12.171  0.1722 -0.4207 -0.2565
31363SOL    HW1 2867   5.133   0.883  12.129 -0.2649 -0.2079  0.7000
31363SOL    HW2 2868   5.258   0.802  12.101 -1.5062 -1.7459 -0.6196
31364SOL     OW 2869   0.465   5.560   9.172  0.0509  0.7106 -0.2302
31364SOL    HW1 2870   0.515   5.625   9.123  0.0206  0.9688  0.0780
31364SOL    HW2 2871   0.486   5.578   9.263  0.0259  0.2979 -0.1447
31365SOL     OW 2872  11.103   0.715   7.487 -0.8260 -0.0065 -0.1996
31365SOL    HW1 2873  11.007   0.721   7.490 -0.7884  2.3132  3.9231
31365SOL    HW2 2874  11.132   0.807   7.487  1.3636 -0.6484  0.4699
31366SOL     OW 2875   9.419   9.383  11.032 -0.0423  0.1453  0.3022
31366SOL    HW1 2876   9.381   9.316  10.975  0.6735  0.3121 -0.3828
31366SOL    HW2 2877   9.397   9.466  10.990 -0.2613  0.3114  0.7372
31367SOL     OW 2878   0.475   6.375   7.534  0.4159 -0.2308  0.0188
31367SOL    HW1 2879   0.452   6.323   7.457  1.5074  1.6094 -1.6537
31367SOL    HW2 2880   0.406   6.441   7.540 -0.9920 -1.7660  2.1521
31368SOL     OW 2881   1.208   9.367   1.231  0.5205  0.1425  0.5621
31368SOL    HW1 2882   1.247   9.320   1.157 -1.3675 -0.1214 -0.3425
31368SOL    HW2 2883   1.235   9.317   1.308  1.2749 -0.4889 -0.0892
31369SOL     OW 2884  11.465   3.067  11.176  0.0644  0.3044 -0.5769
31369SOL    HW1 2885  11.507   3.145  11.140 -0.4065  0.6904 -0.2917
31369SOL    HW2 2886  11.495   2.996  11.119 -0.1663  0.8089 -1.3442
31370SOL     OW 2887  10.098   7.892   3.217  0.1729 -0.4781 -0.5525
31370SOL    HW1 2888  10.120   7.828   3.150  1.6025 -1.1386  0.4771
31370SOL    HW2 2889  10.004   7.908   3.206  0.3840 -0.5003 -2.7158
31371SOL     OW 2890   2.529   8.477   6.729  0.4451 -0.8596 -0.0011
31371SOL    HW1 2891   2.491   8.519   6.652  0.5259 -0.6351  0.0821
31371SOL    HW2 2892   2.513   8.538   6.800  1.2189 -0.6251 -0.0201
31372SOL     OW 2893   2.440   7.274   0.118  0.1219  0.2457  0.0776
31372SOL    HW1 2894   2.530   7.297   0.142  0.5772 -1.0416 -0.2932
31372SOL    HW2 2895   2.410   7.347   0.064  0.8919  0.7556  0.3205
31373SOL     OW 2896  10.517   7.529   7.085  0.7013  0.2641  0.2501
31373SOL    HW1 2897  10.492   7.616   7.057  0.7894 -0.0374 -0.8106
31373SOL    HW2 2898  10.534   7.537   7.179  1.4819  1.5574  0.0107
31374SOL     OW 2899  11.556   2.801  12.011 -0.3451  0.3554  0.0221
31374SOL    HW1 2900  11.586   2.865  12.076  0.1738 -0.7501  0.9072
31374SOL    HW2 2901  11.463   2.791  12.028 -0.2487  0.2144  0.4704
31375SOL     OW 2902   8.379   1.304   7.105  0.5192 -0.3593 -0.4880
31375SOL    HW1 2903   8.335   1.376   7.149 -0.7485 -0.6673 -1.2060
31375SOL    HW2 2904   8.350   1.310   7.014  2.9043  0.1430 -1.3029
31376SOL     OW 2905   7.183  10.747   4.130 -0.2256  0.7895 -0.7660
31376SOL    HW1 2906   7.110  10.698   4.093 -2.1483  3.1873 -0.3902
31376SOL    HW2 2907   7.144  10.800   4.199  2.0546  1.5123  0.0565
31377SOL     OW 2908   4.310   9.615   2.475 -0.1683  0.0316  0.6054
31377SOL    HW1 2909   4.392   9.661   2.492 -0.5049  1.0789 -0.4990
31377SOL    HW2 2910   4.309   9.601   2.381 -2.0775  1.7296  0.2904
31378SOL     OW 2911   0.147   2.183   9.115  0.5911 -0.5187 -0.7288
31378SOL    HW1 2912   0.075   2.212   9.171  0.1307  1.0533 -2.0492
31378SOL    HW2 2913   0.110   2.109   9.066 -0.4832  0.8030 -2.0076
31379SOL     OW 2914   6.652  10.259   8.755 -0.3556 -0.0359  0.7742
31379SOL    HW1 2915   6.641  10.346   8.716  1.6152  0.1296  0.4675
31379SOL    HW2 2916   6.708  10.212   8.693 -1.6303 -1.6609  0.7822
31380SOL     OW 2917   3.470   9.058  11.082 -0.0439  0.2596  0.4839
31380SOL    HW1 2918   3.514   9.134  11.043  0.9646 -0.2916  0.5175
31380SOL    HW2 2919   3.388   9.051  11.035  1.1165 -0.3763 -1.5533
31381SOL     OW 2920   2.809  10.008  10.463  0.2581 -0.0307  0.4560
31381SOL    HW1 2921   2.769  10.008  10.377  2.4939 -2.9990 -0.7385
31381SOL    HW2 2922   2.735  10.007  10.524 -1.3688  2.2591 -1.3213
31382SOL     OW 2923   7.888   4.040  11.800  0.1875 -0.0461 -0.1827
31382SOL    HW1 2924   7.977   4.006  11.807  0.5582  0.8117 -0.6560
31382SOL    HW2 2925   7.897   4.135  11.815 -0.5377  0.1600 -0.9849
31383SOL     OW 2926   3.876   2.484   5.429  0.0148 -0.4168  0.3073
31383SOL    HW1 2927   3.940   2.538   5.476  0.2639  0.7047 -1.2248
31383SOL    HW2 2928   3.840   2.543   5.362 -1.1994 -1.5982 -0.1165
31384SOL     OW 2929  10.319   8.993  10.908  0.0002  0.3002 -0.3160
31384SOL    HW1 2930  10.409   8.997  10.875  0.3189  0.3437  0.5127
31384SOL    HW2 2931  10.267   9.039  10.843  0.6607  0.7332 -0.5536
31385SOL     OW 2932   3.961   1.221   6.075  0.4268  0.2224 -0.9708
31385SOL    HW1 2933   3.881   1.171   6.060 -0.3793  0.6389  1.4959
31385SOL    HW2 2934   4.016   1.163   6.128  0.3657  1.1024  0.1030
31386SOL     OW 2935   1.371   0.818  10.494  0.1645 -0.8983 -0.2629
31386SOL    HW1 2936   1.335   0.774  10.417  1.9733  0.4942 -2.0000
31386SOL    HW2 2937   1.296   0.863  10.533 -0.3340  0.7422 -2.9068
31387SOL     OW 2938   2.253  12.009  10.497 -0.2234  0.5874 -0.0237
31387SOL    HW1 2939   2.189  11.990  10.427  0.5995  1.2371 -0.9852
31387SOL    HW2 2940   2.338  11.997  10.455  0.2866  1.4420  0.7401
31388SOL     OW 2941   0.609   6.878  11.053  0.4914 -0.6950  0.4882
31388SOL    HW1 2942   0.591   6.817  10.982 -0.5878 -0.4316  0.5196
31388SOL    HW2 2943   0.615   6.822  11.131  0.6365 -0.8790  0.3448
31389SOL     OW 2944   1.480   3.401   3.185 -0.2491 -0.4643 -0.1789
31389SOL    HW1 2945   1.508   3.490   3.207 -1.9374  0.2038 -0.5987
31389SOL    HW2 2946   1.533   3.345   3.242  1.7200  0.6918 -0.7484
31390SOL     OW 2947   0.393   4.791   1.232 -0.2351 -0.0603  0.3584
31390SOL    HW1 2948   0.374   4.876   1.193  0.2185 -1.4834 -3.3836
31390SOL    HW2 2949   0.424   4.738   1.159  4.6944 -1.9822  3.3584
31391SOL     OW 2950   8.282  12.192   5.493 -0.2240 -0.2138 -0.2846
31391SOL    HW1 2951   8.330  12.274   5.487  1.1516 -1.0172 -0.8519
31391SOL    HW2 2952   8.225  12.202   5.570  1.2973  0.5785  0.7871
31392SOL     OW 2953   7.959   5.588   4.317  0.3339 -0.4454 -0.9637
31392SOL    HW1 2954   8.034   5.594   4.377 -0.3669  3.3504 -0.1435
31392SOL    HW2 2955   7.892   5.541   4.367  0.7357  0.0734  0.0989
31393SOL     OW 2956   8.531   1.287   4.981 -0.1366 -0.1400 -0.0660
31393SOL    HW1 2957   8.553   1.336   5.061  0.2304 -1.7115  0.8388
31393SOL    HW2 2958   8.614   1.255   4.949 -0.2025  1.0195 -1.5034
31394SOL     OW 2959   2.002   2.647   3.902  0.3208 -0.3394  0.4413
31394SOL    HW1 2960   1.993   2.658   3.807  1.6808 -0.4437  0.2826
31394SOL    HW2 2961   1.912   2.638   3.934 -0.5404  3.5164 -0.3612
31395SOL     OW 2962  12.122   0.268   6.456 -0.0031  0.3226 -0.3205
31395SOL    HW1 2963  12.054   0.201   6.451 -0.6581  1.0614 -2.3355
31395SOL    HW2 2964  12.204   0.220   6.443 -0.4033 -0.2088 -0.9492
31396SOL     OW 2965   7.621   6.805   5.440  0.1963 -0.2347 -0.2558
31396SOL    HW1 2966   7.691   6.756   5.397 -0.5314 -1.7562  0.2260
31396SOL    HW2 2967   7.553   6.812   5.373  0.8729  1.4973 -0.8201
31397SOL     OW 2968  11.689   4.960   6.526 -0.3969 -0.6340 -0.3065
31397SOL    HW1 2969  11.661   4.999   6.443  0.8469  1.6357  0.2405
31397SOL    HW2 2970  11.781   4.936   6.512  0.0944  0.5544  0.5856
31398SOL     OW 2971   0.573   6.024  10.727  0.6630 -0.3825  0.2434
31398SOL    HW1 2972   0.631   5.999  10.656  0.7389 -1.8083  0.7861
31398SOL    HW2 2973   0.632   6.044  10.800  0.5233 -0.2963  0.3342
31399SOL     OW 2974  11.086   4.770   0.952 -0.2291  0.6242  0.4719
31399SOL    HW1 2975  11.043   4.793   1.035  1.5210  1.6837  1.1241
31399SOL    HW2 2976  11.104   4.676   0.961  0.8892  0.9234  1.7930
31400SOL     OW 2977   8.962   5.528   7.888 -0.4459 -0.4039 -0.1813
31400SOL    HW1 2978   9.009   5.598   7.932  0.8865 -1.1630 -0.3629
31400SOL    HW2 2979   8.910   5.573   7.821  0.3891  0.4127 -0.3023
31401SOL     OW 2980   5.101   6.104  12.529  0.0159 -0.1841 -0.1177
31401SOL    HW1 2981   5.196   6.104  12.519 -0.0603  0.3758 -0.8230
31401SOL    HW2 2982   5.087   6.096  12.624  0.7627  0.2541  0.0303
31402SOL     OW 2983  11.635   2.120   2.204  0.2688  0.0048  0.1290
31402SOL    HW1 2984  11.723   2.085   2.195  0.2420 -0.2736  0.8517
31402SOL    HW2 2985  11.646   2.201   2.254  0.0473 -0.4164  0.8784
31403SOL     OW 2986   7.933   8.499   2.545  0.6642 -0.4719 -0.6343
31403SOL    HW1 2987   7.870   8.571   2.547 -0.8082 -1.6624  1.9374
31403SOL    HW2 2988   8.016   8.540   2.521 -0.7097  1.4817 -2.3646
31404SOL     OW 2989   2.926  10.005   9.828 -0.0401  0.0382 -0.1880
31404SOL    HW1 2990   3.004   9.989   9.881  0.6625  2.0670 -0.5390
31404SOL    HW2 2991   2.955   9.990   9.738  0.4829  2.3768 -0.4768
31405SOL     OW 2992   2.958   5.610   8.897  0.3835  1.0779  0.2792
31405SOL    HW1 2993   2.908   5.685   8.863  0.6397  1.0927 -0.0601
31405SOL    HW2 2994   2.984   5.561   8.820 -1.0607 -0.2062  0.5558
31406SOL     OW 2995   2.646   5.028   8.690 -0.4494 -0.1077 -0.1079
31406SOL    HW1 2996   2.585   5.076   8.634  0.1828  0.0278 -0.6966
31406SOL    HW2 2997   2.642   5.073   8.775 -1.0555 -0.0166 -0.1824
31407SOL     OW 2998   6.589  12.035   6.210 -0.2325  0.2524  0.5409
31407SOL    HW1 2999   6.517  12.090   6.238  1.1974  2.3948  0.2188
31407SOL    HW2 3000   6.628  12.082   6.136  1.4013 -0.9258  0.5996
31408SOL     OW 3001   2.337   2.809   7.092  0.1615  0.0286  0.2242
31408SOL    HW1 3002   2.320   2.769   7.006  1.3479  0.1403 -0.0802
31408SOL    HW2 3003   2.255   2.854   7.114 -0.5464 -0.9646 -0.3099
31409SOL     OW 3004   7.994   2.000   3.065 -0.0671  0.3603 -0.4883
31409SOL    HW1 3005   7.943   1.939   3.118  1.4447  0.3331  1.0307
31409SOL    HW2 3006   7.943   2.081   3.066 -0.6931 -0.0314 -0.0648
31410SOL     OW 3007   6.031  11.773   4.474 -0.0420  0.2477  0.0382
31410SOL    HW1 3008   5.959  11.788   4.535  0.5590  0.9244  0.5907
31410SOL    HW2 3009   6.093  11.718   4.522 -0.4480 -0.8395 -0.6451
31411SOL     OW 3010   2.833   3.712   1.489 -0.2082 -0.2853 -0.4670
31411SOL    HW1 3011   2.837   3.799   1.450  2.2041  1.4879  3.2260
31411SOL    HW2 3012   2.918   3.672   1.470 -0.1701 -0.6098  0.3302
31412SOL     OW 3013   6.230   4.871  11.039 -0.5943  0.3649 -0.0207
31412SOL    HW1 3014   6.255   4.943  11.097 -1.5975  0.1386  0.7269
31412SOL    HW2 3015   6.271   4.794  11.078  0.2899  0.4866 -0.6909
31413SOL     OW 3016  10.588   5.312   2.420 -0.0674  0.0507  0.3492
31413SOL    HW1 3017  10.644   5.389   2.428  0.1092 -0.0568  0.1422
31413SOL    HW2 3018  10.522   5.336   2.356  0.1511 -0.0664  0.0775
31414SOL     OW 3019   8.482  12.289   2.490 -0.0687  0.3915  0.6487
31414SOL    HW1 3020   8.488  12.382   2.467 -0.1939  0.2682  0.1035
31414SOL    HW2 3021   8.413  12.254   2.434  0.5162 -0.2007  0.2849
31415SOL     OW 3022   5.049   3.875   3.179 -0.2137  0.0736  0.0639
31415SOL    HW1 3023   5.017   3.909   3.263 -0.0400 -0.3915  0.3195
31415SOL    HW2 3024   4.995   3.920   3.113 -0.2654  0.5332  0.4162
31416SOL     OW 3025   9.736   1.940   7.253  0.7072  0.1729 -0.1369
31416SOL    HW1 3026   9.818   1.926   7.204 -0.6304  1.4756 -2.9634
31416SOL    HW2 3027   9.671   1.889   7.205 -0.6779  1.4528  0.3386
31417SOL     OW 3028   5.833   2.208  12.578 -0.6360  0.2509 -0.4512
31417SOL    HW1 3029   5.760   2.271  12.579 -0.9747 -0.1208 -1.0322
31417SOL    HW2 3030   5.794   2.126  12.608 -0.5258 -0.0149 -1.0206
31418SOL     OW 3031   3.061   3.819  12.600  0.3223 -0.0748 -0.5127
31418SOL    HW1 3032   3.022   3.784  12.681 -0.2202 -2.9440 -1.8925
31418SOL    HW2 3033   2.994   3.804  12.533  1.5604  0.3608 -1.8940
31419SOL     OW 3034   1.610   5.700  10.330  0.3584 -0.2235  0.3255
31419SOL    HW1 3035   1.660   5.627  10.295  0.6362  0.3452 -0.4694
31419SOL    HW2 3036   1.529   5.702  10.279 -0.3378 -0.9054  1.3562
31420SOL     OW 3037   8.757  10.298  12.354 -0.1859  0.0522 -0.3949
31420SOL    HW1 3038   8.733  10.330  12.441  0.3126  0.3430 -0.3600
31420SOL    HW2 3039   8.777  10.377  12.304 -3.0707  0.1009 -1.6075
31421SOL     OW 3040   9.507   9.891   3.344 -0.3938 -0.2789  0.1187
31421SOL    HW1 3041   9.564   9.966   3.362  0.5455 -0.6283 -1.2536
31421SOL    HW2 3042   9.565   9.815   3.349 -1.3669 -0.9772  1.6693
31422SOL     OW 3043   9.233  12.065   1.684  0.4985 -0.3321 -0.2110
31422SOL    HW1 3044   9.324  12.070   1.713  0.6297 -1.1880 -0.4671
31422SOL    HW2 3045   9.221  11.974   1.658 -0.1468 -0.0050 -1.0918
31423SOL     OW 3046  10.816  11.091  10.815  0.0390 -0.2444 -0.0318
31423SOL    HW1 3047  10.740  11.094  10.758  0.1558 -1.3008 -0.2630
31423SOL    HW2 3048  10.862  11.174  10.797  1.6215 -1.6755 -3.6864
31424SOL     OW 3049   3.723   1.850  10.980  0.3950  0.4315  0.2055
31424SOL    HW1 3050   3.683   1.917  10.925  2.1787  1.1960 -0.2366
31424SOL    HW2 3051   3.702   1.876  11.069 -1.3082 -0.0238 -0.0289
31425SOL     OW 3052   8.666  11.478   1.969  0.1059  0.3770  0.6275
31425SOL    HW1 3053   8.606  11.410   1.998 -0.2506  0.9603  1.2729
31425SOL    HW2 3054   8.633  11.559   2.008  1.1656  0.7501  0.8011
31426SOL     OW 3055  11.432   3.441  11.649  0.4744 -0.0138 -0.1649
31426SOL    HW1 3056  11.352   3.466  11.695  0.7634  0.5689  0.0389
31426SOL    HW2 3057  11.476   3.525  11.631  1.9309 -0.4095  1.3386
31427SOL     OW 3058   3.384   4.595   6.031  0.4597  0.1608 -0.2125
31427SOL    HW1 3059   3.434   4.676   6.029  0.4369  0.1920  0.3569
31427SOL    HW2 3060   3.348   4.590   6.120  1.0036 -0.7981 -0.0235
31428SOL     OW 3061  12.540   3.324   8.200 -0.1253  0.8756 -0.5144
31428SOL    HW1 3062  12.573   3.318   8.110 -0.5550 -1.3278 -0.5981
31428SOL    HW2 3063  12.605   3.375   8.247  0.9914  0.5915 -1.7040
31429SOL     OW 3064   2.528  10.328   0.973  0.8600  0.1283  0.1030
31429SOL    HW1 3065   2.577  10.410   0.980  1.8417 -0.3311 -1.0354
31429SOL    HW2 3066   2.591  10.265   0.938 -0.0295 -0.9809  0.4220
31430SOL     OW 3067   8.858   1.204  11.155 -0.0708 -0.0048  0.1382
31430SOL    HW1 3068   8.822   1.223  11.242 -2.2622 -0.4384 -0.6186
31430SOL    HW2 3069   8.917   1.129  11.169  1.3369  1.2701  1.5547
31431SOL     OW 3070   5.127  11.154   0.625 -0.2102  0.4204  0.0417
31431SOL    HW1 3071   5.184  11.084   0.658 -0.5514  0.5006  0.8301
31431SOL    HW2 3072   5.044  11.140   0.670 -0.8675  0.2369 -1.1833
31432SOL     OW 3073   9.938  10.763  10.800 -0.1175  0.4220  0.1520
31432SOL    HW1 3074   9.902  10.698  10.860  2.0943 -0.7471  0.3384
31432SOL    HW2 3075   9.977  10.710  10.730 -2.0384  1.7224 -2.0375
31433SOL     OW 3076   0.428   6.008  11.517  0.5041  0.3068 -0.3894
31433SOL    HW1 3077   0.347   5.985  11.471  0.4622  0.7243 -0.5276
31433SOL    HW2 3078   0.498   5.988  11.454  0.5370 -0.3906 -0.1424
31434SOL     OW 3079   9.070   4.814   9.907 -0.2038 -0.7449  0.0777
31434SOL    HW1 3080   9.014   4.793   9.832  1.9031 -0.9003 -1.5270
31434SOL    HW2 3081   9.074   4.733   9.958 -0.6868 -0.9892 -0.2694
31435SOL     OW 3082   3.629   8.652   0.946  0.2429 -0.1562  0.2231
31435SOL    HW1 3083   3.641   8.701   0.865 -0.3996  1.7990  1.2374
31435SOL    HW2 3084   3.634   8.560   0.920 -0.8106  0.3926 -2.1667
31436SOL     OW 3085   7.545   0.758   1.023 -0.2512 -0.4174 -0.1494
31436SOL    HW1 3086   7.621   0.701   1.031  1.1375  0.8061 -3.1307
31436SOL    HW2 3087   7.578   0.846   1.040 -1.9685 -0.1783  2.5537
31437SOL     OW 3088   5.348   2.990  10.434  0.2799  0.4464  0.6326
31437SOL    HW1 3089   5.409   2.938  10.381  0.6716  1.1384  0.3957
31437SOL    HW2 3090   5.383   2.984  10.523  0.2539  0.2095  0.6289
31438SOL     OW 3091   3.228   0.026  10.513 -0.7154  0.3924  0.6778
31438SOL    HW1 3092   3.245   0.051  10.423 -2.8369 -1.9780 -0.4973
31438SOL    HW2 3093   3.275   0.091  10.565 -0.2534  2.4465 -2.0851
31439SOL     OW 3094  11.816   7.128   7.699 -0.1162  0.2490  0.0594
31439SOL    HW1 3095  11.898   7.095   7.736 -0.3016 -1.6687 -1.0774
31439SOL    HW2 3096  11.769   7.166   7.773  1.7677  1.3883  0.7293
31440SOL     OW 3097  11.239  10.951  10.567 -0.5304 -0.0793 -0.1423
31440SOL    HW1 3098  11.191  10.957  10.650 -0.7317  0.5327 -0.2973
31440SOL    HW2 3099  11.226  10.861  10.538  0.5753 -0.6747  1.1050
31441SOL     OW 3100  11.208   0.258   0.682  0.0102 -0.1465  0.7219
31441SOL    HW1 3101  11.303   0.263   0.689  0.0124  1.6908 -0.0760
31441SOL    HW2 3102  11.176   0.319   0.749 -0.6083 -0.5431  0.7951
31442SOL     OW 3103   1.689   8.008   3.226  0.3230 -0.1460  0.0656
31442SOL    HW1 3104   1.647   8.051   3.301  1.2735  0.4653  0.2673
31442SOL    HW2 3105   1.778   7.988   3.256 -0.0774 -2.2649 -0.0387
31443SOL     OW 3106   4.278  12.366  11.543 -0.0691 -0.2656 -0.0124
31443SOL    HW1 3107   4.305  12.311  11.617  1.5000  0.8066  0.2456
31443SOL    HW2 3108   4.205  12.418  11.577  1.7703  1.5151  1.4069
31444SOL     OW 3109   2.382   9.745   5.206  0.4065 -0.2162  0.4558
31444SOL    HW1 3110   2.394   9.800   5.129  0.9922 -0.1022  0.6266
31444SOL    HW2 3111   2.290   9.718   5.202  0.4158 -0.1499 -0.2344
31445SOL     OW 3112   7.042  10.289   9.211  0.7379 -0.6167  0.1840
31445SOL    HW1 3113   7.016  10.265   9.122 -1.4617  0.7191  0.4027
31445SOL    HW2 3114   6.973  10.252   9.266 -0.6671  2.6636  0.8475
31446SOL     OW 3115  10.111   4.195   7.734  0.5470 -0.0800  0.0807
31446SOL    HW1 3116  10.081   4.106   7.754  0.4420 -0.1107 -0.2109
31446SOL    HW2 3117  10.168   4.218   7.808  1.4173 -0.7912 -0.3496
31447SOL     OW 3118  10.807   2.619   1.927 -0.0641 -0.3572  0.3554
31447SOL    HW1 3119  10.892   2.575   1.924 -1.2134 -2.6490 -0.4172
31447SOL    HW2 3120  10.742   2.549   1.921 -2.0467  1.3233  0.7573
31448SOL     OW 3121   5.719  11.180  11.426  0.0061  0.4402  0.1726
31448SOL    HW1 3122   5.722  11.275  11.432 -0.7107  0.5493 -0.9873
31448SOL    HW2 3123   5.809  11.153  11.412 -0.0204  1.1195 -1.5217
31449SOL     OW 3124   2.337   1.960   6.152  0.3703  0.0979 -0.2788
31449SOL    HW1 3125   2.244   1.951   6.132  0.3215  0.2672 -0.1315
31449SOL    HW2 3126   2.339   1.998   6.240  0.5794 -0.2681 -0.1221
31450SOL     OW 3127   1.380   8.693  10.105  0.2740  0.4931 -0.1759
31450SOL    HW1 3128   1.340   8.711  10.020  0.5252  1.0593 -0.1782
31450SOL    HW2 3129   1.474   8.688  10.087  0.1872 -1.7486 -0.3366
31451SOL     OW 3130   2.599   7.563  10.738  0.0496  0.3590  0.1983
31451SOL    HW1 3131   2.606   7.659  10.740  1.4527  0.3024 -0.6495
31451SOL    HW2 3132   2.606   7.540  10.646 -1.3881 -0.5302  0.2726
31452SOL     OW 3133   7.278   5.686   5.358 -0.4426  0.0711 -0.7879
31452SOL    HW1 3134   7.340   5.685   5.431 -1.9871 -0.6962  0.5984
31452SOL    HW2 3135   7.330   5.660   5.282  1.0102 -0.1382  0.2307
31453SOL     OW 3136   7.526   3.340  10.091  0.2812  0.3546 -0.4859
31453SOL    HW1 3137   7.513   3.293  10.173  0.0010  0.3165 -0.5524
31453SOL    HW2 3138   7.455   3.404  10.088  0.2988  0.3653 -0.6925
31454SOL     OW 3139   1.381  11.020   4.102  0.2722 -0.5775  0.0959
31454SOL    HW1 3140   1.463  11.030   4.054 -0.0535  1.5483 -0.0892
31454SOL    HW2 3141   1.372  11.101   4.153 -0.5907 -1.7292  1.9043
31455SOL     OW 3142   8.302   6.502   3.796 -0.3186 -0.4689  0.0154
31455SOL    HW1 3143   8.268   6.418   3.827  0.4176 -1.3884 -1.5254
31455SOL    HW2 3144   8.354   6.479   3.719  1.8772  1.1136  0.9135
31456SOL     OW 3145   0.912  12.291   7.102 -0.7379 -0.0152  0.2440
31456SOL    HW1 3146   0.953  12.267   7.185 -0.4799 -0.2693  0.0395
31456SOL    HW2 3147   0.834  12.341   7.128  1.2144  3.0900  0.6373
31457SOL     OW 3148   5.799   4.741   4.083 -0.1897 -0.3541  0.8300
31457SOL    HW1 3149   5.762   4.653   4.083 -2.3043  0.4738  0.5043
31457SOL    HW2 3150   5.858   4.742   4.158 -0.7915 -1.7939  1.3549
31458SOL     OW 3151   7.663   2.874   7.304  0.5518 -0.0883 -0.0855
31458SOL    HW1 3152   7.595   2.879   7.237 -0.3389 -0.5633  0.7580
31458SOL    HW2 3153   7.737   2.921   7.266  0.2813 -0.8658 -1.6514
31459SOL     OW 3154   6.775   4.557   1.502 -0.2816  0.9690  0.2064
31459SOL    HW1 3155   6.694   4.508   1.491  0.8092 -0.9477  0.2080
31459SOL    HW2 3156   6.813   4.522   1.583  1.2232  0.7732 -0.5531
31460SOL     OW 3157  12.408   5.402  10.952 -0.5520 -0.2059 -0.2054
31460SOL    HW1 3158  12.394   5.448  10.870 -0.6197  4.2078  1.9958
31460SOL    HW2 3159  12.501   5.379  10.951  0.1135  2.2430 -0.5192
31461SOL     OW 3160   1.485   4.285   0.173 -0.1971 -0.0643 -0.1914
31461SOL    HW1 3161   1.533   4.315   0.250  2.0222  1.7978 -2.1360
31461SOL    HW2 3162   1.428   4.359   0.150  1.3648  0.6675 -1.9617
31462SOL     OW 3163   0.774   7.765  10.061  0.0413 -0.1923  0.1066
31462SOL    HW1 3164   0.788   7.679  10.020  1.2943  0.2139 -0.3636
31462SOL    HW2 3165   0.731   7.745  10.144  0.9717 -1.3467  0.3417
31463SOL     OW 3166  12.464   4.021   7.488 -0.0058 -0.2858 -0.2530
31463SOL    HW1 3167  12.413   3.942   7.470 -1.5882  0.5658  0.2705
31463SOL    HW2 3168  12.504   4.005   7.573  0.3592 -0.8535 -0.5323
31464SOL     OW 3169   5.957  11.928   7.753  0.4124  0.1622  0.3978
31464SOL    HW1 3170   5.867  11.895   7.748  0.5093 -0.1513  0.6871
31464SOL    HW2 3171   5.981  11.920   7.845  0.7008  0.3492  0.3417
31465SOL     OW 3172   5.680   6.571   4.472  0.0595  0.1699 -0.6758
31465SOL    HW1 3173   5.703   6.478   4.469 -2.2285 -0.4967  0.1898
31465SOL    HW2 3174   5.709   6.606   4.388  0.8779 -1.3530 -1.0501
31466SOL     OW 3175   3.895  11.549   3.824 -0.4071  0.7314 -0.0609
31466SOL    HW1 3176   3.877  11.460   3.856  0.3955  0.5684 -0.0158
31466SOL    HW2 3177   3.978  11.572   3.866 -0.1557  1.1528 -0.7737
31467SOL     OW 3178  11.849   6.581   4.529  0.0693  0.0788 -0.1968
31467SOL    HW1 3179  11.831   6.589   4.436 -0.4459 -0.1884 -0.1289
31467SOL    HW2 3180  11.772   6.619   4.571  0.8408  1.3226  0.1293
31468SOL     OW 3181   1.684  12.324   5.930  0.4306  0.2491 -0.2237
31468SOL    HW1 3182   1.734  12.309   6.010  1.0507 -0.1611 -0.6887
31468SOL    HW2 3183   1.723  12.267   5.865  0.6444  1.3854 -1.1300
31469SOL     OW 3184   7.722   3.588   5.009  0.3042  0.0809 -0.4414
31469SOL    HW1 3185   7.757   3.654   4.950  0.5185 -0.1708 -0.6004
31469SOL    HW2 3186   7.639   3.624   5.040  0.6932  0.6735 -0.0763
31470SOL     OW 3187  11.446   1.884   6.020 -0.3442  0.5763  0.2899
31470SOL    HW1 3188  11.443   1.965   6.071  0.1659  1.9669 -1.7779
31470SOL    HW2 3189  11.535   1.882   5.984 -0.0008 -1.4791  1.1325
31471SOL     OW 3190  12.259   7.473  11.435  0.6005 -0.4132  0.1132
31471SOL    HW1 3191  12.318   7.457  11.509  0.9107  0.8143  0.1542
31471SOL    HW2 3192  12.217   7.389  11.419  1.4374 -0.9984  0.9004
31472SOL     OW 3193   7.491   4.132  11.646 -0.0142 -0.1114 -0.2795
31472SOL    HW1 3194   7.544   4.198  11.601 -1.4018  0.9286 -0.4506
31472SOL    HW2 3195   7.498   4.054  11.592  2.1155 -0.3369  0.2193
31473SOL     OW 3196   3.597   4.243  12.042 -0.4905  0.1271 -0.6864
31473SOL    HW1 3197   3.664   4.181  12.071 -0.0458  0.2087 -1.5312
31473SOL    HW2 3198   3.534   4.245  12.115  0.8538  0.7102  0.5166
31474SOL     OW 3199   4.481   0.453   4.667  0.4178 -0.3859 -0.7610
31474SOL    HW1 3200   4.395   0.495   4.660 -0.2028 -0.1599  4.3943
31474SOL    HW2 3201   4.461   0.360   4.678  0.8197 -0.3552  0.2756
31475SOL     OW 3202   4.802   4.145   2.203  0.8448  0.5786 -0.5659
31475SOL    HW1 3203   4.781   4.099   2.121 -0.2224 -0.0859  0.0579
31475SOL    HW2 3204   4.838   4.077   2.260  2.4643  1.2245 -0.7789
31476SOL     OW 3205   3.830   6.909  11.462  0.0605 -0.3786 -0.0939
31476SOL    HW1 3206   3.867   6.995  11.479 -0.7345 -0.1480  0.4799
31476SOL    HW2 3207   3.903   6.860  11.422  0.9311  0.1120  0.8438
31477SOL     OW 3208   5.850   7.059   9.997 -0.4939 -0.2372 -0.1450
31477SOL    HW1 3209   5.848   6.989   9.933  1.1534  0.9982 -1.6397
31477SOL    HW2 3210   5.765   7.054  10.041 -0.5218 -2.9792 -0.3247
31478SOL     OW 3211   9.435   0.379  10.154 -0.0326 -0.3758  0.4453
31478SOL    HW1 3212   9.390   0.317  10.096 -1.3362  0.9636 -0.0336
31478SOL    HW2 3213   9.368   0.442  10.179  1.5579  1.7351 -0.2961
31479SOL     OW 3214  12.178   1.680   5.712  0.0909  0.6322  0.3100
31479SOL    HW1 3215  12.102   1.662   5.766  0.5235 -2.0068  0.1682
31479SOL    HW2 3216  12.245   1.712   5.773  0.0962 -0.8667  1.1307
31480SOL     OW 3217   3.464  11.538   5.341 -0.0710 -0.1279 -0.2944
31480SOL    HW1 3218   3.494  11.539   5.250 -2.2886  0.8756 -1.0907
31480SOL    HW2 3219   3.526  11.595   5.387  2.0933 -1.9876 -0.7463
31481SOL     OW 3220   5.058   9.014   8.468 -0.1868 -0.4991 -0.2124
31481SOL    HW1 3221   5.071   9.101   8.431 -1.2732 -0.8639 -1.5536
31481SOL    HW2 3222   5.077   8.954   8.396  0.9427 -1.4301  0.7944
31482SOL     OW 3223  11.025  10.964   2.891  0.9173  0.5604  0.3473
31482SOL    HW1 3224  10.958  11.021   2.928  2.3504  2.2326  0.5124
31482SOL    HW2 3225  11.064  10.920   2.967  0.3487 -0.0479  0.2946
31483SOL     OW 3226   9.299   5.827   3.707  0.3279 -0.0609  0.0590
31483SOL    HW1 3227   9.280   5.888   3.635 -0.3432 -0.3735 -0.0364
31483SOL    HW2 3228   9.247   5.858   3.780  0.8813  0.1557  0.3704
31484SOL     OW 3229   2.286   3.544   7.840 -0.5187 -0.1431 -0.0994
31484SOL    HW1 3230   2.364   3.493   7.861 -1.7699 -1.7382  0.9690
31484SOL    HW2 3231   2.290   3.620   7.896 -0.9035 -1.4618  1.8104
31485SOL     OW 3232   3.258   6.560  10.478  0.9932  0.2746 -0.1472
31485SOL    HW1 3233   3.307   6.549  10.559  0.0458  1.6100  0.6546
31485SOL    HW2 3234   3.182   6.502  10.487  1.3997 -0.3261 -0.5308
31486SOL     OW 3235   1.276   3.312   7.488 -0.1187 -0.1589  0.5783
31486SOL    HW1 3236   1.295   3.237   7.431 -0.9253 -1.3368  1.8061
31486SOL    HW2 3237   1.331   3.298   7.565  3.1075  2.8645 -0.8787
31487SOL     OW 3238   9.747   0.933   3.576  0.1516 -0.1280 -0.0367
31487SOL    HW1 3239   9.842   0.932   3.582  0.2360  1.0767 -0.7050
31487SOL    HW2 3240   9.719   0.850   3.613  1.5178 -0.8860 -0.6405
31488SOL     OW 3241   0.847   7.483   2.548 -0.0356 -0.2814  0.0775
31488SOL    HW1 3242   0.782   7.475   2.618 -0.0099 -1.2889  0.0099
31488SOL    HW2 3243   0.931   7.487   2.594 -0.1885  2.5954  0.2374
31489SOL     OW 3244  11.588   9.326   8.517 -0.0593 -0.2565 -0.3216
31489SOL    HW1 3245  11.658   9.329   8.581  0.0423 -2.1420 -0.2820
31489SOL    HW2 3246  11.620   9.266   8.449 -1.5515 -1.0958 -0.3351
31490SOL     OW 3247   8.780   8.603   0.960  0.3056  0.0557 -0.6135
31490SOL    HW1 3248   8.734   8.687   0.967  1.1724  0.4580  0.6311
31490SOL    HW2 3249   8.732   8.545   1.019 -0.3458 -0.3781 -1.5397
31491SOL     OW 3250  12.265   6.700   6.271 -0.0957 -0.1546  0.4802
31491SOL    HW1 3251  12.357   6.674   6.267 -0.7516 -2.5526 -2.0290
31491SOL    HW2 3252  12.235   6.670   6.357  1.3840  0.5467  1.2748
31492SOL     OW 3253   1.819   0.433   2.003 -0.4484  0.2935  0.3635
31492SOL    HW1 3254   1.747   0.495   2.016  0.8377  2.0042 -0.2639
31492SOL    HW2 3255   1.869   0.437   2.085 -0.4541 -0.0692  0.3863
31493SOL     OW 3256  11.634   3.349   8.993 -0.2610  0.2318  0.1193
31493SOL    HW1 3257  11.666   3.362   8.904 -0.7910 -1.3890 -0.3448
31493SOL    HW2 3258  11.712   3.350   9.048 -0.0708  3.0871 -0.0722
31494SOL     OW 3259   7.598   7.195   5.251 -0.2608  0.4483 -0.4420
31494SOL    HW1 3260   7.608   7.265   5.186 -0.9129  1.4868  0.5400
31494SOL    HW2 3261   7.604   7.114   5.200 -1.5048  1.2317 -1.9193
31495SOL     OW 3262   2.137   0.888   6.872 -0.5238  0.1094  0.0964
31495SOL    HW1 3263   2.120   0.794   6.877 -0.7952  0.1827  0.6483
31495SOL    HW2 3264   2.112   0.913   6.783 -1.8663 -0.0720  0.4043
31496SOL     OW 3265  11.655   0.998   8.177  0.2606  0.0525 -0.0178
31496SOL    HW1 3266  11.634   1.066   8.241  1.4014  0.1439  0.2937
31496SOL    HW2 3267  11.577   0.989   8.124 -0.2787  0.8516  0.6205
31497SOL     OW 3268   9.142   5.566  10.533 -0.1277  0.4003  0.3869
31497SOL    HW1 3269   9.135   5.471  10.540 -0.9200  0.4850  0.9812
31497SOL    HW2 3270   9.222   5.588  10.581 -0.3107  0.0865  0.8432
31498SOL     OW 3271   9.872   2.954   8.007  0.3029  0.2930  0.0803
31498SOL    HW1 3272   9.954   2.922   8.045 -1.0718 -1.0084  2.1599
31498SOL    HW2 3273   9.834   3.010   8.074 -0.7529  0.4924 -0.6503
31499SOL     OW 3274   6.295   5.557   4.054  0.1742  0.3679  0.1174
31499SOL    HW1 3275   6.322   5.466   4.050 -1.4464 -0.1931  1.1890
31499SOL    HW2 3276   6.221   5.563   3.993  1.4814  1.4890 -1.4980
31500SOL     OW 3277   2.239   7.107   8.377 -0.3113 -0.6162  0.2354
31500SOL    HW1 3278   2.307   7.143   8.319 -1.5241  0.8191 -0.3759
31500SOL    HW2 3279   2.246   7.012   8.366  1.3672 -0.4970 -0.0532
31501SOL     OW 3280   3.956   6.381   2.091 -0.9817  0.1707 -0.6179
31501SOL    HW1 3281   3.946   6.328   2.170  0.7522  0.2043 -0.3406
31501SOL    HW2 3282   3.870   6.378   2.049 -1.3903 -1.4607  0.2548
31502SOL     OW 3283   8.086   3.713   8.697 -0.1696  0.0746  0.2093
31502SOL    HW1 3284   8.118   3.733   8.785 -1.4018  1.8387  0.3121
31502SOL    HW2 3285   8.014   3.775   8.683  0.0796 -0.0641 -2.0911
31503SOL     OW 3286   7.389   3.665   4.256  0.3241 -0.8978  0.3229
31503SOL    HW1 3287   7.358   3.575   4.246 -0.1682 -0.6783 -0.1562
31503SOL    HW2 3288   7.335   3.716   4.196  1.4421 -0.4747 -0.3464
31504SOL     OW 3289  11.492   5.833   6.176  0.0218  0.8088  0.7715
31504SOL    HW1 3290  11.559   5.894   6.144  0.9210 -0.8251 -0.6113
31504SOL    HW2 3291  11.534   5.787   6.248 -0.2032  0.9286  0.9804
31505SOL     OW 3292   3.903   8.160   7.636  0.2622 -0.0329  0.2180
31505SOL    HW1 3293   3.814   8.142   7.668  0.0400  0.0836 -0.3273
31505SOL    HW2 3294   3.960   8.123   7.703 -0.1975 -0.9528  0.1118
31506SOL     OW 3295   6.577   9.565   8.976  0.8292 -0.5160  0.0765
31506SOL    HW1 3296   6.497   9.604   8.941  0.8924 -0.3341  0.1333
31506SOL    HW2 3297   6.555   9.473   8.989  1.2572 -0.9367 -1.8591
31507SOL     OW 3298  11.842   6.025   4.613 -0.1000  0.2577  0.0814
31507SOL    HW1 3299  11.754   6.025   4.577 -0.4807 -0.3334  0.9727
31507SOL    HW2 3300  11.842   6.095   4.678 -0.2876 -0.4795  0.9047
31508SOL     OW 3301   9.808   5.582   5.515 -0.1510  0.7040  0.0495
31508SOL    HW1 3302   9.790   5.523   5.588  1.7791 -0.4292 -0.2991
31508SOL    HW2 3303   9.895   5.618   5.534  1.3061 -1.1263 -2.5127
31509SOL     OW 3304  10.218   6.344  11.230 -0.4332  0.3020  0.2290
31509SOL    HW1 3305  10.217   6.361  11.324 -1.0984  1.9915 -0.0461
31509SOL    HW2 3306  10.304   6.372  11.201  0.5216 -2.0412  0.5839
31510SOL     OW 3307   0.522   7.234   5.506  0.4903  0.0579  0.1681
31510SOL    HW1 3308   0.592   7.218   5.570 -0.2339 -0.1351  0.9248
31510SOL    HW2 3309   0.514   7.152   5.458  0.1680 -0.2155  0.6888
31511SOL     OW 3310  11.809   9.284   3.179  0.0736  0.6572 -0.3349
31511SOL    HW1 3311  11.814   9.223   3.105  0.3623 -0.2430  0.4028
31511SOL    HW2 3312  11.882   9.259   3.236  1.2868  2.8405 -0.8314
31512SOL     OW 3313   4.246   7.033   3.218 -0.4562  0.2513  0.3476
31512SOL    HW1 3314   4.159   6.995   3.208 -0.8931  1.3050  0.0153
31512SOL    HW2 3315   4.253   7.095   3.146  1.3693 -1.2431 -0.8848
31513SOL     OW 3316   3.641   9.155   2.907  0.0491 -0.5396 -0.0013
31513SOL    HW1 3317   3.675   9.245   2.908  0.1729 -0.3405 -4.2342
31513SOL    HW2 3318   3.563   9.159   2.962  1.1493  1.5822  1.5791
31514SOL     OW 3319   8.838   8.834   6.510 -0.4390 -0.3817 -0.2585
31514SOL    HW1 3320   8.797   8.919   6.526  0.1991  0.0057 -0.6565
31514SOL    HW2 3321   8.915   8.832   6.566 -1.1592 -1.2479  0.7359
31515SOL     OW 3322   8.988   2.253   7.888 -0.1819  0.4580  0.2143
31515SOL    HW1 3323   9.064   2.309   7.869  2.2079 -2.3956  0.5152
31515SOL    HW2 3324   8.976   2.260   7.983  2.0709 -1.5836  0.7653
31516SOL     OW 3325   3.737  10.571   1.824 -0.1090  0.7584  0.3214
31516SOL    HW1 3326   3.743  10.478   1.802 -2.3460  0.2926  1.4148
31516SOL    HW2 3327   3.694  10.610   1.748  0.1495  0.7638  0.1772
31517SOL     OW 3328   0.691   0.959   7.519 -0.3593 -0.5270  0.3893
31517SOL    HW1 3329   0.711   1.018   7.592 -0.3694 -0.4978  0.3688
31517SOL    HW2 3330   0.646   1.015   7.455 -1.2491 -0.7737  0.7855
31518SOL     OW 3331   0.684   6.301   8.058  0.1729  0.0187  0.5673
31518SOL    HW1 3332   0.622   6.264   8.121 -1.2499  0.6452 -0.4132
31518SOL    HW2 3333   0.707   6.227   8.001 -1.4342  0.2306 -0.4182
31519SOL     OW 3334   2.220   1.714   0.326 -0.2310 -0.5263 -0.0715
31519SOL    HW1 3335   2.274   1.658   0.381  0.3423  1.0419  1.0406
31519SOL    HW2 3336   2.282   1.759   0.269 -0.5577 -0.1948 -0.1689
31520SOL     OW 3337   3.298   0.213   4.305  0.0218  0.3113 -0.1712
31520SOL    HW1 3338   3.383   0.197   4.346  0.0215 -1.4321 -0.7721
31520SOL    HW2 3339   3.290   0.145   4.239 -1.3222  1.1981 -0.9663
31521SOL     OW 3340   8.089  12.004  10.426 -0.5390 -0.8527  0.9661
31521SOL    HW1 3341   8.030  12.056  10.482 -2.4293 -1.5087 -0.2936
31521SOL    HW2 3342   8.060  12.023  10.337  3.4951  1.5098 -0.0905
31522SOL     OW 3343   3.195   5.860   1.045  0.2050 -0.1689  0.1658
31522SOL    HW1 3344   3.140   5.849   0.968 -1.1888  1.6216  0.8195
31522SOL    HW2 3345   3.251   5.782   1.046 -1.8845 -1.8017 -0.8935
31523SOL     OW 3346   6.179   6.391   2.077 -0.0637  0.7593  0.4850
31523SOL    HW1 3347   6.153   6.419   1.989 -0.7222  1.7357  0.9690
31523SOL    HW2 3348   6.099   6.352   2.114  0.3355 -0.0605  0.4868
31524SOL     OW 3349   4.399   4.207   0.773 -0.0690 -0.0092 -0.1620
31524SOL    HW1 3350   4.352   4.124   0.767  1.9215 -1.4914  2.6260
31524SOL    HW2 3351   4.348   4.261   0.832  0.2571 -0.5153  0.5882
31525SOL     OW 3352   6.461   3.488  11.173  0.7002  0.5214  0.5735
31525SOL    HW1 3353   6.515   3.531  11.238  0.1756  0.6920  0.9045
31525SOL    HW2 3354   6.507   3.406  11.153 -0.4524 -0.9032  3.2072
31526SOL     OW 3355   2.017  12.282  12.571 -0.1417  0.2266 -0.1066
31526SOL    HW1 3356   2.008  12.309  12.480 -0.4583  1.1371  0.1907
31526SOL    HW2 3357   1.940  12.317  12.615 -0.6597 -1.3006  0.2819
31527SOL     OW 3358   3.788   9.801   4.427 -0.6891  0.2011  0.5675
31527SOL    HW1 3359   3.810   9.865   4.359  0.5402 -0.6014  0.1620
31527SOL    HW2 3360   3.694   9.813   4.443 -1.1511  0.0435 -1.6868
31528SOL     OW 3361   6.355  10.867   3.242 -0.1402  0.2385  0.1434
31528SOL    HW1 3362   6.436  10.908   3.215 -0.2416 -0.0854 -0.6825
31528SOL    HW2 3363   6.359  10.779   3.204 -0.8417  0.2007  0.1398
31529SOL     OW 3364   9.284  10.269   3.686  0.0034 -0.3498 -0.1853
31529SOL    HW1 3365   9.364  10.303   3.646  0.3906  0.2139  0.9952
31529SOL    HW2 3366   9.295  10.174   3.686  1.9088 -0.2502  2.2177
31530SOL     OW 3367   9.230   4.419   5.990 -0.0831 -0.6533 -0.1860
31530SOL    HW1 3368   9.261   4.418   6.081  0.5986 -0.0754 -0.4139
31530SOL    HW2 3369   9.290   4.476   5.944 -2.2468  1.6588 -0.3699
31531SOL     OW 3370   4.022  10.886  10.029 -0.0276  0.4913 -0.2687
31531SOL    HW1 3371   4.034  10.953   9.961  0.0003  0.4354 -0.3192
31531SOL    HW2 3372   4.097  10.896  10.087 -0.6192  1.2765  0.3801
31532SOL     OW 3373  10.203   6.876   8.853  0.1587  0.0586  0.4288
31532SOL    HW1 3374  10.256   6.953   8.870 -0.2140  0.5794 -0.7086
31532SOL    HW2 3375  10.262   6.815   8.809  0.0283  0.3297 -0.1259
31533SOL     OW 3376   4.650   8.518   2.235 -0.0739 -0.6196 -0.2187
31533SOL    HW1 3377   4.703   8.450   2.193  1.5598  0.7185 -0.4325
31533SOL    HW2 3378   4.560   8.489   2.222  0.3669 -0.9676 -3.5661
31534SOL     OW 3379   2.554   0.864   7.744  1.1383 -0.1238 -0.0841
31534SOL    HW1 3380   2.621   0.862   7.675 -0.6555  0.9226 -1.9696
31534SOL    HW2 3381   2.528   0.956   7.749 -0.3718 -0.5480  0.3633
31535SOL     OW 3382   0.709   9.310   4.713  0.1796  0.7656 -0.0919
31535SOL    HW1 3383   0.656   9.390   4.718  2.0856  2.4041 -3.0768
31535SOL    HW2 3384   0.703   9.283   4.621  2.9365 -0.0588 -0.1167
31536SOL     OW 3385   6.002   2.242   3.844  0.5467  0.0380  0.0850
31536SOL    HW1 3386   5.942   2.309   3.877 -0.9480 -0.9752 -0.4604
31536SOL    HW2 3387   6.022   2.269   3.754  1.8038  0.9457  0.6194
31537SOL     OW 3388   5.344   6.581   6.467  0.2177  0.3360  0.2224
31537SOL    HW1 3389   5.335   6.674   6.490 -0.7970  0.6320 -1.2368
31537SOL    HW2 3390   5.254   6.549   6.460  0.5196 -0.2394 -1.2251
31538SOL     OW 3391   6.908   6.640  12.088  0.1452  0.5613 -0.4412
31538SOL    HW1 3392   6.921   6.557  12.134 -0.4797 -0.8321 -2.5973
31538SOL    HW2 3393   6.992   6.684  12.095  0.6296 -0.4400  0.4189
31539SOL     OW 3394   2.617   2.308  11.207  0.4880 -0.3533 -0.3014
31539SOL    HW1 3395   2.687   2.372  11.221 -1.0833  0.8517  3.1254
31539SOL    HW2 3396   2.574   2.300  11.292 -2.0931 -2.8302 -1.6570
31540SOL     OW 3397   0.842  10.466   6.912  0.5038 -0.0973 -0.5503
31540SOL    HW1 3398   0.882  10.462   6.999  1.4747  2.1092 -0.8091
31540SOL    HW2 3399   0.872  10.387   6.867  1.8447 -0.1575  0.3982
31541SOL     OW 3400   0.784  10.317   6.441  0.0807  0.5065 -0.1968
31541SOL    HW1 3401   0.754  10.369   6.367  0.0667 -0.1002 -0.6284
31541SOL    HW2 3402   0.715  10.326   6.507 -0.8066 -0.4171 -0.9620
31542SOL     OW 3403   6.154   4.414  11.822  0.2980  0.7368  0.3616
31542SOL    HW1 3404   6.245   4.442  11.830  1.2101 -2.0355  0.5424
31542SOL    HW2 3405   6.148   4.334  11.874 -1.8443 -0.0293 -0.9049
31543SOL     OW 3406   0.848   9.171   2.009 -0.2538  0.1926  0.0603
31543SOL    HW1 3407   0.872   9.245   2.065 -1.7127 -1.4681  3.0747
31543SOL    HW2 3408   0.898   9.097   2.043 -1.1597 -0.8889 -0.8564
31544SOL     OW 3409   1.666   7.435  10.906  0.2151 -0.4782  0.5448
31544SOL    HW1 3410   1.574   7.439  10.880 -0.2584  0.1353  2.1728
31544SOL    HW2 3411   1.681   7.343  10.926 -0.6520 -0.3130  2.1557
31545SOL     OW 3412   6.437   9.534   5.750 -0.0552 -0.0652 -0.2776
31545SOL    HW1 3413   6.442   9.523   5.655  1.0080  2.9346 -0.6870
31545SOL    HW2 3414   6.343   9.529   5.769 -0.1359 -3.9918 -0.8489
31546SOL     OW 3415  12.233   3.137   4.172 -0.3898 -0.3610  0.0002
31546SOL    HW1 3416  12.302   3.200   4.190 -1.6218  1.0254  0.0244
31546SOL    HW2 3417  12.232   3.080   4.249 -0.3515  0.6179  0.7363
31547SOL     OW 3418   4.729   5.702  11.125 -0.2179 -0.5681 -0.0361
31547SOL    HW1 3419   4.747   5.638  11.194 -0.8065  0.2893  0.9506
31547SOL    HW2 3420   4.808   5.756  11.121 -0.7077  0.2915  1.0361
31548SOL     OW 3421   4.586   5.409   7.243  0.1662 -0.1605 -0.9690
31548SOL    HW1 3422   4.566   5.441   7.155  1.0341  0.1388 -1.0710
31548SOL    HW2 3423   4.664   5.354   7.231  2.1904  2.3001 -0.0003
31549SOL     OW 3424   3.968  11.760   0.806  0.1703  0.9084  0.3238
31549SOL    HW1 3425   3.881  11.801   0.802  0.0558  0.9024  2.2285
31549SOL    HW2 3426   3.951  11.668   0.823  0.5377  0.7694 -0.0479
31550SOL     OW 3427  10.987   3.741   9.556  0.2320  0.7206  0.1601
31550SOL    HW1 3428  11.056   3.700   9.609  1.2371  0.0797 -1.5679
31550SOL    HW2 3429  11.021   3.829   9.537  1.0469  0.1116 -1.4178
31551SOL     OW 3430   3.972  12.066  12.536 -0.3323  0.9857 -0.3207
31551SOL    HW1 3431   4.041  11.999  12.533 -0.0927  1.2586 -1.2063
31551SOL    HW2 3432   3.944  12.075  12.445  0.3342  2.8053 -0.3781
31552SOL     OW 3433  11.367   4.216   8.681  0.6154  0.3936  1.0564
31552SOL    HW1 3434  11.276   4.223   8.653  1.4653 -0.2906 -2.3718
31552SOL    HW2 3435  11.405   4.302   8.661  0.8625  0.5447  2.0940
31553SOL     OW 3436   9.423  10.474   6.572 -0.0870  0.2036 -0.1680
31553SOL    HW1 3437   9.364  10.548   6.583 -0.4268 -0.0446 -0.2828
31553SOL    HW2 3438   9.427  10.460   6.477  0.1440  0.2111 -0.1596
31554SOL     OW 3439   7.454  11.839  11.036 -0.1882 -0.2819  0.3892
31554SOL    HW1 3440   7.539  11.857  11.077 -0.6502  0.8099  0.9058
31554SOL    HW2 3441   7.460  11.883  10.951 -0.5473  0.5657  0.7906
31555SOL     OW 3442   0.585  10.888   9.924  0.4711 -0.0095 -0.1719
31555SOL    HW1 3443   0.595  10.962   9.865 -1.6493 -0.1701 -0.8140
31555SOL    HW2 3444   0.608  10.812   9.870  1.4441  0.0666  0.1216
31556SOL     OW 3445   5.338  12.446  10.927  0.3726 -0.0513 -0.0926
31556SOL    HW1 3446   5.361  12.505  10.999 -1.4385  0.5695  0.0199
31556SOL    HW2 3447   5.282  12.498  10.870 -1.4502 -1.6775  0.1117
31557SOL     OW 3448   4.589   0.079   2.531  0.2057 -0.1939  0.2906
31557SOL    HW1 3449   4.562   0.166   2.564 -0.1206 -0.5762  1.0673
31557SOL    HW2 3450   4.513   0.047   2.484 -0.0404 -0.4753  0.8672
31558SOL     OW 3451   4.528   9.551   2.049  0.3201  0.4040 -0.3398
31558SOL    HW1 3452   4.595   9.595   2.102  0.8496 -0.3237 -0.3915
31558SOL    HW2 3453   4.450   9.552   2.104  0.7776 -0.0628  0.3363
31559SOL     OW 3454   1.082  12.429   5.632 -0.8410  0.1538 -0.5192
31559SOL    HW1 3455   1.041  12.506   5.593 -1.0637 -0.9231 -2.5900
31559SOL    HW2 3456   1.093  12.369   5.558  2.1368 -0.6109  0.4121
31560SOL     OW 3457  12.051   5.951   2.979 -0.1952 -0.0490  0.3582
31560SOL    HW1 3458  12.092   5.865   2.991 -0.5557  0.0945  3.4472
31560SOL    HW2 3459  12.003   5.967   3.060 -1.0917  2.6030 -0.5626
31561SOL     OW 3460  11.690   7.251   4.237 -0.0414 -0.4694 -0.2621
31561SOL    HW1 3461  11.722   7.329   4.281  0.5466 -0.3848 -0.8304
31561SOL    HW2 3462  11.669   7.280   4.148  1.2265 -1.1795 -0.8165
31562SOL     OW 3463   2.659   4.469  11.454  0.2431  0.3934 -0.5249
31562SOL    HW1 3464   2.704   4.543  11.414 -0.5494  0.7227 -0.8131
31562SOL    HW2 3465   2.570   4.472  11.419  0.3301 -0.9920 -0.9597
31563SOL     OW 3466   9.135   0.775   2.717  0.2688  0.1738 -0.0234
31563SOL    HW1 3467   9.084   0.758   2.638 -0.5499 -3.0833  1.0403
31563SOL    HW2 3468   9.082   0.837   2.767 -1.5866 -1.3531  0.0100
31564SOL     OW 3469   6.746   3.833   5.069  0.0394 -0.2531  0.0156
31564SOL    HW1 3470   6.709   3.919   5.048  1.4138  0.3843  0.0937
31564SOL    HW2 3471   6.840   3.850   5.082  0.3003 -1.7370  0.2087
31565SOL     OW 3472   3.322   3.674  10.948 -0.4977  0.3389  0.3946
31565SOL    HW1 3473   3.345   3.596  10.998 -0.5642 -0.2368 -0.4601
31565SOL    HW2 3474   3.226   3.674  10.946 -0.4922 -0.7462 -1.4091
31566SOL     OW 3475  12.522   2.911   7.460  0.0314  0.1289  0.0312
31566SOL    HW1 3476  12.605   2.931   7.417  0.6878 -1.3690  0.5533
31566SOL    HW2 3477  12.543   2.906   7.553 -0.6169 -0.4003  0.1584
31567SOL     OW 3478   4.443   7.847   2.547 -0.3880  0.2553 -0.1020
31567SOL    HW1 3479   4.398   7.829   2.630  0.7953  0.6035  0.6412
31567SOL    HW2 3480   4.496   7.768   2.531 -0.3521  0.3276 -0.3510
31568SOL     OW 3481   5.702   1.692   1.037 -0.0856 -0.1720 -0.3974
31568SOL    HW1 3482   5.738   1.603   1.029  1.3728 -0.1389  3.7234
31568SOL    HW2 3483   5.629   1.683   1.098  0.3105  1.5020  0.3554
31569SOL     OW 3484   2.867   5.561   4.809 -0.3505 -0.4892  0.3339
31569SOL    HW1 3485   2.899   5.543   4.721  0.2135  2.5572 -0.1939
31569SOL    HW2 3486   2.773   5.578   4.797  0.0495  1.6723 -0.0412
31570SOL     OW 3487   9.346   1.820   5.854  1.0738 -0.0476  0.1290
31570SOL    HW1 3488   9.424   1.845   5.804  0.7376 -0.4209 -0.5999
31570SOL    HW2 3489   9.336   1.890   5.919  1.3419  0.6152 -0.5253
31571SOL     OW 3490   8.698   6.581   2.990  0.2555  0.0303  0.5572
31571SOL    HW1 3491   8.704   6.652   3.055 -0.8262  1.4265 -0.8046
31571SOL    HW2 3492   8.741   6.616   2.912 -0.6819 -0.6329 -0.2802
31572SOL     OW 3493   3.077   8.585   0.866  0.2812 -0.3992 -0.0510
31572SOL    HW1 3494   2.983   8.599   0.882  0.1075 -0.4547 -0.9930
31572SOL    HW2 3495   3.093   8.497   0.900  0.0714 -0.2668  0.4090
31573SOL     OW 3496   6.583   8.511  10.985  0.0100  0.3099  0.5709
31573SOL    HW1 3497   6.647   8.582  10.978 -0.7150  0.9084 -0.4800
31573SOL    HW2 3498   6.532   8.518  10.904  0.0188 -1.5272  0.3599
31574SOL     OW 3499   3.059   9.772  11.707 -0.3285 -0.1001  0.1764
31574SOL    HW1 3500   2.977   9.811  11.736  0.9051  2.2877  0.7314
31574SOL    HW2 3501   3.117   9.779  11.783  0.1845 -2.5078  0.0701
31575SOL     OW 3502   8.387   2.610   4.113 -0.1458 -0.2286 -0.4592
31575SOL    HW1 3503   8.323   2.591   4.181  1.1565 -1.2759  0.5146
31575SOL    HW2 3504   8.354   2.566   4.035 -1.1790  0.2104 -0.2838
31576SOL     OW 3505   8.979   2.963   9.838  0.1412  0.2661  0.4857
31576SOL    HW1 3506   8.912   2.968   9.769 -0.7972  1.8323  1.4432
31576SOL    HW2 3507   9.036   2.891   9.811 -0.8917  0.0529 -1.2922
31577SOL     OW 3508   9.665  10.365   4.245  0.1492  0.1505  0.3603
31577SOL    HW1 3509   9.581  10.342   4.205  0.1316 -0.1228  0.5497
31577SOL    HW2 3510   9.667  10.461   4.245  0.2838  0.1539 -0.5784
31578SOL     OW 3511   3.263   7.234   7.444 -0.2148 -0.0431 -0.0641
31578SOL    HW1 3512   3.312   7.301   7.492  0.5671  0.0494 -0.9482
31578SOL    HW2 3513   3.268   7.262   7.352 -0.1265 -1.1534 -0.4148
31579SOL     OW 3514   0.734   2.748   0.028  0.3371  0.1849  0.4098
31579SOL    HW1 3515   0.652   2.710   0.061  0.3884  0.7837  1.2607
31579SOL    HW2 3516   0.738   2.835   0.068  0.0668  1.2424 -1.7384
31580SOL     OW 3517   1.089  11.809  11.416  0.5513 -0.5093  0.3134
31580SOL    HW1 3518   1.174  11.849  11.397 -0.2699  0.7022 -1.0045
31580SOL    HW2 3519   1.046  11.802  11.331  0.2276 -3.3374  0.6351
31581SOL     OW 3520   3.188   1.323  11.051  0.3212 -0.3496  0.2794
31581SOL    HW1 3521   3.180   1.277  11.134  1.1642 -2.0606 -0.5456
31581SOL    HW2 3522   3.272   1.368  11.056  0.2600 -0.2514  0.4327
31582SOL     OW 3523  12.416   4.841   5.401  0.0637 -0.4208 -0.1891
31582SOL    HW1 3524  12.466   4.839   5.483  1.4471  0.9242 -0.9438
31582SOL    HW2 3525  12.430   4.754   5.363 -0.4934 -1.0178  0.9161
31583SOL     OW 3526   8.735   4.304  11.759  0.3538 -0.1986  0.1536
31583SOL    HW1 3527   8.698   4.216  11.768  1.9011 -0.8098  1.0549
31583SOL    HW2 3528   8.829   4.289  11.750  0.8884  1.4015  2.1340
31584SOL     OW 3529   2.120   7.797   5.785  0.2366 -0.0056  0.4593
31584SOL    HW1 3530   2.083   7.714   5.815  2.0976 -0.8617  0.5295
31584SOL    HW2 3531   2.100   7.800   5.691 -1.1522  0.2292  0.7408
31585SOL     OW 3532  12.037   8.522   1.664  0.1679 -0.0924  0.6754
31585SOL    HW1 3533  12.019   8.579   1.588 -0.3906 -0.2569  0.6761
31585SOL    HW2 3534  12.090   8.576   1.722  0.4645  0.0915  0.2378
31586SOL     OW 3535   9.078   0.277   5.669  0.7366 -0.1457 -0.1224
31586SOL    HW1 3536   9.063   0.353   5.613 -0.7287  0.6950  1.3089
31586SOL    HW2 3537   9.149   0.229   5.626  0.8338  1.3370 -1.7500
31587SOL     OW 3538   6.256   4.267   4.950  0.6468  0.2359 -0.3875
31587SOL    HW1 3539   6.277   4.216   5.029  0.9296  0.1693 -0.5052
31587SOL    HW2 3540   6.185   4.325   4.977  0.8215  0.2937 -0.0526
31588SOL     OW 3541  10.791   2.403  12.607 -0.1205  0.1660  0.5022
31588SOL    HW1 3542  10.723   2.418  12.673  0.1804  1.1797  0.5841
31588SOL    HW2 3543  10.765   2.320  12.566 -1.9031  0.9671 -0.0716
31589SOL     OW 3544   4.486   1.134  12.095  0.1557 -0.4994  0.5834
31589SOL    HW1 3545   4.401   1.091  12.093  0.0486 -0.3063  0.8986
31589SOL    HW2 3546   4.511   1.142  12.003 -0.5905  0.2647  0.4365
31590SOL     OW 3547  10.931  10.143   2.534 -0.0342  0.2646 -0.3223
31590SOL    HW1 3548  10.879  10.179   2.463  0.4594  2.8954  0.5356
31590SOL    HW2 3549  10.894  10.182   2.614 -0.3229 -2.2862  0.8850
31591SOL     OW 3550   1.124   9.415   8.776 -0.0640  0.5156 -0.0545
31591SOL    HW1 3551   1.208   9.459   8.784  0.6908 -0.9372  0.3895
31591SOL    HW2 3552   1.091   9.441   8.690  1.2110  0.5048 -0.5713
31592SOL     OW 3553   3.853   1.325  11.801  0.0813  0.9987 -0.3700
31592SOL    HW1 3554   3.804   1.404  11.823 -2.0102 -0.0566 -0.9314
31592SOL    HW2 3555   3.944   1.353  11.794 -0.1673  2.7943  2.2053
31593SOL     OW 3556   2.752   5.687   2.096 -0.3238  0.2455 -0.4732
31593SOL    HW1 3557   2.787   5.726   2.015 -1.6918  2.0870 -0.2591
31593SOL    HW2 3558   2.661   5.719   2.100 -0.4826 -0.3313  1.4635
31594SOL     OW 3559   8.444   3.289   0.870  0.0223  0.1467  0.1718
31594SOL    HW1 3560   8.454   3.195   0.859 -1.3764  0.1912 -2.1592
31594SOL    HW2 3561   8.532   3.322   0.887  0.6958 -1.4484 -0.1234
31595SOL     OW 3562   3.650  12.386   6.187  0.4029  0.4675 -0.0865
31595SOL    HW1 3563   3.693  12.334   6.254 -0.5952  1.7220  1.6109
31595SOL    HW2 3564   3.715  12.451   6.161 -0.2669  2.2809  2.3818
31596SOL     OW 3565   1.707   3.293   9.302 -0.1264  0.3116 -0.3399
31596SOL    HW1 3566   1.778   3.353   9.278  0.0179 -0.5001 -2.0981
31596SOL    HW2 3567   1.751   3.218   9.343 -0.1915  0.8023  0.6504
31597SOL     OW 3568   7.240   1.555  10.014 -0.1562 -0.2310  0.3208
31597SOL    HW1 3569   7.323   1.527  10.052  1.2472  2.3258 -0.6842
31597SOL    HW2 3570   7.211   1.626  10.070  0.1805  1.2585 -1.3229
31598SOL     OW 3571  12.331   1.614   3.121  0.6532  0.2222  0.9700
31598SOL    HW1 3572  12.272   1.661   3.062  0.3017 -0.2753  0.9195
31598SOL    HW2 3573  12.407   1.672   3.128  0.5285  0.4811  0.3564
31599SOL     OW 3574   5.055  10.185   5.860  0.4498  0.2605 -0.2086
31599SOL    HW1 3575   4.963  10.186   5.885  0.3588 -1.8056 -0.3042
31599SOL    HW2 3576   5.103  10.187   5.943  0.2880  0.3072 -0.1167
31600SOL     OW 3577   8.020   1.822   8.415 -0.3610  0.2738  0.3047
31600SOL    HW1 3578   8.083   1.817   8.487  2.1852  1.5998 -1.6818
31600SOL    HW2 3579   7.990   1.913   8.416 -2.9523 -0.4689  1.6274
31601SOL     OW 3580   1.014  11.925   5.664 -0.0337  0.7280  0.0283
31601SOL    HW1 3581   0.993  11.989   5.596 -0.6643  0.0187 -0.4564
31601SOL    HW2 3582   1.069  11.860   5.621 -0.8728 -0.0073  0.0463
31602SOL     OW 3583   8.053   5.350   5.752  0.3272  0.3955  0.3947
31602SOL    HW1 3584   8.075   5.274   5.806 -0.4377 -0.5390 -0.5507
31602SOL    HW2 3585   8.130   5.362   5.696  1.3250  1.6704  1.9533
31603SOL     OW 3586   8.204   7.202  10.748  0.1335 -0.5330 -0.3610
31603SOL    HW1 3587   8.274   7.170  10.690  0.2440 -0.8828 -0.0324
31603SOL    HW2 3588   8.221   7.160  10.832  1.0451  1.3726  0.4513
31604SOL     OW 3589   9.932  10.511   3.213 -0.1954 -0.3961  0.0247
31604SOL    HW1 3590   9.927  10.589   3.268  0.1548 -0.6953  0.4879
31604SOL    HW2 3591   9.865  10.525   3.145 -0.9236 -0.2135  0.7679
31605SOL     OW 3592  10.847   2.024   5.668  0.1306  0.0948 -0.4078
31605SOL    HW1 3593  10.800   2.081   5.729  1.9364  0.7935  0.3994
31605SOL    HW2 3594  10.891   2.085   5.609 -0.8294 -0.5669 -1.8441
31606SOL     OW 3595   0.636   0.885   6.792 -0.5136 -0.4889  1.3862
31606SOL    HW1 3596   0.546   0.881   6.824 -0.9766 -1.4956  0.0784
31606SOL    HW2 3597   0.646   0.806   6.738  0.2140  0.9833 -0.7868
31607SOL     OW 3598   5.488   4.928   3.615 -0.3707 -0.3830  0.4009
31607SOL    HW1 3599   5.529   4.859   3.668  0.4471  0.6633  1.1668
31607SOL    HW2 3600   5.417   4.962   3.670 -1.0890 -0.9296 -0.1734
31608SOL     OW 3601   7.872   7.341   5.122 -0.0408  0.0489 -1.0776
31608SOL    HW1 3602   7.904   7.260   5.081  0.8754 -1.0646  1.6040
31608SOL    HW2 3603   7.851   7.398   5.048 -1.2035 -2.7682 -3.1498
31609SOL     OW 3604   4.422   9.607  11.235 -0.3246 -0.3102  0.0075
31609SOL    HW1 3605   4.382   9.543  11.175 -0.0540 -0.0775 -0.4252
31609SOL    HW2 3606   4.369   9.686  11.224 -1.0646 -0.6412  1.0224
31610SOL     OW 3607   3.551   9.878   8.926 -0.3065  0.2659 -0.5378
31610SOL    HW1 3608   3.483   9.825   8.967  0.5483  0.3332  1.0273
31610SOL    HW2 3609   3.617   9.815   8.898  1.0922  0.4951  2.0544
31611SOL     OW 3610   5.366  11.307   4.600 -0.3869 -0.2305 -0.7884
31611SOL    HW1 3611   5.342  11.248   4.671  0.4622 -0.4411 -0.6703
31611SOL    HW2 3612   5.288  11.309   4.544 -0.5283 -1.2530 -0.6563
31612SOL     OW 3613   3.404   6.910   6.761 -0.4297 -0.4320  0.0661
31612SOL    HW1 3614   3.397   6.859   6.680 -0.6461 -1.6528  0.8175
31612SOL    HW2 3615   3.468   6.862   6.814 -0.7293  0.0104  0.8521
31613SOL     OW 3616   6.554   3.712   4.895 -0.1022  0.3357  0.2094
31613SOL    HW1 3617   6.554   3.631   4.946  3.1251 -0.7256 -1.1944
31613SOL    HW2 3618   6.622   3.765   4.937  1.9726 -0.1938 -2.2348
31614SOL     OW 3619   5.184   4.423   8.135 -0.2893  0.6533 -1.0326
31614SOL    HW1 3620   5.153   4.438   8.225  2.0695 -1.5811  0.3001
31614SOL    HW2 3621   5.200   4.511   8.101  0.1440  1.5839  1.3287
31615SOL     OW 3622   7.536   1.471   7.476 -0.1527 -0.2940 -0.2042
31615SOL    HW1 3623   7.556   1.385   7.439 -2.1154  0.0982 -2.3604
31615SOL    HW2 3624   7.610   1.526   7.448  0.1562 -0.8291 -0.4626
31616SOL     OW 3625   0.780   1.337  12.415 -0.3243  0.0561 -0.1554
31616SOL    HW1 3626   0.793   1.270  12.482 -0.9747 -0.7344 -0.7994
31616SOL    HW2 3627   0.686   1.338  12.400 -0.1395 -0.1801 -1.4359
31617SOL     OW 3628   7.164   3.349   8.586  0.0231  0.0427  0.2270
31617SOL    HW1 3629   7.070   3.352   8.568  0.0703 -0.0507 -0.0390
31617SOL    HW2 3630   7.181   3.256   8.603  0.1356  0.0021 -0.1003
31618SOL     OW 3631   1.177   9.226   1.459 -0.3194 -0.4010  0.5932
31618SOL    HW1 3632   1.105   9.244   1.520 -0.7651 -1.1519  0.3038
31618SOL    HW2 3633   1.236   9.168   1.508 -0.8058 -1.2107  0.2323
31619SOL     OW 3634   9.131   7.982   3.550  0.3640 -0.6598 -0.0171
31619SOL    HW1 3635   9.161   7.899   3.512 -0.9127 -0.9788 -0.3822
31619SOL    HW2 3636   9.072   7.956   3.620 -3.5037 -0.2273 -2.8004
31620SOL     OW 3637   0.864   5.830   6.025 -0.1358 -0.4582  0.0853
31620SOL    HW1 3638   0.863   5.896   6.094 -0.9203 -0.2539 -0.1116
31620SOL    HW2 3639   0.906   5.873   5.951 -1.5467  0.2014 -0.3811
31621SOL     OW 3640   5.504  10.204   8.980 -0.4776 -0.3096  0.1325
31621SOL    HW1 3641   5.516  10.243   9.066  1.6039 -0.8764  0.1529
31621SOL    HW2 3642   5.416  10.167   8.982 -0.0812 -1.2642  2.4027
31622SOL     OW 3643  11.408   0.392   9.954 -0.4219 -0.2368 -0.0136
31622SOL    HW1 3644  11.443   0.437  10.031 -0.5954  2.3735 -1.3715
31622SOL    HW2 3645  11.388   0.304   9.986  1.1045  0.2051  2.4789
31623SOL     OW 3646   7.835   1.173   1.331 -0.3916  0.1269  0.5122
31623SOL    HW1 3647   7.762   1.199   1.387  0.0424  0.6469  0.8436
31623SOL    HW2 3648   7.879   1.255   1.310 -0.9509  0.0414 -1.1804
31624SOL     OW 3649   8.812   0.094  11.749  0.5654 -0.1453 -0.2447
31624SOL    HW1 3650   8.865   0.029  11.797  0.4631  0.5099  0.7731
31624SOL    HW2 3651   8.856   0.101  11.664  0.6532 -1.4534 -0.3338
31625SOL     OW 3652   2.756   8.868  10.248  0.1652  0.6368 -0.3133
31625SOL    HW1 3653   2.806   8.911  10.317  1.5411  0.7025 -1.3267
31625SOL    HW2 3654   2.797   8.783  10.238 -1.8121 -0.5348  0.8689
31626SOL     OW 3655   8.624   5.558  10.154 -0.7690 -0.2374  0.0590
31626SOL    HW1 3656   8.570   5.601  10.220 -1.2017 -0.0526 -0.4059
31626SOL    HW2 3657   8.563   5.504  10.104 -0.9320  1.4449 -1.7184
31627SOL     OW 3658   1.509   4.506   0.832  0.1961  0.1045 -0.1665
31627SOL    HW1 3659   1.568   4.574   0.800 -1.7039  1.5591 -0.8077
31627SOL    HW2 3660   1.478   4.462   0.753  0.5616 -0.7852  0.1733
31628SOL     OW 3661   5.341   6.643  11.384 -0.0995  0.2867 -0.2263
31628SOL    HW1 3662   5.309   6.554  11.396 -0.9163  0.0908 -3.1586
31628SOL    HW2 3663   5.435   6.633  11.369  0.0316  0.0879  0.6333
31629SOL     OW 3664   8.322   6.659   2.391 -0.6580  0.1339  0.2162
31629SOL    HW1 3665   8.239   6.642   2.346 -0.1864 -1.0454 -0.2446
31629SOL    HW2 3666   8.347   6.747   2.362 -2.7897  1.4365  2.0416
31630SOL     OW 3667   2.901   3.385   8.290 -0.7765 -0.6273  0.3291
31630SOL    HW1 3668   2.886   3.318   8.223  0.6082 -0.7028  0.0618
31630SOL    HW2 3669   2.818   3.391   8.336 -0.7520 -3.0712  0.8485
31631SOL     OW 3670   5.076   9.007   0.222  0.3421 -0.5022 -0.2901
31631SOL    HW1 3671   5.128   9.018   0.142  0.3668 -1.8592 -0.5009
31631SOL    HW2 3672   5.089   8.915   0.246  1.0389  0.1000  1.8020
31632SOL     OW 3673   2.636   2.528   7.955 -0.1341  0.1202 -0.7375
31632SOL    HW1 3674   2.566   2.548   7.893  1.2501 -1.8661 -3.1193
31632SOL    HW2 3675   2.613   2.443   7.992  0.1887  0.2355 -0.2560
31633SOL     OW 3676   8.346   4.134  10.757 -0.2268 -0.0288 -0.2922
31633SOL    HW1 3677   8.428   4.087  10.766 -0.4022 -0.1491  0.8177
31633SOL    HW2 3678   8.309   4.102  10.675  1.0924  0.4636 -1.1155
31634SOL     OW 3679   3.738   0.818   2.338  0.1416 -0.8511 -0.5615
31634SOL    HW1 3680   3.719   0.838   2.429 -0.2950  1.3198 -1.0680
31634SOL    HW2 3681   3.816   0.871   2.318  0.1980 -1.2545 -1.4612
31635SOL     OW 3682   0.240   3.916   7.711 -0.6995 -0.0832 -0.5086
31635SOL    HW1 3683   0.193   3.893   7.791 -1.2632  4.1481  0.6148
31635SOL    HW2 3684   0.326   3.946   7.742 -0.3132  0.0857 -1.6841
31636SOL     OW 3685   9.270   1.852   0.333  0.5862 -0.1067  0.6058
31636SOL    HW1 3686   9.355   1.894   0.329  0.2563  0.5488  0.2395
31636SOL    HW2 3687   9.271   1.789   0.261  1.0178 -0.5952  1.0412
31637SOL     OW 3688   7.053   3.469   2.067  0.5075 -0.0833 -0.1403
31637SOL    HW1 3689   7.076   3.542   2.009  0.6835  0.0665  0.1183
31637SOL    HW2 3690   7.114   3.476   2.140  0.9328 -0.8666 -0.4155
31638SOL     OW 3691   5.913   1.683  10.881 -0.1896  0.1490 -0.3087
31638SOL    HW1 3692   5.898   1.774  10.858 -0.0701 -0.0206 -1.1043
31638SOL    HW2 3693   5.861   1.633  10.819  0.3247 -0.3386 -0.3650
31639SOL     OW 3694   3.321   6.724   9.493  0.3815 -0.6262  0.1907
31639SOL    HW1 3695   3.287   6.779   9.422 -1.4154 -1.8969 -0.0145
31639SOL    HW2 3696   3.278   6.758   9.572  0.7436 -0.5389  0.3507
31640SOL     OW 3697   4.414   9.786   2.203 -0.5200  0.6266 -0.0200
31640SOL    HW1 3698   4.401   9.856   2.268  0.0201  1.0362 -0.3530
31640SOL    HW2 3699   4.453   9.830   2.128 -1.4421  0.2119 -0.7603
31641SOL     OW 3700   1.341   2.242   8.592 -0.0957 -0.5403  0.1092
31641SOL    HW1 3701   1.322   2.288   8.674 -0.7929 -1.4153  0.4609
31641SOL    HW2 3702   1.281   2.282   8.528  0.0004 -0.2873  0.1752
31642SOL     OW 3703   4.183   1.344  12.131  0.1669 -0.2034 -0.5190
31642SOL    HW1 3704   4.244   1.284  12.089 -1.8170 -2.5227 -0.3334
31642SOL    HW2 3705   4.108   1.347  12.071 -1.0855 -0.4602  0.9604
31643SOL     OW 3706  10.685   4.110   8.422 -0.7523  0.2383  0.9665
31643SOL    HW1 3707  10.640   4.069   8.349 -1.0354 -2.0743  2.3238
31643SOL    HW2 3708  10.758   4.051   8.441  2.0054  3.0203 -0.1356
31644SOL     OW 3709   3.758   6.018   3.238 -0.5847 -0.0238  0.5774
31644SOL    HW1 3710   3.732   5.932   3.273  1.9336 -0.8240  0.7112
31644SOL    HW2 3711   3.853   6.017   3.242 -0.4807  3.1679  1.3798
31645SOL     OW 3712   2.471   1.517   0.179  0.4368  0.0992  0.2141
31645SOL    HW1 3713   2.503   1.605   0.201  0.8508 -0.3344  1.4522
31645SOL    HW2 3714   2.452   1.521   0.086  0.5216  1.4856  0.2318
31646SOL     OW 3715   5.170   8.772   1.372 -0.1564  0.0409  0.7918
31646SOL    HW1 3716   5.144   8.684   1.346  0.7322 -0.1664  0.5782
31646SOL    HW2 3717   5.088   8.822   1.372 -0.2653  0.0259 -2.2304
31647SOL     OW 3718   5.892   5.342   5.878 -0.1127  0.1864  0.1333
31647SOL    HW1 3719   5.892   5.403   5.805  0.8792  0.4260  0.3184
31647SOL    HW2 3720   5.859   5.260   5.841  0.3080  0.3290 -0.5629
31648SOL     OW 3721   3.326   7.243  11.893 -0.2900  0.3991 -0.8744
31648SOL    HW1 3722   3.304   7.332  11.866  1.5925  0.3137 -2.9784
31648SOL    HW2 3723   3.422   7.242  11.894 -0.2594 -1.0177  1.3257
31649SOL     OW 3724   4.184   3.397  11.710  0.0169  0.4917  0.4299
31649SOL    HW1 3725   4.273   3.419  11.681  0.4171  0.2183  1.3884
31649SOL    HW2 3726   4.149   3.342  11.641  1.0223 -0.3392  0.5641
31650SOL     OW 3727   9.927   7.110   5.563  0.2684  0.1654  0.3766
31650SOL    HW1 3728   9.876   7.185   5.533  0.2730  0.3325  0.7772
31650SOL    HW2 3729  10.003   7.108   5.505  0.3874  0.6107  0.5158
31651SOL     OW 3730   3.486   7.091  11.427 -0.0461 -0.2780  0.3641
31651SOL    HW1 3731   3.498   7.097  11.333 -0.1706  0.3687  0.3872
31651SOL    HW2 3732   3.397   7.122  11.443 -0.2809 -1.0641  0.6260
31652SOL     OW 3733   0.741   0.155  11.858  0.1211 -0.2292 -0.2990
31652SOL    HW1 3734   0.701   0.168  11.944 -0.4478  0.1085 -0.6065
31652SOL    HW2 3735   0.834   0.143  11.876  0.0558  0.1929  0.3349
31653SOL     OW 3736   0.422   0.496   8.602  0.5437 -0.5069 -0.0023
31653SOL    HW1 3737   0.357   0.493   8.672  1.4972  0.0035  0.9337
31653SOL    HW2 3738   0.388   0.563   8.541  0.4445  0.1339  0.7391
31654SOL     OW 3739  11.897   8.500   9.737  0.1112 -0.0362 -0.3419
31654SOL    HW1 3740  11.877   8.408   9.757  0.9587 -0.3770 -0.9982
31654SOL    HW2 3741  11.901   8.543   9.823 -0.7570 -0.5027 -0.0525
31655SOL     OW 3742   1.481   2.439   8.820  0.2841  0.0282 -0.0040
31655SOL    HW1 3743   1.513   2.420   8.908 -0.7033  1.7189  0.7746
31655SOL    HW2 3744   1.417   2.509   8.833 -2.6985 -2.1588 -1.5985
31656SOL     OW 3745  11.030   7.694   1.083 -0.1423 -0.2232 -0.0283
31656SOL    HW1 3746  11.114   7.691   1.037 -0.2033 -0.7520 -0.1116
31656SOL    HW2 3747  10.995   7.605   1.075 -1.3583  0.3364 -1.1765
31657SOL     OW 3748   0.526   4.346  10.034 -0.1057 -0.6516 -0.0562
31657SOL    HW1 3749   0.532   4.272   9.973  1.9488 -1.5956  1.1893
31657SOL    HW2 3750   0.558   4.421   9.985 -0.4279 -0.9601 -0.7492
31658SOL     OW 3751   0.913  11.585   6.003 -0.1881  0.4179 -0.9618
31658SOL    HW1 3752   0.984  11.548   5.950 -0.6069  1.8328 -2.5930
31658SOL    HW2 3753   0.953  11.602   6.089  1.0520 -0.1077 -1.4218
31659SOL     OW 3754   9.837   9.270   3.716  0.5659  0.3191 -0.1906
31659SOL    HW1 3755   9.928   9.242   3.714  0.0277 -1.8809  1.4541
31659SOL    HW2 3756   9.792   9.207   3.660 -0.0333  1.0387 -0.5319
31660SOL     OW 3757   3.281   4.140  10.254 -0.1696 -0.0166  0.2119
31660SOL    HW1 3758   3.370   4.132  10.287 -0.1989 -0.2995  0.2258
31660SOL    HW2 3759   3.286   4.210  10.189 -0.1030  0.5114  0.7754
31661SOL     OW 3760   1.143   0.757   3.924 -0.0449  0.4180 -0.1424
31661SOL    HW1 3761   1.196   0.702   3.982  0.2650 -1.9583 -2.4699
31661SOL    HW2 3762   1.066   0.704   3.905 -0.6285  1.5543 -1.0648
31662SOL     OW 3763   9.233  12.294   9.103  0.4694  0.3216  0.1305
31662SOL    HW1 3764   9.181  12.256   9.032  0.0755  0.1423  0.5145
31662SOL    HW2 3765   9.221  12.389   9.093  0.7272  0.3124 -0.2776
31663SOL     OW 3766   6.926   7.522   4.428  0.2950  0.4493  0.1929
31663SOL    HW1 3767   6.952   7.486   4.343 -1.0398  1.1177 -0.5259
31663SOL    HW2 3768   6.946   7.616   4.421  1.0862  0.3560  0.9987
31664SOL     OW 3769   4.097   8.354   2.187  0.0244 -0.0054 -0.2037
31664SOL    HW1 3770   4.146   8.275   2.211 -0.1714  0.2359  1.0483
31664SOL    HW2 3771   4.089   8.403   2.269 -1.2165  0.5704 -0.6472
31665SOL     OW 3772   5.737   6.628   3.166 -0.3850  0.7552 -0.0951
31665SOL    HW1 3773   5.700   6.540   3.155  1.4547  0.1669 -2.2002
31665SOL    HW2 3774   5.704   6.656   3.251 -1.1391 -1.9314  0.6176
31666SOL     OW 3775   8.521   1.418   3.893  0.0911  0.0928  0.1317
31666SOL    HW1 3776   8.494   1.421   3.985 -1.4104  3.1599 -0.2614
31666SOL    HW2 3777   8.525   1.510   3.867  0.3587 -0.6874 -2.9133
31667SOL     OW 3778  11.836   2.092  11.690  0.3688  0.0229 -0.2838
31667SOL    HW1 3779  11.864   2.007  11.657  1.2182  0.6526 -1.2485
31667SOL    HW2 3780  11.911   2.123  11.741  0.5948  0.7606 -1.0426
31668SOL     OW 3781   5.029   9.088  11.677  0.5163 -0.2455 -0.2853
31668SOL    HW1 3782   4.953   9.032  11.696 -0.2411  0.7360 -0.3746
31668SOL    HW2 3783   5.097   9.026  11.649 -0.1785 -1.1623 -0.0103
31669SOL     OW 3784  10.473   0.270   5.570  0.2366 -0.2051 -0.1671
31669SOL    HW1 3785  10.427   0.342   5.527 -0.4431 -1.0375 -0.8828
31669SOL    HW2 3786  10.492   0.303   5.658  0.4952  1.0556 -0.6689
31670SOL     OW 3787  10.432   1.509   4.464 -0.4365  0.3168  0.4798
31670SOL    HW1 3788  10.427   1.604   4.453 -0.6027  0.2345 -0.1897
31670SOL    HW2 3789  10.348   1.477   4.432  1.0300 -0.3745 -3.1329
31671SOL     OW 3790   5.282   1.976  12.041  0.0287  0.0454 -0.7109
31671SOL    HW1 3791   5.192   1.990  12.013  0.4171  0.5135 -1.7634
31671SOL    HW2 3792   5.318   2.065  12.051  0.6278 -0.1472 -1.1444
31672SOL     OW 3793   8.377  11.618  10.040  0.1499 -0.1323  0.4431
31672SOL    HW1 3794   8.385  11.591  10.132  1.4879  0.8849  0.6491
31672SOL    HW2 3795   8.431  11.555   9.992  0.8448  0.3522  0.5724
31673SOL     OW 3796   4.023   4.512   5.141  0.8254  0.8627  0.0902
31673SOL    HW1 3797   4.084   4.466   5.083  1.7963  0.5138  1.3472
31673SOL    HW2 3798   4.074   4.530   5.220 -1.1305 -0.8758  1.8654
31674SOL     OW 3799  11.658   3.213  12.113 -0.2521  0.1887  0.3470
31674SOL    HW1 3800  11.667   3.136  12.170 -0.8024  1.5543  2.3774
31674SOL    HW2 3801  11.574   3.251  12.136 -0.6230  0.6711 -1.6185
31675SOL     OW 3802   6.617   9.634  10.640 -0.7478 -0.2532  0.2700
31675SOL    HW1 3803   6.705   9.672  10.638 -1.0777  0.5003 -0.4896
31675SOL    HW2 3804   6.631   9.543  10.614 -0.3355  0.2054 -1.2373
31676SOL     OW 3805  10.934   1.351   6.056  0.0466  0.1227  0.2888
31676SOL    HW1 3806  10.859   1.374   6.110  1.1309 -0.5688  2.1938
31676SOL    HW2 3807  10.970   1.435   6.027 -2.9136  0.5008 -2.9940
31677SOL     OW 3808  10.242   6.103   5.908 -0.0411  0.3939 -0.0024
31677SOL    HW1 3809  10.265   6.033   5.969 -2.5387  0.8944  1.6698
31677SOL    HW2 3810  10.211   6.058   5.830  1.2284 -0.2965 -0.1217
31678SOL     OW 3811   3.417   9.699  11.714 -0.2854  0.1704  0.0289
31678SOL    HW1 3812   3.359   9.757  11.763 -0.3570  0.3122 -0.2235
31678SOL    HW2 3813   3.496   9.750  11.701 -0.7031  0.5593 -1.0212
31679SOL     OW 3814   2.445   3.500   6.696 -0.4051 -0.1844 -0.2208
31679SOL    HW1 3815   2.501   3.474   6.769 -0.3730  1.3975  0.3696
31679SOL    HW2 3816   2.433   3.421   6.645  1.8622 -0.7081 -0.0299
31680SOL     OW 3817   2.127   2.361   8.091 -0.6436  0.2394  0.2024
31680SOL    HW1 3818   2.116   2.282   8.144  2.7756 -0.6049 -0.0935
31680SOL    HW2 3819   2.218   2.387   8.106 -1.7383  4.6153  0.8084
31681SOL     OW 3820   4.344   6.312   9.241 -0.2069 -0.2448  0.7886
31681SOL    HW1 3821   4.340   6.368   9.319 -0.9684 -0.2393  0.7559
31681SOL    HW2 3822   4.278   6.349   9.182  0.5702 -0.0716  0.0155
31682SOL     OW 3823   9.087   6.998   2.906 -0.5263 -0.1294  0.3786
31682SOL    HW1 3824   9.157   6.933   2.910 -1.9002 -1.6737  0.4755
31682SOL    HW2 3825   9.035   6.971   2.830 -1.2411  0.7355  0.5530
31683SOL     OW 3826   4.475   7.062   3.682  0.0383 -0.4193 -0.4449
31683SOL    HW1 3827   4.394   7.086   3.637  0.2437 -2.1651 -1.8580
31683SOL    HW2 3828   4.543   7.069   3.614  1.6257  3.2865  1.2202
31684SOL     OW 3829   5.884   8.509   7.969  0.7896 -0.4041  0.1650
31684SOL    HW1 3830   5.881   8.563   8.048  1.1678  0.7456 -0.5747
31684SOL    HW2 3831   5.799   8.521   7.928  1.0145 -0.0064 -0.2083
31685SOL     OW 3832   7.939   2.224   5.464 -0.2599 -0.1717  0.1099
31685SOL    HW1 3833   7.956   2.276   5.385 -3.7565  0.0810 -0.6205
31685SOL    HW2 3834   7.961   2.282   5.536 -0.9160  1.1158 -0.6923
31686SOL     OW 3835  12.156   0.997   6.707 -0.3781  0.0687  0.7982
31686SOL    HW1 3836  12.172   0.917   6.657 -1.4495  0.3502 -0.0282
31686SOL    HW2 3837  12.063   1.016   6.692 -0.0610  1.6289  0.7430
31687SOL     OW 3838   9.800   4.962   2.136  0.1327  0.2989 -0.5229
31687SOL    HW1 3839   9.749   4.908   2.075 -0.1973  0.6841 -0.5891
31687SOL    HW2 3840   9.884   4.916   2.144 -0.0187 -0.0393 -0.8486
31688SOL     OW 3841   7.805   4.178   2.335 -0.5789 -0.6775  0.0202
31688SOL    HW1 3842   7.773   4.225   2.412 -0.1294 -1.2277  0.5529
31688SOL    HW2 3843   7.728   4.134   2.300 -1.3026  1.4356 -1.2477
31689SOL     OW 3844   6.930  11.021   9.060  0.3993  0.2226  0.5640
31689SOL    HW1 3845   6.875  11.053   9.131 -2.0809 -1.9049 -0.2483
31689SOL    HW2 3846   6.966  11.100   9.020 -0.9262  1.6352  2.0215
31690SOL     OW 3847   3.125   9.255   2.134  0.0794 -0.5921  0.0893
31690SOL    HW1 3848   3.184   9.291   2.068 -0.5260  0.8321  0.3023
31690SOL    HW2 3849   3.114   9.325   2.198  0.5979 -1.9110  1.7006
31691SOL     OW 3850   7.746   1.804   8.054 -0.3966  0.1683  0.1089
31691SOL    HW1 3851   7.814   1.866   8.082 -0.5236  0.7138 -0.7626
31691SOL    HW2 3852   7.724   1.831   7.965 -1.3945 -0.3223  0.1944
31692SOL     OW 3853   0.945   7.392  10.317 -0.2077  0.1726 -0.0704
31692SOL    HW1 3854   0.996   7.461  10.274 -0.9019  0.4535 -0.4578
31692SOL    HW2 3855   0.884   7.438  10.374  0.7986 -0.2026  1.3684
31693SOL     OW 3856   8.645   3.297   9.349  0.3401  0.6436  0.2550
31693SOL    HW1 3857   8.720   3.243   9.323  0.7392  1.3650 -0.1637
31693SOL    HW2 3858   8.590   3.301   9.270 -0.5870 -0.5659  0.8052
31694SOL     OW 3859   1.708   4.539   9.723  0.1867 -0.3236 -0.5736
31694SOL    HW1 3860   1.660   4.613   9.760 -1.1156 -0.2993 -2.1909
31694SOL    HW2 3861   1.721   4.563   9.631  1.3854 -1.3082 -0.6838
31695SOL     OW 3862   5.106   5.405  10.146 -0.5123 -0.5189  0.1715
31695SOL    HW1 3863   5.186   5.361  10.116  0.9012  2.0560 -0.1652
31695SOL    HW2 3864   5.035   5.356  10.105  0.7754 -3.3249  1.0119
31696SOL     OW 3865  12.574   2.816  11.489 -0.2117  0.0049 -0.3098
31696SOL    HW1 3866  12.556   2.892  11.433 -1.1096 -0.2159 -0.3440
31696SOL    HW2 3867  12.585   2.743  11.428 -0.6216 -0.1266 -0.2318
31697SOL     OW 3868   8.066   8.621  11.406  0.3340 -0.2655 -0.0283
31697SOL    HW1 3869   8.121   8.649  11.479 -0.5606 -0.1527  0.6323
31697SOL    HW2 3870   8.022   8.542  11.438 -1.2822  0.6702  0.1926
31698SOL     OW 3871   0.023  12.366   7.754 -0.3538 -0.0151  0.1358
31698SOL    HW1 3872   0.055  12.275   7.753 -0.9377 -0.2613  1.4163
31698SOL    HW2 3873   0.074  12.408   7.823 -0.3828  0.5278 -0.1704
31699SOL     OW 3874   7.743  12.106   1.478  0.4717  0.6731  0.1206
31699SOL    HW1 3875   7.818  12.053   1.450  0.4163  0.9345 -0.5573
31699SOL    HW2 3876   7.715  12.066   1.560  1.4967  0.7116  0.5035
31700SOL     OW 3877   9.980  10.597  10.565  0.0077  0.2126  1.4599
31700SOL    HW1 3878  10.067  10.631  10.544 -0.8344  1.1184 -0.9905
31700SOL    HW2 3879   9.979  10.509  10.528 -0.1772  0.2943  1.2677
31701SOL     OW 3880  11.072   8.799   2.759  0.0524  0.2865 -0.0446
31701SOL    HW1 3881  11.066   8.814   2.665  1.5324  1.2346 -0.0230
31701SOL    HW2 3882  10.983   8.817   2.791 -0.3412  0.4776 -1.1841
31702SOL     OW 3883  10.899   2.867  10.966  0.2282  0.4528  0.3138
31702SOL    HW1 3884  10.854   2.952  10.963 -0.7058 -0.0123  0.5886
31702SOL    HW2 3885  10.978   2.879  10.914 -0.8751  0.9262 -1.3132
31703SOL     OW 3886  10.494   6.154   7.678  0.3968 -0.3801  0.2297
31703SOL    HW1 3887  10.559   6.221   7.699  1.4390 -0.6183 -1.9880
31703SOL    HW2 3888  10.545   6.074   7.668 -0.3106 -0.7154 -0.8668
31704SOL     OW 3889   3.809   8.839   5.171 -0.1601 -0.6121  0.4420
31704SOL    HW1 3890   3.846   8.756   5.201  1.6076 -0.0613 -0.1224
31704SOL    HW2 3891   3.871   8.905   5.199 -0.2661  0.2642 -1.2504
31705SOL     OW 3892   3.760   0.046   5.070 -0.3410 -0.4581 -0.0588
31705SOL    HW1 3893   3.852   0.067   5.082 -0.3000 -0.9019  0.4359
31705SOL    HW2 3894   3.760  -0.028   5.010 -0.4521  0.4405 -1.2067
31706SOL     OW 3895  11.529   0.871   8.630  0.2295  0.4759 -0.3914
31706SOL    HW1 3896  11.457   0.902   8.575  1.5241  1.3963 -1.6660
31706SOL    HW2 3897  11.608   0.893   8.580  1.3947 -0.6921  0.8483
31707SOL     OW 3898   7.363   1.039  11.090 -0.1271  0.2565 -0.0516
31707SOL    HW1 3899   7.304   1.079  11.154 -0.8505  0.8064 -1.0325
31707SOL    HW2 3900   7.449   1.075  11.111 -0.4795  0.9988  0.1555
31708SOL     OW 3901  12.400   0.367  10.865  0.0008  0.4610  0.1483
31708SOL    HW1 3902  12.391   0.437  10.929  1.3430 -1.1541  2.2561
31708SOL    HW2 3903  12.463   0.401  10.801 -0.9629  1.9160 -0.0539
31709SOL     OW 3904   2.314  10.335   6.021  0.0893  0.3021 -0.2976
31709SOL    HW1 3905   2.231  10.316   6.066  0.2457  1.3317  0.4400
31709SOL    HW2 3906   2.333  10.426   6.042  1.1185  0.2543 -0.9502
31710SOL     OW 3907   0.529   8.957   9.322 -0.4185 -0.1870  0.1535
31710SOL    HW1 3908   0.543   9.043   9.282  1.4734 -0.8081 -0.6248
31710SOL    HW2 3909   0.583   8.958   9.401 -0.3281 -0.6881  0.1042
31711SOL     OW 3910   0.248   3.029  10.225 -0.0993 -0.6271 -0.7042
31711SOL    HW1 3911   0.224   2.938  10.211 -0.0586 -0.8774  0.7057
31711SOL    HW2 3912   0.343   3.026  10.241 -0.0851 -0.3227 -0.7265
31712SOL     OW 3913  12.477  10.141   3.068  0.1588 -0.1870 -0.1283
31712SOL    HW1 3914  12.534  10.188   3.129  1.0956  0.0951 -1.1855
31712SOL    HW2 3915  12.417  10.208   3.035  0.3023 -0.1198 -0.2557
31713SOL     OW 3916   8.561   1.846   4.959 -0.3250 -0.1924  0.1629
31713SOL    HW1 3917   8.527   1.779   5.017  0.4635  0.6538  1.6575
31713SOL    HW2 3918   8.600   1.911   5.017 -1.6567  1.9306 -1.1685
31714SOL     OW 3919   7.301   4.528   4.551  0.1866  0.2543  0.4141
31714SOL    HW1 3920   7.229   4.523   4.487  1.3032 -0.4924 -0.8391
31714SOL    HW2 3921   7.291   4.613   4.592 -1.2289  0.2966  0.0408
31715SOL     OW 3922  10.972  10.506  10.798  0.0030  0.2831  0.4129
31715SOL    HW1 3923  11.059  10.536  10.823 -0.1500  0.6749  0.4860
31715SOL    HW2 3924  10.960  10.424  10.847  0.6248 -0.1736 -0.1844
31716SOL     OW 3925   5.883  12.599   0.568 -0.3335 -0.1003  0.4908
31716SOL    HW1 3926   5.958  12.553   0.603  0.0869  1.1372  1.2850
31716SOL    HW2 3927   5.845  12.539   0.504 -0.2828 -1.8444  2.0233
31717SOL     OW 3928   4.213   8.580  12.468 -0.0122  0.2260 -0.1692
31717SOL    HW1 3929   4.258   8.632  12.402  0.8193  0.0076  0.2162
31717SOL    HW2 3930   4.122   8.608  12.462 -0.0026  0.0518 -1.5584
31718SOL     OW 3931   1.331   2.107   6.470 -0.4411  0.8112 -0.1164
31718SOL    HW1 3932   1.241   2.125   6.444 -0.4642 -1.5164 -2.0732
31718SOL    HW2 3933   1.329   2.108   6.565 -2.8458 -0.2978 -0.0705
31719SOL     OW 3934   4.204  11.434   3.638  0.6080  0.8441  0.3541
31719SOL    HW1 3935   4.163  11.363   3.687 -0.5496  1.4217  0.2594
31719SOL    HW2 3936   4.214  11.400   3.549  0.8832  0.4867  0.5214
31720SOL     OW 3937   6.483   5.620   5.896  0.2368  0.5285  0.1006
31720SOL    HW1 3938   6.456   5.628   5.805  1.7294  0.9384 -0.3335
31720SOL    HW2 3939   6.425   5.553   5.933 -0.9414  0.9669 -0.9025
31721SOL     OW 3940   6.891   4.050  12.529 -0.6506  0.5558  0.7852
31721SOL    HW1 3941   6.880   4.135  12.486 -0.5211  1.0977  1.7766
31721SOL    HW2 3942   6.976   4.056  12.572 -0.0565 -0.5668 -0.1697
31722SOL     OW 3943   7.241   1.034   8.853 -0.4545  0.3392 -0.2645
31722SOL    HW1 3944   7.309   0.993   8.800  2.1410  1.3716  2.0036
31722SOL    HW2 3945   7.247   0.991   8.938 -1.3789  1.7148  0.5501
31723SOL     OW 3946   8.300   6.197   6.391 -0.2292  0.3107  0.7128
31723SOL    HW1 3947   8.208   6.172   6.394 -0.8456  2.4384  0.9366
31723SOL    HW2 3948   8.302   6.277   6.339  1.4907  0.3389  0.7711
31724SOL     OW 3949   7.296  10.057   1.932  0.0181 -0.4064 -0.2154
31724SOL    HW1 3950   7.362   9.988   1.936  0.6932  0.1787 -0.8859
31724SOL    HW2 3951   7.215  10.012   1.911 -0.1149 -1.3211  1.9794
31725SOL     OW 3952   4.485   4.582   0.756  0.3155 -0.3135 -0.0465
31725SOL    HW1 3953   4.559   4.548   0.706  0.9444  1.9680 -0.7842
31725SOL    HW2 3954   4.417   4.597   0.690  0.5205  1.0218  0.0185
31726SOL     OW 3955   3.595   8.713   4.222  0.0451 -0.3953  0.0585
31726SOL    HW1 3956   3.643   8.751   4.296  1.1205  0.7393 -1.1767
31726SOL    HW2 3957   3.554   8.635   4.258  0.8159 -0.0508  1.7756
31727SOL     OW 3958   3.237   8.397   4.909 -0.6926 -0.2306  0.0065
31727SOL    HW1 3959   3.293   8.453   4.856 -1.3160  0.8099  0.4102
31727SOL    HW2 3960   3.255   8.309   4.879  0.0657  0.2173 -0.8865
31728SOL     OW 3961   8.321   3.504   0.745  0.1578 -0.0118 -0.0206
31728SOL    HW1 3962   8.370   3.425   0.770  2.2525  0.7678 -1.3980
31728SOL    HW2 3963   8.325   3.505   0.649  0.7597  2.0996 -0.0085
31729SOL     OW 3964   3.517   3.556   6.919  0.0085 -0.3130  0.4952
31729SOL    HW1 3965   3.584   3.592   6.862  0.2195 -3.4211 -1.4892
31729SOL    HW2 3966   3.502   3.623   6.985  1.6537  2.4208 -1.7020
31730SOL     OW 3967   2.336  10.565   7.719 -0.5060 -0.4131  0.0121
31730SOL    HW1 3968   2.421  10.554   7.762 -0.5457  0.2727  0.2881
31730SOL    HW2 3969   2.276  10.513   7.772  0.1075 -2.8346 -1.5162
31731SOL     OW 3970   5.771   1.029   6.211 -0.3170 -0.1933  0.4925
31731SOL    HW1 3971   5.807   0.983   6.135 -0.6228  1.0855 -0.4632
31731SOL    HW2 3972   5.847   1.062   6.258 -0.1573  1.1992 -0.6872
31732SOL     OW 3973  10.377   3.751   6.099 -0.0089 -0.3687 -0.0697
31732SOL    HW1 3974  10.295   3.734   6.146  0.1840  0.6762  0.6605
31732SOL    HW2 3975  10.373   3.843   6.075  1.3907 -0.0346  0.8645
31733SOL     OW 3976  11.776   3.750   9.764 -0.6840  0.7032  0.1083
31733SOL    HW1 3977  11.842   3.692   9.726  0.1169  1.7131 -0.0995
31733SOL    HW2 3978  11.698   3.695   9.773 -0.4431  0.0125 -1.5826
31734SOL     OW 3979   3.188   4.505   5.590 -0.2759 -0.0776 -0.1389
31734SOL    HW1 3980   3.247   4.517   5.516 -0.1358 -1.4879 -0.2752
31734SOL    HW2 3981   3.244   4.513   5.667  0.3883 -2.6724 -0.2896
31735SOL     OW 3982   1.891   9.329   5.468 -0.1500  0.8290 -0.1199
31735SOL    HW1 3983   1.835   9.358   5.540 -1.1775  1.0536 -0.9960
31735SOL    HW2 3984   1.870   9.236   5.458 -0.7319  1.0262 -0.7668
31736SOL     OW 3985  11.333   0.245   6.432  0.0666 -0.1283  0.2491
31736SOL    HW1 3986  11.399   0.176   6.430  1.7495  1.3980  0.4393
31736SOL    HW2 3987  11.275   0.221   6.504  1.4845 -0.6006  1.2783
31737SOL     OW 3988  12.267   3.022   9.107 -0.0466 -0.1806  0.0770
31737SOL    HW1 3989  12.321   3.033   9.185  2.8546 -0.9000 -1.6902
31737SOL    HW2 3990  12.235   2.932   9.113  0.5692 -0.3949  0.2090
31738SOL     OW 3991  10.492   6.488   5.635  0.4682  0.2071 -0.2069
31738SOL    HW1 3992  10.458   6.414   5.686 -1.8717  0.0078 -1.9190
31738SOL    HW2 3993  10.488   6.458   5.544  2.1486  1.4663 -0.7291
31739SOL     OW 3994   3.552   7.631   8.374  0.7495  0.4026  0.1687
31739SOL    HW1 3995   3.557   7.696   8.444  1.3095  0.1645  0.3493
31739SOL    HW2 3996   3.468   7.649   8.330  0.3519  0.4926  0.9550
31740SOL     OW 3997  12.343   1.272   4.161  0.1174  0.1045 -0.3009
31740SOL    HW1 3998  12.351   1.177   4.168  2.6834  0.1395 -1.5514
31740SOL    HW2 3999  12.389   1.306   4.237  0.4787  0.3298 -0.6149
31741SOL     OW 4000   0.847  10.485   2.822  0.4290  0.0861 -0.1007
31741SOL    HW1 4001   0.890  10.402   2.802 -0.5348 -0.3522 -0.3789
31741SOL    HW2 4002   0.847  10.490   2.917  0.8201 -0.0557 -0.0915
31742SOL     OW 4003   0.010   5.507   0.840 -0.2274 -0.0391 -0.7156
31742SOL    HW1 4004   0.012   5.412   0.839 -0.5827 -0.0561 -0.0212
31742SOL    HW2 4005  -0.037   5.530   0.920 -0.2741  0.7172 -0.9503
31743SOL     OW 4006   9.920   1.292   2.820  0.1239 -0.3380  0.2427
31743SOL    HW1 4007   9.944   1.373   2.776  1.6714 -0.6755  0.4080
31743SOL    HW2 4008   9.829   1.305   2.847  0.2244  1.1836 -0.0792
31744SOL     OW 4009  11.832   5.521   8.662 -0.2451 -0.1434  0.0269
31744SOL    HW1 4010  11.848   5.472   8.742 -0.6578 -1.0547 -0.4393
31744SOL    HW2 4011  11.903   5.495   8.603  0.3240  0.8722  0.2395
31745SOL     OW 4012   6.932   0.176   4.428  0.0093 -0.9685 -0.5117
31745SOL    HW1 4013   6.884   0.253   4.457  1.0890  0.2226 -1.7629
31745SOL    HW2 4014   6.867   0.105   4.429 -1.2917  0.1943 -0.4676
31746SOL     OW 4015   9.009   3.991   7.468 -0.2476  0.5484  0.2646
31746SOL    HW1 4016   9.085   4.049   7.475  0.0127  0.5272 -1.6327
31746SOL    HW2 4017   8.963   4.023   7.390 -0.7519 -1.0586 -0.1224
31747SOL     OW 4018   4.788   9.300   9.848  0.4498 -0.2897  0.0981
31747SOL    HW1 4019   4.802   9.393   9.869  4.1278 -0.2312 -1.7963
31747SOL    HW2 4020   4.693   9.288   9.856 -0.1265  3.4644  0.9621
31748SOL     OW 4021  12.447   5.795   6.438 -0.3185 -0.4077 -0.1851
31748SOL    HW1 4022  12.473   5.715   6.484  0.3332 -0.3245 -0.4017
31748SOL    HW2 4023  12.360   5.776   6.403  0.0810 -1.2352 -0.7496
31749SOL     OW 4024   2.338   1.201   9.756 -0.4601  0.5774 -0.3816
31749SOL    HW1 4025   2.248   1.169   9.750 -0.0192 -1.1822  1.3049
31749SOL    HW2 4026   2.331   1.286   9.800 -1.2795  0.4661 -0.2849
31750SOL     OW 4027   2.527  11.569   7.900 -0.3280  0.3664  0.4634
31750SOL    HW1 4028   2.559  11.479   7.890  1.0908  0.9517 -0.6109
31750SOL    HW2 4029   2.502  11.574   7.992  1.0322 -0.7062  0.9477
31751SOL     OW 4030   2.912  10.369   1.928 -0.2171 -0.1337 -0.3036
31751SOL    HW1 4031   2.914  10.295   1.989  0.4423  0.3721  0.2959
31751SOL    HW2 4032   2.842  10.347   1.867 -0.5645 -0.8804  0.3441
31752SOL     OW 4033  10.670   1.711   0.403 -0.2899  0.3068 -0.0073
31752SOL    HW1 4034  10.619   1.693   0.481  0.0128  1.7740  0.5598
31752SOL    HW2 4035  10.689   1.805   0.407 -0.1601  0.3993 -1.7771
31753SOL     OW 4036  10.496   3.583  12.500 -0.8491 -0.3094  0.1083
31753SOL    HW1 4037  10.468   3.566  12.410 -1.2822 -0.6439  0.3013
31753SOL    HW2 4038  10.450   3.516  12.552 -1.7267  0.7687  0.7589
31754SOL     OW 4039   4.704  11.271   9.420 -0.4883 -0.5080 -0.0650
31754SOL    HW1 4040   4.745  11.350   9.383  0.2631 -0.9047 -0.0900
31754SOL    HW2 4041   4.684  11.295   9.510  1.8937 -1.0264  0.6648
31755SOL     OW 4042   1.197   2.723   9.266  0.2570  0.4304  0.4585
31755SOL    HW1 4043   1.273   2.677   9.301 -0.7574 -0.4076  1.6198
31755SOL    HW2 4044   1.145   2.746   9.343 -0.1494  1.9735 -0.2271
31756SOL     OW 4045   0.600   8.620   1.768  0.0685 -0.3490 -0.3643
31756SOL    HW1 4046   0.649   8.589   1.844 -0.1395  1.1913  0.4392
31756SOL    HW2 4047   0.666   8.629   1.699  0.5237 -0.4064  0.0554
31757SOL     OW 4048   8.818   2.985   4.070 -0.5486  0.0989  0.2737
31757SOL    HW1 4049   8.914   2.978   4.070 -0.3341  2.0347 -1.3062
31757SOL    HW2 4050   8.799   3.048   4.140 -0.5180  0.7141 -0.2555
31758SOL     OW 4051  12.445   3.191   7.532 -0.2511 -0.5371  0.0292
31758SOL    HW1 4052  12.451   3.102   7.499 -0.9036 -1.3037  1.8620
31758SOL    HW2 4053  12.529   3.206   7.575  0.8978  0.7272 -2.4342
31759SOL     OW 4054   2.576   7.022   2.434  0.2371 -0.0804  0.1570
31759SOL    HW1 4055   2.535   6.956   2.491  1.2286 -0.3002  0.6424
31759SOL    HW2 4056   2.653   6.977   2.398  1.4674  1.0809  1.2353
31760SOL     OW 4057  11.249   2.578  12.126 -0.0367  0.4139  0.2467
31760SOL    HW1 4058  11.326   2.590  12.182  0.3343 -1.8606  0.3528
31760SOL    HW2 4059  11.188   2.646  12.153  1.1759  1.0235  1.5744
31761SOL     OW 4060   6.777  12.072   7.448 -0.2137  0.5910  0.6127
31761SOL    HW1 4061   6.866  12.096   7.422  0.3901 -1.4222  0.6806
31761SOL    HW2 4062   6.784  11.983   7.482 -2.2406  0.4176  0.7429
31762SOL     OW 4063   1.665  11.153   5.305 -0.3043  0.0279  0.4153
31762SOL    HW1 4064   1.678  11.060   5.283  0.1186 -0.4555  2.4736
31762SOL    HW2 4065   1.664  11.197   5.220 -0.6039 -1.8593 -0.6385
31763SOL     OW 4066   3.492  10.044   7.801 -0.3539  0.4236 -0.7908
31763SOL    HW1 4067   3.476   9.963   7.752  1.1663 -0.0894 -0.4775
31763SOL    HW2 4068   3.582  10.037   7.831 -0.3503  2.0321 -0.3341
31764SOL     OW 4069   5.873   1.215   3.977  0.2607  0.4297  0.7739
31764SOL    HW1 4070   5.808   1.272   4.017  1.1909  1.7696  0.4717
31764SOL    HW2 4071   5.884   1.250   3.888 -2.3354 -2.9251 -1.0986
31765SOL     OW 4072   0.756   9.957  10.453  0.2174  0.6751  0.2247
31765SOL    HW1 4073   0.849   9.968  10.433  0.3494  0.7771  0.8925
31765SOL    HW2 4074   0.748   9.867  10.484 -0.3311 -0.1933 -2.1509
31766SOL     OW 4075   5.429   8.015  11.492 -0.2365 -0.0225 -0.1335
31766SOL    HW1 4076   5.345   8.012  11.539  0.0992  0.0041  0.4704
31766SOL    HW2 4077   5.441   7.926  11.459 -0.3140 -0.1234  0.1096
31767SOL     OW 4078  10.423  12.358   3.265 -0.0750 -0.0499  0.3581
31767SOL    HW1 4079  10.519  12.358   3.263 -0.0430  1.5897  0.8529
31767SOL    HW2 4080  10.399  12.450   3.276 -1.6628 -0.5926  1.9841
31768SOL     OW 4081   4.548   5.811   0.185 -0.1174 -0.3136 -0.2698
31768SOL    HW1 4082   4.622   5.797   0.244  1.3033  0.6048 -1.7478
31768SOL    HW2 4083   4.574   5.769   0.103 -1.3337 -0.1578 -0.7592
31769SOL     OW 4084   8.615   1.402  12.117  0.0834  0.5862  0.3641
31769SOL    HW1 4085   8.556   1.400  12.042 -0.4061  0.2959  0.7486
31769SOL    HW2 4086   8.580   1.336  12.177  1.2763 -0.1534  0.2536
31770SOL     OW 4087   4.234   2.197   9.565 -0.4502  0.6395  0.3570
31770SOL    HW1 4088   4.304   2.217   9.627 -0.3118  1.6287 -0.0919
31770SOL    HW2 4089   4.271   2.219   9.479 -0.7381 -0.4316 -0.0535
31771SOL     OW 4090   9.708   0.123   4.415  0.2384  0.5094 -0.1752
31771SOL    HW1 4091   9.720   0.042   4.465  2.2853  0.9299  0.1143
31771SOL    HW2 4092   9.694   0.094   4.325 -3.4483 -0.2636  0.5074
31772SOL     OW 4093   1.919   0.193  11.471 -0.0056 -0.0104  1.0337
31772SOL    HW1 4094   1.977   0.264  11.500  0.4481 -1.2608  3.5045
31772SOL    HW2 4095   1.976   0.116  11.468 -0.5579 -0.3968 -1.3179
31773SOL     OW 4096  10.974  10.175   4.836 -0.2989 -0.5610  0.1916
31773SOL    HW1 4097  11.004  10.224   4.912 -0.0901  0.7551 -0.6999
31773SOL    HW2 4098  10.932  10.241   4.780 -1.1070 -1.6207 -0.5013
31774SOL     OW 4099   9.651   1.852   5.912 -0.3108 -0.2509 -0.3673
31774SOL    HW1 4100   9.668   1.921   5.848  0.5783 -1.3559 -1.3522
31774SOL    HW2 4101   9.645   1.899   5.996 -1.1103  1.1677 -1.1773
31775SOL     OW 4102   8.886   6.922   1.601  0.1493  0.3482  0.3753
31775SOL    HW1 4103   8.833   6.843   1.610  0.6505 -0.2132 -1.2021
31775SOL    HW2 4104   8.904   6.950   1.691  0.2074 -1.4980  0.9821
31776SOL     OW 4105   5.407   3.660   7.776 -0.0056  0.3287  0.6687
31776SOL    HW1 4106   5.375   3.749   7.763  0.8393  0.4941 -0.4747
31776SOL    HW2 4107   5.329   3.605   7.774 -0.4930  0.9977  0.9703
31777SOL     OW 4108   6.119  10.550  10.163  0.3465 -0.1956 -0.2663
31777SOL    HW1 4109   6.147  10.618  10.102 -2.2089  0.2520 -1.0382
31777SOL    HW2 4110   6.158  10.469  10.127  1.6867  0.5237 -0.5066
31778SOL     OW 4111  11.574   8.783   1.990 -0.1244 -0.0632 -0.5927
31778SOL    HW1 4112  11.580   8.734   1.908  2.4908 -0.8738 -0.0207
31778SOL    HW2 4113  11.590   8.874   1.965 -2.9859  0.3106 -1.3897
31779SOL     OW 4114  12.292   5.493  12.418 -0.3532 -0.1172  0.2698
31779SOL    HW1 4115  12.242   5.411  12.408  0.9074 -1.4208  3.3015
31779SOL    HW2 4116  12.227   5.556  12.450 -1.4712  0.3452 -2.6562
31780SOL     OW 4117   2.866   4.742   8.875 -0.0619 -0.4486  0.0870
31780SOL    HW1 4118   2.870   4.658   8.830 -1.7700 -1.2648  1.3624
31780SOL    HW2 4119   2.775   4.750   8.904 -0.1148  2.1416 -0.5290
31781SOL     OW 4120   3.060   6.675   8.380  0.0331 -0.3423 -0.1188
31781SOL    HW1 4121   3.070   6.610   8.311  0.2864 -1.0947  0.6029
31781SOL    HW2 4122   3.033   6.755   8.335 -0.5897 -1.0288 -0.9927
31782SOL     OW 4123  11.726   9.121   1.570 -0.0150 -0.2937  0.1700
31782SOL    HW1 4124  11.795   9.159   1.624 -0.6287  0.3559  0.5015
31782SOL    HW2 4125  11.733   9.166   1.486  0.6047 -0.9398 -0.1366
31783SOL     OW 4126  12.435   6.107   3.238  0.5274 -0.1450 -0.4022
31783SOL    HW1 4127  12.396   6.019   3.236 -2.0260  0.9000 -0.7139
31783SOL    HW2 4128  12.405   6.148   3.157 -0.3832  1.7892  0.8536
31784SOL     OW 4129   7.406  11.739   7.756  0.5918 -0.0235  0.3221
31784SOL    HW1 4130   7.366  11.690   7.684  0.9295 -1.4723  1.0868
31784SOL    HW2 4131   7.482  11.782   7.716 -0.4540  0.9925 -0.6521
31785SOL     OW 4132   2.517   1.556   1.098 -0.2515 -0.2087  0.0932
31785SOL    HW1 4133   2.572   1.620   1.052 -1.1102  0.6534  0.2357
31785SOL    HW2 4134   2.550   1.471   1.069  1.8999  0.2364  1.0551
31786SOL     OW 4135   8.990   4.756   7.415  0.2928  0.4955 -0.2205
31786SOL    HW1 4136   8.920   4.783   7.354 -1.5919 -2.2063  0.5771
31786SOL    HW2 4137   8.948   4.756   7.501  1.7010  0.1242  0.4878
31787SOL     OW 4138   9.102   4.539   2.033 -0.2176 -0.4168  0.1692
31787SOL    HW1 4139   9.155   4.605   1.989 -0.6674  0.5758  1.0655
31787SOL    HW2 4140   9.066   4.485   1.962  1.9069 -1.0904 -0.4601
31788SOL     OW 4141   4.391   1.204   2.748  0.2783 -0.1469  0.8983
31788SOL    HW1 4142   4.407   1.162   2.663 -0.6577 -1.5142  1.3595
31788SOL    HW2 4143   4.477   1.208   2.789  0.6395 -0.0982  0.1602
31789SOL     OW 4144   3.365   0.216  10.648 -0.1605 -0.6309 -0.1482
31789SOL    HW1 4145   3.291   0.253  10.697  0.3768  1.5261 -0.8481
31789SOL    HW2 4146   3.363   0.262  10.564  1.7193 -0.8319 -0.3425
31790SOL     OW 4147   5.217   5.053  10.257 -0.2842 -0.0709  0.3058
31790SOL    HW1 4148   5.257   5.109  10.191 -1.6189  1.6635  0.9022
31790SOL    HW2 4149   5.126   5.045  10.229 -0.2677 -1.4720  0.5770
31791SOL     OW 4150   9.718   8.798  10.919 -0.5039 -0.3515 -0.0652
31791SOL    HW1 4151   9.790   8.848  10.882 -0.7009 -0.9222 -1.2572
31791SOL    HW2 4152   9.640   8.848  10.897 -0.5446 -0.1276  0.5617
31792SOL     OW 4153   1.896   8.114   8.393 -0.0095 -0.3474 -0.0210
31792SOL    HW1 4154   1.865   8.043   8.449 -1.7397  1.4194  1.4268
31792SOL    HW2 4155   1.971   8.150   8.440 -2.2661  1.9999  2.0828
31793SOL     OW 4156  11.369  11.873   4.562 -0.1499  0.5509  0.0983
31793SOL    HW1 4157  11.274  11.860   4.556  0.1145 -1.6427 -0.3958
31793SOL    HW2 4158  11.382  11.963   4.534 -2.1826  1.3803  1.5042
31794SOL     OW 4159  11.119   6.102   3.659  0.3504  0.2496  0.5472
31794SOL    HW1 4160  11.114   6.119   3.753 -0.5864 -1.8960  0.9324
31794SOL    HW2 4161  11.179   6.028   3.652  0.6562  0.5974 -0.5824
31795SOL     OW 4162   0.805   3.890   9.981 -0.0919 -0.0904  0.2635
31795SOL    HW1 4163   0.810   3.942   9.901  1.3069  0.2739  0.5665
31795SOL    HW2 4164   0.761   3.809   9.954 -0.6757  0.5045 -0.6020
31796SOL     OW 4165  12.270   7.715   8.134  0.3515 -0.4191 -0.5190
31796SOL    HW1 4166  12.250   7.623   8.124 -2.1931  0.0028  0.1213
31796SOL    HW2 4167  12.258   7.733   8.227  0.0761  0.7109 -0.7521
31797SOL     OW 4168   7.357   4.846   2.239 -0.5502  0.2321  0.3056
31797SOL    HW1 4169   7.400   4.809   2.162 -1.5535  0.1927 -0.2510
31797SOL    HW2 4170   7.325   4.931   2.210 -1.7079 -0.1511  0.4009
31798SOL     OW 4171  11.379   7.862   9.901 -0.2858  0.1861  0.3181
31798SOL    HW1 4172  11.373   7.794   9.968  0.2695  0.4807  0.6727
31798SOL    HW2 4173  11.471   7.860   9.874 -0.2399  0.8826  0.4242
31799SOL     OW 4174   5.162   3.111   1.945  0.3768  0.2039 -0.7587
31799SOL    HW1 4175   5.075   3.109   1.906 -0.4054  0.2507  0.8852
31799SOL    HW2 4176   5.174   3.023   1.981  0.5660  0.5034 -0.0695
31800SOL     OW 4177   8.066  12.516  11.282  0.4135 -0.9317  0.0426
31800SOL    HW1 4178   8.119  12.566  11.344 -2.0896  2.2962 -0.1392
31800SOL    HW2 4179   8.101  12.539  11.196 -0.2900  0.0374 -0.0030
31801SOL     OW 4180   5.185   2.624  10.376 -0.8680 -0.1524  0.5561
31801SOL    HW1 4181   5.165   2.551  10.317 -0.8204 -0.0212  0.3760
31801SOL    HW2 4182   5.265   2.596  10.422 -0.1214  0.3006 -0.4176
31802SOL     OW 4183   3.434   3.856   7.397  0.0198  0.2153 -0.6083
31802SOL    HW1 4184   3.408   3.944   7.370 -1.8212 -0.0672  0.1533
31802SOL    HW2 4185   3.448   3.863   7.491 -1.1285 -0.4992 -0.3642
31803SOL     OW 4186   9.406  11.593   2.772  0.6311 -0.1510  0.0911
31803SOL    HW1 4187   9.493  11.592   2.813  0.7883 -1.2125 -0.2324
31803SOL    HW2 4188   9.425  11.591   2.678  0.2593  1.2332 -0.0380
31804SOL     OW 4189   1.009   1.242   9.235 -0.5551 -0.6542  0.0457
31804SOL    HW1 4190   0.980   1.298   9.164 -0.3061 -1.5692 -0.8032
31804SOL    HW2 4191   1.095   1.275   9.259 -0.1583 -1.0128 -0.8432
31805SOL     OW 4192   6.152  12.172   3.857  0.2604  0.2340  0.2234
31805SOL    HW1 4193   6.102  12.223   3.920 -1.0044  0.5449 -0.9767
31805SOL    HW2 4194   6.223  12.229   3.830  0.7498  0.1363  1.2691
31806SOL     OW 4195   0.131   4.182  11.141  0.1038 -0.1508  0.4094
31806SOL    HW1 4196   0.189   4.114  11.107 -1.2181 -0.9190 -0.4390
31806SOL    HW2 4197   0.068   4.134  11.195 -0.7067  0.4177 -0.0138
31807SOL     OW 4198   9.868   3.383   1.543 -0.2056 -0.1323 -0.2679
31807SOL    HW1 4199   9.916   3.466   1.547 -1.7700  0.7549  1.7871
31807SOL    HW2 4200   9.935   3.316   1.557  0.9655  0.8045 -1.1691
31808SOL     OW 4201  10.991   4.378   6.769 -0.5322  0.2843 -0.2861
31808SOL    HW1 4202  10.941   4.300   6.793  0.2097 -0.1088 -0.0046
31808SOL    HW2 4203  10.951   4.407   6.687 -0.5751 -0.6212 -0.6042
31809SOL     OW 4204   6.059   0.819  10.852  0.0449 -0.0429  0.8386
31809SOL    HW1 4205   6.131   0.872  10.816  0.9634 -1.9375 -0.2512
31809SOL    HW2 4206   5.980   0.859  10.816  0.6475  1.0112  0.6276
31810SOL     OW 4207   6.098  11.078   1.955 -0.1319 -0.0709  0.2861
31810SOL    HW1 4208   6.047  11.135   1.897  2.0828 -0.3712 -2.1517
31810SOL    HW2 4209   6.073  10.990   1.929  0.5885 -0.2084  0.0384
31811SOL     OW 4210   8.450   1.208   0.185  0.4619 -0.4643  0.6246
31811SOL    HW1 4211   8.515   1.278   0.180  0.2747 -0.2190  1.4913
31811SOL    HW2 4212   8.473   1.159   0.264 -1.2275  0.4909  1.7805
31812SOL     OW 4213   7.590   0.193   5.151 -0.0026 -0.7658  0.0565
31812SOL    HW1 4214   7.604   0.102   5.177 -0.7181 -0.9939 -0.3241
31812SOL    HW2 4215   7.516   0.190   5.090 -0.8490  0.2089  0.9899
31813SOL     OW 4216   0.003   4.160   4.071 -0.3937  0.2017 -0.5423
31813SOL    HW1 4217   0.037   4.241   4.032 -0.3527  0.3505 -0.2005
31813SOL    HW2 4218   0.034   4.162   4.161 -2.9751  1.3611  0.4247
31814SOL     OW 4219   6.228   1.878   8.866  0.0208  0.2758 -0.2446
31814SOL    HW1 4220   6.182   1.854   8.946 -0.9797  0.1744 -0.8279
31814SOL    HW2 4221   6.207   1.971   8.853  0.4306  0.3719 -0.2222
31815SOL     OW 4222  12.229  10.504  12.508 -0.0855  0.2948 -0.0466
31815SOL    HW1 4223  12.135  10.489  12.504 -0.5296  2.2597  1.1941
31815SOL    HW2 4224  12.244  10.538  12.597  1.5979  1.1493 -0.6113
31816SOL     OW 4225   8.835   1.014  10.933 -0.3619  0.1502  0.6405
31816SOL    HW1 4226   8.791   1.087  10.975 -1.8168  0.4993 -1.3460
31816SOL    HW2 4227   8.927   1.039  10.932 -0.5852  1.0996  1.5936
31817SOL     OW 4228   9.405   7.071   7.640  0.0772 -0.4677 -0.2248
31817SOL    HW1 4229   9.434   7.053   7.730  0.8612  0.8789 -0.1728
31817SOL    HW2 4230   9.342   7.002   7.621  0.0388 -0.8985  1.2933
31818SOL     OW 4231   6.064   8.668   7.550  0.3251  0.0158  0.0208
31818SOL    HW1 4232   6.083   8.621   7.631 -1.9385 -0.6225  0.2418
31818SOL    HW2 4233   6.069   8.601   7.482 -1.9888 -0.4192  0.2183
31819SOL     OW 4234   7.778   8.747  11.547  0.0153 -0.5621  0.2662
31819SOL    HW1 4235   7.771   8.841  11.532  1.0031 -0.5489 -0.1640
31819SOL    HW2 4236   7.839   8.739  11.620 -0.0569 -0.8735  0.2932
31820SOL     OW 4237   3.263   4.974   7.082  0.0545  0.1944  0.2651
31820SOL    HW1 4238   3.170   4.958   7.096  0.1342  0.7538  1.5064
31820SOL    HW2 4239   3.267   5.061   7.042 -0.1603 -1.3175 -3.4876
31821SOL     OW 4240  11.419   1.898   6.612  0.4611  0.0034  0.0175
31821SOL    HW1 4241  11.441   1.991   6.610  0.6172 -0.0366 -1.2715
31821SOL    HW2 4242  11.388   1.879   6.523 -0.0074 -1.0725  0.3924
31822SOL     OW 4243   4.524   4.978   6.081  0.0895 -0.0510 -0.2483
31822SOL    HW1 4244   4.483   4.896   6.055  0.7943 -0.5419  0.1548
31822SOL    HW2 4245   4.617   4.966   6.064  0.6563 -0.5169  2.6068
31823SOL     OW 4246  10.624   6.295   7.198 -0.4990 -0.3953 -0.2262
31823SOL    HW1 4247  10.692   6.333   7.254 -1.5996  0.2572  0.7271
31823SOL    HW2 4248  10.544   6.301   7.250 -1.1743 -1.7908 -1.0393
31824SOL     OW 4249   1.229   3.626  10.647 -0.0973 -0.1711 -0.2108
31824SOL    HW1 4250   1.137   3.603  10.660  0.4578 -2.1814  0.5833
31824SOL    HW2 4251   1.269   3.546  10.612  1.4053  0.5835 -0.3107
31825SOL     OW 4252   5.291   7.949   6.700  0.2345 -0.3047 -0.1878
31825SOL    HW1 4253   5.268   7.984   6.614  0.9446 -0.4664 -0.4478
31825SOL    HW2 4254   5.387   7.953   6.703  0.1981  1.9960  1.5325
31826SOL     OW 4255   1.083   0.652   6.551 -0.4023  0.3092  0.0779
31826SOL    HW1 4256   1.177   0.657   6.568 -0.6037 -2.3196  2.7052
31826SOL    HW2 4257   1.047   0.728   6.596  0.3038  0.4514  0.4221
31827SOL     OW 4258   0.718   5.593   5.969  0.0992  0.3019  0.0025
31827SOL    HW1 4259   0.787   5.527   5.979  0.1158  0.5594  2.0520
31827SOL    HW2 4260   0.760   5.675   5.994 -0.5197  0.7460 -0.3966
31828SOL     OW 4261   2.731   1.458   7.203 -0.4507 -0.1923  0.5465
31828SOL    HW1 4262   2.680   1.536   7.222 -0.2044  0.4590 -1.2570
31828SOL    HW2 4263   2.703   1.431   7.115  1.8487 -0.1307 -0.2847
31829SOL     OW 4264   9.351  12.577   2.811 -0.6643  0.1409 -0.2161
31829SOL    HW1 4265   9.318  12.651   2.760 -1.0919 -0.0259 -0.1833
31829SOL    HW2 4266   9.320  12.593   2.900  0.7283  0.8339  0.1744
31830SOL     OW 4267   4.973   1.391   1.805  0.0356 -0.0251  0.0541
31830SOL    HW1 4268   4.885   1.422   1.787  1.0879  2.3651 -1.5413
31830SOL    HW2 4269   4.994   1.334   1.731 -0.5726 -1.6860  1.1042
31831SOL     OW 4270   8.898  10.449   2.147 -0.1460  0.4611  0.1448
31831SOL    HW1 4271   8.851  10.476   2.068 -0.4882 -0.6091 -0.0356
31831SOL    HW2 4272   8.852  10.371   2.177  0.3772  0.4852  1.0435
31832SOL     OW 4273   0.775   3.576   0.367 -0.2715  0.0414 -0.3309
31832SOL    HW1 4274   0.843   3.533   0.315  0.1042 -0.3703  0.4885
31832SOL    HW2 4275   0.693   3.548   0.327  0.0059 -0.4419 -0.5688
31833SOL     OW 4276   3.458   2.987   5.991 -0.3472  0.1569 -0.6001
31833SOL    HW1 4277   3.419   2.931   5.925 -2.0922 -0.3589  0.7946
31833SOL    HW2 4278   3.532   2.937   6.025 -2.2022 -1.6745  1.0144
31834SOL     OW 4279  11.980  11.894  10.791  0.8522 -0.1294 -0.1581
31834SOL    HW1 4280  11.924  11.817  10.793  0.3767  0.1869 -0.9389
31834SOL    HW2 4281  12.026  11.893  10.876  0.1091 -0.7074  0.2465
31835SOL     OW 4282  11.848   8.274   5.786 -0.4979 -0.0835  0.0187
31835SOL    HW1 4283  11.889   8.361   5.785  0.3733 -0.4732  0.9595
31835SOL    HW2 4284  11.800   8.271   5.869  0.1607 -0.8109  0.3792
31836SOL     OW 4285   7.443  10.389   1.208 -0.1283  0.0681 -0.0983
31836SOL    HW1 4286   7.348  10.394   1.213 -0.2079 -2.0176  1.8993
31836SOL    HW2 4287   7.460  10.317   1.147 -0.0334 -2.6865  2.9624
31837SOL     OW 4288   0.870  10.173   0.661 -0.2403  0.2444 -0.2659
31837SOL    HW1 4289   0.928  10.177   0.737 -0.1457 -2.8090 -0.0387
31837SOL    HW2 4290   0.821  10.256   0.663  1.7210  1.4531  1.4533
31838SOL     OW 4291   5.398   2.242   6.756  0.2725 -0.0530  0.3851
31838SOL    HW1 4292   5.455   2.165   6.761  0.5884  0.1771  0.3510
31838SOL    HW2 4293   5.435   2.303   6.821 -0.4084 -0.2153  0.9368
31839SOL     OW 4294  11.828  11.314   3.863 -0.1408  0.0920 -0.0030
31839SOL    HW1 4295  11.849  11.326   3.771  3.4612 -0.7380  0.5756
31839SOL    HW2 4296  11.818  11.403   3.898 -0.8353  0.4192 -0.9887
31840SOL     OW 4297   2.597  11.575   6.566 -0.3421 -0.0835  0.0131
31840SOL    HW1 4298   2.606  11.603   6.657 -0.9693  0.4518 -0.0801
31840SOL    HW2 4299   2.625  11.483   6.566 -2.8123 -0.9478  1.2753
31841SOL     OW 4300  10.658   0.867   8.471 -0.3351 -0.1550 -0.6514
31841SOL    HW1 4301  10.693   0.946   8.514  0.3188 -1.3863  1.2040
31841SOL    HW2 4302  10.564   0.880   8.472 -0.1923  1.2969 -1.8365
31842SOL     OW 4303   8.299   2.489   2.592  0.5696  0.0264 -0.0032
31842SOL    HW1 4304   8.307   2.395   2.572  2.5634 -0.1118  1.1605
31842SOL    HW2 4305   8.373   2.507   2.650 -1.4707  1.6573  2.3301
31843SOL     OW 4306  11.454   3.669  11.038 -0.5639 -0.2139  0.1029
31843SOL    HW1 4307  11.458   3.605  11.109 -0.1103 -1.9001 -1.3575
31843SOL    HW2 4308  11.465   3.754  11.081  2.1718 -1.2861  1.7999
31844SOL     OW 4309   6.458   5.052  10.565 -0.0529 -0.8518 -0.0090
31844SOL    HW1 4310   6.440   5.143  10.539 -0.8726 -1.2891 -1.0528
31844SOL    HW2 4311   6.502   5.060  10.650  3.1521  0.6600 -1.6330
31845SOL     OW 4312   1.476   1.187   7.432  0.8148  0.2303  0.0780
31845SOL    HW1 4313   1.440   1.156   7.515 -1.4203  0.9500 -0.5616
31845SOL    HW2 4314   1.481   1.109   7.378  0.1328  0.1323  0.1543
31846SOL     OW 4315   3.921   3.175   4.148 -0.2046 -0.5026 -0.0770
31846SOL    HW1 4316   3.996   3.224   4.113 -0.1532 -2.3180 -2.8522
31846SOL    HW2 4317   3.926   3.188   4.243  2.6490  0.7835 -0.2891
31847SOL     OW 4318   9.983   4.043   0.184  0.2375 -0.4895  0.3488
31847SOL    HW1 4319  10.005   3.991   0.106 -1.0474 -0.0449 -0.3357
31847SOL    HW2 4320  10.042   4.010   0.252  0.2724 -2.0244 -0.3772
31848SOL     OW 4321   2.219   8.398   0.348  0.1454  0.2764  0.1988
31848SOL    HW1 4322   2.215   8.309   0.315 -0.2049  0.5213 -0.4404
31848SOL    HW2 4323   2.310   8.424   0.336 -0.0980  0.5630 -1.1500
31849SOL     OW 4324   6.940   8.262  11.531 -0.3603 -0.7090 -0.0025
31849SOL    HW1 4325   6.998   8.209  11.476 -1.8688 -1.5682 -0.8498
31849SOL    HW2 4326   6.920   8.339  11.477 -0.3982 -0.6645  0.0749
31850SOL     OW 4327   1.109   2.817   0.147 -0.0175 -0.2215  0.0200
31850SOL    HW1 4328   1.106   2.751   0.217 -2.0875 -0.7377 -0.4792
31850SOL    HW2 4329   1.104   2.766   0.066 -0.3151  0.4932 -0.4151
31851SOL     OW 4330   4.510  10.923   8.703  0.2321 -0.3236  0.3779
31851SOL    HW1 4331   4.500  10.875   8.621  1.4939  0.0271 -0.0176
31851SOL    HW2 4332   4.422  10.930   8.739 -0.3191 -0.6259 -0.8730
31852SOL     OW 4333   8.879  12.561  11.303 -0.1098  0.3860  0.0960
31852SOL    HW1 4334   8.902  12.469  11.318  1.4687  0.6698 -0.4338
31852SOL    HW2 4335   8.809  12.578  11.366 -1.0441 -1.4082 -0.3812
31853SOL     OW 4336   7.314   5.435  12.010  0.0841 -0.1916  0.0399
31853SOL    HW1 4337   7.271   5.429  11.924  1.8676  0.1170 -0.9176
31853SOL    HW2 4338   7.363   5.516  12.007  0.6528 -0.4716  1.1478
31854SOL     OW 4339   3.913   5.873  11.694  0.0429  0.9281 -0.0880
31854SOL    HW1 4340   3.838   5.920  11.730 -1.1312  0.7331 -2.1469
31854SOL    HW2 4341   3.917   5.792  11.744  0.3432  1.9282  1.5899
31855SOL     OW 4342  11.235   8.435  10.471  0.0830 -0.3719  0.1887
31855SOL    HW1 4343  11.317   8.412  10.516 -0.1224 -0.2026  0.6483
31855SOL    HW2 4344  11.213   8.356  10.421  0.2678 -0.5904  0.4479
31856SOL     OW 4345  10.123   1.933   1.180 -0.1257 -0.4359 -0.9624
31856SOL    HW1 4346  10.172   1.927   1.098  0.3203 -0.3655 -0.7062
31856SOL    HW2 4347  10.148   2.018   1.216 -1.0047 -0.0681 -1.1767
31857SOL     OW 4348  10.507   2.634   7.339  0.5846  0.4480 -0.0308
31857SOL    HW1 4349  10.588   2.659   7.384 -0.4834  0.8922  1.7671
31857SOL    HW2 4350  10.486   2.548   7.374 -1.1648  1.5048  1.7754
31858SOL     OW 4351   5.632   4.365   5.499 -0.0626  1.3041 -0.1930
31858SOL    HW1 4352   5.562   4.300   5.497  1.4633 -0.4841  1.0428
31858SOL    HW2 4353   5.619   4.412   5.582 -1.1537  2.6690 -1.0764
31859SOL     OW 4354   0.533   7.949  12.344  0.7385  0.0504 -0.6235
31859SOL    HW1 4355   0.438   7.959  12.335  0.5726  0.5696  1.2586
31859SOL    HW2 4356   0.562   7.914  12.259 -1.4231 -2.3141 -0.5152
31860SOL     OW 4357   4.879   6.496  10.520  0.2005  0.8676  0.5067
31860SOL    HW1 4358   4.858   6.585  10.549  2.4218  2.9153 -3.4094
31860SOL    HW2 4359   4.958   6.473  10.570 -0.0600  1.2836  1.1267
31861SOL     OW 4360   3.739   3.714   2.213 -0.0443 -0.1801  0.8615
31861SOL    HW1 4361   3.820   3.762   2.231 -0.7481  0.6040  2.0514
31861SOL    HW2 4362   3.701   3.760   2.137  1.1384 -1.2464 -0.4304
31862SOL     OW 4363   4.510  11.705  12.248 -0.1444  0.4172  0.5643
31862SOL    HW1 4364   4.506  11.770  12.178 -0.3293  0.3452  0.5070
31862SOL    HW2 4365   4.421  11.670  12.253 -0.0200  0.0939  0.5220
31863SOL     OW 4366   0.279   9.417   6.866  0.0894 -0.2588 -0.1277
31863SOL    HW1 4367   0.348   9.350   6.862 -0.6204 -0.9472 -2.8952
31863SOL    HW2 4368   0.323   9.498   6.838 -0.1438 -0.6749 -1.7861
31864SOL     OW 4369   1.849   2.541  10.880  0.0052 -0.0584 -0.2069
31864SOL    HW1 4370   1.846   2.453  10.916 -1.8433 -0.7494 -1.8911
31864SOL    HW2 4371   1.927   2.543  10.826  0.1718 -0.5838  0.0152
31865SOL     OW 4372   7.023   5.726   7.756 -0.0289  0.2573  0.4226
31865SOL    HW1 4373   7.109   5.727   7.713 -0.6678 -0.4741 -0.9383
31865SOL    HW2 4374   7.002   5.818   7.771  0.9788  0.4432  0.7444
31866SOL     OW 4375   0.308   6.518  10.468 -0.7585  0.2800 -0.2037
31866SOL    HW1 4376   0.395   6.544  10.497 -0.5478 -0.1028 -0.4735
31866SOL    HW2 4377   0.276   6.458  10.536 -0.2140 -0.7160 -0.7957
31867SOL     OW 4378   7.271   7.417   7.003 -0.7454 -0.4855 -0.4954
31867SOL    HW1 4379   7.276   7.349   6.935 -3.8513  0.2862 -1.6739
31867SOL    HW2 4380   7.202   7.386   7.062 -0.2856  0.3640  0.5028
31868SOL     OW 4381   2.780   2.742   4.248 -0.0309  0.1225  0.1879
31868SOL    HW1 4382   2.786   2.674   4.181  1.2609  2.1913 -1.9756
31868SOL    HW2 4383   2.694   2.730   4.287 -0.3827 -1.8838 -1.0698
31869SOL     OW 4384   6.428  11.784   5.767  0.1216  0.5591  0.4325
31869SOL    HW1 4385   6.451  11.692   5.777 -0.0645  0.4371 -0.1831
31869SOL    HW2 4386   6.416  11.816   5.856  0.2168 -0.0056  0.6513
31870SOL     OW 4387   3.818   6.658   9.652 -0.3697 -0.2208  0.1846
31870SOL    HW1 4388   3.828   6.622   9.740  0.3269 -0.7371 -0.0940
31870SOL    HW2 4389   3.778   6.587   9.601 -0.4664 -0.0424  0.0124
31871SOL     OW 4390   8.304   1.697   6.702 -0.4705  0.0811  0.4947
31871SOL    HW1 4391   8.370   1.748   6.653  0.0630 -1.3355 -0.3160
31871SOL    HW2 4392   8.229   1.756   6.709  0.3169  1.1723  0.0447
31872SOL     OW 4393  12.084   6.449   0.443  0.5167  0.0786  0.1512
31872SOL    HW1 4394  12.072   6.453   0.348  0.7054  0.3947  0.1388
31872SOL    HW2 4395  12.000   6.419   0.476  0.6277 -0.5851 -0.1595
31873SOL     OW 4396   7.791   1.643   5.702 -0.0374  0.1309  0.0610
31873SOL    HW1 4397   7.708   1.675   5.666  0.8121  2.9358  0.3403
31873SOL    HW2 4398   7.799   1.688   5.787  1.5911 -0.3645  0.2068
31874SOL     OW 4399   6.350   7.265  10.426 -0.1950 -0.3585 -0.2577
31874SOL    HW1 4400   6.376   7.185  10.472 -1.0678 -0.3071  0.3559
31874SOL    HW2 4401   6.386   7.255  10.338 -2.9877 -2.9584 -1.2818
31875SOL     OW 4402  11.618   4.701   5.490  0.1936  0.4425  0.3514
31875SOL    HW1 4403  11.611   4.745   5.574  0.9380  1.9397 -0.3494
31875SOL    HW2 4404  11.561   4.751   5.431  0.7764  0.2673 -0.3789
31876SOL     OW 4405   0.301   5.115   0.353  0.2720 -0.0832 -0.1313
31876SOL    HW1 4406   0.257   5.068   0.283  0.2165  0.7380 -0.6558
31876SOL    HW2 4407   0.370   5.055   0.383 -0.4198 -0.8814 -0.1189
31877SOL     OW 4408   2.200  11.349   9.087  0.4375 -0.0126  0.3168
31877SOL    HW1 4409   2.127  11.313   9.036  0.7369  0.1227 -0.2145
31877SOL    HW2 4410   2.174  11.439   9.105 -0.4795 -0.5631  1.9637
31878SOL     OW 4411   6.035  10.371   0.088  0.2452 -0.0775 -0.2368
31878SOL    HW1 4412   6.055  10.423   0.010 -1.6146  1.3204  0.1495
31878SOL    HW2 4413   6.038  10.433   0.160 -0.1610 -0.9061  0.5129
31879SOL     OW 4414   0.388   1.036   6.747  0.1475  0.1782 -0.0652
31879SOL    HW1 4415   0.336   1.115   6.765 -0.9112 -0.3543 -0.6759
31879SOL    HW2 4416   0.323   0.967   6.738  0.9373 -0.4523 -1.2009
31880SOL     OW 4417  10.445   5.539  10.854 -0.0824  0.0277 -0.1232
31880SOL    HW1 4418  10.430   5.526  10.760 -2.7474 -0.5228  0.3150
31880SOL    HW2 4419  10.521   5.485  10.873  0.4134  0.0106 -1.9117
31881SOL     OW 4420   5.414   8.570   9.841  0.4319 -0.1039  1.1177
31881SOL    HW1 4421   5.407   8.641   9.905 -3.0635  0.0538  0.7392
31881SOL    HW2 4422   5.361   8.499   9.878  0.0333 -0.7740 -0.6418
31882SOL     OW 4423   9.895   2.607   3.284 -0.4959  0.1291  0.7458
31882SOL    HW1 4424   9.921   2.638   3.197  0.2776  2.7149  1.7875
31882SOL    HW2 4425   9.953   2.534   3.302 -0.3745 -0.1663 -0.7316
31883SOL     OW 4426  11.115   9.537   9.952 -0.0325  0.0684  0.4109
31883SOL    HW1 4427  11.123   9.442   9.963  0.4592  0.1608  0.9078
31883SOL    HW2 4428  11.197   9.562   9.909  0.3276  0.4096  1.2782
31884SOL     OW 4429   0.199  11.890   2.179  0.2024  0.0613 -0.0851
31884SOL    HW1 4430   0.279  11.934   2.153  0.5456  0.6851  1.8905
31884SOL    HW2 4431   0.221  11.846   2.261 -0.9368 -1.4188 -0.5291
31885SOL     OW 4432  12.490  11.883  11.478  0.0727 -0.0648  0.1566
31885SOL    HW1 4433  12.406  11.837  11.489  0.1587 -0.1251  0.5738
31885SOL    HW2 4434  12.507  11.923  11.563 -0.2872  1.2508 -0.3788
31886SOL     OW 4435   3.088   3.291   7.184  0.5023 -0.0862  0.8530
31886SOL    HW1 4436   3.099   3.318   7.093 -2.5929  0.6171  0.5721
31886SOL    HW2 4437   3.102   3.196   7.183 -1.0764 -0.3582 -0.7576
31887SOL     OW 4438   0.705   1.136   1.816  0.0618 -0.1151 -0.2590
31887SOL    HW1 4439   0.626   1.136   1.871  0.3712  1.8724  0.2688
31887SOL    HW2 4440   0.683   1.194   1.743  0.9384  0.2542 -0.2407
31888SOL     OW 4441   3.408   5.495   8.563 -0.1052  0.5322  0.0336
31888SOL    HW1 4442   3.429   5.533   8.648 -1.3088 -0.1429  0.6461
31888SOL    HW2 4443   3.340   5.552   8.527  0.8446  1.1922 -0.7900
31889SOL     OW 4444   4.287   5.621   2.095 -0.0664 -0.3647 -0.1293
31889SOL    HW1 4445   4.315   5.530   2.088  0.8110 -0.0248 -1.2605
31889SOL    HW2 4446   4.195   5.620   2.070 -0.3709 -1.1000  0.9822
31890SOL     OW 4447   5.782   0.276   7.732  0.4491 -0.0372 -0.3489
31890SOL    HW1 4448   5.860   0.231   7.766  0.6748 -0.6777 -1.6577
31890SOL    HW2 4449   5.784   0.260   7.638 -0.7063  0.8350 -0.5478
31891SOL     OW 4450   1.519   0.528  10.667  0.1922  0.1173 -0.1766
31891SOL    HW1 4451   1.470   0.450  10.696 -0.1935 -1.2107 -3.8368
31891SOL    HW2 4452   1.460   0.601  10.684 -2.1080 -1.1572 -1.9985
31892SOL     OW 4453   6.462  10.201  10.929  0.0735  0.0294 -0.2341
31892SOL    HW1 4454   6.476  10.143  10.854 -3.2238 -1.2874 -0.0149
31892SOL    HW2 4455   6.495  10.286  10.901 -0.8324 -0.4707 -3.1256
31893SOL     OW 4456   5.747  11.267   2.580  0.7470 -0.1409  0.5291
31893SOL    HW1 4457   5.840  11.289   2.583  0.2738  2.1176  2.9926
31893SOL    HW2 4458   5.713  11.297   2.665 -1.8470 -2.8471  0.5976
31894SOL     OW 4459   4.879   7.352   2.607 -0.4433  0.0377 -0.2316
31894SOL    HW1 4460   4.884   7.412   2.532 -1.9609  0.0756 -0.3322
31894SOL    HW2 4461   4.865   7.409   2.683 -0.3715 -0.0974 -0.1169
31895SOL     OW 4462   0.177   8.706  11.843 -0.2882  0.4825 -0.4262
31895SOL    HW1 4463   0.144   8.792  11.817 -0.6739  0.1255 -1.1741
31895SOL    HW2 4464   0.107   8.669  11.897 -1.0120 -0.1302 -1.7201
31896SOL     OW 4465   0.602   5.498  10.203 -0.7788  0.4683 -0.5047
31896SOL    HW1 4466   0.540   5.570  10.191  1.8316  3.2023  0.9610
31896SOL    HW2 4467   0.630   5.506  10.295  0.1717 -2.0293 -0.4934
31897SOL     OW 4468   7.051  12.508   9.011 -0.3505 -0.5475  0.6699
31897SOL    HW1 4469   6.963  12.494   9.045 -1.5844  2.1695 -1.0237
31897SOL    HW2 4470   7.094  12.423   9.017 -3.1944 -2.0455  1.2274
31898SOL     OW 4471   2.628  12.045   1.970 -0.2835 -0.6183  0.0169
31898SOL    HW1 4472   2.592  11.957   1.982 -1.0520 -0.0330  2.5960
31898SOL    HW2 4473   2.702  12.050   2.030 -0.6514  0.6730  0.4071
31899SOL     OW 4474   8.498   6.170   6.563 -0.2030 -0.5753  0.0439
31899SOL    HW1 4475   8.576   6.166   6.507  0.5210 -0.3771  1.0288
31899SOL    HW2 4476   8.428   6.196   6.503  0.6082 -0.1074 -0.7309
31900SOL     OW 4477   7.346   2.865   8.288 -0.5472  0.2932  0.1978
31900SOL    HW1 4478   7.422   2.863   8.346 -0.4871  0.5808  0.1272
31900SOL    HW2 4479   7.271   2.848   8.346 -0.6873  2.2697  0.6775
31901SOL     OW 4480   7.319  10.827   0.286 -0.0584  0.6130 -0.2184
31901SOL    HW1 4481   7.338  10.747   0.335 -0.5189  1.0344  0.6697
31901SOL    HW2 4482   7.352  10.809   0.197 -0.3771 -0.6453 -0.0997
31902SOL     OW 4483   0.934   9.846   3.379  0.0293 -0.2866 -0.4204
31902SOL    HW1 4484   0.970   9.934   3.365 -0.3773 -0.2372 -1.2092
31902SOL    HW2 4485   0.884   9.854   3.460  1.7348 -0.3526  0.7056
31903SOL     OW 4486   0.862   9.544   8.138  0.6890 -0.0203 -0.7810
31903SOL    HW1 4487   0.924   9.592   8.193  1.8511 -1.4580 -0.7720
31903SOL    HW2 4488   0.840   9.605   8.068  0.4758  1.2497  0.3532
31904SOL     OW 4489   5.836  10.340   0.760  0.2404 -0.1252 -0.0694
31904SOL    HW1 4490   5.793  10.321   0.676  2.7711 -2.4737 -1.0160
31904SOL    HW2 4491   5.770  10.319   0.826 -0.9124 -1.1042 -1.4643
31905SOL     OW 4492   6.142   7.266   2.200  0.6339  0.4357 -0.1602
31905SOL    HW1 4493   6.126   7.358   2.180  0.3444  0.5561  0.5910
31905SOL    HW2 4494   6.076   7.244   2.266  2.8533  0.6515  2.2792
31906SOL     OW 4495   0.201   7.716   7.505  0.0571  0.0696 -0.0465
31906SOL    HW1 4496   0.113   7.689   7.482  0.4017 -0.0040 -1.3269
31906SOL    HW2 4497   0.190   7.801   7.549 -0.6627 -0.0819  0.0662
31907SOL     OW 4498   8.500   4.291   9.890  0.4785 -0.2163  0.1891
31907SOL    HW1 4499   8.575   4.304   9.947  0.8207  0.1953 -0.3422
31907SOL    HW2 4500   8.537   4.254   9.810 -0.3189 -3.6570  1.2484
31908SOL     OW 4501   4.890  12.171   7.678  0.2960 -0.7204  0.0221
31908SOL    HW1 4502   4.969  12.157   7.729  0.1063 -0.5602  0.3591
31908SOL    HW2 4503   4.906  12.124   7.596  1.3225  0.4613 -0.4884
31909SOL     OW 4504   2.382  10.650   9.237  0.3296  0.0241  0.1667
31909SOL    HW1 4505   2.321  10.579   9.257  2.1753 -1.1221  2.1146
31909SOL    HW2 4506   2.359  10.720   9.299 -0.0840  0.2956 -0.2809
31910SOL     OW 4507   2.900   8.287   2.601 -0.5746  0.5610  0.3159
31910SOL    HW1 4508   2.806   8.300   2.612 -0.5004  0.8686  0.6160
31910SOL    HW2 4509   2.916   8.299   2.508 -0.9646 -0.3805  0.1139
31911SOL     OW 4510   6.911   0.920   0.401 -0.0899 -0.7411  0.0372
31911SOL    HW1 4511   6.833   0.974   0.393 -0.7582 -1.7459 -0.5182
31911SOL    HW2 4512   6.974   0.960   0.340  1.0268  1.9275  2.6969
31912SOL     OW 4513   5.105   4.364   0.970 -0.9175 -0.0846 -0.6403
31912SOL    HW1 4514   5.031   4.409   1.009 -0.4861  0.0374  0.0700
31912SOL    HW2 4515   5.151   4.431   0.921 -0.9355 -0.0159 -0.5642
31913SOL     OW 4516  10.798   5.116   4.201  0.7058 -0.0481 -0.0600
31913SOL    HW1 4517  10.834   5.191   4.247 -2.0801  0.0897  2.1007
31913SOL    HW2 4518  10.758   5.153   4.122 -0.6849  0.7988  1.0080
31914SOL     OW 4519   6.391   2.742  12.033 -0.9024 -0.0415 -0.0583
31914SOL    HW1 4520   6.440   2.806  12.085 -0.7305 -0.8044  0.7481
31914SOL    HW2 4521   6.374   2.787  11.950 -1.3332  1.2712  0.7043
31915SOL     OW 4522  10.275   7.477   1.743  0.8715  0.0625  0.2377
31915SOL    HW1 4523  10.359   7.493   1.786  1.5366  1.0134 -1.3322
31915SOL    HW2 4524  10.291   7.496   1.651 -0.2841 -2.6958 -0.6258
31916SOL     OW 4525   2.569   0.303   8.898 -0.8276 -0.2541  0.3665
31916SOL    HW1 4526   2.482   0.327   8.865 -0.8545  2.5440  2.1276
31916SOL    HW2 4527   2.557   0.299   8.993  1.0016  0.3936  0.6473
31917SOL     OW 4528   0.150  12.584   5.269 -0.6857  0.3632  0.3193
31917SOL    HW1 4529   0.108  12.633   5.340 -1.8430 -0.6470  0.3525
31917SOL    HW2 4530   0.115  12.496   5.277  1.1716 -0.4433  0.1092
31918SOL     OW 4531   6.242   0.368   2.638 -0.4883  0.0389 -0.2530
31918SOL    HW1 4532   6.319   0.316   2.660  1.0702  2.6062  0.8359
31918SOL    HW2 4533   6.228   0.352   2.545  0.5228 -1.5058 -0.1745
31919SOL     OW 4534  12.345   7.071   0.380 -0.4772  0.0883 -0.0801
31919SOL    HW1 4535  12.316   7.152   0.422  0.0322  0.8137 -1.0740
31919SOL    HW2 4536  12.325   7.002   0.443  1.3340  1.2501  1.8606
31920SOL     OW 4537  12.202   7.890   9.914 -0.5170 -0.4655  0.2513
31920SOL    HW1 4538  12.219   7.943   9.992 -0.0093 -0.8736  0.4263
31920SOL    HW2 4539  12.253   7.810   9.928  0.2619 -0.1809 -0.8958
31921SOL     OW 4540   6.800   0.016  11.555 -0.5378 -0.0471  0.2605
31921SOL    HW1 4541   6.787   0.018  11.460  1.1000  0.9316  0.0110
31921SOL    HW2 4542   6.744  -0.056  11.585 -1.0244 -0.4447 -1.4430
31922SOL     OW 4543   6.060   2.606   0.797 -0.4009 -0.1120 -0.4655
31922SOL    HW1 4544   6.094   2.672   0.736  0.0795 -0.9327 -1.1133
31922SOL    HW2 4545   5.973   2.585   0.763 -1.5514  1.8146  1.0562
31923SOL     OW 4546  12.401  10.601   1.035  0.2540  0.6461 -0.0647
31923SOL    HW1 4547  12.464  10.551   0.982 -0.5379  0.4438 -0.8361
31923SOL    HW2 4548  12.454  10.639   1.105  0.9781 -0.8574  0.2593
31924SOL     OW 4549   0.311   7.187   3.499 -0.2833  0.0651 -0.4625
31924SOL    HW1 4550   0.223   7.196   3.537  0.4380  1.1448  1.0848
31924SOL    HW2 4551   0.361   7.140   3.566  0.6319  0.5707 -0.7697
31925SOL     OW 4552   6.684  10.338   1.387  0.2581 -0.0696  0.3683
31925SOL    HW1 4553   6.752  10.285   1.430 -0.1544 -0.8435  0.1000
31925SOL    HW2 4554   6.709  10.428   1.404  0.2301 -0.3367  2.0961
31926SOL     OW 4555   6.311   0.623  11.343 -0.2672  0.6191  0.0494
31926SOL    HW1 4556   6.316   0.606  11.437  2.2485 -0.2234 -0.1460
31926SOL    HW2 4557   6.384   0.683  11.326 -1.0334  1.2090 -1.2895
31927SOL     OW 4558   4.221  12.302   4.986 -0.3362 -0.2520  0.4161
31927SOL    HW1 4559   4.249  12.216   5.016 -1.0649 -0.8747 -0.6110
31927SOL    HW2 4560   4.277  12.321   4.911 -1.0076 -0.4099 -0.1351
31928SOL     OW 4561   8.848   0.658   1.949 -0.3411  0.0116 -0.0053
31928SOL    HW1 4562   8.920   0.701   1.994 -1.0152  0.4084  0.7153
31928SOL    HW2 4563   8.875   0.567   1.941  0.5591  0.3047 -0.4343
31929SOL     OW 4564   6.821   3.951   5.527 -0.8646  0.3462  0.0281
31929SOL    HW1 4565   6.864   3.931   5.610 -0.2993 -0.8847 -0.5333
31929SOL    HW2 4566   6.731   3.921   5.539 -0.2536 -1.8869 -0.4867
31930SOL     OW 4567  10.154   2.807   9.669 -0.0305 -0.2431 -0.0041
31930SOL    HW1 4568  10.059   2.801   9.678  0.0139  0.6823  1.5240
31930SOL    HW2 4569  10.178   2.885   9.720  1.5503 -0.4955 -0.3045
31931SOL     OW 4570   7.854   0.723   3.880 -0.3471 -0.0699  0.4393
31931SOL    HW1 4571   7.767   0.761   3.865 -1.1368 -2.4078 -1.5979
31931SOL    HW2 4572   7.886   0.768   3.958 -3.3538  0.9422  1.2572
31932SOL     OW 4573   4.888   4.225   2.799  0.3439  0.7619  0.3477
31932SOL    HW1 4574   4.852   4.310   2.774  0.2243  0.5950 -0.0548
31932SOL    HW2 4575   4.949   4.245   2.871  0.1612  1.1585  0.3966
31933SOL     OW 4576   1.043   8.487   4.623  0.2470 -0.2406 -0.3035
31933SOL    HW1 4577   1.027   8.448   4.537 -2.9316  0.9167 -0.3757
31933SOL    HW2 4578   1.030   8.416   4.685  0.1040 -0.5299 -0.6667
31934SOL     OW 4579   4.187   3.311   0.421  0.1261 -0.6400  0.3013
31934SOL    HW1 4580   4.218   3.279   0.505 -0.6402  0.1840  0.9100
31934SOL    HW2 4581   4.234   3.394   0.408  1.3345 -1.4533 -0.7856
31935SOL     OW 4582   6.156   3.658   8.386  0.2750 -0.4311  0.4367
31935SOL    HW1 4583   6.244   3.674   8.353 -0.2169 -0.2870 -0.8784
31935SOL    HW2 4584   6.127   3.579   8.342 -1.1714  0.8988 -1.1696
31936SOL     OW 4585   7.293   9.925   9.485 -0.0844  0.1014 -0.2741
31936SOL    HW1 4586   7.294  10.014   9.449  0.9948 -0.0175 -0.5804
31936SOL    HW2 4587   7.250   9.934   9.571 -0.6780  0.7724 -0.6354
31937SOL     OW 4588   4.744   0.584   0.964 -0.1645 -0.2919  0.5832
31937SOL    HW1 4589   4.747   0.569   1.059  0.5636  1.0731  0.8073
31937SOL    HW2 4590   4.833   0.611   0.942 -0.9035  1.9323 -0.0059
31938SOL     OW 4591  11.568  11.373   5.589 -0.1807  0.4240  0.5621
31938SOL    HW1 4592  11.646  11.425   5.608  0.7680 -1.4255  2.1104
31938SOL    HW2 4593  11.601  11.283   5.582 -1.9093 -0.1483 -0.8584
31939SOL     OW 4594  12.453   7.764   7.118 -0.1309 -1.0305  0.1075
31939SOL    HW1 4595  12.513   7.694   7.144  0.0433 -0.9899 -0.1855
31939SOL    HW2 4596  12.509   7.831   7.078 -0.3338 -0.8611  0.1036
31940SOL     OW 4597  11.659   4.374   7.406 -0.1898 -0.1530 -0.3484
31940SOL    HW1 4598  11.727   4.436   7.435  2.4628 -2.6061 -0.8685
31940SOL    HW2 4599  11.631   4.330   7.486 -0.4461  0.1562 -0.2644
31941SOL     OW 4600   1.344   0.458  11.627 -0.3920 -0.1132 -0.1655
31941SOL    HW1 4601   1.283   0.435  11.557 -1.3311  2.1718 -0.1832
31941SOL    HW2 4602   1.354   0.377  11.677 -1.5898 -1.1694 -1.5373
31942SOL     OW 4603   6.492   6.682  11.707  0.2153 -0.2111 -0.0647
31942SOL    HW1 4604   6.421   6.735  11.745  0.8884  1.7852 -1.4009
31942SOL    HW2 4605   6.570   6.737  11.715  0.4810  0.2017 -3.8025
31943SOL     OW 4606   6.884   2.576   6.141 -0.3211  0.2469  0.2270
31943SOL    HW1 4607   6.902   2.496   6.090  0.1721  0.5597 -0.0989
31943SOL    HW2 4608   6.962   2.629   6.130  0.7504 -0.5623  3.0808
31944SOL     OW 4609   4.785   1.894   6.169  0.1919 -0.1605  0.0508
31944SOL    HW1 4610   4.718   1.914   6.103  0.6536  1.6822  0.0713
31944SOL    HW2 4611   4.740   1.906   6.253  0.1652 -0.3524  0.0629
31945SOL     OW 4612   2.441  10.667   2.806 -0.4728 -0.3039  0.1432
31945SOL    HW1 4613   2.506  10.599   2.826  0.6220  0.4379 -0.7968
31945SOL    HW2 4614   2.359  10.631   2.840  0.4429 -1.1650  1.5996
31946SOL     OW 4615  11.276   2.131   9.799 -1.2090 -0.2400 -0.9800
31946SOL    HW1 4616  11.199   2.140   9.743 -0.2551  1.0932 -2.1604
31946SOL    HW2 4617  11.339   2.194   9.764  0.2596 -0.9470  0.2352
31947SOL     OW 4618   4.556  10.294   7.095 -0.7950 -0.1339  0.6622
31947SOL    HW1 4619   4.519  10.252   7.173 -3.3211  3.4440  1.6643
31947SOL    HW2 4620   4.479  10.312   7.040  0.8515 -2.0229 -2.5297
31948SOL     OW 4621   8.548   9.442  10.115 -0.0413 -0.4965  0.3995
31948SOL    HW1 4622   8.639   9.465  10.132 -0.3970  1.1018  0.3775
31948SOL    HW2 4623   8.551   9.382  10.041  0.9621  0.0813 -0.0444
31949SOL     OW 4624   0.481   2.134  12.458  0.4644  0.6250  0.0223
31949SOL    HW1 4625   0.429   2.214  12.467  1.7288  1.4069  0.6724
31949SOL    HW2 4626   0.509   2.114  12.548  1.5606  0.4277 -0.3512
31950SOL     OW 4627   4.781   2.791   9.504  0.4246 -0.3527 -0.4558
31950SOL    HW1 4628   4.828   2.719   9.544  1.0148  0.5195  0.4673
31950SOL    HW2 4629   4.725   2.825   9.573  2.1592  1.7851  0.0243
31951SOL     OW 4630   5.464   0.961   4.126 -0.0077 -0.4075 -0.3451
31951SOL    HW1 4631   5.471   1.009   4.044  1.5279 -0.0592 -0.0402
31951SOL    HW2 4632   5.508   0.878   4.108  1.6369  0.2359  0.5059
31952SOL     OW 4633   1.282   5.226   3.235 -0.4483  0.3772 -0.4117
31952SOL    HW1 4634   1.270   5.229   3.330  2.2066  0.6243 -0.0166
31952SOL    HW2 4635   1.350   5.291   3.217 -0.1712 -0.3868 -2.3451
31953SOL     OW 4636   3.507  10.630   9.313  0.5219 -0.0065 -0.5466
31953SOL    HW1 4637   3.571  10.683   9.266  1.5018  0.4868  1.2504
31953SOL    HW2 4638   3.538  10.540   9.304  1.3041  0.1972  0.0123
31954SOL     OW 4639   6.075   9.243   7.130 -0.1106  0.8519 -1.1581
31954SOL    HW1 4640   5.988   9.264   7.164  0.0575  1.2266 -0.9510
31954SOL    HW2 4641   6.059   9.176   7.064 -0.3229 -1.0152  0.6749
31955SOL     OW 4642   4.479   7.135   6.551  0.0234  0.0048  0.1522
31955SOL    HW1 4643   4.486   7.042   6.527 -3.0608  0.1393 -1.7917
31955SOL    HW2 4644   4.443   7.133   6.640 -1.9851 -0.7952 -0.6055
31956SOL     OW 4645   0.557   4.056   7.446 -0.0032  1.0109  0.1041
31956SOL    HW1 4646   0.517   4.135   7.483 -0.5929 -0.2032  2.2252
31956SOL    HW2 4647   0.483   4.005   7.413  0.1790  0.5324  0.4251
31957SOL     OW 4648   0.846   8.003   1.620  0.0868  0.3105  0.1512
31957SOL    HW1 4649   0.927   8.022   1.667  1.0785 -1.8370 -0.5744
31957SOL    HW2 4650   0.846   7.908   1.610 -2.4049  0.2871 -0.1195
31958SOL     OW 4651   4.024   6.015  10.334 -0.1837  0.5331  0.2803
31958SOL    HW1 4652   3.929   6.017  10.321 -0.2673  2.5564  0.7895
31958SOL    HW2 4653   4.052   6.105  10.317  1.4061  0.3656  1.7060
31959SOL     OW 4654   5.929   9.862   8.229  0.1855 -0.3125 -0.4173
31959SOL    HW1 4655   5.918   9.951   8.197  0.1057 -0.0050  0.4529
31959SOL    HW2 4656   6.008   9.864   8.283  0.8178 -1.0278 -1.2858
31960SOL     OW 4657  12.013  11.670   7.063 -0.8367  0.0473  0.2370
31960SOL    HW1 4658  11.987  11.734   6.996 -0.8659 -0.1981  0.0130
31960SOL    HW2 4659  12.098  11.638   7.033  0.1522  1.4512  1.3882
31961SOL     OW 4660   9.873   0.273   5.038 -0.1339 -0.3137 -0.2570
31961SOL    HW1 4661   9.943   0.259   5.103  0.4152 -1.0172 -0.9773
31961SOL    HW2 4662   9.793   0.278   5.090  0.3881 -0.0615  0.5431
31962SOL     OW 4663   7.258   6.098  11.814  0.3428  0.2688 -0.3621
31962SOL    HW1 4664   7.253   6.062  11.726  1.9633 -1.0692  0.0453
31962SOL    HW2 4665   7.343   6.141  11.818  0.4371  0.0121  0.6523
31963SOL     OW 4666   0.465   7.063  11.667  0.2220  0.4253  0.0109
31963SOL    HW1 4667   0.526   7.124  11.625 -0.2299  1.2145  0.4613
31963SOL    HW2 4668   0.497   6.976  11.644  1.7092  0.8209  0.5028
31964SOL     OW 4669   7.872  10.184   3.862  0.4848 -0.1828  0.6071
31964SOL    HW1 4670   7.818  10.237   3.921 -0.9275 -0.3519 -0.4624
31964SOL    HW2 4671   7.845  10.094   3.880  1.4361 -0.3959  1.0201
31965SOL     OW 4672  11.786   4.263   5.510  0.5950  0.5164 -1.1268
31965SOL    HW1 4673  11.811   4.233   5.422  2.0240  0.4010 -0.7142
31965SOL    HW2 4674  11.863   4.244   5.564 -0.1842  0.7868  0.1074
31966SOL     OW 4675   5.203   7.088   9.777  0.1199 -0.3879 -0.1888
31966SOL    HW1 4676   5.293   7.060   9.757 -0.4358 -4.0100  1.5292
31966SOL    HW2 4677   5.204   7.107   9.871 -0.6902  0.8177 -0.3981
31967SOL     OW 4678   6.227   5.141  12.311  0.1566  0.1444 -0.6000
31967SOL    HW1 4679   6.301   5.103  12.359 -0.5581 -1.1723 -0.4854
31967SOL    HW2 4680   6.261   5.224  12.277  0.7033  1.1892  2.2118
31968SOL     OW 4681   1.356   7.455   2.573 -0.3543  0.0755 -0.3891
31968SOL    HW1 4682   1.363   7.447   2.477 -1.7274  0.3498 -0.5362
31968SOL    HW2 4683   1.433   7.410   2.606  0.4595  0.4701 -1.6436
31969SOL     OW 4684   7.700   8.370   0.152 -0.1331  0.4685 -0.5710
31969SOL    HW1 4685   7.743   8.284   0.151  1.4405  1.2022  0.2155
31969SOL    HW2 4686   7.664   8.378   0.240  1.3434  1.3434 -0.0196
31970SOL     OW 4687   0.697   3.885   0.364  0.2976 -0.1782  0.0531
31970SOL    HW1 4688   0.786   3.912   0.384 -0.2440  1.6523  0.1560
31970SOL    HW2 4689   0.704   3.838   0.281  1.2529  0.7855 -0.4344
31971SOL     OW 4690  11.181   1.246   3.029  0.0544  0.2654  0.2819
31971SOL    HW1 4691  11.203   1.287   2.945 -0.0697  1.7064  0.9195
31971SOL    HW2 4692  11.246   1.280   3.090 -0.6723  0.3250  1.0435
31972SOL     OW 4693   5.124   6.600   2.214  0.0449  0.4027  0.2750
31972SOL    HW1 4694   5.192   6.578   2.150 -0.3667 -0.8512  0.2243
31972SOL    HW2 4695   5.082   6.678   2.178 -0.2375 -0.3257 -1.0741
31973SOL     OW 4696   4.793   9.798   6.959 -0.4435  0.0634  0.4872
31973SOL    HW1 4697   4.874   9.849   6.963  0.4912 -1.2339 -1.0796
31973SOL    HW2 4698   4.739   9.835   7.029  1.4501  1.0076  1.5294
31974SOL     OW 4699   4.507   5.758   6.972  0.1235  0.3303 -0.5852
31974SOL    HW1 4700   4.523   5.665   6.955 -0.2439 -0.4136  2.4386
31974SOL    HW2 4701   4.416   5.772   6.945 -0.0957 -0.4403 -0.2805
31975SOL     OW 4702   0.867   9.003   9.762  0.1595  0.4073  0.5253
31975SOL    HW1 4703   0.920   9.063   9.710  0.0511 -0.2584 -0.3705
31975SOL    HW2 4704   0.848   9.052   9.842  0.5865  1.3348  0.0792
31976SOL     OW 4705   3.757   8.806   3.262  0.3615  0.4474  0.3555
31976SOL    HW1 4706   3.744   8.819   3.169 -1.5542 -0.7510  0.3935
31976SOL    HW2 4707   3.824   8.870   3.287  1.3834  0.3535 -1.9254
31977SOL     OW 4708   4.056   9.950  10.167 -0.1660 -0.2103 -0.5460
31977SOL    HW1 4709   3.964   9.934  10.187 -0.3723  2.4924  1.1015
31977SOL    HW2 4710   4.054  10.007  10.089  0.0395  0.6144  0.0404
31978SOL     OW 4711   9.810   2.230   8.187 -0.0714 -0.1831  0.4672
31978SOL    HW1 4712   9.865   2.307   8.171  1.1499 -0.9619  0.8042
31978SOL    HW2 4713   9.740   2.261   8.245  0.4533  0.6508  0.6596
31979SOL     OW 4714  10.751   3.410   6.224 -0.6554 -0.2857  0.0240
31979SOL    HW1 4715  10.672   3.462   6.209 -0.3360 -0.2021 -1.6171
31979SOL    HW2 4716  10.769   3.418   6.317 -0.7622  2.3761 -0.1112
31980SOL     OW 4717   7.699   8.058   0.915 -0.0229 -0.5405  0.2220
31980SOL    HW1 4718   7.775   8.042   0.860  0.7697 -0.8584  1.3695
31980SOL    HW2 4719   7.678   7.972   0.952 -0.4041 -0.2941  0.5892
31981SOL     OW 4720   9.182   3.894   3.053  0.4471 -0.0229 -0.3350
31981SOL    HW1 4721   9.126   3.825   3.088 -0.0154  1.0117  1.0549
31981SOL    HW2 4722   9.271   3.861   3.066  0.2422 -0.2369  0.6311
31982SOL     OW 4723   4.806   8.779   1.378 -0.1660 -0.1069 -0.3528
31982SOL    HW1 4724   4.716   8.808   1.394 -0.2152 -0.6442  0.4558
31982SOL    HW2 4725   4.856   8.814   1.452 -0.2745 -2.1857  0.7889
31983SOL     OW 4726   0.864   7.503   6.045  0.0950 -0.0232  0.1691
31983SOL    HW1 4727   0.819   7.561   5.983 -0.6737 -1.8143 -1.0439
31983SOL    HW2 4728   0.927   7.454   5.991  2.3724  1.2178  1.5514
31984SOL     OW 4729   2.380   9.461   6.491  0.1126  0.6439  0.0787
31984SOL    HW1 4730   2.450   9.476   6.554  1.6545  1.5127 -1.7514
31984SOL    HW2 4731   2.302   9.444   6.545  1.6221 -0.0090  2.1733
31985SOL     OW 4732  10.260   0.939   3.504 -0.1830  0.3346 -0.4133
31985SOL    HW1 4733  10.264   0.846   3.480  0.4141 -0.0704  1.1375
31985SOL    HW2 4734  10.189   0.944   3.567  2.0042  0.2260  2.2146
31986SOL     OW 4735   1.202   3.337  10.576 -0.7166 -0.2891  0.5138
31986SOL    HW1 4736   1.145   3.330  10.653 -1.1447 -0.8766  0.1586
31986SOL    HW2 4737   1.170   3.269  10.517  2.0439 -2.4951  1.3558
31987SOL     OW 4738   5.498   4.107   4.301  0.5078  0.2576  0.2605
31987SOL    HW1 4739   5.576   4.104   4.358 -0.1438 -1.3627  1.1308
31987SOL    HW2 4740   5.438   4.167   4.346  0.0707 -0.8707  1.2166
31988SOL     OW 4741   1.121   9.632   9.477  0.8427 -0.1051  0.3300
31988SOL    HW1 4742   1.191   9.668   9.423  2.6041 -1.9046  1.2580
31988SOL    HW2 4743   1.141   9.664   9.566 -2.2452  3.1719  0.0358
31989SOL     OW 4744   0.093   7.090   6.710 -0.0695 -0.1120  0.2510
31989SOL    HW1 4745   0.169   7.095   6.651  0.6476 -0.1695  1.1555
31989SOL    HW2 4746   0.131   7.078   6.797 -1.1133  0.1171  0.7508
31990SOL     OW 4747   9.036   6.337   1.461 -0.1598 -0.2580 -0.1018
31990SOL    HW1 4748   9.006   6.269   1.521 -0.0829  0.1084  0.3550
31990SOL    HW2 4749   9.131   6.341   1.474 -0.1313 -0.2437 -0.3126
31991SOL     OW 4750   9.358   9.984   1.526 -0.1363 -0.2985 -0.5721
31991SOL    HW1 4751   9.365   9.987   1.621  0.2333 -0.0478 -0.6021
31991SOL    HW2 4752   9.449   9.982   1.496 -0.2446  0.1185 -0.9335
31992SOL     OW 4753   4.731   0.747   6.239  0.0459 -0.0887  0.1402
31992SOL    HW1 4754   4.784   0.811   6.192 -2.7588  0.8875 -2.0038
31992SOL    HW2 4755   4.752   0.760   6.331  2.0297  1.5382 -0.4900
31993SOL     OW 4756   8.036   9.851   4.379  0.2607 -0.3051 -0.1680
31993SOL    HW1 4757   8.024   9.942   4.350 -0.5601 -0.5093 -0.4907
31993SOL    HW2 4758   8.022   9.854   4.474 -2.4796 -0.5047 -0.4916
31994SOL     OW 4759   4.828   4.744   1.212  1.5809 -0.0075  0.4079
31994SOL    HW1 4760   4.866   4.829   1.233 -1.5092  1.9720 -1.3126
31994SOL    HW2 4761   4.754   4.734   1.272  0.2443 -0.0919 -1.1559
31995SOL     OW 4762   4.363   3.776   9.079  0.3204 -0.2491  0.0471
31995SOL    HW1 4763   4.417   3.816   9.011 -0.2113 -1.5812 -1.2142
31995SOL    HW2 4764   4.313   3.708   9.034  1.5186 -2.6980  2.1051
31996SOL     OW 4765   0.597   2.029   4.153 -0.2521 -0.1090  0.3793
31996SOL    HW1 4766   0.605   1.943   4.193  0.4991 -0.7600 -1.0966
31996SOL    HW2 4767   0.685   2.051   4.124 -1.0375 -0.6353 -2.7395
31997SOL     OW 4768   4.614   3.334  11.444  0.5268  0.3300  0.0651
31997SOL    HW1 4769   4.687   3.280  11.414  0.9585  1.0205 -0.1516
31997SOL    HW2 4770   4.583   3.379  11.365 -0.3932 -0.2501  0.0792
31998SOL     OW 4771   4.195   1.615   8.169 -0.6618 -0.3313 -0.4686
31998SOL    HW1 4772   4.242   1.640   8.089 -2.0827 -1.5878 -1.7864
31998SOL    HW2 4773   4.227   1.674   8.236  0.5889  0.7866 -1.9805
31999SOL     OW 4774  11.109   6.913   2.865 -0.0221  0.4431  0.2211
31999SOL    HW1 4775  11.026   6.879   2.832  0.2499  0.3906 -0.4179
31999SOL    HW2 4776  11.172   6.895   2.796  0.2429  1.7761  0.0842
32000SOL     OW 4777   8.699   1.229  11.381 -0.4961 -0.3225  0.2390
32000SOL    HW1 4778   8.719   1.228  11.475 -1.0541  1.0647  0.4035
32000SOL    HW2 4779   8.625   1.168  11.372 -2.5781  1.8685  1.2900
32001SOL     OW 4780  10.840   2.797   8.596 -0.0637  0.4333  0.2309
32001SOL    HW1 4781  10.878   2.885   8.587 -1.0710  0.8352 -0.2547
32001SOL    HW2 4782  10.786   2.802   8.674  0.6858 -0.0732  0.7930
32002SOL     OW 4783   2.068   7.525   8.365  0.8438  0.3114 -0.4963
32002SOL    HW1 4784   2.082   7.539   8.459  1.4628 -0.3370 -0.4826
32002SOL    HW2 4785   1.989   7.471   8.360  1.2622 -0.3350 -0.2971
32003SOL     OW 4786   3.074   3.586   4.711  0.0048 -0.4479  0.2878
32003SOL    HW1 4787   3.056   3.632   4.629 -1.0916 -1.5037 -0.0903
32003SOL    HW2 4788   3.082   3.656   4.776 -0.6404  0.3354 -0.4485
32004SOL     OW 4789   0.531   7.315   6.929 -0.5295 -0.4110  0.4759
32004SOL    HW1 4790   0.534   7.377   6.856 -1.2839 -0.8021  0.0925
32004SOL    HW2 4791   0.622   7.289   6.943 -0.3514 -0.1594 -0.1845
32005SOL     OW 4792   5.764   6.411  10.834  0.2514 -0.2173 -0.5629
32005SOL    HW1 4793   5.711   6.468  10.890  1.3157  0.1083  0.1458
32005SOL    HW2 4794   5.717   6.409  10.751 -1.3039 -0.6065  0.2798
32006SOL     OW 4795   1.686   4.477  10.494 -0.0409 -0.1832  0.0208
32006SOL    HW1 4796   1.646   4.393  10.474 -1.4277  0.4575 -0.0448
32006SOL    HW2 4797   1.671   4.489  10.588 -0.5997  0.3539 -0.1311
32007SOL     OW 4798  12.430   0.630  11.974  0.4115 -0.2622  0.3568
32007SOL    HW1 4799  12.459   0.542  11.948 -1.5284 -0.5701 -1.0266
32007SOL    HW2 4800  12.433   0.681  11.893 -0.9316  0.1955  0.5681
32008SOL     OW 4801   9.621   1.391  11.774 -0.7133 -0.4580 -0.2308
32008SOL    HW1 4802   9.604   1.437  11.691 -0.6301 -0.5954 -0.3252
32008SOL    HW2 4803   9.543   1.340  11.789 -0.7556 -0.3816 -0.1902
32009SOL     OW 4804   0.891  11.083   1.648  0.0213 -0.1936  0.1772
32009SOL    HW1 4805   0.795  11.092   1.644  0.0987  0.6285 -0.0499
32009SOL    HW2 4806   0.905  11.001   1.695 -0.8048  0.3977  1.5390
32010SOL     OW 4807   6.376   1.433   5.951 -0.4328  0.2414 -0.0951
32010SOL    HW1 4808   6.450   1.391   5.995 -1.3109 -0.1366  1.0698
32010SOL    HW2 4809   6.362   1.514   6.000 -0.7872  0.3147 -0.3193
32011SOL     OW 4810   6.649   0.589  11.342  0.2947  0.0275 -0.0590
32011SOL    HW1 4811   6.687   0.642  11.412  1.4776 -0.3848 -0.3641
32011SOL    HW2 4812   6.665   0.639  11.262  0.6611 -0.3883 -0.2492
32012SOL     OW 4813   2.100   2.991   9.704 -0.5774 -0.5183 -0.5264
32012SOL    HW1 4814   2.171   2.926   9.701  0.0645  0.1960 -1.5975
32012SOL    HW2 4815   2.138   3.066   9.749 -0.4203  0.1009 -1.6509
32013SOL     OW 4816   5.193   4.904  11.455 -0.1207 -0.4187 -0.0975
32013SOL    HW1 4817   5.187   4.996  11.480 -0.6105 -1.0599  2.4706
32013SOL    HW2 4818   5.284   4.880  11.473 -0.7035 -1.1267  2.2690
32014SOL     OW 4819   2.691   1.629   4.919 -0.1879  0.3845 -0.1812
32014SOL    HW1 4820   2.748   1.698   4.953 -0.8729  1.4804 -1.1818
32014SOL    HW2 4821   2.647   1.594   4.996  0.8273  0.4259  0.4448
32015SOL     OW 4822   8.737   8.433   9.826 -0.2266 -0.1875  0.3676
32015SOL    HW1 4823   8.770   8.343   9.820 -0.2020 -0.2682  1.4758
32015SOL    HW2 4824   8.805   8.481   9.873  1.6273  1.4297 -3.4837
32016SOL     OW 4825   0.441   0.115   5.988  0.0656  0.0111 -0.3581
32016SOL    HW1 4826   0.457   0.200   5.947 -1.2435  0.8433  0.7908
32016SOL    HW2 4827   0.395   0.064   5.921 -0.2903  0.6448 -0.6007
32017SOL     OW 4828   0.124  10.168   3.772 -0.6828 -0.6911  0.6119
32017SOL    HW1 4829   0.149  10.101   3.837 -0.4777  0.3635  1.6497
32017SOL    HW2 4830   0.207  10.192   3.730 -0.1267  1.3627  2.6639
32018SOL     OW 4831   8.153  10.959   3.807  0.0858 -0.3089  0.1167
32018SOL    HW1 4832   8.097  11.001   3.872 -0.7459 -2.0218  0.5644
32018SOL    HW2 4833   8.232  10.934   3.855  0.0358 -0.3993  0.1510
32019SOL     OW 4834   8.423   9.245   2.669  0.1589  0.1614  0.3425
32019SOL    HW1 4835   8.445   9.274   2.757 -0.3097 -0.1544  0.5701
32019SOL    HW2 4836   8.383   9.322   2.627  2.1751  0.9260 -0.2804
32020SOL     OW 4837   7.570   0.663   7.089  0.3930  0.8252 -0.2283
32020SOL    HW1 4838   7.489   0.696   7.052 -1.3607 -2.3478  0.4125
32020SOL    HW2 4839   7.556   0.664   7.184  0.9398 -0.0127 -0.1221
32021SOL     OW 4840   9.156  11.049   3.050 -0.1005  0.3306 -0.0502
32021SOL    HW1 4841   9.120  11.079   2.967  0.5176  0.9892 -0.0921
32021SOL    HW2 4842   9.145  10.954   3.048 -1.5297  0.4851 -0.1820
32022SOL     OW 4843   6.811  11.482  10.073  0.8264  0.0185 -0.1506
32022SOL    HW1 4844   6.781  11.474  10.164  0.8755 -0.0361 -0.1389
32022SOL    HW2 4845   6.893  11.531  10.080  0.0787  1.3332 -0.3039
32023SOL     OW 4846  10.524   0.797   1.460  0.2288 -0.2594 -0.5837
32023SOL    HW1 4847  10.544   0.716   1.507  0.1902  0.2344  0.3088
32023SOL    HW2 4848  10.433   0.787   1.432 -0.3250  0.1249  0.9547
32024SOL     OW 4849   0.178   6.663   1.140 -0.0662 -0.2809 -0.0928
32024SOL    HW1 4850   0.103   6.723   1.130  1.1585  1.7037  1.7689
32024SOL    HW2 4851   0.139   6.576   1.140 -2.4527  0.6776  1.1333
32025SOL     OW 4852   0.795   4.260   2.459 -0.1307  0.2780  0.6773
32025SOL    HW1 4853   0.830   4.348   2.469  0.1880  0.3012 -0.5227
32025SOL    HW2 4854   0.862   4.203   2.497  1.2103  0.3309 -1.4436
32026SOL     OW 4855   9.515  10.873   9.648  0.6860 -0.9730 -0.2651
32026SOL    HW1 4856   9.454  10.817   9.599 -0.0780 -0.5603  0.2029
32026SOL    HW2 4857   9.494  10.962   9.619  0.7039 -0.7849  0.3038
32027SOL     OW 4858  10.681   2.584   4.618  0.0220  0.3041  0.4172
32027SOL    HW1 4859  10.708   2.671   4.590 -2.1280  1.5039  1.7688
32027SOL    HW2 4860  10.592   2.596   4.652  0.1938 -2.1315  2.0219
32028SOL     OW 4861   1.093   0.273  11.802 -0.6732  0.6987 -0.3117
32028SOL    HW1 4862   1.048   0.211  11.745 -0.0630  1.1221 -1.2785
32028SOL    HW2 4863   1.037   0.279  11.880  0.4062 -2.8876  0.9296
32029SOL     OW 4864   2.285   7.832   9.648 -0.8339  0.2312  0.1058
32029SOL    HW1 4865   2.229   7.760   9.617  0.9657 -1.1948 -0.0420
32029SOL    HW2 4866   2.303   7.884   9.570 -2.0671  0.8273  0.1924
32030SOL     OW 4867   6.886   0.275   9.830  0.5407  0.0800 -0.5076
32030SOL    HW1 4868   6.911   0.346   9.770  1.0260  0.4041  0.0627
32030SOL    HW2 4869   6.943   0.287   9.906  0.1776 -0.5379 -0.1288
32031SOL     OW 4870   6.317   1.875   7.979  0.1693  0.0082 -0.7404
32031SOL    HW1 4871   6.259   1.845   7.909  1.2042 -0.1997 -1.5243
32031SOL    HW2 4872   6.362   1.951   7.942  0.3067  0.2488 -0.0919
32032SOL     OW 4873  11.406  10.356   8.496 -0.0564 -0.4726 -0.2276
32032SOL    HW1 4874  11.440  10.418   8.560 -0.0942 -0.2104 -0.4599
32032SOL    HW2 4875  11.313  10.347   8.517 -1.3052  3.2662 -3.0771
32033SOL     OW 4876   4.242   7.728   4.923  0.5237 -0.2151 -0.0050
32033SOL    HW1 4877   4.301   7.722   4.848  0.6227  0.3502  0.0190
32033SOL    HW2 4878   4.249   7.643   4.966 -2.8623 -2.3528 -3.0481
32034SOL     OW 4879   7.456  10.325   0.273  0.5621  0.2678  0.0602
32034SOL    HW1 4880   7.527  10.293   0.328 -0.5883 -1.8661  0.3914
32034SOL    HW2 4881   7.376  10.297   0.317 -0.5056  1.9212 -0.7101
32035SOL     OW 4882  10.488   8.388   2.599  0.0601  0.2617 -0.2744
32035SOL    HW1 4883  10.419   8.454   2.593  0.6284  0.7896 -1.2313
32035SOL    HW2 4884  10.547   8.408   2.527 -0.4695 -2.1554 -1.5138
32036SOL     OW 4885   6.358   0.529   1.053  0.0889 -0.0495 -0.2697
32036SOL    HW1 4886   6.400   0.524   1.140  0.1064 -3.0079 -0.3703
32036SOL    HW2 4887   6.430   0.548   0.993  0.4703 -0.2287  0.1242
32037SOL     OW 4888  12.516  11.494  12.286  0.4989  0.2421 -0.0535
32037SOL    HW1 4889  12.466  11.513  12.365  2.4154  1.7537  0.9143
32037SOL    HW2 4890  12.565  11.415  12.307  1.8411  1.2383  0.7881
32038SOL     OW 4891  12.345   7.763   1.167 -0.2037 -0.1874 -0.0370
32038SOL    HW1 4892  12.329   7.843   1.217  0.3855  0.9379 -1.5898
32038SOL    HW2 4893  12.400   7.709   1.225  1.6493  1.6643  0.0385
32039SOL     OW 4894   5.786   6.271   1.863  0.0218  0.2611  0.5990
32039SOL    HW1 4895   5.704   6.248   1.820 -0.3864 -0.3178  1.6439
32039SOL    HW2 4896   5.771   6.360   1.897  0.4931  0.8859 -0.7724
32040SOL     OW 4897   7.358   1.032   7.738  0.0786  0.3459  0.2396
32040SOL    HW1 4898   7.265   1.044   7.719  0.1846 -0.7512 -1.0448
32040SOL    HW2 4899   7.396   1.120   7.728 -0.4683  0.4261 -1.3609
32041SOL     OW 4900   2.984   3.270  11.374 -0.1715  0.3959  0.0530
32041SOL    HW1 4901   2.973   3.202  11.308  0.5542  0.7934 -0.4979
32041SOL    HW2 4902   3.008   3.223  11.454 -0.4515 -0.0423 -0.1202
32042SOL     OW 4903  12.404   7.683  12.094 -0.3392  0.0196  0.0994
32042SOL    HW1 4904  12.435   7.772  12.080 -3.7357  1.5009  0.8153
32042SOL    HW2 4905  12.350   7.664  12.017 -2.2523 -0.0463  1.3722
32043SOL     OW 4906  10.778   4.160   9.180 -0.0747  0.3363  0.3940
32043SOL    HW1 4907  10.804   4.194   9.266 -1.2543  0.8393  0.5793
32043SOL    HW2 4908  10.719   4.226   9.145 -1.0405 -0.7039 -0.0146
32044SOL     OW 4909   4.475   3.962  10.595  0.0385 -0.4928  0.2557
32044SOL    HW1 4910   4.445   4.040  10.642  1.5569 -0.5826  1.4442
32044SOL    HW2 4911   4.536   3.996  10.530  2.1497 -0.7611  1.9893
32045SOL     OW 4912  10.276   3.846   0.729  0.2009 -0.3535 -0.1997
32045SOL    HW1 4913  10.325   3.822   0.808 -0.1898 -2.6630 -0.5840
32045SOL    HW2 4914  10.317   3.794   0.659  0.1056  1.1415 -1.4142
32046SOL     OW 4915   7.578   1.596   7.721  0.1827 -0.0081  0.2297
32046SOL    HW1 4916   7.569   1.557   7.635 -1.3368 -0.8155  0.7085
32046SOL    HW2 4917   7.573   1.522   7.782 -1.8541  0.7754  1.1226
32047SOL     OW 4918   8.054   6.607   0.202  0.4856  0.8687 -0.3392
32047SOL    HW1 4919   8.057   6.652   0.286  0.2828 -2.3976  1.6213
32047SOL    HW2 4920   8.144   6.579   0.186  0.3890  0.8149 -0.8145
32048SOL     OW 4921   3.813   3.898   5.814  0.1623 -0.0289 -0.4804
32048SOL    HW1 4922   3.762   3.969   5.775  0.4336  0.3785 -0.1075
32048SOL    HW2 4923   3.810   3.827   5.750 -2.1083 -0.5803  0.1422
32049SOL     OW 4924  11.918   1.759   3.893 -0.0926  0.2642 -0.0051
32049SOL    HW1 4925  11.920   1.847   3.931 -0.4547 -0.1919  1.0827
32049SOL    HW2 4926  11.830   1.751   3.856  0.2215  0.6649 -0.8628
32050SOL     OW 4927   9.022   2.678   9.829 -0.1035 -0.4815 -0.4060
32050SOL    HW1 4928   8.996   2.689   9.921 -1.2636 -0.2747 -0.7423
32050SOL    HW2 4929   8.957   2.619   9.793  0.3618 -0.5803 -1.0967
32051SOL     OW 4930   0.300   0.711   9.878  0.3107  0.4654  0.0437
32051SOL    HW1 4931   0.294   0.636   9.819 -0.7295 -0.4382  1.2557
32051SOL    HW2 4932   0.353   0.679   9.952  2.2016  1.7965 -0.6512
32052SOL     OW 4933   8.788   0.406  12.141  0.0606 -0.0133  0.1718
32052SOL    HW1 4934   8.750   0.352  12.211  1.7486 -0.8441  0.4840
32052SOL    HW2 4935   8.765   0.361  12.060 -0.0029 -0.2585  0.3265
32053SOL     OW 4936   3.245   9.009  10.957  0.1624 -0.6672  0.3293
32053SOL    HW1 4937   3.251   9.074  10.887  3.9538 -1.8507 -0.6359
32053SOL    HW2 4938   3.194   9.053  11.025  0.3035  2.2936 -1.3055
32054SOL     OW 4939   2.843   4.913   9.490 -0.3409 -0.4270  0.0453
32054SOL    HW1 4940   2.858   4.826   9.453 -0.6088 -0.1053 -0.8634
32054SOL    HW2 4941   2.802   4.897   9.575 -1.0233 -1.1751 -0.4096
32055SOL     OW 4942   0.911  12.487   9.209  0.2272  0.3557 -0.0583
32055SOL    HW1 4943   0.899  12.556   9.274 -0.2338  1.4680 -1.2842
32055SOL    HW2 4944   0.917  12.406   9.261 -0.0564  1.2099  1.3553
32056SOL     OW 4945   9.178  11.284  11.291  0.2124  0.2640 -0.3786
32056SOL    HW1 4946   9.096  11.286  11.339  0.8209 -0.0636  0.6993
32056SOL    HW2 4947   9.185  11.370  11.251 -0.3852  0.4795 -0.0309
32057SOL     OW 4948  11.368  10.953   4.340 -0.8786 -0.0725  0.3750
32057SOL    HW1 4949  11.388  11.041   4.373 -1.7651  0.1507  0.3324
32057SOL    HW2 4950  11.452  10.907   4.344 -0.6372  0.4263  1.4521
32058SOL     OW 4951   3.206   5.225   0.928  0.2230 -0.2730 -0.3097
32058SOL    HW1 4952   3.165   5.263   1.006 -0.0872 -0.9986 -0.1101
32058SOL    HW2 4953   3.297   5.252   0.934 -0.3935  2.4363 -1.4053
32059SOL     OW 4954   2.867   6.690   2.545 -0.0702  0.5340 -0.8405
32059SOL    HW1 4955   2.822   6.733   2.618 -0.2879 -1.5739  0.3319
32059SOL    HW2 4956   2.801   6.634   2.505  0.7524 -0.3805 -0.9423
32060SOL     OW 4957   8.751   2.358   8.507  0.1034  0.2552  0.7399
32060SOL    HW1 4958   8.795   2.278   8.478  0.2187  0.1722  1.1416
32060SOL    HW2 4959   8.815   2.428   8.490 -0.1878  0.3345 -0.0843
32061SOL     OW 4960   1.616   9.633   8.775 -0.4006  0.8191  0.1204
32061SOL    HW1 4961   1.582   9.544   8.788 -0.2782  0.4775 -1.6349
32061SOL    HW2 4962   1.680   9.644   8.844  0.0965 -0.7449 -0.0417
32062SOL     OW 4963   2.182  10.861   7.156 -0.1166  0.7224  0.6136
32062SOL    HW1 4964   2.174  10.860   7.252 -0.6740 -1.0439  0.5855
32062SOL    HW2 4965   2.261  10.912   7.139 -0.6900  2.1367  1.9439
32063SOL     OW 4966   7.322   9.171  11.115  0.4888 -0.3391  0.1725
32063SOL    HW1 4967   7.344   9.134  11.200 -0.3431  0.6347  0.8487
32063SOL    HW2 4968   7.228   9.192  11.121  0.6849  0.8810 -0.5308
32064SOL     OW 4969   9.155   2.148   4.244 -0.1478  0.5251 -0.2121
32064SOL    HW1 4970   9.194   2.230   4.214 -0.1545  0.5914 -0.0396
32064SOL    HW2 4971   9.172   2.147   4.338 -1.6849  1.1669  0.1027
32065SOL     OW 4972   7.617  11.621   4.305  0.4356  0.2870  0.0794
32065SOL    HW1 4973   7.632  11.627   4.399  0.3926 -1.3109  0.2139
32065SOL    HW2 4974   7.704  11.626   4.266  0.6868 -1.2464  0.3699
32066SOL     OW 4975  10.949   5.856   9.297 -0.0717  0.6241 -0.3418
32066SOL    HW1 4976  10.956   5.765   9.328  0.3335  0.5425 -0.6647
32066SOL    HW2 4977  10.855   5.870   9.285 -0.0882 -0.0071 -1.0224
32067SOL     OW 4978   8.064  11.811   8.831 -0.1653  0.2528 -0.3143
32067SOL    HW1 4979   8.127  11.845   8.895 -0.8618  1.8723 -0.4445
32067SOL    HW2 4980   7.979  11.835   8.866 -0.6490 -0.4571 -0.9669
32068SOL     OW 4981  10.780  10.012   5.982 -0.1738 -0.2206 -0.2931
32068SOL    HW1 4982  10.691   9.980   5.970 -0.3528  0.0761  0.2058
32068SOL    HW2 4983  10.829   9.935   6.011 -0.4735 -0.1812  0.3324
32069SOL     OW 4984   0.059   7.078  12.496  0.0502  0.5919 -0.0951
32069SOL    HW1 4985   0.109   7.144  12.544  0.2365  0.2956  0.1232
32069SOL    HW2 4986  -0.032   7.093  12.522  0.2306 -0.0775  0.9787
32070SOL     OW 4987   1.638   5.469   4.301  0.3859 -0.2780  0.3408
32070SOL    HW1 4988   1.658   5.485   4.209  1.3475 -0.9530  0.4265
32070SOL    HW2 4989   1.657   5.376   4.314 -0.8780 -0.4802  0.9423
32071SOL     OW 4990   6.047   1.493   8.986  0.0169  0.3766 -0.1748
32071SOL    HW1 4991   6.067   1.584   9.009  0.7729  0.0874  0.3455
32071SOL    HW2 4992   5.951   1.491   8.979  0.0367  1.3767 -0.9527
32072SOL     OW 4993  10.623  11.236   0.489  0.2846  0.3967 -0.3527
32072SOL    HW1 4994  10.601  11.249   0.581  0.7695 -0.0030 -0.1714
32072SOL    HW2 4995  10.644  11.143   0.482  1.7889  0.7142 -0.5157
32073SOL     OW 4996  10.924   3.804   4.397 -0.0369  0.1324  0.7579
32073SOL    HW1 4997  10.979   3.730   4.422  0.6787 -0.0972 -1.3012
32073SOL    HW2 4998  10.951   3.875   4.456  4.5329  0.8465 -1.6991
32074SOL     OW 4999   8.279   4.387  12.493  0.0751 -0.2104  0.1036
32074SOL    HW1 5000   8.283   4.415  12.585  2.2806  3.9505 -0.9879
32074SOL    HW2 5001   8.193   4.415  12.463  0.5227  1.3297  0.1944
32075SOL     OW 5002  10.853   2.543   3.516 -0.0275  0.2148  0.0944
32075SOL    HW1 5003  10.837   2.555   3.422  0.4903  2.5441  0.2352
32075SOL    HW2 5004  10.942   2.509   3.520 -0.5744 -1.3380 -0.2752
32076SOL     OW 5005  10.911  10.493   2.429  0.7085  0.0919  0.1280
32076SOL    HW1 5006  10.831  10.502   2.481  0.2579  0.1174 -0.5511
32076SOL    HW2 5007  10.981  10.516   2.489  0.0302  2.6924  0.0591
32077SOL     OW 5008   6.680   9.511   5.894  0.4975 -0.0362  0.6975
32077SOL    HW1 5009   6.593   9.503   5.855  0.2375  0.9206  1.0439
32077SOL    HW2 5010   6.722   9.428   5.876 -1.1647 -1.2604  2.1239
32078SOL     OW 5011   7.200  10.047   6.901  0.6227  0.5087 -0.2543
32078SOL    HW1 5012   7.175  10.060   6.993  1.0009 -1.0411  0.0891
32078SOL    HW2 5013   7.230   9.956   6.896  1.2694  0.7680 -1.7728
32079SOL     OW 5014   1.486   3.382  10.484 -0.5744 -0.1068  0.2497
32079SOL    HW1 5015   1.413   3.341  10.531  1.3701 -1.7679  2.0158
32079SOL    HW2 5016   1.520   3.448  10.544  0.9928 -1.1996  0.6386
32080SOL     OW 5017  11.249   3.440   3.065 -0.4705 -0.0341 -0.0507
32080SOL    HW1 5018  11.167   3.434   3.113  0.0468  1.1261  1.0493
32080SOL    HW2 5019  11.259   3.533   3.045  0.8904 -0.0373  0.4582
32081SOL     OW 5020   6.642   6.144   2.709 -0.2035  0.1459 -0.2881
32081SOL    HW1 5021   6.610   6.176   2.625  0.3068  1.3165 -0.0541
32081SOL    HW2 5022   6.565   6.105   2.751 -0.6102  0.1624 -1.0079
32082SOL     OW 5023  11.595   9.049  12.171 -0.0988  0.7129 -0.2897
32082SOL    HW1 5024  11.578   9.141  12.148 -2.7673  0.1476 -0.8893
32082SOL    HW2 5025  11.517   9.022  12.218  0.9146 -1.1131  0.4182
32083SOL     OW 5026   7.539  10.945  10.749  0.5441 -1.1259 -0.0952
32083SOL    HW1 5027   7.551  11.040  10.742 -0.7020 -0.8116  1.5702
32083SOL    HW2 5028   7.628  10.910  10.753  1.0719  0.2967  2.6837
32084SOL     OW 5029   6.154   8.195   7.503  0.2316  0.7842  0.7693
32084SOL    HW1 5030   6.137   8.202   7.409  0.2382  0.8401  0.7716
32084SOL    HW2 5031   6.196   8.278   7.525 -0.7014  1.2105  1.0162
32085SOL     OW 5032   7.918   9.373   2.100 -0.3670 -0.1241 -0.4457
32085SOL    HW1 5033   7.912   9.401   2.008  3.6291  1.3453 -0.4306
32085SOL    HW2 5034   7.893   9.280   2.098 -2.3983  0.3557 -2.5746
32086SOL     OW 5035   4.219   1.770   1.117  0.0075 -0.7179  0.4405
32086SOL    HW1 5036   4.168   1.851   1.113  1.5884  0.2827 -0.8728
32086SOL    HW2 5037   4.179   1.713   1.051 -0.1236 -0.3846  0.2293
32087SOL     OW 5038   0.722  12.595   5.442  0.2422 -0.7596 -0.0503
32087SOL    HW1 5039   0.782  12.583   5.368  0.5666  0.0332  0.0689
32087SOL    HW2 5040   0.733  12.687   5.466  0.5218 -1.1340  1.3232
32088SOL     OW 5041  12.289  11.310   7.354 -0.3047 -0.4980 -0.0280
32088SOL    HW1 5042  12.259  11.256   7.426 -2.5382 -0.7745 -1.0811
32088SOL    HW2 5043  12.294  11.399   7.391  1.6525 -1.0682  1.2259
32089SOL     OW 5044   6.012   4.524   5.937 -0.6322 -0.4298  0.1271
32089SOL    HW1 5045   5.973   4.448   5.895  0.7484 -1.4355  0.6172
32089SOL    HW2 5046   6.081   4.552   5.877  0.4636 -1.0642  1.0568
32090SOL     OW 5047   0.130  11.586   0.083  0.4555 -0.0835  0.5104
32090SOL    HW1 5048   0.087  11.667   0.057  1.5066  0.4730  0.4240
32090SOL    HW2 5049   0.202  11.576   0.021  0.3608 -1.0673  0.5477
32091SOL     OW 5050  12.012   9.256   3.369  0.6997 -0.2321 -0.2249
32091SOL    HW1 5051  12.027   9.255   3.463 -1.1653 -0.1443  0.0947
32091SOL    HW2 5052  12.007   9.349   3.347 -0.6062 -0.2627 -0.0990
32092SOL     OW 5053   6.113   8.942   5.919  0.0203  0.2463 -0.0477
32092SOL    HW1 5054   6.156   8.931   5.834 -0.1169  0.3451 -0.1321
32092SOL    HW2 5055   6.043   8.877   5.919  1.7040 -1.6654  1.1266
32093SOL     OW 5056   6.172   8.620   5.606  0.1060  0.3968 -0.0242
32093SOL    HW1 5057   6.203   8.531   5.619  1.9296  0.8196 -1.2168
32093SOL    HW2 5058   6.158   8.627   5.512 -0.4354  1.2652  0.1076
32094SOL     OW 5059   0.602   1.524  10.034  0.0387  0.1207 -0.4094
32094SOL    HW1 5060   0.660   1.536  10.109 -0.9810 -0.8585  0.5682
32094SOL    HW2 5061   0.652   1.467   9.975  0.3791 -0.0867  0.0700
32095SOL     OW 5062   5.185   5.983  10.528  0.4577 -0.1082 -0.0597
32095SOL    HW1 5063   5.094   5.976  10.557  0.6033 -0.1066  0.4073
32095SOL    HW2 5064   5.205   5.898  10.489 -0.1791  0.3565 -1.4688
32096SOL     OW 5065   1.772   6.528   7.558  0.0013 -1.0470 -0.8919
32096SOL    HW1 5066   1.700   6.586   7.535 -0.4997 -1.6801 -0.9457
32096SOL    HW2 5067   1.751   6.496   7.646 -0.3624 -2.0948 -1.3426
32097SOL     OW 5068   9.024   0.351   4.111  0.1061  0.1495  0.6493
32097SOL    HW1 5069   9.028   0.407   4.188 -0.1428  0.6253  0.3269
32097SOL    HW2 5070   9.050   0.408   4.039  2.2946 -0.7815  0.6039
32098SOL     OW 5071   0.651   5.246   8.118  0.3566 -0.3314 -0.7172
32098SOL    HW1 5072   0.619   5.329   8.153  1.6859 -0.3385  0.6421
32098SOL    HW2 5073   0.585   5.182   8.143 -0.3497  0.2062 -1.1861
32099SOL     OW 5074  11.765   1.586   2.853  0.2483 -0.3023  0.6583
32099SOL    HW1 5075  11.820   1.665   2.852  1.0398 -0.8402 -0.0434
32099SOL    HW2 5076  11.746   1.569   2.761  0.0240 -0.8925  0.8086
32100SOL     OW 5077   2.657   7.528   5.975 -0.3175  0.1116 -0.8232
32100SOL    HW1 5078   2.628   7.587   5.905  0.9100  0.1736 -1.3056
32100SOL    HW2 5079   2.583   7.524   6.035  0.3999  4.2860  0.6706
32101SOL     OW 5080  12.167  11.869   4.850  0.3283 -0.2462 -0.0446
32101SOL    HW1 5081  12.076  11.839   4.851  0.6912 -1.5041 -1.4062
32101SOL    HW2 5082  12.200  11.845   4.763  2.0244 -0.0001  0.4864
32102SOL     OW 5083   9.811   0.658  11.676  0.4379  0.5471 -0.3119
32102SOL    HW1 5084   9.762   0.740  11.680 -1.9312 -0.8344  1.5100
32102SOL    HW2 5085   9.748   0.592  11.648  1.5901 -1.0754  0.6600
32103SOL     OW 5086   9.815   7.370  10.620 -0.1932  0.1664 -0.0015
32103SOL    HW1 5087   9.766   7.423  10.682 -0.7566  0.0086 -0.3123
32103SOL    HW2 5088   9.768   7.287  10.616 -0.6903  0.4849 -1.3086
32104SOL     OW 5089  11.494  11.154   7.041 -0.2602 -0.0828 -0.2184
32104SOL    HW1 5090  11.587  11.170   7.056  0.1221 -0.8318 -1.5484
32104SOL    HW2 5091  11.461  11.236   7.003  0.0732 -0.1247 -0.6016
32105SOL     OW 5092  10.887   7.355   9.678  0.4681  0.3975  0.2282
32105SOL    HW1 5093  10.827   7.420   9.714  0.0568  0.3446 -0.3511
32105SOL    HW2 5094  10.841   7.318   9.603  1.1713  0.2688 -0.1541
32106SOL     OW 5095   2.253   6.961  11.347 -0.1610  0.1408 -0.3438
32106SOL    HW1 5096   2.330   6.928  11.300  0.2179 -0.7181  0.8307
32106SOL    HW2 5097   2.281   7.046  11.382  1.0062 -1.0187  1.7624
32107SOL     OW 5098   3.047  10.483   0.597  0.0619  0.2413 -0.0354
32107SOL    HW1 5099   2.989  10.517   0.666 -1.2670 -1.3844 -0.2784
32107SOL    HW2 5100   3.124  10.452   0.644 -0.3986  0.0537  0.6147
32108SOL     OW 5101   0.475   0.215   9.969  0.2846 -0.1868 -0.1458
32108SOL    HW1 5102   0.510   0.293   9.927  0.3739  0.6682  1.4205
32108SOL    HW2 5103   0.544   0.188  10.031 -1.0911  0.5896  1.8393
32109SOL     OW 5104   6.370   8.668   9.160  0.0205 -0.3894  0.4917
32109SOL    HW1 5105   6.458   8.694   9.132  0.1395  2.1649  2.7404
32109SOL    HW2 5106   6.311   8.726   9.112 -0.2857 -0.6532  0.5458
32110SOL     OW 5107   6.968   7.673   9.920  0.0633 -0.2179  0.5822
32110SOL    HW1 5108   6.961   7.578   9.911  0.4631 -0.2146  0.2190
32110SOL    HW2 5109   6.886   7.706   9.883  0.7796 -0.3217 -1.1673
32111SOL     OW 5110   5.994   2.750   9.207 -0.4655  0.1769  0.1690
32111SOL    HW1 5111   5.960   2.727   9.294 -0.3348  2.4174  0.8782
32111SOL    HW2 5112   5.921   2.730   9.147 -1.6468  1.2545  1.1831
32112SOL     OW 5113   9.851   2.711   0.813 -0.1923  0.2945 -0.2506
32112SOL    HW1 5114   9.866   2.640   0.750 -1.7635  2.1351 -2.8951
32112SOL    HW2 5115   9.794   2.672   0.880  0.4908 -1.4101 -0.6215
32113SOL     OW 5116   2.036   2.339  10.005  0.0193  0.6733  0.5374
32113SOL    HW1 5117   1.957   2.299   9.970  1.2203 -1.9243  0.5867
32113SOL    HW2 5118   2.092   2.353   9.929  0.5257  0.0264  0.7807
32114SOL     OW 5119   4.935   9.533   2.900 -0.1304  0.3167 -0.1154
32114SOL    HW1 5120   4.892   9.454   2.935  0.5099 -0.1107 -0.2776
32114SOL    HW2 5121   4.941   9.592   2.975 -0.6606  0.2416 -0.0045
32115SOL     OW 5122   8.831   4.710   8.394  0.0062  0.2408 -0.2207
32115SOL    HW1 5123   8.814   4.799   8.425 -0.3065 -0.4843  1.8173
32115SOL    HW2 5124   8.758   4.691   8.335 -0.6464  0.8780  0.3567
32116SOL     OW 5125  11.463   0.761   0.772  0.2031 -0.1671  0.1000
32116SOL    HW1 5126  11.543   0.715   0.797 -0.6074 -1.6091  0.1414
32116SOL    HW2 5127  11.445   0.820   0.845 -0.0016 -1.4916  1.1415
32117SOL     OW 5128  11.650   2.401   6.698  0.6885  0.0456  0.4539
32117SOL    HW1 5129  11.606   2.329   6.653  0.1216 -0.0598  1.1514
32117SOL    HW2 5130  11.621   2.480   6.652  1.3225 -0.1680 -0.3213
32118SOL     OW 5131   7.187  10.820   5.197  0.2760 -0.5501  0.1219
32118SOL    HW1 5132   7.181  10.791   5.106  1.6961 -1.3885  0.2551
32118SOL    HW2 5133   7.279  10.807   5.220  0.4327  1.6910  1.0233
32119SOL     OW 5134   0.612   3.706   3.131  0.0293  0.3259  0.0009
32119SOL    HW1 5135   0.620   3.801   3.145  0.1688  0.7469 -2.5384
32119SOL    HW2 5136   0.689   3.683   3.079  0.0059 -1.2184  0.6026
32120SOL     OW 5137   2.480  10.888  10.233 -0.0631 -0.1579 -0.2169
32120SOL    HW1 5138   2.470  10.799  10.267  0.3220 -0.2425 -0.3115
32120SOL    HW2 5139   2.530  10.934  10.300  0.3868 -0.2252 -0.4981
32121SOL     OW 5140   1.921   2.715   0.637  0.1636 -1.1104  0.4250
32121SOL    HW1 5141   1.935   2.757   0.552 -0.2721  0.2425  0.9862
32121SOL    HW2 5142   1.983   2.759   0.696  0.1241 -1.6965  0.9158
32122SOL     OW 5143   3.161   8.571   8.723 -0.2266 -0.1427  0.2079
32122SOL    HW1 5144   3.183   8.480   8.744  0.3775  0.2228  1.2159
32122SOL    HW2 5145   3.112   8.602   8.799 -1.7069 -0.0345 -0.7406
32123SOL     OW 5146   4.989   2.957   5.724  0.3050 -0.0866 -0.1743
32123SOL    HW1 5147   4.969   2.966   5.631  1.4728  0.7564 -0.3614
32123SOL    HW2 5148   5.057   2.888   5.727  2.0657  1.5593 -0.2397
32124SOL     OW 5149   5.364   6.374   1.829  0.0498 -0.4936  0.0624
32124SOL    HW1 5150   5.353   6.462   1.864 -0.5568  0.3026 -2.0360
32124SOL    HW2 5151   5.288   6.326   1.861 -0.4290  0.1716 -0.0656
32125SOL     OW 5152   2.546  10.760   9.845 -0.0688  0.2670  0.0631
32125SOL    HW1 5153   2.634  10.766   9.883 -0.0463  0.4670 -0.0168
32125SOL    HW2 5154   2.548  10.680   9.792  0.5168  0.9920 -1.0628
32126SOL     OW 5155   3.809  11.360   9.496  0.2109  0.2922  0.0746
32126SOL    HW1 5156   3.748  11.309   9.549  0.5084 -0.4346 -0.2579
32126SOL    HW2 5157   3.783  11.342   9.406 -0.0886  1.2562 -0.0423
32127SOL     OW 5158   6.938   7.049   3.590  0.5425  0.1355  0.5046
32127SOL    HW1 5159   6.969   7.140   3.593  1.2486 -0.1215  1.8219
32127SOL    HW2 5160   6.950   7.023   3.499 -0.2573  1.5550 -0.0315
32128SOL     OW 5161   4.169   0.825  10.244 -0.0253 -0.0444 -0.0655
32128SOL    HW1 5162   4.196   0.820  10.336 -1.8744 -0.8626  0.4695
32128SOL    HW2 5163   4.074   0.820  10.247 -0.1232  0.2081 -2.0278
32129SOL     OW 5164  10.649   1.663   9.615 -0.1000  0.1669  0.5710
32129SOL    HW1 5165  10.590   1.642   9.542  1.1761  0.3975 -0.5818
32129SOL    HW2 5166  10.729   1.614   9.595  1.6075  2.9984 -0.1750
32130SOL     OW 5167   2.625  11.689   3.749 -0.0117  0.5510  0.0861
32130SOL    HW1 5168   2.701  11.631   3.754 -1.0142 -0.8964 -0.8176
32130SOL    HW2 5169   2.551  11.631   3.732 -1.1088  2.0712 -0.5568
32131SOL     OW 5170   0.898  11.648   0.404  0.4407  0.4273  1.2073
32131SOL    HW1 5171   0.990  11.640   0.381 -0.3896 -4.5993 -1.6921
32131SOL    HW2 5172   0.857  11.686   0.326 -0.2921 -0.1292  1.3162
32132SOL     OW 5173   2.677   3.157   6.495  0.3792  0.1837  0.1200
32132SOL    HW1 5174   2.632   3.201   6.424 -0.1266 -0.9643 -0.2889
32132SOL    HW2 5175   2.770   3.170   6.477  0.2472  1.2557  0.1399
32133SOL     OW 5176   4.339   1.585  12.113 -0.0182  0.3469  0.1378
32133SOL    HW1 5177   4.296   1.500  12.118 -0.0083  0.3118 -0.3461
32133SOL    HW2 5178   4.374   1.589  12.024  1.8045 -0.0254  0.7836
32134SOL     OW 5179   1.664   1.944   3.236  0.2408  0.0362 -0.3084
32134SOL    HW1 5180   1.753   1.931   3.269  0.3891  1.5742  0.0008
32134SOL    HW2 5181   1.674   2.008   3.165 -0.5207 -0.4466 -0.8681
32135SOL     OW 5182   3.593   4.508   9.875 -0.4595 -0.3145 -0.5895
32135SOL    HW1 5183   3.614   4.512   9.968 -1.0678  0.1063 -0.4668
32135SOL    HW2 5184   3.652   4.570   9.834 -1.0732  0.4813 -0.3101
32136SOL     OW 5185   4.103   9.278   9.010 -0.1630  0.0734  0.2369
32136SOL    HW1 5186   4.170   9.321   9.063 -0.4854  0.8053  0.0685
32136SOL    HW2 5187   4.056   9.351   8.969 -0.0035 -0.4800 -0.9446
32137SOL     OW 5188   7.929   9.570   3.453 -0.0978  0.2403 -0.0489
32137SOL    HW1 5189   7.956   9.505   3.518  0.2327  1.0810  0.6597
32137SOL    HW2 5190   8.010   9.605   3.418 -0.2466 -0.9406 -1.7116
32138SOL     OW 5191   5.612   2.221   5.553 -0.0113  0.2421  0.8135
32138SOL    HW1 5192   5.570   2.217   5.638 -2.0693  1.1347 -0.1031
32138SOL    HW2 5193   5.678   2.290   5.562 -0.8233  0.9529  1.4237
32139SOL     OW 5194   0.496   4.355   1.979  0.0246  0.6357  0.6936
32139SOL    HW1 5195   0.487   4.447   2.001 -2.9269  0.5364  0.3499
32139SOL    HW2 5196   0.406   4.324   1.969  0.9125 -2.3073  0.8614
32140SOL     OW 5197   6.620   4.246   5.749  0.0956 -0.1325  0.0867
32140SOL    HW1 5198   6.573   4.230   5.831  1.1400  0.8177  0.9043
32140SOL    HW2 5199   6.694   4.186   5.751 -0.8053 -1.3414 -1.0112
32141SOL     OW 5200  11.038   0.709  11.049 -0.2482  0.1492 -0.0859
32141SOL    HW1 5201  11.020   0.638  11.110  0.4768  0.9397  1.0896
32141SOL    HW2 5202  10.988   0.783  11.083 -1.0190  0.2152 -1.3104
32142SOL     OW 5203   0.108  10.110   2.863  0.0972  0.3918 -0.3385
32142SOL    HW1 5204   0.060  10.165   2.801  1.5470  2.6164  0.3787
32142SOL    HW2 5205   0.046  10.096   2.935 -0.4567  0.6824 -0.7513
32143SOL     OW 5206   1.124   8.062   0.395 -0.8739 -0.1605  0.3618
32143SOL    HW1 5207   1.196   8.120   0.417 -0.8710 -0.2714  0.6469
32143SOL    HW2 5208   1.109   8.011   0.475 -0.3353 -1.1282 -0.1510
32144SOL     OW 5209   1.302   2.747   4.592  0.5426 -0.5310 -0.2914
32144SOL    HW1 5210   1.259   2.670   4.554 -1.6909  0.4628  0.0437
32144SOL    HW2 5211   1.322   2.721   4.682 -0.0310 -0.7998 -0.2372
32145SOL     OW 5212   4.310   4.410   9.094 -0.3230  0.4712 -0.0521
32145SOL    HW1 5213   4.388   4.354   9.098 -0.9457 -0.3923  0.4199
32145SOL    HW2 5214   4.262   4.389   9.174 -1.4385  0.4041 -0.7261
32146SOL     OW 5215   7.210   6.468   0.962 -0.2577  0.8069  0.0497
32146SOL    HW1 5216   7.212   6.550   1.012  1.5815 -0.2433  1.8435
32146SOL    HW2 5217   7.218   6.399   1.028  1.4001 -0.6938 -1.5846
32147SOL     OW 5218   4.940   8.105   1.662  0.0421  0.3710 -0.1593
32147SOL    HW1 5219   4.870   8.043   1.640  0.8889 -0.3276 -0.9315
32147SOL    HW2 5220   4.936   8.111   1.758 -0.2270 -0.6688 -0.0924
32148SOL     OW 5221   3.537   3.083   2.926  0.3462  0.5245  0.0556
32148SOL    HW1 5222   3.511   3.021   2.995  1.6784 -0.3793 -0.2088
32148SOL    HW2 5223   3.533   3.169   2.968 -0.6285  0.1757  0.7112
32149SOL     OW 5224   7.623   2.009   2.349  0.0335  0.4781  0.2014
32149SOL    HW1 5225   7.656   2.088   2.392 -0.1628  0.4754  0.3592
32149SOL    HW2 5226   7.545   2.038   2.302 -1.5861 -0.0942  2.3585
32150SOL     OW 5227   5.519   3.730   6.791  0.0554 -0.8495  0.0356
32150SOL    HW1 5228   5.580   3.689   6.854 -0.4048 -1.0856  0.3323
32150SOL    HW2 5229   5.524   3.823   6.810  1.5395 -0.6657 -1.0145
32151SOL     OW 5230   5.234   4.339   0.114 -0.8923  0.0920 -0.6643
32151SOL    HW1 5231   5.168   4.309   0.050 -0.7676  1.7327 -1.6026
32151SOL    HW2 5232   5.296   4.266   0.119 -2.0395 -0.9427 -0.7721
32152SOL     OW 5233   5.388   7.227   8.022  0.5129  0.2616  0.3511
32152SOL    HW1 5234   5.296   7.250   8.034  0.0766 -1.6134  0.9605
32152SOL    HW2 5235   5.393   7.195   7.932  0.8580  1.5275 -0.0955
32153SOL     OW 5236   8.267  11.790   4.548  0.2155  0.5991  0.6830
32153SOL    HW1 5237   8.219  11.837   4.480  2.6894 -0.2035 -1.8429
32153SOL    HW2 5238   8.235  11.700   4.542  1.8124  0.0714 -0.9772
32154SOL     OW 5239  11.860   1.879   3.502  0.1676  0.8867  0.2850
32154SOL    HW1 5240  11.894   1.810   3.446  0.2990 -0.5275  2.0099
32154SOL    HW2 5241  11.769   1.853   3.520  0.6129  0.3621  2.0228
32155SOL     OW 5242   2.478  10.963  12.048  0.2025 -0.4037  0.5419
32155SOL    HW1 5243   2.510  10.891  12.102  2.1905 -0.9692 -1.2509
32155SOL    HW2 5244   2.549  10.980  11.986 -1.3249  1.2583 -0.8721
32156SOL     OW 5245   4.857   6.478   1.008  0.0023 -0.6259 -0.7701
32156SOL    HW1 5246   4.923   6.528   0.960 -0.1934 -0.6402 -1.0579
32156SOL    HW2 5247   4.832   6.534   1.081  0.6820 -0.8202 -0.3853
32157SOL     OW 5248  10.986   6.227   1.096  0.2931  0.3081  0.3558
32157SOL    HW1 5249  11.032   6.193   1.019 -1.2814  1.6786 -1.2966
32157SOL    HW2 5250  11.007   6.320   1.097 -1.1278  0.6604  0.4742
32158SOL     OW 5251   7.131   0.331  11.286 -0.1592 -0.4246 -0.9523
32158SOL    HW1 5252   7.220   0.320  11.254  0.2341 -0.2720  0.0290
32158SOL    HW2 5253   7.107   0.245  11.320 -0.0080 -0.2396 -0.3488
32159SOL     OW 5254   3.967   2.180   0.794 -0.0748 -0.3348 -0.2248
32159SOL    HW1 5255   4.019   2.152   0.719 -0.9076 -0.1571 -0.8823
32159SOL    HW2 5256   3.877   2.180   0.763 -0.5459 -1.1532  1.0452
32160SOL     OW 5257   7.932  11.807   0.319 -0.7062  0.5357 -0.4739
32160SOL    HW1 5258   8.014  11.835   0.360 -0.7955  2.4884 -1.4910
32160SOL    HW2 5259   7.872  11.880   0.334 -1.5266  0.1611 -1.7578
32161SOL     OW 5260   7.286   8.326  11.187  0.0083 -0.2082 -0.0899
32161SOL    HW1 5261   7.368   8.367  11.160  0.3123 -0.4600  0.4454
32161SOL    HW2 5262   7.221   8.396  11.176  0.1272 -0.2647 -1.3608
32162SOL     OW 5263  11.074   7.750   7.523  0.1054 -0.2235  0.6317
32162SOL    HW1 5264  10.991   7.705   7.542 -0.6259  0.4529 -0.7792
32162SOL    HW2 5265  11.054   7.843   7.534  0.6784 -0.0532  0.3001
32163SOL     OW 5266   1.790   4.969   2.081  0.1117  0.2060 -0.2333
32163SOL    HW1 5267   1.814   4.885   2.040  0.2375  0.2484 -0.2455
32163SOL    HW2 5268   1.757   4.944   2.167  0.9354  0.2074  0.0927
32164SOL     OW 5269   7.648   1.946   4.190  0.3461 -0.0403  0.4470
32164SOL    HW1 5270   7.596   1.870   4.164  0.4029 -1.0183  2.9186
32164SOL    HW2 5271   7.687   1.977   4.108 -1.5184 -1.2359 -0.9817
32165SOL     OW 5272   9.180   0.967  10.137 -0.5352  0.3159  0.2248
32165SOL    HW1 5273   9.093   0.935  10.165 -0.6219 -0.8140 -1.2138
32165SOL    HW2 5274   9.162   1.047  10.089 -0.9918 -0.7246 -1.4173
32166SOL     OW 5275   5.051  11.462   3.749  0.1923  0.5676  0.0881
32166SOL    HW1 5276   5.030  11.516   3.826  1.6273  1.5368 -0.1614
32166SOL    HW2 5277   4.973  11.408   3.736 -0.6646  1.4399  1.3311
32167SOL     OW 5278   1.052   2.417  10.150  0.3019 -0.2329  0.5167
32167SOL    HW1 5279   1.139   2.429  10.188 -0.8175  0.4136  3.0351
32167SOL    HW2 5280   1.038   2.322  10.153  1.8428 -0.6876 -2.3420
32168SOL     OW 5281  10.367   9.495   4.619 -0.3878  0.6334  0.2271
32168SOL    HW1 5282  10.300   9.426   4.617  0.2681 -0.0346  0.7321
32168SOL    HW2 5283  10.330   9.566   4.566 -1.9590  0.7132  1.3670
32169SOL     OW 5284   2.279   3.251   3.978 -0.3715  1.0082 -0.4653
32169SOL    HW1 5285   2.227   3.179   3.943 -1.5292  0.4322  2.1751
32169SOL    HW2 5286   2.369   3.228   3.954 -0.8980 -0.3223 -1.3174
32170SOL     OW 5287   5.649   7.314   1.559 -0.3297  0.1681  0.6585
32170SOL    HW1 5288   5.665   7.375   1.631 -1.7492  0.8982  0.3795
32170SOL    HW2 5289   5.589   7.249   1.595 -1.1462  0.6078  0.1139
32171SOL     OW 5290  11.278   5.105   8.573  0.1495 -0.5292 -0.4377
32171SOL    HW1 5291  11.241   5.140   8.493  0.1457 -0.5573 -0.4486
32171SOL    HW2 5292  11.207   5.110   8.637  0.4022  0.2627 -0.2132
32172SOL     OW 5293   0.072   2.505   2.095  0.2207 -0.3910  0.5771
32172SOL    HW1 5294   0.036   2.503   2.183  3.9159 -1.7677  2.2587
32172SOL    HW2 5295   0.091   2.597   2.078 -0.4374 -0.1305  1.2461
32173SOL     OW 5296   6.824  11.582   8.988 -0.9547 -0.2194  0.3608
32173SOL    HW1 5297   6.795  11.571   8.897 -1.2952  0.0517  0.4346
32173SOL    HW2 5298   6.812  11.675   9.006  0.5075  0.0225  0.2230
32174SOL     OW 5299  11.818   9.317   8.668  0.7912  0.2246 -0.5590
32174SOL    HW1 5300  11.812   9.270   8.751  1.2513  0.2503 -0.5102
32174SOL    HW2 5301  11.879   9.266   8.615  1.6066  0.9611 -0.3627
32175SOL     OW 5302  11.977  12.185   1.049  0.8781  0.4318 -0.0318
32175SOL    HW1 5303  11.937  12.121   1.107 -1.1704  0.2732 -1.5171
32175SOL    HW2 5304  12.070  12.183   1.071  0.7943 -2.5711  0.4367
32176SOL     OW 5305   0.958   1.778   1.245  0.2549  0.1213 -0.2219
32176SOL    HW1 5306   0.884   1.751   1.192 -0.0722  1.0968 -0.2686
32176SOL    HW2 5307   1.018   1.820   1.184  1.7867 -2.3208 -0.5768
32177SOL     OW 5308   6.089  11.465   5.899  0.2622 -0.1899  0.3187
32177SOL    HW1 5309   6.054  11.454   5.987 -0.4329 -0.5326  0.0138
32177SOL    HW2 5310   6.178  11.430   5.903  0.4800  0.4348  1.0476
32178SOL     OW 5311   3.560  10.669  12.428 -0.3056  0.1192 -0.2059
32178SOL    HW1 5312   3.642  10.669  12.380 -1.1084  2.0515 -1.7412
32178SOL    HW2 5313   3.580  10.713  12.511  0.0615  1.2843 -0.8958
32179SOL     OW 5314   1.117   4.061   8.010  0.1296  0.1630 -0.6943
32179SOL    HW1 5315   1.147   4.019   8.092 -0.5914 -0.4813 -0.7505
32179SOL    HW2 5316   1.023   4.071   8.021  0.4470  3.4880  0.0709
32180SOL     OW 5317   5.098   1.398   3.148  0.1554 -0.1748 -0.4248
32180SOL    HW1 5318   5.078   1.426   3.237  0.8734  0.4672 -0.4666
32180SOL    HW2 5319   5.130   1.476   3.103 -1.5473 -0.1236 -1.6772
32181SOL     OW 5320  11.303   3.355  11.417  0.4928  0.1119 -0.2752
32181SOL    HW1 5321  11.302   3.279  11.475  3.0268 -0.6107 -1.0461
32181SOL    HW2 5322  11.332   3.427  11.473  1.9617 -0.3757 -0.3635
32182SOL     OW 5323   2.278   3.334   8.641 -0.2096  0.1599  0.8441
32182SOL    HW1 5324   2.333   3.411   8.643  2.2013 -1.4821  2.0090
32182SOL    HW2 5325   2.267   3.309   8.733 -1.7477 -0.3901  0.5548
32183SOL     OW 5326   5.408   5.419  11.172 -0.0696 -0.2060  0.3313
32183SOL    HW1 5327   5.433   5.492  11.115  0.9284 -0.1497  0.8225
32183SOL    HW2 5328   5.313   5.426  11.179  0.1073  1.9026  1.4897
32184SOL     OW 5329  10.203   5.532   5.327 -0.5392 -0.1071 -0.3615
32184SOL    HW1 5330  10.273   5.571   5.274 -1.2895  1.1597 -0.4460
32184SOL    HW2 5331  10.249   5.484   5.395  0.4280  0.5870 -0.5016
32185SOL     OW 5332   2.826   4.916   4.216 -0.3065 -0.5169 -0.1161
32185SOL    HW1 5333   2.920   4.936   4.208 -0.2699 -0.5752  0.1670
32185SOL    HW2 5334   2.810   4.850   4.149  0.1271 -1.4530  0.6851
32186SOL     OW 5335   4.392   0.617  12.086  0.2672 -0.2660 -0.1886
32186SOL    HW1 5336   4.438   0.562  12.022 -0.3667 -0.1913 -0.7261
32186SOL    HW2 5337   4.452   0.689  12.103  0.4184 -0.2451 -0.7690
32187SOL     OW 5338   1.164   0.940   6.135  0.4616 -0.4025  0.3179
32187SOL    HW1 5339   1.078   0.932   6.177  0.2154 -1.8369 -0.3995
32187SOL    HW2 5340   1.226   0.938   6.208 -0.1061  2.1452  0.9839
32188SOL     OW 5341   0.394   9.445   8.927 -0.0764 -0.3018 -0.4374
32188SOL    HW1 5342   0.351   9.529   8.946  1.5794  0.9862 -1.9819
32188SOL    HW2 5343   0.326   9.379   8.941 -1.1933  1.1774  1.7673
32189SOL     OW 5344   4.888   3.865   4.836 -0.3571 -0.1443 -0.3856
32189SOL    HW1 5345   4.842   3.781   4.831 -0.6768  0.0331 -0.4647
32189SOL    HW2 5346   4.850   3.909   4.912  0.7252 -0.6020  0.4471
32190SOL     OW 5347   8.720   1.818   1.364 -0.3758 -0.5718 -0.3697
32190SOL    HW1 5348   8.726   1.896   1.419  2.3471  0.7988 -2.3342
32190SOL    HW2 5349   8.791   1.762   1.394  0.3959 -0.3220 -1.6246
32191SOL     OW 5350   5.823   8.764  12.339  0.1072  0.2190 -0.0202
32191SOL    HW1 5351   5.872   8.844  12.320  1.4594 -0.7359 -0.6812
32191SOL    HW2 5352   5.888   8.703  12.373 -0.7048 -0.9302 -0.4443
32192SOL     OW 5353   5.771   9.170   8.766 -0.2180  0.1205  0.1708
32192SOL    HW1 5354   5.795   9.262   8.770 -0.1559  0.0848  0.8385
32192SOL    HW2 5355   5.677   9.170   8.748 -0.3255  0.3316  0.7084
32193SOL     OW 5356   0.944   2.987   0.352 -0.5689  0.6830  0.1858
32193SOL    HW1 5357   1.019   3.008   0.409 -1.1247  1.7079  0.5607
32193SOL    HW2 5358   0.888   2.932   0.406 -0.9955  1.4855  0.5805
32194SOL     OW 5359   7.773   8.309   2.646 -0.2374 -0.3083  0.2717
32194SOL    HW1 5360   7.688   8.315   2.601 -1.1268 -1.4333  1.6993
32194SOL    HW2 5361   7.806   8.399   2.646  0.3727 -0.3968 -3.5290
32195SOL     OW 5362   0.704   1.015   3.034  0.1506  0.8338 -0.0798
32195SOL    HW1 5363   0.793   1.044   3.017 -0.2064  3.6092  1.9893
32195SOL    HW2 5364   0.713   0.939   3.091  1.1780  0.8099 -0.2564
32196SOL     OW 5365   8.948   8.545  12.278 -0.3203 -0.3377 -0.2840
32196SOL    HW1 5366   8.914   8.635  12.277 -0.6297 -0.4534 -0.2464
32196SOL    HW2 5367   8.941   8.518  12.370 -2.1759 -1.1302 -0.6129
32197SOL     OW 5368   6.532  11.997   3.645 -0.0366  0.1231  0.5755
32197SOL    HW1 5369   6.531  11.901   3.653  1.6778 -0.0221 -0.3691
32197SOL    HW2 5370   6.444  12.024   3.671 -0.8651 -1.7829 -0.0415
32198SOL     OW 5371   3.540  11.276   7.290 -0.1632  0.2083 -0.0656
32198SOL    HW1 5372   3.538  11.315   7.203 -2.5069 -1.0026 -0.6395
32198SOL    HW2 5373   3.473  11.322   7.340 -1.1629 -1.2685  0.0319
32199SOL     OW 5374  10.937   1.477   8.288 -0.0828 -0.7677  0.2880
32199SOL    HW1 5375  10.978   1.479   8.202 -1.7171  1.6784 -0.5170
32199SOL    HW2 5376  10.843   1.473   8.271 -0.4688  0.2041  1.9295
32200SOL     OW 5377   5.063   0.425   7.287  0.4568  0.1480  0.0440
32200SOL    HW1 5378   5.097   0.372   7.214  0.2338  0.9377 -0.6369
32200SOL    HW2 5379   4.989   0.472   7.251 -0.1471 -0.0402  1.0038
32201SOL     OW 5380   7.434   6.806   0.658 -0.5966 -0.2250 -0.3328
32201SOL    HW1 5381   7.399   6.867   0.593  0.5009  1.4686  0.5700
32201SOL    HW2 5382   7.383   6.824   0.737 -0.0611 -0.2477  0.0252
32202SOL     OW 5383   3.204   1.902   2.177  0.0651 -0.1663 -0.1661
32202SOL    HW1 5384   3.233   1.939   2.094  0.0721 -0.0440 -0.1098
32202SOL    HW2 5385   3.126   1.850   2.154  1.0186 -1.4957 -0.5053
32203SOL     OW 5386  10.223   7.480   0.093  0.2705 -0.7578 -0.2706
32203SOL    HW1 5387  10.237   7.573   0.077 -0.3243 -0.6827 -0.3731
32203SOL    HW2 5388  10.311   7.441   0.087  0.7256 -0.0202  1.1415
32204SOL     OW 5389   1.962   4.783   9.249  0.4671 -0.2196  0.0402
32204SOL    HW1 5390   2.045   4.739   9.268  0.6803  0.6825  1.3145
32204SOL    HW2 5391   1.973   4.871   9.286 -0.2824  0.6210 -1.6362
32205SOL     OW 5392  10.954   7.624   6.107 -0.4481 -0.1230 -0.7976
32205SOL    HW1 5393  11.030   7.592   6.057  0.7615 -1.2921  1.6164
32205SOL    HW2 5394  10.975   7.715   6.125  0.3318 -0.3905 -0.2900
32206SOL     OW 5395   2.169  12.482   7.633  0.1901 -0.1653 -0.7385
32206SOL    HW1 5396   2.201  12.558   7.681  1.0168 -0.7486 -0.3360
32206SOL    HW2 5397   2.086  12.510   7.596 -1.8849 -0.4204  3.1490
32207SOL     OW 5398   3.650   0.505   7.630 -0.4847  0.1957 -0.5939
32207SOL    HW1 5399   3.695   0.503   7.714 -1.2544  1.5545 -0.1354
32207SOL    HW2 5400   3.718   0.483   7.566 -0.2690 -2.6757  0.4784
32208SOL     OW 5401   7.011  10.399  12.219 -0.3697 -0.1663  0.5323
32208SOL    HW1 5402   7.012  10.474  12.160  0.4167  0.1169  0.8968
32208SOL    HW2 5403   6.930  10.408  12.269 -0.5962  0.0799  0.1304
32209SOL     OW 5404   4.877   0.507   4.118 -0.1625  0.0096  1.4199
32209SOL    HW1 5405   4.834   0.435   4.163  0.2659 -0.3305  1.2882
32209SOL    HW2 5406   4.851   0.585   4.167 -1.4419 -0.1014  0.9799
32210SOL     OW 5407   7.772  11.321   2.549  0.2298  0.0451  0.4213
32210SOL    HW1 5408   7.824  11.273   2.484  1.0826  2.3569 -0.7100
32210SOL    HW2 5409   7.837  11.366   2.603 -0.5330  0.8722  0.6695
32211SOL     OW 5410   0.155  11.597   5.093  0.2554 -0.9699  0.0334
32211SOL    HW1 5411   0.104  11.540   5.151 -0.5592 -1.9855 -1.5971
32211SOL    HW2 5412   0.181  11.540   5.021 -2.5564  1.0924 -2.8728
32212SOL     OW 5413  10.599   0.234   4.743  0.1269  0.1795 -0.6633
32212SOL    HW1 5414  10.622   0.191   4.661  0.6289  1.4844 -1.2419
32212SOL    HW2 5415  10.623   0.171   4.811 -0.1379 -0.8513 -1.4987
32213SOL     OW 5416   5.086   9.270   8.264  0.4298  0.2660 -0.0385
32213SOL    HW1 5417   5.102   9.290   8.356  0.7077 -0.3137  0.0433
32213SOL    HW2 5418   5.173   9.271   8.224  0.3952 -0.2660 -0.1318
32214SOL     OW 5419   0.874   7.984   4.774 -0.2864  0.1877  0.5393
32214SOL    HW1 5420   0.879   7.925   4.850  3.9132  0.7210  0.9220
32214SOL    HW2 5421   0.848   7.928   4.702 -0.3490 -1.2437  1.6262
32215SOL     OW 5422  11.661   0.019   6.558 -0.1167  0.2772  0.4770
32215SOL    HW1 5423  11.582   0.001   6.506 -1.3748  1.4891  1.8744
32215SOL    HW2 5424  11.698  -0.067   6.574 -0.0302 -0.1910 -1.8353
32216SOL     OW 5425   3.832   6.302   2.764 -0.0848 -0.2770 -0.2934
32216SOL    HW1 5426   3.870   6.382   2.800  0.7390 -1.0747  0.6463
32216SOL    HW2 5427   3.868   6.231   2.817 -0.9298 -1.2747 -0.9954
32217SOL     OW 5428   8.245   6.757   9.576  0.2255  0.0348 -0.1131
32217SOL    HW1 5429   8.216   6.826   9.516  0.4658  0.1182 -0.1359
32217SOL    HW2 5430   8.236   6.796   9.663  2.3457  0.8840 -0.2125
32218SOL     OW 5431   3.393   2.293   7.388  0.0191  0.1403 -0.3511
32218SOL    HW1 5432   3.427   2.380   7.371 -0.6433  0.1677 -1.7077
32218SOL    HW2 5433   3.470   2.236   7.387  0.7053  0.9057  2.4523
32219SOL     OW 5434   7.531   2.520  12.603  0.1355 -0.3251 -0.5093
32219SOL    HW1 5435   7.484   2.507  12.685  0.7873  1.4766  0.2179
32219SOL    HW2 5436   7.491   2.599  12.565  1.2349  0.0858 -0.8555
32220SOL     OW 5437   8.611   2.262   6.647  0.0054 -1.0272  0.2847
32220SOL    HW1 5438   8.671   2.245   6.574 -1.4901 -0.3526 -1.1704
32220SOL    HW2 5439   8.642   2.204   6.717  1.0976 -2.2131 -1.0947
32221SOL     OW 5440   9.307   4.506   4.234 -0.0977 -0.0195 -0.2420
32221SOL    HW1 5441   9.301   4.420   4.193 -3.6897  0.2988 -0.7837
32221SOL    HW2 5442   9.324   4.566   4.161  0.2749 -0.0639 -0.1933
32222SOL     OW 5443   3.071  11.062   0.263 -0.0063 -0.0792  0.7365
32222SOL    HW1 5444   3.102  11.147   0.295 -1.6452  0.4245  1.1118
32222SOL    HW2 5445   3.043  11.016   0.342 -0.3190 -0.4489  0.4119
32223SOL     OW 5446  11.773   6.005   9.896 -0.2243  0.0424 -0.0268
32223SOL    HW1 5447  11.841   5.976   9.957  0.7460  1.4487 -0.3819
32223SOL    HW2 5448  11.820   6.019   9.814 -0.6637  2.2796  0.0622
32224SOL     OW 5449   1.912   8.931  11.770 -0.3601 -0.0458  0.4183
32224SOL    HW1 5450   1.897   8.924  11.675  0.1476 -0.3762  0.3599
32224SOL    HW2 5451   1.870   8.853  11.806  0.6380 -0.6499  0.3169
32225SOL     OW 5452   2.210   2.339   2.616 -0.1300 -0.6692  0.5615
32225SOL    HW1 5453   2.233   2.302   2.701 -0.6944  0.4123  1.1988
32225SOL    HW2 5454   2.229   2.268   2.554 -0.5431 -1.7921  1.6667
32226SOL     OW 5455   5.797   7.516   8.944  0.4591  0.2197 -0.3000
32226SOL    HW1 5456   5.795   7.558   9.031  0.2342 -0.7574  0.1788
32226SOL    HW2 5457   5.756   7.580   8.886  0.7241  0.9406  0.2864
32227SOL     OW 5458   5.866   6.717   4.641  0.1485  0.2239 -0.3305
32227SOL    HW1 5459   5.786   6.685   4.601  0.7072 -1.4963 -0.1426
32227SOL    HW2 5460   5.931   6.712   4.571  0.2658  0.8783 -0.2720
32228SOL     OW 5461   3.386   2.431  10.720  0.3859 -0.4459 -0.4558
32228SOL    HW1 5462   3.298   2.450  10.687 -0.7443 -0.0540  2.4476
32228SOL    HW2 5463   3.372   2.405  10.811  3.4398  1.6343  0.7761
32229SOL     OW 5464   9.705   6.517   6.124  0.0583 -0.1772  0.0424
32229SOL    HW1 5465   9.653   6.452   6.173  1.5942 -0.8870  0.8003
32229SOL    HW2 5466   9.744   6.571   6.192 -0.6655  1.1560 -0.5734
32230SOL     OW 5467  10.820  11.263   3.498  0.3108 -0.0338 -0.5529
32230SOL    HW1 5468  10.890  11.259   3.563 -0.3560 -0.5637  0.1533
32230SOL    HW2 5469  10.863  11.288   3.416  1.4770 -1.3072 -0.3551
32231SOL     OW 5470   1.532   9.628   1.299  0.6625 -0.1600  0.4415
32231SOL    HW1 5471   1.443   9.652   1.275  1.2247  0.0705 -1.6671
32231SOL    HW2 5472   1.527   9.605   1.392 -1.2037  1.5790  0.8376
32232SOL     OW 5473   2.990   0.913   9.070 -0.0530  0.2968  0.2360
32232SOL    HW1 5474   3.081   0.891   9.054  0.4578  1.9128  0.6847
32232SOL    HW2 5475   2.990   1.008   9.082 -1.4550  0.0954  2.4196
32233SOL     OW 5476  12.511   8.403   6.715 -0.8744  1.0575  0.4976
32233SOL    HW1 5477  12.558   8.419   6.797  0.1421  1.1933 -0.0886
32233SOL    HW2 5478  12.508   8.308   6.708 -1.0641  1.0453  0.7538
32234SOL     OW 5479  10.250   1.151  12.245  0.8215 -0.1322 -0.5802
32234SOL    HW1 5480  10.290   1.197  12.319  0.0468  0.6907 -0.6538
32234SOL    HW2 5481  10.269   1.206  12.169 -0.0511  0.0450 -0.6833
32235SOL     OW 5482   3.592   3.284   1.010  0.1124 -0.7433  0.0413
32235SOL    HW1 5483   3.672   3.257   0.964  0.4555 -0.9343  0.7389
32235SOL    HW2 5484   3.623   3.317   1.094 -0.4874 -0.0947  0.0129
32236SOL     OW 5485   3.228   0.629  10.165 -0.0515  0.6963 -0.0362
32236SOL    HW1 5486   3.170   0.553  10.174  1.1220 -0.0372  2.0543
32236SOL    HW2 5487   3.313   0.591  10.142  0.2859  1.4839 -0.1042
32237SOL     OW 5488   0.600   1.509   4.210  0.6679 -0.3844  0.7402
32237SOL    HW1 5489   0.615   1.454   4.286  0.7717 -0.8179  0.4138
32237SOL    HW2 5490   0.540   1.577   4.240  1.4673  0.0244  1.4579
32238SOL     OW 5491   3.988   0.916   1.244 -0.1280 -0.4761  0.3348
32238SOL    HW1 5492   4.083   0.928   1.236 -0.1076 -0.8075  0.0342
32238SOL    HW2 5493   3.977   0.823   1.262 -0.4830 -0.8331 -1.5159
32239SOL     OW 5494  11.908   1.395   1.845 -0.4715 -0.2862  0.7827
32239SOL    HW1 5495  11.977   1.409   1.779  0.9055 -2.4871  1.6578
32239SOL    HW2 5496  11.844   1.464   1.827  1.4461  1.2175 -0.7334
32240SOL     OW 5497   3.887   7.389   5.235  0.7931  0.3605 -0.1805
32240SOL    HW1 5498   3.895   7.294   5.228  0.5860  0.3493 -0.2861
32240SOL    HW2 5499   3.946   7.413   5.306  1.6749  0.2742 -0.8605
32241SOL     OW 5500   2.599   8.742  10.987  0.1873 -0.4458 -0.3919
32241SOL    HW1 5501   2.530   8.799  11.021  0.4164  0.1053 -0.8371
32241SOL    HW2 5502   2.673   8.800  10.973  0.9652 -1.1318  0.6840
32242SOL     OW 5503   6.657   1.573   3.775  0.1461 -0.0596  0.3446
32242SOL    HW1 5504   6.666   1.622   3.856  0.7327  1.8060 -0.7964
32242SOL    HW2 5505   6.741   1.528   3.765 -0.1321 -0.7593  1.0298
32243SOL     OW 5506   3.629   9.981   6.150  0.0558  0.0970  0.2156
32243SOL    HW1 5507   3.650   9.896   6.188 -1.7899  0.1090  1.4097
32243SOL    HW2 5508   3.702  10.000   6.091  1.6339 -1.2372  1.6339
32244SOL     OW 5509   3.922  11.553   4.598 -0.2156 -0.0089  0.1215
32244SOL    HW1 5510   3.991  11.502   4.555  0.2894 -0.2838  1.2301
32244SOL    HW2 5511   3.948  11.644   4.582 -0.2144 -0.1042 -0.4372
32245SOL     OW 5512   7.374   2.782   0.359 -0.4784  0.2716 -0.4702
32245SOL    HW1 5513   7.367   2.876   0.375 -1.8766  0.5619 -2.3528
32245SOL    HW2 5514   7.468   2.766   0.349 -0.2891  1.7155 -1.2940
32246SOL     OW 5515   3.873   2.092   0.307 -0.0766 -0.2814  0.4437
32246SOL    HW1 5516   3.802   2.146   0.271 -1.2592 -1.2130  1.2836
32246SOL    HW2 5517   3.939   2.089   0.238 -0.1281  1.9184  0.2330
32247SOL     OW 5518   6.961   1.731   8.931 -0.5267  0.0257 -0.0021
32247SOL    HW1 5519   6.968   1.636   8.920 -1.5937  0.0888 -1.5166
32247SOL    HW2 5520   6.974   1.745   9.024 -0.8700 -1.6647  0.3359
32248SOL     OW 5521   5.015   3.058   5.990  0.2977 -0.3052  0.3093
32248SOL    HW1 5522   5.010   3.031   5.898 -1.0083  0.8838 -0.0063
32248SOL    HW2 5523   4.932   3.028   6.028  0.4504 -0.0215  0.8772
32249SOL     OW 5524   0.093  12.302   0.523 -0.6968 -0.3841  0.1260
32249SOL    HW1 5525   0.066  12.229   0.468 -1.0057 -0.7074  0.7068
32249SOL    HW2 5526   0.086  12.379   0.466 -1.2353 -0.6844 -0.2144
32250SOL     OW 5527   3.260   9.326  11.080 -0.1269 -0.6882 -0.2751
32250SOL    HW1 5528   3.289   9.387  11.147 -1.5307  0.1727 -0.4166
32250SOL    HW2 5529   3.320   9.339  11.007 -1.1640  1.4720 -0.7955
32251SOL     OW 5530   7.272   4.648  10.823  0.1521  0.0530  0.1673
32251SOL    HW1 5531   7.318   4.705  10.885  0.8630 -1.1500  0.7931
32251SOL    HW2 5532   7.339   4.621  10.761 -0.4351  0.7886 -0.8168
32252SOL     OW 5533   5.877  10.856   1.622 -0.8888 -0.6925 -0.5009
32252SOL    HW1 5534   5.792  10.891   1.597 -0.4685 -0.4208 -1.6007
32252SOL    HW2 5535   5.868  10.761   1.611 -1.7690 -0.9244  1.6932
32253SOL     OW 5536   6.735  10.868   2.858  0.5573  0.2007 -0.1787
32253SOL    HW1 5537   6.706  10.901   2.774  0.1446 -0.0537 -0.1403
32253SOL    HW2 5538   6.666  10.892   2.919  1.9750  2.6398  0.6237
32254SOL     OW 5539   9.068   3.016   1.962  0.3944 -0.0720 -0.0307
32254SOL    HW1 5540   9.016   3.091   1.934  1.1114 -0.1173 -1.5798
32254SOL    HW2 5541   9.095   2.973   1.881  1.2480 -1.1453  0.7831
32255SOL     OW 5542   4.767   8.088  12.225 -0.0317  0.3849  0.6573
32255SOL    HW1 5543   4.681   8.108  12.260 -0.3830  1.4147 -0.7227
32255SOL    HW2 5544   4.756   8.089  12.130  1.9647  2.9594  0.3310
32256SOL     OW 5545   8.563   2.356   0.410  0.3567  0.2575 -0.3164
32256SOL    HW1 5546   8.561   2.446   0.376  2.0982  0.1723 -0.7741
32256SOL    HW2 5547   8.655   2.342   0.432  0.1607 -1.5169 -0.5360
32257SOL     OW 5548   0.012   7.691   6.128 -0.3403  0.1924 -0.3503
32257SOL    HW1 5549  -0.009   7.611   6.080 -0.8171 -0.3181  0.6777
32257SOL    HW2 5550   0.080   7.733   6.076  0.0542 -0.9781 -0.8061
32258SOL     OW 5551   5.689  10.114  10.311  0.3817 -0.2818 -0.2446
32258SOL    HW1 5552   5.773  10.073  10.333  1.2857  1.3974 -0.4026
32258SOL    HW2 5553   5.650  10.136  10.396  0.9492  0.5130 -0.1693
32259SOL     OW 5554   0.147   4.857   4.310  0.0310 -0.0345  0.0497
32259SOL    HW1 5555   0.145   4.859   4.214 -0.9309  0.1744  0.0636
32259SOL    HW2 5556   0.071   4.909   4.336  0.6250  0.4047  0.9330
32260SOL     OW 5557   4.400   3.218  10.002 -0.0122 -0.0684  0.1540
32260SOL    HW1 5558   4.334   3.149  10.005  1.3991 -1.5448 -0.9508
32260SOL    HW2 5559   4.425   3.232  10.094  0.1522 -1.5299  0.3530
32261SOL     OW 5560   4.645   5.989  10.915  0.2418  0.0166  0.3251
32261SOL    HW1 5561   4.585   5.993  10.989  0.2882 -2.4161  0.5919
32261SOL    HW2 5562   4.646   5.896  10.891  1.7625  0.4427 -1.4472
32262SOL     OW 5563   2.730  10.318   4.331 -0.2761 -0.2008 -0.1091
32262SOL    HW1 5564   2.685  10.279   4.257 -0.9335  0.4596 -0.0739
32262SOL    HW2 5565   2.683  10.286   4.408 -0.0544 -0.3099 -0.0198
32263SOL     OW 5566  11.317   1.013   0.491 -0.2091  1.1340  0.0594
32263SOL    HW1 5567  11.320   0.958   0.569 -0.3573 -1.0979 -1.4044
32263SOL    HW2 5568  11.368   1.090   0.514  2.2112 -0.7264  1.4410
32264SOL     OW 5569   4.747   8.458   2.802 -0.2453 -0.2156  0.4264
32264SOL    HW1 5570   4.810   8.390   2.782 -1.1014 -0.9723  0.2444
32264SOL    HW2 5571   4.714   8.486   2.716  1.9731  2.3144  0.2686
32265SOL     OW 5572   3.439  11.282  12.006 -0.7489 -0.1247  0.3821
32265SOL    HW1 5573   3.490  11.268  11.926 -1.0085  0.1706  0.1577
32265SOL    HW2 5574   3.355  11.240  11.988 -0.2727 -1.4454  1.1144
32266SOL     OW 5575  11.399   9.243   3.617 -0.2720  0.1180  0.3666
32266SOL    HW1 5576  11.440   9.327   3.635 -1.5795  0.9650 -0.4611
32266SOL    HW2 5577  11.436   9.216   3.532 -1.4520  0.9474 -0.4466
32267SOL     OW 5578  10.376   6.570   2.486 -0.3058 -0.1453 -0.0987
32267SOL    HW1 5579  10.329   6.633   2.431  0.4672  0.9484  0.4655
32267SOL    HW2 5580  10.466   6.573   2.456  0.5108  1.7767  2.3075
32268SOL     OW 5581   7.971   4.028   8.244 -0.4732  0.2793 -0.2721
32268SOL    HW1 5582   7.987   4.107   8.295  1.7935 -0.0010 -0.4506
32268SOL    HW2 5583   7.984   3.956   8.307  1.4680 -0.0380 -0.9719
32269SOL     OW 5584   1.834  11.308   8.142  0.2919  0.1795 -0.0250
32269SOL    HW1 5585   1.748  11.269   8.127  0.4867 -0.2365 -0.0947
32269SOL    HW2 5586   1.895  11.248   8.099  0.4839  1.4068 -1.5628
32270SOL     OW 5587  12.328   8.007   6.863 -0.2680  0.7678 -0.4280
32270SOL    HW1 5588  12.309   8.028   6.771  0.6919  2.8479 -0.1940
32270SOL    HW2 5589  12.345   8.091   6.904 -0.7366 -0.1195  1.7124
32271SOL     OW 5590   5.666   3.705   8.132  0.1459  0.5723 -0.3098
32271SOL    HW1 5591   5.700   3.669   8.050 -1.4933  0.1638 -0.8612
32271SOL    HW2 5592   5.734   3.687   8.196  0.2315 -1.8194 -0.9648
32272SOL     OW 5593   2.518   4.352   6.858 -0.0015  0.4230 -0.4073
32272SOL    HW1 5594   2.433   4.396   6.856 -0.1190  0.1851 -0.9705
32272SOL    HW2 5595   2.503   4.270   6.811  0.1365 -0.3715  0.8838
32273SOL     OW 5596   3.060   8.989   2.038 -0.6326  0.0614  0.0636
32273SOL    HW1 5597   3.065   9.078   2.073 -1.4810  1.0203 -2.1175
32273SOL    HW2 5598   3.147   8.973   2.001 -0.2906 -0.2910  0.9707
32274SOL     OW 5599   1.394   7.771   0.201 -0.3404 -0.7179  0.0050
32274SOL    HW1 5600   1.436   7.839   0.254 -1.0664 -0.2123 -0.0508
32274SOL    HW2 5601   1.340   7.820   0.139 -1.3371 -1.3590  0.3565
32275SOL     OW 5602   4.857   8.170   3.566  0.2840 -0.0454  0.2612
32275SOL    HW1 5603   4.929   8.226   3.594  1.7611 -0.6355 -2.0754
32275SOL    HW2 5604   4.811   8.221   3.500  0.4284 -0.7876 -0.4319
32276SOL     OW 5605   0.023   6.843   4.422  0.6151  0.0802  0.2188
32276SOL    HW1 5606  -0.066   6.873   4.403  1.0743  0.3378 -1.7760
32276SOL    HW2 5607   0.013   6.783   4.496 -1.4175 -0.9122 -0.7773
32277SOL     OW 5608   3.620   3.773  10.638 -0.5813  0.3853  0.4438
32277SOL    HW1 5609   3.568   3.702  10.675 -2.4752  1.6242  0.2765
32277SOL    HW2 5610   3.623   3.755  10.544 -0.2482  0.0424  0.5175
32278SOL     OW 5611  11.139   0.071   4.061 -0.2899 -0.0413  0.6312
32278SOL    HW1 5612  11.137   0.063   3.966  3.2513  0.7239  0.3378
32278SOL    HW2 5613  11.102  -0.012   4.093  0.4744 -1.2850 -1.4820
32279SOL     OW 5614   0.234   6.993   4.332  0.2639 -0.1521 -0.6974
32279SOL    HW1 5615   0.208   7.024   4.245 -1.1634  2.0299  0.4004
32279SOL    HW2 5616   0.162   6.936   4.359 -0.3427  0.8345 -0.1658
32280SOL     OW 5617   1.089   1.476   6.921 -0.8046  0.1491 -0.1371
32280SOL    HW1 5618   1.029   1.404   6.941  0.9412 -1.6134 -0.9541
32280SOL    HW2 5619   1.176   1.442   6.942  0.0775  2.0976 -0.3694
32281SOL     OW 5620   6.249   6.153   0.664  0.4324  0.6710 -0.2449
32281SOL    HW1 5621   6.266   6.063   0.692  0.1908  0.4384 -0.8115
32281SOL    HW2 5622   6.321   6.174   0.605 -0.2110  0.3466 -1.1865
32282SOL     OW 5623   2.817   7.365   1.028 -0.2889  0.2340 -0.2153
32282SOL    HW1 5624   2.891   7.418   1.055 -0.2010  1.2652 -2.3576
32282SOL    HW2 5625   2.825   7.285   1.081  2.8447 -0.0793 -0.9819
32283SOL     OW 5626   4.284   1.142   5.454 -0.0272  0.4988 -0.0473
32283SOL    HW1 5627   4.371   1.125   5.488 -0.4719  0.0018  0.8704
32283SOL    HW2 5628   4.299   1.194   5.375  1.0326  1.6016  0.8370
32284SOL     OW 5629   3.836  10.984   9.032  0.4098 -0.3348 -0.3147
32284SOL    HW1 5630   3.764  11.006   9.091  1.3850  0.1773  0.7298
32284SOL    HW2 5631   3.797  10.927   8.967 -1.8941  3.0106 -2.1619
32285SOL     OW 5632   0.157   0.963   8.196 -0.1133 -0.1711 -0.1612
32285SOL    HW1 5633   0.164   0.868   8.184 -1.5729 -0.3348  0.1024
32285SOL    HW2 5634   0.185   1.000   8.112 -0.6850 -0.8813 -0.6688
32286SOL     OW 5635   7.194   1.079   6.274 -0.0648  0.2046 -0.0604
32286SOL    HW1 5636   7.158   1.115   6.355  0.5169 -0.3302  0.4477
32286SOL    HW2 5637   7.288   1.089   6.283  0.0504 -0.5607 -0.3184
32287SOL     OW 5638  11.464   5.232   2.002  0.7470  0.5277 -0.0951
32287SOL    HW1 5639  11.445   5.264   2.090  0.4445  1.1092 -0.3699
32287SOL    HW2 5640  11.537   5.171   2.015 -0.8901 -1.3653  0.9109
32288SOL     OW 5641   4.400   8.377   1.947  0.3008  0.1260 -0.9997
32288SOL    HW1 5642   4.382   8.285   1.964  2.2268 -0.2196 -0.5756
32288SOL    HW2 5643   4.496   8.382   1.940  0.2999  2.2295 -0.1636
32289SOL     OW 5644  12.388   0.817   7.328  0.2620  0.2438 -0.0583
32289SOL    HW1 5645  12.344   0.895   7.294  0.8300  0.4968 -0.2239
32289SOL    HW2 5646  12.338   0.744   7.291  0.2698  0.5231 -0.6420
32290SOL     OW 5647  11.340   5.856  12.594  0.2843  0.1322 -0.2689
32290SOL    HW1 5648  11.361   5.763  12.600 -0.2546  0.0414  0.4204
32290SOL    HW2 5649  11.415   5.901  12.635  0.7802  0.0416 -1.0640
32291SOL     OW 5650   6.582   4.322   3.562  0.9142  0.2501 -0.4802
32291SOL    HW1 5651   6.661   4.268   3.567  0.5973 -0.1082  1.6840
32291SOL    HW2 5652   6.543   4.316   3.650 -1.4660  0.4946 -1.4381
32292SOL     OW 5653   2.028   4.343  12.099  0.4812 -0.2889  0.4078
32292SOL    HW1 5654   2.016   4.382  12.013 -1.1704 -3.0646 -0.7473
32292SOL    HW2 5655   1.978   4.400  12.158  0.4864  0.8829 -0.6684
32293SOL     OW 5656   0.815  11.739   0.151  0.9098  0.0147 -0.3714
32293SOL    HW1 5657   0.879  11.721   0.082  1.5989 -0.0387  0.2763
32293SOL    HW2 5658   0.730  11.729   0.107  1.3232 -0.7728 -1.0254
32294SOL     OW 5659   6.639   9.085   2.792  0.5774 -0.1524 -0.2511
32294SOL    HW1 5660   6.682   9.119   2.870  0.2335  0.1465 -0.1898
32294SOL    HW2 5661   6.629   9.161   2.735  0.8319 -0.3698 -0.5893
32295SOL     OW 5662   0.341   5.679   0.444  0.2012 -0.1375  0.4550
32295SOL    HW1 5663   0.285   5.753   0.464 -0.0637  0.4068 -1.9675
32295SOL    HW2 5664   0.283   5.603   0.446  0.1106 -0.0471  1.2787
32296SOL     OW 5665   1.324   1.779   9.691 -0.4664 -0.5635 -0.2531
32296SOL    HW1 5666   1.251   1.726   9.724  0.6417 -1.5960  0.6248
32296SOL    HW2 5667   1.300   1.799   9.600 -2.2763 -0.0550  0.2969
32297SOL     OW 5668   9.967  10.992   8.128 -0.3189  0.2448 -0.5094
32297SOL    HW1 5669   9.952  11.040   8.209 -1.0932  0.8569 -1.0056
32297SOL    HW2 5670   9.954  10.900   8.152 -0.4037  0.4099  0.0907
32298SOL     OW 5671   0.847   7.156   1.890  0.1693  0.8629 -0.2419
32298SOL    HW1 5672   0.761   7.127   1.858  0.8623  0.5359 -1.9524
32298SOL    HW2 5673   0.827   7.216   1.961 -1.4351 -0.3561  0.4096
32299SOL     OW 5674  11.530   4.738   8.629 -0.2811 -0.1189 -0.4910
32299SOL    HW1 5675  11.494   4.805   8.687 -0.2338 -0.8896  0.4465
32299SOL    HW2 5676  11.475   4.743   8.551  0.8135  2.2185 -1.2235
32300SOL     OW 5677  11.028   2.104   7.468  0.3053  0.4631 -0.0980
32300SOL    HW1 5678  11.062   2.157   7.395 -1.3560  1.4620 -0.2186
32300SOL    HW2 5679  11.046   2.156   7.546  2.7144 -0.9285  0.3486
32301SOL     OW 5680   1.961   3.023   4.480  0.3326  0.0235 -0.2640
32301SOL    HW1 5681   1.943   3.111   4.511  0.3283  0.4844 -1.5082
32301SOL    HW2 5682   2.013   2.983   4.550 -0.1914  0.7919  0.5842
32302SOL     OW 5683   0.960   9.834   1.196 -0.6672  0.1367  0.0483
32302SOL    HW1 5684   0.917   9.847   1.112 -0.2456 -0.7141 -0.3097
32302SOL    HW2 5685   0.992   9.744   1.194 -0.3591  0.2062  0.9859
32303SOL     OW 5686   3.287   4.247   1.254 -0.0002 -0.1023 -0.2348
32303SOL    HW1 5687   3.344   4.283   1.323 -0.3555  0.5328 -0.2589
32303SOL    HW2 5688   3.267   4.158   1.283  1.0227 -0.3426 -0.2405
32304SOL     OW 5689   2.657   6.506   8.599 -0.2309  0.1924 -0.3800
32304SOL    HW1 5690   2.643   6.552   8.516 -0.0523  2.4356  0.7723
32304SOL    HW2 5691   2.752   6.500   8.607 -0.2053  1.2618  0.2989
32305SOL     OW 5692  11.258   5.321  10.039  0.4102  0.0535 -0.0162
32305SOL    HW1 5693  11.224   5.397  10.087  1.2577  0.4615 -0.0461
32305SOL    HW2 5694  11.316   5.359   9.973  1.6956 -0.6705  0.6629
32306SOL     OW 5695  10.938   4.478   2.188  0.7042  0.3162  0.4329
32306SOL    HW1 5696  10.915   4.568   2.162  0.5795  0.7058  1.8484
32306SOL    HW2 5697  10.935   4.429   2.106 -0.2187  1.3956 -0.2098
32307SOL     OW 5698  10.790  10.182   2.757  0.1739  0.4495 -0.1657
32307SOL    HW1 5699  10.725  10.121   2.722 -0.1650  0.3249  0.6529
32307SOL    HW2 5700  10.807  10.151   2.846 -0.1804  1.6757  0.3537
32308SOL     OW 5701   1.905   3.695   4.390 -0.1209 -0.0061  0.4991
32308SOL    HW1 5702   1.826   3.732   4.431  0.2331  2.1026 -0.5720
32308SOL    HW2 5703   1.976   3.751   4.422  0.2436  1.3227 -2.3456
32309SOL     OW 5704   0.533   5.836   5.606  0.1931 -0.0832  0.2127
32309SOL    HW1 5705   0.508   5.910   5.551  1.3245 -0.2756 -0.5978
32309SOL    HW2 5706   0.627   5.846   5.620  0.0712 -0.4600  1.5087
32310SOL     OW 5707   6.932   2.582   4.005  0.0982  0.1728  0.5590
32310SOL    HW1 5708   6.849   2.575   4.053 -0.5146  0.6344 -0.4093
32310SOL    HW2 5709   6.994   2.615   4.070 -0.2884 -0.8351  1.4856
32311SOL     OW 5710  10.705   7.696   6.222  0.1196 -0.7255 -0.6843
32311SOL    HW1 5711  10.696   7.789   6.244  1.8198 -0.6700 -0.0520
32311SOL    HW2 5712  10.790   7.690   6.178  0.4181 -2.0840  0.0151
32312SOL     OW 5713  12.208   0.097   8.998  0.2164  0.4495  0.3127
32312SOL    HW1 5714  12.193   0.109   8.904 -0.6940  1.3957  0.5427
32312SOL    HW2 5715  12.299   0.123   9.012 -0.1637  2.1044 -0.0614
32313SOL     OW 5716   9.774   0.335  10.933  0.1323 -0.2380 -0.0233
32313SOL    HW1 5717   9.840   0.405  10.929  0.3105 -0.3694  0.5432
32313SOL    HW2 5718   9.807   0.276  11.000  0.3762 -1.2711 -1.0149
32314SOL     OW 5719   0.383   7.102   8.577  0.1593 -0.2529 -0.3476
32314SOL    HW1 5720   0.410   7.194   8.571 -0.1460 -0.1257  0.1227
32314SOL    HW2 5721   0.464   7.053   8.572  0.3361  0.0503 -0.5034
32315SOL     OW 5722  10.689   4.931   9.330 -0.4215 -0.5194  0.6224
32315SOL    HW1 5723  10.619   4.980   9.287  0.7745  1.7214  1.0923
32315SOL    HW2 5724  10.663   4.928   9.422 -0.6459 -1.1025  0.5470
32316SOL     OW 5725   2.131   7.452   3.068 -0.0042  0.2793 -0.1862
32316SOL    HW1 5726   2.058   7.400   3.100  1.1325 -0.7300  0.8502
32316SOL    HW2 5727   2.101   7.486   2.983 -0.3019 -3.2561 -1.6392
32317SOL     OW 5728   0.932   1.393   9.482  0.3855 -0.6087 -0.1662
32317SOL    HW1 5729   0.974   1.322   9.433  0.5905 -1.1572  0.7692
32317SOL    HW2 5730   0.891   1.349   9.557 -1.0744  0.0316 -0.5438
32318SOL     OW 5731   9.240   3.765   7.386  0.1881 -0.1364  0.3154
32318SOL    HW1 5732   9.211   3.678   7.361 -1.8302  0.7023 -0.4760
32318SOL    HW2 5733   9.171   3.799   7.443 -0.3016  1.8246 -1.3270
32319SOL     OW 5734   5.217   3.373   1.803 -0.6346 -0.5534  0.6373
32319SOL    HW1 5735   5.207   3.290   1.850 -1.4699 -0.2707  0.9880
32319SOL    HW2 5736   5.301   3.407   1.834 -1.1615 -0.3731  1.9612
32320SOL     OW 5737  11.804  11.634   0.998  0.2663 -0.2629 -0.5982
32320SOL    HW1 5738  11.739  11.704   0.993 -0.0470 -0.5490 -0.5316
32320SOL    HW2 5739  11.866  11.664   1.064  1.0165  0.6859 -1.6891
32321SOL     OW 5740   6.755   6.814  11.802 -0.4554  0.3819  0.6001
32321SOL    HW1 5741   6.785   6.732  11.762 -1.1663  0.9313 -1.1526
32321SOL    HW2 5742   6.809   6.824  11.880  0.2842 -1.2844  0.3393
32322SOL     OW 5743   2.343   3.107   7.149 -0.2411  0.2223 -0.2204
32322SOL    HW1 5744   2.394   3.087   7.070  0.9932  0.6555  0.4505
32322SOL    HW2 5745   2.383   3.053   7.217 -0.9266  0.2886  0.2364
32323SOL     OW 5746   3.422   4.753   0.127 -0.1373  1.0626 -0.3825
32323SOL    HW1 5747   3.435   4.739   0.033  0.1551  1.0158 -0.3366
32323SOL    HW2 5748   3.510   4.767   0.162  0.0984 -1.7173  0.3536
32324SOL     OW 5749   8.852   1.407  10.599 -0.7425  0.2970  0.5486
32324SOL    HW1 5750   8.790   1.394  10.671  0.8809 -0.2929  1.9138
32324SOL    HW2 5751   8.914   1.471  10.633  0.8803 -1.0581  0.2398
32325SOL     OW 5752   1.611   8.811   1.766  0.1298 -0.1266  0.6515
32325SOL    HW1 5753   1.630   8.847   1.853  0.2426 -0.1480  0.6352
32325SOL    HW2 5754   1.599   8.888   1.710  2.8893 -0.0403  0.0232
32326SOL     OW 5755   1.337   1.926  10.240  0.3809  0.1024  0.2008
32326SOL    HW1 5756   1.293   1.950  10.322 -0.3103 -1.2403  0.2422
32326SOL    HW2 5757   1.347   2.009  10.193 -0.8815  0.6359  0.8396
32327SOL     OW 5758   2.032   7.233   0.763  0.2228  0.1011  0.3051
32327SOL    HW1 5759   2.008   7.207   0.674  0.8456 -2.4928  0.8328
32327SOL    HW2 5760   2.090   7.308   0.751 -2.0838  1.8209 -1.2860
32328SOL     OW 5761  10.775   0.975   2.277  0.6509 -0.0699 -0.7296
32328SOL    HW1 5762  10.722   0.896   2.278  1.0421 -0.4113  2.5011
32328SOL    HW2 5763  10.719   1.041   2.236 -1.2608 -1.0627  0.1665
32329SOL     OW 5764   1.186   0.364   9.121  0.8074 -0.5015 -0.2776
32329SOL    HW1 5765   1.264   0.321   9.158  1.3817 -1.1702 -2.1506
32329SOL    HW2 5766   1.211   0.456   9.113  2.2070 -1.0079 -2.6489
32330SOL     OW 5767   4.959  11.686   1.617 -0.1497 -0.2312 -0.4887
32330SOL    HW1 5768   4.979  11.777   1.596  1.0621 -0.2627  0.3942
32330SOL    HW2 5769   5.045  11.646   1.634 -0.6066 -1.6697 -1.3393
32331SOL     OW 5770   3.673   0.555   8.262 -0.3256 -0.2700 -0.5835
32331SOL    HW1 5771   3.706   0.604   8.338  1.2956 -0.7350 -0.9516
32331SOL    HW2 5772   3.620   0.484   8.300 -0.2771  0.0378  0.0699
32332SOL     OW 5773   5.924   8.848   3.338 -0.0723 -0.2757  0.1249
32332SOL    HW1 5774   6.016   8.830   3.319 -0.3632 -0.2727 -1.4943
32332SOL    HW2 5775   5.916   8.943   3.329 -0.1165 -0.2003  0.8949
32333SOL     OW 5776   4.461  11.371   0.791 -0.5159  0.7514 -0.0620
32333SOL    HW1 5777   4.484  11.331   0.875 -0.2291  0.8337 -0.0996
32333SOL    HW2 5778   4.430  11.459   0.813  0.9855  1.3313 -0.1524
32334SOL     OW 5779   3.344   6.102   9.082  0.6196 -0.1880  0.2340
32334SOL    HW1 5780   3.383   6.167   9.141 -0.2356  1.3977 -0.8492
32334SOL    HW2 5781   3.271   6.066   9.131 -0.3958  1.4837  0.0380
32335SOL     OW 5782   0.868   3.147   2.867  0.5634 -0.1895 -0.3995
32335SOL    HW1 5783   0.841   3.065   2.910 -2.8780  0.9165 -0.1116
32335SOL    HW2 5784   0.861   3.213   2.936  0.1448  0.8122 -1.3781
32336SOL     OW 5785   0.408   9.813   1.670  0.3070  0.2482 -0.2543
32336SOL    HW1 5786   0.418   9.758   1.592 -0.7325 -2.2723  1.2693
32336SOL    HW2 5787   0.335   9.872   1.648 -1.4677 -1.9054 -0.4947
32337SOL     OW 5788   0.471   6.710   4.211 -0.7926 -0.3907 -0.6995
32337SOL    HW1 5789   0.484   6.615   4.217 -1.0716 -0.4580 -1.0973
32337SOL    HW2 5790   0.410   6.731   4.281 -0.6659 -0.4915 -0.5574
32338SOL     OW 5791   1.424   9.185   2.706 -0.5499  0.4551  0.1369
32338SOL    HW1 5792   1.389   9.133   2.633 -0.3456  0.6715 -0.1191
32338SOL    HW2 5793   1.518   9.170   2.703 -0.5230  0.5978  0.2496
32339SOL     OW 5794   0.909   7.212   4.521  0.4660 -0.1260  0.4774
32339SOL    HW1 5795   0.975   7.166   4.573 -0.0594 -0.9112  0.4761
32339SOL    HW2 5796   0.857   7.142   4.481  0.5546  0.4668 -0.7225
32340SOL     OW 5797   9.959   0.168   0.269  0.0674 -0.0551  0.2720
32340SOL    HW1 5798   9.957   0.099   0.335 -0.0829 -1.2467 -0.9427
32340SOL    HW2 5799  10.027   0.228   0.299  0.4204 -0.8870  1.1930
32341SOL     OW 5800   9.162   6.358   0.788 -0.3479  0.3849 -0.1739
32341SOL    HW1 5801   9.184   6.268   0.765  0.2876 -0.0143  1.8488
32341SOL    HW2 5802   9.067   6.362   0.778 -0.1416  0.4573 -3.2967
32342SOL     OW 5803   3.699   6.090   6.050 -0.2274  0.0564 -0.1075
32342SOL    HW1 5804   3.755   6.167   6.059  0.5604 -0.7049  2.3310
32342SOL    HW2 5805   3.759   6.016   6.060 -1.6088 -0.7801  3.0040
32343SOL     OW 5806   0.111   5.568   4.356  0.4376  0.4361 -0.7541
32343SOL    HW1 5807   0.152   5.492   4.397 -1.0616  1.7129  3.7223
32343SOL    HW2 5808   0.173   5.640   4.373 -1.1644  1.3999  1.4890
32344SOL     OW 5809   0.018   0.368   8.095  0.1012 -0.2289 -0.3435
32344SOL    HW1 5810   0.069   0.295   8.130 -0.6536 -1.0339 -0.8793
32344SOL    HW2 5811   0.078   0.414   8.037  0.3183 -0.9914 -0.7379
32345SOL     OW 5812   5.776   3.491  11.167  0.3367  0.9838 -0.0341
32345SOL    HW1 5813   5.759   3.482  11.261  0.8512 -0.3241 -0.0452
32345SOL    HW2 5814   5.849   3.553  11.161  0.3948  0.9615  0.4361
32346SOL     OW 5815   6.119   1.281   8.232  0.3660  0.0974 -0.2077
32346SOL    HW1 5816   6.156   1.237   8.309  0.8477 -1.2528 -1.1711
32346SOL    HW2 5817   6.179   1.353   8.215  1.8388 -1.2171 -0.8946
32347SOL     OW 5818   1.264   6.272   2.612 -0.2398 -0.1711  0.4173
32347SOL    HW1 5819   1.204   6.203   2.642 -0.8380  0.9524  1.8859
32347SOL    HW2 5820   1.221   6.310   2.536  0.1221 -1.4131 -0.4498
32348SOL     OW 5821   5.733   2.893   6.614  0.1788 -1.0625  0.3436
32348SOL    HW1 5822   5.790   2.827   6.573  0.7042 -0.2251 -0.3003
32348SOL    HW2 5823   5.651   2.887   6.565  1.4903  1.4631 -2.5081
32349SOL     OW 5824   6.603  12.390   1.715  0.3299  0.5015 -0.2510
32349SOL    HW1 5825   6.654  12.362   1.791 -0.3022 -0.3276 -0.1228
32349SOL    HW2 5826   6.642  12.343   1.641  0.5476  0.8342 -0.3521
32350SOL     OW 5827   5.039  12.055   8.078 -0.2472 -0.1216  0.2197
32350SOL    HW1 5828   5.009  12.115   8.010  0.8713 -1.3344 -1.4271
32350SOL    HW2 5829   5.116  12.097   8.115 -0.7339  0.4456  0.5958
32351SOL     OW 5830  10.668   7.245   0.685 -0.6360 -0.4075  0.3128
32351SOL    HW1 5831  10.641   7.329   0.647 -2.0145 -1.0369 -0.1636
32351SOL    HW2 5832  10.754   7.263   0.723 -0.8079  1.1651  0.0433
32352SOL     OW 5833   6.681   1.602   1.887 -0.4206 -0.0895 -0.6824
32352SOL    HW1 5834   6.678   1.517   1.931  2.1208  0.0690 -0.0797
32352SOL    HW2 5835   6.745   1.590   1.817 -0.1187  1.2783 -0.6606
32353SOL     OW 5836   1.662   7.782   1.351 -0.9040  0.4526 -0.5927
32353SOL    HW1 5837   1.596   7.839   1.391 -0.9100 -0.3664  0.6140
32353SOL    HW2 5838   1.616   7.698   1.340 -0.1635 -0.0352 -0.0205
32354SOL     OW 5839   3.383   1.051   9.310  0.5826 -0.0980 -0.0680
32354SOL    HW1 5840   3.421   0.973   9.350 -0.1230 -0.2574  0.3163
32354SOL    HW2 5841   3.407   1.046   9.218  1.5609 -0.1404  0.1785
32355SOL     OW 5842  11.889   6.209   4.805  0.0148  0.4000  0.0472
32355SOL    HW1 5843  11.938   6.279   4.761  1.2979 -1.3255 -1.4197
32355SOL    HW2 5844  11.944   6.184   4.879  0.3068 -0.0535 -0.3160
32356SOL     OW 5845   0.227  10.358   6.487 -0.2742  0.3885 -0.0667
32356SOL    HW1 5846   0.246  10.343   6.579 -0.3212  1.7595  0.1947
32356SOL    HW2 5847   0.239  10.453   6.475  2.6744 -0.0869 -2.1418
32357SOL     OW 5848   5.846   0.357  10.830  0.5018 -0.4564  0.2822
32357SOL    HW1 5849   5.789   0.289  10.794  1.1134 -0.4974 -0.6344
32357SOL    HW2 5850   5.933   0.316  10.835  1.0714  0.5049 -1.1262
32358SOL     OW 5851  12.169   0.366   1.273 -0.0533 -0.1259  0.1081
32358SOL    HW1 5852  12.223   0.289   1.292  1.4841  0.9503  0.2242
32358SOL    HW2 5853  12.212   0.409   1.200 -0.3767  1.1237  0.6249
32359SOL     OW 5854  10.182   2.063   9.356  0.2079 -0.6326 -0.3932
32359SOL    HW1 5855  10.220   2.142   9.317  0.2950 -0.1757  0.5782
32359SOL    HW2 5856  10.253   1.999   9.355 -0.0505 -0.9395 -1.7862
32360SOL     OW 5857   5.498   9.152   0.362  0.5764 -0.0242 -0.1457
32360SOL    HW1 5858   5.536   9.128   0.277  2.2111 -0.6491  0.7120
32360SOL    HW2 5859   5.415   9.194   0.340  1.3170  0.5359 -2.0907
32361SOL     OW 5860  12.609   9.014   8.573 -0.0516 -0.3062  0.2340
32361SOL    HW1 5861  12.561   9.045   8.495  0.4964 -0.1070 -0.0265
32361SOL    HW2 5862  12.664   8.943   8.540  0.3070 -0.1084  0.4048
32362SOL     OW 5863   6.927   7.025  12.007 -0.3125  0.3905  0.5421
32362SOL    HW1 5864   6.863   7.096  12.003  0.0302  0.7763  1.4947
32362SOL    HW2 5865   6.984   7.040  11.932 -0.9201  0.4568  0.0942
32363SOL     OW 5866   5.145   3.782   0.277  0.3139 -0.2873 -0.6253
32363SOL    HW1 5867   5.186   3.695   0.278  0.6134 -0.1607  0.8423
32363SOL    HW2 5868   5.055   3.766   0.250 -0.8238 -1.6996  3.3062
32364SOL     OW 5869   6.856   4.283   7.785 -0.3460  0.0323 -0.7313
32364SOL    HW1 5870   6.948   4.304   7.774  0.0469  0.4816  2.4860
32364SOL    HW2 5871   6.853   4.187   7.783  0.9294 -0.2295  2.7880
32365SOL     OW 5872   3.837   7.739   2.505 -0.4870  0.2347  0.6848
32365SOL    HW1 5873   3.829   7.737   2.601 -1.8268  0.0698  0.5905
32365SOL    HW2 5874   3.747   7.754   2.474 -0.0839  0.1741 -0.5505
32366SOL     OW 5875   6.221   8.154   6.908  0.1093  0.3550  0.0128
32366SOL    HW1 5876   6.213   8.200   6.824  2.0143 -0.2797 -0.5664
32366SOL    HW2 5877   6.275   8.212   6.961 -1.4564  0.9619  1.0143
32367SOL     OW 5878   1.685   7.569  12.124 -0.0473 -0.0210  0.5281
32367SOL    HW1 5879   1.760   7.614  12.086  0.1445  0.6275  1.6175
32367SOL    HW2 5880   1.710   7.477  12.127 -0.7327 -0.4027 -2.4270
32368SOL     OW 5881   1.457   0.339   6.298 -0.1223  0.2783 -0.0385
32368SOL    HW1 5882   1.461   0.276   6.225  1.8013  0.5441 -0.1981
32368SOL    HW2 5883   1.390   0.402   6.271 -0.4528 -0.4265 -0.9158
32369SOL     OW 5884   4.201   3.569  10.783  0.1161  0.5582 -0.2658
32369SOL    HW1 5885   4.157   3.609  10.708  0.3453  1.6526  0.1567
32369SOL    HW2 5886   4.262   3.506  10.745  0.8494  1.7075 -1.0675
32370SOL     OW 5887   3.320   5.607   4.700 -0.3485  0.2467  0.6380
32370SOL    HW1 5888   3.358   5.651   4.624 -2.0489 -0.4899 -0.6890
32370SOL    HW2 5889   3.396   5.573   4.748  0.7367 -0.7764 -1.6497
32371SOL     OW 5890   5.798   2.084   9.474  0.3082  1.0061  0.6794
32371SOL    HW1 5891   5.859   2.068   9.546  0.9276  1.3934  0.2494
32371SOL    HW2 5892   5.828   2.028   9.403  0.0458  1.0554  0.5277
32372SOL     OW 5893   3.659   7.792  11.513  0.0294  0.4812  0.6572
32372SOL    HW1 5894   3.708   7.854  11.567  1.7390  1.0142 -1.3868
32372SOL    HW2 5895   3.622   7.730  11.576  0.1505  2.2599  2.5818
32373SOL     OW 5896   4.593   6.187   0.843 -0.0828  0.2192 -0.5060
32373SOL    HW1 5897   4.549   6.264   0.880 -0.8894 -0.1352 -0.7024
32373SOL    HW2 5898   4.686   6.203   0.857 -0.3329  0.1046  1.7329
32374SOL     OW 5899   3.780   4.701   1.353  0.8402 -0.4500  0.0031
32374SOL    HW1 5900   3.857   4.726   1.301  1.3318 -1.7141  0.0889
32374SOL    HW2 5901   3.742   4.784   1.380  1.4600  0.2225 -1.0832
32375SOL     OW 5902   4.163   0.355   9.850 -0.0306  0.0451 -0.5929
32375SOL    HW1 5903   4.119   0.400   9.923  0.0368  1.1230 -1.2053
32375SOL    HW2 5904   4.136   0.263   9.860 -0.5791  0.2889  0.3830
32376SOL     OW 5905  12.075   6.743   4.025  0.4736  0.0727  0.0552
32376SOL    HW1 5906  12.102   6.725   4.116 -1.4693 -1.5813  0.3991
32376SOL    HW2 5907  12.075   6.657   3.983 -0.4284  0.5498 -0.9768
32377SOL     OW 5908   3.457   4.480  12.213  0.0924 -0.1125  0.0017
32377SOL    HW1 5909   3.475   4.387  12.225 -1.1500 -0.6161 -1.6117
32377SOL    HW2 5910   3.529   4.525  12.258 -0.7653 -1.7397  3.3375
32378SOL     OW 5911   2.754   6.555   5.702 -0.0241  0.0578 -0.0083
32378SOL    HW1 5912   2.747   6.481   5.762 -0.7851  0.2791  0.1849
32378SOL    HW2 5913   2.736   6.519   5.616  1.2265 -0.2930 -0.1361
32379SOL     OW 5914   2.746  11.584  10.524 -0.5787  0.4992  0.7810
32379SOL    HW1 5915   2.660  11.624  10.521 -0.9196 -0.0145  2.4705
32379SOL    HW2 5916   2.732  11.500  10.569  0.6659  0.0445  0.3669
32380SOL     OW 5917  11.019   0.175   7.520 -0.4458  0.3359 -0.5468
32380SOL    HW1 5918  10.944   0.208   7.469 -0.5583  0.4185 -0.3281
32380SOL    HW2 5919  11.095   0.218   7.480 -0.5854  0.8103 -0.3050
32381SOL     OW 5920   0.991   5.857   8.851 -0.5288 -0.3184 -0.4016
32381SOL    HW1 5921   1.043   5.868   8.931 -1.0832  0.5168 -0.1350
32381SOL    HW2 5922   0.988   5.763   8.836 -0.5905 -0.5021  0.6829
32382SOL     OW 5923  11.695   4.020   8.437 -0.1731 -0.1397 -0.2614
32382SOL    HW1 5924  11.692   4.052   8.527 -1.4501 -0.1937 -0.2653
32382SOL    HW2 5925  11.741   3.936   8.443  1.0258  0.5271  0.1064
32383SOL     OW 5926   4.405  11.415   4.011  0.4180 -0.3201 -0.3900
32383SOL    HW1 5927   4.421  11.494   4.064 -1.5519 -1.0560  1.4469
32383SOL    HW2 5928   4.474  11.417   3.944 -0.0667  3.4027 -1.0039
32384SOL     OW 5929   0.700   2.295   4.850 -0.1011 -0.0250 -0.2907
32384SOL    HW1 5930   0.608   2.268   4.846  0.2712 -1.5937  0.6504
32384SOL    HW2 5931   0.703   2.378   4.802 -2.1423  0.4751  0.3583
32385SOL     OW 5932   7.008  11.678   4.818 -0.1917  0.4411  0.5993
32385SOL    HW1 5933   7.051  11.670   4.733  1.6125 -1.1182  1.5978
32385SOL    HW2 5934   6.915  11.676   4.798  0.1925 -0.0119 -1.3255
32386SOL     OW 5935   6.078   7.177  10.140  0.5352  0.3366  0.2088
32386SOL    HW1 5936   6.079   7.152  10.233 -0.8731  2.4642  0.8613
32386SOL    HW2 5937   6.006   7.127  10.102  0.7264 -0.0909  0.4096
32387SOL     OW 5938   9.590   3.697   3.881 -0.2849 -0.1384 -0.4322
32387SOL    HW1 5939   9.622   3.626   3.825  0.2009 -0.3409  0.0912
32387SOL    HW2 5940   9.518   3.736   3.832  0.2264 -0.2219 -1.2576
32388SOL     OW 5941   3.361  10.074   0.862  0.0568 -0.5656  0.0870
32388SOL    HW1 5942   3.396  10.023   0.935 -0.2599 -0.4130  0.3451
32388SOL    HW2 5943   3.407  10.040   0.785  0.4312 -0.6850  0.3646
32389SOL     OW 5944  12.203   2.481   8.384  0.1977  0.3851 -0.3635
32389SOL    HW1 5945  12.215   2.546   8.315 -0.7769 -0.7474 -1.6424
32389SOL    HW2 5946  12.191   2.399   8.338  1.0500 -0.6757  1.2141
32390SOL     OW 5947   7.572   9.499  12.410  0.1764 -0.6121 -0.9033
32390SOL    HW1 5948   7.566   9.590  12.380  0.1437 -0.8889 -1.7463
32390SOL    HW2 5949   7.658   9.493  12.452 -0.4463  0.2151  0.5719
32391SOL     OW 5950   9.651   5.196   9.001  0.4596 -0.1866 -0.4370
32391SOL    HW1 5951   9.610   5.196   8.915  0.7172  0.4223 -0.5641
32391SOL    HW2 5952   9.600   5.259   9.052  0.5680 -0.2325 -0.2710
32392SOL     OW 5953  12.072   5.103   2.459 -0.1067 -0.2159  0.2158
32392SOL    HW1 5954  12.151   5.146   2.493  0.1760 -0.6475  0.1190
32392SOL    HW2 5955  12.063   5.024   2.513 -0.6049 -0.0494  0.3756
32393SOL     OW 5956   8.168   0.524   4.466 -0.0304  0.4078  0.2045
32393SOL    HW1 5957   8.137   0.473   4.392  1.8560 -0.3474 -0.1130
32393SOL    HW2 5958   8.178   0.613   4.431  0.3718  0.1601 -0.3282
32394SOL     OW 5959   5.741  10.356   8.926  0.0666 -0.0859 -0.0356
32394SOL    HW1 5960   5.670  10.292   8.931 -0.8103  0.8848  0.0825
32394SOL    HW2 5961   5.820  10.302   8.918 -0.6308 -1.1880  0.2274
32395SOL     OW 5962   6.776   6.663  11.041 -0.1454  0.1531  0.6251
32395SOL    HW1 5963   6.686   6.664  11.072 -0.5470  0.8212 -0.4911
32395SOL    HW2 5964   6.788   6.575  11.006 -0.8143  0.4552 -0.4130
32396SOL     OW 5965   2.128   5.577   4.734  0.2375  0.0735  0.1915
32396SOL    HW1 5966   2.099   5.536   4.652  0.8686  0.9221 -0.4663
32396SOL    HW2 5967   2.047   5.592   4.783 -0.0217 -2.1619  0.5814
32397SOL     OW 5968   4.786   0.518  10.617  0.3632 -0.4538  0.6296
32397SOL    HW1 5969   4.745   0.544  10.535  1.6920 -0.9257 -0.2041
32397SOL    HW2 5970   4.754   0.583  10.681 -0.7193 -0.1201 -0.2214
32398SOL     OW 5971   6.470  11.222   0.538 -0.0503  0.2824  0.0311
32398SOL    HW1 5972   6.483  11.316   0.526 -0.7172  0.2794 -0.7704
32398SOL    HW2 5973   6.548  11.182   0.498  0.8904  0.5219  1.5444
32399SOL     OW 5974  10.192   3.972   9.006  0.3994 -0.3109 -0.3376
32399SOL    HW1 5975  10.177   4.036   8.935  0.8855  1.3535  0.9916
32399SOL    HW2 5976  10.285   3.979   9.025  1.3665 -4.1385 -2.5458
32400SOL     OW 5977   8.100   6.539   0.635  0.8371  0.4883 -0.3135
32400SOL    HW1 5978   8.023   6.529   0.691  0.1068  0.2245 -1.3394
32400SOL    HW2 5979   8.160   6.470   0.665  0.0946 -0.2250 -0.4312
32401SOL     OW 5980  12.444  11.414   9.816  0.0009 -0.8573  0.3207
32401SOL    HW1 5981  12.349  11.407   9.823  0.2498 -2.8599  3.9535
32401SOL    HW2 5982  12.465  11.496   9.860 -0.0026 -0.9840  0.5630
32402SOL     OW 5983   5.729   6.585   7.484  0.4810  0.3020  0.0930
32402SOL    HW1 5984   5.698   6.670   7.516  1.6971  1.8982 -2.5750
32402SOL    HW2 5985   5.654   6.547   7.440  0.4585  0.9436 -0.4321
32403SOL     OW 5986  12.560   5.698   1.083  0.4771 -0.0169  0.3553
32403SOL    HW1 5987  12.522   5.653   1.158  0.9579 -1.5642 -0.2883
32403SOL    HW2 5988  12.487   5.710   1.023 -0.1330  2.1734  1.4590
32404SOL     OW 5989   0.586   9.831   2.299  0.1127  0.8888 -0.5674
32404SOL    HW1 5990   0.494   9.808   2.311 -0.3804  3.0042  0.1533
32404SOL    HW2 5991   0.610   9.793   2.214 -1.6720  1.0363 -1.1599
32405SOL     OW 5992   6.176  11.742   8.682 -0.4057 -0.3804  0.2062
32405SOL    HW1 5993   6.168  11.755   8.588 -1.0124 -0.1902  0.2748
32405SOL    HW2 5994   6.171  11.830   8.719 -0.0423 -0.4440  0.4072
32406SOL     OW 5995   6.938  11.943  10.991  0.1077 -0.1577 -0.1452
32406SOL    HW1 5996   6.870  11.979  10.934 -1.8901 -1.2588  1.4149
32406SOL    HW2 5997   6.979  12.020  11.031 -3.1378  0.5888  2.0811
32407SOL     OW 5998   6.727   3.488   2.320 -0.0910  0.3534  0.0696
32407SOL    HW1 5999   6.648   3.457   2.275 -0.2973  0.8415  0.0806
32407SOL    HW2 6000   6.791   3.418   2.308 -0.9506 -0.6848  1.2516
32408SOL     OW 6001   6.462   6.080   8.006  0.1053 -0.4833  0.8252
32408SOL    HW1 6002   6.519   6.081   7.929 -0.0617 -3.2128  0.5942
32408SOL    HW2 6003   6.522   6.082   8.080  0.4562 -1.6008  0.5850
32409SOL     OW 6004   2.664   9.450   9.781  0.5621  0.2337 -0.2261
32409SOL    HW1 6005   2.707   9.535   9.769  0.3669  0.4340  0.4376
32409SOL    HW2 6006   2.612   9.461   9.861  1.6757 -0.9608  0.7082
32410SOL     OW 6007   7.482   7.629   7.227  0.5129  0.0053 -0.4219
32410SOL    HW1 6008   7.411   7.659   7.170  0.6259  0.2189 -0.4499
32410SOL    HW2 6009   7.445   7.634   7.315  0.2816 -0.4864 -0.4923
32411SOL     OW 6010   6.855  11.341  11.010 -0.7125  0.1319  0.2860
32411SOL    HW1 6011   6.906  11.378  11.082 -1.2445 -0.4994  1.0033
32411SOL    HW2 6012   6.841  11.415  10.951  1.2792  0.2536 -0.1020
32412SOL     OW 6013   1.375   1.737   8.094  0.3443  0.2954 -0.4489
32412SOL    HW1 6014   1.454   1.753   8.042 -0.1743 -0.9826 -1.6830
32412SOL    HW2 6015   1.336   1.659   8.056 -0.3240 -0.4487  1.5978
32413SOL     OW 6016  11.710   3.452   7.469 -0.3057  0.5323 -0.0010
32413SOL    HW1 6017  11.699   3.541   7.434 -1.3304 -0.0306 -1.2047
32413SOL    HW2 6018  11.798   3.451   7.504  0.0125  1.8018 -0.6879
32414SOL     OW 6019   0.620   6.957   1.110 -0.1432  0.4504 -0.5753
32414SOL    HW1 6020   0.570   6.960   1.028  0.8301  1.6847 -1.1704
32414SOL    HW2 6021   0.677   6.881   1.099  1.1067  1.4957 -1.7948
32415SOL     OW 6022   6.294   4.975   8.728 -0.5060  0.6958  0.5340
32415SOL    HW1 6023   6.321   4.986   8.819 -2.1799  0.2011  1.1184
32415SOL    HW2 6024   6.283   5.064   8.696 -1.0827  0.8685  1.1923
32416SOL     OW 6025   1.467   9.817   8.983  0.2147 -0.2191 -0.3251
32416SOL    HW1 6026   1.404   9.745   8.975  1.0793 -1.1687  1.0980
32416SOL    HW2 6027   1.534   9.798   8.917  1.0440 -1.3944  0.8070
32417SOL     OW 6028   7.712   9.691   0.999  0.0195  0.0636  0.0086
32417SOL    HW1 6029   7.727   9.685   0.904  0.0416  2.1216 -0.1603
32417SOL    HW2 6030   7.632   9.640   1.014  0.6865 -1.3168 -0.8933
32418SOL     OW 6031   6.409   9.310   4.359 -0.6544  0.6304  0.0711
32418SOL    HW1 6032   6.434   9.397   4.390  1.3866  0.3431 -0.6218
32418SOL    HW2 6033   6.492   9.264   4.349 -1.4195 -0.3110 -2.8042
32419SOL     OW 6034  10.197   1.872   6.590 -0.3129  0.7169 -0.3530
32419SOL    HW1 6035  10.113   1.861   6.634 -0.3480 -0.4769 -0.6849
32419SOL    HW2 6036  10.193   1.960   6.552 -1.0039  1.0561  0.4793
32420SOL     OW 6037  11.243   2.074   0.250  0.4032  0.3219  0.2282
32420SOL    HW1 6038  11.172   2.116   0.200  0.7063  0.9869  0.3441
32420SOL    HW2 6039  11.214   1.984   0.262 -0.0311  0.3598 -0.4790
32421SOL     OW 6040   1.636   3.053   1.303 -0.0108  0.1419  0.4414
32421SOL    HW1 6041   1.548   3.055   1.341  0.4267  3.6120  1.6046
32421SOL    HW2 6042   1.685   2.993   1.359 -1.0249  0.0430  1.2538
32422SOL     OW 6043   4.843  11.852   3.527  0.3090 -0.4385 -0.0631
32422SOL    HW1 6044   4.759  11.897   3.521 -0.3490 -1.3906  1.4848
32422SOL    HW2 6045   4.889  11.877   3.447 -1.7350 -0.5066 -1.3170
32423SOL     OW 6046  11.747  11.633   8.643  0.3580 -0.6362  0.1927
32423SOL    HW1 6047  11.814  11.697   8.618 -1.6999  1.2785 -0.8537
32423SOL    HW2 6048  11.700  11.676   8.714 -0.1945 -1.6352  0.4366
32424SOL     OW 6049  12.143   0.404   0.863 -0.0624 -0.2966 -0.0410
32424SOL    HW1 6050  12.081   0.383   0.933 -1.0987 -0.9686 -1.1006
32424SOL    HW2 6051  12.105   0.362   0.785  0.4044  1.4332 -1.2590
32425SOL     OW 6052   0.630   9.415   0.335  0.1101  0.3797  0.4949
32425SOL    HW1 6053   0.674   9.438   0.417  1.2728  1.3170 -0.3650
32425SOL    HW2 6054   0.700   9.387   0.277 -0.5497  0.9087 -0.5842
32426SOL     OW 6055   2.284   6.498   2.429 -0.2743 -0.5322  0.3428
32426SOL    HW1 6056   2.261   6.590   2.437 -2.5028 -0.9861 -0.1761
32426SOL    HW2 6057   2.218   6.452   2.482 -0.2061 -1.9210 -0.7065
32427SOL     OW 6058   7.682   8.656  10.442  0.0104 -0.6228 -0.4851
32427SOL    HW1 6059   7.704   8.566  10.469 -0.9828 -1.5061 -2.4050
32427SOL    HW2 6060   7.699   8.658  10.348  3.7566  2.4468  0.0461
32428SOL     OW 6061   2.690   6.865  10.363 -0.2911  0.6809 -0.5137
32428SOL    HW1 6062   2.679   6.850  10.269  1.1433 -2.6497 -0.2829
32428SOL    HW2 6063   2.601   6.864  10.398 -0.7272 -0.2261 -1.6059
32429SOL     OW 6064   4.587   5.591   1.801 -0.0421  0.0143  0.5082
32429SOL    HW1 6065   4.680   5.584   1.783 -0.2494  1.3010 -1.2977
32429SOL    HW2 6066   4.561   5.675   1.764 -2.0657 -0.6475  0.2826
32430SOL     OW 6067   5.986  12.272  10.314 -0.0207 -0.5910 -0.7831
32430SOL    HW1 6068   6.041  12.204  10.352  0.2617  0.6425  1.1742
32430SOL    HW2 6069   5.901  12.260  10.355 -0.6272 -1.1365 -2.1540
32431SOL     OW 6070   3.145   7.007  11.002  0.6721 -0.2712 -0.2959
32431SOL    HW1 6071   3.236   7.024  11.028  0.4064  2.0896 -0.7770
32431SOL    HW2 6072   3.129   7.066  10.929 -1.6396  0.2798  0.5829
32432SOL     OW 6073  10.968  11.810  11.749 -0.0435 -0.1250 -0.4128
32432SOL    HW1 6074  10.966  11.800  11.654 -0.9223 -0.6137 -0.3574
32432SOL    HW2 6075  11.026  11.884  11.764  2.2695 -1.6548 -1.1819
32433SOL     OW 6076   8.770   6.185   8.111 -0.0491  0.3377  0.2318
32433SOL    HW1 6077   8.738   6.151   8.027  0.0044  0.3883  0.1905
32433SOL    HW2 6078   8.832   6.118   8.141 -0.8111 -0.1622  0.7145
32434SOL     OW 6079   3.079   9.357  12.293 -0.3226  0.2341  0.1983
32434SOL    HW1 6080   3.028   9.276  12.305  1.8721 -1.2028  0.4513
32434SOL    HW2 6081   3.018   9.427  12.317 -1.7593 -1.4403  1.8276
32435SOL     OW 6082  11.733   5.583   9.298  0.0105 -0.2779 -0.5282
32435SOL    HW1 6083  11.807   5.622   9.251 -0.6668  0.0387 -1.3493
32435SOL    HW2 6084  11.661   5.583   9.234 -0.6569 -0.7237  0.2086
32436SOL     OW 6085   8.265  12.390   2.267 -0.1820  0.0295 -0.4996
32436SOL    HW1 6086   8.293  12.479   2.286 -0.1226  0.0022 -0.4573
32436SOL    HW2 6087   8.264  12.384   2.172  2.3754 -0.7118 -0.5667
32437SOL     OW 6088  10.836   0.444   6.035 -0.1140  0.8427  0.1892
32437SOL    HW1 6089  10.862   0.398   6.115  0.5809  3.2282  1.4303
32437SOL    HW2 6090  10.742   0.460   6.046 -0.2209  0.3136  0.0585
32438SOL     OW 6091   9.415   4.914  10.568  0.0089 -0.4088 -0.0285
32438SOL    HW1 6092   9.384   4.954  10.650 -3.6386  2.7143 -2.5877
32438SOL    HW2 6093   9.464   4.983  10.524  0.8180 -1.6041 -1.0754
32439SOL     OW 6094   3.565   1.923   6.058 -0.2130 -0.4065  0.0267
32439SOL    HW1 6095   3.546   1.894   6.147  1.1387  0.0179  0.4897
32439SOL    HW2 6096   3.573   2.018   6.066 -0.4249 -0.3311 -0.6246
32440SOL     OW 6097   5.863   5.653   0.543  0.5464  0.0917  0.2178
32440SOL    HW1 6098   5.825   5.735   0.574  0.1257 -1.0022  2.8460
32440SOL    HW2 6099   5.817   5.635   0.461 -0.7231  1.5138  0.5686
32441SOL     OW 6100   6.101   8.604   7.164  0.8133  0.3079 -0.1278
32441SOL    HW1 6101   6.073   8.694   7.183 -2.3049 -0.0655 -2.1804
32441SOL    HW2 6102   6.038   8.548   7.209  1.4665 -0.8003 -0.5460
32442SOL     OW 6103   6.404   6.468   4.085 -0.0337 -0.1068  0.7991
32442SOL    HW1 6104   6.483   6.420   4.060 -1.3859 -1.7108 -0.5911
32442SOL    HW2 6105   6.384   6.522   4.009 -0.2913  0.2939  1.1460
32443SOL     OW 6106   1.899   6.594   5.652  0.2569  0.1315  0.1972
32443SOL    HW1 6107   1.944   6.518   5.615 -0.3953  0.9707 -2.5739
32443SOL    HW2 6108   1.970   6.657   5.669  0.6428 -0.5295  1.1357
32444SOL     OW 6109   8.294   6.501  10.601 -0.1959 -0.0201  0.3991
32444SOL    HW1 6110   8.254   6.586  10.582 -0.5561 -0.2538  0.0961
32444SOL    HW2 6111   8.266   6.481  10.690 -0.8803 -0.2438  0.1440
32445SOL     OW 6112   1.390   8.228   9.833  0.2492  0.2064 -0.4677
32445SOL    HW1 6113   1.378   8.136   9.858  1.8460  0.5388  1.8714
32445SOL    HW2 6114   1.409   8.225   9.739  1.5677 -2.0254 -0.2069
32446SOL     OW 6115   1.113   3.602   2.032  0.5999 -0.0147  0.2149
32446SOL    HW1 6116   1.133   3.692   2.007 -2.0899  0.7247  0.4907
32446SOL    HW2 6117   1.079   3.561   1.953  3.1104 -1.3145 -0.3032
32447SOL     OW 6118   1.511  12.035   4.589  0.3458  0.2785  0.6659
32447SOL    HW1 6119   1.488  12.119   4.551  0.2810  0.6241  1.4536
32447SOL    HW2 6120   1.428  11.986   4.591  0.1565  0.6209  1.2574
32448SOL     OW 6121   6.731   4.874  11.216 -0.1111  0.3204  0.3462
32448SOL    HW1 6122   6.799   4.925  11.174  0.9189 -0.5966  0.8548
32448SOL    HW2 6123   6.681   4.835  11.144 -0.2305  1.1323 -0.0263
32449SOL     OW 6124   8.534   7.852   4.514  0.3275 -0.0319  0.1517
32449SOL    HW1 6125   8.455   7.825   4.469  0.6543 -0.9831  0.1293
32449SOL    HW2 6126   8.511   7.934   4.557 -0.5929 -0.1802 -0.0530
32450SOL     OW 6127   2.841   9.986   4.795  0.1568 -0.4726 -0.4999
32450SOL    HW1 6128   2.871  10.070   4.829  0.6753 -1.3529  1.3004
32450SOL    HW2 6129   2.789   9.949   4.865  0.8246 -2.1342 -0.8449
32451SOL     OW 6130  10.944  12.334  10.007  0.7412 -0.6085  0.0690
32451SOL    HW1 6131  10.914  12.424   9.998  0.3396 -0.7558 -0.0684
32451SOL    HW2 6132  10.917  12.291   9.926  2.3096 -0.4720 -0.5658
32452SOL     OW 6133   7.757   4.019   5.995 -0.0426 -0.7360 -0.7835
32452SOL    HW1 6134   7.799   4.031   6.080 -2.1189 -0.7624  0.3014
32452SOL    HW2 6135   7.824   3.976   5.941  1.4522 -0.3641  0.6859
32453SOL     OW 6136   7.463   2.589  12.202  0.3525  0.2491 -0.7237
32453SOL    HW1 6137   7.390   2.651  12.189  1.4724  1.4978 -1.3869
32453SOL    HW2 6138   7.530   2.619  12.141  2.4171  0.7182  1.6037
32454SOL     OW 6139   7.982   2.227  10.098  0.0048 -0.5138  0.3080
32454SOL    HW1 6140   7.923   2.239  10.173 -1.9577 -0.3935 -1.1746
32454SOL    HW2 6141   7.955   2.144  10.059 -1.6283  1.1190 -2.3962
32455SOL     OW 6142   5.450  11.536   6.522 -0.4366  0.6325  0.4810
32455SOL    HW1 6143   5.463  11.537   6.427  0.9470 -0.5490  0.6251
32455SOL    HW2 6144   5.492  11.616   6.553 -0.4762  0.7883  0.1375
32456SOL     OW 6145   6.675   8.161  11.293 -0.1229 -0.2743 -0.0252
32456SOL    HW1 6146   6.665   8.256  11.288 -1.8779 -0.3856  0.6927
32456SOL    HW2 6147   6.653   8.130  11.206 -1.6019 -0.1446  0.2779
32457SOL     OW 6148   7.563   6.428   8.389 -0.1221 -0.1632 -0.5568
32457SOL    HW1 6149   7.613   6.503   8.420 -0.3678 -0.6558  1.1396
32457SOL    HW2 6150   7.485   6.466   8.348  0.3482  0.5337 -0.8131
32458SOL     OW 6151  10.531   7.957   1.746 -0.0586 -0.1017 -0.2095
32458SOL    HW1 6152  10.571   7.873   1.726  0.3411  0.1280 -0.3874
32458SOL    HW2 6153  10.532   8.005   1.662  0.3955  0.3590  0.0523
32459SOL     OW 6154  10.941   1.130   2.849  0.4021 -0.4424 -0.1377
32459SOL    HW1 6155  10.985   1.194   2.794  1.8937 -0.3666  1.0756
32459SOL    HW2 6156  10.997   1.052   2.845 -0.6042 -1.1739 -0.4255
32460SOL     OW 6157   3.934   2.410   4.906  0.0235 -0.2703  0.0152
32460SOL    HW1 6158   3.842   2.384   4.899 -0.0347 -0.5083  1.4535
32460SOL    HW2 6159   3.976   2.337   4.951  0.5815  0.5474  0.8415
32461SOL     OW 6160   0.586   9.093   3.105 -0.5334  0.2322  0.0491
32461SOL    HW1 6161   0.521   9.064   3.041 -0.7943 -0.1206  0.4668
32461SOL    HW2 6162   0.538   9.153   3.163  0.4850  3.4152 -2.0984
32462SOL     OW 6163  10.736   7.747   2.748 -0.3574 -0.1130  0.3430
32462SOL    HW1 6164  10.673   7.714   2.685  0.5240 -2.1015  0.4423
32462SOL    HW2 6165  10.699   7.724   2.833 -0.3487  0.3309  0.4691
32463SOL     OW 6166   6.520   5.855  11.391 -0.6024 -0.4915 -0.3254
32463SOL    HW1 6167   6.562   5.926  11.343  1.3102 -0.7915  0.8087
32463SOL    HW2 6168   6.456   5.819  11.329 -0.7873  1.4342 -1.3244
32464SOL     OW 6169  11.002   0.245   8.641 -0.2239 -0.4166  0.0099
32464SOL    HW1 6170  11.082   0.294   8.658 -0.2997  0.3074 -1.6206
32464SOL    HW2 6171  10.932   0.308   8.657 -0.3267 -0.0058 -1.9149
32465SOL     OW 6172   9.706   3.976   2.168  0.7329 -0.9049  0.3318
32465SOL    HW1 6173   9.783   3.919   2.158  1.0046 -0.3397 -1.0031
32465SOL    HW2 6174   9.712   4.007   2.258  0.9692 -2.4056  0.8710
32466SOL     OW 6175   6.164   7.200   3.784 -0.0405  0.4365 -0.1532
32466SOL    HW1 6176   6.117   7.122   3.754  1.1658 -0.2317 -0.3585
32466SOL    HW2 6177   6.096   7.255   3.824 -0.7368 -1.2588  1.1350
32467SOL     OW 6178   9.256   2.334   0.964 -0.0882 -0.3241  0.2462
32467SOL    HW1 6179   9.286   2.367   0.879 -0.6962  1.0739  0.5521
32467SOL    HW2 6180   9.323   2.270   0.989  1.6247  1.2563 -0.0169
32468SOL     OW 6181   3.314   6.145   4.979 -0.0737  0.1155 -0.0608
32468SOL    HW1 6182   3.232   6.194   4.984  0.2402  0.7032 -0.5422
32468SOL    HW2 6183   3.342   6.153   4.888  0.6014  0.0531  0.1308
32469SOL     OW 6184  11.476   5.351   1.111  0.5080  0.4332 -0.7176
32469SOL    HW1 6185  11.434   5.318   1.031  2.2977 -0.3905 -1.3788
32469SOL    HW2 6186  11.500   5.441   1.090 -1.4656  1.1527 -0.0822
32470SOL     OW 6187   1.914   1.917  10.096 -0.2702  0.3239  0.1292
32470SOL    HW1 6188   1.935   1.935  10.188  0.0724  1.1390 -0.1038
32470SOL    HW2 6189   1.819   1.903  10.096 -0.0046 -2.0410  0.9740
32471SOL     OW 6190  12.114   4.306  11.924  0.1754 -0.4082  0.1256
32471SOL    HW1 6191  12.161   4.279  12.002  0.3068 -0.3614  0.0620
32471SOL    HW2 6192  12.182   4.335  11.863  0.0755 -0.4633 -0.0135
32472SOL     OW 6193   3.403   6.733   5.184  0.5243  0.6446  0.1470
32472SOL    HW1 6194   3.397   6.738   5.279 -0.6994  0.1371  0.1066
32472SOL    HW2 6195   3.460   6.658   5.167  1.7080  1.4331  0.4656
32473SOL     OW 6196  10.748   0.482   4.759  0.0371 -0.0352 -0.0182
32473SOL    HW1 6197  10.681   0.414   4.755  0.7505 -0.6935 -1.5720
32473SOL    HW2 6198  10.768   0.491   4.852 -1.0339 -0.9867  0.3207
32474SOL     OW 6199   0.255   8.888   5.203  0.2707 -0.5767 -0.3082
32474SOL    HW1 6200   0.338   8.900   5.249  0.7499 -1.5510 -0.8861
32474SOL    HW2 6201   0.203   8.832   5.260 -0.9672  1.9270  1.1832
32475SOL     OW 6202   6.306   7.095   4.499 -0.0519 -0.2080 -0.1217
32475SOL    HW1 6203   6.314   7.178   4.545  2.3677  0.0078 -0.8177
32475SOL    HW2 6204   6.305   7.119   4.406 -1.6012 -0.8536 -0.3093
32476SOL     OW 6205  12.119   5.265  10.995  0.0310 -0.3561 -0.4780
32476SOL    HW1 6206  12.192   5.263  10.932 -1.0282  0.2028 -1.7678
32476SOL    HW2 6207  12.098   5.358  11.004 -0.5320 -0.5161 -0.1199
32477SOL     OW 6208  10.575   3.730   6.393 -0.3708 -0.1758 -0.0676
32477SOL    HW1 6209  10.611   3.689   6.471 -0.8183 -1.1599 -0.3565
32477SOL    HW2 6210  10.535   3.657   6.344 -1.3043  0.6300 -0.5400
32478SOL     OW 6211   9.175   9.017   4.083 -0.2799  0.2025  0.4120
32478SOL    HW1 6212   9.170   8.924   4.107 -1.7037  0.4872  1.3278
32478SOL    HW2 6213   9.173   9.016   3.987  1.1998 -0.7569  0.3517
32479SOL     OW 6214  11.145   1.005   7.765  0.0822  0.3414  0.4349
32479SOL    HW1 6215  11.240   1.009   7.752  0.1367 -0.3331  0.5704
32479SOL    HW2 6216  11.109   1.021   7.677  0.3324  0.2752  0.3175
32480SOL     OW 6217   7.601   5.949   4.845 -0.1225 -0.3883  0.2127
32480SOL    HW1 6218   7.520   5.912   4.880 -1.2930  0.4647 -1.5106
32480SOL    HW2 6219   7.592   5.942   4.750  1.6495  0.1122 -0.0277
32481SOL     OW 6220   9.300   6.217   3.669  0.8826  0.5009  0.3924
32481SOL    HW1 6221   9.222   6.197   3.721 -0.1763  2.0333 -0.5402
32481SOL    HW2 6222   9.369   6.227   3.734  0.3654 -0.9547  1.2344
32482SOL     OW 6223  11.156   4.427   9.624  0.1132 -0.2035  0.3558
32482SOL    HW1 6224  11.145   4.369   9.549 -1.6694  1.1136 -0.4733
32482SOL    HW2 6225  11.239   4.401   9.663  0.1262 -2.2269 -0.9093
32483SOL     OW 6226   6.810   5.980   8.681 -0.4322  0.1866  0.1075
32483SOL    HW1 6227   6.897   5.979   8.722  1.0212  1.6367 -2.7251
32483SOL    HW2 6228   6.775   5.892   8.697  1.0156 -0.0627  2.2857
32484SOL     OW 6229  11.970   3.885   1.998  0.2497  0.5023  0.3155
32484SOL    HW1 6230  11.959   3.882   1.903 -1.5118 -1.8994  0.5119
32484SOL    HW2 6231  11.919   3.962   2.026  1.4652  1.7229 -0.6989
32485SOL     OW 6232  11.131   1.518  10.421 -0.0802  0.8340  0.1520
32485SOL    HW1 6233  11.084   1.590  10.463 -0.9052  0.4132 -0.0335
32485SOL    HW2 6234  11.213   1.513  10.469 -0.2677  1.4997  0.5684
32486SOL     OW 6235   2.592   8.964  11.327  0.6539  0.0702  0.5296
32486SOL    HW1 6236   2.551   8.881  11.302  0.5781 -0.1163  1.2591
32486SOL    HW2 6237   2.666   8.973  11.267 -0.7021  0.6478 -1.1279
32487SOL     OW 6238   5.042   5.918   8.196  0.6407 -0.1921 -0.6115
32487SOL    HW1 6239   4.992   5.914   8.115 -1.3414  0.0059  0.5111
32487SOL    HW2 6240   5.102   5.991   8.185  0.8559 -0.5814 -2.1209
32488SOL     OW 6241  10.644   4.120   8.681 -0.0710 -0.2320  0.2748
32488SOL    HW1 6242  10.662   4.117   8.586  1.0060  1.6042  0.3828
32488SOL    HW2 6243  10.553   4.148   8.687 -0.4366 -1.2583 -0.2108
32489SOL     OW 6244   3.894   7.987   1.520  0.1216 -0.8277  0.0802
32489SOL    HW1 6245   3.823   7.952   1.467  0.3337  1.1965 -1.6518
32489SOL    HW2 6246   3.850   8.038   1.588 -0.0957 -1.6343  0.5650
32490SOL     OW 6247  11.594   9.340   2.999 -0.7089 -0.2114  0.0371
32490SOL    HW1 6248  11.544   9.258   3.001  0.3999 -0.9882 -1.6157
32490SOL    HW2 6249  11.658   9.331   3.069  0.0163 -1.2003 -0.7261
32491SOL     OW 6250  11.372   1.772   0.789 -0.3719 -0.3301 -0.6053
32491SOL    HW1 6251  11.327   1.691   0.813  0.6195 -0.3795  1.2922
32491SOL    HW2 6252  11.375   1.823   0.870 -0.5645  1.4391 -1.6457
32492SOL     OW 6253  12.407   5.424  10.014  0.0593 -0.4029 -0.0249
32492SOL    HW1 6254  12.401   5.465  10.101 -0.7587 -2.4273  0.9231
32492SOL    HW2 6255  12.319   5.393   9.996  0.4853 -1.0479 -1.0630
32493SOL     OW 6256  12.209   1.948  11.954 -0.2263  0.1827 -0.1201
32493SOL    HW1 6257  12.217   1.869  12.007  2.9421  1.2625  1.3200
32493SOL    HW2 6258  12.211   1.918  11.863 -2.4801 -1.5085  0.3115
32494SOL     OW 6259   1.345   8.000   7.672  0.3068  0.0380  0.7547
32494SOL    HW1 6260   1.431   7.965   7.653  0.3620  0.6221 -0.1295
32494SOL    HW2 6261   1.352   8.094   7.654 -0.7985 -0.0747 -0.4218
32495SOL     OW 6262   7.851   6.076   4.718 -0.4321  0.6267 -0.1068
32495SOL    HW1 6263   7.768   6.028   4.722 -0.9187  1.3266 -1.5132
32495SOL    HW2 6264   7.880   6.080   4.810 -1.9106  0.3250  0.3969
32496SOL     OW 6265   2.390   7.713   7.569 -0.2622  0.4072  0.5243
32496SOL    HW1 6266   2.342   7.692   7.489  2.6505 -1.3940 -0.9153
32496SOL    HW2 6267   2.348   7.661   7.637  0.7562 -2.7242 -1.0795
32497SOL     OW 6268   8.070  10.161   0.527  0.1869 -0.1255 -0.2393
32497SOL    HW1 6269   8.095  10.085   0.579 -0.0490 -1.4343 -1.9532
32497SOL    HW2 6270   8.049  10.229   0.591  0.3040 -1.5306  1.3313
32498SOL     OW 6271  10.601   3.889  12.115 -0.4696  0.0600 -0.0437
32498SOL    HW1 6272  10.582   3.981  12.132  1.7408  1.2593 -3.0514
32498SOL    HW2 6273  10.546   3.867  12.040  1.4872  0.0994 -1.5656
32499SOL     OW 6274  11.311   4.151   9.012 -0.1828  0.2424  0.4959
32499SOL    HW1 6275  11.362   4.110   8.943  1.9422  1.7140  1.0939
32499SOL    HW2 6276  11.223   4.159   8.976  0.0142 -2.1542 -0.6856
32500SOL     OW 6277  11.517   3.099   9.050  0.2558 -0.5479  0.0469
32500SOL    HW1 6278  11.448   3.155   9.086 -1.0038 -2.4173  0.6863
32500SOL    HW2 6279  11.574   3.159   9.002 -2.3861  0.9689 -1.4487
32501SOL     OW 6280   8.126  10.035   8.840 -0.0063 -0.1109 -0.6648
32501SOL    HW1 6281   8.109  10.019   8.747  0.4212  0.5227 -0.8623
32501SOL    HW2 6282   8.062   9.981   8.886 -1.6123  1.1136 -1.3425
32502SOL     OW 6283   9.059  11.072  11.121  0.1763 -0.3104  0.0109
32502SOL    HW1 6284   8.976  11.118  11.130 -0.6722 -1.2100 -2.4437
32502SOL    HW2 6285   9.125  11.138  11.141 -1.0827  0.6549  1.1675
32503SOL     OW 6286   5.957  11.074   2.697  0.1374 -0.0982 -0.5722
32503SOL    HW1 6287   5.956  11.110   2.785  1.1490 -0.5283 -0.3623
32503SOL    HW2 6288   5.960  11.151   2.640 -1.4011  0.2008 -0.2861
32504SOL     OW 6289   1.744   1.920   8.815  0.1167 -0.2126  0.4317
32504SOL    HW1 6290   1.672   1.969   8.776 -1.2229 -0.5977  2.2739
32504SOL    HW2 6291   1.775   1.976   8.887  1.4377 -0.2229 -0.0994
32505SOL     OW 6292   5.941   8.494  12.042  0.1135 -0.5674  0.0806
32505SOL    HW1 6293   5.872   8.468  12.104 -0.2807  1.4072  0.5329
32505SOL    HW2 6294   5.993   8.415  12.030 -1.0304 -1.5595  1.3177
32506SOL     OW 6295   1.634  10.783   9.388  0.1306 -0.6904 -0.1844
32506SOL    HW1 6296   1.612  10.874   9.409  0.5467 -0.0832 -2.1919
32506SOL    HW2 6297   1.693  10.756   9.458 -0.8334  0.2172  1.0200
32507SOL     OW 6298   6.276   0.711   3.753 -0.2851  0.0433  0.4917
32507SOL    HW1 6299   6.206   0.760   3.797 -0.4076 -0.6135  1.0586
32507SOL    HW2 6300   6.285   0.752   3.668  0.6625  2.0467  1.4881
32508SOL     OW 6301   4.818   5.721   0.880 -0.1576 -0.1312  0.5361
32508SOL    HW1 6302   4.796   5.643   0.830  0.5170 -1.0593  1.6419
32508SOL    HW2 6303   4.736   5.748   0.922 -0.9869  1.2809 -1.8211
32509SOL     OW 6304   6.710   1.293   9.832  0.0926  0.5461  0.1123
32509SOL    HW1 6305   6.765   1.371   9.824  0.7215  0.1255  0.3629
32509SOL    HW2 6306   6.759   1.234   9.888 -1.0452  0.5550  1.1695
32510SOL     OW 6307   5.007   1.149   4.401 -0.1779  0.3636 -0.1803
32510SOL    HW1 6308   5.098   1.119   4.391  0.0119  0.7063  0.4447
32510SOL    HW2 6309   5.004   1.185   4.489 -0.8794  0.5199 -0.2674
32511SOL     OW 6310   2.878   4.081   3.000 -0.4072 -0.0871  0.1629
32511SOL    HW1 6311   2.814   4.103   2.932  0.1789 -1.7585 -0.9917
32511SOL    HW2 6312   2.907   3.992   2.978  3.7086  1.2289 -0.4688
32512SOL     OW 6313   5.525   9.371   0.519  0.4506  0.7184 -0.0754
32512SOL    HW1 6314   5.513   9.282   0.485 -0.3911  1.1240 -0.8961
32512SOL    HW2 6315   5.606   9.367   0.570  0.5496 -0.4563 -0.2999
32513SOL     OW 6316   5.008   4.959   6.393  0.5979 -0.3488 -0.4431
32513SOL    HW1 6317   5.013   4.870   6.357  0.0870 -1.4451  1.9854
32513SOL    HW2 6318   4.928   4.959   6.446  0.8247  1.4393 -0.0311
32514SOL     OW 6319  11.877   2.654   9.522  0.2502 -0.1214  0.2117
32514SOL    HW1 6320  11.923   2.738   9.517 -0.1656  0.1123  0.2732
32514SOL    HW2 6321  11.826   2.660   9.603 -0.0542 -0.2935  0.0337
32515SOL     OW 6322   8.088  12.450   2.615 -0.3379  0.0480 -0.1327
32515SOL    HW1 6323   8.099  12.426   2.707 -1.7007 -0.3674 -0.0452
32515SOL    HW2 6324   8.172  12.488   2.590 -0.4089  1.6314  1.7347
32516SOL     OW 6325   2.529   3.252  11.846  0.1888 -0.1169  0.2337
32516SOL    HW1 6326   2.606   3.301  11.874  1.0363 -1.8647  1.0808
32516SOL    HW2 6327   2.456   3.294  11.891  0.6777  1.2749 -0.2271
32517SOL     OW 6328  12.546   1.778   4.732 -0.2237  0.4861 -0.0961
32517SOL    HW1 6329  12.584   1.696   4.762 -1.5676  0.0428  0.4518
32517SOL    HW2 6330  12.591   1.845   4.783  1.3929  0.1820 -1.0494
32518SOL     OW 6331   1.577   2.181   0.882  0.3130 -0.2484  0.3147
32518SOL    HW1 6332   1.510   2.217   0.824 -0.7866 -2.7324 -0.1154
32518SOL    HW2 6333   1.659   2.191   0.834 -0.0480  0.9014 -0.0941
32519SOL     OW 6334   6.485   5.177  11.619  0.8485 -0.5194  0.3628
32519SOL    HW1 6335   6.537   5.201  11.542 -1.4048  1.1994 -0.7137
32519SOL    HW2 6336   6.550   5.163  11.687  2.8589 -0.8050 -1.4861
32520SOL     OW 6337   2.772   6.181   9.418  0.4512  0.2713 -0.1232
32520SOL    HW1 6338   2.702   6.233   9.458  2.6276  1.9209  1.8592
32520SOL    HW2 6339   2.809   6.239   9.351  1.1692  0.2410  0.2350
32521SOL     OW 6340   6.513   3.293   1.790 -0.2312 -1.0432  0.7337
32521SOL    HW1 6341   6.556   3.217   1.750 -1.1908 -2.4948  2.3519
32521SOL    HW2 6342   6.582   3.336   1.840  0.3725 -0.6858 -0.3739
32522SOL     OW 6343  11.691   6.267   4.131  0.0214 -0.2790  0.2095
32522SOL    HW1 6344  11.704   6.302   4.043 -0.6647 -0.8424 -0.1301
32522SOL    HW2 6345  11.752   6.193   4.136  0.7946  0.3637  0.5898
32523SOL     OW 6346   8.571   4.217   6.551  0.5444 -0.2761  0.7962
32523SOL    HW1 6347   8.524   4.225   6.635 -0.4992  0.1174  0.2005
32523SOL    HW2 6348   8.501   4.208   6.486  1.2948  0.5633 -0.1513
32524SOL     OW 6349   8.973   5.231  11.411  0.1279  0.7041 -0.4855
32524SOL    HW1 6350   8.908   5.167  11.382  0.7972 -0.2010 -0.0264
32524SOL    HW2 6351   9.056   5.184  11.410  0.4272  1.1214  1.2551
32525SOL     OW 6352   7.193   0.231   3.413  0.2991 -0.3475  0.8762
32525SOL    HW1 6353   7.197   0.150   3.464 -1.2048 -1.8580 -1.2122
32525SOL    HW2 6354   7.103   0.261   3.422  0.6744  0.7376  1.1025
32526SOL     OW 6355  11.063   8.461  11.314 -0.0162  0.0541  0.2493
32526SOL    HW1 6356  11.152   8.426  11.321  0.3939  0.9944 -0.1318
32526SOL    HW2 6357  11.038   8.446  11.223 -0.5464 -0.8684  0.5292
32527SOL     OW 6358  11.017  11.485  11.107  0.1312 -0.3906 -0.0182
32527SOL    HW1 6359  10.996  11.463  11.198  1.4894  0.6850  0.5845
32527SOL    HW2 6360  11.094  11.432  11.087 -0.7911 -1.4459 -0.9451
32528SOL     OW 6361   8.799   0.834  11.674 -0.0878 -0.7210 -0.1097
32528SOL    HW1 6362   8.750   0.896  11.727  1.0195 -1.6923  2.1760
32528SOL    HW2 6363   8.750   0.753  11.678 -0.0743 -0.7685 -0.7349
32529SOL     OW 6364   7.149  10.092  10.825  0.4284  0.5213  0.3647
32529SOL    HW1 6365   7.168   9.999  10.842  0.4697  0.6614  1.1221
32529SOL    HW2 6366   7.229  10.137  10.849  0.1266  0.8325  0.8102
32530SOL     OW 6367   1.938   5.822   9.367 -0.3349 -0.2457  0.2213
32530SOL    HW1 6368   1.991   5.879   9.422 -0.8967  1.1206 -0.6154
32530SOL    HW2 6369   1.902   5.757   9.427  1.0033 -0.2634  1.0544
32531SOL     OW 6370   3.187   5.003   0.570  0.0128  0.0033  0.3517
32531SOL    HW1 6371   3.128   5.005   0.645  0.8685 -1.8289  1.1044
32531SOL    HW2 6372   3.128   5.006   0.494 -0.9410  0.2115  1.0776
32532SOL     OW 6373   3.903  10.178   1.820 -0.3332  0.2153 -0.2783
32532SOL    HW1 6374   3.938  10.109   1.877  0.7526  0.4655 -0.6257
32532SOL    HW2 6375   3.972  10.194   1.756 -1.3344  0.3027 -1.3681
32533SOL     OW 6376   0.855   5.222   3.531 -0.3598  0.3297 -0.4267
32533SOL    HW1 6377   0.905   5.145   3.505 -0.9890  0.0567 -0.8708
32533SOL    HW2 6378   0.847   5.215   3.626  2.5334  1.6826  0.0131
32534SOL     OW 6379  11.807   6.131  11.073 -0.5589 -0.0632 -0.6153
32534SOL    HW1 6380  11.860   6.052  11.086  0.3797  0.4940 -0.9168
32534SOL    HW2 6381  11.743   6.106  11.007  0.3642 -0.3117 -1.4464
32535SOL     OW 6382   7.696   5.867   8.809 -0.3094 -0.1388  0.3188
32535SOL    HW1 6383   7.658   5.886   8.895  2.4344 -1.0520  1.8597
32535SOL    HW2 6384   7.726   5.776   8.816  0.7354  0.0385 -1.3170
32536SOL     OW 6385   3.795  11.330   4.704 -0.1434 -0.1913 -0.2954
32536SOL    HW1 6386   3.710  11.355   4.667 -0.5523 -2.2461 -0.8388
32536SOL    HW2 6387   3.854  11.401   4.677 -1.2808  0.3639 -1.4584
32537SOL     OW 6388   0.432   9.277   7.482  0.6565  0.4513 -0.2222
32537SOL    HW1 6389   0.336   9.283   7.482  0.6205  2.2304  3.2013
32537SOL    HW2 6390   0.453   9.231   7.401 -2.9255  2.1126 -2.3088
32538SOL     OW 6391   6.008   5.490   8.940 -0.7605  0.6199 -0.3074
32538SOL    HW1 6392   5.998   5.404   8.981  1.8081  0.4441  0.1250
32538SOL    HW2 6393   6.101   5.511   8.950 -1.3468  3.6450 -0.0648
32539SOL     OW 6394  11.122  11.478   3.545 -0.4435  0.3902  0.1109
32539SOL    HW1 6395  11.057  11.501   3.479 -0.8599 -0.8083  0.0848
32539SOL    HW2 6396  11.138  11.560   3.592 -1.2655  0.9137 -0.4927
32540SOL     OW 6397  11.835  12.345  11.012  0.4177  0.2470 -0.4131
32540SOL    HW1 6398  11.753  12.394  11.019  0.9871  1.2019 -0.2346
32540SOL    HW2 6399  11.808  12.254  10.999 -0.6649  0.6056 -0.7714
32541SOL     OW 6400   9.769   1.656   0.787 -0.3753  0.0078 -0.4161
32541SOL    HW1 6401   9.701   1.636   0.723 -0.2867  0.5166 -0.6755
32541SOL    HW2 6402   9.823   1.577   0.790 -0.9515 -0.3815 -0.2367
32542SOL     OW 6403   9.163   3.641   1.182 -0.1904 -0.4372 -0.4483
32542SOL    HW1 6404   9.071   3.669   1.179 -0.4437 -1.2225 -0.2105
32542SOL    HW2 6405   9.203   3.695   1.250 -0.9857 -1.5361  0.9282
32543SOL     OW 6406   8.274   0.376   2.742 -0.1276  0.3961 -0.7960
32543SOL    HW1 6407   8.293   0.410   2.829 -0.7713 -1.4417  0.0958
32543SOL    HW2 6408   8.180   0.391   2.730  0.1184  1.4532 -1.5707
32544SOL     OW 6409   2.904  10.793   3.330 -0.1697 -0.4438 -0.0903
32544SOL    HW1 6410   2.918  10.854   3.403  0.8742 -2.0465  1.1258
32544SOL    HW2 6411   2.935  10.840   3.253  1.2461  0.3402  0.9059
32545SOL     OW 6412   1.847   2.326  12.468  0.3202 -0.1527  0.5417
32545SOL    HW1 6413   1.942   2.338  12.470  0.1194  1.7264  0.7185
32545SOL    HW2 6414   1.819   2.371  12.388 -0.3050 -1.9641 -0.3123
32546SOL     OW 6415   7.274   2.926   4.925  0.7235  0.1395 -0.7582
32546SOL    HW1 6416   7.306   2.855   4.869  0.6742 -1.1578  0.7916
32546SOL    HW2 6417   7.346   2.990   4.925  1.1468 -0.3159 -1.4559
32547SOL     OW 6418   2.836   6.184   6.412  0.1750 -0.9774  0.2294
32547SOL    HW1 6419   2.874   6.105   6.374  0.1310 -0.4789 -0.8965
32547SOL    HW2 6420   2.826   6.244   6.338  1.4661  0.6000  1.2546
32548SOL     OW 6421  11.376  11.586   2.584 -0.3620  0.5012 -0.1035
32548SOL    HW1 6422  11.398  11.597   2.492  1.6695 -0.3285  0.2165
32548SOL    HW2 6423  11.379  11.675   2.620  4.0107  0.5238  0.1011
32549SOL     OW 6424  11.570  10.915   3.754  0.4610 -0.5607 -0.1673
32549SOL    HW1 6425  11.617  10.978   3.808  1.6796 -2.7424  1.4906
32549SOL    HW2 6426  11.483  10.910   3.793 -0.2243  1.2769 -1.3692
32550SOL     OW 6427  11.348   3.010   1.629  0.2159 -0.4215 -0.3942
32550SOL    HW1 6428  11.415   3.026   1.695 -0.6677 -1.0589  0.6943
32550SOL    HW2 6429  11.315   2.923   1.649 -1.3874  0.1326 -0.4786
32551SOL     OW 6430  10.893  11.738  11.428 -0.6086 -0.3413  0.3436
32551SOL    HW1 6431  10.845  11.813  11.393 -0.2963  0.5884  1.7805
32551SOL    HW2 6432  10.833  11.700  11.492  0.3174  0.5374  1.7980
32552SOL     OW 6433  10.783   5.373   0.703 -0.6690 -0.2139  0.0114
32552SOL    HW1 6434  10.757   5.413   0.786  1.1673  0.9658  0.0623
32552SOL    HW2 6435  10.847   5.306   0.727  0.4505  0.6494 -0.4627
32553SOL     OW 6436   4.156   2.767   7.779  0.1737 -0.3561 -0.0826
32553SOL    HW1 6437   4.110   2.843   7.814  0.5543  1.1682 -2.6379
32553SOL    HW2 6438   4.248   2.793   7.776  0.0505  0.1532 -3.1998
32554SOL     OW 6439   3.641   9.242   8.461  0.3408 -0.3853  0.5159
32554SOL    HW1 6440   3.665   9.165   8.410  0.2803  0.4983 -0.9018
32554SOL    HW2 6441   3.715   9.302   8.451  0.4009 -0.2606  1.6179
32555SOL     OW 6442   5.789   2.660  10.138 -0.3310 -0.2459  0.1510
32555SOL    HW1 6443   5.870   2.705  10.116 -1.9401  2.1334 -1.4682
32555SOL    HW2 6444   5.791   2.652  10.234  0.0848  3.5385  0.6133
32556SOL     OW 6445  11.897   4.977   7.745 -0.0212 -0.7282 -0.0061
32556SOL    HW1 6446  11.871   4.920   7.673  0.5056  1.6304 -2.2306
32556SOL    HW2 6447  11.988   4.956   7.761  0.2660 -0.3506 -1.0389
32557SOL     OW 6448   7.369   1.068   5.627  0.3591 -0.1483 -0.1151
32557SOL    HW1 6449   7.339   1.158   5.637  1.0023  0.0053  0.5135
32557SOL    HW2 6450   7.446   1.075   5.571  0.0205 -0.3953 -0.6258
32558SOL     OW 6451   1.099   0.825   8.846 -0.0971  0.3142  0.1516
32558SOL    HW1 6452   1.179   0.872   8.869 -0.1603  0.4572  0.0777
32558SOL    HW2 6453   1.046   0.828   8.926 -0.8067  1.8124 -0.3422
32559SOL     OW 6454   6.158   0.339   8.733 -0.1628 -0.1750 -0.3966
32559SOL    HW1 6455   6.117   0.319   8.817  0.7727 -2.2640 -0.3756
32559SOL    HW2 6456   6.122   0.274   8.673 -0.1498  0.7419 -1.4428
32560SOL     OW 6457  10.603   7.378   5.729 -0.1797 -0.0294 -1.0024
32560SOL    HW1 6458  10.674   7.364   5.792 -2.3846 -1.7132  1.3341
32560SOL    HW2 6459  10.616   7.467   5.696  0.7072  1.2586  2.4552
32561SOL     OW 6460   5.265   3.657   6.919 -0.3193 -0.4486  0.2560
32561SOL    HW1 6461   5.336   3.713   6.887 -1.2896  2.1094  2.2274
32561SOL    HW2 6462   5.259   3.586   6.855  1.1149  1.6029 -2.3071
32562SOL     OW 6463   6.946   9.266   2.744 -0.2719 -0.4415 -1.1869
32562SOL    HW1 6464   7.006   9.317   2.690 -0.4799  2.9492  1.4353
32562SOL    HW2 6465   7.003   9.207   2.794  0.3672 -0.2754 -1.7052
32563SOL     OW 6466  11.542  12.542   4.276  0.3453 -0.2044  0.6622
32563SOL    HW1 6467  11.512  12.454   4.252  0.5670 -0.7603  2.3219
32563SOL    HW2 6468  11.498  12.600   4.214  0.7311 -1.5263 -0.9233
32564SOL     OW 6469   1.918   5.508   7.522  0.1005 -0.1192 -0.0454
32564SOL    HW1 6470   1.858   5.455   7.469 -1.7829  4.0355 -2.5647
32564SOL    HW2 6471   1.865   5.537   7.596  0.6628 -0.5495  0.5358
32565SOL     OW 6472   1.686   1.054   4.038  0.1290  0.0425 -0.1031
32565SOL    HW1 6473   1.606   1.060   3.986  0.3616 -1.3194 -0.6753
32565SOL    HW2 6474   1.710   0.961   4.034  1.1747  0.2410  0.9127
32566SOL     OW 6475   4.388  11.145  10.191  0.2441 -0.1500  0.7264
32566SOL    HW1 6476   4.331  11.204  10.240  1.1811  0.5354  1.0256
32566SOL    HW2 6477   4.344  11.060  10.195 -1.2150  0.5400  0.1533
32567SOL     OW 6478   1.456  12.196   9.502  0.4991  0.5614  0.3209
32567SOL    HW1 6479   1.427  12.275   9.547 -0.5396  0.3234  0.0940
32567SOL    HW2 6480   1.543  12.178   9.539  0.8333  1.8955  0.2483
32568SOL     OW 6481   7.756   1.144   0.575 -0.0937 -0.5311 -0.0976
32568SOL    HW1 6482   7.769   1.051   0.557  3.7355 -0.8496  2.9472
32568SOL    HW2 6483   7.718   1.146   0.663 -2.0524  0.8899 -0.9078
32569SOL     OW 6484   3.773   4.174   4.029 -0.3520 -0.1252  0.4960
32569SOL    HW1 6485   3.748   4.167   3.937 -0.6473  0.7434  0.5035
32569SOL    HW2 6486   3.705   4.126   4.076  0.2217 -1.2522  0.2184
32570SOL     OW 6487  12.135  12.506   2.502  0.0512  0.0426  0.4448
32570SOL    HW1 6488  12.064  12.556   2.544  0.3617  1.3955 -0.5576
32570SOL    HW2 6489  12.211  12.564   2.508  0.4024 -0.2568 -0.8221
32571SOL     OW 6490   2.208   8.388   9.888 -0.5888 -0.4278 -0.6395
32571SOL    HW1 6491   2.277   8.359   9.829 -0.4728 -0.4438 -0.4981
32571SOL    HW2 6492   2.131   8.398   9.832  0.3161  2.8725 -1.5060
32572SOL     OW 6493   3.178   8.958  11.248 -0.1348  0.0809  0.1079
32572SOL    HW1 6494   3.131   8.875  11.246  0.2607 -0.1952  1.5103
32572SOL    HW2 6495   3.139   9.007  11.321  0.5199  0.5888  0.1270
32573SOL     OW 6496   2.903   8.776   1.554  0.0424  0.9232  0.1622
32573SOL    HW1 6497   2.993   8.745   1.557 -0.4420 -0.4271  1.5606
32573SOL    HW2 6498   2.850   8.697   1.542 -1.0018  1.6518 -0.2580
32574SOL     OW 6499   5.518   3.162   5.678 -0.9103 -0.1603 -0.3477
32574SOL    HW1 6500   5.559   3.225   5.737 -2.7563  0.2027  0.5949
32574SOL    HW2 6501   5.494   3.088   5.735 -1.9654 -0.1626 -0.7855
32575SOL     OW 6502   8.353   4.039  12.567  0.1846  0.0610  0.2723
32575SOL    HW1 6503   8.439   3.998  12.562 -1.0005 -2.5585 -0.2827
32575SOL    HW2 6504   8.340   4.058  12.660  0.1060 -2.5807  0.8751
32576SOL     OW 6505  10.122   5.638  11.882  0.1699  0.6985 -0.2989
32576SOL    HW1 6506  10.109   5.655  11.976  0.7402  2.6855 -0.5252
32576SOL    HW2 6507  10.061   5.698  11.839 -1.2515 -1.3303 -1.2289
32577SOL     OW 6508   3.641   7.129  10.263  0.1568  0.0724  0.0237
32577SOL    HW1 6509   3.731   7.105  10.240 -0.0144  1.9740 -3.2950
32577SOL    HW2 6510   3.590   7.109  10.185 -1.9942  0.6785  1.1886
32578SOL     OW 6511   1.808   2.392  12.195 -0.1752 -0.2163 -0.2803
32578SOL    HW1 6512   1.734   2.450  12.175 -0.3463 -0.2006  0.3699
32578SOL    HW2 6513   1.882   2.429  12.146 -0.3717  0.3341 -0.1665
32579SOL     OW 6514   9.669   0.260   1.875  0.4302 -0.2075  0.4915
32579SOL    HW1 6515   9.654   0.293   1.963  1.2077 -3.1680  1.8639
32579SOL    HW2 6516   9.730   0.188   1.886  0.4670 -0.7853 -2.4885
32580SOL     OW 6517   7.667  11.965   9.219 -0.3143  0.2242  0.2571
32580SOL    HW1 6518   7.653  12.057   9.196  1.1635  0.9257  1.9464
32580SOL    HW2 6519   7.747  11.941   9.172 -0.2470  0.0441  0.4666
32581SOL     OW 6520  12.110  11.691  10.140 -0.2525  0.0450 -0.1643
32581SOL    HW1 6521  12.158  11.726  10.214 -0.3987 -0.0283 -0.0342
32581SOL    HW2 6522  12.097  11.598  10.160 -0.3889  0.0483 -0.2290
32582SOL     OW 6523   9.890  10.306   1.814  0.0505 -0.5915 -0.1318
32582SOL    HW1 6524   9.800  10.304   1.780 -0.0371 -0.2079  0.0670
32582SOL    HW2 6525   9.895  10.388   1.863 -0.0133 -1.4326  1.3305
32583SOL     OW 6526  12.579  10.786  12.015 -0.8432  0.4249  0.5256
32583SOL    HW1 6527  12.661  10.758  12.055 -0.5720 -0.0064 -0.2929
32583SOL    HW2 6528  12.571  10.878  12.038  1.0180  1.0995 -1.1767
32584SOL     OW 6529   5.908   4.673  12.422  0.1471 -0.6744  0.5004
32584SOL    HW1 6530   5.849   4.745  12.403 -0.0432 -0.8075  0.5892
32584SOL    HW2 6531   5.996   4.710  12.411  0.1330  0.2768  2.9324
32585SOL     OW 6532   9.681   2.396   9.705  0.5149 -0.1691  0.1569
32585SOL    HW1 6533   9.650   2.319   9.656 -2.2070  0.7798  0.2445
32585SOL    HW2 6534   9.681   2.367   9.796  1.1130 -0.5299  0.0537
32586SOL     OW 6535   8.438   2.835   5.733 -0.2899  0.2338 -0.2499
32586SOL    HW1 6536   8.442   2.917   5.683 -0.3942  1.1685  1.1867
32586SOL    HW2 6537   8.444   2.766   5.668 -1.6256  1.3823 -1.6532
32587SOL     OW 6538   4.435  10.766   2.711  0.1954  0.2183  0.4250
32587SOL    HW1 6539   4.423  10.757   2.617  0.5357 -2.1385  0.5320
32587SOL    HW2 6540   4.354  10.730   2.749  1.0064 -1.1083  0.9998
32588SOL     OW 6541   4.225   3.528   2.008 -0.1596 -0.0681 -0.2677
32588SOL    HW1 6542   4.252   3.446   2.050  0.7722  1.1722  1.6875
32588SOL    HW2 6543   4.162   3.501   1.942  0.3559 -2.3929  0.0984
32589SOL     OW 6544   3.873   2.946   9.297  0.6119  0.5869  0.4610
32589SOL    HW1 6545   3.808   2.948   9.227  1.1625 -1.0647 -0.1622
32589SOL    HW2 6546   3.904   3.036   9.304 -0.7334  1.1219 -0.1921
32590SOL     OW 6547   4.508   6.722  11.845  0.4156  0.1891  0.2244
32590SOL    HW1 6548   4.540   6.644  11.800 -0.2931  0.2039 -0.3216
32590SOL    HW2 6549   4.580   6.747  11.903  0.4986 -1.1013  0.7061
32591SOL     OW 6550  10.568   8.274  12.413  0.0514 -0.0025  0.3248
32591SOL    HW1 6551  10.659   8.263  12.438 -0.0199 -0.7516  0.2822
32591SOL    HW2 6552  10.533   8.185  12.412 -0.3234  0.1473 -0.9981
32592SOL     OW 6553  10.915   0.941   8.867 -0.0095  0.0051 -0.3190
32592SOL    HW1 6554  11.011   0.941   8.870  0.1141 -2.9276 -1.5956
32592SOL    HW2 6555  10.889   0.987   8.947  2.4297  0.1370  0.4829
32593SOL     OW 6556   1.174   9.881   8.625 -0.9054  0.0818 -0.0594
32593SOL    HW1 6557   1.246   9.819   8.625  0.1201  1.2356 -0.9983
32593SOL    HW2 6558   1.113   9.847   8.692 -0.0029 -1.4551  0.0181
32594SOL     OW 6559   9.963   1.104  12.177  0.3340  0.3661 -0.0217
32594SOL    HW1 6560  10.055   1.132  12.174  0.2275  0.6725 -0.4930
32594SOL    HW2 6561   9.920   1.156  12.110 -0.4365  1.1127  1.0147
32595SOL     OW 6562   5.857  11.652  10.313  0.6642  0.4834  0.5435
32595SOL    HW1 6563   5.928  11.592  10.290 -1.5655 -1.3691 -2.1445
32595SOL    HW2 6564   5.829  11.624  10.400  0.4109 -1.7071 -0.1848
32596SOL     OW 6565   2.244   5.534   8.410  0.3991 -0.4148 -0.2962
32596SOL    HW1 6566   2.321   5.526   8.467  0.3755 -0.1902 -0.2302
32596SOL    HW2 6567   2.223   5.627   8.413 -1.6605 -0.8483  2.0634
32597SOL     OW 6568   0.806   2.720   8.623 -0.0729  0.3736  0.3926
32597SOL    HW1 6569   0.868   2.767   8.568 -1.8046 -1.2095 -3.2895
32597SOL    HW2 6570   0.721   2.759   8.601 -1.5098 -3.6985 -2.3961
32598SOL     OW 6571   4.439  10.652   8.874 -0.0353 -0.0575  0.1965
32598SOL    HW1 6572   4.524  10.662   8.918  0.6647 -0.5642 -0.9621
32598SOL    HW2 6573   4.396  10.736   8.884  0.9035  0.4301  0.2504
32599SOL     OW 6574   5.602   3.231   8.447  0.6993  0.2031  0.4262
32599SOL    HW1 6575   5.589   3.246   8.353  0.8024  1.3739  0.5913
32599SOL    HW2 6576   5.552   3.151   8.465  1.4746 -0.5864 -0.8079
32600SOL     OW 6577   1.689   3.037   1.745  0.3801  0.2394  0.3460
32600SOL    HW1 6578   1.642   2.996   1.672 -0.8838  0.7859  0.8231
32600SOL    HW2 6579   1.700   3.128   1.717 -0.7088  0.6232  1.0816
32601SOL     OW 6580   1.453   6.779   5.168  0.3213  0.3151  0.1016
32601SOL    HW1 6581   1.431   6.788   5.261  0.6116 -0.7678  0.2982
32601SOL    HW2 6582   1.381   6.727   5.132  2.3304 -3.3231  0.7601
32602SOL     OW 6583   6.788   6.287  12.420 -0.2835 -0.0393  0.4335
32602SOL    HW1 6584   6.753   6.374  12.402 -0.8284  0.2007  2.4417
32602SOL    HW2 6585   6.841   6.299  12.499  2.5555 -0.8500 -1.2138
32603SOL     OW 6586  10.647   9.279  10.863  0.2803 -0.7341 -0.2336
32603SOL    HW1 6587  10.623   9.290  10.955 -0.5102 -0.9832 -0.4037
32603SOL    HW2 6588  10.567   9.300  10.814 -0.6183 -4.5298 -0.7085
32604SOL     OW 6589  10.760   5.768   5.412  0.3210  0.0842 -0.0222
32604SOL    HW1 6590  10.701   5.820   5.467 -1.3131 -1.4950 -0.1936
32604SOL    HW2 6591  10.794   5.700   5.469  1.3206  0.4466 -0.1578
32605SOL     OW 6592   5.616  10.444   2.112  0.4827  0.1118 -0.6745
32605SOL    HW1 6593   5.642  10.524   2.157 -0.3279  0.4208 -0.7406
32605SOL    HW2 6594   5.698  10.397   2.098  0.6958 -0.5651  2.1847
32606SOL     OW 6595   6.310  11.257   7.263  0.2287  0.0914 -0.4274
32606SOL    HW1 6596   6.300  11.280   7.355  0.1163 -0.9501 -0.1615
32606SOL    HW2 6597   6.384  11.196   7.261  0.6117  0.5697 -1.1093
32607SOL     OW 6598   1.796  11.191  11.450 -0.4426 -0.2046  0.0107
32607SOL    HW1 6599   1.846  11.261  11.493 -0.7308 -0.2993  0.5110
32607SOL    HW2 6600   1.860  11.146  11.395  0.3361 -1.0665  1.5330
32608SOL     OW 6601   8.841   2.510  11.926 -0.6316  0.4657  0.6568
32608SOL    HW1 6602   8.786   2.588  11.923 -0.5457  0.4969 -0.7392
32608SOL    HW2 6603   8.781   2.439  11.946 -1.0210  0.6411  0.1404
32609SOL     OW 6604   5.370   0.316  11.125  0.2436 -0.1046  0.7782
32609SOL    HW1 6605   5.286   0.328  11.081  0.4767  0.6339  0.5146
32609SOL    HW2 6606   5.349   0.318  11.218  0.1085  1.3204  0.7375
32610SOL     OW 6607  11.898   9.590   0.140 -0.3041  0.2013 -0.0131
32610SOL    HW1 6608  11.842   9.514   0.155  0.6581 -0.8222 -1.4040
32610SOL    HW2 6609  11.944   9.571   0.058  1.8472  1.1382  0.9029
32611SOL     OW 6610   8.442  10.688   1.365 -0.1530  0.4878 -0.9075
32611SOL    HW1 6611   8.473  10.606   1.326 -2.5098  0.2883 -2.6034
32611SOL    HW2 6612   8.405  10.661   1.449 -1.1264 -0.2956 -1.5495
32612SOL     OW 6613   2.467  10.370  11.077  0.7437 -0.0626 -0.3242
32612SOL    HW1 6614   2.495  10.340  10.990  2.3489  1.8327 -0.5414
32612SOL    HW2 6615   2.548  10.386  11.124 -0.0673  0.9758  0.7849
32613SOL     OW 6616   0.461   5.073   1.583  0.1446  0.4168  0.3786
32613SOL    HW1 6617   0.527   5.126   1.629  0.7910 -0.6274  0.7013
32613SOL    HW2 6618   0.507   5.039   1.507 -0.6287  1.2985 -0.5138
32614SOL     OW 6619   9.169   1.620  11.015  0.7588 -0.1152  0.1222
32614SOL    HW1 6620   9.108   1.675  10.966  1.2682  0.6880  0.3668
32614SOL    HW2 6621   9.114   1.558  11.062  0.2456 -0.8690 -1.3929
32615SOL     OW 6622   4.330   8.301   0.307 -0.1026  0.5329 -0.0230
32615SOL    HW1 6623   4.327   8.205   0.310  0.3112  0.4750 -0.9934
32615SOL    HW2 6624   4.317   8.321   0.214 -1.7187  1.4789  0.3779
32616SOL     OW 6625   1.397   4.472   5.927  0.1806 -0.1401  0.2885
32616SOL    HW1 6626   1.302   4.483   5.921 -0.0901 -2.1025  0.2212
32616SOL    HW2 6627   1.427   4.471   5.836  0.1769 -0.1102  0.2871
32617SOL     OW 6628   7.232  11.125  10.419  0.8932 -0.1972  0.0689
32617SOL    HW1 6629   7.307  11.097  10.471  1.1990  0.6473  0.1096
32617SOL    HW2 6630   7.163  11.063  10.441  1.5008 -0.8291  0.2306
32618SOL     OW 6631   0.523   2.934  10.418 -0.0537 -0.1847  0.4961
32618SOL    HW1 6632   0.465   2.904  10.488 -2.5383  0.8822 -0.9770
32618SOL    HW2 6633   0.509   2.871  10.347  1.0378 -0.1960  0.2691
32619SOL     OW 6634   4.320  11.755   4.790  0.5350 -0.4246  0.1329
32619SOL    HW1 6635   4.244  11.731   4.843  0.4814 -0.4813  0.0316
32619SOL    HW2 6636   4.345  11.673   4.747 -0.6018  0.0064 -1.4398
32620SOL     OW 6637   4.042   9.106   3.497 -0.1947  0.0072  0.5332
32620SOL    HW1 6638   3.976   9.123   3.563 -1.5414 -0.8476 -0.5445
32620SOL    HW2 6639   4.031   9.176   3.433  0.4745  0.2947  0.7191
32621SOL     OW 6640   5.229   9.198   0.631 -0.5472  0.8976  0.1021
32621SOL    HW1 6641   5.230   9.184   0.536  1.2352  0.3811  0.1677
32621SOL    HW2 6642   5.220   9.293   0.641 -0.5683  0.9751 -0.5875
32622SOL     OW 6643  11.556   7.014   2.111 -0.3986 -0.1856 -0.7664
32622SOL    HW1 6644  11.551   7.066   2.191 -3.1733  0.0139 -0.9568
32622SOL    HW2 6645  11.533   7.075   2.041  2.6477 -0.1879 -1.8977
32623SOL     OW 6646   2.394   6.729   5.378 -0.3041  0.2593 -0.2690
32623SOL    HW1 6647   2.461   6.692   5.319  0.4558 -1.0959  1.3656
32623SOL    HW2 6648   2.371   6.657   5.436 -1.3782  1.4342  0.8148
32624SOL     OW 6649   3.352   6.527   4.421  0.8932  0.0850  0.3198
32624SOL    HW1 6650   3.446   6.522   4.439  0.8318 -0.1500  0.5848
32624SOL    HW2 6651   3.315   6.575   4.495  0.7391 -0.2489  0.4606
32625SOL     OW 6652   8.047  10.414   4.379  0.7747  0.0533 -0.2293
32625SOL    HW1 6653   8.073  10.497   4.338  0.9330  0.8839  1.4832
32625SOL    HW2 6654   8.088  10.415   4.465  0.3119 -1.5613  0.0464
32626SOL     OW 6655   8.160  11.820   3.096 -0.1775 -0.2497  0.0031
32626SOL    HW1 6656   8.208  11.849   3.173 -0.3388 -1.3566  0.5427
32626SOL    HW2 6657   8.119  11.899   3.062 -0.2593  0.2200  1.1564
32627SOL     OW 6658  12.525   8.011  10.080 -0.4950  0.8710 -0.0877
32627SOL    HW1 6659  12.594   7.945  10.087  0.0830  1.3856 -0.8851
32627SOL    HW2 6660  12.558   8.087  10.128 -0.2328  1.3315 -0.9748
32628SOL     OW 6661   2.423  10.265   2.805  0.1009  0.1706  0.1838
32628SOL    HW1 6662   2.425  10.359   2.785  0.5285  0.9850  3.4406
32628SOL    HW2 6663   2.507  10.233   2.773  0.2469  1.0591 -0.3684
32629SOL     OW 6664   5.958   8.499  10.103 -0.3605 -0.1195  0.4805
32629SOL    HW1 6665   5.924   8.588  10.109  0.6859  0.3987 -0.8629
32629SOL    HW2 6666   6.023   8.503  10.033 -0.3501 -1.9582  0.3470
32630SOL     OW 6667   0.658   5.522  10.485 -0.3557 -0.1113 -0.2867
32630SOL    HW1 6668   0.575   5.565  10.504  0.4999  1.0883  0.9573
32630SOL    HW2 6669   0.719   5.559  10.549  0.8749 -1.8066 -0.4205
32631SOL     OW 6670   7.488  11.185   1.835 -0.1962 -0.7489 -0.0467
32631SOL    HW1 6671   7.478  11.280   1.848  0.1325 -0.5681 -1.0116
32631SOL    HW2 6672   7.407  11.158   1.793 -0.0232 -0.7686 -0.3744
32632SOL     OW 6673   4.199   4.542   8.076  0.0460 -0.2536 -0.4662
32632SOL    HW1 6674   4.118   4.588   8.052 -1.2410 -1.2818  1.6391
32632SOL    HW2 6675   4.173   4.451   8.083  1.2572 -0.5243  0.8374
32633SOL     OW 6676  11.479   8.216  12.111  0.0464 -0.3087 -0.1695
32633SOL    HW1 6677  11.535   8.190  12.038  0.0765 -0.4310 -0.1035
32633SOL    HW2 6678  11.517   8.171  12.187  1.3091  1.4894  0.3232
32634SOL     OW 6679  12.266   7.698   4.158  0.3718 -0.0821 -0.9135
32634SOL    HW1 6680  12.345   7.693   4.211  0.6998 -0.5709 -1.4403
32634SOL    HW2 6681  12.287   7.762   4.089 -0.1982  0.8721 -0.2274
32635SOL     OW 6682   8.871   6.210   4.546 -0.0948 -0.1772 -0.2660
32635SOL    HW1 6683   8.886   6.299   4.516  0.3651  0.2432  1.1321
32635SOL    HW2 6684   8.849   6.219   4.639 -0.4134 -1.4832 -0.1932
32636SOL     OW 6685   0.723   8.850   9.101  0.0191 -0.1694 -0.6907
32636SOL    HW1 6686   0.652   8.858   9.166 -1.0365 -0.3055 -1.7866
32636SOL    HW2 6687   0.759   8.763   9.116  1.1179  0.5297  0.9943
32637SOL     OW 6688   4.124   9.516   1.401  0.4356  0.2175 -0.0516
32637SOL    HW1 6689   4.119   9.610   1.416 -1.0641  0.2269 -0.4781
32637SOL    HW2 6690   4.217   9.494   1.414  0.8602  1.7921 -0.2797
32638SOL     OW 6691   7.578  10.029   5.906  0.3699  0.1038 -0.0000
32638SOL    HW1 6692   7.527  10.076   5.839  0.3706 -1.1305 -0.9097
32638SOL    HW2 6693   7.598   9.944   5.865  0.7575 -0.5109  1.4119
32639SOL     OW 6694   5.586   5.936  10.568 -0.0383  0.0478 -0.1440
32639SOL    HW1 6695   5.641   5.881  10.512  0.2396  1.1685 -1.0047
32639SOL    HW2 6696   5.512   5.880  10.592  1.1454 -1.2894  0.5218
32640SOL     OW 6697  12.218   8.148   1.892 -0.3884 -0.2212  0.5614
32640SOL    HW1 6698  12.198   8.168   1.983 -0.0624 -0.2711  0.6447
32640SOL    HW2 6699  12.151   8.194   1.842 -2.0903 -2.1421  0.9163
32641SOL     OW 6700   8.942   4.961   8.727 -0.2240 -0.0481  1.0026
32641SOL    HW1 6701   8.949   5.055   8.716 -0.4785 -0.1319  0.0282
32641SOL    HW2 6702   9.005   4.925   8.664 -2.3599 -0.5819 -0.9857
32642SOL     OW 6703  10.945   1.700   0.110  0.1992 -0.1050 -0.1088
32642SOL    HW1 6704  11.022   1.652   0.143  0.5538  1.2749  1.1656
32642SOL    HW2 6705  10.976   1.741   0.029  0.5947 -0.1548  0.0122
32643SOL     OW 6706   6.415  12.038   5.665 -0.0315 -0.2452 -0.4868
32643SOL    HW1 6707   6.496  12.029   5.615  0.8265 -1.1371  0.9844
32643SOL    HW2 6708   6.393  11.949   5.692 -0.4412  0.2012  0.7402
32644SOL     OW 6709   3.437  11.867   2.042  0.7165 -0.3576  0.1571
32644SOL    HW1 6710   3.395  11.840   1.961 -1.6032 -0.4275  1.3135
32644SOL    HW2 6711   3.441  11.963   2.036  0.6773 -0.3734 -0.1087
32645SOL     OW 6712   1.394   4.433   8.405 -0.3238  0.2821 -0.3729
32645SOL    HW1 6713   1.328   4.392   8.349  0.0244 -1.7371  0.6255
32645SOL    HW2 6714   1.472   4.439   8.351 -0.2217 -0.9125 -0.3739
32646SOL     OW 6715   2.963   8.175   0.658 -0.6712 -0.4590  0.2733
32646SOL    HW1 6716   2.999   8.109   0.598 -1.1320 -0.5291  0.0635
32646SOL    HW2 6717   3.034   8.236   0.673 -0.1326 -1.1834  0.7244
32647SOL     OW 6718   2.161   4.911   6.635  0.6111 -0.1780  0.1782
32647SOL    HW1 6719   2.209   4.990   6.609  0.8153  0.5257  2.4987
32647SOL    HW2 6720   2.069   4.936   6.629  0.6592  0.0454  0.3607
32648SOL     OW 6721   2.346   4.548   2.992 -0.0336  0.0842 -0.1866
32648SOL    HW1 6722   2.298   4.532   2.911  1.2076 -1.8118 -0.5953
32648SOL    HW2 6723   2.315   4.480   3.052  1.1192 -0.3216 -0.0267
32649SOL     OW 6724  10.271  11.381   5.886 -0.1681  0.3377 -0.9391
32649SOL    HW1 6725  10.273  11.446   5.956 -0.6005 -0.0416 -0.5717
32649SOL    HW2 6726  10.195  11.327   5.905 -0.9704  0.9184 -2.3258
32650SOL     OW 6727  12.400   8.644   9.735  0.1244 -0.0057 -0.0612
32650SOL    HW1 6728  12.428   8.702   9.805 -0.3117 -0.2206  0.2925
32650SOL    HW2 6729  12.459   8.569   9.741 -1.7280 -1.4304  2.0009
32651SOL     OW 6730   8.571   9.727   8.457  0.2568 -0.6833  0.1503
32651SOL    HW1 6731   8.504   9.775   8.506 -0.5372 -0.4225 -1.1421
32651SOL    HW2 6732   8.543   9.635   8.463  0.5583 -0.7394  0.7713
32652SOL     OW 6733  11.542   9.100  11.801  0.2433 -0.6763  0.3361
32652SOL    HW1 6734  11.551   9.039  11.875 -2.8837 -0.6396  0.8753
32652SOL    HW2 6735  11.521   9.045  11.726 -0.9675 -0.4214  0.4710
32653SOL     OW 6736  11.503   2.743   2.287 -0.0321  0.0425  0.0524
32653SOL    HW1 6737  11.534   2.692   2.362 -1.3256  0.2356  0.7493
32653SOL    HW2 6738  11.408   2.738   2.292 -0.1636 -0.8038 -2.1867
32654SOL     OW 6739   8.219   9.592   5.846 -0.0510  0.6814  0.4972
32654SOL    HW1 6740   8.262   9.631   5.770 -2.1579 -0.5334 -1.4598
32654SOL    HW2 6741   8.152   9.655   5.871 -0.4796  0.3327  0.2396
32655SOL     OW 6742   7.736   4.349   3.275  0.0124 -0.4243  0.2833
32655SOL    HW1 6743   7.749   4.379   3.185  0.7739 -2.0733 -0.1944
32655SOL    HW2 6744   7.641   4.343   3.285 -0.0808 -0.2431 -0.4322
32656SOL     OW 6745   7.094   5.214   8.136  0.1733  0.4162 -0.2594
32656SOL    HW1 6746   7.160   5.279   8.114  2.1801 -0.0968  3.3749
32656SOL    HW2 6747   7.117   5.136   8.085  0.6083  1.1305 -1.1617
32657SOL     OW 6748   7.925  11.759  10.676 -0.6876 -0.1647  0.1433
32657SOL    HW1 6749   7.977  11.725  10.603 -1.5504  0.5345 -0.8228
32657SOL    HW2 6750   7.952  11.851  10.684 -2.7115  0.6391 -1.3152
32658SOL     OW 6751   1.412   2.577   9.384 -0.3462 -0.3426 -0.6293
32658SOL    HW1 6752   1.467   2.553   9.309  0.0691  0.6943 -0.6707
32658SOL    HW2 6753   1.474   2.587   9.457 -0.4342  1.0881 -0.7375
32659SOL     OW 6754   3.522   6.225   5.611  0.4696 -0.2513  0.3617
32659SOL    HW1 6755   3.578   6.290   5.569  0.9235  0.3743  1.8606
32659SOL    HW2 6756   3.436   6.238   5.571  0.8817  0.3106 -0.3617
32660SOL     OW 6757  11.508   3.506   0.649 -0.2788 -0.2575  0.0039
32660SOL    HW1 6758  11.569   3.504   0.576 -0.5636 -1.6375 -0.2274
32660SOL    HW2 6759  11.471   3.594   0.647  1.4609  0.5261 -0.0251
32661SOL     OW 6760  11.875   3.979   8.745  0.3897 -0.6939 -0.0142
32661SOL    HW1 6761  11.843   4.063   8.713 -1.8734 -1.7004 -0.5771
32661SOL    HW2 6762  11.883   3.991   8.840  0.1688  0.1636 -0.1019
32662SOL     OW 6763   4.138  10.238  11.246 -0.7126  0.3842  0.3838
32662SOL    HW1 6764   4.160  10.277  11.161  1.0898 -1.1144  0.0907
32662SOL    HW2 6765   4.097  10.154  11.223  1.8959 -1.1457  0.8689
32663SOL     OW 6766   1.010  11.433  12.116  0.5573  0.0448  0.0627
32663SOL    HW1 6767   1.014  11.525  12.089 -0.5411  0.8641  2.3479
32663SOL    HW2 6768   1.080  11.390  12.068  0.8574  1.9989 -1.3659
32664SOL     OW 6769   7.755   4.987   6.762  0.3983 -0.7086  0.1123
32664SOL    HW1 6770   7.732   4.936   6.840  1.0177 -0.8576  0.2025
32664SOL    HW2 6771   7.680   4.977   6.703  0.6611 -2.0251 -0.0199
32665SOL     OW 6772   2.918   4.066   0.054 -0.1196  0.1058 -0.0386
32665SOL    HW1 6773   3.003   4.022   0.051  0.0731  0.4726 -2.3675
32665SOL    HW2 6774   2.939   4.158   0.035 -1.1068 -0.0795 -2.4881
32666SOL     OW 6775  12.606   4.370   1.978  0.4750 -0.0784 -0.9727
32666SOL    HW1 6776  12.549   4.429   2.028  2.0326  0.0696  0.7469
32666SOL    HW2 6777  12.613   4.410   1.892  1.2485  2.1438  0.0491
32667SOL     OW 6778   9.910   6.275   5.046 -0.1748 -0.2828  0.5164
32667SOL    HW1 6779   9.979   6.335   5.015 -0.3317 -0.6238 -0.5572
32667SOL    HW2 6780   9.938   6.249   5.134  1.2897 -0.7330 -0.0425
32668SOL     OW 6781   6.051  12.031   5.922  0.0026  0.3071 -0.2519
32668SOL    HW1 6782   6.070  11.954   5.868  0.0260  0.0463  0.1199
32668SOL    HW2 6783   6.124  12.091   5.905 -1.3921  1.4597 -2.6859
32669SOL     OW 6784   8.298   2.454  12.227  0.2817 -0.4154 -0.2076
32669SOL    HW1 6785   8.316   2.458  12.321  1.5179 -2.3290 -0.3077
32669SOL    HW2 6786   8.223   2.395  12.220 -0.4654  0.5266 -0.3916
32670SOL     OW 6787   9.013   0.838  11.207 -0.2339 -0.0550 -0.0731
32670SOL    HW1 6788   8.951   0.803  11.143 -0.0377  2.2820 -1.6466
32670SOL    HW2 6789   8.981   0.806  11.292 -2.5253 -0.3746 -0.9958
32671SOL     OW 6790   5.023   2.043   0.762 -0.4366  0.4709 -0.3627
32671SOL    HW1 6791   5.110   2.059   0.799  0.1025 -1.6791 -0.5540
32671SOL    HW2 6792   5.006   1.950   0.781 -1.9344  0.3976 -1.8529
32672SOL     OW 6793   9.048   0.304   9.531  0.3538 -0.3834 -0.5313
32672SOL    HW1 6794   9.097   0.230   9.565 -0.5290 -0.7278  0.0190
32672SOL    HW2 6795   8.965   0.267   9.500 -0.2275  0.3958  0.0295
32673SOL     OW 6796   0.293   8.414   9.375  0.6444 -0.1011  0.2642
32673SOL    HW1 6797   0.283   8.319   9.374  0.3730 -0.0752 -1.1200
32673SOL    HW2 6798   0.381   8.428   9.339  0.2011  0.2158 -0.7038
32674SOL     OW 6799  10.933   0.488   0.144 -0.2644  0.6349 -0.5434
32674SOL    HW1 6800  10.852   0.522   0.183 -1.0023  0.7337 -2.1069
32674SOL    HW2 6801  10.950   0.407   0.192 -3.3656 -1.3826 -2.5424
32675SOL     OW 6802   5.581   9.103   3.344 -0.1565  1.1138  0.4398
32675SOL    HW1 6803   5.598   9.062   3.429 -1.2649  1.0738  0.6583
32675SOL    HW2 6804   5.491   9.133   3.350 -0.4633  0.5299 -0.9658
32676SOL     OW 6805   8.328   6.562   4.885  0.1327  0.1464  0.6281
32676SOL    HW1 6806   8.389   6.584   4.814  0.1616  0.8981  0.8860
32676SOL    HW2 6807   8.259   6.628   4.879  0.0913  0.1642  1.2443
32677SOL     OW 6808   9.842   3.827   3.211 -0.3005 -0.3057 -0.0088
32677SOL    HW1 6809   9.827   3.903   3.268  3.2195  0.7273 -0.1989
32677SOL    HW2 6810   9.835   3.752   3.270  1.9698  0.6455  1.6672
32678SOL     OW 6811   7.719   7.269  10.613 -0.1970  0.2093  0.0206
32678SOL    HW1 6812   7.708   7.177  10.636  1.3639  0.1830  0.7827
32678SOL    HW2 6813   7.634   7.309  10.633 -1.3322 -1.2780 -1.5685
32679SOL     OW 6814   5.471   6.036   7.387  0.3993 -0.1284  0.0362
32679SOL    HW1 6815   5.549   6.083   7.358  1.1094 -1.2819  0.0033
32679SOL    HW2 6816   5.438   5.994   7.307 -0.6248  0.8372 -0.0725
32680SOL     OW 6817   9.508   5.045   5.370 -0.0726 -0.5736 -0.2567
32680SOL    HW1 6818   9.450   5.117   5.396  0.5917 -0.3469  0.6680
32680SOL    HW2 6819   9.591   5.089   5.347  0.2699 -1.0249  0.1045
32681SOL     OW 6820   7.052  10.087  12.473  0.1826  0.6129 -0.2256
32681SOL    HW1 6821   6.987  10.018  12.464  1.0659 -0.2327 -0.2963
32681SOL    HW2 6822   7.009  10.165  12.439 -1.8038  0.7301  2.2380
32682SOL     OW 6823   0.558   2.064  10.608 -0.0213 -0.2969  0.8796
32682SOL    HW1 6824   0.633   2.098  10.559  1.1005 -2.4484  0.9967
32682SOL    HW2 6825   0.551   2.122  10.684  3.0639 -1.3839  2.1394
32683SOL     OW 6826   5.541   2.781   8.877  0.3264  0.5994 -0.0464
32683SOL    HW1 6827   5.504   2.820   8.956  1.6381  0.6252  0.5691
32683SOL    HW2 6828   5.476   2.799   8.809 -0.7368  0.7261  0.9760
32684SOL     OW 6829   8.992   9.424  11.528 -0.1675 -0.7164 -0.1457
32684SOL    HW1 6830   9.023   9.414  11.437  3.2522 -0.3391  0.8250
32684SOL    HW2 6831   9.029   9.348  11.573 -1.1852 -0.4986  1.0927
32685SOL     OW 6832   8.165   1.631   1.500  0.3239  0.0178 -0.3403
32685SOL    HW1 6833   8.211   1.566   1.448 -1.4037 -0.7322 -0.9965
32685SOL    HW2 6834   8.080   1.592   1.518 -1.5696  2.8200 -2.4266
32686SOL     OW 6835   3.515   5.729  10.387 -0.3457 -0.6079 -0.0104
32686SOL    HW1 6836   3.513   5.641  10.351 -1.5938  0.1264 -1.9132
32686SOL    HW2 6837   3.517   5.787  10.311 -1.6030  1.0295  1.1054
32687SOL     OW 6838   3.177   0.752   6.145 -0.5518  0.7445 -0.5093
32687SOL    HW1 6839   3.261   0.736   6.187 -0.2987  0.7722 -0.9954
32687SOL    HW2 6840   3.152   0.840   6.174 -0.2950  0.8334 -0.5584
32688SOL     OW 6841   4.100   1.559  11.384 -0.2934  0.3045  0.0702
32688SOL    HW1 6842   4.110   1.648  11.352  0.0731  0.4577  0.5983
32688SOL    HW2 6843   4.188   1.533  11.410 -0.3044 -0.4037 -0.5581
32689SOL     OW 6844   5.786   9.621  11.951 -0.2452 -0.1037 -0.3509
32689SOL    HW1 6845   5.804   9.582  11.865 -0.1360 -0.9711  0.0571
32689SOL    HW2 6846   5.712   9.571  11.984 -0.4307  0.3807 -0.0335
32690SOL     OW 6847   7.948   0.335  11.958  0.0129 -0.3578 -0.5751
32690SOL    HW1 6848   7.971   0.343  12.050  1.2042  2.5208 -1.0245
32690SOL    HW2 6849   7.982   0.249  11.932  1.3395 -0.4225  1.2202
32691SOL     OW 6850   7.832   2.288   8.107  0.2358  0.0178 -0.0630
32691SOL    HW1 6851   7.906   2.308   8.164  0.0940  0.8602 -0.1612
32691SOL    HW2 6852   7.871   2.274   8.021  0.3434 -0.1366  0.0121
32692SOL     OW 6853   8.236   7.277   8.045 -0.6694 -0.3127 -0.1417
32692SOL    HW1 6854   8.204   7.366   8.032 -0.6672 -0.2957 -0.0225
32692SOL    HW2 6855   8.166   7.232   8.093 -0.2060 -0.0710  0.7843
32693SOL     OW 6856  11.011   5.508  11.798  0.0812  0.1222  0.1151
32693SOL    HW1 6857  10.944   5.462  11.849 -1.3319  1.1477 -0.7395
32693SOL    HW2 6858  11.090   5.504  11.853 -0.7060 -0.9926  1.2255
32694SOL     OW 6859   7.916   6.902   5.042  0.5176 -0.1524 -0.0372
32694SOL    HW1 6860   7.840   6.882   4.988  1.2988 -2.6050 -0.3832
32694SOL    HW2 6861   7.942   6.991   5.016  0.4336 -0.9196 -3.2600
32695SOL     OW 6862   3.544  11.068   7.548  0.4358 -0.2245  0.6226
32695SOL    HW1 6863   3.473  11.087   7.487  0.7468  0.3840  0.4315
32695SOL    HW2 6864   3.618  11.118   7.514  0.9919 -0.9500  0.7447
32696SOL     OW 6865  11.359  10.699   4.141  0.2725 -0.3610  0.1024
32696SOL    HW1 6866  11.316  10.778   4.174  1.8491 -0.6263  3.0943
32696SOL    HW2 6867  11.302  10.628   4.171 -1.2721 -0.5033 -2.7865
32697SOL     OW 6868   5.471   8.239   3.966  0.0422  0.0761 -0.3037
32697SOL    HW1 6869   5.423   8.313   3.930 -0.5708 -0.8514 -1.4827
32697SOL    HW2 6870   5.452   8.167   3.905  0.6558 -1.0260  0.7738
32698SOL     OW 6871   6.486   7.100   5.778 -0.4427 -0.3670 -0.2727
32698SOL    HW1 6872   6.403   7.092   5.826  0.0892 -1.1294  0.5371
32698SOL    HW2 6873   6.462   7.086   5.686 -1.2635 -0.2538 -0.0827
32699SOL     OW 6874   4.383   1.958  11.693  0.7364  0.5909 -0.3493
32699SOL    HW1 6875   4.293   1.929  11.704  0.8910 -0.3767 -1.4295
32699SOL    HW2 6876   4.417   1.904  11.622  2.5866 -0.0338  0.9210
32700SOL     OW 6877   0.037   6.357   7.029 -0.5235  0.1139  0.3462
32700SOL    HW1 6878  -0.034   6.348   6.965 -0.1497  0.7701 -0.1723
32700SOL    HW2 6879   0.117   6.360   6.976 -0.2382  1.0780  0.8086
32701SOL     OW 6880   7.026  10.988   2.491 -0.2024 -0.3954 -0.0325
32701SOL    HW1 6881   7.047  10.986   2.585  0.8770  0.6920 -0.2337
32701SOL    HW2 6882   7.108  10.966   2.447 -0.6791 -0.7938 -0.7376
32702SOL     OW 6883   7.147  10.427   1.160 -0.6448  0.2738 -0.3505
32702SOL    HW1 6884   7.145  10.356   1.096 -2.2640  0.6663 -0.7786
32702SOL    HW2 6885   7.146  10.507   1.107  1.0359  0.6569  0.1301
32703SOL     OW 6886   8.998   2.432   8.303 -0.2190 -0.6977  0.4247
32703SOL    HW1 6887   9.057   2.494   8.346 -0.5740 -0.0739  0.0176
32703SOL    HW2 6888   9.031   2.346   8.329  0.1144 -0.3429  1.2196
32704SOL     OW 6889   4.998  12.267   3.666  0.6095  0.2494 -0.0410
32704SOL    HW1 6890   5.054  12.274   3.743  0.5469  2.6878 -0.1444
32704SOL    HW2 6891   4.911  12.289   3.698  0.5186  0.9191 -0.7322
32705SOL     OW 6892   4.234   3.764   4.829 -0.4588  0.3047 -0.0325
32705SOL    HW1 6893   4.314   3.769   4.881 -1.9434 -0.6022  2.4800
32705SOL    HW2 6894   4.221   3.671   4.813 -0.0878  0.5440 -2.0796
32706SOL     OW 6895   5.713   6.215   6.423 -0.3041 -0.0926  0.6612
32706SOL    HW1 6896   5.766   6.293   6.409  0.3708 -0.5344  0.7222
32706SOL    HW2 6897   5.771   6.153   6.467 -0.6649 -0.8224  0.1486
32707SOL     OW 6898   0.509   7.398   0.967  0.5049  0.4352 -0.2397
32707SOL    HW1 6899   0.492   7.341   0.892  0.6856  0.0928 -0.0222
32707SOL    HW2 6900   0.476   7.350   1.043  1.5875  0.1581  0.0699
32708SOL     OW 6901   8.405  11.185   7.679  0.8097  0.4703  0.2729
32708SOL    HW1 6902   8.344  11.120   7.643  0.3038  0.3543  1.2964
32708SOL    HW2 6903   8.351  11.238   7.739  0.8997  2.6546 -1.4323
32709SOL     OW 6904   2.491   1.055  10.515 -0.2970 -0.3595 -0.1616
32709SOL    HW1 6905   2.400   1.084  10.502 -0.3001 -0.0714  0.4646
32709SOL    HW2 6906   2.536   1.133  10.548 -0.1661 -0.8858  0.9564
32710SOL     OW 6907  11.437  10.818  11.781 -0.3766 -0.2908 -0.1179
32710SOL    HW1 6908  11.523  10.839  11.816  0.1504  1.0535 -2.0729
32710SOL    HW2 6909  11.443  10.727  11.754  0.3488 -0.2675 -0.0441
32711SOL     OW 6910  11.269  10.417   9.709  0.0697  0.4247  0.3512
32711SOL    HW1 6911  11.332  10.450   9.645 -1.1851 -0.5504 -1.4834
32711SOL    HW2 6912  11.299  10.328   9.728  0.7227  0.8848  1.5421
32712SOL     OW 6913   8.166  12.374   0.574  1.0232  0.3392 -0.1625
32712SOL    HW1 6914   8.240  12.363   0.514  0.8283  0.2735 -0.3959
32712SOL    HW2 6915   8.205  12.383   0.660  1.3012  0.2462 -0.2784
32713SOL     OW 6916   8.020   9.039  12.541  0.3477  0.0316 -0.1042
32713SOL    HW1 6917   8.002   9.120  12.590  0.4335 -0.4890  0.8071
32713SOL    HW2 6918   7.972   8.971  12.589  1.9438 -0.8065  0.3685
32714SOL     OW 6919   1.022   6.244   6.197  0.1275  0.7091 -0.0175
32714SOL    HW1 6920   1.059   6.201   6.120 -2.5867 -1.9532 -0.0390
32714SOL    HW2 6921   0.969   6.315   6.162  0.5731  0.8388 -0.4380
32715SOL     OW 6922   4.421  12.408  10.586 -0.3513  0.1870  0.1997
32715SOL    HW1 6923   4.499  12.379  10.632 -1.1601 -0.8507  0.9550
32715SOL    HW2 6924   4.427  12.368  10.499 -1.1129 -1.7418  0.9962
32716SOL     OW 6925   6.860   4.462   3.865  0.0504 -1.0088 -0.0380
32716SOL    HW1 6926   6.807   4.409   3.925 -1.2430  0.4377  0.1497
32716SOL    HW2 6927   6.900   4.528   3.921  0.5533 -0.9450 -0.4685
32717SOL     OW 6928  12.533   0.552   1.628  0.7364 -0.1497  0.1163
32717SOL    HW1 6929  12.522   0.551   1.533 -1.3091  1.8206  0.2343
32717SOL    HW2 6930  12.625   0.576   1.641  1.6356 -2.5186 -1.2811
32718SOL     OW 6931   2.362  10.635   6.077 -0.0435  0.9359 -0.2377
32718SOL    HW1 6932   2.451  10.628   6.112 -0.1754  1.2964  0.1777
32718SOL    HW2 6933   2.355  10.726   6.049 -0.5103  1.0962  0.3748
32719SOL     OW 6934   9.589  12.132   2.580 -0.0493 -0.1179  0.7979
32719SOL    HW1 6935   9.505  12.159   2.617 -0.0108 -0.8376  1.4439
32719SOL    HW2 6936   9.611  12.051   2.626  0.6128 -0.3753  0.0640
32720SOL     OW 6937  10.714   9.425   1.047  0.1255 -0.0230 -0.3259
32720SOL    HW1 6938  10.773   9.498   1.064 -1.1412  1.6711 -2.6753
32720SOL    HW2 6939  10.637   9.444   1.102  0.3967 -0.4369  0.2072
32721SOL     OW 6940   2.021   4.946   4.209 -0.4606 -0.0002 -0.5210
32721SOL    HW1 6941   2.057   5.035   4.211 -2.4151  0.8463 -1.0986
32721SOL    HW2 6942   1.962   4.946   4.134 -0.9834 -1.5978 -0.1307
32722SOL     OW 6943   3.207   5.341   9.333 -0.2678  0.2445 -0.0723
32722SOL    HW1 6944   3.296   5.351   9.366 -0.6330  1.1080  0.6947
32722SOL    HW2 6945   3.152   5.345   9.412 -1.0170  0.1686 -0.5815
32723SOL     OW 6946  10.899   7.675   7.191  0.0160 -0.1266  0.0781
32723SOL    HW1 6947  10.984   7.718   7.182 -0.4585  0.4873 -1.9607
32723SOL    HW2 6948  10.847   7.710   7.118 -1.3704 -1.9123  0.1575
32724SOL     OW 6949   8.457   2.108  11.446  0.0759 -0.7509  0.6350
32724SOL    HW1 6950   8.382   2.048  11.441  0.9687 -1.8779  0.4088
32724SOL    HW2 6951   8.469   2.122  11.539 -2.7164  2.4733  0.6851
32725SOL     OW 6952   0.137   0.687   5.977 -0.3215  0.0443 -0.6000
32725SOL    HW1 6953   0.200   0.760   5.976 -0.4569  0.1668 -0.2221
32725SOL    HW2 6954   0.138   0.654   5.887 -0.8891  1.0612 -0.9930
32726SOL     OW 6955   6.122   4.253   5.697  0.1239 -0.3226 -0.0095
32726SOL    HW1 6956   6.143   4.189   5.764  0.9267 -0.1011 -0.0433
32726SOL    HW2 6957   6.199   4.257   5.641 -0.6008 -0.6532 -1.0790
32727SOL     OW 6958  11.566   6.588   4.870 -0.0267 -0.4173  0.4872
32727SOL    HW1 6959  11.613   6.633   4.940  0.5150 -0.9188  0.4471
32727SOL    HW2 6960  11.507   6.655   4.834  1.5761  0.5998 -0.3365
32728SOL     OW 6961   5.383  12.447   1.769  0.3426  0.0306  0.3261
32728SOL    HW1 6962   5.313  12.504   1.738  0.8788  0.4241 -0.1784
32728SOL    HW2 6963   5.376  12.369   1.715 -1.1359 -0.9259  1.7875
32729SOL     OW 6964   8.838  11.462   3.000 -0.5030  0.0633 -0.1166
32729SOL    HW1 6965   8.921  11.446   2.956 -2.3696 -0.5166 -3.7693
32729SOL    HW2 6966   8.806  11.544   2.964 -1.5793  0.2709  1.2057
32730SOL     OW 6967  12.093   8.744   5.617 -0.0341 -0.3166  0.1382
32730SOL    HW1 6968  12.100   8.839   5.608  0.1545 -0.4108 -0.7997
32730SOL    HW2 6969  12.091   8.712   5.527  2.4240 -1.3856  0.3943
32731SOL     OW 6970   6.582   6.475   3.834  0.1393  0.4553  0.3141
32731SOL    HW1 6971   6.540   6.486   3.749 -0.1796  0.1677  0.4334
32731SOL    HW2 6972   6.654   6.538   3.833  2.9959 -2.5515 -1.9504
32732SOL     OW 6973  10.382   3.471   0.591 -0.0494  0.0226 -1.1013
32732SOL    HW1 6974  10.446   3.416   0.546  1.4440 -1.1195  2.1391
32732SOL    HW2 6975  10.405   3.560   0.565  2.4387 -0.4016 -0.6175
32733SOL     OW 6976   8.603   8.802   8.871 -0.0726 -0.0456 -0.0718
32733SOL    HW1 6977   8.615   8.751   8.951 -1.2056  0.9661  0.7795
32733SOL    HW2 6978   8.686   8.848   8.859  0.4134 -0.8795  0.0169
32734SOL     OW 6979   1.270   5.080  10.096 -0.3965 -0.0739 -0.0499
32734SOL    HW1 6980   1.363   5.067  10.115 -0.5273 -0.1638  0.5514
32734SOL    HW2 6981   1.228   5.080  10.182 -1.0724 -0.9950 -0.3728
32735SOL     OW 6982   5.679   6.780   0.441 -0.5926  0.2181  0.3607
32735SOL    HW1 6983   5.698   6.807   0.530  2.4690 -3.6021  1.1192
32735SOL    HW2 6984   5.764   6.772   0.399 -1.9188  1.6749 -2.9603
32736SOL     OW 6985   0.690   7.029   2.558  0.0897  0.3455 -0.4092
32736SOL    HW1 6986   0.674   7.038   2.652  0.4188 -0.5306 -0.2562
32736SOL    HW2 6987   0.636   7.096   2.518  1.7277  2.3505  0.5393
32737SOL     OW 6988  10.800   7.652  12.491  0.0574  0.2836 -0.9741
32737SOL    HW1 6989  10.723   7.709  12.498 -0.8193 -0.9251 -0.4083
32737SOL    HW2 6990  10.870   7.700  12.535 -0.7753  0.7527 -0.1359
32738SOL     OW 6991   4.297   3.820  10.422 -0.2061 -0.1987 -0.1428
32738SOL    HW1 6992   4.358   3.860  10.484  0.2446  1.5291 -1.6195
32738SOL    HW2 6993   4.250   3.754  10.473  2.0042 -0.7094  1.3423
32739SOL     OW 6994   7.529  11.199   2.898 -0.5352 -0.5593 -0.3364
32739SOL    HW1 6995   7.585  11.140   2.848  0.2532 -0.4982  0.4407
32739SOL    HW2 6996   7.481  11.248   2.832  1.9271  0.9453 -1.1699
32740SOL     OW 6997  10.051   3.064   6.594 -0.4555 -0.1455 -0.2103
32740SOL    HW1 6998  10.020   3.019   6.673 -1.5120 -0.5483 -0.8323
32740SOL    HW2 6999  10.032   3.003   6.523 -0.3152  0.5767 -0.8768
32741SOL     OW 7000   6.587   2.854   7.554 -0.0327  0.4260  0.4892
32741SOL    HW1 7001   6.607   2.945   7.532 -0.0445  0.2456 -0.3027
32741SOL    HW2 7002   6.632   2.803   7.487  0.1054 -0.1655  1.0160
32742SOL     OW 7003   3.641  10.620   0.736 -0.1563 -0.0439 -0.4784
32742SOL    HW1 7004   3.731  10.650   0.742 -0.6025  1.0216  1.5432
32742SOL    HW2 7005   3.595  10.666   0.806 -1.8774 -1.9860 -0.2450
32743SOL     OW 7006   4.836   8.845   4.748 -0.7104 -0.0463 -0.0358
32743SOL    HW1 7007   4.846   8.835   4.653  0.2049  0.3071  0.0187
32743SOL    HW2 7008   4.759   8.902   4.757 -2.3853 -2.1023 -0.4777
32744SOL     OW 7009  11.276   4.757   6.248 -0.3106  0.1829  0.2273
32744SOL    HW1 7010  11.358   4.720   6.280  0.0164  1.1865  0.5691
32744SOL    HW2 7011  11.301   4.816   6.177 -0.6481  1.1115  0.8650
32745SOL     OW 7012   7.332   1.547   8.789 -0.1621  0.5604  0.2264
32745SOL    HW1 7013   7.370   1.585   8.869  0.6896 -1.3950  0.8078
32745SOL    HW2 7014   7.241   1.527   8.813 -0.1947  0.8763  0.3775
32746SOL     OW 7015   9.616   9.176   2.834  0.1830 -0.4021 -1.0594
32746SOL    HW1 7016   9.683   9.123   2.791  0.3109 -1.0556 -0.0705
32746SOL    HW2 7017   9.597   9.130   2.915 -0.6728  0.3678 -0.8089
32747SOL     OW 7018  12.223   0.835   6.212 -0.0440 -0.7058  0.2850
32747SOL    HW1 7019  12.190   0.746   6.198 -0.4515 -0.6080  0.5903
32747SOL    HW2 7020  12.308   0.836   6.170 -0.7408 -0.7434 -1.1770
32748SOL     OW 7021  12.135   0.721   8.554  0.2959  0.5662  0.2144
32748SOL    HW1 7022  12.130   0.743   8.462  0.3477  1.7106  0.4756
32748SOL    HW2 7023  12.046   0.731   8.587  0.2898  0.2345  0.3047
32749SOL     OW 7024   3.832   8.131   3.083 -0.4036 -0.4658 -0.2963
32749SOL    HW1 7025   3.754   8.076   3.068 -1.0471  0.3162  0.1020
32749SOL    HW2 7026   3.905   8.077   3.053 -1.2597 -0.4961 -2.5914
32750SOL     OW 7027   2.442   7.539  12.042  0.8265  0.1725 -0.2261
32750SOL    HW1 7028   2.419   7.497  12.125  1.7287 -1.3434 -0.6990
32750SOL    HW2 7029   2.360   7.540  11.991  0.4512  0.4067  0.3726
32751SOL     OW 7030   2.766   4.899   3.264  0.9113  0.0770 -0.1995
32751SOL    HW1 7031   2.733   4.975   3.216  0.6274  0.6482  0.8689
32751SOL    HW2 7032   2.693   4.837   3.263  0.3389  0.7037  0.7891
32752SOL     OW 7033   1.934   6.699   7.192 -0.5365 -0.0678 -0.1762
32752SOL    HW1 7034   1.889   6.625   7.234 -0.5245  0.0061 -0.0337
32752SOL    HW2 7035   1.882   6.775   7.217 -2.6942 -0.3564 -3.1950
32753SOL     OW 7036   6.430   4.691  11.195 -0.3038  0.4060  0.2806
32753SOL    HW1 7037   6.435   4.599  11.218 -1.4230  0.4648  0.8471
32753SOL    HW2 7038   6.394   4.733  11.273  1.4156  1.5344  0.5226
32754SOL     OW 7039   7.068   7.890   2.077  0.5324 -0.8304 -0.7104
32754SOL    HW1 7040   7.160   7.918   2.081 -0.2098  1.6704  0.9675
32754SOL    HW2 7041   7.026   7.954   2.019 -0.7670  0.1731  1.2573
32755SOL     OW 7042   4.526   0.347   6.109 -0.2074 -0.1095 -0.3767
32755SOL    HW1 7043   4.548   0.343   6.202 -2.5714  2.1494  0.3981
32755SOL    HW2 7044   4.531   0.441   6.087 -1.1018 -0.4272 -2.1373
32756SOL     OW 7045   4.418   0.716   3.248 -0.0749 -0.3124  0.1216
32756SOL    HW1 7046   4.387   0.806   3.249  1.3154  0.2179  2.0082
32756SOL    HW2 7047   4.437   0.698   3.156  0.6491  1.7076 -0.1785
32757SOL     OW 7048   8.573   6.992   0.812  0.2419  0.0176  1.0073
32757SOL    HW1 7049   8.633   7.052   0.766 -0.6954 -0.1578 -0.5113
32757SOL    HW2 7050   8.556   7.036   0.896 -1.6578  2.7779 -0.6413
32758SOL     OW 7051   4.491   1.198   7.392 -0.1376 -0.1663 -0.4605
32758SOL    HW1 7052   4.576   1.180   7.350  1.7904  2.9167  1.6909
32758SOL    HW2 7053   4.444   1.250   7.328  0.7603  0.4035 -0.6786
32759SOL     OW 7054   6.981   4.893   1.147 -0.4142 -0.2124 -0.4945
32759SOL    HW1 7055   6.893   4.904   1.111 -0.8143 -0.0451  0.4894
32759SOL    HW2 7056   6.978   4.809   1.192 -1.3720  1.4736  2.9612
32760SOL     OW 7057   5.294   8.376   6.033  0.7178 -0.1165 -0.3324
32760SOL    HW1 7058   5.337   8.396   6.115 -0.3290  1.9988 -0.2369
32760SOL    HW2 7059   5.221   8.320   6.057  0.0146  1.0422  0.3104
32761SOL     OW 7060  11.347   5.593  12.495  0.2191  0.1448 -0.1875
32761SOL    HW1 7061  11.293   5.578  12.418  0.3738  0.2245 -0.3135
32761SOL    HW2 7062  11.293   5.565  12.569  0.5740 -1.2193 -0.4163
32762SOL     OW 7063   3.370   7.760  10.429  0.9684 -0.1121  0.1449
32762SOL    HW1 7064   3.312   7.766  10.504  0.2905 -0.6293 -0.3284
32762SOL    HW2 7065   3.357   7.671  10.395  1.1276  0.1696 -0.6866
32763SOL     OW 7066   3.537   1.558   7.912  0.3055 -0.6871  0.1924
32763SOL    HW1 7067   3.517   1.502   7.837  1.0932  0.0100 -0.5497
32763SOL    HW2 7068   3.584   1.500   7.972 -0.9466 -1.4418  0.4977
32764SOL     OW 7069   4.807  11.227   9.067 -0.1743  0.0751 -0.0308
32764SOL    HW1 7070   4.860  11.195   9.140 -0.9242  2.2750  1.5675
32764SOL    HW2 7071   4.786  11.317   9.090 -2.4713  0.0898 -1.8499
32765SOL     OW 7072   6.241   9.074   7.955  0.1746  0.5274 -0.7152
32765SOL    HW1 7073   6.188   9.154   7.948 -1.5078 -0.5628 -1.2186
32765SOL    HW2 7074   6.196   9.011   7.898  1.6125 -0.7073 -0.5449
32766SOL     OW 7075   2.895  12.433   0.354 -0.3208 -0.2033  0.7439
32766SOL    HW1 7076   2.802  12.445   0.336 -0.0213  0.9129 -0.1710
32766SOL    HW2 7077   2.897  12.376   0.431 -1.7256 -1.9415 -0.4040
32767SOL     OW 7078   5.991  11.739   0.580 -0.0692 -0.3042  0.1356
32767SOL    HW1 7079   5.896  11.747   0.588 -0.4329 -2.9147 -0.6092
32767SOL    HW2 7080   6.007  11.718   0.488  1.1177 -0.9454  0.4575
32768SOL     OW 7081   9.079   2.507   3.433 -0.1453 -0.6488  0.4685
32768SOL    HW1 7082   8.989   2.534   3.414 -0.1405  0.3218  1.7048
32768SOL    HW2 7083   9.133   2.557   3.371 -0.4228 -0.9853 -0.0516
32769SOL     OW 7084  11.412   6.989   7.889  0.0393 -0.1327  0.1728
32769SOL    HW1 7085  11.487   6.985   7.948 -0.0692  0.2988  0.3425
32769SOL    HW2 7086  11.448   6.963   7.804  0.3046 -0.2633  0.3213
32770SOL     OW 7087   9.424   2.200   1.122 -0.2345 -0.1576  0.2586
32770SOL    HW1 7088   9.513   2.186   1.090 -0.8023 -1.4624 -0.8014
32770SOL    HW2 7089   9.417   2.141   1.198 -0.8604 -1.6959 -0.9480
32771SOL     OW 7090   4.165   8.197   3.953 -0.2167 -0.2391 -0.6800
32771SOL    HW1 7091   4.178   8.106   3.925  0.5586 -0.1821 -0.5045
32771SOL    HW2 7092   4.244   8.220   4.001 -0.3110  0.6027 -0.9012
32772SOL     OW 7093   9.711  12.339   5.214  0.2730  0.1589  0.6678
32772SOL    HW1 7094   9.669  12.317   5.131 -0.4112  1.6008  0.6078
32772SOL    HW2 7095   9.773  12.408   5.192  1.0627 -0.3871  1.1435
32773SOL     OW 7096  11.812   7.282   1.582 -0.1196 -0.2235 -0.1192
32773SOL    HW1 7097  11.726   7.242   1.572 -0.3610  0.3819 -0.4819
32773SOL    HW2 7098  11.820   7.343   1.509 -0.2596  1.2761  1.0640
32774SOL     OW 7099   4.502   0.926   7.796 -0.6818 -0.4723 -0.5673
32774SOL    HW1 7100   4.477   1.009   7.755  1.3311 -0.9607 -3.0210
32774SOL    HW2 7101   4.479   0.860   7.732 -1.7517 -1.8274  1.1330
32775SOL     OW 7102   6.777   1.613   4.051  0.0403 -0.4407  0.2754
32775SOL    HW1 7103   6.853   1.612   3.992  1.7171  1.2272  2.2564
32775SOL    HW2 7104   6.815   1.623   4.138 -2.5040  1.0207  1.3039
32776SOL     OW 7105   0.145   3.197   5.736  0.0084  0.8080 -0.4356
32776SOL    HW1 7106   0.065   3.145   5.746 -2.0228  3.8729  1.0808
32776SOL    HW2 7107   0.196   3.177   5.815 -1.5838  2.2174  1.0659
32777SOL     OW 7108   2.802   5.609  10.562 -0.4822  0.2625  0.2157
32777SOL    HW1 7109   2.891   5.639  10.577 -0.7479  1.1279  0.1551
32777SOL    HW2 7110   2.797   5.523  10.603  0.3162  0.2991  0.3929
32778SOL     OW 7111   0.196  12.499   6.977 -0.5105 -0.4870 -0.3870
32778SOL    HW1 7112   0.144  12.430   6.935 -1.5468  0.7879 -1.3078
32778SOL    HW2 7113   0.156  12.580   6.946  0.8524  0.5355  0.4362
32779SOL     OW 7114   0.393  10.272  10.550  0.2677  0.5440 -0.4646
32779SOL    HW1 7115   0.436  10.346  10.592  1.4755 -0.3007 -0.1481
32779SOL    HW2 7116   0.464  10.210  10.532 -0.4817  0.0936 -2.0823
32780SOL     OW 7117   5.842   1.001   5.757 -0.0254 -0.3528 -0.1671
32780SOL    HW1 7118   5.868   1.042   5.675 -0.1693 -1.8793 -1.0122
32780SOL    HW2 7119   5.749   1.022   5.766  0.3166  1.0276  0.3719
32781SOL     OW 7120   0.991   7.502  11.013 -0.4500  0.0205 -0.0079
32781SOL    HW1 7121   1.021   7.411  11.010  0.1784  0.2471 -1.8328
32781SOL    HW2 7122   1.070   7.552  11.031 -0.4912  0.3163 -0.6309
32782SOL     OW 7123   7.071  11.585  11.756  0.1786  0.1452  0.3821
32782SOL    HW1 7124   6.985  11.555  11.787  0.1517 -1.1140 -0.7900
32782SOL    HW2 7125   7.074  11.556  11.665  1.1800  1.6693 -0.0979
32783SOL     OW 7126   8.154   2.139   9.039  0.2529  0.5993 -0.1187
32783SOL    HW1 7127   8.238   2.153   8.995  0.4775  0.4295  0.2494
32783SOL    HW2 7128   8.167   2.173   9.127 -0.3425  1.3608 -0.3143
32784SOL     OW 7129   1.518   8.326   4.116 -0.1660 -0.0916 -0.1903
32784SOL    HW1 7130   1.559   8.260   4.060 -0.7082 -1.0401  0.5175
32784SOL    HW2 7131   1.589   8.387   4.138  0.7758 -1.4497  0.6332
32785SOL     OW 7132   6.231   4.060  10.983  0.2060  0.1788  0.1234
32785SOL    HW1 7133   6.214   4.072  11.076 -1.1475 -0.6534  0.0052
32785SOL    HW2 7134   6.157   4.009  10.951  1.0429 -0.2300 -1.2571
32786SOL     OW 7135   7.356   1.428  10.408  0.1379 -0.1899  0.6298
32786SOL    HW1 7136   7.372   1.445  10.316  0.7345 -1.2758  0.5081
32786SOL    HW2 7137   7.443   1.415  10.446 -0.1478 -0.7734  1.1166
32787SOL     OW 7138   4.799  11.250   1.822  0.0384  0.3222 -0.0124
32787SOL    HW1 7139   4.848  11.217   1.747  0.4468  0.5777  0.1398
32787SOL    HW2 7140   4.713  11.273   1.786 -0.3323 -1.0668 -0.0888
32788SOL     OW 7141   0.689   2.053   6.015 -0.0312 -0.0332 -0.3896
32788SOL    HW1 7142   0.595   2.051   6.030  0.0859 -0.5700  0.3626
32788SOL    HW2 7143   0.710   1.966   5.983  0.2171  0.0549 -0.4687
32789SOL     OW 7144  10.600  10.624   9.996 -0.3086  0.5631 -0.0627
32789SOL    HW1 7145  10.662  10.675   9.944 -1.1311  1.2780 -0.3821
32789SOL    HW2 7146  10.580  10.680  10.071 -0.2221  0.1433  0.2770
32790SOL     OW 7147   9.291   6.533   6.217 -0.1773 -0.5195 -0.3975
32790SOL    HW1 7148   9.325   6.613   6.179 -0.1691 -0.1268  0.4186
32790SOL    HW2 7149   9.321   6.534   6.308  0.5226 -1.8478 -0.5832
32791SOL     OW 7150   6.827  10.346   8.957 -0.1813  0.1730 -0.4456
32791SOL    HW1 7151   6.752  10.311   8.909  0.1636  0.9377 -1.5696
32791SOL    HW2 7152   6.903  10.317   8.908  0.1860  0.8437 -0.2789
32792SOL     OW 7153   5.510   9.960   4.717  0.2453  0.1818  0.1214
32792SOL    HW1 7154   5.462  10.023   4.771 -1.5248 -0.8193 -0.2208
32792SOL    HW2 7155   5.450   9.886   4.706  2.5519 -2.0288  1.2622
32793SOL     OW 7156   2.890   9.796  11.396 -0.0522 -0.1288 -0.1144
32793SOL    HW1 7157   2.973   9.842  11.405  0.0771 -0.4981  0.6676
32793SOL    HW2 7158   2.897   9.722  11.456 -1.0409 -0.0292  0.1382
32794SOL     OW 7159  10.306   6.167  10.599 -0.1380 -0.4407  0.2620
32794SOL    HW1 7160  10.218   6.199  10.576 -0.0415 -1.2866 -1.4190
32794SOL    HW2 7161  10.366   6.232  10.561 -0.0090 -0.5210  0.3299
32795SOL     OW 7162  11.736  12.225   6.131  0.0807  0.5352  0.0759
32795SOL    HW1 7163  11.659  12.187   6.087 -0.9521  2.2848  0.2743
32795SOL    HW2 7164  11.719  12.319   6.132  1.0265  0.7412  2.4368
32796SOL     OW 7165   5.673   5.789   0.105  0.2170 -0.2227 -0.1150
32796SOL    HW1 7166   5.636   5.877   0.119 -1.0340 -0.5576 -1.0940
32796SOL    HW2 7167   5.608   5.730   0.142 -0.0830 -0.8175 -1.5431
32797SOL     OW 7168  10.729   6.593   9.498 -0.3793  0.0279  0.0571
32797SOL    HW1 7169  10.758   6.685   9.500  0.1937 -0.1121  2.6981
32797SOL    HW2 7170  10.691   6.579   9.585 -0.3028 -2.2984 -0.2368
32798SOL     OW 7171   7.586   9.363   7.320 -0.4706  0.5734 -0.2213
32798SOL    HW1 7172   7.501   9.371   7.364 -0.9863 -2.1076 -0.5850
32798SOL    HW2 7173   7.649   9.397   7.384 -1.4190 -1.2523  1.8055
32799SOL     OW 7174   0.709   1.119  12.595 -0.2914 -0.3511 -0.0744
32799SOL    HW1 7175   0.629   1.097  12.644 -1.1452  1.7622 -0.4224
32799SOL    HW2 7176   0.697   1.075  12.511 -0.3702 -1.2944  0.4189
32800SOL     OW 7177   6.062   5.949   0.385 -0.3824 -0.0717 -0.4126
32800SOL    HW1 7178   6.135   5.987   0.337 -0.9327  0.2605 -1.0034
32800SOL    HW2 7179   6.022   5.888   0.323  0.8057 -2.0854  0.6763
32801SOL     OW 7180   5.072   0.938   8.025  0.3459 -0.0691  0.6507
32801SOL    HW1 7181   4.979   0.915   8.023  0.1487  0.6873 -1.1683
32801SOL    HW2 7182   5.118   0.855   8.017 -0.2089 -0.3644  0.4719
32802SOL     OW 7183  12.291   4.174   7.830  0.3282 -0.1127 -0.7827
32802SOL    HW1 7184  12.240   4.211   7.903  2.1200  0.1642  0.4076
32802SOL    HW2 7185  12.292   4.080   7.846  1.5754  0.0334  0.2077
32803SOL     OW 7186   6.893   7.191  11.742  0.1277 -0.2499  0.4069
32803SOL    HW1 7187   6.812   7.187  11.692  1.7540 -2.1030 -2.3684
32803SOL    HW2 7188   6.926   7.101  11.742  2.0583  0.3909  1.6484
32804SOL     OW 7189   4.846   3.587  10.484 -0.3680  0.0665 -0.3583
32804SOL    HW1 7190   4.868   3.601  10.576  1.0947 -2.2122 -0.2961
32804SOL    HW2 7191   4.764   3.537  10.486 -0.1610 -0.2709 -0.2822
32805SOL     OW 7192   4.323   6.767   1.195 -0.2447 -0.4971 -0.2936
32805SOL    HW1 7193   4.401   6.712   1.184  0.5078  0.3721  0.4824
32805SOL    HW2 7194   4.337   6.812   1.279 -1.1396  0.3815 -0.5901
32806SOL     OW 7195   4.305   0.743   5.212  0.2033 -0.1707 -0.3671
32806SOL    HW1 7196   4.255   0.818   5.179  1.0451  0.1506 -0.9461
32806SOL    HW2 7197   4.365   0.721   5.141  0.8434 -0.5868  0.2932
32807SOL     OW 7198   0.345  11.164   8.886 -0.3044 -0.3108 -0.4831
32807SOL    HW1 7199   0.318  11.202   8.802 -0.1396 -0.6809 -0.7052
32807SOL    HW2 7200   0.286  11.090   8.900 -1.0326  0.3888  0.2539
32808SOL     OW 7201   5.631   3.236   6.283  0.1611 -0.2287 -0.0280
32808SOL    HW1 7202   5.541   3.254   6.256  0.5290  0.6673 -0.7100
32808SOL    HW2 7203   5.628   3.237   6.379 -0.0854  2.4293 -0.0057
32809SOL     OW 7204   9.402  11.572   0.015  0.3791 -0.0932  0.6253
32809SOL    HW1 7205   9.450  11.646  -0.022 -1.2763  0.8697  0.3425
32809SOL    HW2 7206   9.438  11.561   0.103  1.6942  0.0462  0.1301
32810SOL     OW 7207   3.322  12.047   5.927 -0.0451  0.1825 -0.3248
32810SOL    HW1 7208   3.364  12.128   5.900  0.3142  0.6477  1.5053
32810SOL    HW2 7209   3.336  11.987   5.854 -0.7209  1.8768 -1.9162
32811SOL     OW 7210   5.266   4.731   8.699  0.3182  0.1048  0.4654
32811SOL    HW1 7211   5.324   4.792   8.746  2.5106  0.7852 -2.7524
32811SOL    HW2 7212   5.309   4.646   8.708 -0.9965 -0.4374  2.2192
32812SOL     OW 7213  11.115   3.354   2.794 -0.1761 -0.5737 -0.3890
32812SOL    HW1 7214  11.181   3.356   2.864  0.7220  2.4035 -1.1806
32812SOL    HW2 7215  11.084   3.444   2.788 -2.9587 -1.5054 -1.3861
32813SOL     OW 7216   7.350   1.011  11.996 -0.8880  0.4381  0.0048
32813SOL    HW1 7217   7.408   0.939  12.020 -0.8170  0.7849  0.9013
32813SOL    HW2 7218   7.269   0.969  11.969 -0.5142 -0.0118 -0.4483
32814SOL     OW 7219  10.065   0.777   5.689  0.0030  0.4474  0.2979
32814SOL    HW1 7220   9.975   0.808   5.701 -0.2080 -0.3456  0.8153
32814SOL    HW2 7221  10.082   0.725   5.768  1.0327  0.8726  0.3657
32815SOL     OW 7222  11.938   9.655   4.804 -0.3154 -0.0441  0.6153
32815SOL    HW1 7223  12.004   9.586   4.808  0.1907  0.3625 -0.4165
32815SOL    HW2 7224  11.882   9.631   4.731 -0.2012  0.5649  0.3171
32816SOL     OW 7225   7.536   8.063   2.943  0.0418  0.5031 -0.1530
32816SOL    HW1 7226   7.509   8.155   2.939  0.4791  0.5876 -1.7590
32816SOL    HW2 7227   7.455   8.013   2.937 -0.0360  0.7829 -1.8049
32817SOL     OW 7228   0.892   4.517   5.235  0.3021  0.0278 -0.2456
32817SOL    HW1 7229   0.894   4.601   5.280 -0.7280 -0.3302  0.5253
32817SOL    HW2 7230   0.978   4.479   5.249  0.2292  0.2332  0.8540
32818SOL     OW 7231   8.915   6.423   4.930  0.2328  0.5220 -0.2557
32818SOL    HW1 7232   8.979   6.409   5.000 -0.2880  1.0253  0.3318
32818SOL    HW2 7233   8.848   6.479   4.970  0.4234  1.6412 -1.4468
32819SOL     OW 7234   8.717   9.279   1.834  0.2038 -0.2508  0.1149
32819SOL    HW1 7235   8.672   9.198   1.809  0.1971 -0.9766  2.2009
32819SOL    HW2 7236   8.647   9.337   1.865  0.3125  0.1438 -0.3813
32820SOL     OW 7237   7.643   6.510  12.111 -0.0015 -0.0920 -0.3988
32820SOL    HW1 7238   7.678   6.500  12.022  0.1063  0.7293 -0.4629
32820SOL    HW2 7239   7.586   6.587  12.105 -0.1349 -0.1429  0.2024
32821SOL     OW 7240   5.884   5.758   3.562 -0.1652  0.3244  0.2118
32821SOL    HW1 7241   5.804   5.735   3.515 -0.7551  0.8093  0.9505
32821SOL    HW2 7242   5.934   5.812   3.501 -0.2187 -0.2933 -0.3879
32822SOL     OW 7243   1.993   1.093   8.265 -0.4816 -0.6571  0.2936
32822SOL    HW1 7244   2.064   1.157   8.269 -1.6121  0.6826 -0.2308
32822SOL    HW2 7245   2.018   1.026   8.328  0.6548  0.4040  1.0335
32823SOL     OW 7246   6.870  11.780   8.278  0.2715  0.2145 -0.0002
32823SOL    HW1 7247   6.852  11.840   8.205 -0.1678  0.5399  0.3746
32823SOL    HW2 7248   6.925  11.830   8.337 -1.7568  1.0068  1.3222
32824SOL     OW 7249   0.929   3.225   6.661 -0.2166  0.3989  0.3242
32824SOL    HW1 7250   0.922   3.179   6.577  1.5283  0.5638  0.0500
32824SOL    HW2 7251   0.857   3.289   6.659 -1.8702 -1.3534  0.1518
32825SOL     OW 7252  12.530  11.866   7.462  0.1986  0.4779  0.3402
32825SOL    HW1 7253  12.542  11.771   7.465 -0.1237  0.4540  2.5315
32825SOL    HW2 7254  12.534  11.888   7.369 -1.7725 -1.9403 -0.4171
32826SOL     OW 7255   8.206   9.801   2.768  0.6078 -0.1234  0.0074
32826SOL    HW1 7256   8.226   9.885   2.728  1.9793 -0.4795 -0.1173
32826SOL    HW2 7257   8.276   9.787   2.832 -0.1984 -0.6864  0.8052
32827SOL     OW 7258   8.571  10.415  12.126 -0.6214 -0.5932  0.5788
32827SOL    HW1 7259   8.544  10.325  12.143 -0.0710 -0.4765  2.2121
32827SOL    HW2 7260   8.590  10.451  12.212  1.0530  0.4844 -0.1966
32828SOL     OW 7261   9.012   4.720   9.470  0.4580 -0.3139 -0.0324
32828SOL    HW1 7262   8.990   4.721   9.376  0.5847 -3.3558 -0.1761
32828SOL    HW2 7263   8.933   4.686   9.512  0.4607  0.8925  0.9905
32829SOL     OW 7264  10.303   8.152   1.316  0.4271 -0.6041  1.1649
32829SOL    HW1 7265  10.382   8.173   1.265 -0.6787  0.2254 -0.2985
32829SOL    HW2 7266  10.247   8.106   1.253 -0.7934  0.0114  1.7808
32830SOL     OW 7267   9.521   1.757   2.902 -0.2665 -0.4298 -0.4691
32830SOL    HW1 7268   9.444   1.795   2.945 -0.6881 -1.4211 -0.3231
32830SOL    HW2 7269   9.583   1.744   2.974  0.3407  1.0504 -0.6964
32831SOL     OW 7270   8.885   3.828   6.582 -0.7304  0.1660  0.2870
32831SOL    HW1 7271   8.908   3.756   6.523  0.0359 -0.3272  1.1721
32831SOL    HW2 7272   8.791   3.839   6.571 -0.6987 -0.3280 -0.5689
32832SOL     OW 7273   2.913   4.569   4.189  0.2357 -0.0786  0.2959
32832SOL    HW1 7274   2.883   4.628   4.120 -0.8971  1.4381  2.0188
32832SOL    HW2 7275   2.941   4.490   4.142 -2.6656 -0.0268 -1.7441
32833SOL     OW 7276  10.507   6.606   3.950  0.1102 -0.1366  0.1593
32833SOL    HW1 7277  10.600   6.618   3.932  0.7081 -0.1155  2.8123
32833SOL    HW2 7278  10.503   6.523   3.997 -1.6936 -1.7998 -2.6811
32834SOL     OW 7279   9.381   0.735   2.680 -0.1112 -0.3457 -0.0981
32834SOL    HW1 7280   9.295   0.775   2.694 -0.4167 -0.6718 -0.9675
32834SOL    HW2 7281   9.402   0.696   2.765 -0.7419 -0.1201  0.1766
32835SOL     OW 7282   0.453   6.855   5.698  0.2107  0.4957  0.4416
32835SOL    HW1 7283   0.512   6.900   5.759  0.6201  0.4866  0.0633
32835SOL    HW2 7284   0.512   6.807   5.640 -0.1695  0.5475  0.0066
32836SOL     OW 7285   6.838   0.424   0.200 -0.0029 -0.0493  0.3358
32836SOL    HW1 7286   6.905   0.430   0.132 -1.3956  0.5419 -1.0545
32836SOL    HW2 7287   6.817   0.331   0.204  0.8801 -0.2396  0.7806
32837SOL     OW 7288   3.969   0.720   5.422 -0.0953 -0.2720 -0.1175
32837SOL    HW1 7289   3.986   0.814   5.411  0.0470 -0.3303 -0.3976
32837SOL    HW2 7290   3.937   0.712   5.512 -1.2461  0.2186 -0.4582
32838SOL     OW 7291   5.978   2.885   7.752  0.0356  0.5001 -0.2241
32838SOL    HW1 7292   6.033   2.956   7.786  1.0071 -0.9360  1.3993
32838SOL    HW2 7293   6.041   2.818   7.724 -0.6653 -1.9454  3.3221
32839SOL     OW 7294   0.735   2.806   6.144 -0.6736 -0.4033 -0.0038
32839SOL    HW1 7295   0.688   2.787   6.063 -0.3833  0.8379 -0.4853
32839SOL    HW2 7296   0.823   2.829   6.115 -0.4893 -0.2358  0.6855
32840SOL     OW 7297  11.814   6.136   7.494 -0.1302 -0.0622 -0.4286
32840SOL    HW1 7298  11.796   6.229   7.481 -0.9561  0.0680  1.3654
32840SOL    HW2 7299  11.901   6.133   7.532 -0.9116  0.1851  1.4967
32841SOL     OW 7300  10.138   6.663   9.306 -0.1808 -0.2417  0.5373
32841SOL    HW1 7301  10.116   6.654   9.214 -1.3178 -0.5930  0.8256
32841SOL    HW2 7302  10.181   6.580   9.328 -1.0675 -0.6874  0.6237
32842SOL     OW 7303   0.865   0.987   0.459  0.0494 -0.0761 -0.4129
32842SOL    HW1 7304   0.815   0.926   0.404  1.1540 -2.0918  0.7263
32842SOL    HW2 7305   0.804   1.011   0.529 -0.7061  0.9260 -1.3841
32843SOL     OW 7306   4.485   5.515   8.957  0.1483 -0.0401  0.3450
32843SOL    HW1 7307   4.552   5.465   8.910 -0.0319  0.3911 -0.3873
32843SOL    HW2 7308   4.474   5.595   8.905 -1.1923 -0.2607  0.2571
32844SOL     OW 7309   8.984   8.638   3.649 -0.2174 -0.1405  0.5639
32844SOL    HW1 7310   9.053   8.573   3.664  0.1989  0.0536 -0.4944
32844SOL    HW2 7311   8.914   8.589   3.606 -0.7797 -0.3464  1.6691
32845SOL     OW 7312   5.152   0.029   6.613  0.2304 -0.1661  0.1205
32845SOL    HW1 7313   5.088   0.024   6.683  0.1735 -1.8511  0.0004
32845SOL    HW2 7314   5.218  -0.037   6.636  0.4636 -0.4033 -1.1342
32846SOL     OW 7315  11.235   2.819   0.704  0.0547 -0.1482 -0.7253
32846SOL    HW1 7316  11.234   2.796   0.611  0.4380 -0.9241 -0.5521
32846SOL    HW2 7317  11.143   2.833   0.726 -0.0025  0.4613 -1.3141
32847SOL     OW 7318   6.674   6.474  12.044  0.5288 -0.1807 -0.2770
32847SOL    HW1 7319   6.685   6.403  11.981 -0.6552  0.5427 -1.3359
32847SOL    HW2 7320   6.758   6.520  12.043  0.2653  0.3156 -1.9610
32848SOL     OW 7321  10.005   3.321   8.931 -0.1723 -0.2284 -0.0847
32848SOL    HW1 7322   9.967   3.337   8.845  0.7027 -1.3172 -0.6940
32848SOL    HW2 7323  10.005   3.407   8.974  0.4392  0.5496 -1.5869
32849SOL     OW 7324   7.318   2.961   3.257  0.1517  0.0694 -0.6126
32849SOL    HW1 7325   7.241   2.998   3.301 -0.2371 -0.9938 -0.3693
32849SOL    HW2 7326   7.313   2.995   3.168  0.2835  1.2813 -0.1754
32850SOL     OW 7327   7.380   4.845  12.155 -0.1177  0.7092 -0.5627
32850SOL    HW1 7328   7.469   4.811  12.155 -0.5699 -0.5317 -0.4211
32850SOL    HW2 7329   7.375   4.899  12.076  1.7056  3.5480  1.1042
32851SOL     OW 7330   8.537   3.343   4.035  0.4941  0.0217 -0.4357
32851SOL    HW1 7331   8.585   3.424   4.056 -1.1076  1.1231 -0.8237
32851SOL    HW2 7332   8.602   3.287   3.995  1.9609  0.6136  0.9871
32852SOL     OW 7333  12.187   7.565  12.530 -0.4406 -0.0339  0.1114
32852SOL    HW1 7334  12.188   7.552  12.625 -2.1362  1.4676  0.3790
32852SOL    HW2 7335  12.097   7.588  12.510 -0.1451 -0.4393 -1.9156
32853SOL     OW 7336  12.318   5.360   0.359  0.0522 -0.0834 -0.2241
32853SOL    HW1 7337  12.320   5.385   0.267  2.9163 -0.0296 -0.2386
32853SOL    HW2 7338  12.293   5.268   0.359  0.3153 -0.1578 -1.0811
32854SOL     OW 7339  10.766   1.991   7.170  0.3080 -0.2072 -0.2335
32854SOL    HW1 7340  10.774   2.086   7.182  0.3296  0.0441 -1.8987
32854SOL    HW2 7341  10.809   1.975   7.086 -1.1047 -1.4535 -0.7541
32855SOL     OW 7342   3.380  11.476   7.573  0.0936  0.3574 -0.2693
32855SOL    HW1 7343   3.464  11.521   7.586 -0.9175  1.9436  1.2505
32855SOL    HW2 7344   3.324  11.542   7.532 -0.2866 -0.8548 -1.7653
32856SOL     OW 7345  12.198   9.533   3.536  0.0272 -0.0909 -0.2373
32856SOL    HW1 7346  12.216   9.439   3.541 -1.2331 -0.3491 -0.2241
32856SOL    HW2 7347  12.261   9.572   3.597  0.5239 -0.9297 -0.1895
32857SOL     OW 7348   6.273   7.839   5.249 -0.1242 -0.3079  0.6336
32857SOL    HW1 7349   6.216   7.896   5.299 -1.6767 -0.8923 -0.4004
32857SOL    HW2 7350   6.217   7.767   5.221  0.1164  0.7202 -3.2234
32858SOL     OW 7351   8.682   2.839   5.555 -0.2402  0.2596  0.2987
32858SOL    HW1 7352   8.777   2.842   5.552 -0.2660  0.6212 -0.3568
32858SOL    HW2 7353   8.657   2.796   5.473 -0.6367  0.0819  0.5105
32859SOL     OW 7354   0.163  12.104   7.808  0.7783  0.0581  0.0634
32859SOL    HW1 7355   0.158  12.009   7.796 -0.0428 -0.2107  2.1367
32859SOL    HW2 7356   0.208  12.115   7.892  0.0201  1.4781  0.3166
32860SOL     OW 7357   1.405  11.965  12.052 -0.3695 -0.0950  0.6124
32860SOL    HW1 7358   1.407  11.875  12.018 -0.2069  0.0812  0.1456
32860SOL    HW2 7359   1.476  12.009  12.005 -0.9581  0.4853  0.2616
32861SOL     OW 7360   5.394   2.702  11.969  0.0822 -0.7132 -0.1365
32861SOL    HW1 7361   5.441   2.693  11.886  1.2076  1.6726  0.1584
32861SOL    HW2 7362   5.460   2.733  12.031 -1.9046  4.1619 -0.0049
32862SOL     OW 7363  11.684   4.742   4.142  0.1182  0.0383  0.0719
32862SOL    HW1 7364  11.733   4.662   4.124 -0.3356 -0.8672  2.4557
32862SOL    HW2 7365  11.748   4.812   4.130  0.4141 -0.5617 -2.5001
32863SOL     OW 7366   0.645   1.954  12.053  0.1709 -0.1698  0.1392
32863SOL    HW1 7367   0.711   1.885  12.052  0.2479 -0.0979  0.2088
32863SOL    HW2 7368   0.666   2.006  12.131  0.3229  0.1328 -0.1021
32864SOL     OW 7369   1.822   4.810  10.355 -0.4687 -0.4066  0.0090
32864SOL    HW1 7370   1.877   4.731  10.358 -0.6904 -0.5866 -0.5070
32864SOL    HW2 7371   1.732   4.776  10.356 -0.6417 -0.0641  2.6407
32865SOL     OW 7372   4.082  11.144   8.214 -1.1341  0.6390  0.4962
32865SOL    HW1 7373   3.992  11.121   8.192 -1.5538  1.5132  1.2336
32865SOL    HW2 7374   4.126  11.155   8.130 -1.9651  1.1314  0.1162
32866SOL     OW 7375   5.072   4.870   7.077  0.0901 -0.3691 -0.2697
32866SOL    HW1 7376   5.150   4.817   7.060  1.8780  2.3253 -1.1245
32866SOL    HW2 7377   5.097   4.959   7.051 -2.9156  0.8370  0.5183
32867SOL     OW 7378   0.104   3.815   4.066  0.2991  0.1067 -0.6637
32867SOL    HW1 7379   0.033   3.840   4.007  0.0912  0.5003 -0.2531
32867SOL    HW2 7380   0.179   3.800   4.009 -0.6182 -2.3279 -1.3284
32868SOL     OW 7381   3.456   9.797  10.268 -0.1602 -0.4500 -0.3754
32868SOL    HW1 7382   3.512   9.871  10.288 -0.7520  0.2939 -1.3642
32868SOL    HW2 7383   3.494   9.723  10.316  1.6199  0.0343 -0.9995
32869SOL     OW 7384   2.601  10.912   8.077 -0.0436 -0.6280  0.4635
32869SOL    HW1 7385   2.611  10.817   8.079  1.2980 -0.4937  0.7729
32869SOL    HW2 7386   2.681  10.944   8.035  0.2530  0.4431  1.7806
32870SOL     OW 7387   9.115   9.733   2.372  0.4731  0.0645 -0.1948
32870SOL    HW1 7388   9.071   9.775   2.298  1.3830  1.2757 -0.0785
32870SOL    HW2 7389   9.191   9.690   2.334 -0.0314 -0.8493 -0.1998
32871SOL     OW 7390   5.955   2.327   8.493  0.3003 -0.1712 -0.4268
32871SOL    HW1 7391   6.000   2.409   8.513  0.1281  0.1593 -1.3553
32871SOL    HW2 7392   5.889   2.318   8.563  1.8987 -0.7781  1.0804
32872SOL     OW 7393   5.133   1.752   9.754  0.1433 -0.1004  0.1649
32872SOL    HW1 7394   5.215   1.740   9.705 -0.6399 -0.3892 -1.1329
32872SOL    HW2 7395   5.071   1.694   9.711 -1.5927  2.3839 -0.9400
32873SOL     OW 7396   3.443   8.346   6.318 -0.3232  0.3448  0.4845
32873SOL    HW1 7397   3.495   8.295   6.256 -0.3590  1.1097 -0.1985
32873SOL    HW2 7398   3.490   8.429   6.326 -1.4582  1.0905 -0.2276
32874SOL     OW 7399  10.382   9.464   0.809 -0.2507 -0.3713  0.1033
32874SOL    HW1 7400  10.451   9.497   0.751 -0.5754  0.4327  0.1677
32874SOL    HW2 7401  10.353   9.541   0.858 -2.1148 -0.3994 -0.8572
32875SOL     OW 7402   2.338   5.894   9.492  0.6157  0.1520  0.7198
32875SOL    HW1 7403   2.244   5.902   9.511  0.8318 -0.0766  2.0031
32875SOL    HW2 7404   2.375   5.859   9.573  1.9163  0.9376  0.4908
32876SOL     OW 7405   0.151  11.476   7.357 -0.0937 -0.0562 -0.4906
32876SOL    HW1 7406   0.151  11.523   7.274  0.7793 -0.7038 -0.8740
32876SOL    HW2 7407   0.192  11.535   7.419  2.0348 -0.6826 -1.2178
32877SOL     OW 7408   6.191   3.451   5.527 -0.5650  0.0815 -0.2977
32877SOL    HW1 7409   6.097   3.438   5.519 -0.6898 -0.8435  1.9867
32877SOL    HW2 7410   6.200   3.527   5.586  0.0859 -0.6468  0.5696
32878SOL     OW 7411   5.252   1.342   2.115 -0.2272  0.1535 -0.6007
32878SOL    HW1 7412   5.331   1.384   2.150  0.3554 -0.4202 -1.1824
32878SOL    HW2 7413   5.280   1.253   2.094 -1.3070 -0.3905  0.1513
32879SOL     OW 7414   0.940   5.493   7.759  0.1124  0.2854 -0.2784
32879SOL    HW1 7415   0.964   5.489   7.666 -0.7059  0.1796 -0.4984
32879SOL    HW2 7416   0.866   5.554   7.762 -1.6044 -1.6865 -0.1076
32880SOL     OW 7417   7.205   4.545   8.267  0.1523 -0.3695 -0.4303
32880SOL    HW1 7418   7.237   4.455   8.268 -1.3903 -0.9492  0.4223
32880SOL    HW2 7419   7.111   4.537   8.250  0.1562  1.1551 -1.3777
32881SOL     OW 7420  11.540   2.954   4.346 -0.7554 -0.1739  0.3871
32881SOL    HW1 7421  11.510   3.017   4.411  1.3075  1.3389 -0.0052
32881SOL    HW2 7422  11.616   2.912   4.387  1.5614  1.9009 -1.4354
32882SOL     OW 7423   3.253   0.927   3.510 -0.4705  0.3465  0.0982
32882SOL    HW1 7424   3.311   0.860   3.546 -0.3372  1.3215  1.8579
32882SOL    HW2 7425   3.284   0.941   3.420  0.9688 -0.3170  0.4657
32883SOL     OW 7426   4.060  12.156   1.631 -0.6367 -0.1398 -0.1515
32883SOL    HW1 7427   3.999  12.193   1.567 -0.9540 -0.7765 -0.2233
32883SOL    HW2 7428   4.008  12.147   1.711 -0.3566  0.2586  0.0769
32884SOL     OW 7429  11.625   0.146   0.433 -0.4111 -0.0877  0.0430
32884SOL    HW1 7430  11.699   0.086   0.425 -0.7551 -0.3080 -2.3743
32884SOL    HW2 7431  11.548   0.089   0.439 -0.6904  0.0375 -1.7102
32885SOL     OW 7432   0.775   6.419  12.412  0.1497  0.3315 -0.2109
32885SOL    HW1 7433   0.869   6.434  12.409  0.0007  1.7437  0.8708
32885SOL    HW2 7434   0.740   6.469  12.338  0.1836  0.5173 -0.1026
32886SOL     OW 7435   2.158   3.666   0.614  0.2239  0.3084 -0.0364
32886SOL    HW1 7436   2.177   3.749   0.570 -0.1736  0.6406  0.4084
32886SOL    HW2 7437   2.238   3.615   0.605  0.1946  0.4176 -1.0325
32887SOL     OW 7438   0.339   8.884   8.881 -0.1372 -0.2477 -0.6954
32887SOL    HW1 7439   0.353   8.895   8.787  0.1139  0.0469 -0.6209
32887SOL    HW2 7440   0.412   8.929   8.922 -0.0857 -0.6301 -0.3612
32888SOL     OW 7441   2.573   8.957   9.686  0.2414  0.5315  0.0651
32888SOL    HW1 7442   2.598   9.048   9.706 -1.1355  0.8628  0.3889
32888SOL    HW2 7443   2.506   8.936   9.752  1.3324 -1.1156  0.7106
32889SOL     OW 7444   4.984   2.223   2.359  0.2123  0.0905  0.1185
32889SOL    HW1 7445   4.990   2.128   2.351 -1.2167 -0.0374  0.2359
32889SOL    HW2 7446   4.996   2.255   2.270 -0.5221 -0.2957 -0.1305
32890SOL     OW 7447   8.909   3.715   9.048 -0.2952  0.0297  0.7044
32890SOL    HW1 7448   8.954   3.633   9.068 -4.8088 -3.0755 -0.2997
32890SOL    HW2 7449   8.905   3.761   9.132  0.6125 -1.7863  1.8046
32891SOL     OW 7450   4.547   7.866  11.751 -0.2320 -0.5873  0.2475
32891SOL    HW1 7451   4.547   7.958  11.779  0.3420  0.1805 -2.0917
32891SOL    HW2 7452   4.616   7.826  11.804  1.1602  0.9060 -0.3260
32892SOL     OW 7453  11.764  10.118   9.796 -0.0109 -0.4904  0.1931
32892SOL    HW1 7454  11.703  10.191   9.785 -0.7990 -0.9572  1.2844
32892SOL    HW2 7455  11.736  10.076   9.877  0.9142 -1.5455 -0.0172
32893SOL     OW 7456   0.575   1.259   3.084  0.6030 -0.0273 -0.3492
32893SOL    HW1 7457   0.496   1.217   3.119 -0.6865  3.0634  0.7272
32893SOL    HW2 7458   0.636   1.186   3.070 -1.7540 -2.3300  0.5159
32894SOL     OW 7459   7.372   5.751   6.385 -0.4111 -0.0653 -0.0875
32894SOL    HW1 7460   7.318   5.788   6.315  0.7183  0.5684 -0.6448
32894SOL    HW2 7461   7.450   5.718   6.340  0.6486  0.9686  0.9359
32895SOL     OW 7462   3.714   6.110   8.459  0.2720  0.5366  0.2949
32895SOL    HW1 7463   3.681   6.053   8.390  0.9959  1.1539 -0.5819
32895SOL    HW2 7464   3.667   6.082   8.538  0.6719 -1.3124 -0.0880
32896SOL     OW 7465   2.703   0.369  10.529  0.6594  0.2029  0.2613
32896SOL    HW1 7466   2.618   0.335  10.557  0.1745  0.3727 -0.9475
32896SOL    HW2 7467   2.719   0.328  10.444  0.3288  2.4374 -0.9872
32897SOL     OW 7468  10.941   0.185  12.490  0.3431  0.3541  0.4234
32897SOL    HW1 7469  10.887   0.146  12.559 -2.3027  2.1618 -0.4478
32897SOL    HW2 7470  10.936   0.279  12.506  0.7250  0.7352 -1.4698
32898SOL     OW 7471   0.687  12.562  12.474  0.5929  0.5355  0.3183
32898SOL    HW1 7472   0.592  12.574  12.465  0.4872 -0.5783 -0.2407
32898SOL    HW2 7473   0.719  12.553  12.385  0.8635 -1.4244  0.5589
32899SOL     OW 7474   7.740   9.631   3.058 -0.0135 -0.1357 -0.1830
32899SOL    HW1 7475   7.672   9.639   2.991  0.4627 -0.0718 -0.6640
32899SOL    HW2 7476   7.810   9.690   3.029  0.1013  0.0736  0.4935
32900SOL     OW 7477  11.238  12.288  10.777  0.2514 -0.0219 -0.1509
32900SOL    HW1 7478  11.147  12.265  10.797  0.0359  2.4235  2.2273
32900SOL    HW2 7479  11.289  12.251  10.849  0.9224  0.0876 -0.5627
32901SOL     OW 7480  11.765  11.554   4.433 -0.1085 -0.3661  0.4661
32901SOL    HW1 7481  11.801  11.504   4.359  2.7241  1.4501  0.4685
32901SOL    HW2 7482  11.696  11.607   4.394  0.7491 -0.0895 -0.7495
32902SOL     OW 7483   9.282   6.125   9.083  0.0877 -0.2564 -0.0964
32902SOL    HW1 7484   9.357   6.170   9.123  0.5648 -0.8276 -0.3335
32902SOL    HW2 7485   9.310   6.108   8.993 -0.2074 -0.7463 -0.0972
32903SOL     OW 7486   2.477  11.488  11.228  0.0123  0.1707  0.4221
32903SOL    HW1 7487   2.509  11.576  11.207 -0.2693  0.1107 -0.2819
32903SOL    HW2 7488   2.416  11.467  11.157  1.1298 -1.1483 -0.1930
32904SOL     OW 7489   6.067   5.633   2.925 -0.2525 -0.1386 -0.4603
32904SOL    HW1 7490   6.110   5.680   2.997 -0.1991 -1.1273  0.1731
32904SOL    HW2 7491   6.125   5.648   2.849  0.8809 -0.8972  0.2199
32905SOL     OW 7492   7.332   5.353  10.075  0.1287 -0.2483  0.0929
32905SOL    HW1 7493   7.282   5.433  10.058  1.0136  0.1180 -0.8965
32905SOL    HW2 7494   7.423   5.378  10.062  0.4332 -1.3629 -0.0438
32906SOL     OW 7495   7.192   0.531   2.391  0.1077  0.0676  0.0368
32906SOL    HW1 7496   7.199   0.461   2.456 -0.1636 -1.7268 -1.7553
32906SOL    HW2 7497   7.119   0.584   2.420 -0.4610 -1.1059  0.8342
32907SOL     OW 7498   5.856   3.672   8.309 -0.3558  0.3332 -0.3716
32907SOL    HW1 7499   5.904   3.731   8.366 -2.3069 -0.1329  1.9144
32907SOL    HW2 7500   5.911   3.594   8.302  1.1243  1.4336 -1.4126
32908SOL     OW 7501   4.454  10.224   6.578 -0.0757  0.3987  0.2509
32908SOL    HW1 7502   4.398  10.234   6.655  0.5308  0.4675  0.6940
32908SOL    HW2 7503   4.535  10.184   6.613 -0.6848 -1.8511 -0.7198
32909SOL     OW 7504   1.106   4.089   3.673  0.3111  0.6222  0.1409
32909SOL    HW1 7505   1.124   4.029   3.745 -0.0804  0.2519 -0.0677
32909SOL    HW2 7506   1.034   4.144   3.704 -2.0711 -1.6169 -1.1129
32910SOL     OW 7507   6.429  10.036   0.429 -0.1409 -0.0207  0.3287
32910SOL    HW1 7508   6.523  10.048   0.410 -0.3418  1.8076  0.2391
32910SOL    HW2 7509   6.405   9.955   0.384  1.1519  0.0957 -0.6310
32911SOL     OW 7510  10.410   7.651  12.295  0.3399 -0.3167 -0.0649
32911SOL    HW1 7511  10.383   7.690  12.378  1.5712  0.8206 -0.1616
32911SOL    HW2 7512  10.423   7.726  12.236  0.5243 -1.0371 -0.9688
32912SOL     OW 7513   5.248   2.923   9.436  0.5752 -0.0236 -0.0727
32912SOL    HW1 7514   5.196   2.932   9.356 -0.8217 -1.1198  0.6719
32912SOL    HW2 7515   5.289   2.837   9.428 -2.3506 -1.7793  1.8474
32913SOL     OW 7516   6.887   3.531   9.338 -1.0237 -0.2479  0.1185
32913SOL    HW1 7517   6.906   3.597   9.406  2.5095 -1.9752  1.0584
32913SOL    HW2 7518   6.934   3.563   9.261 -1.1532 -0.5703 -0.0939
32914SOL     OW 7519   9.314   2.720  10.882 -0.2950 -0.1813 -0.4133
32914SOL    HW1 7520   9.222   2.729  10.854 -0.5792  0.1246  0.5624
32914SOL    HW2 7521   9.365   2.738  10.803 -1.0762 -2.3384 -1.4821
32915SOL     OW 7522   7.986   4.273   8.362 -0.1231 -0.2030  0.1001
32915SOL    HW1 7523   7.898   4.286   8.395  0.5293 -0.0234  1.8525
32915SOL    HW2 7524   8.044   4.308   8.430  1.3090 -0.0236 -1.1299
32916SOL     OW 7525   0.301   6.764   0.632  0.1051 -0.3481  0.5580
32916SOL    HW1 7526   0.224   6.709   0.618  0.3645 -0.7562  0.7260
32916SOL    HW2 7527   0.327   6.747   0.722 -0.7211  1.2121  1.1430
32917SOL     OW 7528   6.978  12.309   9.914  0.1921  0.0893 -0.6879
32917SOL    HW1 7529   7.056  12.279   9.866  0.1507 -0.3222 -0.5100
32917SOL    HW2 7530   7.012  12.333  10.000  0.1297 -0.0387 -0.6284
32918SOL     OW 7531   6.682   6.936   8.544  0.6399 -0.3060 -0.0578
32918SOL    HW1 7532   6.733   6.855   8.546  0.2371 -0.5796 -0.6542
32918SOL    HW2 7533   6.633   6.932   8.462  0.8883  0.7125 -0.2720
32919SOL     OW 7534   8.155   9.351   3.333 -0.8999  0.9136  0.4634
32919SOL    HW1 7535   8.139   9.366   3.426  1.3820 -0.5208  1.1528
32919SOL    HW2 7536   8.216   9.277   3.330  1.2375  2.5743 -2.0093
32920SOL     OW 7537   2.676   1.956   3.137 -0.0341  0.2291 -0.2362
32920SOL    HW1 7538   2.730   1.937   3.213  0.6782 -1.4737 -1.1066
32920SOL    HW2 7539   2.594   1.990   3.173  1.9205  4.1619  1.1230
32921SOL     OW 7540  11.279  11.947  11.869 -0.0004 -0.0735 -0.4572
32921SOL    HW1 7541  11.262  11.919  11.779 -1.6375 -1.6258  0.2666
32921SOL    HW2 7542  11.245  12.036  11.873  0.4223  0.1461 -1.4682
32922SOL     OW 7543   6.758   3.117   2.156  0.4063  0.0133 -0.2452
32922SOL    HW1 7544   6.668   3.146   2.141  0.0078  1.8451  4.2122
32922SOL    HW2 7545   6.751   3.022   2.164 -1.2500  0.1767  0.5292
32923SOL     OW 7546   6.370  11.049  11.671  0.4958  0.8324  0.0597
32923SOL    HW1 7547   6.448  11.083  11.626  1.5530 -0.8866  0.4571
32923SOL    HW2 7548   6.403  10.973  11.720 -1.5809 -0.4359 -0.4039
32924SOL     OW 7549   1.742  10.734   9.749 -0.4829 -0.0696  0.1529
32924SOL    HW1 7550   1.696  10.806   9.793 -0.5569  0.0730 -0.1488
32924SOL    HW2 7551   1.789  10.688   9.819 -0.0917  0.5314  0.2986
32925SOL     OW 7552   2.799   3.579  11.084 -0.1553 -0.3243  0.4069
32925SOL    HW1 7553   2.737   3.652  11.090 -0.0324 -0.2546  0.8611
32925SOL    HW2 7554   2.750   3.510  11.038 -0.9395 -0.6418  1.6808
32926SOL     OW 7555   8.931  11.648   7.483  0.4794  0.1651 -0.1703
32926SOL    HW1 7556   8.887  11.600   7.413 -0.7517 -0.1395  0.7823
32926SOL    HW2 7557   8.865  11.659   7.551  1.9029 -0.4317  1.3969
32927SOL     OW 7558  10.707   0.318  12.229 -0.3208 -0.0868 -0.1769
32927SOL    HW1 7559  10.614   0.306  12.247 -0.5965  0.8573 -0.9072
32927SOL    HW2 7560  10.747   0.323  12.316 -0.8350 -1.1824  0.1473
32928SOL     OW 7561   0.132  10.304   3.415  0.5185 -0.3129  0.3411
32928SOL    HW1 7562   0.214  10.254   3.421 -0.3115 -1.7807 -0.0713
32928SOL    HW2 7563   0.066  10.246   3.452 -0.1212  1.4850  2.2360
32929SOL     OW 7564  11.413   1.365   4.656  0.0429  0.4842  0.1534
32929SOL    HW1 7565  11.441   1.287   4.704  3.2708  1.9516  0.9028
32929SOL    HW2 7566  11.375   1.422   4.722  0.9295  0.9354  0.2879
32930SOL     OW 7567   1.182   4.119   8.419  0.5492  0.2010 -0.4514
32930SOL    HW1 7568   1.087   4.128   8.409  0.2835  1.4695  2.2739
32930SOL    HW2 7569   1.219   4.182   8.357 -0.4701  1.0558 -0.2088
32931SOL     OW 7570   1.117   8.712   9.242 -0.3824  0.1241 -0.1743
32931SOL    HW1 7571   1.045   8.729   9.303 -0.0339 -1.2276  0.6578
32931SOL    HW2 7572   1.138   8.619   9.255  1.8865  0.6056  0.0284
32932SOL     OW 7573   7.826   3.731   7.291 -0.1762  0.6778  0.2140
32932SOL    HW1 7574   7.790   3.653   7.333  1.7261  0.0106  0.6856
32932SOL    HW2 7575   7.921   3.718   7.293  0.1294  2.4380 -0.8194
32933SOL     OW 7576   3.568   9.308   2.074  0.1126  0.1111  0.3713
32933SOL    HW1 7577   3.473   9.308   2.061  0.2016 -1.6780 -0.5320
32933SOL    HW2 7578   3.579   9.288   2.167 -0.4017 -1.3461  0.1468
32934SOL     OW 7579   8.025   5.547   6.441  0.2405  0.5061  0.1622
32934SOL    HW1 7580   8.069   5.630   6.420  1.0136  0.0932  0.1037
32934SOL    HW2 7581   7.944   5.573   6.484 -0.2186  1.3205 -1.1689
32935SOL     OW 7582   9.441   6.192   8.846  0.1235 -0.0428  0.3874
32935SOL    HW1 7583   9.527   6.212   8.811  0.2886 -0.4547  0.5505
32935SOL    HW2 7584   9.380   6.243   8.792  0.3762 -0.6431 -0.4813
32936SOL     OW 7585  10.992   3.482   7.864 -0.2593 -0.0750 -0.3476
32936SOL    HW1 7586  10.997   3.424   7.940  2.7428 -0.7689 -0.9272
32936SOL    HW2 7587  10.974   3.424   7.790  3.7334 -0.6570 -1.0822
32937SOL     OW 7588   6.423   4.863   5.783 -0.3489  0.1349 -0.0839
32937SOL    HW1 7589   6.430   4.947   5.736  0.7661  0.7289  1.0835
32937SOL    HW2 7590   6.489   4.808   5.742  0.2838  0.4916  0.4364
32938SOL     OW 7591  12.030   2.788   3.400 -0.1734  0.0506  0.4433
32938SOL    HW1 7592  12.061   2.878   3.396  0.3128 -0.0250  1.8629
32938SOL    HW2 7593  12.028   2.767   3.493  1.7069 -2.0780  0.0877
32939SOL     OW 7594   9.564  12.030   0.346  0.3978  0.1692  0.2377
32939SOL    HW1 7595   9.565  12.112   0.395 -1.0801  0.5937 -0.3895
32939SOL    HW2 7596   9.473  12.018   0.319  0.3516 -2.2001  1.1435
32940SOL     OW 7597   0.749  11.509   0.975  0.0926 -0.4077 -0.0396
32940SOL    HW1 7598   0.668  11.478   0.936 -1.2863  0.9614  1.5846
32940SOL    HW2 7599   0.816  11.488   0.911 -1.4188 -2.2301 -1.1286
32941SOL     OW 7600   6.741  10.387   2.596  0.1261 -0.5381 -0.2746
32941SOL    HW1 7601   6.789  10.335   2.661 -3.2781 -0.8400  2.2960
32941SOL    HW2 7602   6.764  10.478   2.616  0.8259 -0.7349 -0.1547
32942SOL     OW 7603   9.234   0.262   6.600  0.0916 -0.4675  0.0303
32942SOL    HW1 7604   9.195   0.210   6.530  0.9974 -0.1210 -0.7557
32942SOL    HW2 7605   9.326   0.236   6.600  0.5547  1.0535 -0.3301
32943SOL     OW 7606   6.224   8.344  11.198 -0.1947 -0.0922 -0.5053
32943SOL    HW1 7607   6.179   8.261  11.181 -0.7631  0.1611 -0.2980
32943SOL    HW2 7608   6.165   8.410  11.162  0.2508  0.2225 -0.6610
32944SOL     OW 7609   5.770  10.043  11.204 -0.4918  0.5358  0.0492
32944SOL    HW1 7610   5.694   9.986  11.190 -0.2632  0.2886 -0.2035
32944SOL    HW2 7611   5.842   9.983  11.221 -0.5870  0.7997  1.5201
32945SOL     OW 7612  12.355   7.016   6.266  0.2495 -0.2195  0.0591
32945SOL    HW1 7613  12.418   7.088   6.252  0.3137 -0.0551  1.1176
32945SOL    HW2 7614  12.400   6.957   6.327  0.1820 -1.1559 -0.7817
32946SOL     OW 7615  11.624   5.587   1.017 -0.3484 -0.1794 -0.2633
32946SOL    HW1 7616  11.608   5.673   0.980 -1.3798  0.1801  0.9751
32946SOL    HW2 7617  11.647   5.532   0.942 -2.2502  0.5491 -1.4371
32947SOL     OW 7618   2.817   4.411   4.432 -0.1343 -0.5054  0.0937
32947SOL    HW1 7619   2.859   4.496   4.420  2.1610 -1.4205  1.0645
32947SOL    HW2 7620   2.781   4.413   4.521 -3.2451  0.6264 -1.0454
32948SOL     OW 7621  12.548   7.901  12.026  0.3067 -0.1230  0.1943
32948SOL    HW1 7622  12.537   7.993  12.001 -1.3406 -0.4959 -0.5961
32948SOL    HW2 7623  12.612   7.903  12.097  0.9527  1.5406 -0.3804
32949SOL     OW 7624   1.160   2.944   5.079 -0.1871  0.1626 -0.2497
32949SOL    HW1 7625   1.173   3.035   5.102 -0.5367  0.2873 -0.5206
32949SOL    HW2 7626   1.111   2.947   4.996  0.3423 -0.2673 -0.5868
32950SOL     OW 7627   7.691   3.931   4.680  0.2525 -0.1941  0.0984
32950SOL    HW1 7628   7.683   3.877   4.602  1.5747 -0.0720 -0.1441
32950SOL    HW2 7629   7.700   4.021   4.647 -1.1909  0.1086  0.4705
32951SOL     OW 7630   5.132  11.080  11.532 -0.2042  0.1887 -0.1392
32951SOL    HW1 7631   5.187  11.011  11.496 -0.3195 -1.2170  2.1377
32951SOL    HW2 7632   5.193  11.148  11.560  0.0647  0.1677 -0.6696
32952SOL     OW 7633  10.724   7.819  10.169 -0.2910  0.1253 -0.4698
32952SOL    HW1 7634  10.756   7.893  10.118 -0.5375 -0.0658 -0.9126
32952SOL    HW2 7635  10.793   7.801  10.233 -0.0713  0.5015 -0.6005
32953SOL     OW 7636   3.363   8.182   4.148 -0.3663 -0.0651  1.0164
32953SOL    HW1 7637   3.310   8.160   4.071  2.2822  1.5266 -1.4484
32953SOL    HW2 7638   3.397   8.097   4.177  0.8883 -0.4942 -1.4463
32954SOL     OW 7639   7.044   6.837   0.962  0.1624 -0.0571 -0.1058
32954SOL    HW1 7640   6.990   6.874   0.892  0.4602  1.0131  0.2085
32954SOL    HW2 7641   7.011   6.879   1.042  1.0995  0.2069  0.1525
32955SOL     OW 7642   3.424   6.959   4.085 -0.9099  0.3708 -0.3420
32955SOL    HW1 7643   3.463   7.006   4.159 -1.7262 -0.4119  0.6058
32955SOL    HW2 7644   3.495   6.905   4.050 -0.0898  1.8928 -1.1392
32956SOL     OW 7645   0.020   3.484   8.419 -0.1825  0.0475  0.0651
32956SOL    HW1 7646  -0.033   3.522   8.489 -0.2566 -0.6736  0.4129
32956SOL    HW2 7647   0.109   3.481   8.455 -0.1314  0.1143 -0.0528
32957SOL     OW 7648   2.713  10.653  11.908 -0.0715  0.0350  0.5033
32957SOL    HW1 7649   2.666  10.596  11.968 -0.1875  0.8749  1.2311
32957SOL    HW2 7650   2.683  10.626  11.821 -0.4406 -0.7189  0.8548
32958SOL     OW 7651  12.185  10.565  10.538  0.0002 -0.0519  0.0970
32958SOL    HW1 7652  12.113  10.517  10.579  0.0795 -0.8582 -0.6721
32958SOL    HW2 7653  12.180  10.653  10.576  0.9353 -1.1130  2.8674
32959SOL     OW 7654   2.304  11.405   7.068  0.3870  0.3513  0.1519
32959SOL    HW1 7655   2.230  11.441   7.019 -0.1512  0.2938  0.9116
32959SOL    HW2 7656   2.342  11.339   7.009 -0.4161  0.0905 -0.0848
32960SOL     OW 7657   5.787   7.073   6.756 -0.7703  0.1737 -0.5660
32960SOL    HW1 7658   5.790   7.168   6.746  0.4207  0.0826 -1.1628
32960SOL    HW2 7659   5.791   7.039   6.666 -0.0145 -0.4640 -0.3000
32961SOL     OW 7660   5.935   1.826   2.883 -0.3363  0.6510 -0.1727
32961SOL    HW1 7661   5.854   1.841   2.931 -0.6859  0.3839 -0.6674
32961SOL    HW2 7662   5.999   1.802   2.950 -0.5073  1.4414  0.2907
32962SOL     OW 7663   4.799  11.173   0.759 -0.4406  0.2061 -0.0524
32962SOL    HW1 7664   4.728  11.152   0.699 -0.2134  1.2549 -0.7175
32962SOL    HW2 7665   4.808  11.268   0.754 -0.2414  0.2974  1.4600
32963SOL     OW 7666   2.301   6.749   6.510 -0.1599  0.1748 -0.3309
32963SOL    HW1 7667   2.270   6.701   6.587 -0.6244  0.8098 -0.1131
32963SOL    HW2 7668   2.298   6.841   6.536 -2.0792  0.5652 -1.6929
32964SOL     OW 7669   5.466   3.841   9.326  0.4257 -0.6178  0.0012
32964SOL    HW1 7670   5.413   3.900   9.379  0.4962 -0.3535 -0.2170
32964SOL    HW2 7671   5.422   3.756   9.332 -0.0034 -0.4079 -0.1553
32965SOL     OW 7672   2.449   1.640   2.385  0.0998  0.9801 -0.3447
32965SOL    HW1 7673   2.532   1.674   2.351 -0.6349  2.4684 -0.7456
32965SOL    HW2 7674   2.382   1.694   2.343 -1.0821 -0.2161 -0.0560
32966SOL     OW 7675   9.419   1.395   6.742 -0.2166  0.5049 -0.3329
32966SOL    HW1 7676   9.510   1.417   6.724  0.1309  0.3229  1.0892
32966SOL    HW2 7677   9.381   1.476   6.776  0.0505  0.0023  1.2580
32967SOL     OW 7678   2.086   9.587   6.118 -0.3390  0.8796  0.7304
32967SOL    HW1 7679   2.150   9.517   6.107 -0.9193 -0.0398  2.6592
32967SOL    HW2 7680   2.137   9.663   6.147  0.1780  0.9716 -0.3965
32968SOL     OW 7681   0.881   5.163   3.804 -0.2717  0.7055 -0.5921
32968SOL    HW1 7682   0.911   5.072   3.798 -0.2504  0.6734  0.0133
32968SOL    HW2 7683   0.794   5.156   3.843 -0.6356  0.8822 -1.3500
32969SOL     OW 7684  10.115   9.139   3.758 -0.2417  0.2127 -0.3898
32969SOL    HW1 7685  10.117   9.129   3.663 -0.4640  1.0273 -0.4831
32969SOL    HW2 7686  10.107   9.049   3.791 -0.0084 -0.0881 -1.1277
32970SOL     OW 7687   8.962   1.864   0.286 -0.0533  0.2450 -0.0314
32970SOL    HW1 7688   8.953   1.957   0.266 -1.7151  0.0077 -0.5843
32970SOL    HW2 7689   9.044   1.857   0.334  0.4614  1.8876 -0.6079
32971SOL     OW 7690   0.022   4.926  11.518  0.4193 -0.1703 -0.0906
32971SOL    HW1 7691  -0.028   4.942  11.598  0.5573 -1.8106  0.3613
32971SOL    HW2 7692   0.106   4.969  11.533  0.8179 -1.2766  1.1094
32972SOL     OW 7693  11.017   0.458   8.245  0.0582  0.8419  0.0587
32972SOL    HW1 7694  11.081   0.529   8.247  0.6889  0.4688 -2.6089
32972SOL    HW2 7695  10.935   0.501   8.219  0.3249  0.7037 -1.0598
32973SOL     OW 7696   2.094  10.701   1.914  0.0646  0.7392  0.6172
32973SOL    HW1 7697   2.074  10.739   2.000  1.6240  1.7690  0.5610
32973SOL    HW2 7698   2.071  10.608   1.923 -2.5985  1.3851  1.1774
32974SOL     OW 7699   9.423   9.947  12.156 -0.1159 -0.0793 -0.0723
32974SOL    HW1 7700   9.515   9.923  12.167  0.3374  2.0134  1.2653
32974SOL    HW2 7701   9.378   9.902  12.228 -0.3068 -1.6604 -1.1292
32975SOL     OW 7702   8.077  10.557  10.475 -0.3744  0.4002  0.2219
32975SOL    HW1 7703   8.008  10.573  10.540 -0.3048  1.6997 -0.0083
32975SOL    HW2 7704   8.082  10.638  10.424  0.1947 -0.2761 -0.8344
32976SOL     OW 7705   2.743   1.492   2.257  0.1079 -0.8252  0.4805
32976SOL    HW1 7706   2.740   1.587   2.260  0.0979 -0.8161  0.1598
32976SOL    HW2 7707   2.763   1.466   2.347  0.3188 -0.5125  0.5237
32977SOL     OW 7708   6.793   6.597   2.307 -0.0850  0.2719 -0.0692
32977SOL    HW1 7709   6.717   6.620   2.360 -0.5913 -1.9087  0.2680
32977SOL    HW2 7710   6.850   6.548   2.367  1.0342  0.8285 -0.6349
32978SOL     OW 7711   9.921   9.993  12.365 -0.2093  0.6238  0.0946
32978SOL    HW1 7712   9.905   9.909  12.323  0.0924  1.5158 -1.9208
32978SOL    HW2 7713   9.866   9.992  12.443 -1.2634 -0.8842 -0.6278
32979SOL     OW 7714   3.440   9.757   0.204 -0.1795 -0.5305 -0.3414
32979SOL    HW1 7715   3.435   9.668   0.239  0.0785 -0.4860 -0.1926
32979SOL    HW2 7716   3.468   9.811   0.278 -0.3045 -0.3293 -0.4394
32980SOL     OW 7717   5.481  11.840  10.493 -0.0642  0.1841 -0.0420
32980SOL    HW1 7718   5.483  11.934  10.478  0.7888  0.3440  0.9559
32980SOL    HW2 7719   5.544  11.826  10.564 -0.3021 -1.1155 -0.0690
32981SOL     OW 7720   5.121   7.604   4.375  0.2813  0.1947  0.2247
32981SOL    HW1 7721   5.201   7.643   4.409  0.3686  1.7483 -1.5967
32981SOL    HW2 7722   5.148   7.519   4.341  0.7000 -0.2256  1.5657
32982SOL     OW 7723   6.786  10.594  11.963  0.0494 -0.2638 -0.0664
32982SOL    HW1 7724   6.879  10.594  11.982  0.2216  0.2794 -0.8597
32982SOL    HW2 7725   6.744  10.570  12.045  0.7467  2.0139  1.0245
32983SOL     OW 7726   9.044   6.638   3.742 -0.0419 -0.1344  0.1664
32983SOL    HW1 7727   8.975   6.630   3.807 -0.1809 -0.0214  0.0326
32983SOL    HW2 7728   9.002   6.680   3.667  0.2713  0.2931  0.2301
32984SOL     OW 7729   2.598   7.588  10.128 -0.3206  0.4148 -0.5480
32984SOL    HW1 7730   2.607   7.587  10.033 -1.1105  0.7004 -0.6295
32984SOL    HW2 7731   2.541   7.514  10.148  0.6854 -0.2896 -0.1928
32985SOL     OW 7732   8.950  11.923   5.963  0.1042 -0.0801  0.7174
32985SOL    HW1 7733   8.942  11.893   6.054  1.5229  0.2711  0.9965
32985SOL    HW2 7734   8.996  11.851   5.918 -0.3225 -0.1265  0.3503
32986SOL     OW 7735   6.642   9.070   9.983 -0.3310 -0.7770  0.4459
32986SOL    HW1 7736   6.581   9.042   9.915  0.1155 -0.5607 -0.0479
32986SOL    HW2 7737   6.702   9.129   9.938  0.2222 -0.9595  0.9384
32987SOL     OW 7738   3.403  11.385   5.603  0.4408 -0.1140 -0.2251
32987SOL    HW1 7739   3.377  11.466   5.647  2.2272 -0.0149  0.7543
32987SOL    HW2 7740   3.435  11.414   5.517 -1.2526 -0.0975 -0.8896
32988SOL     OW 7741   7.307   5.363  11.081 -0.3729  0.1042 -0.1408
32988SOL    HW1 7742   7.322   5.292  11.143 -2.0227 -0.9179 -0.8380
32988SOL    HW2 7743   7.330   5.326  10.996 -1.5719  0.2667 -0.5552
32989SOL     OW 7744   4.212   4.005   8.891  0.4143 -0.1359 -0.8582
32989SOL    HW1 7745   4.299   4.044   8.899  0.0345  0.4969  0.4380
32989SOL    HW2 7746   4.223   3.934   8.828  1.7577  0.2532 -1.0834
32990SOL     OW 7747   5.067   8.120   0.565  0.6814  0.4297  0.1945
32990SOL    HW1 7748   5.151   8.081   0.539  0.6300 -0.3942  1.1819
32990SOL    HW2 7749   5.046   8.181   0.495  1.8287  0.2283 -0.3532
32991SOL     OW 7750   5.702  11.916  12.552 -0.3998  0.6662 -0.2957
32991SOL    HW1 7751   5.739  11.936  12.638  1.5310  0.6879 -1.0744
32991SOL    HW2 7752   5.620  11.870  12.571  1.0254 -1.3368  1.6246
32992SOL     OW 7753   1.694  12.322   1.446 -0.5498 -0.1809  0.3257
32992SOL    HW1 7754   1.690  12.340   1.352  1.2327 -0.3631  0.1825
32992SOL    HW2 7755   1.655  12.235   1.455 -0.2140 -0.4103 -0.3378
32993SOL     OW 7756   9.218   8.599   6.290  0.0422 -0.5194  0.1097
32993SOL    HW1 7757   9.170   8.617   6.209 -1.9911  0.2921  1.4374
32993SOL    HW2 7758   9.310   8.600   6.263 -0.5887 -1.5919 -2.4337
32994SOL     OW 7759   3.416  10.612  12.122 -0.4175  0.6896  0.7198
32994SOL    HW1 7760   3.511  10.626  12.124 -0.5411  1.8380 -0.1978
32994SOL    HW2 7761   3.385  10.643  12.207 -0.0610  1.2450  0.6557
32995SOL     OW 7762   7.700   6.356   6.274  0.0304  0.4304  0.9435
32995SOL    HW1 7763   7.756   6.305   6.216 -0.6698 -0.6108  1.1564
32995SOL    HW2 7764   7.689   6.440   6.229 -3.3621 -1.4716 -2.2964
32996SOL     OW 7765  10.528   4.827   4.103  0.2110 -0.2641  0.3470
32996SOL    HW1 7766  10.453   4.880   4.076  1.0192  0.8612  0.2048
32996SOL    HW2 7767  10.558   4.868   4.184  1.8891  0.5967 -0.6505
32997SOL     OW 7768   1.139   2.114  12.337 -0.1327  0.1171 -0.1244
32997SOL    HW1 7769   1.225   2.075  12.346 -0.3231 -0.2156  0.2831
32997SOL    HW2 7770   1.155   2.208  12.336  0.3741  0.0424 -1.5750
32998SOL     OW 7771   0.137  12.019   0.019  0.7036 -0.3369  0.0271
32998SOL    HW1 7772   0.215  12.050  -0.026 -0.2392  0.5946 -1.0314
32998SOL    HW2 7773   0.085  12.098   0.035 -0.9616 -1.1200 -1.1630
32999SOL     OW 7774   2.322  12.442   6.179  0.7202 -0.6179 -0.0864
32999SOL    HW1 7775   2.382  12.458   6.251  1.0222 -1.1264 -0.2216
32999SOL    HW2 7776   2.372  12.390   6.116  0.5184 -0.0280 -0.7517
33000SOL     OW 7777   9.726   0.199  11.434  0.1747  0.0592  0.4098
33000SOL    HW1 7778   9.687   0.265  11.491  1.6990  0.8125  0.6238
33000SOL    HW2 7779   9.735   0.121  11.490 -2.5469 -0.7328 -0.1164
33001SOL     OW 7780   7.403   3.425   9.120 -0.0336 -0.5307  0.0110
33001SOL    HW1 7781   7.412   3.347   9.175  0.4895 -1.2465 -1.0500
33001SOL    HW2 7782   7.320   3.412   9.074  0.5078 -0.9394 -0.8717
33002SOL     OW 7783  10.688   6.210   9.432  0.0690 -0.7432  1.0174
33002SOL    HW1 7784  10.705   6.157   9.510  1.1092 -0.4037  1.0413
33002SOL    HW2 7785  10.607   6.174   9.395  0.1349 -1.5848  1.6684
33003SOL     OW 7786   2.514   4.019   2.119 -0.3913 -0.1618 -0.1484
33003SOL    HW1 7787   2.558   4.103   2.105  1.8245 -0.7711  2.3104
33003SOL    HW2 7788   2.500   4.015   2.214 -2.0707 -1.8379 -0.4190
33004SOL     OW 7789   1.575   8.722   9.713 -0.7754 -0.5665  0.3666
33004SOL    HW1 7790   1.541   8.651   9.658 -1.4131  0.6647 -0.8911
33004SOL    HW2 7791   1.498   8.755   9.759 -0.5203 -0.5425  0.7786
33005SOL     OW 7792   5.800  10.397   6.696 -0.0828  0.5600 -0.0803
33005SOL    HW1 7793   5.821  10.467   6.757 -1.6756  0.5162  0.5658
33005SOL    HW2 7794   5.708  10.412   6.674 -0.0970 -0.6153 -0.8972
33006SOL     OW 7795   1.384   1.336   0.271 -0.6543  0.4926 -0.2037
33006SOL    HW1 7796   1.303   1.348   0.321 -0.3267  2.8283 -0.0985
33006SOL    HW2 7797   1.447   1.396   0.313  0.0945  1.3200 -2.3690
33007SOL     OW 7798   1.807   8.908   8.063  0.6041 -0.7353 -0.1503
33007SOL    HW1 7799   1.756   8.871   7.991  0.3646 -1.4893  0.3847
33007SOL    HW2 7800   1.742   8.924   8.132  0.5019  1.7552 -0.7259
33008SOL     OW 7801   6.236   4.335   7.328 -0.2365 -0.3645  0.2961
33008SOL    HW1 7802   6.329   4.325   7.308  0.2769  3.0887  0.3393
33008SOL    HW2 7803   6.230   4.319   7.422  0.6909  0.9439  0.6134
33009SOL     OW 7804   8.482   2.268  11.916 -0.4070  0.3851 -0.3972
33009SOL    HW1 7805   8.410   2.327  11.939 -1.8944 -1.3242 -0.4145
33009SOL    HW2 7806   8.553   2.293  11.975 -2.2970 -0.2781  2.3837
33010SOL     OW 7807   8.038   3.334   9.589 -0.0673  0.4174 -0.4362
33010SOL    HW1 7808   7.979   3.379   9.530 -0.7280 -0.8084 -0.7432
33010SOL    HW2 7809   7.981   3.285   9.648  0.5874  1.1704  0.8944
33011SOL     OW 7810   9.043   1.664   1.272 -0.0026  0.9378  0.1656
33011SOL    HW1 7811   8.995   1.670   1.354 -2.5106  0.6787 -1.1992
33011SOL    HW2 7812   9.068   1.572   1.265 -1.4315  0.5509 -0.1884
33012SOL     OW 7813  11.816   0.669   9.839 -0.4300  0.2670 -0.6468
33012SOL    HW1 7814  11.755   0.596   9.838 -1.4593  1.0698 -2.4385
33012SOL    HW2 7815  11.868   0.658   9.759  0.8386  0.3638  0.1410
33013SOL     OW 7816  12.211   3.315  12.607 -0.6594  0.3542  0.1982
33013SOL    HW1 7817  12.141   3.267  12.564 -0.5033  0.9553 -0.7679
33013SOL    HW2 7818  12.289   3.297  12.554 -0.3606  0.7386  0.4946
33014SOL     OW 7819   1.250   7.908  10.331 -0.4935  0.1816  0.5159
33014SOL    HW1 7820   1.289   7.873  10.411 -1.5095 -0.3028  0.8170
33014SOL    HW2 7821   1.278   7.848  10.262 -1.3314 -0.6270  0.8591
33015SOL     OW 7822  11.824   8.073   7.968 -0.1007 -0.5952 -0.0359
33015SOL    HW1 7823  11.808   7.980   7.986 -2.2277 -0.1756  0.5041
33015SOL    HW2 7824  11.740   8.106   7.936  1.0097  0.8463 -1.6393
33016SOL     OW 7825   8.987   6.999   0.061 -0.3468 -0.6216 -0.8957
33016SOL    HW1 7826   9.016   6.938  -0.006 -0.9015 -0.0766 -1.6461
33016SOL    HW2 7827   8.954   6.944   0.132  1.0445 -1.2202 -0.6871
33017SOL     OW 7828   4.226   0.085   8.157  0.0218  0.1212  0.6135
33017SOL    HW1 7829   4.268   0.064   8.240 -2.9644 -0.5084  2.0991
33017SOL    HW2 7830   4.256   0.017   8.097 -0.5626 -1.6673  2.2335
33018SOL     OW 7831   2.870  12.214   7.109 -0.0747 -0.4643 -0.4157
33018SOL    HW1 7832   2.948  12.214   7.165 -0.2211 -0.7534 -0.2112
33018SOL    HW2 7833   2.808  12.157   7.153 -0.4181 -0.2138 -0.5638
33019SOL     OW 7834   2.314   2.599  11.679 -0.1248 -0.2550  0.0492
33019SOL    HW1 7835   2.343   2.511  11.654 -0.3821  0.4743 -3.1790
33019SOL    HW2 7836   2.218   2.592  11.683 -0.0680 -0.6857  2.5665
33020SOL     OW 7837   9.768   3.912   5.784  0.0462  0.0292  0.1946
33020SOL    HW1 7838   9.821   3.986   5.814 -1.2838  0.6739  1.0695
33020SOL    HW2 7839   9.727   3.879   5.864  0.5759 -1.6266 -0.1965
33021SOL     OW 7840  10.792   5.291   1.522  0.0274 -0.3231 -0.2017
33021SOL    HW1 7841  10.872   5.257   1.481  0.3516 -0.3085  0.4100
33021SOL    HW2 7842  10.728   5.292   1.451  0.5824 -0.2896 -0.7183
33022SOL     OW 7843  10.275   4.149  12.466  0.3016 -0.4127  0.1038
33022SOL    HW1 7844  10.325   4.070  12.448 -0.5370 -0.8368 -0.4246
33022SOL    HW2 7845  10.188   4.117  12.492  0.1083  0.3202  0.3854
33023SOL     OW 7846  10.860   9.192   2.763 -0.7859 -0.0649  0.3848
33023SOL    HW1 7847  10.862   9.164   2.672  2.1062 -1.1197  0.6901
33023SOL    HW2 7848  10.829   9.115   2.811 -1.2232  0.1295  0.4214
33024SOL     OW 7849   0.672   7.758   8.699 -0.1481 -0.5231 -0.0523
33024SOL    HW1 7850   0.652   7.708   8.620  2.0500 -1.0186 -0.3442
33024SOL    HW2 7851   0.650   7.698   8.771  0.1821 -1.0011 -0.3440
33025SOL     OW 7852  11.444   0.518   7.436  0.5136  0.8172 -0.1007
33025SOL    HW1 7853  11.443   0.584   7.506  0.1551  0.5074  0.1952
33025SOL    HW2 7854  11.512   0.457   7.462  2.7494  2.4556 -1.7234
33026SOL     OW 7855   4.688   4.632   0.425  0.3230  0.3629  0.3962
33026SOL    HW1 7856   4.610   4.678   0.392 -1.3341 -0.8200  2.4128
33026SOL    HW2 7857   4.751   4.702   0.443 -0.9271  1.5553  0.3303
33027SOL     OW 7858  11.158  10.390  10.337 -0.0046 -0.2671 -0.0327
33027SOL    HW1 7859  11.243  10.433  10.331  0.5397 -0.8201  2.4187
33027SOL    HW2 7860  11.179  10.300  10.362 -1.3037 -0.4479  0.4799
33028SOL     OW 7861   6.562   0.963   1.950  0.3292  0.5569 -0.2890
33028SOL    HW1 7862   6.505   1.028   1.992  1.0266  0.2005  1.2998
33028SOL    HW2 7863   6.508   0.885   1.943 -0.0957  0.9026 -0.9755
33029SOL     OW 7864   9.164   8.199   6.592  0.1188 -0.1029 -0.1892
33029SOL    HW1 7865   9.073   8.193   6.563 -0.2499 -1.4419  1.1215
33029SOL    HW2 7866   9.199   8.275   6.545 -0.7514 -1.3971 -3.1494
33030SOL     OW 7867   9.160   0.402   3.001 -0.1126  0.2436 -0.1085
33030SOL    HW1 7868   9.071   0.402   2.965 -0.0586 -0.5353 -0.2562
33030SOL    HW2 7869   9.206   0.335   2.951  0.4100  0.2649  0.3361
33031SOL     OW 7870   7.239   4.298   0.516 -0.7162 -0.5082  0.3388
33031SOL    HW1 7871   7.298   4.297   0.441 -0.8304 -1.3910  0.2572
33031SOL    HW2 7872   7.247   4.387   0.551  0.9586 -0.7017  0.5483
33032SOL     OW 7873  11.088  12.210   9.443  0.2671  0.5514 -0.5178
33032SOL    HW1 7874  11.078  12.118   9.422  1.1206 -0.0158  1.3122
33032SOL    HW2 7875  11.007  12.251   9.413 -0.2118 -0.8317 -1.1636
33033SOL     OW 7876  11.559   3.890   2.559  0.4997 -0.1748 -0.2068
33033SOL    HW1 7877  11.641   3.861   2.599 -0.0611 -3.0013 -0.8480
33033SOL    HW2 7878  11.570   3.873   2.465 -0.6550 -0.2238 -0.3553
33034SOL     OW 7879   2.410   8.972   3.798 -0.0025 -0.0179 -0.2391
33034SOL    HW1 7880   2.321   8.964   3.763  1.1617 -0.9394 -3.3343
33034SOL    HW2 7881   2.425   9.067   3.803 -1.2042  0.1434  0.4901
33035SOL     OW 7882  11.881   7.273   8.419  0.6524 -0.0989  0.4336
33035SOL    HW1 7883  11.839   7.192   8.390  0.2198  0.1918  0.2459
33035SOL    HW2 7884  11.933   7.302   8.344 -0.0075  0.3456  0.1498
33036SOL     OW 7885   8.042   3.423   4.392 -0.0324  0.3637 -0.6141
33036SOL    HW1 7886   7.971   3.433   4.328  0.1877 -0.4004 -0.9924
33036SOL    HW2 7887   8.061   3.329   4.392  1.4204  0.6305 -1.0016
33037SOL     OW 7888   3.874   9.746   2.394  0.3019  0.4292 -0.2500
33037SOL    HW1 7889   3.841   9.733   2.482  1.7974 -0.4912  0.2072
33037SOL    HW2 7890   3.949   9.804   2.404  1.5409 -1.0226 -0.6509
33038SOL     OW 7891   8.659   4.556  11.666 -0.0962  0.3800  0.0283
33038SOL    HW1 7892   8.694   4.628  11.719  1.4619 -0.6713  0.5064
33038SOL    HW2 7893   8.692   4.477  11.709  0.6847 -0.5346 -2.1224
33039SOL     OW 7894   4.019  12.481   9.510  0.1869  0.0382 -0.0460
33039SOL    HW1 7895   4.041  12.486   9.416  1.2707 -0.8352  0.1400
33039SOL    HW2 7896   4.102  12.461   9.552 -0.4466 -0.3922  1.0274
33040SOL     OW 7897   5.975   9.170   4.898 -0.7721 -0.2720  0.1021
33040SOL    HW1 7898   5.944   9.207   4.815 -0.6010 -0.6484 -0.1385
33040SOL    HW2 7899   5.980   9.244   4.958 -2.5390 -0.2579  0.2749
33041SOL     OW 7900   3.159   0.066   5.889  0.1229  0.4146  0.3659
33041SOL    HW1 7901   3.106   0.019   5.825  1.1833  1.1828 -1.1271
33041SOL    HW2 7902   3.236   0.010   5.902  0.2332  0.5851  0.4581
33042SOL     OW 7903  12.225   3.633   4.265  0.3460 -0.4701  0.2518
33042SOL    HW1 7904  12.210   3.706   4.206  0.1029 -1.3154 -0.7683
33042SOL    HW2 7905  12.314   3.603   4.244 -0.0160 -1.2400 -0.2371
33043SOL     OW 7906   7.311   1.510   4.717 -0.0718 -0.3660 -0.1566
33043SOL    HW1 7907   7.237   1.530   4.660  0.0503 -0.1854 -0.2539
33043SOL    HW2 7908   7.370   1.584   4.706  0.0343 -0.4166  0.0697
33044SOL     OW 7909  11.832   9.324   1.789 -0.1905  0.1808  0.6921
33044SOL    HW1 7910  11.811   9.400   1.735 -0.4459 -0.0568  0.4504
33044SOL    HW2 7911  11.928   9.321   1.791 -0.1753 -0.1679 -0.2632
33045SOL     OW 7912  12.267   1.844  10.196 -0.6825 -0.1409 -0.1434
33045SOL    HW1 7913  12.333   1.783  10.165  0.0795  0.5134  0.1527
33045SOL    HW2 7914  12.185   1.813  10.158 -0.0800 -0.4833 -1.1938
33046SOL     OW 7915   1.558   5.267   5.418 -0.3037  0.1849  0.1297
33046SOL    HW1 7916   1.485   5.306   5.466  0.5734  0.1368  1.5420
33046SOL    HW2 7917   1.635   5.316   5.447  0.4473 -0.8131 -0.1251
33047SOL     OW 7918   3.864   4.455  12.295 -0.0987 -0.6759 -0.0343
33047SOL    HW1 7919   3.855   4.458  12.200  0.9634  0.5821 -0.1298
33047SOL    HW2 7920   3.913   4.375  12.313 -0.1687 -0.8362 -0.5621
33048SOL     OW 7921   8.786   4.866   3.644 -0.1545 -0.0260 -0.4708
33048SOL    HW1 7922   8.691   4.876   3.639 -0.0579  0.3941 -2.4523
33048SOL    HW2 7923   8.804   4.783   3.599  0.4633  0.2670 -0.7774
33049SOL     OW 7924   9.066   4.054  10.563 -0.6030 -0.1190  0.1541
33049SOL    HW1 7925   9.036   4.063  10.654  2.4755 -0.5927  1.3601
33049SOL    HW2 7926   9.081   4.143  10.533  0.5734 -0.0056  1.0061
33050SOL     OW 7927   0.543  10.592   3.665 -0.1406 -0.5815  0.4119
33050SOL    HW1 7928   0.554  10.650   3.740 -1.8246  0.4162 -0.0442
33050SOL    HW2 7929   0.629  10.589   3.623  0.0651  1.3446  0.6373
33051SOL     OW 7930   9.838   4.450   7.335  0.0621 -0.2265 -0.1829
33051SOL    HW1 7931   9.791   4.367   7.346  1.1058 -0.7696  0.4527
33051SOL    HW2 7932   9.929   4.423   7.319  0.2733  0.7920 -0.7607
33052SOL     OW 7933   8.025   4.633   0.032  0.1309 -0.1415  0.2114
33052SOL    HW1 7934   8.065   4.684  -0.039  0.2490 -0.0179  0.3674
33052SOL    HW2 7935   8.041   4.542   0.007 -1.5665 -0.1682 -0.9470
33053SOL     OW 7936   5.322   6.144   1.335  0.1569  0.2241  0.0952
33053SOL    HW1 7937   5.252   6.108   1.281  0.3378  0.1589 -0.0967
33053SOL    HW2 7938   5.397   6.087   1.319  0.0585 -0.1214  0.8401
33054SOL     OW 7939   4.716   9.218   9.485 -0.2396  0.0469 -0.3165
33054SOL    HW1 7940   4.763   9.135   9.484 -1.6815 -0.8399  0.8489
33054SOL    HW2 7941   4.754   9.267   9.558  0.5970  0.4285 -0.9914
33055SOL     OW 7942   4.387   6.082   9.375  0.2493 -0.2000  0.1977
33055SOL    HW1 7943   4.323   6.085   9.446 -1.4735 -0.6654 -1.2439
33055SOL    HW2 7944   4.403   6.173   9.353  0.4530 -0.0670  0.8726
33056SOL     OW 7945   1.797   0.766  10.809  0.0548  0.6532  0.0120
33056SOL    HW1 7946   1.856   0.753  10.735  1.0047 -0.3003  0.8943
33056SOL    HW2 7947   1.714   0.792  10.770  0.1690 -1.0264 -1.4705
33057SOL     OW 7948  12.165   9.338   9.478 -0.0559 -0.1654 -0.2898
33057SOL    HW1 7949  12.140   9.429   9.494 -0.5779 -0.4703  0.7084
33057SOL    HW2 7950  12.260   9.337   9.489 -0.2564 -0.1302  1.8372
33058SOL     OW 7951   6.996   3.451   4.064 -0.2219 -0.2483 -0.0143
33058SOL    HW1 7952   6.966   3.534   4.100 -1.9390 -0.6763 -0.3951
33058SOL    HW2 7953   7.069   3.476   4.006 -0.9111  1.0231 -0.3749
33059SOL     OW 7954   7.177   7.331   8.515  0.2713  0.8185 -0.3215
33059SOL    HW1 7955   7.091   7.292   8.501  0.3162  0.5972 -0.0004
33059SOL    HW2 7956   7.177   7.357   8.607  1.4294 -1.4466  0.4039
33060SOL     OW 7957   0.885   4.707  10.910 -0.4072 -0.3141  0.3896
33060SOL    HW1 7958   0.917   4.675  10.994 -1.2920 -1.7856  0.2025
33060SOL    HW2 7959   0.950   4.679  10.847 -0.8978 -1.3078  0.3021
33061SOL     OW 7960   0.601   3.609  11.244  0.1269 -0.2172 -0.1214
33061SOL    HW1 7961   0.633   3.660  11.318 -1.8751 -1.4758  1.7396
33061SOL    HW2 7962   0.511   3.640  11.230 -0.4501 -1.8109 -0.2149
33062SOL     OW 7963  12.394   9.853  11.364 -0.0369  0.5227  0.4124
33062SOL    HW1 7964  12.330   9.892  11.304  1.4847  1.5797 -0.5842
33062SOL    HW2 7965  12.435   9.928  11.407  0.0538 -0.1659  1.5740
33063SOL     OW 7966   3.089   9.080   9.680 -0.3268 -0.3814  0.0502
33063SOL    HW1 7967   3.152   9.088   9.751  0.0460 -1.1760 -0.1752
33063SOL    HW2 7968   3.024   9.148   9.697 -0.3274 -0.6630  1.2269
33064SOL     OW 7969  10.877   8.189   2.390  0.3670 -0.7036  0.6766
33064SOL    HW1 7970  10.831   8.256   2.440  0.1161 -0.8563  0.6532
33064SOL    HW2 7971  10.911   8.129   2.456 -0.5073 -1.2546  0.6393
33065SOL     OW 7972   2.614  11.224   4.606  0.3880  0.3266 -0.2516
33065SOL    HW1 7973   2.673  11.150   4.595  0.9526  0.9214 -1.5580
33065SOL    HW2 7974   2.669  11.301   4.587  0.2260  1.2448  2.5595
33066SOL     OW 7975   8.611  10.854   1.031  0.1402 -0.5458  0.6211
33066SOL    HW1 7976   8.651  10.939   1.016  2.1514 -1.3478  1.0261
33066SOL    HW2 7977   8.634  10.802   0.954 -2.2651 -0.3834 -0.2947
33067SOL     OW 7978   5.226   3.515   5.957  0.2490 -0.5555  0.1337
33067SOL    HW1 7979   5.182   3.433   5.978 -1.7032  0.4676  0.2918
33067SOL    HW2 7980   5.263   3.501   5.870 -0.8619 -1.2973 -0.2320
33068SOL     OW 7981   6.194  11.001   4.036 -0.2510  0.1622  0.4747
33068SOL    HW1 7982   6.155  11.086   4.055 -0.8677 -0.3876  1.8249
33068SOL    HW2 7983   6.262  11.019   3.971  0.4164  1.8688  1.5912
33069SOL     OW 7984   2.845   0.935   7.103  0.5418 -0.1259  0.0385
33069SOL    HW1 7985   2.795   0.890   7.171  1.0914 -1.0265 -0.1274
33069SOL    HW2 7986   2.826   1.028   7.115 -0.6467 -0.4049  0.3819
33070SOL     OW 7987   8.809   9.480   0.113  0.5342 -0.4909  0.5615
33070SOL    HW1 7988   8.892   9.525   0.128  0.2626  0.2403 -0.0742
33070SOL    HW2 7989   8.829   9.415   0.046  0.8913 -1.2505  1.3737
33071SOL     OW 7990  10.871   2.447   7.392 -0.5058  1.0103 -0.0197
33071SOL    HW1 7991  10.914   2.508   7.331 -0.1895 -0.0263 -0.8533
33071SOL    HW2 7992  10.793   2.494   7.420 -0.7025  1.4914 -1.2906
33072SOL     OW 7993  11.147   4.729  11.842  0.1401 -0.5385  0.1924
33072SOL    HW1 7994  11.231   4.702  11.805  1.2633  1.3603  1.2349
33072SOL    HW2 7995  11.170   4.788  11.913 -2.0586 -1.0708  1.4288
33073SOL     OW 7996  12.129   3.822   8.762 -0.8667  0.2214  0.2884
33073SOL    HW1 7997  12.169   3.825   8.849  1.3148  1.1295 -0.6549
33073SOL    HW2 7998  12.054   3.880   8.768 -0.6667  0.3851  1.5216
33074SOL     OW 7999   2.528  11.228   3.177 -0.0680  0.3698  0.4856
33074SOL    HW1 8000   2.582  11.278   3.116  0.2874 -0.3246  0.2277
33074SOL    HW2 8001   2.459  11.190   3.123  0.6277 -0.7978  0.3833
33075SOL     OW 8002   1.718  10.809   0.587  0.5495  0.1370  0.2307
33075SOL    HW1 8003   1.733  10.902   0.601  1.6937 -0.1617  1.2765
33075SOL    HW2 8004   1.627  10.794   0.614  0.7614  0.7439  1.3550
33076SOL     OW 8005   9.614   4.012   3.631  0.5752 -0.1603  0.6057
33076SOL    HW1 8006   9.578   3.939   3.580  1.0407 -0.2292  0.3700
33076SOL    HW2 8007   9.600   3.986   3.722  1.3794 -0.8893  0.5370
33077SOL     OW 8008   8.808   3.720   0.250  0.0289 -0.1766  0.0868
33077SOL    HW1 8009   8.789   3.810   0.226 -2.0576 -0.6830 -0.3738
33077SOL    HW2 8010   8.778   3.668   0.176 -1.4652 -1.4220  1.4853
33078SOL     OW 8011   0.901  12.284  10.397 -0.2861  0.3931 -0.8754
33078SOL    HW1 8012   0.862  12.284  10.484  2.0307 -1.8677  0.2992
33078SOL    HW2 8013   0.830  12.308  10.339 -2.3033  0.5280  1.4762
33079SOL     OW 8014   8.840   5.696   4.288  0.0197  0.1599  0.1215
33079SOL    HW1 8015   8.935   5.703   4.299 -0.0789  0.8862  0.5438
33079SOL    HW2 8016   8.812   5.633   4.355  0.3205 -0.8301 -0.6575
33080SOL     OW 8017  11.536  11.623   5.435  0.0185 -0.0717  0.5275
33080SOL    HW1 8018  11.536  11.533   5.467  1.9158  0.6470  2.9119
33080SOL    HW2 8019  11.444  11.644   5.422 -0.4694 -2.2904 -0.0019
33081SOL     OW 8020   7.014   3.890   5.089 -0.4308  0.4332  0.7316
33081SOL    HW1 8021   7.025   3.914   5.181 -1.1003  1.4055  0.5807
33081SOL    HW2 8022   7.084   3.938   5.044  0.7007 -1.0270  0.8432
33082SOL     OW 8023   4.937  11.789  10.092  0.3015  0.1460 -0.0891
33082SOL    HW1 8024   4.982  11.792  10.007 -0.0062 -0.1518 -0.2652
33082SOL    HW2 8025   4.966  11.707  10.132  1.9256  1.1559  0.9315
33083SOL     OW 8026   9.780   6.688  10.666  0.1268  0.2399 -0.8381
33083SOL    HW1 8027   9.839   6.727  10.731  0.0114 -0.4693 -0.2919
33083SOL    HW2 8028   9.837   6.660  10.595  0.5351 -0.9263 -0.0780
33084SOL     OW 8029   5.780  12.124   8.434 -0.9827  0.2920 -0.5048
33084SOL    HW1 8030   5.836  12.129   8.511  0.9023  0.6611 -1.8304
33084SOL    HW2 8031   5.723  12.049   8.451 -0.9413  0.6489  1.4282
33085SOL     OW 8032  11.802   4.080  12.335  0.5385 -0.9031 -0.0715
33085SOL    HW1 8033  11.872   4.029  12.295  1.0701 -1.0753  1.0311
33085SOL    HW2 8034  11.721   4.035  12.308  0.8597 -0.8938 -1.0770
33086SOL     OW 8035   1.531   0.704   2.837 -0.1987  0.4093 -0.2420
33086SOL    HW1 8036   1.526   0.629   2.778 -1.5717  0.4765 -0.2369
33086SOL    HW2 8037   1.609   0.688   2.889 -0.1224 -0.6997 -0.6621
33087SOL     OW 8038   0.180   1.671  10.925 -0.3548 -0.2490 -0.5233
33087SOL    HW1 8039   0.116   1.607  10.893 -1.9630  0.5773  0.9382
33087SOL    HW2 8040   0.173   1.744  10.864 -0.7153 -0.2164 -0.4465
33088SOL     OW 8041   3.612  10.775   4.151  0.1349 -0.3423  0.0057
33088SOL    HW1 8042   3.541  10.716   4.174 -0.0955 -0.0535  0.0468
33088SOL    HW2 8043   3.692  10.723   4.164 -0.0841 -0.7822 -0.4090
33089SOL     OW 8044  11.227   7.486   4.780 -0.5769  0.1028 -0.5355
33089SOL    HW1 8045  11.183   7.426   4.719  1.0938 -1.1704 -0.5519
33089SOL    HW2 8046  11.268   7.551   4.724  1.9353 -1.7185 -0.9723
33090SOL     OW 8047   5.638   7.916   6.386 -0.1318 -0.1686 -0.1694
33090SOL    HW1 8048   5.571   7.973   6.351  1.5014 -0.1182 -3.5778
33090SOL    HW2 8049   5.721   7.957   6.362  1.1685 -1.4927  1.6620
33091SOL     OW 8050   5.213   3.842   6.226 -0.0903 -0.4871 -0.0878
33091SOL    HW1 8051   5.149   3.814   6.160  3.2537 -1.7883 -3.0734
33091SOL    HW2 8052   5.214   3.770   6.290 -2.9263  0.5093  1.2748
33092SOL     OW 8053  11.581   2.081   1.452  0.2910  0.2195 -0.3651
33092SOL    HW1 8054  11.510   2.145   1.463 -0.3392 -0.5965  0.5802
33092SOL    HW2 8055  11.577   2.028   1.532  2.4308  0.5666  0.0363
33093SOL     OW 8056   0.770   6.490   0.211  0.5002 -0.1079 -0.4075
33093SOL    HW1 8057   0.818   6.458   0.287 -0.0572 -0.4235 -0.1776
33093SOL    HW2 8058   0.759   6.584   0.227 -0.9547 -0.4107  0.6912
33094SOL     OW 8059   4.205   7.240   0.194 -0.0464  0.6569 -0.3497
33094SOL    HW1 8060   4.293   7.268   0.218  0.2051 -1.3289  1.2722
33094SOL    HW2 8061   4.215   7.150   0.163 -1.6353 -0.0867  1.1383
33095SOL     OW 8062   6.734   2.407   7.528 -0.2577 -0.4325 -0.1258
33095SOL    HW1 8063   6.679   2.479   7.558  0.2644 -1.2462  3.2782
33095SOL    HW2 8064   6.755   2.428   7.437 -4.0258  1.1748 -0.7880
33096SOL     OW 8065   7.972  11.562   9.691  0.1848  0.2160 -0.0594
33096SOL    HW1 8066   7.881  11.533   9.680 -0.3784  1.5219  0.9775
33096SOL    HW2 8067   8.002  11.581   9.602 -0.6651  0.0863 -0.3791
33097SOL     OW 8068   8.760   4.715   6.295 -0.2043  0.3678  0.2757
33097SOL    HW1 8069   8.817   4.784   6.262 -0.2463  0.3068  0.0745
33097SOL    HW2 8070   8.686   4.761   6.334  0.2847  0.4672  1.1013
33098SOL     OW 8071   7.080  12.336   0.535  0.2006 -0.3239  0.1743
33098SOL    HW1 8072   7.155  12.393   0.549  0.1542  0.2966 -1.7699
33098SOL    HW2 8073   7.112  12.268   0.475 -1.0661  0.7221 -1.7961
33099SOL     OW 8074   8.000   2.568  12.349 -0.1846  0.2557  1.0411
33099SOL    HW1 8075   7.967   2.631  12.285  0.6389 -0.6968 -0.3824
33099SOL    HW2 8076   7.924   2.546  12.403 -1.3266 -0.1011 -0.6315
33100SOL     OW 8077   0.436  12.168   5.068  0.5228  0.6737  0.0576
33100SOL    HW1 8078   0.439  12.142   4.976  2.2829  0.4863  0.1296
33100SOL    HW2 8079   0.398  12.256   5.067  1.3639  1.0425 -0.9497
33101SOL     OW 8080   2.541  10.893   2.930 -0.3483 -0.3541 -0.0070
33101SOL    HW1 8081   2.505  10.810   2.900  1.0480 -1.1910  0.5657
33101SOL    HW2 8082   2.609  10.869   2.992 -0.3529  1.2419  0.6555
33102SOL     OW 8083   7.879   5.798   9.967  0.1563 -0.4219  0.1268
33102SOL    HW1 8084   7.960   5.794  10.018 -0.7700 -2.7381  1.5571
33102SOL    HW2 8085   7.824   5.859  10.016  0.7344  0.6512 -0.4985
33103SOL     OW 8086  10.133   2.339   8.491  0.6279  0.0546  0.5105
33103SOL    HW1 8087  10.139   2.282   8.414  0.0879 -0.1565  0.6153
33103SOL    HW2 8088  10.184   2.294   8.558 -1.5613 -1.4986  1.2769
33104SOL     OW 8089  11.616   6.099   9.574 -0.5268 -0.5003  0.2418
33104SOL    HW1 8090  11.686   6.035   9.563 -0.5024 -0.3935 -0.2581
33104SOL    HW2 8091  11.645   6.175   9.523  0.3122  0.6255  2.2709
33105SOL     OW 8092   4.170   9.336  10.052 -0.0239  0.0754 -0.5230
33105SOL    HW1 8093   4.090   9.290  10.027 -1.0206  1.0847  0.6913
33105SOL    HW2 8094   4.240   9.272  10.039 -1.2042 -1.3152 -0.2291
33106SOL     OW 8095   8.266   7.359   2.727  0.3031 -1.0888  0.0087
33106SOL    HW1 8096   8.354   7.341   2.695  0.8591 -2.3058  2.0567
33106SOL    HW2 8097   8.208   7.323   2.660  1.3090  0.1782 -1.6120
33107SOL     OW 8098  10.598  11.588   6.057 -0.4099 -0.5639 -0.6312
33107SOL    HW1 8099  10.545  11.621   5.984  1.4155  0.6376 -1.5093
33107SOL    HW2 8100  10.675  11.550   6.014 -0.5767 -2.3505  0.5872
33108SOL     OW 8101  11.095   7.219   8.986  0.1038 -0.2172 -0.4968
33108SOL    HW1 8102  11.008   7.194   8.957  0.0333  0.7745 -1.1995
33108SOL    HW2 8103  11.086   7.235   9.080 -0.1493 -1.3979 -0.3016
33109SOL     OW 8104   2.631   5.302   1.728  0.4335 -0.1194  0.0642
33109SOL    HW1 8105   2.551   5.350   1.706  1.8704  2.8278  0.7887
33109SOL    HW2 8106   2.638   5.236   1.659 -1.3785  1.0995 -1.3938
33110SOL     OW 8107   1.790   7.687  11.114  0.8178 -0.3029  0.7677
33110SOL    HW1 8108   1.734   7.687  11.192 -1.1057  0.8823 -0.5116
33110SOL    HW2 8109   1.773   7.602  11.072 -0.3372  0.1680  0.2293
33111SOL     OW 8110   0.010   4.389   1.708  0.8144 -0.0984 -0.2925
33111SOL    HW1 8111  -0.002   4.295   1.700  0.5895 -0.1779  0.7731
33111SOL    HW2 8112   0.017   4.421   1.618  0.5342 -1.0818 -0.6696
33112SOL     OW 8113   2.814   9.963   4.131  0.0344  0.0049  0.3217
33112SOL    HW1 8114   2.840   9.907   4.058  1.0961 -0.1063  0.7613
33112SOL    HW2 8115   2.809   9.904   4.206 -1.4695  0.0395  0.2770
33113SOL     OW 8116   2.206  10.181  10.228  0.5352 -0.5391 -0.2526
33113SOL    HW1 8117   2.241  10.099  10.193  0.2779 -1.0104  0.5816
33113SOL    HW2 8118   2.115  10.161  10.249 -0.2493  0.6191 -2.2136
33114SOL     OW 8119   0.335   3.167   5.949  0.1027 -0.8798 -0.3440
33114SOL    HW1 8120   0.366   3.076   5.955  0.5528 -0.6230  1.8610
33114SOL    HW2 8121   0.329   3.196   6.039 -1.5389  0.8199 -0.9552
33115SOL     OW 8122  10.339   4.635  10.947 -0.1797 -0.4857  0.2123
33115SOL    HW1 8123  10.386   4.718  10.932 -1.7332  0.4770  0.4454
33115SOL    HW2 8124  10.254   4.648  10.904 -2.3840 -0.0127  4.2473
33116SOL     OW 8125   4.634   5.996   3.839  0.2184  0.1211 -0.8228
33116SOL    HW1 8126   4.555   5.974   3.791  0.1601  2.6449 -2.0778
33116SOL    HW2 8127   4.603   6.024   3.925 -0.0392 -0.7953 -0.6124
33117SOL     OW 8128   6.678   1.756  10.382  0.4966 -1.0491 -0.0407
33117SOL    HW1 8129   6.707   1.736  10.471  1.7429  1.3151  0.1593
33117SOL    HW2 8130   6.583   1.745  10.385 -0.0525  2.6867  2.7674
33118SOL     OW 8131  10.880   6.094   0.836 -0.2370 -0.0264  0.1526
33118SOL    HW1 8132  10.907   6.127   0.750 -1.1737 -1.2328 -0.6416
33118SOL    HW2 8133  10.788   6.117   0.843 -0.6104 -1.4005  0.0650
33119SOL     OW 8134   8.841   0.094   4.414  0.3162  0.1708  0.4457
33119SOL    HW1 8135   8.768   0.075   4.472  0.1472  0.4235  0.3197
33119SOL    HW2 8136   8.867   0.009   4.379 -1.3358  0.2530 -1.1911
33120SOL     OW 8137   3.131   7.757   1.913  0.2591  0.9289 -0.1218
33120SOL    HW1 8138   3.110   7.800   1.996  0.1233  0.3465  0.1575
33120SOL    HW2 8139   3.046   7.730   1.878  0.2551  1.8140 -0.8166
33121SOL     OW 8140   6.164   6.137   3.854  0.2567 -0.0450 -0.2910
33121SOL    HW1 8141   6.108   6.070   3.893 -0.2828 -0.0673 -1.0742
33121SOL    HW2 8142   6.216   6.089   3.789 -0.1658  0.2907 -0.8880
33122SOL     OW 8143  10.436   8.395   0.482 -0.6991 -0.7840 -0.2193
33122SOL    HW1 8144  10.431   8.388   0.577 -0.5793 -0.7283 -0.2086
33122SOL    HW2 8145  10.428   8.489   0.465 -0.0732 -0.7267 -0.2249
33123SOL     OW 8146   6.783   7.986   0.376  0.8257  0.4315 -0.1590
33123SOL    HW1 8147   6.725   8.038   0.320  2.7951  0.4108 -2.3987
33123SOL    HW2 8148   6.870   8.025   0.363  1.8968 -1.6215  0.3282
33124SOL     OW 8149   0.277   2.700   0.235 -0.2303 -0.3539 -0.1355
33124SOL    HW1 8150   0.225   2.633   0.192 -0.2934  0.5177 -1.4547
33124SOL    HW2 8151   0.240   2.783   0.205 -0.1548  0.2969  1.4526
33125SOL     OW 8152   7.027  11.594  12.564  0.4265 -0.0258  0.1141
33125SOL    HW1 8153   7.096  11.659  12.572  0.3338 -0.1225  1.9138
33125SOL    HW2 8154   7.069  11.511  12.584 -0.1083 -0.1303  0.8569
33126SOL     OW 8155  12.565  11.487  11.735 -0.5179 -0.0196  0.2197
33126SOL    HW1 8156  12.551  11.477  11.829  0.0469  0.8022  0.4044
33126SOL    HW2 8157  12.596  11.402  11.705  2.1761  0.4617  1.3307
33127SOL     OW 8158   7.364  11.096   0.332  0.3400 -1.0434  0.5809
33127SOL    HW1 8159   7.303  11.104   0.405 -1.0060 -0.8070 -0.5418
33127SOL    HW2 8160   7.343  11.012   0.292  1.7795 -1.6618  1.0671
33128SOL     OW 8161   5.365   1.593   4.652  0.5857  0.3279  0.5390
33128SOL    HW1 8162   5.352   1.652   4.726 -0.0554 -1.5756  2.0139
33128SOL    HW2 8163   5.460   1.585   4.645  0.7279  2.0276 -0.1673
33129SOL     OW 8164   9.023   2.270   1.948  0.3044  1.1150  0.5361
33129SOL    HW1 8165   9.053   2.193   1.899  0.9919  0.1864  2.2794
33129SOL    HW2 8166   8.931   2.279   1.926  0.8722  1.5530 -1.8699
33130SOL     OW 8167  11.690   6.743   2.430 -0.0416  0.0493 -0.1821
33130SOL    HW1 8168  11.736   6.710   2.352 -1.3685  0.5887 -1.2274
33130SOL    HW2 8169  11.757   6.743   2.498  1.1128 -0.6300 -1.2612
33131SOL     OW 8170   0.600  10.216   8.548  0.3835 -0.2944 -0.5011
33131SOL    HW1 8171   0.669  10.270   8.510 -0.6993 -0.7263 -3.3363
33131SOL    HW2 8172   0.520  10.247   8.507 -0.4875 -2.8782 -0.9438
33132SOL     OW 8173   7.720   2.309   0.165  0.4966  0.0599 -0.6215
33132SOL    HW1 8174   7.808   2.289   0.133  0.8752 -0.0846  0.4906
33132SOL    HW2 8175   7.693   2.385   0.114  0.9066 -0.4232 -1.5877
33133SOL     OW 8176   6.061   4.868   8.949 -0.0664  0.2549 -0.4136
33133SOL    HW1 8177   6.129   4.804   8.929 -1.8704 -1.3751 -1.7264
33133SOL    HW2 8178   6.109   4.947   8.973  2.2886 -0.6361 -1.8056
33134SOL     OW 8179   9.372   7.683   4.260  0.1526  0.6022 -0.4862
33134SOL    HW1 8180   9.450   7.627   4.268 -0.1612 -0.3543 -3.0657
33134SOL    HW2 8181   9.303   7.636   4.306  0.8951  1.1030  1.1998
33135SOL     OW 8182   7.767   2.154   2.707 -0.0700  0.1743  0.2642
33135SOL    HW1 8183   7.742   2.095   2.637 -1.1810 -1.9172  2.2775
33135SOL    HW2 8184   7.862   2.166   2.696  0.0321 -1.2943 -0.7255
33136SOL     OW 8185   9.607  12.443   0.714 -0.3194  0.2292 -0.0943
33136SOL    HW1 8186   9.597  12.442   0.809  0.7663 -0.1614  0.0260
33136SOL    HW2 8187   9.701  12.450   0.699 -0.3224 -1.4211 -1.1428
33137SOL     OW 8188   5.221   1.279   5.088  0.3698  0.2373  0.2835
33137SOL    HW1 8189   5.295   1.340   5.095  0.3732  0.2895 -0.1599
33137SOL    HW2 8190   5.243   1.223   5.013 -0.5144  0.9394 -0.5423
33138SOL     OW 8191   5.991  10.513   2.456  0.3867  0.5218  0.1317
33138SOL    HW1 8192   6.029  10.565   2.526  0.9449  0.6121 -0.2313
33138SOL    HW2 8193   5.978  10.426   2.494  1.3060  0.3857  0.1631
33139SOL     OW 8194   3.883   4.655  11.009 -0.5035 -0.2828  0.4611
33139SOL    HW1 8195   3.966   4.676  11.051 -0.8828  0.2687  0.9653
33139SOL    HW2 8196   3.838   4.740  11.002 -0.6887 -0.4468 -0.5523
33140SOL     OW 8197   0.082  10.068   6.664  0.5913  1.0338 -0.0301
33140SOL    HW1 8198   0.121  10.074   6.577 -0.4030 -0.8678 -0.6562
33140SOL    HW2 8199  -0.005  10.107   6.654  0.5495  0.9935  0.1762
33141SOL     OW 8200   7.587  11.005  11.724  0.9294  0.4441 -0.3543
33141SOL    HW1 8201   7.602  10.912  11.739 -0.9671  0.2262  0.5097
33141SOL    HW2 8202   7.586  11.043  11.812 -1.6746  0.6575 -0.3902
33142SOL     OW 8203   4.662   6.863  10.354  0.7040  0.1105 -0.6475
33142SOL    HW1 8204   4.593   6.813  10.398  2.1591  0.4837  2.3436
33142SOL    HW2 8205   4.619   6.944  10.327 -0.2154  0.0603  0.5564
33143SOL     OW 8206  12.055   1.106   9.359  0.1431 -0.0182 -0.2742
33143SOL    HW1 8207  12.103   1.182   9.324  0.0935  0.6494  1.0677
33143SOL    HW2 8208  12.070   1.110   9.453 -0.4540 -1.2848 -0.1152
33144SOL     OW 8209   4.807  10.103   8.053 -0.3636 -0.3310 -0.0997
33144SOL    HW1 8210   4.728  10.082   8.002 -0.1746 -0.3094 -0.3996
33144SOL    HW2 8211   4.774  10.156   8.126 -0.5151  0.4827 -0.7394
33145SOL     OW 8212   7.240   3.299   2.622 -0.4146  0.1825 -0.0057
33145SOL    HW1 8213   7.280   3.383   2.601 -0.2651 -0.0136 -0.5287
33145SOL    HW2 8214   7.298   3.233   2.583  1.2500 -0.3805  3.1393
33146SOL     OW 8215   5.499   6.134  12.208  0.5854  0.4536  0.2794
33146SOL    HW1 8216   5.572   6.075  12.227  0.0603 -0.5602 -0.7229
33146SOL    HW2 8217   5.537   6.202  12.152  0.8082  0.0058 -0.1251
33147SOL     OW 8218   7.366  11.313   9.188 -0.5077  0.1701  0.4751
33147SOL    HW1 8219   7.316  11.374   9.241 -1.4350  0.1473 -0.3461
33147SOL    HW2 8220   7.349  11.227   9.227 -2.0254  0.0157 -0.4125
33148SOL     OW 8221   4.555   8.796  10.293 -0.6544 -0.4110  0.3683
33148SOL    HW1 8222   4.646   8.769  10.279 -1.3842 -2.3078 -1.1179
33148SOL    HW2 8223   4.553   8.829  10.383  1.8100  1.1427 -0.0449
33149SOL     OW 8224   6.421   7.642   5.405  0.1181  0.2458  0.1313
33149SOL    HW1 8225   6.436   7.572   5.341 -3.1840 -1.4664  0.9832
33149SOL    HW2 8226   6.400   7.719   5.353 -1.7233 -0.9162 -0.9638
33150SOL     OW 8227  10.903   4.245   4.278  0.3268  0.0691 -0.4592
33150SOL    HW1 8228  10.913   4.272   4.369  2.2459 -0.2049 -0.5362
33150SOL    HW2 8229  10.992   4.246   4.243  0.0261 -2.5231 -1.5473
33151SOL     OW 8230   7.019   6.140   1.509 -0.4010 -0.4707  0.1928
33151SOL    HW1 8231   6.956   6.119   1.440 -0.7010 -0.8382  0.5778
33151SOL    HW2 8232   7.017   6.236   1.514  1.1578 -0.2721 -1.7311
33152SOL     OW 8233   0.899   3.333   9.750  0.1753 -0.0075 -0.2229
33152SOL    HW1 8234   0.903   3.242   9.779  1.3256 -0.5344 -1.8935
33152SOL    HW2 8235   0.948   3.334   9.668 -1.1828  1.8133 -1.0705
33153SOL     OW 8236   5.278   7.301   3.932 -0.2301 -0.4245 -0.2350
33153SOL    HW1 8237   5.207   7.290   3.995 -0.3280  2.4316  0.2987
33153SOL    HW2 8238   5.267   7.230   3.870 -4.1535  0.3662 -0.6958
33154SOL     OW 8239   2.251  10.208  11.660 -0.4912 -0.1099 -0.0543
33154SOL    HW1 8240   2.190  10.280  11.676 -0.6851 -0.2992  0.0481
33154SOL    HW2 8241   2.197  10.130  11.659 -0.2714 -0.2618 -0.1177
33155SOL     OW 8242   3.618   0.486   1.947  0.3537  0.1922 -0.6338
33155SOL    HW1 8243   3.523   0.485   1.936  0.4673  1.1850 -1.8058
33155SOL    HW2 8244   3.634   0.550   2.016  0.0728 -1.4956  1.1009
33156SOL     OW 8245   9.518   8.766  11.544 -0.3039  0.1685 -0.2500
33156SOL    HW1 8246   9.497   8.697  11.482 -1.8079 -0.2075  0.6168
33156SOL    HW2 8247   9.603   8.799  11.517 -1.3475  0.7572 -3.1874
33157SOL     OW 8248   1.651   6.437   2.946 -0.4269  0.1994 -0.0075
33157SOL    HW1 8249   1.620   6.372   3.009 -0.1162  0.9992  1.0027
33157SOL    HW2 8250   1.675   6.386   2.868  0.7990 -1.0316  1.1234
33158SOL     OW 8251   2.683   9.039   8.774 -0.0039  0.1194  0.0672
33158SOL    HW1 8252   2.671   8.982   8.850 -1.0919 -0.7301 -0.6937
33158SOL    HW2 8253   2.608   9.099   8.778  0.5296  0.7793  0.2501
33159SOL     OW 8254   2.160  11.613   2.314  0.3565  0.4848 -0.0759
33159SOL    HW1 8255   2.138  11.706   2.302 -0.0016  0.6725  1.7420
33159SOL    HW2 8256   2.251  11.615   2.346  0.0479  0.2999  0.8548
33160SOL     OW 8257   3.067   8.582   5.064  0.9116 -0.4177  0.0978
33160SOL    HW1 8258   3.124   8.640   5.114  0.0360  2.4094 -1.9562
33160SOL    HW2 8259   3.125   8.542   4.999  1.0936  0.0665 -0.0384
33161SOL     OW 8260  11.033   1.203   4.017  0.0043  0.0523  0.4537
33161SOL    HW1 8261  10.965   1.255   4.059 -0.5050  0.1923 -0.5090
33161SOL    HW2 8262  10.985   1.145   3.957  0.5691 -1.4755  1.4472
33162SOL     OW 8263   6.565   6.085   2.298 -0.0741 -0.3362 -0.3143
33162SOL    HW1 8264   6.586   6.057   2.209  1.6729  0.0720 -0.0601
33162SOL    HW2 8265   6.597   6.175   2.304 -1.5788  0.2000  0.2664
33163SOL     OW 8266   6.383   5.201   2.537  0.2933  0.1344  0.3999
33163SOL    HW1 8267   6.435   5.253   2.599  3.2619  0.1212 -1.8228
33163SOL    HW2 8268   6.302   5.250   2.526  0.7169  1.4010  2.4070
33164SOL     OW 8269   9.850   4.617   4.389  0.5111 -0.0438  0.2786
33164SOL    HW1 8270   9.790   4.583   4.323  0.2353  1.2014 -0.1225
33164SOL    HW2 8271   9.796   4.673   4.445  1.1202  0.4035  0.4286
33165SOL     OW 8272   5.881  10.666   9.375  0.0454 -0.0067 -0.3736
33165SOL    HW1 8273   5.849  10.730   9.437  0.3921 -0.8764  0.7453
33165SOL    HW2 8274   5.926  10.717   9.308 -0.1650  0.9393  0.1962
33166SOL     OW 8275  11.486  11.571  12.584  0.2370 -0.7046 -0.2310
33166SOL    HW1 8276  11.572  11.560  12.544  0.0095  0.3366 -1.0603
33166SOL    HW2 8277  11.439  11.630  12.525 -0.3314  0.3963  1.2495
33167SOL     OW 8278  10.325   1.712   7.542  0.4233 -0.3314 -0.5266
33167SOL    HW1 8279  10.406   1.679   7.582  0.4171 -0.5702 -0.7107
33167SOL    HW2 8280  10.299   1.644   7.480  1.5674  0.9304 -2.4932
33168SOL     OW 8281   7.781   9.846   3.446  0.0825 -0.3883 -0.5383
33168SOL    HW1 8282   7.856   9.795   3.475  0.2030  0.2566  0.3287
33168SOL    HW2 8283   7.709   9.816   3.503 -0.1068 -0.3652 -0.7645
33169SOL     OW 8284   8.800   4.651  11.455 -0.1338  0.3293 -0.0736
33169SOL    HW1 8285   8.754   4.719  11.406  0.3414  0.9594  0.3391
33169SOL    HW2 8286   8.741   4.629  11.527  0.0127  0.8001  0.1886
33170SOL     OW 8287   4.941   1.085   9.472  0.0764 -0.2180 -0.4148
33170SOL    HW1 8288   4.912   1.004   9.512 -0.3235 -0.0703 -0.4009
33170SOL    HW2 8289   4.901   1.154   9.524  0.1802 -0.0145 -0.5988
33171SOL     OW 8290   7.176  11.427   0.121 -0.4960  0.1657  0.0805
33171SOL    HW1 8291   7.194  11.471   0.204  1.4366  1.9544 -1.1767
33171SOL    HW2 8292   7.258  11.380   0.101 -0.7490  0.1780 -1.0374
33172SOL     OW 8293   9.576   5.299   3.886 -0.5326 -0.1122  0.3512
33172SOL    HW1 8294   9.645   5.316   3.950 -1.8125 -0.3930  1.8559
33172SOL    HW2 8295   9.523   5.379   3.887 -0.2555  0.1064 -0.8088
33173SOL     OW 8296   1.542   9.609   6.754  0.4753  0.2803 -0.0697
33173SOL    HW1 8297   1.570   9.661   6.828 -0.4776  0.7131  0.0106
33173SOL    HW2 8298   1.611   9.619   6.689  1.2025  0.0827  0.6659
33174SOL     OW 8299   0.004  11.736  10.673 -0.7285 -0.2060 -0.4180
33174SOL    HW1 8300  -0.022  11.667  10.734  0.4060 -0.2390  0.0562
33174SOL    HW2 8301  -0.069  11.798  10.673 -0.3270  0.3563  1.8275
33175SOL     OW 8302   3.159   7.807   9.825  0.1974 -0.4690  0.0922
33175SOL    HW1 8303   3.073   7.820   9.787  0.2437 -0.4435 -0.0038
33175SOL    HW2 8304   3.195   7.731   9.779  0.9263  0.5612 -1.1022
33176SOL     OW 8305   7.789  10.091   4.598  0.3524 -0.1772 -0.1684
33176SOL    HW1 8306   7.736  10.168   4.616  2.5791  2.0142 -2.2404
33176SOL    HW2 8307   7.733  10.035   4.544 -1.2408 -0.0172  1.2455
33177SOL     OW 8308   5.205  12.159   4.159  0.2434 -0.5207  0.0622
33177SOL    HW1 8309   5.256  12.160   4.078 -0.1304 -2.0463 -0.2180
33177SOL    HW2 8310   5.228  12.077   4.201 -0.4016 -0.2525  0.9635
33178SOL     OW 8311   0.211  10.714   2.603  0.0900 -0.3415 -0.5830
33178SOL    HW1 8312   0.227  10.771   2.677  1.7946  0.1486 -1.2879
33178SOL    HW2 8313   0.222  10.625   2.638 -1.3291 -0.2420  0.2168
33179SOL     OW 8314   9.709   4.504   3.932 -0.3783  0.1284  0.4269
33179SOL    HW1 8315   9.728   4.512   4.025  0.0135 -0.6936  0.4296
33179SOL    HW2 8316   9.673   4.415   3.923 -0.4739  0.2256 -0.1880
33180SOL     OW 8317   4.022   5.033  11.086 -0.3266  0.0460  0.3358
33180SOL    HW1 8318   4.033   4.982  11.006  0.0775  1.4029 -0.5014
33180SOL    HW2 8319   4.105   5.023  11.132 -0.7962 -1.2863  0.9453
33181SOL     OW 8320  10.541   0.631  10.921 -0.0897 -0.2921 -0.3328
33181SOL    HW1 8321  10.623   0.651  10.877  0.4587  1.0565  1.1958
33181SOL    HW2 8322  10.567   0.587  11.002 -0.8122  0.5532  0.3840
33182SOL     OW 8323   1.057   8.031   2.248  0.1394 -0.1084  0.2320
33182SOL    HW1 8324   1.131   8.018   2.189  0.5710  1.1017  0.4794
33182SOL    HW2 8325   1.073   8.116   2.288 -1.3470  0.1486  0.3481
33183SOL     OW 8326   0.109   3.027  10.514  0.1959 -0.0528  0.3395
33183SOL    HW1 8327   0.046   2.972  10.561  0.6543 -1.1183 -0.2507
33183SOL    HW2 8328   0.067   3.044  10.429 -0.6261  1.8581  1.0720
33184SOL     OW 8329  11.408  11.620   2.302  0.0099 -0.3891  0.1057
33184SOL    HW1 8330  11.405  11.715   2.289  3.0651  0.0348  1.7397
33184SOL    HW2 8331  11.440  11.586   2.219  0.2943  0.1544 -0.0107
33185SOL     OW 8332   2.610   8.701   8.849  0.1360  0.2180 -0.4319
33185SOL    HW1 8333   2.625   8.750   8.929  1.2380  0.5342 -0.8076
33185SOL    HW2 8334   2.523   8.727   8.820 -1.3438 -1.7189  1.9016
33186SOL     OW 8335   2.922   1.190  11.583  0.1262  0.2434 -0.1763
33186SOL    HW1 8336   2.897   1.227  11.498 -0.6263  0.0146 -0.0629
33186SOL    HW2 8337   2.910   1.096  11.574 -1.0115  0.2993  0.5027
33187SOL     OW 8338   0.852   4.340   1.929 -0.1368  0.3780  0.3832
33187SOL    HW1 8339   0.791   4.359   1.858 -1.1933 -1.2473  0.7837
33187SOL    HW2 8340   0.843   4.245   1.943  1.0595  0.4360  1.7544
33188SOL     OW 8341   8.272   0.311   8.237 -0.0559  0.0039  0.1141
33188SOL    HW1 8342   8.222   0.344   8.162  0.2672 -1.2987 -0.6927
33188SOL    HW2 8343   8.301   0.224   8.210  1.3025  0.1044  1.1950
33189SOL     OW 8344   8.315   6.820   0.787 -0.7355 -0.3597 -0.0560
33189SOL    HW1 8345   8.395   6.858   0.750 -0.6138  0.2317  0.7780
33189SOL    HW2 8346   8.289   6.752   0.725 -0.5385  0.5937 -1.2172
33190SOL     OW 8347   4.504   2.652   3.163  0.0887 -0.4995 -0.0940
33190SOL    HW1 8348   4.518   2.736   3.120 -0.1998  0.0727  0.9054
33190SOL    HW2 8349   4.592   2.623   3.188  0.1025 -0.0102  0.4430
33191SOL     OW 8350   6.992   5.621   9.826  0.1736  0.2808 -0.2038
33191SOL    HW1 8351   6.939   5.547   9.858  1.0198 -0.5179 -0.6053
33191SOL    HW2 8352   7.011   5.599   9.735  2.1126 -0.0215  0.2239
33192SOL     OW 8353   1.310   4.261  12.104  0.0374  0.4280 -0.7429
33192SOL    HW1 8354   1.399   4.231  12.118 -0.4648 -0.8147 -0.1231
33192SOL    HW2 8355   1.282   4.295  12.189 -0.2595  0.3287 -0.7979
33193SOL     OW 8356   8.002   0.087   5.706  0.8837 -0.1568 -0.1172
33193SOL    HW1 8357   8.018   0.112   5.797  1.4457  0.1301 -0.2889
33193SOL    HW2 8358   8.090   0.076   5.669  0.6580 -0.1381 -0.6561
33194SOL     OW 8359   7.997   7.269   9.902 -0.2408  0.3307 -0.1392
33194SOL    HW1 8360   7.923   7.316   9.941  0.9298  1.7077  0.5102
33194SOL    HW2 8361   7.967   7.178   9.897 -2.6987  1.1040 -1.6825
33195SOL     OW 8362   0.901   5.571  11.551 -0.4389 -0.5364  0.4895
33195SOL    HW1 8363   0.879   5.599  11.640 -1.9708 -1.2476  0.3689
33195SOL    HW2 8364   0.894   5.475  11.554 -0.3117 -0.5792 -0.3349
33196SOL     OW 8365  11.322   2.466  12.481  0.0468 -0.2436  0.1228
33196SOL    HW1 8366  11.346   2.519  12.557 -0.4834  2.1075 -1.2317
33196SOL    HW2 8367  11.226   2.475  12.475  0.2015  0.7183 -1.5144
33197SOL     OW 8368   7.691   7.227   7.990  0.2946  0.4478 -0.7246
33197SOL    HW1 8369   7.657   7.150   7.944 -0.0476  0.7388 -0.9598
33197SOL    HW2 8370   7.786   7.221   7.979  0.4343 -1.0007  0.9198
33198SOL     OW 8371   9.375  10.434   5.444  0.0283  0.7394  0.4841
33198SOL    HW1 8372   9.409  10.503   5.501 -0.6892  1.1813  0.3848
33198SOL    HW2 8373   9.307  10.476   5.392  0.6120  0.3263 -0.6567
33199SOL     OW 8374  10.381   8.207   5.899  0.4075 -0.0690  0.4111
33199SOL    HW1 8375  10.323   8.279   5.924  2.1131  1.9145 -0.9612
33199SOL    HW2 8376  10.342   8.171   5.819  0.6322  0.7662 -0.0890
33200SOL     OW 8377   6.221  12.297   9.297  0.1282  0.5320 -0.8965
33200SOL    HW1 8378   6.270  12.233   9.349  0.0855  0.4125 -1.0023
33200SOL    HW2 8379   6.286  12.338   9.241 -0.0378 -0.2956 -1.7160
33201SOL     OW 8380   8.512  10.354  11.609 -0.1337 -0.1276 -0.2309
33201SOL    HW1 8381   8.452  10.376  11.681  0.8737  2.9872 -0.2029
33201SOL    HW2 8382   8.456  10.315  11.542 -1.6723 -0.0277  0.9405
33202SOL     OW 8383   4.965   3.315   4.148  0.0873 -0.4523 -0.0668
33202SOL    HW1 8384   4.986   3.231   4.107  0.7136 -0.0695 -0.5440
33202SOL    HW2 8385   5.035   3.329   4.213 -0.3846 -0.6125  0.4838
33203SOL     OW 8386   2.494  10.142   5.257 -0.1836 -0.0568 -0.4505
33203SOL    HW1 8387   2.522  10.068   5.310  0.0757  0.7690  0.6086
33203SOL    HW2 8388   2.571  10.198   5.251 -1.2411  1.8440  1.8027
33204SOL     OW 8389   9.324   6.165   9.572 -0.4471  0.2872  0.5604
33204SOL    HW1 8390   9.240   6.124   9.548 -1.1542  2.2366 -0.4756
33204SOL    HW2 8391   9.385   6.134   9.505  0.3357 -2.9233  2.5382
33205SOL     OW 8392  10.159   0.048  11.422 -0.6404 -0.1692 -0.2511
33205SOL    HW1 8393  10.150  -0.025  11.484  0.0987 -0.2336 -0.2079
33205SOL    HW2 8394  10.164   0.005  11.337  0.2271 -0.2133 -0.1916
33206SOL     OW 8395   0.217   6.266   4.515 -0.1998 -0.1878 -0.3759
33206SOL    HW1 8396   0.208   6.327   4.442  0.9468 -0.4727 -0.7875
33206SOL    HW2 8397   0.288   6.302   4.568  2.3763 -2.4087 -2.0240
33207SOL     OW 8398  10.270   2.634   9.135  0.0305 -0.0241  0.1239
33207SOL    HW1 8399  10.331   2.567   9.104  1.3750  0.9176  0.6041
33207SOL    HW2 8400  10.323   2.688   9.195 -1.9840 -0.7675  2.7580
33208SOL     OW 8401   3.446   3.490   3.288 -0.0825  0.6955  0.6854
33208SOL    HW1 8402   3.485   3.573   3.263 -1.9201  1.3134 -0.3403
33208SOL    HW2 8403   3.520   3.432   3.306  1.3760  1.3092 -2.6668
33209SOL     OW 8404   4.326  11.730  11.831 -0.2291  0.1533  0.4812
33209SOL    HW1 8405   4.334  11.800  11.896 -0.5103  0.4894  0.1614
33209SOL    HW2 8406   4.265  11.765  11.766 -1.1059 -0.7542  0.7966
33210SOL     OW 8407   3.147   5.692  10.932 -0.5957  0.1634 -0.0076
33210SOL    HW1 8408   3.148   5.696  11.027  0.5052  2.1625 -0.0445
33210SOL    HW2 8409   3.222   5.745  10.905  0.4696 -2.1129 -1.9738
33211SOL     OW 8410  12.172   9.050   1.428 -0.1985 -0.0999  0.1027
33211SOL    HW1 8411  12.172   9.145   1.435 -0.0582 -0.0774 -0.1704
33211SOL    HW2 8412  12.260   9.029   1.395 -1.3371 -0.0529 -3.3381
33212SOL     OW 8413  11.640  12.594   5.151  0.0878  0.3035 -0.4965
33212SOL    HW1 8414  11.571  12.633   5.097 -1.2549 -0.0742  0.8683
33212SOL    HW2 8415  11.717  12.593   5.095 -0.9627  0.9346 -2.0124
33213SOL     OW 8416   4.635   2.483   2.534 -0.0268  0.5040 -0.5751
33213SOL    HW1 8417   4.600   2.454   2.450 -0.8757 -1.4610  0.3922
33213SOL    HW2 8418   4.728   2.462   2.530 -0.4225 -1.5226 -0.3184
33214SOL     OW 8419   3.580   3.453   5.517 -0.4568 -0.2768  0.4318
33214SOL    HW1 8420   3.664   3.489   5.486  0.6012 -1.0172  2.2539
33214SOL    HW2 8421   3.524   3.529   5.529  0.4957  0.3967  0.7009
33215SOL     OW 8422   9.457  11.475  10.520  1.0529  0.5540  0.2956
33215SOL    HW1 8423   9.552  11.480  10.534  1.0399  2.0698 -0.0135
33215SOL    HW2 8424   9.428  11.566  10.525 -0.4920  0.0458  1.0579
33216SOL     OW 8425   6.564   1.375  12.078  0.2418 -0.1347 -0.3199
33216SOL    HW1 8426   6.600   1.463  12.072  1.7170 -0.6877  0.0840
33216SOL    HW2 8427   6.615   1.323  12.017  0.5951 -1.0839  0.7469
33217SOL     OW 8428   2.656   4.632   9.482 -0.6189 -0.1186 -0.2307
33217SOL    HW1 8429   2.722   4.641   9.413  1.3531  0.4196  1.6217
33217SOL    HW2 8430   2.696   4.673   9.558 -2.9003 -0.3203  1.1318
33218SOL     OW 8431   7.194   7.079   9.535 -0.2298 -0.4432 -0.1211
33218SOL    HW1 8432   7.280   7.066   9.496  0.3944  1.7421  0.3552
33218SOL    HW2 8433   7.209   7.069   9.629  0.0635  2.1213  0.1710
33219SOL     OW 8434  10.354  11.560   2.777  0.5418 -0.3733  0.0082
33219SOL    HW1 8435  10.411  11.485   2.795  0.3684 -0.3969  0.4720
33219SOL    HW2 8436  10.269  11.534   2.814  0.9029  0.7344  1.6948
33220SOL     OW 8437   4.860   7.170  11.047 -0.3332  0.1076 -0.8400
33220SOL    HW1 8438   4.805   7.092  11.047  0.4115 -0.7926  4.3279
33220SOL    HW2 8439   4.802   7.241  11.075  0.0124  0.2688 -0.5156
33221SOL     OW 8440   8.426   3.089   2.086  0.0007 -0.0137  0.3133
33221SOL    HW1 8441   8.367   3.135   2.026 -0.3982 -2.9144 -1.7591
33221SOL    HW2 8442   8.367   3.047   2.149  0.0296 -0.6560 -0.0759
33222SOL     OW 8443  12.561   2.585  11.311  0.1875 -0.5682 -0.3050
33222SOL    HW1 8444  12.604   2.524  11.251  1.5154  0.0175 -0.0084
33222SOL    HW2 8445  12.561   2.540  11.395  2.0822  0.1535  0.1470
33223SOL     OW 8446   5.284  12.520   3.348  0.1455 -0.0335  0.1696
33223SOL    HW1 8447   5.329  12.601   3.371  1.0582 -0.9229  1.7185
33223SOL    HW2 8448   5.341  12.479   3.283 -1.1710  1.2995 -1.9460
33224SOL     OW 8449  11.070   4.931   6.312  0.7159  0.3011 -0.0456
33224SOL    HW1 8450  11.003   4.865   6.295  1.1443  0.1151 -1.1410
33224SOL    HW2 8451  11.150   4.893   6.274  0.9953  1.3830 -0.5668
33225SOL     OW 8452   0.795   0.338   7.249 -0.4317 -0.3290 -0.5418
33225SOL    HW1 8453   0.751   0.256   7.270 -2.3047  0.8929  0.6430
33225SOL    HW2 8454   0.886   0.323   7.273 -0.6240 -2.2073 -0.8488
33226SOL     OW 8455   5.567   0.828   2.136 -0.1677  0.3026 -0.3392
33226SOL    HW1 8456   5.611   0.752   2.098 -0.2814  0.5885 -1.0471
33226SOL    HW2 8457   5.622   0.852   2.211  0.5868  0.3236 -0.8872
33227SOL     OW 8458  10.108   1.370   6.227 -0.3118  0.1577 -0.2416
33227SOL    HW1 8459  10.184   1.396   6.175 -0.1521  0.2911  0.0538
33227SOL    HW2 8460  10.068   1.298   6.178  0.1320 -0.0594 -0.2916
33228SOL     OW 8461   0.906   6.733   0.216  0.5666 -0.2632 -0.2993
33228SOL    HW1 8462   0.991   6.720   0.259  0.3979 -0.5354 -0.0454
33228SOL    HW2 8463   0.880   6.822   0.240  0.0523 -0.7196  0.9213
33229SOL     OW 8464   0.488   7.016   4.459 -0.1141  0.3487 -0.1136
33229SOL    HW1 8465   0.418   7.010   4.393  0.2537  1.6906 -0.6626
33229SOL    HW2 8466   0.442   7.030   4.542 -0.5095  0.9999 -0.4350
33230SOL     OW 8467   7.891   5.375  11.511 -0.0681  0.3386 -0.2564
33230SOL    HW1 8468   7.795   5.374  11.506 -0.0154  0.0451 -1.4002
33230SOL    HW2 8469   7.916   5.455  11.465  0.3894 -1.8467 -4.2588
33231SOL     OW 8470  10.572  12.014   0.827  0.1031  0.1472  0.4190
33231SOL    HW1 8471  10.613  12.042   0.908  2.7325  0.2756 -0.8483
33231SOL    HW2 8472  10.640  11.962   0.782 -1.8416 -1.4073 -0.9320
33232SOL     OW 8473   0.700  11.075   8.253 -0.0019  0.2044  0.1041
33232SOL    HW1 8474   0.694  11.154   8.305  1.5057  1.2788 -1.2422
33232SOL    HW2 8475   0.791  11.072   8.224 -0.1091 -1.8337 -0.1804
33233SOL     OW 8476   8.102   3.373   5.418 -0.3333 -0.4289  0.0727
33233SOL    HW1 8477   8.132   3.376   5.509 -0.5522  1.0229  0.1269
33233SOL    HW2 8478   8.028   3.434   5.416 -0.9460 -1.1822 -0.8696
33234SOL     OW 8479  12.083   0.204   8.045 -0.1935  0.2711 -0.2757
33234SOL    HW1 8480  12.154   0.259   8.013 -1.3951  0.3019 -3.2053
33234SOL    HW2 8481  12.004   0.256   8.027 -1.2407 -1.6488 -1.5300
33235SOL     OW 8482   2.805   4.848   8.150  0.2642 -0.0492  0.5660
33235SOL    HW1 8483   2.830   4.775   8.093  1.8950  0.1734  0.9240
33235SOL    HW2 8484   2.851   4.924   8.112 -2.4186  1.1222 -0.5716
33236SOL     OW 8485   3.475   2.842   3.429  0.8227  0.0860 -0.0567
33236SOL    HW1 8486   3.493   2.750   3.446  1.2232  0.1909  0.1103
33236SOL    HW2 8487   3.533   2.889   3.490  1.1654  0.4517 -0.6588
33237SOL     OW 8488   4.781   1.628   6.150 -0.4202  0.4717  0.0406
33237SOL    HW1 8489   4.791   1.723   6.154  1.1782  0.3120  0.8188
33237SOL    HW2 8490   4.766   1.609   6.057 -0.0851  1.4223 -0.2190
33238SOL     OW 8491   5.612   5.164   9.182 -0.3585 -0.1061  0.5102
33238SOL    HW1 8492   5.653   5.243   9.148  1.9521 -0.9351  1.1779
33238SOL    HW2 8493   5.620   5.171   9.277  1.7369 -1.9761  0.5477
33239SOL     OW 8494   7.045  10.986   2.758 -0.0268  0.6371  0.5620
33239SOL    HW1 8495   7.101  11.015   2.830 -0.1865 -1.5178  1.6072
33239SOL    HW2 8496   6.987  11.061   2.743  3.5660  3.4151 -1.2465
33240SOL     OW 8497   9.636   4.850   3.678 -0.4382  0.2179 -0.0323
33240SOL    HW1 8498   9.616   4.944   3.689  0.2748  0.2568  1.0211
33240SOL    HW2 8499   9.621   4.834   3.585 -1.4350  1.1722 -0.0650
33241SOL     OW 8500   5.882   3.493   5.521  0.2215  0.4269 -0.1117
33241SOL    HW1 8501   5.905   3.468   5.610  0.6384 -1.4929 -0.7202
33241SOL    HW2 8502   5.810   3.435   5.497  2.4269 -1.6555 -2.2316
33242SOL     OW 8503   3.520  12.461  12.501 -0.0488 -0.5801  0.7973
33242SOL    HW1 8504   3.491  12.400  12.433 -0.0093  0.2045  0.0555
33242SOL    HW2 8505   3.490  12.547  12.470 -1.2741 -0.3654  2.4751
33243SOL     OW 8506   1.378  10.034  11.771  0.3281 -0.5356 -0.0264
33243SOL    HW1 8507   1.412  10.108  11.720  1.8054  0.1798  1.8614
33243SOL    HW2 8508   1.455   9.979  11.786 -0.1711 -0.9634  1.0206
33244SOL     OW 8509   9.220  11.205   3.470 -0.1072  0.1700  0.0455
33244SOL    HW1 8510   9.246  11.143   3.403 -2.4591 -1.0928  0.1973
33244SOL    HW2 8511   9.283  11.277   3.463  1.5521 -1.3547 -1.3901
33245SOL     OW 8512   0.286   8.106   1.722  0.5607  0.0276  0.1772
33245SOL    HW1 8513   0.287   8.138   1.812  0.0403 -1.1901  0.6282
33245SOL    HW2 8514   0.204   8.057   1.714  2.0677 -2.6029  0.0298
33246SOL     OW 8515   6.416   6.925   0.050 -0.1297 -0.1877 -0.1523
33246SOL    HW1 8516   6.438   6.833   0.042 -0.3567 -0.2280 -0.3208
33246SOL    HW2 8517   6.424   6.960  -0.039 -4.2593 -0.9847 -1.0717
33247SOL     OW 8518   9.955   9.059  11.690 -0.0079  0.0476 -0.7040
33247SOL    HW1 8519   9.921   9.131  11.743  1.0074  0.2918 -0.3583
33247SOL    HW2 8520   9.972   8.989  11.753 -3.0859 -1.3920 -1.2796
33248SOL     OW 8521   6.630   8.384   3.562  0.0757  0.5071  0.5588
33248SOL    HW1 8522   6.599   8.425   3.481  1.5008  2.1754  0.8056
33248SOL    HW2 8523   6.642   8.292   3.538 -0.1348  0.8311 -0.9373
33249SOL     OW 8524   5.409   7.191   8.319 -0.1500  0.5520 -0.2891
33249SOL    HW1 8525   5.403   7.110   8.269 -1.4019 -1.0005  2.1176
33249SOL    HW2 8526   5.342   7.248   8.282 -0.5178 -0.2438 -0.8641
33250SOL     OW 8527   8.886   5.471   1.702  0.4532 -0.3212 -0.3929
33250SOL    HW1 8528   8.974   5.439   1.725  0.4027 -0.4610 -0.3921
33250SOL    HW2 8529   8.894   5.497   1.610  0.5454 -0.1531 -0.3383
33251SOL     OW 8530   3.836   3.214   1.521  0.4312 -0.0702  0.2090
33251SOL    HW1 8531   3.765   3.157   1.491  0.1147  0.5272 -0.2146
33251SOL    HW2 8532   3.915   3.162   1.507  0.5982  0.9079 -3.9803
33252SOL     OW 8533   4.505   4.487   7.471 -0.3681 -0.4566 -0.4216
33252SOL    HW1 8534   4.500   4.582   7.468 -1.4031 -0.5075 -0.7988
33252SOL    HW2 8535   4.420   4.459   7.505 -0.2478 -1.2595 -0.7515
33253SOL     OW 8536   2.475   3.959   3.348 -0.4126  0.0412 -0.1461
33253SOL    HW1 8537   2.522   3.878   3.367 -0.9238 -1.1287 -3.2555
33253SOL    HW2 8538   2.543   4.025   3.334  0.0684 -0.3251  0.4304
33254SOL     OW 8539   6.045   8.578  10.731  0.4196 -0.4435 -0.1050
33254SOL    HW1 8540   6.031   8.485  10.749  1.2475 -0.5733 -0.0909
33254SOL    HW2 8541   6.135   8.595  10.759  0.2738  0.3705 -0.0922
33255SOL     OW 8542   1.269   6.984  10.060  0.1312 -0.1347  0.0438
33255SOL    HW1 8543   1.282   6.891  10.038  0.0860  0.3297 -2.2009
33255SOL    HW2 8544   1.208   6.982  10.134  0.7039 -1.8941  0.5415
33256SOL     OW 8545  11.750   0.822   7.738  0.3941  0.0907  0.2235
33256SOL    HW1 8546  11.739   0.907   7.781 -0.5340  0.0123  0.1439
33256SOL    HW2 8547  11.772   0.762   7.809 -1.4721 -0.1086  0.6645
33257SOL     OW 8548   7.972   0.849   2.780  0.5969  0.1042  0.5911
33257SOL    HW1 8549   7.960   0.832   2.687  0.1813 -0.1892  0.6926
33257SOL    HW2 8550   8.054   0.806   2.802  0.8317  0.4017  0.3056
33258SOL     OW 8551   7.570   2.028   7.603 -0.2358 -0.1699  0.0762
33258SOL    HW1 8552   7.527   2.112   7.620  0.0737  0.1434 -0.6324
33258SOL    HW2 8553   7.513   1.985   7.540  0.5536  0.3288 -1.0149
33259SOL     OW 8554   4.618   2.411   4.999  0.3210 -0.0796  0.4531
33259SOL    HW1 8555   4.580   2.323   4.987  0.0552 -0.0301  0.9146
33259SOL    HW2 8556   4.660   2.407   5.084  0.3397  0.2337  0.4576
33260SOL     OW 8557  11.610  11.882   1.771  0.2638 -0.3709  0.1383
33260SOL    HW1 8558  11.568  11.847   1.692 -0.5121  0.9167 -0.0592
33260SOL    HW2 8559  11.537  11.899   1.831  0.6187  0.6173  0.3147
33261SOL     OW 8560   8.030   9.553  10.201 -0.0149 -0.0188 -0.4939
33261SOL    HW1 8561   8.120   9.520  10.204 -0.5137 -1.4659 -0.7827
33261SOL    HW2 8562   7.996   9.522  10.117 -0.6393  0.9423 -0.6107
33262SOL     OW 8563   6.237   8.518   1.010 -0.3069  0.5672 -0.7134
33262SOL    HW1 8564   6.325   8.483   1.024  0.2202  1.2472 -2.1038
33262SOL    HW2 8565   6.243   8.610   1.036 -0.9097  0.3742  0.1734
33263SOL     OW 8566  10.256   5.435  12.489 -0.4479  0.2716  0.0620
33263SOL    HW1 8567  10.296   5.348  12.488 -1.4522 -0.2018 -0.7615
33263SOL    HW2 8568  10.190   5.432  12.420 -2.2223  0.8636  1.6470
33264SOL     OW 8569   4.759  11.446   1.589 -0.1566 -0.2464 -0.2538
33264SOL    HW1 8570   4.730  11.371   1.536 -2.3603  1.4465 -1.6412
33264SOL    HW2 8571   4.816  11.495   1.530  1.8194 -1.0900  0.8734
33265SOL     OW 8572   0.575   4.536   1.290 -0.0481 -0.9018  0.2659
33265SOL    HW1 8573   0.520   4.595   1.341  2.1266  1.0762  0.4805
33265SOL    HW2 8574   0.574   4.454   1.339 -0.4903 -0.0149  1.8094
33266SOL     OW 8575   1.177  11.420  10.980 -0.6600 -0.7004  0.5087
33266SOL    HW1 8576   1.138  11.334  10.993  2.0120 -1.8063  1.9499
33266SOL    HW2 8577   1.166  11.437  10.886 -0.9530 -2.7810  0.1144
33267SOL     OW 8578   5.928   5.668   9.237 -0.4409 -0.5522 -0.2466
33267SOL    HW1 8579   5.857   5.636   9.180 -0.0890 -0.8198 -0.5425
33267SOL    HW2 8580   5.885   5.728   9.298 -1.3283 -2.4377  1.0743
33268SOL     OW 8581  12.129   4.025  11.688 -0.3026  0.3866 -0.4386
33268SOL    HW1 8582  12.198   4.089  11.702 -1.0410  1.8789 -2.9656
33268SOL    HW2 8583  12.162   3.969  11.618 -2.4267  2.6217 -3.4484
33269SOL     OW 8584  12.139  12.170   0.618 -0.5071  0.5003  0.7725
33269SOL    HW1 8585  12.059  12.172   0.670 -0.0678 -0.8611  1.5783
33269SOL    HW2 8586  12.129  12.093   0.561  0.4318 -0.0162  1.2742
33270SOL     OW 8587   4.347   4.717  12.295  0.7899  0.1516 -0.5481
33270SOL    HW1 8588   4.253   4.711  12.308  0.8400 -1.6952 -0.6808
33270SOL    HW2 8589   4.364   4.659  12.220  2.2254 -1.0995  0.6815
33271SOL     OW 8590   5.735   5.544   6.740  0.2890 -0.6158 -0.6517
33271SOL    HW1 8591   5.645   5.529   6.712 -0.1988 -0.0383  0.5244
33271SOL    HW2 8592   5.754   5.473   6.801  0.3668 -0.3126 -0.3214
33272SOL     OW 8593   0.760  10.262  10.734  0.5789  0.3971  0.0834
33272SOL    HW1 8594   0.846  10.297  10.710  0.5629  1.5180  1.5331
33272SOL    HW2 8595   0.780  10.183  10.785  0.6483 -0.7835 -1.6688
33273SOL     OW 8596  10.465   9.986  11.693  0.2572 -0.0092  0.4346
33273SOL    HW1 8597  10.399   9.925  11.726 -0.0149  0.1990  0.2833
33273SOL    HW2 8598  10.469  10.055  11.759 -0.3018  0.4186  0.0344
33274SOL     OW 8599   7.365   0.263   4.936 -0.1530 -0.2679  0.0105
33274SOL    HW1 8600   7.422   0.339   4.932 -0.1172 -0.3399 -3.3576
33274SOL    HW2 8601   7.276   0.299   4.928 -0.1420 -0.4985 -1.4849
33275SOL     OW 8602   5.379   6.570   8.527 -0.6449 -0.5559  0.6611
33275SOL    HW1 8603   5.431   6.520   8.590  2.3945 -0.1931 -1.3682
33275SOL    HW2 8604   5.376   6.659   8.563  2.9663  0.2076 -0.5222
33276SOL     OW 8605   7.572   6.373   4.673 -0.0368 -0.1255  0.2135
33276SOL    HW1 8606   7.549   6.296   4.620  0.0574 -0.1820  0.2532
33276SOL    HW2 8607   7.668   6.372   4.675 -0.0511 -0.4029  0.7929
33277SOL     OW 8608   4.153   0.194   3.477  0.0205  0.0930 -0.1360
33277SOL    HW1 8609   4.180   0.232   3.560  0.2608 -2.2700  0.9578
33277SOL    HW2 8610   4.210   0.117   3.466 -2.4053 -1.7691 -0.5874
33278SOL     OW 8611   5.280   3.304   2.179 -0.4607  0.4066 -0.3564
33278SOL    HW1 8612   5.295   3.283   2.086 -0.4555  2.1998 -0.7834
33278SOL    HW2 8613   5.196   3.349   2.180 -0.5146  0.2982  0.5493
33279SOL     OW 8614  11.914  10.005   2.213 -0.1828  0.4615 -0.3726
33279SOL    HW1 8615  11.971   9.929   2.223 -0.6623  0.2071  0.6221
33279SOL    HW2 8616  11.828   9.968   2.192 -0.5457  0.6624  0.6448
33280SOL     OW 8617   1.482   7.787   5.381  0.5251  0.7482  0.4474
33280SOL    HW1 8618   1.483   7.703   5.334  1.4892  1.2896 -0.5276
33280SOL    HW2 8619   1.434   7.846   5.324 -0.0597  0.9053  1.0875
33281SOL     OW 8620  11.508   4.963   9.767 -0.2281 -0.0701  0.1583
33281SOL    HW1 8621  11.579   4.980   9.706 -1.3618  0.9287 -0.9524
33281SOL    HW2 8622  11.469   5.049   9.783 -1.1284 -0.5769  0.7989
33282SOL     OW 8623   0.971   3.543   3.718  0.0360  0.4632  0.0012
33282SOL    HW1 8624   1.035   3.526   3.787 -1.6905 -2.0406  1.1752
33282SOL    HW2 8625   0.901   3.592   3.762 -0.0116  0.9448 -0.6019
33283SOL     OW 8626   4.866   3.750   0.288  0.9551 -0.7276 -0.3550
33283SOL    HW1 8627   4.868   3.843   0.307  0.6669 -0.8766  0.4557
33283SOL    HW2 8628   4.834   3.710   0.369  3.3061 -1.7422  0.1599
33284SOL     OW 8629   5.041   4.702   6.243 -0.6849 -0.1024  0.7237
33284SOL    HW1 8630   5.008   4.614   6.228  0.2002 -0.4550  0.8018
33284SOL    HW2 8631   5.068   4.732   6.156 -1.4736  0.2984  0.6114
33285SOL     OW 8632   1.045   8.152   0.700  0.1255 -0.0930 -1.0713
33285SOL    HW1 8633   1.065   8.207   0.624  0.5144 -0.2348 -1.0744
33285SOL    HW2 8634   1.097   8.073   0.686 -1.0260 -0.8161 -1.4797
33286SOL     OW 8635   7.942   0.286   4.689  0.1808 -0.2026  0.4170
33286SOL    HW1 8636   7.901   0.336   4.618  2.7452  1.6464  0.0781
33286SOL    HW2 8637   7.995   0.221   4.645  0.9104  0.2190  0.6611
33287SOL     OW 8638   6.503   3.470   5.290 -0.4754 -0.1012  0.5608
33287SOL    HW1 8639   6.445   3.403   5.325 -0.9419 -0.3183 -0.5950
33287SOL    HW2 8640   6.559   3.423   5.227 -0.5898  0.5248 -0.0220
33288SOL     OW 8641   0.323   7.294  11.541 -0.0974  0.4665  0.3215
33288SOL    HW1 8642   0.399   7.352  11.549  0.9297 -0.4253 -2.1966
33288SOL    HW2 8643   0.359   7.206  11.555 -0.0697 -0.2014 -3.1739
33289SOL     OW 8644   5.226   2.396  10.200 -0.5199 -0.3912  0.1312
33289SOL    HW1 8645   5.253   2.309  10.170 -0.0002 -0.3319  0.4067
33289SOL    HW2 8646   5.222   2.448  10.120 -0.4428 -0.5682  0.0109
33290SOL     OW 8647  11.065   4.674   9.331  0.2898  0.2009  0.1842
33290SOL    HW1 8648  10.973   4.667   9.305  0.0245  1.2907  0.7702
33290SOL    HW2 8649  11.106   4.722   9.259  0.6680 -1.2456 -0.6124
33291SOL     OW 8650   6.440   2.369   1.559 -0.3807  0.4317 -0.0200
33291SOL    HW1 8651   6.501   2.299   1.580  1.3890  0.8554 -3.0626
33291SOL    HW2 8652   6.411   2.403   1.644  2.0685 -1.1098  1.5404
33292SOL     OW 8653  12.060   5.648   8.991  0.1733  0.2319 -0.4130
33292SOL    HW1 8654  12.089   5.605   9.072 -1.3512  1.4239  0.8157
33292SOL    HW2 8655  12.139   5.687   8.955  0.5605  1.4279  1.6130
33293SOL     OW 8656   1.958  12.073   6.836 -0.5697  0.2586 -0.3380
33293SOL    HW1 8657   1.940  12.158   6.794 -0.9087  0.3789  0.0441
33293SOL    HW2 8658   1.884  12.060   6.895  0.7438  0.9429  1.5734
33294SOL     OW 8659   2.075   4.616   1.029  0.2708 -0.0222  0.3294
33294SOL    HW1 8660   2.167   4.595   1.042  0.1617  0.0680  1.3040
33294SOL    HW2 8661   2.050   4.665   1.107 -1.2297 -2.1333  1.2831
33295SOL     OW 8662  12.212   8.026   3.641  0.0848 -0.0033 -0.3382
33295SOL    HW1 8663  12.307   8.019   3.633 -0.0735 -1.8294 -1.1942
33295SOL    HW2 8664  12.178   7.962   3.578 -1.7218  0.9137 -0.3579
33296SOL     OW 8665   4.928   3.620  10.032 -0.0066 -0.3762 -0.0487
33296SOL    HW1 8666   5.016   3.625   9.994  0.3907 -0.3433  0.8525
33296SOL    HW2 8667   4.922   3.697  10.088 -1.7295  1.3127 -2.3379
33297SOL     OW 8668   2.923   3.872  12.015 -0.0573 -0.2464  0.4963
33297SOL    HW1 8669   2.865   3.912  12.080  0.6014  0.0249  0.9292
33297SOL    HW2 8670   2.889   3.902  11.930 -0.2939  0.2600  0.7674
33298SOL     OW 8671   4.489   8.348  10.120 -0.1000  0.9018  0.4727
33298SOL    HW1 8672   4.505   8.259  10.151  0.0141  0.7415 -0.0316
33298SOL    HW2 8673   4.412   8.340  10.064  0.9971  0.7513 -1.1067
33299SOL     OW 8674   5.167   1.045  11.280 -0.1846 -0.1025  0.2209
33299SOL    HW1 8675   5.216   1.069  11.358  1.4100  0.9858 -1.0501
33299SOL    HW2 8676   5.115   1.122  11.259  0.4354  0.1363 -0.5204
33300SOL     OW 8677   1.743   1.145   1.117  0.4720 -0.5921 -0.1656
33300SOL    HW1 8678   1.832   1.181   1.118  0.3071 -0.1217 -1.5348
33300SOL    HW2 8679   1.740   1.090   1.039 -0.6603 -0.0369 -0.5262
33301SOL     OW 8680   2.281   6.198  10.338 -0.1883 -0.0110  0.6555
33301SOL    HW1 8681   2.240   6.165  10.258 -0.7240 -0.1262  0.9726
33301SOL    HW2 8682   2.320   6.282  10.312  0.9012 -0.7136 -0.0769
33302SOL     OW 8683   0.750   1.208   3.944 -0.2834  0.2650  0.0303
33302SOL    HW1 8684   0.758   1.127   3.995 -0.7351  1.6286  2.4074
33302SOL    HW2 8685   0.840   1.239   3.935 -0.2142  0.1234  0.2109
33303SOL     OW 8686  10.111   3.572   6.018  0.1239 -0.6555 -0.2912
33303SOL    HW1 8687  10.142   3.612   6.100  0.0580 -0.7371 -0.2258
33303SOL    HW2 8688  10.024   3.609   6.005 -0.1631 -1.2045  0.0663
33304SOL     OW 8689   9.318  11.803  10.421 -0.2619 -0.1841  0.2166
33304SOL    HW1 8690   9.276  11.795  10.507 -1.3784  1.6244 -0.1061
33304SOL    HW2 8691   9.411  11.819  10.442 -0.5055  0.1646  1.0943
33305SOL     OW 8692   2.937   5.197  10.883 -0.2111 -0.3999 -0.3427
33305SOL    HW1 8693   2.843   5.209  10.893 -0.3925 -2.3598  0.7488
33305SOL    HW2 8694   2.969   5.181  10.973  1.3591  1.3309 -0.5234
33306SOL     OW 8695   2.355   5.614   5.908 -0.0057  0.1210 -0.1047
33306SOL    HW1 8696   2.312   5.559   5.974 -2.1374  1.6452 -0.1061
33306SOL    HW2 8697   2.438   5.639   5.948  1.3548 -3.4184 -0.3193
33307SOL     OW 8698  10.350   7.340   8.172 -0.2375 -0.6093 -0.0204
33307SOL    HW1 8699  10.349   7.352   8.267  0.1825 -0.8133  0.0144
33307SOL    HW2 8700  10.272   7.289   8.152 -0.8368  0.2431  0.1023
33308SOL     OW 8701   0.184   6.022   4.243  0.3263  0.2364  0.0537
33308SOL    HW1 8702   0.155   6.111   4.221 -0.5834  0.3436  1.5655
33308SOL    HW2 8703   0.256   6.035   4.304 -0.6893 -0.0269  1.3607
33309SOL     OW 8704  10.452  10.273   3.455  0.1090  0.3046 -0.0643
33309SOL    HW1 8705  10.472  10.222   3.376  1.6069  3.4819 -1.9819
33309SOL    HW2 8706  10.516  10.243   3.519 -0.6860 -1.8794 -0.2061
33310SOL     OW 8707  11.070   1.530   2.327 -0.5502  0.3795  0.0239
33310SOL    HW1 8708  11.044   1.441   2.351 -1.0383  0.1032 -1.4324
33310SOL    HW2 8709  11.139   1.517   2.262 -1.6015  1.0176 -1.2637
33311SOL     OW 8710   0.929   4.947   8.197  0.0369 -0.2052  0.1515
33311SOL    HW1 8711   0.900   4.915   8.112 -1.0923  0.8501  0.1144
33311SOL    HW2 8712   0.980   4.874   8.234 -0.4560 -1.1181 -0.9089
33312SOL     OW 8713   3.008   7.953   5.844 -0.0292 -0.3010 -0.4802
33312SOL    HW1 8714   2.989   7.979   5.754 -0.3093  0.9060 -0.0849
33312SOL    HW2 8715   3.103   7.958   5.852 -0.1421  2.0129 -0.0256
33313SOL     OW 8716  11.241  10.320   3.838  0.1937 -0.0822 -0.0910
33313SOL    HW1 8717  11.251  10.411   3.867 -1.5491 -0.8005  3.3131
33313SOL    HW2 8718  11.316  10.274   3.876 -2.2090 -1.0681  4.1207
33314SOL     OW 8719   1.646   7.419  12.553 -0.1928  0.1514 -0.5020
33314SOL    HW1 8720   1.592   7.457  12.622  0.6143 -1.8694  1.3492
33314SOL    HW2 8721   1.730   7.464  12.561 -0.0294 -0.2405 -0.0187
33315SOL     OW 8722   6.232   4.025   4.263 -0.8912 -0.1143 -0.7038
33315SOL    HW1 8723   6.146   4.020   4.305 -0.4977 -4.0803  0.0564
33315SOL    HW2 8724   6.215   3.999   4.172 -0.5849 -0.4033 -0.6804
33316SOL     OW 8725   3.228   5.402   2.009  0.0131  0.5118 -0.0300
33316SOL    HW1 8726   3.279   5.381   2.087  0.7650 -1.1084 -0.9046
33316SOL    HW2 8727   3.141   5.424   2.043 -0.0974 -1.5433  1.2148
33317SOL     OW 8728   2.884   7.112   7.370 -0.5530 -0.0601  0.0685
33317SOL    HW1 8729   2.951   7.157   7.317  0.4813  0.8037  2.0074
33317SOL    HW2 8730   2.859   7.036   7.317  0.7576  0.4972 -1.4407
33318SOL     OW 8731   9.857   0.233   9.608 -0.4964 -0.3850  0.2246
33318SOL    HW1 8732   9.918   0.231   9.534 -0.8347 -2.9922 -0.0528
33318SOL    HW2 8733   9.907   0.198   9.682 -0.2936  1.7975  1.2034
33319SOL     OW 8734   1.342  12.528   0.969  0.5831 -0.2341  0.0832
33319SOL    HW1 8735   1.415  12.591   0.964  2.0962 -1.9947 -1.1693
33319SOL    HW2 8736   1.362  12.476   1.047  1.7382 -1.8735 -1.2288
33320SOL     OW 8737   8.557   3.525  10.802  0.9937  0.5606 -0.3583
33320SOL    HW1 8738   8.646   3.552  10.827  0.5618  0.6867  1.1494
33320SOL    HW2 8739   8.501   3.597  10.831  0.3365  0.2099 -0.7409
33321SOL     OW 8740   9.499   5.987   2.660  0.3849 -0.6233 -0.7980
33321SOL    HW1 8741   9.471   5.983   2.751 -1.6414  0.8657 -1.2852
33321SOL    HW2 8742   9.573   6.048   2.660 -0.4967  0.4693 -0.3174
33322SOL     OW 8743   8.217   6.056  11.550 -0.1552  0.2210  0.1729
33322SOL    HW1 8744   8.143   6.036  11.608 -0.6087 -0.7034 -0.6922
33322SOL    HW2 8745   8.293   6.019  11.594 -0.3495  0.3513  0.6206
33323SOL     OW 8746   9.788  11.447   1.963  0.1944 -0.1717 -0.0510
33323SOL    HW1 8747   9.809  11.445   1.869 -0.3150  0.4196 -0.1833
33323SOL    HW2 8748   9.780  11.355   1.987  0.6949 -0.3396 -0.5039
33324SOL     OW 8749   8.267   7.243  10.036 -0.3576 -0.0995  0.8695
33324SOL    HW1 8750   8.205   7.271   9.969  0.3415 -0.6472 -0.0295
33324SOL    HW2 8751   8.235   7.157  10.063 -1.2835  0.5872  2.0905
33325SOL     OW 8752   1.671   0.657   6.494 -0.1403 -0.3846  0.2842
33325SOL    HW1 8753   1.677   0.595   6.567  1.5905 -0.7226 -0.1035
33325SOL    HW2 8754   1.713   0.736   6.527  1.9047 -0.9896 -0.7590
33326SOL     OW 8755  10.870   1.212  10.682  0.3863 -0.3144 -0.0584
33326SOL    HW1 8756  10.958   1.186  10.656  0.9948  1.4455  0.1091
33326SOL    HW2 8757  10.846   1.151  10.751  1.9848 -0.0642  0.7624
33327SOL     OW 8758   2.845   1.881   2.807  0.0690  0.6129 -0.3649
33327SOL    HW1 8759   2.751   1.870   2.819  0.2735  0.4352  1.3438
33327SOL    HW2 8760   2.856   1.972   2.780 -0.4608  1.4095  1.8453
33328SOL     OW 8761  10.652   3.936  10.468  0.4338  0.2754  0.0127
33328SOL    HW1 8762  10.686   4.005  10.525  0.8542  0.7142 -0.7428
33328SOL    HW2 8763  10.723   3.921  10.405  0.7422 -1.5600  0.7550
33329SOL     OW 8764   7.107   2.022  10.856  0.3310  0.7097  0.0947
33329SOL    HW1 8765   7.129   2.093  10.797  1.9673  0.4300  0.3252
33329SOL    HW2 8766   7.059   1.959  10.802  2.3410  0.1657 -1.1451
33330SOL     OW 8767   3.735   3.335   4.036  0.0847  0.4419 -0.0741
33330SOL    HW1 8768   3.793   3.360   3.964 -0.4067 -1.3883 -1.1696
33330SOL    HW2 8769   3.790   3.284   4.095  0.2240  0.9950  0.2744
33331SOL     OW 8770   2.362   0.034   9.313  0.1969  0.5981 -0.2086
33331SOL    HW1 8771   2.332   0.123   9.293 -3.1508 -0.4282 -0.3463
33331SOL    HW2 8772   2.334   0.019   9.403 -0.1244 -0.6253 -0.4949
33332SOL     OW 8773  11.138   5.568   4.880  0.0477 -0.4098 -0.6432
33332SOL    HW1 8774  11.070   5.624   4.841 -0.4133 -0.4869  0.0432
33332SOL    HW2 8775  11.156   5.609   4.965  2.0511  0.5817 -1.4716
33333SOL     OW 8776   8.931   3.301   2.436  0.2902 -0.0111 -0.3042
33333SOL    HW1 8777   8.947   3.337   2.523 -1.4280  0.7810 -0.2820
33333SOL    HW2 8778   8.848   3.339   2.408 -0.1299 -1.6733 -1.5272
33334SOL     OW 8779   7.282   0.055  10.421  0.3626 -0.4431 -0.2718
33334SOL    HW1 8780   7.328   0.037  10.503  0.1134 -0.5664 -0.1557
33334SOL    HW2 8781   7.265   0.149  10.423 -1.2854 -0.7167  0.7048
33335SOL     OW 8782  10.305  10.588   0.719  0.1382  0.2264  0.0147
33335SOL    HW1 8783  10.358  10.513   0.745  1.1076  1.1008  0.6704
33335SOL    HW2 8784  10.370  10.655   0.694 -0.7043  0.4079 -1.8734
33336SOL     OW 8785   3.446   7.083   5.387 -0.1705  0.7142 -0.1498
33336SOL    HW1 8786   3.412   7.062   5.474  0.2760  0.7558  0.0364
33336SOL    HW2 8787   3.458   7.178   5.388  1.7924  0.5017  0.4749
33337SOL     OW 8788   5.516  11.977   5.691 -0.1635 -0.0969 -0.1597
33337SOL    HW1 8789   5.553  11.944   5.774 -0.4214  1.0264  0.4215
33337SOL    HW2 8790   5.592  12.003   5.640 -0.0654  1.3747  0.6783
33338SOL     OW 8791   3.826  10.686   9.616  0.6093  0.5382 -0.2636
33338SOL    HW1 8792   3.853  10.645   9.535  1.2423 -0.4824  0.4445
33338SOL    HW2 8793   3.737  10.718   9.598 -0.1132 -1.5383 -0.7237
33339SOL     OW 8794   6.260   0.527   0.554 -0.1248 -0.0086  0.4394
33339SOL    HW1 8795   6.345   0.528   0.509 -0.6960  3.5764 -0.9188
33339SOL    HW2 8796   6.201   0.482   0.494  0.5559 -1.7844  1.0256
33340SOL     OW 8797   8.764   1.954   7.867 -0.5193  0.6703 -0.1423
33340SOL    HW1 8798   8.768   1.870   7.820  1.0523  1.1148 -0.8787
33340SOL    HW2 8799   8.671   1.973   7.874 -0.8530  0.5693 -3.1244
33341SOL     OW 8800   7.529   8.878  10.962 -0.1898  0.1135  0.2806
33341SOL    HW1 8801   7.498   8.793  10.932 -0.0540 -0.5822  2.0173
33341SOL    HW2 8802   7.591   8.858  11.032  0.4693  1.6264  0.1745
33342SOL     OW 8803   2.441   8.712  11.300  0.0505  0.0159 -0.1248
33342SOL    HW1 8804   2.443   8.716  11.396  1.7955 -1.6370 -0.0385
33342SOL    HW2 8805   2.352   8.683  11.280  0.1554 -1.3312  1.1256
33343SOL     OW 8806   1.726   5.364  10.613 -0.2665 -1.1039  0.3962
33343SOL    HW1 8807   1.658   5.429  10.633  0.3703 -1.0771  2.6905
33343SOL    HW2 8808   1.685   5.307  10.548 -0.7393  1.7087 -2.0026
33344SOL     OW 8809   6.673   7.039   9.895 -0.4607 -0.5215  0.6229
33344SOL    HW1 8810   6.645   7.129   9.908 -1.1859 -0.6900  0.2474
33344SOL    HW2 8811   6.671   7.000   9.982 -0.7120 -0.3377  0.6991
33345SOL     OW 8812   1.904   9.696   0.611  0.3286  0.2140  0.0758
33345SOL    HW1 8813   1.809   9.702   0.603  0.2825 -0.3550  0.1381
33345SOL    HW2 8814   1.931   9.782   0.644 -0.0585  0.6984 -0.8539
33346SOL     OW 8815  11.774   8.120   2.179  0.0150  0.0084  0.0104
33346SOL    HW1 8816  11.764   8.100   2.086 -0.4566 -1.3796  0.3332
33346SOL    HW2 8817  11.863   8.090   2.200 -0.5208 -1.3940  0.3871
33347SOL     OW 8818   5.152  12.314   0.833  0.0060  0.3775  0.1159
33347SOL    HW1 8819   5.097  12.269   0.897 -1.1710  1.0777 -0.3651
33347SOL    HW2 8820   5.150  12.257   0.756 -1.1539  1.0054 -0.3526
33348SOL     OW 8821   2.900   9.272   6.169  0.5514 -0.2949  0.7744
33348SOL    HW1 8822   2.985   9.306   6.195 -0.2106  0.6537  2.1748
33348SOL    HW2 8823   2.848   9.350   6.149 -1.0798 -0.5543  3.5438
33349SOL     OW 8824   0.018  10.953   3.827 -0.1900 -0.2697 -0.1638
33349SOL    HW1 8825  -0.032  10.891   3.773 -0.9154  0.0129  0.1785
33349SOL    HW2 8826   0.095  10.903   3.855 -0.3942 -0.7867 -0.5021
33350SOL     OW 8827   1.156   3.445   5.886 -0.2103 -0.5172  0.5173
33350SOL    HW1 8828   1.124   3.389   5.956 -1.3561 -0.1141  0.3390
33350SOL    HW2 8829   1.114   3.410   5.807  1.5908 -1.3936 -0.0999
33351SOL     OW 8830   5.745  11.871   6.135  0.0930 -0.6169  0.0937
33351SOL    HW1 8831   5.659  11.830   6.141 -0.0273 -0.3420  0.2582
33351SOL    HW2 8832   5.735  11.939   6.068 -0.5432  1.1805  1.9401
33352SOL     OW 8833   3.692  11.826   0.805 -0.2052  0.0188 -0.0065
33352SOL    HW1 8834   3.684  11.831   0.709  0.3617 -0.5527 -0.0913
33352SOL    HW2 8835   3.608  11.858   0.838  0.3327  2.2990 -0.6309
33353SOL     OW 8836   0.914   2.776   3.367 -0.2317 -0.1297 -0.3760
33353SOL    HW1 8837   0.886   2.777   3.459 -0.7779 -1.1631 -0.5104
33353SOL    HW2 8838   0.962   2.857   3.356 -0.2171  0.0470  0.8102
33354SOL     OW 8839   3.136   2.597   6.982 -0.1204 -0.1022  0.2705
33354SOL    HW1 8840   3.146   2.585   7.077 -0.6337  1.8217  0.6198
33354SOL    HW2 8841   3.042   2.602   6.968 -0.0452 -0.3502 -0.3430
33355SOL     OW 8842   8.696   9.039   8.522 -0.4079  0.3542  0.5580
33355SOL    HW1 8843   8.723   8.947   8.520 -1.7606 -0.1792 -3.8402
33355SOL    HW2 8844   8.630   9.043   8.591 -0.3909 -2.0428  0.7989
33356SOL     OW 8845   2.203   9.541   2.688  0.3771  0.1327  0.1570
33356SOL    HW1 8846   2.183   9.631   2.711  0.2799  0.3523 -0.7653
33356SOL    HW2 8847   2.182   9.534   2.595  0.9867 -0.6624  0.0637
33357SOL     OW 8848  11.666   6.993   4.937 -0.7680 -0.3237  0.2240
33357SOL    HW1 8849  11.581   6.963   4.968 -0.3829 -0.1762  1.4961
33357SOL    HW2 8850  11.729   6.941   4.987 -0.0991 -0.5690 -0.8391
33358SOL     OW 8851  12.049   2.565  10.058 -0.2705 -0.1756 -0.0576
33358SOL    HW1 8852  12.078   2.600   9.973  0.8897 -1.4895 -0.2384
33358SOL    HW2 8853  11.963   2.605  10.072  0.9338  2.7013 -0.2312
33359SOL     OW 8854  10.599   1.396   6.533  0.2148 -0.0507 -0.4898
33359SOL    HW1 8855  10.585   1.457   6.605  0.7139 -0.2070 -0.2582
33359SOL    HW2 8856  10.694   1.387   6.527  0.1632 -0.3760 -0.8830
33360SOL     OW 8857   7.541   6.066   5.315 -0.2682  0.3448 -0.3250
33360SOL    HW1 8858   7.531   6.127   5.388  2.4169  0.7675 -0.1923
33360SOL    HW2 8859   7.564   6.121   5.240 -0.0025 -0.3079 -0.7330
33361SOL     OW 8860   2.088  10.282   1.734  0.0765 -0.6933 -0.0515
33361SOL    HW1 8861   2.052  10.331   1.808  0.2806 -0.5695 -0.0334
33361SOL    HW2 8862   2.167  10.240   1.769 -0.4580 -1.5812  0.1178
33362SOL     OW 8863   3.220   5.936   9.623 -0.1222 -0.1267  0.1964
33362SOL    HW1 8864   3.188   5.933   9.714 -0.5029  0.0372  0.0734
33362SOL    HW2 8865   3.146   5.973   9.574 -0.1748 -0.8793 -0.2963
33363SOL     OW 8866   0.165   0.450   4.593 -0.8952  0.2014  0.0194
33363SOL    HW1 8867   0.207   0.434   4.678 -0.2536  1.2837 -0.0714
33363SOL    HW2 8868   0.100   0.518   4.610  0.8394  2.1720 -0.7312
33364SOL     OW 8869   6.961   8.821  10.842  0.5514 -0.0871  0.1636
33364SOL    HW1 8870   6.938   8.811  10.749 -0.1914 -0.3877  0.3675
33364SOL    HW2 8871   7.051   8.851  10.841  0.0912  1.3903 -0.6990
33365SOL     OW 8872   7.144  11.756   4.028 -0.6408  0.1297 -0.1010
33365SOL    HW1 8873   7.208  11.724   4.092  0.3804  0.0498 -1.1352
33365SOL    HW2 8874   7.182  11.734   3.943 -0.3083  3.2170 -0.8642
33366SOL     OW 8875   2.532   5.155   7.512 -0.4907 -0.2532 -0.0605
33366SOL    HW1 8876   2.467   5.157   7.442 -1.8131 -0.8698  1.1123
33366SOL    HW2 8877   2.498   5.092   7.575  0.4609  0.5900  1.3587
33367SOL     OW 8878   6.912   6.152   8.490  0.8538  0.3642 -0.1483
33367SOL    HW1 8879   6.871   6.111   8.566  0.2374 -2.4420 -1.8643
33367SOL    HW2 8880   6.843   6.206   8.451  0.8293  0.8962  0.6155
33368SOL     OW 8881   3.926   9.097   5.948 -0.3244 -0.5216  0.3192
33368SOL    HW1 8882   3.845   9.141   5.924  0.4210  0.8555  0.2297
33368SOL    HW2 8883   3.937   9.030   5.881  0.1304  1.2607 -1.5043
33369SOL     OW 8884   9.292   4.725   1.922  0.2540  0.6843  0.6032
33369SOL    HW1 8885   9.257   4.736   1.834  0.8453  0.6107  0.3559
33369SOL    HW2 8886   9.385   4.705   1.909  0.5451  1.5519  1.2717
33370SOL     OW 8887   6.415   0.636   9.938  0.1956 -0.0756 -0.6044
33370SOL    HW1 8888   6.452   0.684  10.013  0.0404 -0.1018 -0.5106
33370SOL    HW2 8889   6.326   0.669   9.930  0.3198  0.1737 -0.9938
33371SOL     OW 8890  12.560   0.441   5.899  0.0131 -0.7199 -0.1318
33371SOL    HW1 8891  12.623   0.511   5.879  1.7899 -2.0957  0.4705
33371SOL    HW2 8892  12.498   0.444   5.826  1.0608  0.3315 -1.0198
33372SOL     OW 8893   3.538   0.492   0.730  0.9121  0.4149  0.3141
33372SOL    HW1 8894   3.552   0.578   0.770  0.0562  0.1635  1.1807
33372SOL    HW2 8895   3.496   0.440   0.799  0.3375 -0.3382 -0.5840
33373SOL     OW 8896  11.433   9.861   9.996 -0.0019 -0.3436  0.0849
33373SOL    HW1 8897  11.358   9.913  10.026 -0.6198 -0.5852 -0.9816
33373SOL    HW2 8898  11.505   9.923   9.992 -0.4149  0.1470  0.0855
33374SOL     OW 8899   3.886   2.065   8.964  0.3193  0.5918 -0.3687
33374SOL    HW1 8900   3.801   2.107   8.954  0.0116  0.4404  1.2428
33374SOL    HW2 8901   3.944   2.135   8.995 -0.3748 -0.1720  3.0770
33375SOL     OW 8902  12.281   0.997   6.975 -0.1592  0.1060 -0.1886
33375SOL    HW1 8903  12.357   0.946   6.946 -0.0783 -0.1972  0.5334
33375SOL    HW2 8904  12.212   0.976   6.912 -0.4349 -1.7043  0.6326
33376SOL     OW 8905  10.320   3.699   9.821 -0.2240 -0.2477 -0.0098
33376SOL    HW1 8906  10.390   3.710   9.886 -1.1004 -1.5211  1.2088
33376SOL    HW2 8907  10.241   3.683   9.873 -1.5829  1.7056 -1.3282
33377SOL     OW 8908   2.932  11.418   7.761 -0.4056  0.2852 -0.3164
33377SOL    HW1 8909   2.925  11.414   7.857 -0.1342 -0.0555 -0.3061
33377SOL    HW2 8910   2.875  11.490   7.735 -0.9228  0.0197  0.0574
33378SOL     OW 8911   1.099   8.889   6.129 -0.2519  0.1592 -0.3728
33378SOL    HW1 8912   1.079   8.919   6.041  1.7561  0.5103 -0.7669
33378SOL    HW2 8913   1.147   8.806   6.116  0.2041  0.2969  0.3555
33379SOL     OW 8914   0.223   7.389   5.920  0.1233  0.2232  0.1705
33379SOL    HW1 8915   0.202   7.344   5.838 -1.2598 -1.9151  1.5890
33379SOL    HW2 8916   0.319   7.391   5.922  0.2427 -1.9584 -0.4112
33380SOL     OW 8917   3.294  10.553   1.614  0.2880  0.2554  0.0932
33380SOL    HW1 8918   3.204  10.524   1.606 -0.6201  2.8108  0.2778
33380SOL    HW2 8919   3.339  10.479   1.656 -1.7240 -0.9779  0.2140
33381SOL     OW 8920   4.780  10.211   2.744 -0.1523 -0.0075  0.6342
33381SOL    HW1 8921   4.725  10.217   2.822 -1.2264 -0.6095 -0.0617
33381SOL    HW2 8922   4.722  10.233   2.671  1.0365  1.3941  0.0508
33382SOL     OW 8923   2.102   9.348  12.287 -0.0741 -0.2678 -0.2395
33382SOL    HW1 8924   2.015   9.363  12.250 -1.1207 -2.9926  0.8580
33382SOL    HW2 8925   2.092   9.366  12.381  0.8128  0.2385 -0.2276
33383SOL     OW 8926   4.095   8.948   9.388  0.4637  0.2527  0.5807
33383SOL    HW1 8927   4.019   8.897   9.413  0.0418 -0.4660 -1.8704
33383SOL    HW2 8928   4.060   9.020   9.336  1.4260 -0.2661 -0.8596
33384SOL     OW 8929  10.971   3.237   0.597  0.4590 -0.0811 -0.5713
33384SOL    HW1 8930  11.021   3.226   0.679  0.9137 -1.4165 -0.9878
33384SOL    HW2 8931  11.023   3.190   0.532  0.0197  0.8342 -1.6078
33385SOL     OW 8932   0.644   7.438  11.314  0.5965  0.1281  0.3291
33385SOL    HW1 8933   0.572   7.375  11.317  0.3107  0.4983  2.1802
33385SOL    HW2 8934   0.707   7.398  11.254  0.1861 -1.6598  1.0161
33386SOL     OW 8935   4.527   2.631   3.559 -0.1148 -0.3417  0.0792
33386SOL    HW1 8936   4.613   2.666   3.536 -1.7751  2.1950 -3.0139
33386SOL    HW2 8937   4.528   2.541   3.525  1.5650 -0.7261  1.0019
33387SOL     OW 8938   1.310   4.423   4.438 -0.4356 -0.1826 -0.1234
33387SOL    HW1 8939   1.275   4.496   4.488 -0.0179  1.7170 -2.4004
33387SOL    HW2 8940   1.400   4.412   4.470 -0.8181 -0.3813  0.9039
33388SOL     OW 8941   0.057   1.426   2.101 -0.0379  0.6894  0.2930
33388SOL    HW1 8942   0.132   1.369   2.084 -1.5766 -1.1489 -0.5698
33388SOL    HW2 8943   0.022   1.394   2.184  0.0236  1.4639  0.6266
33389SOL     OW 8944   2.828   4.706   3.454  0.0905 -0.1023 -0.6240
33389SOL    HW1 8945   2.813   4.758   3.375 -0.5103  2.1902  0.8895
33389SOL    HW2 8946   2.880   4.764   3.510 -0.7499 -1.0740  1.2312
33390SOL     OW 8947  10.331   0.458   0.236 -0.4740 -0.5000 -0.0865
33390SOL    HW1 8948  10.353   0.521   0.167 -1.5627  0.2390  0.2163
33390SOL    HW2 8949  10.396   0.474   0.304 -1.0138  0.6623  0.1901
33391SOL     OW 8950   2.020   9.055   5.039 -0.1908 -0.4942  0.3605
33391SOL    HW1 8951   2.047   9.045   5.130 -0.9739 -1.6388  0.4819
33391SOL    HW2 8952   2.078   8.997   4.990  0.0081 -0.1315  0.1632
33392SOL     OW 8953   0.859   2.648   6.343  0.3462  0.0811 -0.3355
33392SOL    HW1 8954   0.883   2.741   6.346  1.4135 -0.1803 -0.3030
33392SOL    HW2 8955   0.764   2.647   6.356  0.0955  1.2675 -1.7682
33393SOL     OW 8956  12.288   1.858   8.019  0.1656 -0.6988 -0.6666
33393SOL    HW1 8957  12.338   1.777   8.027 -0.2920 -1.1754 -2.1902
33393SOL    HW2 8958  12.196   1.830   8.025  0.0082 -0.0314  0.5928
33394SOL     OW 8959   2.819   8.927   7.941 -0.0762  0.5232  0.4291
33394SOL    HW1 8960   2.851   9.012   7.972  0.0820  0.3043  0.8745
33394SOL    HW2 8961   2.888   8.865   7.967  0.9480  0.5694 -1.9662
33395SOL     OW 8962  11.515   9.141  10.551 -0.3714  0.1649 -0.0514
33395SOL    HW1 8963  11.533   9.231  10.580  1.3600 -0.2514  0.2966
33395SOL    HW2 8964  11.575   9.087  10.603 -3.0440 -1.5078  1.5432
33396SOL     OW 8965   6.438   2.407  10.713 -0.4316  0.1874  0.1929
33396SOL    HW1 8966   6.377   2.451  10.772  0.8671 -0.2322  1.9271
33396SOL    HW2 8967   6.384   2.346  10.662 -1.8596  1.9175 -0.4496
33397SOL     OW 8968  11.896   8.760   6.864  0.5814  0.2606 -0.0770
33397SOL    HW1 8969  11.965   8.698   6.841  1.4315  1.0944  0.1270
33397SOL    HW2 8970  11.882   8.748   6.958 -0.9776 -1.2748 -0.4674
33398SOL     OW 8971   9.283   3.784   1.957 -0.0398  0.0078  0.1119
33398SOL    HW1 8972   9.192   3.780   1.985  0.0339  0.8991  0.5087
33398SOL    HW2 8973   9.283   3.846   1.884  0.3504  0.5312  0.5479
33399SOL     OW 8974   9.354   9.139   0.890  0.2357  0.0417 -0.1867
33399SOL    HW1 8975   9.425   9.080   0.916  0.3829  0.3487  0.1066
33399SOL    HW2 8976   9.397   9.205   0.836  0.3444  0.7751  0.7750
33400SOL     OW 8977   3.969  10.257   1.324 -0.1259 -0.4471  0.0171
33400SOL    HW1 8978   3.944  10.285   1.235  0.8197 -0.3599 -0.2302
33400SOL    HW2 8979   3.920  10.176   1.337  0.9947 -1.3679 -1.2578
33401SOL     OW 8980   5.495  11.451   1.842  0.1422  0.4466 -0.2742
33401SOL    HW1 8981   5.434  11.425   1.773 -3.0399  0.0636  2.4499
33401SOL    HW2 8982   5.439  11.488   1.911  2.8214 -1.0079  2.9474
33402SOL     OW 8983   9.973   8.930   8.000 -0.3425 -0.4522 -0.1285
33402SOL    HW1 8984   9.941   8.894   8.082  0.2838 -1.7814 -0.4481
33402SOL    HW2 8985   9.900   8.983   7.966 -0.7966 -0.3479  0.9945
33403SOL     OW 8986  10.254   4.763   7.975  0.0018  0.0638 -0.1838
33403SOL    HW1 8987  10.178   4.754   8.032  0.2128  1.1575  0.3007
33403SOL    HW2 8988  10.216   4.774   7.887 -0.3817  0.1580 -0.0087
33404SOL     OW 8989   6.865   3.705   0.016  0.4439 -0.5525 -0.2659
33404SOL    HW1 8990   6.878   3.766   0.089 -1.0223 -0.5846  0.0451
33404SOL    HW2 8991   6.827   3.759  -0.054  0.2131 -0.8694 -0.3864
33405SOL     OW 8992   5.511   8.655   3.995  0.0870 -0.0605  0.4211
33405SOL    HW1 8993   5.547   8.727   4.046  0.2322 -0.9569  1.6505
33405SOL    HW2 8994   5.440   8.693   3.944  1.1299  1.2335 -0.1252
33406SOL     OW 8995  11.137   3.513   5.554  0.0439 -0.4671 -0.3798
33406SOL    HW1 8996  11.068   3.453   5.528 -1.2383  0.5556  0.5034
33406SOL    HW2 8997  11.215   3.458   5.565 -1.2748 -2.1364  1.2805
33407SOL     OW 8998   0.513   0.252   8.763 -0.2086 -0.0833  0.4552
33407SOL    HW1 8999   0.607   0.245   8.781  0.0653  0.8917 -0.5286
33407SOL    HW2 9000   0.501   0.341   8.731 -1.4381 -0.2774  0.3395
33408SOL     OW 9001  10.246   6.901   0.681  0.6862  0.5689 -0.0440
33408SOL    HW1 9002  10.327   6.932   0.641  1.5807 -0.3539  0.9772
33408SOL    HW2 9003  10.240   6.948   0.764 -0.2448  1.2079 -0.4642
33409SOL     OW 9004   4.908  11.038   3.947 -0.4668  0.3923  0.4092
33409SOL    HW1 9005   4.885  11.084   3.866  0.4718  2.2765  1.1495
33409SOL    HW2 9006   5.003  11.027   3.941 -0.5988 -0.9621  0.5308
33410SOL     OW 9007   0.908   0.404   5.045  0.3373 -0.5612  0.4381
33410SOL    HW1 9008   0.826   0.454   5.050 -0.6422 -1.9488 -0.8722
33410SOL    HW2 9009   0.947   0.430   4.961  0.0354 -1.6378 -0.0494
33411SOL     OW 9010   5.569   1.197   5.647  0.2788 -0.0229  0.5579
33411SOL    HW1 9011   5.552   1.105   5.670 -3.4258  0.3608 -0.0454
33411SOL    HW2 9012   5.610   1.192   5.561 -2.3143 -1.2061 -0.7354
33412SOL     OW 9013   8.595   4.055   5.038 -0.6547  0.1969  0.0645
33412SOL    HW1 9014   8.683   4.091   5.053 -0.6534  0.3743 -0.3534
33412SOL    HW2 9015   8.608   3.960   5.039 -0.8211  0.1592  2.1553
33413SOL     OW 9016   2.055  11.387   7.834  0.3537  0.0196 -0.4102
33413SOL    HW1 9017   2.144  11.393   7.798  1.5155  0.8407  2.3202
33413SOL    HW2 9018   2.069  11.375   7.928 -2.4550  0.7366  0.1703
33414SOL     OW 9019   9.306   7.205   0.919  0.3915  0.3619  0.4891
33414SOL    HW1 9020   9.380   7.152   0.889  1.2455  1.1506  1.1281
33414SOL    HW2 9021   9.229   7.150   0.905  1.1035 -0.5081 -0.1232
33415SOL     OW 9022   4.749   2.975   6.053  0.0538  0.2079 -0.1059
33415SOL    HW1 9023   4.706   2.979   5.967  0.0373 -1.0851 -0.1739
33415SOL    HW2 9024   4.696   2.914   6.103 -0.0649  1.1205  0.9235
33416SOL     OW 9025  11.622   0.001   5.608  0.0795  0.0813 -0.1147
33416SOL    HW1 9026  11.677   0.072   5.641  0.6273  0.2240 -1.2836
33416SOL    HW2 9027  11.652  -0.013   5.519 -0.6379 -1.0167 -0.2014
33417SOL     OW 9028  10.386   7.586   6.547 -0.1530  0.3045 -0.4512
33417SOL    HW1 9029  10.427   7.501   6.534 -0.7920  0.0621 -0.9849
33417SOL    HW2 9030  10.399   7.632   6.464  0.6984  0.9590  0.0350
33418SOL     OW 9031   4.311  11.214   2.227  0.1788 -0.5957  0.0985
33418SOL    HW1 9032   4.381  11.208   2.291 -1.1136 -2.3269  1.4791
33418SOL    HW2 9033   4.238  11.254   2.274 -0.5545 -1.1941 -0.4874
33419SOL     OW 9034  12.165   5.952  10.698  0.0458 -0.1239 -0.3619
33419SOL    HW1 9035  12.162   5.867  10.742 -0.1876 -0.5933 -1.2520
33419SOL    HW2 9036  12.076   5.985  10.702  0.1739  0.1655  0.1406
33420SOL     OW 9037   3.978  12.425   8.908  0.4630 -0.4420  0.4298
33420SOL    HW1 9038   3.924  12.492   8.950 -0.7212 -0.5057 -0.9123
33420SOL    HW2 9039   4.058  12.471   8.883 -0.1715  0.3848 -0.1245
33421SOL     OW 9040  10.020   4.044   8.054  0.3878 -0.2967  0.0023
33421SOL    HW1 9041   9.958   4.010   7.989 -1.0523  0.4363  0.9472
33421SOL    HW2 9042  10.062   3.967   8.091  3.4115 -0.7340 -3.7178
33422SOL     OW 9043   7.117   3.955   9.597  0.7442  0.2313 -0.3729
33422SOL    HW1 9044   7.131   4.016   9.670  2.2040  0.1744 -0.5758
33422SOL    HW2 9045   7.103   4.011   9.521 -1.1244  0.2970 -0.0497
33423SOL     OW 9046  11.854   5.768   0.228 -0.2438 -0.1687 -0.3572
33423SOL    HW1 9047  11.876   5.858   0.254  0.4698 -0.6532  0.7532
33423SOL    HW2 9048  11.894   5.713   0.295 -0.1922 -1.3543 -1.3371
33424SOL     OW 9049   6.607   0.501  11.679 -0.2695 -0.1249 -0.3353
33424SOL    HW1 9050   6.532   0.557  11.660 -1.0560  0.0938  2.8241
33424SOL    HW2 9051   6.580   0.414  11.651 -1.6765 -0.0196  0.6308
33425SOL     OW 9052   6.082   3.254   3.179 -0.1954  0.1065 -0.5772
33425SOL    HW1 9053   6.111   3.339   3.147 -0.9987  0.9072  0.7062
33425SOL    HW2 9054   5.986   3.259   3.178 -0.3708  0.8639  3.3181
33426SOL     OW 9055   3.879   7.619   6.609  0.0995 -0.3157 -0.1470
33426SOL    HW1 9056   3.809   7.574   6.655  0.6428 -0.9464  0.0751
33426SOL    HW2 9057   3.959   7.581   6.644  0.6165  1.4394  0.7014
33427SOL     OW 9058   8.545   4.514   3.094 -0.9241  0.3417 -0.1155
33427SOL    HW1 9059   8.554   4.609   3.108  0.4443  0.1527  0.3951
33427SOL    HW2 9060   8.511   4.507   3.005  0.2679  1.2926 -0.6813
33428SOL     OW 9061   6.039  11.080   5.619  0.6764 -0.0608 -0.0380
33428SOL    HW1 9062   5.987  11.088   5.699  0.5554 -1.6524  0.0638
33428SOL    HW2 9063   5.974  11.081   5.548  0.7104  0.2959 -0.0708
33429SOL     OW 9064   4.927  10.899   1.786 -0.7255  0.4453 -0.2515
33429SOL    HW1 9065   4.965  10.863   1.706 -0.7421  0.7358 -0.3925
33429SOL    HW2 9066   4.998  10.898   1.850 -0.4672  0.9992 -0.5176
33430SOL     OW 9067   8.143   4.830  12.497  0.4574  0.5863  0.4024
33430SOL    HW1 9068   8.103   4.817  12.411 -1.5858  1.7772  1.1004
33430SOL    HW2 9069   8.227   4.873  12.478  1.3743 -1.6502 -1.0935
33431SOL     OW 9070  11.695   3.746  11.898  0.2195 -0.8041 -0.1203
33431SOL    HW1 9071  11.745   3.828  11.887 -0.7512 -0.3603 -1.4927
33431SOL    HW2 9072  11.755   3.678  11.869  0.2470 -0.3297 -1.2125
33432SOL     OW 9073  10.865   6.412   6.984  0.6226 -0.2184  0.1468
33432SOL    HW1 9074  10.800   6.452   7.043  0.2667  0.2209 -0.5334
33432SOL    HW2 9075  10.821   6.408   6.900  1.1639 -0.7673 -0.1113
33433SOL     OW 9076   1.350   8.746   1.311 -0.0322  1.1035 -0.2026
33433SOL    HW1 9077   1.355   8.656   1.344  1.3040  1.3678  0.4019
33433SOL    HW2 9078   1.372   8.738   1.218 -1.3248  0.6528 -0.4886
33434SOL     OW 9079   0.777   4.226   5.429  0.0145 -0.0542 -0.2179
33434SOL    HW1 9080   0.848   4.176   5.388  0.6232  0.3194  0.3593
33434SOL    HW2 9081   0.753   4.174   5.506 -0.1780 -0.0590 -0.2805
33435SOL     OW 9082   2.925  11.237   1.941 -0.5014 -0.7443 -0.4209
33435SOL    HW1 9083   2.940  11.287   2.021  1.4077  1.3129 -1.9236
33435SOL    HW2 9084   2.995  11.172   1.940 -1.1404 -1.4535  0.0437
33436SOL     OW 9085  10.701  10.073   2.204  0.1068 -0.1635  0.2747
33436SOL    HW1 9086  10.738  10.121   2.279  0.7436 -1.5834  0.8932
33436SOL    HW2 9087  10.630  10.022   2.242  0.9888 -1.5646  0.1042
33437SOL     OW 9088   1.369   4.276   6.359 -0.5313  0.3218 -0.8269
33437SOL    HW1 9089   1.342   4.354   6.309 -0.4732 -0.4807 -2.1378
33437SOL    HW2 9090   1.339   4.202   6.307 -1.7153 -0.5795  1.0118
33438SOL     OW 9091   8.382   3.329   7.678 -0.7818  0.0556 -0.0757
33438SOL    HW1 9092   8.322   3.264   7.716 -1.5473  0.7270 -0.1029
33438SOL    HW2 9093   8.439   3.354   7.750  1.7269 -2.9667 -0.7595
33439SOL     OW 9094   9.648   5.569   3.632 -1.1194 -0.3339 -0.0828
33439SOL    HW1 9095   9.565   5.610   3.657 -1.1530 -0.4136 -0.0641
33439SOL    HW2 9096   9.626   5.515   3.555 -0.7616  0.9232 -1.0968
33440SOL     OW 9097   9.097   1.832   5.677 -0.4027 -0.0427 -0.0578
33440SOL    HW1 9098   9.028   1.822   5.743  0.3803  0.8307  0.9334
33440SOL    HW2 9099   9.178   1.834   5.728  0.1803  1.3343 -0.9807
33441SOL     OW 9100  11.411   8.653   0.088  0.2906  1.0870 -0.0319
33441SOL    HW1 9101  11.407   8.613   0.175 -1.6176 -2.4752 -1.5656
33441SOL    HW2 9102  11.325   8.637   0.050  0.9421  2.8923 -2.4873
33442SOL     OW 9103   4.732   2.071   1.783 -1.0895  0.2199  0.2452
33442SOL    HW1 9104   4.800   2.051   1.847 -1.0727  1.4709  0.6459
33442SOL    HW2 9105   4.720   2.166   1.790 -1.3772  0.3260 -1.3130
33443SOL     OW 9106   9.233   3.164  12.009 -0.4300  0.1948  0.1527
33443SOL    HW1 9107   9.202   3.073  12.012  0.4894 -0.2176 -1.4237
33443SOL    HW2 9108   9.313   3.160  11.956  1.3985  1.4714  2.6121
33444SOL     OW 9109   9.824   1.697  12.125 -0.2314  0.2635  0.3348
33444SOL    HW1 9110   9.732   1.712  12.104  0.3162  0.2940 -2.3374
33444SOL    HW2 9111   9.853   1.630  12.063  1.8619  1.1987  0.2168
33445SOL     OW 9112   1.207  10.259   9.033  0.1406  0.0080 -0.0856
33445SOL    HW1 9113   1.161  10.288   8.954 -0.0919 -2.2330 -0.8376
33445SOL    HW2 9114   1.271  10.328   9.051 -0.6397  1.1345 -1.5159
33446SOL     OW 9115   4.807   3.191  12.245 -0.5814  0.4091 -0.0874
33446SOL    HW1 9116   4.727   3.234  12.215 -1.1793 -1.4760 -1.3167
33446SOL    HW2 9117   4.859   3.180  12.166  0.3941  0.5357  0.5209
33447SOL     OW 9118   5.622   9.233   0.074 -0.3726 -0.3131  0.2791
33447SOL    HW1 9119   5.629   9.327   0.054  0.6314 -0.1155  1.3955
33447SOL    HW2 9120   5.695   9.193   0.027 -1.1820 -0.6446 -0.7165
33448SOL     OW 9121   9.559   5.720   5.910  0.2890  0.5274 -0.1586
33448SOL    HW1 9122   9.599   5.634   5.902 -1.0656 -0.1777  0.3408
33448SOL    HW2 9123   9.589   5.768   5.832 -0.5992 -1.0913 -1.5502
33449SOL     OW 9124   4.138   5.699   4.967 -0.1809 -0.4469 -0.2377
33449SOL    HW1 9125   4.121   5.719   5.060  1.0320  0.8918 -0.2643
33449SOL    HW2 9126   4.152   5.605   4.965 -0.8822 -0.5993  0.8265
33450SOL     OW 9127   6.094   7.648   0.822  0.3933  0.0441 -0.1211
33450SOL    HW1 9128   6.163   7.715   0.826  0.3687  0.1110 -0.7656
33450SOL    HW2 9129   6.140   7.568   0.794  0.7447 -0.6639  2.2470
33451SOL     OW 9130  10.738   0.009   7.413 -0.0817  0.2886 -0.2783
33451SOL    HW1 9131  10.739  -0.057   7.343  1.9531  0.8719 -0.8727
33451SOL    HW2 9132  10.778   0.086   7.374 -1.2445  1.4942  0.8006
33452SOL     OW 9133   3.765   5.259   6.749  0.5492 -0.6208 -0.7510
33452SOL    HW1 9134   3.713   5.336   6.772  1.3825  0.4264 -2.2355
33452SOL    HW2 9135   3.749   5.246   6.656 -0.1174 -2.6977 -0.3856
33453SOL     OW 9136   0.638  10.852   6.806 -0.6952 -0.0882 -0.5300
33453SOL    HW1 9137   0.633  10.782   6.870  0.3501  0.6629  0.4298
33453SOL    HW2 9138   0.682  10.813   6.731  0.1130 -0.4243  0.0972
33454SOL     OW 9139  10.275   7.644   2.188  0.0641  0.0281 -0.7243
33454SOL    HW1 9140  10.242   7.733   2.189 -0.9987 -0.2911 -2.4527
33454SOL    HW2 9141  10.362   7.651   2.148  0.8014  0.4694  0.8568
33455SOL     OW 9142   1.318   0.785   1.491 -0.5629 -0.3086 -0.1827
33455SOL    HW1 9143   1.300   0.871   1.529  1.6576  1.0022 -1.8292
33455SOL    HW2 9144   1.342   0.731   1.566 -1.5255  0.6279  0.8376
33456SOL     OW 9145   9.998   5.625   8.893 -0.1006  0.0817  0.1442
33456SOL    HW1 9146  10.073   5.588   8.846 -1.0274 -0.7328 -0.7504
33456SOL    HW2 9147   9.947   5.669   8.826 -0.7785  0.0256  0.6096
33457SOL     OW 9148   5.135  11.276  12.166 -0.5090 -0.2440  0.4576
33457SOL    HW1 9149   5.043  11.277  12.193 -0.7882  0.0208 -0.4427
33457SOL    HW2 9150   5.142  11.202  12.106 -0.7574  1.1758 -1.4263
33458SOL     OW 9151  10.995   6.730  12.554 -0.3553 -0.3117 -0.0424
33458SOL    HW1 9152  11.050   6.652  12.549 -0.2807 -0.3878  1.5445
33458SOL    HW2 9153  11.048   6.799  12.514 -0.3293 -0.9945 -1.2493
33459SOL     OW 9154   0.637   7.148   0.462  0.0633 -0.2531 -0.2834
33459SOL    HW1 9155   0.677   7.227   0.425  0.8779 -0.1624  0.7367
33459SOL    HW2 9156   0.552   7.142   0.418  1.0525 -0.2990 -2.3016
33460SOL     OW 9157   6.936   5.676   6.901 -0.8624  0.1980 -0.0911
33460SOL    HW1 9158   6.863   5.690   6.841 -1.4457  1.3828  0.8535
33460SOL    HW2 9159   6.926   5.744   6.967  0.4384 -0.3491  0.7046
33461SOL     OW 9160   5.503   9.198   7.313 -0.0590  0.2920 -0.7024
33461SOL    HW1 9161   5.518   9.194   7.407  0.5866  0.1033 -0.8087
33461SOL    HW2 9162   5.589   9.184   7.274 -0.2697  0.6481 -1.3185
33462SOL     OW 9163   7.890   9.809   8.072 -0.0380  0.9144  0.3821
33462SOL    HW1 9164   7.818   9.810   8.009 -0.6139 -0.0331  0.9970
33462SOL    HW2 9165   7.879   9.890   8.122 -0.8317  0.6652  0.6252
33463SOL     OW 9166   6.967   9.651   0.326  0.3018 -0.4410 -0.4593
33463SOL    HW1 9167   7.059   9.637   0.306  0.8172 -0.5641  1.6758
33463SOL    HW2 9168   6.951   9.743   0.304  0.3361 -0.9237 -2.7328
33464SOL     OW 9169   7.998   3.302   2.061 -0.1411 -0.6497 -0.4186
33464SOL    HW1 9170   8.015   3.384   2.109  1.3459 -1.4828  0.5539
33464SOL    HW2 9171   7.972   3.331   1.973  0.9390  0.8722 -0.2819
33465SOL     OW 9172   2.289   0.337   8.827 -0.2503  0.0859  0.1903
33465SOL    HW1 9173   2.272   0.272   8.896 -1.5958  0.1144 -0.0900
33465SOL    HW2 9174   2.245   0.417   8.859 -0.3349  0.2772 -0.3977
33466SOL     OW 9175   6.614  12.438   2.140 -0.0379 -0.5956  0.1441
33466SOL    HW1 9176   6.559  12.486   2.078 -4.5912 -2.5223  2.1888
33466SOL    HW2 9177   6.670  12.383   2.085 -2.8516 -1.2332 -2.3784
33467SOL     OW 9178   5.724   4.268   2.378  0.0924  0.3695 -0.3143
33467SOL    HW1 9179   5.744   4.287   2.470 -0.5732 -0.6187  0.0592
33467SOL    HW2 9180   5.805   4.230   2.344  0.1856  0.2689  0.0101
33468SOL     OW 9181   5.779   8.186   5.064 -0.5275  0.2417  0.6341
33468SOL    HW1 9182   5.835   8.120   5.105  0.9030  0.3998 -0.9407
33468SOL    HW2 9183   5.712   8.136   5.018 -1.2627  0.0244  1.8876
33469SOL     OW 9184   1.320   8.733   9.036 -0.0038  0.0790 -0.0405
33469SOL    HW1 9185   1.365   8.810   9.072 -0.9552  0.5579  0.1692
33469SOL    HW2 9186   1.245   8.721   9.094 -2.1200  1.4162 -2.3000
33470SOL     OW 9187   3.689  12.013   8.697 -0.1373 -0.2861  0.0036
33470SOL    HW1 9188   3.681  12.095   8.745  1.5270 -0.1186  0.0549
33470SOL    HW2 9189   3.621  12.017   8.630 -0.1463  1.0768  0.0790
33471SOL     OW 9190   5.081   3.595   9.000  0.5917 -0.3207 -0.0204
33471SOL    HW1 9191   5.066   3.685   8.971  2.8174  0.0937 -0.0180
33471SOL    HW2 9192   5.020   3.583   9.073 -0.9163  0.5858 -1.0641
33472SOL     OW 9193  10.965   9.492   3.240 -0.3364 -0.3882 -0.3064
33472SOL    HW1 9194  11.031   9.429   3.213  0.1748  0.3416 -0.8023
33472SOL    HW2 9195  10.975   9.565   3.178 -0.8155  0.2399  0.3381
33473SOL     OW 9196   6.341   7.103   2.263 -0.3744 -0.0485  0.5672
33473SOL    HW1 9197   6.389   7.112   2.181 -0.4818  0.2090  0.5285
33473SOL    HW2 9198   6.278   7.176   2.261 -0.4560 -0.1116  0.8227
33474SOL     OW 9199   0.604   6.302   6.211 -0.3731  0.3665 -0.0007
33474SOL    HW1 9200   0.664   6.307   6.137 -0.0693  1.8732  0.3103
33474SOL    HW2 9201   0.551   6.382   6.205  0.6582  1.3141  2.2007
33475SOL     OW 9202   1.693   5.276  10.048 -0.0787  0.4597 -0.7132
33475SOL    HW1 9203   1.690   5.219  10.125  0.5421  0.7331 -0.4792
33475SOL    HW2 9204   1.609   5.261  10.004  0.2847 -1.0227 -0.9437
33476SOL     OW 9205   1.119  12.428  10.513  0.1655  0.6872 -0.1880
33476SOL    HW1 9206   1.058  12.391  10.449  0.6570 -0.2971 -0.1140
33476SOL    HW2 9207   1.203  12.430  10.467  0.7923 -1.1485  0.7475
33477SOL     OW 9208  12.312   1.719   4.317  0.0473  0.1138 -0.1095
33477SOL    HW1 9209  12.282   1.632   4.289 -1.0256  0.3099  0.3648
33477SOL    HW2 9210  12.260   1.780   4.264 -1.9301  0.4886  2.1338
33478SOL     OW 9211   1.877   8.620   5.277  0.0435  0.6235  0.2333
33478SOL    HW1 9212   1.906   8.637   5.187  0.3685  1.7532  0.5447
33478SOL    HW2 9213   1.790   8.657   5.282 -0.1405  0.1930  0.2738
33479SOL     OW 9214  11.774   1.621   2.117 -0.0338  0.2632 -0.3184
33479SOL    HW1 9215  11.857   1.597   2.158  0.2423  2.0341  0.2655
33479SOL    HW2 9216  11.761   1.557   2.048  2.5750  0.8007 -1.4037
33480SOL     OW 9217   7.149   0.853  11.763 -0.2916 -0.3947  0.1835
33480SOL    HW1 9218   7.081   0.818  11.820 -0.6904 -1.0139 -0.6536
33480SOL    HW2 9219   7.176   0.778  11.709  1.3192 -0.2542  0.7586
33481SOL     OW 9220  11.189   2.035   2.824  0.2777  0.1112 -0.0502
33481SOL    HW1 9221  11.217   2.056   2.735  2.0711 -0.6832  0.2796
33481SOL    HW2 9222  11.151   1.948   2.818  2.0471 -0.7282  0.2025
33482SOL     OW 9223   2.102   5.276   9.842 -0.1700 -0.7947  0.4393
33482SOL    HW1 9224   2.007   5.275   9.855 -0.2664  0.5491 -0.0595
33482SOL    HW2 9225   2.114   5.304   9.752  0.6759 -3.4482 -0.3795
33483SOL     OW 9226   9.522   6.780   8.810  0.6142  0.1496  0.0645
33483SOL    HW1 9227   9.478   6.831   8.743  2.0091  1.6080  0.1919
33483SOL    HW2 9228   9.456   6.767   8.878 -0.1148  0.7434 -0.5167
33484SOL     OW 9229   3.290   1.000   1.245 -0.2990  0.1050 -0.3615
33484SOL    HW1 9230   3.375   1.030   1.213 -1.2783  2.4134 -0.9609
33484SOL    HW2 9231   3.307   0.975   1.336  1.5387 -2.1622 -1.2116
33485SOL     OW 9232   6.583   6.794  11.207 -0.1587 -0.4122 -0.7928
33485SOL    HW1 9233   6.501   6.769  11.165 -1.4524  1.2957  0.5291
33485SOL    HW2 9234   6.572   6.768  11.299  0.7048 -0.0415 -0.5736
33486SOL     OW 9235   1.510   1.433  11.458  0.2131 -0.1383  0.5885
33486SOL    HW1 9236   1.432   1.414  11.406  0.2511  0.1752  0.4181
33486SOL    HW2 9237   1.543   1.515  11.423 -0.4293  0.6935  1.8765
33487SOL     OW 9238   7.265   9.243   1.291 -0.0128  0.0890  0.0615
33487SOL    HW1 9239   7.250   9.337   1.289 -0.5884  0.0499  1.4716
33487SOL    HW2 9240   7.358   9.234   1.312 -0.3472  0.3763  1.8217
33488SOL     OW 9241   8.436   4.638  12.393  0.0272  0.2581  0.5717
33488SOL    HW1 9242   8.446   4.723  12.435 -0.0153  0.1381  0.8222
33488SOL    HW2 9243   8.457   4.575  12.461 -0.0974  0.0625  0.4291
33489SOL     OW 9244   2.720   9.390  11.337 -0.3077 -0.5721  0.3496
33489SOL    HW1 9245   2.775   9.420  11.265 -0.4506  0.6223  0.7170
33489SOL    HW2 9246   2.781   9.354  11.401  0.0682  0.7327  0.7489
33490SOL     OW 9247   7.990  12.391   4.833  0.2448 -0.4190 -0.5085
33490SOL    HW1 9248   8.075  12.435   4.831 -0.2570  0.6614  0.4653
33490SOL    HW2 9249   7.944  12.424   4.756  0.9660 -1.6307 -1.5044
33491SOL     OW 9250  10.249   8.001   2.190  0.1730 -0.4372 -0.1193
33491SOL    HW1 9251  10.314   8.002   2.120 -0.7703 -0.5961 -1.0200
33491SOL    HW2 9252  10.176   7.949   2.155  0.3150 -1.8747  1.5652
33492SOL     OW 9253   9.405   8.790   2.856  0.3225 -0.5744 -0.1159
33492SOL    HW1 9254   9.349   8.785   2.778 -0.2574 -0.0942  0.2529
33492SOL    HW2 9255   9.484   8.742   2.833 -0.3194 -1.4164 -0.5920
33493SOL     OW 9256  11.557   2.978   1.410 -0.4301 -0.4828 -0.0963
33493SOL    HW1 9257  11.531   3.049   1.350 -1.6774 -0.5549  0.3161
33493SOL    HW2 9258  11.523   3.005   1.495  0.3214 -0.9261  0.3541
33494SOL     OW 9259   8.907   1.117   7.332 -0.2264 -0.5546  0.2071
33494SOL    HW1 9260   8.954   1.035   7.315  0.2049 -0.6148  1.6189
33494SOL    HW2 9261   8.973   1.185   7.323 -0.4092 -0.4215 -0.1603
33495SOL     OW 9262   8.118   2.669   1.638  0.0462 -1.1057  0.1642
33495SOL    HW1 9263   8.073   2.751   1.657 -0.6486 -0.6948 -2.8755
33495SOL    HW2 9264   8.205   2.679   1.677 -0.3978  0.5863  0.7885
33496SOL     OW 9265   7.616   5.128   9.213  0.0789  0.6104  0.5901
33496SOL    HW1 9266   7.700   5.146   9.171 -1.1964 -1.5194 -3.3282
33496SOL    HW2 9267   7.636   5.063   9.280  1.3774 -1.9879 -2.1060
33497SOL     OW 9268   4.794  11.897   9.082  0.1235 -0.0117  0.3442
33497SOL    HW1 9269   4.752  11.892   8.996 -0.2462 -0.5273  0.5485
33497SOL    HW2 9270   4.732  11.948   9.135  0.5638  0.6971  0.1880
33498SOL     OW 9271   1.434  10.696   3.333  0.1285 -0.0332  0.1023
33498SOL    HW1 9272   1.394  10.778   3.305 -0.6923 -0.5127 -0.1524
33498SOL    HW2 9273   1.387  10.628   3.285  0.2226 -0.7142  0.9497
33499SOL     OW 9274   6.201   5.550   3.475 -0.5393 -0.3884  0.0152
33499SOL    HW1 9275   6.254   5.477   3.509  0.7414  0.7118  0.4437
33499SOL    HW2 9276   6.219   5.552   3.381 -2.1533 -1.8547 -0.3879
33500SOL     OW 9277   1.596   9.166  10.340 -0.6196 -0.0752 -0.0218
33500SOL    HW1 9278   1.532   9.161  10.268 -1.7106 -1.1086  0.9582
33500SOL    HW2 9279   1.591   9.256  10.370 -2.7666 -0.4476  0.9674
33501SOL     OW 9280  10.057   7.030   6.678 -0.3878 -0.3760 -0.5593
33501SOL    HW1 9281  10.039   7.032   6.772 -0.4343  1.4063 -0.5660
33501SOL    HW2 9282  10.148   7.059   6.671 -0.4743 -0.2343 -1.0839
33502SOL     OW 9283   3.395  11.622   2.878  0.2120 -0.4798  0.2386
33502SOL    HW1 9284   3.352  11.689   2.824  1.2259 -0.2127 -0.2459
33502SOL    HW2 9285   3.365  11.641   2.967 -3.4976 -2.4209 -0.3696
33503SOL     OW 9286   3.871   7.642   7.189 -0.0847 -0.0307 -0.1618
33503SOL    HW1 9287   3.905   7.604   7.108 -1.2594  1.4352 -1.4040
33503SOL    HW2 9288   3.776   7.638   7.178 -0.3106 -0.8685  1.6909
33504SOL     OW 9289  12.188   4.097   3.004 -0.2519  0.5366  0.1936
33504SOL    HW1 9290  12.177   4.186   2.970 -0.3340  0.8197  0.9547
33504SOL    HW2 9291  12.101   4.058   2.999 -0.5811  1.0656  1.4159
33505SOL     OW 9292   8.802   5.458   8.135 -0.2179  0.5954 -0.4487
33505SOL    HW1 9293   8.784   5.552   8.142  3.5028  1.3922  0.2576
33505SOL    HW2 9294   8.847   5.448   8.052 -0.8268 -0.6595 -0.6514
33506SOL     OW 9295   8.259   4.408   0.142  0.1927  0.6802  0.0776
33506SOL    HW1 9296   8.309   4.377   0.217 -0.3271  2.4337  1.2296
33506SOL    HW2 9297   8.167   4.396   0.167 -0.0282 -1.3475 -1.4925
33507SOL     OW 9298   9.757  12.430   1.201 -0.8501 -0.3520 -0.0135
33507SOL    HW1 9299   9.832  12.483   1.228 -1.2713 -0.8609  2.3449
33507SOL    HW2 9300   9.786  12.340   1.212 -0.7846 -0.6506 -2.1834
33508SOL     OW 9301  12.326   9.244   0.261 -0.5507 -0.1309  0.5793
33508SOL    HW1 9302  12.316   9.331   0.223  0.5834 -0.2543 -0.0312
33508SOL    HW2 9303  12.378   9.195   0.197 -0.3220 -0.9612  1.3728
33509SOL     OW 9304   0.421   6.847   3.058  0.2720  0.2549  0.2379
33509SOL    HW1 9305   0.354   6.888   3.112 -1.8099 -2.1016 -0.3357
33509SOL    HW2 9306   0.402   6.753   3.064  2.3825 -0.3727 -1.4784
33510SOL     OW 9307   2.644   1.286  10.590 -0.2697  0.0741  0.8469
33510SOL    HW1 9308   2.717   1.331  10.548 -0.4170 -0.2098  0.2835
33510SOL    HW2 9309   2.587   1.357  10.621 -0.2335  0.2825  0.4420
33511SOL     OW 9310   0.774   3.396   9.105  0.1044  0.0394 -0.6572
33511SOL    HW1 9311   0.856   3.350   9.086 -1.1142 -1.9059 -1.4765
33511SOL    HW2 9312   0.750   3.438   9.022  0.0335  0.1955 -0.5579
33512SOL     OW 9313   2.460   3.784   9.853  0.0850  0.4190 -0.1953
33512SOL    HW1 9314   2.461   3.770   9.759  2.6249 -0.7912 -0.0669
33512SOL    HW2 9315   2.382   3.838   9.869 -0.2362  0.9015 -2.9890
33513SOL     OW 9316   7.974   1.370  11.778 -0.4081  0.0899 -0.7880
33513SOL    HW1 9317   7.947   1.339  11.692 -1.2261 -0.8314 -0.2234
33513SOL    HW2 9318   8.062   1.334  11.790 -0.8943 -1.1067 -0.6183
33514SOL     OW 9319  11.490   6.675  10.967  0.6429  0.1130  0.3260
33514SOL    HW1 9320  11.517   6.697  10.878  0.1867 -0.9462 -0.0810
33514SOL    HW2 9321  11.397   6.653  10.960 -0.1722  2.7242  1.5424
33515SOL     OW 9322   3.283   2.533   6.482 -0.2120  0.7045  0.4722
33515SOL    HW1 9323   3.195   2.514   6.515 -0.5116  2.1763  0.5856
33515SOL    HW2 9324   3.339   2.468   6.523 -1.1031  0.3701  1.1779
33516SOL     OW 9325  11.382   7.810  11.215  0.2517  0.2802 -0.5654
33516SOL    HW1 9326  11.432   7.841  11.140  2.2038  0.2943  0.6664
33516SOL    HW2 9327  11.444   7.759  11.267 -0.6384  1.3057  1.6678
33517SOL     OW 9328  11.935   6.134   3.907  0.2937  0.0229 -0.0990
33517SOL    HW1 9329  11.985   6.184   3.972 -0.5497 -0.7629  1.2058
33517SOL    HW2 9330  11.912   6.197   3.840  2.1104  0.6332 -0.2022
33518SOL     OW 9331   9.348  11.314   3.759  0.0002  0.2115  0.2573
33518SOL    HW1 9332   9.380  11.405   3.760 -0.6023  0.4416 -0.3680
33518SOL    HW2 9333   9.420  11.263   3.797  0.7160  0.8373 -0.2170
33519SOL     OW 9334  11.403   7.618   8.827 -0.2077  0.6394  0.4674
33519SOL    HW1 9335  11.471   7.557   8.853 -2.4252 -1.5205  1.6325
33519SOL    HW2 9336  11.392   7.677   8.902 -0.2993  0.3495  0.6824
33520SOL     OW 9337  10.021   4.750   7.375 -0.7645 -0.2679 -0.1502
33520SOL    HW1 9338   9.961   4.729   7.447  0.3291 -1.5654  0.4364
33520SOL    HW2 9339  10.102   4.775   7.418 -0.2255 -0.6297 -0.9212
33521SOL     OW 9340   5.310   8.084   3.141  0.0004  0.7319  0.3533
33521SOL    HW1 9341   5.275   8.032   3.068  3.3061  1.7587 -2.2063
33521SOL    HW2 9342   5.245   8.153   3.154 -2.5473 -1.6463  1.1491
33522SOL     OW 9343   2.462   7.698   7.938  0.1134  0.2448  0.0510
33522SOL    HW1 9344   2.379   7.718   7.981  0.2666  0.2107  0.3658
33522SOL    HW2 9345   2.485   7.611   7.971 -1.1766 -1.0663 -2.2493
33523SOL     OW 9346  12.009   2.969   2.964 -0.3801  0.0748 -0.5118
33523SOL    HW1 9347  12.010   3.063   2.981  0.0910 -0.1460  0.8309
33523SOL    HW2 9348  11.959   2.932   3.037  1.7769 -0.9506  0.5281
33524SOL     OW 9349   4.733  11.486   4.356 -0.1365 -0.5711 -0.1971
33524SOL    HW1 9350   4.733  11.495   4.451 -1.2756  1.7307 -0.3375
33524SOL    HW2 9351   4.820  11.517   4.329 -0.1126 -0.4128  0.0580
33525SOL     OW 9352   4.693  11.836   1.632  0.4243 -0.4147  0.6907
33525SOL    HW1 9353   4.763  11.775   1.611 -0.5605 -1.5430  0.5799
33525SOL    HW2 9354   4.668  11.816   1.722  0.0841 -0.1979  0.6492
33526SOL     OW 9355   1.211   2.600   9.594 -0.4691  0.2260 -0.5489
33526SOL    HW1 9356   1.269   2.597   9.518 -0.3680  1.5155 -0.5356
33526SOL    HW2 9357   1.270   2.613   9.669 -0.4556 -2.1420 -0.0763
33527SOL     OW 9358   8.546   4.052   2.817 -0.1208 -0.2694 -0.2477
33527SOL    HW1 9359   8.524   4.026   2.727  0.7328 -0.7549 -0.3245
33527SOL    HW2 9360   8.594   4.134   2.807  0.4478 -0.6056 -0.2725
33528SOL     OW 9361   9.434  11.531   0.303 -0.0373  0.7042 -0.1415
33528SOL    HW1 9362   9.341  11.513   0.315 -0.4741  1.4983 -1.8873
33528SOL    HW2 9363   9.463  11.571   0.385 -0.9377 -0.6164  0.8444
33529SOL     OW 9364   8.398   8.842   7.938 -0.1330  0.3797  0.1335
33529SOL    HW1 9365   8.312   8.854   7.899 -0.0046 -1.2750 -0.7286
33529SOL    HW2 9366   8.449   8.917   7.908 -1.0317  0.9422 -0.0055
33530SOL     OW 9367   4.467   8.820   7.295 -0.3543 -0.2164 -0.4095
33530SOL    HW1 9368   4.418   8.757   7.348  0.5255 -0.6394 -0.0768
33530SOL    HW2 9369   4.402   8.856   7.234 -0.8619 -1.5023 -0.6605
33531SOL     OW 9370   6.976   7.675   7.466  0.0890  0.6734 -0.1000
33531SOL    HW1 9371   6.937   7.746   7.415 -0.9528 -0.2733 -0.6828
33531SOL    HW2 9372   6.957   7.697   7.557  0.0313  1.2848 -0.2593
33532SOL     OW 9373   2.252   7.970   8.055  0.2425  0.1088  0.2320
33532SOL    HW1 9374   2.185   7.908   8.081  1.1165 -0.8099  0.3598
33532SOL    HW2 9375   2.322   7.959   8.120  1.2165 -0.1376 -0.8183
33533SOL     OW 9376  10.243   3.543  10.317  0.1725  0.0644  0.5580
33533SOL    HW1 9377  10.166   3.524  10.370 -0.5805 -1.2557 -0.9092
33533SOL    HW2 9378  10.250   3.468  10.257 -0.3399  2.3640 -2.6563
33534SOL     OW 9379   7.415   9.105   6.597  0.1297  0.1884 -0.1573
33534SOL    HW1 9380   7.360   9.180   6.621  0.4933  0.7329 -0.9550
33534SOL    HW2 9381   7.458   9.133   6.516  0.4955 -0.7800 -0.3034
33535SOL     OW 9382   8.989  11.156   2.859  0.6639  0.1400  0.2047
33535SOL    HW1 9383   8.917  11.220   2.862  0.9788  0.5253 -0.2956
33535SOL    HW2 9384   9.056  11.198   2.804  0.9248 -0.5732 -0.0319
33536SOL     OW 9385   0.862   8.041   5.702  0.4302 -0.1777 -0.3354
33536SOL    HW1 9386   0.829   8.035   5.791  1.1957  1.5676  0.1093
33536SOL    HW2 9387   0.787   8.072   5.651  0.2558 -0.2471 -0.1242
33537SOL     OW 9388  10.550   3.284  12.372  0.5348 -0.2202  0.7510
33537SOL    HW1 9389  10.556   3.376  12.347  0.8663 -0.2016  0.8928
33537SOL    HW2 9390  10.623   3.271  12.433  2.2154 -1.2449 -1.3169
33538SOL     OW 9391   2.223   4.011  10.647  0.1816 -0.6327 -0.6605
33538SOL    HW1 9392   2.294   4.036  10.588 -1.1356 -0.8364 -2.4233
33538SOL    HW2 9393   2.164   3.958  10.592 -1.7581  0.2552  0.4643
33539SOL     OW 9394   6.725   9.584   5.026 -0.7124 -0.7464 -0.3523
33539SOL    HW1 9395   6.721   9.650   4.956  1.1221  0.1154  0.2928
33539SOL    HW2 9396   6.782   9.516   4.991 -1.1660 -1.1405 -0.3320
33540SOL     OW 9397   3.544   4.063  10.099  0.4459 -0.1958  0.2313
33540SOL    HW1 9398   3.512   4.136  10.046  0.9005 -1.1051 -1.3777
33540SOL    HW2 9399   3.606   4.103  10.160  2.0191  0.6290 -1.7537
33541SOL     OW 9400   0.236   6.421   6.243  0.1371  0.1740 -0.7288
33541SOL    HW1 9401   0.235   6.361   6.168 -0.1207  0.4531 -0.9503
33541SOL    HW2 9402   0.151   6.465   6.240 -1.0004 -1.6740  1.2466
33542SOL     OW 9403   7.116  11.119   8.099  0.3377 -0.2518  0.5427
33542SOL    HW1 9404   7.190  11.128   8.039 -0.5629 -0.2343 -0.6147
33542SOL    HW2 9405   7.152  11.141   8.185  2.0672 -1.9122  0.3172
33543SOL     OW 9406   9.103   9.410  12.531  0.2084 -0.5931 -0.5580
33543SOL    HW1 9407   9.185   9.364  12.550  0.2506 -0.1378  0.4442
33543SOL    HW2 9408   9.129   9.502  12.521  0.0048 -0.6434 -1.6503
33544SOL     OW 9409   0.099   1.463   9.965  0.1525 -0.6322  0.0216
33544SOL    HW1 9410   0.164   1.521   9.926  1.0914 -0.7154  1.3806
33544SOL    HW2 9411   0.033   1.522  10.002 -1.2874 -0.5668 -2.4530
33545SOL     OW 9412   3.843   7.323   3.725  0.0701 -0.0012  0.7186
33545SOL    HW1 9413   3.930   7.309   3.762 -0.0800  0.1099  1.1245
33545SOL    HW2 9414   3.787   7.259   3.770 -0.0108 -0.2444  0.2760
33546SOL     OW 9415   0.637   1.338   5.520  0.7158  0.0749 -0.1326
33546SOL    HW1 9416   0.685   1.281   5.580 -0.3896 -1.1117 -0.3320
33546SOL    HW2 9417   0.641   1.425   5.561  1.5751 -0.3313  0.6819
33547SOL     OW 9418   4.698  10.405   3.562 -0.6713  0.3526 -0.8317
33547SOL    HW1 9419   4.694  10.448   3.648  1.4935 -0.0266 -0.4769
33547SOL    HW2 9420   4.624  10.441   3.514 -1.8225  0.7535  1.0992
33548SOL     OW 9421   8.631   4.402   4.772 -0.1212 -0.6682 -0.8959
33548SOL    HW1 9422   8.699   4.455   4.730 -0.1321  0.2198  0.1968
33548SOL    HW2 9423   8.611   4.447   4.853  0.0357 -2.4631  0.1949
33549SOL     OW 9424   8.745   6.381   2.034  0.0332 -0.5179 -0.2534
33549SOL    HW1 9425   8.657   6.400   2.065  0.0536 -1.1226  0.1853
33549SOL    HW2 9426   8.782   6.323   2.100  0.7605 -0.2742 -0.4353
33550SOL     OW 9427   1.923   9.135   4.719 -0.2800  0.1768 -0.0155
33550SOL    HW1 9428   2.005   9.171   4.753  0.5608  0.1666 -1.9442
33550SOL    HW2 9429   1.938   9.041   4.715 -0.1296  0.2399 -1.0191
33551SOL     OW 9430   8.531  12.472  11.051  0.0669  0.4645 -0.4582
33551SOL    HW1 9431   8.528  12.395  11.107 -0.4518  1.1715  0.5285
33551SOL    HW2 9432   8.624  12.485  11.034  0.3314  0.7480  1.0161
33552SOL     OW 9433   7.283   6.478   8.350  0.1297 -0.2532 -0.0302
33552SOL    HW1 9434   7.226   6.555   8.353  0.8184  0.2809  3.0876
33552SOL    HW2 9435   7.234   6.411   8.397  0.2134 -1.2404 -1.3224
33553SOL     OW 9436   4.718  11.625  11.887  0.0574  0.1566 -0.2903
33553SOL    HW1 9437   4.682  11.561  11.949  0.5380 -0.9015 -1.0770
33553SOL    HW2 9438   4.644  11.646  11.829  0.0674 -0.1720 -0.4234
33554SOL     OW 9439   8.520   1.006   0.723 -0.0135  0.7994  0.7819
33554SOL    HW1 9440   8.517   0.919   0.684 -0.6320  0.4169  1.6428
33554SOL    HW2 9441   8.611   1.019   0.748  1.0342  2.1280 -3.0418
33555SOL     OW 9442   8.080   7.059   2.713 -0.3411 -0.9294  0.2620
33555SOL    HW1 9443   8.108   7.012   2.634 -0.5185  0.6809 -0.8144
33555SOL    HW2 9444   8.013   7.120   2.682  0.7559  0.9175  1.3011
33556SOL     OW 9445   2.240   8.552   5.392 -0.4559  0.4725 -0.5268
33556SOL    HW1 9446   2.276   8.568   5.305 -1.1125  0.0069 -0.8931
33556SOL    HW2 9447   2.145   8.546   5.378 -0.4676 -0.9714 -0.0063
33557SOL     OW 9448   4.564   9.684   2.559 -0.0303 -0.2982  0.0255
33557SOL    HW1 9449   4.607   9.714   2.639 -0.1501  0.5859 -0.2229
33557SOL    HW2 9450   4.601   9.598   2.541  0.4247 -0.2481  0.7096
33558SOL     OW 9451   9.533   6.896   7.363  0.1996 -0.5192  0.5422
33558SOL    HW1 9452   9.493   6.933   7.442  0.8353  0.3755  0.4573
33558SOL    HW2 9453   9.468   6.907   7.295  0.5011  0.7708  0.4420
33559SOL     OW 9454  11.424   3.662  11.871  0.1628  0.1597 -0.1274
33559SOL    HW1 9455  11.520   3.670  11.865  0.0986  3.2978  1.0896
33559SOL    HW2 9456  11.391   3.722  11.804 -1.0403 -1.5904 -1.1792
33560SOL     OW 9457   1.480   2.181   6.241 -0.1555 -0.4146 -0.2102
33560SOL    HW1 9458   1.427   2.167   6.319  0.8921 -0.3138  0.5267
33560SOL    HW2 9459   1.480   2.095   6.197 -0.5776 -0.5253 -0.0008
33561SOL     OW 9460   7.797   8.925   0.790  0.3074 -0.1452 -0.2806
33561SOL    HW1 9461   7.714   8.963   0.763 -1.7385 -3.0947  1.3605
33561SOL    HW2 9462   7.805   8.945   0.883  1.5908  0.2726 -0.4539
33562SOL     OW 9463  12.126   0.508   4.995 -0.0859 -0.1707 -0.3648
33562SOL    HW1 9464  12.113   0.595   5.034 -1.5264 -0.2881 -0.5326
33562SOL    HW2 9465  12.110   0.447   5.067  0.7310 -0.3145 -0.2956
33563SOL     OW 9466   6.456  11.595   7.175  0.0895  0.4456 -0.1185
33563SOL    HW1 9467   6.501  11.667   7.219 -0.7922  0.4356  0.8371
33563SOL    HW2 9468   6.513  11.519   7.187 -0.3252  0.3502  1.3895
33564SOL     OW 9469   9.561   1.418   5.836 -0.7400  0.2900  0.1117
33564SOL    HW1 9470   9.654   1.430   5.859 -0.4363 -0.3273 -0.7331
33564SOL    HW2 9471   9.563   1.391   5.744 -1.7960  0.7956 -0.0711
33565SOL     OW 9472   8.842   6.411   9.853 -0.3857  0.5653  0.0726
33565SOL    HW1 9473   8.803   6.494   9.879  0.6664  1.4745 -1.1385
33565SOL    HW2 9474   8.936   6.423   9.865 -0.0761  0.1664 -1.6233
33566SOL     OW 9475   2.736   0.225   7.165 -0.2893 -0.1648 -0.2413
33566SOL    HW1 9476   2.764   0.197   7.253 -1.7310 -0.4988  0.1422
33566SOL    HW2 9477   2.795   0.179   7.106  0.3809 -0.3347  0.5392
33567SOL     OW 9478   7.853   9.391  10.854  0.0628 -0.0313 -0.1022
33567SOL    HW1 9479   7.873   9.373  10.946  2.2387 -0.9688 -0.7012
33567SOL    HW2 9480   7.831   9.306  10.817  1.0596  0.0117 -0.8421
33568SOL     OW 9481   3.617   4.779  12.063  0.2726  0.0026  0.3455
33568SOL    HW1 9482   3.683   4.775  11.993  0.9831  1.3153  0.9005
33568SOL    HW2 9483   3.660   4.737  12.138 -0.0577 -0.3960  0.3114
33569SOL     OW 9484   2.454   9.313   1.083 -0.2343 -0.5432 -0.6122
33569SOL    HW1 9485   2.361   9.323   1.105  0.2738  1.4320  0.9077
33569SOL    HW2 9486   2.459   9.329   0.989 -1.2832  0.5410 -0.4955
33570SOL     OW 9487  10.767   7.361   8.957 -0.2931  0.0724 -0.2250
33570SOL    HW1 9488  10.761   7.422   8.884 -0.8571  0.0816 -0.1798
33570SOL    HW2 9489  10.782   7.276   8.915 -0.5869  0.0817 -0.3527
33571SOL     OW 9490   9.390   6.013   5.684 -0.0117  0.5705  0.0386
33571SOL    HW1 9491   9.483   6.029   5.670 -0.0138  0.0355 -0.6525
33571SOL    HW2 9492   9.350   6.100   5.683  0.5064  0.8244  0.5972
33572SOL     OW 9493   5.558   9.961  12.019 -0.4553 -0.4251  0.0280
33572SOL    HW1 9494   5.565   9.878  12.067 -0.3213 -0.5407 -0.1895
33572SOL    HW2 9495   5.622   9.953  11.948  1.6411  0.9754  1.6204
33573SOL     OW 9496  11.422  10.998   6.367 -0.5106  0.3930 -0.0237
33573SOL    HW1 9497  11.351  11.003   6.302 -0.1014 -1.3407 -0.6578
33573SOL    HW2 9498  11.498  11.036   6.323 -0.0367 -1.4743 -0.8993
33574SOL     OW 9499   2.763   9.627   7.745  0.4512  0.1442  0.1517
33574SOL    HW1 9500   2.784   9.546   7.791 -0.6391 -1.1618 -1.5473
33574SOL    HW2 9501   2.667   9.631   7.746  0.4897  1.4430  0.2423
33575SOL     OW 9502   9.512   7.310  10.075  0.5883  0.0891  0.4689
33575SOL    HW1 9503   9.467   7.294   9.992  0.9437 -1.3371  0.5212
33575SOL    HW2 9504   9.576   7.239  10.082 -0.2016 -0.4943  2.4963
33576SOL     OW 9505   4.028   6.788   9.896 -0.3269 -0.5636  0.2955
33576SOL    HW1 9506   3.996   6.870   9.934 -1.7036 -0.6011 -0.7198
33576SOL    HW2 9507   3.973   6.720   9.935 -0.7392 -0.7563 -0.6021
33577SOL     OW 9508   1.484   7.190   5.817 -0.2752  0.4644 -0.0726
33577SOL    HW1 9509   1.403   7.163   5.775 -0.3392 -0.3029  0.5122
33577SOL    HW2 9510   1.553   7.166   5.756 -0.4512  0.5634 -0.3094
33578SOL     OW 9511   9.141   4.370  11.442  0.7216  0.4324  0.0102
33578SOL    HW1 9512   9.104   4.456  11.461  0.0414 -0.1474  1.4583
33578SOL    HW2 9513   9.153   4.369  11.347 -1.0941  1.3981 -0.2680
33579SOL     OW 9514   6.520   1.944  10.107  0.1060  0.3086  0.2546
33579SOL    HW1 9515   6.480   1.857  10.117 -1.5669  0.7938 -1.6212
33579SOL    HW2 9516   6.526   1.978  10.196 -3.1386 -0.0877  0.7306
33580SOL     OW 9517   5.936   6.299   4.783  0.6472  0.1269  0.1419
33580SOL    HW1 9518   5.966   6.316   4.872 -0.4191 -0.4095  0.6277
33580SOL    HW2 9519   5.923   6.386   4.745  3.0867  0.3952 -0.2345
33581SOL     OW 9520   9.632   4.604  11.195 -0.4842 -0.0067  0.3020
33581SOL    HW1 9521   9.631   4.509  11.180  1.1028 -0.1203  0.7695
33581SOL    HW2 9522   9.550   4.635  11.155 -0.6033 -1.4430 -0.6497
33582SOL     OW 9523   4.342   6.084   4.833  0.0382 -0.1825  0.8047
33582SOL    HW1 9524   4.285   6.007   4.835  0.6950 -0.7749 -1.0439
33582SOL    HW2 9525   4.291   6.150   4.787  1.4730 -1.4419 -3.0725
33583SOL     OW 9526   4.964   3.818   1.174  0.0542 -0.0320 -0.3945
33583SOL    HW1 9527   4.901   3.787   1.108  1.6005 -1.1595 -1.4018
33583SOL    HW2 9528   5.048   3.782   1.145  0.9895  0.5441  1.5017
33584SOL     OW 9529   8.546   0.162  11.153  0.2065 -0.0705  0.3390
33584SOL    HW1 9530   8.640   0.153  11.137 -0.0091 -0.3937 -0.8341
33584SOL    HW2 9531   8.506   0.089  11.105 -0.7199  0.7149 -0.1326
33585SOL     OW 9532   2.935   9.518  12.428  0.0780  0.2719 -0.3162
33585SOL    HW1 9533   2.842   9.538  12.417 -0.4082 -2.1091 -1.0550
33585SOL    HW2 9534   2.935   9.439  12.483  1.6860  0.4516 -0.0332
33586SOL     OW 9535   0.432   6.276   8.383 -0.1217  0.1598  0.5484
33586SOL    HW1 9536   0.419   6.256   8.290  0.4582  0.1914  0.4606
33586SOL    HW2 9537   0.350   6.318   8.409 -0.9033 -1.2664  0.4571
33587SOL     OW 9538   0.634   8.088   7.056  0.3128 -0.7166 -0.7978
33587SOL    HW1 9539   0.628   8.116   7.148  1.2939 -1.9654 -0.3312
33587SOL    HW2 9540   0.683   8.159   7.013  2.3731 -1.4176  0.2724
33588SOL     OW 9541   0.293   1.078   8.637 -0.1155 -0.5176  0.1687
33588SOL    HW1 9542   0.366   1.079   8.575  1.2619 -1.2304  1.6962
33588SOL    HW2 9543   0.215   1.087   8.583  0.9556 -2.1723 -1.7862
33589SOL     OW 9544   1.988   3.569  12.564 -0.2224  0.4895 -0.0541
33589SOL    HW1 9545   1.894   3.584  12.575 -0.5258 -0.3423 -1.3195
33589SOL    HW2 9546   2.027   3.656  12.572 -0.8343  0.6227  2.5462
33590SOL     OW 9547  11.327   3.678  11.408 -0.3725 -0.1816 -0.3553
33590SOL    HW1 9548  11.367   3.759  11.374 -0.1650 -0.5995 -1.1302
33590SOL    HW2 9549  11.399   3.632  11.451 -0.5046  0.0691  0.1403
33591SOL     OW 9550  10.731   9.710   3.483 -0.4127  0.4673 -0.6305
33591SOL    HW1 9551  10.727   9.755   3.567 -0.5284  0.8513 -0.8386
33591SOL    HW2 9552  10.824   9.687   3.472 -0.6137 -0.8455  0.2516
33592SOL     OW 9553   2.309   0.904   8.727 -0.6125  0.0935  0.0537
33592SOL    HW1 9554   2.370   0.833   8.744 -0.6641  0.1383  0.4361
33592SOL    HW2 9555   2.344   0.948   8.649  0.2627  0.5755  0.6989
33593SOL     OW 9556   2.041   4.553   6.390 -0.1468 -0.4002 -0.0360
33593SOL    HW1 9557   1.965   4.553   6.332  0.0085  1.7080 -0.3328
33593SOL    HW2 9558   2.056   4.461   6.410 -3.6941 -0.8615  1.2950
33594SOL     OW 9559   9.306   8.791   6.874  0.2501  0.5794  0.2818
33594SOL    HW1 9560   9.287   8.771   6.783  2.9516 -1.0802 -0.0066
33594SOL    HW2 9561   9.243   8.861   6.897 -1.1496  0.3549 -2.4858
33595SOL     OW 9562   2.886   2.923   9.780  0.3023 -0.1171 -0.1592
33595SOL    HW1 9563   2.901   2.923   9.875 -0.5488  2.3128  0.0492
33595SOL    HW2 9564   2.834   2.844   9.764 -2.4107  1.0478  1.9968
33596SOL     OW 9565   1.127   9.127   8.574 -0.2875  0.0959 -0.1245
33596SOL    HW1 9566   1.198   9.094   8.519 -1.0581 -1.1933 -0.3784
33596SOL    HW2 9567   1.117   9.219   8.547  2.1561  0.7480  0.8844
33597SOL     OW 9568   7.201   5.492   2.462  0.3880  0.0546 -0.3015
33597SOL    HW1 9569   7.200   5.554   2.535  2.4630 -1.6557  1.3016
33597SOL    HW2 9570   7.247   5.538   2.392  2.8713  0.0423  1.2226
33598SOL     OW 9571   9.704   3.297  10.841  0.0507  0.0795 -0.0581
33598SOL    HW1 9572   9.624   3.342  10.868  1.7474  1.7766  2.6765
33598SOL    HW2 9573   9.729   3.340  10.759 -1.0045  0.5921 -0.1359
33599SOL     OW 9574   9.168   3.200  11.650 -0.6900 -0.2417 -0.1232
33599SOL    HW1 9575   9.190   3.121  11.600  0.7387 -0.5083  0.8875
33599SOL    HW2 9576   9.102   3.171  11.713 -1.1148 -0.3145 -0.5864
33600SOL     OW 9577   6.953   8.317   3.470  0.0951 -0.0406 -0.1750
33600SOL    HW1 9578   6.962   8.391   3.409 -0.5921 -0.5137 -0.8750
33600SOL    HW2 9579   7.016   8.336   3.540 -1.0282  1.9040  0.3812
33601SOL     OW 9580   0.892   6.156   0.926 -0.1470 -0.0064 -0.0832
33601SOL    HW1 9581   0.954   6.126   0.994 -2.0601 -0.9443  1.3289
33601SOL    HW2 9582   0.845   6.077   0.900 -1.9885  0.9650  0.2036
33602SOL     OW 9583  12.079   0.800   7.982 -0.1423 -0.6395 -0.0935
33602SOL    HW1 9584  12.135   0.791   7.904 -1.4296 -0.6029 -1.0666
33602SOL    HW2 9585  12.127   0.754   8.051  0.4650 -1.7974 -1.2192
33603SOL     OW 9586   2.138   1.816   2.530 -0.6130 -0.7148 -0.7947
33603SOL    HW1 9587   2.076   1.778   2.469 -0.4582 -1.4329 -0.5091
33603SOL    HW2 9588   2.127   1.911   2.520 -0.7269 -0.8262 -1.7895
33604SOL     OW 9589   7.988  11.950   6.698  0.2397  0.0050 -0.2454
33604SOL    HW1 9590   7.961  11.984   6.612  3.5257  0.1163 -1.3760
33604SOL    HW2 9591   8.039  11.872   6.678  0.6976 -0.2307  1.6488
33605SOL     OW 9592   0.519   9.293  10.026 -0.1600  0.2866 -0.4280
33605SOL    HW1 9593   0.567   9.374  10.009 -0.0673 -0.0637 -1.9950
33605SOL    HW2 9594   0.435   9.305   9.982 -0.4985 -0.1270  0.0856
33606SOL     OW 9595   6.652   4.098   8.660 -0.0659 -0.3990 -0.6228
33606SOL    HW1 9596   6.726   4.050   8.623  0.4299 -0.7882  0.7868
33606SOL    HW2 9597   6.692   4.176   8.699 -0.1953 -1.1305  1.0908
33607SOL     OW 9598   7.053   9.317   9.182  0.6080 -0.5369 -0.7910
33607SOL    HW1 9599   6.977   9.328   9.125 -0.0906 -1.4354 -0.0648
33607SOL    HW2 9600   7.087   9.405   9.194  0.0694 -0.1995 -1.6426
33608SOL     OW 9601   4.299   6.373   4.188  0.0591  0.4289  0.2022
33608SOL    HW1 9602   4.294   6.469   4.185 -0.1330  0.4834  1.6100
33608SOL    HW2 9603   4.261   6.350   4.272  0.7260 -0.8499  0.1730
33609SOL     OW 9604   9.049   7.508   3.054  0.0794 -0.2165 -0.1499
33609SOL    HW1 9605   9.015   7.530   3.141  1.1312 -0.0494  0.2315
33609SOL    HW2 9606   9.058   7.412   3.055  0.9009 -0.1452  0.2476
33610SOL     OW 9607  12.528   9.714  11.816  0.9950  0.4589  0.0617
33610SOL    HW1 9608  12.557   9.776  11.883  0.5131  0.7882 -0.0299
33610SOL    HW2 9609  12.448   9.753  11.781  1.2607  0.3140 -0.7363
33611SOL     OW 9610  12.160   8.606   1.339  0.2155  0.4006  0.1370
33611SOL    HW1 9611  12.073   8.616   1.377  0.4104  0.3402  0.6103
33611SOL    HW2 9612  12.179   8.512   1.346 -0.9228 -0.1284 -2.7609
33612SOL     OW 9613   7.834   2.732   1.506 -0.0805  0.1542  0.0415
33612SOL    HW1 9614   7.892   2.681   1.451 -0.7569 -0.1192 -0.4381
33612SOL    HW2 9615   7.772   2.669   1.542 -1.3462  0.7005 -1.1006
33613SOL     OW 9616   0.509   3.446   4.389  0.5930 -0.4016  0.1767
33613SOL    HW1 9617   0.454   3.490   4.325  1.0504 -1.3989 -0.9358
33613SOL    HW2 9618   0.449   3.385   4.433  0.3716 -0.0248  0.4021
33614SOL     OW 9619  12.582   2.681   1.321  0.3531  0.5531  0.2990
33614SOL    HW1 9620  12.643   2.612   1.295  1.9540  1.0638  2.4225
33614SOL    HW2 9621  12.516   2.682   1.251  2.0187 -0.9314 -1.4212
33615SOL     OW 9622   1.869   0.284   4.619  0.1003 -0.0623 -0.8403
33615SOL    HW1 9623   1.785   0.243   4.638  0.6288 -0.6669  0.2452
33615SOL    HW2 9624   1.888   0.337   4.696  1.0534 -0.4945 -0.7669
33616SOL     OW 9625   3.267   1.151   7.270 -0.3459 -0.1772  0.3121
33616SOL    HW1 9626   3.212   1.117   7.199 -0.7514  1.3206 -0.1144
33616SOL    HW2 9627   3.326   1.078   7.290 -0.1634 -0.6260 -1.6209
33617SOL     OW 9628   8.123   6.418   8.303  0.4009 -0.0036 -1.0549
33617SOL    HW1 9629   8.150   6.443   8.215  0.2184 -2.5242 -1.9138
33617SOL    HW2 9630   8.165   6.333   8.318  1.1830  0.7506  1.7001
33618SOL     OW 9631   3.820   0.786   9.572 -0.5880  0.1557  0.2211
33618SOL    HW1 9632   3.802   0.707   9.521 -0.1741 -0.1950  0.6050
33618SOL    HW2 9633   3.783   0.767   9.658  0.0834  0.1254  0.5031
33619SOL     OW 9634   1.522  10.459  10.203 -0.3166 -0.1227  0.9393
33619SOL    HW1 9635   1.531  10.554  10.216  1.9658 -0.1527 -0.0084
33619SOL    HW2 9636   1.456  10.452  10.133 -2.3071  0.5881  2.6309
33620SOL     OW 9637   5.093   1.638  10.449  0.4021  0.3653  0.5396
33620SOL    HW1 9638   5.018   1.698  10.441 -1.3689 -1.6236  1.2851
33620SOL    HW2 9639   5.154   1.683  10.508  0.4754  2.6048 -1.0946
33621SOL     OW 9640   4.708   4.965   0.658 -0.5862 -0.1220 -0.1404
33621SOL    HW1 9641   4.723   4.913   0.737  0.2037  0.3372  0.0093
33621SOL    HW2 9642   4.613   4.981   0.658 -0.4834  0.5697  1.1443
33622SOL     OW 9643   3.026   4.774  10.576 -0.1531  0.5664  0.3855
33622SOL    HW1 9644   3.032   4.859  10.620 -0.6021  2.2324 -2.4815
33622SOL    HW2 9645   2.993   4.795  10.489  2.8758 -2.1619 -1.6612
33623SOL     OW 9646   7.265   7.118  10.740  0.4281  0.5956 -0.7923
33623SOL    HW1 9647   7.270   7.093  10.647  0.6875  0.1007 -0.6497
33623SOL    HW2 9648   7.294   7.040  10.787 -1.2102  0.2864 -0.2213
33624SOL     OW 9649  11.991  11.704   1.222 -0.2249  0.7385  0.6883
33624SOL    HW1 9650  11.999  11.619   1.264  0.6908  0.8462  0.7411
33624SOL    HW2 9651  12.081  11.737   1.215 -0.4316  1.0946 -0.5845
33625SOL     OW 9652   1.414  12.426   2.626 -0.3308  0.4087 -0.5949
33625SOL    HW1 9653   1.354  12.484   2.579  0.1859  1.1250 -0.3938
33625SOL    HW2 9654   1.488  12.415   2.566 -0.9604 -1.0722 -1.1548
33626SOL     OW 9655   7.779  10.770   1.285 -0.0947 -0.3399  0.4477
33626SOL    HW1 9656   7.827  10.703   1.333 -0.1141  0.8310  2.1845
33626SOL    HW2 9657   7.818  10.853   1.313 -0.7229  0.4417 -0.8943
33627SOL     OW 9658  11.829  12.374   0.578  0.0641 -0.3492  0.0357
33627SOL    HW1 9659  11.841  12.315   0.652  0.3444 -0.2583  0.0639
33627SOL    HW2 9660  11.783  12.322   0.513  0.2249 -0.5698  0.0979
33628SOL     OW 9661   0.475   4.811   8.138 -0.4554 -0.6084  0.0149
33628SOL    HW1 9662   0.467   4.735   8.080  0.8303 -1.2047  0.5701
33628SOL    HW2 9663   0.460   4.887   8.082 -2.9508 -1.2769 -0.3271
33629SOL     OW 9664   4.013   5.900   0.274  0.0155 -0.5479  0.1957
33629SOL    HW1 9665   4.038   5.955   0.200 -2.1494 -0.2766 -0.4197
33629SOL    HW2 9666   3.919   5.916   0.285  0.5407  1.0302  4.3880
33630SOL     OW 9667   6.135   1.492   0.383  0.2534  0.3099  0.1192
33630SOL    HW1 9668   6.119   1.497   0.289  2.8402 -2.9850 -0.6700
33630SOL    HW2 9669   6.071   1.429   0.415 -1.6037  2.4870  1.0032
33631SOL     OW 9670   2.839   1.283   6.846  0.2657 -0.2167 -0.4267
33631SOL    HW1 9671   2.928   1.317   6.846  1.0289 -2.0836 -0.9733
33631SOL    HW2 9672   2.848   1.192   6.818 -1.8973 -0.2330 -1.2746
33632SOL     OW 9673   3.830   4.498   7.581  0.1994  0.0511  0.0081
33632SOL    HW1 9674   3.749   4.547   7.594  0.3629  1.1963 -2.7023
33632SOL    HW2 9675   3.898   4.564   7.579  1.2181 -0.8637  1.7790
33633SOL     OW 9676  11.611   1.959  10.858 -0.0230 -0.2217 -0.0929
33633SOL    HW1 9677  11.696   1.971  10.817  0.9625  0.8260  2.0985
33633SOL    HW2 9678  11.572   2.046  10.859 -0.0028 -0.2102  1.1745
33634SOL     OW 9679   4.709   3.507   2.122  0.3938 -0.2829  0.0008
33634SOL    HW1 9680   4.705   3.508   2.027 -0.1925  1.5409 -0.0019
33634SOL    HW2 9681   4.640   3.568   2.149 -1.7756 -3.2450  1.7268
33635SOL     OW 9682  10.797   8.019   6.477  0.3026  0.4009  0.2155
33635SOL    HW1 9683  10.772   8.065   6.558  1.0890 -2.8404  2.5234
33635SOL    HW2 9684  10.880   8.059   6.452 -1.2533  3.3349 -0.7325
33636SOL     OW 9685   9.682  10.631   0.183  0.2726 -0.1691 -0.5931
33636SOL    HW1 9686   9.758  10.583   0.213 -0.4345 -1.5555 -0.9249
33636SOL    HW2 9687   9.665  10.596   0.095  1.1403  2.3902 -1.8624
33637SOL     OW 9688   4.667  11.239   8.811 -0.2401  0.1731  0.4366
33637SOL    HW1 9689   4.572  11.234   8.817 -0.3202 -0.2574 -0.9255
33637SOL    HW2 9690   4.697  11.237   8.902 -1.4290 -1.7355  0.8404
33638SOL     OW 9691   5.690   2.652   2.280 -0.2729  0.6609  0.4414
33638SOL    HW1 9692   5.685   2.706   2.201  1.2810  1.2090  0.6963
33638SOL    HW2 9693   5.675   2.712   2.352 -0.8765  0.3080  0.6203
33639SOL     OW 9694   4.375   4.236  11.143 -0.0583  0.0424  1.0630
33639SOL    HW1 9695   4.333   4.180  11.078 -2.2577  0.3182  2.1351
33639SOL    HW2 9696   4.309   4.302  11.164  0.1833 -0.5349  4.1732
33640SOL     OW 9697   8.350   0.088   3.620 -0.3395 -0.5429  0.0419
33640SOL    HW1 9698   8.340   0.004   3.575 -0.8052 -0.4022 -0.1228
33640SOL    HW2 9699   8.376   0.149   3.552  1.2555 -0.8054  0.3822
33641SOL     OW 9700   6.669   3.653   3.747 -0.6439  0.4794 -0.0080
33641SOL    HW1 9701   6.709   3.570   3.772  1.9259  1.4045 -0.6659
33641SOL    HW2 9702   6.716   3.679   3.668 -2.1264  2.0559 -0.4244
33642SOL     OW 9703   8.469   1.319  11.881 -0.0629 -0.2300 -0.0216
33642SOL    HW1 9704   8.471   1.251  11.814  3.0901  0.3574 -0.6415
33642SOL    HW2 9705   8.434   1.396  11.837  0.2430 -0.3492 -0.4727
33643SOL     OW 9706  11.401  10.941   8.385  0.2717 -0.4928  0.4628
33643SOL    HW1 9707  11.466  10.912   8.449 -0.8121  0.7752  2.2251
33643SOL    HW2 9708  11.317  10.926   8.428 -0.4551  1.1062 -0.3433
33644SOL     OW 9709   1.575  10.665   9.135 -0.6684 -0.0482 -0.4601
33644SOL    HW1 9710   1.655  10.703   9.171 -0.3162  0.5796 -1.8181
33644SOL    HW2 9711   1.554  10.592   9.193 -0.1593  0.9277  0.9781
33645SOL     OW 9712   9.508   3.749   0.644  0.0189 -0.0504 -0.3332
33645SOL    HW1 9713   9.561   3.697   0.703  0.0411  0.8296  0.4464
33645SOL    HW2 9714   9.569   3.779   0.577  0.3357  0.2685  0.0947
33646SOL     OW 9715   6.587   4.662   5.449  0.0173  0.1732 -0.6878
33646SOL    HW1 9716   6.644   4.585   5.461  0.9116  0.4866 -2.5505
33646SOL    HW2 9717   6.634   4.732   5.493  0.6106  0.2153 -1.3607
33647SOL     OW 9718   1.558   4.780   7.674  0.1233 -0.2325  1.0090
33647SOL    HW1 9719   1.468   4.784   7.642  0.1392  1.2285  1.0992
33647SOL    HW2 9720   1.552   4.808   7.765  0.8925  1.8581  0.4728
33648SOL     OW 9721   3.343   0.989   9.002 -0.0422  0.2492 -0.2984
33648SOL    HW1 9722   3.305   0.922   8.945  0.5365 -1.8264  1.6060
33648SOL    HW2 9723   3.433   0.961   9.016 -0.5607 -0.2747  2.8324
33649SOL     OW 9724   8.860   9.533   3.333  0.6172 -0.2222 -0.3708
33649SOL    HW1 9725   8.807   9.594   3.280  1.0276 -0.9414 -1.6388
33649SOL    HW2 9726   8.950   9.556   3.312  0.8289  0.4575  1.1741
33650SOL     OW 9727   0.704   9.326  10.688  0.1221  0.0818  0.2135
33650SOL    HW1 9728   0.610   9.315  10.669  0.2403  0.8785 -0.9212
33650SOL    HW2 9729   0.715   9.287  10.774 -1.1289 -0.6339  0.0845
33651SOL     OW 9730   6.026   4.831  11.545  0.0641 -0.4885  0.2444
33651SOL    HW1 9731   5.988   4.918  11.532  0.8141 -0.2202 -0.2537
33651SOL    HW2 9732   6.082   4.842  11.623  0.3312 -0.4616  0.0495
33652SOL     OW 9733   3.199   2.499   2.248  0.0415 -0.3959 -0.6346
33652SOL    HW1 9734   3.116   2.468   2.213  0.5082 -0.3227 -1.8893
33652SOL    HW2 9735   3.258   2.424   2.241  0.0487 -0.4968  0.4030
33653SOL     OW 9736  12.434   1.895  10.825 -0.4329 -0.0093  0.1829
33653SOL    HW1 9737  12.352   1.859  10.790 -0.6380 -1.0416  1.6513
33653SOL    HW2 9738  12.435   1.868  10.917  1.0006  0.9933  0.4893
33654SOL     OW 9739   5.685   0.871   8.217 -0.2319  0.1109  0.0983
33654SOL    HW1 9740   5.694   0.883   8.312 -0.4904 -0.8989  0.2608
33654SOL    HW2 9741   5.695   0.959   8.181 -0.9667  0.6349  1.1261
33655SOL     OW 9742   7.785   5.252   5.610  0.2296  0.6463 -0.0664
33655SOL    HW1 9743   7.800   5.264   5.704 -0.2010 -0.6572  0.1877
33655SOL    HW2 9744   7.810   5.336   5.571 -1.0666  1.7611  1.3722
33656SOL     OW 9745   4.534   9.081   3.959  0.2832 -0.4524 -0.4128
33656SOL    HW1 9746   4.577   8.998   3.937  0.7195 -0.5413  0.7244
33656SOL    HW2 9747   4.585   9.148   3.913  0.5758 -0.7191 -0.4811
33657SOL     OW 9748   2.633   4.200  11.351  0.0903  0.0166  0.1221
33657SOL    HW1 9749   2.653   4.277  11.404  0.2504  0.2000 -0.2014
33657SOL    HW2 9750   2.714   4.180  11.305 -0.2892  0.4025 -0.7424
33658SOL     OW 9751  10.359   1.446   4.155  0.4337 -0.4837  0.4365
33658SOL    HW1 9752  10.395   1.369   4.199 -0.6220 -1.3279 -0.1316
33658SOL    HW2 9753  10.436   1.498   4.131  1.1318 -1.0907  1.3151
33659SOL     OW 9754  11.683   2.370   4.816 -0.0927  0.8778  0.0196
33659SOL    HW1 9755  11.694   2.288   4.865 -0.7495  0.2999 -0.7585
33659SOL    HW2 9756  11.771   2.395   4.790  0.0273 -0.1999 -0.6802
33660SOL     OW 9757  11.885   1.400   6.494 -0.3576 -0.3212 -0.5242
33660SOL    HW1 9758  11.867   1.386   6.401  0.0812 -2.7491 -0.3030
33660SOL    HW2 9759  11.846   1.325   6.538  1.8610 -0.7077  0.9481
33661SOL     OW 9760   7.281  12.354  11.256 -0.2010 -0.7378 -0.3622
33661SOL    HW1 9761   7.313  12.291  11.321 -1.3061  0.4992  1.5010
33661SOL    HW2 9762   7.192  12.374  11.284  1.0459  4.0670  1.2802
33662SOL     OW 9763   5.357   1.000   0.759 -0.6179  0.4299 -0.1876
33662SOL    HW1 9764   5.397   1.014   0.673 -0.9483 -0.8173 -0.5752
33662SOL    HW2 9765   5.415   1.044   0.821  0.2932  0.3038 -0.9301
33663SOL     OW 9766   3.592   1.905   3.153  0.1460  0.0705 -0.2150
33663SOL    HW1 9767   3.648   1.973   3.116 -1.8902  1.2825 -1.3077
33663SOL    HW2 9768   3.522   1.953   3.197 -1.6428 -1.2322 -1.4499
33664SOL     OW 9769   5.373   0.130  12.022  0.0783 -0.1974  0.0454
33664SOL    HW1 9770   5.434   0.202  12.039 -0.0937  0.9074 -3.3725
33664SOL    HW2 9771   5.292   0.157  12.067  0.9082  0.2565  1.3112
33665SOL     OW 9772   1.366   5.127   1.558  0.3662  0.1297 -0.3378
33665SOL    HW1 9773   1.324   5.155   1.639  0.0085  0.1231 -0.5215
33665SOL    HW2 9774   1.458   5.114   1.583 -0.1810 -2.2582  0.6619
33666SOL     OW 9775   5.017  11.553   2.638  0.0856  0.1910  0.1183
33666SOL    HW1 9776   5.106  11.523   2.657 -0.8773 -1.6288  2.3218
33666SOL    HW2 9777   4.994  11.511   2.556 -0.0160 -2.5978  1.4597
33667SOL     OW 9778   8.233   2.587   1.384  0.2731 -0.4746  0.3154
33667SOL    HW1 9779   8.220   2.672   1.343 -2.8445 -1.5193 -1.2257
33667SOL    HW2 9780   8.214   2.602   1.477 -2.2072  0.2807 -0.2273
33668SOL     OW 9781   1.896  10.879   6.809  0.2650  0.1417  0.5201
33668SOL    HW1 9782   1.972  10.830   6.839  0.6708 -0.8731 -1.9209
33668SOL    HW2 9783   1.866  10.832   6.731 -1.9185  1.4162  0.4993
33669SOL     OW 9784   1.236   2.130  11.151 -0.3700 -0.2324  0.0736
33669SOL    HW1 9785   1.189   2.160  11.073 -0.6077  1.8845  0.9530
33669SOL    HW2 9786   1.259   2.211  11.197 -1.3082 -1.4228  2.8368
33670SOL     OW 9787   5.089   2.748  10.716 -0.3569 -0.0399 -0.7007
33670SOL    HW1 9788   5.093   2.711  10.804  0.1982 -1.3554 -1.2513
33670SOL    HW2 9789   5.179   2.746  10.684 -0.7034 -0.6557 -1.7055
33671SOL     OW 9790   5.003   1.715   4.525  0.2394  0.0469  0.0007
33671SOL    HW1 9791   4.917   1.750   4.551  0.6295  0.0743  1.2849
33671SOL    HW2 9792   4.984   1.661   4.448 -0.8603  0.4141 -0.0064
33672SOL     OW 9793   4.769   7.950   0.244 -0.2076  0.7516  0.2088
33672SOL    HW1 9794   4.841   7.967   0.183  0.6073  0.4091  1.0415
33672SOL    HW2 9795   4.735   8.037   0.267 -1.0861  0.8460 -1.3620
33673SOL     OW 9796  10.124   1.957   8.807 -0.3455 -0.4417 -0.1792
33673SOL    HW1 9797  10.147   1.919   8.892 -1.4712  0.9493  0.7884
33673SOL    HW2 9798  10.096   1.882   8.754  2.6776 -1.7050 -0.2170
33674SOL     OW 9799   0.500  10.057   7.840  0.2743  0.3384 -0.2606
33674SOL    HW1 9800   0.453  10.010   7.909  0.6468  0.2615 -0.0559
33674SOL    HW2 9801   0.434  10.113   7.799  0.0771  0.4687  0.2347
33675SOL     OW 9802  11.359   1.761   3.178 -0.2404 -0.1740 -0.0949
33675SOL    HW1 9803  11.365   1.855   3.162  1.1500 -0.0256  1.0526
33675SOL    HW2 9804  11.445   1.727   3.152 -0.9136 -1.2432 -1.0394
33676SOL     OW 9805   8.174  12.097   9.240 -0.0545  0.4681 -0.3597
33676SOL    HW1 9806   8.227  12.128   9.314 -0.7152  1.4906 -0.2840
33676SOL    HW2 9807   8.091  12.145   9.249 -2.5106 -3.5906  1.6070
33677SOL     OW 9808   4.283   5.122   2.861 -0.1188  0.0980  0.2728
33677SOL    HW1 9809   4.300   5.208   2.823 -1.4456  1.0754  1.7415
33677SOL    HW2 9810   4.196   5.099   2.828  0.3028 -0.7965 -0.2564
33678SOL     OW 9811   6.489   4.834   4.264  0.0356  0.1355  0.1854
33678SOL    HW1 9812   6.439   4.914   4.280 -0.4889 -0.1144 -0.1686
33678SOL    HW2 9813   6.578   4.864   4.249 -0.0180  0.5979  0.7301
33679SOL     OW 9814   1.024   8.373   9.098 -0.4960 -0.0657  0.0991
33679SOL    HW1 9815   1.011   8.288   9.140 -2.8344  0.7401  1.1318
33679SOL    HW2 9816   1.092   8.415   9.150  0.1366 -0.9712  0.0394
33680SOL     OW 9817   5.080   9.188   5.311 -0.3872 -0.2849  0.3071
33680SOL    HW1 9818   5.072   9.098   5.343 -1.7698  0.2874  1.7345
33680SOL    HW2 9819   5.036   9.241   5.378  0.4370  1.4656 -0.4754
33681SOL     OW 9820   3.940   9.808   3.990 -0.0432 -0.5504  0.1840
33681SOL    HW1 9821   4.019   9.846   3.951 -1.2456  0.3703 -1.4704
33681SOL    HW2 9822   3.879   9.881   3.997 -0.8052 -1.2704  1.3378
33682SOL     OW 9823  12.103   0.995   3.747 -0.1510  0.0078  0.4868
33682SOL    HW1 9824  12.044   0.936   3.701 -1.5113  1.3668  0.4004
33682SOL    HW2 9825  12.181   0.942   3.766 -0.7353 -1.3846 -0.8066
33683SOL     OW 9826   6.975   6.341  11.915 -0.0336  0.0783  0.0705
33683SOL    HW1 9827   6.969   6.357  12.009  0.7199  0.8149 -0.0018
33683SOL    HW2 9828   6.978   6.245  11.908 -0.4164  0.0069  0.7700
33684SOL     OW 9829   0.874   0.495   2.741  0.1579 -0.0816 -0.5741
33684SOL    HW1 9830   0.892   0.401   2.744  1.8512  0.2329  0.5130
33684SOL    HW2 9831   0.788   0.502   2.699 -0.1209 -2.1134 -0.4345
33685SOL     OW 9832   2.109  11.196  12.532 -0.2842  0.0075  0.4363
33685SOL    HW1 9833   2.152  11.254  12.470 -0.5753  1.1185  1.2411
33685SOL    HW2 9834   2.177  11.172  12.595  0.0116 -1.1184 -0.2823
33686SOL     OW 9835   5.399   6.302   5.576 -0.4960  0.1057  0.2724
33686SOL    HW1 9836   5.439   6.328   5.493  0.0896 -1.5575 -0.0118
33686SOL    HW2 9837   5.311   6.274   5.552 -0.4906  0.0814  0.2818
33687SOL     OW 9838   2.584  10.096   4.127 -0.0349 -0.3140 -0.4917
33687SOL    HW1 9839   2.559  10.098   4.035  2.7205 -2.2570 -1.3970
33687SOL    HW2 9840   2.657  10.035   4.131 -2.1642 -3.0791  3.5538
33688SOL     OW 9841   5.681   3.599   9.401 -0.3279 -0.0339  0.2344
33688SOL    HW1 9842   5.721   3.611   9.315  0.9927 -1.6792  0.5622
33688SOL    HW2 9843   5.704   3.678   9.450  0.8467 -0.0855 -0.2156
33689SOL     OW 9844  11.971   2.827   4.209 -0.3444  0.8318  0.0899
33689SOL    HW1 9845  12.054   2.810   4.254 -1.5247  0.9241  2.4719
33689SOL    HW2 9846  11.919   2.748   4.224 -0.3872  0.3460 -2.2650
33690SOL     OW 9847   1.922   5.622   9.588 -0.0998  0.6866 -0.4785
33690SOL    HW1 9848   2.016   5.607   9.594 -0.0753  0.9851  0.0109
33690SOL    HW2 9849   1.884   5.536   9.569  0.0723  0.0699  1.6859
33691SOL     OW 9850   4.490   1.653   4.184  0.4424 -0.3848  0.1984
33691SOL    HW1 9851   4.431   1.584   4.214 -0.3201  0.7472  1.4549
33691SOL    HW2 9852   4.432   1.716   4.139  1.1864 -0.7521 -1.3430
33692SOL     OW 9853   6.530   4.129  11.175 -0.2152  0.2750 -0.3232
33692SOL    HW1 9854   6.488   4.210  11.204  0.6743  0.3600  0.8164
33692SOL    HW2 9855   6.592   4.108  11.245  0.8018 -0.4701 -1.4122
33693SOL     OW 9856   3.932   9.627   9.268  0.5922  0.0797 -0.0672
33693SOL    HW1 9857   3.907   9.536   9.284  1.8855 -0.7978 -2.4960
33693SOL    HW2 9858   3.961   9.659   9.354  0.4927 -1.9242  0.7830
33694SOL     OW 9859   1.392   2.984  10.648  0.1574  0.4509  0.1933
33694SOL    HW1 9860   1.466   2.927  10.667  1.4181  1.2827 -1.9210
33694SOL    HW2 9861   1.397   3.053  10.714 -0.3760 -0.9175  1.7197
33695SOL     OW 9862  11.361   0.557   2.873 -0.5003 -0.2021  0.2253
33695SOL    HW1 9863  11.399   0.566   2.786 -2.4740  0.8550 -0.5818
33695SOL    HW2 9864  11.352   0.462   2.884 -0.4045 -0.3485 -0.8025
33696SOL     OW 9865   2.407  10.613   4.614 -0.0614 -0.1347 -0.3829
33696SOL    HW1 9866   2.391  10.562   4.535 -1.4934  0.3220 -0.4227
33696SOL    HW2 9867   2.494  10.651   4.602 -0.1236 -0.3524 -1.5800
33697SOL     OW 9868  12.597   2.099   6.537  0.2234  0.5371 -0.1851
33697SOL    HW1 9869  12.596   2.154   6.459  1.1778  1.7663  0.6331
33697SOL    HW2 9870  12.558   2.153   6.606  1.8616  0.5269  0.8176
33698SOL     OW 9871   3.386   2.450   4.780 -0.5332  0.0477 -0.2407
33698SOL    HW1 9872   3.370   2.437   4.874  0.2447  1.1456  0.0694
33698SOL    HW2 9873   3.306   2.422   4.737 -1.2361  0.3879  0.8228
33699SOL     OW 9874   5.582   6.746  12.263 -0.3604 -0.0833  0.2435
33699SOL    HW1 9875   5.587   6.824  12.207 -0.2766 -0.3488 -0.1243
33699SOL    HW2 9876   5.510   6.696  12.227  0.0150 -0.4965  0.0636
33700SOL     OW 9877   7.544   6.051  12.116 -0.2706  0.6394 -0.3100
33700SOL    HW1 9878   7.488   6.127  12.132  0.7063  1.7215 -1.7356
33700SOL    HW2 9879   7.632   6.087  12.109  0.4452 -0.8528  0.5071
33701SOL     OW 9880   3.510   7.179   8.005  0.3050  0.1457 -0.1777
33701SOL    HW1 9881   3.495   7.088   8.032  0.6572  0.7056  2.0389
33701SOL    HW2 9882   3.521   7.228   8.087  1.2712  2.0047 -1.3361
33702SOL     OW 9883   6.487   7.121   2.783  0.1604 -0.6530 -0.8173
33702SOL    HW1 9884   6.407   7.098   2.830 -0.7488  1.0226 -1.4226
33702SOL    HW2 9885   6.468   7.101   2.691  0.6718 -0.8199 -0.8912
33703SOL     OW 9886   9.705   5.593  10.299 -0.6457 -0.0432  0.0623
33703SOL    HW1 9887   9.661   5.583  10.383 -1.5555 -0.3000 -0.4241
33703SOL    HW2 9888   9.634   5.604  10.236  0.0422  1.7646 -0.4879
33704SOL     OW 9889   9.560   3.818   1.577  0.5765  0.0032 -0.1069
33704SOL    HW1 9890   9.541   3.905   1.543 -0.3798 -0.3607 -0.5611
33704SOL    HW2 9891   9.630   3.831   1.641  0.6197  1.0605 -0.3587
33705SOL     OW 9892   8.876  12.328   9.345  0.0267 -0.0091 -0.3752
33705SOL    HW1 9893   8.882  12.305   9.438  0.6798 -0.0251 -0.4219
33705SOL    HW2 9894   8.789  12.297   9.319 -0.4107  0.5399  0.3796
33706SOL     OW 9895   2.896   1.019   0.187  0.1671 -0.3895 -0.0804
33706SOL    HW1 9896   2.927   0.995   0.275 -0.7110  0.4046  0.4731
33706SOL    HW2 9897   2.800   1.013   0.194  0.1179 -0.9686 -1.1884
33707SOL     OW 9898   3.213   7.684   6.472 -0.2053 -0.6086  0.0155
33707SOL    HW1 9899   3.197   7.652   6.383 -0.0094  0.6617 -0.4887
33707SOL    HW2 9900   3.186   7.776   6.471  1.1104 -0.1759  0.8822
33708SOL     OW 9901   4.735  10.542   8.698 -0.1481  0.3202 -0.3529
33708SOL    HW1 9902   4.717  10.472   8.761 -0.9918 -0.0956 -1.0444
33708SOL    HW2 9903   4.712  10.622   8.745 -3.3880 -0.1132 -0.9442
33709SOL     OW 9904   5.630   5.976   4.325  0.1602 -0.1658  0.2663
33709SOL    HW1 9905   5.561   6.000   4.263  0.6356  0.1732 -0.1340
33709SOL    HW2 9906   5.691   5.923   4.274  0.6986  0.3468  0.3719
33710SOL     OW 9907   3.124   1.750   9.076  0.3567  0.1835  0.5066
33710SOL    HW1 9908   3.149   1.658   9.088 -1.1378 -0.4048 -0.4937
33710SOL    HW2 9909   3.037   1.745   9.035 -0.1959  2.0574  1.3621
33711SOL     OW 9910  11.568   1.336   2.664  0.1446  0.5141  0.7875
33711SOL    HW1 9911  11.483   1.361   2.700  0.5031 -0.7594  2.6614
33711SOL    HW2 9912  11.620   1.416   2.666 -0.6004  1.0064  0.8188
33712SOL     OW 9913   5.807   1.935   0.054  0.0482 -0.3975  0.1185
33712SOL    HW1 9914   5.768   1.847   0.053 -1.3399  0.2041 -0.6601
33712SOL    HW2 9915   5.900   1.919   0.036 -0.3015 -1.6597 -0.7684
33713SOL     OW 9916  10.610   5.155  10.610 -0.3819 -0.3552  0.3726
33713SOL    HW1 9917  10.601   5.104  10.690 -2.7689 -2.5450 -1.1181
33713SOL    HW2 9918  10.532   5.211  10.608  1.1200  1.9164  0.9036
33714SOL     OW 9919   5.202  10.469   4.019 -0.3553  0.0529 -0.0491
33714SOL    HW1 9920   5.262  10.396   4.037  1.2957  1.6306  1.2684
33714SOL    HW2 9921   5.144  10.472   4.095 -0.6613 -0.1264 -0.2774
33715SOL     OW 9922   7.316   8.821   4.321 -0.1833 -0.4697 -0.1237
33715SOL    HW1 9923   7.339   8.802   4.230  1.9296  1.8790 -0.2274
33715SOL    HW2 9924   7.383   8.776   4.373 -1.6452 -2.1795  0.3644
33716SOL     OW 9925   1.201  10.499   2.981  0.2346  0.4376 -0.6699
33716SOL    HW1 9926   1.124  10.444   2.969 -1.5366  2.8000 -0.9162
33716SOL    HW2 9927   1.223  10.489   3.074  0.3231 -1.0580 -0.8257
33717SOL     OW 9928   5.635  10.060   0.450  0.3742 -0.3646  0.3252
33717SOL    HW1 9929   5.570  10.049   0.380  0.2338 -2.3004  0.7203
33717SOL    HW2 9930   5.659  10.152   0.444  1.0688 -0.6098 -2.9140
33718SOL     OW 9931   4.104  10.079   6.998  0.2448  0.3887  0.7022
33718SOL    HW1 9932   4.157  10.026   6.938 -0.5298 -1.3916  1.5100
33718SOL    HW2 9933   4.144  10.064   7.084 -0.1327  0.9353  0.9752
33719SOL     OW 9934   5.790   6.103   7.348  0.6188 -0.1174  0.0916
33719SOL    HW1 9935   5.809   6.010   7.333 -0.6447 -0.3892  0.0928
33719SOL    HW2 9936   5.786   6.111   7.444 -1.8149 -0.6356  0.0861
33720SOL     OW 9937   3.672  12.293   8.751 -0.4766 -0.7565 -0.2521
33720SOL    HW1 9938   3.685  12.371   8.804  2.9838  0.9249 -3.1725
33720SOL    HW2 9939   3.584  12.303   8.716 -1.3984 -0.0119  2.0556
33721SOL     OW 9940   9.436   6.454   3.603 -0.2723 -0.2083 -0.2228
33721SOL    HW1 9941   9.430   6.478   3.511  1.3748 -1.2781 -0.6552
33721SOL    HW2 9942   9.407   6.363   3.606  1.6403 -0.8701 -0.0912
33722SOL     OW 9943   2.713   8.091   1.301  0.0571  0.5616  0.0109
33722SOL    HW1 9944   2.801   8.116   1.273  1.1531 -1.2120  1.7124
33722SOL    HW2 9945   2.683   8.030   1.233  0.8980 -0.2700  0.3725
33723SOL     OW 9946   7.361   2.457   2.821 -0.3500  0.4871 -0.3473
33723SOL    HW1 9947   7.353   2.488   2.911 -0.9757  0.1786 -0.2856
33723SOL    HW2 9948   7.451   2.427   2.813  0.0061  1.4830 -0.1414
33724SOL     OW 9949   6.608  11.368   7.183 -0.4778  0.5526 -0.1329
33724SOL    HW1 9950   6.541  11.344   7.119  0.9508 -0.1659 -1.4233
33724SOL    HW2 9951   6.672  11.297   7.179  0.0757  0.9054  1.5134
33725SOL     OW 9952   7.419   1.960  11.586  0.2469  0.2874 -0.1173
33725SOL    HW1 9953   7.331   1.937  11.556  0.8289 -1.3684 -0.6685
33725SOL    HW2 9954   7.408   2.045  11.629 -2.1359 -1.0561  2.2429
33726SOL     OW 9955  10.503   7.520   6.240  0.1207 -0.4609 -0.1460
33726SOL    HW1 9956  10.430   7.560   6.193  0.1223 -1.6722 -1.2449
33726SOL    HW2 9957  10.568   7.589   6.247 -0.9345  0.5034  0.4287
33727SOL     OW 9958  10.078   6.071  10.799 -0.1116  0.6244 -0.2921
33727SOL    HW1 9959  10.148   6.128  10.831  0.8007 -0.0622 -0.9705
33727SOL    HW2 9960  10.020   6.059  10.873  0.6935  0.9323  0.4055
33728SOL     OW 9961   3.628   5.816  11.710 -0.0205  0.1812 -0.3349
33728SOL    HW1 9962   3.589   5.777  11.632 -0.9499 -0.6951  0.5277
33728SOL    HW2 9963   3.606   5.754  11.780  1.9534  0.2488  0.3966
33729SOL     OW 9964   8.049   9.866   4.658  0.4439  0.2525  0.3734
33729SOL    HW1 9965   7.987   9.833   4.722  1.3271 -0.6548  0.7892
33729SOL    HW2 9966   8.105   9.926   4.708 -0.7156  1.8955 -0.2254
33730SOL     OW 9967   1.412   7.212  11.198  0.4485 -0.1531 -0.4461
33730SOL    HW1 9968   1.399   7.238  11.107 -1.5502 -1.8106 -0.7110
33730SOL    HW2 9969   1.431   7.118  11.193  0.9623 -0.1341  0.8252
33731SOL     OW 9970   5.155  12.036   1.179  0.6991  0.4431  0.3693
33731SOL    HW1 9971   5.224  11.992   1.228  0.1274 -1.2859 -0.2973
33731SOL    HW2 9972   5.076  12.020   1.230  0.4133  0.3378 -0.1050
33732SOL     OW 9973   6.919   5.721  11.331 -0.0716 -0.1984  0.2843
33732SOL    HW1 9974   6.916   5.657  11.259  0.1419 -0.9819  0.9636
33732SOL    HW2 9975   6.876   5.799  11.295 -0.0154 -0.5980 -0.6763
33733SOL     OW 9976   3.183   7.143   7.691  0.7090  0.2225  0.5147
33733SOL    HW1 9977   3.209   7.170   7.603 -1.1022  0.5276  0.0290
33733SOL    HW2 9978   3.120   7.072   7.677  1.6139 -0.8315  1.6317
33734SOL     OW 9979   7.135   3.215  12.476  0.5003 -0.2922 -0.1466
33734SOL    HW1 9980   7.157   3.289  12.532  0.7608 -0.4647 -0.0230
33734SOL    HW2 9981   7.212   3.158  12.478  1.4909  0.8192 -2.5675
33735SOL     OW 9982   2.296   4.393  11.245 -0.5561 -0.7136 -0.2106
33735SOL    HW1 9983   2.325   4.459  11.308  0.5327 -1.4047  0.0315
33735SOL    HW2 9984   2.263   4.321  11.298 -1.1951 -0.6133 -0.4638
33736SOL     OW 9985   7.047   2.323   6.811  0.2764 -0.5030 -0.1906
33736SOL    HW1 9986   7.126   2.336   6.757 -1.0052 -1.8270 -2.5517
33736SOL    HW2 9987   7.035   2.406   6.856  0.6767  1.2490 -3.0779
33737SOL     OW 9988  11.157   2.784   1.296 -0.0771  0.3663 -0.1182
33737SOL    HW1 9989  11.144   2.878   1.313  1.5048  0.8628 -1.4015
33737SOL    HW2 9990  11.090   2.763   1.230 -0.3314  0.6389  0.0481
33738SOL     OW 9991  10.931   2.987   5.293 -0.6132 -0.1504  0.2713
33738SOL    HW1 9992  10.966   3.071   5.266  0.1738 -0.4279  0.4058
33738SOL    HW2 9993  10.901   3.001   5.383  0.2668 -0.2201  0.5843
33739SOL     OW 9994  11.445  11.265   1.484 -0.4802 -0.1227 -0.4905
33739SOL    HW1 9995  11.448  11.349   1.531 -0.8256 -0.6049  0.4152
33739SOL    HW2 9996  11.481  11.285   1.397 -1.7087  1.2458 -0.7299
33740SOL     OW 9997   5.993   1.742   1.339 -0.1444  0.6081 -0.1335
33740SOL    HW1 9998   6.016   1.720   1.249 -0.7520 -1.1603  0.1028
33740SOL    HW2 9999   6.071   1.720   1.390  0.6824  2.8240 -0.3167
33741SOL     OW10000  12.190  11.191   8.828 -0.0482  0.3154  0.5312
33741SOL    HW110001  12.250  11.144   8.769 -0.2289  1.7001 -0.8258
33741SOL    HW210002  12.104  11.152   8.810 -0.1725  1.0128 -0.4733
33742SOL     OW10003  11.079   9.416  10.423  0.3151  0.0377 -0.0221
33742SOL    HW110004  11.086   9.432  10.329  2.1348  1.2791  0.2882
33742SOL    HW210005  11.128   9.335  10.438  0.9393  0.4189  0.0031
33743SOL     OW10006   9.709  12.086   2.328  0.2392  0.2270 -0.4146
33743SOL    HW110007   9.667  12.105   2.412  1.6815  0.1103  0.3693
33743SOL    HW210008   9.671  12.149   2.267 -1.6562 -0.4085  0.0270
33744SOL     OW10009   6.425   3.150   4.635  0.0149 -0.3292 -0.1753
33744SOL    HW110010   6.364   3.102   4.692 -0.5681  1.0390  0.4057
33744SOL    HW210011   6.511   3.136   4.675 -0.5120  1.6288  1.8929
33745SOL     OW10012   2.196   7.068  10.955 -0.0162 -0.5550  0.2092
33745SOL    HW110013   2.104   7.094  10.948  0.2609  0.0988 -1.5159
33745SOL    HW210014   2.194   6.977  10.984 -1.3676 -1.8109 -3.3892
33746SOL     OW10015   9.447   0.215   8.974  0.1300  0.1659  0.0137
33746SOL    HW110016   9.495   0.269   8.911  0.1318  1.3909  1.0321
33746SOL    HW210017   9.359   0.207   8.937 -0.8612  3.5825  1.2949
33747SOL     OW10018   9.429   3.150  10.774  0.1305 -0.3938 -0.4158
33747SOL    HW110019   9.517   3.153  10.737 -0.4544 -0.2235 -1.8387
33747SOL    HW210020   9.420   3.233  10.822  0.7970 -0.4922 -0.1132
33748SOL     OW10021   9.439   0.375   4.567 -0.4393  0.1242 -0.6422
33748SOL    HW110022   9.502   0.438   4.601  0.2587 -0.1678 -1.3546
33748SOL    HW210023   9.392   0.344   4.644 -1.7462  2.4954 -0.4154
33749SOL     OW10024   0.594   1.360   6.154 -0.2584 -0.4517 -0.1136
33749SOL    HW110025   0.504   1.383   6.128 -0.8423  0.9984  2.7711
33749SOL    HW210026   0.586   1.274   6.195 -0.1202 -0.7798 -0.7610
33750SOL     OW10027   0.260   4.694  11.835 -0.1353  0.0726 -0.0044
33750SOL    HW110028   0.252   4.599  11.827 -0.2872  0.2260 -4.1494
33750SOL    HW210029   0.170   4.725  11.841 -0.1715 -0.0185 -0.0681
33751SOL     OW10030   9.343   4.668   0.546  0.2878  0.1060  0.6685
33751SOL    HW110031   9.335   4.728   0.473  0.0608  0.2085  0.7785
33751SOL    HW210032   9.285   4.703   0.613  0.6480  0.1273  0.9756
33752SOL     OW10033   1.303   1.797   0.848 -0.4164 -0.6170  0.1863
33752SOL    HW110034   1.262   1.779   0.932 -0.2850 -1.3587  0.0982
33752SOL    HW210035   1.364   1.724   0.835  0.6757  0.2732  0.1531
33753SOL     OW10036   8.566  12.189   2.880  0.3578 -0.0466  0.0239
33753SOL    HW110037   8.588  12.173   2.788 -1.6178  0.7316 -0.6499
33753SOL    HW210038   8.501  12.121   2.901  2.1466 -1.3963  1.4759
33754SOL     OW10039   7.431   2.760   1.920 -0.3326  0.2105  0.6421
33754SOL    HW110040   7.422   2.727   1.830 -1.1066 -0.1645  0.8515
33754SOL    HW210041   7.380   2.841   1.921  1.5192  1.4580  0.1435
33755SOL     OW10042   1.235   8.939   1.683 -0.1193 -0.7243  0.1778
33755SOL    HW110043   1.145   8.971   1.675  0.0302 -0.2867  0.2480
33755SOL    HW210044   1.264   8.929   1.592  0.1884  0.3475  0.1496
33756SOL     OW10045   6.364   5.985   4.943  0.1051 -0.4772 -0.1564
33756SOL    HW110046   6.294   5.983   5.009 -0.8722  0.8833 -1.0915
33756SOL    HW210047   6.410   6.067   4.958 -0.8627  0.4300 -1.8454
33757SOL     OW10048  11.062  10.990   2.082  0.3489 -0.2654 -0.2167
33757SOL    HW110049  10.971  10.976   2.058  0.3089 -1.6629  0.6333
33757SOL    HW210050  11.058  11.049   2.158  0.1610 -0.3508 -0.1614
33758SOL     OW10051   3.291   6.420   5.287 -0.0962 -0.2336  0.3777
33758SOL    HW110052   3.234   6.477   5.339 -0.1563 -0.5172  0.6201
33758SOL    HW210053   3.233   6.352   5.252 -0.6497  1.4952 -2.4058
33759SOL     OW10054   6.007   2.591  10.845 -0.3284  0.4913 -0.1681
33759SOL    HW110055   6.028   2.671  10.796 -2.1593  0.3960 -1.1728
33759SOL    HW210056   5.927   2.558  10.805 -0.6355 -0.8508  1.4438
33760SOL     OW10057   8.541   6.186   9.624  0.6678 -0.0552 -0.5512
33760SOL    HW110058   8.546   6.217   9.714 -0.3377  0.7049 -0.7389
33760SOL    HW210059   8.488   6.106   9.629  1.2932 -0.4687 -0.3758
33761SOL     OW10060   9.373   4.387   9.753  0.0916  0.5032  0.3323
33761SOL    HW110061   9.463   4.392   9.786 -0.4872 -1.6478  2.5892
33761SOL    HW210062   9.329   4.463   9.789  0.8043  1.1947 -0.2149
33762SOL     OW10063  12.024   0.694   5.192 -0.5118  0.2920 -0.6511
33762SOL    HW110064  11.960   0.698   5.263 -2.1055 -0.0715 -2.0061
33762SOL    HW210065  12.069   0.778   5.196 -0.3791  0.1826  0.9343
33763SOL     OW10066  10.242   9.904  10.356 -0.0820 -0.2333 -0.1353
33763SOL    HW110067  10.152   9.897  10.324 -0.4197 -1.6805  1.0073
33763SOL    HW210068  10.288   9.830  10.315 -0.0336 -0.9176  1.1013
33764SOL     OW10069   8.306   4.705  12.175  0.0342  0.1866 -0.2474
33764SOL    HW110070   8.365   4.678  12.245 -0.0580  0.7453  0.0516
33764SOL    HW210071   8.219   4.702  12.215  0.1041  1.7956  0.0698
33765SOL     OW10072   8.763   7.926  10.336 -0.0495 -0.7191 -0.0885
33765SOL    HW110073   8.807   8.011  10.330  0.5647 -0.7946  2.2611
33765SOL    HW210074   8.723   7.926  10.423  0.7007 -3.1708  0.3302
33766SOL     OW10075   2.688   0.347   4.281 -0.3759  0.3456  0.2961
33766SOL    HW110076   2.601   0.388   4.282 -0.1981  0.7237  0.3304
33766SOL    HW210077   2.677   0.267   4.333 -0.2930  1.2380  1.7489
33767SOL     OW10078   9.820   4.003   2.656  0.0789 -0.0988  0.9171
33767SOL    HW110079   9.846   3.936   2.719  0.7138 -0.7684 -0.0369
33767SOL    HW210080   9.889   4.068   2.660 -1.1936  1.2571  2.8370
33768SOL     OW10081   1.539  10.154   9.363 -0.7876 -0.2795 -0.5379
33768SOL    HW110082   1.633  10.161   9.383 -0.8818 -1.4341  0.4093
33768SOL    HW210083   1.536  10.143   9.268 -0.1362  2.2256 -0.9321
33769SOL     OW10084   8.895   7.087   5.030 -0.0873  0.5139 -0.3098
33769SOL    HW110085   8.891   7.128   5.116 -0.9904  0.8183 -0.4858
33769SOL    HW210086   8.881   6.994   5.046  0.9491  0.4018 -0.0118
33770SOL     OW10087   5.820   8.558   5.505 -0.6029  0.1406  0.0752
33770SOL    HW110088   5.860   8.634   5.463  3.0672 -1.5756  0.0508
33770SOL    HW210089   5.833   8.486   5.443  1.2591 -1.6104  2.2650
33771SOL     OW10090   8.343   9.658   4.092 -0.1147 -0.8837  0.0986
33771SOL    HW110091   8.283   9.620   4.029 -0.2359  0.6803 -0.7683
33771SOL    HW210092   8.387   9.728   4.045  0.1257  0.0367  1.6129
33772SOL     OW10093   3.840   4.915   4.573  0.6098 -0.0459  0.0410
33772SOL    HW110094   3.831   4.993   4.518 -2.1565 -1.3892 -1.6915
33772SOL    HW210095   3.789   4.935   4.651  2.2733  0.8580  0.9435
33773SOL     OW10096   5.076   7.168   2.791  0.0702  0.1852 -0.7147
33773SOL    HW110097   5.058   7.256   2.825 -0.4630  0.5406 -1.8654
33773SOL    HW210098   4.995   7.120   2.806  0.5902 -0.3411  0.5488
33774SOL     OW10099   1.382   5.837   9.092 -0.1871  0.1802 -0.5092
33774SOL    HW110100   1.423   5.859   9.009  0.6349  0.6701  0.0081
33774SOL    HW210101   1.300   5.885   9.093 -0.6625 -0.5766 -1.4345
33775SOL     OW10102   2.420   2.822   3.250  0.0624  0.2457 -0.2483
33775SOL    HW110103   2.490   2.884   3.230 -0.1561  0.1565 -1.3505
33775SOL    HW210104   2.459   2.762   3.313  0.6062  0.8926  0.0364
33776SOL     OW10105  10.265   0.085   4.614 -0.0280 -0.1580  0.2808
33776SOL    HW110106  10.185   0.040   4.589  1.0830 -2.5084  0.7172
33776SOL    HW210107  10.248   0.118   4.702 -0.9508  0.5832 -0.1523
33777SOL     OW10108   7.664   3.239   7.365 -0.1447  0.1734 -0.7993
33777SOL    HW110109   7.743   3.232   7.312 -0.7724 -2.3558 -1.5765
33777SOL    HW210110   7.600   3.284   7.309  0.3249  0.9831 -0.6907
33778SOL     OW10111  12.180   1.893  10.729  0.3183 -0.3544  0.3005
33778SOL    HW110112  12.197   1.805  10.695 -0.8998 -0.5494  0.1714
33778SOL    HW210113  12.105   1.882  10.788 -0.8174  0.8372 -0.8678
33779SOL     OW10114   3.610   5.957   8.257  0.1301 -0.1702 -0.4599
33779SOL    HW110115   3.545   5.924   8.320  0.1268 -1.0691 -0.9231
33779SOL    HW210116   3.580   5.923   8.173  0.5052  0.4759 -0.8540
33780SOL     OW10117  12.329  11.133  12.168 -0.0540  0.2374  0.2924
33780SOL    HW110118  12.319  11.228  12.177 -1.1836  0.0825  0.9291
33780SOL    HW210119  12.239  11.100  12.166  0.3317 -0.8765  0.7234
33781SOL     OW10120   9.929   8.375  12.505  0.0508  0.2128 -0.4491
33781SOL    HW110121   9.866   8.306  12.527 -1.5865  1.6157 -0.4876
33781SOL    HW210122   9.961   8.405  12.590 -1.6760  1.5265 -0.2082
33782SOL     OW10123  10.715   8.669   4.669  0.7203 -0.5643 -0.1372
33782SOL    HW110124  10.627   8.637   4.688  0.6848  1.6372  4.7639
33782SOL    HW210125  10.701   8.753   4.625  0.4333 -0.6552 -0.2254
33783SOL     OW10126   3.320  10.043   8.423 -0.0169 -0.0635 -0.7641
33783SOL    HW110127   3.249  10.064   8.363  0.3302 -0.3418 -1.2829
33783SOL    HW210128   3.395  10.026   8.366  0.1711 -0.9065 -0.2734
33784SOL     OW10129   4.813   4.037   9.935 -0.3652  0.6836  0.0463
33784SOL    HW110130   4.867   4.092   9.878 -0.5252  0.9393  0.1373
33784SOL    HW210131   4.754   4.099   9.978 -1.0714  0.3591 -0.4317
33785SOL     OW10132   0.122   9.837   1.609 -0.4015 -0.2355  0.4711
33785SOL    HW110133   0.089   9.926   1.599 -0.6225 -0.4428 -0.8136
33785SOL    HW210134   0.157   9.815   1.522  0.8004 -0.9417  1.1098
33786SOL     OW10135   3.718   6.081   3.852 -0.0074  0.1728 -0.0800
33786SOL    HW110136   3.752   6.156   3.901  2.5751 -0.2977 -0.9657
33786SOL    HW210137   3.734   6.104   3.760  2.4421 -2.0420 -0.3199
33787SOL     OW10138   8.830   8.781   1.176 -1.0321  0.3512  0.0761
33787SOL    HW110139   8.905   8.798   1.234 -0.9733  1.3610 -0.2827
33787SOL    HW210140   8.771   8.728   1.229 -0.1493 -0.3111  0.4276
33788SOL     OW10141   0.516   9.051  10.852 -0.1456 -0.0356  0.1229
33788SOL    HW110142   0.604   9.015  10.864 -0.9465 -1.0745  4.5867
33788SOL    HW210143   0.461   8.975  10.834 -0.5711  0.1884  0.4554
33789SOL     OW10144   0.455   0.809   1.621  0.3330 -0.3302  0.3463
33789SOL    HW110145   0.434   0.844   1.708  0.3414 -4.2335  2.1392
33789SOL    HW210146   0.522   0.743   1.638  0.6650 -0.9259 -2.7655
33790SOL     OW10147   3.942   5.119   6.480 -0.4353  0.4812 -0.1501
33790SOL    HW110148   3.964   5.134   6.388 -1.5500  0.2070 -0.4878
33790SOL    HW210149   3.853   5.153   6.489 -0.8113 -0.6103  0.5053
33791SOL     OW10150   3.360   0.238   6.757 -0.3192 -0.2201  0.2104
33791SOL    HW110151   3.448   0.273   6.773 -0.1410  0.1086 -1.3084
33791SOL    HW210152   3.334   0.278   6.673 -1.8346 -0.4663  0.5447
33792SOL     OW10153   6.200   6.371   7.307 -0.5638 -0.3362 -0.9443
33792SOL    HW110154   6.120   6.415   7.277 -1.0425 -0.2276  0.4561
33792SOL    HW210155   6.170   6.295   7.356  0.2432 -1.2613 -1.8132
33793SOL     OW10156   2.993  11.015   2.795  0.0601 -0.9504  0.2385
33793SOL    HW110157   2.905  11.035   2.763  0.9444 -0.2930 -1.8910
33793SOL    HW210158   3.034  11.100   2.809  1.1613 -1.2163 -1.1673
33794SOL     OW10159   2.747   4.620   6.159  0.0425  0.5567 -0.0671
33794SOL    HW110160   2.716   4.553   6.220  0.7327 -0.2183 -0.5336
33794SOL    HW210161   2.839   4.633   6.182  0.3300  0.1982 -0.9729
33795SOL     OW10162   0.385  11.076   7.128  0.4744 -0.3835  0.1425
33795SOL    HW110163   0.313  11.130   7.162  0.7592  0.0721  0.0367
33795SOL    HW210164   0.358  11.054   7.039  0.4184 -0.2973  0.1380
33796SOL     OW10165   3.820   7.317   7.394 -0.4419  0.2622 -0.1219
33796SOL    HW110166   3.879   7.393   7.389 -1.2974  0.9996  0.5767
33796SOL    HW210167   3.849   7.269   7.472 -0.7898  0.6495  0.2486
33797SOL     OW10168   5.476  10.400  11.157  0.2329  0.5037  0.2180
33797SOL    HW110169   5.527  10.375  11.080  0.3910  2.2618 -0.3139
33797SOL    HW210170   5.389  10.420  11.122 -0.0595  0.0623  0.6976
33798SOL     OW10171   8.300   1.195   8.406 -0.1146  0.5133 -0.0295
33798SOL    HW110172   8.215   1.157   8.426  0.7448 -0.7050  1.5540
33798SOL    HW210173   8.347   1.125   8.359  0.0960  1.1062 -0.7217
33799SOL     OW10174   2.238   0.220   9.734  0.1988 -0.1896  0.4985
33799SOL    HW110175   2.164   0.205   9.675  1.2943 -2.0574 -0.4779
33799SOL    HW210176   2.208   0.291   9.792 -1.6869  0.2742 -0.9423
33800SOL     OW10177   8.892   1.603  10.873 -0.0540 -0.5259  0.1613
33800SOL    HW110178   8.861   1.569  10.957 -1.7477 -0.1880 -0.2971
33800SOL    HW210179   8.886   1.698  10.882  0.6342 -0.4605 -0.0317
33801SOL     OW10180  12.342   8.763   6.437  0.3681  0.2711  1.1394
33801SOL    HW110181  12.320   8.785   6.528  0.5296  0.7696  1.0631
33801SOL    HW210182  12.399   8.834   6.409  1.5224 -0.6282  1.1214
33802SOL     OW10183   0.066   7.234   5.384 -0.6132  0.3160 -0.0806
33802SOL    HW110184   0.125   7.247   5.311  1.4316  1.6871  1.7102
33802SOL    HW210185   0.096   7.152   5.425 -0.8209  0.3154  0.0744
33803SOL     OW10186   1.990   3.032   6.219  0.5464  0.0012  0.1677
33803SOL    HW110187   1.958   2.944   6.237  1.7227 -0.5343 -0.2286
33803SOL    HW210188   2.063   3.044   6.280  0.3765  0.7109  0.2397
33804SOL     OW10189   5.466   7.005   0.733 -0.2354 -0.2169  0.1093
33804SOL    HW110190   5.484   6.950   0.657 -0.4458  0.4255 -0.4144
33804SOL    HW210191   5.440   6.944   0.802  0.5319 -0.8557 -0.1538
33805SOL     OW10192   7.449   7.609   0.540  0.5880 -0.0471  0.6779
33805SOL    HW110193   7.487   7.522   0.551  0.5004 -0.1795 -0.0346
33805SOL    HW210194   7.405   7.627   0.624 -0.5251 -1.2425  0.3767
33806SOL     OW10195   2.410   1.780   9.755 -0.2400  0.0826 -0.2634
33806SOL    HW110196   2.382   1.795   9.846  0.1376 -2.0956  0.2589
33806SOL    HW210197   2.477   1.848   9.740 -0.8311  0.9477  0.8121
33807SOL     OW10198  12.145   8.631   0.373  0.1746 -0.1447 -0.7983
33807SOL    HW110199  12.200   8.620   0.451  0.1875  1.9584 -0.4460
33807SOL    HW210200  12.195   8.591   0.303 -0.3968 -3.2434  0.4062
33808SOL     OW10201   6.505  11.011  10.595 -0.2015 -0.2196  0.0674
33808SOL    HW110202   6.540  11.094  10.627 -1.2196  0.2320  0.0487
33808SOL    HW210203   6.557  10.944  10.640  1.0408  0.4120 -0.3875
33809SOL     OW10204  12.289   3.988  12.364  0.1209 -0.5346  0.4354
33809SOL    HW110205  12.355   3.964  12.430  0.0052 -1.9773  0.0549
33809SOL    HW210206  12.209   3.945  12.394  0.1769 -1.6023 -0.8651
33810SOL     OW10207  11.347   3.035   4.924  1.1310 -0.2356 -0.2945
33810SOL    HW110208  11.278   2.978   4.890  0.7890 -0.7454  1.1848
33810SOL    HW210209  11.356   3.104   4.858 -2.3517  1.1202  0.4598
33811SOL     OW10210   7.044   5.893   4.701  0.1674 -0.5768 -0.2842
33811SOL    HW110211   7.001   5.813   4.673 -0.5757 -0.6717  1.0436
33811SOL    HW210212   6.972   5.951   4.726  0.7529 -0.1856  0.5372
33812SOL     OW10213   3.555   8.068  10.806 -0.3282 -0.2956 -0.2906
33812SOL    HW110214   3.548   8.080  10.711  1.1653  2.6357 -0.1626
33812SOL    HW210215   3.648   8.049  10.821 -0.2758  0.6386  0.6599
33813SOL     OW10216   6.722   2.503   3.504  0.2608  0.6064 -0.3875
33813SOL    HW110217   6.763   2.588   3.492  0.5969  0.3547 -1.0835
33813SOL    HW210218   6.769   2.464   3.578  1.2697  0.3494 -1.1300
33814SOL     OW10219   4.647   2.927  12.418  0.6352 -0.1331 -0.2908
33814SOL    HW110220   4.595   2.946  12.340  0.5236 -0.0791 -0.2046
33814SOL    HW210221   4.736   2.955  12.395  0.4117  0.8316 -0.0527
33815SOL     OW10222  11.186   3.065   1.289 -0.2098 -0.6779 -0.0745
33815SOL    HW110223  11.226   3.129   1.348  2.3345 -1.0471 -1.2745
33815SOL    HW210224  11.092   3.073   1.307  0.1932  1.4984  1.6785
33816SOL     OW10225   9.973   5.386   9.915 -0.2032 -0.1613  0.7400
33816SOL    HW110226   9.910   5.421   9.853 -0.8301 -0.3325  1.2627
33816SOL    HW210227   9.957   5.291   9.914  0.6982 -0.3179  0.1786
33817SOL     OW10228   1.437  11.804   7.333 -0.2012 -0.0439  0.3970
33817SOL    HW110229   1.387  11.868   7.384 -0.1950 -0.6914  1.2198
33817SOL    HW210230   1.370  11.747   7.294 -0.3072  1.2674 -1.5037
33818SOL     OW10231  10.145   2.550  10.483  0.8274 -0.5834 -0.2059
33818SOL    HW110232  10.084   2.565  10.411  2.1010  1.4230 -0.9578
33818SOL    HW210233  10.232   2.566  10.446  1.4657  1.8821  2.0273
33819SOL     OW10234   0.184   5.672   5.923  0.8197 -0.2033  0.3867
33819SOL    HW110235   0.116   5.739   5.917 -0.8949 -1.5160  2.8734
33819SOL    HW210236   0.239   5.700   5.997  2.5547  0.3975 -1.0586
33820SOL     OW10237  10.266   0.996   1.427  0.0526 -0.2246 -0.2059
33820SOL    HW110238  10.177   1.015   1.454 -0.0662 -0.0072 -0.7321
33820SOL    HW210239  10.268   1.018   1.333  1.1699  1.5880  0.1964
33821SOL     OW10240   0.093   1.621  11.624  0.6754  0.0544 -0.5920
33821SOL    HW110241   0.025   1.686  11.610  0.8486 -0.1216 -2.5277
33821SOL    HW210242   0.175   1.666  11.602  1.2548  0.2686  1.7169
33822SOL     OW10243   2.008   6.263   6.116  0.4998  0.6775  0.2023
33822SOL    HW110244   1.924   6.299   6.145 -0.5588 -0.0636 -1.7970
33822SOL    HW210245   2.004   6.171   6.142  0.2879  0.4257 -0.7020
33823SOL     OW10246   6.878   9.281   9.545 -0.6052 -0.1363  0.0787
33823SOL    HW110247   6.807   9.344   9.534 -0.5298 -0.2316 -1.1200
33823SOL    HW210248   6.845   9.200   9.505 -0.1484 -0.4287  0.2834
33824SOL     OW10249   1.001   0.226   5.901 -0.4519  0.1476  0.1094
33824SOL    HW110250   0.965   0.141   5.928  0.4572 -0.4148 -0.4162
33824SOL    HW210251   1.074   0.241   5.961  1.1523 -0.7880 -1.5454
33825SOL     OW10252   1.784   3.960  12.369 -0.2066 -0.1062  0.5046
33825SOL    HW110253   1.715   4.020  12.340  0.2955 -0.4899 -1.6249
33825SOL    HW210254   1.744   3.873  12.365 -0.4515 -0.1087  2.1030
33826SOL     OW10255   9.831  10.131   4.555  0.4292  0.7247  0.3070
33826SOL    HW110256   9.864  10.221   4.557  2.2047  0.1577 -0.7479
33826SOL    HW210257   9.882  10.089   4.486  0.1787 -1.3008  1.2925
33827SOL     OW10258   5.975  11.089   5.968  0.4447  0.1843 -0.8503
33827SOL    HW110259   5.913  11.160   5.956  1.0047  2.0346  4.5745
33827SOL    HW210260   5.923  11.019   6.009  0.9458 -0.5481 -1.4257
33828SOL     OW10261  12.421   3.354   4.191  0.0709 -0.2719  0.0274
33828SOL    HW110262  12.451   3.439   4.220 -0.8866 -0.4441  1.6190
33828SOL    HW210263  12.500   3.299   4.191  0.8404  0.7521 -1.7441
33829SOL     OW10264  12.259   3.257   0.252  0.3209  0.2115 -0.0223
33829SOL    HW110265  12.318   3.330   0.271  0.2670  0.4172 -0.6288
33829SOL    HW210266  12.233   3.270   0.161  1.1232 -1.1328 -0.4732
33830SOL     OW10267  12.213   4.023   6.856  0.6293  0.6641  0.3817
33830SOL    HW110268  12.177   4.073   6.929 -0.9854  0.0036  0.0925
33830SOL    HW210269  12.169   4.059   6.779 -0.6449 -1.2071  0.1752
33831SOL     OW10270  12.104   9.347  11.157  0.2615 -0.1603 -0.2044
33831SOL    HW110271  12.083   9.432  11.197  1.3283 -0.3306  0.7973
33831SOL    HW210272  12.192   9.360  11.121  0.7656 -1.0656  0.6695
33832SOL     OW10273   2.137  10.846   4.612 -0.4100  0.1770 -0.4048
33832SOL    HW110274   2.204  10.891   4.562 -1.2895  0.8439 -1.0273
33832SOL    HW210275   2.176  10.831   4.698  0.5720  0.4106 -0.7989
33833SOL     OW10276   4.838   2.520  10.676  0.1463  0.4386  0.2444
33833SOL    HW110277   4.876   2.544  10.761 -1.4663  0.1008  1.0884
33833SOL    HW210278   4.760   2.574  10.669 -1.6098 -1.9033  0.5596
33834SOL     OW10279   4.887   7.895  10.787  0.0787 -0.2877 -0.4012
33834SOL    HW110280   4.913   7.903  10.879 -2.9767  2.0684  0.4137
33834SOL    HW210281   4.966   7.916  10.738  1.3218  0.2876  1.7099
33835SOL     OW10282   3.200   2.579   5.500  0.3860 -0.3653  0.4273
33835SOL    HW110283   3.255   2.652   5.527  0.9027 -0.2911 -0.7454
33835SOL    HW210284   3.255   2.529   5.439 -0.5782 -0.7135 -0.1899
33836SOL     OW10285   6.853  12.384   5.345  0.3559  0.1030  0.2507
33836SOL    HW110286   6.842  12.413   5.436  1.6228 -0.6242  0.6708
33836SOL    HW210287   6.786  12.317   5.334  0.2595  0.1170  0.7016
33837SOL     OW10288   1.101   6.633   5.461  0.0224 -0.7471  0.0772
33837SOL    HW110289   1.158   6.686   5.516 -2.9118 -0.8280  3.5718
33837SOL    HW210290   1.158   6.565   5.426  2.3400 -0.0056  2.1396
33838SOL     OW10291   4.815   8.366   3.367 -0.0172 -0.0660 -0.3020
33838SOL    HW110292   4.728   8.405   3.380  0.9260  1.9811  0.3569
33838SOL    HW210293   4.869   8.439   3.337  1.5411 -1.2337 -0.4183
33839SOL     OW10294   2.024   9.228   6.645 -0.6605  0.1729  0.2758
33839SOL    HW110295   1.975   9.243   6.726 -1.1477 -0.2087  0.0565
33839SOL    HW210296   2.094   9.293   6.647 -0.1933 -0.3486  1.3917
33840SOL     OW10297  11.509   9.506  11.112 -0.2585 -0.1859  0.0880
33840SOL    HW110298  11.492   9.414  11.089 -0.1973 -0.0956 -0.3246
33840SOL    HW210299  11.441   9.527  11.177 -1.5121  0.0492 -1.2520
33841SOL     OW10300   1.614   3.830   4.217 -0.1566 -0.2347  0.5245
33841SOL    HW110301   1.618   3.808   4.311  0.2414 -1.9641  0.1515
33841SOL    HW210302   1.666   3.910   4.209 -1.8278  1.0843  2.0495
33842SOL     OW10303  11.786   2.001   3.021 -0.1063 -0.2360  0.1020
33842SOL    HW110304  11.865   1.950   3.038 -1.2410 -1.3824  2.3522
33842SOL    HW210305  11.788   2.072   3.085 -0.2895  0.4794 -0.6720
33843SOL     OW10306   1.142  12.128   1.087 -0.3126  0.7021  0.5873
33843SOL    HW110307   1.167  12.058   1.026 -2.2912 -0.6223  1.1985
33843SOL    HW210308   1.078  12.180   1.038 -1.3269  0.0911  1.2389
33844SOL     OW10309   9.419   5.073   6.283  0.4623  0.1835 -0.1987
33844SOL    HW110310   9.329   5.104   6.268  0.0325 -0.7867  0.2716
33844SOL    HW210311   9.452   5.128   6.354  0.3835  0.8163 -0.6508
33845SOL     OW10312   9.858   6.482  12.016 -0.4612  0.4731 -0.5771
33845SOL    HW110313   9.893   6.564  12.051  0.8349 -0.6403  0.8865
33845SOL    HW210314   9.776   6.468  12.063  0.7500 -0.4786  1.3602
33846SOL     OW10315  11.793   2.436   7.673  0.6623 -0.0297  0.4204
33846SOL    HW110316  11.738   2.375   7.721  0.7442 -0.6209 -0.2214
33846SOL    HW210317  11.790   2.517   7.724 -1.8122  0.3616 -0.2365
33847SOL     OW10318   2.914   6.078  11.873 -0.1203  0.0479  0.4175
33847SOL    HW110319   2.997   6.050  11.910  0.8453  1.2399 -0.7543
33847SOL    HW210320   2.852   6.071  11.946  1.0658 -0.5301  1.4084
33848SOL     OW10321   8.467   3.291  10.920  0.0082 -0.4714 -0.0840
33848SOL    HW110322   8.544   3.235  10.907 -0.0558 -0.5940  0.0634
33848SOL    HW210323   8.486   3.369  10.868 -0.9179 -1.5614 -2.1394
33849SOL     OW10324   5.051   7.662  12.571 -0.4830 -0.1801 -0.1629
33849SOL    HW110325   5.092   7.606  12.506 -2.5920 -2.0610  0.0352
33849SOL    HW210326   5.013   7.734  12.520  0.2089 -0.1643 -0.6732
33850SOL     OW10327   7.818   5.131  11.334  0.3933 -0.5845 -0.3000
33850SOL    HW110328   7.840   5.221  11.359 -0.9154 -0.3309  0.0023
33850SOL    HW210329   7.787   5.090  11.415 -0.5775 -0.7951 -0.7563
33851SOL     OW10330   5.412  11.536  10.811 -0.5982  0.1421 -0.1046
33851SOL    HW110331   5.487  11.509  10.756 -0.9864 -2.6650  0.5604
33851SOL    HW210332   5.448  11.603  10.869  1.0897 -0.2433 -0.6319
33852SOL     OW10333  11.261   8.537   4.968  0.3275 -0.1975 -0.2688
33852SOL    HW110334  11.290   8.625   4.942 -1.6715  0.7730  0.5845
33852SOL    HW210335  11.339   8.497   5.007  1.5661  0.7846 -1.6287
33853SOL     OW10336   4.553   2.677  12.062  0.2368  0.4433 -0.5259
33853SOL    HW110337   4.553   2.758  12.010 -0.2231 -0.6418 -2.3215
33853SOL    HW210338   4.578   2.609  12.000  1.3050 -0.7306  1.1078
33854SOL     OW10339   3.882   7.819   1.852 -0.4408 -0.0697  0.1484
33854SOL    HW110340   3.893   7.725   1.839  0.3368 -0.2693  1.9063
33854SOL    HW210341   3.797   7.828   1.895 -0.0684 -0.1024  0.9206
33855SOL     OW10342  10.420   7.735   8.028 -0.0218  0.6713  0.6205
33855SOL    HW110343  10.421   7.821   7.985  1.8246  0.4323  0.0758
33855SOL    HW210344  10.512   7.709   8.030 -0.3612 -0.5665  2.2951
33856SOL     OW10345   4.075   9.070   2.453  0.3206  0.5773  0.1146
33856SOL    HW110346   4.010   9.085   2.385 -0.1130  1.4260  0.6957
33856SOL    HW210347   4.117   8.988   2.429  0.3730  1.0011 -1.3246
33857SOL     OW10348   5.531   5.147   4.992  0.5889 -0.1656  0.3811
33857SOL    HW110349   5.592   5.135   4.918  0.0165 -0.0316 -0.1183
33857SOL    HW210350   5.447   5.165   4.951  0.1174 -0.7695  1.0679
33858SOL     OW10351   3.166   4.947  11.027  0.5004 -0.1136  0.1605
33858SOL    HW110352   3.114   5.012  11.073  1.5516  2.0285 -1.4464
33858SOL    HW210353   3.257   4.976  11.039  0.9463 -0.8354 -1.1825
33859SOL     OW10354  11.374   4.851   0.968 -0.4367  0.5524  0.2399
33859SOL    HW110355  11.312   4.842   1.041  0.6440 -0.4072  1.0917
33859SOL    HW210356  11.327   4.815   0.892 -1.6874  1.8335  0.3688
33860SOL     OW10357  12.468  12.067   8.370 -0.4181  0.0446  0.2253
33860SOL    HW110358  12.458  11.995   8.433  2.5752  1.3088  2.4033
33860SOL    HW210359  12.535  12.035   8.309  1.7403  1.2041  1.8418
33861SOL     OW10360   5.422   9.071   9.712  0.8315 -0.3999 -0.0366
33861SOL    HW110361   5.473   9.050   9.634  0.5538  0.6955 -0.5459
33861SOL    HW210362   5.487   9.099   9.777  1.0787 -1.4880  0.2082
33862SOL     OW10363   9.004   7.482   1.637 -0.3161 -0.3009 -0.1864
33862SOL    HW110364   9.014   7.466   1.543  0.7729 -2.0606  0.1943
33862SOL    HW210365   9.070   7.427   1.679 -0.4556  0.8030  1.6098
33863SOL     OW10366   5.230   6.475  11.073 -0.1261  0.1930  0.6292
33863SOL    HW110367   5.283   6.422  11.014  0.2095 -0.7516  1.7479
33863SOL    HW210368   5.287   6.547  11.100  0.5617 -0.7029  1.6619
33864SOL     OW10369   2.537  11.408   2.209 -0.2689 -0.5247  0.2551
33864SOL    HW110370   2.459  11.463   2.213  0.9124  1.4487 -1.8685
33864SOL    HW210371   2.533  11.367   2.123  0.7370 -0.8594  0.3553
33865SOL     OW10372   2.154   3.701   0.932 -0.3798  0.2819  0.2795
33865SOL    HW110373   2.185   3.782   0.890  1.1799 -0.9587 -1.1023
33865SOL    HW210374   2.142   3.725   1.024 -1.7336  2.5248 -0.3990
33866SOL     OW10375  12.260   6.823   3.402  0.1940  0.1279  0.1523
33866SOL    HW110376  12.329   6.768   3.440  1.6593  1.9264  0.2648
33866SOL    HW210377  12.295   6.849   3.316 -0.4348  0.8968  0.1216
33867SOL     OW10378  10.995   8.872  10.962 -0.1360 -0.5282 -0.1595
33867SOL    HW110379  11.002   8.946  11.021  0.6431 -2.0890  1.8284
33867SOL    HW210380  10.905   8.875  10.930  0.1527  1.7817 -0.9393
33868SOL     OW10381  11.149  10.256  10.908 -0.4494  0.7399  0.1022
33868SOL    HW110382  11.182  10.309  10.981 -0.3486 -1.8260  2.0844
33868SOL    HW210383  11.058  10.236  10.932 -0.3795 -0.2302 -0.3832
33869SOL     OW10384   6.478   7.468   8.969  0.4429 -0.0047 -0.0167
33869SOL    HW110385   6.401   7.480   8.913  0.3055  0.4366  0.2567
33869SOL    HW210386   6.500   7.376   8.961 -0.4244 -0.2490  0.2880
33870SOL     OW10387  10.078  12.193   1.580  0.4866 -0.7871 -1.3908
33870SOL    HW110388   9.986  12.217   1.575  0.8810  0.8092 -1.6591
33870SOL    HW210389  10.082  12.124   1.646 -0.6097  0.8687  0.5536
33871SOL     OW10390   4.737   7.125   6.265 -0.2948  0.4017  0.1831
33871SOL    HW110391   4.768   7.156   6.180 -1.1857 -0.3746 -0.4462
33871SOL    HW210392   4.688   7.199   6.301 -0.3408  0.5650 -0.2065
33872SOL     OW10393  11.846   6.493   1.634  0.1374 -0.2079  0.0347
33872SOL    HW110394  11.938   6.475   1.618 -0.0848  0.0855 -1.8016
33872SOL    HW210395  11.832   6.581   1.598 -1.0225 -0.5950 -0.5235
33873SOL     OW10396   6.177   1.418   3.994  0.3888 -0.1120 -0.7694
33873SOL    HW110397   6.161   1.326   4.014  1.1187 -0.7965 -3.0070
33873SOL    HW210398   6.126   1.466   4.059  0.1817 -2.0806  0.6059
33874SOL     OW10399   0.366   0.488   6.284  0.4810 -0.3562  0.2026
33874SOL    HW110400   0.274   0.508   6.264  0.0909  0.0934  2.2061
33874SOL    HW210401   0.416   0.537   6.219 -0.6863 -0.7958 -1.0741
33875SOL     OW10402   2.921   9.007   1.743  0.3008 -0.0836 -0.3423
33875SOL    HW110403   2.971   9.045   1.670  0.6436 -0.8311 -0.5091
33875SOL    HW210404   2.980   8.941   1.779 -0.2578 -0.4064 -0.0182
33876SOL     OW10405   0.282   7.591   3.831  0.4640  0.5730 -0.7061
33876SOL    HW110406   0.323   7.580   3.744 -1.2285  0.5902 -1.5411
33876SOL    HW210407   0.250   7.503   3.853  1.8062  0.3251  0.4336
33877SOL     OW10408  11.994   1.523   8.944  0.7538  0.1088 -0.6754
33877SOL    HW110409  12.052   1.449   8.933  2.2986  1.4329 -1.9100
33877SOL    HW210410  12.051   1.595   8.972 -0.9143  0.5082  2.1061
33878SOL     OW10411  12.298   4.556   9.630 -0.4301  0.6217 -0.4803
33878SOL    HW110412  12.256   4.520   9.552  0.0909  0.7030 -0.8011
33878SOL    HW210413  12.277   4.649   9.628 -1.0887  0.4870 -0.0896
33879SOL     OW10414   2.175   7.254   7.246 -0.3451  0.1999  0.2100
33879SOL    HW110415   2.129   7.174   7.273  0.7791 -0.4300  0.3192
33879SOL    HW210416   2.184   7.305   7.326 -0.5899  0.1884  0.2452
33880SOL     OW10417  11.454  11.784   7.332 -0.1754  0.2001  0.1946
33880SOL    HW110418  11.482  11.696   7.307 -1.8472 -0.7823  1.5842
33880SOL    HW210419  11.509  11.806   7.407  0.6941  0.6609 -0.5459
33881SOL     OW10420   7.422   6.646   2.814  0.1336  0.1609  0.3920
33881SOL    HW110421   7.487   6.603   2.759  0.9039  1.1824  0.4733
33881SOL    HW210422   7.466   6.657   2.899  0.0955  1.4053  0.2673
33882SOL     OW10423   5.171   5.744  10.369  0.0094  0.4502  0.0568
33882SOL    HW110424   5.240   5.686  10.401  0.8630 -0.0550 -2.4898
33882SOL    HW210425   5.123   5.691  10.305 -0.1394  2.0487 -1.2268
33883SOL     OW10426  10.254  12.462   2.214  0.0007  0.2254 -0.0657
33883SOL    HW110427  10.308  12.470   2.135 -2.6518  0.6859 -1.9634
33883SOL    HW210428  10.184  12.527   2.202 -0.9869 -0.2959  2.2826
33884SOL     OW10429   6.920   2.732   2.022  0.0569  0.3679 -0.3856
33884SOL    HW110430   6.905   2.697   2.110 -2.3189  0.6015 -0.6259
33884SOL    HW210431   6.921   2.655   1.965  1.1670  0.2527 -0.2394
33885SOL     OW10432   4.327   1.417   4.232  0.1700 -0.0561 -0.1036
33885SOL    HW110433   4.394   1.370   4.182  1.5543  3.2243 -1.5952
33885SOL    HW210434   4.246   1.368   4.214  1.2661 -1.1362 -2.6286
33886SOL     OW10435   7.077   3.825   6.412 -0.2409  0.3858  0.0199
33886SOL    HW110436   7.079   3.781   6.326 -0.6012  1.2780 -0.4543
33886SOL    HW210437   7.165   3.861   6.422 -0.2856  0.5296 -0.1051
33887SOL     OW10438   7.451   3.487   3.539  0.2454  0.0696  0.2188
33887SOL    HW110439   7.479   3.525   3.623 -0.1739 -1.8571  1.2759
33887SOL    HW210440   7.423   3.399   3.561 -0.8381 -0.1380 -1.8193
33888SOL     OW10441   9.599   5.959  11.754 -0.1067  0.1757  0.4322
33888SOL    HW110442   9.665   6.005  11.702 -0.8621  0.9083  0.1042
33888SOL    HW210443   9.525   5.948  11.695 -0.4329 -0.2775  0.9175
33889SOL     OW10444   5.237   8.591   2.195 -0.6049  0.0523  0.3023
33889SOL    HW110445   5.274   8.534   2.262  0.6848  0.6067  0.0955
33889SOL    HW210446   5.143   8.594   2.215 -0.8747 -2.7033 -0.1087
33890SOL     OW10447   1.973   8.336   6.831  0.2357  0.4181  0.1946
33890SOL    HW110448   2.064   8.321   6.805 -0.0983  0.5330 -1.0898
33890SOL    HW210449   1.972   8.315   6.924  1.3846 -0.4667  0.0380
33891SOL     OW10450   6.677   8.960   6.135  0.4880  0.2891  0.2869
33891SOL    HW110451   6.619   9.032   6.110 -0.4594 -0.1064  1.2275
33891SOL    HW210452   6.692   8.974   6.229 -0.0268 -0.9318  0.5742
33892SOL     OW10453   7.683   0.872  10.478  0.1666  0.2683 -0.1762
33892SOL    HW110454   7.767   0.919  10.471  0.0052  0.5809 -0.0192
33892SOL    HW210455   7.644   0.906  10.558 -0.2723  0.3805 -0.4363
33893SOL     OW10456   4.808   8.520   7.615  0.6639 -0.1397 -0.1047
33893SOL    HW110457   4.859   8.600   7.601  1.4213 -0.5554  0.1728
33893SOL    HW210458   4.786   8.490   7.527  0.5316  0.2829 -0.2152
33894SOL     OW10459   1.082  10.306  10.350  0.6028  0.4120  0.0315
33894SOL    HW110460   1.131  10.367  10.295 -0.5623  0.1891 -1.3051
33894SOL    HW210461   1.012  10.273  10.293 -0.1487 -0.4588  1.4071
33895SOL     OW10462   5.341   5.328   8.794 -0.5175 -0.1853  0.0187
33895SOL    HW110463   5.436   5.331   8.804 -0.3430  0.2359 -1.5076
33895SOL    HW210464   5.307   5.345   8.882  0.8097 -0.1723  0.5527
33896SOL     OW10465   2.626  12.169   4.548  0.0873 -0.1450  0.4206
33896SOL    HW110466   2.639  12.212   4.632 -1.3829 -0.9144  1.0690
33896SOL    HW210467   2.555  12.217   4.506  0.6403  0.0791 -0.2909
33897SOL     OW10468  12.592  10.756   1.196 -0.3840  0.0821  0.5860
33897SOL    HW110469  12.654  10.724   1.131 -1.0657 -1.4394  0.6353
33897SOL    HW210470  12.622  10.844   1.218  0.4497  0.2258 -1.0269
33898SOL     OW10471   2.447   2.461   8.169  0.1655 -0.1278 -0.4140
33898SOL    HW110472   2.445   2.400   8.242 -1.6409  0.1767 -0.1688
33898SOL    HW210473   2.510   2.529   8.196  0.0218 -0.3689  0.5598
33899SOL     OW10474   9.851   0.525  10.653 -0.7100  0.1840  0.2761
33899SOL    HW110475   9.798   0.604  10.643 -0.6497  0.2635  0.5763
33899SOL    HW210476   9.940   0.553  10.630 -0.8116  0.0282 -0.3162
33900SOL     OW10477   5.242   7.410   7.090 -0.1584 -0.0077  0.4898
33900SOL    HW110478   5.312   7.475   7.081  0.4770 -0.5405  1.4688
33900SOL    HW210479   5.162   7.458   7.069  0.0883  1.5587  2.7959
33901SOL     OW10480   9.886   3.694  11.448  0.2496  0.6978 -0.1340
33901SOL    HW110481   9.971   3.684  11.491  1.1866 -2.0975 -2.3293
33901SOL    HW210482   9.894   3.775  11.398  0.3573  2.1734  2.1260
33902SOL     OW10483  11.987   0.393   1.458  0.8001  0.1920  0.1865
33902SOL    HW110484  12.044   0.377   1.383 -2.1957  0.5111 -2.4122
33902SOL    HW210485  11.991   0.487   1.473  0.2797  0.3615 -0.6576
33903SOL     OW10486   4.740   5.511   0.691  0.0793 -0.3431 -0.2665
33903SOL    HW110487   4.646   5.503   0.671 -0.0988  1.0321 -0.0929
33903SOL    HW210488   4.783   5.509   0.605 -0.0479 -1.4911 -0.3174
33904SOL     OW10489   4.233   7.084   5.155  0.2341  0.3287 -0.1149
33904SOL    HW110490   4.163   7.021   5.142  1.0839 -0.4917 -0.9483
33904SOL    HW210491   4.235   7.134   5.073  0.5005  0.4478 -0.0373
33905SOL     OW10492   1.856  10.739  10.018 -0.2921  0.3044 -0.6780
33905SOL    HW110493   1.928  10.695  10.064 -0.4660  1.3640  0.6588
33905SOL    HW210494   1.872  10.832  10.032 -1.0640  0.6059 -1.7072
33906SOL     OW10495  10.250   3.648   8.405  0.4391  0.3403  0.1549
33906SOL    HW110496  10.299   3.722   8.440  0.5051  0.3393  0.0650
33906SOL    HW210497  10.221   3.599   8.482 -0.0240  0.7276  0.2300
33907SOL     OW10498  11.509   6.971   7.454 -0.1540  0.7038  0.7382
33907SOL    HW110499  11.551   6.922   7.524 -1.6365  0.2887  1.3871
33907SOL    HW210500  11.581   7.000   7.397  0.8985 -0.6245  1.3538
33908SOL     OW10501   2.907   5.676   5.165 -0.4274 -0.3851  0.0260
33908SOL    HW110502   2.894   5.598   5.110 -1.5806 -0.5251  0.4615
33908SOL    HW210503   2.980   5.652   5.223 -1.4913 -1.6110  0.9279
33909SOL     OW10504   0.675   5.027   2.224  0.1603  0.3063 -0.6434
33909SOL    HW110505   0.626   4.944   2.220  0.6071  0.0672 -1.3801
33909SOL    HW210506   0.706   5.040   2.134 -0.1617  1.4325 -0.6031
33910SOL     OW10507   2.599   7.912   5.320  0.6066  0.5133 -0.1961
33910SOL    HW110508   2.661   7.958   5.377  1.4637  1.1971 -1.6295
33910SOL    HW210509   2.534   7.978   5.296 -1.3171 -0.4196  2.0420
33911SOL     OW10510  10.738   7.562   5.093  0.0566  0.2364  0.6891
33911SOL    HW110511  10.821   7.535   5.132  1.4265  0.5751 -1.7794
33911SOL    HW210512  10.725   7.501   5.020 -1.0333  1.1633  0.0826
33912SOL     OW10513   9.960   5.545   0.563 -0.2507 -0.1960 -0.1382
33912SOL    HW110514  10.005   5.626   0.536  0.1210 -1.0511 -2.2947
33912SOL    HW210515   9.875   5.550   0.519 -1.2783  0.1489  1.7706
33913SOL     OW10516   7.087  11.572  10.774  0.9331  0.0604  0.9071
33913SOL    HW110517   7.111  11.480  10.785  0.4983 -0.0449  0.9897
33913SOL    HW210518   7.155  11.620  10.821 -0.4179 -0.3299  3.3811
33914SOL     OW10519   3.838  10.189   2.399  0.6640 -0.1091  0.7361
33914SOL    HW110520   3.754  10.220   2.434  0.2099 -2.1924  1.7191
33914SOL    HW210521   3.814  10.120   2.337  1.6290 -0.5553  0.8390
33915SOL     OW10522   1.638   7.783   5.092 -0.3110 -0.8343 -0.3635
33915SOL    HW110523   1.597   7.870   5.091  0.9439 -0.2131 -1.3174
33915SOL    HW210524   1.583   7.730   5.035  0.2432  0.0248 -1.7420
33916SOL     OW10525   6.038   0.294   9.037 -0.4655 -0.1947 -0.4568
33916SOL    HW110526   6.101   0.251   9.094 -0.7532  0.9679  0.7914
33916SOL    HW210527   5.966   0.232   9.030  0.3008 -1.0547 -0.9634
33917SOL     OW10528  11.362   4.310   6.147 -0.3864 -0.6901 -0.1465
33917SOL    HW110529  11.268   4.293   6.150 -0.5654  0.1164 -1.0336
33917SOL    HW210530  11.388   4.286   6.058  0.6188 -2.6732  0.6029
33918SOL     OW10531   1.464   0.022   2.794  0.6462  0.2163  0.3018
33918SOL    HW110532   1.442  -0.058   2.746  1.4373 -0.6264  1.3040
33918SOL    HW210533   1.381   0.070   2.800 -0.3011 -1.4673  1.3651
33919SOL     OW10534   1.718   4.049   5.038 -0.3119 -0.2938 -0.7371
33919SOL    HW110535   1.717   3.956   5.018 -2.3127 -0.8358  1.4509
33919SOL    HW210536   1.751   4.090   4.958  3.4419 -2.9889 -0.8270
33920SOL     OW10537   5.412   8.977   7.666 -0.1094 -0.2310 -0.0371
33920SOL    HW110538   5.504   8.960   7.689  0.6364  1.9822 -1.0977
33920SOL    HW210539   5.362   8.942   7.740  1.6288 -0.7983  0.9354
33921SOL     OW10540   8.946  11.474  10.606  0.2494  0.4329 -0.1782
33921SOL    HW110541   8.985  11.532  10.541  0.4298  0.6751  0.1476
33921SOL    HW210542   9.019  11.419  10.636 -0.0533 -0.4382 -0.9870
33922SOL     OW10543   4.014   1.059   3.173  0.5119 -0.2247 -0.3500
33922SOL    HW110544   4.047   0.969   3.169  0.4454 -0.2611 -0.0622
33922SOL    HW210545   3.976   1.074   3.086 -0.1222 -0.7200 -0.1626
33923SOL     OW10546   4.444   0.096   4.213 -0.4962 -0.3979  0.9675
33923SOL    HW110547   4.361   0.140   4.231 -0.8535 -1.3219  1.6473
33923SOL    HW210548   4.481   0.145   4.140 -1.1045  0.7220  1.3842
33924SOL     OW10549   0.695   9.520   7.507 -0.3720 -0.3226  0.2367
33924SOL    HW110550   0.744   9.437   7.511  0.4344 -0.0673 -2.5252
33924SOL    HW210551   0.685   9.538   7.414 -1.0487  2.4210  0.7507
33925SOL     OW10552   4.262   4.638   6.381  0.4657 -0.4980  0.0062
33925SOL    HW110553   4.348   4.602   6.361  0.5560  1.4374 -4.0603
33925SOL    HW210554   4.201   4.577   6.339  0.1413  0.1362 -0.4568
33926SOL     OW10555   5.253   0.160   1.264  0.1807  0.1175 -0.3655
33926SOL    HW110556   5.297   0.118   1.190 -0.1566 -0.5724 -0.1781
33926SOL    HW210557   5.210   0.236   1.226  1.4019  0.7251 -0.5801
33927SOL     OW10558   7.534   0.273   4.541  0.4863 -0.5428  0.2349
33927SOL    HW110559   7.466   0.332   4.573  0.4063 -0.3859 -0.2077
33927SOL    HW210560   7.604   0.331   4.510 -0.4529 -0.5610 -2.1423
33928SOL     OW10561   3.177  10.643  10.726 -0.2298 -0.0481  0.0282
33928SOL    HW110562   3.174  10.627  10.632 -0.7562  0.1577  0.0041
33928SOL    HW210563   3.092  10.683  10.746 -1.2971 -2.6051  1.0393
33929SOL     OW10564   8.808   8.218  11.923  0.0773 -0.0687 -0.2631
33929SOL    HW110565   8.889   8.166  11.922  1.1452  1.5004  0.4138
33929SOL    HW210566   8.753   8.176  11.990  1.0888 -0.0940  0.5771
33930SOL     OW10567   0.051  10.117   0.104 -0.4358  0.2517  0.1769
33930SOL    HW110568  -0.043  10.098   0.106 -0.3490 -0.1323  0.6619
33930SOL    HW210569   0.088  10.045   0.053 -0.4590  0.6545 -0.4185
33931SOL     OW10570  12.021   6.177  12.265 -0.6068  0.3111  0.0647
33931SOL    HW110571  12.088   6.176  12.196 -0.8483 -1.8452 -0.2125
33931SOL    HW210572  11.947   6.224  12.226 -0.5927 -0.5304 -1.0292
33932SOL     OW10573   4.225  10.010   6.001 -0.0853 -0.1522  0.2172
33932SOL    HW110574   4.161  10.081   6.006  1.8492  1.7193 -0.0911
33932SOL    HW210575   4.252  10.007   5.910 -0.3525 -1.5495  0.1545
33933SOL     OW10576   0.233   6.667   7.216 -0.0517 -0.3491 -0.0452
33933SOL    HW110577   0.302   6.657   7.151  0.8995  1.4075  0.6069
33933SOL    HW210578   0.152   6.660   7.166  0.6427  0.2120 -1.3117
33934SOL     OW10579  12.239   7.599   2.776  0.0284 -0.0387  0.3154
33934SOL    HW110580  12.333   7.580   2.772 -0.0043 -0.0098 -1.3853
33934SOL    HW210581  12.208   7.551   2.852  1.4090 -0.1226  0.8492
33935SOL     OW10582   9.629   3.308   1.641  0.2851  0.1848 -0.1390
33935SOL    HW110583   9.581   3.370   1.587  0.0590  0.7780  0.7166
33935SOL    HW210584   9.721   3.320   1.616  0.0529 -0.6230 -1.4487
33936SOL     OW10585   0.472   0.374   0.893 -0.3943  0.2993 -0.2628
33936SOL    HW110586   0.383   0.355   0.924  0.5276  0.1202  2.6007
33936SOL    HW210587   0.526   0.309   0.938  1.1668  0.0146 -2.4192
33937SOL     OW10588   4.692   6.220  10.772  0.4584 -0.1965  0.2575
33937SOL    HW110589   4.691   6.126  10.794  0.7591 -0.4175 -0.6279
33937SOL    HW210590   4.685   6.222  10.677 -0.6577  0.7248  0.3351
33938SOL     OW10591   7.725   4.621   2.742  0.1985  0.0476 -0.5390
33938SOL    HW110592   7.764   4.610   2.655 -1.2080  1.2035 -1.3547
33938SOL    HW210593   7.770   4.696   2.780 -0.2744  0.5414 -0.9372
33939SOL     OW10594   8.377   7.278   2.961  0.4008 -0.1886  0.4407
33939SOL    HW110595   8.308   7.212   2.964 -0.1396  0.4144  2.2216
33939SOL    HW210596   8.341   7.349   2.908 -1.0663  0.8182  2.6328
33940SOL     OW10597   8.277   9.348   5.943 -0.5597  0.6062  0.0318
33940SOL    HW110598   8.253   9.436   5.915  2.4440  1.3219 -0.7087
33940SOL    HW210599   8.351   9.361   6.003 -0.8318 -1.3718  0.8861
33941SOL     OW10600   8.587   7.003   1.303  0.1814 -0.2995  0.1913
33941SOL    HW110601   8.671   6.957   1.312  0.2058 -0.1546  0.7260
33941SOL    HW210602   8.585   7.031   1.212  1.6977  1.5911  0.6839
33942SOL     OW10603  11.899   6.035   1.798 -0.3132 -0.5312  0.1774
33942SOL    HW110604  11.806   6.016   1.807 -0.0661 -1.4297  0.9518
33942SOL    HW210605  11.909   6.122   1.837 -0.9665 -0.0251 -0.7419
33943SOL     OW10606  12.210   9.224   0.912  0.0453  0.3731 -0.2509
33943SOL    HW110607  12.142   9.291   0.907  0.3352  0.7186  0.3015
33943SOL    HW210608  12.288   9.272   0.938  0.3408 -0.1265 -0.2101
33944SOL     OW10609   2.017   2.037  10.998  0.6478  0.0335 -0.8748
33944SOL    HW110610   1.925   2.031  10.970 -0.3008  1.2147  1.6293
33944SOL    HW210611   2.020   1.988  11.080  2.4329 -0.4681 -1.1952
33945SOL     OW10612   3.228   0.636  11.281 -0.5916  0.0712 -0.4896
33945SOL    HW110613   3.161   0.689  11.324  1.1047  3.0025 -1.1769
33945SOL    HW210614   3.225   0.664  11.189  0.4816 -0.9733 -0.8689
33946SOL     OW10615  12.392   1.887   2.725  0.3530  0.7592 -0.1145
33946SOL    HW110616  12.392   1.948   2.651  3.8562  1.9417  0.6625
33946SOL    HW210617  12.349   1.935   2.796  0.5091  1.1826 -0.3047
33947SOL     OW10618   2.025   2.968   9.423  0.1079 -0.5125  0.0810
33947SOL    HW110619   2.039   2.880   9.388  1.0573 -0.9503  1.4734
33947SOL    HW210620   2.035   2.958   9.518  2.8516  1.5167  0.1405
33948SOL     OW10621   7.090   0.855   0.096 -0.0783  0.7455 -0.0070
33948SOL    HW110622   7.091   0.931   0.154  0.3492 -0.3499  1.4998
33948SOL    HW210623   7.091   0.892   0.008 -0.9026  2.4843  0.6620
33949SOL     OW10624   0.722  12.239  11.096  0.7580 -0.2266 -0.5186
33949SOL    HW110625   0.808  12.216  11.062  1.2885  0.0448  0.6034
33949SOL    HW210626   0.665  12.168  11.064  1.0807  0.3131 -2.4259
33950SOL     OW10627  11.702   7.083  11.779  0.5756 -0.5561  0.3474
33950SOL    HW110628  11.788   7.068  11.739  0.3490  1.4627 -1.0468
33950SOL    HW210629  11.643   7.023  11.732  0.9398 -0.7210  0.0971
33951SOL     OW10630   5.827   3.586   7.930  0.1870  0.2890  0.0134
33951SOL    HW110631   5.838   3.529   7.854  1.7753  0.0007  0.4168
33951SOL    HW210632   5.853   3.532   8.005 -0.8281  0.7386  0.7238
33952SOL     OW10633   0.988   3.526  12.598  0.1319 -0.3753 -0.1003
33952SOL    HW110634   1.025   3.511  12.511 -0.1274 -2.2202  0.0690
33952SOL    HW210635   1.013   3.616  12.619  1.1560 -0.2617 -1.6143
33953SOL     OW10636   1.446   1.533   4.571 -0.1275 -0.1185 -0.0521
33953SOL    HW110637   1.471   1.443   4.551 -2.4212 -1.3347  2.0149
33953SOL    HW210638   1.510   1.561   4.636  0.2397 -0.4798 -0.2491
33954SOL     OW10639   1.789   5.029   8.310  0.2975  0.4514 -0.6080
33954SOL    HW110640   1.704   4.989   8.330  0.3560  0.2997 -0.6619
33954SOL    HW210641   1.783   5.052   8.218 -0.2841  1.9161 -0.2310
33955SOL     OW10642   6.428   6.414  10.582 -0.3174 -0.1596  0.0325
33955SOL    HW110643   6.339   6.430  10.615 -0.5158 -0.8350 -0.1699
33955SOL    HW210644   6.416   6.368  10.499  0.2189  0.0647 -0.1771
33956SOL     OW10645   8.556   1.709   3.742  0.5830 -0.5858 -0.1005
33956SOL    HW110646   8.545   1.793   3.788 -0.0278 -1.1917  0.8953
33956SOL    HW210647   8.510   1.722   3.659 -0.2747 -0.2136  0.4191
33957SOL     OW10648   3.935   5.579  11.169 -0.4695  0.1565  0.0620
33957SOL    HW110649   3.864   5.600  11.229 -0.6854  0.3466 -0.2534
33957SOL    HW210650   3.934   5.484  11.162 -0.2318  0.1135  0.6119
33958SOL     OW10651  10.121  12.080   3.814  0.2645  0.2931  0.8506
33958SOL    HW110652  10.029  12.077   3.842  0.0743  0.4977  0.2553
33958SOL    HW210653  10.121  12.046   3.725  0.8245 -0.0509  0.9792
33959SOL     OW10654   2.074  10.044   7.203 -0.0672  0.1858 -0.1171
33959SOL    HW110655   2.121  10.086   7.131  0.3524  0.6743  0.4371
33959SOL    HW210656   1.982  10.049   7.178  0.1475 -0.7343 -1.1825
33960SOL     OW10657   6.429   5.075   5.599  0.2661  0.3823  0.0406
33960SOL    HW110658   6.517   5.113   5.588 -0.4108  1.9928  0.0147
33960SOL    HW210659   6.396   5.066   5.509  0.2466  0.1454  0.0711
33961SOL     OW10660   2.931  11.341   5.486 -0.0591  0.5632  0.1293
33961SOL    HW110661   2.929  11.407   5.417 -1.0134 -0.2649 -0.6749
33961SOL    HW210662   3.024  11.327   5.502  0.1680  2.4431  0.6872
33962SOL     OW10663   3.410   8.752   1.775 -0.0181 -0.1692  0.1214
33962SOL    HW110664   3.460   8.809   1.716 -0.2253  1.4672  1.4599
33962SOL    HW210665   3.474   8.726   1.842 -0.4224  0.2050  0.6621
33963SOL     OW10666   4.929  10.521   7.624  0.0519  0.1289 -0.4040
33963SOL    HW110667   4.883  10.473   7.555 -1.5213 -1.2031  1.4521
33963SOL    HW210668   4.892  10.609   7.620 -1.4104 -0.4420 -0.1209
33964SOL     OW10669   3.498  11.621   7.215 -0.0762 -0.0750  0.1028
33964SOL    HW110670   3.480  11.532   7.186 -2.8322 -0.5146  2.6173
33964SOL    HW210671   3.449  11.676   7.154 -1.4673 -0.6030  0.6958
33965SOL     OW10672   2.403   7.723  12.604 -0.9414 -0.2307  0.0741
33965SOL    HW110673   2.478   7.708  12.547  1.6056  0.0321  3.1206
33965SOL    HW210674   2.376   7.813  12.584 -0.5547 -0.3542 -1.1193
33966SOL     OW10675   4.701   7.028   8.899 -0.0793  0.3964 -0.1868
33966SOL    HW110676   4.645   6.952   8.882 -0.1323  0.3157  0.3568
33966SOL    HW210677   4.747   7.007   8.980 -0.7804  1.3285  0.4786
33967SOL     OW10678   5.132  10.326   1.874  0.4022  0.1699 -0.2916
33967SOL    HW110679   5.125  10.233   1.850 -1.5479  0.4831 -1.0758
33967SOL    HW210680   5.126  10.326   1.969  1.3228 -0.5617 -0.2129
33968SOL     OW10681  12.329   4.552  11.996 -0.2200  0.0374 -0.0493
33968SOL    HW110682  12.407   4.515  11.955 -1.0672  0.0342 -1.7436
33968SOL    HW210683  12.328   4.514  12.084  2.0311  0.5860  0.2704
33969SOL     OW10684   6.175   9.902   7.136  0.3990 -0.3124 -0.1110
33969SOL    HW110685   6.154   9.959   7.209 -0.3847  1.5740 -1.7130
33969SOL    HW210686   6.131   9.819   7.157 -0.2972  0.3669  1.2674
33970SOL     OW10687   3.395  12.480   6.137 -0.2748 -0.0450 -0.2736
33970SOL    HW110688   3.436  12.559   6.101  1.0840  0.7818  2.7659
33970SOL    HW210689   3.468  12.425   6.165 -1.2198 -0.7428  0.9349
33971SOL     OW10690   1.892   1.308   2.594  0.3164 -0.1840 -0.3129
33971SOL    HW110691   1.874   1.397   2.566 -1.5540 -0.3756  0.1672
33971SOL    HW210692   1.817   1.283   2.648  0.7753 -2.0619 -0.4534
33972SOL     OW10693   5.162   0.295   7.058 -0.2161  0.0228  0.4687
33972SOL    HW110694   5.216   0.331   6.988  0.6134  0.2297  1.2061
33972SOL    HW210695   5.075   0.286   7.018 -0.2256  1.8830 -0.0491
33973SOL     OW10696   2.908   2.668   9.443 -1.0051 -0.3487 -0.9384
33973SOL    HW110697   2.982   2.659   9.383 -1.2983 -1.5444 -1.1435
33973SOL    HW210698   2.862   2.746   9.412 -0.0578  0.1925 -1.0412
33974SOL     OW10699   6.049   2.389   2.419 -0.1255  0.0884 -0.3873
33974SOL    HW110700   5.976   2.431   2.372 -0.6597 -2.2346 -1.7954
33974SOL    HW210701   6.031   2.295   2.412  0.7851 -0.4563  2.9699
33975SOL     OW10702   2.935   5.095   7.271 -0.0366 -0.1268  0.0653
33975SOL    HW110703   2.947   5.004   7.298  1.0987  0.5238  1.9380
33975SOL    HW210704   2.853   5.095   7.222  0.9344 -2.4899 -1.7728
33976SOL     OW10705  12.360   3.088   3.194  0.1917  0.4892 -0.1605
33976SOL    HW110706  12.411   3.150   3.143 -1.5149  0.8404 -1.5442
33976SOL    HW210707  12.341   3.016   3.133  1.6153 -1.1813  1.2260
33977SOL     OW10708   6.911   8.773   8.862  0.3613  0.1123 -0.7233
33977SOL    HW110709   6.872   8.861   8.868 -1.0366 -0.5349  0.3699
33977SOL    HW210710   6.859   8.729   8.795  0.0292 -0.3415 -0.1835
33978SOL     OW10711  12.145   3.068   6.433 -0.3860  0.4365  0.3649
33978SOL    HW110712  12.169   3.157   6.456 -0.4745  0.4712  0.3198
33978SOL    HW210713  12.182   3.055   6.345  0.1180  0.2410  0.5979
33979SOL     OW10714   8.826  12.416   8.568 -0.0475 -0.2399 -0.2829
33979SOL    HW110715   8.917  12.443   8.558  0.2149 -0.8299  0.5267
33979SOL    HW210716   8.828  12.321   8.566 -0.3958 -0.3298  1.7110
33980SOL     OW10717   5.542  11.778   4.746  0.6308  0.4550  0.3963
33980SOL    HW110718   5.484  11.719   4.793 -0.3054  1.7819  0.9567
33980SOL    HW210719   5.610  11.721   4.709 -2.1382 -1.4946 -2.1248
33981SOL     OW10720   3.653   4.255   0.126  0.1755  0.0050  0.2361
33981SOL    HW110721   3.727   4.196   0.139  0.1845 -0.5964 -2.1103
33981SOL    HW210722   3.690   4.330   0.079 -0.6182 -0.2294 -0.8227
33982SOL     OW10723   1.515   7.895   6.311 -0.4566  0.0180  0.2822
33982SOL    HW110724   1.527   7.966   6.375 -0.2362  0.8202 -0.6193
33982SOL    HW210725   1.579   7.829   6.337  0.2570  0.7252  0.3660
33983SOL     OW10726   2.681   5.690   3.845  0.4823 -0.1528  0.4083
33983SOL    HW110727   2.707   5.780   3.822 -0.5784 -0.0087 -0.2885
33983SOL    HW210728   2.764   5.644   3.856  1.0596  1.1191  1.6728
33984SOL     OW10729   7.771   5.849   6.772 -0.4619 -0.7325 -0.3063
33984SOL    HW110730   7.775   5.754   6.761 -0.1637 -0.5186 -2.6439
33984SOL    HW210731   7.685   5.874   6.739 -0.0227 -0.0846 -1.0134
33985SOL     OW10732   8.681  11.009   3.396 -0.8106  0.2747 -0.1446
33985SOL    HW110733   8.736  11.062   3.453 -0.8167  0.6469 -0.4795
33985SOL    HW210734   8.669  10.927   3.443 -1.7975  1.0155  0.9292
33986SOL     OW10735  10.423   5.345   2.649 -0.5767  0.2731 -0.4319
33986SOL    HW110736  10.495   5.293   2.685 -1.0843  0.4425  0.9175
33986SOL    HW210737  10.465   5.409   2.592  0.2672 -0.0966 -0.2411
33987SOL     OW10738  11.492   5.565   8.705  0.1946  0.4359  0.1255
33987SOL    HW110739  11.522   5.644   8.750  1.1521 -0.0733  0.4223
33987SOL    HW210740  11.438   5.597   8.633  1.7088  1.4506 -0.6179
33988SOL     OW10741   6.865   8.802   2.136  0.3425  0.5158 -0.1763
33988SOL    HW110742   6.776   8.786   2.104  0.3709  0.1460 -0.0868
33988SOL    HW210743   6.876   8.897   2.134 -0.3563  0.6211  0.5920
33989SOL     OW10744   7.900   0.373   9.890  0.3764 -0.1573 -0.0260
33989SOL    HW110745   7.948   0.354   9.971 -0.4837  0.5180  0.6693
33989SOL    HW210746   7.968   0.386   9.824  1.1527  0.6013  0.8917
33990SOL     OW10747  11.224   7.135   6.120 -1.3199  0.4960 -0.0599
33990SOL    HW110748  11.256   7.086   6.044 -1.1544  0.4958  0.0097
33990SOL    HW210749  11.246   7.226   6.101 -1.0626  0.4682  0.0954
33991SOL     OW10750   7.502  11.713   9.168  0.5599 -0.5085  0.1235
33991SOL    HW110751   7.519  11.802   9.198  1.1026 -0.1476 -1.1595
33991SOL    HW210752   7.428  11.721   9.108  0.9289 -0.8338 -0.3882
33992SOL     OW10753   0.472   1.723   7.611  0.0559  0.1758  0.2840
33992SOL    HW110754   0.497   1.689   7.525 -0.8943 -1.2969  0.5737
33992SOL    HW210755   0.477   1.648   7.670 -0.2034  0.9637  1.3512
33993SOL     OW10756   0.499   2.677   0.691  0.3288  1.0000  0.0232
33993SOL    HW110757   0.423   2.705   0.741  0.1991 -2.1529  1.8528
33993SOL    HW210758   0.467   2.667   0.602 -1.8917 -1.4830  0.9706
33994SOL     OW10759   8.883   9.843   1.731 -0.4151 -0.3820  0.0109
33994SOL    HW110760   8.957   9.904   1.741 -0.7567  0.1218 -0.5038
33994SOL    HW210761   8.886   9.816   1.640 -0.8365 -0.4000  0.0012
33995SOL     OW10762   0.175   2.627   4.005  0.5579  0.2106  0.3778
33995SOL    HW110763   0.189   2.569   4.080  1.0009  1.0619  0.9819
33995SOL    HW210764   0.098   2.679   4.030 -1.5664 -1.8981 -1.3215
33996SOL     OW10765   0.554   3.347  10.104  0.4633 -0.8203 -0.0586
33996SOL    HW110766   0.533   3.403  10.178 -1.5848 -1.6057  0.0280
33996SOL    HW210767   0.600   3.272  10.142 -2.5559 -2.3586  0.8993
33997SOL     OW10768  10.286   1.708   5.665 -0.5583 -0.2222 -0.5137
33997SOL    HW110769  10.246   1.625   5.692  2.3566 -0.8384  2.4925
33997SOL    HW210770  10.345   1.684   5.594  0.3827 -0.8062  0.4420
33998SOL     OW10771   8.795   5.502  10.435  0.4509 -0.2086 -0.4145
33998SOL    HW110772   8.720   5.442  10.427 -0.2524  0.2216  2.1849
33998SOL    HW210773   8.866   5.447  10.469  0.0898  0.1993  1.0365
33999SOL     OW10774   4.286   1.982  12.586 -0.1431 -0.1528  0.3964
33999SOL    HW110775   4.292   2.060  12.642 -0.6755 -0.5778  1.0719
33999SOL    HW210776   4.319   1.911  12.641 -2.4888 -0.9206  0.9242
34000SOL     OW10777   9.157   1.917   9.727 -0.1907  0.3644  0.2604
34000SOL    HW110778   9.105   1.991   9.759 -0.1393 -0.4389  2.3350
34000SOL    HW210779   9.094   1.863   9.680 -1.1526 -0.2623  2.1710
34001SOL     OW10780   0.063   8.591   9.087 -0.0954  0.6087  0.0406
34001SOL    HW110781   0.120   8.647   9.034  0.6494 -0.1037  0.0693
34001SOL    HW210782  -0.013   8.574   9.031  0.7530 -0.2625 -0.8880
34002SOL     OW10783  12.317   6.539   4.486  0.7956  0.4339 -0.3006
34002SOL    HW110784  12.334   6.574   4.574  2.7500  0.4569 -0.6485
34002SOL    HW210785  12.302   6.446   4.500  1.0934  0.4365  0.0621
34003SOL     OW10786   4.671   2.432   9.526  0.0268 -0.8202  0.4572
34003SOL    HW110787   4.629   2.438   9.440  0.0284 -1.1725  0.4293
34003SOL    HW210788   4.760   2.404   9.507  0.1289 -0.5587  0.5510
34004SOL     OW10789   2.612   3.204   1.646 -0.4278  0.8319 -0.0698
34004SOL    HW110790   2.605   3.143   1.573 -1.9652  0.9238 -0.0187
34004SOL    HW210791   2.602   3.291   1.607  2.0926  1.1633 -0.1933
34005SOL     OW10792   2.146   4.532   4.121 -0.1103  0.6964 -0.2796
34005SOL    HW110793   2.062   4.494   4.149  0.6063 -1.0133 -0.3011
34005SOL    HW210794   2.134   4.626   4.132 -1.9526  0.4875 -0.0618
34006SOL     OW10795   5.313   6.449   1.562  0.2375 -0.2660 -0.0193
34006SOL    HW110796   5.343   6.430   1.651  1.4327 -2.0864 -0.7452
34006SOL    HW210797   5.228   6.491   1.573 -0.4723 -2.0710  1.9300
34007SOL     OW10798  12.379  12.391   9.584  0.5401 -0.9146 -0.1129
34007SOL    HW110799  12.432  12.450   9.530  0.0869 -0.3178  0.0837
34007SOL    HW210800  12.379  12.431   9.671 -0.5755 -0.6703 -0.2073
34008SOL     OW10801   0.459   6.110   5.268 -0.3166  0.6004  0.6128
34008SOL    HW110802   0.374   6.154   5.263 -0.7287 -0.2587 -0.2730
34008SOL    HW210803   0.440   6.019   5.245  0.9717  0.5748 -0.4501
34009SOL     OW10804   9.887   9.348   0.292 -0.2827  0.2539  0.6608
34009SOL    HW110805   9.935   9.317   0.368  0.5018  0.1162  0.1173
34009SOL    HW210806   9.896   9.444   0.295  1.8496  0.1623 -0.5654
34010SOL     OW10807   7.893   3.970  10.423  0.0308 -0.0945 -0.6006
34010SOL    HW110808   7.862   4.057  10.446 -1.4944 -0.4720 -1.0782
34010SOL    HW210809   7.935   3.980  10.338 -1.5632 -0.0608 -1.4196
34011SOL     OW10810   1.904   6.472  10.157  0.6384  0.5866  0.1221
34011SOL    HW110811   1.881   6.489  10.248 -0.7622  0.3726 -0.1580
34011SOL    HW210812   1.944   6.553  10.126  0.2309  0.9982  0.6625
34012SOL     OW10813   1.585   6.244   3.130 -0.2630 -0.3736  0.0660
34012SOL    HW110814   1.496   6.244   3.167  0.0544 -1.7369  0.8960
34012SOL    HW210815   1.634   6.304   3.186 -0.2543 -0.9302  0.6596
34013SOL     OW10816   4.075   6.698   4.635  0.2259  0.2617  0.4860
34013SOL    HW110817   4.094   6.757   4.708  0.2547  1.2040 -0.2708
34013SOL    HW210818   4.065   6.755   4.559  0.8872 -0.7475 -0.4028
34014SOL     OW10819   7.301   6.799   1.360 -0.1292 -0.1826 -0.4038
34014SOL    HW110820   7.380   6.822   1.310 -1.2118  0.2219 -2.0171
34014SOL    HW210821   7.333   6.780   1.448  1.5747  1.6064 -0.5634
34015SOL     OW10822   5.008   0.401   9.160 -0.1254 -0.3882  0.0601
34015SOL    HW110823   4.976   0.491   9.168 -2.7071 -1.3675  3.3142
34015SOL    HW210824   5.088   0.408   9.109  0.7412  3.9732  1.5969
34016SOL     OW10825   7.051   7.877   3.801 -0.3580  0.3422  0.5533
34016SOL    HW110826   7.118   7.916   3.856  0.8221  0.4763 -0.8995
34016SOL    HW210827   7.098   7.847   3.723 -2.0084  0.6751 -0.6473
34017SOL     OW10828   9.055   0.377   2.246 -0.3567 -0.0983  0.2116
34017SOL    HW110829   9.050   0.348   2.337  0.6003  0.6677  0.5209
34017SOL    HW210830   9.094   0.304   2.199 -0.0941 -0.1893  0.5702
34018SOL     OW10831   1.329   5.797  11.454 -0.3288 -0.4339 -0.0426
34018SOL    HW110832   1.244   5.759  11.431 -0.4904  0.0265 -0.2313
34018SOL    HW210833   1.307   5.884  11.487  0.2664  1.0459 -3.1735
34019SOL     OW10834   4.482   2.369   9.919  0.0176  0.0447 -0.1543
34019SOL    HW110835   4.467   2.308   9.991  0.8054  0.3662  0.3033
34019SOL    HW210836   4.427   2.444   9.940 -0.5618 -0.2971 -0.4480
34020SOL     OW10837   0.590   5.157   6.020 -0.0552  0.2351 -0.6301
34020SOL    HW110838   0.670   5.178   5.972  0.3281  0.7173  0.1965
34020SOL    HW210839   0.591   5.062   6.029 -0.7628 -0.0187 -2.6208
34021SOL     OW10840   1.630   6.066  12.103  0.2496 -0.0715 -0.2983
34021SOL    HW110841   1.637   5.974  12.128  0.1950  0.4662  1.9298
34021SOL    HW210842   1.539   6.090  12.122 -0.0102  0.2132 -1.7986
34022SOL     OW10843   6.058   4.714   4.697  0.1393 -0.4567 -0.1406
34022SOL    HW110844   6.081   4.722   4.789 -0.1820  0.1664 -0.1116
34022SOL    HW210845   6.014   4.629   4.691 -0.5978 -0.1239  0.4442
34023SOL     OW10846   4.482   9.039   6.211 -0.2755 -0.2859  0.8270
34023SOL    HW110847   4.490   9.128   6.243 -0.8806 -0.3859  1.2778
34023SOL    HW210848   4.389   9.027   6.196 -0.0034 -0.2175 -1.1009
34024SOL     OW10849   5.861   3.223  11.368 -0.0130  0.1672  0.0025
34024SOL    HW110850   5.932   3.203  11.307 -0.1792 -1.2248  0.2217
34024SOL    HW210851   5.868   3.317  11.384  0.2228  0.5241 -1.9149
34025SOL     OW10852  10.107   2.729   1.593  0.0432 -0.3051 -0.3349
34025SOL    HW110853  10.066   2.803   1.549  0.0822 -0.4477 -0.6132
34025SOL    HW210854  10.054   2.654   1.567  0.1676 -0.4153 -0.2698
34026SOL     OW10855   5.795  10.368  11.796 -0.7600 -0.3885  0.1766
34026SOL    HW110856   5.789  10.273  11.812  0.5553 -0.4189  0.6489
34026SOL    HW210857   5.764  10.379  11.707  0.8747 -1.5626 -0.6068
34027SOL     OW10858   7.743  11.984   6.824  0.5951  0.1197 -0.1690
34027SOL    HW110859   7.765  11.949   6.910  1.0369  0.2906 -0.2095
34027SOL    HW210860   7.828  12.003   6.784  0.4006 -0.1761 -0.7324
34028SOL     OW10861   5.961   9.120   8.169 -0.0366 -0.6772 -0.6163
34028SOL    HW110862   5.956   9.215   8.161 -1.3212 -0.8713 -4.1306
34028SOL    HW210863   6.052   9.102   8.191  0.4716  1.3536 -0.8473
34029SOL     OW10864   7.095   8.615   7.422  0.0457  0.5434  0.1431
34029SOL    HW110865   7.140   8.668   7.356 -1.0793  1.8727  0.3963
34029SOL    HW210866   7.165   8.577   7.475  0.9222  0.4073 -1.0898
34030SOL     OW10867   0.861   7.891   2.813 -0.0079  0.1993 -0.1524
34030SOL    HW110868   0.953   7.874   2.790  0.2897 -2.0275  2.1642
34030SOL    HW210869   0.812   7.872   2.734  1.3581 -1.1544 -0.7187
34031SOL     OW10870   8.550   0.398   3.942 -0.4347 -0.5812  0.3419
34031SOL    HW110871   8.612   0.357   4.003 -0.2706  1.0002  1.2828
34031SOL    HW210872   8.472   0.415   3.994 -0.2319  0.9526  0.1933
34032SOL     OW10873   8.216   4.421   3.023  0.7899  0.1265 -0.1766
34032SOL    HW110874   8.272   4.368   2.967  0.2218 -0.1090 -0.5314
34032SOL    HW210875   8.207   4.370   3.103 -1.0218 -1.1004 -1.0929
34033SOL     OW10876   7.755   0.243   1.106  0.3200  0.2309  0.1013
34033SOL    HW110877   7.769   0.173   1.043 -0.4578 -0.6759  0.9120
34033SOL    HW210878   7.741   0.199   1.190  0.5797  1.3791  0.7822
34034SOL     OW10879  11.112   2.294   2.875  0.7428  0.9410 -0.3030
34034SOL    HW110880  11.029   2.290   2.922  0.8349  1.8641 -0.0528
34034SOL    HW210881  11.148   2.205   2.881  1.0333  1.1598  1.8604
34035SOL     OW10882   5.216   2.660   8.974 -0.1585 -0.8462 -0.6477
34035SOL    HW110883   5.155   2.594   9.007 -1.0708  0.1998 -0.1567
34035SOL    HW210884   5.163   2.717   8.919  0.6135 -0.5358 -1.0931
34036SOL     OW10885  11.604   2.405   0.928 -0.4951 -0.6438  0.0526
34036SOL    HW110886  11.560   2.476   0.976  2.0263  0.4503  0.9335
34036SOL    HW210887  11.637   2.447   0.849 -1.6472 -1.6402 -1.0018
34037SOL     OW10888  10.182  10.694   5.148  0.0013 -0.1261 -0.0278
34037SOL    HW110889  10.132  10.762   5.102  0.8029  0.5005  0.0024
34037SOL    HW210890  10.223  10.643   5.079  0.3255  0.1385 -0.0325
34038SOL     OW10891  11.921  12.272  10.204 -0.2988  0.6074 -0.2480
34038SOL    HW110892  12.010  12.302  10.184 -0.3656  0.8472 -0.1830
34038SOL    HW210893  11.870  12.352  10.216 -0.2828  0.4791  0.7677
34039SOL     OW10894   2.348   9.598   4.843  0.0035  0.2383  0.2726
34039SOL    HW110895   2.272   9.616   4.899 -0.2110  1.6672 -0.4204
34039SOL    HW210896   2.311   9.581   4.757  0.3865 -1.0266  0.3438
34040SOL     OW10897   3.619   9.617  12.210 -0.1695 -0.0922  0.0106
34040SOL    HW110898   3.552   9.634  12.276 -1.4918 -0.3210 -1.2180
34040SOL    HW210899   3.641   9.525  12.220 -0.3877 -0.1331  0.1103
34041SOL     OW10900   7.893  12.342   8.466  0.0451 -0.0218  0.2291
34041SOL    HW110901   7.921  12.310   8.552  1.4019 -3.6008 -1.3464
34041SOL    HW210902   7.963  12.402   8.439 -0.6417  1.5437  1.7092
34042SOL     OW10903   4.499   2.923   3.045  0.2225  0.4525  0.1238
34042SOL    HW110904   4.553   2.958   3.115  1.8444  0.3826 -1.0209
34042SOL    HW210905   4.538   2.959   2.965 -1.8282  0.8894 -0.7472
34043SOL     OW10906   0.724   7.721  11.979  0.1299  0.2578  0.2276
34043SOL    HW110907   0.655   7.763  12.031 -0.3936 -0.5298  0.1884
34043SOL    HW210908   0.787   7.790  11.963  0.5551  0.4251  2.3152
34044SOL     OW10909   1.177   1.043   5.890 -0.6398 -0.2928  0.6574
34044SOL    HW110910   1.166   1.020   5.982  0.5900  1.9258  1.4325
34044SOL    HW210911   1.252   1.103   5.889 -2.1015  1.6702 -1.4288
34045SOL     OW10912   3.162   7.025  11.808 -0.0972  0.2748  0.1981
34045SOL    HW110913   3.230   7.084  11.840  0.6230  0.1219 -1.0245
34045SOL    HW210914   3.202   6.939  11.809 -0.9549 -0.1477  1.3986
34046SOL     OW10915   6.434   1.781  12.493  0.5223 -0.4872 -0.3402
34046SOL    HW110916   6.484   1.773  12.412  0.4961 -0.0567 -0.3999
34046SOL    HW210917   6.468   1.861  12.534 -0.1271 -0.1891 -0.3821
34047SOL     OW10918   4.193   3.791  10.939  0.0801  0.5077 -0.9405
34047SOL    HW110919   4.100   3.786  10.918 -0.2651  0.8307  0.4238
34047SOL    HW210920   4.231   3.714  10.896 -1.1522 -0.7483  0.1437
34048SOL     OW10921   0.472   5.141   4.881 -0.1034 -0.1597  0.1708
34048SOL    HW110922   0.422   5.160   4.801  0.4191 -3.0648 -0.9898
34048SOL    HW210923   0.416   5.172   4.952 -2.0997 -0.3304 -1.2149
34049SOL     OW10924   1.517   6.639  10.490 -0.5279  0.7054 -0.1080
34049SOL    HW110925   1.540   6.677  10.575 -0.0922 -2.8189  1.5535
34049SOL    HW210926   1.497   6.714  10.434 -0.7587  3.2160  3.0568
34050SOL     OW10927  11.326  11.410  10.861  0.2061  0.0332  0.2122
34050SOL    HW110928  11.285  11.367  10.937  0.5511 -2.4361 -0.9087
34050SOL    HW210929  11.414  11.431  10.891 -0.4724  1.5537  1.2961
34051SOL     OW10930   1.110   3.984   3.912 -0.6827 -0.2300  0.2510
34051SOL    HW110931   1.192   3.975   3.961  1.1730 -1.5649 -2.8507
34051SOL    HW210932   1.046   4.011   3.978  1.9868 -0.1342  3.0150
34052SOL     OW10933   8.489   4.051  10.347 -0.0030 -0.3550  0.4845
34052SOL    HW110934   8.531   3.980  10.299  2.0459  1.4222 -0.5253
34052SOL    HW210935   8.561   4.096  10.392 -1.0621  1.6511  0.2847
34053SOL     OW10936   4.815   3.904   8.753  0.6426  0.3006 -0.1383
34053SOL    HW110937   4.861   3.985   8.731  0.5124  0.6363  0.7499
34053SOL    HW210938   4.735   3.907   8.701  0.4135  0.9857  0.2343
34054SOL     OW10939   3.329   8.206   9.982  0.4060 -0.1054  0.3076
34054SOL    HW110940   3.286   8.133  10.027  0.1776 -0.2418 -0.1281
34054SOL    HW210941   3.268   8.232   9.914  0.6443  0.2649  0.2316
34055SOL     OW10942   6.585   6.629  10.476  0.1137 -0.0592  0.8383
34055SOL    HW110943   6.528   6.555  10.496 -1.9316  1.0251 -0.6508
34055SOL    HW210944   6.649   6.593  10.414  0.1380 -0.9435  1.3532
34056SOL     OW10945   7.731   1.934   6.753 -0.5186 -0.0864 -0.0987
34056SOL    HW110946   7.747   1.972   6.666  0.8984 -0.0768  0.1290
34056SOL    HW210947   7.695   1.847   6.735 -0.4328 -0.0034 -0.7012
34057SOL     OW10948   5.422   9.760  11.544 -0.2342  0.0365 -0.2401
34057SOL    HW110949   5.352   9.730  11.603  0.6119  0.7802  1.1951
34057SOL    HW210950   5.492   9.696  11.556  0.2287  0.6024  0.1558
34058SOL     OW10951   9.768  10.626   7.919  0.6631  0.9231 -0.5861
34058SOL    HW110952   9.857  10.638   7.951  1.1398  1.5373 -2.0502
34058SOL    HW210953   9.775  10.560   7.851 -0.4687 -0.9714  1.0142
34059SOL     OW10954   9.275   0.016   6.888 -0.7044  0.0952  0.0560
34059SOL    HW110955   9.312   0.013   6.800 -0.5632 -0.6485  0.1359
34059SOL    HW210956   9.322   0.087   6.931 -0.6971  0.3919 -0.4294
34060SOL     OW10957  10.607   8.945   6.158  0.1596 -0.1141  0.0957
34060SOL    HW110958  10.652   9.003   6.098  0.4530 -0.3833  0.0550
34060SOL    HW210959  10.615   8.988   6.244 -0.3479  0.3194 -0.0679
34061SOL     OW10960   9.470   5.081   0.932  0.5597 -0.0058 -0.0242
34061SOL    HW110961   9.558   5.068   0.967  0.6512  3.0682  1.1646
34061SOL    HW210962   9.482   5.138   0.857 -0.3305 -0.7590 -0.7647
34062SOL     OW10963  12.301  10.965   9.913  0.0392  0.4039 -0.0720
34062SOL    HW110964  12.293  11.008   9.828  0.8172 -0.5833 -0.6745
34062SOL    HW210965  12.304  11.037   9.976 -1.2576  1.1328 -0.7953
34063SOL     OW10966   7.877   3.525   5.461 -0.1990 -0.0176  0.2657
34063SOL    HW110967   7.806   3.477   5.504 -1.0622  1.3911  0.4597
34063SOL    HW210968   7.846   3.615   5.457  0.8967  0.3182 -1.1604
34064SOL     OW10969   1.672  10.360   3.795 -0.9072  0.2935 -0.9447
34064SOL    HW110970   1.658  10.308   3.874  0.5423  1.8217  0.4273
34064SOL    HW210971   1.703  10.445   3.828  0.2173  0.8334 -3.1664
34065SOL     OW10972  11.041   7.550  10.273 -0.5742 -0.1198 -0.2279
34065SOL    HW110973  11.117   7.567  10.329 -0.8052 -0.5043  0.2137
34065SOL    HW210974  11.040   7.454  10.264 -0.6721 -0.0732 -0.7048
34066SOL     OW10975   3.862   2.437   3.075  0.0134 -0.3937 -0.3444
34066SOL    HW110976   3.929   2.410   3.013  0.8265  1.0188 -0.1266
34066SOL    HW210977   3.850   2.531   3.058 -0.4149 -0.1777  0.9962
34067SOL     OW10978  11.414   4.736   8.979 -0.3571  0.8751  0.4795
34067SOL    HW110979  11.330   4.708   9.018 -0.2958 -0.8818 -0.5505
34067SOL    HW210980  11.401   4.828   8.960 -2.9404  0.1928 -1.7052
34068SOL     OW10981   6.335   8.036   2.329  0.7812  0.1345  0.2590
34068SOL    HW110982   6.430   8.032   2.318  0.8410 -1.3357  1.1038
34068SOL    HW210983   6.309   8.116   2.283  2.6092  1.4441  1.3852
34069SOL     OW10984   2.713   5.995   5.305 -0.4526 -0.0857  0.2128
34069SOL    HW110985   2.766   5.962   5.377  0.8769  0.9885 -0.2378
34069SOL    HW210986   2.660   6.064   5.344  0.5590  0.7716  0.1104
34070SOL     OW10987   6.619   7.203   0.089 -0.2103 -0.0788  0.1887
34070SOL    HW110988   6.581   7.130   0.039 -0.7870  0.7620 -0.6213
34070SOL    HW210989   6.545   7.259   0.111  0.4491  1.3829 -1.0798
34071SOL     OW10990  12.397  10.417   8.638  0.1881  0.4354 -0.1017
34071SOL    HW110991  12.347  10.337   8.657  0.1624  0.5573  0.3617
34071SOL    HW210992  12.482  10.402   8.679  0.6092  0.1494 -1.0535
34072SOL     OW10993   2.196   9.447   5.621 -0.0667 -0.4574 -0.1799
34072SOL    HW110994   2.249   9.481   5.548  2.1015 -1.8071  0.6342
34072SOL    HW210995   2.186   9.354   5.600 -1.5875 -0.3614  0.0499
34073SOL     OW10996   4.191   7.578   6.346 -0.2237  0.0511  0.1487
34073SOL    HW110997   4.149   7.505   6.392  0.3597  0.5427  1.5170
34073SOL    HW210998   4.170   7.655   6.400 -1.7198  1.1091 -1.8149
34074SOL     OW10999   9.171  12.557   4.447 -0.0039 -0.0431  0.1604
34074SOL    HW111000   9.243  12.496   4.459 -0.5852 -0.7400  0.1628
34074SOL    HW211001   9.092  12.505   4.464 -0.6440  0.0676 -2.1709
34075SOL     OW11002   7.063   0.477   0.321  0.4543 -0.1113  0.6264
34075SOL    HW111003   7.110   0.399   0.293  0.8301 -1.0463  3.5408
34075SOL    HW211004   6.974   0.466   0.286  0.7009 -1.4576  0.3719
34076SOL     OW11005   0.882   4.528   0.854 -0.1075 -0.1097 -0.6626
34076SOL    HW111006   0.885   4.605   0.911 -0.0219 -0.6371  0.0616
34076SOL    HW211007   0.946   4.467   0.893 -0.7838 -0.8790 -0.7277
34077SOL     OW11008   5.896   9.009  12.282  0.2355 -0.2187 -0.0836
34077SOL    HW111009   5.991   9.015  12.272  0.3243  1.9239  1.4144
34077SOL    HW211010   5.865   9.099  12.274 -1.3200 -0.4522  2.2217
34078SOL     OW11011   6.268  12.211   1.962  0.4161 -0.0552 -0.0669
34078SOL    HW111012   6.291  12.292   2.007 -0.5542 -0.7986  1.8939
34078SOL    HW211013   6.275  12.144   2.029 -1.2466 -1.2184 -0.9882
34079SOL     OW11014   1.206   0.867   9.281 -0.0995 -0.0755  0.4107
34079SOL    HW111015   1.231   0.910   9.199 -0.3059  0.4371  0.6194
34079SOL    HW211016   1.113   0.886   9.292  0.0597  0.3414  1.0611
34080SOL     OW11017   4.236   0.068   9.670  0.0490 -0.4787 -0.4299
34080SOL    HW111018   4.163   0.077   9.731  0.3936 -1.9279  0.2219
34080SOL    HW211019   4.299   0.134   9.697  0.0815 -0.9324  0.6133
34081SOL     OW11020   3.448   0.720   1.362  0.1376 -0.3744  0.2930
34081SOL    HW111021   3.528   0.773   1.367 -0.6805  0.9617 -0.2914
34081SOL    HW211022   3.390   0.759   1.428 -1.9864  2.1763 -2.8250
34082SOL     OW11023  10.522  12.072  11.958  0.3612  0.2998  0.4595
34082SOL    HW111024  10.532  12.166  11.943  0.2591  0.0157 -1.6576
34082SOL    HW211025  10.600  12.047  12.007  0.5420  1.4346  0.7718
34083SOL     OW11026  12.022   6.991   9.318 -0.2465 -0.4340 -0.1098
34083SOL    HW111027  12.008   6.964   9.409  1.2969  0.2404  0.3498
34083SOL    HW211028  12.113   7.019   9.315  0.0408 -1.4381 -2.1264
34084SOL     OW11029   1.517   9.812   4.894  0.2323 -0.2580 -0.5571
34084SOL    HW111030   1.500   9.730   4.940  0.4997 -0.3699 -0.6604
34084SOL    HW211031   1.458   9.810   4.819 -0.9594  0.3856  0.3243
34085SOL     OW11032  11.446   7.616   2.725  0.7831 -0.6560  0.1358
34085SOL    HW111033  11.424   7.535   2.771 -1.7354  0.9149  1.9573
34085SOL    HW211034  11.505   7.662   2.785  0.7255 -0.3544 -0.0337
34086SOL     OW11035   2.442   4.405   4.090  0.8907  0.2826 -0.2166
34086SOL    HW111036   2.476   4.411   4.179  0.3243  2.5675 -0.0946
34086SOL    HW211037   2.376   4.475   4.085 -1.1592 -1.6102 -1.5532
34087SOL     OW11038  12.306   2.658  11.273 -0.2633 -0.4603 -0.2672
34087SOL    HW111039  12.400   2.640  11.273  0.0394  0.9941 -0.8182
34087SOL    HW211040  12.276   2.628  11.359  0.7610 -0.6622  0.0344
34088SOL     OW11041   0.870  12.449   3.360  0.3266 -0.6992  0.0049
34088SOL    HW111042   0.831  12.373   3.317  1.3122  0.4307 -3.1250
34088SOL    HW211043   0.960  12.422   3.379 -0.1708 -1.2818  1.7984
34089SOL     OW11044   9.758   5.835  10.616 -0.1785  0.0453  0.1340
34089SOL    HW111045   9.764   5.805  10.706  0.2173  1.9808  0.7931
34089SOL    HW211046   9.739   5.928  10.622 -1.4727 -0.0196 -1.8075
34090SOL     OW11047   4.691  10.733   1.434  0.1046 -0.6865 -0.4264
34090SOL    HW111048   4.748  10.665   1.472  1.8693  1.3701  0.8447
34090SOL    HW211049   4.603  10.710   1.464  0.9114 -1.4105  1.5651
34091SOL     OW11050  10.607   4.968   6.002 -0.9301 -0.7895 -0.3675
34091SOL    HW111051  10.653   5.003   6.079 -1.8083 -1.2617  0.3832
34091SOL    HW211052  10.647   5.014   5.928  0.4882 -0.9049  0.2900
34092SOL     OW11053   4.163  12.005   6.665 -0.2872  0.3878  0.3123
34092SOL    HW111054   4.202  11.920   6.644 -0.2991  0.4172  0.1727
34092SOL    HW211055   4.075  11.984   6.695  0.0778  0.2640  1.3275
34093SOL     OW11056   7.922   9.600   2.270 -0.3974 -0.1316  0.1244
34093SOL    HW111057   7.924   9.505   2.254 -1.2370 -0.1090 -0.1455
34093SOL    HW211058   7.853   9.633   2.213 -2.2072  0.2176  2.3329
34094SOL     OW11059   6.550   2.019   4.866  0.3691 -0.0116  0.4955
34094SOL    HW111060   6.534   1.927   4.888 -1.0692 -0.7266 -2.8997
34094SOL    HW211061   6.642   2.022   4.838  0.7572 -0.0935  1.6800
34095SOL     OW11062   8.735  10.895  11.205 -0.0181  0.0397  0.0103
34095SOL    HW111063   8.709  10.804  11.195 -2.3463  0.5401  0.7624
34095SOL    HW211064   8.755  10.904  11.298  0.3308  0.2858 -0.0848
34096SOL     OW11065   1.807  11.803   7.068 -0.1719 -0.7569 -0.1579
34096SOL    HW111066   1.748  11.783   7.141 -1.0393  0.1591 -0.5815
34096SOL    HW211067   1.883  11.845   7.110 -2.1268  3.0404  0.0784
34097SOL     OW11068  12.021   0.733  11.441  0.2185 -0.4081  0.0354
34097SOL    HW111069  11.965   0.721  11.365  0.7858 -0.4502 -0.3839
34097SOL    HW211070  12.052   0.824  11.433  0.7169 -0.5866 -0.0918
34098SOL     OW11071   3.271   7.966   8.311  0.3672 -0.8061  0.5550
34098SOL    HW111072   3.218   7.920   8.377 -0.5201 -2.4808 -1.2279
34098SOL    HW211073   3.351   7.990   8.358 -1.9429  2.1418  3.4850
34099SOL     OW11074  12.319   0.718  11.390 -0.5230 -0.3387  0.1265
34099SOL    HW111075  12.399   0.729  11.440 -0.3942 -0.8645  0.0414
34099SOL    HW211076  12.249   0.741  11.451 -0.2394  2.0638 -0.3712
34100SOL     OW11077   2.883   2.960   3.306 -0.2982  0.3901  0.1802
34100SOL    HW111078   2.941   2.885   3.294 -0.2622  0.6068 -1.1387
34100SOL    HW211079   2.899   2.988   3.396 -0.3778 -1.2221  0.7306
34101SOL     OW11080   2.019   2.064  12.594 -0.2349  0.6620 -0.1358
34101SOL    HW111081   2.002   2.157  12.607 -1.5062  0.4796 -0.4069
34101SOL    HW211082   2.100   2.048  12.642 -0.0642  1.8773  0.0201
34102SOL     OW11083  11.600  12.077   2.728 -0.2042 -0.1010 -0.0983
34102SOL    HW111084  11.677  12.082   2.671 -0.2157 -0.7927 -0.1819
34102SOL    HW211085  11.532  12.038   2.673 -0.3762 -0.2521  0.2217
34103SOL     OW11086  11.546   3.921   3.797  0.1696  0.2836  0.1061
34103SOL    HW111087  11.620   3.884   3.749 -0.5113 -1.6507  0.4410
34103SOL    HW211088  11.543   3.870   3.878  1.5149  3.6804  2.5098
34104SOL     OW11089  11.351   5.555   5.444 -0.0700  0.2021 -0.3739
34104SOL    HW111090  11.302   5.580   5.522  1.3475 -0.8122  0.8720
34104SOL    HW211091  11.326   5.464   5.428  2.0661 -0.6578  0.8625
34105SOL     OW11092   8.468  11.536  11.458 -0.0149 -0.4495 -0.0003
34105SOL    HW111093   8.435  11.561  11.372  0.7416 -0.9920 -0.4613
34105SOL    HW211094   8.430  11.450  11.474 -1.3248  0.2614  0.8693
34106SOL     OW11095   7.250   2.723   4.056  0.2261  0.4592  0.0012
34106SOL    HW111096   7.302   2.723   3.975 -2.0072  0.1258 -1.5305
34106SOL    HW211097   7.310   2.692   4.123  1.9071 -0.2154 -1.7178
34107SOL     OW11098   7.627   5.015   3.747  0.3049 -0.1861 -0.0745
34107SOL    HW111099   7.578   5.007   3.829 -2.2846  1.6322 -1.3080
34107SOL    HW211100   7.646   5.108   3.739  1.4091 -0.4741 -1.0773
34108SOL     OW11101   6.880   1.394   6.169  0.4244 -0.4676 -0.0208
34108SOL    HW111102   6.869   1.328   6.101 -0.5426 -0.0462 -0.2992
34108SOL    HW211103   6.965   1.375   6.208  1.9022  0.4459 -2.6054
34109SOL     OW11104   2.430   1.296   5.052 -0.1514  0.4448  0.6150
34109SOL    HW111105   2.435   1.244   4.972  0.6756  2.2082 -0.5387
34109SOL    HW211106   2.339   1.325   5.056 -0.8815 -1.7442  1.7831
34110SOL     OW11107  10.466   6.415   2.700  0.6008  0.4084 -0.2589
34110SOL    HW111108  10.436   6.470   2.628 -1.5934 -0.3192  0.0158
34110SOL    HW211109  10.547   6.457   2.730  0.1904  2.1915 -1.4629
34111SOL     OW11110  11.114   9.967   7.302  0.1182  0.2376 -0.5814
34111SOL    HW111111  11.130  10.008   7.387 -0.4612 -0.3748 -0.1723
34111SOL    HW211112  11.201   9.937   7.273  0.5434  1.6363 -0.8485
34112SOL     OW11113   7.989   2.283   8.884 -0.5124 -0.1354 -0.1795
34112SOL    HW111114   8.058   2.348   8.869 -1.2350  0.7370  0.2451
34112SOL    HW211115   8.037   2.201   8.895  0.3571  0.1058 -1.8132
34113SOL     OW11116   0.335   4.806   1.533  0.0023 -0.9132 -0.2937
34113SOL    HW111117   0.345   4.887   1.583 -0.4793 -0.9010 -0.2061
34113SOL    HW211118   0.284   4.749   1.590 -1.1991 -0.6323 -1.0384
34114SOL     OW11119  11.440   2.140   6.923  0.0674  0.2221 -0.1647
34114SOL    HW111120  11.509   2.075   6.934  1.0024  1.4309  1.5970
34114SOL    HW211121  11.373   2.115   6.987 -0.2683  0.1483 -0.5390
34115SOL     OW11122   8.703   1.710   6.482  0.0964  0.2292 -0.2384
34115SOL    HW111123   8.783   1.726   6.431 -0.3254  0.3536 -0.8781
34115SOL    HW211124   8.632   1.742   6.426 -0.5243 -1.1414 -0.2821
34116SOL     OW11125   9.203   8.336  11.081  0.1991  0.0565 -0.0771
34116SOL    HW111126   9.152   8.415  11.099  0.2605 -0.1100  0.8843
34116SOL    HW211127   9.275   8.367  11.025  0.3321  0.7307  0.4447
34117SOL     OW11128   8.271   1.450  12.425  0.0434  0.1187 -0.3936
34117SOL    HW111129   8.329   1.510  12.378 -0.8574  0.4968 -1.0503
34117SOL    HW211130   8.183   1.483  12.407 -0.4681 -1.3146 -0.6468
34118SOL     OW11131   6.348  10.408   9.543  0.6600  0.1550  0.2839
34118SOL    HW111132   6.376  10.375   9.628 -1.2484 -0.5572  0.7068
34118SOL    HW211133   6.401  10.486   9.528  1.2619  0.1112  1.9699
34119SOL     OW11134   0.040   0.632   0.015  0.0879 -0.3058  1.0740
34119SOL    HW111135   0.060   0.547   0.054 -1.9479 -1.4897 -0.3048
34119SOL    HW211136   0.098   0.637  -0.062  1.1694  0.2055  1.8911
34120SOL     OW11137   4.663   9.182  12.501 -0.3602 -0.2748  0.4111
34120SOL    HW111138   4.687   9.135  12.581 -1.4458 -0.0680  0.8768
34120SOL    HW211139   4.685   9.273  12.519 -1.3183 -0.1083  0.7810
34121SOL     OW11140   5.754   9.464   5.272  0.8793 -0.3809  0.2701
34121SOL    HW111141   5.784   9.523   5.203  0.5247  0.1545  0.5645
34121SOL    HW211142   5.738   9.521   5.347 -0.6704 -0.6582  0.1804
34122SOL     OW11143   5.426   9.159   7.945 -0.4638  0.2365 -0.2226
34122SOL    HW111144   5.428   9.063   7.949 -0.8699  0.0931 -2.1823
34122SOL    HW211145   5.517   9.185   7.933 -0.3610  0.0940  0.2407
34123SOL     OW11146   0.842   2.137   1.160  0.1387 -0.8781 -0.1372
34123SOL    HW111147   0.865   2.204   1.095 -0.0807 -1.2713 -0.6271
34123SOL    HW211148   0.877   2.056   1.123 -2.1459 -1.5456 -1.0041
34124SOL     OW11149   3.256  11.504   9.445  0.4523 -0.0698 -0.1043
34124SOL    HW111150   3.213  11.456   9.516  1.4135  0.8071  1.1204
34124SOL    HW211151   3.187  11.559   9.408  0.3979  1.2099  1.7340
34125SOL     OW11152   8.637   7.070   3.510 -0.2636  0.0086 -0.2702
34125SOL    HW111153   8.684   7.110   3.583  0.5392  1.8715 -1.7151
34125SOL    HW211154   8.606   6.986   3.543  0.8731  0.3959  1.8898
34126SOL     OW11155   3.663   2.212   9.961 -0.1855  0.8245  0.3750
34126SOL    HW111156   3.757   2.227   9.959 -0.0056 -0.0560  1.3251
34126SOL    HW211157   3.640   2.215  10.053 -0.4708 -2.2933  0.5416
34127SOL     OW11158   4.233   8.327   6.290 -0.1442 -0.4131  0.4802
34127SOL    HW111159   4.246   8.418   6.317  0.9969  0.1994 -1.8893
34127SOL    HW211160   4.139   8.322   6.270 -0.3727 -0.0098  1.3715
34128SOL     OW11161   0.692   8.017   1.239 -0.1292 -0.3629  0.4830
34128SOL    HW111162   0.761   7.950   1.230 -1.1622 -1.5233  0.9001
34128SOL    HW211163   0.647   8.015   1.155 -0.4115 -0.4893  0.6356
34129SOL     OW11164  12.187   6.171   2.708  0.4377  0.2063  0.5275
34129SOL    HW111165  12.248   6.166   2.634  1.6417  1.9802  1.3362
34129SOL    HW211166  12.100   6.179   2.667  0.9289 -0.2364 -0.6494
34130SOL     OW11167   7.080   9.780   0.705 -0.0513  0.5427  0.0817
34130SOL    HW111168   7.044   9.697   0.735  1.0600  0.4837  1.3714
34130SOL    HW211169   7.023   9.807   0.633 -0.8973 -0.9354  0.1590
34131SOL     OW11170   3.018   4.466   9.099  0.1814  0.2304 -0.0760
34131SOL    HW111171   3.049   4.473   9.009 -0.4238 -0.3638 -0.3317
34131SOL    HW211172   2.923   4.471   9.093  0.0751 -0.8839  0.4150
34132SOL     OW11173   9.169   0.731   4.848 -0.5912  0.3912  0.6015
34132SOL    HW111174   9.170   0.653   4.905  1.7991  1.5425  2.3022
34132SOL    HW211175   9.234   0.712   4.781 -0.6476  0.5734  0.4964
34133SOL     OW11176   4.482   5.114   4.280  0.4679  0.4256  0.0677
34133SOL    HW111177   4.472   5.020   4.269  1.2432  0.1514  1.4232
34133SOL    HW211178   4.398   5.151   4.253  0.4295 -0.5670 -1.2303
34134SOL     OW11179   7.241  11.494   1.108  0.2394  0.3765 -0.6890
34134SOL    HW111180   7.207  11.409   1.134 -1.8778  1.2476 -0.3072
34134SOL    HW211181   7.209  11.506   1.018  0.5236  0.7497 -0.7449
34135SOL     OW11182   7.859   2.462   9.612 -0.7687 -0.1855 -0.0154
34135SOL    HW111183   7.916   2.408   9.667 -0.0237 -1.4793 -1.9622
34135SOL    HW211184   7.913   2.487   9.537 -1.5162  2.1645  0.1201
34136SOL     OW11185   5.285   3.578  12.335  0.2399  0.1335  0.2304
34136SOL    HW111186   5.362   3.526  12.310  0.4100  0.6052 -0.2377
34136SOL    HW211187   5.227   3.515  12.377  0.9681 -0.1915  0.7826
34137SOL     OW11188   8.645   9.198   1.379  0.4100 -0.8706 -0.5014
34137SOL    HW111189   8.603   9.174   1.461  0.3409  1.7649  0.3493
34137SOL    HW211190   8.727   9.148   1.378  0.7462 -0.4658  1.5647
34138SOL     OW11191   2.228   6.133   0.003  0.1811  0.0912  0.1006
34138SOL    HW111192   2.175   6.186   0.063  0.0073 -0.4004  0.3889
34138SOL    HW211193   2.225   6.045   0.041 -1.6473 -0.6943 -1.6911
34139SOL     OW11194   2.458   1.124   5.279  0.3907  0.2198 -0.4280
34139SOL    HW111195   2.367   1.094   5.282  1.1733 -2.6254 -1.4019
34139SOL    HW211196   2.466   1.170   5.196 -0.4131  1.6840  0.2614
34140SOL     OW11197   0.550   9.072   5.920 -0.3533 -0.6767 -0.0732
34140SOL    HW111198   0.587   9.146   5.968  0.8874  0.5525 -2.7167
34140SOL    HW211199   0.472   9.047   5.970 -0.9726  2.6083  0.8335
34141SOL     OW11200   1.105  12.382   9.476 -0.0150 -0.0698 -0.0275
34141SOL    HW111201   1.132  12.388   9.384  1.2359 -0.6078  0.2845
34141SOL    HW211202   1.097  12.288   9.493  0.3868  0.0016  0.5834
34142SOL     OW11203   9.697   9.141  12.176 -0.2402  0.0855  0.1842
34142SOL    HW111204   9.717   9.052  12.204 -0.3092 -0.0961 -0.3307
34142SOL    HW211205   9.747   9.153  12.095 -1.3718 -0.0036 -0.5450
34143SOL     OW11206  11.273   4.080   4.471 -0.1141 -0.0320 -0.9299
34143SOL    HW111207  11.365   4.058   4.459 -0.6050 -1.4506 -2.6402
34143SOL    HW211208  11.235   4.004   4.515 -0.1899  1.2733  1.3999
34144SOL     OW11209   3.368   9.481   8.950 -0.2537 -0.0202 -0.2575
34144SOL    HW111210   3.330   9.498   8.864 -0.3073  0.9951 -0.0403
34144SOL    HW211211   3.451   9.437   8.931 -0.4274 -0.1127 -0.8149
34145SOL     OW11212  12.183   0.999   7.228  0.8480 -0.2068  0.5849
34145SOL    HW111213  12.105   0.953   7.196  0.5401  0.6247  0.0988
34145SOL    HW211214  12.240   1.006   7.152  0.8374  0.3157  0.6227
34146SOL     OW11215   5.076   1.148  10.673 -0.3949  0.5202 -0.2063
34146SOL    HW111216   5.061   1.084  10.604  1.6459  0.9679 -1.1345
34146SOL    HW211217   5.101   1.228  10.627  0.3296  1.0330  1.0192
34147SOL     OW11218   1.239   1.616   4.745  0.3229 -0.0354  0.3518
34147SOL    HW111219   1.215   1.523   4.740  1.1103 -0.3319  1.6052
34147SOL    HW211220   1.327   1.620   4.709 -0.5222  0.6433 -1.8545
34148SOL     OW11221   8.300   4.716   3.237  0.3210  0.9217 -0.0247
34148SOL    HW111222   8.269   4.663   3.164 -0.1424 -0.4917  1.1469
34148SOL    HW211223   8.266   4.804   3.219  1.6320  1.0424 -2.3208
34149SOL     OW11224   0.122   3.642   4.923 -0.2763  0.3334 -0.3218
34149SOL    HW111225   0.134   3.647   4.828  3.1698 -0.9656 -0.1208
34149SOL    HW211226   0.113   3.733   4.951  2.1251  1.0766 -1.6618
34150SOL     OW11227   3.982   6.454  11.717  0.3674 -0.2131  0.4099
34150SOL    HW111228   3.947   6.401  11.789 -0.8677 -0.4308 -0.3320
34150SOL    HW211229   3.963   6.544  11.741 -1.1822 -0.3475 -0.1915
34151SOL     OW11230   2.110   9.749   2.959  0.3063  0.5299 -0.0342
34151SOL    HW111231   2.057   9.671   2.977  0.2898  0.4368 -0.4577
34151SOL    HW211232   2.050   9.822   2.973  0.0652  0.4262 -0.4890
34152SOL     OW11233  10.480   2.273  11.983  0.0801 -0.4840 -0.1580
34152SOL    HW111234  10.515   2.247  12.068  0.1179  1.7385  0.5789
34152SOL    HW211235  10.534   2.227  11.919  1.3913 -0.6037  0.9944
34153SOL     OW11236   8.361   0.851  10.447 -0.0604 -0.7620  0.0851
34153SOL    HW111237   8.325   0.771  10.484  1.0254 -1.0838  0.4754
34153SOL    HW211238   8.454   0.831  10.432  0.6946  1.0027  1.9175
34154SOL     OW11239   0.229   7.613   6.522 -0.2742 -0.0825  0.0474
34154SOL    HW111240   0.264   7.690   6.566 -0.5443  0.7344 -1.1134
34154SOL    HW211241   0.134   7.625   6.524 -0.3662 -0.8061  0.5820
34155SOL     OW11242   7.246   8.350   5.260  0.4185  0.1821 -0.5109
34155SOL    HW111243   7.174   8.287   5.262  0.4028  0.1977  1.5080
34155SOL    HW211244   7.205   8.433   5.239 -0.3252  0.3196  1.2963
34156SOL     OW11245   1.670   6.327  11.413 -0.0316  0.3941  0.2387
34156SOL    HW111246   1.737   6.291  11.356  0.6919  1.4149  0.4170
34156SOL    HW211247   1.714   6.339  11.497 -0.3699  1.2399  0.3074
34157SOL     OW11248   6.606  11.117   8.897 -0.2398 -0.1691 -0.1941
34157SOL    HW111249   6.569  11.115   8.809 -1.2903  1.5707  0.1585
34157SOL    HW211250   6.578  11.201   8.933  1.5692 -0.1018  1.2087
34158SOL     OW11251   7.110   8.287   0.696  0.0137 -0.0829 -0.1909
34158SOL    HW111252   7.153   8.328   0.771 -0.3664  0.3842 -0.2232
34158SOL    HW211253   7.118   8.193   0.712  0.5342  0.0098  0.0893
34159SOL     OW11254  10.334   5.566   7.800 -0.1478  0.2379  0.1702
34159SOL    HW111255  10.296   5.654   7.802 -0.1126  0.3026 -1.2088
34159SOL    HW211256  10.383   5.562   7.718 -0.1907 -1.0915  0.1832
34160SOL     OW11257   9.333   3.122   8.593  0.3774  0.3269 -0.2585
34160SOL    HW111258   9.355   3.216   8.592  2.1237 -0.0528 -0.6167
34160SOL    HW211259   9.358   3.093   8.680 -0.0593  0.1534 -0.1881
34161SOL     OW11260   4.329   6.620   0.092  0.3554  0.2382 -0.8965
34161SOL    HW111261   4.416   6.656   0.074 -0.5377  2.9327 -0.2733
34161SOL    HW211262   4.340   6.570   0.173  0.9830  2.3999  0.4554
34162SOL     OW11263   8.515   1.001   5.120 -0.5472  0.1349  0.1139
34162SOL    HW111264   8.483   1.005   5.210 -1.0792  2.5623 -0.1205
34162SOL    HW211265   8.601   1.043   5.124 -1.3976  2.0856 -0.7701
34163SOL     OW11266   4.398  10.512   9.606  0.0391  0.3576  0.7155
34163SOL    HW111267   4.438  10.592   9.640  0.1392  0.2028  0.9636
34163SOL    HW211268   4.350  10.476   9.680 -1.5835  1.1731  0.1128
34164SOL     OW11269   7.384   6.632  10.838 -0.0575  0.4461  0.8231
34164SOL    HW111270   7.382   6.537  10.851  0.0530  0.4490  0.8655
34164SOL    HW211271   7.324   6.648  10.766 -0.8453  0.4483  1.4622
34165SOL     OW11272   0.918   9.579   3.657  0.2930 -0.4390 -0.1774
34165SOL    HW111273   0.976   9.618   3.723 -1.7391  0.8797  0.9163
34165SOL    HW211274   0.888   9.498   3.697  0.3038 -0.4269 -0.1444
34166SOL     OW11275  12.518   2.639   2.728 -0.1840  0.1677 -0.0140
34166SOL    HW111276  12.433   2.600   2.706 -0.3647  0.3145  0.4096
34166SOL    HW211277  12.517   2.645   2.824  0.5642 -0.4149  0.0404
34167SOL     OW11278   6.732   3.425   6.487 -0.3611  0.2703  0.5170
34167SOL    HW111279   6.663   3.406   6.550 -0.6793  1.4998  0.5449
34167SOL    HW211280   6.728   3.519   6.473  1.0200  0.3093  0.1828
34168SOL     OW11281   3.277   2.989  11.143 -0.4036  0.0145  0.3117
34168SOL    HW111282   3.367   2.959  11.159 -0.1344  1.6074  2.2103
34168SOL    HW211283   3.288   3.076  11.103 -1.0730  0.7017  1.5788
34169SOL     OW11284   4.037   4.735   7.907 -0.3400 -0.3787 -0.3861
34169SOL    HW111285   4.035   4.722   7.812  1.0260 -2.9535 -0.1406
34169SOL    HW211286   4.087   4.816   7.920  1.2624 -1.0931 -1.8128
34170SOL     OW11287  11.864  11.383   4.162  0.2954 -0.0713 -0.6413
34170SOL    HW111288  11.805  11.457   4.146 -0.7557 -1.0105 -1.2630
34170SOL    HW211289  11.844  11.320   4.092  0.9988 -1.0409 -0.0034
34171SOL     OW11290  11.919  10.570   4.923  0.3426 -0.3086  0.0682
34171SOL    HW111291  11.958  10.593   5.007  0.2131 -2.4147  0.7633
34171SOL    HW211292  11.948  10.481   4.907 -2.1403 -1.0780 -0.5776
34172SOL     OW11293  10.307   4.533   3.868 -0.2497 -0.2056  0.1600
34172SOL    HW111294  10.234   4.542   3.930  2.9838  0.1269  4.4092
34172SOL    HW211295  10.340   4.444   3.882  0.9656  0.1010 -0.6183
34173SOL     OW11296   3.966  10.899   1.707 -0.3361 -0.4587 -0.3321
34173SOL    HW111297   3.977  10.982   1.661  0.2033  0.0541  0.6835
34173SOL    HW211298   3.954  10.834   1.638 -1.0178  0.4966 -1.1266
34174SOL     OW11299   9.108   2.655   6.410 -0.4239  0.4402 -0.1229
34174SOL    HW111300   9.021   2.653   6.449 -0.8339 -1.2706 -1.0539
34174SOL    HW211301   9.093   2.691   6.322 -0.0223  1.0209  0.0377
34175SOL     OW11302   7.996   9.533   4.518  0.5296  0.4610 -0.3616
34175SOL    HW111303   8.022   9.451   4.477  0.5674  0.3642 -0.1425
34175SOL    HW211304   8.059   9.597   4.485  1.6947  0.0397  0.9447
34176SOL     OW11305   8.746   1.409   0.419 -0.3097  0.4758 -0.6257
34176SOL    HW111306   8.679   1.448   0.364 -0.1424  2.2774  0.3827
34176SOL    HW211307   8.720   1.432   0.508  0.2142 -1.1279 -0.0162
34177SOL     OW11308   5.663   8.149  10.636 -0.1717 -0.0160  0.4873
34177SOL    HW111309   5.741   8.146  10.579 -0.8432  1.7991 -0.6399
34177SOL    HW211310   5.681   8.221  10.696 -0.3488 -0.5906  1.2332
34178SOL     OW11311   9.172  12.386  12.130  0.1532 -0.0781  0.1703
34178SOL    HW111312   9.263  12.409  12.148 -0.0123  0.2392  0.6228
34178SOL    HW211313   9.121  12.438  12.192 -0.2924 -0.8750  0.4981
34179SOL     OW11314   1.548   2.928   7.963 -0.0031  0.0226  0.1936
34179SOL    HW111315   1.623   2.920   8.022 -1.0555  1.3659  1.8024
34179SOL    HW211316   1.475   2.889   8.012 -0.2120 -2.3275 -1.7855
34180SOL     OW11317   8.849   3.684  11.365  0.1545  0.0128 -0.0681
34180SOL    HW111318   8.856   3.664  11.272 -2.1610  0.5333 -0.4263
34180SOL    HW211319   8.911   3.626  11.407  1.1978 -0.2889 -1.9251
34181SOL     OW11320   2.650  11.290   9.466 -0.4849 -0.0167 -0.0825
34181SOL    HW111321   2.662  11.274   9.559  1.1168 -0.3524 -0.3119
34181SOL    HW211322   2.656  11.385   9.457  0.3827 -0.0520  0.0484
34182SOL     OW11323   4.705   4.360   7.596 -0.5531  0.0749 -0.1157
34182SOL    HW111324   4.766   4.417   7.550 -0.2518 -0.3130 -0.2025
34182SOL    HW211325   4.619   4.386   7.565 -0.3313 -0.4338 -1.1719
34183SOL     OW11326   8.129   3.742   1.701  0.0799 -0.5602 -0.0832
34183SOL    HW111327   8.056   3.778   1.752  0.5965 -1.2263  1.1817
34183SOL    HW211328   8.089   3.680   1.640 -0.6559  0.9356 -1.1876
34184SOL     OW11329   6.796   2.396   8.445 -0.1868 -0.1094 -0.5752
34184SOL    HW111330   6.720   2.454   8.449 -0.5802 -0.6106 -0.6803
34184SOL    HW211331   6.760   2.310   8.426  0.3748 -0.4341 -0.2142
34185SOL     OW11332   2.296   4.756   0.280  0.3501  0.3816  0.0766
34185SOL    HW111333   2.206   4.782   0.259  0.2541  1.0655  1.2198
34185SOL    HW211334   2.300   4.763   0.376  2.0137  1.7010 -0.0566
34186SOL     OW11335   5.876   0.232   0.688  0.8882 -0.5345 -0.3284
34186SOL    HW111336   5.799   0.276   0.653  0.2463 -1.0847  0.3609
34186SOL    HW211337   5.879   0.148   0.642 -1.0755 -2.1011  2.1930
34187SOL     OW11338   4.663   4.486   9.315 -0.0273 -0.3573  0.7369
34187SOL    HW111339   4.736   4.537   9.350  1.7546 -1.2458 -1.4137
34187SOL    HW211340   4.597   4.552   9.292  0.1964  0.4982  2.4035
34188SOL     OW11341   1.251   6.413   8.798  0.0192  0.1894  0.4914
34188SOL    HW111342   1.269   6.506   8.812 -0.2101  0.3702 -0.3629
34188SOL    HW211343   1.288   6.370   8.875  0.3868  0.9534  0.7561
34189SOL     OW11344   5.424   6.909   7.427  0.8599  0.2186 -0.0465
34189SOL    HW111345   5.328   6.915   7.431  0.7829 -0.5692 -0.5301
34189SOL    HW211346   5.453   6.999   7.416 -0.0486  0.2074 -3.6674
34190SOL     OW11347   5.482   2.495   7.973  0.5227  0.1328  0.4651
34190SOL    HW111348   5.471   2.400   7.979  0.0655  0.2374  1.6889
34190SOL    HW211349   5.507   2.522   8.061  1.0215  1.1130  0.0408
34191SOL     OW11350   6.412   2.854   9.345 -0.1575 -0.3164  0.0103
34191SOL    HW111351   6.339   2.856   9.407 -1.0558 -0.8194 -0.9953
34191SOL    HW211352   6.411   2.764   9.311  0.4093 -0.0895 -0.6120
34192SOL     OW11353   2.672   4.693   4.766 -0.1601 -0.7318 -0.3192
34192SOL    HW111354   2.620   4.711   4.844  1.1940 -1.7340  0.8688
34192SOL    HW211355   2.651   4.603   4.742 -0.6793 -0.3841 -1.2322
34193SOL     OW11356   0.971   8.088  11.102 -0.1186 -0.3136  0.0394
34193SOL    HW111357   0.905   8.156  11.110  0.5445  0.2396  0.9763
34193SOL    HW211358   1.027   8.116  11.030 -1.6464 -1.4653 -1.6961
34194SOL     OW11359   6.146   4.816   0.575  0.4541  0.1177 -0.0731
34194SOL    HW111360   6.204   4.857   0.511 -2.5297 -0.0371 -3.1975
34194SOL    HW211361   6.160   4.865   0.656  2.4878  2.1909 -1.5777
34195SOL     OW11362   8.208   2.086   5.348  0.5874  0.2458  0.4583
34195SOL    HW111363   8.245   2.172   5.332 -0.4370  0.1068 -4.3768
34195SOL    HW211364   8.159   2.094   5.430  0.0115  4.4551 -0.1175
34196SOL     OW11365   3.365  11.339   2.872 -0.2232  0.0741 -0.4113
34196SOL    HW111366   3.313  11.321   2.951  0.6459  1.0421  0.3906
34196SOL    HW211367   3.365  11.434   2.864  1.2851  0.0848 -0.4900
34197SOL     OW11368   3.171   9.435   5.344  0.0191  0.1999 -0.2094
34197SOL    HW111369   3.123   9.412   5.423 -1.2023  0.6522 -0.8026
34197SOL    HW211370   3.263   9.435   5.371 -0.4301  1.2807  1.4478
34198SOL     OW11371   6.309   6.444  11.690 -0.6520 -0.2420 -0.2139
34198SOL    HW111372   6.369   6.519  11.696  0.5905 -1.2020 -0.3533
34198SOL    HW211373   6.289   6.436  11.597  0.4841 -1.0333 -0.4084
34199SOL     OW11374   1.243   0.444   4.794  0.2212 -0.0795  0.2579
34199SOL    HW111375   1.324   0.489   4.817 -0.7482  1.4459  0.8490
34199SOL    HW211376   1.174   0.502   4.825 -1.1114 -1.5386  0.1567
34200SOL     OW11377  10.706   3.570  11.473  0.5526  0.3926 -0.3028
34200SOL    HW111378  10.791   3.575  11.516  0.9758  1.2940 -1.2086
34200SOL    HW211379  10.720   3.511  11.398  0.1159 -0.2464  0.1043
34201SOL     OW11380   7.342   9.804  11.154  0.2293 -0.4706 -0.1250
34201SOL    HW111381   7.334   9.739  11.083 -1.6274  0.3363 -0.7323
34201SOL    HW211382   7.362   9.752  11.232 -0.2084 -1.6797 -0.7818
34202SOL     OW11383  12.208   3.171  10.758 -0.6957  0.1772 -0.7301
34202SOL    HW111384  12.168   3.255  10.782 -0.0678  0.0493  0.8844
34202SOL    HW211385  12.302   3.187  10.761 -0.4002 -1.3082  2.8886
34203SOL     OW11386   6.586   0.843   2.617 -0.3427  0.2303  0.0827
34203SOL    HW111387   6.492   0.849   2.601 -0.4213 -1.5987 -0.4504
34203SOL    HW211388   6.623   0.818   2.532  0.3055 -1.3665  0.7897
34204SOL     OW11389   4.019   0.959   7.888  0.4634 -0.4770  0.0680
34204SOL    HW111390   3.957   1.028   7.862  1.1675 -0.4960 -1.8051
34204SOL    HW211391   4.072   1.000   7.956  1.6112  1.3261 -1.7773
34205SOL     OW11392   1.365   0.487   9.337 -0.7773 -0.3507  0.4415
34205SOL    HW111393   1.409   0.402   9.324  0.9371  0.3081  1.5440
34205SOL    HW211394   1.317   0.476   9.418  1.7952  0.5476  2.1996
34206SOL     OW11395   4.717   5.801   7.183  0.7278  0.2740 -0.1803
34206SOL    HW111396   4.774   5.871   7.152 -0.8009  0.8731 -1.7902
34206SOL    HW211397   4.642   5.803   7.124 -1.3998  0.0844  2.3676
34207SOL     OW11398   7.168   7.197  11.717 -0.2161 -0.2847  0.3178
34207SOL    HW111399   7.086   7.153  11.740  0.1987 -0.9619  0.5384
34207SOL    HW211400   7.225   7.127  11.685 -0.2570  0.4010 -1.3746
34208SOL     OW11401   7.853  10.906   3.093 -0.1160  0.4592 -0.3278
34208SOL    HW111402   7.762  10.894   3.122  0.3809 -1.7944  0.4567
34208SOL    HW211403   7.855  10.870   3.005 -0.2069  1.5529 -0.7934
34209SOL     OW11404   3.096  10.139   6.230 -0.1470 -0.1291 -0.0469
34209SOL    HW111405   3.063  10.110   6.315  0.5363 -1.0952 -0.0985
34209SOL    HW211406   3.189  10.118   6.232 -0.1479 -0.2599 -1.0850
34210SOL     OW11407   8.094   2.125  12.434 -0.4029  0.0704  0.0240
34210SOL    HW111408   8.104   2.051  12.374 -0.9785  0.3317 -0.3925
34210SOL    HW211409   8.059   2.195  12.380 -0.2572  0.5238  0.5165
34211SOL     OW11410   6.881  12.383   0.860 -0.1107  0.8217 -0.2455
34211SOL    HW111411   6.830  12.377   0.940 -0.0356 -0.2748 -0.2679
34211SOL    HW211412   6.972  12.375   0.889 -0.0826  0.4280 -0.4352
34212SOL     OW11413   5.572   5.944   9.829  0.4580  0.4910 -0.1777
34212SOL    HW111414   5.505   6.012   9.828  2.1166  2.3165  2.2572
34212SOL    HW211415   5.523   5.863   9.816 -2.3310  1.6797  1.8911
34213SOL     OW11416   3.690  12.492  11.496  0.0497  0.2139  0.5488
34213SOL    HW111417   3.660  12.407  11.528 -0.3981  0.7283  1.5471
34213SOL    HW211418   3.622  12.519  11.435  0.6577 -0.5494 -0.4943
34214SOL     OW11419   2.917   5.749  11.561 -0.3128 -0.1893 -0.0366
34214SOL    HW111420   2.910   5.835  11.520  2.3678  0.3637  0.5100
34214SOL    HW211421   2.851   5.696  11.516 -1.6526  1.9590 -0.7754
34215SOL     OW11422   3.621   6.635  12.159  0.2571 -0.7278 -0.4221
34215SOL    HW111423   3.531   6.653  12.187  0.0439  0.0836 -1.5330
34215SOL    HW211424   3.672   6.630  12.240 -0.7526 -0.9906  0.2096
34216SOL     OW11425   5.627   2.953   4.854 -0.4714  0.0372  0.2818
34216SOL    HW111426   5.634   3.013   4.780  0.4169  1.8236  1.7416
34216SOL    HW211427   5.695   2.981   4.915 -1.4710 -1.0746  1.9997
34217SOL     OW11428   6.616   4.196  11.442 -0.5683  0.0725 -0.1192
34217SOL    HW111429   6.572   4.248  11.509 -0.8403 -0.5141  0.1725
34217SOL    HW211430   6.704   4.181  11.477  0.3107  2.2321 -1.2236
34218SOL     OW11431  12.537   7.397   3.528  0.4452  0.2883 -0.3356
34218SOL    HW111432  12.552   7.311   3.487 -0.7394  0.9182 -2.2247
34218SOL    HW211433  12.609   7.452   3.496  0.9423  0.1400  0.5036
34219SOL     OW11434   2.334   3.226   1.088 -0.5850 -0.2206 -0.3231
34219SOL    HW111435   2.346   3.287   1.160  1.7724  0.6970 -1.3905
34219SOL    HW211436   2.372   3.270   1.012  1.6885 -3.1283 -1.0582
34220SOL     OW11437   0.987   8.701   2.753 -0.0920  0.2057  0.3701
34220SOL    HW111438   1.017   8.697   2.663  2.1722  0.0058  1.0740
34220SOL    HW211439   1.066   8.688   2.806 -1.3244  0.4112  2.3885
34221SOL     OW11440   0.871   4.507   6.188 -1.0664 -0.1721  0.1466
34221SOL    HW111441   0.952   4.470   6.222 -1.1688 -1.2840 -0.7585
34221SOL    HW211442   0.840   4.565   6.257  1.8808  2.4471 -0.4874
34222SOL     OW11443   8.270   5.132   3.804  0.4152  0.2611  0.5565
34222SOL    HW111444   8.342   5.190   3.781  0.4794 -0.7010 -1.9839
34222SOL    HW211445   8.210   5.137   3.729 -0.8437 -0.9540  1.4314
34223SOL     OW11446   5.452   9.884   8.306 -0.0113  0.6623 -0.6870
34223SOL    HW111447   5.474   9.966   8.350  0.3040  0.2904 -0.1314
34223SOL    HW211448   5.536   9.850   8.275 -0.0932  0.3702 -0.5932
34224SOL     OW11449   2.697   0.959   3.597  0.4083  0.3336  0.3396
34224SOL    HW111450   2.690   0.963   3.692  0.7027  0.5548  0.3541
34224SOL    HW211451   2.790   0.972   3.579 -0.1344  5.5540 -0.2148
34225SOL     OW11452   8.326   9.023   8.369 -0.5146  0.7492  0.0142
34225SOL    HW111453   8.355   8.934   8.390 -1.4280  0.3272 -0.4533
34225SOL    HW211454   8.391   9.055   8.306 -0.2703  0.3589  0.0661
34226SOL     OW11455  11.120   2.334  12.171 -0.2567 -0.0294  0.3537
34226SOL    HW111456  11.169   2.415  12.161  0.8208 -0.7718 -0.5016
34226SOL    HW211457  11.040   2.348  12.120 -0.3038  0.6530  0.5955
34227SOL     OW11458   6.525   1.257   5.056 -0.2854  0.0970  0.4189
34227SOL    HW111459   6.615   1.281   5.036 -0.1950 -0.3734  0.2308
34227SOL    HW211460   6.532   1.171   5.098 -0.8024 -1.2792 -2.0858
34228SOL     OW11461   2.585   3.841   9.030 -0.0223  0.3066 -0.3480
34228SOL    HW111462   2.555   3.897   9.102  0.0124  1.6097 -1.3044
34228SOL    HW211463   2.630   3.769   9.073  0.1573  1.1427  0.9386
34229SOL     OW11464  10.877   9.158   3.165 -0.5208 -0.6494 -0.6324
34229SOL    HW111465  10.885   9.156   3.260 -0.2227 -0.1440 -0.6457
34229SOL    HW211466  10.873   9.066   3.139  0.6172 -0.8200 -0.2397
34230SOL     OW11467   1.990   2.858  11.668  0.1727  0.3505  0.5611
34230SOL    HW111468   1.921   2.852  11.601  0.5737 -0.4429  0.2042
34230SOL    HW211469   2.058   2.911  11.627 -0.3413  1.4128  1.0346
34231SOL     OW11470  12.207   0.650   6.799  0.0068 -0.1071  0.5753
34231SOL    HW111471  12.114   0.660   6.781  0.2818  1.2348 -0.2505
34231SOL    HW211472  12.249   0.660   6.714  1.0698  2.2344  1.2698
34232SOL     OW11473   1.672   2.219  11.900 -0.3924 -0.3014  0.1656
34232SOL    HW111474   1.629   2.183  11.978 -0.0542  1.4117  1.2068
34232SOL    HW211475   1.641   2.309  11.896 -0.4781 -0.3930 -1.7857
34233SOL     OW11476   0.780   4.065   1.942 -0.1369  0.3155 -0.0672
34233SOL    HW111477   0.832   4.065   1.862  0.6092  1.7943  0.3906
34233SOL    HW211478   0.730   3.983   1.938 -0.9693  0.8651 -2.5721
34234SOL     OW11479   2.245   7.471   2.462 -0.3109 -0.1110 -0.3850
34234SOL    HW111480   2.263   7.562   2.439 -0.2098 -0.7991 -3.4768
34234SOL    HW211481   2.170   7.447   2.407 -2.7432 -0.9337  2.9952
34235SOL     OW11482   9.030   2.428   1.409 -0.2924 -0.1032 -0.2329
34235SOL    HW111483   9.083   2.354   1.439 -0.1943 -1.0186 -2.5157
34235SOL    HW211484   9.067   2.453   1.325 -1.7944  1.0292 -0.6125
34236SOL     OW11485   2.155   1.016   5.255  0.4107 -0.4153 -0.3443
34236SOL    HW111486   2.171   1.056   5.340  1.6776  1.0871 -1.2372
34236SOL    HW211487   2.104   1.081   5.207 -0.4188 -1.3089 -0.7170
34237SOL     OW11488  10.818   2.985   9.175 -0.1331  0.7446 -0.0650
34237SOL    HW111489  10.744   2.924   9.170  1.3390 -1.0993 -0.3689
34237SOL    HW211490  10.895   2.929   9.185  1.4273  2.4754 -1.5516
34238SOL     OW11491  12.492   1.084   2.151  0.7414  0.1026  0.0973
34238SOL    HW111492  12.522   1.003   2.111 -0.8938  0.6038 -2.4368
34238SOL    HW211493  12.458   1.059   2.236 -0.7244 -2.1216 -1.0517
34239SOL     OW11494  10.110   3.607   1.914 -0.1978 -0.4483  0.1721
34239SOL    HW111495  10.047   3.565   1.973 -1.6755 -0.6271 -1.4780
34239SOL    HW211496  10.081   3.583   1.826  2.3769 -0.7902 -0.6525
34240SOL     OW11497   1.879   6.377   1.341 -0.4593  0.6571 -0.2719
34240SOL    HW111498   1.848   6.444   1.281 -0.6310  1.9682  1.2192
34240SOL    HW211499   1.953   6.336   1.296 -0.3803  1.8071 -1.2374
34241SOL     OW11500   3.811   0.360  11.865 -0.0820 -0.2647 -0.3377
34241SOL    HW111501   3.901   0.384  11.887 -1.0101  2.2110  1.2818
34241SOL    HW211502   3.819   0.292  11.798  2.9802  1.4358 -1.9002
34242SOL     OW11503  10.984   5.526   3.454  0.0847  0.0118  0.0363
34242SOL    HW111504  11.055   5.555   3.511 -0.3415  1.0105  0.0735
34242SOL    HW211505  10.986   5.587   3.380  0.6004 -1.2411 -1.0135
34243SOL     OW11506   1.755   7.357  10.192  0.3688  0.3302 -0.4711
34243SOL    HW111507   1.730   7.267  10.170 -1.7847  0.2514  1.8230
34243SOL    HW211508   1.744   7.406  10.111 -1.3741 -0.9437 -1.0646
34244SOL     OW11509   9.130   5.571   5.987  0.2040 -0.3134  0.1677
34244SOL    HW111510   9.062   5.615   5.936 -0.5534 -2.3564 -0.6839
34244SOL    HW211511   9.200   5.553   5.925  0.0516 -1.2155  0.2422
34245SOL     OW11512   5.332   4.451   5.522 -0.2731 -0.8012 -0.6408
34245SOL    HW111513   5.326   4.477   5.614  1.1360  1.1215 -1.0194
34245SOL    HW211514   5.348   4.357   5.524  3.0317 -0.3485  1.2977
34246SOL     OW11515   9.219  11.749  10.673 -0.1331 -0.3835  1.0128
34246SOL    HW111516   9.217  11.659  10.706 -0.6850 -0.7843 -0.0596
34246SOL    HW211517   9.142  11.790  10.713 -0.9606 -0.9464  0.0568
34247SOL     OW11518   2.047  11.904   4.471 -0.4400 -0.1478 -0.1115
34247SOL    HW111519   2.028  11.875   4.382 -1.9351 -0.1177  0.1717
34247SOL    HW211520   1.978  11.966   4.492  0.3981  0.5301  0.7604
34248SOL     OW11521   2.607   1.220   3.576  0.1205 -0.6977  0.0109
34248SOL    HW111522   2.642   1.131   3.577 -1.2021 -1.2485 -0.5629
34248SOL    HW211523   2.513   1.209   3.584 -0.0685  0.6622 -0.1122
34249SOL     OW11524   7.243   6.469   5.410  1.0104 -0.2525 -0.1676
34249SOL    HW111525   7.334   6.445   5.392  1.7493  0.6109  2.1272
34249SOL    HW211526   7.192   6.414   5.351  2.8315 -3.8125  1.2872
34250SOL     OW11527   1.641   1.262   4.204  0.0232 -0.0988 -0.0728
34250SOL    HW111528   1.663   1.178   4.165 -0.5707 -0.4085  0.2515
34250SOL    HW211529   1.703   1.323   4.165  1.0403 -0.8321  0.3509
34251SOL     OW11530  11.920   4.104  11.495  0.0546 -0.3822 -0.0886
34251SOL    HW111531  11.968   4.102  11.412 -1.0168 -0.5581 -0.7266
34251SOL    HW211532  11.985   4.129  11.560  1.5267 -2.6589 -0.5664
34252SOL     OW11533   6.090   7.063   4.927  0.2404  0.5215 -0.2543
34252SOL    HW111534   6.110   7.031   4.838  1.6958  1.6475 -0.3739
34252SOL    HW211535   6.108   6.988   4.983  0.8726  0.2608 -0.7808
34253SOL     OW11536   0.323   5.065  11.888  0.4189 -0.0745 -0.0604
34253SOL    HW111537   0.359   5.137  11.940 -0.1558  0.1328  0.0537
34253SOL    HW211538   0.254   5.028  11.942  0.3598 -0.3762 -0.3381
34254SOL     OW11539   6.033  11.080   9.645 -0.1641  0.5080 -0.2136
34254SOL    HW111540   6.084  11.130   9.582 -0.1982  0.8164  0.0051
34254SOL    HW211541   6.040  10.989   9.614  0.3004  0.5803 -0.3338
34255SOL     OW11542   4.656   0.017  11.244 -0.5230 -0.3192 -0.6036
34255SOL    HW111543   4.642  -0.050  11.311  1.2107 -0.1030  0.0330
34255SOL    HW211544   4.573   0.020  11.195 -1.7419 -0.6831  1.3270
34256SOL     OW11545   1.271   8.123   5.534 -0.3509  0.3385  0.2381
34256SOL    HW111546   1.233   8.208   5.512 -0.0710  0.8263  1.5332
34256SOL    HW211547   1.231   8.099   5.617  0.4436 -0.2409  0.4705
34257SOL     OW11548   5.710   3.936   0.419  0.0633 -0.3864  0.0540
34257SOL    HW111549   5.708   4.029   0.397  0.6497 -0.7082 -1.4634
34257SOL    HW211550   5.667   3.931   0.504  0.0438  1.2722  0.1789
34258SOL     OW11551  10.759   0.947   0.458 -0.1230  0.4916 -0.1112
34258SOL    HW111552  10.786   0.885   0.390 -1.7574 -0.9242  0.4589
34258SOL    HW211553  10.832   0.948   0.519  0.5169  0.2175 -0.8474
34259SOL     OW11554   4.627   7.237  10.616 -0.1148  0.1635 -0.2418
34259SOL    HW111555   4.604   7.165  10.675 -1.4418 -0.2212 -1.2014
34259SOL    HW211556   4.688   7.291  10.668 -0.6463 -0.5654  1.2010
34260SOL     OW11557  10.989   0.934   5.107 -0.5776 -0.1491  0.9568
34260SOL    HW111558  11.030   0.942   5.021 -0.2099 -1.3370  1.0006
34260SOL    HW211559  10.907   0.887   5.089 -1.2201  0.8756  1.0782
34261SOL     OW11560   4.259  11.013   1.082  0.6737 -0.4716 -0.7840
34261SOL    HW111561   4.216  10.940   1.037  0.0005 -0.8261  0.3856
34261SOL    HW211562   4.351  10.986   1.088  1.1170  0.2594 -3.2386
34262SOL     OW11563   3.682   6.181   2.141 -0.1402 -0.4846 -0.4327
34262SOL    HW111564   3.671   6.266   2.099  0.8706 -0.1958 -0.1289
34262SOL    HW211565   3.621   6.183   2.215 -0.8065 -0.4031 -0.9670
34263SOL     OW11566   3.189   3.970   6.679  0.9330 -0.3157 -0.3243
34263SOL    HW111567   3.253   3.922   6.627  0.7442 -2.0977  0.9809
34263SOL    HW211568   3.240   4.029   6.734  1.4487 -1.2674  0.2487
34264SOL     OW11569   6.246   2.958   8.740  0.2568  0.1716  0.2595
34264SOL    HW111570   6.233   2.916   8.825  0.3146  1.3923  0.8916
34264SOL    HW211571   6.158   2.984   8.713  0.1645 -0.7037 -0.3383
34265SOL     OW11572  10.584  11.538   2.570  0.4221  0.5692 -0.1678
34265SOL    HW111573  10.526  11.502   2.638 -1.4775  1.2332 -1.3482
34265SOL    HW211574  10.567  11.484   2.493  1.9056  0.3766 -0.3908
34266SOL     OW11575   6.405  10.040  11.579  0.6030  0.2495 -0.2142
34266SOL    HW111576   6.391   9.984  11.503 -1.4217 -0.3063  0.5066
34266SOL    HW211577   6.473   9.996  11.629 -0.2034 -1.0326 -0.1935
34267SOL     OW11578   0.949   4.775   2.857 -0.1856 -0.7704  0.3152
34267SOL    HW111579   0.877   4.737   2.806 -0.5373 -0.2084  0.3857
34267SOL    HW211580   0.974   4.705   2.918 -0.2552 -1.1881 -0.1241
34268SOL     OW11581  10.743   9.711   7.167  0.3439 -0.2223  0.6031
34268SOL    HW111582  10.648   9.713   7.162  0.3336 -1.7508 -0.6280
34268SOL    HW211583  10.765   9.761   7.246 -1.4760 -0.1317  1.0783
34269SOL     OW11584   2.618   6.863   2.988  0.5058  0.2084  0.4772
34269SOL    HW111585   2.699   6.816   2.974  0.4291  0.1321  0.2928
34269SOL    HW211586   2.645   6.954   3.000  0.4739  0.5918 -1.8222
34270SOL     OW11587   8.488  12.214  10.570  0.1259 -0.4847  0.1034
34270SOL    HW111588   8.409  12.165  10.548  1.9322 -3.1638 -0.9757
34270SOL    HW211589   8.484  12.224  10.665 -2.5200  1.4904 -0.0998
34271SOL     OW11590   8.395   1.234   7.491 -0.1319  0.4329 -0.3234
34271SOL    HW111591   8.317   1.210   7.542  0.5457  0.7506  0.8872
34271SOL    HW211592   8.361   1.291   7.422 -0.7858  2.0711  1.2747
34272SOL     OW11593  10.551   0.405  10.632  0.2627 -0.1720  0.3190
34272SOL    HW111594  10.561   0.310  10.638  2.5876  0.1078  2.5653
34272SOL    HW211595  10.578   0.426  10.543  0.3448 -1.5711 -0.0153
34273SOL     OW11596  10.857   7.099   8.435 -0.1285  0.2279  0.0573
34273SOL    HW111597  10.908   7.044   8.495  1.4506  2.6844  1.1207
34273SOL    HW211598  10.794   7.143   8.491 -1.0624 -0.0787 -0.7118
34274SOL     OW11599   1.817  10.976  11.859  0.5229 -0.0946 -0.1192
34274SOL    HW111600   1.871  10.898  11.853 -0.9584 -1.2426  0.8341
34274SOL    HW211601   1.756  10.969  11.786 -1.6300 -1.5022  1.6953
34275SOL     OW11602   0.853   2.580   1.264  0.7280  0.0940 -0.2166
34275SOL    HW111603   0.941   2.543   1.265  0.9664  0.6412 -0.2862
34275SOL    HW211604   0.866   2.674   1.279  0.2796  0.4094 -1.6295
34276SOL     OW11605   8.059   0.482   9.689 -0.7922 -0.2539  0.2771
34276SOL    HW111606   8.021   0.535   9.618 -0.0400 -0.1436 -0.0508
34276SOL    HW211607   8.136   0.441   9.650 -1.3082 -1.5330  0.5591
34277SOL     OW11608   6.506   8.973   4.953 -0.3382  0.3177 -0.2169
34277SOL    HW111609   6.490   9.033   4.880 -1.1743  1.2468  0.7144
34277SOL    HW211610   6.425   8.974   5.003 -0.5672 -1.9918 -0.4331
34278SOL     OW11611   9.737   9.256   7.400 -0.3761 -0.5336  0.3608
34278SOL    HW111612   9.701   9.241   7.313 -0.1123 -0.6524  0.2729
34278SOL    HW211613   9.740   9.168   7.440  0.1433 -0.5729  0.2407
34279SOL     OW11614   4.408   0.016   8.366  0.1527 -0.2628  0.4832
34279SOL    HW111615   4.453  -0.060   8.331 -1.9920 -0.8894 -1.1176
34279SOL    HW211616   4.457   0.038   8.446  1.1756 -2.9281  0.6978
34280SOL     OW11617   9.938  12.209   1.878 -0.2585 -0.1209 -0.1252
34280SOL    HW111618   9.949  12.120   1.910  1.2138 -0.5806 -1.7878
34280SOL    HW211619   9.855  12.208   1.831 -0.8211 -0.2811  0.8451
34281SOL     OW11620  11.659   6.168  11.596 -0.4317 -0.0799  0.6274
34281SOL    HW111621  11.703   6.086  11.573  0.8564  0.7969 -0.1199
34281SOL    HW211622  11.639   6.210  11.513 -1.3401  0.2597  0.9952
34282SOL     OW11623   2.322   0.838   2.634  0.2773  0.0773 -0.0648
34282SOL    HW111624   2.388   0.825   2.702 -0.1616 -0.0132  0.3530
34282SOL    HW211625   2.362   0.900   2.573  0.3590  0.8262  0.7271
34283SOL     OW11626   9.859   8.184  10.678 -0.0456  0.5123 -0.7459
34283SOL    HW111627   9.904   8.268  10.692 -0.2336  0.8516 -2.0927
34283SOL    HW211628   9.893   8.128  10.747 -0.6988  1.9915  0.8628
34284SOL     OW11629   4.975  11.806   5.884  0.0681 -0.1149 -0.1538
34284SOL    HW111630   4.935  11.747   5.820 -1.2465  0.3223  0.2336
34284SOL    HW211631   4.903  11.861   5.915  0.9506  0.6173  0.6797
34285SOL     OW11632   0.522   1.630   1.922 -0.3978 -0.5627 -0.1446
34285SOL    HW111633   0.498   1.605   1.833  1.5414  0.7830 -1.1256
34285SOL    HW211634   0.600   1.577   1.941 -0.5928 -0.5840  0.5967
34286SOL     OW11635   1.028   8.034   3.968 -0.2120  0.5564  0.0554
34286SOL    HW111636   1.122   8.035   3.951 -0.0397 -0.2500  0.8625
34286SOL    HW211637   1.020   8.038   4.063 -0.9034 -1.2479  0.1157
34287SOL     OW11638  11.612  10.195  10.527  0.2599  0.1216  0.0437
34287SOL    HW111639  11.631  10.105  10.501  0.0645  0.1265 -0.1156
34287SOL    HW211640  11.643  10.249  10.453  0.2770  0.1779  0.0915
34288SOL     OW11641   1.597   5.225   4.686  0.3273  0.1503  0.0588
34288SOL    HW111642   1.664   5.201   4.750 -0.8639 -0.3339  1.1391
34288SOL    HW211643   1.628   5.309   4.650  1.9418 -0.4792 -0.0947
34289SOL     OW11644  11.705  11.977   0.767  0.2896 -0.0237 -0.2510
34289SOL    HW111645  11.638  11.978   0.698  1.9891 -1.1344 -2.0386
34289SOL    HW211646  11.666  11.928   0.838 -1.0634  0.0036 -0.9513
34290SOL     OW11647   9.554   4.064  10.090 -0.0600 -0.2753 -0.2128
34290SOL    HW111648   9.640   4.062  10.050 -0.1514  1.6355 -0.6112
34290SOL    HW211649   9.571   4.068  10.184  0.2753 -0.2452 -0.2749
34291SOL     OW11650   1.259   8.548   8.839 -0.0148 -0.4973 -0.5077
34291SOL    HW111651   1.282   8.611   8.908  1.3849  0.4102 -1.7303
34291SOL    HW211652   1.263   8.600   8.758 -0.1305 -1.8659 -1.4112
34292SOL     OW11653  12.353  11.524   0.841 -0.8105  0.2277  0.1809
34292SOL    HW111654  12.276  11.566   0.879 -0.9886 -1.5508  1.9792
34292SOL    HW211655  12.421  11.591   0.844 -1.7344  1.1627  0.5738
34293SOL     OW11656   4.354   3.152   4.763  0.0697 -0.3040  0.0379
34293SOL    HW111657   4.408   3.137   4.841 -0.5305  0.1011  0.5407
34293SOL    HW211658   4.413   3.135   4.690  0.5775 -0.9453  0.5760
34294SOL     OW11659   2.642   1.649  10.018  0.0471 -0.3195  0.1649
34294SOL    HW111660   2.598   1.696  10.089  0.8166  3.5429 -1.6178
34294SOL    HW211661   2.733   1.641  10.047 -0.3200 -1.8860  0.9572
34295SOL     OW11662   0.477   9.721   7.993  0.5352  0.0239  0.6420
34295SOL    HW111663   0.445   9.722   7.903  4.5352 -0.8298 -0.9812
34295SOL    HW211664   0.450   9.636   8.028 -1.1137  0.3976  0.3452
34296SOL     OW11665   0.910  11.148   0.334 -0.2771  0.6065  0.5613
34296SOL    HW111666   0.932  11.056   0.353 -1.7450 -0.1429 -1.0971
34296SOL    HW211667   0.972  11.198   0.387 -0.1869 -1.3121  2.4242
34297SOL     OW11668   0.864   0.933   6.198  0.0013  0.0439 -0.3786
34297SOL    HW111669   0.821   0.850   6.221  1.2985 -0.0410  2.0679
34297SOL    HW211670   0.814   0.999   6.246  0.4096  0.3614 -0.3865
34298SOL     OW11671  11.866   5.583   9.548 -0.0433  0.5422  0.0502
34298SOL    HW111672  11.930   5.653   9.536  2.1021 -1.6256 -2.4125
34298SOL    HW211673  11.832   5.566   9.460 -0.3972 -1.5520  0.5259
34299SOL     OW11674   8.543   9.846  11.571  0.4800  0.3870  0.7043
34299SOL    HW111675   8.468   9.852  11.512  2.2071  1.1765 -1.5503
34299SOL    HW211676   8.578   9.935  11.575  1.5958 -0.0561  1.3098
34300SOL     OW11677   1.077  11.334  12.431  0.2572 -0.5816  0.3880
34300SOL    HW111678   1.055  11.365  12.343  1.0563 -2.6405 -0.5926
34300SOL    HW211679   1.059  11.409  12.488 -2.1268  0.2033 -1.2531
34301SOL     OW11680   9.704   2.668  10.424 -0.0779  0.4966  0.0663
34301SOL    HW111681   9.612   2.689  10.411 -0.4966 -0.7791  0.7798
34301SOL    HW211682   9.729   2.717  10.503 -1.4030 -2.3999  2.4965
34302SOL     OW11683   6.007   6.368   6.980  0.1320  0.2718  0.1710
34302SOL    HW111684   5.936   6.367   6.916 -2.3409  4.9927  2.2907
34302SOL    HW211685   5.987   6.295   7.039 -1.4508 -0.0969 -0.7549
34303SOL     OW11686   2.829  10.533   0.793 -0.7128  0.8971 -0.0759
34303SOL    HW111687   2.825  10.605   0.730  1.5332 -0.1959 -1.6217
34303SOL    HW211688   2.785  10.460   0.750  0.1327  0.3644 -0.0678
34304SOL     OW11689   5.995   7.856   0.464 -0.1694  0.0400 -0.3419
34304SOL    HW111690   5.989   7.762   0.480  0.0227  0.3975  2.2038
34304SOL    HW211691   6.084   7.879   0.488 -0.0253  0.8148 -1.5394
34305SOL     OW11692   1.209   3.872  10.528 -0.9795  0.5993 -0.0479
34305SOL    HW111693   1.254   3.855  10.445  0.6859  1.0320  0.7140
34305SOL    HW211694   1.195   3.786  10.566 -1.3209  0.4248 -0.5578
34306SOL     OW11695   0.963   9.919   5.558  0.0450  0.5258 -0.4933
34306SOL    HW111696   0.918   9.835   5.551 -0.4791  0.5303  1.9055
34306SOL    HW211697   1.003   9.933   5.472 -1.1895 -1.3953 -1.4337
34307SOL     OW11698   7.181   6.172  12.577  0.5394 -0.2470  0.1538
34307SOL    HW111699   7.108   6.164  12.639  0.5418  0.3805  0.2434
34307SOL    HW211700   7.198   6.266  12.573 -0.0534 -0.1823 -1.4817
34308SOL     OW11701   5.170   3.582   8.151  0.7473 -0.1692 -0.4307
34308SOL    HW111702   5.257   3.578   8.111  0.3943  0.4180 -1.2795
34308SOL    HW211703   5.163   3.672   8.183  0.9526 -0.5768  0.8209
34309SOL     OW11704   0.929  12.457   6.039  0.0794 -0.0709 -0.0293
34309SOL    HW111705   0.890  12.371   6.023  0.2828  0.2532 -2.9023
34309SOL    HW211706   0.858  12.510   6.074 -1.2524 -0.3705 -2.0992
34310SOL     OW11707   6.423  10.089   1.431  0.5191  0.0345 -0.0662
34310SOL    HW111708   6.421  10.173   1.386  1.5478  1.0079  1.5999
34310SOL    HW211709   6.331  10.061   1.435  0.0915  1.3891 -0.0926
34311SOL     OW11710   4.504  10.741  11.782  0.0913 -0.4862 -0.7740
34311SOL    HW111711   4.571  10.804  11.811 -0.3462 -0.7835  1.0361
34311SOL    HW211712   4.552  10.674  11.734  0.6055  1.0496 -2.4875
34312SOL     OW11713   3.001   3.070  11.182  0.2758  0.6256  0.3487
34312SOL    HW111714   3.086   3.027  11.166  0.2246 -0.4244  2.5761
34312SOL    HW211715   2.970   3.093  11.094  1.2652 -2.0663 -0.8281
34313SOL     OW11716   2.556   7.302   2.489  0.4149 -0.0900  0.1453
34313SOL    HW111717   2.478   7.341   2.449  0.2895 -0.3988  0.0875
34313SOL    HW211718   2.563   7.216   2.449  0.5564 -0.2197  0.4451
34314SOL     OW11719   6.840   2.151  11.498 -0.0061 -0.4607  0.0084
34314SOL    HW111720   6.764   2.209  11.505  0.8330  0.5796  0.9484
34314SOL    HW211721   6.839   2.101  11.580  1.9196  1.6640  1.4520
34315SOL     OW11722   6.421   0.644   7.813 -0.3319 -0.4977  0.3004
34315SOL    HW111723   6.388   0.672   7.727  2.2122  0.3462 -0.4986
34315SOL    HW211724   6.396   0.552   7.819  0.3538 -0.8838 -1.8719
34316SOL     OW11725   0.358   6.763   8.826  0.1861 -1.0696 -0.4453
34316SOL    HW111726   0.315   6.827   8.883  1.1074  1.0997 -2.0381
34316SOL    HW211727   0.450   6.765   8.853  0.9584  1.1339 -2.8084
34317SOL     OW11728   2.732   7.077   4.907 -0.1843 -0.2286  0.2820
34317SOL    HW111729   2.722   7.010   4.840  1.7401 -1.2029  0.8819
34317SOL    HW211730   2.753   7.156   4.859 -1.7513 -0.1859 -0.3945
34318SOL     OW11731   9.953   5.878   9.416  0.2095  0.1145  0.1269
34318SOL    HW111732   9.961   5.803   9.475  1.3344  0.2959  0.2233
34318SOL    HW211733   9.961   5.840   9.328  0.8695  0.1223  0.1786
34319SOL     OW11734  11.393  11.563   5.799 -0.7744  0.1946  0.0649
34319SOL    HW111735  11.441  11.492   5.757 -0.5816 -0.4391  1.3132
34319SOL    HW211736  11.308  11.563   5.756 -0.9714 -1.1540  0.4017
34320SOL     OW11737   6.736   7.711   0.278  0.1726 -0.7762  0.4973
34320SOL    HW111738   6.822   7.752   0.271 -0.3959  0.4718  0.4491
34320SOL    HW211739   6.680   7.780   0.316 -0.4126 -2.1152  2.2195
34321SOL     OW11740  11.172   0.351   9.553 -0.0110  0.1114  0.4600
34321SOL    HW111741  11.085   0.391   9.563  0.8181  2.2382 -0.3408
34321SOL    HW211742  11.206   0.346   9.642 -0.4551  0.4702  0.6581
34322SOL     OW11743   0.660   0.282   8.427  0.0225  0.2712  0.0286
34322SOL    HW111744   0.623   0.371   8.429  0.4938  0.4806 -0.3032
34322SOL    HW211745   0.630   0.246   8.344  1.1947  0.7284 -0.6127
34323SOL     OW11746   1.610   4.584   0.024 -0.1407 -0.8082  0.4909
34323SOL    HW111747   1.533   4.641   0.032 -0.4760 -1.3847  1.5876
34323SOL    HW211748   1.681   4.643  -0.000 -1.4078 -0.6174 -3.4068
34324SOL     OW11749   1.712   8.810   8.914 -0.6452 -0.8614 -0.0469
34324SOL    HW111750   1.745   8.746   8.977 -0.9514  1.1520  2.2775
34324SOL    HW211751   1.788   8.830   8.859 -0.4051 -2.7533 -0.4710
34325SOL     OW11752   2.046   9.145   7.562 -0.1924  0.3851  0.2213
34325SOL    HW111753   2.128   9.176   7.524  0.0185  0.4287  0.7127
34325SOL    HW211754   2.065   9.057   7.593  0.1877  1.0286  1.9394
34326SOL     OW11755   5.176   8.004   2.383 -0.8238 -0.0573  0.1966
34326SOL    HW111756   5.090   7.973   2.412 -0.4153 -1.1398  0.2917
34326SOL    HW211757   5.212   7.931   2.332 -0.5408  0.9176 -1.0476
34327SOL     OW11758  11.252   3.477   6.960  0.2379  0.6064 -0.4470
34327SOL    HW111759  11.204   3.515   7.033 -0.0306 -2.1729  0.9578
34327SOL    HW211760  11.184   3.443   6.902  0.3678 -1.2820  0.4030
34328SOL     OW11761   1.555   3.501  10.707 -0.2374  0.3038  0.1333
34328SOL    HW111762   1.641   3.536  10.681  0.5876 -1.5942  0.1781
34328SOL    HW211763   1.574   3.441  10.779 -1.6098 -0.1694  0.1299
34329SOL     OW11764   4.265   2.858   3.151 -0.4065 -0.3800 -0.1255
34329SOL    HW111765   4.339   2.886   3.098 -0.7409  1.3819  0.2931
34329SOL    HW211766   4.291   2.772   3.185  0.1259 -1.2164 -2.4524
34330SOL     OW11767  11.590  11.580   6.687  0.8595 -0.1472 -0.6677
34330SOL    HW111768  11.616  11.526   6.761 -0.7448 -1.5710 -1.0897
34330SOL    HW211769  11.655  11.562   6.620 -0.3107 -2.5713 -1.2307
34331SOL     OW11770  12.522   6.240   9.113  0.0888  0.0789 -0.0986
34331SOL    HW111771  12.431   6.233   9.083 -0.0882  1.0159  0.1713
34331SOL    HW211772  12.570   6.176   9.061 -0.8728 -1.0401  0.3626
34332SOL     OW11773   1.557   3.519   1.407 -0.3591  0.3232  0.5807
34332SOL    HW111774   1.477   3.469   1.389 -1.1709  1.4520  0.9549
34332SOL    HW211775   1.621   3.452   1.431 -1.1287 -0.6259  0.1012
34333SOL     OW11776   2.443   8.330   5.861 -0.3163  0.0321  0.3922
34333SOL    HW111777   2.370   8.293   5.912 -2.0789  0.8585 -1.3715
34333SOL    HW211778   2.512   8.344   5.925 -1.9952 -0.0701  2.3407
34334SOL     OW11779  11.105   7.892   5.599 -0.1434  0.2594 -0.2421
34334SOL    HW111780  11.100   7.928   5.510 -1.3448 -1.2293 -0.8202
34334SOL    HW211781  11.023   7.919   5.640 -0.4916 -0.7307 -0.2670
34335SOL     OW11782   8.115   7.803   5.232  0.1174 -0.0405 -0.0593
34335SOL    HW111783   8.109   7.810   5.327 -1.0099 -2.0727  0.0713
34335SOL    HW211784   8.207   7.784   5.215  0.4975  1.1274  0.5139
34336SOL     OW11785   6.056   6.754   7.314 -0.3192 -0.1285 -0.4231
34336SOL    HW111786   5.983   6.808   7.344  0.0392 -0.4070  1.0540
34336SOL    HW211787   6.032   6.665   7.339 -0.3055 -0.4786 -1.6261
34337SOL     OW11788   7.258   8.542   2.942  0.2517 -0.1040  0.4388
34337SOL    HW111789   7.194   8.489   2.991 -1.5053  0.6735 -0.9049
34337SOL    HW211790   7.301   8.596   3.009  0.8011 -1.8834  1.6019
34338SOL     OW11791   2.398   4.805   4.223  0.4378  0.3406 -0.3500
34338SOL    HW111792   2.441   4.721   4.207 -1.3824 -0.4479 -1.4074
34338SOL    HW211793   2.384   4.842   4.135  0.7328  1.5036  0.0766
34339SOL     OW11794   6.362   9.152   0.972 -0.0442 -0.3693 -0.1586
34339SOL    HW111795   6.336   9.146   1.064  1.0335  0.6050  0.2417
34339SOL    HW211796   6.288   9.196   0.930  0.9047  2.5351  0.9842
34340SOL     OW11797   6.756   3.596   8.036 -0.1334 -0.1860  0.1588
34340SOL    HW111798   6.838   3.627   8.073 -0.9366  1.5526  0.6172
34340SOL    HW211799   6.735   3.517   8.086  1.2721 -0.6793 -0.0099
34341SOL     OW11800   1.994  10.104   5.436  0.3597  0.3294 -0.1545
34341SOL    HW111801   1.953  10.126   5.519  0.9086 -0.0595  0.2294
34341SOL    HW211802   2.073  10.159   5.433  0.6814 -0.1219 -0.1141
34342SOL     OW11803   3.562   4.025   4.996 -0.3491  0.1344 -0.0345
34342SOL    HW111804   3.560   3.935   5.029 -2.2932 -0.3674 -1.3435
34342SOL    HW211805   3.488   4.067   5.039 -0.9628  0.3706 -1.2821
34343SOL     OW11806   1.646   3.369  10.090 -0.1768 -0.5764  0.1650
34343SOL    HW111807   1.738   3.378  10.066  0.0915 -1.1461  0.9227
34343SOL    HW211808   1.600   3.358  10.007  0.3940  0.0610 -0.2375
34344SOL     OW11809   8.019   1.999   7.122  0.4345  0.4924  0.1823
34344SOL    HW111810   7.955   1.986   7.052  1.3928  0.6895 -0.7600
34344SOL    HW211811   7.973   2.050   7.189 -0.8657 -0.7242  0.2507
34345SOL     OW11812   7.813   0.879   0.470 -0.2341  0.2761  0.1480
34345SOL    HW111813   7.760   0.825   0.529  1.1260 -2.2704 -0.8353
34345SOL    HW211814   7.888   0.825   0.448 -0.1188  1.5348 -3.0555
34346SOL     OW11815   5.017  12.117   0.957 -0.5198 -0.1541  0.3012
34346SOL    HW111816   5.065  12.091   1.036  3.1285  0.9607 -1.3437
34346SOL    HW211817   5.016  12.038   0.903  2.2607  0.5233 -0.8640
34347SOL     OW11818   5.361   0.244   9.565  0.2105  1.0136 -0.1236
34347SOL    HW111819   5.398   0.216   9.649  0.3534  1.1037 -0.1563
34347SOL    HW211820   5.318   0.327   9.586  0.5052  1.1874 -0.2013
34348SOL     OW11821   2.354   3.627   3.324 -0.0715 -0.1566 -0.2214
34348SOL    HW111822   2.259   3.613   3.328 -0.3308  1.2436 -1.0245
34348SOL    HW211823   2.372   3.642   3.232  0.7385  0.9282  0.1023
34349SOL     OW11824  12.337  10.981   5.892 -0.3545  0.2880 -0.5047
34349SOL    HW111825  12.407  10.925   5.859 -2.0687 -2.3208 -0.0584
34349SOL    HW211826  12.264  10.966   5.832 -1.4769  0.5085  0.7626
34350SOL     OW11827   8.473   8.684  11.596  0.1470 -0.4588  0.1965
34350SOL    HW111828   8.517   8.648  11.673  1.1977 -0.4126 -0.3672
34350SOL    HW211829   8.517   8.642  11.522  1.0458  1.5445 -0.4670
34351SOL     OW11830  12.365   5.937   2.764 -0.0657 -0.2343  0.0382
34351SOL    HW111831  12.395   5.950   2.674  1.5611  0.7038  0.6810
34351SOL    HW211832  12.276   5.972   2.764 -0.6193 -1.5088 -1.5070
34352SOL     OW11833   1.577   6.500   5.267 -0.5300 -0.2166 -0.2407
34352SOL    HW111834   1.619   6.443   5.332  2.0356  1.1566 -0.5172
34352SOL    HW211835   1.504   6.539   5.314 -0.3724 -1.2827  0.9644
34353SOL     OW11836   7.544   2.403  11.512  0.0707  0.0088  0.4821
34353SOL    HW111837   7.558   2.313  11.541 -0.0194 -0.3980 -0.6816
34353SOL    HW211838   7.613   2.418  11.448 -1.5554 -0.2430 -1.4612
34354SOL     OW11839   7.686   2.920   6.817  0.0979  0.2293  0.2796
34354SOL    HW111840   7.670   3.004   6.860  0.5033 -0.5635  2.0422
34354SOL    HW211841   7.710   2.861   6.887 -0.6103 -1.5060 -0.8659
34355SOL     OW11842   9.541   6.780   1.641 -0.1517  0.0560  0.5693
34355SOL    HW111843   9.547   6.690   1.607  0.0780  0.7894 -1.4598
34355SOL    HW211844   9.623   6.794   1.688 -0.6635 -1.1364  1.9237
34356SOL     OW11845  10.329   4.316  12.201 -0.3210 -0.0592  0.0826
34356SOL    HW111846  10.261   4.370  12.242 -1.5323 -1.1255 -0.4615
34356SOL    HW211847  10.346   4.247  12.264  2.0255  1.4900  1.2620
34357SOL     OW11848   9.947   1.566   4.635 -0.3159  1.0441 -0.2907
34357SOL    HW111849   9.946   1.471   4.626 -0.6974  0.9329  0.8422
34357SOL    HW211850   9.858   1.589   4.664 -0.1117  1.7076 -0.1617
34358SOL     OW11851   4.419  11.474  10.055 -0.0399 -0.4302 -0.2141
34358SOL    HW111852   4.487  11.413  10.026 -0.2508 -0.4801 -0.6175
34358SOL    HW211853   4.382  11.507   9.974  0.8315  1.1104 -0.0204
34359SOL     OW11854   7.409   0.039   4.113  0.2972 -0.1068  0.2257
34359SOL    HW111855   7.464  -0.035   4.139  0.2403  0.2247  1.3538
34359SOL    HW211856   7.414   0.099   4.188  1.0314  1.4204 -0.9981
34360SOL     OW11857  11.580   4.267  10.910 -0.1023 -0.1813  1.0958
34360SOL    HW111858  11.565   4.243  10.818 -0.4529 -0.4476  1.2183
34360SOL    HW211859  11.641   4.201  10.942 -1.1249 -0.9947  1.4540
34361SOL     OW11860   9.312   6.521   2.634 -0.0776 -0.3027  0.4490
34361SOL    HW111861   9.288   6.439   2.677 -2.5600 -0.8349 -1.7063
34361SOL    HW211862   9.390   6.500   2.583 -0.5806 -1.2935  0.0750
34362SOL     OW11863   5.997   8.099   0.816 -0.8390 -0.5343 -0.0107
34362SOL    HW111864   5.978   8.012   0.850  1.7417 -0.9866  0.4783
34362SOL    HW211865   6.058   8.137   0.879  0.5084  0.3975 -1.7637
34363SOL     OW11866  11.569   4.824   2.693 -0.7467 -0.0284 -0.1063
34363SOL    HW111867  11.547   4.768   2.768 -0.0669  0.5892  0.5649
34363SOL    HW211868  11.490   4.824   2.639 -1.1131 -0.7840  0.4183
34364SOL     OW11869  11.385   1.198   2.307 -0.3821 -0.3769  0.1856
34364SOL    HW111870  11.449   1.127   2.303 -0.3572 -0.4201  1.1084
34364SOL    HW211871  11.438   1.277   2.323 -0.4526 -0.2079 -0.3748
34365SOL     OW11872   4.395   0.055   3.481  1.2687  0.3811  0.2572
34365SOL    HW111873   4.418   0.088   3.568  1.6264 -0.3856  0.4565
34365SOL    HW211874   4.473   0.008   3.452  0.6452 -0.6078  0.1391
34366SOL     OW11875   2.998   7.544   1.155  0.0498  0.1089  0.2360
34366SOL    HW111876   2.995   7.623   1.101 -0.2946  0.3900  0.6630
34366SOL    HW211877   2.982   7.575   1.244  3.5835  0.0829  1.0145
34367SOL     OW11878   0.103  12.288   5.363  0.1009  0.1663 -0.0052
34367SOL    HW111879   0.142  12.204   5.386  0.6899  0.5554  0.4581
34367SOL    HW211880   0.029  12.266   5.306  0.0684 -0.6792  0.3479
34368SOL     OW11881   4.970   2.338   3.006 -0.0279 -0.4083  0.1273
34368SOL    HW111882   5.056   2.328   2.966 -0.3704 -0.0917 -0.7125
34368SOL    HW211883   4.937   2.248   3.015  0.7172 -0.5856  1.2153
34369SOL     OW11884   3.733   4.817   7.393 -0.1859 -0.4456  0.3544
34369SOL    HW111885   3.820   4.836   7.359 -1.5385  1.0154 -2.6115
34369SOL    HW211886   3.709   4.896   7.442 -0.5878  0.0108 -0.5547
34370SOL     OW11887   7.301   1.688   3.940 -0.2350 -0.0749  0.2108
34370SOL    HW111888   7.268   1.742   4.012  0.2311  0.9152 -0.2985
34370SOL    HW211889   7.236   1.698   3.871 -0.8561 -1.2964  0.5812
34371SOL     OW11890  10.979  10.727  10.300  0.0517 -0.3226 -0.5409
34371SOL    HW111891  10.912  10.763  10.358  1.3941 -0.7232  1.3429
34371SOL    HW211892  11.024  10.804  10.265 -2.1613  0.0238 -2.9369
34372SOL     OW11893   5.155   8.158   6.832 -0.3902 -0.1410 -0.0809
34372SOL    HW111894   5.199   8.080   6.797 -0.8246  0.1058 -1.2093
34372SOL    HW211895   5.072   8.126   6.866 -0.1464 -0.3142  0.3668
34373SOL     OW11896   4.840   6.205   2.418  0.0346 -0.5687 -0.3461
34373SOL    HW111897   4.873   6.269   2.482 -0.5206 -1.7498  1.1849
34373SOL    HW211898   4.760   6.244   2.384 -0.7395 -0.7797  1.1809
34374SOL     OW11899   9.170   8.935   0.715 -0.3346  0.2222 -0.5597
34374SOL    HW111900   9.150   8.846   0.685 -1.0070  1.1483 -3.1260
34374SOL    HW211901   9.113   8.948   0.791 -0.0440 -1.5826  0.0268
34375SOL     OW11902   0.513   9.097   7.687 -0.0352  0.1890  0.0972
34375SOL    HW111903   0.488   9.170   7.630 -0.9386  0.3971  0.7303
34375SOL    HW211904   0.584   9.133   7.741 -1.8837  1.3894  1.9061
34376SOL     OW11905   3.479   6.851   8.419 -0.3822 -0.2450 -0.4115
34376SOL    HW111906   3.513   6.809   8.498  0.0787 -0.4421 -0.7149
34376SOL    HW211907   3.399   6.896   8.449  0.7768  1.2577  0.5724
34377SOL     OW11908   2.257   6.047  10.593 -0.2120  0.1732  0.2077
34377SOL    HW111909   2.261   6.069  10.500 -1.8187 -0.7514 -0.1070
34377SOL    HW211910   2.285   5.956  10.598  2.7444  1.0191  1.0497
34378SOL     OW11911   6.690   1.776   5.279  0.8187  0.7336  0.2410
34378SOL    HW111912   6.673   1.866   5.305  0.9637  0.2985  1.9471
34378SOL    HW211913   6.641   1.723   5.341 -0.9893 -0.4069 -1.9995
34379SOL     OW11914   7.737  11.590   5.187 -0.0476  0.3587  0.2026
34379SOL    HW111915   7.673  11.525   5.158 -1.1788  1.7100 -0.4217
34379SOL    HW211916   7.789  11.544   5.254 -2.4346 -0.4389  1.6496
34380SOL     OW11917   5.074   6.542   1.553  0.3509 -0.0168 -0.2249
34380SOL    HW111918   5.040   6.631   1.553 -0.8241 -0.4458  0.3071
34380SOL    HW211919   5.016   6.495   1.493  1.0265 -0.4046 -0.5852
34381SOL     OW11920   1.458   2.869   7.711  0.1737  0.4694 -0.3705
34381SOL    HW111921   1.524   2.802   7.693  0.0480  0.4282 -0.6785
34381SOL    HW211922   1.479   2.900   7.799  1.4952  1.4725 -0.9998
34382SOL     OW11923  10.321   4.893  10.292  0.2685  0.2572  0.3237
34382SOL    HW111924  10.265   4.821  10.319 -0.3474  0.7403  0.3618
34382SOL    HW211925  10.403   4.852  10.266 -0.7594 -0.6415 -1.6231
34383SOL     OW11926   9.556   6.506   1.538 -0.2663 -0.1574 -0.4694
34383SOL    HW111927   9.541   6.420   1.577  2.2522  0.2343  1.6486
34383SOL    HW211928   9.563   6.489   1.444 -1.4131 -1.9898 -0.2631
34384SOL     OW11929  11.806   8.935   5.653  0.0148  1.0958  0.2046
34384SOL    HW111930  11.766   9.006   5.604  0.0414  2.1850  1.6982
34384SOL    HW211931  11.740   8.910   5.718  0.3825  0.4083  0.3262
34385SOL     OW11932  11.154   4.976  11.196 -0.3483 -0.8809 -0.3874
34385SOL    HW111933  11.184   4.928  11.273 -0.7274  0.1192  0.4165
34385SOL    HW211934  11.099   4.914  11.148  0.5143 -1.7609 -0.2630
34386SOL     OW11935   5.752   3.485   2.215  0.2945  0.0987 -0.6439
34386SOL    HW111936   5.679   3.431   2.246  0.5475 -0.6531 -1.3591
34386SOL    HW211937   5.714   3.573   2.205  0.1706  0.3740  1.6908
34387SOL     OW11938   2.090  10.236   8.210 -0.0463  0.0641 -0.0622
34387SOL    HW111939   2.037  10.160   8.236 -1.1142 -0.6797 -3.7643
34387SOL    HW211940   2.179  10.201   8.201 -0.3062 -0.4879 -0.5926
34388SOL     OW11941   3.719   9.056  11.248  0.1950  0.1438 -0.3070
34388SOL    HW111942   3.703   9.133  11.302  0.9526 -1.1592  1.9056
34388SOL    HW211943   3.633   9.033  11.213 -0.4802  0.5698  1.0004
34389SOL     OW11944   7.672   6.221  12.488  0.0039  0.0395 -0.3202
34389SOL    HW111945   7.621   6.302  12.496  1.5329  1.0383 -0.4111
34389SOL    HW211946   7.722   6.232  12.407 -0.0540 -1.1826 -0.5463
34390SOL     OW11947   6.040   7.618  10.801  0.3085  0.0168 -0.5138
34390SOL    HW111948   6.125   7.649  10.769  1.4301 -1.3752  0.9793
34390SOL    HW211949   5.998   7.581  10.724  1.5669 -0.3553 -1.0512
34391SOL     OW11950   4.253  11.554   5.978 -0.2079  0.3378  0.4311
34391SOL    HW111951   4.160  11.528   5.980  0.2285 -1.3092  0.9475
34391SOL    HW211952   4.278  11.546   5.886 -0.1722 -0.8699  0.5272
34392SOL     OW11953   6.318   6.054   0.304 -0.2662  0.0794 -0.0791
34392SOL    HW111954   6.331   6.145   0.333 -0.0436 -0.4995  1.7625
34392SOL    HW211955   6.380   6.004   0.357  0.8801 -0.9856 -2.3168
34393SOL     OW11956   6.314   4.107   4.718  0.4011 -0.3142 -0.3018
34393SOL    HW111957   6.406   4.088   4.699  0.3239 -0.8589 -0.1541
34393SOL    HW211958   6.317   4.162   4.796  0.6970  1.5385 -1.5469
34394SOL     OW11959   6.021   1.532   4.239  0.5155  0.1222 -0.4280
34394SOL    HW111960   6.087   1.550   4.306  0.0119  2.7790 -0.5092
34394SOL    HW211961   5.985   1.619   4.217 -1.4426 -0.9862 -1.9803
34395SOL     OW11962   1.278   1.199   8.936  0.4697  0.2629  0.6387
34395SOL    HW111963   1.212   1.211   8.868  0.8998  3.6238  0.6287
34395SOL    HW211964   1.362   1.209   8.890  0.8336  0.3059  1.2958
34396SOL     OW11965   6.856   3.188   5.822  0.3439 -0.6158  0.0219
34396SOL    HW111966   6.813   3.177   5.737 -0.0939 -0.9742  0.2927
34396SOL    HW211967   6.785   3.204   5.884  0.7542  1.0990  0.0958
34397SOL     OW11968  12.438   2.777   4.621 -0.3871 -0.1292  0.0395
34397SOL    HW111969  12.344   2.759   4.630 -0.7158  1.3870 -0.0294
34397SOL    HW211970  12.459   2.834   4.695 -0.1523  1.6855 -1.3368
34398SOL     OW11971   0.606   3.713   9.841 -0.0892 -0.0830 -0.0429
34398SOL    HW111972   0.532   3.755   9.883 -0.7059 -1.4236  0.2394
34398SOL    HW211973   0.590   3.619   9.849  4.0658 -0.8360  4.6818
34399SOL     OW11974   5.919   7.421   0.921 -0.5074  0.6134 -0.4507
34399SOL    HW111975   5.949   7.386   1.005 -0.2452  0.2180 -0.7087
34399SOL    HW211976   5.938   7.515   0.927  0.7771  0.3896 -0.5919
34400SOL     OW11977   7.070   6.235   1.092  0.3354  0.1703  0.1510
34400SOL    HW111978   7.047   6.173   1.024  0.4631 -0.6301  0.8257
34400SOL    HW211979   7.160   6.214   1.116  0.6553  1.1326 -0.1570
34401SOL     OW11980   3.548   2.896  11.170 -0.3997 -0.2964  0.6914
34401SOL    HW111981   3.574   2.984  11.198  1.1788 -0.0267 -1.3521
34401SOL    HW211982   3.619   2.867  11.113 -2.6842 -1.2688 -1.8923
34402SOL     OW11983   8.986   2.826   5.517 -0.1506 -0.3944  0.3097
34402SOL    HW111984   9.018   2.776   5.442  0.3024  1.7209 -1.0180
34402SOL    HW211985   9.064   2.869   5.552 -0.5884 -0.2195  1.0950
34403SOL     OW11986   4.497   4.042   4.898 -0.5901 -0.0263  0.2979
34403SOL    HW111987   4.417   4.094   4.890 -1.2996 -1.2214 -0.6298
34403SOL    HW211988   4.511   4.006   4.810  0.8471 -0.0178  0.4986
34404SOL     OW11989  10.960  12.104   8.455  0.2133  0.3351 -0.0219
34404SOL    HW111990  10.980  12.024   8.503  0.8699 -1.1085 -2.5395
34404SOL    HW211991  11.046  12.144   8.440  0.1991 -0.1025 -1.3595
34405SOL     OW11992   3.022   1.598  12.131  0.6162  0.2762  0.4331
34405SOL    HW111993   3.033   1.505  12.115 -1.7414 -0.4290  2.2239
34405SOL    HW211994   3.039   1.609  12.225  0.4407  1.5716  0.3389
34406SOL     OW11995   4.518   3.354   3.445  0.2241 -0.0546 -0.0141
34406SOL    HW111996   4.500   3.292   3.516  0.3811  1.4919  1.4395
34406SOL    HW211997   4.452   3.333   3.379 -1.1003 -0.4094  1.3470
34407SOL     OW11998   2.499   8.116   7.949  0.2997 -0.0989 -0.4883
34407SOL    HW111999   2.545   8.169   8.013  0.3865  0.9473 -1.3886
34407SOL    HW212000   2.407   8.140   7.958  0.4320  0.8243 -1.4372
34408SOL     OW12001   2.048  12.474   7.977  0.0261  0.2317  0.8350
34408SOL    HW112002   1.959  12.456   7.944  1.0501 -1.2436 -1.4089
34408SOL    HW212003   2.086  12.531   7.910  0.5394  1.5102  2.1874
34409SOL     OW12004  10.838   8.506   2.174 -0.4700 -0.4666  0.7620
34409SOL    HW112005  10.843   8.438   2.107 -0.1559 -0.3586  0.6769
34409SOL    HW212006  10.872   8.585   2.131 -0.1504 -0.4259  1.0846
34410SOL     OW12007   8.486   7.867   2.575  0.1015  0.5019  0.3633
34410SOL    HW112008   8.534   7.785   2.590 -0.3767  0.3845  1.3146
34410SOL    HW212009   8.554   7.935   2.578  0.4958  0.1652 -0.3895
34411SOL     OW12010  10.520   6.818   3.288 -0.4709 -0.2375  0.3367
34411SOL    HW112011  10.527   6.908   3.258  4.2554 -0.7896 -1.0132
34411SOL    HW212012  10.542   6.822   3.382 -2.8182  0.1531  0.9332
34412SOL     OW12013   8.730   6.366   7.746 -0.2841  0.1771 -0.4786
34412SOL    HW112014   8.650   6.330   7.785  0.9123 -1.0547  0.9259
34412SOL    HW212015   8.789   6.380   7.819  1.8277 -1.6464 -1.7109
34413SOL     OW12016   4.293   0.135   2.588  0.7077  0.1325 -0.6162
34413SOL    HW112017   4.278   0.207   2.650 -1.4075  0.4376 -1.4165
34413SOL    HW212018   4.299   0.057   2.643 -0.2846  0.5095  0.0546
34414SOL     OW12019   3.155   1.340   9.602 -0.7847  0.4706  0.7936
34414SOL    HW112020   3.226   1.291   9.561 -1.6317  0.4231 -0.6470
34414SOL    HW212021   3.081   1.280   9.603 -1.4418  1.2561  0.2637
34415SOL     OW12022   6.023  12.174   9.437  0.3301  0.5140 -0.3631
34415SOL    HW112023   6.057  12.136   9.518 -0.2485 -1.5551 -1.0253
34415SOL    HW212024   6.101  12.193   9.384  0.6301 -0.5807 -0.3407
34416SOL     OW12025   8.398   4.465   4.079  0.0022  0.4088 -0.2773
34416SOL    HW112026   8.475   4.480   4.024 -0.4241 -0.9079 -1.2947
34416SOL    HW212027   8.331   4.521   4.041  0.2354  0.9748  0.1316
34417SOL     OW12028   7.956   0.782   7.708 -0.1435 -0.1233 -0.0802
34417SOL    HW112029   7.982   0.839   7.780 -1.6159  3.1189 -1.9004
34417SOL    HW212030   7.872   0.744   7.737 -0.4898  0.7836  0.1420
34418SOL     OW12031   1.150   2.163   1.399  0.0418 -0.0522  0.2997
34418SOL    HW112032   1.195   2.171   1.484 -0.1495  1.0121  0.3206
34418SOL    HW212033   1.202   2.100   1.350  1.3345  0.8362  0.4776
34419SOL     OW12034   2.104   8.322  10.139 -0.2844  0.2706  0.1997
34419SOL    HW112035   2.139   8.352  10.055 -1.6644 -0.1439 -0.5534
34419SOL    HW212036   2.149   8.240  10.155 -0.9023 -0.2879 -0.7850
34420SOL     OW12037   5.468   3.508   4.935 -0.3213 -0.3072  0.3579
34420SOL    HW112038   5.523   3.448   4.985  0.5834  0.3409  0.1794
34420SOL    HW212039   5.529   3.552   4.876 -1.4170 -1.3163 -1.5989
34421SOL     OW12040   0.600   1.154   3.680  0.5109  0.1900  0.4405
34421SOL    HW112041   0.596   1.117   3.769  0.8812 -0.4016  0.2188
34421SOL    HW212042   0.649   1.089   3.630 -0.6565 -0.0186 -0.4673
34422SOL     OW12043  11.447   4.103   8.302 -0.1148 -0.3523 -0.8789
34422SOL    HW112044  11.468   4.140   8.217 -0.3912 -0.2323 -0.8984
34422SOL    HW212045  11.532   4.084   8.342  0.0332  0.2338 -0.9040
34423SOL     OW12046   2.126  12.211   3.242  0.0632 -0.0557  0.6226
34423SOL    HW112047   2.213  12.237   3.211  0.5125 -0.4184  1.5515
34423SOL    HW212048   2.136  12.119   3.268 -0.9154 -0.4818 -0.3998
34424SOL     OW12049  12.458   7.171   6.708 -0.4071 -0.1178  0.1751
34424SOL    HW112050  12.548   7.138   6.708 -0.4510 -0.3902  2.3508
34424SOL    HW212051  12.419   7.135   6.629  1.6478  0.8252 -1.3691
34425SOL     OW12052   9.500   8.826   1.370  0.1613 -0.3757  0.3068
34425SOL    HW112053   9.588   8.810   1.334  0.7520  0.4874  1.3232
34425SOL    HW212054   9.444   8.833   1.292  1.0215 -0.7136 -0.3637
34426SOL     OW12055   1.735  10.616   7.650  0.8581  0.0843  0.3824
34426SOL    HW112056   1.759  10.646   7.738  0.0171  1.3608  0.2094
34426SOL    HW212057   1.819  10.604   7.605  1.2651  1.1946  0.8052
34427SOL     OW12058   6.351   1.128  11.616  0.3812  0.4460  0.2605
34427SOL    HW112059   6.415   1.076  11.665  0.0551  1.1551  1.4933
34427SOL    HW212060   6.398   1.209  11.595 -0.1807  1.1126  1.4691
34428SOL     OW12061   0.488   7.490   0.599  0.3101 -0.0026 -0.3506
34428SOL    HW112062   0.402   7.517   0.567  1.2030  0.9678 -2.0710
34428SOL    HW212063   0.473   7.406   0.642 -1.6974  0.7750  0.5790
34429SOL     OW12064   0.140   5.210   7.834 -0.0101  0.6867  0.5295
34429SOL    HW112065   0.179   5.293   7.859  1.1609  0.0693  0.8390
34429SOL    HW212066   0.115   5.169   7.916  1.8638 -0.4017  0.6105
34430SOL     OW12067   4.370   6.602  10.345  0.1357 -0.2682 -0.3413
34430SOL    HW112068   4.276   6.615  10.362  0.3051 -0.2201  0.5555
34430SOL    HW212069   4.414   6.643  10.419  0.8294 -1.4821 -0.0615
34431SOL     OW12070   5.647   9.723   5.894 -0.0102  0.6313  0.3557
34431SOL    HW112071   5.707   9.789   5.859 -0.1716  1.6098  1.8263
34431SOL    HW212072   5.574   9.774   5.930  0.0188 -0.3044  1.8345
34432SOL     OW12073  11.191  11.784  11.331  0.1544 -0.7361 -0.4612
34432SOL    HW112074  11.114  11.804  11.277 -0.4167 -1.5288  0.0333
34432SOL    HW212075  11.157  11.732  11.403  1.0210 -0.2766  0.2977
34433SOL     OW12076   6.189   2.880   2.818  0.3047  0.2331 -0.3455
34433SOL    HW112077   6.099   2.913   2.817 -0.2245 -0.9764  1.1951
34433SOL    HW212078   6.240   2.950   2.857 -0.6087 -0.2328  1.8817
34434SOL     OW12079   7.708  10.238   9.154  0.7007  0.6001 -0.9308
34434SOL    HW112080   7.771  10.239   9.226 -0.2634 -0.0841 -0.0542
34434SOL    HW212081   7.664  10.323   9.158  0.2811  0.3603 -0.3718
34435SOL     OW12082   4.249   3.476   5.258  0.4392  0.6550 -0.1450
34435SOL    HW112083   4.199   3.397   5.240  1.5778 -0.1871  0.2290
34435SOL    HW212084   4.338   3.455   5.230  1.3608  0.8241  2.3405
34436SOL     OW12085   3.867   5.877   3.626  0.2401  0.7026  0.3491
34436SOL    HW112086   3.818   5.837   3.555  1.7410 -0.5422 -0.0327
34436SOL    HW212087   3.840   5.969   3.626 -0.8698  0.3953 -0.8587
34437SOL     OW12088   0.054   1.227   5.170 -0.2955  0.2059  0.6174
34437SOL    HW112089   0.124   1.162   5.178  0.8292  1.2372 -0.4505
34437SOL    HW212090   0.015   1.231   5.258 -0.4424 -1.9046  0.7147
34438SOL     OW12091   0.492   9.120   1.880  0.4124  0.5624  0.2451
34438SOL    HW112092   0.525   9.043   1.833 -1.7002 -0.3454  0.1305
34438SOL    HW212093   0.429   9.160   1.820 -0.7068  0.6409  1.4202
34439SOL     OW12094   7.068   0.322   7.915  0.9598  0.5360 -0.1947
34439SOL    HW112095   6.984   0.368   7.919  0.8936  0.3615  0.5029
34439SOL    HW212096   7.046   0.230   7.929  1.2835  0.5120  0.1802
34440SOL     OW12097  12.323  10.021   4.135  0.4079 -0.3567  0.2630
34440SOL    HW112098  12.407  10.067   4.134 -0.0323  0.5158  1.1175
34440SOL    HW212099  12.302  10.013   4.228 -0.6623 -0.1731  0.0476
34441SOL     OW12100   9.968   7.429   0.180 -0.4717 -0.0452  0.7248
34441SOL    HW112101   9.950   7.509   0.228 -0.1866  0.2870  0.2899
34441SOL    HW212102  10.061   7.435   0.158 -0.3893 -0.6184  0.9146
34442SOL     OW12103   2.137   4.964  10.221 -0.3205 -0.2842  0.4660
34442SOL    HW112104   2.182   4.880  10.234 -0.5751 -0.5733 -0.4398
34442SOL    HW212105   2.171   4.997  10.138 -0.8620  0.0903  0.3890
34443SOL     OW12106   8.171   3.518   5.669  0.7578 -0.0198  0.1106
34443SOL    HW112107   8.221   3.588   5.627 -0.9962  0.7112 -0.8955
34443SOL    HW212108   8.232   3.445   5.675  0.9848 -0.4313 -4.4306
34444SOL     OW12109  11.147  11.990   3.207  0.0074 -0.2881  0.3575
34444SOL    HW112110  11.102  11.986   3.123  0.4247  0.6216  0.0766
34444SOL    HW212111  11.079  12.016   3.269 -0.1619 -0.3111  0.1843
34445SOL     OW12112   0.130   4.378   5.669 -0.2601 -0.0997 -0.5881
34445SOL    HW112113   0.100   4.291   5.643  2.1815 -1.3916  0.5775
34445SOL    HW212114   0.069   4.406   5.737 -1.0086 -0.9269 -0.9026
34446SOL     OW12115   9.031   3.221   2.179  0.6310  0.1601  0.2230
34446SOL    HW112116   9.009   3.271   2.258  2.9956  2.4034 -0.4129
34446SOL    HW212117   8.959   3.240   2.118  0.6331  1.4127  0.5879
34447SOL     OW12118  12.607   1.902   6.708  0.0004  0.4858  0.0058
34447SOL    HW112119  12.608   1.968   6.638  0.3797 -0.0033 -0.4556
34447SOL    HW212120  12.699   1.882   6.724 -0.0575  0.9262  0.9813
34448SOL     OW12121  10.436   2.343   4.090  0.0634 -0.4275 -0.1026
34448SOL    HW112122  10.486   2.404   4.036 -0.7021 -0.1626 -0.5163
34448SOL    HW212123  10.402   2.279   4.028 -1.5896  0.3940 -0.0815
34449SOL     OW12124   7.082   0.168   1.138 -0.3172 -0.4230 -0.2059
34449SOL    HW112125   7.085   0.085   1.185 -2.6223 -1.2614 -1.3849
34449SOL    HW212126   6.993   0.202   1.154 -0.7853 -0.1508 -2.8574
34450SOL     OW12127   2.361   3.722  12.375  0.4134 -0.0473  0.2925
34450SOL    HW112128   2.357   3.632  12.406  0.2142 -0.1669 -0.0774
34450SOL    HW212129   2.405   3.769  12.446  0.2120 -0.3672  0.6398
34451SOL     OW12130   8.593   0.737   8.359 -0.1855 -0.0989  0.2604
34451SOL    HW112131   8.632   0.738   8.271 -1.0858 -0.0434 -0.1596
34451SOL    HW212132   8.664   0.714   8.417 -0.0085 -2.2989 -0.7134
34452SOL     OW12133   6.584  12.461   2.593 -0.0850  0.5358 -0.2318
34452SOL    HW112134   6.600  12.487   2.502  0.1816  0.5325 -0.1846
34452SOL    HW212135   6.662  12.489   2.641 -0.1265  0.3357 -0.0451
34453SOL     OW12136  11.022   0.683   6.015 -0.0156 -0.6286 -0.3166
34453SOL    HW112137  11.092   0.630   6.054  0.6046 -1.0811 -1.9710
34453SOL    HW212138  10.954   0.619   5.991 -0.4478 -0.3389  0.1175
34454SOL     OW12139   6.010   0.773   2.172  0.2063  0.0905 -0.0255
34454SOL    HW112140   6.042   0.689   2.205  1.1279  0.0266 -1.0602
34454SOL    HW212141   5.991   0.757   2.080 -0.0065  0.9160 -0.1317
34455SOL     OW12142   4.450   3.092  12.232 -0.1383 -0.1385 -0.3077
34455SOL    HW112143   4.356   3.089  12.215 -0.0398 -1.1262 -0.7831
34455SOL    HW212144   4.465   3.176  12.275 -1.2191  0.0741 -0.3322
34456SOL     OW12145   3.180   3.026  11.520 -0.3207 -0.2198  0.3588
34456SOL    HW112146   3.206   2.946  11.473  1.3345  0.6007 -0.2117
34456SOL    HW212147   3.138   2.994  11.599  1.4514 -1.7148  0.7790
34457SOL     OW12148   1.452   2.810   6.219  0.0177  0.6559 -0.2392
34457SOL    HW112149   1.401   2.751   6.164 -0.0469  0.3503  0.1470
34457SOL    HW212150   1.541   2.775   6.217 -0.3660 -0.5689  1.4779
34458SOL     OW12151   3.770   4.107   0.548  0.2401 -0.1299 -0.7705
34458SOL    HW112152   3.707   4.057   0.496 -0.1782 -2.9799  2.1248
34458SOL    HW212153   3.717   4.172   0.594 -0.0729 -0.3697 -0.7919
34459SOL     OW12154   0.743   3.706   9.391  0.7374  0.0777 -0.1405
34459SOL    HW112155   0.777   3.795   9.393  1.2128 -0.0213 -1.8757
34459SOL    HW212156   0.724   3.685   9.482  2.2855  1.3208  0.5150
34460SOL     OW12157   7.566   3.553   1.613 -0.5148 -0.0469  0.8234
34460SOL    HW112158   7.637   3.614   1.634 -0.0747 -1.0183  2.3549
34460SOL    HW212159   7.568   3.545   1.517  1.1563  0.3010  0.7993
34461SOL     OW12160   1.826   6.983   4.007 -0.4374 -0.0528  0.4639
34461SOL    HW112161   1.901   6.995   4.064 -1.4818  0.9349  1.7054
34461SOL    HW212162   1.766   6.926   4.056 -0.9509  0.0278 -0.0495
34462SOL     OW12163  12.162   5.276   6.791 -0.1871 -0.3613 -0.1489
34462SOL    HW112164  12.186   5.203   6.848  0.6915  0.0817  0.0753
34462SOL    HW212165  12.245   5.304   6.752 -0.4554  0.6834 -0.0051
34463SOL     OW12166  10.975   5.780   1.698  0.4617 -0.5406  0.1469
34463SOL    HW112167  11.029   5.743   1.629  0.5065 -0.5178  0.1693
34463SOL    HW212168  10.989   5.723   1.773  0.7312 -0.3288  0.2588
34464SOL     OW12169   5.600   9.388   2.095 -0.3384  0.4599  0.6124
34464SOL    HW112170   5.636   9.300   2.086 -1.2421  0.2857 -2.0392
34464SOL    HW212171   5.677   9.444   2.107  0.5664 -0.3480 -1.0610
34465SOL     OW12172   1.376   7.947   9.920  0.0084 -0.3023 -0.0939
34465SOL    HW112173   1.294   7.899   9.934  0.5642 -0.8589  1.4690
34465SOL    HW212174   1.443   7.878   9.915  0.4525  0.1732 -0.8227
34466SOL     OW12175   0.405   2.780  10.200  0.0865 -0.4290 -0.8084
34466SOL    HW112176   0.314   2.769  10.171  0.4769  0.0871 -2.3044
34466SOL    HW212177   0.456   2.723  10.143  0.5263 -2.5877  1.5668
34467SOL     OW12178  12.404   7.169  12.418  0.2830  0.5118 -0.2314
34467SOL    HW112179  12.396   7.144  12.325 -0.1201 -1.0498  0.1944
34467SOL    HW212180  12.323   7.138  12.458  1.7746 -1.7802  1.2453
34468SOL     OW12181   0.009   2.955   6.850  0.1485  0.1548  0.4464
34468SOL    HW112182  -0.047   3.032   6.842  0.5447  0.3870 -0.1508
34468SOL    HW212183  -0.023   2.911   6.929 -0.8770  0.2761  0.1210
34469SOL     OW12184   9.377   1.900   7.333  0.1958  0.5632 -0.2003
34469SOL    HW112185   9.441   1.845   7.288  0.7303 -0.3482  1.5826
34469SOL    HW212186   9.297   1.891   7.281  1.1428  0.7616 -1.7796
34470SOL     OW12187   9.051   5.424   4.123  0.3091  0.0806  0.5035
34470SOL    HW112188   9.002   5.400   4.202  0.6297 -0.2260  0.6150
34470SOL    HW212189   8.987   5.464   4.066  0.0963  0.4227  0.9761
34471SOL     OW12190   6.515   3.064   6.420 -0.4223  0.2571 -0.3253
34471SOL    HW112191   6.595   3.107   6.389  0.7715 -0.8389  1.0825
34471SOL    HW212192   6.488   3.115   6.496 -1.1887  0.7268 -0.8994
34472SOL     OW12193   0.326   5.896   9.004  0.4601  0.5724 -0.2360
34472SOL    HW112194   0.351   5.981   9.039 -0.6463  0.9119 -0.2348
34472SOL    HW212195   0.236   5.883   9.033  1.5281 -2.0376  2.4761
34473SOL     OW12196   7.919   7.277  12.186 -0.0672  0.2192  0.6095
34473SOL    HW112197   7.974   7.220  12.240  0.2103 -0.4911 -0.3922
34473SOL    HW212198   7.979   7.344  12.154 -0.7851  2.4245  3.4753
34474SOL     OW12199   6.467   8.808   5.640 -0.1492 -0.1600 -0.2378
34474SOL    HW112200   6.490   8.805   5.547 -0.2548 -2.5916 -0.2629
34474SOL    HW212201   6.544   8.843   5.683  0.3046 -0.0062 -1.1471
34475SOL     OW12202   8.191  10.014   3.974 -0.3673  0.1002 -0.2497
34475SOL    HW112203   8.127  10.044   4.038  0.5387  0.4983  0.4864
34475SOL    HW212204   8.143  10.015   3.891 -1.5098 -0.2622  0.3715
34476SOL     OW12205   0.878   5.319  10.424  0.0085  0.2966  0.6965
34476SOL    HW112206   0.910   5.357  10.342 -1.8128  0.2418 -0.0865
34476SOL    HW212207   0.821   5.386  10.461 -0.1304 -0.1479  1.3102
34477SOL     OW12208  10.278   7.923   4.413 -0.2404  0.4115 -0.4706
34477SOL    HW112209  10.238   7.851   4.462  0.8347  0.0817 -0.0365
34477SOL    HW212210  10.326   7.880   4.342 -0.0203  0.7340 -0.5223
34478SOL     OW12211   9.071   0.936   9.588 -0.8878  0.5734 -0.1550
34478SOL    HW112212   9.140   0.885   9.547 -0.6987  0.6137  0.1117
34478SOL    HW212213   9.072   0.909   9.680 -2.9942 -1.4304 -0.6267
34479SOL     OW12214   8.790  10.491   5.613  0.0405  0.0278 -0.6753
34479SOL    HW112215   8.758  10.402   5.628  0.0200  0.2892  1.0630
34479SOL    HW212216   8.712  10.546   5.615  0.2456  0.2979  0.2951
34480SOL     OW12217   4.300   4.330  12.130  0.8351  0.3095  0.5703
34480SOL    HW112218   4.303   4.247  12.081  0.1408  0.1773  0.7437
34480SOL    HW212219   4.313   4.304  12.221  0.3022  0.3548  0.6607
34481SOL     OW12220   8.309   5.510  10.036  0.4845 -0.2172 -0.4167
34481SOL    HW112221   8.243   5.466  10.090  0.3788  0.3101 -0.1078
34481SOL    HW212222   8.322   5.451   9.962 -1.5506  0.4125 -1.3559
34482SOL     OW12223   0.369   2.868   1.080 -0.7957 -0.0922 -0.2239
34482SOL    HW112224   0.293   2.898   1.030  0.7342  0.6925 -2.2416
34482SOL    HW212225   0.423   2.946   1.092  0.6903 -0.9899 -0.7653
34483SOL     OW12226   3.403  10.702   2.962  0.1106 -0.2325 -0.5051
34483SOL    HW112227   3.309  10.717   2.961  0.2099  0.3850 -0.6775
34483SOL    HW212228   3.426  10.685   2.871  0.3857  1.0350 -0.6884
34484SOL     OW12229   8.414   6.570   8.181  0.2236  0.0863 -0.4118
34484SOL    HW112230   8.331   6.616   8.193 -0.2532 -0.2387 -2.1173
34484SOL    HW212231   8.468   6.632   8.131  0.3210 -0.4199 -0.9372
34485SOL     OW12232  10.133   6.487  12.255 -1.1689 -0.0794  0.2006
34485SOL    HW112233  10.125   6.567  12.203 -2.6199 -0.3807 -0.0804
34485SOL    HW212234  10.152   6.518  12.343  1.5137  0.4350 -0.4574
34486SOL     OW12235   5.134   8.817  10.652  0.4211  0.5759 -0.0168
34486SOL    HW112236   5.081   8.819  10.731  0.2919  2.8895 -0.1116
34486SOL    HW212237   5.224   8.827  10.682  0.6059 -0.7246 -0.0528
34487SOL     OW12238   2.077   2.033   4.553 -0.0022  0.0339  0.3257
34487SOL    HW112239   2.000   1.984   4.526 -0.8840  0.8255  1.3074
34487SOL    HW212240   2.073   2.034   4.649  1.0376  0.3835  0.3840
34488SOL     OW12241  10.798   2.966   7.528 -0.2776  0.2428  0.4435
34488SOL    HW112242  10.861   3.017   7.579 -0.8697  0.7015  0.7263
34488SOL    HW212243  10.746   3.032   7.482 -0.3652 -0.1424 -0.0190
34489SOL     OW12244  11.749  11.909   3.898  0.3368 -0.3292 -0.2033
34489SOL    HW112245  11.803  11.971   3.850  0.1915  0.0452  0.1111
34489SOL    HW212246  11.811  11.844   3.931  0.6577  0.2881  0.4566
34490SOL     OW12247  10.726   5.977   6.823 -0.2909 -0.0803  0.1493
34490SOL    HW112248  10.655   5.938   6.772 -0.7861  1.8751 -0.7586
34490SOL    HW212249  10.692   6.062   6.849  1.2293  0.3267  0.8829
34491SOL     OW12250   3.430   1.591   3.478 -0.0497  0.3929 -0.4110
34491SOL    HW112251   3.467   1.585   3.566  0.2186  1.6005 -0.4251
34491SOL    HW212252   3.416   1.500   3.451 -1.3563  0.0282  1.3746
34492SOL     OW12253   5.464   9.670   9.290  0.0220  0.9403 -0.1804
34492SOL    HW112254   5.388   9.621   9.321  1.2305 -0.9092 -0.0036
34492SOL    HW212255   5.492   9.623   9.212 -0.0362  2.6576 -1.3025
34493SOL     OW12256   8.631   5.309   2.631 -0.2668 -0.2176 -0.5188
34493SOL    HW112257   8.694   5.244   2.660  1.8473  0.9719 -2.1137
34493SOL    HW212258   8.576   5.325   2.707  0.3900 -2.3984  0.4952
34494SOL     OW12259   4.415   3.467   0.434  0.0925  0.1676 -0.1377
34494SOL    HW112260   4.491   3.416   0.460  0.1824  0.7502  0.8224
34494SOL    HW212261   4.384   3.506   0.516 -0.2886  1.2064 -0.7573
34495SOL     OW12262   0.657  10.971  10.770 -0.6105 -0.4164  0.2304
34495SOL    HW112263   0.675  11.047  10.824  0.2561 -0.0760 -0.5093
34495SOL    HW212264   0.606  10.912  10.826 -0.2640  0.1915  1.1921
34496SOL     OW12265   0.806   2.802   4.090  0.9980  0.0153 -0.2783
34496SOL    HW112266   0.792   2.896   4.099 -0.9905 -0.0910 -1.5843
34496SOL    HW212267   0.865   2.793   4.015  0.4397  0.2064 -0.7473
34497SOL     OW12268  12.198   1.269  10.112  0.2535 -0.2685  0.3877
34497SOL    HW112269  12.135   1.239  10.177 -1.6306  0.1414 -1.1524
34497SOL    HW212270  12.279   1.223  10.134 -0.5032 -0.6561  2.5723
34498SOL     OW12271   1.103   5.496   5.332  0.4148  0.1181 -0.3663
34498SOL    HW112272   1.147   5.554   5.395  1.8572 -0.1600 -1.0748
34498SOL    HW212273   1.131   5.408   5.357  0.1471 -0.0764 -0.7411
34499SOL     OW12274   9.765   4.834   5.785  0.3975  0.4015  0.2900
34499SOL    HW112275   9.721   4.858   5.703  0.3442 -1.5718 -0.3217
34499SOL    HW212276   9.694   4.820   5.847  0.3615  0.5685  0.2875
34500SOL     OW12277   8.968   0.664   2.236  0.0043  0.5349  0.7151
34500SOL    HW112278   9.026   0.698   2.167  1.0952 -1.8186  0.3758
34500SOL    HW212279   8.996   0.574   2.249 -3.9297 -0.9333  0.2269
34501SOL     OW12280   4.449   5.728   3.411 -0.3950  0.1341 -0.0406
34501SOL    HW112281   4.506   5.802   3.391  0.4928 -0.4907  0.1287
34501SOL    HW212282   4.451   5.722   3.507  2.0953 -2.0140 -0.1150
34502SOL     OW12283   2.979   8.853   4.309 -0.1270 -0.6551  0.5236
34502SOL    HW112284   2.934   8.837   4.226  1.3586 -1.7122 -0.1254
34502SOL    HW212285   2.988   8.949   4.313 -0.9953 -0.5360 -0.0954
34503SOL     OW12286   6.126   5.957  11.474  0.2565 -0.2270 -0.6240
34503SOL    HW112287   6.088   5.888  11.527 -0.1909  0.4114 -0.0930
34503SOL    HW212288   6.103   5.935  11.384 -1.6779  0.3031 -0.3046
34504SOL     OW12289   5.103   1.314   0.232 -0.2633 -0.4531 -0.7236
34504SOL    HW112290   5.084   1.294   0.323 -2.0187 -2.7909 -1.5256
34504SOL    HW212291   5.134   1.405   0.234 -1.6943  0.0796  2.0005
34505SOL     OW12292  11.551  10.552   2.226 -0.0012  0.4999 -0.1700
34505SOL    HW112293  11.635  10.556   2.180 -0.3449  2.4050 -0.6991
34505SOL    HW212294  11.550  10.630   2.281 -1.1399  0.1155  0.3748
34506SOL     OW12295   8.261   3.220   5.219  0.2312  0.0360  0.3231
34506SOL    HW112296   8.300   3.292   5.170 -0.9777  0.2291 -0.3921
34506SOL    HW212297   8.215   3.262   5.291  1.5780 -0.2148  1.3741
34507SOL     OW12298  11.293   9.690  12.454 -0.0205  0.6750  0.5390
34507SOL    HW112299  11.288   9.784  12.472 -2.6680  1.1369 -1.8780
34507SOL    HW212300  11.376   9.663  12.492  0.4019  3.7698  2.1834
34508SOL     OW12301   8.721   0.872   9.075  0.2682  0.6744 -0.0982
34508SOL    HW112302   8.706   0.962   9.105  0.4127  0.5250  0.4422
34508SOL    HW212303   8.675   0.817   9.139 -0.7067  0.3970 -1.0163
34509SOL     OW12304   4.419   5.918   2.060 -0.6546 -0.6245  0.1071
34509SOL    HW112305   4.427   5.942   1.968 -1.7130 -2.1136 -0.4202
34509SOL    HW212306   4.371   5.835   2.059  0.1416 -1.1600  1.9529
34510SOL     OW12307  12.351  11.339   5.858 -0.3313  0.4836  0.3039
34510SOL    HW112308  12.377  11.287   5.782 -0.1104 -1.0990  1.4065
34510SOL    HW212309  12.405  11.305   5.930 -2.0677  0.3921  1.6367
34511SOL     OW12310   2.886  10.994   8.576 -0.2707 -0.1966 -0.5602
34511SOL    HW112311   2.981  11.003   8.569 -0.3549 -0.1300 -1.8845
34511SOL    HW212312   2.872  10.950   8.660  0.9430 -0.4775 -0.4864
34512SOL     OW12313   1.534   2.409   4.568  0.4135  0.2568 -0.1531
34512SOL    HW112314   1.540   2.492   4.616 -1.4367  0.3429  0.0097
34512SOL    HW212315   1.444   2.379   4.583  0.3810 -0.7037 -1.9667
34513SOL     OW12316   5.653   5.468   9.804 -0.0814 -0.1933 -0.6402
34513SOL    HW112317   5.589   5.539   9.815 -0.0274 -0.2485  0.0564
34513SOL    HW212318   5.738   5.511   9.808 -0.0498 -0.2858 -0.2807
34514SOL     OW12319  10.226   8.956   0.988 -0.0566  0.0108 -0.4126
34514SOL    HW112320  10.254   9.008   1.063 -0.5567 -1.1318  0.5968
34514SOL    HW212321  10.195   8.874   1.026  1.8099 -1.5449 -2.0139
34515SOL     OW12322   2.919  11.478   6.664 -1.1247  0.1730 -0.1774
34515SOL    HW112323   2.966  11.562   6.661 -0.8271  0.0429  0.6317
34515SOL    HW212324   2.901  11.458   6.572 -0.1481  0.5413 -0.4687
34516SOL     OW12325   7.054   3.782   4.313  0.3946 -0.1951  0.1001
34516SOL    HW112326   7.111   3.858   4.307 -0.2812  0.4728  1.5324
34516SOL    HW212327   7.039   3.755   4.222  0.3578  1.6172 -0.4697
34517SOL     OW12328   3.947   2.920  12.350 -0.1322  0.2388 -0.1632
34517SOL    HW112329   3.854   2.943  12.357 -0.0586  0.1971  1.2800
34517SOL    HW212330   3.961   2.903  12.256 -1.9989 -1.4867 -0.2002
34518SOL     OW12331   8.668   6.642  11.816 -0.8322 -0.2027 -0.3550
34518SOL    HW112332   8.726   6.662  11.742 -1.9052 -0.7779 -1.3937
34518SOL    HW212333   8.650   6.548  11.807 -1.3715 -0.1708  0.3523
34519SOL     OW12334  12.545   9.041   0.422  0.1958 -0.3791 -0.1402
34519SOL    HW112335  12.568   8.965   0.370 -0.5538  0.4954 -1.8401
34519SOL    HW212336  12.609   9.108   0.396 -0.5203  0.2299 -0.3864
34520SOL     OW12337  10.669   4.587   6.144 -0.2795  0.1440 -0.4204
34520SOL    HW112338  10.588   4.591   6.092 -0.3833  0.4514 -0.2416
34520SOL    HW212339  10.732   4.637   6.092 -0.5183  0.8771 -0.0257
34521SOL     OW12340   7.150   5.376   3.070  1.0588  0.3543 -0.1556
34521SOL    HW112341   7.219   5.424   3.115  1.0444  1.3980 -1.2003
34521SOL    HW212342   7.161   5.399   2.978  0.6614 -1.1857 -0.6148
34522SOL     OW12343   3.714  10.449   8.442  0.0916 -0.0380 -0.2494
34522SOL    HW112344   3.702  10.513   8.371 -0.8137 -1.1315 -1.1326
34522SOL    HW212345   3.803  10.417   8.431  0.4291  0.8139 -0.0204
34523SOL     OW12346   2.687   9.404   2.661  0.3264 -0.6555 -0.2269
34523SOL    HW112347   2.670   9.425   2.753 -0.9255 -1.5920 -0.2197
34523SOL    HW212348   2.722   9.485   2.624  1.6465 -0.4807  1.2468
34524SOL     OW12349   3.630   7.998  11.712 -0.3774 -0.2905 -0.0385
34524SOL    HW112350   3.712   7.971  11.753 -0.1272  1.0721  0.4003
34524SOL    HW212351   3.655   8.067  11.651 -1.1151 -0.3781 -0.4521
34525SOL     OW12352   7.623   2.533   9.716 -0.8254 -0.0316 -0.3607
34525SOL    HW112353   7.606   2.614   9.669  0.4453  0.4967  0.0393
34525SOL    HW212354   7.694   2.492   9.667  0.1980  0.2964  0.7886
34526SOL     OW12355  10.312   4.766   5.276 -0.1777  0.5155 -0.6401
34526SOL    HW112356  10.337   4.686   5.321  1.6260  1.1718 -0.4060
34526SOL    HW212357  10.264   4.736   5.198  0.1959 -0.7685 -0.3964
34527SOL     OW12358   0.318   9.493  11.079 -0.0123  0.8953  0.6256
34527SOL    HW112359   0.375   9.503  11.002  1.1705  0.0206  1.3566
34527SOL    HW212360   0.267   9.574  11.081 -0.5799  0.6534 -1.4715
34528SOL     OW12361   9.504  12.577  11.209 -0.4863 -0.6059  0.8705
34528SOL    HW112362   9.486  12.668  11.182 -1.1996 -0.5446  1.5202
34528SOL    HW212363   9.487  12.526  11.130  0.6409 -0.1075  0.2873
34529SOL     OW12364   5.505  11.183   4.038  0.4788  0.7511 -0.0068
34529SOL    HW112365   5.465  11.217   4.118  2.0120 -0.6171  1.4061
34529SOL    HW212366   5.431  11.163   3.981 -0.8450 -0.4433  1.9936
34530SOL     OW12367   4.633   9.991   1.696  0.2993 -0.4123 -0.1664
34530SOL    HW112368   4.648   9.971   1.603  1.4710 -0.3733 -0.0047
34530SOL    HW212369   4.641   9.907   1.740  2.9727 -0.0404  0.2451
34531SOL     OW12370   9.528   0.226  10.853  0.3609  0.0758 -0.1077
34531SOL    HW112371   9.619   0.257  10.854  0.5592 -0.4816 -0.3885
34531SOL    HW212372   9.519   0.183  10.768 -0.5354  1.2036 -0.6176
34532SOL     OW12373   9.192   3.156   2.933 -0.1919 -0.0838 -0.5025
34532SOL    HW112374   9.259   3.221   2.910  0.0731 -0.0466  0.3346
34532SOL    HW212375   9.110   3.205   2.929 -0.0800  0.0935 -0.6872
34533SOL     OW12376   9.215   8.683   2.225  0.2381 -0.1396  0.0994
34533SOL    HW112377   9.236   8.723   2.140  2.7112  0.2323  0.8099
34533SOL    HW212378   9.185   8.755   2.280  4.1195  0.8262  1.1957
34534SOL     OW12379   9.605   0.615   8.728 -0.2334  0.1857 -0.1800
34534SOL    HW112380   9.517   0.634   8.761 -0.1534  0.5751 -0.1849
34534SOL    HW212381   9.597   0.622   8.633  0.3194  2.5808 -0.0998
34535SOL     OW12382   8.669   0.262   4.252 -0.0666  0.1126 -0.0514
34535SOL    HW112383   8.727   0.199   4.293  0.1916  1.0749  1.1099
34535SOL    HW212384   8.635   0.315   4.324 -1.8679  0.0211 -0.7719
34536SOL     OW12385  11.617   5.506  10.150 -0.0336 -0.1699 -0.0494
34536SOL    HW112386  11.652   5.426  10.111 -1.1169 -0.6875  0.0176
34536SOL    HW212387  11.586   5.480  10.236  0.7357  0.6003  0.4768
34537SOL     OW12388   5.490   9.706   0.727  0.3478 -0.1004  0.2263
34537SOL    HW112389   5.580   9.685   0.706 -0.4889 -4.1827 -0.0306
34537SOL    HW212390   5.487   9.711   0.822  0.4737 -2.6076  0.4180
34538SOL     OW12391   8.711   5.897   9.673 -0.6258  0.0604 -0.1371
34538SOL    HW112392   8.616   5.906   9.668 -0.7018 -1.3657 -2.3852
34538SOL    HW212393   8.724   5.822   9.731 -0.7920  0.8549  0.9648
34539SOL     OW12394   3.773   3.493   1.504 -0.2601 -0.0208 -0.2079
34539SOL    HW112395   3.806   3.404   1.511 -1.3907 -0.3859  0.7464
34539SOL    HW212396   3.839   3.539   1.451  0.6892 -1.2301 -0.1135
34540SOL     OW12397   0.848  11.952   2.525 -0.0124  0.0422  0.3553
34540SOL    HW112398   0.868  12.040   2.556 -1.1580  0.4553 -0.0426
34540SOL    HW212399   0.796  11.965   2.446 -1.0845 -0.9769  0.8583
34541SOL     OW12400   3.085  10.665   8.804 -0.3681  0.0735  0.1719
34541SOL    HW112401   3.082  10.603   8.877 -1.3921  0.5553  0.5598
34541SOL    HW212402   3.104  10.750   8.844 -1.9040  0.5220  0.0395
34542SOL     OW12403   3.675   1.666   7.258 -0.1293  0.1602  0.0866
34542SOL    HW112404   3.623   1.589   7.234 -0.5593 -0.4063  2.5460
34542SOL    HW212405   3.761   1.630   7.284 -0.5085  0.3762  1.7850
34543SOL     OW12406   1.459  11.218  11.907  0.1862  0.1443 -0.3631
34543SOL    HW112407   1.533  11.276  11.886 -0.1434  0.6572 -0.1401
34543SOL    HW212408   1.426  11.189  11.822 -0.8115  1.7890 -0.6016
34544SOL     OW12409   9.935   2.210   5.952  0.0295  0.3810  0.2189
34544SOL    HW112410   9.973   2.127   5.922 -1.4502 -0.3558  0.2890
34544SOL    HW212411   9.935   2.265   5.874  0.5232  0.1245  0.0300
34545SOL     OW12412  12.130   0.766   0.567  0.0071  0.0477 -0.7451
34545SOL    HW112413  12.141   0.745   0.474 -3.3660  2.5698 -1.8994
34545SOL    HW212414  12.180   0.847   0.579  0.0889 -0.0420 -0.4726
34546SOL     OW12415   8.763   0.684  12.474 -0.1665  0.2230  0.0993
34546SOL    HW112416   8.687   0.679  12.415  0.0387 -0.7460 -0.1023
34546SOL    HW212417   8.727   0.670  12.561 -0.4406  1.4412  0.2020
34547SOL     OW12418   3.374   0.635   5.478  0.0832  0.0677 -0.6195
34547SOL    HW112419   3.401   0.545   5.497 -0.0662  0.2192  0.4086
34547SOL    HW212420   3.279   0.630   5.471 -0.0666  0.3532  0.8483
34548SOL     OW12421   1.473  11.019   3.458  0.3848 -0.0374 -0.3671
34548SOL    HW112422   1.397  10.975   3.420 -0.5601  0.9182  0.3275
34548SOL    HW212423   1.529  11.040   3.384 -0.4936  0.0689 -1.0177
34549SOL     OW12424   6.071   8.272   3.180  0.5678  0.0965 -0.1757
34549SOL    HW112425   6.110   8.285   3.266  0.0423  1.6949 -0.1425
34549SOL    HW212426   5.976   8.276   3.195  0.4252 -1.2282 -0.6110
34550SOL     OW12427   5.755   9.948   1.817  0.1449 -0.3591 -0.3701
34550SOL    HW112428   5.737   9.951   1.911  0.0667 -0.7296 -0.3727
34550SOL    HW212429   5.690  10.007   1.778 -0.3183 -0.7905 -0.2652
34551SOL     OW12430   6.093   5.821   0.664 -0.5250  0.5049 -0.2348
34551SOL    HW112431   6.044   5.742   0.639  0.6260  0.1965 -1.6832
34551SOL    HW212432   6.086   5.878   0.588  0.6289  0.8102 -0.1292
34552SOL     OW12433  10.374   9.595   9.998 -0.3869 -0.0635 -0.2457
34552SOL    HW112434  10.303   9.578   9.936  0.4492 -0.2743 -1.1598
34552SOL    HW212435  10.399   9.686   9.982 -1.5680  0.5761  1.2621
34553SOL     OW12436   6.604   0.625   0.895  0.1386 -0.4137 -0.0257
34553SOL    HW112437   6.545   0.666   0.832 -1.0170  1.1560  1.9659
34553SOL    HW212438   6.664   0.694   0.921  0.2961 -0.8935  0.9306
34554SOL     OW12439  11.885   5.901   3.531  0.3075  0.4911  0.2856
34554SOL    HW112440  11.796   5.928   3.552 -0.3428  0.7512 -2.3524
34554SOL    HW212441  11.934   5.983   3.523  0.3333  0.4579  0.0793
34555SOL     OW12442   8.597   4.651   3.420  0.8142 -0.0105  0.0309
34555SOL    HW112443   8.613   4.602   3.340  3.6255  1.9767 -0.7822
34555SOL    HW212444   8.544   4.726   3.392 -0.4948 -0.6944  0.5969
34556SOL     OW12445   6.750   4.771   9.226  0.4287 -0.2218 -0.1087
34556SOL    HW112446   6.775   4.857   9.193 -1.4432 -0.1159 -1.4699
34556SOL    HW212447   6.662   4.756   9.189  0.7854 -2.8092 -0.1204
34557SOL     OW12448   9.711   4.290   1.030  0.4533  0.2072  0.2365
34557SOL    HW112449   9.774   4.261   1.096 -0.6079 -0.5542  0.9373
34557SOL    HW212450   9.666   4.365   1.071 -0.9243 -0.9034  0.8342
34558SOL     OW12451   2.964   5.528   2.854 -0.1177 -0.1896 -0.3823
34558SOL    HW112452   2.970   5.434   2.871  0.4354 -0.0697  0.0944
34558SOL    HW212453   2.889   5.557   2.906 -0.8687 -0.5206 -1.2458
34559SOL     OW12454   8.246  10.836  12.549  0.1459  0.2312  0.2499
34559SOL    HW112455   8.204  10.912  12.509  0.1770  0.8653  1.4073
34559SOL    HW212456   8.332  10.830  12.506 -1.0856 -1.1957 -2.2948
34560SOL     OW12457   8.937   6.277   5.348  0.0897  0.0404  0.3451
34560SOL    HW112458   8.898   6.355   5.386 -0.7429 -0.2344  0.0731
34560SOL    HW212459   8.982   6.308   5.269  1.1398  0.4825  1.0853
34561SOL     OW12460   9.170   8.909  10.287 -0.4003 -0.1141  0.5600
34561SOL    HW112461   9.088   8.936  10.329 -1.8686 -0.9626 -1.5462
34561SOL    HW212462   9.231   8.896  10.359 -2.2159  0.2269  2.2566
34562SOL     OW12463  10.648   1.017   7.468  0.5822  0.3408 -0.4370
34562SOL    HW112464  10.562   0.980   7.491 -0.3341  1.6104 -1.6424
34562SOL    HW212465  10.638   1.111   7.484  1.9416  0.4395 -0.1090
34563SOL     OW12466   5.990   4.489   0.061 -0.2177 -0.1081 -0.0328
34563SOL    HW112467   5.956   4.552   0.124 -0.2744 -0.7829  0.6347
34563SOL    HW212468   5.913   4.442   0.030 -0.0875 -0.4737  0.1841
34564SOL     OW12469   0.026   1.195   3.317 -0.2366  0.0211  0.7122
34564SOL    HW112470   0.027   1.117   3.262  0.0121 -1.3573  2.5824
34564SOL    HW212471   0.076   1.260   3.268 -1.2719 -0.6306 -1.3318
34565SOL     OW12472   9.086   3.544   7.298  0.6583  0.6243 -0.1026
34565SOL    HW112473   9.034   3.513   7.372  1.7716 -0.4813  0.2525
34565SOL    HW212474   9.041   3.509   7.221  0.7661 -0.1843  0.1933
34566SOL     OW12475   4.194   5.412   4.996  0.4872  0.5192  0.8997
34566SOL    HW112476   4.119   5.370   5.039 -0.0708  1.7642  1.1965
34566SOL    HW212477   4.263   5.346   4.998 -0.4403 -0.4729  1.0876
34567SOL     OW12478   9.268   3.284   7.525  0.7842  0.6969  0.0065
34567SOL    HW112479   9.357   3.252   7.539 -0.0540 -1.0675  1.7234
34567SOL    HW212480   9.254   3.347   7.596 -0.0409 -0.7037  1.1464
34568SOL     OW12481   5.366  10.840   7.794  0.6275  0.2761 -0.2240
34568SOL    HW112482   5.389  10.844   7.702  0.3347  0.9520 -0.2750
34568SOL    HW212483   5.271  10.855   7.796  0.2923 -1.5303  0.0473
34569SOL     OW12484  11.444   6.132   3.903 -0.0190  0.1225  0.0053
34569SOL    HW112485  11.526   6.082   3.901 -0.5582 -0.8397  0.9455
34569SOL    HW212486  11.376   6.066   3.898 -0.8288  1.0045 -3.4088
34570SOL     OW12487   2.549   7.393   8.022 -0.4330  0.0456 -0.7789
34570SOL    HW112488   2.528   7.333   7.951  1.0007 -1.7956  0.2601
34570SOL    HW212489   2.644   7.385   8.033 -0.4896  0.9639  0.7399
34571SOL     OW12490   7.397   3.457   9.793  0.1801 -0.5621  0.6236
34571SOL    HW112491   7.381   3.367   9.766 -2.0924  0.2376 -1.0408
34571SOL    HW212492   7.390   3.455   9.889 -0.3421 -2.0610  0.5754
34572SOL     OW12493   4.090   2.335   2.982 -0.3506  0.0338  0.0735
34572SOL    HW112494   4.185   2.347   2.974 -0.3353  0.1952  0.4714
34572SOL    HW212495   4.065   2.293   2.901  0.2323 -1.0208  0.4235
34573SOL     OW12496   7.916  10.869   0.503  0.2447  0.3004 -0.5805
34573SOL    HW112497   7.942  10.960   0.515  2.6065 -0.4662  0.7094
34573SOL    HW212498   7.930  10.851   0.410 -0.9237  1.3939 -0.9988
34574SOL     OW12499  12.455   6.820   7.917  0.2750  0.0244 -0.5592
34574SOL    HW112500  12.386   6.887   7.916 -0.2428 -0.4678  0.5833
34574SOL    HW212501  12.418   6.748   7.867 -0.3506 -0.5106  0.6342
34575SOL     OW12502   4.169   0.628  11.486 -0.2508 -0.3085 -0.6061
34575SOL    HW112503   4.081   0.609  11.452 -0.5479  1.7104 -1.0891
34575SOL    HW212504   4.224   0.634  11.409 -0.0596  0.1403 -0.4390
34576SOL     OW12505   9.406   2.137   2.662 -0.4215  0.2633 -0.0136
34576SOL    HW112506   9.434   2.048   2.682  0.2021  0.3280 -0.5736
34576SOL    HW212507   9.487   2.189   2.662 -0.7133  0.7327 -0.2002
34577SOL     OW12508   5.697   4.979  12.610  0.0458  0.0319  0.8081
34577SOL    HW112509   5.786   5.003  12.587 -0.0940 -1.0893 -1.1346
34577SOL    HW212510   5.703   4.941  12.698  1.3885  0.4014  0.8856
34578SOL     OW12511  10.260   6.561   0.495 -0.2341  0.2381 -0.1968
34578SOL    HW112512  10.306   6.597   0.419 -0.6388 -0.2856 -0.7016
34578SOL    HW212513  10.198   6.630   0.519  0.1557  0.5622 -0.0956
34579SOL     OW12514   4.121   3.979   7.948  0.0140  0.0299  0.0100
34579SOL    HW112515   4.175   3.902   7.929 -0.1989 -0.2798  0.6666
34579SOL    HW212516   4.159   4.048   7.893  0.7220 -0.3292  0.0369
34580SOL     OW12517   9.958   1.168   2.434  0.3736 -0.2285  0.1933
34580SOL    HW112518   9.909   1.154   2.353  0.5689 -0.2230  0.0732
34580SOL    HW212519   9.891   1.188   2.500  0.3127  1.2007 -0.2783
34581SOL     OW12520   2.267   6.969   1.808 -0.5321 -0.2936 -0.4419
34581SOL    HW112521   2.356   6.961   1.774 -0.9515 -2.7767 -1.1692
34581SOL    HW212522   2.270   6.929   1.895 -0.8012  0.2770 -0.1614
34582SOL     OW12523   9.851   0.297   0.586 -0.2115  0.6720 -0.0382
34582SOL    HW112524   9.756   0.311   0.587 -0.0622  2.0410 -1.5139
34582SOL    HW212525   9.888   0.386   0.589  0.9406  0.3628 -2.7716
34583SOL     OW12526   7.800   9.271  11.404  0.2406 -0.3067  0.3776
34583SOL    HW112527   7.888   9.306  11.418  0.1512  0.3350 -0.6024
34583SOL    HW212528   7.752   9.293  11.484 -0.1291  2.8223 -0.6010
34584SOL     OW12529   3.256   5.596   5.041 -0.1108  0.3018  0.0977
34584SOL    HW112530   3.300   5.671   5.001  2.0031 -0.7329  0.2876
34584SOL    HW212531   3.225   5.544   4.968 -1.5818  1.3230 -0.0346
34585SOL     OW12532   4.240   1.102  10.806  0.5342  0.0625  0.0957
34585SOL    HW112533   4.249   1.085  10.713 -1.3693  1.3469 -0.3759
34585SOL    HW212534   4.149   1.082  10.826  1.6417 -3.6510  2.5374
34586SOL     OW12535   2.025   0.957  10.245  0.6104 -0.3014 -0.4537
34586SOL    HW112536   1.986   0.889  10.191  0.7822 -0.9057  0.1701
34586SOL    HW212537   2.116   0.931  10.254  1.0395  0.7988 -1.4225
34587SOL     OW12538   4.245   2.030   7.372 -0.1095  0.2131  0.5983
34587SOL    HW112539   4.213   2.082   7.446 -1.8612  0.0807 -0.0222
34587SOL    HW212540   4.180   2.043   7.303  0.2413 -1.5203 -0.1228
34588SOL     OW12541  11.773   2.841   4.439 -0.0029  0.0780  0.5056
34588SOL    HW112542  11.800   2.754   4.410  0.6887  0.1272  0.9768
34588SOL    HW212543  11.846   2.898   4.415 -0.7468  0.6704 -0.4496
34589SOL     OW12544   0.894   6.666   1.351  0.1549  0.2202  0.3549
34589SOL    HW112545   0.908   6.603   1.422 -0.0441  0.1186  0.3071
34589SOL    HW212546   0.840   6.618   1.288  1.6604 -0.2261 -0.6242
34590SOL     OW12547  10.064   3.870   3.620  0.1294 -0.3023  0.7470
34590SOL    HW112548  10.135   3.885   3.683 -0.9801 -0.1587  2.0020
34590SOL    HW212549   9.984   3.884   3.671 -0.8001  0.4039 -0.8511
34591SOL     OW12550  10.343   6.710  10.086 -0.4034 -0.2260 -0.0314
34591SOL    HW112551  10.339   6.618  10.062  0.3374 -0.4706  0.7474
34591SOL    HW212552  10.417   6.716  10.147 -0.3887  0.8926 -0.1421
34592SOL     OW12553   0.142   7.013  11.178  0.3164 -0.5602 -0.6211
34592SOL    HW112554   0.071   6.970  11.130 -0.6256  0.4644 -0.1755
34592SOL    HW212555   0.188   6.941  11.221 -1.3020 -1.1460  0.2249
34593SOL     OW12556   6.030   0.628   9.382 -0.4431  0.0217  0.1378
34593SOL    HW112557   6.042   0.674   9.299  0.5143 -1.7268 -0.7641
34593SOL    HW212558   6.040   0.696   9.449  2.5400  0.9430 -1.0455
34594SOL     OW12559   3.741   2.554  10.792  0.1374 -0.6520 -0.6453
34594SOL    HW112560   3.732   2.516  10.704 -1.5863 -1.0216 -0.3367
34594SOL    HW212561   3.836   2.557  10.806  0.4652 -0.4724 -2.5526
34595SOL     OW12562   2.466   6.110   4.391 -0.5163  0.1870  0.1774
34595SOL    HW112563   2.431   6.025   4.364 -0.7872  0.0520  0.9184
34595SOL    HW212564   2.533   6.088   4.457  0.3199  0.4902 -0.5526
34596SOL     OW12565   4.427   6.532   9.918 -0.4668 -0.3272  0.2131
34596SOL    HW112566   4.480   6.474   9.972 -2.0589 -0.6618  1.5147
34596SOL    HW212567   4.468   6.618   9.926  0.4768 -0.7743  0.2937
34597SOL     OW12568   5.689   8.279   5.545 -0.1691  0.1189  0.1349
34597SOL    HW112569   5.695   8.370   5.518  1.8434  0.1592  0.5390
34597SOL    HW212570   5.596   8.265   5.563 -0.4907  2.1452  0.2893
34598SOL     OW12571   5.740   7.011   6.495 -0.3219  0.6346  0.3503
34598SOL    HW112572   5.740   6.925   6.452  0.9662  0.5782  0.4108
34598SOL    HW212573   5.663   7.055   6.460 -0.2560 -0.0522 -0.7302
34599SOL     OW12574   1.974   8.930   3.069 -0.2181 -0.0293  0.3571
34599SOL    HW112575   2.024   8.996   3.116  1.2017  0.1405 -1.3050
34599SOL    HW212576   1.886   8.967   3.060 -0.0622  0.6212  1.4179
34600SOL     OW12577   7.524   1.720   5.535  0.3053  0.1016  0.0569
34600SOL    HW112578   7.603   1.676   5.504 -0.3624 -1.8941  1.0369
34600SOL    HW212579   7.508   1.790   5.471  0.5624 -2.0348 -2.4739
34601SOL     OW12580   0.195   2.428   9.433 -0.0316 -0.2912  0.5404
34601SOL    HW112581   0.290   2.419   9.427 -0.1370 -1.6502  0.6255
34601SOL    HW212582   0.172   2.479   9.355  0.6887 -0.6621  0.0664
34602SOL     OW12583   4.105   1.466  11.818  0.0626 -0.6557 -0.2267
34602SOL    HW112584   4.063   1.551  11.808 -0.5692 -0.9918 -0.5184
34602SOL    HW212585   4.199   1.486  11.821  0.0621 -0.0780 -2.1491
34603SOL     OW12586  11.756  11.514  11.278 -0.2572 -0.2432  0.3610
34603SOL    HW112587  11.814  11.472  11.341 -0.5284  1.0208  1.5043
34603SOL    HW212588  11.716  11.587  11.327 -1.5019 -0.0457 -0.8852
34604SOL     OW12589   0.028   8.787  10.951  0.0060 -0.3999  0.5711
34604SOL    HW112590   0.049   8.698  10.979 -0.6230 -0.8287 -0.2793
34604SOL    HW212591  -0.062   8.800  10.983 -0.7526 -0.9225 -1.2252
34605SOL     OW12592   7.208   1.202   7.378 -0.3990 -0.2889  0.0187
34605SOL    HW112593   7.202   1.290   7.415 -0.1351  0.0775 -0.7727
34605SOL    HW212594   7.301   1.182   7.378 -0.3479 -0.0901 -0.8580
34606SOL     OW12595   1.421   8.241  10.682 -0.0027 -0.6258  0.4912
34606SOL    HW112596   1.512   8.232  10.652 -0.4258 -2.6134 -0.3825
34606SOL    HW212597   1.427   8.237  10.777  0.8649 -0.2196  0.4683
34607SOL     OW12598   4.036   3.801   3.775  0.1808 -0.3684 -0.4105
34607SOL    HW112599   4.106   3.747   3.812  1.2519  0.4646 -1.1439
34607SOL    HW212600   3.955   3.756   3.800  0.8727 -0.3860  2.0462
34608SOL     OW12601  12.055  12.442   0.195  0.5587  0.2611  0.2811
34608SOL    HW112602  12.064  12.522   0.143 -1.9328  0.1781 -0.3816
34608SOL    HW212603  12.062  12.472   0.285  1.8311  0.8772  0.0043
34609SOL     OW12604   1.535  10.270   6.902  0.0500 -0.7617 -0.8400
34609SOL    HW112605   1.631  10.272   6.902  0.0684 -1.3661 -0.6087
34609SOL    HW212606   1.510  10.294   6.812  0.3792  0.4576 -0.6291
34610SOL     OW12607  11.902   7.042   2.697  0.1750  0.2611  0.3923
34610SOL    HW112608  11.874   6.975   2.759  0.7834  0.5911  1.0358
34610SOL    HW212609  11.821   7.075   2.658 -0.2183  0.1635  1.1239
34611SOL     OW12610  11.607   7.946  10.174  0.3509 -0.1501  0.3691
34611SOL    HW112611  11.567   8.019  10.128  0.6890  0.9877  1.8065
34611SOL    HW212612  11.700   7.949  10.149  0.6269  0.7548  1.4301
34612SOL     OW12613   0.056  10.151   8.992  0.5488 -0.1517  0.6521
34612SOL    HW112614   0.103  10.120   9.068  0.5286  0.5749  0.9715
34612SOL    HW212615  -0.016  10.089   8.981 -0.0361  0.2804  1.8327
34613SOL     OW12616   8.875   9.813   1.422  0.5544  0.2326 -0.1145
34613SOL    HW112617   8.835   9.755   1.357  0.7655  0.2426 -0.2556
34613SOL    HW212618   8.964   9.780   1.431 -0.3080 -1.7074  2.4632
34614SOL     OW12619   4.219   4.395   2.392 -0.2184 -0.2680 -0.0682
34614SOL    HW112620   4.183   4.394   2.481  0.1795 -2.5826  0.1394
34614SOL    HW212621   4.155   4.345   2.341  1.0074 -1.5643 -0.3940
34615SOL     OW12622   2.938   8.295  10.201 -0.3851 -0.4081  0.5474
34615SOL    HW112623   2.970   8.352  10.131  1.1983 -3.0018 -0.9776
34615SOL    HW212624   2.845   8.285  10.184 -0.4308  0.6450  0.0813
34616SOL     OW12625  12.560   4.378   0.891  0.8454 -1.4751 -0.2276
34616SOL    HW112626  12.544   4.455   0.837  1.3627 -0.9685  0.3242
34616SOL    HW212627  12.484   4.322   0.877 -1.3752  0.7035  2.0418
34617SOL     OW12628   1.329   1.917  11.008 -0.3970  0.6167  0.2062
34617SOL    HW112629   1.363   1.841  11.055  2.3587  1.7156  0.1838
34617SOL    HW212630   1.308   1.980  11.077 -2.1953  0.0820  0.1963
34618SOL     OW12631  12.288   4.636   8.169  0.1785  0.5147  0.2298
34618SOL    HW112632  12.346   4.690   8.115  0.7545  0.5814  0.9078
34618SOL    HW212633  12.244   4.699   8.227  0.6183  0.2938  0.8098
34619SOL     OW12634   2.189   5.408  11.251 -0.3677 -0.2987 -0.1640
34619SOL    HW112635   2.118   5.386  11.312  0.6454 -1.6515  0.5661
34619SOL    HW212636   2.227   5.489  11.286 -2.6022  1.5030 -1.5495
34620SOL     OW12637   0.802   2.051   6.925 -0.4297 -0.1044 -0.3073
34620SOL    HW112638   0.806   1.956   6.915  1.6295 -0.1623  0.5807
34620SOL    HW212639   0.852   2.069   7.005 -0.2954  1.7523 -0.7617
34621SOL     OW12640   4.385   0.884   6.304 -0.1222 -1.0478  0.7252
34621SOL    HW112641   4.380   0.969   6.261 -0.5256 -0.4394  1.9349
34621SOL    HW212642   4.475   0.854   6.289 -0.3371 -0.9906 -0.7625
34622SOL     OW12643   2.393   6.011   9.221  0.7089 -0.2426  0.4389
34622SOL    HW112644   2.476   5.963   9.232  0.3102 -1.0998 -0.1405
34622SOL    HW212645   2.326   5.948   9.248  0.0512 -0.6421 -1.8736
34623SOL     OW12646  11.627   4.732   1.077 -0.3937 -0.1670  0.1236
34623SOL    HW112647  11.673   4.784   1.012  0.1869 -0.5050  0.2526
34623SOL    HW212648  11.537   4.727   1.045 -0.5479  1.2338  0.3185
34624SOL     OW12649   5.262   2.963   6.970 -0.0918 -0.2409  0.4056
34624SOL    HW112650   5.309   3.024   6.913  2.6626 -1.1691  1.5122
34624SOL    HW212651   5.268   3.003   7.057 -0.7879 -0.7235  0.6793
34625SOL     OW12652   1.931   4.594  10.827  0.3707 -0.2694  0.1966
34625SOL    HW112653   1.945   4.685  10.800  0.1403 -0.0592  0.7750
34625SOL    HW212654   2.004   4.546  10.787  0.8651  0.2785  0.4394
34626SOL     OW12655   5.597  11.148  10.781  0.1015 -0.7289 -0.2063
34626SOL    HW112656   5.656  11.089  10.828 -0.3794  0.3461  1.8838
34626SOL    HW212657   5.510  11.113  10.799 -0.1374  0.1378  0.4043
34627SOL     OW12658   0.367   6.264   7.318 -0.7145  0.0858 -0.1179
34627SOL    HW112659   0.367   6.208   7.241 -0.5704 -0.7225  0.4526
34627SOL    HW212660   0.275   6.282   7.335 -0.7142  0.9420 -0.9411
34628SOL     OW12661   1.873   6.108   0.996 -0.4949 -0.1968 -0.1731
34628SOL    HW112662   1.930   6.185   0.991  0.4405 -0.9167 -0.7763
34628SOL    HW212663   1.795   6.139   1.042 -0.5078  1.3381 -1.1705
34629SOL     OW12664   0.940   0.290   3.293  0.5092 -0.3097  0.0765
34629SOL    HW112665   1.012   0.247   3.340  1.1017 -0.6310 -1.1020
34629SOL    HW212666   0.865   0.234   3.309  0.5527 -0.1076  1.1079
34630SOL     OW12667   7.957   1.242   8.629 -0.1379 -0.0638 -0.7216
34630SOL    HW112668   7.980   1.334   8.617  0.0046 -0.2164 -1.7047
34630SOL    HW212669   8.025   1.207   8.687 -0.2241  0.4589 -0.3046
34631SOL     OW12670   0.088  10.785   9.449  0.4986 -0.0143  0.1753
34631SOL    HW112671   0.020  10.762   9.512  0.1905 -0.0337 -0.1602
34631SOL    HW212672   0.055  10.863   9.405  0.2184 -0.6104 -0.6997
34632SOL     OW12673   8.470  11.008   3.694  0.2699 -0.6189 -0.0687
34632SOL    HW112674   8.523  11.081   3.725  0.6875 -0.7892 -0.3575
34632SOL    HW212675   8.441  10.963   3.773 -0.3420  0.0940  0.1258
34633SOL     OW12676   4.472   8.355   5.412  0.6334 -0.0771  0.3256
34633SOL    HW112677   4.561   8.372   5.443  1.2368 -1.4820 -0.5325
34633SOL    HW212678   4.441   8.282   5.465  0.1264  0.1589  0.3626
34634SOL     OW12679   0.050  12.108   2.064 -0.3931 -0.0487 -0.6367
34634SOL    HW112680  -0.019  12.146   2.118 -0.6683  0.3088 -1.2263
34634SOL    HW212681   0.082  12.033   2.115  0.4160  1.1694  0.7253
34635SOL     OW12682   7.024   6.708   9.533  0.7489  0.1868 -0.1257
34635SOL    HW112683   6.972   6.646   9.584 -0.2928  0.5625 -0.7007
34635SOL    HW212684   7.029   6.669   9.446  2.5750 -0.4839  0.2431
34636SOL     OW12685   5.267   5.090  11.174 -0.3406 -0.1494 -0.7345
34636SOL    HW112686   5.360   5.083  11.192 -0.6398 -0.9939  0.5960
34636SOL    HW212687   5.239   5.169  11.221 -0.8012 -1.4421  1.2791
34637SOL     OW12688   3.210   7.087   4.264 -0.0790 -0.0764  0.3372
34637SOL    HW112689   3.240   7.083   4.173 -4.1481 -0.3164 -1.1710
34637SOL    HW212690   3.179   6.999   4.284  1.1283 -0.1465  2.2301
34638SOL     OW12691  11.651   1.710  10.055  0.1556  0.5360  0.6689
34638SOL    HW112692  11.714   1.715   9.984 -0.8977  0.6108 -0.3000
34638SOL    HW212693  11.668   1.788  10.107  0.7071  0.6750  0.2924
34639SOL     OW12694  11.335  11.087  11.754  0.0859 -0.3428 -0.4364
34639SOL    HW112695  11.350  10.999  11.719  1.2797 -1.0244  1.6025
34639SOL    HW212696  11.419  11.132  11.744  0.9556 -1.0223  2.5366
34640SOL     OW12697   5.277   8.793   6.216 -0.1944 -0.7402 -0.1356
34640SOL    HW112698   5.308   8.868   6.165  1.7737 -0.6318  1.1072
34640SOL    HW212699   5.259   8.725   6.151 -2.5998  0.9376 -1.3472
34641SOL     OW12700  12.169   0.661  12.148 -0.0965  0.2409  0.3612
34641SOL    HW112701  12.151   0.578  12.193 -0.6910 -0.0820 -0.4614
34641SOL    HW212702  12.233   0.638  12.081 -0.2709  0.4532  0.1261
34642SOL     OW12703   7.061   4.796  11.883  0.2475  0.0889 -0.4458
34642SOL    HW112704   7.046   4.891  11.878 -1.4852 -0.1811 -1.2621
34642SOL    HW212705   7.027   4.763  11.800  0.2915 -1.3136  0.0822
34643SOL     OW12706   6.634   5.046   3.161  0.1200  0.3544  0.2222
34643SOL    HW112707   6.698   5.086   3.220 -0.7988  2.7469 -0.2974
34643SOL    HW212708   6.549   5.070   3.197 -0.5413 -1.9632  0.3660
34644SOL     OW12709  11.318   3.233   4.103 -0.3941  0.9393  0.5149
34644SOL    HW112710  11.355   3.200   4.021 -0.8959 -0.3693  0.7836
34644SOL    HW212711  11.393   3.238   4.163 -0.3942 -0.4578  0.6762
34645SOL     OW12712   8.201   1.177   8.156 -0.4158 -0.5134  0.5808
34645SOL    HW112713   8.267   1.239   8.187 -0.0287 -1.0358  0.8372
34645SOL    HW212714   8.242   1.135   8.080 -0.3775 -0.9664  0.8471
34646SOL     OW12715   7.349   1.970   8.934 -0.3753 -0.5076  0.3020
34646SOL    HW112716   7.274   1.966   8.876  1.4738  0.2411 -2.3212
34646SOL    HW212717   7.338   2.051   8.983 -1.5365 -0.6951  0.3595
34647SOL     OW12718   2.349  10.286   2.381 -0.1879 -0.2351 -0.1496
34647SOL    HW112719   2.332  10.193   2.395  2.4239 -0.5214  1.8487
34647SOL    HW212720   2.287  10.331   2.439 -2.0281 -0.6094 -1.7330
34648SOL     OW12721  10.526  12.499  10.223  0.1122 -0.2528 -0.5800
34648SOL    HW112722  10.616  12.514  10.254  0.4597 -0.1574 -1.5880
34648SOL    HW212723  10.473  12.497  10.303  0.9675 -0.0045  0.0107
34649SOL     OW12724  10.790   4.157  10.579 -0.3269 -0.2743  0.1570
34649SOL    HW112725  10.881   4.133  10.592 -0.7971 -2.3762 -0.0817
34649SOL    HW212726  10.765   4.202  10.660  1.1383  1.2464 -0.1687
34650SOL     OW12727   9.338   1.253   4.279  0.0769  0.1179  0.4210
34650SOL    HW112728   9.302   1.331   4.237  0.3663 -0.4836 -1.0092
34650SOL    HW212729   9.400   1.218   4.215  0.7968 -0.6568  1.5086
34651SOL     OW12730   0.288   4.122  12.612 -0.2496 -0.4276  0.5235
34651SOL    HW112731   0.287   4.215  12.635 -1.0423  0.2170 -1.7970
34651SOL    HW212732   0.200   4.091  12.633 -0.7220 -0.0364 -0.7737
34652SOL     OW12733   6.002  11.342   6.198  0.3810  0.5692  0.5333
34652SOL    HW112734   5.954  11.267   6.161  1.6331  0.1123 -0.2593
34652SOL    HW212735   5.935  11.405   6.222 -0.5777  1.0541 -2.8857
34653SOL     OW12736   7.017   8.182   6.794  0.4449 -0.4477  0.6689
34653SOL    HW112737   7.034   8.227   6.711  2.0668 -1.7035  0.2622
34653SOL    HW212738   6.993   8.252   6.855 -0.8300  0.4919 -0.8522
34654SOL     OW12739   9.379   0.205   4.181 -0.2391  0.1344 -0.6597
34654SOL    HW112740   9.465   0.192   4.141 -0.9624 -0.8555 -2.0304
34654SOL    HW212741   9.357   0.296   4.162  0.1279  0.1294 -1.1329
34655SOL     OW12742  11.225   5.999  10.834 -0.1229  0.7845 -0.3878
34655SOL    HW112743  11.141   6.011  10.790 -0.6279 -0.0994  0.2930
34655SOL    HW212744  11.237   6.080  10.885 -1.1170  0.4776  0.3724
34656SOL     OW12745   4.051  12.086   7.703 -0.5930 -0.0217 -0.5247
34656SOL    HW112746   4.030  12.020   7.637  0.4559 -1.6765  0.7292
34656SOL    HW212747   3.997  12.062   7.779  0.6294 -0.1364  0.3339
34657SOL     OW12748   3.781   8.891   6.301  0.1424  0.2403 -0.3410
34657SOL    HW112749   3.868   8.852   6.291 -0.0386 -0.4210  0.5062
34657SOL    HW212750   3.794   8.983   6.280  0.8428 -0.0364 -1.1925
34658SOL     OW12751   6.281   4.285  11.439 -0.3080 -0.0561  0.3912
34658SOL    HW112752   6.333   4.346  11.491  0.5441  1.6431 -2.2479
34658SOL    HW212753   6.208   4.261  11.496  1.1082  0.8331  2.7011
34659SOL     OW12754  11.570   2.597   1.817  0.6761 -0.4064  0.0414
34659SOL    HW112755  11.502   2.532   1.835  1.7251 -1.2614  1.0788
34659SOL    HW212756  11.632   2.588   1.890  1.1332  1.3911 -0.0740
34660SOL     OW12757   3.689   2.693  11.932  0.0789 -0.0516 -0.0698
34660SOL    HW112758   3.720   2.682  12.021  0.7147 -1.2470 -0.4207
34660SOL    HW212759   3.604   2.649  11.930  1.2942 -2.5591 -0.7124
34661SOL     OW12760  11.730   1.791   8.757 -0.1146 -0.4834  0.5085
34661SOL    HW112761  11.790   1.721   8.731 -1.6392 -1.7964  0.3961
34661SOL    HW212762  11.708   1.836   8.675 -0.0967 -0.6596  0.4064
34662SOL     OW12763   7.056   3.497   2.400 -0.5908 -0.0958  0.3000
34662SOL    HW112764   6.998   3.570   2.423 -0.1193  0.4467 -0.2220
34662SOL    HW212765   6.996   3.424   2.383 -1.0132 -0.1746  1.9765
34663SOL     OW12766  12.174   4.317   3.472 -0.4102 -0.0931  0.1317
34663SOL    HW112767  12.250   4.331   3.529  1.2064  0.3065 -2.0071
34663SOL    HW212768  12.141   4.230   3.497  1.2007 -0.5893  0.6351
34664SOL     OW12769  10.947  10.499  11.346 -0.2254 -0.2190 -0.2214
34664SOL    HW112770  10.896  10.575  11.374  1.1101  1.0407 -1.0823
34664SOL    HW212771  10.955  10.509  11.251 -0.5797 -1.8044 -0.4396
34665SOL     OW12772  10.247   1.542   4.776  0.2791 -0.0395  0.3559
34665SOL    HW112773  10.165   1.571   4.736 -0.3265 -0.8790  0.9400
34665SOL    HW212774  10.307   1.616   4.766 -0.5554  0.5913 -0.0755
34666SOL     OW12775   6.295   6.420   2.904  0.2110  0.0446  0.0425
34666SOL    HW112776   6.389   6.432   2.887 -0.0175 -0.6721 -2.0021
34666SOL    HW212777   6.290   6.335   2.947  0.6216  0.9450  1.9919
34667SOL     OW12778   7.901  12.481   4.568 -0.0092  0.3373 -0.1578
34667SOL    HW112779   7.892  12.452   4.478  1.3715 -0.2538 -0.1269
34667SOL    HW212780   7.852  12.563   4.572 -0.4639  0.1365 -1.3186
34668SOL     OW12781   4.989   2.617   0.780 -0.1484  0.1652 -0.1968
34668SOL    HW112782   5.065   2.669   0.754  0.2842 -0.8991 -1.1541
34668SOL    HW212783   5.024   2.530   0.796 -1.1548 -0.3424 -0.6499
34669SOL     OW12784   4.935   4.873   1.993  0.5868  0.6693 -0.2908
34669SOL    HW112785   4.904   4.897   2.080  1.6716  1.4624 -0.1027
34669SOL    HW212786   4.976   4.787   2.005 -0.7003  0.0256 -0.3649
34670SOL     OW12787   0.963   1.107   3.020  0.1840 -0.1877 -0.3850
34670SOL    HW112788   0.982   1.152   3.102 -0.0526 -0.0339 -0.4113
34670SOL    HW212789   1.009   1.158   2.953 -1.0534  0.7488 -0.5721
34671SOL     OW12790   2.302   1.423   7.824 -0.9619 -0.3892 -0.3356
34671SOL    HW112791   2.285   1.503   7.774 -1.1247 -0.2625 -0.0770
34671SOL    HW212792   2.244   1.428   7.899 -0.7015 -0.5729 -0.1186
34672SOL     OW12793  11.588   6.565   9.233 -0.2505  0.0060 -0.2060
34672SOL    HW112794  11.595   6.610   9.149  0.2213 -2.4157 -1.5729
34672SOL    HW212795  11.495   6.569   9.255 -0.4107  0.5018 -0.9475
34673SOL     OW12796   1.246   3.946  11.284 -0.6993  0.3244 -0.6132
34673SOL    HW112797   1.276   3.859  11.308  1.3466  0.8727 -1.0385
34673SOL    HW212798   1.150   3.939  11.283 -0.5975 -1.6889  0.1077
34674SOL     OW12799   6.010   3.408   6.310 -0.1869 -0.2045  0.2129
34674SOL    HW112800   5.950   3.444   6.377 -0.1225 -0.6607  0.5206
34674SOL    HW212801   6.054   3.336   6.355  1.6475  0.9989  0.4547
34675SOL     OW12802   1.628   0.622   2.035  0.1406  0.7465 -0.4010
34675SOL    HW112803   1.580   0.705   2.035 -2.5681 -0.6401 -2.7547
34675SOL    HW212804   1.596   0.575   2.111 -1.8825  0.1134 -1.5763
34676SOL     OW12805   1.025   5.262   8.744 -0.1281  0.3340 -0.3674
34676SOL    HW112806   0.986   5.280   8.659 -0.4449 -0.3378 -0.3717
34676SOL    HW212807   1.036   5.348   8.785 -0.6239  0.6019 -0.7980
34677SOL     OW12808  11.735  12.161   7.149  0.2690 -0.6040 -0.0254
34677SOL    HW112809  11.754  12.236   7.206 -0.4082  0.4106 -1.0759
34677SOL    HW212810  11.657  12.188   7.099 -0.1919 -2.1523 -0.1971
34678SOL     OW12811   9.682   4.435   7.739 -0.4590  0.3290 -0.7494
34678SOL    HW112812   9.660   4.343   7.750 -1.1376  0.7139  1.4245
34678SOL    HW212813   9.598   4.480   7.732 -0.1386  0.8372 -1.5445
34679SOL     OW12814  11.922   6.615   7.140 -0.2060 -0.1092 -0.1873
34679SOL    HW112815  11.862   6.689   7.138  0.4411  0.4101 -1.7127
34679SOL    HW212816  11.892   6.558   7.069  1.3733  0.4136 -1.3251
34680SOL     OW12817   2.265   9.211   4.152  0.2584 -0.0203 -0.2018
34680SOL    HW112818   2.344   9.262   4.135  1.7974 -1.3173  2.3488
34680SOL    HW212819   2.297   9.123   4.172 -1.9211 -0.8348  0.0168
34681SOL     OW12820   9.569   1.491  12.223  0.0798 -0.1040  0.5277
34681SOL    HW112821   9.630   1.418  12.217 -0.0293 -0.1516 -0.1473
34681SOL    HW212822   9.571   1.531  12.135  1.3754  1.7140  1.3214
34682SOL     OW12823   4.002   8.422  11.358 -0.4806 -0.2725 -0.0897
34682SOL    HW112824   3.955   8.360  11.303  0.4559 -0.6304 -0.5173
34682SOL    HW212825   3.943   8.440  11.431 -0.8298 -1.5649 -0.0267
34683SOL     OW12826   8.876  11.184   9.927 -0.3025 -0.7091  0.0869
34683SOL    HW112827   8.921  11.180  10.011  1.7705 -0.5466 -0.9399
34683SOL    HW212828   8.844  11.274   9.921 -0.9514 -0.8685  0.8967
34684SOL     OW12829   6.690  10.292   2.053  0.3505  0.4933  0.3549
34684SOL    HW112830   6.725  10.374   2.020  0.0831  0.4723  0.0135
34684SOL    HW212831   6.611  10.317   2.102  0.6536  0.5092  0.8380
34685SOL     OW12832  11.531   8.602   2.793  0.1512 -0.3615  0.4254
34685SOL    HW112833  11.572   8.526   2.835  1.4498  0.4512  0.6857
34685SOL    HW212834  11.597   8.634   2.731 -0.4833  0.3795  0.1143
34686SOL     OW12835   2.424   1.293   6.487  0.0038 -0.1109  0.5121
34686SOL    HW112836   2.439   1.365   6.426 -1.4546  0.4002  0.7131
34686SOL    HW212837   2.334   1.265   6.469 -0.0688 -0.6719  1.6851
34687SOL     OW12838   7.723   9.240  12.334  0.8003  0.2061 -0.2445
34687SOL    HW112839   7.734   9.265  12.242  5.2286 -1.8087 -0.5137
34687SOL    HW212840   7.748   9.318  12.383 -1.1182  1.1381 -0.6509
34688SOL     OW12841   8.064   8.638   4.144 -0.1392 -1.0302 -0.0571
34688SOL    HW112842   8.052   8.611   4.053 -0.2376 -3.5113  0.6098
34688SOL    HW212843   8.147   8.684   4.145 -0.2667 -0.7374 -1.4378
34689SOL     OW12844   6.274   2.573   4.996  0.4679  0.3128  0.1206
34689SOL    HW112845   6.183   2.583   5.023  0.8261  2.9872  0.6177
34689SOL    HW212846   6.284   2.479   4.980 -2.1332 -0.1666  0.8249
34690SOL     OW12847   5.877  11.112   7.249 -0.3304 -0.0622  0.4378
34690SOL    HW112848   5.925  11.187   7.284 -2.5955  1.5405  0.3308
34690SOL    HW212849   5.811  11.093   7.316 -0.0082 -1.7847  0.3103
34691SOL     OW12850  12.213   2.306  12.065  0.1880 -0.3867  0.0634
34691SOL    HW112851  12.123   2.337  12.054  0.7975  2.0828  1.3033
34691SOL    HW212852  12.267   2.385  12.059  2.3313 -1.8149 -0.8045
34692SOL     OW12853   7.779   1.311  12.002  0.1511  0.2276  0.4422
34692SOL    HW112854   7.718   1.258  11.951  0.4719  0.3694 -0.0935
34692SOL    HW212855   7.853   1.327  11.943  1.8002 -1.8588  1.7927
34693SOL     OW12856   3.216  11.128   9.283 -0.1543 -0.0470 -0.5876
34693SOL    HW112857   3.181  11.071   9.351 -0.2763  1.0071  0.2445
34693SOL    HW212858   3.171  11.101   9.203  0.2404 -1.5246 -0.3412
34694SOL     OW12859   8.687   3.840   9.711  0.3047  0.7264 -0.4496
34694SOL    HW112860   8.637   3.764   9.742  1.0572  0.4778  0.1689
34694SOL    HW212861   8.712   3.887   9.790 -0.0515  1.5702 -0.8231
34695SOL     OW12862   5.209   9.049   6.539 -0.7760  1.1551  0.2811
34695SOL    HW112863   5.126   9.001   6.535 -0.1557  0.0341  0.5596
34695SOL    HW212864   5.191   9.131   6.492 -1.7982  0.5816 -0.3640
34696SOL     OW12865   5.154  12.180   6.156  0.4779 -0.2336 -0.1961
34696SOL    HW112866   5.214  12.110   6.129 -2.3791 -2.1572 -2.2405
34696SOL    HW212867   5.142  12.233   6.077 -1.0609 -0.4065 -0.1160
34697SOL     OW12868   4.220   7.279  10.505  0.3006  0.4765  0.3905
34697SOL    HW112869   4.125   7.291  10.493 -0.0844 -0.7060  1.9382
34697SOL    HW212870   4.239   7.318  10.590  1.1200  0.2581  0.3177
34698SOL     OW12871   6.101   5.774  11.981  0.5219 -0.3759 -0.4438
34698SOL    HW112872   6.087   5.868  11.993 -0.2494 -0.4879 -0.4125
34698SOL    HW212873   6.108   5.740  12.070 -0.7061 -0.5573 -0.4016
34699SOL     OW12874   9.150   0.405   7.122 -0.0962 -0.9709 -0.2929
34699SOL    HW112875   9.121   0.387   7.033 -0.3328  0.1168 -0.4471
34699SOL    HW212876   9.070   0.427   7.169  0.1960 -0.1383 -0.1739
34700SOL     OW12877   5.200   5.418   7.006 -0.0959 -0.0223 -0.1261
34700SOL    HW112878   5.257   5.393   7.079 -0.4040 -0.1056  0.0838
34700SOL    HW212879   5.256   5.474   6.952  0.2659 -0.3061 -0.0524
34701SOL     OW12880   4.154   6.675   8.560  0.1641 -0.3008  0.0413
34701SOL    HW112881   4.197   6.709   8.638 -0.2510 -1.6947  0.9246
34701SOL    HW212882   4.198   6.592   8.542 -1.2320 -1.1081  0.1773
34702SOL     OW12883  10.951   1.603  10.779  0.3513 -0.1083  0.3053
34702SOL    HW112884  10.872   1.605  10.725 -0.2570 -1.0630  1.1164
34702SOL    HW212885  10.983   1.693  10.780 -0.8013  0.3130  0.0553
34703SOL     OW12886   0.759   3.681   9.640  0.1626  0.2096  0.4414
34703SOL    HW112887   0.852   3.701   9.647  0.3040 -0.8087  2.1775
34703SOL    HW212888   0.726   3.688   9.730 -1.2466 -0.3411  0.0021
34704SOL     OW12889   8.161   4.567  11.654 -0.3650 -0.2883 -0.0317
34704SOL    HW112890   8.206   4.483  11.643 -0.6465 -0.7188  1.7937
34704SOL    HW212891   8.232   4.631  11.666 -0.1535 -0.7880  1.6988
34705SOL     OW12892   0.794  10.617   9.306 -0.0294  0.5472  0.0256
34705SOL    HW112893   0.740  10.662   9.371  0.7644  2.8969 -0.8526
34705SOL    HW212894   0.733  10.557   9.263 -0.8088 -0.2992  2.1784
34706SOL     OW12895  11.301   7.398   6.120  0.1655  0.3673 -0.0965
34706SOL    HW112896  11.248   7.476   6.134  1.2504  0.7742  2.1388
34706SOL    HW212897  11.388   7.421   6.152  0.9014 -1.2991 -0.7472
34707SOL     OW12898   5.219   8.726   8.973 -0.0426 -0.1910  0.1776
34707SOL    HW112899   5.278   8.688   8.908 -2.1204 -1.5092 -1.0461
34707SOL    HW212900   5.141   8.750   8.923 -1.7141 -1.2483  2.1553
34708SOL     OW12901   9.508   1.952   4.542  0.3363 -0.4374  0.6031
34708SOL    HW112902   9.417   1.972   4.519 -0.1363 -2.0859  0.9322
34708SOL    HW212903   9.559   1.988   4.469 -0.6355 -0.0059  0.1204
34709SOL     OW12904   9.375  10.279  11.305 -0.3407  0.3855 -0.2934
34709SOL    HW112905   9.379  10.184  11.318 -1.1475  0.4536  0.5550
34709SOL    HW212906   9.282  10.298  11.292 -0.1943  1.0631 -0.3854
34710SOL     OW12907   9.331   0.611   1.448 -0.6624 -0.1679  0.2970
34710SOL    HW112908   9.386   0.557   1.505  0.3876 -0.2979 -0.7934
34710SOL    HW212909   9.293   0.677   1.507 -1.5533 -1.7378  1.5595
34711SOL     OW12910   3.406   9.802   1.304  1.0401 -0.7870 -1.0409
34711SOL    HW112911   3.312   9.784   1.300  1.0635 -0.7576 -2.0074
34711SOL    HW212912   3.411   9.891   1.340  0.6787 -0.6614 -1.2886
34712SOL     OW12913   3.896   6.733   8.688  0.0920  0.4673 -0.3441
34712SOL    HW112914   3.896   6.828   8.695  1.4702  0.4187  0.5952
34712SOL    HW212915   3.961   6.713   8.621 -0.6404  0.1984 -0.9898
34713SOL     OW12916   0.742   2.536   4.635 -0.1281 -0.2035 -0.2021
34713SOL    HW112917   0.712   2.601   4.698  1.7550  1.5380 -0.9764
34713SOL    HW212918   0.745   2.583   4.552 -1.7911 -2.2244 -1.5026
34714SOL     OW12919  10.122   6.599   1.239  0.9157 -0.1396  0.2102
34714SOL    HW112920  10.070   6.518   1.235 -0.5091  0.6818  1.1593
34714SOL    HW212921  10.212   6.571   1.220  0.1483 -1.5960 -1.6326
34715SOL     OW12922   7.976   5.998   3.999  0.0351  0.1920  0.0952
34715SOL    HW112923   7.975   5.936   4.072 -0.1359  0.9762  0.7715
34715SOL    HW212924   7.994   6.083   4.040 -2.2004  1.0004 -0.4776
34716SOL     OW12925   3.033   2.663   5.271 -0.1180  0.3140 -0.3733
34716SOL    HW112926   3.085   2.645   5.349  0.1530 -0.8409 -0.7917
34716SOL    HW212927   2.992   2.748   5.287  0.0080  0.1328  0.9730
34717SOL     OW12928   6.746  11.734  11.871  0.2929 -0.9986  0.1168
34717SOL    HW112929   6.802  11.744  11.795  0.9625 -0.3088  0.6821
34717SOL    HW212930   6.744  11.820  11.912 -0.1343 -1.3252  0.8270
34718SOL     OW12931   7.429  11.580   1.431 -0.0304 -0.0019  0.2732
34718SOL    HW112932   7.453  11.672   1.427  0.5115 -0.1444  0.2183
34718SOL    HW212933   7.358  11.577   1.496  1.3994  0.1583  1.9184
34719SOL     OW12934   9.812   1.436   9.711 -0.3309  0.4724  0.0274
34719SOL    HW112935   9.826   1.420   9.804 -0.3451  0.4075  0.0182
34719SOL    HW212936   9.852   1.360   9.667 -1.6110 -0.2510  0.0468
34720SOL     OW12937   6.677   2.973  11.868 -0.2437  0.4561 -0.0983
34720SOL    HW112938   6.730   2.894  11.863 -1.6516 -0.5851  0.7661
34720SOL    HW212939   6.628   2.965  11.950 -2.1734  1.0466 -1.1141
34721SOL     OW12940   2.400   1.253   4.284 -0.1006 -0.1672  0.1548
34721SOL    HW112941   2.367   1.262   4.195 -2.3055 -0.6516  0.8551
34721SOL    HW212942   2.423   1.342   4.311  0.5469 -0.0179 -0.8631
34722SOL     OW12943  12.337   5.955   0.751 -0.0971  0.4802 -0.6808
34722SOL    HW112944  12.431   5.971   0.757  0.1742 -0.6776 -1.3764
34722SOL    HW212945  12.317   5.963   0.658  0.2353 -3.5488 -1.2833
34723SOL     OW12946   2.373   0.570  11.962  0.0860 -0.2821 -0.2601
34723SOL    HW112947   2.368   0.546  12.054  1.8947  0.7082  0.1448
34723SOL    HW212948   2.411   0.493  11.919 -0.6321 -0.6923 -0.1797
34724SOL     OW12949   8.262   6.490   6.613  0.9016 -0.3096 -0.0684
34724SOL    HW112950   8.167   6.493   6.606  0.7547  2.2471  1.8360
34724SOL    HW212951   8.279   6.423   6.678  0.3108  0.0135  0.4321
34725SOL     OW12952   6.508   0.426   9.096 -0.5476  0.0570  0.0709
34725SOL    HW112953   6.505   0.396   9.005 -2.0712 -1.2504  0.5142
34725SOL    HW212954   6.430   0.481   9.106 -0.2262  0.4424  0.5294
34726SOL     OW12955  12.453   5.676   5.742 -0.0852 -0.5271 -0.0507
34726SOL    HW112956  12.469   5.688   5.836  0.8364 -0.6580 -0.1815
34726SOL    HW212957  12.358   5.681   5.733 -0.1693 -0.3076  0.8618
34727SOL     OW12958  11.339   5.706   0.262  0.3993 -0.0024  0.6334
34727SOL    HW112959  11.311   5.731   0.350  1.0458  1.1114  0.5428
34727SOL    HW212960  11.371   5.787   0.223 -1.7781  0.0009 -1.3893
34728SOL     OW12961   8.603   3.839   8.480  0.2522 -0.7430  0.0185
34728SOL    HW112962   8.549   3.888   8.542  1.9887 -0.3988  1.3601
34728SOL    HW212963   8.580   3.874   8.394 -0.8360  0.1517  0.6536
34729SOL     OW12964  12.345   2.174   3.893  0.0532 -0.4209 -0.3653
34729SOL    HW112965  12.321   2.128   3.813 -0.3097 -2.2968  0.7524
34729SOL    HW212966  12.390   2.109   3.946 -2.5482 -0.3106  2.3008
34730SOL     OW12967   4.384   7.573   7.899  0.7094 -0.5012  0.0502
34730SOL    HW112968   4.369   7.488   7.941 -1.2828 -0.2794 -0.1323
34730SOL    HW212969   4.468   7.602   7.934  0.7445 -1.8924  1.2246
34731SOL     OW12970   8.556   7.602   4.701 -0.3897 -0.1895 -0.1023
34731SOL    HW112971   8.521   7.522   4.739  1.3169 -0.5440  0.8578
34731SOL    HW212972   8.485   7.666   4.709 -1.7262 -1.5500 -0.7796
34732SOL     OW12973   2.160  11.199   2.818  0.2727 -0.2561  0.0750
34732SOL    HW112974   2.087  11.249   2.779 -0.6464 -0.2266  1.7368
34732SOL    HW212975   2.168  11.121   2.763 -0.8835 -0.1466 -0.2732
34733SOL     OW12976   1.766   7.980  11.930 -0.1837  0.1128 -0.1360
34733SOL    HW112977   1.793   8.051  11.989 -1.7526  0.7156 -0.0835
34733SOL    HW212978   1.801   7.901  11.970 -0.6490  0.5800  1.2862
34734SOL     OW12979   6.334   1.863  11.502  0.2787  0.1711 -0.4583
34734SOL    HW112980   6.324   1.915  11.421 -0.8613 -0.2309 -0.6006
34734SOL    HW212981   6.329   1.928  11.572  2.6887  0.7131 -0.7006
34735SOL     OW12982  10.827   2.797   2.328 -0.1618  0.1462 -0.1374
34735SOL    HW112983  10.904   2.801   2.272 -0.3999  2.5815 -0.4118
34735SOL    HW212984  10.856   2.833   2.412 -0.3250 -1.5505  0.6759
34736SOL     OW12985   2.981   1.503   7.311  0.0823 -0.2802  0.0497
34736SOL    HW112986   2.980   1.550   7.228 -1.3668 -2.7136 -1.4602
34736SOL    HW212987   2.889   1.481   7.327  0.3054  0.2992  2.4477
34737SOL     OW12988   9.569   5.391   3.433  0.4008 -0.2053 -0.0452
34737SOL    HW112989   9.552   5.379   3.340  0.7738 -0.7440 -0.0517
34737SOL    HW212990   9.580   5.302   3.467 -0.5998 -0.0594  0.6883
34738SOL     OW12991   7.487   2.473   5.776 -0.4263 -0.1825 -0.1304
34738SOL    HW112992   7.413   2.500   5.721  1.7352  2.9997 -1.8658
34738SOL    HW212993   7.475   2.521   5.858 -0.3804  0.2601 -0.3764
34739SOL     OW12994   9.628   6.823   4.235 -0.3791 -0.0591 -0.0487
34739SOL    HW112995   9.668   6.840   4.320 -0.4470 -2.6300  0.5757
34739SOL    HW212996   9.535   6.813   4.253 -0.5203  0.1727 -0.5931
34740SOL     OW12997  10.026   1.744   8.678  0.3864 -0.3296 -0.0350
34740SOL    HW112998   9.947   1.691   8.693 -0.4730  0.6590 -0.8452
34740SOL    HW212999  10.022   1.765   8.585 -0.3320  2.6512  0.5578
34741SOL     OW13000   3.911  11.785   2.918 -0.6784 -0.2886 -0.1143
34741SOL    HW113001   3.828  11.752   2.886 -0.8800  0.4562 -0.3596
34741SOL    HW213002   3.946  11.838   2.846  0.1665 -0.8567 -0.1451
34742SOL     OW13003   8.500   9.143   1.637  0.1529 -0.3807  0.1617
34742SOL    HW113004   8.406   9.129   1.631  0.0884 -0.2743  0.8383
34742SOL    HW213005   8.537   9.055   1.647  0.1868 -0.4790 -0.7465
34743SOL     OW13006   1.621  11.276   9.205  0.0617 -0.0179  0.3381
34743SOL    HW113007   1.583  11.216   9.268  0.9134  1.1102  1.9921
34743SOL    HW213008   1.699  11.311   9.248  0.0762  1.6104 -0.8915
34744SOL     OW13009   5.140   8.688   6.710  0.3632  0.1631 -0.5667
34744SOL    HW113010   5.207   8.729   6.764  1.0711 -0.3864 -0.9955
34744SOL    HW213011   5.166   8.595   6.708 -1.0825 -0.2876  0.2328
34745SOL     OW13012   4.556   7.192  11.587  0.5176 -0.0070 -0.1139
34745SOL    HW113013   4.619   7.234  11.645  0.1236  0.7289 -0.2006
34745SOL    HW213014   4.471   7.227  11.614  0.0027 -1.7890  0.7077
34746SOL     OW13015  12.108   2.287   3.534  0.2629  0.2910 -0.4088
34746SOL    HW113016  12.154   2.342   3.597 -0.3406 -1.0912  1.3167
34746SOL    HW213017  12.147   2.201   3.544 -0.0525 -0.0221 -1.7347
34747SOL     OW13018   7.004   1.603   8.545 -0.1948 -0.2401 -0.3084
34747SOL    HW113019   7.029   1.535   8.482  1.1447  1.3721 -1.6050
34747SOL    HW213020   6.968   1.554   8.619  1.0667 -2.3885 -1.0118
34748SOL     OW13021   1.811   9.402   9.199  0.0887 -0.3088  0.0185
34748SOL    HW113022   1.875   9.333   9.186  1.3340  0.4113  1.8416
34748SOL    HW213023   1.856   9.483   9.174 -0.0559  0.2045  1.3014
34749SOL     OW13024   4.575   3.471  10.797 -0.8585  0.3261  0.1421
34749SOL    HW113025   4.593   3.564  10.793 -0.7635  0.3711  1.2169
34749SOL    HW213026   4.651   3.434  10.843 -1.2436 -0.1697  0.3868
34750SOL     OW13027   9.112   1.234   9.522  0.4670  0.4511  0.2631
34750SOL    HW113028   9.129   1.305   9.585  0.5176  0.3205  0.3960
34750SOL    HW213029   9.047   1.179   9.565 -1.1570  1.5450 -0.6757
34751SOL     OW13030   1.894  10.892   8.686  0.2221 -0.1572  0.1532
34751SOL    HW113031   1.870  10.852   8.770 -0.2381 -1.5549 -0.6311
34751SOL    HW213032   1.825  10.956   8.670  0.9939  1.0597  1.4364
34752SOL     OW13033   0.513  11.018  12.150  0.1261  0.0347 -0.0427
34752SOL    HW113034   0.549  11.094  12.103  0.1968 -1.1285 -1.9781
34752SOL    HW213035   0.425  11.008  12.114 -0.1999 -0.3069  0.8318
34753SOL     OW13036  11.880   5.845   6.671 -0.1237 -0.3132  0.8404
34753SOL    HW113037  11.973   5.866   6.666 -0.2330 -0.0914 -1.5635
34753SOL    HW213038  11.873   5.756   6.638 -0.7309 -0.4492  1.3194
34754SOL     OW13039   3.531   9.832  12.034  0.1468 -0.1599 -0.3316
34754SOL    HW113040   3.526   9.745  12.073 -1.6131 -0.0018 -0.1474
34754SOL    HW213041   3.620   9.861  12.053  1.0732 -2.2424 -1.1656
34755SOL     OW13042   8.412   0.767   7.762 -0.0851 -0.0891  0.0401
34755SOL    HW113043   8.367   0.790   7.681 -0.8946  1.4886  0.8976
34755SOL    HW213044   8.403   0.672   7.768 -2.6695  0.0577 -0.2277
34756SOL     OW13045   4.985   5.581   7.989 -0.6421  0.1504 -0.0057
34756SOL    HW113046   5.013   5.671   7.973  0.2880 -0.2179 -0.5744
34756SOL    HW213047   4.970   5.544   7.901 -1.4351 -0.1171  0.2391
34757SOL     OW13048   6.370   5.522  11.342 -0.0102 -0.3215  0.4427
34757SOL    HW113049   6.366   5.604  11.293  0.9695 -0.7728 -0.4340
34757SOL    HW213050   6.296   5.472  11.311 -0.0613 -0.1443  0.2789
34758SOL     OW13051   6.077   4.425   7.108  0.9398  0.9210 -0.4131
34758SOL    HW113052   6.030   4.351   7.070  0.3835  0.7266  0.5871
34758SOL    HW213053   6.137   4.386   7.172  1.7864  1.2362 -0.9982
34759SOL     OW13054  11.535   9.305  12.043 -0.1008  0.3377 -0.0932
34759SOL    HW113055  11.583   9.385  12.019  0.0502  0.4234  0.4809
34759SOL    HW213056  11.467   9.297  11.976  0.1989  0.6719 -0.4417
34760SOL     OW13057   3.791  12.528   4.220 -0.0377 -0.6856 -0.0744
34760SOL    HW113058   3.843  12.569   4.151  0.4106 -1.4764 -0.2117
34760SOL    HW213059   3.722  12.482   4.174  0.5234 -1.5907 -0.0370
34761SOL     OW13060  10.312   6.629   8.766  0.1767  0.3880 -0.3572
34761SOL    HW113061  10.401   6.613   8.735 -0.2696 -1.2489 -0.8695
34761SOL    HW213062  10.257   6.620   8.688 -0.4489  1.6402 -0.1056
34762SOL     OW13063   1.091   5.479  12.066 -0.3570  0.1549 -0.0557
34762SOL    HW113064   1.072   5.414  11.998  2.5545  0.5803 -1.4093
34762SOL    HW213065   1.114   5.426  12.143 -1.5550 -0.3560 -0.0343
34763SOL     OW13066   9.945   3.184   5.687  0.0296  0.6876 -0.2768
34763SOL    HW113067   9.854   3.163   5.710  0.5398  1.0423  2.3506
34763SOL    HW213068   9.938   3.260   5.629 -1.3569  0.9762  0.2183
34764SOL     OW13069   4.753   3.221   8.192  0.3479  0.0468 -1.1109
34764SOL    HW113070   4.776   3.314   8.195 -0.0705  0.1326 -0.1311
34764SOL    HW213071   4.784   3.185   8.275  1.8835 -1.0588 -2.1000
34765SOL     OW13072  10.520   5.032   1.511  0.0542  0.0468 -0.4884
34765SOL    HW113073  10.532   5.127   1.513 -0.0262  0.0551  1.2200
34765SOL    HW213074  10.428   5.019   1.536 -0.2427 -0.4559 -1.7701
34766SOL     OW13075   5.276   5.558   9.957 -0.0747  0.2017 -0.0851
34766SOL    HW113076   5.344   5.574  10.023  0.5404 -1.8347 -0.1534
34766SOL    HW213077   5.198   5.536  10.008  0.1022 -0.2793 -0.0165
34767SOL     OW13078   2.375   7.219   6.454  0.5574 -0.0642 -0.0296
34767SOL    HW113079   2.314   7.159   6.496 -0.7901  0.1011 -1.6516
34767SOL    HW213080   2.384   7.186   6.364  1.5383  0.8918 -0.3099
34768SOL     OW13081   2.254   3.097   8.421  0.0653 -0.3147  0.2479
34768SOL    HW113082   2.258   3.166   8.486 -0.4628 -0.9063  0.9217
34768SOL    HW213083   2.247   3.143   8.337  1.2067  0.4539  0.5578
34769SOL     OW13084  11.558  11.416   1.251 -0.4476 -0.2797 -0.0180
34769SOL    HW113085  11.463  11.430   1.256 -0.8520 -2.8624  3.0781
34769SOL    HW213086  11.595  11.482   1.310 -0.6699 -1.1061  1.0820
34770SOL     OW13087   8.826   2.097   0.238  0.3090  0.1077 -0.5544
34770SOL    HW113088   8.749   2.148   0.210 -0.0500 -0.0121  0.2083
34770SOL    HW213089   8.897   2.162   0.242 -0.1308  0.5540  0.3484
34771SOL     OW13090   5.770   2.453  11.066 -0.2054  0.4570 -0.0411
34771SOL    HW113091   5.833   2.518  11.097 -1.1944  1.7003 -0.5692
34771SOL    HW213092   5.789   2.375  11.118  1.7875  0.7637 -0.2140
34772SOL     OW13093   2.611   2.747   7.699  0.0742  0.4322  0.5019
34772SOL    HW113094   2.541   2.705   7.749  0.0074  0.8643  0.7789
34772SOL    HW213095   2.685   2.687   7.706 -0.1353  0.1823  0.5768
34773SOL     OW13096  12.168  11.041   4.964  0.5558 -0.5242  0.0787
34773SOL    HW113097  12.075  11.030   4.982  0.7272 -0.7502  0.8860
34773SOL    HW213098  12.198  11.104   5.030  1.6528 -2.9992  2.1030
34774SOL     OW13099   7.837  11.690   1.100  0.2757 -0.5221  0.1019
34774SOL    HW113100   7.801  11.674   1.188 -0.1601 -0.7777 -0.1192
34774SOL    HW213101   7.868  11.604   1.071 -0.2004 -0.5750 -0.2661
34775SOL     OW13102   6.727   7.563  11.007 -0.2048  0.1413  0.0119
34775SOL    HW113103   6.791   7.602  10.947  0.1568 -0.7809 -0.2111
34775SOL    HW213104   6.646   7.558  10.955 -0.3774  0.9850  0.1838
34776SOL     OW13105   9.400   3.680  11.293  0.3031  0.4355 -0.4000
34776SOL    HW113106   9.339   3.618  11.332 -1.9497  1.7769 -1.6080
34776SOL    HW213107   9.458   3.704  11.365 -1.0675 -0.3082  1.0107
34777SOL     OW13108   3.317   3.190   6.381  0.2185 -0.5349 -0.1151
34777SOL    HW113109   3.362   3.112   6.348  0.0271 -0.4165 -0.6587
34777SOL    HW213110   3.292   3.238   6.303  0.3753  0.1019  0.2197
34778SOL     OW13111   9.617   3.788   4.142  0.1307 -0.1695 -0.0965
34778SOL    HW113112   9.585   3.752   4.059 -2.3096  0.5025  0.4685
34778SOL    HW213113   9.706   3.753   4.151  0.0990 -1.0382 -2.5011
34779SOL     OW13114  11.091   6.827   9.101 -0.5930  0.1288 -0.5762
34779SOL    HW113115  11.007   6.824   9.055 -0.3606 -0.3277 -0.9738
34779SOL    HW213116  11.076   6.778   9.182 -0.7682  0.2366 -0.5401
34780SOL     OW13117   2.547   7.605   2.164 -0.3060 -0.2482  0.7096
34780SOL    HW113118   2.469   7.615   2.108  0.1709 -1.6796 -0.2724
34780SOL    HW213119   2.520   7.638   2.249 -1.5872  0.4662  0.0575
34781SOL     OW13120   9.324   4.388   3.528 -0.5755 -0.1629  0.4625
34781SOL    HW113121   9.253   4.424   3.475 -0.5921 -1.6569 -0.5778
34781SOL    HW213122   9.399   4.386   3.469 -0.2965 -0.8092  0.8289
34782SOL     OW13123   4.960   9.845   2.763 -0.3086  0.5037  0.3407
34782SOL    HW113124   4.996   9.903   2.830  0.6938 -0.7872  0.9597
34782SOL    HW213125   5.031   9.785   2.743 -1.0977 -0.0816 -0.7905
34783SOL     OW13126   2.893   6.716   8.102  0.0201  0.3246 -0.2561
34783SOL    HW113127   2.843   6.772   8.042  2.6601  1.0034 -2.0238
34783SOL    HW213128   2.982   6.720   8.068  1.4026 -0.4311  2.9473
34784SOL     OW13129   1.518   6.720   6.328  0.6699 -0.5149  0.6635
34784SOL    HW113130   1.488   6.778   6.399  1.7097 -0.5596  1.1536
34784SOL    HW213131   1.596   6.764   6.294  0.6372 -0.9103  0.0852
34785SOL     OW13132   6.329   9.034   5.328  0.1444  0.2873  0.0609
34785SOL    HW113133   6.334   8.953   5.379 -0.0118 -0.1715 -0.6314
34785SOL    HW213134   6.398   9.024   5.262 -0.0148  0.6227 -0.1560
34786SOL     OW13135  10.973   0.018   0.254 -0.2940 -0.1175  0.1162
34786SOL    HW113136  11.059   0.013   0.212  0.4687 -2.0130  1.7465
34786SOL    HW213137  10.914  -0.025   0.193  0.7348 -2.5423  0.7138
34787SOL     OW13138   9.333   4.020  10.729  0.0162 -0.9135  0.0502
34787SOL    HW113139   9.397   3.965  10.773  0.4916  1.4769  2.6274
34787SOL    HW213140   9.248   3.987  10.759  0.2731 -0.7204  1.0241
34788SOL     OW13141   5.912   8.580  11.793  0.8809 -0.3884 -0.4324
34788SOL    HW113142   5.918   8.676  11.797 -0.4422 -0.3185  1.0183
34788SOL    HW213143   5.931   8.552  11.883 -1.1671 -1.2867 -0.2307
34789SOL     OW13144   4.757   2.723   2.913  0.2651 -0.7776 -0.0050
34789SOL    HW113145   4.714   2.762   2.837  1.0133  2.4079  1.0626
34789SOL    HW213146   4.850   2.734   2.896  0.5336 -2.2523  0.3472
34790SOL     OW13147  12.206   8.349   1.352  0.2114 -0.2575 -0.0933
34790SOL    HW113148  12.299   8.351   1.328 -0.2516 -1.7700 -2.2907
34790SOL    HW213149  12.206   8.313   1.441  1.6769 -2.0064 -0.7301
34791SOL     OW13150   3.113   4.744   5.049  0.6446 -0.3056  0.1990
34791SOL    HW113151   3.043   4.808   5.035  1.5608  0.7496  0.3088
34791SOL    HW213152   3.067   4.661   5.062 -0.5537  0.2126 -0.5194
34792SOL     OW13153   3.553  11.342   6.817  0.0747  0.0857 -0.3275
34792SOL    HW113154   3.628  11.402   6.816  0.2446 -0.1307 -0.4842
34792SOL    HW213155   3.562  11.291   6.737 -0.5835  0.4829 -0.6623
34793SOL     OW13156   9.542   1.731   8.572  0.5035 -0.0472 -0.0655
34793SOL    HW113157   9.470   1.788   8.601 -0.8409 -1.3504 -0.7191
34793SOL    HW213158   9.612   1.791   8.550 -0.3432  1.2747  0.6784
34794SOL     OW13159   9.936   7.773   2.582 -0.1234  0.0770  0.0513
34794SOL    HW113160   9.912   7.862   2.606  1.5014  0.5797 -0.1062
34794SOL    HW213161   9.997   7.745   2.650  1.2819 -0.0108 -1.2039
34795SOL     OW13162  12.207   2.005   8.405 -0.2757  0.0102 -0.5366
34795SOL    HW113163  12.178   1.927   8.451 -1.6652  1.2639  0.8142
34795SOL    HW213164  12.294   1.982   8.372  0.6429 -1.1474  2.3329
34796SOL     OW13165   2.806   5.863  10.995  0.0607  0.2130 -0.2430
34796SOL    HW113166   2.820   5.843  11.087 -2.6960  1.6141  0.6059
34796SOL    HW213167   2.863   5.939  10.978  0.3489  0.1462  0.4059
34797SOL     OW13168   4.128  10.179   9.636  0.4457 -0.0654 -0.1612
34797SOL    HW113169   4.222  10.184   9.622  0.5403 -1.2678 -0.1229
34797SOL    HW213170   4.089  10.199   9.551  0.7182  0.7387 -0.0986
34798SOL     OW13171   2.875   6.221   7.930  0.8208  0.3466  0.3916
34798SOL    HW113172   2.845   6.299   7.977 -0.9143 -1.0041  1.6633
34798SOL    HW213173   2.862   6.242   7.838  1.0853  1.8150  0.6662
34799SOL     OW13174  11.955  11.750   8.486  0.3632 -0.2597 -0.0573
34799SOL    HW113175  11.901  11.718   8.413 -0.4058  0.4656  0.1797
34799SOL    HW213176  12.001  11.826   8.451 -0.2757  0.3043  0.2933
34800SOL     OW13177   2.939  11.756  10.035 -0.6144 -0.1620 -0.3813
34800SOL    HW113178   2.962  11.707   9.956 -0.0754  0.1052 -0.3961
34800SOL    HW213179   2.894  11.692  10.090  1.2228 -1.0659  0.1591
34801SOL     OW13180   6.571   1.641  10.824 -0.5155  0.7533 -0.0052
34801SOL    HW113181   6.498   1.642  10.763 -2.1958  2.5593  1.8834
34801SOL    HW213182   6.530   1.639  10.911  1.6319  2.4737  1.1395
34802SOL     OW13183   8.810   4.681   1.797  0.0671  0.0668  0.1588
34802SOL    HW113184   8.797   4.586   1.804 -1.7373  0.3515  1.1084
34802SOL    HW213185   8.815   4.697   1.703  0.8464 -1.0005 -0.0102
34803SOL     OW13186   1.987   7.631  11.781  0.0738  0.4394 -0.1553
34803SOL    HW113187   1.957   7.695  11.716  0.0360  0.2115 -0.3632
34803SOL    HW213188   1.918   7.565  11.783  0.6024 -0.1410 -0.7121
34804SOL     OW13189   4.978   7.563   8.789  0.4570 -0.2687 -0.2651
34804SOL    HW113190   4.947   7.604   8.869  2.4524  2.6370 -0.8373
34804SOL    HW213191   5.039   7.496   8.819  0.5896  0.2415  0.6461
34805SOL     OW13192  12.008   0.300  11.195 -0.1869  0.1458  0.0671
34805SOL    HW113193  11.985   0.329  11.283  0.6734 -0.3046  0.4502
34805SOL    HW213194  12.089   0.347  11.175 -0.6318  0.6223 -0.6952
34806SOL     OW13195   5.815   0.244   3.671 -0.8697  0.2667 -0.6561
34806SOL    HW113196   5.839   0.295   3.749 -0.0232 -1.7342  0.4595
34806SOL    HW213197   5.751   0.299   3.625 -0.7949  1.8457  1.0220
34807SOL     OW13198  10.717  10.834   5.578  0.2704 -0.1081 -0.3008
34807SOL    HW113199  10.707  10.798   5.490 -2.2033  0.1522 -0.2107
34807SOL    HW213200  10.628  10.834   5.614  1.1752 -0.0099  2.1362
34808SOL     OW13201   2.728   3.152   2.954 -0.2876 -0.1400  0.0498
34808SOL    HW113202   2.674   3.230   2.952  0.3670  0.3094 -0.9727
34808SOL    HW213203   2.813   3.181   2.988 -0.1897 -0.5085  0.1341
34809SOL     OW13204   6.009   8.622   3.677  0.3807 -0.0595 -0.0044
34809SOL    HW113205   5.980   8.538   3.713  1.2079  0.2788  1.5454
34809SOL    HW213206   6.100   8.607   3.650  0.7833  0.5201  0.9851
34810SOL     OW13207   9.224   1.230   1.914 -0.4857  0.4064  0.4122
34810SOL    HW113208   9.285   1.262   1.848  0.8998 -1.4771  0.7073
34810SOL    HW213209   9.273   1.235   1.996 -0.1324 -2.4717  0.4540
34811SOL     OW13210   0.037  11.974  12.299 -0.2831  0.3652 -0.0418
34811SOL    HW113211   0.108  12.033  12.274 -0.2698  0.0629 -0.7311
34811SOL    HW213212   0.057  11.892  12.255 -0.5268 -0.0352  0.5711
34812SOL     OW13213   0.446   5.224   5.596  0.1508  0.7246  0.7571
34812SOL    HW113214   0.398   5.241   5.677 -0.1937 -0.4272  0.8041
34812SOL    HW213215   0.387   5.253   5.526 -0.3302 -0.0404  0.8442
34813SOL     OW13216   6.891   8.288   7.904  0.7188  0.8636 -0.1991
34813SOL    HW113217   6.872   8.362   7.961 -0.6600  1.0599 -0.8522
34813SOL    HW213218   6.975   8.254   7.934  0.2064  1.1790  1.6986
34814SOL     OW13219   1.022   6.108   5.461 -0.3973  0.1932 -0.1933
34814SOL    HW113220   1.111   6.099   5.426 -0.3180 -1.9330  0.4179
34814SOL    HW213221   0.990   6.018   5.467 -1.9441  0.7945  1.2531
34815SOL     OW13222  11.456   8.258   2.016  0.0406  0.4707  0.5391
34815SOL    HW113223  11.408   8.340   2.008 -0.7468 -0.0469 -0.2579
34815SOL    HW213224  11.522   8.275   2.083 -0.8861  1.3725  1.2484
34816SOL     OW13225   3.218   4.804  10.265  0.2037 -0.1548 -0.1647
34816SOL    HW113226   3.232   4.771  10.176  1.8386 -1.5489  0.5229
34816SOL    HW213227   3.191   4.726  10.314  1.6530  0.0434  1.0068
34817SOL     OW13228  12.186   7.130   7.475  0.4291 -0.6733 -0.0736
34817SOL    HW113229  12.167   7.093   7.388  1.8503 -2.0251  0.1625
34817SOL    HW213230  12.155   7.064   7.536  1.2464 -0.6236  0.4048
34818SOL     OW13231   9.949   7.169   1.120 -0.1143  0.2631  0.4215
34818SOL    HW113232  10.016   7.177   1.051  2.8304 -1.5828  2.8071
34818SOL    HW213233   9.886   7.106   1.086 -0.1861  1.2931 -1.5133
34819SOL     OW13234   3.326   7.584   3.147  0.1910  0.5192  0.3894
34819SOL    HW113235   3.369   7.609   3.228 -1.2833  1.5926  0.8860
34819SOL    HW213236   3.291   7.666   3.111 -0.7698 -0.1822 -0.3610
34820SOL     OW13237   3.968  10.634  11.684 -0.1195  0.0929 -0.4477
34820SOL    HW113238   3.908  10.638  11.758  0.2938 -1.6581  0.0411
34820SOL    HW213239   3.912  10.624  11.607 -0.5009  0.0905 -0.1703
34821SOL     OW13240  10.331   6.159   5.132  0.0013 -0.5760 -0.1186
34821SOL    HW113241  10.411   6.197   5.096  0.9358 -1.3363  1.0734
34821SOL    HW213242  10.271   6.155   5.058  1.2245 -0.4005 -1.1564
34822SOL     OW13243   5.917   9.351   1.827 -0.1756 -0.0679  0.1395
34822SOL    HW113244   5.901   9.440   1.859  0.6036  0.5490 -1.0900
34822SOL    HW213245   5.832   9.308   1.832 -1.3688  1.7800 -2.2834
34823SOL     OW13246   7.643   8.560   2.858  0.0647 -0.1018 -0.4018
34823SOL    HW113247   7.738   8.547   2.855  0.0237 -0.6602  0.3529
34823SOL    HW213248   7.609   8.479   2.898 -0.8775 -0.5684 -2.0293
34824SOL     OW13249   5.296   7.380   0.823 -0.3706  1.1718  0.2848
34824SOL    HW113250   5.271   7.297   0.864  0.1207  1.0816  0.4089
34824SOL    HW213251   5.217   7.410   0.779 -0.2503  0.0395 -0.7677
34825SOL     OW13252   5.469   5.755   0.763 -0.6252 -0.0554 -0.7554
34825SOL    HW113253   5.481   5.826   0.700 -0.5411  0.7144  0.1143
34825SOL    HW213254   5.445   5.679   0.709 -1.6359  0.8468 -1.6164
34826SOL     OW13255   9.029   3.646   0.798 -0.0466  0.0158 -0.2522
34826SOL    HW113256   9.042   3.719   0.858  0.9305  0.4911 -1.0043
34826SOL    HW213257   8.935   3.649   0.777  0.0667  1.4348 -0.7107
34827SOL     OW13258   0.394  10.225  10.015 -0.3101  0.4024  0.2287
34827SOL    HW113259   0.323  10.173  10.052  0.3513 -1.1094 -0.5118
34827SOL    HW213260   0.460  10.229  10.084  0.2275 -1.0006 -0.1686
34828SOL     OW13261   1.003   7.879  11.289  0.0313 -0.2394  0.2875
34828SOL    HW113262   0.910   7.857  11.282 -0.1957  0.6557  0.3179
34828SOL    HW213263   1.011   7.963  11.242  0.2870  1.1149  2.5781
34829SOL     OW13264   3.333   6.231  12.031 -0.1114 -0.0395 -0.0042
34829SOL    HW113265   3.392   6.203  12.101  0.9581  0.2538 -0.7695
34829SOL    HW213266   3.390   6.271  11.966 -1.1283 -0.0246 -0.9103
34830SOL     OW13267   1.984   6.126   5.710 -0.0277  0.3366 -0.0029
34830SOL    HW113268   2.071   6.116   5.750  1.0528 -0.4214 -2.3418
34830SOL    HW213269   1.985   6.214   5.673 -0.3582  0.4163  0.1802
34831SOL     OW13270   4.665   5.552  11.373 -0.0574 -0.2943 -0.3375
34831SOL    HW113271   4.656   5.511  11.459  1.0431 -0.9779 -0.5295
34831SOL    HW213272   4.646   5.644  11.389  1.2208 -0.2081  0.8686
34832SOL     OW13273   4.142  11.287   7.971 -0.2704 -0.3030 -0.2604
34832SOL    HW113274   4.202  11.254   7.904 -1.0993 -1.4981 -0.4487
34832SOL    HW213275   4.199  11.330   8.035  0.7145 -0.7757 -0.7969
34833SOL     OW13276   1.951   5.127   4.755  0.1490  0.1172 -0.0057
34833SOL    HW113277   1.913   5.194   4.810  0.7674 -0.8830  1.7086
34833SOL    HW213278   1.898   5.049   4.772  0.4874 -0.2754 -0.6868
34834SOL     OW13279   9.015   4.501   6.351  0.4306 -0.5422  0.1818
34834SOL    HW113280   9.031   4.408   6.370  0.4983 -0.8331 -1.1998
34834SOL    HW213281   9.099   4.534   6.321  0.3482 -0.0783  0.4527
34835SOL     OW13282   0.204   9.997  11.920  0.3186 -0.9187  0.0956
34835SOL    HW113283   0.139  10.001  11.850 -0.0217 -1.6766  0.3528
34835SOL    HW213284   0.154   9.968  11.997  0.3675  1.3131  1.0601
34836SOL     OW13285  11.431   1.264  10.898 -0.0260  0.1383  0.8955
34836SOL    HW113286  11.378   1.226  10.969 -0.7527  0.6914  0.6606
34836SOL    HW213287  11.498   1.315  10.942 -0.0155 -0.1288  1.1918
34837SOL     OW13288   6.318   7.745   6.355  0.0868 -0.4132 -0.0820
34837SOL    HW113289   6.225   7.766   6.365  0.4969  0.4804  2.8210
34837SOL    HW213290   6.358   7.829   6.334  0.5886 -0.0753  2.0398
34838SOL     OW13291   8.866   4.794   0.827 -0.0077  0.2564  0.4737
34838SOL    HW113292   8.821   4.736   0.889 -0.2087  1.4604  1.4866
34838SOL    HW213293   8.889   4.737   0.754 -0.6441 -0.9952  1.2128
34839SOL     OW13294   2.657  11.499   7.153  0.4945 -0.8992 -0.2473
34839SOL    HW113295   2.748  11.488   7.126  0.7827 -1.2381  0.8051
34839SOL    HW213296   2.634  11.586   7.122  1.6321 -0.2378  0.6565
34840SOL     OW13297  11.499   5.668   6.669  0.1466 -0.0769  0.5025
34840SOL    HW113298  11.410   5.640   6.689  0.0444  0.8875  1.5198
34840SOL    HW213299  11.543   5.589   6.639 -1.3610 -0.3420 -1.1962
34841SOL     OW13300  12.117   5.462   4.862 -0.2198 -0.0123  0.2216
34841SOL    HW113301  12.209   5.464   4.886  0.2035  0.2016 -1.3127
34841SOL    HW213302  12.072   5.430   4.940  0.9896  1.1591  1.4336
34842SOL     OW13303   9.535  11.662   2.199  0.3613  0.2536  0.2386
34842SOL    HW113304   9.623  11.625   2.189  0.2096 -0.8823  2.4431
34842SOL    HW213305   9.478  11.601   2.153  0.5226 -0.1950  0.6201
34843SOL     OW13306   9.423  12.451   5.114 -0.3727  0.2441  0.4651
34843SOL    HW113307   9.473  12.370   5.111 -1.2882 -0.3915  1.4726
34843SOL    HW213308   9.340  12.430   5.073 -0.6699  0.6270  0.8567
34844SOL     OW13309   8.954   3.319   9.541  0.3711 -0.2056  0.0873
34844SOL    HW113310   8.868   3.279   9.557  0.6868 -0.0020  2.5553
34844SOL    HW213311   9.016   3.247   9.549  0.6281  0.0806  0.6583
34845SOL     OW13312   7.771  10.859   5.034 -0.3279 -0.3284 -0.6852
34845SOL    HW113313   7.792  10.948   5.062 -2.4812  0.0053  0.0556
34845SOL    HW213314   7.767  10.808   5.115  0.0233 -0.9118 -1.0260
34846SOL     OW13315  11.909   6.828   8.521  0.1579  0.1210  0.1259
34846SOL    HW113316  11.940   6.919   8.525 -1.3659  0.6790 -0.1778
34846SOL    HW213317  11.906   6.800   8.612  0.0499  0.5822  0.2689
34847SOL     OW13318   1.192   7.538   3.693  0.0243  0.2853  0.7217
34847SOL    HW113319   1.118   7.501   3.645  0.0590 -0.2587  1.0885
34847SOL    HW213320   1.153   7.580   3.769 -0.0604  1.4073  0.0847
34848SOL     OW13321   6.601   5.927   6.419 -0.2029 -0.5120 -0.1272
34848SOL    HW113322   6.621   5.833   6.416 -0.8988 -0.6375 -2.0114
34848SOL    HW213323   6.657   5.966   6.353 -1.7933 -0.0092 -1.2364
34849SOL     OW13324   1.190   3.302   0.647  0.5009  0.5786 -0.0640
34849SOL    HW113325   1.179   3.229   0.587 -0.5772  0.7034 -0.0365
34849SOL    HW213326   1.274   3.285   0.690 -1.1794 -2.5603  2.4929
34850SOL     OW13327  11.762   0.636  11.962 -0.2840  0.1538  0.0114
34850SOL    HW113328  11.824   0.679  12.021  0.7613 -0.2638 -0.7518
34850SOL    HW213329  11.676   0.657  11.998  0.2989  0.6524  1.1619
34851SOL     OW13330  10.208  12.484   8.394  0.6359 -0.1292 -0.4916
34851SOL    HW113331  10.123  12.473   8.437  0.6054  0.1063 -0.4861
34851SOL    HW213332  10.272  12.455   8.459  0.4827 -1.8422 -1.0803
34852SOL     OW13333   5.724  10.809   3.759  0.2784 -0.0635  0.1388
34852SOL    HW113334   5.696  10.799   3.668  0.8738 -1.4059  0.0790
34852SOL    HW213335   5.770  10.728   3.779 -1.0919 -0.4141  2.1015
34853SOL     OW13336   9.921   7.086   2.525 -0.4152 -0.1775  0.4478
34853SOL    HW113337   9.910   7.162   2.581 -1.5715  1.4110 -1.7660
34853SOL    HW213338   9.839   7.037   2.534  0.8717 -2.1056  2.9921
34854SOL     OW13339  10.612   2.870  10.745  0.1363 -0.1907 -0.0674
34854SOL    HW113340  10.700   2.835  10.754  0.1711  0.0025  0.3902
34854SOL    HW213341  10.617   2.957  10.786 -0.4553 -0.4877  0.6403
34855SOL     OW13342  10.158   2.511   7.461  0.0598 -0.1053 -0.0820
34855SOL    HW113343  10.251   2.496   7.480 -0.3981 -1.5130  1.2344
34855SOL    HW213344  10.114   2.431   7.489 -1.3227 -0.3752 -2.7753
34856SOL     OW13345   8.334   7.535   6.936  0.1031  0.3156  0.5411
34856SOL    HW113346   8.242   7.529   6.959 -0.3410 -0.0181 -1.1702
34856SOL    HW213347   8.373   7.454   6.970  0.0041  0.8710  2.0837
34857SOL     OW13348   4.895   4.066   0.793 -0.6218  1.1958 -0.2958
34857SOL    HW113349   4.811   4.111   0.787 -1.9146 -1.2646 -3.1813
34857SOL    HW213350   4.873   3.976   0.816  1.4561  0.9482  0.9885
34858SOL     OW13351   0.460  11.572   8.618  0.2848 -0.0283 -0.0977
34858SOL    HW113352   0.383  11.619   8.584  0.4312  0.9064  0.8025
34858SOL    HW213353   0.525  11.641   8.633  0.6999 -0.5883  0.7516
34859SOL     OW13354   0.708   9.558   8.516 -0.1229 -0.2704 -0.0786
34859SOL    HW113355   0.623   9.572   8.557 -0.0162  0.5570 -0.1263
34859SOL    HW213356   0.756   9.639   8.532  1.1271 -1.2005  1.0627
34860SOL     OW13357   9.129  10.513   5.315  0.0550  0.2067  0.0409
34860SOL    HW113358   9.050  10.487   5.268  0.0836  1.9654 -1.0355
34860SOL    HW213359   9.100  10.528   5.405 -0.6198 -0.1457 -0.1140
34861SOL     OW13360   0.783   9.670   2.084 -0.0889 -0.3361  0.8802
34861SOL    HW113361   0.772   9.722   2.005 -0.4964 -0.7334  0.6703
34861SOL    HW213362   0.868   9.697   2.120 -0.2312  0.3535  0.6954
34862SOL     OW13363  11.810   1.168   4.909 -0.1426  0.2354  0.0670
34862SOL    HW113364  11.800   1.168   4.813 -0.2967 -0.3692  0.0801
34862SOL    HW213365  11.778   1.254   4.936 -0.3019  0.3281 -0.4054
34863SOL     OW13366   3.281  11.503   1.963 -0.2572 -0.2311  0.0428
34863SOL    HW113367   3.265  11.461   1.879 -0.8568 -0.2059  0.1395
34863SOL    HW213368   3.238  11.588   1.956  0.3537  0.0889  0.1003
34864SOL     OW13369   7.453   1.431   0.287  0.3595 -0.0805 -0.4304
34864SOL    HW113370   7.468   1.520   0.321  2.8385  0.5106 -2.7493
34864SOL    HW213371   7.529   1.381   0.315 -0.6325 -1.3167  0.1694
34865SOL     OW13372   8.562   4.509   6.209  0.1221 -0.2383 -0.2423
34865SOL    HW113373   8.500   4.577   6.237  0.1156 -0.0775 -0.6363
34865SOL    HW213374   8.507   4.441   6.170  0.2012 -0.0125 -0.7591
34866SOL     OW13375   7.514   0.841   4.405 -0.2538 -0.0206  0.4696
34866SOL    HW113376   7.479   0.795   4.482 -0.9217  0.5474  0.5165
34866SOL    HW213377   7.599   0.873   4.434 -0.7368  0.6726  1.1766
34867SOL     OW13378  11.661  11.568   9.116 -0.0526  0.1264  0.0661
34867SOL    HW113379  11.603  11.640   9.093  1.5379  1.1059 -1.0612
34867SOL    HW213380  11.603  11.492   9.123 -1.4004  0.9142 -1.6854
34868SOL     OW13381   0.073   1.757   2.337 -0.5835  0.2652 -0.1433
34868SOL    HW113382   0.001   1.721   2.388 -0.3108 -0.3743 -0.2021
34868SOL    HW213383   0.033   1.785   2.255 -0.2784 -3.2736 -1.6663
34869SOL     OW13384   4.748   6.359   3.573  0.9436 -0.4040 -0.0212
34869SOL    HW113385   4.653   6.366   3.560  1.1466  0.0684 -1.4055
34869SOL    HW213386   4.768   6.425   3.639  0.2574 -0.8322  0.6416
34870SOL     OW13387  11.400   5.144   0.756 -0.0542 -0.2669 -0.5545
34870SOL    HW113388  11.327   5.084   0.773  1.1778 -1.4561  0.6707
34870SOL    HW213389  11.366   5.230   0.780 -0.5923 -1.0016  1.4938
34871SOL     OW13390  10.965   0.917   6.643  0.1741 -0.2374 -0.0662
34871SOL    HW113391  10.974   0.997   6.591 -1.4654 -0.9227 -1.5116
34871SOL    HW213392  10.894   0.937   6.705 -0.4698 -0.6378 -0.6523
34872SOL     OW13393   7.609  11.203  10.726 -0.1527 -0.5082  0.5593
34872SOL    HW113394   7.569  11.268  10.783  2.2312 -0.8017  2.7684
34872SOL    HW213395   7.702  11.226  10.725  0.2884 -2.1287 -1.0587
34873SOL     OW13396   2.357   5.029   0.668 -0.0994 -0.0915  0.3236
34873SOL    HW113397   2.435   5.039   0.614  0.6133 -1.3438  1.0822
34873SOL    HW213398   2.326   5.118   0.682  1.4177  0.4635  0.3355
34874SOL     OW13399   0.506   5.167  11.435 -0.0521  0.6150 -0.0262
34874SOL    HW113400   0.514   5.132  11.347 -0.6887 -2.2327  0.9473
34874SOL    HW213401   0.412   5.168  11.453  0.1311 -2.6281  1.8788
34875SOL     OW13402  11.785   0.151   4.941  0.4906  0.2956 -0.2377
34875SOL    HW113403  11.849   0.180   4.876  0.3538  0.2888 -0.3754
34875SOL    HW213404  11.709   0.208   4.927 -0.4045 -1.1331 -1.5658
34876SOL     OW13405   3.579   0.559   1.559  0.0927  0.0114  0.5737
34876SOL    HW113406   3.541   0.622   1.620  0.6473  0.6647  0.2658
34876SOL    HW213407   3.569   0.600   1.473  1.4340  0.1958  0.4790
34877SOL     OW13408   2.054   2.150   7.814 -0.4875 -0.1510 -0.3354
34877SOL    HW113409   1.982   2.162   7.752 -1.0064  1.4616  0.5190
34877SOL    HW213410   2.011   2.130   7.897 -0.1829  3.0065  0.7149
34878SOL     OW13411   6.417   1.210   2.812  0.3401 -0.3257 -0.2418
34878SOL    HW113412   6.373   1.294   2.802  0.5966 -0.0549  0.7844
34878SOL    HW213413   6.371   1.151   2.753 -0.2793  0.3706 -0.4626
34879SOL     OW13414   1.553   3.002   5.160  0.0873  0.5381 -0.0273
34879SOL    HW113415   1.638   2.985   5.119 -1.2097 -2.6798 -1.7400
34879SOL    HW213416   1.501   3.044   5.091 -0.1283  1.3160  0.5917
34880SOL     OW13417   9.016   2.944   0.322 -0.2657 -0.0702  0.2189
34880SOL    HW113418   9.047   3.024   0.282  1.7373 -1.4993 -1.2845
34880SOL    HW213419   8.932   2.926   0.280  1.1429 -0.8000 -2.5074
34881SOL     OW13420   8.702  11.055   9.719 -0.3269 -0.0464 -0.3666
34881SOL    HW113421   8.770  11.077   9.782 -1.3691  1.3452  0.3361
34881SOL    HW213422   8.717  11.116   9.646 -1.3876  0.9800  0.2378
34882SOL     OW13423  11.299   0.834   1.858  0.1060 -0.5405 -0.0628
34882SOL    HW113424  11.326   0.904   1.799 -1.4349  0.9183  0.8497
34882SOL    HW213425  11.335   0.859   1.943  0.9829 -1.7961 -0.0355
34883SOL     OW13426  10.117   9.161   1.261  0.2096  0.5983  0.4028
34883SOL    HW113427  10.093   9.232   1.321 -1.9523 -0.0827  0.4294
34883SOL    HW213428  10.089   9.192   1.175  1.2442  0.6448  0.0699
34884SOL     OW13429   1.375   7.808   4.969  0.4087 -0.1207  0.1094
34884SOL    HW113430   1.286   7.782   4.944 -0.7337  2.2600  1.4340
34884SOL    HW213431   1.430   7.772   4.899 -2.0807  2.2936 -3.4494
34885SOL     OW13432  11.346  11.483   0.938  0.2820 -0.1934 -0.2869
34885SOL    HW113433  11.306  11.482   1.025 -0.9631 -0.1465 -0.8448
34885SOL    HW213434  11.435  11.450   0.952  0.0412 -0.3492  0.9715
34886SOL     OW13435   4.066   6.529   4.366 -0.0602 -1.0197  0.0367
34886SOL    HW113436   4.114   6.447   4.380  0.1270 -1.2232 -1.6015
34886SOL    HW213437   4.015   6.540   4.446  1.1179 -1.8963  0.9542
34887SOL     OW13438   0.400   3.447   1.477 -0.0173  0.3286 -0.0258
34887SOL    HW113439   0.492   3.465   1.459 -0.7261  2.5535 -1.8989
34887SOL    HW213440   0.401   3.392   1.556  2.8190  1.5183  0.8773
34888SOL     OW13441   0.942  11.160  10.715 -0.3988 -0.0977  0.4347
34888SOL    HW113442   1.013  11.118  10.764  0.6955 -1.8422 -2.4105
34888SOL    HW213443   0.924  11.100  10.642 -3.7405  1.0714  0.1370
34889SOL     OW13444   8.874   5.454  12.156 -0.3600 -0.5066  0.0063
34889SOL    HW113445   8.830   5.419  12.078  1.6938  0.5811 -1.7431
34889SOL    HW213446   8.845   5.546  12.160 -2.8654 -1.2726  2.4366
34890SOL     OW13447   0.417   0.001  10.962  0.8239  0.1617  0.0565
34890SOL    HW113448   0.458   0.030  11.044  0.6651  0.1180  0.1510
34890SOL    HW213449   0.483   0.020  10.895  0.7199  0.7354  0.1152
34891SOL     OW13450   6.493   6.992   0.311  0.3200 -0.6873 -0.0283
34891SOL    HW113451   6.421   7.035   0.357  1.3577 -0.4958  1.4797
34891SOL    HW213452   6.463   6.988   0.220 -0.8716  0.9539  0.2269
34892SOL     OW13453  12.543   3.512   9.197  0.1588 -0.0615 -0.4177
34892SOL    HW113454  12.559   3.572   9.270 -0.6428  1.2748 -1.2944
34892SOL    HW213455  12.488   3.562   9.136  0.5483 -1.2388 -1.8036
34893SOL     OW13456  10.962   2.159   6.609 -0.0700 -0.0658 -0.1680
34893SOL    HW113457  10.975   2.157   6.514 -0.9066  2.6860 -0.4295
34893SOL    HW213458  10.900   2.088   6.626  1.9985 -2.2762 -1.2322
34894SOL     OW13459   5.318   5.033  10.499 -0.1601 -0.3117  0.0248
34894SOL    HW113460   5.272   5.048  10.417 -0.8041 -1.5025  0.1456
34894SOL    HW213461   5.271   5.087  10.563  0.2363  0.4821 -0.3428
34895SOL     OW13462   1.126   7.726  10.807 -0.1085  0.4436 -0.2906
34895SOL    HW113463   1.118   7.818  10.782  1.1144  0.6429 -0.0127
34895SOL    HW213464   1.036   7.693  10.808 -0.5476  1.6079 -0.4895
34896SOL     OW13465  11.313   0.155   8.625  0.1090 -0.3487  0.2423
34896SOL    HW113466  11.314   0.064   8.654  1.4147 -0.6558 -0.6905
34896SOL    HW213467  11.278   0.203   8.700 -0.4870 -1.5890  0.7951
34897SOL     OW13468   1.948  10.479   7.568 -0.2831  0.7591 -0.1183
34897SOL    HW113469   1.963  10.397   7.520 -0.9136  0.6881 -0.1967
34897SOL    HW213470   1.940  10.453   7.659 -0.5544  0.7233 -0.1515
34898SOL     OW13471   5.652   3.194   6.555  0.1289 -0.4079 -0.3932
34898SOL    HW113472   5.689   3.241   6.630  1.2838  0.4252 -1.4556
34898SOL    HW213473   5.651   3.102   6.583  0.2238 -0.0753  0.7566
34899SOL     OW13474  10.159   8.212  10.139  0.4004 -0.2507 -0.3564
34899SOL    HW113475  10.191   8.179  10.223 -0.1400  2.9113  1.2511
34899SOL    HW213476  10.090   8.275  10.163  0.3079  0.8533 -3.1622
34900SOL     OW13477   5.816   5.849   5.214  0.8901 -0.1113  0.4514
34900SOL    HW113478   5.841   5.929   5.168 -0.2089 -0.1281 -0.2026
34900SOL    HW213479   5.813   5.782   5.145 -1.6746  0.0528  0.2928
34901SOL     OW13480   3.162   1.334   3.442  0.2617 -0.0216 -0.4037
34901SOL    HW113481   3.258   1.334   3.436  0.2353 -1.8943 -1.6621
34901SOL    HW213482   3.132   1.352   3.353 -0.5254 -0.6716 -0.2855
34902SOL     OW13483   9.145   1.446   5.213 -0.4108  0.2482  0.1046
34902SOL    HW113484   9.143   1.540   5.193 -1.1124  0.5814  1.5721
34902SOL    HW213485   9.237   1.422   5.203 -0.0480  1.3287  0.6098
34903SOL     OW13486  11.116   2.747   0.038 -0.2001  0.4352 -0.0663
34903SOL    HW113487  11.204   2.768   0.070  0.0147 -0.5096 -0.0185
34903SOL    HW213488  11.125   2.661  -0.003 -1.4590 -0.5124  1.5276
34904SOL     OW13489   6.971   4.075   4.140 -0.0978  0.3306  0.3175
34904SOL    HW113490   6.892   4.026   4.163  0.0651  0.2111  0.6289
34904SOL    HW213491   7.032   4.057   4.212  0.1938  0.4649  0.1055
34905SOL     OW13492   1.475   8.813   8.811 -0.6236 -0.2946 -0.4481
34905SOL    HW113493   1.421   8.788   8.886 -2.1851 -0.0502 -1.4507
34905SOL    HW213494   1.564   8.813   8.846 -1.4566  2.1636  2.0731
34906SOL     OW13495  11.286   8.285   2.332 -0.3458  0.5878 -0.2819
34906SOL    HW113496  11.373   8.315   2.360  0.5116 -1.4326 -0.6367
34906SOL    HW213497  11.251   8.358   2.281  2.0787  0.6404 -2.0360
34907SOL     OW13498  10.961  12.530   3.862 -0.2980  0.2319 -0.2781
34907SOL    HW113499  11.046  12.494   3.836 -0.2313 -0.5157  0.8764
34907SOL    HW213500  10.897  12.481   3.812 -0.0497  1.4314 -1.8608
34908SOL     OW13501   0.725   7.895   6.497 -0.1429  0.2207 -0.1562
34908SOL    HW113502   0.785   7.889   6.423 -1.7031  1.1414 -1.5469
34908SOL    HW213503   0.640   7.914   6.458 -1.3368 -0.8661  1.7640
34909SOL     OW13504   1.297   5.709   4.455 -0.4179  0.3417 -0.5113
34909SOL    HW113505   1.317   5.680   4.366 -0.6297 -1.5784  0.0220
34909SOL    HW213506   1.330   5.639   4.511 -1.6285  0.7843  0.8193
34910SOL     OW13507   1.380   6.515   1.064 -1.2275  0.5787  0.1535
34910SOL    HW113508   1.397   6.476   0.979  1.1056  0.4030  0.6155
34910SOL    HW213509   1.292   6.488   1.087 -0.7676 -1.9960 -0.8308
34911SOL     OW13510   3.562   5.297   4.112  0.1541 -0.0804 -0.2327
34911SOL    HW113511   3.642   5.268   4.068 -0.7962  0.0944 -2.1819
34911SOL    HW213512   3.509   5.218   4.119 -0.1949  0.1272 -0.5199
34912SOL     OW13513  10.360   3.194   6.466  0.4255 -0.2820  0.1087
34912SOL    HW113514  10.318   3.109   6.481 -1.2845  0.7137  1.2892
34912SOL    HW213515  10.441   3.190   6.517  1.0972 -1.6785 -0.9790
34913SOL     OW13516   3.989  10.014   3.697  0.1304  0.4913 -0.2781
34913SOL    HW113517   3.950  10.029   3.611  0.1947 -0.2146 -0.4395
34913SOL    HW213518   4.083  10.004   3.679  0.1960  0.7161 -0.0734
34914SOL     OW13519   9.937   6.914   7.332 -0.2243 -0.0532 -0.3241
34914SOL    HW113520  10.022   6.915   7.287 -0.7265  2.0629 -1.3337
34914SOL    HW213521   9.893   6.993   7.302 -3.8115 -2.4905 -2.1428
34915SOL     OW13522   7.576   5.054   8.370 -0.1587  0.1364  0.4594
34915SOL    HW113523   7.612   4.981   8.419  1.0749 -1.0487 -2.0269
34915SOL    HW213524   7.637   5.067   8.297 -2.3928  1.0447 -1.3968
34916SOL     OW13525   8.916   4.529   2.995  0.3309 -0.1928  0.6582
34916SOL    HW113526   8.985   4.467   2.970  0.5483 -0.4190  1.7727
34916SOL    HW213527   8.962   4.612   3.006  0.0132  0.2260 -1.0010
34917SOL     OW13528   1.908   5.810   7.410 -0.1368 -0.1840 -0.1017
34917SOL    HW113529   1.889   5.820   7.503 -0.9552  0.1075 -0.2944
34917SOL    HW213530   1.878   5.721   7.388  1.7544 -0.9711  0.3051
34918SOL     OW13531   3.801   3.901   1.947  0.2124  0.3778 -0.3408
34918SOL    HW113532   3.896   3.915   1.946  0.4914 -1.2237  0.6314
34918SOL    HW213533   3.791   3.808   1.965 -1.5582  0.9252  1.9600
34919SOL     OW13534   4.972   7.718   1.327 -0.1154  0.4828  0.0441
34919SOL    HW113535   5.026   7.795   1.307 -1.3512  1.3995  0.1717
34919SOL    HW213536   5.023   7.644   1.293  0.6923  1.4271 -0.8674
34920SOL     OW13537  11.820   7.548   9.838  0.6891  0.2277 -0.0509
34920SOL    HW113538  11.855   7.586   9.758  0.0892 -0.7123 -0.7781
34920SOL    HW213539  11.736   7.511   9.812 -0.0625  0.9258  1.2722
34921SOL     OW13540   2.145   2.015   5.379  0.0283  0.5420 -0.6065
34921SOL    HW113541   2.238   2.034   5.395  0.9526 -2.7517 -1.2792
34921SOL    HW213542   2.102   2.100   5.384  2.8036  1.9927  1.4758
34922SOL     OW13543   3.074   7.473   8.114  0.0472 -0.1369 -0.2749
34922SOL    HW113544   3.124   7.452   8.035  0.1341 -3.3999  0.5152
34922SOL    HW213545   3.015   7.543   8.087  1.4328  0.2047 -2.6652
34923SOL     OW13546   2.186   5.539   7.991 -0.2499 -0.0657 -0.2569
34923SOL    HW113547   2.172   5.574   7.903 -0.9239  1.0090  0.2487
34923SOL    HW213548   2.107   5.488   8.008  0.5167 -1.4920 -0.8043
34924SOL     OW13549   9.591   2.840   2.796 -0.2530  0.7906 -0.2142
34924SOL    HW113550   9.601   2.797   2.881  0.9122  2.2309  0.4126
34924SOL    HW213551   9.502   2.819   2.769 -0.7267  0.5105  1.4729
34925SOL     OW13552   7.478   9.444  11.158  0.3699 -0.0853  0.2648
34925SOL    HW113553   7.456   9.460  11.250  0.3118  0.2184  0.2007
34925SOL    HW213554   7.424   9.370  11.133  0.6560 -0.4084  0.5785
34926SOL     OW13555   5.798   5.422   4.090  0.1681 -0.0828  0.9711
34926SOL    HW113556   5.881   5.400   4.131 -0.1882 -1.2460  1.1001
34926SOL    HW213557   5.805   5.389   4.001  0.4367  1.2594  0.4700
34927SOL     OW13558   9.120  12.571   5.817  0.5008  0.2674 -0.4495
34927SOL    HW113559   9.138  12.483   5.850  0.6211  0.0292 -1.1374
34927SOL    HW213560   9.205  12.615   5.821  0.3261  0.5464  0.4378
34928SOL     OW13561   4.814   4.082   5.794 -0.5713 -0.0040 -0.7115
34928SOL    HW113562   4.807   3.987   5.785  0.5348 -0.1002 -0.6603
34928SOL    HW213563   4.794   4.099   5.886 -3.8091  0.1594 -1.3226
34929SOL     OW13564   6.226   0.010   2.591  0.1441 -0.0917  0.2548
34929SOL    HW113565   6.217   0.020   2.686 -0.4665 -1.5816  0.3672
34929SOL    HW213566   6.178  -0.070   2.570 -1.1546  1.0752 -1.5583
34930SOL     OW13567   9.294   4.883  11.183  0.3983  0.0183  0.0937
34930SOL    HW113568   9.321   4.902  11.273 -1.3263  2.3471  0.2063
34930SOL    HW213569   9.202   4.908  11.180  0.5273  0.4168 -2.4185
34931SOL     OW13570   3.229   5.087   5.617  0.1429  0.4454 -0.3611
34931SOL    HW113571   3.261   5.110   5.704 -1.1785  2.0880 -0.2719
34931SOL    HW213572   3.308   5.084   5.563  0.8175  0.9576  0.5710
34932SOL     OW13573  10.700  10.556  10.495  0.2820  0.2107  0.0626
34932SOL    HW113574  10.771  10.491  10.500 -0.1060 -0.1934  0.3577
34932SOL    HW213575  10.688  10.571  10.401 -0.4599 -1.0638 -0.0540
34933SOL     OW13576   7.610   0.707   5.669  0.0228 -0.3392  0.6429
34933SOL    HW113577   7.694   0.680   5.707  0.5889 -1.0842 -1.0384
34933SOL    HW213578   7.630   0.787   5.621 -0.5547  0.2557  1.3664
34934SOL     OW13579   6.684  12.569   2.366  0.5654 -0.1746  0.2001
34934SOL    HW113580   6.776  12.594   2.379  0.8318 -0.1113 -1.5606
34934SOL    HW213581   6.674  12.563   2.271 -1.4800  0.6598  0.3121
34935SOL     OW13582  10.428   5.775   8.539 -0.7995 -0.3700 -0.4329
34935SOL    HW113583  10.471   5.860   8.527 -1.1362 -0.4643 -2.9506
34935SOL    HW213584  10.345   5.784   8.490 -0.4474 -2.3937 -1.5061
34936SOL     OW13585   7.253   5.822   3.921  0.2792  0.1574  0.6074
34936SOL    HW113586   7.281   5.739   3.881 -2.0677  1.4129 -4.4755
34936SOL    HW213587   7.328   5.880   3.912  0.5930 -0.2861  0.2929
34937SOL     OW13588   4.865   3.050  11.059  0.6771  0.2452  0.1984
34937SOL    HW113589   4.952   3.052  11.101  1.0610  3.2964 -0.5169
34937SOL    HW213590   4.882   3.013  10.973  0.9652 -0.6105  0.6090
34938SOL     OW13591  10.387   4.641   0.684 -0.3114  0.5263 -0.1895
34938SOL    HW113592  10.382   4.681   0.597 -1.0248 -0.2957 -0.5423
34938SOL    HW213593  10.306   4.666   0.727 -1.1769 -1.1633 -0.7224
34939SOL     OW13594  12.378   5.878   9.749  0.4745  0.2121 -0.4216
34939SOL    HW113595  12.334   5.854   9.667 -1.1461 -0.3038  0.5697
34939SOL    HW213596  12.459   5.827   9.747  0.6489  0.4857 -1.8532
34940SOL     OW13597  11.513  11.584   4.984  0.4762  0.2277  0.3243
34940SOL    HW113598  11.544  11.497   4.959  0.4868  1.0472 -3.0794
34940SOL    HW213599  11.582  11.618   5.041  2.1024 -0.8398 -0.9033
34941SOL     OW13600   6.355   9.453   4.645  0.2561  0.3597  0.5581
34941SOL    HW113601   6.311   9.369   4.629 -1.3627  1.1737  0.5585
34941SOL    HW213602   6.402   9.439   4.728 -0.6395 -0.3153  0.9729
34942SOL     OW13603  10.999   7.306   9.969 -0.0923  0.5369 -0.1212
34942SOL    HW113604  11.068   7.366   9.939  0.5893 -1.0226 -1.8902
34942SOL    HW213605  10.938   7.301   9.895 -1.3071  0.6967  0.8353
34943SOL     OW13606   1.747  12.375   4.124 -0.7024  0.2081  0.0890
34943SOL    HW113607   1.743  12.418   4.209 -2.3817  0.0809  0.1078
34943SOL    HW213608   1.769  12.445   4.063 -1.0576  0.6299  0.4358
34944SOL     OW13609   0.391   6.322   1.644 -0.2483  0.5987  0.3300
34944SOL    HW113610   0.313   6.293   1.691 -1.8315 -0.4273 -2.6446
34944SOL    HW213611   0.363   6.401   1.597  0.1548 -0.2614 -1.4446
34945SOL     OW13612   1.032  11.479   4.688  0.2737  1.0551  0.0876
34945SOL    HW113613   0.973  11.482   4.613 -0.2444 -1.0614  0.3449
34945SOL    HW213614   0.995  11.541   4.751 -0.6096  1.1212 -0.4899
34946SOL     OW13615  10.835   6.677   7.660  0.0767  0.2205  0.5691
34946SOL    HW113616  10.769   6.738   7.691  0.5744  1.3209 -0.4663
34946SOL    HW213617  10.816   6.665   7.567  2.5013  2.2314 -0.3013
34947SOL     OW13618   8.612  11.790  11.522 -0.3764  0.3465  0.4000
34947SOL    HW113619   8.554  11.714  11.528  0.3551 -0.1343  2.0429
34947SOL    HW213620   8.689  11.757  11.476  0.4866 -0.3359  2.2155
34948SOL     OW13621   0.333  11.555   0.688 -0.5416  0.0501  0.3355
34948SOL    HW113622   0.370  11.509   0.612 -0.4108  0.7114 -0.0093
34948SOL    HW213623   0.242  11.571   0.663  0.0035  2.0705 -0.5732
34949SOL     OW13624   1.021   6.290   8.720 -0.0972 -0.1513 -0.2461
34949SOL    HW113625   0.971   6.367   8.693  0.4391  0.2406 -0.1278
34949SOL    HW213626   1.106   6.324   8.745 -0.4493 -0.5487  1.6123
34950SOL     OW13627  12.051  11.561   6.308 -0.2407 -0.2554 -0.0631
34950SOL    HW113628  12.074  11.491   6.248  0.8296  1.1295 -1.3551
34950SOL    HW213629  12.129  11.617   6.311 -0.1748 -0.3328  2.7764
34951SOL     OW13630   0.616   5.719   4.572 -0.5108  0.3724  0.5757
34951SOL    HW113631   0.566   5.796   4.545  1.1478  1.8696  1.6193
34951SOL    HW213632   0.601   5.711   4.666 -0.4431 -0.4301  0.5290
34952SOL     OW13633   2.069   3.964   7.383 -0.4070 -0.2305 -0.2594
34952SOL    HW113634   2.055   4.018   7.461 -2.0984  0.7101 -1.1497
34952SOL    HW213635   2.003   3.995   7.320 -0.2405 -2.1164 -1.4579
34953SOL     OW13636   5.965  11.989  12.203 -0.1546 -0.0326 -0.5169
34953SOL    HW113637   5.878  12.029  12.202  0.1856  0.7490 -1.7682
34953SOL    HW213638   6.025  12.063  12.199  0.5060 -0.6226 -2.1824
34954SOL     OW13639  10.867   5.893   5.839  1.1301  0.0197 -0.8865
34954SOL    HW113640  10.911   5.970   5.876  1.8436 -0.1175 -1.4244
34954SOL    HW213641  10.815   5.858   5.911  2.7016 -0.4097  0.0772
34955SOL     OW13642   9.893   5.719   5.025 -0.0166  0.1628 -0.1266
34955SOL    HW113643   9.898   5.635   5.071 -0.1704 -0.1755 -0.7095
34955SOL    HW213644   9.924   5.699   4.936  0.2570  0.7960 -0.1790
34956SOL     OW13645   1.170   9.027   0.670 -0.1251 -0.2429 -0.0358
34956SOL    HW113646   1.221   8.946   0.673 -0.7894 -0.6716 -0.1136
34956SOL    HW213647   1.189   9.065   0.584 -1.0382 -1.1362 -0.6489
34957SOL     OW13648   6.599   7.560   8.624  0.1039 -0.6219 -0.1340
34957SOL    HW113649   6.536   7.612   8.575 -0.7094  0.4620  1.9595
34957SOL    HW213650   6.652   7.517   8.556 -1.0371  0.6655 -1.9298
34958SOL     OW13651   4.378   0.666   4.949 -0.0334 -0.0428 -0.4215
34958SOL    HW113652   4.343   0.581   4.922  0.2057  0.3917 -2.2847
34958SOL    HW213653   4.381   0.717   4.868 -0.1649  1.7519  0.6539
34959SOL     OW13654  12.181   7.353   5.914 -0.1908 -0.6399  0.6712
34959SOL    HW113655  12.179   7.389   6.003 -0.1168  0.5006  0.2240
34959SOL    HW213656  12.119   7.407   5.865  0.4556 -0.6659 -0.1931
34960SOL     OW13657   7.890   7.192   7.723 -0.7822 -0.0650 -0.1488
34960SOL    HW113658   7.885   7.139   7.803  2.7274 -0.2213  0.1221
34960SOL    HW213659   7.884   7.282   7.754 -0.1270 -0.1467  0.2455
34961SOL     OW13660   5.531   0.293   3.178 -0.5067  0.2869  0.0080
34961SOL    HW113661   5.478   0.371   3.162 -0.0050  0.8149  0.8138
34961SOL    HW213662   5.616   0.314   3.137 -1.1018 -0.8499 -1.9306
34962SOL     OW13663  10.476  12.196   9.254  0.5594  0.3726  0.0635
34962SOL    HW113664  10.449  12.283   9.283 -2.3607  0.3908 -2.3340
34962SOL    HW213665  10.412  12.136   9.292  0.1098 -0.2359 -1.5962
34963SOL     OW13666   5.579   6.028   2.579 -0.0704  0.2764 -0.6255
34963SOL    HW113667   5.656   5.973   2.562 -1.0962 -1.9444  1.3150
34963SOL    HW213668   5.594   6.063   2.667 -1.0075  0.2626 -0.4473
34964SOL     OW13669   2.324   9.465   6.924 -0.2621 -0.1380 -0.2666
34964SOL    HW113670   2.254   9.507   6.974 -0.6145 -0.5550 -0.4041
34964SOL    HW213671   2.366   9.406   6.987  0.5975  0.8166  0.0842
34965SOL     OW13672   5.024  10.550   6.773 -0.4270  0.4579  0.1603
34965SOL    HW113673   5.009  10.628   6.720 -1.5415  0.1366 -0.0213
34965SOL    HW213674   5.091  10.576   6.836  0.2831  1.1044 -0.8374
34966SOL     OW13675   4.703   9.979   7.317 -0.4484 -0.2092 -0.0303
34966SOL    HW113676   4.736   9.890   7.331 -0.3389 -0.0753  0.5627
34966SOL    HW213677   4.636   9.969   7.249 -0.6960 -0.7994  0.2990
34967SOL     OW13678   2.516  10.466   5.229 -0.0382  0.3148  0.1245
34967SOL    HW113679   2.581  10.397   5.245 -1.5169 -1.6207 -1.6323
34967SOL    HW213680   2.491  10.496   5.316  2.1898  0.1624  0.8745
34968SOL     OW13681   5.856   9.624   1.332  0.5307  0.3884  0.4646
34968SOL    HW113682   5.820   9.712   1.327  1.4471  0.7615  0.3442
34968SOL    HW213683   5.950   9.637   1.342  0.7415 -0.5802 -0.1442
34969SOL     OW13684   5.679  10.764   8.758 -0.3170  0.1535  0.4100
34969SOL    HW113685   5.595  10.808   8.741 -1.0786 -1.2452  0.3655
34969SOL    HW213686   5.664  10.715   8.839  0.6998  0.4167  0.7727
34970SOL     OW13687   0.832   0.312   8.844  0.1310 -0.3771 -0.0233
34970SOL    HW113688   0.810   0.376   8.776 -0.3492 -0.1607  0.3291
34970SOL    HW213689   0.792   0.347   8.924  1.3022 -0.2687  0.5323
34971SOL     OW13690   4.599   1.288   2.990  0.3997  0.0567  0.0654
34971SOL    HW113691   4.643   1.204   2.974 -0.4641 -0.4168  0.1051
34971SOL    HW213692   4.670   1.350   3.004  1.0948 -0.3636 -1.4220
34972SOL     OW13693   2.609   8.048   9.622 -0.1510  0.1570  0.1752
34972SOL    HW113694   2.532   8.039   9.567  0.1193 -0.6497 -0.0807
34972SOL    HW213695   2.631   7.959   9.649 -0.5790  0.5580  2.0194
34973SOL     OW13696   8.815   1.129   9.698  0.4467 -0.1595  0.3327
34973SOL    HW113697   8.862   1.134   9.781 -0.4176 -1.3523  0.9280
34973SOL    HW213698   8.826   1.216   9.659  0.6687  0.5049  1.8003
34974SOL     OW13699   3.572  12.064  10.404  0.2193  0.1313 -0.2797
34974SOL    HW113700   3.639  12.056  10.472  0.5471 -0.7546 -0.6867
34974SOL    HW213701   3.548  12.157  10.404  0.6604  0.2545  0.6136
34975SOL     OW13702   1.612   6.344  10.644 -0.2720 -0.0777 -0.0053
34975SOL    HW113703   1.568   6.402  10.707 -0.8635  0.7965 -1.1900
34975SOL    HW213704   1.698   6.327  10.683 -0.1245  1.5225  0.4291
34976SOL     OW13705  10.857   0.019   2.350 -0.4653 -0.3941  0.4494
34976SOL    HW113706  10.766   0.003   2.376 -0.6194  0.6393  0.5920
34976SOL    HW213707  10.851   0.081   2.277  0.0698 -1.5642 -0.6073
34977SOL     OW13708   1.179  12.337   1.266 -0.2006 -0.1445 -0.1555
34977SOL    HW113709   1.264  12.376   1.247 -1.0764  1.4590 -0.9675
34977SOL    HW213710   1.169  12.268   1.200 -0.1274  0.6295 -1.0015
34978SOL     OW13711   3.948   2.065   9.278 -0.0506 -0.8158 -0.5595
34978SOL    HW113712   3.855   2.065   9.259  0.0268  1.8306 -1.2664
34978SOL    HW213713   3.954   2.056   9.373 -1.1080  0.6554 -0.3300
34979SOL     OW13714  10.168   7.083   4.127 -0.4059  0.0454 -0.1613
34979SOL    HW113715  10.189   7.163   4.175 -0.4038  0.0702 -0.2036
34979SOL    HW213716  10.139   7.114   4.041  0.5231 -0.0422 -0.5072
34980SOL     OW13717   9.710   0.785   5.173 -0.6085 -0.0501 -0.1290
34980SOL    HW113718   9.686   0.872   5.141 -0.1100  0.6827  1.3860
34980SOL    HW213719   9.754   0.743   5.099 -0.0884  1.3159 -0.6232
34981SOL     OW13720   5.976  10.368   4.138 -0.4744  0.0026  0.4185
34981SOL    HW113721   6.039  10.403   4.075 -0.1919 -0.2150  0.5791
34981SOL    HW213722   6.004  10.277   4.151 -1.5672 -0.5000 -0.4882
34982SOL     OW13723   1.833   8.638   3.470 -0.1273  0.3055  0.0548
34982SOL    HW113724   1.860   8.574   3.404  0.2934 -0.3969  0.9033
34982SOL    HW213725   1.764   8.594   3.519 -0.3694  0.7934  0.1572
34983SOL     OW13726   2.797   2.323   4.817  0.0801  0.3916 -0.3129
34983SOL    HW113727   2.714   2.360   4.786 -0.1382  0.1624 -0.0059
34983SOL    HW213728   2.862   2.391   4.798 -0.1860  0.5976 -0.4977
34984SOL     OW13729   2.066   5.579   0.134 -0.0805 -0.0938  0.1704
34984SOL    HW113730   2.048   5.608   0.044 -0.8317 -1.1375 -0.0272
34984SOL    HW213731   2.011   5.635   0.188  2.7489  2.8547  0.3433
34985SOL     OW13732   2.591   9.128  10.734 -0.1375 -0.3556 -0.1177
34985SOL    HW113733   2.649   9.104  10.806 -0.1231  0.9095  0.3284
34985SOL    HW213734   2.632   9.205  10.694 -0.3277 -0.8281 -1.2702
34986SOL     OW13735   7.773   8.542  12.187  0.2885 -0.3318 -0.1869
34986SOL    HW113736   7.715   8.474  12.221 -0.0802  0.3522  0.5897
34986SOL    HW213737   7.838   8.494  12.135 -0.2514 -1.2214 -0.0625
34987SOL     OW13738   2.276   8.130   4.851  0.6148  0.7399  0.5616
34987SOL    HW113739   2.225   8.208   4.829 -0.4725 -0.1071  0.0057
34987SOL    HW213740   2.358   8.140   4.802 -0.2052  0.7452 -0.8697
34988SOL     OW13741   4.113  12.500   2.158  0.0949 -0.4463  0.6142
34988SOL    HW113742   4.046  12.566   2.177  1.3423  1.1449 -0.2912
34988SOL    HW213743   4.093  12.469   2.071  0.6912  0.2914  0.1964
34989SOL     OW13744  11.408   7.599   9.603 -0.3871  0.0566 -0.5401
34989SOL    HW113745  11.415   7.694   9.596  1.3056  0.0995  1.0078
34989SOL    HW213746  11.485   7.573   9.654 -0.9550 -2.1220 -0.6937
34990SOL     OW13747   2.319   2.624   1.923 -1.1202 -0.0998 -0.6919
34990SOL    HW113748   2.248   2.559   1.922 -1.3340  0.1379 -1.1980
34990SOL    HW213749   2.274   2.708   1.935 -0.8101 -0.0760  0.4084
34991SOL     OW13750   3.565   6.382  11.139 -0.6185 -0.0374 -0.4712
34991SOL    HW113751   3.483   6.340  11.165  0.1299 -0.5279  1.2666
34991SOL    HW213752   3.630   6.348  11.201  1.4899 -1.6179 -3.3048
34992SOL     OW13753   8.288  11.306  11.069 -0.1626 -0.6392  0.1079
34992SOL    HW113754   8.205  11.341  11.103  0.0861  1.2631 -1.1364
34992SOL    HW213755   8.264  11.259  10.989 -0.2544 -1.7900  0.7883
34993SOL     OW13756   3.108   0.139  11.086  0.0627  0.1336  0.0114
34993SOL    HW113757   3.142   0.144  11.175 -2.1183  2.2628  0.8322
34993SOL    HW213758   3.144   0.216  11.042 -0.8263  0.4606 -0.1668
34994SOL     OW13759   5.769  11.393   5.481  0.0913 -0.2793 -0.4260
34994SOL    HW113760   5.813  11.417   5.562  0.3187 -1.6310 -0.1351
34994SOL    HW213761   5.836  11.407   5.413  0.6554 -1.3122 -0.1057
34995SOL     OW13762   3.076   0.372   6.615 -0.0386  0.3652  0.2374
34995SOL    HW113763   3.124   0.426   6.677  0.7277 -0.3871  0.3255
34995SOL    HW213764   3.139   0.352   6.546 -0.4284 -0.0682 -0.0059
34996SOL     OW13765   3.454  10.360   1.715 -0.0498  0.1478  0.0522
34996SOL    HW113766   3.442  10.430   1.780  1.9625 -0.0980  0.7613
34996SOL    HW213767   3.549  10.347   1.712 -0.2122 -0.8406 -1.9171
34997SOL     OW13768  11.300   6.144   5.826 -0.3891  0.0056  0.3020
34997SOL    HW113769  11.275   6.123   5.916 -0.9991  2.3371  0.7433
34997SOL    HW213770  11.217   6.163   5.783 -0.1634 -1.6332 -0.9717
34998SOL     OW13771  11.986  10.987   4.478 -0.2735 -0.1555 -0.4945
34998SOL    HW113772  12.065  10.944   4.510 -1.0155 -1.4764 -0.3483
34998SOL    HW213773  11.915  10.952   4.532 -1.3310 -1.1363 -2.3749
34999SOL     OW13774  11.836   2.956   9.960  0.1612 -0.0530 -0.0446
34999SOL    HW113775  11.862   2.950  10.052  0.3151 -1.9245 -0.1808
34999SOL    HW213776  11.872   3.040   9.931  1.3997 -0.1155  1.1957
35000SOL     OW13777   6.297   0.378   0.795 -0.0974 -0.2090  0.6162
35000SOL    HW113778   6.311   0.416   0.882 -1.0949 -1.4144  1.3492
35000SOL    HW213779   6.248   0.297   0.812 -1.4885  0.1966 -1.1784
35001SOL     OW13780   3.864   3.100  11.116  0.4520  0.3101 -0.5077
35001SOL    HW113781   3.909   3.149  11.185  0.3028  1.0673 -0.9250
35001SOL    HW213782   3.823   3.168  11.062  0.1658 -0.2895 -1.0641
35002SOL     OW13783   3.928   7.527   0.820  0.1865 -0.1598  0.1967
35002SOL    HW113784   3.978   7.473   0.760 -0.5414 -2.6921  1.7174
35002SOL    HW213785   3.838   7.493   0.814 -1.0562  2.9290 -0.9736
35003SOL     OW13786   6.199  11.990   8.807 -0.1610 -0.5608  0.2246
35003SOL    HW113787   6.276  12.047   8.798 -1.3294  0.7930 -2.7029
35003SOL    HW213788   6.154  12.021   8.885  0.4674  0.9668  0.0044
35004SOL     OW13789  11.017  12.566   2.783 -0.3806  0.1596 -0.2711
35004SOL    HW113790  11.011  12.561   2.687 -2.1024 -0.7110 -0.1662
35004SOL    HW213791  10.927  12.551   2.813 -0.0559  1.3617  1.4636
35005SOL     OW13792   0.737   3.553   6.115 -0.4234 -0.0057 -0.1445
35005SOL    HW113793   0.719   3.611   6.041  1.8120  1.9626  0.7061
35005SOL    HW213794   0.669   3.575   6.180 -1.6176 -0.8218 -1.0829
35006SOL     OW13795   4.295   5.410   6.900  0.0269 -0.1991  0.1475
35006SOL    HW113796   4.294   5.315   6.887 -0.0734 -0.2389  0.4301
35006SOL    HW213797   4.210   5.430   6.940 -0.0491  0.0414 -0.1305
35007SOL     OW13798   3.735   7.757   4.584  0.1706 -0.3097  0.2915
35007SOL    HW113799   3.733   7.789   4.674  0.2305  2.0186 -0.4691
35007SOL    HW213800   3.828   7.761   4.559 -0.1146  1.6661 -0.6670
35008SOL     OW13801   9.939   6.344   9.536 -0.2018 -0.0354 -0.5339
35008SOL    HW113802   9.983   6.261   9.555 -1.0967 -0.2857  0.4937
35008SOL    HW213803   9.929   6.387   9.621 -1.1663  0.4051 -0.8528
35009SOL     OW13804   8.512   4.832  10.579  0.2672 -0.7303  0.0933
35009SOL    HW113805   8.584   4.790  10.627 -1.0692 -1.6375  1.3843
35009SOL    HW213806   8.554   4.903  10.531  1.9038 -0.6644  1.5214
35010SOL     OW13807   3.867   5.762   2.309  0.5913 -0.2659  0.1947
35010SOL    HW113808   3.850   5.749   2.402  1.2964  1.4258  0.6075
35010SOL    HW213809   3.783   5.789   2.273  0.8367  1.6315  0.9063
35011SOL     OW13810   3.577   2.007   2.333 -0.3359 -0.3978  0.0200
35011SOL    HW113811   3.666   1.974   2.324 -0.9302 -1.7383 -1.3809
35011SOL    HW213812   3.586   2.102   2.332  1.0956 -0.5128  0.2850
35012SOL     OW13813   9.489   6.373   9.542  0.4003  0.5176  0.4223
35012SOL    HW113814   9.554   6.355   9.610  0.2021  0.4964  0.6082
35012SOL    HW213815   9.422   6.305   9.556  1.3705 -0.8363 -1.1136
35013SOL     OW13816   9.005   0.308   4.416  0.3929 -0.1519 -0.3573
35013SOL    HW113817   8.928   0.365   4.422  0.0366 -0.3000 -2.6033
35013SOL    HW213818   8.969   0.220   4.407  0.8857 -0.4390  0.3915
35014SOL     OW13819   8.920   9.197   0.218 -1.1325  0.3917  0.1454
35014SOL    HW113820   8.878   9.275   0.184 -1.7026  0.2832  0.5719
35014SOL    HW213821   8.848   9.135   0.230 -0.5896 -0.4792 -0.9280
35015SOL     OW13822   2.742   4.134   1.781 -0.2049 -0.3968 -0.1503
35015SOL    HW113823   2.765   4.045   1.758  0.4850 -0.0237 -0.9439
35015SOL    HW213824   2.705   4.171   1.701  1.3664  0.6335 -0.4438
35016SOL     OW13825   9.518   5.984   1.734  0.0982 -0.5642 -0.2060
35016SOL    HW113826   9.591   5.957   1.790  0.9056  0.8091 -0.5432
35016SOL    HW213827   9.470   5.904   1.717  0.2297 -1.1366  1.8807
35017SOL     OW13828   8.849   7.601  12.433  0.4133  0.2764  0.0339
35017SOL    HW113829   8.842   7.525  12.374 -0.8993 -0.0716  0.6007
35017SOL    HW213830   8.906   7.571  12.504  2.7849  0.9983 -1.4488
35018SOL     OW13831  12.520  10.432   0.846  0.1490  0.5745  0.1386
35018SOL    HW113832  12.576  10.467   0.777 -1.1123  0.2206 -1.1267
35018SOL    HW213833  12.576  10.374   0.896  1.3492  1.6147  0.0451
35019SOL     OW13834  10.306   6.106  11.389 -0.0999 -0.0282  0.1908
35019SOL    HW113835  10.291   6.136  11.479  1.4075  0.1083  0.4320
35019SOL    HW213836  10.399   6.124  11.374 -0.9091  2.8230 -2.4896
35020SOL     OW13837  10.307   8.170  10.570 -0.0520  0.1044  0.0179
35020SOL    HW113838  10.248   8.118  10.624 -2.0676  0.9907 -1.2231
35020SOL    HW213839  10.310   8.124  10.486 -0.6499  1.1390 -0.5937
35021SOL     OW13840   2.038   6.398   5.871  0.3186 -0.4639  0.1036
35021SOL    HW113841   2.021   6.346   5.950 -1.3027 -2.1751 -1.2693
35021SOL    HW213842   1.958   6.449   5.857  0.5891 -0.1691 -0.4131
35022SOL     OW13843   7.896   7.148  10.954  0.3818 -0.3982  0.2474
35022SOL    HW113844   7.840   7.099  10.894 -2.9330  1.2733  1.7175
35022SOL    HW213845   7.892   7.238  10.923 -1.3280  0.4957  2.6870
35023SOL     OW13846  11.346   0.102   9.247  0.2460 -0.1879 -0.2838
35023SOL    HW113847  11.290   0.055   9.308 -1.0590 -1.4427 -2.3659
35023SOL    HW213848  11.401   0.034   9.207 -0.2926  0.2734 -1.8947
35024SOL     OW13849  10.214  11.835  11.572  0.1958 -0.7721 -0.0510
35024SOL    HW113850  10.254  11.851  11.487 -0.1314  0.3068 -0.0247
35024SOL    HW213851  10.157  11.760  11.558 -0.1020 -0.4054 -0.8812
35025SOL     OW13852  12.042   6.042   6.988  0.4620 -0.4595 -0.5420
35025SOL    HW113853  12.138   6.034   6.991  0.4934 -0.2298  2.9234
35025SOL    HW213854  12.011   5.951   6.984  0.8263 -0.5910 -0.4543
35026SOL     OW13855   3.140   9.593   0.819 -0.1939  0.4063  0.3594
35026SOL    HW113856   3.071   9.602   0.753 -0.1258  0.1132  0.2477
35026SOL    HW213857   3.218   9.628   0.777 -0.1679  0.2905  0.3090
35027SOL     OW13858   9.209   4.786   1.353  0.2312  0.7525  0.3170
35027SOL    HW113859   9.148   4.854   1.380 -0.6454  0.6820 -1.3417
35027SOL    HW213860   9.295   4.826   1.361 -0.2675  2.0726 -0.5972
35028SOL     OW13861  12.334   5.800   4.199  0.8073  0.8558 -0.2244
35028SOL    HW113862  12.348   5.707   4.212 -1.2915  0.8234  3.0600
35028SOL    HW213863  12.413   5.842   4.232  1.9450  0.3094 -2.1258
35029SOL     OW13864   8.682   2.192   9.073  0.0980  0.4464 -0.0799
35029SOL    HW113865   8.724   2.121   9.025  1.2898  0.8450  0.3301
35029SOL    HW213866   8.642   2.247   9.005 -0.6375 -0.4703 -0.4136
35030SOL     OW13867  10.915  10.510   3.685  0.3373 -0.6060 -0.0528
35030SOL    HW113868  10.914  10.419   3.715 -0.2977 -0.1522  1.3803
35030SOL    HW213869  10.868  10.559   3.753 -0.5125  0.6050 -1.4317
35031SOL     OW13870   0.422  10.516   7.894 -0.2127 -0.3673  0.4056
35031SOL    HW113871   0.429  10.578   7.821  0.5166  0.4192  1.1265
35031SOL    HW213872   0.473  10.440   7.865 -1.1796 -0.6942 -0.5177
35032SOL     OW13873   4.852  10.904   5.331  0.2751  0.3231 -0.0041
35032SOL    HW113874   4.938  10.892   5.369  0.0207 -1.0441  0.1826
35032SOL    HW213875   4.858  10.986   5.282  0.7937  1.8097  2.4117
35033SOL     OW13876  12.530   2.975  11.022 -0.3771 -0.7113  0.3462
35033SOL    HW113877  12.584   2.963  11.100 -0.9727  0.1282  0.8928
35033SOL    HW213878  12.533   2.890  10.978  2.4244 -0.3868 -0.3219
35034SOL     OW13879  12.441   8.445   9.490  0.6436 -0.1521  0.2473
35034SOL    HW113880  12.523   8.453   9.441  0.0418  0.7073 -0.6631
35034SOL    HW213881  12.426   8.351   9.496  0.6989 -0.2879 -1.3018
35035SOL     OW13882  10.397   9.627   7.844  0.1954  0.0277  0.1824
35035SOL    HW113883  10.322   9.601   7.791 -0.0700 -0.6525  0.8778
35035SOL    HW213884  10.411   9.554   7.904  3.1901 -1.1745 -1.7660
35036SOL     OW13885  12.285   3.430   5.895 -0.5315 -0.1811  0.2616
35036SOL    HW113886  12.262   3.484   5.971  0.5401  0.7488 -0.0496
35036SOL    HW213887  12.380   3.424   5.898 -0.6491 -3.3688  1.1328
35037SOL     OW13888  10.732   0.198   4.967 -0.0260  0.2851  0.3588
35037SOL    HW113889  10.824   0.221   4.954 -0.1478  0.4908 -0.1874
35037SOL    HW213890  10.731   0.146   5.047  0.3070  1.9300  1.4846
35038SOL     OW13891   0.447  10.615   6.763 -0.2145  0.1633  0.0439
35038SOL    HW113892   0.481  10.574   6.843 -0.7719 -1.8359 -0.6693
35038SOL    HW213893   0.451  10.709   6.780  0.1585 -0.1914  2.2171
35039SOL     OW13894   7.762   8.115   2.213 -0.1956  0.1592  0.0644
35039SOL    HW113895   7.849   8.076   2.224 -0.8207 -1.0497  1.0480
35039SOL    HW213896   7.779   8.208   2.198  1.2638 -0.0489  0.2523
35040SOL     OW13897   3.931  12.562  11.425 -0.0655 -0.3633  0.0382
35040SOL    HW113898   3.935  12.526  11.337  0.1259 -0.5319  0.1131
35040SOL    HW213899   3.843  12.539  11.456 -0.0698 -0.4603 -0.0436
35041SOL     OW13900   5.726   5.622  10.217  0.2340  0.0463  0.5808
35041SOL    HW113901   5.764   5.710  10.209  0.1216  0.2004  1.5788
35041SOL    HW213902   5.799   5.563  10.199  0.8145  0.3440  1.8682
35042SOL     OW13903   2.416   7.796   5.636 -1.1595  0.1463 -0.4090
35042SOL    HW113904   2.380   7.742   5.706 -1.1898 -0.1677 -0.6678
35042SOL    HW213905   2.466   7.736   5.582 -1.8922  0.2036 -1.1815
35043SOL     OW13906  11.971   2.945  10.513  0.3629  0.1009 -0.3573
35043SOL    HW113907  11.894   2.995  10.485  0.1749  2.2529  3.3538
35043SOL    HW213908  12.044   3.005  10.499  1.2022 -1.2831 -2.2391
35044SOL     OW13909   6.810  12.496   1.395 -0.5699  0.1070 -0.0058
35044SOL    HW113910   6.744  12.559   1.367  2.0084  1.6208 -3.3871
35044SOL    HW213911   6.855  12.538   1.468  0.6267  1.9901 -1.7392
35045SOL     OW13912  11.263   3.899  11.135 -0.1471 -0.3045  0.7522
35045SOL    HW113913  11.283   3.914  11.043 -1.6228  0.1132  0.4662
35045SOL    HW213914  11.329   3.949  11.183 -0.5737  1.1636 -0.1260
35046SOL     OW13915  10.813   6.492   0.815 -0.2534  0.2943  0.4265
35046SOL    HW113916  10.838   6.418   0.760  1.3605  0.8044  0.4233
35046SOL    HW213917  10.787   6.452   0.898 -1.9388 -0.4224 -0.3997
35047SOL     OW13918  11.265   6.516   3.757 -0.0262  0.5253 -0.1364
35047SOL    HW113919  11.280   6.604   3.721 -1.5080  0.7858 -0.2146
35047SOL    HW213920  11.191   6.482   3.707  0.6469 -0.8624 -0.2271
35048SOL     OW13921   7.106   8.114   5.133  0.4171  0.1935 -0.1785
35048SOL    HW113922   7.132   8.061   5.208 -1.5337  1.6972  1.6864
35048SOL    HW213923   7.187   8.127   5.083  1.8768 -0.5511  1.8652
35049SOL     OW13924   3.045   3.142   1.781  0.3997  0.0834 -0.3874
35049SOL    HW113925   3.015   3.180   1.699 -1.6030 -2.8295 -1.1838
35049SOL    HW213926   2.970   3.091   1.812  1.8621 -0.7524  2.0713
35050SOL     OW13927   9.781   7.047   4.690  0.4723 -0.0385 -0.0557
35050SOL    HW113928   9.697   7.011   4.719  0.1273  1.1665  0.5316
35050SOL    HW213929   9.835   7.048   4.769  0.6149  0.3268 -0.1550
35051SOL     OW13930  10.627   8.717   3.030 -0.1441 -0.5573 -0.4232
35051SOL    HW113931  10.594   8.726   2.941 -1.6443 -0.8744  0.0705
35051SOL    HW213932  10.666   8.629   3.033  1.8361  0.2261 -1.3176
35052SOL     OW13933   4.936   4.865   5.268  0.6674 -0.8385 -0.0536
35052SOL    HW113934   5.018   4.875   5.315  1.5864  0.5339 -1.8191
35052SOL    HW213935   4.943   4.780   5.225  0.7881 -1.0893  0.4534
35053SOL     OW13936   8.074   2.496   0.016 -0.1399 -0.2667 -0.4804
35053SOL    HW113937   8.050   2.457  -0.068  1.7546  0.1507 -1.2661
35053SOL    HW213938   8.165   2.469   0.030  0.9424  2.9673 -0.5781
35054SOL     OW13939  11.071   6.569   3.943  0.3568  0.1105 -0.0412
35054SOL    HW113940  11.126   6.491   3.931 -1.6310 -1.2107 -1.2007
35054SOL    HW213941  11.123   6.627   3.999  3.7444 -0.1300 -2.6342
35055SOL     OW13942   9.600   0.653   1.873  0.2628  0.5045  0.3661
35055SOL    HW113943   9.651   0.734   1.874  0.2855  0.5856 -2.1700
35055SOL    HW213944   9.574   0.640   1.965 -0.1317  3.5925  0.7921
35056SOL     OW13945   5.201   6.665   1.272 -0.4370 -0.0142 -0.0147
35056SOL    HW113946   5.172   6.576   1.291  0.3328 -0.6006 -1.4043
35056SOL    HW213947   5.291   6.654   1.242  0.2319  1.4204  1.2917
35057SOL     OW13948  12.404   1.268   1.632  1.0075  0.0861 -0.1064
35057SOL    HW113949  12.440   1.307   1.711 -1.3021  2.0398  0.1168
35057SOL    HW213950  12.335   1.209   1.663  0.6125  0.2694 -0.6140
35058SOL     OW13951   8.059   4.105   2.368 -0.2009 -0.2399 -0.1446
35058SOL    HW113952   8.039   4.032   2.427 -0.2436 -1.7461 -1.9277
35058SOL    HW213953   7.977   4.154   2.361 -0.5329 -0.7475  0.1258
35059SOL     OW13954   4.938   0.338   6.876  0.0998  0.1609 -0.3343
35059SOL    HW113955   4.965   0.265   6.820  1.2653  0.4982 -0.2425
35059SOL    HW213956   4.927   0.411   6.816  0.4599  0.2894 -0.2524
35060SOL     OW13957   1.321   7.676   2.325  0.3729 -0.1087  0.0023
35060SOL    HW113958   1.402   7.704   2.368  0.2461 -0.4813  0.4970
35060SOL    HW213959   1.254   7.735   2.360 -0.1121 -1.6772  1.9468
35061SOL     OW13960   3.136   1.452   0.610 -0.3310  0.4414  0.2890
35061SOL    HW113961   3.105   1.475   0.698 -0.4495  0.1322  0.3298
35061SOL    HW213962   3.056   1.441   0.558 -0.2502  1.6468 -0.1318
35062SOL     OW13963   0.696   3.323   8.454  0.3876 -0.2669 -0.1856
35062SOL    HW113964   0.659   3.240   8.483  1.7663 -0.7350  0.2769
35062SOL    HW213965   0.782   3.328   8.496 -0.0525  1.8564  0.5831
35063SOL     OW13966   8.971   6.646   6.223  0.6420  0.5340 -0.5894
35063SOL    HW113967   9.064   6.627   6.212  0.6941  1.0079 -1.0731
35063SOL    HW213968   8.945   6.686   6.139  0.3719  1.8086  0.0690
35064SOL     OW13969  10.239   5.121   2.203  0.1867 -0.6740 -0.1320
35064SOL    HW113970  10.295   5.198   2.210 -1.0289  0.1574  0.7523
35064SOL    HW213971  10.271   5.062   2.271  1.4883 -1.2256 -1.1809
35065SOL     OW13972   7.615   6.128   1.024  0.6642  0.4226  0.0837
35065SOL    HW113973   7.629   6.181   1.103  1.1545  0.0690  0.2359
35065SOL    HW213974   7.664   6.174   0.956  0.7948  0.3615  0.1362
35066SOL     OW13975   6.751   5.018   9.433  0.1454 -0.1794 -0.6178
35066SOL    HW113976   6.682   5.071   9.472  1.1811  1.3474 -0.7967
35066SOL    HW213977   6.736   5.024   9.339 -0.1067 -0.7576 -0.6227
35067SOL     OW13978   0.697   2.927   0.748  0.4325  0.0566 -0.3763
35067SOL    HW113979   0.652   2.859   0.797  2.2479 -1.5084 -0.7784
35067SOL    HW213980   0.684   3.007   0.800  0.5113 -1.1162  1.5276
35068SOL     OW13981   1.129   1.566  12.592  0.5445 -0.0400 -0.0599
35068SOL    HW113982   1.217   1.529  12.598 -0.4753 -2.3599  3.7157
35068SOL    HW213983   1.072   1.490  12.581 -1.1261  1.3898 -2.1038
35069SOL     OW13984   3.109   5.553   4.002 -0.0479  0.0539  0.4792
35069SOL    HW113985   3.199   5.532   3.978 -0.5857 -1.9559  0.0901
35069SOL    HW213986   3.058   5.535   3.923 -1.0357 -0.6561  1.2548
35070SOL     OW13987   0.624   0.313   5.305 -0.1892  0.2598 -0.6774
35070SOL    HW113988   0.693   0.326   5.369 -0.5561  1.8793 -0.5677
35070SOL    HW213989   0.556   0.264   5.352  0.3474 -0.2515 -0.4222
35071SOL     OW13990   7.943   1.628   7.544 -0.0792  0.0663  0.3909
35071SOL    HW113991   7.988   1.692   7.599  1.2976 -0.1859 -0.3900
35071SOL    HW213992   7.962   1.543   7.583 -0.4180 -0.0032  0.4141
35072SOL     OW13993  11.450   8.518   4.110  0.2238  0.0893 -0.1783
35072SOL    HW113994  11.469   8.608   4.086  0.1002 -0.0490 -0.8059
35072SOL    HW213995  11.443   8.519   4.206 -0.4280  0.8682 -0.2247
35073SOL     OW13996   0.987   3.103   7.590 -0.2589 -0.3742 -0.0109
35073SOL    HW113997   1.073   3.082   7.553 -0.0362 -0.4538  0.5361
35073SOL    HW213998   1.002   3.181   7.643 -0.8428  0.5013 -1.1076
35074SOL     OW13999   2.870   8.309   5.424  0.2439 -0.4321 -0.0402
35074SOL    HW114000   2.958   8.270   5.421 -0.1597 -1.2941 -1.6541
35074SOL    HW214001   2.814   8.240   5.459 -0.1137 -0.5874 -0.8986
35075SOL     OW14002   3.202   6.323   5.710 -0.4732 -0.1531  0.5272
35075SOL    HW114003   3.233   6.408   5.680  1.2996 -0.6548  0.8363
35075SOL    HW214004   3.116   6.313   5.669 -1.4227  2.4107  1.6762
35076SOL     OW14005  10.281   8.962  11.753  0.4830 -0.1453  0.5364
35076SOL    HW114006  10.315   8.888  11.702 -1.4754 -1.0353  0.3953
35076SOL    HW214007  10.212   8.923  11.807  0.2076  1.3908  1.3474
35077SOL     OW14008  10.674  12.034   2.264 -0.3960 -0.1636 -0.2586
35077SOL    HW114009  10.764  12.057   2.239 -1.0448  2.8369 -0.2185
35077SOL    HW214010  10.684  11.979   2.342  1.3987 -0.1491 -0.4281
35078SOL     OW14011  10.337   9.090  10.493  0.1356  0.7879 -0.1729
35078SOL    HW114012  10.353   9.025  10.425 -1.7216  1.0492 -0.9197
35078SOL    HW214013  10.418   9.141  10.498  0.7587 -0.0592 -1.2571
35079SOL     OW14014   8.485   2.096   8.500  0.6356  0.6456 -0.1124
35079SOL    HW114015   8.477   2.043   8.421  2.4512  1.2823 -0.7848
35079SOL    HW214016   8.397   2.131   8.515  0.1038 -0.0346 -1.4481
35080SOL     OW14017  12.559  12.396   2.645 -0.0454 -0.4209 -0.0891
35080SOL    HW114018  12.567  12.345   2.564  0.5141  0.1158 -0.3793
35080SOL    HW214019  12.512  12.339   2.705  2.8889 -2.3999  0.5350
35081SOL     OW14020   7.793   0.358   4.475 -0.5642  0.3547 -0.5848
35081SOL    HW114021   7.811   0.446   4.441 -0.7320 -0.1548 -2.0584
35081SOL    HW214022   7.825   0.299   4.407  1.3673 -0.8202  1.2236
35082SOL     OW14023  10.416   1.405   8.093  0.5950 -0.2763 -0.3555
35082SOL    HW114024  10.436   1.314   8.117  0.6987 -0.4416 -1.0519
35082SOL    HW214025  10.323   1.415   8.116 -0.0174 -1.2259 -2.1729
35083SOL     OW14026   1.044  11.705   2.120  0.5441 -0.0735 -0.4725
35083SOL    HW114027   0.972  11.760   2.088  1.1440  0.1315 -1.5151
35083SOL    HW214028   1.042  11.715   2.215 -0.9177 -0.2105 -0.4622
35084SOL     OW14029   0.993   6.992   5.523  0.2635  0.0003  0.5199
35084SOL    HW114030   0.918   6.950   5.482  0.9482 -0.2131 -0.5605
35084SOL    HW214031   1.005   7.074   5.474  0.0400  0.5915  1.4326
35085SOL     OW14032   4.254   8.983   1.424  0.3120 -0.3037  0.6808
35085SOL    HW114033   4.335   8.972   1.374  1.5269  0.0631  2.4669
35085SOL    HW214034   4.190   9.013   1.360  2.0341  1.0716 -0.4942
35086SOL     OW14035   8.695   9.347   2.892 -0.2407  0.2535 -0.2539
35086SOL    HW114036   8.603   9.371   2.884 -0.6069 -0.9968 -0.1140
35086SOL    HW214037   8.693   9.261   2.936  0.8912 -0.6130 -1.8072
35087SOL     OW14038   9.224  11.564  11.248  0.0206  0.2783  0.4696
35087SOL    HW114039   9.219  11.622  11.324  0.1248 -0.4978  1.0852
35087SOL    HW214040   9.155  11.595  11.189 -1.8300 -0.6659  2.0052
35088SOL     OW14041   8.338   5.807   1.153 -0.1202  0.1371 -0.2900
35088SOL    HW114042   8.249   5.773   1.159  0.2577 -0.9345 -0.5661
35088SOL    HW214043   8.375   5.763   1.077  0.5634  0.7884 -0.3440
35089SOL     OW14044   3.543   1.390  10.119  0.0508 -0.1024 -0.3119
35089SOL    HW114045   3.601   1.454  10.158 -0.5437  0.6919 -0.6929
35089SOL    HW214046   3.588   1.306  10.130  1.3413  0.5090 -0.7595
35090SOL     OW14047   4.173   2.580   7.974  0.2978  0.0710 -0.5002
35090SOL    HW114048   4.118   2.509   7.939 -2.5315  0.5884  2.3595
35090SOL    HW214049   4.151   2.656   7.920 -0.4314 -0.1735 -0.5649
35091SOL     OW14050   8.013   8.544   0.622 -0.5347  0.3088  0.3952
35091SOL    HW114051   8.083   8.609   0.621 -0.6834  0.6053  2.7660
35091SOL    HW214052   8.029   8.493   0.702 -2.3044 -0.4264  0.3256
35092SOL     OW14053  10.416   1.857   1.953 -0.0902  0.4746  0.7163
35092SOL    HW114054  10.490   1.808   1.917 -0.3172  1.3769 -1.1229
35092SOL    HW214055  10.341   1.826   1.903 -0.7380  0.5494  1.6277
35093SOL     OW14056   3.453   3.266   6.608  0.4366  0.1426  0.6338
35093SOL    HW114057   3.393   3.250   6.535  0.4387 -1.1326  0.8914
35093SOL    HW214058   3.407   3.331   6.662 -0.5373 -0.4909  0.6069
35094SOL     OW14059  11.231   6.385  12.069 -0.6773 -0.0071  0.4109
35094SOL    HW114060  11.237   6.349  12.158 -0.9178  1.0730  0.8864
35094SOL    HW214061  11.165   6.331  12.026  0.5218 -1.5301  0.3671
35095SOL     OW14062  10.711   0.440   2.113 -0.0199  0.2201 -0.6813
35095SOL    HW114063  10.635   0.395   2.077  0.2982 -0.6385 -0.3178
35095SOL    HW214064  10.710   0.418   2.206  1.3273 -0.8186 -0.8737
35096SOL     OW14065   4.369   7.501   7.619 -0.4755 -0.5002  0.2379
35096SOL    HW114066   4.379   7.517   7.713 -0.7689 -0.7056  0.3061
35096SOL    HW214067   4.305   7.567   7.591  0.7751  0.6007 -0.1319
35097SOL     OW14068  11.669   9.184  10.132 -0.6472 -0.0045  0.0275
35097SOL    HW114069  11.578   9.160  10.150 -0.9378  0.5415 -0.6535
35097SOL    HW214070  11.694   9.241  10.204 -1.7093  1.9576 -1.0739
35098SOL     OW14071   5.579   7.173   4.005  0.5201 -0.0411  0.1260
35098SOL    HW114072   5.664   7.173   4.051 -0.0192  0.6876  1.1711
35098SOL    HW214073   5.541   7.259   4.027 -0.6862 -0.5415  0.0396
35099SOL     OW14074   6.901   5.774   0.570 -0.3866 -0.7504 -0.2513
35099SOL    HW114075   6.826   5.716   0.552  0.1628 -1.7374  0.5963
35099SOL    HW214076   6.865   5.862   0.557 -0.9424 -1.2556 -2.7140
35100SOL     OW14077   2.039   9.100   0.147  0.4779  0.2671 -0.5828
35100SOL    HW114078   1.952   9.060   0.144  0.8961 -0.6563 -0.5739
35100SOL    HW214079   2.071   9.096   0.057  1.9579 -2.7103 -0.0326
35101SOL     OW14080   5.440   4.378   6.187 -0.1174 -0.3561 -0.1872
35101SOL    HW114081   5.451   4.307   6.250  1.0944  0.3802  0.4489
35101SOL    HW214082   5.467   4.456   6.233 -1.0383  0.4824 -1.0180
35102SOL     OW14083   4.099  11.771   8.206 -0.2641 -0.2834 -0.0672
35102SOL    HW114084   4.184  11.734   8.231 -1.2713 -0.5536  3.6644
35102SOL    HW214085   4.038  11.698   8.216 -1.2701  0.5163 -0.2275
35103SOL     OW14086   4.367   4.695   9.085  0.5342  0.6402  0.2452
35103SOL    HW114087   4.350   4.617   9.139 -1.7055  1.0283  0.1768
35103SOL    HW214088   4.400   4.660   9.002 -0.5066 -0.2532  0.1883
35104SOL     OW14089   3.515   5.099   5.074  0.5189  0.1165 -0.1242
35104SOL    HW114090   3.464   5.178   5.057  0.8110  0.1785 -0.7376
35104SOL    HW214091   3.489   5.039   5.003 -0.9544 -0.9645  1.2467
35105SOL     OW14092  10.127   1.209   4.730 -0.1845 -0.1244  0.0896
35105SOL    HW114093  10.039   1.236   4.707 -0.8110 -1.2306  1.0690
35105SOL    HW214094  10.133   1.225   4.824  0.6685 -0.0250  0.0241
35106SOL     OW14095   8.618   2.978   8.239 -0.5618 -0.2202 -0.3136
35106SOL    HW114096   8.648   2.895   8.274 -0.9032 -0.4578 -0.5777
35106SOL    HW214097   8.680   2.999   8.169 -1.3413 -1.0077 -1.2620
35107SOL     OW14098  12.343  10.273   8.926 -0.2576  0.0870 -0.3067
35107SOL    HW114099  12.287  10.342   8.961 -1.0361 -0.0085 -1.3262
35107SOL    HW214100  12.425  10.318   8.902 -0.1120  0.3319  0.6243
35108SOL     OW14101   5.864  10.841   2.567  0.5069 -0.1142 -0.4752
35108SOL    HW114102   5.866  10.754   2.606  1.2779 -1.1673 -2.6869
35108SOL    HW214103   5.855  10.901   2.641  3.4668 -1.8337  1.4646
35109SOL     OW14104   2.002  12.425   6.387  0.2008  0.5528 -0.5050
35109SOL    HW114105   2.029  12.334   6.378  1.9077  0.8105  1.3818
35109SOL    HW214106   2.051  12.471   6.319  1.1904  0.3851  0.0833
35110SOL     OW14107   5.231   0.705  10.066  0.2743 -0.3965  0.0641
35110SOL    HW114108   5.250   0.700  10.160  2.6741 -0.7514 -0.3567
35110SOL    HW214109   5.244   0.615  10.035 -0.1131 -0.2044 -0.6604
35111SOL     OW14110   5.316   7.338   9.200 -0.8055 -0.0476  0.6451
35111SOL    HW114111   5.285   7.429   9.194 -2.2282 -0.5354  0.0633
35111SOL    HW214112   5.359   7.333   9.286 -1.5974  0.9286  1.1270
35112SOL     OW14113   0.496   4.869   4.887 -0.4256  0.4867  0.0682
35112SOL    HW114114   0.523   4.852   4.977 -0.0044  1.6825  0.1965
35112SOL    HW214115   0.487   4.965   4.883 -1.2446  0.3814 -0.9352
35113SOL     OW14116   6.086   9.206  10.855 -0.0230  0.4591 -0.3233
35113SOL    HW114117   6.026   9.260  10.804  1.1002  1.2638 -0.8185
35113SOL    HW214118   6.168   9.254  10.855  0.4380 -0.2699  0.9630
35114SOL     OW14119   5.993   2.105   1.931  0.0967 -0.0954  0.2579
35114SOL    HW114120   6.071   2.120   1.878 -0.1116 -0.0813 -0.0463
35114SOL    HW214121   5.940   2.044   1.880 -0.8331  1.1284 -0.2880
35115SOL     OW14122   9.171   1.409   4.887  0.3945 -0.1555 -0.1709
35115SOL    HW114123   9.086   1.413   4.930  0.7276  2.7535  0.3961
35115SOL    HW214124   9.152   1.371   4.801 -1.4472  0.2588 -0.0008
35116SOL     OW14125   1.253   2.939   8.497  0.4506 -0.1082  0.1769
35116SOL    HW114126   1.307   2.980   8.429  2.1216 -0.3051  1.3115
35116SOL    HW214127   1.265   2.995   8.573 -1.9849  0.5298  0.1831
35117SOL     OW14128   7.986   6.933   8.643  0.5946  0.2132  0.2367
35117SOL    HW114129   7.940   6.929   8.727 -1.1429  0.6287 -0.6421
35117SOL    HW214130   8.062   6.875   8.654 -0.2691 -0.7095  1.6761
35118SOL     OW14131   6.371   3.077  10.686  0.1628  0.2980  0.8895
35118SOL    HW114132   6.445   3.132  10.660 -0.0214  0.2670  0.2918
35118SOL    HW214133   6.337   3.119  10.765 -2.2731  3.2863 -1.4821
35119SOL     OW14134   0.635   8.063   7.396  0.1293  0.4636  0.3674
35119SOL    HW114135   0.681   8.078   7.478 -0.3038  0.6678  0.5768
35119SOL    HW214136   0.542   8.074   7.418  0.0863  2.5693 -0.5645
35120SOL     OW14137   9.957  10.470   8.188 -0.1324  0.3038 -0.3650
35120SOL    HW114138   9.999  10.509   8.264  0.0277 -1.6131  0.5822
35120SOL    HW214139   9.869  10.448   8.218 -0.0910 -0.4040 -0.7594
35121SOL     OW14140  12.463   8.657  10.517  0.1700  0.0989 -0.0482
35121SOL    HW114141  12.475   8.601  10.594  1.8813 -0.3092 -0.5530
35121SOL    HW214142  12.443   8.743  10.552 -0.2555 -0.3446  0.8177
35122SOL     OW14143   4.448   3.530   8.363 -0.8169 -0.2947 -0.2063
35122SOL    HW114144   4.432   3.489   8.448 -0.0253  0.1780  0.1750
35122SOL    HW214145   4.469   3.621   8.383 -3.7167  0.7006 -1.0849
35123SOL     OW14146  11.395  10.100  10.953 -0.2747 -0.0424  0.3353
35123SOL    HW114147  11.412  10.194  10.951  1.4054 -0.3255 -0.8324
35123SOL    HW214148  11.301  10.093  10.968 -0.8721  1.8802 -1.9411
35124SOL     OW14149   1.364  11.487   3.415 -1.0487 -0.4400  0.2961
35124SOL    HW114150   1.321  11.570   3.436 -0.1031  0.0121  0.4862
35124SOL    HW214151   1.455  11.510   3.398 -0.9332 -1.3367 -0.4297
35125SOL     OW14152  11.071   1.653   7.929  0.1385 -0.3577  0.1291
35125SOL    HW114153  11.115   1.738   7.926 -1.4067  0.4670 -0.1932
35125SOL    HW214154  11.079   1.619   7.840  2.0947 -1.2915  0.6241
35126SOL     OW14155  11.627   8.124   0.371 -0.6584 -0.5216 -0.2596
35126SOL    HW114156  11.552   8.077   0.406 -1.3941  0.9928  0.2764
35126SOL    HW214157  11.608   8.135   0.278 -0.5999 -1.0451 -0.3355
35127SOL     OW14158   6.138   0.388   6.687  0.1023 -0.8445  0.3670
35127SOL    HW114159   6.218   0.425   6.726  1.1826  0.2671 -2.5742
35127SOL    HW214160   6.166   0.305   6.650  0.1364 -0.1687 -1.2177
35128SOL     OW14161  11.041   8.671   5.448 -0.6536 -0.1414 -0.3059
35128SOL    HW114162  11.062   8.634   5.534  0.2074  1.5826  0.2637
35128SOL    HW214163  11.081   8.611   5.385  0.4651 -0.3368  0.5737
35129SOL     OW14164   8.857   2.572  10.427 -0.2448  0.0825 -0.2433
35129SOL    HW114165   8.785   2.584  10.365 -0.8298  0.6276  0.5117
35129SOL    HW214166   8.814   2.538  10.506  0.6627 -1.9333 -0.5586
35130SOL     OW14167  10.571   5.881   0.798 -0.6296  0.1862  0.7942
35130SOL    HW114168  10.647   5.842   0.840  0.8164  0.0609 -1.7293
35130SOL    HW214169  10.586   5.975   0.803  1.0358  0.1684 -1.7090
35131SOL     OW14170   8.530   8.223   4.858 -0.2023 -0.0653 -0.2820
35131SOL    HW114171   8.471   8.295   4.839 -0.5047 -0.4731 -0.9099
35131SOL    HW214172   8.614   8.264   4.877 -0.6476  0.5167  0.5109
35132SOL     OW14173   6.001   5.079   3.952 -0.4747  0.4277  0.1676
35132SOL    HW114174   6.048   5.141   4.008 -0.1763  0.7288 -0.4057
35132SOL    HW214175   5.924   5.126   3.921 -0.4954  0.3577  0.1104
35133SOL     OW14176   3.734  12.321   8.055  0.1696 -0.0955  0.0015
35133SOL    HW114177   3.784  12.239   8.053  0.7934  0.2817 -2.3589
35133SOL    HW214178   3.801  12.389   8.057 -0.3245  0.3928  0.0456
35134SOL     OW14179   3.176  10.572   6.314 -0.3347  0.6156 -0.0776
35134SOL    HW114180   3.115  10.569   6.387 -0.6211 -1.5392 -0.3323
35134SOL    HW214181   3.261  10.590   6.354 -0.6846  0.7410  0.6238
35135SOL     OW14182  11.620   2.422  11.759 -0.2901  0.1119 -0.0876
35135SOL    HW114183  11.554   2.490  11.745 -0.1942  0.2714  0.2188
35135SOL    HW214184  11.632   2.382  11.673 -1.6795 -0.7395  0.0744
35136SOL     OW14185  11.679   0.467   2.424 -0.4661  0.4535 -0.5784
35136SOL    HW114186  11.698   0.395   2.365  1.2184  0.2463  0.1560
35136SOL    HW214187  11.705   0.546   2.377  1.4093  0.2465  0.0399
35137SOL     OW14188   6.209   6.801   0.758 -0.2200  0.3748 -0.1441
35137SOL    HW114189   6.290   6.848   0.776  0.5344  0.0477 -2.3157
35137SOL    HW214190   6.139   6.861   0.784  0.6466  0.4531  2.2883
35138SOL     OW14191   7.134   1.642   2.721 -0.4549  0.1516  0.0146
35138SOL    HW114192   7.108   1.561   2.765  0.6770  0.2477  0.8902
35138SOL    HW214193   7.188   1.613   2.648  0.7196  0.1401  0.8707
35139SOL     OW14194   7.045  11.768   2.498  0.0665  0.1127 -0.2247
35139SOL    HW114195   7.060  11.863   2.500 -0.2215  0.1489  0.3358
35139SOL    HW214196   6.952  11.759   2.479 -0.1544 -0.0350  0.8785
35140SOL     OW14197   3.781  10.345   9.859 -0.8277  0.0967 -0.2772
35140SOL    HW114198   3.715  10.333   9.791 -2.1464  1.5525  0.6951
35140SOL    HW214199   3.833  10.420   9.829  0.2990 -0.9072 -0.9312
35141SOL     OW14200  11.621   8.934   4.832  0.8151  0.4167 -0.3185
35141SOL    HW114201  11.575   9.011   4.865 -0.7220 -0.4127 -0.4187
35141SOL    HW214202  11.633   8.951   4.738  2.0966  1.2808 -0.0225
35142SOL     OW14203   7.785   3.401   2.747  0.3189 -0.1939 -0.8935
35142SOL    HW114204   7.874   3.398   2.782 -0.8904  0.3759  2.7017
35142SOL    HW214205   7.758   3.310   2.742  0.2625 -0.3084  0.7243
35143SOL     OW14206   9.199   1.256   8.926 -0.1032 -0.1117 -0.1401
35143SOL    HW114207   9.209   1.349   8.906 -0.4748 -0.7491 -4.0716
35143SOL    HW214208   9.282   1.231   8.965  0.3300  1.6818  0.1680
35144SOL     OW14209   3.404   6.276  10.796 -0.4811  0.4728  0.2093
35144SOL    HW114210   3.486   6.248  10.837 -0.2301 -0.3739 -0.8395
35144SOL    HW214211   3.424   6.360  10.756 -0.3810  0.6989  0.7221
35145SOL     OW14212   5.107   6.064   6.996  0.1732 -0.1331  0.4691
35145SOL    HW114213   5.128   6.155   7.019 -1.8717  0.5601 -0.1348
35145SOL    HW214214   5.180   6.013   7.031  1.8835  1.8164 -0.0163
35146SOL     OW14215   7.134   2.653   5.016 -0.5030 -0.0982 -0.2234
35146SOL    HW114216   7.182   2.593   4.959  0.5373  0.6845 -0.1901
35146SOL    HW214217   7.200   2.712   5.051 -0.9192 -1.2007  2.6659
35147SOL     OW14218   0.835   2.724  10.291  0.0912  0.2185 -0.6537
35147SOL    HW114219   0.825   2.660  10.362 -0.5746 -0.3473 -1.2535
35147SOL    HW214220   0.746   2.746  10.265  0.1112  3.8020  1.6117
35148SOL     OW14221   2.181  10.506  11.365  0.1754  0.2978  0.6303
35148SOL    HW114222   2.178  10.481  11.273 -0.4009  0.7720  0.5174
35148SOL    HW214223   2.160  10.599  11.366  2.1372  0.7817  1.0520
35149SOL     OW14224   2.414   7.404   1.089 -0.6174 -0.6019  0.2677
35149SOL    HW114225   2.465   7.468   1.140  0.0099 -0.3559 -0.6414
35149SOL    HW214226   2.441   7.420   0.998 -1.8317 -0.9259 -0.1565
35150SOL     OW14227   6.430   9.272   2.934 -0.6972 -0.0573  0.1390
35150SOL    HW114228   6.459   9.337   2.870  1.7093 -1.0120  0.1319
35150SOL    HW214229   6.512   9.233   2.966 -2.0133 -2.4221  0.8304
35151SOL     OW14230  10.659   8.448   3.877 -0.3089 -0.0861  0.2621
35151SOL    HW114231  10.657   8.355   3.897 -3.5377 -0.0752  0.4803
35151SOL    HW214232  10.662   8.492   3.962 -0.6598 -0.0139  0.2404
35152SOL     OW14233   3.928  12.085   9.666  0.0910  0.3107  0.0241
35152SOL    HW114234   3.897  12.101   9.577 -0.9104 -0.2711  0.2559
35152SOL    HW214235   3.996  12.018   9.656  1.2936  1.5579 -0.4828
35153SOL     OW14236   5.918   0.748   9.721  0.2232  0.2105 -0.2249
35153SOL    HW114237   5.854   0.681   9.697  1.9489 -1.2870 -0.8754
35153SOL    HW214238   5.875   0.799   9.790 -2.3476  0.4621 -1.8752
35154SOL     OW14239  11.069   6.109   3.931  0.0170 -0.1696  0.3115
35154SOL    HW114240  10.975   6.092   3.929 -1.1156  4.4273 -2.1886
35154SOL    HW214241  11.086   6.142   4.019 -1.2763  0.9144  0.1924
35155SOL     OW14242   1.059  10.668   1.955  0.2287 -0.0398 -0.3786
35155SOL    HW114243   1.056  10.709   1.869 -1.9211  1.1484  0.1932
35155SOL    HW214244   0.972  10.629   1.967  0.0600  0.8011  1.6618
35156SOL     OW14245   4.049   1.698   4.601 -0.1057  0.0754  0.5680
35156SOL    HW114246   4.067   1.705   4.695  0.5467 -1.4659  0.5785
35156SOL    HW214247   3.954   1.689   4.596 -0.2078  0.7707  1.0195
35157SOL     OW14248   4.496  11.510   6.991  0.1987 -0.1886 -0.0430
35157SOL    HW114249   4.523  11.538   7.078  0.5684 -3.9631  1.2437
35157SOL    HW214250   4.578  11.497   6.944  0.0362  0.7016 -0.6006
35158SOL     OW14251   1.436  12.330   1.163 -0.4417 -0.0396 -0.0882
35158SOL    HW114252   1.455  12.280   1.084  0.7550  0.1741  0.0391
35158SOL    HW214253   1.522  12.347   1.202 -0.9492  0.5840  0.8097
35159SOL     OW14254   3.169   7.219   0.698 -0.1627  0.3269  0.3330
35159SOL    HW114255   3.139   7.309   0.682  0.6478  0.7535  1.1527
35159SOL    HW214256   3.255   7.214   0.656 -0.1883 -0.0538  0.3231
35160SOL     OW14257   3.674   4.667   3.773 -0.1472 -0.2543  0.6694
35160SOL    HW114258   3.595   4.638   3.727 -0.5434  0.4806  0.8664
35160SOL    HW214259   3.654   4.653   3.865  0.4379 -1.2201  0.6585
35161SOL     OW14260  11.356   4.947   3.562 -0.2072  0.6285  0.4197
35161SOL    HW114261  11.384   5.038   3.547 -0.3676  0.9291  1.8105
35161SOL    HW214262  11.436   4.902   3.590 -0.2975  0.5404  0.5358
35162SOL     OW14263   4.595   1.406   7.581  0.1568 -0.2530 -0.1573
35162SOL    HW114264   4.555   1.334   7.532  2.2432 -0.9185 -0.9942
35162SOL    HW214265   4.525   1.470   7.592 -1.0956 -1.3232 -1.6107
35163SOL     OW14266   5.181   9.343   8.496  0.4486 -0.5246 -0.1951
35163SOL    HW114267   5.172   9.425   8.544  0.6525  0.7951 -2.2457
35163SOL    HW214268   5.274   9.322   8.503  0.7981  0.5196 -1.2289
35164SOL     OW14269   7.991   7.614  10.543 -0.3531  0.1345  0.4628
35164SOL    HW114270   8.005   7.696  10.591 -0.9139  0.1144  0.6681
35164SOL    HW214271   7.896   7.605  10.539 -0.2968 -0.3029  0.0884
35165SOL     OW14272   4.859   5.193   0.569 -0.1136 -0.2681  0.3334
35165SOL    HW114273   4.820   5.114   0.609  0.3139 -0.3492  0.5984
35165SOL    HW214274   4.948   5.167   0.547 -0.4309 -0.3070 -0.9486
35166SOL     OW14275   7.492   5.012   6.008 -0.1867 -0.1456  0.1027
35166SOL    HW114276   7.564   4.950   6.015  0.5484  0.7265  0.3801
35166SOL    HW214277   7.532   5.098   6.018 -1.2347  0.3719  0.0632
35167SOL     OW14278   3.736   7.595   0.479  0.5812 -0.3116 -0.4801
35167SOL    HW114279   3.722   7.681   0.438 -1.0023 -0.1642  0.3115
35167SOL    HW214280   3.694   7.602   0.564  1.8006 -1.3910  0.2359
35168SOL     OW14281   3.529   7.864   8.084 -0.0485  0.4780 -0.5492
35168SOL    HW114282   3.567   7.893   8.168 -1.0935  1.1292 -0.2891
35168SOL    HW214283   3.510   7.771   8.098 -1.0415  0.7890  0.2582
35169SOL     OW14284   0.852   5.939   3.705 -0.0552  1.0816 -0.2141
35169SOL    HW114285   0.891   5.977   3.784 -1.4099 -0.7240  1.4176
35169SOL    HW214286   0.761   5.922   3.730 -0.3367 -0.1646 -1.9527
35170SOL     OW14287   5.381   1.924   1.899 -0.2093  0.4472 -0.2646
35170SOL    HW114288   5.359   1.858   1.965  0.2233 -0.2278 -0.7820
35170SOL    HW214289   5.457   1.969   1.935 -0.4060  0.5579  0.0172
35171SOL     OW14290   0.374   5.372   0.314  0.1923 -0.8587  0.4755
35171SOL    HW114291   0.371   5.281   0.344 -0.1498 -0.9037  0.3080
35171SOL    HW214292   0.283   5.401   0.318  0.5607  0.1932  2.7284
35172SOL     OW14293   9.332  12.024   1.122 -0.3181 -0.1187  0.1122
35172SOL    HW114294   9.249  12.028   1.169 -1.1061 -1.2948 -1.0935
35172SOL    HW214295   9.397  12.003   1.190 -1.2643 -0.8173  0.8340
35173SOL     OW14296   6.571   5.707   7.468 -0.2736 -0.3060 -0.0639
35173SOL    HW114297   6.495   5.737   7.417 -2.0705 -0.9362  2.0982
35173SOL    HW214298   6.628   5.784   7.473 -2.0212  1.0294  0.4317
35174SOL     OW14299  10.244  11.640  10.597  0.5505  0.5344  0.1075
35174SOL    HW114300  10.154  11.611  10.585  0.6199 -0.3953  1.5639
35174SOL    HW214301  10.273  11.666  10.509 -1.3034  1.4329 -0.2895
35175SOL     OW14302   9.873   0.734   7.861  0.2975  0.2929  0.1179
35175SOL    HW114303   9.821   0.665   7.901 -0.3106 -0.6709 -2.1839
35175SOL    HW214304   9.939   0.688   7.809 -0.1462  1.3929 -1.4983
35176SOL     OW14305   3.519   2.149   4.055  0.2322  0.5675  0.6427
35176SOL    HW114306   3.443   2.190   4.096 -1.6810 -0.5320 -1.5801
35176SOL    HW214307   3.532   2.068   4.105  0.1706  0.9026  1.2187
35177SOL     OW14308  11.555   4.619   1.517  0.5808  0.3082  0.2564
35177SOL    HW114309  11.560   4.575   1.602  1.1099 -1.5494 -0.6979
35177SOL    HW214310  11.609   4.566   1.458 -2.2400 -0.3035 -2.0087
35178SOL     OW14311   2.974   9.318   5.531 -0.2342 -0.4026 -0.2497
35178SOL    HW114312   2.923   9.302   5.610  0.3156 -1.0159 -0.0140
35178SOL    HW214313   2.954   9.243   5.474 -1.1670  0.3725 -0.9924
35179SOL     OW14314   9.255   7.289   6.206 -0.4815 -0.1377  0.3599
35179SOL    HW114315   9.345   7.267   6.230 -0.2327  0.4779 -0.0116
35179SOL    HW214316   9.259   7.377   6.170 -0.9095 -0.8352 -1.5290
35180SOL     OW14317   5.443   0.026   8.480  0.1649 -0.3535 -0.2167
35180SOL    HW114318   5.438   0.041   8.386 -0.6334  1.2957  0.0458
35180SOL    HW214319   5.384  -0.048   8.496 -0.3458 -0.1111 -0.9259
35181SOL     OW14320  10.511   4.295   4.191 -0.0302 -0.7202 -0.3693
35181SOL    HW114321  10.419   4.287   4.166  0.6159 -0.4528 -3.1147
35181SOL    HW214322  10.534   4.386   4.173  0.1767 -0.0173  2.8395
35182SOL     OW14323   0.563   0.610   2.887 -0.8447  0.1837  0.9824
35182SOL    HW114324   0.556   0.554   2.810 -0.9704  0.5916  0.6927
35182SOL    HW214325   0.603   0.554   2.954 -0.1187  0.0154  0.4256
35183SOL     OW14326  12.070   7.778   6.389 -0.0661  0.0967  0.1989
35183SOL    HW114327  12.034   7.693   6.414 -0.9929  0.7237  1.0909
35183SOL    HW214328  12.158   7.778   6.427 -0.5821  0.0797  1.4601
35184SOL     OW14329  10.167   6.462   7.395 -0.2968  0.0959  0.5857
35184SOL    HW114330  10.203   6.386   7.440 -2.1540  0.6490  3.1884
35184SOL    HW214331  10.227   6.534   7.417 -0.7403  0.1917  1.4879
35185SOL     OW14332   5.052   5.927   5.985 -0.5890  0.0034  0.2135
35185SOL    HW114333   5.040   6.020   5.968  1.0869  0.1770 -0.2008
35185SOL    HW214334   4.994   5.884   5.923 -2.8656  0.7380  1.7051
35186SOL     OW14335   5.451  12.450   4.546 -0.3559  0.4730 -0.2446
35186SOL    HW114336   5.375  12.392   4.546  0.9080 -1.4033  2.5627
35186SOL    HW214337   5.450  12.490   4.459 -3.6567 -0.5820 -0.8589
35187SOL     OW14338   5.268  12.428  12.339  0.4123  0.2689 -0.3098
35187SOL    HW114339   5.290  12.335  12.353  1.8448  0.6995  0.4928
35187SOL    HW214340   5.275  12.440  12.245  0.9665 -0.2719 -0.3500
35188SOL     OW14341   7.037   5.894   1.296 -0.8759  0.1965 -0.0170
35188SOL    HW114342   6.953   5.928   1.264 -1.5869 -1.7623 -0.3591
35188SOL    HW214343   7.084   5.868   1.216  0.7085  2.5072  0.0482
35189SOL     OW14344   3.758  10.506   3.513 -0.4376 -0.5994 -0.3850
35189SOL    HW114345   3.719  10.421   3.491  0.8770 -1.1442 -0.7472
35189SOL    HW214346   3.850  10.497   3.486  0.4533 -0.0757  2.1480
35190SOL     OW14347   1.099   1.842   8.896 -0.4140 -0.5093  0.1706
35190SOL    HW114348   1.059   1.837   8.809  0.8618 -0.7753 -0.4281
35190SOL    HW214349   1.191   1.821   8.881  0.3288  1.6742  1.2168
35191SOL     OW14350  11.162   8.357   0.013  0.0016 -0.0301 -0.4658
35191SOL    HW114351  11.134   8.449   0.011  2.2637  0.7946  1.5279
35191SOL    HW214352  11.178   8.335  -0.079 -0.5086  1.5924 -0.9805
35192SOL     OW14353   5.647  11.808  11.859 -0.2847 -0.1167  0.0200
35192SOL    HW114354   5.631  11.805  11.954 -0.1529 -0.3438  0.0366
35192SOL    HW214355   5.577  11.863  11.824 -0.7210 -0.5709  0.1688
35193SOL     OW14356   5.103   0.560   6.244 -0.2949  0.1510  0.0516
35193SOL    HW114357   5.187   0.516   6.257 -1.1305 -1.3743  0.4821
35193SOL    HW214358   5.112   0.643   6.291  1.5123  0.7556 -1.2420
35194SOL     OW14359  10.427   8.595   1.185  0.2974  0.1201 -0.0886
35194SOL    HW114360  10.418   8.546   1.266 -0.2162  0.9783  0.3979
35194SOL    HW214361  10.483   8.541   1.130  1.9082  0.1872  1.3884
35195SOL     OW14362   2.472  10.219   3.662 -0.2996  0.2523 -0.1330
35195SOL    HW114363   2.479  10.300   3.613 -0.6633  0.2702 -0.1589
35195SOL    HW214364   2.401  10.234   3.724 -2.8076 -1.1861 -2.4083
35196SOL     OW14365   9.741   2.184   3.656  0.0280  0.0036  0.2090
35196SOL    HW114366   9.739   2.134   3.738  2.6141  0.8361  0.8910
35196SOL    HW214367   9.816   2.150   3.609  0.8998  2.0850 -0.0356
35197SOL     OW14368   0.819   3.860   2.384 -0.5126 -0.0916  1.0812
35197SOL    HW114369   0.869   3.806   2.323 -0.0319  1.2003  0.2809
35197SOL    HW214370   0.884   3.914   2.428 -1.1196  1.2501  0.3891
35198SOL     OW14371   4.929  12.411   9.165  0.1691 -0.2685 -0.0269
35198SOL    HW114372   4.991  12.346   9.199 -0.9615 -0.8251  1.0556
35198SOL    HW214373   4.970  12.495   9.184  0.9655 -0.6307 -0.0853
35199SOL     OW14374  12.475  11.208   4.358 -0.0431 -0.6062  0.0760
35199SOL    HW114375  12.390  11.228   4.398  0.2856  2.3194 -0.4336
35199SOL    HW214376  12.483  11.271   4.286  2.7615 -0.4101  0.4414
35200SOL     OW14377   6.270   3.075   1.444 -0.2956 -0.4017 -0.1166
35200SOL    HW114378   6.183   3.041   1.466 -0.3879 -0.0701  0.0385
35200SOL    HW214379   6.273   3.161   1.486  0.5414 -0.8791  0.8580
35201SOL     OW14380   7.529   5.209   3.105  0.2038 -0.1889  0.0821
35201SOL    HW114381   7.514   5.117   3.128  2.3266 -0.3939  0.9298
35201SOL    HW214382   7.485   5.258   3.174 -0.6226 -0.5841 -0.1612
35202SOL     OW14383  11.870   3.039   1.048 -0.1986  0.2356 -0.4115
35202SOL    HW114384  11.939   2.982   1.080  0.8630  0.6394 -1.8295
35202SOL    HW214385  11.789   2.990   1.061  0.3296 -0.2480  1.2988
35203SOL     OW14386   2.541   7.492  11.428  0.1309 -0.1073  0.0144
35203SOL    HW114387   2.635   7.511  11.433  0.2881 -0.3121 -1.7344
35203SOL    HW214388   2.502   7.547  11.496  1.5888 -0.6605  1.3629
35204SOL     OW14389   0.514   8.479   4.942 -0.0160 -0.0978 -0.2832
35204SOL    HW114390   0.506   8.443   5.030  0.8959  0.9068  0.2484
35204SOL    HW214391   0.456   8.556   4.942  1.1263  0.7994 -0.0203
35205SOL     OW14392   3.960   1.253   1.022 -0.0829  0.6612  0.1281
35205SOL    HW114393   3.979   1.175   0.970  0.9081  0.3107  0.9762
35205SOL    HW214394   3.873   1.237   1.059  0.6825 -0.7180  1.4401
35206SOL     OW14395   2.323   3.467  11.081  0.0583  0.1232 -0.3835
35206SOL    HW114396   2.318   3.386  11.031 -0.8354  0.5073 -0.9519
35206SOL    HW214397   2.284   3.533  11.023  0.2263  0.8367  0.2992
35207SOL     OW14398   2.243  11.472   3.121 -0.2921 -0.5770 -0.7564
35207SOL    HW114399   2.253  11.535   3.192  1.5976 -0.2245 -1.2764
35207SOL    HW214400   2.155  11.489   3.087 -0.4120  0.7198  0.1006
35208SOL     OW14401   3.402   3.630  10.139 -0.2818  0.3795 -0.1169
35208SOL    HW114402   3.311   3.607  10.155 -0.4765 -0.8524 -2.5914
35208SOL    HW214403   3.412   3.625  10.044  2.8019 -1.3947  0.1592
35209SOL     OW14404   4.466  11.581   4.207 -0.2051 -0.0597 -0.7543
35209SOL    HW114405   4.404  11.604   4.276  0.1663 -1.2950  0.0333
35209SOL    HW214406   4.552  11.586   4.249  0.2009  1.1339 -1.6907
35210SOL     OW14407   2.751   9.531   5.623  0.1381 -0.1972 -0.4892
35210SOL    HW114408   2.701   9.608   5.649  2.0732  1.2429 -0.8508
35210SOL    HW214409   2.830   9.533   5.677 -0.1254 -2.4050  0.0687
35211SOL     OW14410   5.349  12.406  10.259 -0.0160 -0.4033  0.0728
35211SOL    HW114411   5.429  12.430  10.304 -1.3143  2.7145  0.9746
35211SOL    HW214412   5.319  12.327  10.304  2.3084 -1.4719 -0.1046
35212SOL     OW14413   4.658  10.978   7.023 -0.3510 -0.6154  0.8598
35212SOL    HW114414   4.744  10.940   7.006  0.0316 -0.0838  1.5374
35212SOL    HW214415   4.676  11.053   7.081 -1.0839  0.5840 -0.4118
35213SOL     OW14416   0.805  11.253   6.060  0.4540  0.1426 -0.2303
35213SOL    HW114417   0.861  11.275   5.985 -0.9722  0.6584 -1.1883
35213SOL    HW214418   0.785  11.338   6.099  0.0776 -0.0114 -0.0905
35214SOL     OW14419   4.700   9.115   7.838 -0.0717  1.0346  0.1759
35214SOL    HW114420   4.701   9.061   7.760  1.4141 -0.4390  1.1415
35214SOL    HW214421   4.665   9.199   7.809  2.5847  1.3492 -2.6268
35215SOL     OW14422   4.379   4.726   7.953  0.3653  0.4285 -0.3017
35215SOL    HW114423   4.359   4.725   7.859 -1.0719  1.4717 -0.0421
35215SOL    HW214424   4.324   4.658   7.991  0.3383  0.5578 -0.1058
35216SOL     OW14425  11.998   9.787   8.068 -0.2398 -0.1099  0.5314
35216SOL    HW114426  11.906   9.777   8.093 -0.0139 -0.4764  1.2492
35216SOL    HW214427  11.998   9.859   8.005 -0.9142  0.4391  1.1391
35217SOL     OW14428   0.203   3.007  11.906 -0.1377 -0.3712 -0.4606
35217SOL    HW114429   0.188   3.080  11.845 -0.7944 -0.0779  0.0331
35217SOL    HW214430   0.292   3.020  11.937  0.6173 -1.1451 -2.1695
35218SOL     OW14431   8.348  11.133   0.220 -0.2900 -0.2107  0.1699
35218SOL    HW114432   8.346  11.142   0.315 -2.8308 -1.5299  0.3358
35218SOL    HW214433   8.303  11.050   0.203 -0.1937  0.1536 -2.1889
35219SOL     OW14434   7.024   8.407  12.263 -0.6792  0.2043 -0.0904
35219SOL    HW114435   7.112   8.433  12.291 -0.9545  0.0404  0.9889
35219SOL    HW214436   6.985   8.488  12.230  0.2267  0.0624 -1.5932
35220SOL     OW14437  12.447   2.256   0.503  0.5204 -0.6953 -0.3256
35220SOL    HW114438  12.516   2.265   0.568 -1.4264  1.7428  1.6058
35220SOL    HW214439  12.492   2.269   0.419  2.6711 -1.2549  0.6557
35221SOL     OW14440   2.243   6.088   7.664  0.1991  0.6007 -0.3976
35221SOL    HW114441   2.195   6.161   7.625  0.2707 -0.3660 -2.4106
35221SOL    HW214442   2.252   6.024   7.593  1.5387 -0.6899  0.8624
35222SOL     OW14443   5.822   4.553   6.984  0.6031  0.1935 -0.2899
35222SOL    HW114444   5.751   4.609   7.016 -0.3531 -0.1569 -1.7182
35222SOL    HW214445   5.867   4.525   7.064 -0.2605  1.2029  0.5903
35223SOL     OW14446   3.579   8.105   5.745  0.2869 -0.0033  0.2540
35223SOL    HW114447   3.595   8.044   5.817  0.3520  0.9123  1.0472
35223SOL    HW214448   3.638   8.178   5.762  2.5813 -1.0590 -2.4266
35224SOL     OW14449  11.559   3.700   8.489  0.3240  0.0857  0.2104
35224SOL    HW114450  11.627   3.710   8.555 -0.0491  0.2775  0.5718
35224SOL    HW214451  11.546   3.606   8.481 -0.2260  0.0785  1.0352
35225SOL     OW14452   4.857  12.337   2.950 -0.6267 -0.2371 -0.2731
35225SOL    HW114453   4.886  12.385   2.872 -0.6023 -1.3500 -0.9666
35225SOL    HW214454   4.937  12.320   2.999 -0.6267  0.3490 -0.0571
35226SOL     OW14455   0.708   9.790   3.610 -0.3778  0.8712 -0.0282
35226SOL    HW114456   0.691   9.792   3.704 -0.4820 -0.0982 -0.0159
35226SOL    HW214457   0.761   9.712   3.597 -1.5348  0.2004 -0.9484
35227SOL     OW14458   4.587   4.889   3.942  0.4766  0.2967  0.2837
35227SOL    HW114459   4.594   4.938   4.024  0.5529  1.4566 -0.4072
35227SOL    HW214460   4.674   4.892   3.903  0.3844 -0.0526  0.0384
35228SOL     OW14461   2.308   6.683   0.513 -0.0247  0.7087  0.0861
35228SOL    HW114462   2.363   6.697   0.436  0.7789  0.0786  0.5411
35228SOL    HW214463   2.294   6.771   0.549  0.9903  0.8420  0.1758
35229SOL     OW14464  11.298   8.543   2.687  0.4377  0.3575  0.6178
35229SOL    HW114465  11.275   8.612   2.625 -0.1628  0.3534  0.8213
35229SOL    HW214466  11.360   8.584   2.747 -0.4978  0.9752  1.2008
35230SOL     OW14467   4.614   3.438   6.394 -0.4869 -0.5347  0.2956
35230SOL    HW114468   4.571   3.401   6.317 -1.1206 -0.1364  0.4441
35230SOL    HW214469   4.551   3.503   6.427 -0.3404 -0.8774  1.2925
35231SOL     OW14470   5.722  10.037   4.452 -0.4068 -0.1243  0.0157
35231SOL    HW114471   5.810  10.074   4.451 -0.6001  0.4627  1.6152
35231SOL    HW214472   5.730   9.957   4.505 -1.0591  0.6742  1.3988
35232SOL     OW14473  11.978   3.355   4.898 -0.5793 -0.1617  0.0368
35232SOL    HW114474  12.025   3.403   4.830  0.3634 -0.5631  0.3850
35232SOL    HW214475  11.968   3.419   4.969  0.1923 -0.3001  0.2844
35233SOL     OW14476   6.102   9.831   7.793  0.7951  0.0787  0.0717
35233SOL    HW114477   6.122   9.902   7.853  0.1718  1.2726 -1.0836
35233SOL    HW214478   6.188   9.801   7.761  1.0620  0.2298  0.6502
35234SOL     OW14479  10.647  11.811   2.483  0.4060  0.2012  0.5993
35234SOL    HW114480  10.562  11.785   2.517 -0.0321  1.8906  0.9168
35234SOL    HW214481  10.653  11.768   2.398  0.7460 -2.6511  1.9791
35235SOL     OW14482  12.407   5.182   2.072  0.6631  0.1171  0.1573
35235SOL    HW114483  12.439   5.243   2.139  1.7971 -1.2816  0.9390
35235SOL    HW214484  12.483   5.164   2.017  0.0791  0.1805 -0.7057
35236SOL     OW14485   1.116   4.763  11.408 -0.2533  0.6187  0.2996
35236SOL    HW114486   1.203   4.802  11.408 -0.4260  1.0344 -0.2599
35236SOL    HW214487   1.096   4.746  11.500  0.1616  1.1079  0.4830
35237SOL     OW14488   2.200  11.989   6.195  0.2236  0.0589  0.1050
35237SOL    HW114489   2.295  11.981   6.190  0.3017  1.3040 -1.0328
35237SOL    HW214490   2.184  12.058   6.259 -0.0115 -1.3875  1.6582
35238SOL     OW14491   6.207   1.166  11.847 -0.2467  0.6800  0.3076
35238SOL    HW114492   6.124   1.144  11.889 -0.2435  1.6218  0.8618
35238SOL    HW214493   6.205   1.121  11.763 -0.3694 -1.0649  1.1930
35239SOL     OW14494   3.034   1.913  12.525 -0.1469 -0.3843 -0.9909
35239SOL    HW114495   3.032   1.834  12.579 -1.7909 -0.0426 -0.5099
35239SOL    HW214496   3.022   1.985  12.587 -1.8232  0.0256 -1.7327
35240SOL     OW14497   6.453   3.854  11.166  0.3926 -0.4810  0.4178
35240SOL    HW114498   6.465   3.949  11.168 -0.4781 -0.3353 -0.7219
35240SOL    HW214499   6.488   3.824  11.250 -0.0748  0.9330  1.1464
35241SOL     OW14500   4.375   5.397   5.789 -0.1237  0.6744  0.4865
35241SOL    HW114501   4.331   5.315   5.768 -1.5514  1.7627 -1.0661
35241SOL    HW214502   4.468   5.377   5.780 -0.4718 -0.5630 -0.8369
35242SOL     OW14503   5.057   0.166  12.222 -0.0849  0.2502  0.0532
35242SOL    HW114504   5.060   0.244  12.278 -2.1178  0.0310  0.5500
35242SOL    HW214505   5.058   0.093  12.283 -1.6631 -0.0060 -0.1812
35243SOL     OW14506   1.034  11.311   9.117  0.6938  0.5810  0.4514
35243SOL    HW114507   1.019  11.378   9.051  0.7595  1.1647  1.0146
35243SOL    HW214508   0.948  11.297   9.157  0.3092 -0.9134 -0.7860
35244SOL     OW14509   6.679   0.268   6.378 -1.1232  0.3715  0.1040
35244SOL    HW114510   6.752   0.302   6.430 -1.1602 -0.8006  0.9601
35244SOL    HW214511   6.699   0.294   6.288  0.7658 -0.6098  0.1984
35245SOL     OW14512   5.180  10.819   5.688 -0.7836 -0.0302 -0.0983
35245SOL    HW114513   5.263  10.775   5.700 -0.3262  0.9362  0.4530
35245SOL    HW214514   5.168  10.870   5.769 -0.8707  1.4998 -1.0336
35246SOL     OW14515   0.349  10.565   0.285  0.1954  0.9758 -0.1334
35246SOL    HW114516   0.342  10.639   0.223  1.4988  0.0191 -1.5056
35246SOL    HW214517   0.439  10.570   0.317  0.0638  0.4039  0.3336
35247SOL     OW14518   0.357   3.081   8.807  0.1798 -0.6921 -0.0736
35247SOL    HW114519   0.407   3.160   8.828 -1.7259  0.6878 -0.4441
35247SOL    HW214520   0.420   3.010   8.815  2.3941  0.9977 -1.2462
35248SOL     OW14521   0.852   4.811  12.247 -0.8735 -0.3957  0.1022
35248SOL    HW114522   0.942   4.815  12.277 -0.2783  0.2070 -1.6374
35248SOL    HW214523   0.826   4.719  12.258  0.5376 -0.9477 -0.9238
35249SOL     OW14524  10.585   4.002   0.650  0.2555 -0.6106  0.2061
35249SOL    HW114525  10.628   3.916   0.656  0.1313 -0.6652  0.3205
35249SOL    HW214526  10.505   3.986   0.600  0.9618 -0.2751 -1.0649
35250SOL     OW14527   7.794   0.131   6.687 -0.1909  0.0166  1.1407
35250SOL    HW114528   7.822   0.159   6.600 -0.8794  0.5797  1.0896
35250SOL    HW214529   7.718   0.186   6.706  0.3416  0.3708  2.3741
35251SOL     OW14530  10.740   7.564  11.945 -0.4213 -0.0475  0.0727
35251SOL    HW114531  10.827   7.598  11.966 -0.5804  0.6624 -0.3889
35251SOL    HW214532  10.740   7.476  11.982  1.1994 -0.8015 -1.5645
35252SOL     OW14533   0.296   4.018   2.212 -0.2265 -0.1396 -0.0022
35252SOL    HW114534   0.293   4.000   2.306  0.2960  0.0821  0.0630
35252SOL    HW214535   0.372   4.076   2.201 -1.7681  1.9820 -0.2064
35253SOL     OW14536   0.196  10.713  11.699  0.3547  0.2980 -0.1237
35253SOL    HW114537   0.169  10.798  11.735  0.1924 -0.0675  0.6355
35253SOL    HW214538   0.253  10.676  11.766  1.7817  0.5179 -1.1628
35254SOL     OW14539   9.809  11.295   2.381 -0.4641 -0.6382  0.3092
35254SOL    HW114540   9.829  11.263   2.469  0.0430  1.9198  1.1992
35254SOL    HW214541   9.893  11.323   2.345 -0.5717 -2.1856 -1.2738
35255SOL     OW14542   0.220   7.317   0.006  0.4981 -0.1553  0.3629
35255SOL    HW114543   0.184   7.402  -0.018  2.2143  1.0724  1.8502
35255SOL    HW214544   0.254   7.330   0.095  3.1955 -1.5898 -0.3558
35256SOL     OW14545   4.682  11.354   9.672  0.2190  0.0712  0.2949
35256SOL    HW114546   4.762  11.403   9.692  0.2445  0.0484  0.2481
35256SOL    HW214547   4.681  11.284   9.737 -0.5649  0.9710  1.3004
35257SOL     OW14548   2.522  11.952  12.038 -0.2355 -0.3200  0.5151
35257SOL    HW114549   2.493  11.906  11.959  0.6379 -0.5858  0.3437
35257SOL    HW214550   2.486  12.040  12.029 -1.3490 -0.7584  0.5167
35258SOL     OW14551   7.726   9.897  12.161 -0.3334 -0.1593 -0.3322
35258SOL    HW114552   7.699   9.931  12.076 -3.3174  1.3158  1.0604
35258SOL    HW214553   7.773   9.969  12.202 -1.9593  0.4661  0.5350
35259SOL     OW14554  10.272   6.417   7.940  0.2613 -0.2224 -0.3062
35259SOL    HW114555  10.278   6.349   8.008 -0.1032  0.4906  0.4586
35259SOL    HW214556  10.184   6.407   7.904  0.4657 -0.6209 -0.7062
35260SOL     OW14557  11.624   5.506   9.651 -0.3538  0.1701  0.0467
35260SOL    HW114558  11.702   5.502   9.596  0.0196 -0.7829  0.6055
35260SOL    HW214559  11.633   5.588   9.700  0.2040  0.1588 -0.0290
35261SOL     OW14560  12.043   3.444   2.749  0.1427 -0.1060  0.6761
35261SOL    HW114561  11.983   3.516   2.728  0.3516 -0.1829 -0.2452
35261SOL    HW214562  12.104   3.482   2.812  1.5164  1.2172 -1.3025
35262SOL     OW14563   6.821   8.169   7.663  0.0846 -0.3225  1.0984
35262SOL    HW114564   6.864   8.189   7.746  1.2949  1.1526  0.1735
35262SOL    HW214565   6.753   8.236   7.654  0.0888 -0.3530  0.8200
35263SOL     OW14566   4.169  11.093   9.893 -0.2601 -0.7482 -0.1206
35263SOL    HW114567   4.239  11.083   9.829 -0.2062  0.2697 -0.2239
35263SOL    HW214568   4.204  11.152   9.959 -0.1848 -2.0642  1.0691
35264SOL     OW14569   8.541   4.305   0.581  0.4131  0.1223  0.4370
35264SOL    HW114570   8.558   4.366   0.653  2.2855  0.7774 -0.4976
35264SOL    HW214571   8.564   4.354   0.502  2.3303 -1.8398 -0.3217
35265SOL     OW14572   9.948   6.172   8.434 -0.0795 -0.0375  0.0139
35265SOL    HW114573  10.017   6.196   8.496 -0.3910  0.9841 -0.0094
35265SOL    HW214574   9.924   6.255   8.392  0.2440 -0.7275 -1.6130
35266SOL     OW14575   7.590  11.858   1.685 -0.0859 -0.2929 -0.2325
35266SOL    HW114576   7.529  11.888   1.617  0.3838  1.4387  0.0716
35266SOL    HW214577   7.536  11.807   1.745 -1.2883  1.2565  0.0681
35267SOL     OW14578   5.648   7.893   0.333 -0.0799  0.4996  0.8577
35267SOL    HW114579   5.697   7.911   0.414  0.2349  0.3473  0.7035
35267SOL    HW214580   5.674   7.804   0.309 -2.2126 -0.5098  2.0365
35268SOL     OW14581   4.256   8.133  11.880 -0.4581  0.1347  0.5623
35268SOL    HW114582   4.342   8.158  11.913  0.2189 -0.4226 -0.6969
35268SOL    HW214583   4.245   8.185  11.800 -0.3543 -1.2578 -0.4040
35269SOL     OW14584   9.958   6.920  10.621  0.3213 -1.0094  0.3216
35269SOL    HW114585   9.946   6.889  10.531 -0.0064  0.1871 -0.0657
35269SOL    HW214586  10.039   6.972  10.617 -0.5131  0.3317  0.3457
35270SOL     OW14587   1.454   6.550  11.416 -0.3053  0.0635 -0.0726
35270SOL    HW114588   1.501   6.619  11.464 -1.1949 -0.1512  1.1321
35270SOL    HW214589   1.505   6.471  11.432 -0.6095 -0.0101  0.5336
35271SOL     OW14590   6.052   3.836   8.553 -0.2044  0.3105  0.2746
35271SOL    HW114591   6.103   3.823   8.633  0.8592  0.5099 -0.3475
35271SOL    HW214592   6.101   3.789   8.485 -1.7051 -0.8274 -0.0585
35272SOL     OW14593   9.006   0.925   0.531 -0.8233  0.3503  0.3819
35272SOL    HW114594   8.920   0.955   0.560 -0.9068  2.7175 -1.9270
35272SOL    HW214595   8.989   0.882   0.447  0.1759  0.0735  0.3075
35273SOL     OW14596  11.795   1.861   0.541 -0.7205  0.0911  0.1179
35273SOL    HW114597  11.744   1.861   0.621  0.6187  0.9107  1.0145
35273SOL    HW214598  11.780   1.948   0.503  0.4057  0.5328  0.6655
35274SOL     OW14599  12.077   6.311   5.164  0.4255 -0.4160 -0.6155
35274SOL    HW114600  12.099   6.329   5.073  0.1530 -0.6853 -0.7364
35274SOL    HW214601  12.047   6.220   5.164 -1.3471  0.1311 -0.5899
35275SOL     OW14602   8.003   6.579   4.567 -0.1779 -0.4824  0.5518
35275SOL    HW114603   7.953   6.660   4.553 -0.5787 -0.8502 -0.1467
35275SOL    HW214604   8.078   6.587   4.509  1.1944  0.5511  2.3547
35276SOL     OW14605   4.135   6.759   0.804  0.3578 -0.6499 -0.0455
35276SOL    HW114606   4.200   6.815   0.847  0.9492 -2.3397  1.3552
35276SOL    HW214607   4.096   6.709   0.875 -0.7563 -1.4197 -1.1700
35277SOL     OW14608   4.179   2.078   4.724  0.3337  0.1044 -0.3129
35277SOL    HW114609   4.129   2.059   4.804  0.2405 -1.5812 -0.7214
35277SOL    HW214610   4.184   2.173   4.721 -0.3107  0.2351  1.3026
35278SOL     OW14611  12.085   8.133   5.735 -0.0378  0.1398  0.0050
35278SOL    HW114612  11.998   8.173   5.741  0.0223  0.3067 -0.2261
35278SOL    HW214613  12.079   8.054   5.789 -0.2111  0.3640  0.3142
35279SOL     OW14614   2.319   5.247   7.044 -0.4833 -0.0635 -0.1525
35279SOL    HW114615   2.350   5.286   7.126 -0.2278  0.1466 -0.3464
35279SOL    HW214616   2.317   5.320   6.982 -1.0273 -0.1483 -0.2393
35280SOL     OW14617   4.419   1.592   1.699  0.0943 -0.0075  0.5027
35280SOL    HW114618   4.511   1.618   1.711 -0.2105  0.7189  1.3431
35280SOL    HW214619   4.381   1.663   1.647  0.0551 -0.4316 -0.0596
35281SOL     OW14620  12.106   8.360   9.997 -0.0666 -0.7714 -0.1908
35281SOL    HW114621  12.187   8.383  10.042 -1.6604 -0.7127  2.9915
35281SOL    HW214622  12.056   8.442   9.995 -0.5466 -1.0704 -0.9477
35282SOL     OW14623  11.939   6.035   8.414  0.1182 -0.1220 -0.0628
35282SOL    HW114624  11.921   5.961   8.473 -0.8441  0.4322  0.3665
35282SOL    HW214625  11.956   6.109   8.473  1.4175 -0.0595 -0.4884
35283SOL     OW14626  11.017  12.373  10.366 -0.5266  0.5708  0.5882
35283SOL    HW114627  10.967  12.341  10.442 -1.5297  2.5379  0.8125
35283SOL    HW214628  11.108  12.363  10.393 -0.8401  2.6144  2.7520
35284SOL     OW14629   4.776  10.418   8.426 -0.1344 -0.1271 -0.7664
35284SOL    HW114630   4.755  10.431   8.519  0.5790 -0.4771 -0.5518
35284SOL    HW214631   4.695  10.442   8.380 -0.3830  0.3968 -0.0788
35285SOL     OW14632   0.406   1.851  11.965  0.2019 -0.1073 -0.5100
35285SOL    HW114633   0.470   1.916  11.996 -1.0160  0.5885  0.6486
35285SOL    HW214634   0.332   1.903  11.934 -0.4827 -0.9207 -0.2670
35286SOL     OW14635   2.212  10.033  11.109  0.2338 -0.0390 -0.0708
35286SOL    HW114636   2.233  10.045  11.202  1.1176  2.1425 -0.4866
35286SOL    HW214637   2.216  10.121  11.072 -0.1187 -0.8477 -2.1898
35287SOL     OW14638   8.869   5.314   4.292  0.2993 -0.1870 -0.3253
35287SOL    HW114639   8.893   5.307   4.385 -0.0268  0.4813 -0.1856
35287SOL    HW214640   8.844   5.225   4.267 -1.8843  0.0073  0.8695
35288SOL     OW14641   9.442   7.491   2.234  0.2040  0.5263  0.0261
35288SOL    HW114642   9.511   7.529   2.179  0.1836 -0.0912 -0.4271
35288SOL    HW214643   9.479   7.408   2.265  0.3526  1.0193  1.2363
35289SOL     OW14644   0.154   3.053   4.058  0.0070 -0.2175  0.3872
35289SOL    HW114645   0.172   3.071   3.966 -1.1042  0.1800  0.2349
35289SOL    HW214646   0.216   3.108   4.106 -0.1240  0.3841 -0.1218
35290SOL     OW14647   5.144   4.786   9.107 -0.0096 -0.1697  0.8507
35290SOL    HW114648   5.145   4.845   9.031 -0.6211 -0.5706  0.5226
35290SOL    HW214649   5.218   4.727   9.092  0.2201  0.1118  0.8607
35291SOL     OW14650   3.557   8.749   9.695 -0.0637 -0.0124 -0.1324
35291SOL    HW114651   3.602   8.668   9.669 -0.6955 -0.2289 -0.5750
35291SOL    HW214652   3.579   8.812   9.626 -1.0218 -0.3336 -0.7576
35292SOL     OW14653   4.679  11.876  10.479 -0.5153  0.2886 -0.1988
35292SOL    HW114654   4.744  11.896  10.412 -1.1653 -0.7069 -1.1573
35292SOL    HW214655   4.701  11.935  10.552 -0.2656  1.9913 -1.5730
35293SOL     OW14656   6.664  10.919   9.275  0.6410 -0.3789 -0.1166
35293SOL    HW114657   6.652  10.994   9.217 -2.1877 -1.3515 -0.9726
35293SOL    HW214658   6.605  10.852   9.241  2.2936 -2.6796  1.2178
35294SOL     OW14659   3.017  11.883  12.008 -0.2250  0.1662  0.3495
35294SOL    HW114660   2.969  11.801  11.996  0.2763  0.0087 -0.7295
35294SOL    HW214661   3.104  11.855  12.036 -0.1567  0.3421  0.3141
35295SOL     OW14662   1.613   8.375   5.716  0.0992  0.6632  0.6757
35295SOL    HW114663   1.572   8.396   5.632 -1.2719  0.7480  1.3400
35295SOL    HW214664   1.626   8.281   5.714  2.8115  0.9677 -0.7936
35296SOL     OW14665  11.551   3.866   4.958 -0.0746  0.6880  0.2421
35296SOL    HW114666  11.539   3.827   5.044  0.4754 -1.6599 -0.6595
35296SOL    HW214667  11.644   3.889   4.954  0.0301  0.2512  0.0849
35297SOL     OW14668   8.972   0.588   8.922  0.1991 -0.2581  0.1110
35297SOL    HW114669   8.933   0.582   8.835  0.5393 -1.1833  0.0079
35297SOL    HW214670   8.903   0.559   8.982 -0.7499  2.3097  0.3991
35298SOL     OW14671   6.289   5.920   4.488  0.4815 -0.9187  0.0574
35298SOL    HW114672   6.208   5.919   4.437  1.4353 -0.6862 -1.5039
35298SOL    HW214673   6.259   5.922   4.579 -1.2812  1.0328 -0.4936
35299SOL     OW14674   4.535   3.971  11.557 -0.2883  0.2746 -0.1888
35299SOL    HW114675   4.586   4.045  11.588 -0.2000 -0.3259  1.1684
35299SOL    HW214676   4.530   3.983  11.462  1.7244  0.7470 -0.2692
35300SOL     OW14677  12.220   1.997   6.180 -0.0026 -0.3952 -0.1108
35300SOL    HW114678  12.292   1.999   6.118 -1.0131 -2.5499 -1.4648
35300SOL    HW214679  12.260   1.969   6.262  1.4718  3.1409  0.5640
35301SOL     OW14680   7.434   3.982   9.664 -0.5790 -0.4243  0.8479
35301SOL    HW114681   7.356   3.941   9.625 -0.8090  0.6884  0.1056
35301SOL    HW214682   7.484   4.014   9.589 -0.4054  0.6435  1.4049
35302SOL     OW14683   1.539   1.288   1.911 -0.2561 -0.1737  0.1245
35302SOL    HW114684   1.531   1.356   1.977  0.1410  0.0538 -0.0610
35302SOL    HW214685   1.502   1.327   1.832 -1.3955 -0.6941  0.3793
35303SOL     OW14686  10.911   4.071   7.069  0.2377  0.0152  0.1725
35303SOL    HW114687  11.005   4.075   7.084  0.5282 -0.0140 -1.4836
35303SOL    HW214688  10.884   4.163   7.061  0.4080 -0.0155 -0.8703
35304SOL     OW14689   9.289   4.734   5.014 -0.1839 -0.3307  0.3182
35304SOL    HW114690   9.339   4.763   4.937 -0.4026 -1.0511 -0.1017
35304SOL    HW214691   9.345   4.756   5.088  0.7729 -1.1439 -0.1459
35305SOL     OW14692   3.206   4.126   3.977 -0.0112  0.0489 -0.0472
35305SOL    HW114693   3.133   4.162   4.027 -0.2925  2.2113 -1.8582
35305SOL    HW214694   3.202   4.032   3.993 -1.7818  0.3583  1.6926
35306SOL     OW14695   0.580  12.364   6.804  0.3170  0.5341  0.2237
35306SOL    HW114696   0.657  12.317   6.836  1.3514  1.3316 -1.0261
35306SOL    HW214697   0.530  12.385   6.883  0.0393 -2.2080  0.8756
35307SOL     OW14698   4.855  10.656   9.523 -0.2920 -0.0393 -0.1275
35307SOL    HW114699   4.846  10.655   9.618 -2.7246  2.5438 -0.1817
35307SOL    HW214700   4.837  10.566   9.495 -0.0650 -0.7198  1.7950
35308SOL     OW14701   2.618  10.764   4.066  0.2164  0.1938 -0.6371
35308SOL    HW114702   2.691  10.789   4.010  2.0246  0.4457  1.7041
35308SOL    HW214703   2.656  10.755   4.153 -2.1053 -1.9755  0.2807
35309SOL     OW14704   1.285   2.849   4.213  0.0955  0.1364  0.5767
35309SOL    HW114705   1.290   2.855   4.309 -0.9797  1.6908  0.5770
35309SOL    HW214706   1.215   2.787   4.197 -1.1926  1.4517  0.8636
35310SOL     OW14707   1.358   9.278   7.713  0.2412 -0.2633 -0.1818
35310SOL    HW114708   1.421   9.272   7.784  0.8012  3.5181 -0.1240
35310SOL    HW214709   1.284   9.325   7.751 -0.8599 -1.0139 -1.3134
35311SOL     OW14710   9.298   1.386   0.638  0.5924 -0.2816 -0.4168
35311SOL    HW114711   9.376   1.413   0.589  0.1180  1.4374 -0.2785
35311SOL    HW214712   9.253   1.326   0.579  1.0997  0.1284 -1.2375
35312SOL     OW14713   6.784   1.130   9.156 -0.1264  0.2255  0.2018
35312SOL    HW114714   6.748   1.218   9.145 -1.0896 -0.1756  0.0782
35312SOL    HW214715   6.834   1.114   9.075 -1.2425  0.0623 -0.4708
35313SOL     OW14716   8.457   6.198   3.195 -0.4328 -1.0572 -0.1686
35313SOL    HW114717   8.479   6.163   3.109 -0.1303 -1.2004 -0.0358
35313SOL    HW214718   8.524   6.264   3.212  0.2003 -1.8238  0.4378
35314SOL     OW14719   3.040   0.617   4.067  0.2667  0.9710 -0.3058
35314SOL    HW114720   2.977   0.563   4.115  0.0953 -0.0969 -1.6666
35314SOL    HW214721   3.123   0.571   4.076  0.1850  0.6198 -1.1964
35315SOL     OW14722  12.268  11.745   8.094 -0.8221  0.7113  0.2372
35315SOL    HW114723  12.234  11.717   8.009  1.0700 -1.5241  0.0975
35315SOL    HW214724  12.279  11.663   8.143  2.0487  1.4801  1.0624
35316SOL     OW14725  10.059   7.312   2.867  0.1216 -0.3187 -0.1532
35316SOL    HW114726  10.038   7.219   2.877 -1.4813  0.0765  0.6026
35316SOL    HW214727  10.153   7.314   2.851  0.6454 -1.9441  2.1730
35317SOL     OW14728   7.390   0.271  11.309 -0.4694  0.2389  0.1679
35317SOL    HW114729   7.396   0.180  11.278  0.7572  1.1547 -2.6315
35317SOL    HW214730   7.481   0.296  11.325 -0.8456  0.8261  1.4679
35318SOL     OW14731  10.381  12.542   2.525  0.2383 -0.2274  0.5746
35318SOL    HW114732  10.425  12.458   2.535  1.3740  0.0856 -1.2374
35318SOL    HW214733  10.451  12.601   2.495 -0.8773  0.9518  0.2296
35319SOL     OW14734   6.226   3.275   8.087  0.8105 -0.1491 -0.1383
35319SOL    HW114735   6.321   3.276   8.079  0.9986 -0.5827  1.5821
35319SOL    HW214736   6.210   3.262   8.181 -0.9419  0.3640 -0.3284
35320SOL     OW14737  12.070   5.490   0.152 -0.2258  0.2589  0.5510
35320SOL    HW114738  12.045   5.582   0.148 -0.3557  0.1940 -0.2099
35320SOL    HW214739  12.147   5.483   0.096 -0.9004 -0.3093 -0.3314
35321SOL     OW14740   5.947  12.154   0.232 -0.6724 -0.4121  0.2257
35321SOL    HW114741   5.918  12.081   0.177 -2.0056  0.1431  0.1686
35321SOL    HW214742   6.043  12.150   0.227 -0.6951 -2.2190  0.3193
35322SOL     OW14743   1.813   7.870   1.129 -0.0761 -0.1688  0.3661
35322SOL    HW114744   1.841   7.783   1.102  2.3470  0.1911  1.4734
35322SOL    HW214745   1.765   7.855   1.210  1.2675 -0.4169  1.1390
35323SOL     OW14746   0.319  10.473   3.845 -0.0584  0.0817  0.3212
35323SOL    HW114747   0.341  10.380   3.842 -0.2353  0.0607 -0.4442
35323SOL    HW214748   0.400  10.516   3.872 -0.1972 -0.3586  1.5072
35324SOL     OW14749   7.713   5.592   9.527 -0.0549 -0.0938 -0.2712
35324SOL    HW114750   7.754   5.677   9.538  2.8374 -0.8988 -3.2611
35324SOL    HW214751   7.631   5.610   9.481 -0.2564  1.1127  0.5192
35325SOL     OW14752   9.623   4.936   6.173 -0.0736  0.5009  0.1114
35325SOL    HW114753   9.548   4.976   6.217 -0.1605  0.3501  0.1018
35325SOL    HW214754   9.697   4.955   6.230  0.3534  2.8462 -1.0980
35326SOL     OW14755   9.608   5.059   1.741  0.3524  0.1284  0.0930
35326SOL    HW114756   9.637   5.116   1.669  2.0372  0.0612  0.6899
35326SOL    HW214757   9.565   5.119   1.803  2.0089  0.7831  0.6578
35327SOL     OW14758  10.167   2.753  11.222  0.0909 -0.2601 -0.6597
35327SOL    HW114759  10.187   2.774  11.314 -1.0944 -1.3146 -0.1299
35327SOL    HW214760  10.078   2.717  11.225 -0.1907  0.2498 -2.3199
35328SOL     OW14761  10.005   1.579   1.364  0.2599  0.5285 -0.1007
35328SOL    HW114762  10.012   1.485   1.348 -3.3845  0.1103 -0.1711
35328SOL    HW214763   9.976   1.616   1.281  0.0944  1.4220  0.3377
35329SOL     OW14764  10.317   0.606  10.474  0.4454  0.0651 -0.5450
35329SOL    HW114765  10.366   0.655  10.540  2.0318 -0.0384 -1.6000
35329SOL    HW214766  10.372   0.608  10.396  0.1656 -2.6179 -0.9073
35330SOL     OW14767   5.645   2.694   4.800  0.1270 -0.0293 -0.3798
35330SOL    HW114768   5.640   2.789   4.803  0.9867 -0.0051  1.4686
35330SOL    HW214769   5.629   2.665   4.890  1.4742 -1.5076 -0.5478
35331SOL     OW14770   7.422   3.838  11.856  0.0560 -0.3276 -0.1306
35331SOL    HW114771   7.386   3.767  11.803  0.4243 -0.6923  0.1042
35331SOL    HW214772   7.350   3.866  11.912  0.1352 -1.0590  0.3430
35332SOL     OW14773  10.057   1.125   1.750 -0.3304  0.2234 -0.5079
35332SOL    HW114774  10.061   1.124   1.654 -1.3607  2.2467 -0.6273
35332SOL    HW214775  10.082   1.214   1.774 -2.1309  0.4002  0.9399
35333SOL     OW14776   8.767   8.226  12.301 -0.1913  0.1948 -0.3348
35333SOL    HW114777   8.704   8.214  12.372 -0.9281  1.5277 -0.7344
35333SOL    HW214778   8.729   8.179  12.226  1.2623 -2.4348  0.4547
35334SOL     OW14779   9.618   5.450  12.206 -0.2181  0.1042  0.3441
35334SOL    HW114780   9.533   5.493  12.215 -0.6695 -0.3707 -1.2258
35334SOL    HW214781   9.615   5.411  12.118  1.5991  0.0112  0.2981
35335SOL     OW14782   2.100   6.047   7.932 -0.4464  0.0423 -0.1709
35335SOL    HW114783   2.165   6.024   7.866 -1.0039  0.2063 -0.7871
35335SOL    HW214784   2.088   5.967   7.983  1.8683  0.6053  1.4016
35336SOL     OW14785   8.218   2.376   9.531  0.3881  0.2843 -0.1388
35336SOL    HW114786   8.147   2.381   9.467 -1.2161 -0.7412  1.4886
35336SOL    HW214787   8.296   2.400   9.481 -0.9863  0.8723 -2.1350
35337SOL     OW14788   5.748  10.390  10.196 -0.5486 -0.4137  0.9340
35337SOL    HW114789   5.765  10.350  10.110 -0.4731  1.3935  0.0566
35337SOL    HW214790   5.715  10.318  10.250 -0.0803 -1.7153 -0.4412
35338SOL     OW14791   1.277   7.342   1.061 -0.1856 -0.2555  0.5532
35338SOL    HW114792   1.371   7.328   1.052 -0.3558 -1.3517  0.3091
35338SOL    HW214793   1.239   7.294   0.988 -0.9763 -0.3507  1.0179
35339SOL     OW14794   4.976   0.558   4.635  0.4694 -0.3303 -0.5350
35339SOL    HW114795   4.883   0.539   4.623  0.1591  0.3523  0.5915
35339SOL    HW214796   4.982   0.589   4.726  1.0327  3.9847 -1.8583
35340SOL     OW14797  11.457   1.315   4.014 -0.3079  0.2531  0.3720
35340SOL    HW114798  11.547   1.312   4.047  0.2476 -4.3995 -0.9096
35340SOL    HW214799  11.456   1.390   3.955  3.0582 -0.0501 -0.2628
35341SOL     OW14800   1.947   3.629   0.437  1.0528 -0.1163  0.3815
35341SOL    HW114801   2.004   3.663   0.506  0.5135  0.8955  0.3551
35341SOL    HW214802   1.866   3.605   0.482  0.3980  1.3051  0.0260
35342SOL     OW14803   9.623   2.375   5.164 -0.3764 -0.4769 -0.2785
35342SOL    HW114804   9.683   2.448   5.150 -0.8277 -0.2475 -1.1349
35342SOL    HW214805   9.603   2.377   5.258  1.1937 -0.7694  0.0779
35343SOL     OW14806   4.271   4.748   2.181  0.4234 -0.1284  0.4077
35343SOL    HW114807   4.228   4.743   2.096 -0.5842 -0.5051  0.9177
35343SOL    HW214808   4.319   4.666   2.190  1.4049  0.3560 -0.2275
35344SOL     OW14809   8.053   9.289   4.417 -0.2173  0.6223  0.5650
35344SOL    HW114810   8.121   9.223   4.405  0.1289  0.9154  0.8843
35344SOL    HW214811   7.972   9.239   4.425  0.1857  0.1581  1.9686
35345SOL     OW14812   7.585   4.939  11.630  0.4011 -0.0032 -0.0206
35345SOL    HW114813   7.533   4.889  11.567  0.5330  0.6669 -0.6705
35345SOL    HW214814   7.544   5.026  11.632  1.3299  0.4485 -0.3375
35346SOL     OW14815   6.359   9.054   0.651 -0.1722  0.0809 -0.4253
35346SOL    HW114816   6.394   9.002   0.578 -1.2233 -1.3731  0.0760
35346SOL    HW214817   6.390   9.009   0.729  0.7736  1.5175  0.0698
35347SOL     OW14818   9.822   4.294  11.444 -0.1128  0.2539  0.0582
35347SOL    HW114819   9.824   4.268  11.536 -0.4403  1.2445  0.3559
35347SOL    HW214820   9.914   4.291  11.416  0.1452  1.1327  0.7700
35348SOL     OW14821  10.216   7.295   5.638  0.0954  0.2999 -0.0810
35348SOL    HW114822  10.220   7.291   5.543  0.2875 -2.0703 -0.0464
35348SOL    HW214823  10.157   7.224   5.662  0.4452  0.5326  1.5947
35349SOL     OW14824   8.065   6.098   2.006  0.1796 -0.2256 -0.0421
35349SOL    HW114825   8.048   6.187   1.976 -0.9012 -0.3327  0.2140
35349SOL    HW214826   7.984   6.050   1.986  0.3319 -0.8761  0.8444
35350SOL     OW14827   0.294   4.900   5.621  0.0552 -0.0375 -0.3430
35350SOL    HW114828   0.287   4.974   5.680  1.2507  0.7458 -1.1547
35350SOL    HW214829   0.330   4.829   5.674  1.7644  0.8516 -0.2643
35351SOL     OW14830  11.184   1.325   2.743  0.4517  0.6802 -0.3878
35351SOL    HW114831  11.197   1.415   2.770 -1.3041  0.9239 -0.2567
35351SOL    HW214832  11.179   1.329   2.648  0.3703  0.7197 -0.3818
35352SOL     OW14833   3.516   3.585   7.729  0.6578 -0.2491 -0.0295
35352SOL    HW114834   3.610   3.572   7.713  0.3500 -0.0579 -2.3103
35352SOL    HW214835   3.497   3.670   7.688 -0.6968 -0.7537 -0.4978
35353SOL     OW14836   0.326   7.508   3.545 -0.2904 -0.2055 -0.0108
35353SOL    HW114837   0.403   7.557   3.518 -0.7956  0.0391 -1.0544
35353SOL    HW214838   0.354   7.417   3.543  0.1160 -0.0850  0.1143
35354SOL     OW14839  10.861   2.281   3.005  0.4260 -0.3124 -0.5771
35354SOL    HW114840  10.800   2.331   3.060 -0.1324 -1.3693 -0.2144
35354SOL    HW214841  10.809   2.255   2.930  0.9644  0.4097 -1.2157
35355SOL     OW14842   8.566   5.306   4.417  0.5053 -0.0698  0.4752
35355SOL    HW114843   8.610   5.248   4.479 -1.5606 -1.6694  0.5477
35355SOL    HW214844   8.547   5.251   4.341  0.9706  1.2728 -0.6757
35356SOL     OW14845   0.507   1.689   2.611 -0.0543 -0.3743  0.7774
35356SOL    HW114846   0.473   1.737   2.686 -1.2066  0.1308 -0.0398
35356SOL    HW214847   0.430   1.664   2.561  0.6806 -0.7754 -0.2018
35357SOL     OW14848   4.850   3.002   3.171  0.2275 -0.3424  0.1680
35357SOL    HW114849   4.760   3.036   3.170  0.1462 -0.5412 -1.1666
35357SOL    HW214850   4.895   3.054   3.238 -0.4000  1.0597 -0.4665
35358SOL     OW14851  10.485   0.047   2.834 -0.7089 -0.0560  0.0004
35358SOL    HW114852  10.477   0.121   2.774 -0.7798 -0.6120 -0.6788
35358SOL    HW214853  10.564   0.001   2.806 -1.3847 -0.9929 -0.4256
35359SOL     OW14854  11.499  11.971   0.298  0.1367  0.0224 -0.1161
35359SOL    HW114855  11.555  11.976   0.221 -0.4700  0.0604 -0.5569
35359SOL    HW214856  11.487  12.061   0.326  0.2307  0.0201 -0.0672
35360SOL     OW14857   1.702   9.156  10.882  0.1101 -0.4783 -0.1573
35360SOL    HW114858   1.675   9.151  10.791 -1.8445  0.8097  0.2918
35360SOL    HW214859   1.670   9.242  10.912  2.7564  0.1792  1.1123
35361SOL     OW14860  10.113   6.505   6.146 -0.5305  0.2794 -0.0642
35361SOL    HW114861  10.203   6.488   6.172 -0.9810 -0.1710  1.2898
35361SOL    HW214862  10.114   6.595   6.113  0.2937  0.4934  0.5196
35362SOL     OW14863   0.734   6.910  12.591 -0.3623 -0.7922 -0.1088
35362SOL    HW114864   0.641   6.885  12.590 -0.3161 -1.0824  0.9300
35362SOL    HW214865   0.757   6.910  12.684  0.4042  0.3237 -0.2827
35363SOL     OW14866   3.596  12.275   3.307 -0.3972  0.2976 -0.2884
35363SOL    HW114867   3.654  12.251   3.379 -2.3243  1.5719  1.8263
35363SOL    HW214868   3.633  12.356   3.272 -0.4758  0.7151  0.5730
35364SOL     OW14869   1.907   8.156   1.910  0.0094  0.3848 -0.3928
35364SOL    HW114870   1.879   8.150   1.819  0.5297  2.8893 -0.7859
35364SOL    HW214871   1.975   8.089   1.920 -0.8920 -0.7244 -1.4779
35365SOL     OW14872  10.908  10.753   3.508 -0.1054 -0.0507  0.0142
35365SOL    HW114873  10.883  10.797   3.589  1.2643  0.9920 -0.1058
35365SOL    HW214874  10.941  10.667   3.536 -1.9718 -0.7112  0.3163
35366SOL     OW14875   9.648   7.522   2.059 -0.4597  0.1211 -0.0110
35366SOL    HW114876   9.577   7.546   1.999  1.0216  0.3706 -1.7622
35366SOL    HW214877   9.650   7.426   2.056 -1.3929  0.0546  0.9117
35367SOL     OW14878   5.981   1.709   1.668 -0.0192  0.5575 -0.0748
35367SOL    HW114879   5.953   1.800   1.684  1.0912  1.0950 -1.0482
35367SOL    HW214880   6.073   1.717   1.644 -0.0436 -0.7960 -0.6552
35368SOL     OW14881  12.189  11.984   6.413  0.1601 -0.3258 -0.6455
35368SOL    HW114882  12.207  11.905   6.362 -2.0666 -0.4924 -1.2702
35368SOL    HW214883  12.225  11.965   6.499 -0.4127 -2.0876 -0.7554
35369SOL     OW14884   8.042   8.332   9.276 -0.4853 -0.0166  0.0786
35369SOL    HW114885   7.949   8.355   9.269 -0.3466  0.0984 -1.9627
35369SOL    HW214886   8.084   8.411   9.311 -1.0716  0.0978  0.5387
35370SOL     OW14887  12.455   4.865   2.943  0.4416 -0.8717  0.1145
35370SOL    HW114888  12.427   4.953   2.918  2.4691 -0.1722  0.0913
35370SOL    HW214889  12.443   4.861   3.038  1.4990 -0.0958  0.2916
35371SOL     OW14890   9.763   3.680   8.262  0.4288  0.2020  0.5494
35371SOL    HW114891   9.841   3.735   8.273 -0.0609  1.2292 -0.7758
35371SOL    HW214892   9.698   3.738   8.223 -0.4002 -1.1019 -0.0817
35372SOL     OW14893   8.254   2.287   0.171 -0.1895  0.2207 -0.2094
35372SOL    HW114894   8.311   2.350   0.127  0.2047  0.5802  0.7816
35372SOL    HW214895   8.314   2.228   0.216 -0.5797  0.7409  1.0409
35373SOL     OW14896   2.789   5.408   4.118 -0.1379  0.0012  0.0059
35373SOL    HW114897   2.876   5.390   4.082  0.0118  0.7581 -0.0223
35373SOL    HW214898   2.761   5.324   4.155 -0.4385 -0.9244 -2.1550
35374SOL     OW14899  12.446   2.013   5.732 -0.2880 -0.4036 -0.4343
35374SOL    HW114900  12.486   1.930   5.705 -1.7815 -1.2763 -0.1253
35374SOL    HW214901  12.435   2.062   5.650  1.2727 -0.1787 -0.5307
35375SOL     OW14902   2.234   3.971  12.295 -0.0514 -0.2077  0.4037
35375SOL    HW114903   2.290   3.893  12.294 -0.9646 -0.8667  0.0700
35375SOL    HW214904   2.193   3.970  12.382  1.5640  1.1156  1.2573
35376SOL     OW14905   3.575   2.498  11.014  0.3396 -0.0876 -0.2685
35376SOL    HW114906   3.611   2.544  10.938 -0.7663 -1.1706 -1.4897
35376SOL    HW214907   3.496   2.547  11.037 -0.0344 -0.5026 -0.6475
35377SOL     OW14908   5.068   3.314   2.837  0.3329  0.2002 -0.2077
35377SOL    HW114909   5.151   3.294   2.880  0.7419  2.0898 -0.0491
35377SOL    HW214910   5.041   3.398   2.873 -2.4800 -1.0196  0.9134
35378SOL     OW14911   9.250   1.689   3.870  0.3662  0.1662 -0.0862
35378SOL    HW114912   9.188   1.758   3.891  0.6885  0.5057 -0.2275
35378SOL    HW214913   9.206   1.608   3.896 -0.0178  0.4224  0.0750
35379SOL     OW14914   9.456   3.968   0.408  0.4903  0.2651 -0.6672
35379SOL    HW114915   9.388   4.035   0.406  0.0064 -0.2259 -1.0144
35379SOL    HW214916   9.529   4.006   0.361 -0.3241 -0.0120 -2.2060
35380SOL     OW14917   1.819   4.180   4.837  0.1873  0.3549  0.6076
35380SOL    HW114918   1.911   4.186   4.861  0.6126  0.4204 -0.9141
35380SOL    HW214919   1.805   4.254   4.776 -0.6727 -0.0862  0.2412
35381SOL     OW14920  10.390   3.945   1.344  0.0228  0.3385  0.6842
35381SOL    HW114921  10.391   4.023   1.289  1.6517  0.3396  0.6840
35381SOL    HW214922  10.326   3.965   1.413 -2.0354  0.3388 -1.1179
35382SOL     OW14923  11.723  10.815   7.206 -0.2096  0.1517 -0.6864
35382SOL    HW114924  11.779  10.855   7.140  2.3875  1.7300  2.2064
35382SOL    HW214925  11.692  10.888   7.259 -0.4071 -1.1873  1.1495
35383SOL     OW14926   3.705   3.064   5.478  0.0742  0.3850  1.1024
35383SOL    HW114927   3.632   3.104   5.526  1.8040  2.5099  2.1647
35383SOL    HW214928   3.781   3.077   5.535  1.3628 -1.4619 -0.0956
35384SOL     OW14929   3.862   7.199   3.315  0.0056  0.6337 -0.2368
35384SOL    HW114930   3.869   7.227   3.224  1.8663 -0.2328 -0.4027
35384SOL    HW214931   3.828   7.110   3.310  2.4035 -0.3513 -0.3045
35385SOL     OW14932   1.134   9.036   6.354  0.0612 -0.3972 -0.4342
35385SOL    HW114933   1.136   8.976   6.279 -1.4603 -0.4450 -0.4494
35385SOL    HW214934   1.150   9.122   6.315  0.6643 -0.5844 -0.6183
35386SOL     OW14935  10.636   8.907  11.858  0.1396 -0.2479  0.3026
35386SOL    HW114936  10.715   8.949  11.824  0.2128  0.6187  1.4874
35386SOL    HW214937  10.592   8.873  11.780  0.8755  0.6597 -0.5448
35387SOL     OW14938   2.186   5.020   8.162  1.0140 -0.0677  0.0472
35387SOL    HW114939   2.114   5.051   8.217  0.5568 -0.3963 -0.3591
35387SOL    HW214940   2.166   4.928   8.146 -0.1079  0.5230 -2.5210
35388SOL     OW14941   6.032   6.645   0.634  0.3210 -0.2644  0.8996
35388SOL    HW114942   6.058   6.559   0.601  2.1324  1.0527 -1.3966
35388SOL    HW214943   6.111   6.679   0.676  0.3211  1.1117 -0.1475
35389SOL     OW14944   3.664   9.787   2.840 -0.1005  0.4683  0.1548
35389SOL    HW114945   3.732   9.798   2.907 -1.9722  0.8679  2.1016
35389SOL    HW214946   3.704   9.731   2.774  1.7462 -0.2388  1.7778
35390SOL     OW14947   4.152   5.582   3.018 -0.2202 -0.1497 -0.0163
35390SOL    HW114948   4.102   5.501   3.028 -0.0082 -0.3010 -0.1953
35390SOL    HW214949   4.124   5.637   3.092 -0.8254 -0.1450 -0.2440
35391SOL     OW14950   1.179   4.060   0.970  0.1537  0.3070 -0.9275
35391SOL    HW114951   1.121   3.986   0.954  1.2785 -0.9138  0.4230
35391SOL    HW214952   1.172   4.077   1.064  1.9184  0.1454 -0.7318
35392SOL     OW14953   6.836   6.685   1.648 -0.4802 -0.2210  0.1507
35392SOL    HW114954   6.817   6.737   1.726  2.0818  1.2140 -0.0738
35392SOL    HW214955   6.828   6.594   1.676 -2.3525  0.2386  1.2848
35393SOL     OW14956   3.539   9.152  10.678  0.1060  0.0949 -0.1875
35393SOL    HW114957   3.464   9.102  10.646  1.3159 -2.1044  0.2447
35393SOL    HW214958   3.601   9.152  10.606  0.8937 -0.7208  0.4697
35394SOL     OW14959   4.623   7.951   5.278  0.4025 -0.2807  0.0794
35394SOL    HW114960   4.603   7.937   5.186 -2.3330  0.9696  0.3709
35394SOL    HW214961   4.691   8.018   5.278  0.5465 -0.4089 -1.0345
35395SOL     OW14962  10.901   8.126  11.757 -0.3882  0.4933 -0.4322
35395SOL    HW114963  10.896   8.171  11.672  0.2224  1.2264 -0.0901
35395SOL    HW214964  10.821   8.152  11.802 -0.9181 -0.2284 -0.9340
35396SOL     OW14965   3.351  10.409   3.875 -0.1302 -0.3071 -0.1716
35396SOL    HW114966   3.389  10.372   3.795  0.3588  2.0841 -1.1273
35396SOL    HW214967   3.277  10.461   3.845  0.8315  1.6891  0.7153
35397SOL     OW14968   7.312   4.139   1.908  0.6365 -0.0931 -0.2283
35397SOL    HW114969   7.322   4.182   1.822 -1.0350  2.1890  0.6239
35397SOL    HW214970   7.358   4.197   1.969  0.2328 -0.7124  0.6867
35398SOL     OW14971   1.815   4.269   6.933  0.0793 -0.0686  0.1599
35398SOL    HW114972   1.888   4.318   6.972 -1.0471  1.8066  0.0118
35398SOL    HW214973   1.846   4.245   6.846  1.3610 -1.3477  0.9245
35399SOL     OW14974   9.407  11.011   2.686 -0.6153  0.1591  0.2492
35399SOL    HW114975   9.435  10.936   2.739  1.3362  0.6591  0.0143
35399SOL    HW214976   9.488  11.043   2.645 -1.5943  1.6425 -0.6253
35400SOL     OW14977  10.976   0.206   8.927  0.5318  0.3355  0.0492
35400SOL    HW114978  10.898   0.158   8.954 -0.5962  1.6079 -0.7653
35400SOL    HW214979  10.979   0.195   8.832  1.9453 -0.5167  0.1612
35401SOL     OW14980  11.398   0.714  12.408  0.1464 -0.2896 -0.4655
35401SOL    HW114981  11.322   0.673  12.367  0.9629 -0.8799 -1.4546
35401SOL    HW214982  11.417   0.790  12.353 -0.1720  0.3095  0.2275
35402SOL     OW14983   6.004   9.316   5.300  0.5339  0.4740 -0.4600
35402SOL    HW114984   6.031   9.378   5.232 -1.1017  1.1398 -0.5436
35402SOL    HW214985   5.918   9.347   5.328 -0.4934 -1.9516 -0.7291
35403SOL     OW14986   6.962   7.393   5.778 -0.1141  0.3874 -0.2328
35403SOL    HW114987   6.909   7.326   5.734 -0.8174 -0.6728  2.0740
35403SOL    HW214988   7.019   7.343   5.837 -0.6560  1.7905  1.5506
35404SOL     OW14989   8.290  12.591   2.557  0.2240  0.3077 -0.7150
35404SOL    HW114990   8.372  12.564   2.516  0.5517  0.1354  0.0328
35404SOL    HW214991   8.265  12.671   2.510  1.4276  1.0236 -0.2023
35405SOL     OW14992  10.976   5.355   5.754 -0.6716  0.3134 -0.1382
35405SOL    HW114993  11.064   5.388   5.772 -0.3881 -1.1056  1.3292
35405SOL    HW214994  10.983   5.310   5.670 -0.0463  0.4212 -0.1421
35406SOL     OW14995   5.924  10.517   8.474 -0.4530  0.0083 -0.2687
35406SOL    HW114996   5.961  10.602   8.496  1.5946 -0.7363 -0.6270
35406SOL    HW214997   5.834  10.520   8.508 -0.3238  2.1613  0.0001
35407SOL     OW14998   9.330  10.509  11.818  0.4798  0.3412 -0.1739
35407SOL    HW114999   9.314  10.443  11.750 -1.1195  0.2466  0.2666
35407SOL    HW215000   9.370  10.460  11.890 -1.7978 -0.4580  0.6346
35408SOL     OW15001   3.804  12.152   0.539  0.0968  0.0188  0.2283
35408SOL    HW115002   3.759  12.195   0.467  0.9561  1.1574  0.3465
35408SOL    HW215003   3.883  12.116   0.500  0.3302  0.2296  0.5042
35409SOL     OW15004   4.786   2.125   2.940  0.0744 -1.0831  0.0868
35409SOL    HW115005   4.699   2.117   2.979  0.2527 -1.0481  0.4934
35409SOL    HW215006   4.773   2.180   2.862 -0.3840 -1.6342 -0.2333
35410SOL     OW15007   2.823   4.047   0.300 -0.2209  0.4731 -0.2484
35410SOL    HW115008   2.871   4.049   0.217  0.4918  1.1545  0.1620
35410SOL    HW215009   2.889   4.023   0.366 -1.0766 -1.5086 -0.0435
35411SOL     OW15010   4.226   8.762   9.810  0.0010 -0.0441 -0.7601
35411SOL    HW115011   4.135   8.792   9.811  0.0817  0.2004 -0.3242
35411SOL    HW215012   4.269   8.817   9.745  0.5713  2.1295  1.2894
35412SOL     OW15013   0.093   1.009  11.915 -0.0017  0.3549 -0.1343
35412SOL    HW115014   0.118   1.062  11.991 -0.7507  0.3425  0.1212
35412SOL    HW215015  -0.002   1.007  11.917 -0.0205  0.2078 -0.9813
35413SOL     OW15016   8.299  10.077   7.477  0.3637 -0.4722  0.3099
35413SOL    HW115017   8.297  10.169   7.452 -0.0708 -0.3785  0.6850
35413SOL    HW215018   8.212  10.060   7.512  1.0422 -0.5372  2.0396
35414SOL     OW15019   6.286   5.092   1.517  0.0413  0.0972  0.2891
35414SOL    HW115020   6.284   5.031   1.591  0.2015 -0.8584 -0.4794
35414SOL    HW215021   6.302   5.178   1.557  2.5946 -0.7034  1.2060
35415SOL     OW15022   1.128   9.838   7.477 -0.2561  0.0314  0.0635
35415SOL    HW115023   1.033   9.842   7.484 -0.3445  1.3842 -1.4502
35415SOL    HW215024   1.160   9.882   7.556 -0.9097  0.9448 -0.1721
35416SOL     OW15025   4.800   6.612   9.803  0.2576 -0.2511 -0.3249
35416SOL    HW115026   4.827   6.564   9.725 -1.6458  1.1514 -1.9796
35416SOL    HW215027   4.717   6.653   9.778 -0.2251  0.6040  2.3231
35417SOL     OW15028   3.611   2.246   7.687 -0.0724 -0.6341  0.0987
35417SOL    HW115029   3.570   2.286   7.763 -1.0531 -0.6292 -0.4111
35417SOL    HW215030   3.549   2.178   7.660  0.4940 -0.9589 -0.3989
35418SOL     OW15031   0.331   3.351   9.689 -0.2063  0.2202 -0.8869
35418SOL    HW115032   0.391   3.426   9.695 -0.1350  0.1379 -0.5513
35418SOL    HW215033   0.371   3.294   9.623 -0.5865  0.7678 -1.6094
35419SOL     OW15034  11.289   9.521   9.361  0.3337 -0.0173  0.5920
35419SOL    HW115035  11.276   9.426   9.355  0.8321 -0.0762  0.3980
35419SOL    HW215036  11.345   9.542   9.286 -2.5579  0.9610 -1.5290
35420SOL     OW15037  11.881   2.361   2.796 -0.0616 -0.3614 -0.0879
35420SOL    HW115038  11.929   2.287   2.757 -1.6606 -1.0758 -0.7852
35420SOL    HW215039  11.834   2.323   2.869 -2.4061 -0.5210 -1.5745
35421SOL     OW15040   2.333   7.539   8.757 -0.3736  0.0519 -0.0667
35421SOL    HW115041   2.290   7.460   8.789  0.9657 -0.3149  0.8909
35421SOL    HW215042   2.281   7.566   8.682 -0.8795 -1.6980 -0.3708
35422SOL     OW15043   6.570   2.866   6.609  0.1440  0.2277  0.7870
35422SOL    HW115044   6.660   2.887   6.632 -0.2842  1.1505  1.7143
35422SOL    HW215045   6.558   2.902   6.521  0.5925  0.3518  0.7726
35423SOL     OW15046  12.472  10.863   2.405 -0.1634 -0.1828  0.0508
35423SOL    HW115047  12.524  10.832   2.330 -0.9929 -0.8109 -0.2780
35423SOL    HW215048  12.381  10.843   2.381 -0.5224  0.4894  0.8143
35424SOL     OW15049   0.359   3.498   7.841  0.1372  0.4998 -0.1217
35424SOL    HW115050   0.452   3.507   7.862 -0.3063  0.3117  2.2263
35424SOL    HW215051   0.314   3.538   7.916 -1.6736 -0.7106 -0.5083
35425SOL     OW15052   4.550   8.583   0.740 -0.6863  0.0976 -0.2927
35425SOL    HW115053   4.637   8.589   0.701 -0.0394 -2.0665  0.6835
35425SOL    HW215054   4.494   8.635   0.681  1.1284  1.1110 -1.2172
35426SOL     OW15055   7.438   4.726   5.746  0.0958 -0.3155 -0.7556
35426SOL    HW115056   7.496   4.655   5.717 -1.0821 -0.5659 -2.7084
35426SOL    HW215057   7.487   4.806   5.728 -0.0856 -0.5250 -2.3454
35427SOL     OW15058   4.024  10.038  11.585 -0.0543 -0.4059 -0.1639
35427SOL    HW115059   4.005   9.945  11.577  2.9373 -1.0812 -0.4898
35427SOL    HW215060   4.075  10.047  11.665  1.0840  0.6705 -0.9650
35428SOL     OW15061   6.285   5.910   0.080  0.0973  0.7509  0.2133
35428SOL    HW115062   6.286   5.956   0.165 -0.1788  0.9837  0.0948
35428SOL    HW215063   6.353   5.844   0.088 -0.4295  0.2676  0.9010
35429SOL     OW15064   2.280  10.716   2.545 -0.0718 -0.4366 -0.4854
35429SOL    HW115065   2.352  10.699   2.606 -0.0251 -0.5466 -0.5717
35429SOL    HW215066   2.322  10.753   2.468 -0.1289 -0.3214 -0.4622
35430SOL     OW15067   6.046   2.823   6.158  0.0986 -0.4692 -0.3074
35430SOL    HW115068   6.105   2.748   6.151  1.4109  0.6459 -1.8021
35430SOL    HW215069   5.962   2.790   6.126  0.7840 -1.1925 -1.4133
35431SOL     OW15070   7.003  10.908   4.277 -0.4037 -0.0707 -1.0645
35431SOL    HW115071   7.012  10.992   4.232 -1.8618  0.0937 -1.1024
35431SOL    HW215072   7.051  10.919   4.359 -0.8863  0.9339 -0.9085
35432SOL     OW15073   2.408   8.938  11.023 -0.0788 -0.2845 -0.3837
35432SOL    HW115074   2.316   8.939  11.050 -0.2152 -2.5851 -0.6059
35432SOL    HW215075   2.406   8.939  10.928  0.2312  1.3542 -0.4136
35433SOL     OW15076   3.721   2.057   3.415 -0.4856  0.0455  0.2692
35433SOL    HW115077   3.773   1.987   3.454 -0.4246 -0.9134 -1.4339
35433SOL    HW215078   3.754   2.066   3.325 -1.7765  0.9300 -0.1622
35434SOL     OW15079  12.029  11.625   4.990 -0.5967  0.3058  0.1137
35434SOL    HW115080  12.037  11.656   5.081 -1.9450  0.9113  0.0420
35434SOL    HW215081  11.981  11.694   4.945  0.7979  0.4204 -1.2971
35435SOL     OW15082   4.926   6.846   0.347  0.4314 -0.5153  0.0947
35435SOL    HW115083   4.917   6.807   0.434  0.9751  0.9475  0.8589
35435SOL    HW215084   4.923   6.941   0.364  1.1171 -0.2024 -1.4147
35436SOL     OW15085   2.883  11.189   7.560  0.2459 -0.4774 -0.1809
35436SOL    HW115086   2.801  11.140   7.550 -0.1572  0.4457 -1.5119
35436SOL    HW215087   2.856  11.281   7.565  1.1863 -0.1786 -0.4303
35437SOL     OW15088   9.353  11.953   4.752  0.6345  0.0161 -0.2375
35437SOL    HW115089   9.301  11.896   4.695  1.2398 -1.1622  0.3521
35437SOL    HW215090   9.438  11.910   4.758  0.9999  0.8123  0.5100
35438SOL     OW15091   0.117   6.562   4.741  0.1430  0.2569 -0.4977
35438SOL    HW115092   0.068   6.519   4.671 -0.2959  0.9521 -0.6261
35438SOL    HW215093   0.166   6.632   4.697  0.9555 -0.1847 -0.3121
35439SOL     OW15094   5.779  12.543  11.394 -0.7446  0.0574  0.3191
35439SOL    HW115095   5.752  12.583  11.311 -0.8621  2.3515  1.3838
35439SOL    HW215096   5.700  12.545  11.448 -0.6200 -1.2477  0.5942
35440SOL     OW15097  11.750   5.942   6.140  0.6760  0.4485  0.1328
35440SOL    HW115098  11.740   6.026   6.183 -3.8754  0.9039 -1.2618
35440SOL    HW215099  11.783   5.963   6.053 -1.5759  1.1130 -0.6437
35441SOL     OW15100   2.966   9.825   7.150 -0.4816  0.6878 -0.4583
35441SOL    HW115101   3.039   9.847   7.092 -0.8771  2.4116 -0.3540
35441SOL    HW215102   3.004   9.769   7.217  0.7691  1.6375 -0.3558
35442SOL     OW15103  12.273  11.763   7.348 -0.0687 -0.1706  0.0570
35442SOL    HW115104  12.340  11.797   7.406  0.5671 -0.5698 -0.4312
35442SOL    HW215105  12.202  11.736   7.407  0.2029  0.2374  0.5757
35443SOL     OW15106   6.267   8.198   6.630  0.3978 -0.5366 -0.0610
35443SOL    HW115107   6.273   8.106   6.606  0.5402 -0.2899 -0.9918
35443SOL    HW215108   6.316   8.244   6.562 -1.9827  0.4782 -1.1892
35444SOL     OW15109   6.822   5.728   4.066  0.0242  0.6595 -0.0753
35444SOL    HW115110   6.812   5.739   3.972 -1.5413  0.2420  0.0185
35444SOL    HW215111   6.771   5.650   4.087 -1.5795  2.0464  1.4364
35445SOL     OW15112   0.953  10.134  11.091  0.4001 -0.6873  0.4556
35445SOL    HW115113   0.870  10.088  11.103  0.0650 -0.7064 -1.5989
35445SOL    HW215114   0.938  10.221  11.129 -0.8973 -0.3980 -0.6232
35446SOL     OW15115   1.831   0.094  12.073  0.4632  0.3077 -0.2323
35446SOL    HW115116   1.791   0.175  12.105  2.6299  1.2208  0.2998
35446SOL    HW215117   1.770   0.025  12.102 -0.2422  1.5301  1.3989
35447SOL     OW15118  11.746   1.763  11.348  0.1404 -0.0444  0.2543
35447SOL    HW115119  11.695   1.744  11.269 -0.0692 -2.9525  0.9781
35447SOL    HW215120  11.684   1.805  11.407 -0.7977 -1.3158  0.2243
35448SOL     OW15121   8.290   7.650   1.287 -0.0957  0.4340 -0.1836
35448SOL    HW115122   8.272   7.659   1.380 -2.5365 -1.4962 -0.3672
35448SOL    HW215123   8.378   7.611   1.283 -0.5515 -0.8738  1.4071
35449SOL     OW15124   1.205   6.520  12.167 -0.1044  0.4024 -0.0630
35449SOL    HW115125   1.169   6.601  12.129  0.5943  0.6411 -0.2325
35449SOL    HW215126   1.290   6.509  12.125 -0.7279 -1.1332 -1.0018
35450SOL     OW15127   6.855  10.854  12.539 -0.0549  0.1619  0.7574
35450SOL    HW115128   6.816  10.919  12.480  2.4806  2.0138  0.9615
35450SOL    HW215129   6.895  10.789  12.480  2.9385  2.2825  0.2204
35451SOL     OW15130   7.820   6.275   7.811  0.0331 -0.8152  0.1333
35451SOL    HW115131   7.890   6.329   7.774 -1.4019  1.7836  0.9593
35451SOL    HW215132   7.743   6.331   7.809 -1.2064 -2.2470  2.5787
35452SOL     OW15133  12.333   2.302   0.742  0.3615 -0.1369 -0.1868
35452SOL    HW115134  12.361   2.275   0.655  2.1767  1.3362 -0.1128
35452SOL    HW215135  12.257   2.358   0.727 -0.0720 -0.8489 -0.7095
35453SOL     OW15136  11.711   0.787   9.556  0.2131  0.0877  0.3970
35453SOL    HW115137  11.731   0.876   9.526  0.2438  0.1482  0.5926
35453SOL    HW215138  11.796   0.743   9.557  0.3747  0.3883  1.3705
35454SOL     OW15139  11.954   5.457  10.739 -0.1228  0.9511 -0.0559
35454SOL    HW115140  11.952   5.384  10.677  0.4283  1.0276 -0.1697
35454SOL    HW215141  12.045   5.462  10.767 -0.4654  0.5423  1.2186
35455SOL     OW15142   2.678   7.675   5.460 -0.3761 -0.2313 -0.4892
35455SOL    HW115143   2.634   7.749   5.419 -1.1270 -0.8140 -0.7575
35455SOL    HW215144   2.612   7.605   5.461  0.1742 -0.7572  0.1624
35456SOL     OW15145  12.268   6.668   0.415  0.0080 -0.6735 -1.0355
35456SOL    HW115146  12.241   6.577   0.408 -0.7430 -0.6329  0.8425
35456SOL    HW215147  12.185   6.717   0.424  0.4854 -0.1256  0.7667
35457SOL     OW15148  11.185   1.430  11.202 -0.2859  0.1929 -0.5599
35457SOL    HW115149  11.135   1.454  11.124  0.0419  0.4317 -0.7023
35457SOL    HW215150  11.124   1.440  11.274 -1.1153 -1.7284 -0.9567
35458SOL     OW15151   7.248   2.035   4.737  0.1747 -0.7266  0.3896
35458SOL    HW115152   7.316   1.975   4.708  0.1268  0.7678 -3.4870
35458SOL    HW215153   7.169   2.005   4.693 -0.1049  1.3147 -0.6557
35459SOL     OW15154  10.818   8.084   8.883 -0.1660 -0.0438 -0.0705
35459SOL    HW115155  10.824   8.049   8.972  2.5342  0.9745  0.2559
35459SOL    HW215156  10.901   8.059   8.842 -0.9569  0.3250 -2.0240
35460SOL     OW15157  10.990   4.605   4.492 -0.2076  0.4589  0.0070
35460SOL    HW115158  10.915   4.631   4.546 -0.2048 -0.2316  0.3495
35460SOL    HW215159  11.064   4.654   4.528 -0.8080  2.6498 -1.5421
35461SOL     OW15160   8.383   8.224   2.154 -0.5322  0.8907  0.2224
35461SOL    HW115161   8.405   8.139   2.193 -0.1204  0.4083 -1.0332
35461SOL    HW215162   8.380   8.208   2.060 -1.4804  2.0459  0.0295
35462SOL     OW15163   2.065   8.862   6.218 -0.0286  0.1551  0.0793
35462SOL    HW115164   2.114   8.823   6.146  1.9090  1.4669  0.6062
35462SOL    HW215165   2.032   8.945   6.183 -1.2172 -0.3322 -0.0095
35463SOL     OW15166   6.578   1.694   4.600  0.5831 -0.1216  0.0234
35463SOL    HW115167   6.546   1.604   4.589 -0.0177  0.0777  0.1174
35463SOL    HW215168   6.508   1.749   4.565  0.9890  0.3100 -0.1203
35464SOL     OW15169   2.846   3.982   0.987 -0.3214  0.0825  0.0930
35464SOL    HW115170   2.817   3.950   0.902 -0.0686 -1.7810  0.6776
35464SOL    HW215171   2.893   3.909   1.026 -0.0946  1.0314  1.6828
35465SOL     OW15172   3.183   5.805   1.880  0.5782  0.6110  0.1065
35465SOL    HW115173   3.242   5.769   1.814 -2.0165  0.2951 -2.2156
35465SOL    HW215174   3.239   5.861   1.934  3.3431 -1.2423 -0.6249
35466SOL     OW15175  10.469   3.435   0.979 -0.4226 -0.4724 -0.4957
35466SOL    HW115176  10.492   3.461   1.068  1.2154 -0.8371 -0.7671
35466SOL    HW215177  10.553   3.411   0.940 -1.0363  0.2304 -2.3234
35467SOL     OW15178   6.596   7.034   2.180 -0.4734 -0.1513 -0.3301
35467SOL    HW115179   6.558   7.031   2.268 -0.3039 -0.4298 -0.2646
35467SOL    HW215180   6.636   7.121   2.174 -1.3277  0.2414 -0.4863
35468SOL     OW15181   9.263   1.436   3.568  0.5230 -0.2208 -0.4237
35468SOL    HW115182   9.326   1.475   3.629 -0.5658  0.2720  0.4141
35468SOL    HW215183   9.236   1.355   3.611 -0.1946  0.0930 -0.2756
35469SOL     OW15184   9.891   3.586   3.697  0.2370  0.4809  0.3761
35469SOL    HW115185   9.832   3.649   3.740  2.8898  2.0934  1.9939
35469SOL    HW215186   9.907   3.519   3.764  0.5924  0.3216  0.1338
35470SOL     OW15187   1.141  11.247   4.814  0.0009  0.0492 -0.3952
35470SOL    HW115188   1.089  11.224   4.891  2.2005 -0.0477  1.1713
35470SOL    HW215189   1.110  11.333   4.788  1.0390  1.3589  2.3815
35471SOL     OW15190   5.799   6.657   0.789  0.3786 -0.4491  0.4856
35471SOL    HW115191   5.894   6.667   0.783  0.3840 -1.3849 -2.0068
35471SOL    HW215192   5.765   6.746   0.788  1.1646 -0.1239 -1.2595
35472SOL     OW15193   8.199   7.420   0.178  0.0243 -0.1464 -0.0706
35472SOL    HW115194   8.127   7.465   0.133  1.3326 -0.1507 -2.3091
35472SOL    HW215195   8.155   7.361   0.239 -1.8130  1.2266  0.0508
35473SOL     OW15196   7.976   2.878   7.778  0.1934  0.4528  0.1494
35473SOL    HW115197   7.990   2.932   7.701  0.5544 -1.1270 -0.9485
35473SOL    HW215198   7.901   2.822   7.755 -0.2447  0.5386  1.2876
35474SOL     OW15199  12.472  12.492   8.085 -0.2042  0.0189  0.0910
35474SOL    HW115200  12.432  12.571   8.123 -1.2297  0.9943 -2.6972
35474SOL    HW215201  12.563  12.495   8.113 -0.8711  0.5905  2.4020
35475SOL     OW15202   0.313   2.451   9.764  0.2594  0.8460 -0.2834
35475SOL    HW115203   0.358   2.446   9.680 -3.1976 -1.4836 -2.2508
35475SOL    HW215204   0.231   2.496   9.746 -0.9327 -0.3862  1.5943
35476SOL     OW15205   7.034  10.398  10.099 -0.0394 -0.1606 -0.6676
35476SOL    HW115206   7.081  10.435  10.174 -0.7731  1.5512 -1.0220
35476SOL    HW215207   7.029  10.304  10.119  0.6562  0.1091  0.9402
35477SOL     OW15208  10.025   9.135   4.855 -0.2017 -0.1169  0.1769
35477SOL    HW115209   9.934   9.108   4.869 -0.2927 -0.2988 -0.7429
35477SOL    HW215210  10.020   9.202   4.787  0.4264 -0.6916 -0.4557
35478SOL     OW15211  10.551   3.567   0.188 -0.1490 -0.6258  0.1781
35478SOL    HW115212  10.488   3.602   0.251  0.9956  1.2347  0.3623
35478SOL    HW215213  10.496   3.524   0.122 -1.5449 -0.0369  0.8940
35479SOL     OW15214  10.778   5.939   7.212 -0.3581 -0.3387  0.0433
35479SOL    HW115215  10.739   5.965   7.128  1.3176  0.4408 -0.5385
35479SOL    HW215216  10.811   5.851   7.197  0.5085  0.0370 -0.3551
35480SOL     OW15217   7.932   9.796  10.289 -0.0625 -0.1988  0.5435
35480SOL    HW115218   7.974   9.870  10.245 -1.3199  0.8150  0.9937
35480SOL    HW215219   7.973   9.719  10.250 -1.0515  0.6351 -2.3969
35481SOL     OW15220   8.246   1.641   8.279  0.1380  0.1000 -0.2893
35481SOL    HW115221   8.272   1.611   8.192  1.1914 -3.7608  1.1810
35481SOL    HW215222   8.153   1.660   8.271  0.0791 -0.7347 -2.1324
35482SOL     OW15223   7.133   1.218   9.695  0.2660  0.0009  0.2013
35482SOL    HW115224   7.211   1.202   9.641  0.8984 -0.0153  1.0994
35482SOL    HW215225   7.146   1.305   9.730 -1.1460  0.8803 -1.2925
35483SOL     OW15226  11.366  10.220  10.632 -0.1240 -0.1478  0.3984
35483SOL    HW115227  11.391  10.232  10.724  1.3243  1.7090 -0.1780
35483SOL    HW215228  11.448  10.222  10.584 -0.8307 -1.4961 -0.9453
35484SOL     OW15229   5.300  11.784  10.303  0.9951  0.7079 -0.3545
35484SOL    HW115230   5.363  11.790  10.375  1.8048 -0.3665 -0.9333
35484SOL    HW215231   5.234  11.850  10.323 -0.1645 -1.1636  2.6731
35485SOL     OW15232   8.710   1.675  10.373 -0.0872  0.1031 -0.3945
35485SOL    HW115233   8.639   1.621  10.407 -0.0654 -0.5725 -1.3740
35485SOL    HW215234   8.757   1.704  10.451 -1.7534  1.0530  0.3280
35486SOL     OW15235   0.330   3.310   4.518  0.0756  0.1024 -0.6231
35486SOL    HW115236   0.252   3.260   4.496  1.6605 -2.8399 -0.0314
35486SOL    HW215237   0.313   3.346   4.605 -1.0098  0.4326 -0.9613
35487SOL     OW15238   6.869   4.618   0.855  0.7440 -0.1918  0.9074
35487SOL    HW115239   6.950   4.581   0.891  1.1551 -0.9044 -0.6243
35487SOL    HW215240   6.846   4.559   0.783  1.1140  2.1418 -1.3028
35488SOL     OW15241   3.196   5.494  12.482 -0.1857  0.5213  0.2491
35488SOL    HW115242   3.250   5.444  12.421  0.6817  1.9024 -0.1657
35488SOL    HW215243   3.257   5.555  12.523 -0.6095 -0.8108  3.0595
35489SOL     OW15244   0.944   2.436   0.150  0.1882 -0.5001 -0.7044
35489SOL    HW115245   0.855   2.432   0.117  0.6479  0.2454 -2.1273
35489SOL    HW215246   0.999   2.437   0.072  1.3868  0.2962  0.1047
35490SOL     OW15247   7.086   6.848   8.135 -0.5132  0.0533 -0.3995
35490SOL    HW115248   7.059   6.910   8.203 -0.1473 -0.8682  0.6077
35490SOL    HW215249   7.041   6.879   8.056 -0.8677  1.2039  0.2275
35491SOL     OW15250   8.901   6.230  10.621 -0.2780 -0.4108  0.2099
35491SOL    HW115251   8.847   6.301  10.655  0.9200  0.0908  1.1014
35491SOL    HW215252   8.891   6.160  10.685 -0.8250 -0.7835 -0.2647
35492SOL     OW15253  10.698   1.190   5.362 -0.3574  0.2921 -0.9104
35492SOL    HW115254  10.765   1.259   5.361  0.3039 -0.3500 -1.4102
35492SOL    HW215255  10.705   1.147   5.277  0.1106 -1.2279 -0.1386
35493SOL     OW15256   6.239   7.926   0.554  0.0091  0.4590  0.2185
35493SOL    HW115257   6.241   7.881   0.638 -0.3810 -0.1019 -0.0681
35493SOL    HW215258   6.312   7.889   0.504 -0.9357 -0.6419 -0.4011
35494SOL     OW15259   4.657   5.656   2.990  0.8860 -0.2889 -0.4681
35494SOL    HW115260   4.590   5.636   2.925 -0.1641  2.8717 -0.5028
35494SOL    HW215261   4.630   5.607   3.068 -1.8446  1.2475 -0.3291
35495SOL     OW15262  12.392   8.053   1.004 -0.7080 -0.0363 -0.2523
35495SOL    HW115263  12.332   8.012   0.941  0.2571  0.2004 -1.3676
35495SOL    HW215264  12.444   7.981   1.038  0.1405  0.0853 -1.2678
35496SOL     OW15265   0.288  10.399   6.759 -0.4510  0.3787 -0.3892
35496SOL    HW115266   0.311  10.395   6.851 -0.3242 -0.0421 -0.4397
35496SOL    HW215267   0.305  10.490   6.734 -1.4866  0.7738  0.2624
35497SOL     OW15268   8.010   2.081   5.042 -0.3757  0.2535  1.1262
35497SOL    HW115269   7.965   2.164   5.025 -0.3483  0.5868  2.6053
35497SOL    HW215270   8.097   2.092   5.004 -0.0303  1.2802  2.2035
35498SOL     OW15271   4.843  11.294   1.239 -0.3538 -0.4277 -0.3307
35498SOL    HW115272   4.806  11.379   1.216  0.8314  0.2689  0.2759
35498SOL    HW215273   4.789  11.264   1.313  2.1338  2.0877  2.7731
35499SOL     OW15274   3.894  11.003  12.038  0.3080 -0.1010 -0.2518
35499SOL    HW115275   3.825  11.005  12.104  1.0647 -0.0331  0.5512
35499SOL    HW215276   3.925  10.912  12.038  0.6332  0.0098 -0.1771
35500SOL     OW15277   8.819   6.615   0.737 -0.3493 -0.0903 -0.3412
35500SOL    HW115278   8.784   6.611   0.648 -1.6497  0.9304  0.0963
35500SOL    HW215279   8.743   6.636   0.792  0.6313  0.3934  0.8784
35501SOL     OW15280  12.229   3.921   4.712  0.2524  0.1588 -0.1931
35501SOL    HW115281  12.148   3.901   4.666 -1.8077  3.7768  1.4374
35501SOL    HW215282  12.281   3.972   4.649 -0.7288  1.5276  0.0575
35502SOL     OW15283   6.436  10.729   9.189  0.0130 -0.1636 -0.3149
35502SOL    HW115284   6.438  10.805   9.130 -2.0452 -1.1045 -1.7232
35502SOL    HW215285   6.490  10.663   9.146 -1.4214 -0.8214 -1.1873
35503SOL     OW15286   4.654   1.638   2.483 -0.5473  0.9442  0.5882
35503SOL    HW115287   4.639   1.580   2.409 -1.3156  2.7396 -0.7330
35503SOL    HW215288   4.737   1.682   2.462  0.5579 -0.3237  2.0622
35504SOL     OW15289   9.300  12.578   9.071 -0.1835  0.5025 -0.0361
35504SOL    HW115290   9.244  12.627   9.011  1.7599  0.7507 -1.7490
35504SOL    HW215291   9.389  12.598   9.042  0.8267  0.1389  2.5775
35505SOL     OW15292  10.661   1.732   0.040 -0.0403  0.0708  0.4735
35505SOL    HW115293  10.689   1.747  -0.050 -1.4207 -0.1466 -0.0265
35505SOL    HW215294  10.741   1.715   0.089  0.6166 -1.3653 -1.0261
35506SOL     OW15295   7.943   6.295  11.761  0.7834  0.0613 -0.1017
35506SOL    HW115296   7.940   6.206  11.725  2.4013  0.4529 -1.3519
35506SOL    HW215297   8.033   6.304  11.793  1.1203  1.6982 -1.3469
35507SOL     OW15298   0.349   8.828   0.230  0.4462 -0.6512 -0.3392
35507SOL    HW115299   0.259   8.859   0.237  0.9221  0.5998  0.4125
35507SOL    HW215300   0.383   8.870   0.151  1.3059  1.4363  1.0475
35508SOL     OW15301   9.025   1.618   1.875  0.3240 -0.1898  0.2649
35508SOL    HW115302   9.044   1.685   1.941  1.4253 -0.7439  0.5293
35508SOL    HW215303   8.934   1.635   1.850  0.1679  0.5845  1.2705
35509SOL     OW15304   3.254   5.654   8.888 -0.1827 -0.4939 -0.3654
35509SOL    HW115305   3.163   5.631   8.904 -0.0305 -0.9721 -0.1894
35509SOL    HW215306   3.254   5.694   8.801 -0.7947  0.8603  0.2326
35510SOL     OW15307   0.887   1.293   1.959  0.7212 -0.9324  0.1229
35510SOL    HW115308   0.816   1.258   1.905  0.4627  0.2113 -0.3175
35510SOL    HW215309   0.850   1.372   1.999  2.3947  1.1338 -2.0534
35511SOL     OW15310   5.441   1.946   1.636  0.2881 -0.3193 -0.4115
35511SOL    HW115311   5.426   1.893   1.714  1.1761 -1.6923 -1.1264
35511SOL    HW215312   5.390   2.025   1.650  0.6115 -0.4374  1.6464
35512SOL     OW15313   0.014   5.248   4.796  0.3700  0.5285  0.6587
35512SOL    HW115314  -0.035   5.318   4.839  0.0967  0.5383  0.3396
35512SOL    HW215315   0.040   5.189   4.866  2.0654  1.8050  1.1961
35513SOL     OW15316  12.434   7.615   0.699 -1.0904 -0.0887 -0.2869
35513SOL    HW115317  12.398   7.668   0.771  1.0139  0.2209  0.5921
35513SOL    HW215318  12.452   7.530   0.738 -0.4453 -0.0966 -0.5932
35514SOL     OW15319   4.070  10.741   6.743 -0.2574  0.3580  0.2662
35514SOL    HW115320   4.004  10.703   6.800  1.0986  0.9661  2.3625
35514SOL    HW215321   4.097  10.669   6.685 -0.0627 -0.9895  1.9561
35515SOL     OW15322   2.058   5.664  10.042 -0.5090  0.8448  0.2053
35515SOL    HW115323   2.143   5.622  10.056 -0.4039  1.1174  0.3905
35515SOL    HW215324   2.028   5.686  10.130  0.7501  3.7499  0.0068
35516SOL     OW15325   1.518   0.382   5.533 -0.3857  0.3987 -0.6675
35516SOL    HW115326   1.488   0.405   5.621 -1.1577  1.3020 -1.1629
35516SOL    HW215327   1.499   0.288   5.526  0.2682  0.1693  0.3481
35517SOL     OW15328  10.630   2.533   3.676 -0.4647  0.0381  0.8146
35517SOL    HW115329  10.599   2.449   3.642  2.6414 -1.2532  0.9004
35517SOL    HW215330  10.718   2.543   3.640 -0.1433  2.5154  2.0910
35518SOL     OW15331  12.491   3.910   6.071  0.0571 -0.5764 -0.7555
35518SOL    HW115332  12.514   3.999   6.046 -0.6705  0.2076  1.1566
35518SOL    HW215333  12.575   3.864   6.077  0.6101  0.5035  0.0336
35519SOL     OW15334   4.196   2.622   1.349 -0.5327 -0.8286 -0.1242
35519SOL    HW115335   4.113   2.667   1.364  1.4076  3.1825 -0.1956
35519SOL    HW215336   4.191   2.590   1.259 -1.7140  0.1230 -0.4169
35520SOL     OW15337  11.068   4.349   7.288 -0.1790  0.1356  0.6228
35520SOL    HW115338  11.135   4.283   7.304  0.1848  0.2125 -0.5121
35520SOL    HW215339  11.116   4.430   7.277 -0.3736  0.0868 -0.8340
35521SOL     OW15340   7.098   0.358   5.172  0.6381 -0.3041 -0.2767
35521SOL    HW115341   7.134   0.433   5.219 -0.0932 -0.1551  0.0550
35521SOL    HW215342   7.130   0.282   5.221  2.3132 -0.2875 -1.2565
35522SOL     OW15343  10.755  10.510   1.713 -0.2916  0.1858 -0.0726
35522SOL    HW115344  10.672  10.546   1.744  0.2215  1.2312  0.1521
35522SOL    HW215345  10.812  10.511   1.790 -0.4634 -1.8471  0.1286
35523SOL     OW15346   2.533  11.285   3.597  0.2346  0.1478 -0.0050
35523SOL    HW115347   2.513  11.309   3.687  0.2274 -0.5731  0.1930
35523SOL    HW215348   2.544  11.369   3.551  2.1739  0.5293  1.0804
35524SOL     OW15349   9.821   4.092   1.587  0.1610  0.1087 -0.7545
35524SOL    HW115350   9.777   4.033   1.649  1.2965  1.5107  1.5153
35524SOL    HW215351   9.770   4.173   1.592  0.4159  0.3150 -1.4840
35525SOL     OW15352   8.701  10.628  12.600 -0.6759 -0.0679 -0.4418
35525SOL    HW115353   8.675  10.718  12.615  0.4368  0.2908 -0.5504
35525SOL    HW215354   8.793  10.625  12.626  0.0853 -0.4947 -2.9336
35526SOL     OW15355   2.574   7.580   4.862 -0.1486 -0.4861 -0.0511
35526SOL    HW115356   2.615   7.529   4.792  2.2566  2.5140 -1.0830
35526SOL    HW215357   2.640   7.582   4.931 -0.7581  0.0952  0.5211
35527SOL     OW15358   3.133   6.629   2.624 -0.6782  0.1708  0.4823
35527SOL    HW115359   3.045   6.653   2.595 -0.2454 -1.4854 -2.6218
35527SOL    HW215360   3.191   6.687   2.576  0.0136 -1.1010 -0.2740
35528SOL     OW15361   9.399   3.330  11.527 -0.2649 -0.0857 -0.4136
35528SOL    HW115362   9.328   3.309  11.588 -0.2805  1.6502  0.2414
35528SOL    HW215363   9.357   3.338  11.442 -0.8647  0.8135 -0.0494
35529SOL     OW15364  12.515  12.514   6.322 -0.1661 -0.3051 -0.3616
35529SOL    HW115365  12.608  12.516   6.304  0.2644 -0.5459  1.6118
35529SOL    HW215366  12.484  12.433   6.282  0.5055 -0.3201 -0.8549
35530SOL     OW15367   4.853   7.430   6.483 -0.5473 -0.4159 -0.3586
35530SOL    HW115368   4.786   7.374   6.446 -2.1225  1.6516 -0.8336
35530SOL    HW215369   4.909   7.371   6.534 -1.5691 -2.4931 -1.5274
35531SOL     OW15370   5.375   7.054  11.314  0.0324 -0.6153 -0.9591
35531SOL    HW115371   5.413   7.009  11.390 -0.5445  1.1386  0.4499
35531SOL    HW215372   5.359   6.985  11.250  1.3636 -2.0317  0.1715
35532SOL     OW15373   4.859  10.911   8.562  0.2841  0.4491  0.3435
35532SOL    HW115374   4.767  10.918   8.588  0.1208  1.8341 -0.5180
35532SOL    HW215375   4.856  10.880   8.471  0.7111 -0.2469  0.5552
35533SOL     OW15376  10.935   4.493  11.676  0.0208  0.3252 -0.0264
35533SOL    HW115377  10.977   4.444  11.747 -0.0705  0.9945  0.4941
35533SOL    HW215378  10.947   4.585  11.699  1.2639  0.6043 -1.6223
35534SOL     OW15379   0.664   4.155   2.974  0.0689 -0.4058 -0.0639
35534SOL    HW115380   0.569   4.169   2.977 -0.3011 -2.7929  1.4736
35534SOL    HW215381   0.678   4.099   2.898  0.5395  1.4203 -1.3891
35535SOL     OW15382   8.404   1.520   2.811 -0.4247 -0.3841  0.1751
35535SOL    HW115383   8.498   1.510   2.822  0.1161  1.2201 -2.1339
35535SOL    HW215384   8.376   1.438   2.769  0.3909 -0.0435 -1.1071
35536SOL     OW15385   7.706  11.468   0.672 -0.7926 -0.1325  0.0451
35536SOL    HW115386   7.740  11.540   0.725  0.8630  0.0063 -1.1356
35536SOL    HW215387   7.706  11.501   0.582 -3.0957 -0.5322 -0.1655
35537SOL     OW15388   1.868  11.967   9.513  0.8223 -0.1348 -0.5060
35537SOL    HW115389   1.949  11.970   9.462 -0.4853  1.5258 -2.6675
35537SOL    HW215390   1.819  11.894   9.475  0.3494  0.3358 -0.8115
35538SOL     OW15391   2.961   0.480  11.249  0.5684  0.2596  0.1096
35538SOL    HW115392   2.958   0.456  11.342  1.8825 -1.0071 -0.1454
35538SOL    HW215393   3.050   0.513  11.236  1.1530 -1.6531 -1.1452
35539SOL     OW15394   9.856   6.126   6.948  0.3230 -0.6313  0.2715
35539SOL    HW115395   9.902   6.047   6.919 -0.9926 -2.6198  3.1750
35539SOL    HW215396   9.877   6.133   7.041 -2.1973  0.5579  0.8142
35540SOL     OW15397   6.024  10.175   3.743  0.1745 -0.1870  0.1463
35540SOL    HW115398   5.958  10.222   3.692 -0.4180 -0.4568  0.6489
35540SOL    HW215399   5.977  10.143   3.819  0.5960 -1.4895 -0.1163
35541SOL     OW15400  11.842   2.320   4.239  0.2447 -0.2107 -0.3472
35541SOL    HW115401  11.923   2.278   4.210  0.2304  0.0268 -0.7354
35541SOL    HW215402  11.801   2.256   4.297  0.0252 -0.8859 -1.2394
35542SOL     OW15403   9.932   8.025   3.543  0.4369  0.2868 -0.0752
35542SOL    HW115404   9.921   8.037   3.449  0.5945 -2.6521 -0.5796
35542SOL    HW215405  10.026   8.010   3.554  0.2239 -0.9245  0.2749
35543SOL     OW15406   2.628   2.088   1.413  0.5411  0.0292  0.4744
35543SOL    HW115407   2.548   2.037   1.409  0.2657  0.4891 -0.2534
35543SOL    HW215408   2.614   2.150   1.485 -0.4592  1.2022 -0.6655
35544SOL     OW15409   4.480   6.495   5.631  0.3232  0.2837 -0.4052
35544SOL    HW115410   4.571   6.524   5.637  0.0028  1.1628  0.3998
35544SOL    HW215411   4.429   6.575   5.624 -0.3034 -0.2290 -2.7677
35545SOL     OW15412  10.748   1.028  11.437 -0.3963  0.7539  0.4499
35545SOL    HW115413  10.731   0.959  11.500  0.7590 -1.3624 -1.4018
35545SOL    HW215414  10.840   1.015  11.412 -1.0646  0.8150 -2.3480
35546SOL     OW15415   7.842  11.410   3.351  0.3121  0.6776 -0.0183
35546SOL    HW115416   7.875  11.445   3.434 -0.6099 -1.5833  1.3762
35546SOL    HW215417   7.865  11.317   3.353  0.5128  0.6104 -2.4679
35547SOL     OW15418  10.978   0.863   3.133 -0.6456 -0.5118  0.1648
35547SOL    HW115419  10.896   0.896   3.096  0.3390  1.7542 -0.1923
35547SOL    HW215420  11.032   0.840   3.057  0.3828  1.5940  0.1848
35548SOL     OW15421  11.666   7.423   6.471  0.2334  0.2999 -0.1748
35548SOL    HW115422  11.599   7.369   6.513  1.2246 -0.1005  0.9230
35548SOL    HW215423  11.688   7.376   6.391 -0.7853  0.4401 -0.5580
35549SOL     OW15424  10.571   7.054   2.926 -0.3617 -0.0571 -0.4669
35549SOL    HW115425  10.544   6.982   2.869 -0.6480 -1.3159  1.1835
35549SOL    HW215426  10.491   7.083   2.968  0.1387 -0.6994  0.9861
35550SOL     OW15427   6.728   2.503   7.024  0.6563  0.3941  0.3704
35550SOL    HW115428   6.715   2.527   6.933  2.9413  1.7888  0.3295
35550SOL    HW215429   6.740   2.586   7.070  2.7155 -0.3791  1.3528
35551SOL     OW15430   3.427  12.246  11.384 -0.4069  0.4351  0.7204
35551SOL    HW115431   3.395  12.158  11.363 -1.8157  0.8560  0.9968
35551SOL    HW215432   3.467  12.236  11.471 -3.9707  0.7301  2.5997
35552SOL     OW15433   3.280   2.146   6.032  0.3110 -0.1148  0.1970
35552SOL    HW115434   3.355   2.149   6.092 -1.0908 -0.9998  2.1292
35552SOL    HW215435   3.269   2.053   6.013  0.7493  0.1590 -1.5369
35553SOL     OW15436   5.240   7.906   5.060 -0.2485 -0.1819  0.4594
35553SOL    HW115437   5.312   7.940   5.007  0.0557 -0.8711  0.4252
35553SOL    HW215438   5.263   7.931   5.150 -0.1928 -0.0031  0.3953
35554SOL     OW15439   6.925   3.105   1.825  0.2737  0.0062 -0.5414
35554SOL    HW115440   6.935   3.145   1.911  0.7370 -1.1814 -0.0105
35554SOL    HW215441   6.969   3.020   1.833  0.0426 -0.2612 -1.8528
35555SOL     OW15442   2.343   5.754   4.690  0.7322 -0.3395  0.0420
35555SOL    HW115443   2.314   5.832   4.737  0.5166 -0.5547  0.2754
35555SOL    HW215444   2.265   5.698   4.686  1.0845 -0.8837  0.5982
35556SOL     OW15445   1.660   3.239   7.564 -0.3517  0.0531 -0.2751
35556SOL    HW115446   1.576   3.202   7.540  0.2889 -0.9021 -1.1344
35556SOL    HW215447   1.722   3.199   7.503  0.9485 -0.3533  1.2506
35557SOL     OW15448   2.208   2.892   2.729  0.5975 -0.1326 -0.2614
35557SOL    HW115449   2.271   2.961   2.751  0.8024  0.0522 -1.3715
35557SOL    HW215450   2.261   2.812   2.726  0.5604 -0.1658 -0.0380
35558SOL     OW15451   0.855   2.379  10.734  0.1973 -0.1773 -0.0931
35558SOL    HW115452   0.923   2.367  10.800  0.0210  0.9294  0.3037
35558SOL    HW215453   0.788   2.315  10.757 -0.0260  0.4286  1.0346
35559SOL     OW15454  12.479   4.015  12.142  0.3344 -0.2569 -0.3358
35559SOL    HW115455  12.403   4.000  12.198  0.7142  0.5276  0.4037
35559SOL    HW215456  12.548   3.960  12.179  0.4068 -0.2122 -0.4034
35560SOL     OW15457   0.043  11.882   5.514  0.4050 -0.7685  0.2600
35560SOL    HW115458   0.120  11.840   5.552 -1.1540 -2.0163  2.3365
35560SOL    HW215459  -0.006  11.810   5.473 -1.1080 -0.6331  1.6998
35561SOL     OW15460   3.084   6.014   8.319 -0.2832 -0.3506  0.2547
35561SOL    HW115461   3.159   6.073   8.317  0.2075 -0.9277  1.1762
35561SOL    HW215462   3.100   5.956   8.394 -1.0725 -1.2325 -0.2299
35562SOL     OW15463   0.445  10.235   4.693 -0.2800 -0.2303 -0.1558
35562SOL    HW115464   0.517  10.178   4.721  0.6959  0.4869 -1.1362
35562SOL    HW215465   0.366  10.194   4.729  0.5353 -1.4780  0.2501
35563SOL     OW15466   6.028   8.370   7.017  0.3223  0.5520 -0.1171
35563SOL    HW115467   6.068   8.455   7.035 -0.2184  0.6241  0.8700
35563SOL    HW215468   6.043   8.355   6.924  3.0637  0.3289  0.2695
35564SOL     OW15469  11.519   5.798   4.993 -0.5175 -0.8513 -0.3682
35564SOL    HW115470  11.473   5.789   5.076  1.6094 -1.7815  0.7817
35564SOL    HW215471  11.495   5.720   4.944 -3.4153  0.6528 -1.6021
35565SOL     OW15472   5.875   2.506   4.377  0.4072  0.2351  0.3550
35565SOL    HW115473   5.915   2.473   4.296  0.1635  0.8880 -0.0389
35565SOL    HW215474   5.791   2.460   4.383  0.7261 -0.3367  0.6193
35566SOL     OW15475  10.118   0.596  11.724 -0.1288  0.5662  0.2976
35566SOL    HW115476  10.113   0.657  11.650  0.6053 -0.9901 -1.1054
35566SOL    HW215477  10.072   0.518  11.694  1.2550 -0.5550  0.9737
35567SOL     OW15478  11.686   3.802   7.677  0.2326 -0.4920  0.2845
35567SOL    HW115479  11.739   3.759   7.744  1.7486 -1.1186 -1.2581
35567SOL    HW215480  11.618   3.738   7.654  0.8473 -1.0162 -0.0911
35568SOL     OW15481  10.133   5.339   8.763  0.1410 -0.1058  0.2630
35568SOL    HW115482  10.179   5.295   8.692  0.1022 -0.3996  0.4181
35568SOL    HW215483  10.041   5.333   8.740  0.1634  0.2774  0.0677
35569SOL     OW15484  11.290   8.677   5.249  0.2020  0.0350  0.0269
35569SOL    HW115485  11.232   8.704   5.178 -0.4850  0.0919  0.6008
35569SOL    HW215486  11.339   8.756   5.271  0.5566 -0.0285 -0.4985
35570SOL     OW15487   9.541   4.171  11.558 -0.2947  0.5303 -0.4315
35570SOL    HW115488   9.489   4.237  11.604 -0.5622  0.8881 -1.2415
35570SOL    HW215489   9.551   4.100  11.623  0.9874  1.8184  0.8428
35571SOL     OW15490   7.700  10.261   2.059 -0.3566  0.3430 -0.6367
35571SOL    HW115491   7.657  10.212   2.129 -0.7978 -0.5828 -1.5249
35571SOL    HW215492   7.642  10.335   2.042 -0.4598  0.3373 -0.2992
35572SOL     OW15493   8.403   9.864   3.898  0.4598 -0.1306 -0.1834
35572SOL    HW115494   8.468   9.934   3.885 -0.2954  0.7189  0.4636
35572SOL    HW215495   8.322   9.911   3.919 -1.0498 -1.0006 -3.3987
35573SOL     OW15496  11.623   0.571  11.725 -0.5562  0.6942 -0.4555
35573SOL    HW115497  11.655   0.600  11.810  0.9851 -0.3066 -0.6594
35573SOL    HW215498  11.607   0.651  11.676  0.4001  1.2500  0.1212
35574SOL     OW15499   2.790   0.916   1.091  0.5678  0.3351 -0.7597
35574SOL    HW115500   2.768   0.899   1.183  0.1990  1.4849 -0.6212
35574SOL    HW215501   2.886   0.915   1.089  0.6326  2.2385  0.0510
35575SOL     OW15502   3.782  12.094  10.932  0.2964  0.1641 -0.3191
35575SOL    HW115503   3.762  12.051  10.848 -1.7546  0.5809 -0.0923
35575SOL    HW215504   3.773  12.188  10.913  2.0637  0.3941 -0.1516
35576SOL     OW15505  11.405   9.512   8.586  0.5171 -0.0992 -0.2760
35576SOL    HW115506  11.472   9.449   8.558  0.9329  0.6202 -0.9510
35576SOL    HW215507  11.455   9.591   8.609  0.0073 -0.0334  0.6269
35577SOL     OW15508   5.913   9.498   8.451  0.3706  0.6700  0.1191
35577SOL    HW115509   5.946   9.486   8.540  0.8115  1.7173  0.1034
35577SOL    HW215510   5.981   9.459   8.395  2.1605  3.6391  0.0291
35578SOL     OW15511   0.442   8.330   7.073  0.3531  0.3592  0.0100
35578SOL    HW115512   0.436   8.395   7.003  0.2408  0.2912 -0.0434
35578SOL    HW215513   0.491   8.374   7.142  1.0429  0.2090 -0.3659
35579SOL     OW15514   5.827   5.384   8.020 -0.1862 -0.2441  0.0388
35579SOL    HW115515   5.800   5.374   7.929 -1.0418  0.6125  0.1869
35579SOL    HW215516   5.912   5.340   8.025 -1.8169 -3.7919 -0.2419
35580SOL     OW15517   4.313  10.220  11.448  0.5469 -0.0715  0.2119
35580SOL    HW115518   4.294  10.130  11.471 -0.0162 -0.3205 -1.1426
35580SOL    HW215519   4.264  10.235  11.366  1.7885  0.9934 -0.3697
35581SOL     OW15520   2.250   3.188   5.409 -0.4630  0.3803 -0.0376
35581SOL    HW115521   2.177   3.142   5.367 -0.1190  0.3974 -0.6652
35581SOL    HW215522   2.316   3.119   5.423  1.6508  1.1438 -4.4014
35582SOL     OW15523   3.174   1.396   1.395  0.1943 -0.2300 -0.0512
35582SOL    HW115524   3.102   1.334   1.398 -0.3477  0.4460  1.4038
35582SOL    HW215525   3.218   1.387   1.480  0.1205  1.3404  0.1826
35583SOL     OW15526   0.678  11.648   4.653  0.0505 -0.0632 -0.3435
35583SOL    HW115527   0.624  11.593   4.710 -0.6868  0.0985 -0.8656
35583SOL    HW215528   0.758  11.664   4.704 -0.7048  0.3133  0.7700
35584SOL     OW15529   0.644   9.535  12.556  0.3211  0.3816 -0.0466
35584SOL    HW115530   0.655   9.447  12.522 -0.6480  0.0914  0.3507
35584SOL    HW215531   0.589   9.524  12.634  0.4398  1.2988  0.1777
35585SOL     OW15532  10.398  11.866   1.181  0.1806 -0.1652  0.2119
35585SOL    HW115533  10.445  11.809   1.242 -1.1672 -0.5752  0.8922
35585SOL    HW215534  10.442  11.951   1.189  0.8127 -0.5385  0.8040
35586SOL     OW15535   1.615  10.691   6.859  0.0139 -0.1783  0.3879
35586SOL    HW115536   1.617  10.772   6.910  0.5563  0.5097 -0.6951
35586SOL    HW215537   1.541  10.701   6.800  0.2999 -0.3167  0.0011
35587SOL     OW15538   9.135   0.537  11.001 -0.2038  0.5095  0.6253
35587SOL    HW115539   9.198   0.473  10.970 -0.4398  0.8605 -0.6450
35587SOL    HW215540   9.116   0.511  11.091 -1.0140 -1.7778 -0.1365
35588SOL     OW15541  12.028   7.407   9.831 -0.1222 -0.1536 -0.4897
35588SOL    HW115542  11.966   7.478   9.813 -0.2300 -0.0274  0.3111
35588SOL    HW215543  11.973   7.330   9.843 -0.0557 -0.2298 -0.6768
35589SOL     OW15544   2.660   7.843   5.903 -0.2340 -0.2454  0.2661
35589SOL    HW115545   2.713   7.809   5.831  0.3078 -0.1354  0.6085
35589SOL    HW215546   2.641   7.934   5.878  1.6347  0.4386  1.1661
35590SOL     OW15547   2.218   5.819   8.418  0.0728  0.7170  0.6830
35590SOL    HW115548   2.233   5.836   8.325  0.1407 -0.7687  0.3965
35590SOL    HW215549   2.277   5.879   8.463 -0.9412  2.4139 -0.1827
35591SOL     OW15550   6.281   3.028   7.700  0.0047  0.2753  0.3679
35591SOL    HW115551   6.376   3.035   7.685  0.3083 -0.3299  1.8413
35591SOL    HW215552   6.264   2.934   7.696 -0.6019  0.4021 -0.1576
35592SOL     OW15553   7.387   0.018   5.052 -0.0832 -0.2858 -0.1409
35592SOL    HW115554   7.390  -0.050   4.985 -0.9833  1.2055 -1.7669
35592SOL    HW215555   7.338   0.090   5.012 -0.5001  0.7492  2.0574
35593SOL     OW15556  10.809   6.184  12.275  0.3924  0.0086 -0.4718
35593SOL    HW115557  10.873   6.214  12.338 -0.5223 -1.6406  1.3496
35593SOL    HW215558  10.824   6.090  12.268 -1.8285 -0.4363  0.0705
35594SOL     OW15559   1.264   7.699   0.760 -0.4196  0.0238  0.6646
35594SOL    HW115560   1.231   7.618   0.722 -0.5546 -0.3232  1.4982
35594SOL    HW215561   1.288   7.676   0.849 -1.9352  1.2195  1.4508
35595SOL     OW15562   2.636  10.525   7.781 -0.1996  0.6958 -0.4085
35595SOL    HW115563   2.717  10.513   7.832 -1.3485 -0.1299  1.3043
35595SOL    HW215564   2.654  10.481   7.698  0.8012 -0.2835  0.2855
35596SOL     OW15565  12.604   1.060   4.899 -0.5873 -0.2738  0.1161
35596SOL    HW115566  12.564   1.117   4.964 -0.4012  0.0036 -0.0132
35596SOL    HW215567  12.578   1.097   4.815 -1.1747 -0.8706  0.0238
35597SOL     OW15568  11.570   2.949  10.131 -0.2710  0.0071 -0.2934
35597SOL    HW115569  11.487   2.907  10.154 -1.0113  2.6179  2.5112
35597SOL    HW215570  11.630   2.923  10.201  0.2837  0.7673 -0.4702
35598SOL     OW15571   3.168   0.114   7.585  0.2738  0.0600 -0.2026
35598SOL    HW115572   3.135   0.188   7.534 -3.0901 -1.0106  0.1490
35598SOL    HW215573   3.155   0.141   7.676 -0.4856 -0.7415 -0.0666
35599SOL     OW15574   5.758   9.478   7.403  0.1668 -0.0099 -0.4004
35599SOL    HW115575   5.794   9.557   7.362  1.7142 -0.2810  0.3573
35599SOL    HW215576   5.681   9.509   7.450  0.6637  1.0363 -0.2331
35600SOL     OW15577  10.107   1.789   6.898  0.2479  0.1468 -0.5082
35600SOL    HW115578  10.043   1.812   6.830  0.6063  1.5346 -0.4099
35600SOL    HW215579  10.179   1.851   6.884  1.6172 -1.4041 -0.6546
35601SOL     OW15580   6.640   6.701   9.773 -0.1329 -0.3278 -0.0692
35601SOL    HW115581   6.580   6.626   9.777 -1.8123  0.9080 -0.9362
35601SOL    HW215582   6.608   6.761   9.840  0.2441  0.2659 -0.4151
35602SOL     OW15583   9.906   4.254   6.736 -0.3432 -0.4509 -0.3690
35602SOL    HW115584   9.917   4.318   6.666  2.3097 -0.9900 -0.5328
35602SOL    HW215585   9.841   4.295   6.794 -0.9387  1.0127 -1.9615
35603SOL     OW15586   3.569   7.208   2.209 -0.4664  0.6375 -0.4043
35603SOL    HW115587   3.477   7.183   2.220 -0.4818  0.8766  0.0385
35603SOL    HW215588   3.590   7.184   2.118 -0.7757 -0.0071 -0.3058
35604SOL     OW15589   1.511   8.866   4.643  0.1439  0.0475 -0.1303
35604SOL    HW115590   1.579   8.802   4.666 -0.8669 -0.7196  0.7691
35604SOL    HW215591   1.446   8.815   4.594 -0.2660  0.5699 -0.1272
35605SOL     OW15592  12.564   0.443   9.975 -0.6451 -0.1778  0.7933
35605SOL    HW115593  12.647   0.395   9.969  0.7889  1.9046  2.4842
35605SOL    HW215594  12.506   0.397   9.915  2.4947 -0.1645 -2.6699
35606SOL     OW15595  10.149   6.579   1.640 -0.1995  0.0726 -0.2779
35606SOL    HW115596  10.096   6.591   1.718 -1.7727 -1.7415 -0.9831
35606SOL    HW215597  10.176   6.668   1.615 -0.6066  0.7766  1.6407
35607SOL     OW15598  12.105   3.040   3.937  0.2431  0.0022  0.1950
35607SOL    HW115599  12.173   3.051   3.871  0.9542 -0.4837  0.8226
35607SOL    HW215600  12.141   3.082   4.016  0.1120 -0.8355  0.7130
35608SOL     OW15601  12.033  12.005   3.465 -0.4103 -0.3792 -0.0583
35608SOL    HW115602  11.977  12.041   3.396 -0.8480 -0.1724  0.4026
35608SOL    HW215603  12.082  11.935   3.422 -1.8247 -1.3249 -0.2069
35609SOL     OW15604  12.220  10.928   9.062  0.0128 -1.1000 -0.0059
35609SOL    HW115605  12.273  10.855   9.095  3.4007  1.3579  0.4876
35609SOL    HW215606  12.222  10.917   8.967 -0.6702 -2.3444  0.1024
35610SOL     OW15607   5.618  11.032  11.219  0.1106 -0.3586  0.3842
35610SOL    HW115608   5.699  10.995  11.185 -0.2056 -1.6650  1.0123
35610SOL    HW215609   5.646  11.098  11.283  0.6833 -1.4661  1.2973
35611SOL     OW15610  10.546   5.207  11.518  0.1343 -0.3853 -0.1940
35611SOL    HW115611  10.585   5.250  11.441 -1.0034  1.0816  0.0008
35611SOL    HW215612  10.495   5.134  11.482  0.1047 -0.0760 -0.7892
35612SOL     OW15613   5.122   2.864   2.306  0.6467 -0.1659  0.2120
35612SOL    HW115614   5.070   2.927   2.357 -0.6017  0.7159 -2.0079
35612SOL    HW215615   5.073   2.782   2.312  0.6052 -0.1123  0.5968
35613SOL     OW15616   1.284   9.652   2.676  0.2658 -0.2267  0.1814
35613SOL    HW115617   1.222   9.581   2.694  0.4403 -0.1866  0.9951
35613SOL    HW215618   1.370   9.611   2.682  0.5112  0.4823  3.1570
35614SOL     OW15619   2.010  11.686   3.334  0.7191 -0.1090  0.5065
35614SOL    HW115620   2.099  11.668   3.363  0.3859 -3.8671 -0.3261
35614SOL    HW215621   2.021  11.754   3.267  2.8243  0.1916  1.0731
35615SOL     OW15622  10.246   6.397   8.419  0.2289 -0.3385 -0.1844
35615SOL    HW115623  10.213   6.483   8.446 -0.8530 -0.7224 -0.2441
35615SOL    HW215624  10.209   6.336   8.482 -2.5062 -1.2734 -2.5044
35616SOL     OW15625   3.047   8.288   0.995  0.4222  0.2428 -0.3314
35616SOL    HW115626   3.012   8.298   1.084 -0.9244 -1.2998 -0.6391
35616SOL    HW215627   3.142   8.283   1.007  0.3216  0.9593  0.9211
35617SOL     OW15628   3.776   6.299   7.061  0.2655 -0.2914  0.3518
35617SOL    HW115629   3.777   6.248   7.142 -0.6366 -0.3989  0.3005
35617SOL    HW215630   3.684   6.308   7.039  0.4376  1.0219  0.1310
35618SOL     OW15631   5.509   0.365   7.336  0.3496 -0.0001 -0.3531
35618SOL    HW115632   5.572   0.371   7.265  1.4321  0.2791  0.6018
35618SOL    HW215633   5.472   0.277   7.329  0.7537 -0.1210 -1.0019
35619SOL     OW15634   5.361   7.341  11.571 -0.3739 -0.0115 -0.0432
35619SOL    HW115635   5.406   7.422  11.549 -0.5157  0.7080  2.1193
35619SOL    HW215636   5.429   7.285  11.609 -0.4114 -0.7059 -0.9398
35620SOL     OW15637   0.628   4.885   4.535  0.3284 -0.2885  0.0043
35620SOL    HW115638   0.711   4.917   4.572  0.5032  0.7410 -1.2284
35620SOL    HW215639   0.654   4.818   4.472  0.1803 -0.3314 -0.0112
35621SOL     OW15640   9.525   5.274   6.088  0.1774 -0.3302 -0.1478
35621SOL    HW115641   9.562   5.215   6.154  2.2262  0.3359 -0.6354
35621SOL    HW215642   9.574   5.253   6.008  1.2473  2.2261 -0.2533
35622SOL     OW15643  10.468   6.150   9.173  0.0871  0.7322  0.2260
35622SOL    HW115644  10.447   6.099   9.095 -1.0151  0.4586  0.6886
35622SOL    HW215645  10.468   6.241   9.142 -2.1260  0.7876  0.2338
35623SOL     OW15646   7.044  12.011   6.840  0.3400  0.5322  0.0086
35623SOL    HW115647   6.967  12.056   6.875  0.4676  1.0605 -0.3883
35623SOL    HW215648   7.096  12.079   6.800  0.3801 -0.0126 -0.8841
35624SOL     OW15649   4.674   7.094   3.501 -0.4424 -0.1018  0.2504
35624SOL    HW115650   4.724   7.171   3.476 -0.0196  0.3918  2.4657
35624SOL    HW215651   4.738   7.036   3.543 -1.0512 -1.0136 -0.0381
35625SOL     OW15652   4.256   4.317   9.337 -0.0252  0.1290  0.6213
35625SOL    HW115653   4.222   4.321   9.427  0.0454 -1.5118  0.7435
35625SOL    HW215654   4.306   4.236   9.333 -1.9881 -1.1094 -1.5434
35626SOL     OW15655  11.122  11.037   5.454 -0.3658 -0.2673 -0.5092
35626SOL    HW115656  11.084  10.950   5.464 -0.3519 -0.2081  0.0898
35626SOL    HW215657  11.205  11.023   5.409 -0.2866 -0.5754 -0.2620
35627SOL     OW15658   8.858   2.512   8.896  0.8428 -0.5132  0.2878
35627SOL    HW115659   8.785   2.529   8.956 -0.1880 -1.5883 -0.5993
35627SOL    HW215660   8.826   2.543   8.811  2.0679  0.4833  0.1658
35628SOL     OW15661   2.642  10.277   4.602 -0.3375  0.1413 -0.0437
35628SOL    HW115662   2.628  10.369   4.624 -2.2582  0.1400 -1.0601
35628SOL    HW215663   2.563  10.232   4.632  0.1387 -1.0149 -0.4438
35629SOL     OW15664   6.572  12.445  11.492  0.2562 -0.4527  0.1421
35629SOL    HW115665   6.500  12.385  11.471  0.5814 -0.9096  0.3157
35629SOL    HW215666   6.556  12.522  11.438 -0.1555 -0.7051 -0.0998
35630SOL     OW15667   7.018   6.378   8.849 -0.1294  0.2117 -0.1171
35630SOL    HW115668   6.958   6.328   8.905  1.2684  0.2547  1.4703
35630SOL    HW215669   7.082   6.314   8.819 -0.0426  0.4850 -0.5276
35631SOL     OW15670   0.170   4.585   4.381  0.0468  0.7145 -0.0525
35631SOL    HW115671   0.165   4.671   4.338 -0.9105  0.6961  0.0063
35631SOL    HW215672   0.095   4.584   4.440 -0.5500 -0.5635 -0.7922
35632SOL     OW15673   1.465   9.310   7.967 -0.0897  0.4685 -0.5774
35632SOL    HW115674   1.415   9.231   7.987  0.2316  0.5633  0.6681
35632SOL    HW215675   1.511   9.331   8.048  0.9304  1.1456 -1.3069
35633SOL     OW15676   8.381  10.329   6.997 -0.4534 -0.4028  0.4234
35633SOL    HW115677   8.403  10.344   6.905 -0.8158 -0.3534  0.3438
35633SOL    HW215678   8.464  10.301   7.037 -0.5729 -1.7561 -0.2053
35634SOL     OW15679   1.371   3.961  12.366 -0.3073 -0.0468  0.0454
35634SOL    HW115680   1.410   3.977  12.452 -1.5902  0.5233  0.5427
35634SOL    HW215681   1.377   3.866  12.355 -0.1068 -0.1236  0.7582
35635SOL     OW15682   0.119   1.229  10.846 -0.6146  0.0253  0.5985
35635SOL    HW115683   0.134   1.140  10.814 -1.7421  0.5134 -1.5239
35635SOL    HW215684   0.203   1.256  10.883  1.2071 -0.4138 -2.7876
35636SOL     OW15685  10.419   3.050  10.656  0.0027  0.2956  0.0667
35636SOL    HW115686  10.449   2.959  10.664  1.7052  0.8377  0.3073
35636SOL    HW215687  10.479   3.089  10.592 -2.8623  0.4062 -2.7733
35637SOL     OW15688   1.624   5.383  12.293  0.2481  0.3817 -0.2698
35637SOL    HW115689   1.614   5.469  12.334  0.2465 -0.5181  1.7108
35637SOL    HW215690   1.561   5.327  12.338  0.5195 -0.7661 -1.2568
35638SOL     OW15691   5.270  10.979   0.007  0.3303 -0.2682 -0.0712
35638SOL    HW115692   5.187  11.024  -0.013  0.2873 -0.2215  0.2012
35638SOL    HW215693   5.275  10.908  -0.056  0.1380 -0.2007 -0.1637
35639SOL     OW15694  11.222   3.684   6.186 -0.0441 -0.1777  0.0606
35639SOL    HW115695  11.131   3.669   6.158 -0.4473  0.4149  1.0066
35639SOL    HW215696  11.228   3.640   6.271  0.4625  0.0552  0.1463
35640SOL     OW15697   6.028  11.068   8.377  0.2532 -0.1402  0.3126
35640SOL    HW115698   5.968  11.099   8.445  2.0555  0.7203  1.6092
35640SOL    HW215699   6.014  11.128   8.304 -2.0582 -1.3693 -0.3525
35641SOL     OW15700  11.442   1.272   6.544  1.0716 -0.1952  0.4414
35641SOL    HW115701  11.483   1.198   6.588 -1.1232 -1.3817  0.6595
35641SOL    HW215702  11.363   1.289   6.594 -0.8186 -0.6889 -2.1351
35642SOL     OW15703   4.804   8.104   3.159  0.3198  0.1150  0.5079
35642SOL    HW115704   4.709   8.100   3.156  0.2807 -0.6266 -3.6350
35642SOL    HW215705   4.824   8.189   3.197 -2.1047  1.1925 -0.4334
35643SOL     OW15706  11.846   8.259   8.179 -0.0346  0.2524  0.2145
35643SOL    HW115707  11.854   8.250   8.084  1.3906 -1.0007  0.4229
35643SOL    HW215708  11.819   8.350   8.192 -1.6843  0.0580 -1.4312
35644SOL     OW15709   5.813   3.991   8.566  0.0877 -0.1956 -0.1737
35644SOL    HW115710   5.746   3.938   8.609  0.6385 -2.0656 -1.4920
35644SOL    HW215711   5.893   3.938   8.572  1.4843  1.9179  1.2575
35645SOL     OW15712   5.621   7.553   0.640  0.0176 -0.1575 -0.8928
35645SOL    HW115713   5.613   7.467   0.682 -0.3047  1.5504  2.9149
35645SOL    HW215714   5.709   7.583   0.664 -0.3199  1.0483 -1.1014
35646SOL     OW15715   5.389   6.686  11.088  0.2180  0.3796  0.0000
35646SOL    HW115716   5.387   6.733  11.004  0.4294 -0.2238 -0.3507
35646SOL    HW215717   5.372   6.753  11.154 -0.6250  0.7530 -0.5748
35647SOL     OW15718   0.445  11.825   8.841 -0.0402  0.4019  0.0537
35647SOL    HW115719   0.515  11.796   8.900  2.0029  2.0944 -1.4034
35647SOL    HW215720   0.483  11.898   8.792 -1.6019 -0.9017 -3.4053
35648SOL     OW15721  11.633   6.076   6.963 -0.5155 -0.7280  0.0320
35648SOL    HW115722  11.606   5.988   6.937 -0.2041 -0.9388  0.4172
35648SOL    HW215723  11.687   6.063   7.041  0.2617 -0.2708 -0.4199
35649SOL     OW15724   9.308   4.918   8.261  0.4848 -0.6985  0.4533
35649SOL    HW115725   9.221   4.924   8.299 -0.0435  0.6403 -0.8667
35649SOL    HW215726   9.367   4.953   8.328 -0.1692 -0.2748  0.8081
35650SOL     OW15727   2.383  11.155   6.906 -0.6971  0.2279  1.0745
35650SOL    HW115728   2.478  11.167   6.897 -0.8814  1.3739  0.3694
35650SOL    HW215729   2.371  11.060   6.909  0.5401  0.0744  2.0740
35651SOL     OW15730   5.425   4.274   2.686 -0.2889  0.2443  0.5258
35651SOL    HW115731   5.431   4.369   2.688 -2.5061  0.4532 -0.0501
35651SOL    HW215732   5.426   4.252   2.592 -1.6146 -0.0883  0.5595
35652SOL     OW15733   5.371   2.899   9.854  0.6470 -0.3900  0.0357
35652SOL    HW115734   5.448   2.864   9.899 -0.5874 -3.0139  0.2505
35652SOL    HW215735   5.326   2.951   9.921 -0.1594 -2.6948  1.4126
35653SOL     OW15736   4.916   8.251   0.788 -0.5993  0.0406  0.2425
35653SOL    HW115737   4.963   8.211   0.716  1.3807 -3.5692  3.2100
35653SOL    HW215738   4.831   8.206   0.790  0.6049 -2.3493  1.9591
35654SOL     OW15739   5.046   1.320   8.426 -0.2107  0.1520 -0.5589
35654SOL    HW115740   4.968   1.372   8.407 -0.2917  0.4592  0.5326
35654SOL    HW215741   5.045   1.309   8.521  0.7076 -0.4293 -0.6014
35655SOL     OW15742   3.752   0.482   0.561  0.3981 -0.3217  0.1044
35655SOL    HW115743   3.705   0.398   0.557 -0.8733  0.3832 -0.2154
35655SOL    HW215744   3.704   0.534   0.625 -0.2194  0.9776 -1.3508
35656SOL     OW15745   1.054   6.141   2.681 -0.2345 -0.1499 -0.4420
35656SOL    HW115746   1.024   6.086   2.609 -1.4399 -1.8804  1.2917
35656SOL    HW215747   1.046   6.086   2.759  1.9999  1.2956  0.9214
35657SOL     OW15748   1.094  12.331   4.049 -0.4921  0.0959  0.0967
35657SOL    HW115749   1.004  12.307   4.072 -0.0967 -0.4669  1.0906
35657SOL    HW215750   1.117  12.270   3.978 -0.8142  0.0926 -0.0079
35658SOL     OW15751   2.487   8.637   5.219  0.1133 -0.2006 -0.1003
35658SOL    HW115752   2.456   8.720   5.184  2.3419  0.9208  0.3868
35658SOL    HW215753   2.522   8.591   5.143  0.9848  0.3443 -0.0446
35659SOL     OW15754   3.744   0.422   1.397  0.1990 -0.0149 -0.3579
35659SOL    HW115755   3.702   0.437   1.482 -1.5170 -1.2476 -0.9463
35659SOL    HW215756   3.818   0.365   1.417  0.8920  1.1271  0.5133
35660SOL     OW15757   0.832  11.281  11.722  0.2989 -0.2414  0.1843
35660SOL    HW115758   0.905  11.323  11.678  2.5805 -2.3503  1.6521
35660SOL    HW215759   0.863  11.268  11.812 -3.2254  1.7990  1.9342
35661SOL     OW15760  11.111  10.150  12.236 -0.1558 -0.7273 -0.1824
35661SOL    HW115761  11.150  10.202  12.306 -0.4859 -1.9315  0.9327
35661SOL    HW215762  11.021  10.181  12.231 -0.1577 -0.7003 -0.0068
35662SOL     OW15763  12.137   7.656   4.438 -0.5937  0.3564 -0.7824
35662SOL    HW115764  12.131   7.606   4.356  1.2812  1.3528 -1.5991
35662SOL    HW215765  12.110   7.744   4.414  0.0909  0.6865 -0.3811
35663SOL     OW15766   8.817   3.682   2.336 -0.2778  0.1810 -0.0082
35663SOL    HW115767   8.855   3.669   2.423  0.7667  0.8013 -0.3414
35663SOL    HW215768   8.725   3.701   2.352  0.3728  2.8191  1.2054
35664SOL     OW15769   1.593   7.492   1.056 -0.0615  0.1040  1.2701
35664SOL    HW115770   1.505   7.529   1.050 -0.2971 -0.5022  0.9539
35664SOL    HW215771   1.612   7.460   0.968  0.9705  1.3154  1.0097
35665SOL     OW15772   5.556   8.694   1.849  0.3020  0.2511  0.3660
35665SOL    HW115773   5.497   8.669   1.777 -0.6071 -0.0181  1.1851
35665SOL    HW215774   5.500   8.743   1.909  1.4587  2.0591  0.0493
35666SOL     OW15775   7.181  12.197   0.811  0.6280  0.0572 -0.0475
35666SOL    HW115776   7.116  12.187   0.742 -1.7582 -0.3669  2.1215
35666SOL    HW215777   7.169  12.286   0.843 -1.5953 -1.1150  2.7791
35667SOL     OW15778   3.938   4.526   0.417  0.6367  0.1962 -0.0935
35667SOL    HW115779   3.985   4.604   0.448  0.3668  0.2207  0.2647
35667SOL    HW215780   3.874   4.508   0.486  0.9435 -0.5577 -0.0016
35668SOL     OW15781   8.922   7.819   8.734  0.4059 -0.0929 -0.4944
35668SOL    HW115782   9.005   7.867   8.739  0.8910 -0.9515 -0.0535
35668SOL    HW215783   8.947   7.731   8.708 -0.2753 -0.5892  0.4807
35669SOL     OW15784   7.505   1.731   8.928  0.4441 -0.3094 -0.0623
35669SOL    HW115785   7.459   1.815   8.928  0.4705 -0.2820 -1.1471
35669SOL    HW215786   7.592   1.751   8.963  0.7365  0.2944 -1.0992
35670SOL     OW15787   8.122   9.287   8.261 -0.5738  0.7894 -0.6625
35670SOL    HW115788   8.066   9.285   8.338 -1.9124  0.6037 -1.6119
35670SOL    HW215789   8.112   9.376   8.227  0.1914  0.9433 -0.5112
35671SOL     OW15790  10.118   6.787  11.741 -0.3366 -0.7690  0.2318
35671SOL    HW115791  10.119   6.822  11.652  2.4132  0.8144  0.8046
35671SOL    HW215792  10.139   6.861  11.797 -0.2335 -2.1156  2.0722
35672SOL     OW15793  10.213   8.233   1.577 -0.1313 -0.6670 -0.1608
35672SOL    HW115794  10.153   8.297   1.537  1.0725  1.5245  1.3016
35672SOL    HW215795  10.233   8.172   1.507  0.3795  1.8683 -2.3911
35673SOL     OW15796   0.463   2.185   9.742  0.1075 -0.0320  0.0346
35673SOL    HW115797   0.467   2.220   9.653  1.3371 -1.5150 -0.5408
35673SOL    HW215798   0.509   2.250   9.795 -2.1156  1.7267 -0.0455
35674SOL     OW15799   4.997  10.752   8.735  0.5062 -0.2910 -0.0811
35674SOL    HW115800   4.934  10.809   8.692 -0.7710 -1.6106 -0.0121
35674SOL    HW215801   4.966  10.663   8.718  1.3223 -0.9289  1.5072
35675SOL     OW15802   5.957   9.650   8.043  0.0127  0.5604  1.2031
35675SOL    HW115803   6.022   9.708   8.002  0.6490  0.0670  1.4882
35675SOL    HW215804   5.919   9.704   8.113  0.4115  0.7326  1.2959
35676SOL     OW15805   8.264   1.504   5.574 -0.3224 -0.2888  0.2924
35676SOL    HW115806   8.190   1.451   5.544 -0.6043 -0.5745  1.4673
35676SOL    HW215807   8.232   1.549   5.652 -0.6239  2.8864 -1.4647
35677SOL     OW15808   4.602   0.899   8.434 -0.3864 -0.0707  0.1035
35677SOL    HW115809   4.561   0.813   8.439  1.5301 -0.9648  2.0747
35677SOL    HW215810   4.578   0.941   8.517 -0.0866  0.7182 -0.2068
35678SOL     OW15811   2.079  11.689   1.160 -0.1187 -0.4805  0.1352
35678SOL    HW115812   2.028  11.686   1.079  2.1944 -0.0859 -1.4476
35678SOL    HW215813   2.121  11.775   1.157 -0.2321 -0.3321  1.9578
35679SOL     OW15814  10.541  10.017   1.452 -0.1284 -0.2992  0.0585
35679SOL    HW115815  10.533   9.925   1.424  1.6141 -0.4417 -0.0870
35679SOL    HW215816  10.622  10.020   1.503 -0.3438  1.0952  0.3614
35680SOL     OW15817   2.601   8.760   5.688 -0.4096  0.3426  0.4080
35680SOL    HW115818   2.549   8.684   5.661  0.5060  0.0903 -0.7102
35680SOL    HW215819   2.601   8.818   5.613  2.4997 -0.5502 -0.4501
35681SOL     OW15820   6.335   6.591   9.189  0.0739 -0.4697 -0.0482
35681SOL    HW115821   6.414   6.593   9.242 -1.7732 -1.5829  2.9976
35681SOL    HW215822   6.299   6.679   9.194 -0.2225 -0.6344  0.8072
35682SOL     OW15823   5.023   9.221   7.521 -0.0764 -0.1198 -0.9202
35682SOL    HW115824   4.972   9.186   7.449  0.8910 -0.7880 -1.3004
35682SOL    HW215825   5.114   9.204   7.497  0.2654 -0.3898  0.4679
35683SOL     OW15826   9.028   3.526  10.572  0.1397  0.1672  0.0924
35683SOL    HW115827   8.963   3.491  10.511 -2.7398  1.2835  2.3171
35683SOL    HW215828   9.004   3.618  10.583 -0.2182 -0.2252  3.6757
35684SOL     OW15829   3.997   5.289   4.575  0.4835 -0.2395  0.8989
35684SOL    HW115830   3.956   5.236   4.507 -0.1065  0.3350  0.7959
35684SOL    HW215831   4.091   5.285   4.555  0.2752  0.4900 -0.3806
35685SOL     OW15832   7.051   0.557   5.687 -0.0641 -0.0801 -0.1515
35685SOL    HW115833   7.119   0.494   5.712  0.6813  0.9870  0.5713
35685SOL    HW215834   7.076   0.638   5.729 -1.7629  0.3737  0.0687
35686SOL     OW15835   4.448   8.127   3.705  0.6490  0.8666  0.5056
35686SOL    HW115836   4.513   8.057   3.717  0.8208  0.3028 -2.8040
35686SOL    HW215837   4.398   8.101   3.628 -0.1796  3.7401 -0.0531
35687SOL     OW15838   2.946   9.684   4.062 -0.7910  0.1761  0.1784
35687SOL    HW115839   3.030   9.688   4.017 -1.6848  2.4877 -1.4900
35687SOL    HW215840   2.967   9.698   4.154  0.8086 -1.4814  0.1078
35688SOL     OW15841  12.132   5.697  10.817 -0.3138 -0.4415  0.0016
35688SOL    HW115842  12.051   5.657  10.848 -0.3483  0.6710  1.4364
35688SOL    HW215843  12.178   5.725  10.896  0.1168  1.5317 -0.8774
35689SOL     OW15844   3.174   6.070   2.374  0.0820 -0.1048  0.3962
35689SOL    HW115845   3.248   6.059   2.315 -0.2295 -0.8176  0.1301
35689SOL    HW215846   3.097   6.049   2.321 -0.5203  2.6046  0.0715
35690SOL     OW15847   5.868   5.659  11.862 -0.1545 -0.9098  0.5101
35690SOL    HW115848   5.803   5.712  11.906 -1.4089  0.4519 -2.6647
35690SOL    HW215849   5.951   5.682  11.903 -0.3657  4.7711 -1.4683
35691SOL     OW15850  10.551   3.257   8.976 -0.0249  0.4022 -0.1931
35691SOL    HW115851  10.568   3.315   9.050  0.0297  1.9436 -1.3764
35691SOL    HW215852  10.512   3.178   9.016  0.4210  0.9965  1.5001
35692SOL     OW15853   7.903  11.605  11.176  0.0011 -0.8054 -0.2499
35692SOL    HW115854   7.817  11.570  11.200 -0.7315  1.2423  0.3036
35692SOL    HW215855   7.892  11.636  11.086  0.9625 -2.8965 -1.1383
35693SOL     OW15856   2.022   2.671   7.274 -0.2116 -0.5240  0.1126
35693SOL    HW115857   1.938   2.691   7.317  0.0279  0.1174  0.2925
35693SOL    HW215858   2.068   2.754   7.271  0.6475 -0.9709  0.4982
35694SOL     OW15859   7.740   8.930  11.941  0.8873 -0.5052  0.2461
35694SOL    HW115860   7.682   8.876  11.994 -0.5972 -0.0637 -0.8738
35694SOL    HW215861   7.826   8.922  11.983  0.1704 -1.7220  1.5353
35695SOL     OW15862   1.676   1.317   3.376  0.0493 -0.6249 -0.3465
35695SOL    HW115863   1.703   1.327   3.285  0.6001  0.5743 -0.0668
35695SOL    HW215864   1.592   1.272   3.371 -0.0099 -0.4226 -1.4535
35696SOL     OW15865   1.108   4.166  11.992  0.3870 -0.1697 -0.4564
35696SOL    HW115866   1.184   4.209  12.031 -0.4085  0.4591  0.4426
35696SOL    HW215867   1.101   4.205  11.904  0.6284  0.3590 -0.2429
35697SOL     OW15868   9.972   5.479   8.119  0.7046  0.0194 -0.2249
35697SOL    HW115869   9.884   5.441   8.121  0.8899 -0.4924 -1.2285
35697SOL    HW215870  10.031   5.406   8.135  0.9595  0.3433  0.3443
35698SOL     OW15871   5.172   1.628  10.003  0.3394 -0.4757  0.1298
35698SOL    HW115872   5.123   1.692  10.054 -2.6926 -1.6194 -1.1575
35698SOL    HW215873   5.193   1.673   9.922 -2.0843 -1.0894 -0.9144
35699SOL     OW15874   6.623   9.582   0.852  0.2722  0.1700  0.2360
35699SOL    HW115875   6.613   9.548   0.941  3.1421 -0.9342  0.2398
35699SOL    HW215876   6.658   9.670   0.864 -1.6615  1.0034  0.1529
35700SOL     OW15877   0.704   4.360   3.344 -0.4531  0.2019  0.7568
35700SOL    HW115878   0.758   4.313   3.280 -2.3817  0.6526 -1.3292
35700SOL    HW215879   0.705   4.305   3.422  0.2956 -1.4470 -0.3724
35701SOL     OW15880   1.684   7.947   2.141  0.2830  0.6325  0.0113
35701SOL    HW115881   1.713   7.855   2.144  1.6515  0.9957 -0.8688
35701SOL    HW215882   1.743   7.992   2.201 -1.3005  0.7490  1.5381
35702SOL     OW15883   2.578   6.175  10.601 -0.6771 -0.6015 -0.7146
35702SOL    HW115884   2.508   6.195  10.663 -0.3777  0.8543 -0.7832
35702SOL    HW215885   2.613   6.091  10.630 -2.9160 -1.7441 -1.1543
35703SOL     OW15886   0.350   9.487   1.491  0.9426  0.8446  0.0197
35703SOL    HW115887   0.301   9.501   1.572  0.8683  1.3137 -0.1029
35703SOL    HW215888   0.428   9.542   1.500  0.1052  2.2369 -0.9364
35704SOL     OW15889   2.262   7.068   7.911  0.0173 -0.1966 -0.2418
35704SOL    HW115890   2.308   7.087   7.829  1.3361 -1.1877  0.2439
35704SOL    HW215891   2.311   6.997   7.951 -1.1237 -0.3320  1.0019
35705SOL     OW15892  12.179   4.205  12.164  0.5320 -0.1339 -0.2937
35705SOL    HW115893  12.151   4.119  12.195  0.3078  0.1984  0.4611
35705SOL    HW215894  12.126   4.267  12.215  1.5255  0.4724  0.0282
35706SOL     OW15895   5.503   8.797   0.700 -0.4216 -0.1328 -0.2063
35706SOL    HW115896   5.440   8.845   0.646  0.8718  1.0162 -0.7389
35706SOL    HW215897   5.520   8.854   0.775  0.1863 -0.3106 -0.2044
35707SOL     OW15898   3.955  11.945   7.040 -0.1707 -0.0638 -0.3732
35707SOL    HW115899   4.006  11.881   6.990 -1.8777 -1.6745 -0.1558
35707SOL    HW215900   3.964  12.027   6.991  0.1635 -1.0211 -1.9641
35708SOL     OW15901  11.708   5.010   6.957 -0.1046  0.4412 -0.0701
35708SOL    HW115902  11.760   5.042   7.030  0.2553  1.0497 -0.5828
35708SOL    HW215903  11.716   4.914   6.962  0.8006  0.5149  0.0449
35709SOL     OW15904  12.029   8.201   2.489  0.3980 -0.1389  0.1539
35709SOL    HW115905  12.042   8.193   2.583 -2.3057  0.2748  0.6187
35709SOL    HW215906  12.011   8.293   2.474  2.5203  0.1589 -1.0899
35710SOL     OW15907  10.096   5.468   0.101  0.0934  0.1209 -0.1142
35710SOL    HW115908  10.125   5.469   0.010  0.6612 -0.0529  0.0609
35710SOL    HW215909  10.104   5.559   0.130  1.2372 -0.0474  0.1636
35711SOL     OW15910   1.175   6.459   2.399 -0.0437  0.1998 -0.4454
35711SOL    HW115911   1.192   6.529   2.461 -1.2586  0.4843 -0.4043
35711SOL    HW215912   1.184   6.500   2.313 -0.1973  0.2770 -0.4262
35712SOL     OW15913   0.996   8.724   2.465 -0.2947  0.2593  0.1415
35712SOL    HW115914   0.967   8.664   2.396 -0.7330 -0.0772  0.6135
35712SOL    HW215915   1.081   8.756   2.434  0.5576 -1.5621  0.4566
35713SOL     OW15916   5.181   1.485  10.763 -0.1935 -0.0624  0.5541
35713SOL    HW115917   5.149   1.511  10.677 -0.7149 -1.1367  0.4028
35713SOL    HW215918   5.274   1.468  10.750 -0.7344 -2.7093 -0.4584
35714SOL     OW15919   3.653   7.197   6.809  0.4374  0.0732 -0.0446
35714SOL    HW115920   3.599   7.207   6.731  0.3419  1.7639  0.2173
35714SOL    HW215921   3.683   7.106   6.805 -1.9062 -0.7423 -0.5085
35715SOL     OW15922   3.550   0.487   8.011 -0.1560 -0.1189  0.3266
35715SOL    HW115923   3.542   0.482   8.106  1.7048  0.6568  0.5742
35715SOL    HW215924   3.644   0.486   7.995 -0.3399  1.7958 -1.3547
35716SOL     OW15925   0.873   6.266   8.438 -0.1979  0.5274 -0.0540
35716SOL    HW115926   0.962   6.234   8.451 -0.5749 -0.5913 -0.1101
35716SOL    HW215927   0.874   6.302   8.349 -0.5786 -2.4352 -1.3878
35717SOL     OW15928   1.261   2.724   2.542 -0.0426  0.3348  0.2872
35717SOL    HW115929   1.168   2.720   2.567 -0.0375  1.4888  0.5436
35717SOL    HW215930   1.288   2.812   2.566  0.8136  0.4159 -0.9021
35718SOL     OW15931   3.069  10.383  12.024  0.0054 -0.2186 -0.1286
35718SOL    HW115932   3.038  10.436  11.951 -0.2984  0.6563  0.6158
35718SOL    HW215933   3.132  10.438  12.069 -0.3612 -0.4546  0.7002
35719SOL     OW15934   2.681  12.248   5.736  0.2267 -0.1476 -0.2515
35719SOL    HW115935   2.773  12.251   5.762  0.5588 -1.0574 -1.2330
35719SOL    HW215936   2.642  12.181   5.793 -0.1916  1.2626  1.1673
35720SOL     OW15937  12.059  12.140  11.403  0.0489  0.3300  0.2291
35720SOL    HW115938  12.016  12.090  11.333  0.6078 -1.2547  0.9644
35720SOL    HW215939  12.152  12.134  11.383  0.2388 -0.4178  1.2629
35721SOL     OW15940   6.132   6.621  12.539 -0.1789  0.2867 -0.5297
35721SOL    HW115941   6.058   6.679  12.556 -0.7762  0.1166 -2.2673
35721SOL    HW215942   6.092   6.541  12.504  0.7500 -0.3298 -0.2172
35722SOL     OW15943  11.399   3.209   1.899  0.1809  0.5079 -0.3039
35722SOL    HW115944  11.428   3.296   1.870 -0.5108  0.6970 -0.4548
35722SOL    HW215945  11.312   3.200   1.861  0.0056 -0.0010  0.2216
35723SOL     OW15946   4.406  10.823  11.359 -0.0645  0.2511  0.8717
35723SOL    HW115947   4.356  10.823  11.277  1.1186 -0.5892  0.1301
35723SOL    HW215948   4.393  10.735  11.394  0.5158  0.1723  0.8975
35724SOL     OW15949   1.451  10.535   6.022 -0.0023  0.2712  0.2424
35724SOL    HW115950   1.467  10.481   5.945 -0.2347 -1.2668  1.2086
35724SOL    HW215951   1.428  10.621   5.988  1.9424  0.2193 -1.3365
35725SOL     OW15952   6.027   6.225  11.446 -0.2858  0.0408 -0.0771
35725SOL    HW115953   6.039   6.192  11.535  0.7063  0.2046 -0.1439
35725SOL    HW215954   6.089   6.175  11.393  0.5467  1.3161 -0.3431
35726SOL     OW15955   2.616   6.194  11.552 -0.2159  0.2138 -0.4914
35726SOL    HW115956   2.531   6.154  11.569 -0.3007  0.6998  0.2749
35726SOL    HW215957   2.611   6.281  11.593  0.3566  0.5712 -1.1504
35727SOL     OW15958   1.039   6.481  12.364 -0.2059  0.4471 -0.2519
35727SOL    HW115959   1.106   6.497  12.298 -0.7225  0.7948 -0.7076
35727SOL    HW215960   1.022   6.567  12.402 -1.3379  0.6229 -1.0845
35728SOL     OW15961  12.231   7.345   9.608 -0.3854 -0.0086 -0.6714
35728SOL    HW115962  12.210   7.381   9.522 -1.1081 -0.5305 -0.7186
35728SOL    HW215963  12.203   7.413   9.670 -1.2738 -0.2616 -0.7844
35729SOL     OW15964   3.437   8.185   0.530 -0.3100  0.4623  0.1950
35729SOL    HW115965   3.376   8.208   0.600  0.4487  1.2623  0.6113
35729SOL    HW215966   3.519   8.228   0.554  0.3916 -0.4816 -0.4251
35730SOL     OW15967   8.132   2.989   4.154  0.0237  0.2331 -0.0674
35730SOL    HW115968   8.173   2.915   4.199 -0.7932 -0.3161 -0.2057
35730SOL    HW215969   8.201   3.025   4.098 -0.2618 -2.0967 -2.0522
35731SOL     OW15970   6.450   6.124   7.084 -0.3931  0.1711 -0.3541
35731SOL    HW115971   6.488   6.165   7.006  2.6481  0.1149  0.9286
35731SOL    HW215972   6.453   6.030   7.065  0.3115  0.1592 -0.2174
35732SOL     OW15973   2.986   7.856   4.906  0.5020 -0.8516 -0.9133
35732SOL    HW115974   2.921   7.883   4.841  1.6431  2.0270 -1.0360
35732SOL    HW215975   2.964   7.906   4.984  0.8960 -2.0176 -0.0255
35733SOL     OW15976   5.619   2.016  10.320  0.1037  0.4329 -0.4845
35733SOL    HW115977   5.711   2.028  10.297  0.7431  1.4316  2.2203
35733SOL    HW215978   5.604   1.922  10.309  1.1816  0.3889 -1.8228
35734SOL     OW15979   2.082   1.384   4.201 -1.0147  0.1357  0.3320
35734SOL    HW115980   2.066   1.377   4.107  0.5244 -1.0158  0.1298
35734SOL    HW215981   2.084   1.294   4.233 -0.1771  0.4570  1.2367
35735SOL     OW15982   0.039  10.913   6.100  0.5869  0.0366  0.3222
35735SOL    HW115983   0.099  10.845   6.069 -0.4627 -1.5803  1.7063
35735SOL    HW215984   0.076  10.941   6.184 -0.2832 -0.5683  0.9120
35736SOL     OW15985   2.742   3.025  11.560  0.2598  0.1258  1.5023
35736SOL    HW115986   2.714   2.951  11.615  2.4963  0.4042  3.1432
35736SOL    HW215987   2.784   2.984  11.484  0.3120 -0.2718  1.7438
35737SOL     OW15988   8.441   5.448   7.883 -0.2183 -0.3965  0.0158
35737SOL    HW115989   8.476   5.527   7.841 -1.3790 -0.5825 -1.3745
35737SOL    HW215990   8.365   5.424   7.829 -0.7061 -1.6742  1.2257
35738SOL     OW15991   2.916   3.900   0.608  0.2760 -0.1224 -0.2226
35738SOL    HW115992   2.904   3.986   0.649  0.8940 -0.1246 -0.0235
35738SOL    HW215993   2.984   3.914   0.542  0.0968 -0.3743 -0.4640
35739SOL     OW15994   9.872   2.472  11.619  0.0857 -0.6847  0.1072
35739SOL    HW115995   9.929   2.484  11.694  0.6526 -0.7558 -0.3014
35739SOL    HW215996   9.930   2.480  11.543 -0.4223 -0.8956 -0.3140
35740SOL     OW15997   9.074   3.271   9.102 -0.2444  0.1417  0.3282
35740SOL    HW115998   9.074   3.188   9.053 -1.4682 -1.3983  2.7363
35740SOL    HW215999   9.069   3.339   9.034 -0.2235 -1.7543 -1.7057
35741SOL     OW16000  12.084   1.460   1.619  0.1733 -0.5412 -0.2314
35741SOL    HW116001  12.108   1.495   1.533  0.8533 -1.7489 -0.5388
35741SOL    HW216002  12.148   1.498   1.679 -0.1387  0.0906 -0.2887
35742SOL     OW16003   7.257  12.542   2.594 -0.3489 -1.1716 -0.2180
35742SOL    HW116004   7.273  12.598   2.670 -3.3922  1.1678 -1.1264
35742SOL    HW216005   7.167  12.511   2.605 -0.0878 -2.6505 -1.7745
35743SOL     OW16006  10.861   1.392   6.493  0.2173 -0.4139 -0.0438
35743SOL    HW116007  10.870   1.298   6.483 -1.6971 -0.6280 -0.0939
35743SOL    HW216008  10.939   1.419   6.542  0.3505 -2.1441  0.7599
35744SOL     OW16009   8.868   6.232   2.248 -0.1810 -0.2738  0.4607
35744SOL    HW116010   8.909   6.146   2.242  3.0085  1.1831 -0.8916
35744SOL    HW216011   8.923   6.280   2.310 -3.4257  0.1556  3.3024
35745SOL     OW16012   0.327   8.635   3.117 -0.4360 -0.2168 -0.0533
35745SOL    HW116013   0.373   8.619   3.035  0.1138 -1.7430  0.5229
35745SOL    HW216014   0.297   8.726   3.110  3.4815  1.2478 -0.0565
35746SOL     OW16015   1.435   3.041   4.490  0.6853 -0.1258  0.6003
35746SOL    HW116016   1.440   2.949   4.518  0.0611 -0.6879 -0.9894
35746SOL    HW216017   1.476   3.090   4.561 -1.8506 -1.2691  3.0730
35747SOL     OW16018  10.581  10.014   0.112  0.2930 -0.2619  0.1247
35747SOL    HW116019  10.613  10.060   0.034 -0.9538  0.0774 -0.2067
35747SOL    HW216020  10.500   9.972   0.083  0.6893 -1.5406  0.7969
35748SOL     OW16021  11.068   1.010   1.656  0.1975 -0.4699 -0.7828
35748SOL    HW116022  11.034   1.039   1.741  0.3071 -0.6993 -0.6607
35748SOL    HW216023  11.006   1.046   1.592  0.6714  0.5757 -0.6818
35749SOL     OW16024   3.846   9.733   1.350  0.1427  0.0459 -0.2729
35749SOL    HW116025   3.805   9.669   1.291  1.0800  0.0713 -0.9694
35749SOL    HW216026   3.877   9.680   1.424  0.8879 -0.3207 -0.8318
35750SOL     OW16027   3.504  11.760  12.085 -0.3524 -0.2882  0.2562
35750SOL    HW116028   3.554  11.749  12.004  0.0891  0.1829  0.4521
35750SOL    HW216029   3.521  11.681  12.135 -2.1056 -1.4291 -0.8603
35751SOL     OW16030   5.314   5.814   9.581 -0.0994  0.0654  0.7667
35751SOL    HW116031   5.287   5.770   9.500  0.2068 -1.1764  1.3032
35751SOL    HW216032   5.248   5.882   9.595 -0.9272 -0.5923  0.1924
35752SOL     OW16033   3.151   5.245   2.563  0.0039 -0.0113  0.3920
35752SOL    HW116034   3.063   5.259   2.529 -0.5068 -1.5896  0.9711
35752SOL    HW216035   3.146   5.273   2.655  0.3104  0.5454  0.2450
35753SOL     OW16036   1.191   3.752  10.944 -0.6415  0.4892  0.2858
35753SOL    HW116037   1.101   3.738  10.974 -0.5643  0.3920  0.4705
35753SOL    HW216038   1.200   3.693  10.869 -0.8713  0.8151 -0.0036
35754SOL     OW16039   3.351   1.775  11.137  0.1693  0.4542  0.3831
35754SOL    HW116040   3.402   1.798  11.059 -1.8743 -0.1679 -1.2469
35754SOL    HW216041   3.346   1.856  11.187  1.3798  0.9267 -0.2282
35755SOL     OW16042   8.987   8.570   2.132  0.2405 -0.0098  0.2611
35755SOL    HW116043   8.986   8.645   2.074 -0.3736  0.7670  1.2411
35755SOL    HW216044   9.061   8.586   2.192 -2.1237  1.8687  2.9662
35756SOL     OW16045   5.323   7.845  10.128  0.5058 -0.4278  0.2641
35756SOL    HW116046   5.382   7.917  10.106  1.4616 -0.6629  1.9233
35756SOL    HW216047   5.358   7.770  10.081  1.2744 -0.4588  0.8731
35757SOL     OW16048   8.733   3.727   8.775 -0.8945  0.5871  0.0276
35757SOL    HW116049   8.722   3.817   8.805 -0.7432  0.6667 -0.1550
35757SOL    HW216050   8.654   3.709   8.724 -2.1134 -0.2147  2.0933
35758SOL     OW16051   0.817   8.269   8.686 -0.1031  0.0178 -0.2605
35758SOL    HW116052   0.812   8.177   8.662 -1.2525  0.4556 -1.8363
35758SOL    HW216053   0.885   8.272   8.754  1.0377 -1.7632 -1.2279
35759SOL     OW16054  12.262   4.663   5.047  0.7884  0.1160  0.3019
35759SOL    HW116055  12.236   4.578   5.084  0.2640  0.2089  0.1511
35759SOL    HW216056  12.351   4.677   5.080  0.5005 -0.0132  1.1502
35760SOL     OW16057   2.674  10.185   2.708 -0.0602 -0.2895 -0.2601
35760SOL    HW116058   2.717  10.260   2.748 -1.5756 -0.1415  1.1931
35760SOL    HW216059   2.676  10.203   2.614  0.2189  1.2235  0.0125
35761SOL     OW16060   1.677   1.649   6.609  0.2510 -0.2094 -0.3378
35761SOL    HW116061   1.734   1.579   6.639 -1.3161 -0.4296  2.4092
35761SOL    HW216062   1.701   1.725   6.662 -1.4007 -0.1035  0.3363
35762SOL     OW16063   2.611   7.596   0.547  0.2201 -0.1282 -0.4100
35762SOL    HW116064   2.538   7.657   0.555  1.3816  1.0817  1.9114
35762SOL    HW216065   2.672   7.639   0.486 -0.3355 -0.4759 -1.2285
35763SOL     OW16066  10.833   9.891   7.359 -0.8170 -0.4820 -0.0685
35763SOL    HW116067  10.825   9.914   7.452  0.1086 -1.7712  0.3506
35763SOL    HW216068  10.875   9.968   7.319 -1.9963  0.4257  0.4021
35764SOL     OW16069   1.810   9.795   4.333 -0.0651  0.7444  0.4066
35764SOL    HW116070   1.715   9.789   4.322 -0.2207  0.6507  1.5894
35764SOL    HW216071   1.831   9.887   4.318 -0.2690  0.6784 -0.3122
35765SOL     OW16072   9.795   6.971   1.028  0.0933 -0.2164  0.3813
35765SOL    HW116073   9.826   6.968   0.937  2.4156  0.2870  1.0882
35765SOL    HW216074   9.818   6.885   1.064 -0.8017 -0.4074  0.5045
35766SOL     OW16075   0.721   7.168   8.171 -0.7707  0.2309  0.0932
35766SOL    HW116076   0.635   7.172   8.129  0.0463  1.4279 -1.5549
35766SOL    HW216077   0.702   7.173   8.264 -2.6116 -1.7652 -0.0768
35767SOL     OW16078   3.049   1.515   5.286 -0.6610 -0.2044  0.5063
35767SOL    HW116079   3.128   1.480   5.328  1.9622  1.0669 -2.8633
35767SOL    HW216080   3.002   1.560   5.356  1.3445 -1.3599  2.7566
35768SOL     OW16081   9.561   1.761   5.275 -1.0840  0.1407  0.1698
35768SOL    HW116082   9.653   1.764   5.250 -1.0752 -0.9946  0.0343
35768SOL    HW216083   9.514   1.767   5.192 -1.0685 -2.3897 -0.0947
35769SOL     OW16084   7.793  11.605  11.646  0.0551 -0.4678 -0.1991
35769SOL    HW116085   7.768  11.522  11.686  0.2419  0.1753  1.3302
35769SOL    HW216086   7.868  11.635  11.697  0.8541  0.0015 -1.5927
35770SOL     OW16087  10.648   3.135   1.368  0.1905  0.2825  0.5070
35770SOL    HW116088  10.622   3.084   1.445  0.3723 -1.2837 -0.4201
35770SOL    HW216089  10.629   3.078   1.294  0.9487  1.3576 -0.5577
35771SOL     OW16090   9.114   7.189   4.882  0.4373 -0.6542  0.3617
35771SOL    HW116091   9.031   7.143   4.893 -0.2822  0.7353  0.9206
35771SOL    HW216092   9.105   7.269   4.933  1.3552  0.5023 -1.1755
35772SOL     OW16093   5.411   3.367   6.174 -0.0166  0.3344 -0.1627
35772SOL    HW116094   5.352   3.339   6.104 -1.5962  0.2951  1.1139
35772SOL    HW216095   5.434   3.457   6.151  0.9303 -0.2543 -1.6267
35773SOL     OW16096   5.141  12.499   9.849  0.1314 -0.2018 -0.7177
35773SOL    HW116097   5.233  12.473   9.847 -0.5917 -3.1142 -0.8621
35773SOL    HW216098   5.140  12.580   9.901  2.8122  0.3194 -1.3285
35774SOL     OW16099   1.773   9.432   0.320  0.9610  0.5458 -0.5489
35774SOL    HW116100   1.808   9.420   0.231  1.6826  0.9237 -0.3224
35774SOL    HW216101   1.821   9.508   0.354  2.3192 -0.9236  0.9714
35775SOL     OW16102   7.738   8.561  11.301  0.3803  0.0232  0.3906
35775SOL    HW116103   7.751   8.605  11.386 -0.6163  0.7484  0.1920
35775SOL    HW216104   7.746   8.468  11.321  0.4732  0.1977  1.2216
35776SOL     OW16105   4.783   3.758  11.390 -0.3881 -0.2545  0.3837
35776SOL    HW116106   4.747   3.777  11.477 -0.8559 -0.6352  0.2736
35776SOL    HW216107   4.724   3.801  11.329 -1.1402 -1.5454  0.1626
35777SOL     OW16108   4.893  10.632   8.197  0.2908 -0.5897 -0.7324
35777SOL    HW116109   4.849  10.548   8.181  1.0554 -1.1111 -0.1564
35777SOL    HW216110   4.980  10.621   8.159  1.1151 -0.8107  1.1366
35778SOL     OW16111   6.681  10.493   5.788 -0.5576  0.1356  0.4251
35778SOL    HW116112   6.711  10.411   5.827 -0.2402 -0.1255 -0.3352
35778SOL    HW216113   6.598  10.472   5.747 -0.9793  0.4525  1.1077
35779SOL     OW16114  10.974   5.801  11.774 -0.0785 -0.7762 -0.0077
35779SOL    HW116115  10.998   5.709  11.772 -0.9634 -1.0546  1.2895
35779SOL    HW216116  10.882   5.803  11.749 -0.0223 -0.2097 -0.1913
35780SOL     OW16117   5.336   3.880   1.801  0.0856 -0.4388  0.9418
35780SOL    HW116118   5.333   3.938   1.725 -0.8008 -1.0536  0.4886
35780SOL    HW216119   5.407   3.915   1.855  0.0542  0.6241  0.3311
35781SOL     OW16120   2.434   7.899   5.051 -0.2377 -0.1027 -0.0732
35781SOL    HW116121   2.426   7.859   5.137 -0.9777  0.8734  0.3354
35781SOL    HW216122   2.353   7.875   5.005 -1.0057  1.4361  0.4198
35782SOL     OW16123   7.024   1.763   9.193 -0.1123 -0.0436  0.1362
35782SOL    HW116124   7.104   1.722   9.226 -0.2998 -1.8546 -1.5054
35782SOL    HW216125   7.050   1.853   9.173  1.2160 -0.2898  0.6464
35783SOL     OW16126   1.440   2.304  11.522  0.3801  0.3300 -0.2950
35783SOL    HW116127   1.401   2.229  11.568 -0.0918  0.8286  0.1248
35783SOL    HW216128   1.410   2.381  11.571 -0.4414  0.9088 -1.6551
35784SOL     OW16129   3.687   6.843  11.206  0.3692  0.7977  0.3758
35784SOL    HW116130   3.612   6.898  11.185 -0.8254 -0.9211 -0.0120
35784SOL    HW216131   3.722   6.880  11.287  0.5431  3.0248 -0.6514
35785SOL     OW16132   9.569   0.752   7.162  0.0092 -0.0500 -0.3190
35785SOL    HW116133   9.636   0.745   7.094 -0.3534  1.3304 -0.8627
35785SOL    HW216134   9.498   0.696   7.132 -0.6357  1.4437 -1.7326
35786SOL     OW16135  12.066   7.528   8.956 -0.7057  0.1820  0.0981
35786SOL    HW116136  12.059   7.559   8.865  1.2897 -2.5749 -1.1499
35786SOL    HW216137  12.153   7.555   8.984 -0.8124 -0.1117  0.7291
35787SOL     OW16138   6.997   6.206   9.068  0.0439 -0.4594  0.1603
35787SOL    HW116139   7.045   6.273   9.116 -1.0406 -0.7743  1.7600
35787SOL    HW216140   7.065   6.156   9.022  1.0110  0.6083  0.3882
35788SOL     OW16141  11.259   3.856   2.641  0.2711  0.5226 -0.3269
35788SOL    HW116142  11.165   3.842   2.629  0.2231  0.0570  0.5527
35788SOL    HW216143  11.294   3.769   2.659  1.0291  0.5408 -1.5615
35789SOL     OW16144  11.557   5.762  11.363 -0.7048 -0.1644 -0.3338
35789SOL    HW116145  11.517   5.841  11.328 -0.2437 -0.3397 -1.2837
35789SOL    HW216146  11.485   5.714  11.402 -0.8469  1.1580  1.1410
35790SOL     OW16147   5.774  11.770   8.615  0.7827 -0.0616  0.2394
35790SOL    HW116148   5.798  11.850   8.661  0.6664  0.8486 -1.2069
35790SOL    HW216149   5.680  11.779   8.599  0.6267 -0.8220  0.6544
35791SOL     OW16150  10.047   1.736  12.371  0.3161 -0.6744  0.0004
35791SOL    HW116151   9.969   1.702  12.328 -0.1046 -0.1508  0.3340
35791SOL    HW216152  10.038   1.831  12.365  0.5841 -0.6035  0.6447
35792SOL     OW16153   8.403   2.830   0.037 -1.0468  0.1781 -0.2550
35792SOL    HW116154   8.331   2.879  -0.002 -0.2352  1.0402 -0.7174
35792SOL    HW216155   8.461   2.898   0.072  0.2086 -0.4280 -1.1005
35793SOL     OW16156   0.778   9.089   6.740 -0.1265 -0.2661  0.0456
35793SOL    HW116157   0.869   9.082   6.711  0.1249  0.2027  0.6891
35793SOL    HW216158   0.726   9.055   6.667  0.5519 -0.2907 -0.4313
35794SOL     OW16159   9.953   5.391   2.463 -0.2991 -0.4371 -0.2086
35794SOL    HW116160  10.002   5.329   2.517  0.5591 -0.3499 -0.8603
35794SOL    HW216161   9.966   5.360   2.374 -1.6899 -0.5741 -0.3745
35795SOL     OW16162   3.643  10.363  10.758 -0.1215 -0.2052  0.1661
35795SOL    HW116163   3.689  10.342  10.677 -2.0529  0.8460 -1.2950
35795SOL    HW216164   3.565  10.411  10.730 -1.0494 -0.0936  2.6393
35796SOL     OW16165   4.763  10.428   9.420  0.2274 -0.6207 -0.1667
35796SOL    HW116166   4.672  10.401   9.408 -0.3096 -0.2120  2.3723
35796SOL    HW216167   4.814  10.348   9.410 -0.0474 -0.5133 -3.8796
35797SOL     OW16168  11.132  10.523   1.617  0.4247  0.1507  0.1808
35797SOL    HW116169  11.105  10.505   1.527  0.8503 -0.7071  0.2193
35797SOL    HW216170  11.161  10.615   1.615  0.6421  0.0725 -0.6082
35798SOL     OW16171   2.858   7.916   6.423  0.2302  0.0753  0.1141
35798SOL    HW116172   2.899   7.830   6.418  0.4534  0.1403  0.7271
35798SOL    HW216173   2.930   7.975   6.448  0.3459  0.6441 -1.3986
35799SOL     OW16174   0.023   9.783   4.194  0.1813 -0.5572  0.0965
35799SOL    HW116175  -0.025   9.725   4.135  0.4942 -1.0572  0.3259
35799SOL    HW216176  -0.027   9.781   4.275  0.5709 -1.0684  0.3317
35800SOL     OW16177   5.463   7.655   3.523  0.8942 -0.3423 -1.0438
35800SOL    HW116178   5.442   7.596   3.595  0.3429 -1.9463 -2.4340
35800SOL    HW216179   5.554   7.635   3.501  0.4933 -1.2692 -1.9824
35801SOL     OW16180   4.120  10.363   6.389 -0.0447 -0.2367  0.2030
35801SOL    HW116181   4.132  10.268   6.379 -0.2697 -0.3097  0.6033
35801SOL    HW216182   4.036  10.381   6.346  0.5958 -0.0143 -0.9884
35802SOL     OW16183  10.154   5.097   9.129  0.0466 -0.5017 -0.4875
35802SOL    HW116184  10.076   5.144   9.159  0.5552  0.1629 -0.1482
35802SOL    HW216185  10.123   5.011   9.103 -0.3786 -1.4523  2.7118
35803SOL     OW16186   9.587   7.550   6.985  0.1238  0.3207 -0.8019
35803SOL    HW116187   9.531   7.557   6.908  1.3646 -0.8780 -1.8723
35803SOL    HW216188   9.533   7.505   7.050 -0.3382 -0.3150 -1.6115
35804SOL     OW16189   1.904   2.577   3.360  0.0989 -0.2699 -0.5908
35804SOL    HW116190   1.919   2.603   3.269 -0.0864  0.0076 -0.5421
35804SOL    HW216191   1.836   2.636   3.392  0.0286 -0.4881 -0.3268
35805SOL     OW16192   9.361  10.751   8.164 -0.1429 -0.0514 -0.0187
35805SOL    HW116193   9.423  10.697   8.115  0.2231  0.3790 -0.0341
35805SOL    HW216194   9.388  10.841   8.147  0.5523  0.1041  1.6717
35806SOL     OW16195   5.146   5.412   3.255 -0.6304 -0.1972 -0.2636
35806SOL    HW116196   5.100   5.328   3.248 -0.7526 -0.2689  1.0244
35806SOL    HW216197   5.095   5.461   3.319  0.1572  0.3666 -0.0562
35807SOL     OW16198   5.508   2.953   4.186 -0.5367  0.0217  0.0401
35807SOL    HW116199   5.582   2.895   4.168 -0.7235 -0.5296  1.0107
35807SOL    HW216200   5.542   3.016   4.250 -0.4248  0.8090 -0.7753
35808SOL     OW16201   9.107   2.234   3.428 -0.0532  0.3442  0.7626
35808SOL    HW116202   9.198   2.236   3.398 -0.5221 -0.2942 -0.7905
35808SOL    HW216203   9.086   2.325   3.447  0.3076  0.7771 -0.7939
35809SOL     OW16204   1.799   7.026  10.684 -0.2901 -0.2300  0.6299
35809SOL    HW116205   1.893   7.010  10.677 -0.6306 -1.9057 -0.5671
35809SOL    HW216206   1.788   7.117  10.656  0.9829  0.0473  0.9821
35810SOL     OW16207   9.440   1.100   7.789  0.9366  0.2687  0.4734
35810SOL    HW116208   9.469   1.190   7.773  0.6594  0.3212  0.2664
35810SOL    HW216209   9.521   1.052   7.811  1.4574  0.0199 -1.7542
35811SOL     OW16210   1.520   9.259   6.450 -0.1507 -0.3663  0.0542
35811SOL    HW116211   1.486   9.191   6.392 -0.1779 -0.1015 -0.2437
35811SOL    HW216212   1.443   9.299   6.488 -0.1995  0.3429 -0.7456
35812SOL     OW16213   9.578   2.938   1.374 -0.2367 -0.1886  0.6635
35812SOL    HW116214   9.507   2.887   1.335 -0.5637 -0.7847  1.9910
35812SOL    HW216215   9.657   2.888   1.355 -0.4775 -0.8543  1.3520
35813SOL     OW16216   9.238  12.536   0.241 -0.2147  0.3938 -0.0441
35813SOL    HW116217   9.238  12.444   0.267 -1.0229  1.0474  2.6814
35813SOL    HW216218   9.200  12.537   0.154 -0.4757 -1.8184 -0.0071
35814SOL     OW16219  12.259   4.143   4.253 -0.5174 -0.0395  0.1832
35814SOL    HW116220  12.272   4.131   4.159 -2.1809 -0.5834 -0.0178
35814SOL    HW216221  12.296   4.229   4.272 -1.4956  0.7544 -1.2868
35815SOL     OW16222   5.132  11.870   7.597  0.4236 -0.1391 -0.1392
35815SOL    HW116223   5.104  11.936   7.533 -0.3037  0.2310  0.5484
35815SOL    HW216224   5.188  11.810   7.547 -1.5523 -0.8877 -1.5710
35816SOL     OW16225   9.382   9.590   7.869 -0.2910  0.2923  0.3554
35816SOL    HW116226   9.409   9.584   7.778  5.2202  0.8629  1.6179
35816SOL    HW216227   9.365   9.683   7.883  0.4920  0.4579  0.2417
35817SOL     OW16228   7.788   3.804  12.355  0.1732  0.2880 -0.2399
35817SOL    HW116229   7.839   3.771  12.429  0.6366 -0.3200 -0.8190
35817SOL    HW216230   7.767   3.726  12.303 -3.0486  0.2079  0.9675
35818SOL     OW16231   9.486   9.265   2.613  0.6156 -0.0866  0.2873
35818SOL    HW116232   9.529   9.248   2.697 -1.9920 -0.6849  1.5886
35818SOL    HW216233   9.400   9.225   2.621  0.4039 -0.5157 -2.8714
35819SOL     OW16234   6.985   2.499   4.848  0.4577 -0.1828  0.2806
35819SOL    HW116235   6.890   2.485   4.852  0.4738 -1.0149 -1.2147
35819SOL    HW216236   7.003   2.567   4.913 -1.2730  0.5052  0.0833
35820SOL     OW16237   3.668  12.318   0.346  0.3552  0.1393 -0.3999
35820SOL    HW116238   3.731  12.381   0.311  0.5884  0.9925  1.4509
35820SOL    HW216239   3.620  12.287   0.269  3.3541 -1.0077 -1.9875
35821SOL     OW16240  11.460  11.312  11.984 -0.1150  0.3164  0.5507
35821SOL    HW116241  11.378  11.331  11.939  0.4112  2.3552  0.3360
35821SOL    HW216242  11.528  11.338  11.922  0.6491  0.7874  1.5486
35822SOL     OW16243  11.556   2.624   6.570  0.3301 -0.3865  0.5605
35822SOL    HW116244  11.588   2.688   6.507  0.5079  0.3712  1.4036
35822SOL    HW216245  11.490   2.671   6.621 -0.7258 -1.3579  0.1273
35823SOL     OW16246   6.539   5.512   5.589 -0.0941  0.3072  0.6350
35823SOL    HW116247   6.590   5.435   5.614 -0.6351 -0.3261 -0.1632
35823SOL    HW216248   6.450   5.491   5.616 -0.5273 -0.0133 -0.9406
35824SOL     OW16249   2.889   2.084  10.228  1.0339  0.1162  0.3324
35824SOL    HW116250   2.979   2.059  10.208  0.8219  0.1314 -0.6796
35824SOL    HW216251   2.852   2.007  10.272  1.5289  0.1098  0.7544
35825SOL     OW16252   7.861   9.282   6.281  0.1392 -0.4214  0.2946
35825SOL    HW116253   7.892   9.330   6.204 -3.0209  0.7213 -0.4198
35825SOL    HW216254   7.876   9.190   6.259  0.9284 -0.0401 -0.8951
35826SOL     OW16255   9.010   4.418   0.552  0.5540 -0.0162  0.1325
35826SOL    HW116256   8.970   4.360   0.617 -0.0312  0.3970  0.1512
35826SOL    HW216257   9.096   4.379   0.534  0.8722  0.0571  1.4028
35827SOL     OW16258   1.031   1.132   4.146 -0.5636 -0.3246  0.0606
35827SOL    HW116259   0.961   1.176   4.195 -0.3474  1.2146 -0.9414
35827SOL    HW216260   0.992   1.114   4.060  1.2296  4.2365 -2.0780
35828SOL     OW16261  12.433   6.319   2.004 -0.0097 -0.1196  0.0062
35828SOL    HW116262  12.408   6.275   1.923 -0.6899 -1.4905  0.9222
35828SOL    HW216263  12.476   6.251   2.056 -0.4198  0.4834  1.1677
35829SOL     OW16264  11.888   9.612  10.503  0.3396  0.1498  0.0188
35829SOL    HW116265  11.944   9.576  10.434  0.3584  1.6272 -0.7734
35829SOL    HW216266  11.801   9.613  10.464  0.1238 -0.1988  0.4902
35830SOL     OW16267   6.878   6.878   6.629  0.1631 -0.5381  0.0760
35830SOL    HW116268   6.824   6.858   6.706 -1.3835 -0.8966 -1.0548
35830SOL    HW216269   6.955   6.821   6.639 -0.2025 -0.8780  1.1500
35831SOL     OW16270   0.692   3.372   6.951  0.2956  0.6826 -0.2590
35831SOL    HW116271   0.702   3.444   6.888  2.2512  0.4930 -0.2332
35831SOL    HW216272   0.697   3.293   6.897  2.3069  0.5097  0.0894
35832SOL     OW16273   7.623  10.808   2.732 -0.0357 -0.0501  0.8758
35832SOL    HW116274   7.707  10.774   2.761  1.2401  0.1469 -2.1375
35832SOL    HW216275   7.634  10.903   2.733  0.5554 -0.0387 -1.2754
35833SOL     OW16276   6.743  12.240   5.097  0.3088  0.0997  0.2152
35833SOL    HW116277   6.649  12.227   5.082  0.1574 -1.0353  1.9444
35833SOL    HW216278   6.786  12.181   5.035 -0.0735  0.9873 -0.9351
35834SOL     OW16279   6.734   8.043   1.901 -0.3489 -0.2249  0.3785
35834SOL    HW116280   6.806   8.081   1.951 -1.2581 -0.1296  1.6509
35834SOL    HW216281   6.758   7.951   1.889  1.5446  0.4696 -2.1360
35835SOL     OW16282   4.322   1.184   3.714 -0.4094 -0.0417 -0.2040
35835SOL    HW116283   4.264   1.116   3.747 -0.0082 -0.1878  0.1952
35835SOL    HW216284   4.301   1.261   3.766 -0.3236 -0.0650 -0.1346
35836SOL     OW16285   0.971   9.080   7.758 -0.0349 -0.0728  0.0199
35836SOL    HW116286   0.936   9.146   7.817  1.1587  1.5418 -0.9997
35836SOL    HW216287   0.943   8.996   7.796  0.2920  0.8929  2.6087
35837SOL     OW16288  10.311   8.737  11.280  0.0054 -0.0558 -0.4314
35837SOL    HW116289  10.283   8.735  11.372  0.3567 -1.3809 -0.3385
35837SOL    HW216290  10.239   8.696  11.232  1.2643 -2.6441 -0.2966
35838SOL     OW16291  10.102   6.143  11.617 -0.2204  0.0450  0.2316
35838SOL    HW116292  10.043   6.216  11.636  0.7186  1.0732 -0.6830
35838SOL    HW216293  10.139   6.119  11.702 -0.5400  0.6311  0.5419
35839SOL     OW16294   3.767   7.312   4.224 -0.5621  0.2373 -0.3713
35839SOL    HW116295   3.829   7.255   4.180 -2.8887 -1.2786 -1.9654
35839SOL    HW216296   3.785   7.300   4.317  1.6332  0.0647 -0.7684
35840SOL     OW16297   8.480   7.953   4.155  0.3005  0.6663  0.7492
35840SOL    HW116298   8.447   7.870   4.187 -0.2488  1.1933  1.6013
35840SOL    HW216299   8.433   8.019   4.206  1.6641  1.4736  1.0216
35841SOL     OW16300   6.818  10.259   8.026  0.1808  0.4708 -0.6838
35841SOL    HW116301   6.797  10.232   8.116  0.4104  1.0453 -0.4479
35841SOL    HW216302   6.888  10.200   7.998 -1.0999 -0.8880 -1.1493
35842SOL     OW16303   3.945  11.940   7.516  0.8579 -0.0042 -0.3032
35842SOL    HW116304   3.937  12.031   7.488 -0.1525  0.0521  0.1546
35842SOL    HW216305   3.863  11.899   7.489 -0.2296  0.0760  2.6266
35843SOL     OW16306   6.796   2.691   8.588  0.3460 -0.1731  0.8318
35843SOL    HW116307   6.716   2.730   8.622 -0.7458 -2.7251  1.4937
35843SOL    HW216308   6.800   2.716   8.496  0.0997  1.9236  1.3596
35844SOL     OW16309   0.576   2.861   7.052  0.0063 -0.0101  0.2507
35844SOL    HW116310   0.532   2.946   7.043  1.0624  0.5024 -0.1812
35844SOL    HW216311   0.667   2.883   7.072  0.6780 -1.0116 -1.5191
35845SOL     OW16312   8.445   9.851   0.104  0.1804  0.1365  0.1927
35845SOL    HW116313   8.503   9.796   0.052 -0.0591 -0.4567  0.5432
35845SOL    HW216314   8.496   9.930   0.123 -0.2014  0.9936 -2.0927
35846SOL     OW16315   3.199   9.801  11.923 -0.0698 -0.2514 -1.0406
35846SOL    HW116316   3.206   9.737  11.993  1.0123 -0.4865 -1.3302
35846SOL    HW216317   3.258   9.872  11.950 -1.9261  1.0618 -0.2925
35847SOL     OW16318   6.500   4.979   9.726  0.0483 -0.0145 -0.1226
35847SOL    HW116319   6.582   4.930   9.733 -0.2598 -0.8556 -1.8773
35847SOL    HW216320   6.483   5.009   9.815  0.4318 -2.8131  0.9898
35848SOL     OW16321   6.786   8.816   1.192  0.0298  0.2917  0.3615
35848SOL    HW116322   6.709   8.858   1.154 -0.6588 -0.7680  0.5501
35848SOL    HW216323   6.804   8.867   1.272  0.2442  1.2566 -0.2904
35849SOL     OW16324   7.717  12.292  12.074  1.2852 -0.5323 -0.0423
35849SOL    HW116325   7.627  12.308  12.102  0.6322  1.2993 -2.7332
35849SOL    HW216326   7.771  12.321  12.147 -0.2793 -0.6327  1.2079
35850SOL     OW16327   2.307  10.142   1.818 -0.6061  0.1651  0.5829
35850SOL    HW116328   2.308  10.140   1.914 -0.8808  0.8703  0.6024
35850SOL    HW216329   2.348  10.225   1.795 -0.3731 -0.0834  0.0790
35851SOL     OW16330  12.323   1.909  10.455 -0.2320  0.2067 -0.6407
35851SOL    HW116331  12.267   1.923  10.379 -1.5181 -0.0033  0.2240
35851SOL    HW216332  12.284   1.962  10.524  0.3249 -0.3584  0.1380
35852SOL     OW16333  10.216   2.548  10.928 -0.6575 -0.1745  0.6397
35852SOL    HW116334  10.276   2.508  10.991  0.0196  1.3081  0.9666
35852SOL    HW216335  10.264   2.621  10.890 -1.5397 -0.2109 -0.6235
35853SOL     OW16336  11.099   5.216   1.484  0.0575 -0.4012  0.3209
35853SOL    HW116337  11.106   5.134   1.434  0.1969 -1.3178  1.7804
35853SOL    HW216338  11.173   5.269   1.454  0.6136 -1.2593  0.1379
35854SOL     OW16339   6.791   0.634   7.588  0.1101 -0.1720  0.4344
35854SOL    HW116340   6.704   0.663   7.615 -1.1068 -2.2658 -0.9649
35854SOL    HW216341   6.837   0.715   7.566 -1.9681  0.9342 -0.1170
35855SOL     OW16342   3.140   9.461   4.952 -0.1145  0.5267 -0.2447
35855SOL    HW116343   3.081   9.526   4.990 -0.2948  0.3112 -0.1507
35855SOL    HW216344   3.189   9.427   5.027 -0.3416  0.2324 -0.2244
35856SOL     OW16345   9.170  11.382   1.509  0.3168  0.0103 -0.4398
35856SOL    HW116346   9.146  11.350   1.596 -0.8934  0.4659 -0.5854
35856SOL    HW216347   9.104  11.448   1.488  0.6865  0.0352 -1.6377
35857SOL     OW16348   8.642  11.634   1.007  0.1596  0.1755 -0.0464
35857SOL    HW116349   8.603  11.686   0.937 -1.0038  0.3205  0.6758
35857SOL    HW216350   8.711  11.584   0.964 -0.0944  0.7474 -1.1645
35858SOL     OW16351   0.851   9.421   0.525 -0.0752 -0.3375  0.4657
35858SOL    HW116352   0.860   9.445   0.618 -0.1080 -2.7508  1.1672
35858SOL    HW216353   0.940   9.403   0.496  0.1198  1.8938 -0.4679
35859SOL     OW16354   9.206   1.115   6.912  0.1357 -0.1622  0.1963
35859SOL    HW116355   9.273   1.172   6.874  0.4205 -0.3581  0.3962
35859SOL    HW216356   9.167   1.167   6.982  0.0902 -0.0528  0.0898
35860SOL     OW16357   2.427  10.100   5.766  0.0355  0.1563  0.3273
35860SOL    HW116358   2.362  10.170   5.775  0.4367  0.4790  0.7498
35860SOL    HW216359   2.471  10.097   5.851  0.5909 -0.0489  0.0384
35861SOL     OW16360   3.080   5.412   7.904 -0.0880 -0.0714 -0.1818
35861SOL    HW116361   3.044   5.444   7.987  1.2894 -0.3446  0.5606
35861SOL    HW216362   3.079   5.488   7.846  1.5329  0.9334  1.0039
35862SOL     OW16363   4.437  10.733   2.039 -0.2743 -0.5666 -0.0172
35862SOL    HW116364   4.349  10.740   2.004  0.2766  2.0078 -1.1071
35862SOL    HW216365   4.434  10.783   2.121  0.2552 -0.1622 -0.2423
35863SOL     OW16366   5.269   0.623   4.054 -0.0675  0.2855  0.5458
35863SOL    HW116367   5.229   0.554   4.106 -1.3004  0.3615 -0.2616
35863SOL    HW216368   5.316   0.677   4.118  2.1257 -2.0241  1.0437
35864SOL     OW16369   6.452   5.623   4.989  0.2700 -0.1209  0.3398
35864SOL    HW116370   6.488   5.540   5.021  1.8039  0.5270  0.3934
35864SOL    HW216371   6.447   5.678   5.067 -1.0024 -0.2368  0.3496
35865SOL     OW16372   5.509   4.977   7.341 -0.3520  0.0819  0.5315
35865SOL    HW116373   5.593   4.946   7.307 -0.2526 -0.4590  1.2622
35865SOL    HW216374   5.499   5.064   7.303  0.7360  0.3243  0.7696
35866SOL     OW16375   3.005   5.944   6.960  0.5057  0.2468  0.0150
35866SOL    HW116376   2.993   5.936   7.055  1.2257  1.4420  0.2291
35866SOL    HW216377   2.980   6.034   6.940  0.7361  0.1231 -0.8778
35867SOL     OW16378   7.653   6.467   4.387 -0.1174  0.4104 -0.0119
35867SOL    HW116379   7.706   6.453   4.308 -2.2018 -1.3949 -1.2447
35867SOL    HW216380   7.703   6.426   4.457  1.6252  1.7355 -0.4268
35868SOL     OW16381   4.483  10.800   4.136 -0.0234 -0.3273  0.4224
35868SOL    HW116382   4.562  10.798   4.082  1.6206 -0.1555  2.6617
35868SOL    HW216383   4.461  10.893   4.145 -1.5699 -0.4351 -1.5690
35869SOL     OW16384   7.476   0.914  12.392 -0.2005 -0.6965 -0.2178
35869SOL    HW116385   7.515   0.899  12.478 -0.1707  0.9975  0.0863
35869SOL    HW216386   7.508   0.841  12.338  0.5898 -1.2177  0.9270
35870SOL     OW16387   9.754   6.865  11.908 -0.0991 -0.3184  0.2025
35870SOL    HW116388   9.804   6.833  11.983 -0.1216 -1.3478 -0.1965
35870SOL    HW216389   9.663   6.859  11.935 -0.1487 -1.3955 -0.1436
35871SOL     OW16390  11.166   2.019  10.364  0.3390  0.1015  0.3660
35871SOL    HW116391  11.166   1.942  10.307  0.9069 -0.1076  0.6413
35871SOL    HW216392  11.157   1.983  10.453 -0.4486  0.4173  0.4226
35872SOL     OW16393   2.416   2.833   8.888  0.1199  0.3280  0.1579
35872SOL    HW116394   2.467   2.797   8.815 -0.2730  0.1834 -0.0484
35872SOL    HW216395   2.446   2.784   8.965  0.4031  0.3523  0.0666
35873SOL     OW16396   9.240   5.784   5.323  0.2168 -0.1151 -0.6312
35873SOL    HW116397   9.220   5.756   5.412  2.5582 -0.0357 -0.0168
35873SOL    HW216398   9.207   5.874   5.318  0.4007  0.0173  0.3081
35874SOL     OW16399   7.475   7.594   1.565  0.0082  0.1163  0.3190
35874SOL    HW116400   7.488   7.680   1.605 -1.0799  0.0468  0.8680
35874SOL    HW216401   7.509   7.532   1.630 -0.5008  0.0672  0.5395
35875SOL     OW16402   1.342  11.506   1.172 -0.0807  1.1657 -0.3447
35875SOL    HW116403   1.336  11.429   1.228 -0.3426  1.0285 -0.5573
35875SOL    HW216404   1.422  11.491   1.120 -0.1624  1.0080 -0.4263
35876SOL     OW16405   3.519   0.510   5.141 -0.0587  0.6159  0.7276
35876SOL    HW116406   3.557   0.452   5.075  0.3404 -1.7786  2.9122
35876SOL    HW216407   3.557   0.596   5.122  1.2801 -0.3159 -1.1520
35877SOL     OW16408   0.742   9.568   2.753  0.0666  0.0748  0.8076
35877SOL    HW116409   0.671   9.632   2.759 -1.0757 -0.9800 -0.5408
35877SOL    HW216410   0.787   9.590   2.672  0.9422  0.3798  1.3658
35878SOL     OW16411   1.257   6.039   0.293  0.2639  0.5125 -0.4571
35878SOL    HW116412   1.308   6.002   0.365  0.3013  0.4996 -0.4906
35878SOL    HW216413   1.307   6.116   0.265  0.0937  0.6940 -0.2661
35879SOL     OW16414  11.698  11.531   1.467 -0.0261  0.3931  0.1254
35879SOL    HW116415  11.731  11.442   1.463 -0.5796  0.2200 -1.9575
35879SOL    HW216416  11.776  11.585   1.478  0.5760 -0.2227 -0.9804
35880SOL     OW16417   8.894   1.132   3.209 -0.0881  0.0888  0.1357
35880SOL    HW116418   8.802   1.139   3.235 -0.5328 -0.7878 -1.1009
35880SOL    HW216419   8.933   1.215   3.235 -0.0490 -1.1759  5.0236
35881SOL     OW16420   3.973   9.975   7.610  0.0267 -0.0759 -0.2203
35881SOL    HW116421   3.983  10.007   7.520 -0.3524  0.8293  0.0473
35881SOL    HW216422   4.040   9.908   7.619  1.6509  1.4549 -0.4454
35882SOL     OW16423  11.771   9.231   1.333 -0.2078 -0.2976 -0.4122
35882SOL    HW116424  11.847   9.268   1.287  0.6260 -1.0644  0.3057
35882SOL    HW216425  11.737   9.165   1.272  0.1943 -0.5085 -0.4144
35883SOL     OW16426  11.082   6.061   3.183  0.4708  0.2312 -0.1661
35883SOL    HW116427  11.042   5.994   3.128 -0.1020 -0.9921  1.6455
35883SOL    HW216428  11.160   6.088   3.135  2.3891 -3.8302  0.2094
35884SOL     OW16429   8.303   1.045   7.939  0.0160 -0.4015 -0.4122
35884SOL    HW116430   8.352   0.978   7.987  0.9704  1.4427  1.3649
35884SOL    HW216431   8.365   1.078   7.874  1.0869  1.4855  1.4154
35885SOL     OW16432  12.057   2.626   0.504 -0.2231  0.4194 -0.1850
35885SOL    HW116433  12.074   2.559   0.438 -0.2953 -0.1316  0.3524
35885SOL    HW216434  11.969   2.657   0.484 -0.0498  0.6309 -0.6634
35886SOL     OW16435  10.690   3.406   5.409 -0.0379 -0.1294 -0.3420
35886SOL    HW116436  10.638   3.398   5.329 -1.8645 -0.0816  0.7676
35886SOL    HW216437  10.722   3.497   5.409  1.4958 -0.6277 -1.8422
35887SOL     OW16438  11.799   3.909   2.695  0.2872  0.1485  0.2550
35887SOL    HW116439  11.866   3.868   2.751 -0.9027  1.1422  2.5179
35887SOL    HW216440  11.811   4.003   2.708  0.6289  0.4772 -2.0328
35888SOL     OW16441   2.957   2.247   7.337 -0.1136  0.4431 -0.0162
35888SOL    HW116442   2.901   2.178   7.302 -0.4596  0.9650 -0.5308
35888SOL    HW216443   2.895   2.315   7.364  0.1918  0.3543  0.9368
35889SOL     OW16444  10.611   1.352   8.688  0.6896  0.3909  0.3592
35889SOL    HW116445  10.699   1.320   8.712  0.1201 -0.3998  1.5007
35889SOL    HW216446  10.593   1.311   8.604 -0.2020 -2.8776  1.9754
35890SOL     OW16447   1.925  10.886   4.486 -0.2015 -0.3096 -0.3780
35890SOL    HW116448   2.013  10.879   4.522  0.0644 -0.4838 -1.0467
35890SOL    HW216449   1.885  10.960   4.533 -0.0699 -0.8838  0.6716
35891SOL     OW16450   4.234   8.888   0.624 -0.3144  0.6099  0.3768
35891SOL    HW116451   4.230   8.834   0.703 -0.7692  0.0018 -0.0461
35891SOL    HW216452   4.326   8.912   0.615 -0.3270  1.0548  1.3282
35892SOL     OW16453  10.454   0.947   0.173 -0.0198  0.3796  0.1938
35892SOL    HW116454  10.425   1.002   0.100 -0.4931  0.6723  0.5953
35892SOL    HW216455  10.539   0.914   0.146 -0.3235  0.2470 -0.6205
35893SOL     OW16456   0.440  11.249   5.001  0.0733  0.4817 -0.1165
35893SOL    HW116457   0.516  11.254   5.059  0.3395  1.0417 -0.5000
35893SOL    HW216458   0.377  11.194   5.048  0.9341 -0.4613 -0.0537
35894SOL     OW16459   0.265  11.037   2.191  0.0419 -0.2152 -0.0285
35894SOL    HW116460   0.305  11.021   2.106  0.5619 -2.1862  0.5495
35894SOL    HW216461   0.338  11.059   2.249  0.0111 -1.3606  0.4634
35895SOL     OW16462   8.661   6.283   8.794 -0.1377 -0.1825 -0.4116
35895SOL    HW116463   8.620   6.355   8.745  0.8270 -0.0332 -1.0375
35895SOL    HW216464   8.699   6.227   8.727 -0.5178 -1.0687  0.0937
35896SOL     OW16465   7.431   9.929   9.238  0.3642  0.2910  0.5123
35896SOL    HW116466   7.398   9.911   9.327 -0.9231 -2.1346 -0.3377
35896SOL    HW216467   7.520   9.894   9.238  0.0177 -0.6244  0.6015
35897SOL     OW16468   2.451   5.168   5.497 -0.2416  0.1513 -0.3204
35897SOL    HW116469   2.508   5.187   5.423 -0.7857 -0.0330 -0.8005
35897SOL    HW216470   2.413   5.252   5.521  0.1539  0.2583 -0.0611
35898SOL     OW16471   3.138   2.420   9.049 -0.1252 -0.5633  0.1141
35898SOL    HW116472   3.096   2.477   8.984  2.5619  0.6094 -0.7520
35898SOL    HW216473   3.138   2.472   9.129  1.9589  0.6293 -0.5726
35899SOL     OW16474   4.782  11.653  11.509 -0.0599 -0.3177  0.3559
35899SOL    HW116475   4.709  11.660  11.570  0.0053 -0.0692  0.4061
35899SOL    HW216476   4.743  11.620  11.428 -0.4328  0.9113  0.0192
35900SOL     OW16477   5.745  12.153   6.754  0.1227  0.4763  0.0272
35900SOL    HW116478   5.825  12.204   6.738 -0.0367  0.6120 -0.3410
35900SOL    HW216479   5.725  12.113   6.669  0.8389 -1.0543  0.5530
35901SOL     OW16480   7.610  11.529   2.486 -0.6431 -0.2176  0.0361
35901SOL    HW116481   7.533  11.473   2.494 -0.8648  0.2071  0.9458
35901SOL    HW216482   7.684  11.473   2.506 -0.9086 -0.0613  1.5242
35902SOL     OW16483   2.145   1.114   0.095  0.6163  0.2524 -0.1684
35902SOL    HW116484   2.179   1.119   0.006 -0.6637  1.3915 -0.6291
35902SOL    HW216485   2.169   1.198   0.135  1.0110 -0.1714  0.5059
35903SOL     OW16486  11.959   8.624  10.018 -0.4323  0.2097  0.2040
35903SOL    HW116487  11.966   8.676  10.098 -0.6928 -0.0837  0.4179
35903SOL    HW216488  11.865   8.618  10.002 -0.3567  1.8935 -1.1852
35904SOL     OW16489   6.562   4.115   9.543 -0.2468  0.0156  0.6971
35904SOL    HW116490   6.638   4.060   9.561  0.1625  0.0609 -0.7867
35904SOL    HW216491   6.590   4.172   9.472 -1.2857  0.8621  0.9439
35905SOL     OW16492   5.574   6.789   3.010  0.4408 -0.5420  0.2619
35905SOL    HW116493   5.631   6.730   3.057  0.5972 -0.0127  0.7462
35905SOL    HW216494   5.571   6.753   2.921  0.3671 -1.3813  0.5948
35906SOL     OW16495   8.097   1.262   5.485  0.0662 -0.0209  0.2677
35906SOL    HW116496   8.179   1.249   5.437  0.6274  0.8679  0.9641
35906SOL    HW216497   8.033   1.283   5.417  0.9484  1.6698 -0.0899
35907SOL     OW16498   0.192   5.793   4.004  0.3008  0.3267  0.3770
35907SOL    HW116499   0.162   5.841   4.081 -0.0136  1.7610 -0.6105
35907SOL    HW216500   0.287   5.789   4.013  0.5850  3.0090 -0.5079
35908SOL     OW16501   0.762   6.352   5.558  0.1500 -0.2872 -0.4331
35908SOL    HW116502   0.775   6.418   5.490 -1.0551 -0.4693 -0.8770
35908SOL    HW216503   0.761   6.268   5.511  0.5376 -0.5285 -0.0235
35909SOL     OW16504   3.730   2.908  11.732 -0.1819 -0.2229  0.0892
35909SOL    HW116505   3.717   2.858  11.651  2.0447 -0.5618 -0.1091
35909SOL    HW216506   3.690   2.854  11.800  2.3218 -2.5150 -0.0828
35910SOL     OW16507  10.072   8.213   8.852 -0.3814  0.3034  0.2155
35910SOL    HW116508  10.104   8.124   8.832  1.2792  0.5882  1.3873
35910SOL    HW216509  10.152   8.265   8.862 -1.3072  1.6891  0.6609
35911SOL     OW16510   3.016   9.321   3.831 -0.3560 -0.3611  0.2278
35911SOL    HW116511   3.020   9.359   3.918 -0.9343 -0.0643  0.1279
35911SOL    HW216512   3.107   9.306   3.807  0.0100  2.1057 -0.2171
35912SOL     OW16513   9.478   4.044   7.786 -0.2413 -0.6138  0.8645
35912SOL    HW116514   9.403   4.077   7.834 -1.1705 -1.2191 -0.1244
35912SOL    HW216515   9.449   3.960   7.750  1.3214 -1.4705  1.4782
35913SOL     OW16516   9.582   5.406   2.187 -0.1492 -0.2448 -0.8090
35913SOL    HW116517   9.652   5.347   2.161 -1.1302 -1.9167  0.1251
35913SOL    HW216518   9.536   5.358   2.256 -1.1615  1.5271 -0.1965
35914SOL     OW16519  11.991  10.037   3.030 -0.0273  0.0324  0.5235
35914SOL    HW116520  11.994  10.120   2.982 -0.3099  0.5447  1.3635
35914SOL    HW216521  12.044  10.054   3.109  0.1091 -0.6651  0.5876
35915SOL     OW16522   9.086   1.809  10.361  0.0901  0.2693 -0.0494
35915SOL    HW116523   9.171   1.809  10.318  0.6986 -0.8434  1.0792
35915SOL    HW216524   9.102   1.767  10.445 -1.5861  0.0146  0.1728
35916SOL     OW16525   0.179   4.333   2.676 -0.2313  0.4780 -0.0247
35916SOL    HW116526   0.165   4.240   2.690 -0.9051  0.5705 -0.0496
35916SOL    HW216527   0.213   4.339   2.587  1.0212  0.1598  0.4109
35917SOL     OW16528   4.079   6.532  12.525 -0.0142  0.7782 -0.0015
35917SOL    HW116529   4.018   6.606  12.517 -0.3509  0.5185  0.1084
35917SOL    HW216530   4.139   6.557  12.595  0.5525  1.4104 -0.7019
35918SOL     OW16531   5.987  12.532   3.328  0.0866 -0.3919 -0.5420
35918SOL    HW116532   5.920  12.468   3.305 -1.1915  0.5945  0.3233
35918SOL    HW216533   6.029  12.495   3.406 -1.7015  0.4725  0.9169
35919SOL     OW16534   8.460  12.443  11.463  0.0681 -0.1650 -0.3627
35919SOL    HW116535   8.522  12.514  11.473  0.6274 -0.6483 -0.3497
35919SOL    HW216536   8.504  12.366  11.500 -0.8868 -0.3334  0.4688
35920SOL     OW16537  10.464   1.344   2.790  0.0893 -0.1738  0.5126
35920SOL    HW116538  10.543   1.387   2.756 -0.7062  1.1000  0.2265
35920SOL    HW216539  10.419   1.311   2.712 -0.3708  0.3668  0.5423
35921SOL     OW16540   5.603   2.133   6.268 -0.0451  0.2408 -0.0967
35921SOL    HW116541   5.614   2.159   6.359  0.7644  2.8951 -0.8796
35921SOL    HW216542   5.685   2.088   6.246 -0.4245 -0.8154  0.5633
35922SOL     OW16543   8.514  10.259   3.061  0.1242  0.2094  0.6857
35922SOL    HW116544   8.599  10.297   3.037  0.2704 -1.1703 -1.1508
35922SOL    HW216545   8.450  10.312   3.015  0.2356 -0.7287 -0.6136
35923SOL     OW16546   1.415  10.828  11.720 -0.0790 -0.1864  0.1108
35923SOL    HW116547   1.367  10.814  11.802  0.2164  0.9252  0.4869
35923SOL    HW216548   1.500  10.864  11.747 -0.1862  0.7197 -0.7105
35924SOL     OW16549   6.464   0.500   7.519 -0.0670 -0.1792  0.7325
35924SOL    HW116550   6.521   0.504   7.443 -1.2956 -1.3129 -0.2871
35924SOL    HW216551   6.403   0.574   7.508  0.6620  0.5438  1.4040
35925SOL     OW16552   5.346   4.182  10.949 -0.3260  0.6494  0.5517
35925SOL    HW116553   5.292   4.124  11.004  1.0727  0.9837  2.3927
35925SOL    HW216554   5.332   4.270  10.987 -0.6921  1.1811 -0.7766
35926SOL     OW16555  11.780   8.562   5.065  0.2364 -0.3080 -0.8805
35926SOL    HW116556  11.796   8.572   4.971  1.9981  0.4474 -0.5300
35926SOL    HW216557  11.760   8.470   5.076 -2.1867 -0.0320 -2.2673
35927SOL     OW16558   7.545   5.299   1.536 -0.2467 -0.0404  0.4383
35927SOL    HW116559   7.552   5.280   1.443 -0.9741 -0.0990  0.3884
35927SOL    HW216560   7.522   5.215   1.576 -2.1369  0.4040  0.3835
35928SOL     OW16561   4.172  12.127   3.517 -0.6351  0.0929 -0.2140
35928SOL    HW116562   4.217  12.069   3.455  1.1997  0.7418  0.4831
35928SOL    HW216563   4.119  12.067   3.570 -0.0636 -0.7634 -0.5834
35929SOL     OW16564   1.108  12.406  12.353 -0.2818 -0.2773 -0.7750
35929SOL    HW116565   1.020  12.380  12.381  0.1299  0.2893  1.1623
35929SOL    HW216566   1.142  12.329  12.308 -1.7658 -0.4918 -1.6197
35930SOL     OW16567   7.495   1.198   4.481  0.9883 -0.2716  0.0968
35930SOL    HW116568   7.418   1.253   4.463  1.9689  1.0109 -0.4007
35930SOL    HW216569   7.462   1.128   4.537 -0.5368  0.2414 -0.0999
35931SOL     OW16570   8.996   1.532   2.174 -0.1757  0.3860  0.9333
35931SOL    HW116571   8.941   1.599   2.215 -0.6664  1.0498 -0.7312
35931SOL    HW216572   8.973   1.451   2.220 -0.7369  1.0763  1.9044
35932SOL     OW16573   7.195   5.679   7.177  0.4000  0.0085  0.1427
35932SOL    HW116574   7.106   5.712   7.179  0.6667  0.9265 -1.5793
35932SOL    HW216575   7.186   5.586   7.156 -0.1611  0.0652  0.1254
35933SOL     OW16576   0.911  10.648   8.466 -0.4381  0.2081  0.2506
35933SOL    HW116577   0.975  10.680   8.530 -1.1142 -0.7549  1.4508
35933SOL    HW216578   0.850  10.721   8.455  0.1155  0.6567  0.1038
35934SOL     OW16579   3.487   0.678   3.036 -0.8195 -0.4851 -0.1773
35934SOL    HW116580   3.572   0.659   3.074 -0.3757  0.6771 -0.5595
35934SOL    HW216581   3.443   0.733   3.100  0.0626  1.7672 -1.3962
35935SOL     OW16582   8.461   0.596   9.598 -0.2765 -0.4654 -0.6640
35935SOL    HW116583   8.456   0.502   9.577 -2.1989 -1.1299  2.2672
35935SOL    HW216584   8.385   0.634   9.555 -0.7317 -0.6755 -0.0549
35936SOL     OW16585  11.128   6.912  12.353  0.2378  0.3274  0.3479
35936SOL    HW116586  11.182   6.989  12.370  0.2777  0.2727  0.4695
35936SOL    HW216587  11.100   6.922  12.262  0.5464  0.2985  0.2487
35937SOL     OW16588  11.351   9.339   4.496  0.7645 -0.2526 -0.4180
35937SOL    HW116589  11.281   9.275   4.485 -0.4389  0.6740  1.2833
35937SOL    HW216590  11.406   9.303   4.566  0.5885  0.1197 -0.0767
35938SOL     OW16591  10.715   2.312   3.218 -0.5085 -0.1217  0.1919
35938SOL    HW116592  10.710   2.400   3.254 -1.2871 -0.6468  1.3988
35938SOL    HW216593  10.729   2.255   3.293 -1.8315 -1.2111 -0.3347
35939SOL     OW16594  10.557   9.028  10.753 -0.1980  0.3676 -0.0366
35939SOL    HW116595  10.567   9.056  10.662 -1.7286 -0.4723 -0.5057
35939SOL    HW216596  10.589   9.102  10.805 -1.2549  1.7398 -1.2534
35940SOL     OW16597   3.610   0.077  10.719  0.2732 -0.1628  0.2111
35940SOL    HW116598   3.546   0.131  10.671  0.5926  0.8650  0.9074
35940SOL    HW216599   3.632   0.129  10.796  1.1579 -0.9766  0.5238
35941SOL     OW16600   2.850   9.024   0.765  0.7611 -0.3050  0.1637
35941SOL    HW116601   2.819   9.030   0.674 -0.3068  1.3129  0.5958
35941SOL    HW216602   2.770   9.025   0.817  1.4215  2.1386  1.2565
35942SOL     OW16603   8.404   5.138   0.524 -0.4512 -0.3851 -0.0981
35942SOL    HW116604   8.368   5.210   0.577 -3.0317  0.4034 -2.7008
35942SOL    HW216605   8.357   5.060   0.556 -0.0663 -0.3773  0.5083
35943SOL     OW16606   1.869   5.061  10.247 -0.2327 -0.1964 -0.3501
35943SOL    HW116607   1.864   4.972  10.279  0.5546  0.8814  3.2041
35943SOL    HW216608   1.961   5.073  10.222 -0.0655 -0.0898  0.2869
35944SOL     OW16609  11.869  10.922   1.463 -0.2965 -0.1345  0.6388
35944SOL    HW116610  11.926  10.998   1.454  0.8842 -1.1325 -0.6441
35944SOL    HW216611  11.893  10.883   1.547  0.7131 -0.3695  0.2497
35945SOL     OW16612   7.930   0.836   2.513  0.0671 -0.1177 -0.5984
35945SOL    HW116613   7.961   0.777   2.445  0.3773  0.9156 -1.3836
35945SOL    HW216614   8.004   0.895   2.529 -0.1622 -0.0655  0.3144
35946SOL     OW16615   4.503   0.737   5.878  0.0056 -0.2915  0.2741
35946SOL    HW116616   4.500   0.760   5.785 -0.5246  0.3505  0.4450
35946SOL    HW216617   4.454   0.806   5.921  1.4903  0.2350  1.1996
35947SOL     OW16618   0.236   4.355   7.019  0.1046  0.3908  0.0211
35947SOL    HW116619   0.329   4.369   7.037 -0.1931  0.4599  1.6238
35947SOL    HW216620   0.225   4.386   6.929  1.5800  0.5699 -0.1338
35948SOL     OW16621   5.409   0.024   2.218  0.9278  0.2260 -0.1217
35948SOL    HW116622   5.366  -0.052   2.180  1.7140 -0.0421 -0.4901
35948SOL    HW216623   5.441  -0.005   2.303  1.5764  0.0183 -0.4294
35949SOL     OW16624   5.132   1.839   6.017 -0.6421 -0.5071  0.3978
35949SOL    HW116625   5.169   1.792   6.092  0.2408 -0.9427 -0.2765
35949SOL    HW216626   5.072   1.903   6.055 -0.7875 -1.2322  1.4237
35950SOL     OW16627   3.906  10.802   1.124 -0.1979  0.1478  0.1764
35950SOL    HW116628   3.998  10.792   1.098  0.4934  1.6534  1.8707
35950SOL    HW216629   3.879  10.885   1.086 -0.6720  0.0077  0.1986
35951SOL     OW16630   5.911   7.902   5.555  0.5953  0.1192 -0.1080
35951SOL    HW116631   5.877   7.813   5.567 -0.7152  0.6893  0.5457
35951SOL    HW216632   5.916   7.938   5.644  3.3817 -0.0639 -0.1054
35952SOL     OW16633   3.249  10.119   5.335  0.0892 -0.3068  0.1938
35952SOL    HW116634   3.181  10.075   5.386 -0.1039 -0.0922  0.1252
35952SOL    HW216635   3.329  10.105   5.384  0.1786 -1.4561 -0.2482
35953SOL     OW16636   8.546   5.342   3.971  0.2441 -0.1303  0.2861
35953SOL    HW116637   8.629   5.383   3.994 -0.2426  0.2989  1.3697
35953SOL    HW216638   8.480   5.403   4.004 -0.5048 -0.4217 -0.6350
35954SOL     OW16639  12.521  10.141   4.338 -0.0219  0.2458 -0.0676
35954SOL    HW116640  12.608  10.135   4.378 -0.2587 -2.5466  0.2128
35954SOL    HW216641  12.536  10.124   4.245 -0.1492  0.9226 -0.2159
35955SOL     OW16642   9.117   7.837   0.711 -0.2958  0.3347 -0.2551
35955SOL    HW116643   9.098   7.875   0.625 -0.4189  2.5760  0.6946
35955SOL    HW216644   9.055   7.879   0.770  0.6843 -0.1416  1.1650
35956SOL     OW16645   9.632   1.813   9.422 -0.1338 -0.5853  0.1363
35956SOL    HW116646   9.676   1.842   9.502 -0.6777  0.8336 -0.0456
35956SOL    HW216647   9.578   1.888   9.396 -1.0175 -1.5194 -0.8077
35957SOL     OW16648   9.397   6.749   8.092 -0.6297 -0.3176  0.8259
35957SOL    HW116649   9.370   6.798   8.014 -2.4779  1.0893  2.2419
35957SOL    HW216650   9.493   6.753   8.091 -0.6658  1.1563 -0.4897
35958SOL     OW16651  11.838   4.557   8.219  0.3166  0.2524  0.4699
35958SOL    HW116652  11.829   4.651   8.236 -1.5789  0.5157 -1.5083
35958SOL    HW216653  11.776   4.516   8.280  0.2957  0.3899  0.5402
35959SOL     OW16654  11.714   2.726   2.550  0.6715 -0.5491  0.3139
35959SOL    HW116655  11.735   2.812   2.514  2.1877 -1.0335  0.0052
35959SOL    HW216656  11.679   2.745   2.637 -1.8720  0.5479 -0.8444
35960SOL     OW16657  10.640   5.332  11.291 -0.1443 -0.3456  0.0835
35960SOL    HW116658  10.635   5.427  11.305  0.8182 -0.1529 -0.7705
35960SOL    HW216659  10.600   5.318  11.205 -0.0653 -0.6890  0.1023
35961SOL     OW16660   9.824   6.630   5.925  0.0344 -0.2871 -0.1411
35961SOL    HW116661   9.777   6.583   5.994  1.3266  1.2375  1.9038
35961SOL    HW216662   9.841   6.564   5.858  1.0471 -2.5674  2.2028
35962SOL     OW16663   6.859   9.901   2.883  0.1584 -0.2099 -0.6149
35962SOL    HW116664   6.822   9.849   2.953 -1.9017  0.8148 -0.8636
35962SOL    HW216665   6.899   9.837   2.824  1.0878 -1.1510  0.9716
35963SOL     OW16666   8.784   4.475   0.798  0.2101 -0.5116 -0.2497
35963SOL    HW116667   8.808   4.434   0.881  1.0397  0.7242  0.1600
35963SOL    HW216668   8.841   4.433   0.733  1.2670  0.1507  0.2078
35964SOL     OW16669   1.625   2.584   6.149  0.0242  0.0676  0.4280
35964SOL    HW116670   1.563   2.542   6.089  0.3902  0.0502  0.0559
35964SOL    HW216671   1.707   2.535   6.136  0.6574  1.3042 -0.5225
35965SOL     OW16672   3.867   5.871  12.382 -0.0293 -0.2911 -0.1813
35965SOL    HW116673   3.806   5.855  12.455 -0.9830  1.1695 -0.6211
35965SOL    HW216674   3.920   5.792  12.378  1.3323  0.2849  3.3065
35966SOL     OW16675   0.868   5.549   6.860  0.4153 -0.1677 -0.7584
35966SOL    HW116676   0.885   5.456   6.843  0.9372 -0.0442 -0.9253
35966SOL    HW216677   0.774   5.558   6.847  0.5915 -0.3406 -2.4428
35967SOL     OW16678   5.802   4.711   5.005  0.2601  0.4326 -0.4589
35967SOL    HW116679   5.897   4.708   4.995  0.4534  0.2598  1.1448
35967SOL    HW216680   5.788   4.713   5.100 -1.3665 -1.1926 -0.5964
35968SOL     OW16681   5.420   5.824   9.098 -0.1829  0.2258  0.5302
35968SOL    HW116682   5.326   5.836   9.084 -0.9149 -2.0060  2.8648
35968SOL    HW216683   5.450   5.910   9.128 -1.7658  0.6393  1.0658
35969SOL     OW16684   9.001   1.608   6.789  0.3158 -0.1302  0.1684
35969SOL    HW116685   8.936   1.583   6.723 -0.5639  2.8154 -0.2456
35969SOL    HW216686   8.952   1.611   6.871  1.0440 -2.2054  0.7468
35970SOL     OW16687   1.633  10.066   0.340 -0.2142 -0.7150 -0.4780
35970SOL    HW116688   1.580  10.111   0.274 -0.6699 -1.8651 -0.9136
35970SOL    HW216689   1.692  10.134   0.373  0.6059 -0.2781 -2.6500
35971SOL     OW16690  11.215   2.824   4.027 -0.4042  0.1711 -0.0871
35971SOL    HW116691  11.305   2.833   4.059 -0.9728 -2.4936  2.7089
35971SOL    HW216692  11.221   2.762   3.955 -0.0289 -0.3925  0.4210
35972SOL     OW16693  12.342   3.444   3.944 -0.1035 -0.0552  0.0249
35972SOL    HW116694  12.401   3.437   4.019  0.8743  1.0816 -0.5942
35972SOL    HW216695  12.342   3.538   3.922 -0.8514 -0.2750 -1.0183
35973SOL     OW16696   2.207   2.003   1.669 -0.2271  0.2489  0.1792
35973SOL    HW116697   2.161   1.954   1.737  0.7467  0.3801  0.9479
35973SOL    HW216698   2.170   1.969   1.587 -0.9497 -0.3787  0.7452
35974SOL     OW16699   0.282   4.766   7.131  0.7109 -0.1417  0.5975
35974SOL    HW116700   0.202   4.715   7.143  0.8054 -0.6589 -0.7342
35974SOL    HW216701   0.254   4.858   7.139 -0.1361 -0.2948 -0.3493
35975SOL     OW16702   3.917  12.542   1.657 -0.0031  0.4433  0.5582
35975SOL    HW116703   3.973  12.589   1.595  0.2969  0.1280  0.5874
35975SOL    HW216704   3.979  12.495   1.713 -0.3108 -0.1094  0.4325
35976SOL     OW16705   4.598   7.324   1.204  0.5091  0.0484  0.1873
35976SOL    HW116706   4.614   7.272   1.283  0.1878 -1.1534 -0.5153
35976SOL    HW216707   4.684   7.334   1.164  0.8087  1.4153  1.1275
35977SOL     OW16708   4.495   9.302   6.245  0.0649 -0.2937  0.0997
35977SOL    HW116709   4.476   9.306   6.151  0.6170  2.5729  0.0225
35977SOL    HW216710   4.415   9.334   6.286  0.0392 -0.9764  0.6012
35978SOL     OW16711   4.050   8.133   6.592  0.3866 -0.0111 -0.2419
35978SOL    HW116712   4.138   8.147   6.556  0.6725 -0.6720  0.1722
35978SOL    HW216713   4.003   8.213   6.571  1.5573  1.0302  0.9007
35979SOL     OW16714  11.997   3.283   0.433 -0.4235 -0.2232  0.0588
35979SOL    HW116715  12.059   3.221   0.395 -1.4779 -0.6100 -1.0880
35979SOL    HW216716  12.046   3.325   0.504  1.9492  1.1451 -2.1982
35980SOL     OW16717   7.923   4.610   7.747 -0.4423  0.0190  0.0930
35980SOL    HW116718   7.994   4.587   7.806 -0.6116 -3.4674 -0.8479
35980SOL    HW216719   7.844   4.604   7.801 -0.2201  3.0005  0.9109
35981SOL     OW16720   8.657  10.287   2.273  0.3820  0.1357  0.6108
35981SOL    HW116721   8.646  10.252   2.184 -2.6449  0.1884  0.8692
35981SOL    HW216722   8.675  10.210   2.327  0.2812 -0.1409  0.2507
35982SOL     OW16723  11.251   0.834   5.983 -0.1639 -0.0571  0.0670
35982SOL    HW116724  11.164   0.798   5.965  0.7856 -1.3996 -2.3174
35982SOL    HW216725  11.309   0.758   5.982  1.4795  1.1138 -1.9301
35983SOL     OW16726   3.149   2.624   2.864 -0.4333  0.3859  0.1636
35983SOL    HW116727   3.176   2.578   2.944 -0.6259 -1.3889 -0.7390
35983SOL    HW216728   3.183   2.712   2.875  2.5172 -0.6936  0.7496
35984SOL     OW16729  10.105   8.488   8.248 -0.7507  0.0676  0.0549
35984SOL    HW116730  10.109   8.420   8.180  1.6329 -0.9782  1.1444
35984SOL    HW216731  10.041   8.454   8.311  1.6507 -2.2063  1.4840
35985SOL     OW16732   7.287   0.346  10.233 -0.0164 -0.1937 -0.2446
35985SOL    HW116733   7.362   0.297  10.200 -0.2244 -0.1531 -0.7946
35985SOL    HW216734   7.257   0.398  10.158 -0.2784  0.1796  0.1100
35986SOL     OW16735   2.759   6.885   1.925 -0.2887 -0.3876  0.5243
35986SOL    HW116736   2.790   6.930   2.004  2.4430 -0.2944 -0.4900
35986SOL    HW216737   2.683   6.835   1.955 -1.1980  1.9510  2.5164
35987SOL     OW16738   5.554   2.502   3.612 -0.1935  0.0255 -0.7766
35987SOL    HW116739   5.631   2.552   3.638  0.4666 -2.3375  2.4283
35987SOL    HW216740   5.491   2.517   3.682 -1.2953 -0.8327 -1.5413
35988SOL     OW16741   5.376   8.096  12.050 -0.1256  0.0055  0.6929
35988SOL    HW116742   5.302   8.113  12.108 -0.1329 -1.5777  1.1931
35988SOL    HW216743   5.373   8.001  12.034  1.0330  0.1138 -0.3097
35989SOL     OW16744   5.559   2.905  11.383  0.1498 -0.1544  0.0343
35989SOL    HW116745   5.540   2.980  11.326  1.3001 -1.1286 -1.7245
35989SOL    HW216746   5.555   2.941  11.472  0.5742  1.9689 -0.7496
35990SOL     OW16747   7.237   7.960   4.004 -0.3829 -0.2091 -0.3429
35990SOL    HW116748   7.227   7.928   4.093 -0.8469  2.1537  0.5507
35990SOL    HW216749   7.330   7.951   3.985 -0.4640 -1.7570 -0.0614
35991SOL     OW16750   1.192   5.855  10.895  0.5156  0.1439 -0.4531
35991SOL    HW116751   1.139   5.894  10.826 -0.6548  0.9883  0.8650
35991SOL    HW216752   1.206   5.927  10.958  0.8879 -0.7931  0.5671
35992SOL     OW16753  11.001  10.900  10.743 -0.4590  0.0599  0.0009
35992SOL    HW116754  10.994  10.839  10.817  0.7609  0.6911  0.6774
35992SOL    HW216755  10.934  10.966  10.759 -0.2227  0.1758  0.5396
35993SOL     OW16756   1.129   4.174   7.581  0.6223 -0.1389 -0.0735
35993SOL    HW116757   1.186   4.171   7.504 -0.5749  1.1880 -1.0589
35993SOL    HW216758   1.104   4.266   7.589 -0.0940 -0.4253  1.3071
35994SOL     OW16759   2.713   4.345  11.689  0.0145  0.2006  0.4855
35994SOL    HW116760   2.643   4.282  11.675 -0.1020  0.6927 -1.5653
35994SOL    HW216761   2.715   4.396  11.607  0.0027  2.9382  2.0541
35995SOL     OW16762   8.748   7.447  11.171 -0.5110  0.2444 -0.3019
35995SOL    HW116763   8.780   7.426  11.258  0.4996  1.3283 -0.3858
35995SOL    HW216764   8.654   7.465  11.183 -0.4196  0.1786  0.5223
35996SOL     OW16765   2.034   4.585   0.272  0.3286  0.4102  0.0987
35996SOL    HW116766   1.947   4.555   0.297  0.7668 -0.5455  0.5274
35996SOL    HW216767   2.044   4.559   0.181  0.5715 -0.4481  0.3666
35997SOL     OW16768   5.902   8.519  11.418  0.2606  0.2128 -0.8634
35997SOL    HW116769   5.824   8.527  11.363  0.4521  3.3512 -0.8563
35997SOL    HW216770   5.975   8.531  11.358  0.8197 -2.1908 -0.7796
35998SOL     OW16771   1.308   0.121   6.945  0.0143  0.0172 -0.0841
35998SOL    HW116772   1.221   0.113   6.906  0.5169 -0.1503 -1.1865
35998SOL    HW216773   1.294   0.100   7.038 -1.1892  0.3985 -0.1624
35999SOL     OW16774   3.748  11.913   6.109  0.4926 -0.4849  0.0760
35999SOL    HW116775   3.796  11.985   6.068  0.5799 -0.2784  0.5458
35999SOL    HW216776   3.815  11.847   6.128  0.4900 -0.4707  0.1320
36000SOL     OW16777   0.664  10.016   6.651 -0.2672 -0.3768 -0.0545
36000SOL    HW116778   0.657  10.040   6.559 -1.6078 -0.5146 -0.0165
36000SOL    HW216779   0.582  10.048   6.690 -0.7952 -2.3605  0.5854
36001SOL     OW16780   2.555  11.303   9.198 -0.7090 -0.1176  0.0172
36001SOL    HW116781   2.560  11.312   9.293 -0.6556  1.2053 -0.0900
36001SOL    HW216782   2.553  11.393   9.166 -0.4398 -0.5455 -1.2525
36002SOL     OW16783   6.630   8.428   5.991 -0.8745 -0.1867 -0.1655
36002SOL    HW116784   6.621   8.482   6.070 -0.8885  0.3448 -0.5237
36002SOL    HW216785   6.591   8.481   5.922 -1.2605 -0.8366 -0.4504
36003SOL     OW16786   8.438   6.076  10.782  0.3262 -0.1283 -0.2461
36003SOL    HW116787   8.400   6.046  10.864 -0.1515 -0.8677 -0.7232
36003SOL    HW216788   8.528   6.101  10.804  0.9142 -2.3430  0.1135
36004SOL     OW16789   9.392   5.119   2.109  0.0640  0.7486 -0.5959
36004SOL    HW116790   9.376   5.168   2.189 -5.2211  0.3109 -1.0251
36004SOL    HW216791   9.396   5.028   2.137  1.7554  0.7978 -0.5857
36005SOL     OW16792   0.656   3.202   0.849  0.0203  0.0668  0.2464
36005SOL    HW116793   0.589   3.224   0.785 -0.4789 -1.1200  0.3302
36005SOL    HW216794   0.663   3.280   0.905  2.0806  2.0484 -2.5088
36006SOL     OW16795   1.557  10.410   4.929  0.2889 -0.2699 -0.0138
36006SOL    HW116796   1.523  10.498   4.946  1.3477  0.4013 -1.1731
36006SOL    HW216797   1.484  10.363   4.889 -0.6163 -0.2767  1.5752
36007SOL     OW16798  10.357   9.739   8.193 -0.2298  0.0071  0.4501
36007SOL    HW116799  10.303   9.784   8.258  0.3974  0.7008  0.5034
36007SOL    HW216800  10.304   9.664   8.166 -0.3774 -0.4733  1.9867
36008SOL     OW16801   3.328   3.439   5.847  0.3649  0.4419  0.2446
36008SOL    HW116802   3.337   3.460   5.754 -1.9704  0.2639 -0.0848
36008SOL    HW216803   3.290   3.517   5.886 -2.0324 -0.6893  0.3110
36009SOL     OW16804   0.397   3.560   5.014  0.4172  0.3357 -0.3493
36009SOL    HW116805   0.447   3.594   5.089  0.8271 -1.2261  0.1212
36009SOL    HW216806   0.351   3.637   4.980 -0.2370  1.0071  1.8513
36010SOL     OW16807   3.429  12.055   9.788  0.3208  0.3667  0.2690
36010SOL    HW116808   3.385  12.030   9.707  1.7254 -1.5365  0.0137
36010SOL    HW216809   3.514  12.012   9.783  0.4701  0.2361  2.7325
36011SOL     OW16810   7.597   6.614   7.581  0.0446  0.2328 -0.1710
36011SOL    HW116811   7.599   6.527   7.542 -0.0409  0.1522  0.0038
36011SOL    HW216812   7.504   6.634   7.590  0.0560 -0.1954  0.9832
36012SOL     OW16813   9.495   1.415   6.134  0.5012  0.3806 -0.4379
36012SOL    HW116814   9.569   1.474   6.148 -0.9708  2.2967 -0.2992
36012SOL    HW216815   9.438   1.462   6.072 -2.0432  0.3904  1.7187
36013SOL     OW16816   7.189  10.321  11.577 -0.3908 -0.0415  0.2174
36013SOL    HW116817   7.140  10.297  11.656 -0.4835  1.8524  0.7726
36013SOL    HW216818   7.205  10.237  11.533  0.7701 -1.3408  2.8587
36014SOL     OW16819   6.729   5.303   5.415 -0.1631  0.4932  0.7231
36014SOL    HW116820   6.803   5.312   5.356  0.1543  3.1038  1.4281
36014SOL    HW216821   6.752   5.228   5.470  0.5448 -0.5861 -0.9582
36015SOL     OW16822   4.081   2.856   2.341 -0.5571 -0.1659 -0.0059
36015SOL    HW116823   4.150   2.859   2.407 -1.1866 -3.4984  0.9860
36015SOL    HW216824   4.030   2.935   2.355  1.5504  1.0931  0.9327
36016SOL     OW16825   5.362  11.263   6.497  0.3111 -0.1030 -0.1142
36016SOL    HW116826   5.325  11.248   6.584  1.2881  0.1403  0.3619
36016SOL    HW216827   5.383  11.356   6.496  0.1615 -0.0755 -0.6692
36017SOL     OW16828   0.313  10.825   9.705  0.1736  0.2260 -0.2766
36017SOL    HW116829   0.240  10.778   9.745  1.1520  1.1011  2.7480
36017SOL    HW216830   0.375  10.756   9.680 -0.3864 -0.3476 -0.1062
36018SOL     OW16831   7.355   2.828   5.228  0.0088 -0.0231  0.1162
36018SOL    HW116832   7.265   2.819   5.259 -0.2276  2.1596  0.2368
36018SOL    HW216833   7.367   2.922   5.216  1.8790 -0.3583 -1.1325
36019SOL     OW16834   3.558   3.134   4.029  0.1540  0.5505 -0.2256
36019SOL    HW116835   3.590   3.071   4.094  0.2515 -0.2761 -1.0582
36019SOL    HW216836   3.624   3.204   4.030  0.6805  0.0639 -0.1462
36020SOL     OW16837   2.690   0.038  12.227  0.1817  0.4682 -0.0320
36020SOL    HW116838   2.722   0.055  12.139  1.2831  0.8482  0.4252
36020SOL    HW216839   2.600   0.010  12.215  0.5045 -0.0738 -1.3250
36021SOL     OW16840   8.721   6.847   3.331  0.2519  0.1325  0.4481
36021SOL    HW116841   8.669   6.841   3.251  0.5374 -2.4151  0.3891
36021SOL    HW216842   8.681   6.918   3.381 -0.4457  1.2071 -1.5663
36022SOL     OW16843   9.725  11.570  10.935  0.0871  0.3976  0.3125
36022SOL    HW116844   9.786  11.640  10.958 -1.3276  1.6108  0.5356
36022SOL    HW216845   9.772  11.489  10.955  2.3844  1.1832 -1.4442
36023SOL     OW16846   6.673   4.353   6.156 -0.3171  0.1179 -0.3773
36023SOL    HW116847   6.721   4.421   6.107  0.9411 -0.9332 -0.6742
36023SOL    HW216848   6.690   4.374   6.248 -0.0746  0.3102 -0.4618
36024SOL     OW16849   0.546  10.291   5.855  0.2122  0.1938 -0.4223
36024SOL    HW116850   0.533  10.288   5.760  1.3996 -1.3228 -0.5788
36024SOL    HW216851   0.547  10.384   5.876  1.1101  0.6120 -2.0975
36025SOL     OW16852   4.099   5.305   6.622  0.7301 -0.2276  0.8896
36025SOL    HW116853   4.113   5.295   6.716  1.5535 -1.4985  0.6564
36025SOL    HW216854   4.053   5.226   6.595 -0.4632  0.6043  0.3778
36026SOL     OW16855  11.429   0.569   3.411 -0.1243  0.2172 -0.5146
36026SOL    HW116856  11.509   0.521   3.431 -0.1044  0.4474 -0.0247
36026SOL    HW216857  11.362   0.501   3.403  0.4494 -0.1573 -2.8140
36027SOL     OW16858   0.196   0.584   1.026  0.4157  0.2450 -0.4737
36027SOL    HW116859   0.254   0.642   0.976  0.2012  0.9785  0.1134
36027SOL    HW216860   0.177   0.633   1.106  0.7172 -0.8955  0.3114
36028SOL     OW16861   7.011   9.937   0.491  0.5072 -0.3609 -0.1458
36028SOL    HW116862   7.044   9.921   0.403  0.2259 -1.5357 -0.0503
36028SOL    HW216863   6.987  10.030   0.491 -0.3039 -0.5368 -1.5805
36029SOL     OW16864   0.045   6.163   8.371  0.4711 -0.1022  1.0181
36029SOL    HW116865  -0.019   6.188   8.304  0.2740 -0.7066  0.9722
36029SOL    HW216866   0.103   6.238   8.378  0.3403  0.0704  0.3464
36030SOL     OW16867   6.185   0.111   5.972 -0.4139  0.2934 -0.3811
36030SOL    HW116868   6.140   0.028   5.984  0.6390 -0.6001 -2.2464
36030SOL    HW216869   6.277   0.088   5.962 -0.4201  1.2649 -4.1192
36031SOL     OW16870   4.126  10.416   3.185 -0.2911 -0.3949 -0.2600
36031SOL    HW116871   4.130  10.392   3.092 -1.0664  1.4707 -0.8111
36031SOL    HW216872   4.217  10.419   3.213 -0.0714 -1.4891 -0.7977
36032SOL     OW16873   2.579   8.927   8.099 -0.3355 -0.2164 -0.4085
36032SOL    HW116874   2.619   8.889   8.178 -2.2097 -3.0337 -0.6699
36032SOL    HW216875   2.638   8.902   8.028 -1.4119 -2.6415 -0.5397
36033SOL     OW16876  11.715   9.997   0.413 -0.1082 -0.4681  0.5131
36033SOL    HW116877  11.700   9.910   0.377 -1.5683  0.1275 -0.4318
36033SOL    HW216878  11.743  10.049   0.337  2.1285 -0.4056  1.3317
36034SOL     OW16879   7.612   4.137   7.473  0.1796 -0.1456  0.3820
36034SOL    HW116880   7.656   4.052   7.471 -1.8458 -1.2644  0.6798
36034SOL    HW216881   7.597   4.159   7.381 -1.4716 -1.3532  0.3252
36035SOL     OW16882   8.663  11.561   3.689  0.7140 -0.4207 -0.2803
36035SOL    HW116883   8.659  11.595   3.600  0.7134 -1.9671 -0.8969
36035SOL    HW216884   8.692  11.470   3.679  1.5784 -0.3642  1.3672
36036SOL     OW16885  10.596   1.780   9.854 -0.0384  0.3574  0.0837
36036SOL    HW116886  10.590   1.732   9.772  0.5908 -1.7439  1.1910
36036SOL    HW216887  10.685   1.815   9.856  0.6848 -1.3933  0.7429
36037SOL     OW16888  10.519   8.390   4.500  0.6274 -0.3908  0.0109
36037SOL    HW116889  10.501   8.419   4.410 -1.2393 -0.1330  0.4240
36037SOL    HW216890  10.504   8.295   4.498 -1.3063 -0.1279  0.4327
36038SOL     OW16891   0.492   8.087  11.782  0.4320  0.0017 -0.3231
36038SOL    HW116892   0.405   8.064  11.815  1.0949 -0.4489  1.1877
36038SOL    HW216893   0.545   8.102  11.860  1.5282  1.0278 -1.2242
36039SOL     OW16894   2.985   7.963   7.315  0.2366  0.6259 -0.1966
36039SOL    HW116895   2.964   7.875   7.286  0.9055  0.6646 -0.8336
36039SOL    HW216896   2.901   8.008   7.322 -0.1924 -0.3257  1.0548
36040SOL     OW16897  11.426  11.025   5.690  0.1052  0.4977 -0.4526
36040SOL    HW116898  11.431  11.085   5.764 -2.4541  1.1797 -0.7424
36040SOL    HW216899  11.516  10.991   5.680  1.0895  2.4046  1.2360
36041SOL     OW16900   5.381  10.246   3.115 -0.6789 -0.2530 -0.6238
36041SOL    HW116901   5.310  10.203   3.161 -0.6354  1.4297  1.1520
36041SOL    HW216902   5.444  10.269   3.183  0.0306  1.1691 -1.6841
36042SOL     OW16903   4.182   8.524  11.820 -0.0917 -0.2986 -0.1402
36042SOL    HW116904   4.194   8.446  11.767  0.0014  0.0497 -0.6304
36042SOL    HW216905   4.268   8.565  11.824  0.1067 -0.7729  1.0068
36043SOL     OW16906  10.553   3.522   3.211  0.4277 -0.7478 -0.3490
36043SOL    HW116907  10.517   3.465   3.279  2.9425 -1.3948  0.5200
36043SOL    HW216908  10.618   3.576   3.256 -0.0314  1.0033 -1.6738
36044SOL     OW16909   5.960   0.260   1.604  0.5911  0.4750  0.2649
36044SOL    HW116910   5.867   0.281   1.617  0.1396 -0.2024 -1.5639
36044SOL    HW216911   5.967   0.168   1.627  0.5985  0.2895 -0.4523
36045SOL     OW16912   1.908   2.654   8.288  0.4843  0.5208 -0.5647
36045SOL    HW116913   1.921   2.614   8.202 -0.5076  0.5042 -0.7207
36045SOL    HW216914   1.981   2.621   8.341 -0.3788 -1.7029 -0.6295
36046SOL     OW16915   3.042  10.388   8.142  0.6203 -0.5479  0.5680
36046SOL    HW116916   3.107  10.417   8.206  0.4894  0.1394  0.3973
36046SOL    HW216917   3.085  10.398   8.057  0.6806 -1.1568  0.5196
36047SOL     OW16918   4.711   1.097   9.315 -0.0219 -0.0495  0.5062
36047SOL    HW116919   4.653   1.028   9.348 -0.6366  1.0457  1.7829
36047SOL    HW216920   4.798   1.072   9.348  0.0058 -0.9065 -0.1698
36048SOL     OW16921   1.743   9.731   0.027  0.1974  0.6072 -0.2253
36048SOL    HW116922   1.775   9.813  -0.009  0.4525  1.9912  2.8762
36048SOL    HW216923   1.809   9.705   0.092 -0.0750 -1.8735 -0.8306
36049SOL     OW16924  10.247   4.560  10.557  0.4382  0.6000 -0.4723
36049SOL    HW116925  10.288   4.473  10.555  0.5541  0.6665 -1.2030
36049SOL    HW216926  10.212   4.568  10.646 -0.7806 -0.7590 -0.7953
36050SOL     OW16927   0.656   7.513   3.568 -0.3388  0.6635  0.2506
36050SOL    HW116928   0.638   7.575   3.497  3.0752  0.2500 -1.1780
36050SOL    HW216929   0.664   7.428   3.525  1.3825  0.3274  1.1213
36051SOL     OW16930   1.452   5.845  10.514 -0.2351  0.3800  0.8200
36051SOL    HW116931   1.510   5.776  10.484 -1.2243 -0.6250  1.1099
36051SOL    HW216932   1.507   5.903  10.566  0.7262  0.1142  0.1142
36052SOL     OW16933  10.751  12.458   2.865 -0.1804 -0.2053 -0.7110
36052SOL    HW116934  10.794  12.404   2.798  2.3459 -2.6993  2.5667
36052SOL    HW216935  10.710  12.395   2.924 -1.4071  1.7896  0.6797
36053SOL     OW16936   6.273   0.351   6.154  0.1906 -0.4499 -0.8027
36053SOL    HW116937   6.225   0.306   6.084 -2.0454  1.2689 -0.4994
36053SOL    HW216938   6.310   0.428   6.112  0.7459 -0.5535 -0.5190
36054SOL     OW16939   0.688   4.762   4.294  0.4053  0.0936 -0.0354
36054SOL    HW116940   0.755   4.716   4.243  0.3011  2.2791 -2.3364
36054SOL    HW216941   0.617   4.776   4.233 -0.6302  1.0567  1.3289
36055SOL     OW16942  11.846  11.989  11.798 -0.3451 -0.3923  0.2839
36055SOL    HW116943  11.935  12.008  11.828 -0.4619 -0.0542  0.4267
36055SOL    HW216944  11.796  12.068  11.820 -0.5884 -0.4125 -0.1784
36056SOL     OW16945   5.237   3.897   3.417 -0.2087 -0.2827  0.1896
36056SOL    HW116946   5.254   3.904   3.323  0.7619 -1.8827  0.1977
36056SOL    HW216947   5.160   3.841   3.424 -0.3253 -0.1039  0.3372
36057SOL     OW16948   2.721   5.441   9.361  0.2166 -0.6601  0.1143
36057SOL    HW116949   2.752   5.454   9.272  0.8702  0.5466  0.4972
36057SOL    HW216950   2.739   5.349   9.380  0.5915 -0.7805 -0.7860
36058SOL     OW16951   4.400   0.465   7.372  0.2810  0.1993 -0.1265
36058SOL    HW116952   4.345   0.542   7.356  1.2310  0.6039 -1.7248
36058SOL    HW216953   4.369   0.430   7.455 -2.5594  0.2133 -1.0984
36059SOL     OW16954   2.132  11.313   9.355 -0.0361  0.3519  0.2242
36059SOL    HW116955   2.175  11.326   9.270 -0.6123 -1.2584 -0.3671
36059SOL    HW216956   2.202  11.315   9.419  0.6953 -0.4465 -0.5312
36060SOL     OW16957   6.855  10.966   7.873  0.3079  0.3914  0.1259
36060SOL    HW116958   6.859  10.930   7.961 -1.9536  1.2258  0.6336
36060SOL    HW216959   6.879  11.058   7.884  0.2714  0.4370 -0.1766
36061SOL     OW16960   9.440   5.654  11.333  0.2218 -0.3762 -0.0339
36061SOL    HW116961   9.418   5.632  11.243 -0.4330 -0.4783  0.1515
36061SOL    HW216962   9.400   5.740  11.347  0.6322 -0.1952  0.0467
36062SOL     OW16963   7.333   5.795   5.843 -0.5284 -0.0853  0.5107
36062SOL    HW116964   7.264   5.855   5.872 -0.3383  0.8039 -0.7908
36062SOL    HW216965   7.288   5.730   5.789 -0.4328  0.1502  0.1467
36063SOL     OW16966   4.984   5.865   6.814  0.3196  0.6136 -0.6868
36063SOL    HW116967   4.890   5.854   6.800  0.3939 -1.6949  0.2102
36063SOL    HW216968   4.991   5.927   6.887 -0.6672 -1.2143  1.0694
36064SOL     OW16969  11.206   9.088   5.676 -0.0053 -0.6823  0.5487
36064SOL    HW116970  11.177   9.156   5.736  1.6572 -1.5644  2.4578
36064SOL    HW216971  11.301   9.101   5.669 -0.1890 -0.2875 -2.3755
36065SOL     OW16972   3.135   9.993   2.855  0.0216 -0.4525  1.0358
36065SOL    HW116973   3.229   9.982   2.869  0.2507 -2.3708 -1.3021
36065SOL    HW216974   3.095   9.948   2.929  0.8657  1.0115  2.4572
36066SOL     OW16975   1.192   6.520  10.255 -0.1451 -0.5090  0.2043
36066SOL    HW116976   1.114   6.539  10.203 -0.6700  0.1214  1.1940
36066SOL    HW216977   1.247   6.466  10.197 -0.4513  0.6055 -1.1841
36067SOL     OW16978  11.393   4.684  10.153 -0.4242 -0.2733  0.2574
36067SOL    HW116979  11.459   4.749  10.177 -1.2533  0.9209 -0.5464
36067SOL    HW216980  11.315   4.709  10.204  0.1686 -2.7110  2.5428
36068SOL     OW16981   7.511   2.629   6.442  0.7763 -0.2658  0.1220
36068SOL    HW116982   7.427   2.670   6.463  1.0693  0.6395 -0.4517
36068SOL    HW216983   7.573   2.670   6.503  0.7101 -1.4148  1.0086
36069SOL     OW16984  10.979  11.233   7.637  0.4612  0.0330 -0.3428
36069SOL    HW116985  10.909  11.285   7.677  0.0348  0.0970 -1.1608
36069SOL    HW216986  11.016  11.184   7.710  0.0797  0.5867  0.2359
36070SOL     OW16987  11.402   5.204   4.121 -0.8161 -0.6342  0.1346
36070SOL    HW116988  11.358   5.173   4.200 -0.3650  1.1163  1.1098
36070SOL    HW216989  11.478   5.251   4.153  0.0350 -0.8985 -1.4112
36071SOL     OW16990   2.420   6.841  10.855  0.3369  0.3630  0.0516
36071SOL    HW116991   2.442   6.844  10.948  1.4299  0.0329 -0.1834
36071SOL    HW216992   2.458   6.920  10.817 -1.0730  1.0853  0.0548
36072SOL     OW16993   3.261   4.718   5.303 -0.6958  0.1732 -0.3565
36072SOL    HW116994   3.194   4.749   5.364 -1.4945  0.8678 -1.5521
36072SOL    HW216995   3.218   4.717   5.217  1.1085  1.7397 -1.3750
36073SOL     OW16996  11.952  11.647   2.165 -0.5751  0.0591 -0.2688
36073SOL    HW116997  11.877  11.660   2.106  0.0269  3.5568 -0.4829
36073SOL    HW216998  11.913  11.618   2.247 -2.0713  0.7002 -0.7131
36074SOL     OW16999  12.161   2.777   4.617 -0.0347  0.1690  0.5176
36074SOL    HW117000  12.105   2.836   4.667 -0.7832  0.5803 -0.7478
36074SOL    HW217001  12.100   2.725   4.565  0.7432  0.3650 -0.6211
36075SOL     OW17002   2.087  10.686   6.407 -0.1683 -0.0664 -0.0060
36075SOL    HW117003   2.085  10.775   6.372 -1.1263 -0.2940 -0.5674
36075SOL    HW217004   2.108  10.631   6.331 -0.8209 -0.4286  0.0708
36076SOL     OW17005   2.342   5.583   0.228 -0.1472 -0.5821  0.7041
36076SOL    HW117006   2.392   5.604   0.150 -0.5928 -2.7256 -0.2290
36076SOL    HW217007   2.252   5.609   0.207 -0.1584 -0.5982  0.7310
36077SOL     OW17008  12.538  10.565   9.238 -0.4545  0.6291 -0.5474
36077SOL    HW117009  12.500  10.559   9.326  1.8450 -0.1639  0.4584
36077SOL    HW217010  12.573  10.478   9.221  1.4895  1.4701 -1.1059
36078SOL     OW17011   8.446   4.506   2.835  0.4753 -0.3010 -0.8618
36078SOL    HW117012   8.365   4.470   2.799 -0.5279 -0.5109  1.4282
36078SOL    HW217013   8.466   4.581   2.780 -3.2204  1.8915  0.4131
36079SOL     OW17014   5.352  11.933   4.309  0.0955 -0.3155  0.7875
36079SOL    HW117015   5.368  11.839   4.301  1.5268  0.0088 -0.5704
36079SOL    HW217016   5.397  11.959   4.389  0.5575 -0.6123  0.6255
36080SOL     OW17017   8.389   2.031   7.336  0.7287 -0.2606  0.0836
36080SOL    HW117018   8.394   1.997   7.425  4.1521  2.3240  1.0971
36080SOL    HW217019   8.414   2.123   7.344  1.0273  0.1191 -3.5499
36081SOL     OW17020   0.048   7.623  10.206  0.1354  0.2497  0.1792
36081SOL    HW117021   0.109   7.693  10.184 -0.9075  0.7828 -1.1578
36081SOL    HW217022  -0.006   7.660  10.276  0.8149  0.0732  0.8001
36082SOL     OW17023   2.597   7.408   3.064  0.5837  0.2242 -0.3178
36082SOL    HW117024   2.606   7.401   2.969  1.3054 -0.7446 -0.1907
36082SOL    HW217025   2.507   7.438   3.077  0.5424  0.5689 -1.3094
36083SOL     OW17026   1.686   6.010   7.959 -0.1150  0.1031  0.1977
36083SOL    HW117027   1.730   6.075   7.903 -0.2985  0.5843  0.6041
36083SOL    HW217028   1.708   6.037   8.049 -0.1483 -0.4319  0.3731
36084SOL     OW17029   9.950   2.296   4.892  0.2952  0.2491  0.1403
36084SOL    HW117030   9.901   2.249   4.824 -1.5886 -1.3129  2.3966
36084SOL    HW217031   9.916   2.385   4.888  0.9375  0.4487 -1.5682
36085SOL     OW17032   8.395   3.890   3.682 -0.2266  0.4986  0.4500
36085SOL    HW117033   8.365   3.818   3.627  0.8988  0.4099 -0.0751
36085SOL    HW217034   8.384   3.858   3.772  1.0964 -0.6924  0.2134
36086SOL     OW17035  10.418   4.107   6.087  0.8112 -0.5982 -0.3056
36086SOL    HW117036  10.383   4.196   6.100 -0.3322 -0.6969 -2.2393
36086SOL    HW217037  10.499   4.105   6.139 -0.4279  0.7045  1.8160
36087SOL     OW17038   0.229  10.750   3.236  0.7787 -0.2693  0.4451
36087SOL    HW117039   0.234  10.846   3.239 -1.3798  0.0759 -2.4011
36087SOL    HW217040   0.170  10.727   3.308 -1.5321  0.9957 -0.9213
36088SOL     OW17041   9.026   0.467   6.105  0.2947 -0.2139  0.2259
36088SOL    HW117042   9.091   0.538   6.108  0.8724 -0.6594 -1.0588
36088SOL    HW217043   9.076   0.390   6.078 -0.4712 -0.9424  0.8449
36089SOL     OW17044   7.627   5.949   2.357  0.7010 -0.9495  0.0788
36089SOL    HW117045   7.653   5.871   2.309 -1.8567 -2.5314  1.0935
36089SOL    HW217046   7.537   5.932   2.386  1.1220  1.0447  3.0486
36090SOL     OW17047   8.856   6.272  11.240  0.1820  0.4536  0.1544
36090SOL    HW117048   8.899   6.216  11.175  0.7785  1.7196 -0.5716
36090SOL    HW217049   8.774   6.298  11.198  0.3826  0.9499  0.0664
36091SOL     OW17050   3.785   3.042   3.777 -0.3363  0.1153 -0.0321
36091SOL    HW117051   3.718   2.974   3.775  0.6479 -0.9245  0.8048
36091SOL    HW217052   3.771   3.092   3.697 -2.1459 -0.0072  0.1646
36092SOL     OW17053   2.905   1.698  10.016  0.0020  0.7980 -0.4274
36092SOL    HW117054   2.921   1.666   9.927  0.1306  0.6624 -0.3566
36092SOL    HW217055   2.935   1.627  10.073 -0.6527  0.6344 -0.2835
36093SOL     OW17056   6.584   4.509  11.391 -0.0459  0.3458 -0.0280
36093SOL    HW117057   6.543   4.486  11.474 -0.6352 -2.1314 -0.9209
36093SOL    HW217058   6.534   4.461  11.325  0.9039  1.5978 -1.7662
36094SOL     OW17059   5.242   4.452  11.918  0.0486 -0.1098  0.7765
36094SOL    HW117060   5.244   4.461  12.013 -1.0716  0.6371  0.7447
36094SOL    HW217061   5.150   4.434  11.897  0.3778 -0.8504 -0.1239
36095SOL     OW17062  10.075   0.892   8.703  0.1576  0.2625 -0.2040
36095SOL    HW117063  10.070   0.983   8.674  1.8254  0.2425 -0.6565
36095SOL    HW217064  10.169   0.875   8.711  0.0180 -2.1725 -2.5823
36096SOL     OW17065  11.839   1.046   3.460  0.0204 -0.1697  0.3654
36096SOL    HW117066  11.899   0.997   3.405  0.3067  0.1408  0.3961
36096SOL    HW217067  11.895   1.088   3.525 -0.2174  0.1987  0.3371
36097SOL     OW17068   3.955   1.702  11.807 -0.5374  0.1922  0.4742
36097SOL    HW117069   3.886   1.734  11.864  0.0502  1.8203  0.3435
36097SOL    HW217070   3.910   1.666  11.731 -1.2532  0.3885  0.8040
36098SOL     OW17071  12.035   8.811   9.734 -0.0962  0.3813 -0.0903
36098SOL    HW117072  12.084   8.830   9.654 -1.5125 -1.0757 -1.3722
36098SOL    HW217073  12.101   8.783   9.797  0.8665 -0.2707 -1.3537
36099SOL     OW17074  11.626   3.891  10.630  0.2395 -0.0040  0.1072
36099SOL    HW117075  11.551   3.950  10.616  0.4804 -0.0186 -1.4310
36099SOL    HW217076  11.681   3.936  10.692 -0.0488  0.9739 -0.3290
36100SOL     OW17077   7.848   4.735  10.039 -0.3548  0.5627 -0.1325
36100SOL    HW117078   7.937   4.703  10.056 -0.4019  0.5690  0.1419
36100SOL    HW217079   7.859   4.804   9.973 -0.2657 -0.0830 -0.8005
36101SOL     OW17080   9.273  12.589   8.265 -0.3018 -0.0306  0.3740
36101SOL    HW117081   9.265  12.524   8.335 -1.0013 -0.6731 -0.2875
36101SOL    HW217082   9.336  12.551   8.204 -0.1375  0.2652  0.3531
36102SOL     OW17083   7.603   8.980   4.169 -0.0424  0.2642  0.6588
36102SOL    HW117084   7.665   8.997   4.098  0.0057  2.7736  1.2266
36102SOL    HW217085   7.657   8.948   4.241  0.4863  1.4074  0.7929
36103SOL     OW17086   1.772   3.933   8.321  0.0521  0.0995 -0.1432
36103SOL    HW117087   1.723   3.853   8.308 -1.1815  0.9643 -1.0329
36103SOL    HW217088   1.852   3.921   8.269  0.0436 -0.6874  0.0236
36104SOL     OW17089   4.170   9.542   8.325  0.2651 -0.3015  0.5760
36104SOL    HW117090   4.178   9.570   8.234 -0.0726  1.2461  1.0033
36104SOL    HW217091   4.238   9.475   8.335  0.5236 -0.2673 -0.7128
36105SOL     OW17092   9.883   2.694   0.332 -0.2673  0.3490  0.1827
36105SOL    HW117093   9.805   2.671   0.282  0.1536  1.1758 -0.8827
36105SOL    HW217094   9.849   2.743   0.407 -0.9178 -1.1249  0.9053
36106SOL     OW17095  11.532   5.250   3.772  0.0593 -0.0031 -0.2133
36106SOL    HW117096  11.609   5.270   3.826  2.3010  0.2310 -3.2542
36106SOL    HW217097  11.564   5.189   3.706 -3.0571 -1.9401 -0.1669
36107SOL     OW17098   3.183   2.073  11.367 -0.3336  0.0580  0.0822
36107SOL    HW117099   3.104   2.021  11.356 -0.1309 -0.1744 -0.3200
36107SOL    HW217100   3.210   2.058  11.457  0.0033 -0.9428 -0.1737
36108SOL     OW17101  10.868  12.451   9.291 -0.0346  0.1973 -0.2085
36108SOL    HW117102  10.918  12.496   9.223 -0.5787 -1.3658 -1.7021
36108SOL    HW217103  10.793  12.413   9.245 -0.6291 -0.5933  1.3393
36109SOL     OW17104   3.579   1.674   0.040 -0.1142  0.7388 -0.1864
36109SOL    HW117105   3.632   1.612  -0.010 -2.1400 -1.6034  0.3754
36109SOL    HW217106   3.627   1.757   0.034  2.2838 -0.6404 -1.7091
36110SOL     OW17107   0.675   8.783  11.080  0.2363  0.0682 -0.2501
36110SOL    HW117108   0.625   8.862  11.100  0.5817  0.3288 -0.4149
36110SOL    HW217109   0.704   8.750  11.165 -0.8162 -0.4890 -0.0865
36111SOL     OW17110  11.560  10.214   8.297 -0.6759 -0.0058 -0.5268
36111SOL    HW117111  11.600  10.268   8.229 -0.2863 -2.3901 -2.3416
36111SOL    HW217112  11.544  10.274   8.369  0.4131  2.3301 -2.0960
36112SOL     OW17113   2.131  12.456   1.719  0.3552  0.1006  0.0017
36112SOL    HW117114   2.067  12.482   1.653  0.5599 -0.8888 -0.6087
36112SOL    HW217115   2.205  12.422   1.668  0.4356 -0.8716  0.7352
36113SOL     OW17116   4.311   2.163   7.033 -0.5129 -0.1673  0.0095
36113SOL    HW117117   4.305   2.179   6.939  1.6869 -2.8491 -0.6960
36113SOL    HW217118   4.223   2.135   7.058 -1.3622  1.4336 -0.9899
36114SOL     OW17119   3.032  12.444   9.954 -0.5784  0.0487  0.0073
36114SOL    HW117120   3.050  12.420  10.045  0.1826  1.9068  0.3944
36114SOL    HW217121   3.094  12.516   9.936 -2.8236  1.8572 -0.9592
36115SOL     OW17122   0.849   9.259  12.278  0.7315 -0.6139  0.2807
36115SOL    HW117123   0.901   9.321  12.330 -0.1485  0.5541 -0.1791
36115SOL    HW217124   0.761   9.265  12.315  0.0593  0.3240 -1.3664
36116SOL     OW17125   1.688   9.342   2.930  0.3130 -0.4164  0.3095
36116SOL    HW117126   1.716   9.304   2.846  0.4715  0.2350  0.0680
36116SOL    HW217127   1.609   9.292   2.953  0.4377 -0.8002 -0.0739
36117SOL     OW17128   2.555   0.341  10.208  0.1615  0.3168  0.1116
36117SOL    HW117129   2.640   0.297  10.213  0.1899  0.4145  0.5331
36117SOL    HW217130   2.503   0.300  10.278  0.7054  2.0537  1.5857
36118SOL     OW17131   2.935   3.263   5.284  0.0110 -0.9744  0.0251
36118SOL    HW117132   2.868   3.196   5.274  0.4461 -1.3328 -0.5821
36118SOL    HW217133   2.943   3.276   5.379  0.1677 -2.0399  0.1660
36119SOL     OW17134   3.305   2.762  10.215  0.5968  0.1933  0.0555
36119SOL    HW117135   3.219   2.720  10.225  1.9984 -2.8042  0.7021
36119SOL    HW217136   3.321   2.763  10.121  1.1287 -2.2597  0.0609
36120SOL     OW17137   4.763   5.272  10.326 -0.2050 -0.7716  0.1831
36120SOL    HW117138   4.839   5.318  10.362 -2.0554  2.6684  0.1403
36120SOL    HW217139   4.731   5.218  10.398  1.5914 -1.4322  0.5381
36121SOL     OW17140   5.972   5.549  10.499 -0.4320  0.2751 -0.1325
36121SOL    HW117141   6.033   5.482  10.469  0.1796  1.6197 -2.0512
36121SOL    HW217142   5.896   5.499  10.531  1.0003 -1.3749  0.9094
36122SOL     OW17143   5.583   9.210   9.145 -0.4427 -0.4054 -0.1543
36122SOL    HW117144   5.499   9.164   9.148 -0.3879 -0.5365 -0.6031
36122SOL    HW217145   5.578   9.266   9.068 -0.5855  0.5032  0.4940
36123SOL     OW17146  10.294   2.260   0.257 -0.3235  0.2869 -0.5653
36123SOL    HW117147  10.334   2.337   0.217  1.7979  0.3513  1.4467
36123SOL    HW217148  10.368   2.208   0.288 -1.7292 -0.2691  2.2264
36124SOL     OW17149   4.182   3.902   4.186  0.2521  0.3977  0.1865
36124SOL    HW117150   4.261   3.885   4.134 -1.3343 -0.3569 -2.1307
36124SOL    HW217151   4.146   3.983   4.150  0.1901  1.0159  1.5721
36125SOL     OW17152   3.444   9.304   9.940  0.2879 -0.0716  0.4581
36125SOL    HW117153   3.392   9.347   9.872  0.6474  1.6419  1.2123
36125SOL    HW217154   3.469   9.220   9.902 -0.3458  0.4285 -1.1388
36126SOL     OW17155  10.381   1.543   3.227  0.5498 -0.6056 -0.5586
36126SOL    HW117156  10.414   1.633   3.220  0.7090 -0.5128  1.0284
36126SOL    HW217157  10.307   1.549   3.287  0.0710 -1.4306 -1.0485
36127SOL     OW17158   0.912   8.075   9.576  0.0649  0.1789 -0.1026
36127SOL    HW117159   0.991   8.049   9.624 -1.1378 -0.4278  1.6464
36127SOL    HW217160   0.840   8.044   9.630 -1.4068 -0.8506 -2.5236
36128SOL     OW17161   4.177   3.202  12.530  0.0292 -0.3040 -0.5096
36128SOL    HW117162   4.160   3.235  12.618 -1.9742  0.3403 -1.0907
36128SOL    HW217163   4.232   3.269  12.490  1.4792 -0.8973  0.4117
36129SOL     OW17164  12.343   9.547   0.835 -0.3949 -0.1422 -0.2425
36129SOL    HW117165  12.342   9.488   0.911 -0.6045 -0.2892 -0.3574
36129SOL    HW217166  12.401   9.619   0.861 -1.5000  0.4794  0.5650
36130SOL     OW17167   9.065   4.295   4.039  0.2007 -0.0254 -0.0786
36130SOL    HW117168   9.160   4.297   4.030  0.0348 -1.0249 -2.9204
36130SOL    HW217169   9.042   4.385   4.062  1.7571  0.5089 -0.4910
36131SOL     OW17170   5.491   2.020   5.083  0.1245 -0.7101 -0.1195
36131SOL    HW117171   5.548   1.951   5.116 -2.0811 -1.4091  2.5767
36131SOL    HW217172   5.403   1.995   5.111 -0.8261  3.0464  0.8478
36132SOL     OW17173  10.501   7.267  11.941 -0.1908 -0.6467 -0.1629
36132SOL    HW117174  10.518   7.173  11.933  0.9250 -0.4700 -0.1434
36132SOL    HW217175  10.581   7.302  11.982 -0.8772  0.2058  0.4814
36133SOL     OW17176   1.211  10.222   7.020  0.1236  1.0509 -0.3602
36133SOL    HW117177   1.223  10.211   6.926  2.0943 -1.2101  0.0439
36133SOL    HW217178   1.137  10.165   7.042  1.7086 -1.0827 -0.1904
36134SOL     OW17179   7.235  10.184   5.269 -0.3865  0.1185  0.4755
36134SOL    HW117180   7.194  10.112   5.317  0.4867 -1.0393 -0.4509
36134SOL    HW217181   7.246  10.253   5.335 -0.2350 -1.0081  1.6804
36135SOL     OW17182   5.360   5.931   8.510  0.5820  0.3100 -0.6817
36135SOL    HW117183   5.285   5.950   8.565 -0.5222 -1.4679 -1.4541
36135SOL    HW217184   5.418   5.878   8.565 -0.7617 -1.9154 -1.2651
36136SOL     OW17185   5.116   6.375   0.742 -0.0897  0.2634  0.2456
36136SOL    HW117186   5.160   6.293   0.722  0.7352  0.4158  1.3644
36136SOL    HW217187   5.053   6.387   0.670 -1.3641 -2.1467  0.8578
36137SOL     OW17188   6.139   5.006   0.817  0.3818 -0.2930  0.5300
36137SOL    HW117189   6.044   5.017   0.827  0.4083 -0.5323  1.0960
36137SOL    HW217190   6.176   5.084   0.857  0.4937 -1.3230  2.5822
36138SOL     OW17191  10.766   7.833   1.123  0.0139  0.1903  0.6827
36138SOL    HW117192  10.819   7.756   1.107  0.3410  0.2640  1.3797
36138SOL    HW217193  10.829   7.905   1.129 -0.3969  0.8227 -1.6963
36139SOL     OW17194   5.060   0.331  12.483  0.6018  0.1098 -0.9502
36139SOL    HW117195   5.103   0.314  12.567 -1.4324 -1.8093 -0.1873
36139SOL    HW217196   4.981   0.379  12.506 -0.4532 -1.2390 -1.5979
36140SOL     OW17197   9.825   4.136   5.551 -0.4971 -0.0656 -0.8568
36140SOL    HW117198   9.742   4.183   5.548  0.4871  1.7465 -0.6297
36140SOL    HW217199   9.826   4.095   5.637  0.3567  2.8849  0.6550
36141SOL     OW17200  11.839   9.133   0.504 -0.5078  0.5638 -0.2400
36141SOL    HW117201  11.825   9.185   0.425 -2.4075 -0.5269 -0.6783
36141SOL    HW217202  11.798   9.048   0.485 -0.8967  0.2190  1.8550
36142SOL     OW17203   5.659   1.186   4.266  0.1571 -0.0398  0.0030
36142SOL    HW117204   5.658   1.110   4.325 -1.2794  2.1107  3.0224
36142SOL    HW217205   5.720   1.247   4.307  0.1751  1.0171 -1.5256
36143SOL     OW17206  11.063   7.937  11.132 -0.5802 -0.2245  0.3555
36143SOL    HW117207  11.146   7.895  11.155  0.0456  0.6807 -0.1901
36143SOL    HW217208  11.040   7.989  11.209 -0.7404 -0.6162  0.5751
36144SOL     OW17209  12.553   8.724   8.332 -0.4898  0.4561 -0.5813
36144SOL    HW117210  12.543   8.748   8.240  1.4354 -3.8984 -2.1924
36144SOL    HW217211  12.648   8.722   8.347 -0.7469  0.4181  1.3572
36145SOL     OW17212   9.617   2.424   8.925  0.1810 -0.1105  0.2409
36145SOL    HW117213   9.586   2.435   8.835 -0.3877 -1.0600  0.3039
36145SOL    HW217214   9.540   2.394   8.973  0.6466 -0.2706  0.8978
36146SOL     OW17215   3.846   1.510   3.135 -0.1965  0.1814  0.3475
36146SOL    HW117216   3.795   1.557   3.201  0.1113  0.3077  0.4980
36146SOL    HW217217   3.929   1.558   3.130 -0.0341 -0.1105  0.2132
36147SOL     OW17218   6.261   9.587   9.206 -0.1763  0.0707  0.0438
36147SOL    HW117219   6.192   9.588   9.272 -0.5982  0.4496 -0.4001
36147SOL    HW217220   6.242   9.511   9.151 -0.9038  0.8043 -0.7587
36148SOL     OW17221   4.488   4.118   7.298 -0.1186 -0.4127  0.0116
36148SOL    HW117222   4.528   4.036   7.268 -2.4274 -1.8034  0.5119
36148SOL    HW217223   4.514   4.124   7.390  0.5852 -0.2400 -0.1955
36149SOL     OW17224  10.159   4.754   2.057  0.1311  0.0108 -0.4539
36149SOL    HW117225  10.111   4.675   2.030  0.3428  0.2891 -1.6797
36149SOL    HW217226  10.251   4.733   2.041  0.5167 -0.5744  2.0335
36150SOL     OW17227  11.797   0.977   2.963  0.0442 -0.4318 -0.0008
36150SOL    HW117228  11.747   0.909   3.008  1.2827 -0.5439  1.2903
36150SOL    HW217229  11.886   0.943   2.958  0.4267  0.5723 -0.4599
36151SOL     OW17230   1.030   5.576   3.231 -0.4644  0.1441 -0.3204
36151SOL    HW117231   0.997   5.497   3.274 -1.0820  0.7467  0.3376
36151SOL    HW217232   1.069   5.627   3.303 -0.2405  0.5259 -0.7083
36152SOL     OW17233   7.515   5.968   3.953  0.7498 -0.0686 -0.3259
36152SOL    HW117234   7.582   5.921   4.003  3.4185  3.0824 -0.5924
36152SOL    HW217235   7.538   5.953   3.861 -0.5631 -1.0502 -0.5226
36153SOL     OW17236   6.378   5.798   5.596 -0.1205  0.0859 -0.1693
36153SOL    HW117237   6.449   5.802   5.532  1.9398 -1.8905  1.7898
36153SOL    HW217238   6.413   5.839   5.675 -1.2570 -0.6492  0.7649
36154SOL     OW17239   1.040   9.928   4.715 -0.0165 -0.3703 -0.7900
36154SOL    HW117240   0.954   9.937   4.755 -0.4974 -0.7789 -1.7281
36154SOL    HW217241   1.024   9.892   4.628  1.1166 -0.7094 -0.8831
36155SOL     OW17242  12.492   2.980   6.470  0.3404  0.1048 -0.0571
36155SOL    HW117243  12.491   3.007   6.378 -1.1766 -0.3263 -0.1976
36155SOL    HW217244  12.519   2.888   6.467 -1.9405 -0.6247 -0.3482
36156SOL     OW17245   6.503   9.807   1.043  0.4684 -0.7736 -0.7038
36156SOL    HW117246   6.565   9.792   0.972  2.5055 -0.6401  0.9441
36156SOL    HW217247   6.556   9.845   1.113 -1.0320 -2.5378  1.5465
36157SOL     OW17248   5.151   1.594   0.257  0.4815  0.5279 -0.2816
36157SOL    HW117249   5.076   1.618   0.202 -0.2936 -0.9398  0.0853
36157SOL    HW217250   5.142   1.649   0.335 -0.5905 -0.0882  0.0443
36158SOL     OW17251   7.658   3.102   6.015 -0.4165  0.0916 -0.3499
36158SOL    HW117252   7.693   3.189   6.037 -3.5651  1.5730 -0.7012
36158SOL    HW217253   7.732   3.043   6.029  2.3237  2.9421 -1.4159
36159SOL     OW17254   1.809   7.049   3.108 -0.0653  0.4601  0.3967
36159SOL    HW117255   1.802   6.965   3.153 -0.8365  0.9983  1.3385
36159SOL    HW217256   1.812   7.114   3.179  1.2029  1.1877 -0.3032
36160SOL     OW17257   3.010   0.891  11.719  0.1946 -0.9380 -0.0342
36160SOL    HW117258   3.099   0.921  11.741  0.2753  0.0836 -1.5997
36160SOL    HW217259   2.955   0.927  11.788  0.8794 -0.8178  0.4626
36161SOL     OW17260  12.243   8.881   8.270 -0.4044 -0.6023 -0.2069
36161SOL    HW117261  12.156   8.911   8.294 -1.4609 -1.8307 -2.3205
36161SOL    HW217262  12.247   8.791   8.301  0.5298 -0.2508  0.7692
36162SOL     OW17263  11.166  12.360   0.790 -0.1601  0.6698 -0.4106
36162SOL    HW117264  11.154  12.387   0.699  0.8971  1.3613 -0.3615
36162SOL    HW217265  11.256  12.329   0.794 -0.8162 -1.3625 -0.0642
36163SOL     OW17266   7.246   5.910  10.529  0.5075 -0.0886 -0.2109
36163SOL    HW117267   7.172   5.913  10.468 -0.7915  2.3749  1.3116
36163SOL    HW217268   7.297   5.988  10.509  0.8523 -0.0149  0.9130
36164SOL     OW17269   9.091   8.923  11.839 -0.4718  0.7630  0.2082
36164SOL    HW117270   9.097   8.977  11.917 -0.2283 -2.2143  2.4316
36164SOL    HW217271   9.160   8.858  11.850 -2.4988 -1.7337 -0.8089
36165SOL     OW17272   7.482   7.450   1.308  0.3265 -0.1033  0.1934
36165SOL    HW117273   7.483   7.501   1.390  1.4340 -1.8465  1.3177
36165SOL    HW217274   7.574   7.445   1.282  0.4028 -2.3600  0.6953
36166SOL     OW17275  11.613   8.099   0.701  1.0355 -0.2438 -0.0733
36166SOL    HW117276  11.641   8.073   0.789 -0.1077  0.1484  0.4242
36166SOL    HW217277  11.587   8.017   0.659 -0.7607 -0.1925  0.8371
36167SOL     OW17278   2.252   3.748   3.040  0.2183 -0.5629  0.1801
36167SOL    HW117279   2.226   3.828   2.994 -1.1040 -0.9792  0.1629
36167SOL    HW217280   2.315   3.706   2.982 -1.0932 -0.8655 -1.0885
36168SOL     OW17281   2.190  11.225   6.716  0.2548  0.4077 -0.5015
36168SOL    HW117282   2.231  11.201   6.633  0.8814  1.9351 -0.6523
36168SOL    HW217283   2.252  11.198   6.783 -0.1409 -0.5957 -0.5179
36169SOL     OW17284   5.111   8.776   4.293  0.1792  0.1664 -0.6375
36169SOL    HW117285   5.178   8.710   4.311  0.1566  0.2623 -0.2040
36169SOL    HW217286   5.156   8.860   4.304  0.4893  0.2440 -2.2101
36170SOL     OW17287  10.545  11.281   3.248 -0.1125 -0.6976  0.0055
36170SOL    HW117288  10.455  11.252   3.235 -0.3868  0.2347 -0.2738
36170SOL    HW217289  10.543  11.330   3.331  0.7602 -3.0760  1.5265
36171SOL     OW17290   6.335   9.693   8.928  0.2001  0.1703 -0.5533
36171SOL    HW117291   6.267   9.719   8.990  1.0520  2.0455 -0.3475
36171SOL    HW217292   6.333   9.762   8.861  0.0521 -1.2281 -2.0414
36172SOL     OW17293  10.065   6.259   9.219 -0.7781 -0.0646 -0.3012
36172SOL    HW117294  10.057   6.169   9.187 -1.9767  0.3848 -1.3206
36172SOL    HW217295   9.989   6.270   9.277  0.7936 -0.5326  2.0250
36173SOL     OW17296   3.362   7.346   8.960 -0.1178  0.2671  0.3000
36173SOL    HW117297   3.423   7.341   8.887 -0.2352 -0.9381  0.2698
36173SOL    HW217298   3.335   7.256   8.975 -0.6660  0.5940  1.3544
36174SOL     OW17299   2.369   5.204   1.872 -0.3450 -0.5462 -0.3803
36174SOL    HW117300   2.359   5.123   1.822 -1.4136 -1.4821  1.2590
36174SOL    HW217301   2.326   5.271   1.818  0.7298 -0.9985 -1.8503
36175SOL     OW17302   7.133   4.029   0.349 -0.0514 -0.2061  0.4840
36175SOL    HW117303   7.108   4.074   0.430 -2.8959 -0.1116 -0.3323
36175SOL    HW217304   7.152   4.099   0.287 -1.3741 -0.1308  0.1201
36176SOL     OW17305  10.180   8.891   1.905 -0.2520  0.3004 -0.6301
36176SOL    HW117306  10.196   8.971   1.954  1.2871 -1.3261  1.7335
36176SOL    HW217307  10.086   8.892   1.887 -0.9852  0.9681  2.5660
36177SOL     OW17308   7.442   3.953   1.075  0.0928 -0.1028 -0.1514
36177SOL    HW117309   7.475   4.024   1.131 -0.5554  0.6127 -0.6653
36177SOL    HW217310   7.498   3.955   0.998  0.0397 -0.1264 -0.1903
36178SOL     OW17311   2.012   9.315  11.650  0.3494  0.1197  0.1072
36178SOL    HW117312   2.092   9.263  11.652  0.2721  0.0315  1.2946
36178SOL    HW217313   2.034   9.396  11.697 -0.1856  0.2006  0.2253
36179SOL     OW17314   4.772   6.508   5.535 -0.6059  0.3373 -0.1475
36179SOL    HW117315   4.818   6.525   5.453 -0.9528  2.5265  0.0376
36179SOL    HW217316   4.831   6.542   5.603  0.4937 -3.0224  0.7881
36180SOL     OW17317   4.088   6.979   9.317  0.2125 -0.1561  0.0765
36180SOL    HW117318   4.022   6.947   9.379 -0.6529  0.8191 -0.3050
36180SOL    HW217319   4.054   7.064   9.288  1.5669  0.2903 -0.2649
36181SOL     OW17320   0.555  11.307  11.768  0.0888  0.0015 -0.1021
36181SOL    HW117321   0.643  11.288  11.735  0.5156  0.5919  0.6761
36181SOL    HW217322   0.554  11.271  11.857 -0.1571  0.7722  0.2155
36182SOL     OW17323   3.445  11.579   1.498 -0.1263 -0.1901  0.2577
36182SOL    HW117324   3.394  11.504   1.465 -1.3958  0.3644  0.8852
36182SOL    HW217325   3.516  11.539   1.549 -0.0111 -0.9816 -0.5027
36183SOL     OW17326   4.284  10.346   0.863 -0.4733  0.3699  0.5959
36183SOL    HW117327   4.218  10.279   0.847  0.9369 -0.8707 -0.2433
36183SOL    HW217328   4.333  10.314   0.939 -0.9341  1.3876  1.3484
36184SOL     OW17329   1.950   4.586  10.479  0.0407 -0.1513  0.2355
36184SOL    HW117330   2.020   4.530  10.514 -1.4075 -0.6303  2.5685
36184SOL    HW217331   1.869   4.539  10.500 -1.0849  1.3474 -0.5726
36185SOL     OW17332   2.011   9.587   9.134  0.2902  0.5718 -0.7084
36185SOL    HW117333   2.072   9.597   9.207 -0.3470 -0.5420 -0.0099
36185SOL    HW217334   2.053   9.522   9.077 -0.0897  0.0420 -0.3865
36186SOL     OW17335   2.623   7.441  10.989  0.0381  0.2064  0.2808
36186SOL    HW117336   2.638   7.458  10.896 -0.7681  0.6646  0.2226
36186SOL    HW217337   2.622   7.528  11.029 -1.0758  0.1271  0.4717
36187SOL     OW17338   3.583  10.172  12.529  0.5329  0.2671 -0.3080
36187SOL    HW117339   3.631  10.098  12.490  0.1813  0.1245 -0.4726
36187SOL    HW217340   3.496  10.166  12.491 -0.3434 -0.8596  1.7004
36188SOL     OW17341   1.739   1.621   5.619 -0.3090  0.0276  0.0023
36188SOL    HW117342   1.793   1.687   5.575 -1.7882  1.1522 -0.2062
36188SOL    HW217343   1.708   1.565   5.548 -0.3421  0.0834 -0.0280
36189SOL     OW17344   8.134  11.243   8.412 -0.0262 -0.1924  0.1398
36189SOL    HW117345   8.221  11.278   8.429 -1.1034  2.5048  0.7871
36189SOL    HW217346   8.090  11.247   8.496 -0.9546 -0.9289 -0.2942
36190SOL     OW17347   5.298   4.561   0.851  0.1015 -0.4154 -0.0120
36190SOL    HW117348   5.362   4.591   0.787  0.5772 -1.0525  0.1492
36190SOL    HW217349   5.257   4.641   0.884  0.3271 -0.0450 -0.6158
36191SOL     OW17350   8.854   3.176   1.854  0.0145 -0.3380 -0.5911
36191SOL    HW117351   8.779   3.135   1.811 -0.6886  0.7906 -0.4752
36191SOL    HW217352   8.868   3.257   1.805  0.7344 -0.2094 -0.1846
36192SOL     OW17353   0.741   5.237   6.984 -0.1512  0.2324 -0.5105
36192SOL    HW117354   0.694   5.188   6.916 -0.1246  0.2808 -0.5640
36192SOL    HW217355   0.712   5.198   7.066  1.0120 -0.8877 -0.6052
36193SOL     OW17356   0.775   9.077   2.482  0.2285 -0.3995 -0.6412
36193SOL    HW117357   0.696   9.028   2.460  1.2758 -2.1341 -0.7575
36193SOL    HW217358   0.807   9.035   2.563 -0.3010  1.9219  0.8662
36194SOL     OW17359   3.157   2.064   2.600 -0.4473  1.1018 -0.5152
36194SOL    HW117360   3.157   2.033   2.691 -0.2994  1.1559 -0.4967
36194SOL    HW217361   3.196   2.151   2.605  1.2547  0.3854 -0.8833
36195SOL     OW17362   6.873   1.615   7.199 -0.3490  0.1641  0.0017
36195SOL    HW117363   6.808   1.666   7.150  0.8307  2.1677  0.3679
36195SOL    HW217364   6.865   1.647   7.289  0.3207 -0.4402  0.2871
36196SOL     OW17365   0.090  12.188   9.350 -0.4473  0.3383  0.3203
36196SOL    HW117366   0.060  12.277   9.365  0.2198  0.4088  1.3581
36196SOL    HW217367   0.183  12.198   9.326 -0.5057 -0.0459 -0.0813
36197SOL     OW17368   8.706   4.138   3.152 -0.3889 -0.0429  0.5622
36197SOL    HW117369   8.681   4.090   3.073 -0.5940 -0.5627  0.9368
36197SOL    HW217370   8.629   4.189   3.174 -0.0162  0.8358 -0.0990
36198SOL     OW17371   6.227   5.981   9.657 -0.2574  0.3356 -0.1974
36198SOL    HW117372   6.182   5.897   9.654  0.0299  0.1848 -0.3067
36198SOL    HW217373   6.179   6.031   9.724 -0.7608  0.2830 -0.5130
36199SOL     OW17374   7.381  11.160  11.608  0.3456 -0.2373  0.2521
36199SOL    HW117375   7.447  11.095  11.631  1.1669 -0.0464 -1.4258
36199SOL    HW217376   7.427  11.244  11.608 -0.2442  0.0962  0.4969
36200SOL     OW17377   1.867   1.378   8.857  0.2660 -0.2478  0.1459
36200SOL    HW117378   1.834   1.390   8.768 -0.0046 -1.6451  0.0398
36200SOL    HW217379   1.889   1.466   8.886 -0.4577  0.3320 -0.9886
36201SOL     OW17380   4.908  11.985   9.857  1.0119  0.3032  0.0507
36201SOL    HW117381   4.846  12.056   9.839  0.8061  0.0415 -0.2831
36201SOL    HW217382   4.975  12.025   9.913  0.8579  0.7391 -0.0731
36202SOL     OW17383  10.912  11.188   2.991  0.6033  0.3372  0.3457
36202SOL    HW117384  10.959  11.230   2.919 -0.0934  0.2617 -0.1686
36202SOL    HW217385  10.824  11.225   2.987 -0.0081 -1.0733 -0.0505
36203SOL     OW17386   9.197   5.825   0.364  0.2722 -0.1905  0.6270
36203SOL    HW117387   9.276   5.774   0.380  1.4145  1.6384  1.1592
36203SOL    HW217388   9.212   5.868   0.280 -0.0903  0.2690  0.7870
36204SOL     OW17389   4.553   7.939   7.349  0.1277  0.3641  0.0052
36204SOL    HW117390   4.481   7.993   7.317 -1.8583 -0.6104  2.4524
36204SOL    HW217391   4.523   7.849   7.337  0.8735 -0.0621  1.1204
36205SOL     OW17392   7.491   8.326  12.582  0.2836  0.2182 -0.7003
36205SOL    HW117393   7.575   8.339  12.626  0.0146  0.1687 -0.1582
36205SOL    HW217394   7.459   8.242  12.615 -1.2846  1.4979  1.3136
36206SOL     OW17395   4.282   2.555   1.629 -0.4030  0.0627  0.4470
36206SOL    HW117396   4.213   2.492   1.650 -0.4777  0.0944  0.3018
36206SOL    HW217397   4.245   2.609   1.559  0.4885 -1.2069 -1.0661
36207SOL     OW17398   4.800   1.021   0.149 -0.4950 -0.1652 -0.1597
36207SOL    HW117399   4.729   1.030   0.214 -0.2779  0.7038 -0.0347
36207SOL    HW217400   4.757   1.034   0.065 -0.8867 -1.8728 -0.2561
36208SOL     OW17401   0.480   9.323   3.204 -0.2836  0.5456 -0.2462
36208SOL    HW117402   0.528   9.394   3.161 -0.6117  0.4835 -0.7266
36208SOL    HW217403   0.389   9.339   3.181 -0.4177  0.2739  0.0925
36209SOL     OW17404   7.388   5.222   1.137 -0.1427  0.1336  0.0146
36209SOL    HW117405   7.369   5.177   1.219  1.5021  0.1932  0.4607
36209SOL    HW217406   7.302   5.251   1.105 -1.1066 -2.1204  0.3891
36210SOL     OW17407   0.273   0.030   9.436  0.3491 -0.3569 -0.0869
36210SOL    HW117408   0.241  -0.021   9.362  0.1117  0.4262 -0.5307
36210SOL    HW217409   0.199   0.083   9.463  1.1141  1.1425 -0.8349
36211SOL     OW17410   6.416  12.094   9.424 -0.1026  0.1610  0.0208
36211SOL    HW117411   6.408  12.097   9.520  1.1994 -1.4788  0.2433
36211SOL    HW217412   6.503  12.055   9.409 -0.9224 -1.0804 -1.7951
36212SOL     OW17413   0.519   1.979  11.608  0.6101  0.5991 -0.5861
36212SOL    HW117414   0.607   1.941  11.611 -0.7391 -3.1357  3.2589
36212SOL    HW217415   0.519   2.047  11.675  0.1935 -0.8983  1.0207
36213SOL     OW17416   1.402   2.508   2.861  0.2373  0.2127 -0.3610
36213SOL    HW117417   1.378   2.507   2.954  0.2340 -0.5779 -0.3648
36213SOL    HW217418   1.439   2.595   2.847 -2.0836  1.2904 -0.2288
36214SOL     OW17419   3.363   3.837  11.545  0.1656  0.0471 -0.3319
36214SOL    HW117420   3.403   3.838  11.457 -1.0629 -0.4418 -0.9188
36214SOL    HW217421   3.297   3.768  11.540 -1.6742  1.6900  0.1648
36215SOL     OW17422  10.356  11.082   1.723 -0.5846  0.2298  0.4926
36215SOL    HW117423  10.325  11.165   1.688 -0.3666  0.7374  1.4702
36215SOL    HW217424  10.433  11.105   1.776  1.0677 -0.9008 -1.2892
36216SOL     OW17425   4.708   0.277   7.251 -0.3623  0.1780  0.0087
36216SOL    HW117426   4.716   0.357   7.199  0.7394  0.0885  0.0233
36216SOL    HW217427   4.614   0.271   7.271 -0.7249  0.5067 -1.4805
36217SOL     OW17428   7.117  11.829   6.021  0.2423 -0.2188 -0.4488
36217SOL    HW117429   7.141  11.807   5.931 -1.6966 -1.0914 -0.7943
36217SOL    HW217430   7.111  11.745   6.066 -0.3674  0.0995  0.0847
36218SOL     OW17431   4.523   7.642   0.553  0.0108 -0.8381 -0.2698
36218SOL    HW117432   4.592   7.687   0.504 -0.5426 -1.0674 -1.2910
36218SOL    HW217433   4.493   7.706   0.618 -0.2423 -0.0003 -1.1956
36219SOL     OW17434   2.770   3.251   3.436 -0.2872  0.3599 -0.1504
36219SOL    HW117435   2.751   3.243   3.529  0.5221 -1.3917 -0.1031
36219SOL    HW217436   2.708   3.317   3.404 -1.1367  0.3712  1.4409
36220SOL     OW17437   1.394   6.555   5.580 -0.0072 -0.1375  0.0981
36220SOL    HW117438   1.379   6.505   5.661  1.8058 -0.4965  0.2596
36220SOL    HW217439   1.348   6.638   5.594 -1.4105 -0.9814  0.6499
36221SOL     OW17440   0.972   3.877   5.493  0.5456 -0.3742 -0.0408
36221SOL    HW117441   0.964   3.913   5.581 -0.2705  3.5356 -1.5378
36221SOL    HW217442   1.059   3.837   5.491  1.8855  2.2160  1.6888
36222SOL     OW17443   9.947   3.460   4.953  0.0198 -0.1079  0.2438
36222SOL    HW117444   9.923   3.552   4.938  3.3900  1.1266  1.5287
36222SOL    HW217445   9.881   3.429   5.015 -0.9456  1.5848  0.1426
36223SOL     OW17446   1.491   2.124  11.295 -0.3604 -0.2229  0.6830
36223SOL    HW117447   1.514   2.052  11.353 -0.1680 -0.0135  0.8700
36223SOL    HW217448   1.453   2.190  11.353 -1.6508 -0.6437  0.3604
36224SOL     OW17449  11.872   6.106   2.336  0.3809 -0.3834 -0.2321
36224SOL    HW117450  11.930   6.095   2.261  0.4380 -0.3344 -0.1953
36224SOL    HW217451  11.793   6.147   2.300  1.1749  1.4883  0.0454
36225SOL     OW17452   0.146   0.087   1.303  0.1000 -0.0878 -0.4148
36225SOL    HW117453   0.189   0.006   1.328 -0.6107  0.4387  3.0207
36225SOL    HW217454   0.213   0.155   1.314 -0.0471  0.0894 -0.6075
36226SOL     OW17455   3.115   8.478  11.174  0.1880 -0.2120 -0.5921
36226SOL    HW117456   3.102   8.429  11.093  0.0388  0.1715 -0.8015
36226SOL    HW217457   3.183   8.542  11.153 -0.4857  0.4918 -0.6859
36227SOL     OW17458   1.350   4.384  11.350 -0.3680 -0.4074 -0.0469
36227SOL    HW117459   1.360   4.450  11.282  1.6500 -0.8444 -0.2400
36227SOL    HW217460   1.378   4.427  11.430 -0.5797 -0.5613  0.1122
36228SOL     OW17461   4.677   4.419  10.511 -0.8981 -0.2085 -0.8341
36228SOL    HW117462   4.734   4.467  10.451 -0.1611  1.4425  1.0722
36228SOL    HW217463   4.736   4.356  10.554 -0.9430  0.1370 -0.2679
36229SOL     OW17464  12.099   6.860   4.822 -0.5096 -0.2079  0.6318
36229SOL    HW117465  12.090   6.816   4.738  1.5032 -0.2027  0.3552
36229SOL    HW217466  12.075   6.951   4.805  1.2257  0.1099 -0.3335
36230SOL     OW17467   1.206   7.550   4.829 -0.3501 -0.0783 -0.3598
36230SOL    HW117468   1.156   7.488   4.777  1.1868 -1.6434 -0.0464
36230SOL    HW217469   1.223   7.623   4.769 -3.2896  0.7572 -0.3474
36231SOL     OW17470  11.849  10.700   3.268  0.7516  0.5547 -0.0502
36231SOL    HW117471  11.770  10.682   3.216  1.2582 -0.2172 -0.5696
36231SOL    HW217472  11.831  10.784   3.309  0.6939  1.7024 -2.2395
36232SOL     OW17473   6.834   5.526   2.076 -0.5258  0.4560 -0.1403
36232SOL    HW117474   6.786   5.461   2.026 -1.3796  1.8848 -1.2490
36232SOL    HW217475   6.925   5.498   2.071 -0.7065  0.0676 -1.7355
36233SOL     OW17476  10.508   3.827  11.534  0.2648  0.2011 -0.3204
36233SOL    HW117477  10.570   3.817  11.606  0.4090  1.8564 -0.1691
36233SOL    HW217478  10.437   3.881  11.571  0.1560  0.7524 -1.2982
36234SOL     OW17479   2.034   5.323   5.429  0.3396 -0.2576 -0.1108
36234SOL    HW117480   2.101   5.254   5.431  0.5547 -0.0707 -0.6234
36234SOL    HW217481   2.022   5.348   5.521  0.8195 -0.4469  0.0057
36235SOL     OW17482   2.139  11.972   9.440 -0.2658 -0.5029  0.1065
36235SOL    HW117483   2.163  11.884   9.471  1.4830 -0.2658 -0.4452
36235SOL    HW217484   2.132  11.963   9.345  0.4355  0.0413 -0.0078
36236SOL     OW17485   0.434   1.864   8.998  0.1378 -0.6533 -0.5921
36236SOL    HW117486   0.485   1.874   9.079  2.2576  2.5064 -2.1094
36236SOL    HW217487   0.344   1.852   9.028  1.0765 -1.4844  2.2112
36237SOL     OW17488   7.487  11.768   0.323  0.0293 -0.0098  0.2970
36237SOL    HW117489   7.476  11.786   0.230  2.1838 -0.3032 -0.0565
36237SOL    HW217490   7.475  11.853   0.365  0.0162  0.3210 -0.3573
36238SOL     OW17491   1.821   4.492  10.176 -0.7243  0.3437  0.2132
36238SOL    HW117492   1.836   4.563  10.113 -0.7011  0.7785  0.6987
36238SOL    HW217493   1.781   4.536  10.251 -3.3506 -0.5718 -0.5515
36239SOL     OW17494   2.683   9.593   8.961 -0.3350  0.0561  0.0696
36239SOL    HW117495   2.603   9.555   8.997 -1.8755  1.1906 -1.9753
36239SOL    HW217496   2.673   9.584   8.866  2.0465  0.1040 -0.2472
36240SOL     OW17497   7.212   8.434   2.198 -0.5535  1.2045 -0.7742
36240SOL    HW117498   7.142   8.497   2.217 -1.3235  0.8266 -2.2704
36240SOL    HW217499   7.171   8.348   2.210  0.0448  0.9709 -0.3471
36241SOL     OW17500  12.319   4.778  11.855 -0.4037 -1.1074  0.0164
36241SOL    HW117501  12.328   4.695  11.903 -1.1746 -2.0340 -1.3893
36241SOL    HW217502  12.244   4.765  11.797 -1.9116  1.3294  1.2391
36242SOL     OW17503   0.548   3.820   2.377  0.3754 -1.0235  0.1257
36242SOL    HW117504   0.540   3.849   2.286 -0.2042 -1.4533  0.0320
36242SOL    HW217505   0.638   3.842   2.402  0.0623  0.5488 -0.0309
36243SOL     OW17506  12.599  10.144   4.705  0.1700 -0.5366 -0.2785
36243SOL    HW117507  12.580  10.215   4.767  1.4954 -0.3529 -0.0524
36243SOL    HW217508  12.515  10.099   4.694 -0.5249  0.5864  0.1698
36244SOL     OW17509  10.937   6.426   8.534  0.1433  0.5451 -0.0381
36244SOL    HW117510  10.891   6.393   8.611  1.6512  0.7383  1.0048
36244SOL    HW217511  10.982   6.349   8.498 -0.0865  0.5694 -0.3808
36245SOL     OW17512   5.128   5.513   9.607  0.1646  0.0768 -0.2844
36245SOL    HW117513   5.091   5.568   9.676  2.0410  0.5292  0.4411
36245SOL    HW217514   5.142   5.572   9.533  1.3283  0.4216  0.1789
36246SOL     OW17515   8.237   9.907   1.452 -0.4863 -0.4916  0.8326
36246SOL    HW117516   8.187   9.892   1.372 -0.9706 -1.2113  1.2578
36246SOL    HW217517   8.302   9.836   1.454 -0.7378 -0.7139  1.2757
36247SOL     OW17518   8.103  12.383   2.876 -0.2263 -0.3024  0.5732
36247SOL    HW117519   8.047  12.407   2.950  0.2617 -0.2689  0.9346
36247SOL    HW217520   8.192  12.396   2.907 -0.0231  1.4441 -0.6068
36248SOL     OW17521   4.586   7.751   4.278 -0.5316 -0.3396  0.1671
36248SOL    HW117522   4.547   7.778   4.361 -0.4522  1.4211 -0.3208
36248SOL    HW217523   4.677   7.780   4.283 -0.9457  1.4154 -1.1494
36249SOL     OW17524   5.456  11.789  10.067 -0.0873  0.0338 -0.2972
36249SOL    HW117525   5.463  11.698  10.037  0.4035 -0.4441  1.1783
36249SOL    HW217526   5.386  11.787  10.132  1.2809  0.2413  1.2639
36250SOL     OW17527   0.954   5.291   6.822  0.2063  0.4188  0.0360
36250SOL    HW117528   0.949   5.211   6.769 -0.6299  0.9022 -0.6503
36250SOL    HW217529   0.906   5.270   6.902  3.2615 -1.0328  1.6487
36251SOL     OW17530  10.513   9.576   4.848  0.4354  0.0033 -0.5410
36251SOL    HW117531  10.458   9.527   4.788 -0.2667  1.4916 -1.1590
36251SOL    HW217532  10.599   9.579   4.806  0.5571 -0.8946 -0.3704
36252SOL     OW17533   0.915   9.469   5.345  0.7867  0.7511  0.7803
36252SOL    HW117534   1.007   9.464   5.320  0.5420  1.6425 -0.4321
36252SOL    HW217535   0.869   9.481   5.262 -0.2461  2.1695  1.5030
36253SOL     OW17536  10.335   8.786   2.164 -0.0030  0.0454 -0.1435
36253SOL    HW117537  10.287   8.805   2.084 -0.1502 -1.7208 -0.5205
36253SOL    HW217538  10.399   8.719   2.139  0.5293  0.0862  1.0278
36254SOL     OW17539   7.966   4.474   4.977 -0.0481  0.1116 -0.1665
36254SOL    HW117540   7.871   4.479   4.975 -0.2746 -2.5421  0.0163
36254SOL    HW217541   7.992   4.517   5.058 -1.2662 -0.6030  0.6302
36255SOL     OW17542   1.793   9.136   1.865 -0.1115  0.3023 -0.1341
36255SOL    HW117543   1.733   9.100   1.931 -0.1755  2.6407  1.1865
36255SOL    HW217544   1.843   9.060   1.835 -1.9269 -1.2892  0.6126
36256SOL     OW17545  11.340   8.419   7.472  0.2381  0.0824 -0.3504
36256SOL    HW117546  11.286   8.498   7.471  1.7333  1.1783  0.3764
36256SOL    HW217547  11.393   8.428   7.551  0.9418 -1.3066 -0.6342
36257SOL     OW17548   6.577   1.610   1.608  0.0998 -0.1143  0.2743
36257SOL    HW117549   6.565   1.530   1.556 -1.7594  0.2747  0.0243
36257SOL    HW217550   6.526   1.595   1.688 -1.4532  1.2907 -0.3733
36258SOL     OW17551   3.698  12.490  12.148 -0.3366 -0.0999 -0.2915
36258SOL    HW117552   3.724  12.578  12.119 -2.1287  0.7106  0.3571
36258SOL    HW217553   3.604  12.486  12.128 -0.4625 -1.5415  0.4794
36259SOL     OW17554   4.307   7.754  10.964 -0.0605  0.3432  0.5194
36259SOL    HW117555   4.403   7.750  10.966  0.0934  1.0917 -2.0272
36259SOL    HW217556   4.284   7.730  10.875 -2.1983  1.1818  0.7964
36260SOL     OW17557  11.536   4.467  11.909  0.6098 -0.2425  0.3458
36260SOL    HW117558  11.622   4.503  11.888 -0.2803  1.2908 -0.8819
36260SOL    HW217559  11.511   4.511  11.991  0.1492  0.8936 -0.3810
36261SOL     OW17560   0.421   1.678   4.391  0.1717 -0.3532  0.2207
36261SOL    HW117561   0.499   1.734   4.387 -0.1298  0.0659  0.1218
36261SOL    HW217562   0.372   1.710   4.466 -0.4911  0.1752 -0.4151
36262SOL     OW17563   6.142   6.795  10.764  0.0508 -0.3747  0.3595
36262SOL    HW117564   6.222   6.742  10.766  0.2015 -0.1373  0.8745
36262SOL    HW217565   6.136   6.832  10.852  0.6893  1.5444 -0.3434
36263SOL     OW17566   4.512   0.352  11.317  0.6432  0.0567  0.0670
36263SOL    HW117567   4.544   0.314  11.399  1.2274 -0.1576 -0.2546
36263SOL    HW217568   4.523   0.283  11.252  1.1220  0.5569 -0.3961
36264SOL     OW17569   9.973  10.214   7.383  0.2468  0.3246  0.2821
36264SOL    HW117570   9.936  10.174   7.461 -0.7670  0.1702 -0.2659
36264SOL    HW217571   9.897  10.237   7.329  0.9409  0.1802 -0.7792
36265SOL     OW17572   5.944   3.522   5.813  0.9421 -0.2345 -0.3903
36265SOL    HW117573   5.952   3.571   5.894  0.0060 -0.4540 -0.1555
36265SOL    HW217574   5.964   3.431   5.838 -0.4512 -0.4917 -0.1593
36266SOL     OW17575   8.331   8.938   7.556  0.3261  0.2411 -0.0238
36266SOL    HW117576   8.306   8.859   7.604 -0.9877  1.4696  1.4362
36266SOL    HW217577   8.420   8.920   7.525  0.1041 -1.7413  0.3734
36267SOL     OW17578  11.174   5.601  10.287  0.7348  0.1566  0.8401
36267SOL    HW117579  11.174   5.630  10.378 -1.6483 -0.4051  1.0773
36267SOL    HW217580  11.161   5.506  10.292  0.2870  0.1581 -0.0984
36268SOL     OW17581   8.183   1.909   9.261  0.2652 -0.9635 -0.5823
36268SOL    HW117582   8.245   1.936   9.328  0.6069 -0.9057 -0.9189
36268SOL    HW217583   8.170   1.987   9.207 -0.0201 -1.0047 -0.5793
36269SOL     OW17584   7.334   1.058   1.036  0.3150 -0.0887  0.1882
36269SOL    HW117585   7.351   1.041   0.943  0.4609  1.1505 -0.0286
36269SOL    HW217586   7.411   1.023   1.082 -0.3599 -1.9295 -0.0052
36270SOL     OW17587   0.659   9.715   5.568 -0.0314 -0.0660  0.0993
36270SOL    HW117588   0.623   9.677   5.488  0.0189  0.4587 -0.1794
36270SOL    HW217589   0.656   9.644   5.632  1.1032 -0.8708 -0.7100
36271SOL     OW17590  11.395   7.947   0.595 -0.3417 -0.0787  0.0729
36271SOL    HW117591  11.302   7.933   0.579 -0.3431  0.2010 -0.1753
36271SOL    HW217592  11.438   7.867   0.564 -0.5443 -0.4088  0.6393
36272SOL     OW17593   9.685   6.169  10.443  0.3275 -0.4515 -0.4238
36272SOL    HW117594   9.704   6.142  10.533 -1.2909 -0.4193 -0.0397
36272SOL    HW217595   9.753   6.233  10.423  0.4400 -0.0912  0.9579
36273SOL     OW17596  10.346   3.078   4.698 -0.0626 -0.4742  0.2606
36273SOL    HW117597  10.258   3.112   4.715  0.3182  0.2631  0.8045
36273SOL    HW217598  10.372   3.035   4.779  0.8366  1.0125  0.8004
36274SOL     OW17599   0.437   0.959  11.950 -0.0392  0.6771 -1.3534
36274SOL    HW117600   0.369   0.900  11.917  0.8808 -0.0271 -2.0397
36274SOL    HW217601   0.458   1.015  11.875  0.7164  0.3438 -1.3915
36275SOL     OW17602  11.002   6.979   5.592 -0.4403  0.5302 -0.1937
36275SOL    HW117603  10.942   6.939   5.655  1.3858 -1.9248  0.1245
36275SOL    HW217604  10.945   7.016   5.525 -2.3404 -0.5689  0.7325
36276SOL     OW17605   0.665   6.397   7.087 -0.0174 -0.1394 -0.0346
36276SOL    HW117606   0.672   6.404   7.182 -0.6282 -0.6089  0.0495
36276SOL    HW217607   0.726   6.463   7.054  0.8734 -0.5762  0.6733
36277SOL     OW17608  10.938   1.860   6.986 -0.0830  0.1868 -0.2009
36277SOL    HW117609  10.975   1.828   7.069 -2.5718 -4.4018 -0.5322
36277SOL    HW217610  11.011   1.855   6.925  0.8775 -0.1771  0.9180
36278SOL     OW17611   4.345   9.965   2.403 -0.4173  0.0283 -0.3881
36278SOL    HW117612   4.337  10.059   2.415 -1.6947 -0.0085 -0.8237
36278SOL    HW217613   4.259   9.930   2.427  0.3933 -1.1720  0.9776
36279SOL     OW17614   4.006   1.708   3.350  0.2521  0.5399  0.8504
36279SOL    HW117615   4.023   1.799   3.374 -0.3401  0.8235  0.2499
36279SOL    HW217616   4.021   1.706   3.255 -1.6455  0.5140  0.4969
36280SOL     OW17617   2.813   4.804   1.621 -0.0924 -0.1729 -0.2683
36280SOL    HW117618   2.868   4.749   1.677  0.3982  0.8591  0.2842
36280SOL    HW217619   2.752   4.847   1.681  1.2567  1.9304 -0.2958
36281SOL     OW17620   3.668   3.384  12.098  0.5264 -0.5735  0.3664
36281SOL    HW117621   3.589   3.389  12.152  1.2002  1.7417  1.2209
36281SOL    HW217622   3.642   3.422  12.014  0.6103 -0.2508  0.4869
36282SOL     OW17623   5.600   8.229   0.498  0.4453 -0.6783 -0.3152
36282SOL    HW117624   5.576   8.192   0.583  1.9361  0.7655  0.8172
36282SOL    HW217625   5.531   8.200   0.438 -1.4576 -0.5650  1.6888
36283SOL     OW17626   6.852   5.658   2.700 -0.2574 -0.1964 -0.7036
36283SOL    HW117627   6.796   5.582   2.687  0.3167 -0.7277 -0.1772
36283SOL    HW217628   6.835   5.685   2.791 -0.6008  0.4231 -0.9485
36284SOL     OW17629  10.258   5.194  10.046  0.3110 -0.5891  0.4120
36284SOL    HW117630  10.220   5.116  10.004 -0.5152  0.2847 -0.5189
36284SOL    HW217631  10.313   5.233   9.978  2.2090 -1.3441  1.4644
36285SOL     OW17632   3.482   0.124  12.466  0.1590  0.0977  0.7757
36285SOL    HW117633   3.408   0.184  12.476  0.1366  0.5222 -1.4221
36285SOL    HW217634   3.555   0.169  12.508 -0.2189  0.9233  0.5576
36286SOL     OW17635   7.518   4.566   4.015  0.2922 -0.0086 -0.3966
36286SOL    HW117636   7.428   4.592   3.997 -0.3420 -1.5096  0.4125
36286SOL    HW217637   7.553   4.538   3.930  0.0940  0.8191 -0.7588
36287SOL     OW17638  10.209   1.478   8.847 -0.2315 -0.0427 -0.2375
36287SOL    HW117639  10.255   1.396   8.864 -0.7375 -0.1089  0.9054
36287SOL    HW217640  10.274   1.533   8.803  1.1370  0.0544  1.7716
36288SOL     OW17641   0.777   3.003   0.144 -0.1042  0.5228  0.3130
36288SOL    HW117642   0.828   2.985   0.223  0.9153 -0.2101 -0.4770
36288SOL    HW217643   0.727   3.082   0.165 -1.1496 -0.6030  2.2647
36289SOL     OW17644  10.894   0.754   8.378 -0.2269  0.3582  0.0285
36289SOL    HW117645  10.910   0.733   8.470 -1.3590  0.6485  0.3092
36289SOL    HW217646  10.800   0.773   8.373 -0.0390  1.1668 -1.0269
36290SOL     OW17647   1.621   2.769  10.070  0.3440 -0.3621 -0.3688
36290SOL    HW117648   1.674   2.832  10.118 -1.3458  1.1050 -0.2990
36290SOL    HW217649   1.552   2.745  10.132 -0.5769 -0.1717 -1.2938
36291SOL     OW17650   4.043   5.443  11.658  0.2400  0.0320 -0.1059
36291SOL    HW117651   4.077   5.479  11.740 -1.4506  1.6878 -0.0706
36291SOL    HW217652   4.107   5.376  11.633 -0.0081 -1.7637  3.4108
36292SOL     OW17653  11.920   9.266  10.613  0.5268 -0.4436  0.7293
36292SOL    HW117654  11.962   9.329  10.671  1.9750 -0.3762 -0.3324
36292SOL    HW217655  11.980   9.191  10.611 -0.5839 -1.3830  1.0317
36293SOL     OW17656  10.884   8.688  10.354 -0.7040 -0.1082  0.1670
36293SOL    HW117657  10.855   8.778  10.343 -0.5055 -0.0149  0.4006
36293SOL    HW217658  10.978   8.694  10.370 -0.3813 -0.4746 -1.4775
36294SOL     OW17659   8.741   3.689  12.240  0.0693 -0.0670 -0.2601
36294SOL    HW117660   8.711   3.653  12.324  0.9139  0.5487  0.3254
36294SOL    HW217661   8.776   3.775  12.263 -2.3105  1.3942 -1.6686
36295SOL     OW17662   4.842   2.410   9.995 -0.2530 -0.4945  0.3614
36295SOL    HW117663   4.788   2.354   9.940 -2.0189  2.4649 -1.1902
36295SOL    HW217664   4.834   2.372  10.083  0.3578 -3.7404 -0.8533
36296SOL     OW17665   1.375   3.655   8.322  0.4368  0.0986 -0.0176
36296SOL    HW117666   1.340   3.580   8.371  0.7015 -0.0483 -0.0484
36296SOL    HW217667   1.380   3.725   8.386 -0.4047  0.2752 -0.1362
36297SOL     OW17668   3.208   5.246   2.830 -0.0800  0.1612 -0.4415
36297SOL    HW117669   3.292   5.220   2.867  0.3034  1.5131 -0.3126
36297SOL    HW217670   3.164   5.293   2.900 -1.8685 -2.2284  0.1895
36298SOL     OW17671   3.135   3.768   6.869  0.1606 -0.7469  0.2993
36298SOL    HW117672   3.074   3.809   6.930  0.1594 -0.1429 -0.0904
36298SOL    HW217673   3.168   3.841   6.816 -0.1516 -1.3135 -0.6915
36299SOL     OW17674   7.603   4.552   0.593 -1.0456 -0.1219  0.1494
36299SOL    HW117675   7.524   4.547   0.539 -1.2688  0.7775  0.3849
36299SOL    HW217676   7.597   4.636   0.637 -1.4246 -1.2871  2.4706
36300SOL     OW17677   3.733  12.590   0.875  0.0124 -0.0655  0.5574
36300SOL    HW117678   3.739  12.521   0.810 -0.9726  0.6357 -0.3094
36300SOL    HW217679   3.784  12.662   0.838 -1.0708  0.5602  0.2366
36301SOL     OW17680   1.072   8.361   8.839 -0.6335 -0.0501  0.1372
36301SOL    HW117681   1.030   8.378   8.924 -1.4252 -1.1051 -0.0269
36301SOL    HW217682   1.160   8.397   8.849 -0.3872 -0.9705  1.7505
36302SOL     OW17683   5.595   8.025   4.916  0.0438  0.0073  0.4563
36302SOL    HW117684   5.546   7.943   4.908 -0.8920  0.5722  0.1460
36302SOL    HW217685   5.591   8.063   4.828  1.5396 -0.1875  0.2817
36303SOL     OW17686   8.269   2.241   1.071 -0.2717 -0.3112  0.0916
36303SOL    HW117687   8.355   2.200   1.059  0.7824  0.9091  2.6953
36303SOL    HW217688   8.262   2.305   1.001  0.7674 -0.6721 -0.3587
36304SOL     OW17689   7.623   0.084  11.985  0.2101  0.4991  0.1233
36304SOL    HW117690   7.655   0.067  12.074 -1.6580  0.4201  0.8149
36304SOL    HW217691   7.702   0.105  11.935  1.4717 -0.8362  1.4537
36305SOL     OW17692  11.890   3.933   2.426 -0.5004 -0.4145  0.0834
36305SOL    HW117693  11.862   3.871   2.494 -0.2804  0.7664  1.3072
36305SOL    HW217694  11.958   3.985   2.469 -1.4371  1.3905 -0.5225
36306SOL     OW17695   4.113   7.015  12.511 -0.5118 -0.2530  0.1298
36306SOL    HW117696   4.131   7.103  12.479  0.7718 -0.9614 -1.1775
36306SOL    HW217697   4.017   7.012  12.519 -0.5865  1.1813 -0.0207
36307SOL     OW17698   5.123   6.144   0.942 -0.6414  0.1723  0.1493
36307SOL    HW117699   5.099   6.070   0.886 -0.6669 -0.3181  0.7907
36307SOL    HW217700   5.133   6.105   1.030  0.4737  0.7139  0.2882
36308SOL     OW17701   8.996   4.266  11.715 -0.0745 -0.7689  0.3478
36308SOL    HW117702   9.031   4.177  11.725  0.3492 -1.0058 -2.4690
36308SOL    HW217703   9.015   4.289  11.624 -1.2942  1.7483  0.6503
36309SOL     OW17704  10.735   1.674   3.336  0.2233 -0.5878 -0.5168
36309SOL    HW117705  10.702   1.606   3.396 -2.3646 -0.7877 -2.0290
36309SOL    HW217706  10.738   1.632   3.251 -1.1349  1.0467 -1.4398
36310SOL     OW17707   3.965   5.628   3.573  0.5353  0.6030  0.5086
36310SOL    HW117708   3.882   5.608   3.617  0.4603  0.2427  0.2183
36310SOL    HW217709   3.974   5.723   3.579 -0.5588  0.8056 -0.5950
36311SOL     OW17710   5.141   8.239   4.620 -0.8714  0.7742  0.1057
36311SOL    HW117711   5.173   8.324   4.652  1.0200  0.5640 -1.1003
36311SOL    HW217712   5.091   8.261   4.542 -0.3156  0.7995 -0.2522
36312SOL     OW17713  10.399   8.830   7.140  0.1007  0.5332  0.0889
36312SOL    HW117714  10.447   8.901   7.182 -1.6198  1.0845  1.2262
36312SOL    HW217715  10.338   8.874   7.080 -0.8770  0.0409  0.6875
36313SOL     OW17716   2.161   2.405   0.106  0.0233  0.0761  0.3102
36313SOL    HW117717   2.095   2.420   0.173 -1.0043  1.0747 -0.8680
36313SOL    HW217718   2.234   2.363   0.152 -2.1715 -2.9358  1.3055
36314SOL     OW17719  12.158   3.843   9.447 -0.0429 -0.2271  0.0041
36314SOL    HW117720  12.168   3.854   9.542  0.0660 -0.6356  0.0423
36314SOL    HW217721  12.141   3.931   9.414 -0.0969 -0.0841  0.4059
36315SOL     OW17722   6.989   9.297  10.340 -0.0267 -0.1358  0.3798
36315SOL    HW117723   7.045   9.340  10.275  0.4775 -0.5833  0.5091
36315SOL    HW217724   6.996   9.204  10.320  0.6214 -0.3357  1.4401
36316SOL     OW17725   4.908  11.028   8.046  0.1615 -0.1517  0.2603
36316SOL    HW117726   4.961  10.978   8.108 -0.6227 -2.3166 -0.7378
36316SOL    HW217727   4.847  11.077   8.102  0.4914 -0.8376  1.2554
36317SOL     OW17728   2.463   1.410   3.292  0.5031 -0.4474 -0.5048
36317SOL    HW117729   2.460   1.327   3.245 -0.2057 -0.2195 -0.8681
36317SOL    HW217730   2.530   1.461   3.246 -1.3497  0.4275 -2.4105
36318SOL     OW17731   7.350   1.972   1.761 -0.0322 -0.9053 -0.1571
36318SOL    HW117732   7.377   2.029   1.690 -2.8864 -0.2744 -0.8896
36318SOL    HW217733   7.331   2.031   1.834 -1.4239 -1.0280 -0.3863
36319SOL     OW17734   6.489   0.588   2.431  0.2611  0.2098  0.3887
36319SOL    HW117735   6.448   0.633   2.505  0.0625 -0.3836  0.6409
36319SOL    HW217736   6.430   0.606   2.358 -1.3358 -1.9185  1.0593
36320SOL     OW17737  10.162   8.416  12.395 -0.1870 -0.5657 -0.0814
36320SOL    HW117738  10.155   8.476  12.321 -1.0581 -0.2464  0.2467
36320SOL    HW217739  10.071   8.397  12.419 -0.0139  1.3881  2.5451
36321SOL     OW17740   1.109   1.300   0.913  0.0974 -0.1767 -0.2855
36321SOL    HW117741   1.062   1.222   0.944 -0.1037  0.3917  0.9116
36321SOL    HW217742   1.103   1.295   0.818  1.1804 -2.2830 -0.3010
36322SOL     OW17743   4.480   1.075  10.939 -0.3831 -0.1361 -0.3221
36322SOL    HW117744   4.400   1.092  10.890 -1.4851  0.0674  1.4575
36322SOL    HW217745   4.505   1.161  10.975 -0.5287 -0.5381  0.7781
36323SOL     OW17746   0.630   4.680   8.359 -0.6188 -0.4312 -0.7639
36323SOL    HW117747   0.568   4.724   8.301  1.5752  3.1877 -0.6477
36323SOL    HW217748   0.669   4.611   8.304 -2.7193 -1.0298 -1.6304
36324SOL     OW17749   2.838  10.875   7.927  0.6691  0.4722  0.1528
36324SOL    HW117750   2.929  10.903   7.925  0.7116  0.3892 -2.3025
36324SOL    HW217751   2.842  10.785   7.961  1.3995  0.7339  0.7917
36325SOL     OW17752  11.170   6.893   8.289 -0.2682 -0.0968  0.6980
36325SOL    HW117753  11.218   6.838   8.351 -0.2501  0.1193  0.8771
36325SOL    HW217754  11.085   6.907   8.330 -0.0920  0.4349  0.8989
36326SOL     OW17755  10.481   2.216   2.510  0.4430 -0.1479  0.0520
36326SOL    HW117756  10.386   2.227   2.509  0.4101 -0.4540 -1.1302
36326SOL    HW217757  10.515   2.300   2.542 -0.1865  0.2481 -0.3167
36327SOL     OW17758   9.218   4.384   2.656 -0.1282  0.4167 -0.0194
36327SOL    HW117759   9.203   4.478   2.653 -0.2391  0.3583 -1.9583
36327SOL    HW217760   9.168   4.348   2.583 -1.5077 -1.3921  1.6921
36328SOL     OW17761   0.513  12.288   8.411 -0.5522  0.3295 -0.1798
36328SOL    HW117762   0.584  12.341   8.446 -0.4709  0.4010 -0.4510
36328SOL    HW217763   0.464  12.346   8.353  0.1352 -0.1429 -1.2721
36329SOL     OW17764   4.586   0.578   5.230  0.3380 -0.1050  0.0536
36329SOL    HW117765   4.559   0.670   5.226  0.2676 -0.1361 -0.2488
36329SOL    HW217766   4.504   0.529   5.227  0.4138 -0.2621 -3.0215
36330SOL     OW17767   5.826   7.515   4.284  0.9032  0.1597  0.0670
36330SOL    HW117768   5.909   7.513   4.331  1.0806  2.7490  0.0373
36330SOL    HW217769   5.844   7.569   4.206 -1.4706  3.8428  1.7748
36331SOL     OW17770  11.805   1.575   8.208  0.2748 -0.1949 -0.1367
36331SOL    HW117771  11.737   1.540   8.265  1.1523 -0.1831  0.9523
36331SOL    HW217772  11.866   1.503   8.196 -0.2181 -0.4013 -1.6265
36332SOL     OW17773   4.502   9.628   8.702 -0.2797 -0.2178  0.5981
36332SOL    HW117774   4.494   9.702   8.761 -1.0461 -0.1667  0.4460
36332SOL    HW217775   4.520   9.553   8.759  1.0096  0.1492  0.7092
36333SOL     OW17776  10.803   5.190   4.554  0.4650 -0.4386  0.8799
36333SOL    HW117777  10.858   5.114   4.575  1.2052  0.6050  3.0333
36333SOL    HW217778  10.858   5.245   4.498  0.4788 -0.7752  0.5554
36334SOL     OW17779   5.942   1.267  11.577  0.4569  0.0522 -0.4724
36334SOL    HW117780   5.854   1.305  11.584  1.0686  1.6285 -0.7124
36334SOL    HW217781   5.942   1.223  11.493 -1.4485 -3.8873  1.3328
36335SOL     OW17782   9.303  10.334   6.023 -0.1103  1.0889  0.1355
36335SOL    HW117783   9.298  10.389   5.945  0.1914  0.3187 -0.4477
36335SOL    HW217784   9.245  10.260   6.005  0.1431  0.7809  0.5322
36336SOL     OW17785   8.372   4.544   1.013 -0.5345  0.1314  0.3303
36336SOL    HW117786   8.383   4.622   1.067 -0.1395 -0.7553  1.5862
36336SOL    HW217787   8.427   4.478   1.055 -1.8900 -1.2059  0.0944
36337SOL     OW17788  12.323   7.741   5.789 -0.0786 -0.3464 -0.3854
36337SOL    HW117789  12.410   7.719   5.822 -0.4048 -1.4287 -0.2079
36337SOL    HW217790  12.337   7.757   5.695  0.3637 -0.2073 -0.2978
36338SOL     OW17791  10.078   5.944   0.912  0.6586  0.8371  0.1491
36338SOL    HW117792  10.119   6.028   0.890 -0.2534  0.6538 -2.7283
36338SOL    HW217793  10.135   5.879   0.870 -1.0109  0.4021 -1.5798
36339SOL     OW17794   5.870   0.006   4.340  0.0598  0.3006 -0.3369
36339SOL    HW117795   5.876  -0.086   4.314  0.8728 -0.3823  2.0083
36339SOL    HW217796   5.829   0.003   4.427 -0.3984  2.2198 -0.4541
36340SOL     OW17797   4.739   9.761   4.770 -0.3187  0.5439  0.7412
36340SOL    HW117798   4.657   9.749   4.723  0.0623  0.2246  0.1377
36340SOL    HW217799   4.790   9.682   4.751  1.1480  1.8255 -1.0549
36341SOL     OW17800  11.802   0.716  11.276  0.6649  0.0995  0.0487
36341SOL    HW117801  11.723   0.769  11.282 -0.3615 -1.4353  0.7552
36341SOL    HW217802  11.773   0.633  11.237  1.5731 -1.0732  1.7170
36342SOL     OW17803   7.744   6.131   3.846 -0.2584  0.1677  0.2438
36342SOL    HW117804   7.777   6.056   3.797 -0.1826 -0.2261  0.8792
36342SOL    HW217805   7.722   6.095   3.932  1.6636  1.2298  1.2548
36343SOL     OW17806   2.140   3.458   4.126  0.2099  0.3463 -0.4765
36343SOL    HW117807   2.098   3.481   4.043  2.4120  0.5838 -1.6015
36343SOL    HW217808   2.187   3.377   4.107  0.6164  0.3122  0.6089
36344SOL     OW17809   1.337   6.815   2.324  0.1490  0.0992 -0.3458
36344SOL    HW117810   1.252   6.794   2.362  1.4276 -1.6084  1.7866
36344SOL    HW217811   1.331   6.908   2.303 -1.5203  0.5468  1.7693
36345SOL     OW17812   1.868  12.032  10.501 -0.4023 -0.0400 -0.9504
36345SOL    HW117813   1.867  12.122  10.467 -2.7438 -0.6122 -2.6813
36345SOL    HW217814   1.811  11.983  10.441  0.3235 -2.5767  0.2788
36346SOL     OW17815  10.174   8.565  12.166  0.2707 -0.3049  0.1588
36346SOL    HW117816  10.203   8.595  12.080  0.0147 -0.5268 -0.0078
36346SOL    HW217817  10.190   8.639  12.224  3.0779 -1.0870  0.5001
36347SOL     OW17818  12.468  10.262   6.888 -0.2160  0.1366 -0.6677
36347SOL    HW117819  12.555  10.245   6.925 -0.8897 -0.9422  0.5150
36347SOL    HW217820  12.439  10.176   6.855 -1.5141  0.0867  0.5205
36348SOL     OW17821   2.232   3.980  12.571 -0.2457 -0.7610 -0.6590
36348SOL    HW117822   2.251   4.062  12.617 -0.9945 -0.1219 -1.4682
36348SOL    HW217823   2.311   3.926  12.585 -0.1134 -0.2734  0.6417
36349SOL     OW17824   9.759   6.872   4.465 -0.4339 -0.1779 -0.5968
36349SOL    HW117825   9.763   6.925   4.545  2.0931 -1.8667  0.5567
36349SOL    HW217826   9.826   6.910   4.408 -0.8042 -0.2320 -1.0714
36350SOL     OW17827  12.258   8.221   9.342  0.0904 -0.5978 -0.0354
36350SOL    HW117828  12.202   8.298   9.330 -1.4179 -1.5353  0.5844
36350SOL    HW217829  12.247   8.198   9.434  2.8299  0.1143  0.5488
36351SOL     OW17830   2.677   8.004   1.558  0.3448 -0.2110  0.1990
36351SOL    HW117831   2.581   8.006   1.560  0.3713  1.2742  0.7005
36351SOL    HW217832   2.700   8.030   1.469  0.2987 -0.9000 -0.0255
36352SOL     OW17833   6.369  12.011  10.634 -0.5012 -0.1148  0.7467
36352SOL    HW117834   6.416  11.976  10.559 -0.6036  2.1716 -0.5005
36352SOL    HW217835   6.288  11.961  10.638 -0.1416 -0.7886 -0.1801
36353SOL     OW17836   7.953  10.192   2.315 -0.2146 -0.3146 -0.3683
36353SOL    HW117837   7.960  10.178   2.409 -0.1063 -0.4546 -0.3956
36353SOL    HW217838   7.901  10.118   2.283  0.5523 -0.7943 -0.5468
36354SOL     OW17839  12.365   7.430   3.139  0.1502  0.2010 -0.2465
36354SOL    HW117840  12.326   7.361   3.193  0.9676 -0.2674 -0.2336
36354SOL    HW217841  12.290   7.482   3.108 -0.3956 -0.0443  0.6198
36355SOL     OW17842   7.452   9.243   0.021 -0.5313  0.2308 -0.1370
36355SOL    HW117843   7.542   9.230   0.052 -0.7517 -0.6359  0.1545
36355SOL    HW217844   7.452   9.211  -0.069 -0.6919 -0.3524  0.0655
36356SOL     OW17845  11.761  12.539   9.172 -0.2267  0.2406  0.3292
36356SOL    HW117846  11.829  12.474   9.156 -0.3054 -0.0036  0.9674
36356SOL    HW217847  11.789  12.615   9.121 -0.2218 -0.3376 -0.5529
36357SOL     OW17848   7.641   0.214   5.417 -0.0955 -0.0851 -0.4410
36357SOL    HW117849   7.597   0.275   5.476 -0.0489 -0.6749  0.2154
36357SOL    HW217850   7.609   0.238   5.330  0.4504  1.3324 -0.2887
36358SOL     OW17851  11.868   2.121  11.105  0.5626  0.4929 -0.2874
36358SOL    HW117852  11.831   2.147  11.021 -0.0330 -0.8568 -0.4753
36358SOL    HW217853  11.798   2.070  11.147  1.4128 -0.2047  0.3239
36359SOL     OW17854  10.446  11.190  11.036  0.3019  0.3769  0.5214
36359SOL    HW117855  10.499  11.110  11.036  0.5352  0.5279  0.1425
36359SOL    HW217856  10.371  11.169  11.091 -1.7045 -1.4977 -2.6170
36360SOL     OW17857   3.144   3.847   1.257  0.3814 -0.4106  0.0573
36360SOL    HW117858   3.144   3.876   1.348  0.1795 -1.3433  0.3695
36360SOL    HW217859   3.199   3.910   1.211 -0.0497  0.4422  0.6987
36361SOL     OW17860   0.026   1.628   6.978 -0.2035 -0.4045 -0.0461
36361SOL    HW117861   0.012   1.722   6.984 -1.2584 -0.6129  1.4076
36361SOL    HW217862   0.026   1.598   7.069  3.8921 -1.3492 -0.1835
36362SOL     OW17863   3.072  10.538  12.438 -0.4090 -0.2035  0.1024
36362SOL    HW117864   3.084  10.584  12.520 -0.5522 -2.3769  1.4234
36362SOL    HW217865   3.150  10.558  12.387 -0.9450  2.2872  0.1450
36363SOL     OW17866  12.400   7.712   9.960  0.6405  0.3945 -0.5734
36363SOL    HW117867  12.402   7.628   9.913  0.9982 -0.5261  1.0125
36363SOL    HW217868  12.477   7.709  10.017 -0.7144  0.6828  1.3527
36364SOL     OW17869   2.064  10.067   8.470  0.7916 -0.7594  0.2472
36364SOL    HW117870   2.135  10.011   8.500  2.4681  0.5822 -1.0382
36364SOL    HW217871   2.100  10.156   8.472  0.0966 -0.2893 -2.9107
36365SOL     OW17872   3.680   0.019   1.719 -0.4058 -0.2451  0.1213
36365SOL    HW117873   3.750  -0.003   1.658 -1.2908 -3.2233  0.0207
36365SOL    HW217874   3.713  -0.009   1.804 -0.8537 -0.1761  0.3185
36366SOL     OW17875   5.286   7.731  10.927 -0.3925 -0.0379  0.5182
36366SOL    HW117876   5.327   7.753  11.011 -1.1405  1.7912  0.4460
36366SOL    HW217877   5.192   7.740  10.942 -0.5965 -0.6511 -0.2835
36367SOL     OW17878   8.454   6.596   0.567 -0.2229  0.1570  0.8814
36367SOL    HW117879   8.423   6.523   0.514  1.0519  0.4041 -0.2583
36367SOL    HW217880   8.549   6.597   0.555 -0.0478  1.0932  2.0672
36368SOL     OW17881   3.778   0.980   6.081  0.3055 -0.6398  0.1000
36368SOL    HW117882   3.721   0.928   6.025  2.4430 -3.3309  0.2228
36368SOL    HW217883   3.735   0.978   6.167 -0.1421 -1.3851 -0.1302
36369SOL     OW17884   5.149  12.011   5.448  0.0994  0.2143 -0.3006
36369SOL    HW117885   5.093  11.942   5.413 -0.3260  0.3162  0.1778
36369SOL    HW217886   5.098  12.091   5.438  0.4775  0.4233 -0.5896
36370SOL     OW17887   2.771   1.115   5.152 -0.0341  0.6146 -0.0790
36370SOL    HW117888   2.718   1.191   5.129  1.0788  1.2053 -0.7855
36370SOL    HW217889   2.759   1.053   5.081  1.0827  1.2239 -0.8360
36371SOL     OW17890   1.062   7.171  10.433 -0.2942  0.1846 -0.2074
36371SOL    HW117891   1.004   7.135  10.500  0.3801  0.2216  0.4118
36371SOL    HW217892   1.014   7.247  10.399 -0.8445 -0.1066 -0.1020
36372SOL     OW17893   8.964   3.916  11.663  0.0813 -0.1239 -0.7466
36372SOL    HW117894   9.041   3.948  11.709  0.6340 -2.3674  0.0165
36372SOL    HW217895   8.941   3.834  11.707 -1.7981 -0.3279 -1.9558
36373SOL     OW17896   9.271  10.846   9.283  0.3737  0.3545  0.0882
36373SOL    HW117897   9.353  10.872   9.240  0.0962  0.3422 -0.4543
36373SOL    HW217898   9.216  10.924   9.280  0.4375  0.4236  0.6347
36374SOL     OW17899   6.987   0.010   0.582 -0.4051 -0.3044 -0.0192
36374SOL    HW117900   7.058  -0.048   0.555  0.6213  1.3385 -0.9870
36374SOL    HW217901   6.977  -0.007   0.676  0.8371 -1.0244  0.0072
36375SOL     OW17902   2.731   0.933   5.981 -0.3830  0.4303  0.2636
36375SOL    HW117903   2.808   0.983   5.956 -1.0746  1.5365  0.2602
36375SOL    HW217904   2.764   0.865   6.040  0.6547  0.5560 -0.1562
36376SOL     OW17905   1.530   5.567   5.672 -0.0343  0.5396  0.8964
36376SOL    HW117906   1.473   5.489   5.667  1.2640 -0.4362  0.7959
36376SOL    HW217907   1.535   5.587   5.766  0.9565 -0.5430  1.0967
36377SOL     OW17908   0.618  10.849   9.143 -0.1088 -0.1544  0.1183
36377SOL    HW117909   0.589  10.767   9.104  1.0916  0.1295 -1.4868
36377SOL    HW217910   0.593  10.916   9.080 -2.4734  0.9935  2.1105
36378SOL     OW17911   4.123  11.408   9.084  0.0333  0.1027  0.7517
36378SOL    HW117912   4.081  11.432   9.167  0.6115 -0.5966  1.2656
36378SOL    HW217913   4.064  11.441   9.017 -1.7239 -1.4142  1.4395
36379SOL     OW17914   9.391   6.908   1.429  0.3767 -0.4530 -0.1742
36379SOL    HW117915   9.425   6.991   1.395 -0.2064  0.4436  1.3169
36379SOL    HW217916   9.463   6.872   1.481  0.3598 -0.4802 -0.1687
36380SOL     OW17917   1.910   6.028   2.239 -0.4592 -0.5103 -0.1859
36380SOL    HW117918   1.911   5.933   2.238 -0.6479 -0.5322  0.8487
36380SOL    HW217919   1.819   6.051   2.261 -0.2835 -0.1055  0.1375
36381SOL     OW17920   5.370  12.527   5.730  0.2055  0.2162  0.2428
36381SOL    HW117921   5.385  12.557   5.641  0.7357  0.2984  0.3564
36381SOL    HW217922   5.294  12.469   5.724 -0.7497  1.4634  0.0035
36382SOL     OW17923  11.058   9.289   4.656 -0.4129 -0.7600  0.0376
36382SOL    HW117924  11.010   9.211   4.628  1.9206 -2.0114 -0.7890
36382SOL    HW217925  11.133   9.255   4.704  1.2722  0.8796 -1.2619
36383SOL     OW17926   7.413  12.572   5.958  0.0618 -0.0535 -0.1003
36383SOL    HW117927   7.425  12.644   6.021 -1.1069 -0.4460  0.6100
36383SOL    HW217928   7.452  12.496   6.001  1.5231  0.1737 -0.9587
36384SOL     OW17929  11.470   2.856   4.089  0.6542 -0.5315 -0.4351
36384SOL    HW117930  11.509   2.770   4.106  0.8170 -0.6833 -1.5054
36384SOL    HW217931  11.458   2.894   4.176  1.8736 -1.0577 -0.0130
36385SOL     OW17932  11.894   5.051   1.530  0.3442 -0.0980  0.2719
36385SOL    HW117933  11.982   5.038   1.565 -0.6405 -4.3566  1.7717
36385SOL    HW217934  11.898   5.019   1.440  0.6112  1.2651 -0.2279
36386SOL     OW17935   9.439   4.107   2.180 -0.3120  0.0739  0.0970
36386SOL    HW117936   9.427   4.153   2.263 -1.4181  0.7018 -0.3859
36386SOL    HW217937   9.534   4.104   2.168 -0.1283 -0.0860  1.4030
36387SOL     OW17938   5.263  10.758  12.451 -0.3853  0.3236 -1.0647
36387SOL    HW117939   5.254  10.669  12.487  1.3207  0.8678  0.8432
36387SOL    HW217940   5.203  10.759  12.376 -2.3576 -1.6342  0.3578
36388SOL     OW17941  11.713   2.269   4.497  0.2459  0.0814  0.3060
36388SOL    HW117942  11.796   2.236   4.530  0.9359  0.5025 -0.9164
36388SOL    HW217943  11.705   2.356   4.536  0.5454  0.1706  0.1734
36389SOL     OW17944   1.591   8.629   4.341  0.5427  0.0800  0.1807
36389SOL    HW117945   1.680   8.602   4.320  0.6441  0.6521 -0.1420
36389SOL    HW217946   1.585   8.720   4.312 -0.4390 -0.2335 -0.6667
36390SOL     OW17947   7.551   4.260   8.017 -0.1206  0.6213  0.3361
36390SOL    HW117948   7.555   4.213   7.934 -1.4726  1.4517 -0.2270
36390SOL    HW217949   7.643   4.280   8.038  0.2004  0.8663 -1.2227
36391SOL     OW17950   9.732  12.397   2.552  0.4688 -0.0066 -0.3551
36391SOL    HW117951   9.680  12.478   2.548  0.3980 -0.1046 -2.4829
36391SOL    HW217952   9.667  12.327   2.547  0.6166 -0.1984  0.2922
36392SOL     OW17953   0.340   5.292   3.020 -0.5523 -0.1779  0.2251
36392SOL    HW117954   0.369   5.377   2.988 -0.9972  0.4971  1.5427
36392SOL    HW217955   0.303   5.248   2.943  0.6783  0.3669 -0.6986
36393SOL     OW17956   0.471  10.251  11.654 -0.7601 -0.1116 -0.1593
36393SOL    HW117957   0.507  10.163  11.644 -0.0286  0.0373  0.9348
36393SOL    HW217958   0.381  10.237  11.682 -0.2850 -0.5417  1.2310
36394SOL     OW17959   3.315   8.013   8.042 -0.4084  0.5249  0.4537
36394SOL    HW117960   3.296   8.010   8.135 -0.6678 -1.3833  0.3828
36394SOL    HW217961   3.395   7.962   8.031  0.7743  2.4369 -0.1451
36395SOL     OW17962   9.840   4.028   5.247  0.2694  0.6105  0.2699
36395SOL    HW117963   9.876   4.106   5.204  0.4055  0.5914  0.3480
36395SOL    HW217964   9.880   4.028   5.334  0.9500 -0.0206 -0.0288
36396SOL     OW17965   3.488   7.747   6.475 -0.4044  0.7573  0.2693
36396SOL    HW117966   3.408   7.694   6.477  0.6169 -1.0935 -2.3543
36396SOL    HW217967   3.509   7.761   6.567 -1.4026 -2.4476  1.1255
36397SOL     OW17968   1.132   1.592   7.407  0.7990 -0.2206  0.0430
36397SOL    HW117969   1.098   1.516   7.453 -0.1024  1.1556  1.7859
36397SOL    HW217970   1.133   1.566   7.315 -0.0609 -2.1003  0.5125
36398SOL     OW17971  12.248   7.158   3.640  0.1770  0.4174  0.3990
36398SOL    HW117972  12.195   7.099   3.587  1.2548  0.7846 -1.1577
36398SOL    HW217973  12.184   7.213   3.685 -0.7835 -0.2246 -0.1375
36399SOL     OW17974   6.046  10.935   6.639 -0.2545 -0.1693 -0.1628
36399SOL    HW117975   6.008  11.015   6.675  1.5373  0.7977 -0.3137
36399SOL    HW217976   6.064  10.957   6.547  1.9632 -0.0645  0.2567
36400SOL     OW17977   7.410   0.179   4.331  0.4063  0.0767 -0.0301
36400SOL    HW117978   7.462   0.205   4.407 -1.9196 -0.3512  1.8526
36400SOL    HW217979   7.319   0.191   4.359 -0.5713 -0.2699 -2.7208
36401SOL     OW17980   6.915   3.717   3.069  0.4880  0.4965 -0.2212
36401SOL    HW117981   6.983   3.649   3.071  0.6869  0.5202  4.2853
36401SOL    HW217982   6.959   3.793   3.030  2.1207 -0.3231 -0.0751
36402SOL     OW17983   5.789  11.744   6.794  0.1276  0.1327 -0.4604
36402SOL    HW117984   5.793  11.815   6.858 -0.3986 -0.6873  0.5134
36402SOL    HW217985   5.880  11.714   6.786  0.2833  0.6258 -0.5398
36403SOL     OW17986   2.717   5.275   3.260  0.0925 -0.4721  0.4019
36403SOL    HW117987   2.776   5.209   3.297 -0.1824 -1.2263 -0.4837
36403SOL    HW217988   2.649   5.224   3.215  0.7824  0.3927 -1.7292
36404SOL     OW17989   7.192   1.611   1.777 -0.3024  0.4691 -0.3181
36404SOL    HW117990   7.249   1.546   1.819  0.8814  1.5819 -0.1210
36404SOL    HW217991   7.253   1.673   1.735 -1.4210  0.0152 -2.7860
36405SOL     OW17992   5.325   3.882  10.663  0.1117 -0.2765  0.1429
36405SOL    HW117993   5.343   3.790  10.645 -1.3391 -0.6128  0.2374
36405SOL    HW217994   5.234   3.894  10.635  0.3657  1.1958 -0.1060
36406SOL     OW17995   7.574  10.980   9.167 -0.1587 -0.2839  0.4240
36406SOL    HW117996   7.518  11.014   9.237 -0.0644 -1.0697  0.9014
36406SOL    HW217997   7.659  11.020   9.182 -0.6489  1.1718 -0.4958
36407SOL     OW17998   9.242   5.197   5.736 -0.3725  0.2989  0.5522
36407SOL    HW117999   9.199   5.241   5.662  1.2487  2.8626  0.9998
36407SOL    HW218000   9.218   5.249   5.812  2.8975  1.5555  0.8994
36408SOL     OW18001   0.206   9.541  10.400  0.2346  0.0052  0.5113
36408SOL    HW118002   0.287   9.507  10.439  0.5549 -0.6358 -0.6430
36408SOL    HW218003   0.178   9.471  10.340  0.8839  1.6925 -1.9227
36409SOL     OW18004  10.579   9.741   1.374 -0.2974 -0.0472 -0.0207
36409SOL    HW118005  10.653   9.724   1.432 -0.1327  2.1268  0.4899
36409SOL    HW218006  10.617   9.744   1.286 -0.2474 -1.5043 -0.0760
36410SOL     OW18007   6.892   1.364   7.127  0.2044  0.0258 -0.4441
36410SOL    HW118008   6.978   1.353   7.086  0.2139 -0.7815 -0.2280
36410SOL    HW218009   6.890   1.455   7.155  1.1032 -0.0183 -0.2005
36411SOL     OW18010   9.907   4.439  11.086 -0.4129 -0.0139  0.6472
36411SOL    HW118011   9.835   4.382  11.114  0.0956 -0.6689  0.6393
36411SOL    HW218012   9.983   4.407  11.135 -0.3410  1.3894  1.5117
36412SOL     OW18013   2.374   2.398   3.908  0.0305  0.4250  0.0587
36412SOL    HW118014   2.290   2.376   3.948 -0.5122  3.3288  0.7832
36412SOL    HW218015   2.354   2.409   3.815  0.1187 -1.0060 -0.1476
36413SOL     OW18016  11.282   4.614   1.858 -0.5149  0.3425  0.0308
36413SOL    HW118017  11.227   4.545   1.822 -0.8748  0.3541  0.5450
36413SOL    HW218018  11.367   4.603   1.814 -1.1427  0.8206 -1.3418
36414SOL     OW18019  11.628   0.660   6.751 -0.4701 -0.5994 -1.0137
36414SOL    HW118020  11.562   0.688   6.815 -0.7799 -0.0271 -1.5703
36414SOL    HW218021  11.578   0.626   6.677 -0.1069 -1.6736 -0.7865
36415SOL     OW18022   7.341   4.786   4.647 -0.2573  0.0950 -0.6452
36415SOL    HW118023   7.384   4.817   4.727  0.2739  1.5310 -1.4281
36415SOL    HW218024   7.382   4.838   4.578 -1.1434 -0.6793 -1.7779
36416SOL     OW18025  11.757   9.795   9.232 -0.1720  0.2754 -0.0439
36416SOL    HW118026  11.786   9.854   9.302 -1.3451  1.0657 -0.2006
36416SOL    HW218027  11.668   9.824   9.211 -0.3473 -0.8320 -0.9219
36417SOL     OW18028  10.817   5.489   2.072 -0.1910 -0.5639  0.4980
36417SOL    HW118029  10.800   5.395   2.065  1.7513 -1.0410  1.4365
36417SOL    HW218030  10.731   5.528   2.088 -1.2326 -2.0009 -1.2207
36418SOL     OW18031   8.592   0.885   6.104 -0.9024 -0.0373 -0.2102
36418SOL    HW118032   8.592   0.812   6.167 -3.1874 -1.3591 -1.5872
36418SOL    HW218033   8.599   0.843   6.019 -2.1775  1.3432 -1.0474
36419SOL     OW18034   1.214   4.636   6.897  0.3831 -0.2631  0.5859
36419SOL    HW118035   1.147   4.696   6.867  0.3700  0.1011  1.3297
36419SOL    HW218036   1.224   4.573   6.825  0.4519  0.6580 -0.2345
36420SOL     OW18037   0.050   9.734  10.490 -0.2467  0.3944  0.1130
36420SOL    HW118038   0.110   9.664  10.465 -0.8393 -1.4843  3.2846
36420SOL    HW218039  -0.034   9.708  10.453  0.0954  1.0783 -1.2121
36421SOL     OW18040   7.771   5.838   9.267  0.5580 -0.0507  0.0938
36421SOL    HW118041   7.774   5.805   9.357 -0.7687 -0.9863 -0.1709
36421SOL    HW218042   7.860   5.827   9.234  1.5971  2.1597  1.8797
36422SOL     OW18043  10.383  11.762   4.846 -0.1925  0.4009 -0.4955
36422SOL    HW118044  10.307  11.806   4.885  0.1780  0.5179  0.1178
36422SOL    HW218045  10.354  11.672   4.833 -0.8400  0.7273 -1.4215
36423SOL     OW18046   4.210   3.635   3.904 -0.1526  0.0219  0.1647
36423SOL    HW118047   4.274   3.703   3.924  1.0003 -1.2190  0.8204
36423SOL    HW218048   4.254   3.579   3.840 -1.7113  0.7836 -1.6582
36424SOL     OW18049   5.036  11.927   1.559  0.3288 -0.1485 -0.3023
36424SOL    HW118050   5.012  11.947   1.469 -1.8569  0.4386  0.3517
36424SOL    HW218051   5.045  12.013   1.601 -0.3059 -0.4158  0.4066
36425SOL     OW18052   6.579   5.296   4.781  0.2651 -0.1172  0.2388
36425SOL    HW118053   6.621   5.302   4.867  0.9080 -0.9653 -0.0107
36425SOL    HW218054   6.641   5.338   4.721  0.0091  0.0942  0.1184
36426SOL     OW18055   2.979   4.888   3.584 -0.6534  0.3287  0.3574
36426SOL    HW118056   3.074   4.900   3.586 -0.2221 -1.7505  4.6081
36426SOL    HW218057   2.949   4.924   3.667 -3.5273  0.2587 -0.5524
36427SOL     OW18058   2.204  11.631   9.361  1.2088  0.2833 -0.3309
36427SOL    HW118059   2.160  11.600   9.282  0.7291  0.9882 -0.3528
36427SOL    HW218060   2.151  11.596   9.433  2.2555 -1.2579 -0.2775
36428SOL     OW18061   2.674   0.695   3.796 -0.0022  0.2569 -0.1990
36428SOL    HW118062   2.723   0.622   3.759 -0.3331  0.1033 -0.3436
36428SOL    HW218063   2.724   0.722   3.872  1.2258  1.2187 -1.3064
36429SOL     OW18064   2.777  12.497  10.971 -0.0748 -0.4798 -0.1632
36429SOL    HW118065   2.723  12.556  11.025 -0.9239 -1.1070 -0.2995
36429SOL    HW218066   2.854  12.549  10.949 -1.8136  1.4516 -2.2158
36430SOL     OW18067   0.631   5.190   9.634 -0.1756 -0.1973  0.5864
36430SOL    HW118068   0.598   5.154   9.717  0.1690 -1.0749  0.3484
36430SOL    HW218069   0.559   5.179   9.572  0.3217 -1.5648  0.2196
36431SOL     OW18070   3.443  12.274   5.817 -0.3245  0.4370 -0.0512
36431SOL    HW118071   3.530  12.306   5.840 -0.4079 -0.7099  2.1065
36431SOL    HW218072   3.446  12.265   5.721  2.4687 -1.0150  0.0505
36432SOL     OW18073  10.768   1.635   4.617 -0.1886  0.1503 -0.2732
36432SOL    HW118074  10.787   1.722   4.653 -2.6304  0.3505  0.7110
36432SOL    HW218075  10.726   1.653   4.533 -2.4658  0.0951  0.7726
36433SOL     OW18076   3.498   5.548   1.980 -0.4109  0.5478 -0.0356
36433SOL    HW118077   3.431   5.492   1.940 -0.9266  0.3784  1.0316
36433SOL    HW218078   3.525   5.607   1.909 -0.3262 -0.6018 -1.0014
36434SOL     OW18079   1.687   0.596   7.017  0.2722 -0.8339 -0.5534
36434SOL    HW118080   1.692   0.684   6.980  0.4297 -1.4012 -1.9692
36434SOL    HW218081   1.594   0.577   7.023  0.2384 -0.8525 -1.0275
36435SOL     OW18082   7.612   9.772   0.037  0.0245 -0.1788 -0.3253
36435SOL    HW118083   7.518   9.775   0.055 -0.0926 -0.0368 -0.9417
36435SOL    HW218084   7.653   9.779   0.123 -0.5234  0.3220 -0.0966
36436SOL     OW18085   4.689   7.148   2.610  0.0761 -0.5198  0.1220
36436SOL    HW118086   4.680   7.097   2.529 -1.7797 -0.0402 -0.0155
36436SOL    HW218087   4.757   7.213   2.590  0.1110 -0.8265 -0.8213
36437SOL     OW18088   1.293   9.811   4.692 -0.2941  0.2745 -0.1856
36437SOL    HW118089   1.208   9.855   4.701 -1.2725 -1.5501 -0.0257
36437SOL    HW218090   1.271   9.720   4.673  1.4309 -1.5113  4.8398
36438SOL     OW18091   5.398   1.572   0.375  0.0415 -0.4413  0.1506
36438SOL    HW118092   5.320   1.583   0.321  0.6457 -0.0869 -0.6622
36438SOL    HW218093   5.394   1.646   0.436 -0.8279 -1.0411  0.8488
36439SOL     OW18094   9.642   5.765   0.122 -0.3676  0.3994  0.0190
36439SOL    HW118095   9.574   5.730   0.064  0.7151 -0.9808 -0.4877
36439SOL    HW218096   9.642   5.706   0.198  2.3166 -1.6857 -1.3949
36440SOL     OW18097   0.703   3.107   3.322  0.5106 -0.4428  0.0845
36440SOL    HW118098   0.798   3.094   3.326  0.5826  0.2690  1.3870
36440SOL    HW218099   0.672   3.043   3.258  1.9044 -0.4602 -0.5957
36441SOL     OW18100  10.896   1.570   4.936  0.9001  0.9502 -0.0818
36441SOL    HW118101  10.906   1.665   4.937 -0.0750  1.0909 -1.1807
36441SOL    HW218102  10.822   1.554   4.877  2.4830 -0.5892 -1.8181
36442SOL     OW18103  10.396   4.128   4.764 -0.3248 -0.1251  0.0856
36442SOL    HW118104  10.383   4.033   4.762 -2.0001  0.0084  1.7290
36442SOL    HW218105  10.429   4.146   4.852  0.5491  0.7928 -0.4013
36443SOL     OW18106   7.454  10.223   2.638 -0.5763  0.1842 -0.3258
36443SOL    HW118107   7.407  10.298   2.674 -1.4165  0.1808 -1.3601
36443SOL    HW218108   7.544  10.254   2.627 -0.1564  0.0213  2.1766
36444SOL     OW18109   1.481   9.898   9.488  0.1988 -0.5753 -0.1122
36444SOL    HW118110   1.426   9.964   9.445 -0.1792  0.4507  1.8538
36444SOL    HW218111   1.571   9.928   9.473  0.0737 -0.2105 -0.1436
36445SOL     OW18112  10.791   0.765   4.156 -0.3281  0.8307 -0.2711
36445SOL    HW118113  10.770   0.812   4.075  0.3751 -0.8719 -1.5058
36445SOL    HW218114  10.826   0.681   4.127 -0.7044 -0.1248  1.8257
36446SOL     OW18115   5.240   4.941   2.656 -0.0406  0.2231 -0.2434
36446SOL    HW118116   5.239   5.031   2.689 -1.1033  0.2260 -0.2383
36446SOL    HW218117   5.276   4.889   2.728  0.5801  0.6405 -0.2458
36447SOL     OW18118   4.851  11.291   5.853  0.0545 -0.5017 -0.3193
36447SOL    HW118119   4.901  11.213   5.829  1.0134  0.3397 -1.1497
36447SOL    HW218120   4.845  11.342   5.772 -0.9093  0.0975  0.1110
36448SOL     OW18121   6.847   0.295   3.032  0.3717  0.3610 -0.8271
36448SOL    HW118122   6.824   0.370   3.087  1.9169 -0.5575  1.2108
36448SOL    HW218123   6.789   0.226   3.061  1.1700 -0.1220 -0.3496
36449SOL     OW18124   6.443  12.158   5.171  0.2945  0.2614 -0.5415
36449SOL    HW118125   6.388  12.236   5.182 -0.1872 -0.3173  1.4826
36449SOL    HW218126   6.442  12.116   5.256  3.5167 -0.0386 -0.5473
36450SOL     OW18127   5.991   6.552   5.968 -0.2110 -0.0886 -0.1310
36450SOL    HW118128   5.942   6.590   6.041  1.9929 -0.2527  1.5546
36450SOL    HW218129   6.029   6.472   6.005 -0.5797 -1.2264 -2.0758
36451SOL     OW18130   1.519   3.383   8.267 -0.0637 -0.2755  0.7425
36451SOL    HW118131   1.447   3.372   8.328  1.7960 -2.8383  2.6959
36451SOL    HW218132   1.562   3.464   8.293 -0.7592 -0.0459  1.1797
36452SOL     OW18133   9.946   3.027   6.132 -0.0684  0.1803 -0.5018
36452SOL    HW118134   9.975   2.937   6.116  0.3656  0.4385 -1.2194
36452SOL    HW218135   9.987   3.078   6.063  1.1660  1.2387  0.9553
36453SOL     OW18136   4.095   6.321   5.296 -0.3882 -0.4696 -0.5872
36453SOL    HW118137   4.150   6.292   5.223 -0.2512  0.3940 -0.8372
36453SOL    HW218138   4.147   6.302   5.374 -0.0258 -0.3007 -0.7831
36454SOL     OW18139   3.633   1.288   4.542  0.1407 -0.0163 -0.2875
36454SOL    HW118140   3.664   1.216   4.487 -0.7103  0.0848 -0.9237
36454SOL    HW218141   3.585   1.245   4.613  1.4038 -0.1562  0.5116
36455SOL     OW18142  11.657  12.081   2.296 -0.7500  0.0245 -0.0246
36455SOL    HW118143  11.569  12.047   2.312 -0.6929  1.1889  3.6281
36455SOL    HW218144  11.713  12.026   2.351  0.6192  0.3108 -1.0929
36456SOL     OW18145   6.263  11.564   0.389  0.3647 -0.3351 -0.0284
36456SOL    HW118146   6.337  11.507   0.410  0.4727 -0.3258 -0.3774
36456SOL    HW218147   6.271  11.637   0.451 -0.7287 -1.5025  1.5579
36457SOL     OW18148   6.599   7.827  12.347 -0.1047  0.0542 -0.0209
36457SOL    HW118149   6.535   7.757  12.335 -2.2879  1.9950 -0.5257
36457SOL    HW218150   6.581   7.888  12.275  2.6625  0.5091 -0.4359
36458SOL     OW18151  10.583   1.880   4.926  0.4467  0.3025 -0.0436
36458SOL    HW118152  10.569   1.973   4.906 -0.6593  0.0341 -0.5738
36458SOL    HW218153  10.558   1.872   5.018  0.2031  0.4667 -0.0931
36459SOL     OW18154   1.947   6.894   9.899  0.0107  0.4083  0.6718
36459SOL    HW118155   1.950   6.912   9.805  0.9791 -1.1113  0.3810
36459SOL    HW218156   2.006   6.958   9.937  2.7875 -1.4346 -0.2475
36460SOL     OW18157  11.503   7.493   5.254  0.0487 -0.5793  0.5814
36460SOL    HW118158  11.577   7.540   5.292 -1.0837  2.0868 -0.3105
36460SOL    HW218159  11.543   7.427   5.197  1.7328  0.7006  0.2353
36461SOL     OW18160   4.034   7.276   6.278 -0.1651 -0.6500 -0.2056
36461SOL    HW118161   4.096   7.264   6.206  0.1289 -0.4221  0.0056
36461SOL    HW218162   3.965   7.332   6.242 -0.2625 -0.9204 -0.4475
36462SOL     OW18163   5.573   2.202   7.753 -0.2105  0.3018 -0.2449
36462SOL    HW118164   5.604   2.284   7.714  0.4730  0.9451  1.5436
36462SOL    HW218165   5.479   2.202   7.736 -0.1359  1.1934 -0.7558
36463SOL     OW18166  10.852   1.778   8.032 -0.1106 -0.2752 -0.0230
36463SOL    HW118167  10.832   1.829   7.953 -0.3210  0.6188  0.5933
36463SOL    HW218168  10.932   1.731   8.009 -0.1355  0.0126 -0.7588
36464SOL     OW18169  11.547  10.386  12.000  0.0490  0.0881 -0.4085
36464SOL    HW118170  11.452  10.375  11.997  0.1016 -0.4023 -0.2901
36464SOL    HW218171  11.575  10.389  11.909 -0.2656  1.9562 -0.4946
36465SOL     OW18172   1.480   6.903   5.478 -0.1239 -0.0381  0.4444
36465SOL    HW118173   1.574   6.891   5.495  0.1069  0.5994 -0.3351
36465SOL    HW218174   1.470   6.997   5.465 -0.5433 -0.3030 -1.3441
36466SOL     OW18175  10.351   5.977   2.547  0.3704  0.3771  0.0755
36466SOL    HW118176  10.403   6.054   2.524 -2.5364  1.9273 -1.9278
36466SOL    HW218177  10.279   6.011   2.600  0.2464 -1.3893  1.1430
36467SOL     OW18178   1.152   8.163   3.652 -0.0387 -0.1856 -0.0240
36467SOL    HW118179   1.116   8.084   3.692  1.2059 -1.1614 -0.7667
36467SOL    HW218180   1.138   8.150   3.558  1.2460 -0.0824 -0.2396
36468SOL     OW18181   8.230   3.754   9.801 -0.8120 -0.2297 -0.3605
36468SOL    HW118182   8.189   3.684   9.851 -1.4595  1.9280  2.3264
36468SOL    HW218183   8.324   3.744   9.818 -0.9752  0.0527  0.7471
36469SOL     OW18184   3.967   7.208   9.233  0.0436 -0.1763 -0.3347
36469SOL    HW118185   3.939   7.293   9.268 -2.6344 -0.9867 -0.2789
36469SOL    HW218186   3.946   7.212   9.139  0.4406 -0.5797 -0.4475
36470SOL     OW18187   4.614   0.680   6.727  0.0781  0.0957  0.1512
36470SOL    HW118188   4.624   0.622   6.652  2.0744 -2.3185  2.1161
36470SOL    HW218189   4.542   0.642   6.777 -1.5446  1.9481 -0.6218
36471SOL     OW18190   7.587   7.630  11.251 -0.0398 -0.0895  0.3354
36471SOL    HW118191   7.499   7.650  11.219 -0.2437  0.9079  1.4548
36471SOL    HW218192   7.639   7.707  11.229  0.4465 -0.4692  0.1255
36472SOL     OW18193   1.552   6.798   5.776 -0.0507  0.1923 -0.1170
36472SOL    HW118194   1.633   6.784   5.727 -0.3040 -3.0736  0.1841
36472SOL    HW218195   1.482   6.772   5.716 -0.4516 -2.4051  1.3215
36473SOL     OW18196   0.314   1.254   0.692  0.7817  0.0789 -0.3141
36473SOL    HW118197   0.271   1.170   0.680  1.1789 -0.4501  1.6241
36473SOL    HW218198   0.242   1.316   0.705  0.5167 -0.6542  2.0679
36474SOL     OW18199  12.289   7.206  11.164 -0.6387 -0.5320  0.4888
36474SOL    HW118200  12.250   7.121  11.147 -1.8468 -0.5795  3.0433
36474SOL    HW218201  12.314   7.203  11.256 -0.2927  1.7166  0.5267
36475SOL     OW18202  11.519   8.227   6.190  0.2867 -0.4653 -1.0154
36475SOL    HW118203  11.548   8.170   6.261 -0.8612  1.6762  1.3243
36475SOL    HW218204  11.444   8.181   6.151  0.6446 -1.4737 -0.5417
36476SOL     OW18205   7.955   0.416   1.211  0.1177 -0.9695  0.0492
36476SOL    HW118206   7.883   0.360   1.182 -2.3328  0.4669  2.7713
36476SOL    HW218207   8.005   0.362   1.271 -0.3745 -1.1673  0.2869
36477SOL     OW18208   8.229  10.174   1.416  0.5666  0.4618 -0.7821
36477SOL    HW118209   8.154  10.167   1.357  0.9768 -0.4839 -1.2175
36477SOL    HW218210   8.245  10.084   1.444 -0.5621  1.0254  2.0058
36478SOL     OW18211   6.793  11.670   3.691 -0.2590  0.1365  0.5486
36478SOL    HW118212   6.806  11.731   3.764 -0.1059  1.1852 -0.3296
36478SOL    HW218213   6.700  11.678   3.669 -0.3367 -0.2860  0.7173
36479SOL     OW18214   9.786   4.707  10.930  0.4673 -0.2510 -0.2306
36479SOL    HW118215   9.825   4.774  10.875 -1.6494  1.2768 -0.0012
36479SOL    HW218216   9.729   4.657  10.871  1.5287 -1.4801 -0.2648
36480SOL     OW18217   9.563  11.228   7.373 -0.4661  0.3164 -0.2145
36480SOL    HW118218   9.600  11.164   7.435  0.2733  1.1093  0.1839
36480SOL    HW218219   9.501  11.278   7.425 -0.2389  0.6323 -0.2449
36481SOL     OW18220   0.680   9.369   1.946 -0.0150 -0.4064 -0.4204
36481SOL    HW118221   0.728   9.293   1.979 -1.3280 -0.6515  1.0246
36481SOL    HW218222   0.689   9.363   1.851 -0.0380 -2.3393 -0.3497
36482SOL     OW18223  11.504   1.745   7.869  0.1215  0.2773  0.6059
36482SOL    HW118224  11.523   1.837   7.888  0.1946  0.3618  0.1249
36482SOL    HW218225  11.590   1.705   7.855  0.1922 -0.1569  2.0891
36483SOL     OW18226   0.118   4.676   2.622 -0.0001 -0.1653 -0.0969
36483SOL    HW118227   0.036   4.665   2.669  0.8528 -0.3476  1.3893
36483SOL    HW218228   0.182   4.625   2.671  1.0182 -0.0100 -1.2114
36484SOL     OW18229   3.226   7.398   1.235  0.0936 -0.0445 -0.4508
36484SOL    HW118230   3.149   7.432   1.190  0.9737 -2.0094 -3.7533
36484SOL    HW218231   3.192   7.330   1.293 -0.7476 -0.4568 -1.3966
36485SOL     OW18232  12.518   1.041   3.947 -0.0002  0.0808  0.3095
36485SOL    HW118233  12.533   0.955   3.909 -0.1897  0.7393 -1.3502
36485SOL    HW218234  12.461   1.086   3.885  1.6518  2.0803  0.1184
36486SOL     OW18235   6.054  11.141   1.330  0.1156 -0.0546  0.2226
36486SOL    HW118236   5.990  11.195   1.376 -2.0203 -1.2795 -1.1091
36486SOL    HW218237   6.054  11.175   1.241  1.5166  0.0490  0.2456
36487SOL     OW18238   8.210   3.014  11.471 -0.5484 -0.3888  0.0836
36487SOL    HW118239   8.160   3.074  11.416 -0.1314  0.7099  0.8628
36487SOL    HW218240   8.243   2.948  11.410  0.3865  1.1135 -1.1162
36488SOL     OW18241   0.987   8.919   7.309  0.0138  0.0648  0.7958
36488SOL    HW118242   1.055   8.911   7.376  0.0301 -0.4537  0.7227
36488SOL    HW218243   0.974   8.829   7.277 -1.0960  0.0559  1.2009
36489SOL     OW18244   7.980   2.493   8.485  0.6756  0.5550 -0.3953
36489SOL    HW118245   7.909   2.485   8.422 -1.3176 -0.0921  1.7633
36489SOL    HW218246   8.054   2.448   8.445 -1.1127 -1.6414 -1.4563
36490SOL     OW18247   0.697  10.197   4.845 -0.2297  0.0599  0.3427
36490SOL    HW118248   0.732  10.269   4.896  0.2482  0.0090  0.0965
36490SOL    HW218249   0.739  10.205   4.759 -0.8336  0.0035  0.0328
36491SOL     OW18250   9.253   5.550   0.170 -0.0316  0.2842 -0.0259
36491SOL    HW118251   9.164   5.571   0.141 -0.4907 -0.5498  0.7335
36491SOL    HW218252   9.309   5.575   0.096 -1.0617 -0.8294 -1.2353
36492SOL     OW18253  11.134  11.025  11.348 -0.2085  0.6264 -0.0656
36492SOL    HW118254  11.095  11.102  11.389  2.0206  2.6419 -1.4935
36492SOL    HW218255  11.126  11.041  11.254  1.2021 -0.3848 -0.3911
36493SOL     OW18256   0.042   1.763   9.243 -0.4236 -0.6394  0.5054
36493SOL    HW118257   0.009   1.853   9.254  1.5945  0.2652 -0.2791
36493SOL    HW218258  -0.037   1.711   9.226 -1.6211  1.0525  0.5209
36494SOL     OW18259   6.078   8.313   5.838 -0.3989  0.2326 -0.6427
36494SOL    HW118260   6.150   8.367   5.871 -0.3232 -0.6585  0.7780
36494SOL    HW218261   6.014   8.375   5.805  0.3185  1.1118 -0.4255
36495SOL     OW18262   3.653   0.074   6.934  0.0060  0.4008  0.1194
36495SOL    HW118263   3.676   0.002   6.992 -0.4170 -1.0145 -1.3944
36495SOL    HW218264   3.684   0.046   6.848  2.5251  3.3261 -0.0926
36496SOL     OW18265   8.007   3.651   0.555  0.2988 -0.0814 -0.6751
36496SOL    HW118266   7.949   3.597   0.608 -1.4607  0.6821 -1.7249
36496SOL    HW218267   8.002   3.739   0.594  2.1710 -0.3402  0.2739
36497SOL     OW18268   1.027  11.671   9.199 -0.0372 -0.6132  0.2544
36497SOL    HW118269   1.003  11.755   9.161 -0.7135 -0.1498  1.6366
36497SOL    HW218270   0.993  11.606   9.137 -0.2163  0.1125 -0.4256
36498SOL     OW18271   8.876   8.812  12.351 -0.3964  0.4013  0.8292
36498SOL    HW118272   8.947   8.858  12.307 -0.4046  1.0242  1.4468
36498SOL    HW218273   8.866   8.858  12.435 -0.5919 -0.5533  1.3475
36499SOL     OW18274   5.998   5.040   7.350  0.7595 -0.3714  0.2351
36499SOL    HW118275   5.994   4.980   7.425 -0.5084 -0.2287  0.2967
36499SOL    HW218276   6.081   5.086   7.361  0.3363  0.0588  1.8854
36500SOL     OW18277   5.464   1.717   9.944  0.0776  0.4999  0.4721
36500SOL    HW118278   5.552   1.752   9.950  0.5604 -0.9092  5.0351
36500SOL    HW218279   5.476   1.630   9.904  0.4193  1.0806 -0.7261
36501SOL     OW18280   7.576   5.609   4.507 -0.2855  0.5278 -0.0813
36501SOL    HW118281   7.611   5.522   4.527  1.1531  1.2482  0.7008
36501SOL    HW218282   7.610   5.629   4.419  1.3101  1.1925  0.6443
36502SOL     OW18283   2.018   7.855   1.809  0.2008  0.3848  0.6045
36502SOL    HW118284   1.949   7.789   1.795  0.1853  0.7893 -1.6272
36502SOL    HW218285   2.011   7.912   1.733  2.1470  1.2354  1.0230
36503SOL     OW18286   7.507   4.694   9.856  0.0443 -0.3167  0.2006
36503SOL    HW118287   7.576   4.713   9.792 -0.1419 -3.2424 -1.0834
36503SOL    HW218288   7.428   4.735   9.819 -0.3810 -3.0971 -2.4416
36504SOL     OW18289  12.054   7.105  12.065 -0.4660  0.1393  0.3170
36504SOL    HW118290  12.020   7.186  12.105 -1.0916  1.3320 -2.3810
36504SOL    HW218291  12.098   7.135  11.986  1.6871 -1.9867  0.6268
36505SOL     OW18292   4.747   1.611   9.856  0.2369 -0.1614  0.1264
36505SOL    HW118293   4.664   1.582   9.819  0.2774 -1.0491  0.6997
36505SOL    HW218294   4.812   1.550   9.821  0.9940  1.6458 -1.8412
36506SOL     OW18295   3.637   1.302   8.043 -0.5338  0.0037 -0.2008
36506SOL    HW118296   3.710   1.259   7.998 -0.4618  0.3511 -0.4162
36506SOL    HW218297   3.578   1.231   8.067 -1.4999 -0.0226 -2.4766
36507SOL     OW18298   7.324   4.536   2.891 -0.9189  0.9399 -0.3174
36507SOL    HW118299   7.307   4.597   2.963  0.2811  0.7694  0.1328
36507SOL    HW218300   7.369   4.463   2.933 -1.7571  0.0337 -0.9659
36508SOL     OW18301   8.507   3.215   6.667  0.3998 -0.1441 -0.2835
36508SOL    HW118302   8.436   3.274   6.640 -0.0682 -1.3108 -1.7354
36508SOL    HW218303   8.584   3.272   6.675 -0.0797  0.7147 -1.4809
36509SOL     OW18304  12.255   2.129   0.016  0.2626  0.2133  0.0019
36509SOL    HW118305  12.258   2.100  -0.076  2.3883 -1.3408  0.4899
36509SOL    HW218306  12.207   2.212   0.013 -0.8738 -0.4250 -2.3212
36510SOL     OW18307   4.320   1.786   7.098 -1.0117  0.3146  0.3575
36510SOL    HW118308   4.234   1.768   7.136 -2.0210 -1.3862 -2.4445
36510SOL    HW218309   4.307   1.867   7.048 -0.7810  0.4791  0.5679
36511SOL     OW18310   7.359   9.089   4.108 -0.0307  0.3228 -0.1781
36511SOL    HW118311   7.390   9.152   4.042 -0.0182  0.7983  0.2748
36511SOL    HW218312   7.440   9.052   4.144 -0.0096  0.6753  0.1499
36512SOL     OW18313  12.134   1.406   5.108  0.0322  0.0954  0.5215
36512SOL    HW118314  12.119   1.500   5.105  0.1614  0.1301  0.9517
36512SOL    HW218315  12.136   1.379   5.016  2.8238  0.9735  0.2222
36513SOL     OW18316   1.776   7.189   2.311  0.0910 -0.5198 -0.0960
36513SOL    HW118317   1.838   7.251   2.349 -1.8623  0.7148  1.1888
36513SOL    HW218318   1.755   7.129   2.382 -1.1857 -0.1052 -0.0936
36514SOL     OW18319   8.866   1.549   6.004 -0.3724 -0.0780  0.1861
36514SOL    HW118320   8.778   1.512   6.012  0.4184 -2.0869  0.0795
36514SOL    HW218321   8.880   1.594   6.087 -1.0814 -0.6744  0.6431
36515SOL     OW18322   9.407   1.759   1.286 -0.0102 -0.3010 -0.1082
36515SOL    HW118323   9.367   1.692   1.340  0.4500 -0.6673 -0.2184
36515SOL    HW218324   9.501   1.745   1.295  0.1132  0.6265  0.2514
36516SOL     OW18325   2.344   3.944   0.578 -0.2162  0.2749  0.1408
36516SOL    HW118326   2.374   3.987   0.498 -2.4093 -1.8585 -1.9540
36516SOL    HW218327   2.417   3.888   0.603  0.5468  1.0601 -0.2499
36517SOL     OW18328   0.491   4.348  11.760  0.6995  0.0450  0.6440
36517SOL    HW118329   0.477   4.405  11.837  0.8153  1.2722 -0.2109
36517SOL    HW218330   0.469   4.404  11.686  0.0790 -1.2979 -0.2018
36518SOL     OW18331   9.547   9.779   2.710  0.4507  0.3131 -0.3621
36518SOL    HW118332   9.562   9.726   2.789 -0.2164  0.7305  0.0579
36518SOL    HW218333   9.493   9.723   2.654 -0.0655  0.4534 -0.0138
36519SOL     OW18334   4.945   2.317   6.769  0.6253  0.1877 -0.5101
36519SOL    HW118335   4.889   2.250   6.809 -0.1385  0.6753 -0.7426
36519SOL    HW218336   4.971   2.279   6.685  1.0579 -0.2453 -0.1855
36520SOL     OW18337  12.477   9.018  11.182  0.1006 -0.1897 -0.2047
36520SOL    HW118338  12.554   9.048  11.231 -1.4650  2.1136  1.0020
36520SOL    HW218339  12.446   8.941  11.230  1.2138 -0.7059 -0.2895
36521SOL     OW18340   0.494   9.846   1.185 -0.4771 -0.4753  0.4988
36521SOL    HW118341   0.585   9.841   1.217 -0.4895 -0.6519  0.5059
36521SOL    HW218342   0.496   9.918   1.121 -0.1455 -1.0231 -0.1204
36522SOL     OW18343   9.966   6.606  11.510  0.1338  0.5102  0.2639
36522SOL    HW118344   9.924   6.523  11.490  0.7604  0.6756 -1.9331
36522SOL    HW218345  10.054   6.599  11.472  0.7402  1.6289  1.3566
36523SOL     OW18346  12.431   8.363  11.083 -0.6228  0.8998  0.4161
36523SOL    HW118347  12.520   8.358  11.048 -0.8108 -0.2109  0.0816
36523SOL    HW218348  12.407   8.273  11.101 -1.7872  1.1649  0.2484
36524SOL     OW18349   2.784   9.434  12.008 -0.0534  0.6937  0.3088
36524SOL    HW118350   2.852   9.499  12.029  0.6611  0.7067 -1.7963
36524SOL    HW218351   2.821   9.351  12.036  0.2546  0.8531  0.3807
36525SOL     OW18352   5.501   0.094   8.216  0.5782  0.2287 -0.4352
36525SOL    HW118353   5.489   0.183   8.184  0.4571  0.2099 -0.4430
36525SOL    HW218354   5.431   0.043   8.173 -0.9994  0.6181  1.5228
36526SOL     OW18355   9.248   0.367   3.270 -0.4305 -0.0028 -0.1668
36526SOL    HW118356   9.189   0.378   3.195 -2.0627 -0.5174  0.9841
36526SOL    HW218357   9.284   0.279   3.260 -0.5992 -0.0486 -0.3760
36527SOL     OW18358   9.973   4.220   2.450 -0.2045 -0.2141  0.8496
36527SOL    HW118359   9.954   4.236   2.543  0.0834 -0.5322  0.9634
36527SOL    HW218360   9.886   4.213   2.409 -0.3300  0.4225  1.0070
36528SOL     OW18361   1.629   9.471   9.854 -0.4909 -0.0038  0.0891
36528SOL    HW118362   1.574   9.549   9.860 -2.2715 -1.2781  1.5249
36528SOL    HW218363   1.598   9.426   9.775  0.9952  1.0106 -1.1231
36529SOL     OW18364  11.755  11.252   1.486  0.1768 -0.5626  0.4665
36529SOL    HW118365  11.837  11.218   1.522 -1.0531 -2.3945  1.6591
36529SOL    HW218366  11.735  11.193   1.414 -0.1467 -0.1401  0.2039
36530SOL     OW18367   2.234   9.928   4.459  0.1168  0.5070  0.2551
36530SOL    HW118368   2.169   9.988   4.495 -0.4534 -0.8197  1.5316
36530SOL    HW218369   2.268   9.973   4.382 -1.0554  1.9841  0.5552
36531SOL     OW18370  10.967   7.132   4.483  0.2692 -0.2823  0.4009
36531SOL    HW118371  10.881   7.094   4.465  0.4205 -0.8520  0.8756
36531SOL    HW218372  11.011   7.134   4.398  0.5216 -1.8175  0.4832
36532SOL     OW18373   6.491   3.944  12.465 -0.1308 -0.1665 -0.2980
36532SOL    HW118374   6.564   3.883  12.458 -0.2867 -0.1967 -1.9640
36532SOL    HW218375   6.519   4.021  12.416 -1.0738 -0.0490 -0.6827
36533SOL     OW18376   4.694   9.462   3.452  0.3477  0.2528  0.1152
36533SOL    HW118377   4.717   9.507   3.534  1.9990  0.6749 -0.5380
36533SOL    HW218378   4.761   9.394   3.442 -0.3986 -0.4346 -0.4228
36534SOL     OW18379  12.492   4.759   2.414 -0.2253  0.0590  0.5749
36534SOL    HW118380  12.448   4.675   2.426 -0.9320  0.4766  0.9237
36534SOL    HW218381  12.449   4.799   2.339 -1.2862  0.9966  1.6477
36535SOL     OW18382   2.944   5.469   8.123 -0.1515 -0.6657  0.5410
36535SOL    HW118383   2.920   5.504   8.209  0.4400  0.4212  0.2887
36535SOL    HW218384   2.862   5.437   8.086 -0.4935 -0.7169  1.3212
36536SOL     OW18385   1.929   1.134   0.333  0.2093 -0.8468 -0.3295
36536SOL    HW118386   1.953   1.213   0.380 -0.4814 -0.5607 -0.4510
36536SOL    HW218387   1.870   1.163   0.264 -1.3758 -1.6479  0.6334
36537SOL     OW18388   0.409   7.951   2.867 -0.1183 -0.4176  0.5503
36537SOL    HW118389   0.331   7.965   2.813 -0.4385 -1.8937  0.5803
36537SOL    HW218390   0.414   8.028   2.923 -1.0228  0.1307 -0.1026
36538SOL     OW18391   8.518   2.825   7.989 -0.4644 -0.6107  0.1049
36538SOL    HW118392   8.553   2.779   7.913 -3.2168 -3.1883  0.2006
36538SOL    HW218393   8.564   2.785   8.064 -0.3576 -0.6999 -0.0073
36539SOL     OW18394   0.672   9.324   4.058 -0.0148  0.2018 -0.7379
36539SOL    HW118395   0.646   9.242   4.015  0.5213 -0.7833  0.7442
36539SOL    HW218396   0.726   9.296   4.132 -0.6454  1.8563  0.3892
36540SOL     OW18397  11.082   5.055   7.788  0.4223 -0.4691  0.3638
36540SOL    HW118398  10.997   5.094   7.769  0.9708  0.9617  0.7064
36540SOL    HW218399  11.133   5.125   7.829  0.8458 -2.0625  2.8353
36541SOL     OW18400   3.435  12.106   9.367  0.5861 -0.5262  0.6612
36541SOL    HW118401   3.522  12.141   9.389  0.6034 -0.5028  0.5578
36541SOL    HW218402   3.420  12.137   9.278 -0.0921  0.5729  1.1348
36542SOL     OW18403   7.337   4.259   0.980 -0.5467  0.0354  0.3441
36542SOL    HW118404   7.422   4.246   1.023 -0.4083  1.0114  0.3795
36542SOL    HW218405   7.358   4.295   0.894 -0.9051 -0.1737  0.1671
36543SOL     OW18406   5.455  11.341   0.990 -0.1547 -0.3778  0.1359
36543SOL    HW118407   5.422  11.262   0.948 -2.3338  1.4297 -1.8418
36543SOL    HW218408   5.548  11.345   0.965 -0.7990 -0.6592 -2.5371
36544SOL     OW18409   4.588   2.880   0.794 -0.3508  0.3196 -0.6195
36544SOL    HW118410   4.522   2.878   0.863 -0.0150  0.9563 -0.2615
36544SOL    HW218411   4.615   2.789   0.783  0.2093  0.2950  0.7158
36545SOL     OW18412   4.151   8.543   1.679  0.4995 -0.2547 -0.0439
36545SOL    HW118413   4.207   8.488   1.733  1.2306 -0.5397 -1.0526
36545SOL    HW218414   4.173   8.519   1.589 -1.0128 -0.1412 -0.4845
36546SOL     OW18415  11.383  10.063  11.377 -0.6883 -0.4590 -0.1496
36546SOL    HW118416  11.471  10.057  11.339 -0.1475  1.8521  0.5252
36546SOL    HW218417  11.394  10.029  11.466  0.0184  1.3715  0.5232
36547SOL     OW18418   9.215   4.204   5.829  0.2787  0.0345 -0.2234
36547SOL    HW118419   9.139   4.218   5.772 -1.8410 -1.5173  1.9822
36547SOL    HW218420   9.207   4.272   5.896  0.4540 -0.5034  0.3557
36548SOL     OW18421   7.488   7.977  12.216 -0.2820 -0.3378 -0.0477
36548SOL    HW118422   7.421   8.017  12.270 -1.1269 -0.0972 -1.2356
36548SOL    HW218423   7.443   7.906  12.170  0.6735 -1.2488  0.3718
36549SOL     OW18424   0.488   4.645   2.084 -0.1031 -0.8155  0.3068
36549SOL    HW118425   0.458   4.718   2.139  0.1187 -0.7381  0.3286
36549SOL    HW218426   0.571   4.619   2.124  0.1143 -0.6853 -0.0583
36550SOL     OW18427   9.285   3.026   7.787 -0.8013  0.1350  0.3044
36550SOL    HW118428   9.375   3.014   7.816  0.5967 -0.5389 -3.7987
36550SOL    HW218429   9.265   3.118   7.808  0.9037  0.3698  1.0264
36551SOL     OW18430  12.185   0.227   4.403  0.5698  0.0386 -0.4696
36551SOL    HW118431  12.118   0.164   4.429  1.4099 -0.5395  0.3554
36551SOL    HW218432  12.148   0.312   4.427  0.9531 -0.4043  1.9599
36552SOL     OW18433   2.551   9.290  10.366  0.3459  0.7342  0.2777
36552SOL    HW118434   2.515   9.371  10.332  0.8409  0.0592 -2.0307
36552SOL    HW218435   2.646   9.304  10.365  0.3891  0.6042  1.2309
36553SOL     OW18436   2.853  10.505   6.981 -0.0507 -0.0860  0.0912
36553SOL    HW118437   2.902  10.530   7.059  1.2500 -0.2454 -0.6537
36553SOL    HW218438   2.914  10.453   6.930 -0.7436  0.3782 -1.2511
36554SOL     OW18439   2.362   9.399   3.386  0.1926  0.4863 -0.7873
36554SOL    HW118440   2.327   9.443   3.309 -0.3154 -0.4003 -1.0849
36554SOL    HW218441   2.444   9.360   3.355 -0.6329 -0.9546 -1.2715
36555SOL     OW18442   8.027   2.264   7.592 -0.0104  0.3237  0.3249
36555SOL    HW118443   8.055   2.240   7.503  0.8345 -1.0276  0.9258
36555SOL    HW218444   8.053   2.355   7.601 -1.4441  0.9587 -1.3139
36556SOL     OW18445   7.594  11.670   3.146  0.3553  0.0326  0.9605
36556SOL    HW118446   7.646  11.751   3.147 -0.0919  0.3919 -0.9849
36556SOL    HW218447   7.656  11.603   3.119 -0.2507  0.6020 -2.1908
36557SOL     OW18448   2.091   3.686   7.361 -0.5118  0.1672  0.0173
36557SOL    HW118449   2.104   3.780   7.371 -1.3901  0.0758  2.9546
36557SOL    HW218450   2.178   3.648   7.372 -0.3144  0.5654 -0.1636
36558SOL     OW18451   0.228   5.824   3.691  0.3319  0.0801  0.1509
36558SOL    HW118452   0.301   5.779   3.733 -1.6190 -0.7061  2.9547
36558SOL    HW218453   0.167   5.755   3.666 -0.8786  0.8727  0.8047
36559SOL     OW18454   5.447  11.031   0.898  0.4557  0.1182  0.4066
36559SOL    HW118455   5.519  10.996   0.846 -0.2114  1.8820 -1.8728
36559SOL    HW218456   5.369  11.012   0.846  0.0359  4.6737 -1.0762
36560SOL     OW18457   1.673   1.607   7.365  0.6011  0.3648  0.6775
36560SOL    HW118458   1.580   1.620   7.383  1.1194  4.0783  1.5025
36560SOL    HW218459   1.686   1.512   7.372 -3.3528 -0.5114 -1.1436
36561SOL     OW18460  10.498   1.978   7.176 -0.1602  1.1150 -0.3774
36561SOL    HW118461  10.439   1.995   7.249 -0.2477 -1.6311  0.2989
36561SOL    HW218462  10.586   1.985   7.213 -0.1780 -2.9333  0.8931
36562SOL     OW18463   8.598   1.801   3.238 -0.9439  0.3070 -0.5739
36562SOL    HW118464   8.620   1.709   3.253  2.7802  1.0788 -0.5309
36562SOL    HW218465   8.582   1.806   3.143  1.6710  0.0389 -1.0930
36563SOL     OW18466   1.412   1.662  12.485 -1.2566 -0.2591 -0.3359
36563SOL    HW118467   1.379   1.573  12.497  0.2210 -0.8386 -0.4041
36563SOL    HW218468   1.473   1.676  12.558  0.2073 -0.1404 -1.5349
36564SOL     OW18469   3.453  10.573   8.963 -0.9009 -0.0881 -0.2876
36564SOL    HW118470   3.520  10.575   9.031 -1.6219  1.4162  0.4255
36564SOL    HW218471   3.478  10.499   8.907  1.4450  0.5305 -0.1563
36565SOL     OW18472   0.947   6.440   0.418  0.5769 -0.6019 -0.7738
36565SOL    HW118473   0.959   6.373   0.486 -1.1741  0.1768  0.3822
36565SOL    HW218474   0.985   6.519   0.456 -0.6222 -0.1082 -0.5581
36566SOL     OW18475   7.514   9.454  10.643  0.1231  0.1202 -0.3894
36566SOL    HW118476   7.516   9.359  10.631  0.7267  0.2538 -1.4509
36566SOL    HW218477   7.515   9.490  10.555 -1.6587  1.1112 -0.0441
36567SOL     OW18478   4.179   8.663   3.592  0.4674 -0.4930 -0.0285
36567SOL    HW118479   4.222   8.747   3.578 -0.2581 -0.2155 -0.6330
36567SOL    HW218480   4.087   8.679   3.570 -0.4884 -0.4568  3.3300
36568SOL     OW18481   6.212  11.640   0.114 -0.0690  1.1558  0.6976
36568SOL    HW118482   6.236  11.624   0.205  1.3258  1.6182  0.4282
36568SOL    HW218483   6.275  11.705   0.083  0.6831 -0.3395 -1.1312
36569SOL     OW18484  10.624   7.971   5.853  0.3515  0.3292  0.2083
36569SOL    HW118485  10.605   8.059   5.823 -0.6040  0.1258  0.2030
36569SOL    HW218486  10.695   7.982   5.916 -1.1061  1.3355  1.7234
36570SOL     OW18487   2.764  11.892   1.070  0.3625 -0.7287 -0.1059
36570SOL    HW118488   2.806  11.838   1.004 -2.0137 -1.7245 -0.8888
36570SOL    HW218489   2.746  11.975   1.025 -0.5972 -1.1457 -0.5091
36571SOL     OW18490   0.084   6.074   5.805  0.9811 -0.5954  0.5294
36571SOL    HW118491   0.158   6.023   5.773  0.4388 -1.7445  1.0270
36571SOL    HW218492   0.028   6.009   5.848 -0.4523  0.1934 -0.0854
36572SOL     OW18493  10.015   8.982   8.573  1.0408 -0.1563  0.5186
36572SOL    HW118494   9.956   9.056   8.583  0.6258 -0.4625  0.3460
36572SOL    HW218495  10.005   8.932   8.654  0.5936 -0.5453  0.2215
36573SOL     OW18496   1.409   4.226   6.671 -0.0945  0.2920  0.5482
36573SOL    HW118497   1.419   4.135   6.644  1.6092 -0.0754  2.2253
36573SOL    HW218498   1.402   4.275   6.588  0.1155 -1.2252 -0.4065
36574SOL     OW18499   5.601   3.628   4.530 -0.0387  0.1598 -0.4062
36574SOL    HW118500   5.612   3.657   4.620  0.7007  0.5496 -0.6130
36574SOL    HW218501   5.610   3.533   4.534 -1.5089  0.0266  0.1364
36575SOL     OW18502   6.713   3.070   5.592  0.0708  0.5324 -0.3693
36575SOL    HW118503   6.693   3.025   5.674  1.2650 -0.4085 -0.5698
36575SOL    HW218504   6.664   3.022   5.525 -0.6401  1.0951 -0.2620
36576SOL     OW18505   6.474  10.227   7.691 -0.0240 -0.6981  0.2931
36576SOL    HW118506   6.382  10.205   7.704 -0.2121 -0.0991  0.0129
36576SOL    HW218507   6.493  10.292   7.758  0.0860 -0.5422  0.1144
36577SOL     OW18508   7.134   0.253  12.387 -0.0792  0.1366 -0.4867
36577SOL    HW118509   7.090   0.222  12.308  0.7596 -3.2831  0.2382
36577SOL    HW218510   7.219   0.285  12.355  0.8039 -2.4434 -0.9470
36578SOL     OW18511   0.555  10.417   6.551  0.1155 -0.7373 -0.5928
36578SOL    HW118512   0.548  10.502   6.593  0.2328 -1.5990  1.2658
36578SOL    HW218513   0.466  10.394   6.526 -0.5658 -1.6901  2.3676
36579SOL     OW18514   8.003   3.183   6.019 -0.6450 -0.2912  0.4052
36579SOL    HW118515   7.969   3.273   6.016 -0.6011 -0.3088 -1.1575
36579SOL    HW218516   8.087   3.191   6.063  0.4133  0.8163 -1.6939
36580SOL     OW18517  12.554  10.528   9.841 -0.2709  0.2004 -0.0349
36580SOL    HW118518  12.567  10.437   9.869  2.4130  0.8843  1.2985
36580SOL    HW218519  12.489  10.563   9.903 -1.4062 -0.7991 -0.6311
36581SOL     OW18520   2.966   9.528   3.626  0.3912  0.3300  0.1768
36581SOL    HW118521   3.031   9.591   3.659  0.5280  0.2463  0.0664
36581SOL    HW218522   2.982   9.448   3.676 -0.4573  0.6927  1.0501
36582SOL     OW18523   6.774   3.118   0.245  0.1938 -0.3785  0.1311
36582SOL    HW118524   6.740   3.115   0.334  0.7149  2.4826  0.5192
36582SOL    HW218525   6.702   3.087   0.191 -0.8767 -0.1940  1.3995
36583SOL     OW18526   5.245   4.395   9.798  0.5619  0.5765 -0.1902
36583SOL    HW118527   5.272   4.329   9.734  0.6400 -0.4387  0.8501
36583SOL    HW218528   5.214   4.469   9.745  1.0465 -0.0506 -1.3859
36584SOL     OW18529   6.428  12.100   9.707 -0.5841  0.0449 -0.0204
36584SOL    HW118530   6.418  12.017   9.755  0.4774 -0.5586 -0.8088
36584SOL    HW218531   6.371  12.161   9.754 -1.9774 -1.3022  0.1515
36585SOL     OW18532   2.994   8.726  11.222 -0.0805  0.3136  0.2245
36585SOL    HW118533   2.956   8.722  11.310 -1.3088 -1.7273 -0.3240
36585SOL    HW218534   3.009   8.635  11.198  1.1332  0.8753 -1.3386
36586SOL     OW18535   5.153   6.668   7.656  0.1074  0.5102 -0.7892
36586SOL    HW118536   5.246   6.691   7.656  0.3381 -0.3180 -1.9435
36586SOL    HW218537   5.119   6.706   7.737  1.5423  0.4379 -0.1167
36587SOL     OW18538   5.577   2.307   3.129  0.4606  0.1557 -0.2616
36587SOL    HW118539   5.627   2.270   3.202  1.3755  1.8347  0.0103
36587SOL    HW218540   5.488   2.312   3.161  0.8524  0.8486  0.7440
36588SOL     OW18541   8.233   3.975  12.212 -0.7990  0.1963  0.6181
36588SOL    HW118542   8.303   3.916  12.240 -0.6333 -0.2235 -0.6464
36588SOL    HW218543   8.171   3.919  12.164  0.2081  1.2656 -2.1183
36589SOL     OW18544   4.020   2.646   5.607 -0.4577  0.2675 -0.0070
36589SOL    HW118545   4.079   2.718   5.584 -0.4912  0.2811 -0.0512
36589SOL    HW218546   3.971   2.678   5.683 -2.1677  1.2468 -1.4345
36590SOL     OW18547   9.166   8.828   4.310  0.3374 -0.3557 -0.1531
36590SOL    HW118548   9.215   8.908   4.329 -1.4343  1.2540 -1.8952
36590SOL    HW218549   9.233   8.761   4.297  2.0059  1.3910 -1.0358
36591SOL     OW18550  12.216  11.382   2.348  0.8605  0.3658  0.0890
36591SOL    HW118551  12.289  11.352   2.295 -0.6674 -1.0497 -1.3037
36591SOL    HW218552  12.139  11.340   2.310 -0.7072  1.8218  1.4768
36592SOL     OW18553   4.389   2.659   6.572 -0.2827 -0.3266  0.1021
36592SOL    HW118554   4.436   2.742   6.573  2.7480 -1.7586 -2.3752
36592SOL    HW218555   4.332   2.664   6.495  1.0672 -0.9866 -0.9923
36593SOL     OW18556   6.727   8.957  11.494  0.0164 -0.4184 -0.6184
36593SOL    HW118557   6.793   9.022  11.471 -1.2397  0.8446 -0.7989
36593SOL    HW218558   6.771   8.899  11.556  0.6220  1.8258  1.2101
36594SOL     OW18559   0.125   1.495   2.598 -0.2936 -0.4174  0.0710
36594SOL    HW118560   0.205   1.506   2.548  1.0221  0.6772  2.2527
36594SOL    HW218561   0.128   1.405   2.632  1.2649  0.3032  2.0308
36595SOL     OW18562   4.205   4.475   3.397  0.2389  0.4047  0.1910
36595SOL    HW118563   4.274   4.531   3.362 -0.8167  0.8689 -1.2485
36595SOL    HW218564   4.213   4.393   3.348  0.1338  0.2482  0.4315
36596SOL     OW18565   5.183   4.771   5.716  0.1607 -0.1838  0.2213
36596SOL    HW118566   5.109   4.816   5.756  0.6499 -0.2578  1.2518
36596SOL    HW218567   5.175   4.788   5.622 -2.2590 -1.7791  0.0508
36597SOL     OW18568   2.382   5.081   4.291 -0.4589 -0.4821 -0.1854
36597SOL    HW118569   2.319   5.090   4.363 -0.3443 -2.8187  0.2831
36597SOL    HW218570   2.388   4.987   4.276  0.0331 -0.0959 -2.8487
36598SOL     OW18571   8.559   2.171   9.637 -0.2652  0.4975  0.0548
36598SOL    HW118572   8.570   2.078   9.657  0.7820  0.1145 -2.0404
36598SOL    HW218573   8.647   2.204   9.621 -0.8277  0.3259 -5.0916
36599SOL     OW18574   9.526  12.166   3.707  0.7235  0.1523 -0.3059
36599SOL    HW118575   9.540  12.097   3.772  2.7473 -0.3424 -1.2116
36599SOL    HW218576   9.442  12.143   3.666  1.4048 -1.8964 -0.6839
36600SOL     OW18577   3.157   7.478   2.040  0.3952  0.1783  0.0575
36600SOL    HW118578   3.123   7.528   1.967 -0.6057 -0.3959  0.1169
36600SOL    HW218579   3.096   7.496   2.112  1.0441  0.2842  0.5952
36601SOL     OW18580   3.276   0.267   1.905  0.0289  0.2433  0.6668
36601SOL    HW118581   3.275   0.362   1.891  1.9772  0.1674 -0.4436
36601SOL    HW218582   3.343   0.235   1.844 -2.2037 -2.1513 -0.7503
36602SOL     OW18583   7.033   6.854   5.003 -0.0588  0.0303  0.0101
36602SOL    HW118584   6.943   6.828   4.981  0.0152  1.1268 -1.7122
36602SOL    HW218585   7.053   6.803   5.081 -2.5052  0.4353  1.0112
36603SOL     OW18586   5.702  11.972   4.460 -0.3566  0.6316  0.5452
36603SOL    HW118587   5.614  11.964   4.497  0.4896  1.4481  2.9753
36603SOL    HW218588   5.748  12.027   4.523  1.2785  2.1236 -1.8315
36604SOL     OW18589   7.731   1.241   8.478  0.3197 -0.1694 -0.6812
36604SOL    HW118590   7.801   1.204   8.531 -1.6741 -0.2112  2.1506
36604SOL    HW218591   7.752   1.334   8.470  0.5761 -0.1346  0.3565
36605SOL     OW18592   0.918   7.731   1.656 -0.3593  0.4127 -0.2307
36605SOL    HW118593   0.996   7.749   1.709 -0.9542 -0.7956  1.1563
36605SOL    HW218594   0.929   7.641   1.626 -0.9170  0.4508 -0.5732
36606SOL     OW18595  12.009  11.210   2.275  0.5021 -0.9646  0.0689
36606SOL    HW118596  11.914  11.201   2.280  0.4207 -0.9538 -1.1449
36606SOL    HW218597  12.025  11.248   2.189  1.4780  1.0585  1.0692
36607SOL     OW18598   9.288  12.097  12.560  0.2379  0.1893  0.4090
36607SOL    HW118599   9.299  12.084  12.465 -0.4484 -0.5671  0.4195
36607SOL    HW218600   9.194  12.112  12.571  0.5292  2.0249  0.7975
36608SOL     OW18601   2.153   1.993   8.631  0.6304  0.1247  0.5947
36608SOL    HW118602   2.127   2.050   8.704  0.0146  1.4218 -0.5913
36608SOL    HW218603   2.070   1.959   8.597  0.7246  1.2511 -0.8335
36609SOL     OW18604   1.914  10.542  10.206 -0.2807 -0.4433  0.0976
36609SOL    HW118605   1.881  10.452  10.201  1.2420 -1.0952  1.1230
36609SOL    HW218606   1.853  10.586  10.266  0.1073 -1.3673  1.2241
36610SOL     OW18607  11.422   4.774   4.085  0.4133 -0.0227 -0.4027
36610SOL    HW118608  11.496   4.754   4.142  0.4979  4.2784  1.3894
36610SOL    HW218609  11.458   4.832   4.018 -0.9571  0.6489 -0.5920
36611SOL     OW18610   6.764   3.540   3.243  0.0956  0.2194  0.3283
36611SOL    HW118611   6.789   3.588   3.321  1.2976 -1.8767  1.3265
36611SOL    HW218612   6.808   3.586   3.171 -0.9659  2.1201  0.8268
36612SOL     OW18613  10.766  11.829  12.178  0.5244  0.0816  0.1610
36612SOL    HW118614  10.842  11.808  12.233 -0.7435  0.6732  2.2444
36612SOL    HW218615  10.697  11.853  12.240 -1.6644 -1.2282 -1.6008
36613SOL     OW18616   3.083   9.788   0.334  0.5752 -0.2556 -0.0115
36613SOL    HW118617   3.093   9.809   0.241  0.2835  0.0690  0.0297
36613SOL    HW218618   2.989   9.776   0.346  0.5711  0.1071  0.3270
36614SOL     OW18619   1.582   9.437  10.406  0.4816  0.3584 -0.4099
36614SOL    HW118620   1.658   9.438  10.464  0.4469 -0.9220 -0.3254
36614SOL    HW218621   1.507   9.441  10.465  0.4035 -2.4212 -0.2157
36615SOL     OW18622   0.810   4.776   8.866  0.3038  0.3918 -0.2058
36615SOL    HW118623   0.741   4.775   8.801 -0.6956 -0.5663  0.8198
36615SOL    HW218624   0.849   4.863   8.859 -0.4129  0.6354 -1.4061
36616SOL     OW18625   1.510   5.500   3.788 -0.3396 -0.3211  0.5628
36616SOL    HW118626   1.603   5.515   3.778 -0.4167 -0.1358  0.0778
36616SOL    HW218627   1.471   5.539   3.710 -0.6761 -1.7277 -0.0098
36617SOL     OW18628   3.378   9.532   2.249  0.4702 -0.0565 -0.1504
36617SOL    HW118629   3.441   9.487   2.306  0.7829 -0.3341 -0.7033
36617SOL    HW218630   3.433   9.581   2.188  0.1812 -1.0855 -1.2698
36618SOL     OW18631  12.114   1.304   1.979  0.2888 -0.3845 -0.0460
36618SOL    HW118632  12.080   1.216   1.991 -0.5448  0.1335  1.6906
36618SOL    HW218633  12.038   1.356   1.954  0.5746  0.0512 -0.0303
36619SOL     OW18634   4.396   9.662   4.412 -0.3028  0.5892  0.1123
36619SOL    HW118635   4.464   9.689   4.352 -0.7930  0.0587 -0.7113
36619SOL    HW218636   4.417   9.705   4.495  0.8154  0.7108 -0.2263
36620SOL     OW18637   5.559   7.702  10.405 -0.0156 -0.4057  0.3490
36620SOL    HW118638   5.545   7.723  10.497 -0.4582  0.8351  0.0148
36620SOL    HW218639   5.650   7.670  10.401 -0.1017 -0.7725  1.2544
36621SOL     OW18640   5.247   2.193   1.641 -0.3919 -0.5862 -0.2002
36621SOL    HW118641   5.302   2.267   1.615  0.4566 -0.3701  2.0074
36621SOL    HW218642   5.160   2.232   1.653  0.1392  0.1903  1.3626
36622SOL     OW18643  10.426   2.246   6.068  0.7984  0.4407 -0.1848
36622SOL    HW118644  10.424   2.153   6.094  0.5534  0.3467 -0.5345
36622SOL    HW218645  10.492   2.251   5.999  0.4680  0.4338 -0.5065
36623SOL     OW18646  10.984   6.921   1.835 -0.5533 -0.1053 -0.0125
36623SOL    HW118647  10.893   6.943   1.855  0.2190  2.8855  0.7602
36623SOL    HW218648  11.035   6.994   1.871  2.2175 -1.8559 -0.0628
36624SOL     OW18649   6.089   7.072  12.535  0.6680  0.3815  0.3758
36624SOL    HW118650   6.132   7.017  12.601 -0.5822 -0.5503  0.4368
36624SOL    HW218651   6.060   7.011  12.468 -0.3069  1.0317  0.1933
36625SOL     OW18652   4.351  12.197  11.144  0.3480  0.1108 -0.3260
36625SOL    HW118653   4.332  12.210  11.051  2.2493  0.1138 -0.7506
36625SOL    HW218654   4.295  12.262  11.189 -1.1758 -0.4209 -1.3680
36626SOL     OW18655   9.672   6.175   6.024 -0.3306 -0.4324 -0.0932
36626SOL    HW118656   9.751   6.163   5.970 -1.0414 -1.1510 -1.0024
36626SOL    HW218657   9.637   6.086   6.034 -1.2975 -0.0628 -0.1355
36627SOL     OW18658  11.264   0.804   9.844 -0.0622 -0.0299  0.6270
36627SOL    HW118659  11.208   0.881   9.834  0.3651  0.2605  0.4136
36627SOL    HW218660  11.337   0.820   9.783 -0.1524 -0.7699  0.3223
36628SOL     OW18661   6.198   7.773   2.842  0.2586  0.0333 -0.3447
36628SOL    HW118662   6.285   7.786   2.879 -0.3442  0.6833  0.9041
36628SOL    HW218663   6.183   7.852   2.789 -0.4350  1.0421  1.2663
36629SOL     OW18664  12.196   2.420   4.595  0.0628  0.0408  0.1365
36629SOL    HW118665  12.289   2.411   4.618  0.0655  2.0831  1.1879
36629SOL    HW218666  12.197   2.465   4.510  0.0893  1.2965  0.7690
36630SOL     OW18667   1.086   6.413  11.209 -0.0865  0.1074 -0.3566
36630SOL    HW118668   1.167   6.408  11.158  0.7186  0.1130  0.8659
36630SOL    HW218669   1.101   6.355  11.283 -0.8287  0.8371  0.3885
36631SOL     OW18670  10.143   8.785   8.806  0.3143  0.7623  0.0809
36631SOL    HW118671  10.213   8.791   8.742  0.7578  3.1241  0.6938
36631SOL    HW218672  10.120   8.692   8.808  2.5397  0.1202 -1.0515
36632SOL     OW18673   1.202   2.319   0.518  0.1074 -0.2317 -0.4811
36632SOL    HW118674   1.144   2.249   0.490 -0.3358  0.7012 -2.0316
36632SOL    HW218675   1.230   2.361   0.436 -0.0769  1.7165  0.3930
36633SOL     OW18676  11.841  10.305   3.876  0.4138 -0.3825  0.0490
36633SOL    HW118677  11.823  10.371   3.809  0.3934  0.5189  0.9177
36633SOL    HW218678  11.778  10.325   3.946  1.8222  0.0528  1.2437
36634SOL     OW18679   1.690  10.716   3.391 -0.0092  0.1595 -0.4260
36634SOL    HW118680   1.600  10.703   3.362  0.0177 -0.4584 -0.2520
36634SOL    HW218681   1.710  10.808   3.370 -1.3693  0.9261  1.3595
36635SOL     OW18682   6.865   9.110   2.101  0.7573  0.0196  0.0439
36635SOL    HW118683   6.861   9.069   2.015  2.0491 -0.3265  0.1286
36635SOL    HW218684   6.777   9.144   2.115 -0.3339 -2.5225 -0.1305
36636SOL     OW18685   1.235   9.183  10.646 -0.6221  0.1372 -0.0212
36636SOL    HW118686   1.190   9.103  10.673  0.1832 -0.2200  0.2742
36636SOL    HW218687   1.207   9.249  10.709 -0.8610 -0.0408  0.0610
36637SOL     OW18688   9.844   5.782   9.851 -0.2218 -0.0177  0.1351
36637SOL    HW118689   9.844   5.804   9.944 -2.2763  2.2290 -0.2733
36637SOL    HW218690   9.806   5.694   9.847 -0.2661 -0.0769  1.3878
36638SOL     OW18691   8.806   6.772   1.045 -0.2154 -0.1305  0.3689
36638SOL    HW118692   8.789   6.742   1.134 -0.5381 -1.0473  0.0075
36638SOL    HW218693   8.726   6.752   0.997 -0.6948  1.8837  0.2189
36639SOL     OW18694   9.952  11.180   4.193 -0.0119 -0.0632  0.0687
36639SOL    HW118695  10.042  11.165   4.221  0.8837 -0.8984 -2.8981
36639SOL    HW218696   9.946  11.275   4.182 -0.1598  0.2041  2.1144
36640SOL     OW18697  12.446   7.761   2.526 -0.3732 -0.3847 -0.5669
36640SOL    HW118698  12.481   7.690   2.472  0.6945  0.4093 -0.9592
36640SOL    HW218699  12.473   7.740   2.615 -0.7172 -0.8578 -0.5739
36641SOL     OW18700   5.633   9.206   5.240 -0.5188  0.2242  0.1074
36641SOL    HW118701   5.560   9.244   5.192 -0.8118 -0.6022 -0.1092
36641SOL    HW218702   5.683   9.282   5.272 -0.0103  0.8027 -1.9359
36642SOL     OW18703   9.830   9.404   1.657  0.5899 -0.4311  0.3794
36642SOL    HW118704   9.885   9.413   1.735  2.9841  0.4923 -1.3014
36642SOL    HW218705   9.797   9.492   1.641 -1.3004 -0.9328  1.2268
36643SOL     OW18706   3.425   9.271   0.468  0.3640  0.1122  0.2507
36643SOL    HW118707   3.520   9.267   0.473  0.3684  0.0586  0.1302
36643SOL    HW218708   3.400   9.192   0.420  0.1512 -0.6912  1.6133
36644SOL     OW18709   8.017   1.036   6.001  0.1294 -0.4979  0.2406
36644SOL    HW118710   8.029   0.941   6.010  1.3068 -0.3284  0.5855
36644SOL    HW218711   8.092   1.064   5.949 -0.1420  0.2756  0.2591
36645SOL     OW18712   7.565  11.759   5.814  0.4376 -0.3371  0.1712
36645SOL    HW118713   7.515  11.683   5.783 -0.0332  0.4136 -0.9595
36645SOL    HW218714   7.649  11.752   5.769  0.8034 -0.7818  0.9166
36646SOL     OW18715   3.065   8.668   3.305 -0.7184 -0.1432 -1.0214
36646SOL    HW118716   3.117   8.746   3.325 -0.7402  0.3377 -2.6724
36646SOL    HW218717   3.119   8.594   3.334 -0.2043  0.4498 -0.4630
36647SOL     OW18718   4.756  10.472  10.198 -0.2809  0.0989  0.2043
36647SOL    HW118719   4.794  10.559  10.181 -2.6939  0.9464 -1.3777
36647SOL    HW218720   4.719  10.479  10.286  1.3695 -0.0911  0.9554
36648SOL     OW18721   3.541   6.065   4.489 -0.3136 -0.6205 -0.1439
36648SOL    HW118722   3.617   6.108   4.528  0.6085 -0.3662 -2.0509
36648SOL    HW218723   3.480   6.136   4.471 -0.0608 -0.5055 -0.5736
36649SOL     OW18724   6.454   3.249   6.622  0.6421 -0.7643 -0.0639
36649SOL    HW118725   6.400   3.327   6.605  0.3480 -1.1423 -0.9688
36649SOL    HW218726   6.393   3.185   6.658  0.3779 -1.2973 -1.3772
36650SOL     OW18727   3.017  11.972   1.831 -0.0863  0.1004  0.0588
36650SOL    HW118728   2.955  11.911   1.871  0.9264 -0.1085  1.3905
36650SOL    HW218729   2.962  12.042   1.795 -1.1727 -0.8618 -0.2100
36651SOL     OW18730   4.640  12.208  11.108 -0.6259  0.7967 -0.0955
36651SOL    HW118731   4.730  12.217  11.076  0.1140 -0.0284  1.6297
36651SOL    HW218732   4.586  12.224  11.031  0.9685  1.8733 -1.0580
36652SOL     OW18733  11.570  11.401   0.693 -0.2274  0.2941  0.2327
36652SOL    HW118734  11.558  11.416   0.787 -0.6002 -0.3218  0.2882
36652SOL    HW218735  11.664  11.412   0.679 -0.0172 -0.5966  0.8681
36653SOL     OW18736   8.802   7.876   1.869 -0.1133 -0.2392 -0.3895
36653SOL    HW118737   8.834   7.786   1.881 -1.3375 -0.5052  1.1929
36653SOL    HW218738   8.877   7.931   1.890  0.6524 -0.8680 -1.3619
36654SOL     OW18739   4.552   7.660   9.683  0.1051 -0.1693  0.0944
36654SOL    HW118740   4.536   7.570   9.712  1.2457 -0.5009 -0.2379
36654SOL    HW218741   4.646   7.672   9.694  0.1627  0.5613 -1.0577
36655SOL     OW18742   3.112   2.619   0.917 -0.1023  0.0853  0.1624
36655SOL    HW118743   3.030   2.659   0.946  0.2627  1.1038 -0.1718
36655SOL    HW218744   3.122   2.649   0.826  0.7028  0.0785  0.2433
36656SOL     OW18745   3.105   6.860   5.093  0.2323 -0.4469 -0.0875
36656SOL    HW118746   3.019   6.842   5.055 -0.9093 -0.4438  2.3242
36656SOL    HW218747   3.088   6.928   5.158  2.1847 -0.0577  0.0564
36657SOL     OW18748   9.725   0.812   1.472 -0.1063  0.0121 -0.4647
36657SOL    HW118749   9.752   0.725   1.500  0.5262  0.1130 -0.7311
36657SOL    HW218750   9.641   0.799   1.428 -1.3874 -0.0892  1.8499
36658SOL     OW18751   6.813   2.892  10.627 -0.3274 -0.4033  0.0329
36658SOL    HW118752   6.734   2.854  10.588  0.3952 -1.1026 -0.7999
36658SOL    HW218753   6.885   2.846  10.584  0.5489  0.6374  0.3411
36659SOL     OW18754   1.600   3.621   4.695 -0.2857  0.1221  0.0384
36659SOL    HW118755   1.590   3.689   4.629 -1.2291 -0.8475 -0.8478
36659SOL    HW218756   1.525   3.563   4.681 -0.5472 -0.0808  2.0013
36660SOL     OW18757   5.627   0.185   5.887 -0.4162  0.0006  0.1560
36660SOL    HW118758   5.607   0.118   5.952  0.2762 -0.8920 -0.5229
36660SOL    HW218759   5.722   0.197   5.893 -0.8159  4.1718  3.3523
36661SOL     OW18760   3.559   6.393   7.429  0.2108 -0.1563  0.2171
36661SOL    HW118761   3.541   6.463   7.367 -0.2726 -0.4236  0.0534
36661SOL    HW218762   3.508   6.416   7.507  0.2641 -0.1899  0.2626
36662SOL     OW18763   4.029  11.877  12.305  0.1932 -0.6132 -0.0225
36662SOL    HW118764   4.091  11.844  12.370 -0.3900  0.9278  1.3852
36662SOL    HW218765   4.084  11.921  12.240  0.6770 -0.4333  0.4975
36663SOL     OW18766   8.897   4.786   4.363 -0.0269 -0.1476  0.2767
36663SOL    HW118767   8.894   4.712   4.424  2.4093 -1.0088 -0.4912
36663SOL    HW218768   8.990   4.792   4.338 -0.3893  2.3199 -0.7489
36664SOL     OW18769   8.749  10.461   7.333  0.4623  0.3262 -0.2897
36664SOL    HW118770   8.698  10.541   7.347  1.1260  0.7332 -0.1084
36664SOL    HW218771   8.839  10.493   7.323  0.9382 -0.4955  1.1033
36665SOL     OW18772   8.177   0.696   5.158  0.1331 -0.0291 -0.3803
36665SOL    HW118773   8.255   0.664   5.203  0.7892 -1.0301 -2.1297
36665SOL    HW218774   8.104   0.654   5.203  0.8217 -1.7605 -0.8172
36666SOL     OW18775   3.111   9.342   4.457  0.3185 -0.0639 -0.2282
36666SOL    HW118776   3.090   9.274   4.521 -3.8126 -0.9230 -2.1856
36666SOL    HW218777   3.083   9.423   4.499  2.3806  0.1507  0.8875
36667SOL     OW18778   0.718   8.774   8.100  0.0314 -0.1441 -0.4144
36667SOL    HW118779   0.754   8.810   8.181  0.7037 -0.9020 -0.3586
36667SOL    HW218780   0.790   8.724   8.062 -0.7979 -1.2566 -0.5807
36668SOL     OW18781   0.971   6.501   9.496 -0.3977 -0.1546  0.0964
36668SOL    HW118782   0.941   6.466   9.580 -1.6812  2.3468  0.7874
36668SOL    HW218783   1.065   6.485   9.495 -0.9208 -4.2107 -0.0715
36669SOL     OW18784   8.892  10.390   5.204 -0.0584  0.4677 -0.0160
36669SOL    HW118785   8.874  10.298   5.221  0.8108  0.0600 -1.2166
36669SOL    HW218786   8.806  10.430   5.192 -0.4404 -0.1552  0.5754
36670SOL     OW18787   8.064   2.405   0.632  0.2122 -0.4362  0.2450
36670SOL    HW118788   8.059   2.370   0.543  0.8561 -0.9714  0.4141
36670SOL    HW218789   8.089   2.497   0.621  0.3444 -0.5159 -0.1205
36671SOL     OW18790   8.556   6.725  12.084  0.1131 -0.4403 -0.2021
36671SOL    HW118791   8.621   6.721  12.013 -0.6148  1.7556 -1.0803
36671SOL    HW218792   8.475   6.693  12.044 -0.2770  0.7119 -0.3836
36672SOL     OW18793   0.793  10.981  10.508  0.1293 -0.0913 -0.4341
36672SOL    HW118794   0.743  10.953  10.586  0.7960 -0.0417  0.0171
36672SOL    HW218795   0.834  10.900  10.477  1.0624  0.1538  0.1436
36673SOL     OW18796   6.817   0.815   8.639  0.6013 -0.1812 -0.3258
36673SOL    HW118797   6.910   0.833   8.652  0.5294 -0.4144  0.5352
36673SOL    HW218798   6.815   0.745   8.573  1.0116  0.1091 -0.6534
36674SOL     OW18799   9.967   6.440  11.117 -0.1388 -0.4247  0.7484
36674SOL    HW118800   9.988   6.529  11.146  0.9271 -0.1318 -0.8122
36674SOL    HW218801  10.050   6.393  11.124 -0.6521 -1.2578  1.3688
36675SOL     OW18802   5.043  11.418   6.062 -0.0456 -0.4550  0.1065
36675SOL    HW118803   4.965  11.399   6.010  0.3078  0.7528 -0.9422
36675SOL    HW218804   5.012  11.422   6.152 -0.7259 -2.3816 -0.0056
36676SOL     OW18805   8.494   9.218   4.179  0.0816  0.4088 -0.0285
36676SOL    HW118806   8.587   9.217   4.201  0.7203  2.4647 -2.1726
36676SOL    HW218807   8.460   9.297   4.220  0.1771  1.6023 -2.1000
36677SOL     OW18808   1.747  12.137  11.341  0.8031  0.2101 -0.4541
36677SOL    HW118809   1.740  12.231  11.350 -0.8651 -0.0339  1.2389
36677SOL    HW218810   1.688  12.115  11.269 -1.1472  0.2053  1.0746
36678SOL     OW18811   9.484  12.578  12.534  0.2225 -0.0376 -0.5653
36678SOL    HW118812   9.556  12.515  12.539  2.1985  2.0837 -0.6599
36678SOL    HW218813   9.488  12.626  12.617 -2.2306 -0.9709  0.1719
36679SOL     OW18814  10.671  12.058   5.848 -0.5110  0.7557  0.1485
36679SOL    HW118815  10.592  12.013   5.818 -0.2590  0.5568 -0.2235
36679SOL    HW218816  10.728  12.060   5.771  1.0194 -1.6713  1.0845
36680SOL     OW18817   0.487   9.974  11.560 -0.0975 -0.1565 -0.5676
36680SOL    HW118818   0.445   9.932  11.636 -0.6478  0.1514 -0.6911
36680SOL    HW218819   0.436   9.943  11.485  1.0104 -1.1749 -0.9154
36681SOL     OW18820   0.290   8.065  12.371  0.2912 -0.8079  0.4285
36681SOL    HW118821   0.200   8.033  12.362 -0.4450  1.4036 -0.7205
36681SOL    HW218822   0.287   8.121  12.449  0.6957 -0.7347  0.3906
36682SOL     OW18823   1.692   8.938   4.854 -0.0987  0.0912 -0.5160
36682SOL    HW118824   1.775   8.976   4.825 -1.0453  1.7733 -1.1670
36682SOL    HW218825   1.635   8.942   4.776 -0.9111 -0.6834  0.0157
36683SOL     OW18826   3.109  12.107   5.291 -0.0937  1.0446 -0.1811
36683SOL    HW118827   3.136  12.198   5.278  0.4647  1.2544  1.9480
36683SOL    HW218828   3.172  12.056   5.240 -0.0195  1.8266 -0.8936
36684SOL     OW18829   2.090   4.785   3.803  0.0537  0.0403 -0.1926
36684SOL    HW118830   2.169   4.752   3.760 -0.2236  0.5170 -1.1000
36684SOL    HW218831   2.027   4.714   3.795  0.8756 -1.0516  2.0906
36685SOL     OW18832   7.980   2.403   5.918  0.2010 -0.4613 -0.0072
36685SOL    HW118833   7.977   2.489   5.961  0.5028 -0.8826  0.8758
36685SOL    HW218834   7.967   2.340   5.989  2.6582 -1.2566 -0.1850
36686SOL     OW18835   5.484  10.800  11.121 -0.3218 -0.3724  0.3171
36686SOL    HW118836   5.506  10.882  11.165 -0.6724 -0.1209  0.0210
36686SOL    HW218837   5.569  10.757  11.109 -0.2491 -0.6966  1.7120
36687SOL     OW18838   6.571   3.748   0.832  0.0575 -0.2149 -0.6907
36687SOL    HW118839   6.660   3.715   0.821  0.4374  0.6549 -0.3916
36687SOL    HW218840   6.536   3.700   0.906  0.2102 -0.6899 -0.9233
36688SOL     OW18841   5.463  10.747   7.526 -0.2837  0.2561  0.0031
36688SOL    HW118842   5.452  10.821   7.467 -2.3707  1.0082  1.2169
36688SOL    HW218843   5.422  10.674   7.481 -1.6278  0.7661  0.3345
36689SOL     OW18844  10.977  11.545  12.141 -0.7163  0.0601  0.1667
36689SOL    HW118845  10.909  11.528  12.207 -0.3879  1.6299  0.9642
36689SOL    HW218846  11.056  11.505  12.176 -1.2149 -1.8703 -0.8161
36690SOL     OW18847   6.117   8.743  10.301  0.3459 -0.1454  0.3321
36690SOL    HW118848   6.053   8.788  10.246 -0.3464 -0.2966  0.9822
36690SOL    HW218849   6.136   8.805  10.371  2.0428  0.4697 -0.6310
36691SOL     OW18850  11.722   2.561  12.391 -0.1610 -0.0767  0.1883
36691SOL    HW118851  11.627   2.576  12.392 -0.1211  0.1437  1.0146
36691SOL    HW218852  11.731   2.471  12.361 -0.5714  0.2955 -1.1259
36692SOL     OW18853   8.915   5.695   5.386  0.1750 -0.2201  0.0103
36692SOL    HW118854   8.979   5.689   5.458  0.2649 -2.1037 -0.1784
36692SOL    HW218855   8.965   5.670   5.308 -0.4631 -0.4197 -0.3439
36693SOL     OW18856  10.397   1.176   4.251 -0.4684  0.1954 -0.0457
36693SOL    HW118857  10.372   1.199   4.341 -0.7476  0.7071 -0.2517
36693SOL    HW218858  10.370   1.084   4.242  3.6727 -1.4679  1.8964
36694SOL     OW18859   9.585   0.196  11.739  0.0989  0.0592  0.0395
36694SOL    HW118860   9.646   0.256  11.782 -0.4315  0.9351 -0.3891
36694SOL    HW218861   9.640   0.134  11.692  0.7016  1.5267 -1.2973
36695SOL     OW18862   3.181   5.807   2.166 -0.3233 -0.0967 -0.0128
36695SOL    HW118863   3.124   5.776   2.236  1.2894 -0.5740  1.1475
36695SOL    HW218864   3.168   5.743   2.095 -0.6388 -0.6542  0.5371
36696SOL     OW18865   8.343   1.475   1.289  0.1623 -0.0518 -0.2357
36696SOL    HW118866   8.411   1.540   1.272  1.1334 -0.0065  3.0946
36696SOL    HW218867   8.375   1.395   1.248  1.0607  0.5566 -0.7538
36697SOL     OW18868   8.653   2.137   2.614  0.0950 -0.1060  0.0303
36697SOL    HW118869   8.631   2.218   2.567  0.8811  0.2564  0.2716
36697SOL    HW218870   8.651   2.162   2.707 -2.1222 -0.9819  0.2798
36698SOL     OW18871   1.828   1.485  11.438  0.8697 -0.4228 -0.4413
36698SOL    HW118872   1.837   1.412  11.377  0.4587 -1.5581  0.8377
36698SOL    HW218873   1.771   1.547  11.392 -1.1579 -2.1831 -0.4158
36699SOL     OW18874   1.801   0.990   1.956 -0.0937 -0.0482 -0.4167
36699SOL    HW118875   1.810   1.071   2.005  0.1539 -0.3595  0.0617
36699SOL    HW218876   1.791   0.922   2.023  0.3706 -0.4944 -0.7885
36700SOL     OW18877   0.332   7.348   8.934 -0.5158  0.2620 -0.3696
36700SOL    HW118878   0.410   7.292   8.941 -0.8409 -0.1392  0.0751
36700SOL    HW218879   0.282   7.312   8.862 -1.4949 -1.0076  0.8840
36701SOL     OW18880   7.482   5.764   1.859 -0.1857  0.7356 -0.4249
36701SOL    HW118881   7.438   5.680   1.863 -0.3626  0.8211 -0.5542
36701SOL    HW218882   7.437   5.811   1.788  0.3219  0.7018 -0.7785
36702SOL     OW18883   0.312   2.218   7.935 -0.5558 -0.2324 -0.5289
36702SOL    HW118884   0.342   2.194   7.848 -0.9526 -0.6214 -0.5617
36702SOL    HW218885   0.236   2.161   7.951 -1.7461  1.2228 -0.7562
36703SOL     OW18886  12.170   1.195   3.242  0.2473 -0.0483 -0.4137
36703SOL    HW118887  12.149   1.204   3.149  0.3684 -1.6422 -0.6270
36703SOL    HW218888  12.263   1.214   3.248  0.6242 -1.5321 -0.9295
36704SOL     OW18889   1.967   7.959   3.339  0.3047 -0.0677 -0.1484
36704SOL    HW118890   2.030   7.967   3.411  1.5276 -1.3582 -1.0133
36704SOL    HW218891   2.019   7.972   3.260 -0.8380  0.3972 -0.8485
36705SOL     OW18892  11.122  12.037   7.621  0.0076 -0.2610 -0.1622
36705SOL    HW118893  11.180  12.098   7.667  0.7361 -2.1718  1.6929
36705SOL    HW218894  11.168  12.017   7.539  0.7877  0.1082  0.1710
36706SOL     OW18895   4.909  10.715   5.126 -0.1248 -0.3567 -0.2182
36706SOL    HW118896   4.903  10.806   5.155  0.1380 -0.6658  0.8586
36706SOL    HW218897   4.928  10.666   5.206  0.0336 -1.3245 -0.8358
36707SOL     OW18898   4.480   8.665   1.282  0.1961  0.2759  0.0612
36707SOL    HW118899   4.511   8.617   1.358  0.4729  0.7336  0.2474
36707SOL    HW218900   4.384   8.657   1.285  0.2439 -0.3617  0.0110
36708SOL     OW18901   2.632   9.713   5.350 -0.2880 -0.0622 -0.1834
36708SOL    HW118902   2.560   9.731   5.288 -0.9855 -0.7720  0.3989
36708SOL    HW218903   2.621   9.620   5.372  2.2692 -0.8796 -1.9272
36709SOL     OW18904  11.928   5.360  11.536 -0.1799  0.0136  0.1528
36709SOL    HW118905  12.013   5.403  11.524 -1.0198  1.5005 -0.7984
36709SOL    HW218906  11.941   5.272  11.501  0.7271  0.5038 -0.8197
36710SOL     OW18907   5.072  10.760   2.243 -0.0773  0.2375 -0.3432
36710SOL    HW118908   5.121  10.743   2.324  0.1916  2.4051 -0.0037
36710SOL    HW218909   5.106  10.695   2.181  0.2988 -0.9410  1.0322
36711SOL     OW18910   8.808   7.587  10.829 -0.6107  0.2874 -0.6324
36711SOL    HW118911   8.888   7.547  10.864 -2.7374 -1.6338  2.5956
36711SOL    HW218912   8.778   7.525  10.762  0.5057  1.0087 -1.8473
36712SOL     OW18913   1.898   4.386   2.656 -0.1159 -0.2587 -0.0870
36712SOL    HW118914   1.805   4.364   2.652 -0.3899 -0.0276  2.8483
36712SOL    HW218915   1.901   4.474   2.694  1.2876 -0.5128  0.4748
36713SOL     OW18916   3.084  11.688   2.010 -0.7760 -0.7489  0.2449
36713SOL    HW118917   3.118  11.748   2.076  2.3262 -2.5392  0.4997
36713SOL    HW218918   3.036  11.622   2.060 -0.1958 -0.9706  0.5259
36714SOL     OW18919   9.232   8.651  12.391  0.5882 -0.6549  0.3676
36714SOL    HW118920   9.189   8.674  12.308 -1.0159 -0.3818  1.2402
36714SOL    HW218921   9.241   8.555  12.387  0.9898 -0.5975 -0.3255
36715SOL     OW18922   8.131   7.838   1.991  0.3683 -0.0473  0.1877
36715SOL    HW118923   8.144   7.931   2.009  0.2781 -0.2224  1.2011
36715SOL    HW218924   8.219   7.803   1.980  0.5201 -0.2010  1.7276
36716SOL     OW18925   3.402   3.248   4.660  0.8605 -0.2133 -0.0309
36716SOL    HW118926   3.313   3.263   4.689  1.3851 -0.1147  1.6231
36716SOL    HW218927   3.427   3.329   4.615  0.8278  0.6212  1.4024
36717SOL     OW18928  10.688   0.662   3.246 -0.3960 -0.4250 -0.4244
36717SOL    HW118929  10.732   0.724   3.189  0.1059 -0.5029 -0.1303
36717SOL    HW218930  10.645   0.716   3.313  0.5371 -0.4147  0.1783
36718SOL     OW18931   0.251   3.292  11.070 -0.1285  0.0832 -0.0339
36718SOL    HW118932   0.325   3.241  11.103  0.3652  1.1792  0.6267
36718SOL    HW218933   0.275   3.383  11.088 -2.0174  0.4358  1.0343
36719SOL     OW18934   5.344   9.734   6.581  0.2003 -0.2373 -0.2890
36719SOL    HW118935   5.436   9.708   6.581  1.6745  4.1038  1.5224
36719SOL    HW218936   5.338   9.802   6.514 -1.7062 -0.3311 -0.2755
36720SOL     OW18937   5.284   0.713   0.825  0.1175 -0.0056 -0.5007
36720SOL    HW118938   5.348   0.660   0.778  0.2640 -0.8156  0.5796
36720SOL    HW218939   5.321   0.802   0.823 -0.1498  0.1029 -2.3461
36721SOL     OW18940   5.923   5.603  11.436 -0.0636 -0.6486 -0.1006
36721SOL    HW118941   5.948   5.678  11.490 -0.0564  1.1403 -2.4481
36721SOL    HW218942   5.994   5.540  11.449  0.6428  0.3130  0.8765
36722SOL     OW18943   1.361   7.780  10.584  0.6866  0.1984  0.2573
36722SOL    HW118944   1.387   7.812  10.670 -1.7088  0.7825  0.8368
36722SOL    HW218945   1.280   7.731  10.600 -0.5788  1.4456 -1.7882
36723SOL     OW18946   5.189   6.326   9.884 -0.4381  0.1024  0.9797
36723SOL    HW118947   5.156   6.298   9.969 -0.4244  1.4353  1.4358
36723SOL    HW218948   5.112   6.331   9.828 -0.7039  0.9882  1.4167
36724SOL     OW18949   4.609   3.068   3.243  0.3106  0.0333  0.0541
36724SOL    HW118950   4.523   3.109   3.249  1.2268  2.0891  0.1481
36724SOL    HW218951   4.635   3.054   3.334  0.5815  0.6075  0.0720
36725SOL     OW18952   0.940   1.251   6.963 -0.0514 -0.0153  0.6546
36725SOL    HW118953   0.880   1.295   7.023 -1.5296 -1.3136  0.2174
36725SOL    HW218954   0.893   1.171   6.937  1.0578 -0.1110 -1.2447
36726SOL     OW18955   5.796   0.819   2.339 -0.1303 -0.4516 -0.1282
36726SOL    HW118956   5.854   0.830   2.263 -1.5781  0.1640 -1.1908
36726SOL    HW218957   5.839   0.867   2.409 -1.1569  3.5336 -1.9049
36727SOL     OW18958   8.826   1.883  10.205  0.8758 -0.5019 -0.6136
36727SOL    HW118959   8.769   1.811  10.230 -1.0947  0.7516 -1.2738
36727SOL    HW218960   8.909   1.864  10.249  0.0760 -2.5652  0.1183
36728SOL     OW18961   0.557   1.682   7.355  0.4443 -0.2395  0.1756
36728SOL    HW118962   0.571   1.776   7.357  1.3883 -0.3368 -0.9037
36728SOL    HW218963   0.492   1.668   7.287  0.3253 -0.3711  0.3159
36729SOL     OW18964  10.404   2.335  12.493  0.2746  0.0298  0.0696
36729SOL    HW118965  10.310   2.314  12.487  0.0928  1.2635 -2.6416
36729SOL    HW218966  10.410   2.391  12.570 -0.7169 -2.1000  1.8315
36730SOL     OW18967   0.315   6.992   9.864  0.0538  0.2175  0.3838
36730SOL    HW118968   0.311   7.071   9.810 -0.6268  0.1053  0.2606
36730SOL    HW218969   0.371   7.016   9.938 -0.7113  1.0541  0.7139
36731SOL     OW18970   6.448   0.801  10.345  0.4151 -0.1614 -0.3205
36731SOL    HW118971   6.501   0.762  10.276 -0.2388 -1.1014 -0.3182
36731SOL    HW218972   6.457   0.740  10.419  0.2899  0.2961  0.0705
36732SOL     OW18973   8.077   0.481   0.120  0.4919 -0.2323  0.2639
36732SOL    HW118974   7.986   0.498   0.144  0.0573 -0.1960 -1.3550
36732SOL    HW218975   8.108   0.564   0.083  0.4031 -0.9383 -1.4767
36733SOL     OW18976   6.850   2.753  11.882  0.8525 -0.5550  0.2482
36733SOL    HW118977   6.835   2.680  11.943 -2.3477 -0.7080 -0.5222
36733SOL    HW218978   6.856   2.711  11.796 -0.3068 -0.0143 -0.1185
36734SOL     OW18979  10.474   4.591   4.434  0.6968  0.2132 -0.9956
36734SOL    HW118980  10.521   4.513   4.463 -0.7315 -1.1664 -2.2273
36734SOL    HW218981  10.414   4.559   4.367 -1.2991  2.0683 -0.1912
36735SOL     OW18982   4.128  10.424   5.370  0.4544  0.1723  0.0679
36735SOL    HW118983   4.077  10.402   5.292 -0.2262 -0.1077  0.5823
36735SOL    HW218984   4.202  10.475   5.337  0.4588 -0.3895 -0.8161
36736SOL     OW18985   5.662   8.144   0.119  0.4000  0.0021 -0.3842
36736SOL    HW118986   5.657   8.062   0.167 -0.3697  0.5484  0.4959
36736SOL    HW218987   5.656   8.119   0.027  1.5749 -1.0328 -0.2117
36737SOL     OW18988   0.226   0.625   2.299 -0.2886  0.0916 -0.1124
36737SOL    HW118989   0.182   0.593   2.220  0.1668  1.0892 -0.7951
36737SOL    HW218990   0.169   0.694   2.331  0.1810  0.5859 -0.3304
36738SOL     OW18991   1.032   9.442   2.436 -0.0267 -0.1786  0.1727
36738SOL    HW118992   0.952   9.453   2.487 -0.4922 -0.2070 -0.5493
36738SOL    HW218993   1.103   9.460   2.499 -0.6017  0.2727  0.7031
36739SOL     OW18994   1.053  10.238   3.158  0.0707  0.2831  0.0186
36739SOL    HW118995   1.106  10.167   3.193  1.1051  0.5578 -0.9281
36739SOL    HW218996   0.967  10.199   3.142 -0.6480  0.2586  3.2496
36740SOL     OW18997   6.039   9.364   1.378 -0.0438 -0.3733  0.4398
36740SOL    HW118998   6.076   9.344   1.463 -0.8107  1.8873  1.3778
36740SOL    HW218999   5.957   9.314   1.375 -0.1998 -0.1807  1.2193
36741SOL     OW19000  12.357   1.984   0.411  0.3602  0.4413 -0.1453
36741SOL    HW119001  12.401   2.068   0.395 -0.1497  0.4617 -1.5487
36741SOL    HW219002  12.302   2.000   0.488  0.3565  1.3575 -0.3285
36742SOL     OW19003   1.947   3.557   0.823  0.4153  0.1031  0.4538
36742SOL    HW119004   1.907   3.618   0.761  1.6667  0.8330  0.3232
36742SOL    HW219005   2.024   3.603   0.856  0.6719 -0.9097  1.3402
36743SOL     OW19006   6.021   0.838  11.408 -0.1332  0.9166  0.2569
36743SOL    HW119007   5.977   0.762  11.446  1.4356  1.0314  2.5242
36743SOL    HW219008   6.071   0.875  11.481  0.9185  2.8140 -1.3371
36744SOL     OW19009   2.457   5.847   7.245  0.0828  0.3263  0.8754
36744SOL    HW119010   2.475   5.766   7.294  0.3818  0.0096  0.2530
36744SOL    HW219011   2.525   5.849   7.177 -1.3428 -0.1537 -0.6312
36745SOL     OW19012  11.663   4.918   6.147 -0.0139 -0.1216 -0.0668
36745SOL    HW119013  11.684   5.006   6.115 -1.1525 -0.1049 -0.8348
36745SOL    HW219014  11.734   4.863   6.115  1.6463  0.7542  1.8575
36746SOL     OW19015   4.648  11.918   4.257 -0.4409 -0.0858 -0.1286
36746SOL    HW119016   4.707  11.931   4.183 -0.4875 -1.9385 -0.5479
36746SOL    HW219017   4.626  12.006   4.287  0.2958  0.6784 -1.7428
36747SOL     OW19018   9.401   2.752   2.607  0.0347  0.9474 -0.0145
36747SOL    HW119019   9.401   2.672   2.659 -2.4162 -0.1618 -1.5397
36747SOL    HW219020   9.410   2.722   2.517 -0.2712  2.4402 -0.5757
36748SOL     OW19021   0.946   4.632   3.285 -0.5706  0.2482 -0.3134
36748SOL    HW119022   0.948   4.547   3.330 -0.2440  0.2654 -0.2947
36748SOL    HW219023   0.961   4.696   3.354 -0.0951  0.2771 -0.4374
36749SOL     OW19024   1.389   6.315   0.376  0.3496  0.3080  0.1286
36749SOL    HW119025   1.440   6.369   0.437 -1.5459  2.0984  0.2175
36749SOL    HW219026   1.380   6.370   0.298 -0.9217 -0.1911 -0.0937
36750SOL     OW19027  11.409   8.901   1.210  0.4208 -0.6491  0.4539
36750SOL    HW119028  11.392   8.836   1.142 -0.9797 -1.3683  1.4244
36750SOL    HW219029  11.396   8.853   1.292 -0.6929  0.8312  1.1953
36751SOL     OW19030   8.724  11.797  11.890  0.0712 -0.4488  0.5863
36751SOL    HW119031   8.769  11.799  11.805 -1.2717 -1.4524 -0.1823
36751SOL    HW219032   8.788  11.834  11.951  1.0604  0.3161 -0.8542
36752SOL     OW19033  12.256   8.487   2.907 -0.1491 -0.1593  0.3708
36752SOL    HW119034  12.258   8.571   2.860  1.4843  0.1412  0.9167
36752SOL    HW219035  12.230   8.510   2.996  2.0575  0.0808  1.0102
36753SOL     OW19036   5.227   5.628  12.098 -0.6474  0.1057 -0.4170
36753SOL    HW119037   5.263   5.647  12.012  0.8698 -0.2913  0.0921
36753SOL    HW219038   5.244   5.534  12.110 -4.6058 -0.9191 -1.3586
36754SOL     OW19039  10.231   9.867  11.341 -0.4184 -0.2603 -0.3694
36754SOL    HW119040  10.230   9.960  11.361 -1.4997 -0.4489  0.5560
36754SOL    HW219041  10.157   9.853  11.282  0.9447 -0.2326 -2.2028
36755SOL     OW19042   6.288   7.390   1.096 -0.1754  0.4408 -0.0488
36755SOL    HW119043   6.234   7.464   1.122 -0.2010  0.4292 -0.0690
36755SOL    HW219044   6.331   7.419   1.015 -0.2940  0.3816 -0.1328
36756SOL     OW19045   0.411   9.759  10.088  0.4995 -0.0485 -0.3740
36756SOL    HW119046   0.470   9.819  10.041 -1.2438  2.2401  0.2065
36756SOL    HW219047   0.447   9.755  10.177  0.2150  0.8040 -0.2055
36757SOL     OW19048  11.273   3.684   3.587  0.3960  0.6526 -0.0156
36757SOL    HW119049  11.248   3.748   3.653  1.1654  0.1110  0.8341
36757SOL    HW219050  11.279   3.734   3.505  0.7651  1.6225  0.5872
36758SOL     OW19051   0.437   0.110   4.623 -0.2390  0.0251  0.0757
36758SOL    HW119052   0.354   0.083   4.662  0.1052 -1.1002  0.0659
36758SOL    HW219053   0.451   0.050   4.550  1.6094 -1.2592  1.3869
36759SOL     OW19054   1.399   2.329   9.108 -0.1601  0.3194 -0.3764
36759SOL    HW119055   1.308   2.346   9.133 -0.0582 -0.2951  0.4422
36759SOL    HW219056   1.447   2.403   9.143 -0.0401 -0.4537  1.2108
36760SOL     OW19057   3.113  10.492   7.444 -0.2755  0.2038  0.3778
36760SOL    HW119058   3.049  10.534   7.502 -0.8196 -1.1666  0.7921
36760SOL    HW219059   3.091  10.399   7.446  1.2885 -0.2133 -0.0204
36761SOL     OW19060   0.326   0.329  12.379  0.3720 -0.4408  0.0501
36761SOL    HW119061   0.340   0.407  12.433  2.1187  0.0633 -1.0517
36761SOL    HW219062   0.233   0.309  12.390  0.1221  1.1503  1.2060
36762SOL     OW19063   7.465   3.926  12.451 -0.1926  0.1806  0.4153
36762SOL    HW119064   7.474   3.864  12.524 -1.4026  0.0869  0.5061
36762SOL    HW219065   7.494   3.877  12.374  1.1798  0.3062  0.8245
36763SOL     OW19066   8.822   8.112  11.478  0.2445  0.3630  0.3330
36763SOL    HW119067   8.818   8.043  11.544  0.9281 -0.3032 -0.3080
36763SOL    HW219068   8.771   8.078  11.405 -0.8596  1.2756  0.6451
36764SOL     OW19069   1.966  10.386   4.135 -0.1773  0.2387  0.0950
36764SOL    HW119070   2.001  10.470   4.106 -0.6174  0.3928 -0.0085
36764SOL    HW219071   1.900  10.410   4.200 -2.1975  0.1510 -1.8069
36765SOL     OW19072   3.238  10.352   8.607 -0.1728 -0.1382 -0.0225
36765SOL    HW119073   3.191  10.273   8.633 -0.3091 -0.1575 -0.3197
36765SOL    HW219074   3.330  10.327   8.608  0.0147  0.3863  2.3010
36766SOL     OW19075  12.524   9.674   2.231  0.5840  0.6072  0.4264
36766SOL    HW119076  12.519   9.578   2.232  0.2963  0.5905 -1.0702
36766SOL    HW219077  12.557   9.697   2.318 -2.2438 -0.6857  1.9785
36767SOL     OW19078   7.336   7.081   7.579  0.7884 -0.5365 -0.6412
36767SOL    HW119079   7.376   7.021   7.642  0.9398  0.9222  0.7020
36767SOL    HW219080   7.379   7.165   7.594  0.6473 -0.0697 -2.5495
36768SOL     OW19081  12.319   5.511   7.000  0.8994  0.0244 -0.1993
36768SOL    HW119082  12.304   5.552   6.915 -0.7438  0.1510  0.1156
36768SOL    HW219083  12.231   5.492   7.033  1.4760  0.3762  1.6542
36769SOL     OW19084   9.614   2.584   3.272 -0.2416  0.4284 -0.1663
36769SOL    HW119085   9.577   2.608   3.357 -0.3321  0.2624 -0.1573
36769SOL    HW219086   9.707   2.572   3.289 -0.2703  0.3323 -0.0765
36770SOL     OW19087   1.771  12.341   8.942 -0.0981 -0.1160 -0.2296
36770SOL    HW119088   1.728  12.426   8.932 -1.1766 -0.7534 -1.2996
36770SOL    HW219089   1.765  12.301   8.856  1.4502 -0.8132 -0.0470
36771SOL     OW19090   9.134   5.804  11.883 -0.0672 -0.0709 -0.1434
36771SOL    HW119091   9.081   5.777  11.808 -0.6527 -1.3770  0.6925
36771SOL    HW219092   9.172   5.887  11.857  0.3534 -0.8333 -2.1842
36772SOL     OW19093   0.512  11.465   0.491 -0.1601 -0.6318 -0.4350
36772SOL    HW119094   0.521  11.558   0.511 -0.5707 -0.5778 -0.4863
36772SOL    HW219095   0.588  11.444   0.437 -0.9695  0.0807 -1.8915
36773SOL     OW19096  10.481   6.182  12.543 -0.2462  0.2794 -0.0692
36773SOL    HW119097  10.456   6.255  12.599 -0.0641  0.1009  0.2463
36773SOL    HW219098  10.515   6.116  12.603 -0.5762 -0.1364 -0.3371
36774SOL     OW19099   6.884   5.989   2.023  0.3593 -0.3115 -0.1859
36774SOL    HW119100   6.878   5.943   2.106  0.9919 -1.4751 -0.7721
36774SOL    HW219101   6.854   5.926   1.958  0.8463  0.2403 -0.9606
36775SOL     OW19102   3.422   3.134   8.491 -0.2593  0.3482  0.1185
36775SOL    HW119103   3.369   3.182   8.427 -0.6749 -0.0505  0.1537
36775SOL    HW219104   3.512   3.142   8.460 -0.5189 -0.3101 -0.8126
36776SOL     OW19105   8.652   7.167  10.699 -0.8768 -0.0159 -0.3337
36776SOL    HW119106   8.693   7.180  10.785 -0.9039  0.8936 -0.4461
36776SOL    HW219107   8.723   7.136  10.643 -0.3635  1.3142 -0.4670
36777SOL     OW19108   6.828   1.160   2.439 -0.5478 -0.1325 -0.5730
36777SOL    HW119109   6.839   1.130   2.529  0.3347 -0.1058 -0.6560
36777SOL    HW219110   6.799   1.250   2.446 -1.6570 -0.4995 -0.3204
36778SOL     OW19111   5.539   1.766   2.394  0.3459 -0.3317 -0.3714
36778SOL    HW119112   5.586   1.764   2.477 -0.8446 -2.2076  0.3135
36778SOL    HW219113   5.603   1.802   2.332 -0.1482  5.9625  2.0409
36779SOL     OW19114   7.112   7.107   2.988 -0.3264 -0.5552  0.3585
36779SOL    HW119115   7.136   7.025   2.945 -1.1934 -1.5178  1.6252
36779SOL    HW219116   7.082   7.164   2.917  1.2399 -0.9533 -0.6697
36780SOL     OW19117  10.318   6.580   6.730 -0.6825 -0.7748  0.0892
36780SOL    HW119118  10.367   6.661   6.736  0.1167 -1.3091  1.2122
36780SOL    HW219119  10.341   6.543   6.645 -1.6494  0.5131 -0.7655
36781SOL     OW19120   3.615   3.206  11.246 -0.2960 -0.6202 -0.3163
36781SOL    HW119121   3.639   3.169  11.330 -0.9675 -0.0011  0.1657
36781SOL    HW219122   3.679   3.275  11.230  0.7014 -1.6764 -1.0138
36782SOL     OW19123   8.069  11.551   1.319 -0.4512 -0.0362 -0.2488
36782SOL    HW119124   8.142  11.609   1.299 -0.6882 -0.1306 -1.5171
36782SOL    HW219125   8.007  11.606   1.367 -0.2020  0.4727 -0.4999
36783SOL     OW19126  12.088   5.374   1.015 -0.7330  0.1417  0.4895
36783SOL    HW119127  12.092   5.376   0.919  0.5169  0.8864  0.5280
36783SOL    HW219128  12.026   5.304   1.035  1.2369 -2.1612 -0.8390
36784SOL     OW19129  10.651   1.970   0.448  0.2050 -0.2578  0.3951
36784SOL    HW119130  10.698   2.042   0.405  1.1497 -0.7128  0.6473
36784SOL    HW219131  10.558   1.991   0.435  0.4106 -0.7026 -2.4456
36785SOL     OW19132   6.663   3.658  11.242 -0.0707  0.3482 -0.1588
36785SOL    HW119133   6.716   3.589  11.282 -0.7945  0.5783  1.2764
36785SOL    HW219134   6.719   3.696  11.174  0.0472 -2.2164 -1.6472
36786SOL     OW19135   7.156   3.446   8.223 -0.9478 -0.1587  0.0110
36786SOL    HW119136   7.176   3.357   8.251 -0.3691  0.3095  1.1561
36786SOL    HW219137   7.222   3.500   8.266 -1.5892  0.8783 -0.2700
36787SOL     OW19138  11.789   4.864  12.516  0.3923 -0.3718  0.0369
36787SOL    HW119139  11.698   4.879  12.493  0.4764  1.5578  0.7293
36787SOL    HW219140  11.786   4.799  12.587 -0.3679 -0.8877 -0.4616
36788SOL     OW19141   5.859   9.692  10.701  0.0316 -0.2780 -0.2319
36788SOL    HW119142   5.838   9.785  10.688 -0.6031 -0.6149 -1.8754
36788SOL    HW219143   5.788   9.645  10.657  0.7545 -1.5288 -0.1036
36789SOL     OW19144   9.369   4.173   6.739 -0.1396 -0.0965  0.3081
36789SOL    HW119145   9.284   4.175   6.782 -0.7772 -1.2930 -0.8306
36789SOL    HW219146   9.387   4.080   6.724  1.8924  0.0430  1.4801
36790SOL     OW19147   3.761   7.871  10.919 -0.1669 -0.0091  0.0903
36790SOL    HW119148   3.802   7.907  10.841 -0.0576  1.6438  0.8752
36790SOL    HW219149   3.749   7.778  10.899 -1.8082  0.6962 -2.5903
36791SOL     OW19150   6.349  12.075   6.465  0.2618  0.0206  0.3392
36791SOL    HW119151   6.377  12.164   6.446 -0.6116 -0.0291 -1.3402
36791SOL    HW219152   6.360  12.028   6.382  3.0663 -2.1274  1.7338
36792SOL     OW19153   0.330   5.069   5.840 -0.5989  0.4303 -0.4164
36792SOL    HW119154   0.249   5.114   5.864 -0.3281  1.8021 -1.9010
36792SOL    HW219155   0.398   5.136   5.849  0.7006 -1.0850  2.3009
36793SOL     OW19156   6.971  10.693   0.301 -0.3437 -0.0462  0.5684
36793SOL    HW119157   6.971  10.734   0.388 -3.0766  0.9360  0.2095
36793SOL    HW219158   6.895  10.635   0.302 -0.1758 -0.3297 -1.0188
36794SOL     OW19159   7.795  12.514   4.193 -0.3987  0.2741  0.0517
36794SOL    HW119160   7.816  12.474   4.108  2.8316 -2.2110  1.8105
36794SOL    HW219161   7.709  12.478   4.215  0.0727 -1.5308 -0.8434
36795SOL     OW19162  10.829   8.925   0.445  0.7506  0.3296 -0.1896
36795SOL    HW119163  10.891   8.857   0.470  0.1963 -0.6483 -1.3499
36795SOL    HW219164  10.873   8.971   0.373  0.1358 -0.4143 -1.0656
36796SOL     OW19165   3.726   0.261   9.254 -0.0419  0.6731  0.1102
36796SOL    HW119166   3.793   0.252   9.322 -1.8120 -3.2654  1.6450
36796SOL    HW219167   3.643   0.259   9.301 -1.4427 -3.7888 -1.9717
36797SOL     OW19168   0.218   9.457   4.401  0.4629  0.3710  0.0668
36797SOL    HW119169   0.232   9.504   4.319  1.3457  2.3744  1.2802
36797SOL    HW219170   0.125   9.469   4.420  0.8071  2.3773  0.7226
36798SOL     OW19171   5.662   2.379   0.647 -0.0374 -0.1101 -0.7599
36798SOL    HW119172   5.666   2.432   0.726  1.4323 -0.2280 -0.7372
36798SOL    HW219173   5.724   2.420   0.586  0.8566 -1.5588 -0.8694
36799SOL     OW19174   8.306  10.952   5.956  0.7559  0.4214 -0.2842
36799SOL    HW119175   8.355  11.031   5.936  0.3243  0.0281 -3.4250
36799SOL    HW219176   8.216  10.972   5.929  0.5877 -1.0129 -0.8622
36800SOL     OW19177   5.185   4.196   8.976 -0.2000 -0.1925  0.4537
36800SOL    HW119178   5.259   4.217   9.033  0.5904  0.2804 -0.7303
36800SOL    HW219179   5.224   4.156   8.899 -1.2061 -0.2390 -0.0483
36801SOL     OW19180  12.388  11.893   2.713 -0.1524 -0.7360 -0.3090
36801SOL    HW119181  12.461  11.915   2.655  0.4660  0.1586  0.7729
36801SOL    HW219182  12.312  11.936   2.674 -0.2051 -1.9658 -1.6413
36802SOL     OW19183   4.468   1.827   2.528 -0.0080 -0.2326  0.6038
36802SOL    HW119184   4.394   1.790   2.575 -0.1817 -0.7490 -0.0518
36802SOL    HW219185   4.518   1.750   2.499  0.1431  0.0751  0.0411
36803SOL     OW19186   6.857   3.634   5.975 -0.5861 -0.2877 -0.0812
36803SOL    HW119187   6.942   3.674   5.995 -0.6333  0.2263 -0.8435
36803SOL    HW219188   6.880   3.552   5.932 -0.4861 -0.6792  0.7017
36804SOL     OW19189   8.200  11.651   1.046  0.1964 -0.1379  0.6211
36804SOL    HW119190   8.260  11.606   0.987  1.9266  0.8576  1.5472
36804SOL    HW219191   8.255  11.683   1.117 -0.9591  3.0546  0.2579
36805SOL     OW19192   1.887   3.993  10.531 -0.3171 -0.1871  0.1109
36805SOL    HW119193   1.950   3.958  10.469  0.8463  0.8060  0.6920
36805SOL    HW219194   1.886   3.931  10.604  0.9225  0.4016  0.6487
36806SOL     OW19195   6.872   4.928   6.986  0.0192 -0.3355 -0.5348
36806SOL    HW119196   6.931   4.904   6.914 -0.3404 -1.5325 -0.4631
36806SOL    HW219197   6.926   4.923   7.064  0.6202  1.7547 -0.7551
36807SOL     OW19198  10.392   2.140   7.549  0.0802  0.1282  0.5976
36807SOL    HW119199  10.348   2.088   7.481 -0.5766  1.4490 -0.0121
36807SOL    HW219200  10.481   2.105   7.550  0.5529  1.0123 -2.0016
36808SOL     OW19201   6.859  12.198   8.530 -0.4975 -0.5712  0.1745
36808SOL    HW119202   6.775  12.244   8.540  0.1265  1.3494 -2.3983
36808SOL    HW219203   6.925  12.263   8.551  0.4066 -1.4981  0.3062
36809SOL     OW19204   6.958   6.975   4.227  0.6082 -0.0980  0.7244
36809SOL    HW119205   6.872   6.942   4.252  0.9226 -0.6857  1.0612
36809SOL    HW219206   6.999   7.001   4.310  0.7197  0.2728  0.5557
36810SOL     OW19207   4.666   1.040  10.755 -0.1457  0.2015  0.3811
36810SOL    HW119208   4.608   1.059  10.829 -1.3978  3.7195 -1.3249
36810SOL    HW219209   4.733   1.108  10.759 -0.4821  0.7509 -1.8831
36811SOL     OW19210   7.129   3.657   6.186 -0.0575 -0.7006  0.4054
36811SOL    HW119211   7.206   3.612   6.150 -1.0664 -1.7331 -0.5591
36811SOL    HW219212   7.079   3.588   6.230 -0.2899  0.0178  1.2845
36812SOL     OW19213   5.091   7.567   7.304 -0.3828 -0.5002 -1.0546
36812SOL    HW119214   5.087   7.506   7.230  0.8067 -2.8833  0.6918
36812SOL    HW219215   5.038   7.526   7.372  2.7549 -1.2759  1.1884
36813SOL     OW19216   0.234   8.562   5.640  0.2102  0.3061  0.3043
36813SOL    HW119217   0.241   8.629   5.572 -0.6191 -0.2909 -0.3971
36813SOL    HW219218   0.189   8.604   5.713  0.5358  0.7730  0.2385
36814SOL     OW19219   9.239  10.757   3.429 -0.5031  0.6185  0.4573
36814SOL    HW119220   9.329  10.786   3.416  0.7661 -3.4952 -1.4465
36814SOL    HW219221   9.237  10.725   3.519  1.3746 -2.9897 -0.5943
36815SOL     OW19222   7.106   4.087   9.348 -0.1410  0.1702  0.6467
36815SOL    HW119223   7.030   4.132   9.311 -0.3545  0.3550  1.2894
36815SOL    HW219224   7.176   4.153   9.344 -0.3069  0.3766  1.0706
36816SOL     OW19225   4.463   0.105   3.000 -0.1080  0.0810  0.1978
36816SOL    HW119226   4.447   0.168   2.929  1.7662 -1.0441 -1.3452
36816SOL    HW219227   4.430   0.148   3.078  0.1495  2.5528 -0.9455
36817SOL     OW19228   3.370   5.407   7.978  0.1742 -0.3329  0.8028
36817SOL    HW119229   3.382   5.324   8.026  1.4225 -1.5105 -1.3404
36817SOL    HW219230   3.290   5.394   7.928 -0.8663  0.6983  2.1595
36818SOL     OW19231   2.950   9.988   7.413  0.5070 -0.5519  0.6039
36818SOL    HW119232   2.952   9.931   7.490  1.0090 -0.8793  0.3493
36818SOL    HW219233   2.962   9.928   7.339 -1.1136 -0.4102  0.1694
36819SOL     OW19234   2.124   9.117   2.887  0.2518 -0.3487 -0.3764
36819SOL    HW119235   2.145   9.068   2.967 -1.2337  1.8513  1.4910
36819SOL    HW219236   2.065   9.186   2.916 -1.1215 -0.0077 -3.5820
36820SOL     OW19237   2.759   1.348   8.933 -0.5960  0.5995 -0.3580
36820SOL    HW119238   2.802   1.264   8.942 -1.9776  0.0239  2.0134
36820SOL    HW219239   2.802   1.404   8.998 -1.2915  0.9396 -0.1726
36821SOL     OW19240   5.785   2.471   1.615  0.6844  0.0122 -0.4274
36821SOL    HW119241   5.880   2.482   1.615  0.6360  0.4579  0.3560
36821SOL    HW219242   5.753   2.538   1.675  0.0686 -1.6977  1.2538
36822SOL     OW19243   8.141  12.344  12.324 -0.3483 -0.3831 -0.4708
36822SOL    HW119244   8.098  12.427  12.304 -1.2647 -0.4937  0.8907
36822SOL    HW219245   8.092  12.279  12.273 -0.7209 -0.2921 -0.2326
36823SOL     OW19246  12.562   0.785   4.872 -0.0131 -0.4335  0.4499
36823SOL    HW119247  12.581   0.878   4.873 -0.6054 -0.3084  0.3983
36823SOL    HW219248  12.467   0.779   4.882 -0.0082 -1.0205  0.2218
36824SOL     OW19249   9.063   3.611   9.626 -0.0975  0.3934  0.0321
36824SOL    HW119250   9.146   3.594   9.672 -0.7549  0.1503  1.1468
36824SOL    HW219251   9.036   3.525   9.594  0.1505  0.4983 -0.4730
36825SOL     OW19252   5.129   1.693   1.221 -0.1784  0.0385 -0.0806
36825SOL    HW119253   5.173   1.610   1.202 -1.6611 -0.2859 -2.5461
36825SOL    HW219254   5.044   1.667   1.257 -1.0932  0.3502 -1.8688
36826SOL     OW19255   9.226   6.566   5.438 -0.7964 -0.3491 -0.4717
36826SOL    HW119256   9.299   6.558   5.376 -0.9146 -1.2382 -0.5197
36826SOL    HW219257   9.260   6.621   5.508 -0.7445  0.8981 -1.4450
36827SOL     OW19258   9.093   1.435   2.473 -0.4800  0.2407 -0.7172
36827SOL    HW119259   9.125   1.516   2.512  0.0537 -0.1419 -0.3563
36827SOL    HW219260   9.171   1.394   2.435 -0.7256 -0.1582 -0.7966
36828SOL     OW19261   4.488   6.869   6.795  0.6379  0.8220  0.9581
36828SOL    HW119262   4.507   6.861   6.701  0.5184 -0.8299  1.0419
36828SOL    HW219263   4.398   6.903   6.798  0.0055 -0.6836  0.4123
36829SOL     OW19264   6.595  10.167   9.163 -0.1758  0.2609 -0.9329
36829SOL    HW119265   6.576  10.242   9.107  0.7764 -0.1813 -1.8719
36829SOL    HW219266   6.557  10.092   9.117 -1.2779  0.1638  0.0836
36830SOL     OW19267   0.466   2.910  12.253 -0.0700  0.1536  0.7358
36830SOL    HW119268   0.477   2.987  12.197  0.7343 -0.0509  0.6003
36830SOL    HW219269   0.506   2.936  12.336  1.7149 -0.6672  0.1832
36831SOL     OW19270  11.177   5.109   9.857  0.8788  0.4822  0.8490
36831SOL    HW119271  11.239   5.073   9.793 -0.0324 -0.0687  0.2602
36831SOL    HW219272  11.232   5.134   9.932  1.8813  0.5425  0.1116
36832SOL     OW19273   8.637  11.065   1.943  0.4908 -0.4042 -0.4606
36832SOL    HW119274   8.626  10.998   1.875  0.1622 -1.4560  0.5896
36832SOL    HW219275   8.731  11.085   1.942  0.8420 -1.8953  0.1060
36833SOL     OW19276   0.212   4.369   9.100 -0.3267 -0.2459 -0.4934
36833SOL    HW119277   0.198   4.296   9.040  2.1608 -0.0421 -1.4393
36833SOL    HW219278   0.150   4.436   9.070 -1.8244 -1.5116 -0.3414
36834SOL     OW19279   8.009   7.327   3.104  0.2960 -0.4610 -0.0994
36834SOL    HW119280   7.924   7.366   3.126 -0.4802 -1.3879 -1.2991
36834SOL    HW219281   8.023   7.351   3.012  1.8304  0.5008  0.3365
36835SOL     OW19282   0.331  11.651   6.465  0.4550  0.4777 -0.0474
36835SOL    HW119283   0.329  11.592   6.539  2.4306  1.7257  1.0918
36835SOL    HW219284   0.297  11.734   6.499  0.9022  0.9250 -0.6590
36836SOL     OW19285  11.894  10.954   5.262 -0.0621  0.3571 -0.0036
36836SOL    HW119286  11.875  11.005   5.183 -1.9156  2.7244  1.8037
36836SOL    HW219287  11.811  10.910   5.281  0.1545  0.3443  0.9348
36837SOL     OW19288   9.552   0.725  10.454  0.1383 -0.0684 -0.5138
36837SOL    HW119289   9.458   0.713  10.463  0.0214  0.4860 -0.9453
36837SOL    HW219290   9.579   0.656  10.393  0.4045 -1.7157  1.3719
36838SOL     OW19291   8.599   6.188   2.944  0.1174 -0.0759  0.8737
36838SOL    HW119292   8.513   6.179   2.903 -0.3631 -0.3548  1.9179
36838SOL    HW219293   8.659   6.142   2.884 -0.6943 -1.2103  0.9045
36839SOL     OW19294   9.848   1.385   5.941  0.6754  0.2166 -0.4688
36839SOL    HW119295   9.893   1.337   5.872 -0.6133  0.7360 -1.7322
36839SOL    HW219296   9.846   1.325   6.015 -0.0778 -1.3465 -1.7043
36840SOL     OW19297   3.614   7.939   7.843 -0.3171  0.6564  0.0994
36840SOL    HW119298   3.707   7.948   7.863 -0.2838  2.5801 -0.6484
36840SOL    HW219299   3.573   7.912   7.925  0.7562  0.9302  0.7364
36841SOL     OW19300   9.629   2.320   2.396 -0.8513  0.4976  0.1464
36841SOL    HW119301   9.604   2.229   2.378 -1.1401  0.9857 -2.1886
36841SOL    HW219302   9.618   2.329   2.491 -2.1391 -1.5156  0.2545
36842SOL     OW19303   7.227  11.781   9.343  0.4633  0.1622  0.2477
36842SOL    HW119304   7.170  11.797   9.268 -0.0778 -0.9008  0.4220
36842SOL    HW219305   7.292  11.852   9.339 -0.7524  1.2977 -0.0446
36843SOL     OW19306   8.836  12.090   5.057  0.2215 -0.0632  0.0163
36843SOL    HW119307   8.774  12.155   5.022  0.3154 -0.1997 -0.4027
36843SOL    HW219308   8.895  12.141   5.113 -0.5481  0.0003  0.7935
36844SOL     OW19309   4.918   8.066   5.908  0.0792  0.4834 -0.2125
36844SOL    HW119310   4.979   8.106   5.971 -0.0436 -0.3970  0.4951
36844SOL    HW219311   4.930   8.116   5.828  1.4261  0.6183  0.0408
36845SOL     OW19312   2.548   9.008   9.379 -0.5742  0.2371 -0.5536
36845SOL    HW119313   2.604   9.004   9.457 -0.2152  1.0139 -0.7578
36845SOL    HW219314   2.555   9.099   9.350 -2.0888  0.3985 -0.4939
36846SOL     OW19315  10.694   8.348   2.756 -0.2038  0.2259 -0.9292
36846SOL    HW119316  10.621   8.393   2.715 -0.7854 -0.2935 -0.4914
36846SOL    HW219317  10.669   8.255   2.754  0.2524  0.0843 -0.4162
36847SOL     OW19318   1.696   1.944   5.059 -0.7547 -0.5149 -0.5761
36847SOL    HW119319   1.668   1.878   5.123 -0.2892  1.1759  1.5119
36847SOL    HW219320   1.783   1.915   5.032  0.6863  0.5170  2.4583
36848SOL     OW19321  11.305   1.976   2.582  0.3877 -0.4669  0.4079
36848SOL    HW119322  11.264   2.030   2.515 -0.9135 -0.2967  1.2981
36848SOL    HW219323  11.262   1.891   2.575  0.1056 -0.3911  1.1257
36849SOL     OW19324   9.168   1.692   5.084  0.2646 -0.4153  0.1748
36849SOL    HW119325   9.175   1.761   5.150  0.1883 -1.3777  1.2141
36849SOL    HW219326   9.152   1.739   5.002  0.2132  0.7965  0.8556
36850SOL     OW19327   3.569   0.813  10.037  0.5263 -0.1781  0.0512
36850SOL    HW119328   3.642   0.850  10.086  0.6293 -0.1328 -0.1375
36850SOL    HW219329   3.491   0.848  10.080  0.4988 -2.4848  2.1572
36851SOL     OW19330   3.680   9.428   5.810 -0.1735 -0.3778  0.1880
36851SOL    HW119331   3.661   9.335   5.821 -0.9441 -0.0368  2.1291
36851SOL    HW219332   3.598   9.464   5.774 -0.1539 -0.3192  0.2033
36852SOL     OW19333  10.423   7.640   8.974  0.1983  0.0373  0.4486
36852SOL    HW119334  10.507   7.660   9.015  1.2896 -1.2974 -1.0222
36852SOL    HW219335  10.409   7.710   8.911 -0.2649  0.7477  1.3210
36853SOL     OW19336  10.013   1.060   3.125 -0.1131 -0.6010 -0.2504
36853SOL    HW119337   9.994   1.066   3.219 -1.2166 -1.3215 -0.4124
36853SOL    HW219338   9.948   1.118   3.084 -0.6316 -1.4632 -0.6706
36854SOL     OW19339   5.683   1.848   8.160 -0.2586  0.1009  0.1216
36854SOL    HW119340   5.635   1.766   8.148 -0.8215  0.4025  0.3135
36854SOL    HW219341   5.751   1.846   8.092 -0.3471 -0.4688  0.0465
36855SOL     OW19342   0.787   1.456   1.385  0.3894  0.4034 -0.0681
36855SOL    HW119343   0.797   1.510   1.307  0.5603 -2.0038 -1.8025
36855SOL    HW219344   0.696   1.427   1.383  0.4508  0.1421  0.5256
36856SOL     OW19345   8.899   2.556   7.457  0.3840  0.2918  0.1300
36856SOL    HW119346   8.936   2.494   7.393 -0.2863 -0.5343  0.5205
36856SOL    HW219347   8.820   2.513   7.489 -1.1340  2.1374 -0.9098
36857SOL     OW19348   5.409   6.363   9.108  0.3027 -0.3256  0.2191
36857SOL    HW119349   5.325   6.347   9.064 -1.0590  0.9506  2.1937
36857SOL    HW219350   5.403   6.453   9.139  2.3964 -0.2324  0.4979
36858SOL     OW19351   0.990  10.257   2.752  0.9320  0.6949 -0.5294
36858SOL    HW119352   1.073  10.258   2.703  0.7215  1.2953 -0.8853
36858SOL    HW219353   0.988  10.171   2.794  2.3122  1.1067  0.4710
36859SOL     OW19354   5.679   5.154  12.382  0.4892 -0.3397 -0.2425
36859SOL    HW119355   5.651   5.109  12.461  1.0522  2.0027  1.3736
36859SOL    HW219356   5.730   5.088  12.334  0.8156 -1.5775  1.7152
36860SOL     OW19357   5.790   0.734   7.640  0.1987  0.2339 -0.1143
36860SOL    HW119358   5.743   0.656   7.612 -0.3359  0.6928 -0.5213
36860SOL    HW219359   5.756   0.753   7.727  0.5745 -0.1713  0.1271
36861SOL     OW19360   5.190  12.032   5.752 -0.2283 -0.3019  0.2072
36861SOL    HW119361   5.205  11.997   5.840  0.0286 -2.7841 -0.7605
36861SOL    HW219362   5.095  12.035   5.742 -0.2883  1.0193  0.9031
36862SOL     OW19363   5.197   5.670   2.861  0.1160  0.0789  0.6772
36862SOL    HW119364   5.266   5.628   2.912 -0.9159 -1.5856  0.7795
36862SOL    HW219365   5.117   5.653   2.911 -0.8300 -0.9366 -1.0748
36863SOL     OW19366   2.184   3.691   5.512  0.0818  0.1273 -0.4440
36863SOL    HW119367   2.169   3.613   5.565 -0.3434  0.6627  0.2504
36863SOL    HW219368   2.236   3.748   5.569 -1.1239  1.0695 -0.2458
36864SOL     OW19369   1.251  11.650  11.119 -0.0443  0.3766 -0.4294
36864SOL    HW119370   1.172  11.696  11.146 -0.5006 -1.0793  0.8476
36864SOL    HW219371   1.222  11.561  11.099  1.2704 -0.2270  0.1976
36865SOL     OW19372   7.665  10.831   0.178  0.2751  0.5031 -0.2253
36865SOL    HW119373   7.636  10.873   0.258  1.0661 -0.1818  0.4348
36865SOL    HW219374   7.649  10.738   0.192  1.3608  0.2645 -0.4299
36866SOL     OW19375   0.341   0.087   1.844 -0.2287  0.0032 -0.1272
36866SOL    HW119376   0.311   0.133   1.766  1.8039 -0.7251 -1.4083
36866SOL    HW219377   0.274   0.106   1.910 -2.1651  0.3870 -2.0982
36867SOL     OW19378   3.449  12.335   5.077  0.0869  0.1002  0.2318
36867SOL    HW119379   3.501  12.334   5.157  0.1171 -2.3599  0.2419
36867SOL    HW219380   3.384  12.404   5.091  1.2162  0.9384  1.5967
36868SOL     OW19381   4.465   0.339  10.156  0.1434  0.4976  0.0943
36868SOL    HW119382   4.491   0.417  10.107 -0.5857  0.0166 -1.1166
36868SOL    HW219383   4.396   0.369  10.214 -1.1357  0.5314 -1.3707
36869SOL     OW19384   5.254   3.452   6.743  0.3929  0.7256  0.0491
36869SOL    HW119385   5.190   3.415   6.682 -0.2264  1.5538  0.1883
36869SOL    HW219386   5.339   3.433   6.702  0.1034 -0.6722  0.0217
36870SOL     OW19387  10.277   1.099   7.346  0.0058 -0.1406  0.7115
36870SOL    HW119388  10.251   1.060   7.430  0.3866  0.4248  1.1044
36870SOL    HW219389  10.299   1.190   7.369  0.2471 -0.0253  0.0187
36871SOL     OW19390  11.945   6.257   8.550 -0.3785 -0.5884  0.1650
36871SOL    HW119391  11.853   6.269   8.526 -0.6654 -0.8782  1.0614
36871SOL    HW219392  11.958   6.317   8.623 -0.1020 -1.1679  0.6018
36872SOL     OW19393   6.151   8.257   5.250  0.1918 -0.2155 -0.4167
36872SOL    HW119394   6.242   8.266   5.220  0.4430  0.8443  0.6029
36872SOL    HW219395   6.138   8.163   5.261  0.3617 -0.6166 -2.9372
36873SOL     OW19396  10.896   8.358   3.676  0.0230  0.0575 -0.7853
36873SOL    HW119397  10.846   8.324   3.750  1.0730 -0.7619 -0.4243
36873SOL    HW219398  10.911   8.450   3.698 -0.8553  0.1838 -0.6609
36874SOL     OW19399   8.506   4.951   9.686  0.1990 -0.7799 -0.3721
36874SOL    HW119400   8.505   4.982   9.776 -1.0274 -1.3648 -0.1623
36874SOL    HW219401   8.566   4.876   9.687 -0.3022 -1.1831  0.1118
36875SOL     OW19402   1.630  11.858  10.309 -0.6408  0.5105 -0.1234
36875SOL    HW119403   1.569  11.888  10.377 -0.6714  0.2698 -0.0432
36875SOL    HW219404   1.675  11.783  10.349  0.6964  1.5066  0.3480
36876SOL     OW19405   5.765   4.902   7.282  0.2328 -0.0754 -0.6448
36876SOL    HW119406   5.847   4.935   7.317 -0.5253  1.2176 -0.0292
36876SOL    HW219407   5.788   4.870   7.194  1.3810  0.2452 -0.4809
36877SOL     OW19408  10.127   5.545  10.531 -0.4754  0.0384 -0.4089
36877SOL    HW119409  10.138   5.608  10.460 -1.6315 -1.3201 -1.8609
36877SOL    HW219410  10.032   5.543  10.546 -0.3000 -0.1002  0.8260
36878SOL     OW19411   5.580   1.625   7.745 -0.1371  0.1673  0.2918
36878SOL    HW119412   5.502   1.670   7.711  0.3727 -0.4505 -1.8429
36878SOL    HW219413   5.547   1.539   7.773 -0.7964  1.1331  2.7562
36879SOL     OW19414   6.091   5.901   8.271 -0.2696  0.0562 -0.1053
36879SOL    HW119415   6.082   5.830   8.207  1.4071 -1.2396  1.0294
36879SOL    HW219416   6.160   5.956   8.235 -0.5608  0.3192 -0.2667
36880SOL     OW19417   5.982   3.530   2.628 -0.1164  0.1296 -0.1551
36880SOL    HW119418   5.896   3.506   2.663 -0.3138  1.9430  0.7335
36880SOL    HW219419   5.966   3.547   2.535 -0.3834 -1.0150 -0.3311
36881SOL     OW19420   2.352   8.390   4.050  0.0046  0.1576  0.0818
36881SOL    HW119421   2.339   8.325   3.981  2.3837 -0.3645  0.0627
36881SOL    HW219422   2.334   8.474   4.008 -0.8610 -0.3052 -0.5070
36882SOL     OW19423   0.406   5.889   6.481  0.3663  0.0704 -0.3558
36882SOL    HW119424   0.320   5.928   6.494 -0.5505 -1.6213 -1.0787
36882SOL    HW219425   0.442   5.933   6.404 -0.2831  0.0402 -0.6727
36883SOL     OW19426   9.118   2.315   0.531  0.0518 -0.0390 -0.1095
36883SOL    HW119427   9.145   2.231   0.568  0.7180  0.2555  0.0811
36883SOL    HW219428   9.153   2.380   0.591 -3.1243  0.3570  1.5377
36884SOL     OW19429   3.270   2.796   2.210 -0.0029  0.3668 -0.2801
36884SOL    HW119430   3.226   2.714   2.186 -0.6645 -1.5669  5.8094
36884SOL    HW219431   3.361   2.772   2.224  0.3118  1.2895 -0.6387
36885SOL     OW19432   0.023   6.617   3.638  0.3646  0.2486  0.5795
36885SOL    HW119433   0.047   6.557   3.566 -2.6145  1.4216 -1.6166
36885SOL    HW219434   0.013   6.702   3.596  0.5533  1.4709  2.8620
36886SOL     OW19435   7.669   7.247   0.084  0.0701  0.0070  0.0005
36886SOL    HW119436   7.744   7.195   0.113  1.6398 -0.3131 -4.0142
36886SOL    HW219437   7.695   7.338   0.101  0.2597 -0.1937  0.8623
36887SOL     OW19438  10.409   3.565  12.245 -0.0121  0.8134  0.1079
36887SOL    HW119439  10.355   3.621  12.190  0.0322  1.7710  1.0171
36887SOL    HW219440  10.481   3.538  12.188 -1.6808 -0.9391 -1.3001
36888SOL     OW19441   6.787   3.717   3.510 -0.2052  0.3021 -0.0053
36888SOL    HW119442   6.867   3.771   3.514  0.4743 -0.5731 -1.1331
36888SOL    HW219443   6.722   3.774   3.470 -0.0192  0.8714  0.4866
36889SOL     OW19444   5.395   5.070   9.687  0.1712  0.0626  0.7780
36889SOL    HW119445   5.308   5.063   9.727  0.2782  0.7345  1.1458
36889SOL    HW219446   5.377   5.082   9.593 -0.1012 -0.7749  0.7161
36890SOL     OW19447   3.874   7.958  10.671  1.0739  0.3478  0.7058
36890SOL    HW119448   3.891   8.026  10.606 -1.8507 -0.2466 -0.8552
36890SOL    HW219449   3.884   7.875  10.622 -2.9619 -0.0750  0.3179
36891SOL     OW19450   1.005  11.917  12.393 -0.2457 -0.3676 -0.2532
36891SOL    HW119451   1.085  11.884  12.353  0.6583  1.8644 -0.4261
36891SOL    HW219452   0.957  11.958  12.321 -0.4591  0.2755  0.2387
36892SOL     OW19453   3.065  12.252  10.807  0.2892  0.1446 -0.1121
36892SOL    HW119454   3.159  12.235  10.806  0.3463  0.3499  0.8702
36892SOL    HW219455   3.057  12.346  10.827 -0.1398 -0.0717  0.7626
36893SOL     OW19456  12.044   5.094   9.221 -0.4312  0.5641 -0.4710
36893SOL    HW119457  12.069   5.031   9.154  1.2660  1.6293 -0.9044
36893SOL    HW219458  11.953   5.072   9.242 -0.7879 -0.2342 -2.6098
36894SOL     OW19459   0.728   0.085   6.852  0.0054  0.3810 -0.6349
36894SOL    HW119460   0.689   0.104   6.766  2.2778  0.3455 -1.7478
36894SOL    HW219461   0.798   0.149   6.860 -0.4466  0.6748  1.4496
36895SOL     OW19462   2.096  11.798   8.749  0.1094 -0.0188  0.0599
36895SOL    HW119463   2.183  11.828   8.725 -0.0163  1.4424  1.2423
36895SOL    HW219464   2.086  11.824   8.841 -1.0921 -1.2924  0.3248
36896SOL     OW19465   1.907   0.745   7.871  0.4302  0.2686  0.0069
36896SOL    HW119466   1.855   0.667   7.892 -0.6966  0.4554 -1.8657
36896SOL    HW219467   1.880   0.809   7.937 -1.3061  0.1628 -0.5578
36897SOL     OW19468  10.181   9.535   9.832  0.2672 -0.4669  0.2958
36897SOL    HW119469  10.131   9.546   9.751  0.3008 -1.1241  0.1784
36897SOL    HW219470  10.210   9.444   9.830  1.4815 -0.1055  0.3636
36898SOL     OW19471   3.727   9.364   7.044  0.1355  0.1937 -0.0991
36898SOL    HW119472   3.663   9.421   7.001 -2.2970 -0.6148  2.1411
36898SOL    HW219473   3.772   9.421   7.106 -0.6538  0.1593  0.5141
36899SOL     OW19474   8.302   0.300  12.384  0.5137  0.0008  0.4357
36899SOL    HW119475   8.274   0.386  12.355 -0.7736 -0.3348  0.6003
36899SOL    HW219476   8.331   0.255  12.305  2.2848  0.9468  0.5051
36900SOL     OW19477   6.322   0.461   5.125  0.0659 -0.0216  0.4425
36900SOL    HW119478   6.343   0.540   5.075  0.7975  1.1216  2.4504
36900SOL    HW219479   6.399   0.446   5.179 -0.3296 -1.7721  0.5774
36901SOL     OW19480  11.491   1.720   0.548 -0.1493 -0.5092 -0.3941
36901SOL    HW119481  11.539   1.651   0.595 -0.0906  0.1445  0.5171
36901SOL    HW219482  11.429   1.755   0.612 -0.6126 -0.1324 -1.0388
36902SOL     OW19483   5.832  10.808   4.297  0.5891 -0.3187  0.4788
36902SOL    HW119484   5.885  10.732   4.277  1.7802  0.3796  0.8735
36902SOL    HW219485   5.892  10.882   4.287 -0.4178  0.5283  0.5482
36903SOL     OW19486  11.853   1.280   6.259 -0.1186  0.5676  0.1859
36903SOL    HW119487  11.876   1.209   6.200 -0.8759  0.4347  0.0520
36903SOL    HW219488  11.916   1.349   6.239  0.5814 -0.0318  0.2727
36904SOL     OW19489   2.005   9.938   1.515 -0.6654 -0.3890  0.4270
36904SOL    HW119490   1.954   9.860   1.497 -0.5236  0.0476 -2.2982
36904SOL    HW219491   1.942  10.010   1.512 -0.4415 -0.1790  0.6115
36905SOL     OW19492   3.349   4.732   1.760 -0.0583  0.1469 -0.1572
36905SOL    HW119493   3.432   4.769   1.730  0.5060 -0.3593  0.7350
36905SOL    HW219494   3.366   4.638   1.768 -0.3727  0.1717  1.0889
36906SOL     OW19495   2.693   7.815   2.000 -0.4345  0.0306  0.0422
36906SOL    HW119496   2.610   7.768   1.994  0.2159 -0.9680 -2.0348
36906SOL    HW219497   2.674   7.902   1.965 -0.5596 -0.2562 -0.6001
36907SOL     OW19498   7.136   1.391   3.942  0.2733  0.0290  0.3451
36907SOL    HW119499   7.200   1.419   4.007  0.1850 -0.5438  0.6850
36907SOL    HW219500   7.068   1.347   3.993 -1.0130  1.6974  0.1362
36908SOL     OW19501   3.980   0.029   8.081 -0.0042  0.4091  0.2949
36908SOL    HW119502   4.059   0.070   8.116 -0.6547  1.5403  0.4694
36908SOL    HW219503   3.966  -0.048   8.137  0.5321  0.6466  0.7596
36909SOL     OW19504   3.516   0.461   4.028  0.3525  0.3290  0.5135
36909SOL    HW119505   3.586   0.527   4.027  0.5757  0.1062  1.0642
36909SOL    HW219506   3.562   0.377   4.028  0.0619  0.1440 -1.0213
36910SOL     OW19507  12.106   5.867   1.371 -0.3597  0.2096  0.3385
36910SOL    HW119508  12.056   5.944   1.343 -0.6204 -0.2658 -0.5268
36910SOL    HW219509  12.043   5.796   1.373 -0.2236  0.1058  1.6174
36911SOL     OW19510  11.610   1.153  10.139 -0.0869  0.0382 -0.3876
36911SOL    HW119511  11.576   1.184  10.223  0.0513 -0.2781 -0.2137
36911SOL    HW219512  11.533   1.142  10.084 -0.4837 -2.2775  0.5155
36912SOL     OW19513  10.728  11.666   2.250  0.3986  0.4146 -0.1563
36912SOL    HW119514  10.752  11.690   2.160 -0.1409  0.3226 -0.3271
36912SOL    HW219515  10.723  11.571   2.249 -1.3740  0.4889 -0.4966
36913SOL     OW19516   3.455   8.431   2.586 -0.4036 -0.0971  0.1703
36913SOL    HW119517   3.449   8.335   2.589 -0.5573 -0.0977 -0.0793
36913SOL    HW219518   3.532   8.452   2.639 -0.7833 -0.3129  0.8198
36914SOL     OW19519   5.385   7.625   7.336  0.0256  0.0465  0.4811
36914SOL    HW119520   5.392   7.650   7.428 -1.0542  0.5289  0.4513
36914SOL    HW219521   5.291   7.617   7.320  0.2257 -1.2816 -0.2624
36915SOL     OW19522   2.844   1.695   3.937 -0.2981 -0.0248  0.1830
36915SOL    HW119523   2.805   1.643   3.867 -0.5351 -0.7492  0.8406
36915SOL    HW219524   2.912   1.747   3.893 -0.5533 -0.3465 -0.6069
36916SOL     OW19525   5.434   2.170   7.310  0.1853  0.0942 -0.4484
36916SOL    HW119526   5.369   2.101   7.324  0.4110 -0.0297  0.0172
36916SOL    HW219527   5.414   2.205   7.223  1.8274 -2.4747 -2.0241
36917SOL     OW19528   8.590   0.409   2.322  0.6612 -0.2451 -0.0179
36917SOL    HW119529   8.613   0.497   2.350 -2.8697  0.5141  1.0044
36917SOL    HW219530   8.648   0.352   2.372  0.4867  1.4310  2.2552
36918SOL     OW19531   5.531   0.483   5.651 -0.6623 -0.2941  0.0659
36918SOL    HW119532   5.616   0.458   5.614 -1.8834 -2.5305 -1.4863
36918SOL    HW219533   5.545   0.483   5.745  1.3555  0.6947 -0.1722
36919SOL     OW19534   9.814   8.616   0.262  0.3998 -0.5572 -0.5032
36919SOL    HW119535   9.909   8.602   0.269  0.2264 -2.1298 -0.9762
36919SOL    HW219536   9.790   8.656   0.345  1.3543 -0.9598 -0.0134
36920SOL     OW19537  10.558   4.449  10.328  0.4884  0.5899 -0.1057
36920SOL    HW119538  10.551   4.354  10.317  1.0568  0.6283 -0.8452
36920SOL    HW219539  10.642   4.462  10.372 -0.0337  0.6948  0.8911
36921SOL     OW19540   7.334   2.901   2.802 -0.1714 -0.2710  0.0341
36921SOL    HW119541   7.404   2.839   2.780  0.9870  0.8601  0.4064
36921SOL    HW219542   7.343   2.971   2.738  0.6379  1.0653  1.5360
36922SOL     OW19543   2.009  12.310  11.999 -0.2688  0.4120 -0.5428
36922SOL    HW119544   1.989  12.339  11.910 -2.2030  1.5757  0.2097
36922SOL    HW219545   1.926  12.277  12.032  0.6444 -0.9251  0.5304
36923SOL     OW19546   3.936   4.775  10.062 -0.1868 -0.2874 -0.0178
36923SOL    HW119547   4.025   4.741  10.064 -0.3285 -0.6856 -0.3388
36923SOL    HW219548   3.939   4.852  10.118  0.2206 -0.6345  0.4531
36924SOL     OW19549  11.936   4.864   5.504  0.1884 -0.1804  0.0535
36924SOL    HW119550  11.903   4.775   5.502 -0.5469  0.0851 -1.6660
36924SOL    HW219551  12.025   4.858   5.471  1.1671 -0.6012  2.5785
36925SOL     OW19552  10.624   2.173   0.672 -0.5684 -0.2276  0.0481
36925SOL    HW119553  10.633   2.242   0.737 -0.8415  0.8870 -1.0750
36925SOL    HW219554  10.598   2.218   0.592  2.3574 -1.1637 -1.5881
36926SOL     OW19555  11.200   8.050   2.461  0.3705 -0.1661  0.5375
36926SOL    HW119556  11.157   8.081   2.541 -0.5940 -0.5917  0.2024
36926SOL    HW219557  11.246   8.127   2.427  1.8470 -0.2695  2.1390
36927SOL     OW19558   0.935   4.862  11.836  0.0690 -0.2856  0.2472
36927SOL    HW119559   0.949   4.934  11.897  1.2092  0.4373 -0.8185
36927SOL    HW219560   1.022   4.827  11.820  0.4037  1.6686 -3.4322
36928SOL     OW19561  11.171   1.035   5.306  0.2962  0.6712  0.2578
36928SOL    HW119562  11.111   1.014   5.235 -0.0243 -2.0240  1.2212
36928SOL    HW219563  11.258   1.032   5.265  0.0244  0.7687 -0.3429
36929SOL     OW19564  10.399  10.357  10.513  0.2742 -0.5965  0.0468
36929SOL    HW119565  10.389  10.293  10.443  1.7049  0.0094 -0.7690
36929SOL    HW219566  10.459  10.316  10.575  1.6076  0.0925 -0.7308
36930SOL     OW19567  11.268   4.313   3.032 -0.1480  0.2946  0.1290
36930SOL    HW119568  11.285   4.406   3.048  0.9199 -0.1091  1.5391
36930SOL    HW219569  11.221   4.284   3.110  3.7700 -1.3857  2.1381
36931SOL     OW19570   1.505   5.082   0.219  0.0934 -0.1487 -0.0774
36931SOL    HW119571   1.462   5.135   0.286  0.9287 -0.8636  1.0647
36931SOL    HW219572   1.572   5.032   0.267  0.2095 -1.2467 -1.3246
36932SOL     OW19573   0.104   3.109   2.996 -0.6815 -0.3546  0.2024
36932SOL    HW119574   0.019   3.147   3.017 -1.7799 -0.1600 -3.7689
36932SOL    HW219575   0.160   3.184   2.977 -0.1925 -0.5438  0.8613
36933SOL     OW19576  10.325   9.663   0.999  0.0123  0.6035 -0.6001
36933SOL    HW119577  10.339   9.748   0.958  1.2966  1.7855  2.0766
36933SOL    HW219578  10.238   9.671   1.039  0.8764  1.3929  1.1969
36934SOL     OW19579   2.873   6.132   0.392 -0.3448  0.3754 -0.0926
36934SOL    HW119580   2.790   6.147   0.346 -1.0231  1.1630  1.3451
36934SOL    HW219581   2.853   6.067   0.459 -0.1049  1.4225  1.0292
36935SOL     OW19582   8.151   3.300   1.637 -0.1513 -0.2910 -0.4661
36935SOL    HW119583   8.074   3.260   1.595 -1.0029 -0.1775  0.9229
36935SOL    HW219584   8.217   3.231   1.635 -0.9204 -1.0574  0.0272
36936SOL     OW19585   5.449   1.319  12.458  0.4211 -0.2892  0.0203
36936SOL    HW119586   5.469   1.269  12.538  0.5316  0.5322  0.5160
36936SOL    HW219587   5.364   1.359  12.475 -0.1630 -1.1180 -0.7924
36937SOL     OW19588  10.060  11.367  11.422 -0.2588  0.3842 -0.1101
36937SOL    HW119589   9.979  11.406  11.388  0.2460 -0.4490 -2.4316
36937SOL    HW219590  10.043  11.273  11.422  0.3271  0.2712  0.4787
36938SOL     OW19591  11.905   1.237   0.037 -0.6486  0.4354  0.3194
36938SOL    HW119592  11.850   1.181   0.092 -1.6706  0.1690 -0.9233
36938SOL    HW219593  11.940   1.303   0.096 -0.6782 -0.5954  1.5208
36939SOL     OW19594   2.186   1.792   9.325 -0.3924  0.6616 -0.2077
36939SOL    HW119595   2.158   1.701   9.333 -0.0867  0.4833 -1.0830
36939SOL    HW219596   2.207   1.803   9.233  0.0965  1.4718 -0.0116
36940SOL     OW19597   4.522   8.023  12.395  0.2994  0.1409 -0.0962
36940SOL    HW119598   4.590   7.988  12.453 -0.4119 -0.0299  0.6441
36940SOL    HW219599   4.440   7.994  12.434 -0.3008  2.1410  0.2516
36941SOL     OW19600   7.159   1.738   9.540 -0.3352  0.2145 -0.3383
36941SOL    HW119601   7.168   1.654   9.495 -1.8892 -0.1907  0.0677
36941SOL    HW219602   7.240   1.747   9.591 -0.7219 -1.6717  0.6791
36942SOL     OW19603  10.155   9.584   0.226  1.2316  0.1188 -0.4887
36942SOL    HW119604  10.205   9.655   0.268  0.1698 -0.3719  1.7664
36942SOL    HW219605  10.207   9.505   0.242  0.5622 -0.1512  0.4577
36943SOL     OW19606   5.740   6.262   2.527 -0.3352 -0.1107  0.1842
36943SOL    HW119607   5.758   6.310   2.447  0.1548 -0.5729  0.0092
36943SOL    HW219608   5.666   6.205   2.505  0.5206 -1.0659 -0.3007
36944SOL     OW19609  10.461   0.421   4.889  0.1007 -0.1878 -0.1049
36944SOL    HW119610  10.477   0.393   4.979  1.4940  1.8560  0.3428
36944SOL    HW219611  10.502   0.354   4.835 -1.3680 -1.8189  0.6987
36945SOL     OW19612   7.145   7.227   4.653 -0.1171 -0.1521 -0.0588
36945SOL    HW119613   7.126   7.168   4.726  0.1581  1.1903  1.1245
36945SOL    HW219614   7.160   7.312   4.693 -1.2605  0.9318 -1.7743
36946SOL     OW19615   6.484   5.939  10.464  0.2228 -0.5275 -0.0625
36946SOL    HW119616   6.534   6.017  10.440 -1.8521  0.7421 -0.4771
36946SOL    HW219617   6.408   5.972  10.511  0.3831 -2.4822  1.7700
36947SOL     OW19618   0.121   0.066  10.909  0.0702 -0.1358 -0.5795
36947SOL    HW119619   0.157   0.017  10.983  1.6163  2.9455  0.8910
36947SOL    HW219620   0.178   0.044  10.836 -0.7276 -2.2592 -0.6486
36948SOL     OW19621  10.988   2.815   4.175 -0.4056 -0.3285  0.6517
36948SOL    HW119622  11.053   2.837   4.108 -0.9930  0.6629  0.3970
36948SOL    HW219623  10.929   2.754   4.131 -0.3080 -0.3423  0.5366
36949SOL     OW19624   3.477  10.741   5.720 -0.4843 -1.0243  0.0184
36949SOL    HW119625   3.408  10.779   5.665 -0.5000 -1.3245 -0.1714
36949SOL    HW219626   3.489  10.805   5.791  0.1325 -0.2270 -0.7946
36950SOL     OW19627   5.839   3.245   1.781 -0.0834 -0.4974  0.2249
36950SOL    HW119628   5.756   3.289   1.761 -0.1880 -0.5139  0.6095
36950SOL    HW219629   5.903   3.287   1.724 -0.6780 -1.7343 -1.4449
36951SOL     OW19630   6.858   3.777   0.459  0.0793  0.8176 -0.2538
36951SOL    HW119631   6.851   3.833   0.536  3.3464  0.0120  0.7695
36951SOL    HW219632   6.859   3.688   0.493  2.5571  0.4804 -1.0593
36952SOL     OW19633   4.014   5.576   6.554 -0.0794 -0.0424 -0.2261
36952SOL    HW119634   3.962   5.579   6.474  1.7232 -1.6463 -1.5452
36952SOL    HW219635   4.032   5.483   6.568  0.0233  0.2292  1.8207
36953SOL     OW19636   3.167   4.815   1.957 -0.3159  0.2136  0.2415
36953SOL    HW119637   3.253   4.803   1.916 -1.1218 -0.8629 -1.2313
36953SOL    HW219638   3.146   4.907   1.942  0.3686  0.3661  0.1868
36954SOL     OW19639   3.655   6.431  12.580  0.1234 -0.9422 -0.5088
36954SOL    HW119640   3.661   6.498  12.512  1.0067 -1.8736 -1.3840
36954SOL    HW219641   3.738   6.438  12.627 -0.9599  0.5397  1.3598
36955SOL     OW19642   3.139   6.119   1.172  0.7196  0.8274 -0.4410
36955SOL    HW119643   3.046   6.144   1.175  0.7359  0.9359  2.7254
36955SOL    HW219644   3.138   6.030   1.137 -0.8076  0.1776  1.0915
36956SOL     OW19645   6.931   0.510   9.669 -0.0722 -0.0302  0.1373
36956SOL    HW119646   6.903   0.494   9.579  1.5018  1.0833 -0.6088
36956SOL    HW219647   6.860   0.561   9.708 -1.1824 -1.3047 -0.1590
36957SOL     OW19648  11.038  12.310   1.539  0.1138  0.1997 -0.2744
36957SOL    HW119649  10.950  12.313   1.502  0.2042 -1.2188 -0.6644
36957SOL    HW219650  11.058  12.217   1.546  1.3229  0.4870  0.4569
36958SOL     OW19651   3.636   3.302   8.890 -0.0042  0.1084 -0.1732
36958SOL    HW119652   3.630   3.347   8.806  1.9201 -0.5356 -0.7219
36958SOL    HW219653   3.659   3.212   8.868  2.0342  0.2669  1.0449
36959SOL     OW19654   9.742  12.443  10.981  0.3294  0.4138  0.2324
36959SOL    HW119655   9.788  12.524  11.002  1.1699  0.1916 -0.6623
36959SOL    HW219656   9.799  12.373  11.013 -0.5838  0.1613  1.3757
36960SOL     OW19657   3.982   6.002   7.055 -0.1916 -0.2600  0.1908
36960SOL    HW119658   4.004   5.995   6.962  0.6887  4.1635 -0.1333
36960SOL    HW219659   4.052   6.056   7.092 -1.0394 -1.0856  3.2714
36961SOL     OW19660   8.677   5.550   0.498  0.0724 -0.1578 -0.1578
36961SOL    HW119661   8.767   5.566   0.468  0.1523 -0.7604 -0.2549
36961SOL    HW219662   8.642   5.637   0.516  0.6765  0.0872 -0.1197
36962SOL     OW19663   7.794   3.131   2.745  0.0334 -0.1039  0.3500
36962SOL    HW119664   7.753   3.111   2.829 -0.4441  0.2499  0.2059
36962SOL    HW219665   7.830   3.047   2.715 -0.6496 -0.4410  0.4494
36963SOL     OW19666   1.840   4.010   1.064  0.3993 -0.2674  0.4501
36963SOL    HW119667   1.817   4.006   0.971 -0.0723  0.3206  0.5340
36963SOL    HW219668   1.926   4.052   1.065  0.8946 -1.2384  0.2221
36964SOL     OW19669  10.892  12.420  11.426 -0.0606  0.0542  0.3720
36964SOL    HW119670  10.871  12.342  11.478  2.0897 -0.5427  0.4464
36964SOL    HW219671  10.880  12.493  11.486  1.0160 -0.5123  1.3380
36965SOL     OW19672  11.395   1.278   6.852 -0.4252 -0.3582 -0.5454
36965SOL    HW119673  11.357   1.344   6.910  0.2699  1.8160 -2.4013
36965SOL    HW219674  11.480   1.257   6.891 -1.3388 -1.4482  0.9328
36966SOL     OW19675   4.320   7.587   9.310 -0.1318 -0.1993 -0.1403
36966SOL    HW119676   4.389   7.643   9.344 -1.0523 -0.4543  2.3275
36966SOL    HW219677   4.366   7.525   9.253  1.4701  0.4908  0.3473
36967SOL     OW19678   9.370   1.727   6.242  0.1177 -0.1977 -0.1014
36967SOL    HW119679   9.366   1.686   6.328  0.8205  0.5257  0.2923
36967SOL    HW219680   9.380   1.654   6.181 -0.5040 -0.7231  0.4183
36968SOL     OW19681   1.429   4.260  11.688 -0.1453 -0.0192 -0.0413
36968SOL    HW119682   1.448   4.173  11.653  0.1802 -0.5282  1.3556
36968SOL    HW219683   1.514   4.295  11.714 -0.2687  0.7465 -0.6202
36969SOL     OW19684   8.537  10.440   0.661 -0.0794  0.0421 -0.3983
36969SOL    HW119685   8.557  10.532   0.678 -0.7207  0.1208 -0.0451
36969SOL    HW219686   8.568  10.394   0.740 -2.7354  0.3651  0.9549
36970SOL     OW19687   8.538   4.815   1.429 -0.3650  0.2667  0.2854
36970SOL    HW119688   8.520   4.908   1.442  1.2494  0.6309  0.0609
36970SOL    HW219689   8.628   4.803   1.460 -0.3381 -1.0896 -0.2607
36971SOL     OW19690  11.989   8.395   7.283  0.0412  0.4426  0.4565
36971SOL    HW119691  11.902   8.433   7.295 -0.3524  0.4174 -1.7788
36971SOL    HW219692  12.010   8.355   7.367 -2.2737  0.1401  0.9591
36972SOL     OW19693   4.485  10.440   1.728 -0.1146  0.4156  0.4625
36972SOL    HW119694   4.549  10.371   1.710  0.0375  0.8023 -0.5760
36972SOL    HW219695   4.500  10.463   1.819 -0.7794 -1.5330  1.1117
36973SOL     OW19696   4.135   7.210   8.253  0.5112  0.0845 -0.4663
36973SOL    HW119697   4.189   7.135   8.228  0.1851  0.4190 -2.3498
36973SOL    HW219698   4.196   7.271   8.295  1.0452 -0.6393 -0.1656
36974SOL     OW19699   1.803   4.219   2.362 -0.0051 -0.1204  0.4010
36974SOL    HW119700   1.793   4.211   2.457  0.4705 -0.8864  0.3989
36974SOL    HW219701   1.733   4.278   2.335 -2.0083 -2.1733  0.8520
36975SOL     OW19702   8.654   8.993   1.156 -0.4637 -0.2009 -0.2268
36975SOL    HW119703   8.611   9.037   1.229 -0.8255 -0.7194 -0.1186
36975SOL    HW219704   8.738   8.963   1.193  0.0678  0.9299 -0.4771
36976SOL     OW19705   2.569   5.618  12.315 -0.5159  0.2492  0.8085
36976SOL    HW119706   2.629   5.648  12.246 -0.9420 -1.5217 -0.3895
36976SOL    HW219707   2.502   5.686  12.319 -0.4162  0.4474 -0.4584
36977SOL     OW19708   8.755   2.113   5.888  0.2027 -0.5000  0.1492
36977SOL    HW119709   8.747   2.143   5.798  1.2449 -1.7230 -0.3822
36977SOL    HW219710   8.665   2.110   5.921 -0.3897 -1.7487 -1.4515
36978SOL     OW19711   1.765   1.885  12.106 -0.1354 -0.1430 -0.5651
36978SOL    HW119712   1.767   1.964  12.159  1.7239  0.1459 -0.9833
36978SOL    HW219713   1.707   1.825  12.154 -1.7127  1.4816 -0.3357
36979SOL     OW19714  10.953   5.260   7.414 -0.2756  0.0060  0.1419
36979SOL    HW119715  11.023   5.210   7.371 -0.5676 -1.5174  1.3636
36979SOL    HW219716  10.877   5.202   7.413 -0.8708  0.7398  0.8915
36980SOL     OW19717   7.713   3.266   0.770 -0.1259 -0.2877 -0.0955
36980SOL    HW119718   7.768   3.200   0.728 -0.8334 -1.5666  0.9442
36980SOL    HW219719   7.625   3.251   0.734 -0.7068 -1.2772  1.6303
36981SOL     OW19720  12.543   0.285  12.167 -0.3490  0.1698  0.4140
36981SOL    HW119721  12.461   0.247  12.200 -0.9708  1.1837  0.1003
36981SOL    HW219722  12.580   0.217  12.110 -1.2507 -0.1012  0.1317
36982SOL     OW19723   5.988   6.335  10.133  0.1819  0.0556  0.2843
36982SOL    HW119724   6.009   6.398  10.202  2.8205 -1.5867  1.1235
36982SOL    HW219725   6.052   6.352  10.064  1.6241 -2.2186  0.9500
36983SOL     OW19726   3.761   8.437   8.925 -0.2212 -0.4516  0.3904
36983SOL    HW119727   3.756   8.343   8.944  0.4179 -0.5680  0.0032
36983SOL    HW219728   3.816   8.443   8.847 -0.3814  0.2371  0.3227
36984SOL     OW19729   2.182   1.267   6.666  0.4919 -0.5505 -0.5075
36984SOL    HW119730   2.139   1.184   6.645 -1.1736  0.4018 -1.0854
36984SOL    HW219731   2.110   1.331   6.671  1.4161  0.4536  2.2598
36985SOL     OW19732   4.300   0.267  10.651 -0.1797  0.0362 -0.1915
36985SOL    HW119733   4.313   0.177  10.683 -0.8724  0.0573  0.1634
36985SOL    HW219734   4.348   0.321  10.715 -0.7431  0.0025  0.2690
36986SOL     OW19735  11.555   6.644   8.441  0.4117  0.3587  0.5096
36986SOL    HW119736  11.639   6.609   8.469 -0.3604 -1.4038  0.7801
36986SOL    HW219737  11.523   6.581   8.376 -0.0336  1.8063 -0.7285
36987SOL     OW19738   8.107   4.942   2.585 -0.3451  0.0671  0.1938
36987SOL    HW119739   8.134   4.978   2.500 -1.9974  1.8057  0.3374
36987SOL    HW219740   8.168   4.981   2.648 -0.5944  0.7059  0.0532
36988SOL     OW19741   6.013   8.877   8.578  0.3032 -0.0309  0.1235
36988SOL    HW119742   6.029   8.817   8.505  1.6419  0.4098  0.0230
36988SOL    HW219743   6.084   8.941   8.572 -0.4208  0.8770  0.9310
36989SOL     OW19744   4.875  11.164   5.206  0.1242 -0.3908  0.5269
36989SOL    HW119745   4.917  11.114   5.136 -1.9235 -0.8465 -0.4438
36989SOL    HW219746   4.845  11.244   5.163 -1.9220 -1.0555  0.5969
36990SOL     OW19747   7.579   9.634   1.543  0.2535  0.1928 -0.1258
36990SOL    HW119748   7.488   9.663   1.543 -0.2633 -1.2757  1.2564
36990SOL    HW219749   7.576   9.544   1.510  1.3476  0.4469 -0.9910
36991SOL     OW19750   0.535   5.911   8.670 -0.2581 -1.0382  0.3766
36991SOL    HW119751   0.551   5.987   8.727  1.9417 -0.6574 -0.6436
36991SOL    HW219752   0.499   5.844   8.729  0.0751 -0.0164  1.8032
36992SOL     OW19753   5.956   1.140   6.688  0.2594  0.0506  0.2087
36992SOL    HW119754   6.006   1.195   6.628  1.4181  2.8404  3.4183
36992SOL    HW219755   5.885   1.104   6.635  2.8801 -0.2370 -3.4384
36993SOL     OW19756   6.904   0.858   1.630  0.3270 -0.4233 -0.4617
36993SOL    HW119757   6.828   0.910   1.654 -0.6544 -1.3623 -1.4207
36993SOL    HW219758   6.926   0.809   1.709  0.0592 -0.0035 -0.1226
36994SOL     OW19759   8.463   4.741   4.375 -0.2455  0.3709  0.3451
36994SOL    HW119760   8.427   4.806   4.314 -2.0348  0.1441  1.0895
36994SOL    HW219761   8.387   4.691   4.403  0.7183 -0.3112  1.8427
36995SOL     OW19762   3.141   5.041  11.818 -0.2703  0.0123 -0.0339
36995SOL    HW119763   3.076   5.038  11.748 -0.8310 -1.5308  0.5242
36995SOL    HW219764   3.118   4.968  11.876  1.0442  0.3763  0.9922
36996SOL     OW19765   3.990  10.248   0.340 -0.4046  0.2910 -0.1133
36996SOL    HW119766   3.953  10.277   0.424 -1.5324  0.4395 -0.6324
36996SOL    HW219767   3.978  10.323   0.282  0.2275  0.1316 -0.4555
36997SOL     OW19768   4.192  11.362   0.503  0.6524 -0.4236  0.5395
36997SOL    HW119769   4.247  11.342   0.427  0.2280  0.5157 -0.0262
36997SOL    HW219770   4.143  11.281   0.518  3.6907 -2.0753  2.4246
36998SOL     OW19771   1.182   0.858   2.281 -0.2302 -0.4826  0.3708
36998SOL    HW119772   1.266   0.899   2.259 -0.1329 -0.4099  0.8635
36998SOL    HW219773   1.128   0.931   2.312 -0.4243 -0.5540  0.1978
36999SOL     OW19774   4.557   3.099   6.756  0.1896 -0.3442  0.4722
36999SOL    HW119775   4.596   3.152   6.686 -1.9905  0.4894 -0.1905
36999SOL    HW219776   4.516   3.162   6.814 -0.9894 -1.2033  0.6134
37000SOL     OW19777   0.556  12.229   9.568  0.6466 -0.1472 -0.1647
37000SOL    HW119778   0.602  12.279   9.500 -1.5401  0.5394 -1.2555
37000SOL    HW219779   0.507  12.295   9.617  1.5019 -0.7448  1.5439
37001SOL     OW19780  10.412  10.439   2.622 -0.3426  0.5254 -0.5754
37001SOL    HW119781  10.421  10.472   2.712  2.2050  0.1627 -0.6443
37001SOL    HW219782  10.339  10.378   2.626 -1.0150  1.3745  0.9752
37002SOL     OW19783   9.368   9.392   1.877 -1.0819 -0.0528 -0.1722
37002SOL    HW119784   9.274   9.387   1.896 -0.9560  0.0481  0.4791
37002SOL    HW219785   9.373   9.438   1.793 -1.5993  0.1865 -0.0759
37003SOL     OW19786  10.954   9.460   1.737  0.2637 -0.0195  0.5186
37003SOL    HW119787  10.859   9.464   1.732  0.2253 -0.7089  0.6284
37003SOL    HW219788  10.973   9.449   1.830  0.4068 -0.7631  0.4087
37004SOL     OW19789   0.004   4.448   8.131 -0.2263  0.3802  0.0217
37004SOL    HW119790  -0.036   4.366   8.104  0.1168  0.2357 -0.0480
37004SOL    HW219791   0.047   4.428   8.214 -1.7806  0.9671  1.0178
37005SOL     OW19792   9.739   5.277  12.463  0.3400 -0.6590 -0.6405
37005SOL    HW119793   9.721   5.346  12.526 -1.3921 -1.0747 -0.6126
37005SOL    HW219794   9.706   5.312  12.380 -0.4499 -1.3782 -0.6438
37006SOL     OW19795  10.089   2.880   4.124  0.0997  0.3084  0.9135
37006SOL    HW119796  10.081   2.843   4.211 -1.1613 -2.3293 -0.2161
37006SOL    HW219797  10.140   2.960   4.136 -2.6810  1.8111  4.4865
37007SOL     OW19798   9.763   7.459  11.871 -0.1045  0.1422  0.6972
37007SOL    HW119799   9.789   7.469  11.962 -0.3899  1.1022  0.6844
37007SOL    HW219800   9.671   7.431  11.875 -0.3078  0.8041  0.7006
37008SOL     OW19801  10.666   8.907  11.015  0.1778 -0.4238 -0.7577
37008SOL    HW119802  10.637   8.892  11.105  0.3871 -1.4274 -0.8451
37008SOL    HW219803  10.600   8.864  10.961  0.4264 -0.4280 -1.0619
37009SOL     OW19804   7.706   4.286   2.000 -0.0621  0.2469 -0.5398
37009SOL    HW119805   7.751   4.315   2.079  1.8606 -1.5761 -0.9001
37009SOL    HW219806   7.678   4.196   2.020 -1.2609  0.4303 -1.2797
37010SOL     OW19807   7.928   3.070  10.999 -0.2377 -0.2939 -0.0773
37010SOL    HW119808   7.858   3.136  10.992 -0.7906 -0.9439 -0.8484
37010SOL    HW219809   7.998   3.114  11.048 -0.4895  0.9663 -0.8031
37011SOL     OW19810   3.093  11.237   1.098 -0.2177  0.1614 -0.5754
37011SOL    HW119811   3.102  11.258   1.191 -3.2943 -1.8255  0.3236
37011SOL    HW219812   3.182  11.217   1.070  0.5787 -1.5880  2.6235
37012SOL     OW19813   1.740  10.996   0.833  0.0244 -0.0096 -0.1710
37012SOL    HW119814   1.664  10.939   0.850  0.3236 -0.8504 -1.5406
37012SOL    HW219815   1.769  11.024   0.920 -1.6567  0.0756  0.3997
37013SOL     OW19816   5.874   7.059   4.576  0.0056 -0.0090 -0.1752
37013SOL    HW119817   5.952   7.030   4.623 -0.7997 -1.0761  0.5523
37013SOL    HW219818   5.870   7.002   4.500  1.0486  1.4130 -1.3693
37014SOL     OW19819   3.115  12.122  11.918 -0.6733  0.2669  0.0424
37014SOL    HW119820   3.061  12.051  11.952  0.8579 -0.4020  1.1725
37014SOL    HW219821   3.109  12.191  11.984  0.2284 -0.0211  0.4495
37015SOL     OW19822   3.437   2.032   7.650 -0.1614 -0.1843  0.3317
37015SOL    HW119823   3.349   2.031   7.611 -0.8389 -1.7319  1.8043
37015SOL    HW219824   3.472   1.945   7.631  1.2801  0.5788 -0.6494
37016SOL     OW19825   2.262   8.156  10.310  0.3080  0.0015  0.5735
37016SOL    HW119826   2.285   8.200  10.392  1.0605  0.7647 -0.0250
37016SOL    HW219827   2.245   8.066  10.335  0.6386  0.1990  1.5557
37017SOL     OW19828  11.414  11.732   0.376  0.3139 -0.2975 -0.3505
37017SOL    HW119829  11.343  11.717   0.437 -0.1504 -0.5814 -0.9474
37017SOL    HW219830  11.403  11.822   0.346 -1.0038 -0.9315 -1.9329
37018SOL     OW19831   3.203  11.449   6.329 -0.4512  0.5784  0.2917
37018SOL    HW119832   3.274  11.418   6.273 -0.1531  0.6682  0.6124
37018SOL    HW219833   3.216  11.544   6.334  1.0086  0.3456  2.4581
37019SOL     OW19834  12.144   8.515   9.614 -0.2026  0.2510  0.1531
37019SOL    HW119835  12.150   8.424   9.645  1.0138  0.5689  0.9560
37019SOL    HW219836  12.062   8.548   9.651  0.0021 -0.1413  0.9940
37020SOL     OW19837   5.314   0.215   5.765  0.3318 -0.2336 -0.4725
37020SOL    HW119838   5.404   0.218   5.734 -0.0943 -0.0393 -1.7457
37020SOL    HW219839   5.295   0.121   5.774  0.3588 -0.3076 -1.1395
37021SOL     OW19840   5.177   5.948   8.949  0.0367  0.4076 -0.2153
37021SOL    HW119841   5.211   6.038   8.955  1.2941 -0.0990  0.5465
37021SOL    HW219842   5.082   5.959   8.945  0.1356  1.7482  0.6027
37022SOL     OW19843   9.557   7.648   0.183 -0.4621 -0.2513 -0.2106
37022SOL    HW119844   9.577   7.565   0.226  0.3392  0.2147  0.3507
37022SOL    HW219845   9.617   7.711   0.224 -1.8440  0.8382  0.2128
37023SOL     OW19846   9.550   1.182   4.108 -0.2994  0.1985  0.3724
37023SOL    HW119847   9.492   1.110   4.082 -0.6855  0.6104  0.0732
37023SOL    HW219848   9.621   1.179   4.044 -0.7603  0.6192 -0.1664
37024SOL     OW19849   6.702   3.014   5.129 -0.2288 -0.2755  0.3815
37024SOL    HW119850   6.658   2.974   5.055  0.5302 -0.2597 -0.0924
37024SOL    HW219851   6.632   3.042   5.188 -1.0600  2.7953 -1.8281
37025SOL     OW19852   4.816   0.247  10.557 -0.3503 -0.5021 -0.3807
37025SOL    HW119853   4.809   0.343  10.558  1.2614 -0.3447  0.9003
37025SOL    HW219854   4.755   0.218  10.625  0.5082 -0.2188  0.5387
37026SOL     OW19855  12.095  10.796   2.692 -0.1005  0.4764  0.1655
37026SOL    HW119856  12.049  10.767   2.771  0.3715 -0.1772  0.2140
37026SOL    HW219857  12.050  10.754   2.620 -2.0431  2.9297 -0.1876
37027SOL     OW19858   7.504   7.295   7.627  0.1155  0.7502 -0.5584
37027SOL    HW119859   7.576   7.240   7.596  0.9503  1.1537  0.6019
37027SOL    HW219860   7.535   7.330   7.711 -0.5023  2.7258 -1.0985
37028SOL     OW19861   4.877   4.906   4.150 -0.3564 -0.1413  0.2880
37028SOL    HW119862   4.849   4.900   4.241  1.2519 -1.4892  0.7396
37028SOL    HW219863   4.841   4.989   4.119 -0.0799  0.8421  2.4648
37029SOL     OW19864   2.507   6.401  11.943 -1.1540  0.1334  0.0326
37029SOL    HW119865   2.457   6.435  11.869 -1.2577 -1.4484 -0.6602
37029SOL    HW219866   2.467   6.441  12.020 -1.5165  1.2303 -0.7059
37030SOL     OW19867  11.828   2.219  10.448 -0.4151 -0.2431 -0.5247
37030SOL    HW119868  11.819   2.130  10.483 -1.6892  0.1469  0.1640
37030SOL    HW219869  11.905   2.254  10.493 -1.2292 -0.2248  0.8875
37031SOL     OW19870   8.184   0.780   3.076  0.8936 -0.0163 -0.2679
37031SOL    HW119871   8.257   0.786   3.137  1.0561 -0.2326 -0.4377
37031SOL    HW219872   8.132   0.859   3.092  0.2096 -0.7159  1.0614
37032SOL     OW19873   1.355   1.924   8.297 -0.1993  0.1934  0.1002
37032SOL    HW119874   1.369   1.863   8.226 -0.0352 -1.3616  1.4175
37032SOL    HW219875   1.265   1.907   8.326  1.1090 -2.4936  3.1588
37033SOL     OW19876   6.798  10.696   5.919  0.6223  0.0541  0.3800
37033SOL    HW119877   6.765  10.635   5.852  0.4739 -0.6186  1.0543
37033SOL    HW219878   6.887  10.666   5.938  1.2014  1.1244 -0.5453
37034SOL     OW19879   6.611   8.601   4.385 -0.0935  0.2510 -0.6877
37034SOL    HW119880   6.691   8.611   4.333 -0.6946 -0.8746 -1.8718
37034SOL    HW219881   6.629   8.527   4.443  0.1642  0.7878 -0.0745
37035SOL     OW19882   5.716   9.398   9.315 -0.1173  0.2887 -0.6206
37035SOL    HW119883   5.781   9.430   9.252 -0.5283  0.3068 -1.0450
37035SOL    HW219884   5.671   9.327   9.269  1.9418 -2.1963  0.9225
37036SOL     OW19885   1.614   3.400   9.533  0.0816  0.5057 -0.3161
37036SOL    HW119886   1.633   3.359   9.449  1.2338  0.4511 -0.0425
37036SOL    HW219887   1.604   3.493   9.513 -1.1733  0.2982 -0.7301
37037SOL     OW19888   7.315   4.148   6.712 -0.7645  0.3262  0.7381
37037SOL    HW119889   7.353   4.136   6.624 -0.1456 -2.1239  1.2542
37037SOL    HW219890   7.359   4.224   6.747  3.2539 -1.8503  0.9751
37038SOL     OW19891   1.565   6.696  12.309 -0.0228  0.8094  0.1421
37038SOL    HW119892   1.538   6.609  12.338  0.0177  1.0191  0.8289
37038SOL    HW219893   1.608   6.681  12.224 -2.1151  0.4628 -0.9138
37039SOL     OW19894   6.760   8.131   5.282  0.0364  0.3127 -0.0836
37039SOL    HW119895   6.765   8.036   5.286  2.9731  0.3585 -0.3914
37039SOL    HW219896   6.741   8.150   5.190  1.6562  0.0001 -0.5121
37040SOL     OW19897   9.345   4.628   9.857 -0.3361 -0.0646 -0.4878
37040SOL    HW119898   9.350   4.698   9.792 -0.5897  1.5043  1.1216
37040SOL    HW219899   9.353   4.672   9.941  1.7578 -2.1970  0.5594
37041SOL     OW19900   5.573   4.184   6.018  0.1953 -0.1264 -0.1311
37041SOL    HW119901   5.534   4.271   6.029  0.8533  0.3607 -1.4970
37041SOL    HW219902   5.645   4.181   6.081 -0.6203 -0.1910  0.8285
37042SOL     OW19903   2.341  11.386   7.738 -0.2336  0.0963  0.1758
37042SOL    HW119904   2.419  11.381   7.792  0.0397 -0.0855 -0.2298
37042SOL    HW219905   2.366  11.442   7.664 -0.9568  1.3111  0.8207
37043SOL     OW19906   2.081   0.767   0.934  0.1777 -0.0923 -0.2211
37043SOL    HW119907   2.069   0.855   0.969  3.1366  0.4963 -0.4616
37043SOL    HW219908   1.999   0.721   0.955 -0.8946  2.2838  1.1106
37044SOL     OW19909   8.143  12.467   3.931  0.1336 -0.0191  0.2676
37044SOL    HW119910   8.166  12.500   4.018 -0.9417 -0.4816  0.7385
37044SOL    HW219911   8.107  12.543   3.886  0.8950  0.2755  0.1365
37045SOL     OW19912  12.601   8.270   4.419 -0.2389 -0.1324 -0.1112
37045SOL    HW119913  12.676   8.315   4.457 -1.3127  0.2661  1.6390
37045SOL    HW219914  12.627   8.178   4.418  0.7584  0.1428 -0.7553
37046SOL     OW19915  12.276   3.723   7.036  0.0601 -0.3052  0.5725
37046SOL    HW119916  12.259   3.773   7.116  0.3155 -1.4803  1.3835
37046SOL    HW219917  12.195   3.730   6.986 -0.4350 -0.2996  1.3488
37047SOL     OW19918   3.890   3.943   1.548  0.3291 -0.0787  0.1833
37047SOL    HW119919   3.832   3.875   1.582 -0.0745  0.4988  0.6653
37047SOL    HW219920   3.974   3.927   1.590 -0.1109  0.5035  1.3069
37048SOL     OW19921   7.582  10.324   3.757 -0.1307 -0.1388  0.1540
37048SOL    HW119922   7.606  10.291   3.843  1.1202 -1.4069 -0.6277
37048SOL    HW219923   7.664  10.321   3.707 -0.6937  1.1786 -0.8946
37049SOL     OW19924   9.328   6.688   5.655 -0.1853 -0.1437 -0.0574
37049SOL    HW119925   9.344   6.643   5.738 -0.6392 -2.3502 -1.0925
37049SOL    HW219926   9.400   6.751   5.647  0.5769 -0.7910  1.3980
37050SOL     OW19927  11.730   2.038   9.943 -0.1146 -0.1727 -0.4998
37050SOL    HW119928  11.715   2.016  10.035  0.9138 -0.1668 -0.3145
37050SOL    HW219929  11.824   2.057   9.938 -0.6057  2.5180 -1.0087
37051SOL     OW19930  12.488  11.725   1.602  0.5271  0.2274  0.1790
37051SOL    HW119931  12.408  11.709   1.652 -0.2195  1.4855 -0.5421
37051SOL    HW219932  12.556  11.738   1.668  0.2182 -1.1139  0.7976
37052SOL     OW19933   5.077  12.563   5.551 -0.0885 -0.3214  0.4637
37052SOL    HW119934   5.168  12.564   5.521 -0.0868 -2.9065  0.1556
37052SOL    HW219935   5.083  12.561   5.646  0.0836  1.1550  0.5126
37053SOL     OW19936   0.071  11.362   6.419  0.1989  0.0431  0.2370
37053SOL    HW119937   0.039  11.391   6.505  0.2802 -1.1776  0.7074
37053SOL    HW219938   0.162  11.392   6.416 -0.4573  2.1239 -0.4334
37054SOL     OW19939   5.858  10.850   0.383  0.6081  0.4553 -0.3573
37054SOL    HW119940   5.774  10.893   0.363  0.0823  0.1461  1.0967
37054SOL    HW219941   5.861  10.776   0.323 -0.7526 -0.2381  0.3884
37055SOL     OW19942  12.453   9.460  12.314 -0.1526 -0.1356 -0.6643
37055SOL    HW119943  12.533   9.428  12.273 -0.0341 -0.2282 -0.3684
37055SOL    HW219944  12.413   9.517  12.249  1.0883  1.3882 -0.1686
37056SOL     OW19945   7.881  10.731   4.563 -0.2769  0.2219 -0.2748
37056SOL    HW119946   7.879  10.685   4.479 -2.2977 -0.3250  0.0040
37056SOL    HW219947   7.790  10.728   4.593  0.6213 -0.9149  2.6276
37057SOL     OW19948   5.304   0.853   4.466 -0.0765 -0.0214  0.8390
37057SOL    HW119949   5.328   0.945   4.467 -1.9449  0.5836 -1.3433
37057SOL    HW219950   5.309   0.826   4.558  0.3316  2.2820  1.5595
37058SOL     OW19951   0.894  11.369   8.562 -0.2293  0.4500 -0.1058
37058SOL    HW119952   0.802  11.348   8.579 -0.1818 -0.2958 -0.7069
37058SOL    HW219953   0.943  11.315   8.625 -0.1553 -0.3615 -0.8346
37059SOL     OW19954   8.862   2.625   3.294 -0.3926  0.3838  0.3850
37059SOL    HW119955   8.801   2.640   3.222  1.0844  0.7289 -0.8398
37059SOL    HW219956   8.904   2.710   3.307 -1.1504  0.5409  2.2080
37060SOL     OW19957   7.279   5.902  10.212  0.0085  0.6452 -0.0655
37060SOL    HW119958   7.310   5.815  10.235  0.5079  0.3116 -1.8289
37060SOL    HW219959   7.338   5.962  10.258  1.1949  0.0335 -0.7454
37061SOL     OW19960   6.816  11.557  10.853  0.7224  0.1824  0.0119
37061SOL    HW119961   6.759  11.610  10.796  1.5221 -0.5232 -1.5113
37061SOL    HW219962   6.903  11.565  10.814  0.6566 -3.3954 -1.2392
37062SOL     OW19963   6.204   8.567   1.637 -0.1177 -0.1909 -0.0729
37062SOL    HW119964   6.132   8.562   1.574  0.2717  0.2563 -0.5618
37062SOL    HW219965   6.264   8.498   1.610  0.2280  0.2435 -0.4196
37063SOL     OW19966   1.561   1.715   1.110  0.3526 -0.0292  0.0658
37063SOL    HW119967   1.480   1.749   1.072 -0.1485  1.6860  2.4463
37063SOL    HW219968   1.608   1.676   1.036 -1.8329  0.5139 -1.7004
37064SOL     OW19969   3.790   1.864  11.961 -0.3475  0.5034 -0.0068
37064SOL    HW119970   3.781   1.879  12.055 -2.3090  2.8976 -0.4761
37064SOL    HW219971   3.703   1.834  11.934  0.1937 -0.1349 -1.0829
37065SOL     OW19972   7.567   0.526   5.270 -0.3812  0.1461  0.6465
37065SOL    HW119973   7.614   0.604   5.240 -2.2258  0.8755 -0.5533
37065SOL    HW219974   7.633   0.457   5.272  1.2205  1.6089  1.3374
37066SOL     OW19975   2.599   5.968  11.418 -0.4295  0.0722 -0.6409
37066SOL    HW119976   2.507   5.954  11.399 -0.8058  3.3755 -1.8375
37066SOL    HW219977   2.607   6.062  11.435  2.3384 -0.4489  1.9509
37067SOL     OW19978   5.505   3.442   6.669  0.0395  0.2509  0.1845
37067SOL    HW119979   5.588   3.432   6.715  0.2658  0.6502 -0.1278
37067SOL    HW219980   5.493   3.537   6.664  1.0510  0.3102 -2.3821
37068SOL     OW19981   4.881   7.981   8.346  0.1673 -0.3622 -0.3733
37068SOL    HW119982   4.871   8.014   8.257  2.2217  0.8191 -0.2088
37068SOL    HW219983   4.916   7.892   8.335 -1.2689 -0.9133 -0.7303
37069SOL     OW19984  10.023   1.500   0.211  0.3492  0.5296  0.5450
37069SOL    HW119985  10.099   1.511   0.154  0.6745 -1.3180  0.5520
37069SOL    HW219986  10.046   1.426   0.267 -2.0354 -1.1034 -0.4827
37070SOL     OW19987   6.610   5.315   5.797 -0.0897 -0.4555  0.1253
37070SOL    HW119988   6.623   5.299   5.890 -0.7024 -0.4859  0.2132
37070SOL    HW219989   6.563   5.238   5.765  0.3679 -0.5752 -0.2693
37071SOL     OW19990   4.839   6.124   3.706  0.4787  0.1518 -0.1233
37071SOL    HW119991   4.767   6.098   3.764  0.5304 -0.6917 -0.4283
37071SOL    HW219992   4.802   6.195   3.653  0.0155  0.0278  0.0280
37072SOL     OW19993   8.494   5.091   1.579 -0.1105  0.1272  0.9144
37072SOL    HW119994   8.570   5.148   1.574 -0.6274  0.7387 -1.4759
37072SOL    HW219995   8.492   5.061   1.670  2.2189  1.0838  1.3514
37073SOL     OW19996   7.595   1.930   9.570 -0.1560  0.0292  0.0641
37073SOL    HW119997   7.653   2.006   9.577  2.1812 -1.6257 -0.1993
37073SOL    HW219998   7.534   1.953   9.500  1.9835  0.7886 -1.6542
37074SOL     OW19999  10.614   3.389   5.147  0.1179 -0.0882 -0.4534
37074SOL    HW120000  10.573   3.346   5.072 -0.5560 -0.7898  0.2991
37074SOL    HW220001  10.635   3.477   5.116 -1.0814 -0.0347 -1.1644
37075SOL     OW20002   7.692   3.774   6.319  0.0164  0.0205 -0.1554
37075SOL    HW120003   7.782   3.754   6.293 -0.0875  1.1447 -1.4902
37075SOL    HW220004   7.698   3.794   6.413  1.0218 -0.5959 -0.0721
37076SOL     OW20005  12.380   4.413   4.023 -0.1125  0.2889  0.2223
37076SOL    HW120006  12.288   4.438   4.025  0.1899  1.3855  1.1514
37076SOL    HW220007  12.403   4.397   4.114  0.7557  0.5420  0.0552
37077SOL     OW20008  10.219   3.104   9.421  0.2189  0.0032 -0.0464
37077SOL    HW120009  10.255   3.028   9.467  2.0033  1.7119  1.5770
37077SOL    HW220010  10.161   3.146   9.485 -2.6363 -1.1603 -1.7029
37078SOL     OW20011   5.410  10.847   1.337  0.6179 -0.3120  0.0003
37078SOL    HW120012   5.316  10.839   1.354  1.1771 -1.1335  3.5717
37078SOL    HW220013   5.434  10.763   1.298 -0.0743 -0.1404 -0.8318
37079SOL     OW20014   0.337   0.624  10.849  0.4488 -0.4304  0.3830
37079SOL    HW120015   0.399   0.647  10.779  0.5120 -1.9481 -0.0882
37079SOL    HW220016   0.280   0.558  10.810 -1.5575  0.9697  0.7819
37080SOL     OW20017  11.309   0.770   2.200  0.2927  0.0482  0.0507
37080SOL    HW120018  11.325   0.861   2.173 -1.5258 -0.3008 -2.5047
37080SOL    HW220019  11.285   0.777   2.293  0.5445  2.1124  0.0187
37081SOL     OW20020   0.696   2.728   2.800  0.0971  0.6813  0.0500
37081SOL    HW120021   0.641   2.749   2.876 -0.2711  2.3590 -0.6153
37081SOL    HW220022   0.786   2.738   2.831 -0.0598  2.5097  0.0249
37082SOL     OW20023  11.228   1.776   5.730  0.1001 -0.1060  0.0080
37082SOL    HW120024  11.245   1.730   5.812  1.1328  0.5773  0.1968
37082SOL    HW220025  11.302   1.752   5.673 -2.6801 -4.1535 -2.4245
37083SOL     OW20026  12.502   1.879   1.042  0.0143 -0.6977  0.4208
37083SOL    HW120027  12.470   1.961   1.004 -2.4775 -1.8268 -0.0861
37083SOL    HW220028  12.580   1.905   1.091 -1.5348  2.2585  1.5605
37084SOL     OW20029   0.326   8.515   6.904 -0.9862 -0.0915  0.3718
37084SOL    HW120030   0.237   8.479   6.898 -1.7900  2.0326 -2.0917
37084SOL    HW220031   0.318   8.592   6.959 -0.3085 -0.6766  1.3379
37085SOL     OW20032   5.619  12.303   4.174  0.7672 -0.3009  0.3561
37085SOL    HW120033   5.554  12.338   4.234  1.9520 -0.1568  1.6212
37085SOL    HW220034   5.628  12.370   4.106 -1.3271 -0.9234 -0.5908
37086SOL     OW20035   9.608  12.108   9.382 -0.3179  0.0348  0.1168
37086SOL    HW120036   9.653  12.161   9.448 -0.3313 -1.1213  1.0911
37086SOL    HW220037   9.532  12.161   9.356  0.2917  0.9736  0.2167
37087SOL     OW20038   5.180  11.692  10.593  0.4186 -0.0395 -0.4875
37087SOL    HW120039   5.248  11.749  10.630  1.0466  0.1510 -1.8879
37087SOL    HW220040   5.100  11.744  10.598  0.6900  0.3706 -0.3264
37088SOL     OW20041   4.996  11.328   9.685  0.1560 -0.0470  0.1992
37088SOL    HW120042   5.058  11.390   9.645 -1.2504  0.9514 -0.4958
37088SOL    HW220043   5.038  11.303   9.767  2.3058 -0.7834 -1.0463
37089SOL     OW20044   3.216  11.616   0.378 -0.4796 -0.3616  0.0579
37089SOL    HW120045   3.160  11.595   0.453 -1.2841  3.6634  0.8050
37089SOL    HW220046   3.159  11.605   0.302 -1.5587  1.1269  0.6023
37090SOL     OW20047   3.690  12.560   7.834  0.4485 -0.1701 -0.1644
37090SOL    HW120048   3.699  12.478   7.787  1.4233 -0.0550 -0.1877
37090SOL    HW220049   3.629  12.540   7.905  1.6831 -1.2909  0.6351
37091SOL     OW20050   6.356  12.592   9.333  0.6216  0.1684  0.7529
37091SOL    HW120051   6.373  12.540   9.255  1.6227  1.2555  0.2192
37091SOL    HW220052   6.437  12.587   9.384  0.2060  0.0049  1.4134
37092SOL     OW20053   9.712   6.297   3.199 -0.1732 -0.7219  0.3011
37092SOL    HW120054   9.715   6.388   3.230  0.9312 -0.3051 -0.9329
37092SOL    HW220055   9.771   6.250   3.257  0.7469 -0.2457 -0.2271
37093SOL     OW20056   8.551   0.388   6.700  0.4394 -0.3135  0.6839
37093SOL    HW120057   8.575   0.333   6.775  1.8298  0.4039  0.7834
37093SOL    HW220058   8.535   0.474   6.738  1.8963  0.2401  0.0804
37094SOL     OW20059   5.635  10.620   9.503 -0.0519  0.3300  1.0495
37094SOL    HW120060   5.590  10.538   9.518 -0.5345  0.7586  2.0078
37094SOL    HW220061   5.728  10.597   9.509 -0.1152 -0.4843 -0.5841
37095SOL     OW20062  10.020   7.126   3.174  0.1839 -0.2789  0.7081
37095SOL    HW120063  10.009   7.039   3.211  0.1680  0.2366  1.9704
37095SOL    HW220064  10.079   7.114   3.100  0.5903 -1.2877  1.1830
37096SOL     OW20065   8.600   3.772   0.546 -0.3048  0.5970  0.4894
37096SOL    HW120066   8.556   3.750   0.464 -0.7905  1.7073  0.4358
37096SOL    HW220067   8.529   3.794   0.606  0.0597 -0.0125  1.1532
37097SOL     OW20068   6.560   0.673  11.024 -0.5038  0.2551  0.0284
37097SOL    HW120069   6.523   0.746  11.073 -0.0877  0.8330 -0.5095
37097SOL    HW220070   6.637   0.709  10.981 -0.0071 -0.6295  0.1528
37098SOL     OW20071   8.274   4.404   0.660 -0.1196  0.5820  0.3284
37098SOL    HW120072   8.352   4.430   0.709  0.2953  0.8059 -0.4299
37098SOL    HW220073   8.201   4.441   0.709  0.0772 -1.2242  2.1240
37099SOL     OW20074   8.852   2.146   6.265  0.0311 -0.0015 -0.0218
37099SOL    HW120075   8.853   2.090   6.343  0.8015  0.4864  0.3363
37099SOL    HW220076   8.900   2.225   6.292 -1.4226  1.0424 -0.3659
37100SOL     OW20077   3.141   9.917  11.501  0.3528  0.5851 -0.4534
37100SOL    HW120078   3.104   9.998  11.538  0.8424  0.7746 -0.3715
37100SOL    HW220079   3.134   9.854  11.572  1.0302  0.8718 -0.1236
37101SOL     OW20080   4.593   7.008  10.764  0.1355 -0.0301 -0.0368
37101SOL    HW120081   4.558   6.920  10.752  0.8609 -0.2854 -0.3839
37101SOL    HW220082   4.540   7.046  10.834 -0.7225 -0.4419 -0.4505
37102SOL     OW20083  10.501   5.259   9.905  0.0484  0.2466 -0.6846
37102SOL    HW120084  10.570   5.267   9.838  1.7233  1.1116  1.0431
37102SOL    HW220085  10.545   5.221   9.981 -0.7190  3.0224  1.3031
37103SOL     OW20086   0.020   5.569   4.007  0.3364 -0.0945  0.1953
37103SOL    HW120087   0.075   5.647   4.018  1.2574 -0.9519  2.2309
37103SOL    HW220088  -0.050   5.581   4.071 -0.5988 -0.0876 -0.8030
37104SOL     OW20089   2.850   8.951  11.187  0.2316  0.1965 -0.1044
37104SOL    HW120090   2.903   9.031  11.193  1.3968 -0.1980 -3.1344
37104SOL    HW220091   2.915   8.881  11.183 -0.6836 -0.6495 -0.3453
37105SOL     OW20092   3.994  12.424   5.033 -0.1667  0.2460  0.1666
37105SOL    HW120093   3.981  12.423   4.938  0.4792  1.5128  0.0426
37105SOL    HW220094   4.088  12.410   5.045 -0.0569  1.2257  0.5512
37106SOL     OW20095   8.927   4.641  10.408  0.3269 -1.0268  0.4467
37106SOL    HW120096   8.980   4.589  10.347 -1.7291 -2.0559 -0.5786
37106SOL    HW220097   8.940   4.731  10.381  0.6729 -1.3503 -0.5088
37107SOL     OW20098  10.501   9.026   1.440  0.1711 -0.3196  0.2290
37107SOL    HW120099  10.472   9.079   1.514  0.8663  0.5821 -0.1311
37107SOL    HW220100  10.442   9.052   1.368  0.6814  0.1970 -0.0197
37108SOL     OW20101   1.743   9.363   4.753  0.5025  0.7118  0.1908
37108SOL    HW120102   1.826   9.315   4.757  0.9786  1.3268 -1.5784
37108SOL    HW220103   1.681   9.300   4.715  0.5954  0.7962 -0.1051
37109SOL     OW20104  10.387   0.269   9.891  0.2853 -0.4884  0.0328
37109SOL    HW120105  10.347   0.193   9.932 -0.5940 -0.9627 -1.6324
37109SOL    HW220106  10.327   0.341   9.910 -0.2205 -0.7456 -0.5724
37110SOL     OW20107   2.255   3.506   3.781  0.2456  0.0974  0.3205
37110SOL    HW120108   2.210   3.468   3.706  0.1485  1.5538 -0.3814
37110SOL    HW220109   2.213   3.467   3.857 -1.0577  0.1621 -0.3490
37111SOL     OW20110   9.819   8.489   5.486  0.1570 -0.3864  0.4224
37111SOL    HW120111   9.819   8.401   5.450 -0.7822 -0.0250 -0.5128
37111SOL    HW220112   9.881   8.537   5.431 -0.4567 -0.0995 -0.0218
37112SOL     OW20113   0.805   4.429  10.164  0.1559 -0.0198 -0.6669
37112SOL    HW120114   0.836   4.352  10.116 -0.1541  0.1768 -1.1871
37112SOL    HW220115   0.885   4.468  10.200  0.2654 -0.8660  0.0381
37113SOL     OW20116   7.546   9.177  10.631  0.6288  0.2843 -0.2765
37113SOL    HW120117   7.512   9.160  10.719  1.8573 -0.6641  0.0341
37113SOL    HW220118   7.494   9.121  10.573  1.6128 -1.1765  0.1963
37114SOL     OW20119   1.081   7.493  12.444 -0.2916 -0.2387 -0.1048
37114SOL    HW120120   1.177   7.490  12.447 -0.1712 -0.1692 -2.0379
37114SOL    HW220121   1.060   7.463  12.355 -2.0945 -0.7124  0.4437
37115SOL     OW20122   7.553   3.419   6.971 -0.6897  0.1955  0.1763
37115SOL    HW120123   7.569   3.512   6.987  2.1691  0.2942 -2.3770
37115SOL    HW220124   7.489   3.417   6.899 -1.2319  0.1365  0.6509
37116SOL     OW20125   6.587   9.918   8.774 -0.0371  0.1833 -0.4917
37116SOL    HW120126   6.662   9.891   8.827 -0.4126  0.3704  0.1542
37116SOL    HW220127   6.527   9.958   8.837 -0.1123  1.2208 -1.1963
37117SOL     OW20128   4.777   1.766   3.489  0.1040 -0.2050 -0.1661
37117SOL    HW120129   4.801   1.685   3.534 -0.9532 -0.4661 -0.0385
37117SOL    HW220130   4.731   1.818   3.556 -1.0181 -0.3725 -0.7771
37118SOL     OW20131   2.710   3.004  12.601  0.3894  0.2218  0.1557
37118SOL    HW120132   2.630   3.043  12.564 -0.0372 -0.3239  0.4750
37118SOL    HW220133   2.743   2.948  12.531 -0.1216 -0.3999  0.4067
37119SOL     OW20134  11.138   2.637   1.556  0.3276 -0.5982 -0.2628
37119SOL    HW120135  11.098   2.668   1.475  0.0046  0.2962  0.2187
37119SOL    HW220136  11.186   2.558   1.531 -0.1013 -0.5641 -1.2387
37120SOL     OW20137   9.866   4.410   2.935 -0.4746  0.1545  0.3438
37120SOL    HW120138   9.943   4.452   2.973 -1.0160  1.2106  0.3041
37120SOL    HW220139   9.862   4.325   2.979  0.0849  0.5302  1.1513
37121SOL     OW20140   2.186   2.552   4.212  0.0707  0.1683  0.7589
37121SOL    HW120141   2.128   2.627   4.198  1.8086  1.0786 -3.0705
37121SOL    HW220142   2.268   2.590   4.243  0.3199 -0.4211  0.8449
37122SOL     OW20143   9.271  11.753   5.792  0.5548 -0.2336  0.1555
37122SOL    HW120144   9.321  11.771   5.712  1.1521  0.7014  0.7274
37122SOL    HW220145   9.338  11.737   5.859  0.0583 -0.9558  0.4974
37123SOL     OW20146   9.437   8.264  11.284  0.2063  0.5392  0.0625
37123SOL    HW120147   9.410   8.313  11.206  1.1401  1.6293  0.4012
37123SOL    HW220148   9.355   8.234  11.323 -0.5015  2.7303  0.4060
37124SOL     OW20149   3.014   5.249   6.829  0.4873 -0.0173  0.4542
37124SOL    HW120150   2.929   5.276   6.794 -1.5676 -3.7276  2.0119
37124SOL    HW220151   3.030   5.307   6.903 -1.2784  0.0538  0.8146
37125SOL     OW20152   0.460   4.141  10.403  0.1214  0.7859 -0.0514
37125SOL    HW120153   0.518   4.123  10.329 -0.9200  0.0982 -0.7229
37125SOL    HW220154   0.375   4.107  10.376 -0.4107  1.0211  1.2481
37126SOL     OW20155  12.267   6.911   3.924 -0.6601  0.4271  0.2950
37126SOL    HW120156  12.280   6.955   4.008 -1.5624  1.5868 -0.1508
37126SOL    HW220157  12.195   6.851   3.939  0.0195 -0.3112  0.6783
37127SOL     OW20158  12.368   5.415   5.948 -0.4285 -0.3066  1.1213
37127SOL    HW120159  12.305   5.347   5.973 -1.4091  1.0472  2.5622
37127SOL    HW220160  12.329   5.497   5.980  1.5823  0.7166  1.1438
37128SOL     OW20161   1.018   6.511   4.990  0.7079 -0.3252 -0.4910
37128SOL    HW120162   0.926   6.531   4.972  1.0038  1.1570 -0.4752
37128SOL    HW220163   1.041   6.447   4.923 -0.6693 -1.7328  0.3075
37129SOL     OW20164   1.084   6.505   4.166  0.6662  0.4545  0.2979
37129SOL    HW120165   1.050   6.430   4.214 -2.1113  1.5646  0.2830
37129SOL    HW220166   1.125   6.467   4.088 -4.0036 -1.1305 -1.7482
37130SOL     OW20167   5.741   9.643   2.467 -0.4616  0.7210  0.6345
37130SOL    HW120168   5.688   9.700   2.523  1.0424  1.6938  1.1270
37130SOL    HW220169   5.831   9.671   2.483  0.3312 -1.6040  0.6829
37131SOL     OW20170   4.430   7.815   4.708  0.3306 -0.0313  0.4142
37131SOL    HW120171   4.484   7.894   4.710 -0.2913  0.4314 -0.5176
37131SOL    HW220172   4.489   7.746   4.739  1.6454  0.3665 -1.0295
37132SOL     OW20173   6.397   4.849   7.658  0.3484 -0.1577  0.5548
37132SOL    HW120174   6.361   4.821   7.574  0.9159  1.0038 -0.0996
37132SOL    HW220175   6.327   4.900   7.699 -0.3457 -1.6736  1.3293
37133SOL     OW20176   6.777   4.084   3.660 -0.4556  0.3043 -0.2944
37133SOL    HW120177   6.702   4.047   3.614 -1.0363 -1.1458  1.6991
37133SOL    HW220178   6.808   4.014   3.718  1.9152  1.1509 -0.4023
37134SOL     OW20179   1.634   0.221   1.415 -0.6344  0.2765 -0.4329
37134SOL    HW120180   1.554   0.201   1.465 -0.4132  2.2471  0.7923
37134SOL    HW220181   1.703   0.225   1.481 -0.3989  3.3249 -0.7326
37135SOL     OW20182   7.465  11.699   0.680 -0.4828  0.6220 -0.6935
37135SOL    HW120183   7.510  11.686   0.763 -0.9069 -0.6088 -0.6301
37135SOL    HW220184   7.398  11.764   0.698 -2.6996 -1.8605  0.8407
37136SOL     OW20185   0.331   7.533   5.622  0.3233 -0.3417 -0.5776
37136SOL    HW120186   0.240   7.547   5.651  0.2342  2.0719 -1.8485
37136SOL    HW220187   0.330   7.444   5.585 -1.5514 -0.3328 -0.6704
37137SOL     OW20188   1.697   8.666   7.900 -0.3915  0.0473 -0.0122
37137SOL    HW120189   1.716   8.581   7.938  0.6175  0.0423 -0.4767
37137SOL    HW220190   1.632   8.705   7.957 -1.4687 -1.3599 -0.2364
37138SOL     OW20191  12.594   8.760   7.274 -0.0819  0.4607 -0.1106
37138SOL    HW120192  12.504   8.741   7.247 -0.1006  0.9054 -0.3816
37138SOL    HW220193  12.604   8.854   7.258  0.1928  0.5627  0.6223
37139SOL     OW20194  11.622   4.772  10.826  0.1121  0.1175  0.1478
37139SOL    HW120195  11.627   4.678  10.813 -0.2064  0.2356 -0.9721
37139SOL    HW220196  11.588   4.806  10.743  0.2515  1.2196  0.5191
37140SOL     OW20197  10.659   5.881   5.644  0.0545 -0.4600  0.1332
37140SOL    HW120198  10.736   5.890   5.701 -1.0405  1.3855  1.4188
37140SOL    HW220199  10.604   5.818   5.689 -0.2035 -0.0337  0.4196
37141SOL     OW20200  11.781   8.389   5.400 -0.7059 -0.1452 -0.0527
37141SOL    HW120201  11.807   8.481   5.410 -0.9837 -0.0242 -0.4089
37141SOL    HW220202  11.860   8.339   5.419 -1.4793 -0.0597  4.3249
37142SOL     OW20203   2.555   7.420   9.098  0.0794  0.2784 -0.5425
37142SOL    HW120204   2.627   7.437   9.159 -1.1987  1.5553  0.6831
37142SOL    HW220205   2.588   7.450   9.013  0.7854  1.4824  0.1234
37143SOL     OW20206   1.581   9.272   8.251  0.1005  0.0939 -0.3517
37143SOL    HW120207   1.494   9.260   8.290 -0.4634  0.9433 -1.3151
37143SOL    HW220208   1.616   9.183   8.244  0.0369 -0.1358  1.6161
37144SOL     OW20209   1.412   2.519   2.582  0.3848 -0.0582  0.0605
37144SOL    HW120210   1.431   2.523   2.676  0.3261  2.1316  0.0216
37144SOL    HW220211   1.336   2.575   2.571 -0.5195 -1.4491 -1.1253
37145SOL     OW20212   8.654   3.660   9.332  0.5785  0.6344 -0.1507
37145SOL    HW120213   8.731   3.689   9.380  0.6243  1.7267 -0.8386
37145SOL    HW220214   8.580   3.695   9.382  0.5774  0.6397 -0.1561
37146SOL     OW20215   6.611   1.272   6.034 -0.6937 -0.4823 -0.0281
37146SOL    HW120216   6.633   1.206   6.099  1.7176  1.2389  1.0262
37146SOL    HW220217   6.695   1.303   6.001 -1.6690  2.2409 -0.2514
37147SOL     OW20218   3.559   3.178  11.830 -0.1225 -0.3621  0.3560
37147SOL    HW120219   3.504   3.154  11.755 -1.0582  0.9788  0.5830
37147SOL    HW220220   3.634   3.223  11.792  0.9099 -2.2346  0.0411
37148SOL     OW20221   2.894   9.189   8.007  0.0944  0.4734 -0.0077
37148SOL    HW120222   2.877   9.143   8.089  0.1172 -1.9879 -1.3104
37148SOL    HW220223   2.941   9.268   8.033  3.6106 -2.0366  2.1208
37149SOL     OW20224  10.654   7.394   3.056 -0.3772  0.5587  0.3034
37149SOL    HW120225  10.619   7.364   3.139 -2.3016  0.8900 -0.3410
37149SOL    HW220226  10.727   7.335   3.037 -1.8229 -1.4564  0.7597
37150SOL     OW20227   8.113   6.746   8.994 -0.0510  0.1638  0.2117
37150SOL    HW120228   8.173   6.728   8.922  0.5516  0.0048  0.7380
37150SOL    HW220229   8.162   6.720   9.072 -1.1971 -0.9677  0.5884
37151SOL     OW20230   5.445   5.621   1.767  0.3289  0.2307 -0.1348
37151SOL    HW120231   5.452   5.711   1.799  0.2600  0.1398  0.1412
37151SOL    HW220232   5.514   5.574   1.815 -1.2340 -0.3985  1.6097
37152SOL     OW20233   7.337   3.290   2.882 -0.1297 -0.3069  0.2219
37152SOL    HW120234   7.299   3.349   2.948  0.6010  0.5278 -0.0980
37152SOL    HW220235   7.288   3.310   2.802 -0.0689 -0.3309  0.1792
37153SOL     OW20236  12.069   6.532   2.658  0.2191 -0.0022 -0.5921
37153SOL    HW120237  12.151   6.564   2.621  0.6366  0.5532  0.7688
37153SOL    HW220238  12.056   6.447   2.617  1.5653 -0.1690 -0.7123
37154SOL     OW20239   6.353  11.046   4.861  0.1952 -0.1380  0.4674
37154SOL    HW120240   6.393  10.971   4.904 -3.0213 -1.1778  1.9641
37154SOL    HW220241   6.298  11.008   4.792  0.8289  1.1167 -0.7915
37155SOL     OW20242   2.153   1.937   0.750 -0.2100 -0.5784 -0.7015
37155SOL    HW120243   2.218   1.929   0.820 -1.8388 -0.9006  0.8560
37155SOL    HW220244   2.168   2.023   0.712 -0.3738  0.3603  1.2417
37156SOL     OW20245  10.939   5.305   4.337 -0.1464 -0.0300  0.0888
37156SOL    HW120246  11.021   5.349   4.318 -0.3444  1.4316  2.2957
37156SOL    HW220247  10.872   5.361   4.298 -0.1878 -0.6863 -0.8199
37157SOL     OW20248  12.000   7.243  11.464 -0.6439  0.3362  0.4676
37157SOL    HW120249  11.968   7.309  11.525  1.2846  0.5683  1.2964
37157SOL    HW220250  11.925   7.186  11.449 -2.0848  2.1317  0.4745
37158SOL     OW20251   2.046   7.385  10.272 -0.1378  0.1913 -0.2861
37158SOL    HW120252   1.965   7.349  10.236  0.2862 -0.3449 -0.7262
37158SOL    HW220253   2.023   7.474  10.298 -0.8361  0.0885 -0.5195
37159SOL     OW20254   5.201   2.858  12.347 -0.1152 -0.2134 -0.1024
37159SOL    HW120255   5.181   2.765  12.355 -0.3243 -0.1290  0.4339
37159SOL    HW220256   5.121   2.903  12.375 -0.1725  0.1341 -0.7906
37160SOL     OW20257   4.262   2.202  10.686 -0.2656 -0.2137 -0.0148
37160SOL    HW120258   4.317   2.222  10.762  0.7434 -0.4533 -0.6752
37160SOL    HW220259   4.178   2.177  10.725 -0.4688  1.7744  0.9537
37161SOL     OW20260  11.691   0.340   5.893 -0.0333 -0.2805  0.0922
37161SOL    HW120261  11.712   0.413   5.952 -3.0472  0.5655  0.3116
37161SOL    HW220262  11.762   0.339   5.829  1.2755  1.3550  1.4348
37162SOL     OW20263   2.990   2.984   0.717  0.9651  0.0917  0.5488
37162SOL    HW120264   2.953   2.908   0.671  0.7929  0.7024 -0.3403
37162SOL    HW220265   3.078   2.956   0.742  0.4485 -0.8564  1.3958
37163SOL     OW20266   4.010   4.946  12.454  0.0286 -0.0946 -0.4860
37163SOL    HW120267   4.015   5.021  12.514  0.9466 -0.8144  0.3582
37163SOL    HW220268   4.063   4.972  12.379  1.3831 -0.3710  0.3498
37164SOL     OW20269   1.435   4.943   8.794 -0.0499 -0.3910 -0.0955
37164SOL    HW120270   1.408   5.035   8.794  0.3566 -0.2730 -0.6005
37164SOL    HW220271   1.385   4.903   8.723  0.0591 -0.4847 -0.1193
37165SOL     OW20272   6.454   4.952   4.624  0.3810 -0.0012 -0.0180
37165SOL    HW120273   6.408   5.032   4.599 -0.7701 -0.5432  0.3271
37165SOL    HW220274   6.546   4.979   4.633 -0.0016  1.2881  0.1611
37166SOL     OW20275  11.240   9.224  10.627 -0.1353 -0.1315  0.1322
37166SOL    HW120276  11.244   9.318  10.647  1.7484  0.1185 -1.0817
37166SOL    HW220277  11.330   9.202  10.599 -0.5016 -2.3267  0.4944
37167SOL     OW20278   1.623  11.568   6.895  0.0984 -0.2536  0.0936
37167SOL    HW120279   1.540  11.546   6.937  0.8653 -2.4651  0.5622
37167SOL    HW220280   1.604  11.647   6.843 -2.0362 -0.1968  0.8935
37168SOL     OW20281   7.232  10.670   3.212  0.6675 -0.1171  0.6208
37168SOL    HW120282   7.158  10.677   3.152  0.2367 -1.1628  1.0027
37168SOL    HW220283   7.220  10.742   3.274  0.6824  0.4854 -0.0604
37169SOL     OW20284   1.155   5.962   6.585  0.2694  0.1643 -0.1801
37169SOL    HW120285   1.124   5.928   6.501 -0.0994 -1.3365  0.5344
37169SOL    HW220286   1.231   6.016   6.562  0.3959 -0.5049 -1.4458
37170SOL     OW20287   8.794   8.924   0.755 -0.0071  0.0799  0.2923
37170SOL    HW120288   8.711   8.915   0.801 -0.6568 -1.0521 -1.0108
37170SOL    HW220289   8.859   8.885   0.813 -0.1456  2.0390  1.8436
37171SOL     OW20290  10.249   5.215   7.084  0.1788 -0.1592 -0.4516
37171SOL    HW120291  10.223   5.209   7.176 -0.8507 -0.9351 -0.7718
37171SOL    HW220292  10.328   5.269   7.085 -1.2057  2.0056  0.6284
37172SOL     OW20293   3.381   6.330   1.751 -0.0879  0.1694  0.0534
37172SOL    HW120294   3.457   6.384   1.773  0.2200  0.4491 -1.5680
37172SOL    HW220295   3.328   6.384   1.693 -0.5943 -0.6790 -0.3054
37173SOL     OW20296   8.661   1.339  12.569 -0.0639  0.0266 -0.1599
37173SOL    HW120297   8.610   1.398  12.624  1.6406 -0.1868  1.7973
37173SOL    HW220298   8.725   1.395  12.525  0.1798 -0.0955  0.0351
37174SOL     OW20299   6.922   2.914   9.854  0.2307 -0.0919  0.1927
37174SOL    HW120300   6.924   3.007   9.874 -0.1847  0.3146 -1.5288
37174SOL    HW220301   6.872   2.875   9.926  1.6041  0.7771  1.6892
37175SOL     OW20302   4.719   0.992   4.462  0.1752  0.4660 -0.0433
37175SOL    HW120303   4.803   1.037   4.453 -0.3784  1.7219  0.8366
37175SOL    HW220304   4.666   1.051   4.515 -1.2945 -0.2725 -0.6521
37176SOL     OW20305   0.297   0.867   3.109 -0.2531 -0.5589 -0.0764
37176SOL    HW120306   0.274   0.776   3.128 -0.0083 -0.4150  0.9340
37176SOL    HW220307   0.217   0.916   3.124 -0.4177 -0.6078 -0.7366
37177SOL     OW20308   4.230   0.835   9.379  0.0006 -0.2090  0.2989
37177SOL    HW120309   4.293   0.821   9.450 -0.9832 -0.1575  1.2091
37177SOL    HW220310   4.145   0.838   9.423 -0.6597 -0.4638 -0.9303
37178SOL     OW20311   0.819   5.363   0.170  0.5209  0.2122  0.4108
37178SOL    HW120312   0.739   5.340   0.123  0.0836 -1.1411  1.7552
37178SOL    HW220313   0.834   5.455   0.147 -0.2128 -0.0992 -1.5299
37179SOL     OW20314   1.250  12.130   1.736  0.3417 -0.1588 -0.7679
37179SOL    HW120315   1.210  12.051   1.773  0.7540  0.1339  0.3447
37179SOL    HW220316   1.198  12.148   1.658  0.1141 -1.4154 -0.9403
37180SOL     OW20317  10.037  11.234   5.936 -0.4037  0.4157 -0.0005
37180SOL    HW120318   9.972  11.257   5.870 -0.2927  0.8219  0.0306
37180SOL    HW220319  10.069  11.148   5.909 -0.2918  0.6206 -0.5243
37181SOL     OW20320  10.103  10.122   2.057 -0.2499 -0.7334 -0.1559
37181SOL    HW120321  10.118  10.212   2.029 -0.0146 -1.3214 -2.0607
37181SOL    HW220322  10.182  10.074   2.030 -0.9449 -1.7625 -0.4500
37182SOL     OW20323   3.383   6.451   5.042 -0.2707 -0.0378  0.0432
37182SOL    HW120324   3.364   6.464   5.135 -0.5845  3.0734 -0.3773
37182SOL    HW220325   3.465   6.402   5.041  0.0569  0.4129  1.9414
37183SOL     OW20326  10.956   9.721   8.685 -0.0575 -0.7783  0.4332
37183SOL    HW120327  11.031   9.687   8.636 -0.6569 -1.1390 -0.2659
37183SOL    HW220328  10.972   9.695   8.775 -0.1498 -2.3403  0.0351
37184SOL     OW20329   1.427   7.585   9.608 -0.6377  0.4759 -0.2304
37184SOL    HW120330   1.391   7.498   9.588  1.3519 -0.2749 -0.8572
37184SOL    HW220331   1.462   7.577   9.697 -1.6885  1.0999  0.2579
37185SOL     OW20332   6.648   6.986  10.839  0.2761 -0.0424 -0.4231
37185SOL    HW120333   6.637   6.925  10.766  0.3049 -0.0738 -0.4012
37185SOL    HW220334   6.741   7.005  10.840  0.7318 -1.9812  1.1431
37186SOL     OW20335   8.772   6.738   2.775 -0.1813 -0.2130  0.2616
37186SOL    HW120336   8.798   6.795   2.702 -2.0650  0.2151 -0.1154
37186SOL    HW220337   8.726   6.796   2.836 -0.2057 -0.9240  0.9409
37187SOL     OW20338   6.837   9.379   9.997 -0.5405 -0.1011 -0.5722
37187SOL    HW120339   6.915   9.433   9.992 -0.3582 -0.2847  0.2043
37187SOL    HW220340   6.764   9.441   9.989 -0.3272  0.0480 -1.4845
37188SOL     OW20341   3.643   1.651   3.279 -0.3411  0.1961  0.1979
37188SOL    HW120342   3.577   1.659   3.348 -2.1582  1.8483 -1.5987
37188SOL    HW220343   3.629   1.728   3.223  2.9800  0.4996 -0.4491
37189SOL     OW20344   7.419   6.296   6.687  0.5862  0.0863 -0.1049
37189SOL    HW120345   7.391   6.287   6.596  0.2045 -1.4560  0.1414
37189SOL    HW220346   7.344   6.338   6.731 -0.0516 -1.0014 -0.1167
37190SOL     OW20347   3.486  10.362  11.988  0.5974  0.5486  0.1010
37190SOL    HW120348   3.434  10.425  12.039  0.1259  0.9993 -0.9193
37190SOL    HW220349   3.444  10.278  12.005  0.8236  0.5862  0.9370
37191SOL     OW20350   8.650   4.808   3.126  0.1727 -0.0847  0.3922
37191SOL    HW120351   8.714   4.852   3.182 -0.3624  0.9596  0.2138
37191SOL    HW220352   8.582   4.874   3.111 -0.0287 -0.5722 -0.9461
37192SOL     OW20353   4.085   4.299   3.132 -0.1446  0.2599 -0.0734
37192SOL    HW120354   4.178   4.313   3.114 -0.0030 -0.3866  0.1232
37192SOL    HW220355   4.052   4.252   3.054 -0.1580 -0.0763  0.1320
37193SOL     OW20356   9.917   3.433   5.578  0.3311  0.4914  0.1021
37193SOL    HW120357   9.971   3.450   5.501  3.3191 -0.9788  1.6972
37193SOL    HW220358   9.940   3.502   5.639  0.1517  0.0222  0.7080
37194SOL     OW20359   8.370   9.906  12.163  0.0987 -0.4092 -0.0187
37194SOL    HW120360   8.410   9.922  12.249 -0.3087 -1.5677  0.3986
37194SOL    HW220361   8.339   9.816  12.167  0.8168 -0.7795 -1.6924
37195SOL     OW20362   2.633   5.676  10.348 -0.0536 -0.1883 -0.6396
37195SOL    HW120363   2.578   5.741  10.392 -1.2783 -1.9550  0.5681
37195SOL    HW220364   2.689   5.642  10.417  0.3863 -0.6135 -1.1971
37196SOL     OW20365   5.200   9.618   9.359  0.3471  0.4561  0.3730
37196SOL    HW120366   5.192   9.525   9.336  0.1356  0.1290  1.6953
37196SOL    HW220367   5.124   9.635   9.414 -0.5719  1.8803 -1.2611
37197SOL     OW20368   4.339   6.206   5.969 -0.0143 -0.5816 -0.0773
37197SOL    HW120369   4.376   6.137   5.913  0.0001  0.0403 -0.8552
37197SOL    HW220370   4.297   6.266   5.907 -3.0907 -1.6667  0.8009
37198SOL     OW20371  11.869   5.559   9.846 -0.0582 -0.1501  0.1678
37198SOL    HW120372  11.862   5.514   9.762  2.3960 -0.2023 -0.0775
37198SOL    HW220373  11.899   5.647   9.824  3.7031 -1.0446  1.0011
37199SOL     OW20374   1.370  12.174   8.998 -0.4577  0.2168 -0.2922
37199SOL    HW120375   1.357  12.220   9.081  2.1975  0.6733 -0.0236
37199SOL    HW220376   1.325  12.091   9.009  0.8785 -0.2856  2.1932
37200SOL     OW20377   7.221   0.626   9.105 -0.3032  0.3825 -0.0767
37200SOL    HW120378   7.253   0.559   9.045 -0.0782  1.2807 -0.9748
37200SOL    HW220379   7.260   0.603   9.190 -0.0060 -0.4523 -0.4295
37201SOL     OW20380   3.589   5.054  10.076  0.2668  0.2534  0.3229
37201SOL    HW120381   3.500   5.089  10.086  0.0590 -0.0381 -0.4584
37201SOL    HW220382   3.644   5.132  10.063  0.2643  0.5015  1.6451
37202SOL     OW20383   3.035   8.492   6.136  0.3073 -0.6364 -0.4083
37202SOL    HW120384   3.092   8.568   6.122 -0.8044  0.3622  0.3781
37202SOL    HW220385   3.018   8.492   6.230 -0.2954 -1.4469 -0.5093
37203SOL     OW20386   1.656   9.924  11.886  0.3083 -0.0503  0.5373
37203SOL    HW120387   1.681   9.866  11.957 -0.6114  1.0384  1.7853
37203SOL    HW220388   1.721   9.908  11.818 -0.0035 -2.6284  0.7650
37204SOL     OW20389   4.159  10.592   1.406 -0.2846 -0.0098  0.2370
37204SOL    HW120390   4.213  10.650   1.352  0.9798 -0.3397  1.1130
37204SOL    HW220391   4.215  10.516   1.423 -1.5411 -1.0174  0.0055
37205SOL     OW20392  10.761   6.907   6.930  0.3362 -0.1191 -0.1670
37205SOL    HW120393  10.842   6.925   6.882  0.6212  0.9664  0.6753
37205SOL    HW220394  10.692   6.947   6.878  0.3522 -0.8755 -0.7859
37206SOL     OW20395  10.549   6.130   8.751  0.4083 -0.0305  0.3617
37206SOL    HW120396  10.530   6.082   8.832 -2.3050  1.1546  0.5357
37206SOL    HW220397  10.595   6.066   8.696  2.6689 -0.7626  2.8940
37207SOL     OW20398  12.527   6.527   6.646 -0.0816  0.2362  0.3050
37207SOL    HW120399  12.524   6.547   6.552  0.0947  0.8549  0.4221
37207SOL    HW220400  12.445   6.560   6.681  0.8353  2.2016  0.7530
37208SOL     OW20401   4.227  10.666  12.473  0.3630  0.1401 -0.1146
37208SOL    HW120402   4.281  10.671  12.394  1.6902  3.0556  0.8282
37208SOL    HW220403   4.151  10.720  12.454 -0.0653 -0.3849  0.0849
37209SOL     OW20404  11.599   2.858   7.205  0.6428 -0.2594 -1.0047
37209SOL    HW120405  11.686   2.821   7.219  0.9369  1.2911  2.0777
37209SOL    HW220406  11.540   2.800   7.252  0.8996  1.9170  2.3312
37210SOL     OW20407   8.423   5.305   9.074 -0.0570  0.1991  0.0948
37210SOL    HW120408   8.414   5.391   9.032 -1.4270  0.5379  0.9873
37210SOL    HW220409   8.394   5.243   9.008  0.1966  0.4993 -0.3009
37211SOL     OW20410   1.863   4.007   4.120  0.0637 -0.4744 -0.0250
37211SOL    HW120411   1.888   3.915   4.123  0.3848 -0.4174 -0.6690
37211SOL    HW220412   1.917   4.049   4.187 -1.5806 -1.0702  1.7497
37212SOL     OW20413  12.169  12.530   6.592 -0.0673  0.0588 -0.0795
37212SOL    HW120414  12.212  12.590   6.531  0.0570 -1.4422 -1.5698
37212SOL    HW220415  12.240  12.472   6.622 -0.3395  0.0659  0.5830
37213SOL     OW20416   9.689   1.819  10.615 -0.4007 -0.1809 -0.2451
37213SOL    HW120417   9.693   1.746  10.553  0.7855 -0.7592  0.4822
37213SOL    HW220418   9.595   1.833  10.628 -0.7197 -2.9206  1.0947
37214SOL     OW20419  10.274   7.886   2.484  0.0217 -0.4165 -0.3825
37214SOL    HW120420  10.184   7.888   2.515 -0.1507 -0.7237 -0.8435
37214SOL    HW220421  10.274   7.944   2.408  0.1673 -0.5632 -0.4951
37215SOL     OW20422   7.551   5.632   5.930 -0.1349  0.2265  0.2802
37215SOL    HW120423   7.558   5.658   6.022 -1.1136 -1.3282  0.8239
37215SOL    HW220424   7.489   5.694   5.892  2.4265  2.7657 -0.1540
37216SOL     OW20425   8.950   4.941   1.958  0.3217 -0.2745  0.3417
37216SOL    HW120426   8.934   4.859   1.911 -0.1118 -0.3427  0.6033
37216SOL    HW220427   9.025   4.980   1.914 -0.1779 -0.2591 -0.5053
37217SOL     OW20428   5.612   9.594   9.050  0.4583 -0.2376  0.2779
37217SOL    HW120429   5.673   9.656   9.089 -0.8465  0.8933  0.6116
37217SOL    HW220430   5.552   9.648   8.999 -1.1983 -1.1289  1.2053
37218SOL     OW20431   1.846   8.394   8.515  0.3942  0.3049  0.1048
37218SOL    HW120432   1.828   8.378   8.608  0.1541  2.0870  0.4056
37218SOL    HW220433   1.773   8.448   8.485 -0.2524 -1.3846 -1.5130
37219SOL     OW20434  12.371   7.085   6.963  0.1175  0.3543  0.4501
37219SOL    HW120435  12.286   7.074   6.920 -0.8545  2.5650  1.6165
37219SOL    HW220436  12.431   7.108   6.893 -0.4124 -0.4579 -0.2946
37220SOL     OW20437   5.991   5.459   9.623  0.7784  0.2777 -0.3254
37220SOL    HW120438   5.968   5.367   9.638  1.4650 -0.1601 -1.7686
37220SOL    HW220439   5.938   5.508   9.687  2.1251 -1.2462  2.1242
37221SOL     OW20440   2.815   0.677   6.081  0.4519 -0.2642 -0.1968
37221SOL    HW120441   2.845   0.619   6.011  2.9720 -0.2583  0.7952
37221SOL    HW220442   2.797   0.619   6.155 -1.6804 -0.2081 -0.5964
37222SOL     OW20443   3.144   7.391   4.036 -0.1944 -0.3320  0.4106
37222SOL    HW120444   3.088   7.314   4.047 -0.8471  0.0961  0.1615
37222SOL    HW220445   3.116   7.451   4.105  0.0977 -0.2002  0.4127
37223SOL     OW20446   0.772   6.869   5.405  0.1057  0.2029  0.1517
37223SOL    HW120447   0.719   6.806   5.453  1.3305 -1.5174 -0.6519
37223SOL    HW220448   0.710   6.917   5.350 -0.5881 -2.3205 -1.3974
37224SOL     OW20449   1.133   8.191  10.296 -0.1455 -0.2070  0.5219
37224SOL    HW120450   1.213   8.242  10.300 -1.3465  1.7031  1.3878
37224SOL    HW220451   1.158   8.110  10.251  2.1186  0.5488  0.3273
37225SOL     OW20452   4.292   1.240   7.104 -0.1701  0.0861 -0.4448
37225SOL    HW120453   4.296   1.145   7.106 -0.2445  0.0831 -0.4611
37225SOL    HW220454   4.384   1.267   7.100 -0.1649 -0.0004 -1.1280
37226SOL     OW20455   0.885  10.026   2.883  0.3308  0.0493 -0.0109
37226SOL    HW120456   0.807  10.019   2.828  0.9311 -0.9410 -0.7707
37226SOL    HW220457   0.855  10.072   2.962 -0.4664  1.9568 -1.3363
37227SOL     OW20458   7.999   7.737   0.813 -0.8120  0.2612 -0.2431
37227SOL    HW120459   7.966   7.652   0.784 -1.8713  0.5738 -0.0039
37227SOL    HW220460   8.053   7.717   0.890  1.6194 -0.5180 -2.0410
37228SOL     OW20461   2.462   7.857  11.348 -0.2833  0.2217 -0.1616
37228SOL    HW120462   2.376   7.867  11.390 -0.2196 -0.8640  0.2792
37228SOL    HW220463   2.506   7.941  11.362 -1.2570  0.7802 -0.3670
37229SOL     OW20464   9.316   0.246   1.451 -0.1416 -0.1718 -0.2359
37229SOL    HW120465   9.225   0.246   1.477  0.0712 -2.1297  0.7137
37229SOL    HW220466   9.365   0.270   1.530  0.2308 -0.5358 -0.3485
37230SOL     OW20467   4.856  10.189   6.050 -0.1242 -0.4088 -0.4488
37230SOL    HW120468   4.917  10.147   6.112 -0.5794 -1.3962 -0.6552
37230SOL    HW220469   4.777  10.203   6.101 -0.9235 -2.3150 -1.0799
37231SOL     OW20470   1.136   9.852  11.652 -0.1583  0.2962 -0.3336
37231SOL    HW120471   1.060   9.808  11.614 -0.7620 -0.1477  1.3053
37231SOL    HW220472   1.113   9.944  11.653 -0.6462  0.1753  0.0497
37232SOL     OW20473   9.953   5.778   1.393 -0.2761  0.2926 -0.2217
37232SOL    HW120474   9.983   5.719   1.463 -0.6933  0.3352 -0.0051
37232SOL    HW220475   9.995   5.744   1.314 -0.1412 -0.0142 -0.0235
37233SOL     OW20476   8.868   1.567   2.756 -0.2771  0.2443  0.1574
37233SOL    HW120477   8.923   1.640   2.729  1.4990 -0.6729  1.1392
37233SOL    HW220478   8.779   1.594   2.733  0.5233  1.9198 -1.1616
37234SOL     OW20479   8.434   3.444   0.471 -0.1729 -0.2868  0.0122
37234SOL    HW120480   8.376   3.509   0.432  0.2665 -0.7534 -1.4911
37234SOL    HW220481   8.406   3.360   0.434 -0.6643 -0.9770  1.8413
37235SOL     OW20482  10.860   4.940   6.700  0.1105 -0.2710  0.3511
37235SOL    HW120483  10.910   5.004   6.649 -0.1537 -0.0854  0.3224
37235SOL    HW220484  10.914   4.862   6.700 -2.0224 -2.2008 -4.8265
37236SOL     OW20485  12.346   7.391   2.593  0.3364  0.2251  0.0289
37236SOL    HW120486  12.324   7.358   2.506  0.6681  1.6260 -0.5997
37236SOL    HW220487  12.332   7.485   2.588 -0.3014  0.2624  1.7082
37237SOL     OW20488   0.749   5.168  12.487 -0.0214  0.5703 -0.1054
37237SOL    HW120489   0.689   5.188  12.559 -2.3404  0.0507 -1.7854
37237SOL    HW220490   0.773   5.076  12.500 -2.7877 -0.4562 -1.4673
37238SOL     OW20491   4.043   5.130   7.176 -0.2873 -0.0776  0.5103
37238SOL    HW120492   4.124   5.181   7.181 -0.6439  0.5947 -0.3822
37238SOL    HW220493   3.986   5.180   7.118 -1.6642 -0.1106  1.7705
37239SOL     OW20494   9.126  11.263   2.404  0.0156 -0.7677  0.2229
37239SOL    HW120495   9.074  11.342   2.391  2.0387  0.6719  0.3007
37239SOL    HW220496   9.065  11.191   2.390 -1.4255  0.7698 -2.1377
37240SOL     OW20497   4.746   6.575   2.161  0.1114  0.4683  0.0757
37240SOL    HW120498   4.700   6.492   2.151  0.7347  0.2940 -1.7781
37240SOL    HW220499   4.677   6.641   2.165 -0.3447  0.0127 -0.2802
37241SOL     OW20500   5.095   0.186   0.342  0.1817  0.7466 -0.3014
37241SOL    HW120501   5.039   0.217   0.413 -0.4693 -0.5674 -0.2198
37241SOL    HW220502   5.050   0.111   0.306  2.3654 -1.0809  0.4992
37242SOL     OW20503   2.893   5.267   6.182  0.2145 -0.5607  0.4318
37242SOL    HW120504   2.891   5.196   6.118  0.7295 -1.3431  1.2517
37242SOL    HW220505   2.961   5.326   6.151 -0.3190 -0.3334 -0.3387
37243SOL     OW20506   0.943   3.978   0.422  0.3603 -0.0726  0.2774
37243SOL    HW120507   1.014   3.993   0.359 -0.5212  1.0921 -0.4963
37243SOL    HW220508   0.927   4.064   0.459 -0.1000 -0.4915  1.0599
37244SOL     OW20509   3.450   4.202  11.017 -0.0827 -0.0701 -0.6162
37244SOL    HW120510   3.408   4.286  11.001 -1.6193 -0.6799 -0.0393
37244SOL    HW220511   3.416   4.145  10.947 -0.4114 -0.6332 -0.0075
37245SOL     OW20512   9.967  11.850  10.738 -0.3520 -0.3345  0.0148
37245SOL    HW120513   9.874  11.866  10.754 -0.4781  0.7735 -1.5433
37245SOL    HW220514   9.969  11.792  10.662  0.2296 -0.6934  0.2953
37246SOL     OW20515   2.376   2.381   2.073  0.1698  0.1468  0.0657
37246SOL    HW120516   2.297   2.328   2.062 -0.0599  0.6989 -1.0080
37246SOL    HW220517   2.350   2.469   2.048  1.1350  0.3296 -0.3412
37247SOL     OW20518   2.256   9.350  10.100 -0.1884  0.3733 -0.2518
37247SOL    HW120519   2.201   9.283  10.059 -1.7730  1.6969 -0.3975
37247SOL    HW220520   2.341   9.341  10.058 -1.0661  0.0525 -2.0456
37248SOL     OW20521   9.772   6.881   3.835 -0.6965 -0.1938  0.1935
37248SOL    HW120522   9.767   6.976   3.845 -1.0515 -0.2266  0.3537
37248SOL    HW220523   9.823   6.867   3.755 -1.5455  0.1426 -0.4148
37249SOL     OW20524   3.959   4.580   2.947  0.2279  0.0396  0.1555
37249SOL    HW120525   3.892   4.548   2.887 -1.0383  1.2101  0.8829
37249SOL    HW220526   4.040   4.579   2.896 -0.7322  0.6190 -1.4435
37250SOL     OW20527  10.428   4.759   1.960  0.2851 -0.1687 -0.0835
37250SOL    HW120528  10.493   4.694   1.935 -0.6367 -0.1781 -2.7784
37250SOL    HW220529  10.478   4.834   1.992  1.6911  0.0717 -2.6763
37251SOL     OW20530   5.345   5.517   8.063  0.2442 -0.6700  0.2166
37251SOL    HW120531   5.287   5.589   8.087  0.8015 -0.4070  0.7962
37251SOL    HW220532   5.287   5.442   8.051 -0.2955 -0.2205  0.0045
37252SOL     OW20533   3.384   0.296  10.089 -0.2658 -0.1418  0.0123
37252SOL    HW120534   3.425   0.381  10.099 -1.8725  0.5044  1.7675
37252SOL    HW220535   3.389   0.277   9.995  1.0533  1.3758 -0.2581
37253SOL     OW20536  12.245   1.486  11.300 -0.3683 -0.3568 -0.4235
37253SOL    HW120537  12.237   1.466  11.393 -0.9615  0.9424 -0.1689
37253SOL    HW220538  12.322   1.437  11.271  1.7579  1.6106  1.4616
37254SOL     OW20539   6.313  12.118   0.608  0.4210  1.0124 -0.6492
37254SOL    HW120540   6.374  12.156   0.671  0.6736  0.4159 -0.5264
37254SOL    HW220541   6.236  12.095   0.661  0.4482  0.9414 -0.6400
37255SOL     OW20542   3.427   2.507   8.533 -0.5325  0.4874 -0.1855
37255SOL    HW120543   3.487   2.463   8.473 -1.5963 -0.6136 -0.4895
37255SOL    HW220544   3.340   2.483   8.502 -1.1425  1.8798  0.3648
37256SOL     OW20545  10.004   8.279   1.080  0.2633  0.2214  0.6591
37256SOL    HW120546   9.925   8.334   1.079  0.3151  0.2980 -0.4825
37256SOL    HW220547  10.074   8.338   1.052  0.6845  0.0673  1.3516
37257SOL     OW20548   4.340   4.275  12.395 -0.1632  0.0711  0.0891
37257SOL    HW120549   4.407   4.225  12.442 -0.6828 -0.8344 -0.1157
37257SOL    HW220550   4.335   4.358  12.442  1.5505  0.4259 -0.2721
37258SOL     OW20551   5.980   0.259  12.316 -0.1357  0.1906  0.0321
37258SOL    HW120552   5.899   0.310  12.326 -0.3465  0.3807 -2.1763
37258SOL    HW220553   5.985   0.241  12.222  1.7804 -0.8551  0.2970
37259SOL     OW20554   3.707   2.279   8.731 -0.4492  0.4602  0.6451
37259SOL    HW120555   3.629   2.254   8.681 -1.1489  2.5928  0.5686
37259SOL    HW220556   3.695   2.239   8.817 -0.6038 -0.9305 -0.0002
37260SOL     OW20557   8.853   9.469   3.601  0.0492  0.1028  0.2960
37260SOL    HW120558   8.758   9.469   3.617  0.0807 -0.8367  0.5292
37260SOL    HW220559   8.864   9.528   3.526 -0.7542  0.0105  0.0925
37261SOL     OW20560  10.084   9.319   7.935 -0.1984  0.3235  0.4718
37261SOL    HW120561   9.998   9.311   7.976 -0.8357  1.1164 -0.6366
37261SOL    HW220562  10.139   9.256   7.981 -1.5312 -0.6535  0.7962
37262SOL     OW20563   4.569   0.579  10.041 -0.3124  0.3319 -0.1016
37262SOL    HW120564   4.607   0.522   9.975 -2.2181 -0.6319 -0.4371
37262SOL    HW220565   4.532   0.651   9.992  3.1068  2.6805  0.3861
37263SOL     OW20566   5.007  12.344   4.160  0.1710 -0.1245 -0.2133
37263SOL    HW120567   4.921  12.326   4.121  0.2904  1.4920 -1.3688
37263SOL    HW220568   5.052  12.260   4.159 -1.7129 -1.2389  1.3422
37264SOL     OW20569  11.614   6.734   1.804 -0.7823 -0.4246  0.0717
37264SOL    HW120570  11.655   6.731   1.717 -2.0744 -2.3821 -0.5443
37264SOL    HW220571  11.525   6.765   1.787 -0.6792  0.3549  0.8901
37265SOL     OW20572  10.069  10.478  11.943  0.3481 -0.7673  0.1969
37265SOL    HW120573  10.037  10.442  11.860 -0.9748 -0.7202  0.6537
37265SOL    HW220574  10.000  10.540  11.970  2.5152  2.2088 -0.5742
37266SOL     OW20575  11.198   0.777   1.449 -0.0985  0.3500 -0.2729
37266SOL    HW120576  11.267   0.808   1.390  1.9104 -0.0602  1.7429
37266SOL    HW220577  11.176   0.853   1.502 -0.6597  0.2654 -0.3742
37267SOL     OW20578   9.638   2.267   3.971  0.0740 -0.5566  0.5831
37267SOL    HW120579   9.663   2.182   3.934 -0.7116 -0.6057  0.1332
37267SOL    HW220580   9.718   2.299   4.013  0.4914 -1.3357  0.4183
37268SOL     OW20581   1.956  11.108   7.943 -0.1080  0.4011 -0.2218
37268SOL    HW120582   2.025  11.166   7.976 -0.1151  0.5454 -0.4566
37268SOL    HW220583   2.003  11.032   7.908 -0.0060  0.8422 -1.0912
37269SOL     OW20584   5.698   8.885   9.029  0.0847 -0.1390 -0.1914
37269SOL    HW120585   5.630   8.949   9.010  0.2044 -0.2086 -0.8618
37269SOL    HW220586   5.771   8.910   8.972  0.4856 -0.2990  0.2366
37270SOL     OW20587   4.119   1.565   6.363 -0.3278  0.4200 -0.0666
37270SOL    HW120588   4.158   1.487   6.325 -2.1151  0.2526 -1.6836
37270SOL    HW220589   4.031   1.539   6.388 -0.1126  1.2644  1.8409
37271SOL     OW20590   3.546  11.537  11.131  0.1444  0.2938  0.2318
37271SOL    HW120591   3.564  11.499  11.217 -0.1861 -1.2034 -0.3361
37271SOL    HW220592   3.451  11.532  11.122  0.0932  1.2431  0.1201
37272SOL     OW20593   7.070   3.052   5.614 -0.2528  0.2616 -0.3316
37272SOL    HW120594   6.975   3.043   5.606 -0.4381  1.3113  0.4280
37272SOL    HW220595   7.082   3.096   5.698  1.0546 -2.2452  0.8934
37273SOL     OW20596   8.587   7.033   6.551 -0.3576  0.0629  0.3362
37273SOL    HW120597   8.550   6.963   6.497  1.9995  0.4344 -1.9293
37273SOL    HW220598   8.656   6.990   6.602  1.0899  0.6565 -1.0566
37274SOL     OW20599   7.225  12.190   9.184  0.2987  0.3463 -0.3738
37274SOL    HW120600   7.129  12.184   9.192  0.0965  1.5048 -1.5413
37274SOL    HW220601   7.240  12.210   9.092  1.8441 -2.2084 -0.7733
37275SOL     OW20602   9.606   8.794   3.798 -0.5271 -0.0268  0.0859
37275SOL    HW120603   9.685   8.847   3.810 -1.7814  2.3000 -1.1413
37275SOL    HW220604   9.635   8.721   3.744  1.1147 -0.2171  1.1307
37276SOL     OW20605   0.578   1.172   8.140 -0.3154 -0.2214  0.2709
37276SOL    HW120606   0.502   1.190   8.196 -2.4107 -0.7726 -2.2261
37276SOL    HW220607   0.591   1.252   8.090  0.8333 -0.1155  0.7072
37277SOL     OW20608  12.329  10.408   1.894 -0.3114 -0.3831  0.5193
37277SOL    HW120609  12.256  10.445   1.943  1.6041  1.9077  1.8583
37277SOL    HW220610  12.365  10.482   1.845  0.6408 -1.6282 -0.7562
37278SOL     OW20611   0.769   4.586   9.347 -0.4643 -0.1275  0.1641
37278SOL    HW120612   0.785   4.654   9.281  0.8199  1.6885  2.1746
37278SOL    HW220613   0.679   4.601   9.375  0.2868  2.0712  1.7909
37279SOL     OW20614   4.454   4.029   3.755 -0.1287  0.6455  0.2565
37279SOL    HW120615   4.538   4.074   3.744  0.2552 -0.3808 -1.3514
37279SOL    HW220616   4.396   4.071   3.691  0.1800 -0.9406 -1.1223
37280SOL     OW20617   8.310   4.153  11.643  0.6685 -0.1778 -0.5009
37280SOL    HW120618   8.239   4.187  11.589 -0.2206 -0.6697  0.3216
37280SOL    HW220619   8.323   4.219  11.711  0.3910 -0.4972 -0.1354
37281SOL     OW20620  11.216   2.166   6.610 -0.0462 -0.3780 -0.0014
37281SOL    HW120621  11.214   2.249   6.563 -2.8648  0.9051  2.0325
37281SOL    HW220622  11.125   2.152   6.637  0.9140 -2.3379  2.7048
37282SOL     OW20623   5.324   9.096   9.203  0.8808 -0.0174  0.3076
37282SOL    HW120624   5.360   9.034   9.139  0.8550  1.4477 -1.2091
37282SOL    HW220625   5.231   9.072   9.210  0.9445 -0.3657 -0.0093
37283SOL     OW20626   4.841  10.052   9.065  0.3037 -0.0282 -0.0076
37283SOL    HW120627   4.821  10.141   9.093 -0.1376  0.4280 -1.7029
37283SOL    HW220628   4.768  10.000   9.096 -0.3220  0.5180 -0.5313
37284SOL     OW20629   0.837   4.379  10.666  0.1169 -0.4197 -0.0430
37284SOL    HW120630   0.925   4.351  10.640 -0.6636 -2.6804 -0.4907
37284SOL    HW220631   0.796   4.409  10.585  0.3098  0.1944  0.0825
37285SOL     OW20632   0.930   6.653   3.279 -0.3213  0.1215  0.3217
37285SOL    HW120633   0.845   6.693   3.300 -0.6316 -0.2664 -0.1802
37285SOL    HW220634   0.917   6.559   3.294  0.4355  0.1838  1.5902
37286SOL     OW20635   0.571   6.330   6.502 -0.8735 -0.0530  0.1123
37286SOL    HW120636   0.599   6.301   6.415  1.6180  2.6423 -0.1575
37286SOL    HW220637   0.486   6.371   6.488 -0.2169  0.9177 -1.2313
37287SOL     OW20638   5.067  11.676   3.249  0.1746  0.4446 -0.3136
37287SOL    HW120639   5.106  11.764   3.258  2.0246 -0.4263  0.7983
37287SOL    HW220640   5.058  11.646   3.339 -0.1472 -0.6367 -0.7025
37288SOL     OW20641   5.351  10.780  10.881  0.0047  0.0959 -0.4395
37288SOL    HW120642   5.278  10.840  10.897  1.2607  2.1723 -1.8379
37288SOL    HW220643   5.411  10.795  10.954 -0.2528 -0.4262 -0.1188
37289SOL     OW20644   6.224   1.292   7.702  0.0169 -0.5949  0.0568
37289SOL    HW120645   6.206   1.346   7.778  0.0619 -0.2367 -0.1830
37289SOL    HW220646   6.313   1.315   7.676 -0.7980  1.0454 -1.5046
37290SOL     OW20647   2.738   4.152  10.182 -0.1242  0.4033 -0.0110
37290SOL    HW120648   2.644   4.144  10.196 -0.0695 -0.0151  0.1466
37290SOL    HW220649   2.769   4.061  10.175  0.3699  0.5124  0.6393
37291SOL     OW20650   6.037   4.551   0.453 -0.3153 -0.3483 -0.5626
37291SOL    HW120651   5.996   4.510   0.530  1.1353 -1.0604 -0.1386
37291SOL    HW220652   6.069   4.635   0.486 -0.9081 -0.0449 -0.7493
37292SOL     OW20653   2.414  12.128   4.773 -0.4708  0.5074 -0.0653
37292SOL    HW120654   2.464  12.209   4.764 -0.4252  0.3510 -1.5033
37292SOL    HW220655   2.327  12.148   4.739 -0.6875  0.1504  0.2617
37293SOL     OW20656   1.194   1.390   2.487  0.0351  0.6106  0.1785
37293SOL    HW120657   1.149   1.398   2.571 -2.2649  0.0971 -0.9154
37293SOL    HW220658   1.159   1.462   2.434 -0.1118 -0.2797 -0.9675
37294SOL     OW20659   2.716   6.815   9.462 -0.0438  0.0656  0.4340
37294SOL    HW120660   2.751   6.857   9.384  0.0664 -0.2151  0.3296
37294SOL    HW220661   2.630   6.855   9.475 -0.2787 -0.2516 -0.1248
37295SOL     OW20662   1.597  12.516  10.924  0.3122 -0.2330 -0.0906
37295SOL    HW120663   1.670  12.482  10.976  2.0043 -0.8634 -2.7182
37295SOL    HW220664   1.619  12.608  10.910 -0.0615 -0.1072  0.1283
37296SOL     OW20665  10.340   3.029   4.966 -0.5181  0.3007 -0.6001
37296SOL    HW120666  10.349   2.958   5.031 -0.9724  1.4125  0.7262
37296SOL    HW220667  10.265   3.079   4.996 -0.6947  0.9001 -1.9865
37297SOL     OW20668  11.022   6.738   9.362  0.2959  0.2953  0.1600
37297SOL    HW120669  10.986   6.651   9.380  0.5571 -0.2158 -1.6613
37297SOL    HW220670  10.953   6.798   9.391  0.0903 -0.4931  1.3957
37298SOL     OW20671   6.207   7.293   2.949 -0.5822 -0.0902  0.0997
37298SOL    HW120672   6.215   7.203   2.979 -0.2162  0.5529  2.0544
37298SOL    HW220673   6.117   7.299   2.915 -0.3027 -1.4068 -0.9228
37299SOL     OW20674   7.227   5.549   5.747  0.5858 -0.1708  0.0295
37299SOL    HW120675   7.265   5.465   5.773 -0.0659 -0.8303 -1.0315
37299SOL    HW220676   7.191   5.532   5.660  0.7533  1.3197 -0.3496
37300SOL     OW20677   2.694   3.425   4.972 -0.4068 -0.0893 -0.0030
37300SOL    HW120678   2.641   3.381   4.906  0.0510 -2.3400  1.0605
37300SOL    HW220679   2.723   3.356   5.030  2.1478  1.3327  0.5604
37301SOL     OW20680   2.511   3.013  12.170 -0.1936 -0.3720 -0.0917
37301SOL    HW120681   2.454   3.071  12.219  1.7687  1.5216  0.0936
37301SOL    HW220682   2.473   3.009  12.083 -0.0069  1.8246 -0.3177
37302SOL     OW20683   9.697   8.971   3.273 -0.0109  0.0066  0.2969
37302SOL    HW120684   9.662   8.974   3.184  0.5262 -2.1331 -0.0485
37302SOL    HW220685   9.699   9.062   3.302 -1.9686  0.5757 -1.1676
37303SOL     OW20686   1.074  11.237   6.333  0.0529  0.2415 -0.1044
37303SOL    HW120687   1.131  11.234   6.256  0.9827 -1.0155  0.5868
37303SOL    HW220688   1.116  11.178   6.396 -2.0375 -0.7822  0.4226
37304SOL     OW20689   0.468   6.624   7.037  0.4569  0.1155 -0.6145
37304SOL    HW120690   0.486   6.531   7.045 -0.9714 -0.2188 -1.0162
37304SOL    HW220691   0.466   6.640   6.942  0.6891  0.5554 -0.5505
37305SOL     OW20692   5.218  10.853   9.346 -0.3236 -0.1509  0.2033
37305SOL    HW120693   5.314  10.853   9.350 -0.2116  1.0109 -1.4023
37305SOL    HW220694   5.190  10.867   9.436  1.1541  4.1448  0.2280
37306SOL     OW20695  12.403   0.154   8.504 -0.0423 -0.1698  0.2949
37306SOL    HW120696  12.492   0.135   8.474  0.2311  0.6578  0.5546
37306SOL    HW220697  12.346   0.119   8.435  0.4366 -1.4952  0.5506
37307SOL     OW20698   5.342   9.239   8.192  0.3435  0.4633 -0.0333
37307SOL    HW120699   5.429   9.277   8.178 -0.2013  1.2682 -1.3546
37307SOL    HW220700   5.325   9.188   8.113 -0.7362  1.0184 -0.1781
37308SOL     OW20701   3.314   4.771   6.865 -0.5071  0.4120  0.0594
37308SOL    HW120702   3.256   4.834   6.822 -0.1025  1.2553  0.7248
37308SOL    HW220703   3.335   4.811   6.949  1.1269  0.1788 -0.2075
37309SOL     OW20704   7.604   6.220   1.286  0.1800  0.0831 -0.1918
37309SOL    HW120705   7.671   6.196   1.350 -0.4993 -0.9211  0.1684
37309SOL    HW220706   7.592   6.314   1.297 -0.3996 -0.1714  1.6293
37310SOL     OW20707   5.836   1.948   1.756  0.2313 -0.3606 -0.1125
37310SOL    HW120708   5.810   2.006   1.685  2.2681 -0.2248 -0.8124
37310SOL    HW220709   5.753   1.921   1.796 -0.9334  0.3005 -1.9267
37311SOL     OW20710   7.317  12.540  10.182 -0.2444 -0.0022  0.5281
37311SOL    HW120711   7.253  12.469  10.181  0.1352 -0.3467  0.1935
37311SOL    HW220712   7.320  12.567  10.274 -0.4059 -0.4085  0.6577
37312SOL     OW20713   4.885   4.536   3.988 -0.4515 -0.3760  0.2769
37312SOL    HW120714   4.956   4.549   4.050 -1.5268  0.6972  1.3590
37312SOL    HW220715   4.814   4.498   4.041 -0.5127 -1.9809 -0.8898
37313SOL     OW20716   5.581   8.488   7.569  0.0448 -0.5221 -0.2920
37313SOL    HW120717   5.552   8.568   7.524 -1.4613 -0.3728  0.8404
37313SOL    HW220718   5.599   8.517   7.659  1.4166 -1.1055 -0.3588
37314SOL     OW20719   4.454   5.599   7.837  0.0694 -0.3114 -0.2427
37314SOL    HW120720   4.391   5.646   7.891 -0.9783 -1.5493 -0.3521
37314SOL    HW220721   4.526   5.577   7.896  1.0423  2.1922 -0.3909
37315SOL     OW20722   8.551  12.035   7.038 -0.4683  0.7394  0.3077
37315SOL    HW120723   8.634  12.042   6.991 -1.1103 -0.4265 -1.0543
37315SOL    HW220724   8.486  12.017   6.971 -1.3830 -1.3022  1.6240
37316SOL     OW20725  10.784   0.762   9.259  0.5161  0.1941  0.0917
37316SOL    HW120726  10.768   0.790   9.169 -1.5332  1.2142  0.7104
37316SOL    HW220727  10.851   0.693   9.252  0.9567  0.7905 -2.1040
37317SOL     OW20728   5.638   3.371   2.490 -0.0333 -0.4632 -0.1296
37317SOL    HW120729   5.591   3.313   2.550 -0.9545  0.5373  0.1700
37317SOL    HW220730   5.721   3.327   2.473  0.7431 -0.3155  2.7504
37318SOL     OW20731  11.806  11.340   9.824 -0.4675  0.0310 -0.2111
37318SOL    HW120732  11.828  11.262   9.874  0.2250 -0.1281 -0.7470
37318SOL    HW220733  11.862  11.409   9.861 -2.0425  0.6449  1.1935
37319SOL     OW20734   4.747   3.723  12.225  0.4819  0.0416  0.1980
37319SOL    HW120735   4.815   3.760  12.169 -0.4965  0.4693 -0.7434
37319SOL    HW220736   4.791   3.654  12.274  1.4248 -0.2087 -0.9555
37320SOL     OW20737   8.474   2.391  10.850  0.4535  0.0572 -0.1946
37320SOL    HW120738   8.512   2.320  10.799 -1.1646 -1.5277  0.7009
37320SOL    HW220739   8.381   2.371  10.854  0.1646  1.4916  1.2445
37321SOL     OW20740   7.155   6.899   7.027 -0.3599  0.2488  0.0704
37321SOL    HW120741   7.120   6.899   7.116 -1.1940 -0.1943 -0.2482
37321SOL    HW220742   7.097   6.958   6.978 -0.0777  0.2702 -0.2434
37322SOL     OW20743   9.824   6.100   8.187 -0.2343 -0.4118 -0.0104
37322SOL    HW120744   9.917   6.115   8.169 -0.6223  0.8068 -1.1428
37322SOL    HW220745   9.814   6.122   8.280  0.3119  1.1636 -0.2843
37323SOL     OW20746   9.936  11.936   8.570 -0.1349 -0.1126 -0.0040
37323SOL    HW120747   9.954  11.842   8.570  0.8952  0.0666 -0.9904
37323SOL    HW220748   9.959  11.964   8.659  2.3012 -0.3240 -0.5012
37324SOL     OW20749   3.482  12.302   1.509 -0.2417 -0.6626 -0.0205
37324SOL    HW120750   3.540  12.315   1.434 -2.4599 -0.1655 -1.7948
37324SOL    HW220751   3.480  12.207   1.522 -0.7902 -0.8820 -1.4845
37325SOL     OW20752   7.828  11.171   5.072 -0.0473 -0.4269  0.3438
37325SOL    HW120753   7.758  11.216   5.025 -0.6489 -1.5889  0.0850
37325SOL    HW220754   7.817  11.196   5.163 -0.9154 -0.7412  0.3263
37326SOL     OW20755   9.111   9.532   7.940 -0.0798 -0.0457 -0.2426
37326SOL    HW120756   9.205   9.538   7.923  0.0977  2.8485  1.0565
37326SOL    HW220757   9.101   9.563   8.030 -2.3696  1.0965 -0.8010
37327SOL     OW20758  12.455  10.964  12.568  0.2280 -0.0254  0.1513
37327SOL    HW120759  12.399  10.980  12.644 -1.0070  1.3822 -0.9881
37327SOL    HW220760  12.478  10.871  12.573 -1.6881 -0.4928  1.0229
37328SOL     OW20761   6.758   7.686   5.569 -0.1932  0.4116 -0.2716
37328SOL    HW120762   6.789   7.687   5.660 -1.0156 -0.9242  0.0527
37328SOL    HW220763   6.664   7.703   5.575 -0.1946  0.6848 -0.9185
37329SOL     OW20764   3.652   4.003   6.264 -0.4470  0.1728  0.3158
37329SOL    HW120765   3.594   3.927   6.265 -0.3047  0.0678  0.5679
37329SOL    HW220766   3.706   3.994   6.343 -0.2831  0.4203  0.2343
37330SOL     OW20767   0.963   2.874   8.420 -0.0550  0.0141 -0.3279
37330SOL    HW120768   1.049   2.897   8.455 -0.4720  0.7780  0.2319
37330SOL    HW220769   0.939   2.947   8.363  0.4305 -1.0228 -1.9421
37331SOL     OW20770  11.949   7.708   9.149  0.0512  0.5411  0.0718
37331SOL    HW120771  11.979   7.654   9.075 -1.4359 -0.8063  0.3915
37331SOL    HW220772  12.025   7.715   9.206  1.3482  1.9228 -1.7293
37332SOL     OW20773   9.240   2.019   9.486 -0.6632 -0.9629 -0.1326
37332SOL    HW120774   9.240   1.975   9.571 -1.2548  0.4421  0.6371
37332SOL    HW220775   9.152   2.056   9.478  0.3928  1.9629  0.3403
37333SOL     OW20776   9.237   6.250  11.155  0.4075  0.2784 -0.4329
37333SOL    HW120777   9.211   6.210  11.072  2.4784  0.9478 -1.4704
37333SOL    HW220778   9.219   6.343  11.143 -0.7084  0.2033  0.4839
37334SOL     OW20779   1.189   5.128  11.304 -0.0663  0.6133 -0.0038
37334SOL    HW120780   1.278   5.114  11.271 -0.2616  0.0405 -0.3005
37334SOL    HW220781   1.158   5.205  11.258 -0.5566 -0.5175 -1.6427
37335SOL     OW20782  12.467   7.042   1.039  0.5356  0.2961 -0.0822
37335SOL    HW120783  12.400   7.086   1.091  2.6199  0.0719  3.0826
37335SOL    HW220784  12.526   7.112   1.012 -0.8902  0.5162 -2.9955
37336SOL     OW20785   2.344   0.710   5.570  0.2925 -0.1771 -0.6761
37336SOL    HW120786   2.306   0.699   5.483  1.4241  0.8344 -1.3387
37336SOL    HW220787   2.424   0.760   5.555 -1.1359  3.0016  1.3004
37337SOL     OW20788   3.969   3.732   2.705  0.1368 -0.1070 -0.0857
37337SOL    HW120789   3.937   3.734   2.615 -0.5724  2.0459  0.1624
37337SOL    HW220790   3.916   3.797   2.751  0.0420 -1.6145  2.0701
37338SOL     OW20791  10.136   3.070  12.098  0.3413 -0.2788  0.2459
37338SOL    HW120792  10.203   3.102  12.158  0.2777  0.0386  0.1462
37338SOL    HW220793  10.132   3.135  12.028 -1.1177  0.4873  1.0011
37339SOL     OW20794   5.901   3.835  10.500  0.0358 -0.1710 -0.0586
37339SOL    HW120795   5.832   3.785  10.456  1.0042 -1.2415 -0.4488
37339SOL    HW220796   5.873   3.840  10.591 -0.9470  0.1453 -0.3669
37340SOL     OW20797   4.385  11.260   4.503 -0.0448  0.2472 -0.0913
37340SOL    HW120798   4.357  11.205   4.576  1.1540 -0.5984 -0.2318
37340SOL    HW220799   4.368  11.206   4.425 -1.9966  1.4145 -0.5470
37341SOL     OW20800   7.919   3.029   5.796  0.4815  0.4645  0.0934
37341SOL    HW120801   7.927   3.082   5.874 -0.4436 -1.3966  1.5370
37341SOL    HW220802   7.994   2.969   5.800  0.7227  0.6838 -0.7531
37342SOL     OW20803   0.758  11.222   7.844  0.5722 -0.0073  0.0735
37342SOL    HW120804   0.799  11.299   7.805 -1.3026  0.2861 -1.4409
37342SOL    HW220805   0.714  11.255   7.922 -1.4764  0.8263 -1.3603
37343SOL     OW20806  12.307   6.897   3.136  0.4306 -0.1827 -0.3302
37343SOL    HW120807  12.355   6.855   3.065  1.4017  0.9460 -0.3688
37343SOL    HW220808  12.217   6.904   3.104  0.4103 -1.4947 -0.6221
37344SOL     OW20809   0.838   0.045   7.761  0.5543 -0.1844  0.5700
37344SOL    HW120810   0.795   0.007   7.838  1.8491 -0.1248  1.3489
37344SOL    HW220811   0.794   0.129   7.748  2.2906  1.2403  3.1522
37345SOL     OW20812   8.907   8.312   2.087 -0.5715 -0.2344 -0.5746
37345SOL    HW120813   8.922   8.406   2.094 -0.7637 -0.3265  1.6562
37345SOL    HW220814   8.992   8.276   2.062 -0.3221  0.4567 -0.7374
37346SOL     OW20815   9.945   7.210   1.395 -0.2333 -0.8682  0.6311
37346SOL    HW120816   9.959   7.203   1.301 -1.0104  0.3429  0.3905
37346SOL    HW220817   9.910   7.125   1.421 -1.2108 -0.8179 -0.4257
37347SOL     OW20818   1.985   3.577   3.606  0.1597  0.5226  0.0584
37347SOL    HW120819   1.984   3.555   3.513  0.7531  1.4261 -0.1771
37347SOL    HW220820   1.989   3.673   3.607 -1.4041  0.6121  1.0215
37348SOL     OW20821   6.319  12.442   2.098  0.0436 -0.4487 -0.6266
37348SOL    HW120822   6.327  12.468   2.190 -0.2662  0.4046 -0.8271
37348SOL    HW220823   6.301  12.524   2.052 -1.1556 -1.0444 -1.2710
37349SOL     OW20824   2.896   2.274   8.880 -0.3586  0.3608  0.0167
37349SOL    HW120825   2.917   2.180   8.873  2.2462  0.8753 -0.1971
37349SOL    HW220826   2.907   2.293   8.973  0.7897  0.7498 -0.1796
37350SOL     OW20827   4.370   4.267  10.037  0.3285 -0.2892 -0.5038
37350SOL    HW120828   4.295   4.274  10.096  0.1548  0.3205 -0.7909
37350SOL    HW220829   4.446   4.276  10.093  0.1607  0.4929 -0.3844
37351SOL     OW20830   4.509  10.909   0.783  0.1929  0.3178  0.4267
37351SOL    HW120831   4.455  10.859   0.845 -0.0374  0.5240  0.3960
37351SOL    HW220832   4.586  10.854   0.769 -0.7413 -0.7640 -0.7672
37352SOL     OW20833  11.496   1.744   2.559 -0.2177 -0.3610  0.6404
37352SOL    HW120834  11.403   1.723   2.568  0.1959 -3.2039 -0.5692
37352SOL    HW220835  11.514   1.735   2.465  1.2971  0.0242  0.8675
37353SOL     OW20836  11.728   3.668   6.516  0.0530 -0.0580  0.3088
37353SOL    HW120837  11.656   3.606   6.508 -0.5839  0.7881 -0.8523
37353SOL    HW220838  11.691   3.752   6.490  0.9033  0.8286  1.8096
37354SOL     OW20839  10.918   2.316   9.297 -0.0339  0.1326  0.1766
37354SOL    HW120840  10.957   2.377   9.234 -0.5732 -0.4199 -0.7252
37354SOL    HW220841  10.884   2.372   9.367  0.2508  0.7935 -0.2041
37355SOL     OW20842   6.135  11.198  11.771  0.2914  0.0621  0.3012
37355SOL    HW120843   6.182  11.115  11.759 -1.5479 -1.1433  0.8802
37355SOL    HW220844   6.046  11.171  11.792 -0.1773  2.2141  1.3081
37356SOL     OW20845   2.149   1.056  11.069 -0.5226  0.1430 -0.5184
37356SOL    HW120846   2.157   0.968  11.033 -0.0885 -0.5647  1.2160
37356SOL    HW220847   2.054   1.072  11.071 -0.7182 -1.0016  0.7527
37357SOL     OW20848  12.525   5.409  10.688 -0.1320  0.1901  0.7490
37357SOL    HW120849  12.620   5.395  10.689 -0.2572 -0.8752  2.4529
37357SOL    HW220850  12.490   5.337  10.637 -0.0673  0.2638  0.5998
37358SOL     OW20851  10.911   0.558   3.398 -0.0979 -0.1511  0.4391
37358SOL    HW120852  10.914   0.640   3.447  0.8341  0.6977 -0.9834
37358SOL    HW220853  10.854   0.576   3.323  0.9095 -0.4782 -0.4278
37359SOL     OW20854   7.978   7.417   5.394  0.5434 -0.1183 -0.3472
37359SOL    HW120855   7.947   7.505   5.414 -0.7283 -0.6296  0.0697
37359SOL    HW220856   7.933   7.394   5.312 -0.1568 -0.8485  0.2246
37360SOL     OW20857   3.172   9.808  10.971  0.0529  0.5578 -1.0869
37360SOL    HW120858   3.084   9.832  10.940  0.2642 -1.5164 -3.6444
37360SOL    HW220859   3.157   9.767  11.056 -1.0486  2.9817 -0.0302
37361SOL     OW20860   4.220   8.425   5.717  0.7192 -0.4526 -0.0591
37361SOL    HW120861   4.179   8.357   5.770  1.0748 -1.1857 -0.7062
37361SOL    HW220862   4.183   8.413   5.630  0.0501  0.8205  0.0224
37362SOL     OW20863  11.514   8.746   4.408  0.3554 -0.4339 -0.1057
37362SOL    HW120864  11.554   8.790   4.483  1.0494  0.5433 -1.0276
37362SOL    HW220865  11.482   8.817   4.353 -1.2844 -1.1569 -0.1698
37363SOL     OW20866   7.060   4.759  12.160  0.0413  0.1454 -0.1502
37363SOL    HW120867   7.012   4.841  12.159 -0.3895 -0.0687  0.9076
37363SOL    HW220868   7.065   4.732  12.069  0.3105  1.4082 -0.5248
37364SOL     OW20869   7.045   5.061   2.512 -0.0228  0.2022  0.0518
37364SOL    HW120870   7.112   5.061   2.581 -0.7265  1.4055  0.7758
37364SOL    HW220871   6.965   5.033   2.556 -0.4017  0.6294 -0.3541
37365SOL     OW20872   5.855   7.873   0.033  0.1246 -0.0786 -0.6206
37365SOL    HW120873   5.761   7.866   0.045  0.0970 -1.1313 -1.3504
37365SOL    HW220874   5.885   7.925   0.108 -1.0550  0.4907 -0.5278
37366SOL     OW20875   8.093   3.275  12.367  1.3180 -0.4095  0.0568
37366SOL    HW120876   8.053   3.229  12.441  0.9253  0.0151  0.1173
37366SOL    HW220877   8.101   3.366  12.398  0.2708 -0.0248 -0.7598
37367SOL     OW20878   9.100   1.253   7.178  0.0694  0.5382 -0.2052
37367SOL    HW120879   9.189   1.223   7.197  0.1629 -0.1144 -1.5317
37367SOL    HW220880   9.094   1.340   7.218  0.8564  0.0609  1.0121
37368SOL     OW20881   4.811   9.348   1.725  0.6717  0.4200 -0.3504
37368SOL    HW120882   4.783   9.267   1.769  1.3607 -0.5969 -1.6793
37368SOL    HW220883   4.902   9.329   1.698  0.3989  1.1188 -1.8416
37369SOL     OW20884   2.869  11.134   0.984 -0.1579  0.2561  0.0915
37369SOL    HW120885   2.812  11.174   1.050 -0.2891  1.2519 -0.5929
37369SOL    HW220886   2.957  11.163   1.009 -0.0732 -0.3168  0.4773
37370SOL     OW20887  12.593  11.317   4.763  0.0281  0.7510 -0.6626
37370SOL    HW120888  12.513  11.265   4.773  0.9760 -0.3933  1.6760
37370SOL    HW220889  12.588  11.383   4.832  1.3256  0.2963 -0.0918
37371SOL     OW20890   2.591   8.833   3.095  0.1449  0.4457  0.5397
37371SOL    HW120891   2.650   8.888   3.044  0.0385 -0.1433 -0.2418
37371SOL    HW220892   2.616   8.743   3.071 -1.6694  0.1924 -0.5044
37372SOL     OW20893   5.860   3.442   3.490 -0.0571 -0.0557  0.4956
37372SOL    HW120894   5.932   3.451   3.428 -1.4685 -0.1558 -1.2183
37372SOL    HW220895   5.847   3.530   3.525  0.2148  0.1802  0.0172
37373SOL     OW20896   9.370  10.977   0.990  0.1047 -0.2042 -0.6865
37373SOL    HW120897   9.411  11.008   0.910 -2.0393  0.0905 -1.7372
37373SOL    HW220898   9.278  10.999   0.980 -0.0556  1.2029  2.4996
37374SOL     OW20899   7.333   3.034   5.800  0.5955  0.5100  0.0842
37374SOL    HW120900   7.385   3.041   5.880  0.6106 -1.3601  0.2988
37374SOL    HW220901   7.272   3.107   5.805  1.2304  0.9950  1.3302
37375SOL     OW20902  10.706  11.120  11.747  0.3437  0.0692 -0.6596
37375SOL    HW120903  10.751  11.205  11.746 -0.0018  0.2884 -2.6494
37375SOL    HW220904  10.691  11.101  11.839 -0.4098  2.6417 -0.1823
37376SOL     OW20905  10.082   0.669   6.708 -0.2108 -0.5440 -0.0760
37376SOL    HW120906  10.068   0.580   6.741  0.7792 -0.4333  0.6904
37376SOL    HW220907  10.166   0.665   6.663 -0.0080  0.0697  0.2398
37377SOL     OW20908  10.182   2.016  11.361  0.5824 -0.2300 -0.0622
37377SOL    HW120909  10.118   2.048  11.426  0.6440 -0.6224  0.1914
37377SOL    HW220910  10.132   1.954  11.307  0.9765 -1.2212  0.7003
37378SOL     OW20911  12.068  10.865  12.581  0.0856 -0.7205 -0.1945
37378SOL    HW120912  12.153  10.884  12.621  0.2440  0.8461 -1.1470
37378SOL    HW220913  12.004  10.896  12.645  0.1457 -3.0893  1.0934
37379SOL     OW20914   7.689  12.407   3.276 -0.1941  0.1537 -0.3293
37379SOL    HW120915   7.619  12.432   3.336  0.2351  2.3452 -0.6413
37379SOL    HW220916   7.769  12.430   3.323  0.3760 -2.3214  0.0285
37380SOL     OW20917   5.031   6.443   5.822 -0.4713 -0.7047 -0.0375
37380SOL    HW120918   5.090   6.408   5.755  0.6279 -0.9113  0.9975
37380SOL    HW220919   4.984   6.514   5.778 -0.5234 -1.4982 -1.2995
37381SOL     OW20920  12.582   3.124  11.409  0.3957 -0.1306 -0.4929
37381SOL    HW120921  12.634   3.052  11.374 -0.9174 -0.4580 -1.8520
37381SOL    HW220922  12.536   3.160  11.334 -0.0284  1.2618  0.3868
37382SOL     OW20923   6.916   6.940   9.789  0.0180  0.7057  0.2677
37382SOL    HW120924   6.837   6.987   9.814  0.1165  0.8258  0.3523
37382SOL    HW220925   6.895   6.900   9.705 -0.0630  0.9052  0.1931
37383SOL     OW20926  11.433   8.971   6.121 -0.2229 -0.0716 -0.6337
37383SOL    HW120927  11.468   8.894   6.164 -1.2771 -0.5027 -0.5297
37383SOL    HW220928  11.480   9.044   6.161  0.8227 -0.6497 -0.7767
37384SOL     OW20929   4.613   1.616  10.514  0.3880  0.0698 -0.2234
37384SOL    HW120930   4.684   1.659  10.466  0.8895  0.4372  0.8139
37384SOL    HW220931   4.587   1.680  10.579  1.3783 -1.2719  1.5866
37385SOL     OW20932  11.622   3.050   1.757  0.2551 -0.0266  0.8824
37385SOL    HW120933  11.660   2.964   1.739  1.3220  0.7512 -0.7909
37385SOL    HW220934  11.592   3.044   1.848  1.5993 -1.6978  1.2698
37386SOL     OW20935   1.795  11.529   2.819 -0.4540 -0.3223  0.4753
37386SOL    HW120936   1.764  11.439   2.830 -0.8185 -0.3280 -0.5518
37386SOL    HW220937   1.841  11.529   2.736 -0.7198  0.5128  0.3144
37387SOL     OW20938   0.681   5.577  12.564  0.0132  0.1459 -0.2768
37387SOL    HW120939   0.746   5.636  12.603 -1.0769  1.6402 -0.6580
37387SOL    HW220940   0.602   5.589  12.617 -0.2746 -0.8866 -0.4463
37388SOL     OW20941   6.484   3.102   7.241 -0.5807 -0.0373 -0.1089
37388SOL    HW120942   6.438   3.185   7.250 -1.7137 -0.5670 -0.7922
37388SOL    HW220943   6.574   3.127   7.218 -1.1648  1.0012 -1.3899
37389SOL     OW20944   5.610   9.350   8.210  0.1070 -0.2311  0.1001
37389SOL    HW120945   5.657   9.298   8.275  0.7858 -0.7056 -0.7562
37389SOL    HW220946   5.570   9.421   8.260 -1.7828 -2.1526  1.5020
37390SOL     OW20947   2.136  11.515   3.750  0.3602 -0.1004  0.1967
37390SOL    HW120948   2.187  11.580   3.797 -0.0958  0.0269  0.5193
37390SOL    HW220949   2.179  11.432   3.770  0.1863 -0.0455  0.8210
37391SOL     OW20950   3.176   2.216   9.551 -0.5359  0.3226 -0.1013
37391SOL    HW120951   3.208   2.193   9.639 -0.6102 -0.4988 -0.2834
37391SOL    HW220952   3.171   2.312   9.552  1.4822  0.4534  0.0809
37392SOL     OW20953   5.121  10.323   5.618 -0.5435 -0.6622  0.3976
37392SOL    HW120954   5.085  10.289   5.700  0.4013  0.0440  1.1177
37392SOL    HW220955   5.087  10.412   5.612 -0.9079 -0.8357 -0.1747
37393SOL     OW20956   8.245   4.312   9.774  0.5740  0.1330  0.3533
37393SOL    HW120957   8.276   4.349   9.692 -1.0909  1.6663  0.3598
37393SOL    HW220958   8.298   4.355   9.842 -0.4094  1.5320  0.2700
37394SOL     OW20959   3.011   8.408   9.595 -0.7548  0.1464  0.2759
37394SOL    HW120960   2.978   8.452   9.673  0.8279  1.3614  0.3256
37394SOL    HW220961   2.988   8.466   9.522  1.2532  1.1104  0.3315
37395SOL     OW20962   5.903   9.070   1.508 -0.0962 -0.1162  0.2742
37395SOL    HW120963   5.967   9.120   1.559 -1.2260 -0.2041  1.8824
37395SOL    HW220964   5.822   9.077   1.559 -1.4073  0.0737 -1.7411
37396SOL     OW20965   0.023   7.834  10.667 -0.2263 -0.1560  0.0351
37396SOL    HW120966   0.039   7.895  10.739  0.8656 -0.0104 -0.3147
37396SOL    HW220967  -0.061   7.794  10.688 -1.3937  2.0455 -0.1347
37397SOL     OW20968   3.687   7.393   2.627  0.5162  0.6451 -0.2828
37397SOL    HW120969   3.774   7.425   2.650  0.3526  0.6455  0.3554
37397SOL    HW220970   3.648   7.367   2.710 -0.5015  1.6659 -0.4111
37398SOL     OW20971  11.950   5.287  10.516 -0.4704 -0.5328  0.4568
37398SOL    HW120972  12.034   5.251  10.489 -0.6556 -1.0785  0.5879
37398SOL    HW220973  11.937   5.362  10.459 -0.6289 -1.3738 -0.6600
37399SOL     OW20974  12.554   5.269   1.005  0.2301 -0.5712 -0.2633
37399SOL    HW120975  12.563   5.186   0.958  0.5303  0.3953 -1.9560
37399SOL    HW220976  12.477   5.311   0.966 -0.4859 -0.4237  1.2167
37400SOL     OW20977  12.120   7.838   3.134 -0.3639 -0.2654  0.2711
37400SOL    HW120978  12.142   7.896   3.206 -0.1068 -0.4927  0.3746
37400SOL    HW220979  12.073   7.894   3.072 -1.0904 -0.2062  0.8700
37401SOL     OW20980   1.316   4.586   4.001 -0.1019  0.6143  0.0612
37401SOL    HW120981   1.269   4.512   3.961  1.3914 -0.8717  0.9238
37401SOL    HW220982   1.401   4.587   3.957  0.8161  0.2044  1.7246
37402SOL     OW20983   1.486  11.609   9.067 -0.0200  0.1404  0.3697
37402SOL    HW120984   1.560  11.653   9.110  0.0157 -0.9292  1.4478
37402SOL    HW220985   1.528  11.549   9.006  0.0665 -1.1025  1.6059
37403SOL     OW20986   3.624  10.161  11.714 -0.0868 -0.1235 -0.2890
37403SOL    HW120987   3.632  10.250  11.679  3.3456 -0.7127 -1.4371
37403SOL    HW220988   3.557  10.120  11.659  0.7832  0.7878 -2.1281
37404SOL     OW20989   7.008   7.361   8.216 -0.1343 -0.5945 -0.7826
37404SOL    HW120990   6.952   7.374   8.139 -3.6036 -2.3256  1.2108
37404SOL    HW220991   6.972   7.420   8.282  0.8654 -1.2663  0.4039
37405SOL     OW20992  12.272   4.993  10.909 -0.2170 -0.2258 -0.5903
37405SOL    HW120993  12.363   5.014  10.928 -0.9580  0.3515  3.0470
37405SOL    HW220994  12.243   5.060  10.847  0.9049  1.8552  1.0298
37406SOL     OW20995   8.986   3.771   3.980 -0.0598 -0.2990 -0.0534
37406SOL    HW120996   9.019   3.858   4.005 -1.2904  0.3793 -0.6912
37406SOL    HW220997   9.047   3.741   3.912  0.3227  0.1017  0.1053
37407SOL     OW20998   1.104  12.411   6.263  0.5986  0.3044 -0.1654
37407SOL    HW120999   1.103  12.315   6.267  0.3371  0.2117 -1.9007
37407SOL    HW221000   1.053  12.433   6.185 -0.1482  1.9110  0.7175
37408SOL     OW21001   7.950   7.505   0.306 -0.3601 -0.2338  0.1453
37408SOL    HW121002   7.910   7.459   0.380  0.0347  0.3804  0.7574
37408SOL    HW221003   8.024   7.551   0.345 -1.0672  1.3619 -0.3487
37409SOL     OW21004  11.090   9.481   2.242  0.3616 -0.7237 -0.2405
37409SOL    HW121005  11.114   9.392   2.270 -0.0322 -1.1672 -1.2581
37409SOL    HW221006  11.000   9.492   2.272  1.7019  1.0313  3.7949
37410SOL     OW21007   8.247   8.527  10.676 -0.5622 -0.6134 -0.1938
37410SOL    HW121008   8.192   8.597  10.641  2.0470  0.5051 -2.5531
37410SOL    HW221009   8.211   8.446  10.639 -0.3875  0.1431 -2.1626
37411SOL     OW21010   7.857  12.499   6.409 -0.1193  0.1033 -0.4423
37411SOL    HW121011   7.890  12.454   6.488 -0.1597  0.2999 -0.3134
37411SOL    HW221012   7.820  12.428   6.356 -1.9332  0.1856  0.6165
37412SOL     OW21013   7.134   7.209   5.898  0.3060 -0.0501 -0.0677
37412SOL    HW121014   7.101   7.159   5.972  1.1592 -0.7513 -0.1386
37412SOL    HW221015   7.159   7.143   5.833  0.9748  0.4832 -0.3759
37413SOL     OW21016   7.897   4.176   4.072 -0.0424 -0.7661 -0.3317
37413SOL    HW121017   7.848   4.190   4.153  0.8222  0.1745  0.0484
37413SOL    HW221018   7.930   4.086   4.079 -1.4313 -1.3224 -0.4705
37414SOL     OW21019   3.560   6.610   1.838 -0.1007 -0.2843 -0.2867
37414SOL    HW121020   3.500   6.648   1.774  0.2748  0.2917 -0.3012
37414SOL    HW221021   3.531   6.645   1.922  1.0619  1.1291 -0.4408
37415SOL     OW21022   2.244   2.773   8.610  0.3267 -0.2452  0.3352
37415SOL    HW121023   2.312   2.811   8.554 -0.2950  0.9232  0.3367
37415SOL    HW221024   2.273   2.683   8.625  0.7518 -0.4593 -1.4734
37416SOL     OW21025   5.184   6.944   6.934 -0.8114  0.2056  0.0862
37416SOL    HW121026   5.248   7.004   6.895 -1.4317 -0.1842 -1.6113
37416SOL    HW221027   5.231   6.904   7.008  0.3723  1.0579 -0.1733
37417SOL     OW21028   6.664   4.616  11.715  0.1914  0.1970  0.4352
37417SOL    HW121029   6.664   4.659  11.629  2.2565 -0.7343 -0.0831
37417SOL    HW221030   6.685   4.686  11.776 -0.6992  0.7511  0.1261
37418SOL     OW21031   0.456  11.570   2.031  0.3572 -0.1548  0.1814
37418SOL    HW121032   0.448  11.550   2.125 -0.0662  0.8349  0.3725
37418SOL    HW221033   0.408  11.500   1.988 -0.0556 -0.2347  0.7515
37419SOL     OW21034   9.617   3.510   9.278  0.1803  0.5515  0.2470
37419SOL    HW121035   9.700   3.475   9.245 -0.7074  0.0273 -1.5618
37419SOL    HW221036   9.620   3.603   9.256  0.4773  0.6261  0.6000
37420SOL     OW21037   9.122  12.463   4.027 -0.2404  0.2667 -0.0089
37420SOL    HW121038   9.149  12.453   4.119  0.2947  1.0420 -0.0629
37420SOL    HW221039   9.181  12.406   3.978 -1.2834 -1.0407  0.2205
37421SOL     OW21040   8.190   5.697   9.318  0.7684 -0.7219 -0.5221
37421SOL    HW121041   8.117   5.701   9.257 -0.4017 -0.8576  0.8150
37421SOL    HW221042   8.193   5.605   9.346 -0.3942 -0.1964  1.5241
37422SOL     OW21043  10.817   4.715   5.665 -0.1659  0.1477 -0.1045
37422SOL    HW121044  10.745   4.775   5.645  0.1378  0.7852  0.6434
37422SOL    HW221045  10.798   4.685   5.754 -0.5257 -1.2036 -0.6006
37423SOL     OW21046   7.188   6.978   5.739 -0.2797 -0.1103  0.3560
37423SOL    HW121047   7.198   6.980   5.643 -0.6804  0.3192  0.3167
37423SOL    HW221048   7.267   6.935   5.770  0.2425  0.4720 -0.1269
37424SOL     OW21049   3.709   8.233   1.552 -0.2666  0.4985  0.5307
37424SOL    HW121050   3.763   8.312   1.555 -2.0552  1.7215  1.5305
37424SOL    HW221051   3.723   8.191   1.636 -0.3139  0.4266  0.5026
37425SOL     OW21052  11.187   4.070   3.475  0.2645 -0.5127  0.1383
37425SOL    HW121053  11.204   4.097   3.565 -0.1826 -1.1007  0.4086
37425SOL    HW221054  11.117   4.128   3.445 -0.7392 -1.3615  0.7376
37426SOL     OW21055   6.338   5.640   8.043  0.6856 -0.2813  0.3097
37426SOL    HW121056   6.430   5.622   8.028  1.0298  1.4091  0.1085
37426SOL    HW221057   6.337   5.695   8.122 -0.1155 -0.1359  0.2078
37427SOL     OW21058   9.675   5.620   4.822  0.5232 -0.1886 -0.3377
37427SOL    HW121059   9.591   5.645   4.860  1.4160  0.9440  0.9837
37427SOL    HW221060   9.715   5.702   4.795  2.1272 -0.4470  1.0767
37428SOL     OW21061   6.440   8.291   7.380  0.0401 -0.4406  0.0333
37428SOL    HW121062   6.398   8.365   7.336 -1.5993 -1.3621 -0.0353
37428SOL    HW221063   6.475   8.328   7.461  1.7665  0.9674 -1.2970
37429SOL     OW21064   9.782   7.779   3.539  0.1596  0.0578  0.0907
37429SOL    HW121065   9.838   7.856   3.549  1.2746 -0.9250  2.1430
37429SOL    HW221066   9.827   7.725   3.474 -0.5555  1.0260 -1.2545
37430SOL     OW21067   3.970   6.246   4.230 -0.4588 -0.1328  0.7851
37430SOL    HW121068   3.901   6.293   4.278 -1.5281 -1.1142  0.2464
37430SOL    HW221069   3.991   6.172   4.286  0.7760  0.5973  1.3330
37431SOL     OW21070   3.080   6.273   4.252 -0.5794  0.9512 -0.1032
37431SOL    HW121071   3.055   6.318   4.171 -1.7164 -1.3655 -1.1607
37431SOL    HW221072   3.001   6.278   4.307 -1.1893 -0.6717 -0.7414
37432SOL     OW21073  10.387   9.813   1.814 -0.5944  0.8232  0.2966
37432SOL    HW121074  10.425   9.899   1.798  0.8391  0.2735  0.6136
37432SOL    HW221075  10.355   9.817   1.904 -0.0080  0.8499  0.5075
37433SOL     OW21076   6.137   9.232   2.317 -0.1331 -0.0546 -1.1576
37433SOL    HW121077   6.080   9.215   2.392  0.5458 -0.1143 -0.6393
37433SOL    HW221078   6.078   9.251   2.245 -0.7913  0.7280 -0.4320
37434SOL     OW21079   4.098  11.479   9.362 -0.5448  0.5152 -0.0623
37434SOL    HW121080   4.161  11.444   9.425 -1.5576 -2.8860 -0.7266
37434SOL    HW221081   4.018  11.430   9.378 -1.1254  0.1402 -3.3122
37435SOL     OW21082   0.472  11.292  10.313 -0.5172  0.0540  0.1575
37435SOL    HW121083   0.467  11.298  10.217  0.3910  0.8048  0.1403
37435SOL    HW221084   0.566  11.295  10.332 -0.6441 -1.0170  1.0338
37436SOL     OW21085   2.316   0.156   3.357  0.2201 -0.0132 -0.1030
37436SOL    HW121086   2.338   0.210   3.433 -0.4794  0.5082 -0.2595
37436SOL    HW221087   2.354   0.070   3.376  1.2644  0.4980  0.1938
37437SOL     OW21088  11.428   7.015   5.170  0.1297  0.2933  0.1654
37437SOL    HW121089  11.377   6.954   5.117  0.2006 -0.6809  1.1828
37437SOL    HW221090  11.478   6.959   5.230  0.9641  1.3098  0.4509
37438SOL     OW21091   2.882  12.109   9.721 -0.6746 -0.1689 -0.5639
37438SOL    HW121092   2.971  12.141   9.734 -0.1102 -2.3140  1.5025
37438SOL    HW221093   2.826  12.185   9.735  0.7671  0.8604 -0.2763
37439SOL     OW21094   5.380   5.285   8.491 -0.5961 -0.2574  1.0449
37439SOL    HW121095   5.390   5.299   8.586 -0.6874 -1.2534  1.2132
37439SOL    HW221096   5.308   5.343   8.466  0.1505  0.8422  1.3674
37440SOL     OW21097   7.219   6.925   8.578 -0.6036 -0.1138 -0.3566
37440SOL    HW121098   7.301   6.876   8.564 -0.0286  0.3140  1.2060
37440SOL    HW221099   7.204   6.971   8.496  0.1475 -1.0328 -1.0370
37441SOL     OW21100   0.659  12.036   6.729 -0.1424 -0.4217 -0.1346
37441SOL    HW121101   0.675  12.089   6.651  0.6603 -0.5079 -0.0356
37441SOL    HW221102   0.713  12.076   6.797  1.4562 -2.0568 -0.3622
37442SOL     OW21103   2.624  12.027   9.523  0.6208  0.1287  0.3520
37442SOL    HW121104   2.551  12.082   9.551  2.0202  2.5034 -0.4550
37442SOL    HW221105   2.700  12.060   9.572  1.9191  0.3785 -1.7247
37443SOL     OW21106   2.041   3.539   5.318  0.1219 -0.0044  0.4280
37443SOL    HW121107   2.051   3.579   5.404  0.5621 -0.5925  0.6614
37443SOL    HW221108   2.065   3.447   5.331 -0.4762 -0.2556 -0.1778
37444SOL     OW21109   2.359   2.884   2.967 -0.3018 -0.0860  0.4494
37444SOL    HW121110   2.291   2.827   2.931  0.7621 -0.3155 -1.3299
37444SOL    HW221111   2.381   2.845   3.052  0.1186 -2.1512 -0.5321
37445SOL     OW21112   2.665   9.585   1.866 -0.7076  0.3863 -0.7149
37445SOL    HW121113   2.646   9.492   1.879 -0.8105  0.2326 -1.8532
37445SOL    HW221114   2.658   9.623   1.953 -0.2654 -0.7415 -0.1599
37446SOL     OW21115   5.168  10.360   9.638  0.7435  0.2221  0.4923
37446SOL    HW121116   5.110  10.401   9.702 -0.8320 -3.0950  1.3954
37446SOL    HW221117   5.110  10.334   9.567  1.8680  0.4287 -0.5419
37447SOL     OW21118   5.026   9.823   1.199  0.6583 -0.4694  0.5243
37447SOL    HW121119   4.967   9.763   1.153  0.1100  1.1643 -1.0002
37447SOL    HW221120   5.075   9.866   1.129  1.2441  0.6495  1.6005
37448SOL     OW21121   1.994   6.307   8.047 -0.0053  0.4557  0.3647
37448SOL    HW121122   1.966   6.358   7.971  2.0952  0.4232 -0.4774
37448SOL    HW221123   2.040   6.232   8.010  1.9972  0.9904  1.6594
37449SOL     OW21124   5.789  11.481   0.493 -0.2349 -0.2071 -0.6911
37449SOL    HW121125   5.810  11.437   0.411 -0.3302 -0.5317 -0.5419
37449SOL    HW221126   5.694  11.487   0.493 -0.5207 -3.0315  0.8192
37450SOL     OW21127   5.011   3.734   5.714  0.2187 -0.3900  0.0110
37450SOL    HW121128   5.040   3.826   5.719 -0.4863 -0.1615  0.0199
37450SOL    HW221129   4.918   3.737   5.738 -0.6871 -0.6607 -3.1228
37451SOL     OW21130   7.026   3.932   8.803 -0.0027 -0.3561 -0.3060
37451SOL    HW121131   7.112   3.910   8.839  0.1872  1.6519  0.5500
37451SOL    HW221132   7.013   4.024   8.824 -1.3058  0.0666 -2.5933
37452SOL     OW21133   9.158  11.118   1.406  0.3650 -0.0677  0.1065
37452SOL    HW121134   9.150  11.185   1.473  1.1360 -0.0753  0.2254
37452SOL    HW221135   9.159  11.166   1.323  1.0193  0.0847  0.1967
37453SOL     OW21136   4.767   9.765   9.716 -0.8103  0.3345 -0.2468
37453SOL    HW121137   4.822   9.721   9.781  1.0899  1.0835 -1.2621
37453SOL    HW221138   4.729   9.840   9.762 -2.3191 -1.0640  0.8943
37454SOL     OW21139   2.695   7.339   8.698  0.1831  0.4770  0.5088
37454SOL    HW121140   2.757   7.315   8.767 -0.4139 -2.9058  0.0391
37454SOL    HW221141   2.648   7.415   8.733  2.0129  0.8155  2.4365
37455SOL     OW21142   1.960   2.200   3.967  0.1772 -0.3001  0.1521
37455SOL    HW121143   2.007   2.283   3.961  0.6860 -0.5664  0.3537
37455SOL    HW221144   2.026   2.133   3.948  0.0160 -0.7145  0.9991
37456SOL     OW21145   7.658   1.140   9.061 -0.1423  0.2802 -0.5454
37456SOL    HW121146   7.670   1.234   9.059 -1.6634  0.4859 -2.1900
37456SOL    HW221147   7.621   1.118   8.976 -1.3963 -1.5551  0.3886
37457SOL     OW21148   8.215   2.672   6.143  0.2592 -0.6558 -0.5737
37457SOL    HW121149   8.123   2.698   6.140  0.3009 -0.4858 -0.4355
37457SOL    HW221150   8.219   2.606   6.213  0.5288  0.5630  0.6088
37458SOL     OW21151   8.123   4.768   6.153  0.4294  1.0753  0.0131
37458SOL    HW121152   8.054   4.834   6.160  0.0292  0.9256 -1.8340
37458SOL    HW221153   8.194   4.812   6.106  0.3639  0.3735 -0.7806
37459SOL     OW21154   8.237   5.861   9.746  0.0742  0.0604  0.2236
37459SOL    HW121155   8.204   5.776   9.716  0.4711  0.4963 -1.5451
37459SOL    HW221156   8.269   5.844   9.834  0.9100 -1.8355 -0.3969
37460SOL     OW21157   5.421   1.716   5.413 -0.2011  0.1272  0.0656
37460SOL    HW121158   5.425   1.622   5.399 -1.9073  0.1310 -0.6826
37460SOL    HW221159   5.482   1.753   5.349  1.0059 -0.4644  0.8331
37461SOL     OW21160   0.734  11.791   6.815  0.6314  0.1315  0.5515
37461SOL    HW121161   0.725  11.741   6.735 -0.8570 -2.5058  2.2267
37461SOL    HW221162   0.690  11.874   6.797 -0.3057 -0.6916 -1.1009
37462SOL     OW21163   8.281   7.386   1.462  0.8369 -0.1962  0.3017
37462SOL    HW121164   8.288   7.315   1.526  0.1949 -0.3413  0.2185
37462SOL    HW221165   8.278   7.466   1.516 -1.4060 -0.4050  0.5916
37463SOL     OW21166   1.013   2.666   4.745 -0.1957  0.2401  0.1310
37463SOL    HW121167   1.035   2.579   4.778 -1.4053 -0.4101 -0.6690
37463SOL    HW221168   0.988   2.650   4.653  1.6107  1.7486 -0.6687
37464SOL     OW21169   5.669   9.319  12.118  0.0442  0.6186 -0.1823
37464SOL    HW121170   5.722   9.315  12.197 -1.4425  0.9555  0.8799
37464SOL    HW221171   5.579   9.307  12.148 -0.5663  0.6920 -1.8315
37465SOL     OW21172   8.819   5.431   9.547  0.0096 -0.1498  0.5445
37465SOL    HW121173   8.833   5.351   9.497 -1.3277  0.9204 -1.7137
37465SOL    HW221174   8.805   5.402   9.637 -1.6349 -2.5749 -0.3983
37466SOL     OW21175   4.144  10.062   3.164 -0.5069  0.4509  0.4078
37466SOL    HW121176   4.197   9.996   3.209 -0.7815 -0.6861 -0.8553
37466SOL    HW221177   4.157  10.142   3.214  0.4958 -0.3735  1.5146
37467SOL     OW21178   6.611   9.966  12.401 -0.0956  0.0801 -0.2351
37467SOL    HW121179   6.602  10.058  12.426  0.8750  0.2132 -0.3764
37467SOL    HW221180   6.521   9.932  12.406 -0.2513  0.6236  1.3646
37468SOL     OW21181   6.998   9.084  11.406  0.2167  0.0420 -0.6753
37468SOL    HW121182   6.995   9.118  11.495 -0.0253 -0.7392 -0.3677
37468SOL    HW221183   6.934   9.136  11.358  0.1897  0.3247 -0.3341
37469SOL     OW21184   1.647   8.696   1.138 -0.0949  0.1754 -0.0973
37469SOL    HW121185   1.660   8.666   1.048 -0.5182  2.1966 -0.8909
37469SOL    HW221186   1.704   8.773   1.146 -0.2107  0.1339  1.3012
37470SOL     OW21187   6.880   1.274  10.416  0.2873 -0.1911  0.2954
37470SOL    HW121188   6.951   1.336  10.433  0.3109 -0.2288  0.3335
37470SOL    HW221189   6.816   1.290  10.486  1.0233 -1.3055  1.2571
37471SOL     OW21190   4.828   0.938   1.312  0.2828 -0.5446  0.1152
37471SOL    HW121191   4.775   0.940   1.391  0.3306 -1.4929  0.1810
37471SOL    HW221192   4.916   0.916   1.342  1.1364  2.5462  0.2005
37472SOL     OW21193   5.753   1.503  10.593 -0.2919 -0.0267  0.0561
37472SOL    HW121194   5.672   1.512  10.642 -0.7397 -0.5775 -0.5677
37472SOL    HW221195   5.810   1.453  10.651 -0.6592 -0.2801  0.2008
37473SOL     OW21196   3.055   5.059   0.799 -0.4343 -0.3278 -0.2111
37473SOL    HW121197   3.117   5.122   0.835 -0.7966  0.9938 -1.8050
37473SOL    HW221198   2.998   5.037   0.873  1.6756 -1.3578  1.2250
37474SOL     OW21199   0.237  10.485   5.105 -0.1110  0.0248 -0.0739
37474SOL    HW121200   0.287  10.429   5.165  1.5543  1.6542  0.1729
37474SOL    HW221201   0.277  10.469   5.020  0.1388  0.5422 -0.0597
37475SOL     OW21202   3.832   1.238   3.336 -0.0530 -0.0706 -0.0307
37475SOL    HW121203   3.924   1.213   3.342 -0.4099 -1.4822 -0.0884
37475SOL    HW221204   3.833   1.323   3.292  1.3470  1.0225  1.9676
37476SOL     OW21205   7.514   6.250  11.858 -0.0454 -0.3038  0.1765
37476SOL    HW121206   7.464   6.276  11.936 -2.1326  0.4164 -1.2973
37476SOL    HW221207   7.552   6.331  11.825  2.5003 -0.8810  1.4274
37477SOL     OW21208   8.390   0.282  10.943 -0.1631 -0.4280 -0.2357
37477SOL    HW121209   8.425   0.288  11.032 -0.5724  0.7900 -0.1440
37477SOL    HW221210   8.298   0.259  10.955 -0.1291 -0.6330 -0.3623
37478SOL     OW21211  11.359   5.974  11.955  0.0579  0.7481  0.2471
37478SOL    HW121212  11.274   5.936  11.978  0.3155  0.6244  1.0157
37478SOL    HW221213  11.350   5.998  11.862 -0.7099  0.4597  0.2385
37479SOL     OW21214   6.934  11.216   7.914 -0.1939  0.4809 -0.5193
37479SOL    HW121215   7.000  11.176   7.971  1.0162  1.9209 -0.8673
37479SOL    HW221216   6.907  11.295   7.960 -0.5917  0.6841 -1.0855
37480SOL     OW21217   3.084   2.925   9.053  0.2541 -0.6858  0.3769
37480SOL    HW121218   3.104   3.019   9.053 -3.1553  0.1529  0.0282
37480SOL    HW221219   3.116   2.894   8.969  0.9998  0.2341  0.3024
37481SOL     OW21220   2.586   7.588   1.509  0.4898 -0.5280 -0.0483
37481SOL    HW121221   2.558   7.604   1.419 -1.6471 -2.0784  0.2763
37481SOL    HW221222   2.605   7.494   1.512  1.7177 -0.2761  0.8488
37482SOL     OW21223   1.774   9.934   9.477 -0.4536  0.5974 -0.3040
37482SOL    HW121224   1.792  10.012   9.423 -0.8294  1.5697  0.9231
37482SOL    HW221225   1.769   9.968   9.566 -0.0038 -0.9614  0.3337
37483SOL     OW21226   7.191  11.625   8.673 -0.1365 -0.3004  0.2731
37483SOL    HW121227   7.174  11.545   8.623  1.0438  1.2679 -2.9332
37483SOL    HW221228   7.262  11.602   8.733 -1.1699 -2.1117  0.8754
37484SOL     OW21229  12.249   4.974   4.297  0.1877  0.0587 -0.1635
37484SOL    HW121230  12.278   4.931   4.216 -2.1679 -3.2824  0.5522
37484SOL    HW221231  12.327   4.972   4.354  1.1664  0.1281 -1.4580
37485SOL     OW21232   5.356   6.245   8.503  0.0575 -0.3458  0.5619
37485SOL    HW121233   5.423   6.179   8.520 -0.0455 -0.5886  0.0728
37485SOL    HW221234   5.370   6.312   8.569  1.2922  0.0024 -0.0288
37486SOL     OW21235   8.024   5.686   5.585 -0.1474  0.3162 -1.0361
37486SOL    HW121236   8.091   5.639   5.636  0.2185  1.9952  0.1173
37486SOL    HW221237   8.053   5.677   5.494 -0.7086 -2.5930 -1.0123
37487SOL     OW21238   4.229   8.827   2.394 -0.0428  0.2381 -0.0538
37487SOL    HW121239   4.277   8.823   2.477 -1.7120  1.1506  1.0199
37487SOL    HW221240   4.202   8.737   2.377 -0.5557  0.1918  0.9549
37488SOL     OW21241   6.006   2.096   7.053  0.2577 -0.3215 -0.1568
37488SOL    HW121242   5.929   2.153   7.059  1.8523  1.8611  1.2256
37488SOL    HW221243   6.073   2.150   7.012  1.6847 -1.3902  0.6657
37489SOL     OW21244   2.774   7.043   5.209 -0.1305  0.1530 -0.0135
37489SOL    HW121245   2.742   6.954   5.223 -2.5617  0.8876 -0.4753
37489SOL    HW221246   2.766   7.057   5.114  1.0615  0.5907 -0.0713
37490SOL     OW21247  10.017   6.761   1.009 -0.1731  0.2239 -0.2329
37490SOL    HW121248  10.090   6.822   1.004  0.5755 -0.6865 -0.6708
37490SOL    HW221249  10.043   6.698   1.077 -0.6744  0.0456 -0.1990
37491SOL     OW21250  11.667   8.439   3.004 -0.0171  0.1211  0.3493
37491SOL    HW121251  11.607   8.417   3.075 -2.4827  2.5621 -0.7668
37491SOL    HW221252  11.737   8.490   3.046 -0.3203 -0.2311  1.2955
37492SOL     OW21253  10.045   4.046   9.797  0.3762 -0.1020 -0.1251
37492SOL    HW121254  10.117   4.041   9.859  0.4252 -1.7140 -0.2548
37492SOL    HW221255  10.087   4.048   9.711  0.2781 -0.2814 -0.1784
37493SOL     OW21256   7.015   8.070   7.481 -0.2341 -0.0293  0.0749
37493SOL    HW121257   6.927   8.096   7.507 -0.9955 -2.2092 -0.1676
37493SOL    HW221258   7.056   8.037   7.561 -0.4186 -1.0407 -0.2408
37494SOL     OW21259   0.635   7.110   9.573  0.1759  0.4195  0.2511
37494SOL    HW121260   0.647   7.083   9.482  0.7147 -0.2472  0.5120
37494SOL    HW221261   0.642   7.029   9.624 -1.1337  0.6376  0.8133
37495SOL     OW21262   7.580   4.409   0.105  0.0446  0.2677  0.2109
37495SOL    HW121263   7.522   4.365   0.043 -1.1514  1.1967  0.6124
37495SOL    HW221264   7.629   4.471   0.052  0.2639 -0.1281 -0.0526
37496SOL     OW21265  11.642   6.284  10.114 -0.3232  0.1605  0.1084
37496SOL    HW121266  11.715   6.340  10.140 -1.1527  1.8398 -0.9756
37496SOL    HW221267  11.658   6.267  10.021 -0.3908 -0.9457  0.2931
37497SOL     OW21268   5.684  10.812   0.091 -0.3513 -0.0506 -0.0505
37497SOL    HW121269   5.725  10.898   0.085 -1.1078  0.4500  1.3307
37497SOL    HW221270   5.631  10.805   0.012  0.0490  0.5794 -0.3819
37498SOL     OW21271   1.321   2.532   4.988 -0.6796  0.3503 -0.2626
37498SOL    HW121272   1.387   2.572   4.932 -0.5768 -1.4053 -1.4892
37498SOL    HW221273   1.251   2.504   4.928 -1.8192  0.7553  0.8143
37499SOL     OW21274   1.640   3.114   8.369  0.1794 -0.0153 -0.5713
37499SOL    HW121275   1.726   3.155   8.374  0.9622 -1.5067 -1.0802
37499SOL    HW221276   1.648   3.049   8.299 -0.9800 -1.0349  0.1857
37500SOL     OW21277   7.171   9.135   4.318 -0.0063  0.2976 -0.1753
37500SOL    HW121278   7.247   9.102   4.271  1.5444  1.9186  1.0794
37500SOL    HW221279   7.206   9.200   4.379 -2.4239  1.3038  0.2719
37501SOL     OW21280  11.764  12.123   9.332 -0.5168  0.0842  0.2128
37501SOL    HW121281  11.840  12.086   9.288 -1.0846  1.3961 -2.0260
37501SOL    HW221282  11.791  12.211   9.358 -1.4837  0.9449 -1.4930
37502SOL     OW21283   0.998   2.843   6.078  0.3479  0.1614 -0.4746
37502SOL    HW121284   1.078   2.856   6.027  1.0992 -2.0857 -0.0121
37502SOL    HW221285   1.027   2.848   6.170  0.0633 -0.9722 -0.3018
37503SOL     OW21286  12.244   5.277  11.799  0.1244  0.6940 -0.4569
37503SOL    HW121287  12.305   5.269  11.726 -0.4284 -0.2912 -0.8269
37503SOL    HW221288  12.279   5.218  11.866 -0.6525 -0.2576 -0.8560
37504SOL     OW21289   5.492   5.066   6.280 -0.1610 -0.3152 -0.3006
37504SOL    HW121290   5.521   4.977   6.301 -0.1550 -0.2370  0.0297
37504SOL    HW221291   5.401   5.069   6.312 -0.6409 -0.6478 -1.5674
37505SOL     OW21292  12.539   7.479   4.819 -0.3614  0.5006 -0.1719
37505SOL    HW121293  12.619   7.529   4.826 -0.7599  0.9584  1.9055
37505SOL    HW221294  12.548   7.428   4.738  1.6106  1.1875 -0.4173
37506SOL     OW21295   0.307  11.654   2.819  0.2950  0.3254  0.1314
37506SOL    HW121296   0.217  11.688   2.826  0.4582  0.5316  1.4430
37506SOL    HW221297   0.300  11.581   2.758 -1.3659 -1.5813  2.4301
37507SOL     OW21298   0.548   0.761   0.701 -0.3800  0.1850 -0.0860
37507SOL    HW121299   0.603   0.686   0.726  1.1112  0.4842 -2.2446
37507SOL    HW221300   0.487   0.725   0.637 -0.4380  0.5636 -0.2426
37508SOL     OW21301   2.969   7.347   9.799 -0.3935  0.3159  0.0334
37508SOL    HW121302   2.920   7.403   9.738  0.0693 -0.4280 -1.0464
37508SOL    HW221303   2.910   7.337   9.874 -0.8488  1.5018 -0.1287
37509SOL     OW21304   4.644   3.971   9.665  0.0316 -0.0039 -0.3507
37509SOL    HW121305   4.556   3.946   9.694  0.5275 -3.0615 -1.1433
37509SOL    HW221306   4.702   3.936   9.732  0.7382  0.8149 -0.5243
37510SOL     OW21307   4.246   9.995   3.659 -0.0303  0.0151 -0.2412
37510SOL    HW121308   4.301   9.956   3.727  0.1229 -0.2155 -0.4949
37510SOL    HW221309   4.278  10.084   3.649 -1.6558  0.9083  1.7510
37511SOL     OW21310   9.531   3.169  11.166 -0.0594 -0.1812  0.0228
37511SOL    HW121311   9.545   3.150  11.259  1.8638 -0.3176 -0.2452
37511SOL    HW221312   9.595   3.238  11.146 -1.7888  1.2781 -0.7686
37512SOL     OW21313  10.415   3.648   1.548  0.2418 -0.4314 -0.3232
37512SOL    HW121314  10.382   3.595   1.621  1.7744 -0.3429  0.4619
37512SOL    HW221315  10.355   3.723   1.545  0.7462  0.1053  1.5473
37513SOL     OW21316  11.496  12.270   0.947 -0.2210 -0.5564  0.2640
37513SOL    HW121317  11.487  12.361   0.975  0.8980 -0.6652  1.0549
37513SOL    HW221318  11.467  12.269   0.856 -0.0529  0.6227  0.1909
37514SOL     OW21319   3.200   1.666   4.321  0.1754  0.0399  0.4897
37514SOL    HW121320   3.119   1.697   4.361  0.5382  1.4610  0.1776
37514SOL    HW221321   3.184   1.672   4.227  0.1869 -0.9472  0.4165
37515SOL     OW21322   5.802   0.608   9.986  0.3897  0.0963 -0.1770
37515SOL    HW121323   5.780   0.593   9.894 -2.1174  2.8016 -0.1818
37515SOL    HW221324   5.814   0.521  10.023 -0.8549 -1.1862 -2.5799
37516SOL     OW21325   0.316  11.961   9.114 -0.1306 -0.2482 -0.2129
37516SOL    HW121326   0.382  11.919   9.169  0.0860 -1.6265 -1.4983
37516SOL    HW221327   0.342  12.053   9.112  1.7516 -0.7586 -0.6850
37517SOL     OW21328  10.387   4.697   5.804 -0.1860 -0.2372  0.2688
37517SOL    HW121329  10.370   4.745   5.723  0.2667 -1.6652 -0.7202
37517SOL    HW221330  10.465   4.645   5.785  0.0066 -0.5009  1.6815
37518SOL     OW21331   9.399   5.082   3.844  0.7717  0.0292 -1.2234
37518SOL    HW121332   9.445   5.165   3.851 -0.6986  0.7543  0.8263
37518SOL    HW221333   9.337   5.094   3.773 -2.1695  2.2479  1.4346
37519SOL     OW21334  10.398   9.616  10.982 -0.1690 -0.1692  0.0748
37519SOL    HW121335  10.407   9.711  10.979 -0.7039 -0.0991  0.6038
37519SOL    HW221336  10.313   9.601  11.022  0.8062 -0.8718  2.0461
37520SOL     OW21337   6.551   2.588   7.617  0.5829  0.5100  0.5065
37520SOL    HW121338   6.561   2.683   7.607 -0.2806  0.5688  0.1311
37520SOL    HW221339   6.476   2.579   7.676  0.7966  0.0542  0.7134
37521SOL     OW21340   9.456  11.793   3.475 -0.0725  0.0655 -0.1411
37521SOL    HW121341   9.463  11.722   3.411 -0.6631  0.0062 -0.1522
37521SOL    HW221342   9.394  11.854   3.435  1.0178  0.9804 -0.4845
37522SOL     OW21343   8.244   1.721  11.373  0.1389  0.1931  0.2000
37522SOL    HW121344   8.270   1.643  11.422 -0.5278 -0.8638 -1.0791
37522SOL    HW221345   8.182   1.689  11.308  0.8497  1.5846 -1.2285
37523SOL     OW21346   2.394   0.685   6.047 -0.1477  0.4734  1.1591
37523SOL    HW121347   2.400   0.778   6.069  0.5053  0.5255  0.7955
37523SOL    HW221348   2.463   0.672   5.983 -0.5800 -0.1562  0.8186
37524SOL     OW21349   7.244   0.016   6.686  0.1292 -0.0407  0.2432
37524SOL    HW121350   7.337  -0.004   6.679 -0.1947 -1.3302 -0.8225
37524SOL    HW221351   7.219  -0.017   6.773  0.4353 -0.7822  0.0598
37525SOL     OW21352   5.501  11.803   0.400 -0.0332  0.0289  0.0650
37525SOL    HW121353   5.407  11.816   0.408 -0.3664 -0.1345 -2.6619
37525SOL    HW221354   5.517  11.719   0.445 -0.6806  1.2201  2.7321
37526SOL     OW21355   0.397   0.166   2.332  0.8800  0.5687  0.0509
37526SOL    HW121356   0.415   0.206   2.247 -0.8792  1.0252 -0.1447
37526SOL    HW221357   0.381   0.240   2.391  0.2655  0.2284  0.3266
37527SOL     OW21358   7.417   0.919   8.654  0.2462  0.2770  0.0538
37527SOL    HW121359   7.391   0.897   8.564 -1.9707 -0.3339  0.7948
37527SOL    HW221360   7.484   0.854   8.676 -0.4699 -0.6934 -0.5612
37528SOL     OW21361   2.390   3.727   1.253 -0.1900  0.3127  0.1824
37528SOL    HW121362   2.441   3.801   1.287  0.8551  0.0170 -0.6721
37528SOL    HW221363   2.328   3.766   1.191 -0.1435  0.5481  0.2841
37529SOL     OW21364   0.700  10.085   2.046  0.0578  0.1034  0.0249
37529SOL    HW121365   0.762  10.158   2.033 -0.0275  0.0172 -0.9459
37529SOL    HW221366   0.686  10.051   1.958 -1.7938  0.4583  0.1556
37530SOL     OW21367   0.768   1.154   8.336  0.1258 -0.0475  0.1482
37530SOL    HW121368   0.717   1.183   8.260  0.5055 -0.5401 -0.3041
37530SOL    HW221369   0.793   1.235   8.380  1.1029  0.3395 -1.0522
37531SOL     OW21370   9.901   8.371  11.361 -0.3108 -0.7146 -0.3261
37531SOL    HW121371   9.886   8.462  11.385 -0.5437 -0.3188 -1.8337
37531SOL    HW221372   9.814   8.330  11.368 -0.4933 -0.4610 -1.0067
37532SOL     OW21373   2.328  10.315   4.742  0.0658 -0.6952 -0.1455
37532SOL    HW121374   2.322  10.391   4.801  1.2691 -0.6717 -0.0404
37532SOL    HW221375   2.256  10.328   4.680  0.1877  0.4753 -0.0630
37533SOL     OW21376   5.357  11.372   1.594 -0.4874 -0.3761  0.2735
37533SOL    HW121377   5.276  11.384   1.545 -0.7082  0.0334  0.7298
37533SOL    HW221378   5.409  11.311   1.541 -1.6332 -1.7038  0.6036
37534SOL     OW21379   3.314   1.307  10.221 -0.1768  0.1198  0.0986
37534SOL    HW121380   3.386   1.336  10.164  0.6066 -1.1059  0.4168
37534SOL    HW221381   3.281   1.387  10.261  0.3137  0.8254 -0.8609
37535SOL     OW21382   3.507  12.301   2.989 -0.1880  0.2247  0.4154
37535SOL    HW121383   3.584  12.337   3.035 -0.1357 -0.3368  0.7710
37535SOL    HW221384   3.437  12.306   3.053  0.0152 -1.0899  0.7641
37536SOL     OW21385   3.813  10.619  11.005 -0.5084  0.3551  0.7546
37536SOL    HW121386   3.887  10.594  11.059 -0.5802  1.3651  1.3371
37536SOL    HW221387   3.764  10.538  10.992 -0.9678  0.2318  2.9359
37537SOL     OW21388   3.306   3.819   7.872  0.2498 -0.0488 -0.7268
37537SOL    HW121389   3.257   3.856   7.945 -0.1293  0.9345 -1.4586
37537SOL    HW221390   3.312   3.725   7.892  2.0392  0.4834  1.6165
37538SOL     OW21391   1.695   0.418   2.344  0.2916 -0.1829  0.1894
37538SOL    HW121392   1.781   0.460   2.335  1.1499 -1.7680  0.6089
37538SOL    HW221393   1.632   0.489   2.329  1.6407  0.6608 -2.0219
37539SOL     OW21394   1.492   7.797   0.675 -0.3771  0.7810  0.2236
37539SOL    HW121395   1.408   7.766   0.707 -1.0514  2.5709  0.3113
37539SOL    HW221396   1.541   7.822   0.753 -0.4566  1.3572  0.0997
37540SOL     OW21397   4.468   4.675   5.897 -0.2548 -0.5007 -0.0712
37540SOL    HW121398   4.500   4.587   5.875 -1.6408 -1.2481  0.7908
37540SOL    HW221399   4.374   4.664   5.910 -0.4093  1.0720  0.3031
37541SOL     OW21400   1.800   1.388   5.126 -0.2047 -0.2736 -0.2077
37541SOL    HW121401   1.727   1.326   5.116  0.6187 -1.2179 -0.4940
37541SOL    HW221402   1.867   1.356   5.066  0.1186  1.1062 -0.6102
37542SOL     OW21403   9.368   2.956   9.773 -1.0998 -0.4995 -0.5815
37542SOL    HW121404   9.462   2.957   9.791 -1.0576 -1.9951 -0.5432
37542SOL    HW221405   9.333   3.031   9.821 -0.1675 -1.0258  1.0099
37543SOL     OW21406  10.448   0.379   4.392 -0.1479  0.5474 -0.0286
37543SOL    HW121407  10.514   0.333   4.444  0.9267  1.2713 -0.7325
37543SOL    HW221408  10.482   0.378   4.303 -0.6224  1.7628 -0.2390
37544SOL     OW21409   4.579   3.580   0.125 -0.4028  0.6903  0.5986
37544SOL    HW121410   4.643   3.640   0.087  1.2322 -1.5041 -0.3855
37544SOL    HW221411   4.622   3.546   0.204  1.1392 -2.9195 -1.5140
37545SOL     OW21412   2.551   5.925   8.923  0.0170 -0.1804 -0.4195
37545SOL    HW121413   2.523   5.867   8.852  1.3959 -0.5579 -0.6870
37545SOL    HW221414   2.515   6.010   8.900  0.3273 -0.3267 -1.5223
37546SOL     OW21415   1.344  10.727   9.338  0.5009 -0.2555 -0.6785
37546SOL    HW121416   1.340  10.822   9.326 -0.4269 -0.0893  0.7414
37546SOL    HW221417   1.433  10.704   9.312  0.3682  0.8014 -2.2211
37547SOL     OW21418   3.054  10.998   6.757 -0.4534 -0.4403 -0.0671
37547SOL    HW121419   3.049  10.903   6.751 -0.3150 -0.3650 -2.2260
37547SOL    HW221420   3.013  11.029   6.677  0.5403  1.2833  0.0372
37548SOL     OW21421  11.130   7.561   8.916  0.1271  0.1790 -0.0858
37548SOL    HW121422  11.141   7.540   9.009  0.8780  1.6230  0.1808
37548SOL    HW221423  11.182   7.640   8.903 -0.4816  0.3632 -1.6068
37549SOL     OW21424   1.652   4.789   6.057  0.4427  0.2021  0.5234
37549SOL    HW121425   1.695   4.807   5.973  0.9231  1.0455  0.9415
37549SOL    HW221426   1.558   4.802   6.039  0.4918 -0.1146  0.0033
37550SOL     OW21427   9.601   4.620   0.084  0.0087  0.5121  0.4253
37550SOL    HW121428   9.531   4.593   0.144  0.9206  0.0163  1.3076
37550SOL    HW221429   9.602   4.552   0.017  1.9470 -1.5227  2.3535
37551SOL     OW21430  12.389   0.719   1.793  0.3812 -0.6043 -0.0152
37551SOL    HW121431  12.434   0.638   1.772 -1.6710 -1.6587 -0.6476
37551SOL    HW221432  12.308   0.716   1.741 -0.3595  1.2284  0.9250
37552SOL     OW21433   1.490   7.001   6.242 -0.1152  0.2803 -0.0664
37552SOL    HW121434   1.472   6.994   6.148  2.7955 -0.7540 -0.6495
37552SOL    HW221435   1.549   7.077   6.249 -0.6378  0.6018  0.9993
37553SOL     OW21436   0.835   2.774   4.421 -0.3915 -0.0909 -0.1770
37553SOL    HW121437   0.887   2.839   4.374  0.3181 -0.9917 -0.6722
37553SOL    HW221438   0.881   2.692   4.406 -0.8291 -0.5891  1.0990
37554SOL     OW21439   1.779   1.780   3.018  0.4678  0.0309 -0.8295
37554SOL    HW121440   1.853   1.840   3.022  0.8783 -0.5249  0.3736
37554SOL    HW221441   1.800   1.712   3.082 -1.2361  0.0415 -0.2180
37555SOL     OW21442   3.632  11.859  10.805 -0.0139  0.5967 -0.2543
37555SOL    HW121443   3.652  11.770  10.777 -0.0671  0.3211  0.5588
37555SOL    HW221444   3.537  11.859  10.819  0.1377  0.4384  0.8776
37556SOL     OW21445   3.777   6.272  11.615  0.1680  0.5649  0.3057
37556SOL    HW121446   3.857   6.317  11.644  0.9143 -0.4823 -0.0959
37556SOL    HW221447   3.783   6.186  11.655  0.2362 -0.2191 -1.3133
37557SOL     OW21448   1.504   8.830  11.739 -0.5778  0.4428  0.1561
37557SOL    HW121449   1.511   8.807  11.831  0.2283 -1.1950 -0.2853
37557SOL    HW221450   1.541   8.918  11.734 -1.1322  0.7746  1.4635
37558SOL     OW21451   8.784   8.321   3.198  0.0604 -0.2956 -0.9459
37558SOL    HW121452   8.744   8.234   3.198  0.6613 -0.5921 -1.9184
37558SOL    HW221453   8.769   8.355   3.110  2.4982 -0.7348 -1.6309
37559SOL     OW21454   7.803  12.422   6.064  0.0566 -0.4262 -0.0161
37559SOL    HW121455   7.754  12.473   5.999  0.3454 -0.1017  0.0166
37559SOL    HW221456   7.878  12.478   6.087 -0.8817  0.1862  1.7964
37560SOL     OW21457   5.804   2.868   0.446 -0.2077 -0.0494 -0.3429
37560SOL    HW121458   5.828   2.808   0.517 -0.9775  0.0530  0.0098
37560SOL    HW221459   5.717   2.838   0.417  0.9591 -1.5017 -2.7620
37561SOL     OW21460   1.099   9.276   0.372 -0.2659 -0.2935  0.0708
37561SOL    HW121461   1.128   9.186   0.357  2.3236  0.1790  1.5766
37561SOL    HW221462   1.168   9.330   0.333 -0.5991  0.9732  1.1513
37562SOL     OW21463   5.899   8.491   5.779 -0.0323  0.1081  0.1520
37562SOL    HW121464   5.848   8.502   5.698  0.0582 -0.3061  0.0367
37562SOL    HW221465   5.912   8.581   5.811  0.0844  0.2875 -0.3844
37563SOL     OW21466   2.268   3.936  10.166  0.2434  0.1239 -0.1303
37563SOL    HW121467   2.269   4.027  10.196 -0.2867  0.4857 -1.1708
37563SOL    HW221468   2.221   3.938  10.083  1.6720 -0.8522 -1.0022
37564SOL     OW21469   6.774   0.620  12.500  0.5557  0.5829  0.1789
37564SOL    HW121470   6.735   0.543  12.458  0.4958  1.1101 -0.7433
37564SOL    HW221471   6.867   0.599  12.506  0.6999  0.8242 -0.9669
37565SOL     OW21472  12.273   7.906   0.338  0.1771  0.3376 -0.0611
37565SOL    HW121473  12.303   7.833   0.391 -0.1066 -1.7632 -2.5466
37565SOL    HW221474  12.177   7.905   0.346  0.2229  1.1449  0.7166
37566SOL     OW21475   9.968   6.668   9.921 -0.0245 -0.0215  0.5598
37566SOL    HW121476   9.971   6.577   9.890  0.6631 -0.0879  0.8117
37566SOL    HW221477  10.031   6.671   9.993 -2.2804 -0.1420  2.7128
37567SOL     OW21478  12.429   0.049   2.705  0.6030  0.0383  0.4606
37567SOL    HW121479  12.387   0.026   2.788  3.1210 -0.7597  1.6211
37567SOL    HW221480  12.480  -0.029   2.683 -1.7636 -0.7457 -3.1704
37568SOL     OW21481   3.791   6.030  11.239 -0.0551  0.5404 -0.2102
37568SOL    HW121482   3.756   6.119  11.240 -0.5041  0.3746 -0.7469
37568SOL    HW221483   3.853   6.028  11.312 -0.7015  1.0305  0.3687
37569SOL     OW21484  10.748  10.925   0.472  0.5853 -0.5492 -0.7682
37569SOL    HW121485  10.824  10.982   0.485 -0.5959  0.7326  1.0328
37569SOL    HW221486  10.778  10.859   0.409  3.2988 -0.3421  0.1671
37570SOL     OW21487  10.321   9.886   5.769 -0.2190  0.0083 -0.5667
37570SOL    HW121488  10.316   9.977   5.740  1.9572 -0.3169 -2.1668
37570SOL    HW221489  10.231   9.854   5.762 -1.0314  2.0099  0.0622
37571SOL     OW21490   4.587  10.075   0.777 -0.5339  0.1640  0.4205
37571SOL    HW121491   4.639  10.148   0.808  0.2935 -0.2110 -0.0256
37571SOL    HW221492   4.535  10.111   0.704 -0.1268  0.3071  0.1989
37572SOL     OW21493   6.734   4.526   7.937  0.0417 -0.3414  0.1749
37572SOL    HW121494   6.713   4.459   8.002 -1.9245 -1.4760 -1.5061
37572SOL    HW221495   6.810   4.490   7.890  1.5804  0.5627  1.8455
37573SOL     OW21496   1.625   2.586  12.156 -0.7429  0.5339 -0.3491
37573SOL    HW121497   1.548   2.643  12.153  0.2033  1.9406  0.7932
37573SOL    HW221498   1.640   2.573  12.250  0.2260  0.0071 -0.5726
37574SOL     OW21499   9.604   5.843   9.991 -0.4432 -0.3448 -0.0087
37574SOL    HW121500   9.603   5.907  10.061 -2.5338 -1.6275  1.2742
37574SOL    HW221501   9.534   5.872   9.931  0.7303  0.2530 -1.1422
37575SOL     OW21502  12.041   1.340   6.867 -0.9940 -0.2407  0.2203
37575SOL    HW121503  12.121   1.335   6.920  0.4464 -0.9882 -1.8661
37575SOL    HW221504  12.002   1.253   6.872 -0.5646 -0.4732 -0.3199
37576SOL     OW21505   3.895   1.430   9.279  0.9797 -0.2404  0.0066
37576SOL    HW121506   3.903   1.525   9.293  2.5365 -0.3293 -0.1484
37576SOL    HW221507   3.925   1.417   9.189 -0.0288 -0.7942 -0.2601
37577SOL     OW21508   9.398  12.569   6.562  0.2413 -0.0334  0.3159
37577SOL    HW121509   9.483  12.533   6.535  0.1916  0.3775 -0.4156
37577SOL    HW221510   9.335  12.530   6.503 -0.0184  0.0478  0.5368
37578SOL     OW21511  11.653   3.444   2.367  0.4838  0.3027 -0.0762
37578SOL    HW121512  11.721   3.381   2.393 -0.5033 -0.9767 -0.4838
37578SOL    HW221513  11.665   3.517   2.427  1.2926 -0.5277  0.8292
37579SOL     OW21514   6.755   2.869   2.268  0.0936  0.0263 -0.1689
37579SOL    HW121515   6.820   2.802   2.287  0.7658  0.2851 -1.4835
37579SOL    HW221516   6.673   2.835   2.305  0.2825 -1.7854 -1.3127
37580SOL     OW21517  10.474  12.037  10.937 -0.3354 -0.2780 -0.9069
37580SOL    HW121518  10.504  12.086  10.860 -1.1020 -0.6842 -1.4840
37580SOL    HW221519  10.380  12.054  10.941 -0.9174 -2.7470 -1.9667
37581SOL     OW21520   2.080   9.628   9.915  0.4895 -0.4281  0.7035
37581SOL    HW121521   2.023   9.659   9.844  0.7463  1.4724  1.2565
37581SOL    HW221522   2.078   9.533   9.907  1.2085 -0.2986 -2.3962
37582SOL     OW21523   1.723   1.874   9.171  0.3798  0.0606  0.0576
37582SOL    HW121524   1.774   1.928   9.232 -0.5771  0.6706  0.3382
37582SOL    HW221525   1.656   1.834   9.226  0.8794 -1.1875 -0.2099
37583SOL     OW21526   1.143   1.989  11.358 -0.2389  0.0224  0.3295
37583SOL    HW121527   1.175   2.046  11.289  0.0901  0.1699  0.5962
37583SOL    HW221528   1.195   1.909  11.349  0.4951  0.4054  1.0025
37584SOL     OW21529  10.205   2.275   3.394  0.4038  0.0401  0.8375
37584SOL    HW121530  10.289   2.275   3.439  0.1834  1.1865  1.2912
37584SOL    HW221531  10.228   2.273   3.301  1.0318  1.9718  0.8962
37585SOL     OW21532   3.189   3.501   2.574  0.1768  0.1598  0.1162
37585SOL    HW121533   3.249   3.470   2.506 -0.6032  0.5868 -0.7939
37585SOL    HW221534   3.104   3.506   2.530 -0.2085  1.1171  0.9414
37586SOL     OW21535   1.608   1.295   7.822  0.3587 -0.7887 -0.9661
37586SOL    HW121536   1.573   1.216   7.781  0.3707 -1.9433  1.0995
37586SOL    HW221537   1.684   1.264   7.872  0.6298  0.6179 -0.4606
37587SOL     OW21538   1.311   1.314   9.265  0.0901 -0.7142 -0.8304
37587SOL    HW121539   1.303   1.365   9.185  0.3987 -1.0564 -1.0799
37587SOL    HW221540   1.366   1.240   9.241  0.9114 -0.3584 -0.0763
37588SOL     OW21541   5.379   4.479   3.656  0.7285  0.4387 -0.4998
37588SOL    HW121542   5.321   4.552   3.639  2.0983  1.4670 -0.9817
37588SOL    HW221543   5.357   4.450   3.744  1.2098  2.4764  0.3456
37589SOL     OW21544   0.728  11.343  10.667 -0.1032  0.3296 -0.0460
37589SOL    HW121545   0.701  11.344  10.575 -1.8350  1.0676  0.4314
37589SOL    HW221546   0.792  11.272  10.672  1.0066  1.0895 -2.0643
37590SOL     OW21547   1.485  10.755   2.170 -0.1358  0.5599  0.1281
37590SOL    HW121548   1.576  10.753   2.143 -0.3313 -0.2709 -0.5206
37590SOL    HW221549   1.436  10.763   2.088 -0.6579  0.4350  0.4238
37591SOL     OW21550   1.093   2.099   0.407 -0.2566  0.2240 -0.3210
37591SOL    HW121551   1.034   2.024   0.406 -1.0121  0.8130 -0.3056
37591SOL    HW221552   1.175   2.065   0.371  1.4280 -2.1727  4.8413
37592SOL     OW21553   9.235   2.721  12.521 -0.1726  0.3745  0.3779
37592SOL    HW121554   9.158   2.691  12.472 -1.0420  0.6724  1.5084
37592SOL    HW221555   9.251   2.653  12.585  0.0704  0.6511  0.6153
37593SOL     OW21556   7.236   3.477   1.414  0.1521  0.5283  0.1097
37593SOL    HW121557   7.320   3.522   1.420 -0.6696  2.5506 -1.9889
37593SOL    HW221558   7.172   3.541   1.445 -0.6665 -1.3099  2.6512
37594SOL     OW21559   8.123  10.023  11.265 -0.1304  0.4064  1.1945
37594SOL    HW121560   8.063   9.962  11.222  1.7097 -3.1937  3.2532
37594SOL    HW221561   8.121  10.101  11.210 -3.5815 -0.9850 -1.0126
37595SOL     OW21562   9.723   7.384   6.662  0.8534  0.0160 -0.4078
37595SOL    HW121563   9.816   7.363   6.668  1.1798  1.6059  0.9207
37595SOL    HW221564   9.686   7.353   6.745  0.4025  0.3007 -0.4967
37596SOL     OW21565   1.407   7.112   8.426  0.4413  0.4526 -0.0602
37596SOL    HW121566   1.487   7.089   8.379  0.0653  1.3384 -1.1573
37596SOL    HW221567   1.343   7.047   8.397  0.2401  0.9302 -0.6994
37597SOL     OW21568   8.580   6.269  11.142 -0.4167  0.0991 -0.1028
37597SOL    HW121569   8.574   6.234  11.053 -1.4587 -3.3777  1.1565
37597SOL    HW221570   8.501   6.322  11.153  0.3511  1.6116 -1.5786
37598SOL     OW21571   3.896   0.824  10.297 -0.1112 -0.0702  0.5245
37598SOL    HW121572   3.879   0.736  10.332  0.0393  0.2976  1.5411
37598SOL    HW221573   3.809   0.864  10.291 -0.3423 -0.7556 -1.2713
37599SOL     OW21574  11.448   5.620   4.460 -0.7724  0.5099  0.3063
37599SOL    HW121575  11.540   5.643   4.469 -0.8466  0.5612  1.0691
37599SOL    HW221576  11.413   5.683   4.397 -0.6818  1.7165  1.4036
37600SOL     OW21577   3.646   3.082  11.519  0.1186  0.1486  0.0313
37600SOL    HW121578   3.670   3.009  11.463 -0.3689  0.1960 -0.2449
37600SOL    HW221579   3.667   3.053  11.607 -1.3163 -0.8647  0.0791
37601SOL     OW21580   7.435  10.638   0.784 -0.2070 -0.0037 -0.3548
37601SOL    HW121581   7.437  10.732   0.764 -1.0882  0.0115 -0.4261
37601SOL    HW221582   7.486  10.630   0.864  0.0141  0.5127 -0.4372
37602SOL     OW21583   7.675   6.474   1.346 -0.0725  0.0332 -0.3770
37602SOL    HW121584   7.689   6.501   1.437 -0.5799 -0.1605 -0.2342
37602SOL    HW221585   7.692   6.553   1.294  0.9902 -0.0507 -0.1888
37603SOL     OW21586   1.488   9.909   3.212 -0.1630 -0.1023 -0.5639
37603SOL    HW121587   1.400   9.939   3.231  0.0113 -0.2001  0.5018
37603SOL    HW221588   1.482   9.865   3.127 -1.4085 -1.2184  0.0726
37604SOL     OW21589   2.850   0.574   1.402 -0.1504  0.1114  0.8476
37604SOL    HW121590   2.884   0.486   1.383 -0.4024  0.2528 -0.3437
37604SOL    HW221591   2.880   0.592   1.491 -0.0283 -1.1507  1.0917
37605SOL     OW21592   3.806   1.600  11.611 -0.1393 -0.1075 -1.0187
37605SOL    HW121593   3.724   1.555  11.631 -0.9247  1.3338 -0.8878
37605SOL    HW221594   3.786   1.656  11.536  0.5238  0.7566 -0.5771
37606SOL     OW21595   2.628   9.569   8.247 -0.1478 -0.2964 -0.1787
37606SOL    HW121596   2.667   9.531   8.168 -0.2898 -1.8592  0.4670
37606SOL    HW221597   2.692   9.634   8.276  0.3914 -0.4398 -0.9998
37607SOL     OW21598   9.340  10.810   2.494 -0.2573 -0.2709  0.3616
37607SOL    HW121599   9.349  10.871   2.567 -1.3226  2.0945 -1.3552
37607SOL    HW221600   9.352  10.864   2.416 -1.0798 -2.3229 -1.2898
37608SOL     OW21601  11.553   7.957  12.273 -0.4152  0.2221  0.0691
37608SOL    HW121602  11.509   7.994  12.350 -1.0097  1.8086 -0.9808
37608SOL    HW221603  11.481   7.929  12.216 -0.0186  0.4921 -0.5709
37609SOL     OW21604   4.041  12.557  10.243  0.0882 -0.1276 -0.1779
37609SOL    HW121605   4.004  12.502  10.174 -0.8689 -0.6214  0.6974
37609SOL    HW221606   4.129  12.579  10.212 -0.2944 -0.3818 -1.5163
37610SOL     OW21607  10.507   8.115   4.487 -0.0629  0.6370  0.4056
37610SOL    HW121608  10.459   8.040   4.523 -0.6786  1.3804  1.1602
37610SOL    HW221609  10.510   8.097   4.392  0.4878 -0.7161  0.6563
37611SOL     OW21610   1.755   2.129   9.003  0.7069  0.7017  0.0141
37611SOL    HW121611   1.773   2.223   9.007 -3.5982  1.8663 -1.7945
37611SOL    HW221612   1.689   2.114   9.070  2.3014 -1.4340  1.2158
37612SOL     OW21613   3.378  12.358   7.851  0.0045 -0.0792 -0.1671
37612SOL    HW121614   3.393  12.346   7.758  0.6063 -1.5575  0.0900
37612SOL    HW221615   3.368  12.452   7.862  0.4538  0.1643 -1.6395
37613SOL     OW21616   4.232   1.660   9.258  0.4217  0.3800 -0.2372
37613SOL    HW121617   4.232   1.568   9.232  1.2328  0.4183 -0.3978
37613SOL    HW221618   4.237   1.709   9.176  0.8286  0.5470 -0.1165
37614SOL     OW21619   1.897  12.505   8.366 -0.1537  0.0580 -0.3810
37614SOL    HW121620   1.978  12.455   8.354  1.2520  2.5223 -1.9523
37614SOL    HW221621   1.902  12.536   8.456  2.2497  2.6044 -1.2622
37615SOL     OW21622   2.743   6.515   1.323  0.3410  0.8287 -0.3116
37615SOL    HW121623   2.723   6.437   1.375 -0.1817  0.2709 -1.3312
37615SOL    HW221624   2.679   6.581   1.352 -0.4301  0.2880 -0.7668
37616SOL     OW21625   6.870  11.260  12.408  0.2768 -0.1054 -0.5875
37616SOL    HW121626   6.864  11.241  12.501 -1.2749  0.5564 -0.5247
37616SOL    HW221627   6.959  11.235  12.384  1.8819  2.6684  1.7672
37617SOL     OW21628   9.828   7.637   3.984  0.3294 -0.1408 -0.2897
37617SOL    HW121629   9.825   7.637   4.080  0.2934 -0.6430 -0.2858
37617SOL    HW221630   9.859   7.724   3.961  0.7821 -0.1633  0.1978
37618SOL     OW21631   8.116   6.473   1.848  0.1021  0.1541  0.0859
37618SOL    HW121632   8.203   6.437   1.868 -0.0337 -0.2274 -0.0028
37618SOL    HW221633   8.062   6.448   1.922 -0.0413  0.0009 -0.0687
37619SOL     OW21634   8.002   9.037   4.878 -0.3948  0.2289 -0.2808
37619SOL    HW121635   8.065   9.006   4.813 -0.1155  1.2393 -0.4981
37619SOL    HW221636   8.026   9.128   4.894 -1.5673  0.5176 -0.0866
37620SOL     OW21637  11.755   7.028   8.367 -0.5705  0.2714 -0.0824
37620SOL    HW121638  11.724   6.952   8.415 -0.5848 -0.3259 -1.0149
37620SOL    HW221639  11.687   7.094   8.380  0.4980  0.9768  2.6452
37621SOL     OW21640  12.467   9.260   5.060  0.0511  0.2677  0.5242
37621SOL    HW121641  12.544   9.275   5.114  1.3115 -1.4994 -0.6444
37621SOL    HW221642  12.466   9.165   5.046 -1.7094  0.3749 -0.4138
37622SOL     OW21643   9.849   4.630   7.880 -0.3784 -0.3261 -0.7508
37622SOL    HW121644   9.827   4.538   7.863 -0.2588  0.2244 -4.8194
37622SOL    HW221645   9.775   4.679   7.843  0.2083  1.2673  0.1049
37623SOL     OW21646   3.633   6.637  11.788 -0.0857 -0.1368 -0.6003
37623SOL    HW121647   3.683   6.643  11.707  0.7029  0.4993 -0.0792
37623SOL    HW221648   3.549   6.598  11.762  0.4146 -0.5769 -1.5941
37624SOL     OW21649   8.166  10.500   3.273 -0.6975 -0.3208 -0.2562
37624SOL    HW121650   8.104  10.526   3.341  0.0499 -0.1285  0.3775
37624SOL    HW221651   8.248  10.544   3.298  0.4745 -2.7623  0.5303
37625SOL     OW21652   7.510   8.582   7.264  0.0457 -0.3703  0.0409
37625SOL    HW121653   7.462   8.499   7.269 -0.0606 -0.2353  2.2612
37625SOL    HW221654   7.593   8.565   7.309 -0.3229  0.9034  1.2984
37626SOL     OW21655   3.129   6.409   2.840  0.1558 -0.3691  0.1006
37626SOL    HW121656   3.137   6.487   2.785  1.3971 -0.2629  0.3831
37626SOL    HW221657   3.039   6.380   2.830 -0.2327  0.9353 -0.2408
37627SOL     OW21658   6.756   0.671   0.308 -0.2619  0.0821 -0.3222
37627SOL    HW121659   6.831   0.728   0.326  0.5488 -1.1371  0.3355
37627SOL    HW221660   6.795   0.593   0.268 -1.4257  0.2774 -1.9211
37628SOL     OW21661   2.300   3.001   5.964 -0.3587 -0.4620  0.0716
37628SOL    HW121662   2.317   3.093   5.984 -0.5044 -0.5942  0.8356
37628SOL    HW221663   2.385   2.964   5.943 -0.4271  0.0808 -1.2993
37629SOL     OW21664   9.780   1.952   0.065  0.2002 -0.1031  0.2738
37629SOL    HW121665   9.800   1.970   0.157  1.2282 -2.4985  0.5758
37629SOL    HW221666   9.836   1.879   0.042 -1.6074 -0.9747 -1.6494
37630SOL     OW21667   1.448   9.577   5.673 -0.2226 -0.2580  0.1129
37630SOL    HW121668   1.428   9.517   5.745 -1.2413 -0.7240 -0.5474
37630SOL    HW221669   1.514   9.636   5.709 -1.0240 -0.2122  1.5727
37631SOL     OW21670   3.803  11.690   0.218 -0.0725 -0.3986 -0.3473
37631SOL    HW121671   3.826  11.677   0.311 -1.1352 -2.9300 -0.3427
37631SOL    HW221672   3.873  11.646   0.170  0.0672  0.2313 -0.7305
37632SOL     OW21673   6.961  10.715  12.325  0.0415  0.4362 -0.2742
37632SOL    HW121674   6.925  10.773  12.257  1.7054  0.2257 -1.3850
37632SOL    HW221675   6.911  10.634  12.315  1.2547 -0.1385 -2.3524
37633SOL     OW21676   2.240   5.684  10.268  0.3504 -0.3623 -0.0172
37633SOL    HW121677   2.219   5.693  10.361 -0.5212 -0.9705 -0.1428
37633SOL    HW221678   2.238   5.590  10.252 -0.7975 -0.2032 -0.9329
37634SOL     OW21679   9.096   9.179   4.496  0.0409  0.3874 -0.5985
37634SOL    HW121680   9.130   9.209   4.580 -2.9858  0.5417  0.7237
37634SOL    HW221681   9.101   9.255   4.438  0.5864  0.7891 -0.0240
37635SOL     OW21682   2.185   3.604   6.323 -0.5375 -0.1541  0.0082
37635SOL    HW121683   2.234   3.682   6.300 -0.8647  0.1252  0.2496
37635SOL    HW221684   2.130   3.587   6.247 -1.8245  0.9315  0.6552
37636SOL     OW21685  11.818   7.938  12.242 -0.2001 -0.3445 -0.4425
37636SOL    HW121686  11.725   7.916  12.239 -0.3191 -0.4110  1.7750
37636SOL    HW221687  11.822   8.030  12.219 -1.3405  0.6865  2.9052
37637SOL     OW21688  10.988   3.861  11.909 -0.0681  0.2670  0.3835
37637SOL    HW121689  10.977   3.931  11.845 -0.2304 -1.1937 -1.2787
37637SOL    HW221690  10.921   3.878  11.976 -1.0411  0.9366 -0.7223
37638SOL     OW21691   4.392  10.549   6.150 -0.1957 -0.2590  0.4296
37638SOL    HW121692   4.320  10.603   6.116  0.8195  0.6359 -0.3506
37638SOL    HW221693   4.416  10.592   6.233  0.5209  0.4459 -0.1240
37639SOL     OW21694   6.686   5.515   7.287 -0.1039 -0.2171  0.3957
37639SOL    HW121695   6.706   5.430   7.327 -0.5674 -0.1543  0.7640
37639SOL    HW221696   6.672   5.574   7.361 -0.4815  0.0195  0.1373
37640SOL     OW21697   6.492   5.348   2.758 -0.0939 -0.3415 -0.0332
37640SOL    HW121698   6.491   5.269   2.811 -1.2173 -0.6213 -0.4333
37640SOL    HW221699   6.495   5.420   2.822  3.0911 -0.6347  0.3271
37641SOL     OW21700  11.957   8.863   8.021  0.4266  0.3924 -0.8436
37641SOL    HW121701  11.897   8.819   7.961 -0.3499  0.9853 -0.5243
37641SOL    HW221702  11.911   8.862   8.105  1.1464  0.2975 -0.4419
37642SOL     OW21703   8.968  10.212   4.086  0.2900 -0.4275 -0.5461
37642SOL    HW121704   9.027  10.270   4.037  1.1340  0.2718  1.2139
37642SOL    HW221705   8.884  10.257   4.084  0.4844 -0.0639 -0.7861
37643SOL     OW21706   9.336   2.310  12.096  0.5365  0.2558 -0.1325
37643SOL    HW121707   9.309   2.274  12.181  0.4523 -0.5124 -0.4760
37643SOL    HW221708   9.349   2.403  12.113 -0.2850  0.2650  0.5344
37644SOL     OW21709   9.012  12.030   0.249 -0.7478  0.0864  0.0459
37644SOL    HW121710   9.039  11.944   0.216 -1.9383 -0.4548  0.4194
37644SOL    HW221711   8.929  12.047   0.204 -0.1822  1.3655 -0.5420
37645SOL     OW21712   0.308   0.278   1.403  0.2375 -0.4778 -0.1947
37645SOL    HW121713   0.400   0.253   1.411  0.3156  0.1469  1.4302
37645SOL    HW221714   0.310   0.370   1.377  0.1303 -0.0462  1.2435
37646SOL     OW21715   8.514   1.643  11.341 -0.3264 -0.1187  0.0370
37646SOL    HW121716   8.554   1.620  11.257 -1.8922  1.3597 -1.1669
37646SOL    HW221717   8.438   1.697  11.318  0.0466  1.5942  2.4549
37647SOL     OW21718   7.293   0.499   3.933 -0.0449 -0.0587  0.6818
37647SOL    HW121719   7.351   0.538   3.999 -1.0308  1.7107  0.5613
37647SOL    HW221720   7.346   0.493   3.854 -0.0313  1.7042  0.5243
37648SOL     OW21721   0.542   2.284   1.038  0.2003  0.5628  0.5668
37648SOL    HW121722   0.511   2.254   0.952 -0.4724 -0.6658  1.2148
37648SOL    HW221723   0.582   2.369   1.020  0.9071 -0.0779 -1.1147
37649SOL     OW21724   1.959   0.400   1.692 -0.3415 -0.0130 -0.6391
37649SOL    HW121725   2.015   0.466   1.650 -0.2150  1.8634  2.2151
37649SOL    HW221726   1.871   0.436   1.685 -0.7189 -1.0731 -1.6818
37650SOL     OW21727   5.021  10.371   3.804  0.1018  0.6141  0.1748
37650SOL    HW121728   5.061  10.378   3.718  1.5976  0.7552  0.8539
37650SOL    HW221729   5.091  10.395   3.865 -1.3734  2.1439  1.3626
37651SOL     OW21730  11.091   9.844   3.493 -0.2407  0.2729  0.3370
37651SOL    HW121731  11.048   9.893   3.423  4.1865  1.6405 -1.8400
37651SOL    HW221732  11.049   9.758   3.492 -2.6041  1.3301 -1.6550
37652SOL     OW21733   5.203   9.413   9.055  0.3239 -0.0556 -0.0043
37652SOL    HW121734   5.140   9.358   9.009  0.3501 -0.5696  0.5626
37652SOL    HW221735   5.285   9.398   9.009  0.4784 -1.0254  0.5512
37653SOL     OW21736   5.274   8.549   9.471  0.9658 -0.0189  0.8282
37653SOL    HW121737   5.368   8.554   9.487  1.3745  0.4006 -1.3686
37653SOL    HW221738   5.264   8.484   9.401  0.0589  2.2686 -1.3480
37654SOL     OW21739   0.169   7.095   7.609  0.8732  0.0575  0.3553
37654SOL    HW121740   0.079   7.101   7.642  1.2391 -0.4205  1.4669
37654SOL    HW221741   0.170   7.154   7.533 -0.5459 -0.4252 -0.0731
37655SOL     OW21742  10.465  10.829   0.141  0.3364 -0.0989  0.6086
37655SOL    HW121743  10.488  10.912   0.183  0.0025 -0.3120  1.2203
37655SOL    HW221744  10.478  10.763   0.209 -0.0431 -0.4670  0.3283
37656SOL     OW21745   2.501   8.909   1.257 -0.1253  0.1610  0.0357
37656SOL    HW121746   2.419   8.953   1.283 -0.5422 -0.4651 -0.1864
37656SOL    HW221747   2.562   8.930   1.328 -0.7109 -0.0058  0.6076
37657SOL     OW21748   3.645   6.602   8.734 -0.0206 -0.1763  0.0329
37657SOL    HW121749   3.687   6.679   8.773 -1.1345  0.6992 -0.4048
37657SOL    HW221750   3.700   6.580   8.659  0.2798  0.2429  0.1278
37658SOL     OW21751   6.415   3.728   3.191  0.2683  0.6185  0.4258
37658SOL    HW121752   6.509   3.729   3.173  0.3019 -1.8542  0.1183
37658SOL    HW221753   6.407   3.672   3.268 -0.9902  0.7395  0.3910
37659SOL     OW21754   3.619   5.699   1.774 -0.2145 -0.1017  0.7676
37659SOL    HW121755   3.651   5.660   1.692  0.8336 -1.9030  1.9706
37659SOL    HW221756   3.697   5.708   1.828 -1.1929 -1.2767  2.4751
37660SOL     OW21757   5.676   3.105  12.189 -0.3631 -1.1342 -0.4913
37660SOL    HW121758   5.753   3.129  12.240  0.0990 -1.7421 -0.8933
37660SOL    HW221759   5.635   3.035  12.240 -0.5229 -0.9813 -0.4053
37661SOL     OW21760   1.659   8.472   0.070  0.2520 -0.1388  0.5761
37661SOL    HW121761   1.695   8.462  -0.019 -0.2279  1.5274  0.1597
37661SOL    HW221762   1.734   8.459   0.128  1.8555  3.7479 -0.2817
37662SOL     OW21763  10.433   8.980   8.253  0.6299  0.6200 -0.3546
37662SOL    HW121764  10.393   8.920   8.191  0.7056 -1.4274  1.4754
37662SOL    HW221765  10.381   8.970   8.333  0.0635  3.7291 -0.2038
37663SOL     OW21766  10.487   1.399   0.918  0.2933 -0.3993  0.2185
37663SOL    HW121767  10.556   1.352   0.965 -1.8341 -0.9253  3.1443
37663SOL    HW221768  10.454   1.337   0.854 -1.2467 -2.4574  2.7988
37664SOL     OW21769   0.656  11.612   1.446  0.4761  0.3867 -0.3883
37664SOL    HW121770   0.693  11.564   1.372  1.4168 -0.4087  0.5470
37664SOL    HW221771   0.715  11.687   1.458  0.9516 -0.0653  0.1856
37665SOL     OW21772  11.731   8.881   1.423  0.8403  0.4942  0.8326
37665SOL    HW121773  11.690   8.966   1.440  0.6222  0.8351 -1.2078
37665SOL    HW221774  11.658   8.818   1.428  0.5150  0.7742 -0.2396
37666SOL     OW21775   0.455   0.031   6.235 -0.1173 -0.4187  0.2432
37666SOL    HW121776   0.472   0.054   6.144  1.5011  1.2206  0.9029
37666SOL    HW221777   0.375   0.080   6.257  0.3823  0.4824  0.1259
37667SOL     OW21778   8.289   1.662   7.797  0.4642  0.6460 -0.3712
37667SOL    HW121779   8.216   1.707   7.755  1.1633  1.4266 -0.7744
37667SOL    HW221780   8.355   1.730   7.810 -0.0731  0.7017  2.9305
37668SOL     OW21781   0.283   6.184  11.763 -0.5536  0.1862 -0.1300
37668SOL    HW121782   0.214   6.133  11.721  1.1967 -2.3722 -0.1705
37668SOL    HW221783   0.346   6.201  11.693  0.0203  0.2919  0.3978
37669SOL     OW21784   9.671   6.703   8.403 -0.1646  0.0235 -0.0671
37669SOL    HW121785   9.585   6.742   8.387  0.1871  1.1424  0.6386
37669SOL    HW221786   9.652   6.619   8.444 -0.9530  1.0527  1.8478
37670SOL     OW21787   5.229   1.440   9.686 -0.3876  0.3534 -0.1098
37670SOL    HW121788   5.285   1.422   9.762 -0.7604 -2.2067 -0.3387
37670SOL    HW221789   5.281   1.413   9.611 -1.1932 -0.1996 -0.4828
37671SOL     OW21790   1.907   9.763   4.678 -0.0918  0.1325  0.5296
37671SOL    HW121791   1.919   9.857   4.661 -2.2574  0.1316 -1.6592
37671SOL    HW221792   1.946   9.720   4.601 -0.9435 -0.5931  0.4795
37672SOL     OW21793   2.026   7.404   9.853  0.5197  0.1287  0.3588
37672SOL    HW121794   1.967   7.337   9.888  0.2267  0.4381  0.4637
37672SOL    HW221795   2.111   7.361   9.850  0.1066 -0.6618 -0.7907
37673SOL     OW21796  12.094   7.329   8.627  0.2078 -0.2321  0.3981
37673SOL    HW121797  12.005   7.312   8.596  1.4284 -3.2712 -2.0579
37673SOL    HW221798  12.108   7.422   8.610 -2.3911  0.2643  0.6228
37674SOL     OW21799   0.365   2.618  12.386 -0.6467  0.7877  0.9685
37674SOL    HW121800   0.312   2.690  12.421 -2.7876 -1.4863  2.7243
37674SOL    HW221801   0.316   2.587  12.310  0.5930  1.5110 -0.1641
37675SOL     OW21802   8.455   3.912  11.639  0.1759 -0.4632  0.5623
37675SOL    HW121803   8.539   3.922  11.594  0.6040 -0.6806  1.2873
37675SOL    HW221804   8.420   4.000  11.645 -0.8429 -0.6192 -1.9220
37676SOL     OW21805   2.008   3.473   3.360 -0.0198  0.6256 -0.1395
37676SOL    HW121806   2.056   3.405   3.407 -0.2177  1.7997  1.9011
37676SOL    HW221807   2.003   3.441   3.270  3.2657 -0.2186 -0.1407
37677SOL     OW21808   2.582   7.666   4.223 -0.3102 -0.4875 -0.1852
37677SOL    HW121809   2.539   7.734   4.170 -0.7772 -1.1943 -0.7443
37677SOL    HW221810   2.675   7.676   4.203 -0.4852 -0.8316 -1.2877
37678SOL     OW21811   7.083   5.819  12.069  0.3155 -0.2535 -0.0270
37678SOL    HW121812   7.156   5.833  12.130  1.0861  1.2633 -1.2203
37678SOL    HW221813   7.124   5.776  11.994 -0.2636 -0.4401 -0.2405
37679SOL     OW21814  12.082   5.418   5.400  0.5514 -0.0764  0.3588
37679SOL    HW121815  12.129   5.452   5.476 -0.3483  0.5231  0.6545
37679SOL    HW221816  12.139   5.438   5.326  1.4050 -0.6041  0.8503
37680SOL     OW21817   8.682   3.937   2.265  0.4379 -0.1493  0.3741
37680SOL    HW121818   8.655   3.935   2.173  0.4013  1.8756  0.3092
37680SOL    HW221819   8.777   3.933   2.262  0.4960  1.1566  0.1697
37681SOL     OW21820  12.002   4.804   2.434 -0.2359 -0.6017 -0.8735
37681SOL    HW121821  12.023   4.742   2.364  0.7803 -0.9654 -0.2644
37681SOL    HW221822  12.027   4.758   2.515  0.8994  0.7315 -0.4300
37682SOL     OW21823   8.432  11.173   1.082  0.1056 -0.1187  0.2747
37682SOL    HW121824   8.356  11.120   1.106 -0.1569  0.0318 -0.2140
37682SOL    HW221825   8.449  11.228   1.158 -0.1755 -0.2701  0.4444
37683SOL     OW21826   9.195   6.443   9.001 -0.4662 -0.5133 -0.1111
37683SOL    HW121827   9.115   6.484   8.966  1.0334  1.8522 -1.0035
37683SOL    HW221828   9.231   6.395   8.927 -0.6897 -1.0001  0.0938
37684SOL     OW21829   4.119   7.534   6.684 -0.0336 -0.0025 -0.1303
37684SOL    HW121830   4.160   7.604   6.634  1.2903  0.6128  1.7379
37684SOL    HW221831   4.186   7.504   6.745 -1.4060 -1.0894  0.9372
37685SOL     OW21832   5.489   4.106   7.654  0.4001  0.5517  0.8234
37685SOL    HW121833   5.552   4.049   7.697 -0.4739 -0.4217  0.8624
37685SOL    HW221834   5.470   4.174   7.718  0.8516  0.4277  1.0921
37686SOL     OW21835   5.155   0.262   1.636 -0.0227 -0.5074  0.0920
37686SOL    HW121836   5.064   0.268   1.607  0.5231 -0.6063 -1.8029
37686SOL    HW221837   5.154   0.293   1.726 -1.7000  0.9638 -0.3686
37687SOL     OW21838   0.067   7.243   6.107  0.5516 -0.2477 -0.3460
37687SOL    HW121839  -0.016   7.290   6.103  0.7158  0.1057  0.2480
37687SOL    HW221840   0.132   7.307   6.077  0.6907 -0.3171 -0.1901
37688SOL     OW21841   6.259   2.705   4.113  0.2488 -0.6954 -0.6303
37688SOL    HW121842   6.284   2.672   4.199 -2.1488 -1.8891 -0.2921
37688SOL    HW221843   6.316   2.780   4.097 -0.1236  0.4131  2.5966
37689SOL     OW21844  11.034   9.576  12.535 -0.0145 -0.1897 -0.4678
37689SOL    HW121845  11.125   9.600  12.518  0.2045 -0.1124  0.6908
37689SOL    HW221846  10.992   9.657  12.565 -0.9753  0.2248 -2.7626
37690SOL     OW21847   3.194   6.458  12.157 -0.1599  0.2349  0.2888
37690SOL    HW121848   3.146   6.414  12.087  0.8892  0.4975 -0.6309
37690SOL    HW221849   3.254   6.391  12.192 -0.0658  0.3436  0.3402
37691SOL     OW21850   7.612   0.782  11.172 -0.1354  0.0074  0.1862
37691SOL    HW121851   7.588   0.699  11.131  0.2534 -0.3358  0.6440
37691SOL    HW221852   7.631   0.841  11.099 -1.1487 -0.0726 -0.1632
37692SOL     OW21853  11.516   7.468  11.260  0.4878 -0.3280  0.0251
37692SOL    HW121854  11.559   7.536  11.313 -1.5349  0.7350  0.4133
37692SOL    HW221855  11.423   7.490  11.265  0.1230 -0.4445 -3.6323
37693SOL     OW21856   0.409   6.581  12.559  0.1439 -0.3735 -0.1977
37693SOL    HW121857   0.482   6.521  12.575  0.9958  0.1361 -1.8824
37693SOL    HW221858   0.359   6.539  12.489  1.0157  0.9966 -1.7415
37694SOL     OW21859   9.410  12.307  11.806  0.0974 -0.3834 -0.4289
37694SOL    HW121860   9.460  12.294  11.725 -0.2595  0.8355 -0.8689
37694SOL    HW221861   9.466  12.363  11.860 -0.1056 -0.3379 -0.2640
37695SOL     OW21862   4.243   3.249   1.987 -0.6178 -0.0151 -0.5676
37695SOL    HW121863   4.272   3.202   1.909  2.0296  2.7871 -1.5120
37695SOL    HW221864   4.299   3.216   2.057 -0.3468  0.0956 -0.7282
37696SOL     OW21865   3.676  11.507   3.604  0.3028 -1.0412 -0.5296
37696SOL    HW121866   3.615  11.441   3.636 -0.9853  0.6293  0.6223
37696SOL    HW221867   3.751  11.500   3.663 -0.4178 -0.5705  0.4727
37697SOL     OW21868  11.859   2.603  11.597  0.5362  0.1409 -0.2144
37697SOL    HW121869  11.827   2.666  11.662 -1.1529 -1.4553  0.5929
37697SOL    HW221870  11.945   2.637  11.571 -0.3243  2.7805  0.1208
37698SOL     OW21871   1.158   0.779   7.584 -0.7520  0.2104 -0.1290
37698SOL    HW121872   1.120   0.727   7.654 -1.4318  0.0923 -0.5844
37698SOL    HW221873   1.253   0.772   7.598 -0.8760  0.2864  0.8431
37699SOL     OW21874   1.203   0.335   2.590  0.0049  0.1970  0.5481
37699SOL    HW121875   1.251   0.343   2.672 -0.1211 -0.5477  0.6982
37699SOL    HW221876   1.271   0.315   2.525 -0.0788 -0.8647  0.7618
37700SOL     OW21877  10.791   1.440  11.133 -0.3132 -0.3188 -0.5871
37700SOL    HW121878  10.715   1.446  11.076  1.0986 -1.6872 -2.7532
37700SOL    HW221879  10.756   1.412  11.218 -2.3280  0.4583 -1.0979
37701SOL     OW21880   2.816   4.809   2.061 -0.1803  0.1589 -0.1547
37701SOL    HW121881   2.851   4.759   1.987 -1.6255 -1.0419 -0.0616
37701SOL    HW221882   2.854   4.896   2.051  0.4496 -0.2702 -1.7271
37702SOL     OW21883   9.597   9.664   0.490  0.3672  0.1964 -0.5287
37702SOL    HW121884   9.554   9.722   0.427 -0.4764 -0.5239 -0.6185
37702SOL    HW221885   9.589   9.577   0.452 -2.4292 -0.6643  1.7112
37703SOL     OW21886   1.758   4.939   2.879  0.7293 -0.1614  0.0948
37703SOL    HW121887   1.675   4.894   2.859  0.3164  1.0632 -1.0537
37703SOL    HW221888   1.803   4.879   2.939 -1.0565 -0.7800  0.9017
37704SOL     OW21889   0.139  11.079   5.787 -0.0911  0.2473  0.4909
37704SOL    HW121890   0.164  11.113   5.873  0.8197 -0.1796  0.4050
37704SOL    HW221891   0.217  11.032   5.756 -0.6072 -0.0957 -0.3153
37705SOL     OW21892   8.827   7.097   6.408  0.5639  0.0610  0.4488
37705SOL    HW121893   8.838   7.049   6.490 -0.1225  0.1628  0.6064
37705SOL    HW221894   8.734   7.118   6.405  0.8858  1.5924  0.5059
37706SOL     OW21895   3.391   4.743  12.461  0.3371  0.7079  0.0878
37706SOL    HW121896   3.409   4.725  12.369  1.3456  0.5080  0.3152
37706SOL    HW221897   3.301   4.715  12.474  0.2966  0.4294 -0.7548
37707SOL     OW21898   4.702   4.100   6.052  0.2535  0.5696 -0.2499
37707SOL    HW121899   4.751   4.126   6.130  0.8521 -0.1317 -0.3842
37707SOL    HW221900   4.627   4.159   6.050 -0.1049  0.1839  1.1992
37708SOL     OW21901  10.361   0.032   3.316  0.0934 -0.7113  0.8572
37708SOL    HW121902  10.289   0.087   3.285  0.0760 -0.2541  1.7017
37708SOL    HW221903  10.440   0.084   3.301  0.3440 -1.4677 -0.6752
37709SOL     OW21904   2.542   3.118   3.939  0.3741  0.7228  0.7284
37709SOL    HW121905   2.561   3.110   3.845 -0.2595 -0.4613  0.6886
37709SOL    HW221906   2.601   3.054   3.980 -0.8947 -0.3485  0.9249
37710SOL     OW21907   3.587   7.727  10.228  0.1292 -0.4233 -0.3285
37710SOL    HW121908   3.646   7.796  10.258 -0.7583  2.1777 -3.8276
37710SOL    HW221909   3.515   7.727  10.290  1.0179  0.5395  0.7438
37711SOL     OW21910   8.147   0.985   2.536  0.1964  0.3669 -0.3462
37711SOL    HW121911   8.207   0.978   2.610 -0.5520  0.8405  0.3305
37711SOL    HW221912   8.162   1.073   2.501 -1.0119  1.0210  0.6752
37712SOL     OW21913   1.027  11.053   9.267 -0.1456  0.7267  0.0431
37712SOL    HW121914   0.998  10.997   9.196 -0.8465  2.1692 -0.8514
37712SOL    HW221915   1.028  11.141   9.230  0.6570  1.3664  1.4758
37713SOL     OW21916   8.128   3.941   9.617  0.0524  0.5670 -0.4477
37713SOL    HW121917   8.136   3.911   9.527 -0.0248 -0.1548 -0.2183
37713SOL    HW221918   8.181   3.880   9.668 -0.3073  0.6693  0.0572
37714SOL     OW21919   9.100   2.128  10.060  0.1979 -0.3266 -0.2084
37714SOL    HW121920   9.154   2.155   9.986  2.0798 -2.1057  0.3970
37714SOL    HW221921   9.162   2.085  10.120 -1.7943 -1.9521  0.8182
37715SOL     OW21922   2.266   0.690   0.088  0.4000 -0.5295 -0.0330
37715SOL    HW121923   2.179   0.663   0.116  0.9067 -1.3036  0.8520
37715SOL    HW221924   2.251   0.744   0.011 -0.7598 -1.8610 -0.7768
37716SOL     OW21925  10.687   5.475  12.300  0.1136  0.4531  0.0661
37716SOL    HW121926  10.707   5.471  12.206  0.8984 -0.8395  0.2611
37716SOL    HW221927  10.671   5.384  12.325 -0.9022  0.8728  1.0373
37717SOL     OW21928   4.378  11.961   6.431  0.0201 -0.7944 -0.3876
37717SOL    HW121929   4.433  11.965   6.353  1.4432 -1.3350  0.5515
37717SOL    HW221930   4.398  12.043   6.478 -0.5911 -0.6174 -0.4324
37718SOL     OW21931   0.545   8.106   6.028 -0.3353  0.3544  0.0501
37718SOL    HW121932   0.618   8.111   6.089  0.4497  2.1404 -0.9650
37718SOL    HW221933   0.528   8.012   6.018  1.9636 -0.1163  0.1552
37719SOL     OW21934   4.970   6.753  12.429  0.0406 -0.5193 -0.4067
37719SOL    HW121935   5.058   6.736  12.462  0.0826  0.6596  0.1092
37719SOL    HW221936   4.984   6.805  12.349 -0.2055  3.2122  1.7643
37720SOL     OW21937   9.593  10.855   7.495 -0.5657 -0.2413  0.7107
37720SOL    HW121938   9.599  10.865   7.590  2.5537  0.2609  0.5622
37720SOL    HW221939   9.630  10.768   7.478  2.2120  1.0173 -0.1989
37721SOL     OW21940   9.469  11.696   6.002  0.2131 -0.3380 -0.4524
37721SOL    HW121941   9.459  11.661   6.091  0.8005 -1.4562 -0.8081
37721SOL    HW221942   9.562  11.717   5.996  0.1566 -0.1821 -0.7792
37722SOL     OW21943   0.627   0.644   6.400  0.0820 -0.3536  0.3029
37722SOL    HW121944   0.652   0.559   6.363 -0.8294 -0.0866 -1.0101
37722SOL    HW221945   0.582   0.689   6.328 -2.5199 -0.1049  1.9682
37723SOL     OW21946   0.380  11.861   4.413  0.7444  0.7058 -0.3732
37723SOL    HW121947   0.301  11.909   4.437 -1.1777 -3.0105  1.5667
37723SOL    HW221948   0.364  11.835   4.322 -0.6706 -0.5196  0.1750
37724SOL     OW21949   8.600   5.957   8.961 -0.5169 -0.3023  0.8023
37724SOL    HW121950   8.650   5.930   9.038  0.3597 -0.2559  0.2634
37724SOL    HW221951   8.640   6.040   8.935  0.3799 -1.1683 -0.7348
37725SOL     OW21952   6.874   6.145   1.264 -0.1420  0.3036  0.2633
37725SOL    HW121953   6.943   6.165   1.201 -0.5771 -0.5768 -0.5326
37725SOL    HW221954   6.793   6.149   1.212 -0.2959 -3.2379 -0.0279
37726SOL     OW21955   1.417   5.320  10.950 -0.1458 -0.1081 -0.0589
37726SOL    HW121956   1.395   5.291  10.861  0.3238  0.2509 -0.2964
37726SOL    HW221957   1.340   5.370  10.977  0.4040  1.2741 -0.9484
37727SOL     OW21958   3.198  11.401   6.590 -0.7248  0.4795 -0.7998
37727SOL    HW121959   3.194  11.414   6.495  1.7842  0.5235 -0.9642
37727SOL    HW221960   3.106  11.393   6.617 -1.4664 -1.6381 -3.4947
37728SOL     OW21961   0.670   7.928   3.647  0.2941  0.4692  0.1057
37728SOL    HW121962   0.736   7.902   3.582 -0.2825 -1.4845  0.2294
37728SOL    HW221963   0.720   7.955   3.723  0.9634  1.7643 -0.7514
37729SOL     OW21964   3.727   5.456   5.586 -0.2495 -0.1520  0.3590
37729SOL    HW121965   3.815   5.417   5.579  0.4845  1.4331  0.3654
37729SOL    HW221966   3.743   5.545   5.616 -1.7919  0.5232 -0.6966
37730SOL     OW21967   0.972   2.228   8.424 -0.2181 -0.4422 -0.4841
37730SOL    HW121968   1.022   2.146   8.426 -0.8675 -0.8311  0.0833
37730SOL    HW221969   0.956   2.244   8.331  1.6154  0.1086 -0.7477
37731SOL     OW21970   3.892   8.612   3.037 -0.1933 -0.1595  0.0570
37731SOL    HW121971   3.896   8.707   3.024  1.9956 -0.1398  0.5759
37731SOL    HW221972   3.978   8.580   3.011 -0.5232 -1.8890  0.9158
37732SOL     OW21973   9.892   5.741  10.188 -1.1803  0.1223  0.1216
37732SOL    HW121974   9.826   5.685  10.231  0.2973 -0.5258  1.6396
37732SOL    HW221975   9.921   5.801  10.257  0.7485 -0.4763 -0.1332
37733SOL     OW21976   4.223   4.545   5.568  0.3792 -0.1438  0.5278
37733SOL    HW121977   4.194   4.455   5.583  1.8176 -0.3371  2.6106
37733SOL    HW221978   4.254   4.546   5.478  0.4747 -1.7804  0.5050
37734SOL     OW21979   4.171   8.539   3.851  0.0208  0.5834  0.1327
37734SOL    HW121980   4.136   8.454   3.826 -1.5260  1.3681 -0.5286
37734SOL    HW221981   4.181   8.587   3.769 -0.8366  1.6439  0.6209
37735SOL     OW21982   7.195   6.136   2.944  0.3162  0.5374 -0.4675
37735SOL    HW121983   7.264   6.074   2.970  0.3921  0.5155 -0.7156
37735SOL    HW221984   7.147   6.154   3.025  0.0800 -0.1105 -0.4529
37736SOL     OW21985  11.543   0.683   0.477  0.3988 -0.1448 -0.6580
37736SOL    HW121986  11.562   0.681   0.571 -0.6036  1.3276 -0.3879
37736SOL    HW221987  11.629   0.693   0.436  0.7397  0.8048  0.2203
37737SOL     OW21988   3.624   5.937  12.147  0.5645  0.3756  0.4847
37737SOL    HW121989   3.596   5.866  12.205  1.4832 -0.1534  0.3012
37737SOL    HW221990   3.573   6.013  12.176 -1.4728 -0.6533 -0.2178
37738SOL     OW21991   5.398   8.256  10.748 -0.9342  0.0649  0.2805
37738SOL    HW121992   5.374   8.164  10.758 -0.9580  0.2030  1.7924
37738SOL    HW221993   5.491   8.255  10.727 -0.9980 -0.3212  0.0255
37739SOL     OW21994   2.228  11.848  12.342 -0.1550 -0.2421  0.5919
37739SOL    HW121995   2.154  11.837  12.401  0.2863  1.6442  1.5804
37739SOL    HW221996   2.193  11.902  12.270 -0.4844 -1.8711 -0.5232
37740SOL     OW21997  10.031   5.809   4.080  0.5175 -0.4045  0.1341
37740SOL    HW121998  10.024   5.849   3.993  1.1597  2.1850  1.1929
37740SOL    HW221999   9.940   5.795   4.107 -0.0214  3.6960  1.0690
37741SOL     OW22000   4.273   0.265   6.384  0.2762 -0.2031  0.2995
37741SOL    HW122001   4.339   0.309   6.438 -0.8261  0.5532  1.0875
37741SOL    HW222002   4.214   0.225   6.448  0.1560 -1.1508 -0.3937
37742SOL     OW22003  11.723   5.617  11.636 -0.1643 -0.0884 -0.0537
37742SOL    HW122004  11.632   5.639  11.656 -0.4393  0.6396 -1.8749
37742SOL    HW222005  11.758   5.583  11.718 -2.2132 -0.8639  0.5607
37743SOL     OW22006   1.791   7.659   8.921  0.4129 -0.4350  0.8189
37743SOL    HW122007   1.802   7.752   8.942  1.1845 -0.5721  1.0540
37743SOL    HW222008   1.880   7.628   8.902  0.2026 -1.2042  1.0671
37744SOL     OW22009   2.901   4.593   5.563  0.4272  0.2818  0.1151
37744SOL    HW122010   2.979   4.542   5.582 -0.3448 -0.5852  1.0343
37744SOL    HW222011   2.828   4.536   5.587 -0.4653  1.6175  0.7088
37745SOL     OW22012   8.348  12.494   3.389 -0.1656 -0.1351  0.2697
37745SOL    HW122013   8.421  12.453   3.343 -2.0568 -1.6934 -1.5194
37745SOL    HW222014   8.280  12.426   3.392 -1.2557  0.9502  2.6713
37746SOL     OW22015   6.074   3.834   0.707  0.2268 -0.0123 -0.2960
37746SOL    HW122016   6.033   3.916   0.680 -0.2808 -0.0451  0.3328
37746SOL    HW222017   6.048   3.824   0.799  0.4385 -0.7784 -0.3143
37747SOL     OW22018   3.902   1.136   9.294  1.0008 -0.0443  0.0521
37747SOL    HW122019   3.941   1.223   9.289 -1.2285  1.0085 -0.4280
37747SOL    HW222020   3.883   1.113   9.203  0.4903 -0.4904  0.2673
37748SOL     OW22021   6.189   6.042   4.715 -0.4264 -0.1966  0.0770
37748SOL    HW122022   6.099   6.013   4.730 -0.3494 -0.3146  0.3189
37748SOL    HW222023   6.238   6.009   4.791 -0.4513  1.1123  0.6814
37749SOL     OW22024  11.013   7.865   4.312  0.3557 -0.0293 -0.1622
37749SOL    HW122025  10.932   7.866   4.363 -0.4592  0.0336 -1.4163
37749SOL    HW222026  11.083   7.877   4.377 -0.6658  0.3791  0.8851
37750SOL     OW22027  12.340   6.218   1.768 -0.5880 -0.1121 -0.1771
37750SOL    HW122028  12.328   6.136   1.817 -2.4695  0.7916  0.9984
37750SOL    HW222029  12.374   6.191   1.683 -0.7818 -2.0782  0.3259
37751SOL     OW22030   0.308   5.218   3.665  0.1036 -0.4624  0.3343
37751SOL    HW122031   0.308   5.276   3.741  0.3310  2.3384 -1.6789
37751SOL    HW222032   0.391   5.236   3.622 -1.2868  0.3400 -2.1820
37752SOL     OW22033   5.786  11.002   8.135 -0.6436 -0.2138 -0.8774
37752SOL    HW122034   5.782  10.921   8.085 -0.6374 -0.5405 -0.3552
37752SOL    HW222035   5.757  10.978   8.223  0.5980  0.0645 -0.3679
37753SOL     OW22036   6.838   2.049   8.898  0.6103 -0.3493  0.0931
37753SOL    HW122037   6.765   2.022   8.954  0.1449  0.1558 -0.2608
37753SOL    HW222038   6.821   2.141   8.880  1.1515 -0.3224 -0.2870
37754SOL     OW22039   0.187   1.936   7.926  0.1509  0.2170 -0.0374
37754SOL    HW122040   0.274   1.902   7.910 -0.2103 -1.3858  1.2064
37754SOL    HW222041   0.135   1.906   7.851  0.9326  2.5296 -1.6296
37755SOL     OW22042   1.909   9.055   0.816  0.3125 -0.5737  0.1286
37755SOL    HW122043   1.990   9.100   0.843  0.2666 -0.4793  0.1082
37755SOL    HW222044   1.839   9.111   0.847  0.2465 -0.8959  0.5718
37756SOL     OW22045   5.769   6.492   7.766  0.2452 -0.2703  0.0814
37756SOL    HW122046   5.759   6.557   7.697  0.2486  1.2425  1.4258
37756SOL    HW222047   5.843   6.438   7.738 -0.1381 -0.0715 -1.3561
37757SOL     OW22048   0.290   6.082   4.711  0.3677  0.0702 -0.1216
37757SOL    HW122049   0.267   6.167   4.673  1.6126  0.5399  0.1323
37757SOL    HW222050   0.335   6.036   4.640 -2.0275 -1.2073 -0.9188
37758SOL     OW22051  11.809   3.406   8.785  0.0290  0.9682  0.1948
37758SOL    HW122052  11.840   3.330   8.736 -1.0121 -0.0850  1.1081
37758SOL    HW222053  11.883   3.430   8.842 -0.0476 -0.1659  0.8073
37759SOL     OW22054   0.992   9.249  12.572  0.6211  0.2348 -0.6204
37759SOL    HW122055   1.005   9.171  12.626 -2.4453  1.0653  1.5366
37759SOL    HW222056   0.954   9.215  12.491 -0.5698 -0.5598  0.2428
37760SOL     OW22057   3.504  12.226   2.740  0.4513 -0.6071  0.5993
37760SOL    HW122058   3.459  12.310   2.748  0.8820 -0.3790  0.6547
37760SOL    HW222059   3.545  12.213   2.826 -1.5092 -1.9881  1.3976
37761SOL     OW22060   0.303   4.614  10.287  0.2964  0.2716 -0.3788
37761SOL    HW122061   0.332   4.532  10.327  1.4260  0.4471 -0.7949
37761SOL    HW222062   0.248   4.655  10.354  0.8233 -0.1989  0.3564
37762SOL     OW22063   3.613  10.938   4.551  0.5867 -0.1038  0.3002
37762SOL    HW122064   3.665  10.860   4.535  0.7685 -0.1479  1.0498
37762SOL    HW222065   3.651  10.976   4.630  0.1188  0.4167  0.2830
37763SOL     OW22066   5.364   1.123   3.599 -0.2612 -0.1824 -0.1890
37763SOL    HW122067   5.377   1.061   3.527 -1.2841 -0.5616 -0.0641
37763SOL    HW222068   5.274   1.155   3.586  0.0410  0.8145  0.1010
37764SOL     OW22069   0.022   1.137  11.100  0.0198 -0.0996 -0.0341
37764SOL    HW122070   0.024   1.205  11.032 -0.9195  1.2531  1.2278
37764SOL    HW222071  -0.030   1.066  11.061  0.5381  0.1124 -1.1700
37765SOL     OW22072   7.812   8.618   3.377  0.3379 -0.4608 -0.1607
37765SOL    HW122073   7.777   8.675   3.308  0.8521  0.2103  0.1223
37765SOL    HW222074   7.761   8.641   3.455 -0.9225 -1.9166 -0.5171
37766SOL     OW22075  12.080   2.678   7.824  0.8257  0.0946 -0.6749
37766SOL    HW122076  12.093   2.593   7.867  0.9883  0.1282 -0.6567
37766SOL    HW222077  12.163   2.724   7.837  0.4381  0.6095  0.1185
37767SOL     OW22078   0.504   6.055   3.398  0.0410 -0.2760  0.2037
37767SOL    HW122079   0.535   6.078   3.486 -0.3537  0.5545  0.1321
37767SOL    HW222080   0.451   5.976   3.411 -0.4166  0.1207  0.7823
37768SOL     OW22081   9.408   0.212   2.191 -0.5658 -0.5028 -0.3335
37768SOL    HW122082   9.444   0.149   2.128 -2.4371 -0.1424 -1.8895
37768SOL    HW222083   9.315   0.217   2.168 -0.5427  2.6830 -0.1930
37769SOL     OW22084   7.608   4.877   6.969 -0.7252 -0.2643 -0.1755
37769SOL    HW122085   7.577   4.911   7.053 -1.5071 -0.6424 -0.2978
37769SOL    HW222086   7.529   4.869   6.917 -0.1209  1.0111 -1.3450
37770SOL     OW22087   5.408   1.139   3.879 -0.2410  0.3224  0.5276
37770SOL    HW122088   5.322   1.169   3.908 -1.7666 -1.1800 -1.9987
37770SOL    HW222089   5.395   1.114   3.787  3.0571  0.5239 -0.1257
37771SOL     OW22090   7.374   7.636   2.234 -0.4885 -0.0809 -0.6866
37771SOL    HW122091   7.329   7.645   2.319 -1.2579 -1.1756 -0.9491
37771SOL    HW222092   7.322   7.571   2.187 -0.8506  1.4962 -2.5398
37772SOL     OW22093   0.446   6.784   5.203  0.8557  0.0989  0.3361
37772SOL    HW122094   0.471   6.849   5.268  1.5875 -0.3358  0.5072
37772SOL    HW222095   0.519   6.781   5.142  0.8985 -0.6507  0.4062
37773SOL     OW22096   1.755   5.774   0.652  0.0031  0.1372 -0.0919
37773SOL    HW122097   1.823   5.735   0.707  0.1687 -0.2714 -0.5774
37773SOL    HW222098   1.800   5.797   0.571 -0.4108 -0.0350 -0.3767
37774SOL     OW22099   0.036   4.662   8.692  0.3903  0.7148  0.3555
37774SOL    HW122100   0.031   4.729   8.761 -1.2037 -0.4458  1.4266
37774SOL    HW222101  -0.050   4.663   8.650 -0.2726 -1.7135  1.4768
37775SOL     OW22102   5.316   5.396  11.558  0.2609 -0.5141  0.2441
37775SOL    HW122103   5.289   5.464  11.620 -1.6903 -0.6584 -0.3620
37775SOL    HW222104   5.369   5.443  11.494  2.0717 -0.3140  1.8172
37776SOL     OW22105  11.512   4.379   0.889 -0.2368 -0.5593 -0.3351
37776SOL    HW122106  11.585   4.440   0.874 -1.0019  0.4538 -0.0380
37776SOL    HW222107  11.465   4.377   0.806  0.0471 -1.1250 -0.4895
37777SOL     OW22108   1.912   9.583   3.058  0.0357 -0.1957  0.1981
37777SOL    HW122109   1.844   9.643   3.089  0.3310  0.8598 -1.1204
37777SOL    HW222110   1.945   9.541   3.138  0.4432  2.0455  1.2874
37778SOL     OW22111  10.107   0.546   0.985 -0.6338  0.1732 -0.4632
37778SOL    HW122112  10.113   0.620   1.044 -1.9185  0.1576 -0.2842
37778SOL    HW222113  10.177   0.560   0.921  0.7455  0.2106  1.0005
37779SOL     OW22114   7.627   5.210   9.614  0.1436  0.2160  0.9594
37779SOL    HW122115   7.632   5.159   9.695  0.8713  0.1189  0.8621
37779SOL    HW222116   7.709   5.258   9.611 -0.0474  0.5189  0.4678
37780SOL     OW22117   2.948   3.058   9.545 -0.3800  0.4650  0.5167
37780SOL    HW122118   2.906   3.007   9.613  1.4426 -1.5492  0.2364
37780SOL    HW222119   3.042   3.055   9.567  0.1006  0.9628 -1.2871
37781SOL     OW22120   1.236   0.981   3.378  0.2197  0.3035 -1.1886
37781SOL    HW122121   1.146   1.003   3.357  0.2884  2.1886  0.2551
37781SOL    HW222122   1.239   0.885   3.373 -1.7800  0.2146 -1.4702
37782SOL     OW22123   2.689  11.558   6.817  0.1279 -0.2206 -0.0878
37782SOL    HW122124   2.784  11.545   6.814  0.3258 -0.8247  3.4506
37782SOL    HW222125   2.675  11.613   6.894 -2.3831  0.5907 -1.0211
37783SOL     OW22126   6.054   6.607   7.954 -0.2693  0.0812  0.1710
37783SOL    HW122127   6.113   6.671   7.994  0.5307  0.0583 -0.9145
37783SOL    HW222128   6.112   6.540   7.918 -0.8187  0.7117 -2.0938
37784SOL     OW22129  11.721   8.370  10.312 -0.1187 -0.4475 -0.1256
37784SOL    HW122130  11.684   8.351  10.399 -0.8815 -1.3778 -0.6388
37784SOL    HW222131  11.814   8.352  10.322 -0.3504 -1.5370  0.2486
37785SOL     OW22132   7.974   2.079   8.377 -0.8240 -0.4834 -0.1437
37785SOL    HW122133   8.017   2.156   8.341 -1.5469 -0.8309 -1.8431
37785SOL    HW222134   7.923   2.112   8.450  0.7104  0.2475  0.6428
37786SOL     OW22135   2.855   6.493   2.324  0.4611  0.1816 -0.5408
37786SOL    HW122136   2.947   6.515   2.309  1.7630 -2.2842  2.5965
37786SOL    HW222137   2.852   6.398   2.315 -1.4863  0.0776  0.6985
37787SOL     OW22138   6.189   2.219   5.928 -0.0526 -0.3445  0.4198
37787SOL    HW122139   6.139   2.193   5.850 -2.5475 -2.0610  2.4048
37787SOL    HW222140   6.205   2.137   5.974  1.5779  0.6088  1.6487
37788SOL     OW22141  10.257   6.240   1.900 -0.1531  0.8890  0.5873
37788SOL    HW122142  10.169   6.222   1.935  0.5687  0.4739  2.3176
37788SOL    HW222143  10.313   6.240   1.978  1.4060  0.9801 -0.5083
37789SOL     OW22144   4.573  10.856  10.570  0.4359  0.0872 -0.1574
37789SOL    HW122145   4.622  10.839  10.651  0.0220  1.5905  0.4357
37789SOL    HW222146   4.638  10.843  10.500  0.7502 -1.4123  0.3770
37790SOL     OW22147   3.976   4.500   6.336 -0.0494 -0.0894 -0.2014
37790SOL    HW122148   3.974   4.408   6.362 -1.4646 -0.3939 -1.2818
37790SOL    HW222149   3.986   4.548   6.419  1.3719 -1.2024  0.3150
37791SOL     OW22150  10.575   2.376   5.720  0.0463  0.1349  0.1652
37791SOL    HW122151  10.617   2.388   5.635  0.4579  1.5005  0.5345
37791SOL    HW222152  10.486   2.349   5.699 -0.1650  1.4346 -0.7509
37792SOL     OW22153   7.273   3.442   3.909  0.3793 -0.2353  0.2188
37792SOL    HW122154   7.314   3.422   3.994  0.6177 -1.5931 -0.1906
37792SOL    HW222155   7.325   3.514   3.874  1.0072 -0.4349  0.7159
37793SOL     OW22156   6.727  11.294   3.785 -0.4740 -0.2464  1.1565
37793SOL    HW122157   6.776  11.212   3.787 -1.5989 -0.9669  0.2401
37793SOL    HW222158   6.757  11.338   3.705 -2.4357 -1.4544 -0.3321
37794SOL     OW22159   4.851  10.129   5.254 -0.3638  0.5242  0.0044
37794SOL    HW122160   4.767  10.170   5.231  0.4098  0.8756 -2.4506
37794SOL    HW222161   4.850  10.045   5.209  0.3909  0.2949  0.4025
37795SOL     OW22162   5.406   5.625   4.216  0.1408  0.9597 -0.2385
37795SOL    HW122163   5.372   5.625   4.306  1.0215 -1.7229  0.1706
37795SOL    HW222164   5.500   5.635   4.226  0.2133  0.9777 -0.8882
37796SOL     OW22165   2.671   8.436   2.698  0.1609  0.4754 -0.2418
37796SOL    HW122166   2.728   8.508   2.725  0.6446 -0.3163  0.8910
37796SOL    HW222167   2.638   8.399   2.780 -0.8463  0.0014 -0.8367
37797SOL     OW22168   7.724   3.899   8.194 -0.0974  0.0554 -0.0609
37797SOL    HW122169   7.786   3.828   8.211 -1.0496 -0.5475  1.0663
37797SOL    HW222170   7.774   3.979   8.207  0.2715 -0.4124  1.5765
37798SOL     OW22171   6.484   0.645   9.672 -0.5220 -0.1066  0.3366
37798SOL    HW122172   6.472   0.635   9.767  1.4823 -0.1413  0.6439
37798SOL    HW222173   6.472   0.557   9.637  0.0896 -0.3650  0.7583
37799SOL     OW22174   8.698   6.768  11.381 -0.2790 -0.2322  0.1630
37799SOL    HW122175   8.630   6.718  11.335  0.8406 -0.6665 -1.0981
37799SOL    HW222176   8.706   6.849  11.331  0.5059 -0.4280 -0.0443
37800SOL     OW22177  10.623   2.889  11.771  0.2076  0.4269 -0.5635
37800SOL    HW122178  10.529   2.875  11.766  0.0872  1.4916 -1.8946
37800SOL    HW222179  10.660   2.823  11.712  0.1085  1.4863 -1.8383
37801SOL     OW22180   8.715   9.069   7.979 -0.5472  0.0236 -0.2656
37801SOL    HW122181   8.744   9.001   8.039 -1.2710 -0.7160 -0.7324
37801SOL    HW222182   8.740   9.151   8.021 -0.8636 -0.4873  0.9414
37802SOL     OW22183   1.072   8.397   0.533 -0.5139 -0.1013  0.2922
37802SOL    HW122184   1.142   8.423   0.593 -1.4357  0.7052  1.0441
37802SOL    HW222185   1.118   8.377   0.451  0.4396  2.8955 -0.0608
37803SOL     OW22186  12.582  11.406   2.761 -0.1654  0.6402 -0.3586
37803SOL    HW122187  12.569  11.501   2.758  0.8089  0.7657 -1.5122
37803SOL    HW222188  12.494  11.369   2.760 -0.5614  1.5253  0.2982
37804SOL     OW22189   1.519   8.451   0.429 -0.3518 -0.0854 -0.0307
37804SOL    HW122190   1.458   8.510   0.386 -1.2234  0.0464  1.3324
37804SOL    HW222191   1.603   8.497   0.428 -0.1406 -0.4160 -2.2349
37805SOL     OW22192   9.898  10.493   1.202  0.3752  0.5141  0.2435
37805SOL    HW122193   9.864  10.540   1.126 -0.0464  0.1523  0.2051
37805SOL    HW222194   9.971  10.547   1.233  3.0804 -1.2046 -2.6516
37806SOL     OW22195   3.581  11.191  12.217  0.0861  0.3789 -0.1051
37806SOL    HW122196   3.553  11.240  12.140  1.6675 -0.2995 -1.1427
37806SOL    HW222197   3.537  11.106  12.209  1.7236 -0.3906 -1.3069
37807SOL     OW22198  10.579  10.437   8.631  0.4253  0.1524 -0.3363
37807SOL    HW122199  10.563  10.531   8.631  0.4599  0.1853  1.0173
37807SOL    HW222200  10.658  10.427   8.684  0.7547 -0.5958 -0.9582
37808SOL     OW22201   0.139   6.875   0.057  0.4072  0.4542  0.5624
37808SOL    HW122202   0.229   6.901   0.076  0.8955  0.1372 -1.0981
37808SOL    HW222203   0.117   6.923  -0.023  0.5583 -2.3977 -1.3432
37809SOL     OW22204   7.224   5.883  10.822  0.3177 -0.2266  0.6088
37809SOL    HW122205   7.250   5.889  10.730 -1.5819 -2.0079 -0.1110
37809SOL    HW222206   7.156   5.949  10.831  0.5580  0.0004  0.7644
37810SOL     OW22207   5.757   2.746   3.306  0.3507 -0.0577  0.1964
37810SOL    HW122208   5.834   2.722   3.255 -0.1398  1.5824 -1.3865
37810SOL    HW222209   5.769   2.839   3.327 -0.7652 -0.0074  0.7214
37811SOL     OW22210   4.593   0.243   1.970 -0.1505  0.3458 -0.5059
37811SOL    HW122211   4.646   0.188   2.028  0.1332 -0.7406 -1.7369
37811SOL    HW222212   4.519   0.271   2.024  1.3934  1.5097  1.1148
37812SOL     OW22213   6.669   9.073  11.946  0.0250 -0.5929  0.2169
37812SOL    HW122214   6.652   8.984  11.975  0.5403 -0.6466  0.3628
37812SOL    HW222215   6.764   9.077  11.933  0.0837  0.0834  0.7444
37813SOL     OW22216   8.444  10.726   7.996 -0.2463  0.0137  0.0786
37813SOL    HW122217   8.538  10.710   7.987 -0.1372  1.1131 -0.9517
37813SOL    HW222218   8.424  10.789   7.927 -1.8261 -0.5196  0.0139
37814SOL     OW22219   8.492   8.280   0.217 -0.2021 -0.1659 -0.3786
37814SOL    HW122220   8.477   8.186   0.212  1.2710 -0.4626  0.4398
37814SOL    HW222221   8.448   8.308   0.298 -0.1501 -0.2485 -0.3222
37815SOL     OW22222   1.558   3.653   1.781 -0.2802 -0.0336 -0.4716
37815SOL    HW122223   1.583   3.701   1.703  0.2079  1.1141  0.3704
37815SOL    HW222224   1.632   3.595   1.799  0.9920  1.9185  0.8699
37816SOL     OW22225   7.274  11.879   1.881 -0.2911  0.1551  0.4352
37816SOL    HW122226   7.320  11.963   1.884 -0.1466  0.0653  0.8373
37816SOL    HW222227   7.190  11.900   1.840  0.6325  0.0566 -1.6244
37817SOL     OW22228   8.344  10.503   0.241  0.3781  0.3161 -0.1850
37817SOL    HW122229   8.345  10.532   0.150 -0.4822  0.2444 -0.2321
37817SOL    HW222230   8.297  10.420   0.238 -0.2262  0.6303  0.4023
37818SOL     OW22231   3.665   1.325  11.209  0.0945 -0.3707 -0.2584
37818SOL    HW122232   3.707   1.402  11.172 -1.0731  0.0602 -0.7228
37818SOL    HW222233   3.644   1.351  11.299  0.6673 -0.5346 -0.0735
37819SOL     OW22234   2.824   0.513   6.312  0.0655  0.3327 -0.0680
37819SOL    HW122235   2.914   0.515   6.279  0.0302 -0.5010 -0.2406
37819SOL    HW222236   2.830   0.551   6.400  1.0886 -2.0568  0.9975
37820SOL     OW22237   8.594   7.099   5.483 -0.2643  0.0166  0.2631
37820SOL    HW122238   8.520   7.157   5.506  0.6376  1.0227  0.7198
37820SOL    HW222239   8.609   7.047   5.562 -0.3507 -0.0512  0.2359
37821SOL     OW22240   0.155   0.934  10.441 -0.3935 -0.3882 -0.1788
37821SOL    HW122241   0.060   0.937  10.444 -0.4181 -0.2289 -0.9071
37821SOL    HW222242   0.175   0.859  10.384 -0.0881 -0.2682 -0.2323
37822SOL     OW22243   8.719   0.431   0.163 -0.6071  0.3052  0.0723
37822SOL    HW122244   8.808   0.449   0.134 -0.4978  0.3771  0.4503
37822SOL    HW222245   8.671   0.410   0.082 -0.1084 -0.3403 -0.0669
37823SOL     OW22246   1.465   1.471   6.073  0.5068  0.4016 -0.6704
37823SOL    HW122247   1.491   1.463   5.981  1.8300 -2.5331 -0.1486
37823SOL    HW222248   1.380   1.516   6.069 -1.0476 -2.3370 -3.6420
37824SOL     OW22249   7.117   3.051   3.401 -0.0457  0.2712 -0.0550
37824SOL    HW122250   7.037   3.099   3.422 -0.0179  0.2991 -0.0131
37824SOL    HW222251   7.138   3.005   3.482  0.8976  1.5571  0.4636
37825SOL     OW22252   0.640  12.546   2.188  0.3533  0.1805 -0.1572
37825SOL    HW122253   0.678  12.591   2.113  0.7432 -0.9283 -0.6362
37825SOL    HW222254   0.547  12.567   2.184  0.3671  0.1205 -0.9643
37826SOL     OW22255   7.486   8.464   3.184  0.1786 -0.0271  0.2106
37826SOL    HW122256   7.441   8.446   3.266 -0.5776  0.5267 -0.0740
37826SOL    HW222257   7.471   8.557   3.168  1.2181  0.1174 -0.0225
37827SOL     OW22258   1.816  10.215   5.232 -0.0121 -0.1156 -0.3200
37827SOL    HW122259   1.883  10.206   5.299  1.0245  1.0126 -1.1780
37827SOL    HW222260   1.862  10.206   5.149 -1.1873 -0.9361 -0.9195
37828SOL     OW22261   7.546   4.145   1.392  0.1618  0.3021 -0.2761
37828SOL    HW122262   7.540   4.171   1.300  2.5431 -0.8191 -0.8236
37828SOL    HW222263   7.640   4.144   1.411 -0.2557  0.2307  2.1093
37829SOL     OW22264   6.065   2.591   7.926 -0.0418 -0.6078 -0.3303
37829SOL    HW122265   6.041   2.668   7.977 -2.0697 -2.1583  1.2274
37829SOL    HW222266   6.113   2.535   7.987  0.5556 -1.0374 -1.1621
37830SOL     OW22267   8.060  11.428  11.440  0.0594 -0.0320  0.7148
37830SOL    HW122268   7.965  11.429  11.454 -0.4567 -0.9663 -2.1033
37830SOL    HW222269   8.081  11.335  11.428  1.1486  0.2561  0.2933
37831SOL     OW22270  12.451   1.277   5.981 -0.2070  0.3107  0.2806
37831SOL    HW122271  12.395   1.346   5.945  1.3020  1.6660  0.4216
37831SOL    HW222272  12.487   1.315   6.061  0.5329 -0.7074  0.4512
37832SOL     OW22273  11.596   6.023   8.101 -0.4301  0.1521  0.4925
37832SOL    HW122274  11.659   5.986   8.162 -1.6480 -1.4181  0.8804
37832SOL    HW222275  11.635   6.010   8.014 -0.4116 -1.2511  0.6884
37833SOL     OW22276   1.787   0.698   9.153  0.1076  0.1172 -0.2159
37833SOL    HW122277   1.750   0.749   9.081  0.1379 -0.3903 -0.5946
37833SOL    HW222278   1.774   0.754   9.230  1.4634  1.3462 -0.8309
37834SOL     OW22279   5.321   5.448   2.328 -0.8830  0.2929  0.0513
37834SOL    HW122280   5.403   5.414   2.291 -0.1767 -0.0454  1.8140
37834SOL    HW222281   5.327   5.543   2.318 -1.0248  0.1802 -1.2626
37835SOL     OW22282   3.260   8.808   0.437  0.5360 -0.1529 -0.0041
37835SOL    HW122283   3.236   8.853   0.518  0.2906  0.0970 -0.2130
37835SOL    HW222284   3.322   8.741   0.464 -0.2378 -0.6738  0.5213
37836SOL     OW22285   1.707  11.563   1.938 -0.3076  0.2635  0.7880
37836SOL    HW122286   1.639  11.496   1.940 -0.3388  0.1489 -1.7156
37836SOL    HW222287   1.788  11.515   1.923  0.4189  0.4199  3.5471
37837SOL     OW22288   8.202   5.552   5.048 -0.2176 -0.0999  0.3997
37837SOL    HW122289   8.232   5.521   4.963  1.2633  0.2645  0.7750
37837SOL    HW222290   8.109   5.527   5.051  0.1275 -1.6107 -0.6167
37838SOL     OW22291   7.265   2.153   1.312 -0.0384  0.4633  0.1547
37838SOL    HW122292   7.291   2.227   1.257  0.9154 -0.0548 -0.1199
37838SOL    HW222293   7.335   2.089   1.301 -0.5144 -0.2145  0.9111
37839SOL     OW22294   4.275  10.241   2.720  0.4046  0.5512  0.6066
37839SOL    HW122295   4.321  10.159   2.738 -1.3588 -1.0279 -1.4818
37839SOL    HW222296   4.321  10.278   2.645  1.2412  1.5873  1.5886
37840SOL     OW22297  10.250   7.137   2.038 -0.3617  0.2019  0.5595
37840SOL    HW122298  10.196   7.183   2.102 -0.0908 -0.5874  1.3704
37840SOL    HW222299  10.332   7.185   2.037  0.2485 -0.7474  2.0653
37841SOL     OW22300   8.519   3.196  12.061 -0.1131  0.2282 -0.0586
37841SOL    HW122301   8.529   3.220  11.969  0.2173 -1.1957 -0.4204
37841SOL    HW222302   8.476   3.110  12.059 -0.4477  0.3410  1.1275
37842SOL     OW22303  11.129   3.590  11.591 -0.3588  0.3488 -0.7065
37842SOL    HW122304  11.199   3.611  11.530  1.7883 -0.4411  1.3405
37842SOL    HW222305  11.082   3.673  11.603  1.9228  1.6352 -0.1093
37843SOL     OW22306   0.085   7.390   3.906 -0.0387 -0.7347 -0.0417
37843SOL    HW122307   0.102   7.329   3.834  0.0985 -0.0905 -0.5699
37843SOL    HW222308   0.045   7.337   3.974  0.6605 -1.5301 -0.2470
37844SOL     OW22309   0.225   7.097  10.400  0.8922 -0.3819 -0.5809
37844SOL    HW122310   0.303   7.136  10.360  1.9719  0.2755  1.9758
37844SOL    HW222311   0.177   7.171  10.438  0.2690 -1.0266 -0.0705
37845SOL     OW22312   1.459   3.520   2.928 -0.6675 -0.1219 -0.5091
37845SOL    HW122313   1.458   3.452   2.995  0.6519 -0.8635 -1.2074
37845SOL    HW222314   1.368   3.549   2.922 -0.6334  0.9412  2.5278
37846SOL     OW22315  11.586   1.879   7.520 -0.1756 -0.5885 -0.1144
37846SOL    HW122316  11.679   1.858   7.519  0.2139  1.0242 -0.6822
37846SOL    HW222317  11.542   1.794   7.509  1.1589 -1.5409  1.3324
37847SOL     OW22318   4.323   4.749   8.427  0.1450  0.0012 -0.4488
37847SOL    HW122319   4.404   4.800   8.418 -0.6310  1.4608  0.3923
37847SOL    HW222320   4.257   4.814   8.452 -1.0199 -1.3508  0.1074
37848SOL     OW22321   5.550   4.848   4.136  0.1321 -0.1546  0.4243
37848SOL    HW122322   5.549   4.933   4.180 -0.4689  0.2726 -0.4016
37848SOL    HW222323   5.643   4.824   4.135  0.3624  0.6818  0.3097
37849SOL     OW22324   2.574   0.431   5.947 -0.3409 -0.0439 -0.9935
37849SOL    HW122325   2.595   0.524   5.938  0.9042 -0.1663  0.2373
37849SOL    HW222326   2.511   0.414   5.877 -2.3933  2.2503  0.0981
37850SOL     OW22327   4.458   4.380  11.841  0.3390  0.1902  0.0633
37850SOL    HW122328   4.463   4.285  11.851  1.2100  0.3714  1.6595
37850SOL    HW222329   4.549   4.409  11.836  0.1589  1.0860  1.4084
37851SOL     OW22330   5.764   5.732   9.490 -0.6973 -0.4675  0.0103
37851SOL    HW122331   5.724   5.651   9.523 -0.3696 -0.4447  0.4808
37851SOL    HW222332   5.693   5.796   9.491 -1.2262 -0.9929 -1.3388
37852SOL     OW22333   2.060   9.865   9.377  0.2744 -0.6007  0.1693
37852SOL    HW122334   2.110   9.900   9.304  0.2420  0.5411  0.6774
37852SOL    HW222335   1.984   9.824   9.336  0.1105  0.2707 -0.4305
37853SOL     OW22336  12.005  10.446   5.490 -0.1413 -0.4450 -0.0169
37853SOL    HW122337  12.005  10.367   5.545  1.6297  0.6370  1.6433
37853SOL    HW222338  12.062  10.424   5.416 -0.5897 -1.1041 -0.1716
37854SOL     OW22339  10.243   2.005   7.363  0.5481  0.5127  0.1656
37854SOL    HW122340  10.199   2.034   7.283 -1.2611 -0.1006  0.8983
37854SOL    HW222341  10.207   1.918   7.380 -0.0341  1.1274  2.3116
37855SOL     OW22342   4.816   3.717   6.815 -0.4286  0.0322  0.3375
37855SOL    HW122343   4.798   3.751   6.903 -0.8611  0.1006  0.2279
37855SOL    HW222344   4.863   3.635   6.829 -1.5010 -0.5464  0.6643
37856SOL     OW22345   6.076   3.063  11.637  0.2907 -0.3632  0.7360
37856SOL    HW122346   6.021   3.012  11.696 -0.2048 -1.2951 -0.5069
37856SOL    HW222347   6.158   3.075  11.686  0.0198 -1.3937  1.4836
37857SOL     OW22348   0.914   7.183   7.390  0.3901  0.8160  0.4740
37857SOL    HW122349   0.906   7.234   7.471 -1.9899  2.1715 -0.4991
37857SOL    HW222350   0.844   7.117   7.396 -0.6479  1.7290 -0.9486
37858SOL     OW22351   8.365   0.627   2.386  1.0109  0.0551  0.0601
37858SOL    HW122352   8.345   0.588   2.471 -2.3512  0.2686 -0.4774
37858SOL    HW222353   8.461   0.628   2.381  1.2974 -3.1231  2.3423
37859SOL     OW22354   2.981  11.450   3.263  0.2796 -0.3197  0.4080
37859SOL    HW122355   3.068  11.413   3.284  1.2207 -0.0928 -2.6152
37859SOL    HW222356   2.921  11.376   3.275  1.1608 -1.0050  0.7745
37860SOL     OW22357   5.255   1.984   2.226  0.0091  0.5886  0.0077
37860SOL    HW122358   5.269   2.079   2.229 -3.1980  1.2293 -1.0081
37860SOL    HW222359   5.160   1.974   2.222  0.2259 -2.7198  0.2437
37861SOL     OW22360   7.143  11.864   1.374  0.7243  0.0522  0.1497
37861SOL    HW122361   7.084  11.931   1.408  2.5103  0.7895  1.9594
37861SOL    HW222362   7.199  11.911   1.312 -1.2084 -0.8891 -2.5478
37862SOL     OW22363   9.101   1.557  11.551 -0.2813  0.1805 -0.1679
37862SOL    HW122364   9.193   1.536  11.567 -0.4893 -0.5284  0.1516
37862SOL    HW222365   9.098   1.653  11.552  0.8369  0.2963 -2.4630
37863SOL     OW22366   3.886   1.916   3.705 -0.5929  0.1415  0.0917
37863SOL    HW122367   3.860   1.945   3.793 -0.0965  0.0310  0.2762
37863SOL    HW222368   3.976   1.945   3.697 -0.9904  1.1781 -0.8278
37864SOL     OW22369  11.845   2.394   5.581 -0.2672 -0.6187  0.2854
37864SOL    HW122370  11.846   2.388   5.677 -1.4357  0.1322  0.3635
37864SOL    HW222371  11.937   2.403   5.556  0.0113 -0.3530  1.3672
37865SOL     OW22372   4.119   0.046   8.800  0.1287 -0.2604 -0.0220
37865SOL    HW122373   4.096   0.119   8.743 -0.9025  0.1671  0.9026
37865SOL    HW222374   4.193   0.003   8.756  0.5369  1.1282 -0.7513
37866SOL     OW22375   8.701   1.944   4.204  0.4761 -0.9385  0.6797
37866SOL    HW122376   8.615   1.902   4.207  0.2223 -0.4926 -0.1376
37866SOL    HW222377   8.714   1.968   4.112  0.3348  1.2986  1.1817
37867SOL     OW22378   2.668   6.749   5.876 -0.5686 -0.4214  0.4404
37867SOL    HW122379   2.703   6.681   5.818  0.9521  0.3945  0.3388
37867SOL    HW222380   2.688   6.719   5.964  0.0044 -0.1682  0.3998
37868SOL     OW22381   6.374   4.411   5.931 -0.6139 -0.1982  0.2403
37868SOL    HW122382   6.425   4.484   5.966 -0.5938 -0.2806  0.3823
37868SOL    HW222383   6.422   4.333   5.958 -1.2022 -0.3074  1.0102
37869SOL     OW22384   6.513   7.424   2.814 -0.2976 -0.6702  1.0315
37869SOL    HW122385   6.507   7.333   2.787  0.9009 -0.7705  1.0275
37869SOL    HW222386   6.444   7.469   2.766  0.7343 -1.1203 -0.9620
37870SOL     OW22387   5.344  11.765  10.982 -0.4882  0.1416  0.6076
37870SOL    HW122388   5.407  11.807  11.040 -0.8156 -1.5580  2.2990
37870SOL    HW222389   5.264  11.757  11.035 -1.0922 -0.6237 -0.3840
37871SOL     OW22390  10.931   1.192  11.067 -0.0010  0.1520 -0.2274
37871SOL    HW122391  10.860   1.164  11.009  0.1238 -2.3290  0.7121
37871SOL    HW222392  10.904   1.280  11.096 -1.5527  0.1947 -1.6311
37872SOL     OW22393   5.616   4.610   2.462  0.1061  0.0404 -0.2749
37872SOL    HW122394   5.569   4.602   2.379  0.2831 -0.6419 -0.3136
37872SOL    HW222395   5.639   4.703   2.468 -2.8743  0.8468  0.6271
37873SOL     OW22396   6.841   4.499   6.646 -0.2549 -0.1308  0.2807
37873SOL    HW122397   6.912   4.563   6.640 -0.0442 -0.1931  1.6580
37873SOL    HW222398   6.876   4.431   6.704 -1.7917  0.3283  1.8153
37874SOL     OW22399   5.548   1.437   0.956  0.4969  0.2476 -0.0433
37874SOL    HW122400   5.641   1.416   0.955 -0.0501 -2.6357 -1.2614
37874SOL    HW222401   5.525   1.439   1.049  1.6436  0.4411  0.2527
37875SOL     OW22402  12.333   2.459   4.022  0.4092 -0.3032 -0.4775
37875SOL    HW122403  12.369   2.374   3.996  1.6428  0.1070 -0.1836
37875SOL    HW222404  12.391   2.489   4.092 -0.7789  0.2055  0.3048
37876SOL     OW22405   3.110   3.753   4.471  0.0930 -0.1685 -0.4232
37876SOL    HW122406   3.106   3.841   4.434 -0.8253 -0.1468 -0.2873
37876SOL    HW222407   3.082   3.695   4.400 -1.6594 -0.1279  0.1943
37877SOL     OW22408   2.912   6.445   8.074  0.1544  0.4337 -0.4790
37877SOL    HW122409   2.897   6.537   8.099 -0.3887  0.5037 -1.0332
37877SOL    HW222410   3.007   6.436   8.073  0.2151  1.0002 -0.4432
37878SOL     OW22411   6.589  11.844   7.279 -0.0836 -0.1042 -0.6473
37878SOL    HW122412   6.658  11.903   7.251 -0.5346  0.9749  0.4262
37878SOL    HW222413   6.604  11.834   7.374 -1.3562  0.0903 -0.4167
37879SOL     OW22414   8.097  10.262   1.781  0.2117  0.1173 -0.3188
37879SOL    HW122415   8.099  10.168   1.768  0.5737  0.1144 -0.2596
37879SOL    HW222416   8.074  10.273   1.873 -0.9742  0.1117 -0.6006
37880SOL     OW22417   6.235   4.616   9.004 -0.3323 -0.0321 -0.1916
37880SOL    HW122418   6.188   4.587   8.926  0.3752  0.9462 -0.9937
37880SOL    HW222419   6.260   4.534   9.048  1.2938 -0.7125 -2.1978
37881SOL     OW22420   3.572   4.317   1.750 -0.1544 -0.2091 -0.2091
37881SOL    HW122421   3.647   4.348   1.698 -0.3040 -1.4683 -1.2221
37881SOL    HW222422   3.590   4.224   1.763 -0.4547 -0.0540  1.4772
37882SOL     OW22423  12.320  12.095   8.798  0.0224 -0.0414 -0.3315
37882SOL    HW122424  12.339  12.001   8.808 -3.0984 -0.6225  1.5427
37882SOL    HW222425  12.394  12.139   8.840  0.8469 -1.7384  0.0787
37883SOL     OW22426   5.702  10.932   8.382 -0.0590  0.3544  0.1291
37883SOL    HW122427   5.762  10.925   8.456 -0.5932 -1.2494  0.4714
37883SOL    HW222428   5.649  10.852   8.387 -0.5862  0.5500 -1.5725
37884SOL     OW22429   2.425   4.280   5.172 -0.0320 -0.0643  0.2915
37884SOL    HW122430   2.504   4.319   5.210 -1.0353  2.6215 -0.1545
37884SOL    HW222431   2.358   4.290   5.239 -0.7468  0.6203 -0.5014
37885SOL     OW22432   4.362   6.172   1.522 -0.0026  0.3647 -0.5973
37885SOL    HW122433   4.352   6.237   1.591 -3.1197  0.1971 -0.7225
37885SOL    HW222434   4.397   6.095   1.567 -0.7195  0.6871  0.5625
37886SOL     OW22435   6.982   0.566   4.855 -0.0734 -0.1828  0.6331
37886SOL    HW122436   6.918   0.515   4.805 -3.5142  1.3832  2.9772
37886SOL    HW222437   7.043   0.501   4.890 -0.9415 -1.9336 -0.9254
37887SOL     OW22438   4.651   3.186   7.631 -0.5374 -0.5345 -0.0797
37887SOL    HW122439   4.612   3.107   7.594 -0.8103 -0.6281  0.4012
37887SOL    HW222440   4.586   3.218   7.694  0.7760 -1.5884  1.9403
37888SOL     OW22441  11.207   6.368   9.453  0.7491 -0.2430 -0.4067
37888SOL    HW122442  11.126   6.321   9.433  0.6708  0.6460 -2.3416
37888SOL    HW222443  11.275   6.301   9.451  0.2278 -0.8043  0.1216
37889SOL     OW22444  10.406   8.042   1.979 -0.2427 -0.3544 -0.3390
37889SOL    HW122445  10.337   8.106   1.962 -0.3402  0.0234  1.3505
37889SOL    HW222446  10.433   8.013   1.892 -1.0606  1.0506 -1.0999
37890SOL     OW22447   5.524  10.457   9.243  0.1337  0.7388 -0.1851
37890SOL    HW122448   5.461  10.386   9.258 -0.2229  0.8346 -1.1625
37890SOL    HW222449   5.472  10.527   9.204 -0.0964  2.6305  3.1135
37891SOL     OW22450  12.065   6.999   3.526 -0.3840  0.3316 -0.4501
37891SOL    HW122451  12.024   7.007   3.440 -0.7273 -0.2035 -0.3389
37891SOL    HW222452  12.126   6.925   3.516 -1.7482 -0.9418  0.2650
37892SOL     OW22453   2.167   7.779  10.619 -0.1999 -0.1122 -0.2832
37892SOL    HW122454   2.202   7.715  10.682 -1.0930 -0.9449 -0.6067
37892SOL    HW222455   2.122   7.726  10.554 -0.7005  0.8445 -0.7341
37893SOL     OW22456  10.699  12.517   1.629 -0.5257 -0.2351 -0.5001
37893SOL    HW122457  10.652  12.434   1.625  0.1026 -0.5613 -1.7387
37893SOL    HW222458  10.773  12.501   1.688  0.0811 -0.8279 -1.4080
37894SOL     OW22459   6.930   5.110   8.615  0.4236 -0.0357 -0.6162
37894SOL    HW122460   6.859   5.121   8.550  0.7173  0.0138 -0.9304
37894SOL    HW222461   7.010   5.130   8.566  0.6090  0.4247 -0.1215
37895SOL     OW22462   0.866   0.596   0.612 -0.4099 -0.6227  0.0403
37895SOL    HW122463   0.790   0.582   0.669  0.1034 -1.6187  0.5118
37895SOL    HW222464   0.828   0.612   0.526 -1.1863  0.4176  0.5571
37896SOL     OW22465   6.011  11.800   6.513  0.5121  0.2093 -0.2058
37896SOL    HW122466   6.038  11.891   6.500  0.0657  0.1811 -1.4068
37896SOL    HW222467   6.061  11.771   6.589  1.6681  1.0481 -0.6289
37897SOL     OW22468   6.180   0.136   1.752 -0.4199  0.6072 -0.4035
37897SOL    HW122469   6.194   0.085   1.673  1.8869 -0.0825  0.3794
37897SOL    HW222470   6.130   0.212   1.722 -0.8929 -0.3532 -2.2258
37898SOL     OW22471   3.090   3.414   1.739  0.1157 -0.0340  0.2131
37898SOL    HW122472   2.995   3.412   1.732  0.0815  1.7532 -0.2396
37898SOL    HW222473   3.111   3.340   1.796 -1.5794 -0.1705  0.7180
37899SOL     OW22474   4.213   4.985   9.016 -0.2710 -0.3871 -0.4020
37899SOL    HW122475   4.282   4.945   9.069 -1.5774 -2.2225 -0.0075
37899SOL    HW222476   4.261   5.026   8.943  1.3710  0.1864  0.9242
37900SOL     OW22477   3.788   7.192   5.515  0.0374  0.1102  0.2599
37900SOL    HW122478   3.829   7.203   5.429 -0.1068 -0.0012  0.1760
37900SOL    HW222479   3.748   7.277   5.534 -0.0192  0.1033  0.1699
37901SOL     OW22480   9.427   8.547  11.429  1.0758  0.3243 -0.0718
37901SOL    HW122481   9.341   8.505  11.440  0.2663  2.0575  0.6595
37901SOL    HW222482   9.447   8.536  11.336  0.8865 -1.5452  0.0539
37902SOL     OW22483   4.468   0.801   3.913  0.5846  0.1810 -0.1256
37902SOL    HW122484   4.544   0.743   3.918 -0.0142 -0.8127 -1.9158
37902SOL    HW222485   4.480   0.851   3.833 -0.2972  0.5436 -0.0479
37903SOL     OW22486   0.735  11.694   8.944 -0.1924  0.5976 -0.5522
37903SOL    HW122487   0.765  11.603   8.942  0.4362  0.7808  0.0891
37903SOL    HW222488   0.669  11.696   9.014 -0.6276  0.5194 -0.9532
37904SOL     OW22489  11.334   3.101   8.685  0.0785 -0.3389  0.4053
37904SOL    HW122490  11.418   3.147   8.687 -1.6455  3.1388  0.8051
37904SOL    HW222491  11.337   3.042   8.761  1.3888  1.3186  1.7371
37905SOL     OW22492   8.942   3.960   2.299 -0.4428 -0.1051  0.7605
37905SOL    HW122493   8.963   3.896   2.366 -2.1837 -1.6434 -0.0841
37905SOL    HW222494   9.015   3.956   2.238 -0.1721 -0.7114  1.1186
37906SOL     OW22495   4.334   1.722   6.296  0.1352 -0.1393  0.5291
37906SOL    HW122496   4.384   1.656   6.249 -0.9125 -0.1760 -0.5802
37906SOL    HW222497   4.249   1.681   6.314 -0.8443  1.1124 -0.9021
37907SOL     OW22498   1.001   0.218   6.824 -0.3690 -0.4432 -0.1040
37907SOL    HW122499   0.997   0.213   6.729 -0.1245  1.5585 -0.2553
37907SOL    HW222500   1.031   0.307   6.843  0.7789 -1.1609  1.8263
37908SOL     OW22501   5.253   1.412   8.694 -0.3556 -0.1300  0.6318
37908SOL    HW122502   5.243   1.450   8.781 -0.2184  1.7788 -0.1529
37908SOL    HW222503   5.167   1.374   8.675 -0.7435  0.4720  1.1392
37909SOL     OW22504   0.970   7.765   6.845  0.5136  0.4434 -0.6744
37909SOL    HW122505   1.014   7.850   6.836  0.9212  0.2218 -0.8160
37909SOL    HW222506   0.889   7.784   6.893  1.5357  0.6360  1.0708
37910SOL     OW22507   6.621   3.577   6.188  0.5364  0.1629  0.4208
37910SOL    HW122508   6.711   3.604   6.173  0.2575  1.2751  0.6663
37910SOL    HW222509   6.584   3.566   6.100  0.5938  0.8341  0.3068
37911SOL     OW22510   1.845   2.859   7.810 -0.4132 -0.3681 -0.0264
37911SOL    HW122511   1.768   2.804   7.822 -2.2650  2.0293 -0.2332
37911SOL    HW222512   1.811   2.943   7.782  2.0549  1.7064  2.5985
37912SOL     OW22513   7.883  10.201   9.408 -0.2295  0.0881 -0.1324
37912SOL    HW122514   7.948  10.188   9.338 -1.5703  0.4210 -1.4733
37912SOL    HW222515   7.936  10.209   9.488  1.2632 -3.7518 -0.4907
37913SOL     OW22516   4.372   3.764   3.395 -0.9840  0.4367 -0.6327
37913SOL    HW122517   4.451   3.751   3.342 -1.1045  0.1806 -0.7529
37913SOL    HW222518   4.384   3.850   3.434 -0.9182  0.6558 -1.1241
37914SOL     OW22519   0.619   4.800  12.095  0.9396 -0.1830  0.5217
37914SOL    HW122520   0.711   4.825  12.110  1.3921 -1.1103 -0.5613
37914SOL    HW222521   0.619   4.760  12.008 -0.4062 -0.6847  0.7316
37915SOL     OW22522   1.331   7.768   5.845 -0.5465 -0.1138 -0.2818
37915SOL    HW122523   1.286   7.793   5.926 -0.4374  0.3987 -0.3696
37915SOL    HW222524   1.424   7.787   5.863 -0.2365 -1.9385  0.1941
37916SOL     OW22525  11.763  12.287   5.135  0.0974 -0.3438 -0.1356
37916SOL    HW122526  11.688  12.231   5.150 -2.0996  2.2708 -0.4834
37916SOL    HW222527  11.775  12.334   5.218  1.0089 -0.3711 -0.2447
37917SOL     OW22528  11.586   5.530   5.595  0.1521 -0.5475  0.3732
37917SOL    HW122529  11.612   5.622   5.597  0.3754 -0.5633 -1.0601
37917SOL    HW222530  11.495   5.531   5.566  0.4932 -0.8129 -0.7780
37918SOL     OW22531   3.936   3.882   0.891 -0.2156 -0.1835  0.0415
37918SOL    HW122532   3.865   3.837   0.937  0.0617 -0.3621  0.2969
37918SOL    HW222533   4.012   3.825   0.902  0.1721  0.4061  0.4717
37919SOL     OW22534   7.578   0.254   6.818 -0.0736 -0.2139 -0.0722
37919SOL    HW122535   7.523   0.326   6.787  3.4493  2.9251  0.1984
37919SOL    HW222536   7.582   0.265   6.913 -0.0649 -1.2673  0.0673
37920SOL     OW22537   2.508  10.756   6.730 -0.6118 -0.0887 -0.7245
37920SOL    HW122538   2.542  10.667   6.736 -0.8506 -0.1291  0.1682
37920SOL    HW222539   2.462  10.758   6.646  0.9610 -0.2318 -1.6195
37921SOL     OW22540   6.062   9.684   9.449 -0.2703  0.1108 -0.3075
37921SOL    HW122541   6.023   9.753   9.396 -1.3370 -0.1442  0.1237
37921SOL    HW222542   6.010   9.683   9.529  1.9335  1.1833  1.2294
37922SOL     OW22543   4.144  11.206   5.736  0.4348  0.2069  0.2513
37922SOL    HW122544   4.083  11.279   5.739  0.7356  0.4673  0.1586
37922SOL    HW222545   4.101  11.135   5.784 -0.5060 -0.0456 -0.9281
37923SOL     OW22546  11.163  10.404  11.777  0.1646 -0.0007  0.4174
37923SOL    HW122547  11.214  10.360  11.708  0.2020  0.0100  0.4378
37923SOL    HW222548  11.115  10.473  11.732 -1.6762 -1.4853 -0.0153
37924SOL     OW22549  11.490  11.757   7.767 -0.1854  0.1603 -0.2711
37924SOL    HW122550  11.508  11.783   7.676  0.6372  2.8447  0.5730
37924SOL    HW222551  11.427  11.822   7.798 -1.3631 -1.4193  0.7828
37925SOL     OW22552  12.606   3.325   6.928  0.5079  0.1006 -0.6683
37925SOL    HW122553  12.656   3.350   6.850 -0.2678  0.5151 -1.0406
37925SOL    HW222554  12.646   3.376   6.999 -0.0727  1.2785 -1.1563
37926SOL     OW22555   8.361   1.055   4.452 -0.0415 -0.1894 -0.0946
37926SOL    HW122556   8.381   1.149   4.441 -2.0815  0.0920 -2.3625
37926SOL    HW222557   8.266   1.051   4.453  0.0098 -2.1962  1.0009
37927SOL     OW22558  11.219   2.552   0.955 -0.2080  0.5967  0.1822
37927SOL    HW122559  11.140   2.516   0.995  1.3060 -2.6041  0.6361
37927SOL    HW222560  11.201   2.552   0.861 -0.1726 -2.0440  0.0882
37928SOL     OW22561   9.976  11.062  11.804 -0.2017 -0.0422 -0.3595
37928SOL    HW122562   9.999  11.034  11.716  0.0898  0.5164 -0.4614
37928SOL    HW222563   9.897  11.012  11.825  0.2263 -0.8317 -0.5932
37929SOL     OW22564  12.410   8.138   0.348 -0.2956  0.0559 -0.0935
37929SOL    HW122565  12.467   8.093   0.411 -0.7697  0.5534  0.7138
37929SOL    HW222566  12.351   8.069   0.317  2.7988 -1.3811 -3.6213
37930SOL     OW22567   6.329   4.333   0.333 -0.0506 -0.5810 -0.1060
37930SOL    HW122568   6.281   4.319   0.415 -1.6273 -0.1849 -0.9193
37930SOL    HW222569   6.389   4.259   0.327  2.0481  0.7239  2.6832
37931SOL     OW22570   0.087   7.980   7.559  0.5061 -0.1789  0.2081
37931SOL    HW122571   0.045   7.935   7.633  0.1560 -2.9180 -1.5390
37931SOL    HW222572   0.026   7.968   7.486  1.7254  0.7725 -1.0209
37932SOL     OW22573   7.219  12.276   3.203 -0.0319  0.5016 -0.1026
37932SOL    HW122574   7.239  12.197   3.253 -1.3087  0.6542  0.7025
37932SOL    HW222575   7.303  12.304   3.166  0.3728 -1.4263 -0.7154
37933SOL     OW22576   4.219  11.644   7.797 -0.0339 -0.6931 -0.0540
37933SOL    HW122577   4.242  11.652   7.890  0.1546 -1.2242 -0.0529
37933SOL    HW222578   4.129  11.677   7.792  1.1716  3.0576 -0.3396
37934SOL     OW22579  10.221   1.185   2.266  0.0823  0.2191  0.1672
37934SOL    HW122580  10.140   1.199   2.315 -0.3130 -0.0070 -0.4139
37934SOL    HW222581  10.235   1.090   2.270  0.8509  0.3586  1.0968
37935SOL     OW22582  10.857   7.194   1.552 -0.2257 -0.1836 -0.4001
37935SOL    HW122583  10.763   7.203   1.566 -0.5609  0.6119 -2.7153
37935SOL    HW222584  10.865   7.129   1.482  1.0036 -0.8487  0.3319
37936SOL     OW22585   1.638   3.897   5.721  0.0828  0.2734  0.1729
37936SOL    HW122586   1.570   3.832   5.704  0.3071  0.2959 -0.8879
37936SOL    HW222587   1.592   3.981   5.716  0.5180  0.4391 -2.7841
37937SOL     OW22588   3.082  10.290   4.492 -0.4174 -0.0818 -0.1124
37937SOL    HW122589   3.024  10.295   4.416 -0.0309 -0.3965 -0.4347
37937SOL    HW222590   3.164  10.330   4.462  0.1125 -1.2249 -0.2350
37938SOL     OW22591   3.459   3.031   0.749 -0.3128  0.0753 -0.1550
37938SOL    HW122592   3.379   3.033   0.696  0.3596 -0.4399 -1.2357
37938SOL    HW222593   3.461   3.116   0.792 -1.7536 -0.1294  0.3808
37939SOL     OW22594   2.723   2.567   4.008  0.0284  0.0605  0.0063
37939SOL    HW122595   2.778   2.550   3.931 -1.0472  0.2798 -0.8463
37939SOL    HW222596   2.674   2.486   4.021 -1.1070  0.6054 -0.6795
37940SOL     OW22597   3.147   5.996  11.189 -0.2982 -0.1866  0.0531
37940SOL    HW122598   3.116   6.009  11.279  2.3442  1.5301  0.8289
37940SOL    HW222599   3.074   6.027  11.134 -1.8323 -0.9537  1.5519
37941SOL     OW22600  11.211   4.357   4.639  0.3565  0.3910 -0.1650
37941SOL    HW122601  11.266   4.297   4.588  0.9624  0.2195  0.6561
37941SOL    HW222602  11.127   4.313   4.646  0.7144 -0.2514  0.2044
37942SOL     OW22603   0.226   8.540   9.624  0.0820  0.1937 -0.2650
37942SOL    HW122604   0.174   8.476   9.673  1.1027  0.1887  0.8407
37942SOL    HW222605   0.252   8.493   9.544 -1.6367  0.2221 -0.8857
37943SOL     OW22606   7.865  10.970   1.920  0.3230  0.3334 -0.2890
37943SOL    HW122607   7.837  10.879   1.919  1.1691  0.0588 -0.2430
37943SOL    HW222608   7.931  10.974   1.989  0.2917  0.9814 -0.2884
37944SOL     OW22609   9.380   3.790   7.693 -0.7696 -0.2163 -0.2904
37944SOL    HW122610   9.409   3.795   7.602  0.0529  2.3050  0.0342
37944SOL    HW222611   9.284   3.788   7.687 -0.7166 -1.1374 -1.1913
37945SOL     OW22612  11.147   6.494   7.446 -0.1018  0.3734  0.4656
37945SOL    HW122613  11.180   6.481   7.357 -0.7142  1.0097  0.1349
37945SOL    HW222614  11.191   6.574   7.476 -0.9430  0.9593  0.1954
37946SOL     OW22615  11.903  12.103   8.406 -0.4855 -0.4952  0.0287
37946SOL    HW122616  11.950  12.034   8.361  0.3837  0.3693 -0.4277
37946SOL    HW222617  11.947  12.184   8.380 -1.1858  0.1991  0.9023
37947SOL     OW22618   2.533  11.502   8.252  0.0057  0.2523  0.7671
37947SOL    HW122619   2.590  11.484   8.327  1.2342  1.2597  0.1174
37947SOL    HW222620   2.553  11.593   8.229  1.0026 -0.5360 -1.8759
37948SOL     OW22621  11.182   4.171   5.179 -0.3911 -0.4783 -0.2412
37948SOL    HW122622  11.166   4.077   5.167 -2.2291  0.1289 -4.6282
37948SOL    HW222623  11.274   4.183   5.153 -0.5310 -0.9701 -1.0158
37949SOL     OW22624   9.167   6.865  11.518 -0.8724  0.0549  0.5061
37949SOL    HW122625   9.232   6.818  11.570 -0.5352  0.5065  0.4978
37949SOL    HW222626   9.087   6.861  11.570 -0.5154  0.5871  1.1143
37950SOL     OW22627   7.182   7.809   4.617 -0.4262  0.2113 -0.6093
37950SOL    HW122628   7.092   7.779   4.602 -0.2305 -0.3827 -0.6014
37950SOL    HW222629   7.173   7.878   4.683 -0.7083 -1.0050  0.6759
37951SOL     OW22630  12.182   6.763   0.984  0.1870  0.0611  0.4734
37951SOL    HW122631  12.164   6.847   0.942 -2.5355  0.0534  1.4018
37951SOL    HW222632  12.216   6.786   1.070 -0.9976  0.2480  0.9019
37952SOL     OW22633  10.357   4.546   6.223  0.2654  0.0913 -0.4265
37952SOL    HW122634  10.394   4.616   6.169 -1.2349  0.4185 -1.0535
37952SOL    HW222635  10.348   4.472   6.163 -0.9603  0.3105 -0.5356
37953SOL     OW22636   8.735   7.496   2.412  0.3134  0.0088  0.2275
37953SOL    HW122637   8.824   7.464   2.421  0.2603  0.2192  1.7775
37953SOL    HW222638   8.737   7.553   2.336  1.7116  0.6625  0.7223
37954SOL     OW22639  12.145   1.471   3.409 -0.3172  0.2751  0.5460
37954SOL    HW122640  12.241   1.471   3.411 -0.2939  1.4179  0.3439
37954SOL    HW222641  12.119   1.439   3.495  0.2919  2.3174  1.5587
37955SOL     OW22642  10.698   9.340  10.256  0.1062  0.0424  0.5038
37955SOL    HW122643  10.678   9.429  10.283  0.9105  0.4211 -0.0956
37955SOL    HW222644  10.651   9.328  10.174  0.2903  0.0436  0.3979
37956SOL     OW22645   6.631   5.975   0.865  0.4330 -0.0390 -0.0441
37956SOL    HW122646   6.536   5.980   0.856  0.4563  0.9998  0.2244
37956SOL    HW222647   6.651   5.882   0.852 -0.8343 -0.6798  2.1757
37957SOL     OW22648   2.366   2.284   9.917 -0.1435  0.4174  0.1431
37957SOL    HW122649   2.307   2.212   9.893  0.1599 -0.5365  2.0898
37957SOL    HW222650   2.430   2.287   9.845  2.1868 -3.9064  1.6465
37958SOL     OW22651   4.945  12.177   5.793 -0.0876  0.1722  0.4007
37958SOL    HW122652   4.893  12.218   5.724 -1.1513 -1.9501 -0.1229
37958SOL    HW222653   4.885  12.117   5.836  1.7573 -2.0425  0.0948
37959SOL     OW22654   7.054   3.511   5.820  0.2419 -0.0521  0.0638
37959SOL    HW122655   7.037   3.496   5.727 -0.7831  0.8659  0.0810
37959SOL    HW222656   7.100   3.595   5.823 -0.8199  0.5384  0.4456
37960SOL     OW22657   6.963   3.470   6.298  0.3071  0.0372 -0.4633
37960SOL    HW122658   6.959   3.380   6.266 -0.5546 -0.5828  1.2969
37960SOL    HW222659   6.888   3.479   6.356  0.5323  1.8151 -0.3790
37961SOL     OW22660   0.163  11.594   4.410  0.3434  0.5685  0.3274
37961SOL    HW122661   0.155  11.612   4.503  1.2377 -1.0432  0.7417
37961SOL    HW222662   0.090  11.537   4.389  0.2013  0.8446  0.0557
37962SOL     OW22663   2.793   8.436  12.562  0.1368 -0.3917  0.2082
37962SOL    HW122664   2.880   8.433  12.522  0.0176 -0.1195 -0.0815
37962SOL    HW222665   2.733   8.428  12.488 -0.0879 -0.9452  0.4402
37963SOL     OW22666  12.135   9.663   6.816  0.7519 -0.0708 -0.0619
37963SOL    HW122667  12.069   9.729   6.799  0.3014 -0.5101 -0.0297
37963SOL    HW222668  12.217   9.713   6.824  0.2634  0.6004  1.0099
37964SOL     OW22669   0.605   1.372  11.906  0.3593 -0.2068 -0.0641
37964SOL    HW122670   0.579   1.433  11.975 -1.5402  2.0035 -2.5438
37964SOL    HW222671   0.660   1.424  11.848 -0.1684 -1.2422 -1.5407
37965SOL     OW22672   4.462   0.643   8.476  0.1286  0.0060 -0.2115
37965SOL    HW122673   4.419   0.639   8.561 -0.9912  0.6193 -0.7307
37965SOL    HW222674   4.412   0.707   8.426  2.1136  1.3484 -0.5931
37966SOL     OW22675   9.425   6.371   6.723 -0.1738 -0.0428 -0.1150
37966SOL    HW122676   9.514   6.364   6.758  0.4441 -0.7342 -1.7363
37966SOL    HW222677   9.369   6.345   6.795  0.9522  0.0855  0.8414
37967SOL     OW22678   3.027  11.586   1.565  0.2874  0.5469  0.4428
37967SOL    HW122679   3.090  11.627   1.625 -0.0278  0.8278  0.5876
37967SOL    HW222680   3.073  11.581   1.482  0.3873  1.0635  0.4624
37968SOL     OW22681   1.827   2.326   9.636 -0.0534 -0.4183 -0.3004
37968SOL    HW122682   1.780   2.367   9.708 -0.1270 -0.5995 -0.2441
37968SOL    HW222683   1.823   2.232   9.655 -0.4171 -0.4999 -0.7440
37969SOL     OW22684   4.056   0.778   6.252 -0.1732  0.1499  0.1056
37969SOL    HW122685   3.992   0.711   6.275  0.3045 -0.0700  0.8038
37969SOL    HW222686   4.138   0.731   6.241 -0.2272  0.3504 -1.3586
37970SOL     OW22687   0.343   2.500  10.991 -0.2626  0.1282  0.3221
37970SOL    HW122688   0.265   2.487  10.938 -0.9038  0.1211  1.2387
37970SOL    HW222689   0.325   2.453  11.073 -0.0023  1.5030  1.2035
37971SOL     OW22690   3.905  11.281   4.239  0.4790 -0.4814  0.4810
37971SOL    HW122691   3.940  11.370   4.235  0.7425 -0.5961  0.2068
37971SOL    HW222692   3.825  11.289   4.291 -0.3238  0.1766 -0.8168
37972SOL     OW22693   0.947   3.412   6.189  0.2448  0.8194 -0.4958
37972SOL    HW122694   1.018   3.476   6.192  0.3386  0.8092 -1.9298
37972SOL    HW222695   0.869   3.464   6.171  0.1819  0.6287 -0.7778
37973SOL     OW22696   9.582   4.257   3.918 -0.3534 -0.1846  0.2743
37973SOL    HW122697   9.560   4.229   3.829 -1.6716 -0.5687  0.6927
37973SOL    HW222698   9.625   4.181   3.958  2.0210  0.6223 -0.6002
37974SOL     OW22699  11.189   7.649   2.188  0.5475 -0.2616  0.2010
37974SOL    HW122700  11.262   7.688   2.140 -0.9474  0.9043 -1.2725
37974SOL    HW222701  11.156   7.719   2.244 -0.6611 -0.1204 -0.6499
37975SOL     OW22702  10.625   0.808   8.775  0.0144 -0.5536 -0.2523
37975SOL    HW122703  10.625   0.893   8.820 -2.8535 -0.9280  0.6412
37975SOL    HW222704  10.625   0.831   8.682  1.4559  0.3223 -0.0768
37976SOL     OW22705   5.190   6.504  10.316 -0.2298 -0.2010 -0.1089
37976SOL    HW122706   5.150   6.486  10.231 -0.2896 -1.4664  0.1669
37976SOL    HW222707   5.218   6.418  10.348 -0.5996  0.1911  1.3415
37977SOL     OW22708   1.949   3.253   4.670  0.2083  0.4304 -0.0094
37977SOL    HW122709   2.010   3.217   4.734  0.3758  1.6880  0.5656
37977SOL    HW222710   1.964   3.347   4.673 -1.1023  0.6746 -0.5453
37978SOL     OW22711   6.318   2.741  12.369 -0.3428 -0.4252  0.5532
37978SOL    HW122712   6.286   2.807  12.431 -1.4464 -0.0709 -0.3622
37978SOL    HW222713   6.291   2.773  12.283  1.1215 -0.9385 -0.1272
37979SOL     OW22714  10.112   1.375   1.862 -0.0772 -0.0930 -0.2012
37979SOL    HW122715  10.034   1.430   1.874  0.6783  1.5005 -2.0932
37979SOL    HW222716  10.172   1.405   1.930 -0.9696 -1.1675  1.1198
37980SOL     OW22717   7.979   7.107  10.391  0.1033  0.2373 -0.2844
37980SOL    HW122718   7.898   7.080  10.348  0.1507  0.0918 -0.2831
37980SOL    HW222719   7.985   7.201  10.374  0.1099  0.1851 -0.5784
37981SOL     OW22720   5.090   0.913  10.494  0.0675 -0.2130  0.0222
37981SOL    HW122721   5.074   0.819  10.502 -0.5189 -0.1316 -0.1658
37981SOL    HW222722   5.016   0.946  10.442  0.8898  0.1546 -0.9553
37982SOL     OW22723   4.748   7.771   5.505  0.5063  0.2893  0.5655
37982SOL    HW122724   4.719   7.825   5.432  1.3395  1.6573  1.1980
37982SOL    HW222725   4.842   7.760   5.491  0.3804 -0.9017  0.5265
37983SOL     OW22726   7.714   4.015   1.153  0.0028 -0.8334 -0.1382
37983SOL    HW122727   7.687   4.099   1.116  0.7939  0.2954  1.7242
37983SOL    HW222728   7.801   4.031   1.189  0.0914 -2.4042  0.4332
37984SOL     OW22729   7.854  10.009   8.645  0.0826  0.3633  0.0723
37984SOL    HW122730   7.837  10.100   8.666  1.9723  0.6432  0.5199
37984SOL    HW222731   7.829   9.960   8.723 -1.2229  0.4386 -0.2796
37985SOL     OW22732  12.253   0.542   6.151 -0.1764  0.0604 -0.5325
37985SOL    HW122733  12.293   0.537   6.064 -1.3406 -0.0068 -1.0808
37985SOL    HW222734  12.194   0.468   6.155 -2.2548  1.6257 -0.8018
37986SOL     OW22735   7.854   6.894   1.883  0.0710  0.3785  0.1448
37986SOL    HW122736   7.758   6.884   1.879  0.0958  0.1776  0.0070
37986SOL    HW222737   7.873   6.969   1.827  0.0575 -0.0204 -0.3983
37987SOL     OW22738   5.654   2.829   2.068  0.4706  0.5283 -0.1624
37987SOL    HW122739   5.717   2.868   2.008 -0.4623  2.7010  0.1596
37987SOL    HW222740   5.592   2.900   2.087 -2.9024 -1.7749 -1.5297
37988SOL     OW22741   9.687   1.658   4.115  0.3698  0.2368 -0.1270
37988SOL    HW122742   9.623   1.702   4.171  0.9129  0.3458  0.4139
37988SOL    HW222743   9.765   1.650   4.169  0.8673  0.2338 -0.8285
37989SOL     OW22744   0.662   8.004   2.324 -0.0662 -0.0869 -0.5152
37989SOL    HW122745   0.703   7.926   2.286 -0.3285 -1.0872  1.1608
37989SOL    HW222746   0.571   7.977   2.341  0.0409  0.3080  0.8055
37990SOL     OW22747   5.375   2.454   8.884 -0.1043 -0.3250 -0.4207
37990SOL    HW122748   5.433   2.454   8.960 -1.4920 -2.7773  0.7430
37990SOL    HW222749   5.329   2.538   8.889  1.7538  0.7498 -0.1884
37991SOL     OW22750   3.611   1.693   5.617  0.3913  0.1362  0.5768
37991SOL    HW122751   3.623   1.782   5.650  2.3515 -0.1572  0.7909
37991SOL    HW222752   3.689   1.676   5.564  0.9931 -2.0462  1.9912
37992SOL     OW22753   5.098   5.121   1.529 -0.8360  0.6954  0.0047
37992SOL    HW122754   5.028   5.147   1.589  0.5316  0.9981  1.5195
37992SOL    HW222755   5.093   5.025   1.527 -0.7626  0.6676  0.7896
37993SOL     OW22756   4.160   5.319   3.771  0.1976  0.1842 -0.1903
37993SOL    HW122757   4.076   5.274   3.765 -0.0595  0.7349 -0.9334
37993SOL    HW222758   4.223   5.251   3.794 -0.3540 -0.3385 -0.2166
37994SOL     OW22759  10.822   4.886   9.697 -0.1194  0.0372 -0.4610
37994SOL    HW122760  10.743   4.868   9.648  0.9329 -0.3199 -2.0845
37994SOL    HW222761  10.814   4.978   9.723 -0.1183  0.6371 -2.4750
37995SOL     OW22762   8.909  12.368   6.949  0.4356 -0.3660 -0.3780
37995SOL    HW122763   8.994  12.408   6.933 -0.3867  1.8607  0.3476
37995SOL    HW222764   8.921  12.316   7.028  0.4703  2.5809  1.7381
37996SOL     OW22765   3.097   1.855   5.541  0.1638  0.3760  0.6204
37996SOL    HW122766   3.022   1.896   5.583 -0.8054  2.7192 -2.9342
37996SOL    HW222767   3.059   1.799   5.473  1.6375 -1.8021  1.4993
37997SOL     OW22768   9.628   3.759   6.838 -0.5248  0.2151 -0.2436
37997SOL    HW122769   9.674   3.835   6.874  1.2416  0.6384 -3.0451
37997SOL    HW222770   9.567   3.796   6.775  2.6288 -0.4908 -4.1412
37998SOL     OW22771   7.039   6.171   2.164 -1.1663 -0.3714  0.1390
37998SOL    HW122772   7.097   6.209   2.098  0.3581 -2.1817  0.3649
37998SOL    HW222773   6.987   6.106   2.115 -0.3584 -1.3878  0.6160
37999SOL     OW22774   5.844  11.473   4.391 -0.0069 -0.0225  0.3623
37999SOL    HW122775   5.778  11.537   4.368 -0.5741  0.0390  2.0306
37999SOL    HW222776   5.795  11.400   4.430  0.7517 -0.8465 -0.1669
38000SOL     OW22777   9.962   4.908   1.775  0.3955  0.0876  0.0371
38000SOL    HW122778   9.891   4.893   1.836  0.3530 -1.1525 -0.2853
38000SOL    HW222779   9.974   5.003   1.774 -1.6007  0.3743 -0.2929
38001SOL     OW22780  10.164   7.151   9.639  0.0379  0.1296 -0.2338
38001SOL    HW122781  10.080   7.173   9.681  0.0601  1.7310 -0.9613
38001SOL    HW222782  10.139   7.110   9.557 -0.0401  0.4991 -0.3970
38002SOL     OW22783  10.969   0.487   2.981  0.6255 -0.2475 -0.5386
38002SOL    HW122784  10.999   0.398   2.964  1.3785  0.1533 -1.4108
38002SOL    HW222785  10.882   0.477   3.021  0.9164 -1.3712 -0.1603
38003SOL     OW22786  11.393   1.829   7.051  0.1544 -0.4278 -0.5552
38003SOL    HW122787  11.340   1.775   6.992 -2.0074 -0.4899  1.3198
38003SOL    HW222788  11.453   1.767   7.092 -0.8708 -1.0773  0.0098
38004SOL     OW22789   5.110  10.135  10.629  0.2631 -0.0300  0.5643
38004SOL    HW122790   5.073  10.207  10.681 -1.6306  0.2477 -1.0383
38004SOL    HW222791   5.166  10.179  10.564 -2.4008  0.3669 -1.6932
38005SOL     OW22792   1.024   9.136   1.142  0.0388  0.0786  0.2477
38005SOL    HW122793   1.060   9.218   1.177 -1.6485 -0.0956  2.6021
38005SOL    HW222794   1.071   9.067   1.188 -0.3740 -0.2226  0.2223
38006SOL     OW22795   5.319   8.962   1.050 -0.1714  0.0891  0.2484
38006SOL    HW122796   5.357   8.986   0.965 -1.9781  1.6191 -0.1989
38006SOL    HW222797   5.322   8.867   1.051  1.4311  0.0815 -0.7727
38007SOL     OW22798   7.564   1.440  11.158  0.0601 -0.3802  0.1403
38007SOL    HW122799   7.616   1.396  11.091 -0.5642  0.6450 -1.0837
38007SOL    HW222800   7.624   1.452  11.232  0.4809 -2.4268  0.1868
38008SOL     OW22801   2.225   3.514   1.341 -0.3364 -0.0047 -0.9869
38008SOL    HW122802   2.262   3.450   1.402 -0.6781 -1.0579 -1.8468
38008SOL    HW222803   2.298   3.570   1.316  0.5076 -1.4477 -1.9145
38009SOL     OW22804   7.813   6.249   6.652  0.0734 -0.2421 -0.0136
38009SOL    HW122805   7.746   6.221   6.590  1.3814 -0.6717 -1.2891
38009SOL    HW222806   7.878   6.178   6.651  0.1067 -0.3103  1.9318
38010SOL     OW22807   1.713   9.509   5.164 -0.3713 -0.1022  0.2312
38010SOL    HW122808   1.664   9.585   5.197 -0.2684 -0.1418  0.4772
38010SOL    HW222809   1.728   9.529   5.071  0.5574  0.6595  0.5308
38011SOL     OW22810   0.411  10.917  12.466 -0.8943  0.0632  0.5105
38011SOL    HW122811   0.396  10.965  12.547 -0.8899 -1.1464  1.2522
38011SOL    HW222812   0.383  10.977  12.396 -0.7010  1.1974  1.3796
38012SOL     OW22813   4.112   5.937  10.579 -0.1032  0.2251  0.5811
38012SOL    HW122814   4.105   5.969  10.488  0.9724 -0.9425  0.0654
38012SOL    HW222815   4.199   5.897  10.584  0.2675  1.1311  2.4315
38013SOL     OW22816   4.562   1.762   1.377  0.4814  0.6186 -0.5579
38013SOL    HW122817   4.476   1.754   1.419  0.4933  0.2871 -0.5932
38013SOL    HW222818   4.622   1.785   1.449  0.4155  0.5501 -0.4809
38014SOL     OW22819  12.612   2.813   5.851  0.2839  0.1797  0.2133
38014SOL    HW122820  12.701   2.806   5.885  0.3328  1.6415  0.4450
38014SOL    HW222821  12.557   2.770   5.917  0.6057  1.1880  1.1701
38015SOL     OW22822   4.376  12.035  12.337 -0.0209  0.2987  0.7701
38015SOL    HW122823   4.331  12.004  12.415  1.8032 -0.9396  1.3942
38015SOL    HW222824   4.319  12.103  12.302 -3.2428 -2.2859  0.5058
38016SOL     OW22825  11.894  10.845  10.553 -0.1259 -0.4438 -0.1481
38016SOL    HW122826  11.855  10.769  10.511  0.4603 -1.6926  1.4383
38016SOL    HW222827  11.988  10.827  10.553 -0.0755 -0.3279  1.3101
38017SOL     OW22828   5.495   0.803   4.970 -0.1104  0.4686 -0.7669
38017SOL    HW122829   5.486   0.829   5.062  2.7068 -0.4734 -0.1109
38017SOL    HW222830   5.488   0.708   4.971 -2.9765  0.5757 -2.0506
38018SOL     OW22831   6.677   3.993   0.770  0.3708  0.5457  0.1494
38018SOL    HW122832   6.621   3.919   0.747 -0.0633  1.7967 -3.3800
38018SOL    HW222833   6.764   3.966   0.741  0.7694  0.4199  1.3882
38019SOL     OW22834   8.281   4.582   5.357  0.2916 -0.1888  0.2444
38019SOL    HW122835   8.243   4.541   5.435  0.1081 -1.0238 -0.2707
38019SOL    HW222836   8.363   4.535   5.342  0.8444  0.6637  0.5268
38020SOL     OW22837   3.982   8.253   2.421 -0.0630 -0.6831  0.5449
38020SOL    HW122838   4.042   8.190   2.381 -0.0637 -0.5291  0.3024
38020SOL    HW222839   3.978   8.226   2.513 -0.2598 -1.1944  0.3942
38021SOL     OW22840   6.567  10.637  12.191 -1.0993  0.3728  0.0576
38021SOL    HW122841   6.521  10.625  12.108 -0.4772  1.6916 -0.4975
38021SOL    HW222842   6.497  10.633  12.257 -1.5149 -1.4157 -0.4240
38022SOL     OW22843   3.072   2.645   4.366 -0.1121  0.3862  0.4984
38022SOL    HW122844   2.990   2.638   4.317  0.1901 -1.2662  0.1695
38022SOL    HW222845   3.049   2.698   4.443 -1.4179  0.1945  0.2720
38023SOL     OW22846  11.951  10.661   1.697  0.1223  0.1186 -0.8638
38023SOL    HW122847  12.036  10.689   1.665  0.8701  1.7112  2.1819
38023SOL    HW222848  11.970  10.585   1.752 -0.6430 -0.4329 -1.3449
38024SOL     OW22849   0.702   0.957   3.513 -0.2870  0.2523  0.2581
38024SOL    HW122850   0.751   0.883   3.549 -1.4796  0.9516  3.7121
38024SOL    HW222851   0.614   0.923   3.498 -0.1360  0.3161 -0.8888
38025SOL     OW22852   9.563   6.978   1.220 -0.4858 -0.1359 -0.1061
38025SOL    HW122853   9.653   6.951   1.203 -0.2068  1.7760 -2.2915
38025SOL    HW222854   9.511   6.898   1.211  0.8790 -1.0807  0.1434
38026SOL     OW22855   0.499   3.448  10.966 -0.2737 -0.2074 -0.2166
38026SOL    HW122856   0.592   3.469  10.965 -0.1934 -0.4161 -2.7143
38026SOL    HW222857   0.496   3.353  10.954 -0.7296  0.0736 -3.2951
38027SOL     OW22858   9.070   7.158  10.291  0.5582 -0.2812 -0.4882
38027SOL    HW122859   9.111   7.084  10.247  0.7050 -0.1363 -0.5999
38027SOL    HW222860   9.118   7.166  10.374 -0.8542 -1.6386  0.5161
38028SOL     OW22861  10.750  11.686   2.747  0.2917 -0.1962  0.0610
38028SOL    HW122862  10.686  11.655   2.683  0.0549 -0.8042  0.5876
38028SOL    HW222863  10.835  11.671   2.705  0.0945  1.1736 -0.8897
38029SOL     OW22864   8.823   6.085   6.930  0.4115 -0.2394  0.3710
38029SOL    HW122865   8.733   6.116   6.935 -0.3633 -2.2400 -0.1995
38029SOL    HW222866   8.818   5.993   6.956  1.9574 -0.9065 -1.4625
38030SOL     OW22867  11.583   7.718  10.564  0.0244  0.3152  0.2142
38030SOL    HW122868  11.632   7.754  10.490  0.0871 -0.9523 -0.3761
38030SOL    HW222869  11.569   7.626  10.542 -4.3554  0.9505 -0.6471
38031SOL     OW22870   0.608   0.641   5.839  0.1676 -0.3582 -0.4197
38031SOL    HW122871   0.682   0.583   5.823 -0.0375 -0.5157 -0.7898
38031SOL    HW222872   0.639   0.727   5.812 -0.5092 -0.7724 -2.6691
38032SOL     OW22873   9.266   0.539   2.206 -0.5752 -0.3910  0.0320
38032SOL    HW122874   9.287   0.560   2.297 -2.4564  2.2564 -0.0421
38032SOL    HW222875   9.187   0.484   2.212  0.0694 -1.3495 -0.0093
38033SOL     OW22876   6.596   4.572   1.101  0.1192 -0.2926 -0.0578
38033SOL    HW122877   6.559   4.579   1.189  0.4983 -0.8945  0.1518
38033SOL    HW222878   6.690   4.561   1.115  0.2811  0.3499 -0.5623
38034SOL     OW22879  11.992  11.260   6.355 -0.8429  0.5722 -0.5639
38034SOL    HW122880  12.046  11.301   6.288  0.5057  0.6290  0.5090
38034SOL    HW222881  12.038  11.178   6.376 -2.3416 -0.4574 -1.1404
38035SOL     OW22882   6.839   5.607   3.319 -0.1531 -0.4021  0.4517
38035SOL    HW122883   6.914   5.559   3.355 -0.2693 -1.6362 -0.8346
38035SOL    HW222884   6.782   5.538   3.283 -0.1095  0.6935 -1.9144
38036SOL     OW22885  11.705   6.354   8.983  0.0251  0.5817  0.0171
38036SOL    HW122886  11.620   6.323   9.015 -0.5144  2.3407  0.4103
38036SOL    HW222887  11.751   6.275   8.957 -1.6728 -0.4414 -0.0400
38037SOL     OW22888  12.271  10.821   1.181  0.2199 -0.3792  1.0878
38037SOL    HW122889  12.213  10.781   1.246 -0.6424 -0.2278  0.4280
38037SOL    HW222890  12.306  10.747   1.132  0.7157 -0.4800  1.5841
38038SOL     OW22891   7.648   5.004   1.742  0.4515 -0.6109 -0.4334
38038SOL    HW122892   7.674   4.919   1.777  0.1576  0.1191  1.7012
38038SOL    HW222893   7.641   5.060   1.819  0.7918  1.4036 -1.8043
38039SOL     OW22894   3.627  11.599   7.887  0.0552 -1.2147  0.3184
38039SOL    HW122895   3.577  11.571   7.964 -0.5518 -0.0605  0.3638
38039SOL    HW222896   3.665  11.518   7.852 -0.6701 -1.9152  1.1210
38040SOL     OW22897   8.318   9.645  12.081 -0.2622 -0.1400  0.2002
38040SOL    HW122898   8.393   9.600  12.119 -0.0731  0.7250  0.8952
38040SOL    HW222899   8.342   9.659  11.989  1.1131  1.4673  0.7474
38041SOL     OW22900   4.801   6.874   9.650  0.0728  0.6190 -0.0145
38041SOL    HW122901   4.800   6.959   9.607  0.1546  1.2363  1.1692
38041SOL    HW222902   4.837   6.891   9.737 -0.9593 -0.4203  0.6519
38042SOL     OW22903  10.214   6.089   6.825  0.3178 -0.4085  0.1600
38042SOL    HW122904  10.259   6.107   6.742  0.9868 -1.2106  0.3465
38042SOL    HW222905  10.284   6.070   6.887 -0.1912  0.0146  0.8781
38043SOL     OW22906   8.530   0.007   0.407  0.7469 -0.7090  0.5938
38043SOL    HW122907   8.580  -0.058   0.456  0.2935 -2.3442 -0.9759
38043SOL    HW222908   8.539  -0.020   0.315 -0.1805  0.9533 -0.0401
38044SOL     OW22909   4.469  11.667   8.007 -0.8633  0.4234 -0.3303
38044SOL    HW122910   4.543  11.726   8.021 -0.8146  0.8674 -2.2407
38044SOL    HW222911   4.506  11.591   7.961 -1.4882  0.3997 -0.8174
38045SOL     OW22912   0.933   1.620   6.079  0.5727 -0.3153 -0.0550
38045SOL    HW122913   0.876   1.591   6.007 -0.1345  1.6326 -0.3171
38045SOL    HW222914   0.893   1.584   6.158  0.4401 -1.0926 -0.4612
38046SOL     OW22915   7.951   9.207   3.081 -0.2166  0.2151  0.0714
38046SOL    HW122916   7.921   9.226   3.170 -0.1931 -2.1914  0.6716
38046SOL    HW222917   7.889   9.142   3.048  0.5326  0.1016 -1.2019
38047SOL     OW22918   8.882  12.508   0.444  0.2945 -0.2495  0.0864
38047SOL    HW122919   8.885  12.573   0.373 -3.4110  0.4002  0.2780
38047SOL    HW222920   8.951  12.535   0.505  0.3723  2.1781 -0.9558
38048SOL     OW22921  11.962  12.459   1.524  0.0188 -0.5592 -0.6561
38048SOL    HW122922  12.000  12.538   1.563 -2.3205 -0.2683  1.3189
38048SOL    HW222923  11.972  12.392   1.592  0.5558 -1.5716 -1.6932
38049SOL     OW22924   3.651   0.990   6.734 -0.3424 -0.0523 -0.9603
38049SOL    HW122925   3.723   0.976   6.795 -0.8495  0.7429 -0.1660
38049SOL    HW222926   3.664   0.923   6.667 -1.3104 -2.8160  1.3964
38050SOL     OW22927   1.234   4.594  10.066 -0.0895 -0.0185  0.3980
38050SOL    HW122928   1.251   4.686  10.045  0.5183  0.1660  1.6129
38050SOL    HW222929   1.257   4.546   9.986  0.4100  0.8083  0.0341
38051SOL     OW22930  12.437  10.712   8.900 -0.4120  0.0715  0.5044
38051SOL    HW122931  12.527  10.721   8.931 -0.2368  0.6110 -0.1484
38051SOL    HW222932  12.416  10.797   8.861 -1.3290  0.0731  0.9748
38052SOL     OW22933   8.988   0.095   3.199 -0.0701 -0.1745  0.1848
38052SOL    HW122934   8.916   0.158   3.202 -1.3185 -1.5582  0.0099
38052SOL    HW222935   8.984   0.049   3.283  1.4575  0.5878  0.7326
38053SOL     OW22936  10.962   5.964   8.614 -0.4246  0.3695 -0.1651
38053SOL    HW122937  11.034   6.027   8.617  0.5549 -0.7439  0.9096
38053SOL    HW222938  11.005   5.878   8.613 -1.7102 -0.3416  1.2025
38054SOL     OW22939   2.264   5.352   4.835 -0.4416  0.2748 -0.1895
38054SOL    HW122940   2.301   5.368   4.922  1.8547 -1.4243 -0.7615
38054SOL    HW222941   2.226   5.437   4.810  1.5977  1.7083  1.2072
38055SOL     OW22942   1.314   5.314   1.286  0.0739 -0.0030  0.6772
38055SOL    HW122943   1.385   5.296   1.224 -0.4649 -1.8453  0.5221
38055SOL    HW222944   1.344   5.278   1.369 -0.3251 -0.0196  0.8168
38056SOL     OW22945   0.799  12.410   4.322 -0.0930  0.2817  0.5917
38056SOL    HW122946   0.893  12.403   4.337 -0.4556 -3.4327  2.1813
38056SOL    HW222947   0.783  12.358   4.243 -0.9448 -0.3882  1.1900
38057SOL     OW22948   3.895   9.256   0.388  0.3780 -0.1606 -0.2121
38057SOL    HW122949   3.945   9.303   0.321  0.8599  1.6365  1.3173
38057SOL    HW222950   3.956   9.191   0.422  0.3552 -0.6157 -0.9997
38058SOL     OW22951  12.433  10.936  11.029 -0.4345  0.6040  0.2489
38058SOL    HW122952  12.424  10.842  11.045 -0.5577  0.4003 -0.9779
38058SOL    HW222953  12.527  10.951  11.029 -0.4050  0.4221  0.1055
38059SOL     OW22954   2.862  10.449  10.609 -0.0069  0.2040 -0.3531
38059SOL    HW122955   2.771  10.423  10.594  0.4439 -1.2435 -0.7214
38059SOL    HW222956   2.892  10.480  10.524  0.4743 -1.4434 -0.8341
38060SOL     OW22957   1.414   1.603   7.445  0.4145  0.0835  0.0080
38060SOL    HW122958   1.341   1.635   7.393  0.8217 -0.0064 -0.6242
38060SOL    HW222959   1.375   1.583   7.531 -0.5384 -0.9950 -0.6403
38061SOL     OW22960  10.369   7.316   5.884  0.3609  0.1337  0.5497
38061SOL    HW122961  10.430   7.341   5.814 -0.5620  2.1548  0.3901
38061SOL    HW222962  10.283   7.317   5.842 -0.0115 -0.5400  1.2757
38062SOL     OW22963   3.731   4.136   8.258  0.4164 -0.1256  0.0762
38062SOL    HW122964   3.760   4.080   8.330 -0.7644 -0.2258  0.4802
38062SOL    HW222965   3.771   4.096   8.180  1.9744  0.1772  0.6747
38063SOL     OW22966   1.671  11.231   3.924  0.0362 -0.3964  0.1372
38063SOL    HW122967   1.753  11.213   3.970  0.8863 -3.3304 -2.2335
38063SOL    HW222968   1.616  11.155   3.942 -0.7465 -0.1848 -1.2415
38064SOL     OW22969   7.902   5.252   4.588  0.1888 -0.1717  0.1904
38064SOL    HW122970   7.914   5.158   4.594  2.4261  0.1213  1.3869
38064SOL    HW222971   7.955   5.288   4.659 -0.7451  1.9901 -0.1132
38065SOL     OW22972   6.460   6.800  10.239  0.3742  0.1473 -0.1093
38065SOL    HW122973   6.371   6.834  10.251  0.3317 -0.0147  0.0451
38065SOL    HW222974   6.473   6.740  10.313 -0.0768 -1.2623 -1.1150
38066SOL     OW22975   4.447   8.317   7.024 -0.1667 -0.3655 -0.3776
38066SOL    HW122976   4.403   8.321   7.109 -0.2783 -0.7812 -0.4145
38066SOL    HW222977   4.466   8.408   7.002  0.6684 -0.3033  0.5123
38067SOL     OW22978   1.851  11.119   1.053 -0.1622 -0.2986  0.0197
38067SOL    HW122979   1.906  11.171   0.995 -0.3741 -0.2040 -0.0962
38067SOL    HW222980   1.877  11.145   1.141 -0.7031  0.4664 -0.0396
38068SOL     OW22981   1.026   9.761   9.898  0.1765  0.2477 -0.2428
38068SOL    HW122982   0.969   9.732   9.827  1.2613  0.0382 -1.0497
38068SOL    HW222983   0.970   9.760   9.975 -0.9898  0.3354 -1.0582
38069SOL     OW22984   1.716   9.112   8.519  0.0863  0.3706 -0.0949
38069SOL    HW122985   1.746   9.112   8.428 -0.1270 -2.0855 -0.2146
38069SOL    HW222986   1.796   9.110   8.571  0.2574  3.1539 -0.1175
38070SOL     OW22987   8.726   2.391   3.361  0.1318  0.8975 -0.3362
38070SOL    HW122988   8.707   2.410   3.453 -0.2926 -0.8789 -0.0193
38070SOL    HW222989   8.767   2.471   3.329 -0.1022  1.7244  1.2719
38071SOL     OW22990   7.242   4.142   2.905 -0.0085  0.2154 -0.7558
38071SOL    HW122991   7.288   4.195   2.840 -0.3800  0.9513 -0.4205
38071SOL    HW222992   7.213   4.204   2.971 -1.0637 -0.3018 -0.7075
38072SOL     OW22993   0.021   7.986   3.140 -0.4140 -0.3404 -0.4261
38072SOL    HW122994   0.080   8.030   3.079 -0.0198  1.2674  1.0322
38072SOL    HW222995   0.072   7.975   3.220 -1.6167 -0.2750  0.3819
38073SOL     OW22996   5.797  10.814  10.656  0.3926 -0.8270 -0.0276
38073SOL    HW122997   5.797  10.740  10.596  2.5757 -0.7413 -0.2011
38073SOL    HW222998   5.873  10.866  10.631 -0.6845  1.1229  0.5506
38074SOL     OW22999   9.092  12.142   8.548  0.2804  0.0868  0.2418
38074SOL    HW123000   9.139  12.068   8.585 -1.2656 -0.6198  0.8505
38074SOL    HW223001   9.002  12.132   8.578  0.0171  2.2192  0.3554
38075SOL     OW23002   5.068   5.511   7.434  0.3545  0.4741  0.5732
38075SOL    HW123003   4.989   5.532   7.385  0.6835  0.3236 -0.0265
38075SOL    HW223004   5.117   5.452   7.377  1.2486  1.1417  0.6210
38076SOL     OW23005   2.212   1.692  11.809  0.4994  0.3684  0.5980
38076SOL    HW123006   2.301   1.659  11.826  0.4607 -0.2638 -0.3531
38076SOL    HW223007   2.155   1.618  11.829  0.4389 -0.3928 -1.9806
38077SOL     OW23008   8.710   2.475   3.625 -0.7688 -0.2373  0.5721
38077SOL    HW123009   8.792   2.453   3.669 -0.4076 -1.2195 -0.5166
38077SOL    HW223010   8.726   2.561   3.586 -0.5929 -0.0120  1.1287
38078SOL     OW23011   1.425  12.472   9.039 -0.2673 -0.0401  0.1052
38078SOL    HW123012   1.502  12.526   9.057 -0.9260  1.3135 -0.9955
38078SOL    HW223013   1.440  12.438   8.951 -0.9784  0.3333 -0.1648
38079SOL     OW23014   1.479  11.410   5.606 -0.0992 -0.6776  0.1470
38079SOL    HW123015   1.462  11.481   5.545  1.3354 -0.4285 -0.0102
38079SOL    HW223016   1.551  11.361   5.566 -1.3496 -2.5042  0.0239
38080SOL     OW23017   4.722  10.881   9.622 -0.0670 -0.3664 -0.2211
38080SOL    HW123018   4.758  10.798   9.655  0.5500 -0.0012  0.0628
38080SOL    HW223019   4.689  10.860   9.535  3.0630 -0.2384 -1.5630
38081SOL     OW23020   9.712   9.176   0.155  0.1045  0.2157  0.2876
38081SOL    HW123021   9.760   9.247   0.198  0.8232  0.1215 -0.3343
38081SOL    HW223022   9.633   9.217   0.121 -0.3244  0.3569  1.4162
38082SOL     OW23023  10.307   2.661   6.821  0.2678 -0.2922  0.3048
38082SOL    HW123024  10.394   2.699   6.812 -0.2519  0.7668 -0.4272
38082SOL    HW223025  10.265   2.713   6.889 -0.6635  0.9139 -1.1387
38083SOL     OW23026   9.878   3.030  12.173 -0.5705  0.2957 -0.8843
38083SOL    HW123027   9.968   3.018  12.144 -0.1464  0.1345  0.4310
38083SOL    HW223028   9.870   2.974  12.250 -2.0838 -0.4056 -1.5076
38084SOL     OW23029   9.972   0.218   1.054 -0.5316  0.4883 -0.1344
38084SOL    HW123030   9.923   0.300   1.055 -1.6812 -0.1604 -1.6022
38084SOL    HW223031   9.948   0.175   1.136 -0.1188  1.4793  0.5271
38085SOL     OW23032   0.617  10.310   5.585 -0.2272 -0.4974 -0.6539
38085SOL    HW123033   0.624  10.404   5.570 -0.0693 -0.5576 -0.9760
38085SOL    HW223034   0.706  10.277   5.573  0.5502 -0.2029  3.0059
38086SOL     OW23035   8.149   0.507   0.386 -0.3377 -0.1820  0.8884
38086SOL    HW123036   8.144   0.474   0.297 -1.2991  0.5374  0.6521
38086SOL    HW223037   8.112   0.437   0.440 -1.1231 -0.0440  0.5417
38087SOL     OW23038   4.388  11.204   8.774 -0.4919  0.2098  0.2497
38087SOL    HW123039   4.336  11.195   8.853 -0.5336 -1.1728  0.0882
38087SOL    HW223040   4.344  11.272   8.724 -0.2773  1.3365  1.5415
38088SOL     OW23041  10.248   0.632   7.416  0.0152  0.3201 -0.4688
38088SOL    HW123042  10.266   0.700   7.350  0.8661  0.9723  0.3990
38088SOL    HW223043  10.294   0.663   7.495  0.1694 -1.1300  0.0333
38089SOL     OW23044   3.849   3.396   7.356  0.0781  0.5524  0.2071
38089SOL    HW123045   3.860   3.477   7.406  1.8070  0.1244  0.5610
38089SOL    HW223046   3.792   3.342   7.411 -2.0256  1.8949 -0.5312
38090SOL     OW23047   5.897   2.746   7.512 -0.3859 -0.5367 -0.0404
38090SOL    HW123048   5.943   2.668   7.482 -1.6345 -0.4982 -2.2354
38090SOL    HW223049   5.906   2.744   7.607  2.6090 -1.4397 -0.2424
38091SOL     OW23050   6.352  10.206   2.421 -0.1234 -0.3182 -0.2020
38091SOL    HW123051   6.370  10.241   2.333  0.5386  0.4124  0.2098
38091SOL    HW223052   6.340  10.112   2.407 -1.0772 -0.0693 -1.2174
38092SOL     OW23053  11.674   4.964   3.765 -0.4614 -0.2202 -0.0598
38092SOL    HW123054  11.616   4.985   3.837 -0.5548 -0.0432 -0.1869
38092SOL    HW223055  11.636   4.885   3.726 -1.1400  0.4203 -0.7173
38093SOL     OW23056  10.872   2.048  12.516 -0.8337  0.2759  0.3251
38093SOL    HW123057  10.843   2.109  12.448 -1.5123  1.0849  1.3078
38093SOL    HW223058  10.857   1.961  12.478 -1.3378  0.7132 -0.5036
38094SOL     OW23059  11.179   7.633   7.922  0.0559 -0.0600 -0.3489
38094SOL    HW123060  11.239   7.599   7.855 -1.3534 -0.8554 -1.2777
38094SOL    HW223061  11.119   7.560   7.939 -0.0539  0.3649  1.3009
38095SOL     OW23062   0.066  10.322   1.572  0.2863  0.3346 -0.7256
38095SOL    HW123063   0.043  10.403   1.527 -1.3444 -0.5141 -1.5126
38095SOL    HW223064   0.159  10.331   1.593 -0.4187  3.6054  1.7396
38096SOL     OW23065   6.084   4.048   7.882 -0.4924 -0.0193 -0.6785
38096SOL    HW123066   6.047   3.972   7.926  0.7827 -1.8184 -2.5065
38096SOL    HW223067   6.164   4.069   7.932 -0.9928  0.3341 -0.0090
38097SOL     OW23068   9.780   4.384  10.355  0.1303 -0.3798  0.4076
38097SOL    HW123069   9.685   4.382  10.351  0.1621 -0.5297 -1.2309
38097SOL    HW223070   9.807   4.296  10.329  0.7197 -0.3644  0.9361
38098SOL     OW23071   1.877   3.936   3.122 -0.2091 -0.7796  0.3886
38098SOL    HW123072   1.821   3.994   3.174  1.0010  0.7553  0.0694
38098SOL    HW223073   1.841   3.849   3.135 -2.1241  0.0471  0.8671
38099SOL     OW23074   4.495  10.362  11.912 -0.6526 -0.3770 -0.0264
38099SOL    HW123075   4.455  10.358  11.825 -0.7152 -0.2161 -0.0063
38099SOL    HW223076   4.425  10.334  11.972  0.1723 -3.2376 -0.2378
38100SOL     OW23077   8.428   0.409   1.013  0.4249  0.0836  0.2090
38100SOL    HW123078   8.388   0.487   1.051  2.0249  1.0419  0.0242
38100SOL    HW223079   8.469   0.364   1.087  0.4864  0.0376  0.1469
38101SOL     OW23080   4.083   5.481   1.373  0.9386  0.4474 -0.0034
38101SOL    HW123081   4.009   5.532   1.404  0.9280  1.1274 -1.0755
38101SOL    HW223082   4.068   5.471   1.279  1.1309 -1.2484  0.1184
38102SOL     OW23083   5.645   4.988   9.973 -0.5898  0.0171  0.3477
38102SOL    HW123084   5.583   4.915   9.968 -0.2697 -0.2237 -0.2521
38102SOL    HW223085   5.676   4.987  10.064 -0.9566 -0.2749  0.4739
38103SOL     OW23086   7.821   3.006   3.210 -0.2306 -0.0828 -0.1954
38103SOL    HW123087   7.771   3.010   3.128  0.1284  0.5944 -0.3925
38103SOL    HW223088   7.839   2.913   3.222 -1.2985 -0.3120 -0.2575
38104SOL     OW23089   8.898  11.895   9.950 -0.3621 -0.6605 -0.8229
38104SOL    HW123090   8.952  11.939  10.015  0.8094 -1.1510 -1.4171
38104SOL    HW223091   8.811  11.931   9.961  0.0619  0.0559  0.2750
38105SOL     OW23092   5.414   0.645   7.801 -0.0102  0.3638 -0.4402
38105SOL    HW123093   5.504   0.615   7.785 -0.6026 -1.0042 -1.2761
38105SOL    HW223094   5.360   0.596   7.739 -1.4943  0.2486  0.8827
38106SOL     OW23095   4.050  11.875   2.690 -0.4214  0.1934 -0.3581
38106SOL    HW123096   4.103  11.797   2.672 -0.3158 -0.6740  3.1192
38106SOL    HW223097   4.075  11.936   2.621  2.5367 -1.4106 -0.9067
38107SOL     OW23098   9.162   9.771   2.978  0.2032 -0.0697 -0.3911
38107SOL    HW123099   9.068   9.789   2.978  0.0640 -0.5366  1.7324
38107SOL    HW223100   9.203   9.856   2.996 -0.1754 -0.6047  4.0459
38108SOL     OW23101   2.138  12.251   1.328  0.1183 -0.4668  0.0387
38108SOL    HW123102   2.178  12.173   1.289  0.2563  0.1705 -1.1188
38108SOL    HW223103   2.101  12.219   1.411  1.5674 -1.4186  0.3654
38109SOL     OW23104   4.209   5.366  11.135  0.1322 -0.1721 -0.0907
38109SOL    HW123105   4.224   5.406  11.221 -0.8820  2.5544 -1.0842
38109SOL    HW223106   4.117   5.341  11.136  0.3917 -1.1679 -0.0237
38110SOL     OW23107   1.067  10.189   1.213  0.3902  0.2708 -0.4393
38110SOL    HW123108   1.151  10.236   1.218  0.2917  0.5226 -1.0461
38110SOL    HW223109   1.083  10.107   1.259  1.3714 -0.2401 -1.6238
38111SOL     OW23110   5.526  11.546   7.273  0.4527 -0.1977 -0.2865
38111SOL    HW123111   5.472  11.517   7.200 -0.1523  1.6384 -0.6176
38111SOL    HW223112   5.606  11.579   7.232  0.3772  0.2520 -0.0782
38112SOL     OW23113   6.786  11.764  12.211 -0.0484  0.1562 -0.8585
38112SOL    HW123114   6.851  11.715  12.160 -0.4389  0.6789 -1.8811
38112SOL    HW223115   6.761  11.837  12.155  1.0803  2.0162  0.9341
38113SOL     OW23116  11.323   4.717   7.577  0.0851  0.8407  0.1590
38113SOL    HW123117  11.363   4.643   7.622  0.0485 -0.3816 -1.7245
38113SOL    HW223118  11.230   4.694   7.571  0.2087  0.6247 -1.1549
38114SOL     OW23119  11.315   5.418   0.792  0.3041  0.4248 -0.1127
38114SOL    HW123120  11.226   5.433   0.759  0.4480  1.0272 -0.2504
38114SOL    HW223121  11.326   5.486   0.859 -0.6052 -1.7695  2.4719
38115SOL     OW23122  12.518  11.661   0.291 -0.3371 -0.0538 -0.4447
38115SOL    HW123123  12.508  11.566   0.277 -1.4895  0.0839 -0.6829
38115SOL    HW223124  12.586  11.687   0.229 -0.1956 -0.6869 -0.5632
38116SOL     OW23125  11.760  11.686   1.961 -0.3947 -0.6939 -0.4786
38116SOL    HW123126  11.805  11.617   1.913 -0.9973 -0.6454 -1.1303
38116SOL    HW223127  11.763  11.762   1.904 -0.0363 -0.2726  0.0922
38117SOL     OW23128  10.282  11.506  11.383  0.1570  0.7346 -0.4027
38117SOL    HW123129  10.208  11.459  11.421 -1.1374  0.9297 -2.4918
38117SOL    HW223130  10.339  11.438  11.347  0.4824  0.6270  0.3012
38118SOL     OW23131   2.943   8.817   5.635  0.5572  0.0102  0.0397
38118SOL    HW123132   2.910   8.732   5.607  0.1552  0.7330 -1.7918
38118SOL    HW223133   2.922   8.821   5.729 -3.4606 -0.1195 -0.7107
38119SOL     OW23134   0.652   6.763  11.286 -0.0544  0.2645  0.1529
38119SOL    HW123135   0.628   6.708  11.361 -1.4345 -0.7945 -1.0240
38119SOL    HW223136   0.748   6.763  11.287 -0.0379 -0.6624  1.2378
38120SOL     OW23137   9.000   3.174   6.040 -0.4936 -0.1467  0.2731
38120SOL    HW123138   9.048   3.257   6.041  1.3659 -1.1528  0.2817
38120SOL    HW223139   9.010   3.139   6.129 -1.7080 -0.1539  0.4226
38121SOL     OW23140   5.985   6.126   1.249 -0.4094  0.4422  0.4997
38121SOL    HW123141   5.994   6.040   1.208  0.5880  1.1242 -0.8438
38121SOL    HW223142   6.068   6.170   1.229 -0.7958  1.6277  1.3736
38122SOL     OW23143   7.586   3.836  10.917 -0.0915  0.1592  0.1253
38122SOL    HW123144   7.606   3.898  10.988 -1.8733 -0.0002  0.8328
38122SOL    HW223145   7.501   3.799  10.942 -0.8109  0.1585 -2.1584
38123SOL     OW23146   7.683  12.584   8.663 -0.1457 -0.3536  0.3172
38123SOL    HW123147   7.611  12.558   8.604 -1.1232  2.2923  0.2212
38123SOL    HW223148   7.645  12.575   8.751  0.3518 -1.4961  0.4405
38124SOL     OW23149   6.585   4.055   1.587 -0.2207  0.3244  0.5805
38124SOL    HW123150   6.591   4.002   1.667 -2.3765  3.4275  3.0324
38124SOL    HW223151   6.498   4.037   1.552 -0.4064  1.0886  0.6219
38125SOL     OW23152   7.806  10.913  10.739 -0.3527  0.0415  0.7613
38125SOL    HW123153   7.855  10.900  10.820 -0.5444 -0.8107  0.7394
38125SOL    HW223154   7.856  10.980  10.691  0.6708 -0.6624  0.8366
38126SOL     OW23155  11.492   8.506   5.132 -0.6276  0.7534 -0.6794
38126SOL    HW123156  11.484   8.525   5.226  0.3044 -0.3611 -0.3539
38126SOL    HW223157  11.534   8.584   5.096 -1.4909  1.4165 -0.2703
38127SOL     OW23158   7.842   2.749   3.904 -0.1428  0.3444  0.2019
38127SOL    HW123159   7.898   2.685   3.860 -1.5505 -0.0127 -1.1310
38127SOL    HW223160   7.813   2.705   3.983 -0.3593 -0.3218 -0.2441
38128SOL     OW23161   1.453  11.826   7.614 -0.1037 -0.0357 -1.0063
38128SOL    HW123162   1.409  11.751   7.654 -0.2441  0.5086 -0.1151
38128SOL    HW223163   1.539  11.829   7.655  0.0772  0.0064 -1.3883
38129SOL     OW23164   7.076   0.675   2.793 -0.1214  0.8241  0.0289
38129SOL    HW123165   7.114   0.741   2.735  1.5455  0.6081  0.8171
38129SOL    HW223166   7.133   0.674   2.869  0.4119 -2.0382 -0.2865
38130SOL     OW23167   6.347   3.096   2.398  0.7444  0.1102 -0.1362
38130SOL    HW123168   6.358   3.053   2.314 -0.0611 -1.6670  0.6180
38130SOL    HW223169   6.309   3.029   2.455 -1.8595  2.1388  0.7666
38131SOL     OW23170   8.914  10.859  12.184 -0.7809  0.3570  0.9705
38131SOL    HW123171   8.947  10.790  12.126  0.8809  1.9057 -0.0217
38131SOL    HW223172   8.959  10.843  12.267 -0.5549  0.1304  0.8054
38132SOL     OW23173   4.979   9.329   4.210 -0.3703 -0.1588  0.2585
38132SOL    HW123174   4.969   9.328   4.305  0.4495 -0.5680  0.3469
38132SOL    HW223175   5.054   9.387   4.195  1.5398 -2.5534  0.0815
38133SOL     OW23176   7.093   2.827   7.162  0.1235  0.0002 -0.3725
38133SOL    HW123177   7.154   2.892   7.129 -0.1288  0.4602  0.0464
38133SOL    HW223178   7.141   2.782   7.232  0.4776 -0.6240 -1.0055
38134SOL     OW23179   6.620   2.997  10.996 -0.1596  0.4636  0.6718
38134SOL    HW123180   6.680   2.978  11.069 -1.6666 -0.9780  1.5953
38134SOL    HW223181   6.606   3.092  11.001  1.2064  0.6639  1.0834
38135SOL     OW23182   6.559   1.692   2.508  0.0853  0.4243  0.1733
38135SOL    HW123183   6.634   1.666   2.456  0.9116  0.8495  1.1077
38135SOL    HW223184   6.503   1.615   2.511  0.9773 -0.2232  0.3020
38136SOL     OW23185  10.973  10.279   3.826  0.1416 -0.0465  0.3718
38136SOL    HW123186  10.960  10.185   3.824 -2.1063  0.2132 -0.1145
38136SOL    HW223187  11.068  10.291   3.830  0.4515 -2.3072  0.6864
38137SOL     OW23188   3.931   8.609   5.252  0.3291 -0.3892  0.6529
38137SOL    HW123189   4.024   8.634   5.246 -0.0591  1.2221  1.1091
38137SOL    HW223190   3.917   8.554   5.174  1.5589 -0.3354  0.3631
38138SOL     OW23191   6.583  12.003   2.738  0.1206 -0.1730  0.2996
38138SOL    HW123192   6.675  11.975   2.738 -0.1344 -1.0469 -0.2818
38138SOL    HW223193   6.554  11.990   2.828  1.0747  1.9186  0.9716
38139SOL     OW23194   7.694  11.656   4.619  0.3143  0.0740 -0.0025
38139SOL    HW123195   7.630  11.698   4.676 -0.4256 -0.0995 -0.6780
38139SOL    HW223196   7.755  11.612   4.678  0.5844  1.3501  0.6844
38140SOL     OW23197   1.307   8.868   7.844 -0.0462  0.3623  0.1015
38140SOL    HW123198   1.246   8.906   7.781 -0.0120  0.0122 -0.1445
38140SOL    HW223199   1.314   8.777   7.819  2.1586  0.8195 -1.1492
38141SOL     OW23200   4.530  12.426   7.736 -0.1553  0.7562  0.4332
38141SOL    HW123201   4.481  12.377   7.671  0.4898 -0.7652  1.0483
38141SOL    HW223202   4.524  12.374   7.816  1.7974  0.8852  0.7171
38142SOL     OW23203   7.580   7.768  10.262 -0.0924  0.3603 -0.2834
38142SOL    HW123204   7.675   7.777  10.268  0.4571 -2.5425 -2.2228
38142SOL    HW223205   7.551   7.753  10.351  1.5055 -0.2479  0.1674
38143SOL     OW23206   4.606   5.782   9.233  0.5702  0.1485  0.2709
38143SOL    HW123207   4.619   5.770   9.139  1.2678  0.3730  0.3332
38143SOL    HW223208   4.520   5.823   9.241 -0.2408 -1.4022 -0.1630
38144SOL     OW23209   1.910   9.701   8.111  0.2264  0.0555  0.5134
38144SOL    HW123210   1.932   9.736   8.025  1.1196  0.1578  0.7690
38144SOL    HW223211   1.938   9.610   8.107  0.7302  0.1901  0.8482
38145SOL     OW23212  10.996   4.028   0.511 -0.0476  0.2988 -0.0919
38145SOL    HW123213  11.066   4.078   0.468  1.3765 -0.8877  0.7724
38145SOL    HW223214  10.952   4.093   0.566 -1.1977  1.5922 -2.3972
38146SOL     OW23215   4.012   2.292   1.973  0.3052 -0.2657 -0.0488
38146SOL    HW123216   4.096   2.332   1.995  0.0851  0.2962 -0.2403
38146SOL    HW223217   3.962   2.361   1.931  0.0385 -0.8228 -0.6664
38147SOL     OW23218   4.634   1.470   6.843 -0.7137 -0.7186 -0.4394
38147SOL    HW123219   4.544   1.490   6.870 -0.1773 -0.6766  1.3995
38147SOL    HW223220   4.679   1.554   6.844 -0.1048 -1.0469  0.8622
38148SOL     OW23221  11.068   4.224   6.221 -0.0860  0.1645 -0.2930
38148SOL    HW123222  11.004   4.226   6.292  0.6875 -0.9014  0.4577
38148SOL    HW223223  11.080   4.131   6.202 -0.1402  0.4183 -1.7167
38149SOL     OW23224   5.655   9.749   8.665 -0.4250 -0.4499 -0.7220
38149SOL    HW123225   5.657   9.737   8.570 -1.1863 -0.7193 -0.7055
38149SOL    HW223226   5.643   9.843   8.678 -0.7351 -0.4643 -0.8983
38150SOL     OW23227   5.302   6.805   7.149 -0.1698  0.2002  0.1114
38150SOL    HW123228   5.396   6.793   7.159 -0.5098 -1.6772  1.6331
38150SOL    HW223229   5.281   6.880   7.204  0.5690  1.4346 -1.2259
38151SOL     OW23230   8.106   8.443   1.742 -0.2148  0.5192  0.1945
38151SOL    HW123231   8.012   8.437   1.726 -0.6662 -1.2102  2.8540
38151SOL    HW223232   8.117   8.524   1.791 -0.3793  0.5372  0.2018
38152SOL     OW23233   2.658   0.773   5.233 -0.0653 -0.6730  0.3759
38152SOL    HW123234   2.664   0.866   5.209  0.0671 -0.4790  1.1150
38152SOL    HW223235   2.615   0.731   5.159 -2.1605  0.3626  0.9112
38153SOL     OW23236  12.376   7.290   6.168 -0.1905 -0.0633  0.2629
38153SOL    HW123237  12.332   7.267   6.250  1.1946  1.9433  1.6781
38153SOL    HW223238  12.349   7.381   6.151 -0.0805 -0.2832 -1.2734
38154SOL     OW23239   9.278   9.122   1.510  0.3509 -0.5625 -0.7055
38154SOL    HW123240   9.373   9.116   1.523  0.2525 -0.0556  0.3277
38154SOL    HW223241   9.240   9.090   1.592 -0.3669 -0.2207 -0.8941
38155SOL     OW23242   9.047   8.870   3.144 -0.2477  0.0961 -0.1787
38155SOL    HW123243   9.106   8.800   3.119 -1.2736 -1.0641  0.5680
38155SOL    HW223244   9.018   8.848   3.232 -0.9035  1.2449 -0.0779
38156SOL     OW23245   1.440   4.115   5.136 -0.1376  0.4292  0.6219
38156SOL    HW123246   1.503   4.085   5.071 -0.4835  3.2997 -1.2211
38156SOL    HW223247   1.493   4.147   5.209  0.3888 -0.0401  0.4475
38157SOL     OW23248   2.378   6.747   1.306 -0.6645 -0.5513  0.7310
38157SOL    HW123249   2.320   6.801   1.360 -0.3798  0.4801  0.0409
38157SOL    HW223250   2.457   6.800   1.296 -1.0256 -0.3411 -1.3655
38158SOL     OW23251   2.742   4.536   2.475 -0.1256 -0.0210  0.8198
38158SOL    HW123252   2.829   4.568   2.451 -0.3521  0.5081  0.6814
38158SOL    HW223253   2.695   4.534   2.392 -0.4165  0.2474  0.9755
38159SOL     OW23254   6.975   1.033   8.982  0.2396 -0.1244  0.3379
38159SOL    HW123255   6.956   0.942   9.007  2.7429 -0.2833  1.9927
38159SOL    HW223256   7.069   1.033   8.962  0.8910  2.5331  2.7868
38160SOL     OW23257  11.989  11.017   8.798 -0.0196 -0.1952 -0.0095
38160SOL    HW123258  11.893  11.012   8.800 -0.1072  1.1147 -0.3228
38160SOL    HW223259  12.017  10.933   8.835 -1.2742 -0.8605 -0.4916
38161SOL     OW23260   0.507   8.223   0.185  0.3537  0.0204 -0.0319
38161SOL    HW123261   0.416   8.222   0.157  0.1603 -0.2025  0.6011
38161SOL    HW223262   0.504   8.244   0.278  0.7767 -2.2440  0.5673
38162SOL     OW23263   6.470   7.762   2.647  0.2637 -0.4060 -0.5160
38162SOL    HW123264   6.407   7.831   2.625  0.6866 -0.1157 -0.8546
38162SOL    HW223265   6.421   7.681   2.637 -0.2217 -0.1617 -0.1885
38163SOL     OW23266   3.422  10.479  11.430  0.0246 -0.5197  0.3125
38163SOL    HW123267   3.465  10.540  11.490 -0.2056 -0.4437  0.4035
38163SOL    HW223268   3.485  10.464  11.360  0.2849 -0.5867  0.5620
38164SOL     OW23269  10.467   4.488   0.220 -0.5430  0.2769 -0.2739
38164SOL    HW123270  10.471   4.400   0.184  1.2215 -0.6900  2.0523
38164SOL    HW223271  10.387   4.488   0.273 -1.5362  0.7346 -1.7151
38165SOL     OW23272   0.259   5.513  10.085 -0.0971  0.1294  0.0217
38165SOL    HW123273   0.174   5.556  10.074 -1.0573 -1.9629 -1.5179
38165SOL    HW223274   0.323   5.584  10.087 -1.8509  1.7462  0.9155
38166SOL     OW23275  12.247  10.191   8.535  0.7778 -0.4369 -0.0226
38166SOL    HW123276  12.190  10.207   8.459 -0.4518  1.5514  1.2103
38166SOL    HW223277  12.196  10.132   8.591  0.0946  0.8919  0.8191
38167SOL     OW23278  12.596   6.299   9.377 -0.4295 -0.4602  0.5368
38167SOL    HW123279  12.575   6.294   9.284  0.5120 -0.5804  0.3232
38167SOL    HW223280  12.591   6.209   9.408  3.0868 -1.1040 -0.2970
38168SOL     OW23281  12.262  12.119   9.523 -0.0321  0.3020  0.3014
38168SOL    HW123282  12.293  12.119   9.614  1.2040 -1.1101 -0.0859
38168SOL    HW223283  12.296  12.200   9.486  0.4558  0.3230  0.7818
38169SOL     OW23284   5.777   4.155   6.844 -0.0891  0.4443 -0.0846
38169SOL    HW123285   5.693   4.195   6.822  0.3043  0.8263 -0.9366
38169SOL    HW223286   5.786   4.169   6.938 -0.7014  0.9233 -0.0884
38170SOL     OW23287   7.786   1.645   4.104  0.1824  0.2859 -0.5190
38170SOL    HW123288   7.779   1.650   4.008 -1.0596  1.4040 -0.4030
38170SOL    HW223289   7.865   1.695   4.125  2.0347 -2.1963 -1.0903
38171SOL     OW23290   8.425   7.844   3.293  0.8961  0.2098  1.0542
38171SOL    HW123291   8.441   7.834   3.387  1.7941 -0.9662  0.7933
38171SOL    HW223292   8.485   7.914   3.266  0.6930  0.4946  1.3271
38172SOL     OW23293   3.353   6.149   8.225 -0.5913 -0.1361 -0.7282
38172SOL    HW123294   3.442   6.168   8.256 -0.0597 -2.3970 -0.6277
38172SOL    HW223295   3.364   6.129   8.132 -1.1011  0.1991 -0.8606
38173SOL     OW23296   8.376   1.460  10.819 -0.4746  0.2661 -0.1480
38173SOL    HW123297   8.387   1.554  10.803  0.2525  0.1429 -0.4211
38173SOL    HW223298   8.324   1.455  10.899 -2.2463  0.9077 -1.1998
38174SOL     OW23299   0.525   6.317  11.613 -0.1788  0.1912 -0.0215
38174SOL    HW123300   0.609   6.358  11.594 -0.5078  0.8089 -0.1893
38174SOL    HW223301   0.500   6.351  11.699  0.6285 -1.4799  0.9025
38175SOL     OW23302   6.568   4.091  10.027  0.7912 -0.8855  0.2592
38175SOL    HW123303   6.633   4.125   9.965 -0.6928  0.8365 -0.4486
38175SOL    HW223304   6.535   4.169  10.073 -0.2386 -1.7915  1.1281
38176SOL     OW23305   5.003   0.624   9.749  0.4935  0.2764  1.1345
38176SOL    HW123306   4.934   0.595   9.688  0.3882 -1.7739  2.1225
38176SOL    HW223307   4.969   0.601   9.835  3.0847 -2.5328  1.5648
38177SOL     OW23308   9.818   2.800   8.806 -0.4933 -0.2908  0.1842
38177SOL    HW123309   9.857   2.834   8.726  2.4703  0.3434  1.7600
38177SOL    HW223310   9.798   2.877   8.859  1.1800 -0.7124  1.5430
38178SOL     OW23311   3.682   0.834   1.415  0.1726  0.0092 -0.0823
38178SOL    HW123312   3.747   0.817   1.483 -0.9439 -0.2225  0.9773
38178SOL    HW223313   3.664   0.928   1.423  1.6793  0.4877 -1.6282
38179SOL     OW23314   9.725   5.029   1.061  0.1260  0.2014 -0.1766
38179SOL    HW123315   9.710   4.935   1.054 -0.1489  0.1872  0.5161
38179SOL    HW223316   9.772   5.052   0.981 -0.0351 -0.4774 -0.4718
38180SOL     OW23317   6.562   0.979   9.054  0.2135 -0.3628  0.0726
38180SOL    HW123318   6.648   1.014   9.078  0.8336 -1.6381 -0.2272
38180SOL    HW223319   6.566   0.967   8.959 -0.2223 -0.6218  0.0817
38181SOL     OW23320   9.538   4.287   6.171  0.4375  0.2632  0.0117
38181SOL    HW123321   9.489   4.269   6.251 -1.5907  1.0195 -0.9820
38181SOL    HW223322   9.514   4.215   6.112 -0.2450  1.1133 -0.7887
38182SOL     OW23323   7.926   7.151   9.002  0.5326 -0.4366 -0.3379
38182SOL    HW123324   7.990   7.215   8.970  0.4962 -1.0267 -1.6712
38182SOL    HW223325   7.841   7.193   8.991  0.5691 -0.3453 -0.2719
38183SOL     OW23326   7.911  11.893   3.822 -0.1800 -0.1578 -0.2565
38183SOL    HW123327   7.989  11.840   3.809  0.0765 -1.4497  4.5610
38183SOL    HW223328   7.943  11.977   3.856 -0.7681 -0.7242  1.8317
38184SOL     OW23329   7.004   4.901  10.430  0.6449  0.3090 -0.1606
38184SOL    HW123330   6.946   4.971  10.400  1.4628  0.7541 -0.7440
38184SOL    HW223331   7.058   4.942  10.498  2.9112  1.0569 -2.2616
38185SOL     OW23332   3.621   7.903   5.908  0.1874  0.2537  0.2564
38185SOL    HW123333   3.638   7.857   5.990 -0.7765 -0.9926 -0.2085
38185SOL    HW223334   3.648   7.841   5.840 -0.1793  0.7784 -0.3821
38186SOL     OW23335   7.252   7.202   4.272  0.0342 -0.2373  0.0895
38186SOL    HW123336   7.176   7.158   4.311  0.8179 -2.5144 -0.8038
38186SOL    HW223337   7.224   7.225   4.183 -0.3848  1.2536  0.5604
38187SOL     OW23338   4.006   6.358   9.731 -0.3931  0.1241 -0.3211
38187SOL    HW123339   3.919   6.398   9.731 -0.3840  0.2365  1.4985
38187SOL    HW223340   4.057   6.412   9.792 -0.3488 -2.4618  2.1517
38188SOL     OW23341   5.010   1.315  10.949  0.1829  0.5965 -0.0792
38188SOL    HW123342   5.085   1.369  10.923  0.6414  0.0640  0.1176
38188SOL    HW223343   5.036   1.276  11.032 -0.3624  0.5040  0.0467
38189SOL     OW23344   0.542  10.831   1.839  0.0346 -0.2115 -0.6830
38189SOL    HW123345   0.573  10.771   1.907 -2.4216  0.6316  1.3677
38189SOL    HW223346   0.594  10.809   1.762  2.8953 -1.3262  1.3837
38190SOL     OW23347   0.178   3.129   9.148  0.5223 -0.3289 -0.5656
38190SOL    HW123348   0.202   3.169   9.064  0.8294  2.4339  0.7065
38190SOL    HW223349   0.253   3.147   9.205 -0.1811 -1.0626  0.6307
38191SOL     OW23350   9.350   5.468   6.593 -0.3360 -0.6498 -0.3131
38191SOL    HW123351   9.340   5.422   6.676 -0.2567 -0.7523 -0.3610
38191SOL    HW223352   9.387   5.553   6.617  3.1685 -1.9571 -0.5338
38192SOL     OW23353   7.221   4.953   0.486 -0.0749  0.4651 -0.0571
38192SOL    HW123354   7.225   5.048   0.479  0.3554  0.3794 -1.2247
38192SOL    HW223355   7.191   4.924   0.400  1.6205 -0.5322 -0.3632
38193SOL     OW23356   9.812   8.452   1.165 -0.7073 -0.1105 -0.0993
38193SOL    HW123357   9.717   8.445   1.169 -1.2379  3.8250 -1.3953
38193SOL    HW223358   9.835   8.518   1.230  0.8403  0.5705 -1.2510
38194SOL     OW23359  11.788   5.048   0.161 -0.0033 -0.6151 -0.5034
38194SOL    HW123360  11.745   5.130   0.137 -1.9059 -1.7476 -1.1673
38194SOL    HW223361  11.750   4.983   0.101 -0.2103 -2.3851  1.4488
38195SOL     OW23362  12.240  10.041   5.642 -0.2947 -0.3350  0.2126
38195SOL    HW123363  12.316   9.991   5.614 -1.1149 -0.6807 -1.5929
38195SOL    HW223364  12.181  10.039   5.566 -0.6961  2.7262  0.3089
38196SOL     OW23365  12.190   8.944   5.934  0.0909 -0.0818 -0.3841
38196SOL    HW123366  12.107   8.932   5.982 -0.0297  0.1407 -0.5357
38196SOL    HW223367  12.229   8.857   5.932  0.4064  0.0117  0.6898
38197SOL     OW23368   2.217   3.260   9.940  0.1366  0.1835  0.4301
38197SOL    HW123369   2.228   3.355   9.928 -1.0365  0.1421 -1.5826
38197SOL    HW223370   2.254   3.222   9.860  0.3434 -1.0457  1.0919
38198SOL     OW23371   4.331   8.799   4.975 -0.2830 -0.2566  0.2744
38198SOL    HW123372   4.397   8.868   4.981 -0.6579  0.0850  0.6375
38198SOL    HW223373   4.371   8.731   4.922  0.9842 -0.7632  1.8172
38199SOL     OW23374  11.182  10.769   4.384 -0.3018 -0.0625  0.4602
38199SOL    HW123375  11.238  10.691   4.384 -0.2340 -0.0155 -0.2114
38199SOL    HW223376  11.242  10.843   4.375 -0.4117  0.0390  0.5454
38200SOL     OW23377  12.472   2.812   9.442  0.0048 -0.1332 -0.4771
38200SOL    HW123378  12.412   2.882   9.419 -0.7189 -0.3463  0.6829
38200SOL    HW223379  12.526   2.800   9.364 -0.4566  1.0840 -1.0060
38201SOL     OW23380   4.533   6.919  11.545  0.5613  0.0108 -0.1812
38201SOL    HW123381   4.460   6.870  11.509  0.1063 -0.2133  0.9984
38201SOL    HW223382   4.500   7.008  11.557  0.8059  0.1605 -0.6051
38202SOL     OW23383   7.704   6.368  11.287  0.4825  0.2952  0.4164
38202SOL    HW123384   7.752   6.389  11.367 -0.6109 -0.1135  1.2113
38202SOL    HW223385   7.670   6.280  11.301  2.5095 -0.9088 -1.6406
38203SOL     OW23386   5.535   1.295   3.322  0.2875 -0.1316  0.1835
38203SOL    HW123387   5.629   1.297   3.338 -0.0140  0.9139  2.0771
38203SOL    HW223388   5.497   1.339   3.398 -1.7459 -0.6516 -0.4865
38204SOL     OW23389   9.932   0.243   1.456 -0.3755 -0.1136 -0.2995
38204SOL    HW123390   9.990   0.216   1.385 -2.4620 -1.1590 -1.7173
38204SOL    HW223391   9.944   0.177   1.524 -1.3150 -1.4944 -1.4139
38205SOL     OW23392   6.249   5.195   7.446  0.2538 -0.3006 -0.2794
38205SOL    HW123393   6.234   5.190   7.540 -1.4235 -3.5072 -0.5876
38205SOL    HW223394   6.336   5.157   7.432 -1.0232 -3.5893 -0.1880
38206SOL     OW23395   0.178   1.508   8.163 -0.1790 -0.1956  0.1993
38206SOL    HW123396   0.269   1.505   8.193  0.0874 -0.8018 -0.6063
38206SOL    HW223397   0.144   1.421   8.182 -0.8942  0.3232  1.3576
38207SOL     OW23398   8.096   5.807   3.367 -0.3296 -0.1798  0.7628
38207SOL    HW123399   8.093   5.851   3.282 -0.6720 -0.1647  0.7805
38207SOL    HW223400   8.042   5.862   3.424 -0.3105 -0.3281  0.9254
38208SOL     OW23401   2.874   3.506   0.066 -0.3119 -0.2874  0.1505
38208SOL    HW123402   2.935   3.496  -0.006  0.0874 -0.4982  0.5161
38208SOL    HW223403   2.814   3.432   0.058  1.0546 -1.5985  1.3079
38209SOL     OW23404   5.267   2.095   6.280 -0.1749 -0.3049 -0.3637
38209SOL    HW123405   5.273   2.086   6.375 -0.2617  0.4145 -0.2829
38209SOL    HW223406   5.326   2.028   6.245  0.4867 -0.0291  0.2114
38210SOL     OW23407   8.172   3.372   7.425  0.8656 -0.0248  0.7309
38210SOL    HW123408   8.103   3.388   7.489  1.8079  2.5188  1.2003
38210SOL    HW223409   8.247   3.342   7.477  1.4527  1.4952  0.8152
38211SOL     OW23410  12.430   2.461   7.440 -0.2276  0.3085 -0.3050
38211SOL    HW123411  12.365   2.526   7.467  0.3595  0.7695  0.0239
38211SOL    HW223412  12.432   2.397   7.511 -0.9858 -0.2149 -0.7430
38212SOL     OW23413   1.185   2.982   7.227  0.1822  0.1587 -0.0741
38212SOL    HW123414   1.115   3.039   7.195  0.3520  0.2634 -0.2617
38212SOL    HW223415   1.151   2.893   7.214 -0.4268  0.2131  0.9923
38213SOL     OW23416   3.149   1.667   0.075 -0.6303  0.2718  0.5665
38213SOL    HW123417   3.162   1.575   0.097 -0.2992  0.0788 -0.4063
38213SOL    HW223418   3.212   1.714   0.129 -1.1772 -0.0163  1.4759
38214SOL     OW23419  12.356   7.612   8.778 -0.1202 -1.1315  0.2158
38214SOL    HW123420  12.279   7.663   8.752 -0.1928 -1.5598 -0.4453
38214SOL    HW223421  12.362   7.623   8.872 -0.2491 -0.0617  0.1044
38215SOL     OW23422   8.688   6.611   2.466  0.1411 -0.4773 -0.2310
38215SOL    HW123423   8.694   6.540   2.529  0.1376  0.6551  1.0837
38215SOL    HW223424   8.760   6.670   2.489 -0.2531  0.2781 -0.8809
38216SOL     OW23425   0.696   3.529   7.618 -0.3977  0.1954 -0.3747
38216SOL    HW123426   0.783   3.507   7.586 -0.5706 -0.1723 -0.6045
38216SOL    HW223427   0.636   3.486   7.556 -0.7713 -2.5190  1.6551
38217SOL     OW23428   0.133   2.002   0.207  0.1560 -0.0486  0.1898
38217SOL    HW123429   0.062   2.041   0.157  0.3276 -0.2274 -0.2010
38217SOL    HW223430   0.119   2.032   0.297 -0.6251 -0.3934  0.1901
38218SOL     OW23431   1.314   1.161  12.067  0.4242 -0.1789  0.1717
38218SOL    HW123432   1.347   1.226  12.130 -0.7907  1.2114 -0.5865
38218SOL    HW223433   1.219   1.173  12.068  0.2406 -1.5115 -0.4738
38219SOL     OW23434   7.628  10.831   4.042 -0.0897  0.0461 -0.2406
38219SOL    HW123435   7.606  10.912   4.087 -0.4556 -0.1938  0.0131
38219SOL    HW223436   7.547  10.804   4.000 -0.0111 -0.2753 -0.1889
38220SOL     OW23437   4.775   6.626   4.109  0.1696 -0.5983  0.2587
38220SOL    HW123438   4.743   6.715   4.094  0.4707 -0.3126  1.2745
38220SOL    HW223439   4.841   6.613   4.041 -0.6478 -0.4677 -0.5891
38221SOL     OW23440   5.388   1.139   1.719  0.0335  0.3106  0.0339
38221SOL    HW123441   5.413   1.051   1.691  0.6101  0.7791 -1.0062
38221SOL    HW223442   5.413   1.144   1.811 -0.0442 -0.6204  0.1075
38222SOL     OW23443  11.857   8.424   0.343 -0.5254 -0.1588  0.0833
38222SOL    HW123444  11.778   8.417   0.397 -0.0723  2.0541  1.1650
38222SOL    HW223445  11.925   8.381   0.394 -0.8465 -1.3385 -0.4665
38223SOL     OW23446   1.851   3.789  10.772  0.4970  0.0295  0.3483
38223SOL    HW123447   1.792   3.781  10.846  0.3216  1.1408  0.3525
38223SOL    HW223448   1.930   3.830  10.808  0.1151  1.3038 -0.2028
38224SOL     OW23449   7.712   1.246  11.011  0.6357 -0.1404  0.4444
38224SOL    HW123450   7.698   1.151  11.014 -2.3009  0.2147  1.0126
38224SOL    HW223451   7.681   1.272  10.924 -0.2958  0.4892  0.9500
38225SOL     OW23452   7.599   8.159  10.785 -0.2886  0.7868  0.0670
38225SOL    HW123453   7.613   8.205  10.868  0.3653  0.2695  0.2534
38225SOL    HW223454   7.547   8.082  10.809 -1.5380  1.4905 -0.2710
38226SOL     OW23455   3.731   7.294   5.906 -0.3853  0.1559  0.2875
38226SOL    HW123456   3.826   7.292   5.916 -0.2369 -0.1112 -0.9747
38226SOL    HW223457   3.701   7.210   5.943 -0.1962  0.4584  1.1480
38227SOL     OW23458   4.248   4.018   0.602 -0.1255  0.3480 -0.1407
38227SOL    HW123459   4.161   4.025   0.642  0.3587 -0.2705  1.0712
38227SOL    HW223460   4.232   3.977   0.517 -0.8611 -1.5727  0.8618
38228SOL     OW23461   5.767   7.199   5.905 -0.4304  0.2700 -0.4146
38228SOL    HW123462   5.714   7.278   5.892 -1.7935 -0.5382  0.0440
38228SOL    HW223463   5.798   7.204   5.995  1.6542  1.5157 -1.1322
38229SOL     OW23464  12.331   4.191  10.976  0.3601 -0.1897  0.1770
38229SOL    HW123465  12.311   4.282  10.955 -0.8302 -0.5936 -0.5026
38229SOL    HW223466  12.395   4.165  10.910 -1.1249 -0.5499 -1.1699
38230SOL     OW23467   2.364   1.649   4.562 -0.2921 -0.0697 -0.1972
38230SOL    HW123468   2.360   1.696   4.645 -3.2211  0.4575 -0.5252
38230SOL    HW223469   2.345   1.715   4.496  0.6822 -0.7509 -1.2037
38231SOL     OW23470   2.413   8.237   1.195  0.1038  0.6605 -0.3317
38231SOL    HW123471   2.401   8.223   1.289  0.6265  3.5143  0.2594
38231SOL    HW223472   2.505   8.262   1.187  0.0590  0.4532 -1.6095
38232SOL     OW23473  10.236   1.178  11.189  0.1508 -0.4035  0.1055
38232SOL    HW123474  10.199   1.105  11.140 -2.8997 -1.3469  3.3989
38232SOL    HW223475  10.252   1.143  11.277  3.1187  1.7545  0.5941
38233SOL     OW23476   7.637   7.892   2.043  0.4941  0.2200 -0.2653
38233SOL    HW123477   7.684   7.897   1.960 -0.2802  0.5975 -0.6972
38233SOL    HW223478   7.693   7.936   2.106  2.1984 -2.1037 -0.0339
38234SOL     OW23479   5.682   2.052   2.242 -0.1791 -0.9047  0.0884
38234SOL    HW123480   5.706   2.077   2.332  0.7984  2.2926 -0.9063
38234SOL    HW223481   5.755   2.000   2.211  0.6629  0.0781  0.3801
38235SOL     OW23482   2.676   1.529  10.788  0.1028 -0.1578  0.1517
38235SOL    HW123483   2.589   1.511  10.822 -0.2984 -2.0528 -1.6167
38235SOL    HW223484   2.734   1.470  10.836  0.3573  0.7177  0.9500
38236SOL     OW23485   6.500   7.617   6.531 -0.4767  0.6087  0.0423
38236SOL    HW123486   6.438   7.644   6.464 -0.6027  0.9649  0.2986
38236SOL    HW223487   6.483   7.675   6.605 -0.1281  0.4284  0.2708
38237SOL     OW23488   3.414   7.196  10.884 -0.3152  0.8494 -0.5548
38237SOL    HW123489   3.351   7.252  10.838 -0.9025 -0.4171 -1.3237
38237SOL    HW223490   3.413   7.113  10.836  1.0587  0.3936  0.1429
38238SOL     OW23491   5.510   5.102   7.780  0.3349  0.1435  0.2184
38238SOL    HW123492   5.446   5.052   7.830  2.0187 -2.2801  0.0915
38238SOL    HW223493   5.458   5.144   7.711 -1.2470 -0.9992  0.6437
38239SOL     OW23494   4.573  10.984   7.483 -0.3205  0.0848 -0.0557
38239SOL    HW123495   4.555  10.891   7.497 -0.8403  0.0805 -0.7328
38239SOL    HW223496   4.572  11.022   7.571 -2.5115 -0.1179  0.0532
38240SOL     OW23497   2.814  10.693   9.950 -0.0364 -0.0170 -0.0391
38240SOL    HW123498   2.887  10.675  10.010  0.2719 -1.3210 -0.7565
38240SOL    HW223499   2.823  10.627   9.881 -2.9507 -1.3916  0.7562
38241SOL     OW23500   0.456   5.623  11.409 -0.0201  0.0695 -0.0106
38241SOL    HW123501   0.512   5.546  11.411 -0.2425 -0.1049 -0.4415
38241SOL    HW223502   0.435   5.640  11.501  0.8289  0.2067  0.1618
38242SOL     OW23503  10.629   8.032  11.568 -0.6545  0.3762  0.0435
38242SOL    HW123504  10.569   8.041  11.493 -1.1750  0.8868  0.5114
38242SOL    HW223505  10.571   8.026  11.644 -0.1447 -0.6686  0.3697
38243SOL     OW23506   2.082   7.337   0.087  0.4127 -0.0119  0.2324
38243SOL    HW123507   2.111   7.246   0.083  1.5096  0.3098  0.2974
38243SOL    HW223508   2.164   7.387   0.087 -0.0973  0.9042  2.4292
38244SOL     OW23509  10.770   7.829   4.454  0.4737  0.3653 -0.4506
38244SOL    HW123510  10.696   7.891   4.451  1.3410  1.4770  0.2303
38244SOL    HW223511  10.787   7.817   4.547  1.1514  0.1090 -0.6038
38245SOL     OW23512   6.657  10.596  10.643  0.6118 -0.3654  0.1660
38245SOL    HW123513   6.613  10.588  10.558  3.6004 -2.3473 -1.3732
38245SOL    HW223514   6.618  10.526  10.697 -0.2252 -0.1067 -0.0916
38246SOL     OW23515   1.511   6.605   1.892  0.0061 -0.3825 -0.0743
38246SOL    HW123516   1.590   6.655   1.872 -0.0168  0.2632  1.3396
38246SOL    HW223517   1.505   6.606   1.988 -0.5513 -2.2484 -0.0577
38247SOL     OW23518   3.729   3.430   9.557 -0.2950  0.6145  0.2503
38247SOL    HW123519   3.714   3.375   9.480  0.0091  0.9217 -0.0279
38247SOL    HW223520   3.649   3.418   9.610  0.6335 -1.8098  1.2676
38248SOL     OW23521   0.595   7.882  11.590 -0.2318  0.2109  0.8813
38248SOL    HW123522   0.513   7.850  11.553 -0.4289  0.7328  0.8694
38248SOL    HW223523   0.570   7.956  11.645  0.2535  0.5291  0.6850
38249SOL     OW23524   6.094   8.679   4.313 -0.1896  0.4955 -0.8068
38249SOL    HW123525   6.186   8.707   4.308 -0.0481  1.3253  3.2754
38249SOL    HW223526   6.098   8.588   4.341 -0.6466  0.1550 -1.8175
38250SOL     OW23527   7.328   3.195   4.527  0.0950 -0.2781 -0.0816
38250SOL    HW123528   7.242   3.232   4.547 -0.3964 -0.1786 -2.1657
38250SOL    HW223529   7.310   3.127   4.462  1.6353  0.1347 -0.9895
38251SOL     OW23530  11.098   6.595   8.810  0.1674 -0.1374  0.5253
38251SOL    HW123531  11.036   6.656   8.850 -1.1602 -1.9789  1.3932
38251SOL    HW223532  11.075   6.596   8.717 -0.0880  0.3988  0.5881
38252SOL     OW23533  10.335  11.938  12.500 -0.5762  0.4158 -0.2065
38252SOL    HW123534  10.304  11.958  12.588  2.3490  0.3281  0.9670
38252SOL    HW223535  10.321  11.844  12.490 -3.4502  0.8452 -1.0232
38253SOL     OW23536   3.914   3.667  11.183  0.7115 -0.0465  0.0767
38253SOL    HW123537   4.001   3.631  11.167  1.0938  0.3799  1.1429
38253SOL    HW223538   3.914   3.691  11.275 -1.0550 -1.4231  0.4881
38254SOL     OW23539  12.352   0.710   2.776  0.3997  0.2655 -0.0105
38254SOL    HW123540  12.403   0.681   2.700 -1.7375 -3.5898 -0.2439
38254SOL    HW223541  12.280   0.760   2.738  0.6391  0.4253 -0.2644
38255SOL     OW23542   6.497   7.085  12.460 -0.2642 -0.1039  0.0104
38255SOL    HW123543   6.440   7.089  12.384  0.9034 -0.4603 -0.9060
38255SOL    HW223544   6.566   7.150  12.442  0.1687 -0.3782  0.6372
38256SOL     OW23545   3.938   2.696  11.246 -0.0603  0.1027 -0.1946
38256SOL    HW123546   3.985   2.631  11.298 -1.6336 -2.5188 -1.8437
38256SOL    HW223547   3.980   2.693  11.160 -0.5907  0.8069 -0.4925
38257SOL     OW23548  11.589   6.960   1.223 -0.1830 -0.1452 -0.1506
38257SOL    HW123549  11.498   6.953   1.193  0.0180  0.6130 -0.9762
38257SOL    HW223550  11.642   6.942   1.146  0.3767 -0.4311  0.2876
38258SOL     OW23551   1.598   6.319   8.212 -0.1536  0.4043 -0.5629
38258SOL    HW123552   1.605   6.306   8.306  0.4933  0.4411 -0.6032
38258SOL    HW223553   1.664   6.262   8.174  0.4584  1.3281 -0.9233
38259SOL     OW23554   2.797   0.288   1.901 -0.0499 -0.2910 -0.0001
38259SOL    HW123555   2.767   0.200   1.876 -1.5828  0.2459 -0.1916
38259SOL    HW223556   2.847   0.318   1.825 -2.8545  0.4785 -1.7301
38260SOL     OW23557   5.180   0.185  11.482 -0.5398  0.4632 -0.2846
38260SOL    HW123558   5.169   0.090  11.487  0.9750  0.2985  0.7934
38260SOL    HW223559   5.122   0.213  11.411 -0.9045 -1.2799 -0.7122
38261SOL     OW23560   9.510   5.817   8.666  0.1730 -0.1551  0.4189
38261SOL    HW123561   9.591   5.821   8.716 -0.1335 -0.9488  0.9848
38261SOL    HW223562   9.445   5.784   8.728 -0.9415  1.8815  0.4241
38262SOL     OW23563  11.478   2.085   8.834  0.0479 -0.3637  0.4944
38262SOL    HW123564  11.434   2.148   8.778  1.9342  0.5092 -0.1019
38262SOL    HW223565  11.437   2.001   8.813 -2.3161  0.5650  1.1008
38263SOL     OW23566   9.073   6.403   0.390  0.4606  0.1380  0.2514
38263SOL    HW123567   9.090   6.492   0.421 -1.8200  0.4355  0.7908
38263SOL    HW223568   9.046   6.355   0.468 -0.3556 -0.4787 -0.3960
38264SOL     OW23569   7.429   2.609   2.596  0.1304  0.4392 -0.9131
38264SOL    HW123570   7.365   2.592   2.665  1.1936 -2.8608 -0.5655
38264SOL    HW223571   7.491   2.672   2.635 -0.6521  0.5373  0.1951
38265SOL     OW23572  11.751   3.708  10.166 -0.0161  0.1955 -0.0591
38265SOL    HW123573  11.692   3.634  10.154 -1.0454  1.2729 -2.0590
38265SOL    HW223574  11.770   3.708  10.260 -0.0785 -2.4796  0.0323
38266SOL     OW23575   9.258   3.308   6.048 -0.2333 -0.2459  0.8513
38266SOL    HW123576   9.254   3.389   5.997 -1.5183 -0.7108  0.1728
38266SOL    HW223577   9.309   3.332   6.126 -0.4708  1.1823  0.6102
38267SOL     OW23578   4.747   5.440   5.362 -0.2402 -0.3072 -0.5527
38267SOL    HW123579   4.731   5.533   5.352  2.2288  0.2095 -0.3128
38267SOL    HW223580   4.660   5.401   5.373 -1.2821  2.0012 -0.1880
38268SOL     OW23581   3.829   8.808  11.678 -0.0716 -0.3434 -0.2586
38268SOL    HW123582   3.749   8.779  11.634  0.5487 -1.4469 -0.7041
38268SOL    HW223583   3.866   8.729  11.716 -0.5488  0.5651  2.2809
38269SOL     OW23584  10.427   0.438  12.189 -0.3471  0.4429  0.1497
38269SOL    HW123585  10.368   0.398  12.253 -0.9424  0.7841 -0.1748
38269SOL    HW223586  10.409   0.532  12.195 -0.3615  0.4857 -0.4696
38270SOL     OW23587   1.567   8.051   7.084  0.1546 -0.3783  0.8413
38270SOL    HW123588   1.587   7.959   7.102  1.7837  0.0363  1.2432
38270SOL    HW223589   1.478   8.049   7.050  1.2039 -2.4682 -2.1571
38271SOL     OW23590   4.964   3.677  11.966  0.0863  0.2801 -0.3556
38271SOL    HW123591   4.979   3.770  11.982 -1.7393  0.3352  1.4915
38271SOL    HW223592   5.051   3.637  11.972  0.6108  1.5628  1.4422
38272SOL     OW23593  11.618  12.262   8.846 -0.0009 -0.4752 -0.2075
38272SOL    HW123594  11.689  12.237   8.787 -0.1168  0.2842 -0.6877
38272SOL    HW223595  11.544  12.279   8.788  0.1052  1.0621  0.0560
38273SOL     OW23596   2.006   3.437   7.494  0.1356 -0.1667  0.4570
38273SOL    HW123597   2.009   3.355   7.542  1.1755  0.2272  1.0942
38273SOL    HW223598   2.095   3.448   7.459  0.3735  1.2501  1.3835
38274SOL     OW23599   7.600  12.088   5.025  1.1228 -0.3097  0.7001
38274SOL    HW123600   7.642  12.067   4.942  0.6485  1.1895  0.0428
38274SOL    HW223601   7.603  12.006   5.075  3.4243 -0.6504  0.1069
38275SOL     OW23602   8.776  10.006   3.283  0.9664 -0.4889  0.4351
38275SOL    HW123603   8.725  10.080   3.315  1.4401  0.4292 -0.8376
38275SOL    HW223604   8.854  10.004   3.340  1.8765  1.2097 -0.6573
38276SOL     OW23605   7.711   2.104  12.513  0.2781 -0.1106 -0.0418
38276SOL    HW123606   7.791   2.085  12.563 -0.4193 -1.3603  0.6601
38276SOL    HW223607   7.641   2.101  12.579 -0.3505  1.0381 -0.6315
38277SOL     OW23608   5.476   3.002   2.207 -0.2000 -0.2382 -0.2458
38277SOL    HW123609   5.442   3.000   2.296 -2.3215  1.7111 -0.9350
38277SOL    HW223610   5.405   2.968   2.153  0.2246  0.6613 -1.4079
38278SOL     OW23611   4.639   4.967   7.597  0.2397  0.3895 -0.0422
38278SOL    HW123612   4.715   4.912   7.617  0.6096  0.2271 -1.7542
38278SOL    HW223613   4.676   5.049   7.565 -0.3046  0.4611 -0.4941
38279SOL     OW23614  12.370  12.230   0.291 -0.3195  0.0990  0.0454
38279SOL    HW123615  12.290  12.282   0.293 -0.1066  0.4124  0.9359
38279SOL    HW223616  12.344  12.149   0.247 -0.9913  0.4140 -0.1564
38280SOL     OW23617  11.961   3.235  12.380  0.2078  0.6906  0.2728
38280SOL    HW123618  11.911   3.314  12.398  0.0899  1.1544 -1.9136
38280SOL    HW223619  11.921   3.168  12.437 -1.5224  1.5302  0.0954
38281SOL     OW23620   8.940   0.744   2.509 -0.2733 -0.4242 -0.1264
38281SOL    HW123621   8.914   0.836   2.505  0.6790 -0.1638 -0.5714
38281SOL    HW223622   8.947   0.717   2.418  0.5687 -0.5990 -0.0231
38282SOL     OW23623   5.658   1.555   4.305  0.0539  0.5361  0.0662
38282SOL    HW123624   5.583   1.614   4.315  0.8691  1.4793  0.7057
38282SOL    HW223625   5.702   1.585   4.226  0.7001  1.0724  0.6138
38283SOL     OW23626   3.453   7.550   6.887  0.2521 -0.5529  0.5021
38283SOL    HW123627   3.386   7.494   6.849 -2.4788  1.7807  1.5866
38283SOL    HW223628   3.435   7.549   6.981  1.7754  0.1216  0.8323
38284SOL     OW23629  11.161  11.717   0.542  0.2075 -0.3833  0.8595
38284SOL    HW123630  11.201  11.690   0.625  1.1078 -0.1074  0.5208
38284SOL    HW223631  11.117  11.638   0.510  1.4422 -1.0144  0.6778
38285SOL     OW23632   6.513   1.415   8.307  0.8759  0.0677  0.5910
38285SOL    HW123633   6.607   1.413   8.320  0.9537 -0.3472  0.0124
38285SOL    HW223634   6.492   1.329   8.271  0.3369  0.2952  0.3442
38286SOL     OW23635   7.520   0.252  11.048 -0.1383 -0.2040 -0.2145
38286SOL    HW123636   7.538   0.161  11.072  0.7922  0.3994  1.5362
38286SOL    HW223637   7.424   0.260  11.053 -0.1093 -0.4891  2.1974
38287SOL     OW23638  11.476   6.028  11.354 -0.1049 -0.0316  0.3011
38287SOL    HW123639  11.402   6.083  11.378  1.0065  1.9792 -0.6550
38287SOL    HW223640  11.543   6.089  11.325  1.6417 -1.8396  0.3105
38288SOL     OW23641  12.068  11.531  10.812 -0.1419 -0.4545 -0.2378
38288SOL    HW123642  12.040  11.439  10.814 -0.6231 -0.2985  0.8456
38288SOL    HW223643  11.992  11.580  10.845  0.4998  0.2261  0.2409
38289SOL     OW23644   6.396   3.386   6.994 -0.1020  0.3710  0.3127
38289SOL    HW123645   6.333   3.450   6.962 -0.6843 -0.3090  0.0626
38289SOL    HW223646   6.347   3.336   7.060 -0.7762 -2.0180 -1.8626
38290SOL     OW23647   4.688  10.538  11.673 -0.3724 -0.3082 -0.2520
38290SOL    HW123648   4.678  10.451  11.635 -1.3080  0.0943 -0.9588
38290SOL    HW223649   4.734  10.523  11.756 -2.5578 -1.7654  0.7769
38291SOL     OW23650   4.647   9.983   1.387 -0.1226 -0.1075 -0.1000
38291SOL    HW123651   4.742   9.981   1.392  0.0586  0.7427 -2.1491
38291SOL    HW223652   4.622   9.891   1.377  0.6211 -0.2309 -0.9811
38292SOL     OW23653  10.429   0.633   5.648  0.0783  0.2709  0.7081
38292SOL    HW123654  10.402   0.601   5.562 -0.4099 -0.9874  1.3062
38292SOL    HW223655  10.517   0.667   5.634  0.2264 -0.4325 -0.1779
38293SOL     OW23656  10.011   6.858   3.233 -0.1886 -0.0980 -0.1686
38293SOL    HW123657   9.958   6.821   3.162 -0.9103 -0.1673  0.3905
38293SOL    HW223658  10.053   6.782   3.274 -0.0144 -0.0901 -0.3341
38294SOL     OW23659   4.076   4.497   9.732  0.6158 -0.2039  0.7487
38294SOL    HW123660   4.164   4.467   9.752 -0.1212 -3.1062  0.0537
38294SOL    HW223661   4.068   4.486   9.637  0.0973  1.9016  0.4940
38295SOL     OW23662   0.182   6.392   8.452 -0.4172 -0.1343 -0.1885
38295SOL    HW123663   0.182   6.399   8.547 -1.0014  0.0916 -0.1944
38295SOL    HW223664   0.156   6.480   8.422 -1.9785 -0.6685 -0.4895
38296SOL     OW23665   8.432   1.883   6.534  0.2626  0.0084  0.4246
38296SOL    HW123666   8.394   1.960   6.577  2.0764  1.6554 -0.7492
38296SOL    HW223667   8.418   1.899   6.440  1.6537 -0.5321  0.1075
38297SOL     OW23668   5.090   0.149   6.010  0.1673  0.3290 -0.2787
38297SOL    HW123669   5.106   0.138   6.104  0.4171  3.6101  0.1870
38297SOL    HW223670   5.051   0.236   6.003  0.5771  0.3677 -3.2647
38298SOL     OW23671   4.546   0.544   1.855 -0.0455 -0.0534  0.3564
38298SOL    HW123672   4.635   0.531   1.821 -0.2082 -1.7960  0.5136
38298SOL    HW223673   4.492   0.481   1.807 -1.3556  1.4514 -0.2296
38299SOL     OW23674   4.591  12.273   6.334 -0.6693  0.5803  0.3422
38299SOL    HW123675   4.647  12.225   6.272 -0.5683  1.4421 -0.2513
38299SOL    HW223676   4.567  12.208   6.400 -0.5338 -0.2935 -0.4415
38300SOL     OW23677   6.658  12.607  12.434 -0.4342 -0.1558 -0.1429
38300SOL    HW123678   6.644  12.681  12.492  0.4611  1.6260 -2.0711
38300SOL    HW223679   6.604  12.537  12.470 -0.7577  1.1890  2.1485
38301SOL     OW23680   6.905   1.982  11.086  0.3367 -0.3199 -0.2330
38301SOL    HW123681   6.928   2.067  11.122  0.4837  0.4873 -2.1045
38301SOL    HW223682   6.984   1.953  11.040  0.8815 -2.3185  1.7645
38302SOL     OW23683   6.924   9.245   4.271 -0.0211 -0.3158 -0.4126
38302SOL    HW123684   6.897   9.252   4.362 -1.5090  2.1783 -0.9585
38302SOL    HW223685   7.017   9.219   4.276 -0.2057 -0.7843  1.7413
38303SOL     OW23686   9.671  11.558   2.856  0.0056 -0.0304  0.5686
38303SOL    HW123687   9.703  11.544   2.945  0.7488  0.0220  0.3124
38303SOL    HW223688   9.748  11.585   2.807 -0.0520 -1.5657 -0.4497
38304SOL     OW23689   5.497  11.860  12.265 -0.8403  0.4406 -0.2564
38304SOL    HW123690   5.547  11.844  12.345 -0.2142 -0.4590 -0.8077
38304SOL    HW223691   5.407  11.873  12.295 -0.8299 -1.0644  0.5134
38305SOL     OW23692  12.459  11.963   5.261 -0.2375 -0.0216  0.2656
38305SOL    HW123693  12.530  11.910   5.225 -0.7103  1.0360 -2.3930
38305SOL    HW223694  12.379  11.924   5.226 -0.6711  1.5582 -0.5966
38306SOL     OW23695   6.678  10.461   7.351  0.3473  0.0198  0.0643
38306SOL    HW123696   6.687  10.517   7.274 -2.7740  0.8107  0.1518
38306SOL    HW223697   6.727  10.507   7.419 -0.4697  1.6399 -0.3776
38307SOL     OW23698   8.349   2.560   3.589 -0.2779  0.0387 -0.3645
38307SOL    HW123699   8.388   2.505   3.522 -1.2469 -0.0746 -0.8508
38307SOL    HW223700   8.412   2.631   3.601  0.3796 -0.4841 -0.6498
38308SOL     OW23701   4.257   4.587   4.651 -0.0332  0.1670 -0.7226
38308SOL    HW123702   4.307   4.647   4.707  0.5931  0.4652 -1.5694
38308SOL    HW223703   4.172   4.629   4.641  0.6657  1.3451 -1.9566
38309SOL     OW23704   6.503   8.708   3.589  0.3616  0.7663  0.0498
38309SOL    HW123705   6.544   8.745   3.511 -0.6876  2.3454  0.1925
38309SOL    HW223706   6.574   8.701   3.652  1.2934 -0.8674 -1.1312
38310SOL     OW23707   9.560   6.399   2.394  0.0806  0.1729  0.3770
38310SOL    HW123708   9.599   6.480   2.360 -0.3877  0.6384  0.9208
38310SOL    HW223709   9.542   6.347   2.315 -0.4834  1.0070 -0.0665
38311SOL     OW23710   7.074   2.233   9.995  0.2736 -0.1518  0.3623
38311SOL    HW123711   6.985   2.228  10.029  0.2416  0.5091  0.3941
38311SOL    HW223712   7.110   2.145  10.007  0.0132 -0.1250  1.4057
38312SOL     OW23713   8.904   9.610   1.914 -0.2322  0.1984 -0.1520
38312SOL    HW123714   8.953   9.536   1.879  0.5753  0.3454  0.6272
38312SOL    HW223715   8.875   9.658   1.837  1.8976  0.7805 -0.6552
38313SOL     OW23716   9.799   2.509   9.294 -0.3944  0.1237  0.5961
38313SOL    HW123717   9.802   2.524   9.389 -0.0456  1.7459  0.3557
38313SOL    HW223718   9.851   2.580   9.257  0.0371 -0.8721 -0.7887
38314SOL     OW23719   1.065  10.864   3.547  0.2597  0.2870  0.3482
38314SOL    HW123720   1.130  10.925   3.580  1.3401 -0.4400 -0.3640
38314SOL    HW223721   1.000  10.919   3.502  1.5041  0.8847 -0.7752
38315SOL     OW23722  11.268  12.291  10.474  0.4734 -0.5213 -0.8651
38315SOL    HW123723  11.314  12.374  10.464 -0.8087  0.3075 -0.2045
38315SOL    HW223724  11.292  12.260  10.561  0.1741 -0.3302 -0.7124
38316SOL     OW23725   7.629   9.972   4.411  0.2431  0.1706 -0.3168
38316SOL    HW123726   7.639  10.019   4.328  2.3119 -0.3091 -0.4020
38316SOL    HW223727   7.537   9.983   4.434  0.2063  2.6138 -1.3073
38317SOL     OW23728   1.000   6.214   9.163 -0.4032 -0.2851  0.2867
38317SOL    HW123729   0.906   6.220   9.152 -0.1788  0.2397 -1.5919
38317SOL    HW223730   1.030   6.305   9.161  0.2146 -0.4872  0.1902
38318SOL     OW23731   5.759   7.511   8.053 -0.3100  0.4305 -0.1585
38318SOL    HW123732   5.830   7.446   8.050 -0.6441  0.0706 -0.3125
38318SOL    HW223733   5.804   7.596   8.052  0.0867  0.2167 -1.1918
38319SOL     OW23734   9.923   4.251   5.156  0.0756 -0.2065  0.3120
38319SOL    HW123735  10.019   4.247   5.158  0.0665 -0.2559  0.7059
38319SOL    HW223736   9.904   4.305   5.080  0.3543 -2.2010 -1.2644
38320SOL     OW23737   2.325   3.199   8.062  0.0064  0.0741  0.4763
38320SOL    HW123738   2.238   3.176   8.093 -0.1662  0.3916  0.2322
38320SOL    HW223739   2.342   3.139   7.989  0.2827 -0.4576  0.9660
38321SOL     OW23740  11.636  10.395   4.742  0.1416 -0.0889  0.3762
38321SOL    HW123741  11.682  10.466   4.787 -0.1013  0.3853 -0.1181
38321SOL    HW223742  11.564  10.437   4.697  0.8789 -0.4125 -1.1897
38322SOL     OW23743   6.635   2.706   9.847 -0.3448 -0.7648  0.3509
38322SOL    HW123744   6.694   2.737   9.915  0.4202 -2.0980  0.3406
38322SOL    HW223745   6.655   2.761   9.771  0.1054 -0.4837  0.6710
38323SOL     OW23746   8.238   6.173   8.330 -0.6391  0.1100 -0.1583
38323SOL    HW123747   8.187   6.116   8.387 -0.4988 -0.3521 -0.4865
38323SOL    HW223748   8.327   6.170   8.366 -1.0507  1.8128  1.0946
38324SOL     OW23749   4.686   2.815   0.056 -0.0850  0.3217 -0.3070
38324SOL    HW123750   4.720   2.770  -0.021  2.4139  1.4806  0.0122
38324SOL    HW223751   4.675   2.906   0.028  0.6714  0.7179  0.6182
38325SOL     OW23752  11.219  11.934   5.433  0.0628  0.4524 -0.5912
38325SOL    HW123753  11.196  11.989   5.508 -0.4294  0.9339 -1.0809
38325SOL    HW223754  11.145  11.874   5.424 -1.6221  2.6334 -2.7633
38326SOL     OW23755  10.559   2.084   1.535  0.2010 -0.0163 -0.3482
38326SOL    HW123756  10.497   2.016   1.560 -1.3099  0.8896 -1.4428
38326SOL    HW223757  10.580   2.066   1.444 -1.0090  1.4853 -0.9744
38327SOL     OW23758   9.956   0.171  12.054 -0.2901  0.7449  0.1533
38327SOL    HW123759   9.894   0.105  12.021 -0.9983  1.4577  0.0246
38327SOL    HW223760  10.041   0.141  12.022 -0.8344  0.9596 -1.6552
38328SOL     OW23761  12.104   7.554   8.468 -0.1905 -0.2857  0.2930
38328SOL    HW123762  12.073   7.561   8.377 -0.2516 -0.2992  0.3127
38328SOL    HW223763  12.163   7.628   8.479  0.5658 -0.8256 -0.0507
38329SOL     OW23764   2.145   9.763  12.515 -0.2838  0.0305 -0.2038
38329SOL    HW123765   2.186   9.706  12.450  1.0848  1.0651 -0.2972
38329SOL    HW223766   2.139   9.710  12.594  0.1973 -0.5099 -0.5263
38330SOL     OW23767   8.994   8.745   3.948 -0.3261 -0.1138 -0.1513
38330SOL    HW123768   8.965   8.753   3.857 -2.2756 -0.2400  0.4042
38330SOL    HW223769   9.040   8.661   3.951 -1.5248 -0.8222 -0.7313
38331SOL     OW23770   9.918   0.910   9.587 -0.3465  0.3332  0.1250
38331SOL    HW123771   9.842   0.877   9.635 -0.6908  0.2277 -0.4819
38331SOL    HW223772   9.881   0.976   9.528 -0.4651 -1.7662 -2.3162
38332SOL     OW23773   7.164   0.759   8.067 -0.2522  0.5880  0.1245
38332SOL    HW123774   7.198   0.670   8.061 -1.5311  0.0835 -0.0012
38332SOL    HW223775   7.230   0.812   8.022  1.0423 -0.1176  1.1015
38333SOL     OW23776   2.467  11.738   2.831 -0.5224  0.8597  0.4572
38333SOL    HW123777   2.507  11.726   2.745  0.6792  0.9189  0.9915
38333SOL    HW223778   2.373  11.735   2.814 -0.3094 -0.8316 -0.6268
38334SOL     OW23779   0.450  11.790   1.456  0.1514 -0.4074 -0.2665
38334SOL    HW123780   0.406  11.820   1.377 -0.0963 -2.3593 -0.9137
38334SOL    HW223781   0.528  11.744   1.424  0.6020 -0.3475  0.6938
38335SOL     OW23782   6.091   9.019   7.730 -0.3465 -0.1642  0.2842
38335SOL    HW123783   6.018   9.079   7.746  0.9691  1.4520  0.4857
38335SOL    HW223784   6.132   9.052   7.650  0.9148 -0.2612  0.8689
38336SOL     OW23785  11.530  12.076   8.215 -0.3930  0.2937  0.0999
38336SOL    HW123786  11.607  12.115   8.173 -0.3330 -0.2446 -0.2984
38336SOL    HW223787  11.540  12.097   8.308  0.2709  0.1825  0.0601
38337SOL     OW23788   0.443  11.747   3.827  0.0946  0.0278 -0.5788
38337SOL    HW123789   0.374  11.693   3.866  0.5310 -0.1094 -0.0002
38337SOL    HW223790   0.397  11.826   3.797 -0.8213 -1.2759 -2.8089
38338SOL     OW23791  11.681   9.365   4.509  0.3022  0.2518  0.1325
38338SOL    HW123792  11.645   9.340   4.594  2.1388 -0.3175  0.7780
38338SOL    HW223793  11.725   9.449   4.526  0.9051  0.0028 -0.1937
38339SOL     OW23794  11.500   0.394   5.563 -0.0155  0.5956  0.1042
38339SOL    HW123795  11.531   0.475   5.605  2.7327 -1.2489  1.9518
38339SOL    HW223796  11.567   0.373   5.499 -0.7716 -0.1764 -0.4572
38340SOL     OW23797   4.404   1.921   9.188 -0.1444 -0.6705 -0.0019
38340SOL    HW123798   4.450   1.915   9.105 -0.5768 -1.3449 -0.1990
38340SOL    HW223799   4.313   1.943   9.164 -0.2999 -0.9951  0.2821
38341SOL     OW23800   0.293  12.299  10.312 -0.2822  0.0046 -0.1868
38341SOL    HW123801   0.317  12.261  10.396 -1.0712  1.2615  0.6429
38341SOL    HW223802   0.303  12.394  10.324 -0.0058  0.1921 -1.6456
38342SOL     OW23803  10.129   8.500   2.401  0.6426 -0.0880  0.0088
38342SOL    HW123804  10.166   8.430   2.347 -1.0305  0.2648 -1.6941
38342SOL    HW223805  10.062   8.455   2.454  0.1326  0.0685 -0.4939
38343SOL     OW23806   7.321   4.071   0.649  0.7940  0.6478 -0.7661
38343SOL    HW123807   7.324   4.167   0.644  1.1200  0.7567  0.8362
38343SOL    HW223808   7.268   4.053   0.727  2.6746 -0.3926  0.3499
38344SOL     OW23809  11.955   0.065   6.429 -0.0780  0.0671  0.4657
38344SOL    HW123810  11.994  -0.023   6.424 -1.4327 -0.5439  0.1559
38344SOL    HW223811  11.870   0.051   6.470 -2.3066  0.4673 -3.4831
38345SOL     OW23812  11.472   0.422  10.240  0.3081 -0.3697 -0.1791
38345SOL    HW123813  11.448   0.333  10.268  1.0708 -0.4669  0.1926
38345SOL    HW223814  11.392   0.473  10.253  0.1035 -0.8210  0.4213
38346SOL     OW23815   9.403   4.509  10.633  0.6592  0.2836  0.4069
38346SOL    HW123816   9.332   4.573  10.633  0.3514 -0.0469  1.2602
38346SOL    HW223817   9.371   4.437  10.687  1.2527 -0.3173 -0.0228
38347SOL     OW23818   9.752   6.440  10.141 -0.0518 -0.5709  0.4364
38347SOL    HW123819   9.748   6.349  10.168  1.0262 -0.7979 -0.1323
38347SOL    HW223820   9.842   6.467  10.158 -0.3680  0.4080  0.6454
38348SOL     OW23821  11.263   0.820   5.647 -0.1137 -0.3459 -0.0841
38348SOL    HW123822  11.282   0.775   5.730  0.9914  0.6650  0.2480
38348SOL    HW223823  11.173   0.850   5.656  0.3406  0.7368  1.2630
38349SOL     OW23824  10.681  11.474   0.348 -0.2558  0.0985  0.0568
38349SOL    HW123825  10.666  11.384   0.376  0.1600 -0.0673 -0.2325
38349SOL    HW223826  10.603  11.522   0.374 -0.3386 -0.2816  0.4998
38350SOL     OW23827   3.755   2.596   7.317 -0.4088 -0.5860 -0.8425
38350SOL    HW123828   3.808   2.609   7.396 -0.6439  0.1633 -0.7964
38350SOL    HW223829   3.672   2.559   7.348 -0.8898  0.6468 -0.6046
38351SOL     OW23830   3.240  11.931   7.924 -0.2063 -0.3832 -0.2775
38351SOL    HW123831   3.311  11.895   7.871 -0.8483 -1.3063 -0.5243
38351SOL    HW223832   3.279  12.008   7.966  0.4594  0.0779 -1.6740
38352SOL     OW23833   0.705   9.369  11.576  0.5203  0.3780 -0.1149
38352SOL    HW123834   0.717   9.312  11.652 -0.5860  2.3928  1.6790
38352SOL    HW223835   0.612   9.366  11.557  0.0375  2.9473  1.2931
38353SOL     OW23836   0.583  11.729   4.072 -0.1654  0.2989  0.2807
38353SOL    HW123837   0.535  11.687   4.143 -0.1482  0.9448  0.6833
38353SOL    HW223838   0.524  11.724   3.997 -1.5997  2.5191  1.1583
38354SOL     OW23839   3.871   7.193  11.024  0.2071  0.3829  0.5150
38354SOL    HW123840   3.873   7.259  10.955 -0.2715 -0.8096 -0.6719
38354SOL    HW223841   3.824   7.119  10.986  2.0753 -1.2697  1.2250
38355SOL     OW23842   0.803   5.082   1.092 -0.3974 -0.0225 -0.5692
38355SOL    HW123843   0.784   5.138   1.166  0.2677 -1.1019  0.4713
38355SOL    HW223844   0.733   5.098   1.029 -0.4008  1.6759 -0.1556
38356SOL     OW23845   6.890   7.205   0.136  0.0777  0.4637 -0.6086
38356SOL    HW123846   6.797   7.214   0.116  0.0393  2.7544  0.2789
38356SOL    HW223847   6.894   7.199   0.231  0.8621  1.6005 -0.5452
38357SOL     OW23848   6.401   4.565   7.080 -0.8400  0.0837  1.0923
38357SOL    HW123849   6.339   4.636   7.096 -1.6860 -0.1640 -0.8178
38357SOL    HW223850   6.473   4.606   7.032 -1.5257 -0.3458 -0.3952
38358SOL     OW23851   8.859   7.213   2.702  0.1988 -0.1888 -0.3164
38358SOL    HW123852   8.890   7.300   2.727 -2.0946  0.8097 -0.6226
38358SOL    HW223853   8.804   7.185   2.776  0.9223 -1.3939 -0.2188
38359SOL     OW23854   9.199   2.021   0.603 -0.1507  0.2631  0.3235
38359SOL    HW123855   9.233   1.997   0.517 -0.2669  1.3440 -0.0474
38359SOL    HW223856   9.225   1.950   0.661  1.3935  0.3219 -0.2709
38360SOL     OW23857  10.945   2.143   0.807  0.2633  0.4243 -0.0545
38360SOL    HW123858  11.021   2.128   0.750  0.1159 -0.4396 -0.0255
38360SOL    HW223859  10.878   2.082   0.775 -0.4245  1.1613 -0.0727
38361SOL     OW23860   2.875   4.688   4.427  0.3271  0.1090 -0.0775
38361SOL    HW123861   2.788   4.725   4.414 -0.1927 -0.5625  1.3291
38361SOL    HW223862   2.907   4.672   4.338 -0.2753  1.9198 -0.6705
38362SOL     OW23863   9.303   7.216   7.422 -0.3301  0.2134  0.6385
38362SOL    HW123864   9.371   7.279   7.446 -0.7346  0.1827  1.9220
38362SOL    HW223865   9.316   7.142   7.482 -0.6882 -0.3668  0.0248
38363SOL     OW23866   4.723   8.299   7.375  0.5098  0.3314 -0.4828
38363SOL    HW123867   4.641   8.331   7.413  1.7158  0.2416  2.4670
38363SOL    HW223868   4.743   8.362   7.306 -0.2644  2.4827  1.1418
38364SOL     OW23869   1.598   9.043   1.609  0.0751  0.5096 -0.4969
38364SOL    HW123870   1.583   9.106   1.680  1.6550  1.7529 -1.2033
38364SOL    HW223871   1.692   9.045   1.594 -0.0924 -0.5205 -1.9140
38365SOL     OW23872  11.887  11.914   2.666  0.3290  0.2565  0.5104
38365SOL    HW123873  11.970  11.943   2.627  0.3521  0.9723  1.0636
38365SOL    HW223874  11.913  11.866   2.744  0.2387 -0.0539  0.3512
38366SOL     OW23875   8.166   0.711   8.608  0.4054 -0.2461  0.2108
38366SOL    HW123876   8.258   0.708   8.582  0.1542  0.4885 -0.8440
38366SOL    HW223877   8.140   0.802   8.592 -0.2445 -0.1924  1.4484
38367SOL     OW23878  10.549   4.937   6.895  0.1059 -0.6193 -0.0701
38367SOL    HW123879  10.461   4.962   6.924  0.3914 -0.4998  0.6924
38367SOL    HW223880  10.538   4.848   6.862  0.1052 -1.4841  2.0929
38368SOL     OW23881   5.148  10.815   1.961  0.2965 -0.2967  0.0129
38368SOL    HW123882   5.195  10.898   1.969 -0.6830  0.3933 -1.1116
38368SOL    HW223883   5.213  10.749   1.984  1.3843  0.7247 -0.0343
38369SOL     OW23884  10.478   6.029   8.136 -0.0497  0.4565  0.1908
38369SOL    HW123885  10.442   5.950   8.177 -0.0345 -0.0144 -0.6923
38369SOL    HW223886  10.460   6.099   8.199  2.9360 -0.7228  2.6640
38370SOL     OW23887  10.941  11.813   8.492  0.2347 -0.6047  0.2902
38370SOL    HW123888  10.935  11.789   8.400  1.1940 -1.0155  0.3270
38370SOL    HW223889  10.854  11.793   8.528  0.4725 -2.4182 -0.0618
38371SOL     OW23890   9.992  10.825   3.679  0.2793 -0.7195 -0.5125
38371SOL    HW123891  10.058  10.756   3.688  2.4121  1.1480 -0.9489
38371SOL    HW223892   9.909  10.781   3.700  1.6548 -3.0943  0.4432
38372SOL     OW23893   4.245   5.543   0.107  0.0281  0.2330  0.4793
38372SOL    HW123894   4.167   5.597   0.098 -0.1197  0.0899  0.8644
38372SOL    HW223895   4.257   5.503   0.021  1.9059  3.2186 -0.7922
38373SOL     OW23896   0.660   2.205   7.629  0.3402 -0.0609 -0.1519
38373SOL    HW123897   0.575   2.247   7.620 -0.2275 -0.9883  0.6776
38373SOL    HW223898   0.718   2.254   7.569  0.1366  2.8592  1.8561
38374SOL     OW23899   2.727   2.561   6.095  0.1276 -0.0886 -0.5861
38374SOL    HW123900   2.707   2.470   6.072 -2.5262  0.1013  0.5146
38374SOL    HW223901   2.741   2.605   6.012  0.6408 -1.3317 -1.1783
38375SOL     OW23902   3.010   6.171   3.001 -0.4770 -0.0658  0.9748
38375SOL    HW123903   3.080   6.107   2.987 -0.5956  0.3000 -1.9684
38375SOL    HW223904   3.051   6.240   3.053  0.8415 -0.6578  0.7705
38376SOL     OW23905   7.375   9.423   7.486  0.4318 -0.7270  0.4433
38376SOL    HW123906   7.295   9.453   7.443  1.3502  1.8141  0.3494
38376SOL    HW223907   7.354   9.423   7.579  0.1096 -0.7985  0.3715
38377SOL     OW23908  10.407   8.441   4.276  0.3871  0.2458  0.1065
38377SOL    HW123909  10.363   8.365   4.238  1.7796 -0.6214  0.1589
38377SOL    HW223910  10.407   8.507   4.206  0.0103 -0.1387 -0.2592
38378SOL     OW23911   3.067   8.616   4.659  0.4221  0.2528  0.0436
38378SOL    HW123912   3.040   8.526   4.641 -0.7390  0.1179  2.1086
38378SOL    HW223913   3.162   8.612   4.665  0.4063 -0.7727 -0.2450
38379SOL     OW23914   6.461  10.649   8.760  1.1605 -0.4714  0.1472
38379SOL    HW123915   6.508  10.603   8.690  0.9339 -0.9464  0.3022
38379SOL    HW223916   6.515  10.726   8.778  1.1652 -0.2814 -0.6232
38380SOL     OW23917  10.944   2.169   3.265 -0.0332  0.3936  0.1399
38380SOL    HW123918  10.923   2.239   3.204 -1.2820 -1.9226 -2.3022
38380SOL    HW223919  11.040   2.164   3.263  0.0415  1.6393 -0.0587
38381SOL     OW23920   6.459   0.804   6.604 -0.2915 -0.4365  0.0910
38381SOL    HW123921   6.473   0.714   6.635 -0.1557 -0.4468 -0.0011
38381SOL    HW223922   6.371   0.803   6.566 -1.1218 -0.0556  1.8587
38382SOL     OW23923   0.596   2.800  11.965 -0.3445  0.6994  0.4334
38382SOL    HW123924   0.610   2.711  11.934 -1.5732  0.8950 -0.7565
38382SOL    HW223925   0.504   2.801  11.993  0.1684  1.0956  2.2168
38383SOL     OW23926  10.571   6.247   0.631  0.4373 -0.6985 -0.2450
38383SOL    HW123927  10.650   6.232   0.579  0.7542 -1.6542  0.4854
38383SOL    HW223928  10.598   6.232   0.722 -0.4504 -0.5026  0.0649
38384SOL     OW23929  12.316   4.379  11.732 -0.1490  0.3544  0.4747
38384SOL    HW123930  12.335   4.360  11.640 -0.3163 -1.9103  0.8530
38384SOL    HW223931  12.396   4.419  11.766  1.4971 -2.4999  0.2778
38385SOL     OW23932   7.075   4.424   2.767  0.3545 -0.4498  0.1906
38385SOL    HW123933   7.049   4.509   2.732 -2.5803  0.7810  4.4352
38385SOL    HW223934   7.159   4.440   2.809  1.0714 -0.4301 -1.1913
38386SOL     OW23935   5.944   1.527  10.361 -0.8773  0.2348 -0.2062
38386SOL    HW123936   5.997   1.480  10.425 -1.0088  0.9125  0.4132
38386SOL    HW223937   5.869   1.560  10.410 -2.3017 -1.3235 -1.2123
38387SOL     OW23938   1.940   5.142   3.495  0.4185 -0.0914 -0.1385
38387SOL    HW123939   1.959   5.235   3.488  3.0710 -0.4740  0.9372
38387SOL    HW223940   2.021   5.098   3.469 -1.0703 -2.1723 -1.5870
38388SOL     OW23941   4.993  10.889   3.192 -0.3137 -0.2913 -0.0559
38388SOL    HW123942   5.029  10.956   3.249 -0.9157  1.1749 -1.3378
38388SOL    HW223943   4.898  10.898   3.200 -0.5291  1.7102 -3.0959
38389SOL     OW23944   0.558  11.578   7.847  0.4888  0.1821  0.1519
38389SOL    HW123945   0.517  11.494   7.866  0.0115  0.2227 -0.6527
38389SOL    HW223946   0.599  11.604   7.929  0.4809 -0.7489  0.4528
38390SOL     OW23947   0.444   6.846   0.034  0.2365 -0.1841 -0.4585
38390SOL    HW123948   0.417   6.880  -0.051 -0.3527 -0.0183 -0.2048
38390SOL    HW223949   0.434   6.751   0.025 -2.6125 -0.0453  0.3402
38391SOL     OW23950   7.120   8.558   1.907  0.0472  0.2294 -0.5812
38391SOL    HW123951   7.179   8.595   1.842 -0.9239  0.2395 -1.4892
38391SOL    HW223952   7.160   8.475   1.932  0.6020  0.3807 -0.9531
38392SOL     OW23953   4.949   0.331   0.519  0.3350 -0.1465  0.0385
38392SOL    HW123954   4.932   0.297   0.607  1.1669 -1.4943 -0.2916
38392SOL    HW223955   4.877   0.392   0.503 -0.0065 -0.1085  1.5232
38393SOL     OW23956   2.132   3.608  12.147  0.1607  0.0470 -0.0371
38393SOL    HW123957   2.107   3.699  12.159 -0.8485  0.1889 -2.6494
38393SOL    HW223958   2.219   3.612  12.107  0.0602 -0.1337 -0.2733
38394SOL     OW23959   1.414   8.535   3.940  0.0954 -0.3067 -0.4762
38394SOL    HW123960   1.395   8.533   4.033  0.9901 -0.7865 -0.2889
38394SOL    HW223961   1.381   8.451   3.907 -1.1603  0.2917 -0.8054
38395SOL     OW23962   3.726   7.030  10.851  0.3001 -0.4398  0.2465
38395SOL    HW123963   3.649   6.999  10.803 -0.0668 -1.1892  1.2753
38395SOL    HW223964   3.776   6.951  10.870  1.3232  0.0342 -0.3693
38396SOL     OW23965   7.622   3.176   8.277 -0.2445 -0.0400 -0.4412
38396SOL    HW123966   7.529   3.174   8.256 -0.7182 -0.7727  1.4913
38396SOL    HW223967   7.630   3.243   8.344  0.8315  0.7955 -1.3746
38397SOL     OW23968   1.183   3.072   0.886  0.4462  0.1213  0.2997
38397SOL    HW123969   1.211   3.153   0.929 -2.1552 -0.5199  3.6420
38397SOL    HW223970   1.110   3.098   0.831  0.8381  0.2658 -0.1657
38398SOL     OW23971  12.384   0.305   5.723  0.1013 -0.2219  0.0398
38398SOL    HW123972  12.357   0.340   5.637 -0.9770  0.4576  0.6266
38398SOL    HW223973  12.418   0.217   5.703 -2.3440 -1.0627 -0.8571
38399SOL     OW23974   5.413   4.215   0.643 -0.2041 -0.8198  0.5242
38399SOL    HW123975   5.323   4.215   0.675 -0.7992 -0.9018 -1.0377
38399SOL    HW223976   5.467   4.203   0.721 -1.5310 -0.5196  1.5195
38400SOL     OW23977   8.625   7.576   4.401 -0.0648 -0.8128  0.3381
38400SOL    HW123978   8.641   7.484   4.424 -2.6904 -1.1609  1.0948
38400SOL    HW223979   8.592   7.616   4.482 -1.8791 -0.0287 -0.7149
38401SOL     OW23980  11.835  10.106   0.616 -0.4692  0.4647  0.7898
38401SOL    HW123981  11.840  10.030   0.675 -0.9604  0.1107  0.3835
38401SOL    HW223982  11.803  10.070   0.534 -2.6129  1.4311  1.1490
38402SOL     OW23983   4.162   7.079   8.912  0.3780 -0.2082 -0.3404
38402SOL    HW123984   4.153   7.001   8.857  1.3096 -0.9125  0.4813
38402SOL    HW223985   4.074   7.094   8.947  0.7090 -2.5887  1.7318
38403SOL     OW23986   1.347   3.890   8.460 -0.2825  0.1854 -0.0871
38403SOL    HW123987   1.288   3.957   8.426 -0.3955 -0.6859 -1.6983
38403SOL    HW223988   1.294   3.840   8.522 -1.3792 -0.7689 -1.7278
38404SOL     OW23989   9.066   5.445   2.091  0.6899 -0.2355  0.0860
38404SOL    HW123990   9.000   5.378   2.071  1.1952 -0.6031 -0.3552
38404SOL    HW223991   9.071   5.497   2.011  0.8688 -0.1524  0.1529
38405SOL     OW23992  11.716   1.276   3.859 -0.0283 -0.0924  0.4645
38405SOL    HW123993  11.791   1.223   3.832  0.3558 -0.4486  2.1062
38405SOL    HW223994  11.665   1.287   3.779  0.2317 -2.3477 -0.1000
38406SOL     OW23995  11.131   8.023   5.345 -0.3139  0.2682 -0.2186
38406SOL    HW123996  11.199   8.086   5.321  0.2899 -0.6767 -1.0729
38406SOL    HW223997  11.081   8.009   5.265 -0.2519 -0.5620 -0.1228
38407SOL     OW23998   2.891   4.333   3.646  0.5261  0.3753 -0.1353
38407SOL    HW123999   2.851   4.247   3.659  0.5130  0.4262  0.1829
38407SOL    HW224000   2.851   4.366   3.565 -2.2408  1.5972  1.5516
38408SOL     OW24001   3.953   5.700  10.147 -0.3611  0.0578 -0.6360
38408SOL    HW124002   3.970   5.621  10.096  0.1575  0.8766 -1.7655
38408SOL    HW224003   3.862   5.722  10.129  0.3109  1.4004 -2.8064
38409SOL     OW24004  10.846   4.434   1.644  0.4433 -0.4299 -0.4510
38409SOL    HW124005  10.866   4.525   1.622  1.0775 -0.7756 -1.3710
38409SOL    HW224006  10.751   4.426   1.631  0.3982  0.0737 -0.4540
38410SOL     OW24007   9.183   1.502   3.012  0.1985 -0.1437  0.1896
38410SOL    HW124008   9.163   1.538   3.098  0.2414  1.0324 -0.2734
38410SOL    HW224009   9.144   1.564   2.950  1.3815 -0.1940 -0.6470
38411SOL     OW24010   6.008   5.494   7.029 -0.0237 -0.5089 -0.5567
38411SOL    HW124011   6.030   5.449   6.948  0.7953  0.8950 -1.1611
38411SOL    HW224012   6.047   5.440   7.098 -0.2400 -1.4153 -1.1282
38412SOL     OW24013  10.423   4.170   1.534 -0.3143 -0.3387  0.2994
38412SOL    HW124014  10.378   4.141   1.613 -0.4879 -2.1749 -0.4231
38412SOL    HW224015  10.508   4.126   1.537  0.5537  1.2946  0.5171
38413SOL     OW24016   0.458   1.448   6.873 -0.0296 -0.1964  0.1783
38413SOL    HW124017   0.418   1.371   6.914 -0.7195 -0.7192 -1.3789
38413SOL    HW224018   0.383   1.503   6.848  0.2726 -0.3921 -1.2707
38414SOL     OW24019   4.723   1.796  10.234  0.1768 -0.4049 -0.4409
38414SOL    HW124020   4.654   1.826  10.293  0.9195 -0.1456  0.3141
38414SOL    HW224021   4.725   1.862  10.165  0.6890  0.4344  0.3463
38415SOL     OW24022  10.168  12.468   4.028  0.2949 -0.3510 -0.0843
38415SOL    HW124023  10.225  12.417   3.971  0.1800 -0.3226 -0.2257
38415SOL    HW224024  10.092  12.489   3.974  1.0775  1.4200 -0.5909
38416SOL     OW24025   9.929   4.397   3.810  0.3418  0.0619 -0.3811
38416SOL    HW124026   9.869   4.465   3.782  2.5619  1.7015 -1.4487
38416SOL    HW224027   9.975   4.435   3.885  0.8136 -0.7055 -0.2695
38417SOL     OW24028   8.229   5.403   2.714 -0.9891  0.1598 -0.1908
38417SOL    HW124029   8.194   5.446   2.793  0.2380  0.6376  0.1204
38417SOL    HW224030   8.244   5.313   2.741 -0.1808  0.4188  0.2790
38418SOL     OW24031  10.302  10.910  10.912 -0.1538  0.8290  0.0388
38418SOL    HW124032  10.381  10.927  10.962 -0.2631 -0.4047  0.6783
38418SOL    HW224033  10.311  10.820  10.882 -0.5656  1.2113 -1.3131
38419SOL     OW24034   0.231   8.768   7.741  0.0023 -0.4309  0.2571
38419SOL    HW124035   0.220   8.801   7.652 -0.3269 -0.0198  0.4469
38419SOL    HW224036   0.188   8.682   7.740 -1.3849  0.2341  0.4168
38420SOL     OW24037   4.567   6.071   8.100 -0.2157  0.1387  0.6741
38420SOL    HW124038   4.480   6.081   8.062  0.3085  0.6859 -0.4602
38420SOL    HW224039   4.555   6.014   8.175 -1.6639  0.8318  0.9894
38421SOL     OW24040   0.017   1.522   5.664  0.2507  0.4143 -0.5470
38421SOL    HW124041   0.011   1.507   5.758 -1.7869  0.9195 -0.5448
38421SOL    HW224042  -0.022   1.444   5.625  2.6145 -0.5640 -1.0795
38422SOL     OW24043   9.158   5.654   8.255 -0.3244 -0.0663  0.3053
38422SOL    HW124044   9.252   5.669   8.252 -0.7527  3.2078 -1.6632
38422SOL    HW224045   9.124   5.724   8.311 -1.6193 -1.4635  1.3778
38423SOL     OW24046  12.320   1.906  11.127 -0.3902 -0.1022 -0.5680
38423SOL    HW124047  12.250   1.849  11.160  0.5902 -0.6465  0.6747
38423SOL    HW224048  12.292   1.994  11.150 -0.3719 -0.3730  0.5596
38424SOL     OW24049   9.794   8.062  11.026  0.1457 -0.3270  0.0306
38424SOL    HW124050   9.762   8.042  10.938 -0.2857 -3.0274  0.7041
38424SOL    HW224051   9.737   8.133  11.056  2.4073  3.0962 -2.9477
38425SOL     OW24052   8.088   8.442   0.217  0.5826 -0.2549  0.1198
38425SOL    HW124053   8.081   8.368   0.156  0.2887 -1.7615  1.8832
38425SOL    HW224054   8.062   8.518   0.166  0.3723 -1.4499 -1.6331
38426SOL     OW24055  11.544   7.451   9.399  0.1542  0.0400 -0.3410
38426SOL    HW124056  11.489   7.392   9.451 -0.3521  0.6442 -0.1751
38426SOL    HW224057  11.557   7.527   9.455 -0.0225  0.5078 -0.9287
38427SOL     OW24058   7.298   0.462   6.042  0.8743 -0.5194  0.3166
38427SOL    HW124059   7.358   0.493   5.975 -0.3484  1.0706 -0.1045
38427SOL    HW224060   7.273   0.541   6.090 -1.1105 -1.0639  0.2545
38428SOL     OW24061   6.378   6.077   9.449  0.5365  0.1409 -0.5260
38428SOL    HW124062   6.304   6.067   9.510  0.3298  0.1158 -0.7779
38428SOL    HW224063   6.443   6.014   9.480  0.3876  0.0473 -0.3988
38429SOL     OW24064   7.185   2.721   1.410 -0.3257  0.4705  0.1268
38429SOL    HW124065   7.186   2.688   1.321 -0.6105  0.6787  0.0421
38429SOL    HW224066   7.139   2.805   1.404 -1.8337 -0.2626  0.7061
38430SOL     OW24067   0.978  10.058  11.921 -0.4039  0.5904  0.1965
38430SOL    HW124068   0.909  10.121  11.903 -1.7905 -1.1998 -1.1095
38430SOL    HW224069   1.057  10.097  11.882 -0.9612  2.0225  0.4600
38431SOL     OW24070   3.822  12.420   5.430 -0.2373  0.1386 -0.0733
38431SOL    HW124071   3.917  12.407   5.437  0.1468  0.0142 -3.7669
38431SOL    HW224072   3.809  12.510   5.459  0.5633 -0.5226  2.7053
38432SOL     OW24073   4.689   1.335   2.417 -0.0593  0.2404  0.1506
38432SOL    HW124074   4.736   1.264   2.374  2.0061  1.7855 -0.3448
38432SOL    HW224075   4.735   1.347   2.501 -1.4611 -0.1013  0.9846
38433SOL     OW24076   3.089  12.062   2.077  0.0925 -0.3478  0.8463
38433SOL    HW124077   2.998  12.074   2.104 -0.4301 -2.8001  0.4132
38433SOL    HW224078   3.083  12.035   1.986  1.4437  1.5550  0.1418
38434SOL     OW24079   1.980   1.395  12.401 -0.2413 -0.1269 -0.3757
38434SOL    HW124080   2.006   1.442  12.481  2.0426 -2.3459  0.3047
38434SOL    HW224081   2.030   1.438  12.331 -0.0877  0.0315 -0.1705
38435SOL     OW24082   6.617   3.543   7.055  0.0183  0.1334 -0.3320
38435SOL    HW124083   6.576   3.627   7.078 -0.2476  0.3328 -1.4738
38435SOL    HW224084   6.543   3.486   7.031  0.1638 -0.5650  0.8013
38436SOL     OW24085   0.132   4.660   2.069 -0.0019  0.1538 -0.4458
38436SOL    HW124086   0.213   4.629   2.111  0.4693 -0.8809 -2.0052
38436SOL    HW224087   0.128   4.753   2.091  2.6907  0.7276 -1.8899
38437SOL     OW24088   4.385   3.064   9.333 -0.5683  0.1991 -0.0323
38437SOL    HW124089   4.422   3.094   9.416 -0.8885 -0.8496  0.4933
38437SOL    HW224090   4.316   3.128   9.313 -1.5996 -0.4544  1.3474
38438SOL     OW24091   5.701   5.550  11.629  0.0884 -0.1908 -0.3569
38438SOL    HW124092   5.780   5.564  11.682  0.5770 -1.7816 -0.6040
38438SOL    HW224093   5.631   5.541  11.694 -0.2099  2.5925 -0.1625
38439SOL     OW24094   1.081  11.610   2.644  0.2066  0.1222 -0.3176
38439SOL    HW124095   1.135  11.675   2.689 -0.8968  0.2610  0.8581
38439SOL    HW224096   0.992  11.632   2.670 -0.1956 -1.8360  0.0410
38440SOL     OW24097   3.200   9.399   0.540  0.3085  0.2704  0.9139
38440SOL    HW124098   3.137   9.327   0.545  1.5701 -0.9237  0.2527
38440SOL    HW224099   3.285   9.356   0.530  1.0303  1.8600 -0.2144
38441SOL     OW24100  10.004   5.431   4.663 -0.5262  0.0512  0.3644
38441SOL    HW124101  10.055   5.374   4.721 -0.7059  0.7665  1.2609
38441SOL    HW224102  10.015   5.393   4.576  1.8210  0.3668  0.4560
38442SOL     OW24103   7.791  11.654   9.900  0.0951  0.3342 -0.0005
38442SOL    HW124104   7.867  11.698   9.861 -0.6006  0.4195 -1.2985
38442SOL    HW224105   7.720  11.668   9.837 -0.4307 -1.6852  0.0815
38443SOL     OW24106   2.416   9.295  11.948  0.0801 -0.3235 -0.2091
38443SOL    HW124107   2.477   9.258  11.884  0.6372  0.2056  0.0032
38443SOL    HW224108   2.437   9.388  11.949 -0.3999 -0.2182  0.2393
38444SOL     OW24109   9.260   0.532   6.531  0.4677 -0.0665 -0.3151
38444SOL    HW124110   9.312   0.592   6.586  0.5324 -1.1722  0.8831
38444SOL    HW224111   9.273   0.446   6.571  2.4956 -1.4065 -3.4804
38445SOL     OW24112   1.579   8.987   2.978 -0.1532  0.1483  0.0952
38445SOL    HW124113   1.494   9.030   2.987 -0.2872  0.3307 -1.8192
38445SOL    HW224114   1.640   9.047   3.020 -0.4201  1.9824 -1.9776
38446SOL     OW24115   6.565   2.444  10.090  0.7272  0.2178  0.2340
38446SOL    HW124116   6.621   2.432  10.014  1.3324 -1.1384  0.8626
38446SOL    HW224117   6.609   2.512  10.142  1.5109 -0.4350  0.4439
38447SOL     OW24118  10.864   9.745  12.293 -0.0137 -0.5443 -0.2671
38447SOL    HW124119  10.842   9.713  12.380 -0.8741 -1.6510 -0.8572
38447SOL    HW224120  10.791   9.716  12.238  0.5018  0.1472 -1.3452
38448SOL     OW24121   5.848   0.626  10.939  0.1416 -0.3674  0.2309
38448SOL    HW124122   5.812   0.545  10.904 -0.3044 -0.7529  1.5114
38448SOL    HW224123   5.798   0.642  11.020  0.2977  1.1225  0.0710
38449SOL     OW24124   7.903   5.339   1.194  0.6709 -0.2209  0.2155
38449SOL    HW124125   7.986   5.312   1.233  0.7689 -1.5738 -0.8296
38449SOL    HW224126   7.838   5.285   1.238  0.4562  0.1758  0.3869
38450SOL     OW24127   1.711   0.434   6.072  0.6708  0.5352  0.0774
38450SOL    HW124128   1.626   0.476   6.075 -1.3193 -2.9417 -1.3981
38450SOL    HW224129   1.752   0.467   5.992 -0.0402  0.9369 -0.1221
38451SOL     OW24130  11.085  11.654   2.930  0.2866  0.8204  0.4362
38451SOL    HW124131  11.126  11.595   2.866  0.9274  0.8936  0.7746
38451SOL    HW224132  11.093  11.740   2.890  3.6666  1.3647  2.0079
38452SOL     OW24133   2.304   3.650   8.645  0.2112  0.3341  0.1557
38452SOL    HW124134   2.235   3.601   8.691  0.5668  0.2030  0.5543
38452SOL    HW224135   2.374   3.658   8.709  0.7847  0.0067 -0.4226
38453SOL     OW24136  11.986  10.355  11.256 -0.0766  0.3829 -0.6348
38453SOL    HW124137  11.968  10.316  11.341 -1.9774  1.5281 -0.4520
38453SOL    HW224138  11.899  10.366  11.216  0.6210  1.6826 -1.8901
38454SOL     OW24139  12.283   5.992   4.016  0.1399 -0.5482 -0.1534
38454SOL    HW124140  12.211   6.041   4.057  0.4351  0.2885 -0.6084
38454SOL    HW224141  12.293   5.914   4.071 -1.3725 -0.8773 -0.3166
38455SOL     OW24142   0.717   7.975  10.992  0.6316  0.0501  0.0207
38455SOL    HW124143   0.738   7.886  10.962  0.8140 -0.3540  1.2759
38455SOL    HW224144   0.790   7.999  11.049  0.1061  0.6134  0.4684
38456SOL     OW24145   8.159  12.459   6.732 -0.6218  0.1403  0.0978
38456SOL    HW124146   8.241  12.466   6.780 -0.1271 -1.0076 -0.5334
38456SOL    HW224147   8.161  12.532   6.670 -0.6761  0.8662  0.9304
38457SOL     OW24148   3.182   0.079   9.933 -0.0047 -0.1886 -0.2125
38457SOL    HW124149   3.196   0.172   9.915 -0.6141 -0.2867 -1.2466
38457SOL    HW224150   3.269   0.045   9.954  0.2691  0.5425 -0.1369
38458SOL     OW24151   0.785   3.795   4.654  0.2387  0.2172 -0.2891
38458SOL    HW124152   0.743   3.785   4.740  0.7236 -1.1634 -0.2023
38458SOL    HW224153   0.765   3.886   4.629  0.7065  0.8997  1.6101
38459SOL     OW24154   2.223   2.322   8.593 -0.4668 -0.2161 -1.4284
38459SOL    HW124155   2.149   2.360   8.642  0.8987  0.1678  0.4410
38459SOL    HW224156   2.207   2.228   8.595 -0.9195 -0.1360 -1.0797
38460SOL     OW24157   5.645  10.678   4.100 -0.2585 -0.3557  0.1051
38460SOL    HW124158   5.714  10.615   4.083  0.0718 -0.3923  1.4755
38460SOL    HW224159   5.688  10.749   4.148 -0.9114  0.2471 -0.1792
38461SOL     OW24160   2.303   1.445   3.795 -0.0978  0.2527  0.1607
38461SOL    HW124161   2.284   1.538   3.796 -0.3039  0.2466 -1.4028
38461SOL    HW224162   2.366   1.433   3.724 -0.7328 -0.9080 -0.2407
38462SOL     OW24163   1.477   1.560   9.583  0.2764  0.3010 -0.2026
38462SOL    HW124164   1.434   1.634   9.627  1.2265  1.4593 -1.1368
38462SOL    HW224165   1.569   1.568   9.608  0.6259  0.2981 -1.4553
38463SOL     OW24166   9.882   6.405   8.294  0.1341 -0.2360 -0.2429
38463SOL    HW124167   9.849   6.492   8.314 -0.4299 -0.5465  0.1906
38463SOL    HW224168   9.919   6.414   8.205  0.0533  0.4279 -0.2162
38464SOL     OW24169  10.123   6.611   2.955 -0.7300  0.1023  0.2476
38464SOL    HW124170  10.143   6.522   2.924 -1.3073  0.4351 -1.1752
38464SOL    HW224171  10.036   6.605   2.994 -0.7696  0.0464  0.1495
38465SOL     OW24172   4.329   4.993   8.099 -0.4307 -0.2646 -0.1497
38465SOL    HW124173   4.249   4.990   8.048 -0.0286 -1.8974 -0.7278
38465SOL    HW224174   4.398   4.969   8.038  0.0048 -2.8162  1.2196
38466SOL     OW24175  10.984   1.176   6.950  0.1610  0.3605  0.7293
38466SOL    HW124176  10.951   1.241   7.011 -0.0455  0.7016  0.2567
38466SOL    HW224177  10.961   1.092   6.989 -1.6512  0.5794  0.2129
38467SOL     OW24178   5.307   6.765  11.871  0.1357  0.1575 -0.4082
38467SOL    HW124179   5.294   6.711  11.793  0.5077  0.7785 -0.9078
38467SOL    HW224180   5.379   6.723  11.918  1.7280  1.2267 -1.7543
38468SOL     OW24181   5.938   7.590   3.741 -0.0008  0.1220  0.3926
38468SOL    HW124182   5.905   7.673   3.706  0.6462  0.5542  0.8070
38468SOL    HW224183   5.930   7.529   3.668  1.8408  1.1412 -0.7411
38469SOL     OW24184   3.195   7.961   7.463 -0.1918 -0.8591  0.1169
38469SOL    HW124185   3.251   7.885   7.445 -0.2208 -0.7932 -0.2516
38469SOL    HW224186   3.121   7.950   7.404  0.3024  0.0022 -0.6859
38470SOL     OW24187   7.326   9.976   4.464  0.0348  0.2199 -0.1972
38470SOL    HW124188   7.317   9.881   4.451  1.5157 -0.1511  1.1312
38470SOL    HW224189   7.291   9.991   4.552 -1.3126  1.1415 -0.8533
38471SOL     OW24190   0.691   5.368   2.675  1.2539 -0.0504  0.3241
38471SOL    HW124191   0.653   5.456   2.685  1.2989  0.0875 -0.5985
38471SOL    HW224192   0.782   5.384   2.651  1.0739 -0.3273 -0.5878
38472SOL     OW24193  10.225   8.455   7.191 -0.1412 -0.0404 -0.2527
38472SOL    HW124194  10.153   8.421   7.244 -0.5320 -1.1454 -1.4261
38472SOL    HW224195  10.214   8.550   7.194 -3.2380 -0.1507 -2.3782
38473SOL     OW24196   9.914   7.086  12.412  0.1697 -0.2378 -0.2084
38473SOL    HW124197   9.984   7.137  12.453  0.2443 -1.5512  1.4016
38473SOL    HW224198   9.836   7.106  12.465 -0.4173  0.2383 -1.2142
38474SOL     OW24199   6.456   3.075   1.272 -0.1113  0.0122  0.0713
38474SOL    HW124200   6.386   3.067   1.337 -0.2777 -2.0266 -0.2850
38474SOL    HW224201   6.427   3.145   1.214 -0.7048  0.8062  1.2696
38475SOL     OW24202   7.134   5.752   4.943 -0.1098 -0.3469  0.2451
38475SOL    HW124203   7.226   5.738   4.920  0.1270 -0.3057  1.1665
38475SOL    HW224204   7.094   5.782   4.861  0.8328  0.2789 -0.0088
38476SOL     OW24205   7.218  12.158   4.405  0.5802  0.4444 -0.2585
38476SOL    HW124206   7.307  12.173   4.439  0.6756 -1.4826  0.4915
38476SOL    HW224207   7.162  12.167   4.482  0.2044  0.8462 -0.5737
38477SOL     OW24208   8.025   3.555   3.957 -0.3749  0.9363 -0.1994
38477SOL    HW124209   8.002   3.462   3.949  1.9515  0.2702 -0.0351
38477SOL    HW224210   7.946   3.597   3.991 -0.9036 -1.3389  1.6725
38478SOL     OW24211  11.781   7.795  11.467 -0.1694 -0.2966 -0.1270
38478SOL    HW124212  11.765   7.765  11.556  0.2312 -0.5151 -0.1232
38478SOL    HW224213  11.831   7.876  11.477 -0.4225 -0.1370 -0.1498
38479SOL     OW24214  12.418   5.166  11.604 -0.4359  0.0798 -0.0026
38479SOL    HW124215  12.439   5.092  11.661 -2.7316 -1.2328 -0.6952
38479SOL    HW224216  12.443   5.137  11.516  2.0359  1.6488  0.0854
38480SOL     OW24217   9.679   9.338  10.693 -0.6298 -0.4009  0.0844
38480SOL    HW124218   9.584   9.348  10.697 -0.6117 -0.4571  0.7448
38480SOL    HW224219   9.703   9.305  10.779 -0.0515 -0.7599 -0.2153
38481SOL     OW24220   3.285  10.690   0.626 -0.3661 -0.1340  0.0399
38481SOL    HW124221   3.313  10.599   0.636  1.5487  0.3069 -0.8895
38481SOL    HW224222   3.342  10.726   0.558 -1.4053  1.6474  0.0352
38482SOL     OW24223   5.433  10.860  11.926 -0.1308  0.4916  0.0798
38482SOL    HW124224   5.455  10.852  12.018 -0.8075  0.3118  0.2312
38482SOL    HW224225   5.404  10.951  11.916 -0.6351  0.3457  0.1782
38483SOL     OW24226  10.906  10.827   3.254  0.1805  0.3846  0.1976
38483SOL    HW124227  10.816  10.861   3.246  1.0106  2.8852  0.5930
38483SOL    HW224228  10.912  10.796   3.344 -1.2045 -3.0080 -0.7081
38484SOL     OW24229  10.377   3.448   1.286  0.3094  0.3130 -0.1936
38484SOL    HW124230  10.334   3.533   1.273  0.3626  0.3332 -0.2364
38484SOL    HW224231  10.330   3.409   1.360 -0.9723 -0.4435 -1.3599
38485SOL     OW24232  12.584   5.509   5.593  0.6012 -0.3262  0.4228
38485SOL    HW124233  12.537   5.576   5.642  1.8899  1.4796 -0.6809
38485SOL    HW224234  12.672   5.508   5.632  1.5163  0.8279 -1.4598
38486SOL     OW24235   4.194  11.231   7.581  0.2484 -0.1494  0.7745
38486SOL    HW124236   4.219  11.322   7.564 -0.7551  0.1581  0.8627
38486SOL    HW224237   4.245  11.206   7.658  2.2159 -0.4106 -0.5540
38487SOL     OW24238   9.606   0.959  10.325 -0.3863  0.4120  0.0482
38487SOL    HW124239   9.596   0.890  10.391 -1.6410 -2.2908 -2.6940
38487SOL    HW224240   9.693   0.944  10.288 -0.1976  1.1005  0.1980
38488SOL     OW24241   7.536   5.466  11.704 -0.6783  0.1921 -0.0634
38488SOL    HW124242   7.601   5.536  11.715 -2.1813  1.4367  1.5851
38488SOL    HW224243   7.454   5.504  11.738 -1.9381 -1.8109 -0.6800
38489SOL     OW24244   7.733  10.080   1.858  0.2861  0.2413  0.2304
38489SOL    HW124245   7.699  10.125   1.935  0.5514  0.3327  0.2946
38489SOL    HW224246   7.656  10.042   1.817 -0.0037  1.1796 -0.1119
38490SOL     OW24247   2.262  10.417   0.951 -0.0476 -0.3232  0.4365
38490SOL    HW124248   2.352  10.386   0.950  1.2036  2.9443  0.5783
38490SOL    HW224249   2.214  10.350   1.001  1.8880 -2.9441 -0.9880
38491SOL     OW24250   3.930   2.199   8.585  0.4173 -0.0025  0.3147
38491SOL    HW124251   3.965   2.127   8.637  0.0799 -0.2231  0.2374
38491SOL    HW224252   3.875   2.249   8.646 -0.5702 -0.6760  0.0091
38492SOL     OW24253   2.086   4.729   0.778 -0.2114  0.7620 -0.0579
38492SOL    HW124254   2.080   4.666   0.849  1.4394  1.4852  0.7778
38492SOL    HW224255   2.005   4.780   0.784  0.7112  2.0764  2.5993
38493SOL     OW24256   9.732   2.783   6.483  0.4463  0.5379 -0.3118
38493SOL    HW124257   9.709   2.827   6.565 -0.2380  0.8275 -0.6600
38493SOL    HW224258   9.812   2.826   6.454  0.8476  0.2504  0.3442
38494SOL     OW24259  11.166   4.521   0.367 -0.6678 -0.2584  0.2162
38494SOL    HW124260  11.140   4.516   0.275 -0.1580 -0.8892  0.0960
38494SOL    HW224261  11.253   4.561   0.366 -0.5001 -0.6110  0.3902
38495SOL     OW24262  11.265   0.558   1.102 -0.4012  0.8717  0.4788
38495SOL    HW124263  11.276   0.525   1.013 -2.7515  0.2518  0.3563
38495SOL    HW224264  11.224   0.486   1.150  0.1138  1.4624  1.8831
38496SOL     OW24265   4.214   6.563  11.267 -0.0186 -0.5156  0.2029
38496SOL    HW124266   4.223   6.618  11.189  1.2214 -0.1233  0.5824
38496SOL    HW224267   4.275   6.491  11.253 -0.5471 -1.0012  0.3662
38497SOL     OW24268   6.860   7.986   5.005 -0.2321  0.1948  0.3251
38497SOL    HW124269   6.842   8.045   4.932 -3.5822 -1.0319 -0.0093
38497SOL    HW224270   6.932   8.028   5.052 -0.2803  2.8257 -1.6959
38498SOL     OW24271   1.082   2.010   9.503  0.2180 -0.2051  0.1967
38498SOL    HW124272   1.010   2.070   9.484  0.9923  0.7067  0.0376
38498SOL    HW224273   1.158   2.067   9.516  0.4910 -1.0057  2.4837
38499SOL     OW24274  11.274   4.043   2.417 -0.3698 -0.0186  0.5783
38499SOL    HW124275  11.247   3.956   2.388 -1.8415  1.0267 -1.4898
38499SOL    HW224276  11.288   4.092   2.336  0.9214  1.5692  1.6741
38500SOL     OW24277   5.056   1.190   9.118 -0.1373 -0.4621  0.1141
38500SOL    HW124278   5.051   1.285   9.122  1.8234 -0.0089 -3.9184
38500SOL    HW224279   5.116   1.167   9.190  0.1106  1.4196  0.5762
38501SOL     OW24280   0.871   4.901   3.198  0.0924  0.2062 -0.1057
38501SOL    HW124281   0.915   4.816   3.195 -0.1592  0.0906 -2.2449
38501SOL    HW224282   0.792   4.885   3.250 -0.6769 -1.2720 -1.6506
38502SOL     OW24283   7.717   8.887   2.585 -0.0901  0.0436  0.3327
38502SOL    HW124284   7.685   8.797   2.590  1.0135 -0.3781  0.0261
38502SOL    HW224285   7.800   8.880   2.538  0.5849  1.0746  1.3486
38503SOL     OW24286   6.112   0.458   2.879 -0.2637  0.3453  0.1127
38503SOL    HW124287   6.120   0.442   2.785 -2.3691  0.8273 -0.2161
38503SOL    HW224288   6.201   0.452   2.913  0.3741 -1.1687 -1.6917
38504SOL     OW24289   5.947   3.914  11.028 -0.1037  0.0391 -0.2253
38504SOL    HW124290   5.860   3.873  11.028 -0.0213 -0.1499 -1.1405
38504SOL    HW224291   5.998   3.862  11.091 -0.5571 -0.0490  0.0713
38505SOL     OW24292   6.582   5.963   4.115  0.0765  0.1173  0.0169
38505SOL    HW124293   6.648   6.031   4.106  0.4715 -0.5248 -2.7593
38505SOL    HW224294   6.614   5.908   4.187  0.2659  2.2120  1.6145
38506SOL     OW24295   9.265  10.834  10.627 -0.5907  1.0554  0.4745
38506SOL    HW124296   9.180  10.828  10.583 -0.3448  3.2008 -0.4005
38506SOL    HW224297   9.246  10.883  10.707 -0.3696  0.4862  0.8782
38507SOL     OW24298   3.915  11.267   2.470  0.2698  0.0862  0.0120
38507SOL    HW124299   3.869  11.278   2.387  0.6834 -0.2444 -0.2681
38507SOL    HW224300   3.868  11.197   2.514 -1.2625  1.6596  1.0102
38508SOL     OW24301   5.704   0.468   3.537  0.6065 -0.2739  0.6397
38508SOL    HW124302   5.617   0.477   3.576  0.8259  0.4403  0.9862
38508SOL    HW224303   5.730   0.558   3.514 -0.0401 -0.7407 -2.3455
38509SOL     OW24304   2.698   3.944   6.620 -0.3018  0.0655 -0.2291
38509SOL    HW124305   2.769   4.007   6.630 -0.8212  0.4538  1.2420
38509SOL    HW224306   2.718   3.875   6.684 -1.4751  0.4121  0.5347
38510SOL     OW24307   5.517  11.067   3.375 -0.0088 -0.1479  0.2030
38510SOL    HW124308   5.595  11.015   3.394  1.6707  1.6158 -1.4634
38510SOL    HW224309   5.482  11.030   3.294  1.2902  1.2995 -1.0835
38511SOL     OW24310   7.553   7.997   0.439  0.2882 -0.4728  0.4342
38511SOL    HW124311   7.615   8.070   0.437 -1.1019  0.8152  1.6410
38511SOL    HW224312   7.540   7.978   0.532 -0.6401 -1.1189  0.1943
38512SOL     OW24313   9.258   0.047  11.904  0.5529  0.3983 -0.4137
38512SOL    HW124314   9.218  -0.024  11.855 -0.9512  0.6244  0.4459
38512SOL    HW224315   9.210   0.125  11.877 -0.0770  0.5805  1.1302
38513SOL     OW24316   1.285   3.431   8.447 -0.0504 -0.2025  0.2448
38513SOL    HW124317   1.265   3.432   8.541  1.0912 -1.0402  0.5244
38513SOL    HW224318   1.225   3.366   8.411  1.1338 -1.6967  0.8382
38514SOL     OW24319   1.095   2.506   6.292  0.7924 -0.3104  0.4882
38514SOL    HW124320   1.066   2.457   6.215  0.8044 -1.7777  1.3849
38514SOL    HW224321   1.016   2.552   6.321  0.8425  0.4293 -0.5122
38515SOL     OW24322   1.845   0.967  12.358 -0.2759  0.4710  0.3306
38515SOL    HW124323   1.847   1.058  12.327  0.3400  0.2675 -0.2300
38515SOL    HW224324   1.796   0.919  12.291  0.5489  0.1434 -0.0444
38516SOL     OW24325   1.403  10.315   1.862  0.1639  0.3337 -0.3559
38516SOL    HW124326   1.366  10.232   1.834 -0.2269  0.6212 -0.6995
38516SOL    HW224327   1.348  10.343   1.935  0.3292  0.2686 -0.2037
38517SOL     OW24328   8.922  11.514  11.670  0.4106 -0.1059 -0.0376
38517SOL    HW124329   8.829  11.494  11.663  0.2203  0.2581  1.2151
38517SOL    HW224330   8.964  11.429  11.680 -0.1362 -0.1702  2.5990
38518SOL     OW24331   1.226   0.330   4.498  0.6232  0.7759 -0.3585
38518SOL    HW124332   1.169   0.337   4.575 -0.0852 -2.3479 -0.4426
38518SOL    HW224333   1.314   0.329   4.534  0.3088 -0.5138  0.4902
38519SOL     OW24334   5.678   9.030   8.138  0.6746 -0.2403  0.0395
38519SOL    HW124335   5.741   9.093   8.174  0.2480 -0.1441  0.6428
38519SOL    HW224336   5.693   9.032   8.044 -0.2038  1.7635 -0.1219
38520SOL     OW24337   8.213   2.761   2.077  0.5075  0.0273  0.3141
38520SOL    HW124338   8.303   2.772   2.047  1.5595 -0.8095  2.8739
38520SOL    HW224339   8.196   2.667   2.067 -0.4525  0.2947 -0.9425
38521SOL     OW24340   9.324   1.164   3.679 -0.0906  0.2706  0.7646
38521SOL    HW124341   9.410   1.157   3.639  0.0773  0.2013  1.1298
38521SOL    HW224342   9.306   1.075   3.711 -0.9821 -0.1097 -0.6862
38522SOL     OW24343   6.470   8.545   3.871 -0.0126  0.2903 -0.1425
38522SOL    HW124344   6.551   8.506   3.838 -0.4424  0.3254 -1.2768
38522SOL    HW224345   6.499   8.612   3.934  0.7442 -1.7420  1.8134
38523SOL     OW24346   2.899   0.902   6.353 -0.1945 -0.0177 -0.6178
38523SOL    HW124347   2.975   0.949   6.387  0.2722  0.7282 -2.5644
38523SOL    HW224348   2.930   0.812   6.342 -0.2241 -0.1717  0.4386
38524SOL     OW24349   3.417  10.962   1.572  0.0077  0.3042  0.3419
38524SOL    HW124350   3.341  10.952   1.516  0.2556 -0.1433  0.0783
38524SOL    HW224351   3.382  10.966   1.661 -0.7559  4.5724  0.0954
38525SOL     OW24352   7.222  11.110   5.857  0.0039 -0.2133 -0.0906
38525SOL    HW124353   7.160  11.036   5.852 -1.0025  0.6892 -2.4400
38525SOL    HW224354   7.195  11.168   5.786  1.7287  1.6992  0.7382
38526SOL     OW24355   1.854   8.224   7.373  0.2191 -0.3328 -0.3557
38526SOL    HW124356   1.946   8.207   7.394  0.1289 -0.9495 -0.4458
38526SOL    HW224357   1.843   8.189   7.285  0.0195  0.1881 -0.5394
38527SOL     OW24358  11.740   7.461   2.187  0.1897  0.1691 -0.2796
38527SOL    HW124359  11.672   7.491   2.246 -0.5980 -1.4560 -0.2961
38527SOL    HW224360  11.795   7.403   2.241  0.3195 -0.1723 -0.7666
38528SOL     OW24361   5.144   9.135   2.492  0.0737  0.3465 -0.2524
38528SOL    HW124362   5.194   9.116   2.412  0.2465  2.3421 -0.6830
38528SOL    HW224363   5.136   9.051   2.536  1.2115 -0.5608 -1.6778
38529SOL     OW24364  11.797   3.547   5.631 -0.5145 -0.5177  0.2203
38529SOL    HW124365  11.745   3.611   5.679 -0.3421  0.5953 -1.0325
38529SOL    HW224366  11.870   3.526   5.689  0.1881  1.4911  0.1302
38530SOL     OW24367   4.960   7.232   4.851  0.0298  0.2126  0.4365
38530SOL    HW124368   5.037   7.178   4.867 -0.1871  0.6347  3.3341
38530SOL    HW224369   4.995   7.317   4.824  0.5118 -0.0740  0.1532
38531SOL     OW24370   6.853  11.671   6.121 -0.7060 -0.0879 -0.8187
38531SOL    HW124371   6.883  11.741   6.180 -0.4984 -0.9235  0.0971
38531SOL    HW224372   6.775  11.635   6.164  0.4483 -1.8713 -0.1223
38532SOL     OW24373  11.461   6.289   9.112  0.6593  0.3771  0.3043
38532SOL    HW124374  11.435   6.280   9.204  0.9358  3.2506  0.7419
38532SOL    HW224375  11.380   6.314   9.067  0.4281 -1.4247 -0.3897
38533SOL     OW24376   8.719  11.028   4.948 -0.4424 -0.2104  0.6502
38533SOL    HW124377   8.672  11.109   4.928  2.2799  1.0471 -1.2408
38533SOL    HW224378   8.745  11.037   5.039 -0.4720  0.9273  0.5632
38534SOL     OW24379   4.711   6.682   9.064  0.0139 -0.4121 -0.0190
38534SOL    HW124380   4.673   6.624   9.130  1.5280 -0.2475  1.0412
38534SOL    HW224381   4.635   6.722   9.022 -1.0090 -0.9451  1.2326
38535SOL     OW24382   3.515   9.572  12.473  0.2513 -0.0490 -0.0016
38535SOL    HW124383   3.452   9.540  12.537 -1.7257 -3.2708 -3.1983
38535SOL    HW224384   3.597   9.529  12.496 -0.8728 -2.6328 -0.5369
38536SOL     OW24385  11.522   9.295   4.751  0.2736 -0.3601  0.3857
38536SOL    HW124386  11.438   9.251   4.768  1.6099 -3.4906 -0.4039
38536SOL    HW224387  11.573   9.281   4.831  0.9836 -0.9430 -0.1554
38537SOL     OW24388   8.544   4.945   7.884 -0.2542  0.2103  0.1909
38537SOL    HW124389   8.600   4.868   7.891  0.3450  0.7170  1.2729
38537SOL    HW224390   8.535   4.977   7.974 -1.8818  0.4331 -0.0170
38538SOL     OW24391   8.894  11.786   8.921  0.2306  0.3632  0.3241
38538SOL    HW124392   8.910  11.715   8.983 -0.3801  1.3452  1.6599
38538SOL    HW224393   8.817  11.758   8.873 -1.0569  0.8074  2.0173
38539SOL     OW24394   8.480   1.116   0.448 -0.0616  0.1937 -0.2067
38539SOL    HW124395   8.501   1.076   0.533  2.8150  0.2583 -0.7939
38539SOL    HW224396   8.429   1.193   0.471 -2.2969 -1.5474  1.1949
38540SOL     OW24397  10.377   9.343   1.837  0.0618  0.7711  0.0503
38540SOL    HW124398  10.360   9.371   1.926 -1.0186 -2.2271  0.8954
38540SOL    HW224399  10.300   9.370   1.787 -0.8297 -0.3832  0.7736
38541SOL     OW24400   4.274   3.341   6.691  0.4264 -0.5616 -0.4360
38541SOL    HW124401   4.230   3.265   6.654  0.1830  0.8032 -3.2022
38541SOL    HW224402   4.218   3.415   6.670  0.8158  0.5043  1.8812
38542SOL     OW24403   9.551   5.949   5.065  0.6552 -0.2804  0.2595
38542SOL    HW124404   9.567   5.978   5.155 -0.3675  1.5411 -0.0857
38542SOL    HW224405   9.603   6.008   5.011  1.0940 -1.2262 -0.3646
38543SOL     OW24406   4.337   3.921   1.303 -0.1213 -0.2085 -0.3155
38543SOL    HW124407   4.404   3.904   1.237  1.5661 -1.8842  1.7053
38543SOL    HW224408   4.257   3.885   1.265  0.9002 -1.6188 -1.2457
38544SOL     OW24409   2.900  12.068  12.362  0.1637 -0.1406  0.2738
38544SOL    HW124410   2.871  12.046  12.273 -1.0238  1.3492  0.2565
38544SOL    HW224411   2.982  12.020  12.372 -0.3637 -1.4321 -1.1151
38545SOL     OW24412   7.905   7.941  11.075 -0.0933  0.2019 -1.0733
38545SOL    HW124413   7.941   7.853  11.081 -0.8814 -0.0746  0.0005
38545SOL    HW224414   7.964   7.988  11.017  1.6552 -0.3918  0.1366
38546SOL     OW24415  10.853   4.036   1.410 -0.2806  0.1269 -0.3425
38546SOL    HW124416  10.922   3.995   1.462 -0.1508  0.4475 -0.2575
38546SOL    HW224417  10.779   3.976   1.416  0.1223 -0.4158 -0.7739
38547SOL     OW24418   5.346  10.131   1.187  0.1546  0.7834  0.3445
38547SOL    HW124419   5.334  10.174   1.271  2.0107  0.3310  0.8773
38547SOL    HW224420   5.357  10.202   1.124  0.1638  1.1090  0.7159
38548SOL     OW24421   4.589  10.140  10.041 -0.0677  0.0149 -0.1476
38548SOL    HW124422   4.533  10.217  10.036 -1.4099 -0.9550 -0.7181
38548SOL    HW224423   4.579  10.109  10.131  0.8503  0.7513  0.2236
38549SOL     OW24424   4.570  11.449   5.468 -0.4556  0.0678  0.2738
38549SOL    HW124425   4.626  11.374   5.452  0.9013  0.8580  1.0995
38549SOL    HW224426   4.556  11.450   5.563  0.0627  1.1880  0.3602
38550SOL     OW24427   4.673   8.015   2.132 -0.2262 -0.1750  0.1126
38550SOL    HW124428   4.607   8.039   2.198 -0.5903 -0.3880 -0.1669
38550SOL    HW224429   4.630   8.030   2.048 -0.1396 -0.8943 -0.0729
38551SOL     OW24430   2.407   4.963  11.185  0.1848 -0.3904 -0.1240
38551SOL    HW124431   2.328   4.910  11.193  0.2986 -0.5043  0.2861
38551SOL    HW224432   2.404   5.022  11.261 -1.2240  1.9491 -1.8515
38552SOL     OW24433   2.879   2.794   4.888 -0.3846 -0.0755  0.7332
38552SOL    HW124434   2.825   2.819   4.813 -0.9805 -0.0483  1.1688
38552SOL    HW224435   2.821   2.801   4.964 -0.1494 -1.3629  1.0566
38553SOL     OW24436   8.073   3.869   5.367 -0.7680 -0.1343  0.2756
38553SOL    HW124437   8.052   3.909   5.282 -0.3312 -0.6042 -0.0607
38553SOL    HW224438   8.157   3.907   5.392  0.5658 -2.0990 -0.9093
38554SOL     OW24439   8.819   8.398   9.456  0.4869  0.3793 -0.3058
38554SOL    HW124440   8.806   8.309   9.490 -1.7130  1.2497  1.4394
38554SOL    HW224441   8.837   8.386   9.363  0.2624 -1.8873 -0.1244
38555SOL     OW24442   3.024   4.270   5.733 -0.3695 -0.3153  0.2900
38555SOL    HW124443   3.111   4.281   5.695  0.6708 -2.8523  1.7245
38555SOL    HW224444   2.997   4.182   5.707 -2.5859  0.4185 -0.1484
38556SOL     OW24445   4.249   3.040   5.422  0.6293 -0.2347  0.1113
38556SOL    HW124446   4.201   3.069   5.499 -0.3449 -1.3802 -0.0240
38556SOL    HW224447   4.182   3.004   5.363  1.5538 -1.1617 -0.4252
38557SOL     OW24448   2.455   1.794   0.147 -0.6269  0.5990  0.1144
38557SOL    HW124449   2.435   1.778   0.055 -0.2070 -0.6741  0.2287
38557SOL    HW224450   2.495   1.881   0.148 -0.8164  0.7070 -0.8697
38558SOL     OW24451   6.659   1.103   4.435  0.1242  0.0759 -0.4039
38558SOL    HW124452   6.653   1.189   4.477 -1.0796  1.2663 -2.8186
38558SOL    HW224453   6.582   1.099   4.378  0.3306 -2.5010 -0.6266
38559SOL     OW24454   0.228  10.442  10.876 -0.2664 -0.0117 -0.1199
38559SOL    HW124455   0.195  10.362  10.836  2.2589 -0.9363 -0.5181
38559SOL    HW224456   0.285  10.412  10.947  0.4418  1.4384 -0.0422
38560SOL     OW24457   6.117   1.473  10.808  0.0212  0.1063  0.3990
38560SOL    HW124458   6.103   1.424  10.889 -0.4678 -0.2155  0.1172
38560SOL    HW224459   6.058   1.548  10.815 -2.0667 -1.3193 -0.8470
38561SOL     OW24460   8.662   1.325   0.679  0.6634  0.4505 -0.2368
38561SOL    HW124461   8.606   1.249   0.698  1.3086  0.0585  0.1155
38561SOL    HW224462   8.751   1.294   0.696  0.9008  1.4204  0.3322
38562SOL     OW24463  11.081   5.197  11.356 -0.4350 -0.8285 -0.1799
38562SOL    HW124464  11.114   5.266  11.298  0.3705 -0.7805  0.3183
38562SOL    HW224465  11.085   5.117  11.303  0.2752 -0.7811 -0.2192
38563SOL     OW24466   6.642   8.511   0.764  0.7286 -0.0464  0.3228
38563SOL    HW124467   6.719   8.541   0.812 -0.0734 -0.6051  2.0151
38563SOL    HW224468   6.582   8.586   0.766  0.2944 -0.4084  1.0938
38564SOL     OW24469   6.838  11.490   5.742 -0.2533  0.3759  0.5006
38564SOL    HW124470   6.863  11.409   5.787  1.2019  1.4234  1.6971
38564SOL    HW224471   6.876  11.482   5.655  1.3005  0.4211  1.1449
38565SOL     OW24472   0.921   0.132   3.732 -0.2385 -0.1038  0.6347
38565SOL    HW124473   0.880   0.193   3.793 -1.1410 -1.0012  0.9509
38565SOL    HW224474   1.014   0.138   3.751  0.0869  3.1585 -1.1570
38566SOL     OW24475   5.429  11.910   5.412 -0.2376 -0.6452  0.5514
38566SOL    HW124476   5.399  11.960   5.337 -0.9863 -1.3272  0.3725
38566SOL    HW224477   5.479  11.837   5.375  0.0026 -0.5802  0.7489
38567SOL     OW24478   1.524   7.858   8.155 -0.0640 -0.1113  0.3565
38567SOL    HW124479   1.528   7.764   8.174  2.9290 -0.0937  0.2188
38567SOL    HW224480   1.531   7.901   8.240 -1.1254  0.0425  0.3889
38568SOL     OW24481   8.423   4.985   2.204 -0.5146  0.0923 -0.4798
38568SOL    HW124482   8.417   5.026   2.291 -0.3215 -0.1680 -0.3443
38568SOL    HW224483   8.403   4.893   2.220 -0.5234  0.0538 -0.7204
38569SOL     OW24484   1.074   2.189   9.132 -0.4219 -0.2316  0.2047
38569SOL    HW124485   1.100   2.281   9.120  3.5394 -1.1663  0.3036
38569SOL    HW224486   1.121   2.142   9.064  1.2962 -2.6112  2.7974
38570SOL     OW24487   5.644  12.274   2.926 -0.3668 -0.1556  0.1978
38570SOL    HW124488   5.659  12.366   2.948  0.8689 -0.4165  0.5442
38570SOL    HW224489   5.680  12.225   3.000  0.4946 -0.9521 -0.7111
38571SOL     OW24490  10.461   6.808   4.627 -0.0347  0.2581 -0.0003
38571SOL    HW124491  10.386   6.858   4.596  0.8503  2.6779  1.4842
38571SOL    HW224492  10.424   6.745   4.689 -0.9865  0.3128 -0.5013
38572SOL     OW24493   5.436   1.662   0.843  0.5535 -0.1988 -0.1306
38572SOL    HW124494   5.486   1.585   0.869  0.4168 -0.0465  0.6372
38572SOL    HW224495   5.345   1.632   0.843  0.5166 -0.0872 -0.0162
38573SOL     OW24496   5.285   2.378   7.153  0.2901  0.1218  0.2576
38573SOL    HW124497   5.224   2.399   7.083 -0.4873 -0.3267  0.7793
38573SOL    HW224498   5.235   2.320   7.212  1.4578 -0.8922  0.3035
38574SOL     OW24499   6.381  10.727   2.138  0.0011  0.0298  0.9756
38574SOL    HW124500   6.291  10.760   2.125  0.4185  0.5897 -0.7685
38574SOL    HW224501   6.436  10.791   2.093  1.0419 -1.7533 -0.4061
38575SOL     OW24502   1.985  12.125   0.411 -0.0274  0.4693  0.2440
38575SOL    HW124503   2.051  12.151   0.347 -1.0243 -0.3602 -1.1996
38575SOL    HW224504   1.991  12.191   0.481  1.3508  1.1913 -0.5168
38576SOL     OW24505  12.282   5.309   2.931 -0.0474 -0.2889 -0.1209
38576SOL    HW124506  12.360   5.258   2.913  0.4602 -0.1543  1.4965
38576SOL    HW224507  12.220   5.247   2.969  0.6467  0.2513  2.0480
38577SOL     OW24508   6.640   2.982   1.095  0.0931  0.0604  0.1132
38577SOL    HW124509   6.608   2.907   1.045  0.7375  0.8920 -1.6438
38577SOL    HW224510   6.578   2.992   1.167 -0.6540 -1.4384 -0.2893
38578SOL     OW24511   3.403  10.413   3.532  0.8060 -0.1231  0.4984
38578SOL    HW124512   3.376  10.501   3.504 -0.3259 -0.2792  1.0431
38578SOL    HW224513   3.489  10.401   3.492  0.6969  0.9764 -0.1223
38579SOL     OW24514   6.719   7.642  12.018 -0.2710  0.1588  0.7774
38579SOL    HW124515   6.763   7.570  11.973 -1.4368  0.0397 -0.2190
38579SOL    HW224516   6.789   7.705  12.036  0.2069  0.4162 -1.6155
38580SOL     OW24517   6.685   7.115   3.737  0.1676  0.1855  0.0418
38580SOL    HW124518   6.766   7.081   3.699  0.7603  0.6939  0.7987
38580SOL    HW224519   6.617   7.091   3.675  0.8153 -0.7797 -0.3178
38581SOL     OW24520   5.418  10.669  11.571  0.2807 -0.0268  0.0889
38581SOL    HW124521   5.380  10.587  11.604  0.3133 -0.5911 -1.2119
38581SOL    HW224522   5.494  10.685  11.627  2.0628 -2.5058 -1.4311
38582SOL     OW24523  11.153  10.789   9.240  0.2707 -0.0350 -0.1175
38582SOL    HW124524  11.227  10.847   9.255  1.2471 -1.2343 -0.1097
38582SOL    HW224525  11.165  10.718   9.303 -1.1884  0.0049  0.2474
38583SOL     OW24526   0.055   9.231  10.027 -0.0148 -0.1549  0.2143
38583SOL    HW124527   0.149   9.217  10.017 -0.3360 -1.7623 -0.8610
38583SOL    HW224528   0.048   9.294  10.099  1.8733  0.1128  0.2163
38584SOL     OW24529   3.800   2.057   1.372  0.3148 -0.1481  0.2860
38584SOL    HW124530   3.816   2.146   1.403  0.9615 -0.2216  0.1769
38584SOL    HW224531   3.786   2.006   1.452 -4.3374  0.7639  0.3262
38585SOL     OW24532   0.897  11.160   5.774  0.1940 -0.3485  0.2749
38585SOL    HW124533   0.808  11.145   5.744  0.6924 -0.0801 -1.4130
38585SOL    HW224534   0.929  11.233   5.721  1.1135  0.2144  1.5284
38586SOL     OW24535   2.813  10.794   8.792 -0.0200 -0.2007 -0.0124
38586SOL    HW124536   2.758  10.827   8.864 -0.0971 -0.6040  0.1177
38586SOL    HW224537   2.887  10.751   8.836 -0.3120 -0.8715 -0.1535
38587SOL     OW24538   3.941  12.340  10.073 -0.1633  0.2683 -0.7206
38587SOL    HW124539   3.988  12.322   9.991 -1.8888 -1.3942 -1.4267
38587SOL    HW224540   3.884  12.264  10.085 -1.4161  1.4037  0.9816
38588SOL     OW24541  10.245   5.894   2.015  0.0388 -0.0448  0.5347
38588SOL    HW124542  10.171   5.930   2.064 -1.4595  1.0019 -2.2658
38588SOL    HW224543  10.318   5.951   2.037 -0.4229  0.0470  1.9317
38589SOL     OW24544  11.919  10.620   0.053 -0.7582 -0.1943 -0.9122
38589SOL    HW124545  11.927  10.537   0.007  1.5450 -0.0568 -0.8796
38589SOL    HW224546  11.984  10.677   0.013 -0.6849  0.8557  0.5835
38590SOL     OW24547  12.567   1.780   0.474  0.4928  0.6177 -0.4984
38590SOL    HW124548  12.474   1.795   0.456  0.3854 -1.4782 -2.2773
38590SOL    HW224549  12.568   1.733   0.557  0.0172  1.3298 -0.0895
38591SOL     OW24550   8.978   5.506   0.861  0.2078  0.3044  0.0497
38591SOL    HW124551   9.027   5.524   0.781  1.2581  1.7360  0.9589
38591SOL    HW224552   9.002   5.578   0.920 -0.5600 -0.6918  1.6347
38592SOL     OW24553   3.422   2.770   0.612 -0.7105  0.3649 -0.0614
38592SOL    HW124554   3.462   2.856   0.606  0.8284 -0.2197  1.1709
38592SOL    HW224555   3.438   2.730   0.526 -1.3203  1.2436 -0.5903
38593SOL     OW24556   6.615   3.277  11.115 -0.2179  0.1472 -0.3081
38593SOL    HW124557   6.628   3.328  11.035 -0.1745  4.7629  2.2698
38593SOL    HW224558   6.697   3.286  11.163 -1.2515  0.1411  1.5404
38594SOL     OW24559   3.189   9.504   9.237  0.3115  0.6509  0.1735
38594SOL    HW124560   3.169   9.598   9.234 -0.5126  0.4746  0.0221
38594SOL    HW224561   3.135   9.470   9.308  0.8411  0.3369  0.4339
38595SOL     OW24562   6.291   2.682   6.225  0.0406 -0.2031 -0.1105
38595SOL    HW124563   6.269   2.641   6.309 -0.2707 -1.9475 -0.9859
38595SOL    HW224564   6.318   2.771   6.247 -1.1875 -0.2382  1.7176
38596SOL     OW24565   6.597   5.625  11.545  0.2311 -0.1489 -0.1230
38596SOL    HW124566   6.587   5.702  11.490  0.4458 -0.0054  0.0366
38596SOL    HW224567   6.530   5.564  11.514  0.2551 -0.0140 -0.4448
38597SOL     OW24568   5.860  10.544   3.535  1.3037  0.1211 -0.3668
38597SOL    HW124569   5.832  10.459   3.569  0.8602  0.4219  0.0301
38597SOL    HW224570   5.897  10.524   3.449  3.6341 -0.8339  0.7804
38598SOL     OW24571   3.908   3.222   2.880  0.0461 -0.0663  0.1181
38598SOL    HW124572   3.984   3.185   2.925  0.0532 -0.2796 -0.0636
38598SOL    HW224573   3.903   3.312   2.910  0.9709  0.2491 -0.6220
38599SOL     OW24574   0.141   0.108  11.350 -0.1029  0.1228  0.1169
38599SOL    HW124575   0.076   0.103  11.280  1.3706  0.3009 -1.3212
38599SOL    HW224576   0.120   0.189  11.396 -1.5060 -0.3297  0.3423
38600SOL     OW24577   8.478   1.798   9.459 -0.4832 -0.3503  0.2940
38600SOL    HW124578   8.423   1.723   9.437 -0.8871 -1.0303  3.1407
38600SOL    HW224579   8.547   1.762   9.514  0.8797  1.0179 -0.4365
38601SOL     OW24580   7.873  10.575   3.013  0.2818  0.7045 -0.3519
38601SOL    HW124581   7.794  10.538   3.054 -0.6534  2.7026 -0.2403
38601SOL    HW224582   7.938  10.575   3.084 -0.1103  0.5231  0.0158
38602SOL     OW24583   8.812   0.063  11.043  0.1909 -0.1934 -0.4209
38602SOL    HW124584   8.835   0.034  11.131 -0.1774 -3.1658 -1.2020
38602SOL    HW224585   8.894   0.097  11.007  0.6907 -0.3135  0.5616
38603SOL     OW24586   3.567   4.709   8.684  0.3126 -0.0910 -0.6055
38603SOL    HW124587   3.478   4.719   8.649  0.3279 -0.5001 -0.7612
38603SOL    HW224588   3.563   4.753   8.770  0.5099  1.6863 -1.4543
38604SOL     OW24589   5.985   2.793   3.975 -0.2232  0.1731  0.1334
38604SOL    HW124590   5.996   2.698   3.969  1.2581 -0.0563  3.6659
38604SOL    HW224591   6.037   2.827   3.902  0.1863 -1.7199 -0.5280
38605SOL     OW24592   7.064   0.555   8.764  0.1352  0.3031  0.5098
38605SOL    HW124593   6.970   0.541   8.764  0.1831 -0.0445  0.8025
38605SOL    HW224594   7.075   0.649   8.750 -0.3342  0.7259  2.6584
38606SOL     OW24595   3.868   4.179  10.477 -0.0698 -0.1301 -0.0350
38606SOL    HW124596   3.841   4.089  10.460  3.8836 -1.3414 -0.9532
38606SOL    HW224597   3.877   4.184  10.572  1.7869 -1.4934 -0.0973
38607SOL     OW24598   3.749   9.775   9.115  0.1738  0.3593  0.1420
38607SOL    HW124599   3.821   9.751   9.173 -0.0694  1.4603  0.9492
38607SOL    HW224600   3.710   9.692   9.088  0.4043 -0.1898  1.4268
38608SOL     OW24601   2.637   6.593  10.764 -0.0900 -0.4308 -0.7207
38608SOL    HW124602   2.695   6.532  10.719  1.6310  0.0616  0.7179
38608SOL    HW224603   2.692   6.668  10.784 -1.3587  0.2716  0.2745
38609SOL     OW24604   6.406   5.286   8.020  0.0311 -0.7045  0.4910
38609SOL    HW124605   6.423   5.195   8.042  0.0024 -0.4516  1.5994
38609SOL    HW224606   6.407   5.332   8.104 -0.3999  0.2436 -0.0065
38610SOL     OW24607  11.004   8.307   3.391  0.1303 -0.6395 -0.6046
38610SOL    HW124608  11.099   8.305   3.400  0.2993  3.4765  0.9637
38610SOL    HW224609  10.971   8.289   3.479 -0.1722  2.4101  0.0236
38611SOL     OW24610   4.258   4.074   6.685 -0.3107 -0.5383 -0.0348
38611SOL    HW124611   4.262   4.076   6.589 -1.0797  1.6670 -0.0716
38611SOL    HW224612   4.306   4.152   6.713 -1.3214 -0.3671  1.3167
38612SOL     OW24613   0.523  10.239   3.049  0.0717 -0.6363 -0.1483
38612SOL    HW124614   0.540  10.332   3.032 -0.1484 -0.7465 -1.0011
38612SOL    HW224615   0.473  10.210   2.973 -1.9973 -0.8796  1.2495
38613SOL     OW24616  10.659  12.481   9.711  0.0142  0.3344  0.1118
38613SOL    HW124617  10.634  12.493   9.802  0.8151  0.0960  0.3709
38613SOL    HW224618  10.698  12.394   9.707 -0.4139  0.1644 -0.5516
38614SOL     OW24619   8.556   2.312   0.935 -0.0121  0.7718 -0.6937
38614SOL    HW124620   8.495   2.356   0.876 -0.9438  1.6224  0.8598
38614SOL    HW224621   8.642   2.338   0.904 -0.4908  1.4743 -1.4787
38615SOL     OW24622  12.091   7.323   1.211  0.6792 -0.1874 -0.3548
38615SOL    HW124623  12.088   7.400   1.268  0.6780 -0.3833 -0.0832
38615SOL    HW224624  12.005   7.282   1.223  1.2902 -1.1832  0.8615
38616SOL     OW24625   5.745   1.392   1.947 -0.1329 -0.1030  0.5801
38616SOL    HW124626   5.728   1.377   2.040 -2.2144 -1.3588  0.0625
38616SOL    HW224627   5.676   1.453   1.920 -0.0348 -0.3744 -0.3036
38617SOL     OW24628   8.577   1.290   3.003 -0.4500 -0.1175 -0.2500
38617SOL    HW124629   8.584   1.252   3.091 -2.2937 -2.6285 -1.0716
38617SOL    HW224630   8.645   1.357   3.001 -0.4297  0.1336  3.1148
38618SOL     OW24631  12.219   3.717   0.227  0.5994 -0.1920 -0.4701
38618SOL    HW124632  12.155   3.658   0.266  0.5023  1.3689  1.9896
38618SOL    HW224633  12.166   3.788   0.190  0.8045 -0.2387 -0.8539
38619SOL     OW24634   9.889   0.182   3.128  0.0714  0.3278 -0.3984
38619SOL    HW124635   9.894   0.086   3.123 -1.5959  0.1657  0.4464
38619SOL    HW224636   9.805   0.200   3.170  0.6264  2.1649  0.0291
38620SOL     OW24637   3.738  11.804   7.147  0.1399  0.3558  0.8063
38620SOL    HW124638   3.731  11.718   7.105  0.6095  0.4942  0.4416
38620SOL    HW224639   3.814  11.845   7.106 -1.5092  1.9401 -0.8449
38621SOL     OW24640  10.334   3.160  11.610 -0.4502  0.4109  0.3632
38621SOL    HW124641  10.323   3.126  11.521 -0.5861 -0.3834  0.6754
38621SOL    HW224642  10.401   3.228  11.602 -1.3874  1.2466 -0.5668
38622SOL     OW24643  10.485   4.137   5.022  0.3481 -0.3834 -0.5365
38622SOL    HW124644  10.436   4.090   5.089 -0.4547  0.3957 -0.5535
38622SOL    HW224645  10.561   4.172   5.068 -1.4124  2.2405  0.6488
38623SOL     OW24646   8.435   8.801   1.434 -0.4883  0.2849  0.2460
38623SOL    HW124647   8.484   8.801   1.351 -0.1669 -0.3217  0.4283
38623SOL    HW224648   8.405   8.711   1.443 -2.1215  0.7571 -0.1302
38624SOL     OW24649   6.530   6.288   6.550 -0.2981  0.0678  0.0663
38624SOL    HW124650   6.522   6.254   6.461 -0.3303  1.4690 -0.4890
38624SOL    HW224651   6.616   6.259   6.580 -0.5923 -1.0372 -0.1334
38625SOL     OW24652   8.357   2.947   6.552  0.0915 -0.3023  0.2074
38625SOL    HW124653   8.296   2.879   6.522 -0.8477  0.7833 -0.4459
38625SOL    HW224654   8.380   2.995   6.473 -0.7312  1.2725  0.8784
38626SOL     OW24655   0.601  11.155   1.607 -0.4211  0.4460  0.3710
38626SOL    HW124656   0.507  11.140   1.605 -0.4899  0.7785  0.8395
38626SOL    HW224657   0.610  11.249   1.621 -0.0235  0.3464  0.8206
38627SOL     OW24658   7.365   0.117   7.105 -0.5602  0.2249 -0.3226
38627SOL    HW124659   7.338   0.207   7.088  0.5060  0.7691  0.7339
38627SOL    HW224660   7.283   0.067   7.101 -1.9097  1.8413  2.8901
38628SOL     OW24661   1.827   6.575   5.941 -0.0110 -0.0896 -0.2937
38628SOL    HW124662   1.871   6.556   6.024 -1.7871 -2.3853  0.2282
38628SOL    HW224663   1.736   6.590   5.965 -0.6229 -1.0955 -1.8353
38629SOL     OW24664  11.333   1.535   1.303  0.1983 -0.3205 -0.5349
38629SOL    HW124665  11.263   1.475   1.279 -1.3895  0.4682  1.7351
38629SOL    HW224666  11.293   1.622   1.296  1.0356  0.1689  0.5044
38630SOL     OW24667   2.777   9.893  12.571 -0.5459 -0.2326  0.0498
38630SOL    HW124668   2.807   9.959  12.632  0.0364 -1.6861  1.4085
38630SOL    HW224669   2.814   9.811  12.603 -0.6622 -1.1457 -1.9576
38631SOL     OW24670   2.140  11.327   8.372  0.2823 -0.0271  0.0172
38631SOL    HW124671   2.065  11.277   8.405  0.8614 -1.1395 -0.2722
38631SOL    HW224672   2.187  11.354   8.451  0.8715 -1.4260  0.1825
38632SOL     OW24673  11.944   5.000   7.452  0.1936  0.1345 -0.4410
38632SOL    HW124674  11.860   5.045   7.457 -0.2722 -0.7892  0.4314
38632SOL    HW224675  12.007   5.061   7.489 -0.1446  0.6873 -0.7639
38633SOL     OW24676   9.689   6.868   2.276 -0.1692  0.2532 -0.0071
38633SOL    HW124677   9.697   6.774   2.259 -1.7361  0.1474 -0.3373
38633SOL    HW224678   9.648   6.903   2.198  0.8336  1.3216 -0.0848
38634SOL     OW24679  12.367   0.357   9.781 -0.0122 -0.5427  0.1584
38634SOL    HW124680  12.276   0.358   9.813  0.5045 -1.4554  1.7802
38634SOL    HW224681  12.367   0.292   9.711 -0.7377 -0.0221 -0.3482
38635SOL     OW24682   0.603   1.371   3.496 -0.4560 -0.2627 -0.1451
38635SOL    HW124683   0.511   1.390   3.513 -0.6203 -0.0403 -1.2132
38635SOL    HW224684   0.632   1.321   3.573 -0.4387  2.7646  2.0241
38636SOL     OW24685   5.839   1.742   9.623  0.4740  0.3839  0.1887
38636SOL    HW124686   5.807   1.727   9.534  0.4715  0.1133  0.2345
38636SOL    HW224687   5.921   1.693   9.627 -0.0589 -0.4925  0.6738
38637SOL     OW24688   0.828   7.329   7.157 -0.1261  0.2476 -0.1978
38637SOL    HW124689   0.876   7.277   7.222  0.4857  0.7968 -0.2045
38637SOL    HW224690   0.894   7.351   7.091 -0.5683  0.3541 -0.6071
38638SOL     OW24691   0.709   7.353   9.704 -0.8667 -0.6575  0.3969
38638SOL    HW124692   0.701   7.271   9.656  0.5278 -0.5391 -0.1028
38638SOL    HW224693   0.628   7.401   9.684 -0.2134 -0.4474 -2.2372
38639SOL     OW24694  11.577  12.303   9.877  0.1232 -0.1566 -0.1713
38639SOL    HW124695  11.635  12.234   9.847 -0.5382 -0.7115 -0.2164
38639SOL    HW224696  11.592  12.376   9.818  1.3152 -0.0104  0.2792
38640SOL     OW24697   1.259   6.456  11.770  0.1778 -0.6710  0.7454
38640SOL    HW124698   1.266   6.508  11.850 -0.4191  0.2477  0.2204
38640SOL    HW224699   1.228   6.518  11.703 -0.0828 -1.5902 -0.0163
38641SOL     OW24700   0.841   5.349   6.355  0.1477 -0.2257  0.2390
38641SOL    HW124701   0.808   5.398   6.280  0.0532  0.3798  0.6718
38641SOL    HW224702   0.786   5.376   6.429 -1.0057 -2.2371  0.1789
38642SOL     OW24703   3.440  12.032   6.874 -0.0608 -0.5110  0.3602
38642SOL    HW124704   3.508  12.057   6.936  0.6125  1.2500 -1.0137
38642SOL    HW224705   3.383  12.108   6.869 -1.9462 -1.7806  1.1385
38643SOL     OW24706   1.566   3.492   5.422 -0.1037 -0.0288  0.0722
38643SOL    HW124707   1.573   3.587   5.411  2.1362 -0.1384  0.0536
38643SOL    HW224708   1.605   3.456   5.342 -0.0062 -0.9462  0.5203
38644SOL     OW24709   5.909  10.273  12.378 -0.3417 -0.0213 -0.4051
38644SOL    HW124710   5.913  10.294  12.285 -0.4960  1.3459 -0.1235
38644SOL    HW224711   5.997  10.241  12.400 -0.6253 -1.4736 -1.2394
38645SOL     OW24712   0.642   7.223   9.953  0.2991 -0.1078 -0.0261
38645SOL    HW124713   0.683   7.269   9.880  0.4962  0.8026  0.6385
38645SOL    HW224714   0.709   7.222  10.021 -0.5080  0.7583  0.8151
38646SOL     OW24715   1.753   5.804   5.847  0.3220 -0.0053 -0.1903
38646SOL    HW124716   1.689   5.749   5.893  2.6442 -0.5306  2.7212
38646SOL    HW224717   1.744   5.890   5.887  0.9464  0.1039 -0.2721
38647SOL     OW24718   6.197   1.198   5.355  0.4408  0.6359 -0.0945
38647SOL    HW124719   6.274   1.168   5.404  1.5260  1.6369 -1.1154
38647SOL    HW224720   6.143   1.119   5.345  0.3199  0.3296  2.3631
38648SOL     OW24721   4.408   0.249   9.759  0.1214 -0.4890 -0.3807
38648SOL    HW124722   4.335   0.309   9.776  1.0907  0.8743 -0.8247
38648SOL    HW224723   4.485   0.296   9.791  0.8436 -1.7963 -0.1442
38649SOL     OW24724  10.308   6.852  11.109 -0.0277  0.8447  0.3419
38649SOL    HW124725  10.269   6.912  11.174 -2.2495 -0.6891  0.5390
38649SOL    HW224726  10.280   6.888  11.024 -0.0038  0.9501  0.3770
38650SOL     OW24727   4.700   4.590  11.683  0.2323 -0.6817  0.3416
38650SOL    HW124728   4.769   4.598  11.749  1.4269 -0.3783 -0.9041
38650SOL    HW224729   4.746   4.564  11.603 -0.8527  1.0911 -0.9282
38651SOL     OW24730   4.017   2.803  10.658  0.1923 -0.5220  0.3670
38651SOL    HW124731   4.054   2.852  10.731  0.1926 -0.5451  0.3821
38651SOL    HW224732   4.048   2.848  10.580  0.0330 -0.3831  0.3842
38652SOL     OW24733  11.512  12.231   7.015  0.1608 -0.6998 -0.0108
38652SOL    HW124734  11.482  12.176   6.942 -1.0629  0.2235 -0.2272
38652SOL    HW224735  11.434  12.248   7.067  0.9110 -0.8580  1.2162
38653SOL     OW24736   1.099   8.827   5.557 -0.1661 -0.1974  0.8290
38653SOL    HW124737   1.051   8.758   5.602 -2.2456  0.6169 -0.0032
38653SOL    HW224738   1.034   8.870   5.502  1.8587  0.0152 -1.5881
38654SOL     OW24739   8.899   7.409   3.726  0.3762 -0.0223  0.2724
38654SOL    HW124740   8.928   7.500   3.716 -2.8482  1.1319  0.3235
38654SOL    HW224741   8.833   7.413   3.795  0.3287 -2.4835  0.4425
38655SOL     OW24742   4.760  11.558   8.578  0.0227 -0.1238 -0.5481
38655SOL    HW124743   4.765  11.624   8.510 -0.9258  1.9812  1.2766
38655SOL    HW224744   4.675  11.573   8.620  0.3731 -1.6195  0.8249
38656SOL     OW24745  12.080  11.536   8.595  0.1497 -0.2500 -0.1319
38656SOL    HW124746  12.077  11.466   8.529 -2.6656 -0.2189 -0.1657
38656SOL    HW224747  12.032  11.609   8.554 -0.7674  0.1223  1.5309
38657SOL     OW24748  11.514   7.742   3.669 -0.3825 -0.7029 -0.8064
38657SOL    HW124749  11.497   7.757   3.762 -2.3682  0.7283 -1.3266
38657SOL    HW224750  11.486   7.652   3.654  0.6921 -1.2128  0.1152
38658SOL     OW24751   0.891  12.269  12.438 -0.3305  0.0374  0.4588
38658SOL    HW124752   0.836  12.243  12.365 -0.2919 -0.1149  0.4840
38658SOL    HW224753   0.833  12.268  12.514 -0.4950  0.6849  0.3507
38659SOL     OW24754   1.188   9.432  10.778 -0.3350 -0.8685  0.6336
38659SOL    HW124755   1.120   9.448  10.712  0.4703  0.6684  0.1060
38659SOL    HW224756   1.147   9.454  10.861 -0.5533 -0.0908  0.3324
38660SOL     OW24757   9.081   5.299  12.230  0.1443 -0.1276  0.0952
38660SOL    HW124758   9.009   5.338  12.181  2.3280  2.4467 -1.3524
38660SOL    HW224759   9.088   5.209  12.197 -2.3769 -0.5099  0.4045
38661SOL     OW24760   2.622   2.893   9.964  0.3156 -0.3795  0.2678
38661SOL    HW124761   2.592   2.881  10.054 -0.2216 -1.8062 -0.0730
38661SOL    HW224762   2.599   2.811   9.920  1.4408 -0.0865 -0.9334
38662SOL     OW24763   1.076  12.024   2.828  0.3539  0.0658  0.0016
38662SOL    HW124764   0.984  12.050   2.821  0.4646  0.3446 -0.4479
38662SOL    HW224765   1.119  12.066   2.753  0.6867 -0.7669 -0.2857
38663SOL     OW24766   1.289   9.209   1.040  0.4826  0.3811  0.3596
38663SOL    HW124767   1.253   9.121   1.027 -1.7958  1.2416  0.3516
38663SOL    HW224768   1.310   9.240   0.952  0.4327  0.1829  0.2775
38664SOL     OW24769   9.050   4.569   3.958  0.0217 -0.2031  0.0385
38664SOL    HW124770   9.127   4.531   3.917 -0.0601  0.7631 -1.0671
38664SOL    HW224771   8.978   4.548   3.899  0.0741  2.1445 -0.9817
38665SOL     OW24772   0.180   2.190   5.843 -0.4156 -0.2965  0.6531
38665SOL    HW124773   0.212   2.168   5.931 -0.3338 -0.5679  0.5577
38665SOL    HW224774   0.089   2.217   5.857 -0.5462 -0.7798  0.7694
38666SOL     OW24775   4.931   4.178   8.700 -0.0439  0.3629  0.0579
38666SOL    HW124776   5.001   4.173   8.636 -0.3246 -0.0803 -0.2236
38666SOL    HW224777   4.914   4.271   8.711  0.3297  0.4563 -0.1553
38667SOL     OW24778   3.312   8.076   5.786 -0.1214 -0.1965  0.3454
38667SOL    HW124779   3.406   8.083   5.775 -0.3976  0.8698 -2.1631
38667SOL    HW224780   3.286   8.159   5.826 -0.2525  0.9245 -1.9003
38668SOL     OW24781   9.034   8.235  12.281 -0.6851 -0.1827 -0.1084
38668SOL    HW124782   8.945   8.264  12.260 -0.3932  0.1532 -0.9114
38668SOL    HW224783   9.082   8.316  12.299 -0.1045 -0.2035 -1.4230
38669SOL     OW24784  10.378   5.197  12.221  0.1457 -0.0136 -0.0052
38669SOL    HW124785  10.419   5.200  12.308  1.2505 -0.0761 -0.5167
38669SOL    HW224786  10.397   5.109  12.189  0.1455  0.1687 -0.5107
38670SOL     OW24787   7.550   5.297  10.485  0.1085  0.7051  0.3155
38670SOL    HW124788   7.482   5.254  10.433 -1.9195  0.4832  2.9620
38670SOL    HW224789   7.585   5.365  10.427 -1.4229 -0.0467 -1.5954
38671SOL     OW24790   1.501  12.442   5.615  0.3701 -0.4748  0.2487
38671SOL    HW124791   1.568  12.474   5.555 -1.4003 -1.1233 -2.2552
38671SOL    HW224792   1.482  12.353   5.585 -1.1295 -0.5546  1.2955
38672SOL     OW24793   0.239  10.716   2.341 -0.2276  0.4202  0.6104
38672SOL    HW124794   0.231  10.699   2.434 -0.1711  0.8036  0.6886
38672SOL    HW224795   0.150  10.713   2.307 -0.4455  1.9177  0.9763
38673SOL     OW24796  10.225  11.828   2.338 -0.3360  0.3752 -0.4213
38673SOL    HW124797  10.196  11.914   2.369 -1.2635 -0.5537  1.4751
38673SOL    HW224798  10.319  11.828   2.351 -0.6790 -0.0656  2.9660
38674SOL     OW24799  12.162  11.245   4.166  0.0690 -0.0044  0.2740
38674SOL    HW124800  12.090  11.274   4.222  0.6594 -0.5544  1.3687
38674SOL    HW224801  12.193  11.164   4.208  1.3311  0.2315 -0.1537
38675SOL     OW24802   0.208   8.008   7.920  0.5132  0.8288 -0.1812
38675SOL    HW124803   0.265   8.074   7.883  0.6887 -0.3213 -2.1211
38675SOL    HW224804   0.121   8.028   7.884  0.0737  1.3370  1.0879
38676SOL     OW24805   6.976   2.443  10.874 -0.1073 -0.3994 -0.1063
38676SOL    HW124806   7.030   2.450  10.953 -0.1552 -3.7659  0.3653
38676SOL    HW224807   7.026   2.385  10.816 -2.0421 -1.5865 -0.6900
38677SOL     OW24808   1.630   2.136   6.596 -0.2381  0.0447  0.2056
38677SOL    HW124809   1.565   2.070   6.570 -0.5350 -0.0766  1.2261
38677SOL    HW224810   1.590   2.219   6.570 -0.3298 -0.1024 -0.1347
38678SOL     OW24811   5.566  11.336   3.342 -0.4618 -0.2577 -0.2580
38678SOL    HW124812   5.528  11.250   3.360 -0.2481 -0.0155  1.5302
38678SOL    HW224813   5.656  11.317   3.317 -0.5756 -0.5736 -0.4453
38679SOL     OW24814  12.538   9.145   2.376  0.3467 -0.6869  0.2560
38679SOL    HW124815  12.516   9.072   2.434 -0.2475 -1.4057 -0.8414
38679SOL    HW224816  12.530   9.109   2.288 -0.4863  0.8507 -0.3343
38680SOL     OW24817   1.347   8.725   1.837  0.4280 -0.0923 -0.2522
38680SOL    HW124818   1.304   8.801   1.798  0.0437  0.3965  1.0598
38680SOL    HW224819   1.440   8.739   1.822  0.2767 -0.1047 -1.2798
38681SOL     OW24820  12.033   8.056   0.015 -0.4917 -0.1905 -0.5291
38681SOL    HW124821  12.098   8.000  -0.027 -1.7223 -2.7255  0.7687
38681SOL    HW224822  12.030   8.026   0.106 -1.7535  1.5258  0.0480
38682SOL     OW24823   8.370  12.116   1.967  0.2679 -0.2977  0.4156
38682SOL    HW124824   8.434  12.163   1.913  1.5125 -1.0210  1.1880
38682SOL    HW224825   8.294  12.106   1.911  1.0622  0.0485 -0.7725
38683SOL     OW24826   5.193   9.862   8.837 -0.7533  0.1233  0.3707
38683SOL    HW124827   5.108   9.878   8.797  0.1503 -0.2805 -1.8627
38683SOL    HW224828   5.177   9.795   8.903 -2.3478  0.9711  0.9015
38684SOL     OW24829   1.497   2.803   0.933 -0.0968  0.9069 -0.2582
38684SOL    HW124830   1.450   2.723   0.958 -0.5945  1.6376  1.2688
38684SOL    HW224831   1.430   2.858   0.893  0.1079  0.8170 -0.7307
38685SOL     OW24832   6.625   1.289  10.288  0.3835  0.1538 -0.6000
38685SOL    HW124833   6.702   1.253  10.333  0.6538  2.2185  0.7476
38685SOL    HW224834   6.571   1.213  10.267  0.4264 -1.0363  2.9152
38686SOL     OW24835   7.268   9.961  12.364 -0.2227  0.2892  0.0657
38686SOL    HW124836   7.234   9.891  12.307 -1.6494 -0.2760  1.5526
38686SOL    HW224837   7.191  10.004  12.399  0.6349  1.2447  0.8545
38687SOL     OW24838  10.365   9.274   0.529 -0.0769 -0.0286 -0.3598
38687SOL    HW124839  10.416   9.350   0.556 -0.4738 -0.2238  1.0331
38687SOL    HW224840  10.386   9.206   0.593  2.2128 -2.0041 -2.9747
38688SOL     OW24841   5.671  10.353   8.027 -0.5746 -0.2323 -0.3921
38688SOL    HW124842   5.646  10.269   7.989  1.1801 -0.7981 -0.3944
38688SOL    HW224843   5.678  10.335   8.121 -0.9060  0.1050 -0.3015
38689SOL     OW24844   9.449   3.996   4.149  0.3312 -0.1132  0.3171
38689SOL    HW124845   9.495   3.912   4.158  0.6251  0.0147 -0.0022
38689SOL    HW224846   9.397   3.987   4.069 -1.3374 -0.7893  1.4004
38690SOL     OW24847   0.609   6.511  10.483 -0.3163  0.2313  0.7064
38690SOL    HW124848   0.652   6.583  10.531 -0.4782  0.3667  0.6505
38690SOL    HW224849   0.614   6.538  10.391 -1.7480  0.9312  0.7985
38691SOL     OW24850   4.310   8.004   8.873 -0.0787 -0.4554 -0.4264
38691SOL    HW124851   4.396   7.966   8.892  0.1622 -0.1790 -0.9332
38691SOL    HW224852   4.322   8.048   8.789 -0.0295  1.6765  0.6381
38692SOL     OW24853   6.224   4.986   1.261  0.3993  0.0470  0.4822
38692SOL    HW124854   6.239   5.013   1.352  0.4942  1.1588  0.1551
38692SOL    HW224855   6.218   4.891   1.265  0.6825  0.0584  1.6151
38693SOL     OW24856  10.703   0.740   4.748 -0.0371  0.4129 -0.6081
38693SOL    HW124857  10.614   0.720   4.775 -0.0137  0.0332 -0.8121
38693SOL    HW224858  10.739   0.657   4.719  0.7119  0.3595  0.4094
38694SOL     OW24859   8.076   8.359   3.533 -0.0723 -0.1378 -0.4263
38694SOL    HW124860   8.127   8.321   3.461  0.7533 -0.3160  0.2280
38694SOL    HW224861   8.135   8.423   3.572 -0.7435  0.4061 -0.2975
38695SOL     OW24862   2.916   1.442   0.428  0.1165  0.6379  0.4332
38695SOL    HW124863   2.820   1.448   0.423  0.1453  0.3547 -0.7950
38695SOL    HW224864   2.939   1.379   0.359  0.9418 -2.0253  2.9349
38696SOL     OW24865   7.628   0.898   3.853 -0.3565 -0.0803 -0.0869
38696SOL    HW124866   7.640   0.874   3.945  1.3123  0.6197 -0.0868
38696SOL    HW224867   7.603   0.990   3.855  0.8155  0.2549 -0.3608
38697SOL     OW24868   3.583   1.107   5.370  0.2562 -0.3199 -0.4021
38697SOL    HW124869   3.550   1.122   5.459  0.5870 -1.2304 -0.1118
38697SOL    HW224870   3.557   1.017   5.350  1.0609 -0.4660 -0.8299
38698SOL     OW24871   7.372  11.925   5.269 -0.0164 -0.2918 -0.1641
38698SOL    HW124872   7.413  11.985   5.331 -0.2496  0.9968 -1.2034
38698SOL    HW224873   7.325  11.862   5.323 -1.1424  1.4512  0.9609
38699SOL     OW24874   6.111   0.376   4.311  0.3020 -0.4568  0.0566
38699SOL    HW124875   6.142   0.310   4.249 -0.4931  0.3812 -1.3012
38699SOL    HW224876   6.025   0.345   4.339  1.2911 -1.6118  2.0093
38700SOL     OW24877  12.307   0.155   1.396  0.5948 -0.2663  0.5166
38700SOL    HW124878  12.293   0.066   1.363  2.0630 -0.6247  0.7674
38700SOL    HW224879  12.310   0.145   1.491 -1.1379  0.3801  0.6800
38701SOL     OW24880   3.491   4.888  11.086  0.1625 -0.1703 -0.0718
38701SOL    HW124881   3.580   4.861  11.110  0.1212  0.1268  0.4161
38701SOL    HW224882   3.478   4.971  11.132 -0.3271 -0.1591 -0.2329
38702SOL     OW24883   8.535   4.244   0.080  0.0441 -0.2381 -0.2779
38702SOL    HW124884   8.623   4.248   0.044 -0.2208  3.4614 -0.8983
38702SOL    HW224885   8.477   4.259   0.005 -1.0463 -1.2662  0.3224
38703SOL     OW24886   4.588   6.528   8.784 -0.3006 -0.3632  0.1042
38703SOL    HW124887   4.622   6.531   8.874 -0.3140  1.5768  0.0797
38703SOL    HW224888   4.493   6.524   8.795 -0.4693  2.5020  0.2479
38704SOL     OW24889   7.651   2.023  10.801 -0.1942 -0.6616  0.1436
38704SOL    HW124890   7.566   2.020  10.757 -1.4570 -2.0667  2.4803
38704SOL    HW224891   7.714   2.037  10.731 -2.2800 -0.3301 -1.7653
38705SOL     OW24892   7.055   0.410   9.993 -0.3128  0.6949 -0.7120
38705SOL    HW124893   7.108   0.489   9.987  0.7122  0.0681 -0.2836
38705SOL    HW224894   7.000   0.425  10.070 -0.8091  1.3834 -1.1971
38706SOL     OW24895   1.338   4.871   7.539  0.2182 -0.0365  0.0800
38706SOL    HW124896   1.266   4.909   7.590 -0.9000 -0.4457 -1.1383
38706SOL    HW224897   1.297   4.841   7.458  1.7307 -0.5167 -0.5459
38707SOL     OW24898   3.307   6.900   3.786 -0.7896  0.5988  0.7446
38707SOL    HW124899   3.356   6.954   3.848 -0.6074  2.8023 -1.2127
38707SOL    HW224900   3.359   6.901   3.706 -0.5183 -2.9921  0.6746
38708SOL     OW24901   3.494   8.019   2.957  0.0195 -0.1688  0.1831
38708SOL    HW124902   3.417   8.031   2.902  0.3462 -0.5388 -0.3683
38708SOL    HW224903   3.464   7.964   3.029  0.5571 -3.4462 -1.9070
38709SOL     OW24904   9.936   4.621  10.095  0.0099  0.2580 -0.2873
38709SOL    HW124905   9.847   4.651  10.078  0.1815  0.3448 -1.0631
38709SOL    HW224906   9.931   4.526  10.085 -0.6462 -0.1262  2.6658
38710SOL     OW24907   3.004   6.781  10.101 -0.1416  0.8235 -0.4943
38710SOL    HW124908   2.985   6.727  10.177 -0.9233  3.5046  1.3439
38710SOL    HW224909   2.927   6.769  10.044 -1.0147  1.1029  0.5801
38711SOL     OW24910   1.093   8.115  11.686  0.3629  0.2619  0.5335
38711SOL    HW124911   1.017   8.159  11.649  2.0667  1.6333 -1.5559
38711SOL    HW224912   1.062   8.027  11.708 -1.5211  0.3850 -1.3648
38712SOL     OW24913  10.357  11.351   1.901  0.0342 -0.1459  0.8924
38712SOL    HW124914  10.417  11.283   1.871  0.6181  1.0892 -0.9495
38712SOL    HW224915  10.410  11.431   1.900 -1.4816  0.9204 -0.4264
38713SOL     OW24916  11.415   6.700   0.459  0.1058 -0.2791  0.1352
38713SOL    HW124917  11.467   6.650   0.396 -0.4947 -0.3278 -0.3353
38713SOL    HW224918  11.474   6.717   0.532  0.4916 -1.1488  0.0296
38714SOL     OW24919   9.756   9.010   0.845 -0.0653  0.4687 -0.0074
38714SOL    HW124920   9.682   9.026   0.786 -0.5972 -1.3529  0.1047
38714SOL    HW224921   9.833   9.010   0.789 -0.6080 -1.6718 -0.8422
38715SOL     OW24922   7.713   3.666  10.276 -0.7960  0.2022 -0.4715
38715SOL    HW124923   7.669   3.741  10.316  0.2834  0.8249 -0.3959
38715SOL    HW224924   7.680   3.590  10.323 -1.1882  0.7239  0.1041
38716SOL     OW24925   1.052   0.736   4.256  0.3116 -0.0503  0.4822
38716SOL    HW124926   1.004   0.747   4.174 -1.0953  0.2738  1.3297
38716SOL    HW224927   1.010   0.661   4.298  1.3919 -0.5694  0.6793
38717SOL     OW24928   1.028  10.276  12.571  0.1820  0.1531  0.1492
38717SOL    HW124929   0.974  10.292  12.649 -0.8634 -0.7053 -0.3752
38717SOL    HW224930   1.015  10.353  12.517 -2.4784 -0.9771 -1.0339
38718SOL     OW24931  11.567  10.461   3.387 -0.7213 -0.1410  0.0059
38718SOL    HW124932  11.595  10.508   3.308  0.1264  0.7542  0.8011
38718SOL    HW224933  11.483  10.500   3.410  0.3809  1.7144  1.1611
38719SOL     OW24934   6.941   8.352   0.974  0.0573 -0.2146 -0.1405
38719SOL    HW124935   7.022   8.320   1.012  0.2347  0.0998 -0.2526
38719SOL    HW224936   6.937   8.312   0.887  0.4856  0.3867 -0.4441
38720SOL     OW24937   0.050  11.593   5.830 -0.0839 -0.1951  0.1672
38720SOL    HW124938   0.122  11.656   5.820 -0.1888  0.0795  1.0532
38720SOL    HW224939  -0.026  11.637   5.791 -0.5419  0.9528  2.2125
38721SOL     OW24940   7.643   0.285  10.297  0.2868  0.8858  0.4929
38721SOL    HW124941   7.649   0.381  10.290  0.4680  0.8026 -0.7935
38721SOL    HW224942   7.587   0.260  10.224  1.9067 -0.1430 -0.4660
38722SOL     OW24943   1.772   6.940   7.181  0.4521 -0.4047 -0.1163
38722SOL    HW124944   1.722   7.021   7.175  1.4707  0.1597 -1.2329
38722SOL    HW224945   1.746   6.889   7.104  1.9458  0.1247 -1.0074
38723SOL     OW24946   6.607   1.970   6.512 -0.5001 -0.1006 -0.1228
38723SOL    HW124947   6.620   2.063   6.492 -1.0990  0.6072  2.3678
38723SOL    HW224948   6.520   1.950   6.479 -0.8875  0.6081  0.4346
38724SOL     OW24949   9.017   0.864   7.294  0.2008  0.4584  0.0420
38724SOL    HW124950   9.027   0.867   7.199 -0.2677  0.6602 -0.0077
38724SOL    HW224951   8.962   0.788   7.310  0.8206  0.0395  0.2087
38725SOL     OW24952   0.654   9.345   3.427  0.0012  0.3711  0.4083
38725SOL    HW124953   0.576   9.339   3.371  0.5413  0.1850 -0.3361
38725SOL    HW224954   0.714   9.279   3.392  0.6756  0.8300  0.6759
38726SOL     OW24955   5.093  12.194   1.555  0.7502  0.1330  0.2796
38726SOL    HW124956   5.117  12.285   1.577  0.7761  0.7069 -1.9117
38726SOL    HW224957   5.005  12.202   1.516  0.1721 -0.9851  1.3020
38727SOL     OW24958  10.284   5.351   9.112 -1.2633 -0.0999  0.3401
38727SOL    HW124959  10.241   5.265   9.121 -1.7665  0.0082 -0.7683
38727SOL    HW224960  10.271   5.373   9.020  2.3646 -0.6750 -0.4513
38728SOL     OW24961   6.993   6.343   4.616 -0.1489  0.3502  0.0289
38728SOL    HW124962   6.982   6.417   4.676  1.3417 -1.0640  2.2011
38728SOL    HW224963   6.912   6.293   4.624  0.7777 -0.8881  2.5332
38729SOL     OW24964  10.036   0.695  12.412 -0.3243 -0.5549 -0.1625
38729SOL    HW124965  10.063   0.785  12.394 -0.2519 -0.5843 -0.1973
38729SOL    HW224966   9.990   0.667  12.333 -2.1825  0.1651  0.6112
38730SOL     OW24967   8.285   5.897   4.464 -0.1588 -0.8795 -0.0680
38730SOL    HW124968   8.256   5.933   4.549  0.6165 -1.7150  0.5637
38730SOL    HW224969   8.228   5.940   4.400 -1.1496 -0.6584  0.9218
38731SOL     OW24970   0.640   7.241   3.954 -0.1899 -0.3701 -0.1748
38731SOL    HW124971   0.626   7.147   3.942  0.7296 -0.3303 -1.9060
38731SOL    HW224972   0.553   7.279   3.948 -0.6338 -1.1312  1.0448
38732SOL     OW24973   7.373   4.961  11.436 -0.1401 -0.0340 -0.1361
38732SOL    HW124974   7.396   4.889  11.378  0.3661  0.1475 -0.1646
38732SOL    HW224975   7.278   4.971  11.425 -0.0636 -0.0492 -0.8809
38733SOL     OW24976   0.845   0.622   4.094  0.1012  0.1972 -0.1058
38733SOL    HW124977   0.881   0.551   4.041  0.8074 -0.0537  0.6910
38733SOL    HW224978   0.814   0.686   4.031  3.2066  1.0791 -0.8576
38734SOL     OW24979   6.441   7.687   0.039 -0.3876 -0.1244 -0.4003
38734SOL    HW124980   6.391   7.740   0.102 -2.6132 -1.3017 -1.0710
38734SOL    HW224981   6.533   7.703   0.062 -1.0353  1.9234  1.0959
38735SOL     OW24982   5.718  11.947   5.275 -0.5616 -0.2200 -0.2296
38735SOL    HW124983   5.701  11.853   5.283  0.7558 -0.3592  1.5366
38735SOL    HW224984   5.688  11.983   5.359 -1.1283  0.9729 -0.9210
38736SOL     OW24985   1.618   2.203   2.428 -0.0437 -0.5967 -0.1707
38736SOL    HW124986   1.627   2.108   2.439  1.0465 -0.3712  1.1399
38736SOL    HW224987   1.637   2.239   2.514 -1.6926  0.7671 -0.3333
38737SOL     OW24988   3.640   9.886  11.391  1.0872 -0.2029  0.2526
38737SOL    HW124989   3.690   9.960  11.426  0.8062 -0.5032  1.3405
38737SOL    HW224990   3.578   9.926  11.330  1.3968  0.3810  0.3119
38738SOL     OW24991   6.431  11.296   4.857 -0.2351  0.3509  0.6595
38738SOL    HW124992   6.421  11.202   4.870  1.6280  0.0177 -0.0273
38738SOL    HW224993   6.342  11.330   4.861 -0.9554 -1.4451  0.8671
38739SOL     OW24994   9.581   1.542  11.298  0.0975  0.3473  0.3608
38739SOL    HW124995   9.629   1.579  11.372 -1.0387  0.0932  1.2602
38739SOL    HW224996   9.560   1.618  11.243  0.8413  0.5545  0.3583
38740SOL     OW24997   6.079   5.731   5.111 -0.0015 -0.5947  0.0501
38740SOL    HW124998   6.072   5.720   5.206  0.3702  0.9292  0.2894
38740SOL    HW224999   6.101   5.644   5.078  1.3125 -0.8650  1.5310
38741SOL     OW25000   0.002   4.370   3.383 -0.2885  0.2853  0.8388
38741SOL    HW125001  -0.081   4.412   3.360 -0.0258  0.2488 -0.2030
38741SOL    HW225002  -0.012   4.337   3.472 -1.4183  0.1927  0.6392
38742SOL     OW25003   3.588   4.933   3.160 -0.1151 -0.6104 -0.1561
38742SOL    HW125004   3.641   5.007   3.129 -1.4872 -0.2139 -1.6884
38742SOL    HW225005   3.651   4.872   3.198  1.2135  0.6800 -0.2167
38743SOL     OW25006   3.129   9.770  11.227  0.0433 -0.6428  0.1483
38743SOL    HW125007   3.127   9.860  11.262 -0.7644 -1.0658  1.2367
38743SOL    HW225008   3.204   9.730  11.270  0.3906 -0.5130 -0.3221
38744SOL     OW25009   4.094   2.548   6.277 -0.3200  0.3545  0.5591
38744SOL    HW125010   4.096   2.638   6.308 -2.8398  0.5312  0.3466
38744SOL    HW225011   4.152   2.501   6.337  1.4125  2.1528  0.3937
38745SOL     OW25012   8.423   6.077   3.606 -0.1668 -0.0343 -0.2632
38745SOL    HW125013   8.500   6.132   3.611  0.6673 -1.1607 -0.3004
38745SOL    HW225014   8.456   5.988   3.620 -0.9512 -0.9288 -3.2488
38746SOL     OW25015   6.390  11.595   3.105  0.1490 -0.2445  0.1380
38746SOL    HW125016   6.467  11.538   3.108 -1.0681 -1.9393  1.0391
38746SOL    HW225017   6.321  11.543   3.146 -0.9157  2.1197  1.5616
38747SOL     OW25018   0.143   9.173   0.234  0.1826 -0.2388 -0.2007
38747SOL    HW125019   0.088   9.174   0.155  0.7075 -3.4721 -0.7411
38747SOL    HW225020   0.227   9.207   0.206  0.4299 -1.5667 -1.1702
38748SOL     OW25021   0.246  11.465   9.311  0.0032  0.1583 -0.3789
38748SOL    HW125022   0.218  11.400   9.246  0.5727 -0.2011 -0.2759
38748SOL    HW225023   0.245  11.548   9.264 -0.5414  0.0451 -0.5710
38749SOL     OW25024   2.644  11.024   6.765  0.2872  0.5323 -0.0792
38749SOL    HW125025   2.602  10.945   6.732 -0.9478  0.4369  1.5717
38749SOL    HW225026   2.676  10.999   6.852 -0.7605  1.9912  0.7792
38750SOL     OW25027   8.211   5.384   6.327  0.3879 -0.4838 -0.9143
38750SOL    HW125028   8.260   5.339   6.396  0.1822 -1.2491 -1.2508
38750SOL    HW225029   8.157   5.447   6.374 -1.7290 -2.7680 -0.0660
38751SOL     OW25030   8.849   1.495  11.698  0.4385 -0.8637  0.0509
38751SOL    HW125031   8.910   1.568  11.692  0.5286 -0.9322  0.1367
38751SOL    HW225032   8.770   1.526  11.654 -0.0222 -0.1941  1.2895
38752SOL     OW25033   5.769   4.969  10.208  0.5399 -0.0679  0.1640
38752SOL    HW125034   5.859   5.000  10.199  0.8493 -0.6925  1.0104
38752SOL    HW225035   5.763   4.937  10.298  0.0013 -1.7336 -0.4231
38753SOL     OW25036  12.216   6.654   1.683  0.3195  0.1996 -0.3034
38753SOL    HW125037  12.258   6.726   1.729  0.2381 -0.6913  1.2314
38753SOL    HW225038  12.187   6.595   1.752  1.8460 -2.1409 -1.5209
38754SOL     OW25039   8.268   3.141  10.777 -0.1652  0.7067  0.2054
38754SOL    HW125040   8.305   3.202  10.842 -1.2341  0.9198  0.6351
38754SOL    HW225041   8.259   3.194  10.698  1.4988  0.3473 -0.2722
38755SOL     OW25042  12.483   3.157  10.766 -0.2407  0.8103  0.6910
38755SOL    HW125043  12.521   3.070  10.757  0.8258  1.3126  0.2314
38755SOL    HW225044  12.509   3.203  10.687  0.7026  2.0949  1.7125
38756SOL     OW25045   7.019   2.317   3.017  0.1940 -0.3102  0.1352
38756SOL    HW125046   7.077   2.394   3.013 -0.8799  0.4617 -1.4574
38756SOL    HW225047   6.965   2.323   2.938 -0.6287 -2.1597  0.5060
38757SOL     OW25048   8.749  11.652   1.519 -0.1328 -0.1610 -0.5131
38757SOL    HW125049   8.708  11.642   1.433  0.4202  0.3330 -0.8471
38757SOL    HW225050   8.690  11.609   1.579 -0.1748 -1.1596 -1.2415
38758SOL     OW25051   5.248  11.171  10.692  0.0396 -0.0015 -0.0037
38758SOL    HW125052   5.245  11.079  10.663  0.8121  0.4237 -1.5336
38758SOL    HW225053   5.188  11.216  10.632  0.1078  0.5954  0.3745
38759SOL     OW25054   7.746  11.360  11.731  0.3710  0.4059  0.0653
38759SOL    HW125055   7.722  11.356  11.638  0.9786  0.9393 -0.1234
38759SOL    HW225056   7.829  11.314  11.737  0.1462  0.0339  0.4225
38760SOL     OW25057   4.746   6.706  10.848 -0.0134  0.1312 -0.5094
38760SOL    HW125058   4.771   6.696  10.756  0.7004 -1.7979 -0.1457
38760SOL    HW225059   4.818   6.754  10.888  0.1632  0.0485 -0.7308
38761SOL     OW25060   2.674   9.533  10.089 -0.3682  0.0074 -0.3068
38761SOL    HW125061   2.715   9.619  10.078 -0.3051 -0.1001 -0.9036
38761SOL    HW225062   2.599   9.550  10.147  0.8478  0.1019  1.3298
38762SOL     OW25063   4.668  12.325   2.663  0.0903  0.7568  0.5330
38762SOL    HW125064   4.604  12.348   2.595  0.8987  0.7724 -0.2477
38762SOL    HW225065   4.644  12.378   2.738 -1.5318 -0.0925  0.6641
38763SOL     OW25066   4.452   9.134   9.648  0.5328  0.3584  0.2644
38763SOL    HW125067   4.546   9.148   9.637  0.5773  1.4237  1.7598
38763SOL    HW225068   4.413   9.220   9.633 -0.1480  0.0512  0.2578
38764SOL     OW25069  12.343   5.732   1.770 -0.2476 -0.1397 -0.0736
38764SOL    HW125070  12.379   5.654   1.728 -0.1023  0.4241 -1.0293
38764SOL    HW225071  12.332   5.794   1.698 -1.5989  0.2637  0.4608
38765SOL     OW25072   7.345  10.715   8.428 -0.0713  0.6397 -0.4874
38765SOL    HW125073   7.403  10.703   8.353  0.8311  1.1355  0.1004
38765SOL    HW225074   7.368  10.802   8.462 -2.7462  1.8663 -1.5578
38766SOL     OW25075   1.826   5.857   3.138 -0.7597  0.1334 -0.6254
38766SOL    HW125076   1.824   5.796   3.211 -1.4032  0.8185 -0.0595
38766SOL    HW225077   1.884   5.815   3.074 -0.6616 -0.7509  0.0186
38767SOL     OW25078   8.814  12.122  11.044 -0.1997 -0.7638  0.0097
38767SOL    HW125079   8.808  12.216  11.061  0.3206 -0.8869  0.9528
38767SOL    HW225080   8.883  12.113  10.979 -1.4970 -0.3641 -1.5005
38768SOL     OW25081   9.862   3.019   9.944 -0.4164 -0.2095 -0.1343
38768SOL    HW125082   9.929   2.996  10.008 -0.7144 -1.0278 -0.1063
38768SOL    HW225083   9.906   3.009   9.859 -0.1995  0.2801 -0.0801
38769SOL     OW25084   6.920   3.389   1.336 -0.2001  0.2637  0.0028
38769SOL    HW125085   7.009   3.355   1.351 -0.9679 -0.8554  2.7118
38769SOL    HW225086   6.865   3.311   1.332 -1.2248  0.9869 -0.2831
38770SOL     OW25087   1.118   4.998   6.015 -0.1063  0.0117 -0.0848
38770SOL    HW125088   1.128   4.997   5.920  1.0844  0.1541  0.0200
38770SOL    HW225089   1.028   4.971   6.030  0.0518 -1.2436 -1.2061
38771SOL     OW25090  11.483   4.099   7.211 -0.2394 -0.3670  0.4106
38771SOL    HW125091  11.575   4.100   7.238 -0.1604 -0.8021  0.1722
38771SOL    HW225092  11.478   4.165   7.142 -0.1924 -0.0621  0.6997
38772SOL     OW25093   7.351   8.651   8.018 -0.2949  0.1882  0.1435
38772SOL    HW125094   7.329   8.558   8.012  1.3141 -0.1227 -2.4090
38772SOL    HW225095   7.446   8.653   8.029  0.0055  1.4781 -2.1199
38773SOL     OW25096  12.520   5.510   1.919  0.0970 -0.4817  0.6791
38773SOL    HW125097  12.570   5.455   1.859  0.3987 -0.5343  0.9777
38773SOL    HW225098  12.574   5.588   1.931 -0.5740  0.1263 -0.1664
38774SOL     OW25099   7.455   7.386  12.500 -0.1800 -0.1302 -0.1350
38774SOL    HW125100   7.406   7.382  12.583 -0.6333 -1.5191 -0.4435
38774SOL    HW225101   7.528   7.325  12.512  0.1080  0.1324 -0.5378
38775SOL     OW25102   0.347   7.588   0.895 -0.2622  0.3532  0.6347
38775SOL    HW125103   0.382   7.654   0.955 -0.7154  1.6356 -0.4666
38775SOL    HW225104   0.387   7.506   0.923  2.3983  1.4852  0.4228
38776SOL     OW25105   0.893   7.439   4.692 -0.0237  0.1521 -0.1579
38776SOL    HW125106   0.892   7.365   4.630 -0.0188 -0.2882  0.3661
38776SOL    HW225107   0.900   7.398   4.778  2.0483  0.8144  0.0440
38777SOL     OW25108   3.755   7.027   5.967  0.0546 -0.1559 -0.4161
38777SOL    HW125109   3.719   6.942   5.944 -1.1954  0.8093 -2.2465
38777SOL    HW225110   3.759   7.026   6.063 -0.2230 -2.1230 -0.3812
38778SOL     OW25111   0.295   2.286   2.322 -0.3762  0.7708 -0.2036
38778SOL    HW125112   0.341   2.202   2.320 -1.4749  0.1357  0.3308
38778SOL    HW225113   0.213   2.268   2.369 -0.6777  2.1180 -0.1662
38779SOL     OW25114   8.322   6.326  11.544 -0.0753 -0.5581  0.1846
38779SOL    HW125115   8.407   6.289  11.571 -0.3193 -1.1200  0.1895
38779SOL    HW225116   8.286   6.262  11.484 -0.8622 -0.7038  0.7983
38780SOL     OW25117   8.696   2.254  10.459  0.3993  0.4223  0.0112
38780SOL    HW125118   8.784   2.264  10.494  0.2135  1.4491  0.2170
38780SOL    HW225119   8.700   2.293  10.372 -0.1326  1.6344  0.4977
38781SOL     OW25120   7.692   7.583   5.192 -0.4268 -0.4509 -0.3311
38781SOL    HW125121   7.752   7.512   5.170  0.6752  0.4797 -0.4610
38781SOL    HW225122   7.706   7.598   5.285 -1.8973 -1.4979  0.0894
38782SOL     OW25123   3.493  10.328   9.641  0.2532  0.3989  0.0221
38782SOL    HW125124   3.531  10.347   9.555  0.8282  0.1472  0.2184
38782SOL    HW225125   3.477  10.415   9.679  2.2574  0.5417  0.6412
38783SOL     OW25126  12.565   8.134  11.367  0.3235  0.1044  0.4617
38783SOL    HW125127  12.492   8.133  11.305  1.2594  1.8134 -0.7633
38783SOL    HW225128  12.642   8.153  11.313  1.3062  0.7666  2.0266
38784SOL     OW25129  11.383   7.700   8.100  0.0403  0.0024  0.5190
38784SOL    HW125130  11.371   7.624   8.157 -1.9121  0.5799  0.9513
38784SOL    HW225131  11.309   7.697   8.040  0.5929  0.9164 -0.2448
38785SOL     OW25132   4.968   6.745   1.130  0.5878  0.2453 -0.4008
38785SOL    HW125133   5.053   6.725   1.169  0.6311  1.6086  0.2815
38785SOL    HW225134   4.989   6.771   1.040  0.6289 -1.5585 -0.9580
38786SOL     OW25135   9.502   6.836   3.878 -0.2803 -0.0000  0.4998
38786SOL    HW125136   9.589   6.871   3.857 -0.7911  1.0182  0.0021
38786SOL    HW225137   9.482   6.778   3.804 -0.3145  0.3185  0.2546
38787SOL     OW25138   7.320   5.092   2.104  0.0228 -0.8109  0.3068
38787SOL    HW125139   7.359   5.179   2.117 -0.6814 -0.1502 -1.5779
38787SOL    HW225140   7.228   5.110   2.087 -0.5702 -2.1358  1.9468
38788SOL     OW25141   0.636   1.203   6.773 -0.4117  0.7243 -0.0561
38788SOL    HW125142   0.662   1.113   6.793 -0.7114  1.0395  1.8821
38788SOL    HW225143   0.551   1.214   6.817 -1.3294  1.3761 -1.8689
38789SOL     OW25144  12.607   6.057  11.897 -0.0315 -0.3781 -0.1356
38789SOL    HW125145  12.654   6.036  11.816  0.0160  0.4967 -0.3480
38789SOL    HW225146  12.552   6.132  11.874 -0.0932 -0.1839  0.6184
38790SOL     OW25147   4.095   0.352   0.183 -0.1431  0.3145 -0.0135
38790SOL    HW125148   4.021   0.396   0.225  0.4459 -0.2475  1.6649
38790SOL    HW225149   4.166   0.357   0.246  1.0624  0.1999 -1.3040
38791SOL     OW25150   2.452   7.002  12.091 -0.6680  0.1013  0.5163
38791SOL    HW125151   2.457   6.908  12.070 -0.3737  0.3905 -0.8015
38791SOL    HW225152   2.471   7.046  12.008  1.1203  1.3429  1.5216
38792SOL     OW25153   7.747  12.252   9.422 -0.0304 -0.7434  0.2351
38792SOL    HW125154   7.759  12.336   9.467  1.0763 -0.5195 -0.4380
38792SOL    HW225155   7.664  12.218   9.456 -0.3093  0.4459  0.7943
38793SOL     OW25156   6.539   7.876   5.247 -0.3416  0.1324  0.0097
38793SOL    HW125157   6.536   7.947   5.312 -0.0119  2.1332 -2.0624
38793SOL    HW225158   6.448   7.852   5.234 -0.5403  0.8349  0.0605
38794SOL     OW25159  11.012   0.906   5.712 -0.1818 -0.7697  0.5919
38794SOL    HW125160  10.946   0.925   5.645 -0.4865  0.1630  1.1353
38794SOL    HW225161  11.023   0.989   5.758 -1.0204 -1.7143  2.5967
38795SOL     OW25162   4.515   6.279   9.929  0.2317  0.0454 -0.2766
38795SOL    HW125163   4.538   6.328  10.009 -0.2337  0.3661 -0.3354
38795SOL    HW225164   4.440   6.225   9.955  0.8965 -0.8325 -0.1454
38796SOL     OW25165  11.465   0.291   0.630  0.3515  0.2764 -0.3234
38796SOL    HW125166  11.475   0.318   0.538  0.2487  1.0370 -0.1114
38796SOL    HW225167  11.550   0.253   0.652  0.1412 -0.5961 -0.9549
38797SOL     OW25168   0.575   9.200   3.659 -0.3853  0.4628  0.0775
38797SOL    HW125169   0.593   9.255   3.583  0.0420  0.7191  0.3589
38797SOL    HW225170   0.482   9.177   3.652 -0.2865  0.2802 -0.6518
38798SOL     OW25171   0.145   9.979  11.591 -0.7041  0.1321 -0.3537
38798SOL    HW125172   0.182  10.006  11.507  1.7729 -0.8952  0.3015
38798SOL    HW225173   0.139  10.060  11.642 -0.4759  0.5128 -0.9244
38799SOL     OW25174   0.694  11.877   1.271  0.0399  0.1252  0.0581
38799SOL    HW125175   0.710  11.876   1.176 -0.2998 -0.9362 -0.0090
38799SOL    HW225176   0.779  11.858   1.310  0.1156  0.2418 -0.0504
38800SOL     OW25177   4.509   5.961   2.541  0.2998  0.1547  0.6647
38800SOL    HW125178   4.598   5.993   2.556  0.3605 -0.3294  1.3911
38800SOL    HW225179   4.455   6.014   2.600  0.3318 -0.7055  1.4803
38801SOL     OW25180   4.434   4.664   3.241  0.0229 -0.6429  0.6981
38801SOL    HW125181   4.386   4.697   3.316 -0.2132 -0.1240  0.3304
38801SOL    HW225182   4.525   4.692   3.256 -0.2576  0.6231  0.1634
38802SOL     OW25183  11.157   7.122   1.631 -0.1659  0.3558 -0.2381
38802SOL    HW125184  11.191   7.141   1.719 -0.4411 -1.6538  0.3580
38802SOL    HW225185  11.074   7.170   1.627  1.0917  2.6124 -0.4509
38803SOL     OW25186  11.709   7.183   2.952 -0.2147 -0.3474 -0.2261
38803SOL    HW125187  11.651   7.256   2.976  0.2459  0.2610 -0.9064
38803SOL    HW225188  11.668   7.106   2.991 -0.9116  0.2232  0.1990
38804SOL     OW25189   4.436   6.392   5.357  0.0527  0.3434 -0.2734
38804SOL    HW125190   4.385   6.311   5.361 -0.2539  0.5764  1.6600
38804SOL    HW225191   4.455   6.413   5.449  0.7572  2.0740 -0.7665
38805SOL     OW25192   7.199   3.552   4.793  0.1435  0.4646  0.2998
38805SOL    HW125193   7.170   3.544   4.703 -0.7720 -0.5585  0.6608
38805SOL    HW225194   7.128   3.596   4.838 -0.7191 -1.5799  1.0836
38806SOL     OW25195   2.284  10.659   1.708 -0.7952  0.4681 -0.0009
38806SOL    HW125196   2.248  10.678   1.795 -2.0989 -0.1653 -0.3913
38806SOL    HW225197   2.226  10.704   1.647 -1.0685 -0.7433 -0.6536
38807SOL     OW25198   2.743   8.969   3.283  0.3620  0.0828  0.6980
38807SOL    HW125199   2.674   8.940   3.223  0.3863 -0.0620  0.7400
38807SOL    HW225200   2.815   8.996   3.225  1.0731 -1.7256  0.6686
38808SOL     OW25201   0.984   5.422   3.855 -0.1170 -0.0847 -0.9522
38808SOL    HW125202   0.971   5.331   3.828  1.2184 -1.0390  1.2799
38808SOL    HW225203   1.079   5.431   3.865 -0.3405  0.8082  1.0017
38809SOL     OW25204   3.131   2.259   4.994  0.4492 -0.3117  0.3160
38809SOL    HW125205   3.153   2.347   5.026 -3.0110 -0.1312  2.7962
38809SOL    HW225206   3.187   2.200   5.044  0.8772  0.3388  0.6159
38810SOL     OW25207   9.755   2.674  12.244 -0.6134 -0.5106  0.2431
38810SOL    HW125208   9.826   2.713  12.296  1.5364 -1.9707 -1.4593
38810SOL    HW225209   9.763   2.715  12.158 -0.6804 -2.0051 -0.4921
38811SOL     OW25210   1.615   3.751   1.513 -0.3420 -0.1586 -0.0810
38811SOL    HW125211   1.549   3.818   1.496 -2.1367 -1.4465  1.4597
38811SOL    HW225212   1.590   3.678   1.456  1.1035  0.0866 -1.1113
38812SOL     OW25213   2.655   4.731  11.734 -0.5051  0.3848  0.2618
38812SOL    HW125214   2.732   4.674  11.726 -0.8861 -0.2872  1.2887
38812SOL    HW225215   2.690   4.813  11.768  0.4227  1.6831 -3.3743
38813SOL     OW25216   0.447   5.237   2.614 -0.8188 -0.6017  0.4658
38813SOL    HW125217   0.420   5.303   2.550  0.5555 -0.8317 -0.4081
38813SOL    HW225218   0.540   5.254   2.628 -1.0869 -0.5825  2.4291
38814SOL     OW25219   3.248  10.359  11.725  0.2307 -0.0210  0.1097
38814SOL    HW125220   3.153  10.348  11.727  0.2678 -0.4541 -0.3374
38814SOL    HW225221   3.283  10.270  11.735  0.5814  0.0778 -0.2066
38815SOL     OW25222   2.055  12.146   1.823  0.3574  0.7401 -0.1439
38815SOL    HW125223   2.130  12.101   1.785  1.0688  1.6606  0.1447
38815SOL    HW225224   2.090  12.193   1.898 -0.5428  1.0732  0.0845
38816SOL     OW25225   1.398   1.616   6.465 -0.2215  0.0969  0.0346
38816SOL    HW125226   1.424   1.704   6.441 -0.3723  0.3530  0.7711
38816SOL    HW225227   1.462   1.588   6.531 -0.2163 -0.3117 -0.1393
38817SOL     OW25228   4.266   6.536  11.625  0.0688  0.0001 -0.6180
38817SOL    HW125229   4.279   6.466  11.689  0.9046  0.9130  0.2672
38817SOL    HW225230   4.172   6.541  11.612 -0.1477 -0.0383  0.7781
38818SOL     OW25231   9.558   5.632   2.862 -0.5152 -0.4588  0.2721
38818SOL    HW125232   9.630   5.569   2.870  0.8542  0.9323 -0.6141
38818SOL    HW225233   9.595   5.715   2.893  0.4695  1.8326 -5.7463
38819SOL     OW25234   8.942   0.061   0.239  0.2431  0.1517  0.2364
38819SOL    HW125235   8.863   0.113   0.256  0.4724  0.6796 -0.2819
38819SOL    HW225236   9.014   0.115   0.271  0.5625  0.5729 -1.1409
38820SOL     OW25237   2.520   6.332   7.649 -0.0095 -0.3167 -0.0544
38820SOL    HW125238   2.484   6.333   7.560 -0.3395  0.4412  0.0872
38820SOL    HW225239   2.610   6.302   7.637 -0.3950 -1.3549 -0.5049
38821SOL     OW25240   7.132   5.763   2.949  0.2131  0.6360  0.3415
38821SOL    HW125241   7.219   5.786   2.982 -0.0323 -0.3622  1.7656
38821SOL    HW225242   7.148   5.689   2.890  0.3073  0.3527  0.7233
38822SOL     OW25243   9.839   9.727  12.432 -0.1425 -0.2669  0.1146
38822SOL    HW125244   9.778   9.765  12.495 -1.1541 -0.0715 -0.9473
38822SOL    HW225245   9.917   9.705  12.484 -0.0213  2.0468  1.0137
38823SOL     OW25246   0.393   3.055   9.781 -0.2095 -0.2782  0.2127
38823SOL    HW125247   0.304   3.065   9.814  0.3119 -0.1473  1.6340
38823SOL    HW225248   0.393   2.969   9.737 -0.8910 -0.5175  0.6701
38824SOL     OW25249   0.374   4.185   4.471 -0.4493 -0.5129 -0.3346
38824SOL    HW125250   0.338   4.234   4.397 -2.1960 -0.9170  0.2040
38824SOL    HW225251   0.395   4.252   4.536  1.7190 -0.0876 -1.3695
38825SOL     OW25252   5.782   5.766   0.876 -0.5381  0.4198 -0.1753
38825SOL    HW125253   5.724   5.807   0.941 -0.3960 -0.2629  0.3946
38825SOL    HW225254   5.849   5.723   0.928  0.6075  1.3373 -0.8357
38826SOL     OW25255   1.916   5.005   0.819 -0.7564 -0.0559 -0.3111
38826SOL    HW125256   1.925   5.097   0.845  1.5997 -0.4055  0.3665
38826SOL    HW225257   1.933   5.005   0.725  1.0090  0.0442 -0.0245
38827SOL     OW25258   8.776   6.543   7.100  0.4569 -0.2424 -0.0674
38827SOL    HW125259   8.736   6.529   7.186  1.2732  0.5026  0.4461
38827SOL    HW225260   8.707   6.584   7.048  0.4255  0.7107  0.7022
38828SOL     OW25261   7.299   6.096   8.315  0.4482  0.0823  0.0505
38828SOL    HW125262   7.219   6.148   8.322 -0.8553 -1.5788 -1.6099
38828SOL    HW225263   7.288   6.025   8.379 -0.5481 -1.4772 -1.7611
38829SOL     OW25264   0.252  12.184   6.380  0.1683 -0.5249  0.2346
38829SOL    HW125265   0.199  12.247   6.332  1.4967  1.1904  0.9147
38829SOL    HW225266   0.324  12.162   6.321  0.7963  0.1657  0.7274
38830SOL     OW25267  10.268   8.082   0.897 -0.1770  0.2053  0.3048
38830SOL    HW125268  10.241   8.087   0.989  0.2740 -1.8725  0.6089
38830SOL    HW225269  10.288   7.989   0.883 -0.6175  0.3981 -2.0189
38831SOL     OW25270   4.575   9.435   4.629  0.3683  0.2229  0.0906
38831SOL    HW125271   4.599   9.345   4.607  1.3491  0.6286 -0.5864
38831SOL    HW225272   4.647   9.488   4.596  0.8807  1.0971  2.4124
38832SOL     OW25273  12.107   3.046  11.047  0.2680 -0.1488  0.0132
38832SOL    HW125274  12.105   3.134  11.008  1.8122  0.6088  1.5007
38832SOL    HW225275  12.142   2.990  10.978 -2.2034  0.0259 -1.5092
38833SOL     OW25276   6.550   6.660   1.488 -0.0564  0.0670 -0.2089
38833SOL    HW125277   6.612   6.643   1.559 -0.5928 -0.8052  0.0671
38833SOL    HW225278   6.489   6.723   1.525  0.6532  0.9216 -0.4782
38834SOL     OW25279  11.827   7.233   9.608 -0.2970  0.3681  0.2496
38834SOL    HW125280  11.852   7.212   9.698 -0.2659 -0.8370 -0.0169
38834SOL    HW225281  11.786   7.152   9.576 -2.6282  1.5675 -0.0004
38835SOL     OW25282   3.994   6.122   3.966 -0.8344 -0.6773  0.1911
38835SOL    HW125283   4.008   6.176   4.043 -1.2722  0.3567 -0.4327
38835SOL    HW225284   4.012   6.180   3.892  0.6140 -1.9352 -0.4987
38836SOL     OW25285  10.728  11.217   0.800  0.1814 -0.0817 -0.1219
38836SOL    HW125286  10.774  11.301   0.803  0.7074 -0.3534 -0.5932
38836SOL    HW225287  10.797  11.151   0.806 -0.2780 -0.4862  0.9311
38837SOL     OW25288   5.866   6.594   9.106 -0.0242  0.4798  0.2071
38837SOL    HW125289   5.945   6.586   9.052 -0.1034  2.6599 -0.3113
38837SOL    HW225290   5.815   6.515   9.085  1.8969 -0.8928  0.4378
38838SOL     OW25291   7.159   0.823  12.433 -0.5177  0.2401 -0.0977
38838SOL    HW125292   7.248   0.843  12.461 -0.8723 -1.7156  2.9007
38838SOL    HW225293   7.161   0.832  12.338  2.8043  0.4592 -0.1297
38839SOL     OW25294   5.400   9.067   0.801  0.1243  0.0226  0.0992
38839SOL    HW125295   5.479   9.082   0.749 -1.9864  0.9275 -3.0801
38839SOL    HW225296   5.328   9.092   0.744 -2.5522 -1.0912  2.7304
38840SOL     OW25297  10.164   6.802   4.974  0.1354  0.4635 -0.3624
38840SOL    HW125298  10.073   6.800   4.943  0.2820  0.9153 -0.8409
38840SOL    HW225299  10.216   6.770   4.901  0.1858 -2.1783  0.7379
38841SOL     OW25300   3.156   0.032   0.041  0.5886  0.5489  0.0208
38841SOL    HW125301   3.061   0.037   0.048  0.3986  0.0556 -1.6449
38841SOL    HW225302   3.181   0.117   0.004  0.7150  0.4184 -0.1945
38842SOL     OW25303   1.342   7.162   9.879  0.5988  0.2436  0.4066
38842SOL    HW125304   1.437   7.152   9.887  0.5950 -0.0097  0.1640
38842SOL    HW225305   1.306   7.102   9.946  0.5855 -1.0502 -0.7117
38843SOL     OW25306   7.180   7.306  10.368  0.5422 -0.0496  0.1361
38843SOL    HW125307   7.150   7.323  10.279  0.7233 -1.8721 -0.3127
38843SOL    HW225308   7.219   7.388  10.397 -0.7585  0.9969 -0.9404
38844SOL     OW25309   4.127   1.536   1.720 -0.2592 -0.8454 -0.0391
38844SOL    HW125310   4.072   1.483   1.662 -0.2966  1.1846 -1.9894
38844SOL    HW225311   4.214   1.498   1.711 -0.3929 -0.9667 -0.9548
38845SOL     OW25312   3.621   7.316   9.188 -0.3336  0.7413 -0.0060
38845SOL    HW125313   3.611   7.349   9.277 -0.6018  1.2093 -0.2039
38845SOL    HW225314   3.669   7.385   9.142  1.7229 -0.4090  0.2974
38846SOL     OW25315  11.622   1.945   6.873 -0.1480  0.0390 -0.3522
38846SOL    HW125316  11.563   1.870   6.868 -1.4367  0.9874 -0.1923
38846SOL    HW225317  11.686   1.931   6.803 -0.2897 -1.2597 -0.2310
38847SOL     OW25318   3.042   2.662   5.704 -0.4473 -0.1386  0.6956
38847SOL    HW125319   3.099   2.735   5.726 -0.5793  0.5815 -1.1569
38847SOL    HW225320   3.084   2.620   5.628 -2.2046  0.2851 -0.5856
38848SOL     OW25321   5.074   8.814   8.284  0.0101 -0.2356 -0.5105
38848SOL    HW125322   5.124   8.733   8.296 -2.3251 -1.6650  0.2644
38848SOL    HW225323   4.991   8.786   8.247 -1.1919  1.7029  0.5057
38849SOL     OW25324   1.022   7.226  11.556  0.0587 -0.0242 -0.1712
38849SOL    HW125325   1.083   7.263  11.492 -0.0262  0.1892 -0.1288
38849SOL    HW225326   0.943   7.278  11.546 -0.1077 -0.2867 -0.2089
38850SOL     OW25327   2.613  11.892   2.983  0.3191  0.6933  0.2212
38850SOL    HW125328   2.689  11.834   2.990  0.2450  0.5922  0.1809
38850SOL    HW225329   2.547  11.841   2.937  0.3683  0.9270 -0.1154
38851SOL     OW25330   3.055   0.872   1.137 -0.4411 -0.4642 -0.7263
38851SOL    HW125331   3.087   0.783   1.122 -0.9290 -0.5062 -1.5327
38851SOL    HW225332   3.127   0.915   1.183 -0.6370 -1.5973  0.7308
38852SOL     OW25333   8.788   0.750   7.389  0.0005 -0.1702 -0.5817
38852SOL    HW125334   8.771   0.840   7.359 -0.6957  0.4492  1.4740
38852SOL    HW225335   8.722   0.697   7.345  0.7567  0.2008 -2.2387
38853SOL     OW25336  11.507   3.673   1.810  0.5935 -0.2164 -0.1085
38853SOL    HW125337  11.441   3.605   1.801 -0.0652  0.2302  1.1440
38853SOL    HW225338  11.579   3.644   1.754  1.1016 -2.8576  1.7190
38854SOL     OW25339  12.261   3.145   2.732 -0.5017  0.0949 -0.1847
38854SOL    HW125340  12.346   3.188   2.724 -0.6586  0.3233 -0.6371
38854SOL    HW225341  12.248   3.102   2.648 -1.3711  1.0511 -0.5567
38855SOL     OW25342   1.042   1.259   8.777 -0.4421  0.1140 -0.3243
38855SOL    HW125343   1.058   1.347   8.744 -1.5120  0.7648  0.8528
38855SOL    HW225344   0.956   1.236   8.743 -0.6036 -0.0770  0.2118
38856SOL     OW25345   6.307  10.997   1.314  0.6870  0.5364 -0.2899
38856SOL    HW125346   6.347  11.084   1.320  0.8591  0.6923 -2.7601
38856SOL    HW225347   6.215  11.014   1.298  0.5475  0.2408  0.1835
38857SOL     OW25348   8.586   6.497   4.940  0.2582  0.1974 -0.2486
38857SOL    HW125349   8.591   6.544   5.023 -1.0009  1.4693 -0.8602
38857SOL    HW225350   8.493   6.492   4.921  0.3710 -2.1483 -0.4745
38858SOL     OW25351   4.906   8.462   1.791 -0.2061  0.5511 -0.1952
38858SOL    HW125352   4.991   8.504   1.781  0.3447 -0.8323 -1.8790
38858SOL    HW225353   4.883   8.435   1.702 -2.0337  0.1743  0.3556
38859SOL     OW25354   4.479   8.274   3.414 -0.1284  0.0592 -0.1355
38859SOL    HW125355   4.422   8.206   3.449 -1.2111  0.4730 -1.0314
38859SOL    HW225356   4.465   8.349   3.471  0.4721 -0.2028  0.3781
38860SOL     OW25357   8.468   6.900   8.311 -0.3528 -0.1697  0.2793
38860SOL    HW125358   8.454   6.988   8.277 -0.3887 -0.8267 -1.5464
38860SOL    HW225359   8.384   6.856   8.298 -0.3134 -0.5008  1.1046
38861SOL     OW25360   4.267   9.870  10.758 -0.3932 -0.1698 -0.1044
38861SOL    HW125361   4.231   9.804  10.698 -0.8291 -1.3578  1.4251
38861SOL    HW225362   4.350   9.834  10.787 -0.9853 -0.4305  1.3280
38862SOL     OW25363  10.053  12.404   0.764 -0.8147 -0.1046 -0.1227
38862SOL    HW125364   9.966  12.439   0.743  0.2777  1.7100 -2.0962
38862SOL    HW225365  10.078  12.449   0.844 -1.4626 -0.2064  0.1431
38863SOL     OW25366  11.839   2.609   4.303  0.5169 -0.6839  0.2419
38863SOL    HW125367  11.880   2.531   4.265  0.3201 -1.6044  1.8391
38863SOL    HW225368  11.746   2.599   4.281  0.9029  1.0506 -2.7700
38864SOL     OW25369   0.203   7.267   4.425 -0.3979 -0.2139 -0.5594
38864SOL    HW125370   0.204   7.171   4.426  0.4778 -0.2170  1.0894
38864SOL    HW225371   0.278   7.292   4.479 -1.2570  1.3924 -0.0610
38865SOL     OW25372   5.662   0.043   4.995  0.0318 -0.0102 -0.3196
38865SOL    HW125373   5.630   0.069   4.909 -0.3260 -0.6684 -0.3846
38865SOL    HW225374   5.664  -0.052   4.993 -0.9750 -0.0686  0.7560
38866SOL     OW25375   1.414   2.628   7.111 -0.1285 -0.8275 -0.6945
38866SOL    HW125376   1.489   2.652   7.057  1.1810 -0.2857  1.2751
38866SOL    HW225377   1.341   2.621   7.049  0.7079  2.2852 -2.1984
38867SOL     OW25378  10.914   3.729   8.353 -0.4432 -0.2863 -0.1085
38867SOL    HW125379  10.964   3.698   8.277 -1.4426 -0.7473 -0.5947
38867SOL    HW225380  10.896   3.650   8.404  0.0179 -0.0103  0.5009
38868SOL     OW25381   1.025  10.991  12.189  0.2919 -0.2969 -0.5811
38868SOL    HW125382   1.009  10.932  12.116 -2.2629  1.3150 -1.4721
38868SOL    HW225383   0.949  11.049  12.190  0.6401  0.3286  2.8246
38869SOL     OW25384   6.870   2.200   9.593 -0.0077  0.7029 -0.4575
38869SOL    HW125385   6.909   2.122   9.553  0.7275  0.5021  0.6045
38869SOL    HW225386   6.943   2.261   9.604 -0.2177  0.8134  0.4105
38870SOL     OW25387   7.650   4.552   6.807  0.0277 -0.9714  0.3039
38870SOL    HW125388   7.699   4.597   6.876 -1.6155 -0.1215  0.9803
38870SOL    HW225389   7.690   4.581   6.726  0.9121 -0.6417  0.8498
38871SOL     OW25390  12.049   1.551   7.294 -0.0837  0.2494  0.0617
38871SOL    HW125391  12.037   1.456   7.298  2.8368 -0.3638 -2.1081
38871SOL    HW225392  12.049   1.571   7.200 -0.1997  2.3381  0.4584
38872SOL     OW25393   4.073   8.947   7.333  0.0179  0.3126 -0.0143
38872SOL    HW125394   4.161   8.936   7.297  0.5086  0.4829  1.0869
38872SOL    HW225395   4.085   9.000   7.412 -1.2789  1.7379 -0.7220
38873SOL     OW25396   5.998   2.762   3.658  0.0445 -0.0889  0.1209
38873SOL    HW125397   6.059   2.834   3.673  0.0373  0.4708 -2.1858
38873SOL    HW225398   6.052   2.693   3.619 -0.5760  0.0966 -1.1374
38874SOL     OW25399   5.781  11.042   3.923  0.4316 -0.1429 -0.1531
38874SOL    HW125400   5.775  10.989   3.843 -0.2971 -0.9154  0.3966
38874SOL    HW225401   5.692  11.074   3.938  0.3748 -0.7031  0.8055
38875SOL     OW25402   1.392   5.759   6.231 -0.2835 -0.1799  0.5177
38875SOL    HW125403   1.374   5.851   6.214 -2.2600 -0.9717 -2.3827
38875SOL    HW225404   1.485   5.748   6.209 -0.7626  0.5848 -2.2970
38876SOL     OW25405   6.380   2.338   3.364 -0.5389 -0.2757  0.0137
38876SOL    HW125406   6.306   2.389   3.396  0.7207  1.5274  0.2185
38876SOL    HW225407   6.441   2.403   3.328  0.3038 -1.8176 -1.5168
38877SOL     OW25408   0.160   3.886   2.880 -0.1900  0.5459  0.1064
38877SOL    HW125409   0.254   3.883   2.862 -0.1814  0.3283  0.1942
38877SOL    HW225410   0.153   3.873   2.975 -0.3187  0.4194  0.0796
38878SOL     OW25411   6.009   3.410   9.815  0.3141 -0.1110  0.1973
38878SOL    HW125412   6.059   3.484   9.849  0.0033 -0.3993  1.3130
38878SOL    HW225413   5.976   3.440   9.731 -0.6140  1.3806  1.0539
38879SOL     OW25414   4.076   2.174   5.636  0.5238  0.1765 -0.1111
38879SOL    HW125415   3.994   2.130   5.612  0.1939 -0.1540  1.5126
38879SOL    HW225416   4.096   2.141   5.724  3.4811 -1.3272 -1.1882
38880SOL     OW25417   6.224   9.488   1.923  0.6260 -0.3772 -0.0725
38880SOL    HW125418   6.283   9.477   1.997  0.9456 -1.9660 -0.5346
38880SOL    HW225419   6.202   9.399   1.896 -0.0553  0.1751 -1.4326
38881SOL     OW25420   9.078  11.866   2.590  0.4630  0.3725 -0.4832
38881SOL    HW125421   9.089  11.894   2.499  0.3196 -1.4277 -1.1022
38881SOL    HW225422   9.167  11.867   2.626  0.7828 -0.5139 -1.1839
38882SOL     OW25423   1.054   3.064   8.903  0.5512 -0.0043 -0.4009
38882SOL    HW125424   1.090   3.008   8.972 -1.3223  1.6688  2.0795
38882SOL    HW225425   1.122   3.064   8.835  1.8724 -2.8774  0.7236
38883SOL     OW25426   6.657   5.745   7.838 -0.4698 -0.0444  0.6081
38883SOL    HW125427   6.631   5.740   7.930 -0.7377 -0.4851  0.5107
38883SOL    HW225428   6.706   5.665   7.822 -2.1524 -0.9761 -0.1509
38884SOL     OW25429  12.090   4.555   5.659  0.1707  0.1608 -0.5533
38884SOL    HW125430  12.142   4.475   5.659  0.0188 -0.0140  1.6298
38884SOL    HW225431  12.000   4.526   5.669  0.1106  0.5825  0.2317
38885SOL     OW25432   4.246   6.105   9.609 -0.4391  0.0940 -0.2556
38885SOL    HW125433   4.228   6.012   9.618 -1.8424  0.3539 -0.1267
38885SOL    HW225434   4.238   6.141   9.697 -3.1774  0.8302 -0.7131
38886SOL     OW25435   6.382   4.708   1.827 -0.1756  0.1552  0.1471
38886SOL    HW125436   6.387   4.771   1.898  0.3253 -1.4991  1.6550
38886SOL    HW225437   6.471   4.701   1.794  0.3020 -1.5024  1.6383
38887SOL     OW25438  12.015  12.140   8.019 -0.7434 -0.2519  0.1264
38887SOL    HW125439  12.082  12.086   8.060  1.8990  2.3659 -0.4763
38887SOL    HW225440  11.994  12.207   8.084 -1.5362 -0.0451 -0.3280
38888SOL     OW25441   1.780   9.328   8.059 -0.5699 -0.9312 -0.0810
38888SOL    HW125442   1.722   9.315   8.134 -1.0745 -2.4711 -0.6944
38888SOL    HW225443   1.754   9.261   7.996  1.3648 -1.1630 -0.7091
38889SOL     OW25444  10.951   4.015  10.047 -0.2051  0.5765  0.0588
38889SOL    HW125445  10.938   3.971   9.963 -0.0294 -0.7665  0.7052
38889SOL    HW225446  11.045   4.033  10.050 -0.6025  3.5018 -1.3550
38890SOL     OW25447   1.917  11.215  11.943 -0.1880 -0.1624  0.2496
38890SOL    HW125448   1.899  11.121  11.936  0.0558 -0.1881 -0.0789
38890SOL    HW225449   1.842  11.257  11.903 -0.9771 -0.1622  1.6629
38891SOL     OW25450   8.004   7.790   2.248 -0.9548 -0.6128  0.0056
38891SOL    HW125451   8.036   7.782   2.158  0.2366 -0.1338  0.3690
38891SOL    HW225452   7.989   7.883   2.260 -0.1834 -0.5566  0.5996
38892SOL     OW25453   6.159   0.401   9.459 -0.3056  0.5043  0.1313
38892SOL    HW125454   6.192   0.355   9.381 -0.3930 -0.5817  0.7061
38892SOL    HW225455   6.132   0.486   9.427  0.7141  0.5004 -0.8282
38893SOL     OW25456   8.019   7.834   7.005 -0.0708  0.3530 -0.2374
38893SOL    HW125457   8.113   7.839   6.990 -0.2645 -0.1947 -1.7449
38893SOL    HW225458   7.979   7.861   6.923 -1.2271 -0.0488  0.1679
38894SOL     OW25459   0.650   9.918   8.095 -0.4323 -0.0815 -0.3967
38894SOL    HW125460   0.586   9.908   8.024  1.3789 -0.9595 -1.9801
38894SOL    HW225461   0.616   9.863   8.166 -0.8953 -1.4556 -1.6279
38895SOL     OW25462   6.051   4.799  10.133  0.4752  0.5251 -0.3253
38895SOL    HW125463   6.142   4.771  10.147  0.2852  0.2671  0.4190
38895SOL    HW225464   6.050   4.891  10.158  0.4836  0.4682 -0.1140
38896SOL     OW25465   4.043   6.413   1.685 -0.6472  0.1672  0.4995
38896SOL    HW125466   4.054   6.414   1.590 -1.5626 -2.0058  0.3078
38896SOL    HW225467   4.006   6.499   1.706  0.5647  1.0930 -0.9398
38897SOL     OW25468   5.433  11.527   7.866  0.1482 -0.5644  0.4939
38897SOL    HW125469   5.390  11.591   7.924 -0.4792 -2.3533  2.0996
38897SOL    HW225470   5.527  11.548   7.873 -0.0423  0.1895  0.9463
38898SOL     OW25471   2.900   5.419   5.067 -0.3442  0.3158  0.3609
38898SOL    HW125472   2.956   5.342   5.056  1.5726  1.9924 -3.0216
38898SOL    HW225473   2.837   5.413   4.995 -2.1359  0.4729  1.8319
38899SOL     OW25474   3.409  10.054   4.203  0.0995  0.2300  0.0187
38899SOL    HW125475   3.351  10.110   4.152 -1.4889 -0.5583  0.8804
38899SOL    HW225476   3.352  10.010   4.265  1.3048 -2.1594 -0.4364
38900SOL     OW25477   6.496   4.076   1.257  0.3695  0.5789 -0.1202
38900SOL    HW125478   6.518   3.992   1.218  1.3073  1.0721 -0.6914
38900SOL    HW225479   6.413   4.060   1.303  2.2254 -1.5923  2.8012
38901SOL     OW25480   5.718   6.636  10.079 -0.6798 -0.4242 -0.1056
38901SOL    HW125481   5.648   6.699  10.062 -0.3010 -0.5137 -2.3056
38901SOL    HW225482   5.725   6.586   9.998  2.2613 -0.0997 -0.1729
38902SOL     OW25483   3.661   5.365   2.085  0.0419  0.3134 -0.3275
38902SOL    HW125484   3.597   5.431   2.057  1.1419  1.1687 -0.9026
38902SOL    HW225485   3.689   5.395   2.172 -1.6235 -1.0536  0.7579
38903SOL     OW25486  12.479   1.970   8.347 -0.2361  0.2179  0.0319
38903SOL    HW125487  12.511   1.969   8.257 -0.0470 -2.9278  0.0190
38903SOL    HW225488  12.541   2.026   8.394  0.6471  0.5629 -1.4722
38904SOL     OW25489   0.436   6.463  11.860  0.1819  0.1439  0.4306
38904SOL    HW125490   0.444   6.539  11.802  0.0930  0.9986  1.5010
38904SOL    HW225491   0.344   6.464  11.889  0.1295 -0.4900  0.3081
38905SOL     OW25492   6.183   2.917   5.610  0.2814  0.1986  0.3298
38905SOL    HW125493   6.239   2.844   5.635  0.6699  0.1797 -0.5842
38905SOL    HW225494   6.222   2.993   5.654 -0.3892 -0.1884  1.6606
38906SOL     OW25495   5.205   4.830   6.007  0.6172  0.3536  0.3081
38906SOL    HW125496   5.211   4.829   5.911  1.1648 -0.0161  0.3468
38906SOL    HW225497   5.178   4.920   6.028  1.4335  0.7171 -0.1392
38907SOL     OW25498   3.747   2.018  10.726 -0.0412 -0.1820  0.3934
38907SOL    HW125499   3.704   2.002  10.642 -0.8316  0.1211  0.7266
38907SOL    HW225500   3.726   2.109  10.746  3.1159  0.9513 -0.7690
38908SOL     OW25501   3.276   7.810   2.802  0.4218  0.4132 -0.0760
38908SOL    HW125502   3.321   7.894   2.786  0.0597  0.8952  1.2936
38908SOL    HW225503   3.251   7.814   2.894  0.0097 -1.0365 -0.1090
38909SOL     OW25504   2.508  11.108   5.065 -0.0733  0.1236  0.7551
38909SOL    HW125505   2.512  11.012   5.068  0.1150  0.1634  2.3058
38909SOL    HW225506   2.415  11.128   5.071 -0.1893  0.0356 -0.4944
38910SOL     OW25507  12.060   4.610  11.990  0.2432  0.0297 -0.2994
38910SOL    HW125508  12.034   4.518  11.984  0.5303  0.0260 -1.7706
38910SOL    HW225509  12.155   4.608  11.997  0.2453  0.2253 -0.2550
38911SOL     OW25510   4.274   3.510   9.032 -0.2940  0.5197  0.0608
38911SOL    HW125511   4.227   3.488   8.951 -1.1313 -2.1284  1.1782
38911SOL    HW225512   4.364   3.481   9.016  0.0642  1.9027 -0.6128
38912SOL     OW25513   3.504   5.475  11.181 -0.7247 -0.2208 -0.5057
38912SOL    HW125514   3.494   5.562  11.143 -2.2393 -0.6909 -1.2691
38912SOL    HW225515   3.455   5.417  11.123 -0.1997 -1.5115  0.2820
38913SOL     OW25516   4.525  12.301   8.008 -0.2108 -0.1733 -0.0475
38913SOL    HW125517   4.619  12.300   7.991 -0.4774  0.2321 -1.7343
38913SOL    HW225518   4.501  12.209   8.013  0.1751 -0.2914 -0.2719
38914SOL     OW25519   6.260  10.636   2.606  0.1267  0.4161  0.2231
38914SOL    HW125520   6.199  10.708   2.591 -0.5165 -0.4320 -1.4706
38914SOL    HW225521   6.325  10.645   2.536 -0.0269 -0.6898 -0.0872
38915SOL     OW25522   0.026   2.511   5.740  0.0581 -0.2299 -0.4193
38915SOL    HW125523   0.059   2.552   5.660 -0.0884  0.0074 -0.3570
38915SOL    HW225524   0.079   2.547   5.810  0.6776 -0.9821 -0.4815
38916SOL     OW25525   2.794   4.626  11.287 -0.1778 -0.8508  0.5502
38916SOL    HW125526   2.888   4.620  11.305 -0.2626 -0.5394  1.1178
38916SOL    HW225527   2.781   4.717  11.258 -0.5005 -0.4963  1.7323
38917SOL     OW25528  11.191   5.985   2.752  0.8998 -0.3218  0.1580
38917SOL    HW125529  11.225   6.061   2.799  0.7485 -0.5762  0.6897
38917SOL    HW225530  11.143   6.022   2.678  1.8828  0.0526 -0.3110
38918SOL     OW25531   2.798   3.406   7.576 -0.0589  0.5577 -0.3124
38918SOL    HW125532   2.825   3.339   7.514  1.5659 -0.0180  0.9469
38918SOL    HW225533   2.703   3.396   7.583 -0.0108 -0.6791 -1.1794
38919SOL     OW25534   0.511  11.733   0.475 -0.6285  0.2823  0.3117
38919SOL    HW125535   0.586  11.738   0.534  0.2968 -0.3090 -0.7682
38919SOL    HW225536   0.472  11.820   0.478  1.3652  1.2873 -0.7025
38920SOL     OW25537   8.354  12.159   0.041 -0.3945 -0.8486 -0.3356
38920SOL    HW125538   8.447  12.175   0.054 -0.5953 -0.1771  0.3496
38920SOL    HW225539   8.325  12.116   0.121 -0.3667 -2.5104 -1.1782
38921SOL     OW25540   6.475   6.636   6.823 -0.0445 -0.0987 -0.1032
38921SOL    HW125541   6.433   6.553   6.842 -1.4838  1.0515  2.2646
38921SOL    HW225542   6.528   6.620   6.745 -1.6145 -2.7363 -0.7282
38922SOL     OW25543   4.832   9.838   0.480  0.3293  0.7678 -0.1650
38922SOL    HW125544   4.915   9.834   0.527  1.8712  1.3679 -2.6644
38922SOL    HW225545   4.838   9.917   0.426 -1.6947  0.5940 -0.7498
38923SOL     OW25546   3.106   6.245   5.226  0.4257 -0.3844  0.5987
38923SOL    HW125547   3.037   6.243   5.293  0.2692  1.3079  0.5438
38923SOL    HW225548   3.059   6.234   5.144  0.5932 -2.2407  0.7098
38924SOL     OW25549   9.363  11.166   2.311 -0.3675 -0.2859 -0.1464
38924SOL    HW125550   9.285  11.212   2.342  0.1100 -0.0283  0.7280
38924SOL    HW225551   9.436  11.223   2.339  0.0673  0.8716 -3.2701
38925SOL     OW25552  10.954   4.688   0.573 -0.0926  0.3988 -0.1053
38925SOL    HW125553  10.993   4.604   0.597 -0.0645  0.6743  0.8421
38925SOL    HW225554  10.868   4.688   0.615 -0.4312  0.5190 -0.7698
38926SOL     OW25555   6.662   2.186   8.324 -0.1885 -0.2573 -0.4046
38926SOL    HW125556   6.684   2.101   8.362 -2.3723 -0.3468  0.7723
38926SOL    HW225557   6.675   2.173   8.230 -0.3454 -1.8604 -0.2457
38927SOL     OW25558  10.409  11.047   2.266 -0.1931  0.1081 -0.2688
38927SOL    HW125559  10.493  11.009   2.291 -0.9025 -1.3800 -0.0336
38927SOL    HW225560  10.396  11.018   2.175 -0.4200  0.4026 -0.3310
38928SOL     OW25561  11.718   8.597  11.798  0.1092 -0.2014 -0.4152
38928SOL    HW125562  11.755   8.639  11.720  1.4725 -0.9645 -0.2077
38928SOL    HW225563  11.794   8.565  11.847 -0.7772 -0.6826  0.6884
38929SOL     OW25564   3.255   7.603   8.741 -0.5995 -0.0205 -0.1914
38929SOL    HW125565   3.213   7.584   8.825 -0.8059 -1.2594 -0.5505
38929SOL    HW225566   3.234   7.695   8.723 -0.7302  0.1939  1.0003
38930SOL     OW25567  12.471   3.269   1.298  0.7865 -0.1726 -0.5990
38930SOL    HW125568  12.560   3.303   1.303  0.3553  1.6404 -3.1690
38930SOL    HW225569  12.435   3.309   1.219 -2.2539 -1.0180  0.2347
38931SOL     OW25570  12.137   7.676  10.362  0.9260  1.2117 -0.1155
38931SOL    HW125571  12.070   7.655  10.298 -0.3632  1.9499  0.9344
38931SOL    HW225572  12.163   7.766  10.342  1.0773  1.1783 -0.0738
38932SOL     OW25573   3.791  10.468   7.172  0.0203 -0.7615  0.2756
38932SOL    HW125574   3.757  10.432   7.089  1.5401  2.4607 -1.9440
38932SOL    HW225575   3.723  10.529   7.201  0.9634  0.7517 -0.5908
38933SOL     OW25576   6.651   8.985   7.753 -0.4089  0.1446 -0.0612
38933SOL    HW125577   6.714   9.038   7.802  0.0014 -0.5784  0.2126
38933SOL    HW225578   6.608   9.047   7.694  0.3867  0.6965 -0.0770
38934SOL     OW25579   7.539   8.258   3.701  0.1405 -0.2702  0.0144
38934SOL    HW125580   7.585   8.329   3.656 -1.3688 -0.0057 -1.2088
38934SOL    HW225581   7.501   8.299   3.778  0.5118 -0.0844  0.0966
38935SOL     OW25582   3.377   5.742   3.874 -0.7104 -0.2832 -0.0773
38935SOL    HW125583   3.296   5.762   3.826 -2.0936 -1.0106  1.7850
38935SOL    HW225584   3.376   5.646   3.883  1.4028 -0.5149 -1.6610
38936SOL     OW25585   4.023   1.706   9.561 -0.5493 -0.2315 -0.1910
38936SOL    HW125586   4.071   1.625   9.578  2.0336  1.1456 -0.3906
38936SOL    HW225587   4.075   1.774   9.604 -1.0786  1.6518 -2.3219
38937SOL     OW25588  10.899  11.409   8.347 -0.4525 -0.1206 -0.1472
38937SOL    HW125589  10.882  11.496   8.311  1.2286 -0.0140 -0.7661
38937SOL    HW225590  10.972  11.422   8.407  1.1232 -1.3826 -1.7000
38938SOL     OW25591   3.837   8.735  12.383 -0.1017 -0.0068  0.2501
38938SOL    HW125592   3.845   8.663  12.320 -2.3708  0.5290 -0.7435
38938SOL    HW225593   3.896   8.710  12.454  0.2296 -2.1670 -0.6765
38939SOL     OW25594  10.240   1.892  10.317  0.6523  0.6361  0.1778
38939SOL    HW125595  10.166   1.841  10.284  1.1756  0.0791 -0.1432
38939SOL    HW225596  10.200   1.972  10.351 -0.1506  0.1367  0.4374
38940SOL     OW25597   8.878   6.717   6.819  0.1498 -0.0870  0.7224
38940SOL    HW125598   8.792   6.677   6.811  0.2583 -0.6375  2.1539
38940SOL    HW225599   8.940   6.648   6.793  0.1560  0.6478 -1.4152
38941SOL     OW25600   9.082   8.257   2.795  0.2026  0.1492  0.3742
38941SOL    HW125601   9.004   8.208   2.768  0.9615 -0.7541 -0.2097
38941SOL    HW225602   9.153   8.193   2.794  0.9170  0.9056  1.1429
38942SOL     OW25603   9.854   0.742   3.143  0.4738 -0.0899 -0.5576
38942SOL    HW125604   9.919   0.805   3.113  0.2115  0.3119 -0.2939
38942SOL    HW225605   9.780   0.796   3.171 -0.8515 -0.5849 -2.8499
38943SOL     OW25606   3.703   3.237   3.509 -0.0722 -0.3178 -0.2245
38943SOL    HW125607   3.644   3.281   3.571  0.6634  1.5578 -0.7790
38943SOL    HW225608   3.645   3.206   3.439 -0.5066  0.8578 -0.4088
38944SOL     OW25609   7.886   8.267  12.032  0.8065  0.2595  0.6650
38944SOL    HW125610   7.822   8.250  11.963  1.9587 -0.4974 -0.2550
38944SOL    HW225611   7.849   8.227  12.110 -0.6067  1.2903  0.5592
38945SOL     OW25612  10.012   6.706  11.191 -0.1271 -0.0854  0.1248
38945SOL    HW125613  10.064   6.715  11.271 -0.7233 -2.8942  0.9157
38945SOL    HW225614   9.924   6.735  11.215  0.0428  0.5486  0.0094
38946SOL     OW25615   9.590   5.717   0.869 -0.2344 -0.0634 -0.0462
38946SOL    HW125616   9.634   5.752   0.792  2.1836 -3.6860 -0.5239
38946SOL    HW225617   9.534   5.648   0.836  0.2373 -1.1461  1.3160
38947SOL     OW25618  11.770   4.141   3.370 -0.5084  0.5016  0.1137
38947SOL    HW125619  11.765   4.236   3.364 -1.0790  0.5941  1.5776
38947SOL    HW225620  11.694   4.116   3.422 -1.4679 -0.9688 -1.8451
38948SOL     OW25621  11.732   7.474   7.634 -0.1108 -0.4371  0.4943
38948SOL    HW125622  11.793   7.401   7.647 -1.3362 -1.3697  1.1955
38948SOL    HW225623  11.744   7.529   7.711 -0.1923 -0.6519  0.6613
38949SOL     OW25624   3.314   2.833  11.937 -0.0380  0.1927 -0.1593
38949SOL    HW125625   3.313   2.923  11.968 -0.3348  0.7090 -1.5903
38949SOL    HW225626   3.240   2.828  11.876 -0.6591 -1.3040  0.6633
38950SOL     OW25627   0.585   9.751  11.181 -0.4698 -0.4715  0.2453
38950SOL    HW125628   0.572   9.729  11.273  2.4890  0.9061  1.1294
38950SOL    HW225629   0.629   9.675  11.143  0.6876 -0.0563  0.7044
38951SOL     OW25630   1.230   9.058   4.104  0.0813 -0.1673 -0.0544
38951SOL    HW125631   1.303   9.002   4.076  1.7099  1.4797  0.6599
38951SOL    HW225632   1.206   9.108   4.026  0.2688 -0.1451 -0.0984
38952SOL     OW25633   5.762   4.290   6.181  0.1975 -0.4405 -0.2165
38952SOL    HW125634   5.739   4.273   6.272  2.2894 -0.8779  0.2832
38952SOL    HW225635   5.858   4.283   6.178  0.9442  5.2675 -1.2021
38953SOL     OW25636   5.346   4.482  11.042  0.0695 -0.0599 -0.5068
38953SOL    HW125637   5.261   4.455  11.076 -0.6677  1.6528 -0.8740
38953SOL    HW225638   5.325   4.536  10.966  1.4760  0.4168 -0.5870
38954SOL     OW25639   4.814   8.494   1.289  0.2689 -0.4478  0.2281
38954SOL    HW125640   4.806   8.586   1.314  0.3124 -0.8517  1.8624
38954SOL    HW225641   4.788   8.492   1.197 -2.4912  0.7861  0.8580
38955SOL     OW25642   0.044  10.130   6.029  0.8993 -0.1349 -0.1691
38955SOL    HW125643   0.044  10.096   5.940 -0.4253  0.3658 -0.3783
38955SOL    HW225644   0.054  10.225   6.019 -1.5226  0.2093  0.0343
38956SOL     OW25645   7.366   4.109   3.910 -1.3609  0.5254 -0.0673
38956SOL    HW125646   7.363   4.019   3.877  0.2558 -0.5029  2.2982
38956SOL    HW225647   7.274   4.133   3.922 -1.8310 -0.9071 -0.5521
38957SOL     OW25648   8.548   1.339   4.432  0.4155 -0.5507  0.0731
38957SOL    HW125649   8.602   1.415   4.412  1.2597 -0.9495  0.7755
38957SOL    HW225650   8.495   1.367   4.507  0.1237 -0.3797 -0.1958
38958SOL     OW25651   7.771  10.224   3.578  0.5642  0.0934 -0.5086
38958SOL    HW125652   7.838  10.170   3.619 -1.0683 -0.5026  1.5294
38958SOL    HW225653   7.698  10.164   3.562  0.4491  0.7050 -2.7285
38959SOL     OW25654   8.156   2.273   2.824 -0.0779  0.0793 -0.3585
38959SOL    HW125655   8.080   2.329   2.808  0.1290  0.5527  0.2824
38959SOL    HW225656   8.191   2.254   2.737 -0.9242 -0.1442 -0.6622
38960SOL     OW25657   7.192   0.318   2.969 -0.5424 -0.4217  0.8921
38960SOL    HW125658   7.201   0.409   2.998 -0.1905  0.0290 -0.5658
38960SOL    HW225659   7.127   0.321   2.899 -0.7830 -1.3630  1.0588
38961SOL     OW25660   7.865   1.033   5.407 -0.0732 -0.3126  0.0092
38961SOL    HW125661   7.912   0.982   5.341 -0.9026 -1.4539  0.2631
38961SOL    HW225662   7.838   1.113   5.361 -0.4095 -0.9647 -0.9804
38962SOL     OW25663   8.760   0.304  11.461  0.0858  0.1202  0.1363
38962SOL    HW125664   8.702   0.342  11.528  0.1505  0.5088 -0.0261
38962SOL    HW225665   8.742   0.356  11.383 -0.9942 -1.2065 -0.5246
38963SOL     OW25666   4.546   9.970   3.682  0.0576 -0.5956 -0.0821
38963SOL    HW125667   4.570  10.020   3.604 -2.3518 -0.5745 -0.9096
38963SOL    HW225668   4.556  10.033   3.754 -1.7756  0.8223 -0.9603
38964SOL     OW25669   3.960   1.248   9.904  0.6616 -0.1103 -0.2190
38964SOL    HW125670   3.958   1.199   9.822 -2.6273 -0.5734  0.0156
38964SOL    HW225671   3.988   1.336   9.879  1.0136 -0.5724 -1.5744
38965SOL     OW25672   3.653  10.717   2.565 -0.1312 -0.3087  0.4696
38965SOL    HW125673   3.721  10.652   2.548  1.5486  1.2826  0.7449
38965SOL    HW225674   3.628  10.748   2.478 -0.0660 -0.4748  0.3904
38966SOL     OW25675   9.366   4.010   8.195  0.6205  0.5041  0.0370
38966SOL    HW125676   9.394   3.920   8.210  1.6535  0.4825 -1.7959
38966SOL    HW225677   9.412   4.061   8.261  0.3728 -0.2393  0.8018
38967SOL     OW25678   6.137   1.654   5.152 -0.2194 -0.5957  0.2036
38967SOL    HW125679   6.224   1.638   5.116  0.9400  0.2083  2.4695
38967SOL    HW225680   6.080   1.590   5.108  0.8085  0.8801 -3.6470
38968SOL     OW25681   0.935   9.387   2.853 -0.1332 -0.1022  0.5607
38968SOL    HW125682   0.854   9.346   2.884 -0.6558 -0.1860 -0.8384
38968SOL    HW225683   0.908   9.473   2.821  0.7109  0.7775  2.0733
38969SOL     OW25684   3.777   1.405   3.654 -0.1999  0.1884 -0.3033
38969SOL    HW125685   3.741   1.316   3.647 -0.1548  0.1057  0.4440
38969SOL    HW225686   3.849   1.407   3.591  3.5839 -2.1933  3.4199
38970SOL     OW25687  10.049  10.994  10.915 -0.2812  0.6134 -0.1646
38970SOL    HW125688  10.003  10.926  10.867 -1.5777  0.8654  0.6795
38970SOL    HW225689  10.141  10.966  10.914 -0.3146  0.4012 -2.3797
38971SOL     OW25690   3.041   6.767   2.858 -0.3553  0.2337  0.0565
38971SOL    HW125691   3.079   6.691   2.813 -0.2262  0.0735  0.4349
38971SOL    HW225692   3.073   6.843   2.809  1.4927  0.1834  1.1038
38972SOL     OW25693  10.137   2.667   6.610 -0.3902 -0.6789  0.1052
38972SOL    HW125694  10.053   2.659   6.654 -0.1178 -1.3917  0.5178
38972SOL    HW225695  10.202   2.667   6.680 -0.0736  0.7146 -0.1559
38973SOL     OW25696  10.747   4.771   7.368 -0.3217  0.2932  1.0002
38973SOL    HW125697  10.728   4.719   7.290  0.0590 -0.8682  1.6419
38973SOL    HW225698  10.841   4.787   7.364  0.0169 -1.1733  1.9869
38974SOL     OW25699   9.812   0.209   5.659 -0.2875 -0.9257 -0.0364
38974SOL    HW125700   9.902   0.227   5.687  0.3643  0.8391 -2.7992
38974SOL    HW225701   9.821   0.148   5.586 -1.4556 -1.5779  0.3327
38975SOL     OW25702   2.657   1.921   0.828 -0.1775  0.5349 -0.1067
38975SOL    HW125703   2.716   1.954   0.761 -0.7513 -0.4261 -1.1044
38975SOL    HW225704   2.687   1.963   0.909  1.2942  0.7615 -0.7443
38976SOL     OW25705   2.643   4.211   7.244  0.2577 -0.2834 -0.1739
38976SOL    HW125706   2.692   4.155   7.303  0.3670  0.0914  0.0914
38976SOL    HW225707   2.570   4.156   7.214  1.5692 -1.2951 -1.6253
38977SOL     OW25708   8.116   5.085   2.365 -0.7193 -0.4425 -0.0384
38977SOL    HW125709   8.185   5.152   2.369 -0.6739 -0.5394  1.6832
38977SOL    HW225710   8.114   5.057   2.274  2.1316 -1.0603 -0.0017
38978SOL     OW25711   0.716   3.205   7.512  0.6665  0.3257 -0.0326
38978SOL    HW125712   0.715   3.204   7.416 -0.4104 -2.0038 -0.0833
38978SOL    HW225713   0.808   3.195   7.535  0.7573 -1.3249 -0.9209
38979SOL     OW25714   4.064   5.844  11.148 -0.0255 -0.0738 -0.6823
38979SOL    HW125715   4.011   5.765  11.138 -0.1781  0.0680 -1.0049
38979SOL    HW225716   4.081   5.873  11.059  0.8183 -0.2651 -0.5926
38980SOL     OW25717   4.411  11.779   3.427 -0.2285  0.5299 -0.0853
38980SOL    HW125718   4.393  11.732   3.508  1.6074 -1.0705 -0.5144
38980SOL    HW225719   4.478  11.844   3.451  1.4454 -0.9429 -0.5054
38981SOL     OW25720   2.923   5.516   6.966  0.4230 -0.1711 -1.1018
38981SOL    HW125721   2.968   5.469   7.037  1.2930  0.7151 -1.0559
38981SOL    HW225722   2.832   5.519   6.995  0.7277 -0.0054 -0.1094
38982SOL     OW25723   6.439   4.183  11.991  0.5593 -0.1428 -0.2214
38982SOL    HW125724   6.419   4.274  11.967  1.7245  0.5477  1.2534
38982SOL    HW225725   6.381   4.130  11.936  1.7936  1.3532 -3.1861
38983SOL     OW25726   4.176   2.343   4.048 -0.5248  0.4866  0.0611
38983SOL    HW125727   4.236   2.352   4.122 -0.3937  1.9390 -0.1812
38983SOL    HW225728   4.226   2.378   3.973 -1.3065  0.7714 -0.3385
38984SOL     OW25729  11.552   3.821  11.249  0.1377  0.0916 -0.0125
38984SOL    HW125730  11.598   3.905  11.251  2.3480 -1.0557  0.4189
38984SOL    HW225731  11.622   3.756  11.256 -1.5790 -1.7689  0.4656
38985SOL     OW25732   3.625   2.253   4.533  0.1643  0.6267 -0.2609
38985SOL    HW125733   3.602   2.161   4.538 -0.5006  0.8479  1.5693
38985SOL    HW225734   3.721   2.254   4.538  0.2064  0.0160 -0.8650
38986SOL     OW25735  10.812   3.086   8.567  0.2148 -0.2072 -0.1759
38986SOL    HW125736  10.882   3.141   8.531  0.9254 -0.2345  1.1246
38986SOL    HW225737  10.740   3.147   8.583 -0.5183 -0.3382 -2.4972
38987SOL     OW25738   4.367   9.232   7.731 -0.1015  0.6633  0.3303
38987SOL    HW125739   4.420   9.247   7.653 -1.8432 -0.1771 -1.0914
38987SOL    HW225740   4.382   9.309   7.785 -0.6540  2.4429 -1.9185
38988SOL     OW25741   1.879   9.408   2.512  0.3676  0.1190  0.5341
38988SOL    HW125742   1.950   9.440   2.457 -1.3292 -0.4832 -2.2363
38988SOL    HW225743   1.891   9.452   2.596  2.2609  2.2926 -0.7760
38989SOL     OW25744   1.508   3.766   0.920  0.1699  0.5102 -0.4076
38989SOL    HW125745   1.540   3.752   0.831 -0.1958 -1.6473 -0.2641
38989SOL    HW225746   1.577   3.729   0.976 -1.1412 -1.4184  0.0181
38990SOL     OW25747   0.973   0.438   3.686  0.4117 -0.4369 -0.0065
38990SOL    HW125748   1.056   0.467   3.648  0.5159 -0.1129  0.4701
38990SOL    HW225749   0.935   0.381   3.618  1.9723 -2.2874  0.5573
38991SOL     OW25750   5.457  10.645  10.498 -0.3368 -0.3435 -0.3642
38991SOL    HW125751   5.423  10.658  10.410 -1.0559 -2.1657 -0.3978
38991SOL    HW225752   5.476  10.733  10.530 -3.0877  0.6048 -1.1241
38992SOL     OW25753   0.154   1.231   6.752 -0.7386  0.2379 -0.1462
38992SOL    HW125754   0.075   1.223   6.807 -0.0456  0.5759  0.9386
38992SOL    HW225755   0.127   1.285   6.678 -1.7994 -0.5288 -0.3370
38993SOL     OW25756   4.462  11.003   3.388  0.3829 -0.4716 -0.3671
38993SOL    HW125757   4.441  10.971   3.300 -1.8350 -0.4610  0.0961
38993SOL    HW225758   4.499  10.927   3.433  2.0860 -0.3232 -1.4474
38994SOL     OW25759  11.450   3.103   4.562  0.4358  0.3946 -0.2926
38994SOL    HW125760  11.417   3.177   4.614  2.4246  0.2228  1.3945
38994SOL    HW225761  11.377   3.042   4.557 -0.7016  1.7086 -0.1725
38995SOL     OW25762  10.918   2.171   6.287  0.3847 -0.1723  0.5565
38995SOL    HW125763  10.988   2.130   6.236 -0.4852 -0.0008 -0.8415
38995SOL    HW225764  10.925   2.265   6.267 -0.6823 -0.2319 -0.2270
38996SOL     OW25765   8.978   5.770  11.018 -0.0883 -0.1027 -0.1650
38996SOL    HW125766   8.895   5.747  11.059 -0.1048  1.1567  0.5523
38996SOL    HW225767   8.998   5.696  10.961 -1.2647 -0.8079  0.3098
38997SOL     OW25768   5.629   6.847  11.825 -0.9488 -0.1297  0.2876
38997SOL    HW125769   5.719   6.820  11.807 -0.1912  1.9325  0.7815
38997SOL    HW225770   5.592   6.869  11.740 -1.3048 -1.7499 -0.0189
38998SOL     OW25771   4.108   1.358   7.587  0.0372 -0.1465 -0.6260
38998SOL    HW125772   4.175   1.425   7.573  0.0293  0.0719  0.3110
38998SOL    HW225773   4.058   1.390   7.662  0.2368 -1.3707  0.0448
38999SOL     OW25774   1.507   0.908  11.054 -0.3529  0.3087  0.3432
38999SOL    HW125775   1.486   0.821  11.088 -0.4321 -0.5022 -1.6635
38999SOL    HW225776   1.431   0.932  11.002 -0.5877  1.8856  1.3374
39000SOL     OW25777  12.551   5.328  10.300  0.4520  0.0922 -0.0814
39000SOL    HW125778  12.551   5.279  10.218  1.9730 -0.0737 -0.0154
39000SOL    HW225779  12.550   5.420  10.273  1.8997  0.0522 -0.3391
39001SOL     OW25780   2.834   0.349   0.936 -0.2310 -0.2234  0.6059
39001SOL    HW125781   2.885   0.403   0.996 -1.0975  0.6390  0.5948
39001SOL    HW225782   2.857   0.382   0.849 -1.0850  0.4350  0.6213
39002SOL     OW25783   0.039   4.467   0.118  0.2792 -0.6617  0.1634
39002SOL    HW125784   0.092   4.532   0.072  0.9214 -0.9623  0.4683
39002SOL    HW225785  -0.032   4.518   0.158 -0.5287 -0.4500 -1.4902
39003SOL     OW25786   4.911   9.959   1.400 -0.1268  0.4226  0.1252
39003SOL    HW125787   4.919   9.896   1.472  1.7947 -0.2223 -0.5999
39003SOL    HW225788   4.954   9.917   1.326  0.5714  2.2953 -0.5866
39004SOL     OW25789   8.683   3.954  11.543  0.0429  0.3368 -0.3448
39004SOL    HW125790   8.722   4.029  11.499 -0.1604 -0.0328 -1.1696
39004SOL    HW225791   8.744   3.882  11.525 -1.2707 -0.3876 -2.1645
39005SOL     OW25792  10.489   6.109   4.749 -0.2947  0.8958 -0.3220
39005SOL    HW125793  10.564   6.076   4.800 -0.1651  1.0415 -0.4181
39005SOL    HW225794  10.528   6.143   4.669 -0.8403 -3.2401 -2.5922
39006SOL     OW25795   0.298  11.863   4.790 -0.2784  0.1818  0.2352
39006SOL    HW125796   0.259  11.829   4.709  0.2151  2.2312 -0.9386
39006SOL    HW225797   0.223  11.897   4.840 -0.3990  0.7664 -0.3260
39007SOL     OW25798   1.393   6.114   6.539  0.0815 -0.6227  0.1521
39007SOL    HW125799   1.474   6.071   6.565 -0.5377 -1.4236  0.8204
39007SOL    HW225800   1.419   6.175   6.470  1.2977 -0.6080  0.6078
39008SOL     OW25801  12.442   0.132   4.884  0.0073 -0.3112  0.4032
39008SOL    HW125802  12.467   0.221   4.906 -1.0067 -0.2116  1.2854
39008SOL    HW225803  12.435   0.087   4.969  2.6204 -1.8810 -0.0943
39009SOL     OW25804   0.959   0.827   6.716  0.6290 -0.5518 -0.7427
39009SOL    HW125805   0.873   0.789   6.731  0.2306  1.0560  1.3707
39009SOL    HW225806   0.942   0.919   6.697  1.9242  0.2974  1.8161
39010SOL     OW25807   3.208  10.221   3.274  0.1906  0.3185  0.3458
39010SOL    HW125808   3.290  10.189   3.237  0.5462  1.0487  0.4922
39010SOL    HW225809   3.182  10.293   3.217 -1.5440 -1.2902 -1.0708
39011SOL     OW25810   7.572   9.688   9.060  0.0325  0.1280  0.1602
39011SOL    HW125811   7.665   9.667   9.049  0.4874  1.6201  0.8939
39011SOL    HW225812   7.552   9.662   9.150  0.6079  2.6611  1.0880
39012SOL     OW25813   2.910   4.617   6.613  0.0199 -0.0559  0.3280
39012SOL    HW125814   2.820   4.621   6.579 -0.0453  3.1889  0.5833
39012SOL    HW225815   2.901   4.635   6.706  0.8714 -1.1027  0.6332
39013SOL     OW25816  11.693   7.330   5.480 -0.0276  0.2457  0.4702
39013SOL    HW125817  11.780   7.307   5.448 -0.0964  0.7356 -0.1068
39013SOL    HW225818  11.633   7.275   5.429 -0.0301 -0.4654  1.2354
39014SOL     OW25819  12.581  10.916   9.942  0.3853 -0.1936  0.7139
39014SOL    HW125820  12.492  10.912   9.906  0.8620  0.6589 -0.6149
39014SOL    HW225821  12.573  10.973  10.018 -0.1153  0.2652  0.3250
39015SOL     OW25822   6.859   1.180   5.867  0.3223  0.2339 -0.2785
39015SOL    HW125823   6.936   1.127   5.884  0.7060  0.2698 -1.7918
39015SOL    HW225824   6.814   1.136   5.795 -0.2451  1.0381 -0.4380
39016SOL     OW25825   7.940   9.025   5.866 -0.9157 -0.1659 -0.2283
39016SOL    HW125826   7.887   8.987   5.936 -0.9379  0.6376  0.2051
39016SOL    HW225827   7.900   9.111   5.850  0.6686  0.7753  0.6120
39017SOL     OW25828   3.776   2.124   3.139 -0.2563 -0.2066  0.0993
39017SOL    HW125829   3.776   2.215   3.168  1.5120 -0.8038  2.2564
39017SOL    HW225830   3.835   2.122   3.064 -0.1193  0.3940  0.1846
39018SOL     OW25831   0.497   1.472   7.731  0.3466  0.1089  0.0572
39018SOL    HW125832   0.592   1.483   7.721  0.3392  0.5730  0.4647
39018SOL    HW225833   0.481   1.381   7.706  1.1594 -0.5510  1.7230
39019SOL     OW25834   3.401   7.730   7.414 -0.0951  0.3292 -0.0664
39019SOL    HW125835   3.434   7.809   7.371 -0.5694 -0.5978 -2.2759
39019SOL    HW225836   3.476   7.670   7.415 -0.5132 -0.2510 -1.2082
39020SOL     OW25837   4.424   6.300   3.676  0.2360 -0.4481 -0.4782
39020SOL    HW125838   4.469   6.312   3.759  1.4319 -1.6473 -0.9306
39020SOL    HW225839   4.331   6.307   3.698  0.5596  0.0820  0.8018
39021SOL     OW25840  12.326  12.002   0.195 -0.3815 -0.2402 -0.3198
39021SOL    HW125841  12.297  11.971   0.109 -1.0252 -1.2355  0.2408
39021SOL    HW225842  12.336  11.922   0.247  2.7013  0.0891 -0.2439
39022SOL     OW25843  11.612   0.014   2.212  0.2715 -0.1741  0.4950
39022SOL    HW125844  11.556   0.015   2.133  2.1586  1.6035 -0.9419
39022SOL    HW225845  11.661  -0.068   2.205  0.7983  0.2028 -0.5057
39023SOL     OW25846   8.791   4.442   3.255 -0.5459  0.1676 -0.3649
39023SOL    HW125847   8.735   4.365   3.256  0.1775 -0.3617  0.0852
39023SOL    HW225848   8.786   4.474   3.164  0.1394 -1.1470 -0.8997
39024SOL     OW25849   8.254   8.895   1.200  0.3897  0.1739 -0.4306
39024SOL    HW125850   8.247   8.990   1.200 -0.4100  0.1416  0.6352
39024SOL    HW225851   8.270   8.873   1.292 -1.3772 -0.8179 -0.3240
39025SOL     OW25852   0.161   8.255   6.540  0.2118  0.5183  0.1890
39025SOL    HW125853   0.155   8.193   6.613  0.0709 -0.0493 -0.2948
39025SOL    HW225854   0.074   8.293   6.533  0.3564  0.9276  0.6235
39026SOL     OW25855  10.467   0.655  11.954  0.1684  0.0052  0.4401
39026SOL    HW125856  10.400   0.597  11.989 -0.0941 -0.2039 -0.3689
39026SOL    HW225857  10.459   0.736  12.004 -1.7329  0.5478 -0.6260
39027SOL     OW25858  10.342   9.191   7.465  0.3328 -0.2890 -0.6247
39027SOL    HW125859  10.364   9.259   7.528 -1.0733 -0.3388 -0.0460
39027SOL    HW225860  10.412   9.126   7.474  0.6674  0.1677  0.1751
39028SOL     OW25861   7.161  10.463   8.396  0.3880  0.3929 -0.0222
39028SOL    HW125862   7.216  10.404   8.448  0.1767 -1.0036 -1.3309
39028SOL    HW225863   7.218  10.537   8.375  0.8666  0.3502  1.0477
39029SOL     OW25864   0.823   6.477   2.504 -0.1772  0.3008  0.4497
39029SOL    HW125865   0.867   6.509   2.583  0.2700  0.1752  0.2535
39029SOL    HW225866   0.753   6.540   2.489 -0.1523  0.4278  0.8430
39030SOL     OW25867   4.453   6.230  12.023 -0.5518  0.1964  0.2942
39030SOL    HW125868   4.411   6.184  11.951 -0.4031  0.3691  0.0975
39030SOL    HW225869   4.535   6.262  11.986  0.0804 -0.7233  0.8471
39031SOL     OW25870   2.665   9.076   6.318  0.6059 -0.2237  0.0987
39031SOL    HW125871   2.577   9.071   6.281  0.8765 -0.4895 -0.5299
39031SOL    HW225872   2.696   9.164   6.296  0.3264  0.0406  0.7344
39032SOL     OW25873   6.333  12.529   6.269 -0.0276 -0.1642  0.0158
39032SOL    HW125874   6.370  12.597   6.213 -1.8317  0.6569 -0.2416
39032SOL    HW225875   6.400  12.514   6.336  1.3877  0.1538 -1.2945
39033SOL     OW25876   1.848   9.549   0.978 -0.0622 -0.3292 -0.6934
39033SOL    HW125877   1.774   9.590   0.935 -0.6485 -0.4638  0.1552
39033SOL    HW225878   1.899   9.510   0.907  0.0095  1.0509 -1.4278
39034SOL     OW25879   7.862   4.903   5.277 -0.3788  0.5798 -0.3293
39034SOL    HW125880   7.823   4.982   5.315 -2.6581 -0.1539 -0.9960
39034SOL    HW225881   7.936   4.883   5.335 -1.0231  2.0189  1.0735
39035SOL     OW25882   6.070   4.920   3.281 -0.7909  0.3217  0.5367
39035SOL    HW125883   6.004   4.904   3.348 -1.3705  0.5843  0.0402
39035SOL    HW225884   6.151   4.933   3.330 -0.5521 -2.4616  1.0746
39036SOL     OW25885  11.703  11.073   3.916  0.0219 -0.1222 -0.1938
39036SOL    HW125886  11.647  11.114   3.983  1.1978  0.6893  0.3246
39036SOL    HW225887  11.757  11.145   3.883 -0.9383 -0.3740 -2.4854
39037SOL     OW25888   1.701  10.977  11.628  0.3353 -0.4114  0.0397
39037SOL    HW125889   1.720  11.061  11.588 -0.2076 -0.1797  0.2631
39037SOL    HW225890   1.669  10.922  11.556  1.3477 -0.6527 -0.2424
39038SOL     OW25891   3.212   1.818  10.357  0.3090  0.2214 -0.3159
39038SOL    HW125892   3.125   1.787  10.385  0.5171 -0.3176 -0.2585
39038SOL    HW225893   3.195   1.869  10.278 -0.0589  0.1136 -0.3071
39039SOL     OW25894  10.877   1.068   7.323  0.4107  0.2584  0.5992
39039SOL    HW125895  10.795   1.038   7.360  0.1493  1.3952  0.9778
39039SOL    HW225896  10.867   1.163   7.314  0.2747  0.0511 -2.8284
39040SOL     OW25897   5.745  12.588   8.215 -0.2236 -0.1275  0.5644
39040SOL    HW125898   5.761  12.552   8.302 -0.7446 -1.1036  0.2772
39040SOL    HW225899   5.652  12.612   8.215  0.1222  1.3019  0.7603
39041SOL     OW25900   2.429  12.569   8.847 -0.4128  0.3895  0.0227
39041SOL    HW125901   2.481  12.649   8.854 -0.8069  0.6580 -0.1241
39041SOL    HW225902   2.494  12.501   8.829 -0.1815  0.8685 -1.1084
39042SOL     OW25903  10.291   0.655   2.379  0.0252 -0.0151  0.1643
39042SOL    HW125904  10.207   0.611   2.393 -1.2700  2.2864  0.2511
39042SOL    HW225905  10.329   0.612   2.303 -1.3552 -0.9713 -0.0119
39043SOL     OW25906   3.299   0.729   0.467 -0.1283 -0.2958  0.3782
39043SOL    HW125907   3.257   0.750   0.550  0.3294  0.3847  0.4558
39043SOL    HW225908   3.323   0.637   0.474  1.4461  0.1634  1.7201
39044SOL     OW25909   0.619   2.423   7.359  0.0992  0.0765  0.2831
39044SOL    HW125910   0.547   2.409   7.421 -0.5144 -0.2071 -0.4777
39044SOL    HW225911   0.660   2.505   7.387 -1.0323  0.6734  0.2421
39045SOL     OW25912   7.567   1.111  11.291 -0.1251 -0.0302  0.0414
39045SOL    HW125913   7.646   1.108  11.237 -0.4748  1.3312 -0.5843
39045SOL    HW225914   7.597   1.090  11.379  0.5703 -1.6223 -0.5228
39046SOL     OW25915   2.583   7.891   1.174  0.0366  0.6309 -0.0711
39046SOL    HW125916   2.522   7.834   1.220  1.6956 -1.8148 -0.7046
39046SOL    HW225917   2.527   7.947   1.120 -1.7464  0.7957  1.8134
39047SOL     OW25918  12.077   5.881   7.649 -0.2198  0.3558 -0.5800
39047SOL    HW125919  12.033   5.800   7.674  1.3931 -0.6854 -0.9688
39047SOL    HW225920  12.168   5.856   7.634  0.4849  2.3728 -0.0379
39048SOL     OW25921   5.838   4.324   6.634 -0.6329 -0.5286 -0.3033
39048SOL    HW125922   5.923   4.365   6.648 -1.3455  0.8514  0.2401
39048SOL    HW225923   5.830   4.259   6.704 -1.8174  2.4184  2.5744
39049SOL     OW25924   1.545   0.980   4.359  0.0204 -0.2671 -0.6816
39049SOL    HW125925   1.512   0.944   4.276 -0.1943 -0.9004 -0.3269
39049SOL    HW225926   1.516   0.917   4.425  1.7723 -0.7408 -0.3255
39050SOL     OW25927   4.373   7.715   7.347  0.1782 -0.2457  0.6950
39050SOL    HW125928   4.316   7.656   7.398 -2.3077  1.5698  0.1675
39050SOL    HW225929   4.390   7.667   7.266 -2.3183 -0.0700  0.0041
39051SOL     OW25930   4.585   0.828  11.033  0.0601  0.7029 -0.0687
39051SOL    HW125931   4.603   0.804  11.124 -0.1651 -0.3812 -0.2981
39051SOL    HW225932   4.523   0.900  11.039 -0.2794  0.3603  0.6422
39052SOL     OW25933   1.491   5.644   9.792  0.2343  0.0637  0.3038
39052SOL    HW125934   1.510   5.660   9.700  2.4839 -0.7094  0.5766
39052SOL    HW225935   1.451   5.725   9.823  0.9646  0.9277 -0.9562
39053SOL     OW25936   5.701   4.620   1.148  0.0742  0.5104  0.2448
39053SOL    HW125937   5.625   4.672   1.174  1.0653  1.5960  1.0981
39053SOL    HW225938   5.725   4.571   1.227 -0.1184 -0.3346 -0.2083
39054SOL     OW25939   4.591   6.525   5.168  0.0054  0.0150  0.4221
39054SOL    HW125940   4.544   6.475   5.236 -0.4684 -0.5656 -0.3205
39054SOL    HW225941   4.529   6.532   5.096  0.4409  0.7911  0.1100
39055SOL     OW25942   3.411   2.783  10.827  0.5106  0.1921  0.2266
39055SOL    HW125943   3.318   2.807  10.837  0.3218 -0.6080  0.4072
39055SOL    HW225944   3.439   2.756  10.914  1.4805  2.3033  0.6397
39056SOL     OW25945   6.851  11.468   3.293 -0.2609  0.4280 -0.3266
39056SOL    HW125946   6.860  11.495   3.202  1.1597  1.3051  0.0322
39056SOL    HW225947   6.860  11.549   3.343  1.0231 -0.2745  0.6606
39057SOL     OW25948   3.035  10.098   6.483  0.0926 -0.2182  0.1885
39057SOL    HW125949   3.116  10.073   6.528  0.4932  0.5143 -0.1026
39057SOL    HW225950   2.973  10.115   6.553  0.5087  0.2532  0.4458
39058SOL     OW25951   2.619  10.630   2.157  0.1697  0.1594 -0.1715
39058SOL    HW125952   2.649  10.689   2.089  1.8014  0.1902  0.5232
39058SOL    HW225953   2.668  10.549   2.142 -1.7203 -0.9174 -0.8524
39059SOL     OW25954   5.651   4.747   1.622 -0.1223  0.1580 -0.2430
39059SOL    HW125955   5.562   4.714   1.634 -0.5030  0.7351 -1.3315
39059SOL    HW225956   5.652   4.781   1.533  1.2856 -0.1067 -0.3550
39060SOL     OW25957   6.863   8.149   4.813  0.1016 -0.5986  0.1578
39060SOL    HW125958   6.942   8.203   4.800 -1.0801  0.9952 -0.8104
39060SOL    HW225959   6.824   8.144   4.726  0.1262 -3.0595  0.2272
39061SOL     OW25960   3.948   9.678   1.653 -0.4507  0.7958 -0.0038
39061SOL    HW125961   3.856   9.705   1.660 -0.1336  1.6437  1.0162
39061SOL    HW225962   3.986   9.699   1.738  0.6024  0.0887 -0.2847
39062SOL     OW25963   9.363   3.036   8.196 -0.0782  0.1197 -0.5770
39062SOL    HW125964   9.422   3.094   8.148  0.0874  0.5884  0.1777
39062SOL    HW225965   9.405   2.950   8.191 -0.6090 -0.0790 -2.1837
39063SOL     OW25966   4.043   6.631   2.403  0.2898  0.5186 -0.7908
39063SOL    HW125967   4.065   6.722   2.426 -1.9189  0.7576  0.6920
39063SOL    HW225968   3.982   6.639   2.331 -1.2448  0.3639  0.4389
39064SOL     OW25969   7.173   7.749   7.889  0.0077  0.0290  0.0174
39064SOL    HW125970   7.180   7.700   7.971  1.0260  1.5414  0.8847
39064SOL    HW225971   7.250   7.723   7.839  0.2507  0.3114  0.2403
39065SOL     OW25972  10.645   9.124  10.510 -0.0647 -0.5659 -0.9326
39065SOL    HW125973  10.662   9.135  10.416 -0.1481 -0.6648 -0.9589
39065SOL    HW225974  10.728   9.145  10.552 -0.6517  2.0721 -0.8593
39066SOL     OW25975   6.899  11.981   3.169 -0.1393 -0.3438  0.7347
39066SOL    HW125976   6.883  12.073   3.147 -2.1020 -0.6501  0.7086
39066SOL    HW225977   6.923  11.983   3.262  0.2618  0.2306  0.6252
39067SOL     OW25978   2.803   1.471   3.451 -0.7908  0.5209 -0.1305
39067SOL    HW125979   2.770   1.388   3.418 -0.3542 -0.3098  1.4320
39067SOL    HW225980   2.837   1.517   3.374 -0.7074 -0.9001 -0.9566
39068SOL     OW25981  11.345   5.417   3.873 -0.0513 -0.0987 -0.0354
39068SOL    HW125982  11.415   5.387   3.814 -0.8876 -2.6434  0.1538
39068SOL    HW225983  11.363   5.373   3.956 -1.9345 -0.8985 -0.0219
39069SOL     OW25984   2.647   0.524  11.065 -0.4536  0.2406 -0.1458
39069SOL    HW125985   2.630   0.458  10.998 -0.9980  0.1965  0.0315
39069SOL    HW225986   2.607   0.604  11.031 -2.9229 -0.3474  1.2028
39070SOL     OW25987  11.014   0.850   8.156  0.0871  0.0805 -0.2644
39070SOL    HW125988  10.971   0.813   8.233  0.3124 -1.5246 -0.8676
39070SOL    HW225989  11.096   0.803   8.149  0.1277  0.2901 -1.4174
39071SOL     OW25990  10.350   8.645  10.209  0.2029 -0.1848  0.0103
39071SOL    HW125991  10.300   8.584  10.155  0.4419 -0.6532  0.3097
39071SOL    HW225992  10.410   8.589  10.259  0.3365  0.2867  0.3852
39072SOL     OW25993   1.049   9.969  10.868 -0.7951 -0.1946  0.0986
39072SOL    HW125994   0.970  10.013  10.898 -0.1975  0.7260  0.3389
39072SOL    HW225995   1.093   9.940  10.948 -0.3193  0.2990  0.0188
39073SOL     OW25996   4.039   9.757  11.516 -0.0681  0.4400 -0.2455
39073SOL    HW125997   4.012   9.709  11.438 -0.2192  0.2321 -0.0651
39073SOL    HW225998   4.013   9.702  11.589  0.6146  0.3519 -0.0583
39074SOL     OW25999  10.514  10.933   0.797 -0.0438 -0.3601  0.1639
39074SOL    HW126000  10.527  10.917   0.703  0.0949 -0.3313  0.1784
39074SOL    HW226001  10.602  10.942   0.832 -0.1092  0.6503  0.1165
39075SOL     OW26002   5.577   6.900   9.441  0.0507  0.4629 -0.5131
39075SOL    HW126003   5.621   6.970   9.489 -0.7922  1.7150 -1.5172
39075SOL    HW226004   5.604   6.913   9.349 -1.6808  0.7145 -1.0083
39076SOL     OW26005   2.934   9.619   9.067  0.0136  0.0212 -0.0790
39076SOL    HW126006   2.850   9.607   9.024 -1.6695  0.6379  2.7789
39076SOL    HW226007   2.946   9.714   9.071  1.6424 -0.0496 -1.7255
39077SOL     OW26008   5.831   1.701   0.369  0.2320 -0.1064  0.3670
39077SOL    HW126009   5.760   1.734   0.426  1.4686  0.8022  1.4485
39077SOL    HW226010   5.908   1.749   0.399  1.0405 -0.0229 -1.7507
39078SOL     OW26011   0.112   4.209   0.361 -0.1055 -0.1583  0.5480
39078SOL    HW126012   0.104   4.123   0.402  1.9240 -0.4160  0.4693
39078SOL    HW226013   0.035   4.215   0.304 -2.0800 -0.5083  2.9578
39079SOL     OW26014  11.776  12.506  11.687 -0.7191 -0.0090  0.7370
39079SOL    HW126015  11.848  12.443  11.689 -0.2404  0.4206 -1.1492
39079SOL    HW226016  11.817  12.590  11.669 -1.3828  0.8756  2.9323
39080SOL     OW26017   2.237   0.052  10.242 -0.2251 -0.1305 -0.3721
39080SOL    HW126018   2.196   0.073  10.326 -1.0100  0.8155 -0.9683
39080SOL    HW226019   2.326   0.086  10.250  0.0106 -0.9201  0.4262
39081SOL     OW26020   0.465   0.960   7.145 -0.0775 -0.5852 -0.3045
39081SOL    HW126021   0.450   0.869   7.120 -0.7258 -0.8083  0.8152
39081SOL    HW226022   0.560   0.966   7.158 -0.0580 -1.1842 -0.1349
39082SOL     OW26023   8.519   1.479   0.276 -0.3629  0.2332 -0.6909
39082SOL    HW126024   8.448   1.436   0.325  0.5187 -0.7338 -0.2059
39082SOL    HW226025   8.477   1.514   0.198 -1.0592 -2.0950 -1.4540
39083SOL     OW26026   6.617   4.328   5.077  0.1202 -0.1277 -0.0283
39083SOL    HW126027   6.535   4.370   5.052 -0.4624 -0.1618  1.6945
39083SOL    HW226028   6.685   4.392   5.054 -0.1875 -0.6601 -2.7798
39084SOL     OW26029   7.747   2.734  10.528  0.1984 -0.6071  0.1842
39084SOL    HW126030   7.736   2.780  10.611  0.0905  0.3229 -0.3233
39084SOL    HW226031   7.750   2.804  10.463 -2.1922 -1.3942 -0.8643
39085SOL     OW26032  11.590   8.204   2.423  0.5063  0.4115  0.5252
39085SOL    HW126033  11.599   8.241   2.511  3.1401  0.4206  0.3270
39085SOL    HW226034  11.635   8.266   2.366  0.7356 -0.6792 -0.5209
39086SOL     OW26035   4.894   6.917   5.833  0.6166 -0.0282  0.2594
39086SOL    HW126036   4.938   6.949   5.913 -0.1785  0.3498  0.5567
39086SOL    HW226037   4.960   6.927   5.764  2.1803 -2.5851  1.2431
39087SOL     OW26038   2.681  10.052   7.600  0.0401 -0.0869  0.1255
39087SOL    HW126039   2.709  10.136   7.561  1.5846 -0.9112 -0.6561
39087SOL    HW226040   2.627  10.012   7.532 -0.1388 -0.0131  0.2253
39088SOL     OW26041   1.801   9.918   4.920 -0.5872 -0.3359 -0.3759
39088SOL    HW126042   1.865   9.857   4.958 -2.1672 -2.3557 -0.8263
39088SOL    HW226043   1.716   9.880   4.941 -1.6459  1.5744 -0.9754
39089SOL     OW26044   7.663   7.083   3.830  0.8524  0.0439  0.3570
39089SOL    HW126045   7.711   7.031   3.895  0.3361 -0.4136  0.3854
39089SOL    HW226046   7.573   7.082   3.861  0.1862 -1.8770 -1.3543
39090SOL     OW26047   1.694   1.579   1.312  0.0388 -0.2520 -0.1579
39090SOL    HW126048   1.770   1.635   1.301 -0.6038  0.6203 -0.2567
39090SOL    HW226049   1.645   1.587   1.230  0.0822 -1.1891 -0.2873
39091SOL     OW26050  12.196   4.142   8.764  0.1449 -0.1084 -0.2917
39091SOL    HW126051  12.233   4.223   8.728 -0.7195  0.2846 -0.3180
39091SOL    HW226052  12.111   4.168   8.799  0.5527 -0.6837  1.1719
39092SOL     OW26053   0.518   1.794  10.622  0.2582 -0.2830 -0.6263
39092SOL    HW126054   0.520   1.885  10.591 -1.9514 -0.7766 -2.4998
39092SOL    HW226055   0.473   1.798  10.706 -0.7063  0.2820 -1.1539
39093SOL     OW26056  11.222   0.528  10.204  1.0122 -0.3496 -0.0866
39093SOL    HW126057  11.270   0.607  10.178 -0.1179  0.5492  0.4682
39093SOL    HW226058  11.152   0.520  10.139 -1.1317  1.2647  1.8692
39094SOL     OW26059  11.645   9.275   4.245  0.0161  0.4341  0.3302
39094SOL    HW126060  11.674   9.290   4.335 -0.7042  0.6761  0.5285
39094SOL    HW226061  11.551   9.255   4.252  0.0725 -0.1131 -0.3140
39095SOL     OW26062   0.370   5.114   7.076 -0.4404  0.2100 -0.1810
39095SOL    HW126063   0.361   5.208   7.058 -0.4758  0.6263  1.7455
39095SOL    HW226064   0.279   5.083   7.083 -0.4282  0.0403 -0.7528
39096SOL     OW26065   8.590   2.287   2.869  0.0466  0.3786 -0.5056
39096SOL    HW126066   8.570   2.379   2.850  0.4960  0.0624 -2.8754
39096SOL    HW226067   8.686   2.283   2.870  0.0280 -0.0009 -0.0266
39097SOL     OW26068   8.883   3.968   3.264  0.2461  0.2131  0.1183
39097SOL    HW126069   8.817   4.023   3.223 -1.7465 -0.0818  2.7100
39097SOL    HW226070   8.841   3.883   3.274  1.0953 -0.0788  1.5395
39098SOL     OW26071   1.208   3.146   6.234 -0.2481 -1.0397  0.1640
39098SOL    HW126072   1.150   3.112   6.166 -0.9119 -0.3556  0.3747
39098SOL    HW226073   1.294   3.110   6.213 -1.0411 -3.5292  0.8505
39099SOL     OW26074   7.617   3.138   6.977  0.2326 -0.5429 -0.9250
39099SOL    HW126075   7.693   3.174   7.023  0.2360 -1.6885  0.0285
39099SOL    HW226076   7.565   3.214   6.953  1.5655  0.2465 -1.3978
39100SOL     OW26077   1.924   7.250   5.035  0.0025  0.4263 -0.4805
39100SOL    HW126078   1.974   7.173   5.062  1.0307  1.0101 -0.6567
39100SOL    HW226079   1.917   7.303   5.114 -1.3532 -0.1635 -0.1733
39101SOL     OW26080   0.977   6.587  10.049 -0.3058  0.0147  0.1521
39101SOL    HW126081   0.966   6.675  10.012  1.4608  0.4746  0.6459
39101SOL    HW226082   1.000   6.532   9.974  0.8176  0.4494  0.1594
39102SOL     OW26083   1.909   1.932   3.401  0.4200  0.0359  0.0739
39102SOL    HW126084   1.856   1.883   3.464  0.6940 -1.2220 -0.6306
39102SOL    HW226085   1.998   1.925   3.435  0.7600 -1.7154 -1.0322
39103SOL     OW26086   9.711  12.557   5.691 -0.3134  0.5433 -0.1340
39103SOL    HW126087   9.748  12.634   5.734  0.2620  0.7759 -1.0122
39103SOL    HW226088   9.742  12.563   5.600  1.2299 -1.6256  0.1746
39104SOL     OW26089   3.528   1.847   6.716  0.1952  0.0479 -0.2704
39104SOL    HW126090   3.520   1.857   6.810  0.4756  2.4595 -0.4457
39104SOL    HW226091   3.610   1.891   6.693 -1.0291  1.6906 -1.8597
39105SOL     OW26092   8.352  11.339  11.790  0.0518 -0.5781  0.5456
39105SOL    HW126093   8.303  11.402  11.737  0.4487 -1.1574 -0.5432
39105SOL    HW226094   8.414  11.392  11.839 -0.5807  0.0085  0.7133
39106SOL     OW26095  12.398   4.531   7.032  0.0901  0.0674 -0.1603
39106SOL    HW126096  12.425   4.452   6.986 -0.5491  1.8397 -3.9948
39106SOL    HW226097  12.460   4.598   7.005 -2.7483  2.1830 -2.1320
39107SOL     OW26098   7.971  12.546  12.213 -0.0464 -0.3952 -0.0869
39107SOL    HW126099   7.952  12.638  12.231 -0.5073 -0.6644  0.8365
39107SOL    HW226100   7.919  12.498  12.277  0.5875 -1.2883 -0.2329
39108SOL     OW26101   0.016   6.037   8.954  0.0354  0.2956  0.2723
39108SOL    HW126102   0.024   5.947   8.986  2.2682  0.2491 -0.2525
39108SOL    HW226103   0.029   6.030   8.859  0.8937  1.2168  0.3026
39109SOL     OW26104  11.657   4.091   0.916 -0.0462  0.0297 -0.2649
39109SOL    HW126105  11.658   4.162   0.852 -1.3784  0.2290 -0.0946
39109SOL    HW226106  11.584   4.036   0.888  0.5875 -0.9499 -0.0392
39110SOL     OW26107   4.232   3.786   2.791 -0.2846 -0.1725 -0.0168
39110SOL    HW126108   4.223   3.877   2.763 -1.1905 -0.1000  0.4891
39110SOL    HW226109   4.144   3.749   2.783 -0.2120 -0.6259  1.0361
39111SOL     OW26110   4.510   4.716   6.798  0.1976  0.3001  0.3978
39111SOL    HW126111   4.605   4.707   6.806 -0.0186 -0.5699  2.8752
39111SOL    HW226112   4.478   4.626   6.790 -0.3524  0.6693 -2.6793
39112SOL     OW26113  10.859   6.997  12.374 -0.6660 -0.4235  0.3202
39112SOL    HW126114  10.867   7.090  12.351 -1.7018 -0.9382 -2.4808
39112SOL    HW226115  10.947   6.962  12.363 -0.6835 -0.1696 -0.7480
39113SOL     OW26116   0.346   9.654   3.217 -0.2234  0.2174 -0.2376
39113SOL    HW126117   0.301   9.735   3.194  1.3843  1.6185  1.1588
39113SOL    HW226118   0.437   9.669   3.190  0.1454 -1.0152  0.2494
39114SOL     OW26119  10.044   0.538   1.556 -0.0611 -0.2557  0.2678
39114SOL    HW126120  10.043   0.631   1.579  1.1025  0.0476 -0.7877
39114SOL    HW226121   9.990   0.496   1.623 -0.3475  1.1318  0.9443
39115SOL     OW26122   5.606   9.830   2.598  0.2752  0.7895 -0.1981
39115SOL    HW126123   5.607   9.884   2.677 -0.4148  2.3433 -1.2060
39115SOL    HW226124   5.516   9.797   2.592 -0.1504  2.0605 -1.2011
39116SOL     OW26125   7.382   4.018   8.576 -0.0308  0.1279  0.9028
39116SOL    HW126126   7.431   4.009   8.658 -0.8161 -0.5043  1.3216
39116SOL    HW226127   7.339   4.103   8.583 -1.0959 -0.4554  1.7255
39117SOL     OW26128   7.257   5.559   1.007 -0.1223 -0.1515 -0.3681
39117SOL    HW126129   7.259   5.651   1.036 -2.7643 -0.3433  0.6654
39117SOL    HW226130   7.185   5.520   1.055  0.9674 -2.8520 -0.7324
39118SOL     OW26131   0.841  10.271   3.611  0.9515  0.1438  0.2634
39118SOL    HW126132   0.923  10.230   3.639  1.3862  0.2371 -0.8321
39118SOL    HW226133   0.774  10.208   3.635  1.6788 -1.6884 -2.1653
39119SOL     OW26134  11.536  11.481   9.420 -0.4311  0.1216  0.5256
39119SOL    HW126135  11.578  11.439   9.495  0.3393 -0.9596 -0.4815
39119SOL    HW226136  11.474  11.416   9.388 -2.1541  1.2920  1.3310
39120SOL     OW26137  11.066   7.720   4.928 -0.1947 -0.1231  0.1976
39120SOL    HW126138  11.074   7.708   4.833  0.7171  2.2597 -0.1043
39120SOL    HW226139  11.110   7.644   4.966 -0.4503 -1.0433 -1.2864
39121SOL     OW26140  11.908  11.245   9.528 -0.8631 -0.3107  0.6377
39121SOL    HW126141  11.948  11.330   9.545  0.0483 -0.7374  0.6585
39121SOL    HW226142  11.816  11.256   9.553 -0.4267  0.2296  2.0718
39122SOL     OW26143  11.482   6.155  12.578 -0.0326  0.4174  0.3955
39122SOL    HW126144  11.537   6.157  12.656 -0.5413  1.3428  0.7419
39122SOL    HW226145  11.529   6.098  12.517  0.1499 -0.6828  1.5270
39123SOL     OW26146  11.544   5.059   0.058  0.3330  0.7389 -0.6150
39123SOL    HW126147  11.483   5.069  -0.015 -0.2304  0.2770 -0.2205
39123SOL    HW226148  11.490   5.072   0.136  0.6225 -0.1924 -0.2439
39124SOL     OW26149   5.475   2.313   2.650  0.2035 -0.1903 -0.0128
39124SOL    HW126150   5.404   2.369   2.681  0.1716  0.2245 -0.8183
39124SOL    HW226151   5.512   2.276   2.730 -1.2519 -0.8305  0.4122
39125SOL     OW26152   0.073  11.619   0.620  0.0319  0.4793 -0.0054
39125SOL    HW126153  -0.012  11.574   0.617  1.2358 -1.8821 -1.2440
39125SOL    HW226154   0.084  11.653   0.531  0.9461 -0.4252 -0.2556
39126SOL     OW26155   4.337   6.637   2.529  0.2204  0.2346 -0.0623
39126SOL    HW126156   4.412   6.614   2.474  0.4511 -1.7878  1.0002
39126SOL    HW226157   4.262   6.599   2.483  0.1070  0.5093 -0.1071
39127SOL     OW26158   8.317   8.456  11.993 -0.5954 -0.1289  0.2613
39127SOL    HW126159   8.374   8.412  11.930 -0.5944  1.2024 -0.7069
39127SOL    HW226160   8.353   8.434  12.078  1.7085  1.0546 -0.3378
39128SOL     OW26161   5.340   4.805   1.460 -0.1106 -0.7145  0.3504
39128SOL    HW126162   5.315   4.720   1.496  2.9659 -1.2439  1.5171
39128SOL    HW226163   5.363   4.858   1.536 -1.7006  1.1446 -0.3727
39129SOL     OW26164   4.708   3.837   2.355  0.2932 -0.4134 -0.1633
39129SOL    HW126165   4.764   3.895   2.407  0.8977  0.4504 -1.7296
39129SOL    HW226166   4.764   3.762   2.334  0.3007 -0.3797 -0.2610
39130SOL     OW26167   4.556  11.725  11.681  0.0046 -0.4145  0.0021
39130SOL    HW126168   4.541  11.805  11.631  1.5341  0.0408  0.2139
39130SOL    HW226169   4.475  11.711  11.730  0.2182  1.8962  1.1649
39131SOL     OW26170   8.209   4.946   3.990 -0.3343 -0.0267 -0.3056
39131SOL    HW126171   8.234   5.005   3.918 -0.9776 -0.2408 -0.7143
39131SOL    HW226172   8.122   4.976   4.016 -1.5448 -1.9544 -1.8187
39132SOL     OW26173   6.194   6.795   4.935 -0.4875 -0.0601 -0.2406
39132SOL    HW126174   6.142   6.775   4.858 -0.2590  2.8937 -1.3057
39132SOL    HW226175   6.285   6.792   4.904 -0.2927 -0.4117  0.3467
39133SOL     OW26176   9.736   8.627   3.635 -0.4846  0.3125 -0.2626
39133SOL    HW126177   9.724   8.599   3.545 -0.0361  0.8106 -0.4843
39133SOL    HW226178   9.814   8.683   3.633 -0.0744 -0.2114  0.5516
39134SOL     OW26179   9.851   3.677  10.472  0.1244 -0.2534 -0.4399
39134SOL    HW126180   9.759   3.692  10.493 -0.1924  1.6626 -2.6779
39134SOL    HW226181   9.850   3.605  10.409  0.2418 -0.7643  0.1416
39135SOL     OW26182   9.253   2.593   8.345 -0.1933 -0.6152 -0.2147
39135SOL    HW126183   9.345   2.589   8.317 -0.4006 -1.0160 -0.8701
39135SOL    HW226184   9.221   2.676   8.309  0.8650  1.4605  3.1412
39136SOL     OW26185   8.082  12.020   2.427  0.4289  0.5769  0.5340
39136SOL    HW126186   8.070  12.113   2.410 -3.4384  0.2123  0.4024
39136SOL    HW226187   8.092  11.981   2.341  1.0845  0.7547  0.5260
39137SOL     OW26188   1.595   6.307   4.563  0.0108  0.1742  0.4053
39137SOL    HW126189   1.619   6.218   4.536 -0.7605  0.3439 -0.9132
39137SOL    HW226190   1.636   6.318   4.649 -0.6288 -1.7827  1.0138
39138SOL     OW26191   1.255   8.339   4.187 -0.3560 -0.0914 -0.3088
39138SOL    HW126192   1.316   8.290   4.132 -1.8531 -0.0232 -2.1029
39138SOL    HW226193   1.311   8.395   4.241  1.2378 -1.4623 -0.4597
39139SOL     OW26194  11.588   6.890   8.556  0.1141  0.1213  0.1276
39139SOL    HW126195  11.584   6.812   8.501 -1.1796  0.0556  0.2774
39139SOL    HW226196  11.528   6.872   8.628 -1.0566  1.6513 -0.3972
39140SOL     OW26197   0.154   4.327   9.814 -0.2241 -0.3621  0.5887
39140SOL    HW126198   0.089   4.396   9.824 -1.4044 -1.3961  0.3023
39140SOL    HW226199   0.182   4.333   9.722  0.1664  0.1433  0.7376
39141SOL     OW26200   7.072   5.354   2.796  0.7638  0.2923 -0.7579
39141SOL    HW126201   7.033   5.277   2.838 -0.1310 -0.1094 -2.2362
39141SOL    HW226202   7.056   5.341   2.703  2.3142  1.3491 -1.2128
39142SOL     OW26203   9.423   0.562   1.714  0.4030  0.5782 -0.2869
39142SOL    HW126204   9.501   0.607   1.748 -0.2317  2.1637 -0.8087
39142SOL    HW226205   9.358   0.573   1.783 -0.1253  1.5684 -0.9278
39143SOL     OW26206  11.160   2.909   9.263  0.2044  0.6385 -0.0814
39143SOL    HW126207  11.172   2.833   9.319 -0.7553 -0.6611 -1.5491
39143SOL    HW226208  11.165   2.875   9.174 -0.5284  2.2370 -0.7887
39144SOL     OW26209  12.594   9.354  12.091  0.0824  0.8871  0.2739
39144SOL    HW126210  12.670   9.411  12.098  0.2851  0.5085  1.3143
39144SOL    HW226211  12.541   9.394  12.021 -0.5102  3.2109  1.9359
39145SOL     OW26212  11.157  11.792   3.431  0.1260  0.2272 -0.5668
39145SOL    HW126213  11.225  11.809   3.496  0.1032 -0.1161 -0.4536
39145SOL    HW226214  11.108  11.874   3.425 -0.1249  0.1342  0.1413
39146SOL     OW26215   2.900  11.664   3.062  0.1323 -0.1563  0.0567
39146SOL    HW126216   2.909  11.626   3.149 -0.6617  0.4764  0.4276
39146SOL    HW226217   2.827  11.617   3.022  0.3927 -0.3357 -0.2176
39147SOL     OW26218   9.266   5.518   9.206  0.0258  0.2453  0.5412
39147SOL    HW126219   9.220   5.510   9.289  1.8611 -1.9313  1.4522
39147SOL    HW226220   9.242   5.605   9.173 -0.2580  1.4567  3.6477
39148SOL     OW26221   6.581   7.373   4.201  0.2827  0.1987  0.1154
39148SOL    HW126222   6.622   7.357   4.286 -0.7428  0.9888  0.7840
39148SOL    HW226223   6.567   7.468   4.199  0.0258  0.1495 -0.8141
39149SOL     OW26224  11.212   6.062   0.891 -0.1286  0.7818 -0.9074
39149SOL    HW126225  11.211   5.986   0.949 -0.0908  1.7297  0.3939
39149SOL    HW226226  11.304   6.087   0.885 -0.2472  1.3749 -0.4083
39150SOL     OW26227   8.089   7.028   5.258 -0.6849  0.1493  0.6345
39150SOL    HW126228   8.060   6.945   5.295 -1.7468  0.9319  1.6179
39150SOL    HW226229   8.016   7.088   5.273 -0.2752  1.0625 -0.7979
39151SOL     OW26230   4.823   1.415   3.075  0.1981 -0.1842  0.3308
39151SOL    HW126231   4.782   1.424   3.161 -0.6015 -0.8603  0.0387
39151SOL    HW226232   4.910   1.381   3.093  0.7453  1.4440  0.9786
39152SOL     OW26233  10.201   2.804   8.375  0.4976 -0.3163  0.3041
39152SOL    HW126234  10.203   2.760   8.290  0.5727  0.9470 -0.3703
39152SOL    HW226235  10.290   2.836   8.388 -0.2172  2.3327 -0.7210
39153SOL     OW26236   2.581   1.504  11.268 -0.7660  0.5985 -0.6533
39153SOL    HW126237   2.555   1.427  11.219  1.3958  0.5236 -1.7778
39153SOL    HW226238   2.585   1.475  11.359  0.6377 -0.8152 -1.1393
39154SOL     OW26239   7.177   1.084   2.170  0.5449  0.1242 -0.3304
39154SOL    HW126240   7.133   1.018   2.224  0.0287  1.1626  0.5521
39154SOL    HW226241   7.142   1.168   2.200  0.9090  0.8014 -1.6826
39155SOL     OW26242   1.639   7.293   7.033 -0.1705 -0.3894  0.0993
39155SOL    HW126243   1.658   7.320   7.122 -0.3085 -1.3981  0.4396
39155SOL    HW226244   1.562   7.237   7.040 -1.0471  0.6471 -0.8211
39156SOL     OW26245   0.755   4.769   5.839  0.1736 -0.1147  0.0514
39156SOL    HW126246   0.842   4.805   5.822  1.2471 -2.0312  1.1835
39156SOL    HW226247   0.768   4.674   5.842 -2.0219 -0.4784 -0.0343
39157SOL     OW26248  11.916   5.971   2.758 -0.0926  0.2620  0.6333
39157SOL    HW126249  11.982   5.993   2.825  0.5990  2.8488 -0.7496
39157SOL    HW226250  11.966   5.965   2.677 -1.3115  0.1999 -0.1245
39158SOL     OW26251  11.195   4.278  12.165  0.1714 -0.2888 -0.3515
39158SOL    HW126252  11.165   4.190  12.187  1.1445 -0.6308 -0.3205
39158SOL    HW226253  11.291   4.273  12.173  0.1379  1.5712  2.7261
39159SOL     OW26254  11.666   0.358  10.923 -0.8241 -0.0394  0.0705
39159SOL    HW126255  11.747   0.335  10.879 -0.1925  1.6762  0.2820
39159SOL    HW226256  11.603   0.292  10.894  0.8305 -1.9272  0.5878
39160SOL     OW26257   9.328   2.142  12.323 -0.1063  0.0732  0.1022
39160SOL    HW126258   9.418   2.120  12.298 -0.6257 -0.9381 -0.9782
39160SOL    HW226259   9.333   2.158  12.417  1.3066  0.6279 -0.0478
39161SOL     OW26260   8.371   9.923   2.257 -0.2025 -0.3955  0.1540
39161SOL    HW126261   8.324   9.859   2.204 -0.8567 -0.7505  1.1383
39161SOL    HW226262   8.461   9.890   2.262  0.0010 -0.0998 -1.1152
39162SOL     OW26263  12.574   7.670   4.060 -0.2737 -0.0490 -0.5473
39162SOL    HW126264  12.564   7.647   4.152 -1.7373  1.4067 -0.2895
39162SOL    HW226265  12.632   7.603   4.024  0.5184 -0.5052  1.4733
39163SOL     OW26266   7.882   4.791   6.331  0.7448  0.2853  0.1381
39163SOL    HW126267   7.834   4.872   6.313 -0.0777  0.4152  2.5718
39163SOL    HW226268   7.971   4.820   6.351  0.6355  0.5205  0.2902
39164SOL     OW26269   5.046  11.855  12.501 -0.7688 -0.0151 -0.4429
39164SOL    HW126270   5.058  11.806  12.583  0.1470  0.0084 -0.5516
39164SOL    HW226271   4.952  11.872  12.497 -0.7789  0.3625  0.8334
39165SOL     OW26272   4.182   0.772  10.512  0.1852 -0.1089  0.3943
39165SOL    HW126273   4.094   0.742  10.534  0.1038 -0.1421  0.0369
39165SOL    HW226274   4.240   0.706  10.550 -0.0080 -1.0254 -0.8181
39166SOL     OW26275  12.349   8.868  12.594 -0.3231  0.2410 -0.0860
39166SOL    HW126276  12.363   8.797  12.532  0.0948 -0.6670  1.0009
39166SOL    HW226277  12.255   8.883  12.593 -0.7804 -2.0182  1.4022
39167SOL     OW26278   1.207   9.864  10.246  0.4304  0.1412 -0.0918
39167SOL    HW126279   1.184   9.882  10.155 -1.6161 -1.3023  0.0720
39167SOL    HW226280   1.251   9.779  10.243  0.3679  0.0955  0.2589
39168SOL     OW26281  10.873   6.392   0.293  0.5979 -0.3683  0.1336
39168SOL    HW126282  10.913   6.468   0.336 -0.5776  0.8303 -0.8081
39168SOL    HW226283  10.854   6.332   0.365  0.9499  0.4997  0.9854
39169SOL     OW26284   3.955   8.805   9.114 -0.0687 -0.1975 -0.0093
39169SOL    HW126285   3.966   8.792   9.020 -1.1392  0.9759 -0.3219
39169SOL    HW226286   3.932   8.719   9.149  0.7156 -0.7151 -0.7535
39170SOL     OW26287   3.499   9.285   5.571 -0.1974  0.0881 -0.1492
39170SOL    HW126288   3.459   9.362   5.611  0.0258 -0.4588  1.1948
39170SOL    HW226289   3.431   9.218   5.576  0.3834 -0.4461  0.8537
39171SOL     OW26290  10.873   7.920  11.480 -0.0536 -0.4771 -0.1220
39171SOL    HW126291  10.849   7.891  11.393  0.3875 -0.4053 -0.2722
39171SOL    HW226292  10.797   7.968  11.512  0.2092  0.5246 -0.9394
39172SOL     OW26293   8.001  10.872   1.466 -0.0981 -0.0259  0.0484
39172SOL    HW126294   7.923  10.928   1.462 -1.0598 -1.2643  0.5248
39172SOL    HW226295   8.064  10.921   1.518 -1.1563  0.3174  1.0407
39173SOL     OW26296   9.188   0.733   4.029 -0.2869  0.1299  0.2631
39173SOL    HW126297   9.234   0.776   3.957  0.9338 -1.9790 -0.2971
39173SOL    HW226298   9.176   0.643   4.000 -1.8542 -0.2033  1.7834
39174SOL     OW26299   4.920   0.489  10.285 -0.3718 -0.1474  0.4373
39174SOL    HW126300   4.837   0.445  10.303  0.4230 -1.6394  0.5813
39174SOL    HW226301   4.987   0.423  10.302  0.7930  0.6301 -0.8682
39175SOL     OW26302   8.717   1.294  10.814  0.3271  0.1547 -0.2716
39175SOL    HW126303   8.672   1.309  10.898  0.7640 -1.1311  0.2137
39175SOL    HW226304   8.676   1.215  10.778  2.0966 -1.0169  0.1589
39176SOL     OW26305   7.373   3.929   1.424  0.5056 -0.1002  0.5107
39176SOL    HW126306   7.327   4.012   1.411  0.6189  0.3202  2.4276
39176SOL    HW226307   7.466   3.953   1.420  0.5430 -0.2803  0.2991
39177SOL     OW26308   3.015  10.458   6.609 -0.3355 -0.5401  0.0456
39177SOL    HW126309   2.963  10.382   6.634 -1.3401 -0.2051 -0.9264
39177SOL    HW226310   2.950  10.526   6.589  0.4229 -0.2517 -1.6642
39178SOL     OW26311   2.594   0.596  10.270 -0.0850 -0.4387 -0.1197
39178SOL    HW126312   2.577   0.517  10.219  0.0778 -1.7599  1.7764
39178SOL    HW226313   2.689   0.602  10.275 -0.0783 -1.5103  1.7112
39179SOL     OW26314   6.054  11.610   8.858 -0.2572  0.2599 -0.5128
39179SOL    HW126315   6.094  11.636   8.941 -1.3660  0.7093 -0.0925
39179SOL    HW226316   6.098  11.663   8.792 -0.1395  0.7267 -0.0662
39180SOL     OW26317   7.775   6.345   4.892  0.2191 -0.1913 -0.2670
39180SOL    HW126318   7.832   6.420   4.873  1.3642 -0.9361  0.0974
39180SOL    HW226319   7.835   6.278   4.927 -1.1426 -0.2828  2.1226
39181SOL     OW26320   0.505   6.089   2.292  0.2134 -0.7276  0.1947
39181SOL    HW126321   0.435   6.107   2.355 -0.8998 -1.9121 -0.6470
39181SOL    HW226322   0.530   6.175   2.259 -0.6307 -0.2579  0.7512
39182SOL     OW26323   5.001  10.480   9.867 -0.5452 -0.1306  0.2259
39182SOL    HW126324   4.952  10.543   9.919  0.0162  0.8573 -0.4117
39182SOL    HW226325   4.938  10.411   9.847 -1.1703  0.2236  0.9418
39183SOL     OW26326   5.983   6.608   4.836 -0.6243  0.0479  0.5422
39183SOL    HW126327   5.954   6.665   4.765  0.7813  0.5474  0.3438
39183SOL    HW226328   5.902   6.576   4.875 -1.4263  0.3471 -0.8081
39184SOL     OW26329   1.116   7.855   2.693  0.5488 -0.6576  0.0101
39184SOL    HW126330   1.100   7.827   2.603  0.2359 -2.1819  0.5278
39184SOL    HW226331   1.196   7.810   2.719  1.3485  0.7445  0.1109
39185SOL     OW26332  11.869  10.520  10.889  0.3928 -0.1290  0.2971
39185SOL    HW126333  11.861  10.540  10.795 -0.1629 -0.1137  0.3443
39185SOL    HW226334  11.962  10.501  10.901  0.4415 -0.2988 -0.2927
39186SOL     OW26335   6.820   7.881   0.637 -0.1693  0.0461  0.1539
39186SOL    HW126336   6.739   7.925   0.661  0.2799  0.5090  0.8373
39186SOL    HW226337   6.839   7.911   0.548  0.2399  1.4045  0.6811
39187SOL     OW26338  11.168   2.863   5.669 -0.2398  0.5176  0.8691
39187SOL    HW126339  11.192   2.805   5.596  1.5438  0.7626  1.2043
39187SOL    HW226340  11.073   2.859   5.673 -0.5989  2.0814 -2.7872
39188SOL     OW26341   9.957  11.277   3.361  0.3184  0.1517  0.2277
39188SOL    HW126342   9.876  11.269   3.310  1.1430  0.8467 -1.2428
39188SOL    HW226343   9.950  11.207   3.427 -1.1398 -0.2663 -0.3126
39189SOL     OW26344  10.114   6.437   9.853 -0.1350  0.2139  0.1595
39189SOL    HW126345  10.040   6.376   9.852  1.2453 -1.5575 -0.7037
39189SOL    HW226346  10.180   6.394   9.908  1.1456  0.5396 -1.0557
39190SOL     OW26347   4.881   0.893   7.300  0.4619 -0.0342  0.3378
39190SOL    HW126348   4.807   0.940   7.339 -0.2930 -0.7115 -0.2692
39190SOL    HW226349   4.931   0.861   7.375 -0.1446 -0.0253  0.7515
39191SOL     OW26350   5.417  10.122   8.060  0.0637  0.2119 -0.1099
39191SOL    HW126351   5.500  10.076   8.046 -0.0523 -0.6764  1.8120
39191SOL    HW226352   5.363  10.098   7.985  1.3245  0.2933 -1.0611
39192SOL     OW26353   3.353  11.370   1.033  0.3561 -0.6266 -0.0403
39192SOL    HW126354   3.426  11.417   0.993 -0.6426  0.1566 -1.0135
39192SOL    HW226355   3.361  11.280   1.000  0.5860 -0.4196 -0.5564
39193SOL     OW26356  10.250   4.534   0.933  0.3258  0.3354 -0.2470
39193SOL    HW126357  10.338   4.518   0.900  0.4130 -2.1977  0.9423
39193SOL    HW226358  10.210   4.592   0.869  2.1695 -0.1393 -1.9185
39194SOL     OW26359   1.855   7.674   3.324  0.8950  0.0734 -0.4761
39194SOL    HW126360   1.764   7.677   3.296  1.0127  0.7721 -0.7902
39194SOL    HW226361   1.886   7.765   3.319  1.2490  0.0518  0.8223
39195SOL     OW26362  10.052  11.181   6.266  0.3446  0.3267 -0.2163
39195SOL    HW126363  10.147  11.186   6.272  0.5443  1.3458 -2.9400
39195SOL    HW226364  10.035  11.145   6.179 -1.8001 -4.0043  1.6453
39196SOL     OW26365   5.854   9.177   9.146  0.3362 -0.2103  0.0588
39196SOL    HW126366   5.878   9.132   9.227 -1.2714 -0.6094  0.3529
39196SOL    HW226367   5.759   9.186   9.151  0.3608  1.0071 -1.1535
39197SOL     OW26368   7.097   3.739   1.492 -0.1478  0.4596  0.4369
39197SOL    HW126369   7.042   3.811   1.524  1.6922  1.5155  1.4116
39197SOL    HW226370   7.181   3.753   1.535  0.8542 -1.1640 -0.8893
39198SOL     OW26371   8.362  12.032   4.278  0.1197 -0.4658  0.0240
39198SOL    HW126372   8.274  12.010   4.306 -0.2281  1.9427  1.0489
39198SOL    HW226373   8.362  12.014   4.183 -1.1888 -1.2457  0.1507
39199SOL     OW26374   4.579   8.630   3.418 -0.1786 -0.0592  0.6640
39199SOL    HW126375   4.589   8.682   3.498  0.2566 -0.5532  0.9299
39199SOL    HW226376   4.504   8.574   3.435 -1.1035  0.9588  0.1077
39200SOL     OW26377   4.099   0.463   9.388  0.0949 -0.0175 -0.0772
39200SOL    HW126378   4.122   0.508   9.469 -0.8045  1.1414 -0.4452
39200SOL    HW226379   4.179   0.462   9.336  0.0867  1.3972 -0.1556
39201SOL     OW26380   8.981   2.935  12.302 -0.0147 -0.2055  0.4940
39201SOL    HW126381   9.070   2.947  12.268  0.2042 -1.1625  0.7047
39201SOL    HW226382   8.984   2.851  12.348 -0.9633 -0.1219  0.7275
39202SOL     OW26383   1.480   1.084   2.253 -0.1883 -0.0773 -0.2114
39202SOL    HW126384   1.445   1.124   2.333  2.5421  1.2254  0.4434
39202SOL    HW226385   1.421   1.114   2.184 -1.0142  1.0458  0.9348
39203SOL     OW26386   2.826   8.274   3.929  0.0069  0.1868  0.2512
39203SOL    HW126387   2.769   8.278   4.006  0.0893  1.8562  0.2463
39203SOL    HW226388   2.771   8.302   3.856  0.3315  0.0240 -0.0615
39204SOL     OW26389   7.120  10.473   1.436 -0.2288 -0.2852  0.0049
39204SOL    HW126390   7.210  10.468   1.468 -0.1662 -1.7554 -0.3420
39204SOL    HW226391   7.127  10.464   1.341 -0.7853 -1.4324  0.0484
39205SOL     OW26392   1.144   4.483   5.831  0.8667  0.1882  0.2832
39205SOL    HW126393   1.158   4.559   5.774 -0.3179 -1.0859 -1.8116
39205SOL    HW226394   1.151   4.408   5.773 -1.8665 -1.1227  1.5080
39206SOL     OW26395   8.888   5.453  12.428 -0.3875  0.3837 -0.5738
39206SOL    HW126396   8.853   5.433  12.342  0.1895  0.7555 -0.9053
39206SOL    HW226397   8.983   5.451  12.417 -0.2854 -0.5437  0.2909
39207SOL     OW26398   2.430   5.450   5.356  0.1623 -0.4850 -0.5524
39207SOL    HW126399   2.506   5.392   5.359  0.4478 -0.1033 -0.2258
39207SOL    HW226400   2.433   5.498   5.439 -0.8447 -0.9776 -0.2149
39208SOL     OW26401   3.478   9.477   8.401 -0.6862  0.8180 -0.4456
39208SOL    HW126402   3.568   9.453   8.420 -0.7800  0.0344 -0.9598
39208SOL    HW226403   3.444   9.405   8.348 -1.4121  1.4191 -0.8224
39209SOL     OW26404   4.333  11.618   5.699 -0.8412  0.1782 -0.1415
39209SOL    HW126405   4.278  11.625   5.621 -0.5350 -0.6874 -0.4428
39209SOL    HW226406   4.371  11.706   5.708 -0.6462  0.2110 -1.1421
39210SOL     OW26407   1.894  10.651  12.474  0.0674  0.2232  0.4679
39210SOL    HW126408   1.951  10.648  12.550 -1.1102 -1.4073  1.3441
39210SOL    HW226409   1.884  10.560  12.447  0.1193  0.7304 -1.4017
39211SOL     OW26410   1.879   1.968   1.322  0.1120 -0.6502 -0.2096
39211SOL    HW126411   1.829   1.964   1.241 -0.8923  1.0053  0.2655
39211SOL    HW226412   1.938   2.043   1.310  0.4066 -0.7834  0.3630
39212SOL     OW26413   8.899   8.481  12.547  0.4904  0.2935 -0.0364
39212SOL    HW126414   8.811   8.514  12.565  1.2343  1.8422  0.9511
39212SOL    HW226415   8.903   8.397  12.593 -1.5625 -1.5621 -2.8913
39213SOL     OW26416   7.699   0.508   1.057 -0.2593 -0.1440  0.1035
39213SOL    HW126417   7.727   0.538   0.971  0.9830  1.0420  0.9001
39213SOL    HW226418   7.714   0.413   1.055 -2.2794 -0.5134 -1.7001
39214SOL     OW26419  11.569   0.457   2.021  0.2901 -0.2291 -0.3026
39214SOL    HW126420  11.576   0.434   2.113 -0.4405 -1.3531 -0.5115
39214SOL    HW226421  11.475   0.471   2.007  0.5910  2.4258 -0.3294
39215SOL     OW26422   6.945   0.721  10.672 -0.2655  0.1418 -0.0463
39215SOL    HW126423   6.888   0.652  10.639  0.3914 -0.1543 -0.5852
39215SOL    HW226424   6.923   0.798  10.620  0.9543 -0.3930 -1.3968
39216SOL     OW26425   4.222  10.158   7.807 -0.7441  0.0688  0.0269
39216SOL    HW126426   4.273  10.148   7.726 -0.7876 -0.7722  0.0879
39216SOL    HW226427   4.131  10.159   7.777 -0.7905 -0.8135  0.0893
39217SOL     OW26428  11.320   7.023   4.525  0.1448  0.0891  0.0523
39217SOL    HW126429  11.314   7.107   4.481  0.0597  0.0725  0.0307
39217SOL    HW226430  11.389   7.035   4.590  1.9000 -0.5703 -1.5878
39218SOL     OW26431   1.034   0.408   5.485 -0.1227  0.2565 -0.2865
39218SOL    HW126432   1.057   0.332   5.539 -0.8564  0.1715 -0.0745
39218SOL    HW226433   1.067   0.387   5.398 -2.4129 -1.4475 -0.8599
39219SOL     OW26434   6.201   3.652   9.115 -0.2207  0.0306  0.2304
39219SOL    HW126435   6.222   3.680   9.204 -1.4620 -0.8175  0.8118
39219SOL    HW226436   6.142   3.720   9.082  0.0343  0.2100  0.1375
39220SOL     OW26437   7.812   2.367  11.748 -0.5198  0.1263 -0.3547
39220SOL    HW126438   7.797   2.374  11.654 -1.6784 -0.0834 -0.1929
39220SOL    HW226439   7.743   2.309  11.780  0.3827 -0.5248  0.4999
39221SOL     OW26440  11.685  10.559   0.885  0.3506 -0.4359  0.2703
39221SOL    HW126441  11.661  10.558   0.978 -0.1786 -0.1178  0.1408
39221SOL    HW226442  11.620  10.504   0.843 -1.4333  1.9744 -0.3659
39222SOL     OW26443   7.612   8.436  10.671 -0.0030  0.0676  0.2660
39222SOL    HW126444   7.554   8.415  10.598 -1.4985  0.1327  1.3847
39222SOL    HW226445   7.672   8.361  10.676 -0.1680 -0.1449 -0.7436
39223SOL     OW26446   3.855   8.789   9.487 -1.1351 -0.8068  0.5483
39223SOL    HW126447   3.769   8.825   9.464 -0.6191 -0.1381 -0.4012
39223SOL    HW226448   3.852   8.698   9.458 -1.2689 -0.5715 -0.2025
39224SOL     OW26449   2.186   5.601  10.549 -0.5205  0.3988 -0.7278
39224SOL    HW126450   2.115   5.656  10.583 -1.2944  0.2266 -2.0073
39224SOL    HW226451   2.143   5.521  10.522 -0.0567  0.7514 -2.6478
39225SOL     OW26452   9.759   9.641   0.698  0.0621  0.2727  0.6493
39225SOL    HW126453   9.792   9.728   0.722 -3.2799  1.7038  0.5475
39225SOL    HW226454   9.722   9.652   0.611  2.2137 -2.1272 -0.7032
39226SOL     OW26455   3.705   8.659  11.473 -0.0076  0.3646  0.2267
39226SOL    HW126456   3.611   8.652  11.455  0.2400 -0.9123 -0.7654
39226SOL    HW226457   3.739   8.712  11.402  0.2142 -0.3912 -0.2505
39227SOL     OW26458   4.340   4.669   7.689  0.0127  0.1921  0.0124
39227SOL    HW126459   4.379   4.698   7.606 -0.6121  1.0501  0.0018
39227SOL    HW226460   4.276   4.603   7.663 -1.1983  1.4530 -0.3706
39228SOL     OW26461   8.327   7.244  11.045 -0.5959 -0.0535  0.2651
39228SOL    HW126462   8.309   7.323  10.995 -1.5703 -0.6124 -0.2877
39228SOL    HW226463   8.293   7.263  11.133  1.4044  1.0482  0.8755
39229SOL     OW26464   0.488   7.083   7.328  0.1823 -0.2022  0.6328
39229SOL    HW126465   0.418   7.132   7.283  0.3775 -2.1732 -2.0801
39229SOL    HW226466   0.445   7.004   7.360  0.4357  0.3715  2.5061
39230SOL     OW26467   1.845   9.854  10.375  0.2833 -0.2658  0.3806
39230SOL    HW126468   1.924   9.887  10.419  0.6265  1.1814 -1.1954
39230SOL    HW226469   1.788   9.826  10.446  2.2929 -1.6027  1.5746
39231SOL     OW26470   0.842   6.868   8.769 -0.1601 -1.0160 -0.2406
39231SOL    HW126471   0.910   6.884   8.704  0.0260  1.5118  0.5017
39231SOL    HW226472   0.889   6.836   8.846  0.0779 -0.2755 -0.0748
39232SOL     OW26473   5.451   7.672  10.730 -0.6218 -0.3261  0.0902
39232SOL    HW126474   5.410   7.674  10.817 -1.5415 -2.2593 -0.2610
39232SOL    HW226475   5.378   7.678  10.669 -0.0315  0.2463 -0.5738
39233SOL     OW26476   8.391   5.492   4.580 -0.0786  0.2650  0.6447
39233SOL    HW126477   8.428   5.450   4.502 -0.1291  0.8362  0.3000
39233SOL    HW226478   8.456   5.559   4.604  0.5312 -0.7256  1.8510
39234SOL     OW26479   2.231   1.049   4.422 -0.4127 -0.0795 -0.0939
39234SOL    HW126480   2.248   1.126   4.368 -1.3230  0.8774  0.9366
39234SOL    HW226481   2.305   0.991   4.405 -2.2920 -1.5596 -5.2221
39235SOL     OW26482   1.251   9.768   2.357  0.0470  0.0016  0.6843
39235SOL    HW126483   1.296   9.745   2.438 -0.1058 -3.4459 -0.0345
39235SOL    HW226484   1.178   9.824   2.385  0.2268 -0.7538  2.8891
39236SOL     OW26485   0.046   9.637   8.194  0.2739  0.1547  0.0100
39236SOL    HW126486   0.067   9.551   8.160 -1.1072 -0.9340  1.7118
39236SOL    HW226487  -0.032   9.623   8.249 -1.1039  2.7891 -1.0598
39237SOL     OW26488   0.260  10.687  10.621 -0.3266  0.0642  0.1964
39237SOL    HW126489   0.304  10.766  10.590  1.0154 -0.0922  1.5726
39237SOL    HW226490   0.257  10.698  10.716 -1.4608 -0.8748  0.2810
39238SOL     OW26491   6.944  12.188   7.844  0.1758 -0.0642 -0.1051
39238SOL    HW126492   6.911  12.100   7.829 -2.4371  1.0587 -1.8192
39238SOL    HW226493   6.914  12.210   7.933 -0.0581 -0.5559 -0.0636
39239SOL     OW26494   1.134   8.226  10.910 -0.1672 -0.0609 -0.2684
39239SOL    HW126495   1.176   8.274  10.982 -0.4399 -0.3806  0.1060
39239SOL    HW226496   1.113   8.294  10.846 -0.4272  0.3062  0.1983
39240SOL     OW26497   1.903  10.076  10.797 -0.2987  0.3308 -0.0893
39240SOL    HW126498   1.941   9.989  10.788  2.1411  1.3562 -0.3279
39240SOL    HW226499   1.823  10.073  10.744  0.6289 -1.2416 -1.4981
39241SOL     OW26500   2.730   2.575  10.456 -0.0259 -0.4902 -0.1888
39241SOL    HW126501   2.705   2.657  10.498 -0.1757 -0.8660  0.4778
39241SOL    HW226502   2.649   2.543  10.417 -0.2617 -0.9302  0.6275
39242SOL     OW26503   1.632  10.357   3.524  0.1885 -0.3864  0.5471
39242SOL    HW126504   1.649  10.351   3.618  0.0540 -0.0729  0.5959
39242SOL    HW226505   1.709  10.400   3.488  0.1726 -0.3628  0.5404
39243SOL     OW26506   9.579   0.293   5.234  0.3319  0.3579 -0.5832
39243SOL    HW126507   9.536   0.378   5.242  0.8829  0.5092  1.2958
39243SOL    HW226508   9.654   0.299   5.293 -0.2021 -1.7995  0.4071
39244SOL     OW26509   7.481   4.328   9.750  0.1565 -0.2926 -0.2142
39244SOL    HW126510   7.507   4.283   9.670  0.6215  0.0447 -0.2570
39244SOL    HW226511   7.427   4.401   9.719 -1.8956 -1.6661 -0.0631
39245SOL     OW26512   4.041  11.516   2.878  0.4510 -0.1453 -0.2683
39245SOL    HW126513   4.048  11.472   2.963 -0.4167 -0.8075 -0.5232
39245SOL    HW226514   4.021  11.607   2.900  0.3482 -0.2880  0.2417
39246SOL     OW26515   6.162   6.189   5.609 -0.0284  0.2834 -0.3092
39246SOL    HW126516   6.163   6.144   5.694  1.2173 -0.8701 -0.8974
39246SOL    HW226517   6.245   6.237   5.607 -1.4769  3.0392  0.4570
39247SOL     OW26518   2.142   7.471   3.408  0.4514 -0.3806 -0.3431
39247SOL    HW126519   2.146   7.379   3.434  0.2865 -0.5036 -0.7444
39247SOL    HW226520   2.072   7.474   3.343 -0.6485  0.2991  0.8192
39248SOL     OW26521   2.967  11.202  11.764 -0.2832 -0.5552 -0.3278
39248SOL    HW126522   2.954  11.208  11.670 -1.7666  1.9654 -0.0464
39248SOL    HW226523   2.972  11.108  11.782 -1.3307 -1.1422 -2.7329
39249SOL     OW26524   1.983   3.964   6.866  0.3754  0.3155 -0.0322
39249SOL    HW126525   1.991   3.890   6.805 -1.8793 -1.8224  2.0214
39249SOL    HW226526   1.908   4.014   6.833 -0.3811 -0.4279  0.5051
39250SOL     OW26527   6.900   6.853   1.224 -0.5065 -0.4137  0.1821
39250SOL    HW126528   6.807   6.861   1.243 -0.3454  1.7745  0.3510
39250SOL    HW226529   6.943   6.869   1.308  0.0415 -0.5047 -0.0735
39251SOL     OW26530   9.990   6.070   6.398 -0.5615 -0.2840 -0.2534
39251SOL    HW126531   9.930   6.143   6.380  0.0946  0.2648 -0.2435
39251SOL    HW226532  10.075   6.112   6.414 -0.4959 -0.9399  1.2813
39252SOL     OW26533   4.904   4.145   3.683 -0.2727 -0.2701  0.1943
39252SOL    HW126534   4.933   4.080   3.747  1.0702 -0.6103 -0.7107
39252SOL    HW226535   4.959   4.221   3.699  0.2823 -0.4591 -0.7038
39253SOL     OW26536   4.663   5.885   3.220  0.5351 -0.1958  0.2647
39253SOL    HW126537   4.692   5.951   3.157 -0.3242  1.0418  1.1184
39253SOL    HW226538   4.573   5.866   3.195  0.7140 -0.9234  0.1450
39254SOL     OW26539   6.412   6.436   3.576  0.1961  0.1537  0.1387
39254SOL    HW126540   6.322   6.467   3.586  0.2393 -0.1282  1.7983
39254SOL    HW226541   6.456   6.504   3.525 -0.7982  0.6150 -0.1211
39255SOL     OW26542  10.591   5.791   6.677 -0.2435  0.5395  0.2074
39255SOL    HW126543  10.599   5.704   6.638  1.0087  0.6376  0.2010
39255SOL    HW226544  10.548   5.775   6.761  2.7038 -0.5739  1.6633
39256SOL     OW26545   6.758   8.295   2.704 -0.4917 -0.2936 -0.3285
39256SOL    HW126546   6.689   8.250   2.655  0.4091 -1.3766 -0.6473
39256SOL    HW226547   6.715   8.372   2.741 -1.1305  0.8839 -3.2289
39257SOL     OW26548   5.505   3.158   1.637 -0.6566  0.9291  0.3837
39257SOL    HW126549   5.467   3.182   1.552 -1.4619  0.5739  0.6282
39257SOL    HW226550   5.479   3.229   1.696  0.9805  1.8296  0.0748
39258SOL     OW26551  12.051   3.845   1.464 -0.2296 -0.1730  0.1376
39258SOL    HW126552  12.053   3.914   1.398 -0.5599  0.1536  0.4619
39258SOL    HW226553  12.130   3.793   1.447 -0.4288 -0.2343 -0.6600
39259SOL     OW26554  10.473   1.176   2.394  0.0425  0.2604  0.1848
39259SOL    HW126555  10.469   1.190   2.299 -0.9603 -0.2169  0.1460
39259SOL    HW226556  10.405   1.110   2.411  1.0034 -0.5346  1.0712
39260SOL     OW26557   1.858   4.650  11.641 -0.1223  0.1210 -0.6150
39260SOL    HW126558   1.798   4.693  11.702 -1.1021 -0.2185 -1.3195
39260SOL    HW226559   1.858   4.706  11.563  1.0742  0.5181 -0.3549
39261SOL     OW26560  11.308   4.617   4.302 -0.2872 -0.2430 -0.5863
39261SOL    HW126561  11.286   4.678   4.372  0.5580  0.2331 -0.7090
39261SOL    HW226562  11.309   4.672   4.223  1.1786 -0.2419 -0.5975
39262SOL     OW26563   6.903  10.894   9.857  0.1673  0.0090  0.3579
39262SOL    HW126564   6.960  10.841   9.913  1.1299  0.2415 -0.3666
39262SOL    HW226565   6.816  10.881   9.892  0.3871 -1.9550  0.2983
39263SOL     OW26566   0.252   7.269   2.488 -0.2620  0.4223  0.3102
39263SOL    HW126567   0.231   7.352   2.445  0.8033  1.3144  1.4669
39263SOL    HW226568   0.204   7.271   2.570  1.8193  1.1238  1.5705
39264SOL     OW26569   2.089   0.661   8.627  0.2528 -0.4740 -0.1850
39264SOL    HW126570   2.178   0.645   8.595  1.0815  0.5957  1.4531
39264SOL    HW226571   2.048   0.574   8.630  1.1695 -0.9585 -1.0829
39265SOL     OW26572  11.393  11.509   3.646 -0.2071 -0.3292  0.1385
39265SOL    HW126573  11.331  11.580   3.664  0.4609  0.1557  0.5768
39265SOL    HW226574  11.362  11.471   3.564 -0.8948  0.1175  0.1809
39266SOL     OW26575   8.298   4.704   1.265 -0.1198 -0.9817  0.1230
39266SOL    HW126576   8.242   4.766   1.312  0.9639 -0.9474  1.4178
39266SOL    HW226577   8.320   4.637   1.329  2.0611 -0.5030 -0.0343
39267SOL     OW26578   0.455   2.504  11.808 -0.5204  0.6743 -0.5100
39267SOL    HW126579   0.530   2.446  11.795  1.1897  1.9686  2.5856
39267SOL    HW226580   0.472   2.578  11.750  0.8212  1.1264  0.4377
39268SOL     OW26581   4.298   7.460  11.805  0.1185  0.2050 -0.2429
39268SOL    HW126582   4.341   7.465  11.891  0.6902 -0.1312 -0.4994
39268SOL    HW226583   4.292   7.551  11.776  1.2056  0.2215 -0.4572
39269SOL     OW26584   9.244   5.312   7.091 -0.5985  0.7079  0.4812
39269SOL    HW126585   9.215   5.374   7.158  1.5067  1.1082  1.0998
39269SOL    HW226586   9.321   5.269   7.130 -0.9292 -1.0014 -0.6466
39270SOL     OW26587  11.312   6.370   8.550 -0.1794 -0.4979  0.9928
39270SOL    HW126588  11.252   6.317   8.496 -2.5227  0.4685  2.4611
39270SOL    HW226589  11.319   6.453   8.503 -0.3477 -0.4711  1.0112
39271SOL     OW26590   3.271   2.021   0.498  0.7014  0.6583 -0.5696
39271SOL    HW126591   3.203   2.080   0.466  0.9613  0.9500 -0.5909
39271SOL    HW226592   3.228   1.935   0.503  0.0362  1.0223  0.3814
39272SOL     OW26593   6.964   9.571   7.938  0.0557  0.8210  0.4946
39272SOL    HW126594   6.893   9.514   7.967 -0.1930  0.5184 -0.6616
39272SOL    HW226595   7.034   9.511   7.910  0.6092  1.1111  1.2114
39273SOL     OW26596   6.550   8.289   0.909 -0.0612  0.2912 -0.0099
39273SOL    HW126597   6.619   8.225   0.927 -0.4399 -0.1841 -0.1897
39273SOL    HW226598   6.583   8.340   0.835 -0.5279 -0.9671 -1.1533
39274SOL     OW26599  11.249  10.507   0.812 -0.7365 -0.2173  0.3901
39274SOL    HW126600  11.313  10.528   0.880  0.4650  0.3479 -0.8894
39274SOL    HW226601  11.164  10.522   0.854 -0.0597 -0.8644  2.0760
39275SOL     OW26602   2.792   4.515   0.822  0.2761 -0.4186 -0.2769
39275SOL    HW126603   2.827   4.551   0.740 -1.2493 -0.9010 -1.1900
39275SOL    HW226604   2.709   4.560   0.834  1.1555  0.7880  1.9003
39276SOL     OW26605   4.870   0.978   2.635 -0.0639  0.5747 -0.2334
39276SOL    HW126606   4.943   0.928   2.673 -1.5410 -2.5461 -1.0925
39276SOL    HW226607   4.876   0.961   2.541 -0.6048  2.1661 -0.5757
39277SOL     OW26608   2.518   2.460  10.313 -0.4136 -0.3079  0.5050
39277SOL    HW126609   2.524   2.364  10.317  1.5942 -0.2719 -0.3622
39277SOL    HW226610   2.430   2.477  10.280  0.3485 -2.0845 -3.0621
39278SOL     OW26611   4.012   3.287   7.169 -0.6921 -0.3321  0.6493
39278SOL    HW126612   3.979   3.201   7.145 -3.5757  0.8754 -0.0565
39278SOL    HW226613   3.956   3.316   7.242 -1.1391  1.7200 -0.4255
39279SOL     OW26614   8.495  11.507  11.189 -0.0673 -0.8712  0.7182
39279SOL    HW126615   8.469  11.487  11.099  1.8551 -2.4330  0.4448
39279SOL    HW226616   8.467  11.597  11.203 -2.0157 -1.1746 -0.8128
39280SOL     OW26617   2.361   2.985   4.161  1.4013 -0.4351 -0.1072
39280SOL    HW126618   2.427   3.019   4.101  0.7704  1.2968  0.1166
39280SOL    HW226619   2.337   2.900   4.124  2.5529 -0.3616 -1.1002
39281SOL     OW26620   1.919  11.748   7.884  0.1124  0.0187  0.2058
39281SOL    HW126621   2.004  11.778   7.917 -0.3320  0.2023  1.2397
39281SOL    HW226622   1.888  11.687   7.951 -0.2475 -0.6060 -0.5185
39282SOL     OW26623   4.342   2.795   7.493  0.0992 -0.3253 -0.2951
39282SOL    HW126624   4.271   2.843   7.535  0.2048  1.4178 -1.9648
39282SOL    HW226625   4.308   2.706   7.481 -1.2494  0.1114  0.1976
39283SOL     OW26626   8.037  10.506   2.815  0.0742 -0.2227 -0.4320
39283SOL    HW126627   7.967  10.533   2.875 -0.3667  0.1600 -1.0954
39283SOL    HW226628   8.086  10.439   2.862 -0.5768 -0.2935  0.1497
39284SOL     OW26629   7.428  11.054   7.225  0.0555  0.3295  0.2858
39284SOL    HW126630   7.395  11.143   7.236  0.4438  0.4509  0.4761
39284SOL    HW226631   7.390  11.024   7.143 -2.0192 -0.1928  1.3522
39285SOL     OW26632   7.778  11.348   8.567  0.5089 -0.0574 -0.1082
39285SOL    HW126633   7.870  11.371   8.556  1.4497 -3.3408 -0.1263
39285SOL    HW226634   7.759  11.368   8.658  1.5930 -0.3505  0.1969
39286SOL     OW26635   4.314   2.534   1.019 -0.0669 -0.4655  0.3359
39286SOL    HW126636   4.234   2.554   0.971  0.8861  0.6805 -0.8531
39286SOL    HW226637   4.358   2.468   0.966  0.3308 -0.2120  0.3426
39287SOL     OW26638   2.909   1.429   4.286  0.3698 -0.1009  0.4261
39287SOL    HW126639   2.865   1.414   4.370  2.5436 -0.2236  1.6067
39287SOL    HW226640   2.901   1.523   4.271  0.0246 -0.0683  0.7840
39288SOL     OW26641   7.215   6.872  10.214 -0.3511  0.7509 -0.4456
39288SOL    HW126642   7.209   6.781  10.243 -0.0993  0.7476 -0.4009
39288SOL    HW226643   7.135   6.886  10.164 -1.3185  1.0805  1.1297
39289SOL     OW26644   9.821   7.332   8.521  0.4775 -0.2604 -0.1675
39289SOL    HW126645   9.749   7.314   8.581  0.6692  1.3073  0.5930
39289SOL    HW226646   9.793   7.295   8.438 -1.6145  1.0608 -0.1238
39290SOL     OW26647  11.290   7.534   8.546 -0.4949  0.7727 -0.1878
39290SOL    HW126648  11.224   7.479   8.589 -0.1799 -0.5250 -1.2818
39290SOL    HW226649  11.342   7.569   8.618 -0.7565 -0.3119  0.5674
39291SOL     OW26650   6.169   5.184   6.815  0.1676 -0.0609  0.0650
39291SOL    HW126651   6.178   5.180   6.720  0.7743  2.1569 -0.0261
39291SOL    HW226652   6.259   5.181   6.847  0.1658  1.9020  0.3683
39292SOL     OW26653   3.140  10.052   1.131 -0.4606 -0.3193  0.2206
39292SOL    HW126654   3.144   9.972   1.079 -1.1308  0.3238 -0.8685
39292SOL    HW226655   3.051  10.086   1.116  0.2256  1.3019 -0.3784
39293SOL     OW26656   0.720   8.966   6.987 -0.2790  0.4588 -0.2516
39293SOL    HW126657   0.744   9.042   7.040 -1.4545  0.9354 -0.3832
39293SOL    HW226658   0.704   9.002   6.899  1.6293 -0.3153 -0.9656
39294SOL     OW26659   2.383   0.914  10.736 -0.4803  0.3872  0.3850
39294SOL    HW126660   2.351   0.992  10.781 -1.8986  1.2044 -1.8893
39294SOL    HW226661   2.443   0.947  10.669 -0.3873 -0.5387 -0.0090
39295SOL     OW26662   1.544   6.674   0.294 -0.5395  0.1979  0.2777
39295SOL    HW126663   1.605   6.628   0.351  0.0990  1.3783  0.5828
39295SOL    HW226664   1.512   6.607   0.233  0.9641 -0.4781  0.1962
39296SOL     OW26665   7.844   1.526  10.431  0.2732 -0.1031 -0.0173
39296SOL    HW126666   7.897   1.606  10.425 -1.0364  0.9986  1.8486
39296SOL    HW226667   7.907   1.457  10.449  1.3858  0.5767 -1.1117
39297SOL     OW26668  12.193   4.975   5.778  0.7255  0.0057  0.3755
39297SOL    HW126669  12.202   4.925   5.697  0.0995  1.5838 -0.7288
39297SOL    HW226670  12.138   4.920   5.834  0.7336 -0.8904 -0.4643
39298SOL     OW26671   7.997   6.224  12.368  1.0336 -0.2878 -0.4959
39298SOL    HW126672   7.993   6.319  12.382  2.6384 -0.0080 -1.7181
39298SOL    HW226673   7.920   6.205  12.314 -1.2794 -0.3027  2.5325
39299SOL     OW26674  11.743   9.659   0.469  0.2162 -0.1862 -0.2575
39299SOL    HW126675  11.717   9.689   0.382 -0.2799 -0.7950 -0.3297
39299SOL    HW226676  11.689   9.709   0.530  2.3698  2.1794 -0.1079
39300SOL     OW26677   3.450  11.927  11.312  0.1705 -0.1856  0.1093
39300SOL    HW126678   3.518  11.970  11.260 -2.1375  2.0035 -1.2623
39300SOL    HW226679   3.386  11.896  11.248 -0.3596 -1.9320  1.3926
39301SOL     OW26680   1.627   6.013   2.981 -0.1220 -0.0621  0.2143
39301SOL    HW126681   1.638   6.091   3.035  1.7914  0.2029 -0.4794
39301SOL    HW226682   1.660   5.941   3.035 -0.4978 -0.1750  0.2975
39302SOL     OW26683   2.005   6.571   0.865 -0.4108 -0.0780 -0.3068
39302SOL    HW126684   1.935   6.626   0.902 -0.2946 -0.9056  1.2130
39302SOL    HW226685   2.004   6.492   0.919  1.6475 -0.1426 -0.3184
39303SOL     OW26686   0.448   4.879   0.393  0.1971  0.3315  0.1214
39303SOL    HW126687   0.462   4.881   0.488 -0.0828 -1.2507  0.2322
39303SOL    HW226688   0.394   4.801   0.379  2.4854 -1.0440 -1.6199
39304SOL     OW26689   7.597   9.288   2.136  0.0919  0.6865 -0.1127
39304SOL    HW126690   7.574   9.323   2.222 -0.4305 -3.5981  1.7517
39304SOL    HW226691   7.690   9.267   2.143 -0.4686 -1.9249  0.4375
39305SOL     OW26692   9.443   9.637   1.412 -0.3930 -0.3514  0.5267
39305SOL    HW126693   9.427   9.659   1.320 -0.2344 -1.8286  0.1213
39305SOL    HW226694   9.525   9.681   1.434  0.8286 -1.8654 -0.7661
39306SOL     OW26695   3.676   8.817   8.749  0.4597 -0.5321 -0.4620
39306SOL    HW126696   3.656   8.770   8.830  0.6506  0.2598  0.0570
39306SOL    HW226697   3.715   8.751   8.692  0.4016 -1.0828  0.1235
39307SOL     OW26698   7.104   4.469   1.784 -0.6322  0.0261 -0.3442
39307SOL    HW126699   7.023   4.498   1.826 -1.6281  0.2255 -2.2773
39307SOL    HW226700   7.090   4.377   1.765 -0.4629  0.0892 -0.7965
39308SOL     OW26701   8.761   1.310   7.454 -0.1508  0.6562 -0.0577
39308SOL    HW126702   8.703   1.353   7.391  0.4580  1.4317 -0.1040
39308SOL    HW226703   8.789   1.230   7.411 -4.0248 -1.7280  1.3266
39309SOL     OW26704  10.240   6.209   5.385  0.4939 -0.1343 -1.2259
39309SOL    HW126705  10.300   6.147   5.426 -1.0531 -1.3123 -0.6413
39309SOL    HW226706  10.267   6.212   5.293  0.5942 -1.6961 -1.2692
39310SOL     OW26707   0.467  12.522   7.821  0.2525  0.1001 -0.1389
39310SOL    HW126708   0.472  12.431   7.792 -3.1591  0.8533 -4.0178
39310SOL    HW226709   0.386  12.526   7.873  0.7845  0.7955  0.6669
39311SOL     OW26710  12.352   1.289   2.764  0.0376 -0.3933 -0.1734
39311SOL    HW126711  12.276   1.261   2.713  0.7015 -0.3562 -1.2168
39311SOL    HW226712  12.329   1.377   2.795  0.1141  0.1117 -1.4819
39312SOL     OW26713   5.102   8.524   1.304 -0.6874 -0.7069  0.1905
39312SOL    HW126714   5.013   8.493   1.291 -0.8316 -0.7289  1.1853
39312SOL    HW226715   5.139   8.465   1.370 -0.9192  1.0800  2.0442
39313SOL     OW26716   8.509   9.058  11.926  0.2226  0.0853 -0.1644
39313SOL    HW126717   8.472   9.093  12.007 -0.5645 -1.5360  0.2362
39313SOL    HW226718   8.602   9.045  11.945 -0.1037 -1.0344  0.7890
39314SOL     OW26719   3.248  10.237   6.668 -0.0419  0.3361  0.7688
39314SOL    HW126720   3.250  10.309   6.605 -0.4920 -1.2278 -1.1349
39314SOL    HW226721   3.164  10.246   6.713 -1.2883 -0.4133 -1.2789
39315SOL     OW26722  12.304   7.670   7.475  0.6922 -0.0664 -0.5007
39315SOL    HW126723  12.242   7.684   7.546  0.8168  2.4127 -0.7813
39315SOL    HW226724  12.259   7.612   7.413 -1.3192  1.5347 -0.6284
39316SOL     OW26725  11.594  11.172  11.740 -0.2283 -0.1709 -0.1403
39316SOL    HW126726  11.676  11.170  11.691  0.4591 -0.6683  0.9765
39316SOL    HW226727  11.586  11.263  11.769  0.4933 -0.3318  0.6189
39317SOL     OW26728   9.538  11.929   1.304  0.3030 -0.0215 -0.3329
39317SOL    HW126729   9.519  11.900   1.393 -0.7975 -0.5338 -0.7251
39317SOL    HW226730   9.622  11.888   1.283  0.6282  0.2029  0.5037
39318SOL     OW26731   0.302  11.972   8.653  0.0244  0.4434  0.1186
39318SOL    HW126732   0.329  11.926   8.732 -1.2213 -0.0042  0.3023
39318SOL    HW226733   0.248  12.045   8.685 -1.8596 -0.6784 -0.3312
39319SOL     OW26734   4.988   5.337  11.913  0.1693  0.6979 -0.3501
39319SOL    HW126735   4.951   5.423  11.894  0.3614  0.3743 -2.3695
39319SOL    HW226736   5.076   5.356  11.946 -0.5447  1.3210  1.3233
39320SOL     OW26737   5.845   8.973   5.783 -0.3657  0.1109  0.3072
39320SOL    HW126738   5.884   9.008   5.703  1.2333  1.0176  1.4338
39320SOL    HW226739   5.830   9.049   5.838 -0.2771 -0.6205  1.3686
39321SOL     OW26740  11.909  10.559   5.258  0.2308 -0.0679  0.0155
39321SOL    HW126741  11.898  10.486   5.319 -1.2276  0.4867  0.4581
39321SOL    HW226742  11.829  10.611   5.268 -1.1660 -1.1463 -3.9966
39322SOL     OW26743   1.235   0.718   5.521 -0.4247 -0.2843  0.5854
39322SOL    HW126744   1.167   0.773   5.557  2.0671  2.5864  1.3175
39322SOL    HW226745   1.280   0.681   5.597  1.9793  2.1156  0.5019
39323SOL     OW26746   4.540   1.312  10.100 -0.1710  0.4747  0.3663
39323SOL    HW126747   4.487   1.364  10.039 -1.6374  1.0176  2.0318
39323SOL    HW226748   4.612   1.371  10.125  1.0270 -0.0942 -1.5227
39324SOL     OW26749  10.848  10.484   5.609 -0.4249  0.1468  0.3678
39324SOL    HW126750  10.925  10.528   5.644 -0.8842  1.3717 -0.1135
39324SOL    HW226751  10.882  10.403   5.570  0.4285  0.0417  1.2959
39325SOL     OW26752   6.152  11.965   6.958 -0.3519  0.3195 -0.7454
39325SOL    HW126753   6.147  11.897   6.890  0.4015  0.1837 -0.6651
39325SOL    HW226754   6.245  11.971   6.980 -0.4060  1.4148 -0.7779
39326SOL     OW26755  10.043   2.138   1.486 -0.1184  0.3623  0.0748
39326SOL    HW126756  10.074   2.175   1.403 -1.2058  0.7546 -0.1819
39326SOL    HW226757   9.963   2.091   1.462  0.8499 -1.6255  0.5143
39327SOL     OW26758   5.580   3.429   7.737  0.3291 -0.0949 -0.4546
39327SOL    HW126759   5.523   3.503   7.758  0.9449  0.5720 -1.0541
39327SOL    HW226760   5.643   3.465   7.674 -1.1513 -1.8374 -3.1427
39328SOL     OW26761   9.657   4.349   1.553  0.2029 -0.4382  0.2975
39328SOL    HW126762   9.667   4.442   1.534  1.3392 -0.3368  1.2703
39328SOL    HW226763   9.563   4.337   1.568 -0.3348  0.0346 -2.2912
39329SOL     OW26764   9.883  10.260   3.275 -0.2186 -0.2747 -0.1503
39329SOL    HW126765   9.813  10.254   3.211 -0.1738  0.0893 -0.2328
39329SOL    HW226766   9.909  10.352   3.275 -0.7758 -0.1022  0.9834
39330SOL     OW26767   0.330   2.301   5.474  0.0506 -0.3298 -0.0395
39330SOL    HW126768   0.288   2.219   5.500  0.4386 -0.4179  0.3180
39330SOL    HW226769   0.257   2.357   5.445 -0.2048 -0.8343 -0.3962
39331SOL     OW26770   5.264   8.948  11.220  0.2185 -0.4275  0.1212
39331SOL    HW126771   5.274   8.931  11.313  2.1952 -0.5082 -0.0576
39331SOL    HW226772   5.347   8.986  11.193 -0.1859 -0.6907 -1.6744
39332SOL     OW26773  11.508  10.030   2.471  0.2868  0.3996  0.0307
39332SOL    HW126774  11.419  10.063   2.484  0.0223 -0.0169 -0.6497
39332SOL    HW226775  11.503   9.938   2.496  0.4426  0.2942 -0.3205
39333SOL     OW26776   1.013  10.581   8.990  0.1290  0.3982  0.9404
39333SOL    HW126777   1.101  10.608   9.016  0.5781  0.5464 -0.6768
39333SOL    HW226778   1.025  10.495   8.949 -0.1458  1.3563 -1.2321
39334SOL     OW26779   1.854   2.801   7.470 -0.1581  0.6304  0.2769
39334SOL    HW126780   1.912   2.859   7.519  2.0863  0.7637 -2.3440
39334SOL    HW226781   1.794   2.859   7.425 -1.3597  0.5628  1.6971
39335SOL     OW26782  10.443   4.997   4.717 -0.6198  0.1433  0.0957
39335SOL    HW126783  10.489   4.924   4.676 -0.3453  1.0677 -1.3302
39335SOL    HW226784  10.513   5.059   4.740 -1.0320  1.1501 -1.2351
39336SOL     OW26785   7.082   3.212   2.028  0.5385 -0.1508  0.6608
39336SOL    HW126786   7.049   3.299   2.052 -0.7533  0.0289 -1.4992
39336SOL    HW226787   7.177   3.224   2.021  1.0063 -0.1069  4.7447
39337SOL     OW26788   8.886  11.173   3.210 -0.2990 -0.4821 -0.3063
39337SOL    HW126789   8.808  11.226   3.223 -1.1730 -1.4625 -1.2366
39337SOL    HW226790   8.858  11.106   3.147  1.4669 -0.4954 -1.1237
39338SOL     OW26791   8.736  12.477   5.572 -0.5830 -0.4010  0.5809
39338SOL    HW126792   8.681  12.459   5.648 -0.7542  1.5062  0.9756
39338SOL    HW226793   8.793  12.549   5.600 -0.8940  0.5913 -1.1755
39339SOL     OW26794   1.307   0.667   1.985  0.4353 -0.3793  0.0321
39339SOL    HW126795   1.219   0.704   1.994 -0.4499 -2.5111  0.9245
39339SOL    HW226796   1.358   0.709   2.054 -0.8782 -1.6230  1.8630
39340SOL     OW26797   9.419   3.165   4.531  0.1727 -0.1506  0.3950
39340SOL    HW126798   9.451   3.099   4.470  2.5725  1.7041 -0.5471
39340SOL    HW226799   9.493   3.179   4.591  0.2795  2.4778 -0.2162
39341SOL     OW26800   2.727   7.688   0.908  0.1145  0.2675  0.5975
39341SOL    HW126801   2.794   7.710   0.973  0.9266 -4.2802  1.6671
39341SOL    HW226802   2.768   7.620   0.853 -2.3094  0.2027 -1.3242
39342SOL     OW26803  12.079   7.702   2.350  0.4888  0.4246 -0.6678
39342SOL    HW126804  12.156   7.757   2.333  0.5920  0.4004 -0.2773
39342SOL    HW226805  12.037   7.694   2.264  0.9846  0.3369 -0.9086
39343SOL     OW26806   8.476   2.164   5.440 -0.1413  0.1515 -0.2705
39343SOL    HW126807   8.450   2.081   5.399  1.2694 -0.0049 -0.9266
39343SOL    HW226808   8.555   2.143   5.489 -1.5928  0.4168  2.3652
39344SOL     OW26809   5.483   3.932  10.299  0.1063 -0.0321  0.0892
39344SOL    HW126810   5.514   4.013  10.338 -0.2104 -0.5720  1.5190
39344SOL    HW226811   5.389   3.930  10.319  0.0680 -0.6380 -0.1367
39345SOL     OW26812   6.302   7.975   2.615 -0.0452 -0.0153  0.2627
39345SOL    HW126813   6.266   8.047   2.667  0.5077 -0.0290  0.6803
39345SOL    HW226814   6.287   8.001   2.524 -1.2245 -0.0966  0.4215
39346SOL     OW26815   2.263   0.172   9.029  0.9539 -0.1129 -0.2512
39346SOL    HW126816   2.254   0.084   9.067  0.0178 -0.0757 -0.3657
39346SOL    HW226817   2.278   0.229   9.104 -0.7444 -0.0622  0.0753
39347SOL     OW26818   2.046  12.158   3.716  0.3910  0.3165 -0.8565
39347SOL    HW126819   2.137  12.145   3.740 -0.1458  0.9595  1.9328
39347SOL    HW226820   2.022  12.080   3.665  1.4078 -2.0075  1.9379
39348SOL     OW26821   1.579   5.680   8.679  0.0827  0.0601  0.1901
39348SOL    HW126822   1.625   5.652   8.758 -0.2618 -1.8246 -0.2151
39348SOL    HW226823   1.645   5.674   8.610  0.5353  2.2298  0.3609
39349SOL     OW26824   2.677  10.800   3.161  0.4268  0.1677  0.0083
39349SOL    HW126825   2.632  10.867   3.211 -3.4811 -1.8299 -0.4613
39349SOL    HW226826   2.730  10.753   3.227 -0.9479  0.4482  1.3687
39350SOL     OW26827   6.489   3.359  10.183 -0.7389  0.0276 -0.8339
39350SOL    HW126828   6.500   3.416  10.259  0.5879 -0.2495 -0.7773
39350SOL    HW226829   6.409   3.309  10.201 -0.4362 -0.0450  0.4040
39351SOL     OW26830   6.580   6.656   2.509  0.3766 -0.1425 -0.1964
39351SOL    HW126831   6.529   6.719   2.559  0.1303 -0.4467 -0.0628
39351SOL    HW226832   6.522   6.581   2.499  1.2838 -1.0838  1.2244
39352SOL     OW26833   0.100   6.866   9.980  0.0023  0.2854 -0.0702
39352SOL    HW126834   0.174   6.899   9.930  0.9558  0.6285  1.4783
39352SOL    HW226835   0.092   6.774   9.956  2.2501 -0.2973  1.1943
39353SOL     OW26836  11.413   1.982  11.200  0.7712  0.0221  0.2826
39353SOL    HW126837  11.350   2.023  11.140  1.4295 -2.4982 -2.3527
39353SOL    HW226838  11.363   1.914  11.243  1.3693 -1.4027 -1.1641
39354SOL     OW26839   0.861   6.076   0.193  0.6502 -0.5921 -0.3189
39354SOL    HW126840   0.932   6.039   0.141  0.0761  0.9249 -2.3251
39354SOL    HW226841   0.859   6.168   0.169 -0.3189 -0.0291  1.7087
39355SOL     OW26842   6.085   1.099   8.469 -0.4977  0.1812 -0.0300
39355SOL    HW126843   6.019   1.034   8.492 -0.9559 -0.0964 -1.9352
39355SOL    HW226844   6.169   1.055   8.486 -0.7790  0.2670  1.6806
39356SOL     OW26845   7.022   0.948   5.321 -0.1343 -0.4245 -0.1324
39356SOL    HW126846   7.057   0.962   5.409  2.5752  2.3144 -1.4501
39356SOL    HW226847   7.003   0.855   5.317  1.0616 -0.8964  2.8800
39357SOL     OW26848  10.106   7.432   7.770  0.1681  0.2954  0.5235
39357SOL    HW126849  10.136   7.469   7.852 -0.5487  1.3721  0.3240
39357SOL    HW226850  10.184   7.393   7.730  0.6200  0.2413  1.4470
39358SOL     OW26851   2.545   4.363   9.775  0.3985  0.3181  0.4246
39358SOL    HW126852   2.543   4.268   9.768  3.2154  0.2869 -1.7745
39358SOL    HW226853   2.619   4.381   9.833 -0.5334  1.1951  1.3814
39359SOL     OW26854   4.994  12.492   9.613  0.6854 -0.2623  0.0593
39359SOL    HW126855   5.036  12.500   9.698  0.8163 -1.6891  0.1568
39359SOL    HW226856   5.038  12.556   9.558  0.5188  0.7610  1.0880
39360SOL     OW26857  10.866   0.198  12.047 -0.2547 -0.0518 -0.3309
39360SOL    HW126858  10.886   0.113  12.086  1.6497  0.4444 -0.1334
39360SOL    HW226859  10.820   0.246  12.115 -0.2243 -0.4842 -0.0013
39361SOL     OW26860   2.728   2.547   1.902  1.0104 -0.0260  0.2079
39361SOL    HW126861   2.817   2.522   1.877  0.0313 -1.9066 -1.7526
39361SOL    HW226862   2.732   2.641   1.917  2.9200  0.2860 -1.8162
39362SOL     OW26863  10.922  10.536   3.226 -0.0316  0.0019  0.3869
39362SOL    HW126864  10.887  10.623   3.244 -2.3996 -0.9348  0.6713
39362SOL    HW226865  10.948  10.538   3.134  1.9802  1.5994  0.9268
39363SOL     OW26866   7.462   8.231   1.214  0.2057  0.1156  0.8327
39363SOL    HW126867   7.493   8.247   1.125 -0.7079 -0.1379  0.4578
39363SOL    HW226868   7.388   8.291   1.225  1.8703  2.0250  2.3480
39364SOL     OW26869   9.702   5.289   8.427 -0.8103  0.0161 -0.9178
39364SOL    HW126870   9.622   5.292   8.480 -0.5429 -2.8275 -0.2080
39364SOL    HW226871   9.670   5.288   8.337 -1.5852 -1.0424 -0.6439
39365SOL     OW26872   3.623  10.306   1.441 -0.2326 -0.2378 -0.1023
39365SOL    HW126873   3.549  10.280   1.496 -0.3498  0.2329 -0.0283
39365SOL    HW226874   3.586  10.319   1.354 -0.4783  1.1514  0.1891
39366SOL     OW26875   4.042  11.087  11.436  0.0875 -0.2245  0.6917
39366SOL    HW126876   4.123  11.118  11.396 -0.2381  0.7437  0.7634
39366SOL    HW226877   4.068  11.010  11.487  0.8625 -0.2367  0.2890
39367SOL     OW26878   8.828  11.755  11.179 -0.2475 -0.5537 -0.1748
39367SOL    HW126879   8.779  11.835  11.198  1.1207 -0.0839  1.6846
39367SOL    HW226880   8.806  11.734  11.088 -1.4410  1.3487 -0.3781
39368SOL     OW26881   7.881   2.020   1.392  0.2731 -0.7928  0.1211
39368SOL    HW126882   7.915   2.080   1.459 -2.2099  1.3330 -0.3963
39368SOL    HW226883   7.956   2.005   1.334  1.5445  0.0480  1.4571
39369SOL     OW26884   9.025  11.475   4.307  0.6106  0.0884 -0.5458
39369SOL    HW126885   8.932  11.469   4.326  0.5845 -0.4521 -0.8493
39369SOL    HW226886   9.034  11.442   4.218  1.1080  0.0278 -0.4762
39370SOL     OW26887   2.846   1.709  12.377 -0.0917  0.4288 -0.1003
39370SOL    HW126888   2.864   1.791  12.423  0.4019  0.3968 -0.2246
39370SOL    HW226889   2.927   1.659  12.386 -0.1994  0.1798 -0.5014
39371SOL     OW26890   7.373   4.286   4.694  0.4834 -0.0167  0.3557
39371SOL    HW126891   7.308   4.288   4.764 -1.1368  1.2999 -1.0995
39371SOL    HW226892   7.369   4.373   4.654  0.7118 -0.9634 -1.9001
39372SOL     OW26893   2.875   8.973   1.161 -0.1574  0.3014 -0.5426
39372SOL    HW126894   2.814   9.007   1.095  0.6348  0.3073 -1.2880
39372SOL    HW226895   2.958   9.015   1.141  0.0518  0.4702  0.6125
39373SOL     OW26896   6.218   6.159   4.334 -0.1921 -0.6199  0.3870
39373SOL    HW126897   6.275   6.091   4.368 -0.0164 -0.4833  0.3711
39373SOL    HW226898   6.235   6.159   4.239  1.1650  0.6588  0.5902
39374SOL     OW26899   7.562   4.088   2.523 -0.1863 -0.0568  0.0275
39374SOL    HW126900   7.576   4.037   2.443  0.3379 -0.0816  0.1308
39374SOL    HW226901   7.475   4.127   2.512 -0.3062 -0.4306 -0.3494
39375SOL     OW26902  10.061   8.419   1.793  0.1449 -0.2798 -0.0056
39375SOL    HW126903  10.098   8.503   1.767 -1.6207  1.4145  2.4868
39375SOL    HW226904   9.988   8.404   1.732 -0.3751  0.7211  0.3483
39376SOL     OW26905   8.635   2.677   8.206  0.0274 -0.0689  0.7760
39376SOL    HW126906   8.562   2.666   8.266  0.0391 -1.4640  0.5730
39376SOL    HW226907   8.712   2.648   8.255  0.3075  0.4946  0.6791
39377SOL     OW26908  12.210   3.406   5.433 -0.4750 -0.7588  0.0901
39377SOL    HW126909  12.139   3.435   5.491  0.3598 -0.3591  0.9472
39377SOL    HW226910  12.289   3.414   5.487  0.5648  1.1667 -1.5854
39378SOL     OW26911   5.842   0.319   9.473  0.7318 -0.0272 -0.1620
39378SOL    HW126912   5.771   0.378   9.447  0.4339 -0.5493 -0.5315
39378SOL    HW226913   5.905   0.377   9.517  0.2348  0.4924 -0.1176
39379SOL     OW26914   0.178   9.190   5.922  0.1469 -0.1069 -0.3252
39379SOL    HW126915   0.209   9.264   5.974  0.5543  0.1640 -0.9297
39379SOL    HW226916   0.096   9.164   5.963 -0.6298  1.4630 -0.8071
39380SOL     OW26917   0.768   8.028   8.407  0.0658 -0.8187 -0.0808
39380SOL    HW126918   0.823   7.980   8.345 -0.3855 -1.9930  0.4102
39380SOL    HW226919   0.802   8.005   8.493  1.6718  1.9777  0.1758
39381SOL     OW26920   5.426   5.195   3.336 -0.9014 -0.2590  0.0113
39381SOL    HW126921   5.365   5.214   3.408 -2.1853 -2.3360 -0.4262
39381SOL    HW226922   5.502   5.156   3.378  0.3286  2.4824  0.5789
39382SOL     OW26923   3.770   2.956   9.661 -0.8743 -0.4101 -0.1450
39382SOL    HW126924   3.785   2.867   9.694 -1.4055 -0.4314  0.0484
39382SOL    HW226925   3.714   2.944   9.585 -3.1091 -0.0843  1.3663
39383SOL     OW26926   3.211   6.311   4.769 -0.2282  0.0121  0.2711
39383SOL    HW126927   3.166   6.228   4.757  0.0206 -0.2518  1.1042
39383SOL    HW226928   3.143   6.373   4.794 -0.3625 -0.0230 -0.0108
39384SOL     OW26929   3.632   2.178   9.034 -0.1288 -0.8627 -0.2070
39384SOL    HW126930   3.539   2.187   9.016  0.3081  0.7823 -1.9027
39384SOL    HW226931   3.638   2.177   9.130 -1.7280  1.3772 -0.0049
39385SOL     OW26932   5.932   7.012   3.267  0.5274 -0.2032 -0.2207
39385SOL    HW126933   5.969   6.955   3.200  1.3415  0.7804 -0.6325
39385SOL    HW226934   5.840   6.986   3.273  0.6783 -0.9544 -1.0163
39386SOL     OW26935   8.663   6.634   6.621 -0.6259  0.1483  0.4055
39386SOL    HW126936   8.679   6.540   6.611  1.5710  0.1995  2.5079
39386SOL    HW226937   8.735   6.676   6.575 -2.7364  1.0148 -2.4250
39387SOL     OW26938   7.152   6.466  12.568 -0.1562 -0.5036  0.0159
39387SOL    HW126939   7.057   6.477  12.563  0.1075  4.4187  0.9436
39387SOL    HW226940   7.171   6.469  12.662  0.9909 -0.5251 -0.2086
39388SOL     OW26941   5.712   3.322  12.036 -0.5461  0.2673 -0.0269
39388SOL    HW126942   5.656   3.323  11.958 -1.8269  0.4450  0.8765
39388SOL    HW226943   5.682   3.246  12.086  0.6501 -0.1800  0.0444
39389SOL     OW26944  12.372   2.671   5.612 -0.1287 -0.1983  0.2665
39389SOL    HW126945  12.446   2.627   5.654  0.3426  0.7552  0.4745
39389SOL    HW226946  12.339   2.731   5.679 -0.5728 -0.0302 -0.0965
39390SOL     OW26947   1.354   8.709   1.016 -0.9835  0.5720 -0.5362
39390SOL    HW126948   1.262   8.694   0.993 -1.1677  1.5256 -0.4664
39390SOL    HW226949   1.402   8.643   0.966 -1.6701  0.3373 -0.9084
39391SOL     OW26950   3.586   6.291  10.538 -0.8067 -0.4801  0.0353
39391SOL    HW126951   3.606   6.235  10.612 -0.1604 -2.1112 -1.3222
39391SOL    HW226952   3.569   6.231  10.466  1.2905  1.0178 -1.8562
39392SOL     OW26953  11.662   3.602   3.807 -0.3711  0.0148 -0.4196
39392SOL    HW126954  11.614   3.650   3.874  0.9998  0.2123  0.4581
39392SOL    HW226955  11.600   3.594   3.734 -2.4837 -1.6487  1.4313
39393SOL     OW26956   6.381   0.920   0.909 -0.1159  0.9140  0.3686
39393SOL    HW126957   6.387   0.936   0.815  0.2450  1.2397  0.4437
39393SOL    HW226958   6.447   0.977   0.947 -0.6852  1.2473  0.8715
39394SOL     OW26959  11.865   3.042   0.248  0.5448 -0.3500  0.6092
39394SOL    HW126960  11.960   3.054   0.241  0.7588 -1.8373  0.7285
39394SOL    HW226961  11.852   2.948   0.240 -0.9982 -0.1025 -0.1457
39395SOL     OW26962  12.166   4.312   0.541  0.7643 -0.1183  0.1177
39395SOL    HW126963  12.140   4.308   0.450  0.0070 -0.6105  0.3480
39395SOL    HW226964  12.138   4.228   0.578 -2.0989  1.3299  1.6211
39396SOL     OW26965   6.396   5.831   1.050 -0.4050  0.3443 -0.4735
39396SOL    HW126966   6.331   5.897   1.027 -0.6665  0.4858  0.6148
39396SOL    HW226967   6.354   5.780   1.119  0.6931  0.5558  0.3784
39397SOL     OW26968   0.540   8.049   1.496 -0.5881 -0.3001 -0.1646
39397SOL    HW126969   0.589   8.067   1.416  0.2924 -0.6867  0.2711
39397SOL    HW226970   0.507   8.134   1.524 -0.2771 -0.0530 -0.5476
39398SOL     OW26971   1.037  10.411   1.735 -0.6948 -0.5819 -0.4256
39398SOL    HW126972   1.015  10.347   1.667  0.3831  0.4938 -1.8594
39398SOL    HW226973   0.999  10.376   1.815 -2.2197 -1.7953 -1.6215
39399SOL     OW26974   5.335  10.848   0.247 -0.0827 -0.2213  0.6082
39399SOL    HW126975   5.281  10.888   0.179 -0.6126 -0.2337  1.0185
39399SOL    HW226976   5.421  10.889   0.235 -0.1636 -0.2382 -0.0765
39400SOL     OW26977   3.256   1.751   1.749  0.1309 -0.2816  0.2009
39400SOL    HW126978   3.310   1.678   1.721 -1.2183 -1.5376  0.7250
39400SOL    HW226979   3.213   1.781   1.668  0.6151 -0.1118  0.0014
39401SOL     OW26980   0.413   7.385   7.744 -0.3243 -0.2802 -0.1233
39401SOL    HW126981   0.432   7.405   7.652  1.0231  0.7210  0.3360
39401SOL    HW226982   0.496   7.351   7.779 -1.6308 -3.7683 -0.0105
39402SOL     OW26983   6.476  11.992   8.534  0.2807 -0.4221 -0.3403
39402SOL    HW126984   6.489  11.960   8.445  0.8293 -1.3192  0.0497
39402SOL    HW226985   6.382  12.010   8.539  0.0949 -1.2179 -0.8267
39403SOL     OW26986   2.592  11.878   2.612  0.1826 -0.2090  0.2000
39403SOL    HW126987   2.657  11.897   2.680  1.0072 -0.0789 -0.5944
39403SOL    HW226988   2.643  11.835   2.543 -0.3564  0.8517 -0.8992
39404SOL     OW26989  12.056   4.425  11.127  0.2664 -0.2915 -0.0081
39404SOL    HW126990  11.998   4.484  11.078 -2.3155 -0.7511  2.2406
39404SOL    HW226991  12.143   4.444  11.093 -0.9656  1.6540 -2.4441
39405SOL     OW26992   4.611   7.533  12.347 -0.3642 -0.2306  0.1180
39405SOL    HW126993   4.636   7.457  12.295 -2.7044 -0.9013 -0.1407
39405SOL    HW226994   4.604   7.604  12.283  0.4273 -0.1294  0.1359
39406SOL     OW26995   0.452   6.552   6.087  0.3369 -0.6354  0.2837
39406SOL    HW126996   0.374   6.524   6.135  0.0127 -0.7588 -0.2999
39406SOL    HW226997   0.445   6.648   6.085 -1.0828 -0.7041 -1.7878
39407SOL     OW26998   4.330  11.851   2.976  0.3788  0.0901  0.3421
39407SOL    HW126999   4.425  11.851   2.964  0.1921 -2.3508 -2.1085
39407SOL    HW227000   4.297  11.908   2.907  0.0123 -0.8523 -0.2872
39408SOL     OW27001   6.667   6.966   2.921  0.0450  0.4578  0.0909
39408SOL    HW127002   6.598   7.022   2.886 -0.3329  1.3254  2.1009
39408SOL    HW227003   6.628   6.879   2.923  0.2244  0.2659 -1.9162
39409SOL     OW27004   3.486   9.478   6.876  0.0171 -0.7249  0.3688
39409SOL    HW127005   3.443   9.490   6.791  0.7397 -0.0486  0.0841
39409SOL    HW227006   3.486   9.566   6.915  1.5256 -0.6197  0.1638
39410SOL     OW27007   6.838  12.346   4.308 -0.1135  0.1731  0.0305
39410SOL    HW127008   6.876  12.353   4.221 -0.4146  1.3005 -0.0277
39410SOL    HW227009   6.764  12.287   4.297 -2.2637  2.8926 -1.2748
39411SOL     OW27010   9.459   7.313  11.227  0.0423  0.4619  0.0787
39411SOL    HW127011   9.384   7.323  11.285 -0.4131 -1.5409 -0.1026
39411SOL    HW227012   9.533   7.295  11.284 -0.2415 -0.6555  0.1165
39412SOL     OW27013   1.740  12.177   8.726  0.2414 -0.0064 -0.4165
39412SOL    HW127014   1.832  12.177   8.701  1.1449 -2.1385  2.3991
39412SOL    HW227015   1.715  12.085   8.725 -1.2843  0.3564  0.7622
39413SOL     OW27016   8.729   4.960   0.221 -0.3510 -0.0932  0.0909
39413SOL    HW127017   8.775   4.993   0.298  0.6033  0.9632 -0.8762
39413SOL    HW227018   8.640   4.994   0.229  0.0976  1.1358  0.0910
39414SOL     OW27019   9.872   6.366  10.461  0.4026 -0.2589  0.1520
39414SOL    HW127020   9.829   6.451  10.451  0.0587 -0.2772  1.3381
39414SOL    HW227021   9.934   6.379  10.533 -0.5912 -1.3510  1.2416
39415SOL     OW27022   2.908   4.526   7.587 -0.2587 -0.1605  0.0991
39415SOL    HW127023   2.842   4.526   7.517  0.5181  0.8608 -0.6670
39415SOL    HW227024   2.859   4.544   7.667 -1.2571 -1.9232 -0.0532
39416SOL     OW27025  10.205   5.998   5.670  0.2430 -0.4896  0.0104
39416SOL    HW127026  10.229   5.910   5.642  1.3110 -0.1128 -0.3023
39416SOL    HW227027  10.278   6.053   5.641 -0.2899  0.4583  0.4279
39417SOL     OW27028   2.582   0.313   5.461 -0.0927  0.7990 -0.3036
39417SOL    HW127029   2.497   0.332   5.423  0.6004 -0.2462 -2.5353
39417SOL    HW227030   2.563   0.256   5.535 -1.3760  1.1459 -0.3466
39418SOL     OW27031   9.664   5.514   8.639  0.7031  0.6686  0.1001
39418SOL    HW127032   9.752   5.486   8.616  0.7380  0.3279  0.6288
39418SOL    HW227033   9.664   5.516   8.735  0.2088  0.8877  0.0957
39419SOL     OW27034   0.365   5.983   8.412 -0.4818  0.4125 -0.4112
39419SOL    HW127035   0.415   6.013   8.337  0.4808  0.0664  0.0807
39419SOL    HW227036   0.399   6.033   8.486  1.0126 -1.6367  0.3913
39420SOL     OW27037  12.086   0.275   2.855 -0.3865 -0.0026  0.0551
39420SOL    HW127038  12.116   0.365   2.843 -0.6002 -0.0426 -0.9627
39420SOL    HW227039  12.163   0.227   2.882 -0.2087  0.4441  0.3466
39421SOL     OW27040   6.457   5.122   9.502  0.5631 -0.6330  0.3220
39421SOL    HW127041   6.363   5.141   9.501  0.5712 -0.5839 -0.4361
39421SOL    HW227042   6.470   5.069   9.580 -0.2061 -1.1552  0.1098
39422SOL     OW27043   0.922   4.685   5.463 -0.4576 -0.2704 -0.0036
39422SOL    HW127044   0.842   4.737   5.470 -0.8851 -1.0246  0.8752
39422SOL    HW227045   0.988   4.748   5.434 -1.4887  0.2288 -1.4097
39423SOL     OW27046  11.525  12.228  11.257 -0.4053 -0.2424  0.1266
39423SOL    HW127047  11.443  12.200  11.298 -0.8116  0.5102 -0.1563
39423SOL    HW227048  11.570  12.277  11.326 -1.0482  0.9465 -0.2801
39424SOL     OW27049   3.220   0.163  11.989 -0.0971 -0.1639  0.1683
39424SOL    HW127050   3.238   0.072  11.965 -0.4132 -0.0226 -0.6152
39424SOL    HW227051   3.307   0.201  12.004  0.1673 -0.0935 -1.3802
39425SOL     OW27052   3.723   3.334   1.228 -0.4401 -0.6663  0.2082
39425SOL    HW127053   3.709   3.349   1.322  0.4646  1.0690  0.1058
39425SOL    HW227054   3.817   3.321   1.219 -0.3999  0.0652 -0.5513
39426SOL     OW27055   3.918  12.397   7.619  0.0192  0.3861 -0.0871
39426SOL    HW127056   3.853  12.348   7.669 -0.3792  1.1025  0.1013
39426SOL    HW227057   3.913  12.486   7.653  0.7127  0.5730 -0.4562
39427SOL     OW27058   2.298  10.984   5.363 -0.0487  0.4049  0.2331
39427SOL    HW127059   2.386  11.021   5.366 -0.0469  0.4003  0.2302
39427SOL    HW227060   2.245  11.051   5.321  0.1901 -0.0891 -0.8842
39428SOL     OW27061  12.222   7.910   2.631 -0.6272 -0.5591  0.1571
39428SOL    HW127062  12.274   7.854   2.574  0.3165  0.9886 -0.5604
39428SOL    HW227063  12.166   7.849   2.679  0.6570 -2.1460 -0.2545
39429SOL     OW27064   3.456   7.694   1.554 -0.1547 -0.9277 -0.3416
39429SOL    HW127065   3.361   7.706   1.561 -0.1729 -1.4281  0.2928
39429SOL    HW227066   3.485   7.675   1.643  0.8059  1.0060 -0.1843
39430SOL     OW27067   6.919   6.342  11.172  0.4725 -0.0301  0.2327
39430SOL    HW127068   6.873   6.317  11.093  2.3077 -0.6115 -0.7150
39430SOL    HW227069   6.852   6.381  11.228 -1.4891 -2.4378 -0.2987
39431SOL     OW27070   4.410  11.333   1.390 -0.4770  0.3570  0.0926
39431SOL    HW127071   4.407  11.425   1.363  1.0085  0.8185  1.3308
39431SOL    HW227072   4.318  11.307   1.397 -0.9221  1.7099 -0.3962
39432SOL     OW27073   1.476   7.292  12.385 -0.1861 -0.2686  0.2407
39432SOL    HW127074   1.403   7.346  12.416 -0.8384 -0.5193 -0.8225
39432SOL    HW227075   1.551   7.321  12.437 -0.8636  0.5661  0.7750
39433SOL     OW27076   2.067   1.985   7.123 -0.0992 -0.6402 -0.4542
39433SOL    HW127077   2.152   1.963   7.162  0.3594  1.4794 -0.1489
39433SOL    HW227078   2.071   2.080   7.108 -1.4183 -0.8812 -2.8993
39434SOL     OW27079   0.997   9.049   0.143  0.0223 -0.0252 -0.0496
39434SOL    HW127080   1.070   9.047   0.205  0.2356  0.2073 -0.2906
39434SOL    HW227081   0.931   8.992   0.182  0.2082  0.0116  0.3248
39435SOL     OW27082  10.250   5.662  10.295  0.0187 -0.1011  0.0612
39435SOL    HW127083  10.196   5.612  10.233  1.1826  0.4287 -1.4515
39435SOL    HW227084  10.335   5.618  10.293  0.3644  0.5307  0.5187
39436SOL     OW27085   3.410   2.386   5.351 -0.5661 -0.2867 -0.9953
39436SOL    HW127086   3.458   2.393   5.433 -0.5257  1.0217 -1.1146
39436SOL    HW227087   3.453   2.314   5.304  0.3996 -0.0259 -0.5271
39437SOL     OW27088   5.284  10.944   4.521 -0.7025  0.0655  0.7015
39437SOL    HW127089   5.257  10.858   4.551  1.1813 -1.4861 -1.6227
39437SOL    HW227090   5.205  10.982   4.482 -1.4439 -0.8254  1.3048
39438SOL     OW27091   8.669   7.368  12.311 -0.2715 -0.5742  0.2822
39438SOL    HW127092   8.633   7.356  12.224 -0.2490  1.2447 -0.0169
39438SOL    HW227093   8.710   7.284  12.333 -1.1078 -1.3484 -1.0464
39439SOL     OW27094   2.363   9.652   5.469  0.1704 -0.1324  0.1687
39439SOL    HW127095   2.315   9.728   5.501  0.4435  0.3810 -0.6323
39439SOL    HW227096   2.390   9.675   5.380  0.7051 -0.9551  0.1015
39440SOL     OW27097  11.184   4.966   0.749  0.1162  0.3768 -0.3261
39440SOL    HW127098  11.133   4.910   0.809  1.7261 -1.0271 -0.2047
39440SOL    HW227099  11.227   4.905   0.690  0.3806  1.6359 -1.4766
39441SOL     OW27100   9.528   9.600   1.768 -0.1618  0.3848  0.2101
39441SOL    HW127101   9.437   9.621   1.792 -0.3350 -0.9193  0.7529
39441SOL    HW227102   9.553   9.529   1.827  0.3307 -1.0403 -1.6374
39442SOL     OW27103   8.953   2.918   4.998 -0.3197  0.0226  0.0731
39442SOL    HW127104   8.880   2.979   5.003 -0.2393  0.0989  0.3348
39442SOL    HW227105   9.031   2.972   5.010 -0.2538 -0.1423  0.4282
39443SOL     OW27106   2.177   0.144   3.995 -0.3347 -0.1790 -0.0587
39443SOL    HW127107   2.213   0.225   4.030  0.5295 -0.5262 -0.1140
39443SOL    HW227108   2.106   0.121   4.054 -1.3553  1.2174 -0.6911
39444SOL     OW27109   3.048   2.475   0.136  0.8227  0.1010 -0.0476
39444SOL    HW127110   3.003   2.483   0.221 -1.7063  1.3053 -1.3843
39444SOL    HW227111   3.059   2.381   0.124 -0.0109 -0.1651  1.0289
39445SOL     OW27112  12.143   3.473   9.665 -0.2876  0.3321  0.1174
39445SOL    HW127113  12.189   3.535   9.723  0.3902  1.5632 -1.6575
39445SOL    HW227114  12.063   3.520   9.639  0.3478  0.6076 -1.4345
39446SOL     OW27115   2.427  10.877  11.069  0.1103 -1.0336  0.7349
39446SOL    HW127116   2.445  10.940  11.139  1.0741 -2.2104  1.5739
39446SOL    HW227117   2.423  10.792  11.113 -0.8951 -1.6115 -0.4152
39447SOL     OW27118   4.101   2.131  10.376  0.2085  0.0086  0.3390
39447SOL    HW127119   4.078   2.139  10.283 -0.6891  0.9703  0.6297
39447SOL    HW227120   4.196   2.142  10.378  0.0022  2.2804 -0.2393
39448SOL     OW27121   0.012   0.687   7.298 -0.1478  0.2575  0.1528
39448SOL    HW127122  -0.075   0.716   7.324 -0.9827 -0.9673 -1.2044
39448SOL    HW227123   0.031   0.735   7.217  0.1835  0.0637  0.1123
39449SOL     OW27124   1.978   6.801  11.902 -0.1091  0.1704  0.1375
39449SOL    HW127125   2.033   6.842  11.968  0.5916  0.6970 -0.7420
39449SOL    HW227126   1.965   6.712  11.933  0.6159  0.2667  0.7423
39450SOL     OW27127   4.000  12.459  11.181  0.1473 -0.5048  0.0635
39450SOL    HW127128   4.094  12.459  11.199  0.3911  0.4584 -1.0422
39450SOL    HW227129   3.987  12.383  11.124  0.5729  0.2587 -1.1004
39451SOL     OW27130   9.591   2.552   0.895  0.2176  0.1304 -0.0308
39451SOL    HW127131   9.558   2.573   0.808 -0.9905  0.3289  0.4583
39451SOL    HW227132   9.568   2.628   0.948  0.3362 -0.2827  0.6178
39452SOL     OW27133   1.370  11.534   5.073  0.4049 -0.1659 -0.1243
39452SOL    HW127134   1.390  11.441   5.063  1.0082  0.0070 -0.5970
39452SOL    HW227135   1.278  11.541   5.050 -0.0646 -0.8708  1.3732
39453SOL     OW27136  11.924   9.955   4.638 -0.2947 -0.2324  0.5633
39453SOL    HW127137  11.946  10.046   4.658 -1.3795  0.2230 -0.1856
39453SOL    HW227138  11.868   9.961   4.560 -0.9443 -1.4799  0.9054
39454SOL     OW27139   2.134   2.541   2.935  0.2506 -0.4407 -0.5786
39454SOL    HW127140   2.187   2.462   2.947  0.2077 -0.3864 -0.0191
39454SOL    HW227141   2.083   2.523   2.856 -0.4602 -1.3736  0.0630
39455SOL     OW27142  12.327   6.822   5.817 -0.0173  0.0712 -0.4507
39455SOL    HW127143  12.279   6.896   5.854  1.2939  0.8623 -0.2663
39455SOL    HW227144  12.260   6.756   5.799 -1.2486  1.3947 -0.8676
39456SOL     OW27145   7.611   5.695   8.548 -0.6436 -0.3104  0.0418
39456SOL    HW127146   7.595   5.762   8.482  0.4355 -1.6279 -1.6298
39456SOL    HW227147   7.583   5.613   8.507  0.0530 -1.1747  1.2075
39457SOL     OW27148   3.576   8.333   9.816  0.3454 -0.2528  0.2274
39457SOL    HW127149   3.508   8.388   9.777  0.4652 -1.1098 -1.2684
39457SOL    HW227150   3.532   8.287   9.887 -0.0443  0.8756  0.7484
39458SOL     OW27151   6.127   5.750  10.650 -0.8496  0.0608 -0.0216
39458SOL    HW127152   6.200   5.721  10.596 -1.3981  0.4784 -1.0192
39458SOL    HW227153   6.057   5.687  10.632 -0.9105 -0.0247  0.5066
39459SOL     OW27154   8.525   7.531   1.319  0.2278  0.1307  0.3017
39459SOL    HW127155   8.466   7.462   1.348 -0.2945  0.3790 -0.1488
39459SOL    HW227156   8.604   7.485   1.290  1.0996 -0.0817  2.7787
39460SOL     OW27157  10.537  10.847   4.359 -0.2127 -0.0451 -0.2654
39460SOL    HW127158  10.602  10.802   4.305 -0.0774 -0.4774  0.2490
39460SOL    HW227159  10.490  10.903   4.297  0.5337  0.1472 -0.6749
39461SOL     OW27160   3.892  10.450   2.969  0.3924  0.1582  0.0694
39461SOL    HW127161   3.863  10.444   2.878  1.4897 -0.7090 -0.2327
39461SOL    HW227162   3.956  10.380   2.980  1.0877  0.9263  1.2091
39462SOL     OW27163   1.039   2.549   4.508 -0.3243 -0.1045  0.3537
39462SOL    HW127164   1.032   2.481   4.575  0.8399 -0.3372  0.2552
39462SOL    HW227165   1.033   2.501   4.425  1.3429 -0.2201  0.2708
39463SOL     OW27166   3.588  10.074  10.295 -0.4729  0.7845 -0.6486
39463SOL    HW127167   3.532  10.138  10.338  1.2281  2.0955 -0.2829
39463SOL    HW227168   3.637  10.125  10.230  1.0117 -0.1148 -0.2712
39464SOL     OW27169  11.387   8.000   0.282 -0.7041 -0.4170 -0.5531
39464SOL    HW127170  11.359   7.915   0.246  3.4503 -1.1203 -2.8583
39464SOL    HW227171  11.390   8.058   0.206  1.3698  0.2363 -0.0287
39465SOL     OW27172   3.421   7.811  12.083  0.7307  0.0246 -0.4565
39465SOL    HW127173   3.496   7.827  12.026  0.3697  0.6633 -0.7632
39465SOL    HW227174   3.402   7.718  12.070  2.2447 -0.4745  0.6079
39466SOL     OW27175   0.319   2.225  10.122 -0.4461  0.2563  0.2987
39466SOL    HW127176   0.374   2.182  10.188  0.0265  0.0281 -0.2388
39466SOL    HW227177   0.322   2.167  10.046  1.8813  2.1566 -1.2114
39467SOL     OW27178   5.914   9.366   2.444 -0.0788 -0.4716 -0.3073
39467SOL    HW127179   5.955   9.349   2.529 -2.0200 -1.2332  0.5196
39467SOL    HW227180   5.821   9.374   2.463 -0.6596 -1.4298 -2.4624
39468SOL     OW27181   7.281   8.760   7.230  0.4031  0.0309 -0.3040
39468SOL    HW127182   7.359   8.705   7.230 -0.4415 -1.2611  0.8868
39468SOL    HW227183   7.274   8.793   7.141  0.8422 -1.9887 -1.1376
39469SOL     OW27184   9.950   8.648   5.273  0.6228 -0.0746 -0.0917
39469SOL    HW127185   9.987   8.725   5.315 -0.4640 -0.2224  1.1918
39469SOL    HW227186   9.975   8.657   5.181 -2.2500  3.6049 -0.7498
39470SOL     OW27187   1.260   1.969   3.306 -0.1582  0.5499 -0.2612
39470SOL    HW127188   1.325   1.903   3.280  0.4734  1.2503 -0.5136
39470SOL    HW227189   1.270   2.038   3.241  0.1430  1.5025  0.7697
39471SOL     OW27190  10.380   3.932  10.226  0.0265 -0.1040  0.1746
39471SOL    HW127191  10.314   3.977  10.279 -1.0913 -0.4957 -0.8238
39471SOL    HW227192  10.457   3.927  10.282 -0.5699  0.9898  1.1280
39472SOL     OW27193   4.968   5.551  11.174  0.1406 -0.3136 -0.0410
39472SOL    HW127194   5.040   5.521  11.119 -0.4281  0.1642 -1.0737
39472SOL    HW227195   4.976   5.498  11.254 -0.0356 -2.2844 -1.2475
39473SOL     OW27196   2.027  10.606   7.301  0.4588 -0.6056 -0.5812
39473SOL    HW127197   1.965  10.589   7.229  2.1845 -2.1758 -1.7974
39473SOL    HW227198   1.983  10.571   7.379 -0.6554 -0.6329 -1.2041
39474SOL     OW27199   8.934   9.157   0.592 -0.2098 -0.0736  0.1041
39474SOL    HW127200   8.946   9.112   0.675 -1.8870 -0.3202  0.2278
39474SOL    HW227201   8.942   9.089   0.526  1.4912  0.1782 -0.0160
39475SOL     OW27202   8.334   5.521  12.145  0.4579 -0.4678 -0.4662
39475SOL    HW127203   8.407   5.478  12.189  2.0134  2.3601 -0.0154
39475SOL    HW227204   8.261   5.514  12.206  1.3446 -0.4465  0.6370
39476SOL     OW27205   4.721  10.273  11.519 -0.0861 -0.1106 -1.1249
39476SOL    HW127206   4.746  10.220  11.595  0.6903 -0.0645 -1.3437
39476SOL    HW227207   4.749  10.220  11.444 -1.0207 -0.2434 -1.3866
39477SOL     OW27208   6.570   7.727   0.869 -0.5971 -0.0742 -0.6133
39477SOL    HW127209   6.548   7.642   0.908 -4.0282  0.9550  0.0743
39477SOL    HW227210   6.588   7.784   0.943 -2.0219  0.6512 -0.7939
39478SOL     OW27211  12.564   5.860   5.964  0.1269 -0.1368 -0.1574
39478SOL    HW127212  12.601   5.814   6.039 -0.8242  0.4819  0.7237
39478SOL    HW227213  12.471   5.838   5.966  0.1066 -0.2132 -1.2364
39479SOL     OW27214   2.653   5.421   6.126 -0.3066  0.5898  0.2228
39479SOL    HW127215   2.715   5.372   6.180 -0.4383  0.3292  0.1414
39479SOL    HW227216   2.636   5.363   6.051  0.4182  1.2339 -0.4725
39480SOL     OW27217   5.361   2.896   4.888  0.3001  0.1583  0.6829
39480SOL    HW127218   5.451   2.929   4.885 -0.2550  1.8127  0.8456
39480SOL    HW227219   5.337   2.883   4.797  0.6292 -0.0468  0.6265
39481SOL     OW27220  11.288  12.394   1.559 -0.2851  0.6422  0.0399
39481SOL    HW127221  11.208  12.343   1.567  0.6762 -0.7120  1.6699
39481SOL    HW227222  11.264  12.482   1.589 -1.3909  0.5374 -0.4901
39482SOL     OW27223   3.923   2.299   9.906  0.1744 -0.2095 -0.0498
39482SOL    HW127224   3.931   2.313   9.812  2.7268  0.5714  0.2024
39482SOL    HW227225   3.949   2.382   9.946 -2.3857 -0.0085  1.3866
39483SOL     OW27226   6.181   2.397  10.816  0.7996  0.1998  0.0358
39483SOL    HW127227   6.170   2.380  10.723  0.6637 -1.1357  0.2655
39483SOL    HW227228   6.115   2.463  10.837  0.4606  0.1035 -0.7023
39484SOL     OW27229   8.248   2.525   6.648  0.0369  0.4356  0.1849
39484SOL    HW127230   8.255   2.430   6.633  1.8841  0.6197 -0.3468
39484SOL    HW227231   8.260   2.535   6.742  1.0264  0.2168  0.0908
39485SOL     OW27232   7.980   0.576   5.701  0.1692  0.1932  0.0052
39485SOL    HW127233   8.056   0.592   5.757  0.6692  2.0101 -1.0977
39485SOL    HW227234   8.011   0.513   5.636  0.0684 -0.6654  0.7584
39486SOL     OW27235   1.987   0.997   7.070  0.1743 -0.4340  0.0354
39486SOL    HW127236   1.961   0.926   7.130 -1.5056  0.0665 -0.0263
39486SOL    HW227237   2.059   0.961   7.019 -1.1441 -2.4437 -0.5499
39487SOL     OW27238   6.234  11.973   3.663  0.3426  0.2313 -0.1326
39487SOL    HW127239   6.192  11.891   3.689  0.8586 -0.1893 -0.5890
39487SOL    HW227240   6.210  12.035   3.732  1.1113 -0.6737  0.9934
39488SOL     OW27241   5.381   3.107   9.067 -0.5008  0.3095  0.5206
39488SOL    HW127242   5.448   3.172   9.047  0.1297 -0.6951 -0.8340
39488SOL    HW227243   5.329   3.146   9.137 -0.0120  2.1576 -0.1011
39489SOL     OW27244   3.755   3.744   6.041  0.6892 -0.4870 -0.1259
39489SOL    HW127245   3.763   3.808   5.971 -1.8995 -1.2725 -1.2839
39489SOL    HW227246   3.690   3.781   6.100  1.3164 -0.7718  0.7651
39490SOL     OW27247   7.355   4.059   7.549  0.1541  0.4816 -0.0338
39490SOL    HW127248   7.424   4.083   7.488 -0.0667  0.0006 -0.4888
39490SOL    HW227249   7.340   3.966   7.533 -2.5234  1.1014 -1.9975
39491SOL     OW27250   2.508   2.474   1.760  0.0006 -0.0374 -0.2881
39491SOL    HW127251   2.592   2.516   1.780  0.1979  0.3619 -1.8132
39491SOL    HW227252   2.443   2.527   1.807  0.5720 -0.1410  0.6248
39492SOL     OW27253   6.448   9.015  11.562  0.0773 -0.2805  0.1108
39492SOL    HW127254   6.446   9.061  11.646 -0.4658  3.9683 -1.9450
39492SOL    HW227255   6.541   8.997  11.546  0.1740 -1.2827  1.5947
39493SOL     OW27256   5.961   3.468   4.749 -0.1115 -0.4911 -0.1620
39493SOL    HW127257   6.006   3.387   4.723  0.7043  0.6057 -2.4147
39493SOL    HW227258   5.939   3.511   4.666 -0.8562  1.4256  0.9709
39494SOL     OW27259   3.903   5.247   1.634 -0.3253  0.3242 -0.0190
39494SOL    HW127260   3.951   5.325   1.661 -0.0610 -0.8367  3.2338
39494SOL    HW227261   3.959   5.206   1.568  1.9270  0.3925  1.7574
39495SOL     OW27262   2.678  12.326  11.255 -0.1197  0.2608  0.4207
39495SOL    HW127263   2.676  12.235  11.224  1.4464 -0.1904  1.5039
39495SOL    HW227264   2.690  12.318  11.349 -0.7826  1.6143  0.6379
39496SOL     OW27265   7.213   6.800   3.002  0.0258  0.4144  0.2218
39496SOL    HW127266   7.257   6.722   2.967 -0.8282 -0.1447  0.3569
39496SOL    HW227267   7.282   6.850   3.045  1.1059  1.0901 -2.1433
39497SOL     OW27268   9.803   0.771  11.045  0.4303  0.0624  0.5460
39497SOL    HW127269   9.850   0.851  11.020 -1.1743  1.0117  0.3878
39497SOL    HW227270   9.711   0.798  11.050  0.0847 -1.2368  2.6891
39498SOL     OW27271   3.538   9.839   6.577  0.0487  0.4121  0.0090
39498SOL    HW127272   3.634   9.832   6.576 -0.0364 -1.3164  0.5979
39498SOL    HW227273   3.513   9.832   6.485  0.5025  1.4905 -0.2146
39499SOL     OW27274   3.607   5.004   4.755  0.3986 -0.1536  0.0859
39499SOL    HW127275   3.524   4.987   4.710  0.9485 -0.3774 -0.8725
39499SOL    HW227276   3.606   4.945   4.830 -0.9117  0.8291  0.8749
39500SOL     OW27277   2.663   1.634   9.668  0.1807  0.3106  0.0040
39500SOL    HW127278   2.622   1.656   9.751 -0.2713 -2.8697  0.7410
39500SOL    HW227279   2.619   1.690   9.604 -1.9412  0.3910  1.4346
39501SOL     OW27280   7.298   9.492   3.773  0.5546 -0.1757  0.2431
39501SOL    HW127281   7.369   9.460   3.717 -0.6402 -0.2368 -1.3172
39501SOL    HW227282   7.221   9.491   3.716 -0.3515  1.5431  1.3719
39502SOL     OW27283   4.547   1.326   0.502 -0.1074 -0.1279 -0.8684
39502SOL    HW127284   4.546   1.400   0.441 -1.0596 -0.9940 -1.9510
39502SOL    HW227285   4.495   1.259   0.459  1.2558 -1.6797 -0.2147
39503SOL     OW27286   5.286  11.819   2.765 -0.3139 -0.0912  0.0097
39503SOL    HW127287   5.204  11.868   2.755  0.6583  1.1713 -2.9905
39503SOL    HW227288   5.323  11.852   2.847 -1.9825  0.5704  0.5489
39504SOL     OW27289   7.500   8.955   1.117  0.5923 -0.0827  0.0898
39504SOL    HW127290   7.554   9.022   1.075 -0.0676  1.0637  1.0028
39504SOL    HW227291   7.414   8.997   1.127  0.1117 -1.1368  0.5304
39505SOL     OW27292  11.644   0.941  10.922 -0.0829 -0.3154  0.5401
39505SOL    HW127293  11.702   0.889  10.865  0.8500  0.6301  0.5938
39505SOL    HW227294  11.697   0.962  10.998  0.2045  2.1519 -0.2285
39506SOL     OW27295   8.951   5.548   1.463  0.2266  0.4692  0.2749
39506SOL    HW127296   8.914   5.470   1.422  0.6762 -0.1963  1.0843
39506SOL    HW227297   9.044   5.547   1.438 -0.1860  1.9673 -1.5019
39507SOL     OW27298   3.054   0.159  11.662 -0.3174 -0.1260 -0.7056
39507SOL    HW127299   3.136   0.209  11.673 -0.2918 -0.4018  0.4497
39507SOL    HW227300   3.082   0.076  11.624 -0.0069 -0.3689  0.0397
39508SOL     OW27301   7.230   1.534   0.184 -0.1150  0.1775  0.8202
39508SOL    HW127302   7.298   1.482   0.228  0.1441 -0.1878  0.0069
39508SOL    HW227303   7.223   1.614   0.236 -0.1174 -0.4204  1.7711
39509SOL     OW27304   1.997   4.417   8.657  0.1776  0.1212  0.0364
39509SOL    HW127305   2.013   4.509   8.676  0.3008  0.0592  0.2333
39509SOL    HW227306   1.924   4.393   8.714  1.3017 -0.3759  1.3345
39510SOL     OW27307   9.820   8.994   2.682  0.2531 -0.2702  0.1199
39510SOL    HW127308   9.780   8.911   2.655 -0.0140 -0.2879  0.5641
39510SOL    HW227309   9.837   9.040   2.600 -1.7796  0.2600 -0.0553
39511SOL     OW27310  12.551   9.482   9.261 -0.5421  0.1309 -0.2040
39511SOL    HW127311  12.495   9.491   9.184 -0.8835 -1.1758 -0.1291
39511SOL    HW227312  12.525   9.554   9.318 -2.2200 -0.4959 -0.1306
39512SOL     OW27313   6.856   5.538  11.101 -0.3650  0.1134  0.4571
39512SOL    HW127314   6.770   5.572  11.079  0.1456  1.1696  0.0067
39512SOL    HW227315   6.896   5.516  11.017  0.4874  1.3875  0.4998
39513SOL     OW27316   1.148   9.965   1.335 -0.3319 -0.5830  0.0272
39513SOL    HW127317   1.209   9.936   1.267  0.5919  0.5358  0.3517
39513SOL    HW227318   1.070   9.910   1.321  0.0069 -0.7179 -1.6229
39514SOL     OW27319  10.282   3.361   7.733 -0.0502 -0.3941 -1.2545
39514SOL    HW127320  10.346   3.300   7.771 -0.0509 -0.1692 -0.8797
39514SOL    HW227321  10.281   3.434   7.795 -1.2236 -0.7239 -0.8590
39515SOL     OW27322   2.280   7.105   3.620  0.0731  0.2678 -0.4347
39515SOL    HW127323   2.325   7.188   3.604  2.0624 -0.9860 -1.6647
39515SOL    HW227324   2.342   7.053   3.670 -1.2633 -0.4324  0.5803
39516SOL     OW27325   2.924   3.109  11.889 -0.0278 -0.0504  0.0799
39516SOL    HW127326   2.842   3.059  11.888  0.7518 -1.3687 -0.1523
39516SOL    HW227327   2.928   3.151  11.803  0.4604 -1.5636 -0.6652
39517SOL     OW27328   8.562   2.002  11.188  0.0618  0.5674 -0.2384
39517SOL    HW127329   8.648   1.987  11.225 -0.0717 -0.6393 -0.3911
39517SOL    HW227330   8.507   2.025  11.263  0.6049  1.8525 -0.2070
39518SOL     OW27331   8.241   7.772   0.655  0.0164  0.1560  0.4086
39518SOL    HW127332   8.162   7.785   0.707  0.1404 -1.0485  0.9247
39518SOL    HW227333   8.216   7.708   0.589 -0.1288  1.6397 -1.0467
39519SOL     OW27334   3.315   5.023   4.391  0.5696  0.3055  0.0915
39519SOL    HW127335   3.397   5.012   4.438 -0.4150  0.4919  1.9207
39519SOL    HW227336   3.288   5.112   4.410 -0.5750 -0.0888  0.3981
39520SOL     OW27337   4.788   9.807   7.903  0.1486  0.9172 -0.2735
39520SOL    HW127338   4.851   9.736   7.913  0.1839  1.1417  1.4881
39520SOL    HW227339   4.709   9.764   7.869  0.3549  0.1268  0.2102
39521SOL     OW27340  10.106  11.785   0.323 -0.2714 -0.0272  0.1434
39521SOL    HW127341  10.131  11.861   0.375  0.7380 -0.5824  0.4966
39521SOL    HW227342  10.016  11.766   0.349 -0.2449  0.5403  0.6614
39522SOL     OW27343  10.415   6.927   5.668  0.0851 -0.1008 -0.4165
39522SOL    HW127344  10.502   6.890   5.658  0.1411 -0.5812  1.4890
39522SOL    HW227345  10.359   6.873   5.612  1.1641  1.0899 -2.8041
39523SOL     OW27346  10.317   1.271   8.492 -0.5924 -0.0525  0.0448
39523SOL    HW127347  10.272   1.352   8.513  0.7619  0.2117  2.1562
39523SOL    HW227348  10.393   1.298   8.441  0.8806  0.2943  2.2917
39524SOL     OW27349  11.761   6.993   5.638 -0.3798  0.6842  0.3119
39524SOL    HW127350  11.751   6.991   5.543 -2.0578  1.1228  0.4406
39524SOL    HW227351  11.693   7.054   5.668  1.2706  1.9616  1.6710
39525SOL     OW27352   2.189   4.188   8.685  0.1041  0.1964 -0.0120
39525SOL    HW127353   2.153   4.273   8.659  1.0691  0.4048 -0.7523
39525SOL    HW227354   2.254   4.169   8.617  0.0799 -1.0128  0.2919
39526SOL     OW27355   0.738   3.362   1.731  0.0141  0.0031  0.1841
39526SOL    HW127356   0.717   3.284   1.679  0.1487 -0.0210  0.1657
39526SOL    HW227357   0.653   3.403   1.748  0.0760  0.9353 -1.4897
39527SOL     OW27358   7.058   4.745   4.330  0.2434  0.4780 -0.0165
39527SOL    HW127359   7.153   4.744   4.319  0.3319 -2.0977  0.3072
39527SOL    HW227360   7.024   4.749   4.240  0.7720 -2.4284 -0.4454
39528SOL     OW27361   4.783   7.630  11.080  0.0689 -0.0615 -0.0557
39528SOL    HW127362   4.755   7.658  11.167 -0.2911 -0.4080 -0.0544
39528SOL    HW227363   4.761   7.537  11.077  0.2379 -0.0892 -0.4529
39529SOL     OW27364   7.780   6.299   8.577  0.0571  0.0866  0.1859
39529SOL    HW127365   7.763   6.204   8.571  0.7322  0.0022 -0.5213
39529SOL    HW227366   7.703   6.339   8.537  0.5073 -0.2237 -1.0221
39530SOL     OW27367  10.733   5.963   4.662  0.5210  0.0701  0.0969
39530SOL    HW127368  10.802   6.024   4.690  1.6101 -0.1816 -1.8640
39530SOL    HW227369  10.749   5.885   4.715  0.6123  0.6235  0.9178
39531SOL     OW27370   5.546   3.338   0.594  0.0771 -0.0505  0.1544
39531SOL    HW127371   5.524   3.334   0.501  1.2794  1.6858 -0.2517
39531SOL    HW227372   5.613   3.270   0.606 -0.6852 -0.8548 -0.0307
39532SOL     OW27373  11.983  10.842   0.764 -0.0446  0.3673  0.2834
39532SOL    HW127374  11.930  10.823   0.842  2.6900 -2.1155  1.7110
39532SOL    HW227375  12.046  10.908   0.793  0.2762  0.2600 -0.1614
39533SOL     OW27376   3.038   8.853  12.436  0.2915  0.0793 -0.2430
39533SOL    HW127377   3.122   8.871  12.479  0.0711 -0.8241  0.6168
39533SOL    HW227378   2.982   8.822  12.507 -0.4015 -0.4734 -1.0158
39534SOL     OW27379   8.777   6.811   7.309  0.2034  0.2058  0.1544
39534SOL    HW127380   8.717   6.746   7.272 -1.2962  0.2980  2.2411
39534SOL    HW227381   8.794   6.781   7.398  3.2466  0.2626 -0.2993
39535SOL     OW27382   7.867  11.273   1.978 -0.0791 -0.1964 -0.4917
39535SOL    HW127383   7.880  11.196   1.924  0.1952 -0.6937  0.2743
39535SOL    HW227384   7.798  11.323   1.933 -0.1673 -0.8209 -1.0510
39536SOL     OW27385   1.368   9.440   8.578 -0.0451 -0.3762  0.0070
39536SOL    HW127386   1.460   9.423   8.554 -0.3767 -2.3547 -0.0642
39536SOL    HW227387   1.318   9.396   8.509 -1.0635  0.6130  0.0976
39537SOL     OW27388  10.731   5.976   2.922  0.0637 -0.0823 -0.2196
39537SOL    HW127389  10.708   6.060   2.961  3.6249  0.1098  1.8178
39537SOL    HW227390  10.745   5.995   2.829  0.1221  1.3916  0.0696
39538SOL     OW27391   7.799  10.348   4.257 -0.1198  0.6995 -0.5514
39538SOL    HW127392   7.877  10.356   4.312 -0.4762  0.4189 -0.0028
39538SOL    HW227393   7.725  10.358   4.317 -0.5892 -2.5293 -0.4199
39539SOL     OW27394  10.802   6.802  10.580  0.3245  0.3035  0.2710
39539SOL    HW127395  10.824   6.881  10.629  0.1669  0.4657  0.0811
39539SOL    HW227396  10.857   6.807  10.502  0.1304  0.3516  0.1387
39540SOL     OW27397   9.492   0.526   9.035 -0.3240 -0.0857  0.0425
39540SOL    HW127398   9.397   0.518   9.026 -0.5615  2.1909 -0.1132
39540SOL    HW227399   9.527   0.491   8.953 -1.1112  0.1088 -0.3866
39541SOL     OW27400   2.137   6.567   3.992 -0.2991  0.2600  0.5023
39541SOL    HW127401   2.130   6.553   4.087  0.2428 -1.1870  0.3590
39541SOL    HW227402   2.052   6.538   3.957 -0.4778  0.7383  0.5399
39542SOL     OW27403   0.858   1.155   5.359  0.0926 -0.7091  0.3519
39542SOL    HW127404   0.818   1.082   5.405 -1.2392 -0.1539  0.1122
39542SOL    HW227405   0.868   1.223   5.425 -0.2029 -0.5292  0.2131
39543SOL     OW27406  11.501   3.454   2.944 -0.0834 -0.0782 -0.6005
39543SOL    HW127407  11.482   3.367   2.908 -0.5026 -0.7137  1.0729
39543SOL    HW227408  11.419   3.483   2.981  0.5265  0.1795  0.5798
39544SOL     OW27409   9.614   5.598   8.163 -0.2848 -0.2437 -0.1723
39544SOL    HW127410   9.561   5.599   8.243 -0.3856 -0.4043 -0.2368
39544SOL    HW227411   9.674   5.672   8.173 -0.0735 -0.4651  0.2007
39545SOL     OW27412   0.923   5.062   8.914  0.0096 -0.1787  0.4766
39545SOL    HW127413   0.941   5.145   8.871 -0.8097 -0.1693  0.1393
39545SOL    HW227414   0.994   5.053   8.978 -0.9583  1.7585  1.9250
39546SOL     OW27415   2.027   1.914   6.133 -0.6319 -0.7262  0.0875
39546SOL    HW127416   2.071   1.839   6.093  1.7950  1.1542 -1.0236
39546SOL    HW227417   2.015   1.888   6.225  1.6508 -1.8940  0.1265
39547SOL     OW27418  10.770   2.045   3.903 -0.1566  0.2033 -0.0163
39547SOL    HW127419  10.754   1.982   3.832  0.2620  0.6951 -0.5545
39547SOL    HW227420  10.694   2.036   3.960 -0.9258  0.3861 -0.9751
39548SOL     OW27421   2.939   9.789   4.335 -0.2053  0.0850 -0.7550
39548SOL    HW127422   2.933   9.858   4.401 -0.6493 -0.2922 -0.3955
39548SOL    HW227423   2.917   9.709   4.382  0.2255 -0.2907 -1.1882
39549SOL     OW27424  10.484   7.939   4.771 -0.4326 -0.0919 -0.5277
39549SOL    HW127425  10.547   8.003   4.804 -1.1940  1.1986 -1.4771
39549SOL    HW227426  10.461   7.886   4.848 -0.7576  1.6133  0.6133
39550SOL     OW27427  11.187   6.615   1.471 -0.3942 -0.9214 -0.2315
39550SOL    HW127428  11.210   6.706   1.456  0.3096 -1.0663 -0.1033
39550SOL    HW227429  11.241   6.566   1.409 -0.7461 -1.2493 -0.2816
39551SOL     OW27430   6.447   8.424   2.485 -0.6531 -0.6089  0.5358
39551SOL    HW127431   6.352   8.415   2.497 -0.5003 -1.2867  1.4068
39551SOL    HW227432   6.484   8.350   2.534  0.4344  1.0270  2.3689
39552SOL     OW27433   4.387   8.179   9.861  0.0890 -0.4002 -0.1486
39552SOL    HW127434   4.322   8.182   9.791  2.2433 -1.6601 -2.3549
39552SOL    HW227435   4.415   8.087   9.864  0.8844 -0.1487  1.6156
39553SOL     OW27436   7.955   1.118   5.005 -0.0806  0.0662 -0.7063
39553SOL    HW127437   8.008   1.137   4.927  1.1807 -3.5015 -0.9100
39553SOL    HW227438   7.866   1.113   4.972  0.1034  0.9810 -1.4112
39554SOL     OW27439   0.422  11.318   7.394  0.2808  0.4758  0.2118
39554SOL    HW127440   0.403  11.372   7.472  0.7539  1.4357 -0.3148
39554SOL    HW227441   0.506  11.351   7.363 -0.3453  0.7623 -1.2511
39555SOL     OW27442   3.820   9.618  10.626 -0.2680  0.0557  0.3347
39555SOL    HW127443   3.747   9.636  10.568 -1.1940 -1.1031  1.0742
39555SOL    HW227444   3.897   9.648  10.579 -1.2002  1.1501 -0.5356
39556SOL     OW27445   5.374   9.400   2.274  0.9142 -0.1954  0.2010
39556SOL    HW127446   5.324   9.476   2.304  0.7100 -0.8778  1.6867
39556SOL    HW227447   5.454   9.437   2.236 -0.4369  0.8929 -1.7625
39557SOL     OW27448   8.652   5.702  10.750  0.2284  0.0949  0.0973
39557SOL    HW127449   8.736   5.699  10.703  0.3715  0.1690  0.3479
39557SOL    HW227450   8.621   5.611  10.749  0.6553 -0.0648  0.6231
39558SOL     OW27451   2.985   9.148   8.570  0.1736 -0.6695  0.0910
39558SOL    HW127452   3.031   9.201   8.634 -1.0704 -1.1947  1.4688
39558SOL    HW227453   2.900   9.192   8.559 -0.5447 -1.8714  0.6253
39559SOL     OW27454  11.650   1.552   4.341  0.2353 -0.4971 -0.3273
39559SOL    HW127455  11.656   1.532   4.248 -0.2001  1.4232 -0.7973
39559SOL    HW227456  11.715   1.621   4.355 -1.4802  1.0736  0.2127
39560SOL     OW27457   0.779   9.600   4.127 -0.4786 -0.1935 -0.3477
39560SOL    HW127458   0.875   9.591   4.131 -0.2942  1.4284 -0.2410
39560SOL    HW227459   0.746   9.510   4.126  1.0638 -0.7880 -0.8156
39561SOL     OW27460   3.285   4.164   9.124  0.2802 -0.2091 -0.2112
39561SOL    HW127461   3.216   4.102   9.101 -0.2270  0.6636 -1.1171
39561SOL    HW227462   3.343   4.166   9.047  0.7010 -0.1051  0.1025
39562SOL     OW27463   9.372   2.537   2.803  0.1878  0.2192 -0.5940
39562SOL    HW127464   9.464   2.510   2.807 -0.1279 -0.8546 -0.3673
39562SOL    HW227465   9.322   2.455   2.804 -0.8746  0.8182  1.7218
39563SOL     OW27466   2.549  12.039   8.694  0.1942 -0.0351  0.3021
39563SOL    HW127467   2.496  11.976   8.742 -0.4149 -0.1521 -0.5145
39563SOL    HW227468   2.638  12.002   8.696  0.1507 -0.1259  1.1667
39564SOL     OW27469   8.981   7.352   6.071  0.2485 -0.4762 -0.3151
39564SOL    HW127470   9.043   7.419   6.043 -0.7722  1.1134  1.0468
39564SOL    HW227471   8.906   7.363   6.013  0.0909 -0.4814 -0.1116
39565SOL     OW27472   1.569   6.508  10.236 -0.1150 -0.3110 -0.2585
39565SOL    HW127473   1.649   6.519  10.185 -0.3083 -0.2681 -0.5579
39565SOL    HW227474   1.500   6.498  10.170 -0.2156 -1.4233 -0.0059
39566SOL     OW27475   3.934   0.597  11.338  0.0521 -0.8819 -0.6645
39566SOL    HW127476   3.868   0.535  11.368 -1.0396  0.3988 -0.2971
39566SOL    HW227477   3.891   0.645  11.267  0.5040  0.1004 -0.2884
39567SOL     OW27478   7.789  11.824   8.601 -0.0258 -0.1598 -0.3844
39567SOL    HW127479   7.848  11.778   8.542 -0.2297  0.7059 -1.2849
39567SOL    HW227480   7.839  11.898   8.634 -0.0180 -0.4571  0.3005
39568SOL     OW27481  11.701   7.613   5.378 -0.1271 -0.3507  0.4439
39568SOL    HW127482  11.696   7.686   5.440 -0.6592  0.0874 -0.1007
39568SOL    HW227483  11.729   7.538   5.430  2.8497  0.7326  0.6130
39569SOL     OW27484   0.657  10.332   5.278  0.0831  0.1517 -0.7720
39569SOL    HW127485   0.730  10.290   5.323 -1.7042 -0.1041  2.1417
39569SOL    HW227486   0.686  10.423   5.266  1.1131 -0.0806 -0.1870
39570SOL     OW27487  11.801   3.711   3.292 -0.0580 -0.3066  0.2839
39570SOL    HW127488  11.714   3.752   3.290  0.3002  0.5026  0.8332
39570SOL    HW227489  11.788   3.629   3.339 -0.0940  0.9020  2.4867
39571SOL     OW27490   0.957   2.916  10.542  0.7677  0.4164  0.4426
39571SOL    HW127491   0.908   2.976  10.485 -0.5410  2.0594  3.1057
39571SOL    HW227492   0.914   2.832  10.531 -0.0786  0.9136 -0.2310
39572SOL     OW27493   0.826  12.219   1.155 -0.2543  0.2065 -0.0346
39572SOL    HW127494   0.857  12.143   1.205  0.5376  1.5297  1.5744
39572SOL    HW227495   0.871  12.212   1.071  0.4614 -0.6461  0.3981
39573SOL     OW27496   4.517   9.446   8.924 -0.9272 -0.2394  0.1625
39573SOL    HW127497   4.472   9.378   8.872 -1.2242  0.9247 -1.1535
39573SOL    HW227498   4.608   9.417   8.927 -1.3498 -1.5615  1.0862
39574SOL     OW27499  12.499   7.857   8.082  0.1947  0.5514  0.9365
39574SOL    HW127500  12.542   7.774   8.060  1.1856  0.4427  3.0480
39574SOL    HW227501  12.408   7.834   8.100  0.5726 -0.1722  1.9688
39575SOL     OW27502   0.732   6.162   5.371  0.0303 -0.4273  0.5133
39575SOL    HW127503   0.771   6.084   5.330 -0.2489 -0.4261  0.2496
39575SOL    HW227504   0.639   6.156   5.352 -0.0227 -0.1340  0.6727
39576SOL     OW27505   6.611   4.225   2.443  0.3677  0.1828  0.6820
39576SOL    HW127506   6.664   4.303   2.461  2.1950 -0.7958 -0.1873
39576SOL    HW227507   6.522   4.249   2.470  0.9585  2.4089  0.7849
39577SOL     OW27508   5.192  12.088  10.691 -0.5309  0.1208 -0.1462
39577SOL    HW127509   5.222  12.111  10.603 -0.1409 -0.5297 -0.1886
39577SOL    HW227510   5.244  12.012  10.715 -1.7665 -0.7166 -0.0074
39578SOL     OW27511   2.839   9.293   2.888 -0.0064  0.6165 -0.0729
39578SOL    HW127512   2.878   9.353   2.825 -0.0259  0.8382  0.1234
39578SOL    HW227513   2.795   9.227   2.835  0.8876  0.1944 -0.3076
39579SOL     OW27514   4.847   4.551  10.363 -0.5678 -0.1848 -0.4495
39579SOL    HW127515   4.928   4.514  10.330 -0.8019 -0.6398 -0.5241
39579SOL    HW227516   4.792   4.560  10.286 -0.5271  0.2797 -0.4236
39580SOL     OW27517   2.013   1.137   4.288  0.2540 -0.3818  0.7898
39580SOL    HW127518   1.930   1.089   4.287  0.2664 -0.6182 -2.9932
39580SOL    HW227519   2.079   1.069   4.298  0.1091 -0.6527 -0.0327
39581SOL     OW27520   3.447  12.335   6.660  0.2077 -0.0886 -0.4631
39581SOL    HW127521   3.423  12.304   6.748 -1.4302 -0.1830 -0.9129
39581SOL    HW227522   3.466  12.428   6.672 -1.0166  0.1426 -0.1632
39582SOL     OW27523   8.408   6.228   5.980 -0.3482  0.5304  0.0794
39582SOL    HW127524   8.382   6.319   5.963 -0.8745  0.4582  0.4600
39582SOL    HW227525   8.353   6.177   5.920  2.1099  0.5981 -2.4296
39583SOL     OW27526   4.080   9.232   8.324  0.2562  0.2270 -0.0734
39583SOL    HW127527   4.157   9.288   8.311 -0.7057  1.4726 -0.6679
39583SOL    HW227528   4.069   9.186   8.241  0.6009 -0.2845  0.1592
39584SOL     OW27529  10.630   0.160  10.857 -0.7992  0.7480  0.0172
39584SOL    HW127530  10.566   0.100  10.894  0.1181 -0.3689 -0.1355
39584SOL    HW227531  10.699   0.165  10.923 -0.3822  0.7968 -0.4166
39585SOL     OW27532   3.412   1.519   3.953  0.3693  0.5281 -0.1702
39585SOL    HW127533   3.365   1.456   3.898 -0.4898  0.0390  1.0881
39585SOL    HW227534   3.443   1.586   3.892 -0.5996  0.0300 -1.2326
39586SOL     OW27535   1.217   9.702   5.252  0.5464 -0.2248 -0.1048
39586SOL    HW127536   1.203   9.664   5.165  1.7593  0.2721 -0.5315
39586SOL    HW227537   1.238   9.626   5.307 -1.3880 -0.6961  0.0548
39587SOL     OW27538  11.963   0.793  10.482 -0.0772  0.8107  0.3645
39587SOL    HW127539  11.981   0.710  10.526 -1.7219  0.6127  0.7359
39587SOL    HW227540  12.038   0.807  10.424  0.5098 -0.6221  0.7518
39588SOL     OW27541  10.164   6.208   7.093 -0.1973 -0.0577 -0.6224
39588SOL    HW127542  10.166   6.183   7.001 -1.0029  0.3045 -0.7437
39588SOL    HW227543  10.231   6.153   7.134  0.8661  0.4828 -1.5869
39589SOL     OW27544   5.136   0.519   5.824 -0.5704 -0.3947 -0.8601
39589SOL    HW127545   5.107   0.610   5.831  1.7344  0.3126  0.6762
39589SOL    HW227546   5.117   0.494   5.733 -1.5549  1.4851 -1.2072
39590SOL     OW27547  12.294   9.031   6.660  0.1195 -0.1276  0.5997
39590SOL    HW127548  12.299   9.120   6.626  0.8590  0.0287  1.1042
39590SOL    HW227549  12.202   9.006   6.646 -0.3359  1.0525  1.3015
39591SOL     OW27550   5.823   9.897   9.369  0.2301 -0.1203  0.3165
39591SOL    HW127551   5.893   9.950   9.407  0.0538 -0.0732  0.5806
39591SOL    HW227552   5.779   9.957   9.308 -0.1630  0.1411  0.8443
39592SOL     OW27553  11.378   6.091   0.360 -0.6746  0.1226  0.2585
39592SOL    HW127554  11.422   6.176   0.352  0.9877 -0.7123  0.0742
39592SOL    HW227555  11.406   6.058   0.445  0.8784 -1.3886 -0.7915
39593SOL     OW27556  11.472  11.633  10.625 -0.1016  0.0805  0.1497
39593SOL    HW127557  11.419  11.630  10.704 -2.1298 -2.4805 -1.1413
39593SOL    HW227558  11.432  11.702  10.571  0.2122  0.6550  0.6444
39594SOL     OW27559   9.522   1.376  12.606 -0.5113  0.7523 -0.7070
39594SOL    HW127560   9.433   1.410  12.614 -0.2917  1.3346 -0.6245
39594SOL    HW227561   9.553   1.412  12.523  0.2027  1.9273  0.0364
39595SOL     OW27562   8.732   6.026   9.960 -0.0430  0.3560 -0.0876
39595SOL    HW127563   8.742   5.947  10.014  0.7934  0.2269 -0.4156
39595SOL    HW227564   8.696   6.091  10.020  0.5419  0.1132  0.5495
39596SOL     OW27565   5.544   2.739   0.383  0.3794 -0.3328  0.4843
39596SOL    HW127566   5.497   2.656   0.388 -0.5412  0.0384 -1.3104
39596SOL    HW227567   5.485   2.802   0.424 -0.6391  0.0761 -1.4939
39597SOL     OW27568   1.551   8.039   8.926 -0.6943  0.1578 -0.1895
39597SOL    HW127569   1.645   8.039   8.942 -0.5855  2.5250 -0.4768
39597SOL    HW227570   1.530   7.948   8.907  1.2157 -0.7424  1.5670
39598SOL     OW27571   1.808  10.230   8.881 -0.4375  0.6190  0.7453
39598SOL    HW127572   1.801  10.280   8.962  0.1239  1.3946  0.3230
39598SOL    HW227573   1.879  10.271   8.833 -0.7286  0.1370 -0.1257
39599SOL     OW27574   7.295   1.172  10.492 -0.0598  0.8035 -0.6220
39599SOL    HW127575   7.284   1.266  10.477 -0.4645  0.8199 -0.2475
39599SOL    HW227576   7.351   1.142  10.421  0.2624  1.3729 -0.6105
39600SOL     OW27577   4.048   2.558   3.722 -0.2974  0.6846  0.3154
39600SOL    HW127578   4.039   2.467   3.695  0.8498  1.1125 -1.6709
39600SOL    HW227579   3.987   2.606   3.666  0.2847  1.3223  0.2114
39601SOL     OW27580  11.039   1.039   8.557 -0.1355 -0.1277  0.0794
39601SOL    HW127581  11.028   0.959   8.505 -0.8817  0.0147  0.0090
39601SOL    HW227582  10.988   1.023   8.636  1.4003 -0.5416  1.0117
39602SOL     OW27583  11.011   9.713   7.904  0.3104 -0.2252 -0.2155
39602SOL    HW127584  10.970   9.668   7.830  0.0744  1.4305 -1.1407
39602SOL    HW227585  11.091   9.751   7.868  0.0677  0.8128  0.2940
39603SOL     OW27586  12.266   7.439   4.740 -0.0359 -0.2895  0.2068
39603SOL    HW127587  12.268   7.378   4.667  0.0416  1.6887 -1.5118
39603SOL    HW227588  12.354   7.436   4.777  0.7587  0.6826 -1.5227
39604SOL     OW27589   2.433   0.705   1.851 -0.1682  0.2499 -0.2124
39604SOL    HW127590   2.459   0.795   1.868 -2.3773  1.2866 -1.7329
39604SOL    HW227591   2.359   0.713   1.790  0.7901 -2.6645 -1.9823
39605SOL     OW27592   5.998   1.823  10.081 -0.2490 -0.0346 -0.9123
39605SOL    HW127593   5.943   1.748  10.102 -0.0922 -1.3854 -4.6809
39605SOL    HW227594   6.061   1.790  10.017  1.2584  2.8342 -1.0710
39606SOL     OW27595  10.890   9.936   1.028 -0.0633  0.2347 -0.1942
39606SOL    HW127596  10.834   9.987   1.087 -1.5377  1.1214 -2.2371
39606SOL    HW227597  10.968   9.990   1.015  0.1687  0.1370  0.6968
39607SOL     OW27598   4.227   4.134   8.174 -0.3116  0.1876 -0.3360
39607SOL    HW127599   4.304   4.168   8.128  0.7560 -0.4808  0.8759
39607SOL    HW227600   4.185   4.075   8.112  1.9509 -1.9062 -0.0377
39608SOL     OW27601  11.339   3.192   3.165 -0.1470 -0.2318  0.4754
39608SOL    HW127602  11.309   3.275   3.129 -1.8254 -0.1426  1.9749
39608SOL    HW227603  11.432   3.206   3.182 -0.4333  1.4090  0.8615
39609SOL     OW27604   6.358   6.926   5.451 -0.6405  0.1670  0.0531
39609SOL    HW127605   6.276   6.975   5.447 -0.2321  0.9149  0.5542
39609SOL    HW227606   6.424   6.992   5.471 -0.0115 -0.5300  0.3186
39610SOL     OW27607   5.046  10.455   8.675 -0.0970 -0.5170  0.1069
39610SOL    HW127608   5.121  10.409   8.638 -0.0697 -0.9567  0.6912
39610SOL    HW227609   5.012  10.508   8.603 -0.6073 -2.0307 -0.8141
39611SOL     OW27610   4.046   0.367  10.669 -0.2880 -0.3981 -0.1988
39611SOL    HW127611   3.991   0.296  10.635  0.9095 -0.4823 -2.1812
39611SOL    HW227612   4.136   0.337  10.653  0.2558  1.4244 -0.8475
39612SOL     OW27613  11.608   9.654  10.438 -0.4514 -0.2294  0.3317
39612SOL    HW127614  11.595   9.749  10.442 -1.3522 -0.3657  0.8850
39612SOL    HW227615  11.579   9.630  10.350 -3.3160 -0.3910  1.2198
39613SOL     OW27616   5.490   8.227   4.233  0.2175 -0.4684 -0.8173
39613SOL    HW127617   5.473   8.270   4.149 -0.0338 -1.0989 -1.0946
39613SOL    HW227618   5.420   8.258   4.291  0.5675  0.2082 -0.7428
39614SOL     OW27619  12.579   5.521   9.220 -0.2187 -0.3769  0.0622
39614SOL    HW127620  12.622   5.440   9.245 -0.9825 -1.0548 -0.7694
39614SOL    HW227621  12.606   5.584   9.287 -0.0319 -1.4351  1.0126
39615SOL     OW27622   9.945   1.901   9.383 -0.1528 -0.4137  0.5802
39615SOL    HW127623  10.022   1.956   9.389 -0.4740 -0.0073  1.0834
39615SOL    HW227624   9.975   1.821   9.341  0.5659 -0.3011  0.8773
39616SOL     OW27625  11.711   4.738   9.830 -0.1035 -0.3027  0.2212
39616SOL    HW127626  11.761   4.671   9.783  0.8543  0.8713 -0.4971
39616SOL    HW227627  11.699   4.809   9.767 -1.6924 -0.0591  0.7527
39617SOL     OW27628   1.211   9.793   6.152 -0.5091  0.0469  0.3263
39617SOL    HW127629   1.277   9.809   6.084 -1.4649  1.1434 -0.3652
39617SOL    HW227630   1.260   9.748   6.222  1.3548  2.1900  0.5296
39618SOL     OW27631   3.528   2.302   2.653 -0.3572  0.1081  0.6384
39618SOL    HW127632   3.559   2.374   2.707 -0.6302  0.7163  0.0071
39618SOL    HW227633   3.559   2.223   2.697  1.1484  0.6501  0.5960
39619SOL     OW27634   9.715  10.215   0.023 -0.0586 -0.3287  0.2928
39619SOL    HW127635   9.744  10.253  -0.060  0.2852 -0.6255  0.2769
39619SOL    HW227636   9.624  10.245   0.032  0.3693  0.9645  0.5602
39620SOL     OW27637   1.254   3.810   7.049 -0.0741 -0.4142 -0.0534
39620SOL    HW127638   1.304   3.834   7.127  0.2155 -0.4076 -0.2370
39620SOL    HW227639   1.178   3.763   7.082  0.5411 -1.2669  0.1877
39621SOL     OW27640  12.242   9.378   7.877  0.2899 -0.2839  0.3708
39621SOL    HW127641  12.194   9.335   7.806  0.1445  0.6121 -0.1020
39621SOL    HW227642  12.278   9.307   7.929  0.9838 -0.9770 -0.9973
39622SOL     OW27643   2.856  10.384   2.780 -0.0605 -0.4196  0.1148
39622SOL    HW127644   2.898  10.298   2.788 -0.3506 -0.6515 -0.7014
39622SOL    HW227645   2.917  10.444   2.822 -0.1597 -1.1106  1.2789
39623SOL     OW27646   7.554   5.642   6.203 -0.3184 -0.3834  0.2566
39623SOL    HW127647   7.517   5.554   6.209 -0.1618 -0.4164  0.8605
39623SOL    HW227648   7.648   5.629   6.215  0.2517 -0.5401 -3.3756
39624SOL     OW27649   5.691   4.288  10.684  0.4107 -0.0558  0.7450
39624SOL    HW127650   5.650   4.202  10.674 -0.5765  0.5666 -1.0785
39624SOL    HW227651   5.625   4.341  10.729 -1.1945  1.0722 -2.5800
39625SOL     OW27652   3.580  10.811   0.051  0.1086 -0.0535  0.5064
39625SOL    HW127653   3.553  10.768   0.132  0.4063 -0.8069  0.2202
39625SOL    HW227654   3.652  10.869   0.077 -0.5176  0.5276  0.9543
39626SOL     OW27655  11.829   8.160   6.911 -0.4480 -0.8806 -0.1515
39626SOL    HW127656  11.869   8.111   6.982 -2.0827 -3.0915 -0.6509
39626SOL    HW227657  11.882   8.138   6.834 -0.7819 -1.3307 -0.2539
39627SOL     OW27658   4.356   7.987   4.292 -0.4561  0.4637 -0.0928
39627SOL    HW127659   4.376   7.908   4.242  1.2292 -0.0031  1.2217
39627SOL    HW227660   4.354   7.957   4.383 -1.6460  1.6189  0.2883
39628SOL     OW27661   1.087   8.396   7.329 -0.6641 -0.2303  0.1511
39628SOL    HW127662   1.066   8.449   7.407 -0.3806 -1.0804  0.8209
39628SOL    HW227663   1.182   8.400   7.322 -0.6930 -0.1135 -0.1881
39629SOL     OW27664   8.270   2.514   3.868  0.3318  0.8726  0.6247
39629SOL    HW127665   8.280   2.538   3.776 -1.2770  3.0025  0.9485
39629SOL    HW227666   8.338   2.448   3.882  0.4864  0.3227 -2.1204
39630SOL     OW27667   7.381   2.108  10.431  0.4252  0.5384 -0.3856
39630SOL    HW127668   7.337   2.032  10.468 -0.3943  1.4044  0.4538
39630SOL    HW227669   7.347   2.115  10.342 -0.0721  0.3661 -0.2109
39631SOL     OW27670  12.483  10.314   5.382 -0.5381 -0.3283  0.0299
39631SOL    HW127671  12.533  10.302   5.463 -0.7303 -0.8229  0.0774
39631SOL    HW227672  12.532  10.265   5.316 -0.1561  0.4160 -0.2485
39632SOL     OW27673   1.609  10.637   5.749  0.0193 -0.1032 -0.4373
39632SOL    HW127674   1.550  10.578   5.703 -1.4870  0.3068  0.8714
39632SOL    HW227675   1.554  10.678   5.817  1.5777  1.0289  0.2057
39633SOL     OW27676   3.249  10.877   0.152  0.2743 -0.0413  0.0503
39633SOL    HW127677   3.191  10.952   0.155  1.0304  0.6426 -1.3893
39633SOL    HW227678   3.313  10.893   0.222 -0.3606 -0.0445  0.6381
39634SOL     OW27679  11.017   2.532   1.776  0.3780  0.3078 -0.4275
39634SOL    HW127680  10.938   2.509   1.727  0.8634 -0.0137 -1.0588
39634SOL    HW227681  11.067   2.588   1.717  0.1224  1.4224  0.3715
39635SOL     OW27682   4.902   8.107   1.932 -1.1259 -0.7997  0.0909
39635SOL    HW127683   4.959   8.180   1.957 -0.6606 -1.0294 -0.2847
39635SOL    HW227684   4.948   8.029   1.963 -1.6184 -0.9417  0.4878
39636SOL     OW27685   8.473   5.393   5.438 -0.6078  0.1052  0.2168
39636SOL    HW127686   8.566   5.414   5.446 -0.8711  1.1590  0.7775
39636SOL    HW227687   8.450   5.417   5.349 -0.2462 -0.5860 -0.0661
39637SOL     OW27688   2.540   6.724   1.897 -0.4543  0.0721 -0.8261
39637SOL    HW127689   2.451   6.691   1.883 -0.0613 -0.6551 -1.7044
39637SOL    HW227690   2.597   6.653   1.868  0.4330  0.1367  0.6624
39638SOL     OW27691   1.207  10.593  10.734 -0.2725 -0.4109  0.5867
39638SOL    HW127692   1.245  10.649  10.667 -1.0515  0.3034  0.7309
39638SOL    HW227693   1.126  10.561  10.695 -1.1959  0.7367  1.4997
39639SOL     OW27694   8.894   4.424  11.140  0.2394 -0.4381  0.1570
39639SOL    HW127695   8.863   4.351  11.086  0.9593 -2.2190  2.0441
39639SOL    HW227696   8.853   4.410  11.225 -1.6161  2.8287 -0.0289
39640SOL     OW27697  10.052   7.308  10.476 -0.1920 -0.0516 -0.4033
39640SOL    HW127698  10.046   7.275  10.386 -0.1917  0.8106 -0.7388
39640SOL    HW227699   9.961   7.316  10.504 -0.2021 -3.2116  0.8287
39641SOL     OW27700   3.093   3.170   2.824  0.1539 -0.0497 -0.3385
39641SOL    HW127701   3.021   3.219   2.863  0.9970  1.1729 -0.2846
39641SOL    HW227702   3.162   3.235   2.809  1.7723 -1.4223  0.8439
39642SOL     OW27703   3.081  11.054   8.241  0.0879 -0.3208 -0.3790
39642SOL    HW127704   3.099  10.970   8.199 -1.7856 -1.0509  0.1478
39642SOL    HW227705   3.143  11.058   8.314 -0.3413 -1.6695  0.0943
39643SOL     OW27706   1.644   5.235  11.537  0.5701  0.3565  0.0084
39643SOL    HW127707   1.576   5.302  11.535  1.5427  1.3332 -0.7831
39643SOL    HW227708   1.670   5.230  11.629  0.5634  1.1427  0.0547
39644SOL     OW27709  12.534   7.597  12.584 -0.2213 -0.2659 -0.0598
39644SOL    HW127710  12.496   7.581  12.498 -0.9949  0.2092  0.1829
39644SOL    HW227711  12.459   7.615  12.640  0.3896  1.4152  0.2837
39645SOL     OW27712   3.055   7.926   5.216  0.2659  0.7803  0.0643
39645SOL    HW127713   2.962   7.902   5.219  0.6780 -0.9163  0.1551
39645SOL    HW227714   3.082   7.926   5.308  0.6431 -0.0028 -0.0376
39646SOL     OW27715   1.381   4.735   3.516 -0.5262 -0.4303 -0.5829
39646SOL    HW127716   1.377   4.823   3.555  1.5891 -0.2404 -0.6433
39646SOL    HW227717   1.442   4.745   3.443  0.4768 -2.1233 -0.0355
39647SOL     OW27718   7.601   7.121   0.639  0.2611  0.3859 -0.3334
39647SOL    HW127719   7.532   7.102   0.703  0.2453  0.3425 -0.3629
39647SOL    HW227720   7.553   7.143   0.559  0.2706 -1.1733 -0.8089
39648SOL     OW27721   2.839   6.951   4.153 -0.2160  0.2154  0.0499
39648SOL    HW127722   2.753   6.933   4.190 -1.4275  1.9305 -1.7200
39648SOL    HW227723   2.821   7.004   4.076  2.3984 -0.1659 -0.9160
39649SOL     OW27724   6.330  12.276   6.798  0.2874  0.2458 -0.0496
39649SOL    HW127725   6.364  12.188   6.782  0.3840  0.4210 -0.8450
39649SOL    HW227726   6.331  12.285   6.893  0.6898 -0.4494  0.0192
39650SOL     OW27727   6.373   2.586   9.290  0.1473  0.6472 -0.0730
39650SOL    HW127728   6.441   2.577   9.357 -0.3635 -2.3069  0.1817
39650SOL    HW227729   6.301   2.532   9.321 -0.9464  0.8800 -2.0201
39651SOL     OW27730   6.275   0.567  11.619 -0.2316 -0.0663 -0.4495
39651SOL    HW127731   6.227   0.650  11.624 -0.7584 -0.3048 -1.2322
39651SOL    HW227732   6.299   0.547  11.709 -0.6364  0.6317 -0.1795
39652SOL     OW27733   0.996   6.758   3.760  0.2190  0.6409  0.0295
39652SOL    HW127734   0.941   6.738   3.836  0.6744 -0.7856  0.0128
39652SOL    HW227735   0.934   6.777   3.690 -0.2519 -0.1037  0.2318
39653SOL     OW27736  10.684   8.202   3.450  0.4005 -0.1426  0.7130
39653SOL    HW127737  10.731   8.253   3.515  2.7096  0.4159 -1.2652
39653SOL    HW227738  10.614   8.260   3.420 -0.8252 -0.4847  2.7442
39654SOL     OW27739   3.177   6.868   6.932 -0.1124  0.5501  0.4368
39654SOL    HW127740   3.236   6.850   7.006 -0.9951  0.3481  1.1200
39654SOL    HW227741   3.229   6.850   6.854 -0.0703 -2.4366  1.0265
39655SOL     OW27742  11.255   0.345   4.335 -0.5179  0.0107 -0.4088
39655SOL    HW127743  11.244   0.250   4.327 -0.0010 -0.0939  0.0682
39655SOL    HW227744  11.276   0.359   4.427  0.7476  0.4502 -0.7464
39656SOL     OW27745   7.201   1.224   0.611  0.4207 -0.1796 -0.4237
39656SOL    HW127746   7.109   1.210   0.591  0.5658 -0.6179 -0.8176
39656SOL    HW227747   7.227   1.298   0.554  0.3356 -0.1200 -0.3843
39657SOL     OW27748   0.574   2.065   8.565 -0.2661  0.0048  0.0177
39657SOL    HW127749   0.556   2.055   8.658  0.8819 -0.4538  0.2037
39657SOL    HW227750   0.598   2.157   8.554  2.0332 -0.4652  0.6425
39658SOL     OW27751   9.045   8.178   3.178  0.2122 -0.0820 -0.1167
39658SOL    HW127752   9.057   8.267   3.146 -0.3754  0.4868  1.1698
39658SOL    HW227753   9.031   8.125   3.099  0.2455  1.0127 -0.8702
39659SOL     OW27754   1.883   2.464   0.981 -0.1313  0.7885  0.3905
39659SOL    HW127755   1.803   2.499   0.940  0.3924  1.9796  0.3434
39659SOL    HW227756   1.906   2.388   0.927 -0.9554  0.7267  0.1068
39660SOL     OW27757   4.213  12.287  12.241  0.4528  1.0927 -0.0308
39660SOL    HW127758   4.142  12.306  12.180  0.1724 -0.1543 -0.1178
39660SOL    HW227759   4.293  12.311  12.193  0.1678  1.2156 -0.4442
39661SOL     OW27760   6.232   2.597   3.613 -0.3727  0.1283 -0.1545
39661SOL    HW127761   6.204   2.566   3.699 -0.4853  0.1392 -0.1870
39661SOL    HW227762   6.321   2.628   3.627 -0.1085 -0.5795 -0.2025
39662SOL     OW27763   1.451  10.049   6.622 -0.3300  0.4935  0.4155
39662SOL    HW127764   1.532  10.099   6.636  0.0831 -0.5913  2.1932
39662SOL    HW227765   1.480   9.966   6.585 -0.8175  0.7096 -0.4905
39663SOL     OW27766   8.936   9.749   2.158  0.0853 -0.1059  0.1912
39663SOL    HW127767   8.843   9.768   2.173  0.1084  4.2045 -3.1305
39663SOL    HW227768   8.937   9.694   2.079  0.3580  0.0928  0.0554
39664SOL     OW27769   9.737   0.733   6.913  0.0176  0.0193 -0.3019
39664SOL    HW127770   9.685   0.654   6.903 -1.8318  1.1944 -0.3575
39664SOL    HW227771   9.744   0.768   6.825  1.3655 -0.3665 -0.3738
39665SOL     OW27772   8.233   9.063   2.267  0.3595 -0.0137  0.3910
39665SOL    HW127773   8.215   9.113   2.346  0.3881 -1.1202  1.1168
39665SOL    HW227774   8.260   8.977   2.298 -0.2036 -0.6585 -0.8241
39666SOL     OW27775  11.836   4.735   3.453 -0.1558 -0.1018  0.3154
39666SOL    HW127776  11.904   4.796   3.426  0.6104 -1.2356 -0.4022
39666SOL    HW227777  11.809   4.691   3.373  1.2802 -2.6561  1.1130
39667SOL     OW27778  12.579   1.667   2.765 -0.1589 -0.1474 -0.0884
39667SOL    HW127779  12.542   1.737   2.711  1.3731  0.6781 -0.1196
39667SOL    HW227780  12.614   1.604   2.702 -1.6285 -1.0229 -0.0613
39668SOL     OW27781   2.436   2.078   1.146 -0.2942  0.3131  0.5011
39668SOL    HW127782   2.368   2.145   1.141 -2.7854 -2.0251  0.7080
39668SOL    HW227783   2.426   2.039   1.233  2.1069  0.5949  0.9834
39669SOL     OW27784   4.877   3.143   9.051  0.0263 -0.1326  0.1605
39669SOL    HW127785   4.885   3.196   8.972  2.6816 -0.2122  0.2967
39669SOL    HW227786   4.810   3.188   9.103 -1.7075 -0.0429 -2.0410
39670SOL     OW27787   0.194   1.813   5.914 -0.0507 -0.3809  0.8409
39670SOL    HW127788   0.282   1.835   5.945 -0.4388  1.2324  0.8813
39670SOL    HW227789   0.195   1.835   5.821 -0.5158  0.0215  0.9273
39671SOL     OW27790   0.609   3.777   7.527  0.6442 -0.3405  0.1002
39671SOL    HW127791   0.643   3.693   7.558  0.2248  0.0372  1.6492
39671SOL    HW227792   0.596   3.764   7.433  1.2576 -1.7706  0.1827
39672SOL     OW27793   8.906   7.793  12.236 -0.3776 -0.2414  0.7416
39672SOL    HW127794   8.924   7.713  12.286 -1.7951  0.3034  2.2239
39672SOL    HW227795   8.831   7.833  12.281  0.6648  2.2572  0.4439
39673SOL     OW27796   2.502   7.600   9.333  0.1027  0.2478 -0.9953
39673SOL    HW127797   2.411   7.572   9.348  0.2153 -0.5080 -1.6751
39673SOL    HW227798   2.544   7.588   9.418 -0.2892  0.0155 -0.8294
39674SOL     OW27799   0.258   8.972  11.377 -1.3610 -0.5428  0.2524
39674SOL    HW127800   0.219   8.906  11.320 -0.0536  0.2822 -1.7037
39674SOL    HW227801   0.202   9.049  11.365 -0.3622  0.0311 -1.0155
39675SOL     OW27802  11.267   5.264   5.444 -0.2608 -0.9235  0.2244
39675SOL    HW127803  11.292   5.241   5.354 -3.5977 -0.6330 -0.8845
39675SOL    HW227804  11.340   5.231   5.497  2.0815 -0.6720 -2.5598
39676SOL     OW27805   1.002   1.079   6.618  0.2245  0.2832 -0.5435
39676SOL    HW127806   0.931   1.115   6.564 -1.7838 -2.1045  0.2623
39676SOL    HW227807   1.011   1.141   6.690  0.0526  1.4162 -1.4635
39677SOL     OW27808   0.430   5.043   8.561 -0.5101 -0.3931 -0.1792
39677SOL    HW127809   0.459   5.130   8.535 -0.6022 -0.3840 -0.2512
39677SOL    HW227810   0.395   5.004   8.481 -3.5398  0.7190  0.4555
39678SOL     OW27811   1.847   5.503   0.687  0.4199 -0.0284 -0.2315
39678SOL    HW127812   1.784   5.460   0.744  3.1276 -3.1440  0.7078
39678SOL    HW227813   1.800   5.518   0.605 -1.6573 -1.7109  0.5901
39679SOL     OW27814   4.628  10.968   5.987  0.5697 -0.5172 -0.0404
39679SOL    HW127815   4.551  10.912   5.976  1.2016 -1.1756 -1.2575
39679SOL    HW227816   4.598  11.056   5.963  0.3578 -0.8886 -1.1910
39680SOL     OW27817   8.517   4.813   1.134 -0.1788  0.3051  0.2176
39680SOL    HW127818   8.458   4.798   1.208 -2.0850 -0.8143 -1.4383
39680SOL    HW227819   8.571   4.886   1.162 -0.8574 -0.0383  2.6922
39681SOL     OW27820   9.887   8.165   3.797 -0.3252 -0.3004 -0.4157
39681SOL    HW127821   9.824   8.235   3.781  1.3864  1.6377  0.8942
39681SOL    HW227822   9.927   8.149   3.711 -1.2480 -0.1970 -0.8687
39682SOL     OW27823  11.111   2.127   4.721 -0.7043  0.2559  0.5453
39682SOL    HW127824  11.022   2.103   4.697  0.8600 -2.9877 -2.9294
39682SOL    HW227825  11.166   2.062   4.679  3.4406  2.6613  1.6756
39683SOL     OW27826   6.421  10.886   7.129  0.1841 -0.1228  0.2186
39683SOL    HW127827   6.403  10.797   7.161 -1.3614  0.1645  0.2223
39683SOL    HW227828   6.346  10.907   7.075  0.9825  0.8531 -0.5430
39684SOL     OW27829  11.147   5.323   4.736  0.2524 -0.1760 -0.0511
39684SOL    HW127830  11.126   5.395   4.796 -1.4156 -0.5058 -0.1901
39684SOL    HW227831  11.185   5.366   4.660  0.0986  0.4835  0.2373
39685SOL     OW27832   7.380  10.493   3.045  0.2527 -0.0187 -0.4284
39685SOL    HW127833   7.350  10.556   3.110  1.1256  1.1167 -1.0966
39685SOL    HW227834   7.330  10.413   3.065 -0.9745  0.8965  0.3563
39686SOL     OW27835  10.311   6.288   3.544  0.3227 -0.1200 -0.2589
39686SOL    HW127836  10.352   6.357   3.492  1.1468  0.0910  0.6504
39686SOL    HW227837  10.292   6.219   3.480  1.9415 -0.1552 -0.7597
39687SOL     OW27838  12.525   0.475   9.213  0.3177 -0.2365 -0.2694
39687SOL    HW127839  12.489   0.527   9.141 -0.7696 -0.8857 -0.2245
39687SOL    HW227840  12.455   0.472   9.278  0.1741 -2.0870 -0.4474
39688SOL     OW27841  10.216   0.922   3.874  0.4238  0.3853 -0.2755
39688SOL    HW127842  10.195   0.912   3.966  2.1113 -0.0335  0.0943
39688SOL    HW227843  10.142   0.882   3.828 -0.6830  1.0486  0.8498
39689SOL     OW27844  11.378   5.914   5.622  0.4436  0.4053 -0.4554
39689SOL    HW127845  11.349   5.981   5.683 -1.2167 -1.2396  0.6958
39689SOL    HW227846  11.347   5.944   5.537 -0.9873  0.7333  0.1544
39690SOL     OW27847  11.142   7.365   6.350  0.2102 -0.5025 -0.1492
39690SOL    HW127848  11.133   7.461   6.352  0.8119 -0.4199 -1.0566
39690SOL    HW227849  11.197   7.348   6.274  2.1729 -1.4186  1.3968
39691SOL     OW27850   1.628   4.783   6.715 -0.1224  0.4301  0.6061
39691SOL    HW127851   1.672   4.761   6.797 -2.0378 -0.5349  1.4370
39691SOL    HW227852   1.651   4.711   6.656 -0.2448  0.1307  0.9159
39692SOL     OW27853   4.684   6.942   5.007 -0.2872 -0.2300 -0.0584
39692SOL    HW127854   4.614   6.989   5.052 -1.1503  0.2062 -1.7518
39692SOL    HW227855   4.689   6.983   4.921  2.7691  0.3978  0.3229
39693SOL     OW27856   7.030   7.653   0.460  0.3545 -0.3511  0.0960
39693SOL    HW127857   7.014   7.659   0.366 -0.0591 -1.9835  0.0343
39693SOL    HW227858   7.054   7.562   0.474  2.2929  0.2998  1.3173
39694SOL     OW27859   8.652   6.522   3.456  1.0585 -0.3837 -0.3176
39694SOL    HW127860   8.730   6.573   3.476 -1.0564  2.1750  2.3789
39694SOL    HW227861   8.680   6.459   3.390  4.9388  1.4323 -0.6523
39695SOL     OW27862   6.282   9.985   3.172  0.1023 -0.1376  0.1464
39695SOL    HW127863   6.255   9.897   3.144  2.2566 -0.4831 -0.9931
39695SOL    HW227864   6.250   9.991   3.262 -0.5189 -1.8879  0.0962
39696SOL     OW27865   8.192   8.282   9.521  0.0472 -0.3667  0.1898
39696SOL    HW127866   8.166   8.282   9.429  0.9013  1.9902 -0.1052
39696SOL    HW227867   8.286   8.265   9.521  0.1463  0.1359  0.5808
39697SOL     OW27868   7.031   6.079   6.526  0.4628 -0.3263 -0.5157
39697SOL    HW127869   7.057   5.991   6.551  1.9253  0.0656 -0.6023
39697SOL    HW227870   7.057   6.087   6.435  0.8443  0.3709 -0.3541
39698SOL     OW27871   1.016   5.693   4.537  0.3211 -0.4075 -0.5550
39698SOL    HW127872   1.100   5.647   4.529  1.2647  0.9342  1.0901
39698SOL    HW227873   0.979   5.690   4.449  2.2001 -0.8454 -1.3791
39699SOL     OW27874   4.110   1.770   5.029 -0.1155 -0.5743 -0.1555
39699SOL    HW127875   4.146   1.733   4.948  1.1109  1.1214 -0.4236
39699SOL    HW227876   4.162   1.848   5.046 -1.8568  0.4071  1.0232
39700SOL     OW27877   4.714   3.756  11.662 -0.3625  0.3642  0.1889
39700SOL    HW127878   4.644   3.821  11.673 -1.8756 -1.1571  0.0437
39700SOL    HW227879   4.729   3.723  11.750 -0.5249 -0.0071  0.0768
39701SOL     OW27880   1.786   8.896   7.225 -0.2347  0.1878 -0.2463
39701SOL    HW127881   1.843   8.898   7.148 -1.6087  1.5913 -1.2886
39701SOL    HW227882   1.800   8.980   7.268 -0.5067 -0.0278  0.2825
39702SOL     OW27883   4.016   8.611   4.790  0.0785  0.0815  0.3271
39702SOL    HW127884   3.921   8.612   4.777  0.0443  0.7677  0.6012
39702SOL    HW227885   4.032   8.671   4.863  0.8717  1.3458 -0.8341
39703SOL     OW27886  12.063   5.879  12.093 -0.6830  0.3576  0.0849
39703SOL    HW127887  12.025   5.800  12.131 -3.5368  0.6288 -1.9117
39703SOL    HW227888  12.117   5.849  12.020  1.5882  0.1017  1.7606
39704SOL     OW27889  12.438   6.812   2.268 -0.3294  0.1552  0.1675
39704SOL    HW127890  12.479   6.865   2.200  1.4979 -1.6427 -0.2341
39704SOL    HW227891  12.388   6.746   2.220  1.6994 -1.6888  0.4274
39705SOL     OW27892   1.739  11.330   6.196 -0.1471  0.0594 -0.2868
39705SOL    HW127893   1.824  11.354   6.235  0.4587  0.4694 -1.7928
39705SOL    HW227894   1.738  11.235   6.199  1.7583 -0.1645 -2.9168
39706SOL     OW27895  12.085   9.764   2.693  0.2223  0.1019 -0.2676
39706SOL    HW127896  12.074   9.669   2.705  1.4523  0.0397  0.5119
39706SOL    HW227897  11.997   9.795   2.671 -0.5034 -1.0098  0.9068
39707SOL     OW27898   9.994   5.684   4.711  0.8388  0.0885 -0.0807
39707SOL    HW127899   9.904   5.714   4.707  0.9454  0.8038  1.8032
39707SOL    HW227900   9.990   5.592   4.684 -0.8276 -0.5302  1.9828
39708SOL     OW27901   1.194   9.940   9.989  0.4009  0.3644 -0.1921
39708SOL    HW127902   1.154  10.027   9.981 -0.2897  0.2589  1.5519
39708SOL    HW227903   1.129   9.880   9.952  0.3208  0.4756 -0.2303
39709SOL     OW27904   2.748   8.072   5.522 -0.0365  0.0780  0.4956
39709SOL    HW127905   2.676   8.072   5.585 -0.3351 -0.8023  0.1703
39709SOL    HW227906   2.799   7.994   5.543  0.6168  0.4945  0.4879
39710SOL     OW27907   4.413   7.354   4.945 -0.0005  0.0587 -0.1838
39710SOL    HW127908   4.329   7.311   4.927  1.4228 -2.8067 -0.4059
39710SOL    HW227909   4.440   7.319   5.030  1.0928  0.7395 -0.2349
39711SOL     OW27910   1.318   8.277   5.218 -0.2814 -0.0922 -0.2819
39711SOL    HW127911   1.401   8.299   5.259 -0.8992  0.7498  0.5646
39711SOL    HW227912   1.323   8.318   5.131 -0.3646  1.2103  0.3010
39712SOL     OW27913   6.969  10.262   8.699 -0.1679  0.3642  0.3648
39712SOL    HW127914   6.921  10.199   8.646  0.5593 -0.5326  0.7367
39712SOL    HW227915   7.047  10.214   8.729  0.6012  1.5536  0.3488
39713SOL     OW27916   4.984   8.770   8.847  0.2994 -0.4206  0.0486
39713SOL    HW127917   4.906   8.723   8.876 -0.9327  0.7172 -1.2648
39713SOL    HW227918   4.973   8.859   8.882  1.1533 -0.3101  0.0696
39714SOL     OW27919   5.024  11.596   0.963  0.3991  0.5380 -0.2914
39714SOL    HW127920   4.929  11.584   0.969  0.3483 -1.9615 -3.5147
39714SOL    HW227921   5.061  11.513   0.991  1.5045  0.7643 -1.0177
39715SOL     OW27922   6.422   4.851  10.816 -0.0914  0.3796 -0.4782
39715SOL    HW127923   6.464   4.930  10.851 -0.1550  0.8706 -1.4623
39715SOL    HW227924   6.331   4.877  10.802  0.2422  0.7114 -2.4099
39716SOL     OW27925   6.832   8.515   9.907 -0.1439 -0.0303  0.0751
39716SOL    HW127926   6.748   8.492   9.946 -0.5535  1.1014 -0.0989
39716SOL    HW227927   6.815   8.596   9.859  0.7996 -0.3642 -0.8672
39717SOL     OW27928  11.433   9.255   3.958  0.2162  0.1186  0.1822
39717SOL    HW127929  11.428   9.229   4.049 -3.4784  1.9553  0.6804
39717SOL    HW227930  11.474   9.342   3.960  1.9800 -0.6583 -0.2156
39718SOL     OW27931  11.470   7.186   6.986 -0.8315  0.2710 -0.0885
39718SOL    HW127932  11.523   7.265   6.979 -2.1131  1.3212  1.4139
39718SOL    HW227933  11.485   7.140   6.904  2.7403  0.2374  0.4062
39719SOL     OW27934   3.588   1.024   9.116  0.0377  0.1061 -0.1520
39719SOL    HW127935   3.627   1.048   9.200  0.5996 -0.1070 -0.3469
39719SOL    HW227936   3.641   1.069   9.051 -0.5876  0.5153 -0.3782
39720SOL     OW27937   6.628   8.656   2.649 -0.0422 -0.5641 -0.1378
39720SOL    HW127938   6.677   8.656   2.731  0.1019  3.0563 -0.0434
39720SOL    HW227939   6.557   8.593   2.662 -0.6947  0.6618  3.2710
39721SOL     OW27940   3.593   9.328   8.955 -0.1083 -0.2694 -0.5585
39721SOL    HW127941   3.612   9.347   9.047 -1.8120 -0.7387 -0.0804
39721SOL    HW227942   3.608   9.234   8.946  1.7162  0.0305 -1.2371
39722SOL     OW27943   7.254   6.183   5.387 -0.6366  0.1537 -0.5539
39722SOL    HW127944   7.193   6.225   5.448 -2.5067 -1.4417 -1.1968
39722SOL    HW227945   7.259   6.092   5.418 -0.0790 -0.1907 -1.6231
39723SOL     OW27946  11.235   5.686   5.657  0.1022  0.4857 -0.0435
39723SOL    HW127947  11.295   5.759   5.673  1.5989 -1.0820  2.0584
39723SOL    HW227948  11.170   5.694   5.726 -0.1178  0.2128 -0.2212
39724SOL     OW27949  11.944   8.554   0.875 -0.4742 -0.2404 -0.0232
39724SOL    HW127950  11.951   8.601   0.958  1.1647  0.7690 -0.6760
39724SOL    HW227951  11.877   8.601   0.826 -0.4677  0.0128  0.2089
39725SOL     OW27952   1.486  10.250   0.178  0.4408 -0.7889  0.0333
39725SOL    HW127953   1.521  10.339   0.187  2.0736 -1.5382  1.9014
39725SOL    HW227954   1.459  10.244   0.086 -0.9683  2.0231  0.1550
39726SOL     OW27955  12.247   2.053   9.271 -0.3655 -0.1539  0.4844
39726SOL    HW127956  12.293   2.068   9.188  1.1792  1.3252  1.5366
39726SOL    HW227957  12.270   1.963   9.295 -0.7166 -0.5519 -0.5980
39727SOL     OW27958   4.133  12.082   7.301 -0.3312  0.8106 -0.1656
39727SOL    HW127959   4.053  12.120   7.338 -0.3928  0.1172  0.4502
39727SOL    HW227960   4.179  12.156   7.261 -0.6567  1.4493  0.6148
39728SOL     OW27961   2.546  11.279   6.398  0.2896  0.4559  0.5230
39728SOL    HW127962   2.590  11.274   6.483  1.6590 -0.3970 -0.2039
39728SOL    HW227963   2.591  11.214   6.344 -0.4044  1.1437 -0.9290
39729SOL     OW27964   7.026  12.464   4.734  0.2156  0.1948  0.4410
39729SOL    HW127965   7.095  12.512   4.688 -0.7310  0.0115 -1.2803
39729SOL    HW227966   6.953  12.526   4.739 -0.1652 -0.2462  0.4520
39730SOL     OW27967   9.216   6.231   6.336 -0.1843 -0.7458  0.3131
39730SOL    HW127968   9.267   6.216   6.256  0.1604  0.2452  0.3303
39730SOL    HW227969   9.173   6.147   6.353  0.4842 -1.2486 -0.3816
39731SOL     OW27970   8.506   3.300   9.824  0.0835  0.0364  0.8657
39731SOL    HW127971   8.414   3.288   9.800 -0.0053 -0.2970  1.3636
39731SOL    HW227972   8.514   3.260   9.910  0.5864  0.4929  1.0404
39732SOL     OW27973   2.331   7.450  12.561 -0.2094 -0.5427 -0.3555
39732SOL    HW127974   2.347   7.545  12.566 -2.3277 -0.1837  0.6402
39732SOL    HW227975   2.284   7.438  12.479  0.5984 -0.8370 -0.7819
39733SOL     OW27976  11.047   4.454   2.855 -0.4149  0.3913  0.4696
39733SOL    HW127977  10.993   4.483   2.928 -1.5579  1.4808 -0.7505
39733SOL    HW227978  11.074   4.365   2.878 -0.8158  0.6718  2.1461
39734SOL     OW27979  10.313   7.228   3.364 -0.3369  0.2656 -0.2959
39734SOL    HW127980  10.358   7.259   3.443  0.7134  0.0335 -0.7788
39734SOL    HW227981  10.321   7.300   3.302  0.1097 -0.0867 -0.6581
39735SOL     OW27982   9.766   4.663   2.813  0.7844  0.4099  0.5272
39735SOL    HW127983   9.820   4.690   2.738  0.7490  1.4847  0.8754
39735SOL    HW227984   9.760   4.568   2.805  1.4940  0.4269 -0.3554
39736SOL     OW27985   8.038   2.328   0.355  0.6860  0.0022  0.4167
39736SOL    HW127986   7.997   2.244   0.332  0.1119  0.7070 -1.2533
39736SOL    HW227987   8.116   2.332   0.300 -0.3739  1.4431 -1.0630
39737SOL     OW27988   5.809   8.744   0.683  0.4944  0.6211  0.1768
39737SOL    HW127989   5.739   8.758   0.746  0.1621  0.3223 -0.1199
39737SOL    HW227990   5.889   8.760   0.732  0.3888 -2.0938  1.4266
39738SOL     OW27991   2.853   5.805   5.921 -0.7568  0.0343 -0.1764
39738SOL    HW127992   2.808   5.883   5.888  0.4089 -0.1021 -2.2301
39738SOL    HW227993   2.919   5.785   5.855  0.2829 -1.5680  1.2599
39739SOL     OW27994   6.853   3.304  11.219 -0.2922 -0.0000  0.1338
39739SOL    HW127995   6.944   3.274  11.227 -0.1747  0.2004 -0.4531
39739SOL    HW227996   6.843   3.370  11.288 -0.1547 -0.3994  0.5466
39740SOL     OW27997   0.272  11.470   1.503 -0.8880 -0.4999  0.1412
39740SOL    HW127998   0.215  11.477   1.580 -0.7543 -1.3035  0.3168
39740SOL    HW227999   0.213  11.440   1.434 -1.0416  0.3720 -0.1237
39741SOL     OW28000   1.456   7.784   3.383  0.0880  0.2890 -0.4592
39741SOL    HW128001   1.410   7.812   3.462  0.4749 -0.0894 -0.1023
39741SOL    HW228002   1.446   7.858   3.323  0.7394  1.0275  0.3275
39742SOL     OW28003   9.344   8.346   4.089 -0.0229 -0.5602  0.8375
39742SOL    HW128004   9.419   8.315   4.039  0.6080  0.0757  1.3578
39742SOL    HW228005   9.354   8.305   4.175  0.0024 -0.0849  1.0640
39743SOL     OW28006  11.443   6.835   6.433  0.2026  0.5080 -0.1720
39743SOL    HW128007  11.407   6.923   6.419 -1.3169  0.0933  0.8983
39743SOL    HW228008  11.502   6.822   6.359 -0.2157  2.0869 -0.8342
39744SOL     OW28009   1.295   7.881  11.279  0.6698 -0.1057 -0.0570
39744SOL    HW128010   1.303   7.962  11.329  0.6840  0.3054 -0.7136
39744SOL    HW228011   1.210   7.846  11.304 -1.4139  2.3622 -2.9533
39745SOL     OW28012  10.433   6.947  10.408 -0.8017  0.4551 -0.3582
39745SOL    HW128013  10.383   6.889  10.466 -0.3220  1.9640  1.6770
39745SOL    HW228014  10.367   7.006  10.372 -0.9336  0.3394 -0.3106
39746SOL     OW28015   5.314   0.463   9.297  0.4006 -0.1397 -0.2436
39746SOL    HW128016   5.388   0.523   9.303 -0.6170  1.1059  0.5012
39746SOL    HW228017   5.346   0.390   9.245  2.5868 -0.3466  1.2657
39747SOL     OW28018   4.100   5.590   8.712 -0.3697  0.1318 -0.5146
39747SOL    HW128019   4.114   5.685   8.719 -1.7189  0.3144 -0.1045
39747SOL    HW228020   4.026   5.572   8.769  0.5681 -1.3586  0.2927
39748SOL     OW28021   7.636  11.425   5.822 -0.7982  0.4426 -0.2496
39748SOL    HW128022   7.622  11.479   5.899  2.0300  0.1194  0.6076
39748SOL    HW228023   7.622  11.335   5.853 -1.2007  0.4087 -0.5253
39749SOL     OW28024   8.287   4.035   0.933  0.6685  0.2317 -0.2627
39749SOL    HW128025   8.210   4.078   0.895  1.4409  1.3349 -0.6286
39749SOL    HW228026   8.359   4.056   0.874  1.4451  0.0355  0.5819
39750SOL     OW28027  12.227   1.594   2.796  0.3308  0.2187 -0.6703
39750SOL    HW128028  12.157   1.656   2.818  0.1110 -0.0404 -0.6250
39750SOL    HW228029  12.307   1.647   2.795  0.2379  0.3863  0.0030
39751SOL     OW28030   8.837   6.373   0.006  0.5031  0.4974  0.1737
39751SOL    HW128031   8.756   6.401  -0.035  0.2980 -1.1609 -0.6400
39751SOL    HW228032   8.822   6.281   0.029  1.7776  0.4652  0.9861
39752SOL     OW28033   5.765   8.378   4.678 -0.3940 -0.4880 -0.1041
39752SOL    HW128034   5.859   8.396   4.685 -0.1892 -2.0816  3.8635
39752SOL    HW228035   5.753   8.348   4.588  2.6066  0.9211 -1.1232
39753SOL     OW28036   9.558   4.858   2.625 -0.8743 -0.4331  0.4482
39753SOL    HW128037   9.649   4.846   2.600 -0.8127 -1.8483  1.2635
39753SOL    HW228038   9.559   4.862   2.721 -1.5869  0.4188  0.4447
39754SOL     OW28039   1.475  10.613   0.025 -0.0655 -0.6581  0.4176
39754SOL    HW128040   1.496  10.704   0.005  0.8836 -0.8060  0.6493
39754SOL    HW228041   1.438  10.578  -0.056  1.8386 -0.7107 -0.4950
39755SOL     OW28042   8.592   3.894   3.390 -0.1297 -0.2738  0.0260
39755SOL    HW128043   8.501   3.920   3.378  0.5516  1.2932 -2.2286
39755SOL    HW228044   8.638   3.975   3.412  0.6620 -1.1788  2.0345
39756SOL     OW28045  11.145   7.510   5.910  0.3657  0.2698  0.2920
39756SOL    HW128046  11.112   7.536   5.824 -1.1676 -0.7023  0.5421
39756SOL    HW228047  11.212   7.445   5.893 -0.4167 -0.4271 -0.1606
39757SOL     OW28048   2.169  10.534   5.466  0.1125  0.5458  0.1481
39757SOL    HW128049   2.171  10.576   5.552 -0.4567 -0.6116  0.7442
39757SOL    HW228050   2.093  10.476   5.469  0.8561 -0.5192 -0.6508
39758SOL     OW28051   4.296   9.572   6.628  0.0485 -0.0446  0.2645
39758SOL    HW128052   4.346   9.557   6.548  0.3372  0.6925  0.2969
39758SOL    HW228053   4.358   9.614   6.688  0.0018 -1.0981  1.0854
39759SOL     OW28054  10.682   9.164   4.519  0.3380 -0.1162  0.3513
39759SOL    HW128055  10.705   9.246   4.563  0.3594  0.0249  0.0829
39759SOL    HW228056  10.592   9.147   4.544  0.1865  0.2264  0.0536
39760SOL     OW28057   7.808   3.690   4.029 -0.3134 -0.3300 -0.2023
39760SOL    HW128058   7.865   3.767   4.028 -0.3041 -0.2939 -2.3283
39760SOL    HW228059   7.743   3.708   4.096  0.3479  1.0280  0.0951
39761SOL     OW28060   6.853   1.628   4.581 -0.5177 -0.1925  0.4252
39761SOL    HW128061   6.790   1.558   4.563 -1.3771  0.9938 -1.4237
39761SOL    HW228062   6.814   1.676   4.654 -1.5919  0.2742 -0.4263
39762SOL     OW28063   6.062   0.628   3.443 -0.2965 -0.0867 -0.1364
39762SOL    HW128064   6.044   0.721   3.428 -0.8190  0.1550  1.6953
39762SOL    HW228065   6.034   0.585   3.362 -2.7335  1.0634  0.0025
39763SOL     OW28066   0.953   7.699   9.395  0.1418 -0.6151  0.2928
39763SOL    HW128067   0.874   7.706   9.448  0.6159 -0.3267  0.9897
39763SOL    HW228068   0.929   7.735   9.310 -0.9303 -2.0616 -0.0501
39764SOL     OW28069   1.437   9.534   3.148  0.2541  0.0384 -0.7525
39764SOL    HW128070   1.463   9.442   3.149  1.6140  0.4017  0.1767
39764SOL    HW228071   1.343   9.532   3.166  0.7776 -1.0766  2.8798
39765SOL     OW28072   1.913   2.737   9.039 -0.0553 -0.3546  0.0581
39765SOL    HW128073   1.979   2.676   9.072  0.5827 -0.6512 -1.6657
39765SOL    HW228074   1.892   2.705   8.952 -1.6368  0.4214  0.1084
39766SOL     OW28075   9.298   9.388  11.626 -0.8066 -0.3801 -0.1899
39766SOL    HW128076   9.243   9.316  11.657  0.8812 -2.2043 -1.1813
39766SOL    HW228077   9.381   9.346  11.603  0.6535  2.0814  0.2353
39767SOL     OW28078  10.759   5.548   8.994 -0.5061  0.9615  0.0280
39767SOL    HW128079  10.828   5.609   8.968  0.4498 -0.9101 -2.0412
39767SOL    HW228080  10.800   5.493   9.060  0.0430 -0.1541 -1.2051
39768SOL     OW28081   0.211   0.367  11.122 -0.3631 -0.5734  0.4774
39768SOL    HW128082   0.218   0.448  11.172 -1.0799  0.6180 -1.2519
39768SOL    HW228083   0.214   0.298  11.188  0.6963  0.8216  1.9690
39769SOL     OW28084   7.957   5.444   0.393  0.1451 -0.5278 -0.0481
39769SOL    HW128085   8.019   5.398   0.450  0.7980 -1.3966 -1.3859
39769SOL    HW228086   7.877   5.392   0.397  0.5136 -1.1536 -0.6791
39770SOL     OW28087   7.506   1.688   1.989 -0.6107  0.3869  0.1380
39770SOL    HW128088   7.524   1.777   1.957 -2.8682  1.3764  1.3564
39770SOL    HW228089   7.494   1.636   1.910  2.5220  0.6612 -0.6503
39771SOL     OW28090  10.387   5.019   6.508  0.0290 -0.2894  0.0326
39771SOL    HW128091  10.316   5.067   6.465  0.1514 -1.6133 -1.7738
39771SOL    HW228092  10.348   4.934   6.531 -0.3567  0.7409  3.7139
39772SOL     OW28093   4.291   2.863   5.737  0.0667  0.3906 -0.5872
39772SOL    HW128094   4.238   2.941   5.722  1.6742  1.3419 -1.5240
39772SOL    HW228095   4.248   2.819   5.810 -1.0585  1.9724 -0.2468
39773SOL     OW28096   7.862   1.199   1.941 -0.3751  0.2101 -0.3530
39773SOL    HW128097   7.815   1.217   1.860  1.1728 -3.3293 -2.2705
39773SOL    HW228098   7.803   1.144   1.992  0.1605 -1.0592 -1.0512
39774SOL     OW28099   9.863   6.868   4.093  0.6493 -1.3223  0.1487
39774SOL    HW128100   9.834   6.875   4.002 -1.4975 -0.7866  0.8222
39774SOL    HW228101   9.792   6.822   4.137 -0.3457  2.0100  2.3464
39775SOL     OW28102   8.092   1.700   5.729  0.0567  0.4167 -0.2081
39775SOL    HW128103   8.119   1.792   5.722  1.1256  0.0070 -2.0901
39775SOL    HW228104   8.000   1.701   5.702 -0.3436  1.0796  1.0659
39776SOL     OW28105  11.020   9.973   5.140 -0.3609 -0.0275 -0.9055
39776SOL    HW128106  11.035  10.058   5.097 -0.1443 -0.7591 -2.3527
39776SOL    HW228107  11.085   9.915   5.101  0.5540 -0.5129  1.2351
39777SOL     OW28108   3.855   1.162   4.870 -0.2747 -0.4632  0.2896
39777SOL    HW128109   3.766   1.137   4.845  0.0213 -0.6415 -0.6270
39777SOL    HW228110   3.843   1.236   4.929 -1.0008  0.2428 -0.7083
39778SOL     OW28111   7.944   9.646  11.757 -0.0496  0.1254 -0.0534
39778SOL    HW128112   7.959   9.686  11.843  0.6236 -0.0857 -0.0672
39778SOL    HW228113   7.980   9.558  11.765 -2.6497 -0.9629  0.3818
39779SOL     OW28114   0.103   7.738   1.648  0.0430  0.3096  0.2388
39779SOL    HW128115   0.071   7.828   1.658  1.2959  0.9121 -0.8644
39779SOL    HW228116   0.086   7.698   1.733 -0.9849  1.4280  0.6059
39780SOL     OW28117   3.508   0.631  12.516  0.2072 -0.4625  0.1963
39780SOL    HW128118   3.431   0.673  12.478  0.5509 -0.1970 -0.2138
39780SOL    HW228119   3.486   0.621  12.609  0.2702  0.9698  0.3868
39781SOL     OW28120   5.485  11.531  10.347 -0.2567  0.1914 -0.3802
39781SOL    HW128121   5.536  11.456  10.378 -0.3408  0.1377 -0.3723
39781SOL    HW228122   5.518  11.605  10.397 -1.0033 -0.0471  0.4915
39782SOL     OW28123   2.738   8.599   1.417 -0.4998 -0.4691  0.6810
39782SOL    HW128124   2.670   8.637   1.360  0.9375  0.3542 -0.5657
39782SOL    HW228125   2.713   8.507   1.425 -2.0529 -0.0870  0.7214
39783SOL     OW28126   8.219   8.375   2.336 -0.2978 -0.2180 -0.5793
39783SOL    HW128127   8.178   8.317   2.401  0.0123 -0.3857 -0.5290
39783SOL    HW228128   8.273   8.316   2.283 -0.8807 -0.1448 -1.2583
39784SOL     OW28129   6.173   6.032   2.772 -0.1918  0.3748  0.2884
39784SOL    HW128130   6.134   6.040   2.859  0.7735  0.3581  0.7450
39784SOL    HW228131   6.104   6.057   2.711 -1.3784 -1.0946  0.9724
39785SOL     OW28132   1.717   6.988   7.749 -0.2510 -0.0939  0.0122
39785SOL    HW128133   1.704   6.895   7.767 -0.6652 -0.3031 -1.2846
39785SOL    HW228134   1.801   6.993   7.703  0.0066  0.2369  0.5062
39786SOL     OW28135   3.521   1.723  10.794 -0.0998 -0.0109 -0.2521
39786SOL    HW128136   3.594   1.782  10.813 -0.1154 -0.0540 -0.0551
39786SOL    HW228137   3.469   1.770  10.729 -0.8390  0.7899  0.8768
39787SOL     OW28138   7.891  11.514   9.279  0.3839  0.5717 -0.6169
39787SOL    HW128139   7.885  11.421   9.302  1.7389  0.6778  0.2792
39787SOL    HW228140   7.827  11.557   9.334  0.7748  0.3308  0.0371
39788SOL     OW28141   7.221   1.906  10.541 -0.0601 -0.0981 -0.1064
39788SOL    HW128142   7.134   1.889  10.578  0.1770  0.1169  0.5629
39788SOL    HW228143   7.218   1.866  10.454 -0.8389 -0.0673 -0.1007
39789SOL     OW28144   1.702   4.823  11.802 -0.4364  0.4736 -0.6646
39789SOL    HW128145   1.641   4.861  11.738  0.6535  0.7388 -1.5682
39789SOL    HW228146   1.742   4.898  11.846  0.0287  0.3263 -0.8336
39790SOL     OW28147   7.691   8.821  11.183  0.1110 -0.0940 -0.1119
39790SOL    HW128148   7.668   8.875  11.259 -0.1420 -0.6682  0.2292
39790SOL    HW228149   7.705   8.733  11.220 -0.4288 -0.4690 -0.7870
39791SOL     OW28150   2.677  10.139   1.647  0.0635  1.0182  0.2156
39791SOL    HW128151   2.747  10.182   1.598 -0.3636  0.3687 -1.0076
39791SOL    HW228152   2.598  10.189   1.625 -0.1169  0.7804  0.3212
39792SOL     OW28153  10.025   4.243  10.636  0.6518  0.1874 -0.7379
39792SOL    HW128154   9.986   4.183  10.571 -1.2153  1.4765 -0.9129
39792SOL    HW228155  10.003   4.330  10.603 -1.0837  0.8995  2.0044
39793SOL     OW28156  11.984  10.011  10.052 -0.3924 -0.1296  0.0471
39793SOL    HW128157  11.902  10.051  10.080 -1.7576 -3.2265  0.8372
39793SOL    HW228158  11.959   9.942   9.991  1.7313 -0.4932 -0.5115
39794SOL     OW28159   3.266   1.362   5.435  0.4642  0.1500  0.0991
39794SOL    HW128160   3.339   1.410   5.396 -1.4311  1.7579 -1.7141
39794SOL    HW228161   3.266   1.389   5.527  1.6862  0.7023 -0.0433
39795SOL     OW28162   8.280  10.320   2.589  0.0056 -0.2222  0.4972
39795SOL    HW128163   8.364  10.313   2.634 -0.1680 -1.0930  0.7026
39795SOL    HW228164   8.277  10.243   2.532 -1.5114 -1.3271  1.9561
39796SOL     OW28165   3.806   5.112   7.833 -0.0191 -0.1290 -0.2093
39796SOL    HW128166   3.742   5.176   7.801  0.6063  0.6880  0.1325
39796SOL    HW228167   3.891   5.156   7.823  0.3417 -0.5218  0.9122
39797SOL     OW28168   0.374  10.748   0.079  0.0523  0.4490 -0.1382
39797SOL    HW128169   0.347  10.827   0.125 -1.2875 -0.5344  0.8737
39797SOL    HW228170   0.362  10.769  -0.014 -0.2943  1.4308  0.1165
39798SOL     OW28171   2.927   0.696  11.007  0.1958 -0.1492 -0.0844
39798SOL    HW128172   2.923   0.789  11.027  1.0018  0.0465 -0.8118
39798SOL    HW228173   2.864   0.684  10.936  0.0028 -0.1867  0.0917
39799SOL     OW28174   4.470   5.978  10.244  0.4579 -0.4036 -0.0334
39799SOL    HW128175   4.388   5.968  10.292  0.4870  0.1368  0.1321
39799SOL    HW228176   4.444   5.983  10.153  0.4783 -2.5890 -0.2091
39800SOL     OW28177   0.114  11.566  10.109 -0.2152 -0.9120 -0.2517
39800SOL    HW128178   0.152  11.479  10.119  1.2831 -0.4389 -1.4534
39800SOL    HW228179   0.095  11.594  10.198 -0.1536 -2.2175  0.1987
39801SOL     OW28180   5.920   9.495  10.414  0.0646 -0.3392 -0.1794
39801SOL    HW128181   5.930   9.443  10.493  5.6722 -0.1404 -0.4142
39801SOL    HW228182   5.870   9.572  10.443 -0.0311 -1.3078  2.5480
39802SOL     OW28183   2.046   3.590  10.277 -0.1090 -0.6511  0.1832
39802SOL    HW128184   1.969   3.642  10.254  0.0446 -0.4779  0.0556
39802SOL    HW228185   2.014   3.526  10.341 -0.6035 -1.3314 -0.7227
39803SOL     OW28186   5.233  10.747  12.126  0.0980 -0.2566  0.4172
39803SOL    HW128187   5.211  10.821  12.069  0.1916  0.6205  1.4882
39803SOL    HW228188   5.327  10.756  12.141  0.8312 -2.5040 -2.0477
39804SOL     OW28189  11.751   1.619   7.937 -0.1054  0.5922 -0.0939
39804SOL    HW128190  11.830   1.668   7.913 -1.5141  2.8345 -0.4265
39804SOL    HW228191  11.756   1.612   8.033  1.3827 -0.9531 -0.2492
39805SOL     OW28192   9.906  10.653  12.132  0.2769  0.4841 -0.3406
39805SOL    HW128193   9.834  10.608  12.177  0.3077  0.0783 -0.7004
39805SOL    HW228194   9.909  10.740  12.173 -0.2667  0.4215 -0.1655
39806SOL     OW28195   0.811   1.584   7.357 -0.2423 -0.1968  0.0373
39806SOL    HW128196   0.854   1.664   7.327 -1.7444  1.0885  1.1183
39806SOL    HW228197   0.718   1.606   7.360 -0.7961 -2.2530 -0.3619
39807SOL     OW28198   4.886   3.014   9.375 -0.1199 -0.2206 -0.0898
39807SOL    HW128199   4.847   3.099   9.396 -1.6136 -0.8632 -0.1483
39807SOL    HW228200   4.820   2.950   9.403  0.5959 -1.3316 -0.8733
39808SOL     OW28201   7.945   5.068   8.353 -0.0952 -0.3926 -0.0251
39808SOL    HW128202   8.004   5.100   8.284  1.5875 -1.6129  0.7611
39808SOL    HW228203   7.905   4.990   8.315 -0.0289 -0.4240 -0.0319
39809SOL     OW28204   6.694   2.402   0.680 -0.4459  0.4477  0.0452
39809SOL    HW128205   6.599   2.401   0.691 -0.2905  0.1676  1.6327
39809SOL    HW228206   6.725   2.328   0.733  0.7268  1.2044  0.4595
39810SOL     OW28207   3.780   1.218   2.163  0.2578  0.4520 -0.0276
39810SOL    HW128208   3.766   1.268   2.243 -0.1896  1.6591 -0.8384
39810SOL    HW228209   3.854   1.261   2.121 -0.4939  0.7989 -1.0145
39811SOL     OW28210   9.316   3.334   1.521  0.8386 -0.8502  0.2310
39811SOL    HW128211   9.249   3.359   1.457  1.4607  0.9088  0.2141
39811SOL    HW228212   9.385   3.399   1.510  1.4154 -1.1169  1.9844
39812SOL     OW28213   1.208   3.762   9.005  0.3890  0.1643 -0.4992
39812SOL    HW128214   1.122   3.733   8.975  0.1858 -0.9031  1.0336
39812SOL    HW228215   1.193   3.794   9.093  1.1832  2.1609 -1.0428
39813SOL     OW28216   4.395   4.208   5.457 -0.0681  0.0577 -0.2760
39813SOL    HW128217   4.476   4.184   5.501  0.4120  1.7118 -0.1964
39813SOL    HW228218   4.335   4.233   5.527 -0.7286 -1.2651 -0.3247
39814SOL     OW28219   2.895   5.070   2.039 -0.2453 -0.3063 -0.3103
39814SOL    HW128220   2.962   5.138   2.032 -0.5701  0.5544  3.1165
39814SOL    HW228221   2.812   5.115   2.025 -0.4110 -0.0900  1.2025
39815SOL     OW28222  10.662  11.181  12.439  0.4928 -0.0545 -0.1768
39815SOL    HW128223  10.627  11.192  12.527 -0.4031 -2.8376 -0.0992
39815SOL    HW228224  10.730  11.115  12.448  0.8057  0.0580 -1.4939
39816SOL     OW28225   2.179  12.266  10.714 -0.1823  0.1083 -0.1828
39816SOL    HW128226   2.170  12.360  10.733  1.3854  0.1942  0.2629
39816SOL    HW228227   2.093  12.229  10.734 -0.9021  1.4795 -0.5975
39817SOL     OW28228   7.335   0.760   6.110  0.2911  0.3857 -0.1919
39817SOL    HW128229   7.428   0.749   6.093  0.0276 -1.8342 -0.4548
39817SOL    HW228230   7.319   0.707   6.188 -1.3336 -2.1813 -2.1207
39818SOL     OW28231   1.676   3.503   7.555 -0.9881 -0.0837 -0.0453
39818SOL    HW128232   1.678   3.525   7.648 -2.3198  0.5008 -0.1347
39818SOL    HW228233   1.667   3.408   7.553  0.3920 -0.2545  0.3862
39819SOL     OW28234   5.845   8.994   4.473 -0.5213 -0.4389  0.9126
39819SOL    HW128235   5.839   9.055   4.401 -2.5684 -2.7745 -1.0896
39819SOL    HW228236   5.770   9.015   4.529 -1.4152 -1.2487  0.0526
39820SOL     OW28237   9.911   2.931   1.503  0.3064 -0.7117 -0.1224
39820SOL    HW128238   9.934   3.009   1.553 -0.3522 -0.1102 -0.7479
39820SOL    HW228239   9.819   2.914   1.524  0.7462 -2.0497  0.9495
39821SOL     OW28240   2.107   4.805   4.623  0.4566  0.0420  0.7069
39821SOL    HW128241   2.037   4.784   4.684 -1.8094  0.0195 -1.7511
39821SOL    HW228242   2.095   4.745   4.550  1.8099  1.3961 -0.7094
39822SOL     OW28243   0.261   7.707   5.998 -0.3333  0.5079  0.1355
39822SOL    HW128244   0.317   7.632   5.982 -0.8140 -0.1443  1.3708
39822SOL    HW228245   0.228   7.731   5.912  0.5552 -0.1076 -0.3928
39823SOL     OW28246   0.703   7.451   5.110  0.1130 -0.7668  0.0219
39823SOL    HW128247   0.632   7.426   5.051 -0.8519 -0.5129  1.0346
39823SOL    HW228248   0.659   7.478   5.190  1.2545  1.3382 -0.0014
39824SOL     OW28249   5.424   3.792   8.483  0.4725 -0.2076  0.3741
39824SOL    HW128250   5.400   3.771   8.573  0.8165 -0.0392  0.5099
39824SOL    HW228251   5.475   3.716   8.454 -0.9538 -0.9747 -0.2211
39825SOL     OW28252   0.859  11.843   9.752  0.0587 -0.3811  0.1885
39825SOL    HW128253   0.821  11.758   9.775  0.8311 -0.8219 -0.1199
39825SOL    HW228254   0.786  11.893   9.717 -0.0643 -1.5425 -1.3049
39826SOL     OW28255   6.686   9.664   2.755 -0.0251  0.5058 -0.6164
39826SOL    HW128256   6.634   9.584   2.762  3.4106 -1.9864 -0.6464
39826SOL    HW228257   6.685   9.701   2.843 -1.5534  0.4067 -0.5661
39827SOL     OW28258   3.505   6.036   5.852  0.0074  0.0625 -0.0640
39827SOL    HW128259   3.486   6.116   5.802 -0.0345  1.8876  2.6324
39827SOL    HW228260   3.575   6.062   5.912  2.2878 -2.9152 -1.1692
39828SOL     OW28261   6.475   1.903   0.509 -0.1663  0.0945 -0.5043
39828SOL    HW128262   6.428   1.832   0.465  1.1067 -0.6476 -0.7326
39828SOL    HW228263   6.512   1.863   0.587  1.7223  0.0995 -1.3326
39829SOL     OW28264  12.092   8.842   3.120  0.2535 -0.1952 -0.1421
39829SOL    HW128265  12.135   8.918   3.157 -0.3580 -0.9088  2.2205
39829SOL    HW228266  12.004   8.843   3.158  0.6806 -2.7907  1.1394
39830SOL     OW28267   0.763   9.103   0.447 -0.1946  0.1992 -0.5518
39830SOL    HW128268   0.812   9.176   0.410  0.9239 -0.5345 -0.5738
39830SOL    HW228269   0.700   9.144   0.506 -1.1279  1.3055 -2.2445
39831SOL     OW28270   4.667   5.215   3.194  0.1171  0.2571  0.4150
39831SOL    HW128271   4.752   5.201   3.235  1.0169  1.4448 -0.9326
39831SOL    HW228272   4.676   5.177   3.107 -0.4075  1.1786 -0.0635
39832SOL     OW28273   6.275   3.817   6.649 -0.0837 -0.0177 -0.1897
39832SOL    HW128274   6.330   3.750   6.688 -0.5491  0.1666  0.8259
39832SOL    HW228275   6.307   3.899   6.685  0.5254  0.3344 -1.4759
39833SOL     OW28276  12.306  11.770  10.362  0.3336  0.6726  0.4045
39833SOL    HW128277  12.267  11.806  10.442 -2.4941  0.1355 -0.6195
39833SOL    HW228278  12.354  11.844  10.324  1.2690  1.0821  2.2795
39834SOL     OW28279  10.562   1.130   8.017 -0.3193  0.4620 -0.4750
39834SOL    HW128280  10.645   1.131   8.064 -1.6120  0.6075  1.9271
39834SOL    HW228281  10.576   1.068   7.945  1.2110 -1.2519  1.1781
39835SOL     OW28282   7.717   0.313   0.071  0.2363  0.2971  0.2523
39835SOL    HW128283   7.770   0.256   0.127  0.2385  0.4928  0.4498
39835SOL    HW228284   7.633   0.267   0.064 -0.1358  0.7836  1.3008
39836SOL     OW28285   3.932   8.823   3.533 -0.2036  0.1073 -0.1735
39836SOL    HW128286   3.891   8.758   3.590  0.8529 -0.9587 -0.5903
39836SOL    HW228287   3.884   8.904   3.550  1.6835  0.5892  4.2576
39837SOL     OW28288   5.983   2.742   5.372  0.2057  0.3561  0.0814
39837SOL    HW128289   5.921   2.814   5.386  0.3653  1.2845 -3.0956
39837SOL    HW228290   5.941   2.666   5.411 -1.8586  1.4271  0.0719
39838SOL     OW28291  12.316   1.895   1.838  0.0513  0.0324  0.2401
39838SOL    HW128292  12.310   1.974   1.892 -0.4839  0.7258 -0.8007
39838SOL    HW228293  12.248   1.837   1.873 -0.1073  0.3582  0.4781
39839SOL     OW28294   9.832   3.221   0.678 -0.6846  0.0967 -0.3614
39839SOL    HW128295   9.754   3.225   0.734 -0.9510 -0.2143 -0.7075
39839SOL    HW228296   9.888   3.156   0.720 -0.5058  0.4882  0.0161
39840SOL     OW28297   2.003   8.419   4.334  0.3291 -0.0755  0.1204
39840SOL    HW128298   2.075   8.355   4.341  1.8204  1.4359 -0.6895
39840SOL    HW228299   1.980   8.439   4.424  0.5151 -1.0078  0.3921
39841SOL     OW28300  12.597   7.940   8.327  0.4444 -0.3597 -0.2057
39841SOL    HW128301  12.555   7.907   8.248 -0.6419  0.5795 -0.0520
39841SOL    HW228302  12.644   8.018   8.298  0.8205 -0.5377 -0.0849
39842SOL     OW28303   8.516   1.374   6.539 -0.4010 -0.1245 -0.6289
39842SOL    HW128304   8.462   1.452   6.524  1.0597  0.7725 -1.4476
39842SOL    HW228305   8.560   1.358   6.456  0.8444 -0.6204  0.1003
39843SOL     OW28306  10.150   7.537   7.366  0.2407 -0.5922  0.1453
39843SOL    HW128307  10.194   7.618   7.393  1.6592 -1.2170 -0.2263
39843SOL    HW228308  10.057   7.554   7.383  0.6206  0.7054  1.0944
39844SOL     OW28309   4.379   5.421   1.310 -0.2269  0.1351  0.2299
39844SOL    HW128310   4.298   5.444   1.354 -0.2456 -0.7976  0.7062
39844SOL    HW228311   4.380   5.475   1.231 -1.4041  0.0038  0.1128
39845SOL     OW28312  11.053   7.512   1.369 -0.4019 -0.3839  0.3337
39845SOL    HW128313  11.050   7.425   1.330  2.2850 -0.7918  0.8740
39845SOL    HW228314  11.060   7.496   1.463  0.4953  0.4057  0.4161
39846SOL     OW28315   4.815   6.757  11.269  0.0674  0.4983  0.3189
39846SOL    HW128316   4.782   6.832  11.219  1.6971  1.9958  1.3571
39846SOL    HW228317   4.873   6.711  11.209  0.4858  1.1495  0.2146
39847SOL     OW28318   7.221   4.579   0.585  0.3890  0.4364  0.0195
39847SOL    HW128319   7.238   4.657   0.638  0.8343  0.1186  0.3535
39847SOL    HW228320   7.129   4.559   0.601  0.2607  0.9314 -0.1137
39848SOL     OW28321   9.995   3.266   1.160  0.3298 -0.2281 -0.3531
39848SOL    HW128322   9.997   3.329   1.088 -0.0635  0.2383  0.0286
39848SOL    HW228323   9.943   3.193   1.127  2.9170 -1.5866 -1.7430
39849SOL     OW28324   7.229   6.802  11.447 -0.1615  0.7645 -0.4909
39849SOL    HW128325   7.212   6.784  11.540 -2.3917 -0.0975 -1.0049
39849SOL    HW228326   7.143   6.817  11.409  0.4828 -0.7774 -2.7861
39850SOL     OW28327   0.550   6.714   3.671  0.1870  0.1679 -0.1083
39850SOL    HW128328   0.557   6.621   3.691 -1.0550  0.5704  2.7218
39850SOL    HW228329   0.467   6.741   3.712 -0.5643  2.1142 -2.6507
39851SOL     OW28330  12.029   8.650   5.163  0.0666 -0.3415  0.1801
39851SOL    HW128331  11.941   8.646   5.127 -0.3323  0.4777  1.0348
39851SOL    HW228332  12.086   8.633   5.088 -0.8044 -0.7701 -0.4033
39852SOL     OW28333   2.549   5.404   8.981 -0.2220  0.2160 -0.5440
39852SOL    HW128334   2.579   5.458   9.054  1.7797 -1.2628 -0.1550
39852SOL    HW228335   2.461   5.436   8.961 -1.2177  0.1707  3.0580
39853SOL     OW28336   6.386   4.278   7.089  0.3655  0.6158  0.1691
39853SOL    HW128337   6.366   4.372   7.093 -1.3496  0.2324  1.7831
39853SOL    HW228338   6.327   4.244   7.022  0.3162  0.5253  0.2595
39854SOL     OW28339  11.521   1.277   5.853 -0.1123  0.0010  0.1510
39854SOL    HW128340  11.523   1.333   5.931 -0.5960  0.1406  0.0625
39854SOL    HW228341  11.441   1.302   5.807 -0.2137 -0.6107 -0.0084
39855SOL     OW28342   2.277   9.892   3.349  0.0016 -0.0323  0.3146
39855SOL    HW128343   2.354   9.868   3.400  0.9895  0.7087 -0.7902
39855SOL    HW228344   2.212   9.825   3.370  1.3624 -1.3801  0.3166
39856SOL     OW28345   0.128   0.968   5.844 -0.9941 -0.4333 -0.5819
39856SOL    HW128346   0.139   0.939   5.753 -1.0964  0.6653 -0.9601
39856SOL    HW228347   0.038   0.945   5.865 -2.0371  2.0801 -1.8542
39857SOL     OW28348   5.642   3.504   1.391 -0.3363 -0.0427  0.3369
39857SOL    HW128349   5.677   3.441   1.329 -2.5408 -0.8315 -0.2103
39857SOL    HW228350   5.667   3.590   1.356  1.4537 -0.5319  0.3127
39858SOL     OW28351   1.385   2.514  11.695 -0.6268 -0.5656 -0.3282
39858SOL    HW128352   1.309   2.464  11.725 -0.5627  1.5901  4.1290
39858SOL    HW228353   1.349   2.594  11.657 -0.7088  0.3831  1.6400
39859SOL     OW28354   9.784   2.573   8.511  0.3576 -0.4700  0.1973
39859SOL    HW128355   9.814   2.518   8.438 -0.3370 -0.1966 -0.3058
39859SOL    HW228356   9.778   2.514   8.585  1.9428 -0.5799  0.2800
39860SOL     OW28357   6.056   3.291   5.163 -0.4669  0.2122  0.1472
39860SOL    HW128358   5.985   3.240   5.203  0.6191 -1.5878 -0.1023
39860SOL    HW228359   6.035   3.382   5.185 -2.3117 -0.3368  0.9103
39861SOL     OW28360  12.491   6.147   1.520  0.0824 -0.0236 -0.0163
39861SOL    HW128361  12.580   6.150   1.555  0.2656  1.2855 -0.5350
39861SOL    HW228362  12.482   6.058   1.483  1.5838  0.1861 -0.9749
39862SOL     OW28363   6.717  10.912  11.492  0.5923 -0.6747  0.3127
39862SOL    HW128364   6.775  10.907  11.568  2.2031  0.1332 -0.7942
39862SOL    HW228365   6.645  10.968  11.520  1.9672  0.9359  0.8153
39863SOL     OW28366  11.485   2.708   7.539  0.2347 -0.0654 -0.0446
39863SOL    HW128367  11.436   2.778   7.496  3.5297  0.9757 -2.6280
39863SOL    HW228368  11.484   2.636   7.476 -1.1261 -1.5381  1.5683
39864SOL     OW28369  11.303  11.869   9.082  0.0994 -0.4530  0.3403
39864SOL    HW128370  11.369  11.917   9.132  1.5269  1.5250 -3.0751
39864SOL    HW228371  11.220  11.911   9.104  0.6283  0.1040  1.3062
39865SOL     OW28372  11.225   6.484   9.758  0.7696  0.6484  0.1270
39865SOL    HW128373  11.218   6.423   9.832  2.8116  0.0584 -0.1139
39865SOL    HW228374  11.177   6.440   9.688  1.8688 -0.5506  0.0773
39866SOL     OW28375  12.330   3.722   5.450 -0.3976  0.0119 -0.0388
39866SOL    HW128376  12.384   3.707   5.528 -0.0823  0.0184 -0.2574
39866SOL    HW228377  12.370   3.669   5.382 -1.4673 -1.0505  0.1378
39867SOL     OW28378   8.615   0.903  12.370 -0.0205  0.4463 -0.5798
39867SOL    HW128379   8.623   0.938  12.459  0.1326 -0.2667 -0.3057
39867SOL    HW228380   8.531   0.857  12.371  0.9623 -1.4595 -0.1107
39868SOL     OW28381  11.613   3.833   6.901 -0.1121  0.1548  0.0319
39868SOL    HW128382  11.603   3.738   6.911 -1.9561 -0.1952 -3.5250
39868SOL    HW228383  11.687   3.843   6.841 -1.0842  0.7852 -1.1053
39869SOL     OW28384  11.708   2.626   9.300 -1.2547  0.0831  0.1858
39869SOL    HW128385  11.660   2.543   9.305  0.9633 -1.3347 -0.5507
39869SOL    HW228386  11.760   2.628   9.381  1.9328 -1.5017 -1.6147
39870SOL     OW28387   3.786   1.803   5.392  0.1329  0.2564  0.0259
39870SOL    HW128388   3.875   1.793   5.358 -0.1522 -0.5135 -0.5067
39870SOL    HW228389   3.731   1.751   5.333 -0.3652 -1.2634  1.7353
39871SOL     OW28390   8.644   5.943   3.927  0.0113  0.3575  0.1555
39871SOL    HW128391   8.557   5.938   3.888 -0.0899  1.2041  0.2491
39871SOL    HW228392   8.633   5.905   4.015 -0.1010 -0.1841 -0.0922
39872SOL     OW28393   3.520   6.609   7.237  0.1671 -0.2765 -0.8473
39872SOL    HW128394   3.483   6.603   7.149 -2.0945  1.1262 -0.0708
39872SOL    HW228395   3.445   6.624   7.294  1.6047 -0.8216  1.3106
39873SOL     OW28396  10.875   4.070   2.259 -0.0984  0.0265 -0.0554
39873SOL    HW128397  10.902   3.978   2.260  2.6569  0.6672 -2.3075
39873SOL    HW228398  10.920   4.108   2.335 -1.6423 -0.4870  1.1799
39874SOL     OW28399   9.101   9.918   2.017  0.0507 -0.1171  0.5703
39874SOL    HW128400   9.048   9.966   1.954 -1.4299 -3.5813 -1.0814
39874SOL    HW228401   9.038   9.868   2.069  1.4879 -1.8690  0.7393
39875SOL     OW28402  10.308   0.028   8.180  0.0307 -0.1427  0.3825
39875SOL    HW128403  10.289  -0.023   8.260 -1.3325  1.0242  0.8421
39875SOL    HW228404  10.241   0.096   8.179  1.4501  1.3065 -0.5284
39876SOL     OW28405   6.048  10.044   1.817 -0.0482  0.2512 -0.3571
39876SOL    HW128406   6.063  10.126   1.771  1.2078 -0.2579 -0.8911
39876SOL    HW228407   5.954  10.029   1.808 -0.3763  1.8052  0.0870
39877SOL     OW28408   4.975   5.507   0.203 -0.6369  0.0075 -0.2108
39877SOL    HW128409   4.901   5.562   0.178 -0.0786  1.6472  1.5038
39877SOL    HW228410   4.937   5.439   0.258 -0.6676  2.8790  3.7468
39878SOL     OW28411   1.041  11.694   6.595  0.2837  0.3315  0.1970
39878SOL    HW128412   1.093  11.621   6.562 -0.1382  0.0462  0.1547
39878SOL    HW228413   1.084  11.772   6.559 -0.0165  0.0392 -0.8381
39879SOL     OW28414   3.801   5.071   3.027 -0.4676 -0.3695 -0.0892
39879SOL    HW128415   3.824   5.133   2.959 -2.3717  1.5353  0.8931
39879SOL    HW228416   3.885   5.044   3.065  0.4507  0.7010 -1.2936
39880SOL     OW28417   8.023   7.499  11.153 -0.2995  0.2506  0.0860
39880SOL    HW128418   7.931   7.518  11.136 -0.1409 -0.3926 -1.7418
39880SOL    HW228419   8.061   7.484  11.066  1.4288  0.0492  0.8306
39881SOL     OW28420  10.866   1.956   2.617 -0.5707  0.2296  0.2576
39881SOL    HW128421  10.910   1.988   2.538 -1.4944  2.3245  0.5380
39881SOL    HW228422  10.772   1.965   2.598 -0.9102 -2.0825  0.5078
39882SOL     OW28423   7.361   9.839   3.493  0.2813  0.2595  0.1241
39882SOL    HW128424   7.397   9.927   3.501 -0.9434  0.6264  2.3631
39882SOL    HW228425   7.425   9.783   3.538 -0.4260  0.4914  1.4717
39883SOL     OW28426  11.104   8.959  10.313 -0.0422 -0.1210  0.1877
39883SOL    HW128427  11.177   8.985  10.370  0.0448  0.8269 -0.3301
39883SOL    HW228428  11.030   9.010  10.345  0.1248  0.8082 -0.8296
39884SOL     OW28429   1.781  10.759   6.438 -0.5485  0.0719 -0.0103
39884SOL    HW128430   1.775  10.667   6.462  0.5402  0.5691  2.5662
39884SOL    HW228431   1.867  10.768   6.397 -0.8128 -0.0866 -0.6206
39885SOL     OW28432   9.138  10.624   2.449  0.1385  0.0549 -0.0379
39885SOL    HW128433   9.208  10.670   2.496  0.7744 -1.0331  0.1218
39885SOL    HW228434   9.140  10.662   2.361  0.5540  0.4344  0.1268
39886SOL     OW28435   5.800  10.933  11.605 -0.1787 -0.0885 -0.3167
39886SOL    HW128436   5.863  11.000  11.580 -1.0809  0.4448 -1.2430
39886SOL    HW228437   5.842  10.850  11.580  0.8594  0.1277  0.6621
39887SOL     OW28438   8.988   2.504  12.156 -0.3594  0.2341 -0.9908
39887SOL    HW128439   8.923   2.505  12.086 -1.5595 -0.8557  0.0565
39887SOL    HW228440   9.007   2.411  12.170 -1.6579  0.2557  1.4352
39888SOL     OW28441   4.912   5.207  11.245 -0.3000 -0.4202 -0.0923
39888SOL    HW128442   4.844   5.270  11.222  1.4123  0.7569 -2.4072
39888SOL    HW228443   4.895   5.132  11.189 -0.2984 -0.5665  0.1020
39889SOL     OW28444  11.371   6.731  12.314  0.2841  0.1597  0.5929
39889SOL    HW128445  11.279   6.719  12.290  0.6095 -3.3409  0.4760
39889SOL    HW228446  11.416   6.743  12.231 -0.0904  2.8610  0.7133
39890SOL     OW28447   3.060  11.662   4.276  0.0674  0.0442 -0.3309
39890SOL    HW128448   2.974  11.698   4.255 -0.5633 -0.3751  1.4078
39890SOL    HW228449   3.106  11.733   4.320 -0.6728 -0.7669  1.8454
39891SOL     OW28450   0.217  10.709   0.819 -0.1446  0.1485  0.1156
39891SOL    HW128451   0.243  10.797   0.790 -2.1676  0.6042 -0.4547
39891SOL    HW228452   0.261  10.650   0.758 -0.7380  0.8959 -1.0677
39892SOL     OW28453   6.989   3.660   9.105 -0.0426 -0.2617 -0.1072
39892SOL    HW128454   7.056   3.728   9.111 -1.1560  0.8829 -0.1126
39892SOL    HW228455   6.995   3.628   9.015 -1.0950  1.5938 -0.9132
39893SOL     OW28456   7.845   1.794   5.933 -0.0555  0.2556  0.0787
39893SOL    HW128457   7.820   1.770   6.022 -2.3959  0.0188 -0.5564
39893SOL    HW228458   7.896   1.874   5.943 -1.9127  1.3544  1.5738
39894SOL     OW28459   7.407   0.144   1.401 -0.2926  0.2814  0.2563
39894SOL    HW128460   7.313   0.162   1.398 -0.6704 -1.5077 -2.8148
39894SOL    HW228461   7.446   0.212   1.346  0.5411  2.0418  2.8409
39895SOL     OW28462  11.170   1.814   0.609 -0.2062  0.2196  0.3462
39895SOL    HW128463  11.083   1.774   0.612 -0.1783  0.1805  2.8446
39895SOL    HW228464  11.212   1.786   0.690  3.3000 -2.1104 -2.0278
39896SOL     OW28465  11.015   5.323   8.596  0.0687  0.3499  0.2859
39896SOL    HW128466  10.947   5.263   8.627  0.8766 -0.5037  0.4717
39896SOL    HW228467  11.043   5.370   8.675  0.1998  0.1634  0.3531
39897SOL     OW28468  11.843   9.998  10.378 -0.0047  0.0419 -0.3060
39897SOL    HW128469  11.860   9.906  10.397 -0.4187 -0.0274 -0.2661
39897SOL    HW228470  11.811   9.998  10.288  0.0896  0.1580 -0.3396
39898SOL     OW28471   1.759   8.778   5.721 -0.0733 -0.3220 -0.5883
39898SOL    HW128472   1.819   8.707   5.696  0.1786 -0.4459  0.3413
39898SOL    HW228473   1.715   8.802   5.639 -2.7075 -3.8871 -0.4954
39899SOL     OW28474   3.431   6.514   6.527  0.0595 -0.4723 -0.0713
39899SOL    HW128475   3.509   6.461   6.511  0.6267  0.3216  0.0258
39899SOL    HW228476   3.358   6.454   6.511  0.6691 -0.9851 -1.0267
39900SOL     OW28477   4.708   7.301  11.804  0.2416 -0.6154  0.0998
39900SOL    HW128478   4.798   7.270  11.793 -0.3576 -2.6072  0.3951
39900SOL    HW228479   4.697   7.311  11.898  0.4645  0.7311  0.0051
39901SOL     OW28480   0.199   6.898   3.843  0.6485 -0.1829  0.1173
39901SOL    HW128481   0.255   6.847   3.902  1.1581  0.1575 -0.0691
39901SOL    HW228482   0.220   6.866   3.756  0.7953  0.1719  0.0195
39902SOL     OW28483   1.382  11.327   0.463  0.9435  0.0034  0.2001
39902SOL    HW128484   1.377  11.331   0.367 -2.2602 -0.6872  0.2077
39902SOL    HW228485   1.368  11.418   0.491 -5.0381 -0.4199 -0.1279
39903SOL     OW28486   8.028   7.719   7.867  0.3966  0.3451  0.1785
39903SOL    HW128487   7.966   7.733   7.796 -0.9002  1.6576  1.4888
39903SOL    HW228488   8.084   7.796   7.866  0.7795  0.0733  0.2095
39904SOL     OW28489   9.715   7.203   5.190 -0.2382  0.0382  0.1603
39904SOL    HW128490   9.757   7.117   5.186  2.3054  1.2058 -0.1938
39904SOL    HW228491   9.742   7.238   5.275 -0.7715  0.7092  0.0529
39905SOL     OW28492  11.835   3.220   3.108  0.2453 -0.3502 -0.3680
39905SOL    HW128493  11.927   3.218   3.136  0.2411 -1.7706 -0.3865
39905SOL    HW228494  11.833   3.287   3.041  0.6536  1.7780  1.6072
39906SOL     OW28495   5.079   2.419   6.984 -0.3107 -0.4579 -0.0679
39906SOL    HW128496   5.007   2.462   7.032 -1.1507  0.6750 -2.2031
39906SOL    HW228497   5.042   2.400   6.898  1.4813 -1.3466 -0.6852
39907SOL     OW28498   1.141   4.339   1.728  0.7922  0.2369  0.4196
39907SOL    HW128499   1.182   4.284   1.795 -1.3025 -1.0100  0.7518
39907SOL    HW228500   1.109   4.415   1.777 -3.2823 -1.9521  1.5955
39908SOL     OW28501   3.618   0.833  10.845 -0.1407 -0.2041  0.6584
39908SOL    HW128502   3.605   0.904  10.907 -1.3797  0.3599 -0.2192
39908SOL    HW228503   3.705   0.849  10.808 -1.1656  2.0875 -0.9995
39909SOL     OW28504   4.151   9.290   2.589  0.5366  0.0961  0.7863
39909SOL    HW128505   4.106   9.357   2.537  1.6269 -0.3008 -0.7432
39909SOL    HW228506   4.119   9.207   2.553  0.6711 -0.1950  1.3361
39910SOL     OW28507   0.238   5.468   5.018 -0.3398 -0.0113  0.2625
39910SOL    HW128508   0.240   5.486   4.924  1.5685 -2.3347 -0.2409
39910SOL    HW228509   0.161   5.515   5.050 -0.7627  1.2514 -2.3507
39911SOL     OW28510   6.517   7.630   7.431  0.3808  0.6246  0.2950
39911SOL    HW128511   6.449   7.695   7.415 -1.3703 -1.1501  0.0312
39911SOL    HW228512   6.543   7.601   7.344  0.4775  0.3389  0.4162
39912SOL     OW28513   7.091   4.423   1.487 -0.3318  0.3581 -0.4385
39912SOL    HW128514   7.062   4.468   1.566 -0.5132 -0.3040 -0.1160
39912SOL    HW228515   7.185   4.436   1.484 -0.2992  0.2294 -0.0098
39913SOL     OW28516   4.888   6.949   6.419  0.0447 -0.3417 -0.4122
39913SOL    HW128517   4.829   7.009   6.373 -0.7708 -0.0930  0.8901
39913SOL    HW228518   4.838   6.868   6.426 -0.0640 -0.2117  0.4641
39914SOL     OW28519   0.342   3.578   8.297 -0.4503 -0.2043  0.7183
39914SOL    HW128520   0.418   3.523   8.280 -0.2948  0.5489 -1.3362
39914SOL    HW228521   0.323   3.566   8.390  3.3000  1.0166  1.7881
39915SOL     OW28522   5.645   4.106  10.028  0.3327  0.0824  0.3046
39915SOL    HW128523   5.704   4.107  10.103  0.0817  1.9556  0.5250
39915SOL    HW228524   5.642   4.197   9.999 -1.3259 -0.2322 -0.6018
39916SOL     OW28525   6.376  10.435   7.533 -0.7306  0.1573  0.7798
39916SOL    HW128526   6.393  10.344   7.556 -0.4808 -0.1474 -0.5223
39916SOL    HW228527   6.431  10.486   7.592  0.1070 -0.5975  0.6604
39917SOL     OW28528   9.660  12.273   3.932  0.5858 -0.1059  0.0264
39917SOL    HW128529   9.592  12.245   3.870  0.6026  0.4701 -0.2632
39917SOL    HW228530   9.704  12.345   3.887 -0.1095  1.0642  1.1461
39918SOL     OW28531   8.105   9.668  11.402 -0.6264 -0.4996 -0.3000
39918SOL    HW128532   8.098   9.632  11.313 -0.3382  1.7047 -1.2785
39918SOL    HW228533   8.018   9.653  11.440 -0.3565 -2.6605 -0.4323
39919SOL     OW28534   3.549   7.880   2.644 -0.5641  0.1975 -0.5219
39919SOL    HW128535   3.587   7.890   2.556 -0.7181 -0.0336 -0.6157
39919SOL    HW228536   3.603   7.936   2.700  3.1719 -3.7145  0.3106
39920SOL     OW28537   7.607  11.821   5.112 -0.4527  0.1857  0.3311
39920SOL    HW128538   7.532  11.840   5.169 -1.1655  1.5101 -0.9808
39920SOL    HW228539   7.644  11.740   5.147 -1.4187  0.4538  2.0866
39921SOL     OW28540   0.145   0.569   5.723  0.2916  0.2547  0.9613
39921SOL    HW128541   0.075   0.555   5.659  1.2100  0.7944 -0.2074
39921SOL    HW228542   0.216   0.611   5.672  1.3389  0.0065  2.1664
39922SOL     OW28543   7.508   9.484   4.126 -0.0143 -0.1228 -0.0320
39922SOL    HW128544   7.559   9.565   4.136 -2.0389  1.2802 -0.3712
39922SOL    HW228545   7.440   9.491   4.192 -0.2001 -1.6118 -0.0453
39923SOL     OW28546   3.882   7.185   9.585  0.5633  0.5823  0.0012
39923SOL    HW128547   3.943   7.120   9.620 -2.1304 -1.5025  1.0939
39923SOL    HW228548   3.880   7.254   9.651  1.8905  0.8258 -0.1809
39924SOL     OW28549  12.317   2.873  10.558 -0.0129  0.1843 -0.2984
39924SOL    HW128550  12.231   2.835  10.539 -0.2567  0.8189 -0.4654
39924SOL    HW228551  12.336   2.929  10.483 -0.3890  1.6828  0.6750
39925SOL     OW28552  10.757   9.081   7.075 -0.0901 -0.1820 -0.0132
39925SOL    HW128553  10.853   9.072   7.075  0.1861  2.2426 -0.0980
39925SOL    HW228554  10.742   9.175   7.071 -2.5097 -0.5640 -1.5061
39926SOL     OW28555   1.260  10.932   0.558  0.5506 -0.2602 -0.2497
39926SOL    HW128556   1.299  10.977   0.484  0.5608  0.5663  0.2523
39926SOL    HW228557   1.181  10.890   0.523  1.0422 -0.6421 -0.9173
39927SOL     OW28558  11.129  12.466  12.316 -0.0186 -0.5604  0.0554
39927SOL    HW128559  11.221  12.460  12.291 -0.0437 -0.0098 -0.1717
39927SOL    HW228560  11.128  12.524  12.392 -0.3452  0.7332 -0.9131
39928SOL     OW28561  10.137   4.235   3.702 -0.1439 -0.2229  0.0091
39928SOL    HW128562  10.057   4.273   3.739 -0.4129 -1.1720  0.4327
39928SOL    HW228563  10.124   4.238   3.607 -0.3092  0.4183  0.0502
39929SOL     OW28564  10.775   0.050   8.666  0.3475 -0.1200  0.4100
39929SOL    HW128565  10.863   0.079   8.642 -0.2489  0.7299 -0.8411
39929SOL    HW228566  10.780  -0.046   8.666  1.0401 -0.0905 -0.5750
39930SOL     OW28567  12.164   1.326   6.325  0.0313  0.1348 -0.1646
39930SOL    HW128568  12.118   1.243   6.315 -1.1371  0.9068 -1.5473
39930SOL    HW228569  12.178   1.334   6.420  0.6660 -1.8657 -0.0456
39931SOL     OW28570   3.603   4.153   7.208  0.0773 -0.5559 -0.4992
39931SOL    HW128571   3.608   4.058   7.205 -0.9935 -0.6333 -0.3260
39931SOL    HW228572   3.534   4.172   7.271  2.0139  0.4231  1.4747
39932SOL     OW28573  12.423   2.361  10.056 -0.0772  0.4480 -0.6567
39932SOL    HW128574  12.390   2.356  10.146 -0.4636  0.8189 -0.7743
39932SOL    HW228575  12.400   2.275  10.018 -1.4759  0.9075 -0.9146
39933SOL     OW28576   6.236   4.456   9.659 -0.0728  0.4004 -0.4443
39933SOL    HW128577   6.272   4.518   9.722 -0.5402  1.9163 -1.5989
39933SOL    HW228578   6.221   4.376   9.709 -0.7384  1.6530  1.4411
39934SOL     OW28579   8.534   1.020   9.419  0.3815 -0.3557  0.2182
39934SOL    HW128580   8.576   1.102   9.392 -0.5376  0.6169  1.6312
39934SOL    HW228581   8.494   1.040   9.503 -1.6008 -1.6914 -0.3488
39935SOL     OW28582   6.084   1.689   3.963 -0.0614 -0.6575 -0.6006
39935SOL    HW128583   6.122   1.602   3.945 -1.5604 -1.3602 -0.4967
39935SOL    HW228584   6.059   1.722   3.876 -2.2343 -1.6613 -0.4117
39936SOL     OW28585   2.164   8.983   6.700  0.1846 -0.2228 -0.0886
39936SOL    HW128586   2.110   8.906   6.684  1.3448 -0.9117 -0.8603
39936SOL    HW228587   2.111   9.056   6.667  0.0860 -0.9777 -1.7142
39937SOL     OW28588  12.277   8.387   0.430 -0.4867  0.1871 -0.2684
39937SOL    HW128589  12.296   8.299   0.399 -0.0548 -0.5539  1.9142
39937SOL    HW228590  12.188   8.381   0.466 -0.4007  0.5902  0.0205
39938SOL     OW28591   2.804   6.574  10.132 -0.0440  0.0621  0.1582
39938SOL    HW128592   2.756   6.492  10.124  0.6178 -0.4665  1.3877
39938SOL    HW228593   2.809   6.607  10.042 -0.8312 -0.9334 -0.2748
39939SOL     OW28594  11.251   5.759   0.511  0.0602  0.0541 -0.3729
39939SOL    HW128595  11.159   5.743   0.490  0.4121 -1.5705 -0.8649
39939SOL    HW228596  11.250   5.833   0.571 -1.5821 -0.0235 -0.2630
39940SOL     OW28597   6.582   3.444   9.280  0.5233  0.3334 -0.3537
39940SOL    HW128598   6.525   3.435   9.356  1.0347 -0.9773 -0.0983
39940SOL    HW228599   6.668   3.464   9.316  0.5863  0.6058 -0.6431
39941SOL     OW28600  11.737  12.392  10.568 -0.2213  0.3321  0.4537
39941SOL    HW128601  11.814  12.339  10.589  0.1054  0.4983 -0.2622
39941SOL    HW228602  11.667  12.356  10.621  0.2347 -0.1517  0.7388
39942SOL     OW28603   2.189   7.556   6.027 -0.0221 -0.5340  0.0540
39942SOL    HW128604   2.261   7.614   6.054  0.5872 -0.7261 -1.0892
39942SOL    HW228605   2.217   7.469   6.056 -0.0255 -0.5381  0.0449
39943SOL     OW28606   1.832  11.759   2.443  0.5013  0.6747 -0.4502
39943SOL    HW128607   1.867  11.843   2.413  3.6720 -0.6380 -0.7475
39943SOL    HW228608   1.771  11.732   2.374  2.5276  0.8746 -2.4059
39944SOL     OW28609   1.345   4.521   7.504  0.0423 -0.0686  0.2755
39944SOL    HW128610   1.409   4.466   7.457 -0.7987 -0.2127 -0.7380
39944SOL    HW228611   1.310   4.580   7.437 -2.4760 -1.4445  0.2450
39945SOL     OW28612   9.229   3.707   1.554 -0.5868  0.1997  0.2686
39945SOL    HW128613   9.166   3.636   1.566 -1.6627  0.9990 -0.4968
39945SOL    HW228614   9.248   3.737   1.643  1.3594 -2.2234  0.8077
39946SOL     OW28615   9.635   2.019   2.292 -0.3502 -0.0966  0.0606
39946SOL    HW128616   9.554   2.023   2.241 -0.0083 -0.0426 -0.4872
39946SOL    HW228617   9.623   1.944   2.350 -1.0132  0.2398  0.3622
39947SOL     OW28618   9.790   8.716   6.917 -0.2298 -0.2264  0.0252
39947SOL    HW128619   9.817   8.625   6.925 -0.0907 -0.0443  2.1395
39947SOL    HW228620   9.859   8.765   6.961 -1.5910  0.6589  1.2471
39948SOL     OW28621   1.764   1.415   9.163  0.3447  0.0385  0.1549
39948SOL    HW128622   1.855   1.394   9.184 -0.0608  0.3011  2.4065
39948SOL    HW228623   1.768   1.501   9.121  1.1388 -0.1161 -0.1179
39949SOL     OW28624   6.928   0.782   5.033 -0.3917 -0.4311  0.0931
39949SOL    HW128625   6.997   0.756   5.095 -0.6452  2.1816  1.5721
39949SOL    HW228626   6.927   0.711   4.969  2.0833 -1.6952  1.2993
39950SOL     OW28627   8.148  11.473   1.767 -0.3605  0.1658  0.1496
39950SOL    HW128628   8.064  11.458   1.724 -1.1100 -1.6724  2.0638
39950SOL    HW228629   8.124  11.510   1.852  0.9457  1.7571 -0.1300
39951SOL     OW28630   3.971   5.830   3.004  0.3239 -0.5207 -0.2205
39951SOL    HW128631   4.048   5.841   3.059  0.5693  0.4141 -0.7332
39951SOL    HW228632   4.005   5.813   2.917 -0.0608 -1.3876 -0.2102
39952SOL     OW28633   5.488   4.439   7.386  0.2876 -0.2494 -0.0390
39952SOL    HW128634   5.459   4.348   7.387 -0.1105 -0.1675  2.2596
39952SOL    HW228635   5.477   4.468   7.477  0.7575  1.9827 -0.6410
39953SOL     OW28636   8.501  10.724   0.433 -0.6539  0.1674  0.8453
39953SOL    HW128637   8.417  10.732   0.479 -0.7533  1.3522  0.4867
39953SOL    HW228638   8.494  10.642   0.384 -1.3757 -0.0284  1.2612
39954SOL     OW28639   2.721   5.184   6.371  0.3689  0.2944  0.0377
39954SOL    HW128640   2.791   5.213   6.312 -0.2819 -0.3158 -1.0561
39954SOL    HW228641   2.687   5.265   6.408  0.2944  0.7483 -0.9956
39955SOL     OW28642   6.140   3.464   7.469 -0.1959  0.7118 -0.2411
39955SOL    HW128643   6.131   3.422   7.555 -2.3704  0.4882 -0.5382
39955SOL    HW228644   6.232   3.491   7.466  0.7561 -2.0071  0.8784
39956SOL     OW28645   6.943   9.376  12.320 -0.3174 -0.4413  0.2754
39956SOL    HW128646   6.849   9.374  12.298 -0.1686  1.3761 -0.7695
39956SOL    HW228647   6.945   9.369  12.416 -1.6439  0.9406  0.4518
39957SOL     OW28648  11.461   4.388   6.763  0.3449 -0.8779  0.0735
39957SOL    HW128649  11.487   4.322   6.829 -0.6918 -1.1025  0.2770
39957SOL    HW228650  11.523   4.375   6.691  0.0198 -2.2571  0.0084
39958SOL     OW28651  11.548   2.436   6.015  0.3291  0.0059  0.3793
39958SOL    HW128652  11.613   2.379   6.057  1.6025  3.2999  3.4990
39958SOL    HW228653  11.495   2.468   6.088 -0.1656  2.8437 -1.1019
39959SOL     OW28654   9.125   6.954   7.924  0.0790  0.1178 -0.7112
39959SOL    HW128655   9.071   7.023   7.884  1.2107  0.2231 -2.1436
39959SOL    HW228656   9.157   6.903   7.850 -0.3289 -1.6880  0.2928
39960SOL     OW28657   6.355   4.619   4.272 -0.0554 -0.7039 -0.4424
39960SOL    HW128658   6.338   4.596   4.180 -1.7934 -0.5010 -0.2090
39960SOL    HW228659   6.379   4.711   4.270  0.0233 -0.7302 -0.7131
39961SOL     OW28660  11.562   7.738   3.092 -0.2847  0.0826  0.2254
39961SOL    HW128661  11.477   7.748   3.135 -0.1107  0.2274  0.5487
39961SOL    HW228662  11.625   7.744   3.164 -0.1046 -2.8689  0.4037
39962SOL     OW28663   8.948   1.109   0.128  0.5160 -0.8777  0.0240
39962SOL    HW128664   8.918   1.134   0.216  0.4706 -1.0171  0.0478
39962SOL    HW228665   8.982   1.021   0.138  2.4800 -0.1409  0.3505
39963SOL     OW28666  11.697   7.113   1.001 -0.1185  0.2089  0.3976
39963SOL    HW128667  11.720   7.205   0.985  1.9924 -0.0969  1.4038
39963SOL    HW228668  11.629   7.094   0.936 -0.0624  2.2500 -0.3402
39964SOL     OW28669   3.837   7.987   2.115 -0.5314 -0.5057  0.4853
39964SOL    HW128670   3.779   7.913   2.095 -1.1495  0.1184 -0.0867
39964SOL    HW228671   3.778   8.058   2.138  0.0331  0.0238  0.3188
39965SOL     OW28672   4.175  11.386   8.591  0.7705  0.4311 -0.1190
39965SOL    HW128673   4.111  11.386   8.520 -0.3678 -0.0003  0.8534
39965SOL    HW228674   4.205  11.476   8.597  2.5874  0.0769 -2.5533
39966SOL     OW28675   7.885   1.884   9.343 -0.0896  0.3526  0.6172
39966SOL    HW128676   7.903   1.857   9.433 -0.4858  1.6846  1.1235
39966SOL    HW228677   7.972   1.896   9.304  0.1517  2.1642  1.6013
39967SOL     OW28678   8.791   2.167   3.200 -0.2168  0.3294  0.6056
39967SOL    HW128679   8.836   2.237   3.153 -2.1510  0.6741 -0.8418
39967SOL    HW228680   8.768   2.206   3.285  1.2021  0.4706  0.9626
39968SOL     OW28681   1.159   9.246   5.745  0.2252  0.2799 -0.3739
39968SOL    HW128682   1.208   9.168   5.719  0.5846  0.7327 -1.0983
39968SOL    HW228683   1.080   9.244   5.691 -0.5200 -0.3748  0.6948
39969SOL     OW28684   1.038  10.515  10.543 -0.2484 -0.1124  0.1176
39969SOL    HW128685   1.087  10.449  10.494  0.4450 -0.0422  0.6934
39969SOL    HW228686   0.946  10.491  10.532 -0.0711 -0.4055 -0.7622
39970SOL     OW28687   5.461   2.905   6.447 -0.4934 -0.5918  0.0125
39970SOL    HW128688   5.508   2.939   6.371 -0.2541  1.2599  0.9153
39970SOL    HW228689   5.496   2.817   6.460  0.8647 -0.2160 -0.8832
39971SOL     OW28690   4.535  10.525   4.774  0.4303  0.2679  0.3967
39971SOL    HW128691   4.624  10.495   4.793  0.9698  1.1574 -0.6153
39971SOL    HW228692   4.547  10.596   4.711 -1.1187 -0.9895 -1.4258
39972SOL     OW28693   1.367  12.279   0.451 -0.3318 -0.1175 -0.2051
39972SOL    HW128694   1.321  12.356   0.482  1.0662  0.9929 -0.8007
39972SOL    HW228695   1.297  12.221   0.420 -1.3801  1.2600 -0.5329
39973SOL     OW28696   4.571   9.021   6.695 -0.5854  0.1371 -0.0640
39973SOL    HW128697   4.505   9.059   6.638 -0.7816  0.8242  0.6024
39973SOL    HW228698   4.628   9.094   6.719 -0.6966 -0.0609  0.8709
39974SOL     OW28699  10.648  10.906   3.997  0.0836 -0.0104  0.3024
39974SOL    HW128700  10.657  10.943   3.909 -0.3910 -2.6453 -0.9342
39974SOL    HW228701  10.734  10.868   4.016 -0.9545 -3.4803 -1.0988
39975SOL     OW28702  10.908   9.830   0.004 -0.0155  0.5147 -0.4074
39975SOL    HW128703  10.923   9.901  -0.058 -3.3019  1.4037 -0.3677
39975SOL    HW228704  10.941   9.862   0.087  0.4684  1.1227 -0.8287
39976SOL     OW28705   3.057   6.448   7.309 -0.2982 -0.0861 -0.0185
39976SOL    HW128706   3.079   6.398   7.388  1.3490 -0.8506 -0.9321
39976SOL    HW228707   3.075   6.388   7.237 -2.1544  0.4637 -1.0050
39977SOL     OW28708   1.802   9.140   3.080  0.4553  0.2699  0.0243
39977SOL    HW128709   1.789   9.216   3.024  1.6111 -0.7818 -1.7943
39977SOL    HW228710   1.773   9.168   3.166 -1.0333  2.1120 -0.9932
39978SOL     OW28711   9.277   6.998   6.225  0.0559  0.2257  0.2179
39978SOL    HW128712   9.270   7.016   6.318  4.4237  0.6809  0.6582
39978SOL    HW228713   9.238   7.075   6.183 -0.9436  0.5381  1.6660
39979SOL     OW28714   2.691   2.133   1.035  0.1434  0.1366  0.1222
39979SOL    HW128715   2.610   2.111   1.081  0.0598  0.0835 -0.0500
39979SOL    HW228716   2.689   2.228   1.026 -0.1527  0.0869 -0.3486
39980SOL     OW28717   3.319   9.250   1.385 -0.3233  0.6770  0.2642
39980SOL    HW128718   3.266   9.290   1.454  0.1978  0.8794  0.5591
39980SOL    HW228719   3.370   9.323   1.350  0.6355  0.2956  0.8010
39981SOL     OW28720   9.417   0.289   1.714  0.2172 -0.3187  0.0432
39981SOL    HW128721   9.492   0.254   1.762  0.5797 -0.2490 -0.4600
39981SOL    HW228722   9.419   0.383   1.733 -0.1574 -0.4184  0.5862
39982SOL     OW28723   9.869  12.427   6.549 -0.1988 -0.2889  0.6043
39982SOL    HW128724   9.920  12.447   6.471 -1.7148  2.3146  0.1597
39982SOL    HW228725   9.926  12.450   6.622  0.1952  0.0824  0.1882
39983SOL     OW28726  12.280  11.826   7.073  0.4885  0.2003 -0.4097
39983SOL    HW128727  12.254  11.791   7.159 -0.3852  2.4007  0.3096
39983SOL    HW228728  12.291  11.749   7.018 -1.5406 -1.1832  0.9682
39984SOL     OW28729   4.360   9.268   5.289  0.1314 -0.1445 -0.3050
39984SOL    HW128730   4.452   9.273   5.265  0.7401 -0.2491  1.8799
39984SOL    HW228731   4.314   9.303   5.212  1.9651  0.0476 -1.3764
39985SOL     OW28732   5.067   6.489  12.211  0.5463 -0.8109  0.3256
39985SOL    HW128733   5.084   6.579  12.182 -0.5889 -1.0474 -1.2028
39985SOL    HW228734   5.153   6.456  12.239  1.1010  0.5061  0.2249
39986SOL     OW28735   9.545   7.849   1.777 -0.2788 -0.1033 -0.2915
39986SOL    HW128736   9.559   7.933   1.733  0.3881 -0.9614 -1.8215
39986SOL    HW228737   9.629   7.803   1.769 -0.2978 -0.5359  1.4459
39987SOL     OW28738   2.017   8.672   0.046 -0.0494 -0.1634  0.2598
39987SOL    HW128739   2.103   8.710   0.028  0.7199 -1.4387  1.0377
39987SOL    HW228740   1.967   8.686  -0.034  1.6952 -1.4890 -1.1574
39988SOL     OW28741   2.455   3.011   4.872 -0.1240 -0.1081 -0.1638
39988SOL    HW128742   2.427   3.082   4.930  0.6316  0.4488 -0.4723
39988SOL    HW228743   2.373   2.977   4.835 -0.6149 -0.4113  1.1377
39989SOL     OW28744   0.892   6.651  11.582 -0.2488 -0.3874 -0.3156
39989SOL    HW128745   0.975   6.677  11.621 -0.0636 -0.4607 -0.6489
39989SOL    HW228746   0.908   6.655  11.487 -0.7590  0.0243 -0.3870
39990SOL     OW28747   3.471   4.423   3.141  0.4073 -0.1082  0.2012
39990SOL    HW128748   3.535   4.472   3.194 -0.2840  1.2620 -0.2109
39990SOL    HW228749   3.391   4.475   3.145 -0.3562 -1.2115 -0.2632
39991SOL     OW28750   6.761   3.496   4.342 -0.5338 -0.0102 -0.3934
39991SOL    HW128751   6.723   3.502   4.254 -0.6710  0.7703 -0.2949
39991SOL    HW228752   6.761   3.587   4.373 -1.1559 -0.3688  0.6961
39992SOL     OW28753   1.715   1.352   7.435 -0.1192  0.5181 -0.0736
39992SOL    HW128754   1.738   1.371   7.526  1.5757  0.1645 -0.3878
39992SOL    HW228755   1.650   1.282   7.441 -0.3810  0.8295  0.8672
39993SOL     OW28756   0.836   1.803   0.150  0.2032  0.3901 -0.2229
39993SOL    HW128757   0.770   1.743   0.183  0.8033 -0.2668 -0.1857
39993SOL    HW228758   0.789   1.863   0.093 -0.3741 -0.2324 -0.4059
39994SOL     OW28759   6.395   0.295   7.289 -0.1122  0.0468 -0.1951
39994SOL    HW128760   6.384   0.366   7.352 -1.0503  0.2064 -0.5212
39994SOL    HW228761   6.347   0.221   7.327 -1.1302  0.2983 -0.9419
39995SOL     OW28762   1.293   7.630   5.570 -0.4671  0.2093  0.6722
39995SOL    HW128763   1.257   7.713   5.539  2.1979  1.0983 -0.3066
39995SOL    HW228764   1.328   7.650   5.657  0.8638  0.3625  0.1237
39996SOL     OW28765   0.298   0.964   1.820 -0.0209 -0.2178 -0.3299
39996SOL    HW128766   0.220   0.982   1.767  0.4363  0.9526 -0.6291
39996SOL    HW228767   0.359   1.034   1.798 -0.1308  0.8468  2.4086
39997SOL     OW28768  12.388   7.161   2.045 -0.0542  0.6340  0.6759
39997SOL    HW128769  12.325   7.133   2.111  1.0129 -1.2156  0.9702
39997SOL    HW228770  12.335   7.181   1.968 -0.9633 -2.6492  0.3179
39998SOL     OW28771   6.517   2.146   5.679 -0.0234 -0.0522 -0.2610
39998SOL    HW128772   6.561   2.128   5.762  1.0580 -0.7393 -0.9551
39998SOL    HW228773   6.540   2.236   5.659 -0.2250  0.0923  0.1472
39999SOL     OW28774   8.596   7.717  10.257  0.5197  0.7032  0.2833
39999SOL    HW128775   8.669   7.657  10.239  0.8196  0.7414  1.3447
39999SOL    HW228776   8.638   7.802  10.270  0.3761  0.5742  1.7044
40000SOL     OW28777  10.551   5.819   2.638 -0.3566  0.1200 -0.0117
40000SOL    HW128778  10.563   5.820   2.733 -2.1925 -2.0188  0.3060
40000SOL    HW228779  10.474   5.876   2.623 -0.0066  0.5402 -0.2492
40001SOL     OW28780   6.594   1.590   1.231 -0.2690  0.3155  0.3221
40001SOL    HW128781   6.675   1.624   1.194  1.1818 -2.3350  0.8088
40001SOL    HW228782   6.588   1.631   1.317  0.7948  0.2277  0.4497
40002SOL     OW28783  11.482   2.373   3.103 -0.1207  0.3652  0.0319
40002SOL    HW128784  11.484   2.414   3.016  1.0022  0.2419 -0.0143
40002SOL    HW228785  11.390   2.350   3.116 -0.8960  3.2242  0.2329
40003SOL     OW28786   7.728   7.764   1.091  0.2313 -0.2192 -0.4092
40003SOL    HW128787   7.658   7.764   1.156 -0.8940 -0.8093 -1.5664
40003SOL    HW228788   7.807   7.787   1.140 -0.6455 -0.2414  1.0672
40004SOL     OW28789  11.142  12.369   5.430 -0.8581  0.5439 -0.1013
40004SOL    HW128790  11.175  12.342   5.516 -0.4837 -1.1246 -0.7312
40004SOL    HW228791  11.198  12.442   5.405 -0.3732  0.4528  0.6742
40005SOL     OW28792  11.626   8.705   3.697  0.4889  0.0950  0.8759
40005SOL    HW128793  11.622   8.762   3.774  1.2123 -1.3569  2.0182
40005SOL    HW228794  11.582   8.755   3.629  1.2309  2.1088  1.7867
40006SOL     OW28795   0.816   8.912   2.732 -0.0859  0.1802 -0.3118
40006SOL    HW128796   0.887   8.848   2.734 -0.9763 -0.8808 -1.6454
40006SOL    HW228797   0.741   8.867   2.770 -0.6487  0.5232 -1.0060
40007SOL     OW28798  11.965  10.540   4.316 -0.2224 -0.6484  0.2857
40007SOL    HW128799  11.983  10.547   4.410  1.3502 -1.8488  0.1147
40007SOL    HW228800  12.001  10.455   4.291  0.2525  0.0487 -1.5876
40008SOL     OW28801   5.764   4.682   6.422 -0.1939  0.1484  0.0296
40008SOL    HW128802   5.818   4.685   6.343  1.8318  0.6778  1.3653
40008SOL    HW228803   5.749   4.589   6.438  2.9828 -0.2565  1.2795
40009SOL     OW28804   3.818   0.649   6.707  0.6924 -0.1328  0.3578
40009SOL    HW128805   3.730   0.685   6.719  0.1679 -1.8708  2.3738
40009SOL    HW228806   3.851   0.692   6.628 -1.8196  0.8102 -0.2738
40010SOL     OW28807  11.707   4.989   3.475  0.0944  0.4670 -0.0611
40010SOL    HW128808  11.690   5.026   3.562 -1.2589  0.5228 -0.3225
40010SOL    HW228809  11.729   4.898   3.491 -1.0728  0.2363  0.2941
40011SOL     OW28810   6.501   9.941   8.079  0.4711 -0.2922  0.3460
40011SOL    HW128811   6.542   9.870   8.129 -0.4707 -0.9078  0.2574
40011SOL    HW228812   6.568   9.966   8.015  1.1494 -0.4757  0.9737
40012SOL     OW28813   4.024  11.560   4.239  0.3040  0.7141  0.1792
40012SOL    HW128814   4.032  11.584   4.147 -0.2238  0.5489  0.0876
40012SOL    HW228815   3.992  11.640   4.282 -0.1927  0.5653  0.0903
40013SOL     OW28816   1.708   9.898   9.995 -0.2985  0.2270  0.1150
40013SOL    HW128817   1.693   9.908  10.089 -0.5225  1.3891 -0.0204
40013SOL    HW228818   1.620   9.884   9.959 -0.2673  0.2540  0.0295
40014SOL     OW28819   3.198   7.848   8.641 -0.8008  0.5793 -0.1773
40014SOL    HW128820   3.121   7.868   8.589 -1.6472  1.2332  1.2783
40014SOL    HW228821   3.184   7.893   8.724 -0.2378 -1.6788  1.2216
40015SOL     OW28822   4.684   9.981   9.828  0.2279 -0.3278 -0.4449
40015SOL    HW128823   4.609  10.012   9.777 -0.5266 -1.3319  0.0262
40015SOL    HW228824   4.683  10.035   9.908 -0.3065 -0.6827 -0.2086
40016SOL     OW28825   1.477   6.864   3.393  0.1963 -0.4101  0.1180
40016SOL    HW128826   1.558   6.861   3.444  0.3448  0.7879 -0.0183
40016SOL    HW228827   1.427   6.788   3.423  1.3867 -1.1991  0.1671
40017SOL     OW28828   7.577   8.523   4.129 -0.3619  0.1908  0.0612
40017SOL    HW128829   7.625   8.593   4.174  0.2234 -1.0599  1.4551
40017SOL    HW228830   7.645   8.475   4.081 -0.5223 -0.3555  0.3785
40018SOL     OW28831   1.802  10.427   0.989 -0.0472  0.5574  0.1291
40018SOL    HW128832   1.817  10.521   0.985  0.7404  0.4548  0.4297
40018SOL    HW228833   1.880  10.389   0.949 -0.2131  0.0264  0.3086
40019SOL     OW28834   3.819   0.142  10.103  0.4040  0.0525  0.1144
40019SOL    HW128835   3.795   0.052  10.126  1.8424 -0.1990  0.7272
40019SOL    HW228836   3.783   0.196  10.173  2.2520 -0.4076  1.4908
40020SOL     OW28837  10.739   8.907  10.310  0.2386  0.4376  0.8961
40020SOL    HW128838  10.690   8.880  10.232  0.7281  0.1974  0.6655
40020SOL    HW228839  10.780   8.990  10.285  0.2423  0.4543  0.9611
40021SOL     OW28840   3.942   8.485   4.378  0.3549 -0.6709  0.0202
40021SOL    HW128841   3.884   8.408   4.371 -1.1338  0.4402 -0.3449
40021SOL    HW228842   3.969   8.502   4.288 -0.1591 -0.1522 -0.0386
40022SOL     OW28843  10.765  12.280   6.286  0.5699 -0.7332 -0.4689
40022SOL    HW128844  10.732  12.274   6.196 -1.5674 -0.6045  0.2518
40022SOL    HW228845  10.770  12.189   6.315  1.3365 -0.7786 -0.7363
40023SOL     OW28846   2.332  12.000   0.014 -0.3537 -0.7353  0.8788
40023SOL    HW128847   2.423  12.027   0.032  0.5683 -2.5834 -0.6102
40023SOL    HW228848   2.313  12.035  -0.072 -0.4340 -1.7042  0.4860
40024SOL     OW28849   2.010  10.928  10.706  0.1850 -0.0910 -0.2198
40024SOL    HW128850   2.004  11.022  10.687  1.4224 -0.0798 -0.6293
40024SOL    HW228851   1.974  10.919  10.794 -3.0360  0.2779 -1.3271
40025SOL     OW28852   2.797   2.111   5.933  0.1834 -0.5460  0.0251
40025SOL    HW128853   2.747   2.184   5.898  0.3554 -0.5880 -0.3186
40025SOL    HW228854   2.874   2.152   5.973  0.3029 -0.5389 -0.2079
40026SOL     OW28855   0.622   1.756   1.468 -0.3194 -0.5487  0.4947
40026SOL    HW128856   0.634   1.723   1.379 -0.0758  1.3832 -0.2462
40026SOL    HW228857   0.698   1.813   1.483 -1.1017  0.3107  1.3594
40027SOL     OW28858   4.055   3.661   8.783 -0.0383  0.0578 -0.0270
40027SOL    HW128859   4.123   3.727   8.769 -0.3882 -0.0429 -2.7757
40027SOL    HW228860   4.099   3.577   8.771 -0.5088 -0.0174 -1.4775
40028SOL     OW28861   5.171   3.637   3.186 -0.1843  0.2539  0.0354
40028SOL    HW128862   5.250   3.645   3.132 -1.7091 -1.1149 -2.5998
40028SOL    HW228863   5.121   3.717   3.167 -0.1568  0.3611  0.4174
40029SOL     OW28864   6.319   4.992   3.371 -0.1948  0.1779 -0.1213
40029SOL    HW128865   6.347   4.984   3.462  0.5200  0.4218 -0.3111
40029SOL    HW228866   6.357   5.075   3.341 -0.8631  0.3571 -0.4849
40030SOL     OW28867   1.992  11.020   1.950 -0.0246  0.3908  0.3572
40030SOL    HW128868   1.983  10.981   1.863 -0.9964 -1.3507  1.1944
40030SOL    HW228869   2.069  10.977   1.988 -0.2607  0.3238  0.7654
40031SOL     OW28870   9.052   6.542   2.532 -0.6372 -0.3544  0.5617
40031SOL    HW128871   8.981   6.516   2.591 -0.0789  0.0566  1.4350
40031SOL    HW228872   9.128   6.554   2.589  0.0781 -0.5207 -0.3218
40032SOL     OW28873   0.921   1.010   1.971 -0.1181 -0.0351  0.6630
40032SOL    HW128874   0.883   0.992   2.057 -0.1100 -0.8447  0.5102
40032SOL    HW228875   0.926   1.105   1.966  0.4140  0.0206  1.7900
40033SOL     OW28876   2.089   8.166   8.863  0.3628 -0.1911 -0.3964
40033SOL    HW128877   2.020   8.104   8.884  1.6994 -1.3808  0.7882
40033SOL    HW228878   2.061   8.248   8.903 -0.9477 -0.2939 -1.0771
40034SOL     OW28879  11.501   1.501   1.062  0.1369 -0.1478 -0.2812
40034SOL    HW128880  11.449   1.511   1.142 -0.2230 -0.3091 -0.4963
40034SOL    HW228881  11.468   1.422   1.021 -0.2369  0.3811 -1.0183
40035SOL     OW28882   7.994   3.003   2.023 -0.6043 -0.3721  0.1502
40035SOL    HW128883   7.995   2.950   1.943 -2.2660 -0.6833  0.3091
40035SOL    HW228884   7.971   3.091   1.993  1.8151  0.2840 -0.0676
40036SOL     OW28885   1.566   5.947   4.809 -0.2490 -0.4567  0.0415
40036SOL    HW128886   1.633   5.968   4.873 -1.5558 -0.4814  1.4786
40036SOL    HW228887   1.614   5.914   4.733  1.3229 -1.1392  1.2810
40037SOL     OW28888  10.710   6.650   1.870 -0.2667  0.8692 -0.5053
40037SOL    HW128889  10.658   6.726   1.842 -1.6634 -0.8074 -2.7683
40037SOL    HW228890  10.717   6.595   1.793  1.0400 -1.1724  0.9541
40038SOL     OW28891   8.537   6.610   9.697  0.1192 -0.6530 -0.4323
40038SOL    HW128892   8.563   6.538   9.640  0.3498 -1.4518  0.6390
40038SOL    HW228893   8.444   6.625   9.676  0.0738 -1.2496 -0.6910
40039SOL     OW28894   9.129   6.536   4.216 -0.1488 -0.1591  0.3029
40039SOL    HW128895   9.194   6.606   4.223 -1.4364  1.0614  0.4699
40039SOL    HW228896   9.167   6.475   4.152  0.6422  1.1151 -0.4971
40040SOL     OW28897  10.132   2.373  10.163 -0.1543  0.3275  0.1722
40040SOL    HW128898  10.060   2.412  10.212 -0.1624 -1.2786  1.5314
40040SOL    HW228899  10.103   2.284  10.145  1.1655 -0.1055  0.0688
40041SOL     OW28900  10.860   5.300   3.544  0.7167 -0.1498 -0.3574
40041SOL    HW128901  10.891   5.389   3.531  1.0816 -0.3959 -1.2464
40041SOL    HW228902  10.935   5.244   3.524  0.7915 -0.6447  1.1556
40042SOL     OW28903  11.557   9.576  12.537  0.4244  1.0133  0.5051
40042SOL    HW128904  11.588   9.666  12.530  4.3333 -0.1579  0.4664
40042SOL    HW228905  11.577   9.537  12.452  1.4753 -0.5672  1.4342
40043SOL     OW28906   9.647  12.024  12.005 -0.3904 -0.0000 -0.6881
40043SOL    HW128907   9.696  12.006  11.924  0.7717 -1.1863  0.2432
40043SOL    HW228908   9.670  11.952  12.063 -0.9597  1.0022  0.8285
40044SOL     OW28909   0.006   4.543  10.644 -0.2722 -0.0749 -0.1694
40044SOL    HW128910   0.096   4.527  10.670 -0.7788  0.5342  2.1996
40044SOL    HW228911  -0.044   4.540  10.726 -2.3900 -0.2547 -1.3860
40045SOL     OW28912   2.694   2.518   1.320  0.0213 -0.1145 -0.1895
40045SOL    HW128913   2.743   2.511   1.402 -0.0113 -0.9491 -0.2391
40045SOL    HW228914   2.627   2.584   1.337  0.0793 -0.2120  0.4141
40046SOL     OW28915   3.739   3.071   7.357  0.1596 -0.3179 -0.6851
40046SOL    HW128916   3.713   3.076   7.266 -1.9627 -1.8218 -0.2318
40046SOL    HW228917   3.678   3.128   7.403 -0.7028 -1.8193  0.1007
40047SOL     OW28918   8.044   0.393   3.456 -0.5318  0.1678 -0.1667
40047SOL    HW128919   8.130   0.421   3.485 -0.9191  1.3144 -0.0794
40047SOL    HW228920   8.040   0.300   3.477  0.2196  0.3757  0.9596
40048SOL     OW28921   2.840   6.624   3.955  0.4066  0.1702 -0.1312
40048SOL    HW128922   2.909   6.601   4.018  2.6331 -0.2464 -2.5463
40048SOL    HW228923   2.760   6.586   3.992  1.5949 -0.0870  2.3771
40049SOL     OW28924   8.845   2.516   1.168  0.2038 -0.2595  0.0795
40049SOL    HW128925   8.832   2.510   1.263 -0.3667 -0.1574  0.0116
40049SOL    HW228926   8.940   2.519   1.157  0.3118 -1.3438  0.5809
40050SOL     OW28927   6.308   0.849   3.521  0.5282  0.4103  0.0785
40050SOL    HW128928   6.357   0.921   3.561  0.3712  0.9166 -0.6313
40050SOL    HW228929   6.290   0.878   3.432  0.9891 -0.7635 -0.4167
40051SOL     OW28930   8.847   8.918   8.798 -0.0788  0.2720 -0.1113
40051SOL    HW128931   8.918   8.857   8.779 -0.1485  0.7137 -1.9213
40051SOL    HW228932   8.891   9.003   8.805 -0.0537  0.1553  1.8791
40052SOL     OW28933   4.523   9.469  10.627 -0.8165  0.0583 -0.2106
40052SOL    HW128934   4.524   9.387  10.578  1.7511  0.6643 -1.3012
40052SOL    HW228935   4.511   9.537  10.561  1.0482  0.7848  0.1432
40053SOL     OW28936  11.147   9.100   2.649  0.3668 -0.3952 -0.2955
40053SOL    HW128937  11.056   9.132   2.649  0.2272 -0.7457 -1.5395
40053SOL    HW228938  11.188   9.147   2.721 -1.1007 -1.1248  1.0963
40054SOL     OW28939  11.840   7.535  11.326 -0.2243 -0.1195 -0.2000
40054SOL    HW128940  11.869   7.625  11.316  0.3642 -0.5402 -2.9964
40054SOL    HW228941  11.859   7.514  11.418  3.3920  1.3321 -0.4593
40055SOL     OW28942   6.192   4.160   3.906 -0.2405 -0.1282  0.1785
40055SOL    HW128943   6.156   4.234   3.955 -1.7639 -0.4847 -0.3627
40055SOL    HW228944   6.150   4.083   3.944  2.0661 -0.8680  1.4036
40056SOL     OW28945   9.707   9.812   7.984 -0.5154 -0.3671  0.0560
40056SOL    HW128946   9.706   9.896   8.030 -0.0687 -1.4392  2.1227
40056SOL    HW228947   9.615   9.789   7.974 -0.6188 -0.9725  2.1131
40057SOL     OW28948  10.107   8.330  11.174 -0.4555  0.2152 -0.7269
40057SOL    HW128949  10.179   8.321  11.236 -0.8878 -0.0063 -0.2436
40057SOL    HW228950  10.030   8.348  11.229 -1.3611 -2.5884 -0.9160
40058SOL     OW28951   1.892   5.721   9.036 -0.3603 -0.4392  0.0820
40058SOL    HW128952   1.967   5.664   9.051  0.0375  0.0752  0.0802
40058SOL    HW228953   1.880   5.767   9.120 -1.3707 -1.3152  0.4436
40059SOL     OW28954   0.837   4.108  11.419  0.0683  0.5262  0.0378
40059SOL    HW128955   0.886   4.059  11.353  1.2320  0.7413  0.7173
40059SOL    HW228956   0.762   4.144  11.371  0.4637  0.0229 -0.9852
40060SOL     OW28957   8.491   2.534  10.323 -0.1192  0.1799 -0.0665
40060SOL    HW128958   8.409   2.556  10.280 -0.4072  1.5060  1.0951
40060SOL    HW228959   8.465   2.480  10.398  0.0721  0.4675  0.2107
40061SOL     OW28960   1.019   6.588   0.639  0.4290 -0.5062  0.1390
40061SOL    HW128961   1.033   6.517   0.703  1.9912  1.1186  1.7096
40061SOL    HW228962   0.925   6.604   0.641  0.0814 -2.2915 -0.0292
40062SOL     OW28963   3.021   4.235  10.148  0.4465 -0.2866  0.4446
40062SOL    HW128964   2.930   4.225  10.174  0.5157 -0.9688  0.4334
40062SOL    HW228965   3.068   4.168  10.198  0.7344 -0.8991 -0.6234
40063SOL     OW28966   0.636   0.903   0.315  0.5929  0.1697 -0.6013
40063SOL    HW128967   0.559   0.875   0.364  1.1163 -0.8752 -0.3377
40063SOL    HW228968   0.606   0.977   0.262 -1.0091 -1.2671 -1.7953
40064SOL     OW28969   0.058   2.689   1.000 -0.1558 -0.3372  0.1202
40064SOL    HW128970   0.087   2.780   1.009 -0.8094 -0.0262 -0.7247
40064SOL    HW228971  -0.031   2.696   0.966 -0.0438 -1.3040 -0.4135
40065SOL     OW28972   3.724  11.970   6.459  0.0833  0.0490 -0.3358
40065SOL    HW128973   3.711  11.914   6.382 -2.4367 -0.1500  0.1384
40065SOL    HW228974   3.654  11.943   6.519 -0.2750  2.6709  0.5282
40066SOL     OW28975   4.857   2.575   6.677 -0.1833 -0.3113 -0.8461
40066SOL    HW128976   4.834   2.654   6.726  1.3422  0.2022 -0.9018
40066SOL    HW228977   4.913   2.526   6.737 -1.0493 -1.3335 -0.8484
40067SOL     OW28978   9.494   6.519   7.633 -0.3995 -0.2846  0.4718
40067SOL    HW128979   9.562   6.585   7.647 -0.3214 -0.0233 -0.9810
40067SOL    HW228980   9.522   6.472   7.555 -1.9549 -0.0537 -0.2683
40068SOL     OW28981   3.023   0.311   1.763 -0.1643  0.3579  0.1276
40068SOL    HW128982   3.085   0.294   1.834  2.0987  0.5633 -1.6846
40068SOL    HW228983   3.027   0.233   1.709 -2.3940 -0.0868  0.5107
40069SOL     OW28984   8.023  12.274  10.500 -0.4872 -0.3810  0.0155
40069SOL    HW128985   8.063  12.318  10.425  0.6484  1.4139  1.5890
40069SOL    HW228986   7.934  12.308  10.503 -0.4262 -0.1865 -0.3181
40070SOL     OW28987   7.888  12.060   6.469 -0.0418  0.0657 -0.3759
40070SOL    HW128988   7.813  12.055   6.411  0.4728 -0.9058 -0.9974
40070SOL    HW228989   7.898  12.153   6.489 -2.2889  0.0935  0.9354
40071SOL     OW28990   2.640  10.290   6.214  0.0332  0.0814 -0.4801
40071SOL    HW128991   2.628  10.195   6.209 -1.1175  0.0932  1.2214
40071SOL    HW228992   2.723  10.301   6.261  0.0235 -0.0816 -0.4240
40072SOL     OW28993   6.690   0.376   6.140 -0.0713 -0.4279  0.4291
40072SOL    HW128994   6.733   0.446   6.090 -0.3986  0.0539  0.8100
40072SOL    HW228995   6.596   0.390   6.125 -0.1957  0.0254  1.5608
40073SOL     OW28996   3.198   4.396   5.202  0.0733  0.2151  0.1834
40073SOL    HW128997   3.115   4.439   5.181  0.8213  0.6620 -2.1659
40073SOL    HW228998   3.261   4.433   5.140  1.7630 -1.0671  1.0322
40074SOL     OW28999   2.442   4.620   6.575 -0.3149 -0.7377 -0.1538
40074SOL    HW129000   2.385   4.662   6.510  0.2873  0.9235  0.3398
40074SOL    HW229001   2.431   4.673   6.654 -0.4323 -2.2574  0.8977
40075SOL     OW29002   4.661   5.366   4.206 -0.1341 -0.0272  0.0293
40075SOL    HW129003   4.717   5.315   4.263 -0.4345  0.3611  0.6829
40075SOL    HW229004   4.585   5.388   4.260 -0.6456 -0.0608 -0.6637
40076SOL     OW29005   2.066   2.608  11.772 -0.4021  0.2177  0.1158
40076SOL    HW129006   2.022   2.677  11.723 -0.5204  1.2928  1.6477
40076SOL    HW229007   2.002   2.581  11.838 -0.3262 -1.3246 -0.3950
40077SOL     OW29008   2.348   7.788   1.276  0.1975 -0.1003  0.2825
40077SOL    HW129009   2.253   7.774   1.284  0.4312 -4.5406 -1.9114
40077SOL    HW229010   2.382   7.768   1.363 -0.7727  1.1499  0.9892
40078SOL     OW29011   8.707  12.281   0.447  0.0078  0.6399  0.6900
40078SOL    HW129012   8.705  12.241   0.361  0.4676  1.0742  0.4748
40078SOL    HW229013   8.769  12.353   0.440 -0.7033  1.3263  1.1006
40079SOL     OW29014  11.450   8.365  10.626 -0.1738 -0.0446 -0.2513
40079SOL    HW129015  11.527   8.335  10.579  1.0519  0.5443  1.2798
40079SOL    HW229016  11.427   8.292  10.683  0.5339  0.5137  0.7763
40080SOL     OW29017   0.807   2.047   6.305 -0.0763 -0.0487  0.4169
40080SOL    HW129018   0.739   2.095   6.258  0.4799  1.6212  1.2425
40080SOL    HW229019   0.797   2.074   6.397  1.7898  0.3991  0.5351
40081SOL     OW29020   7.247   5.597  11.686 -0.1848  0.2308 -0.2541
40081SOL    HW129021   7.269   5.685  11.716  0.2194 -0.2178  0.7931
40081SOL    HW229022   7.168   5.609  11.633 -0.4519  1.1522  0.3322
40082SOL     OW29023   7.475   1.604  10.940  0.3899 -0.0653  0.3503
40082SOL    HW129024   7.388   1.595  10.901  1.2014  0.5734 -1.7338
40082SOL    HW229025   7.484   1.527  10.996 -0.4523 -1.6657 -1.5855
40083SOL     OW29026  11.792   7.446   2.730 -0.1845 -0.4799 -0.1449
40083SOL    HW129027  11.807   7.370   2.674 -1.7063 -1.9517  1.3400
40083SOL    HW229028  11.721   7.494   2.686 -1.3978 -1.6439  0.4601
40084SOL     OW29029  12.334  11.199   4.741 -0.6883  0.5223 -0.4391
40084SOL    HW129030  12.314  11.107   4.761 -0.5105  0.6662  0.4722
40084SOL    HW229031  12.300  11.247   4.817 -0.3044  1.1546 -0.6634
40085SOL     OW29032   7.448   5.283   3.658 -0.4623  0.1588 -0.3140
40085SOL    HW129033   7.519   5.286   3.723 -1.8778  0.4468  1.3155
40085SOL    HW229034   7.462   5.200   3.612  1.1419  0.3970 -0.3325
40086SOL     OW29035   8.820   4.284   6.294  0.2335 -0.5138 -0.0010
40086SOL    HW129036   8.854   4.265   6.381 -1.8610 -0.3702  0.9185
40086SOL    HW229037   8.878   4.238   6.234  1.7409 -0.5927  1.4569
40087SOL     OW29038   5.976  11.930  11.708 -0.3671 -0.3829  0.3733
40087SOL    HW129039   6.033  11.865  11.750  0.6460 -0.2504 -0.7207
40087SOL    HW229040   6.004  11.930  11.617 -1.3567  0.5394  0.0518
40088SOL     OW29041  11.241   6.381   8.909 -0.3092 -0.2950  0.3397
40088SOL    HW129042  11.176   6.367   8.977  0.5469  2.4243  1.9029
40088SOL    HW229043  11.219   6.467   8.872  1.6747  0.1763  0.1260
40089SOL     OW29044   2.346   2.833   8.359 -0.1954  1.1927  0.9288
40089SOL    HW129045   2.278   2.896   8.382 -1.3442  0.6915 -0.8707
40089SOL    HW229046   2.320   2.800   8.273  1.1264 -0.6830  1.1792
40090SOL     OW29047  11.315   3.348   7.673  0.0577 -0.2870 -0.7708
40090SOL    HW129048  11.304   3.424   7.729  0.5839 -0.7982  0.0354
40090SOL    HW229049  11.343   3.384   7.589 -0.6917  0.4786 -0.7151
40091SOL     OW29050   3.614  10.521  11.266 -0.3941 -0.1766 -0.0667
40091SOL    HW129051   3.621  10.608  11.225 -1.4108 -0.4643 -0.9075
40091SOL    HW229052   3.632  10.460  11.195 -1.1370 -0.6694  0.1536
40092SOL     OW29053  12.577   5.908   0.280 -0.2623  0.3254 -0.6876
40092SOL    HW129054  12.583   5.845   0.209 -1.3244  0.9158 -1.3232
40092SOL    HW229055  12.522   5.979   0.246  1.0339  1.6931 -0.0587
40093SOL     OW29056   1.181   9.257   1.890  0.4862 -0.2623  0.2622
40093SOL    HW129057   1.228   9.339   1.904  0.2702 -0.0610 -0.1811
40093SOL    HW229058   1.177   9.216   1.977 -0.2029  0.6228  0.6562
40094SOL     OW29059   9.057   5.863   8.431 -0.0490 -0.0601  0.7583
40094SOL    HW129060   8.984   5.809   8.463  0.8579 -0.5818  2.0214
40094SOL    HW229061   9.113   5.875   8.507  2.0055 -0.9870 -0.5115
40095SOL     OW29062   2.580  11.597   0.510  0.9460 -0.3771  0.0509
40095SOL    HW129063   2.531  11.569   0.587  1.2685  1.4305  0.9701
40095SOL    HW229064   2.527  11.569   0.435 -0.0160 -0.9982  0.9499
40096SOL     OW29065   5.696   7.670   6.716 -0.2356 -0.2617 -0.7117
40096SOL    HW129066   5.631   7.740   6.707 -0.3123 -0.2622 -0.1983
40096SOL    HW229067   5.645   7.589   6.705 -0.1024 -0.2371 -1.5678
40097SOL     OW29068   2.317   6.985   4.291 -0.1947 -0.0290 -0.4703
40097SOL    HW129069   2.378   7.056   4.310  0.2179 -0.6051  0.4581
40097SOL    HW229070   2.308   6.938   4.374 -0.4104 -1.1009 -1.0738
40098SOL     OW29071   0.162   9.566   7.077  0.0538  0.4696  0.2579
40098SOL    HW129072   0.164   9.520   6.993 -0.8913  0.0380  0.4552
40098SOL    HW229073   0.223   9.639   7.066 -2.1743  2.1894 -1.8663
40099SOL     OW29074   7.038   3.216  10.374 -0.6672  0.0058 -0.4446
40099SOL    HW129075   6.954   3.181  10.346 -2.1053  1.1011  2.1455
40099SOL    HW229076   7.044   3.193  10.467  0.5632  2.3661  0.1492
40100SOL     OW29077   1.067  11.635   6.855 -0.2953 -0.6681  0.6290
40100SOL    HW129078   1.117  11.554   6.845  0.1487 -0.2280 -0.9083
40100SOL    HW229079   1.038  11.657   6.767 -0.8429  0.5885  1.0978
40101SOL     OW29080   4.999  10.561   1.857 -0.1310  0.3308 -0.0381
40101SOL    HW129081   5.066  10.627   1.871 -0.4944  1.1439 -1.8842
40101SOL    HW229082   5.043  10.478   1.877  0.8216  0.9782  0.6650
40102SOL     OW29083   4.015   8.381   2.714 -1.0503 -0.1255  0.2030
40102SOL    HW129084   4.081   8.347   2.774 -1.6920 -0.1115  0.9381
40102SOL    HW229085   3.955   8.307   2.701 -0.7460 -0.2285 -0.6800
40103SOL     OW29086   0.458   5.784  11.103 -0.3111  0.3756 -0.7772
40103SOL    HW129087   0.494   5.789  11.015  0.0804 -1.9756 -0.8186
40103SOL    HW229088   0.373   5.741  11.092 -0.3341  0.2209 -0.0459
40104SOL     OW29089   5.705  11.437   7.003  0.1941 -0.1676 -0.3200
40104SOL    HW129090   5.772  11.453   6.937  0.9119 -1.4207  0.0667
40104SOL    HW229091   5.647  11.372   6.962  0.2640 -0.4497  0.0234
40105SOL     OW29092   0.325   8.376   7.715  0.0925  0.3267 -0.4234
40105SOL    HW129093   0.237   8.408   7.699 -0.3941  0.2115  1.7233
40105SOL    HW229094   0.347   8.325   7.637 -2.7240 -1.7191 -0.0384
40106SOL     OW29095  11.540   3.739   4.000  0.3657  0.5286 -0.1327
40106SOL    HW129096  11.580   3.765   4.083  0.1349 -1.5806  0.7035
40106SOL    HW229097  11.454   3.704   4.025  0.1126  0.2869 -1.3088
40107SOL     OW29098   2.660   2.978   1.453  0.4085 -0.1984  0.0598
40107SOL    HW129099   2.602   2.942   1.385 -0.1619  0.1034  0.3754
40107SOL    HW229100   2.735   3.013   1.405 -0.8379  1.6922 -0.6127
40108SOL     OW29101   1.729   6.425  12.117  0.1929 -0.0140 -0.0246
40108SOL    HW129102   1.669   6.356  12.145  1.6579 -0.3686  2.5500
40108SOL    HW229103   1.672   6.495  12.086 -1.4115 -1.5111 -0.6406
40109SOL     OW29104   7.084   5.545   6.290 -0.1937  0.1709 -0.5307
40109SOL    HW129105   7.126   5.474   6.338  0.0947  0.8185  0.1793
40109SOL    HW229106   7.144   5.564   6.218 -0.1677 -0.1557 -0.5950
40110SOL     OW29107  11.428   0.587   3.740  0.4025 -0.1562  0.6059
40110SOL    HW129108  11.412   0.495   3.721 -0.3948  0.2098 -0.6007
40110SOL    HW229109  11.373   0.635   3.678  1.3215  1.1398  0.7345
40111SOL     OW29110   4.529   4.598   0.034  0.3894  0.4368  0.3028
40111SOL    HW129111   4.555   4.506   0.043 -1.8746 -0.3295 -0.1777
40111SOL    HW229112   4.543   4.618  -0.058 -1.6151 -0.3590 -0.2401
40112SOL     OW29113   1.623  10.510  11.224 -0.0535 -0.1273 -0.3689
40112SOL    HW129114   1.694  10.492  11.286 -0.4577  1.8607  0.7776
40112SOL    HW229115   1.573  10.428  11.220  2.3076 -1.6300 -1.3261
40113SOL     OW29116   4.066   0.468  11.888 -0.0749  0.1775 -0.1126
40113SOL    HW129117   4.024   0.543  11.846  1.4274  0.8407 -0.4991
40113SOL    HW229118   4.128   0.436  11.822 -2.2562 -2.9221 -0.9170
40114SOL     OW29119   6.851  10.082   7.669 -0.3440  0.2786  0.0663
40114SOL    HW129120   6.925  10.093   7.609  0.1897 -0.9889  0.4666
40114SOL    HW229121   6.784  10.038   7.618 -0.5422  0.7271 -0.0703
40115SOL     OW29122  10.931   7.286   1.253 -0.5103 -0.4285 -0.0753
40115SOL    HW129123  10.849   7.271   1.206 -0.0276 -2.0896 -0.4920
40115SOL    HW229124  10.964   7.197   1.272 -0.9664  0.0788  4.0216
40116SOL     OW29125   5.036   4.744   4.354  0.2873 -0.0007  0.7013
40116SOL    HW129126   4.987   4.698   4.423 -0.9104  1.6167  0.9933
40116SOL    HW229127   5.042   4.680   4.283  2.5682 -2.1300  2.6450
40117SOL     OW29128   3.230  11.053   0.530  0.0433  0.4511 -0.0912
40117SOL    HW129129   3.186  11.133   0.557 -0.8298 -0.8853  2.9157
40117SOL    HW229130   3.161  10.987   0.530  1.0608 -0.6607 -0.7319
40118SOL     OW29131   6.900  11.904   7.171 -0.1019  0.5737  0.0117
40118SOL    HW129132   6.946  11.987   7.179 -0.2868  0.5907  1.0505
40118SOL    HW229133   6.837  11.918   7.100  0.9143  0.8097 -0.8652
40119SOL     OW29134   4.505   6.758   8.328  0.0610 -0.1978  0.0683
40119SOL    HW129135   4.572   6.699   8.295  0.4991  0.5317 -0.3776
40119SOL    HW229136   4.422   6.721   8.297  0.1641 -1.5405  1.2862
40120SOL     OW29137   0.438   2.159   6.321  0.3404  0.2080 -0.3425
40120SOL    HW129138   0.446   2.064   6.318  2.4816  0.3670 -2.6794
40120SOL    HW229139   0.429   2.179   6.414  3.9262 -2.0712  0.6962
40121SOL     OW29140  10.554   6.068   4.000  0.2483 -0.2578  0.4945
40121SOL    HW129141  10.503   6.021   4.065 -0.5693  0.1420  0.1568
40121SOL    HW229142  10.499   6.067   3.921  0.7146  0.2727  0.1566
40122SOL     OW29143  11.863   4.862   2.744  0.3932  0.2270  0.3935
40122SOL    HW129144  11.876   4.769   2.727  1.7526  0.2790  0.9910
40122SOL    HW229145  11.769   4.877   2.730 -0.0213 -1.4211  1.1706
40123SOL     OW29146   5.166   4.107   2.538  0.3574 -0.3582 -0.5337
40123SOL    HW129147   5.112   4.184   2.519 -0.4187 -1.0386 -1.1368
40123SOL    HW229148   5.253   4.131   2.504  0.3288  0.5563  0.0090
40124SOL     OW29149   0.425   0.539  10.108  0.4789  0.4208 -0.4608
40124SOL    HW129150   0.516   0.532  10.079 -0.0592 -0.5099 -2.0573
40124SOL    HW229151   0.413   0.466  10.169  0.9810  0.9756  0.3155
40125SOL     OW29152   2.540   7.340  10.001  0.4717 -0.2268 -0.3938
40125SOL    HW129153   2.457   7.377  10.031  0.6107 -0.3467  0.1651
40125SOL    HW229154   2.518   7.251   9.975  0.2334  0.0784 -1.2480
40126SOL     OW29155   8.346   5.806   7.858 -0.4929 -0.1646 -0.1930
40126SOL    HW129156   8.363   5.770   7.945  1.7387  0.2040 -0.4077
40126SOL    HW229157   8.282   5.875   7.872 -2.1072 -1.7720  0.7488
40127SOL     OW29158   0.570   7.144   8.945 -0.3280 -0.2297  0.5754
40127SOL    HW129159   0.522   7.105   9.018 -0.5883 -0.4221  0.3055
40127SOL    HW229160   0.606   7.070   8.897 -0.5322 -0.1294  0.2594
40128SOL     OW29161   7.249   7.651   9.905 -0.8362  0.4649  0.2417
40128SOL    HW129162   7.155   7.661   9.923 -1.5829 -0.3069 -2.7391
40128SOL    HW229163   7.274   7.733   9.863 -0.0603  0.7403  1.1819
40129SOL     OW29164  10.853   5.129   8.729 -0.0982 -0.1527 -0.1996
40129SOL    HW129165  10.817   5.067   8.666  1.0248 -2.1191  0.9781
40129SOL    HW229166  10.795   5.122   8.805  0.0745  0.1889 -0.0376
40130SOL     OW29167   7.572   5.160   5.009 -0.4804  0.5387  0.4285
40130SOL    HW129168   7.526   5.241   4.988  0.6711  1.2951  0.7017
40130SOL    HW229169   7.614   5.134   4.927 -0.2744  0.6048  0.5123
40131SOL     OW29170   7.546   3.881  10.396  0.2599  0.2085  0.0806
40131SOL    HW129171   7.497   3.916  10.470  0.3078  0.0463  0.1903
40131SOL    HW229172   7.530   3.942  10.325 -0.9250 -0.3903 -0.1829
40132SOL     OW29173   2.163   5.304   6.144  0.2455 -0.3627 -0.0630
40132SOL    HW129174   2.094   5.257   6.097  0.3527 -1.4957  0.8893
40132SOL    HW229175   2.244   5.276   6.102  0.1659  1.3514 -1.5206
40133SOL     OW29176   7.408   6.950   9.455  0.1165  0.3565  0.0561
40133SOL    HW129177   7.500   6.964   9.476  0.3856  0.0193 -0.8249
40133SOL    HW229178   7.409   6.920   9.364 -0.9405  1.3681 -0.3131
40134SOL     OW29179  11.791   4.851   2.213  0.2630 -0.1450  0.0282
40134SOL    HW129180  11.879   4.881   2.191 -0.3497  0.7052 -1.4302
40134SOL    HW229181  11.782   4.868   2.307  1.9176 -1.0237  0.3919
40135SOL     OW29182   2.184   7.512   4.451  0.2357 -0.0797 -0.3254
40135SOL    HW129183   2.105   7.564   4.461  0.7809  0.7757 -0.3519
40135SOL    HW229184   2.176   7.443   4.517 -1.2627 -0.9681 -1.4022
40136SOL     OW29185   6.756  11.188   9.187  0.4847  0.5350 -0.0435
40136SOL    HW129186   6.788  11.198   9.276  2.6563  0.5114 -0.7807
40136SOL    HW229187   6.740  11.278   9.157 -1.1010  0.5075  0.6166
40137SOL     OW29188   6.302   7.865  11.804  0.3250  0.3991  0.5205
40137SOL    HW129189   6.300   7.885  11.711  0.6099  1.4605  0.7345
40137SOL    HW229190   6.393   7.845  11.823  0.0278 -1.4032  0.2756
40138SOL     OW29191   3.792   6.503   0.795 -0.3871 -0.2939 -0.3979
40138SOL    HW129192   3.712   6.453   0.778 -1.9905  1.5044  1.2725
40138SOL    HW229193   3.802   6.559   0.718 -0.9448 -0.3140 -0.4921
40139SOL     OW29194   9.480   9.809   0.719 -0.5618 -0.3580 -0.7624
40139SOL    HW129195   9.469   9.796   0.813  0.9969 -0.1366 -0.5210
40139SOL    HW229196   9.522   9.728   0.689  0.6466  0.2990 -0.9164
40140SOL     OW29197  12.465   1.575   7.733 -0.5206  0.7840 -0.0442
40140SOL    HW129198  12.549   1.586   7.689 -0.2537  1.1052  0.5241
40140SOL    HW229199  12.489   1.550   7.823 -1.0523 -0.0934 -0.1449
40141SOL     OW29200   5.638   4.533   9.134  0.0930  0.5181  0.0072
40141SOL    HW129201   5.641   4.507   9.226 -0.0627 -0.1747 -0.1741
40141SOL    HW229202   5.689   4.613   9.129  2.4180 -0.8678  0.2193
40142SOL     OW29203   0.830   3.678   5.347  0.2511  0.2492  0.4200
40142SOL    HW129204   0.854   3.587   5.363 -1.0045  0.3118  3.2460
40142SOL    HW229205   0.870   3.727   5.418 -1.6170  1.4365  0.7403
40143SOL     OW29206  11.240   3.832   2.241 -0.2148  0.2224 -0.0600
40143SOL    HW129207  11.178   3.823   2.168  0.5006 -0.2352 -0.6265
40143SOL    HW229208  11.287   3.749   2.242  1.3714  1.0746 -0.5684
40144SOL     OW29209   8.322   3.998   2.143 -0.0670  0.6836 -0.7575
40144SOL    HW129210   8.247   4.027   2.091 -0.3798  2.0590  0.3736
40144SOL    HW229211   8.376   4.077   2.154  0.0596  0.4143  0.8411
40145SOL     OW29212   7.442   6.599   4.710  0.3145  0.4125  0.8775
40145SOL    HW129213   7.496   6.651   4.650 -0.2220 -0.4514 -0.3812
40145SOL    HW229214   7.479   6.511   4.707 -1.1485 -0.1989 -0.0241
40146SOL     OW29215  10.073   8.718   1.075  0.0457 -0.3355  0.0319
40146SOL    HW129216   9.983   8.722   1.107  0.3931  1.6418  0.8868
40146SOL    HW229217  10.068   8.663   0.997 -2.3311  1.5255 -1.2640
40147SOL     OW29218   6.235   2.395   2.129  0.3490  0.0195 -0.5435
40147SOL    HW129219   6.145   2.367   2.111 -0.2437  1.5287 -0.1182
40147SOL    HW229220   6.248   2.470   2.071  0.4897  1.2627  1.0310
40148SOL     OW29221   2.429   7.638   2.644 -0.0019  0.4421  0.7025
40148SOL    HW129222   2.519   7.666   2.665  1.0389 -2.0238 -0.1335
40148SOL    HW229223   2.394   7.607   2.728  0.7016 -0.5256  0.6502
40149SOL     OW29224   2.918   4.254   2.209  0.5399  0.3210 -0.8611
40149SOL    HW129225   2.969   4.323   2.166  1.0308  0.3914 -0.1883
40149SOL    HW229226   2.970   4.231   2.286  1.0061 -1.6791 -1.7171
40150SOL     OW29227   4.680   3.130  10.728 -0.4016  0.2984 -0.5574
40150SOL    HW129228   4.687   3.163  10.638 -0.7581  1.2930 -0.2319
40150SOL    HW229229   4.747   3.178  10.777 -1.4662  1.1618  0.0885
40151SOL     OW29230   3.680   9.793   7.766  0.1414 -0.1214  0.0562
40151SOL    HW129231   3.748   9.733   7.737  1.2992  1.0464  0.2786
40151SOL    HW229232   3.725   9.856   7.822 -0.7194  1.8718 -1.3620
40152SOL     OW29233   9.294   2.102   9.221  0.1694 -0.4107 -0.3995
40152SOL    HW129234   9.291   2.188   9.262 -2.4628  0.2707 -1.8059
40152SOL    HW229235   9.264   2.042   9.289  0.6548 -0.0456  0.1496
40153SOL     OW29236   1.658   5.414   1.605 -0.4607  0.2171  0.1035
40153SOL    HW129237   1.726   5.392   1.669  2.2101 -0.6840 -2.7810
40153SOL    HW229238   1.623   5.329   1.579  0.1685  0.3466 -1.2483
40154SOL     OW29239  10.549   4.643   6.896 -0.3847 -0.2502 -0.0681
40154SOL    HW129240  10.606   4.593   6.838  0.6089  0.2592  0.4587
40154SOL    HW229241  10.460   4.620   6.867 -0.0127  2.2273 -3.7591
40155SOL     OW29242   3.520   6.238   7.985 -0.3782 -0.2298 -0.0815
40155SOL    HW129243   3.592   6.289   7.948 -1.0802 -0.5174 -1.9301
40155SOL    HW229244   3.555   6.149   7.993  0.0130 -0.0184  0.7077
40156SOL     OW29245   2.166   1.355   5.031  0.4712 -0.3293  0.1379
40156SOL    HW129246   2.153   1.441   4.992  0.1288 -0.3178  0.2797
40156SOL    HW229247   2.095   1.301   4.997  3.1366 -1.9114 -3.7208
40157SOL     OW29248  10.592   0.967   7.805  0.2908  0.0668 -0.1698
40157SOL    HW129249  10.524   0.955   7.739 -1.0359 -0.4431  1.2323
40157SOL    HW229250  10.673   0.980   7.755 -0.6639 -0.3252 -1.8690
40158SOL     OW29251   0.537  10.889   0.937  0.5261 -0.0117 -0.6356
40158SOL    HW129252   0.482  10.889   1.015 -0.3519 -0.7042 -1.2269
40158SOL    HW229253   0.595  10.965   0.948  0.2299  0.0625  0.5403
40159SOL     OW29254   2.310   2.845   7.391 -0.4764  0.1587 -0.3606
40159SOL    HW129255   2.388   2.886   7.353  1.5172  0.2466  3.3961
40159SOL    HW229256   2.321   2.752   7.374 -0.8291  0.3434 -1.8080
40160SOL     OW29257   8.569   7.002   2.471 -0.0187 -0.1679  0.0766
40160SOL    HW129258   8.537   7.002   2.561 -1.6447  1.7298 -0.4092
40160SOL    HW229259   8.508   6.945   2.424 -0.8469  0.9641 -0.2719
40161SOL     OW29260   3.054   4.867   1.470 -0.3175  0.3914 -0.3294
40161SOL    HW129261   3.024   4.958   1.472 -1.9487 -0.0911 -0.8513
40161SOL    HW229262   2.981   4.817   1.508  0.9356 -0.6099  0.8209
40162SOL     OW29263  11.424   3.963   7.811  0.5263 -0.0214 -0.3291
40162SOL    HW129264  11.515   3.970   7.785  0.3465 -0.4604 -1.1033
40162SOL    HW229265  11.374   3.976   7.730 -0.0425 -1.7166 -0.2998
40163SOL     OW29266  12.298   8.298  12.424  0.1371 -0.4046 -0.0034
40163SOL    HW129267  12.381   8.276  12.466  0.5796 -2.4851 -1.7788
40163SOL    HW229268  12.319   8.373  12.368  1.0144 -1.2448 -0.8488
40164SOL     OW29269   9.027  12.171   3.920 -0.2680  0.3023 -0.0724
40164SOL    HW129270   9.112  12.127   3.932 -0.6050 -0.1701  0.6590
40164SOL    HW229271   9.040  12.227   3.843  0.2317 -0.9543 -0.9473
40165SOL     OW29272   0.141   6.272   4.143  0.0889  0.0282  0.1136
40165SOL    HW129273   0.107   6.258   4.054 -0.1602 -0.7558  0.3219
40165SOL    HW229274   0.144   6.367   4.153 -2.1675  0.1548  0.1320
40166SOL     OW29275   3.268   0.629  11.976  0.2353 -0.2249  0.0484
40166SOL    HW129276   3.226   0.567  11.916  0.2514  1.2223 -1.5437
40166SOL    HW229277   3.242   0.599  12.064 -0.5849 -1.8563 -0.7038
40167SOL     OW29278  12.351  10.455  11.767  0.2196  0.3908 -0.2238
40167SOL    HW129279  12.413  10.528  11.759 -1.4639  2.1242  1.3358
40167SOL    HW229280  12.275  10.484  11.715 -0.0722 -0.7615 -0.4559
40168SOL     OW29281   2.318  11.354   5.544 -0.5216 -0.5723 -0.0908
40168SOL    HW129282   2.241  11.324   5.592 -1.1564  1.6000  0.3816
40168SOL    HW229283   2.388  11.295   5.570 -1.9178 -2.3495 -0.2156
40169SOL     OW29284   0.384  11.636  11.944  0.1034  0.1860 -0.2329
40169SOL    HW129285   0.333  11.626  11.864  0.9123 -1.9924 -0.5672
40169SOL    HW229286   0.474  11.651  11.914  0.3842 -0.4866  0.2241
40170SOL     OW29287  12.358   6.047   7.436  0.5066  0.2776 -0.1336
40170SOL    HW129288  12.436   6.078   7.389  0.7549  1.3881  0.9449
40170SOL    HW229289  12.324   6.126   7.479 -1.3570 -0.1514 -0.7556
40171SOL     OW29290  11.416   6.672   5.513  0.2541  0.1678 -0.3238
40171SOL    HW129291  11.331   6.670   5.470 -0.1825 -1.0550  0.5269
40171SOL    HW229292  11.448   6.582   5.508  0.1394 -0.0752  1.9338
40172SOL     OW29293   7.277   2.456  11.499  0.3027  0.4424 -0.0482
40172SOL    HW129294   7.275   2.376  11.552  1.7072 -0.4485 -1.2893
40172SOL    HW229295   7.367   2.464  11.470 -0.1567  1.6170 -1.2629
40173SOL     OW29296   4.394   6.155   1.073  0.1431 -0.0392  0.1585
40173SOL    HW129297   4.476   6.177   1.117 -0.2229  1.5274  0.1366
40173SOL    HW229298   4.403   6.194   0.986 -0.5221 -0.0783  0.0661
40174SOL     OW29299   1.578  12.086  11.132 -0.0962 -0.4289 -0.8273
40174SOL    HW129300   1.539  12.000  11.113 -0.7245 -0.0867 -1.1190
40174SOL    HW229301   1.520  12.124  11.197  0.7152 -0.6044  0.0284
40175SOL     OW29302   9.663  10.210   7.818  0.2552 -0.0904 -0.1831
40175SOL    HW129303   9.757  10.221   7.831  0.0765  0.3008  0.9215
40175SOL    HW229304   9.638  10.142   7.880 -0.2527  0.1101 -0.1632
40176SOL     OW29305  12.454  12.254   2.178  0.0907 -0.2883  0.3905
40176SOL    HW129306  12.386  12.300   2.128 -0.6914 -0.6550  1.1039
40176SOL    HW229307  12.499  12.322   2.227 -0.4918 -0.1660  0.7647
40177SOL     OW29308  12.373   0.749   5.523  0.1297  0.5215 -0.4464
40177SOL    HW129309  12.382   0.832   5.477 -1.0307  0.5854 -0.5872
40177SOL    HW229310  12.448   0.697   5.494  2.3383  2.3716  1.5491
40178SOL     OW29311   8.191   5.340   2.271 -0.0084 -0.0004 -0.1686
40178SOL    HW129312   8.127   5.344   2.342  1.8091 -0.3149  1.5342
40178SOL    HW229313   8.150   5.391   2.200 -1.6550  0.7327  1.2378
40179SOL     OW29314   0.427  10.132   6.711  0.2561 -0.2480  0.2161
40179SOL    HW129315   0.411  10.210   6.764  1.2046 -0.1089  0.3220
40179SOL    HW229316   0.340  10.101   6.686 -0.3333 -1.1730  3.0652
40180SOL     OW29317   0.459   7.866   5.477 -0.5729  0.5136  0.4886
40180SOL    HW129318   0.476   7.960   5.487 -1.3846  0.8919 -1.3498
40180SOL    HW229319   0.372   7.853   5.513 -0.2993  0.3611  1.1199
40181SOL     OW29320   9.522   8.008   3.409  0.0473  0.0601  0.0023
40181SOL    HW129321   9.551   7.948   3.477  0.8483  0.2383 -0.1717
40181SOL    HW229322   9.566   7.977   3.330  1.3460  1.5014  0.1128
40182SOL     OW29323   7.410   0.530   5.531 -0.1590 -0.3868  0.2811
40182SOL    HW129324   7.505   0.544   5.525  0.0021 -0.1766  2.4954
40182SOL    HW229325   7.377   0.610   5.571 -1.2220 -0.6921  0.0344
40183SOL     OW29326  10.008   4.487   6.261  0.6273 -0.2926 -0.2572
40183SOL    HW129327  10.091   4.524   6.290  0.9236  1.0381 -2.6048
40183SOL    HW229328   9.977   4.546   6.193 -3.0618  0.1301  1.5512
40184SOL     OW29329  12.316  11.093   0.820  0.3076  0.0832  0.2423
40184SOL    HW129330  12.274  11.047   0.893 -0.5279 -2.4463 -1.6796
40184SOL    HW229331  12.409  11.075   0.831  0.3914  1.1793  1.5790
40185SOL     OW29332   4.306   0.783   2.936  0.1261  0.1558  0.3247
40185SOL    HW129333   4.250   0.826   2.871 -1.5250 -1.7887  0.3493
40185SOL    HW229334   4.299   0.690   2.914  3.4230 -0.1879  0.3462
40186SOL     OW29335   7.338  11.311   3.467  0.0910  0.4123 -0.6231
40186SOL    HW129336   7.387  11.291   3.387  1.9839  1.8209  0.0830
40186SOL    HW229337   7.255  11.346   3.437  0.4532  0.1749 -1.9599
40187SOL     OW29338  12.134   5.836  10.445 -0.1260  0.3242  0.4441
40187SOL    HW129339  12.040   5.815  10.446 -0.2863  0.9486  1.8011
40187SOL    HW229340  12.147   5.889  10.524  1.4219  0.0499  0.4005
40188SOL     OW29341   7.769   4.077   3.810 -0.0047 -0.1312 -0.0555
40188SOL    HW129342   7.846   4.064   3.755  0.6588  0.2817  0.7389
40188SOL    HW229343   7.804   4.081   3.899 -1.0143 -0.5205  0.3789
40189SOL     OW29344   9.056   4.621   6.983 -0.2452 -0.3433  0.6001
40189SOL    HW129345   9.139   4.655   7.016 -0.2910  1.0430 -0.6017
40189SOL    HW229346   9.081   4.560   6.914 -0.2104  0.0538  0.2563
40190SOL     OW29347   4.595   2.366   7.915  0.1898  0.0942  0.1900
40190SOL    HW129348   4.530   2.379   7.985  0.0720 -2.0333  0.5255
40190SOL    HW229349   4.670   2.418   7.943 -1.0617  2.0418  0.1504
40191SOL     OW29350   8.099   6.134   9.705 -0.2110  0.0043 -0.7107
40191SOL    HW129351   8.018   6.117   9.752 -0.2567 -1.2652 -1.2151
40191SOL    HW229352   8.143   6.049   9.701  1.2645  0.7064 -0.2435
40192SOL     OW29353  10.414   4.532   5.380  0.2385 -0.3421  0.2085
40192SOL    HW129354  10.408   4.437   5.368  1.1594 -0.4753  0.6699
40192SOL    HW229355  10.383   4.547   5.470 -0.6029 -0.1118 -0.1118
40193SOL     OW29356   5.775   6.519  12.331  0.7460  0.1679 -0.2970
40193SOL    HW129357   5.757   6.605  12.291 -0.6529  0.2670  0.4724
40193SOL    HW229358   5.691   6.493  12.369  1.2129 -1.4498 -0.3125
40194SOL     OW29359   7.218   7.680   2.494 -0.5411  1.0105 -0.0831
40194SOL    HW129360   7.207   7.586   2.509  1.8870  0.1957 -2.6970
40194SOL    HW229361   7.213   7.718   2.582 -0.8486 -1.6141  1.1499
40195SOL     OW29362   8.769  11.855   2.100 -0.3156  0.4194  0.6382
40195SOL    HW129363   8.790  11.864   2.007  0.4872  2.7674  0.9796
40195SOL    HW229364   8.800  11.937   2.140 -0.5310 -0.5631  2.9995
40196SOL     OW29365   3.331   0.790   0.952  0.1757 -0.0540  1.0225
40196SOL    HW129366   3.292   0.870   0.917  0.8823  0.0453  0.4146
40196SOL    HW229367   3.266   0.722   0.937 -0.0288  0.2268  0.6245
40197SOL     OW29368   8.748   1.142   5.182 -0.2130  0.2285  0.0999
40197SOL    HW129369   8.815   1.208   5.199 -0.8732  1.2471 -1.1098
40197SOL    HW229370   8.684   1.155   5.252  0.0763  0.2800  0.3606
40198SOL     OW29371  11.408  12.377   1.334  1.0770  0.4327  0.0781
40198SOL    HW129372  11.499  12.395   1.355  1.0743  0.3437  0.1681
40198SOL    HW229373  11.361  12.398   1.415  1.1556 -0.6893  0.4332
40199SOL     OW29374   4.823   0.200  11.194 -0.4322  0.0150 -0.1196
40199SOL    HW129375   4.748   0.142  11.209 -0.5427  0.6816  2.4198
40199SOL    HW229376   4.840   0.194  11.100 -0.3905 -4.1401 -0.0252
40200SOL     OW29377   6.048   4.880   1.992  0.3000 -1.0136  0.5915
40200SOL    HW129378   6.015   4.937   2.061  0.8215  0.7250 -0.5287
40200SOL    HW229379   6.044   4.792   2.030 -0.7559 -0.2907  2.2985
40201SOL     OW29380  12.424   6.464  11.653  0.7793  0.1374  0.6070
40201SOL    HW129381  12.366   6.540  11.656 -0.6716 -0.9270  0.6702
40201SOL    HW229382  12.380   6.403  11.594  2.6407 -0.0972 -0.6090
40202SOL     OW29383   7.985   9.046   4.186 -0.3206 -0.0746 -0.4894
40202SOL    HW129384   7.923   9.076   4.253  1.6391 -0.6935  1.7427
40202SOL    HW229385   8.063   9.100   4.199  1.0307 -1.9190 -0.4961
40203SOL     OW29386  12.163  11.706   6.652 -0.3191  0.0775  0.4474
40203SOL    HW129387  12.116  11.627   6.626 -0.4963  0.4561 -0.4187
40203SOL    HW229388  12.094  11.765   6.684 -0.3955  0.4526 -0.3736
40204SOL     OW29389  11.133   6.181  10.259 -0.1944  0.0042  0.3499
40204SOL    HW129390  11.100   6.092  10.245 -1.6407  0.3267  1.3924
40204SOL    HW229391  11.227   6.175  10.244 -0.5438 -1.2393 -1.6877
40205SOL     OW29392  12.375   9.935   9.465  0.0999 -0.1423 -0.1637
40205SOL    HW129393  12.420   9.979   9.393  3.2407 -2.9846 -0.1832
40205SOL    HW229394  12.413   9.974   9.544  1.0546 -1.0312 -0.1635
40206SOL     OW29395   4.123   0.798   4.701  0.2090 -0.1079  0.6365
40206SOL    HW129396   4.044   0.813   4.650 -0.7476  1.0192  2.3539
40206SOL    HW229397   4.094   0.800   4.792  1.9866 -1.1253  1.2848
40207SOL     OW29398   1.942  10.952  10.232  0.2917  0.2666  0.0097
40207SOL    HW129399   1.903  11.038  10.252  1.0816  0.8999 -1.0676
40207SOL    HW229400   1.935  10.903  10.314 -1.4829  0.8438  0.2413
40208SOL     OW29401   6.853  10.776   9.377 -0.3211 -0.7149 -0.1144
40208SOL    HW129402   6.923  10.765   9.313 -0.2543  0.7180 -0.3216
40208SOL    HW229403   6.800  10.848   9.343 -0.2619  0.1165  1.4501
40209SOL     OW29404   5.936   0.590   6.214  0.4526 -0.1477  0.8014
40209SOL    HW129405   5.978   0.677   6.207 -2.3823  1.4929  2.4254
40209SOL    HW229406   5.977   0.551   6.292  0.7940  0.2988  0.8563
40210SOL     OW29407   5.843   9.107   0.274  0.1203 -0.1395  0.1695
40210SOL    HW129408   5.812   9.026   0.235 -1.3797 -1.3606  3.5271
40210SOL    HW229409   5.768   9.167   0.269 -0.4392 -0.6429  1.8861
40211SOL     OW29410   4.227   4.653   8.692  0.2577  0.3475 -0.1219
40211SOL    HW129411   4.224   4.618   8.603 -0.1044 -1.2780  0.4901
40211SOL    HW229412   4.135   4.665   8.717  0.3482  3.1915 -0.7934
40212SOL     OW29413   9.469   5.811   3.448 -0.2279 -0.0584 -0.0684
40212SOL    HW129414   9.395   5.866   3.475 -0.8706 -1.2852  0.7406
40212SOL    HW229415   9.523   5.804   3.527  1.2057  1.4607 -0.8488
40213SOL     OW29416   2.060  10.286   6.118 -0.2170 -1.0080 -0.0220
40213SOL    HW129417   2.000  10.344   6.165 -0.1386 -0.2668 -0.7934
40213SOL    HW229418   2.007  10.211   6.092 -1.7323  1.0036 -3.3723
40214SOL     OW29419   8.945   3.390   7.795  0.1722 -0.0924  0.2810
40214SOL    HW129420   8.940   3.442   7.875 -2.0284 -0.2551  0.3037
40214SOL    HW229421   9.016   3.328   7.811  1.1253  1.2036  1.2671
40215SOL     OW29422   3.543   1.157   9.836  0.4323  0.7146  0.2873
40215SOL    HW129423   3.462   1.204   9.855  0.1327  0.3899 -0.1704
40215SOL    HW229424   3.568   1.119   9.921 -1.2938 -1.3374 -0.0098
40216SOL     OW29425   4.543   4.342   8.828 -0.1852 -0.1936 -0.5593
40216SOL    HW129426   4.451   4.329   8.805 -0.0167  0.2331 -1.5069
40216SOL    HW229427   4.546   4.327   8.923 -0.9354 -1.7819 -0.7539
40217SOL     OW29428   5.194  10.199   6.337 -0.0298 -0.3414 -0.2478
40217SOL    HW129429   5.288  10.180   6.341  0.1758  0.2850 -1.6687
40217SOL    HW229430   5.189  10.289   6.307 -1.0783  0.3640  1.8756
40218SOL     OW29431  10.886   4.635   4.235 -0.0317 -0.1973 -0.6510
40218SOL    HW129432  10.907   4.641   4.329  0.2650 -0.5405 -0.6914
40218SOL    HW229433  10.882   4.726   4.206 -0.2781 -0.0821 -0.2715
40219SOL     OW29434  11.798   8.835   1.768  0.2338  0.6563 -0.6329
40219SOL    HW129435  11.731   8.773   1.740 -0.0336  0.4357  0.4684
40219SOL    HW229436  11.814   8.889   1.690  0.2888 -0.6026 -1.5367
40220SOL     OW29437   6.402  11.390   6.623 -0.0365  0.1302  0.4493
40220SOL    HW129438   6.392  11.460   6.558 -2.1186  0.5953  1.1776
40220SOL    HW229439   6.341  11.322   6.594  0.8908 -0.7595  0.5549
40221SOL     OW29440   7.284   9.752   5.189  0.5412 -0.3246 -0.6529
40221SOL    HW129441   7.307   9.749   5.282  2.7459 -0.7080 -1.1653
40221SOL    HW229442   7.188   9.744   5.188  0.4168  0.1663  1.5890
40222SOL     OW29443   8.165   2.061   3.690 -0.2164 -0.5183  0.4171
40222SOL    HW129444   8.259   2.073   3.674 -0.5238  1.1719 -0.3180
40222SOL    HW229445   8.157   2.064   3.785  0.4517 -0.4342  0.4791
40223SOL     OW29446   0.495  12.073   7.581 -0.2418  0.3717 -0.3206
40223SOL    HW129447   0.514  12.048   7.491 -2.4796 -1.2865 -0.4086
40223SOL    HW229448   0.414  12.125   7.575  0.0388  0.9595  0.6639
40224SOL     OW29449   4.453   6.502   3.468 -0.3429 -0.1506  0.1956
40224SOL    HW129450   4.371   6.467   3.435 -0.9624  0.7669  0.7289
40224SOL    HW229451   4.490   6.431   3.522  0.7931 -1.7559 -2.5034
40225SOL     OW29452   2.754   7.573   5.062 -0.0594 -0.4667  1.2057
40225SOL    HW129453   2.784   7.494   5.107 -0.8143 -0.0764  2.4729
40225SOL    HW229454   2.790   7.645   5.114  0.2495  0.0198  0.3281
40226SOL     OW29455   0.786   1.889   8.502  0.1701  0.1457 -0.7779
40226SOL    HW129456   0.728   1.956   8.466 -1.5312 -0.6157  0.4059
40226SOL    HW229457   0.769   1.812   8.449 -2.3443 -0.9794  1.4322
40227SOL     OW29458   4.032   3.080   9.719 -0.6722  0.4934  0.6551
40227SOL    HW129459   4.079   3.138   9.658  0.9240  0.8272  2.1445
40227SOL    HW229460   3.948   3.065   9.676  0.4027  0.6409 -1.6793
40228SOL     OW29461   5.260   1.615   1.908  0.0883  0.3712 -0.1884
40228SOL    HW129462   5.195   1.557   1.949 -0.0545  0.0659 -0.8380
40228SOL    HW229463   5.309   1.652   1.982  0.3808 -0.8125  0.2279
40229SOL     OW29464   9.813   0.870   0.917  0.1723  0.0945  0.1760
40229SOL    HW129465   9.743   0.807   0.901  0.4364 -0.1581 -0.0048
40229SOL    HW229466   9.795   0.904   1.004 -1.0481  1.1698 -0.4706
40230SOL     OW29467   3.520   1.754   2.732  0.0683  0.2324 -0.5174
40230SOL    HW129468   3.443   1.784   2.684  0.0482  0.6811 -0.2081
40230SOL    HW229469   3.487   1.726   2.817  0.3234  1.0910 -0.1155
40231SOL     OW29470   3.593  10.626   6.742  0.6145 -0.2823  0.5283
40231SOL    HW129471   3.676  10.584   6.720 -0.1667 -1.6356  0.0113
40231SOL    HW229472   3.617  10.714   6.770  2.1676 -0.4414 -0.1882
40232SOL     OW29473   6.136   0.292   4.940  0.4191  0.2034  0.2094
40232SOL    HW129474   6.077   0.236   4.990 -0.7232  1.6502  0.5372
40232SOL    HW229475   6.171   0.353   5.004  0.5173  0.7856 -0.3896
40233SOL     OW29476   0.303   1.414   4.476 -0.2994 -0.2582  0.2987
40233SOL    HW129477   0.350   1.497   4.473 -0.6364 -0.0833 -0.3724
40233SOL    HW229478   0.282   1.401   4.569 -1.2261  0.9734  0.2897
40234SOL     OW29479   4.033   8.069  12.052 -0.3960  0.0907  0.0041
40234SOL    HW129480   4.059   8.112  12.134 -0.1687  1.1766 -0.6086
40234SOL    HW229481   4.101   8.095  11.989 -0.9475 -0.1360 -0.6958
40235SOL     OW29482   6.140   1.301  10.136 -0.0548  0.4499  0.0572
40235SOL    HW129483   6.078   1.367  10.168 -0.2551 -0.3063  1.3023
40235SOL    HW229484   6.206   1.351  10.089 -1.0621  1.3800 -0.4265
40236SOL     OW29485   3.694  11.727   4.842 -0.5987 -0.0042  0.2416
40236SOL    HW129486   3.680  11.735   4.937  1.1402 -1.2226  0.6628
40236SOL    HW229487   3.746  11.647   4.833 -3.0742 -1.5122 -2.0212
40237SOL     OW29488   4.927   0.651   5.388  0.6528 -0.1077 -0.4533
40237SOL    HW129489   4.935   0.653   5.292 -0.9245 -0.7574 -0.6420
40237SOL    HW229490   5.017   0.647   5.420  1.2241  0.4769 -1.8957
40238SOL     OW29491   7.935  11.159   2.356  0.4353 -0.2587 -0.1710
40238SOL    HW129492   8.012  11.192   2.310  0.2158  1.1770  0.4641
40238SOL    HW229493   7.869  11.148   2.288  1.4355 -2.4802 -0.9068
40239SOL     OW29494   7.296   2.392   6.708 -0.5723  0.1524  0.6115
40239SOL    HW129495   7.380   2.346   6.709  0.1177  1.2917 -0.9271
40239SOL    HW229496   7.298   2.447   6.786 -0.7069 -1.1849  1.5825
40240SOL     OW29497   5.757   4.326   4.203 -1.0564  0.1709  0.4642
40240SOL    HW129498   5.696   4.372   4.146  1.1346  1.0825 -1.3038
40240SOL    HW229499   5.778   4.245   4.156  1.3079  1.2540 -0.4745
40241SOL     OW29500   6.060   1.935   1.010  0.2304 -0.3220 -0.4902
40241SOL    HW129501   6.107   2.018   1.017  0.4337 -0.5431  1.4771
40241SOL    HW229502   6.127   1.869   1.032 -0.6921 -0.7149  1.3653
40242SOL     OW29503  11.599   6.719   4.599 -0.2185 -0.6947  0.3182
40242SOL    HW129504  11.542   6.766   4.539 -0.0407  0.3249  0.9373
40242SOL    HW229505  11.549   6.641   4.624 -0.2579 -1.1879 -1.2018
40243SOL     OW29506   5.277   2.912  10.994  0.4583 -0.4672 -0.5939
40243SOL    HW129507   5.223   2.987  11.019  1.9573  0.4019  0.1891
40243SOL    HW229508   5.361   2.951  10.968  0.5953 -1.7370 -2.1839
40244SOL     OW29509   3.733   5.790   9.755 -1.2011 -0.4677  0.2746
40244SOL    HW129510   3.657   5.843   9.732 -3.1611 -2.8686  0.7696
40244SOL    HW229511   3.703   5.737   9.829  1.9900  0.6285  2.5948
40245SOL     OW29512   6.205   5.270   6.215  0.0847  0.4706 -0.1354
40245SOL    HW129513   6.200   5.182   6.252  0.6706  0.5296  0.1021
40245SOL    HW229514   6.117   5.305   6.224  0.1200  0.3420  0.8740
40246SOL     OW29515   3.534   5.540   8.157  0.2695  0.0264 -0.3561
40246SOL    HW129516   3.504   5.620   8.114  0.4448 -0.7235 -1.9388
40246SOL    HW229517   3.490   5.470   8.110 -1.6785 -0.8057  2.4081
40247SOL     OW29518   1.425   4.461   5.372  0.3601  0.6891 -0.1423
40247SOL    HW129519   1.343   4.412   5.379  0.8876 -0.3099 -0.7578
40247SOL    HW229520   1.427   4.492   5.282  0.2943  1.3972  0.0904
40248SOL     OW29521   8.611   5.600   1.097  0.0274 -0.3730  0.1236
40248SOL    HW129522   8.584   5.658   1.026 -0.1682  0.4839  0.8860
40248SOL    HW229523   8.646   5.523   1.053  0.5252  0.4240 -0.9109
40249SOL     OW29524   0.539   1.737   3.912  0.6118 -0.1519  0.2273
40249SOL    HW129525   0.461   1.725   3.967  0.5383 -2.4674 -0.2844
40249SOL    HW229526   0.612   1.716   3.970  0.5527 -2.2775 -0.3990
40250SOL     OW29527   0.130   8.505   1.799 -0.1193 -0.1028 -0.0334
40250SOL    HW129528   0.205   8.456   1.765 -0.7639 -0.4388 -1.0106
40250SOL    HW229529   0.053   8.458   1.765 -0.7768  0.2647  0.8998
40251SOL     OW29530   4.509   1.391   0.148 -0.0993  0.1120 -0.3124
40251SOL    HW129531   4.435   1.419   0.094 -0.6883  0.4274  0.6343
40251SOL    HW229532   4.577   1.455   0.130 -1.0531  1.5790  0.9708
40252SOL     OW29533   9.201   4.839   2.480  0.8463 -0.1266 -0.1174
40252SOL    HW129534   9.128   4.893   2.509  0.4742  0.0239 -1.2697
40252SOL    HW229535   9.210   4.859   2.387  1.6829 -0.9228 -0.2232
40253SOL     OW29536   7.243   6.345   0.693 -0.4699 -0.4332  0.4797
40253SOL    HW129537   7.224   6.355   0.786  0.6057 -0.7798  0.7434
40253SOL    HW229538   7.237   6.433   0.657 -0.9380 -0.3043  0.8644
40254SOL     OW29539  11.614   3.819   8.195  0.0893  0.7242  0.1669
40254SOL    HW129540  11.575   3.847   8.278  0.0951  1.4491 -0.0663
40254SOL    HW229541  11.652   3.733   8.215  1.1086  1.3880  1.2343
40255SOL     OW29542   0.398   0.481   4.247 -0.1366 -0.3777 -0.3725
40255SOL    HW129543   0.364   0.399   4.283 -0.1931 -0.7844 -1.2987
40255SOL    HW229544   0.487   0.488   4.281  0.3567 -1.5369 -1.3414
40256SOL     OW29545   0.989   8.991   5.897  0.4997 -0.0537  0.6470
40256SOL    HW129546   1.032   8.979   5.813 -1.3054 -0.7228 -0.2190
40256SOL    HW229547   0.896   8.989   5.878  0.0190  1.6757  2.4141
40257SOL     OW29548  12.280   8.612  11.259 -0.4794  0.5127  0.0780
40257SOL    HW129549  12.225   8.688  11.238 -0.9821  0.6806  1.8761
40257SOL    HW229550  12.237   8.572  11.335  0.7001 -0.6166  0.1735
40258SOL     OW29551   9.272   6.779   4.013  0.7940 -0.3463 -0.1254
40258SOL    HW129552   9.295   6.736   4.096  1.0260  1.7104  0.9450
40258SOL    HW229553   9.354   6.781   3.964  0.6390 -1.6470 -0.4763
40259SOL     OW29554   2.325   7.083   2.315  0.0470 -0.8680  0.3084
40259SOL    HW129555   2.341   7.116   2.226 -2.5340 -0.8353 -0.2153
40259SOL    HW229556   2.407   7.040   2.339  1.1443 -0.0607 -1.7077
40260SOL     OW29557   3.905  11.241   0.003 -0.7299  0.4727 -0.0971
40260SOL    HW129558   3.811  11.239  -0.013 -0.7616 -0.9232  0.1193
40260SOL    HW229559   3.919  11.176   0.072  0.4063  0.5667 -0.2221
40261SOL     OW29560   6.158   1.150   4.585  0.0693 -0.1079 -0.2753
40261SOL    HW129561   6.169   1.244   4.592 -0.7568 -0.0546  0.4207
40261SOL    HW229562   6.099   1.127   4.657 -0.6613 -0.9940 -1.1270
40262SOL     OW29563   2.971   1.669   2.667  0.3095  0.0097  0.2725
40262SOL    HW129564   2.948   1.737   2.731  0.3211 -1.2385  1.6300
40262SOL    HW229565   3.066   1.664   2.669  0.4725  1.2968 -1.3093
40263SOL     OW29566   2.769  12.340   8.361  0.0497 -0.5917 -0.3406
40263SOL    HW129567   2.709  12.279   8.404  0.2971 -0.7473 -0.2109
40263SOL    HW229568   2.713  12.410   8.328 -0.4254 -1.6187 -1.7912
40264SOL     OW29569   3.613   2.251  11.979  0.1955  0.6895  0.0979
40264SOL    HW129570   3.671   2.273  12.051 -1.4129 -0.2096  1.7378
40264SOL    HW229571   3.529   2.289  12.003 -0.5402 -0.1632 -1.0205
40265SOL     OW29572   2.691   7.091   0.145 -0.4307  0.4297  0.3764
40265SOL    HW129573   2.676   7.177   0.104 -2.5859 -0.0094  0.1359
40265SOL    HW229574   2.786   7.082   0.147 -0.1817  1.6301 -2.1348
40266SOL     OW29575   2.631  12.224  12.361  0.0397 -0.2408 -0.1980
40266SOL    HW129576   2.615  12.257  12.449  0.8742  0.4143 -0.2839
40266SOL    HW229577   2.679  12.142  12.375 -1.2083 -0.9614 -0.0136
40267SOL     OW29578   3.802   3.893   8.817  0.2050  0.5873 -0.2162
40267SOL    HW129579   3.765   3.805   8.814  1.3348  0.1328 -1.6482
40267SOL    HW229580   3.868   3.889   8.887 -0.1598  0.4862  0.1277
40268SOL     OW29581   4.581   6.683   4.875 -0.4131  0.1350 -0.0445
40268SOL    HW129582   4.552   6.754   4.818  0.1425 -1.0256 -1.8266
40268SOL    HW229583   4.601   6.726   4.958  1.7112  2.4154 -1.6029
40269SOL     OW29584   8.923   1.330   5.297 -0.5450 -0.1667 -0.0237
40269SOL    HW129585   8.912   1.376   5.380 -0.2789  1.9016 -1.0755
40269SOL    HW229586   9.015   1.340   5.276 -0.4629 -1.2798 -0.2668
40270SOL     OW29587   8.238   7.074   4.869 -0.1994 -0.0215 -0.3854
40270SOL    HW129588   8.320   7.060   4.916 -0.3603  1.2210  0.3136
40270SOL    HW229589   8.264   7.083   4.777  0.7723  2.5274  0.0488
40271SOL     OW29590   0.643   6.155   7.581 -0.0522  0.2895  0.5275
40271SOL    HW129591   0.723   6.164   7.530 -0.1427 -3.7876 -0.7237
40271SOL    HW229592   0.590   6.230   7.555  1.5254  0.5770 -2.3362
40272SOL     OW29593   7.945   6.441   9.899 -1.0565 -0.3577 -0.6425
40272SOL    HW129594   7.890   6.492   9.840 -1.0677  0.9587  0.4386
40272SOL    HW229595   7.884   6.406   9.965 -0.7790  0.0148 -0.1803
40273SOL     OW29596   8.718   0.049   1.399  0.0114 -0.0062  0.1352
40273SOL    HW129597   8.634   0.008   1.419  0.4799 -1.3785 -0.6008
40273SOL    HW229598   8.766   0.047   1.481 -0.7334  1.0044  0.6237
40274SOL     OW29599  10.136   0.174   4.838 -0.5849 -0.5975 -0.0305
40274SOL    HW129600  10.137   0.260   4.797 -1.4482 -0.9896 -0.9244
40274SOL    HW229601  10.047   0.142   4.824 -0.9584 -0.7334  2.2480
40275SOL     OW29602   2.508   1.471  11.543 -0.1041  0.2142  0.0708
40275SOL    HW129603   2.415   1.449  11.551  0.5685 -3.6017 -0.9591
40275SOL    HW229604   2.536   1.488  11.633 -1.3076 -0.9307  0.6931
40276SOL     OW29605   2.910   5.872   7.228 -0.9535  0.5411  0.4090
40276SOL    HW129606   2.842   5.818   7.187 -1.1989  0.4822  0.8854
40276SOL    HW229607   2.865   5.915   7.301 -0.4787  0.5145  0.7169
40277SOL     OW29608   7.413   3.529   2.465 -0.4406  0.0504  0.6901
40277SOL    HW129609   7.347   3.598   2.456 -0.1548  0.6239  2.5118
40277SOL    HW229610   7.480   3.567   2.523  0.1753 -1.4239  0.9955
40278SOL     OW29611   4.747   2.144   9.942 -0.1810 -0.1503 -0.1136
40278SOL    HW129612   4.656   2.169   9.960 -0.5169 -0.2107 -1.5751
40278SOL    HW229613   4.743   2.049   9.928  0.1721 -0.2045  0.1481
40279SOL     OW29614   0.055   3.865  12.238 -0.2642  0.2082  0.6822
40279SOL    HW129615   0.107   3.794  12.199 -1.7890 -0.8028  0.4303
40279SOL    HW229616   0.120   3.929  12.266  1.0644 -0.4463 -0.7487
40280SOL     OW29617   3.837   4.614   9.821 -0.3294 -0.2652  0.2990
40280SOL    HW129618   3.922   4.580   9.795 -1.2796 -2.0666 -0.7015
40280SOL    HW229619   3.856   4.683   9.883  1.8783  0.1124 -0.7207
40281SOL     OW29620   7.225   0.410   1.200  0.8988 -0.7080 -0.3813
40281SOL    HW129621   7.179   0.466   1.137  0.1981 -1.7114 -0.7793
40281SOL    HW229622   7.178   0.327   1.197  0.0646 -0.4395  2.3631
40282SOL     OW29623  11.071   9.426  11.750 -0.1217  0.0143 -0.0408
40282SOL    HW129624  11.131   9.445  11.678  0.4668 -1.5923 -0.0077
40282SOL    HW229625  10.991   9.475  11.729  1.2004  2.3435 -0.0084
40283SOL     OW29626   4.062  11.567   5.214  0.7290  0.0101  0.7870
40283SOL    HW129627   3.986  11.528   5.256 -0.8681  1.0669 -0.9646
40283SOL    HW229628   4.137  11.533   5.263 -0.8490 -1.0440  2.5865
40284SOL     OW29629   1.075  12.231   9.813 -0.1597  0.3597 -0.3832
40284SOL    HW129630   1.118  12.236   9.728  0.8077 -0.9552 -0.0108
40284SOL    HW229631   1.077  12.138   9.835  1.0159  0.8295  1.7632
40285SOL     OW29632   3.285  10.611   1.359  0.0952 -0.3737 -0.5763
40285SOL    HW129633   3.205  10.566   1.331 -1.4614  0.4683  2.1725
40285SOL    HW229634   3.301  10.579   1.448  0.4343  2.4582  0.4774
40286SOL     OW29635  10.665   2.183  11.585  0.0043 -0.1174  0.5694
40286SOL    HW129636  10.670   2.278  11.602 -0.3336 -0.3694  2.2450
40286SOL    HW229637  10.577   2.170  11.549  0.9850  0.5304 -2.3019
40287SOL     OW29638   5.431   9.455   5.618  1.1545 -0.1064 -0.4810
40287SOL    HW129639   5.386   9.405   5.550 -1.0027  1.7104 -0.4786
40287SOL    HW229640   5.361   9.484   5.677  2.7501 -0.0730  1.5188
40288SOL     OW29641   6.862  12.345  10.407 -0.6569 -0.6219 -0.1642
40288SOL    HW129642   6.927  12.372  10.471 -1.1048 -2.2984  1.0586
40288SOL    HW229643   6.835  12.427  10.364  0.5800  0.3731  0.8721
40289SOL     OW29644   8.957   6.551   2.098  0.3490  0.2035  0.7818
40289SOL    HW129645   9.003   6.533   2.015 -0.2367  0.7402  0.3321
40289SOL    HW229646   8.868   6.521   2.083 -0.3542  2.3442  0.4098
40290SOL     OW29647   5.200   5.258   6.542  0.2756  0.3083 -0.1617
40290SOL    HW129648   5.169   5.199   6.611 -2.5309  1.4869 -0.2414
40290SOL    HW229649   5.206   5.204   6.464 -1.3296 -0.1068 -0.0306
40291SOL     OW29650   9.740   5.716   6.866 -0.3366  0.2355  0.1506
40291SOL    HW129651   9.787   5.724   6.949 -0.2331  0.6912  0.0497
40291SOL    HW229652   9.789   5.771   6.805 -0.0503 -0.5762 -0.3768
40292SOL     OW29653   6.332   3.262  10.392  0.2445 -0.1184 -0.6487
40292SOL    HW129654   6.329   3.170  10.364  0.5237 -0.4419  0.3613
40292SOL    HW229655   6.403   3.266  10.455  0.1920  0.7906 -0.6329
40293SOL     OW29656   1.303  11.582   0.515 -0.1037  0.1431 -0.2040
40293SOL    HW129657   1.246  11.574   0.591  0.7549  1.7041  0.6624
40293SOL    HW229658   1.244  11.606   0.443 -0.9072 -1.2511 -0.0521
40294SOL     OW29659   2.275   2.772   3.970 -0.6008 -0.0673  0.2063
40294SOL    HW129660   2.198   2.720   3.945 -0.7089  0.2540 -0.1449
40294SOL    HW229661   2.347   2.732   3.920 -0.6331 -0.0499  0.1456
40295SOL     OW29662   3.449  12.152   6.311  0.5406  0.1291 -0.1737
40295SOL    HW129663   3.455  12.080   6.249  1.3968  0.8701 -0.9750
40295SOL    HW229664   3.536  12.193   6.310  0.0723  1.1961  0.2338
40296SOL     OW29665   2.266  12.217   2.223 -0.0143  0.8078 -0.2036
40296SOL    HW129666   2.306  12.146   2.173 -1.6305 -0.8186  0.7073
40296SOL    HW229667   2.312  12.217   2.307  0.2813  1.1458 -0.3631
40297SOL     OW29668  11.039  11.073   5.733  0.2971  0.7145 -0.2821
40297SOL    HW129669  10.990  10.991   5.732 -0.6430  1.2011  1.5621
40297SOL    HW229670  11.111  11.059   5.672 -0.6101 -0.9899 -1.0213
40298SOL     OW29671   0.991  10.491  11.900  0.1417 -0.2777 -1.1135
40298SOL    HW129672   0.904  10.495  11.942 -0.2045 -4.2671 -1.0975
40298SOL    HW229673   1.052  10.499  11.973 -0.1954  1.0630 -0.9439
40299SOL     OW29674   0.924   6.013   0.469  0.4743 -0.2743  0.0019
40299SOL    HW129675   0.912   6.006   0.374 -1.4243 -0.6830  0.2292
40299SOL    HW229676   0.965   6.098   0.481 -1.5893  0.9572 -1.0645
40300SOL     OW29677   2.971   3.369   2.095  0.2979  0.6405 -0.2099
40300SOL    HW129678   2.916   3.308   2.045 -0.8972  1.8769 -0.4921
40300SOL    HW229679   2.946   3.354   2.186 -3.0557  3.3155 -0.4571
40301SOL     OW29680   3.629   7.491   7.414 -0.0735 -0.4394 -0.5182
40301SOL    HW129681   3.698   7.426   7.428  0.4228  0.0344 -0.7270
40301SOL    HW229682   3.640   7.518   7.323 -1.6372 -1.6181 -1.0931
40302SOL     OW29683   9.397   2.644   5.255  0.1468 -0.4060  0.2944
40302SOL    HW129684   9.417   2.690   5.173 -0.9198 -0.9382 -0.2698
40302SOL    HW229685   9.471   2.667   5.313  0.3275  0.9179 -0.4144
40303SOL     OW29686   2.304   3.289   3.320 -0.1431  0.6327 -0.1100
40303SOL    HW129687   2.260   3.363   3.281 -0.6960  1.1566  1.4247
40303SOL    HW229688   2.368   3.328   3.380  1.5442 -0.1228 -1.3189
40304SOL     OW29689  10.895   6.650   7.371 -0.3120  0.2553 -0.2626
40304SOL    HW129690  10.832   6.687   7.309  0.1014 -0.3013 -1.0439
40304SOL    HW229691  10.968   6.622   7.316  0.6438  0.9179  0.6216
40305SOL     OW29692  10.065   1.678   3.854 -0.0360 -0.1732 -0.1028
40305SOL    HW129693   9.970   1.678   3.861  0.0355  0.9236  1.2290
40305SOL    HW229694  10.085   1.749   3.793 -0.0381  0.2001  0.3292
40306SOL     OW29695   5.305   5.884   3.591 -0.2792 -0.1385  0.2434
40306SOL    HW129696   5.289   5.960   3.648  1.1850 -0.5778  1.2895
40306SOL    HW229697   5.252   5.814   3.630  0.1865 -0.2587  0.6668
40307SOL     OW29698   3.916  12.009   7.914  0.1264  0.2623  0.1620
40307SOL    HW129699   3.959  12.005   8.000  0.9228  1.7772 -0.1394
40307SOL    HW229700   3.825  11.985   7.932  0.2883  0.5203  1.4357
40308SOL     OW29701   7.625  10.470   7.132  0.0420  0.3155 -0.1349
40308SOL    HW129702   7.550  10.446   7.078 -0.4519 -1.0768  1.1262
40308SOL    HW229703   7.701  10.448   7.079 -0.4040  1.2576 -1.2149
40309SOL     OW29704   7.327   8.357   7.219  0.0715  0.2067 -0.5207
40309SOL    HW129705   7.301   8.388   7.132  1.6275 -1.3383 -1.5932
40309SOL    HW229706   7.264   8.288   7.239  0.1497  0.0688 -0.7474
40310SOL     OW29707  10.950   9.900   2.657 -0.1317  0.3290 -0.2144
40310SOL    HW129708  10.991   9.829   2.607 -0.1881  0.3894 -0.3473
40310SOL    HW229709  10.934   9.969   2.592 -0.9524  0.0921 -0.2740
40311SOL     OW29710   9.430   0.895   1.406  0.3150  0.1539  0.9799
40311SOL    HW129711   9.459   0.905   1.496  0.7063 -3.0406  1.3195
40311SOL    HW229712   9.334   0.897   1.411  0.3188  2.6683  1.0117
40312SOL     OW29713  11.580   2.961   9.812 -0.0570 -0.1668 -0.1354
40312SOL    HW129714  11.581   2.867   9.795 -0.3218 -0.5201  1.5875
40312SOL    HW229715  11.597   2.968   9.906  0.2631  1.5310 -0.2878
40313SOL     OW29716   6.105  11.952   0.090  0.6284 -0.4146  0.0615
40313SOL    HW129717   6.127  11.890   0.021 -0.6751 -1.4651  0.5490
40313SOL    HW229718   6.177  12.016   0.089  1.3433 -1.2013 -1.3004
40314SOL     OW29719  11.571   7.248   5.124 -0.2613 -0.0550  0.3797
40314SOL    HW129720  11.553   7.157   5.147  1.3758 -0.0810  1.7349
40314SOL    HW229721  11.540   7.256   5.034  1.9336 -2.7286 -0.7662
40315SOL     OW29722  11.004   2.785   2.133 -0.5851  0.4290 -0.0196
40315SOL    HW129723  10.979   2.719   2.068  1.2235 -1.0460  0.6986
40315SOL    HW229724  11.041   2.857   2.082 -2.6347  1.0060 -0.8201
40316SOL     OW29725   0.906  10.704  11.097 -0.0957  0.0264  0.1510
40316SOL    HW129726   0.850  10.668  11.028 -0.2408  0.8881 -0.1827
40316SOL    HW229727   0.995  10.684  11.069 -0.1026  1.2476 -0.7976
40317SOL     OW29728  10.093   4.145  10.187  0.6612  0.0983 -0.3203
40317SOL    HW129729  10.033   4.115  10.119 -1.6850  0.3315  1.5052
40317SOL    HW229730  10.090   4.240  10.181 -1.7105  0.2684  1.6576
40318SOL     OW29731   1.732  12.257  12.037  0.1039  0.5423  0.3273
40318SOL    HW129732   1.686  12.177  12.012  1.5985 -0.4060  0.5245
40318SOL    HW229733   1.682  12.291  12.112 -0.8885  0.1303 -0.1394
40319SOL     OW29734   8.224   3.372  11.663 -0.3132  0.5652  0.3895
40319SOL    HW129735   8.258   3.368  11.573 -0.6272  0.0063  0.2913
40319SOL    HW229736   8.150   3.312  11.663 -0.3256  0.5760  1.0240
40320SOL     OW29737   9.688   0.654  11.925 -0.5618 -0.1221  0.1118
40320SOL    HW129738   9.706   0.642  11.832 -0.4265  0.2585  0.0886
40320SOL    HW229739   9.701   0.567  11.964  1.1513  0.0925  0.0745
40321SOL     OW29740  10.213   1.869   9.096  0.0230  0.3150  0.2320
40321SOL    HW129741  10.186   1.790   9.142  0.3604  0.5166  0.7810
40321SOL    HW229742  10.306   1.878   9.116  0.1650  0.4269 -0.4582
40322SOL     OW29743   4.767   1.233   4.629  0.2906 -0.5003  0.3285
40322SOL    HW129744   4.706   1.275   4.568 -0.1876 -0.2445  0.9717
40322SOL    HW229745   4.854   1.254   4.594  0.0163 -0.7167 -0.4943
40323SOL     OW29746   5.776   9.694   1.699 -0.6452 -0.2289 -0.3763
40323SOL    HW129747   5.860   9.657   1.726 -1.3414 -1.3303  0.3005
40323SOL    HW229748   5.757   9.761   1.764 -1.2819 -1.4088  0.6800
40324SOL     OW29749   8.486  11.982   9.192 -0.4827 -0.2024 -0.2831
40324SOL    HW129750   8.551  12.000   9.124  1.2302  1.1592  1.5734
40324SOL    HW229751   8.406  12.025   9.162  0.7350  1.9302 -0.6715
40325SOL     OW29752  11.211   5.485   4.517  0.4057  0.0400 -0.1956
40325SOL    HW129753  11.302   5.515   4.519  0.5996 -0.5229 -0.2926
40325SOL    HW229754  11.188   5.484   4.424  0.2065  0.4534 -0.1523
40326SOL     OW29755   8.234   5.633   5.777 -0.2939  0.2391 -0.2023
40326SOL    HW129756   8.181   5.633   5.857  0.2781  0.2961  0.1813
40326SOL    HW229757   8.299   5.564   5.791 -0.6979 -0.3155 -0.9677
40327SOL     OW29758   3.657   3.982  10.825 -0.4556 -0.0818  0.7375
40327SOL    HW129759   3.728   4.032  10.784 -1.4657  0.2038 -0.7583
40327SOL    HW229760   3.664   3.895  10.786 -0.4997 -0.2527  1.1128
40328SOL     OW29761  11.502  12.529   9.156 -0.2022 -0.1675 -0.0376
40328SOL    HW129762  11.481  12.438   9.134 -1.6236  0.1814 -0.2502
40328SOL    HW229763  11.597  12.532   9.160 -0.1182 -1.5319 -0.6141
40329SOL     OW29764   0.806   2.055  12.608 -0.6063  0.1382 -0.0077
40329SOL    HW129765   0.851   2.137  12.589 -0.9528  0.0560 -1.2454
40329SOL    HW229766   0.722   2.081  12.644 -0.5956  0.3211 -0.1164
40330SOL     OW29767   9.665  10.800   3.625 -0.1654  0.2177 -0.1439
40330SOL    HW129768   9.609  10.788   3.703  0.1620  2.0758  0.4347
40330SOL    HW229769   9.721  10.723   3.624 -2.3451 -1.4524 -0.4306
40331SOL     OW29770  10.516  12.263   2.557 -0.0879 -0.0033 -0.1795
40331SOL    HW129771  10.573  12.195   2.592 -0.1887 -0.9986 -1.8574
40331SOL    HW229772  10.561  12.294   2.477  0.0432  2.0456  0.6165
40332SOL     OW29773  10.954  12.014   3.393  0.7401 -0.3489 -0.7935
40332SOL    HW129774  10.885  12.017   3.326 -0.8228 -0.5523  0.7560
40332SOL    HW229775  10.936  12.089   3.449  0.7141 -1.3975  0.6407
40333SOL     OW29776   9.315   0.021   3.376 -0.0863 -0.0129  0.6930
40333SOL    HW129777   9.225   0.029   3.344 -0.4060 -0.2132  1.5060
40333SOL    HW229778   9.316  -0.062   3.423  0.1686  0.5876  1.7860
40334SOL     OW29779  12.073   4.816   0.074  0.0166 -0.1387 -0.1182
40334SOL    HW129780  12.006   4.835   0.139 -0.0541 -0.6383 -0.0417
40334SOL    HW229781  12.094   4.901   0.036 -0.9715 -0.0388 -0.4562
40335SOL     OW29782   7.267   4.998   6.224 -0.1043  0.0549  0.2260
40335SOL    HW129783   7.226   4.912   6.215  2.1781 -0.9723 -1.4925
40335SOL    HW229784   7.329   5.003   6.151  0.8810  2.5716  1.1167
40336SOL     OW29785   7.539   2.077   0.094  0.2827  0.7900  0.0820
40336SOL    HW129786   7.517   1.984   0.105  1.5846  0.3759 -0.6862
40336SOL    HW229787   7.497   2.120   0.169 -0.4852 -0.3852  0.3510
40337SOL     OW29788   4.948   5.358   2.418  0.4706 -0.3738 -0.1353
40337SOL    HW129789   4.992   5.351   2.333 -0.2997  1.2637 -0.7160
40337SOL    HW229790   5.007   5.314   2.479  0.7295 -2.1882 -1.5995
40338SOL     OW29791  12.088   7.690  11.524  0.0163 -0.7121 -0.4179
40338SOL    HW129792  12.134   7.631  11.464  0.7333 -1.8106  1.1680
40338SOL    HW229793  12.147   7.702  11.597 -0.4671  1.3535 -0.3000
40339SOL     OW29794   4.650   3.028   2.835 -0.0575  0.4170  0.5057
40339SOL    HW129795   4.668   3.004   2.744 -0.0251  1.5679  0.1947
40339SOL    HW229796   4.736   3.024   2.877  0.3612  2.2117 -0.0946
40340SOL     OW29797   1.080   9.263   3.402  0.6277  0.0528  0.0127
40340SOL    HW129798   1.041   9.345   3.372 -0.7582 -0.5378  0.1386
40340SOL    HW229799   1.012   9.197   3.391  0.4171 -0.4450  3.2124
40341SOL     OW29800  10.720   3.439   5.776 -0.1645  0.1741 -0.4980
40341SOL    HW129801  10.734   3.497   5.851 -0.7613 -0.7792  0.3746
40341SOL    HW229802  10.685   3.496   5.708  1.5035  1.2963 -0.4921
40342SOL     OW29803   2.734   1.080  10.734  0.3502  0.0941  0.6347
40342SOL    HW129804   2.711   1.014  10.669  2.8136 -0.3066  0.0698
40342SOL    HW229805   2.706   1.163  10.695 -0.5781 -0.3738  0.2719
40343SOL     OW29806   0.362   9.054  10.406 -0.1000  0.3059 -0.1943
40343SOL    HW129807   0.310   9.019  10.478 -1.6347  3.7528  0.5557
40343SOL    HW229808   0.301   9.063  10.333  0.5061  0.4465 -0.7015
40344SOL     OW29809   2.310   3.246  12.611  0.4204 -0.3464  0.3870
40344SOL    HW129810   2.334   3.170  12.558  0.4328  0.1049 -0.2595
40344SOL    HW229811   2.214   3.252  12.603  0.5097  0.2304 -0.2831
40345SOL     OW29812   9.907   4.550   2.478 -0.5656 -0.8550  0.1597
40345SOL    HW129813   9.964   4.532   2.404  0.3489 -1.2101  0.9223
40345SOL    HW229814   9.963   4.536   2.555 -0.5510  2.4350  0.8977
40346SOL     OW29815   8.873   9.047   2.341 -0.2875  0.4837  0.5691
40346SOL    HW129816   8.886   9.142   2.344  0.2861  0.4446 -0.3571
40346SOL    HW229817   8.807   9.030   2.408  1.0883  1.2741  2.2063
40347SOL     OW29818   0.894  10.044   8.178 -0.3875 -0.4255  0.4814
40347SOL    HW129819   0.836   9.980   8.135 -0.6313 -1.2185  1.9203
40347SOL    HW229820   0.978   9.998   8.185  0.4267  0.6726 -1.4814
40348SOL     OW29821  10.966   4.551   6.983 -0.3622 -0.0034 -0.7140
40348SOL    HW129822  11.053   4.590   6.979  0.2446 -1.3372 -1.5175
40348SOL    HW229823  10.968   4.483   6.915 -1.7723 -0.5541 -0.2346
40349SOL     OW29824   3.903   7.954  11.334  0.0139  0.1237  0.6992
40349SOL    HW129825   3.807   7.952  11.341 -0.0506 -1.0029 -0.1541
40349SOL    HW229826   3.920   7.971  11.242  0.5671 -2.8189  0.1708
40350SOL     OW29827   1.422  11.703  11.322 -0.1104 -0.1037  0.4315
40350SOL    HW129828   1.363  11.672  11.254  0.4029 -0.6261  0.2215
40350SOL    HW229829   1.493  11.639  11.324  0.0727  0.1122  1.1952
40351SOL     OW29830   0.303   3.175   4.235 -0.3507  0.1728 -0.5482
40351SOL    HW129831   0.337   3.239   4.298 -0.8653  1.6413 -1.7099
40351SOL    HW229832   0.376   3.114   4.222  0.3282  0.7932  0.2279
40352SOL     OW29833   8.950   6.522   1.630 -0.1307  0.0336 -0.6947
40352SOL    HW129834   8.988   6.464   1.563  0.1788  0.3915 -0.8313
40352SOL    HW229835   8.995   6.605   1.618  0.2474 -0.0236  0.2448
40353SOL     OW29836   5.726   0.310  11.357  0.8937  0.5084 -0.2319
40353SOL    HW129837   5.701   0.317  11.265 -0.6132 -2.7597 -0.2188
40353SOL    HW229838   5.644   0.323  11.405  0.8413 -1.6018  0.3457
40354SOL     OW29839   6.212  10.418   0.905  0.3145 -0.2911 -0.1016
40354SOL    HW129840   6.255  10.475   0.841  0.0472  0.5576  0.4538
40354SOL    HW229841   6.283  10.390   0.963  0.2632  0.5030  0.3672
40355SOL     OW29842  10.075   3.556   8.152 -0.3186 -0.2100  0.3540
40355SOL    HW129843  10.096   3.463   8.145  2.2457  0.3512 -0.4762
40355SOL    HW229844  10.037   3.565   8.240  3.2519 -1.4618  2.2162
40356SOL     OW29845   8.791   2.983   3.566  0.0098  0.5500  0.9103
40356SOL    HW129846   8.709   3.026   3.590 -0.8070  0.9995 -2.2580
40356SOL    HW229847   8.858   3.033   3.612 -1.3674  1.0067  2.5147
40357SOL     OW29848   8.544   7.723  11.172 -0.2500  0.1183  0.4182
40357SOL    HW129849   8.516   7.773  11.248  0.3201  1.4683 -0.2414
40357SOL    HW229850   8.511   7.634  11.189 -2.1416  0.9012  1.1523
40358SOL     OW29851   3.213   4.233   3.316 -0.1017 -0.1282  0.1892
40358SOL    HW129852   3.240   4.278   3.236  0.2599 -0.7894 -0.0583
40358SOL    HW229853   3.129   4.192   3.294  0.6239 -1.4008 -0.2569
40359SOL     OW29854   9.900   2.297  10.367 -0.3127  0.0069 -0.3268
40359SOL    HW129855   9.858   2.362  10.312 -0.3494  0.5597  0.3357
40359SOL    HW229856   9.837   2.225  10.371 -0.3253 -0.0165 -0.9644
40360SOL     OW29857   2.494   6.778   2.556 -0.6741 -0.2699  0.1271
40360SOL    HW129858   2.422   6.758   2.615  0.2768  0.0717  1.4535
40360SOL    HW229859   2.516   6.695   2.515 -2.0641 -0.2995 -0.6016
40361SOL     OW29860   5.343  11.978   5.145  0.4721  0.2895 -0.1854
40361SOL    HW129861   5.276  11.911   5.133 -1.7406  2.2390  0.7052
40361SOL    HW229862   5.374  11.997   5.056 -1.7537  0.8718 -0.8825
40362SOL     OW29863   7.002   3.640  11.677 -0.0437 -0.1212 -0.3272
40362SOL    HW129864   7.000   3.557  11.725 -0.2838 -0.3730 -0.7745
40362SOL    HW229865   7.016   3.615  11.586 -0.4807  0.3054 -0.5155
40363SOL     OW29866   6.408   8.419   9.020 -0.2013 -0.1528  0.0759
40363SOL    HW129867   6.401   8.490   9.084  1.4997 -0.2711  0.4462
40363SOL    HW229868   6.350   8.445   8.949 -2.0456  0.0401  1.5834
40364SOL     OW29869   8.819   3.769   6.871  0.1999 -0.7583 -0.3528
40364SOL    HW129870   8.874   3.831   6.822  0.4815 -0.4270  0.3611
40364SOL    HW229871   8.770   3.824   6.933 -0.2147 -1.1563 -0.3206
40365SOL     OW29872   3.371   9.413  12.193 -0.4876  0.0075  0.0983
40365SOL    HW129873   3.313   9.393  12.267 -1.1407 -0.5798 -0.5586
40365SOL    HW229874   3.458   9.422  12.232 -0.9488  0.4763  1.0399
40366SOL     OW29875   1.978   1.721   2.329 -0.8875  0.2407  0.0164
40366SOL    HW129876   1.951   1.729   2.237 -1.0335  0.5962  0.0871
40366SOL    HW229877   1.911   1.666   2.369 -1.0916  0.4872  0.0182
40367SOL     OW29878  12.469   4.280   5.418  0.0636 -0.1244 -0.4260
40367SOL    HW129879  12.379   4.248   5.414 -0.3300  0.8181  0.4759
40367SOL    HW229880  12.505   4.238   5.496  0.0199  0.4378 -0.0995
40368SOL     OW29881   4.460   1.162   6.433  0.9650  0.1120  0.1501
40368SOL    HW129882   4.455   1.257   6.435  0.2437  0.0957 -0.6188
40368SOL    HW229883   4.491   1.141   6.345 -0.1397 -0.4053 -0.1345
40369SOL     OW29884   6.415   7.380   0.058 -0.4579 -0.1904 -0.4394
40369SOL    HW129885   6.427   7.474   0.047  0.2629 -0.3254 -0.8850
40369SOL    HW229886   6.357   7.355  -0.013 -2.9626  0.3426  1.2860
40370SOL     OW29887  11.853  11.932   5.333 -0.2017 -0.4302  0.5328
40370SOL    HW129888  11.856  11.956   5.240 -1.8056 -0.3839  0.4711
40370SOL    HW229889  11.884  11.842   5.335 -1.7168 -0.9957 -0.2883
40371SOL     OW29890   1.163  10.847   5.477  0.6511  0.2780 -0.2174
40371SOL    HW129891   1.101  10.920   5.473 -1.2697 -1.2919 -1.3106
40371SOL    HW229892   1.128  10.790   5.546  1.0352 -0.4875 -0.6443
40372SOL     OW29893   3.864  10.866   3.548  0.3168  0.6306 -0.3589
40372SOL    HW129894   3.841  10.908   3.465  2.3281  1.2455 -0.6395
40372SOL    HW229895   3.938  10.810   3.527 -0.6036 -1.0041  0.5860
40373SOL     OW29896   0.950   9.204  11.726  0.6536  0.2548  0.1482
40373SOL    HW129897   1.012   9.159  11.784 -1.1202  2.0573  3.7751
40373SOL    HW229898   0.987   9.292  11.716  0.1970  0.4013 -0.2430
40374SOL     OW29899   3.513   0.890   0.457  0.0706 -0.0073  0.1847
40374SOL    HW129900   3.428   0.846   0.467 -1.4939  2.7298  0.0011
40374SOL    HW229901   3.530   0.928   0.544  1.5154 -1.1134  0.4202
40375SOL     OW29902   9.428   6.941   8.383  0.6362  0.2993 -0.7346
40375SOL    HW129903   9.345   6.960   8.340 -0.0643 -2.9230 -1.0626
40375SOL    HW229904   9.494   6.988   8.331 -0.8288  1.8737 -1.2313
40376SOL     OW29905   7.873   6.432   2.385  0.4182  0.6063  0.4723
40376SOL    HW129906   7.914   6.349   2.410  0.6604  0.4053 -0.5827
40376SOL    HW229907   7.779   6.414   2.391  0.3662 -0.6117 -2.3021
40377SOL     OW29908   9.668  11.744   5.601 -0.0408 -0.4139 -0.1417
40377SOL    HW129909   9.725  11.712   5.532  0.2932  0.7872 -0.4385
40377SOL    HW229910   9.677  11.839   5.598 -1.5480 -0.2308  0.2430
40378SOL     OW29911   8.236  10.866   0.209  0.0542 -0.4626  0.6626
40378SOL    HW129912   8.148  10.834   0.225 -1.1630  1.9091 -0.6846
40378SOL    HW229913   8.256  10.836   0.120  1.1974 -2.0718  1.4116
40379SOL     OW29914   1.452   2.347   3.806  0.0351 -0.4058  0.0207
40379SOL    HW129915   1.500   2.356   3.724 -0.2283 -0.2550 -0.1201
40379SOL    HW229916   1.367   2.311   3.780 -0.1163 -0.1896  0.2060
40380SOL     OW29917  11.956   0.656   3.672 -0.1746  0.0245  0.3755
40380SOL    HW129918  11.966   0.653   3.576 -1.2467  1.1723  0.2053
40380SOL    HW229919  11.861   0.648   3.686 -0.1082  0.7509  1.3017
40381SOL     OW29920   2.048  11.375   5.632 -0.0124  0.2309 -0.7592
40381SOL    HW129921   1.999  11.417   5.703 -0.6431 -1.3500 -0.2176
40381SOL    HW229922   1.981  11.335   5.576  0.5939 -1.1442 -0.5431
40382SOL     OW29923   9.065   6.488   6.811  0.2983 -0.0049  0.5028
40382SOL    HW129924   9.076   6.486   6.906 -0.2595 -0.9116  0.5637
40382SOL    HW229925   9.056   6.396   6.786  0.7111  0.2056 -0.4690
40383SOL     OW29926   7.835   1.951  11.277 -0.1310  0.4978  0.0736
40383SOL    HW129927   7.916   1.907  11.250 -0.7115 -0.5625 -0.0116
40383SOL    HW229928   7.766   1.900  11.236 -0.8017  2.4090 -1.2851
40384SOL     OW29929   2.184   3.514   0.190 -1.0647  0.1336  0.1724
40384SOL    HW129930   2.170   3.478   0.277  1.0115 -1.4207 -0.0515
40384SOL    HW229931   2.111   3.480   0.138 -1.3496 -0.4096  0.9134
40385SOL     OW29932   7.045   6.624   8.295 -0.3585 -0.8690 -0.3636
40385SOL    HW129933   7.052   6.706   8.246 -1.2938  0.5878  1.8135
40385SOL    HW229934   6.963   6.584   8.264 -0.5061 -0.3870 -0.5987
40386SOL     OW29935   1.030  11.760   1.250  0.7695 -0.8911  0.3568
40386SOL    HW129936   0.988  11.789   1.331  1.3580 -1.7073  0.9651
40386SOL    HW229937   1.009  11.667   1.244 -1.0991 -0.4382 -1.5725
40387SOL     OW29938   6.488   0.253  11.661  0.0826  0.2482 -0.1232
40387SOL    HW129939   6.509   0.210  11.743  0.8176  1.1299  0.1635
40387SOL    HW229940   6.414   0.203  11.626  0.2604 -0.6035  0.6879
40388SOL     OW29941   8.199   3.279   3.658  0.3251  0.3504 -0.2118
40388SOL    HW129942   8.284   3.320   3.645  0.0945  1.4686  1.4348
40388SOL    HW229943   8.198   3.255   3.751 -1.0781  0.1590 -0.2499
40389SOL     OW29944   2.460  10.909   1.805 -0.0579  1.2695 -0.0986
40389SOL    HW129945   2.524  10.868   1.863 -1.6358 -0.3998  0.5606
40389SOL    HW229946   2.510  10.932   1.727  1.0545 -1.7534 -0.4160
40390SOL     OW29947   0.162   1.011   6.213 -0.1724 -0.4969 -0.1072
40390SOL    HW129948   0.177   1.068   6.289  0.0207  2.8095 -2.3737
40390SOL    HW229949   0.068   1.017   6.197 -0.0742 -0.3201 -0.6679
40391SOL     OW29950   0.065   8.316   7.200  0.7339  0.3227  0.6046
40391SOL    HW129951  -0.025   8.338   7.226  0.4310  0.4469 -0.5175
40391SOL    HW229952   0.119   8.382   7.244  0.2771  0.3013  1.2118
40392SOL     OW29953   8.789   8.793   7.876  0.7318  0.0452 -0.5206
40392SOL    HW129954   8.831   8.760   7.956  0.1038 -0.7174 -0.4908
40392SOL    HW229955   8.783   8.887   7.889 -2.9241 -0.3207  2.1643
40393SOL     OW29956   0.977   6.038   8.102 -0.3952  0.2181  0.8820
40393SOL    HW129957   0.964   6.104   8.034 -0.5980 -1.0600 -0.3629
40393SOL    HW229958   1.059   6.064   8.144  0.2904  0.4799 -0.5375
40394SOL     OW29959   0.495   1.061   6.504 -0.0168 -0.0093 -0.0762
40394SOL    HW129960   0.427   0.995   6.489  0.7801 -1.3061  1.5487
40394SOL    HW229961   0.504   1.064   6.600  0.4501  2.0105 -0.1343
40395SOL     OW29962   7.205   2.438  11.010  0.2748  0.0641 -0.4963
40395SOL    HW129963   7.270   2.506  10.996  0.0863  1.0999  2.7267
40395SOL    HW229964   7.256   2.362  11.039  0.2092  0.6919  1.4431
40396SOL     OW29965   2.269  10.839  10.063  0.0007 -0.3022 -0.4571
40396SOL    HW129966   2.346  10.850  10.118 -0.4031 -0.9416  0.2645
40396SOL    HW229967   2.283  10.756  10.018 -0.9251 -1.1914  0.8257
40397SOL     OW29968   0.724   3.261   3.778  0.0421  0.1927  0.1318
40397SOL    HW129969   0.810   3.298   3.762  0.8981 -0.0142  3.4840
40397SOL    HW229970   0.713   3.195   3.710  2.5792  0.1670 -0.3354
40398SOL     OW29971   0.918   7.070  10.631 -0.0300 -0.0367 -0.3641
40398SOL    HW129972   0.896   7.100  10.719 -1.9792 -2.1322 -0.0547
40398SOL    HW229973   1.009   7.042  10.637 -0.1761 -0.2637  1.0150
40399SOL     OW29974   4.025  10.816  12.339  0.3238  0.6651 -0.1859
40399SOL    HW129975   4.098  10.868  12.372  1.3892 -0.6519 -0.3784
40399SOL    HW229976   4.001  10.858  12.256  2.0181  0.1198 -0.9818
40400SOL     OW29977   4.699   7.451   5.281 -0.4850  0.0916  0.7769
40400SOL    HW129978   4.649   7.373   5.255  1.1990 -0.7300 -0.1723
40400SOL    HW229979   4.759   7.466   5.209  0.4147  1.2340  1.7198
40401SOL     OW29980   6.593  12.186   4.575  0.1905 -0.1679 -0.2492
40401SOL    HW129981   6.619  12.115   4.633 -0.0707  0.9745  1.3219
40401SOL    HW229982   6.638  12.167   4.492  0.5087 -1.8767  0.2817
40402SOL     OW29983   5.736   2.476   9.899 -0.4888  0.1784  0.2053
40402SOL    HW129984   5.823   2.460   9.862 -0.6419 -1.5459  0.4806
40402SOL    HW229985   5.753   2.518   9.983  0.0484  0.4120 -0.0186
40403SOL     OW29986  11.323   6.108   3.084  0.6249  0.1230  0.2616
40403SOL    HW129987  11.392   6.078   3.025  0.2571  1.1983 -0.7477
40403SOL    HW229988  11.305   6.198   3.057 -2.7542 -0.7953 -1.0835
40404SOL     OW29989   0.167  12.499   6.585 -0.1776  0.6157  0.3536
40404SOL    HW129990   0.075  12.471   6.595  0.0685  0.1271  1.4387
40404SOL    HW229991   0.217  12.417   6.588  0.3537  0.9434  0.5363
40405SOL     OW29992   5.558   7.398   7.306  0.8185  0.0140 -0.8749
40405SOL    HW129993   5.646   7.428   7.330  1.3676 -1.9096 -0.2840
40405SOL    HW229994   5.513   7.476   7.274  2.8098  0.9946 -1.3878
40406SOL     OW29995   5.678  11.346   6.533  0.1519  0.6616 -0.1510
40406SOL    HW129996   5.682  11.361   6.439 -0.7474 -2.3879 -0.7684
40406SOL    HW229997   5.601  11.396   6.562  0.3868  1.5618 -1.0193
40407SOL     OW29998   7.573   2.344   8.468  0.5060 -0.0895 -0.1517
40407SOL    HW129999   7.642   2.398   8.429 -0.9370  0.8093 -1.5794
40407SOL    HW230000   7.551   2.281   8.400  0.8544 -1.2719  0.8088
40408SOL     OW30001  11.200   7.408   0.629  0.0297  0.2011  0.1935
40408SOL    HW130002  11.221   7.357   0.550  1.5818  0.8030  0.1800
40408SOL    HW230003  11.212   7.346   0.701  0.1411  0.0691  0.0621
40409SOL     OW30004   2.901  12.604   4.214 -0.1603 -0.3330 -0.0973
40409SOL    HW130005   2.940  12.684   4.178 -0.0668 -0.4722 -0.3082
40409SOL    HW230006   2.848  12.569   4.142  0.1211 -0.6771 -0.1392
40410SOL     OW30007   9.366   9.342   4.960 -0.0807  0.0272  0.2665
40410SOL    HW130008   9.436   9.397   4.925  0.8372 -0.0688  1.8672
40410SOL    HW230009   9.401   9.307   5.042 -3.0331  2.5319  2.8721
40411SOL     OW30010  11.867   1.819  11.010 -0.1462  0.1522  0.3087
40411SOL    HW130011  11.895   1.866  11.088 -0.7746 -1.1110  1.3302
40411SOL    HW230012  11.773   1.808  11.021 -0.5422  1.3493 -1.4210
40412SOL     OW30013   6.890   0.131   8.232  0.4457 -0.3299  0.3100
40412SOL    HW130014   6.840   0.213   8.234  1.7663  0.5058  1.3250
40412SOL    HW230015   6.930   0.130   8.145  1.1959  0.6294  0.6242
40413SOL     OW30016  11.123   4.505  12.310  0.4409 -0.0822  0.0770
40413SOL    HW130017  11.049   4.470  12.358  0.6223 -0.8643 -0.2066
40413SOL    HW230018  11.154   4.433  12.256  0.7055  0.5635 -0.6585
40414SOL     OW30019   3.542   3.243   9.702 -0.3218 -0.2807 -0.7255
40414SOL    HW130020   3.630   3.257   9.739 -0.1850 -0.8331 -0.8392
40414SOL    HW230021   3.516   3.157   9.735 -1.4439  0.5042  0.5409
40415SOL     OW30022  10.884   6.518  11.650  0.2482 -0.5560  0.7340
40415SOL    HW130023  10.822   6.564  11.594  1.2843 -1.1489 -1.0074
40415SOL    HW230024  10.903   6.578  11.722 -0.5407  0.5683  0.0177
40416SOL     OW30025   6.334   6.610   8.825 -0.4729  0.4472  0.1512
40416SOL    HW130026   6.282   6.684   8.858  1.3008  1.1783  1.5105
40416SOL    HW230027   6.396   6.650   8.764  0.8402  0.2147  1.2854
40417SOL     OW30028   9.221   2.108  11.943 -0.2758  0.2540 -0.4296
40417SOL    HW130029   9.127   2.096  11.957  0.2322 -1.6178  1.9437
40417SOL    HW230030   9.244   2.185  11.995 -0.4660  0.6993 -0.9941
40418SOL     OW30031   8.756   7.250   1.454 -0.4262 -0.5002  0.4949
40418SOL    HW130032   8.702   7.175   1.427 -1.3085  0.3066 -0.0485
40418SOL    HW230033   8.846   7.223   1.434 -0.8290 -0.9919 -0.7564
40419SOL     OW30034   4.001   4.804   6.844  0.0859 -0.6883 -0.5558
40419SOL    HW130035   4.082   4.754   6.855  0.2479 -0.3012  0.0740
40419SOL    HW230036   3.945   4.777   6.916 -0.0802 -0.4521 -0.5930
40420SOL     OW30037   3.894   1.542   7.340  0.3056 -0.4869 -0.1803
40420SOL    HW130038   3.886   1.560   7.434  1.3125  1.1200 -0.3515
40420SOL    HW230039   3.886   1.447   7.333  1.7415 -0.8188  1.7139
40421SOL     OW30040   7.748   5.087   6.269 -0.0015 -0.7168 -0.0581
40421SOL    HW130041   7.660   5.071   6.303  0.0374 -0.9616 -0.0734
40421SOL    HW230042   7.800   5.113   6.345 -0.1595 -0.2716 -0.0967
40422SOL     OW30043  11.332   5.516   9.214  0.3007  0.0518 -0.0592
40422SOL    HW130044  11.405   5.513   9.152  0.1428  0.3413 -0.2620
40422SOL    HW230045  11.294   5.603   9.202  1.7271  1.0378  2.1495
40423SOL     OW30046  12.154   2.845   7.120  0.3032  0.0076 -1.0093
40423SOL    HW130047  12.115   2.900   7.052  0.8499  1.2163 -0.3832
40423SOL    HW230048  12.093   2.850   7.193 -0.3395 -1.3783 -1.4198
40424SOL     OW30049   8.376  10.024   3.129 -0.3755 -0.2297  0.2497
40424SOL    HW130050   8.416  10.103   3.092 -1.2244  0.5123  0.8695
40424SOL    HW230051   8.436   9.997   3.198  0.5078 -0.8184 -0.7255
40425SOL     OW30052   6.540   5.813   9.915  0.3033  0.1417  0.5186
40425SOL    HW130053   6.540   5.808  10.010 -0.6340  1.3537  0.6018
40425SOL    HW230054   6.560   5.905   9.895  1.2799 -0.2583 -0.4767
40426SOL     OW30055   8.367   3.873   7.335  0.0688  0.8104  0.1352
40426SOL    HW130056   8.295   3.819   7.366 -0.7321  1.1342 -1.1048
40426SOL    HW230057   8.328   3.929   7.268  1.4224  1.1580 -0.3927
40427SOL     OW30058   3.940   1.150   0.072 -0.1716  0.0647  0.5942
40427SOL    HW130059   3.991   1.108   0.003  1.2179 -0.3087  1.8151
40427SOL    HW230060   3.864   1.093   0.083  0.2870 -0.6190  0.3193
40428SOL     OW30061   3.343   4.289  10.006  0.4812 -0.5580  0.0143
40428SOL    HW130062   3.315   4.331   9.925  0.9811 -0.0910  0.0803
40428SOL    HW230063   3.400   4.353  10.049  2.1096 -1.6663 -0.3813
40429SOL     OW30064  11.313  10.453   2.017  0.2891  0.2637  0.3801
40429SOL    HW130065  11.247  10.522   2.027  1.3206  1.4711 -0.8428
40429SOL    HW230066  11.286  10.405   1.939 -0.7865 -1.1989  1.5832
40430SOL     OW30067  10.871   8.135   4.132  0.5407 -0.0134 -0.4121
40430SOL    HW130068  10.923   8.128   4.052  1.3598 -0.1748  0.1346
40430SOL    HW230069  10.847   8.228   4.136  0.8005  0.0634 -0.6464
40431SOL     OW30070   8.908   4.757   9.221  0.2542 -0.4337  0.0497
40431SOL    HW130071   8.950   4.826   9.169 -0.4520  0.3730  0.5241
40431SOL    HW230072   8.816   4.759   9.194  0.1566 -0.9675  0.3164
40432SOL     OW30073   7.315   9.798  12.608 -0.3202  0.0502 -0.4436
40432SOL    HW130074   7.259   9.730  12.569  1.0367 -1.1827 -0.3047
40432SOL    HW230075   7.322   9.865  12.540 -2.2123  0.4084 -0.3448
40433SOL     OW30076   4.221   3.001   9.915 -0.4887 -0.1541 -0.3496
40433SOL    HW130077   4.167   2.958   9.982  1.1665  0.7432  1.6740
40433SOL    HW230078   4.158   3.036   9.853 -2.0747 -1.7516  0.2494
40434SOL     OW30079   7.517   6.162  11.371  0.3869  0.8619  0.1979
40434SOL    HW130080   7.493   6.072  11.395  0.1587  0.6490 -0.7735
40434SOL    HW230081   7.466   6.217  11.429  0.5055  0.3627  0.7825
40435SOL     OW30082   6.530   9.521   9.690  0.0343 -0.2606  0.9761
40435SOL    HW130083   6.549   9.574   9.767  1.1362  3.0405 -1.3118
40435SOL    HW230084   6.454   9.565   9.650  1.3374  0.0564 -1.3160
40436SOL     OW30085  11.818   7.218   7.142 -0.0459 -0.1912 -0.5122
40436SOL    HW130086  11.780   7.258   7.063  2.5815  1.2642 -1.1641
40436SOL    HW230087  11.875   7.286   7.178  1.9506 -2.1812  0.3276
40437SOL     OW30088   2.362   1.923   8.002 -0.2548  0.1145 -0.2345
40437SOL    HW130089   2.394   1.836   8.024  2.0192  1.0204  0.3664
40437SOL    HW230090   2.291   1.940   8.064 -0.9268 -1.3806 -0.5537
40438SOL     OW30091   6.604  11.830   3.386 -0.2148 -0.1975  0.0444
40438SOL    HW130092   6.616  11.924   3.400 -0.4099 -0.0752 -0.5751
40438SOL    HW230093   6.548  11.824   3.308 -0.4289 -0.8214  0.2382
40439SOL     OW30094   3.890  11.966   9.060 -0.6548 -0.1364 -0.6824
40439SOL    HW130095   3.824  11.912   9.015 -0.0052 -0.8285 -0.8326
40439SOL    HW230096   3.895  11.928   9.148 -1.2990  0.6689 -0.2800
40440SOL     OW30097   7.155   4.920  10.033 -0.1103  0.3901 -0.1834
40440SOL    HW130098   7.108   4.851   9.987  0.2151  0.6779 -0.9555
40440SOL    HW230099   7.157   4.890  10.124  0.3115 -0.7750 -0.5606
40441SOL     OW30100   5.533   1.836   6.311  0.3552  0.0495  0.3234
40441SOL    HW130101   5.578   1.772   6.256 -0.4417 -0.7008  0.5310
40441SOL    HW230102   5.562   1.921   6.277  0.5731 -0.4110 -0.6730
40442SOL     OW30103   9.622   6.872   7.031  0.0257 -0.2288  0.1664
40442SOL    HW130104   9.591   6.901   7.117 -0.3284  1.1247 -0.3940
40442SOL    HW230105   9.558   6.806   7.004 -0.6139  0.3029  0.3590
40443SOL     OW30106   0.613   7.658   6.584  0.1029  0.1279  0.1536
40443SOL    HW130107   0.677   7.720   6.549 -0.3760  0.6951  0.2540
40443SOL    HW230108   0.567   7.708   6.653 -0.4233 -0.2726  0.1017
40444SOL     OW30109  10.383   5.878  11.552  0.4673 -0.2488  0.4962
40444SOL    HW130110  10.386   5.912  11.462  1.8021  1.4989  1.1398
40444SOL    HW230111  10.422   5.948  11.605  0.8353 -1.7411  2.2875
40445SOL     OW30112  12.572   6.816   1.116 -0.0527  0.3598  0.1989
40445SOL    HW130113  12.528   6.900   1.099 -0.5592 -0.1840 -1.2789
40445SOL    HW230114  12.500   6.755   1.132  0.3449  0.4512  2.7159
40446SOL     OW30115   8.999   2.724   3.808 -0.0068  0.5684 -0.2702
40446SOL    HW130116   9.033   2.813   3.799  0.2688  0.6292  1.0687
40446SOL    HW230117   8.904   2.733   3.805 -0.1608  1.4027  2.9052
40447SOL     OW30118   9.442   4.668   6.325 -0.2348 -0.4163 -0.2357
40447SOL    HW130119   9.503   4.686   6.254 -0.4804 -1.0972 -0.6197
40447SOL    HW230120   9.423   4.754   6.362 -0.8269  0.0625 -1.5852
40448SOL     OW30121   3.810   4.028  12.487 -0.0464 -0.2543 -0.3651
40448SOL    HW130122   3.861   3.947  12.491  0.1387 -0.0688  1.7130
40448SOL    HW230123   3.831   4.074  12.567 -1.3113  1.1762 -0.8069
40449SOL     OW30124  12.387   0.715   8.217 -0.2411 -0.0100  0.1363
40449SOL    HW130125  12.299   0.717   8.255 -0.5104  2.5610 -0.4337
40449SOL    HW230126  12.421   0.629   8.240 -2.6403 -0.8244  0.9643
40450SOL     OW30127   9.697   9.469   3.141 -0.3067 -0.0828 -0.2220
40450SOL    HW130128   9.700   9.519   3.222  0.3198 -0.8963  0.2693
40450SOL    HW230129   9.644   9.392   3.162 -1.1645  0.2941 -0.9365
40451SOL     OW30130   4.752   8.063   7.510 -0.1431 -0.4648 -0.0789
40451SOL    HW130131   4.749   8.148   7.466  2.0573 -0.4320 -0.2992
40451SOL    HW230132   4.692   8.008   7.461  2.2296 -0.4538 -3.2925
40452SOL     OW30133   1.380   9.040   6.677  0.1937 -0.1303 -0.2019
40452SOL    HW130134   1.372   9.086   6.594  0.6370 -1.3965 -0.9574
40452SOL    HW230135   1.304   8.982   6.681 -1.8213  2.3865  1.9238
40453SOL     OW30136  10.998   3.298  12.608 -0.0856  0.5940 -0.5943
40453SOL    HW130137  10.979   3.389  12.632  0.8337  0.8321 -0.7361
40453SOL    HW230138  11.081   3.278  12.653 -0.8830 -0.5803  0.4310
40454SOL     OW30139  11.994   0.858   8.844 -0.6386  0.2808  0.3700
40454SOL    HW130140  11.945   0.795   8.791 -0.7982  1.6456 -1.2103
40454SOL    HW230141  11.931   0.886   8.912 -1.0918 -0.0913  0.1073
40455SOL     OW30142   2.331   3.518   7.066 -0.3384 -0.5806  0.6253
40455SOL    HW130143   2.370   3.578   7.003  0.4329 -1.7901 -0.0919
40455SOL    HW230144   2.396   3.510   7.136  0.0684 -1.4207  0.1705
40456SOL     OW30145   0.150   8.243   4.024 -0.4594 -0.2110 -0.1109
40456SOL    HW130146   0.170   8.256   3.931  3.7889 -1.9005  0.3602
40456SOL    HW230147   0.173   8.325   4.066  0.7192 -0.4634 -0.2278
40457SOL     OW30148   9.233   0.777   1.699  0.2314  0.4221  0.0924
40457SOL    HW130149   9.307   0.827   1.736 -0.8738  0.3553  2.5296
40457SOL    HW230150   9.159   0.837   1.704 -0.3461 -0.2381 -0.3892
40458SOL     OW30151   0.619  10.720   6.138 -0.8026 -0.1039  0.5766
40458SOL    HW130152   0.589  10.809   6.155 -2.9936 -0.6081 -0.3900
40458SOL    HW230153   0.552  10.664   6.178 -0.5917 -1.2931 -0.6628
40459SOL     OW30154  10.932   5.017   8.174  0.2231  0.8000  0.3756
40459SOL    HW130155  10.994   4.945   8.170 -1.3373 -0.6905  1.3887
40459SOL    HW230156  10.985   5.096   8.165  2.3452 -0.3630  1.9436
40460SOL     OW30157   5.923   4.636   4.367  0.3777 -0.6843  0.1669
40460SOL    HW130158   5.829   4.626   4.384 -0.0610 -0.7973 -2.0173
40460SOL    HW230159   5.949   4.711   4.421 -1.6945  1.3087 -1.3996
40461SOL     OW30160   6.076  12.345   5.411 -0.7764  0.2488  0.5626
40461SOL    HW130161   6.061  12.382   5.498 -0.6413  0.4371  0.5065
40461SOL    HW230162   6.105  12.256   5.427  0.1832  0.5813  0.7505
40462SOL     OW30163   9.108   2.048   1.290 -0.2640  0.6961  0.1523
40462SOL    HW130164   9.094   1.978   1.227  3.9684 -0.0351 -0.2344
40462SOL    HW230165   9.065   2.124   1.250 -1.4681 -0.7236 -1.4117
40463SOL     OW30166   6.897   7.069   5.243  0.2174 -0.2428 -0.3633
40463SOL    HW130167   6.914   7.154   5.283  1.1852 -1.7018  2.6419
40463SOL    HW230168   6.954   7.066   5.166 -0.0750  1.8937 -0.7137
40464SOL     OW30169   0.575   6.673   5.484  0.2009  0.5478  0.3981
40464SOL    HW130170   0.566   6.601   5.546 -1.0261  1.1223  0.9233
40464SOL    HW230171   0.553   6.634   5.399 -0.3275  0.2678  0.6561
40465SOL     OW30172   2.859   7.236  12.548  0.1537  0.1476  0.4408
40465SOL    HW130173   2.903   7.160  12.584  1.7487  0.5346 -0.5907
40465SOL    HW230174   2.815   7.203  12.469  0.7704  0.2691  0.0433
40466SOL     OW30175   0.755   7.215   5.824  0.6422  0.2598 -0.1809
40466SOL    HW130176   0.841   7.254   5.837  0.1324  0.9861  1.1934
40466SOL    HW230177   0.698   7.290   5.804 -0.1312  0.1380  1.3973
40467SOL     OW30178   6.064   4.324   2.026  0.1910 -0.0375  0.0015
40467SOL    HW130179   5.993   4.348   1.966 -0.5475  1.0410  1.2578
40467SOL    HW230180   6.131   4.390   2.011 -0.8659  1.5344  1.7864
40468SOL     OW30181   8.040   7.645   2.496  0.2386  0.1417 -0.2432
40468SOL    HW130182   8.004   7.698   2.567  1.9589  0.1782  0.6499
40468SOL    HW230183   8.042   7.704   2.421 -1.7441  0.0585 -0.4173
40469SOL     OW30184   3.274   8.838   9.710  0.4206 -0.2360  0.4732
40469SOL    HW130185   3.359   8.825   9.669 -0.4024 -2.7793 -0.6477
40469SOL    HW230186   3.226   8.894   9.649  0.6780 -0.3782  0.1350
40470SOL     OW30187   3.324   3.267   0.329 -0.0032  0.5612  0.2130
40470SOL    HW130188   3.261   3.333   0.357  0.2791  0.8692  0.1301
40470SOL    HW230189   3.409   3.300   0.358 -0.0249 -0.5935  1.7114
40471SOL     OW30190   2.270  11.882  11.646  0.2677  0.0174 -0.0376
40471SOL    HW130191   2.181  11.897  11.678  0.0810  1.3938 -1.1014
40471SOL    HW230192   2.262  11.884  11.550  1.0693 -2.3103 -0.2042
40472SOL     OW30193   5.685   4.502   3.994  0.4351 -0.5658 -0.6486
40472SOL    HW130194   5.730   4.497   3.910 -0.7664  0.4669 -1.3808
40472SOL    HW230195   5.594   4.480   3.975  0.1352 -0.3120  0.3778
40473SOL     OW30196   4.937   2.284  11.546  0.5977  0.2783  0.6764
40473SOL    HW130197   4.921   2.193  11.519  0.1944  0.8199 -1.0337
40473SOL    HW230198   4.849   2.321  11.557  0.7550  0.3457  1.9206
40474SOL     OW30199   4.504   7.354   1.797  0.1985  0.0021 -0.7867
40474SOL    HW130200   4.467   7.331   1.882  2.7833 -2.4447 -0.1674
40474SOL    HW230201   4.428   7.358   1.738 -1.5376  0.6500  1.3467
40475SOL     OW30202   9.537   5.864   7.315  0.7054 -0.2477  0.5943
40475SOL    HW130203   9.522   5.774   7.342  0.4688 -0.1391  0.8325
40475SOL    HW230204   9.632   5.875   7.318  1.0922 -1.5535 -2.8378
40476SOL     OW30205   4.300   8.135   6.499  0.1499 -0.2729 -0.6240
40476SOL    HW130206   4.323   8.144   6.591 -0.4581 -1.5950 -0.3144
40476SOL    HW230207   4.350   8.204   6.455  2.2037 -1.0080  0.3972
40477SOL     OW30208   7.882   4.597   1.863  0.1917  0.3454 -0.4222
40477SOL    HW130209   7.960   4.562   1.820  0.5680  1.4352 -0.6591
40477SOL    HW230210   7.880   4.553   1.948  0.4951 -0.4404 -0.8160
40478SOL     OW30211   4.271   2.781   3.536 -0.1954  0.2851 -0.0076
40478SOL    HW130212   4.364   2.772   3.513 -0.7034 -1.4581 -1.6986
40478SOL    HW230213   4.271   2.805   3.628  1.9334  0.0207  0.1114
40479SOL     OW30214   8.192   1.744   2.696 -0.1874  0.2542  0.6485
40479SOL    HW130215   8.102   1.712   2.693 -0.3152  0.4840  1.5800
40479SOL    HW230216   8.229   1.706   2.776  0.5114  0.2482  0.3356
40480SOL     OW30217   2.885   1.660   5.459 -0.1879 -0.1472  0.2415
40480SOL    HW130218   2.864   1.585   5.516 -1.5904  1.1140  1.4636
40480SOL    HW230219   2.804   1.709   5.453  0.1526  0.2360 -2.2317
40481SOL     OW30220   3.145  10.191   7.721  0.1804  0.3149 -0.8137
40481SOL    HW130221   3.215  10.210   7.658  0.4139 -0.4705 -0.8086
40481SOL    HW230222   3.164  10.102   7.750 -0.0448  0.5938  0.2146
40482SOL     OW30223  12.417   1.168   8.737  0.5365 -0.0766 -0.5312
40482SOL    HW130224  12.452   1.181   8.825 -0.8270  2.5959 -0.2992
40482SOL    HW230225  12.330   1.130   8.752  0.1258  0.7883 -0.6762
40483SOL     OW30226   2.919   2.553   8.169 -0.5144  0.4788  0.8659
40483SOL    HW130227   2.982   2.538   8.099  1.2928  2.7501  1.8915
40483SOL    HW230228   2.940   2.487   8.236 -0.6568 -0.1221  0.3272
40484SOL     OW30229   0.152   9.811   0.768 -0.1859  0.4102 -0.7142
40484SOL    HW130230   0.149   9.872   0.694 -2.7804  2.6060  1.0322
40484SOL    HW230231   0.230   9.835   0.817 -0.5767  1.6243 -0.6615
40485SOL     OW30232   5.817   1.543   5.596  0.0704 -0.0186 -0.5916
40485SOL    HW130233   5.901   1.578   5.566  0.0003 -0.0511 -0.8211
40485SOL    HW230234   5.752   1.604   5.563 -0.0033 -0.0314 -0.4709
40486SOL     OW30235  11.353  11.757   9.867  0.0747  0.3676 -0.4103
40486SOL    HW130236  11.401  11.817   9.924 -1.1236 -0.3204  1.4243
40486SOL    HW230237  11.309  11.814   9.804  1.8028  1.1175 -0.9912
40487SOL     OW30238   7.021   1.094   0.197 -0.3739  0.1410 -0.7616
40487SOL    HW130239   6.967   1.170   0.218 -1.2029 -0.4938 -0.5282
40487SOL    HW230240   7.109   1.129   0.189 -0.7559  1.1509 -0.7966
40488SOL     OW30241   0.693   0.479   8.671  0.1099  0.2884  0.3034
40488SOL    HW130242   0.600   0.493   8.651 -0.2075 -0.7906  0.9520
40488SOL    HW230243   0.739   0.533   8.606 -0.9438 -0.1192 -0.8355
40489SOL     OW30244   9.050   3.117   8.631  0.0022 -0.0995  0.4327
40489SOL    HW130245   9.124   3.177   8.620  0.1596 -0.0902  1.4756
40489SOL    HW230246   9.033   3.116   8.725 -1.2688 -0.1825  0.2278
40490SOL     OW30247  12.457   9.538   4.881  0.4759 -0.2686 -0.9497
40490SOL    HW130248  12.454   9.498   4.968  0.7290  0.2124 -0.7143
40490SOL    HW230249  12.377   9.508   4.838  0.6860 -1.0659 -0.7969
40491SOL     OW30250   0.254   8.147   2.276  0.1522 -0.2639  0.2038
40491SOL    HW130251   0.297   8.223   2.238  0.5731 -0.2239  0.7420
40491SOL    HW230252   0.174   8.136   2.225  0.9985 -0.6089 -1.1071
40492SOL     OW30253   3.154   9.049   7.175 -0.0081  0.2187 -0.1158
40492SOL    HW130254   3.243   9.021   7.157  0.3727  1.3458 -0.0236
40492SOL    HW230255   3.117   8.977   7.227  1.7156  0.8623  2.1904
40493SOL     OW30256   6.801   1.442  12.448  0.1465 -0.0139  0.4755
40493SOL    HW130257   6.895   1.438  12.467  0.3687  0.1518 -0.5516
40493SOL    HW230258   6.765   1.366  12.492  0.9056 -0.5899  0.1317
40494SOL     OW30259  12.092   2.864   8.886 -0.5459 -0.0704  0.3598
40494SOL    HW130260  12.153   2.793   8.906 -1.5067 -1.0193  0.0709
40494SOL    HW230261  12.132   2.911   8.813  0.3908  0.0549  0.9459
40495SOL     OW30262   5.063   8.781   0.006 -0.5337  0.2744 -0.4199
40495SOL    HW130263   5.112   8.862  -0.009 -0.8472  0.3472 -1.1009
40495SOL    HW230264   5.003   8.776  -0.069  0.4223 -1.2947 -1.1076
40496SOL     OW30265   6.962   4.319   0.462  0.2036 -0.2477 -0.1425
40496SOL    HW130266   7.048   4.304   0.502  0.5799  1.3731 -0.2799
40496SOL    HW230267   6.978   4.385   0.395 -1.2284  0.3836  0.1061
40497SOL     OW30268   4.990   5.236   4.078  0.4580 -0.7933  0.2732
40497SOL    HW130269   5.003   5.311   4.136  0.3065  0.2556 -0.9911
40497SOL    HW230270   4.897   5.239   4.055  0.4985 -1.2422  0.0366
40498SOL     OW30271   4.302  11.447   5.306 -0.1432 -0.0017  0.2351
40498SOL    HW130272   4.317  11.399   5.225 -0.2122  2.3170 -1.2271
40498SOL    HW230273   4.388  11.450   5.348  0.2325  0.1689 -0.5407
40499SOL     OW30274   0.423   3.756   4.721 -0.4442 -0.1350  0.0626
40499SOL    HW130275   0.341   3.731   4.679 -1.3208 -1.7273  2.4813
40499SOL    HW230276   0.482   3.683   4.705 -0.3343 -0.1251  0.4052
40500SOL     OW30277   7.074   9.447   3.101 -0.0759 -0.1059 -0.3903
40500SOL    HW130278   7.014   9.382   3.064  0.4691 -0.2540 -1.0278
40500SOL    HW230279   7.161   9.420   3.070  0.4316 -0.3200  1.0995
40501SOL     OW30280   7.806   2.958   9.094 -0.2024  0.8008  0.9396
40501SOL    HW130281   7.764   2.949   9.179 -0.5635  1.7597  0.8745
40501SOL    HW230282   7.734   2.954   9.030  0.0413  0.3135  0.6874
40502SOL     OW30283   6.772   6.263   5.592 -0.1413 -0.0831 -0.1710
40502SOL    HW130284   6.791   6.227   5.679 -3.7770 -0.5969  0.5590
40502SOL    HW230285   6.817   6.204   5.532  1.0187 -0.7650  1.2919
40503SOL     OW30286   4.367   9.661  12.212 -0.0477 -0.3549  0.1968
40503SOL    HW130287   4.317   9.739  12.190 -0.0123 -0.3725  0.0528
40503SOL    HW230288   4.393   9.673  12.304  1.7315  0.7748 -0.4019
40504SOL     OW30289   3.473   6.037   3.542  0.3245 -0.3944 -0.1813
40504SOL    HW130290   3.460   5.959   3.488 -0.1246 -1.0096  0.7891
40504SOL    HW230291   3.442   6.012   3.629  0.2823  0.8332  0.1806
40505SOL     OW30292   5.454   7.396  10.342  0.8116 -0.2884  0.1536
40505SOL    HW130293   5.406   7.478  10.336 -0.2504 -0.9343 -0.7044
40505SOL    HW230294   5.501   7.401  10.425 -1.1392  0.1825  1.2993
40506SOL     OW30295   7.539  12.575   6.612  0.6164 -0.2862  0.0934
40506SOL    HW130296   7.529  12.554   6.520  0.3738 -0.5146  0.1692
40506SOL    HW230297   7.620  12.625   6.617  1.8930 -2.2244  0.0569
40507SOL     OW30298   8.486   1.239  12.352 -0.3286  0.6694  0.2469
40507SOL    HW130299   8.529   1.260  12.435 -1.1153 -1.8412  1.4005
40507SOL    HW230300   8.398   1.274  12.361 -0.8935 -0.8886  1.1728
40508SOL     OW30301   0.443  11.152   8.487  0.2672 -0.0954  0.1849
40508SOL    HW130302   0.364  11.160   8.540  0.9831 -0.1124  1.2855
40508SOL    HW230303   0.439  11.064   8.450 -0.0258 -0.2411  0.5627
40509SOL     OW30304   0.606   1.686  11.224 -0.1052  0.9967 -0.3799
40509SOL    HW130305   0.559   1.723  11.300  1.2002 -0.4234  1.1901
40509SOL    HW230306   0.669   1.754  11.200  0.8014  0.7021  1.0837
40510SOL     OW30307  10.029  10.047  12.039  0.5120  0.1120 -0.0677
40510SOL    HW130308  10.097  10.025  11.975  0.9394  2.5988 -0.5847
40510SOL    HW230309  10.074  10.102  12.103 -0.8265  1.2275 -0.0357
40511SOL     OW30310   1.250  11.123   4.587  0.3000 -0.3698  0.1675
40511SOL    HW130311   1.216  11.122   4.676  1.3105 -2.2904  0.5703
40511SOL    HW230312   1.200  11.056   4.541  1.0105 -0.6542 -0.2141
40512SOL     OW30313   9.653   1.274   8.885 -0.0423  0.2592 -0.3314
40512SOL    HW130314   9.696   1.315   8.960  0.5431  0.1330 -0.5931
40512SOL    HW230315   9.721   1.222   8.844 -0.6302 -0.5639 -0.3114
40513SOL     OW30316   8.789  10.081   3.015 -0.0063 -0.7527  0.8386
40513SOL    HW130317   8.787  10.047   3.105  0.7430 -1.3954  0.6220
40513SOL    HW230318   8.863  10.141   3.014 -1.2567  0.9063  1.1905
40514SOL     OW30319   9.415   6.074   0.605  0.4367 -0.1284 -0.4230
40514SOL    HW130320   9.504   6.046   0.580  0.2776  0.7908 -2.2194
40514SOL    HW230321   9.426   6.164   0.636 -0.0362  0.6779 -2.4124
40515SOL     OW30322   8.667   3.679   2.851  0.1849  0.1608 -0.2497
40515SOL    HW130323   8.752   3.719   2.869  0.9182 -1.5655  0.4340
40515SOL    HW230324   8.681   3.627   2.772 -0.7583  1.2327 -1.1629
40516SOL     OW30325   7.393   1.199   6.842  0.0596  0.2621  0.4253
40516SOL    HW130326   7.302   1.175   6.860  0.2439 -0.3912  0.5122
40516SOL    HW230327   7.445   1.133   6.889  0.5761  0.4164  0.0820
40517SOL     OW30328   7.835   5.674   0.546  0.5889 -0.1382  0.3959
40517SOL    HW130329   7.856   5.767   0.539  1.5919 -0.3213  0.8091
40517SOL    HW230330   7.919   5.631   0.564  0.5738 -1.3995 -2.0488
40518SOL     OW30331   4.506   6.340  10.950  0.3451 -0.4237  0.3581
40518SOL    HW130332   4.535   6.302  10.867 -0.2557 -1.5482  0.6406
40518SOL    HW230333   4.587   6.372  10.991  0.7667 -0.7007 -0.2392
40519SOL     OW30334  11.872   9.996   8.448  0.5587 -0.1656 -0.2024
40519SOL    HW130335  11.799  10.012   8.508  0.1281  1.3618 -1.0693
40519SOL    HW230336  11.860   9.906   8.420 -2.0644  0.5127 -1.6348
40520SOL     OW30337   5.339   3.633  10.534  0.2781 -0.3617  0.3939
40520SOL    HW130338   5.382   3.550  10.552  0.7893 -0.5757 -1.5882
40520SOL    HW230339   5.266   3.610  10.476  0.2524  0.5336  0.0615
40521SOL     OW30340   5.965   2.517  10.532 -0.4960  0.7087 -0.4874
40521SOL    HW130341   5.973   2.458  10.457 -0.7289 -2.6332  1.9028
40521SOL    HW230342   6.055   2.541  10.553 -0.4293  1.7450 -1.7715
40522SOL     OW30343   2.746  11.457   4.564  0.6687 -0.2342  0.7044
40522SOL    HW130344   2.794  11.533   4.598  0.6772  0.0306  0.1155
40522SOL    HW230345   2.767  11.455   4.471 -0.2387 -0.2837  0.4937
40523SOL     OW30346  11.001  12.033  11.497 -0.2161 -0.6848  0.3973
40523SOL    HW130347  10.987  11.984  11.416 -0.4172  0.0153  0.0022
40523SOL    HW230348  10.915  12.034  11.539  0.1211 -2.0410  1.2127
40524SOL     OW30349   5.736   2.626  12.528 -0.0001  0.0594 -0.1661
40524SOL    HW130350   5.707   2.596  12.615  0.5431  0.9346  0.3274
40524SOL    HW230351   5.656   2.624  12.475 -0.1687 -1.3197  0.1067
40525SOL     OW30352   9.290  11.945  11.665  0.3844  0.2447 -0.2863
40525SOL    HW130353   9.250  11.991  11.740 -0.3970  0.8249 -1.0391
40525SOL    HW230354   9.379  11.982  11.660  0.1518  0.8421 -0.1701
40526SOL     OW30355   5.113   7.194   0.139 -0.3892 -0.4666 -0.4546
40526SOL    HW130356   5.076   7.168   0.223  0.0900 -1.1656 -0.4528
40526SOL    HW230357   5.093   7.121   0.080  0.7866 -0.7675 -0.5052
40527SOL     OW30358   7.295   3.830  10.998  0.3544 -0.4139  0.1615
40527SOL    HW130359   7.331   3.818  11.086  0.1339  0.5676  0.4011
40527SOL    HW230360   7.276   3.924  10.993  1.1215 -0.3054 -1.2235
40528SOL     OW30361   8.601   6.206  11.606  0.1178  0.1151 -0.3912
40528SOL    HW130362   8.655   6.280  11.579 -0.1732 -0.0617 -1.5129
40528SOL    HW230363   8.650   6.129  11.578 -0.2379 -0.0701 -0.5187
40529SOL     OW30364   9.210   1.308  10.725  0.3478  0.6138  0.7014
40529SOL    HW130365   9.273   1.268  10.664  0.8600  0.5412  1.2636
40529SOL    HW230366   9.263   1.329  10.802 -0.7261 -1.5626  2.1515
40530SOL     OW30367   1.687  11.097   9.005  0.2039  0.7146 -0.3167
40530SOL    HW130368   1.657  11.135   9.088  1.8684 -1.6559  1.5055
40530SOL    HW230369   1.773  11.136   8.991  0.3807  0.3147 -0.3492
40531SOL     OW30370   6.215  11.196   9.427  0.4698  0.0562  0.2502
40531SOL    HW130371   6.140  11.252   9.447 -0.2736 -1.3721  1.6538
40531SOL    HW230372   6.283  11.226   9.487  0.6634  0.5857 -0.2209
40532SOL     OW30373   5.484  11.902   5.961 -0.1103 -1.0154 -0.0551
40532SOL    HW130374   5.391  11.892   5.945 -0.0138 -0.5683 -0.9590
40532SOL    HW230375   5.490  11.976   6.022 -0.3221 -0.8064 -0.2891
40533SOL     OW30376   3.611   7.230   1.935  0.1708 -0.0642  0.7849
40533SOL    HW130377   3.585   7.142   1.908 -1.3562  0.7143 -0.4513
40533SOL    HW230378   3.551   7.288   1.889  2.2399  1.7282  0.1398
40534SOL     OW30379   4.604   5.971   3.505  0.1573  0.2586  0.1565
40534SOL    HW130380   4.643   5.947   3.421 -0.0541  1.1749 -0.2121
40534SOL    HW230381   4.665   5.937   3.571 -1.2884 -3.5073 -0.1887
40535SOL     OW30382   2.576  11.356  10.562 -0.1057  0.3740 -0.4870
40535SOL    HW130383   2.522  11.336  10.485  0.3208 -0.7780 -0.4995
40535SOL    HW230384   2.594  11.271  10.602  1.3990  0.7527 -0.2838
40536SOL     OW30385   7.140   4.305   3.125  0.5927 -0.1084 -0.1652
40536SOL    HW130386   7.134   4.280   3.217  1.3971 -1.3725 -0.4315
40536SOL    HW230387   7.185   4.390   3.126 -0.7899  0.6448  0.6761
40537SOL     OW30388  11.679  10.634  12.304  0.1865  0.7191  0.9110
40537SOL    HW130389  11.623  10.565  12.339 -0.2731  0.1237 -0.9186
40537SOL    HW230390  11.768  10.600  12.316  0.0329  0.4467  1.3086
40538SOL     OW30391   5.037   3.617   7.878 -0.4000  0.2200 -0.4561
40538SOL    HW130392   5.097   3.620   7.953 -0.2407 -0.9047 -0.5295
40538SOL    HW230393   5.090   3.582   7.806 -0.4523  1.6159 -1.2102
40539SOL     OW30394   1.655   2.855   9.070  0.4140 -0.1015  0.0069
40539SOL    HW130395   1.738   2.810   9.088  0.5861  1.1025  2.7685
40539SOL    HW230396   1.680   2.927   9.012  1.0151 -0.6352 -0.4123
40540SOL     OW30397   3.575   6.200   3.318  0.3811 -0.0856  0.3798
40540SOL    HW130398   3.541   6.135   3.380  0.6174 -0.4955  0.0887
40540SOL    HW230399   3.640   6.152   3.266  0.7411  0.4496  0.3247
40541SOL     OW30400  12.342   1.440   1.445 -0.0366 -0.2002 -0.2517
40541SOL    HW130401  12.357   1.521   1.494  3.0004 -1.3334  0.8974
40541SOL    HW230402  12.351   1.370   1.510  0.7703 -1.6028 -1.7896
40542SOL     OW30403   5.846  12.315   1.682  0.4654  0.1548  0.0530
40542SOL    HW130404   5.898  12.253   1.734 -0.1535 -0.1688  0.2900
40542SOL    HW230405   5.778  12.262   1.642 -0.4125  0.7656  0.6976
40543SOL     OW30406   0.972   6.627   6.707 -0.2403 -0.1059  0.1603
40543SOL    HW130407   0.887   6.600   6.742 -0.7209  0.2241 -0.7437
40543SOL    HW230408   0.986   6.715   6.742 -0.3558 -0.0839  0.1507
40544SOL     OW30409  10.837   2.291   3.951 -0.0252  0.4555 -0.1915
40544SOL    HW130410  10.930   2.278   3.966  0.0370  0.5466 -0.4987
40544SOL    HW230411  10.804   2.204   3.926 -0.4788 -0.1227  2.2148
40545SOL     OW30412   2.013   4.107   2.248 -0.1220 -0.1533  0.1924
40545SOL    HW130413   1.943   4.161   2.284  0.4208  0.5589  0.1931
40545SOL    HW230414   2.025   4.138   2.158 -0.5223 -0.9927 -0.1706
40546SOL     OW30415   5.996   9.388   8.187  0.1553 -0.0113 -0.6103
40546SOL    HW130416   5.997   9.481   8.165  1.3125  0.8394  2.5366
40546SOL    HW230417   6.087   9.360   8.178 -0.0313 -0.6080 -0.6898
40547SOL     OW30418   3.085   5.056   6.084 -0.4130 -0.0243  0.1624
40547SOL    HW130419   2.991   5.038   6.088 -0.5221 -0.0419 -1.6717
40547SOL    HW230420   3.104   5.099   6.168 -2.9639  3.9183 -0.9766
40548SOL     OW30421   6.778   9.543   3.450  0.0106  0.4197 -0.4026
40548SOL    HW130422   6.870   9.561   3.431 -0.0817  0.5009 -0.7703
40548SOL    HW230423   6.736   9.537   3.365 -0.0212 -1.2499 -0.2947
40549SOL     OW30424   2.821   5.114   2.538  0.6861 -0.0707  0.7293
40549SOL    HW130425   2.862   5.133   2.623  1.0413 -0.6103  0.6889
40549SOL    HW230426   2.891   5.130   2.474  1.2308 -2.0655  0.7414
40550SOL     OW30427   9.234   2.312   2.927 -0.0870  0.3922 -0.1310
40550SOL    HW130428   9.224   2.376   2.998  1.6315  1.4360 -0.7479
40550SOL    HW230429   9.277   2.237   2.968 -2.0825 -0.4111  0.5914
40551SOL     OW30430   4.013   6.994  11.133  0.4984  0.1982 -0.1585
40551SOL    HW130431   4.081   7.032  11.190  1.3084  0.7384 -1.4403
40551SOL    HW230432   3.967   7.070  11.097  0.0513 -0.1350 -0.2903
40552SOL     OW30433   9.224   6.178  12.606  0.5294  0.7995  0.1153
40552SOL    HW130434   9.234   6.200  12.699  0.5640 -0.0894  0.3357
40552SOL    HW230435   9.305   6.132  12.583  0.0667  0.0396 -0.0479
40553SOL     OW30436   5.590   2.019   6.768 -0.7329 -0.2019 -0.1805
40553SOL    HW130437   5.567   1.927   6.750 -2.6235 -0.4204  2.6285
40553SOL    HW230438   5.680   2.015   6.800  0.0626 -0.6835 -2.2865
40554SOL     OW30439   9.048  12.239   2.740  0.5390 -0.2387 -0.7068
40554SOL    HW130440   9.141  12.257   2.724  0.8835 -1.2830 -0.0311
40554SOL    HW230441   9.003  12.272   2.662  1.1145  2.9912  0.2119
40555SOL     OW30442   5.546   7.459  12.248  0.5062 -0.6551 -0.0947
40555SOL    HW130443   5.550   7.526  12.180 -1.1317 -0.2694  0.1571
40555SOL    HW230444   5.637   7.449  12.277  1.2919 -0.9615 -2.4368
40556SOL     OW30445  12.349   6.712   4.711  0.2910 -0.1766  0.2188
40556SOL    HW130446  12.440   6.730   4.735 -0.3622  0.8776  2.1233
40556SOL    HW230447  12.307   6.798   4.710 -0.9683 -0.7658  0.6884
40557SOL     OW30448   3.246   1.108   7.882  0.3176 -1.0994 -0.2735
40557SOL    HW130449   3.320   1.077   7.935 -1.1767 -0.1256  2.5913
40557SOL    HW230450   3.204   1.028   7.850  1.6611 -1.7033 -0.6006
40558SOL     OW30451   2.854  10.239   4.044 -0.5587 -0.4648  1.3681
40558SOL    HW130452   2.821  10.261   3.957 -0.9486 -1.1075  1.3416
40558SOL    HW230453   2.800  10.164   4.072 -0.2309 -0.4680  2.0288
40559SOL     OW30454   5.752   0.738   1.059  0.3033  0.8085 -0.5304
40559SOL    HW130455   5.713   0.825   1.070 -2.0185  0.1648 -2.7066
40559SOL    HW230456   5.696   0.680   1.110 -0.3114  0.1485 -1.9238
40560SOL     OW30457   1.656   8.676   4.982  0.3018  0.1689  0.1633
40560SOL    HW130458   1.749   8.661   5.003  0.4147  0.3012 -0.2343
40560SOL    HW230459   1.652   8.766   4.952 -0.0815  0.3866  0.8437
40561SOL     OW30460  11.882   6.860  11.347  0.2759  0.2646  0.1015
40561SOL    HW130461  11.908   6.807  11.422 -0.0707  0.5703  0.4440
40561SOL    HW230462  11.809   6.812  11.307 -1.9964  1.7936  2.0767
40562SOL     OW30463   0.734   9.634  10.841 -0.3978 -0.4167  0.5792
40562SOL    HW130464   0.756   9.542  10.831 -1.7522 -0.6702 -0.3901
40562SOL    HW230465   0.784   9.663  10.917 -0.0789 -1.9934  1.0056
40563SOL     OW30466   0.076   5.300   6.692  0.0905  0.0874  0.0000
40563SOL    HW130467   0.086   5.275   6.784  0.3979 -2.0358 -0.5578
40563SOL    HW230468  -0.019   5.304   6.678  0.0029  2.1915  0.7914
40564SOL     OW30469  11.132   9.736   3.906 -0.1051 -0.4769 -0.0343
40564SOL    HW130470  11.150   9.643   3.892 -1.1738 -0.5537 -1.1275
40564SOL    HW230471  11.129   9.773   3.817 -1.5682  0.1971  0.2597
40565SOL     OW30472   2.792   0.589   4.761  0.3410 -0.4448 -0.3567
40565SOL    HW130473   2.882   0.620   4.772  0.8362 -1.4364 -1.3839
40565SOL    HW230474   2.801   0.498   4.731 -1.0170 -0.7734  0.1392
40566SOL     OW30475   6.299   2.899   2.575 -0.3187  0.2870  0.7369
40566SOL    HW130476   6.316   2.810   2.604  1.7843  1.5477  3.9552
40566SOL    HW230477   6.249   2.939   2.647 -2.2654  1.4591 -1.1377
40567SOL     OW30478   0.828  10.391   3.355  0.0080  0.3949 -0.3173
40567SOL    HW130479   0.752  10.345   3.321  0.8860 -0.8915 -0.5943
40567SOL    HW230480   0.848  10.349   3.438  1.2652 -0.2676 -0.9188
40568SOL     OW30481   1.499   0.093  11.478  0.7620 -0.3555  0.0509
40568SOL    HW130482   1.568   0.098  11.545 -0.2842  3.0159  1.0635
40568SOL    HW230483   1.516   0.167  11.420 -0.3523 -1.1951 -1.4205
40569SOL     OW30484   6.240   3.659  10.190 -0.1785  0.2811  0.0337
40569SOL    HW130485   6.216   3.601  10.118  1.0646  0.1160 -0.2672
40569SOL    HW230486   6.247   3.746  10.150  1.7419 -0.0009 -0.3645
40570SOL     OW30487   3.640   3.736  12.161  0.0708  0.1624  0.1785
40570SOL    HW130488   3.559   3.786  12.170  0.7952  1.3449  0.3827
40570SOL    HW230489   3.643   3.681  12.239 -0.1098  0.7672  0.6215
40571SOL     OW30490   4.022   3.790   2.241 -0.1948 -0.4984  0.1812
40571SOL    HW130491   4.051   3.880   2.223 -0.0973 -0.2747  1.3856
40571SOL    HW230492   4.102   3.737   2.235 -0.3893 -0.6464 -1.3467
40572SOL     OW30493   5.875   2.043   8.973  0.3160 -0.3069  0.4112
40572SOL    HW130494   5.888   2.005   8.886  2.0887 -0.0429  0.5090
40572SOL    HW230495   5.790   2.086   8.969  0.1748 -0.6914 -1.0562
40573SOL     OW30496  10.625   4.207   0.369 -0.3842 -0.2441  0.3826
40573SOL    HW130497  10.531   4.219   0.379  0.0403  2.1937  2.4383
40573SOL    HW230498  10.653   4.169   0.452  0.6129  0.3433  0.3270
40574SOL     OW30499   3.364   2.503  10.343  0.1369 -0.1133 -0.0644
40574SOL    HW130500   3.309   2.508  10.421  0.2670  0.3350  0.0047
40574SOL    HW230501   3.354   2.589  10.301  0.2373 -0.2748 -0.4222
40575SOL     OW30502   5.439   0.344  11.427  0.3774 -1.2057  0.0312
40575SOL    HW130503   5.445   0.432  11.392  0.3021 -1.0923  0.3031
40575SOL    HW230504   5.414   0.355  11.518  2.1519 -1.4276  0.5903
40576SOL     OW30505  11.875  12.385   1.961 -0.3843 -0.2511  0.5469
40576SOL    HW130506  11.802  12.346   2.009 -0.8753  0.1718  0.1475
40576SOL    HW230507  11.922  12.436   2.027 -2.6933  2.7125  0.0963
40577SOL     OW30508   9.976  10.269   1.370  0.6045  0.3060 -0.2631
40577SOL    HW130509   9.930  10.334   1.316 -0.2080  0.2338  0.3257
40577SOL    HW230510  10.005  10.318   1.446 -0.6538 -0.1438  0.5420
40578SOL     OW30511   3.162  11.983   2.452  0.3595  0.3303 -0.4670
40578SOL    HW130512   3.083  11.929   2.453  1.4541 -1.3553 -1.5224
40578SOL    HW230513   3.134  12.066   2.490 -1.0593 -1.3983  2.6158
40579SOL     OW30514   3.301   4.685  10.014 -0.1126 -0.2866  0.1068
40579SOL    HW130515   3.240   4.611  10.006  0.9981 -1.2971  0.5262
40579SOL    HW230516   3.379   4.657   9.965  0.6136  0.2708  0.9135
40580SOL     OW30517   1.032   5.168   2.132  0.0379 -0.1937 -0.1512
40580SOL    HW130518   0.979   5.217   2.069  1.8879  0.8591 -0.9916
40580SOL    HW230519   0.997   5.079   2.129 -1.2070  0.2966 -1.1668
40581SOL     OW30520   5.651   8.240   8.722  0.1349  0.0891 -0.1597
40581SOL    HW130521   5.619   8.305   8.784 -0.5085 -1.7958  1.5894
40581SOL    HW230522   5.718   8.192   8.771  2.6270  1.0958 -2.2938
40582SOL     OW30523   9.963  11.700  10.503 -0.3097  0.2988  0.2659
40582SOL    HW130524   9.883  11.725  10.457 -0.1923 -0.5487 -0.4288
40582SOL    HW230525  10.029  11.691  10.433 -0.1857 -1.2371  0.5543
40583SOL     OW30526   9.466   6.703   2.481  0.0989 -0.1903  0.2155
40583SOL    HW130527   9.449   6.781   2.428 -1.0754  0.1249  1.0104
40583SOL    HW230528   9.415   6.634   2.438 -0.1920 -0.1227  0.4443
40584SOL     OW30529  11.708   8.514   3.342  0.1084  0.3629  0.0304
40584SOL    HW130530  11.794   8.532   3.304  0.6564 -0.6602  0.7468
40584SOL    HW230531  11.666   8.600   3.346  0.7820  0.7717 -1.0533
40585SOL     OW30532   6.255   9.021   2.733  0.2931 -0.2071 -0.3094
40585SOL    HW130533   6.323   8.957   2.715  0.2463  0.0151 -1.3129
40585SOL    HW230534   6.299   9.106   2.727 -0.1856 -0.0271 -1.6319
40586SOL     OW30535   5.809   2.525   5.429  0.0688 -0.0096 -0.2187
40586SOL    HW130536   5.716   2.542   5.414  0.2901  1.2138 -0.2972
40586SOL    HW230537   5.812   2.485   5.516 -0.4655  0.7432  0.1545
40587SOL     OW30538  10.704   8.501   9.676 -0.0253  0.4015  0.1156
40587SOL    HW130539  10.798   8.486   9.685  0.0540  1.7009  1.8011
40587SOL    HW230540  10.666   8.413   9.674  1.0515 -0.1347  1.6646
40588SOL     OW30541   6.530   7.663   4.299  0.6241  0.0117  1.0190
40588SOL    HW130542   6.574   7.744   4.272  1.7237 -1.5135 -2.4330
40588SOL    HW230543   6.438   7.677   4.279  0.6156  0.7972  1.5753
40589SOL     OW30544   3.192   5.663   2.752 -0.2109 -0.2794  0.0515
40589SOL    HW130545   3.132   5.603   2.798 -1.6412  0.1874 -1.1400
40589SOL    HW230546   3.165   5.657   2.660  4.2466 -3.2535 -1.3963
40590SOL     OW30547   2.869  11.784   5.458  0.3188 -0.1966 -0.4639
40590SOL    HW130548   2.790  11.730   5.461 -0.5298  0.9881 -1.0984
40590SOL    HW230549   2.885  11.807   5.550 -0.0979 -0.4024 -0.3368
40591SOL     OW30550   4.961   9.330   8.929 -0.4211  0.4600 -0.3605
40591SOL    HW130551   4.922   9.394   8.869 -3.5600 -0.5683  0.4064
40591SOL    HW230552   4.899   9.258   8.931  0.7394 -0.6035  2.3165
40592SOL     OW30553   5.478   8.745   7.458 -0.1513  0.0658  0.3817
40592SOL    HW130554   5.503   8.822   7.509  1.8958 -0.3746  0.1131
40592SOL    HW230555   5.383   8.739   7.469  0.0582  0.7134  3.0775
40593SOL     OW30556   7.118   3.192   5.833  0.4322  0.3522  0.0726
40593SOL    HW130557   7.082   3.120   5.885  1.7891 -0.4634 -0.0605
40593SOL    HW230558   7.044   3.250   5.817 -0.6152 -0.8288  0.4963
40594SOL     OW30559  10.102   0.956   7.490  0.1469 -0.4880 -0.4750
40594SOL    HW130560  10.096   0.947   7.585  1.4900 -0.1266 -0.3357
40594SOL    HW230561  10.011   0.960   7.461 -0.2856 -0.3856  0.8142
40595SOL     OW30562   4.293   8.981   3.287 -0.0987 -0.2499  0.0084
40595SOL    HW130563   4.320   8.978   3.379  0.9355 -0.0345 -0.2818
40595SOL    HW230564   4.338   9.058   3.251  0.0407 -0.7158 -0.8393
40596SOL     OW30565   2.726   8.595   7.989 -0.1482 -0.2116 -0.1432
40596SOL    HW130566   2.755   8.622   8.076  0.5405 -0.4614 -0.2863
40596SOL    HW230567   2.646   8.545   8.005  0.2565 -0.7062  0.4053
40597SOL     OW30568   1.056   6.709   1.140  0.3268  0.0045  0.4214
40597SOL    HW130569   0.991   6.683   1.206  0.2673 -1.6236 -0.2197
40597SOL    HW230570   1.069   6.630   1.087 -1.0544  1.6926 -2.7417
40598SOL     OW30571   4.487   7.395   9.173  0.3220 -0.0315  0.4306
40598SOL    HW130572   4.458   7.305   9.158  0.7729 -0.3463  1.4052
40598SOL    HW230573   4.573   7.400   9.130 -0.4282  0.4479 -1.0942
40599SOL     OW30574   0.495   2.140   0.460  0.0395  0.5223 -0.1487
40599SOL    HW130575   0.405   2.165   0.441  0.0445  0.8939  0.3016
40599SOL    HW230576   0.532   2.216   0.506 -0.6089 -1.0577  3.3139
40600SOL     OW30577   7.009   8.229   2.817 -0.1780  0.2680 -0.4660
40600SOL    HW130578   6.940   8.294   2.809 -1.6542 -1.2459 -0.5174
40600SOL    HW230579   6.977   8.168   2.884  0.4962 -1.2104 -1.4456
40601SOL     OW30580   9.545   8.273   3.560  0.0054  0.1017  0.6309
40601SOL    HW130581   9.559   8.205   3.494 -1.5194  1.3101 -1.0488
40601SOL    HW230582   9.466   8.246   3.606  1.1754 -0.8386  2.1543
40602SOL     OW30583  12.598   9.619  10.133 -0.0573  0.3029 -0.0522
40602SOL    HW130584  12.571   9.711  10.128 -1.6971 -0.2021 -1.8581
40602SOL    HW230585  12.534   9.579  10.192  0.7639  0.3181  0.8778
40603SOL     OW30586   5.134   4.511   1.311  1.1698  0.3127 -0.7814
40603SOL    HW130587   5.214   4.473   1.277  2.0983 -1.9425  3.3332
40603SOL    HW230588   5.151   4.526   1.404 -2.9285  0.3680  0.1819
40604SOL     OW30589   3.741  10.235  11.950  0.0359 -0.1877  0.3137
40604SOL    HW130590   3.721  10.207  11.861  0.5795  0.6188 -0.0831
40604SOL    HW230591   3.671  10.296  11.973  0.9213  1.1359 -0.3400
40605SOL     OW30592   9.487  10.271   2.327  0.5682 -0.7345 -0.2020
40605SOL    HW130593   9.429  10.345   2.309  1.5046 -0.1768 -1.0331
40605SOL    HW230594   9.571  10.311   2.349  1.2966 -1.5415 -1.3993
40606SOL     OW30595   5.245  10.436   7.859 -0.0227  0.0356  0.1088
40606SOL    HW130596   5.327  10.449   7.908 -0.1482  0.3622  0.2331
40606SOL    HW230597   5.217  10.524   7.834 -0.0650 -0.1118 -0.3859
40607SOL     OW30598   9.716   2.177   1.081  0.1963 -0.2123 -0.9276
40607SOL    HW130599   9.742   2.211   0.996  0.4976  0.9235 -0.3977
40607SOL    HW230600   9.723   2.252   1.141 -0.3820 -0.8858  0.0221
40608SOL     OW30601  11.291   9.197   6.083  1.1488 -0.3778 -0.0194
40608SOL    HW130602  11.313   9.105   6.067 -0.0957 -0.9495  1.3105
40608SOL    HW230603  11.334   9.218   6.167 -2.5009 -1.3415  2.3158
40609SOL     OW30604   9.299   9.883   8.435 -0.2733  0.4490  0.2868
40609SOL    HW130605   9.334   9.933   8.361 -1.1151  2.1042  0.9569
40609SOL    HW230606   9.367   9.890   8.502 -0.3190  0.5309  0.3239
40610SOL     OW30607  11.669  11.829   3.071  0.7242  0.3472 -0.3736
40610SOL    HW130608  11.601  11.890   3.101 -1.4252 -1.9081 -0.2920
40610SOL    HW230609  11.730  11.823   3.144  2.4337  4.1402 -1.2809
40611SOL     OW30610   3.858  12.043   2.088  0.1356  0.4398  0.3503
40611SOL    HW130611   3.849  12.022   2.181 -1.1274 -0.6640  0.0030
40611SOL    HW230612   3.882  11.960   2.046  3.5907  1.4395 -0.0211
40612SOL     OW30613  10.850   1.940   0.638 -0.0706  0.7429 -0.4160
40612SOL    HW130614  10.852   1.845   0.631 -0.3666  0.4519  2.5781
40612SOL    HW230615  10.761   1.964   0.614 -0.7432 -0.0227  1.1830
40613SOL     OW30616   9.949   0.971   0.181  0.1203 -0.0304  0.2223
40613SOL    HW130617   9.948   0.933   0.269 -0.3943  0.1266  0.2876
40613SOL    HW230618   9.985   0.902   0.126  1.5610  0.2776  0.7349
40614SOL     OW30619   6.909   9.328   5.197  0.1333 -0.5074 -0.2539
40614SOL    HW130620   6.844   9.258   5.191 -0.6863  0.3718 -2.5645
40614SOL    HW230621   6.937   9.343   5.107 -1.5185  3.7208 -0.3067
40615SOL     OW30622   5.911   5.811  11.606 -0.2435 -0.5609 -0.3048
40615SOL    HW130623   5.822   5.837  11.584  0.4780  1.8899 -0.5974
40615SOL    HW230624   5.921   5.834  11.698  0.1881 -0.5238 -0.3578
40616SOL     OW30625   2.617   7.393   4.603  0.0195 -0.2100  0.1366
40616SOL    HW130626   2.641   7.431   4.518 -0.8322 -2.1456 -1.0342
40616SOL    HW230627   2.593   7.303   4.583 -1.0434 -0.4796  2.3379
40617SOL     OW30628   3.483   3.029   9.884  0.4970 -0.5578 -0.7041
40617SOL    HW130629   3.426   2.953   9.895 -0.7358  0.6921  2.8650
40617SOL    HW230630   3.553   3.015   9.947 -0.3961  1.7020  0.9075
40618SOL     OW30631   3.075   0.436   8.079 -0.7473 -0.4396  0.4128
40618SOL    HW130632   3.096   0.489   8.156 -0.8421 -1.0493  0.8623
40618SOL    HW230633   3.004   0.485   8.036 -0.8753 -0.2266  0.8543
40619SOL     OW30634   4.159   1.035  12.078 -0.0795 -0.3255  0.3752
40619SOL    HW130635   4.091   1.084  12.123  0.0667  2.0840 -1.8057
40619SOL    HW230636   4.112   0.975  12.020 -0.4353  1.0743 -0.8573
40620SOL     OW30637   5.962   0.689   2.883  0.2087 -0.3582 -0.0775
40620SOL    HW130638   6.021   0.613   2.882  0.4078 -0.2016 -0.2707
40620SOL    HW230639   5.892   0.664   2.944  1.4228  0.1814  1.6188
40621SOL     OW30640   3.543   4.053   1.997 -0.3672  0.2760 -0.2469
40621SOL    HW130641   3.633   4.022   1.993  0.9441  3.0107  3.3122
40621SOL    HW230642   3.490   3.972   1.997  2.0377 -1.4123 -1.7808
40622SOL     OW30643   5.695   8.793   0.927 -0.1361 -0.5176  0.3471
40622SOL    HW130644   5.616   8.777   0.980 -0.6703  0.7406 -0.0253
40622SOL    HW230645   5.752   8.844   0.985  0.1201 -0.8581  0.3921
40623SOL     OW30646  11.035   2.527   9.155  0.1411 -0.2481  0.3124
40623SOL    HW130647  11.100   2.462   9.183  2.8606  0.7630 -3.1009
40623SOL    HW230648  11.054   2.604   9.208  1.5148 -0.1066 -0.3424
40624SOL     OW30649   4.708  11.979   8.832  0.0981  0.6202  0.5008
40624SOL    HW130650   4.744  12.021   8.754 -0.7909  1.1105  0.3385
40624SOL    HW230651   4.700  12.050   8.896 -1.1363  0.6642  0.3242
40625SOL     OW30652   7.783   5.669  10.516  0.1988 -0.1573 -0.1553
40625SOL    HW130653   7.698   5.670  10.471 -1.0176  0.4738  2.0184
40625SOL    HW230654   7.827   5.749  10.485 -1.2517  1.0821  0.8553
40626SOL     OW30655   3.241   1.566   0.347  0.5490  0.1461  0.3895
40626SOL    HW130656   3.336   1.572   0.350  0.5793 -0.0526 -0.1340
40626SOL    HW230657   3.220   1.495   0.408  0.8322 -0.6965 -0.4661
40627SOL     OW30658   4.160   5.878   3.533 -0.1189  0.1390  0.1671
40627SOL    HW130659   4.159   5.891   3.628  1.3571 -0.7602  0.3374
40627SOL    HW230660   4.252   5.881   3.509 -0.5748  2.6143 -1.6086
40628SOL     OW30661   2.041   3.184   7.634  0.0460  0.6005  0.0645
40628SOL    HW130662   2.024   3.091   7.646 -1.6345  0.9120  0.3418
40628SOL    HW230663   2.033   3.221   7.722  1.0567  0.9703  0.0132
40629SOL     OW30664  11.897   7.148  10.564  0.9934  0.3437  0.0704
40629SOL    HW130665  11.909   7.233  10.521 -0.2888 -0.0618 -1.1417
40629SOL    HW230666  11.929   7.084  10.501  1.3341 -0.1399  0.7117
40630SOL     OW30667   5.788   7.589  12.353 -0.2627  0.5515  0.3208
40630SOL    HW130668   5.786   7.646  12.276 -0.4390 -0.2135 -0.2524
40630SOL    HW230669   5.868   7.613  12.399 -0.2279  1.1128 -0.0261
40631SOL     OW30670   6.680   3.248   7.462 -0.1918 -0.4888 -0.3766
40631SOL    HW130671   6.713   3.276   7.548 -1.1958  2.8397 -0.9290
40631SOL    HW230672   6.726   3.166   7.445  2.2126  0.1710  2.0596
40632SOL     OW30673   7.400   2.381   8.880  0.1314  0.1839 -0.4127
40632SOL    HW130674   7.359   2.353   8.798  0.9971 -0.2077 -0.7156
40632SOL    HW230675   7.457   2.309   8.905 -0.2345  0.2358  0.6271
40633SOL     OW30676   3.690   5.315   2.650 -0.2197 -0.2574 -0.1095
40633SOL    HW130677   3.606   5.359   2.652  0.4199  1.0144  0.0862
40633SOL    HW230678   3.721   5.325   2.560  0.0717 -0.0174  0.0143
40634SOL     OW30679   2.411  11.779   6.232 -0.2961  0.0562 -0.3778
40634SOL    HW130680   2.370  11.779   6.319 -0.3221 -0.1272 -0.3877
40634SOL    HW230681   2.493  11.827   6.244  1.2560 -2.5690  0.5149
40635SOL     OW30682   6.482   2.587   3.705 -0.5566  0.0917 -0.0650
40635SOL    HW130683   6.504   2.559   3.794 -0.4451 -1.3960 -0.5270
40635SOL    HW230684   6.551   2.549   3.650 -0.8334  0.6612 -0.8235
40636SOL     OW30685   2.927   0.938   2.210 -0.4817  0.3656 -0.0100
40636SOL    HW130686   2.965   0.979   2.132 -1.8822  1.4137 -0.1751
40636SOL    HW230687   3.002   0.899   2.255  0.5420  0.9046 -1.1816
40637SOL     OW30688   6.180   6.473   2.666 -0.1938 -0.0627 -0.3939
40637SOL    HW130689   6.210   6.476   2.757  0.9796 -4.1342 -0.4493
40637SOL    HW230690   6.094   6.430   2.670 -0.1961 -0.1527 -1.2163
40638SOL     OW30691   3.248   4.207   7.104  0.2223 -0.4748 -0.7581
40638SOL    HW130692   3.152   4.200   7.109  0.3727 -1.8730  2.1325
40638SOL    HW230693   3.268   4.189   7.012 -2.2745  0.0629 -1.5026
40639SOL     OW30694  11.709   1.177   5.687  0.0286  0.1007  0.2070
40639SOL    HW130695  11.648   1.205   5.755  0.1360 -0.3264  0.4832
40639SOL    HW230696  11.711   1.250   5.625 -1.8722 -0.4421 -0.5806
40640SOL     OW30697   6.801   2.986   0.710  0.0111  0.0962  0.1583
40640SOL    HW130698   6.801   3.054   0.777  0.2544  0.2614 -0.0072
40640SOL    HW230699   6.890   2.985   0.676 -0.7259  1.9274 -2.0902
40641SOL     OW30700   5.043  12.581  12.415 -0.7656  0.1081 -0.1108
40641SOL    HW130701   5.094  12.643  12.466 -0.4358  0.4151 -0.8045
40641SOL    HW230702   5.106  12.517  12.383 -0.9532 -0.0379 -0.1961
40642SOL     OW30703   4.100   0.629   6.550  0.0876 -0.2536  0.0782
40642SOL    HW130704   4.167   0.629   6.482  1.0048 -1.5000  0.9490
40642SOL    HW230705   4.114   0.548   6.599 -2.0806 -0.5727  0.2808
40643SOL     OW30706   0.952   5.650   9.130 -0.5655  0.8500  0.5909
40643SOL    HW130707   0.879   5.702   9.162  0.3670  2.1266  0.7154
40643SOL    HW230708   1.003   5.629   9.209 -1.8288 -1.8179  0.8207
40644SOL     OW30709   8.314  10.740   3.279 -0.0765 -0.2506 -0.1622
40644SOL    HW130710   8.219  10.733   3.268 -0.6115  0.3294  3.1220
40644SOL    HW230711   8.326  10.816   3.336  2.1199 -1.8262  1.6773
40645SOL     OW30712   4.117   1.317   0.461  0.6277 -0.4628  0.1208
40645SOL    HW130713   4.040   1.307   0.405 -1.0492 -1.3145  2.4108
40645SOL    HW230714   4.130   1.412   0.466  0.0493 -0.3264 -0.7074
40646SOL     OW30715   7.285   0.686   1.818 -0.3693  0.1718 -0.1985
40646SOL    HW130716   7.321   0.714   1.903  0.2225 -1.6811  0.2067
40646SOL    HW230717   7.196   0.657   1.839  0.5962 -2.7352  0.3896
40647SOL     OW30718   5.614  11.385  11.975 -0.5888  0.3107 -0.3698
40647SOL    HW130719   5.529  11.395  12.017 -0.4731  0.8677 -0.2567
40647SOL    HW230720   5.675  11.429  12.035  0.2389 -2.5574  1.0505
40648SOL     OW30721  10.613   5.495  11.580 -0.3297  0.1567 -0.3208
40648SOL    HW130722  10.560   5.416  11.568  1.8177 -1.8610  2.2636
40648SOL    HW230723  10.590   5.526  11.668  2.3366 -0.5936  0.7427
40649SOL     OW30724   1.233   5.143   3.987  0.5283 -0.5543 -0.1256
40649SOL    HW130725   1.227   5.215   3.925  0.3858 -0.5789 -0.1422
40649SOL    HW230726   1.171   5.077   3.953 -0.3123 -0.1524  0.5922
40650SOL     OW30727   2.967   8.974   7.649 -0.4628 -0.4889 -0.3567
40650SOL    HW130728   2.999   8.952   7.737  0.6236  0.0025 -0.6196
40650SOL    HW230729   3.035   8.942   7.590 -1.6683 -1.8039 -1.1204
40651SOL     OW30730   2.320  11.604  11.967 -0.1279  0.1184 -0.3077
40651SOL    HW130731   2.345  11.534  11.906  0.3582 -1.1230  1.2232
40651SOL    HW230732   2.363  11.682  11.933  2.3915 -1.0791 -0.1537
40652SOL     OW30733   2.993   9.314   5.157 -0.2770 -0.5361  0.0455
40652SOL    HW130734   3.064   9.340   5.215 -0.4142  0.2137 -0.1121
40652SOL    HW230735   2.943   9.394   5.142  0.5560 -0.3491 -2.2238
40653SOL     OW30736   3.480   2.759  12.407 -0.0267  0.3470 -0.5811
40653SOL    HW130737   3.549   2.793  12.350 -0.1831 -1.2961 -1.8225
40653SOL    HW230738   3.413   2.727  12.347 -0.0945 -1.6801  0.4972
40654SOL     OW30739  12.183   3.592   0.782  0.3566 -0.2948 -0.2535
40654SOL    HW130740  12.266   3.553   0.753  0.4318  0.5476 -1.2143
40654SOL    HW230741  12.206   3.639   0.863  1.2672  1.4844 -1.4721
40655SOL     OW30742  10.241   8.920   8.439 -0.2583 -0.0495  0.0832
40655SOL    HW130743  10.161   8.964   8.468 -0.1957 -0.3184  0.6888
40655SOL    HW230744  10.227   8.829   8.463  0.6296  0.0629  1.1036
40656SOL     OW30745   0.598  11.629   4.377  0.1116 -0.2894 -0.1822
40656SOL    HW130746   0.621  11.639   4.470 -1.5688 -1.0017  0.3401
40656SOL    HW230747   0.518  11.681   4.366  0.1834 -0.3681 -1.1999
40657SOL     OW30748  12.054   0.745   4.416 -0.1776 -0.4529 -0.2994
40657SOL    HW130749  12.026   0.739   4.325  1.9469 -0.1041 -1.0349
40657SOL    HW230750  12.150   0.750   4.411 -0.0921  1.7565  1.8223
40658SOL     OW30751  11.196   4.493   6.581 -0.1857  0.0321  0.5385
40658SOL    HW130752  11.109   4.471   6.546 -0.8522 -0.0418  2.1293
40658SOL    HW230753  11.244   4.527   6.506 -1.8242  0.7373 -0.2458
40659SOL     OW30754  10.131   4.733  10.387  0.3508  0.0683  0.0570
40659SOL    HW130755  10.040   4.714  10.406  0.5493  1.0364  2.2843
40659SOL    HW230756  10.179   4.661  10.428  0.6160 -0.2396 -0.7804
40660SOL     OW30757   0.421  12.227  10.554 -0.2584  0.6893  0.0612
40660SOL    HW130758   0.497  12.271  10.592  0.6998 -1.7493  1.2148
40660SOL    HW230759   0.369  12.200  10.630  0.2344 -1.8138 -0.4139
40661SOL     OW30760   3.815   2.035   3.943  0.0118 -0.2052  0.0613
40661SOL    HW130761   3.895   2.015   3.992 -0.8080 -3.3799  0.3741
40661SOL    HW230762   3.773   2.105   3.993  0.9989 -0.7930  1.8116
40662SOL     OW30763   8.649   1.336   6.296  0.3561  0.0225 -0.0523
40662SOL    HW130764   8.625   1.402   6.231  0.9881 -0.1493 -0.4736
40662SOL    HW230765   8.735   1.365   6.328  0.4474 -0.3655  0.0612
40663SOL     OW30766   3.697   9.245   7.448 -0.2460  0.7323  0.4204
40663SOL    HW130767   3.634   9.233   7.378 -0.2760 -2.6481  0.8853
40663SOL    HW230768   3.778   9.270   7.403 -0.6064 -0.0449 -0.7026
40664SOL     OW30769   2.898  11.384   8.979  0.0604  0.7594 -0.5540
40664SOL    HW130770   2.864  11.295   8.971  1.0257  0.4494 -1.4249
40664SOL    HW230771   2.821  11.440   8.976 -0.4622  0.0193 -1.2925
40665SOL     OW30772  12.186  12.177  12.102  0.1324 -0.3077  0.5142
40665SOL    HW130773  12.186  12.273  12.096 -1.3904 -0.3783 -1.8982
40665SOL    HW230774  12.261  12.157  12.159  1.7149  2.2287 -0.4795
40666SOL     OW30775  10.111   7.360   3.553  0.1734  0.1905  0.1058
40666SOL    HW130776  10.081   7.270   3.552 -0.2584  0.3378 -0.2038
40666SOL    HW230777  10.064   7.401   3.626 -1.0410  0.6396 -0.8987
40667SOL     OW30778   5.456   5.002  12.177  0.1212  0.4931 -0.0154
40667SOL    HW130779   5.365   5.006  12.146 -0.1869  0.2650  0.8175
40667SOL    HW230780   5.468   5.081  12.229  0.3617  0.4647 -0.0259
40668SOL     OW30781   3.120   3.302  11.964  0.2995 -0.3768 -0.2573
40668SOL    HW130782   3.052   3.238  11.949  0.7789 -0.8403 -0.4763
40668SOL    HW230783   3.139   3.338  11.878 -0.8251  0.9610  0.0188
40669SOL     OW30784   3.122   0.985  11.171 -0.0400 -0.1989 -0.8737
40669SOL    HW130785   3.039   0.990  11.124 -0.6925 -0.4269  0.2299
40669SOL    HW230786   3.125   1.064  11.225 -0.5371 -1.1677  0.6521
40670SOL     OW30787   6.378   3.025   3.910 -0.3607 -0.6901  0.3236
40670SOL    HW130788   6.368   3.118   3.888  1.2934 -0.5377  0.1024
40670SOL    HW230789   6.351   3.019   4.002  0.0840  0.1341  0.5199
40671SOL     OW30790   3.708  10.546   3.138 -0.5694 -0.3641  0.3568
40671SOL    HW130791   3.769  10.499   3.081 -1.1698 -0.2291 -0.4270
40671SOL    HW230792   3.764  10.597   3.197  0.1198  1.1961 -1.5349
40672SOL     OW30793   8.173   1.140   7.625 -0.3882 -0.0364  0.0290
40672SOL    HW130794   8.116   1.127   7.549 -0.5534 -0.6043  0.2454
40672SOL    HW230795   8.137   1.083   7.692 -1.3044  1.7681  1.1316
40673SOL     OW30796   3.278   1.923   4.787  0.2037  0.1965  0.1650
40673SOL    HW130797   3.273   1.921   4.692  1.2984 -1.6462  0.0899
40673SOL    HW230798   3.254   1.834   4.814  0.5809  0.4844  1.5587
40674SOL     OW30799   1.619   2.735   6.971 -0.2062  0.2363  0.0465
40674SOL    HW130800   1.710   2.704   6.961 -0.2584  0.1185 -0.0622
40674SOL    HW230801   1.627   2.816   7.021 -0.2238 -1.1996  2.5608
40675SOL     OW30802  11.338   6.249   6.494  0.6723 -0.5471 -0.1483
40675SOL    HW130803  11.387   6.176   6.456  0.5431 -1.8881  2.0998
40675SOL    HW230804  11.394   6.282   6.564 -0.4918 -0.3662  0.7215
40676SOL     OW30805   3.846   0.112   4.706 -0.3354 -0.2493  0.1049
40676SOL    HW130806   3.754   0.100   4.732 -0.1141 -2.8950 -0.0677
40676SOL    HW230807   3.850   0.076   4.617  1.1012 -1.3139  0.5687
40677SOL     OW30808   0.134  12.554  12.368 -0.2737 -0.3964  0.0609
40677SOL    HW130809   0.084  12.487  12.321 -2.5734  0.8649  0.5618
40677SOL    HW230810   0.087  12.635  12.353  0.0570  0.4171  2.7948
40678SOL     OW30811   1.953   4.258   6.667 -0.4839 -0.1101 -0.2516
40678SOL    HW130812   1.962   4.258   6.571 -0.9489  1.3990 -0.3284
40678SOL    HW230813   2.030   4.305   6.698  0.7036 -2.2884  0.2932
40679SOL     OW30814   6.008   7.272  10.745 -0.1676  0.1835  1.0762
40679SOL    HW130815   6.074   7.212  10.711 -1.8297 -0.8520 -0.5078
40679SOL    HW230816   5.976   7.230  10.824  0.4093  0.2475  1.3515
40680SOL     OW30817   4.949   5.595  12.486  0.0965 -0.2138 -0.3835
40680SOL    HW130818   4.984   5.519  12.440  0.5198 -0.1018 -0.2463
40680SOL    HW230819   4.996   5.670  12.448  0.8521 -0.1637  0.6107
40681SOL     OW30820  10.545   4.192   0.849 -1.0570  0.1787 -0.1239
40681SOL    HW130821  10.473   4.244   0.815 -1.7503  0.9170  2.2468
40681SOL    HW230822  10.566   4.130   0.779 -3.5333  0.3937 -1.1419
40682SOL     OW30823   5.358   7.875   5.772 -0.2768 -0.1041 -0.6717
40682SOL    HW130824   5.354   7.956   5.823 -0.3891 -0.4967 -0.0530
40682SOL    HW230825   5.274   7.832   5.789 -0.6826  0.1636 -1.8725
40683SOL     OW30826   5.432   5.692   2.236  0.3938  0.4181  0.0354
40683SOL    HW130827   5.493   5.642   2.181  0.7892  2.6674 -1.6744
40683SOL    HW230828   5.470   5.779   2.241 -1.0540  1.0062  1.6895
40684SOL     OW30829   6.681   2.028   5.445  0.1000  0.1022  0.3459
40684SOL    HW130830   6.618   2.070   5.504 -1.3802 -0.5567 -0.6891
40684SOL    HW230831   6.737   2.099   5.414  0.1098  0.6475  1.5627
40685SOL     OW30832   8.417   2.950  11.964  0.3436  0.7659 -0.3672
40685SOL    HW130833   8.393   2.860  11.987  0.9178  0.4292 -1.0335
40685SOL    HW230834   8.365   2.969  11.887  0.6798  0.7775 -0.5933
40686SOL     OW30835   4.876   4.431   1.384  0.4820  0.0126  0.2234
40686SOL    HW130836   4.816   4.394   1.319 -1.6336  1.0790  1.4591
40686SOL    HW230837   4.953   4.457   1.334 -0.2434 -0.9990 -1.5151
40687SOL     OW30838   1.883   7.052  11.071 -0.1225 -0.3506 -0.7129
40687SOL    HW130839   1.789   7.054  11.058 -0.2223 -0.9925 -0.1808
40687SOL    HW230840   1.897   6.977  11.130  0.7045 -0.2121 -0.7225
40688SOL     OW30841  11.837   5.223   2.606  0.5044  0.0998 -0.2957
40688SOL    HW130842  11.911   5.246   2.662  0.5347 -2.3975  0.7829
40688SOL    HW230843  11.877   5.192   2.525  0.8506 -3.0149  0.9417
40689SOL     OW30844  11.384   1.565   5.634 -0.0964  0.1685  0.0110
40689SOL    HW130845  11.370   1.560   5.539  1.3747  0.3285 -0.2482
40689SOL    HW230846  11.342   1.487   5.669  0.8979 -0.8635 -1.0081
40690SOL     OW30847   7.701   5.404   1.901 -0.1396 -0.0627 -0.0163
40690SOL    HW130848   7.760   5.369   1.834 -2.0470 -1.2696 -1.1844
40690SOL    HW230849   7.652   5.327   1.931 -0.4476  0.7386  1.6158
40691SOL     OW30850   2.617   4.831   4.394 -0.4810 -0.2716 -0.8357
40691SOL    HW130851   2.667   4.832   4.312  1.7593 -0.7650  0.4274
40691SOL    HW230852   2.527   4.814   4.367  0.2917 -1.1221 -3.1454
40692SOL     OW30853   2.130   5.352   2.203 -0.4694  0.3442 -0.1706
40692SOL    HW130854   2.075   5.280   2.172  0.6595 -0.8305  0.4913
40692SOL    HW230855   2.073   5.401   2.263 -0.6712 -1.1815  0.9561
40693SOL     OW30856   6.112   0.372  11.520  0.5453  0.2080 -0.6377
40693SOL    HW130857   6.031   0.416  11.545  0.7737  1.3963 -1.8285
40693SOL    HW230858   6.181   0.434  11.543  1.1362 -0.7945  0.3718
40694SOL     OW30859   4.109   6.054   0.832  0.3914  0.0108 -0.2178
40694SOL    HW130860   4.198   6.029   0.806  0.4317  2.6584 -3.0553
40694SOL    HW230861   4.120   6.099   0.916  1.7076  0.3097 -0.5404
40695SOL     OW30862  10.887   5.872   8.080 -0.2266 -0.8279 -0.0398
40695SOL    HW130863  10.839   5.954   8.085 -0.7601 -1.1939  2.0895
40695SOL    HW230864  10.977   5.898   8.061 -0.5960  0.1371 -0.5300
40696SOL     OW30865   3.233  12.024   8.964 -0.3291 -0.0067  0.6748
40696SOL    HW130866   3.247  11.930   8.969  0.5127  0.1705  2.6766
40696SOL    HW230867   3.159  12.041   9.023 -1.0573  0.5019 -0.3505
40697SOL     OW30868  10.675   8.492   1.131  0.1315  0.1222  0.1863
40697SOL    HW130869  10.692   8.586   1.138  1.0363  0.0032 -0.2028
40697SOL    HW230870  10.744   8.452   1.184 -0.9193 -0.2926  1.2698
40698SOL     OW30871   1.651  11.538  11.362  0.4648  0.2177  0.2439
40698SOL    HW130872   1.727  11.596  11.349  1.6777 -1.2920  0.3177
40698SOL    HW230873   1.663  11.470  11.296 -2.7230  1.7272 -2.1373
40699SOL     OW30874  11.591   6.410   5.527 -0.0814 -0.1748  0.0800
40699SOL    HW130875  11.671   6.423   5.577 -0.2560  2.0887 -0.0921
40699SOL    HW230876  11.619   6.413   5.436 -0.3049  0.2758  0.0226
40700SOL     OW30877  11.619   7.441   5.713 -0.4382  0.9313 -0.1802
40700SOL    HW130878  11.526   7.421   5.721 -0.6633  1.9287 -0.2127
40700SOL    HW230879  11.647   7.394   5.634 -0.5950 -0.4273  0.5305
40701SOL     OW30880   5.467   2.465   9.606  0.0743  0.1560  0.1231
40701SOL    HW130881   5.421   2.382   9.620  1.8622 -0.8625  0.3185
40701SOL    HW230882   5.401   2.532   9.622 -1.9475 -1.1965 -1.8762
40702SOL     OW30883   8.866   5.759   6.124 -0.0299 -0.2223 -0.2931
40702SOL    HW130884   8.937   5.695   6.123 -0.6142 -0.8701 -0.5950
40702SOL    HW230885   8.880   5.812   6.046 -0.4476 -0.9894 -0.9030
40703SOL     OW30886   7.741   3.719   7.718 -1.0555 -0.3222  0.2775
40703SOL    HW130887   7.743   3.783   7.790  2.4794  1.7161 -1.3502
40703SOL    HW230888   7.823   3.671   7.726 -0.6808 -0.2354 -2.1199
40704SOL     OW30889   8.317   7.442   2.231  0.9716  0.3857  0.4112
40704SOL    HW130890   8.349   7.526   2.263  0.4879  0.9708 -0.6153
40704SOL    HW230891   8.384   7.379   2.259  1.6600  1.2009  0.6296
40705SOL     OW30892   5.401   7.188   7.754  0.0931 -0.0839  0.2275
40705SOL    HW130893   5.428   7.269   7.712 -1.1805  0.6203  0.7261
40705SOL    HW230894   5.340   7.147   7.692  0.0322 -0.2069  0.3659
40706SOL     OW30895   5.644   7.740   4.401 -0.2102  0.4005  0.4800
40706SOL    HW130896   5.717   7.687   4.371 -1.0417 -0.5151  0.0363
40706SOL    HW230897   5.632   7.806   4.332 -0.9186 -0.5415 -0.3205
40707SOL     OW30898   3.553  10.022   8.099  0.0151 -0.2307 -0.1446
40707SOL    HW130899   3.508   9.942   8.073 -1.5576  0.3283  0.7205
40707SOL    HW230900   3.511  10.091   8.048 -1.7830  0.6064  2.2575
40708SOL     OW30901  10.336   5.447   4.043  0.1738  0.3336 -0.8581
40708SOL    HW130902  10.379   5.426   4.126  1.5576  0.5441 -1.4828
40708SOL    HW230903  10.316   5.540   4.049  0.6232  0.4371 -0.8959
40709SOL     OW30904  12.195   1.150   8.441 -0.1075  0.0633  0.1552
40709SOL    HW130905  12.253   1.086   8.481  0.7914 -0.6493 -2.1342
40709SOL    HW230906  12.233   1.235   8.463  1.1280 -0.3602 -0.2754
40710SOL     OW30907   3.412   3.427   8.096  0.1541 -0.5343 -0.5494
40710SOL    HW130908   3.424   3.511   8.141 -1.0217  0.1736 -1.4744
40710SOL    HW230909   3.501   3.395   8.079  0.6509  0.9757 -0.9591
40711SOL     OW30910   1.127  11.868   4.885  0.1638 -0.2655 -0.4410
40711SOL    HW130911   1.188  11.852   4.957 -1.0901 -2.2315  0.2552
40711SOL    HW230912   1.182  11.876   4.808  1.6296  2.7210  0.7277
40712SOL     OW30913   4.691  11.590   2.494  0.1127  0.2237  0.5589
40712SOL    HW130914   4.725  11.503   2.475  0.8975  0.3187  1.4403
40712SOL    HW230915   4.766  11.648   2.482 -0.7124  0.9739 -1.2917
40713SOL     OW30916   3.194   2.524   7.424  0.4394  0.1758  0.0444
40713SOL    HW130917   3.151   2.595   7.472  2.0266  0.9262  0.4238
40713SOL    HW230918   3.227   2.466   7.493  0.7365  0.0359 -0.2173
40714SOL     OW30919  11.064  11.619   1.813  0.1827  0.1877  0.4482
40714SOL    HW130920  11.145  11.663   1.788 -0.6492  0.7255 -1.4531
40714SOL    HW230921  11.019  11.602   1.731 -2.7155  1.9805  1.4944
40715SOL     OW30922   1.836   2.128   6.025 -0.1941 -0.6295  0.4507
40715SOL    HW130923   1.837   2.125   5.930 -3.1724 -0.8055  0.3237
40715SOL    HW230924   1.889   2.053   6.052  0.5864 -0.6543 -1.0498
40716SOL     OW30925   5.464   4.534   8.769 -0.3800 -0.1334 -0.0137
40716SOL    HW130926   5.475   4.465   8.834 -0.6356 -0.3043 -0.1474
40716SOL    HW230927   5.553   4.554   8.739 -0.1791  0.5386  0.9873
40717SOL     OW30928   1.453   2.175  12.100 -0.2766 -0.3727 -0.1613
40717SOL    HW130929   1.405   2.252  12.070  1.8979  0.7228 -1.1010
40717SOL    HW230930   1.432   2.168  12.193 -1.7939  0.3427 -0.4121
40718SOL     OW30931   1.162   2.878   1.556  0.3778  0.6015  0.2087
40718SOL    HW130932   1.191   2.880   1.465 -0.0969 -0.4790  0.0145
40718SOL    HW230933   1.145   2.969   1.578  0.3052  0.8592 -0.8543
40719SOL     OW30934   4.212   0.670   1.067  0.3114 -0.3253 -0.1912
40719SOL    HW130935   4.140   0.637   1.013 -0.0690  1.0795 -0.5867
40719SOL    HW230936   4.204   0.766   1.062  1.4580 -0.1550  0.7709
40720SOL     OW30937  12.533   7.430   5.596 -0.0562  0.0417  0.1098
40720SOL    HW130938  12.475   7.386   5.659 -0.2536  0.1353 -0.0052
40720SOL    HW230939  12.489   7.419   5.511 -1.1214  2.1319  0.3303
40721SOL     OW30940   8.398   1.535   1.982  0.0410  0.1628 -0.3617
40721SOL    HW130941   8.303   1.545   1.990 -0.1979 -0.8388 -1.5785
40721SOL    HW230942   8.412   1.515   1.889  1.3544 -0.6118 -0.0167
40722SOL     OW30943   4.507   5.185  11.319  0.1183  0.5506 -0.1791
40722SOL    HW130944   4.569   5.117  11.346 -0.0848 -0.0327 -1.1243
40722SOL    HW230945   4.552   5.267  11.338 -0.4330  0.2521  2.8939
40723SOL     OW30946   5.208   9.556   8.652  0.4747 -0.4278  0.2912
40723SOL    HW130947   5.209   9.605   8.735  1.1343 -0.9241  0.5826
40723SOL    HW230948   5.223   9.623   8.585  1.7971 -0.2769  0.7161
40724SOL     OW30949   4.665   9.188   7.153  0.1945  0.7648  0.4271
40724SOL    HW130950   4.696   9.121   7.092 -1.8258  0.7513 -0.7015
40724SOL    HW230951   4.718   9.265   7.134  2.0573 -0.2600  1.2385
40725SOL     OW30952   3.166   4.981   8.686 -0.5188  0.5726  0.3538
40725SOL    HW130953   3.156   5.031   8.605 -1.3063 -0.1186  0.0080
40725SOL    HW230954   3.082   4.992   8.731  0.5825  2.7040  2.1391
40726SOL     OW30955   2.107   4.493   8.263  0.0080  0.2942  0.3277
40726SOL    HW130956   2.038   4.440   8.304 -0.1144  0.4130  0.2740
40726SOL    HW230957   2.148   4.434   8.200  0.0464  0.1800  0.4593
40727SOL     OW30958   0.951   4.859   0.766 -0.9258 -0.1257  0.2136
40727SOL    HW130959   0.906   4.811   0.696 -3.3958  2.0775  0.1126
40727SOL    HW230960   1.001   4.926   0.721 -1.3702  0.3894  0.4658
40728SOL     OW30961   5.955   8.300  12.275  0.4190 -0.4726  0.0896
40728SOL    HW130962   5.909   8.225  12.313  1.2632 -0.8164  0.4861
40728SOL    HW230963   6.001   8.263  12.199 -2.1023  0.4193 -1.9962
40729SOL     OW30964  11.686   4.275   9.632  0.3624  0.6692 -0.5033
40729SOL    HW130965  11.650   4.189   9.654 -2.3415  2.1950  1.8818
40729SOL    HW230966  11.670   4.284   9.538 -0.6638 -0.8655 -0.5234
40730SOL     OW30967   2.092   3.305   6.244 -0.1534  0.1719  0.1218
40730SOL    HW130968   2.013   3.351   6.215 -1.0187  0.3303  2.5160
40730SOL    HW230969   2.079   3.215   6.216 -1.1105  0.2250  0.3565
40731SOL     OW30970   4.052   3.862   1.918 -0.3692  0.1455  0.0627
40731SOL    HW130971   4.110   3.845   1.993 -1.6045 -1.2516  0.7728
40731SOL    HW230972   4.104   3.837   1.842  1.1599  2.2377  0.3270
40732SOL     OW30973  11.920   3.009   2.690 -0.7156  0.5210 -0.4753
40732SOL    HW130974  11.855   3.072   2.721 -1.0940  0.6342 -1.4945
40732SOL    HW230975  11.935   2.951   2.766 -4.1913 -1.3630 -1.0510
40733SOL     OW30976   7.096   1.851   5.478  0.0928  0.1221 -0.2022
40733SOL    HW130977   7.042   1.775   5.460  0.6533 -0.0389 -1.2272
40733SOL    HW230978   7.119   1.887   5.392 -0.3533  1.5898  0.2518
40734SOL     OW30979   8.023   4.943   1.555 -0.4699 -0.0200  0.1693
40734SOL    HW130980   7.957   5.008   1.529 -0.0174  0.3986  0.0435
40734SOL    HW230981   8.097   4.960   1.497  0.3096  0.4892  1.2548
40735SOL     OW30982   5.321   4.171   9.621 -0.1085 -0.3986  0.3723
40735SOL    HW130983   5.297   4.162   9.529  2.8120  1.5000 -0.7159
40735SOL    HW230984   5.405   4.125   9.629 -0.5972 -1.0468  2.2572
40736SOL     OW30985   8.656  11.095  11.043 -0.5582 -0.3222 -0.3301
40736SOL    HW130986   8.657  11.002  11.068  1.7820  0.0178  1.1854
40736SOL    HW230987   8.727  11.134  11.094 -0.8265  2.1237 -1.6832
40737SOL     OW30988   5.610   5.460   0.101 -0.6553 -0.1190  0.2638
40737SOL    HW130989   5.534   5.419   0.059 -0.8845  0.4638  0.0931
40737SOL    HW230990   5.668   5.483   0.029  0.2690 -1.6763  0.4790
40738SOL     OW30991   3.216   8.040   4.735  0.2559 -0.1053 -0.2919
40738SOL    HW130992   3.203   8.042   4.640  1.8036  0.1826 -0.5227
40738SOL    HW230993   3.129   8.057   4.771 -0.5251 -1.0263 -1.6333
40739SOL     OW30994  11.078   6.664   1.810  0.3790 -0.3230 -0.0697
40739SOL    HW130995  11.049   6.630   1.894 -0.7128  0.0594 -0.2773
40739SOL    HW230996  11.045   6.754   1.808 -0.1019 -0.5090 -1.1366
40740SOL     OW30997   0.424   2.817   9.652  0.5670 -0.3960  0.3755
40740SOL    HW130998   0.493   2.825   9.586  0.2276  0.0246  0.0604
40740SOL    HW230999   0.465   2.771   9.725  1.1318 -0.3015  0.1227
40741SOL     OW31000   1.147   0.909   7.088  0.4345 -0.0661  0.2823
40741SOL    HW131001   1.132   0.849   7.015  2.5411 -0.1506 -0.1335
40741SOL    HW231002   1.059   0.926   7.123 -0.4689 -1.2629 -1.2610
40742SOL     OW31003  11.663   6.425   4.336  0.4975  0.5250 -0.0599
40742SOL    HW131004  11.621   6.507   4.310 -2.3906 -0.7404  0.2962
40742SOL    HW231005  11.678   6.379   4.253 -0.2599  0.3347 -0.0930
40743SOL     OW31006   6.978   6.589   4.437 -0.0436 -0.0359 -0.3028
40743SOL    HW131007   6.981   6.494   4.431  0.2131  0.0253 -1.4168
40743SOL    HW231008   7.036   6.610   4.511  1.7771 -0.6515 -1.4719
40744SOL     OW31009   2.448   5.890   0.133 -0.4232 -0.2612  0.0759
40744SOL    HW131010   2.353   5.899   0.143 -0.7992 -1.8860 -1.5181
40744SOL    HW231011   2.465   5.913   0.042  0.3042 -2.3539 -0.3878
40745SOL     OW31012  12.072   5.648   1.684  0.0838  0.3531  0.4454
40745SOL    HW131013  12.116   5.714   1.631  1.0963 -1.0885 -0.6051
40745SOL    HW231014  11.980   5.674   1.683  0.6903  2.8617  1.8126
40746SOL     OW31015   1.174   1.513   9.537  0.1078  0.6377 -0.1244
40746SOL    HW131016   1.156   1.543   9.626  0.1370  1.9263 -0.5369
40746SOL    HW231017   1.096   1.462   9.513 -0.2022  0.8642  0.3959
40747SOL     OW31018   2.594   3.052   8.704  0.0082  0.6320  0.2397
40747SOL    HW131019   2.506   3.077   8.732 -0.2513 -0.3803  0.3725
40747SOL    HW231020   2.609   2.968   8.748  0.3950 -0.0061 -1.0829
40748SOL     OW31021   7.040   9.923  11.701  0.3540 -0.2176  0.1069
40748SOL    HW131022   6.983   9.992  11.666  1.7736  1.2674  0.5969
40748SOL    HW231023   7.083   9.887  11.624 -0.7638 -0.9457 -0.2051
40749SOL     OW31024   6.494   4.503   8.564  0.4536 -0.5478  0.3545
40749SOL    HW131025   6.411   4.507   8.515  0.7053 -1.1600 -0.1295
40749SOL    HW231026   6.503   4.591   8.601 -0.1703 -0.3257  0.0078
40750SOL     OW31027   9.533   0.498  11.070  0.3651 -0.3609  0.5321
40750SOL    HW131028   9.538   0.517  10.977  0.2808  1.5233  0.8852
40750SOL    HW231029   9.449   0.535  11.098  0.4715 -0.7344  1.3919
40751SOL     OW31030   3.760   8.072   0.730  0.0071  0.1787 -0.0260
40751SOL    HW131031   3.807   8.155   0.734  2.1358 -0.9875  0.9458
40751SOL    HW231032   3.722   8.061   0.817  2.0099 -1.0254  0.7741
40752SOL     OW31033   3.696   7.324   6.456  0.0252 -0.2563  0.1214
40752SOL    HW131034   3.697   7.372   6.372 -0.8462  2.4116  1.5180
40752SOL    HW231035   3.605   7.299   6.469 -0.3828  1.7049  1.4381
40753SOL     OW31036  11.093  11.057  11.070 -0.0460 -0.2181 -0.2290
40753SOL    HW131037  11.135  11.046  10.984 -1.3014  3.0376 -1.3961
40753SOL    HW231038  11.060  10.969  11.091  1.1308 -1.3337 -2.5722
40754SOL     OW31039   6.786   2.154   3.984  0.2113 -0.4185  0.2336
40754SOL    HW131040   6.807   2.060   3.979  1.4543 -0.1674  0.2534
40754SOL    HW231041   6.805   2.187   3.897 -0.4626 -0.2267  0.1610
40755SOL     OW31042   5.937   6.845   9.794 -0.4339 -0.1098  0.0028
40755SOL    HW131043   5.965   6.918   9.739 -0.2069  0.2269  0.5593
40755SOL    HW231044   5.882   6.791   9.736  1.6423 -1.0093 -1.2527
40756SOL     OW31045   1.995  10.933   0.765 -0.0466  0.3832 -0.1625
40756SOL    HW131046   2.051  10.957   0.840 -0.4389  1.5566 -0.2288
40756SOL    HW231047   1.906  10.937   0.800 -0.1644 -3.8533  0.6463
40757SOL     OW31048   1.043   4.562   9.811  0.2928 -0.1460 -0.2597
40757SOL    HW131049   0.994   4.568   9.729  0.0137  1.9728 -0.0060
40757SOL    HW231050   1.054   4.653   9.839  3.0100 -0.6273  0.5342
40758SOL     OW31051   5.815   0.855  12.354 -0.0131 -0.8085  0.3148
40758SOL    HW131052   5.725   0.886  12.362  0.1936 -0.1496  0.1000
40758SOL    HW231053   5.806   0.761  12.337 -0.7343 -0.4221 -1.7184
40759SOL     OW31054   7.145   9.204   3.425  0.0862 -0.8374 -0.1553
40759SOL    HW131055   7.237   9.186   3.447  0.5897  1.3284 -0.2452
40759SOL    HW231056   7.116   9.265   3.493 -1.1406 -1.0942 -0.4232
40760SOL     OW31057   5.969  12.334  12.446 -0.4271 -0.6355  0.1838
40760SOL    HW131058   5.882  12.294  12.444 -1.8423  2.1233 -2.6078
40760SOL    HW231059   5.957  12.415  12.497  0.6857 -0.5334  0.3117
40761SOL     OW31060   1.782   8.157   5.337 -0.2911  0.8105 -0.2181
40761SOL    HW131061   1.788   8.067   5.307 -2.3704  1.1027 -1.7519
40761SOL    HW231062   1.728   8.153   5.416  1.0674  0.5727  0.7337
40762SOL     OW31063   6.727   4.969   1.083 -0.0099  0.1973 -0.5595
40762SOL    HW131064   6.690   4.916   1.013 -0.2056  0.3113 -0.5422
40762SOL    HW231065   6.673   5.048   1.085 -2.6499 -1.4528  2.3679
40763SOL     OW31066   7.137   8.862   1.532 -0.0968  0.0449 -0.1207
40763SOL    HW131067   7.229   8.837   1.529 -0.1434 -0.3203  1.0290
40763SOL    HW231068   7.092   8.782   1.558 -0.5641  0.5974  0.8256
40764SOL     OW31069   4.107   0.793   2.600  0.2677  0.3971  0.0575
40764SOL    HW131070   4.089   0.884   2.625  1.9742  0.8105 -0.0356
40764SOL    HW231071   4.201   0.784   2.614  0.3567 -0.9577 -1.2059
40765SOL     OW31072  11.036   1.649   5.543 -0.3392 -0.0236 -0.3561
40765SOL    HW131073  11.110   1.622   5.489  0.3644 -0.5689  0.8462
40765SOL    HW231074  11.076   1.703   5.611 -1.0831 -0.1651  0.1905
40766SOL     OW31075   9.609   4.577   4.630  0.3214  0.1109 -0.2026
40766SOL    HW131076   9.697   4.558   4.662 -0.0820  0.2554  1.0484
40766SOL    HW231077   9.574   4.493   4.602 -0.5546 -0.7411  3.0170
40767SOL     OW31078   5.401   0.179   3.465 -0.1442  0.2177 -0.5430
40767SOL    HW131079   5.474   0.209   3.411  0.7505 -1.9809 -0.6622
40767SOL    HW231080   5.442   0.135   3.539 -1.3658 -0.1183 -0.0362
40768SOL     OW31081   4.783   8.608   0.536  0.1619  0.0465  0.1186
40768SOL    HW131082   4.860   8.650   0.574 -0.9062  1.1402  1.2049
40768SOL    HW231083   4.788   8.628   0.442  1.0725  0.2967  0.2129
40769SOL     OW31084   2.077  11.951   7.569  0.3498  0.3383 -0.0946
40769SOL    HW131085   2.171  11.969   7.567  0.1901  1.2508 -0.1978
40769SOL    HW231086   2.070  11.859   7.593  1.2167  0.8813  2.4913
40770SOL     OW31087   6.053   6.533   0.210 -0.1898  0.0633 -0.2225
40770SOL    HW131088   6.008   6.617   0.209 -0.4494 -0.0653  0.3399
40770SOL    HW231089   6.030   6.492   0.126 -0.9515  0.0875 -0.0247
40771SOL     OW31090   9.531  11.972   3.891 -0.2767 -0.5202  1.0985
40771SOL    HW131091   9.573  11.965   3.976  0.6976 -0.4989  0.6425
40771SOL    HW231092   9.521  11.882   3.861  2.5589 -0.5086 -0.2166
40772SOL     OW31093   4.146   6.878   8.038 -0.2038 -0.3872  0.9309
40772SOL    HW131094   4.202   6.897   8.113 -0.7871 -1.4497  1.6579
40772SOL    HW231095   4.192   6.916   7.963 -0.3934  2.2100  1.9989
40773SOL     OW31096   2.364   0.704   6.560 -0.1567  0.2972  0.6740
40773SOL    HW131097   2.389   0.790   6.526  2.1668  0.5813  2.8331
40773SOL    HW231098   2.440   0.648   6.542 -0.7003 -0.6885  1.3374
40774SOL     OW31099  12.004  10.050   4.941  0.2371 -0.2223  0.1037
40774SOL    HW131100  11.916  10.065   4.904  0.8215 -1.3769 -1.9570
40774SOL    HW231101  12.033  10.136   4.970 -1.6586  0.1490  1.1130
40775SOL     OW31102   1.007  10.956   4.980 -0.0929  0.3115  0.8087
40775SOL    HW131103   1.022  10.982   4.889  2.4008 -1.2952  0.6706
40775SOL    HW231104   1.073  11.005   5.030 -2.4293  2.3982  2.0765
40776SOL     OW31105   7.349   4.409   7.691 -0.5949 -0.1796 -0.4570
40776SOL    HW131106   7.421   4.347   7.693 -0.9387 -0.5861 -0.4534
40776SOL    HW231107   7.358   4.455   7.607 -0.4283 -0.3451 -0.5294
40777SOL     OW31108  11.158   8.573   5.698  0.3480 -0.3322 -0.5917
40777SOL    HW131109  11.093   8.599   5.763  0.6511 -1.0742  0.0275
40777SOL    HW231110  11.241   8.607   5.731  0.9932 -3.0283  0.9375
40778SOL     OW31111  11.250   1.240   1.656 -0.6660 -0.1832 -0.0784
40778SOL    HW131112  11.336   1.281   1.642 -0.7884 -0.0183 -0.3480
40778SOL    HW231113  11.270   1.148   1.671 -0.5670 -0.4695 -1.8525
40779SOL     OW31114   9.848   1.764  11.755 -0.7467  0.0696  0.2712
40779SOL    HW131115   9.783   1.821  11.797 -0.8733  0.8333 -0.9265
40779SOL    HW231116   9.917   1.824  11.725  0.3936 -0.6951  1.2544
40780SOL     OW31117  11.735   3.342   9.584  0.5760 -0.4582 -0.2685
40780SOL    HW131118  11.665   3.313   9.526  0.2318 -0.1205 -0.0230
40780SOL    HW231119  11.798   3.384   9.526  0.6447 -0.8866 -0.5079
40781SOL     OW31120   6.582   2.835   0.670  0.2489 -0.1736 -0.4355
40781SOL    HW131121   6.661   2.882   0.697  1.1464 -2.0241  0.2758
40781SOL    HW231122   6.540   2.809   0.752 -2.3557  2.5732 -0.6869
40782SOL     OW31123  11.305   5.523   7.222  0.1987 -0.3834 -0.1344
40782SOL    HW131124  11.266   5.547   7.305  0.1627  2.0303 -0.7812
40782SOL    HW231125  11.246   5.457   7.186 -0.8963  0.0320  0.8394
40783SOL     OW31126   4.675   0.122   0.703  0.0018  0.0025  0.0353
40783SOL    HW131127   4.685   0.072   0.784 -0.0992  1.3238  0.8869
40783SOL    HW231128   4.596   0.174   0.716  0.6852  1.1805 -0.3768
40784SOL     OW31129   4.725   9.136   8.874  0.0051  0.4167  0.5046
40784SOL    HW131130   4.697   9.059   8.825 -1.4201  1.2738 -0.0882
40784SOL    HW231131   4.671   9.134   8.953  1.4968 -0.3417  1.5565
40785SOL     OW31132   7.575   1.531   4.873 -0.3092 -0.4196  0.5985
40785SOL    HW131133   7.623   1.585   4.811  0.4295 -2.1553 -0.4203
40785SOL    HW231134   7.505   1.587   4.905 -0.4243  0.6907 -1.4519
40786SOL     OW31135   0.936   3.555   4.178  0.2271 -0.5381  0.2955
40786SOL    HW131136   0.858   3.500   4.169 -0.8534  0.8983  0.6236
40786SOL    HW231137   0.919   3.608   4.255  0.6421  1.1882 -0.7623
40787SOL     OW31138   1.431  11.535   0.042 -0.0841  0.0647 -0.2382
40787SOL    HW131139   1.483  11.528   0.122  1.6835  1.9397 -1.1178
40787SOL    HW231140   1.474  11.476  -0.020 -0.5413 -0.2631 -0.2458
40788SOL     OW31141   9.580   1.705  12.439  0.3287 -0.7273  0.6913
40788SOL    HW131142   9.674   1.689  12.438  0.5889  0.6413 -0.6294
40788SOL    HW231143   9.550   1.679  12.351 -0.5352 -1.1375  1.0893
40789SOL     OW31144  12.464   7.345   0.783  0.4284  0.0225  0.2152
40789SOL    HW131145  12.383   7.336   0.834  2.0302 -0.5236  2.8538
40789SOL    HW231146  12.491   7.255   0.765  0.8144  0.1863 -0.0386
40790SOL     OW31147   1.316   0.820   0.344  0.4689 -0.3385  0.0267
40790SOL    HW131148   1.323   0.755   0.274  0.4720 -0.7920  0.4439
40790SOL    HW231149   1.256   0.886   0.310 -0.1454 -0.9534 -0.1045
40791SOL     OW31150  12.439  11.444   1.277  0.4489  0.1971  0.9142
40791SOL    HW131151  12.496  11.372   1.305 -0.0761 -0.0524  1.3414
40791SOL    HW231152  12.350  11.409   1.284  0.2486  0.4723 -0.0755
40792SOL     OW31153   7.698   7.621  10.567 -0.1276 -0.0706  0.8164
40792SOL    HW131154   7.632   7.682  10.535 -0.8933 -1.7713 -1.0695
40792SOL    HW231155   7.689   7.624  10.663 -0.3163  2.4947  0.7797
40793SOL     OW31156   6.750   8.196   8.825 -0.1422 -0.1443  0.4797
40793SOL    HW131157   6.715   8.283   8.844 -0.3044 -0.2992  0.9015
40793SOL    HW231158   6.845   8.206   8.836 -0.3214 -0.5975  2.9933
40794SOL     OW31159   4.161   2.524  11.656 -0.3718 -0.4966  0.0846
40794SOL    HW131160   4.150   2.506  11.749 -1.0617 -1.2631 -0.1296
40794SOL    HW231161   4.143   2.618  11.648  0.8885 -0.1654  0.8807
40795SOL     OW31162   3.622  10.382   8.833  0.5695 -0.3640  0.0447
40795SOL    HW131163   3.706  10.425   8.850 -0.5409  1.7868  0.4295
40795SOL    HW231164   3.629  10.297   8.878  1.8551  0.5416  1.6824
40796SOL     OW31165   9.977   4.288   2.140 -0.0323 -0.4657  0.4421
40796SOL    HW131166  10.015   4.287   2.228 -0.7966  0.9360  0.8131
40796SOL    HW231167   9.888   4.321   2.152 -0.4841 -1.1713 -0.7483
40797SOL     OW31168   1.740   9.328   0.649 -0.1373 -0.0219 -0.3536
40797SOL    HW131169   1.702   9.351   0.564  0.2928 -1.2365 -0.9016
40797SOL    HW231170   1.682   9.261   0.684  2.0431 -2.9461 -1.8259
40798SOL     OW31171   6.695   1.284   3.596  0.0474 -0.0140  0.1397
40798SOL    HW131172   6.732   1.199   3.573  1.4798  0.4798  0.4705
40798SOL    HW231173   6.714   1.339   3.520 -1.8533 -0.2235 -0.5484
40799SOL     OW31174   7.950   2.293   7.846 -0.7045 -0.1114 -0.2721
40799SOL    HW131175   8.030   2.346   7.847  0.1106 -1.3018  0.6035
40799SOL    HW231176   7.963   2.232   7.774 -0.1822 -1.1767  0.6777
40800SOL     OW31177   1.531   0.620   2.337 -0.1002 -0.5628  0.3983
40800SOL    HW131178   1.541   0.713   2.358 -0.1277 -0.4065 -0.2568
40800SOL    HW231179   1.444   0.597   2.371  0.3103 -0.6077  1.4492
40801SOL     OW31180   5.978   7.509   9.488 -0.0950 -0.5729 -0.0509
40801SOL    HW131181   6.047   7.444   9.502  0.0633 -0.5781 -0.8124
40801SOL    HW231182   6.022   7.593   9.494 -0.3012 -0.5143  0.9435
40802SOL     OW31183   2.422   6.543   7.800 -0.1631 -0.2762 -0.0816
40802SOL    HW131184   2.465   6.474   7.750  0.2413  0.7511 -1.1843
40802SOL    HW231185   2.468   6.543   7.884  1.4074  0.1861 -0.9117
40803SOL     OW31186   4.200   1.905   4.513 -0.0934  0.2035 -0.4884
40803SOL    HW131187   4.170   1.985   4.556  1.4240  0.3788  0.3107
40803SOL    HW231188   4.137   1.838   4.539 -0.8746  0.9473 -0.4442
40804SOL     OW31189   2.362   3.671   2.337  0.2306  0.2022 -0.0023
40804SOL    HW131190   2.336   3.759   2.313 -0.0938  0.2494  0.5243
40804SOL    HW231191   2.404   3.680   2.422  0.0187 -0.1776  0.1446
40805SOL     OW31192   2.662   9.359   3.575 -0.2343 -0.3574  0.1605
40805SOL    HW131193   2.709   9.283   3.610 -1.4363 -1.1577  0.1038
40805SOL    HW231194   2.663   9.345   3.480  1.1507  0.6929 -0.0164
40806SOL     OW31195  10.403   2.205  10.896  0.1084 -0.0597 -0.0434
40806SOL    HW131196  10.374   2.259  10.970  3.0326  2.5865 -0.6179
40806SOL    HW231197  10.354   2.238  10.821 -0.3935 -0.4175  0.1208
40807SOL     OW31198   8.770   5.701  12.207 -0.0780  0.7975  0.3975
40807SOL    HW131199   8.700   5.737  12.153 -0.7693  0.7013  1.2045
40807SOL    HW231200   8.735   5.704  12.296 -0.1804 -1.8287  0.5354
40808SOL     OW31201   8.982   1.982  10.697  0.2437  0.2220 -0.9822
40808SOL    HW131202   8.908   2.022  10.743  0.0366 -0.3827 -0.7719
40808SOL    HW231203   9.043   2.054  10.681 -0.4104  0.7394 -1.1994
40809SOL     OW31204   9.163   0.526   5.040 -0.0943 -0.2006  0.0339
40809SOL    HW131205   9.223   0.455   5.063 -1.0226 -0.7155  0.9468
40809SOL    HW231206   9.076   0.486   5.044 -0.7327  1.2687  1.7557
40810SOL     OW31207   4.616   5.399   9.671 -0.8188 -0.0479  0.2362
40810SOL    HW131208   4.648   5.488   9.687 -1.3220 -0.1543  1.9727
40810SOL    HW231209   4.522   5.410   9.658 -0.9011 -0.3518  0.5927
40811SOL     OW31210   7.719   2.980  12.072  0.5244 -0.1241 -0.0251
40811SOL    HW131211   7.721   2.885  12.056  0.4818 -0.2560  0.7359
40811SOL    HW231212   7.673   3.016  11.996 -1.1644 -0.9071  0.5984
40812SOL     OW31213   3.218   1.004   5.770 -0.0568 -0.3142  0.0366
40812SOL    HW131214   3.273   0.927   5.785 -0.8600 -0.6168  1.6300
40812SOL    HW231215   3.197   1.000   5.676  0.8320 -1.3985 -0.1453
40813SOL     OW31216   3.598   1.675   5.213  0.1557 -0.4638  0.0268
40813SOL    HW131217   3.603   1.611   5.142 -1.3378  0.1052 -0.6345
40813SOL    HW231218   3.614   1.759   5.170 -2.6927  0.1252 -0.0962
40814SOL     OW31219   4.517   6.791   7.658  0.2310  0.3939  0.2927
40814SOL    HW131220   4.513   6.695   7.650  1.7376  0.3775 -0.6394
40814SOL    HW231221   4.476   6.823   7.578  0.6714  0.5100  0.1136
40815SOL     OW31222   7.037   4.121   6.495  0.0917  0.0388  0.0215
40815SOL    HW131223   7.040   4.026   6.489 -2.2673 -0.0692 -0.3886
40815SOL    HW231224   7.122   4.146   6.532  1.2639 -2.0946 -1.0890
40816SOL     OW31225   7.857   0.731   1.692 -0.3402  0.2037 -0.2815
40816SOL    HW131226   7.798   0.695   1.625  0.4562 -1.5076 -0.1120
40816SOL    HW231227   7.921   0.781   1.642  0.2086 -1.0086 -0.8483
40817SOL     OW31228   3.205   6.598  12.455  0.0036 -0.3253 -0.1209
40817SOL    HW131229   3.269   6.638  12.397  0.4747 -1.9317 -0.7736
40817SOL    HW231230   3.125   6.593  12.404  0.4380 -1.8066 -0.7291
40818SOL     OW31231   4.042   1.826   6.239  0.0379  0.0686  0.3587
40818SOL    HW131232   3.963   1.816   6.187  1.6522 -0.3389 -2.1582
40818SOL    HW231233   4.072   1.736   6.255  1.7869  0.1774 -1.7646
40819SOL     OW31234   0.304   9.157   9.866 -0.5861  0.7914 -0.1969
40819SOL    HW131235   0.268   9.124   9.784 -0.0729  0.2133 -0.1949
40819SOL    HW231236   0.344   9.081   9.908 -1.4471  0.9274  0.9332
40820SOL     OW31237   8.533   5.758  11.936  0.7320  0.0333  0.2865
40820SOL    HW131238   8.507   5.805  12.015 -0.6041  0.0672 -0.1445
40820SOL    HW231239   8.609   5.806  11.903 -0.5616  1.8860 -0.1106
40821SOL     OW31240   2.746  12.078   9.255  0.0944 -0.3074 -0.2055
40821SOL    HW131241   2.663  12.038   9.228 -0.6463  0.3014  1.0938
40821SOL    HW231242   2.752  12.059   9.348  1.4862 -0.4197 -0.3024
40822SOL     OW31243   1.188   2.606   1.560  0.0576 -0.4903 -0.2240
40822SOL    HW131244   1.170   2.692   1.597 -0.5776 -0.1296 -1.3442
40822SOL    HW231245   1.281   2.591   1.578 -0.3388 -0.5993  2.0343
40823SOL     OW31246   9.128   0.008   2.313 -0.4388  0.1010 -0.0492
40823SOL    HW131247   9.196   0.058   2.357 -0.1342  0.9486 -1.3901
40823SOL    HW231248   9.133   0.038   2.222 -1.0156 -1.5792 -0.6600
40824SOL     OW31249   3.717   8.018   2.445  0.0331 -0.2422  0.2704
40824SOL    HW131250   3.692   7.954   2.378 -3.0572  1.0172  0.0369
40824SOL    HW231251   3.689   8.102   2.409 -0.2902  0.6564  2.4509
40825SOL     OW31252   4.412   0.649   7.942  0.1410 -0.3540  0.1511
40825SOL    HW131253   4.442   0.686   7.859  0.7671 -0.2880  0.3979
40825SOL    HW231254   4.328   0.608   7.922  1.1671 -2.0330 -0.9492
40826SOL     OW31255   6.620   2.652   4.614 -0.4217  0.0580 -0.1883
40826SOL    HW131256   6.527   2.656   4.638 -1.0186  2.4753 -2.4911
40826SOL    HW231257   6.652   2.742   4.625  1.0421 -0.2374 -1.6316
40827SOL     OW31258  12.140   5.162   5.504 -0.3978 -0.2447 -0.3445
40827SOL    HW131259  12.163   5.199   5.589  0.4569 -1.0627 -0.2031
40827SOL    HW231260  12.115   5.238   5.451  0.3382  0.4210  0.2368
40828SOL     OW31261   7.342   0.851   7.016  0.4432  0.2016 -0.3445
40828SOL    HW131262   7.302   0.779   6.966  2.2715  1.0440 -3.2782
40828SOL    HW231263   7.279   0.922   7.011  0.5699  0.2598 -1.5373
40829SOL     OW31264   6.946   2.786   7.472 -0.3160 -0.1866  0.6223
40829SOL    HW131265   7.015   2.763   7.410 -1.0005  0.0805 -0.2661
40829SOL    HW231266   6.988   2.844   7.536  0.4688 -0.7102  0.5839
40830SOL     OW31267   1.318   3.234   8.945  0.8116 -0.1974 -0.0276
40830SOL    HW131268   1.412   3.233   8.966  0.6989  0.3306  0.5363
40830SOL    HW231269   1.289   3.322   8.969  0.1603 -0.3674 -0.1656
40831SOL     OW31270   3.865   7.473   9.307 -0.1106 -0.4611 -0.1653
40831SOL    HW131271   3.881   7.507   9.219 -1.8259  0.8481 -0.0270
40831SOL    HW231272   3.847   7.551   9.360 -1.5996 -1.3843  0.7686
40832SOL     OW31273   3.160   3.610   5.991 -0.1708 -0.1896 -1.0164
40832SOL    HW131274   3.084   3.601   5.934 -0.3660  0.8996 -0.9415
40832SOL    HW231275   3.178   3.704   5.994 -0.1671 -0.2042  0.7115
40833SOL     OW31276   8.552  12.535   0.697  0.2612 -0.5069  0.4800
40833SOL    HW131277   8.603  12.601   0.743  1.3765 -0.3589 -0.9116
40833SOL    HW231278   8.465  12.574   0.688  0.8962  0.8063 -0.3100
40834SOL     OW31279   0.965   0.994   9.330 -0.5722 -0.1667  0.5636
40834SOL    HW131280   0.977   1.085   9.303 -1.3370 -0.1154  0.3971
40834SOL    HW231281   0.870   0.981   9.333 -0.5259 -1.7819 -2.2291
40835SOL     OW31282   7.097   5.400   7.486  0.3342  0.1321 -0.5906
40835SOL    HW131283   7.039   5.362   7.552  1.3579 -0.4506  0.0039
40835SOL    HW231284   7.098   5.493   7.506  0.6034 -0.0324  0.2136
40836SOL     OW31285   1.576   4.146  10.237  0.2060 -0.5677 -0.0836
40836SOL    HW131286   1.539   4.221  10.190  1.7076  0.9751  1.0646
40836SOL    HW231287   1.534   4.070  10.197 -1.5623  0.8730 -1.1459
40837SOL     OW31288   1.955   2.947   8.382  1.1046 -0.0109 -0.0578
40837SOL    HW131289   1.991   2.956   8.470  0.6630  0.1826  0.1086
40837SOL    HW231290   1.956   2.853   8.364  0.7986 -0.0911  0.3292
40838SOL     OW31291   6.616  11.430   3.121  0.0357 -0.1808  0.5148
40838SOL    HW131292   6.704  11.449   3.090  0.5225 -2.6869  0.1904
40838SOL    HW231293   6.629  11.375   3.199 -1.2398 -0.5997  0.4601
40839SOL     OW31294  12.334   3.492   3.551 -0.0832 -0.0330  0.7405
40839SOL    HW131295  12.357   3.584   3.565 -0.5851  0.2319 -0.1261
40839SOL    HW231296  12.239   3.491   3.551 -0.0888 -0.4002 -0.1777
40840SOL     OW31297   2.152   2.266   6.665 -0.1326  0.0985  0.2416
40840SOL    HW131298   2.247   2.262   6.676 -0.3940 -2.0940  2.7237
40840SOL    HW231299   2.124   2.175   6.665 -2.1704  0.6338 -1.8523
40841SOL     OW31300  11.179   1.887   4.553  0.1491 -0.5413  0.6247
40841SOL    HW131301  11.248   1.846   4.500  0.1572 -0.9916  0.9837
40841SOL    HW231302  11.136   1.814   4.598 -0.3669 -0.2348  0.6384
40842SOL     OW31303  10.445   6.831   0.075 -0.0091  0.3461 -0.0431
40842SOL    HW131304  10.513   6.818   0.009 -0.3055  0.9518 -0.4826
40842SOL    HW231305  10.372   6.869   0.026 -0.9127 -0.9030  0.2893
40843SOL     OW31306  11.760   4.591   5.996 -0.9686  0.2706  0.0091
40843SOL    HW131307  11.785   4.657   6.060 -1.1762 -1.1177  1.5851
40843SOL    HW231308  11.665   4.583   6.005 -0.9067 -0.4617  0.0415
40844SOL     OW31309   1.980   2.733   4.183 -0.1220 -0.4168  0.3448
40844SOL    HW131310   1.973   2.748   4.089 -1.0796 -0.4129  0.4147
40844SOL    HW231311   1.913   2.788   4.222 -0.2775 -1.0305  0.9676
40845SOL     OW31312   7.171   6.768   4.025  0.1556 -0.1676  0.5269
40845SOL    HW131313   7.133   6.834   4.083 -2.9770 -1.4057  0.1167
40845SOL    HW231314   7.133   6.685   4.055  0.3487 -1.1542 -1.7413
40846SOL     OW31315   6.296   9.940   4.262  0.0700 -0.4022  0.3719
40846SOL    HW131316   6.271   9.898   4.179 -0.9479  1.5579 -0.3845
40846SOL    HW231317   6.266   9.879   4.330 -2.8307 -0.2776 -0.6226
40847SOL     OW31318   6.750   9.200   6.655 -0.0997 -0.1079 -0.3066
40847SOL    HW131319   6.716   9.289   6.662 -1.0072 -0.5506  1.3659
40847SOL    HW231320   6.840   9.206   6.688 -0.7552 -0.1041  1.5948
40848SOL     OW31321   2.153   3.981   5.791  0.7252  0.1978 -0.3803
40848SOL    HW131322   2.170   4.074   5.773 -0.6483  0.7348  0.8568
40848SOL    HW231323   2.058   3.972   5.779  0.5178 -0.5501  1.5155
40849SOL     OW31324   3.471  11.884   7.124 -0.4582 -0.2461 -0.1704
40849SOL    HW131325   3.518  11.962   7.093 -0.1667  0.7891  2.6152
40849SOL    HW231326   3.538  11.832   7.168 -1.2701 -0.4395  0.8700
40850SOL     OW31327   4.209   4.759   9.377 -0.4503 -0.6525 -0.2103
40850SOL    HW131328   4.148   4.720   9.314 -1.1766 -0.5515  0.4199
40850SOL    HW231329   4.158   4.829   9.419  0.5315  0.3691 -0.6613
40851SOL     OW31330   5.583   4.946   4.454  0.0949  0.2801 -0.5944
40851SOL    HW131331   5.594   5.003   4.378  0.9974  1.1014  0.1225
40851SOL    HW231332   5.490   4.950   4.474  0.1423  1.5222 -0.5641
40852SOL     OW31333   2.193   5.073   4.487 -0.1210 -0.0135 -0.4605
40852SOL    HW131334   2.183   5.001   4.549  0.1434  0.3709  0.0342
40852SOL    HW231335   2.140   5.144   4.524 -1.8574 -0.4941 -1.8396
40853SOL     OW31336  10.995   4.644   9.588 -0.7277 -0.0048 -0.7248
40853SOL    HW131337  10.987   4.655   9.493  0.1074  0.6989 -0.7295
40853SOL    HW231338  11.066   4.581   9.599 -0.0394  0.7765 -0.5642
40854SOL     OW31339   3.890   6.997   8.700 -0.4729  0.0151 -0.3909
40854SOL    HW131340   3.870   7.068   8.640 -0.9105 -0.7456 -1.1687
40854SOL    HW231341   3.903   7.040   8.785 -0.8388  0.9977 -0.8199
40855SOL     OW31342   9.159   8.701  10.067 -0.5113  0.6145 -0.0839
40855SOL    HW131343   9.153   8.769  10.133  1.4765  1.6814 -0.9307
40855SOL    HW231344   9.245   8.661  10.080 -0.4570  0.2329 -1.4120
40856SOL     OW31345  11.097  11.148   2.295 -0.3161  0.5290 -0.3170
40856SOL    HW131346  11.167  11.213   2.305 -1.2452  1.4164  0.7350
40856SOL    HW231347  11.068  11.130   2.384  0.2562 -1.7830 -0.5230
40857SOL     OW31348   8.049   7.411  10.373 -0.1727  0.3920 -0.1961
40857SOL    HW131349   8.144   7.410  10.361  0.0007  0.2583  1.0456
40857SOL    HW231350   8.030   7.497  10.411 -0.6780  0.7813 -1.2926
40858SOL     OW31351   7.713   6.904   0.429 -0.0144 -0.0721 -0.1310
40858SOL    HW131352   7.697   6.887   0.522 -0.6634 -0.6868 -0.3490
40858SOL    HW231353   7.728   6.818   0.391  0.6644  0.2112 -0.5333
40859SOL     OW31354  11.374   4.972   6.900  0.7093 -0.7472  0.2364
40859SOL    HW131355  11.364   4.941   6.810 -0.1036 -0.3119  0.1740
40859SOL    HW231356  11.427   5.051   6.893  0.7306 -0.7690  0.1556
40860SOL     OW31357   1.356   7.672   1.017  0.8770 -0.5248 -0.4115
40860SOL    HW131358   1.355   7.764   1.042  0.3719 -0.8930  0.9984
40860SOL    HW231359   1.264   7.645   1.022  1.1375 -1.3508  0.1896
40861SOL     OW31360   7.299   6.004   2.092 -0.3459  0.4703 -0.1679
40861SOL    HW131361   7.295   5.949   2.170  0.3954 -0.6051 -0.8545
40861SOL    HW231362   7.262   5.949   2.023  0.3824  0.8477 -0.8653
40862SOL     OW31363   8.892   7.340   6.374  0.2781  0.3937  0.1529
40862SOL    HW131364   8.887   7.244   6.374 -0.6950  0.4258 -1.2842
40862SOL    HW231365   8.928   7.362   6.288 -0.9890  1.3709 -0.1464
40863SOL     OW31366   4.129  10.059   5.379  0.1675  0.0408 -0.0378
40863SOL    HW131367   4.216  10.027   5.356  0.3749  0.9450 -0.5842
40863SOL    HW231368   4.073   9.981   5.380  0.8308 -0.4468 -0.4417
40864SOL     OW31369  11.244   9.318   0.516 -0.1840  0.1098  0.1975
40864SOL    HW131370  11.210   9.279   0.435  1.2604 -2.3110  0.6490
40864SOL    HW231371  11.179   9.295   0.582  0.2805 -0.9343  0.3140
40865SOL     OW31372  10.670  12.539   6.292  0.2382  0.4195 -0.1815
40865SOL    HW131373  10.724  12.460   6.296  0.2435  0.4057 -0.4625
40865SOL    HW231374  10.729  12.607   6.260 -0.2144  0.1080 -1.8043
40866SOL     OW31375   7.801   2.133   0.541  0.6853 -0.4040 -0.1566
40866SOL    HW131376   7.879   2.086   0.511  1.5930 -0.9639  2.7606
40866SOL    HW231377   7.755   2.070   0.597 -0.0090  0.9816  0.9102
40867SOL     OW31378   6.480   3.913  12.064 -0.3681  0.1714  0.4037
40867SOL    HW131379   6.494   3.977  12.134  1.7953  0.9947 -0.6886
40867SOL    HW231380   6.447   3.965  11.991  3.5232  0.6198 -1.2387
40868SOL     OW31381   7.804   7.937   4.169 -0.0772  0.1680 -0.5497
40868SOL    HW131382   7.739   7.991   4.124 -0.8375  1.5649  2.0202
40868SOL    HW231383   7.800   7.852   4.124 -4.0036  0.0492 -0.3076
40869SOL     OW31384   2.074   2.328   6.331  0.8318  0.8518  0.2030
40869SOL    HW131385   2.014   2.271   6.379 -0.7353  0.4397 -2.1123
40869SOL    HW231386   2.161   2.293   6.351  0.0592 -0.8945  0.7021
40870SOL     OW31387   8.108   2.677   3.518 -0.3281  0.0573 -0.1091
40870SOL    HW131388   8.189   2.630   3.538 -0.0236  1.1139  1.2874
40870SOL    HW231389   8.049   2.610   3.483  0.6811 -0.9992  0.1458
40871SOL     OW31390   1.406  12.373  12.056 -0.2676 -0.3755  0.1708
40871SOL    HW131391   1.478  12.421  12.015 -1.4531  1.1142 -0.2570
40871SOL    HW231392   1.328  12.400  12.007 -1.3384 -0.7270  1.6233
40872SOL     OW31393   9.078  12.484   9.945 -0.2442 -0.1491 -0.6719
40872SOL    HW131394   9.155  12.432   9.968 -0.7200 -1.6103 -2.2599
40872SOL    HW231395   9.012  12.458  10.008 -0.4109 -1.3515 -1.3157
40873SOL     OW31396   7.110   6.436   4.963  0.1267 -0.3829 -0.2492
40873SOL    HW131397   7.022   6.431   4.925  0.4380  0.6011 -1.1364
40873SOL    HW231398   7.100   6.494   5.038 -0.3341 -1.7423  0.7962
40874SOL     OW31399   5.064   2.150   9.617 -0.1165 -0.4931 -0.1722
40874SOL    HW131400   5.105   2.108   9.693 -0.7156 -1.0156 -0.1388
40874SOL    HW231401   5.066   2.084   9.548 -0.4369 -0.3415 -0.3299
40875SOL     OW31402  10.661   1.304   1.112  0.2684  0.2880 -0.1729
40875SOL    HW131403  10.749   1.335   1.091 -0.0169  1.0579 -0.2633
40875SOL    HW231404  10.644   1.335   1.201 -0.2898  1.0328 -0.5227
40876SOL     OW31405   6.743   7.676   2.497 -0.3012  0.4128  0.3620
40876SOL    HW131406   6.663   7.676   2.550  0.0006  1.6939  0.8656
40876SOL    HW231407   6.811   7.706   2.557  0.6418 -0.9469  0.0187
40877SOL     OW31408   8.547   1.761   6.215  0.2600 -0.1212  0.0250
40877SOL    HW131409   8.464   1.807   6.225  0.5525  0.2789  0.6444
40877SOL    HW231410   8.613   1.829   6.216  0.8024 -0.5836  2.2641
40878SOL     OW31411  12.330  11.236   8.289 -0.3930  0.2711  0.6750
40878SOL    HW131412  12.271  11.170   8.325 -0.5761 -0.4204 -0.8171
40878SOL    HW231413  12.409  11.229   8.342  0.1310 -2.1392 -0.3146
40879SOL     OW31414   3.115   5.254  11.974  0.1561 -0.0281 -0.1686
40879SOL    HW131415   3.031   5.298  11.964  0.0104 -0.3820 -0.4744
40879SOL    HW231416   3.115   5.184  11.910  0.0759 -0.9719  0.8304
40880SOL     OW31417   9.654   3.340   6.016 -0.0024 -0.2721  0.1136
40880SOL    HW131418   9.729   3.324   6.074 -0.0395 -0.8537  0.0062
40880SOL    HW231419   9.588   3.277   6.045 -0.3006 -0.0424 -0.0642
40881SOL     OW31420   3.380   3.493  11.625 -0.1309 -0.3569 -0.1795
40881SOL    HW131421   3.301   3.441  11.643 -0.3712  0.3115  0.7197
40881SOL    HW231422   3.421   3.448  11.550 -1.3784 -0.6935 -0.6899
40882SOL     OW31423   9.903   7.288   4.052 -0.1444 -0.2445 -0.8591
40882SOL    HW131424   9.951   7.225   3.999  0.8915  0.9617 -1.3934
40882SOL    HW231425   9.811   7.260   4.046 -0.0062 -0.3913 -2.9443
40883SOL     OW31426   8.520  12.592  11.905  1.1030  0.0768 -0.2309
40883SOL    HW131427   8.564  12.537  11.840 -0.1995 -0.7587 -0.4284
40883SOL    HW231428   8.439  12.619  11.863  0.7084  0.3527  0.6900
40884SOL     OW31429   6.643  12.334   9.378 -0.0342  0.7696 -0.5887
40884SOL    HW131430   6.650  12.425   9.408  1.6545  0.2533  0.7719
40884SOL    HW231431   6.655  12.282   9.458 -3.8003 -0.7198 -0.7876
40885SOL     OW31432   6.522   3.905  11.443  0.3925  0.1210 -0.2492
40885SOL    HW131433   6.558   3.986  11.478 -1.1372  1.0802 -0.7818
40885SOL    HW231434   6.521   3.845  11.517  0.7456  0.8760  0.3823
40886SOL     OW31435   8.305   0.185   0.347  0.0560  0.2055 -0.1973
40886SOL    HW131436   8.364   0.258   0.333  0.4412 -0.0346  0.1555
40886SOL    HW231437   8.358   0.119   0.391 -0.8089  0.5290  1.4244
40887SOL     OW31438   8.171   8.284   0.667  0.0168  0.1795 -0.0646
40887SOL    HW131439   8.157   8.222   0.595  2.7406 -0.9493  0.2236
40887SOL    HW231440   8.132   8.242   0.744 -1.1872  0.4837 -0.4878
40888SOL     OW31441   9.042   9.558   5.555 -0.4022  0.3124  0.6083
40888SOL    HW131442   9.037   9.540   5.649 -0.6778  0.3687  0.6035
40888SOL    HW231443   9.016   9.476   5.514  0.3280  0.0911  0.5751
40889SOL     OW31444   0.744   1.001   0.983  0.4696 -0.0335 -0.2596
40889SOL    HW131445   0.801   1.050   1.042 -1.1525  0.8039  0.6762
40889SOL    HW231446   0.731   0.916   1.027  0.7380 -0.1036 -0.3160
40890SOL     OW31447   0.012   9.274   1.879  0.4177 -0.2676 -0.1916
40890SOL    HW131448  -0.065   9.319   1.915  0.7479  0.3913 -0.3076
40890SOL    HW231449   0.054   9.235   1.956  1.3258  1.4460  0.2363
40891SOL     OW31450  11.016   3.952   0.190  0.0642 -0.5248  0.5378
40891SOL    HW131451  10.988   3.898   0.116  0.1025 -1.0069  0.8778
40891SOL    HW231452  11.006   3.896   0.267 -0.7934  0.2542  1.0102
40892SOL     OW31453   4.843   3.872   5.394 -0.2364 -0.0826 -0.1763
40892SOL    HW131454   4.748   3.864   5.384 -0.4628 -2.3129  2.6076
40892SOL    HW231455   4.859   3.967   5.397 -2.4114  0.3443 -0.2691
40893SOL     OW31456   5.806   3.486   8.688  0.2878 -0.1030  0.0873
40893SOL    HW131457   5.850   3.544   8.750  0.9625 -1.3231  0.7756
40893SOL    HW231458   5.786   3.407   8.739 -1.6550 -0.0653 -0.5097
40894SOL     OW31459   8.890   7.532   4.572  0.0721 -0.4660 -0.9100
40894SOL    HW131460   8.864   7.621   4.594  0.6363 -0.4003 -0.4642
40894SOL    HW231461   8.986   7.535   4.572  0.1383 -0.5202 -3.1857
40895SOL     OW31462   6.792   8.954   4.046  0.3145 -0.1884  0.2510
40895SOL    HW131463   6.771   8.860   4.050  1.5992 -0.5018  0.1148
40895SOL    HW231464   6.862   8.965   4.110  0.9722  0.4573 -0.5610
40896SOL     OW31465   7.354   5.436   8.668  0.3299  0.0028  0.1570
40896SOL    HW131466   7.342   5.474   8.581  0.8921  0.0369  0.0887
40896SOL    HW231467   7.416   5.495   8.712  0.9105 -0.6122  0.1852
40897SOL     OW31468  10.096   5.722   8.081 -0.3538  0.8186  0.0789
40897SOL    HW131469  10.068   5.632   8.099  1.3953  0.1100 -0.5465
40897SOL    HW231470  10.131   5.719   7.992  0.1579  2.0248  0.2211
40898SOL     OW31471   5.714  10.179   6.913 -0.4189  0.2201 -0.1627
40898SOL    HW131472   5.752  10.250   6.861  0.0498 -1.1946 -1.8562
40898SOL    HW231473   5.646  10.222   6.966 -1.0133  1.7609 -2.0271
40899SOL     OW31474   2.833  10.223   7.983  0.7511 -0.2128  0.1491
40899SOL    HW131475   2.834  10.297   7.922 -0.6510 -0.1088  0.2179
40899SOL    HW231476   2.896  10.247   8.051  3.1902 -0.8138 -1.7542
40900SOL     OW31477   1.066   2.413  10.514  0.1356 -0.1150  0.2826
40900SOL    HW131478   0.973   2.422  10.538 -0.0541  1.3483 -0.8414
40900SOL    HW231479   1.112   2.408  10.598 -0.9311 -0.5895  0.8601
40901SOL     OW31480  10.123   1.694   6.127 -0.3742 -0.1351 -0.4278
40901SOL    HW131481  10.178   1.679   6.204 -1.0778  0.0340  0.1238
40901SOL    HW231482  10.185   1.704   6.054  0.3304  0.3167  0.2185
40902SOL     OW31483  10.600   3.380  10.730  0.7740  0.0824 -0.0627
40902SOL    HW131484  10.641   3.417  10.652 -0.3711  0.7570 -0.3855
40902SOL    HW231485  10.507   3.404  10.721  0.8280  1.4646  2.2131
40903SOL     OW31486   5.675   5.096   8.344 -0.1462 -0.0944  0.3285
40903SOL    HW131487   5.752   5.125   8.296  0.6979 -2.7134 -0.0985
40903SOL    HW231488   5.675   5.147   8.425  1.3230  0.8000 -0.2037
40904SOL     OW31489   1.350   9.814   0.673  0.2094  0.0270  0.6697
40904SOL    HW131490   1.397   9.803   0.590 -1.8958 -0.0416 -0.5872
40904SOL    HW231491   1.344   9.725   0.709 -0.6220 -0.2672 -0.1528
40905SOL     OW31492   6.862  10.893  10.946  0.1277  0.0557  0.1389
40905SOL    HW131493   6.943  10.930  10.910 -0.1007 -0.4040 -0.8969
40905SOL    HW231494   6.856  10.930  11.034  0.3383  1.8293 -0.5515
40906SOL     OW31495   5.080   3.453  11.521  0.2225 -0.3952  0.2500
40906SOL    HW131496   4.993   3.478  11.553  0.5254  1.8624 -0.5236
40906SOL    HW231497   5.073   3.359  11.504 -1.8719 -0.3869  0.7852
40907SOL     OW31498  12.606   9.385  10.560  0.5516 -0.0147 -0.4263
40907SOL    HW131499  12.606   9.421  10.649 -0.8142 -0.4973 -0.2092
40907SOL    HW231500  12.698   9.368  10.541  0.7144 -4.0576  2.6202
40908SOL     OW31501   7.682   4.668   2.269  0.3463  0.2872 -0.0848
40908SOL    HW131502   7.707   4.708   2.352 -0.0377  1.2132 -0.4026
40908SOL    HW231503   7.596   4.628   2.286 -1.1336  2.9398 -0.7211
40909SOL     OW31504   0.466   7.955   3.929  0.0113  0.2475  0.2264
40909SOL    HW131505   0.412   8.025   3.892 -0.5074  0.3781  1.2086
40909SOL    HW231506   0.510   7.995   4.004 -1.9057 -0.9743  2.1103
40910SOL     OW31507  12.431   3.065   5.095  0.2985 -0.1465  0.4296
40910SOL    HW131508  12.339   3.087   5.112  0.3418 -0.5416  1.2170
40910SOL    HW231509  12.439   2.973   5.121  0.6097 -0.5048 -0.8836
40911SOL     OW31510  10.534   4.127  11.521 -0.3955  0.1221 -0.4231
40911SOL    HW131511  10.596   4.175  11.465  0.2364  0.2025  0.3366
40911SOL    HW231512  10.547   4.035  11.498 -1.4789  0.2661 -1.7520
40912SOL     OW31513   9.205   1.654   2.577  0.5958  0.2066  0.6566
40912SOL    HW131514   9.170   1.723   2.520  0.2144 -0.3116  0.2637
40912SOL    HW231515   9.216   1.697   2.661 -0.3406  0.5667  0.6098
40913SOL     OW31516   2.713   3.503   7.045 -0.4798  0.4110  0.6048
40913SOL    HW131517   2.707   3.408   7.034  0.4088  0.3461  0.6460
40913SOL    HW231518   2.773   3.516   7.118  2.3943  1.0339 -1.7053
40914SOL     OW31519   3.040   9.490  11.764 -0.2135  0.1802 -0.0729
40914SOL    HW131520   3.062   9.433  11.838  0.3883 -0.1467 -0.4909
40914SOL    HW231521   3.079   9.574  11.787 -2.4111  0.9247  1.2667
40915SOL     OW31522   7.554   2.603  11.765  0.1342 -0.5937 -0.3364
40915SOL    HW131523   7.599   2.669  11.713 -1.8545  1.1152 -0.0399
40915SOL    HW231524   7.539   2.530  11.705  0.9427 -0.1012 -1.1553
40916SOL     OW31525   6.886   5.474  12.534  0.0314  0.0216 -0.0985
40916SOL    HW131526   6.869   5.380  12.530 -1.1733  0.2528 -1.9293
40916SOL    HW231527   6.950   5.490  12.463  0.8907  0.4817  0.7559
40917SOL     OW31528   4.009   2.106   4.969  0.0189  0.2627  0.1432
40917SOL    HW131529   4.045   2.143   5.050  0.1026  2.2049 -0.7211
40917SOL    HW231530   3.917   2.089   4.990  0.1996  0.1081  0.8390
40918SOL     OW31531   9.129   0.472   3.894  0.1797  0.2757 -0.5547
40918SOL    HW131532   9.184   0.397   3.872  1.1993  0.6752  0.4826
40918SOL    HW231533   9.091   0.500   3.811 -0.5701 -1.6366 -0.9026
40919SOL     OW31534   9.946   9.980   4.289  0.2464  0.0666 -0.1574
40919SOL    HW131535   9.878  10.045   4.269  0.4816  0.9606  1.7359
40919SOL    HW231536   9.988   9.963   4.204  0.0012  2.2013 -0.7727
40920SOL     OW31537  10.548  10.720   2.412 -0.1253 -0.1040 -0.6046
40920SOL    HW131538  10.598  10.754   2.487 -0.8886  0.7241 -0.4608
40920SOL    HW231539  10.469  10.684   2.451 -0.4204  0.1306 -0.9836
40921SOL     OW31540  11.938   2.964   3.618 -0.3025 -0.4903  0.1630
40921SOL    HW131541  11.982   2.898   3.671 -1.0231  1.0815  2.9288
40921SOL    HW231542  11.981   3.047   3.641  1.1998  0.0685 -3.8658
40922SOL     OW31543   2.925  11.981  11.152 -0.0474  0.5460 -0.6956
40922SOL    HW131544   2.992  11.950  11.091  1.2982  1.4124  0.2698
40922SOL    HW231545   2.877  12.048  11.103  0.1532  0.3060 -1.2291
40923SOL     OW31546   6.437   1.808   3.190 -0.3399 -0.3971  0.0415
40923SOL    HW131547   6.466   1.897   3.209  0.0077 -0.4871 -0.0554
40923SOL    HW231548   6.352   1.800   3.234 -0.4748  0.0511 -0.1281
40924SOL     OW31549   6.641   3.393   5.684  0.8262 -0.2233  0.3102
40924SOL    HW131550   6.695   3.414   5.607 -1.4139  2.8526 -0.6373
40924SOL    HW231551   6.577   3.330   5.651 -1.6818  2.8811 -1.3010
40925SOL     OW31552   3.544   0.835   8.067 -0.0125 -0.0382 -0.0643
40925SOL    HW131553   3.633   0.806   8.084  0.0576 -0.1324 -0.5638
40925SOL    HW231554   3.521   0.793   7.984  0.3620  1.9135 -1.2125
40926SOL     OW31555   7.197   4.237   0.167  0.8669  0.5606 -0.8163
40926SOL    HW131556   7.183   4.181   0.091  1.4869  0.6474 -1.0011
40926SOL    HW231557   7.152   4.319   0.145 -0.2792  0.0476 -0.4254
40927SOL     OW31558   1.933  11.168   3.981  0.1786 -0.2674 -0.2450
40927SOL    HW131559   2.000  11.109   4.015  0.1343 -0.0497  0.2289
40927SOL    HW231560   1.954  11.176   3.888  1.3760  0.5037  0.0547
40928SOL     OW31561   0.021   3.582   7.614  1.3825 -0.2136  0.0625
40928SOL    HW131562   0.090   3.525   7.648  0.7721 -0.7786  0.3883
40928SOL    HW231563  -0.060   3.538   7.639  0.9023  0.5472 -0.1256
40929SOL     OW31564   0.509   4.004   7.734  0.4205 -0.1279 -0.2023
40929SOL    HW131565   0.536   3.956   7.656  2.5063  1.4008 -0.4958
40929SOL    HW231566   0.479   4.089   7.701 -0.5255 -0.1585  0.5275
40930SOL     OW31567   7.585   3.852  12.066  0.5979  0.4105 -0.4776
40930SOL    HW131568   7.580   3.945  12.087 -0.8777  0.1073  0.6410
40930SOL    HW231569   7.550   3.846  11.977  0.3557  0.8743 -0.4177
40931SOL     OW31570   3.459  12.156   8.259 -0.0338  0.0887 -0.1306
40931SOL    HW131571   3.548  12.189   8.266  0.1633 -0.3972 -0.2785
40931SOL    HW231572   3.437  12.164   8.167 -0.5198  1.1414  0.0616
40932SOL     OW31573   7.291   0.248   9.797 -0.4175  0.2527  0.3325
40932SOL    HW131574   7.384   0.232   9.782 -0.1380  0.8556  1.3267
40932SOL    HW231575   7.253   0.253   9.710  0.3246 -0.8510 -0.0847
40933SOL     OW31576   5.695   3.354   5.826  0.1406  1.0629  0.3310
40933SOL    HW131577   5.705   3.341   5.920 -0.9941  1.7160  0.5546
40933SOL    HW231578   5.785   3.366   5.794  0.8386 -1.9204  0.8664
40934SOL     OW31579  12.301   0.570   7.664 -0.2701 -0.4698  0.2623
40934SOL    HW131580  12.228   0.546   7.606  0.7917 -3.1491 -0.1009
40934SOL    HW231581  12.355   0.492   7.668  0.9965  0.4148  2.9874
40935SOL     OW31582  11.949   4.515   8.718  0.2404  0.0673  0.5492
40935SOL    HW131583  11.895   4.571   8.662  0.7670 -0.0013 -0.0455
40935SOL    HW231584  12.032   4.508   8.671 -0.0777 -1.8866  0.1802
40936SOL     OW31585   4.078  12.327   7.882  0.7048  0.0424  0.3854
40936SOL    HW131586   4.071  12.293   7.792 -0.4819 -0.6548  0.7190
40936SOL    HW231587   4.109  12.253   7.933 -1.3865 -0.4401  1.0295
40937SOL     OW31588   1.087   3.834   2.568 -0.4615 -0.1983  0.0918
40937SOL    HW131589   1.080   3.746   2.605  0.4801  0.4924  2.0446
40937SOL    HW231590   1.157   3.827   2.504 -0.2496 -0.8199  0.3798
40938SOL     OW31591   2.181  12.202   4.669 -0.0901  0.2009 -0.4668
40938SOL    HW131592   2.187  12.298   4.661  1.0476  0.0969 -1.0716
40938SOL    HW231593   2.087  12.184   4.672 -0.3203  1.4270  0.8775
40939SOL     OW31594   8.572   8.420  11.551 -0.1081 -0.0620 -0.5430
40939SOL    HW131595   8.569   8.325  11.547  1.3978 -0.1629  0.0797
40939SOL    HW231596   8.665   8.441  11.547 -0.4622  1.4886 -2.4034
40940SOL     OW31597   2.218   6.644   8.845 -0.5181 -0.2671  0.5510
40940SOL    HW131598   2.195   6.551   8.852 -0.1608 -0.4173 -0.2132
40940SOL    HW231599   2.252   6.654   8.756  1.4359  0.1709  1.3184
40941SOL     OW31600   7.493   2.665   4.562  0.1414  0.4479  0.1373
40941SOL    HW131601   7.462   2.667   4.652 -0.1709 -2.7743  0.2128
40941SOL    HW231602   7.574   2.716   4.564  0.1684  0.4234  2.2402
40942SOL     OW31603   3.950  12.068   4.795  0.0669 -0.0993  0.3206
40942SOL    HW131604   3.893  11.991   4.796 -0.8757  0.5866 -0.0719
40942SOL    HW231605   4.036  12.033   4.769  0.3117 -1.4383  2.5690
40943SOL     OW31606   0.022   4.911   3.782  0.3032  0.4357  0.0013
40943SOL    HW131607   0.112   4.942   3.773  0.1666  0.9742  0.3885
40943SOL    HW231608  -0.015   4.967   3.850  0.0176 -0.5307  0.6734
40944SOL     OW31609   5.001   9.161   2.038 -0.3321  0.6106  0.9662
40944SOL    HW131610   5.038   9.236   2.083  2.7569 -1.2026  1.7355
40944SOL    HW231611   5.077   9.115   2.002 -2.1417 -1.8358  0.0095
40945SOL     OW31612   1.707   3.130   9.735 -0.1142  0.4447  0.2701
40945SOL    HW131613   1.729   3.178   9.655 -1.0099  0.8505  0.2543
40945SOL    HW231614   1.705   3.197   9.803  1.9300 -0.0842  0.9208
40946SOL     OW31615   3.034  11.942   3.075 -0.0841  0.1004 -0.0757
40946SOL    HW131616   3.106  11.949   3.138 -0.7994  0.2899  0.7548
40946SOL    HW231617   2.992  11.859   3.096 -2.1255  1.4566  1.7508
40947SOL     OW31618  12.276   3.435   2.496  0.4280  0.4226 -0.6998
40947SOL    HW131619  12.292   3.506   2.435  0.8602  1.4293  0.5531
40947SOL    HW231620  12.232   3.476   2.570 -1.0713 -0.9599 -0.7621
40948SOL     OW31621   1.430   0.682  11.207  0.2611 -0.4365 -0.3800
40948SOL    HW131622   1.505   0.683  11.267 -0.5454  1.3944  0.6612
40948SOL    HW231623   1.451   0.611  11.145  3.1301  0.3861 -0.5150
40949SOL     OW31624   4.578   9.977   1.045 -0.1953  0.3831  0.2491
40949SOL    HW131625   4.575  10.041   0.975 -2.2127  0.2430  0.1575
40949SOL    HW231626   4.666   9.939   1.039 -0.2048  0.5888 -1.9847
40950SOL     OW31627   7.256   7.728   4.165 -0.3753  0.1396  0.3517
40950SOL    HW131628   7.318   7.676   4.215  1.6635 -1.2761 -3.2377
40950SOL    HW231629   7.254   7.685   4.079 -0.4809  4.5486 -2.1168
40951SOL     OW31630   0.607  10.567   8.311 -0.0619  0.5292 -0.0737
40951SOL    HW131631   0.622  10.484   8.357 -0.8453 -0.1584 -1.0036
40951SOL    HW231632   0.569  10.624   8.377  0.2821  0.0751  0.5308
40952SOL     OW31633  10.427  10.916   3.603  0.2671 -0.4432  0.1121
40952SOL    HW131634  10.360  10.872   3.655  0.3354 -2.6160 -1.4571
40952SOL    HW231635  10.505  10.862   3.615  0.9406  0.4146 -0.3249
40953SOL     OW31636   2.748   4.178   5.446 -0.3635  0.5558  0.0397
40953SOL    HW131637   2.738   4.150   5.355 -0.4491  0.4979  0.0669
40953SOL    HW231638   2.824   4.236   5.445  0.0423  0.0208  0.0587
40954SOL     OW31639   9.618   7.376   1.582 -0.3245 -0.6700  0.2344
40954SOL    HW131640   9.575   7.319   1.646 -0.1923 -0.1652  0.7841
40954SOL    HW231641   9.709   7.380   1.611 -0.3350 -0.1745  0.2107
40955SOL     OW31642   8.257   1.481   3.145 -0.2585 -0.1949 -0.1228
40955SOL    HW131643   8.273   1.558   3.090 -0.0548 -0.2607 -0.1576
40955SOL    HW231644   8.260   1.514   3.235 -2.0373  0.1889 -0.1655
40956SOL     OW31645   9.496   5.208   6.521  0.1210 -0.0446 -0.4744
40956SOL    HW131646   9.545   5.290   6.516 -0.7345  0.4773 -0.5280
40956SOL    HW231647   9.481   5.195   6.614  0.1140 -0.0457 -0.4755
40957SOL     OW31648   3.227   4.597   3.119 -0.4796  0.1750 -0.3040
40957SOL    HW131649   3.148   4.547   3.136 -0.4270 -0.2435 -1.2407
40957SOL    HW231650   3.234   4.657   3.193 -0.9103 -0.7368  0.4902
40958SOL     OW31651   4.387   0.349   2.104 -0.4519 -0.3012  0.2261
40958SOL    HW131652   4.344   0.434   2.092 -1.4934 -1.0062 -1.3215
40958SOL    HW231653   4.316   0.290   2.130 -0.3313 -1.3130 -1.5589
40959SOL     OW31654   6.244   9.514   5.140  0.2464  0.3969 -0.1669
40959SOL    HW131655   6.269   9.593   5.091  0.3605  0.1116 -0.5777
40959SOL    HW231656   6.167   9.481   5.093  0.1454  0.3088  0.0570
40960SOL     OW31657   2.073   8.070   0.070  0.1009  0.1838  0.0454
40960SOL    HW131658   2.142   8.046   0.009 -0.9702 -1.7381 -0.5029
40960SOL    HW231659   2.024   8.139   0.026  0.6320  0.3332 -0.3151
40961SOL     OW31660  12.243   7.422  11.935 -0.6345  0.0292  0.5926
40961SOL    HW131661  12.179   7.492  11.951 -0.3495  0.7229 -1.0788
40961SOL    HW231662  12.195   7.357  11.885 -0.3388  0.0215  0.3173
40962SOL     OW31663   9.907  12.131   4.513 -0.0539 -0.5018  0.2602
40962SOL    HW131664   9.813  12.118   4.501  0.4474 -3.1526 -1.7306
40962SOL    HW231665   9.924  12.098   4.601 -1.1093  1.3630  1.2399
40963SOL     OW31666   6.336   1.515   0.830  0.3405  0.0804 -0.2154
40963SOL    HW131667   6.274   1.446   0.804 -0.0932  0.5520 -0.4364
40963SOL    HW231668   6.422   1.477   0.811  0.0630  0.7150 -3.2782
40964SOL     OW31669   4.917   0.002   0.260  0.0320  0.0148  0.0989
40964SOL    HW131670   4.955  -0.082   0.285  2.6092  1.6515  2.2623
40964SOL    HW231671   4.848   0.017   0.324 -0.4400 -0.4361 -0.2984
40965SOL     OW31672   5.469   3.474   2.282 -0.5161 -0.2438 -0.2964
40965SOL    HW131673   5.413   3.402   2.253  0.1676 -0.9587  0.1019
40965SOL    HW231674   5.518   3.437   2.356  0.1437  0.5048 -0.3496
40966SOL     OW31675   6.217   3.668   7.705  0.1768  0.6767  0.9811
40966SOL    HW131676   6.214   3.618   7.786  0.4187  0.6625  0.9809
40966SOL    HW231677   6.126   3.695   7.690 -0.2175 -0.9066  0.2744
40967SOL     OW31678   4.845   4.862   8.846  0.6796 -0.6172  0.1303
40967SOL    HW131679   4.885   4.792   8.897  0.7005 -0.8251 -0.1668
40967SOL    HW231680   4.753   4.836   8.836  0.5110 -0.2424  0.6362
40968SOL     OW31681   1.541   9.752  12.217  0.6164 -0.0134 -0.4962
40968SOL    HW131682   1.528   9.679  12.156 -0.9909  0.5904 -0.9279
40968SOL    HW231683   1.577   9.711  12.296  0.3721 -1.1727 -0.9575
40969SOL     OW31684   3.558   4.970   8.557  0.3335  0.0762  0.3346
40969SOL    HW131685   3.567   4.875   8.563  0.0826  0.0923  1.0755
40969SOL    HW231686   3.466   4.983   8.531  0.7298  0.0870 -1.1546
40970SOL     OW31687   3.494   2.754   3.115 -0.1026  0.8170 -0.2180
40970SOL    HW131688   3.513   2.661   3.127  0.2025  0.6418 -1.9408
40970SOL    HW231689   3.428   2.773   3.183  0.6096 -0.3741  0.8566
40971SOL     OW31690   1.048   4.835  10.299  0.5077 -0.0053 -0.1789
40971SOL    HW131691   1.095   4.915  10.322  0.4256 -0.2205  0.8188
40971SOL    HW231692   1.015   4.850  10.211 -0.5215  1.5477  0.4258
40972SOL     OW31693  10.821   8.042   6.045 -0.7036  0.0736  0.0606
40972SOL    HW131694  10.889   7.980   6.070 -1.0806  0.4294  2.1412
40972SOL    HW231695  10.861   8.128   6.058 -0.4715  0.3200 -1.9772
40973SOL     OW31696   1.111   6.706   0.389  0.3625  0.4454  0.2549
40973SOL    HW131697   1.085   6.799   0.387 -2.2564 -0.1298 -3.8035
40973SOL    HW231698   1.107   6.682   0.482 -2.2428  3.5718  1.1355
40974SOL     OW31699   8.129   7.266   7.034  0.1214 -0.2053  0.0181
40974SOL    HW131700   8.167   7.279   7.121 -1.9531 -0.0049  0.9690
40974SOL    HW231701   8.074   7.344   7.021  0.5594 -0.1399 -1.5821
40975SOL     OW31702  10.897   5.417   9.170  0.8439  0.0085  0.0539
40975SOL    HW131703  10.934   5.476   9.235  1.1125 -0.0590 -0.0348
40975SOL    HW231704  10.889   5.333   9.215 -2.3853  0.7674  1.1555
40976SOL     OW31705   8.153   2.508   1.079 -0.1260 -0.1930 -0.2873
40976SOL    HW131706   8.144   2.423   1.123  0.4667 -0.1883 -0.1600
40976SOL    HW231707   8.108   2.570   1.137 -0.1403 -0.3402 -0.1410
40977SOL     OW31708   6.805  10.775   4.167 -0.1873  0.0059 -0.0814
40977SOL    HW131709   6.872  10.835   4.197 -0.4227 -0.3311  1.1640
40977SOL    HW231710   6.751  10.827   4.107 -0.1547  0.9202  0.6641
40978SOL     OW31711  11.453   0.743   9.636 -0.2112  0.1484  0.5432
40978SOL    HW131712  11.454   0.650   9.617  1.6004 -0.0815  1.5794
40978SOL    HW231713  11.541   0.774   9.615 -1.0736  1.8838 -0.8388
40979SOL     OW31714   6.341   3.967   0.918 -0.2689  0.1605  0.1533
40979SOL    HW131715   6.418   3.915   0.942 -1.6673 -1.9341  0.3762
40979SOL    HW231716   6.281   3.956   0.992 -1.4555  0.3220 -0.7553
40980SOL     OW31717   9.069  10.510   2.902 -0.0842  0.1677 -0.2583
40980SOL    HW131718   9.001  10.482   2.840 -1.7777  1.6792  0.7994
40980SOL    HW231719   9.046  10.600   2.923  1.6757  0.3799  0.9716
40981SOL     OW31720  10.464  11.990  10.648 -0.1821  0.8906  0.2218
40981SOL    HW131721  10.375  11.969  10.676  0.5124  0.6356  2.4186
40981SOL    HW231722  10.474  12.083  10.668  0.2711  0.7449  0.7062
40982SOL     OW31723  11.455   8.570   5.466 -0.3072  0.3382 -0.6043
40982SOL    HW131724  11.449   8.604   5.556  3.3882  0.4402 -0.2386
40982SOL    HW231725  11.382   8.611   5.420 -1.2238  1.7530  1.9161
40983SOL     OW31726   5.596   5.702   3.912  0.2526  0.3607  0.3253
40983SOL    HW131727   5.643   5.752   3.979  1.9959 -0.6628 -0.0921
40983SOL    HW231728   5.664   5.661   3.860 -1.0199 -2.9767  1.0192
40984SOL     OW31729   6.758   9.371   7.994  0.3677  0.2984  0.0566
40984SOL    HW131730   6.707   9.370   8.076  0.8950 -1.2897  0.4157
40984SOL    HW231731   6.694   9.347   7.927  0.3533 -0.4409  0.3208
40985SOL     OW31732   5.749   5.398  12.039 -0.4365 -0.1200  0.1265
40985SOL    HW131733   5.794   5.482  12.042  0.3699 -0.5006 -0.8078
40985SOL    HW231734   5.817   5.334  12.060 -1.2108 -0.5035  1.6009
40986SOL     OW31735   3.396   0.968  12.460  0.2619  0.0552 -0.2725
40986SOL    HW131736   3.464   0.977  12.526 -1.9325  1.8177  1.9429
40986SOL    HW231737   3.444   0.961  12.377  3.1331  2.0635  1.0451
40987SOL     OW31738   9.640   5.958   3.280  0.2585  0.0635  0.4157
40987SOL    HW131739   9.592   5.905   3.343 -2.0796  3.1171  1.4052
40987SOL    HW231740   9.709   6.001   3.331  1.2335 -0.8179 -0.1026
40988SOL     OW31741   6.593   4.304   2.104 -0.3806 -0.3113  0.5063
40988SOL    HW131742   6.538   4.358   2.160 -1.7762 -1.5791  0.4356
40988SOL    HW231743   6.681   4.313   2.140 -1.3055 -1.5586  3.3459
40989SOL     OW31744  10.367   4.881   0.980  0.0820 -0.0874  0.1417
40989SOL    HW131745  10.299   4.913   1.040 -0.4424  0.1194 -0.5554
40989SOL    HW231746  10.378   4.951   0.916  0.5461 -0.3642 -0.0867
40990SOL     OW31747   2.417   1.340   7.540  0.0851 -0.1919  0.1476
40990SOL    HW131748   2.445   1.361   7.629 -0.6438  1.7265 -0.0308
40990SOL    HW231749   2.451   1.411   7.486 -1.7547  0.1238 -0.6710
40991SOL     OW31750   1.930   6.446   5.292 -0.0784 -0.3324  0.3640
40991SOL    HW131751   2.016   6.486   5.305 -0.5253  0.7031  0.2281
40991SOL    HW231752   1.880   6.512   5.245 -0.1031 -1.9498 -2.1300
40992SOL     OW31753   8.607   0.035   4.109 -0.0224 -0.1016 -0.0663
40992SOL    HW131754   8.638   0.119   4.143  0.8669  0.2020 -1.5138
40992SOL    HW231755   8.519   0.025   4.145  0.3453  0.8400  1.1439
40993SOL     OW31756   2.195   3.359   5.856 -0.3078  0.0538 -0.3286
40993SOL    HW131757   2.250   3.398   5.788  0.1117 -1.6981 -1.0462
40993SOL    HW231758   2.117   3.415   5.859 -0.2148  0.3381 -2.0597
40994SOL     OW31759   3.747   0.775   8.739  0.2238  0.5984 -0.2036
40994SOL    HW131760   3.832   0.736   8.723 -0.2951 -1.5643  1.7925
40994SOL    HW231761   3.740   0.779   8.835 -1.3437  2.0934 -0.3258
40995SOL     OW31762   3.702   4.738  11.601  0.2526  0.6846  0.4906
40995SOL    HW131763   3.756   4.664  11.627 -0.8020 -0.2260  0.1700
40995SOL    HW231764   3.748   4.776  11.526  0.6110  0.1188  0.4149
40996SOL     OW31765   8.097   4.164   8.742 -0.1248 -0.0952 -0.3258
40996SOL    HW131766   8.037   4.239   8.742 -0.7953 -0.4960 -3.5584
40996SOL    HW231767   8.134   4.163   8.653  3.5674 -0.8014  1.0345
40997SOL     OW31768   9.666  12.251   4.200 -0.0378  0.4176 -0.7735
40997SOL    HW131769   9.653  12.265   4.106 -0.7241 -0.6286 -0.8483
40997SOL    HW231770   9.721  12.173   4.205 -2.0551 -1.0574 -0.3019
40998SOL     OW31771   5.478  10.158   2.421 -0.4200 -0.6173 -0.7518
40998SOL    HW131772   5.548  10.109   2.377  1.0213  1.7248 -1.2090
40998SOL    HW231773   5.444  10.217   2.354  0.1502  1.2958  0.5545
40999SOL     OW31774   1.024  11.969  11.654  0.4541  0.2218  0.0338
40999SOL    HW131775   1.045  11.896  11.596  0.7736  0.1530  0.2318
40999SOL    HW231776   0.942  12.005  11.619  1.1523  0.8064 -1.0617
41000SOL     OW31777   5.836   7.447   4.802 -0.5939 -0.5831 -0.1009
41000SOL    HW131778   5.787   7.400   4.735  1.3864 -1.1988 -1.1831
41000SOL    HW231779   5.921   7.403   4.805  0.8583  2.0182 -0.1651
41001SOL     OW31780   6.153   5.430   7.934  0.1770  0.0172  0.1114
41001SOL    HW131781   6.221   5.490   7.965  1.3211 -0.5732 -1.1450
41001SOL    HW231782   6.182   5.343   7.964  0.3197 -0.3147 -0.9495
41002SOL     OW31783   2.401  12.255   4.167  0.0378  0.0341  0.1363
41002SOL    HW131784   2.422  12.176   4.217  2.8375  0.7856  0.3562
41002SOL    HW231785   2.424  12.232   4.076 -0.3684  0.1908 -0.0054
41003SOL     OW31786   1.826   0.579   0.558  0.8173 -0.3053  0.2949
41003SOL    HW131787   1.757   0.611   0.616  1.0713  0.0975  0.3757
41003SOL    HW231788   1.793   0.495   0.526 -0.7168  0.8788 -1.4059
41004SOL     OW31789   8.015   4.334  12.096  0.0305  0.4887 -0.0941
41004SOL    HW131790   7.989   4.342  12.004  0.8585 -0.9271 -0.4746
41004SOL    HW231791   8.082   4.266  12.096  0.1284  0.5544  1.5509
41005SOL     OW31792   9.020   6.545   0.120 -0.6054 -0.3253  0.4868
41005SOL    HW131793   9.052   6.502   0.199  1.3100  0.6350  0.3010
41005SOL    HW231794   8.967   6.479   0.076  1.1469 -2.0608  0.8565
41006SOL     OW31795  11.612   0.579   1.301  0.5637  0.1490 -0.9283
41006SOL    HW131796  11.616   0.637   1.377 -1.0803  0.4177 -1.0002
41006SOL    HW231797  11.701   0.577   1.267  1.0178  1.2037  0.1442
41007SOL     OW31798   5.965  11.456   3.833 -0.4660 -0.3059 -0.1108
41007SOL    HW131799   6.043  11.511   3.835 -0.7097  0.0304  0.7274
41007SOL    HW231800   5.917  11.484   3.755 -0.2387  0.1823 -0.0781
41008SOL     OW31801   0.422   3.804   2.915 -0.5094  0.1186 -0.8673
41008SOL    HW131802   0.459   3.827   2.829 -1.1928  0.0498 -1.1903
41008SOL    HW231803   0.494   3.814   2.976  0.1480 -0.4245 -1.5436
41009SOL     OW31804   5.324   5.969   4.979  0.2419  0.0620 -0.3167
41009SOL    HW131805   5.297   5.989   4.889  0.5349  1.1127 -0.1863
41009SOL    HW231806   5.255   6.008   5.033  0.7148  0.5544 -0.0593
41010SOL     OW31807   1.905   3.591   8.026 -0.2941 -0.1618 -0.1932
41010SOL    HW131808   1.967   3.522   8.048  1.9292  1.8339  0.2140
41010SOL    HW231809   1.906   3.595   7.930  0.2950 -0.0608 -0.1820
41011SOL     OW31810  10.638   2.140   5.840  0.2386 -0.5305  0.1230
41011SOL    HW131811  10.624   2.226   5.800  0.9358 -0.8921 -0.9414
41011SOL    HW231812  10.558   2.092   5.821  1.1485 -1.2256 -2.3170
41012SOL     OW31813   4.587   3.489   0.836 -0.2900 -0.4419  0.9038
41012SOL    HW131814   4.579   3.394   0.825 -0.1271 -0.4709  1.0341
41012SOL    HW231815   4.518   3.525   0.780 -0.8732 -0.6645  1.4542
41013SOL     OW31816  11.811   6.599   0.574  0.3499 -0.6230  0.0251
41013SOL    HW131817  11.801   6.588   0.480  0.8774 -1.8409  0.1018
41013SOL    HW231818  11.799   6.512   0.611 -2.4702  0.1932  1.3599
41014SOL     OW31819   8.049   2.556  11.552 -0.5905  0.0060 -0.5074
41014SOL    HW131820   8.120   2.494  11.567  0.5548  1.3005 -0.2808
41014SOL    HW231821   8.006   2.564  11.638  1.3721  1.9573  0.3995
41015SOL     OW31822  12.602   6.326   0.744 -0.0036 -0.1989 -0.1726
41015SOL    HW131823  12.592   6.239   0.706 -2.0132  0.1161 -0.4811
41015SOL    HW231824  12.694   6.331   0.769  0.5563 -1.7417 -1.7405
41016SOL     OW31825   9.418   3.748   3.081 -0.0412  0.1752 -0.3248
41016SOL    HW131826   9.446   3.697   3.005  0.4728  0.4777 -0.3464
41016SOL    HW231827   9.404   3.683   3.150 -1.5833 -0.2240 -0.9627
41017SOL     OW31828   2.067   0.467   9.617 -0.1739  0.4425 -0.0724
41017SOL    HW131829   2.138   0.516   9.658 -0.2155  2.9169 -2.7074
41017SOL    HW231830   2.077   0.483   9.523 -3.2203 -0.5136 -0.6694
41018SOL     OW31831   6.647   5.302  11.032  0.4394 -0.3939 -0.2850
41018SOL    HW131832   6.643   5.397  11.042  1.0650 -0.5560  1.8851
41018SOL    HW231833   6.730   5.286  10.986  0.8058  0.0490  0.2251
41019SOL     OW31834   6.052   3.397   9.280  0.2292  0.3750 -0.0657
41019SOL    HW131835   6.063   3.423   9.188  2.1377 -1.9889 -0.6075
41019SOL    HW231836   5.979   3.335   9.278  1.8363 -1.6074 -0.5123
41020SOL     OW31837   8.137   4.816   0.826 -0.0848 -0.0507 -0.1628
41020SOL    HW131838   8.178   4.737   0.862 -0.9534  0.3014  1.7441
41020SOL    HW231839   8.157   4.884   0.889 -0.4133  0.9732 -1.1376
41021SOL     OW31840   7.306   0.448  11.531 -0.4535 -0.3497  0.1940
41021SOL    HW131841   7.305   0.518  11.466  2.3258  0.8147  1.2675
41021SOL    HW231842   7.337   0.371  11.484  0.3554  0.1771 -0.1606
41022SOL     OW31843  11.846   1.798   1.383  0.0808 -0.3939 -0.0863
41022SOL    HW131844  11.772   1.824   1.330  0.0061  0.0499  0.2302
41022SOL    HW231845  11.882   1.880   1.418  0.5907 -0.6176 -0.0696
41023SOL     OW31846   8.248   2.137   1.874 -0.4098 -0.2336  0.1368
41023SOL    HW131847   8.266   2.085   1.952 -1.4861 -0.5609  0.1877
41023SOL    HW231848   8.152   2.137   1.867 -0.3219 -1.0999 -1.7667
41024SOL     OW31849   5.319   7.684   5.506  0.1189 -0.0386  0.1359
41024SOL    HW131850   5.253   7.660   5.571  1.7482  0.2536  2.0006
41024SOL    HW231851   5.395   7.630   5.528  1.4756  1.6982 -0.0785
41025SOL     OW31852  11.356   4.926   2.107 -0.1588 -0.2278  0.1405
41025SOL    HW131853  11.316   4.994   2.053 -1.2618 -0.1617  1.0074
41025SOL    HW231854  11.411   4.974   2.169 -2.8021  0.1933  2.3765
41026SOL     OW31855   5.229   9.338   0.078 -0.4221 -0.2450  0.1672
41026SOL    HW131856   5.217   9.432   0.067  0.1904 -0.2196 -0.2655
41026SOL    HW231857   5.194   9.299  -0.002 -0.0556 -0.3445  0.0570
41027SOL     OW31858  10.960   6.540   5.457 -0.2971 -0.1542  0.1435
41027SOL    HW131859  10.903   6.494   5.519  0.1078 -0.3502  0.3768
41027SOL    HW231860  11.033   6.572   5.510  0.5543 -1.1534 -0.3688
41028SOL     OW31861   0.429  11.096   5.419 -0.3755 -0.4822  0.1178
41028SOL    HW131862   0.378  11.015   5.412 -0.9435 -0.2559  1.3832
41028SOL    HW231863   0.485  11.095   5.342 -1.9019 -1.0177 -1.0507
41029SOL     OW31864   4.218   8.764   3.999  0.3206 -0.3046 -0.0078
41029SOL    HW131865   4.192   8.746   4.089 -1.7654  0.9884 -0.2963
41029SOL    HW231866   4.209   8.680   3.954  2.4006 -1.2294  1.1216
41030SOL     OW31867   6.320   8.054   7.269  0.5143 -0.6897  0.2366
41030SOL    HW131868   6.346   8.110   7.343 -0.5502  0.9006 -0.5534
41030SOL    HW231869   6.232   8.083   7.246  0.4850 -1.7479 -1.1098
41031SOL     OW31870   4.631  10.439   5.889  0.0197  0.2139 -0.0908
41031SOL    HW131871   4.544  10.460   5.853 -0.6054  0.0890  1.2824
41031SOL    HW231872   4.682  10.414   5.813 -0.9745  0.8673 -1.0145
41032SOL     OW31873   0.269   6.661   8.139  1.0188 -0.0883  0.2345
41032SOL    HW131874   0.350   6.663   8.190  2.4120  0.3132 -1.8721
41032SOL    HW231875   0.265   6.746   8.096  0.1872 -0.5964 -0.7478
41033SOL     OW31876   6.504   7.800   0.612 -0.6945  0.5800 -0.3759
41033SOL    HW131877   6.526   7.893   0.611  0.3153  0.3810  0.9210
41033SOL    HW231878   6.536   7.769   0.696 -1.2541 -0.8931 -0.6855
41034SOL     OW31879   2.471   6.414  11.380 -0.3324 -0.0639  0.4056
41034SOL    HW131880   2.390   6.463  11.394 -0.1847  0.0206  1.0142
41034SOL    HW231881   2.464   6.381  11.291  0.0203  1.9481 -0.4231
41035SOL     OW31882   4.440   8.885   4.234  0.5925  0.1429 -0.3741
41035SOL    HW131883   4.440   8.868   4.328  0.4201  1.6152 -0.0827
41035SOL    HW231884   4.379   8.821   4.198  1.6857 -1.3462  0.3112
41036SOL     OW31885   8.428   0.360  10.089  0.5081 -0.8043  0.2484
41036SOL    HW131886   8.429   0.419  10.014  1.0363  0.3521  1.1155
41036SOL    HW231887   8.510   0.310  10.082  0.7792 -0.3762  0.2756
41037SOL     OW31888  10.167   7.809   3.511 -0.2106 -0.1429 -0.5115
41037SOL    HW131889  10.224   7.733   3.517 -1.0457 -0.8730 -1.5019
41037SOL    HW231890  10.142   7.814   3.419 -1.5123  0.3228 -0.1634
41038SOL     OW31891   3.846   7.553  12.551 -0.6130  0.4206 -0.3321
41038SOL    HW131892   3.870   7.578  12.641  0.1054 -3.5996  0.8103
41038SOL    HW231893   3.922   7.579  12.498  0.1999  0.3093  0.7483
41039SOL     OW31894   1.486  10.237   4.305  0.1316  0.1816 -0.1473
41039SOL    HW131895   1.433  10.316   4.316 -0.3831  0.0439 -1.4668
41039SOL    HW231896   1.515  10.216   4.393 -1.7789  0.4272  0.5905
41040SOL     OW31897   4.193   5.645  11.921 -0.1913 -0.0311 -0.5596
41040SOL    HW131898   4.098   5.649  11.913 -0.3553 -0.8806  0.6278
41040SOL    HW231899   4.226   5.714  11.863 -1.5529  0.6380 -0.5645
41041SOL     OW31900   4.171   2.243   5.151  0.0326 -0.4866 -0.0345
41041SOL    HW131901   4.169   2.241   5.247 -1.5557 -0.2920 -0.0451
41041SOL    HW231902   4.226   2.319   5.130  0.4464 -0.5713  0.7101
41042SOL     OW31903  11.303   9.560  10.176 -0.4771  0.1957 -0.2053
41042SOL    HW131904  11.380   9.616  10.161 -0.5365 -0.3910 -3.2415
41042SOL    HW231905  11.231   9.606  10.133 -1.5560 -0.0301  1.2684
41043SOL     OW31906  10.438   8.501  11.098 -0.2052  0.0254 -0.1371
41043SOL    HW131907  10.424   8.428  11.159 -1.5992 -0.2005 -0.6999
41043SOL    HW231908  10.438   8.578  11.155 -0.3844 -0.2799  0.2902
41044SOL     OW31909   6.536   8.388   4.886 -0.1957  0.2424  0.2269
41044SOL    HW131910   6.544   8.389   4.791  0.3239 -0.9675  0.2500
41044SOL    HW231911   6.444   8.412   4.902 -0.3450  0.2407 -0.5792
41045SOL     OW31912   7.392  11.976   9.264  0.4004  0.0706 -0.1782
41045SOL    HW131913   7.323  12.037   9.239 -0.1946 -0.4501  0.1586
41045SOL    HW231914   7.474  12.023   9.248 -0.0266  0.5872 -0.8477
41046SOL     OW31915  10.791   4.693   4.721  0.0148 -0.0471 -0.0678
41046SOL    HW131916  10.747   4.624   4.771  0.8020  0.0770  0.8133
41046SOL    HW231917  10.802   4.765   4.783  1.0445  0.0936 -0.3984
41047SOL     OW31918  11.320   4.688   5.093  0.1321  0.0718  0.2482
41047SOL    HW131919  11.323   4.602   5.051 -1.5797 -0.1271  0.4453
41047SOL    HW231920  11.251   4.680   5.158 -0.1646  1.6392  0.1605
41048SOL     OW31921   1.643   4.695   3.654 -0.0325  0.2523 -0.0403
41048SOL    HW131922   1.658   4.790   3.657  0.8470  0.1341 -0.3981
41048SOL    HW231923   1.614   4.679   3.564 -2.3249  0.4617  0.6075
41049SOL     OW31924  11.744   2.816   4.984  0.6359 -0.3013  0.6853
41049SOL    HW131925  11.739   2.724   5.011  0.9646 -0.3736  0.5175
41049SOL    HW231926  11.667   2.829   4.929  0.9570 -0.6803  0.1258
41050SOL     OW31927   9.281   8.765   2.617 -0.5234  0.0144  0.3114
41050SOL    HW131928   9.306   8.675   2.601  0.2446  0.4192 -0.9551
41050SOL    HW231929   9.199   8.776   2.568 -0.4761  0.0831  0.2488
41051SOL     OW31930   9.257   7.448  10.244  0.3252  0.1190  0.3340
41051SOL    HW131931   9.221   7.520  10.297 -0.5338 -1.2574  1.7249
41051SOL    HW231932   9.201   7.373  10.266  2.2743 -1.4129  0.3132
41052SOL     OW31933   3.996   7.223   6.864 -0.0126  0.3009 -0.2824
41052SOL    HW131934   3.996   7.131   6.889  0.7756  0.5475  0.6625
41052SOL    HW231935   4.059   7.229   6.793  3.0697  0.7450  2.2814
41053SOL     OW31936   5.096   6.873   5.629 -0.1691 -0.1893 -0.6122
41053SOL    HW131937   5.034   6.851   5.560 -0.9351 -2.3646  0.6919
41053SOL    HW231938   5.182   6.867   5.587 -0.6620 -0.5726 -1.5950
41054SOL     OW31939  10.017   7.044  10.993 -0.0358 -0.1093 -0.1166
41054SOL    HW131940  10.062   7.026  11.076  0.0238  0.8395  0.0723
41054SOL    HW231941   9.928   7.069  11.019 -0.1274 -0.1632 -0.3694
41055SOL     OW31942  10.693   2.749  12.176 -0.3166 -0.5113  0.2609
41055SOL    HW131943  10.655   2.809  12.241 -0.7603 -0.9163  0.3808
41055SOL    HW231944  10.625   2.682  12.163 -0.3922 -0.2255 -0.9149
41056SOL     OW31945   8.829   2.377   0.489 -0.0371  0.3680  0.6227
41056SOL    HW131946   8.844   2.466   0.457  4.2634 -1.2022 -2.7205
41056SOL    HW231947   8.917   2.341   0.501 -1.4712 -3.9767 -0.1069
41057SOL     OW31948   4.669   1.670   7.794  0.1107 -0.2373  0.0244
41057SOL    HW131949   4.628   1.724   7.861  1.9572 -0.1223  1.1386
41057SOL    HW231950   4.736   1.620   7.841  0.3519 -1.3896 -1.4645
41058SOL     OW31951   7.773   8.916  10.764 -0.0616 -0.4009 -0.2302
41058SOL    HW131952   7.795   8.823  10.757 -1.2262 -0.6053 -1.6120
41058SOL    HW231953   7.677   8.918  10.767 -0.0355  0.6266  2.6625
41059SOL     OW31954   7.125   2.380   9.595 -0.2712 -0.3784 -0.0654
41059SOL    HW131955   7.170   2.425   9.524  1.3888 -0.3967  0.9061
41059SOL    HW231956   7.189   2.317   9.628 -1.1277 -0.6545  1.1752
41060SOL     OW31957   5.617   0.305   4.327  0.1978 -0.3821 -0.0468
41060SOL    HW131958   5.556   0.331   4.397 -1.2349  0.3214 -1.4978
41060SOL    HW231959   5.584   0.221   4.296  0.4570 -0.3851 -0.3145
41061SOL     OW31960   3.652   9.161   5.871 -0.2054  0.0554  0.4433
41061SOL    HW131961   3.674   9.069   5.856 -0.2106  0.0869  0.2353
41061SOL    HW231962   3.594   9.160   5.948  1.5223  0.0881  1.7972
41062SOL     OW31963   4.170  12.197   2.128  0.1292 -0.4330 -0.5496
41062SOL    HW131964   4.107  12.223   2.195 -1.7098 -0.5736 -2.1351
41062SOL    HW231965   4.255  12.199   2.173 -1.0693 -1.2185  1.9418
41063SOL     OW31966   4.842   0.364   0.818 -0.1667  0.1436  0.5144
41063SOL    HW131967   4.755   0.361   0.780  0.0486  0.8600 -0.0686
41063SOL    HW231968   4.850   0.454   0.852  0.0590 -0.1475  1.2606
41064SOL     OW31969   6.849   1.172   8.768  0.5521  0.2384 -0.1354
41064SOL    HW131970   6.830   1.094   8.819  0.2489 -0.0108 -0.6214
41064SOL    HW231971   6.937   1.198   8.796  1.0250 -0.7959 -0.6080
41065SOL     OW31972   8.722   4.163  11.155  0.3556  0.3080  0.5710
41065SOL    HW131973   8.749   4.071  11.150 -0.2579  0.1134  0.6842
41065SOL    HW231974   8.738   4.188  11.246 -2.4665 -0.6797  1.4540
41066SOL     OW31975  11.912   5.608   0.443 -0.1310  0.7829 -0.5919
41066SOL    HW131976  11.948   5.634   0.528  0.7539 -0.7820 -0.4427
41066SOL    HW231977  11.944   5.519   0.430  0.7927  1.3874 -3.1245
41067SOL     OW31978   2.370   0.765   1.427 -0.3271  0.2164  0.1655
41067SOL    HW131979   2.348   0.844   1.476 -0.0870 -0.6299  1.7039
41067SOL    HW231980   2.446   0.729   1.472 -0.3744 -0.8404 -0.5627
41068SOL     OW31981   6.803   5.396   8.753  0.5295  0.6515 -0.0033
41068SOL    HW131982   6.841   5.466   8.807  1.4473 -1.2529  1.9418
41068SOL    HW231983   6.843   5.408   8.667 -0.3972  3.3210 -0.1699
41069SOL     OW31984   3.153   7.130  11.340  0.0554  0.0869 -0.0372
41069SOL    HW131985   3.109   7.045  11.348  0.0697  0.2407  2.7794
41069SOL    HW231986   3.085   7.190  11.311 -0.2887 -0.6158 -0.7299
41070SOL     OW31987   0.158  10.376   0.326 -0.6582 -0.4055  0.0468
41070SOL    HW131988   0.222  10.447   0.315 -0.2547 -0.6051  1.0007
41070SOL    HW231989   0.151  10.365   0.421 -0.9434 -1.4402 -0.0855
41071SOL     OW31990   8.871   8.876   8.133 -0.0170  0.2698 -0.0368
41071SOL    HW131991   8.878   8.960   8.178 -2.0372  0.4233  0.0458
41071SOL    HW231992   8.922   8.816   8.188 -2.5359  0.4053  2.6615
41072SOL     OW31993  10.118   4.186   4.776 -0.3114 -0.0181  0.2771
41072SOL    HW131994  10.099   4.202   4.869  0.9913 -2.1183  0.9937
41072SOL    HW231995  10.213   4.193   4.770 -0.3973  0.2838 -0.9691
41073SOL     OW31996  10.928  10.390  10.517  0.5908  0.0883  0.3554
41073SOL    HW131997  10.977  10.422  10.441  1.4711  0.7454  1.1679
41073SOL    HW231998  10.984  10.321  10.554  0.7363  0.5889  1.0819
41074SOL     OW31999   9.324  11.421   1.919  0.5455 -0.4980 -0.0655
41074SOL    HW132000   9.321  11.327   1.936  0.8434 -0.4150  0.4791
41074SOL    HW232001   9.242  11.455   1.956  0.4061 -0.5490 -0.3235
41075SOL     OW32002  10.181   9.933   2.468  0.0335 -0.7612 -0.4296
41075SOL    HW132003  10.111   9.991   2.438  0.5597 -0.2213 -0.6373
41075SOL    HW232004  10.169   9.926   2.563 -0.8901 -1.4731 -0.5798
41076SOL     OW32005   4.613   5.318   8.830 -0.4973 -0.4281 -0.3542
41076SOL    HW132006   4.574   5.289   8.747  1.5536 -0.6223 -1.3224
41076SOL    HW232007   4.707   5.318   8.813 -0.1573  3.8480  0.5647
41077SOL     OW32008   9.607  11.676   3.975 -0.7307 -0.6033 -0.3402
41077SOL    HW132009   9.639  11.586   3.966  0.2274 -0.4138  0.9057
41077SOL    HW232010   9.540  11.685   3.907 -0.6871 -2.1860 -0.6185
41078SOL     OW32011  12.466   2.455   7.151  0.1322  0.4685  0.6377
41078SOL    HW132012  12.452   2.450   7.245  2.7712  2.5589  1.2832
41078SOL    HW232013  12.418   2.533   7.123  0.1599  0.4210  0.4527
41079SOL     OW32014   2.347   7.578   5.786  0.2596  0.0530  0.3538
41079SOL    HW132015   2.281   7.589   5.855 -0.7168 -0.1956 -0.5172
41079SOL    HW232016   2.312   7.509   5.730  0.6177  0.8404 -0.8802
41080SOL     OW32017   7.133   4.413   7.062  0.1090  0.7596 -0.0588
41080SOL    HW132018   7.203   4.381   7.005 -0.4337  1.2670 -1.0231
41080SOL    HW232019   7.143   4.362   7.142  0.9179  0.0693 -0.5831
41081SOL     OW32020   4.170   8.319   3.709  0.4182  0.4597  0.1754
41081SOL    HW132021   4.191   8.254   3.775 -0.3939  1.5537  1.5521
41081SOL    HW232022   4.254   8.359   3.687  0.3936  2.0210  2.6577
41082SOL     OW32023   4.744  12.059   0.323  0.2563 -0.3202 -0.1173
41082SOL    HW132024   4.741  11.964   0.319  1.2197 -0.4829  1.8143
41082SOL    HW232025   4.752  12.087   0.231  2.6131 -2.2325 -0.5843
41083SOL     OW32026   4.007   3.557   5.687 -0.4943  0.4500  0.0888
41083SOL    HW132027   4.017   3.526   5.777  1.0941 -0.2091 -0.2913
41083SOL    HW232028   3.981   3.480   5.637  0.7525  0.3011 -0.3722
41084SOL     OW32029   2.253   4.439   0.212 -0.5798  0.0231 -0.3230
41084SOL    HW132030   2.332   4.467   0.257  0.8048 -4.0267  0.1159
41084SOL    HW232031   2.181   4.469   0.268  0.9146 -1.0206  2.3208
41085SOL     OW32032   0.825  11.729   2.690 -0.0104 -0.7589  0.1080
41085SOL    HW132033   0.858  11.804   2.640 -0.7825  1.0137  2.1235
41085SOL    HW232034   0.748  11.762   2.735  0.0767 -2.5457  1.6827
41086SOL     OW32035   1.358   9.786   1.906 -0.6447  0.0110  0.0242
41086SOL    HW132036   1.382   9.725   1.977  0.2358 -0.2382 -0.4686
41086SOL    HW232037   1.441   9.803   1.861 -0.8024  1.8215  0.3242
41087SOL     OW32038   4.694   3.182   7.054 -0.0285 -0.1116  0.2852
41087SOL    HW132039   4.752   3.133   6.995  1.0295 -0.8245  1.8481
41087SOL    HW232040   4.617   3.201   7.001  0.5596 -1.3573 -1.1092
41088SOL     OW32041  10.992   3.293   8.048  0.2571 -0.0266  0.1164
41088SOL    HW132042  11.058   3.319   8.113 -1.1028  0.7731  1.2352
41088SOL    HW232043  10.968   3.204   8.072 -0.0251  0.1601  0.5420
41089SOL     OW32044  11.197   5.364   7.612 -0.1649 -0.9878 -0.4396
41089SOL    HW132045  11.120   5.334   7.563  0.2522 -1.7259 -0.6456
41089SOL    HW232046  11.271   5.320   7.571  0.4990  0.4313 -0.8605
41090SOL     OW32047   0.105  11.293   4.513 -0.3540 -0.1396 -0.0070
41090SOL    HW132048   0.020  11.269   4.475 -1.1094  2.8830 -0.4641
41090SOL    HW232049   0.088  11.303   4.606 -0.7183  1.1267 -0.1904
41091SOL     OW32050   8.888   6.247   4.231 -0.3716  0.8766 -0.1927
41091SOL    HW132051   8.833   6.285   4.163 -1.8729 -0.1387  0.3983
41091SOL    HW232052   8.862   6.155   4.234 -0.4614  0.9278  1.8391
41092SOL     OW32053   3.539   1.460   8.865  0.1980 -0.0017 -0.1486
41092SOL    HW132054   3.593   1.474   8.786  2.9282  0.4628  1.6548
41092SOL    HW232055   3.478   1.534   8.865  0.6814  0.4347 -1.4406
41093SOL     OW32056   2.553   3.115   5.567 -0.0892  0.3078  0.5912
41093SOL    HW132057   2.545   3.021   5.580  1.1983  0.2173  0.9186
41093SOL    HW232058   2.637   3.126   5.522 -0.1135  1.3047  0.7557
41094SOL     OW32059   1.794   4.376   3.913  0.5062 -0.3385  0.1668
41094SOL    HW132060   1.860   4.312   3.889  0.2027 -0.7078  0.2950
41094SOL    HW232061   1.713   4.325   3.922  0.0809  0.1947 -0.5663
41095SOL     OW32062   7.164   5.628  10.899 -0.2607 -0.0544 -0.7337
41095SOL    HW132063   7.191   5.710  10.858  2.2785 -1.0808 -1.3279
41095SOL    HW232064   7.162   5.648  10.993  0.5310  0.6563 -0.8559
41096SOL     OW32065  11.813   6.490   6.338  0.2324 -0.0955 -0.2031
41096SOL    HW132066  11.839   6.525   6.252 -0.1037 -0.5245 -0.4859
41096SOL    HW232067  11.767   6.409   6.317 -0.7840  0.3296  0.3190
41097SOL     OW32068   4.784   8.008   9.606 -0.3119 -0.6718  0.2484
41097SOL    HW132069   4.711   8.047   9.559  0.2873 -0.4454 -0.5291
41097SOL    HW232070   4.774   8.037   9.696 -1.3941 -0.9720  0.2326
41098SOL     OW32071   4.949  11.315   4.061  0.1984  0.3660 -0.4980
41098SOL    HW132072   4.966  11.341   3.970 -1.8055 -1.1467 -1.3933
41098SOL    HW232073   5.023  11.259   4.084  0.8298  0.9288 -1.1191
41099SOL     OW32074   7.110  12.408   1.586 -0.7761 -0.5772 -0.6328
41099SOL    HW132075   7.168  12.484   1.583 -0.5365 -0.7391 -0.1918
41099SOL    HW232076   7.067  12.407   1.500 -1.1286  0.3186 -0.4765
41100SOL     OW32077  10.015   8.574   4.499 -0.3713 -0.2311 -0.6480
41100SOL    HW132078   9.970   8.654   4.524  1.3750  0.3726  0.7704
41100SOL    HW232079  10.003   8.567   4.405 -2.6221  0.3447 -0.4611
41101SOL     OW32080   5.330   5.706   0.019 -0.5750  0.1223 -0.1300
41101SOL    HW132081   5.281   5.777   0.061 -1.3723 -0.4605 -0.0559
41101SOL    HW232082   5.373   5.747  -0.056 -0.7112  0.7616  0.1364
41102SOL     OW32083   4.038   9.310   5.565  0.1600  0.3018  0.0834
41102SOL    HW132084   3.962   9.318   5.507 -0.3254  1.0407  0.7800
41102SOL    HW232085   4.009   9.350   5.647  1.6203  1.4975  0.0627
41103SOL     OW32086   3.368   9.643   1.904  0.1841  0.6972  0.1169
41103SOL    HW132087   3.388   9.735   1.922 -0.8847  1.0840 -0.5680
41103SOL    HW232088   3.384   9.633   1.810 -2.0825  0.8661 -0.3438
41104SOL     OW32089  12.108   6.755   2.387  0.1935  0.2648  0.2654
41104SOL    HW132090  12.126   6.760   2.293  1.4666 -0.2134  0.4614
41104SOL    HW232091  12.191   6.782   2.428 -0.7555  1.8094  1.2656
41105SOL     OW32092   0.318   9.513   6.493 -0.1835  0.1221  0.2171
41105SOL    HW132093   0.336   9.590   6.546  1.4501 -0.3387  0.3836
41105SOL    HW232094   0.256   9.543   6.427 -0.1638  1.3735  0.7476
41106SOL     OW32095   7.192   8.057   3.415 -0.1093 -0.4405  0.3384
41106SOL    HW132096   7.216   7.975   3.458  2.4267 -0.5773 -1.1511
41106SOL    HW232097   7.231   8.125   3.470 -0.2559 -0.3672  0.3517
41107SOL     OW32098   9.400   4.531   7.602 -0.0810 -0.0363 -0.0815
41107SOL    HW132099   9.339   4.564   7.536 -0.9029 -0.4654  0.4479
41107SOL    HW232100   9.376   4.577   7.682  0.0098 -0.5130  0.2256
41108SOL     OW32101  12.191   9.203  12.186 -0.3637  0.3228 -0.0287
41108SOL    HW132102  12.158   9.292  12.173 -0.7740  0.4718  1.7256
41108SOL    HW232103  12.122   9.147  12.151  0.3057  0.6670 -1.9969
41109SOL     OW32104   4.638   9.255   3.787  0.5819 -0.1138 -0.5218
41109SOL    HW132105   4.606   9.329   3.839  0.6219 -0.0779 -0.5477
41109SOL    HW232106   4.590   9.262   3.704  0.4948 -0.1890 -0.4781
41110SOL     OW32107   1.270   4.188   1.927 -0.0360 -0.3238 -0.3100
41110SOL    HW132108   1.352   4.236   1.932 -1.3015  1.8258  1.0944
41110SOL    HW232109   1.267   4.136   2.007 -0.4536  0.3742  0.1438
41111SOL     OW32110   1.752   3.281  11.912 -0.0326  0.3642 -1.0371
41111SOL    HW132111   1.662   3.303  11.889 -1.2004 -2.4772  0.3017
41111SOL    HW232112   1.778   3.215  11.847 -0.1460 -1.1592  0.3869
41112SOL     OW32113   6.180   2.424   8.109 -0.0308  0.0293 -0.1908
41112SOL    HW132114   6.244   2.363   8.144  0.8757  0.2189 -1.4444
41112SOL    HW232115   6.115   2.369   8.065 -1.0506 -0.1937  1.5325
41113SOL     OW32116   0.531   7.493  12.206  1.0126 -0.2849  0.2769
41113SOL    HW132117   0.483   7.418  12.170  1.9147 -1.0138  0.5344
41113SOL    HW232118   0.620   7.460  12.219  1.6107  1.0569 -0.2646
41114SOL     OW32119   9.876   8.698  12.146  0.1137 -0.1483 -0.0022
41114SOL    HW132120   9.919   8.669  12.065 -1.8160 -2.0368 -0.4332
41114SOL    HW232121   9.863   8.618  12.196 -1.4514  0.5901  0.8294
41115SOL     OW32122  12.078   2.537  12.599 -0.4666  0.4234  0.4127
41115SOL    HW132123  12.049   2.449  12.620  0.4088 -0.4996 -1.8592
41115SOL    HW232124  12.171   2.538  12.623 -0.1404  0.2308 -0.7431
41116SOL     OW32125  11.952   6.872   1.462  0.0989  0.0773  0.2387
41116SOL    HW132126  12.016   6.800   1.467 -0.6224 -0.6924 -1.1034
41116SOL    HW232127  11.996   6.939   1.410  0.4662  0.2948  0.8142
41117SOL     OW32128   9.410  11.051   8.174 -0.2175  0.3016  0.1292
41117SOL    HW132129   9.362  11.131   8.153 -1.8342 -0.2203  1.5837
41117SOL    HW232130   9.395  11.037   8.268  1.2477 -0.9289  0.2336
41118SOL     OW32131   6.048   4.015  10.773 -0.1386  0.2702 -0.1513
41118SOL    HW132132   5.998   4.095  10.789 -0.5478  0.0987 -0.5665
41118SOL    HW232133   5.992   3.944  10.804 -1.0868 -0.1038 -2.5009
41119SOL     OW32134   0.093   5.799   9.092  0.1159 -0.5634 -0.0478
41119SOL    HW132135   0.068   5.782   9.183  1.5416 -0.0798  0.4656
41119SOL    HW232136   0.132   5.717   9.062 -0.0303 -0.6117 -0.1056
41120SOL     OW32137   2.760   1.075   1.700 -0.0368  0.2644 -0.4981
41120SOL    HW132138   2.684   1.107   1.749 -0.7072 -0.3526 -1.1235
41120SOL    HW232139   2.750   1.113   1.612  0.3405  0.1085 -0.6124
41121SOL     OW32140   1.421   1.231   4.890 -0.2022  0.2096  0.0032
41121SOL    HW132141   1.347   1.195   4.939 -0.9861 -0.4736 -1.6130
41121SOL    HW232142   1.406   1.325   4.888 -1.6958 -0.0111 -1.2628
41122SOL     OW32143  12.218  11.859   5.196  0.2633 -0.3094 -0.1909
41122SOL    HW132144  12.159  11.933   5.185 -0.7743 -1.4377 -2.9960
41122SOL    HW232145  12.163  11.792   5.238  0.6264 -0.1967  0.4826
41123SOL     OW32146   9.564  12.065   5.508 -0.1419  0.6919 -0.3627
41123SOL    HW132147   9.650  12.049   5.546  0.0900  0.5092 -0.9437
41123SOL    HW232148   9.582  12.114   5.428 -0.5265  0.1574 -0.7909
41124SOL     OW32149  11.166   9.988   0.864  0.2333  0.2769 -0.3835
41124SOL    HW132150  11.197   9.979   0.954  1.9301 -0.1872 -0.9758
41124SOL    HW232151  11.148  10.081   0.854 -0.4531  0.2590  0.5810
41125SOL     OW32152   1.238   8.638   6.066 -0.2198 -0.2425  0.1108
41125SOL    HW132153   1.195   8.566   6.020 -1.0142  0.0521  0.3728
41125SOL    HW232154   1.326   8.640   6.030 -0.0759 -1.5602  0.3375
41126SOL     OW32155  12.584  11.768  12.529  0.2599 -0.1803 -0.1343
41126SOL    HW132156  12.609  11.859  12.547  1.7457 -0.3320 -1.2322
41126SOL    HW232157  12.580  11.762  12.434  0.1727 -1.2678 -0.0788
41127SOL     OW32158  12.143   3.856   3.374  0.5324 -0.4587  0.2753
41127SOL    HW132159  12.125   3.905   3.294 -0.5539  1.5806  1.6937
41127SOL    HW232160  12.067   3.799   3.384 -1.5832  2.4372  2.0575
41128SOL     OW32161   5.470  10.175   6.555  0.0667  0.0822  0.0363
41128SOL    HW132162   5.536  10.123   6.601 -0.6515 -0.8056  0.0916
41128SOL    HW232163   5.469  10.258   6.602 -0.3136 -0.6292  1.3588
41129SOL     OW32164   2.112   3.276   3.613  0.3010  0.0963  0.0069
41129SOL    HW132165   2.025   3.314   3.627  0.4171  0.1884  0.4832
41129SOL    HW232166   2.115   3.201   3.673  0.6938  0.3152  0.2576
41130SOL     OW32167   0.699   1.024   0.690  0.1819 -0.0006 -0.3734
41130SOL    HW132168   0.677   0.932   0.677 -0.5695 -0.0219  0.8652
41130SOL    HW232169   0.700   1.035   0.785 -3.2716  2.0350 -0.4086
41131SOL     OW32170  10.852   7.494  12.292  0.2201 -0.3880  0.1230
41131SOL    HW132171  10.854   7.538  12.377  1.1191 -0.9736  0.4228
41131SOL    HW232172  10.770   7.445  12.292  1.0986 -1.9810  1.5233
41132SOL     OW32173   2.934   2.281  12.566  0.4109  0.2419  0.1359
41132SOL    HW132174   2.844   2.291  12.536  0.6890 -1.0134 -1.2133
41132SOL    HW232175   2.988   2.308  12.491  1.2660  2.9603  1.5583
41133SOL     OW32176   4.396   2.050   0.930 -0.2262  0.6358  0.5578
41133SOL    HW132177   4.424   1.961   0.953 -2.1761  0.0635  0.8874
41133SOL    HW232178   4.474   2.091   0.893  0.9887 -0.8745  1.3519
41134SOL     OW32179  11.660   4.871   7.360 -0.3346 -0.5281 -0.0269
41134SOL    HW132180  11.614   4.865   7.276  0.4929  1.5190 -0.7013
41134SOL    HW232181  11.741   4.822   7.347 -1.6490 -3.0359  0.7346
41135SOL     OW32182  10.702   4.612  11.753 -0.1527  0.0924 -0.8300
41135SOL    HW132183  10.756   4.681  11.790  0.1707 -0.1881 -0.7736
41135SOL    HW232184  10.628   4.604  11.814 -0.1193  0.2938 -0.7639
41136SOL     OW32185   3.332   3.964   0.340  0.6332  0.1081 -0.2679
41136SOL    HW132186   3.426   3.981   0.344  0.9604 -1.5902 -0.2429
41136SOL    HW232187   3.321   3.900   0.270 -0.4339 -0.1392  0.0921
41137SOL     OW32188  11.447   0.608   4.136  0.1104 -0.2311 -0.1472
41137SOL    HW132189  11.400   0.603   4.219  0.6493  0.7590  0.2273
41137SOL    HW232190  11.387   0.654   4.077 -0.6664 -1.7732 -0.6132
41138SOL     OW32191   5.898   2.014   2.670  0.1374  0.1063  0.1030
41138SOL    HW132192   5.930   1.956   2.602 -0.2722 -0.1252  0.1076
41138SOL    HW232193   5.894   1.960   2.749 -2.9149 -0.6785 -0.4741
41139SOL     OW32194   5.057   8.554  11.636  0.0120  0.6314 -0.2119
41139SOL    HW132195   4.976   8.598  11.663 -0.5521  0.2138 -1.1761
41139SOL    HW232196   5.090   8.608  11.564  0.1442  0.3183 -0.3829
41140SOL     OW32197   6.674  11.881   0.622  0.2815  0.1864 -0.0268
41140SOL    HW132198   6.656  11.869   0.715 -0.1095 -2.4242 -0.3468
41140SOL    HW232199   6.730  11.807   0.599  4.1133  3.1109 -1.0396
41141SOL     OW32200   7.085  10.909  10.551 -0.5484  0.2160 -0.2484
41141SOL    HW132201   7.174  10.872  10.555 -1.7901 -2.9835  2.5547
41141SOL    HW232202   7.038  10.852  10.490 -1.3787  0.1243  0.4720
41142SOL     OW32203   0.467   6.412   4.211 -0.3231  0.2837 -0.5020
41142SOL    HW132204   0.495   6.374   4.128  0.6563  1.1999 -0.6111
41142SOL    HW232205   0.528   6.377   4.276  0.1748  1.1170 -0.5018
41143SOL     OW32206   9.836   1.199   2.195  0.3525 -0.2599  0.7220
41143SOL    HW132207   9.757   1.178   2.146  0.8383  1.0482 -0.7114
41143SOL    HW232208   9.907   1.184   2.133  1.1296 -0.1922  1.5771
41144SOL     OW32209   9.163   2.305   4.815 -0.8817  0.1333  0.2839
41144SOL    HW132210   9.141   2.358   4.892 -1.5828  0.6674 -0.2748
41144SOL    HW232211   9.105   2.230   4.820 -2.5707  1.2987 -0.9250
41145SOL     OW32212   8.831   6.732   7.604  0.2556  0.4883 -0.3245
41145SOL    HW132213   8.862   6.651   7.643  1.5246  2.0628  2.2121
41145SOL    HW232214   8.738   6.716   7.588 -0.4405 -0.3967  3.5276
41146SOL     OW32215   5.347   4.700   0.202 -0.5422 -0.0046  0.3851
41146SOL    HW132216   5.363   4.770   0.266  3.2460 -0.4585  0.1604
41146SOL    HW232217   5.339   4.621   0.256  1.6023 -0.2332  0.4537
41147SOL     OW32218   3.263   9.616   7.101  0.3138  0.4365  0.6146
41147SOL    HW132219   3.309   9.542   7.141 -0.9987 -0.4427  0.5681
41147SOL    HW232220   3.222   9.662   7.174 -1.2473 -0.5871  0.4416
41148SOL     OW32221   0.397   8.085  11.301 -0.1560 -0.2679  0.3759
41148SOL    HW132222   0.344   8.164  11.316  0.7640  0.6886 -1.1301
41148SOL    HW232223   0.487   8.116  11.305  0.2121 -1.0197 -1.2366
41149SOL     OW32224   2.339   3.507  11.361 -0.4034 -0.2628 -0.2148
41149SOL    HW132225   2.337   3.505  11.265  1.4427  0.1253 -0.2960
41149SOL    HW232226   2.401   3.439  11.385  1.6696  1.7386  0.5056
41150SOL     OW32227   6.828   2.473   5.102 -0.1766  0.0234 -0.0990
41150SOL    HW132228   6.764   2.438   5.164  0.4931 -1.1748 -0.0416
41150SOL    HW232229   6.911   2.434   5.129  0.3391  0.4737 -0.9872
41151SOL     OW32230   1.752   1.048   8.605  0.1621  0.1666  0.2957
41151SOL    HW132231   1.842   1.045   8.571  0.0007  0.5697 -0.1798
41151SOL    HW232232   1.722   0.957   8.600  0.1462  0.2114 -0.6528
41152SOL     OW32233  12.009   9.539   3.005  0.3047 -0.2472 -0.5873
41152SOL    HW132234  11.992   9.628   3.035 -1.1215 -1.0233  1.0769
41152SOL    HW232235  12.058   9.498   3.077  2.3551 -0.4025 -1.9846
41153SOL     OW32236   7.557   2.789  11.320 -0.4962  0.2368  0.1475
41153SOL    HW132237   7.618   2.811  11.250  1.2927 -1.7449  0.9684
41153SOL    HW232238   7.485   2.852  11.310  0.3879  0.9593 -2.5050
41154SOL     OW32239   3.814   5.387  11.966 -0.1605  0.4859  0.2713
41154SOL    HW132240   3.763   5.399  12.046 -2.9020  0.2886 -1.3140
41154SOL    HW232241   3.752   5.351  11.903  2.3804 -1.3757 -1.4004
41155SOL     OW32242   9.797   9.152   5.499 -0.3773  0.3255  1.0234
41155SOL    HW132243   9.733   9.082   5.503 -0.9518  0.7542 -0.0951
41155SOL    HW232244   9.863   9.121   5.437 -0.0892  0.3463  1.3188
41156SOL     OW32245  11.971   7.284   9.035  0.5056 -0.7534 -0.1737
41156SOL    HW132246  11.967   7.221   8.963 -3.7851 -0.6473 -0.2958
41156SOL    HW232247  12.010   7.362   8.997  3.5248 -2.3568 -0.7019
41157SOL     OW32248   2.286   5.201   6.573 -0.2984  0.1512 -0.0976
41157SOL    HW132249   2.195   5.229   6.563 -0.3428 -0.0533 -0.2799
41157SOL    HW232250   2.304   5.148   6.495  0.4801  1.5109 -0.8773
41158SOL     OW32251   6.898   3.521   1.059  0.2750 -0.1419  0.4184
41158SOL    HW132252   6.960   3.449   1.071  1.1888  0.3488 -1.0782
41158SOL    HW232253   6.927   3.588   1.120  0.5624 -0.3245  0.4858
41159SOL     OW32254   1.975   2.956   3.621 -0.4057  0.3161  0.0070
41159SOL    HW132255   2.056   2.937   3.669 -1.0018 -0.0704  0.8657
41159SOL    HW232256   2.006   2.992   3.538  0.6416  2.2084  1.1459
41160SOL     OW32257   3.012   4.305   0.016  0.0362  0.3991  0.8298
41160SOL    HW132258   3.038   4.293   0.107  0.1473 -0.8885  0.6580
41160SOL    HW232259   3.093   4.328  -0.029 -0.0045  0.9604  1.0377
41161SOL     OW32260   9.772   1.236  10.812 -0.3105 -0.0583  0.1726
41161SOL    HW132261   9.791   1.318  10.766  1.8436 -0.2208  0.6454
41161SOL    HW232262   9.758   1.263  10.903  2.8024 -0.3156  0.8421
41162SOL     OW32263   0.996   9.398   9.448 -0.2366 -0.1406 -0.5298
41162SOL    HW132264   1.044   9.476   9.476  0.8309 -0.3837 -1.5973
41162SOL    HW232265   0.926   9.431   9.391 -0.6333  0.1254  0.1019
41163SOL     OW32266   3.223   6.465   1.591  0.0492  0.2590  0.6788
41163SOL    HW132267   3.165   6.413   1.535  0.4155  0.1808  0.3663
41163SOL    HW232268   3.277   6.515   1.529 -0.3410  1.0613  0.9762
41164SOL     OW32269  11.057   5.473   8.823 -0.0214 -0.0278  0.1337
41164SOL    HW132270  11.021   5.424   8.897 -0.1249  1.6555  1.2570
41164SOL    HW232271  11.108   5.543   8.864  3.3518 -1.4026 -1.3614
41165SOL     OW32272  12.548   2.205   1.433  0.2770 -0.5540  0.7843
41165SOL    HW132273  12.507   2.167   1.355  0.7533 -0.2296  0.3693
41165SOL    HW232274  12.485   2.188   1.504 -0.5580 -0.0998  0.1739
41166SOL     OW32275   3.531   6.401   0.868 -0.1333  0.1662  0.2893
41166SOL    HW132276   3.456   6.403   0.928  1.2632 -1.5464  2.2804
41166SOL    HW232277   3.513   6.327   0.810 -0.1015 -0.1566  0.6785
41167SOL     OW32278   6.121   3.632   4.967  0.2138 -0.4788 -0.2113
41167SOL    HW132279   6.096   3.641   4.875  0.8400 -2.0627 -0.5797
41167SOL    HW232280   6.165   3.714   4.989 -1.1209  0.4437 -0.9233
41168SOL     OW32281   4.514   7.757   1.877  0.5348 -0.4174  0.7952
41168SOL    HW132282   4.566   7.704   1.817 -0.2171 -0.6283  0.3086
41168SOL    HW232283   4.540   7.847   1.860  0.1624 -0.4541 -0.0305
41169SOL     OW32284   2.819   7.403   2.373 -0.3206  0.0315  0.0238
41169SOL    HW132285   2.737   7.403   2.422 -0.2428 -0.6904  0.1549
41169SOL    HW232286   2.799   7.358   2.291  0.3597 -1.7246  0.7756
41170SOL     OW32287   1.721   2.659   5.309  0.3476  0.2603  0.1358
41170SOL    HW132288   1.638   2.686   5.270  0.7889 -0.0598 -1.0760
41170SOL    HW232289   1.696   2.618   5.392 -0.9129 -1.7006 -1.1259
41171SOL     OW32290  10.166   6.512  11.729 -0.1310 -0.2927 -0.4212
41171SOL    HW132291  10.149   6.603  11.753 -0.5923 -0.6358  0.6043
41171SOL    HW232292  10.084   6.467  11.749  0.6731 -1.2569  0.7830
41172SOL     OW32293   7.327   2.335  12.519  0.4275  0.5497 -0.1943
41172SOL    HW132294   7.370   2.342  12.434  1.0002 -0.3344  0.0150
41172SOL    HW232295   7.393   2.364  12.582 -0.4178  2.4882 -0.1239
41173SOL     OW32296   6.188   9.701   8.409  0.5811  0.0580  0.0241
41173SOL    HW132297   6.170   9.655   8.491  0.5259 -0.1913 -0.1271
41173SOL    HW232298   6.191   9.793   8.434 -1.9863  0.2561 -0.1026
41174SOL     OW32299   3.089   6.308   1.419  0.0846 -0.8429  0.0764
41174SOL    HW132300   3.111   6.352   1.336  0.7230  1.4432  1.3888
41174SOL    HW232301   3.062   6.220   1.392 -1.1156  0.2492 -2.6811
41175SOL     OW32302   7.124   6.679   5.547  0.5086 -0.0053 -0.2569
41175SOL    HW132303   7.147   6.608   5.488  0.4715 -0.3291  0.1153
41175SOL    HW232304   7.195   6.682   5.611 -0.6669 -1.3570  1.2135
41176SOL     OW32305   0.762  12.439   6.620 -0.2907 -0.3825 -0.0308
41176SOL    HW132306   0.826  12.368   6.634 -0.3662 -0.2240  1.2332
41176SOL    HW232307   0.698  12.428   6.690 -1.6758 -0.5313 -1.2834
41177SOL     OW32308   7.228   6.725  10.652 -0.1681 -0.4241 -0.4314
41177SOL    HW132309   7.231   6.686  10.564 -2.2966 -1.2502 -0.1986
41177SOL    HW232310   7.193   6.813  10.639  0.1198 -0.3166 -0.4778
41178SOL     OW32311   5.470   9.341  10.187  0.1549  0.1446 -1.4852
41178SOL    HW132312   5.456   9.427  10.145 -0.3506 -0.1000 -1.8364
41178SOL    HW232313   5.474   9.280  10.114  1.5839 -0.0152 -1.3009
41179SOL     OW32314  11.238   8.458  11.970 -0.2992 -0.1302 -0.3832
41179SOL    HW132315  11.197   8.408  11.899  0.6296  0.7167 -1.5528
41179SOL    HW232316  11.186   8.538  11.976 -0.1883 -0.0633 -0.3113
41180SOL     OW32317   3.112   1.565   8.196 -0.0827 -0.5799  0.0875
41180SOL    HW132318   3.159   1.496   8.150 -1.0849 -1.5975  0.5342
41180SOL    HW232319   3.020   1.553   8.171 -0.1946  1.1127 -0.4590
41181SOL     OW32320   9.673   8.321   1.688  0.4454  0.0068 -0.3783
41181SOL    HW132321   9.709   8.331   1.777  0.6472 -0.0277 -0.4559
41181SOL    HW232322   9.655   8.227   1.680  2.4546 -0.3502 -1.1449
41182SOL     OW32323  10.020   0.672   8.856 -0.0620  0.1377  0.0909
41182SOL    HW132324  10.068   0.731   8.798 -0.4380  1.8670  1.4466
41182SOL    HW232325   9.996   0.598   8.800  0.2668  1.3467 -1.7423
41183SOL     OW32326   9.687   1.620  11.556  0.2195  0.5318 -0.0436
41183SOL    HW132327   9.725   1.696  11.599  2.2654 -1.0004  1.0116
41183SOL    HW232328   9.761   1.562  11.539 -1.2525 -1.2157 -0.8753
41184SOL     OW32329   8.517   4.355   4.320  0.5089 -0.3769 -0.1024
41184SOL    HW132330   8.564   4.274   4.299  1.5565  0.2620 -0.3306
41184SOL    HW232331   8.486   4.387   4.235 -2.6379 -2.0857  0.2759
41185SOL     OW32332   8.070   0.228   1.365 -0.1952 -0.4853 -0.5180
41185SOL    HW132333   8.142   0.291   1.371 -2.3946  2.3650 -1.7224
41185SOL    HW232334   8.081   0.172   1.442  2.5481  0.6247  0.0108
41186SOL     OW32335  11.056   6.297  11.190 -0.1408  0.4151  0.3195
41186SOL    HW132336  11.023   6.326  11.105 -0.6213 -0.0653  0.3343
41186SOL    HW232337  11.015   6.357  11.253  0.6408  1.1167  0.1801
41187SOL     OW32338   7.693   7.003   2.792  0.0433  0.4805  0.0198
41187SOL    HW132339   7.765   6.945   2.816 -1.3041 -2.0433 -1.6072
41187SOL    HW232340   7.732   7.091   2.793  2.1818 -0.3488  2.5905
41188SOL     OW32341   1.603   0.376   3.829 -0.6010 -0.0587 -0.1466
41188SOL    HW132342   1.512   0.399   3.811 -0.7002 -0.1401  0.2403
41188SOL    HW232343   1.654   0.427   3.766 -1.1104 -2.9656 -3.1871
41189SOL     OW32344   7.116   0.357  11.994 -0.3719 -0.0081  0.1117
41189SOL    HW132345   7.188   0.370  11.932 -0.3253 -1.8177 -0.2618
41189SOL    HW232346   7.037   0.368  11.941 -0.3456 -0.2637  0.0192
41190SOL     OW32347  12.532   8.030   7.875  0.6574 -0.8556  0.1949
41190SOL    HW132348  12.499   7.985   7.798  3.3210 -1.6194 -0.5929
41190SOL    HW232349  12.517   7.968   7.947  1.1542 -1.5360 -0.2818
41191SOL     OW32350  11.797   1.724  12.490 -0.2612 -0.2272  0.1196
41191SOL    HW132351  11.709   1.701  12.521 -0.3905 -1.8558 -1.2851
41191SOL    HW232352  11.799   1.819  12.492 -1.8808 -0.1785  0.6697
41192SOL     OW32353   6.875  11.247  12.045 -0.1052 -0.5144  0.2563
41192SOL    HW132354   6.929  11.169  12.057  0.0223 -0.4079  0.3819
41192SOL    HW232355   6.830  11.258  12.129 -0.2214 -0.5257  0.1961
41193SOL     OW32356   0.325  10.209   7.121 -0.5077  0.5475 -0.4797
41193SOL    HW132357   0.415  10.241   7.116 -0.3011  0.1941  0.6591
41193SOL    HW232358   0.321  10.162   7.204 -0.9141 -1.9829 -1.8324
41194SOL     OW32359   7.427   4.312   0.287  0.0502  0.0715 -0.1863
41194SOL    HW132360   7.477   4.361   0.221 -0.7484  1.8356  0.4325
41194SOL    HW232361   7.349   4.283   0.240  0.2847 -0.1473 -0.4412
41195SOL     OW32362   6.803   9.802  11.913 -0.0280  0.2146  0.6964
41195SOL    HW132363   6.893   9.819  11.886  0.0321 -2.3910 -1.2087
41195SOL    HW232364   6.807   9.794  12.008  1.9191 -0.4851  0.6085
41196SOL     OW32365  12.311   4.665   4.781 -0.2791  0.3471  0.3425
41196SOL    HW132366  12.327   4.756   4.758  2.5701  0.3809  1.9561
41196SOL    HW232367  12.278   4.668   4.871  2.7908 -0.1763  1.6215
41197SOL     OW32368   7.663   3.219   1.392  0.0864  0.4986  0.2427
41197SOL    HW132369   7.689   3.142   1.341  0.9222  0.5134  0.6385
41197SOL    HW232370   7.614   3.183   1.466  1.7511  0.2140  1.2430
41198SOL     OW32371   5.363   4.110   1.263  0.2916  0.2270 -0.6185
41198SOL    HW132372   5.282   4.091   1.215  0.0658  0.4451 -0.3263
41198SOL    HW232373   5.337   4.173   1.330  0.2221 -1.4533  1.0051
41199SOL     OW32374   3.876  12.487   9.742  0.2110  0.1587  0.9558
41199SOL    HW132375   3.909  12.509   9.655 -0.8468  1.0320  0.7595
41199SOL    HW232376   3.921  12.406   9.765  1.4473  0.5870  0.1316
41200SOL     OW32377   4.215   3.151   3.916 -0.7401 -0.2526  0.1757
41200SOL    HW132378   4.242   3.066   3.950 -1.6015 -0.9662 -0.8766
41200SOL    HW232379   4.212   3.208   3.993 -0.6575 -1.3054  0.9741
41201SOL     OW32380   6.916  11.468  11.282 -0.2499  0.1177 -0.0948
41201SOL    HW132381   6.947  11.543  11.230  0.2153  1.1081  1.5309
41201SOL    HW232382   6.850  11.505  11.340 -0.4904 -0.8826  0.2886
41202SOL     OW32383  11.227   6.568   2.989  0.1471  0.5548  0.1110
41202SOL    HW132384  11.164   6.532   3.052  0.4185  1.6803  1.0603
41202SOL    HW232385  11.262   6.645   3.033 -1.5013  2.9009 -2.3978
41203SOL     OW32386   2.023   0.133  11.009 -0.0153 -0.4015  0.2988
41203SOL    HW132387   2.070   0.053  10.985  1.0000 -0.2755  1.7586
41203SOL    HW232388   2.069   0.166  11.086 -0.6481  1.4061 -0.0593
41204SOL     OW32389   5.057   8.342   2.028 -0.7754 -0.2242 -0.2398
41204SOL    HW132390   4.974   8.387   2.010 -1.2346 -0.8991  0.1598
41204SOL    HW232391   5.123   8.411   2.020 -1.4548  0.5045  0.2632
41205SOL     OW32392   7.382   1.064  11.566  0.5682 -0.6377  0.7615
41205SOL    HW132393   7.424   1.021  11.640 -1.6827 -1.3766  1.6687
41205SOL    HW232394   7.392   1.002  11.493 -0.8502 -1.8318  1.5407
41206SOL     OW32395   5.073   3.882  10.575 -0.4621 -0.4591 -0.7097
41206SOL    HW132396   4.979   3.894  10.585 -0.2255  0.0512  1.2712
41206SOL    HW232397   5.097   3.939  10.502 -1.9175 -2.0094 -2.5250
41207SOL     OW32398   1.118  11.865   3.602 -0.3585  0.1143  0.2035
41207SOL    HW132399   1.066  11.891   3.679 -0.1812  0.8454  0.0810
41207SOL    HW232400   1.064  11.891   3.527 -0.2622 -0.0552  0.0729
41208SOL     OW32401   3.249   1.931   6.839  0.3374 -0.1483  0.6690
41208SOL    HW132402   3.340   1.918   6.869  0.7200  0.4495 -0.1933
41208SOL    HW232403   3.212   1.843   6.836  0.7008 -0.3460  1.5963
41209SOL     OW32404  12.566  10.135   4.088  0.8324 -0.0019 -0.1882
41209SOL    HW132405  12.608  10.221   4.081 -1.4525  1.2032  0.2024
41209SOL    HW232406  12.557  10.105   3.998  1.5595  0.1758 -0.3285
41210SOL     OW32407   4.745  12.416   7.088 -0.2568  0.2573  0.4669
41210SOL    HW132408   4.728  12.509   7.105 -1.1444  0.5677 -1.8121
41210SOL    HW232409   4.745  12.376   7.175  0.0581  2.3521  1.5041
41211SOL     OW32410   8.639   0.210   9.751 -0.0075  0.1475  0.4325
41211SOL    HW132411   8.688   0.128   9.757 -0.8910 -0.4165  0.1411
41211SOL    HW232412   8.704   0.278   9.769  0.6646 -0.6285  1.0103
41212SOL     OW32413   0.964  10.989   4.027  0.4877 -0.4864 -0.1330
41212SOL    HW132414   0.878  11.007   3.990  0.3166 -0.8491  0.0781
41212SOL    HW232415   1.016  11.068   4.009 -0.1445  0.0888  0.4858
41213SOL     OW32416   7.420  12.524   1.599 -0.3255 -0.1410 -0.3725
41213SOL    HW132417   7.428  12.614   1.569  0.8568 -0.1344 -0.0677
41213SOL    HW232418   7.381  12.531   1.686  0.1685  0.1027 -0.1717
41214SOL     OW32419   1.000  10.506   2.422  0.2243 -0.0622 -0.2534
41214SOL    HW132420   0.912  10.504   2.384  0.6000  1.1572 -1.2720
41214SOL    HW232421   1.033  10.417   2.412 -1.0256 -0.6181  0.4760
41215SOL     OW32422   7.758   7.332   3.731  0.4042  0.7904 -0.4030
41215SOL    HW132423   7.736   7.240   3.746  1.2440  0.5594 -0.5435
41215SOL    HW232424   7.737   7.347   3.639 -1.6858  1.3250  0.1019
41216SOL     OW32425   7.485   9.447   3.280  0.1661  0.5382 -0.0390
41216SOL    HW132426   7.551   9.504   3.319  0.8571 -1.8184  2.5722
41216SOL    HW232427   7.534   9.370   3.252 -1.0533  0.1882 -1.2994
41217SOL     OW32428   8.161   4.998   7.170  0.9593 -0.2150 -0.2595
41217SOL    HW132429   8.090   5.061   7.155  1.4923  0.1788 -1.1735
41217SOL    HW232430   8.217   5.041   7.235 -0.0573 -0.8934  1.1483
41218SOL     OW32431   6.633  11.719   7.542 -0.1677  0.0738 -0.0422
41218SOL    HW132432   6.727  11.718   7.524 -0.5037 -1.0088 -2.0271
41218SOL    HW232433   6.627  11.707   7.637  1.6964  0.4245  0.1541
41219SOL     OW32434   6.281   4.788   2.832 -0.3291 -0.1714 -0.2468
41219SOL    HW132435   6.280   4.810   2.925 -0.8358 -0.1199 -0.2627
41219SOL    HW232436   6.208   4.728   2.821  0.9088 -1.7557 -0.2371
41220SOL     OW32437   2.836  11.812   1.954 -0.3292 -0.3792 -0.2458
41220SOL    HW132438   2.912  11.772   1.998 -0.1618 -0.2528 -0.4193
41220SOL    HW232439   2.783  11.737   1.926  0.6223 -0.5610 -1.7128
41221SOL     OW32440   5.478   3.408   1.891 -0.3060  0.1622  0.0988
41221SOL    HW132441   5.485   3.457   1.972 -2.2383  0.9775 -0.1736
41221SOL    HW232442   5.553   3.438   1.838 -0.0096  0.8954  0.9135
41222SOL     OW32443   6.780   7.301   7.096 -0.1816 -0.1000  0.4880
41222SOL    HW132444   6.767   7.391   7.126 -0.7520 -0.3930  1.1416
41222SOL    HW232445   6.766   7.305   7.001  2.4159  0.9841  0.0771
41223SOL     OW32446  11.205  11.865   8.800  0.0756  0.6681 -0.7991
41223SOL    HW132447  11.202  11.878   8.894  0.7954 -2.7330 -0.1450
41223SOL    HW232448  11.122  11.824   8.778  0.9339 -1.0722 -1.0444
41224SOL     OW32449   1.965  12.330  11.158  0.4361  0.1616  0.1570
41224SOL    HW132450   1.930  12.257  11.107  0.7625  1.1676 -1.5789
41224SOL    HW232451   2.048  12.297  11.193 -0.2406 -0.8568  0.8867
41225SOL     OW32452   6.345  11.701   0.960 -0.6509 -0.4372 -0.0851
41225SOL    HW132453   6.280  11.715   0.891  0.5780 -2.0501 -1.6599
41225SOL    HW232454   6.296  11.657   1.030 -1.4382 -0.8240 -0.8652
41226SOL     OW32455   7.938   3.876   2.525 -0.1501 -0.3644 -0.4125
41226SOL    HW132456   7.936   3.825   2.444  1.2621 -2.6357  0.8605
41226SOL    HW232457   7.869   3.838   2.579  0.6786 -0.7145  0.4239
41227SOL     OW32458   2.239   8.223   3.871  0.4378  0.6016  0.1687
41227SOL    HW132459   2.158   8.196   3.915 -0.4964  1.0041 -1.2402
41227SOL    HW232460   2.288   8.141   3.860 -0.0937  0.2382  0.4331
41228SOL     OW32461   4.927  11.397   3.032 -0.0500  0.2489  0.5517
41228SOL    HW132462   4.846  11.363   2.995 -1.8698  3.0621  1.6281
41228SOL    HW232463   4.909  11.490   3.047  2.9872  0.7168  1.9683
41229SOL     OW32464   7.318   0.147   2.129  0.1383  0.2089 -0.0162
41229SOL    HW132465   7.334   0.124   2.220  0.1278  0.3141  0.0123
41229SOL    HW232466   7.403   0.171   2.094  0.2640 -0.5158 -0.2311
41230SOL     OW32467   7.762  12.034   1.804  0.1013 -0.1960  0.1286
41230SOL    HW132468   7.702  11.971   1.765  0.0720 -0.4186  0.5302
41230SOL    HW232469   7.823  11.980   1.856  0.8112 -0.0036 -0.4851
41231SOL     OW32470   4.052   2.686  10.996  0.0148 -0.3945 -0.1500
41231SOL    HW132471   4.040   2.621  10.926  0.3826 -2.1772  1.3667
41231SOL    HW232472   4.134   2.730  10.972  0.9096 -1.9654 -0.1663
41232SOL     OW32473   8.693   6.937  12.536  0.0500  0.3350  0.3720
41232SOL    HW132474   8.771   6.909  12.583  0.5241  0.2819 -0.4248
41232SOL    HW232475   8.716   6.929  12.443 -0.7657  0.6935  0.1227
41233SOL     OW32476   3.606   8.126   0.956 -0.2976 -0.2360 -0.5887
41233SOL    HW132477   3.580   8.052   1.011  0.4250  0.7425  1.1483
41233SOL    HW232478   3.524   8.170   0.934 -0.5004  0.7149  1.7567
41234SOL     OW32479   0.703   6.721   0.995 -0.5062 -0.0404 -0.2403
41234SOL    HW132480   0.768   6.659   1.029 -0.5738  1.1694  2.3412
41234SOL    HW232481   0.644   6.667   0.942  1.2052 -1.5813 -0.6661
41235SOL     OW32482  11.220   0.920  11.192 -0.1695 -0.3718  0.1930
41235SOL    HW132483  11.202   0.995  11.135  1.0920 -1.1759 -1.3221
41235SOL    HW232484  11.195   0.844  11.140 -0.8946 -1.0625  1.4999
41236SOL     OW32485  10.401   1.000   2.835 -0.2303  0.1643  0.1695
41236SOL    HW132486  10.377   1.033   2.749 -0.0085  0.0246  0.0526
41236SOL    HW232487  10.492   1.029   2.847 -0.9456  2.1584  1.3149
41237SOL     OW32488  11.177   3.480   0.602  0.0211 -0.1654  0.6888
41237SOL    HW132489  11.256   3.447   0.559 -0.8593  0.8060 -1.8485
41237SOL    HW232490  11.106   3.429   0.564 -0.7514  0.2729  1.5095
41238SOL     OW32491   8.863   7.146  10.481  0.4873  0.2708  0.0042
41238SOL    HW132492   8.925   7.112  10.546 -0.7344 -2.0411  0.0987
41238SOL    HW232493   8.873   7.086  10.407 -2.8116 -1.3878  0.7214
41239SOL     OW32494   5.385   2.140  11.328  0.5081 -0.0482 -0.4933
41239SOL    HW132495   5.473   2.177  11.334  0.5456 -0.0520 -0.9976
41239SOL    HW232496   5.333   2.193  11.388  0.4017  1.2834 -1.7108
41240SOL     OW32497  11.440   1.002   5.864  0.5537 -0.1916  0.4985
41240SOL    HW132498  11.368   0.966   5.915 -0.1880 -0.5860 -0.7799
41240SOL    HW232499  11.437   1.096   5.882  0.9948 -0.4346  1.9866
41241SOL     OW32500   3.512   5.284   8.980 -0.7078  0.1749 -0.2083
41241SOL    HW132501   3.481   5.237   9.057  0.2190  0.2565  0.2304
41241SOL    HW232502   3.475   5.236   8.906 -0.5060 -0.7099  0.2532
41242SOL     OW32503   1.831   4.281   9.978  0.3162  0.0954 -1.1862
41242SOL    HW132504   1.913   4.232   9.981  0.3550  0.1835 -0.2215
41242SOL    HW232505   1.825   4.321  10.065 -0.9475 -0.2396 -1.0978
41243SOL     OW32506   6.431   0.947   0.342  0.3843 -0.1162 -0.1455
41243SOL    HW132507   6.391   0.924   0.425 -0.3972 -0.7132 -0.6746
41243SOL    HW232508   6.418   0.871   0.286  2.2395 -0.3198 -0.3653
41244SOL     OW32509  12.039   3.605   8.623 -0.1600 -0.2761  0.2886
41244SOL    HW132510  12.128   3.573   8.609  0.3362  1.4419 -0.8532
41244SOL    HW232511  12.049   3.681   8.680 -0.6780  0.9197 -1.1615
41245SOL     OW32512  10.434  10.244   1.680 -0.4992  0.6703  0.2071
41245SOL    HW132513  10.412  10.324   1.728  0.2487  1.4923 -0.7704
41245SOL    HW232514  10.419  10.267   1.588 -1.8871 -0.8607  0.0104
41246SOL     OW32515   6.338   3.913   1.875 -0.1881 -0.4174 -0.3933
41246SOL    HW132516   6.330   3.977   1.946 -0.1579  0.5546 -1.2477
41246SOL    HW232517   6.422   3.934   1.834 -0.0146 -1.2401 -0.4696
41247SOL     OW32518   5.963   3.125   3.745  0.1149 -0.4151 -0.6318
41247SOL    HW132519   5.921   3.155   3.664 -1.9609 -1.0005  0.1557
41247SOL    HW232520   5.964   3.202   3.801  1.6401  0.0155 -1.1914
41248SOL     OW32521   4.282  10.694   8.059  0.0225 -0.0245 -0.2926
41248SOL    HW132522   4.279  10.660   8.149 -0.3783  0.5607 -0.0745
41248SOL    HW232523   4.225  10.635   8.010 -0.3323  0.0766 -0.0082
41249SOL     OW32524   2.627   9.324   3.285  0.5105  0.0183  0.0651
41249SOL    HW132525   2.677   9.406   3.280  0.7611 -0.0746  0.9583
41249SOL    HW232526   2.621   9.295   3.194 -0.5823  1.6155 -0.4070
41250SOL     OW32527   9.096  10.638  12.090 -0.1948  0.0701  0.3208
41250SOL    HW132528   9.050  10.585  12.025 -0.5006 -0.8103  1.2409
41250SOL    HW232529   9.134  10.575  12.150  1.1130  0.8331  0.3335
41251SOL     OW32530   1.593  12.151   8.418  0.2568  0.3359 -0.1212
41251SOL    HW132531   1.688  12.151   8.403  0.6280  0.5707  1.9314
41251SOL    HW232532   1.573  12.241   8.445 -0.4161  0.1148  0.1432
41252SOL     OW32533   3.904   3.627   9.921  0.1833 -0.0907 -0.1726
41252SOL    HW132534   3.899   3.567   9.847 -0.8970 -0.2377  0.0065
41252SOL    HW232535   3.813   3.652   9.938  0.4602  0.2845  0.8208
41253SOL     OW32536   8.664   3.420   4.791  0.1358 -0.4814  0.4056
41253SOL    HW132537   8.717   3.489   4.753  0.1452 -0.4262  0.5184
41253SOL    HW232538   8.666   3.349   4.726 -1.7109  0.4546 -0.7445
41254SOL     OW32539   5.781   3.725   2.004 -0.0418 -0.1133  0.1737
41254SOL    HW132540   5.799   3.686   2.089 -0.7879 -1.0915 -0.0905
41254SOL    HW232541   5.740   3.809   2.024  2.8346  1.2499  0.7628
41255SOL     OW32542   1.136   3.889   6.494  0.0782 -0.1499 -0.4558
41255SOL    HW132543   1.177   3.904   6.579 -0.1476  0.8058 -0.5027
41255SOL    HW232544   1.070   3.958   6.486 -1.4093 -1.5088 -0.4852
41256SOL     OW32545  10.111   1.569   5.419  0.2765  0.4405  0.3984
41256SOL    HW132546  10.189   1.563   5.475  0.3537 -0.2236  0.2270
41256SOL    HW232547  10.137   1.627   5.348  0.4851  0.5402  0.5558
41257SOL     OW32548  11.339   2.136   7.562  0.3801  0.4199  0.1747
41257SOL    HW132549  11.299   2.209   7.515  1.0258  0.3405 -0.5270
41257SOL    HW232550  11.431   2.137   7.533  1.0957  1.0457  2.2523
41258SOL     OW32551   7.412   7.206  11.089 -0.8611 -0.0075 -0.2465
41258SOL    HW132552   7.371   7.273  11.143 -0.7300  0.4226 -0.6829
41258SOL    HW232553   7.339   7.156  11.053 -0.9351 -1.0323  1.2408
41259SOL     OW32554   5.193   6.448   3.594 -0.1384  0.1620 -0.0447
41259SOL    HW132555   5.254   6.508   3.552  1.4865 -0.9916  0.5273
41259SOL    HW232556   5.220   6.361   3.564  0.5337 -0.6376  2.6041
41260SOL     OW32557   9.167   7.018   9.358 -0.0616  0.3469  0.1342
41260SOL    HW132558   9.158   7.031   9.263  0.7966 -0.3772 -0.0650
41260SOL    HW232559   9.094   6.961   9.382 -0.7756  1.2185  0.0706
41261SOL     OW32560   3.873   0.299   8.471 -0.1902  0.4173 -0.5759
41261SOL    HW132561   3.808   0.238   8.506  1.0414  0.3020  1.6465
41261SOL    HW232562   3.868   0.286   8.376 -1.0263 -2.0402 -0.2704
41262SOL     OW32563   5.953   6.500   7.374  0.1470 -0.1416  0.2226
41262SOL    HW132564   5.862   6.525   7.391  0.5561  2.2313 -0.5885
41262SOL    HW232565   5.983   6.462   7.457 -1.0282  0.9343  1.1985
41263SOL     OW32566   5.149   4.030  10.003  0.0119  0.0507  0.0463
41263SOL    HW132567   5.101   4.112   9.991  0.2983  0.4014  1.1383
41263SOL    HW232568   5.229   4.056  10.049 -0.4275 -0.9617  1.4677
41264SOL     OW32569   2.807   3.273   5.821  0.0273  0.4433  0.2233
41264SOL    HW132570   2.851   3.287   5.905  1.1924  1.5980 -0.5237
41264SOL    HW232571   2.727   3.325   5.827  0.1263  0.5530  0.6053
41265SOL     OW32572   6.123   4.551   2.430  0.1522 -0.6131  0.0312
41265SOL    HW132573   6.094   4.589   2.512  1.0186  0.3683 -0.1053
41265SOL    HW232574   6.081   4.465   2.427  0.3568 -0.7890  1.6388
41266SOL     OW32575   4.598   5.941   6.159  0.6876 -0.4762  0.6044
41266SOL    HW132576   4.645   5.940   6.075  0.1992  0.6015  0.3121
41266SOL    HW232577   4.649   5.881   6.214  1.3516 -0.7539 -0.2701
41267SOL     OW32578   9.662   0.391   2.174  0.5576 -0.4623  0.2968
41267SOL    HW132579   9.641   0.483   2.158  3.4206  0.0046 -1.3800
41267SOL    HW232580   9.577   0.347   2.174 -0.7340  1.7676 -1.8411
41268SOL     OW32581   8.079   3.624   7.364  0.4739 -0.5317 -0.1150
41268SOL    HW132582   8.130   3.683   7.419  2.0603 -2.4264  0.5753
41268SOL    HW232583   8.124   3.540   7.371 -1.0441 -1.5791 -1.9218
41269SOL     OW32584   5.980   2.756   8.738  0.3287 -0.4419  0.3204
41269SOL    HW132585   6.029   2.788   8.814  2.4305 -0.3382 -1.0365
41269SOL    HW232586   5.916   2.825   8.720  0.5252  0.0203  1.3230
41270SOL     OW32587   2.289   3.439   4.553 -0.4626 -0.0068 -0.1424
41270SOL    HW132588   2.238   3.457   4.474  1.5324  0.1173 -1.4522
41270SOL    HW232589   2.333   3.356   4.536  0.7390  0.4897  0.4434
41271SOL     OW32590  10.702   9.763   4.730  0.1591  0.1456  0.2834
41271SOL    HW132591  10.743   9.845   4.704  0.4388 -0.2584 -0.5747
41271SOL    HW232592  10.704   9.708   4.652 -1.1538 -0.2332  0.4774
41272SOL     OW32593   0.514  12.081   3.590  0.3618 -0.3137 -0.0983
41272SOL    HW132594   0.480  12.027   3.519  0.9701 -1.5271  0.5064
41272SOL    HW232595   0.607  12.091   3.571  0.1136  1.2593 -0.6472
41273SOL     OW32596  11.512   5.371   3.360  0.3569  0.1326  0.0571
41273SOL    HW132597  11.564   5.307   3.312  1.6561  1.0150  0.2613
41273SOL    HW232598  11.473   5.426   3.293  0.9701  0.4521 -0.0345
41274SOL     OW32599   8.480   5.613   8.703  0.3342  0.4772 -0.7857
41274SOL    HW132600   8.486   5.708   8.693 -3.2298  0.9323  0.2534
41274SOL    HW232601   8.468   5.581   8.613 -0.6735  1.2621 -0.9493
41275SOL     OW32602   5.093   5.391   0.434  0.1661  0.4091 -0.0279
41275SOL    HW132603   5.023   5.345   0.388 -0.9550  1.0340  1.0332
41275SOL    HW232604   5.150   5.321   0.467 -1.1694 -0.2209  1.0249
41276SOL     OW32605  10.449   4.711   9.970  0.2518  0.1401  0.1095
41276SOL    HW132606  10.434   4.727  10.064 -0.3612 -0.6068  0.1495
41276SOL    HW232607  10.368   4.672   9.939 -0.9781  3.6440 -1.5758
41277SOL     OW32608   5.984   8.383   3.810 -0.5159 -0.1130 -0.5808
41277SOL    HW132609   6.061   8.353   3.858 -0.6985  1.4557  0.7828
41277SOL    HW232610   5.915   8.385   3.876 -1.8778 -1.8582 -1.8570
41278SOL     OW32611   0.442   2.369   7.065  0.2456 -0.1210 -0.2247
41278SOL    HW132612   0.444   2.464   7.051 -0.9214 -0.2201 -1.1961
41278SOL    HW232613   0.365   2.355   7.120 -0.2242 -0.6049 -0.9940
41279SOL     OW32614  10.959  12.229  10.816 -0.3192  0.3206  0.0236
41279SOL    HW132615  10.910  12.298  10.860 -0.1457  0.9820 -0.8000
41279SOL    HW232616  10.926  12.148  10.854 -1.2169  0.8099  0.3076
41280SOL     OW32617   1.740   3.682   1.030  0.3607  0.5350  0.0712
41280SOL    HW132618   1.804   3.620   0.997 -2.2275 -0.1645 -4.4079
41280SOL    HW232619   1.779   3.768   1.011 -0.5463  0.1783 -4.7271
41281SOL     OW32620   2.497   0.453  11.558 -0.3885 -0.5908  1.1167
41281SOL    HW132621   2.514   0.547  11.558  1.4504 -0.8865  0.6287
41281SOL    HW232622   2.508   0.426  11.467 -0.3953 -1.3580  1.3371
41282SOL     OW32623   6.898   4.841  12.540 -0.1906  0.6080 -0.3017
41282SOL    HW132624   6.910   4.791  12.620 -0.4003 -0.1532 -0.7417
41282SOL    HW232625   6.965   4.807  12.480 -0.9553  0.1804 -0.9256
41283SOL     OW32626   6.104   0.398   1.069  0.3414 -0.0521  0.3751
41283SOL    HW132627   6.143   0.484   1.086 -1.4379  0.9084 -0.0955
41283SOL    HW232628   6.012   0.417   1.051 -0.6948 -2.2838  2.6548
41284SOL     OW32629   8.908   5.632  10.634  0.2999 -0.6180 -0.0141
41284SOL    HW132630   9.001   5.644  10.615  0.4412  0.1259  1.0463
41284SOL    HW232631   8.872   5.597  10.553  1.0953  1.1024 -1.1847
41285SOL     OW32632   6.489   0.710   0.233 -0.0478  0.1847 -0.0132
41285SOL    HW132633   6.453   0.632   0.274  1.4627 -0.4251  0.2264
41285SOL    HW232634   6.583   0.705   0.251  0.2811  1.2841 -1.2783
41286SOL     OW32635   9.166   9.551   2.152  0.0998  0.0641 -0.1393
41286SOL    HW132636   9.149   9.476   2.095  0.4460  0.7095 -1.1375
41286SOL    HW232637   9.146   9.627   2.097  0.9533  0.7211  0.4270
41287SOL     OW32638   5.069  12.049  12.182  0.4782 -0.2714  0.6152
41287SOL    HW132639   4.985  12.004  12.188 -0.2615  1.1649  1.4429
41287SOL    HW232640   5.080  12.068  12.089 -1.3837  1.7937  0.7577
41288SOL     OW32641   2.343  11.164   2.311  0.5152  0.2382  0.0945
41288SOL    HW132642   2.348  11.213   2.393  1.4593 -0.6202  0.5941
41288SOL    HW232643   2.250  11.145   2.299  0.3509  0.4872  0.9123
41289SOL     OW32644   9.417   7.099   9.424  0.1475 -0.3019  0.2044
41289SOL    HW132645   9.333   7.065   9.394  0.6251  0.0979 -1.6939
41289SOL    HW232646   9.474   7.022   9.431 -0.0652 -0.4387  0.4487
41290SOL     OW32647   0.707  10.854   8.436 -0.4819  0.2867  0.7383
41290SOL    HW132648   0.632  10.803   8.469 -1.6386  0.5492 -1.3032
41290SOL    HW232649   0.667  10.930   8.394  0.9963  0.8440  0.3052
41291SOL     OW32650  11.297  12.190  11.390  0.2639 -0.1168 -0.1499
41291SOL    HW132651  11.226  12.230  11.340 -2.4833 -1.1723  2.5885
41291SOL    HW232652  11.267  12.101  11.407  1.6632 -0.2488  2.0985
41292SOL     OW32653  11.052   3.947   1.549 -0.3152  0.3578 -0.7040
41292SOL    HW132654  11.060   4.014   1.617  0.4436 -2.9790  2.8389
41292SOL    HW232655  11.142   3.919   1.532 -0.5645  0.5267 -2.6013
41293SOL     OW32656   1.261   5.130   9.446  0.0230  0.3074  0.0795
41293SOL    HW132657   1.299   5.053   9.405  0.2610 -0.2480  1.3062
41293SOL    HW232658   1.171   5.134   9.413 -0.6244 -1.6061  1.4118
41294SOL     OW32659   9.013   2.487   5.232 -0.5331 -0.0246  0.0421
41294SOL    HW132660   8.945   2.422   5.214  0.0222 -0.9687  1.1534
41294SOL    HW232661   9.050   2.460   5.317  0.5481  1.0353 -0.0565
41295SOL     OW32662  10.599  12.158   3.671 -0.3142  0.0858  0.5723
41295SOL    HW132663  10.527  12.107   3.708 -0.7497  0.1831 -0.1204
41295SOL    HW232664  10.614  12.118   3.585 -1.4293  1.8227 -0.4782
41296SOL     OW32665   4.830   8.383   1.530  0.2731  0.2962 -0.0559
41296SOL    HW132666   4.899   8.321   1.507  0.9974  0.5730  1.3004
41296SOL    HW232667   4.799   8.416   1.446 -0.9490 -2.7082 -0.9340
41297SOL     OW32668   0.156   7.054   1.729  0.0080  0.0473  0.2292
41297SOL    HW132669   0.246   7.049   1.698  0.6328 -0.8252  2.0407
41297SOL    HW232670   0.113   6.978   1.691 -0.3181  1.0476 -1.5310
41298SOL     OW32671  11.482  12.363   3.639  0.8713 -0.1266 -0.1900
41298SOL    HW132672  11.469  12.273   3.609 -1.2704 -0.4852  1.5803
41298SOL    HW232673  11.447  12.364   3.728  3.3992  1.8038  0.9182
41299SOL     OW32674   1.248   0.142   3.764 -0.2589 -0.5510 -0.1102
41299SOL    HW132675   1.333   0.137   3.807  0.2399 -3.8184 -1.2041
41299SOL    HW232676   1.263   0.196   3.687 -0.0127  1.4163  1.2358
41300SOL     OW32677   7.322  12.020   6.826 -0.4431  0.0800  0.4073
41300SOL    HW132678   7.322  12.116   6.823 -2.0850  0.0965 -1.1756
41300SOL    HW232679   7.395  11.995   6.770 -1.2366  0.4617 -0.8545
41301SOL     OW32680   8.393   1.333   9.297 -0.3648 -0.1148 -0.5225
41301SOL    HW132681   8.411   1.265   9.231 -1.9541  0.1725 -1.2948
41301SOL    HW232682   8.480   1.366   9.321  0.7905 -4.1342  1.8370
41302SOL     OW32683   3.174   1.733   3.423 -0.7030 -0.7563 -0.1983
41302SOL    HW132684   3.150   1.664   3.485  1.3253 -0.3482  1.1503
41302SOL    HW232685   3.268   1.719   3.407 -0.8859 -0.0049 -2.1223
41303SOL     OW32686   1.697   1.828   6.862 -0.4023  0.3004 -0.0912
41303SOL    HW132687   1.657   1.905   6.903 -0.4637  0.0561  0.3196
41303SOL    HW232688   1.655   1.754   6.906 -0.8701  0.0167 -0.9725
41304SOL     OW32689   2.137  10.110   6.404  0.0606  0.0820 -0.4821
41304SOL    HW132690   2.125  10.171   6.331  0.2291  1.2851  0.4672
41304SOL    HW232691   2.048  10.082   6.426 -0.2335  1.6018  0.3894
41305SOL     OW32692   8.745   0.741   7.686 -0.0203 -0.3316  0.2994
41305SOL    HW132693   8.653   0.766   7.683  0.1497  0.3502  0.5458
41305SOL    HW232694   8.785   0.789   7.613  0.0711 -0.9606 -0.0775
41306SOL     OW32695   3.561   7.961   8.343  0.0457 -0.6340  0.2976
41306SOL    HW132696   3.532   8.051   8.360 -1.5274 -0.7956 -1.1894
41306SOL    HW232697   3.655   7.962   8.362  0.5825  1.9721 -1.8092
41307SOL     OW32698   8.540   8.694   2.216 -0.2387  0.2891 -0.2854
41307SOL    HW132699   8.619   8.739   2.186 -0.3426 -0.0491 -1.1016
41307SOL    HW232700   8.521   8.631   2.146  0.1527 -1.3381  1.0072
41308SOL     OW32701   5.495  11.968   9.290  0.1656 -0.4309  0.0100
41308SOL    HW132702   5.447  11.899   9.245 -0.9074  1.2341 -1.5613
41308SOL    HW232703   5.545  12.011   9.221  1.2785 -0.0043  1.0531
41309SOL     OW32704   5.728  11.241   9.405  0.6536  0.1356 -0.3168
41309SOL    HW132705   5.656  11.220   9.464  0.8070 -1.3854 -0.6281
41309SOL    HW232706   5.690  11.296   9.338  0.2650  1.0980  0.6655
41310SOL     OW32707  12.169   7.037   0.938 -0.4711  0.1144  0.2846
41310SOL    HW132708  12.126   7.059   0.856 -3.2495  0.0061  1.5839
41310SOL    HW232709  12.163   7.117   0.991  0.3667 -0.1240  0.7654
41311SOL     OW32710   0.314   4.936  11.481 -0.0860 -0.0525 -0.1082
41311SOL    HW132711   0.403   4.917  11.510 -0.3634  0.6596  1.2541
41311SOL    HW232712   0.323   4.950  11.386  1.1552 -0.4975 -0.0759
41312SOL     OW32713   8.314  11.469  10.281 -0.5361 -0.4041 -0.5441
41312SOL    HW132714   8.223  11.474  10.310 -0.6467  1.9451 -1.0583
41312SOL    HW232715   8.363  11.451  10.361 -1.3399 -0.2107  0.0151
41313SOL     OW32716   9.756   1.191   2.627  0.6799  0.1216  0.1165
41313SOL    HW132717   9.820   1.223   2.690 -2.9567  4.4719  2.1950
41313SOL    HW232718   9.695   1.139   2.680 -1.1496  1.8839 -0.1421
41314SOL     OW32719  11.098  10.065   1.397  0.6619  0.9384 -0.4891
41314SOL    HW132720  11.044  10.128   1.350  0.4322  1.3572  0.3189
41314SOL    HW232721  11.188  10.093   1.379  0.5564  1.8562  0.3145
41315SOL     OW32722   7.090   2.402   0.528  0.3885 -0.1417  0.4527
41315SOL    HW132723   7.185   2.397   0.514  0.2998  1.8032 -1.4074
41315SOL    HW232724   7.076   2.489   0.565 -0.8998  1.2453 -2.9102
41316SOL     OW32725   5.488   5.770   4.933  0.0488 -0.2888  0.1209
41316SOL    HW132726   5.428   5.844   4.938  0.3123  0.0167 -0.8877
41316SOL    HW232727   5.460   5.711   5.002 -0.1718  0.7503  0.9436
41317SOL     OW32728   4.300   5.509  11.354  0.1954  0.2795  0.3586
41317SOL    HW132729   4.350   5.564  11.293  1.2643  0.1815  1.1192
41317SOL    HW232730   4.333   5.534  11.440 -0.8543 -0.0268  0.8590
41318SOL     OW32731   5.631   7.555   2.738  0.3680  0.3337  0.1996
41318SOL    HW132732   5.623   7.464   2.765  0.5590  0.0908 -0.5551
41318SOL    HW232733   5.589   7.605   2.809 -1.0297 -0.4227 -0.0652
41319SOL     OW32734  10.109   8.755   8.202 -0.0948  0.0105  0.1456
41319SOL    HW132735  10.177   8.786   8.143 -0.0576 -0.3623 -0.0103
41319SOL    HW232736  10.117   8.660   8.201 -1.5342 -0.1290 -0.9980
41320SOL     OW32737   2.522   2.433   7.169 -0.3181 -0.5090  0.3692
41320SOL    HW132738   2.599   2.418   7.114 -1.3591 -0.0674 -1.2710
41320SOL    HW232739   2.461   2.364   7.144 -2.7702  2.4667 -2.8366
41321SOL     OW32740   1.349   8.108  12.452  1.2712 -0.4002  0.1409
41321SOL    HW132741   1.374   8.032  12.400 -1.1047 -0.7391 -0.6047
41321SOL    HW232742   1.402   8.180  12.416  0.8152 -0.9473 -1.7163
41322SOL     OW32743   1.116  12.317   3.429  0.3561 -0.9153  0.2076
41322SOL    HW132744   1.144  12.400   3.466  0.7769 -0.7270 -0.5149
41322SOL    HW232745   1.050  12.284   3.490  0.1499 -0.0309  0.4699
41323SOL     OW32746   9.774   4.719   3.128  0.0946 -0.6658 -0.8279
41323SOL    HW132747   9.769   4.623   3.136  0.3670 -0.6527 -0.4749
41323SOL    HW232748   9.840   4.734   3.060  0.5916 -0.7186 -0.3625
41324SOL     OW32749   2.655  10.530   9.272 -0.0783  0.1033 -0.3197
41324SOL    HW132750   2.702  10.452   9.242  0.1987  0.1730 -0.0786
41324SOL    HW232751   2.603  10.558   9.197 -0.8247 -0.7921 -0.1434
41325SOL     OW32752   4.311   2.347   4.291  0.9326 -0.5545 -0.8298
41325SOL    HW132753   4.320   2.261   4.331 -0.1137 -0.2618  0.0756
41325SOL    HW232754   4.353   2.407   4.353 -2.3440  0.1586  0.9400
41326SOL     OW32755   5.939   1.696   7.924 -0.0899  0.3061  0.3084
41326SOL    HW132756   5.891   1.615   7.906  0.2985 -0.3253  1.9163
41326SOL    HW232757   5.980   1.680   8.009 -1.4713  2.8730  1.5528
41327SOL     OW32758   7.626   3.769   8.475 -0.0610  0.3111  0.1749
41327SOL    HW132759   7.617   3.712   8.551  0.9600  0.6361  0.5532
41327SOL    HW232760   7.581   3.722   8.405  0.4472 -0.7992  0.5615
41328SOL     OW32761   2.435  11.355  10.022 -0.1667  0.6048  0.2903
41328SOL    HW132762   2.359  11.362  10.080 -2.1771 -0.2134 -2.0286
41328SOL    HW232763   2.458  11.263  10.024  0.0746  0.6643  0.2181
41329SOL     OW32764   0.083   5.902   6.958 -0.2887  0.0135 -0.0824
41329SOL    HW132765   0.021   5.962   7.000 -0.6180 -0.6126  0.3293
41329SOL    HW232766   0.088   5.827   7.016  1.6764  0.4815  0.4582
41330SOL     OW32767   6.757  12.360   7.760  0.0516  0.0438 -0.1657
41330SOL    HW132768   6.684  12.303   7.737 -0.3423 -0.0331  1.1753
41330SOL    HW232769   6.831  12.300   7.773  0.1860  0.0563 -0.8446
41331SOL     OW32770  12.409   8.260   6.955  0.1566 -0.1011 -0.4427
41331SOL    HW132771  12.502   8.247   6.975  0.0061 -1.7582 -0.6745
41331SOL    HW232772  12.381   8.329   7.016  1.2512 -0.4584  0.5048
41332SOL     OW32773   8.945   5.942   3.570 -0.1323 -0.2540  0.4982
41332SOL    HW132774   8.975   6.030   3.546 -2.6119  0.6764  0.5771
41332SOL    HW232775   8.935   5.896   3.486  1.5374 -0.6735  0.4742
41333SOL     OW32776   7.040   5.835   4.332  0.0219 -0.4078 -0.4386
41333SOL    HW132777   7.069   5.806   4.245  0.5654 -2.6754  0.4178
41333SOL    HW232778   7.106   5.799   4.392 -2.7504 -3.0912  1.3293
41334SOL     OW32779   8.281   1.208   3.144 -1.3498 -0.2304 -0.0534
41334SOL    HW132780   8.323   1.185   3.227 -2.0483 -0.3861  0.2666
41334SOL    HW232781   8.263   1.302   3.151 -1.0439 -0.1625 -0.1931
41335SOL     OW32782   5.890  11.421   4.737 -0.0525  0.4553 -0.5553
41335SOL    HW132783   5.796  11.424   4.753 -0.2327 -0.9745 -1.1398
41335SOL    HW232784   5.900  11.357   4.666  1.6063 -2.1291  1.7977
41336SOL     OW32785   2.268  11.121   0.109  0.0328 -0.0496  0.3864
41336SOL    HW132786   2.225  11.190   0.159 -0.3088 -0.0204  0.0577
41336SOL    HW232787   2.346  11.098   0.161  0.5592  1.1018  0.1339
41337SOL     OW32788   3.823   8.253  11.232 -0.0993 -0.3615 -0.1200
41337SOL    HW132789   3.873   8.213  11.161  1.9281  0.6766  0.6462
41337SOL    HW232790   3.759   8.309  11.188  0.1164 -0.8675 -1.1180
41338SOL     OW32791   1.379  10.336   3.416  0.4921 -0.6820 -0.1310
41338SOL    HW132792   1.468  10.327   3.450  0.2161  0.7380  1.0989
41338SOL    HW232793   1.381  10.292   3.331  3.1576  1.6719 -1.4531
41339SOL     OW32794   3.618   7.659   9.067 -0.3821 -0.2666 -0.1746
41339SOL    HW132795   3.527   7.650   9.093 -1.3676  0.2596 -3.0765
41339SOL    HW232796   3.616   7.655   8.972  2.6191 -0.0273 -0.3358
41340SOL     OW32797   4.735   4.177  11.352  0.1568 -0.4766 -0.2276
41340SOL    HW132798   4.824   4.188  11.385  0.1430  0.0427 -0.3605
41340SOL    HW232799   4.683   4.239  11.402 -0.2120 -1.0719  0.1439
41341SOL     OW32800   6.270  11.341   2.644  0.6056 -0.3638 -0.0392
41341SOL    HW132801   6.313  11.426   2.659  0.4249 -0.5388  1.7427
41341SOL    HW232802   6.331  11.293   2.588  2.7316 -0.5159  2.2114
41342SOL     OW32803   6.098  10.701   3.093  0.4057 -0.0600  0.6918
41342SOL    HW132804   6.161  10.650   3.044  0.6188  0.6252  0.2337
41342SOL    HW232805   6.112  10.791   3.063 -0.9406  0.0714  0.4135
41343SOL     OW32806   1.744   4.800  11.441 -0.0568  0.0188  0.3992
41343SOL    HW132807   1.732   4.893  11.422  0.9082  0.0014 -0.4011
41343SOL    HW232808   1.792   4.766  11.365 -0.9128 -1.2655  0.4124
41344SOL     OW32809  10.293   8.469   1.996  0.1866 -0.0382  0.8171
41344SOL    HW132810  10.348   8.520   1.938 -1.6150  1.8552  0.6543
41344SOL    HW232811  10.264   8.394   1.943  0.2883  0.5118 -0.0281
41345SOL     OW32812   9.845  11.636  10.175 -0.1546  0.0138  0.1604
41345SOL    HW132813   9.789  11.694  10.226 -0.9762 -1.2420  0.7090
41345SOL    HW232814   9.912  11.694  10.139  0.6466  0.9162  2.8997
41346SOL     OW32815  12.291   9.478  11.592  0.1143 -0.4188  0.0398
41346SOL    HW132816  12.252   9.549  11.543 -1.4192 -0.8282  0.5879
41346SOL    HW232817  12.379   9.469  11.557  0.7409  2.3928  0.6405
41347SOL     OW32818   5.278   6.691   1.745 -0.1716 -0.7936  0.2999
41347SOL    HW132819   5.322   6.763   1.700  1.8979 -2.0140  0.2403
41347SOL    HW232820   5.200   6.674   1.692 -0.1600  0.7298 -0.2427
41348SOL     OW32821   0.267  11.365   1.942  0.0333  0.3966  0.0091
41348SOL    HW132822   0.302  11.277   1.924 -1.0583  0.2070 -1.3592
41348SOL    HW232823   0.229  11.357   2.030  0.5892 -0.2842  0.2042
41349SOL     OW32824  10.910   6.921   2.639  0.0398 -0.3263 -0.3743
41349SOL    HW132825  10.838   6.934   2.578 -0.2487 -0.5506 -0.0793
41349SOL    HW232826  10.913   6.827   2.654 -0.8589 -0.1464  1.1338
41350SOL     OW32827   8.866   1.571   8.135  0.1542 -0.2603  0.2799
41350SOL    HW132828   8.918   1.520   8.198 -2.4582  0.7288  3.5876
41350SOL    HW232829   8.904   1.659   8.139  1.4194 -0.6663 -1.4563
41351SOL     OW32830  11.332   6.084   8.560 -0.0872  0.0750 -0.1639
41351SOL    HW132831  11.351   6.109   8.469 -0.6750  0.0167 -0.3036
41351SOL    HW232832  11.248   6.126   8.579  0.4131  0.7549  0.6203
41352SOL     OW32833  10.846   0.760   1.121 -0.0278  0.0623 -0.1439
41352SOL    HW132834  10.853   0.781   1.214  0.4380  0.8748 -0.3496
41352SOL    HW232835  10.758   0.790   1.097 -0.9287 -1.9390  0.4472
41353SOL     OW32836   4.391   0.007  11.130 -0.5274  0.1903 -0.2641
41353SOL    HW132837   4.378  -0.049  11.053 -0.3831 -0.3436  0.0925
41353SOL    HW232838   4.334   0.082  11.116 -0.5576  0.0595 -0.8563
41354SOL     OW32839   4.767   7.313   8.357  0.0301  0.3241  0.1034
41354SOL    HW132840   4.842   7.270   8.315  2.5101  2.0575  2.4544
41354SOL    HW232841   4.722   7.242   8.403  1.8489 -0.4085  0.8658
41355SOL     OW32842   4.059   1.720   7.156 -0.1383  0.1775 -0.4528
41355SOL    HW132843   4.029   1.670   7.232  1.2413 -1.9045 -1.1970
41355SOL    HW232844   4.034   1.811   7.176  0.3176 -0.2539  2.5353
41356SOL     OW32845   4.543  11.698   0.547 -0.2213 -0.3420 -0.5474
41356SOL    HW132846   4.542  11.614   0.501  1.0934 -0.9337  0.4503
41356SOL    HW232847   4.539  11.674   0.640  1.9545  0.5838 -0.1618
41357SOL     OW32848   6.978   0.766   4.406 -0.2537  0.1950 -0.0130
41357SOL    HW132849   6.931   0.847   4.383  0.5392  0.6921  0.0893
41357SOL    HW232850   6.909   0.707   4.436 -1.1387  0.0516 -2.1388
41358SOL     OW32851   6.579   5.249   6.153  0.3912 -0.1295 -0.3241
41358SOL    HW132852   6.669   5.281   6.146  0.4117  0.4762  1.9464
41358SOL    HW232853   6.576   5.203   6.237 -0.8838 -2.0520 -1.3486
41359SOL     OW32854  10.127   3.393   5.380  0.4497  0.2406 -0.2148
41359SOL    HW132855  10.176   3.333   5.324  0.6984  1.0008 -0.8424
41359SOL    HW232856  10.122   3.474   5.329 -0.5127  0.5245  0.2972
41360SOL     OW32857  12.525  12.479  11.263 -0.4649 -0.0425  0.4942
41360SOL    HW132858  12.530  12.574  11.261 -0.1441 -0.0155  1.7763
41360SOL    HW232859  12.604  12.451  11.308 -0.1234 -0.9832 -0.6213
41361SOL     OW32860   4.140  12.125  11.470 -0.0992 -0.2386 -0.0093
41361SOL    HW132861   4.201  12.195  11.446  0.7401 -0.8565  0.2903
41361SOL    HW232862   4.089  12.162  11.543  0.8124 -0.1740  0.6139
41362SOL     OW32863   7.662   1.256   1.761 -0.4191  0.2541  0.0438
41362SOL    HW132864   7.618   1.186   1.714  0.5914 -0.5471  0.2435
41362SOL    HW232865   7.633   1.337   1.717  0.1072 -0.4260 -1.6467
41363SOL     OW32866   1.667   7.053   8.255  0.4894  0.3179  0.0812
41363SOL    HW132867   1.616   6.986   8.208 -0.5731  0.1652  1.3875
41363SOL    HW232868   1.671   7.127   8.194 -1.9484  0.6039  0.1617
41364SOL     OW32869   1.402   9.368   0.800  0.2616 -0.1419  0.3583
41364SOL    HW132870   1.444   9.296   0.753  0.2965  0.0406  0.1070
41364SOL    HW232871   1.348   9.411   0.735  1.8314  1.3273 -0.0631
41365SOL     OW32872   7.958   2.277   6.941  0.6254 -0.1002  0.5572
41365SOL    HW132873   7.903   2.202   6.961  2.3968 -1.1443  1.8946
41365SOL    HW232874   8.004   2.253   6.861  0.3222  0.0860  0.3246
41366SOL     OW32875   9.906   5.140  10.197  0.4857  0.0331 -0.0831
41366SOL    HW132876   9.978   5.180  10.246  1.3835 -0.9448 -0.5676
41366SOL    HW232877   9.941   5.056  10.168 -1.5438 -1.4841  1.5075
41367SOL     OW32878   4.276   0.020  11.797  0.3224  0.3850 -0.5166
41367SOL    HW132879   4.233   0.035  11.881  1.1170 -0.4167  0.0501
41367SOL    HW232880   4.205  -0.008  11.738 -0.7632  3.6114 -0.9438
41368SOL     OW32881   3.230   4.356   6.723 -0.2333  0.3488 -0.3549
41368SOL    HW132882   3.299   4.308   6.768 -1.1612 -0.9064 -0.2181
41368SOL    HW232883   3.163   4.370   6.789 -0.6654  0.4231 -0.8029
41369SOL     OW32884   8.228   9.289  10.977 -0.4851 -0.0980  0.0805
41369SOL    HW132885   8.168   9.352  11.017 -1.1600 -1.3411  1.0860
41369SOL    HW232886   8.264   9.240  11.051  0.2260 -0.7303 -0.6680
41370SOL     OW32887  11.395   2.915   8.896 -0.2133  0.5079  0.2740
41370SOL    HW132888  11.426   2.962   8.974  0.2095  0.6132  0.0445
41370SOL    HW232889  11.469   2.860   8.871  0.3433  1.8015 -1.1196
41371SOL     OW32890   4.209   9.925   6.790  0.1855 -0.0572  0.0301
41371SOL    HW132891   4.190   9.946   6.698  0.9981 -1.9078 -0.5951
41371SOL    HW232892   4.161   9.845   6.807 -2.7532  1.9709  2.3338
41372SOL     OW32893   2.920   6.886   3.492 -0.0558 -0.1257  0.5875
41372SOL    HW132894   2.979   6.846   3.429  0.5933  2.6425 -0.7399
41372SOL    HW232895   2.967   6.881   3.576  0.2100 -1.5856  0.3664
41373SOL     OW32896  10.000   1.340  10.409  0.2579  0.1854  0.3722
41373SOL    HW132897  10.058   1.408  10.444 -0.9185  0.9360  0.9344
41373SOL    HW232898   9.961   1.299  10.486 -0.4187  0.1031 -0.0052
41374SOL     OW32899   0.684   1.476   1.037 -0.0215 -0.3947 -0.2582
41374SOL    HW132900   0.624   1.460   0.965 -0.7953 -1.6297  0.6332
41374SOL    HW232901   0.655   1.418   1.107  1.3218  0.0385  0.7109
41375SOL     OW32902   1.817  11.154  10.375 -0.1952  0.5531  0.3766
41375SOL    HW132903   1.785  11.109  10.453  0.1113 -1.0552 -0.3945
41375SOL    HW232904   1.748  11.217  10.354  0.2097  1.8362  2.5527
41376SOL     OW32905  10.521  12.074   9.939  0.1873 -0.6652 -0.8644
41376SOL    HW132906  10.431  12.046   9.952  0.1101  0.1241  0.4950
41376SOL    HW232907  10.539  12.133  10.012  2.0494 -1.3902 -0.6609
41377SOL     OW32908  12.004   9.592   5.538  0.5203  0.3008  0.1637
41377SOL    HW132909  12.013   9.644   5.618 -0.4331 -0.6649  0.9311
41377SOL    HW232910  11.960   9.651   5.476  0.9822  0.9527  0.4520
41378SOL     OW32911   5.458   7.602  11.521 -0.5726 -0.3940 -0.4773
41378SOL    HW132912   5.536   7.632  11.474  0.2533 -0.7199  0.6651
41378SOL    HW232913   5.385   7.643  11.473  0.2795 -0.0861 -1.5622
41379SOL     OW32914   6.318   4.296  12.235 -0.4713  0.3765  0.1977
41379SOL    HW132915   6.245   4.245  12.199 -0.0181  0.0562 -0.2750
41379SOL    HW232916   6.290   4.318  12.324 -0.9708 -0.0896  0.1618
41380SOL     OW32917  10.547   9.941  11.440 -0.1354  0.0941 -0.1036
41380SOL    HW132918  10.548   9.848  11.415  2.4629  0.4880 -1.9196
41380SOL    HW232919  10.529   9.940  11.534 -0.7239 -2.1915 -0.1701
41381SOL     OW32920   9.851   4.046   3.504 -0.1294  0.0515 -0.2223
41381SOL    HW132921   9.860   4.138   3.478 -1.5192  0.1779 -0.3066
41381SOL    HW232922   9.772   4.044   3.558 -0.2258 -1.1321 -0.3971
41382SOL     OW32923   9.567   5.178  10.058 -0.3432 -0.2790 -0.1906
41382SOL    HW132924   9.496   5.226  10.016  0.7719  0.4235 -1.3694
41382SOL    HW232925   9.602   5.238  10.123 -0.4353 -0.3923 -0.0356
41383SOL     OW32926  11.545   5.671  10.931  0.2791 -0.3480 -0.5410
41383SOL    HW132927  11.495   5.645  11.008  1.3512 -2.1805 -0.4183
41383SOL    HW232928  11.480   5.675  10.861 -0.5358  0.3648  0.2387
41384SOL     OW32929   5.621   7.737   7.264  0.3829 -0.0871 -0.2280
41384SOL    HW132930   5.618   7.762   7.171  0.9354  0.2855 -0.1477
41384SOL    HW232931   5.536   7.695   7.279  0.3784 -0.3721 -0.9629
41385SOL     OW32932   5.019   6.992   3.232 -0.4228  0.1333  0.7322
41385SOL    HW132933   5.025   7.086   3.215  1.1627  0.0587  0.6967
41385SOL    HW232934   5.047   6.950   3.151 -0.4777 -0.3581  0.9584
41386SOL     OW32935   6.195   9.079   8.436  0.0150  0.3222  0.3423
41386SOL    HW132936   6.187   9.013   8.367 -1.2540  0.4645  0.3278
41386SOL    HW232937   6.285   9.111   8.429  1.2965 -2.6180  1.4586
41387SOL     OW32938   7.375   4.021   9.945  0.0639  0.3811  0.4553
41387SOL    HW132939   7.406   4.016   9.854 -0.3970 -0.6817  0.3491
41387SOL    HW232940   7.374   4.115   9.964 -1.1283  0.7242 -1.1004
41388SOL     OW32941   5.658   7.993  10.296  0.2118  0.3737 -0.1393
41388SOL    HW132942   5.620   7.961  10.378 -1.2133 -0.4632 -1.0827
41388SOL    HW232943   5.646   8.088  10.300  0.6385  0.4082  0.8263
41389SOL     OW32944   7.101   3.955   1.915  0.1991 -0.4944  0.0340
41389SOL    HW132945   7.061   3.970   2.000 -1.4759  0.9893 -0.9386
41389SOL    HW232946   7.178   4.012   1.914  1.2539 -1.8139  1.1380
41390SOL     OW32947  10.406   6.019   5.457 -0.4885  0.0981  0.0226
41390SOL    HW132948  10.433   5.954   5.522 -1.4902  0.1689  0.5214
41390SOL    HW232949  10.447   5.989   5.375 -0.0731 -0.5679  0.4601
41391SOL     OW32950  10.799   3.661   5.920 -0.2994 -0.1521 -0.5887
41391SOL    HW132951  10.704   3.668   5.905 -0.6369 -1.7410  0.5714
41391SOL    HW232952  10.836   3.733   5.869 -2.0115 -0.2925 -2.1642
41392SOL     OW32953   7.232  11.456   8.435  0.7905  0.4377 -0.4686
41392SOL    HW132954   7.327  11.462   8.445  0.7418  1.1858 -0.4545
41392SOL    HW232955   7.207  11.537   8.392 -0.3273  2.2183  3.0917
41393SOL     OW32956   1.483   0.307   4.602 -0.0541  0.5057 -0.0565
41393SOL    HW132957   1.517   0.310   4.691 -0.6445  1.7337  0.1485
41393SOL    HW232958   1.514   0.387   4.561 -1.3659  0.8928 -0.3473
41394SOL     OW32959   4.686  11.262   2.928  0.9049 -0.5213 -0.2705
41394SOL    HW132960   4.618  11.282   2.991  1.9608 -1.9640  1.4084
41394SOL    HW232961   4.652  11.294   2.844 -0.5640  1.3523  0.9819
41395SOL     OW32962  10.414   7.019  12.369 -0.0442 -0.2658  0.5115
41395SOL    HW132963  10.476   6.956  12.406 -0.9018 -1.7936 -0.5698
41395SOL    HW232964  10.332   6.971  12.361 -0.9328  1.2173  0.3114
41396SOL     OW32965   2.127   3.408   0.451 -0.3222  0.4700  0.1860
41396SOL    HW132966   2.188   3.404   0.524  0.7710  1.5978 -0.6179
41396SOL    HW232967   2.060   3.471   0.478 -0.1862  0.5201  0.4074
41397SOL     OW32968   7.217   7.545   8.081 -0.4256  0.7414 -0.0866
41397SOL    HW132969   7.209   7.461   8.036 -0.6019  1.4017 -1.3384
41397SOL    HW232970   7.190   7.527   8.171  1.6882 -1.0363  0.2712
41398SOL     OW32971   8.108  10.058   0.918  0.2210 -0.3909 -0.5129
41398SOL    HW132972   8.117  10.152   0.903 -1.9338 -0.1035 -0.4260
41398SOL    HW232973   8.112  10.018   0.831  0.4012 -0.1372 -0.6192
41399SOL     OW32974   5.686   0.124  10.664 -0.0149 -0.0778 -0.0721
41399SOL    HW132975   5.628   0.143  10.590 -1.2860  0.2552  0.9574
41399SOL    HW232976   5.770   0.101  10.625 -0.2081  1.5699 -1.5777
41400SOL     OW32977   6.653   8.863   3.422  0.6825  0.0414 -0.4164
41400SOL    HW132978   6.621   8.946   3.388 -0.2862  0.2370  0.9121
41400SOL    HW232979   6.725   8.887   3.481  0.2029 -0.0305  0.2032
41401SOL     OW32980   4.333   0.961   7.082  0.0463 -0.2316 -0.0488
41401SOL    HW132981   4.379   0.880   7.104  1.7665  0.8413  0.5320
41401SOL    HW232982   4.357   0.978   6.991 -0.8215 -0.6777 -0.3701
41402SOL     OW32983   5.210  10.290   8.521 -0.5948  0.4104  0.0145
41402SOL    HW132984   5.210  10.214   8.579  2.0751  0.4524  0.2058
41402SOL    HW232985   5.160  10.261   8.444  0.2898 -1.5563  0.1160
41403SOL     OW32986   3.143  10.012   8.907  0.7054 -0.1648  0.1142
41403SOL    HW132987   3.141   9.917   8.902 -1.2170 -0.1791  0.5690
41403SOL    HW232988   3.145  10.041   8.816  2.1974 -0.6121 -0.0236
41404SOL     OW32989   2.781   6.125   3.491  0.1454 -0.2936  0.2283
41404SOL    HW132990   2.798   6.207   3.445  0.1061 -0.8616 -0.8405
41404SOL    HW232991   2.867   6.095   3.520  0.2227 -0.1314  0.1666
41405SOL     OW32992   3.085   5.237   6.482  0.0498  0.2157 -0.1151
41405SOL    HW132993   3.066   5.143   6.483  0.3945  0.1272  1.4952
41405SOL    HW232994   3.172   5.244   6.521 -0.1047  1.2216  0.0702
41406SOL     OW32995   5.793   8.016   6.149 -0.0620 -0.0943 -0.0765
41406SOL    HW132996   5.804   8.105   6.115  1.0598 -0.4497 -0.6774
41406SOL    HW232997   5.699   7.999   6.139 -0.2556  0.9280 -0.1743
41407SOL     OW32998   8.208   9.950   5.032  0.2461 -0.0696 -0.1448
41407SOL    HW132999   8.121   9.913   5.018  0.3620 -0.1525 -0.6555
41407SOL    HW233000   8.233   9.987   4.947 -0.1725  1.8390  0.5257
41408SOL     OW33001   4.760   3.766   3.517  0.8161 -0.3070 -0.0091
41408SOL    HW133002   4.841   3.745   3.563  0.2559 -2.4420  0.0794
41408SOL    HW233003   4.761   3.711   3.439 -0.0389  0.4760 -0.5930
41409SOL     OW33004   5.814   0.140   9.040 -0.4697  0.1834  0.1354
41409SOL    HW133005   5.752   0.202   9.002 -1.4919 -0.3748  0.8395
41409SOL    HW233006   5.782   0.127   9.129  0.4935 -0.3570  0.4110
41410SOL     OW33007  10.193   4.900   2.683 -0.0274 -0.3972  0.2044
41410SOL    HW133008  10.245   4.931   2.757 -0.1232  0.7934 -0.2007
41410SOL    HW233009  10.104   4.931   2.701 -0.0780 -0.2094 -0.3320
41411SOL     OW33010   1.460   5.521   7.879 -0.5499  0.1564  0.5217
41411SOL    HW133011   1.384   5.579   7.874  0.4330  1.6132  1.6671
41411SOL    HW233012   1.446   5.459   7.808 -0.0663  3.7559 -3.1342
41412SOL     OW33013  10.831  11.577   9.726  0.4976  0.1261 -0.3302
41412SOL    HW133014  10.874  11.542   9.648  0.1891 -1.0214 -0.0065
41412SOL    HW233015  10.885  11.651   9.752  1.8954 -0.8717 -0.3250
41413SOL     OW33016   9.645  11.045   2.574  0.2634  0.4343 -0.3353
41413SOL    HW133017   9.706  10.983   2.534 -0.6965  0.1044 -1.3639
41413SOL    HW233018   9.696  11.091   2.641  1.7244  0.4588 -1.4283
41414SOL     OW33019   2.156   5.469   1.940 -0.1718  0.6780  0.4822
41414SOL    HW133020   2.216   5.445   2.011 -1.7107  0.9506  1.9289
41414SOL    HW233021   2.078   5.416   1.954 -0.5244  0.7254 -1.0417
41415SOL     OW33022   0.100   2.036   1.173  0.1069  0.0603  0.0240
41415SOL    HW133023   0.162   1.998   1.236  0.2191  0.1065 -0.0582
41415SOL    HW233024   0.149   2.041   1.091 -0.2186 -0.5418 -0.2186
41416SOL     OW33025   5.043   8.397  12.595 -0.5471 -0.2695 -0.0032
41416SOL    HW133026   5.139   8.402  12.600 -0.4573 -1.9391  0.5117
41416SOL    HW233027   5.025   8.379  12.503 -0.2332 -1.6802  0.1848
41417SOL     OW33028   9.958  11.430   4.092  0.2506  0.2599  0.7307
41417SOL    HW133029  10.004  11.514   4.094 -0.3753  0.6473 -0.3497
41417SOL    HW233030   9.990  11.386   4.014 -1.9570  1.0332 -0.7243
41418SOL     OW33031   3.200   5.773   0.737 -0.4502  0.2103 -0.7773
41418SOL    HW133032   3.171   5.713   0.668  0.4341  0.9595 -1.8267
41418SOL    HW233033   3.238   5.716   0.803  0.6917 -0.4065 -1.9161
41419SOL     OW33034   4.571   6.032   8.815 -0.0016  0.0082  0.5272
41419SOL    HW133035   4.504   6.100   8.819  0.3685  0.4237 -0.0876
41419SOL    HW233036   4.625   6.057   8.740 -0.1453 -1.2276 -0.0101
41420SOL     OW33037   0.684  10.503   4.886  0.0147 -0.4807 -0.0240
41420SOL    HW133038   0.642  10.549   4.958 -0.2130 -2.3540  1.1047
41420SOL    HW233039   0.756  10.560   4.860 -1.4843  1.4758 -0.1362
41421SOL     OW33040   2.651  11.070  11.862 -0.3423 -0.0152  0.3832
41421SOL    HW133041   2.709  11.105  11.795 -1.0484 -0.7649 -0.6619
41421SOL    HW233042   2.608  11.146  11.899 -0.3975  0.3774 -0.4573
41422SOL     OW33043   1.875   5.426   3.448  0.3459 -0.6906  0.0550
41422SOL    HW133044   1.968   5.445   3.458 -0.2618  1.4398  2.9029
41422SOL    HW233045   1.843   5.494   3.388  0.3936 -0.6147  0.1153
41423SOL     OW33046   2.674   7.384   0.132 -0.0215 -0.3708 -0.1210
41423SOL    HW133047   2.750   7.332   0.105  1.0998  0.6521  0.9293
41423SOL    HW233048   2.709   7.472   0.147 -0.9742 -0.3127  2.3170
41424SOL     OW33049  11.118   6.190   8.719 -0.3893 -0.0103  0.1150
41424SOL    HW133050  11.168   6.270   8.735 -0.9373  0.3694 -0.0535
41424SOL    HW233051  11.040   6.198   8.774 -0.9190  0.0235 -0.6191
41425SOL     OW33052   0.376  11.764   8.242  0.1420  0.2824 -0.1212
41425SOL    HW133053   0.410  11.826   8.306 -0.4509  1.4750 -0.9219
41425SOL    HW233054   0.310  11.714   8.290 -1.0357  1.8535  0.0000
41426SOL     OW33055  10.897   9.296   1.996  0.3022 -0.4819 -0.3506
41426SOL    HW133056  10.829   9.357   2.024 -1.4783 -1.8613 -1.4437
41426SOL    HW233057  10.927   9.255   2.077 -0.8733 -0.5479  0.0679
41427SOL     OW33058   5.484  11.952  11.138 -0.2065  0.3682  0.1901
41427SOL    HW133059   5.479  11.877  11.198 -1.0466 -0.7532 -1.1873
41427SOL    HW233060   5.577  11.969  11.129  0.1902 -1.9358 -1.0519
41428SOL     OW33061   4.375   1.653   3.235  0.0305  0.0774  0.7090
41428SOL    HW133062   4.470   1.659   3.246  0.0906  1.8745 -0.3094
41428SOL    HW233063   4.362   1.570   3.189  1.1913  0.1945  0.1243
41429SOL     OW33064   2.420   7.656   4.483  0.3080  0.2508 -0.3087
41429SOL    HW133065   2.350   7.593   4.467  0.7986 -0.4451  0.1782
41429SOL    HW233066   2.466   7.661   4.399 -2.0891  3.0662 -1.6105
41430SOL     OW33067   5.354  10.142   2.839 -0.9313 -0.3726  0.5174
41430SOL    HW133068   5.369  10.150   2.934 -0.5736  0.8291  0.3759
41430SOL    HW233069   5.290  10.211   2.819 -2.3783 -1.7628  0.1566
41431SOL     OW33070   5.680   7.743  12.144  0.1294  0.0037  0.0166
41431SOL    HW133071   5.666   7.828  12.104 -1.1419  0.3077  1.0456
41431SOL    HW233072   5.637   7.681  12.086  2.0212 -0.1303 -1.3422
41432SOL     OW33073   4.242   9.834   9.581 -0.2933 -0.1574  0.3364
41432SOL    HW133074   4.164   9.821   9.527 -3.3282 -0.0417  4.2544
41432SOL    HW233075   4.241   9.761   9.642  1.0820  1.2856  2.2055
41433SOL     OW33076   8.175   2.421  10.876 -0.7081  0.3580 -0.2133
41433SOL    HW133077   8.173   2.515  10.894 -1.4382  0.5138 -1.0518
41433SOL    HW233078   8.169   2.380  10.962 -0.3944  1.0738  0.1591
41434SOL     OW33079  11.738   6.296   7.184 -0.4007  0.3072  0.3142
41434SOL    HW133080  11.716   6.322   7.273 -0.4219 -0.1190  0.4352
41434SOL    HW233081  11.712   6.204   7.179  1.4307 -0.2516  0.4896
41435SOL     OW33082   1.118   0.014  11.979  0.2304  0.0104 -0.2603
41435SOL    HW133083   1.089   0.043  11.892  0.1286  2.3543  0.4762
41435SOL    HW233084   1.206   0.051  11.988  0.8760 -1.5270  0.0744
41436SOL     OW33085   9.105  12.046   1.277 -0.3596  0.0989  0.0374
41436SOL    HW133086   9.057  12.023   1.356  0.2292  1.6259  0.8802
41436SOL    HW233087   9.049  12.109   1.232  0.4194  1.2336  0.5972
41437SOL     OW33088   1.860   0.567  11.491 -0.5954  0.2955  0.5602
41437SOL    HW133089   1.869   0.529  11.403 -1.9738 -0.3913  0.6869
41437SOL    HW233090   1.937   0.537  11.538 -1.0472 -1.3862  0.2910
41438SOL     OW33091   2.967   1.300   0.189 -0.4006  0.0792  0.2396
41438SOL    HW133092   2.901   1.347   0.137 -0.0585  1.1558  0.7474
41438SOL    HW233093   2.946   1.208   0.176 -0.9550  0.3487 -0.9859
41439SOL     OW33094  12.265   3.300   6.540  1.2456 -0.1501 -0.4713
41439SOL    HW133095  12.214   3.341   6.610  0.6770  0.1925 -1.0734
41439SOL    HW233096  12.326   3.242   6.585  1.4918  0.7284  0.3529
41440SOL     OW33097   3.846   8.404   8.099  0.1366 -0.0358 -0.4553
41440SOL    HW133098   3.845   8.314   8.131 -0.1993 -0.6148 -1.9864
41440SOL    HW233099   3.931   8.413   8.056  0.2840  0.4681 -0.0558
41441SOL     OW33100   0.608   9.602   1.813 -0.2089 -0.1578  0.6223
41441SOL    HW133101   0.642   9.592   1.724 -1.2836  0.8402  0.0618
41441SOL    HW233102   0.548   9.677   1.807 -2.6680 -1.9291  1.4633
41442SOL     OW33103   2.903   3.736  12.387  0.0723  0.0661 -0.6427
41442SOL    HW133104   2.825   3.698  12.428 -0.0078  1.9350  1.0826
41442SOL    HW233105   2.871   3.814  12.341  0.8391  0.5176 -0.4264
41443SOL     OW33106   8.415   2.969   7.582 -0.1574 -0.1198 -0.4073
41443SOL    HW133107   8.430   3.060   7.559 -0.5433 -0.1828 -0.9426
41443SOL    HW233108   8.370   2.972   7.666 -1.5729  0.2629 -1.1444
41444SOL     OW33109   6.989   5.293  11.187  0.2126 -0.2208  0.3616
41444SOL    HW133110   6.916   5.353  11.200 -0.3491 -0.8520  0.1429
41444SOL    HW233111   7.063   5.349  11.163 -0.4898  0.3127 -0.5829
41445SOL     OW33112   6.659   8.013  11.043 -0.1195 -0.9678 -0.3965
41445SOL    HW133113   6.741   7.989  11.000  0.0780 -0.2287 -0.4444
41445SOL    HW233114   6.592   7.999  10.976 -0.0466 -1.5844 -0.3526
41446SOL     OW33115  10.363   4.974   7.579 -0.0780  0.4546  0.4005
41446SOL    HW133116  10.345   5.063   7.551  0.5941 -0.3402 -3.0408
41446SOL    HW233117  10.459   4.971   7.588  0.1940 -0.4641 -2.0891
41447SOL     OW33118   8.014   4.977   7.756  0.1027  0.2319  0.5274
41447SOL    HW133119   8.030   5.050   7.696  0.0706  0.8775  1.2822
41447SOL    HW233120   8.101   4.943   7.775  0.1355  0.2035  0.3228
41448SOL     OW33121   0.567   9.054   5.386  0.4154 -0.2020  0.3259
41448SOL    HW133122   0.543   9.061   5.293  0.0979  1.9566  0.5205
41448SOL    HW233123   0.599   9.142   5.409 -1.3834 -0.0852  2.7489
41449SOL     OW33124   3.380   6.583   1.410  0.0648  0.0674  1.0333
41449SOL    HW133125   3.403   6.676   1.400 -0.2760  0.0132 -0.4576
41449SOL    HW233126   3.458   6.536   1.383 -0.3256 -0.0890  0.1663
41450SOL     OW33127  10.078   2.530   3.660 -0.4143 -0.2707 -0.0124
41450SOL    HW133128   9.983   2.520   3.659 -0.5088  0.0521  1.8347
41450SOL    HW233129  10.110   2.454   3.708  0.2775 -0.3909 -0.6476
41451SOL     OW33130   6.760   2.621  10.225  0.4151 -0.3442  0.3473
41451SOL    HW133131   6.847   2.593  10.197 -0.0182 -1.0958 -0.2739
41451SOL    HW233132   6.757   2.600  10.319  0.4458 -1.5213  0.1004
41452SOL     OW33133   4.239   6.563   3.257 -0.0183 -0.7040  0.5060
41452SOL    HW133134   4.146   6.586   3.250 -0.1253 -0.6788  1.7693
41452SOL    HW233135   4.257   6.511   3.179 -1.5183 -2.1342  1.0534
41453SOL     OW33136   5.932   5.389   7.416 -0.2170 -0.1935 -0.8115
41453SOL    HW133137   5.901   5.300   7.434 -0.9410  0.4185  1.1688
41453SOL    HW233138   5.852   5.441   7.407  0.1689  0.1538 -2.8830
41454SOL     OW33139   7.302   1.376   1.916 -0.3379 -0.0315  0.0314
41454SOL    HW133140   7.388   1.337   1.932 -0.7820 -0.6590  1.0002
41454SOL    HW233141   7.271   1.402   2.003 -1.0733  0.2942 -0.3207
41455SOL     OW33142   3.044   5.100  10.433 -0.4783  0.3963 -0.4013
41455SOL    HW133143   3.136   5.095  10.407 -0.7815 -0.8450 -1.3605
41455SOL    HW233144   2.997   5.123  10.352 -1.2299 -1.3987 -0.5353
41456SOL     OW33145   3.689  10.276   1.082  1.1569 -0.3066 -0.7248
41456SOL    HW133146   3.594  10.288   1.072  1.2899 -0.3801 -2.4788
41456SOL    HW233147   3.702  10.181   1.077  1.3099 -0.3198 -0.1767
41457SOL     OW33148   0.361   5.780   6.742  0.2366 -0.4104  0.3335
41457SOL    HW133149   0.383   5.824   6.824  3.9797 -1.7435  0.2070
41457SOL    HW233150   0.426   5.812   6.679 -1.0175 -1.2576 -1.4996
41458SOL     OW33151   4.172   1.257  11.657 -0.3618  0.7946 -0.3960
41458SOL    HW133152   4.088   1.262  11.612 -1.9895 -1.5647  2.0271
41458SOL    HW233153   4.176   1.338  11.709 -1.4825  0.6197 -0.0175
41459SOL     OW33154   9.210   6.759   2.134 -0.8244 -0.3547 -0.2727
41459SOL    HW133155   9.276   6.749   2.065 -0.4399  0.9676 -0.1153
41459SOL    HW233156   9.212   6.675   2.180 -1.3796 -1.4429 -2.0934
41460SOL     OW33157   1.799   0.833   3.039  0.3804 -0.3832  0.3586
41460SOL    HW133158   1.752   0.760   3.077  0.0856  1.0589  3.0112
41460SOL    HW233159   1.874   0.847   3.097 -0.3519  2.2484  0.8219
41461SOL     OW33160   4.504   3.288   6.168 -0.2380  0.0835 -0.3287
41461SOL    HW133161   4.526   3.195   6.177  0.3769  0.1905 -0.7231
41461SOL    HW233162   4.546   3.316   6.087  2.1775  1.4491  1.2790
41462SOL     OW33163   0.311   9.125   3.673 -0.7984  0.6638 -0.4016
41462SOL    HW133164   0.217   9.116   3.689 -0.5283 -2.2413 -0.0224
41462SOL    HW233165   0.331   9.060   3.606  0.8926  1.6083 -0.8842
41463SOL     OW33166  12.102   3.243   2.957 -0.7165  0.0321 -0.1218
41463SOL    HW133167  12.092   3.329   2.916 -0.4447 -1.0489 -2.6833
41463SOL    HW233168  12.157   3.194   2.895 -0.6714 -1.9143  1.3742
41464SOL     OW33169   4.170   5.518   7.512  0.1381  0.3975  0.2800
41464SOL    HW133170   4.202   5.589   7.456 -0.6690  0.1948 -0.4746
41464SOL    HW233171   4.249   5.479   7.549  0.6526  1.0088 -0.1460
41465SOL     OW33172  10.399  11.817   9.235 -0.0370 -0.3438 -0.2454
41465SOL    HW133173  10.415  11.858   9.320  1.3653 -1.0035 -0.1799
41465SOL    HW233174  10.357  11.886   9.184  0.0297  0.3848  0.6525
41466SOL     OW33175   7.203   4.084  12.546 -0.8059 -0.0634 -0.4091
41466SOL    HW133176   7.264   4.013  12.530 -1.2903 -0.1192 -2.1904
41466SOL    HW233177   7.164   4.103  12.461  1.1856  4.1186 -0.6268
41467SOL     OW33178   7.256   4.896   1.605 -0.5177  0.1267 -0.3224
41467SOL    HW133179   7.289   4.824   1.658  0.5501  1.2882  0.6569
41467SOL    HW233180   7.280   4.874   1.516 -0.5986 -0.9266 -0.0970
41468SOL     OW33181  12.449   6.140   0.268  0.6722  0.2832  0.2523
41468SOL    HW133182  12.462   6.228   0.232  1.9552 -0.2549 -0.6733
41468SOL    HW233183  12.357   6.121   0.251  0.7543  0.8443 -0.9675
41469SOL     OW33184   5.162   4.692   2.990  0.1633 -0.1316 -0.1446
41469SOL    HW133185   5.175   4.641   2.910  1.6049 -0.4739  0.2755
41469SOL    HW233186   5.220   4.768   2.979 -0.7367  0.5853 -0.0503
41470SOL     OW33187   4.429   2.848   8.688  0.2737  0.2753 -0.1037
41470SOL    HW133188   4.381   2.873   8.608  1.4939  1.6193 -0.4646
41470SOL    HW233189   4.521   2.863   8.666  0.7838 -1.0591  0.9896
41471SOL     OW33190   7.606   5.101   9.883  0.1935  0.0795 -0.3603
41471SOL    HW133191   7.580   5.183   9.926 -0.0393 -0.2107  0.0654
41471SOL    HW233192   7.523   5.057   9.864  0.3356 -0.3626  0.0264
41472SOL     OW33193   3.395   0.149   9.115 -0.0434 -0.5156 -0.3951
41472SOL    HW133194   3.380   0.188   9.201  1.6155 -0.6892  0.0124
41472SOL    HW233195   3.427   0.061   9.134  1.3451 -0.1961 -1.1395
41473SOL     OW33196  11.240   8.878   5.498 -0.3448  0.1696  0.2039
41473SOL    HW133197  11.168   8.817   5.480 -1.3769  1.5739 -0.5862
41473SOL    HW233198  11.204   8.939   5.563  0.3938  0.4551  0.3555
41474SOL     OW33199   6.660   0.667   9.000  0.1512  0.0164 -0.1654
41474SOL    HW133200   6.676   0.585   9.048 -1.5921 -2.3526 -3.2488
41474SOL    HW233201   6.585   0.706   9.044  1.0304  0.0495  1.3792
41475SOL     OW33202   9.132   1.879  11.248 -0.0663 -0.1898  0.2066
41475SOL    HW133203   9.080   1.958  11.239 -0.3474 -0.1800  1.7017
41475SOL    HW233204   9.104   1.823  11.175 -1.4793  0.1880  0.4477
41476SOL     OW33205   3.413   7.586   9.231  0.3317 -0.2288 -0.3470
41476SOL    HW133206   3.396   7.510   9.176  0.6446 -0.4036 -0.2031
41476SOL    HW233207   3.380   7.562   9.318  0.6848 -0.3059 -0.2349
41477SOL     OW33208   6.660  10.856   6.087  0.2022  0.2470  0.6446
41477SOL    HW133209   6.575  10.819   6.106 -0.1952  0.7730 -0.0391
41477SOL    HW233210   6.698  10.797   6.022  0.1774  0.2398  0.6368
41478SOL     OW33211   6.973   3.518   2.777 -0.8515 -0.1184  0.0304
41478SOL    HW133212   6.967   3.441   2.720 -0.6794  1.1974 -1.8611
41478SOL    HW233213   6.975   3.482   2.865 -0.8490 -2.2778 -0.7821
41479SOL     OW33214   5.575   9.182  10.888 -0.5207 -0.4271  0.0569
41479SOL    HW133215   5.527   9.132  10.822 -2.0600 -0.4333  1.1449
41479SOL    HW233216   5.664   9.146  10.885 -0.3089  0.1041 -2.5414
41480SOL     OW33217  11.817  10.867   0.961  0.3104 -0.1581  0.2325
41480SOL    HW133218  11.759  10.941   0.975 -0.2140 -0.2199 -1.3926
41480SOL    HW233219  11.766  10.791   0.988 -0.3798 -0.2063 -1.1224
41481SOL     OW33220   3.304   6.220   2.769  0.2049  0.4569 -0.5829
41481SOL    HW133221   3.239   6.158   2.736  0.3354 -0.6819  1.1711
41481SOL    HW233222   3.252   6.293   2.803 -0.3365 -1.0502  2.0516
41482SOL     OW33223   5.763   9.398   0.643  0.7666  0.1637  0.1330
41482SOL    HW133224   5.814   9.328   0.602 -0.1949  0.1031 -0.9827
41482SOL    HW233225   5.748   9.367   0.733 -1.6348 -2.1949 -0.9597
41483SOL     OW33226   8.626   4.126   6.138  0.0289 -0.0047 -0.2577
41483SOL    HW133227   8.705   4.074   6.126  1.1176  1.3119  0.8689
41483SOL    HW233228   8.641   4.174   6.219 -2.3750 -0.4747  0.5506
41484SOL     OW33229  11.584   0.180   0.025  0.2600  0.1742 -0.6571
41484SOL    HW133230  11.504   0.161   0.073 -0.1326  0.2072 -1.2806
41484SOL    HW233231  11.605   0.271   0.048  0.0163  0.2248 -0.6330
41485SOL     OW33232   6.111   4.343   3.714 -0.1925 -0.0643 -0.3668
41485SOL    HW133233   6.155   4.300   3.787 -2.7502 -2.0413  0.1380
41485SOL    HW233234   6.118   4.280   3.641  1.4644  1.4567 -1.6098
41486SOL     OW33235   6.919   4.678   4.848 -0.7007 -0.2778  0.2318
41486SOL    HW133236   6.921   4.596   4.799  0.0094 -0.5533  0.7040
41486SOL    HW233237   6.877   4.740   4.789  2.0259 -0.0480 -1.6390
41487SOL     OW33238   0.482   6.883  10.691 -0.2506  0.0689  0.6119
41487SOL    HW133239   0.551   6.926  10.640 -1.5342 -0.1442 -1.4159
41487SOL    HW233240   0.528   6.812  10.737  0.9462  0.0925 -0.4755
41488SOL     OW33241   9.538   7.624   1.484 -0.1375 -0.8015  0.7833
41488SOL    HW133242   9.546   7.530   1.500  1.1538 -0.7095  0.7801
41488SOL    HW233243   9.570   7.664   1.565 -3.9200 -0.3032  2.2430
41489SOL     OW33244   1.327   2.863   1.848 -0.0689  0.1313 -0.1212
41489SOL    HW133245   1.239   2.899   1.837  0.3881  1.5031  0.4884
41489SOL    HW233246   1.371   2.925   1.906  1.5335 -0.1217 -1.0058
41490SOL     OW33247   2.255   1.830   4.412 -0.0938 -0.0751  0.0044
41490SOL    HW133248   2.238   1.813   4.319  0.0921 -0.5629  0.0535
41490SOL    HW233249   2.235   1.922   4.424  0.2286  0.0825 -0.6035
41491SOL     OW33250  11.911   1.127  10.953  0.5251  0.4602  0.4043
41491SOL    HW133251  11.971   1.116  10.879 -0.9978  0.8994 -0.9459
41491SOL    HW233252  11.949   1.073  11.023  1.5568 -0.6526 -0.9652
41492SOL     OW33253   3.470  11.716   1.202 -0.0715 -0.4706  0.0307
41492SOL    HW133254   3.514  11.639   1.237  1.6493  0.7099  0.6417
41492SOL    HW233255   3.378  11.691   1.195  0.2730 -2.2186  1.2064
41493SOL     OW33256   5.609  11.665   7.499  0.1554 -0.0923 -0.3649
41493SOL    HW133257   5.569  11.753   7.496  0.5100  0.1178  0.6851
41493SOL    HW233258   5.572  11.620   7.423 -0.8137  0.6391 -0.3580
41494SOL     OW33259   4.088   7.745   9.687 -0.3979  0.4233 -0.0121
41494SOL    HW133260   4.088   7.709   9.776 -0.5961  0.1043 -0.1390
41494SOL    HW233261   4.110   7.670   9.631  1.0350  0.9007 -0.1267
41495SOL     OW33262   5.396   0.598   6.296 -0.3908  0.5508  0.0404
41495SOL    HW133263   5.432   0.680   6.331 -0.8330  0.1080  1.5701
41495SOL    HW233264   5.460   0.571   6.230  1.6934  0.2311  2.0535
41496SOL     OW33265   3.689   6.050   9.871 -0.0567  0.5441 -0.3256
41496SOL    HW133266   3.761   5.993   9.898  0.0479  0.6248 -0.4336
41496SOL    HW233267   3.691   6.048   9.776 -1.7082 -1.3613 -0.3856
41497SOL     OW33268   7.563   8.566   4.714 -0.3292 -0.4480  0.1208
41497SOL    HW133269   7.582   8.476   4.739 -0.2701 -0.5629 -0.3335
41497SOL    HW233270   7.649   8.604   4.693 -0.6044 -1.5181 -3.8055
41498SOL     OW33271   5.774   6.804  11.110  0.4968  0.1215 -0.1685
41498SOL    HW133272   5.818   6.779  11.029  0.0657 -2.8764  0.4043
41498SOL    HW233273   5.844   6.835  11.167  0.8342  2.0880 -1.5403
41499SOL     OW33274   7.409   2.689   2.343  0.1119  0.3251  0.0340
41499SOL    HW133275   7.366   2.773   2.356 -0.5942  0.1443 -1.0033
41499SOL    HW233276   7.442   2.665   2.430  0.1592  1.5701  0.3794
41500SOL     OW33277  12.066   0.453   4.451 -0.2009 -0.5679  0.6146
41500SOL    HW133278  11.992   0.445   4.511 -0.1193  0.3698  0.8635
41500SOL    HW233279  12.055   0.538   4.410 -1.0487 -1.7654 -1.8379
41501SOL     OW33280   3.739   4.896   5.285 -0.4553  0.1007 -0.0968
41501SOL    HW133281   3.761   4.806   5.261  1.5467 -0.0937  2.0112
41501SOL    HW233282   3.643   4.900   5.280 -0.5987 -2.1725 -0.2213
41502SOL     OW33283   2.930  11.028   5.529  0.2958 -0.6057  0.6384
41502SOL    HW133284   3.021  11.052   5.549  1.1924 -2.1603 -1.2625
41502SOL    HW233285   2.919  10.943   5.571 -0.3967 -0.3108  1.0695
41503SOL     OW33286  12.611  11.397   5.231 -0.1890  0.3448 -0.0881
41503SOL    HW133287  12.670  11.331   5.267 -0.0210  0.4553 -0.1607
41503SOL    HW233288  12.563  11.431   5.307  0.0646  0.4768  0.0138
41504SOL     OW33289   1.870  10.841   4.041 -0.2354 -0.3941 -0.2119
41504SOL    HW133290   1.826  10.872   4.120  2.3389  1.2399  0.7149
41504SOL    HW233291   1.812  10.867   3.969 -1.1576  0.9749  0.9716
41505SOL     OW33292   2.932   6.892   5.841  0.2345 -0.0433 -0.5837
41505SOL    HW133293   2.981   6.915   5.762  0.1346 -0.8998 -0.9092
41505SOL    HW233294   2.840   6.894   5.813  0.2360 -1.0356 -0.6873
41506SOL     OW33295   7.820   5.209   3.286 -0.5223 -0.3057 -0.4728
41506SOL    HW133296   7.804   5.166   3.201 -1.8671  1.1361 -0.9907
41506SOL    HW233297   7.764   5.286   3.285  0.6233  0.6075  1.1001
41507SOL     OW33298  12.446   4.676   6.148 -0.0971 -0.9708  0.3188
41507SOL    HW133299  12.505   4.686   6.073 -1.2173  1.0088 -0.3555
41507SOL    HW233300  12.402   4.592   6.133  0.5814 -1.1810 -0.5802
41508SOL     OW33301   7.958   6.080   0.792 -0.0727 -0.6089 -0.5172
41508SOL    HW133302   7.938   5.987   0.804  0.4150 -0.7494 -0.8004
41508SOL    HW233303   8.036   6.081   0.737  0.6219 -0.0543  0.4511
41509SOL     OW33304   9.913  11.500   3.187  0.4742 -0.4803 -0.2269
41509SOL    HW133305   9.859  11.560   3.239  1.8066  0.7458 -0.1781
41509SOL    HW233306   9.934  11.429   3.247 -1.6111 -1.3547 -0.4560
41510SOL     OW33307   2.176   2.828   6.607 -0.1497 -0.6441 -0.0138
41510SOL    HW133308   2.162   2.750   6.554 -1.1352  0.8907 -2.2009
41510SOL    HW233309   2.170   2.901   6.544 -1.2299  1.3189  2.1779
41511SOL     OW33310   2.154   2.529   9.113  0.1907  0.2275  0.1146
41511SOL    HW133311   2.228   2.495   9.164  0.2222  0.6350  0.3437
41511SOL    HW233312   2.077   2.485   9.150  0.3424 -0.4206 -0.3198
41512SOL     OW33313  12.449   8.260   9.159 -0.4009 -0.2125 -0.1727
41512SOL    HW133314  12.384   8.251   9.229 -0.0102  2.3141  0.6112
41512SOL    HW233315  12.521   8.308   9.199  0.5702 -0.1551 -1.8883
41513SOL     OW33316   9.137  10.627  11.648 -0.2994 -0.1145  0.1704
41513SOL    HW133317   9.203  10.592  11.708 -0.5132 -0.5848  0.1323
41513SOL    HW233318   9.179  10.621  11.562 -0.2168  0.0148  0.2005
41514SOL     OW33319   2.130   0.876  12.559 -0.4225  0.3291 -0.2420
41514SOL    HW133320   2.153   0.953  12.611 -0.9748  1.1580 -1.1619
41514SOL    HW233321   2.118   0.911  12.470  2.9775 -1.4133 -1.5340
41515SOL     OW33322   2.068   0.067   3.100  0.2617  0.2322 -0.1464
41515SOL    HW133323   2.063   0.142   3.159  0.2141 -1.0691  1.6126
41515SOL    HW233324   2.089  -0.007   3.158  0.3332 -1.0991 -1.8008
41516SOL     OW33325   7.469   1.195  12.573 -0.3150  0.2356  0.0340
41516SOL    HW133326   7.475   1.251  12.495  0.5885  0.2244  0.0812
41516SOL    HW233327   7.499   1.109  12.543 -0.4873  0.0940  0.2646
41517SOL     OW33328   4.082  12.495   6.078  0.1568  0.0348  0.5224
41517SOL    HW133329   4.005  12.552   6.077 -0.5810 -0.8630 -1.6928
41517SOL    HW233330   4.156  12.554   6.093 -0.8467  1.0817  1.5641
41518SOL     OW33331   6.306   9.791  11.492 -0.1731  0.8271  0.1058
41518SOL    HW133332   6.358   9.710  11.487 -1.4272 -0.1361  1.5447
41518SOL    HW233333   6.284   9.799  11.585 -2.7752  1.0336 -0.4564
41519SOL     OW33334   9.598   6.392   7.403  0.2011 -0.6494  0.0292
41519SOL    HW133335   9.548   6.399   7.322  0.2625 -0.7089 -0.0150
41519SOL    HW233336   9.675   6.446   7.388 -1.1677  1.7308  1.1320
41520SOL     OW33337   5.363   0.502   0.058  0.5095 -0.0186  0.0406
41520SOL    HW133338   5.310   0.424   0.068  0.0575  0.3427  0.5604
41520SOL    HW233339   5.313   0.571   0.103  1.2009  0.4230  0.1482
41521SOL     OW33340   9.963  10.197   3.692  0.2486 -0.6729 -0.4719
41521SOL    HW133341   9.983  10.104   3.685  0.3854 -0.7769  0.9470
41521SOL    HW233342  10.034  10.241   3.646  0.7358 -1.2323 -0.2590
41522SOL     OW33343   1.245  12.317   8.375  0.9151 -0.3949 -0.1612
41522SOL    HW133344   1.259  12.311   8.281  0.5662  0.1471 -0.2495
41522SOL    HW233345   1.205  12.233   8.399  1.4199 -0.7115 -0.4171
41523SOL     OW33346   0.266   7.658   0.538 -0.3240 -0.2139 -0.3783
41523SOL    HW133347   0.302   7.742   0.565 -1.3109 -0.0088  0.3497
41523SOL    HW233348   0.220   7.625   0.615  0.5750 -1.7277 -0.4550
41524SOL     OW33349   5.563   4.044   3.379  0.3353 -0.0030  0.9307
41524SOL    HW133350   5.534   4.125   3.420 -1.1562 -0.6458  1.1809
41524SOL    HW233351   5.491   4.018   3.322  1.3912 -0.4009 -0.2923
41525SOL     OW33352   5.921   4.887  10.425 -0.1760  0.0866 -0.0579
41525SOL    HW133353   5.902   4.892  10.519  0.3855  0.5398  0.0377
41525SOL    HW233354   5.980   4.811  10.417 -0.5812 -0.2256 -0.1094
41526SOL     OW33355   6.737  11.093   0.581  0.1188 -0.0354  0.2451
41526SOL    HW133356   6.800  11.050   0.524  0.8427 -0.8387  1.5991
41526SOL    HW233357   6.733  11.184   0.549  0.4214 -0.4770 -1.1097
41527SOL     OW33358   1.266   6.694   0.015 -0.3263 -0.1800 -0.3069
41527SOL    HW133359   1.324   6.629   0.056 -0.1055 -1.0220 -1.8491
41527SOL    HW233360   1.303   6.778   0.040  0.8705 -0.6941 -0.2664
41528SOL     OW33361   7.451   3.815   5.778 -0.1755  0.2488  0.4860
41528SOL    HW133362   7.491   3.889   5.732 -0.2848 -0.3297 -0.5708
41528SOL    HW233363   7.521   3.780   5.831  0.8967 -0.9589 -1.5958
41529SOL     OW33364   7.693  11.599   9.023  0.8065 -0.0753  0.2578
41529SOL    HW133365   7.655  11.517   9.054  0.2588 -0.0696 -0.3575
41529SOL    HW233366   7.624  11.664   9.037  1.0122  0.1584  0.1893
41530SOL     OW33367   1.124  10.430  11.636 -0.4511 -0.4814  0.4326
41530SOL    HW133368   1.088  10.467  11.716  1.8377 -0.6807  1.6041
41530SOL    HW233369   1.144  10.505  11.581  0.4976 -0.1605  1.1910
41531SOL     OW33370   1.840   4.090   9.759 -0.5430 -0.3482 -0.0798
41531SOL    HW133371   1.807   4.176   9.783 -0.8251 -0.1176 -1.2519
41531SOL    HW233372   1.881   4.057   9.840  0.8387  1.4730  0.0243
41532SOL     OW33373   3.353   0.923  10.483 -0.3241  0.0737 -0.4454
41532SOL    HW133374   3.291   0.927  10.410 -0.0192  0.4100 -0.6925
41532SOL    HW233375   3.424   0.982  10.457  0.0648 -0.2541 -0.1372
41533SOL     OW33376   5.977   6.757  11.301  0.0174  0.6116 -0.8424
41533SOL    HW133377   5.934   6.803  11.373 -0.0803 -3.9092  2.4531
41533SOL    HW233378   6.070   6.780  11.310 -0.4733  3.6461 -2.4127
41534SOL     OW33379   9.488   0.651   2.128 -0.4474  0.0877  0.4541
41534SOL    HW133380   9.427   0.594   2.175 -0.4528  0.4224  0.8664
41534SOL    HW233381   9.453   0.739   2.141  0.1115  0.2831  0.6835
41535SOL     OW33382   4.607   3.970   3.432 -0.0762 -0.7322  0.4241
41535SOL    HW133383   4.597   4.029   3.507 -0.3593 -0.7483  0.4014
41535SOL    HW233384   4.667   3.902   3.463 -0.0405 -0.6343  0.5719
41536SOL     OW33385   1.968  11.514   3.067 -0.3037 -0.2910  0.0235
41536SOL    HW133386   1.900  11.518   3.000 -0.5742  2.0895  0.3438
41536SOL    HW233387   1.963  11.425   3.101 -2.4285 -0.5495 -0.8075
41537SOL     OW33388   1.387   9.822   8.158 -0.7144  0.7698 -0.6052
41537SOL    HW133389   1.470   9.827   8.111 -1.1553 -0.0422 -1.5021
41537SOL    HW233390   1.410   9.837   8.249  0.5879 -0.6381 -0.6696
41538SOL     OW33391   2.522   3.417   7.910 -0.6828 -0.0087  0.1418
41538SOL    HW133392   2.532   3.330   7.950 -0.0557 -1.2215 -2.4108
41538SOL    HW233393   2.608   3.437   7.873 -0.9272  1.5410  0.3465
41539SOL     OW33394   4.662  12.019  10.768 -0.1722 -0.0664  0.0874
41539SOL    HW133395   4.571  11.997  10.787 -0.0120 -1.4463 -0.5817
41539SOL    HW233396   4.712  11.949  10.811  0.4315 -0.6040 -1.4339
41540SOL     OW33397  10.852   0.099   9.556 -0.2698 -0.4034  0.3237
41540SOL    HW133398  10.832   0.019   9.605 -1.2214  0.0251  0.6627
41540SOL    HW233399  10.900   0.154   9.619 -0.0705 -0.4955  0.2544
41541SOL     OW33400   6.368   3.705   5.799 -0.2648 -0.2055  0.6054
41541SOL    HW133401   6.279   3.696   5.766  0.2875 -1.1986 -0.6773
41541SOL    HW233402   6.362   3.773   5.866 -1.8561  0.2167  0.0662
41542SOL     OW33403   2.373   7.632   9.853 -0.5251  0.3971  0.2097
41542SOL    HW133404   2.331   7.702   9.804 -1.6179 -0.7995 -0.6436
41542SOL    HW233405   2.346   7.552   9.808  0.2251 -0.6121  1.4785
41543SOL     OW33406   3.712   0.235   9.850 -0.0324  0.3640 -0.5358
41543SOL    HW133407   3.751   0.298   9.911 -0.0961  0.9003 -1.0443
41543SOL    HW233408   3.686   0.162   9.906  1.5874  0.0246 -0.1618
41544SOL     OW33409   6.056  10.137   4.924 -0.2694 -0.2017  0.1785
41544SOL    HW133410   5.989  10.102   4.981 -0.6049 -1.3255 -0.8593
41544SOL    HW233411   6.107  10.197   4.979 -0.9809 -0.7400  1.4437
41545SOL     OW33412   2.444   8.212  10.069  0.4064 -0.3034  0.2397
41545SOL    HW133413   2.411   8.149  10.004  0.4003  0.9631 -1.0332
41545SOL    HW233414   2.431   8.168  10.153 -0.0141 -1.8158 -0.5698
41546SOL     OW33415  12.574   8.780  11.561 -0.0523  0.2200 -0.2308
41546SOL    HW133416  12.514   8.845  11.598  1.2077  1.6226 -0.5401
41546SOL    HW233417  12.660   8.805  11.596  0.6297 -0.5923 -1.2734
41547SOL     OW33418   2.677   5.609  11.887  0.3374 -0.1736 -0.1310
41547SOL    HW133419   2.690   5.615  11.982  1.2241  1.7244 -0.3218
41547SOL    HW233420   2.701   5.519  11.866 -0.7428 -0.9167  1.5359
41548SOL     OW33421   9.760  12.485   4.848 -0.3648 -0.1248  0.2290
41548SOL    HW133422   9.817  12.558   4.821  1.2788 -1.5377 -0.2812
41548SOL    HW233423   9.776  12.477   4.942  0.1590 -0.4048  0.1190
41549SOL     OW33424   8.696   3.165  10.791 -0.5466  0.1327 -0.1543
41549SOL    HW133425   8.697   3.069  10.790  1.4174  0.1136 -0.0938
41549SOL    HW233426   8.766   3.190  10.731  1.7166  1.4424  2.7817
41550SOL     OW33427   7.618   9.468   5.918 -0.7383  0.7211  0.3266
41550SOL    HW133428   7.604   9.520   5.840 -0.6387  0.1729 -0.0653
41550SOL    HW233429   7.608   9.529   5.991  2.3222  2.0010 -0.1764
41551SOL     OW33430   9.903   7.069   8.036 -0.5304  0.2939 -0.1314
41551SOL    HW133431   9.980   7.052   7.981  0.0072 -0.7124  0.8842
41551SOL    HW233432   9.877   6.982   8.067  0.2375  0.9331  2.5719
41552SOL     OW33433   7.988   9.539  10.476 -0.2135 -0.2453 -0.3565
41552SOL    HW133434   8.007   9.535  10.383 -1.2225 -0.5713 -0.5665
41552SOL    HW233435   7.929   9.614  10.485 -1.9199 -1.5117 -0.3555
41553SOL     OW33436   2.966   3.656   7.501 -0.1693  0.5684  0.0270
41553SOL    HW133437   2.921   3.721   7.555  0.5236  0.5551  0.6293
41553SOL    HW233438   3.044   3.632   7.551  0.4833  0.5454 -0.9643
41554SOL     OW33439   6.065   5.840  11.200  0.2292  0.1494  0.3357
41554SOL    HW133440   6.062   5.863  11.107  0.3916 -1.2783 -0.0461
41554SOL    HW233441   5.983   5.794  11.217  1.0096 -1.2683  0.4108
41555SOL     OW33442   7.867   5.956   2.827 -0.6955 -0.2317  0.4352
41555SOL    HW133443   7.924   6.010   2.882 -0.7705 -0.7939  1.0745
41555SOL    HW233444   7.879   5.867   2.859 -2.8216 -0.2422  1.4382
41556SOL     OW33445   1.008   1.152   0.676 -0.0392  0.7234 -0.5691
41556SOL    HW133446   0.995   1.083   0.611  0.7409  0.8867 -0.9020
41556SOL    HW233447   0.953   1.224   0.646 -0.5250  0.4059 -0.4530
41557SOL     OW33448   1.708   7.106   5.694 -0.8921  0.1494 -0.4059
41557SOL    HW133449   1.766   7.048   5.644  0.4380  0.4146  0.7776
41557SOL    HW233450   1.712   7.072   5.784 -0.5673  1.6991  0.1909
41558SOL     OW33451   0.655  12.364   2.428  0.7846 -0.3762 -0.0174
41558SOL    HW133452   0.597  12.433   2.459  2.2283  0.7301  0.3239
41558SOL    HW233453   0.679  12.392   2.339  0.6423 -0.9209 -0.2284
41559SOL     OW33454   5.446   7.340   6.161 -0.0109  0.3258 -0.7595
41559SOL    HW133455   5.469   7.312   6.250  2.1617  0.7925 -1.1305
41559SOL    HW233456   5.380   7.277   6.133 -1.6085  0.8072  1.5613
41560SOL     OW33457   7.626  10.924  10.294 -0.0659 -0.2035  0.0525
41560SOL    HW133458   7.621  10.980  10.372 -3.2630 -2.0014  1.3156
41560SOL    HW233459   7.707  10.874  10.306  1.0190  1.5928  0.6565
41561SOL     OW33460  11.256   7.267   3.498  0.7565  0.1393 -0.3130
41561SOL    HW133461  11.298   7.321   3.431  1.4409  0.3854  0.2965
41561SOL    HW233462  11.166   7.256   3.468  0.7571  1.1613 -0.7270
41562SOL     OW33463   3.796   3.263  11.717 -1.1673 -0.2190  0.6073
41562SOL    HW133464   3.869   3.217  11.677 -0.4005 -0.9615  2.7440
41562SOL    HW233465   3.781   3.339  11.660  1.2521 -0.0473  0.1134
41563SOL     OW33466   1.275   1.523   7.675 -0.1168 -0.2604  0.4270
41563SOL    HW133467   1.211   1.461   7.639 -1.1972  0.2720  1.3846
41563SOL    HW233468   1.323   1.471   7.740  0.2085 -0.5629 -0.0418
41564SOL     OW33469   0.470   8.801   1.191  0.4435  0.0967 -0.7066
41564SOL    HW133470   0.381   8.822   1.219  0.0248 -0.5995 -1.4810
41564SOL    HW233471   0.480   8.849   1.108  1.5672  1.9105  0.3965
41565SOL     OW33472   5.657  10.701   2.798  0.1939  0.6641 -0.3306
41565SOL    HW133473   5.606  10.622   2.817 -0.3536  0.9832 -0.4687
41565SOL    HW233474   5.615  10.740   2.722  0.6415  0.9390 -0.4435
41566SOL     OW33475   3.162   8.925   7.839 -0.2421  0.0113 -0.2992
41566SOL    HW133476   3.236   8.927   7.900  0.3072 -0.3647 -0.9316
41566SOL    HW233477   3.163   8.836   7.803 -1.5242 -0.2622  0.2934
41567SOL     OW33478   3.849   7.081  12.050 -0.0999 -0.0746 -0.3399
41567SOL    HW133479   3.793   7.010  12.017 -0.7088 -0.2385  0.9766
41567SOL    HW233480   3.938   7.047  12.042 -0.1268  0.2270 -2.5633
41568SOL     OW33481  11.560   7.236   8.121  0.5554  0.4537 -0.2579
41568SOL    HW133482  11.584   7.146   8.099 -0.0107 -0.0648  1.1359
41568SOL    HW233483  11.572   7.285   8.040  1.0011 -0.8488 -0.9996
41569SOL     OW33484  10.393   5.726   6.859  0.3025  0.2311 -0.4214
41569SOL    HW133485  10.428   5.691   6.941  0.2111 -0.5114 -0.6940
41569SOL    HW233486  10.371   5.649   6.807 -0.5687  0.6944 -0.7578
41570SOL     OW33487   1.711   9.090   8.997 -0.4826 -0.1141  0.0445
41570SOL    HW133488   1.708   8.994   8.994 -0.4467 -0.2510  2.4525
41570SOL    HW233489   1.654   9.113   9.070  0.7803  1.6101  0.5285
41571SOL     OW33490   4.471   9.989   8.694 -0.6048  0.2357 -0.4481
41571SOL    HW133491   4.547  10.001   8.637 -0.1634 -1.0539 -0.1586
41571SOL    HW233492   4.506   9.953   8.774 -1.6376 -1.5054 -0.7282
41572SOL     OW33493   2.002   9.025   7.051 -0.2848  0.1817  0.1680
41572SOL    HW133494   2.043   9.022   7.137  1.1284 -0.9152 -0.4925
41572SOL    HW233495   2.074   9.012   6.989 -1.2608  0.9197 -1.1913
41573SOL     OW33496   1.276   6.745   1.686 -0.8710 -0.6152  0.1910
41573SOL    HW133497   1.246   6.680   1.749 -1.4075 -0.2890  0.2736
41573SOL    HW233498   1.243   6.715   1.602 -1.8696  0.0010  0.3487
41574SOL     OW33499  10.666  11.965   5.067  0.6024  0.3438  0.4855
41574SOL    HW133500  10.671  12.053   5.030 -1.2563 -0.5766 -2.2691
41574SOL    HW233501  10.697  11.908   4.996 -2.5287 -1.4826  0.4247
41575SOL     OW33502   4.595   8.056   1.866  0.6323  0.2143  0.1728
41575SOL    HW133503   4.676   8.006   1.867  0.1789 -0.6105 -1.2721
41575SOL    HW233504   4.591   8.094   1.778 -1.7172 -1.8363 -0.7198
41576SOL     OW33505   8.657   0.008  11.411  0.0191  0.6553 -0.2098
41576SOL    HW133506   8.592   0.036  11.346  0.1541  2.1974  0.2863
41576SOL    HW233507   8.658   0.078  11.476  1.3022  0.0674  0.4405
41577SOL     OW33508   2.272   5.580   3.886  0.3452  0.3386  0.0881
41577SOL    HW133509   2.325   5.638   3.831  0.8525 -1.1459 -1.0563
41577SOL    HW233510   2.335   5.520   3.925 -0.4423 -2.5412 -2.5740
41578SOL     OW33511   4.850   8.288   3.863 -0.2952  0.0682 -0.6256
41578SOL    HW133512   4.924   8.314   3.809 -0.7512 -0.2974 -1.4594
41578SOL    HW233513   4.882   8.215   3.915  0.0740  0.2435 -0.6074
41579SOL     OW33514   9.462   2.910   6.568 -0.2317 -0.1907 -0.3123
41579SOL    HW133515   9.547   2.948   6.544 -0.1326 -0.3852 -0.2715
41579SOL    HW233516   9.403   2.985   6.573  0.1715  0.0818  0.6748
41580SOL     OW33517   2.431   2.318   8.401  0.5165 -0.1238 -0.3236
41580SOL    HW133518   2.491   2.356   8.465  1.4268  0.4450 -1.4678
41580SOL    HW233519   2.353   2.296   8.451  1.0992  0.5525  0.9250
41581SOL     OW33520   6.520   5.634   2.886 -0.5179 -0.0101  0.3668
41581SOL    HW133521   6.517   5.670   2.797  2.3730 -1.2562 -0.3314
41581SOL    HW233522   6.524   5.710   2.943  0.5831  0.8311 -0.7823
41582SOL     OW33523   9.058   5.406   3.789 -0.4980 -0.0826  0.9081
41582SOL    HW133524   9.112   5.412   3.710  0.9439 -0.2794  1.8298
41582SOL    HW233525   9.100   5.465   3.852 -1.7947  0.3011  1.4437
41583SOL     OW33526   5.637   7.029   0.332  0.3207  0.4631  0.8281
41583SOL    HW133527   5.638   6.934   0.346 -0.9480  0.4805  1.1209
41583SOL    HW233528   5.687   7.064   0.405 -1.6839  0.1832  2.4145
41584SOL     OW33529   4.285   6.387   2.282  0.3473  0.2511 -0.3264
41584SOL    HW133530   4.268   6.295   2.302 -3.4158  1.1288  1.2538
41584SOL    HW233531   4.252   6.399   2.193  0.2562  0.2168 -0.2968
41585SOL     OW33532   6.214   4.193   1.696 -0.3715 -0.4073 -0.0677
41585SOL    HW133533   6.286   4.255   1.704  0.6103 -1.5513  0.3027
41585SOL    HW233534   6.146   4.240   1.649 -0.5408  1.6810  2.0992
41586SOL     OW33535   6.313  10.876   6.869 -0.0872 -0.5600  0.4695
41586SOL    HW133536   6.285  10.794   6.828 -1.1394  0.2329 -0.4422
41586SOL    HW233537   6.408  10.866   6.882 -0.1547 -1.7896  0.0859
41587SOL     OW33538   3.239   6.711   0.085 -0.1676  0.2626  0.4611
41587SOL    HW133539   3.196   6.659   0.152  0.7554  1.6092  2.1787
41587SOL    HW233540   3.215   6.668   0.002 -2.0288 -0.9584  1.5527
41588SOL     OW33541  10.915   3.333   5.538  0.2333  0.5935 -0.4080
41588SOL    HW133542  10.918   3.263   5.603  2.2877  0.3671 -0.6593
41588SOL    HW233543  10.827   3.369   5.544 -0.7461 -1.6985  0.0697
41589SOL     OW33544   3.263   6.168   9.870 -0.2983  0.4994  0.1982
41589SOL    HW133545   3.188   6.110   9.859 -1.5072  1.9034  0.5633
41589SOL    HW233546   3.235   6.229   9.938  1.0143  1.3220  0.0306
41590SOL     OW33547   4.836   2.280   3.502 -0.0911  0.7820 -0.0341
41590SOL    HW133548   4.872   2.334   3.431 -0.7778  0.6921 -0.4570
41590SOL    HW233549   4.914   2.242   3.544  0.3132  0.3308 -1.1360
41591SOL     OW33550   2.951   9.525   0.585  0.8917  0.3781 -0.3737
41591SOL    HW133551   2.893   9.449   0.578  0.1944  0.7844  0.7723
41591SOL    HW233552   3.038   9.490   0.565  0.5491 -0.6868 -0.0633
41592SOL     OW33553   7.769   0.816   0.765 -0.1760  0.6072 -0.1641
41592SOL    HW133554   7.802   0.800   0.854 -1.0192 -0.8481 -0.0752
41592SOL    HW233555   7.789   0.736   0.717 -2.2712  0.2103 -0.4656
41593SOL     OW33556  11.246   7.904   1.857  0.7500 -0.0794 -0.2356
41593SOL    HW133557  11.304   7.868   1.924  0.7666  1.3175  0.5542
41593SOL    HW233558  11.195   7.971   1.903 -1.3690 -1.1070 -0.9482
41594SOL     OW33559   8.390   7.532  10.289  0.0800 -0.3640  0.3940
41594SOL    HW133560   8.454   7.594  10.253 -1.2573  0.3915 -0.7978
41594SOL    HW233561   8.435   7.490  10.361  1.2457  1.5975  0.8808
41595SOL     OW33562   2.924   2.624   2.694  0.0678  1.0271 -0.0608
41595SOL    HW133563   2.991   2.645   2.629 -1.1318  0.5661 -1.5344
41595SOL    HW233564   2.965   2.640   2.778  2.3320 -0.1192 -0.8709
41596SOL     OW33565   1.644  11.291   0.783  0.3749  0.5977  0.8025
41596SOL    HW133566   1.615  11.276   0.873  0.3333  0.3256  0.7434
41596SOL    HW233567   1.579  11.247   0.729  0.9768 -0.1514  0.6739
41597SOL     OW33568   3.363   9.247   5.069  0.1651  0.3945  0.1583
41597SOL    HW133569   3.308   9.232   5.146 -1.1908 -0.8695 -1.0019
41597SOL    HW233570   3.366   9.162   5.025 -1.7007  1.7160 -2.8476
41598SOL     OW33571   1.751   4.645   5.261 -0.3265 -0.0897  0.1116
41598SOL    HW133572   1.835   4.682   5.288  0.0966  0.1181 -1.4143
41598SOL    HW233573   1.695   4.722   5.248 -0.1545 -0.1130 -0.7839
41599SOL     OW33574   9.703   1.385  10.342 -0.3642  0.4043  0.1492
41599SOL    HW133575   9.747   1.413  10.422 -1.4362  1.8119  0.2844
41599SOL    HW233576   9.771   1.390  10.274  0.7588 -1.5486  1.0583
41600SOL     OW33577   0.310   6.314   5.621  0.2160 -0.3911  0.0803
41600SOL    HW133578   0.377   6.382   5.623  0.5424 -0.7230  1.1929
41600SOL    HW233579   0.228   6.361   5.609  0.4341  0.2117  0.9186
41601SOL     OW33580   1.766   1.531   1.892 -0.4913 -0.1010  0.4618
41601SOL    HW133581   1.862   1.534   1.893 -0.4858 -0.2919  0.4081
41601SOL    HW233582   1.743   1.448   1.932 -0.6280 -0.1960  0.1906
41602SOL     OW33583   5.307   6.939   0.262 -0.1277  0.1313 -0.1331
41602SOL    HW133584   5.295   7.032   0.284  2.6299  0.3741  0.6941
41602SOL    HW233585   5.372   6.940   0.192 -0.5778 -1.1785 -0.5927
41603SOL     OW33586   0.434   0.056  11.828  0.1685 -0.0627 -0.2790
41603SOL    HW133587   0.399   0.116  11.763 -0.9944  1.7377  1.8760
41603SOL    HW233588   0.404  -0.031  11.798 -1.6380  0.8569 -1.3425
41604SOL     OW33589  10.642   9.523  10.640 -0.3131 -0.4792 -0.4124
41604SOL    HW133590  10.658   9.589  10.708 -0.6078 -0.0213 -0.7765
41604SOL    HW233591  10.579   9.463  10.679  0.5434 -1.0044  0.2062
41605SOL     OW33592   4.794   0.002   8.254 -0.2393 -0.2865 -0.0860
41605SOL    HW133593   4.711  -0.029   8.290 -0.2408  0.2528  0.3828
41605SOL    HW233594   4.771   0.042   8.170 -0.4007 -0.4452 -0.1178
41606SOL     OW33595  10.067   5.703   3.764 -0.1530 -0.3842  0.3190
41606SOL    HW133596   9.990   5.759   3.774  0.3269  0.7536 -1.7672
41606SOL    HW233597  10.065   5.646   3.841 -1.9688  0.9214  1.3282
41607SOL     OW33598   7.121   8.768  12.540  0.2659  0.1174  0.5102
41607SOL    HW133599   7.069   8.689  12.522 -0.6160  0.3270  1.9646
41607SOL    HW233600   7.211   8.743  12.518 -0.3619 -0.3875 -1.6947
41608SOL     OW33601   0.167   7.509   1.148  0.1438 -0.0634  0.4255
41608SOL    HW133602   0.210   7.559   1.218 -1.0218  0.2511  0.9550
41608SOL    HW233603   0.238   7.471   1.098  1.0401  0.8851  0.9385
41609SOL     OW33604   2.816   6.831  12.543 -0.1013  0.7989  0.5472
41609SOL    HW133605   2.770   6.876  12.471 -0.2141  1.3439  0.9510
41609SOL    HW233606   2.857   6.902  12.592 -0.0747  0.4316  1.0575
41610SOL     OW33607   0.036  12.255  10.628 -0.1910 -0.2482 -0.6796
41610SOL    HW133608   0.074  12.175  10.591 -0.9976 -1.1099  0.3017
41610SOL    HW233609   0.042  12.319  10.557  0.8414 -1.0558 -1.3485
41611SOL     OW33610   6.140  10.991   5.044 -0.1399  0.1645  0.3698
41611SOL    HW133611   6.092  11.063   5.085  0.2596 -0.2561  1.6098
41611SOL    HW233612   6.191  11.032   4.975  0.9320  1.2617  1.7670
41612SOL     OW33613   0.911   9.375   8.948 -0.0098 -0.2646  0.3926
41612SOL    HW133614   0.940   9.299   8.998  0.3750  0.2687  0.9899
41612SOL    HW233615   0.977   9.385   8.879  0.1295 -0.2614  0.5269
41613SOL     OW33616   1.756   2.208   6.843  0.1273  0.3088 -0.3575
41613SOL    HW133617   1.817   2.270   6.802 -1.1367  1.0664 -1.1329
41613SOL    HW233618   1.719   2.160   6.769 -0.6532  0.2581  0.0629
41614SOL     OW33619   1.653   1.648   4.731 -0.3684  0.1395  0.5409
41614SOL    HW133620   1.611   1.724   4.771  1.0383  0.6625  1.0907
41614SOL    HW233621   1.705   1.685   4.659  0.4083 -0.2704  0.8789
41615SOL     OW33622   8.888   4.094   0.432  0.2345  0.1745 -0.1271
41615SOL    HW133623   8.796   4.088   0.406  0.5357  1.1243 -1.4754
41615SOL    HW233624   8.913   4.003   0.449 -1.5247  0.0601  2.5077
41616SOL     OW33625   5.607   9.295   3.625 -0.1710 -0.1889 -0.0434
41616SOL    HW133626   5.554   9.221   3.596 -0.6987 -0.1018  0.6693
41616SOL    HW233627   5.697   9.270   3.605 -0.4336 -0.5672 -0.7806
41617SOL     OW33628   3.582   0.173   8.831 -0.1100 -0.1399  1.0045
41617SOL    HW133629   3.611   0.253   8.873  1.5584 -0.5456  0.6935
41617SOL    HW233630   3.555   0.200   8.743 -0.4992  0.2097  1.2282
41618SOL     OW33631  11.703   3.154   2.041  0.0645 -0.1600  0.0494
41618SOL    HW133632  11.626   3.200   2.008  0.6767  0.7997 -0.0851
41618SOL    HW233633  11.670   3.068   2.068 -1.1079  0.3419  0.2917
41619SOL     OW33634   0.958  10.226   6.790  0.0940  0.2376 -0.1709
41619SOL    HW133635   1.012  10.147   6.796 -1.9929 -1.3106 -0.4352
41619SOL    HW233636   0.951  10.243   6.696 -0.4580 -0.0003 -0.1737
41620SOL     OW33637  10.865  11.175   5.244 -1.1208  0.7803 -0.1188
41620SOL    HW133638  10.861  11.270   5.239  0.3824  0.9896  1.5728
41620SOL    HW233639  10.856  11.155   5.337  0.1811 -0.5884 -0.2456
41621SOL     OW33640   2.667   2.047  11.405  0.5216 -0.1299 -0.1107
41621SOL    HW133641   2.703   1.966  11.369  2.4550  0.1749  1.0149
41621SOL    HW233642   2.592   2.018  11.457  0.5397 -1.0661 -0.5811
41622SOL     OW33643  10.150   5.280   2.904 -0.2881  0.3125  0.0734
41622SOL    HW133644  10.121   5.369   2.922 -0.9000  0.0942  0.2039
41622SOL    HW233645  10.135   5.232   2.985  1.3152  0.3902  0.4418
41623SOL     OW33646   1.427  10.164   6.069 -0.1963  0.6651 -0.1627
41623SOL    HW133647   1.343  10.132   6.104  0.4162 -0.0793  0.6819
41623SOL    HW233648   1.491  10.139   6.136  1.1548 -1.4619 -2.1170
41624SOL     OW33649   9.830   4.410   5.382 -0.1783  0.1120 -0.5830
41624SOL    HW133650   9.838   4.319   5.409  0.4077  0.3170 -0.0408
41624SOL    HW233651   9.828   4.406   5.286  1.9239 -0.3372 -0.6575
41625SOL     OW33652  12.471   2.924   0.548 -0.0030 -0.5237  0.1339
41625SOL    HW133653  12.479   2.925   0.453 -0.2044 -0.3493  0.1173
41625SOL    HW233654  12.377   2.926   0.564 -0.0113  2.1932  0.3420
41626SOL     OW33655  10.043   8.552   8.864  0.5026  0.1900  0.3187
41626SOL    HW133656  10.003   8.496   8.798 -1.3638  1.2288  0.4890
41626SOL    HW233657  10.016   8.513   8.948  1.4499 -0.1666  0.4658
41627SOL     OW33658  11.153  10.211   3.331  0.0227 -0.1863  0.5324
41627SOL    HW133659  11.205  10.257   3.266 -1.2999 -1.0276 -1.2026
41627SOL    HW233660  11.198  10.127   3.342  0.9495  0.4315  1.7065
41628SOL     OW33661   2.792   1.255   8.623  0.2210  0.4890  0.4499
41628SOL    HW133662   2.873   1.272   8.670  0.5077  0.8255 -0.1460
41628SOL    HW233663   2.813   1.183   8.564 -0.4984 -0.8061  1.7153
41629SOL     OW33664  11.149   1.151   9.345  0.7743 -0.2229 -0.4387
41629SOL    HW133665  11.181   1.076   9.395  1.0428  1.6073  2.3709
41629SOL    HW233666  11.196   1.146   9.262  2.8849 -1.6399  0.7483
41630SOL     OW33667   6.417   4.790   1.106  0.0418  0.2404  0.0462
41630SOL    HW133668   6.471   4.718   1.074 -0.2147  0.3564 -0.6618
41630SOL    HW233669   6.339   4.748   1.143 -1.7111  0.2089 -3.3175
41631SOL     OW33670   7.122  10.607   9.612  0.0376 -0.5087 -0.1007
41631SOL    HW133671   7.144  10.558   9.533 -0.7365 -0.8081 -0.1347
41631SOL    HW233672   7.029  10.627   9.603 -0.4469 -1.8505  1.4315
41632SOL     OW33673   1.478   2.571   3.933  0.1614  0.0160 -0.1529
41632SOL    HW133674   1.485   2.485   3.892 -1.5607  0.7609 -2.1874
41632SOL    HW233675   1.451   2.553   4.023 -2.0032 -1.5635 -1.0432
41633SOL     OW33676   6.722   9.315   7.616 -0.3148 -0.1519  0.4078
41633SOL    HW133677   6.716   9.381   7.547 -0.4080  0.2705  0.8170
41633SOL    HW233678   6.761   9.239   7.573 -1.2543 -0.2226 -0.3447
41634SOL     OW33679   2.864   3.569  10.017 -0.0537  0.5509 -0.1063
41634SOL    HW133680   2.848   3.609   9.932  0.2303  1.0578  0.0745
41634SOL    HW233681   2.949   3.525  10.008 -0.0793  0.5045 -0.1204
41635SOL     OW33682   6.415   6.013   1.420 -0.5325 -0.0653 -0.2776
41635SOL    HW133683   6.344   6.068   1.387 -2.8800 -2.4675  0.4100
41635SOL    HW233684   6.449   5.969   1.342 -0.0568  0.7664 -0.5530
41636SOL     OW33685   5.270   1.421  11.539 -0.5679  0.2703  0.5492
41636SOL    HW133686   5.348   1.406  11.485 -1.8833  0.0329 -1.3694
41636SOL    HW233687   5.226   1.496  11.497 -1.8442 -0.1914  1.0194
41637SOL     OW33688   0.398   7.354   3.977 -0.1381  0.5390 -0.6502
41637SOL    HW133689   0.358   7.407   4.045 -0.7439  0.1880 -0.7227
41637SOL    HW233690   0.345   7.275   3.974  0.5297  0.0852 -0.7960
41638SOL     OW33691   5.224   6.250   7.181  0.0518 -0.6092 -0.2563
41638SOL    HW133692   5.313   6.266   7.215  0.4784  0.2642 -1.7148
41638SOL    HW233693   5.172   6.234   7.260  1.3559 -0.4389  0.6894
41639SOL     OW33694   5.378   2.552   3.804  0.0644 -0.5468 -0.2389
41639SOL    HW133695   5.361   2.541   3.898  1.7480  0.0397  0.1744
41639SOL    HW233696   5.404   2.643   3.795  2.9364 -1.2981 -0.7071
41640SOL     OW33697   6.536   9.842   1.996 -0.6220 -0.5323 -0.3400
41640SOL    HW133698   6.586   9.913   1.955 -0.6125 -0.5340 -0.3310
41640SOL    HW233699   6.507   9.788   1.924  0.2175 -1.0784 -0.2837
41641SOL     OW33700  12.050  12.475   0.464 -0.1211 -0.3566  0.2204
41641SOL    HW133701  12.118  12.447   0.525  0.0102 -1.6334 -0.4788
41641SOL    HW233702  11.972  12.428   0.492  0.1446 -1.6505 -1.0840
41642SOL     OW33703   4.671  11.033   2.211  0.0089  0.7561 -0.2510
41642SOL    HW133704   4.715  10.954   2.181 -1.4650 -0.1737 -0.0821
41642SOL    HW233705   4.647  11.080   2.131  0.1603  0.6062 -0.3818
41643SOL     OW33706   8.771   5.950   0.881 -0.9353 -0.3487  0.8267
41643SOL    HW133707   8.843   5.985   0.933 -1.1243 -0.3540  1.0891
41643SOL    HW233708   8.791   5.979   0.791 -0.0722 -1.1997  0.7276
41644SOL     OW33709   9.177  11.310  10.695  0.2638  0.6705 -0.0091
41644SOL    HW133710   9.108  11.244  10.692 -0.3084  1.1983  1.0002
41644SOL    HW233711   9.239  11.283  10.627 -0.6518 -0.1219 -0.5584
41645SOL     OW33712   7.641   4.468  11.608  0.4049  0.3613 -0.1013
41645SOL    HW133713   7.641   4.412  11.530  3.3897 -3.1730  2.1418
41645SOL    HW233714   7.554   4.454  11.647 -0.0473 -0.1823 -1.2438
41646SOL     OW33715   4.565   3.728   3.207 -0.2814 -0.5755  0.2010
41646SOL    HW133716   4.578   3.823   3.207 -0.6614 -0.5024 -1.4216
41646SOL    HW233717   4.597   3.699   3.121 -3.4220 -1.4342 -0.7903
41647SOL     OW33718   5.176   3.474   7.657  0.0410 -0.4033  0.1932
41647SOL    HW133719   5.163   3.379   7.654 -0.4889 -0.3441  0.4410
41647SOL    HW233720   5.146   3.505   7.571  0.3812 -0.4736  0.0453
41648SOL     OW33721   3.268   0.299  12.502  0.1619 -0.4141 -0.2245
41648SOL    HW133722   3.262   0.346  12.585 -0.3834  0.0775 -0.5396
41648SOL    HW233723   3.197   0.334  12.449  1.6455  0.6294 -1.5981
41649SOL     OW33724   9.085   3.438   6.649  0.0506  0.3619 -0.1103
41649SOL    HW133725   9.071   3.372   6.717  1.7909 -0.1221 -0.1745
41649SOL    HW233726   9.146   3.501   6.689  0.9776  0.1541 -1.1380
41650SOL     OW33727   4.127   3.915   1.659 -0.3178 -0.0401 -0.0864
41650SOL    HW133728   4.132   4.002   1.698 -1.2482  1.3771 -2.8613
41650SOL    HW233729   4.213   3.876   1.675 -0.0653  1.1340  1.6645
41651SOL     OW33730   2.460   8.602   6.447  0.1987 -0.4824  0.5961
41651SOL    HW133731   2.536   8.660   6.439 -0.6310  0.4847 -0.7341
41651SOL    HW233732   2.397   8.653   6.497  0.2438 -1.1019  1.2974
41652SOL     OW33733   8.226   6.199   1.265  0.3716  0.0409 -0.5119
41652SOL    HW133734   8.158   6.146   1.222  2.3305 -1.0643 -2.4754
41652SOL    HW233735   8.309   6.160   1.236  1.9049  2.7785 -0.1680
41653SOL     OW33736   1.345   7.907   3.605  0.0911 -0.5365 -0.4118
41653SOL    HW133737   1.352   7.937   3.695  1.5604 -0.0380 -0.6688
41653SOL    HW233738   1.255   7.877   3.597 -0.2993  0.1740  0.9805
41654SOL     OW33739   2.183   3.226   6.662  0.2751  0.0661 -0.1047
41654SOL    HW133740   2.160   3.311   6.700 -0.1162 -0.4886  0.9557
41654SOL    HW233741   2.276   3.215   6.681  0.2292  0.0824  0.1366
41655SOL     OW33742   9.763   0.552  11.197 -0.1153 -0.5255  0.2067
41655SOL    HW133743   9.680   0.525  11.157 -0.1789  0.8437 -0.6316
41655SOL    HW233744   9.782   0.637  11.159  1.0663 -0.2589  1.3155
41656SOL     OW33745  10.033   0.025   1.246  0.3255  0.4985  0.6734
41656SOL    HW133746  10.099  -0.034   1.210  0.3563  0.5610  0.6269
41656SOL    HW233747   9.997  -0.023   1.320 -0.7383 -0.2281 -0.2839
41657SOL     OW33748   4.138   0.346   6.193 -0.1108  0.2010  0.0459
41657SOL    HW133749   4.065   0.297   6.231  1.0975 -1.6074  0.1439
41657SOL    HW233750   4.202   0.354   6.264  0.1117  1.1354 -0.2406
41658SOL     OW33751   1.401  10.493   8.111 -0.0100  0.1817 -0.6101
41658SOL    HW133752   1.331  10.555   8.092 -0.7033 -0.3497  0.1151
41658SOL    HW233753   1.397  10.481   8.206 -1.8481 -3.1216 -0.9264
41659SOL     OW33754  11.958   9.888   6.780 -0.4219  0.2586 -0.0061
41659SOL    HW133755  12.035   9.944   6.785 -0.6450  0.6504 -0.8083
41659SOL    HW233756  11.885   9.945   6.808 -0.3475 -0.3163  1.4794
41660SOL     OW33757   6.315   6.672   6.345  0.1203  0.0986 -0.1710
41660SOL    HW133758   6.380   6.733   6.310  0.4794 -0.1158  0.1176
41660SOL    HW233759   6.355   6.638   6.425 -1.3032  1.6933  1.3008
41661SOL     OW33760   8.431  12.114  11.078 -0.0336 -0.4364  0.0581
41661SOL    HW133761   8.512  12.080  11.116  1.2568  2.8216  0.5229
41661SOL    HW233762   8.399  12.178  11.141 -2.1657 -0.5104 -0.8394
41662SOL     OW33763   1.437   7.916   4.679 -0.0748 -0.0623 -0.0316
41662SOL    HW133764   1.388   7.964   4.745  1.8476 -0.5600  1.8596
41662SOL    HW233765   1.502   7.979   4.647  1.3934 -0.8456  1.2830
41663SOL     OW33766   4.538   2.911  11.724 -0.1851 -0.0291 -0.2160
41663SOL    HW133767   4.513   2.915  11.816  2.3041  0.3140  0.5286
41663SOL    HW233768   4.509   2.995  11.687  0.3875  0.6195  0.7491
41664SOL     OW33769  11.855  11.500  12.015  0.0093  0.0287  0.6940
41664SOL    HW133770  11.854  11.495  12.110  2.3929 -1.0691  0.7426
41664SOL    HW233771  11.941  11.536  11.993 -0.4806  0.2589 -1.0482
41665SOL     OW33772   1.120   4.992   9.080 -0.5137 -0.0215 -0.2011
41665SOL    HW133773   1.089   4.927   9.143  0.9778 -0.1293  0.4805
41665SOL    HW233774   1.181   4.944   9.024  2.0196  1.0477  1.4300
41666SOL     OW33775   0.275   5.081  10.583 -0.3718 -0.0359 -0.0744
41666SOL    HW133776   0.228   5.152  10.626 -1.0697 -1.2764  1.3187
41666SOL    HW233777   0.268   5.007  10.644  1.2215 -1.0065 -0.9820
41667SOL     OW33778   4.827   9.043  10.712 -0.0057 -0.4280 -0.2451
41667SOL    HW133779   4.889   9.046  10.639 -1.4218  2.7874 -1.5198
41667SOL    HW233780   4.881   9.057  10.790  1.1442 -0.2355 -1.0554
41668SOL     OW33781  12.536   9.552  11.104 -0.3562  0.1501  0.5598
41668SOL    HW133782  12.452   9.596  11.098 -0.0803  1.2886  3.5940
41668SOL    HW233783  12.514   9.461  11.125 -0.9629  1.0460  4.4936
41669SOL     OW33784   9.112   6.624   6.576 -0.2068  0.6671 -0.5609
41669SOL    HW133785   9.106   6.579   6.661 -0.9829 -0.6051 -1.2492
41669SOL    HW233786   9.187   6.584   6.533 -0.6327  0.3297 -1.0015
41670SOL     OW33787  10.770   8.952   9.934  0.2740  0.1585 -0.0440
41670SOL    HW133788  10.855   8.929   9.973  0.9148  0.6692 -1.0995
41670SOL    HW233789  10.706   8.929  10.001  1.2444 -0.2609  0.7635
41671SOL     OW33790   2.579   7.696   8.437  0.2498 -0.0520 -0.6029
41671SOL    HW133791   2.622   7.778   8.463 -0.4483 -0.2481  1.3468
41671SOL    HW233792   2.650   7.640   8.406  1.0177  0.5890 -0.0414
41672SOL     OW33793   3.558   3.671   3.971  0.1465 -0.1149 -0.3540
41672SOL    HW133794   3.551   3.648   3.878  0.1321 -0.3191 -0.3039
41672SOL    HW233795   3.510   3.601   4.016  0.2825 -0.0983 -0.1829
41673SOL     OW33796   3.372   0.319  10.365  0.1507 -0.5136 -0.1435
41673SOL    HW133797   3.423   0.397  10.382 -1.0111  0.3509 -0.5035
41673SOL    HW233798   3.377   0.308  10.270 -1.0876  0.1311 -0.2981
41674SOL     OW33799   0.053   6.587   2.857 -0.3412  0.3807 -0.0009
41674SOL    HW133800   0.047   6.500   2.899 -0.1939  1.0516  1.4947
41674SOL    HW233801   0.142   6.592   2.825 -0.1521  0.2082  0.4810
41675SOL     OW33802   5.695   2.398   7.081 -0.0407  0.5034  0.2586
41675SOL    HW133803   5.699   2.305   7.059  1.0944  0.7660 -0.7341
41675SOL    HW233804   5.604   2.423   7.062 -0.0689 -0.1572 -0.5430
41676SOL     OW33805   9.529   2.417   7.124 -0.2475  0.2446 -0.0544
41676SOL    HW133806   9.558   2.491   7.071  1.1895 -0.9400 -1.0288
41676SOL    HW233807   9.562   2.436   7.212  1.6484 -0.0098 -0.6674
41677SOL     OW33808  10.249   6.941   4.450 -0.1726  0.3399 -0.0561
41677SOL    HW133809  10.219   7.000   4.518 -2.9213  0.8077 -1.5107
41677SOL    HW233810  10.183   6.871   4.448  1.5197 -1.3477 -0.2196
41678SOL     OW33811   3.393  10.569   4.089  0.4136 -0.0180 -0.6396
41678SOL    HW133812   3.431  10.496   4.139 -1.0611  0.0146  0.6081
41678SOL    HW233813   3.383  10.534   4.000 -0.9705 -1.6589  0.0965
41679SOL     OW33814   5.527   0.005   9.018  0.6284  0.4206  0.2279
41679SOL    HW133815   5.564   0.060   8.950  2.6945 -0.7364  0.3497
41679SOL    HW233816   5.600  -0.050   9.048 -1.2688 -2.3638  0.1458
41680SOL     OW33817   8.617   2.282   8.800 -0.3524 -0.2233  0.8704
41680SOL    HW133818   8.573   2.350   8.748  0.4087  0.2525  0.8325
41680SOL    HW233819   8.705   2.278   8.764 -0.6005 -1.8164  0.3201
41681SOL     OW33820   7.563   8.906  10.382 -0.3710 -0.2505 -0.1705
41681SOL    HW133821   7.649   8.869  10.363  0.2327  1.1678 -0.3767
41681SOL    HW233822   7.512   8.833  10.418  1.9191 -0.4314  3.1162
41682SOL     OW33823   3.563  10.753   9.565 -0.1456  0.1187  0.5058
41682SOL    HW133824   3.511  10.704   9.501 -1.0858 -0.5485  1.7357
41682SOL    HW233825   3.498  10.803   9.615  0.7117  1.8419 -0.0341
41683SOL     OW33826   3.662  11.616   8.745  0.1231  0.1949  0.0527
41683SOL    HW133827   3.573  11.582   8.733 -0.1405  0.9717 -0.2751
41683SOL    HW233828   3.651  11.698   8.794  0.8395 -0.6927  1.7814
41684SOL     OW33829   7.099   3.642  11.057 -0.1792  0.1989  0.1400
41684SOL    HW133830   7.010   3.667  11.030  0.1076 -0.3908 -1.4605
41684SOL    HW233831   7.156   3.708  11.017  0.1341  0.4053  0.9135
41685SOL     OW33832   0.539  11.788   4.965 -1.0258  0.1811 -0.1433
41685SOL    HW133833   0.453  11.815   4.933  0.2291  1.4545 -2.7010
41685SOL    HW233834   0.592  11.867   4.962  0.1660 -0.4410  1.9476
41686SOL     OW33835   0.290  12.272   3.669 -0.1129 -0.0315 -0.0183
41686SOL    HW133836   0.268  12.250   3.579 -2.4688  0.6617  0.3192
41686SOL    HW233837   0.344  12.351   3.662 -2.0906  1.3445 -0.8379
41687SOL     OW33838   0.223   5.407   9.702  0.3405  0.3263 -0.4086
41687SOL    HW133839   0.150   5.445   9.652  0.7269  0.4949 -0.8475
41687SOL    HW233840   0.301   5.431   9.652  0.6196 -0.7416 -0.5069
41688SOL     OW33841   4.769   1.878   9.910 -0.4537 -0.3290 -0.1456
41688SOL    HW133842   4.675   1.894   9.897 -1.1263 -2.0453  2.0042
41688SOL    HW233843   4.779   1.783   9.901  0.9033 -0.2860  0.6581
41689SOL     OW33844   8.718   9.265  12.566  0.1962  0.1289 -0.1573
41689SOL    HW133845   8.669   9.264  12.484 -0.2455  0.7469  0.0882
41689SOL    HW233846   8.687   9.188  12.613  1.1870 -0.8067 -0.9724
41690SOL     OW33847   3.278  11.760  11.123 -0.1412  0.2867  0.1676
41690SOL    HW133848   3.311  11.695  11.061  1.2912 -0.7624  1.9195
41690SOL    HW233849   3.256  11.708  11.201 -1.9127  1.5477  0.5650
41691SOL     OW33850   5.649   3.922   1.369 -0.1047 -0.2148  0.3294
41691SOL    HW133851   5.646   3.993   1.304 -1.3730 -0.6880 -0.1538
41691SOL    HW233852   5.737   3.927   1.405  0.2024  0.8861 -0.5099
41692SOL     OW33853   5.168  10.631   2.463 -0.2390  0.8778 -0.2831
41692SOL    HW133854   5.105  10.560   2.479  0.9600  0.1671  1.5517
41692SOL    HW233855   5.242  10.610   2.519  2.2305  1.0041 -3.2531
41693SOL     OW33856   5.805   1.917   1.424  0.6041  0.2434 -0.2204
41693SOL    HW133857   5.876   1.978   1.442  0.9676 -0.2395  0.0061
41693SOL    HW233858   5.849   1.838   1.391  0.2051 -0.1991  0.2845
41694SOL     OW33859  11.133   8.235   1.657 -0.4971 -0.0883  0.4794
41694SOL    HW133860  11.084   8.228   1.739  1.1676 -0.9559  1.4625
41694SOL    HW233861  11.222   8.209   1.681  0.2001  0.3998 -1.4573
41695SOL     OW33862   2.700   0.772   9.234  0.2824  0.1944  0.1865
41695SOL    HW133863   2.650   0.693   9.215 -0.9808  0.9929  0.0479
41695SOL    HW233864   2.634   0.838   9.256  1.3022  1.1843  0.4126
41696SOL     OW33865   4.830   8.739  10.281 -0.1615  0.0939 -0.0625
41696SOL    HW133866   4.847   8.833  10.285 -0.4130  0.0998  1.7947
41696SOL    HW233867   4.910   8.701  10.247  1.4385  0.6809  2.7091
41697SOL     OW33868   2.300   9.266   8.451  0.5177 -0.6671 -0.4891
41697SOL    HW133869   2.316   9.172   8.444 -1.7289 -1.0997 -0.7108
41697SOL    HW233870   2.367   9.306   8.396  2.6258 -1.9765  0.9917
41698SOL     OW33871   2.228   4.586   4.919  0.2279 -0.1558 -0.3100
41698SOL    HW133872   2.153   4.568   4.862 -0.1179 -3.6365  0.9591
41698SOL    HW233873   2.192   4.638   4.991 -0.2398  0.7795 -1.2009
41699SOL     OW33874   8.602   3.068   7.183  0.3122 -0.1992 -0.0223
41699SOL    HW133875   8.536   3.014   7.228 -0.6028 -0.1252 -1.2329
41699SOL    HW233876   8.660   3.004   7.141  0.0323 -0.2520 -0.3292
41700SOL     OW33877   8.165  10.858   2.886  0.3294  0.8468 -0.0441
41700SOL    HW133878   8.256  10.828   2.876  0.6296  1.7221 -0.0218
41700SOL    HW233879   8.155  10.874   2.980 -0.4517 -1.0607  0.2388
41701SOL     OW33880   0.619   8.884   3.322  0.3928 -0.1659  0.4967
41701SOL    HW133881   0.570   8.894   3.403 -0.9931 -2.6430  0.0761
41701SOL    HW233882   0.581   8.948   3.262 -1.3723 -1.0329  0.6356
41702SOL     OW33883   9.248   4.386   4.584 -0.2697  0.0548  0.1590
41702SOL    HW133884   9.259   4.471   4.626 -0.1186  0.3702 -0.5017
41702SOL    HW233885   9.181   4.401   4.517 -1.7070 -0.8320  1.3418
41703SOL     OW33886   6.245   0.141  11.589 -0.4704 -0.3931 -0.2906
41703SOL    HW133887   6.189   0.212  11.556 -0.2162 -0.2573 -0.4358
41703SOL    HW233888   6.201   0.111  11.668  0.1993  0.9804  0.6633
41704SOL     OW33889   6.869   0.508   9.374 -0.7483 -0.3403  0.2258
41704SOL    HW133890   6.878   0.595   9.337 -0.0127 -0.7855 -0.6951
41704SOL    HW233891   6.775   0.489   9.369 -0.8153  0.0977 -0.2722
41705SOL     OW33892   7.243   0.802  12.152 -0.4544 -0.0237 -0.2123
41705SOL    HW133893   7.328   0.760  12.135  0.7058  1.5560  1.3445
41705SOL    HW233894   7.185   0.730  12.176  1.5579 -0.8435  2.7794
41706SOL     OW33895  11.858  10.676   8.429  0.0698  0.2939  0.3230
41706SOL    HW133896  11.908  10.607   8.473  0.3482 -0.7977 -1.5863
41706SOL    HW233897  11.789  10.629   8.382  0.8414  1.1582 -1.8167
41707SOL     OW33898   6.459   0.984  12.086 -0.5768 -0.1565  0.0049
41707SOL    HW133899   6.379   0.959  12.040 -0.4029  0.3992 -0.6056
41707SOL    HW233900   6.529   0.940  12.038 -0.5982 -1.6854  1.2950
41708SOL     OW33901   3.876   2.438   3.494 -0.2424  1.0853  0.2706
41708SOL    HW133902   3.955   2.473   3.451  0.8662 -0.2331  1.1380
41708SOL    HW233903   3.825   2.515   3.516  0.0794  1.9122 -1.6210
41709SOL     OW33904  12.523   1.221   6.884  0.1396  0.1259 -0.3116
41709SOL    HW133905  12.456   1.211   6.816 -0.9071 -0.1459  0.7159
41709SOL    HW233906  12.522   1.137   6.930 -0.9366  1.1005  1.5665
41710SOL     OW33907   1.039   5.969   1.525  0.0722  0.1221  0.4614
41710SOL    HW133908   1.120   5.994   1.569 -0.7567  2.6668  0.7362
41710SOL    HW233909   0.971   5.986   1.590 -0.8926  0.9554 -0.7200
41711SOL     OW33910   1.595  12.261   8.080  0.2050  0.2989 -0.4843
41711SOL    HW133911   1.613  12.189   8.020  2.1522  1.2359 -1.1294
41711SOL    HW233912   1.617  12.225   8.167 -0.5253 -0.3918 -0.5725
41712SOL     OW33913   7.585   5.927   4.582 -0.3835  0.6741 -0.1315
41712SOL    HW133914   7.560   5.840   4.553 -1.6221  0.0009  2.6340
41712SOL    HW233915   7.536   5.987   4.525 -1.5657 -0.4931 -0.3800
41713SOL     OW33916   4.892   3.816   3.854  0.1555  0.2571 -0.1609
41713SOL    HW133917   4.869   3.733   3.812 -1.0305  0.9983 -1.0300
41713SOL    HW233918   4.985   3.828   3.834 -0.0383 -0.1175 -1.3639
41714SOL     OW33919   7.136   8.586   4.247 -0.3849  0.4327  0.1051
41714SOL    HW133920   7.200   8.546   4.305 -1.0835 -1.0782 -0.1267
41714SOL    HW233921   7.188   8.639   4.186  0.5880 -0.3257  0.2614
41715SOL     OW33922   2.460   3.764  11.350  0.0472  0.5369  0.3423
41715SOL    HW133923   2.441   3.769  11.257  1.1804 -0.2350  0.0437
41715SOL    HW233924   2.401   3.696  11.383  0.4110  0.0197 -0.0476
41716SOL     OW33925   3.593   0.685   3.419  0.1782  0.0178 -0.7141
41716SOL    HW133926   3.552   0.738   3.350  0.4744  1.5401  0.2212
41716SOL    HW233927   3.653   0.746   3.463  0.7774 -1.1991  0.2275
41717SOL     OW33928   6.923   7.146   5.624  0.1245 -0.6618  0.2315
41717SOL    HW133929   7.005   7.195   5.627 -0.5735  0.5176  0.6448
41717SOL    HW233930   6.949   7.059   5.595  1.3602  0.0454 -0.9286
41718SOL     OW33931   7.461   9.093   7.523 -0.3406 -0.8636  0.0383
41718SOL    HW133932   7.435   9.002   7.538 -0.9392 -0.8170 -0.6680
41718SOL    HW233933   7.393   9.144   7.567 -0.7086 -0.7516 -0.6507
41719SOL     OW33934   4.283   5.627   0.893 -0.1889  0.0304  0.2609
41719SOL    HW133935   4.315   5.539   0.877  0.1604  0.0852  0.6534
41719SOL    HW233936   4.282   5.636   0.989 -1.4510  0.0001  0.2706
41720SOL     OW33937   9.249   3.761   0.470 -0.1443 -0.2893  0.4874
41720SOL    HW133938   9.342   3.779   0.485 -0.1693  0.0940  0.1983
41720SOL    HW233939   9.204   3.828   0.522 -0.2631 -0.5128  0.6757
41721SOL     OW33940   2.094  12.146   2.771  0.0432  0.0972  0.1139
41721SOL    HW133941   2.093  12.212   2.702  1.1365  0.0671  0.0431
41721SOL    HW233942   2.060  12.067   2.730 -0.4375  0.3921 -0.0502
41722SOL     OW33943   6.728   3.235  11.900  0.5272 -0.0793 -0.1796
41722SOL    HW133944   6.703   3.147  11.870 -0.5270  0.1266  0.0697
41722SOL    HW233945   6.813   3.223  11.941 -0.2359 -1.2656  1.1439
41723SOL     OW33946   7.822   5.493   0.976  0.0891  0.3812 -0.0503
41723SOL    HW133947   7.751   5.547   1.010  0.0283  0.1341  0.2220
41723SOL    HW233948   7.875   5.472   1.053 -0.3974 -0.7024  0.0044
41724SOL     OW33949   3.521   6.457   3.632 -0.1564 -0.1662  0.2587
41724SOL    HW133950   3.478   6.542   3.642  0.5752  0.1412  0.8722
41724SOL    HW233951   3.536   6.449   3.538 -0.5878  0.1934  0.1519
41725SOL     OW33952   1.356   3.251   1.840  0.5504 -0.5354 -0.6863
41725SOL    HW133953   1.263   3.246   1.862  0.8852 -1.6311  0.6012
41725SOL    HW233954   1.380   3.342   1.857  0.3226 -0.8591  1.7669
41726SOL     OW33955   7.919  12.487   0.499 -0.2335  0.3820 -0.5194
41726SOL    HW133956   7.999  12.444   0.529 -0.0039  1.2921  0.2164
41726SOL    HW233957   7.918  12.571   0.546 -0.5519  1.2890 -2.0729
41727SOL     OW33958   3.783   5.607   4.967 -0.1318  0.1374  0.3132
41727SOL    HW133959   3.732   5.541   4.919  0.1572 -1.1497  1.7155
41727SOL    HW233960   3.874   5.581   4.954  0.0771  1.0951 -0.2685
41728SOL     OW33961   3.550  11.518   0.913 -0.0586 -0.3508  0.5636
41728SOL    HW133962   3.627  11.540   0.965 -0.1800  0.1306  0.5444
41728SOL    HW233963   3.563  11.564   0.829 -1.0560  0.9793  1.0913
41729SOL     OW33964   3.384   7.625   1.278 -0.4659  0.2653 -0.0001
41729SOL    HW133965   3.471   7.608   1.314 -0.6396 -0.0587  0.2639
41729SOL    HW233966   3.329   7.554   1.311 -1.2199  1.3666  1.2244
41730SOL     OW33967   2.677   1.658   6.226  0.6552  0.0244  0.6237
41730SOL    HW133968   2.770   1.635   6.237  0.5430 -0.5331  0.4257
41730SOL    HW233969   2.664   1.657   6.131  0.0516 -1.5010  0.6978
41731SOL     OW33970   4.779  10.581   9.183 -0.0931  0.4986  0.6800
41731SOL    HW133971   4.793  10.547   9.271 -0.4268  0.1231  0.5950
41731SOL    HW233972   4.863  10.619   9.157  0.0047  0.6097  1.1575
41732SOL     OW33973  12.433   0.444   4.261  0.3607  0.5263 -0.4284
41732SOL    HW133974  12.420   0.362   4.213 -1.7617 -0.0411  0.9794
41732SOL    HW233975  12.471   0.417   4.344 -4.1668  0.1980  1.8778
41733SOL     OW33976  12.096   4.673   2.925  0.3055 -0.0041 -0.0125
41733SOL    HW133977  12.165   4.619   2.964 -0.9908 -1.4572  0.3626
41733SOL    HW233978  12.055   4.616   2.860 -1.0814  0.5073  0.3676
41734SOL     OW33979   4.797   7.932   4.344  0.2158  0.6215 -0.0436
41734SOL    HW133980   4.745   8.005   4.310  0.5013 -0.0988 -2.1930
41734SOL    HW233981   4.872   7.927   4.285  0.7558 -0.7411  0.7094
41735SOL     OW33982   8.557   3.847   9.145  0.1094 -0.1000 -0.1615
41735SOL    HW133983   8.616   3.788   9.193  0.6821  1.0620  0.6178
41735SOL    HW233984   8.614   3.917   9.113 -0.7585  0.7523  0.1170
41736SOL     OW33985   5.317   7.636   1.944  0.1849 -0.4808 -0.6603
41736SOL    HW133986   5.387   7.700   1.961  1.0069 -1.1608 -1.3777
41736SOL    HW233987   5.236   7.683   1.961  0.8303  0.0398  1.2540
41737SOL     OW33988   1.647   1.410   3.713  0.2749 -0.1863 -0.6130
41737SOL    HW133989   1.569   1.390   3.766 -0.2151  0.8377 -0.9233
41737SOL    HW233990   1.625   1.377   3.626  0.9162 -1.4964 -0.3037
41738SOL     OW33991   2.665  11.308   4.970 -0.3655  0.4068  0.2296
41738SOL    HW133992   2.636  11.368   4.901  1.5279  0.6635 -0.4150
41738SOL    HW233993   2.586  11.261   4.997 -1.1395  0.1949 -2.2138
41739SOL     OW33994  10.788  12.397   8.608  0.5240  0.5858  1.0426
41739SOL    HW133995  10.781  12.356   8.522  1.9039  1.5156  0.4601
41739SOL    HW233996  10.714  12.361   8.657 -0.4660  0.2472 -0.6058
41740SOL     OW33997   8.836   0.073   4.816  0.0114  0.3497 -0.3243
41740SOL    HW133998   8.917   0.057   4.865 -0.0952 -0.5820 -0.4424
41740SOL    HW233999   8.815   0.165   4.835  1.0951  0.6121 -0.2889
41741SOL     OW34000   9.309   3.215   2.209  0.3275 -0.3196 -0.6105
41741SOL    HW134001   9.217   3.194   2.193 -0.4241  1.4195  1.1200
41741SOL    HW234002   9.319   3.209   2.304  1.5646  1.1447 -0.6215
41742SOL     OW34003   1.862  10.578  10.918  0.0099  0.0956 -0.1421
41742SOL    HW134004   1.835  10.566  10.826 -1.0512 -1.4971  0.3197
41742SOL    HW234005   1.893  10.491  10.945 -2.3433 -0.2591  1.7715
41743SOL     OW34006   4.284   8.222   3.100 -0.4242  0.6065 -0.2170
41743SOL    HW134007   4.261   8.276   3.175  2.2099  2.9592 -0.9204
41743SOL    HW234008   4.305   8.285   3.031  0.3243 -1.3911 -1.9307
41744SOL     OW34009   6.724   1.250   3.871  0.1563  0.6474  0.3630
41744SOL    HW134010   6.636   1.263   3.906 -0.2941  2.4673 -1.2698
41744SOL    HW234011   6.716   1.272   3.778  2.3664  0.9611  0.1917
41745SOL     OW34012  10.546   9.481   3.840  0.6284 -0.1222  0.0294
41745SOL    HW134013  10.556   9.488   3.745 -2.7350  2.8619 -0.3321
41745SOL    HW234014  10.524   9.389   3.855  4.3326 -1.4423 -1.4980
41746SOL     OW34015  11.629   3.989   9.751  0.1710  0.1446  0.4522
41746SOL    HW134016  11.691   3.919   9.768  0.2396  0.0230 -0.2953
41746SOL    HW234017  11.562   3.950   9.696  0.3093  0.7095 -0.1316
41747SOL     OW34018   3.007   2.148   6.555 -0.2255  0.2200 -0.1965
41747SOL    HW134019   3.033   2.079   6.494 -1.2526 -0.3882  0.0186
41747SOL    HW234020   2.921   2.177   6.523 -0.4525  0.3927  0.5343
41748SOL     OW34021   4.103   4.992   7.956  0.3901  0.1864  0.4564
41748SOL    HW134022   4.129   5.079   7.924 -0.8165 -0.2850 -2.0107
41748SOL    HW234023   4.009   4.999   7.971  0.1509 -0.8843 -0.4786
41749SOL     OW34024   9.628   6.046  10.202  0.1889 -0.0090  0.1907
41749SOL    HW134025   9.683   6.073  10.275 -1.1102 -0.3358  1.3306
41749SOL    HW234026   9.544   6.091  10.218 -0.6550 -1.4110 -0.1653
41750SOL     OW34027   7.762   0.258   8.542  0.3374  0.6758  0.2911
41750SOL    HW134028   7.811   0.228   8.618  1.8355  0.6875 -0.6290
41750SOL    HW234029   7.785   0.196   8.473 -0.0115  1.3824 -0.4818
41751SOL     OW34030   4.337   9.994   1.159  0.3119  0.1263  0.1883
41751SOL    HW134031   4.376  10.017   1.244 -0.5189 -1.6751  1.1202
41751SOL    HW234032   4.411   9.969   1.104  0.8136  0.7920  0.5542
41752SOL     OW34033   6.772   2.634   0.357  0.3533 -0.1091 -0.1056
41752SOL    HW134034   6.701   2.693   0.382  1.0895  0.5246  0.5321
41752SOL    HW234035   6.752   2.608   0.267 -0.2035  0.7756 -0.2433
41753SOL     OW34036   5.863   0.195   2.337  0.6330 -0.6449  0.1210
41753SOL    HW134037   5.851   0.106   2.305  0.8421 -0.6157 -0.0439
41753SOL    HW234038   5.836   0.192   2.429 -2.1659 -0.2367 -0.5867
41754SOL     OW34039   3.511  11.201   5.767  0.2051 -0.2706  0.4874
41754SOL    HW134040   3.592  11.231   5.808 -0.3886  0.5871  1.0763
41754SOL    HW234041   3.479  11.278   5.720 -1.5862  0.2264  2.3809
41755SOL     OW34042   7.700   5.107   7.622 -0.3681  0.1365  0.0540
41755SOL    HW134043   7.696   5.103   7.718 -0.7298  0.4740  0.0553
41755SOL    HW234044   7.742   5.191   7.603 -0.9319  0.3921 -0.0876
41756SOL     OW34045   4.868  10.131   3.277 -0.3114  0.0522  0.0112
41756SOL    HW134046   4.885  10.175   3.360 -0.2391  0.8551 -0.4212
41756SOL    HW234047   4.832  10.199   3.220 -1.5775 -0.7838 -0.2276
41757SOL     OW34048   3.784   5.892   1.290  0.2785  0.2076 -0.2549
41757SOL    HW134049   3.784   5.933   1.203 -0.3176  0.0859 -0.3166
41757SOL    HW234050   3.711   5.932   1.336  0.4631  0.1193  0.1195
41758SOL     OW34051   1.203   1.715  10.689 -0.0195 -0.4842 -0.1798
41758SOL    HW134052   1.130   1.700  10.629 -0.7416 -1.5995  0.9274
41758SOL    HW234053   1.191   1.805  10.720  0.0360 -0.0945 -1.2411
41759SOL     OW34054   3.968   8.592  10.428 -0.2132  0.4845 -0.1319
41759SOL    HW134055   3.876   8.567  10.424  0.0899 -1.0557  1.3422
41759SOL    HW234056   3.991   8.583  10.520  2.0885 -1.9230 -0.7976
41760SOL     OW34057   8.821  10.197   3.683 -0.3201  0.7980 -0.0205
41760SOL    HW134058   8.910  10.217   3.654 -0.0257 -0.0923  0.2156
41760SOL    HW234059   8.764  10.240   3.619  0.2857  0.9924 -0.4356
41761SOL     OW34060   9.870  12.258   9.220  0.5199 -0.0090  0.2004
41761SOL    HW134061   9.828  12.229   9.301 -0.2357 -2.0856 -0.8713
41761SOL    HW234062   9.849  12.351   9.214  1.7392  0.5326  3.0404
41762SOL     OW34063   1.870   6.225  12.519  0.0906 -0.0553  0.1496
41762SOL    HW134064   1.936   6.229  12.450 -0.2832  1.2302 -0.1633
41762SOL    HW234065   1.921   6.225  12.600  0.4962  0.3143 -0.0963
41763SOL     OW34066   9.117   2.748   0.999 -0.1832 -0.4687 -0.3073
41763SOL    HW134067   9.085   2.733   0.910 -2.6303 -0.1605  0.4229
41763SOL    HW234068   9.046   2.798   1.041  0.3327 -1.6603  2.1626
41764SOL     OW34069   2.604   4.491   5.939 -0.4874 -0.1475  0.3485
41764SOL    HW134070   2.650   4.529   6.014 -1.6496 -1.0257  1.5511
41764SOL    HW234071   2.511   4.496   5.963 -0.7474 -3.1145  0.3091
41765SOL     OW34072   2.962   2.654   6.182  0.2479  0.1904 -0.0865
41765SOL    HW134073   2.961   2.742   6.221 -0.8715 -0.0835  0.5203
41765SOL    HW234074   2.872   2.638   6.155  0.9634  0.4066 -2.9672
41766SOL     OW34075   3.212   7.908   3.068  0.2518  0.7945  0.0606
41766SOL    HW134076   3.211   7.951   3.153  0.4348  2.4167 -0.7321
41766SOL    HW234077   3.119   7.903   3.043  0.2341  0.7906  0.1272
41767SOL     OW34078  11.009   7.586   0.074  0.3353 -0.0107  0.1038
41767SOL    HW134079  10.958   7.521   0.121 -0.2715  0.3091 -0.1033
41767SOL    HW234080  10.967   7.670   0.095  0.4759  0.2042 -0.4479
41768SOL     OW34081   8.241   3.639   0.408 -0.3113  0.2414  0.3576
41768SOL    HW134082   8.165   3.667   0.459 -0.1856  1.6310 -0.1688
41768SOL    HW234083   8.204   3.595   0.332 -0.7175  2.4060 -0.7790
41769SOL     OW34084  12.219   8.876   8.727 -0.4259 -0.1951 -0.0265
41769SOL    HW134085  12.300   8.850   8.682  0.8160 -0.9971  2.4774
41769SOL    HW234086  12.163   8.798   8.721 -0.5252 -0.0800 -0.6837
41770SOL     OW34087   7.799   1.889   5.525 -0.0814  0.2163 -0.6918
41770SOL    HW134088   7.755   1.962   5.482  1.9452  1.1637 -1.2745
41770SOL    HW234089   7.848   1.845   5.455  2.3428  1.0931  0.3358
41771SOL     OW34090   1.252  10.239   9.360  0.0511 -0.0563  0.1338
41771SOL    HW134091   1.343  10.222   9.383  0.7821  3.3103  0.2288
41771SOL    HW234092   1.254  10.256   9.266 -0.3015  0.9991  0.3122
41772SOL     OW34093   9.201   6.081   9.980  0.0715  0.6719  0.0099
41772SOL    HW134094   9.201   6.168   9.942 -0.0562  0.1016 -1.3712
41772SOL    HW234095   9.109   6.057   9.988  0.1123  0.2881 -0.5677
41773SOL     OW34096   8.477   9.167   3.019  0.3032 -0.1315 -0.3650
41773SOL    HW134097   8.404   9.108   3.032  1.3898 -1.4632 -0.0618
41773SOL    HW234098   8.437   9.253   3.008 -1.3375 -0.9331 -1.0317
41774SOL     OW34099   4.893   3.746   2.605 -0.2098 -0.4085 -0.2279
41774SOL    HW134100   4.853   3.663   2.582 -4.2177  1.0740  0.6286
41774SOL    HW234101   4.938   3.774   2.526 -1.0473 -2.1558 -1.3814
41775SOL     OW34102   7.150   0.212   4.139  0.0815  0.2893  0.2139
41775SOL    HW134103   7.230   0.237   4.092  0.4183  0.9334  1.1170
41775SOL    HW234104   7.173   0.218   4.231 -1.3050  1.4763  0.5205
41776SOL     OW34105   5.882   6.094   0.537 -0.4057  0.0538 -0.3699
41776SOL    HW134106   5.948   6.058   0.477  0.1664  2.0159 -0.9866
41776SOL    HW234107   5.868   6.183   0.506 -2.8863 -0.0894  0.1820
41777SOL     OW34108   2.253   9.263   2.615 -0.2680  0.3568 -0.1343
41777SOL    HW134109   2.244   9.350   2.653  0.5644  0.5498 -0.3676
41777SOL    HW234110   2.347   9.250   2.605 -0.3963 -0.4487 -0.3845
41778SOL     OW34111   1.774  10.929   4.271 -0.0066  0.0198 -0.5225
41778SOL    HW134112   1.739  11.018   4.284 -0.4812 -0.3955  1.1719
41778SOL    HW234113   1.835  10.916   4.343  1.8183 -0.2427 -2.0134
41779SOL     OW34114   6.290   7.225   6.889 -0.0162 -0.3927 -0.3403
41779SOL    HW134115   6.287   7.283   6.813  1.0723  0.4789  0.2601
41779SOL    HW234116   6.198   7.218   6.917 -0.3167 -0.0059 -1.1879
41780SOL     OW34117   3.107   6.614   7.748  0.6860 -0.7939  0.7844
41780SOL    HW134118   3.106   6.528   7.707 -0.3466 -0.4220 -0.0162
41780SOL    HW234119   3.189   6.654   7.719 -0.0135 -0.5378 -0.9794
41781SOL     OW34120   7.299  12.147   1.619 -0.1011  0.2830 -0.0498
41781SOL    HW134121   7.331  12.143   1.529  0.9749 -1.2211  0.3473
41781SOL    HW234122   7.236  12.219   1.620  0.3762  0.7611 -1.8295
41782SOL     OW34123   2.420   6.591   9.960  0.2905 -0.3829 -0.0832
41782SOL    HW134124   2.441   6.619   9.871 -2.6880 -0.4395 -0.9210
41782SOL    HW234125   2.380   6.668  10.000  0.9480 -0.5796  0.9948
41783SOL     OW34126   1.232   5.057   0.968 -0.3395 -0.1654 -0.2046
41783SOL    HW134127   1.289   5.079   1.042 -0.0370 -0.8106 -0.2394
41783SOL    HW234128   1.162   5.006   1.007 -1.4464  1.4398 -0.0036
41784SOL     OW34129   5.295  12.312   8.564  0.4025  0.5669 -0.0922
41784SOL    HW134130   5.361  12.263   8.611 -0.7325 -0.2089  0.7528
41784SOL    HW234131   5.212  12.276   8.594 -0.4397  2.0710 -0.4849
41785SOL     OW34132  11.935   5.361   4.703 -0.3777 -0.1801 -0.3339
41785SOL    HW134133  11.996   5.390   4.771 -2.0283  0.2426  1.0215
41785SOL    HW234134  11.967   5.274   4.678 -0.0610 -0.6130  1.4315
41786SOL     OW34135   1.884   0.533   7.210 -0.6409 -0.1597  0.2604
41786SOL    HW134136   1.949   0.477   7.168 -0.0366 -1.6540  2.9022
41786SOL    HW234137   1.820   0.552   7.142  0.7572 -1.5328 -1.5354
41787SOL     OW34138   2.893   3.181   1.532  0.0904 -0.0859 -0.1875
41787SOL    HW134139   2.811   3.199   1.579  1.0699  1.0981  1.1266
41787SOL    HW234140   2.881   3.222   1.446 -1.3267 -1.3981 -0.6688
41788SOL     OW34141   8.793   1.545   1.153  0.2652 -0.0063  1.2238
41788SOL    HW134142   8.811   1.468   1.206 -0.0747  0.4655  2.0357
41788SOL    HW234143   8.874   1.595   1.156 -0.0872  0.5316  2.1867
41789SOL     OW34144   0.128   2.838   5.098  0.2850  0.1833  0.4388
41789SOL    HW134145   0.163   2.836   5.009  2.8589  0.6837  1.3440
41789SOL    HW234146   0.171   2.764   5.142 -2.4006 -1.2499  0.8299
41790SOL     OW34147   0.854  11.731   1.727  0.2216 -0.2845 -0.1582
41790SOL    HW134148   0.880  11.657   1.782  0.0886 -1.2840 -1.4025
41790SOL    HW234149   0.758  11.731   1.730  0.1387 -1.3182 -1.5709
41791SOL     OW34150   2.925   2.846   7.763  0.0043  0.3120 -0.2657
41791SOL    HW134151   2.896   2.761   7.730  2.5787 -0.9832  0.5373
41791SOL    HW234152   2.924   2.837   7.858 -0.0978  1.3408 -0.1607
41792SOL     OW34153   7.679   9.838   9.338  0.1440  0.4396  0.4104
41792SOL    HW134154   7.725   9.849   9.421  1.1096 -0.5175  0.0348
41792SOL    HW234155   7.629   9.757   9.350  0.2284  0.3396  0.0904
41793SOL     OW34156   3.298  12.556   5.189 -0.1357 -0.0694 -1.1071
41793SOL    HW134157   3.278  12.591   5.102 -1.0652  0.0708 -0.8490
41793SOL    HW234158   3.378  12.602   5.215 -0.4796  0.7382 -1.4196
41794SOL     OW34159   6.043   0.717  11.786 -0.4779  0.1436  0.4548
41794SOL    HW134160   5.986   0.791  11.764 -2.4049 -0.5815  2.5826
41794SOL    HW234161   5.984   0.641  11.789  0.5691 -0.6840  2.5057
41795SOL     OW34162   4.773   4.213  11.085 -0.3130 -0.8630  0.0796
41795SOL    HW134163   4.745   4.190  11.174 -1.9455  1.0190  0.1289
41795SOL    HW234164   4.837   4.283  11.097  0.8613 -1.8487 -0.2146
41796SOL     OW34165  10.871   7.744   2.313  0.0853 -0.1418 -0.1098
41796SOL    HW134166  10.878   7.812   2.246  0.7075 -1.4908 -1.4800
41796SOL    HW234167  10.935   7.769   2.380 -0.8719  1.4655  0.2535
41797SOL     OW34168   5.067  11.744   9.119  0.0466 -0.2803 -0.5867
41797SOL    HW134169   5.035  11.834   9.119  0.5935 -0.0817 -0.0236
41797SOL    HW234170   5.009  11.698   9.058 -0.2805  0.4330 -0.8233
41798SOL     OW34171   3.890   1.110   6.608  0.5309  0.6070 -0.4940
41798SOL    HW134172   3.887   1.030   6.555 -1.2305  0.3571 -0.0585
41798SOL    HW234173   3.855   1.084   6.693 -0.6121  1.9590 -0.5261
41799SOL     OW34174  11.912   5.511   6.019  0.7137 -0.9351 -0.0695
41799SOL    HW134175  11.901   5.421   6.050 -0.3763 -0.2129  1.8278
41799SOL    HW234176  11.854   5.563   6.075 -2.1120  0.5008 -3.8266
41800SOL     OW34177  11.963  11.673   3.615  0.8307  0.9353 -0.1384
41800SOL    HW134178  11.998  11.693   3.528  2.3438 -0.0157  0.2124
41800SOL    HW234179  12.038  11.681   3.674  0.2756 -0.3030  0.7877
41801SOL     OW34180   0.921  10.400  11.152  0.1053 -0.0907  0.4695
41801SOL    HW134181   0.982  10.369  11.219  0.3265  1.5857  1.0765
41801SOL    HW234182   0.921  10.495  11.161 -2.0433  0.0024 -0.0244
41802SOL     OW34183   8.485   2.745  12.394 -0.2063  0.2976 -0.5509
41802SOL    HW134184   8.466   2.772  12.484  0.1006  0.7446 -0.6150
41802SOL    HW234185   8.399   2.736  12.353 -0.4010 -1.1054  0.1146
41803SOL     OW34186   5.559   6.901  11.492  0.7452 -0.0077  0.2133
41803SOL    HW134187   5.587   6.821  11.448 -0.0306 -0.8093  1.1380
41803SOL    HW234188   5.641   6.945  11.516  1.2499 -1.5901  1.5936
41804SOL     OW34189   3.695   7.413   8.837 -0.5684  0.1522  0.2410
41804SOL    HW134190   3.619   7.471   8.828 -0.5766  0.0390 -0.4075
41804SOL    HW234191   3.691   7.355   8.761 -1.0632 -1.3175  1.3320
41805SOL     OW34192   0.376   7.590   2.038 -0.4076 -0.0884 -0.1541
41805SOL    HW134193   0.356   7.683   2.026  0.9373  0.3889  1.0168
41805SOL    HW234194   0.381   7.555   1.949 -0.6647  1.0155 -0.6215
41806SOL     OW34195   0.144   6.659   6.605 -0.2046 -0.0617  0.2833
41806SOL    HW134196   0.068   6.627   6.558 -1.3836  1.4865  1.0347
41806SOL    HW234197   0.152   6.601   6.681 -0.5817 -0.2871  0.1501
41807SOL     OW34198   7.171   7.712   6.678 -0.3408  0.2132  0.2293
41807SOL    HW134199   7.174   7.722   6.582 -0.1365  2.5285  0.4276
41807SOL    HW234200   7.084   7.676   6.695 -1.1460  1.6055 -0.7312
41808SOL     OW34201   4.568   2.451   8.913  0.3476 -0.1283  0.5002
41808SOL    HW134202   4.493   2.507   8.893 -0.6154 -1.5110  0.0646
41808SOL    HW234203   4.625   2.505   8.968 -0.3231  1.4020 -0.2569
41809SOL     OW34204   2.509  11.059   0.246  0.3143  0.4395  0.6034
41809SOL    HW134205   2.594  11.033   0.283  0.2337  0.2804  0.6803
41809SOL    HW234206   2.465  10.976   0.228 -0.2440  0.5221  1.5348
41810SOL     OW34207   0.127  12.456  11.718  0.6836  0.0698 -0.5954
41810SOL    HW134208   0.151  12.447  11.810  0.1657 -1.0045 -0.5608
41810SOL    HW234209   0.124  12.551  11.704 -0.3800  0.2672  0.7939
41811SOL     OW34210   8.886  10.560   3.818  0.2389 -0.0835 -0.0941
41811SOL    HW134211   8.849  10.574   3.731  0.0581 -0.5933 -0.1026
41811SOL    HW234212   8.947  10.632   3.830 -0.9873  0.9768  0.0453
41812SOL     OW34213  11.549   3.236   9.778 -0.1161 -0.3272  0.1725
41812SOL    HW134214  11.594   3.255   9.695  0.3061  1.0127  0.6837
41812SOL    HW234215  11.572   3.145   9.797  0.2766 -0.4597 -0.8824
41813SOL     OW34216  11.495  10.585   7.407 -0.0130 -0.3011 -0.1964
41813SOL    HW134217  11.521  10.654   7.467  0.0921 -1.3824  1.0456
41813SOL    HW234218  11.505  10.624   7.320  1.0185  0.8961  0.4232
41814SOL     OW34219  10.923   3.353   1.553 -0.2228  0.1203 -0.8846
41814SOL    HW134220  11.006   3.396   1.571 -1.1070  1.9342 -0.9207
41814SOL    HW234221  10.943   3.259   1.556  2.1620  0.4847 -2.5499
41815SOL     OW34222   3.109   0.043   6.522  0.1958  0.4003  0.3132
41815SOL    HW134223   3.087  -0.027   6.583  0.2213 -1.0454 -1.2469
41815SOL    HW234224   3.028   0.092   6.511 -0.4365 -0.6990 -0.1506
41816SOL     OW34225   1.587  12.501   6.974  0.2743 -0.5822  0.3615
41816SOL    HW134226   1.546  12.544   6.899 -1.1794 -1.0730  0.8368
41816SOL    HW234227   1.513  12.467   7.025  1.2516 -0.6140  1.8014
41817SOL     OW34228   7.711   9.225  12.041  0.5147  0.4061  0.6841
41817SOL    HW134229   7.728   9.140  12.001 -0.0151  0.4206  0.4059
41817SOL    HW234230   7.638   9.260  11.990 -1.4226 -0.3397  2.7678
41818SOL     OW34231   7.306   0.486   3.409 -0.4912 -0.1092  0.2979
41818SOL    HW134232   7.274   0.395   3.405 -0.4358 -0.2498  2.1857
41818SOL    HW234233   7.293   0.519   3.320 -0.7027 -1.8964 -0.3953
41819SOL     OW34234   6.327   1.305   7.120 -0.1185 -0.1831  0.3313
41819SOL    HW134235   6.254   1.251   7.151 -0.1760  1.1451  2.7202
41819SOL    HW234236   6.357   1.353   7.197  0.2838  2.7812 -1.4800
41820SOL     OW34237   3.129   8.979   9.053 -0.2325 -0.1069 -0.3243
41820SOL    HW134238   3.035   8.973   9.039 -0.6983 -1.2537  2.5734
41820SOL    HW234239   3.154   8.892   9.085  1.5849  0.5368  0.1232
41821SOL     OW34240   4.438   3.570   1.049  0.0561  0.0825 -0.8583
41821SOL    HW134241   4.363   3.613   1.007  1.3174  1.1452 -2.1270
41821SOL    HW234242   4.496   3.548   0.977  1.1073 -0.4723  0.1267
41822SOL     OW34243   0.300   2.706   7.541 -0.2760  0.0776 -0.2133
41822SOL    HW134244   0.248   2.630   7.516 -0.6023  0.4491 -0.6869
41822SOL    HW234245   0.343   2.733   7.461  0.1056  0.1928  0.0281
41823SOL     OW34246  11.149   1.845  12.539  0.1581 -0.3075  0.0147
41823SOL    HW134247  11.106   1.930  12.537  0.5954 -0.0837 -0.1541
41823SOL    HW234248  11.130   1.806  12.454  2.0608  0.7093 -0.9476
41824SOL     OW34249   2.339   8.234   1.462 -0.3162  0.0704  0.0460
41824SOL    HW134250   2.335   8.147   1.503  0.9591  0.3973  0.9073
41824SOL    HW234251   2.248   8.263   1.459 -0.6275 -0.7665  0.9068
41825SOL     OW34252   1.761   2.678   9.283  0.0704 -0.3643  0.1840
41825SOL    HW134253   1.798   2.766   9.278  0.7381 -0.5922  0.8483
41825SOL    HW234254   1.800   2.641   9.363 -0.3764 -1.1774  0.0302
41826SOL     OW34255  12.149   3.630   6.688 -0.7430  0.7190  0.1973
41826SOL    HW134256  12.082   3.618   6.621 -0.8958 -0.4936  0.5496
41826SOL    HW234257  12.104   3.676   6.759 -0.8841  0.9550 -0.0407
41827SOL     OW34258   6.808   9.759   7.780 -0.4292  0.2676  0.5145
41827SOL    HW134259   6.732   9.704   7.799  1.1629 -2.7630 -1.0937
41827SOL    HW234260   6.882   9.711   7.817  0.9183  2.2195  0.4868
41828SOL     OW34261   6.253   1.748   1.615 -0.5364  0.1934 -0.1030
41828SOL    HW134262   6.279   1.835   1.583 -0.0477  0.5823  1.2767
41828SOL    HW234263   6.263   1.691   1.540 -2.0147  1.5337 -1.3935
41829SOL     OW34264   0.634   1.300   1.622 -0.3395  0.4548 -0.3470
41829SOL    HW134265   0.696   1.248   1.570 -0.1909 -0.1244  0.3816
41829SOL    HW234266   0.645   1.390   1.590  0.3406  0.2411 -0.7424
41830SOL     OW34267   4.307  12.467   7.365 -0.2028 -0.0059  0.9400
41830SOL    HW134268   4.272  12.548   7.404  2.0507  1.4099  0.2341
41830SOL    HW234269   4.289  12.400   7.431  2.5558  2.0651  4.1675
41831SOL     OW34270   0.641   1.010   9.013  0.1254  0.3188 -0.3448
41831SOL    HW134271   0.558   0.967   8.993  0.0125  0.6596 -0.6297
41831SOL    HW234272   0.633   1.097   8.974  1.0833 -0.0498 -1.4625
41832SOL     OW34273   1.358  11.322  11.643 -0.3913 -0.3250 -0.4580
41832SOL    HW134274   1.448  11.352  11.630 -0.5517  0.7819  0.7580
41832SOL    HW234275   1.311  11.399  11.674 -2.1206 -0.5306 -2.3749
41833SOL     OW34276   5.690   8.204   4.421 -0.4504  0.7433  0.1747
41833SOL    HW134277   5.630   8.197   4.347  0.4704 -2.2038 -0.4286
41833SOL    HW234278   5.656   8.142   4.486  1.0725  0.1044  0.4190
41834SOL     OW34279  12.143  10.912   5.373  0.8821 -0.0310  0.0257
41834SOL    HW134280  12.207  10.911   5.302  0.6027 -0.7054 -0.2221
41834SOL    HW234281  12.059  10.921   5.329  0.7150 -0.3462  0.2818
41835SOL     OW34282   7.330   4.824   1.356 -0.2120 -0.5322  0.7594
41835SOL    HW134283   7.290   4.744   1.320 -1.0494  0.3197 -0.3077
41835SOL    HW234284   7.353   4.875   1.278 -0.4443  0.6118  1.4304
41836SOL     OW34285   5.547  11.063  11.644 -0.1454 -0.1824  0.3510
41836SOL    HW134286   5.629  11.018  11.625  0.3882  0.0232  2.0361
41836SOL    HW234287   5.552  11.143  11.591  1.2547  0.3506  1.2378
41837SOL     OW34288   0.564  11.710   6.324  0.0577  0.0497 -0.0465
41837SOL    HW134289   0.473  11.680   6.326 -0.7334  2.2952  0.0277
41837SOL    HW234290   0.558  11.805   6.313  2.3933  0.3225  0.5511
41838SOL     OW34291   5.502  12.218  10.982 -0.2884  0.6465 -0.5746
41838SOL    HW134292   5.458  12.135  10.999  1.1909  0.1884  1.4561
41838SOL    HW234293   5.434  12.275  10.947 -1.8661 -0.7749  0.0551
41839SOL     OW34294  10.413   5.356   2.212 -0.6166  0.5899 -0.0475
41839SOL    HW134295  10.490   5.399   2.176 -0.5541 -1.4147 -2.6649
41839SOL    HW234296  10.340   5.411   2.186 -0.2401  1.3982  0.5790
41840SOL     OW34297   1.488   4.227   3.038 -0.0351 -0.1377 -0.0582
41840SOL    HW134298   1.475   4.225   3.133 -0.9357  0.2090 -0.1630
41840SOL    HW234299   1.454   4.143   3.008 -0.2952 -0.0035 -0.1384
41841SOL     OW34300   4.978   6.796   1.634  0.0983 -0.0151  0.0267
41841SOL    HW134301   4.955   6.781   1.725  2.2918  0.2647  0.6938
41841SOL    HW234302   4.966   6.890   1.620 -1.3536 -0.2366 -0.3509
41842SOL     OW34303   9.343   4.336   0.648  0.5417 -0.2611 -0.1231
41842SOL    HW134304   9.302   4.420   0.670 -1.2068 -0.4175 -2.3731
41842SOL    HW234305   9.430   4.359   0.616  0.8033  0.4701  1.0312
41843SOL     OW34306   4.984   1.739   8.237 -0.9306 -0.7401 -0.4722
41843SOL    HW134307   5.074   1.713   8.259 -1.0767 -2.1959 -1.4344
41843SOL    HW234308   4.937   1.733   8.320 -0.4105 -1.2462 -0.2032
41844SOL     OW34309   2.332   3.185  12.240  0.2026  0.0056 -0.3584
41844SOL    HW134310   2.249   3.205  12.196 -0.0456  1.4672  0.6978
41844SOL    HW234311   2.388   3.260  12.221  0.4153  0.2161  0.9907
41845SOL     OW34312   0.904   1.900   4.848  0.2918 -0.2567  0.2728
41845SOL    HW134313   0.862   1.814   4.857  1.7775 -1.0072  0.2492
41845SOL    HW234314   0.994   1.881   4.823  0.9847  1.2616  1.4241
41846SOL     OW34315   9.964   9.361   1.391 -0.2046  0.7960 -0.6531
41846SOL    HW134316   9.894   9.358   1.326  0.1299  2.2464 -1.1116
41846SOL    HW234317   9.957   9.448   1.431  0.1762  0.2768  0.6168
41847SOL     OW34318   0.067   2.275   7.121  0.4662  0.1491  0.2146
41847SOL    HW134319   0.096   2.291   7.032 -0.9065  0.8483 -0.1393
41847SOL    HW234320  -0.013   2.327   7.130  0.2997 -0.3067  1.6825
41848SOL     OW34321   0.679  11.916   6.076 -0.1259 -0.1388  0.1479
41848SOL    HW134322   0.587  11.941   6.079 -0.4208 -1.1972  0.1379
41848SOL    HW234323   0.690  11.871   5.993  0.1153 -1.0788  0.6716
41849SOL     OW34324   2.760  10.905   6.973  0.3755 -0.1884  0.1544
41849SOL    HW134325   2.831  10.915   7.037  0.2049 -1.7409  0.6383
41849SOL    HW234326   2.707  10.833   7.008 -0.4510 -0.2077 -1.0883
41850SOL     OW34327   4.941   2.989  10.809 -0.3990  0.2284  0.1675
41850SOL    HW134328   4.999   2.916  10.790  0.5674  0.8663  0.5528
41850SOL    HW234329   4.886   2.998  10.731  1.0008  0.4991 -0.8203
41851SOL     OW34330   2.724   4.403   8.220  0.2094  0.3826 -0.0671
41851SOL    HW134331   2.665   4.479   8.214  1.6511  1.5189 -0.5181
41851SOL    HW234332   2.720   4.362   8.134  0.0701  0.4561 -0.0952
41852SOL     OW34333   0.163   1.615  12.150 -0.9822 -0.7388 -0.0420
41852SOL    HW134334   0.174   1.635  12.057  0.0868 -1.2923 -0.0384
41852SOL    HW234335   0.122   1.694  12.186 -1.4259 -0.5264 -0.9788
41853SOL     OW34336   7.299   2.670  11.868  0.2560 -0.0920  0.3402
41853SOL    HW134337   7.389   2.644  11.847  0.6633 -0.2329  2.0965
41853SOL    HW234338   7.274   2.730  11.797  1.0582 -1.4343 -1.1453
41854SOL     OW34339   0.887   2.087   6.636 -0.0462  0.1819 -0.3541
41854SOL    HW134340   0.933   2.138   6.702  0.7578 -0.7065 -0.2112
41854SOL    HW234341   0.821   2.037   6.685 -1.0090  1.2442 -0.5249
41855SOL     OW34342   7.148   0.530   4.518  0.3742 -0.6033  0.0566
41855SOL    HW134343   7.167   0.619   4.490 -0.0358 -0.1854  1.0939
41855SOL    HW234344   7.203   0.516   4.595  0.0810 -1.0848  0.1839
41856SOL     OW34345   4.482   9.864   8.025 -0.7939 -0.3109 -0.0503
41856SOL    HW134346   4.538   9.806   8.077 -1.5565 -1.2586 -0.2588
41856SOL    HW234347   4.543   9.926   7.985 -0.1954  0.6088  2.1326
41857SOL     OW34348  10.660   5.682   9.973 -0.1204  0.1963 -0.0979
41857SOL    HW134349  10.744   5.638   9.961 -0.2503 -0.0427 -0.1485
41857SOL    HW234350  10.682   5.766  10.012  0.1121 -0.0427  0.2959
41858SOL     OW34351   0.115   1.767   1.568 -0.0362 -0.3025  0.1523
41858SOL    HW134352   0.163   1.821   1.505 -1.1782 -1.7635 -2.1076
41858SOL    HW234353   0.070   1.830   1.624  1.8203  1.0580  0.2073
41859SOL     OW34354   2.314   3.263   4.293 -0.4178 -0.2376 -0.2620
41859SOL    HW134355   2.338   3.225   4.377  0.8288 -0.2508 -0.6067
41859SOL    HW234356   2.295   3.188   4.237 -0.8946 -0.2410 -0.0973
41860SOL     OW34357   9.332   2.869   1.635  0.2749 -0.1511  0.1863
41860SOL    HW134358   9.317   2.829   1.549  0.4258 -2.0740  1.0021
41860SOL    HW234359   9.406   2.928   1.622 -0.7886  0.9288 -1.3679
41861SOL     OW34360   9.079   3.913   6.093 -0.2169  0.0138 -0.1810
41861SOL    HW134361   9.152   3.882   6.146 -1.4543 -0.7496  1.1479
41861SOL    HW234362   9.050   3.835   6.045 -0.5202  0.1745 -0.2620
41862SOL     OW34363   2.538  12.323   3.478 -0.1441  0.0419 -0.3506
41862SOL    HW134364   2.550  12.373   3.559 -0.6488  0.5731 -0.5914
41862SOL    HW234365   2.449  12.287   3.485  0.4304 -1.3457  0.0889
41863SOL     OW34366  12.045   1.717   3.332  0.1311  0.0029  0.0279
41863SOL    HW134367  12.110   1.779   3.297  1.2045 -1.5219 -0.7821
41863SOL    HW234368  12.096   1.643   3.363 -1.1958 -1.0637 -0.2402
41864SOL     OW34369  11.930   0.409   6.982 -0.3641 -0.1780  0.0748
41864SOL    HW134370  11.991   0.434   7.051 -0.9372 -1.0190  0.9098
41864SOL    HW234371  11.960   0.322   6.954 -0.5142 -0.1140 -0.2829
41865SOL     OW34372   5.433   6.752   9.902 -0.4211 -0.4187 -0.3805
41865SOL    HW134373   5.340   6.760   9.925 -0.5756 -1.1261 -0.7160
41865SOL    HW234374   5.438   6.784   9.812 -0.3711 -0.5055 -0.4093
41866SOL     OW34375  11.298   2.553   1.289  0.4140 -0.9902  0.5766
41866SOL    HW134376  11.251   2.621   1.242  0.2740 -0.3602  1.5785
41866SOL    HW234377  11.363   2.601   1.342  1.3170 -1.7459  0.1850
41867SOL     OW34378  11.934   4.171   1.813  0.6483 -0.6825  0.0169
41867SOL    HW134379  12.021   4.130   1.817  0.0120 -2.3381 -1.4811
41867SOL    HW234380  11.917   4.181   1.719 -0.8077 -0.4713  0.2771
41868SOL     OW34381   5.057  12.222   7.251 -0.4322 -0.2659 -0.1777
41868SOL    HW134382   5.086  12.139   7.213 -0.5511 -1.8975  2.8997
41868SOL    HW234383   4.962  12.221   7.240 -0.5592 -1.1423  0.8193
41869SOL     OW34384   9.622  11.607   1.434  0.3306 -0.5650 -0.2465
41869SOL    HW134385   9.547  11.560   1.398 -0.0380  0.0516 -0.3070
41869SOL    HW234386   9.584  11.669   1.496  0.6685  0.5364 -1.0955
41870SOL     OW34387   3.384   6.823  11.127 -0.1331  0.6254  0.3753
41870SOL    HW134388   3.328   6.751  11.156  0.2273  0.1121 -0.1708
41870SOL    HW234389   3.358   6.897  11.181 -1.0982  0.3073  0.3645
41871SOL     OW34390  11.995  10.344   2.974 -0.0802  0.3488 -0.1696
41871SOL    HW134391  12.057  10.389   3.031 -0.4677  1.7479 -0.8078
41871SOL    HW234392  11.935  10.300   3.034  0.3162  0.6781  0.4800
41872SOL     OW34393   1.537   4.809   2.845  0.0441  0.1396  0.5005
41872SOL    HW134394   1.471   4.870   2.811  1.7710  1.4532 -0.6410
41872SOL    HW234395   1.515   4.800   2.938 -1.7100  0.5605  0.1646
41873SOL     OW34396  10.108   4.151   3.141 -0.6359 -0.1949  0.1264
41873SOL    HW134397  10.133   4.112   3.225  1.9302  0.6365 -0.1681
41873SOL    HW234398  10.140   4.090   3.075 -0.5997  0.2531 -0.2740
41874SOL     OW34399  11.150  11.670  10.662 -0.3362 -0.1593  0.0027
41874SOL    HW134400  11.057  11.651  10.673 -0.0985 -2.0850 -0.9330
41874SOL    HW234401  11.162  11.681  10.568  0.5199 -0.8350  0.0165
41875SOL     OW34402   4.889   4.027  10.247 -0.2472 -0.1151  0.4752
41875SOL    HW134403   4.979   4.034  10.280 -0.1383  0.5771  0.0642
41875SOL    HW234404   4.879   3.935  10.224 -0.6301 -0.8315  3.2371
41876SOL     OW34405  10.656   6.559   6.341 -0.8100 -0.3916  0.0439
41876SOL    HW134406  10.702   6.643   6.336  0.2699 -1.0100 -1.0451
41876SOL    HW234407  10.726   6.495   6.351 -1.4911 -1.3001 -0.8739
41877SOL     OW34408   5.716   1.791   6.505 -0.1830  0.2876 -0.4463
41877SOL    HW134409   5.635   1.831   6.471 -0.7077  1.3700  1.9095
41877SOL    HW234410   5.686   1.718   6.559  0.4111  0.5869  0.3021
41878SOL     OW34411   5.547  10.333   7.104  0.4582 -0.4059  0.4242
41878SOL    HW134412   5.500  10.402   7.056  0.3303 -1.1582 -0.5518
41878SOL    HW234413   5.622  10.378   7.143 -0.5090  0.6107  1.1681
41879SOL     OW34414   0.889   4.374   0.068 -0.1919  0.0260  0.0201
41879SOL    HW134415   0.802   4.412   0.077 -0.2038  0.0265 -0.1043
41879SOL    HW234416   0.933   4.396   0.150 -0.4271 -0.2762  0.2294
41880SOL     OW34417   6.762  12.595   4.432  0.1729 -0.3516 -0.2988
41880SOL    HW134418   6.793  12.514   4.391 -1.5575 -1.0678 -0.2647
41880SOL    HW234419   6.675  12.610   4.395  0.6955  1.8752 -0.7882
41881SOL     OW34420   6.497   2.520   2.090  0.1283  0.0052  0.3242
41881SOL    HW134421   6.538   2.605   2.074 -1.7622  0.7380 -1.0004
41881SOL    HW234422   6.489   2.515   2.185 -0.0995  1.5045  0.4057
41882SOL     OW34423   2.150  10.915   7.466 -0.4871 -0.5002 -0.4326
41882SOL    HW134424   2.144  10.994   7.519 -1.1994 -0.8766  0.0578
41882SOL    HW234425   2.240  10.885   7.478 -0.7489 -0.7904  0.8641
41883SOL     OW34426   4.209   6.044   9.060 -0.2566  0.3461  1.0754
41883SOL    HW134427   4.124   6.060   9.102 -1.0116 -2.8155  1.0470
41883SOL    HW234428   4.255   5.987   9.121  0.2504 -1.0679 -0.5389
41884SOL     OW34429   2.315  11.757   8.484 -0.2532  0.2975 -0.4681
41884SOL    HW134430   2.355  11.761   8.570  0.1758 -2.7107 -0.4326
41884SOL    HW234431   2.342  11.838   8.441 -0.4867  1.8668  2.1731
41885SOL     OW34432   5.870   9.242   3.502  0.1381  0.8641  0.6616
41885SOL    HW134433   5.858   9.181   3.576 -1.2650 -0.0379 -0.2441
41885SOL    HW234434   5.917   9.190   3.437 -1.3922  0.5813 -0.2598
41886SOL     OW34435  10.761   1.684  10.215  0.1286  0.5653 -0.1873
41886SOL    HW134436  10.815   1.736  10.274 -0.5320  0.0263  0.9211
41886SOL    HW234437  10.679   1.734  10.208  0.5417  1.1205 -1.4541
41887SOL     OW34438   1.980   7.949   2.823  0.2356  0.2214 -0.3749
41887SOL    HW134439   2.043   7.883   2.851  1.5826  0.3859 -2.7784
41887SOL    HW234440   2.026   8.032   2.836 -0.7828  0.6144  0.9440
41888SOL     OW34441  12.011  12.525  10.120 -0.0755  0.1706  0.5553
41888SOL    HW134442  12.041  12.614  10.104  0.5677  0.1458  1.5352
41888SOL    HW234443  11.980  12.494  10.035 -1.4696  1.7462  0.4525
41889SOL     OW34444  11.819   8.890  11.133 -0.6391  0.1852  0.2840
41889SOL    HW134445  11.735   8.881  11.179 -0.3917 -3.7755  0.3307
41889SOL    HW234446  11.841   8.800  11.107  2.2100  1.4793 -2.2833
41890SOL     OW34447   5.451  11.449  12.389 -0.5911 -0.3952 -0.1487
41890SOL    HW134448   5.403  11.367  12.379 -1.3505  0.0364 -0.1059
41890SOL    HW234449   5.532  11.424  12.433 -0.3978 -1.2543 -0.9656
41891SOL     OW34450   6.846  11.829   4.155  0.0362  0.0606 -0.6490
41891SOL    HW134451   6.852  11.916   4.194 -0.7698 -0.0195 -0.3149
41891SOL    HW234452   6.934  11.792   4.164  0.3913  0.8416 -0.8134
41892SOL     OW34453   9.420   4.672   3.012  0.3701 -0.1244  0.1858
41892SOL    HW134454   9.436   4.601   2.949  1.0976  0.1655  0.0397
41892SOL    HW234455   9.339   4.646   3.055 -1.7697  1.0269 -2.7724
41893SOL     OW34456   6.225   7.794  12.480 -0.0031 -0.6021 -0.4483
41893SOL    HW134457   6.283   7.869  12.487  0.7988 -1.2817  0.5760
41893SOL    HW234458   6.276   7.729  12.430  0.2701 -1.3051  0.6997
41894SOL     OW34459   0.831   0.635   9.190  0.2014 -0.0151  0.2789
41894SOL    HW134460   0.893   0.615   9.260  0.4139  0.0709  0.1151
41894SOL    HW234461   0.866   0.714   9.148  0.0832 -0.0730  0.0676
41895SOL     OW34462   2.973   0.823   3.528 -0.0665 -0.2023  0.2794
41895SOL    HW134463   3.033   0.898   3.522  1.0463 -1.1600 -1.3787
41895SOL    HW234464   3.004   0.774   3.605  0.7111 -0.2108 -0.0352
41896SOL     OW34465   8.259   2.677   4.654  0.1293 -0.1265  0.1872
41896SOL    HW134466   8.200   2.647   4.723 -0.0923  1.2577  0.6137
41896SOL    HW234467   8.223   2.760   4.625 -0.0950 -0.9115 -2.0100
41897SOL     OW34468   6.446   6.209   6.797  0.8255 -0.4939  0.7856
41897SOL    HW134469   6.369   6.153   6.800 -0.0743  0.6986  0.5534
41897SOL    HW234470   6.451   6.240   6.707  0.8244  0.4453  1.0925
41898SOL     OW34471   2.886   6.736   0.774  0.2424  0.0222 -0.1372
41898SOL    HW134472   2.906   6.773   0.688  0.4608  0.2149 -0.0060
41898SOL    HW234473   2.972   6.718   0.813  0.2679  2.2214  1.0323
41899SOL     OW34474   9.694  11.192   3.050  0.2507  0.2646  0.2064
41899SOL    HW134475   9.694  11.097   3.036 -0.5249  0.4416 -1.1464
41899SOL    HW234476   9.687  11.202   3.145 -0.5558 -1.0361  0.3095
41900SOL     OW34477   5.381   0.414  10.719 -0.0933 -0.1236  0.2089
41900SOL    HW134478   5.326   0.492  10.726  0.6265  0.2867  1.7822
41900SOL    HW234479   5.464   0.445  10.683  0.2269 -0.1220  0.9236
41901SOL     OW34480   1.253   3.549   2.619  0.5882 -0.6827  0.3410
41901SOL    HW134481   1.167   3.542   2.577  0.1162 -1.8612  1.4343
41901SOL    HW234482   1.293   3.463   2.607  2.2740  0.2829 -1.4258
41902SOL     OW34483  11.822   4.187   7.693  0.2890  0.0294 -0.2479
41902SOL    HW134484  11.888   4.249   7.723  0.4049 -0.5574  0.7514
41902SOL    HW234485  11.864   4.140   7.621  1.2577 -0.8284  0.8324
41903SOL     OW34486   5.453   2.549   1.166 -0.1943  0.1448 -0.6638
41903SOL    HW134487   5.528   2.568   1.222 -0.6195  1.0868 -0.3996
41903SOL    HW234488   5.440   2.454   1.175  0.1740  0.1781  0.2910
41904SOL     OW34489   3.922   1.001   2.290  0.2430 -0.6369 -0.4401
41904SOL    HW134490   4.008   1.028   2.258  1.6877 -1.9647  2.0501
41904SOL    HW234491   3.876   1.083   2.309  1.3683  0.0758 -0.7338
41905SOL     OW34492   4.348   3.997   9.476  0.5592 -0.1584  0.5917
41905SOL    HW134493   4.332   3.949   9.557  2.0119 -0.3479  0.7865
41905SOL    HW234494   4.273   3.975   9.420  0.6746 -1.8470  1.0551
41906SOL     OW34495   2.241   8.561   6.141  0.1607  0.1825  0.4496
41906SOL    HW134496   2.271   8.470   6.148 -1.9094 -0.6384 -0.3545
41906SOL    HW234497   2.318   8.610   6.112  0.7921 -1.7237 -1.3426
41907SOL     OW34498   4.965   6.353  11.966 -0.4074  0.1826  0.4271
41907SOL    HW134499   5.035   6.400  11.921 -1.2645  1.4670  0.3899
41907SOL    HW234500   4.976   6.374  12.058  0.2990 -1.0487  0.6449
41908SOL     OW34501  11.869  12.164   4.771 -0.1592  0.1210  0.4584
41908SOL    HW134502  11.797  12.226   4.762  0.9457  1.5465  0.9314
41908SOL    HW234503  11.867  12.113   4.690 -1.1400  0.7395  0.0753
41909SOL     OW34504   6.684   4.150   6.776  0.1371  0.0712  0.1990
41909SOL    HW134505   6.688   4.078   6.840  1.1603  0.1761  0.2683
41909SOL    HW234506   6.659   4.226   6.828 -1.2405 -0.2658  0.0786
41910SOL     OW34507   3.124   5.591   0.522  0.0164  0.1124 -0.1916
41910SOL    HW134508   3.170   5.566   0.443 -2.0749 -3.7147 -0.4008
41910SOL    HW234509   3.044   5.633   0.491  0.5899  1.4336  0.0420
41911SOL     OW34510   7.310  10.894   3.503 -0.1876 -0.4385  0.5630
41911SOL    HW134511   7.298  10.934   3.416  1.8610 -0.3908  0.2375
41911SOL    HW234512   7.273  10.957   3.564 -2.2286 -0.7492 -0.2775
41912SOL     OW34513   2.269   9.982   2.391 -0.4315  0.4850  0.2874
41912SOL    HW134514   2.332   9.930   2.442 -1.4796 -0.2427  0.8883
41912SOL    HW234515   2.184   9.948   2.417 -1.0726  1.2709 -0.7079
41913SOL     OW34516  11.418   3.655   2.683 -0.4460  0.4265 -0.4220
41913SOL    HW134517  11.466   3.573   2.684 -0.5995  0.3076 -1.8642
41913SOL    HW234518  11.469   3.713   2.627 -0.0023  1.5509  1.0802
41914SOL     OW34519   2.007   2.292   8.346 -0.1306  0.3526 -0.0575
41914SOL    HW134520   1.959   2.336   8.275 -0.0543 -0.0990 -0.3956
41914SOL    HW234521   1.954   2.215   8.366 -0.2641  0.5929  0.5350
41915SOL     OW34522  11.372   6.991   3.282  0.2826  0.2835  0.2235
41915SOL    HW134523  11.424   6.966   3.358  0.4138 -0.6864 -0.1634
41915SOL    HW234524  11.400   7.080   3.260 -0.8941  1.2227  2.2481
41916SOL     OW34525   6.674   7.034  11.676 -0.8548  0.5995 -0.0672
41916SOL    HW134526   6.663   6.987  11.593 -0.1799  0.5777 -0.1456
41916SOL    HW234527   6.705   6.968  11.738 -0.2305  0.8588 -0.0945
41917SOL     OW34528  12.460   3.711   3.198 -0.0716  0.6309 -0.2559
41917SOL    HW134529  12.498   3.760   3.271  0.9186 -0.2114 -0.1839
41917SOL    HW234530  12.440   3.777   3.132 -2.4061  1.6515  1.3065
41918SOL     OW34531   0.981  11.468   2.014  0.2614  0.8246  0.3151
41918SOL    HW134532   1.013  11.550   2.052 -0.6019  0.6137  1.5519
41918SOL    HW234533   0.886  11.479   2.011 -0.0261 -0.6866  1.9754
41919SOL     OW34534   5.241   5.007   9.417 -0.1140  0.2937 -0.3585
41919SOL    HW134535   5.154   4.996   9.457 -0.0988  0.5859 -0.2470
41919SOL    HW234536   5.226   5.068   9.345 -0.2292 -0.5799 -1.0892
41920SOL     OW34537   9.723   1.377   7.541 -0.2085 -0.4463 -0.1177
41920SOL    HW134538   9.670   1.426   7.479  0.9177  0.2247 -0.5849
41920SOL    HW234539   9.733   1.291   7.502 -1.5548 -0.8425  0.3386
41921SOL     OW34540   4.543   3.780  10.304  0.0833 -0.3221 -0.6297
41921SOL    HW134541   4.536   3.821  10.218 -2.2673 -1.6022 -1.1250
41921SOL    HW234542   4.468   3.813  10.353  0.3930 -0.9899  0.3201
41922SOL     OW34543   8.893   8.959  12.575  0.6596  0.0120  0.0100
41922SOL    HW134544   8.894   8.898  12.648 -1.8995  0.9550  0.9507
41922SOL    HW234545   8.972   9.012  12.586  1.3344 -1.1581  0.9130
41923SOL     OW34546   2.173   0.252   8.372 -0.3269 -0.1613  0.0665
41923SOL    HW134547   2.230   0.285   8.303 -1.3191  1.4598 -0.0152
41923SOL    HW234548   2.112   0.193   8.328  0.8866 -1.4903  0.0726
41924SOL     OW34549   5.018   1.488   5.235  0.1705  0.1909 -0.2889
41924SOL    HW134550   5.072   1.516   5.309 -2.0449 -0.4691  1.7044
41924SOL    HW234551   5.048   1.399   5.216 -1.0483 -0.7319  1.7638
41925SOL     OW34552   3.140   9.318   6.686 -0.5288  0.2678 -0.1765
41925SOL    HW134553   3.074   9.284   6.626 -0.5591  1.4647 -0.8704
41925SOL    HW234554   3.126   9.271   6.768  0.3600 -2.3598 -1.4390
41926SOL     OW34555   0.538   4.845  10.323 -0.1037  0.2409  0.1984
41926SOL    HW134556   0.468   4.909  10.336  0.9734  1.2394  1.3006
41926SOL    HW234557   0.502   4.784  10.258 -1.4945  1.4515 -0.2377
41927SOL     OW34558   1.916   6.243  10.987  0.2119  0.6579 -0.4600
41927SOL    HW134559   2.009   6.261  11.003  0.5828 -0.7119 -0.9038
41927SOL    HW234560   1.908   6.244  10.892 -0.1211  0.2569 -0.4351
41928SOL     OW34561   5.688   5.908  12.225 -0.0814  0.4874  0.8739
41928SOL    HW134562   5.719   5.826  12.264  0.2813  0.2361  0.0910
41928SOL    HW234563   5.762   5.968  12.234  0.9420 -0.2880 -1.5229
41929SOL     OW34564   2.853   8.538   9.764 -0.3142  0.1215  0.1478
41929SOL    HW134565   2.773   8.529   9.816  0.5196  2.0580  1.9110
41929SOL    HW234566   2.845   8.624   9.722  1.2034  0.7832  1.1141
41930SOL     OW34567   6.610   4.663   0.283 -0.4381  0.6562  0.7513
41930SOL    HW134568   6.629   4.632   0.372  1.8747 -0.7542 -0.1455
41930SOL    HW234569   6.644   4.594   0.226 -0.7722  2.0827 -1.2621
41931SOL     OW34570   1.732   5.404   4.541  0.3322 -0.2577  0.5119
41931SOL    HW134571   1.698   5.440   4.460  2.7721  2.3916  0.5173
41931SOL    HW234572   1.732   5.477   4.602  0.0145 -1.7927  2.4605
41932SOL     OW34573  12.523  11.924  11.740 -0.2312 -0.1495 -0.6365
41932SOL    HW134574  12.470  11.907  11.818 -0.7439 -0.0699 -0.9609
41932SOL    HW234575  12.605  11.961  11.773  0.2506 -1.6724 -0.0068
41933SOL     OW34576   2.211  11.409   8.603  0.5911 -0.2704 -0.2229
41933SOL    HW134577   2.285  11.465   8.624  0.6940  0.0431 -1.3794
41933SOL    HW234578   2.142  11.437   8.663  1.0454  0.2143  0.0784
41934SOL     OW34579   5.381   3.148   5.138 -0.1696  0.2337 -0.6403
41934SOL    HW134580   5.305   3.204   5.124  0.5477  0.7405 -3.0500
41934SOL    HW234581   5.456   3.202   5.112  1.2694  0.2756  3.0246
41935SOL     OW34582   8.495   3.266   3.699  0.0191  0.1934  0.1162
41935SOL    HW134583   8.547   3.217   3.762  0.5598 -0.5193 -0.8629
41935SOL    HW234584   8.528   3.355   3.704  1.2694 -0.2255 -0.4091
41936SOL     OW34585   6.774   5.722   4.925  0.0715  0.1628 -0.2904
41936SOL    HW134586   6.731   5.785   4.866 -0.3215 -0.0781 -0.2597
41936SOL    HW234587   6.801   5.775   5.000 -3.4147 -0.2539  1.4441
41937SOL     OW34588   8.436   1.941   3.862 -0.0571 -0.0604  0.5340
41937SOL    HW134589   8.528   1.945   3.889  0.0011  1.1380  0.1824
41937SOL    HW234590   8.404   2.031   3.869 -0.9504 -0.3033 -0.2363
41938SOL     OW34591   3.720   0.914   2.651  0.2331  0.3566  0.2063
41938SOL    HW134592   3.675   0.859   2.716  0.5073 -0.8382 -0.5836
41938SOL    HW234593   3.650   0.945   2.594  0.3793 -2.0571 -1.4348
41939SOL     OW34594  12.088   7.858   6.690 -0.3013  0.2131  0.6892
41939SOL    HW134595  12.160   7.865   6.628 -0.9591 -0.9763 -0.2492
41939SOL    HW234596  12.043   7.943   6.685 -0.2597  0.1811 -0.3532
41940SOL     OW34597   1.431   1.800  10.552 -0.0787 -0.4828  0.0987
41940SOL    HW134598   1.345   1.777  10.586 -0.1564 -0.1507  0.1237
41940SOL    HW234599   1.449   1.887  10.588  0.8389 -1.0845  1.1846
41941SOL     OW34600   8.369   5.138   8.869  0.6789  0.4274  0.0998
41941SOL    HW134601   8.399   5.074   8.805  2.6092  1.1525  0.2082
41941SOL    HW234602   8.274   5.141   8.858  0.6650 -1.5553 -0.7056
41942SOL     OW34603   0.844   9.302   7.436 -0.3037  0.3315  0.1645
41942SOL    HW134604   0.917   9.259   7.482 -0.5966  0.3307  0.6334
41942SOL    HW234605   0.887   9.355   7.369 -0.0076 -2.6653 -2.2100
41943SOL     OW34606   9.685   7.907   4.138 -0.5217 -0.0921  0.2790
41943SOL    HW134607   9.738   7.930   4.062 -1.1149 -0.1870 -0.1688
41943SOL    HW234608   9.744   7.855   4.193  0.1199  0.5533  0.2133
41944SOL     OW34609  11.795   6.958   0.003 -0.3501 -0.3102 -0.3325
41944SOL    HW134610  11.713   7.003   0.022 -0.9010 -1.8055  1.0588
41944SOL    HW234611  11.844   7.020  -0.052 -1.7889  1.2055  0.0039
41945SOL     OW34612   9.887   4.423   4.943  0.0719 -0.5438 -0.8096
41945SOL    HW134613   9.841   4.363   4.885  0.9643 -1.8689 -0.1829
41945SOL    HW234614   9.971   4.439   4.900  0.6825 -1.4269  0.0196
41946SOL     OW34615  10.576   9.020   7.274  0.1490 -0.2889 -0.5475
41946SOL    HW134616  10.631   9.069   7.335  0.6219 -0.8681 -0.4924
41946SOL    HW234617  10.629   9.014   7.194 -0.0191 -0.4610 -0.6463
41947SOL     OW34618   2.634   7.172  10.378 -0.4434 -0.4012 -0.5916
41947SOL    HW134619   2.714   7.201  10.334 -0.2831 -0.7343 -0.5235
41947SOL    HW234620   2.664   7.108  10.442 -0.8400 -1.0851 -1.0805
41948SOL     OW34621   0.850  12.235   5.054 -0.3797 -0.2372  0.6188
41948SOL    HW134622   0.824  12.228   4.962  3.0510 -2.6095 -0.3641
41948SOL    HW234623   0.911  12.309   5.057  1.3031 -1.5434  0.3684
41949SOL     OW34624   4.388   1.165   4.558  0.2795  0.2799 -0.0588
41949SOL    HW134625   4.441   1.235   4.520 -1.2691  1.0531 -0.9172
41949SOL    HW234626   4.400   1.091   4.499  2.3285 -0.4174  1.1300
41950SOL     OW34627  11.791  11.478   0.209  0.2937 -0.0164 -0.6255
41950SOL    HW134628  11.762  11.568   0.201  0.2072 -0.1904 -3.0935
41950SOL    HW234629  11.854  11.467   0.137  0.6969 -1.7617 -0.0560
41951SOL     OW34630   5.438   3.591   8.035  0.5916  0.3424 -0.3369
41951SOL    HW134631   5.440   3.626   7.946  0.9152 -0.6592 -0.7359
41951SOL    HW234632   5.503   3.644   8.083  0.7280  0.6007 -0.8006
41952SOL     OW34633  12.518   4.495   9.399  0.0527  0.5246 -0.1956
41952SOL    HW134634  12.603   4.499   9.443 -0.4888 -0.7216  1.0503
41952SOL    HW234635  12.525   4.420   9.340 -0.3299  0.0912  0.2957
41953SOL     OW34636   8.926   2.701  10.083  0.3790 -0.4016 -0.2901
41953SOL    HW134637   8.873   2.780  10.074  3.0041  1.5030 -0.2460
41953SOL    HW234638   8.939   2.692  10.178 -0.7993 -1.5901 -0.2102
41954SOL     OW34639   3.325   0.531   1.874 -0.1633  0.6195  0.1823
41954SOL    HW134640   3.304   0.549   1.783 -0.4688  0.1752  0.1656
41954SOL    HW234641   3.293   0.608   1.922 -1.5486  0.1059  0.1206
41955SOL     OW34642   1.568  11.465   4.776  0.5080  0.5892 -0.3302
41955SOL    HW134643   1.497  11.460   4.840  0.5637 -0.7412 -0.3515
41955SOL    HW234644   1.543  11.537   4.718  0.2893  1.5915  0.9741
41956SOL     OW34645  12.216   0.045   3.274 -0.4392  0.6470 -0.3183
41956SOL    HW134646  12.275   0.083   3.209  1.2659 -0.1496  0.6907
41956SOL    HW234647  12.258  -0.038   3.299 -1.6356  0.3845  0.9535
41957SOL     OW34648  10.168   3.113   7.441 -0.0571  0.1956 -0.2516
41957SOL    HW134649  10.111   3.190   7.438 -0.0661  0.2482  0.9720
41957SOL    HW234650  10.167   3.086   7.533 -0.8933 -1.8858 -0.8132
41958SOL     OW34651   4.008   5.673   0.111 -0.8063 -0.3743  0.2001
41958SOL    HW134652   4.028   5.727   0.188 -1.0327  0.3486 -0.2381
41958SOL    HW234653   3.993   5.737   0.041 -2.2237 -0.9804 -0.0611
41959SOL     OW34654  12.248   7.247   9.885  0.0206 -0.4089  0.8846
41959SOL    HW134655  12.291   7.262   9.969  1.4691 -0.3002  0.1448
41959SOL    HW234656  12.160   7.285   9.896 -0.1769 -1.2954  2.6588
41960SOL     OW34657   0.407   8.412  10.862 -0.3556  0.1122  0.5445
41960SOL    HW134658   0.346   8.428  10.790 -1.3133 -0.3392  1.2376
41960SOL    HW234659   0.477   8.361  10.823 -0.5856  0.3417 -0.1940
41961SOL     OW34660   9.449   0.150  10.344 -0.4066 -0.1541 -1.0457
41961SOL    HW134661   9.409   0.225  10.300  1.6594  0.4590 -1.9562
41961SOL    HW234662   9.540   0.150  10.316  0.0793 -2.0029  0.2984
41962SOL     OW34663   4.686   6.835   8.005  0.1047  0.3364  0.1069
41962SOL    HW134664   4.666   6.920   8.044  2.5993  0.5279  1.0998
41962SOL    HW234665   4.719   6.782   8.077 -0.6776 -1.2644 -0.6535
41963SOL     OW34666   0.348   7.016   0.523  0.0627 -0.5095  0.6473
41963SOL    HW134667   0.363   6.926   0.550  0.7018 -0.5436  0.2088
41963SOL    HW234668   0.253   7.025   0.519 -0.0400 -1.9087 -1.6718
41964SOL     OW34669   5.753   3.734   4.079  0.1097 -0.5709  0.1341
41964SOL    HW134670   5.672   3.683   4.078  1.9191 -3.7083 -0.5502
41964SOL    HW234671   5.765   3.758   4.171 -0.9143 -1.2245  0.4533
41965SOL     OW34672  12.422   7.968   4.993 -0.7596  0.3850 -0.2606
41965SOL    HW134673  12.493   8.009   4.942  1.4319 -1.6250  0.9670
41965SOL    HW234674  12.365   7.929   4.926 -0.5007  1.6567 -1.2738
41966SOL     OW34675   1.098   0.322   7.332 -0.2564  0.6325 -0.7500
41966SOL    HW134676   1.077   0.384   7.402 -2.1073 -0.4938 -0.2314
41966SOL    HW234677   1.171   0.271   7.367 -0.3107  0.9290 -0.1826
41967SOL     OW34678   0.459   5.639   3.728  0.5525  0.2521 -0.2185
41967SOL    HW134679   0.480   5.580   3.657  0.3947 -0.7801  0.5719
41967SOL    HW234680   0.478   5.589   3.808 -1.1699  0.6574  0.4855
41968SOL     OW34681  11.713  12.388   3.457  0.4290 -0.3500 -0.0817
41968SOL    HW134682  11.712  12.294   3.437  1.7680 -0.1474 -1.2600
41968SOL    HW234683  11.636  12.401   3.512 -2.5617 -1.3772 -3.5854
41969SOL     OW34684   6.382   0.474  11.108  0.2981  0.1444  0.2747
41969SOL    HW134685   6.365   0.524  11.188 -0.7159  2.2833 -1.1998
41969SOL    HW234686   6.462   0.513  11.072  1.5868 -1.7582  0.8956
41970SOL     OW34687   8.005   4.332   2.155 -0.4106 -0.4959 -0.0785
41970SOL    HW134688   7.962   4.303   2.236 -0.1852 -0.7150 -0.0358
41970SOL    HW234689   7.960   4.412   2.131  1.3187  1.1279  1.7729
41971SOL     OW34690  11.813   2.861   8.970  0.4552  0.2817  0.8026
41971SOL    HW134691  11.903   2.845   8.939 -0.2057 -2.6430  0.0257
41971SOL    HW234692  11.822   2.874   9.064  1.7117 -0.0844  0.7524
41972SOL     OW34693   7.828   8.061   1.182 -0.4521 -0.4525 -0.4491
41972SOL    HW134694   7.825   8.156   1.189 -0.4442 -0.5884  2.7645
41972SOL    HW234695   7.890   8.044   1.111 -1.4105  1.8841 -1.9594
41973SOL     OW34696  12.519   4.687   3.863  0.2693 -0.5338 -0.3761
41973SOL    HW134697  12.552   4.754   3.803  0.6203 -0.2835  0.1011
41973SOL    HW234698  12.430   4.670   3.832 -0.1527  0.7978  0.0358
41974SOL     OW34699   3.834   5.224  11.659  0.1658 -0.4170  0.0471
41974SOL    HW134700   3.877   5.309  11.654 -1.3270  0.3189 -0.7481
41974SOL    HW234701   3.850   5.194  11.749  2.3957 -0.2494 -0.2319
41975SOL     OW34702   3.918   7.572   5.028  0.0566  0.1588  0.2062
41975SOL    HW134703   3.929   7.535   4.940  1.4264  0.7151  0.1111
41975SOL    HW234704   3.911   7.496   5.085 -2.1683 -0.2263 -0.4927
41976SOL     OW34705   7.384  11.794   0.075 -0.0434  0.1679  0.0684
41976SOL    HW134706   7.444  11.742   0.022 -0.6560  1.5329 -2.0986
41976SOL    HW234707   7.305  11.801   0.022 -1.7484 -0.6048  2.3454
41977SOL     OW34708  10.954   4.805  11.478 -0.1303  0.0099  0.0630
41977SOL    HW134709  10.894   4.731  11.475  0.0365 -0.1225  0.0116
41977SOL    HW234710  10.901   4.878  11.510 -0.6989  0.2650 -1.3857
41978SOL     OW34711   6.550   3.592   7.867  0.5754  0.0587  0.0713
41978SOL    HW134712   6.598   3.577   7.786  1.6912 -1.9982  1.0381
41978SOL    HW234713   6.618   3.603   7.933 -0.3139  0.6691  0.9196
41979SOL     OW34714  10.293   6.579   9.714  0.3615  0.2230 -0.1223
41979SOL    HW134715  10.250   6.654   9.673 -0.0346  0.7498  1.2176
41979SOL    HW234716  10.226   6.540   9.770  1.6395  1.2725  2.3004
41980SOL     OW34717   9.738   2.058  10.468 -0.4082  0.2017  0.1309
41980SOL    HW134718   9.653   2.036  10.430 -0.3766 -1.0078  0.7053
41980SOL    HW234719   9.748   1.996  10.540 -0.0187  1.7671  1.4789
41981SOL     OW34720   8.376   1.413   4.640 -0.0758  0.4540 -0.0643
41981SOL    HW134721   8.315   1.458   4.582 -0.5102 -0.8709 -0.6633
41981SOL    HW234722   8.382   1.470   4.717 -0.8862  1.3423 -0.6428
41982SOL     OW34723   3.042   8.075   2.828  0.5716  0.5388  0.0339
41982SOL    HW134724   2.976   8.060   2.895 -0.1741 -0.1455 -0.8334
41982SOL    HW234725   2.993   8.081   2.746  1.7002 -2.3868 -0.9790
41983SOL     OW34726   6.123   8.209   1.885 -0.6936 -0.0763 -0.3308
41983SOL    HW134727   6.132   8.304   1.891  1.1629 -0.1329 -1.3839
41983SOL    HW234728   6.120   8.191   1.791 -0.9979 -1.0505 -0.1439
41984SOL     OW34729   9.284   2.419   2.470  0.1071 -0.0047 -0.3742
41984SOL    HW134730   9.351   2.455   2.412  2.8981 -2.1495  1.2264
41984SOL    HW234731   9.293   2.324   2.460 -1.2580 -0.3732  1.4486
41985SOL     OW34732   0.434  12.191   0.618 -0.0867 -0.4471  0.9749
41985SOL    HW134733   0.423  12.101   0.651  0.5158 -0.7807  0.2819
41985SOL    HW234734   0.371  12.242   0.669 -0.6697 -1.3145  1.1549
41986SOL     OW34735   7.959  12.183   5.342  0.0284  0.4542  0.4200
41986SOL    HW134736   7.907  12.262   5.355 -0.4672  0.1948  0.0648
41986SOL    HW234737   8.005  12.197   5.260  1.9339  1.4336  1.6002
41987SOL     OW34738   6.979  11.876   6.365  0.2027  0.3804 -0.3717
41987SOL    HW134739   7.021  11.924   6.437 -2.2018  0.4611  1.0818
41987SOL    HW234740   6.891  11.857   6.397  0.4653 -3.6313 -1.5337
41988SOL     OW34741   8.844   4.522   6.075 -0.1243 -0.2223 -0.0389
41988SOL    HW134742   8.918   4.515   6.015  0.2233 -1.3786  0.4977
41988SOL    HW234743   8.786   4.586   6.033  1.0730  0.5679 -0.5597
41989SOL     OW34744   7.244  12.013   3.331 -0.2821  0.1513 -0.1359
41989SOL    HW134745   7.250  11.955   3.255 -0.1689  2.0313 -1.6415
41989SOL    HW234746   7.155  11.999   3.365 -0.0357 -1.3493 -0.0373
41990SOL     OW34747   6.415   8.469   8.360 -0.0972  0.2334 -0.2424
41990SOL    HW134748   6.425   8.466   8.455  1.4257 -1.1518 -0.3880
41990SOL    HW234749   6.495   8.428   8.327 -2.1729 -2.8288 -2.0126
41991SOL     OW34750   1.219   5.349   2.208  0.2537  0.3607 -0.2030
41991SOL    HW134751   1.159   5.282   2.173  1.3117 -0.1022 -1.2086
41991SOL    HW234752   1.191   5.361   2.299 -0.1861 -1.2139 -0.0944
41992SOL     OW34753   1.350   0.390   0.005  0.3310 -0.5319 -0.3812
41992SOL    HW134754   1.291   0.423  -0.063 -0.9953 -2.1335 -0.0714
41992SOL    HW234755   1.348   0.457   0.073 -1.0568 -0.4982 -0.4369
41993SOL     OW34756   5.331   4.408  10.049  0.4750  0.2902 -0.0748
41993SOL    HW134757   5.306   4.434   9.960 -1.0879  3.4901  1.1018
41993SOL    HW234758   5.408   4.461  10.068  0.5336 -0.0409  0.6282
41994SOL     OW34759   9.829  10.569   3.680 -0.2383 -0.7722  0.1426
41994SOL    HW134760   9.818  10.516   3.600  0.7337 -1.3728  0.3865
41994SOL    HW234761   9.910  10.537   3.719 -0.0864  0.3211  0.7698
41995SOL     OW34762   1.335   5.458   7.665 -0.0944  0.0477  0.3520
41995SOL    HW134763   1.288   5.392   7.615  0.2492 -0.8003  1.1371
41995SOL    HW234764   1.330   5.537   7.610 -0.0477 -0.7548 -0.8375
41996SOL     OW34765   5.104   2.633   4.158  0.6175  0.6980 -0.6380
41996SOL    HW134766   5.148   2.707   4.200  2.0733 -1.1238  1.2650
41996SOL    HW234767   5.163   2.608   4.087  0.5262  0.8832 -0.7787
41997SOL     OW34768  11.820   4.056   2.188 -0.0319  0.0818 -0.0120
41997SOL    HW134769  11.850   4.147   2.195 -0.2987  0.0983  1.2047
41997SOL    HW234770  11.847   4.016   2.271 -0.2806 -0.8435 -0.3642
41998SOL     OW34771   4.500   8.180   0.104  0.0476 -0.4691  0.6340
41998SOL    HW134772   4.573   8.183   0.166  0.1610 -1.1765  0.5467
41998SOL    HW234773   4.431   8.134   0.151 -0.3834  0.2800  0.7495
41999SOL     OW34774   1.598   9.073  11.804 -0.0517  0.6214 -0.0439
41999SOL    HW134775   1.671   9.130  11.826  0.9333 -0.1771 -1.1004
41999SOL    HW234776   1.526   9.104  11.858  0.2882  3.1758 -0.9594
42000SOL     OW34777   5.359   7.693   7.589 -0.0392  0.0521  0.0720
42000SOL    HW134778   5.376   7.782   7.558 -0.4681  0.1453  0.1042
42000SOL    HW234779   5.328   7.704   7.679 -3.3770  0.1489 -0.9727
42001SOL     OW34780   9.743   9.232   6.087  0.3960  0.6751 -0.6540
42001SOL    HW134781   9.751   9.297   6.017  2.2554 -0.3942 -1.4772
42001SOL    HW234782   9.776   9.151   6.049  0.5509 -0.1603  1.1743
42002SOL     OW34783   4.320   8.838  11.469  0.6614 -0.6768 -0.3343
42002SOL    HW134784   4.230   8.816  11.494  0.6908 -0.1221  0.2807
42002SOL    HW234785   4.368   8.755  11.476  0.5905 -0.6191  1.1238
42003SOL     OW34786   5.898   8.948   6.340 -0.2129 -0.0768 -0.1217
42003SOL    HW134787   5.815   8.991   6.361  0.4241  0.9211  0.4323
42003SOL    HW234788   5.945   9.011   6.286 -0.0451 -0.8830 -0.9499
42004SOL     OW34789   4.859   4.349   8.323 -0.0714 -0.2252 -0.2760
42004SOL    HW134790   4.810   4.316   8.398 -0.2125  0.8005  0.1022
42004SOL    HW234791   4.810   4.426   8.294 -0.1235 -0.7075 -1.5500
42005SOL     OW34792   3.679   4.780   4.916 -0.3135  0.5625 -0.4629
42005SOL    HW134793   3.767   4.744   4.929 -0.4254  0.1819 -0.7524
42005SOL    HW234794   3.628   4.744   4.989 -0.4845 -0.0629 -0.8904
42006SOL     OW34795   5.789   6.214   5.407  0.3429 -0.1322  0.0057
42006SOL    HW134796   5.732   6.282   5.372  0.6486 -0.8158 -1.9120
42006SOL    HW234797   5.732   6.138   5.420 -0.2343  0.6945  3.1704
42007SOL     OW34798   2.144   8.010   3.145 -0.0480 -0.8691 -0.2439
42007SOL    HW134799   2.155   8.067   3.069 -1.9564  2.2134  1.5853
42007SOL    HW234800   2.231   8.004   3.184  0.5642 -0.9039 -1.5646
42008SOL     OW34801   5.746   8.854   4.876 -0.0514  0.2265  0.2165
42008SOL    HW134802   5.698   8.818   4.802  0.0565  0.8286 -0.1541
42008SOL    HW234803   5.713   8.943   4.885  1.4925  0.9238 -0.5170
42009SOL     OW34804   0.724   8.724  11.340 -0.1001  0.0238  0.0415
42009SOL    HW134805   0.769   8.767  11.413  0.5599 -0.5256 -0.0349
42009SOL    HW234806   0.631   8.726  11.365  0.1393 -0.3770  1.0209
42010SOL     OW34807  11.425  12.563   8.361  0.1772  0.4441 -0.0333
42010SOL    HW134808  11.440  12.556   8.455  0.0056 -0.7451 -0.0721
42010SOL    HW234809  11.443  12.654   8.340 -1.1847  1.0997  1.4004
42011SOL     OW34810   0.502   1.479  11.097 -0.0458  0.0953  0.5436
42011SOL    HW134811   0.579   1.472  11.041 -0.7230  0.2454 -0.4241
42011SOL    HW234812   0.533   1.524  11.175  0.9617 -0.3138  0.3918
42012SOL     OW34813   1.334   5.549  10.249  0.0215 -0.0148  0.1314
42012SOL    HW134814   1.353   5.608  10.176 -1.0412 -0.9237 -0.9125
42012SOL    HW234815   1.247   5.514  10.230  0.1842 -1.1089  1.2772
42013SOL     OW34816   1.039  11.030   9.630 -0.1791  0.0253  0.0856
42013SOL    HW134817   0.971  11.075   9.580  0.4557  0.8523 -0.0499
42013SOL    HW234818   1.064  10.956   9.575 -0.1366  0.4013 -0.4059
42014SOL     OW34819   9.837   6.954   0.546  0.0763 -0.1117  0.5660
42014SOL    HW134820   9.871   7.000   0.623 -0.8431 -2.3863  2.4489
42014SOL    HW234821   9.744   6.976   0.543 -0.0416 -0.5975  0.5497
42015SOL     OW34822   9.038   7.315   2.045  0.3452  0.4467 -0.1487
42015SOL    HW134823   9.111   7.368   2.077  1.5954 -1.2252 -0.1542
42015SOL    HW234824   9.066   7.284   1.959 -0.8118  0.5863 -0.6005
42016SOL     OW34825   1.237  11.186   7.860  0.2549 -0.1080 -0.1260
42016SOL    HW134826   1.303  11.171   7.793  0.1398  1.0129 -0.5197
42016SOL    HW234827   1.154  11.166   7.817 -0.0312  2.6433 -1.0997
42017SOL     OW34828  11.996   8.983   4.416  0.6251  0.2061  0.2644
42017SOL    HW134829  12.046   8.978   4.497  0.5147 -0.2759  0.3070
42017SOL    HW234830  11.986   9.077   4.400  3.3976  0.3823 -0.9109
42018SOL     OW34831   2.263   6.318   8.388 -0.2773 -0.0620 -0.0894
42018SOL    HW134832   2.337   6.377   8.403 -1.5622  1.3501  1.1015
42018SOL    HW234833   2.283   6.274   8.305  0.5306  2.4292 -1.3191
42019SOL     OW34834   0.982   5.799   9.962 -0.2179  0.2556 -0.0963
42019SOL    HW134835   1.063   5.811  10.011  0.2005 -1.0965 -0.4135
42019SOL    HW234836   0.944   5.719   9.997 -1.1621  0.5997 -0.3070
42020SOL     OW34837   6.548   3.298  10.598 -0.3851 -0.2467 -0.0478
42020SOL    HW134838   6.619   3.235  10.592  0.0603  0.2592 -0.1487
42020SOL    HW234839   6.586   3.381  10.569 -0.7268  0.2595  0.9194
42021SOL     OW34840   5.646   8.229   7.858  0.4472 -0.1869 -0.0878
42021SOL    HW134841   5.675   8.161   7.797 -0.9720 -0.3668 -0.5999
42021SOL    HW234842   5.567   8.194   7.898  0.4176  0.6341  0.6051
42022SOL     OW34843  10.972   4.023   1.042  0.2494 -0.1517  0.4396
42022SOL    HW134844  10.881   4.053   1.042  0.4730  1.2888 -4.0561
42022SOL    HW234845  10.966   3.928   1.035 -0.8453 -0.1283  0.7752
42023SOL     OW34846  11.309   5.387   2.850 -0.5145 -0.3282  0.7214
42023SOL    HW134847  11.257   5.307   2.862 -0.1409 -0.7514 -0.3865
42023SOL    HW234848  11.252   5.445   2.798 -0.0002 -0.6998 -0.2838
42024SOL     OW34849   6.417   4.452   0.926 -0.0662  0.5733  0.2374
42024SOL    HW134850   6.400   4.367   0.966  1.6131 -0.9322 -1.9837
42024SOL    HW234851   6.478   4.495   0.986 -1.5976  0.6456  1.8094
42025SOL     OW34852   4.504   2.251   2.798 -0.0632  0.0681 -0.1095
42025SOL    HW134853   4.431   2.284   2.746 -1.0749  0.5569  1.5415
42025SOL    HW234854   4.565   2.324   2.804 -0.3937  0.3288  0.1532
42026SOL     OW34855   7.377   8.672   2.254 -0.2550 -0.0581 -0.3862
42026SOL    HW134856   7.468   8.675   2.224 -0.4153 -0.1273 -0.8840
42026SOL    HW234857   7.349   8.582   2.239 -0.6256  0.1393 -0.8917
42027SOL     OW34858   4.952   5.459   5.031 -0.1368  0.4038  0.4111
42027SOL    HW134859   4.908   5.406   4.965 -0.3145 -0.3071  1.0965
42027SOL    HW234860   4.883   5.516   5.066 -0.4561 -0.4855  1.2571
42028SOL     OW34861   3.708  10.944   1.444 -0.2917  0.4101  0.6049
42028SOL    HW134862   3.771  10.886   1.487 -0.3637  0.8575  1.3345
42028SOL    HW234863   3.627  10.931   1.493 -0.4530  0.7093  0.4143
42029SOL     OW34864   7.897   6.058   5.645  0.2668 -0.2317  0.3181
42029SOL    HW134865   7.927   6.113   5.716  0.6476 -0.3267  0.2305
42029SOL    HW234866   7.896   5.969   5.681 -2.4662  0.0430  1.1747
42030SOL     OW34867   5.805   5.772  11.018 -0.1887 -0.2958 -0.0249
42030SOL    HW134868   5.796   5.865  10.995 -0.3181  0.0304  1.2771
42030SOL    HW234869   5.883   5.744  10.971  0.0909  0.5888 -0.1199
42031SOL     OW34870   8.248   2.138   3.946 -0.1211  0.5335  0.2244
42031SOL    HW134871   8.189   2.151   4.021  0.8185  0.2691  1.0317
42031SOL    HW234872   8.300   2.219   3.943  0.1446  0.3602  0.1391
42032SOL     OW34873   6.907   8.431   7.521  0.1443 -0.1908  0.1530
42032SOL    HW134874   6.935   8.480   7.444  2.1639 -0.0397  0.9295
42032SOL    HW234875   6.960   8.351   7.519 -1.5172 -1.3396  0.1069
42033SOL     OW34876   2.785   1.088  12.188  0.6224 -0.3372  0.0913
42033SOL    HW134877   2.863   1.032  12.195  0.5440 -0.4890 -0.2082
42033SOL    HW234878   2.814   1.173  12.219  0.4508 -0.8094  1.6230
42034SOL     OW34879   6.496   4.087  10.909  0.6447 -0.5226  0.3396
42034SOL    HW134880   6.405   4.061  10.924  0.8723 -1.2834  0.4333
42034SOL    HW234881   6.526   4.118  10.995  0.1916  0.6700  0.0933
42035SOL     OW34882   8.147   7.008   7.786 -0.0247  0.0262 -0.0464
42035SOL    HW134883   8.095   7.024   7.707  0.0583  0.8984  0.0607
42035SOL    HW234884   8.169   6.915   7.782 -0.2903 -0.0126 -0.8879
42036SOL     OW34885   1.703   4.757   2.462 -0.4591  0.0940 -0.2034
42036SOL    HW134886   1.651   4.727   2.536 -1.2004  1.7703 -0.0071
42036SOL    HW234887   1.791   4.722   2.479 -0.5982  0.4921  1.5122
42037SOL     OW34888  11.938  12.447   0.973  0.3808 -0.1281  0.2369
42037SOL    HW134889  11.940  12.362   1.017  0.2876 -0.5386 -0.5348
42037SOL    HW234890  12.023  12.453   0.929  0.5577  0.3714  0.6404
42038SOL     OW34891   1.544   3.762   7.508  0.1454 -0.3264  0.1434
42038SOL    HW134892   1.568   3.812   7.586  1.4537  0.4788 -0.7272
42038SOL    HW234893   1.596   3.682   7.514  1.8884  0.6523 -0.8764
42039SOL     OW34894   7.271   8.981   9.707  0.2673 -0.0560 -0.3736
42039SOL    HW134895   7.240   8.994   9.618 -0.9480 -2.6188 -0.3915
42039SOL    HW234896   7.262   9.068   9.748 -0.6427  0.8022 -2.2755
42040SOL     OW34897  12.183   4.583   7.864  0.2519  0.2072  0.1430
42040SOL    HW134898  12.151   4.519   7.928  1.5433  0.2140  0.8189
42040SOL    HW234899  12.278   4.576   7.868  0.4142  1.8980 -0.0498
42041SOL     OW34900   6.122   2.336   8.737  0.3871 -0.2140  0.0742
42041SOL    HW134901   6.042   2.359   8.784  0.3128 -0.2609 -0.0267
42041SOL    HW234902   6.133   2.406   8.673  0.5074 -0.1311  0.1864
42042SOL     OW34903   2.678   8.879  12.191  0.5514  0.3463  0.0413
42042SOL    HW134904   2.612   8.878  12.121  0.5328  0.0732  0.0626
42042SOL    HW234905   2.629   8.905  12.269  0.2610 -0.8007  0.2611
42043SOL     OW34906   7.113  11.419  12.208  0.2842  0.2049  0.4653
42043SOL    HW134907   7.038  11.401  12.263  0.4809 -2.1265  0.1037
42043SOL    HW234908   7.189  11.398  12.263  0.6399  1.2619  0.4042
42044SOL     OW34909   5.745   3.578   9.054 -0.1410  0.5278  0.1508
42044SOL    HW134910   5.700   3.661   9.038  0.8470  0.9051 -0.7859
42044SOL    HW234911   5.813   3.574   8.987 -1.8163 -2.2991 -1.5676
42045SOL     OW34912  11.038   3.605   2.846 -0.0121 -0.3956  0.5830
42045SOL    HW134913  10.955   3.601   2.894 -0.5621  0.3103 -0.2775
42045SOL    HW234914  11.095   3.656   2.903 -0.9363  1.2159  0.1526
42046SOL     OW34915   6.066   2.927   4.255 -0.5693 -0.1657  0.3459
42046SOL    HW134916   6.076   2.895   4.165  1.8421  1.7283 -0.1472
42046SOL    HW234917   6.067   2.847   4.308  3.3060 -1.1929 -0.9477
42047SOL     OW34918  12.375   5.590   2.126  0.1129  0.4415  0.7040
42047SOL    HW134919  12.405   5.566   2.038 -1.4247  1.6365 -0.2132
42047SOL    HW234920  12.355   5.507   2.168 -0.9507 -0.1076 -0.7951
42048SOL     OW34921  11.235   2.526   4.689  0.0157 -0.1307  0.5917
42048SOL    HW134922  11.259   2.442   4.728 -0.0185  0.0350  0.9763
42048SOL    HW234923  11.153   2.508   4.644  0.4737 -0.5227 -0.1093
42049SOL     OW34924   1.381   6.203  10.655 -0.3088  0.3696 -0.2433
42049SOL    HW134925   1.451   6.267  10.641 -1.5897  1.7610 -0.5492
42049SOL    HW234926   1.412   6.150  10.729 -0.0625  2.6481  1.3872
42050SOL     OW34927   1.130  12.167   4.703 -0.2201  0.4717 -0.5300
42050SOL    HW134928   1.088  12.198   4.622 -0.4043  2.1187  0.1448
42050SOL    HW234929   1.092  12.081   4.719 -0.0250  0.0171 -2.2927
42051SOL     OW34930   0.991   2.720   2.334 -0.2695 -0.3945  0.3749
42051SOL    HW134931   1.006   2.705   2.241  1.9347  1.2596  0.3706
42051SOL    HW234932   1.028   2.643   2.377 -0.1558 -0.5976 -0.0793
42052SOL     OW34933   2.945   4.053   1.995  0.5374 -0.0267 -0.0908
42052SOL    HW134934   2.897   4.082   1.917 -2.6450 -0.1723  1.6368
42052SOL    HW234935   2.957   4.133   2.046  0.1151 -0.3157  0.4732
42053SOL     OW34936   9.154   3.382   8.579  0.0478 -0.2288 -0.8173
42053SOL    HW134937   9.167   3.397   8.673  2.6419 -1.1560 -0.9527
42053SOL    HW234938   9.091   3.448   8.553  0.4228  1.0524  1.2851
42054SOL     OW34939   8.191   0.547  12.292  0.8624  0.4464 -0.0050
42054SOL    HW134940   8.122   0.541  12.225  0.9439  0.8316 -0.1233
42054SOL    HW234941   8.214   0.640  12.295 -1.2390  1.0201  2.7031
42055SOL     OW34942   2.467  11.995   4.271 -0.4065  0.7201  0.3209
42055SOL    HW134943   2.514  11.956   4.345 -0.6521 -0.9566 -0.3746
42055SOL    HW234944   2.381  12.017   4.307 -1.3046 -2.0822  0.0830
42056SOL     OW34945   4.034   3.670   7.805  0.5612 -0.0249  0.6172
42056SOL    HW134946   4.097   3.629   7.745  0.8302  0.1291  0.7939
42056SOL    HW234947   4.071   3.656   7.892 -1.0709 -2.4755  0.9989
42057SOL     OW34948  11.491  11.304  10.003 -0.2937  0.4250  0.3935
42057SOL    HW134949  11.496  11.371   9.934  1.1273 -0.7850 -0.7694
42057SOL    HW234950  11.513  11.351  10.083  0.6190  1.3803 -0.3801
42058SOL     OW34951   5.175   7.111  10.045  0.5854 -0.4853  0.1027
42058SOL    HW134952   5.125   7.191  10.063  1.3954  0.3942 -1.3692
42058SOL    HW234953   5.257   7.123  10.093  0.9162 -0.1806 -0.5263
42059SOL     OW34954   5.784   1.263  10.480 -0.1452 -0.0346 -0.7008
42059SOL    HW134955   5.750   1.350  10.504 -1.0162 -0.1896 -1.3120
42059SOL    HW234956   5.873   1.261  10.515 -0.2078  1.0090 -0.4537
42060SOL     OW34957   7.411   6.401   6.325  0.0591 -0.1346 -0.6221
42060SOL    HW134958   7.501   6.376   6.306  0.2889  1.6137 -2.1884
42060SOL    HW234959   7.382   6.446   6.245 -2.2203 -0.6915 -0.1751
42061SOL     OW34960   8.884  10.099  11.716 -0.3716  0.1062  0.4546
42061SOL    HW134961   8.949  10.161  11.682 -0.0307 -0.3706  0.2231
42061SOL    HW234962   8.925  10.013  11.705 -1.6611 -0.3441 -1.1325
42062SOL     OW34963  11.170   4.906   4.931 -0.1641 -0.4461 -0.2615
42062SOL    HW134964  11.189   4.938   4.843 -1.1895 -0.5741 -0.5313
42062SOL    HW234965  11.254   4.870   4.961  1.3751  3.1525  0.3957
42063SOL     OW34966  11.515   9.254   0.632 -0.0189 -0.8051 -0.5634
42063SOL    HW134967  11.513   9.249   0.728  0.4984 -0.7289 -0.5449
42063SOL    HW234968  11.431   9.219   0.604 -0.9632  0.8704  0.0010
42064SOL     OW34969   9.785   6.665   0.900 -0.0566  0.3304  0.5857
42064SOL    HW134970   9.804   6.685   0.809 -0.7385 -2.4780 -0.2887
42064SOL    HW234971   9.866   6.685   0.947  0.8327  0.3710 -0.9086
42065SOL     OW34972   0.728   6.341   9.852  0.7678 -0.3412  0.0307
42065SOL    HW134973   0.659   6.407   9.855  2.1194  1.2092 -1.1545
42065SOL    HW234974   0.721   6.296   9.937 -1.4309 -0.0157  0.0795
42066SOL     OW34975   4.068   8.842  11.551  0.0373  0.1069 -0.3505
42066SOL    HW134976   3.993   8.799  11.590 -0.0938  0.6110 -0.0308
42066SOL    HW234977   4.035   8.928  11.524  0.8323  0.9295  1.1531
42067SOL     OW34978  10.436  12.498  10.493 -0.4167  0.1231 -0.2982
42067SOL    HW134979  10.520  12.460  10.517 -0.2733  1.5071  1.5439
42067SOL    HW234980  10.372  12.451  10.546 -0.3437  1.6736  1.2411
42068SOL     OW34981  11.170   9.913   0.470 -0.3687 -0.2510 -0.0217
42068SOL    HW134982  11.127   9.980   0.417 -1.1717  0.3363  1.3098
42068SOL    HW234983  11.208   9.853   0.406  0.7945  1.6899 -1.2800
42069SOL     OW34984   2.945   6.238   4.618  0.2113  0.0358  0.3422
42069SOL    HW134985   2.911   6.175   4.682 -1.9237 -0.0022 -0.7428
42069SOL    HW234986   2.921   6.201   4.533 -0.6540  2.0210 -0.3497
42070SOL     OW34987   4.432   1.247   8.221  0.4800 -0.0718 -1.0087
42070SOL    HW134988   4.499   1.185   8.250  2.1074  1.1518 -2.0105
42070SOL    HW234989   4.474   1.297   8.151 -0.7932  2.1114 -0.3057
42071SOL     OW34990   9.624  12.213   0.060 -0.6684 -0.7221 -0.4302
42071SOL    HW134991   9.536  12.247   0.048 -0.5323 -0.7734 -1.8117
42071SOL    HW234992   9.638  12.213   0.154 -0.6588  3.1647 -0.2456
42072SOL     OW34993   0.693   4.942   6.457  0.2115  0.0644 -0.1571
42072SOL    HW134994   0.740   4.860   6.443  0.5266  0.4208 -1.2879
42072SOL    HW234995   0.613   4.917   6.504  0.5726 -0.8122 -0.0044
42073SOL     OW34996   3.072   3.682   4.210 -0.4382  1.3932  0.4284
42073SOL    HW134997   3.141   3.722   4.157  0.1903  0.1884  0.2997
42073SOL    HW234998   3.099   3.590   4.220 -1.1209  1.3183  1.8784
42074SOL     OW34999   7.663  10.571   1.547 -0.0332  0.0734 -0.1917
42074SOL    HW135000   7.689  10.498   1.602 -1.7634 -2.1632 -2.1430
42074SOL    HW235001   7.688  10.545   1.458 -0.3766  2.0375 -0.9356
42075SOL     OW35002   5.183   7.146  11.506 -0.3776 -0.0522  0.3922
42075SOL    HW135003   5.206   7.145  11.413  0.2802  1.8867  0.4956
42075SOL    HW235004   5.239   7.213  11.544 -1.4750  0.0229  1.9648
42076SOL     OW35005   9.812  10.824  11.776 -0.0800  0.3905  0.0266
42076SOL    HW135006   9.778  10.804  11.863 -0.6380 -0.2374 -0.3269
42076SOL    HW235007   9.778  10.754  11.720  0.0535  0.9313 -0.7479
42077SOL     OW35008   9.315   1.510  10.452  0.6432 -0.4917  0.0729
42077SOL    HW135009   9.303   1.578  10.518 -0.6607 -1.5383  0.9652
42077SOL    HW235010   9.376   1.448  10.492  1.8410  0.1183 -0.7431
42078SOL     OW35011   2.986   2.042   9.389  0.4833  0.1967  0.4445
42078SOL    HW135012   2.958   2.112   9.330 -0.3389 -0.9916 -0.6500
42078SOL    HW235013   3.060   2.079   9.436 -0.5234  2.1297  0.6236
42079SOL     OW35014   2.748   7.159  10.803 -0.1700  0.0047  0.4311
42079SOL    HW135015   2.819   7.118  10.754  1.0466  1.7378  0.6865
42079SOL    HW235016   2.774   7.250  10.813 -1.1854  0.1146  2.8130
42080SOL     OW35017   6.938   2.679   9.021  0.4141 -0.4087 -0.1972
42080SOL    HW135018   6.873   2.609   9.020 -0.2061  0.1635 -0.7102
42080SOL    HW235019   6.892   2.753   9.061  0.2812  0.4204 -1.8207
42081SOL     OW35020  10.888   8.315   1.985  0.1121  0.3244 -0.1795
42081SOL    HW135021  10.875   8.342   1.894 -1.3571  1.8536  0.4206
42081SOL    HW235022  10.976   8.278   1.987  0.6767  1.4179 -1.9694
42082SOL     OW35023   5.321  11.513   2.039 -0.4389 -0.4209 -0.0174
42082SOL    HW135024   5.325  11.603   2.074  0.1021  0.2434 -1.6833
42082SOL    HW235025   5.228  11.492   2.038 -0.6408  0.4477 -0.3534
42083SOL     OW35026   9.228   5.429   3.528  0.2603 -0.2244 -0.4134
42083SOL    HW135027   9.257   5.493   3.463 -2.9010  0.6348 -1.1678
42083SOL    HW235028   9.179   5.364   3.478 -0.3620 -0.7554  0.8303
42084SOL     OW35029   5.652   1.558   4.659 -0.0356  0.2948  0.4249
42084SOL    HW135030   5.693   1.555   4.573  0.2291 -0.0273  0.5600
42084SOL    HW235031   5.718   1.523   4.719 -0.3200  0.2492  0.7183
42085SOL     OW35032   4.504  11.166   1.982  0.3842  0.8353 -0.2180
42085SOL    HW135033   4.507  11.214   1.899  1.4453 -0.1066 -0.7419
42085SOL    HW235034   4.437  11.212   2.033 -1.4131  0.5211 -2.1430
42086SOL     OW35035   3.748   7.301   1.408  0.2998 -0.0854 -0.1885
42086SOL    HW135036   3.774   7.271   1.496 -0.7897 -1.8376 -0.4110
42086SOL    HW235037   3.825   7.284   1.354  0.5774 -0.1001  0.2040
42087SOL     OW35038  12.378   0.375   2.001  0.3029  1.0368  0.7495
42087SOL    HW135039  12.296   0.336   2.029  0.1099 -0.2912 -1.4522
42087SOL    HW235040  12.354   0.434   1.930  0.9983  2.7292  1.8527
42088SOL     OW35041   3.807   4.451  10.468 -0.2691 -0.8996  0.1574
42088SOL    HW135042   3.713   4.449  10.452 -0.6489 -0.4651  2.0305
42088SOL    HW235043   3.835   4.359  10.464 -1.0543 -1.1843  0.9056
42089SOL     OW35044   3.923   5.242   4.272  0.2405 -0.5175  0.3886
42089SOL    HW135045   3.978   5.279   4.203 -2.4999  0.3458 -1.4990
42089SOL    HW235046   3.891   5.159   4.235 -0.8074 -0.3248  0.8313
42090SOL     OW35047  12.463   1.244  10.584 -0.3884  0.6194 -0.1852
42090SOL    HW135048  12.488   1.298  10.659  0.5194 -0.1440  0.0937
42090SOL    HW235049  12.513   1.281  10.510  3.1762 -1.9030  0.6802
42091SOL     OW35050  11.621   1.205   6.982  0.1044  0.4275  0.3445
42091SOL    HW135051  11.650   1.133   7.039  1.1556  1.4662  1.1666
42091SOL    HW235052  11.700   1.255   6.965 -0.7556  1.8894  0.5179
42092SOL     OW35053  10.147  11.199  10.753  0.1526 -0.6336 -0.4929
42092SOL    HW135054  10.096  11.272  10.717 -0.5198 -1.5255 -1.4072
42092SOL    HW235055  10.082  11.142  10.795  0.7456 -0.4077  0.7889
42093SOL     OW35056   0.980  11.050   3.092  0.4391 -0.0771  0.7512
42093SOL    HW135057   0.904  11.089   3.047 -0.5783 -0.2201  2.2819
42093SOL    HW235058   1.052  11.110   3.074  0.2277 -0.3971 -1.4949
42094SOL     OW35059  11.354   5.365   2.505  0.1983  0.0574 -0.6466
42094SOL    HW135060  11.307   5.448   2.515  2.1804  1.1326  0.3686
42094SOL    HW235061  11.288   5.298   2.525 -0.8800  1.4853  0.9485
42095SOL     OW35062  11.646   5.421   0.819 -0.2132 -1.2801 -0.5554
42095SOL    HW135063  11.658   5.329   0.839 -0.4335 -1.3946 -0.9360
42095SOL    HW235064  11.641   5.425   0.723  2.3328 -0.5779 -0.7282
42096SOL     OW35065   3.468  11.361   3.762 -0.9033 -0.3563 -0.3687
42096SOL    HW135066   3.445  11.451   3.738  0.9722  1.0400  2.5482
42096SOL    HW235067   3.394  11.331   3.815 -0.5925  0.2942  0.4490
42097SOL     OW35068   8.216   5.558   8.045 -0.1731  0.4307  0.0974
42097SOL    HW135069   8.198   5.516   7.961 -2.7536 -2.1540  1.7616
42097SOL    HW235070   8.312   5.568   8.047  0.5607 -4.1792 -1.1324
42098SOL     OW35071   1.792   2.609   8.828 -0.6577  0.2983  0.7799
42098SOL    HW135072   1.836   2.585   8.746 -0.2461  0.2468  1.0160
42098SOL    HW235073   1.703   2.630   8.801 -0.1461  1.7147  0.0851
42099SOL     OW35074   9.134   6.330   4.430  0.0771  0.4102 -0.2162
42099SOL    HW135075   9.085   6.368   4.357 -0.4370  0.0832 -0.0442
42099SOL    HW235076   9.185   6.259   4.390  0.8569  1.1214 -0.4961
42100SOL     OW35077   3.555   7.330   6.210 -0.6390 -0.0663 -0.4148
42100SOL    HW135078   3.491   7.259   6.198 -2.4684  0.8307  2.7766
42100SOL    HW235079   3.523   7.401   6.156 -0.5187 -0.6611 -1.2816
42101SOL     OW35080   8.339  12.330   3.005 -0.1654 -0.1121  0.1185
42101SOL    HW135081   8.415  12.312   2.949  1.8977  1.9482  2.0501
42101SOL    HW235082   8.309  12.243   3.033  1.7849 -0.9975 -0.3388
42102SOL     OW35083   1.883   5.782   1.049  0.2361 -0.0726 -0.0239
42102SOL    HW135084   1.973   5.751   1.049 -0.2887 -1.7288  1.2478
42102SOL    HW235085   1.881   5.852   1.114  0.2828 -1.1316  1.1404
42103SOL     OW35086  10.208   4.271   9.942  0.1056 -0.0497 -0.0858
42103SOL    HW135087  10.133   4.307   9.894 -0.0907  0.5042  0.6327
42103SOL    HW235088  10.200   4.306  10.030  0.6612 -0.7876  0.2681
42104SOL     OW35089  10.462   0.913   4.685 -0.1688  0.2757  0.0602
42104SOL    HW135090  10.556   0.930   4.682 -0.0153 -0.2113  1.2501
42104SOL    HW235091  10.437   0.933   4.775 -1.0807 -0.2056 -0.0701
42105SOL     OW35092   7.930   2.741   7.246  0.2092 -0.2420 -0.0930
42105SOL    HW135093   7.994   2.676   7.218  0.5116 -0.5960  1.3248
42105SOL    HW235094   7.982   2.809   7.288 -0.3118 -0.7374  1.4626
42106SOL     OW35095  11.692   7.752  10.813  0.0526 -0.2697 -0.5655
42106SOL    HW135096  11.653   7.746  10.726 -2.6105 -0.8926  0.5704
42106SOL    HW235097  11.671   7.668  10.855 -1.0506  0.9601  1.5092
42107SOL     OW35098   2.192   8.634  11.251 -0.1621 -0.5531 -0.2771
42107SOL    HW135099   2.189   8.629  11.156 -2.4748 -0.5024 -0.2474
42107SOL    HW235100   2.108   8.671  11.277  1.5405  2.3900  1.6590
42108SOL     OW35101   3.650   1.471  10.794 -0.0354 -0.2225  0.1370
42108SOL    HW135102   3.627   1.563  10.782 -0.0769 -0.2291  0.1665
42108SOL    HW235103   3.699   1.448  10.715 -2.0414 -0.8308 -0.9914
42109SOL     OW35104  11.863   7.462   7.892 -0.0428 -0.0864  0.2820
42109SOL    HW135105  11.851   7.555   7.872  2.4939  0.0349 -1.0140
42109SOL    HW235106  11.918   7.461   7.970  0.0829 -0.4915  0.1928
42110SOL     OW35107   5.315   2.319   7.686  0.0476 -0.0805 -0.3395
42110SOL    HW135108   5.318   2.403   7.732 -0.4727  0.0449 -0.5312
42110SOL    HW235109   5.233   2.279   7.714  0.5039 -0.7285  0.0937
42111SOL     OW35110   1.216   8.815   4.949 -0.3962 -0.0546  0.1094
42111SOL    HW135111   1.309   8.836   4.962 -0.2985 -0.3789 -0.0488
42111SOL    HW235112   1.171   8.862   5.018 -0.0734 -0.1992  0.4251
42112SOL     OW35113   6.651   0.408  12.382 -0.0259 -0.3190  0.1570
42112SOL    HW135114   6.603   0.360  12.450  0.0006  1.3780  1.4415
42112SOL    HW235115   6.609   0.383  12.300 -0.6153 -1.7780  0.8686
42113SOL     OW35116   4.105   0.743   0.557 -0.0465  0.1043 -0.1063
42113SOL    HW135117   4.158   0.811   0.516  1.1345  0.0749  1.2923
42113SOL    HW235118   4.014   0.770   0.542  0.2880 -0.1852 -3.1376
42114SOL     OW35119  12.468   1.271   0.276  0.0098 -0.6501  0.3865
42114SOL    HW135120  12.429   1.330   0.341  1.1228  0.2626  0.2459
42114SOL    HW235121  12.536   1.323   0.234  0.6613 -1.8727 -0.1120
42115SOL     OW35122   5.661   1.561   8.026 -0.0468  0.5049 -0.1603
42115SOL    HW135123   5.616   1.477   8.019  2.0689 -0.6599 -0.7808
42115SOL    HW235124   5.653   1.599   7.938 -0.6038  0.7483 -0.0087
42116SOL     OW35125   4.959  10.294   3.499  0.6802  0.3612 -0.1726
42116SOL    HW135126   4.878  10.340   3.520  0.8453  0.4143  0.3586
42116SOL    HW235127   4.997  10.345   3.428 -0.1064 -0.0821 -0.9361
42117SOL     OW35128   7.509   4.864   4.897  0.9543  0.9618  0.4669
42117SOL    HW135129   7.540   4.850   4.986 -3.0201 -1.3782  1.7114
42117SOL    HW235130   7.535   4.786   4.849  1.9492  1.6333 -0.1247
42118SOL     OW35131   3.805   8.610   8.329 -0.4024 -0.0485  0.4084
42118SOL    HW135132   3.712   8.619   8.309 -0.3004  1.2464  0.4673
42118SOL    HW235133   3.834   8.538   8.274 -1.4933 -0.6645  0.5946
42119SOL     OW35134   3.332   6.259   4.517 -0.0469 -0.0089  0.1909
42119SOL    HW135135   3.312   6.325   4.450 -0.7427 -1.0481 -0.6566
42119SOL    HW235136   3.304   6.299   4.599  1.4191  1.5545 -0.0106
42120SOL     OW35137   4.793   0.008   5.749  0.0095 -0.4943  0.6845
42120SOL    HW135138   4.829   0.070   5.686  0.9874 -1.7786 -0.0769
42120SOL    HW235139   4.714   0.050   5.782  1.2181  1.6607  1.0647
42121SOL     OW35140  11.359   3.409   7.411 -0.0849  0.3394  0.1984
42121SOL    HW135141  11.431   3.369   7.362 -0.5073 -1.9610  1.3188
42121SOL    HW235142  11.290   3.422   7.346  0.4474  0.2135 -0.3976
42122SOL     OW35143   8.644   0.951   8.710  0.4047 -0.0770 -0.0841
42122SOL    HW135144   8.569   0.920   8.760 -1.6357  2.0924 -1.5910
42122SOL    HW235145   8.696   1.001   8.772 -0.8947  0.7081  0.4079
42123SOL     OW35146   0.962   0.808   7.797  0.1817 -0.0216 -0.4739
42123SOL    HW135147   0.985   0.780   7.885  0.7408  0.3594 -0.4914
42123SOL    HW235148   0.892   0.873   7.810  0.5646  0.3579 -0.2770
42124SOL     OW35149   7.124   6.525  11.029  0.1846 -0.1642 -0.0089
42124SOL    HW135150   7.195   6.541  11.091 -0.4874  2.3164  0.2182
42124SOL    HW235151   7.069   6.459  11.073  0.2796  0.7628  1.5895
42125SOL     OW35152   6.945   4.923   6.695  0.3198 -0.4969 -0.2432
42125SOL    HW135153   7.006   4.984   6.653 -1.0195 -0.1834 -1.8908
42125SOL    HW235154   6.965   4.838   6.655 -0.5881 -0.3042 -1.1489
42126SOL     OW35155  10.984  11.866   0.100 -0.1630  0.2449  0.0609
42126SOL    HW135156  11.018  11.914   0.175  0.7538 -0.7962  0.3391
42126SOL    HW235157  10.970  11.777   0.132 -0.8189  0.0497 -0.7187
42127SOL     OW35158   1.466   5.060  12.092  0.6875 -0.1171  0.6925
42127SOL    HW135159   1.518   4.988  12.128 -1.2250 -2.6909 -1.3829
42127SOL    HW235160   1.391   5.018  12.051 -0.4479  3.0824 -0.8342
42128SOL     OW35161  12.000  10.436   6.089  0.2171 -0.5856 -0.0858
42128SOL    HW135162  11.907  10.415   6.079  0.2456 -0.4143 -0.7865
42128SOL    HW235163  12.004  10.499   6.160 -0.4617  1.0692 -1.4423
42129SOL     OW35164  11.677   2.488   1.501  0.1506 -0.1498  0.5581
42129SOL    HW135165  11.639   2.544   1.433  0.5737  0.0512  0.4823
42129SOL    HW235166  11.610   2.422   1.518  1.2124 -2.1855 -2.3638
42130SOL     OW35167   2.694   6.207  11.204 -0.1306  0.7489 -0.3591
42130SOL    HW135168   2.710   6.282  11.147  0.1747  1.8945  1.1988
42130SOL    HW235169   2.642   6.241  11.276 -0.5143 -0.6793  0.0820
42131SOL     OW35170   5.003   0.122   2.865 -0.4826 -0.7153 -0.4863
42131SOL    HW135171   4.978   0.045   2.815  2.2742 -2.0616 -0.0090
42131SOL    HW235172   5.098   0.129   2.852  0.0002  0.1962  2.6818
42132SOL     OW35173   0.859   2.588  12.200  0.0842 -0.0722  0.0428
42132SOL    HW135174   0.818   2.667  12.165 -1.2760 -0.6861  0.2009
42132SOL    HW235175   0.876   2.608  12.292  0.1794  0.2042 -0.0343
42133SOL     OW35176   8.517  12.296   6.071 -0.5600  0.6426  0.4864
42133SOL    HW135177   8.464  12.307   6.150 -1.7915 -2.0559  0.1193
42133SOL    HW235178   8.582  12.230   6.095 -0.4441  0.3862 -0.5018
42134SOL     OW35179  12.269   8.447   6.607  0.0782 -0.3499  0.9661
42134SOL    HW135180  12.350   8.451   6.657  0.0018  0.8860  1.0050
42134SOL    HW235181  12.297   8.439   6.516  0.2329 -0.6266  1.0372
42135SOL     OW35182   6.206   2.599   0.501 -0.1716  0.1376  0.7446
42135SOL    HW135183   6.228   2.510   0.473 -0.4306  0.2133  0.2935
42135SOL    HW235184   6.289   2.646   0.500 -0.4560  0.7261 -2.0490
42136SOL     OW35185   9.944   2.315   6.199 -0.3174 -0.1123  0.6813
42136SOL    HW135186  10.034   2.343   6.216 -0.1467 -0.3705  0.2035
42136SOL    HW235187   9.946   2.277   6.111 -0.7387 -0.7963  0.9567
42137SOL     OW35188   5.933   0.935   8.983  0.2709  0.5841 -0.0376
42137SOL    HW135189   6.020   0.914   8.948  0.1004  1.3204 -0.9407
42137SOL    HW235190   5.915   1.023   8.950  0.5412  1.7948  2.7848
42138SOL     OW35191   8.086   3.560   9.950 -0.2557 -0.4486 -0.1406
42138SOL    HW135192   8.107   3.469   9.971 -0.1469 -0.3061  0.3848
42138SOL    HW235193   8.018   3.584  10.014 -1.2603 -0.5744 -1.1220
42139SOL     OW35194   1.965   0.020   5.828 -0.5081 -0.1698 -0.2017
42139SOL    HW135195   1.937   0.077   5.756 -1.2451  0.1140  0.2958
42139SOL    HW235196   2.022   0.076   5.881  0.0162 -0.3719 -0.5439
42140SOL     OW35197   0.638   8.172   6.333  0.4692 -0.6925  0.0245
42140SOL    HW135198   0.585   8.096   6.358 -0.5890 -0.0980 -0.3282
42140SOL    HW235199   0.604   8.244   6.386  2.4662 -0.7253  1.4804
42141SOL     OW35200  12.262  12.612   2.937 -0.3747  0.3056  0.5368
42141SOL    HW135201  12.207  12.535   2.925  1.4112 -0.7445 -1.5611
42141SOL    HW235202  12.313  12.593   3.016  0.0546 -0.6890  0.0338
42142SOL     OW35203   7.178   7.542   8.714 -0.3968 -0.1766 -0.4056
42142SOL    HW135204   7.248   7.586   8.761 -0.3279  0.2531 -0.8918
42142SOL    HW235205   7.111   7.610   8.701 -1.0159 -0.6370  0.2588
42143SOL     OW35206   4.881  12.250   2.496 -0.3023 -0.3238  0.1329
42143SOL    HW135207   4.821  12.269   2.569 -0.1504 -0.0183  0.1835
42143SOL    HW235208   4.882  12.155   2.490 -0.1976 -0.3569  0.6319
42144SOL     OW35209  10.547   9.387   3.278 -0.1705  0.1702 -0.3799
42144SOL    HW135210  10.603   9.461   3.256  0.6215 -0.5715 -0.8966
42144SOL    HW235211  10.499   9.368   3.197 -0.4353  0.1656 -0.2243
42145SOL     OW35212   4.079   5.109   3.083 -0.6111  0.5317 -0.1028
42145SOL    HW135213   4.154   5.158   3.048 -0.5573  0.2761 -0.3461
42145SOL    HW235214   4.096   5.018   3.059  0.2479  0.0945  2.0040
42146SOL     OW35215   0.884   3.945   1.243  0.1229  0.4992 -0.1314
42146SOL    HW135216   0.898   3.968   1.151 -0.6878 -1.1937 -0.7126
42146SOL    HW235217   0.872   4.030   1.287 -2.5062  1.2751 -2.0847
42147SOL     OW35218   1.565   8.917   0.498 -0.3725 -0.2244 -0.6972
42147SOL    HW135219   1.658   8.939   0.506 -0.5656  0.6426 -0.6936
42147SOL    HW235220   1.537   8.963   0.419 -0.3775 -2.0221 -1.8017
42148SOL     OW35221   0.222   2.442  10.016 -0.1551  0.2547 -0.4142
42148SOL    HW135222   0.244   2.429   9.924  0.7856  0.2632 -0.1957
42148SOL    HW235223   0.249   2.360  10.059 -1.1552  0.0010 -0.2345
42149SOL     OW35224   2.719   0.219   4.974 -0.7934  0.6848 -0.0890
42149SOL    HW135225   2.706   0.264   5.057 -0.0802 -1.1195  1.0626
42149SOL    HW235226   2.766   0.139   4.997  0.2711  0.5715 -2.3544
42150SOL     OW35227   2.922  10.533   3.404 -0.0002  0.0728  0.2499
42150SOL    HW135228   2.929  10.628   3.407 -1.7747  0.2105  2.2348
42150SOL    HW235229   2.829  10.515   3.418  0.1280 -1.9483 -1.0518
42151SOL     OW35230   1.126   8.825  11.185  0.2414  0.0469 -0.1777
42151SOL    HW135231   1.068   8.805  11.258 -1.5706  0.6139 -1.4029
42151SOL    HW235232   1.209   8.781  11.207 -0.4385 -0.2981  1.8927
42152SOL     OW35233   8.649   4.888  11.782 -0.0296 -0.0823  0.0586
42152SOL    HW135234   8.585   4.836  11.832  1.2468 -1.4103  0.3839
42152SOL    HW235235   8.645   4.975  11.821 -2.0914  0.0550 -0.3654
42153SOL     OW35236   9.527   5.945   6.077 -0.4281  0.4774 -0.1921
42153SOL    HW135237   9.551   5.874   6.018 -2.9222 -0.0089 -0.7041
42153SOL    HW235238   9.498   5.901   6.157 -1.0554  0.9599 -0.1523
42154SOL     OW35239   9.219   9.781  11.365  0.6121  0.3076  0.3484
42154SOL    HW135240   9.147   9.792  11.302 -0.4307  0.3436  1.5111
42154SOL    HW235241   9.298   9.795  11.313 -0.2159  0.4273 -0.9366
42155SOL     OW35242   3.769   3.331   9.928 -0.0299 -0.0091  0.1135
42155SOL    HW135243   3.864   3.345   9.929 -0.0610  0.2671 -0.3933
42155SOL    HW235244   3.733   3.407   9.973  0.0762 -0.9853  1.9308
42156SOL     OW35245   7.087   1.717   6.186  0.6399 -0.0555 -0.0177
42156SOL    HW135246   7.114   1.656   6.255  1.2133 -0.7234 -0.8108
42156SOL    HW235247   7.085   1.664   6.106  1.1533  0.9632 -0.7339
42157SOL     OW35248   6.130   0.376   5.492  0.2822 -0.4401  0.1089
42157SOL    HW135249   6.112   0.329   5.573 -0.0369  0.6915  0.7195
42157SOL    HW235250   6.045   0.382   5.448  0.3706 -0.6706 -0.0906
42158SOL     OW35251  12.128   3.539   7.742  0.3521  0.4675  0.1464
42158SOL    HW135252  12.114   3.467   7.803 -0.3938 -0.0933 -0.6662
42158SOL    HW235253  12.220   3.533   7.718 -0.2195 -1.8039 -1.8268
42159SOL     OW35254   5.973  11.773   0.305  0.8598 -0.2216  0.2936
42159SOL    HW135255   6.044  11.832   0.281  1.2739 -0.5017  0.8141
42159SOL    HW235256   5.995  11.691   0.261  0.2022  0.0514 -0.5606
42160SOL     OW35257   7.385   3.284   0.925 -0.4694 -0.2374  1.3420
42160SOL    HW135258   7.418   3.262   1.013 -2.4376 -2.2458  1.6786
42160SOL    HW235259   7.293   3.305   0.938 -0.4785  0.7683 -0.1078
42161SOL     OW35260   8.962   6.490   8.827 -0.1318  0.1832 -0.0911
42161SOL    HW135261   8.912   6.412   8.801  0.5196 -0.7950  1.4636
42161SOL    HW235262   9.014   6.511   8.750 -1.2771 -0.1232 -0.9829
42162SOL     OW35263   6.993   8.835   3.297  0.0954 -0.2415  0.5688
42162SOL    HW135264   6.923   8.898   3.314  1.1639  0.9682  0.6620
42162SOL    HW235265   7.066   8.889   3.267  0.9078 -1.4993  0.2267
42163SOL     OW35266   8.622   1.198   4.157 -0.5223  0.1884 -0.8551
42163SOL    HW135267   8.621   1.289   4.188  1.3443 -0.0323 -0.0185
42163SOL    HW235268   8.683   1.198   4.083 -1.1117 -0.2374 -1.3481
42164SOL     OW35269  12.017   5.994   8.116  1.1026  0.3704 -0.5382
42164SOL    HW135270  12.009   6.044   8.197  2.0560 -0.5175  0.1305
42164SOL    HW235271  12.027   6.060   8.048  2.0383  1.1151  0.2933
42165SOL     OW35272   4.212   3.400   8.774 -0.3530 -0.6832 -0.2930
42165SOL    HW135273   4.277   3.400   8.704  0.2968  1.3983  0.2326
42165SOL    HW235274   4.148   3.333   8.747  1.8965 -2.7335 -0.8554
42166SOL     OW35275   8.497   1.703   8.775 -0.1036 -0.5540 -0.0793
42166SOL    HW135276   8.554   1.780   8.774 -1.1062  0.2049 -0.6351
42166SOL    HW235277   8.552   1.632   8.742  1.4282 -0.5563  2.2367
42167SOL     OW35278   1.517   0.040   4.533 -0.6453  0.4368  0.0585
42167SOL    HW135279   1.526   0.133   4.554  0.9522  0.2028  0.5532
42167SOL    HW235280   1.427   0.031   4.502 -0.3015  2.4912 -1.7932
42168SOL     OW35281   0.689   4.591   0.306  0.2220  0.2048  0.2185
42168SOL    HW135282   0.669   4.503   0.275  1.1177  0.3035 -0.6798
42168SOL    HW235283   0.656   4.649   0.237 -0.1916  0.5740  0.7167
42169SOL     OW35284   6.281  12.312   9.805  0.3010  0.0372  0.3497
42169SOL    HW135285   6.188  12.290   9.815  0.7592 -1.5228  1.6389
42169SOL    HW235286   6.281  12.402   9.775 -1.6394  0.0664  0.3040
42170SOL     OW35287   1.399  11.351   3.655  0.1421 -0.2157 -0.2599
42170SOL    HW135288   1.493  11.337   3.660  0.3099  1.0826  1.1899
42170SOL    HW235289   1.385  11.392   3.570  1.0713  0.6202 -0.0276
42171SOL     OW35290  11.823   6.269  12.043 -0.1806 -0.3485  0.0737
42171SOL    HW135291  11.790   6.351  12.006  0.0252  0.2960  1.2668
42171SOL    HW235292  11.816   6.206  11.972 -2.2738  0.2062 -0.2677
42172SOL     OW35293   6.938  11.051  11.677  0.6830 -0.0023 -0.5916
42172SOL    HW135294   7.021  11.082  11.712  1.9507  0.6303 -3.8179
42172SOL    HW235295   6.894  11.131  11.646 -0.6806 -0.4465  0.1064
42173SOL     OW35296   9.538   7.119   3.290 -0.4774 -0.4851 -0.1008
42173SOL    HW135297   9.562   7.115   3.382 -1.7062 -2.0018  0.2029
42173SOL    HW235298   9.476   7.193   3.285 -0.4496 -0.4319  0.3016
42174SOL     OW35299   4.311   6.376   9.735 -0.6643 -0.6326  0.3146
42174SOL    HW135300   4.281   6.316   9.803 -0.5330 -1.4038 -0.2958
42174SOL    HW235301   4.360   6.444   9.782 -0.2209 -1.3765  0.9424
42175SOL     OW35302   8.368   5.819   0.599 -0.2773 -0.1072 -0.0605
42175SOL    HW135303   8.322   5.802   0.517 -0.0979 -0.4429 -0.0947
42175SOL    HW235304   8.458   5.838   0.573  0.1224 -1.5863  0.1302
42176SOL     OW35305   9.661   3.421  11.678 -1.0187  0.0670  0.3440
42176SOL    HW135306   9.592   3.482  11.651 -1.3685 -0.6951 -0.5009
42176SOL    HW235307   9.633   3.336  11.644  0.4255 -0.2228 -0.1825
42177SOL     OW35308  10.240   9.889   5.213  0.0981 -0.3430 -0.1311
42177SOL    HW135309  10.322   9.841   5.220  0.5089  0.3539 -0.0272
42177SOL    HW235310  10.202   9.860   5.131  0.7020 -0.2942 -0.4332
42178SOL     OW35311   4.754   4.690   5.947  0.0451  0.6896 -0.2086
42178SOL    HW135312   4.758   4.725   6.036  0.2608 -0.5352  0.2818
42178SOL    HW235313   4.660   4.679   5.930  0.0355 -0.0158  0.2598
42179SOL     OW35314   9.623   3.284  12.462 -0.1978 -0.0342  0.5557
42179SOL    HW135315   9.642   3.327  12.544  1.9797  0.9141 -0.3822
42179SOL    HW235316   9.596   3.195  12.487 -0.4469  0.4981  2.2874
42180SOL     OW35317  12.274   6.696  11.651  0.3540 -0.2987 -0.1419
42180SOL    HW135318  12.250   6.707  11.743 -0.9295 -1.1207 -0.3487
42180SOL    HW235319  12.295   6.784  11.621 -0.9485  0.2503  0.4901
42181SOL     OW35320   3.729   4.020   9.148 -0.3754  0.2170  0.4482
42181SOL    HW135321   3.824   4.028   9.142 -0.4180  0.3581 -0.0535
42181SOL    HW235322   3.698   4.023   9.057 -0.7893 -0.7393  0.5437
42182SOL     OW35323   3.203   4.557  10.376 -0.0573 -0.0687  0.2224
42182SOL    HW135324   3.293   4.523  10.383 -0.2498 -0.5950  0.2100
42182SOL    HW235325   3.157   4.515  10.449  0.0675  1.3987  1.1817
42183SOL     OW35326   7.787   2.870   8.087 -0.2035  0.1324  0.3314
42183SOL    HW135327   7.882   2.862   8.076 -0.3541  0.3486 -1.5042
42183SOL    HW235328   7.776   2.919   8.169  1.3209  1.4275 -0.1839
42184SOL     OW35329  10.626   4.501   7.783 -0.7225 -0.1597  0.2890
42184SOL    HW135330  10.611   4.582   7.830 -1.1954  0.1041 -0.2999
42184SOL    HW235331  10.539   4.462   7.773 -0.3468 -1.5131  1.8998
42185SOL     OW35332   5.210   8.600  11.860 -0.2364  0.2825 -0.0829
42185SOL    HW135333   5.177   8.581  11.948  1.8298 -0.1554  0.6393
42185SOL    HW235334   5.132   8.596  11.805 -1.4466 -0.3851  1.5744
42186SOL     OW35335   7.401   2.128   9.850  0.1878  0.4202 -0.3425
42186SOL    HW135336   7.376   2.139   9.758  1.3570  0.4681 -0.6657
42186SOL    HW235337   7.333   2.071   9.886  1.0968 -1.8203 -1.9214
42187SOL     OW35338  11.084   6.244   8.363  0.3991  0.3679 -0.2161
42187SOL    HW135339  11.034   6.273   8.287  0.7413 -1.0689 -1.0203
42187SOL    HW235340  11.133   6.167   8.332 -0.9110 -1.4611  1.9124
42188SOL     OW35341   1.810   4.498   5.681  0.5304  0.3908 -0.1112
42188SOL    HW135342   1.744   4.567   5.680  2.0923  1.9441 -1.2924
42188SOL    HW235343   1.891   4.542   5.706  1.8336 -0.7121 -2.1382
42189SOL     OW35344   9.513  11.897   0.675  0.1484 -0.3400  0.0864
42189SOL    HW135345   9.457  11.895   0.752 -0.7271 -1.9641 -0.5493
42189SOL    HW235346   9.477  11.967   0.620  0.0757  0.0614  0.6459
42190SOL     OW35347   9.299  10.579   0.368 -0.0529  0.2169  0.1849
42190SOL    HW135348   9.215  10.546   0.338  0.1113 -0.8960  0.8780
42190SOL    HW235349   9.280  10.624   0.450 -0.1927  1.3996 -0.4738
42191SOL     OW35350   3.105  10.438   1.250  0.2518 -0.0191  0.2797
42191SOL    HW135351   3.091  10.344   1.264  1.2066 -0.1600  0.3262
42191SOL    HW235352   3.044  10.461   1.179  0.3010 -0.7560 -0.0104
42192SOL     OW35353   4.078   2.995   1.513  0.0283  0.4214  0.1389
42192SOL    HW135354   4.171   2.973   1.504 -0.2545 -0.6539 -0.2114
42192SOL    HW235355   4.050   2.950   1.593 -0.3680  0.1176 -0.1666
42193SOL     OW35356   3.416   7.131   0.630  0.2446  0.3004  0.2225
42193SOL    HW135357   3.405   7.052   0.683 -0.3125  0.4048  0.2670
42193SOL    HW235358   3.443   7.098   0.544 -0.3832  0.0309  0.1208
42194SOL     OW35359   3.962   9.072  11.115  0.2427 -0.1218 -0.5256
42194SOL    HW135360   3.868   9.055  11.118  0.1837  0.2271 -0.2068
42194SOL    HW235361   3.969   9.162  11.083  0.4221  0.1900  0.3707
42195SOL     OW35362   5.843   9.057   5.148  0.1599  0.1788 -0.4601
42195SOL    HW135363   5.878   9.106   5.073 -2.0915 -0.8621 -2.3007
42195SOL    HW235364   5.765   9.106   5.174 -0.9124 -1.2197 -0.9505
42196SOL     OW35365   3.893   7.356   0.471  0.0807 -0.2211  0.1112
42196SOL    HW135366   3.825   7.423   0.474  0.1184 -0.1524 -0.4346
42196SOL    HW235367   3.959   7.385   0.533 -0.1476 -0.0249  0.2630
42197SOL     OW35368   4.356   3.149   1.729 -0.0152  0.7672  0.0339
42197SOL    HW135369   4.390   3.203   1.658  0.8605  0.0066 -0.1437
42197SOL    HW235370   4.404   3.066   1.721  0.0432  0.6418  1.4713
42198SOL     OW35371  12.223   2.295   2.834  0.1142  0.5335 -0.5197
42198SOL    HW135372  12.199   2.329   2.920 -0.1912 -0.9171  0.0011
42198SOL    HW235373  12.247   2.372   2.783  2.8539  1.2677  1.6439
42199SOL     OW35374   1.242  11.842   3.216  0.3384  0.1557 -0.3739
42199SOL    HW135375   1.317  11.879   3.170  0.2284  1.1070  0.1683
42199SOL    HW235376   1.190  11.918   3.241  0.5722 -0.2820  1.6098
42200SOL     OW35377   4.222   3.203  10.851  0.4396  0.2934  0.5435
42200SOL    HW135378   4.279   3.217  10.775 -0.5085 -0.5991 -0.3486
42200SOL    HW235379   4.134   3.223  10.819 -0.2026 -1.7882  0.8724
42201SOL     OW35380   5.633   7.266  10.936 -0.0519  0.3090 -0.1659
42201SOL    HW135381   5.637   7.275  11.032 -0.0383 -0.3241 -0.1029
42201SOL    HW235382   5.659   7.351  10.903  1.4621  0.0846  0.3802
42202SOL     OW35383   5.871   4.053   4.927  0.6466  0.1575  0.3532
42202SOL    HW135384   5.931   4.061   5.002  2.7933 -0.3489 -1.2174
42202SOL    HW235385   5.882   4.135   4.879 -0.8523  0.5513  0.6103
42203SOL     OW35386   4.426   3.976   5.711 -0.6094  0.3719  0.1578
42203SOL    HW135387   4.330   3.973   5.713 -0.6238  0.7520  2.1144
42203SOL    HW235388   4.453   3.912   5.777  0.4632  0.7526  0.1059
42204SOL     OW35389   4.109   0.821  11.672  0.2868 -0.3077 -0.4459
42204SOL    HW135390   4.041   0.882  11.645 -0.9310 -1.6788 -0.5799
42204SOL    HW235391   4.114   0.757  11.601  0.2026 -1.4198  0.5165
42205SOL     OW35392   6.484   7.062   3.554 -0.5500 -0.0681 -0.0690
42205SOL    HW135393   6.442   7.030   3.475  1.5483 -1.0196 -0.8704
42205SOL    HW235394   6.418   7.117   3.596 -1.8462  0.1287 -2.2443
42206SOL     OW35395   6.828   9.665   9.773  0.0009  0.1301 -0.0004
42206SOL    HW135396   6.792   9.751   9.749 -1.6044 -0.2862  0.7490
42206SOL    HW235397   6.815   9.660   9.868 -1.6171 -1.6418 -0.2645
42207SOL     OW35398   3.658   2.417   0.437  0.7937  0.2184 -0.3223
42207SOL    HW135399   3.729   2.478   0.418 -0.4868  0.8188 -3.8652
42207SOL    HW235400   3.645   2.424   0.531  4.3837  1.1732  0.2505
42208SOL     OW35401  11.006  12.611  10.161  0.1652 -0.1208 -0.4611
42208SOL    HW135402  11.036  12.598  10.251 -0.4539 -1.0057 -0.3717
42208SOL    HW235403  11.030  12.702  10.141  0.3386  0.0797  0.5802
42209SOL     OW35404   8.264   0.976   9.289  0.1789 -0.2572 -0.2012
42209SOL    HW135405   8.351   1.010   9.310  0.5988 -0.3550 -1.6300
42209SOL    HW235406   8.260   0.979   9.193 -1.7718  0.6512 -0.1390
42210SOL     OW35407   1.811   5.308   4.884  0.4858 -0.2608  0.2681
42210SOL    HW135408   1.781   5.399   4.891 -1.2429 -0.8407  0.9662
42210SOL    HW235409   1.841   5.286   4.972  0.1295 -0.6110  0.3024
42211SOL     OW35410   5.175   3.516   0.238 -0.2339  0.2876 -0.3148
42211SOL    HW135411   5.095   3.465   0.226 -0.9699  1.5439 -1.0431
42211SOL    HW235412   5.234   3.486   0.168  0.3031 -1.2431  0.7352
42212SOL     OW35413   7.883   3.328  11.195  0.1757  0.1170 -0.1692
42212SOL    HW135414   7.815   3.278  11.148  0.7261 -0.4838 -0.3377
42212SOL    HW235415   7.856   3.419  11.185  0.6411  0.0769 -2.2800
42213SOL     OW35416  10.346   0.331  11.428  0.1468  0.8514 -0.0275
42213SOL    HW135417  10.302   0.415  11.414  0.6413  1.0985 -0.1024
42213SOL    HW235418  10.275   0.267  11.426 -0.2468  1.2740  0.1152
42214SOL     OW35419   3.590   7.656   0.161 -0.1728 -0.3314 -0.0830
42214SOL    HW135420   3.553   7.577   0.122  0.1499  0.4389 -2.0691
42214SOL    HW235421   3.683   7.636   0.172 -0.0112 -0.0903 -0.9805
42215SOL     OW35422   4.857   6.219   4.194 -0.0415 -0.3302 -0.8053
42215SOL    HW135423   4.800   6.293   4.177  0.2895  0.5134  1.4405
42215SOL    HW235424   4.946   6.254   4.188  0.1265 -0.6038 -0.0811
42216SOL     OW35425  11.280   4.235   1.734  0.1491 -0.0442  0.0376
42216SOL    HW135426  11.220   4.169   1.769  0.2469 -0.5164 -0.6636
42216SOL    HW235427  11.225   4.311   1.715 -0.1645 -0.3433 -0.2608
42217SOL     OW35428   0.282   2.463   3.185  0.3451  0.2453  0.4959
42217SOL    HW135429   0.321   2.518   3.252 -0.9319  3.9249 -1.4487
42217SOL    HW235430   0.354   2.443   3.125  0.6172  0.7764  0.6428
42218SOL     OW35431   2.359   8.861   6.560  0.0585 -0.2599  0.4739
42218SOL    HW135432   2.295   8.914   6.607  0.4675  0.0060  0.7405
42218SOL    HW235433   2.370   8.905   6.476 -0.2916 -0.4485  0.3265
42219SOL     OW35434   7.716  12.069   9.950  0.4011 -0.3737 -0.1767
42219SOL    HW135435   7.683  12.146   9.903  0.4912 -0.6315 -0.6664
42219SOL    HW235436   7.762  12.018   9.884  0.6218 -0.6917  0.2169
42220SOL     OW35437   7.137   5.424   0.585  0.4114  0.2165  0.0006
42220SOL    HW135438   7.044   5.406   0.594  0.3479 -0.9022 -2.1761
42220SOL    HW235439   7.142   5.500   0.528  0.8480  0.9759  1.0161
42221SOL     OW35440   0.309   7.304   4.882  0.2756  0.2390 -0.2076
42221SOL    HW135441   0.359   7.260   4.951  0.4790  1.1288  0.2233
42221SOL    HW235442   0.217   7.284   4.902  0.3999 -1.0167 -0.7390
42222SOL     OW35443   1.605  10.308   4.575 -0.3074 -0.0619 -0.2823
42222SOL    HW135444   1.548  10.345   4.643  1.8182 -0.0546  1.6197
42222SOL    HW235445   1.645  10.385   4.533  0.3169 -0.0845  0.2497
42223SOL     OW35446   1.227   8.563   9.562  0.3740  0.0727 -0.0039
42223SOL    HW135447   1.165   8.519   9.620  1.2564 -2.0570 -0.5662
42223SOL    HW235448   1.216   8.656   9.580 -0.9784 -0.4137  1.9058
42224SOL     OW35449  10.311  11.296   8.595 -0.0936  0.0081 -0.1080
42224SOL    HW135450  10.254  11.252   8.659 -1.2426 -0.3216 -1.3192
42224SOL    HW235451  10.367  11.226   8.561  1.3943  0.4092  1.3948
42225SOL     OW35452   3.120   6.770   3.342  0.0059  0.0625  0.2803
42225SOL    HW135453   3.214   6.783   3.326 -0.0656 -0.3706 -0.5187
42225SOL    HW235454   3.092   6.710   3.274 -1.0400  0.8758 -0.0246
42226SOL     OW35455  10.365   7.452   3.229  0.4905 -0.1119  0.8716
42226SOL    HW135456  10.306   7.521   3.202  0.1695 -0.9598 -0.6579
42226SOL    HW235457  10.433   7.497   3.280 -0.0986  1.2019  0.5173
42227SOL     OW35458   5.125  12.490   8.895  0.1323  0.2335 -0.5461
42227SOL    HW135459   5.173  12.540   8.961 -2.4302 -0.6612  2.2230
42227SOL    HW235460   5.111  12.552   8.823  3.0012  1.2600 -0.3335
42228SOL     OW35461   8.274   1.274   1.682  0.0443  0.2124  0.2166
42228SOL    HW135462   8.199   1.310   1.730 -0.1143 -1.9171  1.6926
42228SOL    HW235463   8.325   1.227   1.749  2.7245  1.5532 -0.7482
42229SOL     OW35464   6.359   1.713   0.329 -0.0588 -0.8805  0.2139
42229SOL    HW135465   6.391   1.674   0.247  1.1028  0.1353  0.1618
42229SOL    HW235466   6.264   1.716   0.318  0.0885 -0.5886 -1.1816
42230SOL     OW35467   3.564   5.599   6.683  0.2076 -0.1410 -0.6831
42230SOL    HW135468   3.648   5.635   6.711 -1.7585  2.9449  1.9456
42230SOL    HW235469   3.571   5.595   6.588  3.1758  0.3029 -0.5959
42231SOL     OW35470   7.866  11.897   9.747  0.1756 -1.1472 -0.5890
42231SOL    HW135471   7.939  11.906   9.684 -1.3097 -0.2960 -2.2849
42231SOL    HW235472   7.803  11.842   9.703 -1.3368  0.2573 -0.2822
42232SOL     OW35473   4.124   3.554   8.068 -0.0794  0.4376  0.5195
42232SOL    HW135474   4.114   3.594   8.154 -0.0496  0.2014  0.6317
42232SOL    HW235475   4.086   3.467   8.077 -0.5327  0.5926  0.1562
42233SOL     OW35476   5.534   5.311   0.588  0.7217  0.1909 -0.5319
42233SOL    HW135477   5.583   5.382   0.631 -0.4130  0.5432  0.2463
42233SOL    HW235478   5.499   5.351   0.509 -1.3077  1.0564  0.7288
42234SOL     OW35479   9.187   3.581   5.117  0.0602  0.2475  0.3237
42234SOL    HW135480   9.273   3.550   5.089 -0.8207 -0.9554 -1.1958
42234SOL    HW235481   9.150   3.623   5.040 -1.0722 -0.0490  0.6761
42235SOL     OW35482   9.408   6.931   9.865 -0.4422 -0.4523 -0.1771
42235SOL    HW135483   9.335   6.993   9.872  2.9904  4.4157 -2.2676
42235SOL    HW235484   9.397   6.890   9.779 -0.8997 -0.0516 -0.3113
42236SOL     OW35485   2.341   9.262  10.953  0.3886 -0.5418  0.8320
42236SOL    HW135486   2.425   9.244  10.994  0.9753 -0.6791 -0.3857
42236SOL    HW235487   2.309   9.176  10.925 -0.4915 -0.5783  1.8773
42237SOL     OW35488   3.050   1.841   7.304 -0.3061  0.2939  0.1770
42237SOL    HW135489   3.126   1.830   7.246  0.9307  2.7171  1.2085
42237SOL    HW235490   2.975   1.839   7.245  0.5563 -1.5088 -0.9535
42238SOL     OW35491   2.557   1.655   3.799  0.0473 -0.0501 -0.1347
42238SOL    HW135492   2.623   1.705   3.751  0.5711 -0.0996  0.5212
42238SOL    HW235493   2.496   1.625   3.732  0.9841 -0.4579 -0.8266
42239SOL     OW35494  11.798   5.580   4.070  0.3902 -0.4733  0.7635
42239SOL    HW135495  11.796   5.633   3.991  0.8903  0.1161  1.1339
42239SOL    HW235496  11.879   5.605   4.114  0.0864 -0.7356  1.4971
42240SOL     OW35497   3.058   9.339   1.348  0.1992 -0.3230  0.0268
42240SOL    HW135498   3.085   9.428   1.370 -0.8202 -0.1096  0.4736
42240SOL    HW235499   3.060   9.336   1.252 -1.0359  0.6135 -0.0537
42241SOL     OW35500  10.141   1.762  11.438  0.6668 -0.3670 -0.0620
42241SOL    HW135501  10.187   1.845  11.421  0.5365  0.1930  2.0332
42241SOL    HW235502  10.211   1.701  11.463  0.9043 -1.2886 -2.6902
42242SOL     OW35503   5.090   4.291  10.455 -0.0753  0.3624 -0.1392
42242SOL    HW135504   5.152   4.351  10.415  1.6585 -1.1941  0.0789
42242SOL    HW235505   5.104   4.301  10.549 -0.2248  0.0639 -0.0825
42243SOL     OW35506   6.682   0.398   2.362  0.5339  0.6091  0.2867
42243SOL    HW135507   6.615   0.465   2.371 -0.6886 -0.7289  1.7417
42243SOL    HW235508   6.664   0.358   2.276 -0.4199  0.4054  0.5687
42244SOL     OW35509   0.537   9.183   2.673  0.2029 -0.1155  0.4478
42244SOL    HW135510   0.591   9.175   2.752 -1.1228  0.6752  1.4796
42244SOL    HW235511   0.448   9.191   2.706 -0.2583  1.6933 -1.0417
42245SOL     OW35512   1.439  11.043   1.451  0.3088  0.2806  0.4381
42245SOL    HW135513   1.436  11.076   1.541  0.2225 -2.0466  1.3632
42245SOL    HW235514   1.503  10.973   1.454  0.1757  0.0576 -1.2965
42246SOL     OW35515   3.332   1.821   7.479 -0.1454  0.6817  0.3698
42246SOL    HW135516   3.299   1.739   7.443  0.7466  0.0287  0.9897
42246SOL    HW235517   3.258   1.859   7.527 -0.5612  0.2461  0.0753
42247SOL     OW35518   0.989   1.259   3.253 -0.4600 -0.0216 -0.6317
42247SOL    HW135519   0.913   1.315   3.270  0.7117  1.6222 -0.6377
42247SOL    HW235520   1.052   1.316   3.210  0.9247 -1.2563 -0.3237
42248SOL     OW35521   8.237   2.818   3.107 -0.3727 -0.2483  0.4603
42248SOL    HW135522   8.206   2.736   3.146  2.1979 -0.6115  1.9852
42248SOL    HW235523   8.202   2.886   3.165  0.4851 -0.5538  1.3665
42249SOL     OW35524   2.644   2.632   4.522  0.2344 -0.5230 -0.1494
42249SOL    HW135525   2.632   2.567   4.453 -1.5752  0.1833 -0.5801
42249SOL    HW235526   2.613   2.714   4.482 -1.7399 -0.2585  1.7480
42250SOL     OW35527   9.401   8.972   3.377 -0.1894  0.6778  0.7525
42250SOL    HW135528   9.329   9.027   3.410 -0.6339  0.2818  0.4552
42250SOL    HW235529   9.403   8.990   3.283  0.0616  0.6396  0.7502
42251SOL     OW35530   0.001   5.532   6.971  1.1009  0.5808  0.2867
42251SOL    HW135531  -0.089   5.500   6.973  1.1980  0.2000 -0.7301
42251SOL    HW235532   0.006   5.586   6.892  2.0737 -0.3811 -0.3383
42252SOL     OW35533   2.802   9.813   3.886  0.2080 -0.7302 -0.3922
42252SOL    HW135534   2.750   9.757   3.828 -0.0661 -0.0480 -0.8137
42252SOL    HW235535   2.850   9.751   3.941  0.0233 -1.3869 -0.9450
42253SOL     OW35536   1.475   9.453  11.339  0.2350  0.0414  0.2679
42253SOL    HW135537   1.548   9.436  11.397  0.4247 -2.5136 -0.5805
42253SOL    HW235538   1.509   9.514  11.273  1.4109 -0.6220  0.2498
42254SOL     OW35539   8.519   2.637   6.357  0.2586 -0.5097 -0.4359
42254SOL    HW135540   8.459   2.564   6.339  0.2146 -0.2197 -1.5342
42254SOL    HW235541   8.596   2.595   6.396  0.0296 -1.0876 -0.5868
42255SOL     OW35542   2.028   3.808  11.167  0.5206 -0.1734  0.3003
42255SOL    HW135543   2.055   3.876  11.228  0.6872  0.0204  0.0106
42255SOL    HW235544   2.054   3.841  11.081  0.4572 -0.5295  0.1431
42256SOL     OW35545  12.103   1.195   1.190  0.1338 -0.0485  0.2970
42256SOL    HW135546  12.168   1.126   1.199  1.2607  0.7633 -1.0843
42256SOL    HW235547  12.141   1.255   1.126 -1.7326  0.7619 -0.1258
42257SOL     OW35548   7.274   4.664   5.237 -0.5380 -0.3254  0.4946
42257SOL    HW135549   7.367   4.641   5.236 -0.5684 -0.4490  0.4541
42257SOL    HW235550   7.266   4.725   5.310 -0.3306  0.0991  0.1624
42258SOL     OW35551  11.020   4.212   0.216 -0.0311  0.0398 -0.1079
42258SOL    HW135552  10.936   4.255   0.231 -0.1199  0.3694 -1.4310
42258SOL    HW235553  10.998   4.118   0.214 -0.3955  0.1317 -0.5995
42259SOL     OW35554   4.870   6.970  10.194 -0.0524 -0.0201 -0.7971
42259SOL    HW135555   4.798   6.916  10.227  0.5330 -1.6474 -2.0568
42259SOL    HW235556   4.942   6.954  10.255 -0.4191  0.7872 -0.1361
42260SOL     OW35557   4.193   2.341   0.514  0.2082  0.2008  0.1270
42260SOL    HW135558   4.144   2.329   0.434  0.4817 -0.0751 -0.0026
42260SOL    HW235559   4.257   2.270   0.514  1.5047  1.3249 -0.3789
42261SOL     OW35560   2.557  11.294  12.044  0.5989 -0.7811  0.4072
42261SOL    HW135561   2.611  11.369  12.068 -1.5626  0.2511  2.4723
42261SOL    HW235562   2.500  11.327  11.975  1.2296 -1.2784 -0.3708
42262SOL     OW35563   8.069   1.812  10.293  0.4765 -0.2754  0.1686
42262SOL    HW135564   7.985   1.857  10.295 -0.1629 -1.2051 -2.1856
42262SOL    HW235565   8.066   1.758  10.214  3.5108  0.0868 -0.3382
42263SOL     OW35566   2.024   1.019   9.048  0.4161 -0.5592 -0.6272
42263SOL    HW135567   1.999   0.937   9.005 -0.6887 -0.5240 -0.0948
42263SOL    HW235568   2.106   1.044   9.007  1.3731 -2.5162 -0.0427
42264SOL     OW35569   0.720   3.103   7.782 -0.1050 -0.5450 -0.2911
42264SOL    HW135570   0.699   3.177   7.724 -0.0809 -0.2291  0.0943
42264SOL    HW235571   0.635   3.067   7.805 -0.1742 -0.0544  0.2575
42265SOL     OW35572   1.811   1.568   2.499  0.0433  0.0002 -0.0116
42265SOL    HW135573   1.787   1.620   2.575 -0.2797 -0.6811  0.3541
42265SOL    HW235574   1.728   1.540   2.461  0.2227 -0.8133  0.1850
42266SOL     OW35575   3.270   9.117  10.471 -0.0481  0.6700  0.0175
42266SOL    HW135576   3.331   9.043  10.474 -0.2072  0.5258  3.1001
42266SOL    HW235577   3.224   9.107  10.388  0.4667 -2.2979 -0.0220
42267SOL     OW35578   3.413   4.213  12.245  0.0702  0.3487  0.2154
42267SOL    HW135579   3.432   4.134  12.295 -1.6881 -0.2304  0.0206
42267SOL    HW235580   3.321   4.205  12.220  0.7692  0.7198 -2.8911
42268SOL     OW35581   7.900   0.889  10.721 -0.4162 -0.5293  0.5025
42268SOL    HW135582   7.857   0.804  10.727 -2.0825  0.0365 -1.8679
42268SOL    HW235583   7.935   0.893  10.632  0.5013  0.8894  0.8810
42269SOL     OW35584   1.336  11.820   4.608  0.3768  0.2093 -0.3528
42269SOL    HW135585   1.252  11.811   4.562 -1.3027 -1.8509  2.7544
42269SOL    HW235586   1.384  11.740   4.586  0.3051  0.0283  0.1620
42270SOL     OW35587   6.412   7.169   8.924 -0.4437  0.4278  0.0584
42270SOL    HW135588   6.436   7.095   8.980 -0.6484  0.7122  0.5283
42270SOL    HW235589   6.457   7.152   8.841 -2.5668 -1.6022 -0.7867
42271SOL     OW35590   2.517   3.241   0.832 -0.3357  0.2525 -0.2660
42271SOL    HW135591   2.567   3.185   0.893 -1.2291 -2.1461 -1.5841
42271SOL    HW235592   2.564   3.232   0.749 -1.9548 -0.7138 -1.1184
42272SOL     OW35593   5.335  10.315  10.087 -0.2543 -0.0334 -0.2319
42272SOL    HW135594   5.372  10.401  10.107  1.5593 -0.6792 -0.6846
42272SOL    HW235595   5.257  10.310  10.142  0.4160  1.3192  0.9048
42273SOL     OW35596   9.448   1.155   1.293 -0.0203  0.4568  0.9036
42273SOL    HW135597   9.433   1.098   1.368  0.4206  1.9166  2.1456
42273SOL    HW235598   9.420   1.242   1.323 -2.0724  0.7047 -1.4022
42274SOL     OW35599   8.571   1.171   1.989  0.4147  0.3714  0.5487
42274SOL    HW135600   8.534   1.230   2.055  0.7106 -0.2472  1.2866
42274SOL    HW235601   8.666   1.182   1.999  0.5055  2.2269 -1.5753
42275SOL     OW35602   8.063  11.477  10.830 -0.4065  0.0967 -0.0264
42275SOL    HW135603   8.005  11.442  10.897 -1.1987 -2.0364 -1.7125
42275SOL    HW235604   8.105  11.552  10.872 -1.7568 -0.3944  2.4126
42276SOL     OW35605   3.598   8.499   4.815 -0.4352  0.1953 -0.1579
42276SOL    HW135606   3.548   8.434   4.765 -0.9411  1.1780 -0.9542
42276SOL    HW235607   3.675   8.517   4.760 -0.0352 -0.0902  0.2977
42277SOL     OW35608  12.470   4.139  10.612  0.1785 -0.1118  0.1533
42277SOL    HW135609  12.479   4.046  10.588  0.3925 -0.0507 -0.0044
42277SOL    HW235610  12.376   4.156  10.605  0.1801 -0.2239 -0.1714
42278SOL     OW35611   9.401   2.296   3.743 -0.0794  0.2825 -0.0183
42278SOL    HW135612   9.425   2.218   3.694  0.2635  1.1667 -1.2898
42278SOL    HW235613   9.461   2.298   3.817  0.4049 -0.2417 -0.3944
42279SOL     OW35614   7.069  12.015  11.288 -0.4170  0.0006  0.0373
42279SOL    HW135615   7.072  12.055  11.374  0.2643  0.9879 -0.4230
42279SOL    HW235616   7.139  11.949  11.288  1.2939  1.7256 -0.5494
42280SOL     OW35617   4.396   4.868   3.726 -0.0913  0.2363  0.0533
42280SOL    HW135618   4.466   4.870   3.660 -0.6488  0.7484 -0.5331
42280SOL    HW235619   4.442   4.874   3.810  0.5734  0.6178 -0.3290
42281SOL     OW35620   3.914   2.342   7.232 -0.2973 -0.0881  0.2157
42281SOL    HW135621   3.968   2.422   7.238  0.1480 -0.4673  1.5997
42281SOL    HW235622   3.869   2.338   7.316  0.5112 -1.8565  0.6035
42282SOL     OW35623   9.854   6.114   4.492 -0.5208  0.1276  0.6976
42282SOL    HW135624   9.878   6.129   4.400 -0.6125  0.9054  0.7899
42282SOL    HW235625   9.770   6.158   4.502 -0.1915  0.6291  1.3244
42283SOL     OW35626   2.422   5.035   0.075  0.2154  0.4239 -0.0338
42283SOL    HW135627   2.464   5.115   0.108 -1.0815  0.1785  2.4641
42283SOL    HW235628   2.364   5.065   0.006  0.4308  1.5273  0.2485
42284SOL     OW35629   0.782   5.476   8.761 -0.5305  0.1687 -0.2622
42284SOL    HW135630   0.867   5.499   8.798 -0.3066  1.4198 -1.4604
42284SOL    HW235631   0.759   5.392   8.802  2.2090 -1.2297 -1.3985
42285SOL     OW35632  11.886   6.408   8.039  0.1935 -0.2435 -0.3573
42285SOL    HW135633  11.808   6.370   8.081  0.5193 -2.5606 -1.6583
42285SOL    HW235634  11.857   6.430   7.950  0.4040  1.3296 -0.0623
42286SOL     OW35635  12.190   8.068   6.009  0.1397 -0.7723  0.0161
42286SOL    HW135636  12.127   8.138   6.025 -0.4266 -0.8286 -1.7603
42286SOL    HW235637  12.141   8.002   5.960  1.7014 -0.5224 -2.0287
42287SOL     OW35638   6.226   2.223   8.508  0.8079 -0.6862 -0.1614
42287SOL    HW135639   6.217   2.235   8.602  1.6676 -0.4134 -0.1049
42287SOL    HW235640   6.139   2.243   8.472  0.4613 -0.8624  0.5750
42288SOL     OW35641   6.808   6.596   7.448  1.2610  0.0890 -0.0794
42288SOL    HW135642   6.797   6.655   7.523 -0.0293 -0.0428 -0.1549
42288SOL    HW235643   6.751   6.632   7.381  1.4327 -0.5387 -0.5683
42289SOL     OW35644   0.906   9.257  10.383 -0.0516 -0.2702 -0.0406
42289SOL    HW135645   0.812   9.249  10.396 -0.0273  0.1462  0.4331
42289SOL    HW235646   0.928   9.187  10.321 -0.8417  0.3157 -1.0122
42290SOL     OW35647   7.537   0.980   1.189 -0.0498 -0.1572 -0.1013
42290SOL    HW135648   7.455   0.976   1.238 -0.9708  1.5620 -1.3557
42290SOL    HW235649   7.600   1.018   1.250 -0.8882  0.9273  0.1160
42291SOL     OW35650  12.537   4.912   0.232  0.0974 -0.2836 -0.5537
42291SOL    HW135651  12.500   4.826   0.209  0.6519 -0.4501 -0.8299
42291SOL    HW235652  12.629   4.906   0.207 -0.0577  0.7052 -1.4296
42292SOL     OW35653   8.070   9.416  12.303 -0.3510  0.2900 -0.0702
42292SOL    HW135654   8.017   9.394  12.226 -1.8277  1.0536  0.6936
42292SOL    HW235655   8.059   9.511  12.313  1.4655  0.5337 -0.0794
42293SOL     OW35656   1.371  10.426   2.776 -0.2371 -0.0520 -0.4500
42293SOL    HW135657   1.309  10.398   2.844 -0.0581 -0.1858 -0.3423
42293SOL    HW235658   1.320  10.485   2.721 -0.7882 -1.0095 -1.0085
42294SOL     OW35659   6.051   9.589  12.087  0.4433 -0.1155 -0.1732
42294SOL    HW135660   6.010   9.566  12.003  0.7613  0.7759 -0.5872
42294SOL    HW235661   6.036   9.513  12.143 -1.1243 -0.1236 -0.5476
42295SOL     OW35662   4.887   9.503  11.621  0.3191  0.3823 -0.3682
42295SOL    HW135663   4.851   9.546  11.544  0.1397  2.2062  0.6918
42295SOL    HW235664   4.938   9.430  11.585 -0.0509  0.9604 -2.1872
42296SOL     OW35665   4.608   8.139   8.219  0.0101 -0.1178  0.2570
42296SOL    HW135666   4.556   8.127   8.139 -1.7389  0.7404  1.1879
42296SOL    HW235667   4.697   8.115   8.194 -0.7398 -1.2137 -1.5603
42297SOL     OW35668   5.644   6.195   5.681 -0.2384 -0.3166  0.2368
42297SOL    HW135669   5.562   6.238   5.659  0.0626 -0.4697 -1.3058
42297SOL    HW235670   5.652   6.123   5.619  1.3281  0.0412 -0.0360
42298SOL     OW35671   9.495   2.498  11.610  0.0875 -0.3323  0.2918
42298SOL    HW135672   9.563   2.561  11.590  0.3919 -0.7188  0.0973
42298SOL    HW235673   9.536   2.413  11.598 -0.8592 -0.5957 -1.4293
42299SOL     OW35674   6.364  12.183   7.507 -0.4591  0.1693 -0.2132
42299SOL    HW135675   6.419  12.207   7.433  1.1665 -0.9659  0.5547
42299SOL    HW235676   6.332  12.095   7.485  0.0267 -0.1714  0.3848
42300SOL     OW35677   0.885   0.762  10.037 -0.3964  0.4053  0.0259
42300SOL    HW135678   0.794   0.786  10.055 -0.7588 -1.3359  0.6872
42300SOL    HW235679   0.880   0.706   9.960 -0.1159 -1.1076  1.0719
42301SOL     OW35680   4.096   0.367  11.272  0.2894 -0.3710  0.1132
42301SOL    HW135681   4.011   0.410  11.267  0.1724 -0.5094  0.7867
42301SOL    HW235682   4.159   0.436  11.248  0.1709  0.4541  1.9856
42302SOL     OW35683  11.385   9.486  12.236  0.4185  0.4560 -0.4610
42302SOL    HW135684  11.438   9.420  12.190 -0.2577  0.5188 -1.3523
42302SOL    HW235685  11.362   9.444  12.319  1.7856  0.4017 -0.0846
42303SOL     OW35686   6.523   8.479   5.490 -0.1137 -0.2632 -0.6719
42303SOL    HW135687   6.430   8.461   5.478  0.0937 -0.9905 -1.2515
42303SOL    HW235688   6.567   8.429   5.421  1.0378 -3.3119  2.0247
42304SOL     OW35689   4.521   7.808   3.148 -0.1520  0.0981  0.2012
42304SOL    HW135690   4.556   7.893   3.176 -0.7181  0.2553  0.4415
42304SOL    HW235691   4.426   7.819   3.150 -0.2281 -0.5026  0.1028
42305SOL     OW35692  12.470   6.124  11.278 -0.5566 -0.0298  0.3721
42305SOL    HW135693  12.448   6.032  11.292  0.2474 -0.4327 -0.8276
42305SOL    HW235694  12.511   6.126  11.191  0.4768  1.2757  0.8506
42306SOL     OW35695  10.501   7.013  11.843 -0.0980 -0.3900 -0.0505
42306SOL    HW135696  10.573   6.952  11.856  2.0766  2.1784  0.8285
42306SOL    HW235697  10.499   7.028  11.749  1.2851  0.3057  0.0032
42307SOL     OW35698   0.461  10.701   2.135 -0.0543  0.6486  0.2622
42307SOL    HW135699   0.384  10.707   2.193 -0.1479  1.1222  0.0889
42307SOL    HW235700   0.532  10.676   2.194 -0.4823 -0.5489  0.3053
42308SOL     OW35701   0.885   6.884   4.728 -0.2997 -0.1055  0.6069
42308SOL    HW135702   0.864   6.921   4.814  1.1096 -0.3283  1.0749
42308SOL    HW235703   0.933   6.954   4.683  2.1234 -1.1430  1.3898
42309SOL     OW35704   1.811   0.226   6.560 -0.1658 -0.1373 -0.5552
42309SOL    HW135705   1.772   0.155   6.508 -0.6940  0.2697 -0.7313
42309SOL    HW235706   1.844   0.288   6.495  2.5392 -1.3390 -0.4673
42310SOL     OW35707   1.984   1.202  11.515 -0.2425  0.0400 -0.4407
42310SOL    HW135708   1.890   1.195  11.534  0.0460 -2.1392  0.3847
42310SOL    HW235709   1.988   1.241  11.428 -1.8503  1.4763  0.0632
42311SOL     OW35710  11.788   0.602   5.965  0.2914  0.2740 -0.2037
42311SOL    HW135711  11.872   0.611   5.921 -0.0497  1.9467 -0.5930
42311SOL    HW235712  11.734   0.673   5.929 -1.6341 -1.3549 -0.7185
42312SOL     OW35713   3.019   8.436  10.486  0.4831 -0.3057 -0.1523
42312SOL    HW135714   3.006   8.342  10.474 -1.8926 -0.0281 -0.0982
42312SOL    HW235715   3.034   8.470  10.397 -0.2047 -0.5285 -0.3541
42313SOL     OW35716   9.090   0.172   3.676  0.6274 -0.0416 -0.2751
42313SOL    HW135717   9.088   0.106   3.607 -1.3949 -0.1149 -0.1975
42313SOL    HW235718   9.021   0.234   3.652  0.3294  0.2945  1.3157
42314SOL     OW35719   6.808   6.910   2.418 -0.4007 -0.3735 -0.0377
42314SOL    HW135720   6.829   6.882   2.507 -0.9116 -0.0539  0.1881
42314SOL    HW235721   6.773   6.831   2.377  1.2220 -0.9281 -0.4368
42315SOL     OW35722   2.484   6.129   1.227  0.0379  0.1027 -0.4214
42315SOL    HW135723   2.465   6.035   1.225  0.8798 -0.0843 -0.1672
42315SOL    HW235724   2.551   6.141   1.159  0.6846  0.3285  0.2434
42316SOL     OW35725   7.314   3.966   6.424 -0.0554  0.3927 -0.1318
42316SOL    HW135726   7.380   3.989   6.490 -0.2715  1.8306 -0.3757
42316SOL    HW235727   7.354   3.895   6.373 -0.2109 -1.3399  2.0249
42317SOL     OW35728   2.427   3.094  10.404  1.0944  0.0291 -0.2022
42317SOL    HW135729   2.403   3.089  10.311 -0.0564  0.4362  0.0529
42317SOL    HW235730   2.431   3.188  10.422 -2.7665  0.1109  1.0953
42318SOL     OW35731   7.204   1.374   8.074  0.5390 -0.2970 -0.1437
42318SOL    HW135732   7.279   1.432   8.083  1.3862 -1.6481  3.0559
42318SOL    HW235733   7.240   1.293   8.037 -0.0094  0.0570 -1.5207
42319SOL     OW35734  11.316   1.152   9.097 -0.1511  0.1551 -0.2398
42319SOL    HW135735  11.310   1.107   9.012  1.4368 -0.3858 -0.0988
42319SOL    HW235736  11.289   1.241   9.079 -0.8924 -0.2272 -1.0822
42320SOL     OW35737   5.394   7.225   9.485 -0.4575 -0.4693 -0.4113
42320SOL    HW135738   5.454   7.272   9.427 -0.4542 -1.1730 -0.9996
42320SOL    HW235739   5.422   7.249   9.573  0.2215 -0.2120 -0.6891
42321SOL     OW35740   4.588   8.109   0.804  0.2492  0.4252 -0.3932
42321SOL    HW135741   4.564   8.190   0.758  3.1066  0.2801 -2.3833
42321SOL    HW235742   4.573   8.129   0.896 -0.9144  2.5365 -0.9672
42322SOL     OW35743   2.902  12.368   6.878 -0.2497 -0.0075 -0.4005
42322SOL    HW135744   2.815  12.343   6.847 -0.1939 -1.1519  0.3259
42322SOL    HW235745   2.911  12.325   6.963  0.2003  1.8164  0.5327
42323SOL     OW35746   7.783   4.531  11.280  0.3263  0.1107  0.1625
42323SOL    HW135747   7.801   4.572  11.364 -2.2457  0.7759  0.4828
42323SOL    HW235748   7.866   4.535  11.232  1.4875  0.9319  2.1383
42324SOL     OW35749   6.609   3.813  10.576  0.1550 -0.0908  0.1251
42324SOL    HW135750   6.583   3.721  10.586 -1.1448  0.5031  3.9604
42324SOL    HW235751   6.541   3.851  10.520 -0.9244 -0.9386  0.8066
42325SOL     OW35752   2.094  10.037   9.614  0.0734  0.1203  0.4079
42325SOL    HW135753   2.051   9.979   9.551 -1.0295  1.0225  0.2974
42325SOL    HW235754   2.172   9.989   9.642 -0.2469 -0.9484 -0.4778
42326SOL     OW35755  11.061   2.789   3.365  0.1386 -0.0850 -0.6811
42326SOL    HW135756  11.084   2.773   3.456  1.1618  1.0669 -0.7136
42326SOL    HW235757  11.031   2.880   3.363 -2.4919 -0.8538 -1.0499
42327SOL     OW35758   3.259   8.080  12.166  0.1717  0.1964 -0.4814
42327SOL    HW135759   3.324   8.080  12.236 -0.1921  1.5315 -0.1061
42327SOL    HW235760   3.299   8.029  12.096  0.5480 -1.1979  0.6786
42328SOL     OW35761   4.352   8.211   4.478  0.8389  0.5616  0.3723
42328SOL    HW135762   4.262   8.241   4.490  1.6459  3.9531 -0.8117
42328SOL    HW235763   4.352   8.167   4.392 -0.0676 -1.6423  1.4306
42329SOL     OW35764  11.338   4.577   3.128 -0.5364  0.2999 -0.0959
42329SOL    HW135765  11.266   4.586   3.192 -0.7023  0.7885 -0.3446
42329SOL    HW235766  11.339   4.661   3.082 -0.2530  0.0413 -0.5667
42330SOL     OW35767  10.300  10.348   4.919 -0.0555  0.4694  0.6785
42330SOL    HW135768  10.312  10.442   4.903 -1.8581  0.8696  1.4609
42330SOL    HW235769  10.365  10.327   4.986 -0.3695  1.4283  1.3145
42331SOL     OW35770  10.903   3.927   9.077  1.1534 -0.2450  0.8667
42331SOL    HW135771  10.914   3.953   8.985 -1.3182 -1.4281  0.1423
42331SOL    HW235772  10.860   4.002   9.118  0.6466 -0.3889  0.6034
42332SOL     OW35773   4.210   4.530   2.836  0.3647 -0.1081 -0.1337
42332SOL    HW135774   4.272   4.595   2.801  0.7594 -1.2304 -1.6246
42332SOL    HW235775   4.253   4.497   2.916  1.3712 -0.3410 -0.7464
42333SOL     OW35776   1.695   6.799   4.575  0.4119 -0.5193  0.5233
42333SOL    HW135777   1.663   6.728   4.519 -2.0593 -0.4831  1.7467
42333SOL    HW235778   1.777   6.765   4.612  1.2824 -1.1405 -1.8357
42334SOL     OW35779  10.013  12.167  12.588 -0.2843 -1.0354  0.4952
42334SOL    HW135780   9.948  12.193  12.522  0.9705  1.4685  0.1314
42334SOL    HW235781  10.077  12.238  12.588  0.9293 -2.0219  2.9084
42335SOL     OW35782  10.900   1.296   5.614 -0.3410 -0.3538 -0.6368
42335SOL    HW135783  10.833   1.361   5.592 -1.0644 -0.5664  0.8605
42335SOL    HW235784  10.923   1.256   5.529 -0.5945  1.1393 -1.4451
42336SOL     OW35785   3.435   3.932  12.241  0.1045  0.1844 -0.1004
42336SOL    HW135786   3.401   3.883  12.316  0.0637 -0.2736 -0.4134
42336SOL    HW235787   3.359   3.941  12.182 -0.3344  2.0673  0.6746
42337SOL     OW35788  11.907   9.327   5.681 -0.3090  1.1876  0.2776
42337SOL    HW135789  11.930   9.408   5.726  2.1839  0.0474  1.2493
42337SOL    HW235790  11.913   9.259   5.748  2.7154 -0.4609 -1.4419
42338SOL     OW35791  11.716   0.613   0.708 -0.1522  0.0574 -0.4615
42338SOL    HW135792  11.801   0.631   0.750 -0.0552 -0.0535 -0.6108
42338SOL    HW235793  11.735   0.545   0.644 -0.7629 -1.6475  1.0704
42339SOL     OW35794  10.391   2.121   3.949 -0.2098  0.1198  0.2704
42339SOL    HW135795  10.316   2.064   3.967 -1.1294  0.5301 -1.9664
42339SOL    HW235796  10.420   2.095   3.861  0.4524  1.8868 -0.0670
42340SOL     OW35797  10.894   1.564   0.376  0.1128 -0.1514  0.6792
42340SOL    HW135798  10.815   1.617   0.387 -0.6234 -1.3766  1.5530
42340SOL    HW235799  10.899   1.546   0.283 -1.3184 -1.0285  0.7405
42341SOL     OW35800   8.517   5.869   8.618 -0.2319 -0.2903  0.2635
42341SOL    HW135801   8.612   5.861   8.612 -0.2942 -0.9275 -0.0092
42341SOL    HW235802   8.500   5.963   8.615  0.4053 -0.1638  0.5928
42342SOL     OW35803   9.921   5.692   8.615 -0.2392 -0.0421 -0.3478
42342SOL    HW135804   9.893   5.653   8.532  0.9367 -0.6411 -0.4725
42342SOL    HW235805   9.977   5.765   8.589 -1.1119  0.7383 -0.0859
42343SOL     OW35806   7.469   5.910   0.925 -0.5646 -0.3585  0.2499
42343SOL    HW135807   7.526   5.981   0.954 -1.7477  1.9307 -2.5934
42343SOL    HW235808   7.523   5.858   0.865 -0.6162  0.0370 -0.1395
42344SOL     OW35809  10.426   3.000   5.984  0.0175 -0.6620 -0.4392
42344SOL    HW135810  10.420   2.934   5.915 -1.5356 -1.4551  0.4171
42344SOL    HW235811  10.512   2.985   6.023 -0.2433 -2.0946 -0.3578
42345SOL     OW35812   2.050   7.047   4.575  0.4596 -0.3078  0.4473
42345SOL    HW135813   2.070   7.123   4.629  0.6306  0.3913 -0.5779
42345SOL    HW235814   2.103   6.976   4.613  1.6201  0.4930  0.3868
42346SOL     OW35815   6.973   8.502   5.046 -0.2707 -0.1321  0.3718
42346SOL    HW135816   6.893   8.466   5.006  0.2368  0.3985 -1.2242
42346SOL    HW235817   7.043   8.471   4.988  0.1925  3.6250 -1.3915
42347SOL     OW35818   2.946  11.673   8.807 -0.1483 -0.2349  0.2472
42347SOL    HW135819   2.863  11.646   8.848 -0.0196 -0.1101  0.5904
42347SOL    HW235820   2.956  11.613   8.733  0.2581 -1.3134  1.1492
42348SOL     OW35821   1.655   7.105  10.166  0.2940 -0.0360 -0.3901
42348SOL    HW135822   1.664   7.052  10.246  2.3285 -1.8977 -1.7473
42348SOL    HW235823   1.592   7.057  10.113 -0.5631  0.8582 -0.2145
42349SOL     OW35824   2.105   1.615   5.302 -0.3586 -0.2174  0.3384
42349SOL    HW135825   2.035   1.616   5.237 -1.1142 -0.4134  1.1437
42349SOL    HW235826   2.176   1.666   5.261 -1.9156  2.3177  0.5651
42350SOL     OW35827   6.548  11.167  12.013 -0.2807  0.0557 -1.0642
42350SOL    HW135828   6.498  11.236  11.970  0.5803  1.7515  0.5316
42350SOL    HW235829   6.613  11.213  12.066 -1.3701 -1.8431  2.2232
42351SOL     OW35830   4.075   1.632   3.709 -0.6679 -0.1687 -0.2632
42351SOL    HW135831   4.080   1.712   3.656 -1.6699 -0.3345 -0.6325
42351SOL    HW235832   4.060   1.562   3.645  1.0264 -0.7890 -0.0332
42352SOL     OW35833   8.660  10.684   3.349 -0.4506 -0.8533  0.1415
42352SOL    HW135834   8.685  10.613   3.290  0.6746  0.4104 -0.9732
42352SOL    HW235835   8.645  10.759   3.291  1.3814  0.6258  1.4550
42353SOL     OW35836   8.147   3.977  11.801 -0.5006  0.1667 -0.3039
42353SOL    HW135837   8.195   4.039  11.747 -1.0623 -0.0497 -1.0678
42353SOL    HW235838   8.215   3.929  11.848  0.0070  0.2576 -0.9255
42354SOL     OW35839  12.152   3.354   9.215 -0.2710  0.0399  0.0299
42354SOL    HW135840  12.168   3.261   9.225  0.7097  0.2072  0.1006
42354SOL    HW235841  12.231   3.396   9.248 -0.7629  0.9019  0.1464
42355SOL     OW35842   3.477   3.610  11.399  0.2001  0.0317 -0.7690
42355SOL    HW135843   3.416   3.586  11.329 -2.3386  3.4224 -0.0218
42355SOL    HW235844   3.426   3.598  11.479  1.5015  0.3740  0.1328
42356SOL     OW35845   2.915   9.542   7.472  0.0590  0.0433 -0.0923
42356SOL    HW135846   2.904   9.534   7.567  1.7463 -1.6221  0.0171
42356SOL    HW235847   2.850   9.607   7.446 -1.1973 -0.2484  2.0476
42357SOL     OW35848   0.792   4.520   5.942 -0.6824  0.2623 -0.7552
42357SOL    HW135849   0.828   4.513   6.031  2.7093  2.9406 -1.6801
42357SOL    HW235850   0.847   4.462   5.889 -2.1213 -0.6544 -1.2996
42358SOL     OW35851  11.469   0.098   6.889 -0.3907 -0.1847  0.6591
42358SOL    HW135852  11.544   0.041   6.907  1.4372  2.1140  0.8023
42358SOL    HW235853  11.488   0.137   6.804 -0.6669  1.4746  1.3051
42359SOL     OW35854   4.038   5.425   6.151 -0.1070  0.3738  0.7394
42359SOL    HW135855   4.128   5.406   6.125  0.6661  1.6009  2.3533
42359SOL    HW235856   3.993   5.341   6.146  1.2601 -0.3621  0.4374
42360SOL     OW35857   6.353   5.555  10.901 -0.2437  0.1646 -0.7677
42360SOL    HW135858   6.369   5.505  10.820 -0.7316 -1.3008  0.0039
42360SOL    HW235859   6.287   5.503  10.948 -1.7438  2.2163 -0.4974
42361SOL     OW35860   0.965   1.775  12.400 -0.1027  0.0098  0.4044
42361SOL    HW135861   0.952   1.688  12.363  0.7674  0.1579 -0.2846
42361SOL    HW235862   0.906   1.831  12.350 -0.3645 -0.1069  0.5766
42362SOL     OW35863  10.935   9.760   9.898  0.4395 -0.0894 -0.2097
42362SOL    HW135864  10.845   9.729   9.911  0.5144 -0.4490 -0.5415
42362SOL    HW235865  10.986   9.680   9.887  0.5539  0.1577 -1.6459
42363SOL     OW35866   8.016   7.933  12.483  0.6376  0.3906  0.1556
42363SOL    HW135867   8.076   7.944  12.410  0.3629  0.7529 -0.0181
42363SOL    HW235868   8.043   7.851  12.525  1.2914  0.5881  0.1225
42364SOL     OW35869   0.459  11.164  10.568  0.2763 -0.5113 -0.5422
42364SOL    HW135870   0.454  11.194  10.477  4.2853 -1.2796 -1.1887
42364SOL    HW235871   0.479  11.243  10.618 -1.9254 -0.0889 -0.2446
42365SOL     OW35872   9.394   8.243   4.351 -0.0563 -0.0497  0.1943
42365SOL    HW135873   9.482   8.276   4.366 -0.1318 -0.7195  2.3563
42365SOL    HW235874   9.395   8.153   4.383 -1.1843 -0.5298 -1.0175
42366SOL     OW35875   3.640   8.166   4.407  0.1207  0.2322 -1.1163
42366SOL    HW135876   3.569   8.123   4.455  0.8269  0.2261 -0.0274
42366SOL    HW235877   3.682   8.095   4.358  0.3343 -0.0660 -0.5198
42367SOL     OW35878   4.311   6.959  11.813 -0.1145  0.0622  0.4191
42367SOL    HW135879   4.297   6.959  11.718 -0.1084  2.4563  0.3552
42367SOL    HW235880   4.384   6.899  11.827  0.6300  0.5188 -1.2368
42368SOL     OW35881   2.968  10.051   5.369  0.4081  0.1020 -0.2673
42368SOL    HW135882   2.921   9.994   5.307  1.3509 -0.0719 -0.8326
42368SOL    HW235883   2.932  10.026   5.455  0.1021 -0.6540 -0.5995
42369SOL     OW35884   8.341   5.449   1.926  0.1746 -0.2302  0.5837
42369SOL    HW135885   8.296   5.440   1.842 -0.4596  1.6391  0.6620
42369SOL    HW235886   8.352   5.360   1.957  1.2087 -1.0497 -1.8550
42370SOL     OW35887   0.570   2.154   6.864 -0.0815 -0.2258  0.3061
42370SOL    HW135888   0.569   2.237   6.912  2.7309  0.1455 -0.0978
42370SOL    HW235889   0.646   2.107   6.897 -0.5808 -1.8880 -0.7458
42371SOL     OW35890   4.078   9.400   7.829 -0.2663 -0.4072  0.1593
42371SOL    HW135891   4.127   9.471   7.786 -0.0593  1.0486  2.6388
42371SOL    HW235892   4.144   9.346   7.872 -0.5970 -0.5919  0.4426
42372SOL     OW35893   1.361   1.351   6.400 -0.8163 -0.1323 -0.1608
42372SOL    HW135894   1.310   1.419   6.443 -1.6050 -0.0637 -1.1736
42372SOL    HW235895   1.433   1.397   6.358  0.3822 -0.2704  1.6082
42373SOL     OW35896  11.941   2.198   6.798 -0.1214 -0.4761  0.3122
42373SOL    HW135897  11.902   2.278   6.833  1.4602  0.1554  0.7064
42373SOL    HW235898  11.890   2.128   6.837 -0.6455  0.2984  1.0686
42374SOL     OW35899   7.428   7.066   7.177 -0.2149  0.0737  0.7297
42374SOL    HW135900   7.383   6.994   7.222 -1.4751  0.1831 -0.2942
42374SOL    HW235901   7.455   7.028   7.094 -0.0730  0.5296  0.5682
42375SOL     OW35902   5.372   3.860   8.935 -0.1261 -0.0656  0.2317
42375SOL    HW135903   5.393   3.941   8.888  0.9429 -0.4654 -0.0155
42375SOL    HW235904   5.286   3.876   8.974  0.4930  1.5700  1.0312
42376SOL     OW35905   8.985   2.327   9.063  0.4001 -0.4282 -0.3090
42376SOL    HW135906   9.075   2.362   9.066 -0.4945  1.9632  1.0190
42376SOL    HW235907   8.944   2.375   8.991 -0.0334 -0.9949 -0.4441
42377SOL     OW35908   5.438   3.357   1.243  0.3113  0.5557  0.6818
42377SOL    HW135909   5.430   3.416   1.317 -0.0915 -0.7738  1.7370
42377SOL    HW235910   5.438   3.269   1.281  0.1307 -0.1713 -0.8829
42378SOL     OW35911   9.138   4.971   0.441 -0.2507  0.4851 -0.3510
42378SOL    HW135912   9.192   4.977   0.520 -0.1740  1.6741 -0.4823
42378SOL    HW235913   9.057   5.016   0.464  0.5086  2.5909 -1.5378
42379SOL     OW35914   0.269   6.553   7.803  0.1539 -0.1305  0.2364
42379SOL    HW135915   0.345   6.574   7.749  1.7747  1.3007  2.8495
42379SOL    HW235916   0.217   6.634   7.805  0.0651 -0.1948  0.7284
42380SOL     OW35917  10.547   6.353   4.584 -0.3144 -0.4902  0.1094
42380SOL    HW135918  10.459   6.388   4.577 -0.0003  0.4320  0.6273
42380SOL    HW235919  10.594   6.392   4.511 -0.1236 -0.2966  0.3313
42381SOL     OW35920   5.358  10.359   7.586  0.2100 -0.1904  0.1547
42381SOL    HW135921   5.368  10.270   7.622  3.1909  0.4882  1.2961
42381SOL    HW235922   5.345  10.414   7.663  0.5374  0.6014 -0.3480
42382SOL     OW35923   0.059  12.386  10.113  0.2223  0.5937  0.2016
42382SOL    HW135924   0.030  12.361  10.026  0.9402  1.4423 -0.3057
42382SOL    HW235925   0.087  12.304  10.154 -0.4832  0.1365 -0.2195
42383SOL     OW35926   2.741   7.376   6.735  0.6028  0.6065 -0.3463
42383SOL    HW135927   2.800   7.410   6.667  0.4225 -0.3935 -1.0193
42383SOL    HW235928   2.659   7.422   6.719  0.8089  1.0198 -0.2466
42384SOL     OW35929   1.535   6.923  12.110  0.8488  0.0861 -0.8256
42384SOL    HW135930   1.607   6.958  12.162  1.2082 -0.3700 -1.0175
42384SOL    HW235931   1.472   6.995  12.106  0.7100  0.0537  0.4296
42385SOL     OW35932   3.115  10.859   0.754 -0.3379 -0.4550 -0.8651
42385SOL    HW135933   3.153  10.797   0.693  0.9408 -0.4296 -0.1255
42385SOL    HW235934   3.167  10.850   0.833 -0.6210  0.9986 -0.4819
42386SOL     OW35935   5.410   4.820   3.060  0.0694  0.4327 -0.3380
42386SOL    HW135936   5.485   4.877   3.042  1.1367 -0.6447  0.4906
42386SOL    HW235937   5.410   4.810   3.155 -0.1337 -0.8554 -0.4518
42387SOL     OW35938  11.332   5.408  11.621  0.1152 -0.5544  0.0311
42387SOL    HW135939  11.274   5.444  11.554  0.4931 -0.7358 -0.4003
42387SOL    HW235940  11.387   5.482  11.647  2.9017 -1.3123 -2.9421
42388SOL     OW35941   0.913   5.849   9.293 -0.6144 -0.1659 -0.3098
42388SOL    HW135942   0.843   5.904   9.328 -2.0643 -0.6182 -2.3016
42388SOL    HW235943   0.989   5.869   9.347 -2.6088 -0.8215  3.0093
42389SOL     OW35944   4.588  10.628   3.176 -0.0261  0.3061  0.1521
42389SOL    HW135945   4.541  10.589   3.249  0.4001  1.4278  1.0601
42389SOL    HW235946   4.616  10.713   3.209 -2.6135  2.3055 -2.3525
42390SOL     OW35947   6.784  12.390   2.863 -0.0527 -0.1685  0.4675
42390SOL    HW135948   6.870  12.348   2.865  0.3039  0.4586 -0.6058
42390SOL    HW235949   6.803  12.483   2.848 -0.9328 -0.3038 -2.1084
42391SOL     OW35950   4.694   5.779  10.466 -0.2852  0.0875 -0.3086
42391SOL    HW135951   4.708   5.858  10.414 -2.7116 -0.8857 -2.6613
42391SOL    HW235952   4.760   5.717  10.435 -1.4972 -0.3705 -2.1715
42392SOL     OW35953  10.213   6.953   8.034 -0.0001  0.4083 -0.6632
42392SOL    HW135954  10.237   6.861   8.022 -1.1735  0.0039 -0.0532
42392SOL    HW235955  10.243   6.974   8.122 -0.5462  0.3235 -0.4505
42393SOL     OW35956  12.441   6.194   4.296  0.3409 -0.0281 -0.1964
42393SOL    HW135957  12.452   6.250   4.219  1.7583 -0.5437 -0.3923
42393SOL    HW235958  12.463   6.106   4.265  2.1842 -0.0578  1.0730
42394SOL     OW35959   2.290  10.187   9.868 -0.1852 -0.5665 -0.3156
42394SOL    HW135960   2.306  10.100   9.833 -0.8079 -1.0006  0.4475
42394SOL    HW235961   2.378  10.225   9.878  0.0480 -0.8062 -1.3666
42395SOL     OW35962   6.844  10.790   2.465  0.2360 -0.1851 -0.3490
42395SOL    HW135963   6.890  10.869   2.493 -0.4177 -0.0020  0.2266
42395SOL    HW235964   6.766  10.823   2.420  0.6640 -0.4918 -1.3464
42396SOL     OW35965   9.301   3.808  11.094 -0.0575 -0.1744  0.0467
42396SOL    HW135966   9.349   3.756  11.159  0.9148 -0.0302 -0.5367
42396SOL    HW235967   9.257   3.875  11.146 -1.0644 -1.3610  0.7802
42397SOL     OW35968   1.504   4.437   0.414  0.3045  0.1108  0.0480
42397SOL    HW135969   1.533   4.528   0.416 -2.0925  0.9587 -0.5104
42397SOL    HW235970   1.434   4.432   0.478 -0.3789 -1.0515 -0.7482
42398SOL     OW35971   2.286   5.439   7.589 -0.0252 -0.2721 -0.7344
42398SOL    HW135972   2.367   5.398   7.618 -0.8241 -1.7894 -0.5391
42398SOL    HW235973   2.272   5.511   7.650  0.4409 -0.8834  0.1071
42399SOL     OW35974   0.616   2.333   6.274  0.1314 -0.0170 -0.1966
42399SOL    HW135975   0.609   2.335   6.179  0.8073 -0.2533 -0.2496
42399SOL    HW235976   0.558   2.261   6.300  0.2913 -0.2439 -0.4603
42400SOL     OW35977  10.344   2.268   9.305 -0.1037  0.4808 -0.0301
42400SOL    HW135978  10.330   2.358   9.334 -0.2190  0.7197 -0.7917
42400SOL    HW235979  10.412   2.234   9.364  0.7430  1.4250 -0.4209
42401SOL     OW35980   0.798   8.094   7.609  0.5484  0.0221  0.3223
42401SOL    HW135981   0.864   8.025   7.601  0.3460 -0.0484 -0.9709
42401SOL    HW235982   0.825   8.160   7.545 -0.7524 -0.1351 -0.4340
42402SOL     OW35983   5.589   5.921   9.521  0.2255 -0.3307 -0.6724
42402SOL    HW135984   5.497   5.931   9.544  0.8147 -0.2594  1.9406
42402SOL    HW235985   5.608   5.997   9.466 -0.9207  0.4653 -0.0062
42403SOL     OW35986  11.521   7.121   5.673  0.3792 -0.1448  0.7406
42403SOL    HW135987  11.500   7.137   5.581 -0.3370  1.8766  1.2053
42403SOL    HW235988  11.481   7.037   5.693 -0.1921 -0.2018 -0.5669
42404SOL     OW35989   6.922   8.269  11.901 -0.3125 -0.0641 -0.0751
42404SOL    HW135990   6.997   8.277  11.842  0.4166 -1.1610  0.6648
42404SOL    HW235991   6.921   8.352  11.950 -0.0404  0.2554 -0.6056
42405SOL     OW35992   0.197   6.165   6.595  0.2142 -0.1917  0.2064
42405SOL    HW135993   0.202   6.236   6.531 -0.4551  0.3878  0.7818
42405SOL    HW235994   0.125   6.110   6.565  0.4995 -0.4365 -0.0398
42406SOL     OW35995   1.322   0.328   0.451 -0.1938  0.4499 -0.8538
42406SOL    HW135996   1.361   0.241   0.446 -1.5067 -0.5421  2.7805
42406SOL    HW235997   1.382   0.378   0.505 -2.4829 -0.4338  2.9036
42407SOL     OW35998   8.399   3.874   8.825 -0.0357  0.1719 -0.6978
42407SOL    HW135999   8.420   3.786   8.793  1.0293  1.6043 -4.4869
42407SOL    HW236000   8.320   3.862   8.878 -0.7767 -2.9143 -2.2620
42408SOL     OW36001  11.391   8.990  10.157 -0.4984 -0.1350 -0.4483
42408SOL    HW136002  11.355   9.003  10.244  0.0559  1.9808 -0.4779
42408SOL    HW236003  11.474   8.946  10.171 -1.3089 -1.6132 -0.0976
42409SOL     OW36004   4.270   2.815   9.200 -0.1641 -0.2345 -0.1671
42409SOL    HW136005   4.286   2.721   9.209 -0.5692 -0.5031 -1.9074
42409SOL    HW236006   4.328   2.856   9.264 -0.2410 -1.6728  0.8701
42410SOL     OW36007   0.771   1.658   8.332 -0.5502 -1.1406 -0.0236
42410SOL    HW136008   0.709   1.703   8.274  0.0849 -0.0584  0.1137
42410SOL    HW236009   0.839   1.626   8.273  0.2097  0.1529  0.1298
42411SOL     OW36010   5.388   8.712  10.777 -0.3520  0.2868 -0.5303
42411SOL    HW136011   5.436   8.750  10.850 -0.3493 -1.2148  0.2761
42411SOL    HW236012   5.456   8.682  10.716 -0.3256  0.3691 -0.5412
42412SOL     OW36013   1.068  12.516   9.837 -0.1463 -0.1021 -0.2442
42412SOL    HW136014   1.068  12.420   9.833  0.6589 -0.0836 -1.3402
42412SOL    HW236015   0.977  12.541   9.819 -0.3851 -0.6609  0.1757
42413SOL     OW36016   3.851  10.700   8.696  0.1330 -0.0947  0.6699
42413SOL    HW136017   3.829  10.725   8.607  2.5171 -0.4358 -0.0978
42413SOL    HW236018   3.923  10.759   8.720 -0.0717 -0.4017  2.1643
42414SOL     OW36019   5.343   2.566   2.761  0.0718  0.2680 -0.2768
42414SOL    HW136020   5.341   2.651   2.716 -1.3851  1.2521  1.4997
42414SOL    HW236021   5.382   2.585   2.846  5.2400 -2.0434 -1.7466
42415SOL     OW36022   6.162   5.243   8.684 -0.6985  0.2168  0.0373
42415SOL    HW136023   6.203   5.326   8.659 -0.3713 -0.0420 -0.2969
42415SOL    HW236024   6.103   5.266   8.756 -0.8807  0.8012 -0.2913
42416SOL     OW36025   6.402  11.487  10.996 -0.3591  0.4331 -0.5844
42416SOL    HW136026   6.315  11.527  11.001 -0.9814 -0.8311 -0.7937
42416SOL    HW236027   6.385  11.393  10.999  1.0331  0.1697 -0.3585
42417SOL     OW36028  10.182   7.081  10.602 -0.0424  0.4301 -0.0665
42417SOL    HW136029  10.153   7.160  10.556 -1.2539 -0.6473 -1.2287
42417SOL    HW236030  10.267   7.106  10.640  1.2329  1.3184 -3.1288
42418SOL     OW36031  11.149  10.732  10.951 -0.3302  0.0325 -0.0340
42418SOL    HW136032  11.114  10.738  11.039 -0.8199  0.4044 -0.2465
42418SOL    HW236033  11.217  10.799  10.947 -0.8461  0.5581 -0.1740
42419SOL     OW36034   6.383   2.785   8.112 -0.2700  0.2778 -0.0931
42419SOL    HW136035   6.294   2.816   8.126 -0.2388 -0.2101  1.3103
42419SOL    HW236036   6.397   2.719   8.179  1.4912  1.0589  0.3850
42420SOL     OW36037   6.951   4.776   2.969 -0.2191  0.5605 -0.3433
42420SOL    HW136038   6.942   4.839   2.898 -1.2271 -0.0584 -0.8005
42420SOL    HW236039   7.045   4.765   2.980 -0.0148  2.2802 -0.1042
42421SOL     OW36040   9.915   6.150   5.300  0.0421 -0.0861 -0.2984
42421SOL    HW136041   9.953   6.071   5.261  0.4674  0.0849 -0.2373
42421SOL    HW236042   9.945   6.149   5.391  0.8828  0.6571 -0.5542
42422SOL     OW36043   1.875   3.976   8.929 -0.0245  0.5255  0.2092
42422SOL    HW136044   1.928   3.937   8.860  0.7651  0.2778  0.9340
42422SOL    HW236045   1.917   3.947   9.010 -0.0479  1.9791  0.7793
42423SOL     OW36046   7.430   3.196  10.523  0.4149  0.1039  0.1305
42423SOL    HW136047   7.435   3.291  10.518 -0.6955  0.1650  0.1168
42423SOL    HW236048   7.439   3.176  10.616 -1.8200  0.4004  0.4662
42424SOL     OW36049   6.069   9.815  10.839  0.4886  0.0460 -0.7560
42424SOL    HW136050   6.021   9.891  10.873  2.2251  0.8056  0.1522
42424SOL    HW236051   6.003   9.761  10.796 -1.5958 -0.0898  2.3112
42425SOL     OW36052   1.105  11.791   4.461 -0.2957  0.1055  0.1096
42425SOL    HW136053   1.115  11.708   4.414  0.4889 -0.5248  1.3483
42425SOL    HW236054   1.011  11.797   4.480 -0.0340 -2.0748  2.6982
42426SOL     OW36055  12.162  10.665   7.594 -0.3114 -0.9865 -0.2110
42426SOL    HW136056  12.066  10.675   7.594 -0.2617 -0.5088 -0.5907
42426SOL    HW236057  12.188  10.682   7.684 -0.7256 -2.5094  0.2285
42427SOL     OW36058   0.858   6.642   4.072  0.2932  0.7432 -0.6513
42427SOL    HW136059   0.850   6.604   3.984 -1.4475 -3.0446  0.8971
42427SOL    HW236060   0.943   6.610   4.104 -0.3521 -0.3575  0.0088
42428SOL     OW36061  10.637   4.921  12.218 -0.1223  0.4103 -0.1714
42428SOL    HW136062  10.683   4.844  12.185  0.9202  0.7940  0.3333
42428SOL    HW236063  10.561   4.930  12.160 -0.4115 -1.1329 -0.0691
42429SOL     OW36064  10.749   9.748   5.029  0.4093  0.3645  0.0471
42429SOL    HW136065  10.733   9.768   4.937 -0.2958 -0.3447  0.0022
42429SOL    HW236066  10.712   9.660   5.041 -0.8170  1.0083  1.3362
42430SOL     OW36067   5.427   4.801   2.801 -0.5774  0.0823  0.4563
42430SOL    HW136068   5.423   4.788   2.896 -1.0176 -0.0456  0.4218
42430SOL    HW236069   5.483   4.878   2.790  2.2588 -1.7995  0.6512
42431SOL     OW36070   3.650  10.553   7.734 -0.0456 -0.0117 -0.4023
42431SOL    HW136071   3.562  10.551   7.695 -0.8759  0.5316  1.3154
42431SOL    HW236072   3.687  10.636   7.704 -1.3369  1.2221  1.2090
42432SOL     OW36073   0.093   1.405   6.524 -0.7222  0.1887  0.0260
42432SOL    HW136074   0.026   1.468   6.549 -0.2493  0.8459 -0.2944
42432SOL    HW236075   0.162   1.459   6.483  0.3799 -0.3513  1.0954
42433SOL     OW36076   7.184   5.413   8.874  0.1633  0.0644  0.1518
42433SOL    HW136077   7.244   5.449   8.940  1.7196 -1.3430 -0.4413
42433SOL    HW236078   7.231   5.423   8.791 -0.6526 -0.6069 -0.4043
42434SOL     OW36079   7.576   5.481   7.667  0.2217  0.2249  0.1317
42434SOL    HW136080   7.572   5.402   7.721 -0.3277  0.7627  0.8930
42434SOL    HW236081   7.517   5.543   7.710  1.9057  1.6361  0.5157
42435SOL     OW36082   9.555  11.466   3.484 -0.1212 -0.5084 -0.0056
42435SOL    HW136083   9.483  11.465   3.421  0.6701  0.2729 -0.9647
42435SOL    HW236084   9.611  11.538   3.455 -0.1792  0.4737  2.1404
42436SOL     OW36085   5.787   5.894  10.209  0.2453  0.0432 -0.3759
42436SOL    HW136086   5.837   5.965  10.167 -0.1041  0.6584  0.2360
42436SOL    HW236087   5.695   5.921  10.199  0.1573  0.3060  0.9372
42437SOL     OW36088   3.973   3.926   0.619 -0.0986 -0.5470  0.0795
42437SOL    HW136089   3.888   3.960   0.592  0.1762  1.2490  1.2700
42437SOL    HW236090   3.971   3.931   0.715  1.7237  0.6150  0.1013
42438SOL     OW36091   3.124   1.892  10.099 -0.2355  0.1276 -0.5759
42438SOL    HW136092   3.068   1.847  10.036  1.5277 -0.1397 -2.0298
42438SOL    HW236093   3.209   1.897  10.056  1.0911 -0.1667  1.8443
42439SOL     OW36094   6.457   1.156   8.247  0.3036 -0.6457 -0.0673
42439SOL    HW136095   6.380   1.100   8.238  0.3659 -0.5901 -1.0263
42439SOL    HW236096   6.515   1.108   8.307 -0.9844 -0.1028  1.7114
42440SOL     OW36097   7.949  11.507   4.730 -0.1813  0.3581 -0.1622
42440SOL    HW136098   8.023  11.527   4.673  0.5088  0.4071  0.7115
42440SOL    HW236099   7.938  11.412   4.722  0.0263  0.3395 -0.2459
42441SOL     OW36100   0.932   0.935   0.095  0.1779  0.8455  0.0658
42441SOL    HW136101   0.853   0.988   0.083  0.4593  1.6311  1.4731
42441SOL    HW236102   0.952   0.903   0.007 -0.0812  2.9822 -0.8454
42442SOL     OW36103   4.092  10.993   3.120 -1.0073  0.0874 -0.5668
42442SOL    HW136104   4.183  10.963   3.117 -0.5884  1.2988 -0.4320
42442SOL    HW236105   4.042  10.920   3.084  0.0106 -0.6160 -0.6010
42443SOL     OW36106  11.642   5.754   4.237  0.1919 -0.9293 -0.5240
42443SOL    HW136107  11.682   5.731   4.153  0.3389  1.0936 -1.0538
42443SOL    HW236108  11.695   5.706   4.302  2.7135  0.6140 -1.2954
42444SOL     OW36109   9.218  11.007   3.696 -0.9035 -0.3710 -0.4799
42444SOL    HW136110   9.219  11.077   3.630 -1.0520 -0.3031 -0.4116
42444SOL    HW236111   9.155  10.944   3.664  0.9234 -1.6392 -1.7240
42445SOL     OW36112  11.696   9.118   8.336  0.3332 -0.0512 -0.2435
42445SOL    HW136113  11.720   9.055   8.268  2.5436  0.7758 -0.3134
42445SOL    HW236114  11.674   9.064   8.412 -0.2251 -0.9487 -1.0298
42446SOL     OW36115  10.431  11.715   9.935 -0.2112  0.4818 -0.1738
42446SOL    HW136116  10.468  11.697  10.021  0.7378 -1.6815 -0.9640
42446SOL    HW236117  10.343  11.750   9.953 -0.2449 -0.4304  1.6521
42447SOL     OW36118   1.728   2.619   9.834 -0.5837  0.0667  0.5267
42447SOL    HW136119   1.668   2.640   9.905 -0.2522  1.3251  0.4526
42447SOL    HW236120   1.783   2.697   9.824  2.1369 -1.5350  1.6418
42448SOL     OW36121  11.515  11.695   4.324  0.3570 -0.4814  0.5870
42448SOL    HW136122  11.446  11.630   4.324  0.0226 -0.1373  0.0812
42448SOL    HW236123  11.495  11.753   4.397 -1.4585  1.2086 -1.1007
42449SOL     OW36124   5.111   6.355   6.925 -0.3772 -0.0897 -0.3891
42449SOL    HW136125   5.161   6.421   6.973 -0.0847  0.7137 -1.7370
42449SOL    HW236126   5.178   6.299   6.885 -0.5242  0.6277 -1.7032
42450SOL     OW36127   6.255   2.367  12.371  0.7972  0.5830  0.5129
42450SOL    HW136128   6.293   2.454  12.356  2.7611  0.3879  3.4438
42450SOL    HW236129   6.217   2.373  12.459 -0.6780 -1.0322  0.0336
42451SOL     OW36130   2.631  12.557   1.178 -0.6160  0.5806  0.1032
42451SOL    HW136131   2.664  12.514   1.257 -0.8168  1.0519  0.4495
42451SOL    HW236132   2.664  12.504   1.106 -0.1120  0.3584  0.4903
42452SOL     OW36133   2.972   6.821   8.979  0.6070 -0.5089  0.5780
42452SOL    HW136134   3.029   6.890   9.014 -0.9889  1.0236  0.3422
42452SOL    HW236135   2.936   6.859   8.898 -0.5780 -1.4697  0.6224
42453SOL     OW36136   2.766   3.496   0.314  0.7915  0.3282  0.1141
42453SOL    HW136137   2.810   3.492   0.229 -0.6020 -1.3247 -0.5748
42453SOL    HW236138   2.692   3.555   0.301 -0.3728 -1.1625 -0.3414
42454SOL     OW36139   4.008   6.494   6.620  0.1465 -0.4787 -0.4995
42454SOL    HW136140   4.101   6.471   6.627  0.2195  0.0498  0.6085
42454SOL    HW236141   3.964   6.412   6.598  1.0768 -0.3309 -3.2185
42455SOL     OW36142   4.703   4.017   1.445 -0.1803 -0.2078 -0.2349
42455SOL    HW136143   4.651   3.939   1.461  0.7408 -0.8770 -0.4600
42455SOL    HW236144   4.700   4.028   1.350 -0.6038  0.2470 -0.1742
42456SOL     OW36145  10.411   2.377   8.333 -0.3119 -0.5133  0.4753
42456SOL    HW136146  10.453   2.397   8.417 -1.5314 -2.6359  1.6866
42456SOL    HW236147  10.450   2.294   8.306  0.0848  0.1617 -1.1101
42457SOL     OW36148   0.486   8.808   7.009 -0.0173  0.3442 -0.0406
42457SOL    HW136149   0.578   8.837   7.012 -0.0866  0.6883 -1.0321
42457SOL    HW236150   0.445   8.853   7.082  1.2119 -2.0836  2.3430
42458SOL     OW36151   3.353   9.119   3.769 -0.2803 -0.3114  0.3008
42458SOL    HW136152   3.299   9.066   3.710  1.0361  0.7168 -1.9289
42458SOL    HW236153   3.290   9.165   3.824 -1.6235 -0.5530 -0.9760
42459SOL     OW36154   0.458   4.709   4.166  0.5385 -0.0201  0.3470
42459SOL    HW136155   0.398   4.773   4.202 -0.7136  0.5930 -2.5239
42459SOL    HW236156   0.401   4.642   4.126  1.6931  0.1298 -1.6983
42460SOL     OW36157   7.245  11.637   5.790 -0.2368 -0.1959 -0.2187
42460SOL    HW136158   7.245  11.604   5.700  1.9186 -1.8113  0.2814
42460SOL    HW236159   7.278  11.563   5.842 -0.3266  1.0763  1.7413
42461SOL     OW36160   2.380   5.303   7.350 -0.4749 -0.2849 -0.6429
42461SOL    HW136161   2.353   5.350   7.429 -0.6948 -0.4870 -0.5948
42461SOL    HW236162   2.311   5.238   7.336  0.4390 -1.4221 -0.0124
42462SOL     OW36163   6.239   1.788   4.180  0.1711  0.2818 -0.0549
42462SOL    HW136164   6.331   1.765   4.169  0.1109  0.2257 -0.4334
42462SOL    HW236165   6.198   1.766   4.097 -0.7410 -2.3814  0.9959
42463SOL     OW36166   4.135   1.987   3.928 -0.0373  0.3048  0.1337
42463SOL    HW136167   4.157   1.894   3.925  1.3452  0.6186 -1.4167
42463SOL    HW236168   4.143   2.011   4.020 -0.9948 -1.2159  0.6495
42464SOL     OW36169  12.376   9.749   1.560  0.3934  0.2294 -0.2470
42464SOL    HW136170  12.346   9.838   1.540  0.6736  0.4515  0.3111
42464SOL    HW236171  12.380   9.706   1.474  1.0886  1.0204 -0.6296
42465SOL     OW36172  10.424   2.856   4.583 -0.9214  0.0055  0.2113
42465SOL    HW136173  10.399   2.941   4.618 -0.4711 -0.1046  0.8180
42465SOL    HW236174  10.473   2.876   4.503  0.3985  0.3959  1.0822
42466SOL     OW36175   0.763  11.243   2.687 -0.2360  0.6855 -0.3040
42466SOL    HW136176   0.841  11.187   2.690  0.2011  1.3064  0.3278
42466SOL    HW236177   0.692  11.184   2.663  0.2131 -0.1530  0.3604
42467SOL     OW36178   8.267   5.631  10.589 -0.3820  0.6889 -0.3608
42467SOL    HW136179   8.300   5.672  10.669  1.0984 -0.2908 -0.4323
42467SOL    HW236180   8.184   5.590  10.615  0.8835 -1.0662  1.1530
42468SOL     OW36181  11.144   7.010   0.662  0.3024  0.3731  0.2006
42468SOL    HW136182  11.153   6.917   0.641 -1.2819  0.1753  0.3494
42468SOL    HW236183  11.148   7.054   0.577  2.0985  0.2912  0.2044
42469SOL     OW36184   0.037   3.680   9.397  0.1269  0.2138  0.2293
42469SOL    HW136185  -0.001   3.752   9.449  2.5069  0.9977  1.0081
42469SOL    HW236186   0.103   3.642   9.454  0.2880 -1.3376 -0.9328
42470SOL     OW36187  10.118   0.961   6.239 -0.2551 -0.0798  0.2882
42470SOL    HW136188  10.041   0.918   6.275 -0.5412  0.4662  0.3470
42470SOL    HW236189  10.113   0.948   6.145 -0.2633 -0.2936  0.3186
42471SOL     OW36190   6.340   0.783   2.876  0.4889 -0.5206 -0.1622
42471SOL    HW136191   6.418   0.785   2.932  0.0349 -0.0252  0.4653
42471SOL    HW236192   6.326   0.875   2.852  0.2581 -0.6447 -0.5074
42472SOL     OW36193   0.100   1.793   3.695  0.2349 -0.1304  0.0630
42472SOL    HW136194   0.019   1.758   3.658 -0.3801 -1.2325  2.2563
42472SOL    HW236195   0.089   1.888   3.691 -0.8294 -0.2568 -0.3533
42473SOL     OW36196  12.383  10.156   0.819  0.0394 -0.4462 -0.7377
42473SOL    HW136197  12.351  10.245   0.807  1.1763 -0.1303 -1.7230
42473SOL    HW236198  12.328  10.103   0.761  0.3643 -0.1234 -1.3603
42474SOL     OW36199   7.599   6.356   7.456  0.1005  0.2957 -0.2616
42474SOL    HW136200   7.686   6.316   7.458 -0.4676 -1.0267  2.3007
42474SOL    HW236201   7.579   6.363   7.363  1.9579 -1.6367 -0.9118
42475SOL     OW36202   8.574  11.759   5.328  0.2556 -0.2373  0.0089
42475SOL    HW136203   8.568  11.692   5.261 -1.1798 -0.4947  0.3497
42475SOL    HW236204   8.552  11.841   5.283 -0.4822 -0.3764  0.1106
42476SOL     OW36205  12.271   1.506  10.210 -0.0123  0.4196 -0.4391
42476SOL    HW136206  12.262   1.427  10.158  1.5402 -1.4622  1.9036
42476SOL    HW236207  12.320   1.567  10.154  2.8584 -1.9990 -0.8338
42477SOL     OW36208   7.531   1.747   8.221 -0.6967 -0.3288  0.2256
42477SOL    HW136209   7.586   1.734   8.298  0.8841 -2.0646 -1.1018
42477SOL    HW236210   7.591   1.780   8.154 -1.7632 -0.0892 -0.6366
42478SOL     OW36211  12.294  10.334   6.008  0.2232 -0.1624 -0.1123
42478SOL    HW136212  12.320  10.370   5.924  1.7718 -0.6368  0.1177
42478SOL    HW236213  12.241  10.402   6.049 -0.1987  0.2312 -1.2907
42479SOL     OW36214   6.472   8.818   9.728 -0.3273 -0.4561 -0.2728
42479SOL    HW136215   6.382   8.787   9.744 -0.4349  0.0391  0.0944
42479SOL    HW236216   6.521   8.791   9.806  0.1798 -1.9627 -1.0701
42480SOL     OW36217  10.723   7.954   3.324 -0.3087  0.2914  0.1722
42480SOL    HW136218  10.712   7.873   3.374 -3.4979  0.6036  0.1740
42480SOL    HW236219  10.738   8.021   3.390 -0.0976  0.0655  0.3571
42481SOL     OW36220   4.398   2.166   6.222  0.0802 -0.1563 -0.7834
42481SOL    HW136221   4.345   2.140   6.298  1.5695  0.4588  0.5109
42481SOL    HW236222   4.446   2.243   6.251  0.8563 -0.0296 -2.2950
42482SOL     OW36223   9.069   5.156   6.962 -0.5692 -0.0352  0.1227
42482SOL    HW136224   9.000   5.115   7.014  0.0708 -1.3845 -0.0514
42482SOL    HW236225   9.113   5.216   7.023 -1.0245 -0.1970  0.6075
42483SOL     OW36226   3.016   5.116   1.523 -0.0613  0.1566  0.0528
42483SOL    HW136227   2.997   5.189   1.581 -2.4487 -1.0123  0.9019
42483SOL    HW236228   2.990   5.147   1.436  0.4790  0.8484  0.1376
42484SOL     OW36229  11.660   7.896   9.851 -0.0409 -0.4070 -0.1901
42484SOL    HW136230  11.730   7.851   9.899  0.6362 -0.9643 -1.6697
42484SOL    HW236231  11.684   7.888   9.759 -0.3802  2.2012 -0.5765
42485SOL     OW36232   3.843   6.828   4.305 -0.3925  0.2356  0.1374
42485SOL    HW136233   3.804   6.914   4.289  0.8825  0.7895 -0.0757
42485SOL    HW236234   3.936   6.845   4.319  0.1281 -1.2236 -1.1962
42486SOL     OW36235  10.716   2.371   7.961 -0.4687 -0.3779  0.4214
42486SOL    HW136236  10.770   2.406   8.032 -0.3516  0.0161  0.1413
42486SOL    HW236237  10.626   2.380   7.992 -0.4367  0.1046  0.3885
42487SOL     OW36238  11.706   9.837   1.168  0.1669 -0.0117 -0.3988
42487SOL    HW136239  11.799   9.826   1.148  0.0177  1.0966 -1.8449
42487SOL    HW236240  11.689   9.774   1.238  2.2637  0.5972  0.7194
42488SOL     OW36241   3.042   1.154   1.303  0.3562  0.3709  0.1943
42488SOL    HW136242   3.048   1.114   1.390  0.0764  1.9225  0.9739
42488SOL    HW236243   3.106   1.107   1.250 -0.2454 -1.3376  0.9274
42489SOL     OW36244   6.042  10.613  12.566  0.0808  0.2307 -0.1311
42489SOL    HW136245   6.059  10.639  12.476  0.7587 -1.6857 -0.6081
42489SOL    HW236246   6.117  10.646  12.615  0.3379  0.2125 -0.5078
42490SOL     OW36247  11.283   2.798   7.781  0.1720 -0.6275 -0.4122
42490SOL    HW136248  11.306   2.884   7.746 -0.1848 -0.7461 -0.9555
42490SOL    HW236249  11.338   2.788   7.859 -0.7836  0.6661  0.4534
42491SOL     OW36250   4.810   8.704   0.289  0.0415  0.4999  0.1190
42491SOL    HW136251   4.761   8.749   0.221 -0.3565 -0.6831 -0.4054
42491SOL    HW236252   4.894   8.750   0.292 -0.5749  1.6655  0.0651
42492SOL     OW36253   9.288   6.359   8.736 -0.1069  0.3330  0.4050
42492SOL    HW136254   9.333   6.438   8.704  3.0064 -1.1172  0.8202
42492SOL    HW236255   9.206   6.356   8.686  0.2582  3.0973 -0.5410
42493SOL     OW36256  10.591   9.569  10.381  0.2560  0.0796 -0.2653
42493SOL    HW136257  10.605   9.663  10.367 -2.6117  0.5574 -0.4522
42493SOL    HW236258  10.618   9.554  10.471 -1.0577  1.5393  0.4131
42494SOL     OW36259   0.511   3.931  10.570 -0.1616  0.1412  0.1392
42494SOL    HW136260   0.482   4.008  10.523  0.9941  0.6327  0.1910
42494SOL    HW236261   0.595   3.956  10.609  1.1231 -1.6579 -1.2761
42495SOL     OW36262   2.444  12.223   7.166  0.3442 -0.2062 -0.4081
42495SOL    HW136263   2.370  12.271   7.129 -0.1632 -0.7820 -0.1479
42495SOL    HW236264   2.431  12.226   7.260  1.8098  1.5318 -0.2050
42496SOL     OW36265   0.020   3.545  12.505  0.4685  0.1965 -0.4197
42496SOL    HW136266  -0.041   3.551  12.579  0.5439 -1.3190 -0.2067
42496SOL    HW236267  -0.037   3.541  12.428  0.3685  0.9488 -0.3910
42497SOL     OW36268   3.141  12.461   7.636 -0.2601 -0.0054  0.4412
42497SOL    HW136269   3.165  12.554   7.637 -0.7723  0.2938 -2.8699
42497SOL    HW236270   3.211  12.419   7.585 -0.4754 -1.2994  1.1818
42498SOL     OW36271   9.627  11.370   0.606 -0.1553  0.2501 -0.1366
42498SOL    HW136272   9.580  11.452   0.592 -0.6316  0.6064  2.8877
42498SOL    HW236273   9.566  11.302   0.576 -1.6880  0.8312  1.4769
42499SOL     OW36274  11.745   8.007   1.947  0.0296 -0.6649  0.6562
42499SOL    HW136275  11.650   7.998   1.944  0.0656 -0.8199 -0.9778
42499SOL    HW236276  11.778   7.927   1.905  0.8292 -0.0535  0.0986
42500SOL     OW36277   9.560   2.838  11.368  0.0399  0.3053  0.3938
42500SOL    HW136278   9.601   2.800  11.445  2.3050 -1.1571 -1.3738
42500SOL    HW236279   9.616   2.913  11.346 -0.4558  0.5851  0.0642
42501SOL     OW36280   7.767  12.319   5.052  0.0717  0.2820 -0.4678
42501SOL    HW136281   7.709  12.247   5.027  0.0780  0.8789 -2.3690
42501SOL    HW236282   7.854  12.291   5.023  0.1234  0.8889 -0.9348
42502SOL     OW36283   1.854   7.728   0.207 -0.3225  0.4608  0.7701
42502SOL    HW136284   1.903   7.752   0.285 -0.4983 -1.4656  1.5380
42502SOL    HW236285   1.762   7.742   0.231 -0.6326 -2.9440  2.1264
42503SOL     OW36286   7.454   9.186  12.332 -0.1953 -0.3440 -0.4304
42503SOL    HW136287   7.416   9.252  12.274  2.2025 -0.4717 -2.2954
42503SOL    HW236288   7.547   9.209  12.336  0.1586 -1.8772  1.3322
42504SOL     OW36289   6.379   1.566   5.045  0.0390  0.4107 -0.1689
42504SOL    HW136290   6.457   1.521   5.076 -0.3758  0.3879  0.8898
42504SOL    HW236291   6.408   1.617   4.969  0.5837 -1.3852 -1.2266
42505SOL     OW36292   0.964   3.383   7.001  0.6295 -0.0718  0.0145
42505SOL    HW136293   0.871   3.373   6.979  0.9947 -0.1692 -1.6607
42505SOL    HW236294   0.988   3.300   7.041  0.0147 -0.0880  0.3584
42506SOL     OW36295  10.190   5.613   3.223  0.4258  0.7063 -0.0881
42506SOL    HW136296  10.157   5.592   3.136 -0.1400  1.1065  0.0282
42506SOL    HW236297  10.151   5.547   3.281 -0.3373  1.2876  0.0778
42507SOL     OW36298   7.991   3.777   0.007  0.0463  0.2001 -0.4517
42507SOL    HW136299   7.961   3.866  -0.010  0.3445  0.3653 -0.1286
42507SOL    HW236300   7.956   3.756   0.094  0.0613  0.0391 -0.4838
42508SOL     OW36301  11.748   0.968   8.506 -0.2972  0.2357  0.1692
42508SOL    HW136302  11.682   1.033   8.482 -0.6228 -0.3829 -0.6520
42508SOL    HW236303  11.812   1.017   8.558 -1.0033  1.0055  0.3307
42509SOL     OW36304  12.141   7.679   7.859 -0.1286  0.2748  0.6318
42509SOL    HW136305  12.204   7.629   7.807 -0.8207  0.8954 -0.8916
42509SOL    HW236306  12.169   7.668   7.949  0.6357 -1.5785  0.2144
42510SOL     OW36307   0.190   3.403   0.734 -0.0788 -0.8950  0.4378
42510SOL    HW136308   0.186   3.311   0.710 -1.0662 -0.7130 -0.1274
42510SOL    HW236309   0.282   3.418   0.757  0.2033 -1.8714 -0.0216
42511SOL     OW36310   1.439   3.969   1.401  0.3236 -0.4815 -0.6276
42511SOL    HW136311   1.499   3.971   1.326  0.8570  0.2526 -0.1895
42511SOL    HW236312   1.457   4.050   1.449 -0.0424 -0.9205  0.2766
42512SOL     OW36313  11.927   1.883   6.067 -0.1773 -0.3278  0.3615
42512SOL    HW136314  11.930   1.904   6.161 -1.8606 -1.3020  0.6540
42512SOL    HW236315  12.006   1.925   6.032 -0.9767  2.5194  1.6920
42513SOL     OW36316   8.706  11.124   1.451 -0.1873 -0.0526  0.2291
42513SOL    HW136317   8.734  11.050   1.397  0.9398  0.3049  0.3100
42513SOL    HW236318   8.661  11.084   1.525 -0.1510 -0.6295 -0.0544
42514SOL     OW36319   9.244   4.015   6.473  0.2462  0.4287 -0.0219
42514SOL    HW136320   9.255   3.951   6.403  0.5405  0.3417  0.1002
42514SOL    HW236321   9.287   3.975   6.549  0.1416  0.6262  0.1430
42515SOL     OW36322   1.766   3.488   1.876  0.0499 -0.1727  0.9578
42515SOL    HW136323   1.819   3.567   1.869  0.3387 -0.4816 -1.2127
42515SOL    HW236324   1.829   3.419   1.895  0.3117 -0.3643 -0.4949
42516SOL     OW36325  11.556   0.557   3.098  0.7254 -0.1490  0.2652
42516SOL    HW136326  11.600   0.640   3.113  0.5829 -0.3914  2.2468
42516SOL    HW236327  11.467   0.572   3.129  0.1932 -0.5471 -0.9938
42517SOL     OW36328   5.178   8.043  11.018 -0.2944 -0.2833  0.2976
42517SOL    HW136329   5.209   8.089  11.096 -0.6870 -1.0622  0.9365
42517SOL    HW236330   5.089   8.075  11.005  0.1731  0.7108 -0.5366
42518SOL     OW36331   6.878   7.882   6.986 -0.0349  0.1972 -0.0544
42518SOL    HW136332   6.952   7.851   6.935 -0.5206  1.1341 -1.3926
42518SOL    HW236333   6.828   7.803   7.007 -0.0785 -0.1786 -1.4824
42519SOL     OW36334   7.823   5.930   1.162  0.3833 -0.1391  0.1447
42519SOL    HW136335   7.810   5.894   1.250 -0.6036 -0.4663 -0.1193
42519SOL    HW236336   7.734   5.941   1.128  0.7707 -0.8329 -1.1392
42520SOL     OW36337   1.925   8.067   4.566  0.4514 -0.2378  0.1841
42520SOL    HW136338   2.004   8.036   4.611 -0.8851 -1.2097  1.9763
42520SOL    HW236339   1.891   8.136   4.623 -1.3467 -1.5677  0.8060
42521SOL     OW36340   0.328  12.455   7.450 -0.4348  0.4094  0.2765
42521SOL    HW136341   0.260  12.446   7.384 -0.1845  1.6287 -0.1692
42521SOL    HW236342   0.312  12.382   7.511 -0.4366 -0.9732 -1.3055
42522SOL     OW36343   9.127   2.213   8.465  0.4073 -0.1857  0.0482
42522SOL    HW136344   9.184   2.139   8.482 -0.4360 -0.7775  0.3554
42522SOL    HW236345   9.041   2.174   8.447 -0.3163  0.7397  1.3036
42523SOL     OW36346   7.011   2.297   7.723 -0.6335 -0.1466 -0.1735
42523SOL    HW136347   7.057   2.284   7.805 -1.9712  0.7172  0.7431
42523SOL    HW236348   7.002   2.392   7.715  1.4289 -0.0338 -2.4638
42524SOL     OW36349  11.390   3.274  12.161 -0.1078 -0.1048 -0.1239
42524SOL    HW136350  11.392   3.195  12.107  1.8745 -0.1742 -0.0357
42524SOL    HW236351  11.339   3.248  12.238 -0.5239 -0.9005 -0.6479
42525SOL     OW36352   3.420   6.633  11.496 -0.0085 -0.1247 -0.7588
42525SOL    HW136353   3.513   6.630  11.474 -0.1176 -1.1002 -1.1529
42525SOL    HW236354   3.418   6.621  11.591  0.3531  2.0180 -0.4221
42526SOL     OW36355   0.332   4.320   0.201  0.1065 -0.7938 -0.0594
42526SOL    HW136356   0.249   4.318   0.248  0.2816 -1.9167  0.2186
42526SOL    HW236357   0.378   4.242   0.231  1.3330 -0.1024 -0.0901
42527SOL     OW36358   1.362   2.323   7.978 -0.5139  0.0986  0.7819
42527SOL    HW136359   1.440   2.378   7.968 -0.3319 -0.4385 -1.0162
42527SOL    HW236360   1.292   2.372   7.936 -0.4494 -0.7799 -0.4216
42528SOL     OW36361   3.687   7.992   5.175  0.1725  0.5139  0.2267
42528SOL    HW136362   3.648   7.907   5.156  0.6973  0.4498 -0.5779
42528SOL    HW236363   3.616   8.042   5.215 -1.0323  0.7037 -2.0164
42529SOL     OW36364   9.948   2.734   2.591  0.5094  0.1300 -0.2972
42529SOL    HW136365   9.856   2.713   2.604  0.2494  1.4434  0.1735
42529SOL    HW236366   9.955   2.827   2.616  1.8896  0.1364 -0.6292
42530SOL     OW36367   9.672   9.199   1.018  0.6131 -0.2909 -0.1095
42530SOL    HW136368   9.712   9.129   0.966 -0.6275 -0.4186 -0.9139
42530SOL    HW236369   9.728   9.275   1.003  2.5114 -1.2812  1.4875
42531SOL     OW36370   6.964   9.149   4.963 -0.6246  0.1424 -0.4394
42531SOL    HW136371   7.001   9.078   4.910  0.3778  0.0063  0.4024
42531SOL    HW236372   6.900   9.105   5.019 -0.3998 -0.0209 -0.3046
42532SOL     OW36373  10.509   6.898   4.048  0.3029  0.4458  0.6572
42532SOL    HW136374  10.433   6.929   4.096 -0.3760  1.4466 -0.9707
42532SOL    HW236375  10.481   6.815   4.009  0.6026  0.0151  1.3322
42533SOL     OW36376   6.834   5.893   3.792 -0.7824 -0.7793  0.2409
42533SOL    HW136377   6.741   5.910   3.801 -0.7267 -0.5755  0.4491
42533SOL    HW236378   6.876   5.979   3.804 -0.5757 -0.8531  0.0648
42534SOL     OW36379   0.549  10.400   9.377 -0.2182  0.2094  0.3462
42534SOL    HW136380   0.586  10.431   9.294  1.3542  0.0514  0.9390
42534SOL    HW236381   0.517  10.479   9.421 -1.3072  0.2607 -0.5000
42535SOL     OW36382   8.706   4.349   2.022  0.1400  0.5117 -0.0864
42535SOL    HW136383   8.793   4.318   2.048 -1.0274 -1.8801  1.3548
42535SOL    HW236384   8.701   4.331   1.928  0.7021 -0.7587  0.1040
42536SOL     OW36385   4.639   2.784   9.997 -0.4703 -0.0750  0.0361
42536SOL    HW136386   4.713   2.843   9.982 -0.4291  0.4137  1.9160
42536SOL    HW236387   4.650   2.714   9.933  2.1108 -0.4614  0.8035
42537SOL     OW36388   5.326   2.213   3.208 -0.1115  0.2113 -0.3481
42537SOL    HW136389   5.310   2.224   3.302 -0.4058  0.6529 -0.4425
42537SOL    HW236390   5.393   2.145   3.203  0.7127  0.9402  0.2386
42538SOL     OW36391  12.454   8.719   0.403 -0.3482  0.3111  0.1665
42538SOL    HW136392  12.457   8.639   0.456  1.4741  0.3049  0.1231
42538SOL    HW236393  12.516   8.703   0.332 -3.0096  0.1811 -2.2825
42539SOL     OW36394   8.561  12.387   3.250  0.1211  0.1091  0.0343
42539SOL    HW136395   8.532  12.372   3.160 -1.8310 -1.0938  0.7943
42539SOL    HW236396   8.656  12.392   3.245  0.1742 -1.8586 -1.8528
42540SOL     OW36397   7.923   4.070  10.710  0.1227  0.2126  0.3871
42540SOL    HW136398   7.856   4.127  10.673  1.2376  1.5087  0.2886
42540SOL    HW236399   7.981   4.050  10.637  0.5096  0.0893  0.7229
42541SOL     OW36400   3.414  12.140   1.210 -0.0195  0.1221 -0.4279
42541SOL    HW136401   3.481  12.183   1.157 -0.1334  0.7990 -0.0294
42541SOL    HW236402   3.347  12.112   1.147  1.0687 -1.4376 -0.9603
42542SOL     OW36403   6.286  11.443   9.876 -0.1061  0.2943  0.0908
42542SOL    HW136404   6.261  11.473   9.789  0.5911 -0.9843 -0.5848
42542SOL    HW236405   6.364  11.494   9.898  0.8661 -0.7148 -0.8933
42543SOL     OW36406  11.881   1.503   4.960 -0.8492  0.7179  0.2219
42543SOL    HW136407  11.940   1.565   5.003 -1.8985  1.8125  0.1250
42543SOL    HW236408  11.928   1.475   4.882 -0.2211  1.1215  0.4457
42544SOL     OW36409   5.925   3.502   9.537  0.3549  0.4934  0.0325
42544SOL    HW136410   5.974   3.460   9.467 -0.2950  1.2069 -0.8641
42544SOL    HW236411   5.835   3.504   9.507 -0.1594 -0.2367  1.4026
42545SOL     OW36412   6.900   6.324  11.545  1.1947  0.2219 -0.4186
42545SOL    HW136413   6.880   6.389  11.613  1.0520 -0.8141  0.5665
42545SOL    HW236414   6.820   6.273  11.537  1.2874  0.2019 -1.2286
42546SOL     OW36415   5.231  11.353   2.834 -0.9403  0.1706  0.1662
42546SOL    HW136416   5.144  11.314   2.824 -0.8742 -0.0383  0.4043
42546SOL    HW236417   5.240  11.369   2.928  0.2469 -2.1081  0.5025
42547SOL     OW36418   4.058   9.965   5.681 -0.0204 -0.5751 -0.4469
42547SOL    HW136419   4.079  10.004   5.596 -0.5196  0.8016  0.0162
42547SOL    HW236420   4.137   9.979   5.734  0.4311 -1.7751 -0.7788
42548SOL     OW36421   8.009   6.593   7.334  0.5712 -0.0990  0.1308
42548SOL    HW136422   8.087   6.625   7.379  0.5070  0.9906 -0.5033
42548SOL    HW236423   8.042   6.527   7.273  0.6659 -1.5814  1.6783
42549SOL     OW36424   5.149  10.973  10.065  0.5655  0.3921 -0.6361
42549SOL    HW136425   5.098  11.053  10.051  0.0294 -0.1911 -2.3285
42549SOL    HW236426   5.084  10.902  10.060  1.2118 -0.2207 -0.4578
42550SOL     OW36427   2.748  11.073   2.641  0.2170 -0.0819 -0.0036
42550SOL    HW136428   2.774  11.146   2.586  1.8104 -1.1198 -0.7145
42550SOL    HW236429   2.799  10.999   2.608 -0.9550 -1.4053  1.0124
42551SOL     OW36430   5.607   5.487   1.921  0.2582  0.2796 -0.3838
42551SOL    HW136431   5.563   5.439   1.991 -0.7778 -0.5258 -1.5375
42551SOL    HW236432   5.689   5.439   1.906  0.2480  0.1592 -0.0592
42552SOL     OW36433   4.452   9.304   1.900  0.1810 -0.1608 -0.3105
42552SOL    HW136434   4.511   9.358   1.951 -0.1570  2.6168 -2.6074
42552SOL    HW236435   4.510   9.247   1.849  0.5848 -1.0794  1.0987
42553SOL     OW36436   2.869   3.923   4.758 -0.0409 -0.1757  0.6591
42553SOL    HW136437   2.957   3.918   4.797 -1.0930  1.5080  3.5043
42553SOL    HW236438   2.835   3.834   4.763  0.6041 -0.3726  1.8413
42554SOL     OW36439   4.697   6.323   9.391  0.1017  0.1530 -0.2241
42554SOL    HW136440   4.616   6.310   9.440 -0.4526 -0.2328 -1.2127
42554SOL    HW236441   4.704   6.246   9.336  1.1567  0.1832 -0.1517
42555SOL     OW36442   3.181   1.056   6.201 -0.3462 -0.2232 -0.1145
42555SOL    HW136443   3.133   1.096   6.128  2.0584 -1.7197 -2.7105
42555SOL    HW236444   3.166   1.116   6.274 -2.7305  1.5107 -1.8305
42556SOL     OW36445   1.496   4.723   8.458 -0.1304  0.1180 -0.4435
42556SOL    HW136446   1.454   4.639   8.439 -0.0669 -0.6482  2.2770
42556SOL    HW236447   1.541   4.708   8.541 -0.1586  2.8603  0.1583
42557SOL     OW36448   6.667   3.923   3.367 -0.4727  0.3028  0.0058
42557SOL    HW136449   6.716   4.003   3.349 -0.2800  0.4582  1.1163
42557SOL    HW236450   6.596   3.923   3.304  0.6622  0.3230 -1.3042
42558SOL     OW36451   9.398   0.073   4.881 -0.3719  0.2446 -0.1077
42558SOL    HW136452   9.318   0.089   4.830 -0.6297  2.2247  0.8294
42558SOL    HW236453   9.414  -0.021   4.871 -2.2384 -0.0155 -1.1549
42559SOL     OW36454   5.677   8.623   7.794  0.2121  0.0072 -0.2694
42559SOL    HW136455   5.599   8.668   7.826 -0.2569  0.3208 -1.7900
42559SOL    HW236456   5.737   8.693   7.768  1.0108 -0.2324  0.8528
42560SOL     OW36457   8.452   1.444  10.177 -0.5840  0.2558  0.6589
42560SOL    HW136458   8.538   1.416  10.211 -0.8153 -0.9476  0.2906
42560SOL    HW236459   8.410   1.487  10.252 -0.8401 -1.8125  1.7824
42561SOL     OW36460   3.602   6.869   6.271  0.4692  0.2194  0.1542
42561SOL    HW136461   3.680   6.924   6.265  0.5624 -0.0316 -1.0220
42561SOL    HW236462   3.559   6.878   6.186  0.0626 -0.8915  0.2252
42562SOL     OW36463   7.380   0.057   2.802  0.1694  0.3872 -0.4193
42562SOL    HW136464   7.472   0.071   2.779 -0.1898  0.3337 -1.9757
42562SOL    HW236465   7.335   0.136   2.772 -0.2454  0.6239  0.7540
42563SOL     OW36466  10.981  11.828   7.797 -0.3185  0.1311  0.1985
42563SOL    HW136467  11.006  11.906   7.748 -0.5834  1.2947  1.8164
42563SOL    HW236468  10.946  11.768   7.732  0.1385  1.2591 -1.1270
42564SOL     OW36469  10.161  11.003   5.820 -0.2208  0.1146 -0.6602
42564SOL    HW136470  10.184  10.927   5.767 -0.8990 -0.5117 -0.0688
42564SOL    HW236471  10.234  11.012   5.882 -0.4927 -0.5257 -0.2347
42565SOL     OW36472   3.603   0.093   6.399 -0.5249  0.9600  0.0929
42565SOL    HW136473   3.519   0.102   6.443 -1.6065  0.5969 -1.7962
42565SOL    HW236474   3.611  -0.001   6.382 -0.3546  1.1377 -0.8646
42566SOL     OW36475   3.210   4.086   0.093 -0.5236  0.1831  0.0441
42566SOL    HW136476   3.236   4.002   0.131  0.2352 -0.2989 -1.4931
42566SOL    HW236477   3.235   4.150   0.159  0.1194 -0.6788  0.6665
42567SOL     OW36478  12.128   8.282  10.992  0.0622  0.1516 -0.0290
42567SOL    HW136479  12.207   8.298  11.044 -0.1504  1.6646 -0.1257
42567SOL    HW236480  12.153   8.212  10.933  0.9237 -0.2846  0.8084
42568SOL     OW36481   8.309   8.765   4.162 -1.0201 -0.0740  0.4532
42568SOL    HW136482   8.333   8.718   4.241 -1.2309 -0.2133  0.4340
42568SOL    HW236483   8.386   8.759   4.105 -0.0476  1.8223  1.4690
42569SOL     OW36484  10.627   0.458  12.507 -0.0700 -0.2203  0.0690
42569SOL    HW136485  10.721   0.466  12.487 -0.1061 -0.9658 -0.4532
42569SOL    HW236486  10.618   0.370  12.545 -0.3596  0.3524  1.3538
42570SOL     OW36487  12.265   0.500   3.977  0.2884  0.2231  0.5784
42570SOL    HW136488  12.361   0.500   3.977  0.2897  0.7269  0.3029
42570SOL    HW236489  12.241   0.439   4.047  0.8082 -0.2837  0.3268
42571SOL     OW36490   5.654   4.121   2.792 -0.0077 -1.1378 -0.0335
42571SOL    HW136491   5.628   4.103   2.882  0.1163  1.6103  0.6375
42571SOL    HW236492   5.583   4.175   2.756  1.3255  0.3699 -0.5355
42572SOL     OW36493   3.693  10.635   9.894 -0.0579  0.2564 -0.8084
42572SOL    HW136494   3.718  10.640   9.802 -0.1840  0.9225 -0.8144
42572SOL    HW236495   3.776  10.622   9.941  0.2298  1.5942 -0.8955
42573SOL     OW36496   8.322   1.709  10.038 -0.0885 -0.3786  0.7312
42573SOL    HW136497   8.309   1.756   9.955 -1.1729  0.1526  1.1874
42573SOL    HW236498   8.234   1.698  10.073  0.3450 -0.7745  1.7237
42574SOL     OW36499   1.710   7.966  11.417  0.9606  0.1908  0.0546
42574SOL    HW136500   1.679   8.046  11.459 -0.5057  0.0694 -0.7630
42574SOL    HW236501   1.679   7.896  11.474 -0.0312  0.0849 -0.6017
42575SOL     OW36502   7.377  12.600  11.310  0.6158  0.2579  0.1386
42575SOL    HW136503   7.295  12.628  11.352 -0.2181 -0.6259 -0.8308
42575SOL    HW236504   7.359  12.511  11.280  1.2212  0.7773 -1.9066
42576SOL     OW36505   1.655   6.859   2.105 -0.0763 -0.3174  0.7003
42576SOL    HW136506   1.566   6.892   2.090 -0.7697 -1.7739  1.3113
42576SOL    HW236507   1.671   6.799   2.033  1.0915  1.1210 -0.2997
42577SOL     OW36508   2.705   3.654   6.278  0.0039 -0.2840 -0.6589
42577SOL    HW136509   2.663   3.594   6.217 -0.0187 -0.0230 -0.9030
42577SOL    HW236510   2.637   3.672   6.344 -0.8775  1.4710 -1.9739
42578SOL     OW36511   6.441  10.670   0.988 -0.0569 -0.1525 -0.7276
42578SOL    HW136512   6.506  10.722   1.035  0.1611 -0.9938 -0.0904
42578SOL    HW236513   6.364  10.726   0.984  0.6785  0.8432 -1.4562
42579SOL     OW36514   5.385   9.560   3.022 -0.1422 -0.3824  0.5624
42579SOL    HW136515   5.448   9.587   2.954 -0.9159  0.4798  0.1716
42579SOL    HW236516   5.384   9.633   3.084  0.0170 -0.8568  1.1327
42580SOL     OW36517   7.487   8.617  10.855  0.2157  0.3210  0.2238
42580SOL    HW136518   7.403   8.616  10.810 -0.0309 -0.0489  0.6910
42580SOL    HW236519   7.542   8.556  10.805 -0.7965 -1.9963  1.8093
42581SOL     OW36520   9.823  10.082   1.493  0.2865 -0.1028 -0.5226
42581SOL    HW136521   9.868  10.014   1.543  0.2787  0.4524  0.2508
42581SOL    HW236522   9.893  10.142   1.467 -0.0777  1.2453  1.4453
42582SOL     OW36523  11.452   7.701   2.042  0.3289  0.4930  0.3000
42582SOL    HW136524  11.481   7.792   2.036  0.4474  0.4876  0.7697
42582SOL    HW236525  11.500   7.656   1.974  0.8877  0.6240  0.6059
42583SOL     OW36526  11.130   5.932   7.905  0.0388 -0.4291  0.8710
42583SOL    HW136527  11.139   5.935   8.000  0.0359 -0.7502  0.8840
42583SOL    HW236528  11.215   5.899   7.874 -0.3487 -1.4375  0.8479
42584SOL     OW36529   1.223   4.845   5.005 -0.0979  0.6069 -0.6575
42584SOL    HW136530   1.181   4.913   5.059  0.8107  0.5374  0.1723
42584SOL    HW236531   1.261   4.893   4.932  0.2682  0.9628 -0.2408
42585SOL     OW36532  12.386   1.756   6.636 -0.2911  0.4302  0.0146
42585SOL    HW136533  12.455   1.814   6.669 -0.3699  0.2271  0.5376
42585SOL    HW236534  12.414   1.669   6.662 -0.0820  0.1978 -0.9252
42586SOL     OW36535   7.480  12.027  12.080 -0.7150  0.4515  0.3270
42586SOL    HW136536   7.562  11.982  12.059 -0.7085  0.4296  0.3981
42586SOL    HW236537   7.504  12.119  12.087 -1.0020  0.6936 -1.3792
42587SOL     OW36538   3.298   5.617  11.865 -0.0489 -0.4240  0.3466
42587SOL    HW136539   3.205   5.608  11.845 -0.3275 -0.0855  1.4002
42587SOL    HW236540   3.340   5.544  11.819 -0.6783  0.0432 -1.0327
42588SOL     OW36541  12.028   5.994   9.299 -0.1045 -0.3174 -0.7014
42588SOL    HW136542  11.972   6.071   9.288  0.4605  0.2021 -0.0796
42588SOL    HW236543  11.996   5.931   9.235 -0.7784  0.3244 -1.0077
42589SOL     OW36544   7.162  12.459   0.893  0.1203 -0.0985  0.1599
42589SOL    HW136545   7.230  12.464   0.961  0.1435  0.6009  0.0956
42589SOL    HW236546   7.125  12.547   0.891 -1.3741 -0.6820  0.7846
42590SOL     OW36547   1.175   8.837   6.669 -0.0834  0.4516  0.0506
42590SOL    HW136548   1.117   8.781   6.616 -0.3745 -0.3557  1.1897
42590SOL    HW236549   1.142   8.827   6.758  1.1568  0.8334  0.5661
42591SOL     OW36550   0.218  10.151  10.209 -0.2852 -0.4099 -0.4318
42591SOL    HW136551   0.146  10.116  10.261  0.5768 -1.8983 -0.1806
42591SOL    HW236552   0.290  10.160  10.272  0.0497  0.1143 -0.8823
42592SOL     OW36553   3.049   0.182  10.166 -0.1308  0.0212  0.1524
42592SOL    HW136554   3.103   0.114  10.207 -1.8420 -2.0211 -0.7632
42592SOL    HW236555   3.065   0.172  10.073 -0.5126  0.8033 -0.0021
42593SOL     OW36556  11.267  10.352  12.029  0.1067 -0.8780  0.4998
42593SOL    HW136557  11.236  10.366  11.940  0.9340 -0.0252  0.3337
42593SOL    HW236558  11.240  10.263  12.050 -3.4916  0.1398  0.8009
42594SOL     OW36559   2.484  11.034  11.283 -0.0230  0.7765 -0.2500
42594SOL    HW136560   2.537  11.105  11.248 -0.6741  0.7286 -1.3673
42594SOL    HW236561   2.444  11.070  11.362 -0.6767  1.7842 -1.0338
42595SOL     OW36562   8.443   0.035   5.101  0.3016  0.5193  0.3649
42595SOL    HW136563   8.426   0.029   5.007  3.0869  0.5181 -0.2231
42595SOL    HW236564   8.362   0.003   5.142 -0.8665  0.2080 -2.0034
42596SOL     OW36565   3.815   8.810  11.286  0.2042 -0.0271  0.3875
42596SOL    HW136566   3.859   8.796  11.202  1.7648  0.8620  1.0049
42596SOL    HW236567   3.785   8.901  11.282  0.1168 -0.0406  0.7177
42597SOL     OW36568   3.144   3.433   9.893 -0.4883  0.1334 -0.3987
42597SOL    HW136569   3.104   3.389   9.818 -1.8605 -1.5069  1.2041
42597SOL    HW236570   3.172   3.517   9.859 -0.6100 -0.7484 -2.8625
42598SOL     OW36571   7.154  10.729   2.725  0.1752 -0.1231  0.0743
42598SOL    HW136572   7.105  10.811   2.734 -0.4894 -0.3250 -1.3651
42598SOL    HW236573   7.226  10.751   2.665  1.0105 -0.1918  1.0255
42599SOL     OW36574   6.790   2.815  10.896 -0.0214 -1.0100 -0.5766
42599SOL    HW136575   6.829   2.848  10.815  0.6930 -1.2657 -0.3383
42599SOL    HW236576   6.720   2.878  10.915  0.9548  0.0728 -0.4334
42600SOL     OW36577   5.966  10.488   5.346 -0.3064 -0.1308  0.2504
42600SOL    HW136578   6.001  10.539   5.419 -0.6781 -0.4493  0.6538
42600SOL    HW236579   5.893  10.541   5.312  0.3101  0.3538 -0.3502
42601SOL     OW36580   2.753  11.632   4.938 -0.3708  0.6565 -0.1840
42601SOL    HW136581   2.673  11.594   4.901  0.5135  0.5674 -2.1364
42601SOL    HW236582   2.812  11.558   4.947 -0.0033  0.9489 -0.1901
42602SOL     OW36583   5.101  12.151   5.119 -0.1151  0.2631  0.4657
42602SOL    HW136584   5.025  12.208   5.133 -1.8257 -1.8282  0.1315
42602SOL    HW236585   5.153  12.160   5.199 -0.7136  1.7092  0.7219
42603SOL     OW36586   5.028   2.255   5.704  0.1022  0.2776  0.1601
42603SOL    HW136587   5.088   2.223   5.771  0.5080  1.4885  0.4022
42603SOL    HW236588   4.948   2.204   5.718  0.1697  0.5130  1.5929
42604SOL     OW36589   6.016  10.648  11.557  0.5716  0.4948 -0.3905
42604SOL    HW136590   5.936  10.602  11.534  2.0607 -1.1054 -2.8817
42604SOL    HW236591   6.076  10.579  11.585  1.1902  1.6363  1.3037
42605SOL     OW36592   0.099   7.726   8.776 -0.0213  0.0446  0.3785
42605SOL    HW136593   0.182   7.762   8.744  0.1193 -1.4512 -1.0522
42605SOL    HW236594   0.037   7.740   8.704 -0.1245 -1.8823  0.0327
42606SOL     OW36595  12.096   6.145   6.534 -0.3696  0.0413  0.2817
42606SOL    HW136596  12.144   6.170   6.455  2.1362 -0.3835  1.5813
42606SOL    HW236597  12.005   6.169   6.515  0.4059  1.4442 -2.0924
42607SOL     OW36598   8.106   5.984   8.524  0.1281  0.1957  0.2419
42607SOL    HW136599   8.074   5.917   8.464  1.2575 -0.3355  0.2111
42607SOL    HW236600   8.128   5.935   8.604  1.5409  0.4137  0.0098
42608SOL     OW36601  10.338   5.456   9.376 -0.2426 -0.2877  0.1557
42608SOL    HW136602  10.245   5.435   9.387  0.0609 -1.0290  1.5112
42608SOL    HW236603  10.350   5.463   9.281 -1.6969 -0.0749 -0.0340
42609SOL     OW36604  10.928   0.671   6.533  0.7481  0.3550  0.0583
42609SOL    HW136605  10.931   0.752   6.583  0.0787 -0.9959  2.4889
42609SOL    HW236606  10.994   0.682   6.465  1.6625  2.3873  1.1822
42610SOL     OW36607   0.551   4.682   1.030  0.0306 -0.4577 -0.2943
42610SOL    HW136608   0.570   4.620   1.100 -1.2792 -1.2008 -0.5735
42610SOL    HW236609   0.624   4.744   1.033 -0.8600  0.6313  2.9309
42611SOL     OW36610   2.326   6.610   1.590 -0.0410  0.2845 -1.2111
42611SOL    HW136611   2.251   6.552   1.581 -0.4283  0.6651 -0.4774
42611SOL    HW236612   2.344   6.639   1.500 -0.4142 -0.2455 -1.4618
42612SOL     OW36613   2.264   5.552   2.727  0.5806 -0.1203 -0.0187
42612SOL    HW136614   2.312   5.521   2.804  1.1011 -1.8153 -0.9726
42612SOL    HW236615   2.268   5.479   2.665  0.5414  1.3296 -1.8268
42613SOL     OW36616   8.208   6.265  11.860 -0.0244  0.1490 -0.1404
42613SOL    HW136617   8.258   6.186  11.837  1.2060  0.1671  2.0996
42613SOL    HW236618   8.259   6.337  11.823 -0.1351 -0.0010 -0.5896
42614SOL     OW36619   7.838  11.208   0.332 -0.1435  0.4710 -0.1688
42614SOL    HW136620   7.871  11.263   0.261  0.3576 -0.2713 -0.5282
42614SOL    HW236621   7.748  11.237   0.346 -0.3714  0.3789 -1.3625
42615SOL     OW36622   2.673   3.240   7.192 -0.3933  0.0597  0.0617
42615SOL    HW136623   2.702   3.173   7.129 -0.9186 -0.7230  0.6276
42615SOL    HW236624   2.750   3.258   7.245 -0.3860 -0.4876  0.2400
42616SOL     OW36625   4.848   2.567  11.926  0.0145 -0.3189 -0.5301
42616SOL    HW136626   4.851   2.635  11.859  0.2266 -0.0904 -0.2930
42616SOL    HW236627   4.911   2.502  11.898 -0.4298 -0.5831 -0.9312
42617SOL     OW36628   7.637  10.488   3.133 -0.2731 -0.5447  0.1882
42617SOL    HW136629   7.558  10.481   3.079  0.8355 -0.4695 -1.5061
42617SOL    HW236630   7.640  10.406   3.181 -0.6931 -1.1101 -0.7170
42618SOL     OW36631   8.946  11.079   2.541 -0.3475  0.1466  0.4460
42618SOL    HW136632   8.864  11.122   2.565 -2.1743 -3.3288  1.2008
42618SOL    HW236633   8.989  11.060   2.625 -1.4045 -2.4708  0.5115
42619SOL     OW36634   5.191   6.444   3.896 -0.1819  0.6662 -0.3809
42619SOL    HW136635   5.273   6.492   3.909  1.6860 -2.1739 -0.7026
42619SOL    HW236636   5.174   6.450   3.802  0.1009  0.6177 -0.4357
42620SOL     OW36637   0.130   6.420   0.090 -0.2544  0.3024 -0.1151
42620SOL    HW136638   0.043   6.455   0.109 -0.0930  0.4874  0.2828
42620SOL    HW236639   0.191   6.485   0.125  0.0477 -0.1159  0.1583
42621SOL     OW36640   2.201   7.251   5.722 -0.4057 -0.6274  0.1772
42621SOL    HW136641   2.129   7.273   5.782  1.1010 -0.2221  1.9481
42621SOL    HW236642   2.263   7.204   5.777  1.5130  0.6611 -0.7984
42622SOL     OW36643  11.300   4.678   5.864 -0.0199  0.1867  0.3885
42622SOL    HW136644  11.286   4.583   5.864 -2.0255  0.4456  0.4563
42622SOL    HW236645  11.275   4.705   5.776  0.6661  0.6554  0.3326
42623SOL     OW36646  10.365  11.440   1.479 -0.4626 -0.2235 -0.2492
42623SOL    HW136647  10.400  11.500   1.545  1.5005 -1.1721 -0.3871
42623SOL    HW236648  10.372  11.488   1.396 -0.6517  0.0389 -0.1168
42624SOL     OW36649   3.066  10.276   5.569  0.0095  0.0040  1.3362
42624SOL    HW136650   3.026  10.240   5.490  0.3399  0.7070  0.8404
42624SOL    HW236651   2.994  10.278   5.633 -0.3882 -0.0934  0.8977
42625SOL     OW36652   6.634   1.430   3.106 -0.0772  0.5882 -0.6465
42625SOL    HW136653   6.633   1.453   3.013  2.1719 -0.5263 -1.0173
42625SOL    HW236654   6.672   1.506   3.150  2.3256 -0.2092 -1.1839
42626SOL     OW36655  11.660   3.046   2.891 -0.3370 -0.0229  0.6182
42626SOL    HW136656  11.710   3.042   2.972  2.1718 -0.6685 -0.8495
42626SOL    HW236657  11.663   3.138   2.865 -1.1170  0.1786  1.1946
42627SOL     OW36658   9.732   7.806  10.027  0.0473 -0.6275 -0.5104
42627SOL    HW136659   9.799   7.857   9.982 -0.9919  0.3368 -1.0251
42627SOL    HW236660   9.701   7.863  10.097 -1.0664 -0.5625 -1.0298
42628SOL     OW36661   7.791  12.268  10.996  0.1162  0.5401 -0.7256
42628SOL    HW136662   7.765  12.242  11.084  0.0383 -0.7904 -1.1117
42628SOL    HW236663   7.883  12.295  11.005 -0.5324  2.6157  0.1405
42629SOL     OW36664   2.908   8.759  12.221 -0.2715  0.2245  0.1295
42629SOL    HW136665   2.824   8.801  12.203 -0.7151 -0.4760  0.4916
42629SOL    HW236666   2.934   8.794  12.306 -0.7824 -0.4243  0.5671
42630SOL     OW36667  10.169  11.022  10.110 -0.1197  0.0832  0.1615
42630SOL    HW136668  10.193  10.944  10.160 -2.0657 -0.5023  0.2607
42630SOL    HW236669  10.208  11.095  10.159  1.6417 -0.7912  0.1207
42631SOL     OW36670   7.564   7.090  12.449 -0.2507  0.0628  0.1707
42631SOL    HW136671   7.617   7.115  12.524 -1.9301  4.1026  0.2488
42631SOL    HW236672   7.613   7.122  12.373 -0.8962  0.5675 -0.0385
42632SOL     OW36673   1.132   4.958   6.896 -0.3889 -0.5585 -0.0383
42632SOL    HW136674   1.196   4.942   6.826 -1.6002 -0.9182 -1.0993
42632SOL    HW236675   1.177   5.018   6.956  1.6379 -2.2707  0.2699
42633SOL     OW36676  10.417   7.768   4.982 -0.0081 -0.3031 -0.0106
42633SOL    HW136677  10.420   7.734   5.071 -1.4738 -2.6456 -0.7577
42633SOL    HW236678  10.331   7.810   4.976 -0.1882 -0.7315 -0.4872
42634SOL     OW36679   1.733   6.860   0.355 -0.5580  0.6353 -0.4058
42634SOL    HW136680   1.663   6.807   0.317  0.5231 -0.0716 -1.4607
42634SOL    HW236681   1.806   6.800   0.367 -0.3796  1.1498  1.5477
42635SOL     OW36682   6.510   1.242   4.233 -0.3927  0.3398 -0.5020
42635SOL    HW136683   6.465   1.159   4.218 -1.0824  0.0662  2.4961
42635SOL    HW236684   6.489   1.295   4.156 -2.1317 -1.3352 -1.2590
42636SOL     OW36685   0.456   6.064   0.325 -0.6177 -0.9475  0.3085
42636SOL    HW136686   0.425   6.151   0.351 -0.3541 -0.4852 -0.8762
42636SOL    HW236687   0.485   6.074   0.234  2.6857 -1.4225  1.1704
42637SOL     OW36688  12.183   6.587  12.539 -0.0853 -0.1802  0.6930
42637SOL    HW136689  12.274   6.590  12.509 -0.2235 -0.7390  0.1856
42637SOL    HW236690  12.138   6.653  12.486 -0.7683 -2.5743 -2.0016
42638SOL     OW36691   1.274   9.014   2.509  0.4535 -0.0909 -0.1178
42638SOL    HW136692   1.181   9.003   2.492  0.5529  0.1949 -0.9323
42638SOL    HW236693   1.314   8.935   2.474  0.6070  0.2416 -0.7204
42639SOL     OW36694   0.076  11.969  11.971  0.4966 -0.4521  0.0124
42639SOL    HW136695   0.154  11.971  12.026 -0.7942 -0.6243  1.9754
42639SOL    HW236696   0.035  12.055  11.983 -0.1801 -0.7519 -0.0796
42640SOL     OW36697   6.876   7.484   9.300  0.4240 -0.0986 -0.2156
42640SOL    HW136698   6.945   7.461   9.363  1.5327  0.3543 -1.2293
42640SOL    HW236699   6.913   7.463   9.215 -1.0729 -0.7281 -0.7439
42641SOL     OW36700   5.189  12.544   4.126  0.4813  0.3524  0.0135
42641SOL    HW136701   5.119  12.479   4.134 -0.1899  1.1619  0.8368
42641SOL    HW236702   5.186  12.569   4.034 -1.4764  1.6163  0.3598
42642SOL     OW36703   3.667  10.477   4.444  0.0191  0.1264  0.5553
42642SOL    HW136704   3.605  10.458   4.374 -0.7515 -2.1726  1.7704
42642SOL    HW236705   3.713  10.394   4.459  1.3084  0.9937  1.7051
42643SOL     OW36706   6.873   0.443   4.507  0.4476 -0.6081  0.0411
42643SOL    HW136707   6.956   0.491   4.503 -0.4797  1.0606 -0.6491
42643SOL    HW236708   6.814   0.494   4.451 -0.8865 -2.0640  0.0605
42644SOL     OW36709   6.630   0.051   8.288  0.1750  0.7206 -0.3248
42644SOL    HW136710   6.717   0.066   8.326 -0.3677 -0.9357  1.6826
42644SOL    HW236711   6.647  -0.007   8.214  0.7998  0.6741 -0.1568
42645SOL     OW36712   8.277   1.175   5.047  0.0084 -0.4857 -0.0496
42645SOL    HW136713   8.204   1.179   4.986  0.0933 -1.2496 -0.2077
42645SOL    HW236714   8.353   1.199   4.994  0.1770 -1.7809 -0.4168
42646SOL     OW36715   0.368   7.819  11.825 -0.0370 -0.1136  0.4791
42646SOL    HW136716   0.343   7.727  11.831 -3.1872  0.6833  2.0327
42646SOL    HW236717   0.318   7.851  11.749  2.5716  0.0252 -1.3259
42647SOL     OW36718   8.842   2.597   4.597 -0.2860 -0.1794 -0.4122
42647SOL    HW136719   8.906   2.618   4.529 -0.2600  0.8252 -0.0931
42647SOL    HW236720   8.874   2.643   4.675 -1.9962  1.2978 -0.5315
42648SOL     OW36721   8.765  11.443   4.393  0.2822 -0.4300  0.0275
42648SOL    HW136722   8.707  11.442   4.470 -0.3326 -1.0419 -0.4313
42648SOL    HW236723   8.714  11.487   4.325  0.4666 -0.7070 -0.2910
42649SOL     OW36724   1.884  10.187   2.475  0.8051  0.1836 -0.2760
42649SOL    HW136725   1.822  10.250   2.438 -0.2194 -0.8034 -0.3118
42649SOL    HW236726   1.886  10.116   2.411  0.7048 -0.5547  0.5253
42650SOL     OW36727   7.148   1.342   0.864 -0.2489  0.2648 -0.1720
42650SOL    HW136728   7.146   1.273   0.797 -0.1120 -0.2595  0.3554
42650SOL    HW236729   7.240   1.368   0.867 -0.7591  2.9966 -2.8740
42651SOL     OW36730  11.354  12.415   5.052 -0.3650 -0.4048  0.0505
42651SOL    HW136731  11.329  12.460   5.133 -1.7276 -0.6497 -0.2073
42651SOL    HW236732  11.388  12.485   4.996 -2.6233  0.4231 -0.4150
42652SOL     OW36733   2.479   2.519   0.029  0.5020 -0.1519  0.4425
42652SOL    HW136734   2.460   2.583  -0.039 -0.7407  1.9233  2.5777
42652SOL    HW236735   2.574   2.526   0.043  1.0012 -1.4683 -1.7449
42653SOL     OW36736   4.458   5.049  10.177 -0.6563 -0.4430 -0.4452
42653SOL    HW136737   4.481   5.141  10.188  0.6702 -0.5510 -1.8902
42653SOL    HW236738   4.379   5.037  10.229 -0.4457  1.3285  0.3498
42654SOL     OW36739   4.535   7.664   5.270  1.0048 -0.1666  0.3020
42654SOL    HW136740   4.598   7.593   5.256  0.7506 -0.4312  0.4949
42654SOL    HW236741   4.546   7.721   5.194  2.0908  0.2519  0.7425
42655SOL     OW36742  11.087   1.453   5.092 -0.0163 -0.0819  0.1378
42655SOL    HW136743  11.028   1.515   5.048  0.1896  0.6317  0.8511
42655SOL    HW236744  11.124   1.401   5.021 -0.0808  0.7167 -0.4955
42656SOL     OW36745  10.313  11.178   6.269 -0.2176 -0.0969  0.0032
42656SOL    HW136746  10.356  11.139   6.346 -0.3580  0.4935  0.3876
42656SOL    HW236747  10.363  11.258   6.253 -0.3612 -0.0825 -0.3634
42657SOL     OW36748   1.085   5.648   3.488  0.0577  0.3721 -0.2558
42657SOL    HW136749   1.153   5.715   3.485 -0.0474  0.5940  1.5710
42657SOL    HW236750   1.004   5.696   3.505  0.0668 -0.2208  1.6681
42658SOL     OW36751  12.104   9.228   7.693 -0.0237  0.5144 -0.1908
42658SOL    HW136752  12.033   9.248   7.632  0.2110 -0.1403 -0.6879
42658SOL    HW236753  12.067   9.167   7.756 -0.1172  0.7838  0.0187
42659SOL     OW36754   0.754   2.391   8.985 -0.2177 -0.3616  0.0596
42659SOL    HW136755   0.759   2.447   8.908  0.9426 -0.3652  0.1187
42659SOL    HW236756   0.768   2.302   8.952  3.1488 -0.1420  0.5323
42660SOL     OW36757   5.290   0.802   6.006 -0.2495 -0.3560  0.3936
42660SOL    HW136758   5.248   0.739   6.066 -0.4829  0.4530  1.1054
42660SOL    HW236759   5.368   0.831   6.053 -1.3429  1.6010  1.1356
42661SOL     OW36760   1.674   0.419   8.429  0.0235 -0.0142 -0.6025
42661SOL    HW136761   1.673   0.479   8.504 -1.2512 -1.1083  0.3287
42661SOL    HW236762   1.752   0.364   8.443 -0.3869 -0.4353  0.1537
42662SOL     OW36763  10.348   0.408   5.801  0.0632 -0.5508  0.0841
42662SOL    HW136764  10.423   0.370   5.847  0.6002 -1.5053 -1.4974
42662SOL    HW236765  10.379   0.493   5.771 -0.0320 -0.2541  0.8298
42663SOL     OW36766  10.207   3.950   2.970  0.1114 -0.5114 -0.0962
42663SOL    HW136767  10.187   4.001   2.891  1.8660 -0.2785 -0.4379
42663SOL    HW236768  10.301   3.934   2.964  0.2262 -0.7272  1.8255
42664SOL     OW36769  11.114   4.001   9.353  0.0425  0.0543 -0.5467
42664SOL    HW136770  11.032   3.996   9.304  0.3893  0.2453 -1.1529
42664SOL    HW236771  11.171   3.937   9.310  0.2718  0.0512 -0.2374
42665SOL     OW36772   6.022   5.790   8.923  0.4586 -0.1408 -0.3054
42665SOL    HW136773   5.958   5.724   8.949 -1.5809  2.2739  1.4249
42665SOL    HW236774   6.021   5.853   8.995  0.3232  3.0553 -2.8506
42666SOL     OW36775   1.387   0.051  10.332 -0.3427 -0.1339  0.2636
42666SOL    HW136776   1.310  -0.003  10.319  0.3111 -0.9778 -0.1960
42666SOL    HW236777   1.376   0.123  10.269 -0.0479 -1.0584 -0.8860
42667SOL     OW36778  11.338   9.914   0.035 -0.0096 -0.7672  0.1365
42667SOL    HW136779  11.281   9.990   0.025 -0.4316 -1.0174  0.5720
42667SOL    HW236780  11.317   9.879   0.122  1.7014 -0.1457  0.8451
42668SOL     OW36781   2.973   8.441   2.812 -0.0481  0.3768  0.3006
42668SOL    HW136782   2.945   8.370   2.754 -2.1073  0.7138  0.7907
42668SOL    HW236783   3.053   8.475   2.771 -1.2890  0.4902 -2.2811
42669SOL     OW36784   2.795   6.507   4.719  0.0919  0.5207  0.3913
42669SOL    HW136785   2.849   6.544   4.650  0.1465  1.6052  0.9925
42669SOL    HW236786   2.854   6.450   4.768  0.1213 -0.0294 -0.2708
42670SOL     OW36787  12.411   3.611   2.080  0.1205  0.3737  0.5598
42670SOL    HW136788  12.349   3.669   2.036 -0.9405  0.8828  2.5743
42670SOL    HW236789  12.442   3.662   2.155  2.3597 -0.1933  0.0989
42671SOL     OW36790   9.390   2.006  11.232 -0.3527 -0.0188  0.3885
42671SOL    HW136791   9.299   2.000  11.260 -1.4280  1.1126 -2.5469
42671SOL    HW236792   9.415   2.097  11.252 -0.8585  0.5421 -1.3622
42672SOL     OW36793   8.953   7.419  12.259  0.4922  0.2335  0.3479
42672SOL    HW136794   8.865   7.403  12.224 -0.9887 -0.9838  4.1098
42672SOL    HW236795   8.968   7.347  12.320  4.3920  0.1476 -0.4497
42673SOL     OW36796   4.068   6.208   1.083 -0.9343  0.3229  0.6096
42673SOL    HW136797   4.079   6.264   1.006 -0.4624 -0.0280  0.4104
42673SOL    HW236798   4.110   6.256   1.154 -2.7103  1.3545  1.0140
42674SOL     OW36799   6.407   2.661   2.967  0.5489  0.0193  0.2622
42674SOL    HW136800   6.446   2.574   2.975  0.6081 -0.0050 -0.3053
42674SOL    HW236801   6.315   2.648   2.992  0.7077 -0.0748  0.8183
42675SOL     OW36802  10.149   5.009   8.148 -0.3049 -0.3048 -0.5513
42675SOL    HW136803  10.121   5.012   8.056  0.1616 -1.4614 -0.7480
42675SOL    HW236804  10.135   4.918   8.174  0.6494 -0.2506  0.1744
42676SOL     OW36805   4.356   5.918   1.226  0.4630 -0.2332  0.1158
42676SOL    HW136806   4.282   5.953   1.274  2.1529 -0.0477  2.7796
42676SOL    HW236807   4.377   5.985   1.161  0.1345  1.1000  1.3519
42677SOL     OW36808   0.785  12.324   5.566 -0.2292 -0.0366 -0.3423
42677SOL    HW136809   0.744  12.313   5.480  0.5176  0.5763 -0.7940
42677SOL    HW236810   0.757  12.411   5.596 -0.2063 -0.1014 -0.1310
42678SOL     OW36811   1.351  11.399   8.025 -0.5133 -0.2195  0.2203
42678SOL    HW136812   1.285  11.428   8.088 -0.8809  1.3391 -0.8351
42678SOL    HW236813   1.303  11.348   7.960 -0.9556  1.9125 -1.2064
42679SOL     OW36814   2.819   5.875  12.538  0.2694 -0.3546 -0.2589
42679SOL    HW136815   2.838   5.832  12.454  1.1770  0.3962 -0.4540
42679SOL    HW236816   2.816   5.803  12.601  2.0074 -0.7331 -0.5445
42680SOL     OW36817   6.914   8.746   3.542  0.0290  0.5642  0.3458
42680SOL    HW136818   6.972   8.766   3.615  2.4947 -0.4744 -1.2156
42680SOL    HW236819   6.954   8.789   3.466 -0.3005 -1.4375 -1.0751
42681SOL     OW36820  10.527   9.174  11.702 -0.6939 -0.5799  0.2199
42681SOL    HW136821  10.470   9.117  11.651 -0.8861  0.8887 -1.2640
42681SOL    HW236822  10.470   9.209  11.771 -1.1659 -0.4092 -0.2509
42682SOL     OW36823   4.785   1.874   0.217 -0.7378 -0.2730 -0.0615
42682SOL    HW136824   4.829   1.872   0.302 -0.0482 -0.1926 -0.4082
42682SOL    HW236825   4.772   1.967   0.199 -1.2116 -0.3035  0.1202
42683SOL     OW36826   4.658   4.906  10.040  0.3402  0.0093  0.1110
42683SOL    HW136827   4.596   4.971  10.075  0.0419 -0.1531 -0.1078
42683SOL    HW236828   4.681   4.940   9.953  1.4090  0.6324  0.6238
42684SOL     OW36829   0.216   0.361   9.867  0.0022 -0.3328  0.7101
42684SOL    HW136830   0.240   0.394   9.780 -0.6466  1.1599  1.0697
42684SOL    HW236831   0.300   0.342   9.909  0.3342 -3.3063 -0.9891
42685SOL     OW36832  11.014   5.586   8.308 -0.4446  0.0314 -0.3104
42685SOL    HW136833  10.919   5.597   8.304 -0.5208  0.0110  1.0206
42685SOL    HW236834  11.026   5.499   8.345  0.0298  1.3464  2.8859
42686SOL     OW36835  10.635   8.554  10.311 -0.0012  0.2117 -0.1576
42686SOL    HW136836  10.653   8.546  10.217 -0.8626 -0.6837 -0.2538
42686SOL    HW236837  10.704   8.613  10.343  1.4817 -1.0000 -0.9809
42687SOL     OW36838   1.526   9.831   6.508 -0.4142  0.3524  0.2160
42687SOL    HW136839   1.607   9.782   6.521  0.1472  1.0003 -0.6784
42687SOL    HW236840   1.463   9.765   6.478 -0.2112 -0.1438  0.8634
42688SOL     OW36841   6.265   5.728   1.540  0.3515 -0.0527  0.4946
42688SOL    HW136842   6.350   5.695   1.569 -0.0362 -1.1003  0.4668
42688SOL    HW236843   6.202   5.689   1.600 -0.0111  1.8850  1.4604
42689SOL     OW36844  10.698   6.958   2.474  0.0233  0.0942  0.0980
42689SOL    HW136845  10.631   7.002   2.526 -1.8362 -1.7405 -0.5856
42689SOL    HW236846  10.655   6.941   2.389  0.7268 -2.5186  0.1583
42690SOL     OW36847   5.025  10.286   4.148 -0.2887  0.1711  0.1043
42690SOL    HW136848   4.968  10.298   4.072  0.0979  0.7622 -0.1040
42690SOL    HW236849   4.998  10.202   4.186 -0.6663 -0.0023 -0.5314
42691SOL     OW36850   5.545   6.186   1.742  0.7020 -0.1291  0.1498
42691SOL    HW136851   5.483   6.250   1.778  0.7334  1.5859 -2.5420
42691SOL    HW236852   5.490   6.111   1.718  0.2507 -0.0987  1.0664
42692SOL     OW36853   8.743   0.283   3.328 -0.4490  0.0008  0.3593
42692SOL    HW136854   8.719   0.267   3.236 -1.8174  0.4447  0.6283
42692SOL    HW236855   8.683   0.351   3.358 -0.4730 -0.6034  1.7803
42693SOL     OW36856   1.634  11.400   8.944  0.3277 -0.0037  0.2076
42693SOL    HW136857   1.712  11.373   8.895 -0.5118 -0.6066 -0.8252
42693SOL    HW236858   1.643  11.358   9.029  0.9106 -0.4242 -0.0596
42694SOL     OW36859   2.327   9.649   9.086 -0.4351 -0.4152 -0.3010
42694SOL    HW136860   2.286   9.724   9.042 -1.2735  0.2014  1.4690
42694SOL    HW236861   2.313   9.665   9.179  3.3954 -0.4072  0.4610
42695SOL     OW36862   3.578   7.000   2.975 -0.0557  0.2072 -0.2023
42695SOL    HW136863   3.586   7.069   3.041 -0.7464  0.6944 -0.6056
42695SOL    HW236864   3.662   6.956   2.976  0.1057  0.5107  0.6704
42696SOL     OW36865   0.317  10.415  11.143  0.2992 -0.0633  0.0885
42696SOL    HW136866   0.348  10.354  11.210  1.3948 -0.0568 -0.3914
42696SOL    HW236867   0.376  10.490  11.150  1.1460 -0.5130 -1.5703
42697SOL     OW36868   3.192   8.302   0.659 -0.4953  0.4973  0.3192
42697SOL    HW136869   3.243   8.371   0.616  1.7782 -1.0690  0.3142
42697SOL    HW236870   3.233   8.292   0.745 -0.2658 -1.3255  0.0394
42698SOL     OW36871   7.299   3.248   1.770  0.1596  0.1535  0.0144
42698SOL    HW136872   7.223   3.305   1.758 -1.2466 -1.9685 -2.0146
42698SOL    HW236873   7.339   3.242   1.683  0.0981 -2.1004  0.0923
42699SOL     OW36874   2.430  11.037   8.338  0.3913  0.7972  0.2502
42699SOL    HW136875   2.458  10.975   8.270  0.6218 -0.6646  1.6422
42699SOL    HW236876   2.405  11.116   8.289  1.6336  0.1969 -1.4452
42700SOL     OW36877   3.994   7.509   7.391 -0.7305 -0.1377 -0.0623
42700SOL    HW136878   3.960   7.548   7.311 -0.8022 -0.6570 -0.2866
42700SOL    HW236879   4.059   7.573   7.422  0.7597 -0.8207 -1.6057
42701SOL     OW36880   7.171   0.536  12.205 -0.0019 -0.0869 -0.1652
42701SOL    HW136881   7.253   0.503  12.241 -0.2518  0.4096  0.9198
42701SOL    HW236882   7.156   0.484  12.126  1.9876  0.6759 -1.0960
42702SOL     OW36883   6.256   8.284   2.248  0.1218 -0.0748 -0.3171
42702SOL    HW136884   6.249   8.338   2.326  0.4154 -1.8344  0.9847
42702SOL    HW236885   6.175   8.301   2.200 -0.0178  1.1128  0.3057
42703SOL     OW36886   2.834   5.863   5.545 -0.6330  0.2781  0.1552
42703SOL    HW136887   2.867   5.812   5.619 -0.4230  3.5172  2.5630
42703SOL    HW236888   2.911   5.881   5.491  0.0172  0.9500  1.2591
42704SOL     OW36889   7.411   5.754   4.912 -0.1994 -0.4425 -0.3597
42704SOL    HW136890   7.458   5.717   4.987 -0.0139  0.6182  0.0650
42704SOL    HW236891   7.392   5.678   4.856  0.1660 -1.1715  0.4737
42705SOL     OW36892   9.934   6.638  12.429  0.2540 -0.0365  0.0147
42705SOL    HW136893   9.966   6.571  12.489  1.9349  0.5862 -0.1161
42705SOL    HW236894   9.861   6.680  12.476  1.6880  0.6049  1.7810
42706SOL     OW36895  12.124   9.530   9.746 -0.1692 -0.1620 -0.0171
42706SOL    HW136896  12.103   9.534   9.653 -1.2421 -0.9656  0.1757
42706SOL    HW236897  12.047   9.567   9.790 -0.4895 -1.5319  0.6209
42707SOL     OW36898   4.723   1.151   6.205 -0.5535  0.1406  1.0033
42707SOL    HW136899   4.783   1.078   6.190 -0.7730  0.3880 -1.6248
42707SOL    HW236900   4.765   1.203   6.273  0.3470 -1.6059  1.8555
42708SOL     OW36901  11.418   5.726   3.772 -0.0539 -0.0492  0.3087
42708SOL    HW136902  11.453   5.637   3.785 -1.6803 -0.8091 -0.2383
42708SOL    HW236903  11.335   5.727   3.821 -0.5165  0.8522 -0.4564
42709SOL     OW36904   3.118   7.368   7.844 -0.7361  0.0174 -0.4230
42709SOL    HW136905   3.123   7.291   7.787 -1.1431 -0.5973  0.3557
42709SOL    HW236906   3.034   7.408   7.821 -0.3944  0.4025 -1.0319
42710SOL     OW36907   6.127   7.750   9.410  0.3116 -0.3530 -0.4119
42710SOL    HW136908   6.150   7.841   9.393  0.2918  0.0655  1.5553
42710SOL    HW236909   6.203   7.713   9.455 -0.1595 -0.9451 -0.0842
42711SOL     OW36910   4.730   2.522  10.311 -0.1550 -0.0595  0.0849
42711SOL    HW136911   4.805   2.529  10.370 -0.9346 -2.2958  1.4511
42711SOL    HW236912   4.730   2.431  10.282 -2.7858 -0.3607  0.7827
42712SOL     OW36913   5.393   7.950   7.490  0.3375  0.0157 -0.2004
42712SOL    HW136914   5.364   7.982   7.404  1.8723  1.5420 -0.2088
42712SOL    HW236915   5.332   7.991   7.552 -0.9074 -1.2602 -0.5349
42713SOL     OW36916   5.348   3.104   0.260  0.2327 -0.1401  1.0541
42713SOL    HW136917   5.385   3.076   0.343  0.9425 -0.7057  0.5610
42713SOL    HW236918   5.253   3.098   0.272  0.3414 -0.6409  1.6774
42714SOL     OW36919  12.269   1.577  12.249  0.2179  0.0150  0.1693
42714SOL    HW136920  12.207   1.532  12.191 -0.4187  1.5367 -0.3655
42714SOL    HW236921  12.242   1.668  12.247  2.7606  0.8255 -0.4000
42715SOL     OW36922   9.330   2.196   7.037  0.5076 -0.3252 -0.8522
42715SOL    HW136923   9.403   2.256   7.019 -0.0557  0.1038 -1.8321
42715SOL    HW236924   9.318   2.149   6.955 -0.1229 -0.6017 -0.6067
42716SOL     OW36925   3.698   9.077  10.483  0.1024 -0.1268  0.0761
42716SOL    HW136926   3.776   9.128  10.467  1.2431 -1.8030 -0.0085
42716SOL    HW236927   3.714   8.993  10.440 -2.5242  0.0769 -1.5296
42717SOL     OW36928   7.647   0.742   9.719  0.7370 -0.1908  0.3191
42717SOL    HW136929   7.707   0.814   9.700  0.0616  0.5365  0.8911
42717SOL    HW236930   7.637   0.743   9.814  2.1826 -2.2545  0.5809
42718SOL     OW36931   5.039   1.284   1.566  0.0659 -0.4818 -0.4227
42718SOL    HW136932   5.029   1.272   1.472  0.1537  0.9003 -0.6363
42718SOL    HW236933   5.042   1.196   1.602 -0.6193 -1.0279 -1.6474
42719SOL     OW36934   1.813   5.810  12.314 -0.0833 -0.1013  0.2944
42719SOL    HW136935   1.810   5.715  12.328  1.4499  0.0138  1.5865
42719SOL    HW236936   1.771   5.847  12.391 -1.0648  0.3006 -0.4011
42720SOL     OW36937  12.251  11.800   1.262 -0.7813 -0.1145  0.5565
42720SOL    HW136938  12.277  11.892   1.254 -1.4422  0.0354  0.0122
42720SOL    HW236939  12.316  11.762   1.321  0.2114  0.4172 -0.1470
42721SOL     OW36940   3.919   6.010   7.506  0.6565 -0.2632 -0.0761
42721SOL    HW136941   3.971   6.069   7.560  0.8606 -1.1517  0.7282
42721SOL    HW236942   3.840   6.059   7.485  1.1707  0.5767 -0.1044
42722SOL     OW36943   0.374   7.694   2.919  0.0999 -0.3030 -0.0669
42722SOL    HW136944   0.364   7.654   2.832 -0.2125  0.7248 -0.5173
42722SOL    HW236945   0.372   7.788   2.902  2.1123 -0.0545  0.8214
42723SOL     OW36946   3.265  12.368   4.065  0.8089 -0.1820 -0.0881
42723SOL    HW136947   3.224  12.398   4.146 -0.8183 -2.1789 -0.0952
42723SOL    HW236948   3.316  12.291   4.090 -0.6085 -1.5130 -1.0484
42724SOL     OW36949   7.317  10.636   1.919 -0.3497  0.1452  0.0384
42724SOL    HW136950   7.388  10.696   1.898 -0.0335  0.4926  1.8928
42724SOL    HW236951   7.244  10.663   1.863  0.9548 -0.2853 -1.9816
42725SOL     OW36952   3.486   2.687   1.020  0.7354  0.0504  0.2081
42725SOL    HW136953   3.451   2.608   1.062  1.0811 -0.8010 -1.0652
42725SOL    HW236954   3.449   2.759   1.071 -1.3824 -0.8624  0.0653
42726SOL     OW36955   3.445   7.702  10.864 -0.4274 -0.0353 -0.0277
42726SOL    HW136956   3.513   7.643  10.833 -0.1122 -0.7642  1.9346
42726SOL    HW236957   3.488   7.787  10.874 -0.5927  0.2804 -1.6961
42727SOL     OW36958   2.100   1.298   8.620  0.2759 -0.2174 -1.1493
42727SOL    HW136959   2.060   1.272   8.703  0.1603  0.0450 -1.1213
42727SOL    HW236960   2.090   1.393   8.617  1.3886 -0.0802 -0.8945
42728SOL     OW36961   1.656   0.728   0.743  0.5075  0.2425  0.3241
42728SOL    HW136962   1.567   0.756   0.764 -0.6675 -1.2336 -2.1802
42728SOL    HW236963   1.706   0.809   0.737 -0.9455  1.2004  0.7162
42729SOL     OW36964  10.642   9.684   4.452  0.3008 -0.9199  0.2408
42729SOL    HW136965  10.586   9.652   4.381 -0.3887 -1.4737  1.0082
42729SOL    HW236966  10.729   9.688   4.414  0.0701 -1.9192 -0.4248
42730SOL     OW36967  12.549   2.292   4.198  0.1095  0.5513 -0.0915
42730SOL    HW136968  12.502   2.227   4.251  0.4938 -0.5520 -1.0474
42730SOL    HW236969  12.635   2.299   4.240 -0.1737  0.9741  0.4226
42731SOL     OW36970   6.709   5.439   2.613 -0.1751  0.1932  0.4395
42731SOL    HW136971   6.642   5.409   2.675 -0.1222  1.4595  1.1457
42731SOL    HW236972   6.720   5.366   2.553 -0.5094 -0.9437  1.7007
42732SOL     OW36973   1.143   7.086   8.745 -0.4775  0.5225  0.2779
42732SOL    HW136974   1.166   7.022   8.678  3.5779  2.2966 -0.3473
42732SOL    HW236975   1.192   7.058   8.823  0.0664  1.8936  0.4736
42733SOL     OW36976   1.081  12.091   8.203 -0.2110  0.2463  0.1395
42733SOL    HW136977   1.076  12.014   8.260  1.2474 -1.3007 -1.7204
42733SOL    HW236978   0.991  12.102   8.172 -0.6539 -0.0264  1.2642
42734SOL     OW36979  10.405   7.801   4.185 -0.0561  0.1443  0.3414
42734SOL    HW136980  10.486   7.837   4.221 -0.3168 -0.5422  1.6715
42734SOL    HW236981  10.391   7.850   4.104  1.2179  0.8796  0.5376
42735SOL     OW36982   8.653   5.475   4.775  0.3910  0.4049  0.2139
42735SOL    HW136983   8.607   5.554   4.801 -0.7951 -0.4040  0.6429
42735SOL    HW236984   8.703   5.448   4.852  1.1164  0.9349 -0.0570
42736SOL     OW36985   1.000   1.279   4.474  0.4457 -0.0806  0.1762
42736SOL    HW136986   1.065   1.214   4.500  1.2904  0.7574  0.2005
42736SOL    HW236987   0.942   1.287   4.550 -0.0224 -1.2240 -0.0423
42737SOL     OW36988   4.954   3.718   4.135  0.0612  0.2306 -0.5609
42737SOL    HW136989   4.952   3.658   4.060  1.4739  1.2477 -1.4540
42737SOL    HW236990   5.041   3.705   4.173  0.3256  1.5756 -0.6760
42738SOL     OW36991   6.306   0.142   5.316  0.5474  0.1171 -0.3521
42738SOL    HW136992   6.260   0.214   5.359  1.1209 -0.9518  2.2312
42738SOL    HW236993   6.340   0.181   5.235 -0.4845  2.2934  0.1643
42739SOL     OW36994   1.911   0.698  12.059 -0.6753  0.2890 -0.0581
42739SOL    HW136995   1.949   0.629  12.004  0.1748  0.5135  0.2275
42739SOL    HW236996   1.968   0.773  12.045 -1.0080  0.6310  0.4109
42740SOL     OW36997   1.466   0.783   7.959  0.1670  0.2865  0.2667
42740SOL    HW136998   1.386   0.833   7.944  0.1317  0.2693  0.3967
42740SOL    HW236999   1.439   0.691   7.952  0.2380  0.2840 -0.0061
42741SOL     OW37000   1.895   8.281   3.989 -0.6137  0.1271  0.1579
42741SOL    HW137001   1.955   8.217   4.026 -0.9286  0.2055  0.8341
42741SOL    HW237002   1.887   8.258   3.897  1.7063  1.0913 -0.3528
42742SOL     OW37003  11.912   1.110   6.006 -0.4670 -0.0282 -0.3105
42742SOL    HW137004  11.876   1.047   5.944  0.7717 -0.1137 -0.9764
42742SOL    HW237005  12.006   1.091   6.008 -0.2018  1.2169  0.1470
42743SOL     OW37006   4.594   7.649   9.395 -0.1728 -0.4874  0.1362
42743SOL    HW137007   4.627   7.678   9.480  1.3015  2.6473 -1.3346
42743SOL    HW237008   4.629   7.560   9.385  1.2985 -0.1961  1.9741
42744SOL     OW37009   4.503   5.219  12.026 -0.0010 -0.3191  0.3250
42744SOL    HW137010   4.594   5.195  12.009  0.1277 -0.7383  1.5290
42744SOL    HW237011   4.509   5.297  12.081 -0.4005  0.3527 -0.5457
42745SOL     OW37012   6.921  11.233   8.747  0.1565 -0.2013 -0.1701
42745SOL    HW137013   6.832  11.206   8.766 -0.5919  1.3544 -1.2486
42745SOL    HW237014   6.912  11.313   8.695  2.1322 -1.1081 -2.0840
42746SOL     OW37015  10.703   0.227  11.797 -0.3676 -0.0292  0.8149
42746SOL    HW137016  10.629   0.249  11.853 -0.9863 -1.5984  0.6779
42746SOL    HW237017  10.764   0.300  11.808 -1.6656  1.0222  1.3830
42747SOL     OW37018   9.120   6.819   5.755 -0.1246 -0.2253  0.0721
42747SOL    HW137019   9.073   6.799   5.675 -1.0611  3.0353 -0.3386
42747SOL    HW237020   9.207   6.780   5.743 -0.2322  0.2014 -2.5607
42748SOL     OW37021   4.106   8.455   6.586  0.3689 -0.0203 -0.1525
42748SOL    HW137022   4.134   8.547   6.580  2.3559 -0.5763 -0.3219
42748SOL    HW237023   4.136   8.427   6.672  3.4875 -1.5289 -1.5488
42749SOL     OW37024  11.828  12.597   0.372  0.1634  0.5689 -0.2615
42749SOL    HW137025  11.847  12.519   0.424 -2.1245 -0.4420 -0.8183
42749SOL    HW237026  11.910  12.645   0.371  1.8179 -2.0518 -0.2997
42750SOL     OW37027   5.387  11.866   3.005 -0.4003  1.1161 -0.2475
42750SOL    HW137028   5.481  11.867   3.027 -0.6942  1.3215  1.0987
42750SOL    HW237029   5.364  11.959   2.998 -0.9542  1.1576  1.6170
42751SOL     OW37030   3.901  10.745   2.250 -0.1989 -0.1240 -0.1828
42751SOL    HW137031   3.863  10.831   2.269 -1.0536 -0.6639  0.6952
42751SOL    HW237032   3.990  10.751   2.283 -0.2469  0.4405 -0.1396
42752SOL     OW37033   3.570   1.425   5.545  0.1220 -0.2550 -0.2191
42752SOL    HW137034   3.588   1.517   5.560 -0.4262 -0.3906  1.5854
42752SOL    HW237035   3.632   1.378   5.600 -2.4213 -0.7977  2.4678
42753SOL     OW37036   0.713   8.647   1.270  0.3422 -0.0457  0.5134
42753SOL    HW137037   0.801   8.622   1.243  0.1324 -0.9959  0.6742
42753SOL    HW237038   0.720   8.739   1.295  1.1095  0.1068 -0.2428
42754SOL     OW37039   7.947   3.587   7.801 -0.2036  0.1136 -0.0869
42754SOL    HW137040   7.995   3.651   7.748  0.8180 -0.9449 -0.4935
42754SOL    HW237041   7.980   3.600   7.890  1.2680 -0.9152 -0.4347
42755SOL     OW37042   3.685   1.075   3.159  0.1216 -0.1905 -0.3078
42755SOL    HW137043   3.731   1.111   3.234 -0.3577 -0.4294  0.1058
42755SOL    HW237044   3.734   0.997   3.135  0.5291  0.1269 -0.5218
42756SOL     OW37045   9.542  10.072  11.865 -0.3846 -0.4315  0.1083
42756SOL    HW137046   9.479  10.119  11.920  0.1196  1.0299 -0.5017
42756SOL    HW237047   9.628  10.096  11.901  0.0990  2.2441 -2.4124
42757SOL     OW37048  10.639   8.631   2.287  0.7504  0.4643  0.2327
42757SOL    HW137049  10.712   8.587   2.244 -0.5477 -2.1138  0.4568
42757SOL    HW237050  10.567   8.624   2.224 -0.1358  0.0650  1.2630
42758SOL     OW37051   1.284   0.491   6.168 -0.1476 -0.3382 -0.1358
42758SOL    HW137052   1.229   0.417   6.140 -1.8879  0.8075  0.0597
42758SOL    HW237053   1.227   0.543   6.225  2.1779 -0.7328  2.8030
42759SOL     OW37054   8.275   6.016   3.120  0.0755  0.0900  0.1250
42759SOL    HW137055   8.297   5.923   3.123  0.0188 -0.2425 -3.9471
42759SOL    HW237056   8.357   6.061   3.139  1.4588 -0.9663 -2.7948
42760SOL     OW37057   3.455   5.417   3.596  0.1861  0.1250 -0.4709
42760SOL    HW137058   3.483   5.336   3.552  0.9085 -0.3237  0.7576
42760SOL    HW237059   3.421   5.472   3.526  0.5303 -0.8870 -1.4632
42761SOL     OW37060   8.484   5.410   3.506  0.1764 -0.4108  0.5687
42761SOL    HW137061   8.533   5.492   3.517 -1.0568  0.2538  1.3983
42761SOL    HW237062   8.490   5.367   3.591  1.1451 -1.4005  0.0223
42762SOL     OW37063   5.156   0.333  10.296  0.4000 -0.0066 -0.1632
42762SOL    HW137064   5.219   0.398  10.264  0.9151 -0.2248  0.3901
42762SOL    HW237065   5.136   0.279  10.219  0.6244  0.2764 -0.4230
42763SOL     OW37066   2.220   9.949   8.004  0.1541  0.1313  0.1034
42763SOL    HW137067   2.201  10.041   8.022  0.9180  0.1246  1.0119
42763SOL    HW237068   2.181   9.933   7.918 -3.2070  0.3570  1.3978
42764SOL     OW37069   1.643   1.393   6.247 -0.8359  0.0799 -0.7519
42764SOL    HW137070   1.570   1.425   6.195  0.2963  0.5520 -2.0925
42764SOL    HW237071   1.691   1.471   6.272 -0.4545 -0.2675 -0.3870
42765SOL     OW37072   6.323   8.377   9.523  0.0199  0.2168 -0.6896
42765SOL    HW137073   6.350   8.315   9.455 -1.9368 -0.9737 -0.4663
42765SOL    HW237074   6.303   8.458   9.475 -3.7281 -1.2901 -2.1059
42766SOL     OW37075   0.811   1.978   2.660 -0.0285 -0.5535 -0.2249
42766SOL    HW137076   0.779   1.936   2.580 -0.7732 -0.7267  0.1537
42766SOL    HW237077   0.906   1.972   2.653 -0.0984 -1.6958 -0.5218
42767SOL     OW37078   7.770   0.346   5.702  0.1258  0.3865  1.1781
42767SOL    HW137079   7.858   0.309   5.701 -0.1336 -0.3279 -1.5540
42767SOL    HW237080   7.778   0.430   5.656 -0.9674 -0.8254 -1.4414
42768SOL     OW37081   3.157   5.908   9.878  1.5213  0.6021  0.1118
42768SOL    HW137082   3.066   5.896   9.905  1.3455  1.5550 -0.0137
42768SOL    HW237083   3.200   5.826   9.902  0.7162  0.2892  0.5327
42769SOL     OW37084   6.215   9.738   7.401  0.3229 -0.0540 -0.1572
42769SOL    HW137085   6.242   9.826   7.427  2.4758 -0.1169 -1.9533
42769SOL    HW237086   6.251   9.681   7.469 -1.4291  0.3845  1.2433
42770SOL     OW37087   5.960   2.391   7.764  0.1611 -0.3494  0.3004
42770SOL    HW137088   5.944   2.332   7.838 -1.4907  0.1735  0.3948
42770SOL    HW237089   5.978   2.476   7.805  1.0978 -0.4460  0.1219
42771SOL     OW37090   7.498   9.781  10.750 -0.2775  0.7209 -0.5718
42771SOL    HW137091   7.557   9.805  10.679 -0.0560  0.7405 -0.3801
42771SOL    HW237092   7.535   9.701  10.787 -1.7476 -0.7384 -2.0833
42772SOL     OW37093   0.626   8.493  11.040  0.9337  0.1089 -0.4812
42772SOL    HW137094   0.616   8.589  11.039  0.7321  0.1578  1.6707
42772SOL    HW237095   0.567   8.462  10.971  0.5403  1.5023 -0.8045
42773SOL     OW37096   6.039   7.642   7.216  0.7955 -0.4422  0.2905
42773SOL    HW137097   6.036   7.546   7.209  2.6075 -0.6050  1.1612
42773SOL    HW237098   6.106   7.669   7.154 -0.0785  0.3403 -0.3365
42774SOL     OW37099   0.880   0.396   0.883 -0.3159  0.0875 -0.7108
42774SOL    HW137100   0.916   0.331   0.942  1.1858  0.1178 -1.5472
42774SOL    HW237101   0.878   0.353   0.797  2.1477  1.5563 -1.6007
42775SOL     OW37102   8.186   4.253   6.568  0.2988  0.0709 -0.2549
42775SOL    HW137103   8.217   4.180   6.621  0.6670  0.0521 -0.4930
42775SOL    HW237104   8.252   4.262   6.499  0.9021  1.3989  0.4536
42776SOL     OW37105  12.583   4.411   7.539 -0.0500  0.0202  0.4320
42776SOL    HW137106  12.622   4.392   7.454 -0.7242  0.0672  0.1033
42776SOL    HW237107  12.506   4.354   7.544 -1.1224  1.3758  0.1662
42777SOL     OW37108   3.555   3.761   8.477 -0.4312 -0.7097 -0.0123
42777SOL    HW137109   3.549   3.742   8.570  1.9751 -2.2116 -0.0706
42777SOL    HW237110   3.605   3.843   8.472  0.1066 -1.0344  0.0115
42778SOL     OW37111   2.921   3.257   6.452  0.2544  0.0136 -0.5863
42778SOL    HW137112   2.974   3.198   6.399  1.0050  0.6706 -0.5869
42778SOL    HW237113   2.984   3.319   6.489 -0.6351  1.6275 -1.6373
42779SOL     OW37114   7.056   0.536  11.707 -0.0428 -0.1636  0.0509
42779SOL    HW137115   7.021   0.451  11.734 -1.1515  0.2474 -0.0297
42779SOL    HW237116   7.120   0.515  11.640  0.2008 -0.9736  0.5147
42780SOL     OW37117  10.939   3.736   0.398  0.6722  0.0141 -0.2024
42780SOL    HW137118  10.938   3.801   0.468  1.1287  0.6218 -0.7530
42780SOL    HW237119  11.022   3.689   0.410  0.0973 -0.8444  0.5238
42781SOL     OW37120  10.459   5.374   2.970  0.2863 -0.3179  0.4679
42781SOL    HW137121  10.399   5.442   2.939  0.9566  0.3679  0.6497
42781SOL    HW237122  10.523   5.364   2.900  1.8385  1.2768  1.5534
42782SOL     OW37123   5.760  10.587   7.432  0.0290 -0.0551 -0.3271
42782SOL    HW137124   5.699  10.516   7.412  0.7842 -0.3274 -1.8063
42782SOL    HW237125   5.733  10.658   7.374  0.1331  0.3850  0.1583
42783SOL     OW37126  10.028   7.706   7.114 -0.2537 -0.1217  0.8142
42783SOL    HW137127  10.006   7.621   7.076  0.2297  0.2722 -0.3932
42783SOL    HW237128  10.123   7.712   7.105 -0.3494  0.8040  0.2921
42784SOL     OW37129   7.900   1.910   0.004 -0.2560 -0.3730  0.1796
42784SOL    HW137130   7.876   1.934   0.093  1.5609  2.4351  0.0491
42784SOL    HW237131   7.911   1.815   0.006 -1.6365 -0.5549  2.5401
42785SOL     OW37132   5.792   6.852   8.332 -0.4721  0.2518  0.1678
42785SOL    HW137133   5.874   6.804   8.315 -0.7505 -0.9210  1.8730
42785SOL    HW237134   5.760   6.876   8.245  1.7551  0.8975 -0.5444
42786SOL     OW37135   1.514   4.585  11.211  0.0194 -0.2078  0.4501
42786SOL    HW137136   1.545   4.674  11.226  0.2107  0.2072 -1.9756
42786SOL    HW237137   1.581   4.530  11.251  1.7281  0.7339 -0.9788
42787SOL     OW37138   7.812   4.178   1.484  0.4051 -0.4895 -0.6919
42787SOL    HW137139   7.821   4.212   1.573  0.6142  2.2541 -1.6899
42787SOL    HW237140   7.889   4.210   1.438 -0.6538 -0.2122 -2.3540
42788SOL     OW37141   1.243   4.745   7.320  0.4891 -0.0272 -0.0911
42788SOL    HW137142   1.169   4.795   7.286  0.9359  0.6054 -0.1458
42788SOL    HW237143   1.285   4.708   7.242 -1.0110 -2.2300  0.0382
42789SOL     OW37144   3.234  10.447   9.292 -0.1875  0.3793 -0.4159
42789SOL    HW137145   3.231  10.358   9.327 -2.6038  0.7928  0.6574
42789SOL    HW237146   3.309  10.488   9.336 -0.7335 -0.3247  1.2515
42790SOL     OW37147   9.527   2.147   3.502  0.7731 -0.3564 -0.3681
42790SOL    HW137148   9.604   2.150   3.558  0.4700 -1.9026  0.1683
42790SOL    HW237149   9.472   2.079   3.539 -0.5360  0.2138 -1.1719
42791SOL     OW37150  11.959   6.542   5.319 -0.1187  0.1514  0.2555
42791SOL    HW137151  11.947   6.511   5.409 -1.3087  0.0278  0.0667
42791SOL    HW237152  11.958   6.463   5.266  2.8363 -0.0247  0.2772
42792SOL     OW37153   8.956   7.025  10.948  0.3729 -0.1161  0.5714
42792SOL    HW137154   8.999   7.075  11.017 -1.2710 -0.8718  2.2214
42792SOL    HW237155   8.872   7.068  10.936  0.5889 -0.0643 -0.9343
42793SOL     OW37156   3.500   8.155   6.127  0.5064 -0.0890 -0.0543
42793SOL    HW137157   3.462   8.075   6.164  1.4947  0.5858  2.6286
42793SOL    HW237158   3.575   8.123   6.076 -0.4866 -1.0058 -1.0030
42794SOL     OW37159   6.142  11.336   5.538  0.0266 -0.1468  0.0344
42794SOL    HW137160   6.161  11.249   5.571 -0.4188  0.3168  1.6185
42794SOL    HW237161   6.097  11.380   5.611 -1.0622  0.9299 -1.2250
42795SOL     OW37162   8.105   1.629   6.374  0.0829 -0.3956  0.8266
42795SOL    HW137163   8.029   1.578   6.346  0.0218  0.3558 -0.4118
42795SOL    HW237164   8.068   1.709   6.411  0.2793  0.0991 -0.0442
42796SOL     OW37165   5.629   1.798  10.524 -0.5620 -0.2164  0.0972
42796SOL    HW137166   5.585   1.764  10.446 -2.0380  1.2163  0.2635
42796SOL    HW237167   5.604   1.737  10.594 -1.1606 -0.1899 -0.0895
42797SOL     OW37168   7.145   3.190   5.366  0.6365 -0.3594 -0.8357
42797SOL    HW137169   7.178   3.110   5.326  1.2881 -0.5011 -0.0347
42797SOL    HW237170   7.135   3.168   5.459  1.1523  0.5808 -0.5445
42798SOL     OW37171   7.063  12.324   4.975 -0.0579 -0.0512 -0.0427
42798SOL    HW137172   7.075  12.351   4.884 -0.0740 -0.2944 -0.1157
42798SOL    HW237173   6.984  12.370   5.003 -0.3164 -0.3421 -0.2921
42799SOL     OW37174  10.932  11.013   5.025 -0.2596 -0.5003  0.1102
42799SOL    HW137175  10.967  11.081   4.968 -1.1126 -0.9217 -0.9535
42799SOL    HW237176  10.902  11.060   5.103  1.1027  0.0576  0.3380
42800SOL     OW37177   5.808   1.423   1.017 -0.1734 -0.5199 -0.4933
42800SOL    HW137178   5.821   1.425   1.112 -0.8462 -0.7959 -0.3830
42800SOL    HW237179   5.833   1.334   0.992 -0.0218 -0.4553 -0.5717
42801SOL     OW37180   4.233  10.333  10.990 -0.0319 -0.3255 -0.2375
42801SOL    HW137181   4.233  10.277  10.912  1.4787  1.8618 -1.9392
42801SOL    HW237182   4.321  10.324  11.027 -0.1970 -0.0681  0.2277
42802SOL     OW37183   5.094   0.018  11.109  0.0026  0.0114 -1.1055
42802SOL    HW137184   5.190   0.017  11.113 -0.0037 -0.8323  1.9434
42802SOL    HW237185   5.073  -0.041  11.036  1.7948 -0.0200 -1.6594
42803SOL     OW37186   1.498  12.375   8.518 -0.0909 -0.1355  0.7420
42803SOL    HW137187   1.481  12.333   8.603 -2.1073 -0.8304  0.0520
42803SOL    HW237188   1.411  12.390   8.481  0.7085  1.3855 -0.6469
42804SOL     OW37189   3.629   8.220   2.829  0.6305  0.8286 -0.0810
42804SOL    HW137190   3.587   8.306   2.838  1.4729  1.2454 -0.0059
42804SOL    HW237191   3.609   8.175   2.911 -1.4100  0.2010 -0.8520
42805SOL     OW37192  12.111   2.521   9.576  0.0457  0.0942  0.0553
42805SOL    HW137193  12.128   2.446   9.519 -1.5989 -1.0943  1.0346
42805SOL    HW237194  12.023   2.550   9.551 -0.3012  0.1629  1.2890
42806SOL     OW37195   9.060   0.921   8.568 -0.1317 -0.1263  0.3998
42806SOL    HW137196   9.072   0.863   8.643  0.2566  0.2085  0.5964
42806SOL    HW237197   9.137   0.906   8.514 -0.5691 -0.6127 -0.1021
42807SOL     OW37198   5.990   5.880   3.836 -0.3139  0.0315 -0.4903
42807SOL    HW137199   5.936   5.937   3.780 -1.1250 -0.1716  0.0779
42807SOL    HW237200   6.027   5.816   3.775 -1.7151 -0.5879 -0.7168
42808SOL     OW37201   5.995  10.486   3.282  0.0668 -0.0206  0.2819
42808SOL    HW137202   6.069  10.425   3.280 -0.5714 -0.8076  0.1423
42808SOL    HW237203   6.026  10.563   3.234  0.6666 -0.4934 -0.1037
42809SOL     OW37204   2.017   7.779   5.100 -0.1475  0.3536  0.1459
42809SOL    HW137205   2.081   7.829   5.050  1.2682 -0.5005  1.0304
42809SOL    HW237206   1.975   7.722   5.035  0.5555  0.3589 -0.3248
42810SOL     OW37207   7.443  12.180   3.394  0.0065  0.1072  0.0261
42810SOL    HW137208   7.458  12.187   3.299  0.0243 -0.8436 -0.0519
42810SOL    HW237209   7.366  12.124   3.402  0.5697 -0.6108  0.5834
42811SOL     OW37210   6.617   8.535  11.724  0.0775 -0.1520 -0.3240
42811SOL    HW137211   6.532   8.573  11.703 -0.7892 -0.4769  2.2903
42811SOL    HW237212   6.678   8.609  11.718 -0.5369  0.3012 -1.2219
42812SOL     OW37213   2.649   1.961   5.444 -0.6874 -0.1649  0.2925
42812SOL    HW137214   2.738   1.978   5.476 -0.6743  0.6789 -0.1609
42812SOL    HW237215   2.634   1.868   5.463  0.3543 -0.3647  0.2197
42813SOL     OW37216   0.681   7.207   1.204  0.1789  0.6746 -0.3996
42813SOL    HW137217   0.699   7.116   1.180  1.6933  0.8430 -0.0091
42813SOL    HW237218   0.759   7.255   1.177  0.0711  1.5920  0.8244
42814SOL     OW37219   9.004   3.612   1.946  0.0284 -0.6971 -0.0131
42814SOL    HW137220   8.908   3.612   1.941  0.0189  0.3086  0.0613
42814SOL    HW237221   9.023   3.605   2.039  0.0157 -0.3301  0.0196
42815SOL     OW37222   3.851   6.480   2.520 -0.0167  0.0389 -0.1401
42815SOL    HW137223   3.943   6.503   2.511 -0.4308  1.7230 -0.3422
42815SOL    HW237224   3.852   6.386   2.541  1.6403 -0.6646 -2.8057
42816SOL     OW37225  11.251   6.784   1.233 -0.2202 -0.2219 -0.2778
42816SOL    HW137226  11.217   6.706   1.189 -0.3418 -0.6285  0.4995
42816SOL    HW237227  11.279   6.842   1.163 -0.6007 -0.7575 -0.8829
42817SOL     OW37228   3.887   6.817  10.932  0.3487 -0.0701 -0.5882
42817SOL    HW137229   3.846   6.750  10.987 -0.4615  0.6666 -0.2779
42817SOL    HW237230   3.934   6.874  10.993 -1.6382  1.5243 -0.4585
42818SOL     OW37231   9.029   8.721   8.748 -0.4931 -0.3519 -0.4606
42818SOL    HW137232   9.011   8.630   8.771 -1.9515 -0.1701 -0.8019
42818SOL    HW237233   9.040   8.719   8.652 -0.2981 -0.2005 -0.4405
42819SOL     OW37234  12.024   6.152   7.658 -0.1665 -0.2741  0.1716
42819SOL    HW137235  12.111   6.187   7.639 -0.1619 -0.4272 -0.0938
42819SOL    HW237236  12.038   6.057   7.662 -0.6041 -0.4345 -1.4288
42820SOL     OW37237   0.197   4.009   1.847 -0.1239 -0.5778 -0.0206
42820SOL    HW137238   0.276   3.957   1.861 -0.9689 -1.4634  1.8666
42820SOL    HW237239   0.127   3.956   1.886 -1.8482 -0.2932 -2.4872
42821SOL     OW37240   9.953   5.120  11.394  0.0206  0.1831  0.1322
42821SOL    HW137241   9.987   5.157  11.475 -0.6007  0.4796  0.2663
42821SOL    HW237242   9.992   5.033  11.389 -1.4373 -0.6363  1.7645
42822SOL     OW37243   4.873   1.086   4.836 -0.2530 -0.4019  1.0455
42822SOL    HW137244   4.931   1.157   4.863 -0.1140 -0.4130  0.7786
42822SOL    HW237245   4.810   1.127   4.777 -0.5825 -0.3708  1.4076
42823SOL     OW37246  12.510   8.169  11.980 -0.1955 -0.2858  0.2475
42823SOL    HW137247  12.495   8.225  11.904  0.2429 -1.5117 -0.7728
42823SOL    HW237248  12.439   8.191  12.040 -0.1545  1.1956 -0.2153
42824SOL     OW37249   2.715   3.458  11.562 -0.1530  0.1759 -0.2364
42824SOL    HW137250   2.650   3.405  11.516  0.9067 -0.4240 -1.0793
42824SOL    HW237251   2.773   3.491  11.493  2.2952 -1.8407  0.6994
42825SOL     OW37252   1.363   7.545   6.413  0.0518  0.2699  0.3149
42825SOL    HW137253   1.370   7.536   6.318 -0.5155 -1.7031  0.4274
42825SOL    HW237254   1.450   7.577   6.440  0.1175  1.1679 -0.8729
42826SOL     OW37255   9.779   1.901   1.024 -0.2355 -0.2384  0.2271
42826SOL    HW137256   9.778   1.993   1.051 -0.5154 -0.0186 -0.5024
42826SOL    HW237257   9.707   1.894   0.961  2.1781  0.0310 -2.8380
42827SOL     OW37258   0.190   3.467   3.968 -0.6951 -0.1426 -0.3442
42827SOL    HW137259   0.170   3.543   3.913  0.1346  1.9753  2.0485
42827SOL    HW237260   0.253   3.416   3.917 -1.6261  0.4853 -2.2234
42828SOL     OW37261   3.817  12.284   7.082 -0.5107  0.6673 -0.6287
42828SOL    HW137262   3.883  12.240   7.028  0.3010 -0.6661  1.3138
42828SOL    HW237263   3.864  12.359   7.119  0.4838 -0.9868  1.7768
42829SOL     OW37264   5.625  11.863   1.492 -0.1401  0.5217  0.1421
42829SOL    HW137265   5.640  11.836   1.583  0.4174 -0.0740 -0.1227
42829SOL    HW237266   5.621  11.781   1.443 -2.9989  0.6426 -0.0321
42830SOL     OW37267   8.915   5.329   5.395  0.3874  0.0924  0.3473
42830SOL    HW137268   8.873   5.252   5.433 -1.9863  1.2276  0.2200
42830SOL    HW237269   8.887   5.327   5.303  1.1780  0.5448  0.0930
42831SOL     OW37270   5.246  10.089   9.006  0.0830 -0.5961  0.1155
42831SOL    HW137271   5.231   9.997   8.986 -0.6044 -0.2295 -1.1679
42831SOL    HW237272   5.159  10.125   9.023  0.1288  0.1750 -1.1230
42832SOL     OW37273   8.203  11.001  12.155  0.2051  0.3570  0.1535
42832SOL    HW137274   8.231  11.047  12.235  2.2541  1.1892 -0.9559
42832SOL    HW237275   8.272  10.937  12.139 -0.3097  0.0327 -0.8385
42833SOL     OW37276   8.486   2.266   7.394 -0.2451  0.2176  0.0132
42833SOL    HW137277   8.499   2.348   7.442 -0.7237  0.5421 -0.4133
42833SOL    HW237278   8.542   2.274   7.317 -0.8105  0.4303 -0.3767
42834SOL     OW37279   9.467   8.142  11.827 -0.3180  0.2398 -0.1593
42834SOL    HW137280   9.404   8.158  11.898 -0.7219  0.6348 -0.5910
42834SOL    HW237281   9.412   8.137  11.749  0.2231  1.0257 -0.6028
42835SOL     OW37282   4.686   0.612   2.079 -0.4605  0.0667 -0.9705
42835SOL    HW137283   4.611   0.591   2.024 -0.0080 -0.6542 -1.3092
42835SOL    HW237284   4.758   0.559   2.045  0.5564  1.6765 -1.4670
42836SOL     OW37285   0.504   7.650   2.257 -0.3901 -0.3142  0.3996
42836SOL    HW137286   0.590   7.689   2.243 -0.3280 -0.6464 -0.1691
42836SOL    HW237287   0.467   7.642   2.169 -1.0701 -0.0217  0.6513
42837SOL     OW37288  10.668   3.415   7.691 -0.5397  0.4121 -0.8274
42837SOL    HW137289  10.692   3.341   7.747 -0.5710  0.5797 -0.5892
42837SOL    HW237290  10.751   3.442   7.650 -0.3364  0.9103 -0.1031
42838SOL     OW37291   3.376   0.517  11.694  0.4522 -0.1349 -0.6251
42838SOL    HW137292   3.295   0.503  11.742  0.9597 -1.8517 -0.2051
42838SOL    HW237293   3.441   0.535  11.762  0.5941  0.4120 -0.8996
42839SOL     OW37294   1.452  10.034   4.659  0.4471 -0.6935  0.5429
42839SOL    HW137295   1.380   9.974   4.637  0.5463 -0.4218 -0.6261
42839SOL    HW237296   1.415  10.094   4.723 -0.0549 -1.2055  0.7407
42840SOL     OW37297   9.184   1.758   2.817 -0.2468 -0.5614  0.3332
42840SOL    HW137298   9.113   1.822   2.820 -1.2416 -1.6452  0.8447
42840SOL    HW237299   9.246   1.789   2.883  0.6661  1.3549 -1.3221
42841SOL     OW37300   9.119   1.089   7.785 -0.2802 -0.0530  0.4933
42841SOL    HW137301   9.159   1.153   7.843  0.5882  1.0208 -1.2058
42841SOL    HW237302   9.049   1.049   7.837  1.6632 -0.5585  2.9028
42842SOL     OW37303   7.830   0.842  11.380 -0.3310  0.9998  0.1004
42842SOL    HW137304   7.910   0.823  11.331 -0.0708 -2.0839  1.4916
42842SOL    HW237305   7.760   0.805  11.327 -0.2654 -0.5476  1.0464
42843SOL     OW37306   2.069   5.925   4.447  0.1783  0.2783  0.6183
42843SOL    HW137307   2.164   5.916   4.444  0.0106 -1.7516  0.1307
42843SOL    HW237308   2.052   5.979   4.524  1.6911  0.3783  0.9105
42844SOL     OW37309   7.089   1.410   8.356 -0.3758 -0.3114  0.2216
42844SOL    HW137310   7.084   1.414   8.261  0.9516  0.0136  0.1531
42844SOL    HW237311   7.181   1.396   8.375 -0.3122  1.4339  1.5082
42845SOL     OW37312   5.921   0.161   5.054 -0.1718  0.0250  0.6867
42845SOL    HW137313   5.898   0.197   5.140 -1.1655  0.1411  0.3751
42845SOL    HW237314   5.838   0.132   5.017  0.3604 -0.7575  0.0929
42846SOL     OW37315   3.470   3.419   1.865  0.1833  0.1130  0.2532
42846SOL    HW137316   3.392   3.369   1.888  0.1598 -0.2074 -0.4961
42846SOL    HW237317   3.523   3.359   1.812 -0.3664  1.1994 -1.6422
42847SOL     OW37318   6.203  10.562   0.204 -0.0105 -0.2413  0.0485
42847SOL    HW137319   6.250  10.515   0.272 -0.8074  0.8117  1.3873
42847SOL    HW237320   6.258  10.638   0.185 -0.2662  0.0053  0.2742
42848SOL     OW37321   8.949   2.901   3.309 -0.6271  0.2159  0.5782
42848SOL    HW137322   8.921   2.935   3.393 -0.9899 -0.8454  0.9039
42848SOL    HW237323   9.012   2.965   3.276 -0.3889  0.5764  1.7186
42849SOL     OW37324   0.158   3.792   2.585 -0.0497 -0.0715 -0.5542
42849SOL    HW137325   0.246   3.762   2.565  0.0665 -0.1553  0.0666
42849SOL    HW237326   0.143   3.766   2.676 -0.3904  0.7029 -0.3781
42850SOL     OW37327   1.136   4.211   0.413 -0.5535  0.5087  0.4398
42850SOL    HW137328   1.146   4.291   0.362 -1.6134  1.2121  1.2959
42850SOL    HW237329   1.160   4.236   0.503  1.9968 -0.8784  0.2470
42851SOL     OW37330  11.275   1.407   8.979 -0.1490 -0.1322 -0.4813
42851SOL    HW137331  11.198   1.431   9.032  1.1457 -0.0806  1.4881
42851SOL    HW237332  11.325   1.488   8.972  0.8787 -0.6832  0.3060
42852SOL     OW37333   7.307  10.050   7.788 -0.4179 -0.2785  0.1703
42852SOL    HW137334   7.330  10.053   7.695  1.2553  0.3131  0.5704
42852SOL    HW237335   7.282   9.959   7.804 -1.4697 -0.2230 -1.0014
42853SOL     OW37336  10.199   0.617  10.210 -0.2475 -0.4536 -0.8192
42853SOL    HW137337  10.141   0.599  10.284  1.1883 -1.6597  0.0680
42853SOL    HW237338  10.285   0.589  10.240  0.2107 -1.9646 -3.2898
42854SOL     OW37339   0.672   6.042   4.337  0.3674 -0.1795  0.1043
42854SOL    HW137340   0.691   5.960   4.291 -0.0812 -1.1319  1.5372
42854SOL    HW237341   0.745   6.052   4.399  0.0798  0.1653  0.3912
42855SOL     OW37342   4.290   6.232  11.416 -0.3151  0.9066 -0.5202
42855SOL    HW137343   4.235   6.265  11.345 -0.6478 -1.4962 -1.4751
42855SOL    HW237344   4.355   6.177  11.373 -0.1645 -0.1588  0.9773
42856SOL     OW37345   8.540   4.220   7.668 -0.0471 -0.2056 -0.4019
42856SOL    HW137346   8.590   4.209   7.748  0.0140 -0.8373 -0.5182
42856SOL    HW237347   8.603   4.255   7.605 -0.3566  1.3228  0.1060
42857SOL     OW37348   4.384   7.268   5.736 -0.2801 -0.6045 -0.3456
42857SOL    HW137349   4.298   7.299   5.709 -0.1011 -0.2235 -0.4801
42857SOL    HW237350   4.436   7.348   5.747  0.4615 -0.9022 -1.6114
42858SOL     OW37351   9.545   2.691   8.449 -0.0746  0.0160  0.3590
42858SOL    HW137352   9.614   2.658   8.507  1.0867  1.5253 -0.1033
42858SOL    HW237353   9.534   2.782   8.476  1.2085  1.0831 -2.3597
42859SOL     OW37354   7.084   2.514   6.513 -0.1658 -0.0898 -0.1160
42859SOL    HW137355   7.141   2.451   6.557  1.4612 -0.7377 -2.8841
42859SOL    HW237356   7.017   2.460   6.470 -0.5731  0.3272 -0.0032
42860SOL     OW37357   2.550   5.087   1.169 -0.0940 -0.1765 -0.0268
42860SOL    HW137358   2.594   5.029   1.106  1.5707  2.6479 -1.6432
42860SOL    HW237359   2.479   5.127   1.119  2.4945  3.6929 -1.0775
42861SOL     OW37360   1.778   0.849   4.623 -0.0734 -0.0639  0.6986
42861SOL    HW137361   1.869   0.859   4.595 -0.7751 -1.3160 -2.3159
42861SOL    HW237362   1.727   0.901   4.561 -1.5655 -0.7488  1.2905
42862SOL     OW37363   4.132   5.122   1.146  0.5812  0.8837 -0.4876
42862SOL    HW137364   4.210   5.111   1.199 -0.3622  0.5109  0.8803
42862SOL    HW237365   4.161   5.103   1.056  1.2896 -3.3272  0.3897
42863SOL     OW37366   7.453   4.827   1.072 -0.4164 -0.0010 -0.3070
42863SOL    HW137367   7.477   4.882   0.998 -0.4323 -0.8156 -0.9276
42863SOL    HW237368   7.389   4.766   1.037 -0.1431 -0.6404  0.2782
42864SOL     OW37369   0.087   4.122   7.050 -1.0376 -0.2251 -0.5203
42864SOL    HW137370   0.131   4.194   7.005  0.6679 -1.3627 -0.7650
42864SOL    HW237371   0.042   4.163   7.123 -0.5768  1.1582 -0.9908
42865SOL     OW37372   3.646   4.159   2.689  0.0935  0.0271  0.5031
42865SOL    HW137373   3.606   4.197   2.767  0.7676 -1.4481  1.6318
42865SOL    HW237374   3.574   4.150   2.626 -0.3378  1.8107  0.6952
42866SOL     OW37375  10.408   8.726  12.586 -0.0644  0.4491  0.2571
42866SOL    HW137376  10.481   8.711  12.647  0.5954  2.5078  0.0725
42866SOL    HW237377  10.435   8.684  12.505  0.4868  0.3619  0.4811
42867SOL     OW37378   5.282   5.483   7.735  0.5428  0.2121 -0.5448
42867SOL    HW137379   5.327   5.523   7.810  0.8289 -0.5707 -0.2877
42867SOL    HW237380   5.262   5.557   7.677 -1.0441  1.0411  0.9777
42868SOL     OW37381   7.985   5.768   6.942  0.1324 -0.3914  0.0266
42868SOL    HW137382   8.068   5.724   6.925  0.8024  0.3675  1.1793
42868SOL    HW237383   7.943   5.773   6.857  2.0170  0.7033 -0.9063
42869SOL     OW37384   7.403   5.232  11.393  0.2812 -0.2467  0.8950
42869SOL    HW137385   7.383   5.139  11.396 -3.9167  0.3908 -0.5393
42869SOL    HW237386   7.362   5.268  11.472 -0.8459  0.6714 -0.0569
42870SOL     OW37387  10.240  10.356   4.615 -0.6011 -0.3641  0.1733
42870SOL    HW137388  10.213  10.268   4.588 -1.0260 -0.2247  0.1341
42870SOL    HW237389  10.169  10.385   4.673  0.2220 -0.6083  1.3380
42871SOL     OW37390   2.383  10.836   7.659  0.2049 -0.1901  0.2422
42871SOL    HW137391   2.349  10.750   7.685  0.7856  0.0307  1.8525
42871SOL    HW237392   2.468  10.841   7.702  0.0887  1.2727  0.3282
42872SOL     OW37393   1.938   4.776   5.391  0.0432  0.6003 -0.2202
42872SOL    HW137394   1.904   4.841   5.452 -3.1333 -2.0811  1.1575
42872SOL    HW237395   2.026   4.756   5.424 -0.5779  1.1031  1.8920
42873SOL     OW37396   5.657   3.447   1.682  0.5655  0.4379  0.3624
42873SOL    HW137397   5.699   3.530   1.704  0.9777  0.5279 -0.7170
42873SOL    HW237398   5.656   3.444   1.586  0.1419 -0.5950  0.3760
42874SOL     OW37399   0.804   3.160   8.760 -0.2193  0.0392  0.5455
42874SOL    HW137400   0.890   3.134   8.794  0.3356  0.6493 -0.3289
42874SOL    HW237401   0.791   3.248   8.795 -0.3198  0.0875  0.3885
42875SOL     OW37402  10.633  11.459   7.499 -0.0529  0.2153 -0.1710
42875SOL    HW137403  10.622  11.499   7.413  1.1000 -1.7625 -1.3332
42875SOL    HW237404  10.546  11.425   7.521 -0.1905  0.0506 -0.9459
42876SOL     OW37405   9.461   0.953  12.287  0.2310  0.0680 -0.4376
42876SOL    HW137406   9.441   0.898  12.363 -1.5440  0.5134 -0.5472
42876SOL    HW237407   9.518   0.899  12.233  0.6109 -0.6789  0.6649
42877SOL     OW37408  11.938   2.900   9.718  0.1986  0.5469  0.5343
42877SOL    HW137409  12.030   2.916   9.740  0.2537 -1.0856  1.6701
42877SOL    HW237410  11.892   2.910   9.802 -0.7488  1.7334 -0.0942
42878SOL     OW37411   6.131   5.485  12.587 -0.6849 -0.5282  0.2171
42878SOL    HW137412   6.063   5.419  12.571 -0.6769 -0.2216 -1.1503
42878SOL    HW237413   6.142   5.529  12.503  0.1444  0.4393  0.8194
42879SOL     OW37414   4.754   9.702   3.929 -0.0011  0.2068 -0.3206
42879SOL    HW137415   4.660   9.690   3.915  0.5146 -2.4169 -2.1678
42879SOL    HW237416   4.776   9.643   4.001  0.0930  1.7990  1.0332
42880SOL     OW37417   5.318   2.889   1.710 -0.1459  0.2161 -0.1449
42880SOL    HW137418   5.344   2.917   1.622  0.6522  1.6810  0.5150
42880SOL    HW237419   5.222   2.885   1.707 -0.2081  1.6879 -0.6892
42881SOL     OW37420   2.565   8.448  12.392  0.3580 -0.2852  0.7704
42881SOL    HW137421   2.626   8.462  12.319 -0.2553 -0.6145  0.1878
42881SOL    HW237422   2.535   8.358  12.381 -0.9603  0.1708  0.4957
42882SOL     OW37423   2.800   7.318   4.821 -0.3229  0.0108  0.7069
42882SOL    HW137424   2.741   7.336   4.747  0.1202 -2.7310 -0.4675
42882SOL    HW237425   2.846   7.401   4.836 -1.4576  1.0617 -1.1646
42883SOL     OW37426  10.434   4.895  12.048  0.4446  0.6382  0.1153
42883SOL    HW137427  10.464   4.809  12.020  0.7257  0.3125  1.3417
42883SOL    HW237428  10.354   4.877  12.098  1.3839  0.8864  1.7708
42884SOL     OW37429   0.332   8.828  10.968  0.0244 -0.2958  0.3653
42884SOL    HW137430   0.244   8.825  10.930  0.1833  0.3711 -0.0781
42884SOL    HW237431   0.318   8.836  11.062 -0.4565  2.7268  0.1148
42885SOL     OW37432   3.118   3.690   9.772 -1.0291  0.2939  0.0664
42885SOL    HW137433   3.080   3.775   9.748 -0.9161  0.2305 -0.3506
42885SOL    HW237434   3.112   3.638   9.692 -0.8545 -0.0028  0.2448
42886SOL     OW37435   3.631   1.087   0.900 -0.3755  0.1475 -0.0880
42886SOL    HW137436   3.701   1.034   0.860 -2.0075 -2.3787  0.1798
42886SOL    HW237437   3.659   1.097   0.991  0.8388  1.4204 -0.5617
42887SOL     OW37438  10.189   9.232  11.645 -0.5836 -0.1635 -0.3996
42887SOL    HW137439  10.236   9.154  11.675 -0.3547  0.9439  2.4515
42887SOL    HW237440  10.098   9.217  11.673 -0.8581 -0.0474 -1.2108
42888SOL     OW37441   1.069  11.238   3.602 -0.6050 -0.0522 -0.5385
42888SOL    HW137442   0.981  11.232   3.638 -0.1856  1.2833  0.8397
42888SOL    HW237443   1.057  11.282   3.518 -1.3478 -0.8215 -0.8467
42889SOL     OW37444   6.871  11.966   2.663 -0.3249 -0.1803 -0.3140
42889SOL    HW137445   6.912  11.906   2.726 -1.4401 -0.0112  0.6024
42889SOL    HW237446   6.925  12.045   2.669 -1.4192  0.4963  1.8165
42890SOL     OW37447  11.844  11.892  11.249  0.9767 -0.1271  0.0365
42890SOL    HW137448  11.780  11.946  11.204  1.3845  0.6681  0.3795
42890SOL    HW237449  11.814  11.888  11.340  0.1091 -1.7974 -0.2752
42891SOL     OW37450   3.335   0.266  11.552 -0.2475 -0.7988  0.2900
42891SOL    HW137451   3.387   0.230  11.624  2.0120 -2.4497 -1.9904
42891SOL    HW237452   3.371   0.354  11.540 -0.3791 -0.6523  0.9262
42892SOL     OW37453   9.551   7.227   2.317 -0.1895  0.1158  0.0241
42892SOL    HW137454   9.482   7.203   2.380  0.2980  1.2226  1.0307
42892SOL    HW237455   9.608   7.151   2.314 -1.8180 -1.1497 -1.4268
42893SOL     OW37456   9.707   3.024   6.651  0.0907 -0.3771  0.4848
42893SOL    HW137457   9.776   2.996   6.712  0.9476  2.2485  0.8295
42893SOL    HW237458   9.693   3.116   6.671 -1.6351 -0.1505 -1.4326
42894SOL     OW37459  10.491   8.301   3.099  0.3808 -0.2853 -0.1013
42894SOL    HW137460  10.402   8.334   3.086 -0.4530 -1.0044  2.9653
42894SOL    HW237461  10.547   8.374   3.072 -1.1960  1.0020 -0.1098
42895SOL     OW37462   9.020   8.038  11.872 -0.4358  0.5658 -0.1886
42895SOL    HW137463   9.067   7.967  11.915 -2.0501 -0.4883 -0.0628
42895SOL    HW237464   9.023   8.016  11.779 -0.4252  0.6405 -0.2063
42896SOL     OW37465   7.498   3.500   0.213  0.2540  0.1219  0.4142
42896SOL    HW137466   7.450   3.581   0.202  0.2641  0.1286  0.4189
42896SOL    HW237467   7.448   3.435   0.164 -0.9197 -0.3362  2.1454
42897SOL     OW37468   4.146   8.148  10.091  0.2506 -0.0226  0.4265
42897SOL    HW137469   4.201   8.202  10.034 -0.8280  0.6573 -0.0120
42897SOL    HW237470   4.144   8.062  10.048  0.9274 -0.0440  0.4299
42898SOL     OW37471   2.180  11.497   2.791 -0.1210 -0.7663  0.2149
42898SOL    HW137472   2.164  11.413   2.834 -0.3733 -0.5275  0.5956
42898SOL    HW237473   2.093  11.532   2.773 -0.0781  0.4046  2.0336
42899SOL     OW37474   8.459   2.108   4.585 -0.8349 -0.2562 -0.3879
42899SOL    HW137475   8.487   2.151   4.665  3.7661  0.3249 -1.9831
42899SOL    HW237476   8.461   2.014   4.605 -2.7148 -0.0847  0.8501
42900SOL     OW37477   6.563   7.943   7.684 -0.2619  0.1944  0.5619
42900SOL    HW137478   6.597   8.019   7.637  0.5826 -0.1200  0.6450
42900SOL    HW237479   6.470   7.941   7.662 -0.3516  1.4000  0.7761
42901SOL     OW37480   6.123  11.561   4.625  0.0573 -0.1060 -0.1617
42901SOL    HW137481   6.032  11.541   4.645 -0.7646  1.3856 -2.0567
42901SOL    HW237482   6.152  11.618   4.696 -0.8698  0.2916 -0.0873
42902SOL     OW37483   5.261   0.484   9.698 -0.1886  0.0269 -0.1455
42902SOL    HW137484   5.191   0.544   9.673 -0.2472 -1.2476 -3.4925
42902SOL    HW237485   5.245   0.467   9.792 -2.2432  2.4130  0.0430
42903SOL     OW37486   5.047   9.499  10.561  0.0386  0.2894 -0.0504
42903SOL    HW137487   5.102   9.424  10.536  0.5977 -0.1879  2.3886
42903SOL    HW237488   5.084   9.572  10.512  1.0539 -0.5736 -0.6207
42904SOL     OW37489   6.585   0.364   4.361 -0.3733  0.1188  0.5189
42904SOL    HW137490   6.534   0.438   4.329 -0.2296  0.5164  1.1867
42904SOL    HW237491   6.551   0.347   4.449  0.4963  0.2555  0.8888
42905SOL     OW37492  11.559   2.585   4.129 -0.8253  0.1487  0.3477
42905SOL    HW137493  11.483   2.531   4.106 -1.6103  0.9870  0.9271
42905SOL    HW237494  11.603   2.601   4.045 -2.5451  1.5233 -0.3507
42906SOL     OW37495   8.603   1.377   7.240 -0.6898  0.4237  0.1575
42906SOL    HW137496   8.534   1.327   7.195  0.3029  0.7015 -1.7911
42906SOL    HW237497   8.572   1.467   7.239 -0.5389  0.4714 -0.2370
42907SOL     OW37498   7.249   0.621   3.010  0.1434  0.1896  0.3405
42907SOL    HW137499   7.299   0.692   2.970 -1.4966  0.8150 -0.6752
42907SOL    HW237500   7.231   0.652   3.099 -0.3899  0.9743 -0.0325
42908SOL     OW37501   7.268   8.930   0.312  0.2039 -0.1259 -0.1131
42908SOL    HW137502   7.361   8.951   0.323  0.2624 -0.9773  1.2301
42908SOL    HW237503   7.266   8.837   0.292 -0.3757 -0.1762  0.1469
42909SOL     OW37504   0.522   1.505   9.715  0.1425 -0.9844 -0.1526
42909SOL    HW137505   0.569   1.423   9.732  1.4630 -0.2988 -0.3815
42909SOL    HW237506   0.590   1.566   9.687 -0.8094  0.2253  0.1060
42910SOL     OW37507   4.162   3.182   9.150  0.0027 -1.2113  0.5478
42910SOL    HW137508   4.107   3.201   9.226  0.3047 -3.1576  1.3144
42910SOL    HW237509   4.125   3.103   9.112  0.9752 -1.3197 -0.2253
42911SOL     OW37510   0.468   5.381   6.543  0.2157 -0.3120 -0.1191
42911SOL    HW137511   0.472   5.465   6.499 -0.1763  0.3096  1.0079
42911SOL    HW237512   0.448   5.318   6.473 -0.5911  0.6651 -0.7918
42912SOL     OW37513   2.972  11.921   7.351  0.1680 -0.4107  0.0357
42912SOL    HW137514   2.968  11.854   7.420 -1.2278 -0.3480  0.0488
42912SOL    HW237515   3.048  11.897   7.299  0.8732 -0.8307  1.2241
42913SOL     OW37516   7.257  10.486   5.325 -0.0134  0.0568 -0.3012
42913SOL    HW137517   7.207  10.544   5.383 -0.4780 -1.4996  0.9172
42913SOL    HW237518   7.349  10.504   5.346 -0.1714 -0.2294  0.6704
42914SOL     OW37519   6.131   4.096   6.334 -0.0022  0.4408 -0.2202
42914SOL    HW137520   6.141   4.163   6.267  0.5002 -0.0774 -0.6739
42914SOL    HW237521   6.188   4.125   6.405  0.1334  0.5486 -0.3734
42915SOL     OW37522   0.878   3.660   6.961 -0.5785  0.3079 -0.0704
42915SOL    HW137523   0.954   3.655   6.903 -0.8504 -0.7669 -0.3683
42915SOL    HW237524   0.883   3.580   7.014 -1.0138  0.6673  0.5293
42916SOL     OW37525   0.596   5.128   0.931  0.0763  0.2284 -0.1746
42916SOL    HW137526   0.607   5.218   0.899  2.1674 -0.0639 -0.3749
42916SOL    HW237527   0.503   5.110   0.919 -0.6387  2.7395  0.8951
42917SOL     OW37528   6.669   2.334  10.847  0.2958 -0.2134  0.4886
42917SOL    HW137529   6.599   2.385  10.807  0.3313 -0.9221 -0.5057
42917SOL    HW237530   6.646   2.330  10.939 -1.1734 -0.7467  0.1234
42918SOL     OW37531   4.165  10.726   2.198  0.1735  0.0059  0.7614
42918SOL    HW137532   4.104  10.718   2.125 -1.5377 -0.1039  2.1478
42918SOL    HW237533   4.200  10.815   2.190 -1.2416  0.5858  0.7295
42919SOL     OW37534   4.395  10.408   3.933  0.0235 -0.4686  0.2209
42919SOL    HW137535   4.374  10.364   4.016 -1.9655  0.7443  0.4036
42919SOL    HW237536   4.334  10.369   3.870  1.2845 -1.1224 -0.6322
42920SOL     OW37537   1.310   2.701  10.059  0.4923 -0.0236  0.5298
42920SOL    HW137538   1.220   2.696  10.094  1.3005  0.6086  2.8593
42920SOL    HW237539   1.325   2.794  10.046  0.2109 -0.2419 -1.6949
42921SOL     OW37540   4.731   0.811   5.504  0.4244  0.4728 -0.2928
42921SOL    HW137541   4.696   0.856   5.428  1.0253  1.7265  0.1559
42921SOL    HW237542   4.811   0.769   5.473  0.8756  1.3064 -0.2660
42922SOL     OW37543   0.762   2.389  10.102 -0.1469  0.0929  0.1706
42922SOL    HW137544   0.761   2.327  10.175 -0.5710  0.1738  0.2351
42922SOL    HW237545   0.854   2.391  10.074 -0.1364 -0.6193  0.1165
42923SOL     OW37546   3.898   3.153   6.497 -0.1882  0.5021  0.3392
42923SOL    HW137547   3.873   3.239   6.531 -1.1255  0.0872  0.7360
42923SOL    HW237548   3.952   3.115   6.566  0.8993  1.0785 -0.1755
42924SOL     OW37549   0.500   9.801   0.406  0.0262 -0.3201  0.2426
42924SOL    HW137550   0.584   9.765   0.434  1.6583  1.4624 -1.9891
42924SOL    HW237551   0.496   9.888   0.445 -0.2882 -0.0049 -0.4652
42925SOL     OW37552  10.372   2.377   0.994  0.2749  0.0262  0.1894
42925SOL    HW137553  10.281   2.359   0.972  0.7469 -0.4856 -1.4589
42925SOL    HW237554  10.380   2.354   1.087 -1.8399  2.3831  1.0526
42926SOL     OW37555  11.791   1.854   8.221  0.4375 -0.7221 -0.2580
42926SOL    HW137556  11.795   1.759   8.232 -0.8668 -0.5906  1.9577
42926SOL    HW237557  11.700   1.877   8.242  0.5825  0.9807 -1.2753
42927SOL     OW37558   8.383   3.049   6.281  0.2608 -0.3938  0.1727
42927SOL    HW137559   8.385   3.075   6.189  2.0885  2.1662  0.8314
42927SOL    HW237560   8.461   2.995   6.293  0.6245  0.1819  0.4340
42928SOL     OW37561  10.884   3.214   3.044  0.3944 -0.1089 -0.0969
42928SOL    HW137562  10.841   3.249   2.965 -0.5295  0.6543  0.7178
42928SOL    HW237563  10.887   3.120   3.029  0.4363  0.0388 -1.1407
42929SOL     OW37564   5.090   6.759  10.801  0.5615  0.8480 -0.2908
42929SOL    HW137565   5.070   6.787  10.890 -1.9576 -0.7088 -0.2386
42929SOL    HW237566   5.050   6.826  10.745 -0.2247  0.4758 -0.1955
42930SOL     OW37567   3.558   5.184   3.459 -1.0000  0.0599  0.4837
42930SOL    HW137568   3.487   5.133   3.421 -1.0844  0.6805 -0.2346
42930SOL    HW237569   3.592   5.235   3.385 -1.1854  1.3310  1.2474
42931SOL     OW37570   3.542   2.520   0.667 -0.1720 -0.0310  0.7032
42931SOL    HW137571   3.506   2.477   0.745 -1.4086  1.7000  1.1392
42931SOL    HW237572   3.486   2.596   0.653 -0.7525 -0.8794 -2.5969
42932SOL     OW37573   9.516   8.254   2.061  0.0024 -0.4052 -0.6968
42932SOL    HW137574   9.608   8.257   2.032  0.8633 -0.8105  1.8035
42932SOL    HW237575   9.501   8.162   2.083 -0.1366  0.0733  1.3889
42933SOL     OW37576   7.178   3.421   3.391 -0.6923  0.6077  0.1107
42933SOL    HW137577   7.202   3.331   3.413 -2.0993  0.3415  0.6827
42933SOL    HW237578   7.092   3.433   3.430 -2.3594  0.9116 -3.3327
42934SOL     OW37579   6.424   8.431  11.374  0.2552  0.0748 -0.1178
42934SOL    HW137580   6.506   8.420  11.325 -0.4602 -2.2618 -0.9118
42934SOL    HW237581   6.356   8.397  11.315 -1.1085  0.5855  1.1050
42935SOL     OW37582  11.549   1.981   7.940  0.5707  0.1896 -0.2686
42935SOL    HW137583  11.617   2.048   7.938  0.9923 -0.2561 -1.7527
42935SOL    HW237584  11.476   2.020   7.892  0.5938 -0.1813 -0.6060
42936SOL     OW37585   3.593  11.206   8.885 -0.2231  0.1756  0.0352
42936SOL    HW137586   3.595  11.155   8.966 -1.3426 -0.1145 -0.1093
42936SOL    HW237587   3.635  11.149   8.820  0.1471  0.1747  0.2702
42937SOL     OW37588   1.852   5.308   0.355  0.3889  0.2596  0.3607
42937SOL    HW137589   1.803   5.387   0.380 -0.2906 -0.2700  0.7133
42937SOL    HW237590   1.808   5.275   0.277  0.8423  0.3721  0.0499
42938SOL     OW37591   6.683   1.183   2.882 -0.6841  0.5096  0.3209
42938SOL    HW137592   6.694   1.093   2.851  0.1201  0.4942  0.6092
42938SOL    HW237593   6.589   1.200   2.874 -0.6472  0.1703 -1.1798
42939SOL     OW37594   3.087   2.305  10.039  0.6038  0.4474  0.0095
42939SOL    HW137595   3.159   2.251  10.007  1.6779  1.0095  1.3487
42939SOL    HW237596   3.009   2.266  10.001  1.5727 -0.4095 -1.1932
42940SOL     OW37597   0.014   4.305  12.396 -0.0493  0.0801 -0.5443
42940SOL    HW137598  -0.080   4.288  12.397 -0.4290  1.9642  0.8213
42940SOL    HW237599   0.042   4.289  12.486  0.1935  2.8905 -0.0169
42941SOL     OW37600   8.346   4.902   6.052  0.1393 -0.2624 -1.3439
42941SOL    HW137601   8.327   4.866   5.965 -1.4482 -1.1542 -0.6858
42941SOL    HW237602   8.439   4.884   6.065  0.3303 -0.4270 -2.7085
42942SOL     OW37603   5.457   7.467   4.616 -0.3714  0.6727  0.4114
42942SOL    HW137604   5.533   7.417   4.586  0.6112  1.8617  0.8159
42942SOL    HW237605   5.388   7.401   4.629  1.1234 -0.7272  1.7595
42943SOL     OW37606   8.256   2.723   6.440 -0.5222  0.1950  0.8916
42943SOL    HW137607   8.236   2.642   6.487 -0.6111 -1.2778 -1.5250
42943SOL    HW237608   8.348   2.713   6.414 -1.2935 -0.5714 -1.9018
42944SOL     OW37609  11.680   9.209  11.472 -0.6932  0.4593 -0.4814
42944SOL    HW137610  11.750   9.176  11.417  0.2654 -0.0655  1.0078
42944SOL    HW237611  11.613   9.141  11.469  0.2291 -0.5308  0.6094
42945SOL     OW37612   0.559   3.252   2.933  0.3598  0.4558 -0.4133
42945SOL    HW137613   0.559   3.306   3.011 -0.9483  1.8938 -1.3433
42945SOL    HW237614   0.534   3.165   2.964 -0.4586  1.0712  0.7412
42946SOL     OW37615   0.378   7.350   9.936  0.2657  0.2879 -0.4649
42946SOL    HW137616   0.438   7.284   9.970  0.7016 -0.1982 -2.0854
42946SOL    HW237617   0.305   7.350   9.998  1.2179 -0.1869  0.7095
42947SOL     OW37618   5.451   5.111   6.846  0.2862 -0.2297  0.7533
42947SOL    HW137619   5.493   5.126   6.762  1.4505  1.7286  1.6230
42947SOL    HW237620   5.484   5.026   6.875  0.1156 -0.7743 -0.5983
42948SOL     OW37621  11.386   3.502   9.023  0.4269  0.0925  0.4323
42948SOL    HW137622  11.328   3.436   8.987 -1.7186  2.9834 -1.9110
42948SOL    HW237623  11.472   3.482   8.984 -0.0152 -1.5894  0.2563
42949SOL     OW37624   4.475   1.647   6.651 -0.0486  0.4348 -0.1716
42949SOL    HW137625   4.471   1.616   6.741 -0.0042 -1.1358 -0.6737
42949SOL    HW237626   4.432   1.733   6.653  1.2292  1.0857  1.5752
42950SOL     OW37627   2.915   9.340  11.561  0.1643 -0.2373  0.2959
42950SOL    HW137628   2.981   9.390  11.609 -0.4274  1.9256 -1.0281
42950SOL    HW237629   2.836   9.346  11.616 -0.1482  1.1065 -0.2601
42951SOL     OW37630   7.794   4.003   7.210  0.2299 -0.0545  0.2118
42951SOL    HW137631   7.726   4.005   7.142  0.2001 -0.2887  0.2330
42951SOL    HW237632   7.810   3.910   7.225  0.4728 -0.0005  0.2915
42952SOL     OW37633   6.543   7.897  12.069 -0.1459  0.7001  0.2824
42952SOL    HW137634   6.566   7.829  12.005 -0.5153 -0.4088  1.3009
42952SOL    HW237635   6.608   7.966  12.054  2.1429 -1.1254  1.1653
42953SOL     OW37636   4.940   0.641   0.175  0.0183 -0.0783 -0.0666
42953SOL    HW137637   4.955   0.613   0.085  0.1445 -0.3871  0.0481
42953SOL    HW237638   5.027   0.662   0.209 -0.1391  1.1752 -0.3762
42954SOL     OW37639   8.257   9.247  12.405  0.8177  0.0161 -0.5916
42954SOL    HW137640   8.188   9.300  12.364 -0.3121 -0.7329  0.2859
42954SOL    HW237641   8.231   9.242  12.497  2.5500  0.4869 -0.0443
42955SOL     OW37642   6.149   9.550   9.842  0.0184  0.2631  0.1415
42955SOL    HW137643   6.101   9.557   9.760  0.5316 -0.6759 -0.2593
42955SOL    HW237644   6.221   9.612   9.833  0.6874 -0.5884 -0.5793
42956SOL     OW37645   4.409   7.858   7.864  0.1323 -0.7186  0.1734
42956SOL    HW137646   4.374   7.773   7.889 -2.0903  0.1248  0.1786
42956SOL    HW237647   4.427   7.850   7.770  0.1394 -1.2393  0.2183
42957SOL     OW37648   8.811   0.679   5.021  0.2217 -0.6361  0.1019
42957SOL    HW137649   8.830   0.737   5.094 -1.5408 -1.1725  1.0440
42957SOL    HW237650   8.828   0.591   5.054  2.4912 -0.7517 -1.1933
42958SOL     OW37651   7.103   6.452   8.054  0.1625  0.0401  0.6668
42958SOL    HW137652   7.030   6.497   8.098 -1.4726 -1.1535 -0.6883
42958SOL    HW237653   7.110   6.368   8.099 -0.7426 -0.7103 -0.5652
42959SOL     OW37654   0.980   2.025   3.308 -0.5693  0.1920  0.2001
42959SOL    HW137655   0.921   1.952   3.328 -0.9017  0.0462 -1.2040
42959SOL    HW237656   1.060   1.984   3.277 -0.3740  0.4265  0.3815
42960SOL     OW37657   8.785   7.383   2.133  0.3634  0.6657 -0.0751
42960SOL    HW137658   8.759   7.335   2.211 -0.9094 -0.0432 -0.8961
42960SOL    HW237659   8.876   7.356   2.117  0.2300 -0.1182  0.4731
42961SOL     OW37660   1.359   6.236   5.221 -0.3135 -0.1561 -0.0065
42961SOL    HW137661   1.452   6.213   5.220 -0.2196  0.0553  1.5795
42961SOL    HW237662   1.314   6.153   5.240 -0.5374 -0.4375 -1.6536
42962SOL     OW37663   3.507  10.620   6.383  0.3909  0.7293  0.5414
42962SOL    HW137664   3.555  10.703   6.381  1.0453  0.3451  0.2285
42962SOL    HW237665   3.448  10.629   6.459  0.8379  1.2635  0.8345
42963SOL     OW37666   1.418   1.415   6.974  0.0515 -0.6302  0.2964
42963SOL    HW137667   1.463   1.340   6.935  0.4637  0.5138 -1.6179
42963SOL    HW237668   1.438   1.411   7.067 -0.3535 -3.1370  0.3259
42964SOL     OW37669   3.335  12.221  12.324  0.4205  0.0352 -0.3651
42964SOL    HW137670   3.371  12.149  12.273 -0.2370 -1.6037  1.3670
42964SOL    HW237671   3.271  12.263  12.265  1.5526 -0.1155 -1.7463
42965SOL     OW37672  11.658   1.960   5.666  0.0004 -0.5102 -0.3975
42965SOL    HW137673  11.629   1.976   5.756 -0.8425  2.6350 -1.1304
42965SOL    HW237674  11.752   1.946   5.673  0.0303  0.2187  0.9284
42966SOL     OW37675   2.486   6.332   4.220 -0.2883 -0.3941  0.0273
42966SOL    HW137676   2.477   6.274   4.296  1.6128 -0.2143  0.4538
42966SOL    HW237677   2.461   6.418   4.252 -4.6706 -1.0585 -1.0113
42967SOL     OW37678   4.895   6.476   9.527 -0.3377  0.0014  0.1951
42967SOL    HW137679   4.847   6.419   9.467 -1.8677 -0.6255  1.9361
42967SOL    HW237680   4.942   6.536   9.469  0.3871 -2.2065 -1.7006
42968SOL     OW37681   6.773   6.318  10.436 -0.4863 -0.2674 -0.3725
42968SOL    HW137682   6.865   6.291  10.432 -1.0776 -2.3859 -2.1577
42968SOL    HW237683   6.763   6.380  10.364 -0.3814  0.2524  0.0583
42969SOL     OW37684  11.980  10.707   2.395 -0.6286 -0.0913  0.6668
42969SOL    HW137685  12.056  10.690   2.340 -0.4993  1.2717  0.4063
42969SOL    HW237686  11.974  10.630   2.451 -0.1939 -1.0869 -0.5907
42970SOL     OW37687   3.424   1.890   9.580 -0.9386 -0.5621  0.2787
42970SOL    HW137688   3.449   1.807   9.622  0.0793 -0.3489  0.1340
42970SOL    HW237689   3.350   1.867   9.524  0.0143 -1.6131 -0.5995
42971SOL     OW37690   2.554   1.802   0.400  0.3049 -0.3359 -0.2945
42971SOL    HW137691   2.511   1.877   0.440  1.0890  0.8642 -1.6199
42971SOL    HW237692   2.511   1.791   0.315  0.7622 -0.8468 -0.4714
42972SOL     OW37693   6.866  12.355   6.953 -0.5820 -0.1071  0.1385
42972SOL    HW137694   6.949  12.316   6.980 -0.7439 -2.4937 -2.3136
42972SOL    HW237695   6.890  12.416   6.883 -0.8093 -0.2268 -0.0465
42973SOL     OW37696  11.281  11.682   1.622 -0.4317 -0.4094 -0.2512
42973SOL    HW137697  11.339  11.741   1.573 -1.4411  1.9542  1.1749
42973SOL    HW237698  11.340  11.637   1.683  0.5635 -2.0302 -2.3202
42974SOL     OW37699   4.354  11.574  11.337 -0.3467  0.1021  0.1004
42974SOL    HW137700   4.354  11.537  11.425  1.1596 -0.1220  0.0465
42974SOL    HW237701   4.266  11.557  11.303 -1.2809  1.0988  1.9029
42975SOL     OW37702  11.494   2.591   5.357 -0.4331 -0.4650 -0.5828
42975SOL    HW137703  11.475   2.532   5.430 -0.7619 -0.1358 -0.3985
42975SOL    HW237704  11.464   2.677   5.387  0.5809 -0.0823 -0.6104
42976SOL     OW37705   6.525   7.123   5.499 -0.6056 -0.6166 -0.1002
42976SOL    HW137706   6.559   7.098   5.413 -2.9657 -0.0393 -1.3176
42976SOL    HW237707   6.558   7.212   5.513  1.8182 -1.5866  0.8253
42977SOL     OW37708  10.371  10.956   2.024  0.3129 -0.2154 -0.1722
42977SOL    HW137709  10.294  10.935   1.971  1.0508  1.5805 -2.0836
42977SOL    HW237710  10.425  11.012   1.968  2.3157 -0.1762  1.6460
42978SOL     OW37711  11.590   0.894  11.289 -0.8895 -0.0248 -0.0870
42978SOL    HW137712  11.516   0.862  11.237 -1.9698  0.4733  1.1142
42978SOL    HW237713  11.572   0.987  11.301 -0.5116 -0.0792  0.9440
42979SOL     OW37714   6.713   4.835   0.862  0.4156 -0.6867  0.3846
42979SOL    HW137715   6.780   4.769   0.877  0.7341  0.0077  2.2251
42979SOL    HW237716   6.635   4.785   0.838  1.4051 -1.5328 -1.2993
42980SOL     OW37717   4.168   0.948   3.776 -0.2026  0.0211 -0.2437
42980SOL    HW137718   4.212   0.938   3.692  0.9008  0.5385  0.2618
42980SOL    HW237719   4.185   0.866   3.822 -0.3828 -0.0615 -0.3214
42981SOL     OW37720  10.270   6.549  12.513  0.1246 -0.4086 -0.3434
42981SOL    HW137721  10.196   6.541  12.574 -0.8325 -2.0165 -1.6343
42981SOL    HW237722  10.335   6.489  12.548  0.1206 -0.3134 -0.1679
42982SOL     OW37723  12.151   1.445  12.052  0.0144 -0.5820  0.1076
42982SOL    HW137724  12.077   1.385  12.041  0.1189 -0.4561 -1.3495
42982SOL    HW237725  12.121   1.528  12.016  0.8150 -0.4892 -0.3584
42983SOL     OW37726   7.091   2.727   6.057 -0.3423 -0.5337 -0.2011
42983SOL    HW137727   7.163   2.711   6.117  0.1361  0.3360 -0.5286
42983SOL    HW237728   7.132   2.734   5.970 -0.5991  1.4055 -0.2145
42984SOL     OW37729   7.793   4.462   7.245  0.3091  0.1856 -0.4636
42984SOL    HW137730   7.784   4.553   7.273  1.1374  1.4857 -3.9507
42984SOL    HW237731   7.858   4.425   7.305  0.6608  2.1455  0.4435
42985SOL     OW37732   4.284   0.222   4.822 -0.2338  0.6504 -0.4463
42985SOL    HW137733   4.250   0.291   4.880  0.8321  0.7961  0.0207
42985SOL    HW237734   4.362   0.190   4.867 -0.7030 -0.8658 -0.6697
42986SOL     OW37735   4.439   7.451  11.085  0.3237  0.4485  0.4087
42986SOL    HW137736   4.411   7.369  11.045  1.8934 -0.0041  0.1664
42986SOL    HW237737   4.368   7.512  11.068 -0.0314 -0.3458 -1.0986
42987SOL     OW37738  12.049   9.532  12.526  0.1965 -0.0987  0.2818
42987SOL    HW137739  12.061   9.437  12.519 -1.4108 -0.2654 -0.7987
42987SOL    HW237740  12.136   9.569  12.512  0.5014 -1.3570 -1.4600
42988SOL     OW37741   9.690   8.472   8.696  0.3597 -0.8120  0.4759
42988SOL    HW137742   9.612   8.427   8.664  0.2125 -1.0676  1.1612
42988SOL    HW237743   9.742   8.403   8.738  0.8643 -0.6097  0.1842
42989SOL     OW37744   4.336   1.557   7.602  0.0137  0.6203  0.0600
42989SOL    HW137745   4.380   1.575   7.519 -0.3375  1.3456  0.0209
42989SOL    HW237746   4.281   1.634   7.617 -0.6426  0.0775  0.4974
42990SOL     OW37747  10.651  12.058   2.657 -0.2295  0.2483  0.0866
42990SOL    HW137748  10.643  12.024   2.747  2.2018  0.0613  0.2992
42990SOL    HW237749  10.671  11.980   2.605  2.1729  0.8288  0.0496
42991SOL     OW37750  11.903   9.431  11.895  0.2238 -0.2716 -0.3033
42991SOL    HW137751  11.994   9.406  11.880  0.2705 -0.9008  0.9315
42991SOL    HW237752  11.853   9.373  11.838  0.5294 -0.8065 -0.0315
42992SOL     OW37753   1.834  11.621   0.722 -0.2918 -0.2068  0.1729
42992SOL    HW137754   1.739  11.614   0.719 -0.3567  0.3202  0.7182
42992SOL    HW237755   1.859  11.641   0.632 -0.6122 -1.1975 -0.1480
42993SOL     OW37756   8.082   7.496  12.310  0.1078  0.4024 -0.0629
42993SOL    HW137757   8.001   7.545  12.297  0.0587  0.0435 -1.2539
42993SOL    HW237758   8.072   7.455  12.396 -0.7983  0.6878 -0.0215
42994SOL     OW37759   1.630   4.308   9.817  0.4017  0.3471 -0.2172
42994SOL    HW137760   1.656   4.397   9.797  1.2842  0.4220  1.1242
42994SOL    HW237761   1.687   4.281   9.889 -0.1405 -1.1437 -0.2919
42995SOL     OW37762   0.462   4.962   6.590  0.5401 -0.0674 -0.0522
42995SOL    HW137763   0.381   4.966   6.540  1.0294 -0.7844 -0.9382
42995SOL    HW237764   0.460   5.038   6.648  0.9298  2.0413 -2.6372
42996SOL     OW37765  11.594   0.142   9.999 -0.4834  0.0221 -0.1684
42996SOL    HW137766  11.592   0.153  10.094 -1.5175  0.4686 -0.2318
42996SOL    HW237767  11.506   0.115   9.975  0.3375 -2.3758 -0.7674
42997SOL     OW37768   3.552   1.897   7.931 -0.3392 -0.8350  0.4259
42997SOL    HW137769   3.599   1.943   8.001 -0.7233  0.9105 -0.4053
42997SOL    HW237770   3.462   1.889   7.964 -1.2888  2.6333 -0.9048
42998SOL     OW37771   7.157   3.678   0.674  0.3730  0.2860  0.0576
42998SOL    HW137772   7.185   3.612   0.738 -2.5631  0.4274  1.6397
42998SOL    HW237773   7.114   3.628   0.605 -0.0067  0.4105  0.2052
42999SOL     OW37774   4.465   9.901   3.028 -0.6943  0.1798 -0.1745
42999SOL    HW137775   4.441   9.927   3.117  0.7891  1.1660 -0.0208
42999SOL    HW237776   4.558   9.924   3.020 -0.7453 -0.0370 -1.9234
43000SOL     OW37777   6.505   3.970   3.990  0.0248  0.2275 -0.0034
43000SOL    HW137778   6.479   3.879   3.978  0.5627  0.1067 -0.2709
43000SOL    HW237779   6.476   4.015   3.910  0.7758  0.0583 -0.3784
43001SOL     OW37780  10.932  12.515   7.957  0.0395  0.2030  0.1297
43001SOL    HW137781  10.964  12.585   7.900  1.4208  0.8750  1.6618
43001SOL    HW237782  10.896  12.560   8.033 -0.6050 -0.7135  0.3859
43002SOL     OW37783   8.468   8.971   4.565 -0.3171  0.1904  0.6311
43002SOL    HW137784   8.529   9.017   4.508  0.1662  1.2138  1.9074
43002SOL    HW237785   8.516   8.893   4.594 -0.2703  0.0809  0.2590
43003SOL     OW37786  12.563   8.922   6.700 -0.5291  0.7849 -0.0576
43003SOL    HW137787  12.584   8.839   6.657  0.6434  0.9438  0.1591
43003SOL    HW237788  12.498   8.963   6.644 -1.1915 -0.3207 -0.1251
43004SOL     OW37789   6.378   7.459   4.416 -0.2717  0.0285  0.0073
43004SOL    HW137790   6.449   7.523   4.415  0.4178 -0.7318 -0.3074
43004SOL    HW237791   6.324   7.482   4.341 -0.0607  0.2752 -0.0727
43005SOL     OW37792   1.162   7.111   9.508 -0.5827  0.5002  0.1969
43005SOL    HW137793   1.161   7.060   9.427 -2.4515  0.3240  0.2868
43005SOL    HW237794   1.222   7.064   9.566  0.6114  0.5113 -0.9764
43006SOL     OW37795   7.429   7.229   4.583  0.5153  0.0565  0.0228
43006SOL    HW137796   7.391   7.209   4.669  0.5056 -1.3659 -0.2969
43006SOL    HW237797   7.354   7.254   4.529  0.2901 -0.6986 -0.0268
43007SOL     OW37798   8.825   0.256   5.856  0.2177  0.2549  0.1117
43007SOL    HW137799   8.842   0.349   5.868  2.6912 -0.4044  2.8474
43007SOL    HW237800   8.886   0.230   5.786 -0.3237  0.6215 -0.5054
43008SOL     OW37801   3.607   7.633   7.168  0.5361  0.4722 -0.0217
43008SOL    HW137802   3.514   7.612   7.177  0.7199  0.4860  2.8151
43008SOL    HW237803   3.608   7.720   7.127 -0.6584  0.2976 -0.4704
43009SOL     OW37804   1.809   1.225   5.832 -0.4270 -0.0493 -0.1083
43009SOL    HW137805   1.763   1.143   5.813  1.9586 -1.6613  0.6962
43009SOL    HW237806   1.892   1.217   5.785 -0.3071  2.1109 -0.3379
43010SOL     OW37807   5.565   6.242   0.737  0.2346 -0.4101  0.4457
43010SOL    HW137808   5.614   6.202   0.808  2.0743  1.0111  0.0553
43010SOL    HW237809   5.631   6.285   0.683 -1.4174  1.4598 -0.2268
43011SOL     OW37810   7.264   7.951  11.582 -0.6462  0.1750 -0.0898
43011SOL    HW137811   7.249   7.858  11.598 -0.7869 -0.2077 -2.2264
43011SOL    HW237812   7.350   7.955  11.541  0.1599  1.2090  1.5839
43012SOL     OW37813   9.337  10.716   9.507 -0.4749 -0.5899  0.5433
43012SOL    HW137814   9.324  10.764   9.425  0.0374 -0.3177  0.6174
43012SOL    HW237815   9.370  10.631   9.479  1.5701  0.1435  0.5150
43013SOL     OW37816   9.905  11.053   2.830 -0.4808  0.0908  0.2754
43013SOL    HW137817   9.881  11.123   2.769  1.1754 -1.0642 -1.8192
43013SOL    HW237818   9.970  11.093   2.888 -1.0159  0.8087  0.3964
43014SOL     OW37819   6.700   2.259   6.685 -0.3263 -0.1924 -0.3408
43014SOL    HW137820   6.696   2.272   6.590 -0.9118 -1.1279 -0.4587
43014SOL    HW237821   6.787   2.222   6.700 -1.3121 -3.0404 -0.9643
43015SOL     OW37822   5.694   6.422   5.227 -0.1032  0.0259 -0.1840
43015SOL    HW137823   5.720   6.511   5.249 -0.6600 -0.0125  0.6549
43015SOL    HW237824   5.605   6.431   5.194  0.1227 -0.1301 -0.8502
43016SOL     OW37825  11.431   1.010   1.370 -0.0873  0.9506  0.1672
43016SOL    HW137826  11.497   1.074   1.342  2.1496 -0.9679  0.7841
43016SOL    HW237827  11.426   0.948   1.297 -0.4588  0.5259  0.5527
43017SOL     OW37828   3.829   7.307  12.342  0.6246  0.4220 -0.6399
43017SOL    HW137829   3.798   7.349  12.422 -0.0814 -1.9727  0.4228
43017SOL    HW237830   3.754   7.256  12.311  1.9219 -1.4631 -0.8335
43018SOL     OW37831  11.620   5.794   3.026  0.9112  0.2983  0.4849
43018SOL    HW137832  11.631   5.858   3.096  3.0330  0.0589  0.4381
43018SOL    HW237833  11.706   5.788   2.985  1.1668 -3.3880  1.1909
43019SOL     OW37834   2.991  12.001   4.252 -0.8721  0.0219  0.3465
43019SOL    HW137835   3.073  11.988   4.203  0.5685  2.0209  2.0466
43019SOL    HW237836   2.929  12.033   4.186 -0.0505 -0.6708 -0.8102
43020SOL     OW37837   3.814   2.915  11.352 -1.0092 -0.0514 -0.8233
43020SOL    HW137838   3.856   2.976  11.291 -1.9377 -0.0142 -1.4382
43020SOL    HW237839   3.854   2.830  11.332 -0.1565  0.2271 -0.3776
43021SOL     OW37840  10.198   3.484   8.659 -0.1673 -0.3902 -1.0051
43021SOL    HW137841  10.237   3.400   8.681 -1.4102 -0.9812 -0.9570
43021SOL    HW237842  10.186   3.528   8.743  2.1623  0.6534 -1.1515
43022SOL     OW37843   1.209   9.536   0.700 -0.0924 -0.3569 -0.0977
43022SOL    HW137844   1.117   9.551   0.722 -0.2876 -2.1663  0.4888
43022SOL    HW237845   1.213   9.546   0.605 -0.9394 -0.4843 -0.1528
43023SOL     OW37846   5.653   0.215   4.746  0.8024  0.6163 -0.3786
43023SOL    HW137847   5.559   0.223   4.731 -0.3155 -3.1759  2.8075
43023SOL    HW237848   5.673   0.286   4.808 -1.3149 -1.3888  2.9006
43024SOL     OW37849   0.113   9.617  12.405  1.0399  0.4768  0.2586
43024SOL    HW137850   0.101   9.524  12.383  1.7360  0.7203 -1.3111
43024SOL    HW237851   0.100   9.621  12.500  2.1433 -1.4157  0.5453
43025SOL     OW37852   1.502  12.338  12.567 -0.2304 -0.1387  0.1126
43025SOL    HW137853   1.411  12.308  12.569 -0.3115 -0.2725 -2.4826
43025SOL    HW237854   1.503  12.413  12.627 -2.4974  0.9735 -1.0984
43026SOL     OW37855   2.403   2.383   9.242  0.1430 -0.1258  0.0648
43026SOL    HW137856   2.417   2.355   9.152 -1.2266 -0.8907  0.0668
43026SOL    HW237857   2.473   2.340   9.291  0.6196 -0.0779 -0.5632
43027SOL     OW37858   0.228   8.415   4.488 -0.0994 -0.1234 -0.1891
43027SOL    HW137859   0.255   8.432   4.398 -0.9329 -0.7279 -0.5663
43027SOL    HW237860   0.307   8.428   4.540  0.3111  0.5524 -0.9658
43028SOL     OW37861   4.212   9.304   0.681 -0.7381 -0.2948  0.2564
43028SOL    HW137862   4.184   9.361   0.752 -1.3022 -0.2030 -0.0331
43028SOL    HW237863   4.281   9.250   0.719  0.4338  1.1588  0.3100
43029SOL     OW37864   4.298  12.486  12.414  0.0676 -0.4512  0.8203
43029SOL    HW137865   4.242  12.504  12.490  1.8611 -0.5884  2.2488
43029SOL    HW237866   4.267  12.400  12.383 -0.6449 -0.4380  1.4388
43030SOL     OW37867   4.837  10.452   2.039  0.4356 -0.1301 -0.3074
43030SOL    HW137868   4.859  10.497   1.957 -0.4774 -1.3192 -1.2439
43030SOL    HW237869   4.856  10.360   2.022 -0.1602 -0.4522  0.6866
43031SOL     OW37870   7.584   8.318   0.982  0.0493  0.1844  0.9932
43031SOL    HW137871   7.650   8.253   0.960 -1.4571 -1.6670  1.6732
43031SOL    HW237872   7.634   8.397   1.002  1.8391  0.2095 -2.6970
43032SOL     OW37873   4.891  11.854   2.120 -0.4756 -0.3655 -0.2890
43032SOL    HW137874   4.838  11.897   2.053 -1.1227 -1.1813 -0.3268
43032SOL    HW237875   4.976  11.839   2.079 -0.0684  1.3022 -0.1058
43033SOL     OW37876   4.624   6.770   2.625 -0.2342  0.5828 -0.3278
43033SOL    HW137877   4.592   6.681   2.616  0.9946 -0.0436  1.0117
43033SOL    HW237878   4.610   6.791   2.718  1.8989  0.7489  0.0216
43034SOL     OW37879   1.777   8.822   6.318  0.1858 -0.5337 -0.4563
43034SOL    HW137880   1.803   8.741   6.273  0.8752 -0.3892 -0.3302
43034SOL    HW237881   1.695   8.847   6.276  0.1361 -1.1219 -0.7219
43035SOL     OW37882   7.760  12.415   7.121  0.5882  0.1160 -0.3132
43035SOL    HW137883   7.689  12.441   7.063 -0.1870 -1.4032 -0.0799
43035SOL    HW237884   7.791  12.498   7.159 -1.2392  0.7874 -0.1883
43036SOL     OW37885   3.481   2.038   9.803 -0.4663  0.6409  0.1851
43036SOL    HW137886   3.488   1.982   9.726  1.1524  1.3367 -0.2126
43036SOL    HW237887   3.560   2.092   9.801 -1.2361  1.8787  1.3926
43037SOL     OW37888  12.549   4.912   3.254  0.4339  0.3305 -0.2708
43037SOL    HW137889  12.478   4.850   3.265  0.1758  0.8424  1.3287
43037SOL    HW237890  12.619   4.879   3.311  0.2559  1.4939  0.6891
43038SOL     OW37891  12.013  11.930   9.687  0.9329 -0.7963 -0.4703
43038SOL    HW137892  12.004  11.916   9.781 -0.4949  0.7669 -0.3215
43038SOL    HW237893  12.072  12.005   9.680 -0.9136  0.7289 -0.6370
43039SOL     OW37894   6.329   2.070   9.947 -0.1829 -0.2022  0.3639
43039SOL    HW137895   6.262   2.036  10.006  0.0827 -0.7556  0.3537
43039SOL    HW237896   6.410   2.027   9.975  0.0489 -0.0389 -0.0398
43040SOL     OW37897   4.400  11.224   5.964  0.7154 -0.0955  0.0784
43040SOL    HW137898   4.326  11.239   6.024  0.5181 -0.7079 -0.0066
43040SOL    HW237899   4.359  11.191   5.884  0.9858  0.6193 -0.3624
43041SOL     OW37900   3.330   8.585   4.696 -0.0651 -0.2693  0.3692
43041SOL    HW137901   3.361   8.500   4.665  0.7995 -0.4647  1.7066
43041SOL    HW237902   3.401   8.646   4.676 -1.4884  0.6188 -2.4713
43042SOL     OW37903   7.534  10.265   8.516  0.2596  0.2332  0.5079
43042SOL    HW137904   7.495  10.178   8.514  1.4716 -0.3228 -0.2386
43042SOL    HW237905   7.550  10.282   8.609  1.7032 -1.1521  0.5528
43043SOL     OW37906  11.059   3.311  10.857 -0.6859 -0.0985  0.5684
43043SOL    HW137907  11.142   3.331  10.900 -1.3735 -0.5945  2.1900
43043SOL    HW237908  11.048   3.381  10.792  2.3726 -1.5861 -1.8192
43044SOL     OW37909   0.840  10.503   7.774  0.5689 -1.0374 -0.0736
43044SOL    HW137910   0.825  10.474   7.864  1.7621 -1.5511 -0.0316
43044SOL    HW237911   0.794  10.587   7.769  1.5051 -0.3982  1.3933
43045SOL     OW37912   6.507  11.930   3.151  0.0924  0.5098  0.0924
43045SOL    HW137913   6.567  12.001   3.129  0.4212  1.0317  2.3750
43045SOL    HW237914   6.433  11.941   3.091  1.5105  0.8717 -1.6519
43046SOL     OW37915  11.783   9.567   8.178 -0.2734 -0.2321  0.0180
43046SOL    HW137916  11.764   9.634   8.113 -0.8643 -2.2127 -1.9506
43046SOL    HW237917  11.802   9.489   8.128  1.0413 -1.4330  2.2181
43047SOL     OW37918   5.005   3.811  12.365  0.4853  0.1251  0.7554
43047SOL    HW137919   5.039   3.724  12.389  2.5819  0.8843  0.7922
43047SOL    HW237920   4.988   3.853  12.450 -2.3271 -0.8168  0.7548
43048SOL     OW37921  11.450   5.297   8.473 -0.4554  0.0828  0.1359
43048SOL    HW137922  11.413   5.219   8.516 -2.1962 -0.2379 -1.7842
43048SOL    HW237923  11.401   5.370   8.510 -1.5088 -0.1365 -0.7573
43049SOL     OW37924  11.322   1.944   1.042 -0.3898 -0.2457 -0.4941
43049SOL    HW137925  11.362   2.030   1.031  1.2293 -1.1677 -2.6157
43049SOL    HW237926  11.228   1.961   1.049 -0.0134  1.7367  0.2276
43050SOL     OW37927   2.608   7.785   9.750 -0.3452  0.3425  0.5246
43050SOL    HW137928   2.580   7.721   9.685  1.1666 -0.5219  0.6979
43050SOL    HW237929   2.527   7.809   9.796 -1.1518 -0.3319 -0.5044
43051SOL     OW37930   6.383   7.459   3.086  0.4173  0.3537  0.2460
43051SOL    HW137931   6.334   7.388   3.044  2.6821 -0.0857 -1.8505
43051SOL    HW237932   6.444   7.489   3.019  1.7979  2.0847  2.1558
43052SOL     OW37933   9.726   2.724  10.021  0.6801  0.0481  0.3456
43052SOL    HW137934   9.681   2.690   9.944  0.8802 -1.6460  0.9378
43052SOL    HW237935   9.667   2.704  10.094  1.8087 -1.1107  0.9825
43053SOL     OW37936  11.903   5.222   8.981  0.4281 -0.3468 -0.2253
43053SOL    HW137937  11.938   5.161   9.047  1.6618  0.2902 -0.2686
43053SOL    HW237938  11.879   5.166   8.907  2.1052 -0.7547 -0.4998
43054SOL     OW37939   4.169  12.140   0.991  0.3115  0.1883  0.0181
43054SOL    HW137940   4.256  12.176   0.974 -0.0348  0.6819 -0.7063
43054SOL    HW237941   4.181  12.045   0.981  0.5206  0.3332 -1.1837
43055SOL     OW37942   2.298   6.038   0.864 -0.3379 -0.6350 -1.4281
43055SOL    HW137943   2.218   5.992   0.838 -0.4841 -1.3547  0.2187
43055SOL    HW237944   2.349   5.973   0.912 -0.2609  0.7031  0.4103
43056SOL     OW37945   3.928  10.963  11.185  0.0369 -0.0188  0.7665
43056SOL    HW137946   3.983  10.974  11.263  0.1386 -1.6221  0.9477
43056SOL    HW237947   3.989  10.931  11.118 -0.1164  1.0334  0.0942
43057SOL     OW37948   6.031  11.388   8.475  0.4288  0.3653  0.2816
43057SOL    HW137949   5.979  11.442   8.535 -0.1671 -0.5541  0.6215
43057SOL    HW237950   5.997  11.299   8.488  1.5758 -0.1383 -0.0580
43058SOL     OW37951  12.055   4.879   0.376  0.6399 -0.1197  0.1742
43058SOL    HW137952  11.968   4.899   0.411  0.5348 -0.0441 -0.1236
43058SOL    HW237953  12.104   4.844   0.451  0.3825 -0.0754  0.3648
43059SOL     OW37954   9.615   4.804   4.192  0.2283 -0.7834  0.2520
43059SOL    HW137955   9.649   4.818   4.280  2.2119  0.0217 -0.5932
43059SOL    HW237956   9.628   4.888   4.148  0.4659 -1.5488 -1.1750
43060SOL     OW37957   8.801  12.470   6.197  0.0841  0.3495  0.0960
43060SOL    HW137958   8.842  12.386   6.176  0.7741  0.5407  0.6653
43060SOL    HW237959   8.857  12.536   6.156  0.0564  0.5820  0.4233
43061SOL     OW37960  11.855   4.845  11.151 -0.1753 -0.1197  0.3383
43061SOL    HW137961  11.942   4.879  11.129 -0.1321  0.2519  1.0495
43061SOL    HW237962  11.795   4.896  11.096  0.0215 -0.0290  0.2060
43062SOL     OW37963   5.175   3.154  10.862 -0.9652 -0.3046 -0.4333
43062SOL    HW137964   5.081   3.140  10.870 -0.4992 -4.2630  0.7085
43062SOL    HW237965   5.197   3.122  10.775 -0.4966 -1.3307  0.0430
43063SOL     OW37966   4.112   0.892  12.348 -0.5788  0.1131  0.3225
43063SOL    HW137967   4.076   0.957  12.288 -1.9649  0.1916  1.1921
43063SOL    HW237968   4.144   0.822  12.291  1.5458  1.7827 -0.6694
43064SOL     OW37969   9.287  10.398   7.688  0.2146  0.0987 -0.1044
43064SOL    HW137970   9.245  10.317   7.716  0.1074 -0.1252 -0.9001
43064SOL    HW237971   9.244  10.466   7.739 -1.7172 -0.0283 -1.4572
43065SOL     OW37972   7.003  10.934   0.141  0.3817  0.0571 -0.0734
43065SOL    HW137973   7.020  10.847   0.177  0.2723 -0.5837 -1.5124
43065SOL    HW237974   6.958  10.918   0.058 -1.4577  1.5423  0.5541
43066SOL     OW37975   0.562  10.303   3.342  0.1705 -0.2518  0.1508
43066SOL    HW137976   0.498  10.355   3.391 -1.0079 -2.0619  0.6436
43066SOL    HW237977   0.528  10.213   3.347  0.6925 -0.7297 -2.8460
43067SOL     OW37978   1.438   8.121   0.838 -0.0389 -0.4036 -0.3746
43067SOL    HW137979   1.472   8.167   0.915 -0.7548 -0.5389  0.0288
43067SOL    HW237980   1.493   8.044   0.830  1.6808  0.8697 -1.5132
43068SOL     OW37981   3.048   1.805   6.559 -0.7839  0.5821  0.2588
43068SOL    HW137982   3.062   1.719   6.598 -2.1428 -0.2598 -0.9769
43068SOL    HW237983   3.129   1.852   6.576 -0.9162 -0.0345  3.1473
43069SOL     OW37984   6.344   6.559   7.499  0.0538 -0.2158 -0.6811
43069SOL    HW137985   6.415   6.526   7.443  0.8295  0.1143  0.0708
43069SOL    HW237986   6.267   6.509   7.473 -0.1793  1.3931 -3.5509
43070SOL     OW37987   2.303   3.285   7.655 -0.4580  0.1414 -0.6794
43070SOL    HW137988   2.226   3.229   7.641 -0.4289  0.2535 -1.3483
43070SOL    HW237989   2.294   3.318   7.744  0.3000 -2.1143  0.2863
43071SOL     OW37990  10.317   3.234   3.548  0.3059  0.0754  0.4486
43071SOL    HW137991  10.376   3.279   3.488 -1.6352  0.8687 -0.9816
43071SOL    HW237992  10.234   3.283   3.541 -0.7402 -1.4094  1.8048
43072SOL     OW37993   0.733   3.882   6.298 -0.0384  0.0141 -0.6345
43072SOL    HW137994   0.828   3.882   6.288  0.0938  1.1788  0.4038
43072SOL    HW237995   0.701   3.938   6.227 -0.0927 -1.5104 -1.8641
43073SOL     OW37996   1.301   6.085   4.667 -0.0943 -0.0677  0.0570
43073SOL    HW137997   1.237   6.023   4.703  0.0341  0.4312  1.1753
43073SOL    HW237998   1.347   6.119   4.743  1.4859 -0.3793 -0.7199
43074SOL     OW37999   4.485   6.431   0.936 -0.1533 -0.1827 -0.4893
43074SOL    HW138000   4.502   6.449   1.028 -1.1944 -1.3022 -0.0535
43074SOL    HW238001   4.390   6.440   0.927 -0.3703 -2.2552 -0.9110
43075SOL     OW38002   1.905   6.029   7.245 -0.2149 -0.1456 -0.4342
43075SOL    HW138003   1.914   5.939   7.277 -1.4183 -0.6140 -1.3180
43075SOL    HW238004   1.918   6.021   7.150 -1.7208  0.3690 -0.7093
43076SOL     OW38005   2.799   1.673   3.652  0.2309 -0.4598  0.3610
43076SOL    HW138006   2.821   1.756   3.609 -0.6072 -0.0996  0.6089
43076SOL    HW238007   2.809   1.608   3.583 -3.2934  0.3648 -1.1599
43077SOL     OW38008   2.977   0.052   3.027  0.4058  0.6641  0.4165
43077SOL    HW138009   2.903   0.020   3.079 -0.0096  1.2208  0.1730
43077SOL    HW238010   2.951   0.038   2.936  0.7835  0.4619  0.3364
43078SOL     OW38011   8.791   2.267  11.495 -0.0334 -0.1497 -0.2263
43078SOL    HW138012   8.723   2.323  11.457 -1.1797 -1.7972 -0.7092
43078SOL    HW238013   8.850   2.328  11.539 -1.1151  1.4455 -0.8814
43079SOL     OW38014  11.758   0.055   1.059 -0.3851 -0.2495  0.5719
43079SOL    HW138015  11.817  -0.018   1.041 -1.1103 -1.0651  1.4396
43079SOL    HW238016  11.814   0.133   1.051  0.3435 -0.8725 -0.5683
43080SOL     OW38017   3.872   5.936   8.177 -0.5739  0.0114  0.4049
43080SOL    HW138018   3.881   5.841   8.185  1.4527  0.3029  2.8065
43080SOL    HW238019   3.780   5.953   8.200 -1.5273 -1.4140 -1.9078
43081SOL     OW38020   6.266   8.844  10.061 -0.3117 -0.2491 -0.2860
43081SOL    HW138021   6.251   8.763  10.111  0.2615  0.6403  1.3990
43081SOL    HW238022   6.357   8.839  10.034  0.4629  0.8555  1.8844
43082SOL     OW38023  10.796  12.084  12.087  0.2522  0.2711  0.2536
43082SOL    HW138024  10.887  12.106  12.111  1.3148  0.0714 -3.0623
43082SOL    HW238025  10.787  11.992  12.111 -0.2112  0.9894  3.3393
43083SOL     OW38026   2.895  10.750   6.790 -0.2676  0.0225  0.2126
43083SOL    HW138027   2.856  10.671   6.828 -0.1361 -1.1149 -1.8592
43083SOL    HW238028   2.856  10.822   6.839 -1.8047 -1.2484  0.9537
43084SOL     OW38029   8.779   7.271   1.042 -0.3283  0.0835  0.0740
43084SOL    HW138030   8.788   7.356   1.085  0.0272 -0.0325  0.2310
43084SOL    HW238031   8.783   7.291   0.948  0.0753  0.2034  0.1159
43085SOL     OW38032  12.342   2.615   8.168 -0.3040 -0.2091  0.0398
43085SOL    HW138033  12.366   2.568   8.089 -1.5370  0.8551 -1.0272
43085SOL    HW238034  12.416   2.603   8.227  0.8044 -0.7349 -1.4011
43086SOL     OW38035   4.337   9.520   9.956 -0.1351  0.0034 -0.0128
43086SOL    HW138036   4.270   9.463   9.993  0.2886  0.2694  1.1892
43086SOL    HW238037   4.305   9.609   9.972  0.7433  0.1462  1.0872
43087SOL     OW38038   1.680   4.034   3.271 -0.2785  0.5448 -0.3130
43087SOL    HW138039   1.611   3.978   3.236  0.1167  0.8674 -1.7007
43087SOL    HW238040   1.660   4.043   3.364 -2.7924  1.5762 -0.8850
43088SOL     OW38041   8.173   5.963   2.553 -0.0871  0.3169  0.1465
43088SOL    HW138042   8.230   5.922   2.618  1.3274 -2.6550 -2.6526
43088SOL    HW238043   8.086   5.929   2.572 -0.2227  1.5364  1.9265
43089SOL     OW38044   9.213  11.859  12.259  0.4262  0.2538  0.7108
43089SOL    HW138045   9.306  11.875  12.242 -0.1502  2.7815 -0.4874
43089SOL    HW238046   9.189  11.792  12.194  1.2982 -0.1092  0.7457
43090SOL     OW38047   3.537   8.510   0.134  0.3027 -0.3909 -0.3139
43090SOL    HW138048   3.612   8.454   0.150 -0.3307 -0.8405  1.3091
43090SOL    HW238049   3.542   8.533   0.041  0.8101 -2.7655 -0.9205
43091SOL     OW38050   5.335   6.892   9.167 -0.0871 -0.4531  0.6983
43091SOL    HW138051   5.419   6.845   9.170 -0.6260 -1.5679 -0.5105
43091SOL    HW238052   5.281   6.840   9.108 -1.2625  0.8725  0.5537
43092SOL     OW38053   3.195   6.867  12.174 -0.2945 -0.2840 -0.3736
43092SOL    HW138054   3.109   6.905  12.188 -0.5038 -1.1815  1.0654
43092SOL    HW238055   3.190   6.826  12.088 -0.5770  1.4995 -1.2361
43093SOL     OW38056   3.168   2.594   3.149  1.2815  0.3458  0.3048
43093SOL    HW138057   3.216   2.568   3.228  0.2803 -0.0245  0.8156
43093SOL    HW238058   3.128   2.678   3.172 -0.2705 -0.4795  0.7813
43094SOL     OW38059   0.965  12.417  12.048  0.4907  0.1872 -0.2406
43094SOL    HW138060   1.020  12.488  12.016 -0.0646  0.5913 -0.3071
43094SOL    HW238061   0.991  12.341  11.995  0.5656  0.5192 -0.6863
43095SOL     OW38062   9.615   8.504   4.240  0.1908 -0.4169 -0.0844
43095SOL    HW138063   9.640   8.416   4.269  1.3718 -0.3537 -0.8582
43095SOL    HW238064   9.633   8.505   4.146 -1.3654  0.1419 -0.4025
43096SOL     OW38065  10.427   8.453   5.053  0.9202  0.3586  1.0519
43096SOL    HW138066  10.360   8.384   5.059 -0.5130  1.6198  0.1424
43096SOL    HW238067  10.474   8.434   4.971 -0.3890  1.2057  0.0658
43097SOL     OW38068   0.460   7.713   1.344 -0.1912  0.2662 -0.2871
43097SOL    HW138069   0.416   7.780   1.395 -1.6207 -0.9398  0.1448
43097SOL    HW238070   0.435   7.630   1.386  1.6351 -0.5544 -0.6886
43098SOL     OW38071   4.816  11.360  11.340  0.2456 -0.6619 -0.0656
43098SOL    HW138072   4.758  11.431  11.314 -1.6332 -0.9969  2.7612
43098SOL    HW238073   4.900  11.380  11.297 -0.9723  1.7110 -1.5426
43099SOL     OW38074   1.180   0.500   3.542 -0.5876  0.1667  0.1693
43099SOL    HW138075   1.194   0.414   3.503 -0.5345  0.6082 -0.8091
43099SOL    HW238076   1.237   0.502   3.619 -1.6724 -1.2053  1.0540
43100SOL     OW38077   8.863   8.381  11.525  0.2295 -0.0743 -0.3942
43100SOL    HW138078   8.933   8.391  11.591 -2.6462  0.3779  2.8751
43100SOL    HW238079   8.858   8.287  11.510  1.3235 -0.1375 -0.4518
43101SOL     OW38080  12.229   9.160   2.924 -0.1285  0.1387  0.4775
43101SOL    HW138081  12.276   9.218   2.984  0.5560  0.7832 -0.6373
43101SOL    HW238082  12.137   9.169   2.949  0.2688 -1.0159  2.5937
43102SOL     OW38083   1.387   5.680   5.047 -0.0292  0.0930 -0.0472
43102SOL    HW138084   1.327   5.610   5.020  0.6941 -0.5855  0.0770
43102SOL    HW238085   1.343   5.721   5.122  0.2664 -1.2923  0.9142
43103SOL     OW38086   0.383   4.996   3.323 -0.3495 -0.0854 -0.0308
43103SOL    HW138087   0.360   4.986   3.231  1.0917 -1.6924 -0.2689
43103SOL    HW238088   0.431   5.079   3.327 -3.1333  1.6318 -0.0932
43104SOL     OW38089   0.322  11.627  11.498  0.1947  0.2298  0.1376
43104SOL    HW138090   0.320  11.628  11.402 -0.7460  1.0714  0.1566
43104SOL    HW238091   0.385  11.558  11.519  1.5413  1.0240 -1.0822
43105SOL     OW38092   4.252   8.413   0.950  0.2592 -0.0837  0.1666
43105SOL    HW138093   4.215   8.337   0.905 -1.0934 -0.5915  2.0210
43105SOL    HW238094   4.310   8.376   1.016  0.1071  0.5024  0.6430
43106SOL     OW38095   9.197   4.622   4.712  0.4850 -0.3208  0.0590
43106SOL    HW138096   9.113   4.578   4.724  1.2586 -1.5556  1.1935
43106SOL    HW238097   9.182   4.711   4.744 -1.0940  0.3453 -2.2365
43107SOL     OW38098  11.487  11.366   3.232 -0.3430  0.4596 -0.0434
43107SOL    HW138099  11.415  11.345   3.173 -0.6534  0.9950  0.1323
43107SOL    HW238100  11.541  11.428   3.183  0.6759 -0.8460 -0.6371
43108SOL     OW38101   9.595   1.797   8.905 -0.1415  0.6067 -0.1897
43108SOL    HW138102   9.603   1.850   8.985 -1.3844  2.2220 -1.0677
43108SOL    HW238103   9.627   1.855   8.835 -0.1704 -0.3546 -1.0095
43109SOL     OW38104   3.781   5.105   4.039  0.1620  0.1712  0.3162
43109SOL    HW138105   3.779   5.043   3.966 -0.4071  1.0641 -0.4577
43109SOL    HW238106   3.847   5.170   4.013 -1.3955  1.5630 -0.3525
43110SOL     OW38107   6.895   0.359   6.511 -0.3041  1.0814 -0.2496
43110SOL    HW138108   6.962   0.303   6.551 -1.9813 -0.4252  0.5969
43110SOL    HW238109   6.871   0.420   6.581 -0.5323  0.9472 -0.2100
43111SOL     OW38110   3.885   9.605   0.210  0.8524 -0.1548 -0.5770
43111SOL    HW138111   3.965   9.553   0.220  0.1537 -1.1700 -0.1312
43111SOL    HW238112   3.904   9.687   0.255  1.3913 -0.6773  0.1781
43112SOL     OW38113   3.694   7.394   0.822 -0.2647  0.0276  0.4570
43112SOL    HW138114   3.639   7.431   0.753  2.1951  2.4132 -0.4050
43112SOL    HW238115   3.692   7.299   0.806 -1.1025  0.3652 -1.8377
43113SOL     OW38116   9.647   3.343  10.113  0.5958 -0.2595 -0.1271
43113SOL    HW138117   9.591   3.392  10.173  0.4254 -1.9789  1.1936
43113SOL    HW238118   9.642   3.392  10.031 -1.3096  0.7146  0.4991
43114SOL     OW38119   3.163   3.589   3.233  0.1782  0.1470 -0.3163
43114SOL    HW138120   3.222   3.563   3.304 -0.7717 -0.6209  0.2088
43114SOL    HW238121   3.185   3.681   3.216  3.7283 -0.8457 -2.3148
43115SOL     OW38122   0.702   4.232   1.080  0.9183  0.4011 -0.5380
43115SOL    HW138123   0.790   4.254   1.052  0.9080 -0.6990 -1.5513
43115SOL    HW238124   0.677   4.301   1.141  2.6034  0.5337  0.0373
43116SOL     OW38125   5.070   1.681   5.052 -0.1560 -0.6363  0.1589
43116SOL    HW138126   5.028   1.639   5.127 -0.3044 -1.9790 -0.6619
43116SOL    HW238127   5.073   1.614   4.984  2.0436 -0.1575 -0.2958
43117SOL     OW38128   4.767   4.947   0.324 -0.0160  0.0884 -0.0783
43117SOL    HW138129   4.749   4.964   0.417  0.1559  1.3441 -0.2583
43117SOL    HW238130   4.851   4.901   0.324 -0.9665 -1.7649  0.4896
43118SOL     OW38131   1.927   8.416   1.615 -0.0420  0.3350  0.1259
43118SOL    HW138132   1.846   8.377   1.649 -0.7429  0.6816 -1.1118
43118SOL    HW238133   1.980   8.431   1.694 -0.8962 -0.5031  0.8978
43119SOL     OW38134   5.832   2.952   8.920 -0.0028  0.1308  0.6324
43119SOL    HW138135   5.834   2.863   8.955 -1.6703  0.3026  1.2368
43119SOL    HW238136   5.851   3.008   8.996  1.3334  0.3090  0.1975
43120SOL     OW38137   2.689   5.316   8.268 -0.0728 -0.0631  0.1034
43120SOL    HW138138   2.709   5.325   8.174  0.1409 -1.2151  0.0170
43120SOL    HW238139   2.601   5.279   8.270  0.2647 -0.8924  0.3130
43121SOL     OW38140  11.446   6.527   1.319 -0.1312  0.2375 -0.2626
43121SOL    HW138141  11.452   6.616   1.354  0.9210  0.2452 -0.4280
43121SOL    HW238142  11.531   6.511   1.278  0.3674 -1.4660  1.2795
43122SOL     OW38143   4.558   6.990   3.275 -0.4276  0.0463 -0.2012
43122SOL    HW138144   4.522   6.902   3.288 -0.8717  0.2418 -0.0953
43122SOL    HW238145   4.587   7.017   3.363  1.3266 -0.6812 -0.5157
43123SOL     OW38146  11.064   6.952   3.599 -0.1135  0.4132  0.0012
43123SOL    HW138147  11.084   6.937   3.507 -2.1815  0.4589 -0.5093
43123SOL    HW238148  11.056   6.864   3.637 -0.0594  0.3802 -0.0663
43124SOL     OW38149   2.791   4.558   2.994  0.5189  0.0789  0.0451
43124SOL    HW138150   2.806   4.630   2.934  0.8960  0.8767  1.0612
43124SOL    HW238151   2.878   4.534   3.026  0.4599 -1.2156 -0.6998
43125SOL     OW38152   1.140   4.135   1.244 -0.2211  0.2743  0.3610
43125SOL    HW138153   1.215   4.155   1.300  0.2972 -0.0699 -0.2048
43125SOL    HW238154   1.083   4.213   1.251 -0.3399  0.0881  1.6353
43126SOL     OW38155   1.713   2.433   6.543  0.1094 -0.4428 -0.0569
43126SOL    HW138156   1.712   2.400   6.454 -0.4470  0.1874 -0.2900
43126SOL    HW238157   1.775   2.506   6.541 -2.3052  1.7114 -0.7413
43127SOL     OW38158   2.980   2.951  10.430 -0.3387  0.1885  0.4181
43127SOL    HW138159   3.053   2.989  10.382  0.4242 -0.1057  1.2979
43127SOL    HW238160   3.021   2.887  10.489 -1.4327 -0.9581 -0.0062
43128SOL     OW38161   5.968   2.365  10.316  0.2919 -0.4174  0.4092
43128SOL    HW138162   5.897   2.351  10.253 -0.2258 -1.1398  1.1403
43128SOL    HW238163   5.949   2.304  10.387  1.3282 -0.1982  0.8847
43129SOL     OW38164   2.320   3.203   9.672 -0.5570 -0.1183  0.5847
43129SOL    HW138165   2.328   3.248   9.588  0.2010 -0.3169  0.5448
43129SOL    HW238166   2.404   3.157   9.683 -0.4999  0.2060  1.6194
43130SOL     OW38167   6.613   5.307  11.410 -0.2030  0.1954  0.2859
43130SOL    HW138168   6.556   5.364  11.358  0.9320  2.0411  0.9815
43130SOL    HW238169   6.629   5.231  11.353 -0.2465  1.4334 -1.4512
43131SOL     OW38170  11.180   0.285   1.209  0.0236  0.3817  0.4119
43131SOL    HW138171  11.100   0.234   1.194  1.3706 -1.4462 -1.1469
43131SOL    HW238172  11.217   0.247   1.288  0.6534 -0.6704 -0.3474
43132SOL     OW38173   7.856   7.778   2.674  0.5934  0.0209  0.6231
43132SOL    HW138174   7.907   7.824   2.740 -0.5373  1.2377  0.6787
43132SOL    HW238175   7.781   7.836   2.656  0.7011 -0.4144 -1.4826
43133SOL     OW38176   5.342   9.044  10.298 -0.3390  0.2356 -0.1655
43133SOL    HW138177   5.422   9.047  10.247  0.2153 -1.3180  0.5333
43133SOL    HW238178   5.281   8.993  10.244 -0.6371  0.8605 -0.4177
43134SOL     OW38179   2.867  10.775   5.847  0.1201  0.0549 -0.3910
43134SOL    HW138180   2.915  10.747   5.769 -1.1479  2.1608 -1.9995
43134SOL    HW238181   2.787  10.723   5.846  0.4839 -0.5375  0.0403
43135SOL     OW38182   4.890   7.872   4.627  0.0605  0.3751  0.4787
43135SOL    HW138183   4.899   7.776   4.632 -0.2174  0.1208 -2.2006
43135SOL    HW238184   4.855   7.887   4.539  3.2172  3.1467 -0.4751
43136SOL     OW38185   1.593   4.129   7.233 -0.1593  0.2074 -0.0771
43136SOL    HW138186   1.679   4.141   7.271 -0.2699  0.8038 -0.0179
43136SOL    HW238187   1.610   4.103   7.142  0.0931 -0.6512  0.2088
43137SOL     OW38188   7.062   6.089   2.729  0.4053 -0.2522  0.5649
43137SOL    HW138189   7.050   5.996   2.750  1.4462 -0.0615  2.1010
43137SOL    HW238190   7.111   6.125   2.802 -1.3791  1.9140  0.8095
43138SOL     OW38191   0.143   7.466  11.432 -0.2470 -0.2900 -1.0222
43138SOL    HW138192   0.216   7.434  11.484 -1.8077 -0.3995  1.2314
43138SOL    HW238193   0.109   7.388  11.388 -0.1825 -0.5710 -0.5734
43139SOL     OW38194   7.351   3.065   0.297 -0.4730 -0.1355  0.2458
43139SOL    HW138195   7.333   3.060   0.203 -0.0957  0.4260  0.1395
43139SOL    HW238196   7.429   3.120   0.303  1.3009 -2.5838  0.6908
43140SOL     OW38197   5.155   2.133   1.905 -0.2557 -0.2948 -0.4359
43140SOL    HW138198   5.109   2.051   1.920 -0.9813 -0.3078 -2.3444
43140SOL    HW238199   5.210   2.116   1.829  1.2881  0.3637  0.4933
43141SOL     OW38200   3.408   1.968   7.254  0.3925  0.0235  0.2767
43141SOL    HW138201   3.376   1.907   7.321  0.3409 -1.2366 -0.8510
43141SOL    HW238202   3.329   2.009   7.219  0.3491  0.0342  0.3879
43142SOL     OW38203   4.822  12.195   3.233 -0.2137  0.1749  0.4008
43142SOL    HW138204   4.803  12.161   3.146  0.1603  2.2996 -0.5712
43142SOL    HW238205   4.904  12.244   3.223  0.1545 -0.0193  2.0892
43143SOL     OW38206   8.542   0.824   3.058 -0.1077 -0.4954 -0.0536
43143SOL    HW138207   8.622   0.846   3.106 -1.2698  2.7098  0.6489
43143SOL    HW238208   8.478   0.804   3.127 -0.7560  0.2309 -0.4373
43144SOL     OW38209   8.524   6.555   4.154  1.0103  0.3185  0.1973
43144SOL    HW138210   8.431   6.573   4.141  0.6829  1.6058  3.3455
43144SOL    HW238211   8.569   6.617   4.098 -0.0538  0.5832 -0.3820
43145SOL     OW38212  12.611   2.945   7.705 -0.2451  0.2693  0.2535
43145SOL    HW138213  12.604   2.872   7.767 -0.7886 -0.2915 -0.4528
43145SOL    HW238214  12.610   3.023   7.760  3.0288 -0.2567  1.2917
43146SOL     OW38215   5.190   8.680   7.461 -0.1728 -0.1246 -0.3395
43146SOL    HW138216   5.171   8.624   7.386  0.3712 -1.5057  0.5027
43146SOL    HW238217   5.127   8.752   7.455 -0.3587 -0.3965 -1.9070
43147SOL     OW38218   8.674   0.946  11.907  0.3043  0.2756  0.0973
43147SOL    HW138219   8.611   0.990  11.964 -0.3236  2.1855 -1.9664
43147SOL    HW238220   8.755   0.996  11.916  0.9319 -0.8330  1.0215
43148SOL     OW38221   2.905   2.071   0.150 -0.2469 -0.0858 -0.1409
43148SOL    HW138222   2.921   2.104   0.239  0.2755 -2.0830  0.5485
43148SOL    HW238223   2.885   2.150   0.099  1.2057  1.3420  1.3446
43149SOL     OW38224   9.265   8.725   3.093 -0.4176  0.4401 -0.3698
43149SOL    HW138225   9.345   8.731   3.146 -0.4576  0.7166 -0.3389
43149SOL    HW238226   9.291   8.757   3.007 -1.0148  2.6982  0.2073
43150SOL     OW38227   9.642   0.778   2.614 -1.0040 -0.4810  0.0457
43150SOL    HW138228   9.714   0.724   2.647 -0.5964 -1.4714 -2.2818
43150SOL    HW238229   9.565   0.749   2.664 -0.1313 -0.5289  1.4317
43151SOL     OW38230   6.516   8.980   9.025 -0.3905 -0.0816  0.1299
43151SOL    HW138231   6.422   8.966   9.039 -0.3771 -0.4802 -0.1593
43151SOL    HW238232   6.556   8.965   9.111 -0.3192 -2.4156 -0.2368
43152SOL     OW38233   4.968   5.421   1.952  0.1838 -0.1184 -0.3241
43152SOL    HW138234   5.038   5.478   1.984 -0.1105 -0.5915  1.2227
43152SOL    HW238235   5.000   5.333   1.968 -0.0488 -0.3710 -1.2132
43153SOL     OW38236   3.839   6.555   9.931  0.5672 -0.6812 -0.0902
43153SOL    HW138237   3.829   6.464   9.959 -0.3401 -0.1296  1.4935
43153SOL    HW238238   3.757   6.597   9.957  0.9916  0.6071 -0.7610
43154SOL     OW38239   1.339  11.184  10.106 -0.2635  0.2274 -0.0077
43154SOL    HW138240   1.347  11.118  10.036  1.1188 -0.0281  0.3571
43154SOL    HW238241   1.278  11.145  10.168  0.2909 -0.5936  0.0488
43155SOL     OW38242  11.301   8.048   5.871  0.3120 -0.0563  0.1763
43155SOL    HW138243  11.330   7.966   5.829 -0.9559 -1.3654  1.7233
43155SOL    HW238244  11.366   8.113   5.843  1.4092 -1.5865 -1.0505
43156SOL     OW38245   2.723   0.876   3.245  0.2088 -0.6931  0.2828
43156SOL    HW138246   2.799   0.923   3.279  0.3125 -0.7479  0.1240
43156SOL    HW238247   2.650   0.907   3.299  0.1497  0.1788 -0.2766
43157SOL     OW38248  11.178   7.141   2.401 -0.2091 -0.5552 -0.0238
43157SOL    HW138249  11.212   7.075   2.460  0.0571 -0.8074 -0.4558
43157SOL    HW238250  11.111   7.187   2.452 -0.2434 -1.0125  0.3445
43158SOL     OW38251   4.693   4.150   5.279  0.1009 -0.5190  0.1423
43158SOL    HW138252   4.631   4.144   5.352  0.6715 -1.5820  0.5589
43158SOL    HW238253   4.689   4.241   5.251 -3.9957 -1.0732 -1.9027
43159SOL     OW38254   1.057   7.559   7.288  0.5442  0.2357 -0.3071
43159SOL    HW138255   1.069   7.489   7.352  0.3729 -0.9857 -1.5401
43159SOL    HW238256   0.977   7.604   7.316 -1.2316 -2.1173 -1.1878
43160SOL     OW38257   7.409   1.270   4.827  0.5258 -0.2391  0.0741
43160SOL    HW138258   7.355   1.236   4.755  1.7904 -1.0377 -0.5240
43160SOL    HW238259   7.407   1.365   4.815  1.7407 -0.4043 -1.8027
43161SOL     OW38260   4.637   9.435   7.736 -0.5465 -0.0755 -0.6081
43161SOL    HW138261   4.697   9.426   7.663  2.3947  0.9509  1.4936
43161SOL    HW238262   4.600   9.523   7.727 -1.0245 -0.3437 -1.3688
43162SOL     OW38263   1.211   4.028  10.983  0.1446  0.0496 -0.0816
43162SOL    HW138264   1.193   4.036  11.076  0.9773 -0.0099  0.0922
43162SOL    HW238265   1.241   3.937  10.972  1.9544  0.6224 -0.0672
43163SOL     OW38266   8.851   7.702   0.244  0.1973  0.0605  0.2472
43163SOL    HW138267   8.814   7.733   0.327  0.5150 -0.3283  0.5396
43163SOL    HW238268   8.933   7.750   0.236  0.5070 -0.4102  0.5135
43164SOL     OW38269   6.446   9.710   4.190 -0.2169  0.8641 -0.1411
43164SOL    HW138270   6.536   9.739   4.202 -0.0595  0.8879 -1.2271
43164SOL    HW238271   6.417   9.682   4.276  0.1552  2.7319  0.6453
43165SOL     OW38272   4.541   6.313   2.406  0.0343 -0.6406 -0.0462
43165SOL    HW138273   4.471   6.254   2.378  0.7541 -1.9803  0.8615
43165SOL    HW238274   4.591   6.332   2.326 -2.1833  1.6119 -1.0459
43166SOL     OW38275   9.719   6.822  11.171 -0.0203  0.3940  0.3810
43166SOL    HW138276   9.692   6.857  11.256 -0.7109 -0.4567  0.5252
43166SOL    HW238277   9.693   6.730  11.173  1.6020 -0.0999 -0.0611
43167SOL     OW38278   3.473   0.872  12.212 -0.1519  0.8054  0.3916
43167SOL    HW138279   3.401   0.812  12.191  0.0919 -0.1010  1.9435
43167SOL    HW238280   3.485   0.924  12.133 -0.3544 -1.2307 -1.0692
43168SOL     OW38281   9.205   7.412   1.211 -0.0020  0.4030  0.8596
43168SOL    HW138282   9.225   7.498   1.247 -0.1786  0.6393  0.4020
43168SOL    HW238283   9.279   7.357   1.237  0.3444  0.8143  0.7418
43169SOL     OW38284   2.452   6.755   0.946  0.0760 -0.2151  0.1010
43169SOL    HW138285   2.548   6.752   0.941  0.4142  0.4656  3.6506
43169SOL    HW238286   2.429   6.681   1.002 -1.2040  1.1297  1.4068
43170SOL     OW38287   6.094   7.825   3.693 -0.6710  0.1440 -0.0550
43170SOL    HW138288   6.016   7.829   3.637 -1.7134  0.5506  1.3885
43170SOL    HW238289   6.164   7.859   3.637 -1.5778  0.0960 -1.2731
43171SOL     OW38290   7.294   9.584  11.008  0.4625 -0.0984  0.3611
43171SOL    HW138291   7.209   9.546  10.986 -0.8896  2.1556  1.2751
43171SOL    HW238292   7.351   9.509  11.023 -1.2004 -1.6941 -0.8200
43172SOL     OW38293   6.889   3.601   8.550  0.1490  0.1861  0.4882
43172SOL    HW138294   6.930   3.681   8.519 -1.8607  0.8813 -0.5402
43172SOL    HW238295   6.809   3.630   8.594  0.6388 -1.1159  2.3882
43173SOL     OW38296   7.919   2.495   2.018  0.0182  0.2152 -0.1343
43173SOL    HW138297   7.877   2.547   2.086  0.2566 -0.0755  0.2429
43173SOL    HW238298   8.006   2.475   2.054  0.6554  1.1748 -1.0781
43174SOL     OW38299  10.509   5.978   8.956  0.2951 -0.6283  0.3870
43174SOL    HW138300  10.555   5.902   8.992  1.5638 -1.5438 -2.7793
43174SOL    HW238301  10.441   5.941   8.900 -1.0333  0.6575  1.1044
43175SOL     OW38302   4.009   2.580  10.033  0.0160 -0.1540 -0.0259
43175SOL    HW138303   4.023   2.590  10.128 -1.9365 -1.9665  0.5279
43175SOL    HW238304   3.938   2.641  10.013  1.5678  1.5065 -0.7401
43176SOL     OW38305   4.933   3.469   6.830 -0.4772 -0.0441  0.3610
43176SOL    HW138306   4.957   3.410   6.758  0.4678  0.9089 -0.1211
43176SOL    HW238307   4.938   3.414   6.908 -0.2310 -0.7588 -0.1423
43177SOL     OW38308   2.461   0.468   6.236 -0.0896 -0.3629  0.0342
43177SOL    HW138309   2.394   0.531   6.262  1.4181  1.8558 -1.1257
43177SOL    HW238310   2.475   0.485   6.143  1.9198 -0.9138  0.1895
43178SOL     OW38311   8.811   1.762   8.977  0.1927 -0.3196 -0.0575
43178SOL    HW138312   8.754   1.692   8.945 -0.7965  0.2030  0.5138
43178SOL    HW238313   8.762   1.801   9.049  0.7280  0.9633 -0.3749
43179SOL     OW38314   9.532   5.140   2.919 -0.3473 -0.3875  0.4517
43179SOL    HW138315   9.560   5.193   2.844  0.2577  0.5901  1.3335
43179SOL    HW238316   9.583   5.060   2.912 -0.7723 -0.5827 -0.5308
43180SOL     OW38317   8.698  12.368  11.868 -0.1875  0.0761  0.6481
43180SOL    HW138318   8.773  12.407  11.914  1.3042 -1.0472 -0.6794
43180SOL    HW238319   8.629  12.363  11.933  1.0385  0.7642  2.0664
43181SOL     OW38320   9.300  12.611   0.755 -0.0336  0.1624  0.1089
43181SOL    HW138321   9.388  12.649   0.766 -1.1241  2.6877  0.8726
43181SOL    HW238322   9.274  12.585   0.843 -0.3477  0.1532  0.0137
43182SOL     OW38323   5.017   6.944   0.870  0.3731  0.9881  0.0613
43182SOL    HW138324   5.048   6.898   0.792 -0.7502  1.4466 -0.7000
43182SOL    HW238325   4.926   6.915   0.880 -0.0094  2.1581  0.2238
43183SOL     OW38326   3.095   9.971   5.858 -0.4151 -0.1235 -0.1513
43183SOL    HW138327   3.120   9.903   5.921  0.8502  0.3027 -0.1719
43183SOL    HW238328   3.033  10.026   5.906 -1.6959 -1.4505 -0.2320
43184SOL     OW38329   1.701   3.282   1.665 -0.2943  0.4242  0.3746
43184SOL    HW138330   1.767   3.299   1.598 -1.7938 -0.5175 -1.4313
43184SOL    HW238331   1.700   3.361   1.719 -0.4720  2.1545 -2.0083
43185SOL     OW38332   3.355  11.914   1.781 -0.6580 -0.3862 -0.1418
43185SOL    HW138333   3.290  11.983   1.771 -0.9142 -0.6733 -0.4804
43185SOL    HW238334   3.438  11.957   1.760 -0.5410  0.3283  1.6273
43186SOL     OW38335  11.696   2.976  12.239  1.1537  0.2131 -0.5511
43186SOL    HW138336  11.675   2.977  12.332  0.5758  0.6236 -0.6801
43186SOL    HW238337  11.789   2.951  12.235  1.5089  1.3580  0.1918
43187SOL     OW38338   8.803   4.125   6.697 -0.5623  0.1211  0.6274
43187SOL    HW138339   8.751   4.160   6.625 -0.0614 -0.5077 -0.0465
43187SOL    HW238340   8.891   4.116   6.661 -0.6665 -1.8298  0.7640
43188SOL     OW38341   9.256   6.985   5.071 -0.4500 -0.4897  0.1941
43188SOL    HW138342   9.182   7.035   5.037 -0.2731 -1.1182 -1.1795
43188SOL    HW238343   9.275   7.025   5.156 -0.1687  1.9302 -0.9266
43189SOL     OW38344   3.344  12.384   8.611  0.7097 -0.4123 -0.2132
43189SOL    HW138345   3.313  12.303   8.652  0.6337 -0.3047 -0.0547
43189SOL    HW238346   3.295  12.390   8.529  0.4561 -0.3500 -0.0606
43190SOL     OW38347   3.342   9.775   9.061 -0.0766 -0.1658 -0.4316
43190SOL    HW138348   3.265   9.796   9.113  0.4218  0.5780  0.0237
43190SOL    HW238349   3.386   9.705   9.109  0.2237  0.3159  0.0103
43191SOL     OW38350   1.235   4.574   3.329 -0.7831 -0.6738 -0.3361
43191SOL    HW138351   1.206   4.641   3.267 -0.2711 -1.2989 -1.2824
43191SOL    HW238352   1.257   4.623   3.408 -1.7553  0.1103 -0.5195
43192SOL     OW38353   8.943   3.015   2.445  0.1416 -0.0620  0.2339
43192SOL    HW138354   8.931   3.107   2.421  0.6261  0.4828  1.9237
43192SOL    HW238355   8.998   3.018   2.524 -2.5077 -1.6170  2.2903
43193SOL     OW38356   0.910   8.741  12.214 -0.3206  0.1275 -0.7433
43193SOL    HW138357   0.983   8.759  12.273  0.1537 -0.0699 -1.2644
43193SOL    HW238358   0.908   8.817  12.155 -0.8666  0.3808 -0.4121
43194SOL     OW38359  12.347   8.061   5.645  0.2493 -0.2767  0.5671
43194SOL    HW138360  12.364   7.982   5.697  0.7275 -0.6335 -0.1221
43194SOL    HW238361  12.254   8.079   5.658  0.6246  0.4474  2.6661
43195SOL     OW38362   1.666   0.533  12.515 -0.8673 -0.7324  0.3933
43195SOL    HW138363   1.758   0.537  12.541 -0.8708 -1.2579  0.4881
43195SOL    HW238364   1.655   0.445  12.479 -0.8882 -0.1039 -1.2641
43196SOL     OW38365  11.190  11.099   2.735  0.3957 -0.2260 -0.1818
43196SOL    HW138366  11.123  11.054   2.787  0.9388  0.4855  1.1744
43196SOL    HW238367  11.190  11.053   2.650 -0.4266 -1.4973  0.4852
43197SOL     OW38368  12.126   9.513   3.263 -0.0043  0.5281  0.2903
43197SOL    HW138369  12.189   9.446   3.237 -0.3180  0.6004 -0.6996
43197SOL    HW238370  12.154   9.539   3.351  0.0983 -0.9040  0.7010
43198SOL     OW38371  11.380   1.151  12.125 -0.6643  0.1129 -0.0961
43198SOL    HW138372  11.458   1.160  12.071 -1.5592 -1.1979 -1.7302
43198SOL    HW238373  11.384   1.223  12.188  2.8538 -1.0392  1.2380
43199SOL     OW38374   2.549   2.928   6.001 -0.2244 -0.3836 -0.0718
43199SOL    HW138375   2.512   2.862   6.059 -1.8083  1.5348  1.2376
43199SOL    HW238376   2.638   2.942   6.033 -0.9315  0.3342  1.6530
43200SOL     OW38377   6.776  10.825   0.692  0.7142 -0.3908 -0.3133
43200SOL    HW138378   6.729  10.907   0.706 -0.1715 -0.1411 -3.9231
43200SOL    HW238379   6.727  10.780   0.623  2.5269 -2.8750 -0.1206
43201SOL     OW38380  12.043   9.116   4.127 -0.7468 -0.1816  0.1560
43201SOL    HW138381  12.047   9.023   4.150 -0.6359 -0.1217  0.3869
43201SOL    HW238382  12.120   9.154   4.170 -0.6945 -0.0149 -0.0828
43202SOL     OW38383   4.099   7.316   5.710 -0.0024  0.2760 -0.7077
43202SOL    HW138384   4.106   7.311   5.806 -0.7895  0.5519 -0.6265
43202SOL    HW238385   4.090   7.410   5.692  1.0027  0.3047 -1.1303
43203SOL     OW38386   9.796   3.489   4.471 -0.3478  0.3315 -0.2434
43203SOL    HW138387   9.725   3.461   4.414 -0.4708  1.3003 -0.5857
43203SOL    HW238388   9.780   3.583   4.486 -0.7315 -0.0205  1.9824
43204SOL     OW38389   4.168   7.791   6.980 -0.2390  0.6425  0.4728
43204SOL    HW138390   4.089   7.755   6.940 -0.2994 -0.2452  1.3325
43204SOL    HW238391   4.140   7.820   7.067 -0.0728  2.3319 -0.0109
43205SOL     OW38392   9.446   7.839   4.050  0.1043 -0.2732 -0.0472
43205SOL    HW138393   9.502   7.884   4.114  1.1521  0.2456 -1.2660
43205SOL    HW238394   9.398   7.774   4.100 -0.0381  0.9510  1.4642
43206SOL     OW38395   9.469   0.894   0.273 -0.0272  0.4005 -0.6061
43206SOL    HW138396   9.382   0.913   0.238  0.2497  1.1714 -0.9165
43206SOL    HW238397   9.465   0.919   0.365  0.1035  1.2846 -0.8259
43207SOL     OW38398   6.106  10.791   2.112 -0.0408  0.1402 -0.0417
43207SOL    HW138399   6.071  10.827   2.194  0.6889 -0.2866  0.4780
43207SOL    HW238400   6.053  10.831   2.043  0.4800  1.8761  0.5320
43208SOL     OW38401   8.481   3.180   0.139  0.5129  0.1152  0.4737
43208SOL    HW138402   8.414   3.230   0.093  1.2147  0.5217 -0.1393
43208SOL    HW238403   8.537   3.247   0.180  0.2764 -0.2255  1.3775
43209SOL     OW38404   0.724  10.022  10.833  0.1488 -0.0124 -0.1485
43209SOL    HW138405   0.639  10.010  10.791  0.3621  0.8374 -0.8543
43209SOL    HW238406   0.714   9.980  10.918 -1.5134  1.3990  0.4325
43210SOL     OW38407   7.564   4.252  10.384 -0.4627 -0.1071 -0.0770
43210SOL    HW138408   7.511   4.198  10.325  0.2910 -0.0821 -0.8048
43210SOL    HW238409   7.553   4.341  10.351 -0.9892  0.0773  0.5711
43211SOL     OW38410  12.275  10.256   9.312 -0.0715 -0.3241  0.0712
43211SOL    HW138411  12.288  10.247   9.406  2.3835  0.5349 -0.0938
43211SOL    HW238412  12.336  10.193   9.273 -1.4420 -1.0631 -0.9725
43212SOL     OW38413   8.055   4.580   5.855 -0.0248 -0.1940 -0.0626
43212SOL    HW138414   8.038   4.544   5.942 -1.3978 -0.2044 -0.3126
43212SOL    HW238415   7.983   4.640   5.839  1.3650  1.4853 -0.3278
43213SOL     OW38416   4.228   5.830   4.743  0.1470 -0.9908 -0.1253
43213SOL    HW138417   4.184   5.759   4.697 -2.8573  0.0583  0.9179
43213SOL    HW238418   4.236   5.799   4.833 -0.0941 -0.4945  0.0732
43214SOL     OW38419  10.285   0.389   1.570  0.1513  0.2150  0.6480
43214SOL    HW138420  10.268   0.298   1.594  0.6327  0.1124  0.6043
43214SOL    HW238421  10.199   0.431   1.575 -0.2911 -0.5048 -0.4880
43215SOL     OW38422   8.221  10.703   5.300  0.0778 -0.6374  0.0798
43215SOL    HW138423   8.282  10.776   5.308 -0.4542 -0.2090  0.2868
43215SOL    HW238424   8.240  10.647   5.375 -0.7027  0.2037  0.9301
43216SOL     OW38425   0.664   2.979   8.898 -0.4657  0.5476  0.4463
43216SOL    HW138426   0.725   3.037   8.851 -0.6213  0.4535  0.1269
43216SOL    HW238427   0.717   2.903   8.922 -0.2686  0.8091  0.8368
43217SOL     OW38428   2.262   0.286   9.283 -0.2817  0.0516 -0.7075
43217SOL    HW138429   2.259   0.378   9.309 -1.1649  0.0523 -0.7898
43217SOL    HW238430   2.202   0.242   9.343  0.2936 -0.5142 -0.5347
43218SOL     OW38431  11.845   5.722   2.837  0.3163  0.8528 -0.3281
43218SOL    HW138432  11.779   5.707   2.769 -1.4068 -0.0276  1.4492
43218SOL    HW238433  11.861   5.817   2.834 -0.3534  0.9527 -1.3759
43219SOL     OW38434   0.416   1.463   5.771  0.1564  0.1525 -0.0215
43219SOL    HW138435   0.468   1.515   5.709  1.0181 -0.7845 -0.1015
43219SOL    HW238436   0.412   1.376   5.732 -3.1327  0.6042 -1.0085
43220SOL     OW38437   4.507   7.811  10.375  0.0542  0.2522 -0.3640
43220SOL    HW138438   4.590   7.769  10.354  0.0184 -0.3700  0.6591
43220SOL    HW238439   4.453   7.797  10.298  0.1527 -1.3512 -0.1771
43221SOL     OW38440   9.053   6.172   3.457  0.4349 -0.1243  0.1646
43221SOL    HW138441   9.122   6.209   3.512 -0.0282 -0.4616  0.9923
43221SOL    HW238442   9.060   6.219   3.374 -0.1830  1.8947  1.1913
43222SOL     OW38443  11.295   2.485   4.060 -0.2409  0.1547 -0.8706
43222SOL    HW138444  11.234   2.501   3.988 -0.3102 -0.1249 -0.8763
43222SOL    HW238445  11.239   2.454   4.131 -0.1409  0.1864 -0.7787
43223SOL     OW38446  12.329  11.499  12.495  0.0528  0.1136  0.7921
43223SOL    HW138447  12.360  11.409  12.491  0.9645  0.3458  1.9312
43223SOL    HW238448  12.340  11.524  12.586  1.6179  1.9796  0.1598
43224SOL     OW38449   5.529  10.142   5.217  0.1112 -0.1392  0.0012
43224SOL    HW138450   5.446  10.131   5.264  0.9906 -1.0800  1.4294
43224SOL    HW238451   5.504  10.181   5.134 -2.0089 -2.1765 -0.4444
43225SOL     OW38452   5.067   9.209  12.147  0.6376 -0.4760 -0.3123
43225SOL    HW138453   5.098   9.250  12.228 -2.5354 -0.1604  0.8920
43225SOL    HW238454   4.975   9.233  12.141 -0.2412 -3.6192 -2.0144
43226SOL     OW38455   5.209   7.780   2.237  0.3115  0.2781  0.0334
43226SOL    HW138456   5.146   7.712   2.258  0.3122  0.5418  0.9375
43226SOL    HW238457   5.291   7.734   2.222  0.2383  0.0519  0.3215
43227SOL     OW38458   2.738   3.045   5.267 -0.1533  0.4166 -0.1191
43227SOL    HW138459   2.744   3.053   5.172 -1.1434 -2.2670 -0.4731
43227SOL    HW238460   2.646   3.061   5.287 -0.5833 -1.9230 -0.0125
43228SOL     OW38461   3.872  10.347   7.398 -0.3775  0.3968  0.0146
43228SOL    HW138462   3.795  10.341   7.455  0.9652  1.4441  2.0885
43228SOL    HW238463   3.838  10.375   7.314 -2.1708  1.8893  1.1717
43229SOL     OW38464   2.465   6.329   1.636 -0.4589  0.4213  0.3432
43229SOL    HW138465   2.439   6.273   1.708  0.9062  0.7356  1.1171
43229SOL    HW238466   2.500   6.408   1.678  0.6617  0.4750 -0.6278
43230SOL     OW38467   4.602   0.156   7.514 -0.6406  0.4647  0.3106
43230SOL    HW138468   4.692   0.188   7.523 -0.0133 -1.2310  0.3684
43230SOL    HW238469   4.588   0.102   7.592 -1.6306  0.5137  0.1775
43231SOL     OW38470   7.053   7.794   9.581  0.1097 -0.2475  0.3836
43231SOL    HW138471   6.972   7.746   9.595  0.1531 -1.2105 -2.1429
43231SOL    HW238472   7.027   7.870   9.529  0.7634 -0.3463 -0.0988
43232SOL     OW38473   5.810  10.058   5.053 -0.5084  0.1254 -1.1629
43232SOL    HW138474   5.725  10.032   5.089  0.0711  1.5211  1.4924
43232SOL    HW238475   5.788  10.115   4.979 -2.0468  2.2684  0.8030
43233SOL     OW38476   6.379  10.585  11.468 -0.6158  0.0211  0.2179
43233SOL    HW138477   6.296  10.538  11.456 -1.2382  1.4928 -1.5846
43233SOL    HW238478   6.407  10.560  11.557 -1.4876 -2.7637 -0.1838
43234SOL     OW38479   3.354   6.367   5.914  0.2671  0.2879  0.1000
43234SOL    HW138480   3.342   6.291   5.971 -0.0512  1.0721  1.1013
43234SOL    HW238481   3.288   6.355   5.845  0.3285 -0.4185  0.1535
43235SOL     OW38482   0.485   8.215   2.958  0.5795 -0.1150 -0.1937
43235SOL    HW138483   0.471   8.245   2.868  1.2507  0.5657 -0.0788
43235SOL    HW238484   0.568   8.255   2.984 -0.3070  0.9017  1.2305
43236SOL     OW38485  12.156   4.496  10.462 -0.4893 -0.0991  0.2582
43236SOL    HW138486  12.067   4.524  10.482  0.2265  1.0383  2.0992
43236SOL    HW238487  12.210   4.573  10.480  0.6270  0.2851 -3.7436
43237SOL     OW38488   8.153   7.222   0.359 -0.0382  0.1475 -0.0690
43237SOL    HW138489   8.218   7.180   0.303  3.2389  3.3602  0.9064
43237SOL    HW238490   8.106   7.149   0.401  1.3282 -2.3407 -2.5408
43238SOL     OW38491   8.656   8.538   4.924  0.0601 -0.2810  0.0390
43238SOL    HW138492   8.638   8.499   5.009 -1.1705 -1.3359 -0.6679
43238SOL    HW238493   8.751   8.552   4.923 -0.0034  0.4950  1.8661
43239SOL     OW38494   4.145   0.649   3.501 -0.5180 -0.0152  0.2120
43239SOL    HW138495   4.203   0.576   3.479 -0.9685 -0.6977  1.2118
43239SOL    HW238496   4.203   0.716   3.536 -0.0462  0.2935 -1.1023
43240SOL     OW38497  12.451   8.471   8.203  0.6589 -0.4215  0.1560
43240SOL    HW138498  12.512   8.476   8.128  1.5927 -0.5270  0.8902
43240SOL    HW238499  12.467   8.385   8.241 -0.7722 -0.9074 -0.2916
43241SOL     OW38500   6.880   1.095  11.775  0.2274 -0.3692 -0.1734
43241SOL    HW138501   6.940   1.113  11.703  1.2539 -2.4155  0.1121
43241SOL    HW238502   6.935   1.061  11.845 -1.1296 -1.3470  0.4732
43242SOL     OW38503   6.107   0.107   2.072  0.2202  0.6449  0.3406
43242SOL    HW138504   6.052   0.045   2.025  0.7118  0.1797  0.3701
43242SOL    HW238505   6.095   0.086   2.164  0.2136  0.7492  0.3647
43243SOL     OW38506   0.646   9.986  11.890  0.0484  0.1872 -0.4677
43243SOL    HW138507   0.706   9.939  11.949 -0.2330  0.2439 -0.1333
43243SOL    HW238508   0.702  10.047  11.843  0.3478 -0.1634 -0.5777
43244SOL     OW38509   3.464  10.635   1.132 -0.5886 -0.1301  0.0259
43244SOL    HW138510   3.419  10.650   1.215 -1.3259 -1.0562 -0.1944
43244SOL    HW238511   3.555  10.620   1.157  0.2499  4.0548  0.3291
43245SOL     OW38512   6.054   3.538   3.308 -0.1300 -0.1070 -0.1138
43245SOL    HW138513   6.022   3.628   3.301  1.8322  0.5791 -0.8084
43245SOL    HW238514   6.110   3.526   3.232 -0.0240 -1.7943  0.1957
43246SOL     OW38515   3.007  11.299   5.880 -0.3472 -0.4152  0.3936
43246SOL    HW138516   2.990  11.363   5.811  1.5134  1.2690  1.4003
43246SOL    HW238517   2.945  11.322   5.950  0.7716  0.7896  1.0261
43247SOL     OW38518   6.054   9.665  11.697 -0.1750 -0.2531  0.1526
43247SOL    HW138519   6.132   9.715  11.722 -1.4669  2.4071 -0.7613
43247SOL    HW238520   6.061   9.655  11.602  0.4416 -2.6652  0.3847
43248SOL     OW38521   3.071   2.825   8.400 -0.3738  0.4379  0.1257
43248SOL    HW138522   3.020   2.879   8.459  0.1882  0.8730  0.2207
43248SOL    HW238523   3.032   2.840   8.314 -1.4441 -0.5031  0.4279
43249SOL     OW38524   5.606   7.017   7.839 -0.4527  0.0525 -0.3069
43249SOL    HW138525   5.528   6.974   7.875 -0.9144  0.4250 -0.8368
43249SOL    HW238526   5.571   7.078   7.774  0.2879  0.2036 -0.5675
43250SOL     OW38527  12.129   3.304   6.840 -0.0361 -0.4369 -0.8911
43250SOL    HW138528  12.067   3.374   6.820 -0.9775 -1.4510 -1.6478
43250SOL    HW238529  12.205   3.349   6.876 -1.8284  0.7496  1.6953
43251SOL     OW38530   9.010   3.892   3.679  0.2283  0.0513 -0.1450
43251SOL    HW138531   9.057   3.971   3.705 -0.0866  0.6198 -1.2235
43251SOL    HW238532   8.925   3.900   3.723  0.2633  0.2226 -0.1064
43252SOL     OW38533   0.834   6.237   6.628  0.2143 -0.1769 -0.6391
43252SOL    HW138534   0.920   6.247   6.586  0.1690  1.0057 -0.4808
43252SOL    HW238535   0.776   6.295   6.579  0.1147  1.0941  0.8975
43253SOL     OW38536   4.369   7.769   4.117 -0.5199 -0.0770  0.4555
43253SOL    HW138537   4.352   7.678   4.093  0.3694 -0.2389  0.4062
43253SOL    HW238538   4.453   7.767   4.163  0.7630  1.0331 -1.6928
43254SOL     OW38539   5.628   2.300   5.163  0.1586 -0.4395 -0.2429
43254SOL    HW138540   5.721   2.279   5.175  0.3399  0.0775 -0.6760
43254SOL    HW238541   5.592   2.223   5.119  0.7542  0.0179 -1.5903
43255SOL     OW38542  12.329   3.301  12.046 -0.2391  0.3776 -0.1273
43255SOL    HW138543  12.303   3.349  12.124  0.8018  2.2671 -0.8795
43255SOL    HW238544  12.256   3.242  12.029 -1.3206  1.2716  1.1843
43256SOL     OW38545   5.797   8.459   6.228  0.8319  0.1332  0.0037
43256SOL    HW138546   5.754   8.433   6.310  0.1549 -1.9563 -0.9538
43256SOL    HW238547   5.784   8.554   6.224  1.4550  0.4070  2.6162
43257SOL     OW38548   2.102   6.693   2.480  0.3163  0.4889  0.0827
43257SOL    HW138549   2.030   6.631   2.480  1.7912 -1.3054 -0.2875
43257SOL    HW238550   2.061   6.778   2.462 -1.6544 -0.4948 -0.2898
43258SOL     OW38551   2.437   1.953  11.570 -0.6297  0.0511 -0.4525
43258SOL    HW138552   2.369   2.021  11.562  0.1560  0.9051 -0.0599
43258SOL    HW238553   2.423   1.916  11.658  1.5597  2.6767  1.1459
43259SOL     OW38554   8.053   9.784   3.736  0.4001 -0.0619 -0.7220
43259SOL    HW138555   8.036   9.829   3.819  1.0902 -0.9067 -0.1031
43259SOL    HW238556   8.052   9.854   3.670 -0.5888  0.5589 -0.0741
43260SOL     OW38557   7.439   3.710   9.193  0.2437  0.0321 -0.1380
43260SOL    HW138558   7.530   3.708   9.222  0.1958 -0.5844 -0.0212
43260SOL    HW238559   7.430   3.634   9.135 -1.1440 -2.1891  2.7315
43261SOL     OW38560  10.558   4.926   8.930  0.3704 -0.0894 -0.0028
43261SOL    HW138561  10.561   4.879   8.846 -0.0396  0.0125 -0.0766
43261SOL    HW238562  10.484   4.986   8.921  0.9436  0.6354  0.0613
43262SOL     OW38563  10.063   9.985   0.056  0.4623  0.3728 -0.0872
43262SOL    HW138564  10.017  10.063   0.089 -0.7811  0.2576 -1.4209
43262SOL    HW238565  10.027   9.973  -0.032  0.3149 -1.9771  0.2520
43263SOL     OW38566   0.752   7.786   2.172  0.1709  0.1305 -0.2143
43263SOL    HW138567   0.821   7.728   2.204  2.3433  2.0571 -1.0661
43263SOL    HW238568   0.781   7.812   2.084 -1.9093  0.6802 -0.7993
43264SOL     OW38569   0.403   9.071   6.154  0.2180  0.5726  0.0690
43264SOL    HW138570   0.314   9.098   6.177  0.7321  1.9236  0.5635
43264SOL    HW238571   0.430   9.012   6.224 -0.1728  0.4079  0.0807
43265SOL     OW38572   8.509  10.348   6.709 -0.3798 -0.3681 -0.4948
43265SOL    HW138573   8.588  10.296   6.723 -0.8697 -0.7724  0.8875
43265SOL    HW238574   8.492  10.340   6.615  0.6084 -1.1630 -0.6236
43266SOL     OW38575   5.700   7.254   4.642  0.4103  0.1033  0.4459
43266SOL    HW138576   5.643   7.205   4.702 -0.1825 -1.2452 -1.1304
43266SOL    HW238577   5.760   7.188   4.607  0.9761  0.9325 -0.1753
43267SOL     OW38578   7.389   7.521   7.480 -0.2453 -0.2242  0.0110
43267SOL    HW138579   7.441   7.468   7.540  0.6429 -0.6654 -1.1115
43267SOL    HW238580   7.375   7.465   7.404 -1.1976  0.3791 -0.2743
43268SOL     OW38581   5.519   8.424   8.039 -0.1384  0.2513  0.5657
43268SOL    HW138582   5.572   8.397   8.114 -1.9998 -0.8230  1.5532
43268SOL    HW238583   5.563   8.384   7.964 -0.3787 -1.9839  1.5251
43269SOL     OW38584   7.075  12.086   1.024 -0.3264 -0.1055 -0.1400
43269SOL    HW138585   7.086  11.993   1.006  1.7197 -0.2207  1.3306
43269SOL    HW238586   7.112  12.131   0.948  2.4928 -0.5682  0.8296
43270SOL     OW38587  11.131   5.229   8.385 -0.1944  0.0107  0.4791
43270SOL    HW138588  11.067   5.252   8.318 -0.5632 -3.6305 -0.6317
43270SOL    HW238589  11.086   5.247   8.468 -2.7527 -2.3458 -0.2637
43271SOL     OW38590   8.670   7.399   0.129 -0.0245 -0.2672 -0.3328
43271SOL    HW138591   8.585   7.392   0.087 -0.4630  0.7501  0.3440
43271SOL    HW238592   8.733   7.379   0.060 -0.7950 -0.6899 -0.9245
43272SOL     OW38593  12.462   2.596   9.836 -0.6193 -0.0807  0.4175
43272SOL    HW138594  12.368   2.602   9.818 -1.4221 -1.4700  3.4312
43272SOL    HW238595  12.469   2.531   9.906  2.6338 -0.0867  0.2607
43273SOL     OW38596   6.641   1.535   0.264 -0.0343  0.2009  0.7213
43273SOL    HW138597   6.598   1.568   0.185 -0.2255  0.0838  0.7769
43273SOL    HW238598   6.634   1.440   0.256  0.8890  0.1502  0.3447
43274SOL     OW38599   3.899   1.016   8.491  0.4362  0.6756  0.2960
43274SOL    HW138600   3.891   1.032   8.397  1.0610 -0.9648 -0.0629
43274SOL    HW238601   3.980   0.964   8.500 -1.2572 -1.9752  1.3675
43275SOL     OW38602   2.392   5.244   1.027  0.0507  0.4407 -0.0216
43275SOL    HW138603   2.346   5.327   1.043 -0.7057 -0.3988  2.8109
43275SOL    HW238604   2.322   5.179   1.022  0.6835 -0.1635 -1.2902
43276SOL     OW38605   5.054   4.199   5.020  0.7012  0.1247 -0.7553
43276SOL    HW138606   5.057   4.115   5.066  2.3212 -0.0743 -1.1422
43276SOL    HW238607   5.075   4.264   5.087  1.3551  0.0083 -0.8376
43277SOL     OW38608  12.035   6.601   4.904 -0.8685  0.1513 -0.0093
43277SOL    HW138609  12.072   6.679   4.864  1.5470 -1.6983 -1.7306
43277SOL    HW238610  12.100   6.574   4.969  0.1616 -2.2059 -1.8455
43278SOL     OW38611  12.353  12.434   3.290  0.7839 -0.7844  0.7631
43278SOL    HW138612  12.335  12.365   3.354 -0.6929 -0.9175  0.2380
43278SOL    HW238613  12.429  12.401   3.241 -0.2684 -2.3486  0.1172
43279SOL     OW38614  10.858   1.377   1.713 -0.4246 -0.1051  0.4085
43279SOL    HW138615  10.880   1.351   1.803 -0.3026 -0.9336  0.1481
43279SOL    HW238616  10.912   1.453   1.696  0.4684 -0.6817  0.6134
43280SOL     OW38617   3.008   0.524   0.393  0.7797  0.4933 -0.0547
43280SOL    HW138618   3.081   0.569   0.437  1.6170  0.1300 -1.0153
43280SOL    HW238619   3.042   0.437   0.374 -0.3966 -0.1413  0.6771
43281SOL     OW38620   2.397   2.342   0.214  0.5778 -0.4057 -0.1583
43281SOL    HW138621   2.408   2.400   0.139 -0.0341 -0.1183 -0.0369
43281SOL    HW238622   2.482   2.299   0.224  1.1566  0.7188 -0.0360
43282SOL     OW38623   2.089   1.620  11.502 -0.1824 -0.0878  0.7945
43282SOL    HW138624   2.160   1.556  11.503  1.1259  1.2989  2.5541
43282SOL    HW238625   2.009   1.567  11.502  0.8346 -1.6934  0.5394
43283SOL     OW38626   6.389   5.389   3.609  0.3703 -0.4432  0.5075
43283SOL    HW138627   6.310   5.351   3.646  0.5605 -0.9435  0.4031
43283SOL    HW238628   6.429   5.318   3.559 -0.0766  0.2957 -0.9765
43284SOL     OW38629   0.770   4.941   3.659  0.4470  0.4093 -0.0449
43284SOL    HW138630   0.735   4.917   3.745 -0.7309 -0.1770 -0.6646
43284SOL    HW238631   0.696   4.978   3.612  1.1516  0.9944 -0.7217
43285SOL     OW38632  11.313  10.230   1.036  0.1973 -0.4313 -0.1705
43285SOL    HW138633  11.361  10.249   1.116  1.3851 -1.1359 -0.6928
43285SOL    HW238634  11.317  10.135   1.027  1.4414 -0.2656 -1.8619
43286SOL     OW38635   9.536   4.220  12.014 -0.6014 -0.3529  0.0986
43286SOL    HW138636   9.470   4.281  12.047 -0.1684 -0.2177  0.7430
43286SOL    HW238637   9.565   4.257  11.931 -1.5529 -0.5789 -0.3442
43287SOL     OW38638   7.260  11.427   5.955  0.0537  0.1045 -0.4903
43287SOL    HW138639   7.257  11.333   5.934 -0.5525 -0.2476  1.0876
43287SOL    HW238640   7.180  11.443   6.005 -0.7160  1.8471 -2.1408
43288SOL     OW38641   4.262   9.500   0.959 -0.2175  0.0847 -0.6830
43288SOL    HW138642   4.308   9.568   1.009 -1.1931 -1.5134  2.7358
43288SOL    HW238643   4.180   9.542   0.933 -0.3965  0.5392  0.5363
43289SOL     OW38644   7.941  10.647   7.495  0.5818  0.5319 -0.6338
43289SOL    HW138645   7.879  10.583   7.531  1.6447 -0.1399  0.0689
43289SOL    HW238646   7.898  10.680   7.416 -0.5520 -0.1039 -0.3088
43290SOL     OW38647   7.600   5.366  10.036  1.1118  0.0823 -0.2032
43290SOL    HW138648   7.656   5.332  10.105  0.6430 -1.5543 -0.5711
43290SOL    HW238649   7.657   5.419   9.981  2.1622 -0.9778 -0.1747
43291SOL     OW38650  10.589  11.629   4.030 -0.3448 -0.3311 -0.3908
43291SOL    HW138651  10.551  11.549   4.067  2.4002 -0.9250  1.4862
43291SOL    HW238652  10.563  11.698   4.091  1.7598 -0.8206  1.1875
43292SOL     OW38653   2.946   6.515   5.133  0.1799 -0.0827  0.1209
43292SOL    HW138654   3.001   6.505   5.211  0.4566  0.2415 -0.0270
43292SOL    HW238655   2.901   6.599   5.147  1.5668  0.8763 -0.8591
43293SOL     OW38656   8.077  12.294  11.658  0.1692 -0.2374 -0.4496
43293SOL    HW138657   8.110  12.383  11.666 -0.2183 -0.0337 -0.9981
43293SOL    HW238658   8.058  12.266  11.747 -3.0602  1.5282 -0.4188
43294SOL     OW38659   6.848   7.957  11.331  0.0588  0.3692 -0.2480
43294SOL    HW138660   6.773   8.016  11.333 -0.2827  0.0791 -2.2534
43294SOL    HW238661   6.852   7.919  11.419 -0.3797  2.5208  0.7659
43295SOL     OW38662   9.351   0.239   5.117  0.8779 -0.2311 -0.4230
43295SOL    HW138663   9.379   0.188   5.041  0.4160 -1.5499  0.2694
43295SOL    HW238664   9.428   0.242   5.173  0.7661 -0.5983 -0.2454
43296SOL     OW38665   1.527  11.170  10.895 -0.1858 -0.0005 -0.0563
43296SOL    HW138666   1.607  11.117  10.896  0.5652  1.0537  1.9417
43296SOL    HW238667   1.456  11.107  10.902  0.6441 -0.8213  1.3886
43297SOL     OW38668   2.963   7.028   0.089 -0.0447  0.5432  0.0993
43297SOL    HW138669   3.024   6.957   0.072  2.1075  2.9389 -3.2909
43297SOL    HW238670   3.015   7.094   0.136 -0.8342  1.5002 -0.3344
43298SOL     OW38671   3.053   1.052   4.887 -0.2431 -0.5339  0.3275
43298SOL    HW138672   3.081   1.142   4.904  0.0909 -0.5490 -0.1295
43298SOL    HW238673   3.132   1.000   4.896 -0.0257 -0.5451 -1.2228
43299SOL     OW38674   2.123   7.013   3.852  0.4697 -0.0340  0.2218
43299SOL    HW138675   2.104   7.065   3.930  0.0469  1.0645 -0.5990
43299SOL    HW238676   2.100   7.069   3.779 -0.6245 -1.5996 -0.7050
43300SOL     OW38677   4.697   4.249   7.920 -0.0195 -0.0763 -0.0391
43300SOL    HW138678   4.786   4.254   7.953 -0.2652 -0.0753  0.6519
43300SOL    HW238679   4.692   4.316   7.851 -0.2082  1.7864  1.6920
43301SOL     OW38680  10.603   6.282   2.297 -0.0792  0.0030  0.0284
43301SOL    HW138681  10.644   6.197   2.283 -0.5637 -0.1889 -0.2351
43301SOL    HW238682  10.546   6.295   2.221  0.4266  0.8239 -0.2281
43302SOL     OW38683   3.435   1.913  11.417 -0.0266 -0.1527  0.1724
43302SOL    HW138684   3.449   1.927  11.510 -3.4134 -0.3420  0.8347
43302SOL    HW238685   3.343   1.886  11.410  0.1321 -0.2673 -3.2111
43303SOL     OW38686   1.728   4.948   9.941 -0.1396  0.0402  0.2282
43303SOL    HW138687   1.822   4.945   9.956 -0.3189 -1.6296  1.3493
43303SOL    HW238688   1.694   5.006  10.009  0.1065  0.9996 -0.4550
43304SOL     OW38689   3.929   0.093   2.245 -0.2968 -0.0038 -0.2897
43304SOL    HW138690   3.894   0.109   2.333  1.5507  2.3603  0.1367
43304SOL    HW238691   3.861   0.127   2.186 -1.6295 -1.7791  0.1651
43305SOL     OW38692  12.483   7.076   7.649  0.5063  0.3907  0.8360
43305SOL    HW138693  12.497   6.984   7.625  0.1939  0.3682  0.7404
43305SOL    HW238694  12.423   7.072   7.723 -0.4557  0.5668  0.0830
43306SOL     OW38695   2.016  11.243   1.750  0.6784  0.2732  0.8318
43306SOL    HW138696   1.929  11.213   1.775  0.7598 -0.1266  0.6377
43306SOL    HW238697   2.024  11.329   1.792 -0.0522  0.5963  0.3316
43307SOL     OW38698  11.253   6.430   2.518  0.0379  0.1092 -0.5392
43307SOL    HW138699  11.347   6.412   2.518 -0.1818 -1.2557  0.7233
43307SOL    HW238700  11.246   6.521   2.549  0.9565  0.4483 -1.2989
43308SOL     OW38701   0.482  12.306   5.871 -0.1278  0.5174  0.3110
43308SOL    HW138702   0.548  12.242   5.847 -0.2660  0.3574  0.3486
43308SOL    HW238703   0.503  12.330   5.962 -0.2002  0.3640  0.3692
43309SOL     OW38704   7.350   1.663  12.516 -0.0667 -0.2587  0.1672
43309SOL    HW138705   7.420   1.647  12.453  0.2993  0.6524  0.3308
43309SOL    HW238706   7.329   1.577  12.551 -1.3174 -1.0316 -2.2701
43310SOL     OW38707   3.489  10.960   3.189 -0.1910  0.1578 -0.8097
43310SOL    HW138708   3.489  11.037   3.246 -0.8801  0.9449 -1.8380
43310SOL    HW238709   3.571  10.967   3.139  1.6027 -1.7585  1.5863
43311SOL     OW38710   2.413   4.714   0.010  0.7994 -0.2010  0.6269
43311SOL    HW138711   2.383   4.728   0.100 -0.6041 -1.4799  0.4081
43311SOL    HW238712   2.353   4.766  -0.043 -1.4574 -3.0207  0.1599
43312SOL     OW38713   3.027   4.268   4.150  0.4200  0.5258 -0.1836
43312SOL    HW138714   2.942   4.234   4.120  0.8097 -0.5726 -0.1116
43312SOL    HW238715   3.024   4.258   4.245  1.4748 -1.7246 -0.3139
43313SOL     OW38716   1.481   6.927  11.266 -0.2358 -0.3559 -0.2303
43313SOL    HW138717   1.395   6.948  11.300 -0.5589  1.3527 -1.9449
43313SOL    HW238718   1.522   6.874  11.335 -2.2210 -0.2981  1.0702
43314SOL     OW38719  10.959   6.125  10.840  0.1255  0.1760 -0.1198
43314SOL    HW138720  10.867   6.126  10.813 -0.1487 -0.1366  0.7859
43314SOL    HW238721  10.974   6.212  10.876 -0.0745 -0.0657  0.5623
43315SOL     OW38722   4.672  11.121   7.266  0.4552  0.3477 -0.5758
43315SOL    HW138723   4.719  11.041   7.241  1.2248  0.1731  1.2766
43315SOL    HW238724   4.636  11.101   7.353 -0.2719  1.6463 -0.5587
43316SOL     OW38725   7.788   5.445  10.973  0.3410  0.1865  0.7160
43316SOL    HW138726   7.849   5.380  10.941  0.5826  1.2386 -1.1131
43316SOL    HW238727   7.747   5.481  10.894 -2.1976 -0.0260  1.8262
43317SOL     OW38728   3.142   5.791   3.767  0.0116  0.1228  0.2866
43317SOL    HW138729   3.121   5.883   3.753  0.3620  0.5840  2.3915
43317SOL    HW238730   3.085   5.765   3.840  0.0857 -1.2694 -0.1193
43318SOL     OW38731   3.546   8.616  11.733 -0.0704 -0.3851 -0.3730
43318SOL    HW138732   3.558   8.521  11.734 -0.2376 -0.4197 -1.2178
43318SOL    HW238733   3.548   8.640  11.641 -0.5073  0.3753 -0.1971
43319SOL     OW38734  10.235   6.933  10.863 -0.1216 -0.0695 -0.3736
43319SOL    HW138735  10.147   6.967  10.874 -0.0865  0.6626 -2.1109
43319SOL    HW238736  10.227   6.867  10.794  0.8824  0.9424 -1.5012
43320SOL     OW38737   1.914  11.955  11.833 -0.5078  0.5666  0.0283
43320SOL    HW138738   1.967  11.984  11.759 -1.1608  1.5993 -0.0589
43320SOL    HW238739   1.978  11.932  11.900  0.0763  2.0362  0.0180
43321SOL     OW38740   1.396  11.906  12.485 -0.1255  0.2461  0.4889
43321SOL    HW138741   1.447  11.955  12.550 -1.0621  0.5759  0.9981
43321SOL    HW238742   1.331  11.859  12.536 -0.5443  0.0904 -0.1707
43322SOL     OW38743   3.158   2.512   8.418  0.4976 -0.1445  0.3564
43322SOL    HW138744   3.086   2.569   8.445  0.5662 -0.5608  1.4551
43322SOL    HW238745   3.200   2.559   8.346 -0.2097  0.6041  0.4172
43323SOL     OW38746  12.350   5.661   9.158  0.2981  0.0539  0.4617
43323SOL    HW138747  12.361   5.645   9.064 -0.0255 -0.6738  0.5437
43323SOL    HW238748  12.415   5.605   9.200  0.1109  0.0052  0.6904
43324SOL     OW38749   0.876   5.250   9.251 -0.3772 -0.3187  0.0957
43324SOL    HW138750   0.827   5.322   9.292  0.9387 -0.5337  2.2312
43324SOL    HW238751   0.817   5.175   9.256  0.0836 -0.6072  2.7461
43325SOL     OW38752   5.716   4.548   0.599  0.4724 -0.1536 -0.1092
43325SOL    HW138753   5.768   4.623   0.571 -2.1981  1.7204 -0.4028
43325SOL    HW238754   5.749   4.527   0.686  0.1012  2.5938  0.7843
43326SOL     OW38755  10.800   9.763   3.746  0.8210 -0.1210  0.2609
43326SOL    HW138756  10.885   9.718   3.749  0.2537 -1.1878  0.8331
43326SOL    HW238757  10.754   9.732   3.824  0.3452  1.3693  0.5923
43327SOL     OW38758   2.936  12.491  11.984 -0.4740  0.1937  0.5054
43327SOL    HW138759   2.928  12.436  12.062  0.3081  0.3746  0.7253
43327SOL    HW238760   3.003  12.555  12.007 -1.1592  1.0517  0.1435
43328SOL     OW38761   1.638   7.891   0.902  0.4397  0.3748 -0.0685
43328SOL    HW138762   1.677   7.848   0.977 -0.4844 -0.0927  0.1589
43328SOL    HW238763   1.703   7.955   0.874  0.6427  0.8361  1.3704
43329SOL     OW38764   6.863   4.124   5.815  0.3619  0.1830 -0.1798
43329SOL    HW138765   6.956   4.147   5.815 -0.1224  2.5249 -1.8830
43329SOL    HW238766   6.858   4.040   5.768  1.5993  0.1166 -0.2044
43330SOL     OW38767   4.580   0.085   8.585  0.0604  0.2578 -0.2110
43330SOL    HW138768   4.593   0.161   8.641  1.4691  0.8724 -1.3218
43330SOL    HW238769   4.659   0.033   8.596 -1.2882 -1.6499  1.3158
43331SOL     OW38770  12.243  11.028  11.231 -0.4645  0.7615 -1.0512
43331SOL    HW138771  12.288  10.957  11.185  0.0577  0.8485 -0.6859
43331SOL    HW238772  12.203  10.987  11.307 -2.7187  0.3089 -2.4063
43332SOL     OW38773  12.493   1.202   8.105  0.3708 -0.0534  0.2489
43332SOL    HW138774  12.557   1.222   8.173 -0.4924  2.9691  0.2821
43332SOL    HW238775  12.408   1.210   8.147 -0.1491 -2.3209 -0.2231
43333SOL     OW38776   6.065   4.914  12.078 -0.1824  0.2924 -0.4370
43333SOL    HW138777   6.122   4.860  12.133 -1.3968  0.9152  1.5498
43333SOL    HW238778   6.070   4.874  11.991  2.4224 -0.2734 -0.1048
43334SOL     OW38779  12.279   8.310   7.965 -0.6373  0.0272  0.6676
43334SOL    HW138780  12.369   8.325   7.993 -1.0596  1.8662  1.1953
43334SOL    HW238781  12.241   8.258   8.036 -0.0877 -0.4574  0.6120
43335SOL     OW38782   1.602  11.198   2.199 -0.3175  0.1289  0.1217
43335SOL    HW138783   1.633  11.187   2.288 -0.0220 -1.2282 -0.1247
43335SOL    HW238784   1.681  11.210   2.147 -0.2855 -1.5165 -0.2614
43336SOL     OW38785   0.684  11.085  12.355  0.2009  0.0444 -0.5786
43336SOL    HW138786   0.705  10.996  12.385  1.7557  0.5600 -0.0278
43336SOL    HW238787   0.632  11.073  12.276 -0.5379 -1.3573  0.0966
43337SOL     OW38788   6.389   1.122   1.423  0.5496  0.2835 -0.0868
43337SOL    HW138789   6.447   1.101   1.350  0.3246 -0.6114 -0.0090
43337SOL    HW238790   6.301   1.117   1.387  0.4823  1.0326 -0.0477
43338SOL     OW38791   6.398   4.432   5.269 -0.0995  0.7844 -0.0811
43338SOL    HW138792   6.366   4.522   5.274 -0.2621  0.7249 -0.0573
43338SOL    HW238793   6.492   4.441   5.253 -0.0019  0.9650  0.5562
43339SOL     OW38794   1.546   9.249   5.452  0.1371 -0.5471 -0.1213
43339SOL    HW138795   1.516   9.340   5.456  0.2203 -0.5485  1.6223
43339SOL    HW238796   1.578   9.238   5.363  0.5567  1.2865 -0.2468
43340SOL     OW38797   2.287   5.812   2.825  0.2739 -0.1303 -0.2949
43340SOL    HW138798   2.283   5.723   2.789 -0.8509  0.4007 -1.5428
43340SOL    HW238799   2.333   5.863   2.758  0.4851  0.3457  0.2020
43341SOL     OW38800  10.779  10.406   5.219 -0.2460  0.0947  0.4569
43341SOL    HW138801  10.732  10.457   5.286 -0.8492  1.4748 -0.9557
43341SOL    HW238802  10.855  10.460   5.197  0.2290 -0.5946  0.3726
43342SOL     OW38803  11.076   1.676   7.212 -0.1356  0.2680 -0.3010
43342SOL    HW138804  11.138   1.602   7.218  1.7705  1.8842  1.5428
43342SOL    HW238805  11.128   1.752   7.237 -3.2995  1.5348  3.3459
43343SOL     OW38806   3.454   9.415   5.306 -0.4221 -0.1257  0.4804
43343SOL    HW138807   3.434   9.508   5.305  0.4114  0.0604 -0.9187
43343SOL    HW238808   3.491   9.399   5.393 -2.0504  0.4823  1.3363
43344SOL     OW38809  11.794   1.440   9.595 -0.3025  0.2191 -0.3205
43344SOL    HW138810  11.717   1.387   9.617 -0.6787  1.0675  0.4484
43344SOL    HW238811  11.761   1.507   9.535 -0.3322  1.0448  0.5985
43345SOL     OW38812   8.965   6.816  11.114 -0.0809  0.0642 -0.5347
43345SOL    HW138813   8.933   6.864  11.037  0.2319  1.1732 -0.0051
43345SOL    HW238814   9.006   6.884  11.168 -0.9429 -0.5649  0.9523
43346SOL     OW38815  11.675   6.817  11.941  0.1141 -0.1848  0.1106
43346SOL    HW138816  11.625   6.819  11.860 -0.8926  0.2563  0.7257
43346SOL    HW238817  11.761   6.852  11.917  0.1813 -1.0147 -0.9733
43347SOL     OW38818   3.620   5.393   6.230  0.4855 -0.1785  0.0968
43347SOL    HW138819   3.597   5.301   6.218 -2.6926  0.5191  0.0046
43347SOL    HW238820   3.623   5.429   6.141  2.5928 -0.3000  0.0687
43348SOL     OW38821   9.053   5.292  12.603  0.2997  0.2007  0.5346
43348SOL    HW138822   8.993   5.366  12.593  0.2557  0.2019  0.8124
43348SOL    HW238823   9.025   5.247  12.683 -0.2122 -0.6163 -0.0855
43349SOL     OW38824   2.091   0.164   5.518 -0.4047 -0.7062  0.2060
43349SOL    HW138825   2.172   0.161   5.569 -0.1857 -1.0506 -0.1566
43349SOL    HW238826   2.056   0.075   5.524 -0.5383 -0.6672  0.0117
43350SOL     OW38827   7.940   4.608  11.830 -0.0169  0.4909  0.0292
43350SOL    HW138828   7.995   4.531  11.842 -0.3808  0.1745 -0.3207
43350SOL    HW238829   7.993   4.668  11.778  0.1736  0.3788  0.0915
43351SOL     OW38830   2.814   7.302   3.790  0.1745 -0.4299  0.2470
43351SOL    HW138831   2.865   7.318   3.711  0.0356 -0.3102  0.1809
43351SOL    HW238832   2.840   7.373   3.849 -1.1823  0.6673 -0.4069
43352SOL     OW38833   4.521  11.540   1.655 -0.1726 -0.0295  0.0061
43352SOL    HW138834   4.599  11.498   1.620  0.1439 -0.6920  1.4122
43352SOL    HW238835   4.554  11.591   1.730 -1.0386 -0.0726  0.4270
43353SOL     OW38836   3.024   9.169   2.657 -0.1662  0.4416 -0.2527
43353SOL    HW138837   3.008   9.264   2.661 -1.9600  0.1835 -0.3910
43353SOL    HW238838   3.069   9.157   2.574  0.7363  1.2516  0.1017
43354SOL     OW38839   8.559   5.554  11.295  0.3947 -0.1994 -0.3386
43354SOL    HW138840   8.520   5.467  11.305 -0.4605  0.2765  0.5288
43354SOL    HW238841   8.539   5.578  11.204  1.6112 -1.3489 -0.9608
43355SOL     OW38842   5.938   4.453   9.676  0.1218  0.1517  0.5897
43355SOL    HW138843   6.033   4.459   9.679  0.1629  0.8065 -0.8710
43355SOL    HW238844   5.909   4.542   9.653 -0.6520 -0.5704 -1.5380
43356SOL     OW38845  11.765   6.844   7.098  0.6247 -0.1376 -0.1816
43356SOL    HW138846  11.737   6.862   7.188  1.3786  1.1315 -0.1806
43356SOL    HW238847  11.686   6.861   7.045  0.1978 -0.8313  0.2131
43357SOL     OW38848   0.275   3.284   6.194  0.3302 -0.4340 -0.1938
43357SOL    HW138849   0.221   3.225   6.247  0.7305 -0.4494  0.2073
43357SOL    HW238850   0.222   3.363   6.185 -0.0926 -0.7470 -0.4941
43358SOL     OW38851   7.731   3.796   2.690  0.1696 -0.3330 -0.2720
43358SOL    HW138852   7.764   3.762   2.773 -0.2763  0.1436  0.1056
43358SOL    HW238853   7.674   3.727   2.657  0.3164 -0.5085 -0.1561
43359SOL     OW38854   7.185   3.679   2.698 -0.1095  0.0479  0.8341
43359SOL    HW138855   7.126   3.606   2.714  0.3731  0.0773  2.9811
43359SOL    HW238856   7.127   3.755   2.688 -0.5132 -0.2704  0.7568
43360SOL     OW38857   5.859   4.141   1.065 -0.3033 -0.1606 -0.2352
43360SOL    HW138858   5.935   4.158   1.121 -1.6936  1.4682  1.2789
43360SOL    HW238859   5.786   4.132   1.126 -1.3036 -2.1927 -1.6155
43361SOL     OW38860  10.159  11.301  11.039  0.9897  0.5987  0.1012
43361SOL    HW138861  10.193  11.270  11.123  0.5211  0.3514  0.2065
43361SOL    HW238862  10.139  11.220  10.991 -2.1213  0.6119  1.1277
43362SOL     OW38863   0.868   2.832   1.599 -0.5933  0.0497  0.0905
43362SOL    HW138864   0.955   2.817   1.636 -0.2478 -0.9821 -1.0688
43362SOL    HW238865   0.881   2.827   1.504 -1.6812  1.2896 -0.1593
43363SOL     OW38866   2.265   2.855   1.165  0.3921 -0.2495 -0.3296
43363SOL    HW138867   2.185   2.867   1.113  0.0259 -0.0411  0.2644
43363SOL    HW238868   2.256   2.919   1.236  1.2015 -0.0650 -0.3852
43364SOL     OW38869  10.395   3.163   2.565 -0.4134  0.0562 -0.7480
43364SOL    HW138870  10.346   3.181   2.645 -0.8419  2.1587 -1.3970
43364SOL    HW238871  10.389   3.068   2.553 -1.1932 -0.1696  1.1522
43365SOL     OW38872   8.846  11.623   3.898 -0.3807 -0.1626 -0.0587
43365SOL    HW138873   8.804  11.698   3.939  0.4502  1.7708 -2.4610
43365SOL    HW238874   8.791  11.603   3.822 -0.1324 -1.4669  0.0819
43366SOL     OW38875   0.976   8.518   5.233  0.1107  0.5616 -0.3881
43366SOL    HW138876   1.010   8.540   5.146  1.2281  2.4813  0.4799
43366SOL    HW238877   1.000   8.426   5.245  0.6950  0.5064 -1.7620
43367SOL     OW38878   6.785   1.236   4.996 -0.1501 -0.0472  0.4102
43367SOL    HW138879   6.781   1.206   5.086 -1.0413 -0.3658  0.2770
43367SOL    HW238880   6.789   1.156   4.944 -0.5493  0.1055  0.1367
43368SOL     OW38881   5.413   3.350   8.651 -0.6870  0.3204  0.1722
43368SOL    HW138882   5.489   3.359   8.593  0.3119 -0.1351  1.3641
43368SOL    HW238883   5.450   3.350   8.739 -2.0540 -0.2177  0.7719
43369SOL     OW38884   1.021   1.307   1.743 -0.5139  0.0696  0.9177
43369SOL    HW138885   0.951   1.305   1.807 -2.6542  0.9819 -1.2503
43369SOL    HW238886   1.098   1.337   1.791 -1.8228  0.0191  3.1483
43370SOL     OW38887   7.562   1.494   1.637  0.2141 -0.0581  0.3622
43370SOL    HW138888   7.637   1.549   1.660  0.2952 -0.4075  0.9714
43370SOL    HW238889   7.491   1.556   1.621  1.0792  0.4064 -2.1326
43371SOL     OW38890   9.657   8.524   0.543  0.1049  0.2046  0.2660
43371SOL    HW138891   9.579   8.540   0.490  1.1077 -0.5795 -1.5210
43371SOL    HW238892   9.696   8.611   0.555  0.1771  0.3279 -0.7926
43372SOL     OW38893   1.600   9.755   1.070 -0.3533 -0.0908 -0.3690
43372SOL    HW138894   1.578   9.685   1.008  0.3771  0.2945 -1.0893
43372SOL    HW238895   1.586   9.717   1.156  0.7728 -1.3896 -0.7253
43373SOL     OW38896   7.431   3.055  11.058  0.3395  0.1679 -0.2057
43373SOL    HW138897   7.476   3.101  11.129  0.5431 -1.0450  0.4820
43373SOL    HW238898   7.358   3.010  11.101  0.2012 -0.2355 -0.8467
43374SOL     OW38899   1.187   5.505   1.888  0.3711  0.5002  0.4146
43374SOL    HW138900   1.169   5.557   1.810  0.3837  1.0971  0.7981
43374SOL    HW238901   1.204   5.570   1.956 -2.8539  0.1329  1.7486
43375SOL     OW38902  11.241   0.451   0.066 -0.7282  0.3691 -0.2511
43375SOL    HW138903  11.146   0.462   0.063 -0.7826  0.2773  0.7703
43375SOL    HW238904  11.273   0.526   0.116 -0.8027 -2.0813  3.9643
43376SOL     OW38905   4.554   6.748   1.734 -0.0916 -0.7585  0.4312
43376SOL    HW138906   4.503   6.690   1.791  0.4038 -1.0938  0.5395
43376SOL    HW238907   4.518   6.734   1.647 -0.8133 -0.2901  0.6416
43377SOL     OW38908  10.117  10.917   1.895  0.3146 -0.4045 -0.0799
43377SOL    HW138909  10.085  10.998   1.856 -0.3677 -1.7822 -2.6209
43377SOL    HW238910  10.044  10.886   1.948  1.0154  1.1662  1.9342
43378SOL     OW38911   9.652   1.415   1.921 -0.9365  0.0790 -0.8692
43378SOL    HW138912   9.624   1.433   2.012 -0.3168 -0.1100 -0.6404
43378SOL    HW238913   9.638   1.321   1.910  0.2817 -0.1623 -0.5078
43379SOL     OW38914   1.207   5.805   0.593 -0.0801 -0.8864  0.2794
43379SOL    HW138915   1.126   5.753   0.587 -0.0453 -1.4137  3.0633
43379SOL    HW238916   1.187   5.886   0.546 -2.3996 -0.8530  1.1809
43380SOL     OW38917   9.054   6.401   1.862 -0.0252  0.6011  0.1551
43380SOL    HW138918   9.049   6.413   1.767 -0.9547  1.6463  0.3162
43380SOL    HW238919   9.012   6.316   1.877 -0.9420  0.9664 -0.2719
43381SOL     OW38920   0.167   4.313   3.913  0.5973  0.0430 -0.2974
43381SOL    HW138921   0.105   4.358   3.856  1.5223  0.2175 -1.1878
43381SOL    HW238922   0.159   4.221   3.890 -1.1626 -0.2977  1.3967
43382SOL     OW38923   3.220   3.930  12.070 -0.1584 -0.0624  0.0585
43382SOL    HW138924   3.126   3.938  12.083 -0.2563 -1.2341  0.2144
43382SOL    HW238925   3.240   3.839  12.096  0.9636  0.0847 -0.2315
43383SOL     OW38926   7.614  10.696   4.354 -0.1814 -0.4311  0.2106
43383SOL    HW138927   7.549  10.662   4.292  0.2560  0.2866 -0.6676
43383SOL    HW238928   7.584  10.785   4.373 -2.5775 -1.8643  4.2381
43384SOL     OW38929   7.894   6.113   4.998  0.2003 -0.7111  0.4479
43384SOL    HW138930   7.967   6.064   4.961 -0.6619 -2.1944  0.6502
43384SOL    HW238931   7.870   6.066   5.077 -0.6480  0.0407  0.6585
43385SOL     OW38932  12.049   3.706   5.524  0.3986 -0.7673 -0.2303
43385SOL    HW138933  12.143   3.706   5.504  0.5494  0.3242  0.3692
43385SOL    HW238934  12.045   3.717   5.619 -0.3255  1.4377 -0.4621
43386SOL     OW38935   5.535   8.401   8.901  0.6830  0.4242  0.1424
43386SOL    HW138936   5.561   8.492   8.910 -0.1699  0.6545  0.2779
43386SOL    HW238937   5.442   8.399   8.921  0.4919 -0.3333 -0.7457
43387SOL     OW38938   9.451   5.711  10.630 -0.5160  0.1051  0.3835
43387SOL    HW138939   9.496   5.785  10.591  0.6379  0.6362  2.5864
43387SOL    HW238940   9.398   5.749  10.700 -0.7015 -1.0401  0.8904
43388SOL     OW38941   3.207  10.767   6.119 -0.6074  0.6969 -0.1522
43388SOL    HW138942   3.213  10.686   6.170 -0.1768  1.0071  0.3054
43388SOL    HW238943   3.193  10.738   6.029 -0.4896  0.1129  0.0131
43389SOL     OW38944   0.947  12.096   7.864  0.4958 -0.3648 -0.3377
43389SOL    HW138945   0.925  12.189   7.861 -1.5601 -0.7582  0.4164
43389SOL    HW238946   1.042  12.094   7.870  0.5793  1.7007 -0.0866
43390SOL     OW38947   2.857   1.786   8.960 -0.1331  0.4343 -0.2998
43390SOL    HW138948   2.832   1.725   9.028  0.4272 -1.0473 -1.3731
43390SOL    HW238949   2.790   1.855   8.963 -1.2364 -0.6446  0.4179
43391SOL     OW38950  12.334   2.409   9.100 -0.0800 -0.1374  0.2801
43391SOL    HW138951  12.246   2.393   9.134  0.6987 -1.5471  1.7927
43391SOL    HW238952  12.340   2.357   9.020 -0.8365  0.5164 -0.2081
43392SOL     OW38953   6.796  10.648   6.514  0.1482  0.0435 -0.1411
43392SOL    HW138954   6.777  10.724   6.459  1.3485 -0.2116 -0.9510
43392SOL    HW238955   6.822  10.580   6.453  0.3561 -0.6231  0.6661
43393SOL     OW38956   2.219   2.438   4.837 -0.6549  0.3553 -0.3045
43393SOL    HW138957   2.155   2.388   4.785 -2.2058 -0.1600  1.9488
43393SOL    HW238958   2.166   2.484   4.902  1.2377  0.1095  1.4997
43394SOL     OW38959   9.075   2.007  12.236  0.2249 -0.3274  0.3175
43394SOL    HW138960   9.163   2.009  12.274  0.6498  2.3833 -0.5952
43394SOL    HW238961   9.068   1.920  12.195  2.1657 -0.8689  1.0515
43395SOL     OW38962   4.049   8.996   0.167 -0.6934  0.2454  0.4794
43395SOL    HW138963   4.063   9.059   0.237 -0.5344  1.4308 -0.5778
43395SOL    HW238964   4.077   8.912   0.204 -0.3148  0.8921  1.7169
43396SOL     OW38965   0.954   1.774   9.584  0.3124 -0.1483  0.6487
43396SOL    HW138966   0.989   1.769   9.673 -1.9595  0.7883  1.6698
43396SOL    HW238967   0.988   1.857   9.549 -0.7048  0.6908  1.5798
43397SOL     OW38968   6.105   2.033   6.427  0.0235  0.1969 -0.6152
43397SOL    HW138969   6.166   2.016   6.499 -1.9954  1.0497  1.4220
43397SOL    HW238970   6.054   1.952   6.419  0.1768  0.1395 -1.0115
43398SOL     OW38971   4.207   1.357   9.267  0.2897  0.2507  0.5035
43398SOL    HW138972   4.165   1.353   9.353  0.1946 -1.7888  0.3909
43398SOL    HW238973   4.260   1.278   9.262 -0.0100  0.1248 -1.4633
43399SOL     OW38974   7.245   7.450   5.230 -0.2300 -0.5182 -0.1166
43399SOL    HW138975   7.261   7.523   5.171  2.6674 -0.4922  0.5576
43399SOL    HW238976   7.287   7.375   5.188  0.0359 -0.9728  0.9213
43400SOL     OW38977   2.669   4.034   2.588 -0.5473 -0.2159 -0.0119
43400SOL    HW138978   2.655   3.953   2.638  0.0565 -0.8584 -0.8517
43400SOL    HW238979   2.756   4.024   2.551 -0.9944  0.2120 -1.2153
43401SOL     OW38980   7.534   4.308  10.006 -0.1198 -0.1869 -0.2198
43401SOL    HW138981   7.481   4.377  10.046 -0.8320 -0.3907 -0.7809
43401SOL    HW238982   7.532   4.328   9.912  0.3552 -0.5035 -0.2987
43402SOL     OW38983   4.180   8.217   1.252  0.2411  0.1623 -0.3291
43402SOL    HW138984   4.092   8.231   1.215  0.5247 -0.3137 -1.2175
43402SOL    HW238985   4.232   8.185   1.179  0.8097 -0.9088  0.5116
43403SOL     OW38986  10.288  10.473   4.189  0.1319  0.2338  0.4773
43403SOL    HW138987  10.273  10.528   4.266  2.3062  0.1382  1.0496
43403SOL    HW238988  10.344  10.402   4.221 -0.5608 -0.9229 -0.7878
43404SOL     OW38989   0.080   3.968   0.961  0.0200 -0.7504  0.0928
43404SOL    HW138990   0.155   3.913   0.984 -0.3467 -1.2498  0.0856
43404SOL    HW238991   0.115   4.057   0.966  0.5420 -0.9627  0.3706
43405SOL     OW38992   7.859   3.727   4.790 -0.2194 -0.5512  0.7132
43405SOL    HW138993   7.809   3.802   4.758  2.2902  1.5037  1.3545
43405SOL    HW238994   7.888   3.682   4.711 -1.1210 -0.4513  0.3096
43406SOL     OW38995   8.013  10.077   1.240 -0.3679 -0.4494  0.5209
43406SOL    HW138996   7.934  10.113   1.281  0.2660 -0.2933  1.6289
43406SOL    HW238997   7.979  10.026   1.166 -1.4569  0.2113  0.5366
43407SOL     OW38998  12.202   4.388   5.136  0.1391  0.1872 -0.4161
43407SOL    HW138999  12.261   4.339   5.078  0.7919  0.1626  0.2461
43407SOL    HW239000  12.193   4.332   5.213  1.5855  1.4502  0.7295
43408SOL     OW39001   3.158   1.217   4.598  0.0582 -0.0749  0.1328
43408SOL    HW139002   3.154   1.298   4.547  1.1841 -0.7809 -1.1167
43408SOL    HW239003   3.191   1.244   4.684  1.4862  0.6493 -0.6175
43409SOL     OW39004   6.497  11.462   4.607 -0.0810 -1.1828  0.0236
43409SOL    HW139005   6.523  11.401   4.537  0.2676 -1.6846  0.5732
43409SOL    HW239006   6.443  11.409   4.666  1.6356 -1.4741  1.4291
43410SOL     OW39007   8.954  10.675   0.089 -0.7538 -0.0343  0.1684
43410SOL    HW139008   9.039  10.680   0.045 -1.2517 -1.1554 -0.9990
43410SOL    HW239009   8.972  10.630   0.171 -0.2583 -0.5805 -0.2287
43411SOL     OW39010   2.861   6.721  10.839  0.2181 -0.0933 -0.2980
43411SOL    HW139011   2.928   6.756  10.898  0.5611 -1.8955  0.4207
43411SOL    HW239012   2.874   6.770  10.758  0.2275  1.9152  0.8297
43412SOL     OW39013  11.574   9.944  10.399  0.5853 -0.5235 -0.1392
43412SOL    HW139014  11.483   9.963  10.375  1.1587  2.2206 -0.3711
43412SOL    HW239015  11.618   9.926  10.316  0.3581 -1.5011 -0.0592
43413SOL     OW39016   2.241   4.545   8.538 -0.0787 -0.2635 -0.0095
43413SOL    HW139017   2.200   4.490   8.470 -1.2059 -0.1565  0.5653
43413SOL    HW239018   2.206   4.633   8.522 -2.3704 -0.6552  2.1739
43414SOL     OW39019   2.643   6.036   7.716  0.0741 -0.2386 -0.0739
43414SOL    HW139020   2.692   6.081   7.647  1.9442  1.4137  2.1431
43414SOL    HW239021   2.604   6.107   7.768 -0.6744 -1.3806  0.9936
43415SOL     OW39022   0.406  11.593   5.257  0.0654 -0.0820 -0.3832
43415SOL    HW139023   0.454  11.675   5.250 -0.5008  0.4143  1.2393
43415SOL    HW239024   0.314  11.618   5.258 -0.1021 -0.6422  0.7649
43416SOL     OW39025  12.228   6.336   3.181 -0.0027  0.0661  0.1209
43416SOL    HW139026  12.250   6.257   3.131 -1.1006 -0.8143  0.9619
43416SOL    HW239027  12.274   6.407   3.137 -0.0678 -0.8469 -1.4674
43417SOL     OW39028   6.003   5.394   6.794 -0.3162  0.2526  0.1194
43417SOL    HW139029   6.062   5.318   6.795 -0.1713  0.3665  1.6970
43417SOL    HW239030   5.962   5.391   6.707  1.4989 -0.2138 -0.7688
43418SOL     OW39031   9.153   1.936   7.140 -0.0874 -0.3193 -0.7439
43418SOL    HW139032   9.126   1.857   7.187  1.3072 -0.2541  0.2522
43418SOL    HW239033   9.100   2.006   7.177  3.5819  0.5006  3.9040
43419SOL     OW39034   0.605   5.132  11.691 -0.3519 -0.0037  0.0248
43419SOL    HW139035   0.624   5.039  11.695  1.2278  0.1845 -1.8291
43419SOL    HW239036   0.559   5.144  11.608 -0.3056  0.8963  0.1184
43420SOL     OW39037   0.604  12.409  11.537 -0.2894 -0.3973 -0.0778
43420SOL    HW139038   0.661  12.381  11.465 -1.2635 -2.2303 -0.2106
43420SOL    HW239039   0.553  12.331  11.559 -0.9439  0.4702  1.7489
43421SOL     OW39040   0.167   3.791  10.431  0.1234 -0.1037  0.0842
43421SOL    HW139041   0.204   3.777  10.518  0.6028 -1.9675 -0.3811
43421SOL    HW239042   0.242   3.786  10.372 -0.4429 -0.8863 -0.6029
43422SOL     OW39043  11.044  11.996   8.176 -0.2896 -0.8498 -0.2697
43422SOL    HW139044  11.014  12.014   8.266  0.4838 -0.6541 -0.0439
43422SOL    HW239045  10.997  12.059   8.122  0.1142 -0.1747  0.1475
43423SOL     OW39046   6.662  11.106   4.781 -0.0078  0.4823  0.3642
43423SOL    HW139047   6.707  11.042   4.726  1.2917  1.4851  0.2250
43423SOL    HW239048   6.574  11.111   4.745  0.6208  0.6354 -1.2246
43424SOL     OW39049   4.877   1.537   9.122 -0.0178 -0.4461 -0.0124
43424SOL    HW139050   4.945   1.602   9.139 -0.1390 -0.0548 -0.9776
43424SOL    HW239051   4.802   1.567   9.172  0.3195 -0.5398  0.5579
43425SOL     OW39052   7.432   1.364   2.423 -0.4748  0.4791  0.4393
43425SOL    HW139053   7.454   1.362   2.330  1.9071 -0.2053  0.9598
43425SOL    HW239054   7.450   1.276   2.454  0.4708  1.1347  1.8788
43426SOL     OW39055   8.937  11.236   1.954  0.2113 -0.6467  0.7625
43426SOL    HW139056   8.976  11.323   1.958  0.8052 -0.8712  0.1833
43426SOL    HW239057   8.896  11.223   2.040 -1.9511  1.1276  0.0544
43427SOL     OW39058  11.637  10.909   0.477  0.4028 -0.8155  0.8371
43427SOL    HW139059  11.650  10.839   0.541  1.0208 -0.3536  1.2298
43427SOL    HW239060  11.597  10.980   0.527 -0.3557 -0.9257  0.4077
43428SOL     OW39061  11.463   4.168   0.178  0.1630  0.4188  0.1366
43428SOL    HW139062  11.551   4.131   0.188  1.6410  3.2917 -0.9777
43428SOL    HW239063  11.450   4.172   0.083 -1.1349  0.1671  0.2932
43429SOL     OW39064   3.688   5.347   9.760  0.7707  0.4163 -0.3157
43429SOL    HW139065   3.769   5.393   9.742  0.3066  1.8040  0.9704
43429SOL    HW239066   3.622   5.416   9.772  0.3904 -0.3387  3.3403
43430SOL     OW39067   1.894  10.897   7.174  0.0231  0.3154  0.2181
43430SOL    HW139068   1.885  10.887   7.268  0.5315  1.9087  0.4593
43430SOL    HW239069   1.986  10.878   7.156  0.3174  1.5616  0.2952
43431SOL     OW39070   1.186   7.741   1.341  0.3960 -0.2404  0.2628
43431SOL    HW139071   1.105   7.725   1.292  0.0202  0.5547  0.5893
43431SOL    HW239072   1.247   7.776   1.276 -0.5933  2.3193  0.5609
43432SOL     OW39073   4.202  12.576   7.741  0.0210 -0.4262  0.1655
43432SOL    HW139074   4.247  12.516   7.800  0.5933 -1.0966 -0.9301
43432SOL    HW239075   4.118  12.594   7.785  1.1866  0.6364  2.0960
43433SOL     OW39076   8.735   9.058   3.030  0.0842 -0.0291 -0.5517
43433SOL    HW139077   8.645   9.092   3.033  0.5332  1.5855 -2.5563
43433SOL    HW239078   8.725   8.967   3.002 -0.9176  0.3674 -1.5644
43434SOL     OW39079   3.156   6.964   9.380 -0.1610 -0.0902  0.7400
43434SOL    HW139080   3.181   7.051   9.411  0.1903  0.4669 -1.0196
43434SOL    HW239081   3.071   6.977   9.337  1.2743  0.1182 -2.3314
43435SOL     OW39082   9.838   8.326   0.482 -0.4624  0.3375 -0.2575
43435SOL    HW139083   9.783   8.401   0.507  2.9574  3.0284 -0.1638
43435SOL    HW239084   9.820   8.313   0.389 -0.5120  1.8611 -0.4849
43436SOL     OW39085  12.510   0.723   2.999 -0.1861  0.1529 -0.5375
43436SOL    HW139086  12.442   0.729   2.932 -0.8790  0.5287  0.1875
43436SOL    HW239087  12.562   0.802   2.987 -0.2537  0.1751 -0.6895
43437SOL     OW39088  10.142  11.213   9.865  0.3262  0.3809  0.6781
43437SOL    HW139089  10.128  11.152   9.938  2.2416 -0.6529  0.2306
43437SOL    HW239090  10.179  11.291   9.907  1.8489 -0.3754  0.8295
43438SOL     OW39091   7.533   9.210  11.643  0.8573  0.4960 -0.1652
43438SOL    HW139092   7.474   9.192  11.715  0.8495 -1.3771 -0.5942
43438SOL    HW239093   7.608   9.152  11.658  1.3594  0.8844 -1.0734
43439SOL     OW39094  12.380   1.853   7.532 -0.1755  0.3391  0.7402
43439SOL    HW139095  12.386   1.767   7.492  2.4084  0.5145  0.5677
43439SOL    HW239096  12.421   1.912   7.469 -0.3716  1.4004  1.5705
43440SOL     OW39097   7.999   5.310   8.469 -0.1572 -0.2609  0.0144
43440SOL    HW139098   8.010   5.376   8.401  0.4403 -1.2178 -0.8428
43440SOL    HW239099   7.965   5.234   8.424  0.0423 -0.8455  0.8257
43441SOL     OW39100   3.773   8.174  11.504 -0.2160  0.2859  0.1822
43441SOL    HW139101   3.790   8.181  11.410  0.4646  1.4105  0.3739
43441SOL    HW239102   3.778   8.264  11.536  1.6268 -0.2702  1.6289
43442SOL     OW39103   3.137   5.079   8.431  0.1780 -0.1081 -0.1656
43442SOL    HW139104   3.064   5.119   8.383 -0.0810  0.1467  0.4397
43442SOL    HW239105   3.208   5.143   8.425 -0.1261  0.2939  0.5095
43443SOL     OW39106   9.723   0.547   8.038  0.0890  0.0841  0.0945
43443SOL    HW139107   9.747   0.492   8.113 -2.0502 -0.0901  0.7059
43443SOL    HW239108   9.680   0.622   8.077 -0.7452  0.1644 -0.9517
43444SOL     OW39109  11.697  12.150   1.712  0.0062  0.1322 -0.2967
43444SOL    HW139110  11.705  12.058   1.739  0.7930 -0.0745 -1.1768
43444SOL    HW239111  11.604  12.160   1.690  0.3589 -1.3179 -2.9759
43445SOL     OW39112  10.214   9.672   4.481 -0.0776 -0.0340 -0.2525
43445SOL    HW139113  10.145   9.733   4.509  0.6876  0.4212  0.6812
43445SOL    HW239114  10.177   9.628   4.404 -1.5106  0.0211  0.3782
43446SOL     OW39115   0.551   4.569   7.548  0.4642 -0.5290 -0.2646
43446SOL    HW139116   0.568   4.564   7.454  0.7054 -0.9385 -0.2008
43446SOL    HW239117   0.636   4.592   7.587  0.4998 -0.9446 -0.0948
43447SOL     OW39118   6.271   9.132   3.099 -0.2997  0.0817 -0.1728
43447SOL    HW139119   6.228   9.072   3.039 -0.5926  1.1728 -1.0875
43447SOL    HW239120   6.314   9.196   3.043 -1.5661  1.8367  0.7537
43448SOL     OW39121  12.532   2.687   3.486  0.0130 -0.1537  0.0364
43448SOL    HW139122  12.563   2.775   3.468  0.8814 -0.5508 -0.5013
43448SOL    HW239123  12.475   2.666   3.412  1.3335 -0.7385 -0.8438
43449SOL     OW39124   9.167   6.647   9.376  0.5942  0.0793  0.1904
43449SOL    HW139125   9.108   6.673   9.446  0.5178  0.4128  0.0067
43449SOL    HW239126   9.121   6.671   9.295  0.1570 -1.3962 -0.0197
43450SOL     OW39127   2.953   9.749   8.644  0.1270 -0.5736  0.0245
43450SOL    HW139128   2.878   9.762   8.702 -0.4095  0.6096 -0.8855
43450SOL    HW239129   3.030   9.756   8.701 -0.2467  3.0315  0.3154
43451SOL     OW39130   1.114   8.443   1.363 -0.0469 -0.1132 -0.2423
43451SOL    HW139131   1.076   8.521   1.323 -0.6027 -1.0512 -1.6031
43451SOL    HW239132   1.091   8.372   1.304 -0.6532 -1.5264  1.5954
43452SOL     OW39133   2.818   8.120  11.909 -1.0058  0.5667  0.3266
43452SOL    HW139134   2.824   8.024  11.901 -1.7817  0.6212 -1.6479
43452SOL    HW239135   2.830   8.137  12.002  2.2061 -1.1910  0.3751
43453SOL     OW39136   9.002   5.259   4.519 -0.2980  0.2413  0.1908
43453SOL    HW139137   9.030   5.169   4.534  1.3932  0.7421  0.2527
43453SOL    HW239138   9.003   5.299   4.607  1.1398  0.8818 -0.0885
43454SOL     OW39139  11.589  11.234   7.770 -0.4668  0.1146 -0.4609
43454SOL    HW139140  11.676  11.206   7.796 -0.5191  1.9164  2.0205
43454SOL    HW239141  11.541  11.242   7.852 -2.8850 -0.4296 -1.7316
43455SOL     OW39142   3.674   2.313   3.873 -0.2107 -0.2666  0.1350
43455SOL    HW139143   3.605   2.255   3.905  0.8100 -0.8328  1.4245
43455SOL    HW239144   3.701   2.275   3.790  0.4311 -1.6696  0.9509
43456SOL     OW39145  10.743   3.217   4.900 -0.0830 -0.1071 -0.2815
43456SOL    HW139146  10.670   3.251   4.953 -0.1695 -0.9321  0.1579
43456SOL    HW239147  10.732   3.257   4.814 -0.2835  0.8086  0.1623
43457SOL     OW39148   2.238   9.632   1.810 -0.1101 -0.0997 -0.5523
43457SOL    HW139149   2.268   9.630   1.901 -0.6438  1.8538 -0.2935
43457SOL    HW239150   2.318   9.642   1.759  0.2895 -2.1324 -0.4168
43458SOL     OW39151   6.117  10.438   0.647 -0.3042  0.2519 -0.1765
43458SOL    HW139152   6.098  10.470   0.559 -2.4833  0.3113  0.2682
43458SOL    HW239153   6.187  10.496   0.678  0.0111  0.6812 -1.5967
43459SOL     OW39154  10.427  12.492  11.336 -0.0694  0.6307 -0.2052
43459SOL    HW139155  10.347  12.503  11.286 -1.2159  2.5890  1.8764
43459SOL    HW239156  10.409  12.420  11.397 -0.3161  1.1259  0.3200
43460SOL     OW39157  10.886  10.876  11.778  0.3695 -0.3985 -0.7078
43460SOL    HW139158  10.807  10.931  11.779  1.1995  0.8309 -0.4986
43460SOL    HW239159  10.880  10.825  11.859  0.8474  1.2991  0.4604
43461SOL     OW39160  10.961   4.440   5.489 -0.0669 -0.0711 -0.9493
43461SOL    HW139161  11.002   4.417   5.572 -0.9044  0.1642 -0.4610
43461SOL    HW239162  10.868   4.447   5.509 -0.1824  0.8379 -1.7094
43462SOL     OW39163   0.005  10.207   7.605 -0.0242 -0.5440 -1.1132
43462SOL    HW139164  -0.005  10.112   7.597 -1.2383 -0.5480  0.0290
43462SOL    HW239165  -0.085  10.239   7.618  0.1309  0.9691 -3.1690
43463SOL     OW39166   2.018  11.135   0.437  0.0038  0.4185  0.1086
43463SOL    HW139167   2.044  11.195   0.367 -0.2665  0.1667 -0.2072
43463SOL    HW239168   2.026  11.048   0.399  1.8311  0.1306  1.0193
43464SOL     OW39169   8.036   0.818   9.835 -0.1185  0.0578  0.6011
43464SOL    HW139170   8.004   0.781   9.917  0.8325 -0.7533  0.6207
43464SOL    HW239171   8.026   0.746   9.772  0.5957  0.1739  0.3555
43465SOL     OW39172  11.179   5.167   2.476  0.8557 -0.4585 -0.2430
43465SOL    HW139173  11.095   5.196   2.510  1.7338  0.1619  1.5341
43465SOL    HW239174  11.173   5.071   2.475  0.2842 -0.4340  0.3377
43466SOL     OW39175   5.703  11.994   3.633  0.1202  0.3103  0.2131
43466SOL    HW139176   5.672  12.079   3.602 -0.7301 -0.0249  0.1055
43466SOL    HW239177   5.721  12.007   3.726 -0.6120  0.4558  0.3424
43467SOL     OW39178  10.137   3.510   2.700  0.0171 -0.1238  0.0884
43467SOL    HW139179  10.085   3.503   2.780 -1.0293  0.2584 -0.5303
43467SOL    HW239180  10.154   3.604   2.690 -2.0941  0.1783 -1.4545
43468SOL     OW39181   5.131   0.260   5.510  0.7115 -0.5078 -0.3009
43468SOL    HW139182   5.141   0.181   5.456 -0.6862 -1.2097  0.4215
43468SOL    HW239183   5.171   0.237   5.594  0.2748 -0.4610 -0.0793
43469SOL     OW39184   8.726  10.502   1.933 -0.0227  0.2211 -0.2309
43469SOL    HW139185   8.657  10.449   1.972  0.7533  0.6776  1.9400
43469SOL    HW239186   8.726  10.478   1.840 -0.4130 -2.7787  0.4399
43470SOL     OW39187   4.895  10.115  11.728  0.1560  0.0077  0.6696
43470SOL    HW139188   4.858  10.181  11.786 -0.8600 -0.0810  0.1315
43470SOL    HW239189   4.835  10.041  11.734  0.1580 -0.0804 -0.3421
43471SOL     OW39190  10.656   1.522   3.531 -0.5679  0.0489 -0.0723
43471SOL    HW139191  10.605   1.555   3.605 -1.2298 -1.9166  0.4285
43471SOL    HW239192  10.643   1.427   3.534 -0.5780 -0.1113 -2.7025
43472SOL     OW39193   2.640   3.255   2.152 -0.0494  0.1518  0.2944
43472SOL    HW139194   2.607   3.345   2.144  0.1584  0.1483 -0.7545
43472SOL    HW239195   2.569   3.208   2.197 -0.7056  0.5628 -0.2776
43473SOL     OW39196   8.551   3.433  11.149  0.1817 -0.0100 -0.7431
43473SOL    HW139197   8.616   3.371  11.183 -2.3138 -2.6246 -0.3210
43473SOL    HW239198   8.512   3.389  11.074 -1.9550  0.8686 -0.2184
43474SOL     OW39199   7.538   3.276   6.631  0.0594  0.5917  0.7020
43474SOL    HW139200   7.485   3.324   6.695  0.5571  2.4052 -0.1908
43474SOL    HW239201   7.606   3.338   6.605  0.3514 -0.3810 -0.9913
43475SOL     OW39202   6.816   7.487   2.271 -0.2459 -0.4067  0.4525
43475SOL    HW139203   6.910   7.470   2.277 -0.2004 -0.1476  0.5067
43475SOL    HW239204   6.796   7.541   2.348  0.1151  1.9579 -1.0083
43476SOL     OW39205   4.043  11.142   1.984 -0.0586  0.5188  0.4188
43476SOL    HW139206   3.982  11.155   1.911 -0.1685  0.6070  0.5258
43476SOL    HW239207   4.113  11.206   1.968 -0.0994  0.5609  0.4074
43477SOL     OW39208   4.363  12.531   8.680  0.5320  0.6151  0.2001
43477SOL    HW139209   4.407  12.448   8.699  0.5286  0.5807  0.0566
43477SOL    HW239210   4.434  12.594   8.668  0.6468  0.0729 -2.4172
43478SOL     OW39211   0.747   5.935   9.079 -0.0724  0.1553  0.1345
43478SOL    HW139212   0.804   5.996   9.032 -0.3424 -0.4345 -1.0242
43478SOL    HW239213   0.807   5.881   9.131  0.1683  1.3286  1.0952
43479SOL     OW39214   0.107   0.825  11.213  0.0395 -0.0713  0.1690
43479SOL    HW139215   0.042   0.877  11.166  0.9073  2.6994  1.8519
43479SOL    HW239216   0.178   0.814  11.150 -0.6767 -0.3742 -0.6194
43480SOL     OW39217   5.383   7.959   9.234 -0.2117 -0.6151 -0.4479
43480SOL    HW139218   5.435   7.890   9.191  0.5118 -1.1257  1.1532
43480SOL    HW239219   5.429   8.040   9.214 -0.2334 -0.7683 -1.1355
43481SOL     OW39220  11.244   8.577  10.780  0.0740 -0.3552  0.1792
43481SOL    HW139221  11.175   8.512  10.769  0.1622 -0.4800  0.3667
43481SOL    HW239222  11.264   8.606  10.690  0.1906 -0.7452  0.0786
43482SOL     OW39223   3.997  12.230   2.678 -0.3366  0.2544 -0.2718
43482SOL    HW139224   3.969  12.220   2.769 -0.8250  3.6970  0.0773
43482SOL    HW239225   4.088  12.201   2.678 -0.1656  0.6802  1.4449
43483SOL     OW39226  10.972   6.903   8.584 -0.3300  0.3447 -0.0705
43483SOL    HW139227  10.944   6.864   8.666 -1.1880  1.0611 -0.0031
43483SOL    HW239228  11.056   6.944   8.604  0.1082 -0.6098  0.0990
43484SOL     OW39229   1.420   0.551   0.906  0.3370 -0.2939  0.2236
43484SOL    HW139230   1.502   0.502   0.912 -0.1414 -1.0609  0.7521
43484SOL    HW239231   1.361   0.506   0.967 -0.3941  0.4068  0.0494
43485SOL     OW39232   9.528  11.316  12.210  0.1602 -0.0687  0.1089
43485SOL    HW139233   9.461  11.293  12.145  1.9711  0.6280 -2.1590
43485SOL    HW239234   9.480  11.323  12.292 -2.1917 -1.5060 -1.0270
43486SOL     OW39235  11.790   4.556   7.544  0.2651  0.2166 -0.1863
43486SOL    HW139236  11.724   4.604   7.594 -0.7927  0.0480 -1.3452
43486SOL    HW239237  11.847   4.624   7.507 -0.8590  0.5980 -1.3179
43487SOL     OW39238   3.518   4.361   2.876 -0.2893  0.8724  0.2893
43487SOL    HW139239   3.465   4.405   2.810 -1.7248  1.4833  1.7820
43487SOL    HW239240   3.483   4.392   2.960  2.2380  1.0501  1.3556
43488SOL     OW39241   1.106   2.015   5.124  0.0518 -0.0391  0.0334
43488SOL    HW139242   1.016   2.044   5.135 -0.8242 -2.3737 -0.2876
43488SOL    HW239243   1.128   1.975   5.209  0.2329 -0.7994 -0.3649
43489SOL     OW39244  11.381   1.882   1.763  0.3553 -0.1879 -0.1577
43489SOL    HW139245  11.391   1.975   1.781 -1.0938  0.4587 -2.2442
43489SOL    HW239246  11.292   1.861   1.791  1.3347 -1.5102  2.1985
43490SOL     OW39247  11.059   5.476   5.366  0.2831 -0.1838  0.2916
43490SOL    HW139248  11.023   5.550   5.415 -0.8918 -0.6250  0.1404
43490SOL    HW239249  11.052   5.402   5.427 -2.7660 -1.1172 -0.9792
43491SOL     OW39250   4.381   7.749   3.825 -0.9928 -0.0768  0.5887
43491SOL    HW139251   4.402   7.656   3.833 -1.0792  0.0173  2.0912
43491SOL    HW239252   4.381   7.782   3.915 -2.7459  0.9906  0.2480
43492SOL     OW39253   3.312   1.651   0.657 -0.1082  0.4472  0.6513
43492SOL    HW139254   3.273   1.715   0.598  0.4796  0.9261  0.7703
43492SOL    HW239255   3.253   1.575   0.653  0.0219  0.3861 -0.7084
43493SOL     OW39256   4.697   4.069   2.961  0.2161 -0.2777 -0.5888
43493SOL    HW139257   4.739   4.108   2.885 -0.0746 -1.8292 -1.5973
43493SOL    HW239258   4.717   3.975   2.955  1.1798 -0.3243  1.9049
43494SOL     OW39259   8.691   0.261  11.938 -0.1480 -0.3811 -0.5861
43494SOL    HW139260   8.598   0.265  11.916  0.2650  2.8776 -2.2409
43494SOL    HW239261   8.732   0.219  11.862 -0.0835 -0.2687 -0.6142
43495SOL     OW39262   9.149   9.350   3.220  0.3214 -0.4369  0.4621
43495SOL    HW139263   9.102   9.267   3.225  0.5169 -0.7939 -2.3350
43495SOL    HW239264   9.104   9.399   3.152  1.8558  0.6702  0.1975
43496SOL     OW39265   3.696  10.014   5.390 -0.0767 -0.2428  0.3125
43496SOL    HW139266   3.651  10.066   5.456 -0.6489 -0.9903  0.5152
43496SOL    HW239267   3.759  10.076   5.351  1.1024 -0.0669  2.3177
43497SOL     OW39268   3.643   8.071   3.656 -0.3697 -0.2364 -0.2186
43497SOL    HW139269   3.711   8.005   3.667 -0.9851 -1.0024 -0.9025
43497SOL    HW239270   3.689   8.145   3.615 -0.2990 -1.5042 -2.6409
43498SOL     OW39271  10.377   0.556   2.148  0.7754 -0.0186  0.1174
43498SOL    HW139272  10.361   0.633   2.092 -0.2724  0.8799  1.5674
43498SOL    HW239273  10.389   0.484   2.086  1.0158  1.1654 -1.2870
43499SOL     OW39274   6.668   6.195  11.018  0.7716 -0.1079  0.4375
43499SOL    HW139275   6.683   6.109  10.980 -1.4162 -0.6467  0.6550
43499SOL    HW239276   6.646   6.251  10.944  2.7396  0.4649  0.2242
43500SOL     OW39277   3.018   9.971  12.168  0.3102  0.0657  0.3328
43500SOL    HW139278   3.010  10.033  12.095  1.9790 -1.2744 -1.0764
43500SOL    HW239279   2.945   9.910  12.156  0.4105  0.0218 -0.0589
43501SOL     OW39280   2.287   5.480  10.011  0.1045 -0.2682 -0.4393
43501SOL    HW139281   2.283   5.393  10.050  0.3969 -0.7646 -1.4829
43501SOL    HW239282   2.284   5.465   9.917  0.5781  0.8205 -0.6498
43502SOL     OW39283   7.623   0.570   6.636  0.2320 -0.2217 -0.4895
43502SOL    HW139284   7.667   0.596   6.717 -0.2327  1.4479 -0.7297
43502SOL    HW239285   7.694   0.562   6.572  0.3413  1.4160 -0.6175
43503SOL     OW39286   9.844  12.454   2.777  0.0146 -0.0119 -0.7498
43503SOL    HW139287   9.804  12.419   2.698 -0.1677 -0.6469 -0.3850
43503SOL    HW239288   9.857  12.377   2.833  0.4676  0.3818 -0.3080
43504SOL     OW39289   2.150  11.577   9.967 -0.2644 -0.3896  0.4009
43504SOL    HW139290   2.156  11.652  10.025 -0.0528  0.3819 -0.5883
43504SOL    HW239291   2.101  11.512  10.016  0.2223  0.1034  1.5737
43505SOL     OW39292   5.104  12.089  10.030 -0.2298  0.2973  0.4278
43505SOL    HW139293   5.050  12.147  10.084  0.0839  0.0893  0.9684
43505SOL    HW239294   5.194  12.108  10.056 -0.0845  0.0585  0.1130
43506SOL     OW39295  11.032   5.196   5.538 -0.4501 -0.2063 -0.3433
43506SOL    HW139296  11.118   5.217   5.501  1.1242 -1.0916  2.4900
43506SOL    HW239297  10.993   5.135   5.476  1.5490 -0.8302 -1.0577
43507SOL     OW39298   9.590   4.199   9.818 -0.6871  0.0662 -0.5098
43507SOL    HW139299   9.619   4.198   9.909 -1.7147 -2.4997 -0.1106
43507SOL    HW239300   9.641   4.269   9.777  1.1608  0.0714  1.5909
43508SOL     OW39301   7.231   9.844  10.826  0.2744  0.0273 -0.3831
43508SOL    HW139302   7.314   9.800  10.808  0.2752 -0.2128  0.1961
43508SOL    HW239303   7.199   9.804  10.907 -0.2637  0.3237 -0.4416
43509SOL     OW39304   3.308   6.082   8.551 -0.2969 -0.6788  0.2189
43509SOL    HW139305   3.346   6.167   8.530  0.2232 -0.9294  0.1228
43509SOL    HW239306   3.217   6.101   8.574 -0.6706 -0.2867 -1.4272
43510SOL     OW39307   7.577   7.831   4.651 -0.3270 -0.1558 -0.5498
43510SOL    HW139308   7.522   7.753   4.653 -1.2794  0.4530 -1.5361
43510SOL    HW239309   7.664   7.799   4.627 -0.7977 -0.8804 -1.3356
43511SOL     OW39310   7.759   0.012   5.565  0.6179  0.1922 -0.0398
43511SOL    HW139311   7.752   0.097   5.521  0.8676  0.8426  1.1261
43511SOL    HW239312   7.851   0.005   5.589  0.6502 -0.5383 -0.3625
43512SOL     OW39313   5.818   2.781   5.708 -0.9573  0.0020 -0.0006
43512SOL    HW139314   5.783   2.783   5.619 -1.3373 -3.4901 -0.0504
43512SOL    HW239315   5.759   2.723   5.756 -1.4672  2.7126  2.9649
43513SOL     OW39316   0.884   8.778   7.757 -0.0058  0.3041 -0.3796
43513SOL    HW139317   0.925   8.722   7.691 -0.1240 -2.1278  1.4819
43513SOL    HW239318   0.807   8.814   7.714  1.2815  0.8932 -2.3372
43514SOL     OW39319  11.652  11.030   5.483  0.3625 -0.2588 -0.1292
43514SOL    HW139320  11.646  10.942   5.520  1.9821 -0.7354 -0.9070
43514SOL    HW239321  11.735  11.065   5.517 -0.1474  0.8926 -0.0044
43515SOL     OW39322   6.199   6.384   0.907 -0.0342 -0.5266  0.1927
43515SOL    HW139323   6.128   6.418   0.853  0.1954 -1.4184 -0.7016
43515SOL    HW239324   6.159   6.367   0.992 -0.3126  1.2760  0.4698
43516SOL     OW39325   9.724   0.398   2.479  0.0499  0.4707  0.4995
43516SOL    HW139326   9.775   0.321   2.505 -1.0697 -0.3192  0.4392
43516SOL    HW239327   9.667   0.366   2.409 -2.4596  0.5812  2.3449
43517SOL     OW39328   1.333   6.513   9.093 -0.1147  0.3343 -0.1825
43517SOL    HW139329   1.365   6.491   9.181  0.5006  1.4713 -0.1005
43517SOL    HW239330   1.353   6.606   9.083 -2.9995  1.0202 -0.3333
43518SOL     OW39331   6.037   7.401   5.784 -0.2654 -0.3024 -0.3201
43518SOL    HW139332   6.017   7.345   5.859 -0.9440  0.0578 -0.2224
43518SOL    HW239333   5.968   7.468   5.785  0.6717  0.6955 -0.2755
43519SOL     OW39334   7.939   4.414   4.592 -0.2504  0.0355 -0.7347
43519SOL    HW139335   7.969   4.475   4.660  1.3936 -1.3093 -0.1780
43519SOL    HW239336   7.928   4.331   4.639 -1.3691 -0.3826 -1.6936
43520SOL     OW39337   0.248   3.417  11.891 -0.1220 -0.1129  0.2024
43520SOL    HW139338   0.252   3.419  11.795  0.0869 -1.7424  0.1468
43520SOL    HW239339   0.160   3.386  11.911  0.0690 -0.4483  0.5273
43521SOL     OW39340   8.202   6.256   4.346  0.3973 -0.3444 -0.2701
43521SOL    HW139341   8.157   6.219   4.421  0.6917  0.7947  0.4925
43521SOL    HW239342   8.293   6.264   4.374  0.3155  1.0693 -0.3488
43522SOL     OW39343  10.241   0.487   6.394  0.5537  0.1018  0.0905
43522SOL    HW139344  10.188   0.553   6.440  3.7379  3.6283 -0.8022
43522SOL    HW239345  10.283   0.437   6.463 -0.6002  0.1301  0.8352
43523SOL     OW39346   6.750   9.898   9.917  0.1233 -0.4350 -0.0866
43523SOL    HW139347   6.819   9.889   9.982 -0.5275  1.4562  0.9347
43523SOL    HW239348   6.786   9.956   9.851 -0.9480  1.8696  1.2504
43524SOL     OW39349   1.654   7.542   6.070  0.6780 -0.5864 -0.1017
43524SOL    HW139350   1.558   7.544   6.078  0.8172  0.9779  3.2857
43524SOL    HW239351   1.683   7.495   6.148  2.6650  0.8712  0.1180
43525SOL     OW39352   0.262   2.783   7.132 -0.0665 -0.2576 -0.3287
43525SOL    HW139353   0.241   2.707   7.077 -2.8070  0.2270 -0.0696
43525SOL    HW239354   0.302   2.846   7.072  0.4610 -1.1416 -0.9338
43526SOL     OW39355   8.717   3.505   5.653  0.2651  0.4034  0.1332
43526SOL    HW139356   8.686   3.425   5.695 -0.3321  0.9935  0.8471
43526SOL    HW239357   8.812   3.503   5.662  0.2387 -0.1568  0.2735
43527SOL     OW39358  11.517   9.485   3.751 -0.1740 -0.0507 -0.0158
43527SOL    HW139359  11.504   9.580   3.748 -2.6950 -0.3414 -0.8824
43527SOL    HW239360  11.578   9.472   3.824 -0.3607  2.1844  0.6341
43528SOL     OW39361  11.857  10.124   5.449  0.4193  0.1682 -0.1489
43528SOL    HW139362  11.776  10.072   5.449  0.4219  0.1615 -0.5795
43528SOL    HW239363  11.832  10.207   5.489  0.6936 -0.5728  1.7062
43529SOL     OW39364   5.574   8.364   6.701 -0.3617 -0.0504 -0.1257
43529SOL    HW139365   5.626   8.444   6.708 -1.1212  0.4071  0.4209
43529SOL    HW239366   5.521   8.363   6.780  0.5660 -1.7756  0.5268
43530SOL     OW39367   6.705  11.355   7.455  0.1795  0.0571 -0.1922
43530SOL    HW139368   6.637  11.358   7.388 -0.1670 -2.5025 -0.0487
43530SOL    HW239369   6.765  11.426   7.431 -1.4579  1.0874 -1.4770
43531SOL     OW39370   9.543   0.006   5.284 -1.2028 -0.1139 -0.0050
43531SOL    HW139371   9.513  -0.039   5.205  1.5078  0.0291 -1.2226
43531SOL    HW239372   9.556   0.097   5.257  0.5335 -0.2268  0.3177
43532SOL     OW39373   1.467   5.193   2.342  0.2155  0.1330 -0.9132
43532SOL    HW139374   1.424   5.277   2.358 -1.8950 -0.7982 -1.3780
43532SOL    HW239375   1.479   5.190   2.247  2.9650  1.0959 -0.6682
43533SOL     OW39376   4.973   5.192   7.595 -0.4755  0.5734 -0.5480
43533SOL    HW139377   4.991   5.177   7.688 -1.2042  0.0721 -0.4879
43533SOL    HW239378   4.878   5.191   7.588 -0.4178 -1.6999 -1.6736
43534SOL     OW39379   5.847  11.867   2.717  0.3809  0.0739  0.3579
43534SOL    HW139380   5.896  11.870   2.799 -2.1180  2.6019  1.9289
43534SOL    HW239381   5.778  11.802   2.733 -1.3736  2.0313  1.1628
43535SOL     OW39382   4.605  10.550  10.747 -0.2588  0.4445  0.2408
43535SOL    HW139383   4.651  10.626  10.781  0.9028  0.0973 -0.5221
43535SOL    HW239384   4.515  10.560  10.779 -0.1835  2.2313 -0.0220
43536SOL     OW39385   3.556   5.446   7.307  0.1304 -0.3333 -0.4646
43536SOL    HW139386   3.596   5.477   7.225  1.6021  0.9910  0.6816
43536SOL    HW239387   3.565   5.351   7.304  1.4452 -0.2154 -1.2491
43537SOL     OW39388   2.412   3.302   5.645 -0.0302  0.5657 -0.3671
43537SOL    HW139389   2.335   3.258   5.609  0.2838  1.6900 -2.5693
43537SOL    HW239390   2.485   3.242   5.626 -0.2240 -0.2249  1.1932
43538SOL     OW39391   5.524   6.926   0.098  0.2800 -0.1758  0.0224
43538SOL    HW139392   5.564   6.984   0.163 -1.3961 -1.0066  1.8885
43538SOL    HW239393   5.548   6.965   0.014  2.8791  0.7325  1.0548
43539SOL     OW39394   6.452   4.406   0.635  0.1463  0.1734 -0.0355
43539SOL    HW139395   6.463   4.496   0.604  3.7109  0.0948  0.5634
43539SOL    HW239396   6.468   4.411   0.729 -0.0348 -1.0311  0.0735
43540SOL     OW39397   4.363   6.107   3.492  0.4410  0.1142 -0.9680
43540SOL    HW139398   4.365   6.147   3.579 -1.3522 -0.7848 -0.4528
43540SOL    HW239399   4.450   6.070   3.480  1.0793  1.2535 -0.0617
43541SOL     OW39400   8.383   6.896   2.272 -0.0145 -0.2762 -0.0849
43541SOL    HW139401   8.324   6.956   2.227 -2.1131 -1.8445  0.4077
43541SOL    HW239402   8.436   6.858   2.202 -1.0189 -0.3370 -0.8305
43542SOL     OW39403   5.919   7.025   9.019  0.0880  0.0362 -0.1495
43542SOL    HW139404   5.877   7.111   9.008  0.8707  0.3707 -0.6138
43542SOL    HW239405   6.012   7.045   9.026  0.6372 -0.9252 -3.2116
43543SOL     OW39406  11.986   9.681   4.348  0.5481  0.0117 -0.4466
43543SOL    HW139407  12.072   9.652   4.376  0.4387 -0.3989 -0.5223
43543SOL    HW239408  11.992   9.777   4.344  1.2520 -0.0541 -1.2706
43544SOL     OW39409   1.955   2.432   9.261  0.2686 -0.1992  0.3024
43544SOL    HW139410   1.872   2.414   9.216  0.7554  1.4508 -1.4304
43544SOL    HW239411   1.933   2.497   9.327  0.2680  0.7874 -0.6459
43545SOL     OW39412   6.978   6.057   0.887  0.7470  0.6385  0.0815
43545SOL    HW139413   6.989   6.018   0.800  0.6144 -1.2709  0.8648
43545SOL    HW239414   6.883   6.058   0.901  0.8125 -0.2345  0.6744
43546SOL     OW39415   5.098   0.470   9.442 -0.1732  0.3694 -0.6154
43546SOL    HW139416   5.065   0.403   9.383 -0.4326  0.6281 -0.7622
43546SOL    HW239417   5.177   0.503   9.398  0.3537 -0.3144 -0.2180
43547SOL     OW39418   9.331   3.565   4.242  0.6382  0.2421 -0.3426
43547SOL    HW139419   9.300   3.500   4.179 -0.0745 -1.4852  1.6740
43547SOL    HW239420   9.250   3.606   4.274  0.9101  0.2791  0.2946
43548SOL     OW39421   2.884  12.000   8.297  0.3738  0.2443  0.2587
43548SOL    HW139422   2.905  11.927   8.354 -3.1855 -1.1148  0.0807
43548SOL    HW239423   2.894  11.966   8.208  0.5395  0.6001  0.1371
43549SOL     OW39424  12.371   0.606   6.997 -0.0239 -0.0136  0.0014
43549SOL    HW139425  12.445   0.641   6.947 -0.2734 -0.2038 -0.5035
43549SOL    HW239426  12.297   0.608   6.936 -0.7919  1.5295  0.9263
43550SOL     OW39427   6.963  11.217   6.987  0.3917 -0.0752  0.0740
43550SOL    HW139428   7.041  11.268   6.965 -1.3006  2.2497 -1.0044
43550SOL    HW239429   6.956  11.153   6.916 -0.8225  2.4122 -2.2686
43551SOL     OW39430   1.481   4.207   6.041  1.0302 -0.1299  0.3061
43551SOL    HW139431   1.541   4.281   6.050  0.7539  0.4331 -1.8253
43551SOL    HW239432   1.398   4.246   6.013  0.8186 -1.1912 -0.6450
43552SOL     OW39433  11.878   4.579  10.444 -0.3202 -0.0119 -0.4057
43552SOL    HW139434  11.848   4.493  10.473  1.7653 -0.0922  1.8458
43552SOL    HW239435  11.876   4.573  10.348 -1.4120 -2.1107 -0.3219
43553SOL     OW39436   1.015   2.363   1.035 -0.2710 -0.2912  0.3867
43553SOL    HW139437   1.025   2.439   1.093 -2.0214  0.5253 -0.3355
43553SOL    HW239438   1.014   2.399   0.947  0.4475 -1.3330 -0.0753
43554SOL     OW39439   9.641   8.776   2.187  0.3999  0.3949  0.7624
43554SOL    HW139440   9.665   8.683   2.190 -0.3818  0.1030 -0.8209
43554SOL    HW239441   9.578   8.788   2.258  0.9869 -0.1298  1.3781
43555SOL     OW39442   7.107   3.437  12.196  0.1034 -0.4006  0.3489
43555SOL    HW139443   7.019   3.404  12.216  0.4113 -1.1419  0.5142
43555SOL    HW239444   7.097   3.532  12.192 -0.8820 -0.5328 -0.5264
43556SOL     OW39445  11.008   8.688   0.807  0.1773  0.2159  0.3981
43556SOL    HW139446  10.944   8.660   0.873  0.2026 -2.6652 -0.6611
43556SOL    HW239447  11.089   8.645   0.833  0.0911 -1.3494 -1.6169
43557SOL     OW39448   5.493   9.710   7.160  0.3837  0.1547  0.5223
43557SOL    HW139449   5.431   9.696   7.088  1.8709 -2.3428 -0.3881
43557SOL    HW239450   5.563   9.763   7.122  0.0340  0.8564  0.8395
43558SOL     OW39451   6.310   5.634   9.926  0.7120  0.8063 -0.0930
43558SOL    HW139452   6.302   5.642   9.831  2.7657 -1.7746 -0.6001
43558SOL    HW239453   6.387   5.687   9.948  0.2309  1.4119  0.1752
43559SOL     OW39454   6.362   5.185   1.168  0.6163  0.0795  0.3690
43559SOL    HW139455   6.302   5.124   1.211  1.1692  0.1533  1.2895
43559SOL    HW239456   6.317   5.212   1.088 -0.2056 -0.5090  0.6220
43560SOL     OW39457   2.935   0.456   5.900  0.5029 -0.3645 -0.0495
43560SOL    HW139458   3.019   0.423   5.870  0.6632 -0.6477  0.6868
43560SOL    HW239459   2.885   0.377   5.923  0.5276 -0.1477  0.7780
43561SOL     OW39460   7.692  11.849  11.752 -0.2607 -0.0425  0.1341
43561SOL    HW139461   7.720  11.920  11.695  2.8317 -0.7710  0.6092
43561SOL    HW239462   7.715  11.769  11.706 -0.1100 -0.6769  1.2613
43562SOL     OW39463   7.736  11.622   1.328 -0.1677 -0.0443 -0.0679
43562SOL    HW139464   7.689  11.540   1.310 -1.1298  0.4908 -0.0742
43562SOL    HW239465   7.720  11.638   1.421 -0.1854  0.2514 -0.1196
43563SOL     OW39466   5.784   9.618  11.342 -0.0749 -0.0772  0.1497
43563SOL    HW139467   5.694   9.626  11.312 -0.1622 -2.6769 -0.5761
43563SOL    HW239468   5.783   9.538  11.396  1.7905 -0.1470  0.1314
43564SOL     OW39469   0.598   6.618  11.506  0.0089 -0.1539 -0.2679
43564SOL    HW139470   0.690   6.596  11.519  0.2629 -0.3173 -2.0916
43564SOL    HW239471   0.568   6.645  11.593  1.4202 -1.3195  0.6424
43565SOL     OW39472   7.343   3.645   3.334  0.2750 -0.1353  0.0923
43565SOL    HW139473   7.404   3.603   3.395  0.3314  0.9106  0.7923
43565SOL    HW239474   7.268   3.586   3.331  0.0161  0.0654  1.6722
43566SOL     OW39475  11.688   4.930   2.448  0.2171 -0.2428  0.2602
43566SOL    HW139476  11.626   4.910   2.518  2.2240 -1.9108  1.6896
43566SOL    HW239477  11.771   4.945   2.493  2.2202 -3.8908 -1.7405
43567SOL     OW39478   9.279   7.121   0.256  0.0779 -0.3008  0.8195
43567SOL    HW139479   9.209   7.178   0.225 -0.6628 -1.4661  0.2771
43567SOL    HW239480   9.342   7.119   0.184  0.0211 -0.2993  0.7700
43568SOL     OW39481   3.980   0.817   4.954 -0.2372 -0.2381  0.0221
43568SOL    HW139482   3.983   0.756   5.027  1.5681 -1.1251 -0.7438
43568SOL    HW239483   3.936   0.895   4.990 -1.9930 -1.6789  1.1914
43569SOL     OW39484   0.028   4.919   5.595  0.6130  0.0347 -0.0456
43569SOL    HW139485   0.118   4.887   5.586  1.3006  0.8852  2.7860
43569SOL    HW239486  -0.003   4.882   5.677 -2.1197 -1.1488 -1.4839
43570SOL     OW39487   1.607   4.032   1.194  0.0520  0.5641 -0.2905
43570SOL    HW139488   1.692   4.027   1.151 -0.0229 -0.5083 -0.3429
43570SOL    HW239489   1.562   4.104   1.149  0.9895  1.2776 -0.1168
43571SOL     OW39490   6.518  10.350   3.854 -0.0503  0.6102  0.4498
43571SOL    HW139491   6.528  10.435   3.898  1.7430 -0.5907  2.6231
43571SOL    HW239492   6.441  10.311   3.895  0.3305  0.3896  0.9748
43572SOL     OW39493  11.793   7.015   6.021  0.2621 -0.6256  0.1435
43572SOL    HW139494  11.723   7.070   5.986 -0.2540 -2.2031 -1.4394
43572SOL    HW239495  11.864   7.076   6.040 -0.9359  0.8039  0.2501
43573SOL     OW39496   8.014   4.250   9.547 -0.2676  0.1668 -0.8738
43573SOL    HW139497   8.107   4.258   9.569 -0.1564 -0.1240 -1.2352
43573SOL    HW239498   7.994   4.157   9.560 -1.1189  0.5947  1.5968
43574SOL     OW39499  10.306  10.770   1.726  0.7440 -0.7414 -0.4370
43574SOL    HW139500  10.212  10.790   1.717  0.4020 -1.3612  1.3976
43574SOL    HW239501  10.346  10.853   1.751 -0.1035 -1.2927  3.4150
43575SOL     OW39502   8.062  11.740   8.552 -0.4194  0.2772 -0.0936
43575SOL    HW139503   8.060  11.824   8.506 -0.9133  0.9433  1.1028
43575SOL    HW239504   8.068  11.763   8.644  0.9545 -1.0398  0.1902
43576SOL     OW39505   6.130  11.887  10.675 -0.5309 -0.1906  0.4592
43576SOL    HW139506   6.074  11.832  10.730 -1.6123  2.1339  1.8321
43576SOL    HW239507   6.079  11.967  10.662  0.8535  0.4220 -1.6919
43577SOL     OW39508   6.531   3.156   2.587  0.1612 -0.0194 -0.2714
43577SOL    HW139509   6.458   3.121   2.535  0.3036 -0.3094 -0.2805
43577SOL    HW239510   6.608   3.114   2.549  0.0374 -2.6669  2.0780
43578SOL     OW39511   0.967   6.785   9.824 -0.3993  0.0752 -0.2290
43578SOL    HW139512   1.034   6.777   9.756 -0.7093 -2.2155 -0.3203
43578SOL    HW239513   0.888   6.811   9.775 -0.1810  0.3054 -0.4657
43579SOL     OW39514   3.368  10.616   6.858  0.1881  0.3130  0.3658
43579SOL    HW139515   3.401  10.682   6.919 -1.3681  1.9526 -0.4600
43579SOL    HW239516   3.442  10.598   6.800  1.6001 -1.0490  2.4338
43580SOL     OW39517  10.396   4.551   4.768  0.4214 -0.1129  0.4081
43580SOL    HW139518  10.430   4.594   4.689 -1.2187  0.2551 -0.1498
43580SOL    HW239519  10.467   4.493   4.796  1.5612  0.7644 -0.5418
43581SOL     OW39520   4.566   5.413   9.248 -0.0103 -0.0465 -0.2283
43581SOL    HW139521   4.523   5.432   9.165  1.9882 -0.3185 -1.3688
43581SOL    HW239522   4.596   5.323   9.239 -0.7792 -0.4959  1.2876
43582SOL     OW39523   0.013   3.966   1.428  0.0738  0.0539 -0.0728
43582SOL    HW139524   0.063   4.029   1.377  0.5820 -0.7392 -0.5740
43582SOL    HW239525  -0.014   3.900   1.364 -0.1528 -0.4205  0.5027
43583SOL     OW39526  12.148   8.388   0.764  0.0096 -0.0720  0.9272
43583SOL    HW139527  12.212   8.426   0.824  1.0109 -0.4160  0.1063
43583SOL    HW239528  12.063   8.420   0.796  0.5330 -0.0196  2.3438
43584SOL     OW39529   5.556   7.972  10.045  0.3259 -0.0619 -0.5658
43584SOL    HW139530   5.599   7.993  10.128  0.5803  0.8994 -0.9189
43584SOL    HW239531   5.596   8.032   9.982 -0.7127  0.0482 -1.1449
43585SOL     OW39532   4.002   2.330   8.945 -0.4708  0.0816  0.0907
43585SOL    HW139533   4.051   2.323   9.026  0.6493  2.7361 -0.2786
43585SOL    HW239534   3.975   2.421   8.940 -1.3979 -0.2357 -2.0269
43586SOL     OW39535   3.242   9.884  10.546  1.1623 -0.3470 -0.5377
43586SOL    HW139536   3.277   9.803  10.509  0.9514 -0.7340  0.1062
43586SOL    HW239537   3.294   9.900  10.624 -1.0371 -1.8044  1.3673
43587SOL     OW39538  10.424   1.096  11.962 -0.1779  0.2185  0.0880
43587SOL    HW139539  10.432   1.101  12.058 -3.5058  0.5487  0.4671
43587SOL    HW239540  10.390   1.182  11.937 -0.5202 -0.2898 -1.2331
43588SOL     OW39541   1.855   1.621  11.004  0.3840 -0.4672  1.0758
43588SOL    HW139542   1.871   1.646  10.913 -0.4993 -0.2158  0.9791
43588SOL    HW239543   1.876   1.528  11.008  1.2294 -0.2951  0.8182
43589SOL     OW39544   3.257   7.392   6.828 -0.3566  0.2958  0.0742
43589SOL    HW139545   3.240   7.301   6.853  0.9107 -0.3453 -1.2336
43589SOL    HW239546   3.172   7.423   6.795 -0.8457 -0.3651  0.6764
43590SOL     OW39547   6.902   1.369  11.601  0.0258 -0.4211  0.5624
43590SOL    HW139548   6.903   1.345  11.509 -0.8001 -3.3290  1.2204
43590SOL    HW239549   6.812   1.397  11.617  0.9631  3.7071 -0.1921
43591SOL     OW39550  11.477   7.988   3.599 -0.7983 -0.4412 -0.2540
43591SOL    HW139551  11.493   8.024   3.686  0.3858  0.0256 -0.6432
43591SOL    HW239552  11.478   7.893   3.612 -0.4207 -0.3780  0.2091
43592SOL     OW39553  12.408   8.091   8.717 -0.7710  0.0110 -0.6591
43592SOL    HW139554  12.470   8.050   8.778 -0.1809  1.8652  0.0603
43592SOL    HW239555  12.357   8.151   8.772 -2.7726 -0.9500 -1.3688
43593SOL     OW39556  10.196   1.374   4.463  0.3494 -0.1563 -0.0399
43593SOL    HW139557  10.198   1.351   4.555  1.0332  0.4171  0.0918
43593SOL    HW239558  10.118   1.329   4.429  1.0324 -1.7553  0.4293
43594SOL     OW39559  11.676   0.503   3.499 -0.2532 -0.0631  0.0190
43594SOL    HW139560  11.649   0.526   3.588  0.2255 -0.2499  0.2178
43594SOL    HW239561  11.772   0.502   3.503 -0.2433 -1.1435 -0.2211
43595SOL     OW39562   1.433   3.404   4.321  0.6861  0.0439 -0.1621
43595SOL    HW139563   1.416   3.343   4.249  0.6709  0.7737 -0.7949
43595SOL    HW239564   1.362   3.468   4.315  2.5454  2.1537 -1.7681
43596SOL     OW39565  12.075   0.405   8.548 -0.0410 -0.2243  0.5085
43596SOL    HW139566  11.993   0.452   8.564  0.3434  0.9190 -0.6311
43596SOL    HW239567  12.082   0.402   8.452  1.2710 -0.2224  0.5891
43597SOL     OW39568   7.323   7.906   2.921  0.1728  0.9717 -0.1106
43597SOL    HW139569   7.261   7.893   2.993 -1.5633  2.2484 -1.2863
43597SOL    HW239570   7.276   7.876   2.844  1.0563  1.9125 -1.0454
43598SOL     OW39571   6.657   6.610   6.003 -0.0430  0.2872  0.4427
43598SOL    HW139572   6.610   6.681   6.045 -2.1662  0.9950 -2.7678
43598SOL    HW239573   6.747   6.618   6.035 -0.9681  2.1982  2.8116
43599SOL     OW39574   4.203   6.774   7.484  0.3770  0.5841  0.3397
43599SOL    HW139575   4.278   6.834   7.483 -0.3744  1.5527  0.6611
43599SOL    HW239576   4.128   6.830   7.462 -0.4028 -0.1478  1.0769
43600SOL     OW39577   4.101  12.319   3.290 -0.2534 -0.1093 -0.0619
43600SOL    HW139578   4.019  12.359   3.320 -0.5707 -0.4120 -0.5136
43600SOL    HW239579   4.111  12.240   3.343 -1.6489 -1.5239 -1.7740
43601SOL     OW39580   1.090   3.512  11.284 -0.0494  0.3868 -0.5649
43601SOL    HW139581   1.016   3.573  11.284  0.0253  0.4781 -0.8085
43601SOL    HW239582   1.164   3.563  11.316 -0.2648  0.0769  0.4758
43602SOL     OW39583   3.563   8.348   4.218  0.6248 -0.3811 -0.3816
43602SOL    HW139584   3.477   8.320   4.186 -0.1524 -0.3070  1.5216
43602SOL    HW239585   3.601   8.268   4.254  0.8818 -0.1763 -0.2019
43603SOL     OW39586   0.291  12.526   2.678  0.5762 -0.3904 -0.0278
43603SOL    HW139587   0.330  12.610   2.703  0.5668  0.6964 -3.2464
43603SOL    HW239588   0.358  12.484   2.623 -0.4850 -1.1888 -0.7468
43604SOL     OW39589   3.629  10.307   0.156  0.3074  0.1420  0.1452
43604SOL    HW139590   3.723  10.300   0.139  0.1332  0.0538 -0.8790
43604SOL    HW239591   3.589  10.257   0.085 -0.5222  0.3092  0.4891
43605SOL     OW39592  10.127   4.670   5.076 -0.3326  0.4668 -0.1428
43605SOL    HW139593  10.032   4.669   5.080 -0.4140 -2.6211 -0.2454
43605SOL    HW239594  10.148   4.718   4.996 -1.8545 -0.0218 -0.8576
43606SOL     OW39595   1.114   5.254   6.122 -0.2004  0.1342  0.2595
43606SOL    HW139596   1.122   5.159   6.128 -1.7781  0.0340  1.6777
43606SOL    HW239597   1.142   5.286   6.208 -0.8717  0.8388  0.2277
43607SOL     OW39598   2.378   4.854  11.999 -0.0167 -0.0923  0.4573
43607SOL    HW139599   2.391   4.759  11.997 -0.6057 -0.1727 -0.0716
43607SOL    HW239600   2.373   4.876  12.092  1.1833 -0.4202  0.6168
43608SOL     OW39601   6.868   8.665   7.698 -0.5529 -0.2425 -0.7943
43608SOL    HW139602   6.799   8.625   7.751  0.6084 -3.1831 -1.3182
43608SOL    HW239603   6.875   8.609   7.621  1.1898  1.0354 -1.6370
43609SOL     OW39604   1.713   6.408   3.290  0.4499  0.1873  0.3039
43609SOL    HW139605   1.659   6.430   3.366  1.2530 -2.5245  1.7780
43609SOL    HW239606   1.793   6.458   3.302 -0.0854  1.0654  0.3059
43610SOL     OW39607   9.372   8.429   2.314 -0.4037 -0.7039 -0.2255
43610SOL    HW139608   9.313   8.455   2.386 -0.9596 -0.3145 -0.8117
43610SOL    HW239609   9.367   8.333   2.314 -0.2787 -0.7189  0.3491
43611SOL     OW39610   8.715   3.754   5.807  0.2684  0.0830  0.4370
43611SOL    HW139611   8.708   3.836   5.759  2.3486  0.5663  0.8596
43611SOL    HW239612   8.725   3.687   5.739 -0.5919  0.2716  0.1152
43612SOL     OW39613   9.918   3.355   0.084 -0.5636  0.0336  0.2932
43612SOL    HW139614   9.915   3.413   0.008 -1.2208 -1.0251 -0.5309
43612SOL    HW239615   9.953   3.408   0.154  2.1000  0.4989 -1.2562
43613SOL     OW39616   0.818   9.683   9.722 -0.5094 -0.1097  0.3014
43613SOL    HW139617   0.743   9.626   9.736 -2.5274  2.6073  1.6473
43613SOL    HW239618   0.834   9.682   9.628 -3.2035  0.2633 -0.2175
43614SOL     OW39619   8.246   3.133   7.825 -0.1148 -0.1967  0.7488
43614SOL    HW139620   8.245   3.041   7.854  0.9689 -0.4563  0.0435
43614SOL    HW239621   8.229   3.183   7.905  2.1635 -0.9224  1.8045
43615SOL     OW39622   3.517   0.633   9.132  0.5299  0.1847 -0.0042
43615SOL    HW139623   3.557   0.720   9.135  1.7959 -0.3710  0.1686
43615SOL    HW239624   3.435   0.643   9.181  1.9834  0.6629  2.5593
43616SOL     OW39625  12.277  11.606   6.892 -0.4423 -0.2244  0.6305
43616SOL    HW139626  12.260  11.512   6.893 -0.5888 -0.2035  0.2727
43616SOL    HW239627  12.262  11.632   6.801 -0.5401  0.1684  0.7570
43617SOL     OW39628   8.902   3.386   3.485  0.3745  0.6073 -0.3566
43617SOL    HW139629   8.881   3.346   3.569 -0.9890 -0.4070 -1.1369
43617SOL    HW239630   8.998   3.388   3.482  0.5419 -2.7497 -0.2902
43618SOL     OW39631  11.991   4.687   9.971  0.3069 -0.2498  0.4714
43618SOL    HW139632  12.010   4.630   9.897  1.2747 -0.0339  0.5402
43618SOL    HW239633  11.960   4.628  10.040 -0.7546 -0.4296 -0.1491
43619SOL     OW39634   2.288  11.857   2.291  0.1803  0.1182 -0.0706
43619SOL    HW139635   2.237  11.887   2.216  0.4806  0.5384 -0.1091
43619SOL    HW239636   2.263  11.914   2.363  1.2764  0.9417 -0.3211
43620SOL     OW39637   6.834   6.661   3.825 -0.1648  0.5609  0.0979
43620SOL    HW139638   6.904   6.727   3.826  1.1762 -0.8198  0.5642
43620SOL    HW239639   6.825   6.634   3.917  0.7047 -1.2785 -0.3060
43621SOL     OW39640   3.670   2.585  11.661 -0.2082  0.0020  0.7169
43621SOL    HW139641   3.670   2.489  11.671  1.1886  0.0799  1.8045
43621SOL    HW239642   3.729   2.616  11.730  2.5996  1.3406 -2.0450
43622SOL     OW39643   7.735   3.121   5.036  0.5136 -0.2298  0.4580
43622SOL    HW139644   7.668   3.153   5.096  0.4084 -0.6733  0.5867
43622SOL    HW239645   7.817   3.156   5.070  0.4428 -0.4029  0.8115
43623SOL     OW39646   5.854   0.387  10.406 -0.1361 -0.2486 -0.1024
43623SOL    HW139647   5.901   0.436  10.473  0.8416  0.9601 -1.5948
43623SOL    HW239648   5.811   0.453  10.353  0.1607 -1.0588 -1.4058
43624SOL     OW39649   5.077   9.075   9.875  0.2194 -0.0932  0.2441
43624SOL    HW139650   5.139   9.147   9.867 -0.2125  0.3507  0.8071
43624SOL    HW239651   5.002   9.113   9.920 -1.0686 -0.2479 -1.6362
43625SOL     OW39652   0.150  10.773   5.083 -0.2448 -0.5375  0.7311
43625SOL    HW139653   0.174  10.684   5.107  0.8018 -0.5129 -0.1662
43625SOL    HW239654   0.197  10.790   5.001  0.3821  1.1874  1.3998
43626SOL     OW39655  10.169  10.168  11.665 -0.1440  0.6947  0.5551
43626SOL    HW139656  10.102  10.218  11.712 -0.3272  1.0395 -0.0635
43626SOL    HW239657  10.170  10.083  11.708 -1.9593  0.2016 -0.2981
43627SOL     OW39658   6.504   2.670   0.002 -0.1088  0.1985  0.0063
43627SOL    HW139659   6.438   2.644  -0.062 -1.9697 -1.7071  2.5036
43627SOL    HW239660   6.556   2.736  -0.043 -2.6936  0.6147 -2.6632
43628SOL     OW39661  11.071  12.394   4.133  0.2284  0.0554  0.1092
43628SOL    HW139662  11.080  12.334   4.059 -1.3031 -2.4185  1.7751
43628SOL    HW239663  10.977  12.400   4.148  0.4861  0.8445  1.5701
43629SOL     OW39664   6.688   0.144   5.976  0.0750 -0.2142  0.7079
43629SOL    HW139665   6.724   0.157   5.889  1.5902 -2.1257  0.9718
43629SOL    HW239666   6.714   0.221   6.026 -1.5214  1.3036 -0.6801
43630SOL     OW39667   0.272  11.471   0.385 -0.4650  0.0244 -0.5782
43630SOL    HW139668   0.365  11.471   0.407 -0.9323  1.0854  1.7105
43630SOL    HW239669   0.266  11.514   0.300  1.1319 -0.1258 -0.7847
43631SOL     OW39670   3.518   4.872   8.885 -0.4354  0.2886 -0.4972
43631SOL    HW139671   3.591   4.922   8.920  0.5671 -0.8572 -0.8721
43631SOL    HW239672   3.476   4.833   8.963  0.0804  0.0022 -0.3573
43632SOL     OW39673   1.634  11.549   5.797 -0.2356  0.7889  0.5740
43632SOL    HW139674   1.577  11.493   5.744  0.3220  1.5426 -0.8732
43632SOL    HW239675   1.584  11.629   5.811 -0.6622  0.3230  1.8354
43633SOL     OW39676   0.304   8.577   8.024 -0.1887  0.1394  0.0120
43633SOL    HW139677   0.356   8.629   8.085  0.3963  0.3436 -0.6397
43633SOL    HW239678   0.347   8.591   7.939 -1.8306  1.0427 -0.7174
43634SOL     OW39679   5.733   0.177   0.133  0.3291 -0.1880  0.3173
43634SOL    HW139680   5.754   0.255   0.081  1.2277 -0.1832  0.6537
43634SOL    HW239681   5.683   0.211   0.207  1.8394  0.2942  1.1678
43635SOL     OW39682   8.953   4.471   9.201  0.0295 -0.4369  0.1887
43635SOL    HW139683   8.929   4.560   9.174 -0.9290 -0.9997 -0.8564
43635SOL    HW239684   8.877   4.439   9.248  0.2239 -0.8509  0.2246
43636SOL     OW39685   1.566   7.739   2.470  0.4423 -0.5657 -0.0243
43636SOL    HW139686   1.603   7.680   2.534  0.2417  0.5822  1.1936
43636SOL    HW239687   1.576   7.827   2.508 -0.8191  0.0388 -0.9699
43637SOL     OW39688   4.265   8.293   8.229 -0.2482  0.5510 -0.0226
43637SOL    HW139689   4.333   8.294   8.162 -0.1206 -1.0097  0.0474
43637SOL    HW239690   4.304   8.246   8.302 -1.1396  0.2872  0.2984
43638SOL     OW39691   7.379   4.346   6.886  0.1224 -0.5072 -0.2015
43638SOL    HW139692   7.356   4.438   6.878 -0.0829 -0.5896 -0.6017
43638SOL    HW239693   7.449   4.344   6.951  0.0803 -0.0775 -0.1414
43639SOL     OW39694   7.516   8.689   4.448  0.1974 -0.7268  0.3656
43639SOL    HW139695   7.530   8.640   4.529  1.1560 -2.3049 -0.6920
43639SOL    HW239696   7.601   8.728   4.429 -0.0853 -0.1650  0.2374
43640SOL     OW39697   2.640   7.736  12.174 -0.0089  0.3449  0.1056
43640SOL    HW139698   2.714   7.699  12.126  0.3777  1.7934 -0.4551
43640SOL    HW239699   2.564   7.688  12.142  0.5043 -0.1494 -0.3951
43641SOL     OW39700   6.257   6.414   7.946  0.3228 -0.8959 -0.3074
43641SOL    HW139701   6.281   6.407   8.038  0.3018  1.0526 -0.1086
43641SOL    HW239702   6.338   6.443   7.902 -0.2517  0.5212 -0.4856
43642SOL     OW39703  10.781   0.241   4.089  0.0244 -0.5816  0.2368
43642SOL    HW139704  10.807   0.281   4.173  0.3923  0.0160 -0.1571
43642SOL    HW239705  10.859   0.245   4.035 -0.6097  0.4146 -0.6539
43643SOL     OW39706   1.789   1.804   6.346 -0.4469 -0.0551  0.5418
43643SOL    HW139707   1.743   1.752   6.279 -1.1763 -0.3434  1.2493
43643SOL    HW239708   1.765   1.763   6.429 -0.1707  0.7693  1.0398
43644SOL     OW39709   9.220   6.209  11.985 -0.4620  0.0263 -0.1418
43644SOL    HW139710   9.140   6.216  12.037 -0.1854  0.1430  0.2688
43644SOL    HW239711   9.192   6.166  11.904 -0.7299 -1.0309  0.4818
43645SOL     OW39712   0.271   1.831   6.680 -0.0542  0.6089 -0.1646
43645SOL    HW139713   0.300   1.905   6.733 -1.5233  4.1435 -3.7639
43645SOL    HW239714   0.342   1.816   6.618 -0.4223  0.0345 -0.4615
43646SOL     OW39715   4.160  10.965   3.899 -0.5002 -0.2215  0.9611
43646SOL    HW139716   4.114  10.890   3.861  1.5428 -1.9150  1.6706
43646SOL    HW239717   4.128  10.970   3.989 -0.9512  0.0647  0.7917
43647SOL     OW39718   0.051  10.373  11.113  0.1702 -0.0540  0.5140
43647SOL    HW139719   0.011  10.329  11.188 -0.7761  1.3622  0.9070
43647SOL    HW239720   0.144  10.379  11.135 -0.3190  1.9498  2.5250
43648SOL     OW39721  10.196   2.495   5.100  0.0881  0.0222 -0.2608
43648SOL    HW139722  10.253   2.550   5.046  0.3598 -1.8416 -1.9760
43648SOL    HW239723  10.112   2.497   5.054 -0.2232 -0.1022  0.2976
43649SOL     OW39724   3.932   8.598  11.786  0.0853 -0.6976 -0.1410
43649SOL    HW139725   4.019   8.566  11.808  0.9448 -0.4227 -2.7806
43649SOL    HW239726   3.882   8.591  11.867  2.5233 -0.9423  1.4198
43650SOL     OW39727   6.939   1.730   7.460 -0.7353  0.3620 -0.0885
43650SOL    HW139728   6.933   1.693   7.548 -1.2923  1.9688  0.5910
43650SOL    HW239729   6.921   1.823   7.472 -0.0801  0.7512 -1.8113
43651SOL     OW39730   2.118   1.695   0.585 -0.4169  0.6463 -0.3079
43651SOL    HW139731   2.144   1.680   0.494 -1.6169  1.2842 -0.7822
43651SOL    HW239732   2.168   1.773   0.612  0.4296  0.0746 -0.1924
43652SOL     OW39733   6.984  12.214   4.543  0.3366  0.1052 -0.5758
43652SOL    HW139734   6.930  12.258   4.478 -0.7996  0.0360  0.2948
43652SOL    HW239735   6.991  12.276   4.616  0.0627 -0.5087 -0.0132
43653SOL     OW39736   9.690   4.489   9.809  0.1137 -0.7910 -0.3010
43653SOL    HW139737   9.665   4.528   9.726  0.5086  0.2733  0.0611
43653SOL    HW239738   9.736   4.559   9.856 -0.5604 -1.1919  1.0311
43654SOL     OW39739   1.803   2.178   8.598 -0.2840 -0.0210 -0.0561
43654SOL    HW139740   1.860   2.162   8.673  0.4667 -1.2374 -0.8512
43654SOL    HW239741   1.717   2.144   8.625  0.1499 -1.0876  0.0283
43655SOL     OW39742   1.744   1.390   0.036 -0.1838 -0.2616  0.0245
43655SOL    HW139743   1.791   1.307   0.040 -1.7625 -1.3337 -2.1612
43655SOL    HW239744   1.707   1.393  -0.052  0.4502  3.1470 -0.2715
43656SOL     OW39745   3.234   8.404  12.259 -0.1217 -0.3168 -0.2891
43656SOL    HW139746   3.224   8.475  12.195 -0.3203 -1.8249 -2.0236
43656SOL    HW239747   3.324   8.413  12.290 -0.2351  0.8574 -0.2579
43657SOL     OW39748   7.317   4.859   4.297 -0.0115 -1.3054  0.4496
43657SOL    HW139749   7.326   4.947   4.333 -0.9064 -1.2081  0.4705
43657SOL    HW239750   7.402   4.839   4.258  0.6516 -1.0009  1.6975
43658SOL     OW39751  11.871   6.913   8.160  0.7565 -0.5249 -0.5167
43658SOL    HW139752  11.944   6.972   8.143  0.6198  0.0135  0.6846
43658SOL    HW239753  11.832   6.946   8.241 -1.6971  0.0861 -1.8337
43659SOL     OW39754   7.300   2.587   3.059  0.0115 -0.2073 -0.0580
43659SOL    HW139755   7.219   2.631   3.032  0.2398 -0.2469 -0.8356
43659SOL    HW239756   7.286   2.566   3.151 -0.0265  1.6913  0.4200
43660SOL     OW39757  11.927   7.868   3.707 -0.1681 -0.0199  0.0395
43660SOL    HW139758  11.933   7.958   3.676  1.5066 -0.1206 -0.0242
43660SOL    HW239759  12.009   7.852   3.753 -0.5365 -1.4381  0.2798
43661SOL     OW39760  11.448   7.853  11.646 -0.1962 -0.2074  0.4673
43661SOL    HW139761  11.382   7.882  11.582  1.1338 -0.3000 -1.0081
43661SOL    HW239762  11.433   7.909  11.722 -1.4548  0.3210 -0.1269
43662SOL     OW39763   9.697   1.827   0.392  0.2319  0.0926 -0.4367
43662SOL    HW139764   9.779   1.877   0.389  0.6985 -0.5250  1.1685
43662SOL    HW239765   9.724   1.736   0.382 -0.4076 -0.0169 -1.2343
43663SOL     OW39766   4.983   7.859   6.369  0.1521  0.1521 -0.1305
43663SOL    HW139767   4.915   7.876   6.305  0.8689  0.2075 -0.8946
43663SOL    HW239768   5.011   7.769   6.351  0.2243  0.0980  0.2360
43664SOL     OW39769   4.846   7.928   9.342  0.0485  0.3900  0.2210
43664SOL    HW139770   4.921   7.974   9.304 -0.1689  0.4942 -0.0849
43664SOL    HW239771   4.860   7.933   9.436  1.1853 -0.8371  0.1600
43665SOL     OW39772  10.243  11.129  11.227 -0.0283  0.1225  0.0632
43665SOL    HW139773  10.183  11.072  11.276 -1.1132  0.9881 -0.2119
43665SOL    HW239774  10.308  11.156  11.291 -0.0276 -0.6844  0.4218
43666SOL     OW39775   9.004   9.929   0.678 -0.2751 -0.2961  0.0159
43666SOL    HW139776   9.023   9.849   0.726 -0.3333 -1.2650 -1.4980
43666SOL    HW239777   9.073   9.934   0.612 -1.0566  0.1479 -0.7857
43667SOL     OW39778   9.671   1.566   2.706  0.7099  0.0253 -0.4295
43667SOL    HW139779   9.754   1.604   2.677  1.5728 -1.9558 -0.7596
43667SOL    HW239780   9.620   1.640   2.737  3.1625  1.1833  1.1701
43668SOL     OW39781   8.762  12.352   1.550 -0.1539 -0.2009  0.1293
43668SOL    HW139782   8.702  12.407   1.602 -0.8368 -0.0999 -0.7388
43668SOL    HW239783   8.841  12.346   1.604 -0.7025  0.2067  1.0136
43669SOL     OW39784  10.933   7.249   2.284 -0.0329 -0.2234  0.4058
43669SOL    HW139785  10.922   7.248   2.379  0.4508 -0.2746  0.4630
43669SOL    HW239786  11.023   7.280   2.271 -0.1030 -0.2054 -0.0327
43670SOL     OW39787   6.119   2.456   6.053 -0.1949  0.1504  0.3727
43670SOL    HW139788   6.184   2.478   6.120  0.4824 -0.5812 -0.0282
43670SOL    HW239789   6.158   2.383   6.005 -0.5247  0.8467 -1.0244
43671SOL     OW39790   6.016   0.694   0.998  0.1766  0.8952 -0.3266
43671SOL    HW139791   5.923   0.719   0.992 -0.5072 -1.0104  1.2101
43671SOL    HW239792   6.030   0.637   0.922 -0.0817  0.7123 -0.2402
43672SOL     OW39793   8.660   0.668   2.367 -0.6341 -0.4619  0.1855
43672SOL    HW139794   8.697   0.704   2.448 -2.4119 -2.0620  1.8227
43672SOL    HW239795   8.709   0.711   2.297  2.0128 -0.1006  2.1054
43673SOL     OW39796   7.860   5.822   9.574 -0.1974 -0.4054  0.0725
43673SOL    HW139797   7.930   5.764   9.605  0.3802  0.0027 -0.4598
43673SOL    HW239798   7.882   5.907   9.612  0.8185  0.2349 -1.8312
43674SOL     OW39799  12.212   5.815   8.050 -0.1245 -0.2832  0.1090
43674SOL    HW139800  12.146   5.873   8.089  0.4256  0.7620 -0.4862
43674SOL    HW239801  12.256   5.868   7.985  0.9782 -1.1255  0.1346
43675SOL     OW39802   2.947   2.419  10.373 -0.2393  0.2399  0.1395
43675SOL    HW139803   2.919   2.330  10.352  0.7204 -0.0364 -0.0169
43675SOL    HW239804   2.866   2.467  10.388 -0.7330 -1.1670  2.3692
43676SOL     OW39805   5.227   3.401   3.286  0.1385 -0.6162 -0.4076
43676SOL    HW139806   5.238   3.486   3.243  1.3113 -0.0345  0.9373
43676SOL    HW239807   5.135   3.400   3.314 -0.1540 -0.2383 -1.3208
43677SOL     OW39808   1.019   2.723   2.746 -0.6514  0.1344  0.3793
43677SOL    HW139809   0.993   2.633   2.764  0.1010 -0.0380  0.6559
43677SOL    HW239810   1.015   2.766   2.832  0.5366 -0.0552  0.5520
43678SOL     OW39811   6.070  11.931  11.435 -0.0445  0.1445  0.1068
43678SOL    HW139812   6.141  11.868  11.428 -0.5932 -0.3698 -1.2074
43678SOL    HW239813   6.080  11.987  11.357  0.1244  1.3780  0.9732
43679SOL     OW39814   2.712  10.312   7.237  0.2132 -0.0206 -0.1358
43679SOL    HW139815   2.756  10.228   7.224  0.5151 -0.0261  0.8483
43679SOL    HW239816   2.772  10.377   7.200  0.0859 -0.2050 -0.6815
43680SOL     OW39817   4.075  11.766   2.114  0.3450  0.6399 -0.0626
43680SOL    HW139818   4.010  11.748   2.181 -0.8450  0.1181 -1.3102
43680SOL    HW239819   4.125  11.684   2.106  0.1670  0.5394 -0.1505
43681SOL     OW39820  10.718   8.824   5.649  0.0961 -0.0963  0.1164
43681SOL    HW139821  10.759   8.812   5.563 -0.0435 -1.3173  0.1985
43681SOL    HW239822  10.709   8.735   5.683  0.5410  0.4029  1.5846
43682SOL     OW39823   8.787   8.272   1.708  0.2580  0.0924 -0.0688
43682SOL    HW139824   8.759   8.257   1.618 -2.1764 -0.6791  0.7381
43682SOL    HW239825   8.782   8.367   1.720 -0.4773  0.1051 -0.4393
43683SOL     OW39826   8.621   0.026   9.373 -0.4926 -0.0088 -0.0556
43683SOL    HW139827   8.551  -0.009   9.317 -1.3684 -0.0329  1.0295
43683SOL    HW239828   8.622  -0.033   9.448 -0.0323  0.6345  0.4463
43684SOL     OW39829   5.418  12.106   0.720 -0.1321 -0.0868 -0.1985
43684SOL    HW139830   5.499  12.059   0.701  0.2120 -0.8341  2.7178
43684SOL    HW239831   5.350  12.038   0.717 -0.5031  0.3110 -1.3984
43685SOL     OW39832  11.485   1.221   3.588 -0.1582  0.1682  0.0310
43685SOL    HW139833  11.460   1.135   3.620 -0.8470  0.0436 -0.8052
43685SOL    HW239834  11.516   1.206   3.499 -1.4664  0.9209 -0.5843
43686SOL     OW39835   2.793  12.140   3.576 -0.3775 -1.2999 -0.1131
43686SOL    HW139836   2.786  12.195   3.654  2.4164 -2.3693  1.0401
43686SOL    HW239837   2.824  12.198   3.507  0.6243 -0.9982  0.5713
43687SOL     OW39838   6.429   9.770   0.614  0.3545 -0.3897  0.1165
43687SOL    HW139839   6.503   9.742   0.560  0.0651 -1.3528  0.2076
43687SOL    HW239840   6.456   9.749   0.704  1.0436  1.6557  0.4405
43688SOL     OW39841   8.154   3.712  11.602 -0.0644 -0.9411  0.3479
43688SOL    HW139842   8.117   3.778  11.660 -2.3180 -2.4557  0.7931
43688SOL    HW239843   8.187   3.644  11.661 -4.0016 -3.3668  0.1554
43689SOL     OW39844   4.882   0.949   3.406 -0.0945  0.1276 -0.1315
43689SOL    HW139845   4.909   0.982   3.321  1.6556  0.4065  0.4874
43689SOL    HW239846   4.920   0.861   3.411  1.4365  0.8010  1.0473
43690SOL     OW39847   9.352   3.339   5.648  0.1905  0.1613 -0.3289
43690SOL    HW139848   9.381   3.252   5.672  0.0193  0.0777 -0.4208
43690SOL    HW239849   9.260   3.327   5.622 -0.2293  0.5730  0.8876
43691SOL     OW39850   6.023  11.299   7.856  0.4173 -0.2419 -0.3348
43691SOL    HW139851   5.961  11.351   7.805  1.1672  1.3424  0.2929
43691SOL    HW239852   6.012  11.331   7.946  2.0495  0.0227 -0.1935
43692SOL     OW39853   6.144   1.078   0.042  0.0361  0.1558  0.3662
43692SOL    HW139854   6.206   1.074  -0.031 -1.0453  3.6361 -0.9417
43692SOL    HW239855   6.072   1.021   0.014  0.3672  0.1439 -0.5145
43693SOL     OW39856   0.327  11.981   3.770  0.4317  0.0655  0.3427
43693SOL    HW139857   0.289  12.045   3.829 -1.6199 -0.6042 -0.1392
43693SOL    HW239858   0.395  12.028   3.722  0.5506  1.2188  1.6051
43694SOL     OW39859   0.772   1.640   3.587 -0.6024  0.0725  0.1586
43694SOL    HW139860   0.731   1.575   3.644 -2.2831  0.1717 -0.8809
43694SOL    HW239861   0.786   1.594   3.504  0.6477  0.2921  0.2320
43695SOL     OW39862   9.651  10.380   1.025  0.1263  0.5157 -0.2166
43695SOL    HW139863   9.591  10.443   1.067 -1.1076 -0.8663  0.1925
43695SOL    HW239864   9.681  10.325   1.097 -1.9261 -1.8119 -0.9967
43696SOL     OW39865   4.338  12.144   4.340  0.0230  0.1624  0.3654
43696SOL    HW139866   4.315  12.127   4.248 -0.0410 -0.9516  0.5773
43696SOL    HW239867   4.348  12.058   4.379  0.7109  0.6247  1.2581
43697SOL     OW39868   3.364   8.539   9.054 -0.5383  0.0956 -0.1632
43697SOL    HW139869   3.277   8.499   9.064 -0.4046 -0.2134 -0.2322
43697SOL    HW239870   3.425   8.469   9.075 -0.3076  0.3790  0.1177
43698SOL     OW39871   8.831   7.026   4.170  0.2411  0.4786 -0.4862
43698SOL    HW139872   8.810   7.025   4.263  2.1001  1.2449 -0.0208
43698SOL    HW239873   8.908   7.082   4.162  0.5856 -0.1537 -2.3838
43699SOL     OW39874   2.502   4.398   2.650 -0.3221  0.3242 -0.2700
43699SOL    HW139875   2.430   4.459   2.633 -0.4984  1.3704  3.3512
43699SOL    HW239876   2.580   4.444   2.621 -0.6334  1.5839  0.8161
43700SOL     OW39877  11.019  10.216   2.088  0.3035  0.0996 -0.7161
43700SOL    HW139878  11.019  10.205   1.993  1.9138 -1.4633 -0.5848
43700SOL    HW239879  10.949  10.279   2.105 -1.8253 -1.5369 -2.7129
43701SOL     OW39880   0.988   3.592   2.748  0.4614  0.2195 -0.0923
43701SOL    HW139881   0.920   3.629   2.691 -3.1198 -0.4730  3.2666
43701SOL    HW239882   0.969   3.498   2.749  0.8408  0.1354  1.6363
43702SOL     OW39883   0.200   5.821   2.494 -0.2638 -0.1611 -0.4229
43702SOL    HW139884   0.293   5.810   2.475 -0.0644 -1.5594  1.1423
43702SOL    HW239885   0.198   5.878   2.571 -0.7029 -0.1381 -0.4507
43703SOL     OW39886   3.381  11.214  11.032  0.3506 -0.2400 -0.1584
43703SOL    HW139887   3.347  11.141  10.980 -0.4485 -0.3244  0.4537
43703SOL    HW239888   3.438  11.262  10.972 -1.6540  0.4993 -1.5796
43704SOL     OW39889   1.390   4.833   0.524 -0.3157 -0.2304  0.6393
43704SOL    HW139890   1.452   4.761   0.518 -0.7667 -0.5027 -1.6073
43704SOL    HW239891   1.442   4.907   0.557  0.8448 -0.8134  0.1489
43705SOL     OW39892   0.220   2.209   0.459  0.4496  0.4308  0.0334
43705SOL    HW139893   0.167   2.233   0.535  0.7851 -0.9463  0.7325
43705SOL    HW239894   0.211   2.114   0.453 -0.5470  0.6134 -2.3940
43706SOL     OW39895   6.556   5.904   9.591 -0.1182  0.6675 -0.1450
43706SOL    HW139896   6.551   5.934   9.682 -2.1172 -1.8177  0.7050
43706SOL    HW239897   6.649   5.892   9.575  0.2589  0.4478  1.8878
43707SOL     OW39898  10.062   4.437   1.547  0.2982  0.2007  0.4838
43707SOL    HW139899  10.089   4.392   1.626  0.4259  0.3615  0.5328
43707SOL    HW239900  10.133   4.499   1.529  1.3950 -1.4229 -1.0643
43708SOL     OW39901   4.832   3.674   0.024 -0.6982  0.1215  0.2325
43708SOL    HW139902   4.844   3.689   0.118 -0.2652  0.5454  0.1131
43708SOL    HW239903   4.914   3.633  -0.004 -1.0039 -0.4280  0.1202
43709SOL     OW39904   7.710  11.900  12.462  0.0713  0.1528 -0.6734
43709SOL    HW139905   7.733  11.864  12.548 -0.5095 -0.6914 -0.8495
43709SOL    HW239906   7.671  11.985  12.481  2.8443  1.4399 -0.3494
43710SOL     OW39907   0.926   5.796   1.335  0.6834  0.3160  0.1627
43710SOL    HW139908   0.964   5.867   1.388  1.9957  0.2247 -0.6010
43710SOL    HW239909   0.833   5.816   1.332  0.6905  0.7514  1.8427
43711SOL     OW39910   0.476   0.912   2.882 -0.0717 -0.3622 -0.0175
43711SOL    HW139911   0.561   0.939   2.916 -1.2991  1.1922  2.0504
43711SOL    HW239912   0.423   0.895   2.960 -1.1266 -3.2721 -1.2417
43712SOL     OW39913   2.979  10.871  12.244 -0.1203  0.3376 -0.0902
43712SOL    HW139914   3.018  10.788  12.217  0.4440  0.6989 -0.4188
43712SOL    HW239915   2.898  10.877  12.194 -0.2655 -0.1138  0.0902
43713SOL     OW39916   1.899   7.145   3.374 -0.7166  0.1760  0.4275
43713SOL    HW139917   1.892   7.154   3.469 -0.4769  0.9734  0.3789
43713SOL    HW239918   1.989   7.172   3.354 -0.0358 -2.0693  0.1925
43714SOL     OW39919   4.722   2.354  10.963  0.2103  0.4370  0.0148
43714SOL    HW139920   4.802   2.407  10.966  0.2441  0.4164 -0.5043
43714SOL    HW239921   4.651   2.418  10.960  0.2533  0.4516 -0.6625
43715SOL     OW39922   6.119   1.406   3.722  0.0490  0.4227  0.1124
43715SOL    HW139923   6.033   1.364   3.725  0.6903 -1.0932 -1.0669
43715SOL    HW239924   6.156   1.392   3.809 -0.9842  1.3464  0.7261
43716SOL     OW39925   2.020  12.499  11.797  0.3418 -0.4559 -0.2493
43716SOL    HW139926   1.940  12.521  11.748 -0.2027 -1.5898  0.0958
43716SOL    HW239927   2.083  12.475  11.729  1.0523  2.2738 -0.6639
43717SOL     OW39928  10.836   4.321   1.901  0.3177 -0.1878 -0.3808
43717SOL    HW139929  10.847   4.343   1.809 -1.3112  1.0952 -0.2977
43717SOL    HW239930  10.754   4.271   1.905  0.1314  0.1674  0.4314
43718SOL     OW39931   0.846   5.642  11.812 -0.7367  0.3853 -0.8488
43718SOL    HW139932   0.796   5.590  11.875 -0.3458  0.1252 -0.7536
43718SOL    HW239933   0.799   5.726  11.808 -0.7848  0.3898 -0.2439
43719SOL     OW39934   1.679   0.831  12.187  0.0620 -0.7751  0.0111
43719SOL    HW139935   1.731   0.768  12.137 -1.4942 -2.0896 -0.0499
43719SOL    HW239936   1.655   0.898  12.123  1.2287 -0.4226 -0.0727
43720SOL     OW39937   1.258   5.570   6.091  0.0861 -0.0832  0.6502
43720SOL    HW139938   1.330   5.506   6.091  0.0639 -0.1140  1.0811
43720SOL    HW239939   1.290   5.641   6.147  0.6209  0.8791 -0.8103
43721SOL     OW39940   5.530   2.069   0.186  0.2751 -0.1387  0.1254
43721SOL    HW139941   5.513   2.057   0.093 -1.8006  1.0152  0.2959
43721SOL    HW239942   5.596   2.004   0.207 -1.2999 -2.4050 -1.5211
43722SOL     OW39943   4.583   0.744   4.446  0.3484 -0.3002 -0.0590
43722SOL    HW139944   4.571   0.724   4.353  0.1603 -0.4693  0.0023
43722SOL    HW239945   4.625   0.830   4.447  0.8351 -0.5305 -0.3172
43723SOL     OW39946   2.402   7.986   7.591  0.3349  0.2302  0.2526
43723SOL    HW139947   2.404   7.892   7.608 -1.8341  0.0667 -0.1078
43723SOL    HW239948   2.427   7.994   7.499  0.6129  0.0283  0.3082
43724SOL     OW39949   2.827   3.322   2.350  0.2596 -0.3207  0.7707
43724SOL    HW139950   2.757   3.282   2.299 -0.8166  0.1854  1.8172
43724SOL    HW239951   2.834   3.267   2.428  0.5017  0.0713  1.0273
43725SOL     OW39952   7.507   1.981   7.133  0.6134 -0.2057  0.2529
43725SOL    HW139953   7.494   2.068   7.172  1.6128  0.4365 -0.8267
43725SOL    HW239954   7.497   1.921   7.207 -1.2505  0.7087  0.8245
43726SOL     OW39955   3.654   7.524   2.168 -0.0741  0.2127  0.1505
43726SOL    HW139956   3.720   7.527   2.238  0.3277 -1.5726 -0.0868
43726SOL    HW239957   3.620   7.435   2.172  0.3610 -0.1326 -2.2562
43727SOL     OW39958   4.633   3.910   0.866  0.3682 -0.3836  0.4207
43727SOL    HW139959   4.569   3.854   0.824  0.8884 -1.4882  1.0352
43727SOL    HW239960   4.593   3.996   0.867 -0.7345 -0.8724  0.0264
43728SOL     OW39961   5.152   1.296   6.695  0.2834  0.5226  0.9408
43728SOL    HW139962   5.212   1.227   6.666 -0.4639 -0.1577  1.0053
43728SOL    HW239963   5.174   1.371   6.640  1.8575  0.5979  1.6128
43729SOL     OW39964   8.080   8.094   9.077  0.5531 -0.4614 -0.2405
43729SOL    HW139965   8.024   8.017   9.072  2.9014 -2.4776  1.6939
43729SOL    HW239966   8.042   8.147   9.148 -1.0349  0.2067 -1.5335
43730SOL     OW39967   0.181   3.493   7.092  0.3768 -0.7438  0.1105
43730SOL    HW139968   0.149   3.478   7.181 -0.1841 -3.0477 -0.4124
43730SOL    HW239969   0.133   3.569   7.061 -0.4720 -0.7807  1.2826
43731SOL     OW39970   3.555  12.043   7.765  0.3951  0.2393  0.5127
43731SOL    HW139971   3.562  12.073   7.674  1.0088 -0.2270  0.4074
43731SOL    HW239972   3.517  11.956   7.759 -2.2869  1.2796  0.8666
43732SOL     OW39973  10.481   1.965   0.950 -0.7103 -0.0215  0.2508
43732SOL    HW139974  10.574   1.986   0.965 -0.9948  1.2468  0.4081
43732SOL    HW239975  10.459   1.904   1.020 -0.2009  0.3258  0.7281
43733SOL     OW39976  10.789   3.946   2.602 -0.3116  0.4496  0.4922
43733SOL    HW139977  10.865   3.889   2.612  1.0241  1.5851 -2.2333
43733SOL    HW239978  10.804   4.017   2.665 -0.2367 -0.3883  1.4462
43734SOL     OW39979   1.660   0.501   1.645 -0.4145 -0.4785 -0.1161
43734SOL    HW139980   1.668   0.592   1.670  1.3002 -0.7999  0.6006
43734SOL    HW239981   1.634   0.503   1.553  0.1681  0.7289 -0.2616
43735SOL     OW39982  11.541   9.919   3.654 -0.0392 -0.1043 -0.6224
43735SOL    HW139983  11.503  10.002   3.626  0.9096  0.9328  1.0081
43735SOL    HW239984  11.589   9.887   3.577  1.2166  1.8531 -0.7320
43736SOL     OW39985   4.274   9.800  11.781 -0.0737 -0.1030  0.0378
43736SOL    HW139986   4.195   9.746  11.792 -0.6309  0.4562 -1.1025
43736SOL    HW239987   4.247   9.887  11.809  0.0338  0.1674 -0.6983
43737SOL     OW39988   1.381   5.441   9.341  0.2919  0.7453  0.1247
43737SOL    HW139989   1.346   5.469   9.426 -0.4736  1.8305 -0.5182
43737SOL    HW239990   1.304   5.407   9.294  0.9593 -1.2212  0.3623
43738SOL     OW39991  11.430   0.191   1.100  0.5495  0.0206 -0.1523
43738SOL    HW139992  11.350   0.206   1.150  0.1425 -0.5538 -0.6133
43738SOL    HW239993  11.417   0.238   1.018  0.6187 -0.1924 -0.2886
43739SOL     OW39994   2.107   2.529   8.439  0.3041  0.0953  0.5237
43739SOL    HW139995   2.186   2.525   8.386 -0.0798  0.3149 -0.0747
43739SOL    HW239996   2.066   2.443   8.427 -0.0797  0.3466 -0.0118
43740SOL     OW39997   1.393   6.784   9.081 -0.5407 -0.1629  0.4889
43740SOL    HW139998   1.346   6.827   9.010 -0.5939 -0.4117  0.3725
43740SOL    HW239999   1.485   6.798   9.061 -0.5345 -1.1562 -0.2036
43741SOL     OW40000   1.396   8.282   2.232  0.4738 -0.6732 -0.4212
43741SOL    HW140001   1.460   8.311   2.167  0.9948 -1.8207 -0.4415
43741SOL    HW240002   1.448   8.261   2.309 -0.0332 -0.3221  0.0230
43742SOL     OW40003   4.538   4.086   2.643  0.8683  0.3972 -0.1190
43742SOL    HW140004   4.621   4.040   2.645  1.1147  0.8401  2.2866
43742SOL    HW240005   4.531   4.120   2.553  2.5542 -0.8845 -0.7712
43743SOL     OW40006  10.088   4.753   8.550 -0.1070 -0.4942 -0.2829
43743SOL    HW140007  10.013   4.757   8.490  0.2692 -0.5615 -0.7589
43743SOL    HW240008  10.148   4.690   8.510  1.1480  1.0776 -0.9918
43744SOL     OW40009   0.986  10.700   1.677 -0.6018  0.4474  0.1089
43744SOL    HW140010   0.894  10.690   1.653 -0.0807 -0.2494 -1.8179
43744SOL    HW240011   1.011  10.614   1.713 -0.8860  0.8995  1.4518
43745SOL     OW40012   9.503   8.767   3.229  0.7103 -0.4849 -0.4361
43745SOL    HW140013   9.583   8.719   3.210  1.5889 -0.2711  2.3453
43745SOL    HW240014   9.527   8.828   3.300 -1.0522  2.0870 -1.8667
43746SOL     OW40015   7.614   2.376   2.680 -0.6891 -0.1776  0.1997
43746SOL    HW140016   7.675   2.302   2.677  0.8843  1.0834 -0.1841
43746SOL    HW240017   7.550   2.356   2.612  0.1450 -0.8479 -0.4113
43747SOL     OW40018   4.685   7.603   1.738  0.5656 -0.0119  0.0828
43747SOL    HW140019   4.655   7.518   1.770  3.5842 -2.4753 -2.8851
43747SOL    HW240020   4.624   7.625   1.668  0.3626 -0.2324  0.1882
43748SOL     OW40021   6.124   7.988  10.643 -0.1230 -0.6117  0.7021
43748SOL    HW140022   6.041   7.947  10.668 -1.1925  2.3658  2.4784
43748SOL    HW240023   6.184   7.964  10.714  1.3156 -4.3679 -1.5015
43749SOL     OW40024   4.663   3.483   3.654 -0.1589  0.1685 -0.2557
43749SOL    HW140025   4.616   3.566   3.668 -1.0455  0.1183 -2.4736
43749SOL    HW240026   4.610   3.436   3.590  1.1393 -1.4660 -0.2031
43750SOL     OW40027   0.946   9.869   6.527 -0.2232  0.0673 -0.2415
43750SOL    HW140028   0.915   9.833   6.444  0.4201 -0.6807 -0.1659
43750SOL    HW240029   0.930   9.800   6.591 -0.5075  0.5552  0.2285
43751SOL     OW40030   4.341   3.515   3.167 -0.3487  0.8018 -0.6728
43751SOL    HW140031   4.407   3.555   3.223 -1.2911  1.3341  0.0896
43751SOL    HW240032   4.262   3.568   3.182 -0.8725  0.3623 -1.7805
43752SOL     OW40033   3.446   3.719   5.508  0.5022 -0.5029  0.0508
43752SOL    HW140034   3.396   3.759   5.580 -0.6378 -0.7624 -0.5878
43752SOL    HW240035   3.505   3.789   5.480 -1.7403  0.9937 -1.3157
43753SOL     OW40036   7.286   1.317   5.685 -0.2066 -0.4890  0.5151
43753SOL    HW140037   7.199   1.337   5.719 -0.2714 -0.5060  0.3591
43753SOL    HW240038   7.306   1.389   5.626  0.2354 -0.0495  1.1774
43754SOL     OW40039   9.934   4.869  11.125 -0.1844  0.5302 -0.1120
43754SOL    HW140040  10.003   4.885  11.190 -0.6910 -0.1114  0.6140
43754SOL    HW240041   9.896   4.954  11.108 -0.3581  0.6452  0.8074
43755SOL     OW40042  11.184   1.430   8.063 -0.7543 -0.6365 -0.1924
43755SOL    HW140043  11.133   1.368   8.010 -0.7042  0.4168 -1.5310
43755SOL    HW240044  11.175   1.513   8.018 -0.7978  0.3573  1.5615
43756SOL     OW40045   9.097   4.583   2.489  0.3980 -0.0115 -0.1521
43756SOL    HW140046   9.034   4.576   2.417  0.2408 -2.5533  0.1653
43756SOL    HW240047   9.141   4.667   2.473 -0.5081  0.1070 -2.4741
43757SOL     OW40048   2.612   3.909   8.490  0.1364 -0.2157  0.0095
43757SOL    HW140049   2.523   3.917   8.526  0.9226  3.1389  1.5285
43757SOL    HW240050   2.630   3.993   8.449  2.8318 -0.5776  0.2622
43758SOL     OW40051   0.008   2.453  11.076 -0.4013  0.0663 -0.6491
43758SOL    HW140052   0.045   2.541  11.078 -1.6777  0.6500 -1.5089
43758SOL    HW240053  -0.017   2.439  10.985  0.9784 -1.7392 -0.8265
43759SOL     OW40054   6.546   8.733   7.700  0.2715  0.3152  0.4066
43759SOL    HW140055   6.454   8.754   7.688  0.1894  0.3253  1.0125
43759SOL    HW240056   6.589   8.818   7.710  0.5440  0.3844 -1.0875
43760SOL     OW40057   0.545   2.774   2.153  0.5074  0.0184  0.3691
43760SOL    HW140058   0.614   2.742   2.094  0.2835 -0.6236  0.4505
43760SOL    HW240059   0.508   2.695   2.192  0.0588  0.3904  0.7072
43761SOL     OW40060   6.671   9.597   5.295  0.1730  0.3111 -0.3520
43761SOL    HW140061   6.699   9.577   5.206 -1.1248  1.2659 -0.9973
43761SOL    HW240062   6.579   9.573   5.298 -0.2059  1.6947  0.2447
43762SOL     OW40063   9.365   5.077   0.197  0.4522 -0.2599  0.5139
43762SOL    HW140064   9.379   5.172   0.194  0.8908 -0.2976  1.0759
43762SOL    HW240065   9.432   5.041   0.138 -0.1142 -0.1924 -0.1877
43763SOL     OW40066   5.275   0.740   4.701 -0.1550 -0.6222  0.2465
43763SOL    HW140067   5.194   0.707   4.741 -0.2466 -0.0833  0.5199
43763SOL    HW240068   5.344   0.714   4.762 -0.3280  0.4713  0.9484
43764SOL     OW40069  10.922   2.246   0.426  0.4955  0.0895 -0.4204
43764SOL    HW140070  10.951   2.158   0.402  1.0929  0.4298 -0.9883
43764SOL    HW240071  10.827   2.244   0.417  0.2618 -1.1232  1.6826
43765SOL     OW40072  10.253  12.284   6.830 -0.3115  0.3022 -0.1067
43765SOL    HW140073  10.243  12.190   6.843 -2.4209  0.5680  0.4757
43765SOL    HW240074  10.288  12.316   6.913  1.2026 -0.0343 -0.5799
43766SOL     OW40075  12.150   3.549   1.080 -0.5036 -0.1023  0.0344
43766SOL    HW140076  12.235   3.586   1.056 -0.0911 -1.7172 -1.2005
43766SOL    HW240077  12.139   3.573   1.172  1.0246  0.6237  0.0743
43767SOL     OW40078  12.325  11.161   7.842  0.6918 -0.3297  0.5255
43767SOL    HW140079  12.260  11.091   7.834  0.5411 -0.0449 -1.2207
43767SOL    HW240080  12.396  11.123   7.894  0.4855 -1.6745 -0.1404
43768SOL     OW40081   0.983  11.877   0.813 -0.1274  0.3783 -0.0820
43768SOL    HW140082   1.046  11.858   0.882 -0.4858  0.4116  0.2593
43768SOL    HW240083   0.900  11.841   0.845 -0.0626 -0.6798 -1.0219
43769SOL     OW40084   1.350   5.649  10.841 -0.2439  0.4219 -0.7565
43769SOL    HW140085   1.284   5.583  10.817 -0.6949 -0.9416  3.3563
43769SOL    HW240086   1.299   5.726  10.867 -0.1292  0.2398  0.0536
43770SOL     OW40087   0.165   5.356  10.484 -0.1515 -0.1026  0.0986
43770SOL    HW140088   0.142   5.437  10.439 -0.9721 -0.5151 -0.2343
43770SOL    HW240089   0.210   5.304  10.418  2.1842  0.8522  0.8445
43771SOL     OW40090   4.325   3.987   5.209 -0.0231  0.6058 -0.4151
43771SOL    HW140091   4.287   4.066   5.248  1.0376  0.0404  1.9777
43771SOL    HW240092   4.398   4.020   5.156 -1.1060  1.3615 -1.5036
43772SOL     OW40093   6.214  10.816   1.018 -0.2514 -0.4630  0.3767
43772SOL    HW140094   6.121  10.810   1.038 -0.3549 -0.2885 -0.0440
43772SOL    HW240095   6.222  10.893   0.962  0.4656  0.8479  2.2044
43773SOL     OW40096  12.050  10.982   3.520 -0.1636 -0.1568  0.1767
43773SOL    HW140097  11.967  10.943   3.548 -0.0912 -0.3056  0.1810
43773SOL    HW240098  12.050  11.069   3.559  0.2785 -0.6350  1.2669
43774SOL     OW40099   3.693   5.525   7.057 -0.0522 -0.5135 -0.8928
43774SOL    HW140100   3.782   5.502   7.030  0.2943  1.5108 -1.6484
43774SOL    HW240101   3.637   5.476   6.996  0.5548 -1.1336 -0.9723
43775SOL     OW40102   6.825   2.850   2.674  0.0198 -0.0501  0.0391
43775SOL    HW140103   6.763   2.836   2.746  0.2879 -2.1098 -0.0847
43775SOL    HW240104   6.894   2.786   2.688  1.3417  1.1260 -0.7414
43776SOL     OW40105  12.050   4.859   6.931  0.3823  0.2360 -0.2302
43776SOL    HW140106  11.975   4.831   6.984  0.5436  0.6212  0.2083
43776SOL    HW240107  12.098   4.778   6.913  0.5314  0.1463  0.5369
43777SOL     OW40108   6.991   8.549   9.491 -0.0557 -0.1256  0.1163
43777SOL    HW140109   6.901   8.519   9.502  0.1959  0.0582  4.0677
43777SOL    HW240110   6.984   8.644   9.483 -0.2251 -0.0671  0.8820
43778SOL     OW40111   5.034  10.118   2.642  0.0867 -0.3535 -0.1201
43778SOL    HW140112   4.947  10.123   2.682  0.3945  1.5129  0.4422
43778SOL    HW240113   5.026  10.053   2.573 -1.6264 -0.5545  0.2330
43779SOL     OW40114   4.625   7.519   2.758 -0.4187 -0.4300 -0.4704
43779SOL    HW140115   4.604   7.549   2.669 -1.2895  0.1316 -0.0878
43779SOL    HW240116   4.551   7.464   2.783  0.8063 -2.3630 -0.8694
43780SOL     OW40117   3.753  10.063   8.278  0.6861 -0.6983 -0.7089
43780SOL    HW140118   3.699  10.036   8.204 -0.9365 -0.7910  0.4443
43780SOL    HW240119   3.741   9.994   8.343  0.7321  0.1744  0.2521
43781SOL     OW40120  10.439   4.625  12.234 -0.4743 -0.2273 -0.7062
43781SOL    HW140121  10.455   4.588  12.320 -0.0295 -1.7218 -1.3856
43781SOL    HW240122  10.427   4.719  12.249  1.5621 -0.1362  0.7509
43782SOL     OW40123   6.579   6.428   1.840  0.7103  0.2028 -0.8450
43782SOL    HW140124   6.511   6.361   1.847  1.1723 -0.1221  0.9657
43782SOL    HW240125   6.658   6.379   1.819  0.6576  0.4433 -1.6522
43783SOL     OW40126   9.600   8.022   9.731 -0.0771 -0.4367  0.1883
43783SOL    HW140127   9.658   7.977   9.671 -0.4929  0.5490 -1.0098
43783SOL    HW240128   9.562   8.093   9.678  0.0009  0.8387  1.7814
43784SOL     OW40129   4.914   7.705   1.938  0.3024 -0.2337 -0.0936
43784SOL    HW140130   4.923   7.624   1.987 -0.5496 -0.2369  0.0652
43784SOL    HW240131   4.869   7.680   1.857  0.2469  0.0418 -0.1486
43785SOL     OW40132  12.423  12.025   1.297 -0.2533  0.5342  0.0527
43785SOL    HW140133  12.504  12.040   1.248 -1.4118  2.3488 -1.4720
43785SOL    HW240134  12.452  11.994   1.383  1.9904  0.1690 -0.7724
43786SOL     OW40135   5.377   1.555   2.724 -0.1417  0.1766 -0.0325
43786SOL    HW140136   5.459   1.535   2.680  0.9303  4.5322 -0.4820
43786SOL    HW240137   5.313   1.567   2.654 -0.2357  0.2993  0.0728
43787SOL     OW40138   2.370   6.202   7.861 -0.7908 -0.2798  0.1963
43787SOL    HW140139   2.323   6.152   7.794  0.3145 -0.8545 -0.1667
43787SOL    HW240140   2.428   6.260   7.812 -0.3244 -0.3622  0.6417
43788SOL     OW40141  11.970   8.264  10.282 -0.1101  0.3720  0.4145
43788SOL    HW140142  11.965   8.237  10.190  1.2998  1.2293  0.0512
43788SOL    HW240143  12.055   8.308  10.289 -0.8870  1.7626  1.7326
43789SOL     OW40144   4.929   8.246  11.084  0.6160 -0.3466  0.0424
43789SOL    HW140145   4.958   8.242  10.993  0.1626 -1.1073 -0.0793
43789SOL    HW240146   4.845   8.291  11.080  0.5665 -0.4361  0.0755
43790SOL     OW40147   0.104   0.135   6.464 -0.4986 -0.4209  0.4682
43790SOL    HW140148   0.130   0.047   6.493  0.0082  0.2028  2.0328
43790SOL    HW240149   0.132   0.140   6.373  1.5463 -1.0998  1.0107
43791SOL     OW40150   9.639   2.374  10.237  0.3201  0.1031  0.2249
43791SOL    HW140151   9.602   2.377  10.325  0.2921  1.2587  0.1901
43791SOL    HW240152   9.614   2.458  10.198  3.1921  1.1271  0.3184
43792SOL     OW40153   2.079   1.278   9.920  0.4054 -0.0973  0.3038
43792SOL    HW140154   2.038   1.255  10.003  0.4416  2.0692  0.9784
43792SOL    HW240155   2.032   1.226   9.855  1.5362 -3.2038  1.7818
43793SOL     OW40156   7.811   6.287  10.836  0.4056  0.2922 -0.2450
43793SOL    HW140157   7.820   6.366  10.784 -0.6281  1.3841  1.1649
43793SOL    HW240158   7.727   6.297  10.881  0.2769 -1.5803  0.0093
43794SOL     OW40159   4.400   5.979   0.031  0.1172  0.0716  0.4354
43794SOL    HW140160   4.434   5.901   0.075  0.3513  1.5014  2.9755
43794SOL    HW240161   4.468   6.045   0.044  0.1277  0.6448 -2.0530
43795SOL     OW40162   9.857  11.761  11.617 -0.3698  0.4355  0.0068
43795SOL    HW140163   9.936  11.723  11.579 -1.9347 -1.1959 -1.8733
43795SOL    HW240164   9.843  11.712  11.698 -2.0739 -2.9875 -2.1184
43796SOL     OW40165   6.354   1.355   8.536 -0.2082  0.1456 -0.5324
43796SOL    HW140166   6.420   1.287   8.545 -0.0764  0.5258  2.0724
43796SOL    HW240167   6.394   1.419   8.476  1.6110  0.1308  0.5938
43797SOL     OW40168   1.243   9.628   9.766 -0.1157 -0.1628  0.1401
43797SOL    HW140169   1.330   9.646   9.801 -0.6526 -0.4842  1.7217
43797SOL    HW240170   1.182   9.662   9.832 -1.2152  0.7850 -1.3034
43798SOL     OW40171   6.284   1.348  12.058  0.1270 -0.0963 -0.1837
43798SOL    HW140172   6.300   1.277  11.996  1.5173  0.0015  0.0358
43798SOL    HW240173   6.371   1.379  12.082 -0.4292  0.8166  0.7328
43799SOL     OW40174  10.564  10.432   2.869 -0.0800 -0.6449 -0.3223
43799SOL    HW140175  10.625  10.505   2.855 -0.3014 -0.3972 -0.0024
43799SOL    HW240176  10.594  10.392   2.951 -0.8856  0.0203  0.3061
43800SOL     OW40177   7.294   2.304   4.369  0.0656 -0.3234 -0.6222
43800SOL    HW140178   7.299   2.281   4.462 -0.7644 -1.5925 -0.8488
43800SOL    HW240179   7.349   2.239   4.325 -0.6785 -0.6305 -1.1251
43801SOL     OW40180  10.926   6.292   2.748  0.0661 -0.1328 -0.0693
43801SOL    HW140181  10.872   6.214   2.738 -1.0545  0.4033  1.4068
43801SOL    HW240182  10.933   6.329   2.660 -1.3208 -0.6645 -0.4290
43802SOL     OW40183   3.216  11.681  12.313  0.1609  0.0079  0.2350
43802SOL    HW140184   3.153  11.644  12.375  1.2850 -1.2520  0.6642
43802SOL    HW240185   3.175  11.668  12.227 -0.7111  0.3543  0.5865
43803SOL     OW40186   1.227   4.672   0.777  0.5946  0.3963  0.4571
43803SOL    HW140187   1.322   4.681   0.788  0.9079  0.4421 -1.7263
43803SOL    HW240188   1.197   4.758   0.750 -0.0011  0.2705  0.7000
43804SOL     OW40189   6.547  11.583   9.803 -0.0718  0.7726  0.3751
43804SOL    HW140190   6.553  11.648   9.732  0.8498  0.7284  0.4014
43804SOL    HW240191   6.571  11.631   9.882  0.6239  0.4109  0.3937
43805SOL     OW40192   0.573   5.548   9.685 -0.3469 -0.2040  0.3003
43805SOL    HW140193   0.565   5.496   9.765  2.4614 -0.9495  0.2063
43805SOL    HW240194   0.610   5.631   9.715 -0.4271 -0.0307 -0.0802
43806SOL     OW40195   8.814  12.156  12.168  0.1101  0.0692 -0.0915
43806SOL    HW140196   8.865  12.173  12.248  0.0037  0.3499 -0.0827
43806SOL    HW240197   8.790  12.243  12.136  2.5625  0.1421 -2.0220
43807SOL     OW40198   0.410   3.034   7.313 -0.0727  0.3510 -0.0523
43807SOL    HW140199   0.465   3.107   7.342 -0.1465  0.3992 -0.0356
43807SOL    HW240200   0.372   2.998   7.393 -0.2195  0.4393 -0.0823
43808SOL     OW40201   6.140   4.840   9.722  0.2672  0.4397 -0.3877
43808SOL    HW140202   6.191   4.762   9.746 -0.5115 -0.6685 -2.1108
43808SOL    HW240203   6.132   4.889   9.804  2.9820  0.0406  0.2150
43809SOL     OW40204   2.847   8.664  11.448  0.1485  0.4977  0.0265
43809SOL    HW140205   2.780   8.605  11.414 -1.3437  2.5348 -0.7628
43809SOL    HW240206   2.884   8.617  11.523 -0.9465 -1.4100 -0.5634
43810SOL     OW40207   7.917   4.572   3.028  0.0618 -0.1643  0.2087
43810SOL    HW140208   8.002   4.581   2.984  0.6473 -1.0941  1.1014
43810SOL    HW240209   7.903   4.657   3.069  0.2861  0.1813 -0.4030
43811SOL     OW40210   2.751   9.300   0.534  0.1566  0.4565 -0.2730
43811SOL    HW140211   2.717   9.326   0.620  1.4983 -1.1489  0.8131
43811SOL    HW240212   2.689   9.337   0.471 -1.7573  0.3277  1.4451
43812SOL     OW40213   6.148  11.260   5.109 -0.0895  0.4342 -0.1042
43812SOL    HW140214   6.156  11.302   5.023  0.1251  0.6101  0.0031
43812SOL    HW240215   6.238  11.249   5.139 -0.1115 -0.5522 -0.3475
43813SOL     OW40216   6.250   4.098   5.878 -0.1803  0.6416 -0.4118
43813SOL    HW140217   6.305   4.170   5.908 -2.3894  1.9305  0.8865
43813SOL    HW240218   6.287   4.020   5.920  0.1676  1.5908  1.1059
43814SOL     OW40219   2.526   3.402  12.286 -0.0464  1.2080 -0.3664
43814SOL    HW140220   2.517   3.452  12.205 -1.6441  0.3307 -0.7833
43814SOL    HW240221   2.482   3.454  12.352  0.2043  1.3607 -0.3182
43815SOL     OW40222   7.494   2.210   5.004  0.0568  0.3466  0.1254
43815SOL    HW140223   7.537   2.174   5.081  1.1481 -0.4080 -0.7918
43815SOL    HW240224   7.566   2.235   4.946 -0.6778  2.9947  0.2343
43816SOL     OW40225   9.469   0.222   0.839  0.0711  0.4230  0.1449
43816SOL    HW140226   9.469   0.300   0.783 -3.4221  0.1697 -0.4713
43816SOL    HW240227   9.401   0.239   0.904  2.2711 -0.3771  2.8512
43817SOL     OW40228  11.853   9.902  11.225  0.4427  0.2984  0.3295
43817SOL    HW140229  11.811   9.822  11.193 -0.6120  0.8245  0.3454
43817SOL    HW240230  11.828   9.970  11.162 -0.6808  1.0989  1.5707
43818SOL     OW40231   3.038   6.301   2.448 -0.3012 -0.2614 -0.4111
43818SOL    HW140232   3.011   6.297   2.540  2.2222  0.3128  0.4389
43818SOL    HW240233   3.033   6.210   2.418  0.0590 -0.6689  0.6976
43819SOL     OW40234   4.927  12.298   6.548  0.4153  0.7031  0.2997
43819SOL    HW140235   4.927  12.362   6.477  0.3409 -1.1938 -1.5150
43819SOL    HW240236   4.939  12.214   6.504  1.1831 -0.4901  2.6329
43820SOL     OW40237   3.957   4.700   6.153 -0.3949  0.3770  0.7153
43820SOL    HW140238   3.962   4.636   6.223  0.1145 -1.4550 -0.9157
43820SOL    HW240239   3.911   4.655   6.082  2.0977  0.8879 -1.3793
43821SOL     OW40240  10.774   2.817   3.978  0.3849  0.1640  0.0586
43821SOL    HW140241  10.825   2.748   3.934  1.6771  2.3078 -2.0183
43821SOL    HW240242  10.691   2.819   3.931  0.7856  0.7372 -0.6509
43822SOL     OW40243   4.407   1.132   1.117 -0.5539 -0.3332  0.1575
43822SOL    HW140244   4.482   1.088   1.157  0.5838  1.9878  0.7235
43822SOL    HW240245   4.444   1.180   1.043 -1.8078 -0.5478 -0.6413
43823SOL     OW40246   3.507  12.210   2.034 -0.2548  0.0352  0.0374
43823SOL    HW140247   3.594  12.190   2.070  0.1721 -2.5784 -2.1305
43823SOL    HW240248   3.524  12.268   1.960 -0.2189 -1.1420 -0.9009
43824SOL     OW40249  10.133   5.265   2.614 -0.3586 -0.4538  0.0473
43824SOL    HW140250  10.104   5.282   2.703 -0.7101  0.9858 -0.3086
43824SOL    HW240251  10.228   5.278   2.616 -0.4924  0.6041  0.0125
43825SOL     OW40252   5.771   9.426   9.687 -0.0195 -0.7055  0.4875
43825SOL    HW140253   5.680   9.424   9.655 -0.0016 -3.8890  0.2950
43825SOL    HW240254   5.822   9.386   9.616  1.1179 -1.2726  1.5884
43826SOL     OW40255   7.896   7.097   7.094  0.1224  0.5216 -0.2339
43826SOL    HW140256   7.847   7.019   7.068  1.4564 -0.3603 -0.2358
43826SOL    HW240257   7.830   7.165   7.105 -1.1307 -0.7111  0.1564
43827SOL     OW40258   1.357   8.075   0.126 -0.1192  0.2571  0.0735
43827SOL    HW140259   1.281   8.087   0.183 -0.0455  0.3256  0.1584
43827SOL    HW240260   1.328   8.109   0.041  0.0447  0.9463  0.2812
43828SOL     OW40261   6.134   2.426   9.138  0.2625 -0.0035  0.0217
43828SOL    HW140262   6.055   2.475   9.160  0.9444  1.1665 -0.0797
43828SOL    HW240263   6.125   2.344   9.187  0.4605  1.4080  2.5890
43829SOL     OW40264  10.929  11.069   2.526  0.2476 -0.3258 -0.2687
43829SOL    HW140265  10.959  10.979   2.519  0.0821 -0.4034 -0.0037
43829SOL    HW240266  10.835  11.065   2.507  0.2057 -0.2351 -0.0824
43830SOL     OW40267   4.781   9.742   5.304  0.1300 -0.2156  0.0146
43830SOL    HW140268   4.828   9.661   5.284  0.1949 -0.2230  0.1997
43830SOL    HW240269   4.817   9.771   5.387 -0.8281 -0.7132  0.6248
43831SOL     OW40270  11.136   6.846   4.637 -0.0251  0.2851 -0.1246
43831SOL    HW140271  11.067   6.893   4.683  0.4800  0.1957  0.7488
43831SOL    HW240272  11.178   6.913   4.583  0.2688  0.7063  0.6108
43832SOL     OW40273   1.267  10.261   0.946 -0.5998 -0.5009  0.0561
43832SOL    HW140274   1.229  10.347   0.926  1.0109 -0.2356 -2.2227
43832SOL    HW240275   1.337  10.280   1.009 -0.8530 -0.2846  0.2759
43833SOL     OW40276   1.017   1.931   5.805 -0.2724  0.2343 -0.0792
43833SOL    HW140277   1.061   1.896   5.727 -0.6787 -0.6937  0.0926
43833SOL    HW240278   0.951   1.865   5.827 -1.5494  1.4436 -0.1469
43834SOL     OW40279  12.107  10.067  11.001  0.2708  0.2168 -0.0839
43834SOL    HW140280  12.055  10.147  11.010  0.2811  0.1333  0.8365
43834SOL    HW240281  12.084  10.032  10.915 -0.1870  0.8880 -0.2374
43835SOL     OW40282   3.846   6.816   2.897 -0.0860  0.1745 -0.2603
43835SOL    HW140283   3.805   6.733   2.922 -1.6431  1.6007  2.3692
43835SOL    HW240284   3.940   6.797   2.898 -0.4447 -1.7822 -0.6782
43836SOL     OW40285  10.399   3.615   8.186  0.1930  0.4346 -0.0179
43836SOL    HW140286  10.396   3.531   8.141 -1.1454  1.3871 -1.8814
43836SOL    HW240287  10.329   3.611   8.250 -0.9606  0.6554 -1.2178
43837SOL     OW40288   3.581  10.780   2.278 -0.5707 -0.0987  0.1262
43837SOL    HW140289   3.563  10.713   2.212 -0.8018 -0.1853  0.2746
43837SOL    HW240290   3.616  10.854   2.228 -1.9875  0.3344 -0.2717
43838SOL     OW40291   3.186   1.251  11.619  0.4845 -0.2912  0.3814
43838SOL    HW140292   3.092   1.240  11.629  0.3689  0.8822  0.7343
43838SOL    HW240293   3.223   1.165  11.640 -0.4473 -0.5342  1.0886
43839SOL     OW40294   1.824  12.102   4.317 -0.3919 -0.0289  0.9075
43839SOL    HW140295   1.824  12.155   4.238 -0.1998  0.6949  1.3802
43839SOL    HW240296   1.770  12.026   4.296 -2.3718  1.3216  0.8536
43840SOL     OW40297   4.944  10.260   2.971  0.8618 -0.4300 -0.6003
43840SOL    HW140298   4.926  10.272   2.877  1.2684  1.7322 -0.4610
43840SOL    HW240299   4.864  10.291   3.014  0.6784 -1.4177 -0.2131
43841SOL     OW40300   9.463   3.226   3.587 -0.7002 -0.1442  0.1920
43841SOL    HW140301   9.385   3.268   3.550 -1.3207 -0.6408  0.8960
43841SOL    HW240302   9.468   3.258   3.676 -0.4622 -0.6015  0.3464
43842SOL     OW40303   3.699   1.913   5.779  0.5737 -0.2686  0.1197
43842SOL    HW140304   3.707   1.894   5.873  1.6222  0.4011  0.1787
43842SOL    HW240305   3.624   1.972   5.773 -0.3691 -1.4017  0.3612
43843SOL     OW40306  11.419  11.962   2.324  0.1548  0.1695  0.1242
43843SOL    HW140307  11.416  11.934   2.416  1.6299 -1.7122 -0.3468
43843SOL    HW240308  11.336  12.007   2.311 -0.7366 -0.7829  1.9961
43844SOL     OW40309   9.242   0.486  12.321  0.2286 -0.0098  0.2374
43844SOL    HW140310   9.335   0.494  12.300  0.3557 -0.3771  0.6582
43844SOL    HW240311   9.200   0.475  12.236  0.8438 -2.6357  0.1834
43845SOL     OW40312  12.561   9.522   4.091 -0.2510 -0.6736  0.8619
43845SOL    HW140313  12.580   9.578   4.016 -1.6282 -1.2882  0.0055
43845SOL    HW240314  12.646   9.502   4.129  0.5884 -1.0678 -1.0909
43846SOL     OW40315   1.160   1.605   3.259 -0.0389  0.1916 -0.2452
43846SOL    HW140316   1.244   1.639   3.228 -0.6324 -0.6503 -3.1285
43846SOL    HW240317   1.095   1.656   3.210 -1.1112 -0.9828 -0.1019
43847SOL     OW40318   8.649   3.140  11.573  0.3525  0.6651  0.0299
43847SOL    HW140319   8.722   3.107  11.626  0.1984 -0.9773 -0.7109
43847SOL    HW240320   8.599   3.062  11.549 -1.4031  1.6996  0.1150
43848SOL     OW40321   8.270   6.999   2.927 -0.1085 -0.0448 -0.4204
43848SOL    HW140322   8.188   7.012   2.879  0.4526 -0.6388 -1.6129
43848SOL    HW240323   8.260   6.913   2.968 -0.8395  0.7389  1.1045
43849SOL     OW40324   0.111   2.547   7.436  0.5464  0.4978 -0.1191
43849SOL    HW140325   0.036   2.496   7.405  0.5715 -0.0066  0.6177
43849SOL    HW240326   0.073   2.630   7.465  0.5339  1.0072 -1.5383
43850SOL     OW40327   7.232   4.967   5.020  0.9379 -0.1897  0.1298
43850SOL    HW140328   7.218   4.884   4.976  0.9518 -0.4076  0.5359
43850SOL    HW240329   7.260   5.027   4.950 -1.4222  0.1362 -0.6309
43851SOL     OW40330  12.432   7.645  10.974  0.4227  0.3050  0.0954
43851SOL    HW140331  12.467   7.564  11.012  1.1150  1.2161  1.4584
43851SOL    HW240332  12.339   7.643  10.994  0.4736 -0.0551  0.3037
43852SOL     OW40333  10.247  12.477   9.964 -0.3837 -0.1088  0.5053
43852SOL    HW140334  10.218  12.552  10.016  0.3927 -0.6227  1.7203
43852SOL    HW240335  10.343  12.481   9.968 -0.2859 -0.0011 -1.1445
43853SOL     OW40336   3.433   6.790   1.124 -0.1568  0.3608 -0.0378
43853SOL    HW140337   3.496   6.756   1.060  0.1199 -2.0841  1.4150
43853SOL    HW240338   3.361   6.825   1.070  0.2735 -1.1546 -1.7034
43854SOL     OW40339  10.208   1.133  10.291  0.0068 -1.0358 -0.3407
43854SOL    HW140340  10.237   1.222  10.271 -2.0777 -0.0212  0.8127
43854SOL    HW240341  10.257   1.109  10.370 -0.2460 -0.4497  0.0008
43855SOL     OW40342   2.870   6.429   2.698  0.6659  0.3934 -0.1293
43855SOL    HW140343   2.821   6.490   2.752 -1.1524 -0.2347 -0.9952
43855SOL    HW240344   2.903   6.483   2.626  1.7913  0.9258  0.7413
43856SOL     OW40345   6.360   8.212   3.277 -0.2217  0.0471  0.1106
43856SOL    HW140346   6.373   8.298   3.317 -3.3219 -0.2812  2.1386
43856SOL    HW240347   6.327   8.157   3.348 -1.5182 -1.8772 -1.8552
43857SOL     OW40348   8.060   7.397   1.270 -0.5207 -0.2870  0.1349
43857SOL    HW140349   8.141   7.397   1.219 -0.3933 -1.5025  0.3099
43857SOL    HW240350   8.087   7.370   1.358 -0.7090  1.9242  0.9487
43858SOL     OW40351   6.379   5.353  12.227 -0.4105  0.7519 -0.1723
43858SOL    HW140352   6.453   5.375  12.283  0.0186  1.2149 -0.9027
43858SOL    HW240353   6.415   5.356  12.138 -1.1076  0.1553 -0.4840
43859SOL     OW40354   8.584   7.330   8.275 -0.2587  0.0510  0.3485
43859SOL    HW140355   8.652   7.377   8.227  0.8504 -0.6403  1.2033
43859SOL    HW240356   8.537   7.398   8.323 -0.6059  0.6076 -0.7370
43860SOL     OW40357  11.182   2.406   6.496  0.2065 -0.5353  0.7558
43860SOL    HW140358  11.246   2.440   6.559 -0.4078  1.4824  0.3368
43860SOL    HW240359  11.216   2.433   6.411 -0.6284 -0.4239  0.4562
43861SOL     OW40360   6.066   5.864   2.438 -0.3931  0.1578  0.3431
43861SOL    HW140361   6.088   5.786   2.387 -2.0974 -0.9218  1.1485
43861SOL    HW240362   6.079   5.937   2.377  1.1183 -0.7542 -0.4710
43862SOL     OW40363   1.813   0.112  10.186 -0.8009 -0.3296  0.2076
43862SOL    HW140364   1.751   0.183  10.198 -0.9255 -0.4085  0.0201
43862SOL    HW240365   1.760   0.032  10.192 -0.9384 -0.3669 -1.3403
43863SOL     OW40366   4.385   1.363   9.849  0.6183 -0.3071  0.0449
43863SOL    HW140367   4.447   1.388   9.780 -0.8032  1.2888 -0.7449
43863SOL    HW240368   4.353   1.277   9.822  1.1441 -0.3310 -0.5295
43864SOL     OW40369   2.408   2.541   6.688 -0.0062 -0.6676 -0.0626
43864SOL    HW140370   2.434   2.455   6.719 -3.0261 -1.4297  0.7073
43864SOL    HW240371   2.338   2.524   6.624 -0.7219  1.1810  0.1462
43865SOL     OW40372   7.116   0.075  11.408 -0.3001 -0.4406  0.0061
43865SOL    HW140373   7.141   0.064  11.499  1.3358  2.0194 -0.0614
43865SOL    HW240374   7.051   0.006  11.392 -1.3762 -0.3065  3.2654
43866SOL     OW40375   9.657   3.139   4.757  0.3216 -0.4618  0.2002
43866SOL    HW140376   9.709   3.218   4.771 -0.3765  0.0512 -0.0395
43866SOL    HW240377   9.684   3.107   4.671 -0.4288  0.3507 -0.3608
43867SOL     OW40378   5.990   0.192  12.030 -0.0428 -0.2123 -0.1463
43867SOL    HW140379   5.936   0.151  11.962 -0.4643  1.0824 -0.6245
43867SOL    HW240380   5.968   0.285  12.026 -1.5336 -0.2756  3.0489
43868SOL     OW40381   6.346   1.817   9.450 -0.1975 -0.2207 -0.8780
43868SOL    HW140382   6.330   1.793   9.541  1.3514  0.3479 -0.4287
43868SOL    HW240383   6.414   1.884   9.454 -0.9107  0.6449 -2.3966
43869SOL     OW40384   5.378   7.271  10.847  0.4109  0.0654  0.3606
43869SOL    HW140385   5.385   7.236  10.759 -0.8516 -1.9152  0.9743
43869SOL    HW240386   5.459   7.245  10.890  1.0632  1.1044 -0.2020
43870SOL     OW40387   7.854   9.078  11.114  0.2518  0.1061 -0.3104
43870SOL    HW140388   7.789   9.147  11.129  0.3822 -0.0316  0.9983
43870SOL    HW240389   7.806   8.997  11.130  0.5966 -0.0245  0.0607
43871SOL     OW40390   5.970   7.232  11.205 -0.1542  0.3078 -0.7314
43871SOL    HW140391   6.060   7.254  11.181 -0.2278  1.8587  0.3009
43871SOL    HW240392   5.969   7.236  11.301 -1.6457  1.7542 -0.7672
43872SOL     OW40393   6.708   9.773   4.803 -0.2339 -0.5083 -0.4222
43872SOL    HW140394   6.796   9.810   4.810  0.1994 -1.6224  0.4629
43872SOL    HW240395   6.692   9.763   4.709  0.1816  0.6135 -0.6193
43873SOL     OW40396   2.070  11.546  12.597 -0.8196 -0.2328  0.1593
43873SOL    HW140397   2.142  11.601  12.627 -1.2118  0.1051  0.4801
43873SOL    HW240398   2.096  11.457  12.623  0.1788 -0.3180 -1.0550
43874SOL     OW40399   5.172  10.174   7.849  0.4668 -0.1433  0.2741
43874SOL    HW140400   5.202  10.265   7.844  1.5337 -0.3908  1.4773
43874SOL    HW240401   5.189  10.137   7.763 -1.3994  1.1770 -0.7352
43875SOL     OW40402   1.932   1.457   1.590  0.3200  0.2911 -0.0257
43875SOL    HW140403   1.859   1.404   1.623  0.7817  0.5956  1.5733
43875SOL    HW240404   1.897   1.545   1.584  0.5842  0.4737  0.9286
43876SOL     OW40405   7.192   0.103   5.497 -0.0601  0.3705  0.1826
43876SOL    HW140406   7.250   0.075   5.567 -0.3147  0.2923  0.3637
43876SOL    HW240407   7.104   0.095   5.534 -0.2670 -0.6988 -0.4880
43877SOL     OW40408   7.667   3.650   7.077 -0.6861  0.1119  0.3869
43877SOL    HW140409   7.742   3.590   7.077 -1.1772 -0.5085 -0.3566
43877SOL    HW240410   7.675   3.697   7.160  0.5357  0.0683  0.3213
43878SOL     OW40411   9.146   7.845  12.004  0.6254  0.0711  0.2667
43878SOL    HW140412   9.200   7.870  12.080 -1.6546  0.4843  1.8596
43878SOL    HW240413   9.125   7.753  12.019 -0.5093  0.3721  0.6113
43879SOL     OW40414   0.466   8.813  11.362 -0.0966  0.2556 -0.0401
43879SOL    HW140415   0.390   8.862  11.393 -0.6261 -1.3392  1.3685
43879SOL    HW240416   0.437   8.771  11.281 -1.2999 -1.5519  1.2578
43880SOL     OW40417   2.835  12.401  12.207 -0.3051  0.3508 -0.5807
43880SOL    HW140418   2.797  12.489  12.218  2.5093  1.3766  3.6146
43880SOL    HW240419   2.779  12.344  12.261 -0.1846  0.3054 -0.5029
43881SOL     OW40420   6.844   9.910   8.371 -0.1500 -0.3951  0.2370
43881SOL    HW140421   6.893   9.887   8.450 -0.0785  0.1637  0.3543
43881SOL    HW240422   6.894   9.869   8.300  0.6609  0.4212  0.3266
43882SOL     OW40423   9.686   3.509   0.715  0.1139 -0.1976  0.3290
43882SOL    HW140424   9.756   3.573   0.728  0.4647 -0.2918 -0.9624
43882SOL    HW240425   9.731   3.432   0.679 -0.6437 -0.2787 -0.4640
43883SOL     OW40426   6.609   9.307   0.059  0.1538  0.0613  0.3301
43883SOL    HW140427   6.516   9.331   0.062 -0.0725 -0.6859 -0.5148
43883SOL    HW240428   6.627   9.271   0.146 -0.5401 -0.4943  0.2470
43884SOL     OW40429   1.061   3.947   4.325 -0.2193 -0.4801 -0.0461
43884SOL    HW140430   1.087   3.930   4.415  1.7180 -1.2079 -0.6806
43884SOL    HW240431   1.095   4.034   4.306 -0.8740 -0.2113  0.0135
43885SOL     OW40432  10.297  12.253   2.393 -0.8580 -0.1962 -0.2169
43885SOL    HW140433  10.366  12.268   2.457 -1.1309  0.2136 -0.0160
43885SOL    HW240434  10.287  12.337   2.348 -0.9985 -0.3474 -0.4691
43886SOL     OW40435   3.363   3.472  11.106 -0.7875 -0.5133  0.5111
43886SOL    HW140436   3.306   3.451  11.180 -0.8302 -0.4670  0.4910
43886SOL    HW240437   3.384   3.387  11.068 -0.7266 -0.5409  0.6057
43887SOL     OW40438   5.050   6.847   2.602 -0.0940  0.3959  0.3339
43887SOL    HW140439   4.994   6.887   2.669  1.6807  0.8542  1.6092
43887SOL    HW240440   4.990   6.792   2.551 -1.6633  0.6851  1.7620
43888SOL     OW40441   7.876   7.527   0.998  0.3977 -0.0588  0.1477
43888SOL    HW140442   7.849   7.615   0.971 -0.5864 -0.1741  0.7291
43888SOL    HW240443   7.969   7.537   1.021  0.9787  0.2928 -2.1094
43889SOL     OW40444   9.701   5.325   1.840 -0.0296 -0.4058  0.1969
43889SOL    HW140445   9.747   5.276   1.908  0.0383 -0.9326 -0.2223
43889SOL    HW240446   9.608   5.310   1.857 -0.1139  1.2808  1.5086
43890SOL     OW40447   9.828   4.605   1.221 -0.3111  0.0881  0.2669
43890SOL    HW140448   9.897   4.645   1.168  0.2430  1.6944  2.0937
43890SOL    HW240449   9.748   4.618   1.171  0.1589  1.7541 -0.1179
43891SOL     OW40450   9.508   6.368   5.929  0.4395 -0.1291  0.1727
43891SOL    HW140451   9.581   6.315   5.960 -0.5155 -1.6952 -0.1518
43891SOL    HW240452   9.430   6.318   5.952 -0.5485  1.4448  0.4054
43892SOL     OW40453  11.580  10.647   8.884  0.0243 -0.4499 -0.1078
43892SOL    HW140454  11.661  10.682   8.922 -0.1515 -1.2353  1.0420
43892SOL    HW240455  11.519  10.721   8.886 -0.3073 -0.7157  2.1983
43893SOL     OW40456   9.179   1.383   6.305 -1.0208  0.0281  0.6161
43893SOL    HW140457   9.235   1.346   6.237 -0.4142 -2.5146  2.3648
43893SOL    HW240458   9.229   1.372   6.386 -2.0710  2.1591  1.6271
43894SOL     OW40459   5.833   0.179   2.891 -0.1791  0.1801  0.5288
43894SOL    HW140460   5.803   0.265   2.922 -0.4606  0.3438 -0.1783
43894SOL    HW240461   5.853   0.130   2.971 -1.0614  0.5350  0.9842
43895SOL     OW40462  10.772  11.784   0.718  0.7097  0.1906  0.4296
43895SOL    HW140463  10.818  11.830   0.648  0.6889  0.9992  0.9279
43895SOL    HW240464  10.758  11.696   0.684 -0.2600  0.8680 -0.9975
43896SOL     OW40465   3.568   5.769   5.601  0.4468  0.2579 -0.7317
43896SOL    HW140466   3.573   5.764   5.506 -2.5295 -2.4626 -0.9272
43896SOL    HW240467   3.647   5.723   5.632  0.0821 -1.3512 -2.0174
43897SOL     OW40468  12.576   8.478   4.922  0.0349 -0.1328 -0.0347
43897SOL    HW140469  12.586   8.538   4.995 -1.1358  1.5943 -1.2044
43897SOL    HW240470  12.490   8.438   4.936  0.1993 -0.4738  0.0026
43898SOL     OW40471  11.721   3.504   4.868 -0.8982 -0.1681  0.4078
43898SOL    HW140472  11.776   3.433   4.834 -1.7506 -0.7185  0.1698
43898SOL    HW240473  11.739   3.578   4.809  0.1285 -0.1170  0.7675
43899SOL     OW40474  10.234   1.921   5.491 -0.0914 -0.0145 -0.0369
43899SOL    HW140475  10.235   1.828   5.512 -0.5158 -0.1758 -0.7362
43899SOL    HW240476  10.325   1.941   5.469 -0.3460 -0.7478 -1.9580
43900SOL     OW40477   6.545   3.527   5.914  0.2097 -0.4954 -0.1975
43900SOL    HW140478   6.590   3.492   5.836  1.3601  1.5452 -0.5247
43900SOL    HW240479   6.495   3.602   5.881 -1.2284 -1.0313  0.6727
43901SOL     OW40480  12.100  12.367  12.400  0.4176  1.0175 -0.9139
43901SOL    HW140481  12.058  12.281  12.409 -0.0828  1.4747  2.1658
43901SOL    HW240482  12.034  12.421  12.355  1.0499 -0.2799 -3.6656
43902SOL     OW40483   4.581   7.615   2.498 -0.2648  0.3426  0.2371
43902SOL    HW140484   4.533   7.602   2.417  0.0527  1.8717 -0.2275
43902SOL    HW240485   4.670   7.588   2.478 -0.3056  0.2037  0.2415
43903SOL     OW40486  11.362  10.146   3.596 -0.1606 -0.6299  0.2696
43903SOL    HW140487  11.427  10.157   3.528 -1.6759  0.9397 -1.0168
43903SOL    HW240488  11.319  10.231   3.603 -0.3668 -0.8478  2.9124
43904SOL     OW40489  10.665   5.363   3.756  0.7233 -0.6939  0.3529
43904SOL    HW140490  10.585   5.326   3.718  0.9193  0.1095 -0.9168
43904SOL    HW240491  10.732   5.351   3.688  1.4882 -0.6363  1.0815
43905SOL     OW40492   6.642   9.769   4.529 -0.0594  0.4009 -0.0728
43905SOL    HW140493   6.567   9.714   4.503 -0.0850  0.4365 -0.0727
43905SOL    HW240494   6.651   9.832   4.458  1.4446 -1.0531 -1.2699
43906SOL     OW40495   0.277   5.769   4.445 -0.1891  0.1903 -0.3038
43906SOL    HW140496   0.330   5.848   4.435 -0.7250  0.7415  0.9880
43906SOL    HW240497   0.188   5.801   4.461 -0.3764 -0.6480  0.4350
43907SOL     OW40498   6.791   8.103   3.408 -0.4466 -0.1553  0.3377
43907SOL    HW140499   6.843   8.179   3.433 -1.8279  1.4679 -1.3732
43907SOL    HW240500   6.782   8.052   3.489  1.8788  0.6299  1.1590
43908SOL     OW40501   7.664  11.940   0.649 -0.4607 -0.5809 -0.8275
43908SOL    HW140502   7.682  11.861   0.700  0.2044 -0.3401 -0.6750
43908SOL    HW240503   7.627  12.001   0.713 -0.7855 -0.6963 -0.9024
43909SOL     OW40504   2.509   5.797   7.690 -0.6222 -0.0158 -0.1107
43909SOL    HW140505   2.577   5.863   7.674 -0.4728 -0.3674 -0.9622
43909SOL    HW240506   2.434   5.827   7.639 -0.7513 -0.1966 -0.0291
43910SOL     OW40507   8.106   6.353  11.247  0.7311 -0.1674 -0.6093
43910SOL    HW140508   8.057   6.345  11.329  0.4902 -2.2053 -0.9031
43910SOL    HW240509   8.053   6.306  11.182  1.5495  0.2937 -1.6490
43911SOL     OW40510   0.027   7.168   3.371 -0.3360 -0.2025  0.1501
43911SOL    HW140511   0.095   7.204   3.313 -0.5298 -1.4474 -0.9020
43911SOL    HW240512  -0.042   7.139   3.312 -1.1318 -0.3215  1.1136
43912SOL     OW40513   0.152   9.614   7.361  0.2775 -0.2663  0.0848
43912SOL    HW140514   0.156   9.579   7.272  1.4941 -0.1433  0.0826
43912SOL    HW240515   0.073   9.574   7.398  0.1683 -0.9069 -0.7989
43913SOL     OW40516   7.301   0.329   6.517  0.2605 -0.4470  0.1412
43913SOL    HW140517   7.219   0.313   6.563  0.3383 -0.8558  0.1450
43913SOL    HW240518   7.330   0.242   6.489  1.1487 -0.4177  0.9087
43914SOL     OW40519  12.067  11.384   3.427 -0.4647 -0.1203 -0.6619
43914SOL    HW140520  12.064  11.345   3.340 -0.3056  0.4628 -0.9395
43914SOL    HW240521  12.160  11.385   3.450 -0.3977  0.6762 -0.9377
43915SOL     OW40522   9.100   8.832  12.168  0.4294  0.1521  0.3943
43915SOL    HW140523   9.079   8.912  12.120  0.1127 -0.2671 -0.1763
43915SOL    HW240524   9.190   8.810  12.141 -0.1269 -0.6941 -0.9110
43916SOL     OW40525  10.822  11.780   9.346  0.1652 -0.1573  0.1628
43916SOL    HW140526  10.728  11.778   9.327  0.4506  2.2207 -2.2244
43916SOL    HW240527  10.856  11.699   9.309 -0.7096 -0.1054 -0.8150
43917SOL     OW40528  10.087   9.788   8.042 -0.1602  0.1451  0.0923
43917SOL    HW140529  10.172   9.774   8.085 -0.2485  0.6081  0.4265
43917SOL    HW240530  10.042   9.703   8.050 -0.4680  0.4225  1.5842
43918SOL     OW40531   2.293   8.975   6.984  0.3549  0.0639  0.0814
43918SOL    HW140532   2.293   8.982   6.889 -1.7214  0.3960  0.0752
43918SOL    HW240533   2.322   8.886   7.002 -2.5107 -1.2066 -1.0515
43919SOL     OW40534  12.473  11.716   4.367  0.1823  0.0347  0.5488
43919SOL    HW140535  12.493  11.805   4.398  2.2345 -0.0914 -0.3012
43919SOL    HW240536  12.543  11.695   4.306 -0.1371 -2.2654  0.8790
43920SOL     OW40537   2.457   4.767   6.827 -0.2975  0.1256 -0.0742
43920SOL    HW140538   2.552   4.768   6.834 -0.3731 -0.1942  1.4959
43920SOL    HW240539   2.433   4.858   6.810  0.2442  0.3860  0.5360
43921SOL     OW40540   5.832   6.354  11.811  0.2719  0.2603  0.2542
43921SOL    HW140541   5.816   6.283  11.748  1.1920 -0.8490  1.2281
43921SOL    HW240542   5.865   6.426  11.758 -1.3628  0.2471 -0.8623
43922SOL     OW40543   5.638   6.102   4.015 -0.0145 -0.6053 -0.3932
43922SOL    HW140544   5.667   6.180   4.063  0.0148  0.3680 -1.9297
43922SOL    HW240545   5.543   6.103   4.023 -0.1028  0.2727 -1.3910
43923SOL     OW40546   1.035   9.154   2.389  0.3306 -0.6020 -0.0005
43923SOL    HW140547   1.024   9.244   2.419  0.2362  0.0751 -1.9171
43923SOL    HW240548   0.953   9.111   2.413  0.6466 -0.4119  1.5601
43924SOL     OW40549  12.359   2.957   8.430  0.5171 -0.1798  0.3342
43924SOL    HW140550  12.343   2.966   8.336  1.3884  1.2527  0.2882
43924SOL    HW240551  12.454   2.966   8.438  0.4532 -0.3418  1.3480
43925SOL     OW40552  11.905  11.172   5.543 -0.0821 -0.9702 -0.9452
43925SOL    HW140553  11.935  11.255   5.506  1.0304 -1.4753 -1.2025
43925SOL    HW240554  11.985  11.126   5.567 -0.7186 -1.6245 -0.0261
43926SOL     OW40555   0.521   2.809   4.061  0.7076 -0.1642  0.2034
43926SOL    HW140556   0.613   2.793   4.041  0.5723  0.0858 -0.6687
43926SOL    HW240557   0.492   2.730   4.105  1.4100 -0.1342  0.7414
43927SOL     OW40558  12.046  10.630  11.989 -0.3360  0.0351 -0.5259
43927SOL    HW140559  12.028  10.674  12.072  0.2427  1.7325 -1.2567
43927SOL    HW240560  12.135  10.657  11.967 -0.1013 -1.2277 -1.2079
43928SOL     OW40561  12.285   4.297  10.334  0.0930 -0.3233 -0.6164
43928SOL    HW140562  12.261   4.361  10.401 -1.1459 -0.8244 -0.5599
43928SOL    HW240563  12.379   4.282  10.349 -0.2197 -0.6899  1.2537
43929SOL     OW40564   1.585   3.248   9.011  0.2004 -0.0945  0.3723
43929SOL    HW140565   1.660   3.193   8.990  0.2009  0.0617 -0.0397
43929SOL    HW240566   1.595   3.267   9.104  0.1614 -0.8479  0.5353
43930SOL     OW40567   0.212   4.961   6.495  0.4884 -0.1903  0.0033
43930SOL    HW140568   0.137   4.981   6.551  1.1123 -0.3446  0.9142
43930SOL    HW240569   0.229   4.868   6.510  0.2143 -0.4191 -1.0127
43931SOL     OW40570   5.489   5.717   2.756  0.2387  0.6141 -0.4334
43931SOL    HW140571   5.493   5.782   2.826 -0.2258 -0.2233  0.4051
43931SOL    HW240572   5.399   5.722   2.724  0.0809  0.1344 -0.0912
43932SOL     OW40573   8.946   2.775   9.390  0.9562 -0.5337 -0.0531
43932SOL    HW140574   8.874   2.743   9.336  0.5149 -1.6776  1.1757
43932SOL    HW240575   8.906   2.837   9.450  1.1280 -0.5981  0.1315
43933SOL     OW40576   9.408   4.682   0.878 -0.4415  0.2208  0.1312
43933SOL    HW140577   9.399   4.683   0.973 -0.1741 -0.7391  0.1727
43933SOL    HW240578   9.425   4.591   0.856 -1.5929  0.2314 -0.9423
43934SOL     OW40579  10.849   2.291   4.856 -0.3007  0.3387 -0.7078
43934SOL    HW140580  10.817   2.222   4.797 -1.7756 -0.1362  0.5904
43934SOL    HW240581  10.870   2.364   4.798  1.7125 -1.2888 -2.1839
43935SOL     OW40582   4.360   7.324   8.006  0.0011  0.2745 -0.4076
43935SOL    HW140583   4.425   7.267   7.965 -0.6198  0.5410 -1.8286
43935SOL    HW240584   4.351   7.290   8.095 -0.5519 -2.0405 -1.2677
43936SOL     OW40585   0.693   7.465   5.727 -0.8972  0.3193 -0.5936
43936SOL    HW140586   0.653   7.540   5.684 -1.2853 -0.9802 -2.6835
43936SOL    HW240587   0.787   7.485   5.727 -0.9834  0.7735 -1.2257
43937SOL     OW40588   3.937   9.336   4.181  0.3473  0.2518  0.1995
43937SOL    HW140589   3.897   9.414   4.220  0.8480  0.1789  0.8755
43937SOL    HW240590   4.025   9.364   4.158  0.1160  0.2440 -0.7537
43938SOL     OW40591  10.079   3.202   7.881  0.4279 -0.1215  0.3433
43938SOL    HW140592  10.060   3.129   7.822  0.0951 -0.5685  0.9916
43938SOL    HW240593  10.126   3.264   7.827  0.1311 -0.5230 -0.3985
43939SOL     OW40594   8.064   6.471   6.081 -0.4074  0.0079  0.2520
43939SOL    HW140595   8.106   6.462   5.996  1.8361 -1.6547  1.4001
43939SOL    HW240596   7.997   6.403   6.082  0.4844 -0.9051  0.2527
43940SOL     OW40597   8.029   2.758   0.144  0.0340 -0.2781  0.1648
43940SOL    HW140598   8.108   2.764   0.198 -1.1227 -0.7947  2.0180
43940SOL    HW240599   8.031   2.669   0.109  0.8692  0.1081 -0.8150
43941SOL     OW40600   6.021   8.460   7.377 -0.2515 -0.0329  0.1336
43941SOL    HW140601   5.954   8.439   7.442  0.7526 -2.0667  0.5872
43941SOL    HW240602   6.051   8.375   7.346  4.0695  0.5930  1.9458
43942SOL     OW40603   1.065  10.860   8.647  0.2547  0.1625  0.1421
43942SOL    HW140604   1.147  10.849   8.694  1.0907 -2.1764 -1.6514
43942SOL    HW240605   1.000  10.818   8.703  0.2627  1.7559  1.4269
43943SOL     OW40606   0.703   2.430   0.022 -0.0562 -0.6365  0.1220
43943SOL    HW140607   0.651   2.502  -0.014  2.0192  0.7041 -0.4158
43943SOL    HW240608   0.725   2.375  -0.053  1.7038  0.4653 -0.2430
43944SOL     OW40609   9.239   5.827   7.244 -0.4141  0.4196 -0.1553
43944SOL    HW140610   9.226   5.758   7.178 -1.8314  1.1017 -0.6336
43944SOL    HW240611   9.328   5.813   7.276  0.3875  0.1693 -2.3371
43945SOL     OW40612   4.319   7.890   9.291 -0.2281 -0.1197  0.3571
43945SOL    HW140613   4.413   7.884   9.276 -0.5188 -2.0072 -0.9145
43945SOL    HW240614   4.305   7.846   9.375  0.0842  0.8365  0.9278
43946SOL     OW40615  11.207   5.028   3.890  0.0181 -0.1394 -0.4502
43946SOL    HW140616  11.199   4.982   3.974 -1.8970  1.2561  0.1913
43946SOL    HW240617  11.129   5.084   3.885  0.9300  1.0725 -2.3991
43947SOL     OW40618   5.213   7.738   4.709  0.3866  0.8578 -0.2813
43947SOL    HW140619   5.281   7.749   4.642 -0.1639  0.3692 -0.9352
43947SOL    HW240620   5.160   7.817   4.701  0.2665  0.7570 -0.4890
43948SOL     OW40621   8.182  10.725   3.640 -0.2510 -0.6658  0.0540
43948SOL    HW140622   8.179  10.782   3.717  1.4027 -0.7267  0.2075
43948SOL    HW240623   8.113  10.661   3.654 -1.6110  0.7889  0.2769
43949SOL     OW40624   3.970   0.266  10.914  0.3760 -0.7998 -0.4356
43949SOL    HW140625   3.982   0.312  10.831 -0.0928  1.6589  0.7841
43949SOL    HW240626   3.881   0.287  10.941  1.5866  1.4003  2.3208
43950SOL     OW40627   6.986   8.932   4.243 -0.1659  0.5481  0.6201
43950SOL    HW140628   7.051   9.002   4.252 -0.5990  0.8501  1.5018
43950SOL    HW240629   7.012   8.868   4.309  1.7208 -1.3803 -1.7856
43951SOL     OW40630   3.388   8.407   5.506  0.2467 -0.6484  0.1697
43951SOL    HW140631   3.319   8.354   5.548 -0.3667 -0.3774 -0.4685
43951SOL    HW240632   3.365   8.406   5.413 -0.1665  1.2679  0.2001
43952SOL     OW40633   3.005   1.468   0.837 -0.6677  0.6314  0.4611
43952SOL    HW140634   3.037   1.422   0.915 -1.0389  0.4499  0.5091
43952SOL    HW240635   2.910   1.455   0.839 -0.6003 -0.1003 -0.4813
43953SOL     OW40636   9.907   7.917  12.493 -0.0065  0.1493  0.0492
43953SOL    HW140637   9.954   7.961  12.423 -0.7997 -0.2352 -0.7406
43953SOL    HW240638   9.822   7.893  12.455  0.5788 -2.5809  0.2524
43954SOL     OW40639   4.051   4.379  11.943 -0.3600  0.3610  0.0695
43954SOL    HW140640   4.037   4.447  11.877 -1.3938 -0.2715 -0.3950
43954SOL    HW240641   4.141   4.391  11.972  0.0763  0.7286 -1.3784
43955SOL     OW40642   1.510   7.732  11.299 -0.2079 -0.2090 -0.8977
43955SOL    HW140643   1.426   7.775  11.311  0.3738  0.2876  2.3044
43955SOL    HW240644   1.487   7.640  11.282 -1.5125 -0.6304  2.4055
43956SOL     OW40645   2.832  10.804  11.018  0.6942 -0.5448 -0.3068
43956SOL    HW140646   2.805  10.728  10.966 -0.2951 -0.1989 -0.3301
43956SOL    HW240647   2.897  10.770  11.079 -1.2693 -1.8990  1.1300
43957SOL     OW40648   0.190  11.940   1.785  0.5210  0.4451  0.0161
43957SOL    HW140649   0.193  11.867   1.723 -0.6405 -0.3101  0.8159
43957SOL    HW240650   0.112  11.924   1.838 -1.1354  3.5134 -1.2505
43958SOL     OW40651  11.646  11.817  10.760  0.0606 -0.3498 -0.1774
43958SOL    HW140652  11.666  11.889  10.701 -2.1221  2.0335  1.7902
43958SOL    HW240653  11.580  11.765  10.713  0.0538  0.1714 -0.7548
43959SOL     OW40654   1.109  12.376   2.645 -0.3104  0.3146  0.4549
43959SOL    HW140655   1.085  12.428   2.568  0.2642  1.4884  1.0599
43959SOL    HW240656   1.203  12.363   2.637  0.0416  1.8388  1.7816
43960SOL     OW40657   6.087   2.143   0.495 -0.5404 -0.8148  0.1532
43960SOL    HW140658   6.094   2.137   0.591 -0.3064 -0.3138  0.1668
43960SOL    HW240659   6.076   2.052   0.467  1.8702 -1.2846  0.4680
43961SOL     OW40660   3.112   4.258   6.500 -0.0220 -0.1240  0.0439
43961SOL    HW140661   3.135   4.338   6.452 -1.2660  0.0815 -0.2611
43961SOL    HW240662   3.160   4.264   6.583 -1.6777  1.9914  0.9345
43962SOL     OW40663   7.497   6.154   2.564 -0.3342 -0.6533  0.1674
43962SOL    HW140664   7.462   6.091   2.501  1.4294 -1.5539  0.0030
43962SOL    HW240665   7.533   6.099   2.634 -0.2976  0.2523  0.8776
43963SOL     OW40666   3.657   7.817   1.441  0.1469 -0.2927 -0.4903
43963SOL    HW140667   3.589   7.777   1.496  0.8409 -0.8912 -0.0601
43963SOL    HW240668   3.704   7.743   1.403 -0.0249  0.1202 -1.5258
43964SOL     OW40669   9.253   9.574   3.641  0.1381 -0.3747 -0.3490
43964SOL    HW140670   9.250   9.598   3.733  1.2899 -0.5873 -0.2435
43964SOL    HW240671   9.165   9.593   3.608  0.1067  0.9939  0.4654
43965SOL     OW40672   5.839   1.141  11.322 -0.0370  0.0932 -0.2560
43965SOL    HW140673   5.769   1.075  11.323  0.7219 -0.7635 -1.3029
43965SOL    HW240674   5.917   1.093  11.296  0.5578  1.3951 -0.9836
43966SOL     OW40675   2.009  12.058  11.547  0.7298  0.4674  0.1133
43966SOL    HW140676   2.001  12.154  11.541  1.3851  0.5183  0.0340
43966SOL    HW240677   1.969  12.027  11.466  1.6487  0.7444 -0.4662
43967SOL     OW40678   1.541   4.870   1.331  0.4025  0.2803  0.5070
43967SOL    HW140679   1.524   4.804   1.398  0.5186 -1.0261 -0.7081
43967SOL    HW240680   1.631   4.898   1.347  0.8945 -0.9991  0.1143
43968SOL     OW40681   4.029   7.095   1.034  0.0115 -0.2780  0.5011
43968SOL    HW140682   4.097   7.037   0.999 -0.8368 -1.2677  0.4428
43968SOL    HW240683   4.064   7.124   1.119  1.3344  0.7824 -0.3660
43969SOL     OW40684  12.466   1.945   4.043  0.5789 -0.2445  0.2019
43969SOL    HW140685  12.552   1.965   4.082  1.1677 -1.5915 -0.3423
43969SOL    HW240686  12.472   1.852   4.020 -1.5607 -0.7607  1.4777
43970SOL     OW40687   6.427   1.319   3.994 -0.3906  0.1137  0.1970
43970SOL    HW140688   6.453   1.308   3.903  2.9280  0.0364  1.0241
43970SOL    HW240689   6.335   1.347   3.990 -0.6534 -0.8028 -3.0655
43971SOL     OW40690   0.066   3.046   2.342 -0.0837 -0.2029 -0.1070
43971SOL    HW140691   0.012   2.998   2.279  0.3807 -0.2539 -0.4712
43971SOL    HW240692   0.014   3.046   2.422  0.5749 -2.7588  0.4242
43972SOL     OW40693   8.439   4.794   5.317 -0.3618  0.3443 -0.4379
43972SOL    HW140694   8.391   4.719   5.352 -1.1134  0.9085 -0.2140
43972SOL    HW240695   8.391   4.817   5.237  0.4738 -0.0395 -1.0554
43973SOL     OW40696   6.514   2.022   8.598  0.2360 -0.2917 -0.3601
43973SOL    HW140697   6.523   1.992   8.689 -1.5361  0.7893  0.2242
43973SOL    HW240698   6.530   2.117   8.603 -0.0138 -0.2073 -1.1461
43974SOL     OW40699   0.048   5.288   9.338  0.1667  0.6754  0.1135
43974SOL    HW140700   0.084   5.199   9.341 -0.3266  0.4641 -0.1548
43974SOL    HW240701  -0.032   5.280   9.285  0.6671  1.4757 -0.7847
43975SOL     OW40702  10.955   7.268   0.453  0.1423  0.1620  0.3644
43975SOL    HW140703  10.919   7.180   0.449 -1.3334  0.7456  0.1688
43975SOL    HW240704  11.042   7.260   0.414 -0.3557 -1.0153 -0.5778
43976SOL     OW40705   8.930   4.383   1.022 -0.0262  0.4766 -0.7517
43976SOL    HW140706   9.002   4.425   0.974  1.4578 -2.0227 -0.8853
43976SOL    HW240707   8.960   4.293   1.038 -0.8151  0.7548  3.9467
43977SOL     OW40708   4.848   1.391  10.352  0.0927  0.2009  0.5200
43977SOL    HW140709   4.827   1.440  10.272 -0.4240  0.1204  0.6074
43977SOL    HW240710   4.771   1.401  10.407  0.1955 -0.2790  0.7508
43978SOL     OW40711   5.771   6.701   9.618  0.1004 -0.1961  0.4453
43978SOL    HW140712   5.700   6.743   9.569  1.5168 -0.7092 -2.1969
43978SOL    HW240713   5.839   6.685   9.554  1.1511 -3.1571  2.0943
43979SOL     OW40714  10.926  10.521  12.367  0.4718 -0.0224  0.5927
43979SOL    HW140715  10.961  10.606  12.393 -0.1182  1.0258 -1.7317
43979SOL    HW240716  10.835  10.522  12.396  0.9024 -0.5944  2.0408
43980SOL     OW40717   0.057  10.659   3.445  0.2367  0.1463  0.1812
43980SOL    HW140718   0.031  10.691   3.531 -0.6974  0.3110 -0.1521
43980SOL    HW240719  -0.011  10.597   3.420  0.6781 -0.1643 -0.2969
43981SOL     OW40720  11.809   0.552   8.891  0.4205 -0.4323 -0.6978
43981SOL    HW140721  11.813   0.463   8.854  0.5399 -0.3549 -0.8749
43981SOL    HW240722  11.732   0.591   8.849  2.6232  0.9509 -3.8475
43982SOL     OW40723   4.797   1.541  10.980 -0.3600  0.8335  0.7035
43982SOL    HW140724   4.871   1.590  11.016 -0.1256  1.5991 -0.7190
43982SOL    HW240725   4.827   1.450  10.978  1.2242  1.3218 -1.3049
43983SOL     OW40726   0.909   7.692   4.763 -0.7431 -0.5918  0.4868
43983SOL    HW140727   0.924   7.603   4.732  0.1458  0.1714 -1.3975
43983SOL    HW240728   0.937   7.748   4.691  1.1770  1.3168  2.5361
43984SOL     OW40729   8.590  10.492   2.430 -0.3775 -0.2996 -0.2450
43984SOL    HW140730   8.500  10.491   2.397 -0.3024 -0.0242 -0.4600
43984SOL    HW240731   8.638  10.436   2.368 -0.3630 -0.2914 -0.2409
43985SOL     OW40732  11.627   6.692   3.047  0.2097  0.2314  0.0953
43985SOL    HW140733  11.641   6.652   3.133  2.8164  0.7526 -0.0042
43985SOL    HW240734  11.577   6.627   2.998 -1.5005  0.0055  2.0243
43986SOL     OW40735   3.350  10.020   1.507  0.1113 -0.0217 -0.0746
43986SOL    HW140736   3.367  10.100   1.457 -1.2382  0.0704 -0.4287
43986SOL    HW240737   3.437   9.982   1.522  0.7834  1.5143  0.1214
43987SOL     OW40738   5.597   4.708   5.894  0.0179  0.0967 -0.3014
43987SOL    HW140739   5.510   4.669   5.888 -0.3250  0.8419 -0.1379
43987SOL    HW240740   5.656   4.632   5.892 -0.6246 -0.4141 -0.4051
43988SOL     OW40741   3.686   1.596   6.708  0.5715 -0.2860 -0.1545
43988SOL    HW140742   3.625   1.546   6.763  0.6374 -1.0655 -0.7786
43988SOL    HW240743   3.635   1.672   6.679 -0.4028 -1.3765 -1.3883
43989SOL     OW40744   2.334   5.675   1.522  0.1728 -0.3241  0.2039
43989SOL    HW140745   2.259   5.647   1.470 -0.1925  1.1070 -0.0829
43989SOL    HW240746   2.410   5.652   1.467 -0.2153  1.3848 -1.1300
43990SOL     OW40747   0.707   5.800   1.913 -0.7518  0.6652  0.0079
43990SOL    HW140748   0.627   5.763   1.875 -0.1615 -0.8789  0.2338
43990SOL    HW240749   0.686   5.811   2.006 -0.2450 -1.1027  0.3543
43991SOL     OW40750   5.979   2.991   0.826  0.7542  0.1271 -0.2505
43991SOL    HW140751   5.920   2.924   0.792 -1.4867  1.8784 -0.0199
43991SOL    HW240752   6.044   3.003   0.757  0.7799 -1.6912 -0.6100
43992SOL     OW40753  10.375  10.175  11.014 -0.0970 -0.0753  0.1171
43992SOL    HW140754  10.351  10.268  11.011 -2.1398 -0.5618 -0.3571
43992SOL    HW240755  10.405  10.161  11.104  0.7213  1.1318  0.0582
43993SOL     OW40756   4.370  10.225   7.459 -0.0488 -0.2216 -0.2114
43993SOL    HW140757   4.322  10.157   7.412 -2.0675  1.3345 -0.5187
43993SOL    HW240758   4.349  10.306   7.412  0.5812  0.9103  1.3877
43994SOL     OW40759  12.411   1.664   5.201  0.4366  0.0345  0.0978
43994SOL    HW140760  12.397   1.600   5.131 -0.6068 -1.2280  1.4026
43994SOL    HW240761  12.506   1.681   5.199  0.3266  0.6824 -2.1236
43995SOL     OW40762   5.119   9.555   2.691 -0.0943 -0.2788 -0.0641
43995SOL    HW140763   5.051   9.523   2.631 -1.3126 -1.0323  1.6242
43995SOL    HW240764   5.075   9.560   2.776  1.7474  0.0949  0.9142
43996SOL     OW40765   7.514   2.930   3.479  0.2504 -0.0018 -0.0721
43996SOL    HW140766   7.448   2.911   3.546  0.1754 -2.3970 -0.7441
43996SOL    HW240767   7.463   2.943   3.399  0.4345  1.4306  0.0145
43997SOL     OW40768   7.906   7.767   7.584  0.1664 -0.3090  0.3362
43997SOL    HW140769   7.815   7.738   7.593 -1.0469  3.0865  0.2360
43997SOL    HW240770   7.926   7.757   7.491 -1.3547  1.9887 -0.3140
43998SOL     OW40771   2.864  10.403  12.291  0.4906 -0.2389  0.4869
43998SOL    HW140772   2.893  10.324  12.338 -0.4278 -0.1323  1.2677
43998SOL    HW240773   2.927  10.470  12.318 -0.6577  0.1018  2.5329
43999SOL     OW40774   5.488   3.629   9.664 -0.5492  0.4116 -0.2727
43999SOL    HW140775   5.580   3.628   9.637 -0.2478  1.7197  0.5942
43999SOL    HW240776   5.439   3.640   9.583 -0.0302 -1.3340 -0.8690
44000SOL     OW40777   5.829   9.104  12.553 -0.0040  0.9531  0.7624
44000SOL    HW140778   5.917   9.125  12.584  0.3854 -1.4188  1.5038
44000SOL    HW240779   5.843   9.067  12.465 -0.3124  1.0286  0.6800
44001SOL     OW40780  11.404   7.665  12.583 -0.1394 -0.4957 -0.1753
44001SOL    HW140781  11.400   7.662  12.678 -1.7162  0.0795 -0.1878
44001SOL    HW240782  11.345   7.594  12.554  0.2405 -0.5960 -0.7236
44002SOL     OW40783   6.516   9.907   9.176 -0.0300 -0.4984 -0.3353
44002SOL    HW140784   6.422   9.918   9.162 -0.5893 -1.8265  1.8420
44002SOL    HW240785   6.523   9.826   9.227  2.5061 -1.7567 -2.4154
44003SOL     OW40786   1.037   6.954   7.732  0.3866 -0.1114  0.5215
44003SOL    HW140787   1.087   6.909   7.800 -0.6181 -0.9636  0.7292
44003SOL    HW240788   0.959   6.899   7.719  1.5661 -1.2690 -2.9037
44004SOL     OW40789   1.467   5.900   8.848 -0.9628 -0.1319  0.5950
44004SOL    HW140790   1.410   5.949   8.790  1.2054  1.7095 -0.1266
44004SOL    HW240791   1.515   5.841   8.790 -2.0200 -1.6338  1.1833
44005SOL     OW40792   9.899   1.763   7.860 -0.0703 -0.0841 -0.4264
44005SOL    HW140793   9.936   1.777   7.947 -1.6891  0.2399  0.2369
44005SOL    HW240794   9.973   1.778   7.800  0.7624  0.9688  0.8138
44006SOL     OW40795   7.253   3.068  12.221  0.1073 -0.3857 -0.5130
44006SOL    HW140796   7.287   3.072  12.132 -0.7244 -1.0842 -0.8774
44006SOL    HW240797   7.158   3.075  12.211  0.0010 -0.5053  0.3133
44007SOL     OW40798  12.016   2.027   9.945  0.1813 -0.5855 -0.3081
44007SOL    HW140799  12.111   2.034   9.933  0.3852  2.4319  1.8268
44007SOL    HW240800  12.006   2.003  10.037 -1.0818  0.7191 -0.0697
44008SOL     OW40801   9.057  10.557   5.572 -0.2783 -0.0935  0.2303
44008SOL    HW140802   9.056  10.652   5.565 -0.5609 -0.0235  1.1412
44008SOL    HW240803   8.968  10.533   5.598 -0.4588 -0.6890 -0.8586
44009SOL     OW40804  12.122   4.952   1.038  0.1498 -0.0685 -0.6069
44009SOL    HW140805  12.058   5.011   0.999  0.5134  0.8212  0.1069
44009SOL    HW240806  12.179   5.009   1.089  0.0394 -1.1324  0.7490
44010SOL     OW40807  11.227   7.987   1.131 -0.0910 -0.0643  0.0495
44010SOL    HW140808  11.157   7.934   1.093  1.2295 -1.3767 -0.6324
44010SOL    HW240809  11.193   8.077   1.128 -2.1291 -0.7536  0.6450
44011SOL     OW40810   6.320  10.711   1.276 -0.0658 -0.7049  0.1269
44011SOL    HW140811   6.310  10.806   1.270 -1.3679 -0.8840 -2.5419
44011SOL    HW240812   6.385  10.689   1.208  2.8405 -1.5351  2.9469
44012SOL     OW40813  12.119   2.179   4.080 -0.5899  0.2793 -0.1301
44012SOL    HW140814  12.054   2.136   4.025  0.3457 -0.2847 -0.8301
44012SOL    HW240815  12.179   2.221   4.019 -0.4378  1.0111  0.5116
44013SOL     OW40816   5.980  11.163   0.020  0.0194  0.0368 -0.0291
44013SOL    HW140817   6.001  11.084   0.070  0.9301  2.4197  3.6980
44013SOL    HW240818   6.058  11.181  -0.031  0.4049 -0.5925  0.3324
44014SOL     OW40819  11.296   6.880  10.375  0.0485  0.5486  0.1160
44014SOL    HW140820  11.234   6.885  10.448 -1.8040 -0.6149 -1.3021
44014SOL    HW240821  11.274   6.956  10.320  0.7840  0.8725  0.2602
44015SOL     OW40822   3.147   2.093   1.706  0.0048  0.3936  0.0797
44015SOL    HW140823   3.141   2.014   1.653  1.1223 -0.2471  0.8570
44015SOL    HW240824   3.057   2.126   1.712 -0.3652 -0.4263 -0.8253
44016SOL     OW40825   9.809  12.207  12.191 -0.6608  0.3943 -0.3572
44016SOL    HW140826   9.853  12.215  12.106 -0.6893  0.4778 -0.3637
44016SOL    HW240827   9.726  12.163  12.171 -0.6151  0.3064 -0.3551
44017SOL     OW40828   1.181   3.823   8.680 -0.5741  0.5146  0.5235
44017SOL    HW140829   1.115   3.784   8.737 -0.2086  0.3523  0.8353
44017SOL    HW240830   1.255   3.843   8.737 -0.1129  0.1359  0.0719
44018SOL     OW40831   1.521   3.262   5.831  0.0739  0.3844 -0.4904
44018SOL    HW140832   1.475   3.300   5.906  0.9627 -0.8814  0.7474
44018SOL    HW240833   1.584   3.330   5.806  1.5963 -0.1288  1.6518
44019SOL     OW40834  11.849  12.564   6.028  0.2639 -0.3914 -0.0218
44019SOL    HW140835  11.757  12.590   6.021  0.7632  1.1579 -1.5165
44019SOL    HW240836  11.884  12.577   5.940  2.0088 -0.6675  0.5937
44020SOL     OW40837   6.264   0.589   4.368 -0.2083 -0.6618 -0.7034
44020SOL    HW140838   6.192   0.544   4.325 -0.1003 -1.4573 -0.0821
44020SOL    HW240839   6.336   0.586   4.305 -0.8427  0.5447 -1.5080
44021SOL     OW40840   1.940   8.372   9.047 -0.1904  0.4082  0.3036
44021SOL    HW140841   1.937   8.411   9.134 -0.0464  1.5183 -0.1582
44021SOL    HW240842   1.875   8.422   8.997 -1.1215 -0.9932  0.0601
44022SOL     OW40843   3.511   8.283   9.019 -0.4285  0.2137  0.4274
44022SOL    HW140844   3.535   8.207   9.071 -0.2052  0.8247  1.2509
44022SOL    HW240845   3.590   8.338   9.019 -0.8745  0.8800  0.6722
44023SOL     OW40846   8.858   1.065  12.340  0.2676 -0.0496  0.0591
44023SOL    HW140847   8.803   1.073  12.418 -0.3085 -1.1235 -0.2138
44023SOL    HW240848   8.818   0.994  12.290  1.7470 -0.6743 -0.2834
44024SOL     OW40849   8.060   1.039   6.702 -0.1458  0.8704  0.7023
44024SOL    HW140850   8.004   0.963   6.683  1.6326 -0.3007 -0.1734
44024SOL    HW240851   8.041   1.101   6.632 -0.2103  0.3854  0.2801
44025SOL     OW40852   7.597   3.043   2.378  0.5451 -0.2648  0.3236
44025SOL    HW140853   7.673   3.007   2.333 -0.0539 -0.5613 -0.4699
44025SOL    HW240854   7.527   3.041   2.313 -0.2529 -0.3704  1.1629
44026SOL     OW40855   8.000   5.330   9.738 -0.2968 -0.0720 -0.0857
44026SOL    HW140856   7.950   5.367   9.665  2.3189  0.5256 -1.6874
44026SOL    HW240857   7.933   5.299   9.799 -2.5958  0.9977 -1.9055
44027SOL     OW40858   5.021  11.933   2.746  0.1600 -0.3904 -0.0908
44027SOL    HW140859   5.001  11.849   2.786 -0.6315 -0.5963 -0.8909
44027SOL    HW240860   4.940  11.983   2.753  0.7869  0.5302  0.8956
44028SOL     OW40861   2.685   8.983   2.517  0.4849  0.4299  0.1885
44028SOL    HW140862   2.679   9.011   2.426  3.4148  0.1617 -0.1957
44028SOL    HW240863   2.666   8.890   2.515 -0.0056  0.5320 -0.0486
44029SOL     OW40864   3.451   9.566   9.803  0.3981 -0.8119  0.0260
44029SOL    HW140865   3.438   9.584   9.896 -1.0008  1.5946 -0.5386
44029SOL    HW240866   3.518   9.629   9.776  0.2050 -0.9340 -0.7471
44030SOL     OW40867   2.934  12.204   3.105  0.4637 -0.2135 -0.1899
44030SOL    HW140868   2.987  12.129   3.078  0.0310 -1.0623  1.1853
44030SOL    HW240869   2.919  12.253   3.025  2.9987 -0.1443 -0.6914
44031SOL     OW40870   6.518   8.437   3.320 -0.4021 -0.1879 -0.5812
44031SOL    HW140871   6.602   8.472   3.290 -0.6325 -0.0706 -1.1139
44031SOL    HW240872   6.453   8.494   3.280 -0.7593 -0.8255 -0.9361
44032SOL     OW40873   7.210  10.184   9.410  0.7203 -0.0552  0.4194
44032SOL    HW140874   7.295  10.229   9.403 -0.1934  1.7373  0.2079
44032SOL    HW240875   7.175  10.186   9.321  0.1012 -0.0438  0.6624
44033SOL     OW40876   3.468   1.134   5.081 -0.5405 -0.7791 -0.0763
44033SOL    HW140877   3.544   1.144   5.139  0.2355 -2.1254 -0.7980
44033SOL    HW240878   3.405   1.199   5.113  1.4246  1.3912 -0.3292
44034SOL     OW40879  11.302   6.877  12.025  0.3749  0.3864  0.5494
44034SOL    HW140880  11.319   6.947  12.088  2.4019  0.1733  0.2996
44034SOL    HW240881  11.389   6.845  12.000 -0.4503 -1.1082 -0.5971
44035SOL     OW40882   9.545   3.099  10.076  0.1926  0.0034 -0.6950
44035SOL    HW140883   9.587   3.055  10.002  1.3783 -0.9764  0.5157
44035SOL    HW240884   9.598   3.178  10.091  2.4497 -1.7614  1.5050
44036SOL     OW40885   2.143  11.138  10.397 -0.3619 -0.2968 -0.2287
44036SOL    HW140886   2.170  11.047  10.408  1.3983  0.0360 -1.3368
44036SOL    HW240887   2.049  11.134  10.380 -0.4415 -1.8363  0.4362
44037SOL     OW40888  11.176   9.110   4.423 -0.1098  0.1149  0.5014
44037SOL    HW140889  11.098   9.091   4.474 -1.5681  0.6580 -1.4147
44037SOL    HW240890  11.206   9.025   4.392  0.0653 -0.0881  1.2086
44038SOL     OW40891   3.783  10.863   1.904  0.4673  0.6814  0.3786
44038SOL    HW140892   3.863  10.869   1.852 -0.0864 -0.1418 -0.5957
44038SOL    HW240893   3.758  10.771   1.900 -1.1732  1.1284 -0.3338
44039SOL     OW40894   4.754   0.869   6.869 -0.3345 -0.7774 -0.5522
44039SOL    HW140895   4.692   0.800   6.847 -0.0026 -1.7585  1.2934
44039SOL    HW240896   4.840   0.827   6.860 -0.0707 -0.2103 -0.6839
44040SOL     OW40897   6.077   2.859   7.049 -0.1543 -0.3098  0.1869
44040SOL    HW140898   6.040   2.879   6.963 -0.6283  2.3398  0.8966
44040SOL    HW240899   6.003   2.863   7.109  0.3401 -1.0487  0.8769
44041SOL     OW40900   4.329  10.378   1.491  0.0082 -0.2499  0.1954
44041SOL    HW140901   4.350  10.290   1.461  1.6467 -0.1802  1.0602
44041SOL    HW240902   4.353  10.379   1.583 -1.3465  0.6944  0.5762
44042SOL     OW40903   1.632   1.183   5.081  0.1352 -0.9642  0.4130
44042SOL    HW140904   1.566   1.196   5.013 -0.7315  1.1543  1.5677
44042SOL    HW240905   1.671   1.097   5.061 -0.8841 -0.9305 -2.0271
44043SOL     OW40906   2.417   6.895   5.089 -0.0251  0.1074 -0.1485
44043SOL    HW140907   2.500   6.861   5.123 -0.3212 -0.6322 -0.1404
44043SOL    HW240908   2.390   6.960   5.153  0.4012  0.1433  0.0009
44044SOL     OW40909  12.212   0.344  10.100 -0.4794 -0.2058  0.0466
44044SOL    HW140910  12.146   0.300  10.153 -1.3386  0.8972 -0.0663
44044SOL    HW240911  12.163   0.382  10.027  0.2909  0.5436 -0.0986
44045SOL     OW40912   9.409  12.356   2.163  0.6160  0.5481 -0.3782
44045SOL    HW140913   9.412  12.435   2.109 -0.7549 -0.6999 -2.4162
44045SOL    HW240914   9.332  12.309   2.132  0.4554 -0.8475  1.9034
44046SOL     OW40915   1.846  11.102   4.634 -0.1304 -0.2392 -0.2501
44046SOL    HW140916   1.916  11.149   4.678 -0.1056 -1.6535  1.2939
44046SOL    HW240917   1.768  11.157   4.647 -0.0375 -0.4330  1.2411
44047SOL     OW40918   1.579   1.050  12.395  0.1455  0.0286  0.3538
44047SOL    HW140919   1.643   0.985  12.366 -0.5868 -0.2850 -0.6419
44047SOL    HW240920   1.568   1.033  12.489 -0.0850 -1.3590  0.1028
44048SOL     OW40921  11.190   6.287   2.944  0.1992  0.6214 -0.6619
44048SOL    HW140922  11.213   6.373   2.979 -0.0015  0.2991  0.2715
44048SOL    HW240923  11.120   6.305   2.881 -0.9443  0.9789  0.6831
44049SOL     OW40924  10.307   6.248   3.101 -0.1958 -0.0555  0.0097
44049SOL    HW140925  10.317   6.183   3.170 -0.7448  0.7409  0.8665
44049SOL    HW240926  10.302   6.197   3.021 -1.3356 -1.1311  0.7223
44050SOL     OW40927   3.008   8.369   3.059  0.6233 -0.7293  0.1156
44050SOL    HW140928   2.979   8.404   2.974  0.2928  0.7695  0.8151
44050SOL    HW240929   2.977   8.433   3.123 -0.2260 -2.4562  1.5172
44051SOL     OW40930  10.776   5.595   3.072  0.1888  0.0802  0.4421
44051SOL    HW140931  10.778   5.512   3.118 -2.5282  0.2220  0.9698
44051SOL    HW240932  10.812   5.658   3.134  3.7256 -0.7630 -0.4825
44052SOL     OW40933   6.029  11.492   8.046 -0.4188 -0.1514 -0.0675
44052SOL    HW140934   6.115  11.528   8.023 -0.8045 -0.6629 -2.7302
44052SOL    HW240935   5.969  11.567   8.042 -0.1789  0.1394  1.4300
44053SOL     OW40936  12.143   5.171   7.563  0.1121  0.0577 -0.5219
44053SOL    HW140937  12.126   5.256   7.605  3.1213 -0.3363  1.8160
44053SOL    HW240938  12.207   5.191   7.494  1.5967 -0.3468  0.6833
44054SOL     OW40939   4.393   7.046  11.282  0.1536 -0.3003  0.7497
44054SOL    HW140940   4.368   7.128  11.325 -0.7559 -0.6831  0.9750
44054SOL    HW240941   4.349   6.978  11.332  0.1679 -0.8596  0.0253
44055SOL     OW40942   6.459   6.571   6.545  0.2244 -0.2676 -0.7460
44055SOL    HW140943   6.487   6.488   6.585  0.6267 -1.2266 -2.8928
44055SOL    HW240944   6.533   6.598   6.492 -0.0947  1.2536 -0.4474
44056SOL     OW40945  10.701  12.346   3.213 -0.7254 -0.2457 -0.0907
44056SOL    HW140946  10.746  12.278   3.264  0.3538  0.5316  0.0101
44056SOL    HW240947  10.674  12.301   3.133 -0.6050 -0.9556  0.2588
44057SOL     OW40948  10.973   2.243   5.882  0.3521  0.2303 -0.5110
44057SOL    HW140949  11.023   2.227   5.962  0.5326 -1.6786 -0.9395
44057SOL    HW240950  10.989   2.165   5.829 -1.3617  0.5509 -1.5689
44058SOL     OW40951   2.153  10.909   0.987 -0.2320  0.8266 -0.3099
44058SOL    HW140952   2.163  10.816   1.006 -1.4675  0.3589 -1.7574
44058SOL    HW240953   2.129  10.948   1.071  1.3164  0.0341  0.5346
44059SOL     OW40954   0.768   3.358   3.137 -0.1733  0.4064 -0.1822
44059SOL    HW140955   0.763   3.266   3.162  0.6055  0.2643 -0.5460
44059SOL    HW240956   0.743   3.405   3.217 -0.1673 -0.1084  0.1287
44060SOL     OW40957  10.482   4.003   2.257  0.3963  0.2764 -0.0556
44060SOL    HW140958  10.525   4.028   2.339  0.2914  0.8703 -0.1744
44060SOL    HW240959  10.505   4.073   2.196  0.0299  0.1150 -0.3810
44061SOL     OW40960   9.665   4.773   1.013 -0.3706  0.3750  0.4073
44061SOL    HW140961   9.702   4.687   0.993  1.6729  1.6154 -1.5788
44061SOL    HW240962   9.574   4.767   0.982 -0.4396 -1.1936  0.7852
44062SOL     OW40963  10.356   3.388   8.046  0.0477 -0.3922 -0.0955
44062SOL    HW140964  10.433   3.332   8.059 -0.0037  0.1825  3.8637
44062SOL    HW240965  10.284   3.339   8.086 -0.9926  0.4883 -0.8474
44063SOL     OW40966  10.172  10.739   2.885  0.1605  0.1937  0.1589
44063SOL    HW140967  10.198  10.652   2.915 -1.6559  0.3436  2.4474
44063SOL    HW240968  10.078  10.744   2.903 -0.0726  2.1488 -1.2335
44064SOL     OW40969  11.385   5.754   5.233 -0.0722  0.1404  0.4953
44064SOL    HW140970  11.398   5.698   5.310 -0.4246 -0.1883  0.3183
44064SOL    HW240971  11.325   5.822   5.262 -0.0551  0.1271  0.5629
44065SOL     OW40972   1.256   0.783   1.229  0.1068 -0.5007 -0.1473
44065SOL    HW140973   1.264   0.766   1.323 -0.6705 -0.2600 -0.0252
44065SOL    HW240974   1.195   0.857   1.224 -2.0382 -2.2073 -0.9383
44066SOL     OW40975  12.379   8.351   6.331 -0.1332  0.2376  0.7387
44066SOL    HW140976  12.440   8.300   6.277  0.2405  0.9421  0.4832
44066SOL    HW240977  12.375   8.437   6.288 -0.3785  0.5799  1.4402
44067SOL     OW40978   0.468   8.662   2.870 -0.6811 -0.0102  0.0530
44067SOL    HW140979   0.468   8.604   2.793  1.6423  0.5048 -0.3920
44067SOL    HW240980   0.558   8.661   2.900 -1.3460  0.6469  2.1805
44068SOL     OW40981  10.418   2.681  11.140 -0.3950 -0.3150 -0.0630
44068SOL    HW140982  10.326   2.679  11.164 -0.6614  0.4851 -0.9663
44068SOL    HW240983  10.421   2.729  11.057  1.0189  1.3017  0.8504
44069SOL     OW40984   0.378  10.074   5.991  0.1067  0.0400  0.9152
44069SOL    HW140985   0.304  10.124   6.026 -3.1870 -1.7948 -2.6571
44069SOL    HW240986   0.435  10.141   5.952 -0.6174  1.4079  2.0975
44070SOL     OW40987   1.969   7.139   8.254  0.7841  0.0662 -0.5340
44070SOL    HW140988   1.927   7.053   8.256  1.4472 -0.2531  1.1573
44070SOL    HW240989   2.051   7.127   8.300  0.0069  2.0308  1.5639
44071SOL     OW40990   5.365  10.266   0.948  0.6674 -0.1327  0.1940
44071SOL    HW140991   5.385  10.183   0.905 -0.5447 -0.6811  0.6380
44071SOL    HW240992   5.286  10.297   0.904  0.5709  0.3045  0.6695
44072SOL     OW40993   9.412   0.945   3.258 -0.6540  0.0573  0.5517
44072SOL    HW140994   9.384   1.033   3.233 -0.0359  0.1589  0.2004
44072SOL    HW240995   9.508   0.951   3.264 -0.5831 -0.6508  0.2572
44073SOL     OW40996  12.514   8.850   9.180 -0.2193  0.1444 -0.0146
44073SOL    HW140997  12.551   8.765   9.156 -0.5356  0.3800 -1.4644
44073SOL    HW240998  12.587   8.900   9.216  0.3566 -0.1858 -0.7059
44074SOL     OW40999   7.554   7.419   7.867 -0.3014 -0.1830  0.3791
44074SOL    HW141000   7.557   7.337   7.917 -1.2852  0.4508  1.5353
44074SOL    HW241001   7.616   7.476   7.912 -0.6811  0.1675  0.4574
44075SOL     OW41002   2.452   9.482   0.750 -0.6605  0.2049 -0.0208
44075SOL    HW141003   2.392   9.440   0.689  0.1518 -2.5518  0.9274
44075SOL    HW241004   2.399   9.501   0.828 -0.8834  0.2489 -0.1851
44076SOL     OW41005  11.002   6.908   7.496  0.2444 -0.2081  0.1503
44076SOL    HW141006  10.948   6.947   7.565 -0.6508 -1.5861  0.2578
44076SOL    HW241007  10.941   6.852   7.447  0.8111  0.8411 -1.8761
44077SOL     OW41008   3.507  10.643   0.272  0.3717  0.1117 -0.4238
44077SOL    HW141009   3.519  10.667   0.364 -0.3078  1.5687 -0.6908
44077SOL    HW241010   3.502  10.547   0.273 -0.2320  0.1255  1.1231
44078SOL     OW41011   1.253  12.213  12.554  0.2565 -0.2801  0.2855
44078SOL    HW141012   1.263  12.208  12.459  0.2778  0.7272  0.2246
44078SOL    HW241013   1.182  12.152  12.573  1.2865 -1.6839 -0.1798
44079SOL     OW41014   4.442   0.527   9.506 -0.6354  0.2938 -0.5429
44079SOL    HW141015   4.502   0.462   9.543 -0.4674 -0.4496 -2.0327
44079SOL    HW241016   4.457   0.522   9.412 -2.3367  0.7973 -0.8748
44080SOL     OW41017   5.824  11.859   7.339  0.4909  0.0986 -0.2713
44080SOL    HW141018   5.871  11.851   7.256 -0.3776 -1.6346 -0.6291
44080SOL    HW241019   5.862  11.791   7.395  0.4145  0.6322  0.4513
44081SOL     OW41020   0.226   9.541   1.732  0.4016 -0.0674 -0.1916
44081SOL    HW141021   0.131   9.545   1.725  0.4326  0.3840 -0.4469
44081SOL    HW241022   0.252   9.628   1.763  0.6210 -0.6922  1.4877
44082SOL     OW41023   1.676   9.711   2.140  0.3275  0.4132 -0.2163
44082SOL    HW141024   1.717   9.636   2.097 -0.6007  0.5589 -1.4260
44082SOL    HW241025   1.704   9.787   2.089  0.9649  0.8565  0.7789
44083SOL     OW41026   4.168   4.237  10.951 -0.6411 -0.5252  0.1481
44083SOL    HW141027   4.092   4.194  10.988 -0.8393 -2.8068 -2.5477
44083SOL    HW241028   4.137   4.325  10.927 -1.6852 -0.5703  1.2360
44084SOL     OW41029  12.569   9.548   1.182  0.5143  0.2145  0.3721
44084SOL    HW141030  12.613   9.498   1.250 -0.0361 -0.9489 -0.0920
44084SOL    HW241031  12.640   9.587   1.130  1.1093 -2.3075 -0.8787
44085SOL     OW41032   1.687   3.471   5.664  0.0915  0.6939 -0.3475
44085SOL    HW141033   1.642   3.452   5.581  0.8919 -1.7137 -0.2960
44085SOL    HW241034   1.753   3.403   5.672 -0.4496  0.3850  2.6579
44086SOL     OW41035   8.798  12.539  10.660 -0.2107  0.4344 -0.4437
44086SOL    HW141036   8.745  12.592  10.721  1.2350  0.6391  0.6782
44086SOL    HW241037   8.790  12.585  10.576 -0.1390  1.6550  0.1900
44087SOL     OW41038   8.335  11.136  12.347  0.4162 -0.2248  0.0887
44087SOL    HW141039   8.405  11.199  12.363  0.0527  0.6123 -1.4598
44087SOL    HW241040   8.277  11.144  12.423  0.9862  0.4804  0.4566
44088SOL     OW41041   5.292  11.355   0.574 -0.4138 -0.1018  0.2584
44088SOL    HW141042   5.296  11.357   0.478  1.0009  0.0809  0.2973
44088SOL    HW241043   5.228  11.286   0.594  1.0287 -1.8421 -0.8211
44089SOL     OW41044   9.712   0.178  12.506  0.0726  0.2597 -0.1995
44089SOL    HW141045   9.734   0.089  12.534 -1.0253  0.0139 -0.0852
44089SOL    HW241046   9.765   0.235  12.563  1.0252 -0.3143 -0.4905
44090SOL     OW41047   5.447  10.784   5.744  0.8034  0.0435  0.1642
44090SOL    HW141048   5.466  10.877   5.734  1.9193 -0.1203  0.5412
44090SOL    HW241049   5.531  10.741   5.730  0.1021 -1.0014 -1.0123
44091SOL     OW41050   0.245   5.763   8.734  0.0880  0.0894 -0.1606
44091SOL    HW141051   0.287   5.681   8.707  0.2312 -0.7082  2.2774
44091SOL    HW241052   0.279   5.781   8.821  0.1951  2.8895 -0.6783
44092SOL     OW41053   9.971  10.961   1.550 -0.1153  0.0296  0.0295
44092SOL    HW141054   9.996  11.018   1.622 -0.7243  0.6146 -0.2118
44092SOL    HW241055   9.884  10.929   1.573  0.8731 -2.1932  0.9897
44093SOL     OW41056   6.770   2.237   1.401  0.7531  0.3340 -0.6380
44093SOL    HW141057   6.721   2.318   1.387 -0.3800 -0.2247 -0.0436
44093SOL    HW241058   6.850   2.264   1.447  0.3361  1.0875 -0.3488
44094SOL     OW41059   5.092  10.387   7.159 -0.2275  0.1785  0.0216
44094SOL    HW141060   5.182  10.360   7.140 -0.6077 -0.9060 -0.3087
44094SOL    HW241061   5.083  10.374   7.254  0.0117  0.4366  0.0801
44095SOL     OW41062   6.794  10.167   9.330 -0.0741  0.4101 -0.5404
44095SOL    HW141063   6.762  10.218   9.405 -0.2312  1.0229 -1.0154
44095SOL    HW241064   6.729  10.184   9.261 -0.4710 -0.9307 -0.5252
44096SOL     OW41065   3.495  10.966  11.484  0.0162  0.1278 -0.0263
44096SOL    HW141066   3.435  11.041  11.488  1.0395  0.9706 -0.0080
44096SOL    HW241067   3.581  11.006  11.475  0.5838 -1.0624  0.0613
44097SOL     OW41068   4.351   9.070  10.713  0.2086 -0.5347  0.0148
44097SOL    HW141069   4.311   9.112  10.789  1.3318  1.0683 -0.2031
44097SOL    HW241070   4.441   9.105  10.712  0.4050 -1.0003 -1.6822
44098SOL     OW41071  11.786   0.766   1.036  0.5556  0.3185  0.6972
44098SOL    HW141072  11.841   0.764   0.957 -0.4446  0.9753 -0.0483
44098SOL    HW241073  11.705   0.722   1.010  0.1671  0.6458  1.3294
44099SOL     OW41074   8.460  11.895   5.000 -0.4049 -0.0714  0.0512
44099SOL    HW141075   8.428  11.872   5.088  1.2453  0.5400  0.8466
44099SOL    HW241076   8.384  11.883   4.944 -1.4487 -0.7118  1.5217
44100SOL     OW41077   8.448   1.598   0.047 -0.0935  0.0447  0.7502
44100SOL    HW141078   8.352   1.601   0.052 -0.5207 -1.0622 -3.2088
44100SOL    HW241079   8.472   1.679   0.002  0.4188 -0.9853 -0.9527
44101SOL     OW41080   2.466   6.432   3.128  0.1347  0.6747 -0.0907
44101SOL    HW141081   2.484   6.404   3.039 -0.7280 -1.1308  0.2392
44101SOL    HW241082   2.370   6.428   3.135  0.2443 -0.3999  1.2328
44102SOL     OW41083   3.403   5.877  10.155 -0.2730 -0.3133 -0.3536
44102SOL    HW141084   3.324   5.896  10.207 -0.4321  0.4620 -0.8542
44102SOL    HW241085   3.427   5.962  10.117  1.8533 -0.1584  1.1993
44103SOL     OW41086   9.586   8.569   1.660  0.1084  0.3499  0.2305
44103SOL    HW141087   9.659   8.595   1.604  0.2511 -0.8358 -0.1441
44103SOL    HW241088   9.609   8.481   1.690  0.4019  1.2215  2.7737
44104SOL     OW41089   3.401  11.122   2.246  0.0965 -0.0479  0.0579
44104SOL    HW141090   3.457  11.197   2.267  1.2858 -0.5274 -1.2485
44104SOL    HW241091   3.370  11.138   2.157 -0.9154 -0.3642  0.3362
44105SOL     OW41092  10.970   4.096  12.145 -0.1608 -0.4097 -0.1648
44105SOL    HW141093  10.934   4.065  12.228 -0.6012 -1.6272 -0.7946
44105SOL    HW241094  10.894   4.098  12.086  0.0750  0.7951 -0.4660
44106SOL     OW41095   6.549   8.058   0.018  0.0393  0.6023 -0.1705
44106SOL    HW141096   6.462   8.099   0.015 -0.3062 -0.1814 -2.4724
44106SOL    HW241097   6.570   8.054   0.112 -3.6319 -1.6814  0.7619
44107SOL     OW41098   4.163  10.707   5.988 -0.3154  0.2128 -0.7004
44107SOL    HW141099   4.110  10.725   6.065 -0.3696  1.4149 -0.9947
44107SOL    HW241100   4.115  10.639   5.941 -0.2417 -0.5913  0.3475
44108SOL     OW41101   3.995   7.127  11.527  0.0935 -0.6212  0.5014
44108SOL    HW141102   3.999   7.114  11.622  0.0960  1.5261  0.8394
44108SOL    HW241103   4.083   7.156  11.502 -0.8323  2.6072  0.5498
44109SOL     OW41104   9.592   1.558   7.385  0.2317  0.8079  0.1262
44109SOL    HW141105   9.526   1.586   7.449 -1.4372 -1.7900 -0.3201
44109SOL    HW241106   9.588   1.623   7.316 -2.6694  0.2008 -0.3739
44110SOL     OW41107   8.398   3.692   1.778 -0.0186  0.1605 -0.1259
44110SOL    HW141108   8.319   3.738   1.750  0.8066  1.5953 -0.1979
44110SOL    HW241109   8.366   3.615   1.824 -1.4458  0.3730 -0.7124
44111SOL     OW41110   9.168  11.452   9.859  0.0856  0.0267  0.5997
44111SOL    HW141111   9.172  11.420   9.949 -0.5550 -0.9822  0.2789
44111SOL    HW241112   9.121  11.536   9.866  0.6753  0.3092  1.2842
44112SOL     OW41113   6.759   3.052   2.497  0.2524 -0.2247  0.0484
44112SOL    HW141114   6.749   2.989   2.426 -0.1935  1.2786 -1.2760
44112SOL    HW241115   6.786   2.999   2.572 -0.5883 -2.0503 -0.8700
44113SOL     OW41116   1.799   4.199  11.388  0.0811 -0.2549  0.6515
44113SOL    HW141117   1.790   4.106  11.411 -1.6841 -0.0862  0.7522
44113SOL    HW241118   1.851   4.236  11.459 -0.1378 -0.9520  1.1888
44114SOL     OW41119   4.335  11.525   1.960 -0.0251 -0.2972  0.3138
44114SOL    HW141120   4.276  11.460   1.922 -1.3562  0.6251  0.7240
44114SOL    HW241121   4.301  11.538   2.049  1.5917 -0.6816  1.0219
44115SOL     OW41122   9.930  12.267  11.117  0.3232 -0.4063 -0.0606
44115SOL    HW141123   9.965  12.300  11.200  0.1082 -0.2519 -0.0287
44115SOL    HW241124  10.000  12.215  11.080  0.5906 -0.0858 -0.0068
44116SOL     OW41125   2.471  12.166   0.811  0.1487  0.0829 -0.5191
44116SOL    HW141126   2.438  12.211   0.733 -1.2836 -0.0333 -0.0112
44116SOL    HW241127   2.394  12.121   0.847  1.2647 -1.8041 -0.3441
44117SOL     OW41128   8.138   0.514  11.823  0.2013  0.1535 -0.1668
44117SOL    HW141129   8.209   0.451  11.831  0.7540  0.7050 -0.6007
44117SOL    HW241130   8.067   0.477  11.875 -0.5069 -2.2303 -2.5655
44118SOL     OW41131   6.324   1.481   6.540 -0.2488  0.6206 -0.2889
44118SOL    HW141132   6.333   1.406   6.598  0.7809  0.3146 -0.8222
44118SOL    HW241133   6.353   1.450   6.455 -0.4801  1.4306 -0.6815
44119SOL     OW41134   4.655  12.390   9.189  0.2824  0.6768 -0.3755
44119SOL    HW141135   4.657  12.329   9.263  1.7033  0.4852 -0.5467
44119SOL    HW241136   4.741  12.432   9.190 -0.6881  2.7812 -0.2147
44120SOL     OW41137  11.832   4.587   7.950 -0.4319  0.2210  0.6585
44120SOL    HW141138  11.883   4.518   7.908 -1.4773 -0.1956  0.0594
44120SOL    HW241139  11.842   4.570   8.044 -0.2295 -0.4024  0.5293
44121SOL     OW41140  12.054   9.612  11.231 -0.1516 -0.3834  0.1973
44121SOL    HW141141  12.111   9.635  11.304  0.4348 -0.1117 -0.3413
44121SOL    HW241142  11.966   9.634  11.261  0.2769  1.6205  0.0857
44122SOL     OW41143   5.505  10.837  10.675 -0.0780 -0.0108 -0.2772
44122SOL    HW141144   5.596  10.847  10.702  0.0532  0.3457 -0.8148
44122SOL    HW241145   5.456  10.829  10.756  0.4009  0.1015  0.0270
44123SOL     OW41146  11.940   3.977   9.033 -0.1529 -0.1630  0.0844
44123SOL    HW141147  11.887   3.963   9.112 -0.0653 -2.0310 -0.1369
44123SOL    HW241148  12.005   4.041   9.059 -1.8309  1.3815  0.6790
44124SOL     OW41149   3.423   0.470   4.504 -0.1385 -0.5748 -0.3103
44124SOL    HW141150   3.495   0.432   4.454 -0.6002 -0.9039 -0.7227
44124SOL    HW241151   3.355   0.487   4.440  0.0887  1.0623 -0.1632
44125SOL     OW41152   3.609   3.584  11.046 -0.1236 -0.4351 -0.1864
44125SOL    HW141153   3.555   3.661  11.028 -1.4840 -1.5634 -1.1618
44125SOL    HW241154   3.549   3.522  11.088  1.4921 -0.1803  2.8287
44126SOL     OW41155   2.437   9.615   3.825  0.0181  0.3230 -0.3485
44126SOL    HW141156   2.527   9.621   3.794 -0.4274  0.6367 -1.6734
44126SOL    HW241157   2.384   9.649   3.752 -1.2526 -1.0037 -0.1047
44127SOL     OW41158   0.615   0.469   3.120  0.2982  0.0970  0.5804
44127SOL    HW141159   0.589   0.539   3.179  1.5742  0.6345  0.5425
44127SOL    HW241160   0.550   0.400   3.134 -0.0831  0.6667  1.7570
44128SOL     OW41161   4.632   7.793  12.511 -0.0664  0.4374 -0.4425
44128SOL    HW141162   4.612   7.721  12.452  2.3121 -1.8770  1.3266
44128SOL    HW241163   4.627   7.755  12.598  1.3866  2.3613  0.5676
44129SOL     OW41164   5.501   9.231   7.600 -0.1028  0.4653 -0.1167
44129SOL    HW141165   5.459   9.175   7.666  0.1534  0.1012 -0.2588
44129SOL    HW241166   5.586   9.190   7.585 -0.7369 -0.3365 -1.7578
44130SOL     OW41167  10.059   0.090   5.685  0.5878 -0.3222  0.8546
44130SOL    HW141168  10.096   0.021   5.740 -0.3763 -1.2658  0.3698
44130SOL    HW241169  10.116   0.093   5.609 -0.3508 -1.9018  0.0227
44131SOL     OW41170   4.844  10.292   4.735 -0.4062 -0.3451  0.1401
44131SOL    HW141171   4.824  10.378   4.772 -0.9724 -0.6471  0.5468
44131SOL    HW241172   4.803  10.229   4.794 -0.6454 -0.8733 -0.5610
44132SOL     OW41173   2.440   6.486   1.060  0.1945 -0.2656  0.0134
44132SOL    HW141174   2.485   6.433   1.125 -0.3143 -1.0233 -0.2441
44132SOL    HW241175   2.348   6.484   1.086  0.1590  0.4378 -0.0373
44133SOL     OW41176   3.030  10.140  10.271 -0.5294 -0.4464 -0.3721
44133SOL    HW141177   2.953  10.134  10.326 -0.6914  1.2388 -0.3700
44133SOL    HW241178   3.065  10.050  10.268 -1.0167 -0.7539  1.7119
44134SOL     OW41179   1.067   1.263  12.189 -0.0810 -0.4797  0.3513
44134SOL    HW141180   1.043   1.237  12.279  1.2311 -1.1977  0.5259
44134SOL    HW241181   1.003   1.218  12.134 -1.4874  0.7132  0.9455
44135SOL     OW41182   1.036   1.081   3.628  0.1333  0.3905  0.1481
44135SOL    HW141183   1.000   1.046   3.546  2.0821 -0.9507 -0.2112
44135SOL    HW241184   1.032   1.176   3.618 -3.1292  0.3578  0.1362
44136SOL     OW41185   2.809  10.110   3.566 -0.4421  0.0867  0.1769
44136SOL    HW141186   2.838  10.074   3.650 -1.9021 -0.1482  0.6146
44136SOL    HW241187   2.870  10.181   3.548  0.1117 -0.0880  1.2585
44137SOL     OW41188   9.442   5.102   2.616  0.7179 -0.3185  0.0906
44137SOL    HW141189   9.474   5.020   2.579  0.6152  0.4666 -1.9061
44137SOL    HW241190   9.521   5.148   2.645  0.7144 -1.3820  1.8563
44138SOL     OW41191   9.849   0.322  11.755 -0.0956  0.5470 -0.0386
44138SOL    HW141192   9.942   0.303  11.740  0.6748  3.3036  0.6356
44138SOL    HW241193   9.841   0.416  11.736 -2.5060  0.5971  0.9392
44139SOL     OW41194  11.809  10.318   7.305  0.0792  0.8004  0.0830
44139SOL    HW141195  11.847  10.389   7.355  2.5813 -1.4981  1.7263
44139SOL    HW241196  11.871  10.304   7.232 -0.1585  0.1008  0.0029
44140SOL     OW41197   1.813   4.363   8.860  0.3953  0.0850 -0.1812
44140SOL    HW141198   1.795   4.273   8.887  2.3256  0.3244  2.3029
44140SOL    HW241199   1.797   4.415   8.940 -1.8223  2.1980 -1.8225
44141SOL     OW41200   2.495   6.329   6.355  0.5335 -0.3711 -0.2005
44141SOL    HW141201   2.409   6.330   6.397  0.3581 -2.6024 -0.3827
44141SOL    HW241202   2.555   6.357   6.423 -0.2595  0.7609  0.0716
44142SOL     OW41203   4.033   1.252  10.227 -0.1362 -0.1432 -0.2418
44142SOL    HW141204   4.003   1.243  10.317 -0.0963 -2.6623 -0.4117
44142SOL    HW241205   4.120   1.290  10.233 -0.1527 -0.2548  0.7680
44143SOL     OW41206   5.813  11.361   7.664  0.9539  0.3625 -0.1530
44143SOL    HW141207   5.867  11.376   7.586  1.5809  1.4074  0.4597
44143SOL    HW241208   5.816  11.266   7.676  1.8810  0.3066 -0.6785
44144SOL     OW41209   5.272   7.580   8.539  0.4169  0.1400  0.2408
44144SOL    HW141210   5.354   7.589   8.588 -0.2080  0.0209  1.3581
44144SOL    HW241211   5.231   7.667   8.545 -0.9373 -0.5547  2.3685
44145SOL     OW41212   0.082   1.873  10.754 -0.3012  0.4404 -0.1150
44145SOL    HW141213   0.119   1.930  10.687 -0.7818  1.3361  0.3685
44145SOL    HW241214  -0.013   1.881  10.743 -0.3875 -1.0176 -0.6621
44146SOL     OW41215   5.175   6.088   8.662  0.2654  0.4396  0.0383
44146SOL    HW141216   5.218   6.152   8.606 -1.0239  0.9241 -0.4396
44146SOL    HW241217   5.193   6.117   8.751  1.1396  0.4625 -0.1340
44147SOL     OW41218   7.011  12.532   7.711 -0.1538  0.5998 -0.0614
44147SOL    HW141219   7.037  12.513   7.801  1.3867 -2.8304 -1.0582
44147SOL    HW241220   6.919  12.506   7.706  0.5921 -2.4387 -0.1224
44148SOL     OW41221  10.390  12.357   4.327  0.2061  0.1835 -0.3936
44148SOL    HW141222  10.304  12.330   4.360  0.4248 -0.6903 -0.5300
44148SOL    HW241223  10.405  12.442   4.370  0.5335 -0.9538  1.9018
44149SOL     OW41224   8.328  10.559  12.263 -0.7030  0.3751  0.3506
44149SOL    HW141225   8.338  10.478  12.313 -1.0426 -0.3029 -0.6657
44149SOL    HW241226   8.245  10.596  12.295 -0.3320  0.5616  1.1277
44150SOL     OW41227   6.883   8.453   8.137 -0.1453 -0.3337 -0.3857
44150SOL    HW141228   6.912   8.540   8.112 -1.7060 -0.3715 -2.6143
44150SOL    HW241229   6.925   8.437   8.222  0.4342  2.4200 -0.0673
44151SOL     OW41230   9.651   4.046   8.703  0.3675  0.3601 -0.1959
44151SOL    HW141231   9.597   3.972   8.730 -2.5590  2.2819 -0.2882
44151SOL    HW241232   9.685   4.082   8.785  2.1303 -1.2027 -0.1742
44152SOL     OW41233   2.766   9.378  10.766 -0.2072 -0.5857  0.0353
44152SOL    HW141234   2.724   9.463  10.780  0.8956 -0.1394  0.7781
44152SOL    HW241235   2.836   9.375  10.831  0.0896 -1.8498 -0.3220
44153SOL     OW41236   5.499   2.568   2.475  0.2807  0.0547  0.2879
44153SOL    HW141237   5.548   2.549   2.395 -0.3570 -0.2815 -0.0388
44153SOL    HW241238   5.544   2.520   2.543  0.8770  0.4029  0.1422
44154SOL     OW41239   8.053   2.396   5.651 -0.0901 -0.4061  0.2129
44154SOL    HW141240   8.042   2.491   5.639  1.9518 -0.3509 -2.3432
44154SOL    HW241241   8.031   2.381   5.743 -3.7445  1.9431 -0.0320
44155SOL     OW41242   6.947   7.426   4.179  0.2683  0.0768 -0.3876
44155SOL    HW141243   6.870   7.372   4.161 -1.1560  1.0502  2.3210
44155SOL    HW241244   6.938   7.501   4.120 -0.3639 -0.2401 -0.7067
44156SOL     OW41245   9.101   0.532   1.718 -0.8881  0.1497 -0.3392
44156SOL    HW141246   9.134   0.490   1.797 -1.3414 -3.2122 -1.7487
44156SOL    HW241247   9.154   0.611   1.708  0.5156 -0.3790  2.2157
44157SOL     OW41248   5.267   6.226  10.368 -0.0231 -0.2276  0.6113
44157SOL    HW141249   5.359   6.230  10.397  0.3300 -0.3129 -0.4622
44157SOL    HW241250   5.230   6.153  10.418  0.3159  0.1910  1.5078
44158SOL     OW41251   6.995   9.717   4.896 -0.6719 -0.1506 -0.2416
44158SOL    HW141252   6.965   9.634   4.934 -1.6509 -0.1904 -1.0511
44158SOL    HW241253   7.031   9.693   4.811 -0.2331  0.1653 -0.1471
44159SOL     OW41254   3.067   1.777   3.789  0.0947  0.5551  0.0454
44159SOL    HW141255   3.048   1.688   3.758  2.2679 -0.8247  2.2601
44159SOL    HW241256   3.160   1.774   3.813  0.2914  3.5419 -0.0087
44160SOL     OW41257   3.771   8.538   3.366 -0.0904 -0.5946 -0.0273
44160SOL    HW141258   3.725   8.520   3.284  0.8340 -0.9445 -0.4769
44160SOL    HW241259   3.806   8.627   3.355  0.6803 -0.9247 -0.3337
44161SOL     OW41260  12.133   7.270   7.001 -0.1263 -0.1744  0.2234
44161SOL    HW141261  12.083   7.337   6.955  0.7134  0.2618 -0.0856
44161SOL    HW241262  12.153   7.204   6.935  1.2994  0.5769 -0.1291
44162SOL     OW41263   2.200   3.745   1.988  0.3700 -0.0677 -0.1774
44162SOL    HW141264   2.119   3.772   1.944  1.2662 -0.3621 -2.0855
44162SOL    HW241265   2.220   3.817   2.047 -1.3153 -0.0148  0.4027
44163SOL     OW41266   6.420   5.963   2.487 -0.3850 -0.1838  0.1999
44163SOL    HW141267   6.479   6.002   2.423  0.0753 -0.7158  0.2893
44163SOL    HW241268   6.332   5.979   2.452 -0.1665  0.1702 -0.1911
44164SOL     OW41269   3.372  10.426   7.056 -0.7363 -0.8543  0.3448
44164SOL    HW141270   3.458  10.400   7.022 -0.4791  0.8727 -0.4468
44164SOL    HW241271   3.338  10.488   6.991 -1.6886  0.0340  1.6316
44165SOL     OW41272   5.701  10.759   6.484 -0.5140 -0.5806  0.5900
44165SOL    HW141273   5.782  10.721   6.449 -0.8671 -0.2440 -0.6390
44165SOL    HW241274   5.722  10.852   6.495 -0.3066 -0.7373  1.6160
44166SOL     OW41275   2.060   0.236   8.002 -0.6055 -0.2257 -0.2759
44166SOL    HW141276   2.056   0.179   7.925  1.4673 -1.3943  0.4047
44166SOL    HW241277   2.004   0.193   8.067 -0.6694 -0.3822 -0.4346
44167SOL     OW41278   1.300   2.622  12.611 -0.0726  0.2694  0.1593
44167SOL    HW141279   1.218   2.586  12.578  0.8233 -0.0069 -1.9009
44167SOL    HW241280   1.332   2.554  12.671  0.2390 -1.2260 -1.5853
44168SOL     OW41281   6.364   3.393   7.826  0.4941 -0.9934  0.0201
44168SOL    HW141282   6.383   3.334   7.900  0.4075 -1.8050 -0.5828
44168SOL    HW241283   6.431   3.461   7.832 -0.4308 -0.1509  1.7485
44169SOL     OW41284  11.560   8.384  11.652 -0.0358 -0.0945  0.0523
44169SOL    HW141285  11.532   8.475  11.641  2.5909  0.6538 -1.4301
44169SOL    HW241286  11.608   8.383  11.735 -0.6202 -0.2915  0.3889
44170SOL     OW41287   6.427   5.151   1.863 -0.3518 -0.1701 -0.4089
44170SOL    HW141288   6.385   5.085   1.918 -1.3322  0.6744 -0.1177
44170SOL    HW241289   6.359   5.215   1.846  0.7263  1.0552 -0.2472
44171SOL     OW41290   8.496   6.710  10.013  0.3455 -0.3099  0.4357
44171SOL    HW141291   8.453   6.696  10.097 -0.1824 -0.0252  0.2195
44171SOL    HW241292   8.441   6.664   9.949 -0.1116  0.7371  0.0461
44172SOL     OW41293   3.504   4.366  10.210  0.1091 -0.3915  0.1523
44172SOL    HW141294   3.505   4.362  10.306 -0.3087  1.5596  0.2693
44172SOL    HW241295   3.576   4.425  10.187 -1.3624  1.1946 -0.5682
44173SOL     OW41296   9.460   2.405   5.853 -0.1449  0.1628 -0.0501
44173SOL    HW141297   9.452   2.452   5.770  1.2489 -0.3497 -0.5002
44173SOL    HW241298   9.534   2.346   5.840  0.2767  0.2670  1.6654
44174SOL     OW41299   2.293   1.098   8.934  0.4114 -0.0225  0.0509
44174SOL    HW141300   2.284   1.073   8.842  1.6527 -1.0533  0.1770
44174SOL    HW241301   2.374   1.148   8.938 -0.5871  1.6377  0.3014
44175SOL     OW41302   5.616   5.013   8.906  0.2675  0.1785 -0.2924
44175SOL    HW141303   5.652   5.067   8.977 -0.0865 -0.3043  0.2636
44175SOL    HW241304   5.691   4.996   8.849  0.2556  1.8138 -0.8525
44176SOL     OW41305   9.310   3.147   6.997 -0.2628  1.1084 -0.1039
44176SOL    HW141306   9.398   3.113   7.013 -1.4273 -1.5918  1.1872
44176SOL    HW241307   9.310   3.234   7.037  1.5465  0.8206  0.6058
44177SOL     OW41308   6.794   5.708   4.429  0.1248  0.5943 -0.5609
44177SOL    HW141309   6.710   5.733   4.391 -0.2654  1.5374  0.8400
44177SOL    HW241310   6.858   5.766   4.389  0.1214 -0.0919 -1.5945
44178SOL     OW41311   1.918  11.367  11.068  0.2675  0.2202  0.9285
44178SOL    HW141312   1.950  11.449  11.029  1.8268 -0.8600 -0.1737
44178SOL    HW241313   1.823  11.379  11.074  0.3427  1.6710 -0.2559
44179SOL     OW41314   0.740   8.385  12.293  0.3881 -0.2941  0.2528
44179SOL    HW141315   0.776   8.304  12.331  2.4974  1.4564  2.3060
44179SOL    HW241316   0.651   8.390  12.327 -0.2293 -2.3122 -0.9086
44180SOL     OW41317   5.732   3.478   6.465  0.1284  0.1998  0.4444
44180SOL    HW141318   5.718   3.390   6.431  0.0470  0.1270  0.6664
44180SOL    HW241319   5.645   3.518   6.463  0.1080  0.1672  0.6448
44181SOL     OW41320   5.693   1.007  10.460  0.3967  0.9815  0.5039
44181SOL    HW141321   5.636   1.001  10.383 -0.6432 -1.9685  1.3653
44181SOL    HW241322   5.720   1.099  10.463 -1.9069  1.8433 -1.6579
44182SOL     OW41323   5.248  11.101   3.052 -0.8268 -0.2233  0.0401
44182SOL    HW141324   5.264  11.019   3.098 -1.8966 -0.4365  0.0523
44182SOL    HW241325   5.235  11.166   3.120 -0.4622 -0.1387  0.0302
44183SOL     OW41326   1.652  11.847   0.538 -0.0174 -0.0474  0.0076
44183SOL    HW141327   1.748  11.851   0.540 -0.0491  0.9907  2.4616
44183SOL    HW241328   1.628  11.912   0.472  0.9414 -1.3042 -1.6623
44184SOL     OW41329   0.775   5.462   7.316 -0.1407 -0.2715  0.2512
44184SOL    HW141330   0.768   5.555   7.336  0.4539 -0.4950  1.6119
44184SOL    HW241331   0.850   5.455   7.258 -0.0845  0.0836  0.2784
44185SOL     OW41332   3.243   4.310   8.497  0.1033  0.9133 -0.2494
44185SOL    HW141333   3.210   4.372   8.431  2.2704  2.4519 -0.0172
44185SOL    HW241334   3.338   4.318   8.491  0.4098 -0.8972  1.2657
44186SOL     OW41335  11.435  11.650   1.888 -0.0120 -0.2539 -0.5003
44186SOL    HW141336  11.425  11.726   1.945 -1.2312 -0.3001 -0.6239
44186SOL    HW241337  11.423  11.575   1.946 -0.7266 -0.3108 -0.7231
44187SOL     OW41338   7.509  10.484   9.108  0.8215 -0.3415  0.4701
44187SOL    HW141339   7.427  10.533   9.117 -0.9070 -2.4173 -2.2231
44187SOL    HW241340   7.561  10.536   9.046  1.4621  0.7953  1.9067
44188SOL     OW41341   9.499   7.260   8.283 -0.1898  0.3158 -0.1611
44188SOL    HW141342   9.453   7.212   8.215 -0.2950  0.2978 -0.0780
44188SOL    HW241343   9.590   7.233   8.275 -0.1434  0.5708 -0.5158
44189SOL     OW41344   9.663   6.479   2.842  0.5393  0.4874  0.4752
44189SOL    HW141345   9.667   6.574   2.828  0.2398  0.5617  0.8622
44189SOL    HW241346   9.610   6.446   2.770  1.2694  0.5182 -0.0831
44190SOL     OW41347   5.252   2.113   6.548 -0.8080 -0.1935  0.4999
44190SOL    HW141348   5.169   2.151   6.521  0.5555  1.6180 -1.4193
44190SOL    HW241349   5.304   2.187   6.579  1.2208 -0.7133 -1.4119
44191SOL     OW41350   0.852   9.851  11.355 -0.2119 -0.4078 -0.0562
44191SOL    HW141351   0.777   9.792  11.354  0.4897 -1.3899  1.6057
44191SOL    HW241352   0.850   9.892  11.441  0.6617  0.2210 -0.3153
44192SOL     OW41353  11.683   7.962   6.171 -0.7142 -0.3548 -0.0775
44192SOL    HW141354  11.777   7.952   6.186 -0.4071  2.4248  0.4303
44192SOL    HW241355  11.676   7.987   6.079 -0.8125  0.7138  0.2133
44193SOL     OW41356   7.737   1.600   7.376  0.1420  0.1711  0.2772
44193SOL    HW141357   7.808   1.607   7.439  0.2768 -1.8834  0.4056
44193SOL    HW241358   7.781   1.591   7.291  0.0140 -0.1616  0.2463
44194SOL     OW41359   0.522   1.274   4.932 -0.7842  0.1394  0.0568
44194SOL    HW141360   0.588   1.209   4.954 -1.5656 -1.2255 -1.3994
44194SOL    HW241361   0.442   1.243   4.974 -1.9526 -1.7456 -3.1962
44195SOL     OW41362   7.033  11.955   7.593  0.5776  0.2683 -0.6882
44195SOL    HW141363   7.003  11.939   7.683  0.5230 -1.0263 -0.9209
44195SOL    HW241364   7.084  12.036   7.600  0.7732  0.0686  0.5608
44196SOL     OW41365   7.615  11.841   5.485 -0.0868 -0.0351 -0.0209
44196SOL    HW141366   7.689  11.837   5.546  0.4725  0.9047 -0.6258
44196SOL    HW241367   7.589  11.933   5.484 -1.0749 -0.3059 -0.0476
44197SOL     OW41368   2.744   8.853   8.557  0.2332  0.1486  0.1173
44197SOL    HW141369   2.749   8.897   8.642 -1.5904  1.4602 -0.3999
44197SOL    HW241370   2.659   8.809   8.557  0.4112 -0.2268 -0.8409
44198SOL     OW41371   6.189  10.814   5.266  0.3780  0.3143  0.4968
44198SOL    HW141372   6.199  10.878   5.195  1.1176 -0.0493  0.2620
44198SOL    HW241373   6.248  10.743   5.243  1.6376  0.7714  2.1368
44199SOL     OW41374   9.338   5.584   5.822  0.1371  0.0472  0.2374
44199SOL    HW141375   9.402   5.650   5.848  0.4239  0.5544 -1.5978
44199SOL    HW241376   9.380   5.537   5.751 -0.3099 -1.7455  1.1068
44200SOL     OW41377  12.242   1.611   2.517  0.1973  0.1087 -0.2985
44200SOL    HW141378  12.264   1.580   2.429 -1.4103 -0.1618 -0.6342
44200SOL    HW241379  12.258   1.535   2.574  2.2091  0.5809 -0.1636
44201SOL     OW41380   9.463  10.540   5.683  0.1336 -0.0607 -0.2656
44201SOL    HW141381   9.383  10.517   5.731  0.5835  0.1243  0.5897
44201SOL    HW241382   9.530  10.549   5.751  1.4229 -2.3573 -1.0980
44202SOL     OW41383   9.949   2.020  10.886 -0.2881 -0.1776  0.0360
44202SOL    HW141384   9.882   1.952  10.892  0.8643 -1.2066  2.1715
44202SOL    HW241385   9.902   2.101  10.909 -0.4259 -1.2119  4.0265
44203SOL     OW41386   4.751   1.059  11.416 -0.0886 -0.5947  0.3321
44203SOL    HW141387   4.708   1.073  11.332  0.6014  2.1418  0.3346
44203SOL    HW241388   4.757   1.147  11.455  1.1618 -1.5401  2.4568
44204SOL     OW41389   6.841  11.232   6.163 -0.4386 -0.2788  0.4676
44204SOL    HW141390   6.788  11.182   6.100 -2.0180  0.3963  1.1998
44204SOL    HW241391   6.777  11.283   6.213  0.9880  1.2185  0.8584
44205SOL     OW41392   6.463  10.199   8.139 -0.2592 -0.5562 -0.1907
44205SOL    HW141393   6.456  10.104   8.130  0.9305 -0.5760 -1.1466
44205SOL    HW241394   6.551  10.213   8.175 -0.7359  0.1633  0.7571
44206SOL     OW41395   5.528   1.446  12.115 -0.4702  0.4285  0.5161
44206SOL    HW141396   5.535   1.351  12.129  0.3107  0.5049  0.7493
44206SOL    HW241397   5.615   1.479  12.139 -1.4723  1.5095  2.9350
44207SOL     OW41398   9.841   7.594   4.266 -0.5958  0.0476  0.4352
44207SOL    HW141399   9.759   7.560   4.302  0.2109 -0.9420  1.4495
44207SOL    HW241400   9.905   7.524   4.283  0.5083  0.8931 -0.0992
44208SOL     OW41401   9.495   7.013  12.588  0.2512  0.1463 -0.7569
44208SOL    HW141402   9.490   7.104  12.560  1.5268  0.2748 -0.5875
44208SOL    HW241403   9.559   7.013  12.659  0.4305 -0.9230 -0.9086
44209SOL     OW41404  11.575   2.346   8.706 -0.2623 -0.9454 -0.7538
44209SOL    HW141405  11.481   2.326   8.697 -0.5064 -1.6310  2.2305
44209SOL    HW241406  11.579   2.408   8.779  1.4812  1.1178 -2.4784
44210SOL     OW41407   3.884  10.025   6.851  0.5909 -0.2211 -0.4478
44210SOL    HW141408   3.947  10.034   6.922  0.0992 -0.1151 -0.0136
44210SOL    HW241409   3.879   9.931   6.833  0.0675 -0.3413  0.2704
44211SOL     OW41410   2.195   7.534   3.689 -0.1392  0.2794  0.7121
44211SOL    HW141411   2.116   7.490   3.721  1.5437 -1.3375  2.9587
44211SOL    HW241412   2.212   7.493   3.605 -0.9483 -0.3055  0.8178
44212SOL     OW41413   1.381   1.646   0.391 -0.0431 -0.4401 -0.1632
44212SOL    HW141414   1.467   1.668   0.426  0.6498 -0.1176 -1.9682
44212SOL    HW241415   1.336   1.602   0.463  1.6799 -0.7551  0.7637
44213SOL     OW41416   6.231   4.716   6.155  0.0248  0.2889  0.0403
44213SOL    HW141417   6.274   4.695   6.237 -0.8213 -0.6153  0.2679
44213SOL    HW241418   6.290   4.683   6.087 -1.8401 -4.4940  0.3425
44214SOL     OW41419   5.948  12.276   3.621 -0.5881 -0.7308  0.1880
44214SOL    HW141420   5.979  12.287   3.711  0.6366  1.8290 -0.4722
44214SOL    HW241421   5.872  12.334   3.614 -0.4245 -0.5959 -0.5498
44215SOL     OW41422   4.694   3.474   9.425  0.0199  0.1428  0.1134
44215SOL    HW141423   4.681   3.546   9.364 -3.4546 -0.3063  0.1091
44215SOL    HW241424   4.699   3.515   9.511 -0.0989  0.5118 -0.0565
44216SOL     OW41425   1.822   7.753   9.686 -0.0312 -0.3344  0.2630
44216SOL    HW141426   1.839   7.825   9.625  0.5461 -0.2729  0.4833
44216SOL    HW241427   1.857   7.676   9.642  1.1810 -0.1583  0.8535
44217SOL     OW41428   1.383   4.734   5.529  0.0207 -0.5097 -0.3683
44217SOL    HW141429   1.402   4.674   5.456 -0.5111 -1.4707  0.2612
44217SOL    HW241430   1.370   4.819   5.487  3.0173 -0.2830 -1.1090
44218SOL     OW41431  11.639   1.605   4.935 -0.3352 -0.2670 -0.2947
44218SOL    HW141432  11.632   1.673   5.003 -0.6605 -1.0427  0.4646
44218SOL    HW241433  11.729   1.574   4.942  0.2699  1.0582 -1.6241
44219SOL     OW41434   2.795   5.846  11.266  0.0589  0.0413 -0.1630
44219SOL    HW141435   2.765   5.922  11.317  2.0939 -0.1784  1.4730
44219SOL    HW241436   2.720   5.787  11.266 -0.3132  0.4209  1.8973
44220SOL     OW41437   4.745   4.653  10.113  0.0509 -0.3164 -0.1042
44220SOL    HW141438   4.680   4.604  10.062  0.7786 -1.9965  0.4878
44220SOL    HW241439   4.702   4.736  10.133 -1.5943 -1.0235 -0.4716
44221SOL     OW41440  12.129   5.632   1.059  0.6314  0.2510  0.4457
44221SOL    HW141441  12.119   5.538   1.040 -1.7770  0.6904 -0.8567
44221SOL    HW241442  12.040   5.662   1.075  1.0945  2.7145 -1.1685
44222SOL     OW41443   1.518   4.324   3.358  0.0263 -0.0573  0.3790
44222SOL    HW141444   1.550   4.257   3.418 -0.8922 -0.1842  0.7555
44222SOL    HW241445   1.424   4.306   3.350  0.2924 -0.7438 -2.0013
44223SOL     OW41446   2.154   5.635  10.992  0.1912 -0.0423  0.1677
44223SOL    HW141447   2.197   5.574  10.931  2.2793  0.5038  1.0051
44223SOL    HW241448   2.148   5.586  11.074  1.5188  0.7022  0.7360
44224SOL     OW41449   2.593   6.504   4.512 -0.0041 -0.2830  0.0594
44224SOL    HW141450   2.512   6.460   4.537 -0.8855  1.3624  0.2579
44224SOL    HW241451   2.645   6.505   4.592 -0.2559 -0.3795  0.2287
44225SOL     OW41452  10.227   9.741   7.268  0.1481  0.6554  0.0004
44225SOL    HW141453  10.233   9.814   7.206  0.7286 -0.0526 -0.7837
44225SOL    HW241454  10.234   9.783   7.354  1.8669  1.4104 -0.4665
44226SOL     OW41455   9.191   0.161   4.658  0.2204  0.2946 -0.2259
44226SOL    HW141456   9.106   0.155   4.616 -0.3227  1.6605  0.6024
44226SOL    HW241457   9.241   0.087   4.623 -0.5770  0.6831 -2.3697
44227SOL     OW41458   0.865  10.713   8.788  0.2004 -0.5451 -0.5411
44227SOL    HW141459   0.917  10.662   8.851  0.2565  1.3121  0.9796
44227SOL    HW241460   0.776  10.680   8.799  0.1313  0.0398  0.8553
44228SOL     OW41461  11.103   3.524   7.539 -0.2188 -0.1094  0.4741
44228SOL    HW141462  11.016   3.548   7.506  0.1266  0.8708  0.2128
44228SOL    HW241463  11.089   3.446   7.592 -0.8384 -1.7367 -1.9247
44229SOL     OW41464   8.822   0.745   4.728 -0.7135  0.3996 -0.0535
44229SOL    HW141465   8.738   0.784   4.705 -0.5268  1.5576  1.1188
44229SOL    HW241466   8.820   0.737   4.824  0.7565  1.0965  0.0769
44230SOL     OW41467   7.970   1.391   0.141 -0.0471 -0.5093 -0.4018
44230SOL    HW141468   8.034   1.323   0.121 -0.7557 -1.5598  0.7817
44230SOL    HW241469   7.885   1.348   0.135 -0.5929  0.5808 -0.8210
44231SOL     OW41470   6.926   4.869   7.763  0.5664  0.2542  0.4805
44231SOL    HW141471   6.951   4.829   7.846 -2.1835 -2.1694  0.3065
44231SOL    HW241472   6.839   4.906   7.780  0.1434  0.0955 -1.1890
44232SOL     OW41473  12.104  12.497  11.304 -0.5890  0.4616  0.1642
44232SOL    HW141474  12.081  12.582  11.268  1.3908  1.7034  1.6500
44232SOL    HW241475  12.020  12.457  11.326 -1.5602  2.1202 -0.3420
44233SOL     OW41476   2.591   6.871   8.780 -0.0395 -0.1435 -0.1873
44233SOL    HW141477   2.675   6.914   8.796  0.7824 -2.1283  1.3801
44233SOL    HW241478   2.593   6.849   8.687  0.1160  1.8709 -0.7001
44234SOL     OW41479  10.360   0.993   8.165 -0.2729  0.5867  0.4441
44234SOL    HW141480  10.373   1.002   8.260  0.6379 -0.3345  0.4258
44234SOL    HW241481  10.439   1.029   8.126 -0.6163  0.8991  0.0369
44235SOL     OW41482   1.521   8.292   1.073  0.1308  0.3377  0.3241
44235SOL    HW141483   1.599   8.318   1.024 -0.7977  0.5987 -1.0877
44235SOL    HW241484   1.511   8.360   1.139 -1.3065  2.8214 -2.2448
44236SOL     OW41485  10.174  10.275   0.422  0.6710  0.0076  0.1429
44236SOL    HW141486  10.199  10.216   0.352  1.0146 -0.8396  0.9556
44236SOL    HW241487  10.096  10.320   0.390  0.9986 -0.1385 -0.8895
44237SOL     OW41488  12.193  10.885   1.985 -0.4602  0.0065  0.3513
44237SOL    HW141489  12.123  10.837   2.031  0.2398  0.4166  1.9280
44237SOL    HW241490  12.183  10.976   2.014 -1.2510  0.7235 -1.9534
44238SOL     OW41491   9.997  10.734   4.129  0.0030 -0.5975 -0.1278
44238SOL    HW141492   9.953  10.788   4.194  0.3375  0.7338 -0.9500
44238SOL    HW241493   9.930  10.717   4.062  0.4844  0.7826 -1.0013
44239SOL     OW41494   2.320   5.520   0.487 -0.2303 -0.2320  0.7364
44239SOL    HW141495   2.372   5.548   0.411 -0.8205 -1.0232  0.0130
44239SOL    HW241496   2.253   5.464   0.449 -0.1430 -1.1713  1.9299
44240SOL     OW41497   4.550   8.488   5.089  0.6212  0.1927  0.6085
44240SOL    HW141498   4.573   8.530   5.005  0.2910 -1.6088 -0.4228
44240SOL    HW241499   4.546   8.395   5.069  2.1213 -0.4832  2.9960
44241SOL     OW41500   7.891   4.730   9.464  0.0546  0.1274  0.1357
44241SOL    HW141501   7.892   4.752   9.371  1.2314 -0.4093  0.0013
44241SOL    HW241502   7.941   4.648   9.470 -2.4782 -1.4587  0.8710
44242SOL     OW41503  10.111   5.753   0.429 -0.1700 -0.2214 -0.4057
44242SOL    HW141504  10.110   5.799   0.513 -1.4325 -1.7220  0.4621
44242SOL    HW241505  10.202   5.757   0.401  0.4389 -0.3383  1.4177
44243SOL     OW41506   8.230   8.359   8.725  0.4626  0.0824  0.1576
44243SOL    HW141507   8.226   8.289   8.790  2.2851  0.6044  0.8901
44243SOL    HW241508   8.246   8.439   8.775 -2.5881  1.2872 -0.5578
44244SOL     OW41509   5.703   1.919   0.871 -0.5339  0.0953  0.1041
44244SOL    HW141510   5.677   2.011   0.871 -3.4882 -0.6507 -0.7420
44244SOL    HW241511   5.708   1.896   0.964  2.0333  1.4650  0.4073
44245SOL     OW41512  10.065  10.428   1.566  0.2697  0.9588  0.0483
44245SOL    HW141513  10.023  10.395   1.646 -0.4723  0.4023 -0.5471
44245SOL    HW241514  10.071  10.522   1.579 -1.3044  1.0816  0.1156
44246SOL     OW41515   9.077   4.933  11.375 -0.8940  1.0370 -0.5452
44246SOL    HW141516   9.030   4.956  11.295  1.4285 -0.8383 -2.6194
44246SOL    HW241517   9.142   5.001  11.386 -2.2878  2.2289  0.8467
44247SOL     OW41518  11.587   9.792   4.553 -0.0639  0.8418 -0.7372
44247SOL    HW141519  11.531   9.805   4.630 -0.7752  1.1731 -1.2978
44247SOL    HW241520  11.568   9.868   4.498  3.3419  2.7660  0.4813
44248SOL     OW41521   9.165   1.077  11.238 -0.8837  0.2818  0.9191
44248SOL    HW141522   9.105   1.004  11.223  1.0474 -0.9321 -1.4657
44248SOL    HW241523   9.201   1.097  11.152  0.8994  2.0637  1.9957
44249SOL     OW41524   0.365   1.358   5.499 -0.4493 -1.0307  0.5697
44249SOL    HW141525   0.461   1.357   5.499 -0.3812  0.6393 -0.7572
44249SOL    HW241526   0.340   1.282   5.550  1.5818 -2.4466 -0.4228
44250SOL     OW41527   3.748   8.537   1.189 -0.2422 -0.2264  0.0341
44250SOL    HW141528   3.690   8.461   1.195  0.0298 -0.4828 -0.5651
44250SOL    HW241529   3.700   8.601   1.137 -0.3604 -0.0853  0.3125
44251SOL     OW41530   0.841   5.662   8.245 -0.2989  0.3401 -0.1547
44251SOL    HW141531   0.784   5.636   8.317  0.4966 -1.2775 -0.0687
44251SOL    HW241532   0.924   5.686   8.287  0.4370 -1.3694 -0.5159
44252SOL     OW41533   3.845   5.040   1.971 -0.0616  0.7470  0.5081
44252SOL    HW141534   3.877   5.056   2.059  1.7354 -1.9705  0.4645
44252SOL    HW241535   3.890   4.961   1.943 -3.2281 -0.5205 -1.5459
44253SOL     OW41536  12.294   3.798  11.442  0.7685  0.4368  0.0672
44253SOL    HW141537  12.318   3.726  11.383  0.2864 -0.0048  0.3933
44253SOL    HW241538  12.280   3.873  11.384  1.4924  0.3273 -0.2562
44254SOL     OW41539   3.974   1.539   1.086  0.9616  0.1469 -0.3098
44254SOL    HW141540   3.919   1.469   1.051 -1.3276  2.4873 -1.7189
44254SOL    HW241541   4.032   1.563   1.013 -0.4687  1.7715 -0.9738
44255SOL     OW41542   0.414   3.209   7.881 -0.0688  0.0317  0.0425
44255SOL    HW141543   0.321   3.194   7.894 -0.6131  1.5157 -1.7199
44255SOL    HW241544   0.424   3.304   7.884  1.0480  0.0215 -1.6861
44256SOL     OW41545   7.794   8.989  12.402 -0.3428  0.1444  0.4726
44256SOL    HW141546   7.873   9.023  12.445  0.1805 -0.9495  0.4284
44256SOL    HW241547   7.752   9.066  12.365  2.3686  0.5009 -2.2396
44257SOL     OW41548  10.382   7.663  11.362  0.4863 -0.0797  0.1468
44257SOL    HW141549  10.437   7.629  11.291  0.5043 -0.3834  0.3022
44257SOL    HW241550  10.444   7.686  11.431  0.4202 -0.4049  0.3157
44258SOL     OW41551   1.602   7.544   9.404  0.0690  0.7584  0.0043
44258SOL    HW141552   1.541   7.495   9.349 -0.0109 -0.2533  0.9600
44258SOL    HW241553   1.550   7.570   9.479  0.9096 -0.6388  1.1273
44259SOL     OW41554   5.817  11.088   6.998 -0.0903  0.1448 -0.1849
44259SOL    HW141555   5.851  11.118   7.082  0.0383 -2.0041  0.5942
44259SOL    HW241556   5.722  11.083   7.012 -0.2896  1.6982 -0.8480
44260SOL     OW41557  12.067   4.051   3.632  0.7689  0.0632  0.1656
44260SOL    HW141558  12.089   4.018   3.719 -0.3599  0.0872  0.4700
44260SOL    HW241559  12.002   3.990   3.598 -2.0261  2.2831  1.0818
44261SOL     OW41560   1.919   9.673   0.317 -0.0923  0.5324  0.4481
44261SOL    HW141561   1.940   9.686   0.410  0.7995 -0.6734  0.4453
44261SOL    HW241562   1.897   9.760   0.285 -3.1952  0.6372  2.4195
44262SOL     OW41563   2.182   1.389   3.200  0.1961  0.0534  0.5643
44262SOL    HW141564   2.143   1.413   3.285  0.5854 -0.0317  0.7727
44262SOL    HW241565   2.275   1.409   3.211  0.8549 -2.9871  1.3067
44263SOL     OW41566   1.148   9.690   8.042 -0.2473  0.3402 -0.8650
44263SOL    HW141567   1.120   9.707   7.952 -2.4626 -0.0430 -0.3097
44263SOL    HW241568   1.227   9.743   8.053  0.1785  0.2585 -3.0654
44264SOL     OW41569   0.883   5.973   1.749  0.2918 -0.3366 -0.6225
44264SOL    HW141570   0.846   5.924   1.822 -0.6087 -0.9552 -1.4574
44264SOL    HW241571   0.848   6.062   1.759  0.1869 -0.4157 -0.2894
44265SOL     OW41572   5.192   3.677   4.217  0.0815 -0.0611 -0.0153
44265SOL    HW141573   5.255   3.747   4.202 -1.4177  0.9874 -1.8447
44265SOL    HW241574   5.240   3.596   4.198  2.2428  0.2213  3.4727
44266SOL     OW41575   9.195   1.432   7.658 -0.2237  0.1536  0.7821
44266SOL    HW141576   9.236   1.426   7.745  0.1785  0.7202  0.6359
44266SOL    HW241577   9.102   1.446   7.677  0.1300  2.3159  1.1672
44267SOL     OW41578  10.084   0.642   7.739 -0.5583 -0.0168 -0.0376
44267SOL    HW141579  10.034   0.574   7.695  0.0187 -0.7346  0.3983
44267SOL    HW241580  10.164   0.598   7.768  1.5467  1.5692 -2.8492
44268SOL     OW41581   3.680  12.296   7.771 -0.1509  0.2115  0.0736
44268SOL    HW141582   3.672  12.202   7.759  1.4810  0.2723 -2.1591
44268SOL    HW241583   3.680  12.309   7.866 -1.3926 -1.8859  0.4118
44269SOL     OW41584   1.558   7.786   7.131  0.3291 -0.8746  0.6360
44269SOL    HW141585   1.632   7.770   7.073 -0.1545 -2.4732  0.4095
44269SOL    HW241586   1.483   7.751   7.084 -1.4369  4.1268 -0.9778
44270SOL     OW41587   9.610   1.567   6.588 -0.0992  0.2685  0.0496
44270SOL    HW141588   9.634   1.652   6.552  0.0271 -0.7651 -2.6051
44270SOL    HW241589   9.691   1.534   6.628 -0.6408  2.1139  2.8667
44271SOL     OW41590   5.704  11.479   2.036 -1.0039 -0.1685  0.0466
44271SOL    HW141591   5.623  11.481   1.985  0.0958  0.1382 -1.8214
44271SOL    HW241592   5.709  11.389   2.069 -1.5454 -0.5354 -0.8151
44272SOL     OW41593   7.014   5.074   9.473 -0.1803  0.3294  0.4333
44272SOL    HW141594   7.032   5.166   9.453  0.4214 -0.0398 -0.8174
44272SOL    HW241595   6.923   5.061   9.448  0.0446  0.3332 -0.4383
44273SOL     OW41596  11.657   9.024   1.177 -0.0844  0.2794 -0.6228
44273SOL    HW141597  11.586   8.964   1.198 -0.7246  1.3038  0.2312
44273SOL    HW241598  11.685   8.998   1.089 -1.1395 -0.4789 -0.7600
44274SOL     OW41599   4.819  10.983   5.799  0.1335 -0.4554 -0.2974
44274SOL    HW141600   4.749  10.957   5.859 -0.3731 -0.1009 -0.7284
44274SOL    HW241601   4.793  10.946   5.715  0.5705 -0.4919 -0.4190
44275SOL     OW41602   4.168  10.225   9.964  0.1115 -0.0548 -0.0979
44275SOL    HW141603   4.188  10.154   9.903  1.7185  0.5151 -0.2921
44275SOL    HW241604   4.084  10.261   9.932 -0.4495 -1.4934 -0.3046
44276SOL     OW41605   8.116   5.140   5.927 -0.2667  0.2340 -0.0948
44276SOL    HW141606   8.104   5.201   6.000  1.1656 -0.9813  1.2345
44276SOL    HW241607   8.202   5.100   5.944 -0.1286 -0.4519 -2.1863
44277SOL     OW41608  10.064   9.033   0.774  0.6385  0.2629 -0.2847
44277SOL    HW141609  10.058   8.990   0.859  1.0064  0.4143 -0.1787
44277SOL    HW241610  10.098   9.121   0.794 -1.8349  1.2862 -0.2801
44278SOL     OW41611   5.200   3.886   2.883  0.1493  0.3242 -0.1923
44278SOL    HW141612   5.242   3.893   2.797 -1.0863 -1.2112 -0.9726
44278SOL    HW241613   5.185   3.792   2.894  1.3713  0.3367  2.2762
44279SOL     OW41614   5.198   0.271   0.092  0.3494 -0.2333 -0.4109
44279SOL    HW141615   5.165   0.263   0.181  0.1799  1.7691 -0.2395
44279SOL    HW241616   5.256   0.196   0.081  1.4416  0.1638  1.8787
44280SOL     OW41617  11.554  11.049   9.960  0.3436 -0.3619 -0.2766
44280SOL    HW141618  11.650  11.043   9.955  0.3122 -0.6541 -0.5164
44280SOL    HW241619  11.537  11.143   9.964  0.5597 -0.2291 -1.9419
44281SOL     OW41620   3.082   6.060   3.755  0.0219 -0.1760  0.3283
44281SOL    HW141621   3.157   6.114   3.781  0.1696 -0.3214  0.2108
44281SOL    HW241622   3.056   6.096   3.670 -0.5292  0.3691  0.7199
44282SOL     OW41623  12.090  12.162   8.691 -0.7531  0.2894  0.3070
44282SOL    HW141624  12.105  12.086   8.634  0.3895  0.0221  0.9389
44282SOL    HW241625  12.166  12.164   8.748 -1.6315  0.8455  1.5009
44283SOL     OW41626   7.408   7.008   2.226 -0.1631 -0.0711  1.1890
44283SOL    HW141627   7.440   6.991   2.314  0.1197 -0.5335  0.9984
44283SOL    HW241628   7.322   6.965   2.223  1.5883 -3.9037 -0.1039
44284SOL     OW41629  12.330   7.077   7.870  0.0867  0.2286 -0.0764
44284SOL    HW141630  12.245   7.118   7.851  0.2999  0.5211 -0.4223
44284SOL    HW241631  12.366   7.130   7.942  0.4365  0.7706 -0.6360
44285SOL     OW41632   2.076   8.979   7.943 -0.0956  0.2854  0.2453
44285SOL    HW141633   2.007   8.965   8.007  0.8830  1.2657  1.5696
44285SOL    HW241634   2.034   8.961   7.858 -1.8403  0.4523  1.0253
44286SOL     OW41635   6.667   1.350   9.428  0.5475  0.1074 -0.7925
44286SOL    HW141636   6.609   1.317   9.359  0.9371 -0.7851 -0.7043
44286SOL    HW241637   6.734   1.399   9.381  0.1279  0.5444 -0.9485
44287SOL     OW41638   7.038   3.010   6.015  0.3920  0.0134 -0.0430
44287SOL    HW141639   7.004   2.921   6.028  0.6216 -0.1238 -0.3651
44287SOL    HW241640   7.126   3.007   6.053 -0.0352  0.4426  1.0324
44288SOL     OW41641   5.364   8.717   6.929  0.5013  0.1763 -0.6754
44288SOL    HW141642   5.372   8.795   6.985 -0.1421  0.0909 -0.4523
44288SOL    HW241643   5.371   8.643   6.990  1.6005  0.0388 -0.9488
44289SOL     OW41644  11.472   3.414   1.533  0.0922 -0.7000 -0.2432
44289SOL    HW141645  11.519   3.497   1.535 -0.1773 -0.5573  0.1524
44289SOL    HW241646  11.486   3.376   1.620 -0.4869 -0.6798 -0.1420
44290SOL     OW41647   2.449   3.333   5.269 -0.5064  0.0773  0.1558
44290SOL    HW141648   2.450   3.429   5.279  0.1748  0.0276  0.6348
44290SOL    HW241649   2.380   3.304   5.330  1.0659  0.0780  2.0263
44291SOL     OW41650  12.471   9.491   6.784 -0.1477 -0.2542 -0.1010
44291SOL    HW141651  12.521   9.573   6.783  0.4937 -0.6242  0.7771
44291SOL    HW241652  12.536   9.422   6.773 -0.4222 -0.7499  1.2131
44292SOL     OW41653  12.119   0.136   3.507  0.1993  0.7239  0.1647
44292SOL    HW141654  12.156   0.127   3.419  0.1484  0.2294  0.1911
44292SOL    HW241655  12.155   0.062   3.556  0.2981  1.0465  0.5863
44293SOL     OW41656   4.945   5.090   3.176  0.6232 -0.7317  0.6746
44293SOL    HW141657   4.962   5.109   3.084 -1.4654 -3.4785 -0.3698
44293SOL    HW241658   5.032   5.096   3.217  1.4490  1.7050 -1.1250
44294SOL     OW41659   8.900   0.450   7.206 -0.1928  0.2647  0.3970
44294SOL    HW141660   8.849   0.529   7.220 -2.0274 -0.8738  0.5328
44294SOL    HW241661   8.835   0.380   7.201  1.3730 -1.3013  0.7155
44295SOL     OW41662   3.574   2.991  12.037 -0.6339  0.1263  0.1536
44295SOL    HW141663   3.513   3.052  12.078  0.3151  0.3380  1.2891
44295SOL    HW241664   3.614   3.041  11.966 -0.4387  0.5785  0.5795
44296SOL     OW41665   9.147   6.109   0.649 -0.4179  0.0829  0.0238
44296SOL    HW141666   9.235   6.075   0.632 -0.2107  1.0912 -1.0598
44296SOL    HW241667   9.101   6.099   0.565 -1.0206  0.4718  0.3021
44297SOL     OW41668   4.348   2.247   2.429 -0.6613 -0.1918 -0.8775
44297SOL    HW141669   4.312   2.296   2.355 -0.3480 -0.5795 -1.2917
44297SOL    HW241670   4.440   2.233   2.405  0.1273  1.7831  0.6695
44298SOL     OW41671   1.646   7.390   9.656 -0.2767  0.1380  0.1102
44298SOL    HW141672   1.562   7.378   9.611  1.2395 -3.4969 -2.1838
44298SOL    HW241673   1.694   7.453   9.603 -0.3424 -0.3495 -0.5368
44299SOL     OW41674   0.348   6.875   7.335  0.2029  0.0748  0.2161
44299SOL    HW141675   0.326   6.862   7.427 -0.9798 -0.4622 -0.1224
44299SOL    HW241676   0.309   6.800   7.290  0.8299  0.2870 -0.7183
44300SOL     OW41677   1.546   7.536   2.090 -0.3864 -0.2075 -0.0462
44300SOL    HW141678   1.585   7.505   2.008  1.4364  1.0729  0.2945
44300SOL    HW241679   1.465   7.578   2.063 -0.6579 -1.2733 -0.9887
44301SOL     OW41680   6.348   8.303   3.629  0.1881  0.0710 -0.2705
44301SOL    HW141681   6.429   8.322   3.582  0.7517 -0.3645  0.4969
44301SOL    HW241682   6.301   8.386   3.631  0.8193  0.4323 -0.3539
44302SOL     OW41683   0.781   3.438   8.789  0.0478  0.0426  0.4283
44302SOL    HW141684   0.841   3.513   8.793  0.0705  0.0068  0.7943
44302SOL    HW241685   0.738   3.446   8.704  0.4039  0.2009  0.2605
44303SOL     OW41686  10.625   5.544   6.539  0.1073 -0.2262  0.5828
44303SOL    HW141687  10.616   5.452   6.562 -0.7137  0.1115  1.6769
44303SOL    HW241688  10.718   5.555   6.520  0.2374 -1.2436  0.5961
44304SOL     OW41689   6.308   2.581   4.394  0.2139  0.1733 -0.4587
44304SOL    HW141690   6.318   2.539   4.480 -0.2437 -0.7888 -0.8530
44304SOL    HW241691   6.344   2.517   4.333 -2.5148 -0.7190 -1.3161
44305SOL     OW41692   1.819  12.023   1.773  0.3127 -0.2285  0.2571
44305SOL    HW141693   1.801  11.956   1.839  0.3464  0.0212  0.5224
44305SOL    HW241694   1.905  12.058   1.798  0.5891 -0.5284 -0.2530
44306SOL     OW41695   3.140   3.852   2.537  0.1178  0.1290  0.2115
44306SOL    HW141696   3.125   3.844   2.443 -1.8213  3.0906  0.1654
44306SOL    HW241697   3.235   3.839   2.547  0.5812  1.0217 -2.3400
44307SOL     OW41698   2.324   1.193   3.567 -0.1164 -0.2107 -0.0642
44307SOL    HW141699   2.269   1.189   3.646  0.3097  2.2829  0.4398
44307SOL    HW241700   2.270   1.241   3.504 -0.2461 -1.7351 -1.1519
44308SOL     OW41701  12.060   8.359   1.129  0.7164  0.4524 -0.1540
44308SOL    HW141702  12.086   8.346   1.221 -0.8861  1.1659  0.4215
44308SOL    HW241703  12.061   8.454   1.116 -0.4432  0.4388 -0.4445
44309SOL     OW41704  11.346   7.497   8.282  0.2044  0.2834  0.1972
44309SOL    HW141705  11.318   7.415   8.242 -0.3051  0.5700 -0.0355
44309SOL    HW241706  11.321   7.490   8.374  4.0492 -1.6674  1.3040
44310SOL     OW41707   0.597   3.542   6.746  0.3841  0.1176 -0.0473
44310SOL    HW141708   0.539   3.505   6.812 -0.5710 -0.5003 -1.2030
44310SOL    HW241709   0.575   3.495   6.665 -0.4961  2.7766 -1.4638
44311SOL     OW41710   5.924   0.848   3.343 -0.4532 -0.7008 -0.2019
44311SOL    HW141711   5.903   0.924   3.288  2.3146  0.2173 -0.1349
44311SOL    HW241712   5.852   0.843   3.405 -1.2839  1.1694 -0.9435
44312SOL     OW41713   3.110   2.524   5.975  0.0137 -0.3576 -0.0737
44312SOL    HW141714   3.056   2.553   6.049 -1.2406 -0.6107 -0.8572
44312SOL    HW241715   3.072   2.569   5.899  0.5593 -0.9914 -0.7347
44313SOL     OW41716   8.878   4.226   2.219 -0.1088 -0.2956 -0.2066
44313SOL    HW141717   8.939   4.154   2.199  0.9241 -0.0353  1.7682
44313SOL    HW241718   8.803   4.182   2.259 -0.7695 -0.5002 -1.5908
44314SOL     OW41719  12.131   9.569  10.047  0.1156  0.3634  0.2668
44314SOL    HW141720  12.128   9.657  10.085  1.3288  0.6881 -0.3477
44314SOL    HW241721  12.186   9.578   9.970 -1.1371 -0.5962 -0.7905
44315SOL     OW41722  11.843   0.411  12.548 -0.3060  0.0467  0.0805
44315SOL    HW141723  11.772   0.411  12.484 -0.8089  0.4666  0.6241
44315SOL    HW241724  11.829   0.491  12.599 -0.5117 -0.7624  1.3439
44316SOL     OW41725   4.749   9.789  11.959  0.2728 -0.1584 -0.1727
44316SOL    HW141726   4.747   9.810  11.866  1.6521  0.2266 -0.1377
44316SOL    HW241727   4.658   9.797  11.987 -0.3034 -1.0435 -1.6302
44317SOL     OW41728   1.767   5.581   9.855 -0.0643  0.0172  0.4226
44317SOL    HW141729   1.829   5.652   9.837 -0.4472  0.5766  1.2564
44317SOL    HW241730   1.684   5.612   9.820 -0.3193  0.1576  1.1364
44318SOL     OW41731   4.946  11.637  12.237 -0.1404 -0.5093 -0.0202
44318SOL    HW141732   4.904  11.709  12.190  0.6926  0.1643  0.2188
44318SOL    HW241733   4.887  11.618  12.310 -0.2195  0.1740  0.1037
44319SOL     OW41734   5.244   9.201   2.841 -0.0977 -0.1060 -0.3184
44319SOL    HW141735   5.330   9.162   2.853  0.0934  0.4343  0.1307
44319SOL    HW241736   5.253   9.260   2.766 -1.0399 -2.7511 -2.6742
44320SOL     OW41737   7.762   3.045  10.147 -0.2397 -0.4556 -0.1235
44320SOL    HW141738   7.818   3.036  10.069 -1.4115 -0.3530 -1.0139
44320SOL    HW241739   7.720   3.130  10.136 -2.1495 -1.3921 -0.6003
44321SOL     OW41740  10.035   0.615   7.246  0.0037  0.3607 -0.0450
44321SOL    HW141741  10.080   0.604   7.330 -0.6932 -0.1333  0.2638
44321SOL    HW241742  10.095   0.669   7.194 -0.3779  2.3251  1.4288
44322SOL     OW41743   8.545   5.776   3.386 -0.0229  0.3268  0.0030
44322SOL    HW141744   8.614   5.714   3.408  0.1313 -1.1134 -3.7637
44322SOL    HW241745   8.586   5.839   3.327 -1.7462 -0.5301 -2.2947
44323SOL     OW41746   7.226  10.115   8.375  0.8587  0.1536  0.2443
44323SOL    HW141747   7.159  10.148   8.316  0.3043  1.5951  1.5992
44323SOL    HW241748   7.304  10.106   8.321  0.6915  2.5087 -0.5115
44324SOL     OW41749  11.230   7.793   3.495 -0.2752  0.2618  0.1770
44324SOL    HW141750  11.153   7.757   3.450  0.0038  0.4181 -0.4360
44324SOL    HW241751  11.281   7.834   3.425  1.2163 -1.2979  0.2908
44325SOL     OW41752   2.991  11.762   5.223  0.6305  0.0763  0.2531
44325SOL    HW141753   2.949  11.761   5.309  0.2645  0.8497  0.0876
44325SOL    HW241754   2.994  11.670   5.197  0.2208 -0.1088  0.8396
44326SOL     OW41755   8.878   4.113   4.439 -0.1124  0.2623 -0.3955
44326SOL    HW141756   8.821   4.090   4.513  1.0147 -0.7280  0.1896
44326SOL    HW241757   8.921   4.032   4.415  2.3353  1.2673  0.3060
44327SOL     OW41758   7.095   9.889   3.491 -0.2574 -0.1728  0.5798
44327SOL    HW141759   7.184   9.865   3.515  0.1197  0.6191  0.0084
44327SOL    HW241760   7.101   9.921   3.401 -1.0087  0.4439  0.7303
44328SOL     OW41761   6.177  11.333   2.093 -0.3233  0.2134  0.2172
44328SOL    HW141762   6.267  11.331   2.061 -0.4804  0.8777 -0.2977
44328SOL    HW241763   6.125  11.299   2.020 -0.5477  0.4510  0.2637
44329SOL     OW41764  11.196   5.437   3.305  0.7307  0.2388 -0.3036
44329SOL    HW141765  11.219   5.529   3.322  2.5752 -0.7142  3.5828
44329SOL    HW241766  11.109   5.427   3.343  0.4583  0.4136 -0.8798
44330SOL     OW41767   6.121   4.477   1.171 -0.3175 -0.2415 -0.0993
44330SOL    HW141768   6.147   4.467   1.079  3.3414  0.2154  0.7469
44330SOL    HW241769   6.142   4.393   1.211 -0.2560  0.1385  0.6752
44331SOL     OW41770   0.292   2.962  11.613 -0.2581 -0.4791  0.2019
44331SOL    HW141771   0.324   2.967  11.523  1.2488 -1.2812  0.6685
44331SOL    HW241772   0.299   2.870  11.637  0.6778 -0.0851  1.5840
44332SOL     OW41773   7.428   6.770  11.756 -0.2847 -0.1612  0.7511
44332SOL    HW141774   7.467   6.778  11.669  0.4613  0.2103  1.1062
44332SOL    HW241775   7.479   6.830  11.811 -0.0448 -1.1716  1.6805
44333SOL     OW41776   9.593   8.757  10.553 -0.2789  0.0054 -0.2254
44333SOL    HW141777   9.545   8.813  10.492  0.6320  2.2768  1.0276
44333SOL    HW241778   9.527   8.731  10.618 -0.3141  1.3738  0.3200
44334SOL     OW41779   2.446  12.206   9.622 -0.0601 -0.9283  0.1795
44334SOL    HW141780   2.371  12.223   9.679 -0.7097 -1.1522 -0.6009
44334SOL    HW241781   2.521  12.243   9.669 -0.7315 -0.2716  0.7432
44335SOL     OW41782   6.147   8.420   8.275  0.2021 -0.5516  0.2142
44335SOL    HW141783   6.237   8.428   8.306  0.3637  1.7975 -0.6694
44335SOL    HW241784   6.155   8.373   8.192  0.5081 -1.0420  0.5130
44336SOL     OW41785   3.127   0.544   2.225 -0.2048  0.3122  0.3020
44336SOL    HW141786   3.061   0.589   2.278  0.2469  0.5728  0.6448
44336SOL    HW241787   3.100   0.560   2.134 -1.6070 -1.0605  0.4297
44337SOL     OW41788   3.846   3.346  10.936  0.3837 -0.5877  0.4572
44337SOL    HW141789   3.762   3.306  10.913 -0.1515  0.1480  1.0885
44337SOL    HW241790   3.830   3.440  10.933  2.0005 -0.2817 -2.3799
44338SOL     OW41791   0.220   1.010   5.027 -0.2370 -0.2116  0.2652
44338SOL    HW141792   0.134   1.027   4.989 -1.2777 -1.2621  2.0226
44338SOL    HW241793   0.281   1.030   4.956 -1.8544  1.2055 -0.8442
44339SOL     OW41794   1.967  11.589   2.595 -0.2927 -0.0134  0.3930
44339SOL    HW141795   1.925  11.643   2.529  2.7786  1.8194 -0.2967
44339SOL    HW241796   1.998  11.512   2.548  1.2051  0.9195 -0.2069
44340SOL     OW41797   1.290   6.079   7.603 -0.7052 -0.3454  0.1402
44340SOL    HW141798   1.371   6.042   7.568 -1.6584 -1.1405 -1.3057
44340SOL    HW241799   1.249   6.007   7.651 -1.3880 -0.4886 -0.6265
44341SOL     OW41800   6.592  12.153   7.679  0.2930  0.3302 -0.3308
44341SOL    HW141801   6.508  12.156   7.634 -0.0826  0.4464  0.3674
44341SOL    HW241802   6.657  12.149   7.608 -0.3345 -0.7756 -0.8665
44342SOL     OW41803   6.591   6.168   5.984  0.3691 -0.0546 -0.1515
44342SOL    HW141804   6.549   6.254   5.986 -0.0523 -0.1332 -2.7371
44342SOL    HW241805   6.668   6.180   5.930  0.0605 -1.3817 -0.9211
44343SOL     OW41806   6.184   6.831  10.298  0.2920  0.1279 -0.9900
44343SOL    HW141807   6.149   6.912  10.335 -0.7757 -1.5482  2.0376
44343SOL    HW241808   6.111   6.793  10.249 -1.0217 -1.2941  1.7953
44344SOL     OW41809   9.065   9.562  10.882  0.3947  0.1755 -0.5831
44344SOL    HW141810   9.052   9.488  10.942  1.7482 -0.1098 -0.5975
44344SOL    HW241811   9.077   9.638  10.940  1.3328 -0.0370 -0.4825
44345SOL     OW41812   8.715   2.981  11.958 -0.1612  0.3969 -0.3077
44345SOL    HW141813   8.625   3.010  11.942 -0.5716 -1.7605 -2.5257
44345SOL    HW241814   8.718   2.964  12.052 -2.2696 -0.0128 -0.2525
44346SOL     OW41815   6.708  12.087   4.311  0.0470  0.2050 -0.4714
44346SOL    HW141816   6.707  12.009   4.366  0.5855  1.3725  1.3124
44346SOL    HW241817   6.628  12.081   4.259 -1.3833 -0.1960  1.6234
44347SOL     OW41818  10.463  10.872  11.341  0.0263  0.4720  0.5322
44347SOL    HW141819  10.519  10.911  11.407 -1.5332  2.2673  0.8959
44347SOL    HW241820  10.380  10.856  11.387 -0.5055  0.0566 -0.5407
44348SOL     OW41821   0.116  10.405   6.017  0.1935 -0.0542 -0.1008
44348SOL    HW141822   0.070  10.489   6.025  0.4394  0.0171  0.6761
44348SOL    HW241823   0.118  10.388   5.923 -2.3543 -0.5856 -0.1421
44349SOL     OW41824   5.675   4.242  12.416  0.0276 -0.1305 -0.0168
44349SOL    HW141825   5.629   4.193  12.485  0.3853  1.4738  1.4346
44349SOL    HW241826   5.699   4.325  12.458 -0.2293  1.1536 -2.2694
44350SOL     OW41827   6.229   2.153   5.461 -0.2638  0.5165  0.6946
44350SOL    HW141828   6.302   2.128   5.517 -0.5354 -0.2466  0.7150
44350SOL    HW241829   6.184   2.071   5.441  0.2410  0.6646 -1.2434
44351SOL     OW41830   6.728   6.168   9.149  0.2480  0.2625  0.8674
44351SOL    HW141831   6.691   6.080   9.138 -1.8910  1.1275  0.8634
44351SOL    HW241832   6.821   6.156   9.129 -0.2641 -1.7023 -0.7326
44352SOL     OW41833   4.055   6.641   2.004  0.1533  0.5907 -0.2566
44352SOL    HW141834   4.056   6.696   2.082 -2.0466  1.2078 -0.5911
44352SOL    HW241835   4.013   6.560   2.033 -0.0336  0.5478 -0.6518
44353SOL     OW41836   7.026   1.811   2.463 -0.1670 -0.3438  0.0242
44353SOL    HW141837   7.093   1.801   2.530 -0.0246  0.1752 -0.0339
44353SOL    HW241838   7.013   1.905   2.456 -2.2868 -0.4663  1.3899
44354SOL     OW41839   0.568   8.359   0.756 -0.0447  0.2643 -0.2709
44354SOL    HW141840   0.644   8.323   0.709  0.8462  1.1474  0.4551
44354SOL    HW241841   0.536   8.430   0.700 -1.0693 -0.8192 -1.1243
44355SOL     OW41842   3.094   5.546   2.497  0.4078  0.0336  0.4043
44355SOL    HW141843   3.081   5.619   2.436 -0.2238  0.2744  0.8215
44355SOL    HW241844   3.013   5.541   2.547 -0.3345 -2.1756 -0.8900
44356SOL     OW41845   6.005   1.428  11.980  0.1262  0.5064  0.7159
44356SOL    HW141846   6.098   1.404  11.986 -0.5525 -2.4486  0.8119
44356SOL    HW241847   5.985   1.419  11.887 -0.6796 -1.6866  1.0606
44357SOL     OW41848  10.500   7.738   5.900 -0.0759 -0.0545 -0.2985
44357SOL    HW141849  10.552   7.817   5.920  0.5945 -1.0993  2.6358
44357SOL    HW241850  10.537   7.705   5.819  0.7240  1.7575 -0.7282
44358SOL     OW41851   5.246   0.862   3.882 -0.0458 -0.1677 -0.3117
44358SOL    HW141852   5.307   0.860   3.808 -0.2220  1.5454 -0.5426
44358SOL    HW241853   5.267   0.784   3.932  1.6561 -0.1472 -0.9247
44359SOL     OW41854   5.838   7.517   9.737  0.4911 -0.1418 -0.7001
44359SOL    HW141855   5.872   7.483   9.654 -0.9026 -1.8997 -0.6231
44359SOL    HW241856   5.869   7.455   9.803  2.2366  1.6608  0.2575
44360SOL     OW41857   2.504   1.330   1.372  0.0139  0.4913 -0.2834
44360SOL    HW141858   2.482   1.359   1.460  0.3194  0.3138 -0.1514
44360SOL    HW241859   2.574   1.266   1.383  1.5840  2.0326 -0.7832
44361SOL     OW41860  10.341   6.072   7.369  0.2437  0.1269  0.1559
44361SOL    HW141861  10.276   6.008   7.398 -1.0682  0.4686 -1.8126
44361SOL    HW241862  10.386   6.030   7.295  2.5497 -0.2137  1.6443
44362SOL     OW41863  12.481   2.155   5.254 -0.3357  0.2393 -0.2183
44362SOL    HW141864  12.511   2.074   5.296  0.8272  0.7019 -0.1144
44362SOL    HW241865  12.474   2.218   5.326  0.3318  0.6649 -0.5195
44363SOL     OW41866   6.256   2.557   8.913 -0.2958 -0.1146 -0.2514
44363SOL    HW141867   6.185   2.514   8.961  0.5601 -1.0452  0.1988
44363SOL    HW241868   6.320   2.488   8.897 -0.7230  0.0489 -3.1167
44364SOL     OW41869   1.948  12.377  12.285  0.4431 -0.0838 -0.6031
44364SOL    HW141870   1.987  12.377  12.198 -0.8278  0.8257 -1.2041
44364SOL    HW241871   1.862  12.335  12.272  0.2403  0.0708  0.1987
44365SOL     OW41872   1.335   2.775   5.885 -0.0235 -0.5842  0.3499
44365SOL    HW141873   1.250   2.788   5.843 -1.2043 -0.6505  2.5317
44365SOL    HW241874   1.317   2.711   5.955  1.5357  0.3349  1.6575
44366SOL     OW41875  10.186   3.710   8.833 -0.2446 -0.0269 -0.1124
44366SOL    HW141876  10.146   3.748   8.755 -0.9844 -2.9153 -1.2708
44366SOL    HW241877  10.132   3.743   8.905 -0.8726  1.0307 -1.0278
44367SOL     OW41878   0.310   9.695   8.544  0.1594  0.1162 -0.0995
44367SOL    HW141879   0.325   9.687   8.450  1.3845  2.1164 -0.1363
44367SOL    HW241880   0.365   9.626   8.582 -2.3953 -2.5486 -0.8516
44368SOL     OW41881   1.441   0.761   7.579 -0.1459 -0.0559  0.3300
44368SOL    HW141882   1.526   0.780   7.619 -0.5677 -1.9642  2.3308
44368SOL    HW241883   1.448   0.670   7.551 -1.3726 -0.0972  0.1116
44369SOL     OW41884  12.387  10.674  11.043 -0.0325  0.4176 -0.0866
44369SOL    HW141885  12.471  10.645  11.007  0.1335  1.2775 -0.3949
44369SOL    HW241886  12.322  10.627  10.992  0.2470  0.1910 -0.2391
44370SOL     OW41887  11.620   4.625  11.561  0.3018 -0.1010  0.2243
44370SOL    HW141888  11.604   4.668  11.478 -1.6644  0.0912  0.6661
44370SOL    HW241889  11.691   4.675  11.601  1.3188 -0.2493 -1.3267
44371SOL     OW41890   4.220   8.450   6.847  0.1489 -0.2670 -0.0108
44371SOL    HW141891   4.181   8.466   6.933  1.0158 -0.5448  0.4417
44371SOL    HW241892   4.304   8.495   6.850  0.3721 -0.6388 -0.5579
44372SOL     OW41893   2.777   5.075   4.830  0.4698  0.4058  0.2554
44372SOL    HW141894   2.698   5.033   4.796  1.7148 -0.3685 -1.9342
44372SOL    HW241895   2.769   5.166   4.801  0.5153  0.2597 -0.2220
44373SOL     OW41896   3.114   7.473   3.424  0.4428  0.0766  0.2060
44373SOL    HW141897   3.091   7.565   3.412  1.6699  0.8772  3.1269
44373SOL    HW241898   3.200   7.475   3.466  0.0898 -2.3805  1.2261
44374SOL     OW41899   2.497  11.543   1.874  0.1408 -0.4121 -0.3403
44374SOL    HW141900   2.585  11.550   1.910  0.2708 -2.0939 -0.2108
44374SOL    HW241901   2.440  11.568   1.947  0.4958 -0.0211 -0.1922
44375SOL     OW41902   1.140   6.911  11.668 -0.4782 -0.0621 -0.1276
44375SOL    HW141903   1.196   6.924  11.744 -0.2617 -0.0051 -0.2938
44375SOL    HW241904   1.053   6.899  11.704 -0.3942  0.0676  0.1246
44376SOL     OW41905   6.140   9.803  12.219  0.0739 -0.6972  0.5406
44376SOL    HW141906   6.064   9.843  12.262  0.8798 -0.7328  2.0430
44376SOL    HW241907   6.102   9.737  12.161 -1.1127  0.2780  0.1562
44377SOL     OW41908   2.874   1.720   7.698  0.3066 -0.6107  0.2075
44377SOL    HW141909   2.932   1.644   7.697 -1.0726 -1.6971 -0.3905
44377SOL    HW241910   2.919   1.784   7.643  1.1131 -1.2882  0.0500
44378SOL     OW41911  10.960   9.824   1.333 -0.1282 -0.0286 -0.3438
44378SOL    HW141912  10.991   9.911   1.357 -1.2988  0.0520  1.0394
44378SOL    HW241913  10.990   9.767   1.403 -1.8385 -0.1789  0.3249
44379SOL     OW41914   4.784   0.234   8.752 -0.5429  0.5980 -0.5300
44379SOL    HW141915   4.750   0.316   8.787 -0.8445  0.1040  0.3641
44379SOL    HW241916   4.877   0.250   8.738  0.1652  0.1308  2.7944
44380SOL     OW41917   8.878   2.808   6.252 -0.1058 -0.0116 -0.0532
44380SOL    HW141918   8.922   2.825   6.168 -0.5333 -0.9145 -0.4797
44380SOL    HW241919   8.826   2.730   6.235  0.5350 -0.7740  1.3371
44381SOL     OW41920  10.397   9.101   7.794  0.2130 -0.3892 -0.2173
44381SOL    HW141921  10.389   9.158   7.871  0.4220  0.2792 -0.6866
44381SOL    HW241922  10.430   9.018   7.829  0.3792 -0.0658  0.3990
44382SOL     OW41923   8.609   1.980  10.481 -0.0364  0.3657  0.1970
44382SOL    HW141924   8.552   1.987  10.404 -2.7511 -1.0720  1.8937
44382SOL    HW241925   8.650   2.066  10.488 -1.1770  1.1512 -1.7556
44383SOL     OW41926   6.771   8.342   5.021  0.3554 -0.4079 -0.2925
44383SOL    HW141927   6.691   8.351   4.969  0.2301  1.4079  0.1726
44383SOL    HW241928   6.818   8.269   4.979 -1.4439 -1.4008 -0.6658
44384SOL     OW41929   2.637   1.623  11.771  0.8236 -0.3694 -0.4767
44384SOL    HW141930   2.717   1.616  11.823 -0.3223 -0.8047  1.3380
44384SOL    HW241931   2.596   1.705  11.800 -0.1464 -0.9332 -0.1967
44385SOL     OW41932   5.721   7.235   0.955 -0.0590  0.2542 -0.0151
44385SOL    HW141933   5.757   7.182   1.026  0.2357 -0.9096 -0.9921
44385SOL    HW241934   5.759   7.322   0.968  1.4157 -0.3995  0.2366
44386SOL     OW41935   7.445   6.773   6.359  0.0455  0.5965 -0.0201
44386SOL    HW141936   7.455   6.851   6.414 -2.3272  0.9740 -0.0142
44386SOL    HW241937   7.455   6.700   6.419  0.3850  0.9261  0.3370
44387SOL     OW41938   6.690  12.053  11.638 -0.1878  0.3327 -0.0937
44387SOL    HW141939   6.638  12.051  11.558  0.6517 -0.8428 -0.6344
44387SOL    HW241940   6.627  12.077  11.707 -1.2102 -0.0393 -0.8765
44388SOL     OW41941   2.609   4.282   0.566  0.8845  0.1630  0.5595
44388SOL    HW141942   2.650   4.343   0.504  0.0467  0.5739  0.3884
44388SOL    HW241943   2.533   4.330   0.600 -0.7163 -1.3127 -0.7516
44389SOL     OW41944  10.414   6.026   2.968 -0.2891  0.3254 -0.5183
44389SOL    HW141945  10.490   6.060   2.921  0.6877  1.0953  1.5028
44389SOL    HW241946  10.451   5.966   3.033 -1.5632 -0.4969 -0.5156
44390SOL     OW41947   5.156   5.327   4.354 -0.2230  0.2742  0.5868
44390SOL    HW141948   5.108   5.344   4.435  0.1515  2.2897  0.4496
44390SOL    HW241949   5.115   5.384   4.289 -0.1928 -0.9360 -0.5375
44391SOL     OW41950  10.636   9.765   8.088 -1.3241  0.3073 -0.4698
44391SOL    HW141951  10.544   9.748   8.105 -1.1575 -0.0275  0.1384
44391SOL    HW241952  10.682   9.723   8.161 -0.7236  0.8658 -0.5159
44392SOL     OW41953   4.306   7.524   0.402 -0.1118 -0.3287  0.0252
44392SOL    HW141954   4.380   7.565   0.448 -1.2484  1.7334  0.1222
44392SOL    HW241955   4.316   7.430   0.421  2.6904 -0.1895 -0.3216
44393SOL     OW41956   5.102   7.759   6.793 -0.1628  0.1410 -0.0892
44393SOL    HW141957   5.125   7.667   6.784 -1.1438 -0.4093  2.2268
44393SOL    HW241958   5.185   7.806   6.787  0.5679 -1.0651  0.3279
44394SOL     OW41959  10.036   6.153  10.382  0.4448  0.0101 -0.4425
44394SOL    HW141960   9.994   6.216  10.442  0.5061  0.2131 -0.6115
44394SOL    HW241961  10.009   6.068  10.415 -0.6464  0.1472 -0.9420
44395SOL     OW41962  12.509   1.534   8.663 -0.0889  0.1532 -0.7449
44395SOL    HW141963  12.495   1.624   8.633  0.1217  0.5825  0.3754
44395SOL    HW241964  12.603   1.520   8.653 -0.3176 -0.4498 -2.2235
44396SOL     OW41965   7.551   4.727   8.291  0.3489 -0.2744 -0.4522
44396SOL    HW141966   7.514   4.814   8.281  1.0447  0.0364 -0.3435
44396SOL    HW241967   7.569   4.719   8.385  0.0525 -0.6400 -0.4196
44397SOL     OW41968   2.793   3.005   6.098 -0.2690  0.0283 -0.5397
44397SOL    HW141969   2.876   2.991   6.145  0.0637 -0.8610 -1.3729
44397SOL    HW241970   2.784   3.100   6.094  0.8430  0.1421 -0.6498
44398SOL     OW41971   4.281  10.859  10.804  0.3346 -0.2126  0.2219
44398SOL    HW141972   4.331  10.936  10.776 -0.8497  0.8503  0.9147
44398SOL    HW241973   4.203  10.859  10.749  0.0756 -0.6250  0.5784
44399SOL     OW41974   5.796  10.570   6.920 -0.5271 -0.7863  0.4056
44399SOL    HW141975   5.830  10.659   6.908 -3.8422  0.6897  0.8202
44399SOL    HW241976   5.840  10.539   6.999 -2.3456  2.3115  2.8828
44400SOL     OW41977  10.702   5.730   7.913 -0.0826 -0.4176  0.3775
44400SOL    HW141978  10.779   5.760   7.962  1.0115 -1.2824 -0.7364
44400SOL    HW241979  10.687   5.799   7.847 -1.2368  0.4927  1.5361
44401SOL     OW41980   7.195   3.595   9.390  0.4379  0.3708 -0.2921
44401SOL    HW141981   7.158   3.630   9.471 -0.8341 -0.6123 -0.4224
44401SOL    HW241982   7.184   3.665   9.326 -3.7317 -0.6764 -1.0289
44402SOL     OW41983  11.014   2.004   8.068 -0.1557 -0.3955  0.3202
44402SOL    HW141984  10.947   1.937   8.083 -0.6121  0.2768  1.3228
44402SOL    HW241985  10.967   2.076   8.025 -0.2792  0.4245  1.7888
44403SOL     OW41986   9.698  11.893   2.665  0.3143  0.0070  0.1535
44403SOL    HW141987   9.729  11.821   2.720 -0.7838 -0.9945 -0.4768
44403SOL    HW241988   9.729  11.871   2.577  1.9827  1.5510  0.3012
44404SOL     OW41989  11.462   5.984   2.877 -0.3927 -0.3612 -0.2592
44404SOL    HW141990  11.486   5.898   2.910 -0.2743 -1.0284 -1.9727
44404SOL    HW241991  11.396   5.966   2.810 -1.4709  1.0079  0.3841
44405SOL     OW41992   4.023   0.484   3.727  0.2838 -0.1361 -0.0084
44405SOL    HW141993   4.039   0.553   3.663  1.4165 -2.0336 -1.9435
44405SOL    HW241994   4.094   0.421   3.712 -1.1880 -2.1535  0.9824
44406SOL     OW41995   9.744   4.289  12.476  0.5006 -0.0856  0.3478
44406SOL    HW141996   9.712   4.207  12.440 -1.3617  1.1314 -0.9124
44406SOL    HW241997   9.667   4.333  12.511  1.2222  1.6657 -0.1216
44407SOL     OW41998   6.123   5.338  10.438  0.1242 -0.3809 -0.3978
44407SOL    HW141999   6.151   5.320  10.348  2.6441 -2.1937  0.6189
44407SOL    HW242000   6.121   5.252  10.480  2.7363  0.6567  2.1997
44408SOL     OW42001   7.856   7.859   5.374  0.0196  0.3645  0.2550
44408SOL    HW142002   7.907   7.851   5.294 -0.7904  2.0969 -0.4682
44408SOL    HW242003   7.781   7.913   5.351 -0.7944  0.0372  1.9290
44409SOL     OW42004   7.090   2.025   1.491 -0.1437  0.0619  0.1010
44409SOL    HW142005   7.147   2.081   1.438  0.6646 -1.3862 -0.6208
44409SOL    HW242006   7.108   1.936   1.460 -2.6755 -0.4824 -0.0259
44410SOL     OW42007   0.112   3.497   6.193 -0.8778 -0.1620  0.0927
44410SOL    HW142008   0.095   3.519   6.285  0.0977 -1.5631  0.6486
44410SOL    HW242009   0.027   3.470   6.159 -1.1460 -0.1904  0.7661
44411SOL     OW42010  11.232  11.200   9.621 -0.1411 -0.3455 -0.3350
44411SOL    HW142011  11.239  11.295   9.615 -0.3815 -0.3533 -0.7442
44411SOL    HW242012  11.323  11.170   9.632 -0.2017  0.0403  1.5237
44412SOL     OW42013  12.190   8.128   4.966 -0.8398  0.1712  0.0373
44412SOL    HW142014  12.174   8.050   4.913 -1.4178  0.4539 -0.2129
44412SOL    HW242015  12.126   8.123   5.037 -0.5577  0.1731  0.2949
44413SOL     OW42016   1.076   8.795  10.051 -0.1652 -0.6960  0.0078
44413SOL    HW142017   1.015   8.780  10.123 -1.2362  3.1152  0.1093
44413SOL    HW242018   1.162   8.802  10.094 -0.0479 -2.8886  0.2522
44414SOL     OW42019  12.546   8.809   2.776  0.3344  0.2189 -0.2357
44414SOL    HW142020  12.458   8.796   2.740  1.4245 -1.6375 -2.4980
44414SOL    HW242021  12.565   8.727   2.822  0.6428  0.8768  0.8263
44415SOL     OW42022   6.579  10.970   0.299 -0.5088  0.0213 -0.9084
44415SOL    HW142023   6.513  10.977   0.230 -0.2118  1.8300 -1.0768
44415SOL    HW242024   6.629  11.051   0.292  0.8243 -0.6648  0.1431
44416SOL     OW42025   0.220   5.205   1.613  0.9158  0.4306  0.7946
44416SOL    HW142026   0.245   5.128   1.664  0.9918  0.5151  0.8856
44416SOL    HW242027   0.295   5.221   1.555  0.2953 -0.4625 -0.2933
44417SOL     OW42028  10.173   2.066   7.731  0.0594  0.0651  0.3887
44417SOL    HW142029  10.088   2.098   7.701 -0.1340 -1.1096 -0.3786
44417SOL    HW242030  10.236   2.104   7.670 -0.1681 -0.9731 -0.5141
44418SOL     OW42031   6.231   6.609   5.838  0.6315 -0.1915 -0.4374
44418SOL    HW142032   6.190   6.663   5.770 -0.5919 -1.2056 -0.5444
44418SOL    HW242033   6.158   6.580   5.893  1.3147 -1.2583 -0.0515
44419SOL     OW42034   0.211  10.808   6.672  0.3125 -0.1188 -0.0943
44419SOL    HW142035   0.212  10.902   6.653  0.3211  0.5401  2.6245
44419SOL    HW242036   0.239  10.802   6.764  1.2241 -2.8821 -0.4600
44420SOL     OW42037   4.174   1.255   6.872  0.5025  0.1102 -0.3460
44420SOL    HW142038   4.129   1.337   6.854  1.5996  0.9938  0.8188
44420SOL    HW242039   4.198   1.260   6.964  0.0790 -1.7911 -0.0825
44421SOL     OW42040   8.601   0.749   0.128  0.3050 -0.1002 -0.3332
44421SOL    HW142041   8.664   0.806   0.171  0.2465 -0.7751  0.6889
44421SOL    HW242042   8.545   0.717   0.199  1.5581 -3.0219 -0.5125
44422SOL     OW42043  10.709  11.059   9.636 -0.0275 -0.3662  0.1691
44422SOL    HW142044  10.714  10.981   9.691 -0.5794  0.3848  1.3256
44422SOL    HW242045  10.801  11.084   9.621  0.1714  0.6012  2.5465
44423SOL     OW42046   5.365   0.607   8.362 -0.2257 -0.3913 -0.4247
44423SOL    HW142047   5.415   0.675   8.318  1.3212 -0.3048  1.3615
44423SOL    HW242048   5.414   0.526   8.347  1.2126 -0.1392  2.2494
44424SOL     OW42049   3.187  10.766   4.244 -0.1926  0.2566 -0.3759
44424SOL    HW142050   3.249  10.703   4.280 -0.2946  0.6076  0.4434
44424SOL    HW242051   3.201  10.846   4.296  1.2809  1.5624 -2.6048
44425SOL     OW42052   1.165  11.026  10.356 -0.1630 -0.3530 -0.4091
44425SOL    HW142053   1.123  11.003  10.439 -2.1415  3.6854  0.0076
44425SOL    HW242054   1.258  11.036  10.377 -0.2935 -1.4625  0.7786
44426SOL     OW42055   4.776   8.035   4.980  0.3462  0.0671 -0.7797
44426SOL    HW142056   4.831   8.068   4.909  0.4719 -0.4420 -0.9196
44426SOL    HW242057   4.730   7.960   4.942  1.0192 -0.7080 -0.0975
44427SOL     OW42058   5.962   7.099   9.684 -0.3795 -0.5419 -0.1835
44427SOL    HW142059   5.954   7.183   9.729  2.3694 -0.9902  1.3162
44427SOL    HW242060   6.002   7.120   9.600  0.9890 -0.3881  0.4895
44428SOL     OW42061  12.544   3.169   0.427 -0.1264  0.2258  0.5172
44428SOL    HW142062  12.537   3.095   0.366  0.2814 -0.2030  0.9896
44428SOL    HW242063  12.460   3.170   0.473 -1.0041  1.4120 -1.0011
44429SOL     OW42064   5.796   7.338   8.515 -0.3858 -0.5515 -0.4378
44429SOL    HW142065   5.806   7.243   8.523 -0.7033 -0.6866 -1.4708
44429SOL    HW242066   5.811   7.371   8.603  0.8424 -1.4564 -0.2810
44430SOL     OW42067  11.852   6.811   7.854  0.2069 -0.0666  0.6939
44430SOL    HW142068  11.880   6.720   7.860 -1.2407 -0.4685  1.9385
44430SOL    HW242069  11.846   6.840   7.945  0.0067  1.0711  0.3323
44431SOL     OW42070   8.462   3.609   4.217  0.1197  0.1658  0.5064
44431SOL    HW142071   8.393   3.644   4.273  0.8225  0.4752  1.1985
44431SOL    HW242072   8.423   3.608   4.129  0.3187  3.6633  0.2325
44432SOL     OW42073   0.325  10.266   9.299 -0.5977  0.7741 -0.1377
44432SOL    HW142074   0.394  10.319   9.339 -1.0020  1.1577  0.0522
44432SOL    HW242075   0.369  10.184   9.275 -0.2042  0.7872  0.5121
44433SOL     OW42076   3.938   4.622   7.065 -0.4439 -0.1079 -0.2878
44433SOL    HW142077   3.853   4.584   7.087 -0.2146 -1.2924 -1.2969
44433SOL    HW242078   3.992   4.607   7.143 -0.2471 -2.3335 -0.7824
44434SOL     OW42079   6.049   4.463   7.671 -0.0249 -0.0511  0.3510
44434SOL    HW142080   6.144   4.447   7.671 -0.1825 -1.0882  0.2664
44434SOL    HW242081   6.031   4.499   7.585  0.0392 -1.6527 -0.3660
44435SOL     OW42082   0.080   8.988  10.786  0.0007  0.0874 -0.1259
44435SOL    HW142083   0.012   8.947  10.734  1.3910 -1.4021 -0.8474
44435SOL    HW242084   0.073   8.947  10.872  0.0572 -0.1573 -0.2375
44436SOL     OW42085  11.098   1.123  11.639  0.4482  0.4897 -0.1012
44436SOL    HW142086  11.051   1.073  11.573 -0.0194  1.2902 -0.4013
44436SOL    HW242087  11.146   1.058  11.691 -2.0347 -0.5220  1.0866
44437SOL     OW42088   5.014   2.384   9.739  0.4606 -0.4742 -0.6733
44437SOL    HW142089   5.029   2.304   9.689  0.1816 -0.1160 -1.3358
44437SOL    HW242090   4.998   2.354   9.828 -1.0510 -1.2505 -1.1862
44438SOL     OW42091   9.797   5.223   2.103 -0.1485  0.2020  0.2371
44438SOL    HW142092   9.879   5.259   2.139  0.1789  0.1191 -0.4110
44438SOL    HW242093   9.811   5.128   2.106  0.9836  0.1983 -2.5252
44439SOL     OW42094   6.602   5.568   1.182  0.1576 -0.6775  0.2013
44439SOL    HW142095   6.678   5.527   1.225  0.8630 -0.6704 -0.9743
44439SOL    HW242096   6.604   5.533   1.093  0.0655  0.9844 -0.4945
44440SOL     OW42097   0.779   0.280   5.526  0.5131  1.0072 -0.0299
44440SOL    HW142098   0.866   0.318   5.512  1.2778 -0.2752  1.0066
44440SOL    HW242099   0.745   0.327   5.603  0.9245  0.4874  0.4756
44441SOL     OW42100   2.415   8.391   9.271 -0.3636  0.1336  0.2376
44441SOL    HW142101   2.408   8.451   9.345  1.7498  1.0396 -0.2143
44441SOL    HW242102   2.350   8.422   9.209 -1.3285  0.1104  1.2115
44442SOL     OW42103   2.945   4.918  11.652 -0.0030 -0.5412  0.1346
44442SOL    HW142104   2.975   4.921  11.561 -1.4610  0.7981 -0.3444
44442SOL    HW242105   2.858   4.959  11.650 -0.5740 -1.5479  1.9388
44443SOL     OW42106   3.382   4.780   5.753  0.8857 -0.8692 -0.0154
44443SOL    HW142107   3.313   4.837   5.787  2.2261 -0.3011  1.9223
44443SOL    HW242108   3.364   4.694   5.791  1.2425 -0.7067  0.5406
44444SOL     OW42109   0.676  10.721   6.540 -0.0978  0.5662 -0.3006
44444SOL    HW142110   0.759  10.682   6.512  0.6906  1.9540  0.0039
44444SOL    HW242111   0.609  10.676   6.489  0.4695 -2.8134  1.6179
44445SOL     OW42112  11.858   0.917   6.425  0.2216  0.3297 -0.4666
44445SOL    HW142113  11.789   0.929   6.490  0.1218  0.6399 -0.6282
44445SOL    HW242114  11.901   0.835   6.450  0.1022  0.3816 -0.0836
44446SOL     OW42115   5.647   3.322   5.437  0.1159  0.4166 -0.0755
44446SOL    HW142116   5.606   3.264   5.500  0.1652  3.1780  2.7755
44446SOL    HW242117   5.575   3.361   5.388 -0.0247 -0.7036 -0.7804
44447SOL     OW42118   5.536  10.411   2.824  0.1405 -0.3420 -0.1462
44447SOL    HW142119   5.579  10.366   2.752  0.2515  0.2229 -0.4411
44447SOL    HW242120   5.547  10.353   2.899  2.3156  0.2368  0.0506
44448SOL     OW42121   4.795   1.489   0.440 -0.2004  0.7073  0.2030
44448SOL    HW142122   4.766   1.519   0.525 -1.3727 -1.1695  0.5303
44448SOL    HW242123   4.825   1.399   0.455  1.2687  0.9340 -1.0561
44449SOL     OW42124   1.421  11.590   4.486  0.1650  0.3512  0.3154
44449SOL    HW142125   1.349  11.535   4.516  0.2352 -0.4921 -0.9952
44449SOL    HW242126   1.496  11.531   4.480  0.4507  0.7643 -0.3107
44450SOL     OW42127   2.705   8.732   1.745 -0.1932 -0.2700  0.8540
44450SOL    HW142128   2.763   8.718   1.820  0.0545 -1.3388  0.4923
44450SOL    HW242129   2.763   8.759   1.674  0.0050 -1.9637  0.3148
44451SOL     OW42130   8.588   4.422   5.755 -0.0810 -0.2079 -0.1920
44451SOL    HW142131   8.653   4.390   5.818  0.0244 -1.2043 -0.7844
44451SOL    HW242132   8.513   4.364   5.767 -0.2458 -0.0904 -0.6383
44452SOL     OW42133   0.315  10.191   4.171 -0.7138 -0.5536  0.0558
44452SOL    HW142134   0.230  10.233   4.156 -1.5425 -1.7717  1.1275
44452SOL    HW242135   0.341  10.222   4.258  0.3412  0.4151 -0.5736
44453SOL     OW42136   6.110   5.472   5.910 -0.3230  0.1375  0.2176
44453SOL    HW142137   6.036   5.415   5.890 -0.3047 -0.0721  0.7244
44453SOL    HW242138   6.106   5.484   6.005  0.9271 -0.7480  0.4008
44454SOL     OW42139  12.511   9.973   7.559 -0.5047  0.0204  0.2433
44454SOL    HW142140  12.450   9.929   7.500 -2.6568  0.7660  1.7780
44454SOL    HW242141  12.592   9.922   7.551 -1.4937 -1.4311 -1.4035
44455SOL     OW42142   4.155   7.653  10.662  0.3128 -0.2885 -0.4282
44455SOL    HW142143   4.172   7.746  10.675  1.1110 -0.4313 -0.3893
44455SOL    HW242144   4.235   7.610  10.690  0.7600 -0.8512 -2.3980
44456SOL     OW42145   2.884   0.601  10.274  0.0157  0.4249 -0.3014
44456SOL    HW142146   2.963   0.567  10.234 -0.1235 -0.8192  0.4235
44456SOL    HW242147   2.901   0.599  10.368 -0.4650  1.2240 -0.1809
44457SOL     OW42148   5.617   9.149   2.302 -0.7353  0.1913  0.1915
44457SOL    HW142149   5.548   9.203   2.265  0.3709  0.6187 -1.3773
44457SOL    HW242150   5.690   9.210   2.316  0.3791 -0.7503 -1.1714
44458SOL     OW42151   5.344  12.524   0.770 -0.3170  0.4633 -0.3213
44458SOL    HW142152   5.293  12.442   0.769  1.6590 -0.8393 -0.5122
44458SOL    HW242153   5.280  12.592   0.752 -2.2121 -0.9308  0.7034
44459SOL     OW42154   8.262   5.301   8.528 -0.2264  0.6066  0.6449
44459SOL    HW142155   8.297   5.229   8.580  0.1484  0.9798  0.9123
44459SOL    HW242156   8.167   5.298   8.544 -0.5864 -1.4874 -1.4512
44460SOL     OW42157   0.930   7.061   3.394  0.3661  0.1986 -0.2186
44460SOL    HW142158   0.996   7.126   3.418 -0.9565  1.5470 -0.0780
44460SOL    HW242159   0.966   6.978   3.424  2.1000  0.8487 -0.3762
44461SOL     OW42160   2.912   0.510   8.832 -0.0002 -0.4573 -0.5846
44461SOL    HW142161   2.856   0.570   8.880  1.8207 -0.8518  2.2613
44461SOL    HW242162   2.880   0.423   8.854  0.2512 -0.6340 -0.8953
44462SOL     OW42163   7.479   9.518   2.308  0.1952 -0.5926 -0.5486
44462SOL    HW142164   7.406   9.563   2.266  1.0922  0.2000 -1.3252
44462SOL    HW242165   7.444   9.488   2.392 -1.1260 -0.6084 -1.0922
44463SOL     OW42166  11.813  11.036   3.009 -0.3208 -0.0028 -0.0401
44463SOL    HW142167  11.787  11.084   3.088  1.1370 -1.2664  1.2901
44463SOL    HW242168  11.737  10.981   2.989 -0.8365  0.5883  0.2812
44464SOL     OW42169  10.250   2.314   5.642  0.1188  0.7222 -0.0026
44464SOL    HW142170  10.278   2.360   5.562 -1.5946 -0.1067 -1.1492
44464SOL    HW242171  10.189   2.374   5.684  0.4565  0.8581  0.2936
44465SOL     OW42172   3.058   8.577   7.295 -0.0638  0.4408  0.0406
44465SOL    HW142173   3.117   8.509   7.326  0.7093  0.4327 -1.3279
44465SOL    HW242174   2.988   8.530   7.251  1.1156  0.4784 -2.0172
44466SOL     OW42175  11.627   2.756   8.806  0.4552  0.2319 -0.4330
44466SOL    HW142176  11.681   2.800   8.872  0.1474  1.0679 -0.7295
44466SOL    HW242177  11.610   2.670   8.844 -1.5351  1.4079  1.6432
44467SOL     OW42178   9.210   3.306  11.349  0.1241 -0.3015 -0.3808
44467SOL    HW142179   9.215   3.277  11.257  0.4183 -0.2576 -0.3775
44467SOL    HW242180   9.118   3.292  11.373 -0.0716  0.1623 -0.8367
44468SOL     OW42181   2.441   8.083   6.188  0.2840 -0.3403  0.3398
44468SOL    HW142182   2.522   8.080   6.240  0.2412 -1.4355  0.3579
44468SOL    HW242183   2.426   8.177   6.174  1.1458 -0.0876  0.9752
44469SOL     OW42184   8.444   6.539   2.807 -0.3832 -0.3759  0.3365
44469SOL    HW142185   8.519   6.512   2.860 -0.4198  0.0702  0.6280
44469SOL    HW242186   8.404   6.457   2.777  0.5951 -0.6056 -0.3605
44470SOL     OW42187   3.090  10.865   7.672  0.8922 -0.1882  0.5406
44470SOL    HW142188   3.184  10.858   7.660  0.9210  0.9880 -0.1425
44470SOL    HW242189   3.078  10.952   7.712 -0.0105  0.5331 -1.1974
44471SOL     OW42190   4.226   5.767  10.155  0.2240 -0.4207 -0.6046
44471SOL    HW142191   4.249   5.689  10.206 -0.1334 -1.1780 -1.5829
44471SOL    HW242192   4.130   5.766  10.152 -0.0989  2.2539  2.7240
44472SOL     OW42193   6.265   9.883   2.607  0.0328  0.3173  0.8776
44472SOL    HW142194   6.298   9.904   2.520 -1.9930  0.7833  0.1542
44472SOL    HW242195   6.320   9.812   2.637  1.4414  0.8374 -0.3425
44473SOL     OW42196   1.870   2.490   5.170  0.0793  0.2096  0.2565
44473SOL    HW142197   1.831   2.569   5.207  1.2328  1.3023 -0.7666
44473SOL    HW242198   1.832   2.418   5.221 -1.5303  1.3548  0.7563
44474SOL     OW42199   9.680   9.844   8.320 -0.4515 -0.5295  0.8307
44474SOL    HW142200   9.620   9.907   8.281 -0.4818 -0.4868  0.9448
44474SOL    HW242201   9.626   9.769   8.342 -0.0545 -1.5295 -1.3248
44475SOL     OW42202   2.597   3.449   5.821  0.3579  0.2472 -0.4663
44475SOL    HW142203   2.593   3.535   5.779  0.0180 -0.2382 -1.4515
44475SOL    HW242204   2.541   3.393   5.767  1.0933 -0.7592 -0.2186
44476SOL     OW42205  12.419   1.088   4.695 -0.1424  0.1185  0.3409
44476SOL    HW142206  12.424   1.099   4.600  0.6002  0.4307  0.4080
44476SOL    HW242207  12.374   1.005   4.708  0.8638 -0.5391 -0.3097
44477SOL     OW42208   6.498   4.309   4.117  0.2485 -0.0528 -0.1198
44477SOL    HW142209   6.489   4.266   4.202  0.6019 -0.6635 -0.3897
44477SOL    HW242210   6.410   4.343   4.098 -0.2276 -1.3442 -0.2703
44478SOL     OW42211   3.283   4.199   4.364  0.0363  0.3576  0.0712
44478SOL    HW142212   3.189   4.199   4.379 -0.0392  1.1358 -0.3600
44478SOL    HW242213   3.304   4.107   4.346 -0.3916 -0.0736  1.5856
44479SOL     OW42214   5.941   6.379   0.408  0.2764 -0.2045  0.9309
44479SOL    HW142215   6.005   6.377   0.479  0.1596  1.1710  1.0945
44479SOL    HW242216   5.975   6.442   0.346 -0.0645 -0.7498  0.1757
44480SOL     OW42217   8.093   8.710   1.094 -0.0704 -0.4035 -0.0443
44480SOL    HW142218   8.137   8.778   1.145  0.0045 -0.9072  0.5624
44480SOL    HW242219   8.058   8.757   1.018 -0.4514  0.4070  0.6158
44481SOL     OW42220  12.518  10.957  10.598  0.1140  0.0007  0.0516
44481SOL    HW142221  12.587  10.995  10.543  0.6946 -0.3477  0.5363
44481SOL    HW242222  12.533  10.863  10.595 -0.5618 -0.1061 -0.1254
44482SOL     OW42223   1.025   8.031   6.882  0.2048  0.4870 -0.6305
44482SOL    HW142224   1.045   8.106   6.939 -0.8871  1.3934 -1.4130
44482SOL    HW242225   0.973   8.067   6.811 -1.9595 -1.3067 -0.0732
44483SOL     OW42226   1.820   3.305   3.921  0.0755  0.0361 -0.3652
44483SOL    HW142227   1.887   3.374   3.923 -0.2795  0.3835 -0.2503
44483SOL    HW242228   1.795   3.293   4.013 -0.6078  0.4978 -0.4802
44484SOL     OW42229   4.962   6.707   7.124  0.3272 -0.0895  0.1422
44484SOL    HW142230   4.881   6.729   7.078 -0.8330  0.4253  2.2502
44484SOL    HW242231   5.022   6.677   7.056 -1.6645 -0.5936 -1.5020
44485SOL     OW42232   0.545  10.239  10.259 -0.5994  0.5443  0.3087
44485SOL    HW142233   0.576  10.196  10.339 -0.4135 -1.0096 -0.5474
44485SOL    HW242234   0.607  10.311  10.246  0.1956 -0.0170  0.8314
44486SOL     OW42235  11.645   5.608  12.119 -0.0073  0.6101  1.0023
44486SOL    HW142236  11.613   5.673  12.056 -1.0687 -0.9504 -0.1356
44486SOL    HW242237  11.619   5.642  12.204 -1.0688  1.3885  0.3888
44487SOL     OW42238   1.785  10.795  11.041  0.1871  0.2245  0.2013
44487SOL    HW142239   1.810  10.707  11.014 -1.0149 -1.0719  2.9057
44487SOL    HW242240   1.827  10.808  11.126 -1.9002  1.0576  1.2034
44488SOL     OW42241   1.327   1.785   2.439 -0.0325 -0.4499  0.4674
44488SOL    HW142242   1.412   1.807   2.403  0.1850 -0.4198  0.9877
44488SOL    HW242243   1.300   1.707   2.391  0.4724 -0.6983  0.5763
44489SOL     OW42244   1.258  11.277   1.745  0.1340  0.2254 -0.7690
44489SOL    HW142245   1.260  11.283   1.841  2.2994 -0.8211 -0.6753
44489SOL    HW242246   1.334  11.223   1.723 -1.0633 -0.6876 -3.0207
44490SOL     OW42247  12.111   0.286   6.142  0.9386 -0.4103  0.2640
44490SOL    HW142248  12.078   0.305   6.230  1.0752 -2.1269  0.7338
44490SOL    HW242249  12.104   0.191   6.134  0.3451 -0.2363 -1.8380
44491SOL     OW42250   3.668   6.080   0.817  0.0912 -0.0220  0.2879
44491SOL    HW142251   3.597   6.107   0.759 -1.3855 -1.1728  1.4709
44491SOL    HW242252   3.645   5.990   0.843  0.9099  0.2990  2.2914
44492SOL     OW42253   5.785  12.408   5.453 -0.3698  0.3462  0.5737
44492SOL    HW142254   5.821  12.436   5.369  1.0260  0.0452  1.0427
44492SOL    HW242255   5.741  12.485   5.488 -0.2302  0.7147 -0.0584
44493SOL     OW42256  10.287   1.381   5.864 -0.2117 -0.1014 -0.0240
44493SOL    HW142257  10.209   1.438   5.867 -0.3783 -0.3622  1.1120
44493SOL    HW242258  10.287   1.346   5.775 -1.0688  0.3570 -0.2232
44494SOL     OW42259  11.279  11.056   3.842  0.1742 -0.2788  0.3045
44494SOL    HW142260  11.254  11.133   3.791  0.5421 -0.1989  0.2436
44494SOL    HW242261  11.229  10.985   3.803  0.2863 -0.1789 -0.0313
44495SOL     OW42262   8.444   6.293   4.530  0.3477 -0.0500 -0.6355
44495SOL    HW142263   8.511   6.229   4.505  1.6077  0.3004  1.6468
44495SOL    HW242264   8.474   6.375   4.491  1.4257  0.1616  0.6048
44496SOL     OW42265   8.285   4.689   3.503  0.5301 -0.2124 -0.1314
44496SOL    HW142266   8.304   4.752   3.572 -0.2682 -0.2091  0.0947
44496SOL    HW242267   8.336   4.719   3.428  2.4698 -0.9668  0.8070
44497SOL     OW42268   8.210   7.359   4.996 -0.1574  0.5696  0.3641
44497SOL    HW142269   8.175   7.354   5.085 -2.2624 -0.0142 -0.4383
44497SOL    HW242270   8.224   7.267   4.971  1.1218  0.7561  0.3213
44498SOL     OW42271   4.315   9.194  11.016  0.1554  0.3622  0.2702
44498SOL    HW142272   4.316   9.099  11.029  0.3272  0.3948  0.4917
44498SOL    HW242273   4.407   9.219  11.013  0.1188  0.4423 -0.3938
44499SOL     OW42274  12.392   6.982   9.738 -0.1098 -0.2565  0.3120
44499SOL    HW142275  12.394   6.916   9.807  2.6645 -0.7333 -0.0704
44499SOL    HW242276  12.455   6.950   9.673  0.4580  2.1877 -0.4445
44500SOL     OW42277   0.300   2.986   6.950 -0.5834 -0.4490 -0.1562
44500SOL    HW142278   0.355   3.058   6.918  0.5486 -2.1322 -2.3328
44500SOL    HW242279   0.216   2.999   6.907  0.0582 -1.1324 -1.7018
44501SOL     OW42280   6.788   9.191  11.303  0.0284  0.4393 -0.1002
44501SOL    HW142281   6.788   9.281  11.336 -1.5100 -0.0059  1.2731
44501SOL    HW242282   6.757   9.198  11.213  0.2162  1.3124 -0.1059
44502SOL     OW42283   1.519   2.593   4.791 -0.1602  0.4023  0.3747
44502SOL    HW142284   1.587   2.543   4.835 -0.2497 -0.1829 -0.1359
44502SOL    HW242285   1.541   2.684   4.808  0.1614  0.1967  1.0869
44503SOL     OW42286  10.116   4.901   5.915 -0.5187  0.5775 -0.2186
44503SOL    HW142287  10.074   4.816   5.899 -0.1534  0.1825  0.8743
44503SOL    HW242288  10.043   4.963   5.922 -0.8371  0.1897 -0.0633
44504SOL     OW42289  11.954   5.654   0.719  0.2416 -0.2720 -0.6035
44504SOL    HW142290  12.016   5.718   0.753  0.5712  0.2973 -2.1663
44504SOL    HW242291  11.894   5.637   0.792  1.0120  0.7118  0.2932
44505SOL     OW42292   4.362   8.978   7.986 -0.2039 -0.1834  0.2994
44505SOL    HW142293   4.443   8.946   7.947 -1.2474 -0.9104 -1.4151
44505SOL    HW242294   4.301   8.905   7.978 -1.6233  1.0222 -0.4058
44506SOL     OW42295   1.220   2.301   3.667  0.3128  0.6728  0.2256
44506SOL    HW142296   1.271   2.282   3.588  1.8727 -3.2776  1.9310
44506SOL    HW242297   1.129   2.291   3.640  0.8157 -0.4643 -1.1531
44507SOL     OW42298   6.709   2.914   4.601  0.0475  0.3064  0.1232
44507SOL    HW142299   6.797   2.926   4.637 -1.3526  0.6771  3.8900
44507SOL    HW242300   6.665   2.997   4.619 -1.1930  0.0033 -1.3504
44508SOL     OW42301   2.789   7.823  11.300  0.1092 -0.2639  0.3616
44508SOL    HW142302   2.708   7.861  11.334 -0.3953 -0.5875 -0.4486
44508SOL    HW242303   2.858   7.884  11.327 -0.7740  1.8018 -1.7154
44509SOL     OW42304   5.071   8.840   4.032 -0.0428 -0.4759  0.0533
44509SOL    HW142305   5.054   8.848   4.126 -0.6119  4.1317 -0.1672
44509SOL    HW242306   5.158   8.879   4.020 -0.3174 -0.2185 -1.3626
44510SOL     OW42307  11.646   8.624   0.329 -0.3518  0.3797  0.1539
44510SOL    HW142308  11.637   8.545   0.382 -0.5226  0.4369  0.2085
44510SOL    HW242309  11.734   8.616   0.290 -1.2025 -0.9522 -1.6563
44511SOL     OW42310   6.347   4.738   7.382  0.0695 -0.0443 -0.3073
44511SOL    HW142311   6.381   4.649   7.383 -1.4398 -0.6427 -0.5214
44511SOL    HW242312   6.272   4.735   7.323 -1.2563  0.8798  1.2508
44512SOL     OW42313  12.565   1.793   9.546  0.2506 -0.2109 -0.0148
44512SOL    HW142314  12.512   1.810   9.468 -1.0210 -1.2384  0.5943
44512SOL    HW242315  12.601   1.705   9.531 -0.5137 -0.6757  0.8214
44513SOL     OW42316   5.599   8.742   2.641 -0.4086 -0.2791 -0.3834
44513SOL    HW142317   5.564   8.751   2.729  1.7641 -1.5652  0.7038
44513SOL    HW242318   5.612   8.647   2.630  2.7670  0.0801 -0.5911
44514SOL     OW42319  11.772   4.701  11.927  0.0539 -0.4270 -0.0628
44514SOL    HW142320  11.845   4.655  11.968  0.4378  1.8247  1.9574
44514SOL    HW242321  11.809   4.738  11.847  0.9178  0.0382  0.5448
44515SOL     OW42322   9.402  11.683   1.812 -0.5777  0.1155 -0.5762
44515SOL    HW142323   9.376  11.599   1.851  0.8756 -0.5823 -1.0270
44515SOL    HW242324   9.430  11.737   1.886  0.3499 -0.5252 -0.4360
44516SOL     OW42325  11.390   9.309  12.444  0.5332  0.4486  0.3722
44516SOL    HW142326  11.456   9.375  12.464  3.4190 -2.0563 -0.1605
44516SOL    HW242327  11.380   9.260  12.525 -0.4835  0.5904  0.3468
44517SOL     OW42328   2.356   7.497   6.391 -0.0743 -0.0094  0.5170
44517SOL    HW142329   2.262   7.496   6.373  0.2136  0.6298 -1.2631
44517SOL    HW242330   2.379   7.406   6.411 -1.2809  0.0493  2.3561
44518SOL     OW42331  11.515   5.148   1.680  0.5781  0.0919 -0.0806
44518SOL    HW142332  11.439   5.187   1.723 -0.0461  0.8407 -1.8219
44518SOL    HW242333  11.527   5.064   1.726 -1.1107  0.0839  0.4033
44519SOL     OW42334  10.125   8.131   4.333 -0.2731 -0.5644 -0.2277
44519SOL    HW142335  10.193   8.082   4.381  1.9962  0.7248 -1.9470
44519SOL    HW242336  10.044   8.085   4.355  0.9444 -1.6277  2.7084
44520SOL     OW42337   1.798   4.663   8.414  0.1495  0.1334  0.4727
44520SOL    HW142338   1.857   4.738   8.422 -0.5331  0.5290  2.2157
44520SOL    HW242339   1.760   4.672   8.326  1.8526  0.4534 -0.2776
44521SOL     OW42340   7.424   7.793  12.612  0.1263  0.0059 -0.1243
44521SOL    HW142341   7.451   7.757  12.527 -0.0577 -1.4633  0.4108
44521SOL    HW242342   7.469   7.738  12.677  1.0441  1.6934  0.7664
44522SOL     OW42343   9.809   1.560  12.454 -0.5775  0.7018  0.5232
44522SOL    HW142344   9.809   1.555  12.358 -0.6766 -1.3534  0.5946
44522SOL    HW242345   9.861   1.485  12.482  0.1355  1.7266  2.0897
44523SOL     OW42346  12.157   2.185   7.479  0.1861 -0.2495 -0.0414
44523SOL    HW142347  12.135   2.278   7.482  0.9197 -0.0374 -0.7096
44523SOL    HW242348  12.077   2.142   7.449 -0.0964  0.1895  0.0707
44524SOL     OW42349   3.991  10.651   1.959  0.3829  0.2422 -1.0241
44524SOL    HW142350   4.000  10.560   1.989 -0.9396  0.7640  1.2079
44524SOL    HW242351   3.919  10.648   1.896 -1.7772  0.1061  1.2970
44525SOL     OW42352  11.803   0.190   9.593  0.1077  0.7100  0.0586
44525SOL    HW142353  11.758   0.126   9.648 -1.0876  0.4658 -1.1470
44525SOL    HW242354  11.737   0.220   9.531  1.9117 -0.9018 -2.9091
44526SOL     OW42355   9.918   9.817   2.145 -0.5490 -0.1556  0.5136
44526SOL    HW142356   9.965   9.839   2.225 -0.6133 -0.1950  0.5622
44526SOL    HW242357   9.962   9.738   2.112  0.0252  0.3438  0.0563
44527SOL     OW42358   0.511   3.204   5.107  0.4493  0.1348 -0.4745
44527SOL    HW142359   0.451   3.251   5.165  0.0562 -1.0631  0.1067
44527SOL    HW242360   0.483   3.113   5.111  2.8997 -0.6619  0.5853
44528SOL     OW42361   4.528   6.865   8.619  0.0287 -0.4833 -0.1314
44528SOL    HW142362   4.611   6.909   8.603 -0.7181  0.7326 -0.7412
44528SOL    HW242363   4.510   6.817   8.538 -0.3595  0.0909 -0.3921
44529SOL     OW42364  12.120   7.957  10.319 -0.0669  0.0572  0.4739
44529SOL    HW142365  12.168   8.007  10.252  0.0778  0.9586  1.2268
44529SOL    HW242366  12.135   8.005  10.400 -2.3976  0.5000  0.7134
44530SOL     OW42367   9.949   7.174   9.988  0.7935  0.3588 -0.3561
44530SOL    HW142368   9.895   7.102   9.956  0.8932  0.0540  0.1408
44530SOL    HW242369   9.947   7.239   9.918  1.1440 -0.3489 -1.0473
44531SOL     OW42370   0.189   9.411   2.211 -0.4489 -0.0484 -0.2194
44531SOL    HW142371   0.211   9.361   2.290 -1.8880 -1.7949 -0.8468
44531SOL    HW242372   0.093   9.410   2.209 -0.4409  0.1589 -1.8745
44532SOL     OW42373   2.055   1.833   1.917 -0.5550 -0.5687  0.0844
44532SOL    HW142374   2.091   1.876   1.994  0.8593 -1.4027 -0.0806
44532SOL    HW242375   1.997   1.899   1.878  1.1546  1.0518  0.1167
44533SOL     OW42376   5.006   3.945   5.137 -0.6408  0.0560 -0.1315
44533SOL    HW142377   4.919   3.927   5.102 -1.1710 -1.3206  1.7512
44533SOL    HW242378   5.044   3.858   5.151 -0.2177  0.5278  2.0166
44534SOL     OW42379   9.669   6.830   6.083  0.3911  0.0246  0.0927
44534SOL    HW142380   9.733   6.901   6.075 -0.5396  0.7841 -0.7284
44534SOL    HW242381   9.716   6.752   6.051  0.8331  0.6180 -0.7444
44535SOL     OW42382   4.177  12.576   3.154 -0.1732 -0.2822  0.1695
44535SOL    HW142383   4.222  12.547   3.075 -0.7466 -0.3130 -0.1538
44535SOL    HW242384   4.162  12.496   3.204  0.4567 -0.2259  0.4592
44536SOL     OW42385   4.524   6.719   3.670 -0.2031  0.7839  0.0594
44536SOL    HW142386   4.466   6.649   3.641 -0.7881  0.3034  2.2166
44536SOL    HW242387   4.545   6.767   3.589 -2.0850 -0.1454 -1.0722
44537SOL     OW42388  10.648   5.400   4.810  0.0389 -0.4148  0.1818
44537SOL    HW142389  10.553   5.413   4.805  0.3362  1.6863 -3.0773
44537SOL    HW242390  10.680   5.476   4.858  0.2207  0.2459 -0.9525
44538SOL     OW42391  11.172   2.006   3.446  0.2629 -0.1753  0.2569
44538SOL    HW142392  11.082   1.974   3.453 -0.2156  0.9230 -0.6095
44538SOL    HW242393  11.224   1.927   3.430 -0.6088 -0.7716  0.2815
44539SOL     OW42394   6.220   3.550   8.640 -0.5468  0.7010 -0.6821
44539SOL    HW142395   6.174   3.587   8.565  1.8470 -0.2492 -2.7608
44539SOL    HW242396   6.277   3.621   8.670 -1.0661  0.8879 -0.1214
44540SOL     OW42397   6.049   3.467   0.496 -0.0825  0.3627  0.3555
44540SOL    HW142398   5.964   3.488   0.534  0.2422  1.3078  0.5885
44540SOL    HW242399   6.104   3.444   0.571 -0.1749 -0.4491  0.1873
44541SOL     OW42400   2.566  10.040   2.105  0.0220 -0.0308  0.3646
44541SOL    HW142401   2.494  10.103   2.108 -1.1266 -1.2991  3.3234
44541SOL    HW242402   2.644  10.094   2.090 -1.0973  1.8683  0.9997
44542SOL     OW42403   2.982   0.559   1.956  0.5236  0.6035  0.7851
44542SOL    HW142404   3.034   0.523   1.885 -0.2587  1.6286 -0.3642
44542SOL    HW242405   2.894   0.569   1.919 -0.3503 -0.4330  2.4447
44543SOL     OW42406   3.614   6.442   4.471  0.5057 -0.0342 -0.2307
44543SOL    HW142407   3.605   6.416   4.562  1.2026 -0.1457 -0.1920
44543SOL    HW242408   3.687   6.504   4.470  2.3259 -2.0483 -1.0834
44544SOL     OW42409   4.869   6.534   4.580  0.2267  0.0174 -0.0675
44544SOL    HW142410   4.920   6.563   4.504  0.6055  0.3720  0.3196
44544SOL    HW242411   4.912   6.575   4.655 -1.3229  1.2762  0.1624
44545SOL     OW42412   9.194   0.829   9.353 -0.6153 -0.8931  0.3074
44545SOL    HW142413   9.122   0.810   9.294 -0.0716 -0.4188 -0.5226
44545SOL    HW242414   9.269   0.783   9.316 -0.2238 -0.4351  0.5097
44546SOL     OW42415  12.418   4.251   4.996 -0.0157 -0.2064 -0.5073
44546SOL    HW142416  12.432   4.171   5.047 -0.9211  1.1760  2.0454
44546SOL    HW242417  12.502   4.267   4.953  1.2547 -0.7431  1.6374
44547SOL     OW42418   7.984   2.384   5.262  0.2854 -0.0201  0.2337
44547SOL    HW142419   7.933   2.465   5.269 -0.4162 -0.5058  0.8164
44547SOL    HW242420   7.986   2.366   5.168 -0.9448 -0.1832  0.2192
44548SOL     OW42421   2.085   9.545   3.752  0.0163  0.5844  0.1324
44548SOL    HW142422   2.117   9.621   3.703  2.0467  0.2206  0.8143
44548SOL    HW242423   2.082   9.575   3.843  1.6825 -0.3736  0.5330
44549SOL     OW42424   9.554   6.588   4.802 -0.2288  0.1229 -0.2180
44549SOL    HW142425   9.465   6.559   4.781  0.0619 -0.9959  0.0268
44549SOL    HW242426   9.606   6.508   4.805  0.2739  0.4483  2.1390
44550SOL     OW42427   1.424  11.168   0.679  0.2859 -0.2129  0.1984
44550SOL    HW142428   1.373  11.089   0.660 -1.2044  0.8225 -0.2724
44550SOL    HW242429   1.407  11.226   0.605  1.2135  0.6385  0.6212
44551SOL     OW42430   4.763   0.846   1.593  0.2630  0.2491 -0.4511
44551SOL    HW142431   4.743   0.820   1.683 -2.2833 -1.1678 -1.3137
44551SOL    HW242432   4.707   0.922   1.577 -0.9027 -0.7448 -1.3895
44552SOL     OW42433   4.283  12.563   0.254  0.5340  0.2375  0.1844
44552SOL    HW142434   4.278  12.536   0.163 -1.1663 -0.2252  0.3797
44552SOL    HW242435   4.254  12.654   0.254  0.9426  0.3723  0.2271
44553SOL     OW42436  12.199  12.467  11.744 -0.0905  0.3905  0.0009
44553SOL    HW142437  12.284  12.459  11.701 -0.0408  1.5244 -0.1501
44553SOL    HW242438  12.144  12.400  11.703  0.9688 -1.0056  0.7515
44554SOL     OW42439   9.903   0.326   9.902  0.1582 -0.3162  0.0240
44554SOL    HW142440   9.940   0.331   9.990 -0.2801  0.0902  0.1845
44554SOL    HW242441   9.818   0.284   9.914  0.2126 -0.5040 -0.2410
44555SOL     OW42442   0.888   1.403   2.540  0.4770  0.4219  0.7119
44555SOL    HW142443   0.806   1.436   2.577 -0.4223 -0.1908 -0.6496
44555SOL    HW242444   0.923   1.345   2.608 -0.2471  0.6466  1.2925
44556SOL     OW42445   0.713   6.850   7.196 -0.3132  0.1784  0.2905
44556SOL    HW142446   0.785   6.806   7.149 -0.7863  0.0782 -0.3636
44556SOL    HW242447   0.732   6.943   7.187 -0.2702  0.1523  0.1040
44557SOL     OW42448   8.261   7.314   9.183 -0.5855 -0.8935 -0.1592
44557SOL    HW142449   8.256   7.236   9.239 -2.6994 -0.5727  0.1543
44557SOL    HW242450   8.274   7.386   9.244 -3.6351 -0.4489  0.1250
44558SOL     OW42451   0.028  10.983   4.781 -0.2791  0.1626  0.0211
44558SOL    HW142452   0.034  11.079   4.777  2.8869  0.1869  1.7899
44558SOL    HW242453  -0.003  10.965   4.870  1.4528 -0.4045  0.5450
44559SOL     OW42454   2.329   1.192   4.787 -0.0907 -0.0413  0.4069
44559SOL    HW142455   2.298   1.282   4.779 -0.7897 -0.2386  0.8865
44559SOL    HW242456   2.323   1.156   4.698 -3.4846 -0.7959  0.8116
44560SOL     OW42457   6.743   3.132   9.716  0.0455  0.5039  0.0712
44560SOL    HW142458   6.794   3.175   9.785 -0.0040  1.0375 -0.2212
44560SOL    HW242459   6.750   3.191   9.641 -0.7815  0.4487 -0.0506
44561SOL     OW42460   0.251   4.334  11.582  0.9244 -0.3333 -0.1348
44561SOL    HW142461   0.265   4.324  11.677 -1.0637  1.8974  0.4962
44561SOL    HW242462   0.302   4.412  11.559 -1.5963  1.4643 -0.0019
44562SOL     OW42463   1.444  11.223   0.191  0.4289 -0.5525 -0.0005
44562SOL    HW142464   1.508  11.261   0.132 -0.0239  0.1681 -0.0388
44562SOL    HW242465   1.495  11.169   0.251  1.1392  0.4756  0.3408
44563SOL     OW42466   2.724   3.715   5.084  0.3940 -0.2329  0.0545
44563SOL    HW142467   2.738   3.628   5.048 -0.8893 -0.2350 -0.4885
44563SOL    HW242468   2.795   3.727   5.147  0.8117 -1.5021 -0.1564
44564SOL     OW42469   5.755   5.851   9.042 -0.1867  0.7040  0.0907
44564SOL    HW142470   5.775   5.919   9.107  0.1335 -0.9449  1.8008
44564SOL    HW242471   5.695   5.893   8.981  2.3446  3.4617 -0.7190
44565SOL     OW42472   3.200   0.837   7.861  0.3026  0.0632 -0.3044
44565SOL    HW142473   3.172   0.758   7.813  1.2000  0.0530 -0.8408
44565SOL    HW242474   3.281   0.811   7.904  1.0503  0.9166 -1.1506
44566SOL     OW42475   0.897   7.634   8.142 -0.0590  0.0979 -0.1981
44566SOL    HW142476   0.915   7.609   8.233 -0.3804 -1.2158 -0.4736
44566SOL    HW242477   0.981   7.623   8.097 -0.1643 -0.3860 -0.2867
44567SOL     OW42478   2.912  12.153   6.619  0.0661  0.1891 -0.5484
44567SOL    HW142479   2.834  12.177   6.669  1.1859  1.5815  0.6415
44567SOL    HW242480   2.933  12.233   6.569  0.2215 -0.4706 -1.5644
44568SOL     OW42481   1.551  12.078   0.016  0.3874  0.5477  0.4837
44568SOL    HW142482   1.619  12.093   0.082 -0.2559  0.0506  1.2728
44568SOL    HW242483   1.511  12.164   0.003 -0.2358  0.4541  1.6044
44569SOL     OW42484   5.940  10.063   8.647 -0.1705  0.0131 -0.0993
44569SOL    HW142485   5.947  10.131   8.714  1.0743  0.5264 -0.7120
44569SOL    HW242486   5.874  10.096   8.586  0.5265  0.7695 -0.4696
44570SOL     OW42487   1.057   0.541   2.486 -0.0534 -0.2077 -0.5349
44570SOL    HW142488   1.036   0.606   2.553 -1.3709 -1.6231  0.5087
44570SOL    HW242489   1.094   0.467   2.535  0.3931 -0.6827 -1.5577
44571SOL     OW42490   9.736  12.582   6.052  0.4350 -0.3608  0.1320
44571SOL    HW142491   9.724  12.493   6.085  0.3370 -0.9836 -1.4961
44571SOL    HW242492   9.820  12.609   6.088  0.6160 -1.2339  0.3930
44572SOL     OW42493   0.734   9.309  10.959  0.1512 -0.8482  0.1318
44572SOL    HW142494   0.816   9.315  11.007 -0.5554 -1.4264  1.4802
44572SOL    HW242495   0.666   9.310  11.027 -1.3221  4.0548 -1.0143
44573SOL     OW42496   7.349  11.726   9.829  0.8038 -0.6526 -0.6698
44573SOL    HW142497   7.336  11.702   9.737  0.8133  0.3736 -0.9568
44573SOL    HW242498   7.317  11.651   9.878  1.0544 -1.3347 -1.5172
44574SOL     OW42499   6.672  10.576   9.344 -0.5529  0.3115  0.3631
44574SOL    HW142500   6.740  10.643   9.347  0.8254 -1.0402  0.6707
44574SOL    HW242501   6.644  10.574   9.252  0.5241  0.2427  0.0219
44575SOL     OW42502  11.685   3.011  11.400 -0.0479  0.0681  0.1015
44575SOL    HW142503  11.735   3.015  11.318  0.6868 -1.3128  0.4439
44575SOL    HW242504  11.596   2.990  11.372  0.7584 -3.5922 -0.3044
44576SOL     OW42505   8.625   6.311   2.367  0.0467 -0.1042 -0.2225
44576SOL    HW142506   8.583   6.365   2.300 -0.1028  0.4445  0.2979
44576SOL    HW242507   8.704   6.278   2.325 -1.3366 -1.9263 -1.5406
44577SOL     OW42508   4.509   7.960  12.121 -0.7504 -0.8663 -0.2010
44577SOL    HW142509   4.466   7.967  12.206  0.4053 -0.1946  0.3469
44577SOL    HW242510   4.572   7.889  12.132 -2.1082 -2.3022 -1.2035
44578SOL     OW42511   9.770   7.164  11.025  0.2718 -0.0636 -0.6696
44578SOL    HW142512   9.796   7.254  11.007 -1.1743  0.3712 -0.7257
44578SOL    HW242513   9.707   7.143  10.956 -0.3557 -0.6796  0.0785
44579SOL     OW42514  10.259  10.754   3.718 -0.1946 -0.3389 -0.5153
44579SOL    HW142515  10.287  10.713   3.801 -0.8852  0.0148 -0.0949
44579SOL    HW242516  10.308  10.707   3.651  0.3313 -0.6827  0.0902
44580SOL     OW42517   5.148   0.372  10.961  0.3923 -0.4504 -0.0462
44580SOL    HW142518   5.124   0.290  10.918  0.8782 -0.1324 -0.9739
44580SOL    HW242519   5.116   0.440  10.901 -1.6307  0.1219  1.5619
44581SOL     OW42520   5.209  11.891   9.508 -0.3151 -0.4240  0.5823
44581SOL    HW142521   5.289  11.940   9.491 -0.0085 -0.3842  2.0337
44581SOL    HW242522   5.188  11.909   9.599 -1.1767 -1.5937  0.6457
44582SOL     OW42523   3.771   0.328  12.291  0.0017  0.2936 -0.0177
44582SOL    HW142524   3.761   0.419  12.265 -0.1066  0.8819  1.9172
44582SOL    HW242525   3.853   0.326  12.341 -1.0860 -0.1528  1.8622
44583SOL     OW42526  10.699   1.470   8.170  0.0570 -0.0232  0.6194
44583SOL    HW142527  10.615   1.501   8.134 -0.6476 -0.8915  1.4629
44583SOL    HW242528  10.732   1.408   8.105  1.5525  2.4324 -1.1648
44584SOL     OW42529   9.604   9.170  11.598 -0.0302  0.5555  0.6521
44584SOL    HW142530   9.639   9.235  11.659 -1.0004 -2.4641  4.8228
44584SOL    HW242531   9.659   9.093  11.610 -1.3104 -0.7007 -1.0674
44585SOL     OW42532  11.234   6.966   9.850 -0.3993  0.3903 -0.1523
44585SOL    HW142533  11.249   6.964   9.944 -1.5182 -1.5577  0.0407
44585SOL    HW242534  11.142   6.943   9.839  0.3137 -2.1428 -1.7704
44586SOL     OW42535   1.846   0.270   5.058 -0.6209  0.2539  0.3110
44586SOL    HW142536   1.937   0.249   5.041 -0.9239  0.0727 -1.2376
44586SOL    HW242537   1.799   0.188   5.042 -1.3157  0.9431 -1.4397
44587SOL     OW42538   5.194   5.518  10.943  0.2526  0.3517 -0.1197
44587SOL    HW142539   5.274   5.546  10.987  1.5059  0.3867 -2.2366
44587SOL    HW242540   5.206   5.424  10.930  0.5441  0.5624 -1.5169
44588SOL     OW42541   3.514   3.855  10.339  0.3333 -0.0710 -0.4235
44588SOL    HW142542   3.498   3.831  10.247  0.3322 -0.1878 -0.3918
44588SOL    HW242543   3.481   3.781  10.389 -0.9976  0.6056 -0.2599
44589SOL     OW42544   7.518   0.492   4.926 -0.0993 -0.5522  0.1714
44589SOL    HW142545   7.479   0.547   4.994 -0.2651  0.2975 -0.5943
44589SOL    HW242546   7.611   0.491   4.947 -0.2056 -0.6454  0.6533
44590SOL     OW42547   8.208   2.532   4.337 -0.2911  0.3025  0.2777
44590SOL    HW142548   8.206   2.626   4.355  3.6173  0.9030 -1.5425
44590SOL    HW242549   8.270   2.496   4.401  1.0621 -0.3238 -1.3223
44591SOL     OW42550   2.645   5.032   2.172 -0.5419  0.1642  0.1345
44591SOL    HW142551   2.711   5.004   2.235 -0.6628 -1.1710 -0.3157
44591SOL    HW242552   2.576   4.966   2.178 -0.2805 -0.3416 -1.8075
44592SOL     OW42553   0.582   6.882   9.248  0.4470  0.0609  0.1811
44592SOL    HW142554   0.526   6.945   9.202  0.0836  0.4281  1.0907
44592SOL    HW242555   0.666   6.886   9.203  0.5242  1.4357  0.4046
44593SOL     OW42556   9.048   0.291   1.576 -0.0327  0.8211  0.2708
44593SOL    HW142557   9.072   0.210   1.621 -1.1875 -0.7619 -1.7949
44593SOL    HW242558   9.079   0.361   1.634  2.5361 -1.0526  1.3578
44594SOL     OW42559   4.532   3.352   1.897 -0.4946  0.4611 -0.0492
44594SOL    HW142560   4.463   3.287   1.912  0.1322 -0.5530 -1.3026
44594SOL    HW242561   4.609   3.317   1.942  0.0166 -0.0415 -1.2468
44595SOL     OW42562   0.798   5.629   0.392 -0.3961 -0.3054  0.3142
44595SOL    HW142563   0.750   5.711   0.381  1.2734  0.3298 -3.8071
44595SOL    HW242564   0.730   5.562   0.395 -1.6919  0.8910 -1.0364
44596SOL     OW42565  10.781   1.891   9.199 -0.3749  0.0382  0.1522
44596SOL    HW142566  10.868   1.929   9.207 -1.0548  1.2063  3.1609
44596SOL    HW242567  10.746   1.928   9.117  0.6863  2.3385  0.6589
44597SOL     OW42568   6.333   4.019   0.624  0.3122  0.2147 -0.1856
44597SOL    HW142569   6.321   3.996   0.716 -2.5021 -0.8774 -0.7079
44597SOL    HW242570   6.268   4.087   0.608 -0.0059 -0.3720 -1.5789
44598SOL     OW42571   3.128   0.599   7.722  0.1301  0.7371  0.4853
44598SOL    HW142572   3.218   0.599   7.688 -0.0998  1.3490 -0.1350
44598SOL    HW242573   3.076   0.560   7.653 -0.0027 -0.2496  1.1166
44599SOL     OW42574   7.010  10.874   3.538 -0.3601  0.1567 -0.4599
44599SOL    HW142575   7.007  10.935   3.464 -1.4029  0.4902 -0.1674
44599SOL    HW242576   6.994  10.788   3.500  1.0794  0.0453 -0.8707
44600SOL     OW42577   1.002   4.819   4.731  0.3499 -0.1773 -0.2174
44600SOL    HW142578   1.078   4.786   4.683  1.1278 -0.9649  1.4711
44600SOL    HW242579   0.967   4.743   4.775  0.3031  0.6877  1.3012
44601SOL     OW42580   4.270  10.608   4.113 -0.6159  0.2141  0.1920
44601SOL    HW142581   4.346  10.658   4.141 -0.8106  1.5180 -1.5065
44601SOL    HW242582   4.302  10.549   4.045 -0.7537 -0.7318  0.9109
44602SOL     OW42583  11.493   4.827  11.999  0.1885  0.1502  0.4622
44602SOL    HW142584  11.408   4.798  12.033 -0.3534  0.7381 -0.3426
44602SOL    HW242585  11.490   4.803  11.906  1.7567 -1.7157  0.8424
44603SOL     OW42586  10.700   3.104   8.319 -0.6807 -0.3191 -0.0237
44603SOL    HW142587  10.736   3.094   8.407 -0.8217  1.0329  0.2111
44603SOL    HW242588  10.762   3.058   8.262  0.0252 -0.2257  0.6504
44604SOL     OW42589   6.202   1.002   7.883 -0.5449 -0.0067 -0.1019
44604SOL    HW142590   6.153   1.077   7.919 -1.9590 -0.2119 -1.4597
44604SOL    HW242591   6.146   0.927   7.901  0.8398 -0.7539  1.1951
44605SOL     OW42592   2.328   5.493   6.919 -0.2722  0.4295  0.3440
44605SOL    HW142593   2.358   5.571   6.871  1.6730 -0.1604  0.4989
44605SOL    HW242594   2.250   5.522   6.966  0.0177  2.0998 -0.1345
44606SOL     OW42595  11.738   2.844   7.485  0.0866 -0.2039 -0.4999
44606SOL    HW142596  11.661   2.789   7.500  0.6339 -0.7883  0.1931
44606SOL    HW242597  11.701   2.932   7.473 -0.6705 -0.4193  0.1461
44607SOL     OW42598  12.375   4.777   0.915  0.1818  0.0371 -0.5170
44607SOL    HW142599  12.431   4.797   0.839 -0.2744  2.3048 -0.3295
44607SOL    HW242600  12.286   4.788   0.882 -0.0195  0.8994  0.2823
44608SOL     OW42601   0.430   8.271   2.710  0.4023 -0.0144 -1.0353
44608SOL    HW142602   0.350   8.261   2.659 -1.5238  1.3505  1.4707
44608SOL    HW242603   0.460   8.360   2.692  1.4797 -0.5622 -2.0628
44609SOL     OW42604   1.034   0.534  10.199  0.2744 -0.2773 -0.4817
44609SOL    HW142605   0.970   0.592  10.157  1.2371  1.6103  0.5266
44609SOL    HW242606   1.011   0.446  10.168 -2.1344  0.4507 -0.9476
44610SOL     OW42607  12.214   1.644   8.689 -0.1986 -0.0432 -0.4135
44610SOL    HW142608  12.264   1.706   8.635 -1.8189 -0.4663 -2.5340
44610SOL    HW242609  12.254   1.559   8.671  0.8413  0.0780  1.0753
44611SOL     OW42610   1.048   3.438   1.271  0.5732  0.2020  0.0166
44611SOL    HW142611   1.052   3.468   1.180 -1.4319  0.0134 -0.1759
44611SOL    HW242612   1.044   3.519   1.323  1.0385  0.3013 -0.0972
44612SOL     OW42613   7.214  10.015   0.674 -0.3985  0.5214 -0.0048
44612SOL    HW142614   7.211  10.036   0.768 -0.1130  0.4967  0.0098
44612SOL    HW242615   7.150   9.945   0.663  1.2833 -1.1986  0.6079
44613SOL     OW42616   2.072  11.215   5.292 -0.2466 -0.5768  0.5212
44613SOL    HW142617   2.149  11.268   5.274  0.3873 -0.6596  2.6866
44613SOL    HW242618   2.013  11.273   5.340 -0.5262 -1.1650  0.9133
44614SOL     OW42619   7.969  12.570   7.494 -0.2076 -0.7625  0.2248
44614SOL    HW142620   7.977  12.511   7.569 -0.4815  0.8543  1.5802
44614SOL    HW242621   7.875  12.592   7.491  0.2523  1.7743  1.5530
44615SOL     OW42622   9.777  10.895  12.186  0.5467 -0.1519 -0.1125
44615SOL    HW142623   9.836  10.966  12.159  0.0519  0.5847  0.6837
44615SOL    HW242624   9.690  10.935  12.181  0.3297 -0.4303  1.1932
44616SOL     OW42625   3.616   3.977   0.387  0.0274 -0.3203  0.1573
44616SOL    HW142626   3.582   3.905   0.441 -0.1254  1.3739  2.4710
44616SOL    HW242627   3.682   3.935   0.330  1.0286 -2.0891  2.4369
44617SOL     OW42628   0.917   4.612   8.494  0.7218 -0.1095 -0.1304
44617SOL    HW142629   0.869   4.692   8.516 -1.1080 -1.5173  1.2571
44617SOL    HW242630   0.998   4.619   8.545 -0.6110 -0.3155  2.1480
44618SOL     OW42631   7.372   3.046   2.197  0.6716 -0.2356  0.0955
44618SOL    HW142632   7.337   3.029   2.110  0.4658  1.0274 -0.0928
44618SOL    HW242633   7.306   3.011   2.257 -0.4357  1.1491 -0.2639
44619SOL     OW42634   9.579   8.464   9.934  0.1252 -0.3042 -0.5119
44619SOL    HW142635   9.666   8.498   9.955 -0.3017  0.8542 -0.4925
44619SOL    HW242636   9.587   8.369   9.943  1.5235 -0.2639 -1.0599
44620SOL     OW42637   8.125   1.214   4.800  0.8003 -0.2768 -0.5472
44620SOL    HW142638   8.206   1.238   4.755  1.0171  1.0092  0.4608
44620SOL    HW242639   8.055   1.249   4.746  0.9051 -1.1411 -1.2723
44621SOL     OW42640  10.628   0.406   5.785 -0.4512 -0.5278 -0.2512
44621SOL    HW142641  10.615   0.450   5.869  0.8389 -0.1413 -0.2387
44621SOL    HW242642  10.693   0.459   5.740  1.4622 -2.6015 -0.0949
44622SOL     OW42643  12.163   9.855   2.928  0.3535  0.2793 -0.3433
44622SOL    HW142644  12.146   9.833   2.836 -1.6629 -1.3595  0.3759
44622SOL    HW242645  12.094   9.917   2.951  0.8271  0.6525  0.0968
44623SOL     OW42646   2.102  10.133   5.842  0.1394  0.4632 -0.0858
44623SOL    HW142647   2.093  10.228   5.850  0.5077  0.4921  0.0203
44623SOL    HW242648   2.069  10.099   5.925 -1.3349  0.4008 -0.6657
44624SOL     OW42649  11.104   7.401  12.312  0.3114  0.5611  0.3690
44624SOL    HW142650  11.012   7.423  12.298 -0.0543 -1.7598 -1.4634
44624SOL    HW242651  11.148   7.430  12.232  0.3564 -2.0990 -0.6691
44625SOL     OW42652   5.351   2.036   8.713 -0.2420 -0.2683 -0.0900
44625SOL    HW142653   5.379   1.959   8.763 -0.7988  0.2799  1.1072
44625SOL    HW242654   5.324   2.100   8.780  1.9093  1.6758 -0.9160
44626SOL     OW42655   5.033   5.850  12.407 -0.3405  0.4064 -0.5198
44626SOL    HW142656   5.120   5.874  12.374 -0.5679 -0.6121 -1.9710
44626SOL    HW242657   4.999   5.930  12.445  0.9791  0.9936 -0.5281
44627SOL     OW42658   8.455   7.420   3.650  0.1658  0.1770  0.0100
44627SOL    HW142659   8.395   7.386   3.717  1.1090  0.0430  0.7941
44627SOL    HW242660   8.457   7.350   3.584  0.9387 -0.6848  0.9089
44628SOL     OW42661   7.791   6.441   9.264 -0.4882  0.8409 -0.3646
44628SOL    HW142662   7.768   6.348   9.263  0.0817  0.6927 -0.0012
44628SOL    HW242663   7.872   6.446   9.214 -0.0119  0.9990  0.4041
44629SOL     OW42664   9.146   9.673   0.037  0.5350 -0.2180 -0.8195
44629SOL    HW142665   9.239   9.657   0.021  0.8709  1.9881 -1.3055
44629SOL    HW242666   9.138   9.673   0.132  1.3359  1.0351 -0.7355
44630SOL     OW42667   0.075   9.380   5.145  0.0584  0.0294  0.3262
44630SOL    HW142668   0.135   9.314   5.111 -0.4442  0.7403 -2.1185
44630SOL    HW242669   0.133   9.447   5.183  0.7276 -0.1946 -0.2785
44631SOL     OW42670   1.008  10.153   7.328  0.2751 -0.1659 -0.0902
44631SOL    HW142671   0.967  10.234   7.298  2.2933  1.6397  1.6830
44631SOL    HW242672   0.937  10.105   7.372 -1.2515 -0.0563 -2.3013
44632SOL     OW42673   7.839   9.979   9.175 -0.5085  0.4954 -0.1218
44632SOL    HW142674   7.784  10.058   9.170 -1.7113 -0.3767 -1.1122
44632SOL    HW242675   7.794   9.922   9.237  0.3599  0.5583  0.5940
44633SOL     OW42676   7.495   4.906   5.421 -0.1423 -0.2556 -0.1890
44633SOL    HW142677   7.523   4.956   5.498 -0.1234 -1.3567  0.5538
44633SOL    HW242678   7.496   4.969   5.349  0.2132  0.7134  0.6390
44634SOL     OW42679   3.567  11.615   0.616 -0.4257 -0.1574 -0.0482
44634SOL    HW142680   3.487  11.658   0.585 -0.7661 -1.8100 -1.6168
44634SOL    HW242681   3.637  11.674   0.590 -1.0027  0.5134 -0.1285
44635SOL     OW42682   9.263   0.835   8.415  0.4317 -0.1508  0.6585
44635SOL    HW142683   9.267   0.768   8.346  2.3234  0.9512 -0.3794
44635SOL    HW242684   9.336   0.814   8.473  0.5949  0.5826  0.7254
44636SOL     OW42685   4.310   7.663  12.461 -0.1364  0.9057 -0.5553
44636SOL    HW142686   4.331   7.621  12.544 -1.8832  0.3588 -0.3547
44636SOL    HW242687   4.315   7.757  12.481  0.2883  0.7890 -0.0698
44637SOL     OW42688  11.083   0.467   5.650  0.6235 -0.0418 -0.3862
44637SOL    HW142689  11.065   0.424   5.733 -0.2762  0.1933 -0.4469
44637SOL    HW242690  11.132   0.402   5.599 -0.8180 -1.0635 -0.5265
44638SOL     OW42691   1.570   4.434  10.971 -0.2965  0.3434 -0.0951
44638SOL    HW142692   1.650   4.386  10.989 -1.1605 -1.2478 -0.3203
44638SOL    HW242693   1.558   4.491  11.047  1.9166  1.9133 -0.8176
44639SOL     OW42694   6.751   6.332   8.358 -0.1522 -0.0379  0.1653
44639SOL    HW142695   6.729   6.391   8.431  1.6338 -1.3088  1.8402
44639SOL    HW242696   6.767   6.391   8.284 -1.0057  1.3837  1.0494
44640SOL     OW42697   7.183  10.061   0.948 -0.1915 -0.0650  0.0391
44640SOL    HW142698   7.168  10.154   0.933 -1.8539 -0.1916  0.7156
44640SOL    HW242699   7.230  10.057   1.032  1.0776  0.2038 -0.6393
44641SOL     OW42700   7.161   9.038   3.211 -0.6730 -0.1088 -0.4735
44641SOL    HW142701   7.253   9.035   3.183 -1.0475  1.0179 -1.9552
44641SOL    HW242702   7.157   9.112   3.272 -1.1624  2.0751 -2.9715
44642SOL     OW42703  11.666   6.011   3.204 -0.0351  0.4577 -0.2879
44642SOL    HW142704  11.757   5.990   3.222  0.0421  0.5968 -0.5077
44642SOL    HW242705  11.668   6.100   3.168 -0.4030  1.0226  1.0390
44643SOL     OW42706   0.285  10.556   1.306  0.4906 -0.0784  0.3756
44643SOL    HW142707   0.218  10.586   1.246  1.4266 -0.5018 -0.9163
44643SOL    HW242708   0.240  10.548   1.390 -1.8856 -3.2736 -1.0150
44644SOL     OW42709   3.576   1.591   0.689 -0.4064  0.0853 -0.3231
44644SOL    HW142710   3.564   1.497   0.698 -0.3443  0.0427 -0.6697
44644SOL    HW242711   3.487   1.626   0.681 -0.4344  0.0688 -0.0915
44645SOL     OW42712   9.881  12.023   3.137  0.2417 -0.1035 -0.1832
44645SOL    HW142713   9.811  12.065   3.187 -1.3960 -1.6192 -1.0972
44645SOL    HW242714   9.920  11.960   3.199  2.1926  2.0470  0.9414
44646SOL     OW42715  10.791   3.466   0.628 -0.4554 -0.4486  0.8039
44646SOL    HW142716  10.753   3.440   0.544  0.3027  1.4798 -0.2008
44646SOL    HW242717  10.867   3.409   0.638  1.2284  1.2164 -1.3790
44647SOL     OW42718   7.294  11.484   9.996  0.0937 -0.1084 -0.0963
44647SOL    HW142719   7.351  11.488  10.073  0.6604 -2.0951 -0.3362
44647SOL    HW242720   7.216  11.438  10.026 -1.1753  2.0618  0.0724
44648SOL     OW42721  12.243   8.684  12.198  1.0251 -0.4068 -0.0946
44648SOL    HW142722  12.295   8.757  12.165  1.2759 -0.7936 -0.5682
44648SOL    HW242723  12.189   8.722  12.268  1.9180  0.0114  0.3845
44649SOL     OW42724   2.344   6.742   3.063  0.2140 -1.2211  0.3934
44649SOL    HW142725   2.434   6.774   3.050 -0.3747  0.0840 -0.6180
44649SOL    HW242726   2.289   6.811   3.028 -1.2807 -1.1226  2.7190
44650SOL     OW42727  10.096   2.426  12.597 -0.0687 -0.3782  0.0302
44650SOL    HW142728  10.045   2.362  12.646 -1.0629 -0.0148 -0.4911
44650SOL    HW242729  10.088   2.397  12.505 -0.2823  0.3106 -0.1738
44651SOL     OW42730   4.750  10.708   0.526  0.9706  0.0403 -0.3910
44651SOL    HW142731   4.789  10.727   0.440 -2.1686 -2.0371 -2.5034
44651SOL    HW242732   4.784  10.622   0.550  1.1049  0.1993 -0.0036
44652SOL     OW42733   2.698   7.752   3.366  0.1687 -0.6528 -0.3967
44652SOL    HW142734   2.605   7.740   3.348  0.1438 -0.2960 -0.5141
44652SOL    HW242735   2.742   7.702   3.297  0.0798 -2.8283  1.0287
44653SOL     OW42736   7.043   6.994   9.179  0.2836  0.1405 -0.3479
44653SOL    HW142737   7.107   6.935   9.140  0.0568 -0.0830 -0.3908
44653SOL    HW242738   6.959   6.949   9.168  0.4018 -0.8781  2.1328
44654SOL     OW42739   1.731  11.736   9.448 -1.0643 -0.3930  0.0858
44654SOL    HW142740   1.722  11.730   9.353 -1.4763 -1.2821  0.1765
44654SOL    HW242741   1.651  11.697   9.483 -1.0380  0.1615  0.8025
44655SOL     OW42742   5.614   5.403   8.809  0.4991 -0.4697  0.2147
44655SOL    HW142743   5.705   5.410   8.780  0.4375 -0.0067  0.1106
44655SOL    HW242744   5.610   5.453   8.890  0.3060 -0.3525  0.1358
44656SOL     OW42745   2.332   4.902   2.566 -0.2278  0.1341 -0.3598
44656SOL    HW142746   2.281   4.973   2.526 -0.7683 -0.1487 -0.1786
44656SOL    HW242747   2.423   4.926   2.548 -0.3692  1.2450  0.3240
44657SOL     OW42748   3.035   7.843   0.228  0.4218 -0.2757  0.2352
44657SOL    HW142749   3.097   7.900   0.273  0.6835 -0.6014  0.2893
44657SOL    HW242750   2.958   7.841   0.285  0.8240 -0.8401  0.7639
44658SOL     OW42751   0.804  10.494   1.077 -0.4617 -0.7833 -0.5144
44658SOL    HW142752   0.867  10.563   1.097 -1.1840 -0.1865 -0.2275
44658SOL    HW242753   0.722  10.525   1.115 -1.1286 -1.1339 -1.6150
44659SOL     OW42754   2.862   6.631   7.207 -0.0081  0.1457  0.4270
44659SOL    HW142755   2.936   6.594   7.255  0.0971 -0.8513 -0.4679
44659SOL    HW242756   2.879   6.609   7.116 -2.6357 -2.4217  0.4161
44660SOL     OW42757   0.982   5.972   5.795 -0.0257  0.3441  0.1663
44660SOL    HW142758   0.960   6.038   5.730 -3.1249 -0.3720  0.3006
44660SOL    HW242759   0.981   5.889   5.747 -0.9850 -0.0490  0.8232
44661SOL     OW42760   8.409  12.554   9.199 -0.3260  0.5901 -0.1799
44661SOL    HW142761   8.329  12.562   9.251 -0.7334  0.9399 -0.8571
44661SOL    HW242762   8.431  12.644   9.175 -1.0716  0.3309 -1.9917
44662SOL     OW42763   9.577   9.351   9.845  0.0218 -0.4112 -0.0879
44662SOL    HW142764   9.659   9.301   9.847 -0.2325 -0.9068 -1.2130
44662SOL    HW242765   9.605   9.442   9.837  0.5089 -0.7097 -2.5861
44663SOL     OW42766   7.660   0.740   7.360  0.0672 -0.3743  0.6864
44663SOL    HW142767   7.740   0.793   7.359 -1.8764  2.9485 -1.8223
44663SOL    HW242768   7.614   0.767   7.439 -0.1868  0.5698  0.2333
44664SOL     OW42769   8.379   5.330   7.373  0.4958  0.5420  0.0392
44664SOL    HW142770   8.410   5.406   7.422 -1.4048  0.3669  1.6413
44664SOL    HW242771   8.384   5.357   7.282  0.8470  2.1977  0.5118
44665SOL     OW42772   1.743   9.321   3.329  0.5253 -0.5142  0.3979
44665SOL    HW142773   1.674   9.258   3.352 -0.0031  0.1078  0.5506
44665SOL    HW242774   1.702   9.407   3.342 -0.0796 -0.0250 -3.3942
44666SOL     OW42775  11.782   1.541   6.735  0.2997 -0.6277 -0.6605
44666SOL    HW142776  11.848   1.500   6.679  0.4842  0.6865 -1.4442
44666SOL    HW242777  11.832   1.599   6.792  0.1139 -1.9509  0.9243
44667SOL     OW42778  12.188   5.456   1.861  0.2171 -0.2511  0.4648
44667SOL    HW142779  12.162   5.540   1.824  4.2707  2.4030  2.8888
44667SOL    HW242780  12.284   5.454   1.853  0.5017 -3.6455  2.4873
44668SOL     OW42781   8.197  10.610   0.451 -0.2264  0.4290  0.1938
44668SOL    HW142782   8.248  10.587   0.373 -0.6348 -0.2063  0.1126
44668SOL    HW242783   8.225  10.699   0.472  0.2363  0.4286 -0.3983
44669SOL     OW42784  12.140   5.329   3.438  0.2488 -0.0691  0.1008
44669SOL    HW142785  12.230   5.300   3.427  1.0032  1.3465  1.9236
44669SOL    HW242786  12.132   5.404   3.379  1.0066  1.1606  1.5028
44670SOL     OW42787  12.529   3.598   1.697 -0.2837 -0.1832  0.0015
44670SOL    HW142788  12.607   3.651   1.714 -0.4638  0.0535  0.0892
44670SOL    HW242789  12.521   3.596   1.602 -1.7130  2.0649  0.0069
44671SOL     OW42790   0.491  12.198  10.106  0.1990  0.2175 -0.5503
44671SOL    HW142791   0.474  12.161  10.020 -1.2636  2.7589 -1.4834
44671SOL    HW242792   0.418  12.259  10.120 -0.1887 -0.8493  2.9908
44672SOL     OW42793  10.014  11.684   8.558  0.3112 -1.0797 -0.0615
44672SOL    HW142794  10.066  11.635   8.622  0.2600  1.1270  1.7895
44672SOL    HW242795  10.073  11.695   8.483  1.2883 -1.5490  0.6180
44673SOL     OW42796   1.142   4.283   5.652 -0.1646  0.9699  0.3770
44673SOL    HW142797   1.074   4.335   5.608  0.6643  2.1944  0.5081
44673SOL    HW242798   1.210   4.273   5.586  1.0870  2.8140  1.3176
44674SOL     OW42799   3.005   1.100  10.609  0.4800 -0.0689 -0.2256
44674SOL    HW142800   3.021   1.054  10.526  1.0476  1.4938 -1.0074
44674SOL    HW242801   2.920   1.067  10.638 -0.7585  0.8987 -2.5155
44675SOL     OW42802   6.440  10.316  10.029  0.3764  0.0421 -0.4682
44675SOL    HW142803   6.378  10.374   9.985  1.3554 -0.7934 -3.2001
44675SOL    HW242804   6.417  10.229   9.998  1.0802 -0.6199  0.8116
44676SOL     OW42805   1.982  12.544   1.521  0.1748 -1.1360  0.0637
44676SOL    HW142806   1.968  12.515   1.431  1.0640 -0.3326 -0.3442
44676SOL    HW242807   1.941  12.631   1.525  0.5047 -0.9895  0.3180
44677SOL     OW42808  11.316   4.912   4.405  0.1998  0.5038 -0.6584
44677SOL    HW142809  11.289   5.003   4.400  0.1692  0.5144 -0.3328
44677SOL    HW242810  11.412   4.915   4.412  0.5017  0.4082 -3.6636
44678SOL     OW42811   3.307   9.448   0.018  0.0410  0.1597  0.1221
44678SOL    HW142812   3.290   9.386  -0.053 -1.4888  0.4631  0.1805
44678SOL    HW242813   3.272   9.531  -0.014  0.7817  0.6717  0.6095
44679SOL     OW42814   0.767   3.082   9.606  0.4433 -0.3818  0.3163
44679SOL    HW142815   0.776   2.987   9.597  1.3201 -0.2929  0.1478
44679SOL    HW242816   0.838   3.117   9.551  0.1458  0.3648  0.4080
44680SOL     OW42817   8.148   8.238  12.243  0.5387 -0.1802 -0.2177
44680SOL    HW142818   8.089   8.307  12.273 -0.5630  0.5570 -3.5592
44680SOL    HW242819   8.236   8.274  12.256  0.0117  1.5563 -1.0578
44681SOL     OW42820   8.638  11.870   4.176 -0.4557  0.0504 -0.2616
44681SOL    HW142821   8.603  11.926   4.106  0.8153  2.7453  1.1282
44681SOL    HW242822   8.686  11.930   4.233  2.6898 -2.7312  0.3184
44682SOL     OW42823  11.769   3.084   5.704 -0.0244 -0.1179  0.0736
44682SOL    HW142824  11.798   3.098   5.614  0.5996  0.2143  0.3192
44682SOL    HW242825  11.683   3.125   5.709 -0.0939 -0.2063 -0.3892
44683SOL     OW42826   2.376  10.448   7.481 -0.2390 -0.1853 -0.3536
44683SOL    HW142827   2.359  10.504   7.405  0.4308  1.2005  0.4585
44683SOL    HW242828   2.371  10.509   7.556  1.7148 -0.9787  0.4683
44684SOL     OW42829   7.703  11.057  12.371  0.2804  0.6494 -0.9086
44684SOL    HW142830   7.607  11.064  12.369  0.3368  1.4352 -3.2560
44684SOL    HW242831   7.719  10.975  12.417 -1.5935 -0.3218 -1.8439
44685SOL     OW42832   7.730   7.612   7.995  0.1749  0.0877 -0.1075
44685SOL    HW142833   7.733   7.684   7.932  1.8783  0.4883  0.3819
44685SOL    HW242834   7.656   7.634   8.053  0.8818  1.6662  0.2590
44686SOL     OW42835   6.066  10.922  12.443  0.5659  0.2524 -0.6457
44686SOL    HW142836   6.075  10.896  12.352  0.6293  0.9144 -0.8294
44686SOL    HW242837   6.061  11.017  12.441  0.4824  0.2684  0.0341
44687SOL     OW42838   3.218  10.476   8.361  0.1491 -0.1768 -0.1781
44687SOL    HW142839   3.241  10.441   8.447  1.2913 -1.0552 -0.8242
44687SOL    HW242840   3.301  10.503   8.322 -0.3950  0.5590 -0.8730
44688SOL     OW42841   9.777   5.234   3.587 -0.0658  0.0051  0.1739
44688SOL    HW142842   9.735   5.319   3.604 -0.3659 -0.0368 -0.3278
44688SOL    HW242843   9.820   5.211   3.669 -0.9958  0.0793  0.6943
44689SOL     OW42844   9.994   3.224   9.537  0.0668  0.2604 -0.3103
44689SOL    HW142845   9.973   3.257   9.624 -0.2526 -0.7152 -0.0038
44689SOL    HW242846  10.016   3.302   9.486 -2.2156  1.1489 -0.0550
44690SOL     OW42847   3.955   8.629   5.518 -0.1444  0.1293  0.6555
44690SOL    HW142848   4.019   8.700   5.521  0.7833 -0.6584 -0.1505
44690SOL    HW242849   3.953   8.602   5.426 -1.1841 -0.2767  0.7823
44691SOL     OW42850   7.095   6.830  12.079  0.4090  0.3523 -0.5733
44691SOL    HW142851   7.026   6.896  12.067  0.9205  1.2297  0.9377
44691SOL    HW242852   7.168   6.861  12.026  0.3867  0.6105 -0.4555
44692SOL     OW42853   7.420   7.030   3.461 -0.1943 -0.0678  0.0828
44692SOL    HW142854   7.407   7.045   3.367 -0.2190  1.2859  0.2807
44692SOL    HW242855   7.341   6.983   3.488 -0.1784 -0.4906 -0.5705
44693SOL     OW42856   0.357   6.472   6.498 -0.1198  0.1662 -0.2749
44693SOL    HW142857   0.299   6.455   6.424 -0.0637  1.0890 -0.5374
44693SOL    HW242858   0.401   6.554   6.476 -1.2660  1.3049  1.4783
44694SOL     OW42859  12.487   6.082   8.150 -0.4386  0.2785  0.3496
44694SOL    HW142860  12.543   6.017   8.108  0.6057  1.2416  0.2076
44694SOL    HW242861  12.410   6.087   8.093  0.2961  0.4931 -0.6639
44695SOL     OW42862   0.327  10.143   8.682  0.1658  0.2662  0.6899
44695SOL    HW142863   0.339  10.126   8.588 -1.7840  0.7613  0.2981
44695SOL    HW242864   0.276  10.069   8.714 -0.3082  0.7445  1.0579
44696SOL     OW42865  10.925  11.288   3.250 -0.1252  0.3889  0.6759
44696SOL    HW142866  10.995  11.341   3.213  0.6846 -0.7241  0.5633
44696SOL    HW242867  10.889  11.239   3.176 -0.7315  0.6068  0.8140
44697SOL     OW42868  11.520   2.089   2.934  0.5325 -0.0544 -0.1449
44697SOL    HW142869  11.601   2.071   2.982  0.1916  0.0813  0.4987
44697SOL    HW242870  11.452   2.086   3.001  0.0355  0.1074 -0.6341
44698SOL     OW42871   7.255   7.882   9.757  0.0401 -0.4869  0.4449
44698SOL    HW142872   7.185   7.873   9.693  0.1004 -2.7174  0.6112
44698SOL    HW242873   7.333   7.848   9.714  0.5899  0.1262  0.9311
44699SOL     OW42874   6.499  10.279   7.166 -0.0774 -0.1410 -0.1812
44699SOL    HW142875   6.554  10.334   7.221 -0.5969 -0.3103  0.5243
44699SOL    HW242876   6.529  10.190   7.183 -0.3704 -0.2102 -0.0062
44700SOL     OW42877   4.030   0.368  10.155  0.1932 -0.3003  0.3798
44700SOL    HW142878   4.005   0.289  10.108 -0.0501  1.6792 -3.1128
44700SOL    HW242879   4.089   0.336  10.224  0.2790 -3.4720 -0.9753
44701SOL     OW42880  12.281  11.289   5.110 -0.0263  0.0768 -0.1070
44701SOL    HW142881  12.313  11.344   5.182 -0.8986  0.8609 -0.2889
44701SOL    HW242882  12.258  11.352   5.041  0.2337 -0.6217 -0.8423
44702SOL     OW42883   2.448   0.614   9.927  0.2379  0.3254 -0.6426
44702SOL    HW142884   2.533   0.571   9.928 -0.9690 -2.2545 -1.2621
44702SOL    HW242885   2.393   0.560   9.984 -1.2121  1.4196 -0.9515
44703SOL     OW42886   5.655  10.793   3.046  0.5128  0.2945 -0.3691
44703SOL    HW142887   5.653  10.782   2.951 -1.8354 -1.1535 -0.2262
44703SOL    HW242888   5.659  10.704   3.081  0.0653  0.7347  0.8830
44704SOL     OW42889   2.648   9.983   0.337 -0.2009 -0.0591 -0.4722
44704SOL    HW142890   2.610   9.992   0.424 -0.0063  1.9130 -0.5435
44704SOL    HW242891   2.697  10.065   0.324 -0.2330 -0.3131 -2.4258
44705SOL     OW42892  10.503   7.549   1.871 -0.1216 -0.2541  0.2670
44705SOL    HW142893  10.493   7.588   1.958  0.0087 -0.5706  0.4285
44705SOL    HW242894  10.558   7.610   1.823 -0.7253  0.2415  0.1969
44706SOL     OW42895   2.817   5.346   8.506 -0.0624 -0.6785  0.1260
44706SOL    HW142896   2.785   5.345   8.415 -0.8083  0.9704  0.3451
44706SOL    HW242897   2.764   5.280   8.550 -1.3321  0.1254 -0.1373
44707SOL     OW42898   3.491   4.907   1.252 -0.2895  0.0702 -0.4221
44707SOL    HW142899   3.483   4.977   1.317  0.0289 -0.0316 -0.2694
44707SOL    HW242900   3.441   4.834   1.289 -3.1135  1.1061 -1.8974
44708SOL     OW42901  12.518   0.816  10.341  0.1265 -0.3507 -0.1487
44708SOL    HW142902  12.517   0.783  10.251 -0.6349 -1.6042  0.2872
44708SOL    HW242903  12.565   0.748  10.390  0.7958  0.4633  0.3565
44709SOL     OW42904   2.245   1.068   4.085 -0.5252 -0.5765 -0.3012
44709SOL    HW142905   2.332   1.100   4.060 -0.2855 -1.1643 -0.2538
44709SOL    HW242906   2.189   1.145   4.082 -0.1168 -0.2905 -0.8710
44710SOL     OW42907   0.257   8.196   5.713 -0.1733 -0.5014 -0.8991
44710SOL    HW142908   0.301   8.242   5.642  2.2635  1.1458  1.4792
44710SOL    HW242909   0.164   8.219   5.703  0.6365  3.3150 -1.1293
44711SOL     OW42910   0.611   2.219   7.194  0.0191  0.0447  0.1413
44711SOL    HW142911   0.613   2.288   7.260 -2.0246  1.4021 -1.0712
44711SOL    HW242912   0.549   2.252   7.128 -1.2894 -3.0794 -0.3469
44712SOL     OW42913   5.991   4.856   7.551 -0.0295  0.9446  0.1910
44712SOL    HW142914   6.024   4.781   7.503 -0.5797  1.1696 -0.5602
44712SOL    HW242915   5.970   4.822   7.638 -3.5213 -0.6765 -1.0815
44713SOL     OW42916  11.134  11.492  10.397  0.3867 -0.3574  0.6660
44713SOL    HW142917  11.162  11.441  10.473 -1.4267  0.0557  1.6703
44713SOL    HW242918  11.039  11.498  10.405  0.1001 -0.4125 -1.7341
44714SOL     OW42919   5.863   0.858  10.285  0.2989 -0.3318 -0.6002
44714SOL    HW142920   5.836   0.863  10.377  1.5860 -0.2839 -0.2103
44714SOL    HW242921   5.881   0.949  10.261  1.9555 -0.5517 -0.2684
44715SOL     OW42922   5.414   3.430   5.294 -0.4360 -0.2863  0.1186
44715SOL    HW142923   5.329   3.387   5.299 -0.4858 -0.1021  0.9365
44715SOL    HW242924   5.410   3.499   5.360  0.3975 -0.3601  0.2554
44716SOL     OW42925   6.964   9.663  12.381 -0.4761 -0.1537  0.8743
44716SOL    HW142926   7.013   9.621  12.451 -0.4061 -1.0241  0.3161
44716SOL    HW242927   6.927   9.590  12.330 -2.1143  0.4532  1.1110
44717SOL     OW42928   2.762   1.567  11.500 -0.2876 -0.1549 -0.1528
44717SOL    HW142929   2.772   1.621  11.579  0.8796  0.4289 -0.6624
44717SOL    HW242930   2.671   1.537  11.502 -0.6512  0.9376  0.7284
44718SOL     OW42931   4.915   9.577   7.880 -0.2945  0.3228 -0.0754
44718SOL    HW142932   4.862   9.530   7.945  2.4937 -0.0436  2.1172
44718SOL    HW242933   4.949   9.509   7.822 -0.3113  0.2574 -0.0087
44719SOL     OW42934   4.863   3.809   6.193  0.2377 -0.0748 -0.0580
44719SOL    HW142935   4.929   3.788   6.126  0.5794  0.4400  0.1109
44719SOL    HW242936   4.885   3.752   6.266  0.2422 -0.2051 -0.1616
44720SOL     OW42937  11.647  11.424  11.823  0.0605 -0.0689  0.3629
44720SOL    HW142938  11.602  11.509  11.824 -0.6678 -0.4279 -0.3801
44720SOL    HW242939  11.734  11.442  11.858  0.0104  1.0361 -0.0630
44721SOL     OW42940  12.430   1.604  11.987 -0.0424 -0.0832 -0.2709
44721SOL    HW142941  12.484   1.580  12.062 -1.6230 -0.3245  0.8407
44721SOL    HW242942  12.340   1.601  12.020 -0.6422  3.7252 -1.0185
44722SOL     OW42943  10.852   0.237   0.582  0.3101  0.0640 -0.0164
44722SOL    HW142944  10.763   0.264   0.606  0.0484  0.8868 -1.7641
44722SOL    HW242945  10.860   0.148   0.615 -1.7049 -0.5739 -1.1211
44723SOL     OW42946   8.490   8.425  12.502 -0.4359  0.4598 -0.3436
44723SOL    HW142947   8.548   8.497  12.478 -0.2194  0.9157  1.4271
44723SOL    HW242948   8.425   8.465  12.560 -0.6869 -0.6560  0.1666
44724SOL     OW42949   4.925   4.847   9.608 -0.0238  0.4535  0.4136
44724SOL    HW142950   4.960   4.820   9.693 -1.7505  0.7195  1.2475
44724SOL    HW242951   4.985   4.915   9.579  0.3545  0.6745  1.6285
44725SOL     OW42952   2.605   9.567   4.982  0.0046 -0.4217  0.1733
44725SOL    HW142953   2.527   9.617   5.003 -0.2516 -0.6849 -0.1335
44725SOL    HW242954   2.602   9.556   4.887  1.8966  1.9965 -0.2741
44726SOL     OW42955   0.009  12.229  11.373  0.2179  0.0597  0.3856
44726SOL    HW142956  -0.060  12.280  11.417 -0.4504 -0.9921  0.5996
44726SOL    HW242957   0.091  12.271  11.400 -0.2530  0.2871  1.5452
44727SOL     OW42958   0.843   8.146   0.298  0.4644  0.2061 -0.4558
44727SOL    HW142959   0.932   8.111   0.306  0.2626 -0.3538 -0.6077
44727SOL    HW242960   0.786   8.073   0.323  0.0477  0.5787 -0.3056
44728SOL     OW42961   0.449  12.518   4.425  0.3202 -0.0155 -0.6965
44728SOL    HW142962   0.381  12.478   4.371 -1.8921 -0.2993  2.0400
44728SOL    HW242963   0.531  12.483   4.391 -0.9879 -0.9100 -3.1611
44729SOL     OW42964   8.020   1.480   0.391  0.1825 -0.0114  0.0112
44729SOL    HW142965   8.008   1.574   0.376 -1.4796 -0.3939 -1.4301
44729SOL    HW242966   8.007   1.441   0.305 -0.4447 -1.6636  0.8268
44730SOL     OW42967  12.029   5.117   5.115 -0.3027 -0.5749  0.1501
44730SOL    HW142968  12.026   5.206   5.082  0.3117 -0.4246  0.4901
44730SOL    HW242969  11.937   5.090   5.118 -0.3817 -0.6526 -1.7831
44731SOL     OW42970   8.697   7.432   3.320  0.0248  0.0102 -0.0356
44731SOL    HW142971   8.639   7.391   3.383 -1.7380  1.9474 -0.2555
44731SOL    HW242972   8.647   7.432   3.238  0.6515  0.9781 -0.4446
44732SOL     OW42973   4.330   8.163   1.025  0.3251  0.0247  0.2132
44732SOL    HW142974   4.292   8.087   0.981 -0.0862  0.5390 -0.3464
44732SOL    HW242975   4.422   8.142   1.035 -0.1882 -1.6049  2.3251
44733SOL     OW42976   3.369   0.331   2.666 -0.0317 -0.0326 -0.3933
44733SOL    HW142977   3.306   0.306   2.734 -0.2957  0.4846 -0.4357
44733SOL    HW242978   3.325   0.311   2.583 -0.4384  0.9630 -0.4389
44734SOL     OW42979   2.157   5.908   1.212 -0.1453  0.2727 -0.7352
44734SOL    HW142980   2.144   5.992   1.168 -1.2902 -0.5642 -2.0871
44734SOL    HW242981   2.231   5.869   1.165 -0.4301 -0.0039 -0.9580
44735SOL     OW42982   0.216   2.083   8.744  0.4844  0.1630 -0.3208
44735SOL    HW142983   0.208   2.171   8.782  1.3543 -0.7016  2.0424
44735SOL    HW242984   0.310   2.065   8.744  0.3824 -0.4995 -1.5191
44736SOL     OW42985   1.072   6.998   4.533  0.1538  0.3562  0.2143
44736SOL    HW142986   1.027   6.922   4.495 -1.3745  0.6965  1.2268
44736SOL    HW242987   1.141   7.019   4.470  0.8121 -2.0283  0.0505
44737SOL     OW42988   0.563   9.951   5.660 -0.0661  0.4228 -0.1729
44737SOL    HW142989   0.631   9.976   5.722  0.6907 -2.1029  0.1532
44737SOL    HW242990   0.595   9.870   5.621 -2.6651 -0.6496 -0.3278
44738SOL     OW42991   6.233   6.252   9.844 -0.0222 -0.0118  0.4552
44738SOL    HW142992   6.142   6.282   9.841 -0.5387 -1.5065 -1.1541
44738SOL    HW242993   6.268   6.275   9.758  0.6312 -0.7882  0.5010
44739SOL     OW42994   1.613   2.482  11.858 -0.3337 -0.9865 -0.6554
44739SOL    HW142995   1.569   2.544  11.917  1.1554 -0.6168  0.1455
44739SOL    HW242996   1.563   2.485  11.777 -0.6018  0.9200 -0.4677
44740SOL     OW42997   7.580   4.145  12.100  0.3490  0.2977  0.2543
44740SOL    HW142998   7.588   4.193  12.017 -0.0081  0.3610  0.2543
44740SOL    HW242999   7.499   4.178  12.139  1.1019  1.1101  1.1755
44741SOL     OW43000   4.842  12.391  12.365  0.3900  0.3248  0.1287
44741SOL    HW143001   4.904  12.455  12.400  0.5875 -0.2193  0.7973
44741SOL    HW243002   4.756  12.427  12.384  0.4848  1.1429 -0.9073
44742SOL     OW43003   1.950  10.898   1.703  0.0213  0.1316  0.4700
44742SOL    HW143004   1.933  10.822   1.760 -1.5126 -0.2232 -0.3917
44742SOL    HW243005   2.033  10.879   1.661 -0.3124 -1.0699  0.3121
44743SOL     OW43006   5.791   5.613   1.684 -0.3010 -0.2466  0.1801
44743SOL    HW143007   5.877   5.604   1.724 -0.1972 -0.8627 -0.1736
44743SOL    HW243008   5.761   5.700   1.711  1.5269  1.0787 -1.7962
44744SOL     OW43009   7.501   0.788   4.679 -0.3134  0.0356 -0.2105
44744SOL    HW143010   7.446   0.807   4.755 -1.4377  2.2337 -1.4788
44744SOL    HW243011   7.573   0.850   4.685 -0.3793  0.1891 -0.8993
44745SOL     OW43012   1.154   3.061  12.279  0.0303  0.5641  0.2600
44745SOL    HW143013   1.201   3.109  12.347  2.2010 -2.5564  1.1621
44745SOL    HW243014   1.065   3.050  12.315  0.5279  0.8070  1.6190
44746SOL     OW43015  11.453   2.864   5.431  0.2341  0.3434  0.2853
44746SOL    HW143016  11.385   2.911   5.384  0.1393  0.1920  0.2710
44746SOL    HW243017  11.534   2.887   5.386 -0.1216 -2.0534 -1.8367
44747SOL     OW43018   6.657   5.176   9.991  0.0535 -0.0811  0.2153
44747SOL    HW143019   6.664   5.081   9.981 -0.1679 -0.0570 -0.1897
44747SOL    HW243020   6.729   5.211   9.938  1.0365 -0.0642  1.5161
44748SOL     OW43021   8.632   6.534  10.856 -0.3611 -0.3247 -0.0998
44748SOL    HW143022   8.724   6.510  10.865 -0.2744 -0.2578 -0.7510
44748SOL    HW243023   8.633   6.624  10.824 -0.6372 -0.4950 -0.6128
44749SOL     OW43024   2.677   2.659   3.068 -0.3782  0.1611  0.0552
44749SOL    HW143025   2.630   2.733   3.029 -1.0730  0.0072  0.5741
44749SOL    HW243026   2.708   2.607   2.993 -1.4199  0.0316 -0.3002
44750SOL     OW43027   2.684   3.752   0.910  0.4717  0.2593 -0.2579
44750SOL    HW143028   2.771   3.732   0.877  1.4271  1.2190  1.5417
44750SOL    HW243029   2.654   3.670   0.949  0.8112  0.0660 -0.4000
44751SOL     OW43030  12.612   8.704   0.174 -0.4170 -0.5826  0.1452
44751SOL    HW143031  12.633   8.772   0.111 -0.8795  0.1159  0.7224
44751SOL    HW243032  12.568   8.636   0.123 -1.2727  0.2114 -0.2016
44752SOL     OW43033   1.794  10.096   6.875  0.6609  0.0049 -0.0337
44752SOL    HW143034   1.818  10.020   6.927 -0.8703 -0.9935 -0.7148
44752SOL    HW243035   1.782  10.166   6.939  1.3866 -0.5140  0.6749
44753SOL     OW43036   3.241  11.083   8.515 -0.4430 -0.2738 -0.2310
44753SOL    HW143037   3.295  11.025   8.461  1.0564 -1.0712  1.9697
44753SOL    HW243038   3.297  11.159   8.530 -1.4539  0.6578 -1.0425
44754SOL     OW43039   4.607   9.819   0.709  0.3926 -0.3151  0.1290
44754SOL    HW143040   4.629   9.815   0.616 -1.9811 -2.7857 -0.4497
44754SOL    HW243041   4.613   9.911   0.732  2.1720  0.2173 -2.1300
44755SOL     OW43042   6.524  11.919   8.274 -0.2891  0.2566  0.0500
44755SOL    HW143043   6.473  11.895   8.196  0.7275 -2.7369  0.1787
44755SOL    HW243044   6.614  11.928   8.242 -0.0061 -0.0850  0.7373
44756SOL     OW43045   5.311  10.212   9.850 -0.0442  0.1510  0.1321
44756SOL    HW143046   5.324  10.260   9.932 -0.1535  1.6890 -0.7286
44756SOL    HW243047   5.229  10.245   9.815  0.0116 -0.4765 -0.6169
44757SOL     OW43048   8.558   4.731   0.636 -0.9328 -0.5289 -0.2754
44757SOL    HW143049   8.563   4.655   0.694  0.7856 -0.7282 -0.6160
44757SOL    HW243050   8.486   4.712   0.576 -1.0918 -1.4678  0.1989
44758SOL     OW43051   3.949   2.531   1.852  0.4524 -0.6192  0.0996
44758SOL    HW143052   3.866   2.575   1.831 -0.1532 -1.3007  1.0183
44758SOL    HW243053   3.982   2.502   1.767  0.3478  0.6725 -0.4098
44759SOL     OW43054   8.454   8.090   2.950 -0.0506 -0.9530  0.4871
44759SOL    HW143055   8.515   8.047   3.009  1.5148 -0.3710 -0.6432
44759SOL    HW243056   8.457   8.182   2.975  1.6410 -0.4596 -1.2305
44760SOL     OW43057  10.254  12.453   5.421  0.1967 -0.1637 -0.1427
44760SOL    HW143058  10.245  12.540   5.460 -0.4675 -1.2109  2.1958
44760SOL    HW243059  10.345  12.451   5.390  1.1324  0.4328  2.3030
44761SOL     OW43060  10.127   1.757   4.590  0.0107  0.0544  0.2302
44761SOL    HW143061  10.175   1.725   4.513 -0.5420 -0.4192  0.0759
44761SOL    HW243062  10.073   1.683   4.617 -0.9848  0.7323  0.1140
44762SOL     OW43063   6.030  10.806   3.495  0.0979 -0.0878 -0.4138
44762SOL    HW143064   5.971  10.730   3.496  0.9017 -0.7321 -0.6552
44762SOL    HW243065   5.992  10.866   3.558 -3.0966  1.3215 -3.3670
44763SOL     OW43066   8.956   0.727   0.056 -0.3382 -0.4842 -0.4525
44763SOL    HW143067   9.036   0.725   0.004 -0.5067 -2.3648 -0.7199
44763SOL    HW243068   8.886   0.738  -0.009 -0.6107 -3.6004 -0.8397
44764SOL     OW43069  11.807  11.328   2.087 -0.1777 -0.0731 -0.2424
44764SOL    HW143070  11.779  11.334   1.996  0.9868  0.0421 -0.6161
44764SOL    HW243071  11.770  11.405   2.129 -1.3437 -0.5137 -0.4342
44765SOL     OW43072   0.661  10.035   0.777 -0.4367  0.4737 -0.3262
44765SOL    HW143073   0.719  10.101   0.738  1.6074 -1.4277 -0.6836
44765SOL    HW243074   0.657   9.965   0.713  0.2527 -1.2453  1.4112
44766SOL     OW43075   0.040   6.622   9.836 -0.2010 -0.4056  0.1880
44766SOL    HW143076   0.009   6.546   9.787  0.7836 -0.8812  0.2882
44766SOL    HW243077   0.135   6.614   9.836  0.1472  2.1022 -1.9148
44767SOL     OW43078  11.547   7.287   7.433 -0.0452  0.0799  0.3208
44767SOL    HW143079  11.604   7.236   7.374 -0.3143  1.7665 -1.5104
44767SOL    HW243080  11.608   7.336   7.488  0.2188 -0.7111  0.7531
44768SOL     OW43081   0.623   6.621  10.227  0.0932 -0.5326  0.1461
44768SOL    HW143082   0.576   6.574  10.158 -1.7986 -1.0852  1.7087
44768SOL    HW243083   0.679   6.683  10.180  0.4707 -2.2972 -1.9204
44769SOL     OW43084  10.284   7.742   7.059 -0.5314  0.0294  0.5355
44769SOL    HW143085  10.275   7.836   7.071 -1.7790  0.1066 -0.7938
44769SOL    HW243086  10.304   7.731   6.966 -2.9510 -1.1133  0.0779
44770SOL     OW43087   2.463   9.542  10.361  0.0111  0.1971 -0.1573
44770SOL    HW143088   2.397   9.518  10.426  0.7092 -1.5682 -0.0542
44770SOL    HW243089   2.462   9.638  10.362 -1.2474  0.2223  1.1580
44771SOL     OW43090   5.190   5.432   6.271  0.1902 -0.4223  0.0379
44771SOL    HW143091   5.147   5.508   6.310 -0.4241  0.9836 -3.1035
44771SOL    HW243092   5.142   5.357   6.306 -2.4359  0.9162 -0.4394
44772SOL     OW43093   7.194   4.763   2.443 -0.3181 -0.1962  0.2805
44772SOL    HW143094   7.171   4.855   2.459 -0.5539 -0.1195 -0.4609
44772SOL    HW243095   7.245   4.765   2.362 -2.1463 -0.9383 -0.9500
44773SOL     OW43096   1.558   1.759   7.898  0.0440 -0.0947  0.2840
44773SOL    HW143097   1.530   1.827   7.837  0.1871 -0.7040 -0.4658
44773SOL    HW243098   1.597   1.692   7.843  0.6985 -0.3906  1.1023
44774SOL     OW43099   4.254   0.859   5.966 -0.5239  0.1942 -0.3686
44774SOL    HW143100   4.165   0.842   5.933 -0.7600  0.9330 -0.1352
44774SOL    HW243101   4.245   0.938   6.020  0.1294 -0.1769  0.3028
44775SOL     OW43102  12.507  10.689   0.223  0.3491 -0.2006 -0.3421
44775SOL    HW143103  12.472  10.721   0.305  0.6824  0.0307 -0.2853
44775SOL    HW243104  12.569  10.757   0.195  0.4989 -0.4406 -0.6035
44776SOL     OW43105   3.954   4.806   1.859 -0.1177 -0.2459  0.0594
44776SOL    HW143106   3.944   4.734   1.796  0.5688  0.6389 -1.0887
44776SOL    HW243107   4.047   4.806   1.881  0.3345  1.6349 -1.6270
44777SOL     OW43108   9.692  11.880   5.098  0.5351 -0.1544 -0.3534
44777SOL    HW143109   9.776  11.835   5.105  0.3693 -0.9978 -2.8332
44777SOL    HW243110   9.706  11.963   5.143  2.9397  0.0343 -1.2753
44778SOL     OW43111   0.070   0.538   4.966 -0.2915  0.1620  0.2581
44778SOL    HW143112   0.161   0.547   4.938 -0.9757  1.7360 -1.8264
44778SOL    HW243113   0.034   0.627   4.956 -2.5700 -0.8245 -1.1451
44779SOL     OW43114   3.788   1.363   5.034 -0.4465  0.4305 -0.5137
44779SOL    HW143115   3.806   1.455   5.013 -3.3977  0.9237 -1.4247
44779SOL    HW243116   3.753   1.365   5.123  0.1827  0.0572 -0.2508
44780SOL     OW43117   4.002   1.484   3.457 -0.3394  0.1553 -0.2028
44780SOL    HW143118   4.004   1.575   3.426  0.1275  0.7000  1.3315
44780SOL    HW243119   4.033   1.432   3.382 -2.0963  1.0642 -1.6541
44781SOL     OW43120   7.815  10.391   4.970  0.4566 -0.5060  0.7210
44781SOL    HW143121   7.805  10.480   4.937 -0.3704 -1.4857 -1.9649
44781SOL    HW243122   7.904  10.366   4.945  0.2677 -0.8246  0.3504
44782SOL     OW43123   6.435   8.220  10.746  0.2029 -0.4369  0.6850
44782SOL    HW143124   6.460   8.130  10.771 -0.3071 -0.6955  0.2747
44782SOL    HW243125   6.406   8.212  10.656  0.3647  0.1904  0.5782
44783SOL     OW43126  12.278   8.608   3.441 -0.3845 -1.1898 -0.8490
44783SOL    HW143127  12.310   8.518   3.444  1.6933 -0.4899  2.2774
44783SOL    HW243128  12.261   8.631   3.532 -0.2786  1.7807 -1.4737
44784SOL     OW43129  10.508   5.805  12.566  0.0531  0.0177 -0.3108
44784SOL    HW143130  10.527   5.873  12.630  1.6861 -0.3774 -0.3409
44784SOL    HW243131  10.413   5.797  12.568  0.0523 -0.6148  2.7404
44785SOL     OW43132   2.618   0.217   9.235 -0.2487  0.3581  0.3408
44785SOL    HW143133   2.631   0.131   9.197 -0.2302  0.1132  0.8928
44785SOL    HW243134   2.536   0.210   9.283 -0.7280  0.9213 -0.3665
44786SOL     OW43135  11.939   7.393   0.019 -0.5037  0.3250  0.1605
44786SOL    HW143136  11.851   7.365  -0.006 -0.1289 -0.0409 -0.8147
44786SOL    HW243137  11.953   7.473  -0.032 -0.7836  1.1600  1.3621
44787SOL     OW43138  12.427   9.937   9.072  0.1359  0.5835  0.1414
44787SOL    HW143139  12.487   9.865   9.053  1.5252  1.4507  1.0705
44787SOL    HW243140  12.386   9.957   8.987  1.9587  0.6636 -0.7661
44788SOL     OW43141   2.570   5.996   5.775  0.3148 -0.4286  0.0601
44788SOL    HW143142   2.634   6.037   5.833 -0.1668  0.7698 -0.2084
44788SOL    HW243143   2.547   5.914   5.817  1.8330 -0.7543  0.2883
44789SOL     OW43144   1.687   9.644  11.519  0.6950 -0.6325 -0.1204
44789SOL    HW143145   1.761   9.617  11.463  1.3309 -0.4365  0.6088
44789SOL    HW243146   1.662   9.564  11.565  0.8661 -0.5648  0.0937
44790SOL     OW43147   8.700   7.446   4.096 -0.2217 -0.3360 -1.2392
44790SOL    HW143148   8.637   7.517   4.110 -0.8186 -1.0377 -0.1954
44790SOL    HW243149   8.698   7.431   4.002  0.0240  1.1146 -1.5025
44791SOL     OW43150   5.405   0.072  11.392 -0.1844 -0.3336  0.1992
44791SOL    HW143151   5.311   0.068  11.410 -0.3509  0.0091 -0.5391
44791SOL    HW243152   5.427   0.164  11.401  0.0708 -0.4096  0.3354
44792SOL     OW43153   8.519   3.128   6.931 -0.3819 -0.1556  0.2600
44792SOL    HW143154   8.564   3.211   6.917  2.4905 -1.7757 -1.0320
44792SOL    HW243155   8.546   3.100   7.019  1.4102 -1.2169 -0.5883
44793SOL     OW43156   4.887   5.564   8.941 -0.2256 -0.3466 -0.2161
44793SOL    HW143157   4.893   5.481   8.893  1.1090 -1.6274  1.9736
44793SOL    HW243158   4.846   5.625   8.880  2.1272 -1.5765 -3.2646
44794SOL     OW43159   0.856   5.344   9.742 -0.6978  0.1408 -0.1403
44794SOL    HW143160   0.774   5.300   9.718 -1.7656  0.5187  2.3974
44794SOL    HW243161   0.922   5.275   9.742 -1.5380 -0.6807  0.0140
44795SOL     OW43162   1.903   4.933  11.045  0.8994 -0.3586  0.5452
44795SOL    HW143163   1.945   4.923  10.959  1.2684 -1.3904  0.8216
44795SOL    HW243164   1.932   5.018  11.077  0.1075  0.4059 -0.6930
44796SOL     OW43165  12.075   4.413   6.531 -0.0209 -0.2489 -0.0686
44796SOL    HW143166  12.025   4.484   6.573 -0.3019 -0.3730 -0.1909
44796SOL    HW243167  12.163   4.449   6.522  0.1359 -0.3315  0.9328
44797SOL     OW43168   6.965   4.310   6.313 -0.2024 -0.1840  0.3419
44797SOL    HW143169   6.988   4.227   6.353 -1.9759 -1.2543 -0.7302
44797SOL    HW243170   6.884   4.336   6.355  0.8195  1.5363  1.3436
44798SOL     OW43171   2.871   2.219   9.896  0.2909  0.3467  0.2534
44798SOL    HW143172   2.885   2.162   9.820  0.5535  1.1678 -0.3355
44798SOL    HW243173   2.851   2.304   9.858  2.0306  1.1779  1.0867
44799SOL     OW43174  12.236   1.563   0.788 -0.1082 -0.1226  0.2524
44799SOL    HW143175  12.158   1.602   0.749  1.4405  0.5348 -2.4814
44799SOL    HW243176  12.262   1.626   0.856 -0.3070  1.1940 -0.8557
44800SOL     OW43177   4.969   8.987   6.753 -0.6608 -0.1416 -0.2488
44800SOL    HW143178   5.039   8.937   6.795  2.7721  3.6124 -0.8330
44800SOL    HW243179   4.954   8.944   6.669  0.3842 -1.4755  0.2237
44801SOL     OW43180   6.533   8.186   1.939 -0.2910 -0.6379 -0.3934
44801SOL    HW143181   6.561   8.270   1.901  0.0425 -0.7395 -0.3719
44801SOL    HW243182   6.611   8.131   1.934 -0.4212 -0.8459 -0.1155
44802SOL     OW43183  11.654   0.873   3.244 -0.4869  0.1456 -0.0316
44802SOL    HW143184  11.676   0.875   3.337 -0.9409 -1.0825  0.1305
44802SOL    HW243185  11.568   0.830   3.240 -0.9886  1.1849 -0.9441
44803SOL     OW43186  11.649   7.190   6.288 -0.3690  0.2963 -1.1228
44803SOL    HW143187  11.661   7.097   6.273 -0.0696  0.1303  0.0375
44803SOL    HW243188  11.610   7.223   6.207 -0.6224 -0.8592 -1.4853
44804SOL     OW43189   9.950   1.617   2.649  0.0623  0.1293  0.1866
44804SOL    HW143190   9.981   1.673   2.720  0.5608  1.5297 -1.0858
44804SOL    HW243191  10.025   1.609   2.590 -0.4076 -0.8223 -0.3039
44805SOL     OW43192   7.177   5.301   9.331  0.1156 -0.1563 -0.3411
44805SOL    HW143193   7.271   5.314   9.343  0.0259  0.7481 -0.5765
44805SOL    HW243194   7.168   5.271   9.241  0.2307 -0.8802 -0.1175
44806SOL     OW43195   9.943   4.924   6.930  0.0688 -0.5141  0.4899
44806SOL    HW143196   9.923   4.832   6.940  0.3867 -0.5287  1.0107
44806SOL    HW243197   9.956   4.957   7.019 -0.5475  0.1505  0.3478
44807SOL     OW43198   1.822   9.184  11.503  0.7082 -0.1519 -0.2282
44807SOL    HW143199   1.877   9.106  11.498 -0.9581 -1.7537  3.4060
44807SOL    HW243200   1.871   9.244  11.560  0.3137 -0.1079  0.0675
44808SOL     OW43201   3.228   0.821   3.966  0.2828  0.1351  0.8344
44808SOL    HW143202   3.191   0.733   3.976  0.9030 -0.0835  1.2938
44808SOL    HW243203   3.152   0.878   3.956 -0.1686 -0.3420  1.4465
44809SOL     OW43204   4.029   7.891   5.599 -0.8420  0.2503 -0.7906
44809SOL    HW143205   3.951   7.942   5.576 -0.9446 -0.1174 -1.2739
44809SOL    HW243206   4.088   7.901   5.524  0.1945  1.7005  0.1668
44810SOL     OW43207   7.391   2.089   2.219 -0.5871 -0.0404 -0.0268
44810SOL    HW143208   7.335   2.087   2.142  0.3924  1.1698 -0.8196
44810SOL    HW243209   7.341   2.141   2.283 -0.1518  1.6120 -0.9582
44811SOL     OW43210  10.055  11.212   0.694 -0.1856  0.5578 -0.1868
44811SOL    HW143211   9.969  11.227   0.734 -0.5760 -1.0069 -0.3852
44811SOL    HW243212  10.117  11.248   0.756 -0.9246  0.5817  0.5520
44812SOL     OW43213   8.473   0.397   5.230  0.3503 -0.1087 -0.5467
44812SOL    HW143214   8.410   0.347   5.179  0.8824 -1.3728  0.0036
44812SOL    HW243215   8.476   0.482   5.187  1.4461 -1.3888 -3.2127
44813SOL     OW43216   6.439   2.318   0.737  0.0391  0.4798  0.3535
44813SOL    HW143217   6.481   2.257   0.797  0.8636 -0.5054 -1.1735
44813SOL    HW243218   6.361   2.272   0.707  1.0531 -0.2008 -1.3783
44814SOL     OW43219   9.541   2.950   9.311 -0.3935  0.0183 -0.3134
44814SOL    HW143220   9.460   2.984   9.273 -0.0563  0.8299 -0.3275
44814SOL    HW243221   9.571   2.885   9.247 -0.2330  0.8228 -1.0844
44815SOL     OW43222   8.893  10.279   2.473 -0.5702  0.2162 -0.5210
44815SOL    HW143223   8.882  10.186   2.453 -0.9930  0.0972  0.2450
44815SOL    HW243224   8.987  10.293   2.472 -0.5357  0.2225 -2.5766
44816SOL     OW43225   4.675   8.831   6.530  0.1578  0.0034  0.0665
44816SOL    HW143226   4.602   8.813   6.471 -0.3064  0.5726  0.4497
44816SOL    HW243227   4.640   8.894   6.593  1.6216  2.1429 -1.1284
44817SOL     OW43228   6.456   0.531   6.633 -0.6564 -0.0454  0.1303
44817SOL    HW143229   6.459   0.464   6.702 -2.6576  1.4068  1.7687
44817SOL    HW243230   6.432   0.483   6.554 -0.3395 -1.4834  0.8686
44818SOL     OW43231   8.033  10.166   4.162 -0.2915 -0.1952  0.4570
44818SOL    HW143232   7.951  10.215   4.150 -1.3473 -1.9252  0.3023
44818SOL    HW243233   8.042  10.159   4.257  0.9749  2.0080  0.5619
44819SOL     OW43234   3.142   1.002   5.521 -0.2731  0.5929 -0.0840
44819SOL    HW143235   3.052   1.029   5.501 -0.1415  0.8959 -0.2851
44819SOL    HW243236   3.170   0.954   5.444 -0.0565  1.0263 -0.2807
44820SOL     OW43237   1.289   1.499   3.687  0.0863  0.3959 -0.2575
44820SOL    HW143238   1.248   1.417   3.716  0.8226 -0.8989 -2.6567
44820SOL    HW243239   1.238   1.526   3.611  0.6892  1.4525 -0.3068
44821SOL     OW43240   1.933   1.559   8.340 -0.2066  0.3372 -0.3114
44821SOL    HW143241   1.906   1.554   8.248 -0.8288  0.7658 -0.1587
44821SOL    HW243242   1.936   1.468   8.369  0.4224  0.1706 -0.8740
44822SOL     OW43243   1.051  11.504   8.912  0.0654  0.0737 -0.1784
44822SOL    HW143244   0.992  11.541   8.846  1.9788  0.9888 -1.4607
44822SOL    HW243245   1.104  11.578   8.942 -2.2003  0.2681  4.2443
44823SOL     OW43246   6.439   5.116   6.819  0.0575 -0.3238  0.3986
44823SOL    HW143247   6.512   5.058   6.841  1.1192  0.5752 -0.6090
44823SOL    HW243248   6.457   5.143   6.729  0.1704  2.3658  1.1673
44824SOL     OW43249  11.744   0.886  11.819 -0.4354  0.0872  0.1173
44824SOL    HW143250  11.790   0.815  11.864 -1.5311  0.4322  1.8951
44824SOL    HW243251  11.730   0.853  11.730  2.3333 -0.3944 -0.2322
44825SOL     OW43252   0.698  11.514   9.222  0.7274  0.2544  0.1197
44825SOL    HW143253   0.736  11.433   9.258  3.0073  0.2195 -2.0849
44825SOL    HW243254   0.677  11.567   9.298 -1.9634 -2.7922  1.7384
44826SOL     OW43255   9.013   0.211  12.564  0.1652 -0.1352  0.4474
44826SOL    HW143256   9.000   0.293  12.518 -0.0073  0.2912  1.2368
44826SOL    HW243257   8.926   0.174  12.574  0.2055 -0.2439  0.4002
44827SOL     OW43258  10.215   3.855  10.662  0.5970 -0.4685  0.3033
44827SOL    HW143259  10.234   3.920  10.730  1.0675  1.3261 -1.4580
44827SOL    HW243260  10.301   3.828  10.630  0.4485  1.3834 -1.9361
44828SOL     OW43261  12.602   0.396   7.277  0.6834 -0.2035  0.5100
44828SOL    HW143262  12.585   0.382   7.184  0.3333  1.5049  0.2733
44828SOL    HW243263  12.642   0.484   7.281 -0.8626  0.4836  2.1030
44829SOL     OW43264   1.625   1.722   5.228 -0.4969 -0.0572  0.1630
44829SOL    HW143265   1.544   1.679   5.201 -0.3117 -1.2966  1.4596
44829SOL    HW243266   1.646   1.683   5.313  1.9432 -0.4186 -0.5403
44830SOL     OW43267   1.721   5.113   1.193  0.1418  0.1058  0.0293
44830SOL    HW143268   1.786   5.058   1.150  1.1417  0.6976  0.7545
44830SOL    HW243269   1.720   5.082   1.284 -0.6348  0.0711  0.0204
44831SOL     OW43270   5.232  10.519   9.372 -0.0057  0.1210 -0.6983
44831SOL    HW143271   5.217  10.540   9.464 -0.2192 -1.3866 -0.3625
44831SOL    HW243272   5.312  10.565   9.349  0.2315  0.2493  0.3423
44832SOL     OW43273   7.355   2.477  10.710  0.1476 -0.2056 -0.2285
44832SOL    HW143274   7.405   2.470  10.792  1.9711 -2.4722 -1.4327
44832SOL    HW243275   7.307   2.394  10.705 -0.9508  0.4563 -0.8581
44833SOL     OW43276   2.482   3.919   6.270  0.0441 -0.9444 -0.1017
44833SOL    HW143277   2.540   3.992   6.294 -1.0760 -0.2283  0.4953
44833SOL    HW243278   2.429   3.954   6.198  0.1798 -1.5150 -0.4862
44834SOL     OW43279   9.528   1.140   9.784  0.1387 -0.4107  0.4484
44834SOL    HW143280   9.507   1.185   9.702 -0.8666 -0.7380  0.5139
44834SOL    HW243281   9.511   1.206   9.851  2.5959  0.4304  0.3411
44835SOL     OW43282   0.184   3.026  12.316 -0.0663 -0.4253 -0.1002
44835SOL    HW143283   0.272   3.043  12.284  0.1252 -2.5287 -0.8010
44835SOL    HW243284   0.196   2.978  12.398 -0.5830 -0.0968  0.1826
44836SOL     OW43285   6.177   3.186   8.337  0.2600 -0.4853  0.0632
44836SOL    HW143286   6.133   3.101   8.337 -0.9460  0.1250  0.3290
44836SOL    HW243287   6.199   3.202   8.428 -1.1282  0.2833  0.2870
44837SOL     OW43288   3.718  10.861   7.853 -0.0993 -0.3007 -0.1808
44837SOL    HW143289   3.813  10.851   7.860 -0.3494 -1.9856  1.3836
44837SOL    HW243290   3.684  10.833   7.938 -1.9491  1.3001 -0.3258
44838SOL     OW43291   4.301   9.764   5.036 -0.4360  0.1781 -0.2744
44838SOL    HW143292   4.269   9.794   4.951 -0.3329  0.8247 -0.0877
44838SOL    HW243293   4.382   9.813   5.050  0.5120 -1.2235 -0.6034
44839SOL     OW43294   3.352   4.955   4.667 -0.3795 -0.2996 -0.5347
44839SOL    HW143295   3.368   4.873   4.715 -0.1717  0.1927  0.2576
44839SOL    HW243296   3.276   4.936   4.613  0.5273 -1.4666 -1.4546
44840SOL     OW43297   0.673   0.892   8.643 -0.2474  0.2430  0.2789
44840SOL    HW143298   0.676   0.854   8.731  1.2004  0.0799  0.1859
44840SOL    HW243299   0.754   0.862   8.601 -1.7469 -1.2210 -1.7843
44841SOL     OW43300   1.385   8.164  10.404  0.5419  0.7410  0.1676
44841SOL    HW143301   1.318   8.096  10.409 -0.3718  1.4452 -1.4595
44841SOL    HW243302   1.415   8.176  10.494  1.2239 -2.2321  0.4633
44842SOL     OW43303  10.663  12.232   4.982 -0.0471  0.2106 -0.0530
44842SOL    HW143304  10.677  12.315   5.026 -0.2890 -0.4716  1.3655
44842SOL    HW243305  10.748  12.210   4.944  0.2288  0.7096  0.2702
44843SOL     OW43306   3.424   5.389   2.601  0.2714 -0.0719 -0.8700
44843SOL    HW143307   3.366   5.316   2.626  0.0361 -0.3740 -2.2024
44843SOL    HW243308   3.373   5.438   2.535  1.0692  0.3404 -1.1895
44844SOL     OW43309   0.088   0.890   7.725  0.4779  0.8261  0.3249
44844SOL    HW143310   0.027   0.940   7.778  0.3500  0.8901  0.1194
44844SOL    HW243311   0.034   0.853   7.655  0.9891  2.6102 -1.1057
44845SOL     OW43312   6.847  10.010   3.367 -0.0709  0.7931 -0.0851
44845SOL    HW143313   6.909   9.945   3.400  0.4645  2.1544  1.8201
44845SOL    HW243314   6.895  10.057   3.300  1.3452  2.3142  1.8706
44846SOL     OW43315   0.748  10.814  12.050 -0.1441 -0.3639 -0.2766
44846SOL    HW143316   0.835  10.808  12.011 -0.0860  1.7702 -0.5846
44846SOL    HW243317   0.704  10.883  12.001 -0.5993  1.4011  2.3940
44847SOL     OW43318   2.521   0.392  11.833 -0.6933  0.0810 -0.5448
44847SOL    HW143319   2.557   0.304  11.847 -2.7040 -0.7700 -0.3233
44847SOL    HW243320   2.517   0.401  11.738  0.3469  0.3128 -0.5740
44848SOL     OW43321   8.000   3.011   1.111 -0.0307 -0.3959 -0.7063
44848SOL    HW143322   7.927   3.073   1.110 -0.2145 -0.5841  0.3944
44848SOL    HW243323   7.978   2.947   1.043  0.7208  1.3434 -2.7020
44849SOL     OW43324  11.954   8.908   4.904 -0.6704  0.0348 -0.4310
44849SOL    HW143325  11.955   8.957   4.986 -1.7056 -0.8470  0.1276
44849SOL    HW243326  12.015   8.956   4.847  1.5181 -0.3533  1.4317
44850SOL     OW43327   7.277   4.442  10.015 -0.1667  0.1777  0.3573
44850SOL    HW143328   7.261   4.449   9.921 -1.7825  0.4225  0.6087
44850SOL    HW243329   7.212   4.378  10.045 -0.5357  1.0379  1.4806
44851SOL     OW43330   3.916   0.260   9.464  0.5021  0.4749  0.4427
44851SOL    HW143331   3.975   0.334   9.476  1.4319 -0.4533  1.9283
44851SOL    HW243332   3.858   0.262   9.539 -0.6209  0.6934 -0.4073
44852SOL     OW43333   9.656   9.688  10.666  0.6024  0.4454 -0.8363
44852SOL    HW143334   9.572   9.651  10.640  0.4746  1.0263 -1.2532
44852SOL    HW243335   9.722   9.632  10.624  0.4158  0.3981 -1.0650
44853SOL     OW43336   5.697   0.410   6.735  0.1057  0.0679 -0.2241
44853SOL    HW143337   5.642   0.467   6.789 -0.0512 -0.5108  0.2373
44853SOL    HW243338   5.782   0.410   6.779  0.7230  1.5256 -1.3211
44854SOL     OW43339  10.597  11.764  10.594  0.1798  0.5740 -0.1424
44854SOL    HW143340  10.597  11.747  10.500 -1.0683  1.3457 -0.3170
44854SOL    HW243341  10.549  11.847  10.603 -0.0402  0.3269  1.2018
44855SOL     OW43342   7.127  10.176   8.121 -0.2258  0.1425  0.3424
44855SOL    HW143343   7.217  10.145   8.120  0.0054  0.7991 -0.5070
44855SOL    HW243344   7.095  10.161   8.032 -1.3577 -1.1833  0.9337
44856SOL     OW43345   7.687  10.323   2.483 -0.5547 -0.5678  0.1513
44856SOL    HW143346   7.750  10.252   2.495 -0.7439 -1.0079 -1.2312
44856SOL    HW243347   7.741  10.400   2.466 -0.2719 -1.3135 -3.0616
44857SOL     OW43348   7.471   8.851   3.352  0.1100  0.0275  0.9295
44857SOL    HW143349   7.559   8.874   3.322 -1.2155  2.5460 -1.5049
44857SOL    HW243350   7.442   8.925   3.405 -1.1603  0.0781  0.2187
44858SOL     OW43351   5.091  11.277  10.502 -0.2748  0.1242 -0.1501
44858SOL    HW143352   5.001  11.266  10.470  0.9511 -1.6790 -3.5606
44858SOL    HW243353   5.124  11.353  10.454  0.2362  0.3167  0.5044
44859SOL     OW43354   9.637  12.079  12.423  0.3061  0.0891  0.0301
44859SOL    HW143355   9.645  12.093  12.518 -0.0006  0.4932  0.0007
44859SOL    HW243356   9.713  12.124  12.386  1.0621 -1.0418  0.1579
44860SOL     OW43357   3.392   7.545   6.141 -0.1823 -0.0667  0.6232
44860SOL    HW143358   3.340   7.466   6.157  0.2669 -0.7958 -1.2410
44860SOL    HW243359   3.337   7.598   6.083 -0.0786  0.5524  1.0855
44861SOL     OW43360   7.675   0.249  11.367 -0.2869 -0.1310  0.5949
44861SOL    HW143361   7.725   0.173  11.339  0.0187  0.0912  0.5303
44861SOL    HW243362   7.738   0.321  11.365 -0.7326  0.2570  0.0067
44862SOL     OW43363   0.140   4.992   0.594  0.2101 -0.2249 -0.5258
44862SOL    HW143364   0.235   4.977   0.593  0.1877 -0.3693 -0.5065
44862SOL    HW243365   0.131   5.087   0.588  0.3574 -0.2071 -0.4770
44863SOL     OW43366   6.051  10.085   4.165 -0.0366  0.4222 -0.6667
44863SOL    HW143367   6.119  10.056   4.105  0.4831 -0.1477  0.1728
44863SOL    HW243368   5.989  10.013   4.168  0.4836 -0.0086  0.2681
44864SOL     OW43369   1.392  10.792  10.274  0.4264 -0.1639  0.6383
44864SOL    HW143370   1.374  10.886  10.277 -2.4576 -0.5998 -0.0736
44864SOL    HW243371   1.350  10.761  10.193  1.4380 -2.0589  0.7636
44865SOL     OW43372   3.213   4.973   2.207 -0.1440  0.2149 -0.5762
44865SOL    HW143373   3.180   4.883   2.201  0.8718 -0.2642  0.5242
44865SOL    HW243374   3.242   4.994   2.118 -1.5816 -0.0456 -1.1318
44866SOL     OW43375   1.131   5.675  11.867 -0.8251  0.4596  0.5805
44866SOL    HW143376   1.155   5.630  11.948  0.0846 -2.3168 -1.1030
44866SOL    HW243377   1.036   5.682  11.871 -0.6705  2.2585  2.7485
44867SOL     OW43378   2.731   6.361   5.029 -0.4212  0.5976  0.2939
44867SOL    HW143379   2.794   6.412   5.080  0.5854  0.2678 -0.5695
44867SOL    HW243380   2.666   6.333   5.092 -0.0129  1.4453  1.1106
44868SOL     OW43381   1.168  12.131   9.547  0.0223  0.1045  0.1818
44868SOL    HW143382   1.255  12.094   9.529 -0.4378 -1.1474  0.4327
44868SOL    HW243383   1.109  12.056   9.543 -1.0055  0.8844  0.3684
44869SOL     OW43384   5.734   2.699   5.124 -0.1875 -0.0356  0.4545
44869SOL    HW143385   5.701   2.745   5.201  1.1003  1.1770  0.3147
44869SOL    HW243386   5.667   2.633   5.106 -2.0449  1.6642  0.7335
44870SOL     OW43387  11.833   8.964   3.167  0.2309  0.5725  0.0947
44870SOL    HW143388  11.783   8.912   3.104 -0.4190 -0.3331  1.3265
44870SOL    HW243389  11.771   8.985   3.236  1.4132 -0.1375  1.4098
44871SOL     OW43390   1.228   9.974   3.304 -0.4309 -0.0642 -0.1261
44871SOL    HW143391   1.192  10.006   3.386  2.4940  0.1978  1.1622
44871SOL    HW243392   1.213   9.879   3.307 -0.7893  0.0067  0.4482
44872SOL     OW43393   1.674   4.234   2.650  0.4638  0.0243 -0.5355
44872SOL    HW143394   1.702   4.147   2.680  0.6374  0.2395 -0.0648
44872SOL    HW243395   1.580   4.224   2.635  0.3111 -0.0096  0.3852
44873SOL     OW43396   2.980   5.474   2.091 -0.5276  0.0479  0.0937
44873SOL    HW143397   2.944   5.562   2.079 -1.3325 -0.4209 -1.0454
44873SOL    HW243398   2.911   5.415   2.061  0.2298 -0.9516  0.2737
44874SOL     OW43399   5.700   0.376   9.007  0.6172  0.3604  0.1003
44874SOL    HW143400   5.707   0.422   8.924  0.2374 -0.5491 -0.4560
44874SOL    HW243401   5.753   0.427   9.068 -0.3418  1.9109 -0.3066
44875SOL     OW43402  11.207   9.519   3.785 -0.1937  0.0668  0.4880
44875SOL    HW143403  11.298   9.491   3.783 -0.0080  0.6844  0.1752
44875SOL    HW243404  11.157   9.440   3.761  0.2088 -0.4322  1.2606
44876SOL     OW43405   2.638   1.010   6.461  0.3914  0.1250 -1.2644
44876SOL    HW143406   2.610   1.016   6.553  2.0527  2.2520 -0.7983
44876SOL    HW243407   2.725   0.971   6.466  0.1706 -0.4743 -2.0321
44877SOL     OW43408   6.632   4.790  11.490  0.0621 -0.0461 -0.8554
44877SOL    HW143409   6.660   4.873  11.527  0.9828 -0.1318 -1.3373
44877SOL    HW243410   6.635   4.803  11.395 -1.5427 -0.0640 -0.9274
44878SOL     OW43411   9.817   9.439   7.185 -0.5214 -0.1590 -0.4341
44878SOL    HW143412   9.907   9.462   7.207  0.2939 -1.9248 -1.7488
44878SOL    HW243413   9.784   9.393   7.262  0.2505 -0.9328 -0.5627
44879SOL     OW43414   4.009   9.687   3.374 -0.5845  0.1627 -0.9110
44879SOL    HW143415   4.028   9.656   3.285  0.9405 -1.3357 -0.1330
44879SOL    HW243416   4.054   9.772   3.379  0.0892 -0.1580 -1.3069
44880SOL     OW43417   0.099   6.656   8.379 -0.1844  0.0722  0.1654
44880SOL    HW143418   0.159   6.713   8.427 -0.9544  1.0841 -0.0279
44880SOL    HW243419   0.113   6.680   8.287 -0.5887  0.0123  0.0897
44881SOL     OW43420   8.788   3.597   4.632  0.5344 -0.6050  0.7501
44881SOL    HW143421   8.774   3.629   4.542 -1.8110 -1.7514  0.6410
44881SOL    HW243422   8.812   3.675   4.681 -0.6027  0.5296 -0.4011
44882SOL     OW43423   7.275   0.762  11.073  0.1657 -0.2830 -0.2890
44882SOL    HW143424   7.368   0.786  11.066  0.1081 -0.1393 -0.5581
44882SOL    HW243425   7.229   0.846  11.068  0.0744 -0.2429  0.9158
44883SOL     OW43426   7.246   7.458   4.817  0.1691 -0.3424 -0.5224
44883SOL    HW143427   7.341   7.455   4.812  0.1061 -2.1576 -1.4454
44883SOL    HW243428   7.227   7.525   4.883  1.9411  3.2754 -3.3147
44884SOL     OW43429   3.319  11.281  11.289  0.1395 -0.5152 -0.0318
44884SOL    HW143430   3.301  11.374  11.274  1.2811 -0.2775 -0.0560
44884SOL    HW243431   3.343  11.247  11.203 -1.8572 -1.2369 -0.3396
44885SOL     OW43432   1.988   9.854   5.138  0.4468  0.5101  0.6357
44885SOL    HW143433   1.933   9.849   5.215 -0.3379  0.3340  0.0772
44885SOL    HW243434   2.028   9.767   5.131 -0.6117  0.0538  0.0393
44886SOL     OW43435   5.357   4.386  10.498 -0.4539  0.1184  0.3731
44886SOL    HW143436   5.342   4.473  10.462 -2.9384 -0.2593  0.2934
44886SOL    HW243437   5.300   4.381  10.575 -1.3870 -1.8345 -0.3571
44887SOL     OW43438   2.798   7.854   0.634 -0.0322 -0.2673 -0.3531
44887SOL    HW143439   2.755   7.839   0.718  0.6003  1.4120  0.3172
44887SOL    HW243440   2.884   7.813   0.644  0.3697  0.6512  0.1801
44888SOL     OW43441   1.243   2.352   9.864 -0.1191  0.2012  0.2499
44888SOL    HW143442   1.262   2.363   9.958 -0.2350  0.1546  0.2780
44888SOL    HW243443   1.149   2.369   9.857  0.2540  2.4485 -0.1764
44889SOL     OW43444   5.876   3.864   5.306 -0.1235 -0.4380 -0.0334
44889SOL    HW143445   5.865   3.898   5.395  1.7274  0.9512 -0.2903
44889SOL    HW243446   5.793   3.819   5.288 -2.1731  2.6330  0.8922
44890SOL     OW43447   7.708   3.586   0.906  0.0189  0.3193 -0.3532
44890SOL    HW143448   7.741   3.597   0.817  1.4545 -1.9501 -0.1672
44890SOL    HW243449   7.643   3.517   0.900 -0.7171  0.9403  0.2145
44891SOL     OW43450   5.456  12.191   5.243  0.1016  0.3581  0.1980
44891SOL    HW143451   5.533  12.159   5.195  0.3970  0.2073  0.7587
44891SOL    HW243452   5.384  12.137   5.212  0.4112 -0.1757  0.3899
44892SOL     OW43453  10.462   7.083  10.967  0.4367 -0.0173 -0.2251
44892SOL    HW143454  10.392   7.028  10.932  0.0875 -0.4975  1.1517
44892SOL    HW243455  10.509   7.114  10.890  1.1076 -2.8438 -1.1029
44893SOL     OW43456   1.393   1.445   7.914  0.1402  0.2706  0.1375
44893SOL    HW143457   1.473   1.408   7.876  1.1748  1.8881  0.6152
44893SOL    HW243458   1.391   1.413   8.004  0.3655  0.3994  0.1878
44894SOL     OW43459   9.081   1.838   8.832  0.1225 -1.2341 -0.0892
44894SOL    HW143460   9.152   1.859   8.893 -1.3548  1.1263  0.9830
44894SOL    HW243461   9.023   1.781   8.882 -0.7869  0.2247  0.6058
44895SOL     OW43462   4.965   1.097   6.874  0.0044 -0.1735  0.5251
44895SOL    HW143463   5.014   1.154   6.815 -1.3892  1.8490  1.1808
44895SOL    HW243464   4.925   1.031   6.818  1.7843 -0.6248 -0.2521
44896SOL     OW43465   4.098   1.607  12.330 -0.5819  0.3954  0.1356
44896SOL    HW143466   4.065   1.551  12.260  0.0781 -0.0487  0.1657
44896SOL    HW243467   4.192   1.611  12.314 -0.5107  0.7912  0.6438
44897SOL     OW43468   8.706   7.777   2.212 -0.2980 -0.1850 -0.2087
44897SOL    HW143469   8.708   7.838   2.139  1.3543  2.3135  1.7562
44897SOL    HW243470   8.776   7.806   2.270 -0.8899 -2.6397  1.9409
44898SOL     OW43471   3.607   6.564   7.775 -0.4661 -0.2142  0.1958
44898SOL    HW143472   3.512   6.566   7.768 -0.3932 -0.7023 -1.2987
44898SOL    HW243473   3.636   6.650   7.743 -0.4145  0.0589  0.9664
44899SOL     OW43474   7.622  10.646   0.994 -0.1914 -0.1423 -0.0384
44899SOL    HW143475   7.643  10.669   1.085  1.4594 -3.1785  0.4892
44899SOL    HW243476   7.681  10.700   0.942 -1.3832  1.8831  0.5654
44900SOL     OW43477  11.194   6.237   4.499  0.0959 -0.0033  0.4482
44900SOL    HW143478  11.256   6.218   4.570 -2.1103 -0.5032  2.3578
44900SOL    HW243479  11.129   6.168   4.504 -1.8698  1.6995  0.0186
44901SOL     OW43480  10.215   3.410   4.787  0.1883 -0.7334 -0.2938
44901SOL    HW143481  10.145   3.345   4.796 -0.7813  0.2225 -0.7195
44901SOL    HW243482  10.176   3.491   4.820  0.9500 -0.0889 -0.9525
44902SOL     OW43483  11.843   3.157   0.005  0.3180 -0.5608 -0.2803
44902SOL    HW143484  11.884   3.078  -0.031  2.0985 -0.4226  1.3060
44902SOL    HW243485  11.828   3.136   0.097 -0.7316  0.3964 -0.2063
44903SOL     OW43486  11.080   9.665   3.037  0.4519  0.8028 -0.2721
44903SOL    HW143487  11.098   9.593   2.976 -1.3034  0.1683 -0.0893
44903SOL    HW243488  11.036   9.731   2.983 -1.1363  0.2280  0.2557
44904SOL     OW43489   3.875  10.198   8.691  0.0873  0.4175  0.2316
44904SOL    HW143490   3.829  10.274   8.728 -0.9123  0.2998 -0.7258
44904SOL    HW243491   3.878  10.216   8.597 -0.2953 -0.7941 -0.0194
44905SOL     OW43492   1.167   2.596   5.403  0.3803 -0.0613  0.2271
44905SOL    HW143493   1.213   2.512   5.398  1.0288  0.1625  1.8848
44905SOL    HW243494   1.156   2.623   5.311  0.4072 -1.8069 -0.3249
44906SOL     OW43495   6.241   9.093   4.357  1.1337  0.0008 -0.4672
44906SOL    HW143496   6.299   9.168   4.345  0.9070  0.2783  0.1223
44906SOL    HW243497   6.228   9.058   4.269  0.4131  1.2784 -0.8887
44907SOL     OW43498   0.642   6.976   5.864  0.3152  0.2580  0.1638
44907SOL    HW143499   0.670   7.065   5.844 -2.0259  0.9250 -0.4333
44907SOL    HW243500   0.673   6.961   5.953 -0.4144  2.2047  0.7983
44908SOL     OW43501   0.813   8.849   8.328  0.3572  0.6078  0.2809
44908SOL    HW143502   0.816   8.789   8.402  1.7964  0.0193 -0.2175
44908SOL    HW243503   0.813   8.937   8.367 -2.5519  0.3628  1.0420
44909SOL     OW43504  11.197  10.416   3.522 -0.3327 -0.6999  0.4333
44909SOL    HW143505  11.140  10.403   3.597 -0.8333  0.4079  0.2676
44909SOL    HW243506  11.167  10.352   3.457 -0.0044 -1.5457  1.1064
44910SOL     OW43507   8.823   2.398   6.860 -0.2064  0.0213 -0.0304
44910SOL    HW143508   8.902   2.350   6.885 -0.2422  0.1150  0.2626
44910SOL    HW243509   8.808   2.460   6.932 -0.1268  0.5134 -0.4303
44911SOL     OW43510   2.876   2.057   9.685  0.2109 -0.0120 -0.3416
44911SOL    HW143511   2.927   2.094   9.613  1.2483 -0.8852 -0.0808
44911SOL    HW243512   2.909   1.968   9.694 -3.7343 -1.9467 -2.4605
44912SOL     OW43513   8.971   3.216  10.667 -0.0929 -0.1338 -0.7424
44912SOL    HW143514   9.012   3.252  10.745  0.5631 -2.6023  0.1357
44912SOL    HW243515   9.039   3.165  10.624 -1.1787 -1.0968 -1.3993
44913SOL     OW43516   6.924   7.076  10.855 -1.1539  0.3880 -0.2706
44913SOL    HW143517   7.002   7.062  10.909 -2.8434  0.5492  2.3800
44913SOL    HW243518   6.927   7.169  10.833  0.9600 -0.1991 -2.9369
44914SOL     OW43519   6.355  10.532   5.449 -0.8630  0.0450  0.2263
44914SOL    HW143520   6.290  10.601   5.436 -0.8961 -0.1092 -0.4898
44914SOL    HW243521   6.328  10.462   5.390  0.1346  0.1167 -0.3550
44915SOL     OW43522  11.645   5.570   3.643 -0.3745 -0.1024  0.1079
44915SOL    HW143523  11.702   5.608   3.576  2.5070 -2.4024  1.0084
44915SOL    HW243524  11.604   5.495   3.601  3.6517 -3.3288  1.3343
44916SOL     OW43525  10.431   0.647   7.663 -0.0906  0.0217 -0.8352
44916SOL    HW143526  10.489   0.608   7.598 -0.1177  1.7099 -1.9275
44916SOL    HW243527  10.401   0.573   7.716  1.1332 -1.1932 -1.7783
44917SOL     OW43528  12.167   0.327   3.247  0.6958 -0.1487  0.2850
44917SOL    HW143529  12.248   0.318   3.197  0.3793  0.4671 -0.3514
44917SOL    HW243530  12.182   0.275   3.326  2.3186  1.2038  0.9258
44918SOL     OW43531   2.607   1.677   3.135 -0.5360 -0.3461 -0.2456
44918SOL    HW143532   2.524   1.718   3.111  0.8244  1.1082 -2.9491
44918SOL    HW243533   2.640   1.640   3.053  1.5556 -0.7953  0.7372
44919SOL     OW43534  12.561   7.588  11.280 -0.2868 -0.1735 -0.3537
44919SOL    HW143535  12.623   7.562  11.349 -0.6432 -1.2981 -0.4330
44919SOL    HW243536  12.543   7.507  11.233 -0.6690  0.4369 -1.2781
44920SOL     OW43537   0.342   9.105   5.713  0.0720  0.3439  0.0704
44920SOL    HW143538   0.432   9.101   5.746 -0.5551 -3.0257  1.8315
44920SOL    HW243539   0.292   9.146   5.784 -0.1352  0.0743  0.0803
44921SOL     OW43540   1.345   7.353   4.982  0.3764 -0.0297 -0.3849
44921SOL    HW143541   1.437   7.376   4.994  0.5959  0.0676 -2.0202
44921SOL    HW243542   1.309   7.425   4.929 -0.6092 -0.1255  0.1291
44922SOL     OW43543   9.559   1.293  11.284 -0.2648  0.3694  0.4535
44922SOL    HW143544   9.496   1.296  11.212 -2.1883 -0.0473  2.0350
44922SOL    HW243545   9.565   1.384  11.314  0.3710  0.5063 -0.0561
44923SOL     OW43546   0.227  12.594   3.499  0.1624 -0.2982  0.6250
44923SOL    HW143547   0.294  12.563   3.438 -0.5938  2.4870 -1.8770
44923SOL    HW243548   0.149  12.544   3.476  0.3064 -0.4528  0.4710
44924SOL     OW43549  10.126  12.528  11.990 -0.1986 -0.6975  0.2965
44924SOL    HW143550  10.048  12.492  12.033 -1.5362 -1.2500 -2.3708
44924SOL    HW243551  10.197  12.469  12.015 -0.7734 -0.7358  2.0194
44925SOL     OW43552   4.859   0.141  10.933 -0.6245  0.2059 -0.2090
44925SOL    HW143553   4.876   0.047  10.937 -0.0458  0.2602 -1.0572
44925SOL    HW243554   4.777   0.148  10.885 -0.5596  0.1381 -0.3305
44926SOL     OW43555   6.717   5.237   1.960 -0.0942 -0.0401 -0.6079
44926SOL    HW143556   6.728   5.176   1.887  0.2302 -0.2382 -0.3994
44926SOL    HW243557   6.677   5.185   2.029  0.4850 -0.1131 -0.3139
44927SOL     OW43558   0.462   0.409   9.137 -0.0003  0.1571 -0.1149
44927SOL    HW143559   0.367   0.417   9.142 -0.0415 -0.8856  1.5653
44927SOL    HW243560   0.479   0.315   9.146  1.2176  0.4051  0.4415
44928SOL     OW43561   7.749   4.828  12.157  0.4682  0.3266  0.4028
44928SOL    HW143562   7.702   4.865  12.082  0.2024  0.4809  0.6421
44928SOL    HW243563   7.781   4.744  12.126 -2.0826 -0.9400  0.9732
44929SOL     OW43564   7.428   4.007   3.090  0.0425  0.3707  0.2172
44929SOL    HW143565   7.383   4.013   3.006  1.0495 -0.6451 -0.4115
44929SOL    HW243566   7.516   4.040   3.073  0.5016 -0.5937  0.6673
44930SOL     OW43567   0.129   5.698   7.143  0.1423  0.1755  0.8251
44930SOL    HW143568   0.169   5.633   7.200  0.6619 -1.0026 -0.7868
44930SOL    HW243569   0.109   5.650   7.063  0.6274  2.0060 -0.4735
44931SOL     OW43570  11.315   4.724   2.537  0.5689 -0.6666  0.2769
44931SOL    HW143571  11.228   4.761   2.549  1.2605  1.5265 -0.8922
44931SOL    HW243572  11.336   4.741   2.445  2.8583  0.3804  0.9274
44932SOL     OW43573   0.994   6.268   1.704  0.1125 -0.3241  0.3049
44932SOL    HW143574   1.078   6.258   1.748 -0.1859  1.1785  1.2790
44932SOL    HW243575   0.929   6.243   1.770 -0.2981  0.9381  0.3987
44933SOL     OW43576   5.486   0.387   9.930  0.2517  0.0762  0.2563
44933SOL    HW143577   5.547   0.359   9.862  1.8286  1.3262  1.0766
44933SOL    HW243578   5.474   0.481   9.914 -2.4066 -0.3380 -0.5605
44934SOL     OW43579   0.320   3.814   1.360  0.0442  0.0431  0.3767
44934SOL    HW143580   0.355   3.895   1.323  0.6212 -0.2323  0.3099
44934SOL    HW243581   0.312   3.832   1.453  0.4144  0.0963  0.4006
44935SOL     OW43582   1.905  10.870   5.389 -0.2642  0.0459  0.2581
44935SOL    HW143583   1.812  10.877   5.366 -0.1956 -1.5928 -0.6901
44935SOL    HW243584   1.907  10.802   5.457  0.2626 -0.0791  0.1182
44936SOL     OW43585  10.911  12.161   7.525 -0.2718  0.3501 -0.1593
44936SOL    HW143586  10.990  12.132   7.572  0.0637  0.4535 -0.6471
44936SOL    HW243587  10.886  12.242   7.569 -0.6901 -0.2085  0.6365
44937SOL     OW43588  12.572  11.608   4.123  0.4403 -0.2475 -0.6667
44937SOL    HW143589  12.502  11.605   4.058 -0.0014  1.6106 -0.3374
44937SOL    HW243590  12.628  11.681   4.094  1.9473 -1.3351 -0.6128
44938SOL     OW43591   8.717   2.688   8.624 -0.0732  0.2519  0.2409
44938SOL    HW143592   8.677   2.602   8.636 -0.4884  0.3548 -0.3557
44938SOL    HW243593   8.757   2.684   8.537 -2.4258  1.5211 -1.0086
44939SOL     OW43594   9.093   9.900  11.614  0.5133 -0.0975  0.5994
44939SOL    HW143595   9.117   9.906  11.706  0.4223  1.0452  0.5623
44939SOL    HW243596   9.103   9.807  11.592  0.9544 -0.3034  1.6374
44940SOL     OW43597   7.706  10.506   7.522 -0.0378 -0.3182 -0.3310
44940SOL    HW143598   7.645  10.453   7.572  0.6231 -1.3007 -0.5242
44940SOL    HW243599   7.658  10.531   7.443 -0.3420 -0.7219 -0.2777
44941SOL     OW43600   0.614   5.390   9.953 -0.0744  0.2382 -0.1891
44941SOL    HW143601   0.530   5.348   9.936  1.3072 -2.0603 -1.8844
44941SOL    HW243602   0.611   5.414  10.046 -2.6329  0.4255 -0.2535
44942SOL     OW43603  10.760   3.506  10.937 -0.2851 -0.3705 -0.1709
44942SOL    HW143604  10.811   3.563  10.879  1.0237 -0.2511  1.0450
44942SOL    HW243605  10.692   3.469  10.880  0.5589  0.2169 -1.6233
44943SOL     OW43606   0.303   0.996  10.121  0.1047  0.1495  0.0351
44943SOL    HW143607   0.235   1.050  10.161  2.0807  1.0795  2.3431
44943SOL    HW243608   0.280   0.907  10.145 -3.0566 -0.3267 -3.6072
44944SOL     OW43609   4.013   5.518  10.552  0.0792 -0.6340  0.1677
44944SOL    HW143610   4.027   5.544  10.643  2.6171  0.3877 -0.4409
44944SOL    HW243611   3.971   5.594  10.512 -1.3112 -1.1934  0.5005
44945SOL     OW43612   8.310   4.632   9.475 -0.3223 -0.3539  0.1436
44945SOL    HW143613   8.296   4.724   9.494  0.8008 -0.0931 -0.1666
44945SOL    HW243614   8.401   4.616   9.502 -0.0797 -1.0271 -0.9980
44946SOL     OW43615   4.545   7.855   8.913 -0.5371  0.8717  0.1164
44946SOL    HW143616   4.558   7.761   8.928  1.3926  0.6609 -2.3475
44946SOL    HW243617   4.569   7.896   8.996  3.3644 -0.5621 -0.0991
44947SOL     OW43618   5.127   5.206   8.731  0.1097  0.3155 -0.5289
44947SOL    HW143619   5.171   5.141   8.676  0.6059  0.8224 -0.7454
44947SOL    HW243620   5.196   5.269   8.752  0.2454 -0.4734  1.6685
44948SOL     OW43621  11.954   1.949   8.827  0.5938  0.0514 -0.0876
44948SOL    HW143622  11.912   2.020   8.875  1.9528  0.9794 -0.2186
44948SOL    HW243623  11.892   1.926   8.759  0.4100  1.6283 -0.4963
44949SOL     OW43624   9.211  12.268   5.031  0.7889 -0.1270 -0.9368
44949SOL    HW143625   9.122  12.301   5.042  1.6617  2.1445  0.2057
44949SOL    HW243626   9.232  12.229   5.116  0.9602 -0.4163 -1.1130
44950SOL     OW43627  10.053   0.765  11.526 -0.5464  0.4474  0.1021
44950SOL    HW143628  10.077   0.822  11.453 -0.5224 -0.6159 -0.7474
44950SOL    HW243629   9.962   0.786  11.544 -1.3556 -0.9496 -1.9028
44951SOL     OW43630   9.215   4.933   4.036  0.2738 -0.1327 -0.4483
44951SOL    HW143631   9.260   4.956   3.955  1.7515  1.1317  0.6756
44951SOL    HW243632   9.203   4.838   4.031  1.3002 -0.2171 -1.6615
44952SOL     OW43633   6.116   6.327   6.085 -0.7407  0.0381 -0.5632
44952SOL    HW143634   6.140   6.365   6.169 -0.1967  1.0108 -1.1370
44952SOL    HW243635   6.139   6.234   6.092 -0.9285  0.0597  0.4295
44953SOL     OW43636   0.068   4.685   5.992 -0.0430 -0.2882  0.0634
44953SOL    HW143637   0.147   4.738   6.004 -0.0365  0.5451 -2.9591
44953SOL    HW243638   0.101   4.597   5.975  0.5539  0.5088 -3.7387
44954SOL     OW43639  10.262  10.559  10.349  0.6339 -0.1788  0.0013
44954SOL    HW143640  10.312  10.510  10.415 -0.0310 -0.1286  0.5452
44954SOL    HW243641  10.248  10.645  10.388 -0.4141 -0.3890  0.1201
44955SOL     OW43642   2.741   4.542   9.109  0.3457  0.6134 -0.2630
44955SOL    HW143643   2.690   4.601   9.055  0.4228  0.1450 -0.8553
44955SOL    HW243644   2.677   4.481   9.145  0.2874  0.9512  0.2264
44956SOL     OW43645   5.075   9.417  10.836 -0.1892 -0.1273  0.3077
44956SOL    HW143646   5.024   9.477  10.781 -1.4252 -0.0095  1.5453
44956SOL    HW243647   5.127   9.366  10.773 -2.1507 -0.5591 -1.0676
44957SOL     OW43648   2.852   8.435   5.038  0.3164 -0.4106  0.0607
44957SOL    HW143649   2.811   8.431   5.124  0.5957 -2.2828  0.1455
44957SOL    HW243650   2.926   8.495   5.049  1.0212 -1.4789  1.4421
44958SOL     OW43651   6.597   7.943   2.397 -0.2440  0.3223 -0.4067
44958SOL    HW143652   6.591   7.863   2.449  1.9871  1.4408  1.7751
44958SOL    HW243653   6.642   7.915   2.317 -0.5308 -0.8035 -0.2029
44959SOL     OW43654   2.952   5.132   8.797  0.0020  0.2773  0.3709
44959SOL    HW143655   2.982   5.223   8.799 -0.1787  0.3488  2.3047
44959SOL    HW243656   2.870   5.133   8.847  1.7760 -1.4683  3.6742
44960SOL     OW43657   8.234   3.729   3.524 -0.4774  0.1297 -0.0182
44960SOL    HW143658   8.167   3.702   3.587 -2.5863  0.7842 -1.8258
44960SOL    HW243659   8.233   3.661   3.457 -1.5796  1.5651 -1.5748
44961SOL     OW43660   3.469   7.797   3.256 -0.8828 -0.7255 -0.0050
44961SOL    HW143661   3.443   7.876   3.302  0.0366 -1.2898  1.5389
44961SOL    HW243662   3.529   7.752   3.316  1.4846 -0.8409 -2.2857
44962SOL     OW43663  11.313   6.728   5.075 -0.0792  0.2983  0.2538
44962SOL    HW143664  11.343   6.710   4.986  1.3460 -3.3886  1.3185
44962SOL    HW243665  11.236   6.674   5.087  0.4569 -0.2104  1.6152
44963SOL     OW43666   7.867   2.640   9.045 -0.1164 -0.0622  0.0276
44963SOL    HW143667   7.784   2.604   9.075 -0.5808  0.1662 -0.9236
44963SOL    HW243668   7.850   2.733   9.033 -0.2599 -0.2814 -1.8140
44964SOL     OW43669   0.150  10.008   9.169  0.1098  0.2366 -0.1876
44964SOL    HW143670   0.204   9.999   9.248  0.2259  0.3011 -0.2591
44964SOL    HW243671   0.196   9.957   9.103 -0.5927 -0.7952  0.0860
44965SOL     OW43672  12.297  10.082  12.545 -0.0447  0.0651 -0.3325
44965SOL    HW143673  12.248  10.119  12.619 -0.6712 -0.2255 -0.6010
44965SOL    HW243674  12.348  10.156  12.511 -1.1448  0.6544 -0.7463
44966SOL     OW43675   9.246  12.013   3.920  0.0188 -0.3124  0.4992
44966SOL    HW143676   9.326  12.024   3.868  0.7106 -2.0900  1.1138
44966SOL    HW243677   9.209  11.930   3.888  1.3301 -2.3676  3.8400
44967SOL     OW43678   8.229   2.808  11.292  0.5983  0.3587  0.4901
44967SOL    HW143679   8.210   2.717  11.316 -1.4165  0.1004 -1.7482
44967SOL    HW243680   8.274   2.802  11.208 -3.8545  1.3497 -2.2890
44968SOL     OW43681   0.144   3.775   3.418  0.6988 -0.4331  0.6298
44968SOL    HW143682   0.105   3.695   3.454 -2.4294  0.9301  0.5971
44968SOL    HW243683   0.115   3.845   3.476 -0.8273  1.2768 -1.9487
44969SOL     OW43684   1.406   5.252   0.432  0.3931 -0.3315  0.4712
44969SOL    HW143685   1.403   5.206   0.516  1.8244 -1.8659 -0.2728
44969SOL    HW243686   1.406   5.345   0.456 -1.3300 -0.6776  2.0603
44970SOL     OW43687  11.191   5.196   3.163 -0.0472  0.2242  0.4841
44970SOL    HW143688  11.198   5.285   3.197  0.1491  0.0111  1.0106
44970SOL    HW243689  11.117   5.158   3.210 -0.7247  0.3990 -0.4066
44971SOL     OW43690   4.761   8.092  10.519  0.6014  0.4244 -0.2364
44971SOL    HW143691   4.836   8.039  10.543  1.4230  1.1471 -1.1334
44971SOL    HW243692   4.792   8.147  10.447 -0.6875  0.9703 -0.4082
44972SOL     OW43693   7.020   1.640  10.311  0.3801 -0.6858  0.5630
44972SOL    HW143694   7.113   1.664  10.303  0.2664 -0.6616 -0.8568
44972SOL    HW243695   6.974   1.723  10.314 -0.0233 -0.4235 -4.4696
44973SOL     OW43696  11.420  10.269   1.270 -0.0225 -0.0718 -0.2323
44973SOL    HW143697  11.516  10.269   1.274  0.0721  1.8596 -1.0803
44973SOL    HW243698  11.393  10.217   1.345  1.6531 -3.2811 -1.6473
44974SOL     OW43699   6.673   1.574  10.121 -0.2164 -0.2315 -0.3597
44974SOL    HW143700   6.734   1.619  10.178 -0.1011 -1.6326  0.6738
44974SOL    HW243701   6.678   1.482  10.147  0.8610 -1.2090 -3.5043
44975SOL     OW43702   0.665   4.432   1.755 -0.5927 -0.0482 -0.4643
44975SOL    HW143703   0.606   4.388   1.817 -0.1968 -2.2289 -1.5285
44975SOL    HW243704   0.633   4.522   1.752 -0.7838  0.1227  2.6803
44976SOL     OW43705   0.406   0.600  12.430 -0.4875 -0.1904  0.3716
44976SOL    HW143706   0.447   0.640  12.508  1.2236 -1.3168  0.0980
44976SOL    HW243707   0.316   0.634  12.431 -0.4794 -0.0251  2.7422
44977SOL     OW43708   1.002  10.156  12.339  0.6356 -0.2501  0.5133
44977SOL    HW143709   1.080  10.134  12.289  1.8054  0.3709  1.9647
44977SOL    HW243710   1.036  10.185  12.424 -1.2368 -1.0349  1.5844
44978SOL     OW43711   0.450   5.781  11.705 -0.5650  0.1734 -0.2489
44978SOL    HW143712   0.371   5.777  11.758 -0.5140 -0.3616 -0.2059
44978SOL    HW243713   0.441   5.861  11.653 -0.2040  1.1987  1.2067
44979SOL     OW43714   8.078   9.551   2.732 -0.3233 -0.5080 -0.0106
44979SOL    HW143715   8.014   9.588   2.672 -0.5759  0.3652  0.7794
44979SOL    HW243716   8.133   9.625   2.758 -0.2255 -0.8643  0.8393
44980SOL     OW43717   1.172   0.007  12.535  0.3381 -0.4002 -0.1207
44980SOL    HW143718   1.175  -0.068  12.476 -0.4743  1.7063 -3.0714
44980SOL    HW243719   1.079   0.029  12.540  0.4402 -0.2057  1.6449
44981SOL     OW43720   4.498   2.108   6.671  0.1557  0.1246  0.3286
44981SOL    HW143721   4.443   2.031   6.658  0.5875 -0.5993  2.3402
44981SOL    HW243722   4.436   2.180   6.683 -0.5039 -0.7635  3.0905
44982SOL     OW43723  10.727  10.441   0.550  0.6002 -0.3131 -0.3199
44982SOL    HW143724  10.793  10.452   0.482 -0.2459  0.5021 -1.0391
44982SOL    HW243725  10.774  10.403   0.624  2.3533  2.2952  0.0051
44983SOL     OW43726   7.820   1.828   0.980  0.1326  0.5062  0.0773
44983SOL    HW143727   7.875   1.904   0.960 -0.8121  0.9697 -0.8477
44983SOL    HW243728   7.731   1.856   0.956 -0.4343 -0.4072  1.0475
44984SOL     OW43729   1.552  12.009   2.799  0.2896 -0.5174 -0.3144
44984SOL    HW143730   1.626  12.069   2.799  0.6142 -0.8778  0.7796
44984SOL    HW243731   1.576  11.940   2.737 -0.6170  1.0581 -2.5038
44985SOL     OW43732   0.187   3.585   4.422 -0.4619 -0.0226 -0.0266
44985SOL    HW143733   0.183   3.491   4.440 -0.7807 -0.1125 -0.5333
44985SOL    HW243734   0.248   3.593   4.348  1.4507  0.4132  1.5108
44986SOL     OW43735   2.453   1.416  10.888 -0.6628  0.0490  0.0058
44986SOL    HW143736   2.382   1.455  10.939 -1.7230 -0.3268 -1.1357
44986SOL    HW243737   2.429   1.323  10.883  1.2033 -0.5874  1.6868
44987SOL     OW43738   5.405  12.148   3.520  0.0431 -0.0442 -0.4196
44987SOL    HW143739   5.463  12.222   3.540 -2.4444  1.8672  0.2445
44987SOL    HW243740   5.386  12.158   3.426 -0.1408  0.0710 -0.3716
44988SOL     OW43741   8.481   2.854   1.973  0.5400 -0.6193 -0.1032
44988SOL    HW143742   8.577   2.855   1.969  0.5232  0.7450 -1.3602
44988SOL    HW243743   8.458   2.933   2.021  0.0414 -1.2089  0.6443
44989SOL     OW43744   7.823   3.164   1.861 -0.1838 -0.2847 -0.0899
44989SOL    HW143745   7.820   3.168   1.765  0.3774 -1.2114 -0.1589
44989SOL    HW243746   7.738   3.130   1.887 -0.4586  0.2781 -0.2301
44990SOL     OW43747   2.431   6.432   8.717 -0.2338 -0.1003 -0.4609
44990SOL    HW143748   2.513   6.462   8.678  0.0150  1.6802  1.2862
44990SOL    HW243749   2.366   6.498   8.693 -0.1423  0.8797  1.6918
44991SOL     OW43750   2.580   4.202   9.496  0.0685 -0.1870  0.2489
44991SOL    HW143751   2.589   4.297   9.499 -0.0282 -0.1844  0.4578
44991SOL    HW243752   2.622   4.171   9.576 -1.0976 -0.2207  0.8756
44992SOL     OW43753   8.125   3.814   8.943 -0.1213  0.1114  0.2923
44992SOL    HW143754   8.043   3.863   8.953 -0.6913 -1.1003  1.9778
44992SOL    HW243755   8.157   3.803   9.032  0.7830 -1.2345 -0.1723
44993SOL     OW43756  11.699   7.384   0.648  0.4827 -0.2707 -0.4213
44993SOL    HW143757  11.718   7.359   0.738 -0.4912 -1.7328 -0.5890
44993SOL    HW243758  11.623   7.441   0.654 -0.6826 -1.7657 -0.4043
44994SOL     OW43759   9.019  12.495   2.535  0.2337 -0.4613 -0.1022
44994SOL    HW143760   9.049  12.407   2.514 -0.6060 -1.0210  0.9306
44994SOL    HW243761   9.065  12.552   2.473  0.4677 -1.6577 -1.0587
44995SOL     OW43762   5.443   7.070   3.476 -0.0200 -0.1658 -0.0295
44995SOL    HW143763   5.443   7.154   3.430  1.9029  0.3643  0.8373
44995SOL    HW243764   5.484   7.089   3.560  1.9497 -2.2684 -0.4229
44996SOL     OW43765  10.848  10.679  11.957  0.5696 -0.8586 -0.6326
44996SOL    HW143766  10.793  10.600  11.957  0.6886 -0.9427 -0.8891
44996SOL    HW243767  10.937  10.645  11.952  0.9763 -0.9287  3.5757
44997SOL     OW43768   1.407   9.660   2.149 -0.8807  0.0768  0.3966
44997SOL    HW143769   1.350   9.691   2.219  0.2160 -1.0594  1.8317
44997SOL    HW243770   1.496   9.669   2.184 -0.4107 -2.6626  0.0873
44998SOL     OW43771  11.950   1.606  11.690 -0.6278 -0.4540 -0.4949
44998SOL    HW143772  12.033   1.593  11.645 -0.1800 -1.7430  0.6345
44998SOL    HW243773  11.922   1.518  11.715 -2.0880  0.0021 -0.4119
44999SOL     OW43774  11.376   1.206   9.628  0.4222 -0.1213 -0.4082
44999SOL    HW143775  11.319   1.190   9.703  2.3244  1.2393  1.4635
44999SOL    HW243776  11.370   1.126   9.575 -1.5063 -0.8479  0.8051
45000SOL     OW43777   3.970   4.851   8.365 -0.3213 -0.2755 -0.2146
45000SOL    HW143778   3.901   4.902   8.323  1.1143  0.3649 -1.9628
45000SOL    HW243779   4.007   4.798   8.293  2.0149  0.5860  0.2564
45001SOL     OW43780  11.190   3.804   7.532  0.1456  0.1004 -0.0791
45001SOL    HW143781  11.128   3.851   7.476  1.1275  1.3790 -0.1423
45001SOL    HW243782  11.165   3.712   7.523 -2.3594  0.6209  0.6947
45002SOL     OW43783   3.765  11.184   7.004 -0.5981  0.0110  0.3008
45002SOL    HW143784   3.763  11.112   7.067  0.8991 -0.9296 -0.6588
45002SOL    HW243785   3.679  11.180   6.961 -1.2828  0.0865  1.6075
45003SOL     OW43786   2.195   8.056   7.755  0.1609 -0.2258 -0.4084
45003SOL    HW143787   2.265   8.043   7.692  0.3088 -0.8018 -0.1310
45003SOL    HW243788   2.228   8.017   7.836 -1.0665 -1.8422 -0.6475
45004SOL     OW43789   1.504   1.367   8.158 -0.3014  0.2127 -0.3652
45004SOL    HW143790   1.553   1.310   8.099 -0.7268 -0.5172 -0.0293
45004SOL    HW243791   1.483   1.312   8.233 -1.1389  0.6696 -0.2456
45005SOL     OW43792   1.351   3.182   9.905 -0.2619 -0.1974  0.2371
45005SOL    HW143793   1.405   3.261   9.914 -1.1711  0.5293 -0.4176
45005SOL    HW243794   1.401   3.124   9.849 -0.0325  0.3539 -0.1361
45006SOL     OW43795  11.041   4.847   8.606  0.5824  0.3229  0.4503
45006SOL    HW143796  11.011   4.875   8.520  1.4151  2.0075  0.6542
45006SOL    HW243797  11.102   4.775   8.588  0.9193  0.8098 -0.3905
45007SOL     OW43798   3.324   9.022   6.813  0.1903 -0.1709  0.2256
45007SOL    HW143799   3.236   8.985   6.811 -0.7570  1.8834 -2.7086
45007SOL    HW243800   3.315   9.102   6.865 -0.0628  0.6963 -1.0895
45008SOL     OW43801   9.656   3.167   5.148 -0.4193  0.0540 -0.1175
45008SOL    HW143802   9.747   3.189   5.124 -0.2764 -0.4005  0.0015
45008SOL    HW243803   9.622   3.247   5.188  0.2393 -0.0777  0.7248
45009SOL     OW43804   2.887   1.042   8.483 -0.0614 -0.0716  0.1294
45009SOL    HW143805   2.851   0.959   8.450 -1.7325  1.1981 -1.4165
45009SOL    HW243806   2.980   1.038   8.460  0.5857 -2.6656  2.6291
45010SOL     OW43807   6.840   2.335   2.776  0.4983  0.2953 -0.2121
45010SOL    HW143808   6.793   2.408   2.736 -0.9295  0.3364  1.4160
45010SOL    HW243809   6.774   2.289   2.827  1.4559 -1.9550 -0.9043
45011SOL     OW43810   5.916   8.060   2.185  0.0827  0.0356  0.0392
45011SOL    HW143811   5.828   8.023   2.194 -0.3457  1.0050  0.0302
45011SOL    HW243812   5.949   8.063   2.275 -0.7953  1.7171  0.3608
45012SOL     OW43813   3.648   5.990  10.581 -0.5960  0.5391 -0.8804
45012SOL    HW143814   3.570   5.993  10.636 -1.9389 -2.2796 -2.4206
45012SOL    HW243815   3.716   5.954  10.638 -1.6961 -1.3750 -0.7100
45013SOL     OW43816   2.422   6.216  10.825  0.3245 -0.0984  0.1543
45013SOL    HW143817   2.327   6.219  10.815  0.2442  1.2931  1.0170
45013SOL    HW243818   2.436   6.158  10.900  0.1433 -0.1584  0.1430
45014SOL     OW43819   0.387  11.272   1.250 -0.3890  0.2609  0.3493
45014SOL    HW143820   0.294  11.254   1.246  0.0763 -2.3657 -1.1261
45014SOL    HW243821   0.416  11.238   1.335 -0.4263 -1.2765 -0.2162
45015SOL     OW43822  10.965   5.708  11.166  0.3696  0.0534 -0.2434
45015SOL    HW143823  10.932   5.777  11.110  1.4541  1.7029  1.0656
45015SOL    HW243824  11.051   5.738  11.195  0.5373 -1.4607  1.0219
45016SOL     OW43825   2.876   4.044   5.683  0.2107  0.3793  0.0492
45016SOL    HW143826   2.810   4.062   5.615 -0.4444 -0.6320  0.3945
45016SOL    HW243827   2.826   4.002   5.754  0.7912  1.8818  1.3888
45017SOL     OW43828   5.207   3.029  10.070  1.0338  0.1934 -0.0980
45017SOL    HW143829   5.217   3.110  10.120  2.7498 -0.3545  0.5101
45017SOL    HW243830   5.113   3.010  10.073  0.8188  1.3265  1.0642
45018SOL     OW43831  12.450   1.133  11.931  0.5531  0.2340 -0.1285
45018SOL    HW143832  12.441   1.207  11.990  0.3469  1.2360 -1.3607
45018SOL    HW243833  12.382   1.071  11.958 -1.5968  1.9956 -1.1842
45019SOL     OW43834   8.683   6.377   3.814  0.0918  0.3591  0.4077
45019SOL    HW143835   8.718   6.295   3.779  1.2719  0.9309  0.1999
45019SOL    HW243836   8.594   6.382   3.778  0.5718 -0.0439 -0.8948
45020SOL     OW43837   4.774   3.918   4.093  0.5268 -0.1242 -0.2083
45020SOL    HW143838   4.802   3.927   4.002 -0.2272 -2.1216 -0.6993
45020SOL    HW243839   4.842   3.863   4.133 -0.2444 -1.0809 -0.1726
45021SOL     OW43840   2.707   0.283   2.961 -0.4728 -0.1871  0.2804
45021SOL    HW143841   2.775   0.333   3.007 -0.7396  0.1404  0.3263
45021SOL    HW243842   2.755   0.222   2.905 -0.1433 -0.4076  0.7971
45022SOL     OW43843  10.112   4.413  10.231 -0.2279  0.4413  0.3924
45022SOL    HW143844  10.201   4.442  10.212 -0.0674 -0.7249 -0.8551
45022SOL    HW243845  10.065   4.492  10.258  1.0571  1.1482  0.6125
45023SOL     OW43846   3.841   8.119   3.877  0.0589 -0.6108  0.1147
45023SOL    HW143847   3.933   8.142   3.878 -0.3076  1.0371 -0.9941
45023SOL    HW243848   3.794   8.201   3.893 -1.2313 -1.0958 -0.8981
45024SOL     OW43849   5.882   7.171   1.554 -0.3783 -0.0164  0.0199
45024SOL    HW143850   5.815   7.239   1.553 -0.0450  0.3449  1.1797
45024SOL    HW243851   5.925   7.180   1.639  0.4438 -0.9263 -0.2765
45025SOL     OW43852  11.154  11.191   9.899 -0.1419 -0.5969 -0.6223
45025SOL    HW143853  11.169  11.283   9.921 -0.0702 -0.9247  0.8542
45025SOL    HW243854  11.185  11.182   9.809  0.1965  0.7323 -0.6642
45026SOL     OW43855   9.243   0.630   4.583 -0.1772  0.0105 -0.4012
45026SOL    HW143856   9.274   0.564   4.521 -1.0196 -0.3725 -0.4223
45026SOL    HW243857   9.150   0.641   4.564 -0.2964  0.4026  0.3309
45027SOL     OW43858  10.628   3.777  11.317  0.3723 -0.2982  0.4788
45027SOL    HW143859  10.676   3.695  11.334  0.1839 -0.3767  0.6370
45027SOL    HW243860  10.591   3.801  11.402 -0.9238 -0.9150  0.1207
45028SOL     OW43861   6.659  10.180  11.157  0.2907  0.4807 -0.4799
45028SOL    HW143862   6.608  10.233  11.217  2.3426  1.3619  0.5732
45028SOL    HW243863   6.628  10.206  11.070 -1.4498  0.5077  0.1072
45029SOL     OW43864   2.055  11.206   7.315 -0.1632  0.1565  0.8097
45029SOL    HW143865   2.147  11.217   7.339 -0.5952  2.0366  1.7637
45029SOL    HW243866   2.053  11.218   7.220  0.3894  1.8427  0.9748
45030SOL     OW43867   4.154   6.011   2.578 -0.4397  0.3678  0.4180
45030SOL    HW143868   4.174   5.968   2.494  1.0794  0.4312  0.7261
45030SOL    HW243869   4.114   5.942   2.631  1.0520 -0.4206  0.5534
45031SOL     OW43870   9.075   9.327   1.707 -0.1585 -0.2886 -0.2714
45031SOL    HW143871   9.133   9.391   1.666 -1.6931  0.4931 -1.3249
45031SOL    HW243872   9.117   9.243   1.689  0.4552  0.2229 -1.3694
45032SOL     OW43873   5.270   3.148   4.216  0.4601  0.0569 -0.6498
45032SOL    HW143874   5.310   3.066   4.244  1.5192  1.1541  1.2956
45032SOL    HW243875   5.321   3.176   4.140  2.8574  0.8879  1.1454
45033SOL     OW43876  11.442   2.355   1.585  0.6648  0.5873  0.4675
45033SOL    HW143877  11.428   2.295   1.658  3.6946 -3.1541 -1.6198
45033SOL    HW243878  11.360   2.352   1.536  1.0786 -3.5353 -0.4158
45034SOL     OW43879   6.960   7.615   4.686  0.1086 -0.3420 -0.2728
45034SOL    HW143880   6.957   7.564   4.605  1.3901 -0.1247 -0.4887
45034SOL    HW243881   6.998   7.555   4.750 -0.0365 -0.2217 -0.0730
45035SOL     OW43882   4.829   1.496   7.984 -0.3083  0.2906  0.1273
45035SOL    HW143883   4.743   1.492   8.028 -0.4464  1.2141 -0.0380
45035SOL    HW243884   4.867   1.578   8.014 -1.1847  1.9398 -2.8620
45036SOL     OW43885   1.717   0.115   0.275  0.1663  0.2729 -0.1031
45036SOL    HW143886   1.788   0.133   0.337  0.9466  1.6597 -1.3344
45036SOL    HW243887   1.714   0.192   0.220 -1.0013 -0.6110 -1.3311
45037SOL     OW43888   9.341   3.793   9.413  0.3687  0.0187  0.0274
45037SOL    HW143889   9.427   3.805   9.453  0.4350 -1.2385  0.3042
45037SOL    HW243890   9.312   3.707   9.443  0.2325 -0.8114 -2.2843
45038SOL     OW43891   5.028   9.168   5.786 -0.1002 -0.2959  0.8468
45038SOL    HW143892   4.938   9.148   5.762 -0.1409  0.3219  0.4939
45038SOL    HW243893   5.079   9.149   5.707 -0.0681  0.4552  0.6835
45039SOL     OW43894   8.176   5.959   9.156 -0.7144  0.1499  0.2057
45039SOL    HW143895   8.114   6.032   9.160 -1.0102 -0.1564  1.4718
45039SOL    HW243896   8.226   5.975   9.076 -0.6534  1.8428  0.5493
45040SOL     OW43897   6.353   8.466   6.363 -0.2499  0.2285 -0.2169
45040SOL    HW143898   6.318   8.553   6.341 -1.8405 -0.4133 -0.3699
45040SOL    HW243899   6.348   8.417   6.281 -1.8367 -0.7646  0.4273
45041SOL     OW43900   1.081   6.494   4.566  0.0070 -0.2903  0.5324
45041SOL    HW143901   1.119   6.580   4.584 -1.7430  0.3922  1.2078
45041SOL    HW243902   1.148   6.431   4.596  0.5349  0.8411  1.8368
45042SOL     OW43903   8.740   2.491   6.384  0.6117  0.2464 -0.8700
45042SOL    HW143904   8.691   2.410   6.373  1.5567 -0.4107 -0.3663
45042SOL    HW243905   8.767   2.515   6.295 -1.5887  1.2820 -1.3289
45043SOL     OW43906  11.276   1.498   8.341 -0.0449 -0.1129 -0.4443
45043SOL    HW143907  11.252   1.424   8.397 -0.5543  0.5509  0.2430
45043SOL    HW243908  11.234   1.479   8.257 -0.0442 -0.6750 -0.3238
45044SOL     OW43909  12.090   4.306   4.013  0.2901 -0.3747 -0.8118
45044SOL    HW143910  12.032   4.375   3.981  0.2579  0.0290  0.0869
45044SOL    HW243911  12.060   4.288   4.102  0.7066 -1.1031 -0.8064
45045SOL     OW43912   3.047   6.089   8.653 -0.2115  0.2308  0.2342
45045SOL    HW143913   3.043   6.184   8.653  1.6501  0.3557  0.3000
45045SOL    HW243914   3.051   6.065   8.746  1.9374  0.3133  0.2208
45046SOL     OW43915   5.760  10.263   2.769 -0.4024 -0.2238  0.6355
45046SOL    HW143916   5.760  10.306   2.683 -0.6101 -1.8366 -0.2184
45046SOL    HW243917   5.831  10.305   2.817  0.2515  0.1573 -0.6128
45047SOL     OW43918   4.392   9.825   7.516 -0.1773  0.1088  0.0085
45047SOL    HW143919   4.445   9.757   7.474 -0.5783  0.3624 -0.9327
45047SOL    HW243920   4.350   9.871   7.443 -0.6572  0.7561  0.6807
45048SOL     OW43921  12.004   2.230  10.669  0.0049 -0.3281  0.1355
45048SOL    HW143922  12.086   2.244  10.622 -0.3429  2.0251  0.1366
45048SOL    HW243923  12.009   2.289  10.745 -1.0013 -1.3788  1.0670
45049SOL     OW43924   7.005  10.443   7.183  0.0779 -0.9550 -0.0321
45049SOL    HW143925   6.990  10.418   7.092  1.0287 -1.0691 -0.1703
45049SOL    HW243926   6.942  10.513   7.200 -0.8131 -1.6460 -0.4495
45050SOL     OW43927  12.605   7.736   5.020 -0.2675 -0.4540 -0.3858
45050SOL    HW143928  12.520   7.777   5.035  0.2573  1.9180 -3.0714
45050SOL    HW243929  12.597   7.695   4.934  1.1805 -0.4792 -0.5370
45051SOL     OW43930   8.885   6.803  10.187  0.5648 -0.5040 -0.2871
45051SOL    HW143931   8.916   6.847  10.266 -0.0437  1.2747 -1.0036
45051SOL    HW243932   8.803   6.846  10.165  0.8775 -0.7307 -2.0688
45052SOL     OW43933   1.948   3.782   6.642 -0.3288 -0.7870  0.1359
45052SOL    HW143934   1.942   3.764   6.548  1.2296 -0.4429 -0.0484
45052SOL    HW243935   1.891   3.716   6.682 -1.5700 -0.5003 -1.0680
45053SOL     OW43936   0.549   8.512   2.634 -0.2807 -0.1061  0.1671
45053SOL    HW143937   0.622   8.454   2.613  0.4092  1.2120 -1.2224
45053SOL    HW243938   0.580   8.600   2.612 -2.3288  0.4773 -0.6568
45054SOL     OW43939   7.963   5.180   7.136  0.1190 -0.0461 -0.4600
45054SOL    HW143940   7.993   5.270   7.124 -1.1151  0.6290  1.0656
45054SOL    HW243941   7.882   5.189   7.186 -0.6771 -1.9577 -1.3063
45055SOL     OW43942   6.363   8.667  11.716 -0.0455 -0.5251  0.0100
45055SOL    HW143943   6.333   8.757  11.726 -0.6135 -0.6658 -0.3334
45055SOL    HW243944   6.318   8.636  11.638  0.0314 -1.1509  0.2079
45056SOL     OW43945   8.027   1.025   7.842 -0.3374  0.2721 -0.0878
45056SOL    HW143946   8.085   1.034   7.917  1.1841  0.2758 -1.2255
45056SOL    HW243947   7.974   1.105   7.843  0.1303  0.5856  0.5721
45057SOL     OW43948   9.395   2.008   3.695  0.0134 -0.2212  0.1455
45057SOL    HW143949   9.338   1.946   3.650 -1.1771  0.7124  0.3285
45057SOL    HW243950   9.427   1.959   3.771  0.5513 -1.1931 -0.6853
45058SOL     OW43951   2.830   4.836   2.355  1.0515 -0.1080 -0.7788
45058SOL    HW143952   2.802   4.821   2.264  0.3233  2.1624 -0.9918
45058SOL    HW243953   2.923   4.816   2.355  1.1042  0.0373 -2.0769
45059SOL     OW43954   9.265   6.776   2.765 -0.7813  0.2063 -0.6446
45059SOL    HW143955   9.278   6.687   2.733  3.0923  0.6682 -0.8742
45059SOL    HW243956   9.201   6.814   2.705  2.5956 -0.4194 -5.1005
45060SOL     OW43957   5.485  10.739   6.309 -0.3070  0.5714 -0.0077
45060SOL    HW143958   5.554  10.733   6.376 -2.0323 -0.0113  1.8439
45060SOL    HW243959   5.516  10.806   6.248  2.0192  0.1046  0.5532
45061SOL     OW43960   6.528   9.649   9.235 -0.6501 -0.1573 -0.3792
45061SOL    HW143961   6.442   9.638   9.196 -0.4354 -0.3177 -0.8094
45061SOL    HW243962   6.588   9.602   9.177 -0.1117  0.9279 -0.7398
45062SOL     OW43963   5.953  11.530   1.528  0.2434 -0.3424 -0.1324
45062SOL    HW143964   5.891  11.562   1.594 -0.6951  0.2806 -1.2738
45062SOL    HW243965   5.920  11.444   1.503  2.4728 -2.1595  2.5488
45063SOL     OW43966   2.050   1.865  12.038 -0.1845 -0.0400 -0.4750
45063SOL    HW143967   2.059   1.833  11.948 -0.4705  1.7873 -1.1833
45063SOL    HW243968   1.961   1.899  12.044 -0.0704  0.1394  0.4212
45064SOL     OW43969   4.060  11.445   9.702  0.0291 -0.3474  0.2672
45064SOL    HW143970   3.982  11.395   9.683 -0.2353  0.4469 -0.8294
45064SOL    HW243971   4.028  11.526   9.742  0.3757 -0.5683  1.0050
45065SOL     OW43972   6.231   8.248  11.500 -0.1533 -0.1031 -0.9051
45065SOL    HW143973   6.277   8.165  11.497 -0.1992 -0.2877  1.6048
45065SOL    HW243974   6.166   8.242  11.430  0.4454 -1.7996 -1.3576
45066SOL     OW43975   4.335   0.248   7.902  0.1751  0.7516  0.0257
45066SOL    HW143976   4.287   0.190   7.961  0.8900  0.8207  0.6929
45066SOL    HW243977   4.391   0.189   7.851  1.4259  0.8781  1.1945
45067SOL     OW43978   8.586  11.559   1.264 -0.4525  0.0629  0.4212
45067SOL    HW143979   8.609  11.580   1.174 -1.7186 -1.8902 -0.4192
45067SOL    HW243980   8.508  11.612   1.281  0.0125  0.7249  0.5168
45068SOL     OW43981   6.572   7.165   8.682  0.2341 -0.0439 -0.6586
45068SOL    HW143982   6.513   7.194   8.613 -0.3208 -2.8990 -1.4971
45068SOL    HW243983   6.605   7.080   8.652  3.2468  0.5136  0.7010
45069SOL     OW43984   0.164   5.357   4.587  0.2946  0.0720 -0.1628
45069SOL    HW143985   0.104   5.323   4.654 -0.8544 -0.3484 -1.3543
45069SOL    HW243986   0.202   5.279   4.547  2.6488  0.3419  1.3920
45070SOL     OW43987   1.141  11.112  11.658 -0.3695  0.7356  0.0431
45070SOL    HW143988   1.079  11.174  11.620 -1.3553 -0.1260  0.1719
45070SOL    HW243989   1.202  11.092  11.587 -2.5965 -1.3908 -1.4679
45071SOL     OW43990   8.733   3.989   5.664  0.0277 -0.4264 -0.1920
45071SOL    HW143991   8.682   4.064   5.633 -1.0083 -0.9050  0.2989
45071SOL    HW243992   8.726   3.925   5.593  1.0141 -0.0381 -0.6646
45072SOL     OW43993   3.122   5.810   4.711 -0.0508 -0.1857 -0.0464
45072SOL    HW143994   3.074   5.764   4.642 -0.8379 -0.7774  0.8673
45072SOL    HW243995   3.187   5.747   4.741  0.9478  0.4186 -0.9018
45073SOL     OW43996   6.987   6.928  10.079  0.2334  0.1485 -0.2770
45073SOL    HW143997   6.900   6.968  10.088  0.5228  0.7340 -0.0498
45073SOL    HW243998   6.982   6.880   9.997 -0.8622 -1.2418  0.5568
45074SOL     OW43999   8.361   4.362   6.066 -0.4162  0.2073  0.2541
45074SOL    HW144000   8.295   4.294   6.080 -0.5825  0.3792  0.3197
45074SOL    HW244001   8.371   4.367   5.971 -0.7275  0.3953  0.2294
45075SOL     OW44002  12.002   5.897  11.132  0.0031  0.7173  0.6090
45075SOL    HW144003  12.089   5.870  11.103 -0.3628  0.2229 -0.0458
45075SOL    HW244004  11.942   5.841  11.083 -0.7609  2.4159 -0.5125
45076SOL     OW44005   2.500   2.659   3.875  0.8453 -0.1974 -0.6310
45076SOL    HW144006   2.509   2.652   3.780  0.8355 -0.1411 -0.6362
45076SOL    HW244007   2.582   2.624   3.910  0.7075 -0.5324 -0.6501
45077SOL     OW44008   4.723   4.832   9.395  0.5529 -0.0473 -0.2809
45077SOL    HW144009   4.682   4.766   9.451  0.1947 -1.1233 -1.7428
45077SOL    HW244010   4.771   4.889   9.455 -3.4648  1.6784  1.7239
45078SOL     OW44011   0.210   9.909   7.762 -0.1697 -0.1486 -0.8014
45078SOL    HW144012   0.238   9.997   7.786  0.8448 -0.5836 -0.3426
45078SOL    HW244013   0.173   9.873   7.843 -1.5203  0.2012 -1.2457
45079SOL     OW44014   0.431   9.868   4.596  0.3303  0.3710  0.4744
45079SOL    HW144015   0.418   9.841   4.687  0.8213  0.4257  0.5659
45079SOL    HW244016   0.364   9.821   4.547  0.4864 -0.1779  0.7802
45080SOL     OW44017   2.465  11.048   9.767 -0.9148  0.3374 -0.2885
45080SOL    HW144018   2.516  11.055   9.686 -0.4874  1.5275  0.0559
45080SOL    HW244019   2.465  10.954   9.788  0.2497  0.1930 -0.8679
45081SOL     OW44020   5.092   3.975   7.261  0.4253  0.7054  0.0710
45081SOL    HW144021   5.026   4.015   7.317 -1.3175  2.3518 -2.9244
45081SOL    HW244022   5.174   3.982   7.311 -0.7546  3.2674  1.8563
45082SOL     OW44023   7.883   3.910   0.556  0.0091  0.0661 -0.7561
45082SOL    HW144024   7.810   3.870   0.604  0.1519  0.9849  0.2770
45082SOL    HW244025   7.853   3.998   0.536  1.0734  0.7124  0.3257
45083SOL     OW44026  10.407  12.155   1.663 -0.1570 -0.5946  0.0571
45083SOL    HW144027  10.436  12.063   1.660 -1.1326 -0.9357  0.5952
45083SOL    HW244028  10.312  12.150   1.669 -0.3721  0.4988 -1.8501
45084SOL     OW44029  12.293   7.499   7.714  0.1971 -0.4981  0.8660
45084SOL    HW144030  12.368   7.461   7.668  0.7501 -0.0831  1.4070
45084SOL    HW244031  12.299   7.465   7.803  0.4924  0.5459  1.2613
45085SOL     OW44032   1.096   0.969   0.324 -0.1072  0.1094  0.1642
45085SOL    HW144033   1.051   0.935   0.246  1.0353  0.6385 -0.7507
45085SOL    HW244034   1.026   0.982   0.388 -1.1119 -0.1016 -0.8594
45086SOL     OW44035   4.631   9.302   9.235  0.0921  0.1631 -0.1466
45086SOL    HW144036   4.614   9.228   9.177 -0.6340  1.0463 -1.1069
45086SOL    HW244037   4.675   9.264   9.311  1.0326 -1.0223 -1.2568
45087SOL     OW44038  11.509   5.228  10.247  0.1716 -0.5406 -0.4185
45087SOL    HW144039  11.511   5.228  10.151 -0.4565 -0.8297 -0.4345
45087SOL    HW244040  11.422   5.196  10.269 -0.3489  1.2165  0.2411
45088SOL     OW44041   7.122   8.990   7.273 -0.0696  0.7034 -0.0818
45088SOL    HW144042   7.142   8.909   7.225  0.0395  0.2266  0.7555
45088SOL    HW244043   7.090   8.960   7.358  0.4710  1.5468  0.4326
45089SOL     OW44044   0.937   5.616  10.994 -0.0043  0.0939  0.0031
45089SOL    HW144045   0.861   5.569  11.028  0.1099  0.3957  0.7031
45089SOL    HW244046   1.009   5.588  11.050  0.1309  0.8347  0.2095
45090SOL     OW44047   7.498   8.631   4.986 -0.2819 -0.4430 -0.2248
45090SOL    HW144048   7.538   8.593   4.908 -0.8445 -0.0095 -0.7342
45090SOL    HW244049   7.468   8.557   5.038 -0.8139 -0.7102 -0.9091
45091SOL     OW44050   1.380   7.211   1.410  0.4394  0.5318  0.1513
45091SOL    HW144051   1.389   7.306   1.402  0.3528  0.4810 -0.6315
45091SOL    HW244052   1.291   7.194   1.378  1.4527 -0.1151 -2.6521
45092SOL     OW44053  12.566   0.884  11.475 -0.1742 -0.1457  0.2055
45092SOL    HW144054  12.549   0.971  11.439 -0.5875 -0.0500  0.6199
45092SOL    HW244055  12.625   0.842  11.412 -1.1656 -0.1229 -0.7596
45093SOL     OW44056   3.483   5.942   2.854  0.3160  0.1838 -0.4508
45093SOL    HW144057   3.552   5.971   2.913 -1.3375  0.1425  1.6243
45093SOL    HW244058   3.453   6.022   2.810  0.0604  0.6037  0.4715
45094SOL     OW44059  12.603   7.007   5.729  0.5783 -0.0579  0.0323
45094SOL    HW144060  12.691   7.009   5.766  1.1842  0.2983 -1.3668
45094SOL    HW244061  12.557   6.940   5.780  2.1261 -1.3833 -0.2349
45095SOL     OW44062   4.991   3.932   2.415 -0.1310 -0.5297 -0.7266
45095SOL    HW144063   5.032   3.925   2.329  0.6459  1.0133 -0.5166
45095SOL    HW244064   5.040   4.001   2.460  0.3686 -2.2231  1.4814
45096SOL     OW44065   9.867   8.079   4.478  0.2283 -0.4972  0.0282
45096SOL    HW144066   9.874   7.984   4.467  1.0561 -0.3221 -1.1082
45096SOL    HW244067   9.913   8.096   4.560  1.0811 -0.9591 -0.3406
45097SOL     OW44068   0.448  12.469   3.737  0.0627  0.1675 -0.1379
45097SOL    HW144069   0.538  12.500   3.728  1.1356 -1.5190  3.1516
45097SOL    HW244070   0.400  12.545   3.769  0.5329  0.8157 -0.9300
45098SOL     OW44071   1.037   1.768   8.552  0.3943 -0.1397 -0.4308
45098SOL    HW144072   1.098   1.841   8.556  1.2407 -0.8625  0.8851
45098SOL    HW244073   0.952   1.807   8.530  0.8976  1.1802 -0.0718
45099SOL     OW44074   6.622  10.274   5.349  0.3635  0.0812 -0.2634
45099SOL    HW144075   6.526  10.272   5.348  0.2396  1.8633  1.3297
45099SOL    HW244076   6.645  10.340   5.283  0.4366  0.3565  0.0357
45100SOL     OW44077   0.775  10.218   2.582  0.3245 -0.0548 -0.0353
45100SOL    HW144078   0.842  10.232   2.649  1.1690 -0.7686 -0.6976
45100SOL    HW244079   0.819  10.238   2.500 -0.3150 -0.4168 -0.4739
45101SOL     OW44080   0.773   3.826   5.731 -0.2888  0.3195 -0.2321
45101SOL    HW144081   0.697   3.778   5.766  0.3191  1.9501  3.8719
45101SOL    HW244082   0.835   3.758   5.707 -1.1017 -1.0447  1.3223
45102SOL     OW44083   6.768   1.278  11.940  0.3272  0.1494  0.3344
45102SOL    HW144084   6.825   1.268  12.016  2.2023  1.7664 -0.7383
45102SOL    HW244085   6.809   1.225  11.872  0.2481  0.8533 -0.2823
45103SOL     OW44086   4.752   4.635   3.308 -0.1418 -0.3942 -0.1097
45103SOL    HW144087   4.780   4.650   3.398 -1.6022 -0.2336  0.3428
45103SOL    HW244088   4.813   4.688   3.256 -1.1171  1.9930  1.0058
45104SOL     OW44089   6.675  11.291   2.194 -0.2314  0.1786  0.0046
45104SOL    HW144090   6.736  11.227   2.233  0.0692  0.3493 -0.1865
45104SOL    HW244091   6.731  11.350   2.144 -0.4559  0.8707  0.5495
45105SOL     OW44092   9.443   3.594   6.536  0.2649 -0.4667  0.4517
45105SOL    HW144093   9.534   3.606   6.507  1.2505 -0.0146  3.4157
45105SOL    HW244094   9.425   3.671   6.590 -3.0348  1.0344 -2.3709
45106SOL     OW44095   9.772   7.226   8.276  0.4038 -0.1057 -0.3827
45106SOL    HW144096   9.750   7.137   8.247  0.9139 -0.3185 -0.1494
45106SOL    HW244097   9.813   7.266   8.199 -2.0527  0.8073 -1.3090
45107SOL     OW44098   6.180  10.392   9.309 -0.4817 -0.1498  0.1364
45107SOL    HW144099   6.219  10.408   9.395  0.3267 -0.1739 -0.2134
45107SOL    HW244100   6.163  10.480   9.275  1.0187 -0.0534 -0.4696
45108SOL     OW44101   1.268   3.854   6.748  0.0361 -0.0292 -0.6396
45108SOL    HW144102   1.358   3.860   6.716  0.1240  0.8464 -0.2880
45108SOL    HW244103   1.277   3.832   6.841 -0.0586  0.9466 -0.3824
45109SOL     OW44104   9.055   6.095   8.876 -0.1273 -0.7112  0.2581
45109SOL    HW144105   9.134   6.127   8.920  0.7269 -0.1257 -1.5662
45109SOL    HW244106   8.985   6.107   8.939  1.0922 -0.3892  1.6033
45110SOL     OW44107   4.838   6.304   6.627 -0.0796 -0.2497 -0.3710
45110SOL    HW144108   4.816   6.359   6.552 -0.1816 -0.8561 -0.8026
45110SOL    HW244109   4.933   6.295   6.623  0.0317  0.6025  0.2167
45111SOL     OW44110   6.592   5.159   3.541 -0.1287  0.1495  0.1101
45111SOL    HW144111   6.680   5.123   3.551  0.1875  0.4773 -1.2947
45111SOL    HW244112   6.538   5.109   3.602  1.4666  1.7206  3.0578
45112SOL     OW44113   9.856   8.290   2.340  0.1425 -0.4786 -0.2312
45112SOL    HW144114   9.919   8.218   2.333 -0.9891 -1.7662  1.8774
45112SOL    HW244115   9.865   8.321   2.430  0.0740  1.5682 -0.8914
45113SOL     OW44116   8.277   6.310  10.007  0.3598  0.0201  0.0397
45113SOL    HW144117   8.298   6.284  10.097 -1.1540 -0.8658  0.1719
45113SOL    HW244118   8.258   6.227   9.962  4.5366 -0.0392 -2.1470
45114SOL     OW44119   3.572   4.842   1.000 -0.0424  0.2296  0.3734
45114SOL    HW144120   3.667   4.847   0.991  0.2598 -1.0097  2.1824
45114SOL    HW244121   3.554   4.884   1.084 -1.0781  0.3036  0.1189
45115SOL     OW44122   4.558  10.679   7.986 -0.4190  0.1746 -0.1735
45115SOL    HW144123   4.524  10.636   7.908 -1.2386  0.1334  0.1940
45115SOL    HW244124   4.482  10.685   8.045  0.4310 -0.7952  1.0646
45116SOL     OW44125  10.650   6.116   4.441 -0.0170  0.5501 -0.0340
45116SOL    HW144126  10.634   6.191   4.497  0.0938 -0.3113  1.1985
45116SOL    HW244127  10.682   6.048   4.501  1.7638  0.1157 -1.3649
45117SOL     OW44128   7.155   0.258   8.243  0.2362  0.3030 -0.0605
45117SOL    HW144129   7.059   0.264   8.238  0.1346 -0.0768  1.1524
45117SOL    HW244130   7.178   0.305   8.323  0.8516 -1.4462  0.8436
45118SOL     OW44131   8.447   3.202   6.063  0.1909 -0.2782 -0.4282
45118SOL    HW144132   8.439   3.284   6.111 -0.7361 -0.6608  0.0941
45118SOL    HW244133   8.531   3.209   6.017 -0.7151  1.7747 -1.9591
45119SOL     OW44134   3.285   3.821   5.746  0.1889 -0.8824  0.0989
45119SOL    HW144135   3.212   3.782   5.698 -0.7749  0.1663  0.6787
45119SOL    HW244136   3.244   3.881   5.808  1.6035  1.7778 -1.3611
45120SOL     OW44137   1.349   0.074   8.303 -0.7580 -0.3293 -0.0496
45120SOL    HW144138   1.327   0.008   8.237 -1.4906 -0.3519  0.2143
45120SOL    HW244139   1.438   0.050   8.331 -0.4851 -0.3899 -0.9301
45121SOL     OW44140  12.400   8.921  11.717  0.3919  0.2815 -0.2067
45121SOL    HW144141  12.331   8.885  11.773 -0.0480  0.0606 -0.8864
45121SOL    HW244142  12.443   8.987  11.772 -0.7506  0.8522  0.0357
45122SOL     OW44143  12.528   2.134   4.430 -0.3244  0.2270 -0.6455
45122SOL    HW144144  12.499   2.046   4.456 -0.8473 -0.0632 -2.1370
45122SOL    HW244145  12.516   2.187   4.509 -1.1449 -0.7780 -0.0644
45123SOL     OW44146  11.455   9.163   1.343  0.4362 -0.2916  0.0037
45123SOL    HW144147  11.529   9.126   1.294 -0.1646 -1.7351  0.1308
45123SOL    HW244148  11.412   9.087   1.383 -1.6911  0.4048 -0.8234
45124SOL     OW44149   6.110  11.964   4.293 -0.1006  0.3462 -0.5983
45124SOL    HW144150   6.130  11.924   4.208  2.6007  0.1124  0.0413
45124SOL    HW244151   6.087  11.890   4.349  0.4067  0.2179 -0.5548
45125SOL     OW44152  11.106  12.396  11.242  0.1651 -0.5540  0.1478
45125SOL    HW144153  11.055  12.320  11.214 -1.7864  0.5645  0.4860
45125SOL    HW244154  11.041  12.456  11.279  1.3083  2.2015 -1.9932
45126SOL     OW44155   5.826   8.182   8.912  0.5606 -0.2486 -0.2634
45126SOL    HW144156   5.788   8.148   8.993  0.8410  0.1098  0.0174
45126SOL    HW244157   5.915   8.148   8.912  0.3197 -0.9118 -0.8189
45127SOL     OW44158   1.391   1.358   2.150  0.2581 -0.9161 -0.6997
45127SOL    HW144159   1.379   1.447   2.116  1.4315 -1.0491 -1.5088
45127SOL    HW244160   1.406   1.370   2.244  2.2031 -0.0701 -1.0676
45128SOL     OW44161  12.402   5.228   1.654  0.0235 -0.1183  0.0821
45128SOL    HW144162  12.445   5.148   1.686 -0.6268  0.2055  1.8765
45128SOL    HW244163  12.309   5.207   1.656 -0.2074  0.9454  1.4124
45129SOL     OW44164  11.512  11.989   9.213  0.0258  0.6183  0.0119
45129SOL    HW144165  11.593  12.040   9.207  0.0043  0.5858 -0.5433
45129SOL    HW244166  11.540  11.904   9.248  0.2239  0.6209 -0.1378
45130SOL     OW44167   5.387  11.530   6.239 -0.3400 -0.5120 -0.1716
45130SOL    HW144168   5.368  11.484   6.157  1.0228 -1.0142 -0.2236
45130SOL    HW244169   5.346  11.616   6.227 -0.7283 -0.8108 -1.1139
45131SOL     OW44170  10.231   1.509   0.054 -0.0227 -0.0193  0.2369
45131SOL    HW144171  10.294   1.562   0.102 -2.0707  2.3059  0.5407
45131SOL    HW244172  10.260   1.419   0.067  2.3635  0.8690  1.5435
45132SOL     OW44173   8.803   1.761   2.136 -0.4855  0.1380 -0.4881
45132SOL    HW144174   8.797   1.711   2.218  0.4199  1.5610  0.4849
45132SOL    HW244175   8.817   1.851   2.164 -0.9453  0.7805 -2.2232
45133SOL     OW44176   1.685   2.145   3.036 -0.2992 -0.3338  0.2571
45133SOL    HW144177   1.700   2.224   3.088 -0.6975  1.6331 -2.4147
45133SOL    HW244178   1.767   2.132   2.988  0.4562 -2.7506  2.0498
45134SOL     OW44179   3.085   7.988   6.950  0.2147  0.0437  0.5850
45134SOL    HW144180   3.173   7.978   6.913  0.3135 -0.3283  0.9204
45134SOL    HW244181   3.027   7.987   6.874  0.3821 -1.0837  0.4637
45135SOL     OW44182   9.479   3.973   4.582  0.9347  0.3241 -0.0578
45135SOL    HW144183   9.468   3.915   4.507 -0.2006  0.5011 -0.0436
45135SOL    HW244184   9.390   3.996   4.608  1.2999  0.2264  1.3762
45136SOL     OW44185   7.918   2.629   6.594 -0.8717 -0.1546 -0.4594
45136SOL    HW144186   7.967   2.563   6.643 -1.8708 -0.6798 -0.1428
45136SOL    HW244187   7.957   2.713   6.621  0.4305 -0.5916 -0.8981
45137SOL     OW44188   3.808   8.910   1.850  0.6049  0.1491 -0.3167
45137SOL    HW144189   3.866   8.967   1.800  0.2654 -0.3867 -1.3644
45137SOL    HW244190   3.823   8.823   1.813  1.0016 -0.4272  1.1550
45138SOL     OW44191   9.156   0.786  11.958 -0.9292 -0.3286  0.3488
45138SOL    HW144192   9.087   0.824  12.013 -1.3842 -1.1870  0.3847
45138SOL    HW244193   9.195   0.861  11.914 -1.9616  0.1681  0.2415
45139SOL     OW44194  11.977   9.120   7.924 -0.1845 -0.3006  0.0055
45139SOL    HW144195  12.005   9.181   7.992 -3.0974 -0.0514  1.1012
45139SOL    HW244196  11.959   9.039   7.971  0.0798 -0.8784 -0.8684
45140SOL     OW44197  12.060   0.183   0.693  0.0970 -0.1947  0.4117
45140SOL    HW144198  12.149   0.147   0.692  0.0930 -0.2169  0.6440
45140SOL    HW244199  12.003   0.106   0.687  0.0924 -0.1166 -0.8674
45141SOL     OW44200   8.313   5.305   0.736  0.3348  0.1507  0.0918
45141SOL    HW144201   8.318   5.247   0.812 -0.5308 -1.4045 -0.9634
45141SOL    HW244202   8.356   5.385   0.763  1.5038 -0.9579  1.6673
45142SOL     OW44203  10.309   6.277   7.538 -0.1528  0.0323 -0.1629
45142SOL    HW144204  10.349   6.243   7.618  0.8664  1.0971 -0.2118
45142SOL    HW244205  10.310   6.202   7.477 -2.5787 -1.3591  1.3183
45143SOL     OW44206   8.346   8.784   0.874 -0.5022  0.5163 -0.5992
45143SOL    HW144207   8.255   8.790   0.904 -0.7317  2.6444 -1.5570
45143SOL    HW244208   8.354   8.695   0.839 -2.0711  0.1606 -0.1246
45144SOL     OW44209   6.665  10.531   2.893 -0.3669  0.2550  0.1325
45144SOL    HW144210   6.694  10.441   2.908 -2.8337 -0.5827  0.4246
45144SOL    HW244211   6.723  10.565   2.824  0.2283 -1.7637 -0.4144
45145SOL     OW44212   6.233  11.826  12.468  0.6757 -0.1976  0.6442
45145SOL    HW144213   6.194  11.783  12.392  0.7724  0.6720  0.0893
45145SOL    HW244214   6.325  11.798  12.466  0.9562  0.7093 -0.2407
45146SOL     OW44215   1.301   4.479  10.874  0.0151  0.2139  0.3520
45146SOL    HW144216   1.271   4.396  10.835 -0.0261  0.4519 -0.1202
45146SOL    HW244217   1.382   4.456  10.920  0.1473 -0.0310 -0.0037
45147SOL     OW44218  10.658   7.983   4.254  0.2511 -0.0741 -0.1939
45147SOL    HW144219  10.750   8.002   4.236 -0.1916  0.5319 -2.0855
45147SOL    HW244220  10.610   8.041   4.195 -1.3516 -0.4883  0.6410
45148SOL     OW44221   4.157   3.980   7.490 -0.5045 -0.6501 -0.0044
45148SOL    HW144222   4.151   4.026   7.574 -0.7814 -2.0768  0.8020
45148SOL    HW244223   4.068   3.948   7.474 -0.6618  0.3527 -1.3181
45149SOL     OW44224   4.834   2.805  11.727  0.0256 -0.7050 -0.1442
45149SOL    HW144225   4.753   2.854  11.744 -0.8173 -2.3879  1.0229
45149SOL    HW244226   4.904   2.862  11.760 -0.7295  0.4580 -0.4781
45150SOL     OW44227   4.772   1.187   1.050 -0.0150 -0.2400 -0.0735
45150SOL    HW144228   4.703   1.128   1.079 -0.7380  0.1786 -0.8901
45150SOL    HW244229   4.777   1.172   0.955 -0.4223  1.2098 -0.3444
45151SOL     OW44230   0.809   5.438  12.382 -0.1884  0.1896 -0.0664
45151SOL    HW144231   0.781   5.348  12.400  0.1434  0.4030  1.7213
45151SOL    HW244232   0.778   5.488  12.458  0.7096  1.3468 -0.4329
45152SOL     OW44233   3.115  12.229   9.803 -0.0168 -0.3200 -0.1453
45152SOL    HW144234   3.148  12.257   9.717 -2.4131 -1.0098 -1.3966
45152SOL    HW244235   3.108  12.309   9.854  1.8762  0.0505 -0.3929
45153SOL     OW44236  11.486   8.154   5.721 -0.0447 -0.1979  0.2180
45153SOL    HW144237  11.468   8.073   5.673  0.5670 -0.6946  0.8023
45153SOL    HW244238  11.496   8.220   5.653 -0.0127 -0.7250 -0.3018
45154SOL     OW44239   7.925   0.117   0.622  0.7146 -0.2448 -0.2122
45154SOL    HW144240   7.990   0.134   0.690  0.8449  0.4106 -0.4862
45154SOL    HW244241   7.840   0.126   0.666  0.8046 -0.9047  0.1012
45155SOL     OW44242  11.789   7.648   3.653 -0.2203  0.1149 -0.5812
45155SOL    HW144243  11.696   7.670   3.665 -0.1106  0.0027  0.5764
45155SOL    HW244244  11.834   7.731   3.667 -0.0681 -0.0690  0.0369
45156SOL     OW44245   5.592   7.273   2.771  0.2299  0.0237  0.6327
45156SOL    HW144246   5.562   7.282   2.681  0.6146  1.1014  0.6050
45156SOL    HW244247   5.516   7.240   2.819 -0.1322 -0.0406  0.0246
45157SOL     OW44248   6.636  10.122  10.542  0.1551  0.1827 -0.1101
45157SOL    HW144249   6.595  10.105  10.626 -0.0633  1.1474 -0.0128
45157SOL    HW244250   6.728  10.139  10.562  0.0918  0.4682 -0.0519
45158SOL     OW44251  11.949   6.299   1.877  0.0619 -0.2871  0.0174
45158SOL    HW144252  11.998   6.340   1.806  0.3915 -0.5214  0.1087
45158SOL    HW244253  11.957   6.360   1.950 -0.9123  0.3255 -0.3561
45159SOL     OW44254   8.862   4.515   5.770  0.3360 -0.2513  0.1981
45159SOL    HW144255   8.909   4.433   5.760 -0.8169 -0.7207 -1.6073
45159SOL    HW244256   8.775   4.498   5.736 -0.0625  1.6013  0.1910
45160SOL     OW44257  12.545   3.295   5.186 -0.4526  0.0646 -0.2512
45160SOL    HW144258  12.582   3.271   5.271 -1.6457  0.4976  0.4205
45160SOL    HW244259  12.521   3.212   5.145  1.6460 -0.2700 -0.9338
45161SOL     OW44260   5.292   9.642   8.258  0.6014 -0.0079 -0.2303
45161SOL    HW144261   5.221   9.651   8.321  1.4607 -0.9630  0.9275
45161SOL    HW244262   5.322   9.731   8.242 -0.2594  0.3239 -0.0426
45162SOL     OW44263  10.242   7.303  11.534 -0.1328  0.3887  0.1071
45162SOL    HW144264  10.229   7.313  11.440 -0.6885  0.4138  0.1807
45162SOL    HW244265  10.188   7.227  11.558  1.3066 -0.6682  0.1400
45163SOL     OW44266   2.122  10.602   3.283 -0.0284 -0.6782 -0.2965
45163SOL    HW144267   2.197  10.639   3.237 -0.7855  0.7591 -0.4444
45163SOL    HW244268   2.069  10.678   3.307 -0.6237 -1.5295  1.2532
45164SOL     OW44269   5.846   2.897   8.445 -0.0845  0.0828 -0.0723
45164SOL    HW144270   5.774   2.928   8.500  0.4637  0.9153  0.1949
45164SOL    HW244271   5.843   2.802   8.452 -1.1608  0.1069 -0.0711
45165SOL     OW44272   0.575   2.770   4.401 -0.2880 -0.3682 -0.5037
45165SOL    HW144273   0.559   2.812   4.485 -1.6412  0.8841 -1.3270
45165SOL    HW244274   0.669   2.775   4.388 -0.2390  0.8245  0.2389
45166SOL     OW44275   0.895   1.714  11.005  0.2470  0.2081 -0.3367
45166SOL    HW144276   0.885   1.714  10.910 -2.6611 -2.9800 -0.2208
45166SOL    HW244277   0.826   1.772  11.036 -0.2717 -0.5125 -0.1342
45167SOL     OW44278   6.152  10.698  11.811  0.5211  0.3059 -0.1719
45167SOL    HW144279   6.235  10.652  11.808  0.7604  0.7596 -0.7416
45167SOL    HW244280   6.123  10.703  11.720 -0.6120 -0.6780  0.1044
45168SOL     OW44281   9.892  11.656   1.692  0.0260 -0.2664  0.2297
45168SOL    HW144282   9.876  11.604   1.613  0.5071 -0.7703  0.4579
45168SOL    HW244283   9.984  11.640   1.712  0.3834  1.2699 -0.1160
45169SOL     OW44284   3.481   8.225   6.957  0.1172 -0.2150  0.2478
45169SOL    HW144285   3.484   8.282   6.880 -0.0897 -0.3721  0.1234
45169SOL    HW244286   3.574   8.212   6.980  0.1796 -0.1557  0.0337
45170SOL     OW44287   7.627   1.325   8.208 -0.8601  0.6078  0.1004
45170SOL    HW144288   7.699   1.299   8.266  0.3517 -2.0609 -2.3821
45170SOL    HW244289   7.653   1.411   8.176 -0.4422  1.1168  1.6813
45171SOL     OW44290   8.193   0.030  10.628 -0.7549 -0.1841  0.4453
45171SOL    HW144291   8.227   0.006  10.714 -0.5940  0.4662  0.5663
45171SOL    HW244292   8.258  -0.004  10.567  1.1471  2.6452  0.7404
45172SOL     OW44293   7.486   5.915  10.679 -0.3206  0.5228  0.3086
45172SOL    HW144294   7.544   5.867  10.739  0.6424  1.4036  0.1138
45172SOL    HW244295   7.539   5.927  10.600 -1.2358  0.2365 -0.3630
45173SOL     OW44296   4.921   2.731   9.229 -0.0170  0.6600  0.5483
45173SOL    HW144297   4.860   2.767   9.294 -1.7736  0.0010 -0.6753
45173SOL    HW244298   4.917   2.792   9.156 -0.5349 -0.2801 -0.2262
45174SOL     OW44299  12.237   9.058   2.662 -0.1380  0.1975  0.3098
45174SOL    HW144300  12.237   8.963   2.664 -2.5777  0.1488  0.1157
45174SOL    HW244301  12.245   9.084   2.754  0.1929 -0.1685  0.3878
45175SOL     OW44302   0.500   4.683   7.293 -0.1440 -0.1097  0.2693
45175SOL    HW144303   0.422   4.718   7.250 -1.3961 -1.1105  1.6309
45175SOL    HW244304   0.480   4.591   7.308  1.8520 -0.7253 -0.5139
45176SOL     OW44305   2.568   2.259   9.739 -0.0676  0.2162  0.1367
45176SOL    HW144306   2.641   2.320   9.743  0.2770  0.1160 -2.5238
45176SOL    HW244307   2.605   2.179   9.701 -1.5368  0.2485 -1.5036
45177SOL     OW44308  10.868  10.099  10.251  0.3868  0.2040 -0.4807
45177SOL    HW144309  10.806  10.145  10.193  0.5455 -1.1524 -1.7942
45177SOL    HW244310  10.935  10.065  10.192  0.1514 -1.8913  0.3782
45178SOL     OW44311  11.449   2.830   1.862  0.4390 -0.8413 -0.4700
45178SOL    HW144312  11.356   2.814   1.848  0.2143 -0.4703  0.5070
45178SOL    HW244313  11.493   2.752   1.826 -0.2175 -0.8585 -1.2457
45179SOL     OW44314   2.969   7.563   8.760  0.6218 -0.5501 -0.2230
45179SOL    HW144315   3.026   7.550   8.836  0.3264 -0.7045 -0.0278
45179SOL    HW244316   2.912   7.635   8.785 -0.4293 -1.5260  0.2619
45180SOL     OW44317   3.571   7.934   7.328 -0.0843  0.0202 -0.1379
45180SOL    HW144318   3.665   7.944   7.319  0.2141 -2.7246 -1.2694
45180SOL    HW244319   3.538   7.936   7.238 -1.1829  1.3844  0.2704
45181SOL     OW44320   4.844   6.018   7.945  0.0511 -0.2698  0.5321
45181SOL    HW144321   4.764   6.066   7.965  0.7606  1.0803  0.2538
45181SOL    HW244322   4.844   6.008   7.850 -1.0026 -2.5278  0.7087
45182SOL     OW44323   1.648   6.046   5.424 -0.4732 -0.1006  0.3073
45182SOL    HW144324   1.700   6.020   5.500 -1.7606 -0.4114  1.1101
45182SOL    HW244325   1.667   6.139   5.412  1.1960 -0.4792 -0.1899
45183SOL     OW44326   3.221   4.172   2.218 -0.5151  0.2111  0.2459
45183SOL    HW144327   3.317   4.175   2.209 -0.5021  0.8517  0.5627
45183SOL    HW244328   3.205   4.200   2.308 -1.0965  1.8831 -0.3414
45184SOL     OW44329   0.454  11.270  10.020 -0.2438  0.1119 -0.1090
45184SOL    HW144330   0.456  11.250   9.926  0.2213  0.9846 -0.2960
45184SOL    HW244331   0.398  11.202  10.058 -0.5943 -0.1337 -1.0444
45185SOL     OW44332   0.253   4.518   8.623  0.2169 -0.3785 -0.3844
45185SOL    HW144333   0.295   4.600   8.650  1.9883 -0.7752 -1.7135
45185SOL    HW244334   0.160   4.532   8.639  0.3980  2.1182 -1.1079
45186SOL     OW44335   3.641   7.495   5.165  0.5721  0.6173 -0.0485
45186SOL    HW144336   3.709   7.435   5.195 -0.6628  0.0979  1.8985
45186SOL    HW244337   3.561   7.442   5.162  0.5747  0.3561 -5.3204
45187SOL     OW44338   3.912  10.541   8.182 -0.1310  0.0381  0.3230
45187SOL    HW144339   3.982  10.490   8.222 -0.9936 -1.7198 -0.3168
45187SOL    HW244340   3.892  10.496   8.100 -2.5687 -0.0302  0.8703
45188SOL     OW44341   2.058   1.105   9.720 -0.5527  0.1475 -0.7420
45188SOL    HW144342   2.021   1.094   9.633  1.0896  0.6256 -1.5206
45188SOL    HW244343   2.083   1.017   9.747  0.8663  0.2498 -1.6512
45189SOL     OW44344   2.491   0.605   4.387 -0.3045  0.6795 -0.5231
45189SOL    HW144345   2.480   0.684   4.332 -0.8651  0.8151 -0.2235
45189SOL    HW244346   2.564   0.627   4.445 -0.1796  0.8115 -0.7243
45190SOL     OW44347   4.308   6.788   7.088  0.2055  0.5167 -0.0834
45190SOL    HW144348   4.289   6.752   7.001  1.4174 -0.4630  0.0334
45190SOL    HW244349   4.283   6.719   7.149  2.8789 -0.4097  0.1267
45191SOL     OW44350   3.819   0.131  11.652 -0.2572 -0.2339  0.2519
45191SOL    HW144351   3.901   0.169  11.621  0.8630 -2.0675  0.8112
45191SOL    HW244352   3.795   0.067  11.585 -1.5403  0.6713 -0.1723
45192SOL     OW44353   5.308   9.018   4.027 -0.5352 -0.2630 -0.1311
45192SOL    HW144354   5.263   9.100   4.046 -0.7196 -0.2610 -0.5645
45192SOL    HW244355   5.389   9.045   3.983  0.0084 -0.2528  0.8634
45193SOL     OW44356   9.068   4.753   3.014 -0.4787 -0.6857 -0.0458
45193SOL    HW144357   9.121   4.715   3.085 -0.6401 -0.1703  0.3560
45193SOL    HW244358   9.121   4.740   2.935 -0.6288 -1.9446  0.0345
45194SOL     OW44359   9.450  10.034   1.783 -0.1016 -0.3680  0.0774
45194SOL    HW144360   9.384  10.068   1.844  0.8949 -1.7234  2.0059
45194SOL    HW244361   9.491   9.962   1.829  3.6088  1.1331 -0.4877
45195SOL     OW44362   3.376   4.404   0.884  0.2385  0.0068  0.0718
45195SOL    HW144363   3.448   4.439   0.831 -0.5116  2.4556  0.5373
45195SOL    HW244364   3.418   4.374   0.965  0.7325  1.6177  0.4368
45196SOL     OW44365   4.699   5.046   1.032 -0.4155 -0.2463 -0.3370
45196SOL    HW144366   4.713   5.048   1.127 -1.6145 -0.2139 -0.1416
45196SOL    HW244367   4.664   4.959   1.014 -0.1181 -0.2809 -0.7627
45197SOL     OW44368   4.400   5.867   3.810  0.1421  0.2076  0.0990
45197SOL    HW144369   4.431   5.861   3.901 -0.6854 -2.3554  0.2650
45197SOL    HW244370   4.309   5.895   3.818  0.4527  1.3135 -0.0504
45198SOL     OW44371   6.992   6.837   1.478 -0.0106 -0.3676  0.3713
45198SOL    HW144372   7.055   6.875   1.539 -0.3020  0.6493  0.0632
45198SOL    HW244373   6.955   6.762   1.525 -1.8222  1.6158  2.3699
45199SOL     OW44374  12.080   0.959   7.468  0.7223 -0.0157 -0.1293
45199SOL    HW144375  12.083   0.863   7.467 -0.1750 -0.0756  1.0672
45199SOL    HW244376  12.139   0.985   7.397  1.6970 -1.4285  0.1097
45200SOL     OW44377   2.037   3.052  10.243  0.3072  0.2261  0.4890
45200SOL    HW144378   2.076   2.972  10.277 -1.1073 -0.7985 -0.1835
45200SOL    HW244379   1.990   3.090  10.318 -1.1501 -0.9676  0.2200
45201SOL     OW44380   9.456   3.602  11.653  0.6220  0.3017 -0.0202
45201SOL    HW144381   9.381   3.568  11.604  1.5972 -0.2053 -1.1989
45201SOL    HW244382   9.418   3.634  11.735 -0.6914 -1.2771  0.0398
45202SOL     OW44383   3.932   4.998  10.213 -0.2626  0.0622  0.1543
45202SOL    HW144384   3.898   5.073  10.164 -1.9889 -0.4601  0.5165
45202SOL    HW244385   3.930   5.026  10.304  0.5765  0.1221  0.1645
45203SOL     OW44386  12.542  12.104   4.021 -0.3109 -0.6112  0.2395
45203SOL    HW144387  12.537  12.181   4.078 -0.6119 -0.7964  0.4640
45203SOL    HW244388  12.451  12.078   4.008 -0.1869 -1.1690  0.4823
45204SOL     OW44389  10.080   6.754   0.546  0.3483  0.5112  0.5285
45204SOL    HW144390  10.009   6.815   0.525 -0.3360 -0.4588 -0.0293
45204SOL    HW244391  10.147   6.809   0.586 -0.3589  1.5902  0.2746
45205SOL     OW44392  11.261  10.864   2.262 -0.7687 -0.0524  0.7968
45205SOL    HW144393  11.336  10.876   2.205 -1.0147  2.1048  0.8168
45205SOL    HW244394  11.186  10.894   2.210 -1.3129 -0.1927  1.4815
45206SOL     OW44395   2.343   8.293  12.595 -0.2909  0.0654 -0.1674
45206SOL    HW144396   2.338   8.254  12.682  1.1967  0.6233  0.2065
45206SOL    HW244397   2.359   8.219  12.536 -5.1361 -0.9321 -0.6406
45207SOL     OW44398   9.632   7.658   0.615  0.0057 -0.1004 -0.4601
45207SOL    HW144399   9.689   7.734   0.621  2.2462 -1.4399 -2.6365
45207SOL    HW244400   9.640   7.615   0.700  0.9840  0.5984 -0.1819
45208SOL     OW44401   1.588   0.928   0.031  0.2430 -0.4188 -0.3138
45208SOL    HW144402   1.665   0.921   0.088 -0.1283 -1.7256  0.0563
45208SOL    HW244403   1.543   0.844   0.041 -1.1875  0.2840 -0.5945
45209SOL     OW44404   9.726   9.888  12.154  0.2605 -0.3787  0.3788
45209SOL    HW144405   9.812   9.921  12.127 -0.3834  1.2064  0.1046
45209SOL    HW244406   9.700   9.828  12.084  0.4272  0.4548 -0.4218
45210SOL     OW44407   0.624   1.850   4.660 -0.0832  0.6361  0.2262
45210SOL    HW144408   0.675   1.783   4.704 -1.3954  0.6824  1.9473
45210SOL    HW244409   0.661   1.933   4.691 -1.1414  0.6695  1.4919
45211SOL     OW44410   4.341   4.688   3.509 -0.8110 -0.0338 -0.6108
45211SOL    HW144411   4.360   4.767   3.561 -0.5698  1.1618 -2.4231
45211SOL    HW244412   4.329   4.619   3.574 -1.7264  1.6316  1.0949
45212SOL     OW44413   9.527   4.644   3.804  0.2855  0.1535 -0.3636
45212SOL    HW144414   9.576   4.717   3.768  1.8222 -0.1124  1.0571
45212SOL    HW244415   9.593   4.588   3.845 -0.8293 -2.0823 -1.4214
45213SOL     OW44416   6.430  11.375   9.489 -0.5721 -0.3779 -0.3623
45213SOL    HW144417   6.453  11.392   9.397 -0.4588  0.4752 -0.1815
45213SOL    HW244418   6.378  11.451   9.515 -0.6193 -0.6281  0.2750
45214SOL     OW44419   3.791   7.000   9.361 -0.5287 -0.3171 -0.4324
45214SOL    HW144420   3.853   7.058   9.405  1.3551 -2.5260  0.0131
45214SOL    HW244421   3.709   7.013   9.408  0.2329  0.8072  0.6704
45215SOL     OW44422   8.574  10.078   7.407 -0.0493 -0.1550  0.1726
45215SOL    HW144423   8.493  10.029   7.422  0.7962 -1.5726  0.2748
45215SOL    HW244424   8.562  10.159   7.457 -1.5981 -0.1120 -0.2254
45216SOL     OW44425   3.655   6.680   0.988 -0.4427 -0.6650 -0.0724
45216SOL    HW144426   3.723   6.732   1.031 -0.8380 -1.3369  1.4349
45216SOL    HW244427   3.702   6.608   0.947 -0.2412 -1.6181  1.6954
45217SOL     OW44428   5.149  11.334  10.161  0.1745  0.2458 -0.9398
45217SOL    HW144429   5.239  11.308  10.142  0.6995  0.1842  1.3588
45217SOL    HW244430   5.156  11.399  10.230 -1.5705 -0.9334  0.4722
45218SOL     OW44431  11.696   1.894   2.700  0.0758  0.4494 -0.5950
45218SOL    HW144432  11.641   1.920   2.774  0.2820 -1.5545  0.3426
45218SOL    HW244433  11.638   1.842   2.645  0.5595 -0.1927 -0.5110
45219SOL     OW44434   3.303   5.698   9.982 -0.0597  0.1650 -0.4364
45219SOL    HW144435   3.244   5.639  10.030 -1.7009  1.7264 -0.4214
45219SOL    HW244436   3.353   5.743  10.050 -1.2532  1.2186 -0.2066
45220SOL     OW44437   9.765   5.434   6.211  0.2864  0.8116 -0.1758
45220SOL    HW144438   9.749   5.443   6.117  0.3180  2.2828 -0.0708
45220SOL    HW244439   9.688   5.474   6.252 -0.2136 -0.7336  0.4602
45221SOL     OW44440  11.975   9.126   2.965  0.0343  0.3177  0.4049
45221SOL    HW144441  11.941   9.082   2.887  1.2855  0.7608 -0.4346
45221SOL    HW244442  11.949   9.070   3.038 -1.9854  0.3771 -0.2172
45222SOL     OW44443   0.699   5.755   9.849  0.0311  0.9499  0.5516
45222SOL    HW144444   0.791   5.744   9.823 -0.8481 -1.1339 -2.2231
45222SOL    HW244445   0.670   5.831   9.799 -0.4668 -0.2424 -1.0479
45223SOL     OW44446  10.150   1.195   4.083  0.5222 -1.0028 -0.8442
45223SOL    HW144447  10.212   1.179   4.154  0.2655 -1.2766 -0.6816
45223SOL    HW244448  10.204   1.231   4.012  0.4987  1.1210  0.1339
45224SOL     OW44449   3.199  11.898   8.266 -0.6827  0.0412 -0.4330
45224SOL    HW144450   3.117  11.918   8.220 -0.1959  0.5127 -1.1010
45224SOL    HW244451   3.207  11.968   8.331 -0.8792 -0.0866 -0.2683
45225SOL     OW44452   1.642   5.397   6.729 -0.1909 -0.0491 -0.2232
45225SOL    HW144453   1.654   5.492   6.730  0.7500 -0.0673 -2.3017
45225SOL    HW244454   1.599   5.376   6.811 -2.5183  2.4556 -0.6711
45226SOL     OW44455   0.506   2.287   9.072  0.2616 -0.6145  0.5663
45226SOL    HW144456   0.448   2.298   8.997  0.2746  0.4760  0.6886
45226SOL    HW244457   0.589   2.325   9.044  0.4570 -0.7888  0.9080
45227SOL     OW44458   0.735  10.773   7.839  0.6674 -0.2187  0.2259
45227SOL    HW144459   0.759  10.859   7.803 -1.0475  0.2093  0.0376
45227SOL    HW244460   0.652  10.788   7.884  0.2631 -1.8139  0.0625
45228SOL     OW44461   2.671   1.464   8.705  0.2691 -0.3974 -0.3046
45228SOL    HW144462   2.694   1.441   8.796  2.4439 -0.5494 -0.8453
45228SOL    HW244463   2.689   1.384   8.655  2.8432  0.7682 -1.4105
45229SOL     OW44464   4.879  11.457   9.281 -0.2584 -0.1735  0.5616
45229SOL    HW144465   4.954  11.399   9.262 -1.0604 -1.3333  0.8387
45229SOL    HW244466   4.914  11.520   9.344  1.1072  0.7421 -1.0288
45230SOL     OW44467   2.622   4.649   3.199 -0.5624 -0.1267  0.1948
45230SOL    HW144468   2.696   4.626   3.142 -2.5524 -2.5422 -1.6736
45230SOL    HW244469   2.585   4.565   3.225 -2.5594  0.9916  1.2011
45231SOL     OW44470  11.344  11.159   5.042  0.0677  0.4454 -0.1799
45231SOL    HW144471  11.340  11.202   4.957  0.9339  0.0670 -0.4270
45231SOL    HW244472  11.425  11.193   5.081  1.1289 -1.4053 -0.6546
45232SOL     OW44473  12.238   8.119   0.727  0.3677  0.2880  0.3875
45232SOL    HW144474  12.227   8.214   0.727  1.7479  0.4677  0.5877
45232SOL    HW244475  12.325   8.105   0.688  0.0701 -0.9040  0.1151
45233SOL     OW44476  10.539   3.646   3.547  0.0065  0.3421 -0.1733
45233SOL    HW144477  10.617   3.682   3.590  0.3454 -0.0153 -0.4813
45233SOL    HW244478  10.469   3.656   3.611  0.2016  1.1132 -0.0697
45234SOL     OW44479   0.794   9.130   8.409  0.4403 -0.2751 -0.1410
45234SOL    HW144480   0.749   9.214   8.412 -1.0715 -1.0761  1.2077
45234SOL    HW244481   0.852   9.131   8.485 -0.9181 -1.1113  0.9521
45235SOL     OW44482   2.856   2.458   8.704  0.8385 -0.2090  0.2003
45235SOL    HW144483   2.927   2.509   8.743 -0.5293 -0.4413  3.2844
45235SOL    HW244484   2.859   2.374   8.749 -0.0274 -1.0551 -1.2412
45236SOL     OW44485   0.437   7.445   9.677  0.0367  0.3282 -0.0698
45236SOL    HW144486   0.432   7.448   9.773  1.2849  0.6820  0.0003
45236SOL    HW244487   0.468   7.532   9.652 -2.1445  0.9186 -0.9631
45237SOL     OW44488  11.695   6.058   0.512 -0.0999  0.2892 -0.0566
45237SOL    HW144489  11.679   5.969   0.543  0.3501  0.2670  0.1251
45237SOL    HW244490  11.758   6.047   0.440  0.0911  0.4743  0.0818
45238SOL     OW44491   5.334   5.018   0.324 -0.0830  0.3471 -0.4714
45238SOL    HW144492   5.374   5.005   0.238  2.1403 -0.5380  0.6107
45238SOL    HW244493   5.332   5.113   0.336 -1.1004  0.5093 -1.7623
45239SOL     OW44494   0.447   2.042   2.309  0.0870 -0.1800  0.1215
45239SOL    HW144495   0.543   2.044   2.311  0.0776  1.8638  1.2958
45239SOL    HW244496   0.426   1.976   2.243  2.3058 -0.2948 -0.5582
45240SOL     OW44497   6.547   8.664   9.507  0.0218  0.5005 -0.7946
45240SOL    HW144498   6.463   8.623   9.486 -0.2851 -0.0878  1.4240
45240SOL    HW244499   6.524   8.745   9.552  0.6493  0.3562 -0.2044
45241SOL     OW44500   8.079   1.106  11.406 -0.1277 -0.2614 -0.0845
45241SOL    HW144501   8.007   1.160  11.437  0.3568  0.2902  0.0991
45241SOL    HW244502   8.058   1.018  11.436 -0.2948  0.0439  0.7199
45242SOL     OW44503   1.435  10.064   0.764  0.1410 -0.8972  0.2712
45242SOL    HW144504   1.384  10.106   0.833 -0.8251  0.7862 -1.3798
45242SOL    HW244505   1.393   9.978   0.753  0.3551 -1.2273  1.7709
45243SOL     OW44506   9.746   3.891   1.801 -0.0778 -0.4557  0.2649
45243SOL    HW144507   9.660   3.905   1.840  0.3145  2.0499  0.3902
45243SOL    HW244508   9.797   3.847   1.870  0.0840  2.3166  2.0798
45244SOL     OW44509   4.191   7.293   7.313 -0.1246  0.2604 -0.1254
45244SOL    HW144510   4.131   7.365   7.333 -0.7776 -0.0905 -0.7829
45244SOL    HW244511   4.244   7.284   7.392 -0.4583  1.0456  0.2006
45245SOL     OW44512   5.201  12.050  11.124 -0.1574  0.2891  0.0999
45245SOL    HW144513   5.291  12.018  11.130 -0.3060 -0.3542 -0.8285
45245SOL    HW244514   5.193  12.081  11.034 -0.2914  2.1560  0.7248
45246SOL     OW44515   2.745   4.583  10.368 -0.5474 -0.0753 -0.1530
45246SOL    HW144516   2.791   4.541  10.441 -2.8150 -0.7785  0.9567
45246SOL    HW244517   2.783   4.671  10.363  0.0147 -0.1966  1.5408
45247SOL     OW44518   6.023   1.325  11.043 -0.4532  0.2792  0.0251
45247SOL    HW144519   6.036   1.231  11.039  0.2397  0.3451  0.5922
45247SOL    HW244520   5.929   1.336  11.061 -1.0342 -0.2477 -2.2842
45248SOL     OW44521   5.974   1.687  12.527 -0.1146  0.5974 -0.2444
45248SOL    HW144522   5.958   1.753  12.459 -0.4482  2.3934  1.4954
45248SOL    HW244523   5.886   1.654  12.549  0.0321 -0.3152 -0.9539
45249SOL     OW44524   3.984   5.747   1.414  1.0067  0.3033  0.6780
45249SOL    HW144525   3.909   5.798   1.384  0.8108  0.3204  1.1945
45249SOL    HW244526   3.965   5.726   1.505  1.8157  0.6454  0.9334
45250SOL     OW44527  11.761   0.045  10.917 -0.1197  0.7169  0.2586
45250SOL    HW144528  11.818   0.053  10.993 -0.8329  0.5213  0.8225
45250SOL    HW244529  11.675   0.023  10.953 -0.6504  1.4038 -0.5446
45251SOL     OW44530   7.206   0.899   9.077 -0.0851  0.0366 -0.2593
45251SOL    HW144531   7.218   0.945   9.160  2.7291  0.8253 -0.9835
45251SOL    HW244532   7.215   0.807   9.099 -0.1304  0.1912  0.4397
45252SOL     OW44533   3.148   2.726   0.630 -0.3098 -0.0841 -0.2876
45252SOL    HW144534   3.115   2.756   0.545 -1.9514  2.0953  1.0141
45252SOL    HW244535   3.243   2.724   0.619 -0.4862 -0.3937 -2.3053
45253SOL     OW44536   1.308   1.255   9.559  0.1400 -0.0805 -0.5273
45253SOL    HW144537   1.295   1.181   9.500  0.4527 -0.2346 -0.4032
45253SOL    HW244538   1.289   1.221   9.646  0.5688 -0.0983 -0.4352
45254SOL     OW44539   1.096  10.595   9.291  1.0546 -0.7988 -0.8914
45254SOL    HW144540   1.161  10.593   9.222  0.3457  0.1518 -1.6087
45254SOL    HW244541   1.014  10.569   9.249  0.9017 -1.7850 -0.0474
45255SOL     OW44542   8.469  10.618  10.451  0.3995  0.3496 -0.1985
45255SOL    HW144543   8.508  10.557  10.388  0.8715 -0.5849  0.9481
45255SOL    HW244544   8.543  10.646  10.505 -0.3685 -0.9711  1.6291
45256SOL     OW44545  11.212   4.371   1.421  0.2233 -0.1001  0.9399
45256SOL    HW144546  11.264   4.299   1.385 -0.4434 -0.8161  1.3518
45256SOL    HW244547  11.123   4.352   1.391 -0.0051  0.3858  1.3058
45257SOL     OW44548  12.504   6.374   4.914 -0.7519 -0.2054 -0.3847
45257SOL    HW144549  12.539   6.336   4.833 -3.1282  0.6391 -1.9306
45257SOL    HW244550  12.569   6.438   4.941  1.9170 -3.1134  0.6216
45258SOL     OW44551  12.326   6.667   5.470 -0.3363  0.0343  0.5835
45258SOL    HW144552  12.349   6.748   5.424 -0.3639  0.4074  1.2131
45258SOL    HW244553  12.297   6.608   5.401  1.2565 -0.0130 -0.0902
45259SOL     OW44554   2.257   0.273   2.177  0.3029 -0.2839  0.2475
45259SOL    HW144555   2.200   0.218   2.123 -1.1620  0.0187  1.4165
45259SOL    HW244556   2.246   0.361   2.141  2.1422 -0.5772 -1.2051
45260SOL     OW44557   9.382  11.819   5.560  0.2658 -0.2079  0.3371
45260SOL    HW144558   9.460  11.765   5.544  0.3653 -0.1934  0.7623
45260SOL    HW244559   9.406  11.906   5.529  0.0110 -0.4658 -0.5974
45261SOL     OW44560  11.942   2.102   3.878  0.0519 -0.1655 -0.0370
45261SOL    HW144561  11.911   2.189   3.853  0.1856  0.0274  0.4668
45261SOL    HW244562  11.953   2.056   3.795 -3.7823 -1.0465 -0.2446
45262SOL     OW44563   8.608   5.430  10.769 -0.1498 -0.0597  0.0702
45262SOL    HW144564   8.686   5.402  10.818 -2.6274 -1.6581  3.4968
45262SOL    HW244565   8.572   5.350  10.733 -1.2675  0.3335  0.2771
45263SOL     OW44566   2.890   5.992   0.999  0.1689  0.1010  0.7420
45263SOL    HW144567   2.963   5.980   0.938 -0.8304 -1.3518 -0.2335
45263SOL    HW244568   2.902   5.922   1.063 -1.8538 -2.0674 -1.0413
45264SOL     OW44569   0.757   7.820   7.273 -0.4190 -1.5302 -0.6667
45264SOL    HW144570   0.826   7.825   7.340  0.9260 -1.5963 -2.0112
45264SOL    HW244571   0.700   7.894   7.293  1.1518 -0.2611 -0.7141
45265SOL     OW44572   9.028   6.940   3.932 -0.3111 -0.1376 -0.0737
45265SOL    HW144573   8.979   6.956   4.012  0.1378  0.3114  0.1135
45265SOL    HW244574   9.084   6.865   3.953 -0.6030 -0.3797 -0.1517
45266SOL     OW44575  12.283   5.082   3.650 -0.2846 -0.2631  0.6662
45266SOL    HW144576  12.334   5.123   3.580 -1.2146 -0.6307 -0.2530
45266SOL    HW244577  12.283   5.147   3.721  1.5499 -0.3156  0.7470
45267SOL     OW44578   4.294  10.980   8.012 -0.1775 -0.0521  0.5578
45267SOL    HW144579   4.359  11.009   8.076 -1.0547  1.3069  0.8587
45267SOL    HW244580   4.277  10.889   8.036 -0.5295  0.4397  2.3139
45268SOL     OW44581   3.443   2.252  11.666  0.1065 -0.0116  0.1688
45268SOL    HW144582   3.519   2.258  11.723 -0.8484 -0.9364  1.5906
45268SOL    HW244583   3.380   2.313  11.703 -1.1043 -1.7443  1.1131
45269SOL     OW44584   3.977  12.026  10.047 -0.1351 -0.5465 -0.5520
45269SOL    HW144585   3.999  11.940  10.082 -0.6275 -0.7871 -0.8303
45269SOL    HW244586   3.977  12.014   9.952 -1.5609 -0.5786 -0.5641
45270SOL     OW44587   1.794   2.284   4.181 -0.3450 -0.5985  0.0924
45270SOL    HW144588   1.860   2.277   4.249  0.0705  0.3968 -0.1917
45270SOL    HW244589   1.838   2.254   4.101 -0.8570 -1.8491  0.2483
45271SOL     OW44590  11.674   4.846   9.001 -0.2180  0.2150 -0.3060
45271SOL    HW144591  11.682   4.898   9.081  1.9156  0.3881 -0.5610
45271SOL    HW244592  11.586   4.809   9.005 -0.7634  1.5407  1.2946
45272SOL     OW44593   9.342   5.392  12.481  0.3945  0.9021  0.2157
45272SOL    HW144594   9.381   5.313  12.446 -0.5429  0.7459 -0.4876
45272SOL    HW244595   9.261   5.363  12.521 -0.4010  1.6213 -0.8344
45273SOL     OW44596  12.442   7.281  12.047  0.6517 -0.2835  0.0753
45273SOL    HW144597  12.375   7.336  12.005 -0.0464 -1.8290 -0.9664
45273SOL    HW244598  12.525   7.311  12.011  0.5648  1.6753  1.3914
45274SOL     OW44599   8.190   0.059   3.256  0.0452  0.1504 -0.0567
45274SOL    HW144600   8.237   0.137   3.227  0.6603 -0.7268 -1.5186
45274SOL    HW244601   8.258  -0.007   3.270 -0.3284  0.2369  2.5276
45275SOL     OW44602   4.397   4.554   1.747  0.7239  0.0697  0.1888
45275SOL    HW144603   4.321   4.572   1.691 -0.6053 -0.7120  1.6480
45275SOL    HW244604   4.458   4.508   1.690 -0.8626 -1.3077 -0.4824
45276SOL     OW44605  11.500   9.350   1.951  0.2111 -0.3387  0.4037
45276SOL    HW144606  11.538   9.417   1.894  0.3108 -1.0284 -0.3627
45276SOL    HW244607  11.550   9.356   2.032  1.6708 -0.8941 -0.4042
45277SOL     OW44608  11.038  11.709   5.023 -0.4104  0.2623  0.1655
45277SOL    HW144609  11.112  11.764   5.049 -1.5787  1.2980  1.4876
45277SOL    HW244610  11.060  11.680   4.934  1.4669  0.6857  0.4335
45278SOL     OW44611   9.092  12.579   0.567 -0.2080  0.3197  0.2805
45278SOL    HW144612   9.146  12.581   0.646 -1.0332  0.4876  0.8605
45278SOL    HW244613   9.154  12.590   0.495  1.0536 -3.1084  0.6110
45279SOL     OW44614   2.680   9.984   7.928  0.4145 -0.3648  0.1295
45279SOL    HW144615   2.725  10.068   7.924 -0.7798  0.3161  0.6660
45279SOL    HW244616   2.747   9.920   7.902  1.3073  0.7440 -0.3780
45280SOL     OW44617   2.684  11.128  11.495  0.2458 -0.8503 -0.0906
45280SOL    HW144618   2.643  11.177  11.424 -1.2332 -0.3371  1.0629
45280SOL    HW244619   2.611  11.089  11.543  1.3160 -3.1468 -0.1974
45281SOL     OW44620   0.286   5.810   9.510  0.6903 -0.2114  0.0853
45281SOL    HW144621   0.268   5.791   9.602  0.7417 -0.4838  0.0413
45281SOL    HW244622   0.328   5.896   9.510 -1.9721  1.1867  0.0781
45282SOL     OW44623   9.499  12.267   3.015 -0.3969 -0.3635  0.2550
45282SOL    HW144624   9.518  12.219   2.934 -0.6882 -0.0298 -0.0121
45282SOL    HW244625   9.420  12.225   3.050  0.4733 -1.3827  1.0729
45283SOL     OW44626  11.937   2.395   6.133  0.3604 -0.0764 -0.0444
45283SOL    HW144627  11.913   2.487   6.150 -0.9459 -0.4834  0.4659
45283SOL    HW244628  11.855   2.347   6.146  0.7733 -1.1941 -1.4008
45284SOL     OW44629  10.076   0.371   5.831 -0.3649  0.1979 -0.3513
45284SOL    HW144630  10.165   0.396   5.808 -0.4635  0.7286 -0.1695
45284SOL    HW244631  10.065   0.284   5.793  0.5193 -0.2369  0.3681
45285SOL     OW44632   3.751   8.758   3.978 -0.7448 -0.2006 -0.5814
45285SOL    HW144633   3.700   8.793   3.905  0.5686  1.9041 -0.5807
45285SOL    HW244634   3.686   8.723   4.038 -2.0871  0.9217 -1.3261
45286SOL     OW44635   1.050   3.325   7.755 -0.0801 -0.1011 -0.7318
45286SOL    HW144636   1.007   3.285   7.830 -1.4771  1.3872 -0.6803
45286SOL    HW244637   1.082   3.409   7.788  0.6775 -0.1056 -1.4170
45287SOL     OW44638  11.592   3.231   3.222  0.0729  0.4303  0.0976
45287SOL    HW144639  11.674   3.256   3.180 -1.9199  4.6664 -1.8554
45287SOL    HW244640  11.618   3.197   3.308  3.9264 -1.8168 -1.7135
45288SOL     OW44641   1.353   7.678   1.963  0.2599  0.2081  0.8370
45288SOL    HW144642   1.274   7.717   2.000  0.3402  0.7021  0.4910
45288SOL    HW244643   1.404   7.752   1.930 -0.9401 -0.2855 -2.5807
45289SOL     OW44644  11.072   2.158   2.429  0.1031 -0.2932 -0.0300
45289SOL    HW144645  11.064   2.071   2.390  0.3529  0.0935 -0.9789
45289SOL    HW244646  11.165   2.179   2.420  0.2071 -0.2859  0.9996
45290SOL     OW44647   2.775  10.780   2.485 -0.2279 -0.0589 -0.0271
45290SOL    HW144648   2.801  10.689   2.494  0.7313  0.0927 -1.0930
45290SOL    HW244649   2.800  10.804   2.396 -1.3416  0.9713 -0.0872
45291SOL     OW44650  11.396   3.986   7.534 -0.1296 -0.2008  0.2692
45291SOL    HW144651  11.319   3.929   7.527  0.0653 -0.4598  0.1870
45291SOL    HW244652  11.456   3.954   7.466 -0.1597  0.3351 -0.0139
45292SOL     OW44653   7.821   6.025   8.603  0.1274 -0.3074  0.2102
45292SOL    HW144654   7.906   5.989   8.578 -0.1730 -0.3271 -0.8030
45292SOL    HW244655   7.783   5.958   8.660  0.6101 -0.4914  0.3196
45293SOL     OW44656   4.185  11.509   2.214  0.2390  0.0796 -0.6760
45293SOL    HW144657   4.137  11.537   2.292 -0.6154 -1.1828 -0.7236
45293SOL    HW244658   4.271  11.485   2.246 -0.1134 -0.4529 -0.1111
45294SOL     OW44659  10.352   0.750  12.174  0.2063  0.5888 -0.4035
45294SOL    HW144660  10.265   0.787  12.161 -0.0597  0.1372  0.0509
45294SOL    HW244661  10.385   0.794  12.252 -0.3499 -0.5400  0.4892
45295SOL     OW44662   4.520   3.805   8.632 -0.4723 -0.0797 -0.1585
45295SOL    HW144663   4.548   3.780   8.544  1.0935 -0.3051  0.3797
45295SOL    HW244664   4.504   3.899   8.625 -0.9217 -0.1956 -0.8176
45296SOL     OW44665   0.850   9.844   1.835 -0.4337  0.3256 -0.0971
45296SOL    HW144666   0.765   9.882   1.815 -0.9056 -0.5498  0.2089
45296SOL    HW244667   0.912   9.895   1.783 -0.8777  2.3581  1.2185
45297SOL     OW44668  12.545   1.155  12.377  0.4149 -0.3502 -0.0725
45297SOL    HW144669  12.471   1.198  12.419  0.4331  0.5126 -0.8782
45297SOL    HW244670  12.516   1.141  12.287  1.7904  1.5711 -0.9002
45298SOL     OW44671   0.446   5.844   6.989  0.3577  0.3820  0.6099
45298SOL    HW144672   0.426   5.757   7.025  2.1758 -0.8038 -1.0555
45298SOL    HW244673   0.526   5.870   7.034  0.9015  0.2874 -0.2871
45299SOL     OW44674  12.605   1.363   2.959  0.4179 -0.3560  0.0777
45299SOL    HW144675  12.623   1.361   2.865  1.6501 -4.0157  0.2081
45299SOL    HW244676  12.689   1.385   2.999  0.3219 -0.4470  0.3323
45300SOL     OW44677   1.767   4.796  10.672 -0.1744 -1.1128 -0.4437
45300SOL    HW144678   1.747   4.703  10.684 -0.6710 -1.2752 -2.3171
45300SOL    HW244679   1.759   4.811  10.578  1.1453  0.5545 -0.3327
45301SOL     OW44680   8.292   6.977   6.619 -0.3731  0.5158  0.1732
45301SOL    HW144681   8.267   7.016   6.702 -0.8177  2.3596 -0.7920
45301SOL    HW244682   8.372   7.023   6.594 -0.9509  0.9044 -1.0276
45302SOL     OW44683   2.048   7.583   7.944 -0.0824  0.0592  0.3880
45302SOL    HW144684   1.985   7.654   7.954 -0.0999  0.3988 -1.7451
45302SOL    HW244685   2.114   7.601   8.012 -1.0730  0.9963  1.1453
45303SOL     OW44686   3.911   3.427   8.313  0.4688 -0.2875 -0.1551
45303SOL    HW144687   3.843   3.473   8.363  1.0271 -0.1810  0.5099
45303SOL    HW244688   3.977   3.494   8.294  0.5964 -0.4881 -0.4398
45304SOL     OW44689   1.977   8.506   9.293  0.0791  0.0415  0.1133
45304SOL    HW144690   2.028   8.578   9.329 -1.3647  2.5843 -2.5467
45304SOL    HW244691   1.911   8.487   9.360  1.8692 -0.5114  1.8219
45305SOL     OW44692   7.522   8.742  11.961 -0.0735 -0.7198  0.0432
45305SOL    HW144693   7.596   8.681  11.965 -0.6145 -1.3737  0.2159
45305SOL    HW244694   7.503   8.750  11.867  0.8480  0.2373 -0.0795
45306SOL     OW44695   5.459   3.670   8.755  0.6185 -0.8392 -0.3766
45306SOL    HW144696   5.431   3.741   8.813 -1.0550 -0.2622 -1.7907
45306SOL    HW244697   5.443   3.590   8.806  0.5661 -0.2948  0.4855
45307SOL     OW44698  10.312   3.529   3.767 -0.0311  0.2635  0.2417
45307SOL    HW144699  10.386   3.576   3.806  1.2663  0.1646 -1.9780
45307SOL    HW244700  10.320   3.440   3.801  0.8368  0.2727  0.0750
45308SOL     OW44701  10.180   4.778  12.040  0.2736  0.6444  0.2529
45308SOL    HW144702  10.189   4.804  11.949 -0.7531  1.9681  0.4926
45308SOL    HW244703  10.183   4.683  12.039  0.1606  0.6428 -1.1788
45309SOL     OW44704   1.223   0.029   8.760  0.1251  0.7227  0.0156
45309SOL    HW144705   1.193   0.072   8.840  0.2178  1.8842 -0.5527
45309SOL    HW244706   1.192  -0.062   8.767 -3.0280  1.6758 -0.2508
45310SOL     OW44707  10.295   5.318   0.496 -0.6099  0.0091  0.6635
45310SOL    HW144708  10.257   5.368   0.424  0.5401  1.6144  1.1076
45310SOL    HW244709  10.219   5.282   0.543 -1.5255  1.6392  0.4953
45311SOL     OW44710  12.028   5.960   7.349  0.5686 -0.0631 -0.1157
45311SOL    HW144711  12.072   6.039   7.317  1.5438 -0.4704  0.1638
45311SOL    HW244712  12.081   5.932   7.424  1.1211 -1.7609 -1.0680
45312SOL     OW44713  10.598   0.043   4.259  0.1969  1.2974  0.6462
45312SOL    HW144714  10.558   0.035   4.346  1.1157  0.2232  0.9993
45312SOL    HW244715  10.577   0.132   4.231 -3.2539  0.5689  0.3849
45313SOL     OW44716   5.517   7.295  11.225 -0.0313 -0.0925 -0.1347
45313SOL    HW144717   5.452   7.343  11.173 -0.4953 -1.7070 -1.1300
45313SOL    HW244718   5.479   7.208  11.237  0.4020 -0.0071  2.3477
45314SOL     OW44719   3.284  10.859   2.199  0.0201  0.1156  0.2846
45314SOL    HW144720   3.357  10.845   2.140  0.0886 -0.2473  0.4545
45314SOL    HW244721   3.304  10.942   2.243  1.0733 -0.7045  1.4150
45315SOL     OW44722   3.657   4.536   0.398  0.1835 -0.4402  0.1832
45315SOL    HW144723   3.634   4.480   0.324 -1.0848  0.0805  0.1549
45315SOL    HW244724   3.678   4.620   0.359  0.2654 -0.3756  0.3628
45316SOL     OW44725   1.801   5.391   8.230 -0.0054 -0.0592 -0.3219
45316SOL    HW144726   1.760   5.318   8.183 -0.3679 -1.7019  2.3423
45316SOL    HW244727   1.742   5.408   8.303  1.6867  0.7474  0.9261
45317SOL     OW44728   5.551   9.813   5.105  0.4986  0.3513  0.8250
45317SOL    HW144729   5.478   9.802   5.044  1.4511 -0.6168 -0.1907
45317SOL    HW244730   5.511   9.809   5.192 -0.6342 -0.3259  0.2950
45318SOL     OW44731  12.166   3.725  10.265  0.1599  0.4054 -1.0511
45318SOL    HW144732  12.117   3.801  10.296 -1.4622 -0.6499 -0.9254
45318SOL    HW244733  12.147   3.721  10.171 -1.5735 -1.0604 -0.6910
45319SOL     OW44734   9.880   6.175   3.377  0.1728 -0.6915 -0.7378
45319SOL    HW144735   9.903   6.144   3.465 -1.9452 -1.2359 -0.3089
45319SOL    HW244736   9.963   6.198   3.337  1.1855  0.0615  1.5892
45320SOL     OW44737   7.142  10.227   4.877 -0.6507  0.0681  0.2583
45320SOL    HW144738   7.088  10.269   4.945  0.0361  0.7264  0.4015
45320SOL    HW244739   7.224  10.205   4.921  0.6502  2.4136 -0.8267
45321SOL     OW44740   0.312   4.376   4.960 -0.9129 -0.4850 -0.0204
45321SOL    HW144741   0.285   4.295   5.004  0.1404 -0.2916  1.0220
45321SOL    HW244742   0.378   4.414   5.017 -1.0077  0.8627 -0.7552
45322SOL     OW44743   5.413   8.498  10.166 -0.1917  0.2115  0.0856
45322SOL    HW144744   5.364   8.560  10.220 -0.9908  0.8269 -1.2836
45322SOL    HW244745   5.358   8.484  10.089  0.8794 -0.6714 -0.5574
45323SOL     OW44746   4.408   0.788   9.606 -0.0775  0.1571  0.6050
45323SOL    HW144747   4.396   0.696   9.582 -2.3234  0.4081  0.5345
45323SOL    HW244748   4.443   0.785   9.695 -1.6221 -0.8210  1.2352
45324SOL     OW44749   5.938   3.284   7.321 -0.0171  0.6894 -0.2767
45324SOL    HW144750   5.993   3.227   7.376 -0.9554  0.9443  0.9768
45324SOL    HW244751   5.938   3.368   7.366 -1.7278  0.5850 -0.0099
45325SOL     OW44752   9.637   8.730   6.703 -0.5531 -0.0639 -0.1832
45325SOL    HW144753   9.693   8.715   6.779 -0.5323  0.2732 -0.1338
45325SOL    HW244754   9.565   8.668   6.714 -0.8047  0.3247  0.3651
45326SOL     OW44755   3.689  11.850   8.919 -0.3050  0.1278  0.0394
45326SOL    HW144756   3.604  11.845   8.961 -0.7489 -0.9070 -0.9453
45326SOL    HW244757   3.678  11.915   8.849 -0.2455  0.0860 -0.0097
45327SOL     OW44758   4.643   6.059   0.073  0.5378  0.0309 -0.4148
45327SOL    HW144759   4.715   6.121   0.060 -1.6463  2.2174 -3.0119
45327SOL    HW244760   4.687   5.977   0.096  3.6319  2.1479  2.1603
45328SOL     OW44761   7.209   5.544   6.036 -0.3728 -0.0016 -0.2099
45328SOL    HW144762   7.213   5.594   5.954 -4.0749 -0.9097 -1.1199
45328SOL    HW244763   7.199   5.453   6.008 -0.7975 -0.4378  1.2657
45329SOL     OW44764   4.461   1.921   8.913 -0.3249 -0.2537 -0.0276
45329SOL    HW144765   4.467   2.013   8.888 -0.6799 -0.3281 -0.3847
45329SOL    HW244766   4.494   1.873   8.837  3.0930 -0.3366  1.3169
45330SOL     OW44767   2.024   0.994   1.231 -0.0740  0.0936  0.2997
45330SOL    HW144768   2.097   1.034   1.183  0.2474  0.6817  1.2548
45330SOL    HW244769   1.992   1.064   1.288  0.7491 -1.0844  2.3078
45331SOL     OW44770   4.615   6.193  10.511 -0.3024  0.8414 -0.3071
45331SOL    HW144771   4.553   6.141  10.460  0.9717 -1.1942  0.1384
45331SOL    HW244772   4.695   6.193  10.460  0.1566  1.1281  0.3943
45332SOL     OW44773  12.018   9.563   7.910 -0.5170  0.4962 -0.1523
45332SOL    HW144774  12.032   9.644   7.959 -0.5423  1.4025 -1.5639
45332SOL    HW244775  12.095   9.510   7.929 -2.1132 -0.7940  3.6753
45333SOL     OW44776  10.825   8.042   2.863 -0.0226 -0.0498 -0.0921
45333SOL    HW144777  10.888   8.108   2.835  1.3933 -0.8911  0.9832
45333SOL    HW244778  10.861   8.007   2.945 -2.1705 -0.1849  0.8712
45334SOL     OW44779  10.528   9.394   2.112  0.7515  0.1474 -0.3322
45334SOL    HW144780  10.458   9.450   2.078  0.3466  1.2772  2.1575
45334SOL    HW244781  10.609   9.433   2.079  0.4207  1.6716  0.5797
45335SOL     OW44782   0.036   8.527   1.506 -0.0369 -0.2105  0.5518
45335SOL    HW144783   0.099   8.478   1.454  0.4502 -1.0566  1.9045
45335SOL    HW244784   0.058   8.619   1.489  0.6863 -0.4758 -0.0196
45336SOL     OW44785   2.968   8.903  11.674 -0.1756 -0.4380  0.0831
45336SOL    HW144786   2.974   8.920  11.768 -0.9124  1.1493 -0.1304
45336SOL    HW244787   2.874   8.899  11.656 -0.1393  1.6234 -0.9289
45337SOL     OW44788   3.148  10.074   0.088  0.1916 -0.7040 -0.1762
45337SOL    HW144789   3.176   9.983   0.100 -0.7684 -0.8857  0.8227
45337SOL    HW244790   3.055  10.073   0.109  0.3970  0.7112  0.9577
45338SOL     OW44791   9.948   6.345   0.919  0.1850  0.5656  0.2461
45338SOL    HW144792   9.922   6.309   1.004  1.4771  2.9712  1.7483
45338SOL    HW244793   9.868   6.341   0.866 -0.8987 -0.1008  1.8627
45339SOL     OW44794   5.054   0.930   0.050  0.0193  0.3314  0.5686
45339SOL    HW144795   5.013   0.887  -0.025 -0.7320  1.1237  0.5111
45339SOL    HW244796   4.981   0.952   0.108  0.6332 -0.7915  1.8371
45340SOL     OW44797   4.583   2.697   8.232  0.1047 -0.8093  0.3644
45340SOL    HW144798   4.664   2.687   8.283  0.3998  0.0893  0.0873
45340SOL    HW244799   4.601   2.769   8.172 -0.8908 -0.6264  0.2718
45341SOL     OW44800  10.721   3.760   2.034  0.5184  0.0220 -0.3508
45341SOL    HW144801  10.761   3.759   1.947  2.4101  0.3809  0.4551
45341SOL    HW244802  10.736   3.849   2.066 -3.6322  1.1796 -1.0870
45342SOL     OW44803  11.248  10.579   2.330 -0.1920  0.5440 -0.7406
45342SOL    HW144804  11.184  10.578   2.401  0.7060  0.8496  0.0938
45342SOL    HW244805  11.285  10.667   2.332  0.8335  0.1256 -0.6840
45343SOL     OW44806   4.791   1.498   1.497  0.1012  0.4181 -0.0664
45343SOL    HW144807   4.717   1.516   1.554 -0.3703  0.5159 -0.6946
45343SOL    HW244808   4.865   1.542   1.538 -0.3852  1.1106  0.0749
45344SOL     OW44809   1.348   3.045   3.329 -0.1792 -0.0374  0.2828
45344SOL    HW144810   1.340   3.047   3.233 -0.6990 -0.9185  0.2946
45344SOL    HW244811   1.438   3.016   3.344 -0.0260  0.3227  0.0606
45345SOL     OW44812   6.747   8.394   1.236  0.7070  0.4784  0.3579
45345SOL    HW144813   6.818   8.456   1.254  0.7257  0.6279 -0.2339
45345SOL    HW244814   6.790   8.308   1.233  1.1132  0.7114 -1.4408
45346SOL     OW44815   4.842   9.609   6.160 -0.5374 -0.4050 -0.0340
45346SOL    HW144816   4.827   9.699   6.187  0.9786  0.3692 -1.5630
45346SOL    HW244817   4.824   9.608   6.066  0.2947 -1.4612 -0.2087
45347SOL     OW44818   9.655   2.467  10.622 -0.1903  0.5477 -0.2215
45347SOL    HW144819   9.676   2.495  10.712 -0.6802 -1.2968  0.5151
45347SOL    HW244820   9.647   2.548  10.573 -0.4386  1.6359  1.5348
45348SOL     OW44821   5.011   9.880  10.608  0.0460  0.2623  0.1016
45348SOL    HW144822   4.966   9.891  10.525  0.2751 -1.1406 -0.2291
45348SOL    HW244823   5.059   9.962  10.621  0.9448  0.0623 -1.7308
45349SOL     OW44824   8.450   0.681   1.739  0.1289 -0.0940  0.1104
45349SOL    HW144825   8.430   0.768   1.773  0.2566  1.0442 -2.4909
45349SOL    HW244826   8.425   0.621   1.810 -3.1474  1.8159  0.8069
45350SOL     OW44827   0.155   3.433   1.051  0.3118 -0.3533 -0.4476
45350SOL    HW144828   0.072   3.426   1.097 -0.2078 -0.2876 -1.3619
45350SOL    HW244829   0.216   3.468   1.117 -0.5279  0.1980  0.0458
45351SOL     OW44830   1.997  12.207  10.169  0.5166  0.2197  0.0495
45351SOL    HW144831   1.917  12.156  10.158  2.2215 -2.5346 -0.8811
45351SOL    HW244832   2.011  12.248  10.084  1.1999 -1.2091 -0.5740
45352SOL     OW44833   0.387  12.342   6.614  0.4589  0.0993 -0.2538
45352SOL    HW144834   0.407  12.277   6.547  0.2095  0.5854 -0.8081
45352SOL    HW244835   0.457  12.332   6.679  0.9614 -0.0630 -0.8134
45353SOL     OW44836   8.576   3.498   8.401 -0.4055 -0.3676 -0.0175
45353SOL    HW144837   8.578   3.577   8.348 -0.5035 -0.0900  0.3886
45353SOL    HW244838   8.660   3.455   8.384 -0.8475 -0.8188 -1.1980
45354SOL     OW44839  10.915   7.465   8.520 -0.0722 -0.2368 -0.5053
45354SOL    HW144840  10.900   7.532   8.453  2.0878  0.0291 -0.8179
45354SOL    HW244841  10.971   7.401   8.476  2.0764  0.3495  1.2172
45355SOL     OW44842   3.991   0.663   8.693  0.3490 -0.0383  0.2169
45355SOL    HW144843   4.056   0.657   8.623  0.1663 -0.8377  0.1015
45355SOL    HW244844   4.014   0.592   8.753  0.3491  0.4793  0.8391
45356SOL     OW44845   2.749  11.490  12.101 -0.3740 -0.3378 -0.1103
45356SOL    HW144846   2.837  11.462  12.126 -0.5345 -0.0418  0.8428
45356SOL    HW244847   2.727  11.558  12.165 -1.0478  0.0358 -0.7286
45357SOL     OW44848   4.001   1.995   3.337 -0.1592 -0.4637 -0.1731
45357SOL    HW144849   4.057   2.015   3.262 -1.0980 -1.6911 -1.2434
45357SOL    HW244850   4.049   2.028   3.413 -0.0626  2.6579 -1.4443
45358SOL     OW44851   2.579  11.083   8.571  0.6794  0.4294 -0.0823
45358SOL    HW144852   2.669  11.093   8.540  1.1550 -4.1904 -0.9556
45358SOL    HW244853   2.525  11.094   8.494  0.6488  1.3411  0.0620
45359SOL     OW44854   9.159   0.026   3.011  0.2614 -0.1282 -0.5475
45359SOL    HW144855   9.118   0.041   2.926 -0.1107  0.1651 -0.3181
45359SOL    HW244856   9.104   0.074   3.073  1.5122  1.1566 -0.3672
45360SOL     OW44857   9.908   3.098  11.706  0.0722 -0.4809  0.0088
45360SOL    HW144858   9.914   3.175  11.649 -0.2710  1.5761  2.5392
45360SOL    HW244859   9.819   3.103  11.743  0.7534 -0.8647  1.8009
45361SOL     OW44860  11.472   1.092   9.921  0.1140  0.1747 -0.2551
45361SOL    HW144861  11.399   1.060   9.867  0.7712 -1.1601 -0.4153
45361SOL    HW244862  11.547   1.038   9.894  1.3072  1.8521 -0.4613
45362SOL     OW44863   9.351   2.355   4.086  0.0329 -0.0333  0.4586
45362SOL    HW144864   9.422   2.300   4.053 -1.0935 -0.6900 -0.9823
45362SOL    HW244865   9.379   2.380   4.174  1.2672 -1.6895  0.5813
45363SOL     OW44866  10.052  11.688  11.385  0.5171  0.3703  0.9755
45363SOL    HW144867  10.099  11.607  11.369  0.4099  0.1011  1.9895
45363SOL    HW244868  10.086  11.749  11.319 -0.6187 -0.9550 -0.9319
45364SOL     OW44869   5.120   4.473   3.167 -0.0499 -0.2474 -0.1332
45364SOL    HW144870   5.129   4.552   3.113  0.6320 -0.5236 -0.4385
45364SOL    HW244871   5.118   4.506   3.257 -3.3257  0.4142 -0.3015
45365SOL     OW44872   5.994   4.044   9.167 -0.7377  0.1485 -0.4877
45365SOL    HW144873   5.989   4.137   9.193  0.4328  0.3628 -0.9607
45365SOL    HW244874   6.008   3.997   9.250  1.3649  0.6754 -0.4794
45366SOL     OW44875  10.541   0.560   7.210  0.2030 -0.1151 -0.2862
45366SOL    HW144876  10.519   0.651   7.230 -1.0017 -0.0174 -1.8906
45366SOL    HW244877  10.478   0.508   7.260  0.0113 -0.0168 -0.4243
45367SOL     OW44878  12.369   7.276  10.104  0.0468  0.2833  0.4071
45367SOL    HW144879  12.431   7.205  10.122  0.7527  0.7309 -0.1773
45367SOL    HW244880  12.365   7.325  10.186  1.3344  0.8825  0.1492
45368SOL     OW44881   1.864   1.208  12.239  0.1051 -0.3191 -0.3808
45368SOL    HW144882   1.797   1.273  12.219  0.2063 -0.2489 -0.4977
45368SOL    HW244883   1.914   1.247  12.311 -1.7507 -1.6122  1.7415
45369SOL     OW44884   5.624   8.561   4.412  0.6033 -0.4246  0.0103
45369SOL    HW144885   5.613   8.522   4.325  2.4111  0.9866 -0.9097
45369SOL    HW244886   5.700   8.617   4.404 -0.5769  1.6107  1.8789
45370SOL     OW44887   5.676   5.065  11.012 -0.0115  0.5188  0.1768
45370SOL    HW144888   5.676   5.117  10.932 -0.2274  0.4496  0.1295
45370SOL    HW244889   5.633   4.983  10.987  2.3071 -0.6030 -0.3232
45371SOL     OW44890   8.589   8.469   2.672 -0.3529 -0.4437 -0.3894
45371SOL    HW144891   8.603   8.382   2.708 -0.6122 -0.2203  0.2725
45371SOL    HW244892   8.531   8.456   2.597 -2.8866 -0.5594  1.4675
45372SOL     OW44893   9.012   0.863   7.035 -0.2690  0.3027 -0.4586
45372SOL    HW144894   9.102   0.880   7.006 -0.4572  0.8757 -0.7230
45372SOL    HW244895   8.983   0.790   6.980  0.6873 -1.2232  0.9673
45373SOL     OW44896  12.023   2.823   6.797 -0.6980  1.0039  0.2599
45373SOL    HW144897  12.045   2.816   6.704 -0.3299 -1.4056  0.4447
45373SOL    HW244898  12.079   2.892   6.831  0.6632  0.5268 -0.9244
45374SOL     OW44899   4.869   2.603   1.155  0.1057  0.7562 -0.0921
45374SOL    HW144900   4.933   2.533   1.164 -0.6784  0.1633  1.1847
45374SOL    HW244901   4.798   2.565   1.103  0.2612  1.0360 -0.5153
45375SOL     OW44902  10.785  10.030   4.946  0.5600  0.6352  0.0123
45375SOL    HW144903  10.695  10.060   4.953  0.9021  1.5389  0.8378
45375SOL    HW244904  10.836  10.110   4.931  1.3151  0.2624  0.4642
45376SOL     OW44905   9.472   4.022   5.688 -0.1108  0.3478  0.1767
45376SOL    HW144906   9.534   4.094   5.686 -0.3198  0.5186 -0.5244
45376SOL    HW244907   9.520   3.948   5.652 -0.5186  0.6642 -1.0782
45377SOL     OW44908  12.158   7.447   9.345  0.4780  0.5802  0.7226
45377SOL    HW144909  12.125   7.534   9.324 -0.1403  0.3295  0.6517
45377SOL    HW244910  12.081   7.396   9.368  0.7808 -0.0801  0.3101
45378SOL     OW44911   3.672   1.332   7.338 -0.4454  0.5643 -0.2840
45378SOL    HW144912   3.579   1.308   7.347 -0.4488  1.1036  1.4158
45378SOL    HW244913   3.710   1.315   7.424  0.7413  1.5815 -0.5748
45379SOL     OW44914   2.535   0.886   9.866  0.1223 -0.1507  0.0974
45379SOL    HW144915   2.522   0.909   9.958 -0.7733  0.4517 -0.1640
45379SOL    HW244916   2.530   0.791   9.865  3.7669 -0.5147  1.1827
45380SOL     OW44917   2.854   5.007   6.533 -0.9025 -0.0357  0.7189
45380SOL    HW144918   2.810   5.082   6.492  1.1259  2.1061  2.1705
45380SOL    HW244919   2.801   4.986   6.610 -2.0311 -0.8326 -0.2348
45381SOL     OW44920   1.824   7.372   5.319 -0.0122 -0.1157 -0.1360
45381SOL    HW144921   1.870   7.330   5.392 -0.7007 -0.8299 -0.1009
45381SOL    HW244922   1.790   7.453   5.357  0.6913  0.1309 -0.0071
45382SOL     OW44923   7.970   7.040   3.060  0.1371 -0.0153 -0.5072
45382SOL    HW144924   8.003   7.126   3.033 -0.1529  0.0711 -0.5855
45382SOL    HW244925   7.955   6.993   2.978  0.8318 -0.3447 -0.4528
45383SOL     OW44926   0.098   2.235   9.584  0.2984  0.7209 -0.1215
45383SOL    HW144927   0.161   2.181   9.536 -0.8603 -0.3148 -0.5171
45383SOL    HW244928   0.098   2.318   9.537 -1.3130 -0.4894 -2.4178
45384SOL     OW44929   8.142   7.573   1.046  0.0045  0.3535  0.1930
45384SOL    HW144930   8.159   7.577   1.140 -0.3723  3.5335  0.2395
45384SOL    HW244931   8.217   7.525   1.011  0.2347 -0.7649  2.0664
45385SOL     OW44932   8.148   6.384   3.090  0.6657 -0.5222 -0.1457
45385SOL    HW144933   8.133   6.315   3.155 -0.7793  0.4131  0.5763
45385SOL    HW244934   8.201   6.449   3.136  1.8767 -1.0151 -0.7719
45386SOL     OW44935   6.303  11.314   5.921 -0.6978  0.0925  0.5950
45386SOL    HW144936   6.394  11.296   5.898 -1.0057  0.0658 -0.7378
45386SOL    HW244937   6.275  11.238   5.971 -0.0289  0.0320  0.8803
45387SOL     OW44938   8.895   0.407   0.472 -0.3484 -0.0254  0.0249
45387SOL    HW144939   8.869   0.485   0.422  0.6286 -0.3508 -1.0411
45387SOL    HW244940   8.830   0.341   0.448 -1.6119  0.6155  1.4871
45388SOL     OW44941   0.488   5.977   7.697 -0.4000 -0.2394  0.3850
45388SOL    HW144942   0.559   6.035   7.673  0.8245 -1.6976  0.3114
45388SOL    HW244943   0.464   5.933   7.615 -3.1297  1.9628 -0.1402
45389SOL     OW44944  10.639   4.944  11.350  0.6245  0.0870 -0.0081
45389SOL    HW144945  10.705   4.963  11.416 -0.1094 -0.6595  0.9881
45389SOL    HW244946  10.615   4.852  11.366  0.3931 -0.0983 -1.2866
45390SOL     OW44947  12.107   4.713   1.211 -0.4309 -0.4668 -0.1188
45390SOL    HW144948  12.116   4.799   1.170 -0.9397 -0.6966 -0.7275
45390SOL    HW244949  12.079   4.732   1.301 -0.6701 -0.0051 -0.2918
45391SOL     OW44950   7.367   8.684  10.369  0.2924  0.0435  0.0545
45391SOL    HW144951   7.326   8.636  10.297 -0.3999  0.4439  0.1689
45391SOL    HW244952   7.439   8.628  10.397 -2.6014 -2.8132  2.5995
45392SOL     OW44953   7.678   2.326   7.849  0.5698  0.4507  0.5731
45392SOL    HW144954   7.766   2.294   7.831  0.0013 -0.3900 -0.9549
45392SOL    HW244955   7.625   2.247   7.856 -0.4629  0.9555 -0.9290
45393SOL     OW44956   4.610   3.811   3.766  0.3656  0.2208 -0.3802
45393SOL    HW144957   4.654   3.807   3.682 -0.1640  0.9843 -0.6994
45393SOL    HW244958   4.564   3.895   3.766  1.3698  0.8061  1.1826
45394SOL     OW44959   9.004   7.040  10.664  0.5624  0.4855  0.1680
45394SOL    HW144960   9.047   7.051  10.749  1.4886 -0.2416 -0.1841
45394SOL    HW244961   8.952   6.961  10.672  1.4484 -0.1600 -0.2296
45395SOL     OW44962   4.542   4.285  10.235 -0.3547  0.2418 -0.0853
45395SOL    HW144963   4.538   4.374  10.271  1.8785 -0.7847  3.1368
45395SOL    HW244964   4.628   4.278  10.196 -0.3756 -0.5894 -0.0107
45396SOL     OW44965   0.427   0.294  10.687 -0.5267  0.3454 -0.5638
45396SOL    HW144966   0.391   0.213  10.651  0.0550  0.3218 -1.1102
45396SOL    HW244967   0.491   0.264  10.751 -0.0643  0.3586 -1.0102
45397SOL     OW44968  10.671   7.324   3.310  0.3058  0.9597 -0.3701
45397SOL    HW144969  10.738   7.298   3.373 -0.4784  1.6912  0.8096
45397SOL    HW244970  10.606   7.254   3.316  1.1369  0.0134 -1.8481
45398SOL     OW44971   2.683  10.391   6.536  0.1504  0.2918 -0.6242
45398SOL    HW144972   2.603  10.401   6.485  0.6225  1.0653 -1.2422
45398SOL    HW244973   2.745  10.452   6.495 -0.3829  3.6043  2.8630
45399SOL     OW44974   6.731  10.897   3.475  0.0371 -0.6799  0.5046
45399SOL    HW144975   6.736  10.825   3.413 -1.0821  0.1558 -0.6082
45399SOL    HW244976   6.699  10.971   3.423 -0.0206  0.2944  1.8800
45400SOL     OW44977   0.400   4.286   6.736  0.6236  0.1675  0.3049
45400SOL    HW144978   0.450   4.308   6.657  0.6628  1.5124  0.6884
45400SOL    HW244979   0.325   4.236   6.703  0.8722  0.3282 -0.5395
45401SOL     OW44980   6.337  12.522  12.361  0.0898  0.2586 -0.0569
45401SOL    HW144981   6.337  12.605  12.315 -1.5219  0.6364  0.5555
45401SOL    HW244982   6.285  12.463  12.306 -0.1873  0.1501  0.3114
45402SOL     OW44983   3.209   9.214   7.766 -0.7851 -0.3642 -0.6310
45402SOL    HW144984   3.192   9.124   7.793 -1.0548 -0.0642  0.2161
45402SOL    HW244985   3.199   9.266   7.846 -0.7547  0.4336 -1.1344
45403SOL     OW44986   1.125  11.033   5.817 -0.4472  0.2399  0.5724
45403SOL    HW144987   1.184  11.105   5.793 -1.6494  1.7980  1.9664
45403SOL    HW244988   1.038  11.072   5.815 -1.0639 -0.9130  2.2523
45404SOL     OW44989   6.027   9.445   3.605 -0.5589 -0.1951  0.0624
45404SOL    HW144990   6.006   9.353   3.586  0.0864 -0.0460 -1.5167
45404SOL    HW244991   6.119   9.453   3.583 -0.6499  0.8726  0.0444
45405SOL     OW44992   3.477   4.333   1.423 -0.8152  0.8007  0.1690
45405SOL    HW144993   3.521   4.380   1.352 -1.9950 -0.7801 -1.6936
45405SOL    HW244994   3.537   4.261   1.445 -0.9648  0.6142 -0.0317
45406SOL     OW44995  10.361   7.420   9.686  0.4791  0.1610  0.6906
45406SOL    HW144996  10.397   7.473   9.615  0.2044  0.2469  0.6150
45406SOL    HW244997  10.360   7.479   9.762 -0.6877  0.5518  0.3837
45407SOL     OW44998   6.986  12.055   4.240  0.3027  0.3822 -0.4107
45407SOL    HW144999   7.065  12.088   4.284  0.4420  0.2220 -0.5405
45407SOL    HW245000   6.915  12.107   4.277  0.1502 -1.0364  1.4527
45408SOL     OW45001   3.723   2.701   0.892  0.0744 -0.2950  0.1553
45408SOL    HW145002   3.734   2.791   0.861  1.0486 -0.8996 -1.3770
45408SOL    HW245003   3.629   2.692   0.908 -0.1074  0.8300 -0.1808
45409SOL     OW45004   2.200   8.902   2.744  0.7396 -0.0310 -0.1287
45409SOL    HW145005   2.111   8.877   2.719  0.5263 -0.9893  1.4800
45409SOL    HW245006   2.189   8.988   2.786  0.4068 -0.6004  0.9812
45410SOL     OW45007   6.907   2.342   6.006 -1.2224 -0.2492 -0.0677
45410SOL    HW145008   6.921   2.380   5.920  0.7887  1.3846  0.8980
45410SOL    HW245009   6.951   2.257   6.003 -1.8136 -0.5336 -0.8574
45411SOL     OW45010   9.550   7.788   3.665 -0.7012 -0.2852 -0.7060
45411SOL    HW145011   9.549   7.861   3.726 -2.3519  0.2028 -1.2500
45411SOL    HW245012   9.640   7.784   3.632  0.1383 -0.3776  1.4872
45412SOL     OW45013   8.903   1.659   1.504 -0.6755  0.9327  0.2282
45412SOL    HW145014   8.864   1.575   1.526 -1.5199  1.2433 -0.0437
45412SOL    HW245015   8.905   1.707   1.587  0.4795  0.3898  0.5298
45413SOL     OW45016  11.676   8.772   0.081 -0.1401  0.3407 -0.1004
45413SOL    HW145017  11.589   8.760   0.118 -0.3449 -0.9707 -0.9436
45413SOL    HW245018  11.735   8.732   0.144  0.0114  2.2779  1.0563
45414SOL     OW45019   6.253  12.201   0.144 -0.2932 -0.2262  0.1148
45414SOL    HW145020   6.256  12.233   0.054  0.2975 -0.4840  0.0380
45414SOL    HW245021   6.238  12.279   0.197  0.2437  0.0504 -0.1358
45415SOL     OW45022   1.023   9.175  10.995 -0.1000 -0.1881 -0.2142
45415SOL    HW145023   0.976   9.093  11.006 -0.2890  0.0296  0.6602
45415SOL    HW245024   1.111   9.149  10.968 -0.1719 -0.6771  0.0203
45416SOL     OW45025   4.913   4.663   8.531 -0.0660  0.5246  0.3132
45416SOL    HW145026   5.000   4.657   8.492 -0.4128  0.5801 -0.4963
45416SOL    HW245027   4.912   4.746   8.578  1.1543 -0.6084  2.4744
45417SOL     OW45028   8.644  12.006   3.852  0.1273 -0.2125  0.0486
45417SOL    HW145029   8.583  11.934   3.837 -0.1621  0.0912 -0.2228
45417SOL    HW245030   8.593  12.085   3.837  1.2438  0.0617 -2.9378
45418SOL     OW45031   3.236   1.162   2.343 -0.1211 -0.0587  0.1089
45418SOL    HW145032   3.309   1.220   2.364 -0.6961  0.8312 -0.3130
45418SOL    HW245033   3.226   1.170   2.248  0.6224 -1.8504 -0.1644
45419SOL     OW45034   6.030  10.904   2.343  0.3427 -0.5160  0.1312
45419SOL    HW145035   5.970  10.898   2.417  1.2156 -0.2840  0.8871
45419SOL    HW245036   6.064  10.994   2.347  0.2280 -0.4257 -0.6996
45420SOL     OW45037   6.244  10.987   7.459  0.4099 -0.1636  0.6211
45420SOL    HW145038   6.313  11.053   7.455  1.3570 -1.0929  1.0162
45420SOL    HW245039   6.195  11.007   7.539 -0.9246  1.5718 -0.5849
45421SOL     OW45040  11.207   9.258   2.442 -0.3868 -0.4661  0.3964
45421SOL    HW145041  11.193   9.203   2.519 -0.3983 -0.5702  0.3209
45421SOL    HW245042  11.299   9.286   2.448 -0.5194 -0.0830  0.6990
45422SOL     OW45043  12.591   1.732   0.747  0.4485  0.6005 -0.2761
45422SOL    HW145044  12.565   1.647   0.780 -1.1394  0.7171 -1.1290
45422SOL    HW245045  12.679   1.746   0.782 -0.1837 -0.3260  1.8307
45423SOL     OW45046   4.680  12.537   3.183 -0.2676 -0.4630  0.1920
45423SOL    HW145047   4.699  12.476   3.111 -0.4916 -0.3271  0.0160
45423SOL    HW245048   4.692  12.623   3.144 -0.0309 -0.3917  0.4192
45424SOL     OW45049   4.883   3.116   7.243  0.1200  0.0155 -0.3226
45424SOL    HW145050   4.821   3.154   7.181  0.5849  1.4621  0.0674
45424SOL    HW245051   4.932   3.051   7.192 -2.0303 -1.5646 -0.5197
45425SOL     OW45052   4.487  12.329   6.928  0.3054  0.5157  0.6143
45425SOL    HW145053   4.444  12.264   6.873 -1.1852  1.9540 -0.0081
45425SOL    HW245054   4.573  12.292   6.946  0.0196 -0.9885 -0.8445
45426SOL     OW45055   3.084   1.085   7.072 -0.1480 -0.2745  0.1465
45426SOL    HW145056   3.010   1.143   7.090 -1.6759 -1.3820 -2.1637
45426SOL    HW245057   3.048   0.997   7.077  1.1129 -0.8679 -0.6532
45427SOL     OW45058   1.678   2.667   7.895  0.7951 -0.1546  0.3734
45427SOL    HW145059   1.595   2.674   7.942  1.0451  0.4038  0.7460
45427SOL    HW245060   1.690   2.574   7.881  0.6106 -0.3199  1.2444
45428SOL     OW45061   7.454   7.765  10.499 -0.5022  0.1223 -0.3979
45428SOL    HW145062   7.432   7.847  10.543 -0.9492 -0.1236 -0.1680
45428SOL    HW245063   7.371   7.719  10.490 -0.1616 -0.6063  0.0736
45429SOL     OW45064  11.078   6.695   9.658  0.1261  0.6029 -0.1072
45429SOL    HW145065  11.008   6.706   9.723  0.6226 -0.1434  0.5661
45429SOL    HW245066  11.140   6.635   9.699 -0.1983 -0.9664 -1.7957
45430SOL     OW45067   3.598   2.028  12.139 -0.0982 -0.4563 -0.5273
45430SOL    HW145068   3.608   2.073  12.055 -1.9763 -1.7590 -1.5274
45430SOL    HW245069   3.517   1.977  12.130  1.2003 -3.0053  0.9916
45431SOL     OW45070   7.772   6.939  11.679  0.2890 -0.2906  0.4175
45431SOL    HW145071   7.716   7.013  11.701  1.7586  1.0116 -0.0291
45431SOL    HW245072   7.791   6.950  11.586  0.2897 -1.4157  0.2736
45432SOL     OW45073   9.964  12.305   2.252 -0.4524  0.2415 -0.1646
45432SOL    HW145074  10.014  12.233   2.292 -0.4387  1.2875  1.8106
45432SOL    HW245075   9.878  12.267   2.235  0.4188 -1.0683 -1.9357
45433SOL     OW45076   0.181  10.467   7.019  0.2352  0.5045  0.0015
45433SOL    HW145077   0.167  10.374   7.005 -0.2315  0.6016 -0.1894
45433SOL    HW245078   0.267  10.472   7.060 -0.7735 -0.2367  2.4242
45434SOL     OW45079  11.903   0.416   1.875 -0.0055  0.0034  0.2519
45434SOL    HW145080  11.817   0.408   1.916  0.9966 -0.0097  2.4548
45434SOL    HW245081  11.923   0.509   1.878 -0.6357  0.2509 -1.8464
45435SOL     OW45082   0.777   8.595  10.530  0.3853 -0.2048 -0.8683
45435SOL    HW145083   0.870   8.578  10.546  0.4901 -0.1198 -1.3498
45435SOL    HW245084   0.735   8.510  10.544  0.1561  0.2922  1.8354
45436SOL     OW45085  10.264   7.413  11.034  0.0790 -0.0226 -0.0343
45436SOL    HW145086  10.334   7.382  10.977 -0.0302  0.4905 -0.4589
45436SOL    HW245087  10.275   7.509  11.035  0.3250 -0.0517  1.1251
45437SOL     OW45088   5.667   5.704   7.145 -0.2934 -0.3551  0.1312
45437SOL    HW145089   5.643   5.665   7.229 -2.2772  0.0994 -0.1932
45437SOL    HW245090   5.695   5.630   7.091 -2.3249 -1.1392  0.0912
45438SOL     OW45091   5.147   7.635  11.941 -0.5688  0.1124  0.6377
45438SOL    HW145092   5.138   7.564  11.878 -0.6131 -1.2688  2.1365
45438SOL    HW245093   5.126   7.714  11.891 -0.5167 -0.9071 -1.0782
45439SOL     OW45094   0.700  11.489   5.782  0.0458  0.4033 -0.2014
45439SOL    HW145095   0.745  11.446   5.709  0.0769  0.6224 -0.3122
45439SOL    HW245096   0.767  11.545   5.822  0.3046 -0.4680  0.6163
45440SOL     OW45097   7.112   8.513  11.159  0.0748  0.4050  0.3369
45440SOL    HW145098   7.088   8.521  11.067 -2.5700  0.1192  0.9170
45440SOL    HW245099   7.161   8.593  11.178  0.5799  0.5089 -1.2800
45441SOL     OW45100   2.047   8.770  12.121  0.3723  0.2985  0.4188
45441SOL    HW145101   2.041   8.864  12.138 -0.1259  0.8324 -2.2550
45441SOL    HW245102   2.125   8.760  12.067  1.1669 -1.0503  1.7537
45442SOL     OW45103   9.673   9.497   4.876  0.0424  0.1131 -0.5035
45442SOL    HW145104   9.624   9.563   4.925 -0.8341 -1.2836  0.5893
45442SOL    HW245105   9.761   9.533   4.867  0.0900  0.6430  1.6938
45443SOL     OW45106  10.835  11.763   6.247  0.6098  0.5530 -0.4010
45443SOL    HW145107  10.893  11.771   6.171 -0.3404 -1.6512 -1.4488
45443SOL    HW245108  10.749  11.790   6.215  0.3427  0.3323  0.1187
45444SOL     OW45109   5.398  11.040   2.105  0.3505  0.4835  0.2556
45444SOL    HW145110   5.313  11.085   2.105 -1.2867 -2.4021  0.2537
45444SOL    HW245111   5.410  11.013   2.196  1.0927  0.4998  0.1643
45445SOL     OW45112  11.941   0.126   2.041  0.3171  0.4504  1.1779
45445SOL    HW145113  11.907   0.099   1.956 -0.6213  0.9082  1.3889
45445SOL    HW245114  11.930   0.049   2.097 -1.6861  0.9897  1.5960
45446SOL     OW45115  11.693  11.836   4.680 -0.7029  0.4378 -0.6823
45446SOL    HW145116  11.599  11.850   4.694 -0.7217 -1.5996  2.1877
45446SOL    HW245117  11.704  11.741   4.685  1.7100  0.7097  1.0971
45447SOL     OW45118   6.768   1.172   5.534  0.5411  0.2338 -0.2436
45447SOL    HW145119   6.673   1.163   5.543  0.4065  0.1991 -1.5232
45447SOL    HW245120   6.782   1.265   5.518  0.4887 -0.0430 -2.1904
45448SOL     OW45121   0.820   9.738   7.923  0.3974  0.1245 -0.0899
45448SOL    HW145122   0.752   9.776   7.978  0.8269  0.2398  0.3675
45448SOL    HW245123   0.784   9.653   7.896  0.7946 -0.6528  1.6551
45449SOL     OW45124   5.698  12.264   8.116 -0.3032 -0.3738 -0.6395
45449SOL    HW145125   5.629  12.300   8.061 -1.0303  1.0841  1.1187
45449SOL    HW245126   5.656  12.251   8.201  1.1785 -0.9851  0.0293
45450SOL     OW45127   1.285   3.763   4.445 -0.2983  0.0297  0.1466
45450SOL    HW145128   1.222   3.730   4.509  0.7031 -1.5196  0.4018
45450SOL    HW245129   1.290   3.694   4.379 -0.5366  1.1448 -1.0940
45451SOL     OW45130   1.264   8.624   2.906 -0.4261 -0.1705  0.3896
45451SOL    HW145131   1.356   8.638   2.928 -0.6719 -0.2963  1.5821
45451SOL    HW245132   1.238   8.549   2.960 -1.4328  0.3869  0.7112
45452SOL     OW45133  10.847   2.836   1.621 -0.3318 -0.1494 -0.2551
45452SOL    HW145134  10.807   2.907   1.671 -1.5449  0.4503 -2.0193
45452SOL    HW245135  10.819   2.756   1.666 -1.5420  0.3678 -0.0581
45453SOL     OW45136   6.197   5.293   1.821  0.2626  0.8209 -0.0137
45453SOL    HW145137   6.145   5.370   1.845  0.1661  1.2025 -1.4001
45453SOL    HW245138   6.135   5.220   1.826 -0.0466  1.0649 -0.2448
45454SOL     OW45139   1.540   1.382   5.806  0.3192  0.0628 -0.3553
45454SOL    HW145140   1.636   1.386   5.810  0.2499  0.6225  1.2562
45454SOL    HW245141   1.516   1.452   5.745  1.0055 -1.8561 -3.0371
45455SOL     OW45142   2.845   3.957   1.357 -0.7248  0.3536 -0.3032
45455SOL    HW145143   2.926   4.008   1.367 -0.2543 -0.6819  1.7346
45455SOL    HW245144   2.776   4.018   1.385 -0.3792  0.5121  0.2352
45456SOL     OW45145  11.655   1.589  10.449  0.0050 -0.0112 -0.8995
45456SOL    HW145146  11.721   1.549  10.392  1.3941  0.4590  0.3147
45456SOL    HW245147  11.669   1.549  10.534 -1.4977 -0.0963 -0.6565
45457SOL     OW45148   2.691  12.224  11.511 -0.5058 -0.0010 -0.4718
45457SOL    HW145149   2.650  12.154  11.561 -0.1690  0.6893  0.8203
45457SOL    HW245150   2.725  12.284  11.578 -1.5528  1.8577 -1.5283
45458SOL     OW45151  10.914   2.948   2.993 -0.7998 -0.2881 -0.1531
45458SOL    HW145152  10.907   2.862   3.034 -1.3374  0.1233  0.6542
45458SOL    HW245153  10.947   2.930   2.905 -0.8647 -1.3112  0.0151
45459SOL     OW45154   9.648   0.155   9.140  0.2551  0.2974  0.3125
45459SOL    HW145155   9.634   0.171   9.233 -2.5735  0.8841 -0.1347
45459SOL    HW245156   9.564   0.174   9.099  1.1229 -0.9397 -2.2624
45460SOL     OW45157   0.712   7.164   9.265  0.4123 -0.0202 -0.0505
45460SOL    HW145158   0.768   7.088   9.248  0.1137 -0.1059 -0.6728
45460SOL    HW245159   0.659   7.173   9.186 -1.4825 -0.8209  1.0566
45461SOL     OW45160   6.734   9.359   1.283  0.0953  0.1677 -0.1899
45461SOL    HW145161   6.765   9.366   1.193 -1.0034 -0.2040 -0.6053
45461SOL    HW245162   6.640   9.343   1.276 -0.3252  1.7752  1.0389
45462SOL     OW45163  11.783   7.302   1.971 -0.0607  0.5619  0.0986
45462SOL    HW145164  11.850   7.236   1.992  2.3157  1.9680 -2.3653
45462SOL    HW245165  11.799   7.373   2.034  0.1597  0.4876  0.1279
45463SOL     OW45166  11.181   3.968   4.144  0.2873 -0.1248 -0.3496
45463SOL    HW145167  11.177   4.063   4.157  2.2204 -0.0270 -0.1647
45463SOL    HW245168  11.111   3.934   4.200  1.4361  1.0420  1.9917
45464SOL     OW45169   1.275   0.777   4.881  0.4493  0.3293  0.5159
45464SOL    HW145170   1.206   0.768   4.947 -0.2062 -2.8029 -0.4656
45464SOL    HW245171   1.254   0.858   4.835 -4.2897 -1.7008 -1.5004
45465SOL     OW45172   1.178   5.530  11.083  0.0811 -0.2798 -0.1713
45465SOL    HW145173   1.153   5.565  11.169 -0.1889  0.9483 -0.7339
45465SOL    HW245174   1.246   5.589  11.051  0.3148 -0.8343 -0.7401
45466SOL     OW45175   9.076   4.106   9.971  0.4995  0.6332 -0.0736
45466SOL    HW145176   9.067   4.063   9.886  1.5377 -1.9971  1.0262
45466SOL    HW245177   9.159   4.153   9.966  1.1610 -0.4974 -0.1922
45467SOL     OW45178   5.990   3.373   3.892 -0.3813  0.2787 -0.4697
45467SOL    HW145179   6.078   3.338   3.902 -0.3407  0.6368  0.5181
45467SOL    HW245180   6.004   3.466   3.873 -0.5348  0.8936  2.0380
45468SOL     OW45181   2.543   3.983   4.956 -0.2263  0.0166  0.4419
45468SOL    HW145182   2.566   4.054   4.896 -0.1017 -0.5856 -0.2382
45468SOL    HW245183   2.621   3.927   4.959 -0.2386  0.0334  1.1577
45469SOL     OW45184   0.815   0.090   0.286 -0.1635 -0.7726 -0.3885
45469SOL    HW145185   0.749   0.051   0.344  0.1276 -1.7442 -0.6968
45469SOL    HW245186   0.898   0.065   0.325  0.0364 -1.3985 -1.1845
45470SOL     OW45187   2.735   0.278   7.959  0.2493 -0.0787 -0.2642
45470SOL    HW145188   2.742   0.310   8.049  1.2753  0.4425 -0.5203
45470SOL    HW245189   2.754   0.354   7.904 -3.0382  0.3672 -1.0418
45471SOL     OW45190   2.393   9.431  10.673 -0.1012 -0.3134  0.8139
45471SOL    HW145191   2.365   9.362  10.733  1.6707 -0.6502  1.3285
45471SOL    HW245192   2.470   9.470  10.716 -0.6738  1.5707  0.2303
45472SOL     OW45193   2.423   0.752   7.148  0.1134  0.1488 -0.3064
45472SOL    HW145194   2.456   0.689   7.084  0.5674  1.5234 -1.5125
45472SOL    HW245195   2.362   0.703   7.202 -1.7235 -0.7530 -2.9546
45473SOL     OW45196   4.129  10.865   9.724 -0.2698  0.4630  0.2526
45473SOL    HW145197   4.042  10.905   9.722  0.3920  1.9875  0.4265
45473SOL    HW245198   4.163  10.877   9.635 -0.2117 -0.0913  0.1968
45474SOL     OW45199   3.922   5.647   9.147 -0.0814 -0.3614 -0.6547
45474SOL    HW145200   3.951   5.558   9.133  1.2291  0.0476 -0.6133
45474SOL    HW245201   3.872   5.669   9.068 -1.4636 -1.5179 -0.1423
45475SOL     OW45202   7.449   4.475   8.462 -0.8102 -0.9241 -0.1368
45475SOL    HW145203   7.393   4.548   8.434  0.5677 -0.1352 -0.8992
45475SOL    HW245204   7.465   4.425   8.383  1.1697 -0.0053 -0.3866
45476SOL     OW45205   6.483   4.736   5.013  0.2038  0.5421  0.1321
45476SOL    HW145206   6.457   4.661   4.959 -0.1058  0.1483  0.8161
45476SOL    HW245207   6.575   4.721   5.032  0.1612  0.3724  0.2063
45477SOL     OW45208   3.110   7.548   2.787  0.7979 -0.4713 -0.2041
45477SOL    HW145209   3.058   7.521   2.863  0.6427 -1.9049 -0.7920
45477SOL    HW245210   3.080   7.637   2.769 -0.0525 -0.5641  0.6601
45478SOL     OW45211   3.822   6.101   5.324  0.1753  0.3164 -0.6620
45478SOL    HW145212   3.897   6.088   5.265 -0.0596 -0.6119 -0.7594
45478SOL    HW245213   3.843   6.050   5.402 -0.9038 -0.9714 -1.1800
45479SOL     OW45214  10.548  12.440   6.603 -1.3606 -0.0662  0.6541
45479SOL    HW145215  10.569  12.347   6.607 -0.3450  0.1673  0.9071
45479SOL    HW245216  10.522  12.463   6.692 -0.7940  0.0796  0.7821
45480SOL     OW45217   3.880   2.263   2.596  0.1525  0.3883 -0.2560
45480SOL    HW145218   3.803   2.207   2.600 -1.0641  2.0126  0.7170
45480SOL    HW245219   3.913   2.253   2.506 -0.3389 -1.3953 -0.2674
45481SOL     OW45220   2.706   1.982   9.403  0.3205  0.0320  0.0650
45481SOL    HW145221   2.797   1.969   9.429  0.1184 -2.3084 -0.2002
45481SOL    HW245222   2.657   1.915   9.451 -1.2780  1.2394  0.1978
45482SOL     OW45223   4.577   1.121   5.109  0.4764 -0.0607 -0.8460
45482SOL    HW145224   4.561   1.209   5.076  1.8643  0.6357  0.2302
45482SOL    HW245225   4.535   1.063   5.045  0.5110  1.3429 -2.1903
45483SOL     OW45226   9.193   3.009   4.403  0.4821 -0.7440 -0.0974
45483SOL    HW145227   9.184   2.962   4.486  1.2329  0.8054  0.9207
45483SOL    HW245228   9.271   3.064   4.416  0.6406 -0.5158 -1.8618
45484SOL     OW45229   4.244   9.429  11.115 -0.6741 -0.1013  0.2068
45484SOL    HW145230   4.234   9.341  11.078  1.9991  0.0535 -1.1243
45484SOL    HW245231   4.226   9.418  11.209 -0.1666 -2.1360  0.1050
45485SOL     OW45232   3.694   0.707   9.812  0.3515 -0.3960  0.4018
45485SOL    HW145233   3.653   0.621   9.817 -0.0846 -0.1461  1.2335
45485SOL    HW245234   3.657   0.756   9.885  0.1807  0.6804 -0.3728
45486SOL     OW45235   8.243  11.448   6.264  0.7260  0.0758 -0.3664
45486SOL    HW145236   8.174  11.410   6.209 -0.3820  0.7615  0.5217
45486SOL    HW245237   8.251  11.387   6.338 -0.0879  0.8167  0.3559
45487SOL     OW45238  10.739  12.366   1.064  0.5948  0.4109 -0.1066
45487SOL    HW145239  10.826  12.404   1.079  1.4221 -1.4316  0.0084
45487SOL    HW245240  10.755  12.272   1.057 -1.6305 -0.1817  1.7521
45488SOL     OW45241   6.113   8.639   5.059 -0.1268 -0.1547  0.2059
45488SOL    HW145242   6.039   8.582   5.040 -1.0451  1.8437 -2.9971
45488SOL    HW245243   6.076   8.728   5.057  2.1377  0.8590 -0.4126
45489SOL     OW45244  12.455  12.376   8.911 -0.0452 -0.0673  0.2570
45489SOL    HW145245  12.493  12.396   8.825 -0.3207  0.1569  0.1847
45489SOL    HW245246  12.493  12.291   8.935  1.0332  0.4759  0.5070
45490SOL     OW45247   8.360  12.117   9.755 -0.0550 -0.0032  0.1182
45490SOL    HW145248   8.426  12.169   9.800  0.1192 -0.4545  0.3820
45490SOL    HW245249   8.372  12.028   9.787 -0.4231 -0.1934 -0.2516
45491SOL     OW45250   1.754  12.127   0.546 -0.2586  0.0404 -0.8575
45491SOL    HW145251   1.828  12.125   0.486 -0.1622  0.0423 -0.7382
45491SOL    HW245252   1.703  12.204   0.520  0.3553  0.6658 -0.2416
45492SOL     OW45253  12.245   5.767  11.923 -0.0456  0.7857  0.3983
45492SOL    HW145254  12.337   5.783  11.941 -0.1117  1.0641  0.4975
45492SOL    HW245255  12.229   5.679  11.957  0.3543  0.4495 -0.2786
45493SOL     OW45256   1.137   0.107  10.133 -0.8724  0.3222  0.2793
45493SOL    HW145257   1.115   0.031  10.079 -1.0886  1.0450 -0.6833
45493SOL    HW245258   1.120   0.079  10.223 -0.5980 -0.8782 -0.0259
45494SOL     OW45259  10.293   7.744   7.427  0.9237 -0.6793 -0.0035
45494SOL    HW145260  10.345   7.746   7.508  1.2378 -2.0520 -0.1489
45494SOL    HW245261  10.351   7.782   7.362  0.7696  0.1858  0.3443
45495SOL     OW45262  12.046   7.534   4.182  0.3144 -0.0585  0.1711
45495SOL    HW145263  12.105   7.604   4.156  0.3976 -0.3104 -0.3425
45495SOL    HW245264  12.001   7.509   4.101 -0.6249  0.2427  0.5830
45496SOL     OW45265   8.605   1.238  11.060 -0.0216  0.3318  0.0124
45496SOL    HW145266   8.584   1.145  11.066  0.9067 -0.0293 -1.6156
45496SOL    HW245267   8.661   1.255  11.135  1.7494 -1.0409 -0.9192
45497SOL     OW45268   2.382  10.381   5.762 -0.0688  0.1128 -0.1193
45497SOL    HW145269   2.392  10.354   5.853 -0.0370 -2.8670 -0.8911
45497SOL    HW245270   2.345  10.469   5.767  0.1698  0.1498  2.7407
45498SOL     OW45271   1.889  11.235   5.029  0.3675  0.0668  0.0909
45498SOL    HW145272   1.869  11.326   5.006  0.8187  0.0446 -0.4146
45498SOL    HW245273   1.805  11.189   5.024  0.0998  0.4905  0.5531
45499SOL     OW45274   6.119  12.489   6.036  0.0552 -0.1104 -0.0630
45499SOL    HW145275   6.053  12.434   6.077 -0.2229  0.2772  0.0218
45499SOL    HW245276   6.201  12.466   6.079 -0.0324 -0.5680 -0.1427
45500SOL     OW45277   1.897  11.620   3.982  0.0185 -0.1801 -0.1931
45500SOL    HW145278   1.850  11.700   3.959 -0.2605 -0.3774 -0.3161
45500SOL    HW245279   1.950  11.599   3.905 -0.8164 -0.7683 -0.6199
45501SOL     OW45280   0.636   4.199   4.711  0.1092 -1.0227 -0.1059
45501SOL    HW145281   0.634   4.138   4.637 -0.1973 -0.5699 -0.4789
45501SOL    HW245282   0.559   4.255   4.698  0.3528 -0.5934  0.2615
45502SOL     OW45283   3.730   2.941   3.482  0.0234  0.7933 -0.2810
45502SOL    HW145284   3.820   2.975   3.484 -0.0209  1.0377 -1.6376
45502SOL    HW245285   3.705   2.946   3.390 -1.7673  1.7298  0.2185
45503SOL     OW45286   0.509   0.728   7.903  0.4386  0.1388  0.1561
45503SOL    HW145287   0.467   0.790   7.843 -0.4161 -0.2599  0.3247
45503SOL    HW245288   0.551   0.664   7.845 -1.8853 -1.2725 -0.1032
45504SOL     OW45289   5.514  10.766   1.052 -0.4299  0.7573 -0.2145
45504SOL    HW145290   5.493  10.821   0.976 -1.2342 -1.5828 -1.7857
45504SOL    HW245291   5.449  10.696   1.050  1.4801 -1.1584  0.7769
45505SOL     OW45292   0.243  10.965   6.338 -0.3543 -0.3837  0.5544
45505SOL    HW145293   0.327  10.946   6.296 -0.1272  0.1646  0.7462
45505SOL    HW245294   0.265  10.983   6.429 -0.4663  1.2063  0.3093
45506SOL     OW45295   9.338   4.414   4.917  0.0202 -1.2167 -0.0346
45506SOL    HW145296   9.366   4.482   4.978  1.5017 -1.5520 -0.3086
45506SOL    HW245297   9.263   4.452   4.872  0.6752  0.1535 -0.0303
45507SOL     OW45298   7.528  11.079   4.198 -0.4973  0.4292 -0.4431
45507SOL    HW145299   7.605  11.131   4.218  0.2134 -0.8362  0.2622
45507SOL    HW245300   7.482  11.128   4.129  1.0087  1.1095 -0.9906
45508SOL     OW45301  11.889   4.687   4.372 -0.4868 -0.6987 -0.2125
45508SOL    HW145302  11.881   4.593   4.357  0.2947 -0.6350 -1.1188
45508SOL    HW245303  11.827   4.706   4.442  1.0274 -2.2977  1.6789
45509SOL     OW45304  12.495   3.847  11.652  0.1153  0.1024  0.1696
45509SOL    HW145305  12.461   3.841  11.563  3.7164 -1.4297 -1.3172
45509SOL    HW245306  12.482   3.938  11.677 -1.5349  0.4230 -1.6467
45510SOL     OW45307   9.213   2.472  11.076  0.4642  0.0584 -0.2027
45510SOL    HW145308   9.267   2.550  11.060  0.5818  0.0988  0.3563
45510SOL    HW245309   9.259   2.426  11.147  0.3521 -0.4793 -0.4752
45511SOL     OW45310   9.797   3.976   1.043  0.2117  0.0247  0.4099
45511SOL    HW145311   9.754   3.897   1.010  0.0756  0.8156 -1.4264
45511SOL    HW245312   9.754   3.994   1.127 -2.0868 -0.0096 -0.6853
45512SOL     OW45313   3.776   4.786   5.836 -0.4120 -0.5255 -0.3239
45512SOL    HW145314   3.821   4.747   5.761 -0.7706 -2.0322  0.1951
45512SOL    HW245315   3.760   4.712   5.895 -1.6981  0.3275  0.4540
45513SOL     OW45316  12.466   7.826   7.667 -0.1634  0.1068  0.3421
45513SOL    HW145317  12.428   7.771   7.599 -1.2900  1.6452 -0.3279
45513SOL    HW245318  12.501   7.764   7.731 -1.7942 -1.3895 -0.1356
45514SOL     OW45319   9.380  12.331   0.045 -0.3227  0.2784  0.4610
45514SOL    HW145320   9.331  12.254   0.019 -0.4282  0.4978 -0.0202
45514SOL    HW245321   9.337  12.403  -0.001  1.0049  0.3615 -0.7609
45515SOL     OW45322  10.928   6.676  11.866  0.2278  0.2686  0.4416
45515SOL    HW145323  10.968   6.622  11.935 -1.0545  0.7436  1.5955
45515SOL    HW245324  10.979   6.757  11.868 -0.7081  0.8526  1.8738
45516SOL     OW45325   4.197   1.201  11.072  0.4593 -0.5155 -0.3737
45516SOL    HW145326   4.117   1.198  11.124  1.1969  1.8681  1.0322
45516SOL    HW245327   4.166   1.202  10.981 -1.1287  0.5140  0.1398
45517SOL     OW45328   1.358  12.536  11.079 -0.1772  0.0735 -0.6786
45517SOL    HW145329   1.420  12.513  11.010  1.0929  1.1121  0.0763
45517SOL    HW245330   1.411  12.538  11.159 -1.2276  0.7541  0.0217
45518SOL     OW45331   1.331   1.950  11.926 -0.5163 -0.2657  0.5252
45518SOL    HW145332   1.352   1.867  11.969 -1.8014 -0.3023  1.1490
45518SOL    HW245333   1.390   2.013  11.966 -0.7557 -0.5617  1.3788
45519SOL     OW45334   7.629   2.384   6.425  0.0755  0.5693 -0.2719
45519SOL    HW145335   7.558   2.319   6.429  0.7820 -0.1558  1.2078
45519SOL    HW245336   7.592   2.462   6.465 -0.1938  0.5097 -0.3982
45520SOL     OW45337   3.140   3.912   7.658 -0.2087  0.0376  1.1057
45520SOL    HW145338   3.204   3.848   7.692  0.9880  0.0011 -1.0110
45520SOL    HW245339   3.058   3.863   7.654  0.5119 -1.1776  0.2811
45521SOL     OW45340   0.236   1.861   8.432  0.6467  0.1154 -0.3817
45521SOL    HW145341   0.275   1.930   8.379 -1.0479  0.5478 -1.1374
45521SOL    HW245342   0.182   1.907   8.496  0.3730 -0.4628 -0.1875
45522SOL     OW45343   4.849  12.361   5.622 -0.3247 -0.1650  0.1149
45522SOL    HW145344   4.926  12.409   5.592 -1.0281 -0.2477 -2.0062
45522SOL    HW245345   4.799  12.425   5.674 -0.1830  0.7702 -0.8544
45523SOL     OW45346   1.052   9.707   3.854  0.0248  0.0472 -0.4145
45523SOL    HW145347   1.133   9.695   3.804 -0.3846 -0.3448 -1.0001
45523SOL    HW245348   1.073   9.673   3.942  0.1689 -1.1335 -0.8802
45524SOL     OW45349   9.114   2.671   2.029 -0.1215  0.7647  0.2971
45524SOL    HW145350   9.191   2.703   1.980  1.2636 -0.0789  1.8173
45524SOL    HW245351   9.097   2.740   2.094  0.1125  0.4164  0.7328
45525SOL     OW45352   3.607   3.711   3.140 -0.2686  0.4027 -0.3472
45525SOL    HW145353   3.641   3.786   3.189  1.3694  0.1623 -1.0188
45525SOL    HW245354   3.681   3.650   3.136 -0.7623 -0.1460 -1.9604
45526SOL     OW45355   2.363  10.920   4.445  0.5450  0.4066  0.4446
45526SOL    HW145356   2.368  10.943   4.352 -0.1073  1.0513  0.5586
45526SOL    HW245357   2.342  11.003   4.489 -0.6705 -0.1728  0.9947
45527SOL     OW45358   5.990   8.561  12.415 -0.5648  0.0463 -0.2753
45527SOL    HW145359   5.950   8.482  12.378  0.0305 -1.0095  1.2249
45527SOL    HW245360   6.084   8.542  12.413 -0.5015 -1.3830  4.2363
45528SOL     OW45361   9.532   2.069  10.808 -0.3048  0.0454 -0.5320
45528SOL    HW145362   9.462   2.134  10.810 -0.5627 -0.2313  0.8909
45528SOL    HW245363   9.612   2.120  10.820 -0.3505  0.2671 -1.1685
45529SOL     OW45364   6.380   6.057   5.447 -0.6710  0.2940  0.4676
45529SOL    HW145365   6.365   5.971   5.488  0.6040 -0.4354 -0.5190
45529SOL    HW245366   6.450   6.096   5.500 -1.9694  1.2036  1.5569
45530SOL     OW45367   1.412   0.966   9.446  0.5512  0.3547 -0.0893
45530SOL    HW145368   1.347   0.956   9.376  0.9453  2.2831 -0.7808
45530SOL    HW245369   1.420   0.878   9.484 -1.4123 -0.2282 -0.8997
45531SOL     OW45370   4.782   8.099  11.891 -0.7144  0.2043  0.4060
45531SOL    HW145371   4.855   8.039  11.904 -0.0109  1.1935  1.1556
45531SOL    HW245372   4.776   8.109  11.796  2.2779  2.5858  0.3035
45532SOL     OW45373   9.641  11.278   1.473 -0.5863 -0.0607  0.1114
45532SOL    HW145374   9.576  11.344   1.448 -0.5077  0.2186  0.6307
45532SOL    HW245375   9.605  11.238   1.552 -0.0426  0.2204  0.5067
45533SOL     OW45376  11.145   4.841   8.130 -0.1757 -0.7533 -0.0898
45533SOL    HW145377  11.204   4.842   8.055  0.0607 -1.2210  0.0882
45533SOL    HW245378  11.166   4.760   8.177  0.7414  0.2515  1.3238
45534SOL     OW45379   1.698   0.184   8.192  0.3301  0.3494 -0.2614
45534SOL    HW145380   1.656   0.118   8.247  0.4998 -0.5186 -1.1624
45534SOL    HW245381   1.627   0.241   8.163  0.3432  1.3631  1.5422
45535SOL     OW45382   0.224   4.681   0.413 -0.0437  0.4694 -0.5010
45535SOL    HW145383   0.143   4.727   0.435 -0.3127  0.4869 -1.4764
45535SOL    HW245384   0.231   4.612   0.479 -0.7847  0.5509 -0.3243
45536SOL     OW45385   3.822   3.426   0.735  0.1693 -0.4993 -0.3553
45536SOL    HW145386   3.884   3.499   0.729  3.0619 -2.6666  0.9967
45536SOL    HW245387   3.838   3.375   0.655 -0.3552 -0.7576 -0.2979
45537SOL     OW45388   3.951   8.998  10.057  0.3465  0.1313 -0.4351
45537SOL    HW145389   3.882   8.938  10.031  1.2775 -0.4530 -1.6243
45537SOL    HW245390   4.029   8.944  10.063  0.7140  0.7670  0.9837
45538SOL     OW45391   2.535  10.393   8.941 -0.0521  0.0356 -0.0193
45538SOL    HW145392   2.606  10.330   8.946 -1.5104 -1.6759  0.0168
45538SOL    HW245393   2.502  10.386   8.851 -1.3163 -0.5405  0.4630
45539SOL     OW45394   7.267   6.474   6.091  0.1404 -0.3973  0.3294
45539SOL    HW145395   7.188   6.528   6.098  0.1031 -0.4285  0.1388
45539SOL    HW245396   7.239   6.397   6.041 -0.1040 -1.1562  1.5792
45540SOL     OW45397   4.718   5.561   0.379 -1.2693 -0.2622  0.3577
45540SOL    HW145398   4.774   5.638   0.377 -1.4246 -0.0900  1.6148
45540SOL    HW245399   4.655   5.575   0.308 -0.7292  0.3247 -0.0137
45541SOL     OW45400   4.250   7.730   1.472 -0.0269  0.2651  0.4235
45541SOL    HW145401   4.243   7.825   1.459  1.3146  0.4626  1.0038
45541SOL    HW245402   4.161   7.703   1.497 -0.9091  1.0279 -1.6835
45542SOL     OW45403  11.856   0.318   8.757  0.1704 -0.5043 -0.4888
45542SOL    HW145404  11.787   0.340   8.695  2.1004  1.0265 -2.2491
45542SOL    HW245405  11.882   0.229   8.733 -0.8057 -0.8999 -0.1369
45543SOL     OW45406   8.707   8.178   1.969 -0.2933  0.0897 -0.3722
45543SOL    HW145407   8.723   8.224   1.886 -0.1634  0.0206 -0.3850
45543SOL    HW245408   8.758   8.227   2.033 -0.1700 -0.0263 -0.3824
45544SOL     OW45409   7.419   0.931   8.217 -0.0854  0.4628  0.5368
45544SOL    HW145410   7.441   0.969   8.303  1.5706 -2.0505  1.3423
45544SOL    HW245411   7.379   0.847   8.238  3.3010 -1.7529 -1.0143
45545SOL     OW45412  12.331   5.722   5.408  0.2172  0.3887 -0.3217
45545SOL    HW145413  12.406   5.772   5.440 -0.4735 -0.2976  2.5932
45545SOL    HW245414  12.339   5.727   5.312  2.7257  2.1445 -0.1260
45546SOL     OW45415   4.908   1.840  10.497  0.4963  0.1121  0.1840
45546SOL    HW145416   4.861   1.921  10.474  1.3922  0.6527  0.2190
45546SOL    HW245417   4.964   1.865  10.570  1.4873 -0.2899 -0.4186
45547SOL     OW45418   1.857   3.271  10.828  0.1886 -0.7160  0.3707
45547SOL    HW145419   1.932   3.217  10.854  0.6442 -0.8445 -1.0978
45547SOL    HW245420   1.897   3.349  10.789 -0.4634 -0.1539  0.8086
45548SOL     OW45421   1.425   2.909  11.098 -0.5175 -0.8617 -1.2724
45548SOL    HW145422   1.449   2.942  11.184 -1.5273 -0.4082 -1.1555
45548SOL    HW245423   1.481   2.957  11.037  1.5261 -2.4897 -0.7880
45549SOL     OW45424   4.591   5.611   6.310  0.2096  0.1068 -0.2853
45549SOL    HW145425   4.664   5.671   6.301  0.1021  0.1320 -0.9989
45549SOL    HW245426   4.593   5.584   6.402  0.6502  0.6927 -0.1230
45550SOL     OW45427  10.584   1.606   9.009  0.7019  0.1657  0.2727
45550SOL    HW145428  10.678   1.604   9.024  0.8910  0.9400 -0.6935
45550SOL    HW245429  10.554   1.685   9.054  0.4636 -0.2407  0.8316
45551SOL     OW45430   1.866   0.656   9.724 -0.0590  0.3434 -0.4985
45551SOL    HW145431   1.834   0.630   9.811 -0.6588 -1.1336 -1.1150
45551SOL    HW245432   1.945   0.603   9.711  0.9190  1.6903 -0.2560
45552SOL     OW45433   3.033   5.712   6.775 -0.4579 -0.3215  0.0701
45552SOL    HW145434   3.034   5.794   6.825  0.6409  0.4145 -1.1194
45552SOL    HW245435   3.003   5.646   6.838 -2.2598  1.1174  0.8251
45553SOL     OW45436  11.043   6.229   5.019 -0.4461  0.2912 -0.4850
45553SOL    HW145437  11.020   6.287   5.092 -0.1351  0.2675 -0.3675
45553SOL    HW245438  11.037   6.285   4.941 -0.7263  0.3295 -0.4358
45554SOL     OW45439   2.675   2.093   0.623 -0.1798  0.0174 -0.3390
45554SOL    HW145440   2.610   2.076   0.691 -0.7531 -0.4262 -0.9754
45554SOL    HW245441   2.630   2.151   0.561  0.3207  0.3908 -0.3526
45555SOL     OW45442   8.882   2.231   1.157  0.2439 -0.1929  0.0280
45555SOL    HW145443   8.847   2.314   1.188  1.7872  0.1298  0.9848
45555SOL    HW245444   8.906   2.247   1.066 -0.9341 -0.0935 -0.2912
45556SOL     OW45445  11.386   0.771   1.219 -0.1074 -0.5284  0.0260
45556SOL    HW145446  11.325   0.702   1.193 -0.6848 -0.1475  0.3678
45556SOL    HW245447  11.463   0.723   1.250  0.4011 -0.9959 -1.8640
45557SOL     OW45448  10.686  11.441   8.532 -0.3957 -0.4349 -0.7037
45557SOL    HW145449  10.705  11.350   8.556  0.3979  0.4653  2.4848
45557SOL    HW245450  10.751  11.461   8.464 -1.7629 -2.7065 -2.8623
45558SOL     OW45451   6.711   7.274   5.065 -0.5222 -0.0670  0.2480
45558SOL    HW145452   6.630   7.223   5.069 -0.0604 -0.7501  1.2284
45558SOL    HW245453   6.734   7.289   5.156 -0.2886  1.3531 -0.0167
45559SOL     OW45454   4.404  11.827   7.718 -0.2027 -0.8607 -0.3911
45559SOL    HW145455   4.337  11.779   7.767  0.1730 -2.0281 -0.9858
45559SOL    HW245456   4.357  11.864   7.643 -0.5998  0.1811  0.3517
45560SOL     OW45457   1.965   9.652   8.368 -0.3270 -0.0360  0.2437
45560SOL    HW145458   1.970   9.662   8.273  2.9617  1.9080  0.4585
45560SOL    HW245459   2.016   9.573   8.387  0.4155  0.4763  0.4390
45561SOL     OW45460   7.494   7.893   8.073  0.0734  0.0830 -0.1899
45561SOL    HW145461   7.575   7.920   8.115  0.1742 -0.2970 -0.1374
45561SOL    HW245462   7.487   7.799   8.092 -0.5240  0.1730  0.0532
45562SOL     OW45463   4.773   8.292   2.134 -0.0674 -0.0659  0.2960
45562SOL    HW145464   4.836   8.281   2.205  0.6539 -0.1313 -0.3395
45562SOL    HW245465   4.775   8.208   2.087  1.6408  0.9085 -1.5198
45563SOL     OW45466   6.776  11.587   6.943 -0.0961 -0.1238 -0.0490
45563SOL    HW145467   6.681  11.596   6.950 -0.2120 -1.5066  0.5040
45563SOL    HW245468   6.790  11.544   6.859  0.0745  0.3046 -0.2463
45564SOL     OW45469  12.589   2.956   8.061  0.2265 -0.1281 -0.2834
45564SOL    HW145470  12.612   3.042   8.024 -1.0756  0.9845  1.3573
45564SOL    HW245471  12.666   2.931   8.113 -0.0104  0.8785  0.5905
45565SOL     OW45472   0.722  12.527   3.743 -0.0329 -0.0329 -0.2431
45565SOL    HW145473   0.771  12.609   3.736 -0.2328  0.0736 -0.4379
45565SOL    HW245474   0.787  12.458   3.727  0.1036  0.0972 -0.2437
45566SOL     OW45475   9.713  12.013   6.062  0.1383 -0.3757  0.5465
45566SOL    HW145476   9.630  12.054   6.036 -0.2825 -1.3737  0.2689
45566SOL    HW245477   9.779  12.080   6.048 -0.5581  0.2556  0.2595
45567SOL     OW45478   4.125  11.343  12.483  0.1415 -0.8353 -0.0562
45567SOL    HW145479   4.070  11.399  12.428  0.5265 -0.6571 -0.2676
45567SOL    HW245480   4.064  11.301  12.543 -0.2373 -0.7204 -0.3543
45568SOL     OW45481   3.433   9.734   7.779 -0.3272 -1.0212  0.2744
45568SOL    HW145482   3.526   9.759   7.775 -0.6570  0.5686  1.5225
45568SOL    HW245483   3.422   9.697   7.866 -0.8334 -1.4140  0.0466
45569SOL     OW45484   2.136   1.932   2.176 -0.1083 -0.0446 -0.2553
45569SOL    HW145485   2.093   1.895   2.253  1.3878 -0.7049  0.3031
45569SOL    HW245486   2.193   2.001   2.211 -0.4708  0.6095 -0.9373
45570SOL     OW45487   3.278  11.040  10.696  0.0898  0.2683 -0.6487
45570SOL    HW145488   3.230  11.017  10.616 -0.0435  1.0945 -0.8129
45570SOL    HW245489   3.307  10.956  10.732  1.3120 -0.0655 -2.2768
45571SOL     OW45490   2.855   6.036   2.485  0.2973 -0.0512 -0.2737
45571SOL    HW145491   2.892   6.013   2.570  1.4256  0.6704 -0.5395
45571SOL    HW245492   2.761   6.025   2.495  0.2860  1.2932  1.4670
45572SOL     OW45493  10.465   4.299   9.813 -0.4305  0.4322  0.3494
45572SOL    HW145494  10.461   4.347   9.731 -1.0876 -1.3279 -0.7094
45572SOL    HW245495  10.376   4.304   9.848 -0.0194  1.6706  1.2926
45573SOL     OW45496   1.732   9.048   7.569  0.2656 -0.6275 -0.3729
45573SOL    HW145497   1.688   9.133   7.573  1.1619 -0.1758  2.1343
45573SOL    HW245498   1.786   9.052   7.490  1.6113  1.8811  0.5702
45574SOL     OW45499  10.599  11.650   7.863 -0.4171  0.5973  0.1644
45574SOL    HW145500  10.642  11.713   7.921  1.1199 -0.0685 -0.2043
45574SOL    HW245501  10.650  11.569   7.872 -0.9420  0.0856 -1.1238
45575SOL     OW45502   9.107   1.256   4.669 -0.0105 -0.2905 -0.3743
45575SOL    HW145503   9.048   1.186   4.695  0.4924 -0.6175 -0.1052
45575SOL    HW245504   9.088   1.271   4.576  1.2976 -2.1897 -0.9892
45576SOL     OW45505  11.236  10.776   0.242  0.6938 -0.2861  0.1932
45576SOL    HW145506  11.325  10.810   0.250  0.3145  1.1074 -1.0143
45576SOL    HW245507  11.247  10.690   0.201  1.4764 -0.0186 -0.1877
45577SOL     OW45508   0.865   5.310  11.570  0.5403 -0.6780 -1.0647
45577SOL    HW145509   0.795   5.248  11.593 -0.7043  1.2110  0.5942
45577SOL    HW245510   0.946   5.260  11.579 -0.2857 -1.6804  1.9539
45578SOL     OW45511   0.984   8.413   7.881  0.5138 -0.4437  0.3390
45578SOL    HW145512   0.906   8.404   7.826  0.7316 -0.4895  0.0361
45578SOL    HW245513   1.022   8.325   7.883  1.5841 -0.0502 -1.0478
45579SOL     OW45514   0.255   7.766   8.470  0.4032 -0.1521 -0.3427
45579SOL    HW145515   0.210   7.773   8.386 -0.9061  0.6183  0.3812
45579SOL    HW245516   0.229   7.845   8.517  0.4265 -0.9805  1.1043
45580SOL     OW45517   6.794  11.138   7.208  0.3993  0.2381  0.9875
45580SOL    HW145518   6.841  11.141   7.291  1.3814  0.0883  0.4656
45580SOL    HW245519   6.861  11.161   7.143  0.1768 -1.5397  0.0553
45581SOL     OW45520  12.550   1.389   1.848 -0.0023  0.0348  0.3417
45581SOL    HW145521  12.560   1.408   1.941  1.4763 -1.2046  0.4707
45581SOL    HW245522  12.484   1.452   1.818 -1.1602 -0.1209  2.3839
45582SOL     OW45523   6.189  10.689   6.603  0.0226  0.3025  0.1038
45582SOL    HW145524   6.134  10.766   6.616  0.1077  0.5297 -0.7939
45582SOL    HW245525   6.279  10.721   6.607  0.0778  0.0979  0.5903
45583SOL     OW45526   0.162   9.966   3.952 -0.3271  0.1516  0.0563
45583SOL    HW145527   0.258   9.969   3.954 -0.1846 -2.4928  0.1583
45583SOL    HW245528   0.136   9.968   4.044 -0.4179  1.0925  0.0236
45584SOL     OW45529   1.817  10.144   5.612  0.3241 -0.0669 -0.0337
45584SOL    HW145530   1.811  10.210   5.681 -0.4639  0.2666 -0.4067
45584SOL    HW245531   1.731  10.102   5.611  0.6802 -0.8206 -0.0805
45585SOL     OW45532   6.623   4.031   2.080 -0.7193 -0.3692 -0.2937
45585SOL    HW145533   6.603   4.124   2.090 -0.5162 -0.1762 -1.6007
45585SOL    HW245534   6.586   3.990   2.159  1.5664  1.1475  1.7303
45586SOL     OW45535   4.345  11.171  11.027 -0.6218 -0.4008  0.1002
45586SOL    HW145536   4.254  11.144  11.036  0.1699 -2.9171  1.8787
45586SOL    HW245537   4.379  11.120  10.953 -0.8179  1.1585 -1.1039
45587SOL     OW45538   4.246   1.433   7.302 -0.5135 -0.2874 -0.2893
45587SOL    HW145539   4.151   1.440   7.298 -0.4405  0.3725 -1.1602
45587SOL    HW245540   4.270   1.377   7.228 -0.1700  0.2630 -0.6044
45588SOL     OW45541  10.099   2.867   4.901  0.1522  0.1148  0.7573
45588SOL    HW145542  10.100   2.807   4.827  0.5310  1.1840 -0.1256
45588SOL    HW245543  10.032   2.832   4.960  0.6618 -1.3933  0.4679
45589SOL     OW45544  11.323   0.310   2.971  0.3529  0.6158  0.5169
45589SOL    HW145545  11.382   0.281   3.040 -0.2393 -0.2492  0.6928
45589SOL    HW245546  11.236   0.285   3.003 -0.1262  2.0142  0.3471
45590SOL     OW45547   8.632   2.408   7.887  0.0726 -0.4630  0.0081
45590SOL    HW145548   8.585   2.332   7.922  0.6606 -1.4732 -1.3149
45590SOL    HW245549   8.570   2.449   7.827  0.4681 -1.1456 -0.8850
45591SOL     OW45550   5.549  11.126   7.293  0.3927 -0.0332 -0.8683
45591SOL    HW145551   5.558  11.208   7.341 -1.4514 -1.0202  1.3774
45591SOL    HW245552   5.587  11.060   7.352 -1.9200 -1.2872 -0.6400
45592SOL     OW45553   1.720   1.271   3.104 -0.0231  0.2079 -0.2631
45592SOL    HW145554   1.807   1.248   3.071 -0.1558 -1.3453  0.3816
45592SOL    HW245555   1.669   1.190   3.097 -0.9083  0.6187  0.9768
45593SOL     OW45556   4.929   4.792   3.177 -0.2814  0.2598  0.2795
45593SOL    HW145557   5.021   4.810   3.198  0.0449 -0.9778  0.0423
45593SOL    HW245558   4.931   4.757   3.088 -1.0753  0.8883  0.0071
45594SOL     OW45559   0.511   3.354   8.815  0.2182  0.8128  0.8591
45594SOL    HW145560   0.460   3.407   8.754 -0.6120  0.8019  1.5251
45594SOL    HW245561   0.598   3.394   8.814 -0.0051  1.2980  0.2643
45595SOL     OW45562   2.311  12.197  10.994  1.0027 -0.1133  0.2882
45595SOL    HW145563   2.358  12.275  10.965  2.2999 -0.9773 -0.0096
45595SOL    HW245564   2.238  12.189  10.933  2.3141 -0.5509 -1.3057
45596SOL     OW45565   3.265   2.845   1.648  0.1691  0.0919 -0.5601
45596SOL    HW145566   3.174   2.844   1.618  0.3031  1.7412 -1.1061
45596SOL    HW245567   3.275   2.928   1.694  1.3892 -0.0791 -0.4729
45597SOL     OW45568   5.504   9.456   4.785 -0.3024  0.2754 -0.2693
45597SOL    HW145569   5.430   9.397   4.772  0.0856 -0.2549 -0.0922
45597SOL    HW245570   5.464   9.542   4.800 -0.8496  0.2131 -1.2927
45598SOL     OW45571   2.836   5.830   8.796 -0.2361  0.0760 -0.1973
45598SOL    HW145572   2.890   5.905   8.823 -0.9213  0.5544 -0.1160
45598SOL    HW245573   2.746   5.863   8.800 -0.6118 -0.9734  0.5577
45599SOL     OW45574   4.811   5.804   5.298  0.2270 -0.7919 -0.0253
45599SOL    HW145575   4.785   5.895   5.286  1.5072 -0.4697 -0.5255
45599SOL    HW245576   4.810   5.767   5.210  0.2593 -1.1192  0.1087
45600SOL     OW45577   9.272   4.282   6.510  0.4699 -0.1122  0.3190
45600SOL    HW145578   9.269   4.189   6.486 -2.6411 -0.2108  0.6147
45600SOL    HW245579   9.285   4.282   6.605 -0.6708 -0.3335  0.4882
45601SOL     OW45580   6.479   1.046   2.312 -0.4973  0.2867  0.0796
45601SOL    HW145581   6.483   1.140   2.327  0.2212 -0.0801  2.5230
45601SOL    HW245582   6.561   1.012   2.347 -1.7785 -1.4969  1.5129
45602SOL     OW45583   8.319  10.074  12.397  0.2199 -0.1318  0.0354
45602SOL    HW145584   8.302  10.167  12.410  0.6153 -0.2106  1.1309
45602SOL    HW245585   8.239  10.042  12.354  0.5451  0.9211 -1.4360
45603SOL     OW45586   0.868   8.778   5.161 -0.1575  0.7311  0.0158
45603SOL    HW145587   0.882   8.700   5.215 -0.2233 -0.8608 -2.1293
45603SOL    HW245588   0.778   8.770   5.130  0.1340  1.1487 -0.9796
45604SOL     OW45589  10.470  10.180  12.343  0.0246 -0.5122  0.5590
45604SOL    HW145590  10.512  10.207  12.262  0.7304 -1.1001  0.7132
45604SOL    HW245591  10.440  10.091  12.326 -0.0288 -0.5564  0.8665
45605SOL     OW45592   0.225   8.686  11.236 -0.1488  0.5332 -0.2161
45605SOL    HW145593   0.257   8.634  11.309 -1.2401  1.6295  1.1138
45605SOL    HW245594   0.130   8.682  11.244 -0.2850  2.9533  0.1752
45606SOL     OW45595   0.281   3.919   7.105  0.0629 -0.2993  0.0713
45606SOL    HW145596   0.299   3.838   7.057  1.6305  0.9744 -1.7094
45606SOL    HW245597   0.211   3.961   7.056  0.5488  0.2591 -0.1664
45607SOL     OW45598   7.760  11.016   1.444 -0.5211  0.2152  0.7850
45607SOL    HW145599   7.682  11.030   1.391 -0.4304 -0.9378  0.3027
45607SOL    HW245600   7.733  11.040   1.533 -1.3634  0.0313  0.5900
45608SOL     OW45601   8.772   3.674  10.936  0.5062  0.5368  0.0530
45608SOL    HW145602   8.699   3.697  10.993  0.1160 -0.1529 -0.1577
45608SOL    HW245603   8.825   3.613  10.989 -0.5553 -1.1615 -0.7365
45609SOL     OW45604   8.142   5.225   1.259 -0.0451 -0.2962  0.2282
45609SOL    HW145605   8.228   5.259   1.234  0.0747 -0.0908  0.9056
45609SOL    HW245606   8.129   5.149   1.202 -0.0930  0.5654 -0.9445
45610SOL     OW45607   0.779   3.991   2.798  0.5000 -0.2274 -0.8578
45610SOL    HW145608   0.827   3.941   2.864 -0.3584 -2.5763 -1.8843
45610SOL    HW245609   0.847   4.027   2.741  1.3121  2.5477  1.6159
45611SOL     OW45610   8.602   5.113  11.938 -0.3406 -0.0641 -0.1912
45611SOL    HW145611   8.619   5.205  11.914 -0.6353 -0.0962 -0.5287
45611SOL    HW245612   8.512   5.114  11.972 -0.8133 -0.4450 -1.3903
45612SOL     OW45613   3.741   5.666   8.649 -0.4669  0.6334 -0.3139
45612SOL    HW145614   3.733   5.579   8.612  2.4968  0.0099  0.2769
45612SOL    HW245615   3.652   5.689   8.676 -1.2523 -2.4905  0.1315
45613SOL     OW45616  10.480   8.684   0.807 -0.2814 -0.0870 -0.4925
45613SOL    HW145617  10.396   8.729   0.813  0.0147  0.2789  1.8071
45613SOL    HW245618  10.540   8.749   0.772 -0.3334  0.6387  0.7198
45614SOL     OW45619   9.745   1.852  10.978 -0.2315 -0.0184 -0.2468
45614SOL    HW145620   9.770   1.760  10.986 -0.1931 -0.0730 -0.9553
45614SOL    HW245621   9.651   1.851  10.963 -0.5707  0.1535  1.5970
45615SOL     OW45622   1.306   7.814   9.538  0.2950 -0.2613 -0.0990
45615SOL    HW145623   1.221   7.821   9.582  0.6817 -1.3894  0.9040
45615SOL    HW245624   1.353   7.748   9.589  2.2529  1.2472  0.1514
45616SOL     OW45625   8.324  10.949   5.074  0.2669 -0.8180 -0.0821
45616SOL    HW145626   8.350  10.996   5.154  1.4297 -2.1229  0.3523
45616SOL    HW245627   8.303  11.019   5.012  0.6440  0.2561  0.9372
45617SOL     OW45628  12.097   4.682   6.277 -0.0620 -0.4951  0.4136
45617SOL    HW145629  12.152   4.660   6.353 -1.2095 -1.3715  1.0174
45617SOL    HW245630  12.073   4.597   6.240 -1.7341 -0.1787  0.7076
45618SOL     OW45631  10.678   0.225   8.976 -0.2589 -0.1723 -0.3111
45618SOL    HW145632  10.626   0.235   8.897  1.2809 -1.1695 -1.5016
45618SOL    HW245633  10.638   0.151   9.022 -0.4390 -0.3740 -0.7857
45619SOL     OW45634   6.505  12.047  12.430 -0.3132  0.1848 -0.3721
45619SOL    HW145635   6.548  11.990  12.494  0.6649  0.3555 -0.8505
45619SOL    HW245636   6.414  12.018  12.429 -0.4418  0.4441  1.3776
45620SOL     OW45637   6.206   7.868   9.790  0.3070  0.9480 -0.3696
45620SOL    HW145638   6.191   7.952   9.747 -1.4011  0.7856 -0.1637
45620SOL    HW245639   6.118   7.835   9.810  0.8535 -1.4396 -1.5189
45621SOL     OW45640   6.648   6.551   3.383  0.0365  0.4869  0.0865
45621SOL    HW145641   6.700   6.531   3.460  0.1629 -0.9198 -0.3206
45621SOL    HW245642   6.712   6.569   3.314 -0.0328  0.1031 -0.0819
45622SOL     OW45643   4.044   2.383   7.851 -0.5348  0.6415  0.5933
45622SOL    HW145644   3.948   2.378   7.861 -0.6425 -2.4228 -0.8262
45622SOL    HW245645   4.059   2.368   7.758  1.3721 -0.8147  1.0791
45623SOL     OW45646   1.462   6.329   2.214  0.2718 -0.3123 -0.5237
45623SOL    HW145647   1.537   6.312   2.157  0.9153 -0.6118  0.3741
45623SOL    HW245648   1.392   6.273   2.181  0.6345 -0.4777 -1.0166
45624SOL     OW45649   7.634   2.193  10.524 -0.1282 -0.3493  0.1212
45624SOL    HW145650   7.563   2.151  10.476 -0.3152  1.7519 -1.6056
45624SOL    HW245651   7.599   2.279  10.548  0.6730 -0.5783  2.3552
45625SOL     OW45652   0.948   9.925   3.703  0.1257 -0.0588 -0.1869
45625SOL    HW145653   0.953   9.873   3.783  0.1325 -2.5926 -1.6973
45625SOL    HW245654   0.862   9.904   3.666  0.6059  0.0611 -1.4270
45626SOL     OW45655   6.730   6.171   4.893 -0.3394 -0.4776  0.2736
45626SOL    HW145656   6.634   6.164   4.890 -0.3570 -0.2139  0.2110
45626SOL    HW245657   6.759   6.136   4.809 -0.2891 -2.0100  0.8997
45627SOL     OW45658   3.147   1.558   1.942 -0.4672  0.3685 -0.1666
45627SOL    HW145659   3.194   1.620   1.887  2.2190 -1.5899 -0.2571
45627SOL    HW245660   3.085   1.515   1.883  0.8452 -0.1859 -1.1608
45628SOL     OW45661   0.923  11.502   0.773 -0.0084 -0.5369  0.3227
45628SOL    HW145662   0.978  11.488   0.850  0.6906 -1.4385 -0.3175
45628SOL    HW245663   0.930  11.421   0.723 -3.4875 -1.4830  1.1299
45629SOL     OW45664   7.667   0.750   6.246 -0.1618 -0.2979 -0.2454
45629SOL    HW145665   7.691   0.820   6.306 -1.1429  0.0997 -0.3033
45629SOL    HW245666   7.674   0.789   6.159  1.0160 -0.8005 -0.3953
45630SOL     OW45667   5.242  10.533  10.901  0.0391 -0.0452 -0.0142
45630SOL    HW145668   5.282  10.614  10.870  3.3330 -1.5001  0.0220
45630SOL    HW245669   5.233  10.546  10.996  2.6513 -0.3931  0.3691
45631SOL     OW45670   9.565   2.518   1.548  0.2839 -0.1099 -0.3522
45631SOL    HW145671   9.570   2.509   1.643 -1.3315 -1.6438 -0.3499
45631SOL    HW245672   9.645   2.476   1.516  0.4161 -0.3685  0.2977
45632SOL     OW45673  11.119   9.427   0.788  0.3732  0.4572 -0.0447
45632SOL    HW145674  11.123   9.446   0.882 -0.3524  0.9578 -0.1042
45632SOL    HW245675  11.200   9.464   0.752  0.1877  1.1523  0.2381
45633SOL     OW45676   9.092   7.517  11.540  0.7223  0.3124 -0.0160
45633SOL    HW145677   9.110   7.526  11.633 -0.7743 -3.2710  0.7887
45633SOL    HW245678   9.169   7.473  11.504  0.5106 -0.0138 -0.0720
45634SOL     OW45679   2.704   5.316   5.890 -0.1247 -0.6348  0.5781
45634SOL    HW145680   2.796   5.322   5.867 -0.1474  3.0447  0.9084
45634SOL    HW245681   2.666   5.260   5.822  2.2833 -2.3064  0.4972
45635SOL     OW45682   3.021   6.719   6.324  0.4498 -0.6460 -0.0931
45635SOL    HW145683   2.963   6.736   6.250  0.9326  0.9386 -0.1455
45635SOL    HW245684   3.109   6.730   6.289  0.7219 -1.2241  0.3999
45636SOL     OW45685   1.774  10.620   4.369  0.7130  0.0802  0.0027
45636SOL    HW145686   1.780  10.708   4.330 -1.3001  0.0952 -0.3988
45636SOL    HW245687   1.742  10.565   4.298  1.9740 -1.0207  0.2510
45637SOL     OW45688  10.492   1.618   7.826  0.4062  0.5041  0.3165
45637SOL    HW145689  10.504   1.670   7.905  0.2865  0.0102  0.6621
45637SOL    HW245690  10.409   1.573   7.839  0.4618  0.3031 -0.0264
45638SOL     OW45691   3.749   5.272   0.082  0.7477 -0.8886  0.0304
45638SOL    HW145692   3.657   5.255   0.100  0.7455 -0.0102  0.9056
45638SOL    HW245693   3.794   5.256   0.165  1.3153 -0.8361 -0.2593
45639SOL     OW45694  11.869   1.012   2.683  0.6322 -0.2908  0.1356
45639SOL    HW145695  11.788   1.028   2.634  1.8602 -0.9508 -2.2535
45639SOL    HW245696  11.841   1.005   2.774 -1.5137  3.1644 -0.0812
45640SOL     OW45697   2.986   0.387   4.665 -0.1028 -0.2918  0.3660
45640SOL    HW145698   3.057   0.438   4.704 -1.7645  2.8076 -0.3116
45640SOL    HW245699   3.013   0.374   4.574 -0.0636  0.1866  0.3088
45641SOL     OW45700   0.179  12.273   2.720  0.0229  0.0119  0.1866
45641SOL    HW145701   0.254  12.333   2.713 -0.7000  1.0069  0.6915
45641SOL    HW245702   0.107  12.320   2.677 -0.9543  0.1915  1.9313
45642SOL     OW45703  11.730  10.373  11.070  0.2083 -0.0457 -0.1089
45642SOL    HW145704  11.642  10.382  11.033  0.2592  0.3880 -0.1233
45642SOL    HW245705  11.787  10.416  11.006  0.4024 -0.1093  0.0228
45643SOL     OW45706   2.380   5.335   3.606  0.2902 -0.3765 -0.6227
45643SOL    HW145707   2.354   5.258   3.656  0.0212 -0.5994 -1.0936
45643SOL    HW245708   2.298   5.383   3.591  0.6222  0.7154  0.8133
45644SOL     OW45709   0.716   5.864  12.518  0.4223 -0.7272  0.7139
45644SOL    HW145710   0.733   5.950  12.479  2.4898 -0.7987  1.3060
45644SOL    HW245711   0.668   5.884  12.599 -0.0546 -0.2366  0.3187
45645SOL     OW45712   9.967   3.258   7.587  0.1574 -0.2344  0.0684
45645SOL    HW145713   9.896   3.309   7.625  0.2731 -0.4642  0.6024
45645SOL    HW245714   9.955   3.170   7.623 -0.5962 -0.8323 -1.5613
45646SOL     OW45715   2.403  12.326   2.645  0.2302 -0.1042  0.1742
45646SOL    HW145716   2.410  12.351   2.553  1.2807 -0.4639  0.1431
45646SOL    HW245717   2.398  12.230   2.643  1.3982 -0.1884  0.5292
45647SOL     OW45718  11.093   9.005   9.425  0.5701 -0.2205 -0.2047
45647SOL    HW145719  11.023   9.046   9.375 -0.6164 -0.3788  1.2557
45647SOL    HW245720  11.078   8.911   9.415  0.0977 -0.2548  0.7067
45648SOL     OW45721   5.611  10.017   2.822  0.1068  0.4491 -0.2802
45648SOL    HW145722   5.679  10.084   2.827 -0.9063  1.4920 -0.0034
45648SOL    HW245723   5.531  10.066   2.799 -0.4564 -0.8033 -1.0867
45649SOL     OW45724  12.125   3.305   3.219  0.0594  0.2083  0.2017
45649SOL    HW145725  12.110   3.288   3.126 -0.5034  1.9672 -0.0768
45649SOL    HW245726  12.207   3.354   3.221  0.6263 -0.7444  0.7513
45650SOL     OW45727   8.287   7.309   1.734  0.2023  0.0705 -0.3703
45650SOL    HW145728   8.312   7.350   1.816 -0.9368 -0.6501  0.3787
45650SOL    HW245729   8.302   7.215   1.748 -1.5431 -0.2410 -0.3560
45651SOL     OW45730   2.278  12.027   5.283  0.2267  0.0704 -0.1487
45651SOL    HW145731   2.350  12.044   5.224  1.3336  0.2785  1.2081
45651SOL    HW245732   2.256  11.935   5.269 -0.5880  0.4958 -1.9598
45652SOL     OW45733   6.414  10.455   5.915  0.7261 -0.5939 -0.2962
45652SOL    HW145734   6.338  10.403   5.940 -1.5694  1.9940 -1.3968
45652SOL    HW245735   6.434  10.428   5.826  0.4997 -0.6640 -0.3261
45653SOL     OW45736   9.728   8.779   0.541 -0.0684  0.2981  0.1432
45653SOL    HW145737   9.648   8.813   0.581 -0.6876  0.3699 -1.1011
45653SOL    HW245738   9.758   8.849   0.482  1.2752  0.5263  1.0449
45654SOL     OW45739   1.608   1.201   6.444  0.4281 -0.2916 -0.3508
45654SOL    HW145740   1.622   1.273   6.383  1.2452 -2.1690 -2.5492
45654SOL    HW245741   1.513   1.190   6.447  0.2335  1.3627  0.6952
45655SOL     OW45742   7.722   2.141   1.210 -0.1866  0.5071  0.3120
45655SOL    HW145743   7.730   2.229   1.247  1.0501  0.8555 -0.6902
45655SOL    HW245744   7.771   2.085   1.270 -2.6104  0.1001  2.0376
45656SOL     OW45745   6.982   2.105   2.501 -0.2429  0.4064  0.4788
45656SOL    HW145746   7.012   2.172   2.562 -0.6091  0.8293  0.1999
45656SOL    HW245747   7.008   2.138   2.415  0.2764 -0.1866  0.3964
45657SOL     OW45748   8.206   1.464  11.476 -0.1373 -0.5258  0.2188
45657SOL    HW145749   8.257   1.391  11.441 -1.9149 -2.2642  1.0410
45657SOL    HW245750   8.127   1.467  11.422  0.0173  1.0053  0.0288
45658SOL     OW45751   8.050   1.499   9.687 -0.2364  0.6175  0.3024
45658SOL    HW145752   8.051   1.415   9.733 -0.2248  0.7126  0.4751
45658SOL    HW245753   8.110   1.486   9.613 -1.9705 -0.2730 -1.0240
45659SOL     OW45754   4.219   6.186   9.906 -0.0562  0.3868 -0.5790
45659SOL    HW145755   4.145   6.214   9.960  0.7201  2.3895 -0.4555
45659SOL    HW245756   4.250   6.106   9.948 -0.2737  1.1903  1.2114
45660SOL     OW45757   3.033   4.436   9.364 -0.0206  0.1989 -0.0340
45660SOL    HW145758   3.105   4.376   9.383  1.3457  1.5152 -0.7848
45660SOL    HW245759   3.034   4.445   9.268 -1.4276 -0.0307 -0.0879
45661SOL     OW45760  10.454  11.374   6.179  0.4130  0.1230 -0.1838
45661SOL    HW145761  10.468  11.443   6.115 -0.9713 -0.1003 -0.7635
45661SOL    HW245762  10.533  11.375   6.234  0.1878  2.5002  0.1697
45662SOL     OW45763   3.134   8.770   1.810 -0.0268  0.3752 -0.3389
45662SOL    HW145764   3.156   8.723   1.890 -0.5608 -0.0088 -0.4152
45662SOL    HW245765   3.218   8.804   1.778  0.2287  0.2676  0.2135
45663SOL     OW45766  11.331   0.206   2.188 -0.3101 -0.6871  0.2904
45663SOL    HW145767  11.365   0.181   2.273  0.3014 -0.1314  0.2193
45663SOL    HW245768  11.335   0.302   2.187  1.8195 -0.7055 -1.1728
45664SOL     OW45769   4.432   1.860   9.889  0.0284 -0.6505  0.4520
45664SOL    HW145770   4.357   1.849   9.947 -0.5298  1.2514  0.1574
45664SOL    HW245771   4.408   1.812   9.810 -1.1355  0.3267  0.1800
45665SOL     OW45772   0.519  12.551   1.282  0.2351 -0.8180 -0.1967
45665SOL    HW145773   0.602  12.508   1.301  0.2468  0.2478  2.4847
45665SOL    HW245774   0.456  12.512   1.342 -0.5941  0.2860 -0.2980
45666SOL     OW45775  10.280   3.303  10.163  0.5332 -0.1270  0.3702
45666SOL    HW145776  10.255   3.327  10.074  2.6189 -1.5305 -0.6751
45666SOL    HW245777  10.376   3.305  10.162  0.6183  0.1781  2.7094
45667SOL     OW45778  10.041   3.666  11.687 -0.3095  0.5243 -1.0432
45667SOL    HW145779   9.992   3.608  11.746 -0.0094  0.4640 -0.8516
45667SOL    HW245780  10.120   3.616  11.665 -0.1653  0.7653 -1.0688
45668SOL     OW45781   1.124   6.151   8.387  0.2390 -0.4551  0.0439
45668SOL    HW145782   1.100   6.077   8.442 -0.0319 -0.8302 -0.5678
45668SOL    HW245783   1.202   6.122   8.339  0.1035 -0.3655 -0.2356
45669SOL     OW45784   6.404   4.315   6.284 -0.5424 -0.2836  0.4222
45669SOL    HW145785   6.331   4.376   6.297  0.3249  0.4602  2.0159
45669SOL    HW245786   6.463   4.362   6.224 -0.5020 -0.1162  0.5926
45670SOL     OW45787   5.394  10.901   9.953  0.3216 -0.1139 -0.1233
45670SOL    HW145788   5.375  10.811   9.928 -0.3916  0.1268 -0.4889
45670SOL    HW245789   5.316  10.930  10.000  0.8540  0.0748  0.6679
45671SOL     OW45790  10.157   5.774   7.821  0.0543 -0.2629  0.2534
45671SOL    HW145791  10.198   5.857   7.846 -1.0633 -0.1454  1.9133
45671SOL    HW245792  10.079   5.800   7.771 -0.2007 -0.2965  0.6256
45672SOL     OW45793   1.080   4.888   5.438 -0.4182  0.0408  0.4520
45672SOL    HW145794   1.040   4.967   5.474 -0.5111  0.0861  0.2506
45672SOL    HW245795   1.142   4.920   5.373 -1.8622 -0.1070 -1.0506
45673SOL     OW45796   3.361   4.197   7.338 -0.6565 -0.1889 -0.1092
45673SOL    HW145797   3.317   4.199   7.253 -0.3070 -0.7823 -0.3104
45673SOL    HW245798   3.290   4.203   7.402 -0.8593  1.2972 -0.4293
45674SOL     OW45799   6.952   6.884   7.639  0.0303  0.7064 -0.1756
45674SOL    HW145800   6.857   6.890   7.626 -0.2187 -0.0919  1.0410
45674SOL    HW245801   6.989   6.945   7.575 -1.3221  1.4153 -0.3328
45675SOL     OW45802   8.510   0.081   1.843  0.2846  0.1094  0.2080
45675SOL    HW145803   8.457   0.092   1.922  0.8432 -1.6606  0.8809
45675SOL    HW245804   8.447   0.082   1.771 -0.4528 -0.0957  0.8394
45676SOL     OW45805  12.454   1.266   5.644  0.0471 -0.0814 -0.0942
45676SOL    HW145806  12.414   1.218   5.717 -1.2179  0.8566 -0.1399
45676SOL    HW245807  12.387   1.328   5.617  0.3681 -0.6255 -2.2972
45677SOL     OW45808   0.866  10.653   5.477 -0.4621 -0.0908  0.5026
45677SOL    HW145809   0.926  10.578   5.475 -0.5144 -0.1240  0.1299
45677SOL    HW245810   0.913  10.722   5.432 -0.9851 -0.3303 -0.4373
45678SOL     OW45811   9.620   3.751  11.487 -0.2201 -0.4305  0.0178
45678SOL    HW145812   9.570   3.697  11.548 -1.4900  0.5200 -0.1563
45678SOL    HW245813   9.711   3.734  11.510 -0.6273 -1.6019  0.8566
45679SOL     OW45814   0.480   9.886   7.511 -0.3939  0.5253 -0.4132
45679SOL    HW145815   0.459   9.794   7.494  3.0258 -0.4233 -0.2436
45679SOL    HW245816   0.458   9.899   7.603  0.7424 -0.7386  0.0823
45680SOL     OW45817   1.134  11.574   7.795  0.0123  0.0131 -0.0788
45680SOL    HW145818   1.088  11.657   7.802 -1.6029 -0.8614  0.1783
45680SOL    HW245819   1.153  11.549   7.885 -0.6238 -0.4765 -0.0728
45681SOL     OW45820   4.954  11.789   8.109  0.3299  1.2114  0.0323
45681SOL    HW145821   4.977  11.882   8.117  2.3702  0.6651  1.3344
45681SOL    HW245822   4.998  11.760   8.030  2.2765  0.7288  1.2232
45682SOL     OW45823   0.682   9.834   3.201  0.2565  0.3522 -0.1488
45682SOL    HW145824   0.622   9.821   3.127 -1.0287 -0.2273  0.9395
45682SOL    HW245825   0.740   9.757   3.198  0.1964  0.3199 -0.5392
45683SOL     OW45826   3.361  12.503   4.822  0.6943  0.4458  0.1151
45683SOL    HW145827   3.392  12.442   4.755 -1.2807 -1.3209  0.6942
45683SOL    HW245828   3.282  12.541   4.784 -0.6935 -0.8957  1.5353
45684SOL     OW45829   2.337   7.942  11.734 -0.0575 -0.2776 -0.3376
45684SOL    HW145830   2.278   7.898  11.795 -0.7549  1.2265  0.1442
45684SOL    HW245831   2.424   7.914  11.760 -0.4800 -1.4530 -0.1528
45685SOL     OW45832   4.297   8.454   0.057 -0.0505 -0.0431  0.1711
45685SOL    HW145833   4.281   8.507  -0.022  0.3152  2.1858  1.4892
45685SOL    HW245834   4.388   8.471   0.078  0.1759 -1.5253  0.4908
45686SOL     OW45835   1.906   8.198  10.336 -0.3942  0.5701 -0.6320
45686SOL    HW145836   1.953   8.151  10.406 -0.4024 -0.0627 -1.0479
45686SOL    HW245837   1.975   8.223  10.274 -0.4693  0.6005 -0.7025
45687SOL     OW45838   4.560   3.498   5.238  0.3544  0.0323  0.4609
45687SOL    HW145839   4.585   3.584   5.272 -1.1763  0.3083  1.0043
45687SOL    HW245840   4.571   3.439   5.312 -1.1455  0.2839  0.9264
45688SOL     OW45841   1.124   3.361   8.065 -0.3392  0.1070  0.0051
45688SOL    HW145842   1.035   3.339   8.037  0.2695  1.5066 -3.7237
45688SOL    HW245843   1.126   3.456   8.063  1.3133  0.0850 -0.3977
45689SOL     OW45844   5.261   3.188   2.432 -0.6011 -0.4744  0.1418
45689SOL    HW145845   5.170   3.208   2.453 -0.8842 -1.3694 -0.1971
45689SOL    HW245846   5.273   3.219   2.342 -0.5936 -0.4370  0.1556
45690SOL     OW45847   4.359   6.151   6.358  1.0657  0.2393  0.2479
45690SOL    HW145848   4.327   6.069   6.320  0.5528 -0.9175  2.9514
45690SOL    HW245849   4.454   6.142   6.357  0.9914 -0.9635  1.5987
45691SOL     OW45850   5.830   9.091   3.717  0.2978  0.6980  0.5408
45691SOL    HW145851   5.886   9.015   3.703  2.0943  1.9134  0.7530
45691SOL    HW245852   5.794   9.080   3.805  0.4306  0.0483  0.5129
45692SOL     OW45853   2.065   9.850  10.787 -0.4766 -0.5826  0.3769
45692SOL    HW145854   2.140   9.907  10.769  0.1301 -1.1494  1.0264
45692SOL    HW245855   2.064   9.787  10.714 -3.0344  2.0238 -2.1060
45693SOL     OW45856   4.320   4.907   6.849 -0.0022 -0.1078 -0.3878
45693SOL    HW145857   4.257   4.874   6.784  0.3004  0.8442 -1.1897
45693SOL    HW245858   4.396   4.849   6.840 -0.1045 -0.2067 -0.6381
45694SOL     OW45859  12.010   7.904   4.140 -0.2800 -0.3435 -0.3012
45694SOL    HW145860  12.025   7.874   4.050 -0.4997  0.7794 -0.7312
45694SOL    HW245861  11.962   7.986   4.130  1.5477  0.9395  0.7443
45695SOL     OW45862   5.658   5.428   2.456 -0.5334 -0.0307  0.0032
45695SOL    HW145863   5.681   5.481   2.532  1.4785 -1.9024  0.7914
45695SOL    HW245864   5.634   5.343   2.493  3.3947 -1.9761 -1.4472
45696SOL     OW45865   3.114   4.029   1.456  0.0635 -0.1399 -0.3854
45696SOL    HW145866   3.187   4.084   1.486 -0.3341  0.4082 -0.4110
45696SOL    HW245867   3.095   3.971   1.530 -0.3167  0.5887  0.0960
45697SOL     OW45868   8.260   1.995   2.973 -0.1454  0.0148  0.0849
45697SOL    HW145869   8.297   2.065   2.919  0.3112  0.0922  0.4874
45697SOL    HW245870   8.169   2.019   2.986 -0.0403  0.4364  0.0524
45698SOL     OW45871   8.123  10.625   4.733 -0.0062 -0.1190 -0.0166
45698SOL    HW145872   8.060  10.692   4.706  1.5142  1.6977  0.7749
45698SOL    HW245873   8.150  10.650   4.821 -0.5589 -2.7037  0.9975
45699SOL     OW45874   8.215   4.547  11.985  0.1507 -0.0462 -0.1007
45699SOL    HW145875   8.243   4.617  12.043 -0.6107  0.0811  0.1193
45699SOL    HW245876   8.217   4.468  12.039  1.7025 -0.3435 -0.5345
45700SOL     OW45877  10.389   7.047   3.186 -0.3309  0.4513  0.2088
45700SOL    HW145878  10.315   7.048   3.125  1.2013  1.3679 -1.7843
45700SOL    HW245879  10.360   7.099   3.261 -2.1438 -0.3628  0.1095
45701SOL     OW45880   0.311   9.269  11.940  0.2609 -0.1619 -0.1362
45701SOL    HW145881   0.253   9.345  11.941  1.4616  0.8053  0.8368
45701SOL    HW245882   0.396   9.305  11.966  0.8403 -1.8563  0.4162
45702SOL     OW45883   4.355   8.784  10.745 -0.0353 -0.2443  0.2265
45702SOL    HW145884   4.331   8.875  10.731  0.0904 -0.3598 -0.8016
45702SOL    HW245885   4.314   8.736  10.673 -0.2749 -1.0309  0.8732
45703SOL     OW45886  10.460  11.594   0.466  0.0599 -0.2632 -0.0022
45703SOL    HW145887  10.380  11.541   0.459  0.3255 -0.5742 -0.7405
45703SOL    HW245888  10.439  11.658   0.533 -0.5887 -0.7422  0.2706
45704SOL     OW45889   2.403   6.212   2.364 -0.1513 -0.1357 -0.3132
45704SOL    HW145890   2.429   6.299   2.334 -0.6368  0.4669  0.9156
45704SOL    HW245891   2.311   6.204   2.337 -0.9705  0.9074  1.9269
45705SOL     OW45892   9.271   0.122   5.528 -0.4107  0.1387  0.8366
45705SOL    HW145893   9.331   0.123   5.602 -1.0506 -1.7566  1.4568
45705SOL    HW245894   9.257   0.029   5.509  0.0990  0.5466 -2.0078
45706SOL     OW45895   1.206   1.596   6.123  0.0116  0.1965 -0.1187
45706SOL    HW145896   1.228   1.594   6.216 -1.4742  2.4500  0.3783
45706SOL    HW245897   1.110   1.601   6.121  0.0851  3.2240 -1.5597
45707SOL     OW45898   9.195  10.472  11.157 -0.0037  0.6017  0.1489
45707SOL    HW145899   9.216  10.478  11.064  0.9836 -2.7823  0.0340
45707SOL    HW245900   9.102  10.491  11.162 -0.3655 -0.4448 -1.7567
45708SOL     OW45901   5.857   2.022  10.229 -0.1568  0.1219 -0.1413
45708SOL    HW145902   5.838   2.098  10.175  0.5582  0.2929 -0.1685
45708SOL    HW245903   5.897   1.959  10.168 -1.2942 -0.5288 -0.2555
45709SOL     OW45904  12.388   4.710   1.375  0.0368 -0.3095 -0.2486
45709SOL    HW145905  12.356   4.656   1.303  0.7587 -0.3799 -0.5224
45709SOL    HW245906  12.310   4.733   1.425 -0.5451  0.1996 -1.3643
45710SOL     OW45907   2.605  10.759   9.427 -0.0199  0.0225 -0.3352
45710SOL    HW145908   2.513  10.733   9.422  0.0441 -0.4878  0.7335
45710SOL    HW245909   2.652  10.695   9.374 -0.1917 -0.2458 -0.1666
45711SOL     OW45910   6.587   5.735  10.639 -0.0902 -0.0531 -0.3970
45711SOL    HW145911   6.501   5.694  10.626 -0.1520 -0.4060  0.9730
45711SOL    HW245912   6.590   5.805  10.574 -1.0251 -0.6404 -1.0970
45712SOL     OW45913   1.652  12.011   1.216  0.1537  0.0517  0.8131
45712SOL    HW145914   1.649  11.951   1.142  0.3133 -1.4267  1.9566
45712SOL    HW245915   1.723  12.071   1.196 -0.7027  0.5811 -0.8533
45713SOL     OW45916   5.196   8.487   2.464 -0.0294  0.2480 -0.7238
45713SOL    HW145917   5.217   8.432   2.540 -0.4486  0.0258 -0.7639
45713SOL    HW245918   5.199   8.577   2.498 -1.7660  0.0928 -0.0258
45714SOL     OW45919  12.510   1.495   6.786 -0.6299 -0.0671  0.1790
45714SOL    HW145920  12.553   1.548   6.853 -1.1221 -0.5906  0.9130
45714SOL    HW245921  12.524   1.404   6.814  0.9209 -0.4099 -1.4862
45715SOL     OW45922   1.806   9.292   3.813 -0.2014  0.1188  0.4348
45715SOL    HW145923   1.870   9.295   3.885  0.6293 -0.6652 -0.2474
45715SOL    HW245924   1.858   9.269   3.736 -1.4285 -1.3656  0.0083
45716SOL     OW45925  12.282   3.906   2.830  0.1619 -0.2071  0.9531
45716SOL    HW145926  12.256   3.959   2.905 -0.9134 -0.9512  1.1318
45716SOL    HW245927  12.328   3.966   2.772  1.3351  0.2931  2.3653
45717SOL     OW45928   7.340   8.497   0.515 -0.5373  0.2519  0.6427
45717SOL    HW145929   7.377   8.494   0.603 -0.0853 -2.4239  0.4461
45717SOL    HW245930   7.257   8.449   0.522 -0.7708  0.5017 -0.2706
45718SOL     OW45931   7.245   8.989  12.313  0.0842  0.5384  0.6068
45718SOL    HW145932   7.279   8.902  12.294 -0.0236  0.6576 -0.1472
45718SOL    HW245933   7.323   9.044  12.319  0.1321  0.4542  0.7737
45719SOL     OW45934   1.025  11.431   1.683  0.1057 -0.2110 -0.1250
45719SOL    HW145935   1.062  11.381   1.756 -0.0472  1.5292  1.2006
45719SOL    HW245936   0.933  11.443   1.707  0.0763  0.4487 -0.5557
45720SOL     OW45937   0.167  10.115   4.439  0.0154  0.0313 -0.5377
45720SOL    HW145938   0.201  10.141   4.524 -0.4869  1.9558 -0.8830
45720SOL    HW245939   0.245  10.095   4.387  0.3839  0.0835 -0.0128
45721SOL     OW45940   2.045   9.015   2.139  1.0634  0.4041  0.4439
45721SOL    HW145941   1.965   9.065   2.129  0.5484 -0.4483  0.2365
45721SOL    HW245942   2.017   8.924   2.147  1.8812  0.2592  2.3423
45722SOL     OW45943   4.674   1.484   2.191 -0.2323  0.1596  0.2757
45722SOL    HW145944   4.591   1.439   2.173 -1.4564  2.0229  0.9614
45722SOL    HW245945   4.713   1.433   2.263 -1.1671 -0.2890  0.4870
45723SOL     OW45946   5.044  11.666  10.936  0.0481  0.3317 -0.0166
45723SOL    HW145947   5.138  11.653  10.936  0.1204  0.6699  1.2467
45723SOL    HW245948   5.010  11.598  10.879  0.9332 -0.9338  0.9094
45724SOL     OW45949  11.952   2.878   8.490 -0.0131  0.1289  0.2893
45724SOL    HW145950  11.973   2.925   8.409 -0.4894 -2.1310 -1.2542
45724SOL    HW245951  12.032   2.829   8.511 -0.4160 -0.5659  0.2351
45725SOL     OW45952   5.978   2.727   0.066  0.0614  0.5247  0.1856
45725SOL    HW145953   5.988   2.669   0.141 -0.4874  0.1180 -0.0503
45725SOL    HW245954   5.897   2.698   0.024  1.5853 -0.8569 -1.9844
45726SOL     OW45955   0.506   8.831   7.448  0.1281 -0.1447  0.4675
45726SOL    HW145956   0.572   8.847   7.381 -0.3458  1.4013  0.3386
45726SOL    HW245957   0.557   8.809   7.527  0.7950  0.7160  0.2937
45727SOL     OW45958   6.800  10.387   4.068 -0.6412 -0.2829 -0.1409
45727SOL    HW145959   6.758  10.313   4.024  0.3759 -2.2004  1.9006
45727SOL    HW245960   6.735  10.417   4.132 -0.1382 -1.1684  0.8199
45728SOL     OW45961   3.924   6.158   5.766  0.2167  0.5228 -0.3449
45728SOL    HW145962   3.935   6.250   5.740  0.3430  0.2308 -1.3618
45728SOL    HW245963   3.859   6.124   5.706 -0.8983  0.3002  0.9411
45729SOL     OW45964   4.005   9.992  11.240  1.1012 -0.2208  0.5798
45729SOL    HW145965   4.000   9.907  11.197 -0.1928  0.1687 -0.0836
45729SOL    HW245966   3.961   9.980  11.324  1.7899 -0.4401  0.9209
45730SOL     OW45967   5.295   9.522  11.209 -0.5230  0.2853  0.4047
45730SOL    HW145968   5.227   9.556  11.267 -0.0081  1.8242  0.1638
45730SOL    HW245969   5.313   9.434  11.241 -0.8847  0.7734  2.0164
45731SOL     OW45970   1.669   0.187   4.795 -0.9072  0.0232 -0.1123
45731SOL    HW145971   1.721   0.110   4.818 -0.0450  1.1022  1.7498
45731SOL    HW245972   1.619   0.206   4.874  0.6641  2.7520  0.3212
45732SOL     OW45973   2.786  11.670   6.371  0.3279  0.3098 -0.2068
45732SOL    HW145974   2.836  11.739   6.415 -0.0268 -0.1895  1.0269
45732SOL    HW245975   2.723  11.641   6.437 -0.8053  0.1181 -1.3413
45733SOL     OW45976   4.749   6.353  11.087  0.1909  0.3927  0.1689
45733SOL    HW145977   4.803   6.420  11.129  0.4376 -1.3372  2.8932
45733SOL    HW245978   4.812   6.294  11.046  0.1735  0.3043  0.2665
45734SOL     OW45979   0.662   9.086   4.853  0.6536 -0.5298 -0.7309
45734SOL    HW145980   0.695   9.048   4.771  0.5563  1.6993 -1.8837
45734SOL    HW245981   0.691   9.177   4.850 -0.9639  0.0800  0.8504
45735SOL     OW45982   7.533   0.806   2.083  0.1304 -0.0917 -0.0221
45735SOL    HW145983   7.585   0.868   2.134  1.2246 -0.0229 -1.1725
45735SOL    HW245984   7.491   0.860   2.016 -0.7802 -0.2714  0.3959
45736SOL     OW45985   6.806   2.279   8.765  0.3451 -0.5774  0.5121
45736SOL    HW145986   6.730   2.260   8.710  0.8759 -0.3167 -0.3348
45736SOL    HW245987   6.794   2.369   8.793  0.3341 -0.5358  0.3769
45737SOL     OW45988   8.453   1.139   9.138 -0.3908 -0.2207 -0.7918
45737SOL    HW145989   8.446   1.101   9.051 -0.4922 -2.2967  0.0522
45737SOL    HW245990   8.546   1.131   9.160 -0.5998 -1.1584 -0.1516
45738SOL     OW45991   8.865   4.759   7.682  0.1810 -0.0286 -0.4318
45738SOL    HW145992   8.920   4.684   7.706 -0.4626 -0.3019  0.2433
45738SOL    HW245993   8.806   4.770   7.757  0.7125  1.5889 -0.2153
45739SOL     OW45994   1.649  11.583   6.255  0.3133  0.2125  0.4474
45739SOL    HW145995   1.705  11.509   6.232  3.1656  2.0895  0.8582
45739SOL    HW245996   1.672  11.651   6.191 -0.6155  1.4543  1.3774
45740SOL     OW45997  11.412  10.535   4.400 -0.0064  0.1943  0.5326
45740SOL    HW145998  11.507  10.535   4.407 -0.0316 -2.1190  1.8380
45740SOL    HW245999  11.391  10.453   4.355 -1.4594 -1.8022  4.3594
45741SOL     OW46000   3.944  11.658   1.492  0.4149 -0.1653 -0.3043
45741SOL    HW146001   3.864  11.691   1.450 -0.6381 -2.0538  0.1408
45741SOL    HW246002   4.014  11.702   1.445 -0.7508 -1.0562 -3.1092
45742SOL     OW46003  11.429   9.770   2.013 -0.5122  0.8641  0.2937
45742SOL    HW146004  11.369   9.809   1.949 -0.4710  0.8855  0.2681
45742SOL    HW246005  11.380   9.696   2.049 -0.4213  0.6704  0.0198
45743SOL     OW46006  10.297   1.851   5.891 -0.0510  0.7849  0.0885
45743SOL    HW146007  10.269   1.778   5.836 -2.7569  2.7100 -1.3378
45743SOL    HW246008  10.352   1.905   5.833  2.6363 -0.3801  1.3713
45744SOL     OW46009  10.313   1.646   2.119 -0.0693  0.6040 -0.0218
45744SOL    HW146010  10.339   1.732   2.086  3.0802 -0.3056 -0.2497
45744SOL    HW246011  10.218   1.644   2.108 -0.5205  4.5629  1.3805
45745SOL     OW46012   4.643  11.467   7.892  0.4657 -0.1200  0.0812
45745SOL    HW146013   4.622  11.405   7.961  1.8838 -1.2174 -0.4190
45745SOL    HW246014   4.689  11.415   7.826 -2.0512  0.5647 -2.3976
45746SOL     OW46015   8.271   3.645   4.000  0.4810 -0.0482 -0.0059
45746SOL    HW146016   8.178   3.620   4.003  0.5082 -0.3115 -1.0299
45746SOL    HW246017   8.270   3.741   3.995  0.3066  0.0234  1.1029
45747SOL     OW46018   6.654   0.066   9.065  0.1304  0.0902  0.0394
45747SOL    HW146019   6.662   0.145   9.013  0.4537 -0.1448 -0.2764
45747SOL    HW246020   6.560   0.051   9.073  0.0754  0.2097 -0.3552
45748SOL     OW46021   1.326   3.683  11.389 -0.1378 -0.2966 -0.0773
45748SOL    HW146022   1.404   3.710  11.437 -0.6649  0.0338  0.5986
45748SOL    HW246023   1.350   3.597  11.353  1.2181  0.6213 -1.4859
45749SOL     OW46024   1.046   9.586   1.221  0.0907  0.1712  0.1327
45749SOL    HW146025   1.093   9.503   1.216  0.0024 -0.0807  2.3038
45749SOL    HW246026   0.973   9.569   1.281 -1.0939  1.3087 -0.9178
45750SOL     OW46027   3.206   6.328   6.468 -0.1786  0.2000  0.2257
45750SOL    HW146028   3.209   6.235   6.444 -1.6988  0.2055 -0.0799
45750SOL    HW246029   3.154   6.369   6.398  1.2559  1.4587 -0.1425
45751SOL     OW46030   6.460   0.310   1.669 -0.1773 -0.3494  0.8420
45751SOL    HW146031   6.486   0.365   1.742 -0.1400 -0.9591  1.2914
45751SOL    HW246032   6.403   0.243   1.708 -0.3640 -0.5257  0.2788
45752SOL     OW46033   3.233   3.082   9.543 -0.4030  0.2746  0.0109
45752SOL    HW146034   3.273   3.076   9.456  1.0320  0.2379  0.6338
45752SOL    HW246035   3.245   3.174   9.568  0.7559 -0.0626  0.8318
45753SOL     OW46036  10.888   4.712   3.871 -0.3181  0.4013  0.3928
45753SOL    HW146037  10.802   4.676   3.892 -0.6937  0.6985 -0.5711
45753SOL    HW246038  10.873   4.806   3.862 -0.5323  0.1852 -2.5734
45754SOL     OW46039  10.097   2.405   2.115 -0.2931  0.7741  0.9689
45754SOL    HW146040  10.009   2.399   2.152 -0.0718  1.1145  1.5543
45754SOL    HW246041  10.107   2.498   2.092 -0.0208  0.7715  1.0726
45755SOL     OW46042   0.165   7.979   0.275 -0.2686  0.2353 -0.1838
45755SOL    HW146043   0.127   7.893   0.256  1.4760 -0.4111 -0.8904
45755SOL    HW246044   0.203   8.008   0.193 -0.1655  1.3576  0.2369
45756SOL     OW46045   0.896  11.725   7.835 -0.5751  0.1265 -0.3268
45756SOL    HW146046   0.819  11.774   7.807 -1.4047 -0.4272  0.9283
45756SOL    HW246047   0.862  11.655   7.890  0.9088  0.5384  1.1944
45757SOL     OW46048   0.996   6.420   9.834  0.6630  0.0273  0.5224
45757SOL    HW146049   0.909   6.385   9.813  0.5940  0.1453  0.6079
45757SOL    HW246050   1.048   6.343   9.858  1.2853 -0.3774 -1.8472
45758SOL     OW46051  11.734   2.071   0.403  0.1226  0.4702 -0.2007
45758SOL    HW146052  11.654   2.121   0.422  0.2266  0.3658  0.5522
45758SOL    HW246053  11.707   2.009   0.336 -0.8988 -0.6836  1.1934
45759SOL     OW46054   2.311   1.198   2.850  0.2460 -0.2160 -0.0580
45759SOL    HW146055   2.256   1.182   2.774  3.0145 -1.9590 -1.8700
45759SOL    HW246056   2.278   1.137   2.916 -0.0633 -1.1708 -1.0654
45760SOL     OW46057   1.239   7.732  11.921  0.2370 -0.5276  0.1768
45760SOL    HW146058   1.210   7.645  11.892 -0.7807 -0.0553 -0.2724
45760SOL    HW246059   1.324   7.716  11.962  0.5121 -1.6006 -0.7417
45761SOL     OW46060   4.408   3.367  11.012  0.0838 -0.3943 -0.0640
45761SOL    HW146061   4.347   3.303  10.976  1.4782 -1.4852 -0.5661
45761SOL    HW246062   4.450   3.405  10.935 -0.0401  0.4467  0.2743
45762SOL     OW46063   0.989   9.197   9.143 -0.3333  0.8818  0.0270
45762SOL    HW146064   0.997   9.138   9.219 -1.2777  0.9034  0.1542
45762SOL    HW246065   1.079   9.217   9.120  0.0185 -0.5267  0.0560
45763SOL     OW46066   5.703   4.540  12.556 -0.2913  0.4977  0.1804
45763SOL    HW146067   5.783   4.543  12.503  0.2605  1.6493  1.0103
45763SOL    HW246068   5.670   4.630  12.553 -2.1435 -0.1771 -0.9679
45764SOL     OW46069   6.757   4.830   5.606 -0.1820  0.3047 -0.9269
45764SOL    HW146070   6.736   4.922   5.595  1.4205  0.8365  0.1445
45764SOL    HW246071   6.849   4.829   5.631 -0.0764 -1.6149 -1.2259
45765SOL     OW46072   4.643   9.806  11.140  0.2755 -0.0173  0.6681
45765SOL    HW146073   4.620   9.723  11.182 -1.6103  0.3832  0.4988
45765SOL    HW246074   4.568   9.863  11.156 -0.7887  0.0859 -3.4785
45766SOL     OW46075   8.413   2.674   8.376  0.5884 -0.3479  0.0393
45766SOL    HW146076   8.387   2.589   8.410 -0.7102 -0.1715 -0.4748
45766SOL    HW246077   8.341   2.733   8.400  1.5062  0.6384  0.4658
45767SOL     OW46078   7.683   3.621  11.510 -0.1788  0.5025 -0.4069
45767SOL    HW146079   7.671   3.694  11.571 -0.4842 -0.2027  0.3872
45767SOL    HW246080   7.777   3.616  11.498 -0.1821  1.4089 -0.9503
45768SOL     OW46081   1.495   8.173   8.451 -0.2144  0.1859  0.6100
45768SOL    HW146082   1.447   8.165   8.369  1.3933 -0.8164 -0.2954
45768SOL    HW246083   1.446   8.119   8.513  0.1168 -1.4491 -0.4817
45769SOL     OW46084  11.832  12.245   3.666  0.2441 -0.0614 -0.3378
45769SOL    HW146085  11.772  12.257   3.740 -2.2299 -0.7479 -2.0939
45769SOL    HW246086  11.832  12.330   3.621  0.9891  0.0666 -0.1186
45770SOL     OW46087   8.832   3.806   1.744 -0.1417  0.0039  0.6326
45770SOL    HW146088   8.765   3.751   1.704 -0.6729  0.1433  1.3053
45770SOL    HW246089   8.889   3.745   1.791  0.2993 -0.1290 -0.0649
45771SOL     OW46090  10.925   9.767   0.595 -0.2084 -0.0630  0.3320
45771SOL    HW146091  10.849   9.795   0.543 -0.8333 -1.2345  0.5775
45771SOL    HW246092  11.001   9.791   0.542 -0.8290 -1.2989 -1.1847
45772SOL     OW46093   0.096   7.181   1.427 -0.1452  0.1530 -0.2712
45772SOL    HW146094   0.059   7.126   1.496  1.1046 -1.7603 -1.0299
45772SOL    HW246095   0.170   7.226   1.469  1.2399 -1.7693 -0.5245
45773SOL     OW46096  11.650   7.945   6.438 -0.8237  0.1939 -0.0065
45773SOL    HW146097  11.646   7.933   6.343  0.5822 -0.5766 -0.0048
45773SOL    HW246098  11.672   7.858   6.472  0.0017  0.7298  0.8963
45774SOL     OW46099  11.575   0.072   5.995  0.1746 -0.6354 -0.5444
45774SOL    HW146100  11.509   0.047   5.930  3.3402 -3.3390 -3.0888
45774SOL    HW246101  11.609   0.156   5.963 -0.9070 -0.0081 -0.0953
45775SOL     OW46102   7.307   4.423   1.966  0.2227 -0.0172 -0.1706
45775SOL    HW146103   7.238   4.437   1.901 -0.6078 -0.6209  0.5523
45775SOL    HW246104   7.387   4.454   1.923 -0.4286  0.3441 -1.1704
45776SOL     OW46105   1.046   2.094   6.435  0.0436 -0.0684 -0.5242
45776SOL    HW146106   1.001   2.094   6.351 -2.4683  1.4246  0.7105
45776SOL    HW246107   0.979   2.068   6.498  1.2912  0.9052  1.2725
45777SOL     OW46108   0.554   0.484   0.563  0.0065  0.1963  0.2699
45777SOL    HW146109   0.568   0.466   0.656  2.0047  0.8217  0.1463
45777SOL    HW246110   0.568   0.400   0.520  1.0762  0.2881  0.3984
45778SOL     OW46111   0.658   5.547   8.466 -0.0617 -0.4895  0.3702
45778SOL    HW146112   0.717   5.524   8.537 -0.2482 -0.1537  0.6359
45778SOL    HW246113   0.634   5.638   8.482  2.8989  0.9159 -2.2034
45779SOL     OW46114   1.980   4.187   3.893 -0.7619  0.0197 -0.4953
45779SOL    HW146115   1.977   4.160   3.985  0.9095 -0.9712 -0.6767
45779SOL    HW246116   2.040   4.261   3.892  1.0925 -1.3961 -1.0179
45780SOL     OW46117   2.163   9.494  11.224  0.2049  0.4403 -0.1206
45780SOL    HW146118   2.207   9.460  11.302 -0.1942 -2.0580 -0.8859
45780SOL    HW246119   2.219   9.566  11.194  1.1954  0.4288  1.5585
45781SOL     OW46120   9.921  11.324  11.746 -0.0525 -0.0354 -0.4952
45781SOL    HW146121   9.890  11.344  11.834 -0.9389  0.3526 -0.8778
45781SOL    HW246122   9.943  11.231  11.748 -1.2514 -0.3363 -0.1804
45782SOL     OW46123  10.506   3.545   6.194 -0.0252 -0.0149 -0.1299
45782SOL    HW146124  10.463   3.612   6.140  1.3122  0.3487 -0.7830
45782SOL    HW246125  10.434   3.504   6.243 -0.9587  1.3860 -0.2763
45783SOL     OW46126   6.139   1.782   5.570 -0.1974 -0.5139  0.1812
45783SOL    HW146127   6.105   1.849   5.511  0.6157 -0.5331 -0.3166
45783SOL    HW246128   6.213   1.823   5.614 -0.5925 -0.6093  0.9610
45784SOL     OW46129   9.661   8.745   4.407  0.2644  1.1107 -0.3075
45784SOL    HW146130   9.599   8.718   4.475  2.2496  0.2126  1.2668
45784SOL    HW246131   9.684   8.664   4.362  1.3398  1.1867  0.0847
45785SOL     OW46132   1.175   6.684   1.443 -0.4083 -0.0295  0.4198
45785SOL    HW146133   1.090   6.710   1.478 -2.0874 -2.2824 -1.6674
45785SOL    HW246134   1.169   6.702   1.349  1.0308 -1.1567  0.0797
45786SOL     OW46135  11.185   8.698  11.103 -0.2684  0.1831 -0.4727
45786SOL    HW146136  11.264   8.704  11.049  0.4545 -2.0287  0.2395
45786SOL    HW246137  11.115   8.733  11.047  0.7594 -0.3245 -2.1578
45787SOL     OW46138   8.766   4.099   4.701  0.0344  0.8273 -0.6505
45787SOL    HW146139   8.827   4.134   4.766 -0.0053  0.2248 -0.2777
45787SOL    HW246140   8.683   4.143   4.720 -0.2199 -0.0265  0.3344
45788SOL     OW46141  12.375   9.310  11.154 -0.3603  0.6654 -0.2442
45788SOL    HW146142  12.361   9.279  11.244 -0.3323  0.0542 -0.4462
45788SOL    HW246143  12.406   9.233  11.107 -0.2743  1.0112 -0.7570
45789SOL     OW46144   6.472   7.676   1.386 -0.2124  0.1995  0.5763
45789SOL    HW146145   6.408   7.626   1.437  0.3757 -0.7635  0.3945
45789SOL    HW246146   6.508   7.739   1.448 -0.3482 -0.1840  1.0516
45790SOL     OW46147  11.081  10.247   5.072 -0.2936 -0.1363 -0.3478
45790SOL    HW146148  11.067  10.325   5.126  0.2527 -0.4173  0.2214
45790SOL    HW246149  11.168  10.259   5.035 -0.1252 -0.5564 -0.0997
45791SOL     OW46150   4.717   7.917   2.569 -0.1568  0.3703 -0.5585
45791SOL    HW146151   4.723   8.005   2.531 -0.0233  0.2164 -0.8938
45791SOL    HW246152   4.632   7.885   2.539  0.6284 -0.3833 -2.1080
45792SOL     OW46153   9.415   4.720  10.092 -0.2663  0.1952 -0.2297
45792SOL    HW146154   9.420   4.757  10.180 -0.0371 -0.7178  0.1587
45792SOL    HW246155   9.410   4.625  10.106  2.9849 -0.2761 -1.1975
45793SOL     OW46156   2.393   0.953   4.921 -0.3867  0.5369 -0.0234
45793SOL    HW146157   2.347   1.027   4.882 -0.1066 -0.2029 -1.8408
45793SOL    HW246158   2.396   0.887   4.852 -1.5492 -1.6092  1.8589
45794SOL     OW46159   2.645   2.975   3.154 -0.3744  0.2402 -0.3439
45794SOL    HW146160   2.678   3.027   3.081  0.0080 -2.8847 -2.6075
45794SOL    HW246161   2.721   2.966   3.212 -0.4251  2.0213  0.0376
45795SOL     OW46162   1.596   9.026   1.204  0.1931 -0.0828 -0.1193
45795SOL    HW146163   1.623   8.972   1.279  1.5266  0.4547 -0.1913
45795SOL    HW246164   1.566   9.108   1.243  0.2782 -0.0442 -0.1347
45796SOL     OW46165   7.632   9.712   4.215 -0.0507 -0.1940  0.1783
45796SOL    HW146166   7.579   9.791   4.206  2.0151  1.2334  0.0587
45796SOL    HW246167   7.680   9.725   4.297  0.5222 -1.2162  0.0143
45797SOL     OW46168   3.561  10.274   8.590  0.4514 -0.1165  0.4189
45797SOL    HW146169   3.571  10.326   8.669  0.2139  0.4342  0.0943
45797SOL    HW246170   3.611  10.323   8.524  1.7248 -1.2241  0.5127
45798SOL     OW46171   7.569  11.952   2.449  0.6318 -0.0838  0.1867
45798SOL    HW146172   7.503  12.007   2.407  0.7665 -1.1269 -1.5209
45798SOL    HW246173   7.522  11.908   2.520 -0.3729 -0.3629 -0.6270
45799SOL     OW46174   4.297   8.953   3.588 -0.8015 -0.1504 -0.0233
45799SOL    HW146175   4.240   9.024   3.557 -1.5957 -0.2866  1.0711
45799SOL    HW246176   4.293   8.959   3.683  0.6850 -0.4509  0.0791
45800SOL     OW46177   7.797   3.061  11.382 -0.0828 -0.0046  0.4016
45800SOL    HW146178   7.890   3.080  11.367 -0.2136  1.5186  1.3277
45800SOL    HW246179   7.793   2.966  11.387  1.3166 -0.1340 -0.3404
45801SOL     OW46180  10.245   7.370  11.950 -0.0382 -0.8761 -0.4504
45801SOL    HW146181  10.334   7.334  11.952  0.9940  1.3591 -1.8674
45801SOL    HW246182  10.222   7.384  12.042  0.5738 -2.5214 -0.0086
45802SOL     OW46183   5.909   6.099   5.095  0.3572 -0.1801 -0.2746
45802SOL    HW146184   5.923   6.099   5.001  3.0317 -0.6238  0.0546
45802SOL    HW246185   5.893   6.191   5.117  1.9817  0.2785 -0.9017
45803SOL     OW46186   1.746  11.246   1.773 -0.1433  0.2886 -0.3353
45803SOL    HW146187   1.694  11.183   1.723  2.1234 -1.0767 -1.1112
45803SOL    HW246188   1.702  11.251   1.858 -0.8743 -1.6713 -0.5519
45804SOL     OW46189   6.763   0.132   0.229  0.2035 -0.1192  0.4488
45804SOL    HW146190   6.744   0.038   0.224 -0.4624  0.0739 -1.9684
45804SOL    HW246191   6.694   0.173   0.178  0.3492  1.7572  1.6387
45805SOL     OW46192   3.605   5.848   2.249  1.0011  0.1088  0.2962
45805SOL    HW146193   3.572   5.835   2.338  0.2989  2.0371  0.3827
45805SOL    HW246194   3.535   5.897   2.205  0.6801 -2.0642 -1.8086
45806SOL     OW46195   4.748   7.410   9.075  0.1768  0.0593 -0.2142
45806SOL    HW146196   4.825   7.378   9.123  0.3075 -0.6930 -0.9012
45806SOL    HW246197   4.779   7.489   9.031  0.3726  0.1198  0.0245
45807SOL     OW46198   1.390  11.943   8.588 -0.1638  0.6769 -0.2500
45807SOL    HW146199   1.466  11.973   8.538  0.2574  0.4540  0.2454
45807SOL    HW246200   1.424  11.929   8.677 -0.5247 -0.4631 -0.2741
45808SOL     OW46201  11.200  11.555   5.613  0.1312 -0.4490  1.0415
45808SOL    HW146202  11.160  11.483   5.565  0.0073 -0.9658  1.8871
45808SOL    HW246203  11.227  11.618   5.546 -1.8335 -0.2122  0.4108
45809SOL     OW46204   9.466   9.340   4.604  0.0915 -0.0741 -0.0625
45809SOL    HW146205   9.431   9.310   4.520  0.2631 -0.2764 -0.0632
45809SOL    HW246206   9.558   9.358   4.586  0.2888 -0.7539  0.2366
45810SOL     OW46207  11.441   1.172  11.546 -0.5494  0.1903 -0.3514
45810SOL    HW146208  11.359   1.167  11.595  0.3092 -0.0379  1.1282
45810SOL    HW246209  11.418   1.143  11.458 -1.8767 -0.7439  0.2616
45811SOL     OW46210   1.989   0.131   0.065  0.5091  0.0033  0.5388
45811SOL    HW146211   2.070   0.113   0.114  0.7272 -0.0783  0.1546
45811SOL    HW246212   1.997   0.078  -0.014 -0.2481 -0.5348  0.8206
45812SOL     OW46213  12.462  10.619   8.494 -0.1163  0.5261 -0.1748
45812SOL    HW146214  12.420  10.550   8.547 -0.9562  0.4550 -0.9010
45812SOL    HW246215  12.509  10.571   8.426 -0.3422  0.6541 -0.4227
45813SOL     OW46216   7.996   3.307  10.392 -0.2695 -0.0600  0.1767
45813SOL    HW146217   8.020   3.233  10.335  1.5445  0.6992 -0.1153
45813SOL    HW246218   8.055   3.300  10.466 -1.2288  0.1625  0.9757
45814SOL     OW46219  11.241   3.037   1.027  0.3272  0.4105  0.2335
45814SOL    HW146220  11.214   2.946   1.012 -0.2035  0.3195  1.5919
45814SOL    HW246221  11.209   3.057   1.115  0.2857  1.9778 -0.1186
45815SOL     OW46222  11.756   5.288   9.992 -0.0888  0.2569 -0.0669
45815SOL    HW146223  11.796   5.358   9.940 -1.7199  0.6207 -0.9363
45815SOL    HW246224  11.827   5.227  10.010  0.8170  0.7795 -1.6459
45816SOL     OW46225   1.927   6.870   7.587 -0.3262  0.2073 -0.5226
45816SOL    HW146226   1.942   6.808   7.516 -0.6745 -0.1023 -0.3343
45816SOL    HW246227   2.008   6.920   7.594 -0.3597  0.3622 -1.2531
45817SOL     OW46228  10.445   8.581   3.577  0.8249 -0.0623 -0.1643
45817SOL    HW146229  10.398   8.644   3.522  0.3969 -0.1196  0.1267
45817SOL    HW246230  10.471   8.511   3.517 -1.5978 -1.2516  0.0460
45818SOL     OW46231   4.762   0.734   2.319  0.2179 -0.0396 -0.3303
45818SOL    HW146232   4.835   0.680   2.350  0.9503  1.8013  1.3446
45818SOL    HW246233   4.734   0.692   2.238  0.9062 -2.7527  0.7265
45819SOL     OW46234   4.020   5.765   7.180 -0.0051 -0.4265 -0.5084
45819SOL    HW146235   4.016   5.851   7.139 -0.2781 -0.4495 -0.5346
45819SOL    HW246236   4.024   5.783   7.274  2.1270 -0.3356 -0.5742
45820SOL     OW46237   3.951   1.164   7.700  0.0107 -0.0182 -0.2376
45820SOL    HW146238   3.904   1.147   7.619  1.0193 -2.2048 -0.4472
45820SOL    HW246239   4.031   1.209   7.672  0.0005 -0.0874 -0.3807
45821SOL     OW46240   3.849  12.158   8.357  0.1883 -0.0214  0.3703
45821SOL    HW146241   3.902  12.138   8.434  0.6843  0.3126  0.1243
45821SOL    HW246242   3.860  12.083   8.299  1.0730  0.4087 -0.0350
45822SOL     OW46243   1.817   3.037  12.432  0.5268  0.2567 -0.4928
45822SOL    HW146244   1.752   3.009  12.497  0.2032  0.2132 -0.8288
45822SOL    HW246245   1.782   3.004  12.348  0.6252  0.8449 -0.7672
45823SOL     OW46246  10.827   6.811   8.327 -0.1462  0.6691  0.6107
45823SOL    HW146247  10.769   6.769   8.391  0.2881 -0.8865  0.0250
45823SOL    HW246248  10.910   6.766   8.338  0.3722  1.4634  0.0064
45824SOL     OW46249  11.873   7.044   6.935  0.4377  0.8107  0.2787
45824SOL    HW146250  11.843   6.959   6.967  0.4347  0.9221  0.5781
45824SOL    HW246251  11.856   7.104   7.008 -1.8980  1.5643 -0.7867
45825SOL     OW46252   3.450  10.294  10.427  0.3578  0.4430  0.4949
45825SOL    HW146253   3.384  10.284  10.495  0.1904 -1.4422  0.1042
45825SOL    HW246254   3.403  10.329  10.352 -0.2634 -0.9176  0.2076
45826SOL     OW46255   3.221   9.396   4.204  0.1869 -0.3639 -0.1336
45826SOL    HW146256   3.182   9.345   4.275  0.0093  0.5306  0.4248
45826SOL    HW246257   3.238   9.482   4.243  0.7121 -0.0717 -0.9855
45827SOL     OW46258   0.795  12.488   0.804  0.5807 -0.2585 -0.2719
45827SOL    HW146259   0.851  12.558   0.771 -0.1658  0.2552 -0.4631
45827SOL    HW246260   0.784  12.507   0.897  2.0104 -1.2498  0.1351
45828SOL     OW46261   5.866   6.685   6.430 -0.1423 -0.1047  0.3864
45828SOL    HW146262   5.860   6.593   6.406  0.4185  0.3870 -1.8464
45828SOL    HW246263   5.777   6.719   6.420 -0.1437 -0.1701  0.1810
45829SOL     OW46264   7.288   4.683   6.130  0.0212  0.5158 -0.2458
45829SOL    HW146265   7.227   4.608   6.130  1.1954 -0.4675  0.6134
45829SOL    HW246266   7.279   4.720   6.042  0.6347 -1.6713 -1.2841
45830SOL     OW46267   5.073   3.956   9.259 -0.0997  0.3602 -0.0872
45830SOL    HW146268   5.009   3.990   9.321 -0.6723  1.2878 -1.1480
45830SOL    HW246269   5.074   3.862   9.274 -1.7546  0.3153 -0.0924
45831SOL     OW46270   6.263   3.386   4.974 -0.4706  0.4477  0.2618
45831SOL    HW146271   6.349   3.415   4.946 -0.9015  1.0213 -0.4966
45831SOL    HW246272   6.208   3.464   4.967 -1.1489 -0.0214  0.3096
45832SOL     OW46273   0.995   8.766   8.793  0.0518  0.3947 -0.1972
45832SOL    HW146274   0.985   8.854   8.830 -0.6321  0.2893 -0.1260
45832SOL    HW246275   0.985   8.707   8.868  0.4368  0.2503 -0.2578
45833SOL     OW46276   7.560   2.210   9.159 -0.0758  0.0946 -0.2890
45833SOL    HW146277   7.642   2.192   9.113  0.3274 -1.1567  0.8555
45833SOL    HW246278   7.587   2.235   9.248 -0.9121 -0.0505  0.0131
45834SOL     OW46279   4.528   6.772   5.561  0.4130 -0.6022 -0.3376
45834SOL    HW146280   4.588   6.777   5.486  0.4081 -0.3882 -0.3301
45834SOL    HW246281   4.560   6.840   5.620 -1.0029  0.8891 -1.2026
45835SOL     OW46282   9.327   8.954  10.592  0.7986  0.3423  0.0044
45835SOL    HW146283   9.272   9.032  10.596  0.8837  0.3770  0.6724
45835SOL    HW246284   9.274   8.885  10.632  1.5240  0.5669  1.4487
45836SOL     OW46285   0.882  11.405   8.277  0.5311 -0.0971 -0.4167
45836SOL    HW146286   0.903  11.312   8.272 -0.8546 -0.4057 -0.9235
45836SOL    HW246287   0.856  11.418   8.368 -0.6408 -0.5457 -0.6630
45837SOL     OW46288   9.552   7.482   8.728  0.0347 -0.3337 -0.3962
45837SOL    HW146289   9.527   7.390   8.723 -2.1606  0.1457  0.6894
45837SOL    HW246290   9.471   7.531   8.713  0.8219  1.3854  0.5862
45838SOL     OW46291  11.066   4.213  12.471  0.6108  0.6952 -0.6273
45838SOL    HW146292  11.100   4.143  12.527  1.5652  1.2680 -0.4738
45838SOL    HW246293  11.053   4.172  12.386 -1.3741 -0.3355  0.0915
45839SOL     OW46294   1.094   7.804   2.433 -0.0826 -0.1933 -0.1703
45839SOL    HW146295   1.024   7.754   2.391  1.0189  0.9318 -3.6360
45839SOL    HW246296   1.098   7.886   2.384  0.4197  1.9561  3.1629
45840SOL     OW46297   2.955   0.845   5.024 -0.0331  0.4343  0.1783
45840SOL    HW146298   2.992   0.792   4.953 -1.0202 -0.8126  0.5495
45840SOL    HW246299   2.953   0.934   4.989 -0.0507 -0.0690 -1.1724
45841SOL     OW46300   2.691   9.797   8.516 -0.2441  0.0438 -0.1835
45841SOL    HW146301   2.631   9.722   8.513  0.6254 -0.7767  1.3353
45841SOL    HW246302   2.778   9.757   8.525  0.3061  1.2270 -0.0312
45842SOL     OW46303   2.667   9.985   6.677  0.2800 -0.1029 -0.2368
45842SOL    HW146304   2.625   9.926   6.615  0.6600 -1.4135  0.7087
45842SOL    HW246305   2.598  10.005   6.740  0.5391 -0.7372  0.2600
45843SOL     OW46306   5.415   2.654   8.416 -0.0430 -0.2765  0.0812
45843SOL    HW146307   5.455   2.615   8.338  0.4567  0.5537 -0.0937
45843SOL    HW246308   5.478   2.720   8.444 -1.0281  0.6675  0.1441
45844SOL     OW46309   1.133   7.423   0.113  0.1139 -0.0636  0.5016
45844SOL    HW146310   1.121   7.328   0.106 -2.2915  0.2856 -1.6155
45844SOL    HW246311   1.146   7.452   0.023  0.7700  1.6427  1.1137
45845SOL     OW46312  12.431   8.936   3.739 -0.2040  0.2071  0.0024
45845SOL    HW146313  12.362   8.974   3.794 -2.2141 -1.8895 -0.8943
45845SOL    HW246314  12.410   8.843   3.736  1.0928 -0.0761 -2.5316
45846SOL     OW46315   7.178   3.886   1.187  0.1958 -0.0585 -0.0575
45846SOL    HW146316   7.235   3.892   1.110 -0.6081  1.2201 -0.5828
45846SOL    HW246317   7.234   3.914   1.260  0.4155  0.6343 -0.4819
45847SOL     OW46318   6.977   5.666  11.575 -0.1300 -0.1132  0.2423
45847SOL    HW146319   6.926   5.729  11.627 -0.9622 -1.8188  1.6271
45847SOL    HW246320   6.953   5.684  11.485  0.1764  1.9660  0.5434
45848SOL     OW46321  10.319   1.048   0.369  0.0073 -0.4106 -0.3979
45848SOL    HW146322  10.254   0.983   0.395  0.6112 -0.4282  1.1738
45848SOL    HW246323  10.339   1.027   0.278 -0.2000 -2.0892 -0.0850
45849SOL     OW46324  10.243   7.598   2.472  0.3308  0.1890  0.4842
45849SOL    HW146325  10.212   7.686   2.497  0.4845  0.0041  1.3661
45849SOL    HW246326  10.291   7.612   2.391 -0.2581  0.8114  0.2319
45850SOL     OW46327   5.440   1.455  11.026 -0.1035  0.2334 -0.5764
45850SOL    HW146328   5.460   1.366  10.997 -0.3429  0.3785 -1.1932
45850SOL    HW246329   5.488   1.464  11.109  1.2420  0.0784 -1.3046
45851SOL     OW46330   9.899   1.506   6.938  0.3864  0.1321  0.2561
45851SOL    HW146331   9.896   1.537   6.847  0.7942 -0.0840  0.1688
45851SOL    HW246332   9.927   1.415   6.932 -0.9886 -0.3310  0.5032
45852SOL     OW46333  10.433  11.662   5.847 -0.1546  0.0915 -0.3597
45852SOL    HW146334  10.505  11.619   5.800  0.0627 -0.5317  0.5233
45852SOL    HW246335  10.355  11.637   5.799 -0.0657 -1.5471  0.2670
45853SOL     OW46336   5.438   2.347   2.037  0.1233  0.4490  0.2908
45853SOL    HW146337   5.375   2.355   1.965  0.1740  2.2864  0.4030
45853SOL    HW246338   5.522   2.329   1.993  0.2305  1.9412 -0.1899
45854SOL     OW46339   0.085   8.810   1.703  0.5684 -0.9516 -0.1946
45854SOL    HW146340   0.119   8.721   1.713 -1.5302 -1.7424  0.6913
45854SOL    HW246341   0.132   8.861   1.769  1.7627 -1.3916 -0.6810
45855SOL     OW46342   1.375   3.115   8.268  0.4975 -0.0644  0.2182
45855SOL    HW146343   1.452   3.166   8.291  1.3526 -1.4887  0.6535
45855SOL    HW246344   1.409   3.027   8.250 -0.9930 -0.6555  0.1410
45856SOL     OW46345   7.159  11.904  12.565 -0.2298  0.3266  0.0849
45856SOL    HW146346   7.162  11.912  12.470 -2.1337 -0.7642 -0.1101
45856SOL    HW246347   7.194  11.987  12.597 -0.3642  1.0546 -1.5654
45857SOL     OW46348   1.689   1.659   6.145 -0.1400  0.4032  0.4931
45857SOL    HW146349   1.718   1.683   6.057  0.1906 -0.2523  0.4212
45857SOL    HW246350   1.597   1.635   6.135 -0.0816  0.2561  0.3100
45858SOL     OW46351   8.948   2.790   6.875 -0.0631  0.7741  0.0691
45858SOL    HW146352   8.901   2.776   6.793 -0.1064  1.3522 -0.0040
45858SOL    HW246353   9.006   2.714   6.883  0.0275  0.7767 -0.5489
45859SOL     OW46354   6.533   9.385   7.036 -0.2948  0.1446  0.2515
45859SOL    HW146355   6.508   9.477   7.026  1.9375  0.5813 -2.2411
45859SOL    HW246356   6.477   9.337   6.974  0.8935  0.3454 -1.0214
45860SOL     OW46357   4.332  12.033   0.141 -0.0089 -0.0813  0.1113
45860SOL    HW146358   4.345  12.010   0.233  1.0014 -1.2694 -0.2906
45860SOL    HW246359   4.410  12.082   0.117  0.2433 -0.6990 -0.3708
45861SOL     OW46360  12.548   9.843   4.445  0.2390  0.0527 -0.0834
45861SOL    HW146361  12.587   9.929   4.460 -0.0825 -0.0257  1.3729
45861SOL    HW246362  12.530   9.810   4.533  1.3265 -1.9689 -0.5617
45862SOL     OW46363  11.264   3.535   1.905  0.3643 -0.0677  0.6567
45862SOL    HW146364  11.221   3.463   1.859  1.3076 -0.0605 -0.2724
45862SOL    HW246365  11.297   3.495   1.986 -1.0745 -0.1423  1.2362
45863SOL     OW46366  10.360   1.311  10.500  0.4332  0.2207  0.3464
45863SOL    HW146367  10.376   1.405  10.498  0.9434  0.1296 -0.3705
45863SOL    HW246368  10.398   1.279  10.419 -1.5268 -0.3271 -0.4254
45864SOL     OW46369   1.869   1.081   9.511 -0.0420 -0.2109  0.4958
45864SOL    HW146370   1.807   1.020   9.472 -0.8757  0.4759  0.7197
45864SOL    HW246371   1.824   1.166   9.511  0.3015  0.0050  2.0366
45865SOL     OW46372   5.731   0.536   7.877 -0.3109 -0.6641  0.0407
45865SOL    HW146373   5.763   0.524   7.967  0.7787  1.1519 -0.0479
45865SOL    HW246374   5.783   0.475   7.825  1.6198  0.7229  0.2080
45866SOL     OW46375   9.224   9.923   3.241 -0.0276 -0.4225 -0.1943
45866SOL    HW146376   9.311   9.906   3.278  0.2674 -1.3218 -1.2525
45866SOL    HW246377   9.241   9.977   3.164 -0.5168  0.3312  0.2159
45867SOL     OW46378   5.092  11.543   2.351  0.3811  0.3218  0.7754
45867SOL    HW146379   5.017  11.561   2.295 -1.1913  0.0023  2.6880
45867SOL    HW246380   5.131  11.629   2.368  1.0461  0.3976 -0.9422
45868SOL     OW46381   0.367   8.383   2.175  0.3850 -0.0437  0.2541
45868SOL    HW146382   0.436   8.327   2.140 -0.2069 -0.1514 -0.8096
45868SOL    HW246383   0.400   8.472   2.164  1.3599 -0.1521  2.0165
45869SOL     OW46384   5.391   5.526  12.380  0.4397 -0.3625 -0.1158
45869SOL    HW146385   5.453   5.595  12.406  0.6624 -0.5415 -0.1663
45869SOL    HW246386   5.305   5.561  12.404  0.5663 -0.1420  0.0239
45870SOL     OW46387   0.974  12.103  12.141 -0.8595  0.1858  0.3046
45870SOL    HW146388   1.029  12.075  12.068 -0.4957 -2.1419  1.3734
45870SOL    HW246389   1.032  12.157  12.195 -0.5783  0.3296 -0.1309
45871SOL     OW46390   5.915   9.965  10.416  0.1487  0.6971 -0.3421
45871SOL    HW146391   5.998  10.012  10.410  1.4058 -1.1166  1.3839
45871SOL    HW246392   5.931   9.882  10.370  0.6367 -1.2222  2.9374
45872SOL     OW46393  10.491   7.280   4.076  0.2515 -0.0839  0.5224
45872SOL    HW146394  10.485   7.371   4.107  0.7838  0.1400 -0.0099
45872SOL    HW246395  10.489   7.227   4.155  0.7486  0.4404  0.8958
45873SOL     OW46396   5.836   4.890   3.447 -0.7768 -0.5415 -0.2343
45873SOL    HW146397   5.770   4.836   3.403 -1.2510 -0.9906  0.9919
45873SOL    HW246398   5.839   4.856   3.537  0.3512  0.1838  0.0212
45874SOL     OW46399   0.749   0.680   0.386 -0.1593 -0.0220  0.6961
45874SOL    HW146400   0.698   0.613   0.339 -1.4144 -0.4833  2.6123
45874SOL    HW246401   0.715   0.763   0.354 -2.2033 -0.3127  1.8859
45875SOL     OW46402   0.166   9.017   8.101 -0.5062 -0.1015  0.0141
45875SOL    HW146403   0.212   8.972   8.030  0.6728 -0.9732  1.2633
45875SOL    HW246404   0.089   8.962   8.117 -0.4958 -0.1947 -0.2448
45876SOL     OW46405   0.824  10.862   5.183  0.0779  0.2087  0.0029
45876SOL    HW146406   0.875  10.890   5.107 -0.0723  1.1188  0.2260
45876SOL    HW246407   0.875  10.892   5.258  0.8208 -1.7134  0.3180
45877SOL     OW46408   2.155  10.332   8.465 -0.4788 -0.3648  0.1743
45877SOL    HW146409   2.121  10.343   8.377  0.5704 -2.3190 -0.5432
45877SOL    HW246410   2.235  10.386   8.467 -1.9978  2.0256  0.9712
45878SOL     OW46411   3.601   4.342   5.922  0.1416  0.2032 -0.1591
45878SOL    HW146412   3.517   4.307   5.948  0.1668 -0.1403 -0.5307
45878SOL    HW246413   3.629   4.287   5.849  0.2816  0.8536 -0.6059
45879SOL     OW46414  12.300   6.310   9.908 -0.6433  0.1885 -0.2750
45879SOL    HW146415  12.362   6.323   9.980  0.5769  0.2931 -1.3042
45879SOL    HW246416  12.249   6.391   9.906 -0.7902  0.1183  0.5745
45880SOL     OW46417   4.968   0.058   6.838  0.7781 -0.2135 -0.3927
45880SOL    HW146418   5.001   0.011   6.915  0.1129  0.8221  0.5400
45880SOL    HW246419   4.883   0.018   6.821  0.0291  0.8569  0.6464
45881SOL     OW46420   2.853   9.720  11.090 -0.2652 -0.2362 -0.1181
45881SOL    HW146421   2.909   9.776  11.143 -1.2162  0.1434  0.5304
45881SOL    HW246422   2.842   9.767  11.008  1.1084 -0.7629 -0.6277
45882SOL     OW46423   9.356   8.477   2.006  0.0214  0.4473 -0.6002
45882SOL    HW146424   9.330   8.530   2.081 -2.0869 -0.3194 -0.7065
45882SOL    HW246425   9.424   8.419   2.040 -1.1332 -0.1290  0.8444
45883SOL     OW46426   1.185  12.339  11.145  0.4853  0.6561  0.2309
45883SOL    HW146427   1.098  12.379  11.143  0.0352 -0.3120 -1.1160
45883SOL    HW246428   1.246  12.413  11.142 -0.2116  1.4408  2.8201
45884SOL     OW46429   0.400   2.848   8.987  0.2493  0.2876 -0.6216
45884SOL    HW146430   0.491   2.877   8.977  1.1566 -1.0580  2.5249
45884SOL    HW246431   0.387   2.785   8.916  2.3722 -0.7086 -0.2131
45885SOL     OW46432  10.218   2.110   2.431  0.2897  1.0583 -0.0356
45885SOL    HW146433  10.129   2.143   2.438  0.3556  0.9422  1.5088
45885SOL    HW246434  10.223   2.037   2.491  0.9856  0.0162 -1.3033
45886SOL     OW46435   1.655   9.115   9.619 -0.1543  0.0794  0.1491
45886SOL    HW146436   1.601   9.191   9.638 -2.0388 -0.9704 -0.7280
45886SOL    HW246437   1.708   9.103   9.697  0.3119  2.3583  0.2382
45887SOL     OW46438   0.595   3.511   4.658 -0.0154 -0.0818 -0.2340
45887SOL    HW146439   0.554   3.493   4.574  1.5185 -1.4158 -0.7459
45887SOL    HW246440   0.565   3.440   4.715  0.8020 -0.5424 -0.3565
45888SOL     OW46441   0.144   2.959   1.864  0.5234 -0.2140  0.1653
45888SOL    HW146442   0.238   2.957   1.880  0.6558  2.2258  0.1115
45888SOL    HW246443   0.118   3.049   1.886 -1.7590 -0.7600 -0.0296
45889SOL     OW46444   9.144   6.887   1.307 -0.1346  0.2709  0.0533
45889SOL    HW146445   9.208   6.912   1.374 -0.6477 -0.4277  0.8218
45889SOL    HW246446   9.194   6.890   1.225  0.0793  2.8272  0.1819
45890SOL     OW46447   6.186   0.571   6.946 -0.4975 -0.0676 -0.0668
45890SOL    HW146448   6.154   0.510   7.013 -0.8076 -1.7946 -1.7000
45890SOL    HW246449   6.124   0.644   6.949  0.0698  0.4043  2.1587
45891SOL     OW46450   0.596   1.564  10.319 -0.0368  0.8922 -0.0439
45891SOL    HW146451   0.602   1.512  10.400 -0.1854  2.9022  1.3265
45891SOL    HW246452   0.686   1.563  10.284  0.1063  0.2735  0.3284
45892SOL     OW46453   2.114  11.030   2.598  0.0431 -0.4349 -0.1281
45892SOL    HW146454   2.097  10.964   2.531 -1.1377  1.6326 -2.0458
45892SOL    HW246455   2.200  11.065   2.576  0.0398 -0.3729 -0.0416
45893SOL     OW46456  11.561   5.476  10.413  0.4067  0.3848  0.5662
45893SOL    HW146457  11.605   5.497  10.495  0.3841  2.5710  0.0819
45893SOL    HW246458  11.485   5.424  10.439 -1.3396  3.5273  2.3532
45894SOL     OW46459   6.807   1.190   2.168  0.2420  0.5259 -0.3713
45894SOL    HW146460   6.882   1.248   2.151 -0.3579  0.7933 -2.4775
45894SOL    HW246461   6.813   1.169   2.261  2.6188  0.9571 -0.3629
45895SOL     OW46462   5.721   9.092   7.135  0.2647 -0.0712 -1.2289
45895SOL    HW146463   5.775   9.150   7.188  1.0950 -1.2296 -0.7640
45895SOL    HW246464   5.768   9.084   7.052  1.7012 -2.2916 -0.2894
45896SOL     OW46465   4.999   0.377   8.251 -0.1296  0.1484  0.5932
45896SOL    HW146466   4.919   0.413   8.212  0.3499  0.0884 -0.4653
45896SOL    HW246467   5.070   0.428   8.212  0.3593  0.3444  1.6882
45897SOL     OW46468   9.764  10.867   8.720 -0.2078 -0.6910 -0.1348
45897SOL    HW146469   9.829  10.933   8.744 -0.6513 -0.1602 -0.3909
45897SOL    HW246470   9.749  10.819   8.801  0.0721 -0.4435  0.0687
45898SOL     OW46471   3.899  11.444   1.678  0.0908 -0.3675 -0.1610
45898SOL    HW146472   3.804  11.441   1.675 -0.0355  0.6789  1.6284
45898SOL    HW246473   3.921  11.529   1.639  0.3963 -1.0137 -1.4783
45899SOL     OW46474   3.556   6.868   7.422 -0.1674  0.0621  0.1591
45899SOL    HW146475   3.468   6.899   7.401 -0.0572  1.1726  1.1742
45899SOL    HW246476   3.614   6.939   7.394  0.1980  0.3129  1.4513
45900SOL     OW46477   9.218   5.544  11.922  0.1636  0.0841  0.3558
45900SOL    HW146478   9.193   5.636  11.922 -0.1503  0.0078 -0.5274
45900SOL    HW246479   9.314   5.546  11.911  0.1211  0.2984  0.0135
45901SOL     OW46480  12.489   9.792   0.168 -0.5163  0.1833 -0.1376
45901SOL    HW146481  12.582   9.773   0.152 -0.6051 -0.4330  0.0849
45901SOL    HW246482  12.453   9.809   0.081 -0.2615  0.1367 -0.2527
45902SOL     OW46483  10.973   7.907   5.085 -0.2068  0.2590  0.4549
45902SOL    HW146484  11.015   7.841   5.030 -0.0884  1.1850 -0.5865
45902SOL    HW246485  10.885   7.872   5.100  0.3409 -0.8651  1.2184
45903SOL     OW46486   6.142  12.026  10.408  0.1831 -0.4336 -0.0046
45903SOL    HW146487   6.200  11.952  10.428 -1.3189 -1.7811 -0.3538
45903SOL    HW246488   6.064  11.985  10.370 -0.9646  1.3078  0.3579
45904SOL     OW46489   8.195   0.082   6.590 -0.1275  0.3863  0.6698
45904SOL    HW146490   8.140   0.158   6.571 -3.2505 -2.1297 -1.4033
45904SOL    HW246491   8.268   0.088   6.527 -2.3406 -0.0749 -2.1509
45905SOL     OW46492   1.010   3.817   0.012 -0.7703 -0.4596  0.2491
45905SOL    HW146493   0.993   3.910   0.025 -1.7120 -0.2253 -2.1861
45905SOL    HW246494   1.087   3.814  -0.045 -2.4414 -0.9692 -2.1500
45906SOL     OW46495   7.434   5.945   0.598 -0.3785 -0.0828 -0.0281
45906SOL    HW146496   7.515   5.911   0.637  1.1794  1.3385 -1.8707
45906SOL    HW246497   7.429   6.035   0.628 -1.3543 -0.1789  0.1293
45907SOL     OW46498   4.828   9.108   5.633 -0.1101  0.6258  0.3020
45907SOL    HW146499   4.805   9.042   5.567  2.8431  0.1307 -0.3851
45907SOL    HW246500   4.790   9.189   5.599 -0.3053  0.0174 -1.0210
45908SOL     OW46501   0.297  10.062  11.012  0.2046 -0.1291 -0.9848
45908SOL    HW146502   0.350   9.994  11.053 -1.4228  1.0369  3.7511
45908SOL    HW246503   0.209  10.025  11.009 -0.1896  0.7808 -0.9782
45909SOL     OW46504  12.119   4.961   8.056  0.0489  0.1272  0.3505
45909SOL    HW146505  12.095   4.915   7.976  1.2844  0.6840 -0.3803
45909SOL    HW246506  12.202   5.005   8.034 -0.2780  1.3875  1.5097
45910SOL     OW46507   0.843   4.262   6.707 -0.0087 -0.0943 -0.3998
45910SOL    HW146508   0.859   4.352   6.737  0.6536  0.8064 -3.1300
45910SOL    HW246509   0.850   4.209   6.786 -2.6497  2.4270  1.7547
45911SOL     OW46510   2.258   3.926   4.948  0.1100  0.6208  0.9078
45911SOL    HW146511   2.339   3.923   4.896 -0.4967  1.7181 -0.1529
45911SOL    HW246512   2.206   3.853   4.916  0.7480 -0.2196  1.7427
45912SOL     OW46513   9.010   0.125  10.843 -0.1798 -0.6101 -0.4002
45912SOL    HW146514   9.067   0.109  10.918  0.0702 -0.5674 -0.5820
45912SOL    HW246515   9.049   0.075  10.772 -0.3735 -0.5881 -0.5230
45913SOL     OW46516  12.345   5.889  11.364  0.4059  0.0477  0.1404
45913SOL    HW146517  12.294   5.942  11.426  0.1783 -1.7942  1.6369
45913SOL    HW246518  12.290   5.813  11.347  0.7112  0.2579 -1.9535
45914SOL     OW46519   1.319  12.289   9.999 -0.5614  0.2707 -0.1273
45914SOL    HW146520   1.238  12.263   9.955 -2.1655  1.9716  1.6352
45914SOL    HW246521   1.320  12.238  10.080  1.4936 -1.5902 -1.2323
45915SOL     OW46522   9.667   6.188   4.962 -0.3905 -0.6632 -0.4042
45915SOL    HW146523   9.670   6.261   4.900 -2.0744 -0.1644  0.0387
45915SOL    HW246524   9.754   6.186   5.002 -0.1994  0.8547 -0.6981
45916SOL     OW46525  10.025  10.546   8.447 -0.3698  0.2033  0.0948
45916SOL    HW146526  10.012  10.451   8.457  0.6936  0.0155 -0.1930
45916SOL    HW246527  10.016  10.581   8.535  0.6305 -0.3616  0.4383
45917SOL     OW46528   1.418  12.508   5.872 -0.1588 -0.3989  0.0993
45917SOL    HW146529   1.444  12.507   5.779 -1.6701  0.8751 -0.3633
45917SOL    HW246530   1.323  12.501   5.870 -0.3837  1.5938  1.4619
45918SOL     OW46531   9.898   7.329   9.481  0.2269  0.1656 -0.2220
45918SOL    HW146532   9.936   7.313   9.395  1.7590 -0.1671  0.4897
45918SOL    HW246533   9.803   7.324   9.467  0.4793 -2.3665 -1.4009
45919SOL     OW46534   3.776   7.561   1.655 -0.5248  0.2482  0.5632
45919SOL    HW146535   3.729   7.587   1.577  1.0815 -0.2239 -0.6238
45919SOL    HW246536   3.708   7.537   1.718 -1.8839  1.8621 -0.2231
45920SOL     OW46537   7.317   5.799   3.547 -0.1704 -0.2186  0.6954
45920SOL    HW146538   7.240   5.852   3.565 -0.0902  0.6371 -1.2856
45920SOL    HW246539   7.286   5.708   3.550 -0.5453 -0.0771  2.9755
45921SOL     OW46540   6.990  10.290   3.536 -0.1294 -0.0618  0.2126
45921SOL    HW146541   6.924  10.352   3.564 -0.8283 -0.6245 -0.1418
45921SOL    HW246542   7.012  10.240   3.614 -0.9303 -0.5919  0.1125
45922SOL     OW46543   4.560   1.500   9.669 -0.3082  0.1020 -0.1939
45922SOL    HW146544   4.615   1.560   9.619 -0.8979  2.8440  2.1538
45922SOL    HW246545   4.481   1.489   9.616  1.3002 -1.7899 -2.3944
45923SOL     OW46546   0.908   0.972   8.208  0.3378 -0.1596  0.0969
45923SOL    HW146547   0.855   1.045   8.239 -1.4958 -1.2884 -0.2581
45923SOL    HW246548   0.979   0.965   8.272 -0.4970  0.7660  1.1599
45924SOL     OW46549   0.215  10.212   1.980 -0.2342 -0.3813  0.3543
45924SOL    HW146550   0.250  10.301   1.990  0.8213 -0.5544 -1.4202
45924SOL    HW246551   0.123  10.224   1.960  0.0116  0.3543 -0.3792
45925SOL     OW46552   2.280   7.585   2.102  0.4060  0.4603  0.0349
45925SOL    HW146553   2.205   7.595   2.043  0.1093 -0.3846  0.2429
45925SOL    HW246554   2.249   7.618   2.186  0.6145  1.0650 -0.1216
45926SOL     OW46555   6.758   8.749   5.234  0.1243 -0.1085  0.6243
45926SOL    HW146556   6.797   8.667   5.263 -1.0055 -0.4950  1.1111
45926SOL    HW246557   6.728   8.732   5.145  0.7715  0.0965  0.3604
45927SOL     OW46558   7.234   1.331   4.456 -0.2497 -0.6412 -0.6577
45927SOL    HW146559   7.198   1.414   4.486  0.8842 -0.2865 -0.2112
45927SOL    HW246560   7.165   1.267   4.473 -0.3404 -0.1350  1.0206
45928SOL     OW46561   6.277   0.907   5.073  0.3719 -0.1818 -0.3305
45928SOL    HW146562   6.337   0.915   5.147  0.0246 -2.9008  0.3924
45928SOL    HW246563   6.298   0.822   5.034 -2.9562 -1.3278  0.0282
45929SOL     OW46564   6.261   7.695  10.708 -0.0963 -1.2944  0.2081
45929SOL    HW146565   6.311   7.771  10.739 -0.2248 -1.1216 -0.0051
45929SOL    HW246566   6.295   7.678  10.621  1.0908 -2.5129  0.8715
45930SOL     OW46567   6.988   1.940   9.644  0.6825 -0.5614 -0.5966
45930SOL    HW146568   6.977   1.948   9.739 -0.4230 -0.4339 -0.7287
45930SOL    HW246569   7.036   1.858   9.633  1.8151 -0.0271  0.1219
45931SOL     OW46570  10.523  11.160   1.029  0.3630 -0.0085  0.1079
45931SOL    HW146571  10.602  11.136   1.078  2.4267  3.7961 -0.9681
45931SOL    HW246572  10.531  11.110   0.947  1.2135 -0.3116  0.3588
45932SOL     OW46573   2.064   3.640   8.782  0.4563 -0.3528 -0.1976
45932SOL    HW146574   1.970   3.652   8.767  0.2712 -1.5428 -0.0266
45932SOL    HW246575   2.095   3.728   8.804 -1.0133 -0.3031  1.9676
45933SOL     OW46576  11.596   8.359  10.049  0.1952 -0.0518 -0.1705
45933SOL    HW146577  11.631   8.369  10.138  1.5603 -0.3779 -0.6484
45933SOL    HW246578  11.555   8.273  10.049  1.1748 -0.5326 -0.1525
45934SOL     OW46579   2.324   9.471   2.245  0.2453 -0.4893  0.0943
45934SOL    HW146580   2.419   9.475   2.254  0.4264  1.9583 -1.7856
45934SOL    HW246581   2.308   9.388   2.199  1.7691  0.1476 -1.7348
45935SOL     OW46582  10.448   0.575   8.144 -0.6949  0.2143  0.2431
45935SOL    HW146583  10.455   0.491   8.098  1.4207 -0.9701  2.4664
45935SOL    HW246584  10.499   0.635   8.090  0.0257 -0.6193 -0.0387
45936SOL     OW46585   3.769   4.454  11.985  0.1008  0.2532  0.1947
45936SOL    HW146586   3.846   4.408  11.951 -0.2866 -0.3407  0.1037
45936SOL    HW246587   3.712   4.385  12.018 -1.0029  0.5552 -0.9740
45937SOL     OW46588   8.364   9.826   8.630 -0.6773 -0.0828  0.0762
45937SOL    HW146589   8.286   9.880   8.615  0.2271  2.9981  4.4366
45937SOL    HW246590   8.330   9.747   8.670 -1.7037  1.1124  1.7039
45938SOL     OW46591  12.442   9.073   8.350 -0.1822  0.1327  0.3223
45938SOL    HW146592  12.386   9.001   8.321 -0.1715  0.6476 -1.0591
45938SOL    HW246593  12.448   9.131   8.274  0.3224  1.2765  1.2012
45939SOL     OW46594   2.529   9.005  12.401 -0.3974  1.1844 -0.2308
45939SOL    HW146595   2.601   9.068  12.408  0.0534  0.7534 -0.9455
45939SOL    HW246596   2.463   9.050  12.349  0.8653  0.2660 -2.7721
45940SOL     OW46597   6.996  10.949   5.798  0.1595  0.1426  0.0275
45940SOL    HW146598   7.019  10.859   5.823  2.8453  0.7146 -0.0387
45940SOL    HW246599   6.950  10.939   5.715 -1.9108 -1.2767  1.2583
45941SOL     OW46600   4.060   2.931   9.080  0.0554 -0.4341 -0.1354
45941SOL    HW146601   3.988   2.890   9.127 -0.8649  0.7501 -0.4682
45941SOL    HW246602   4.138   2.881   9.106 -0.3527  0.2790  2.8426
45942SOL     OW46603   4.845   1.993  11.496 -0.1319 -0.8898  0.2499
45942SOL    HW146604   4.806   1.912  11.466  1.9935 -1.2929 -1.6820
45942SOL    HW246605   4.938   1.974  11.505  0.3468  1.1628  0.3205
45943SOL     OW46606   2.204  11.962   9.740 -0.5760 -0.6597 -0.2764
45943SOL    HW146607   2.159  12.004   9.667 -0.4669 -0.8680 -0.4646
45943SOL    HW246608   2.140  11.901   9.777 -0.1068 -1.7452 -1.2187
45944SOL     OW46609   5.364   7.120   2.836  0.0044 -0.2079 -0.1125
45944SOL    HW146610   5.274   7.130   2.803  0.4937 -0.8749 -1.7437
45944SOL    HW246611   5.357   7.056   2.906 -0.8971  0.3090  0.2884
45945SOL     OW46612  12.048   8.688   7.708  0.5562 -0.0178 -0.3123
45945SOL    HW146613  12.118   8.752   7.720  1.2692 -0.9089  0.4904
45945SOL    HW246614  12.072   8.615   7.765 -0.6270 -0.6837 -0.6180
45946SOL     OW46615   9.817   3.869   0.350  1.2917  0.2981 -0.2130
45946SOL    HW146616   9.865   3.900   0.273  1.8693  0.0231  0.0362
45946SOL    HW246617   9.883   3.830   0.406  0.7375 -0.3496  0.0040
45947SOL     OW46618  10.884  10.124  11.927  1.0506 -0.3422  0.1010
45947SOL    HW146619  10.819  10.055  11.940  1.1717 -0.6154 -0.6492
45947SOL    HW246620  10.957  10.080  11.882  1.4244  0.1247  0.2426
45948SOL     OW46621   1.677   1.542   7.781 -0.0844 -0.7671  0.0548
45948SOL    HW146622   1.747   1.544   7.716 -2.6561  0.9180 -2.9255
45948SOL    HW246623   1.636   1.456   7.771  0.2164 -0.9450  0.3128
45949SOL     OW46624  11.473   8.634  11.525  0.0851  0.5321  0.3804
45949SOL    HW146625  11.548   8.644  11.467  1.4853 -1.8715  1.6032
45949SOL    HW246626  11.466   8.717  11.572  3.5351  0.1251  1.8952
45950SOL     OW46627   0.980   9.819   8.811  0.3103  0.7412  0.7807
45950SOL    HW146628   0.980   9.761   8.887 -2.0531  0.8283  0.9168
45950SOL    HW246629   0.949   9.903   8.844 -0.5576  0.8356 -0.2092
45951SOL     OW46630   6.166   0.986  10.326 -0.7429 -0.2743 -0.3946
45951SOL    HW146631   6.174   1.024  10.413 -1.9642  1.3221 -0.9386
45951SOL    HW246632   6.243   0.929  10.318 -1.6215 -2.0822  2.4812
45952SOL     OW46633   1.849   8.763   2.575 -0.1620  0.2943 -0.1791
45952SOL    HW146634   1.922   8.799   2.524  1.4658 -0.9925  1.1123
45952SOL    HW246635   1.879   8.768   2.666 -1.8303 -0.0128  0.4226
45953SOL     OW46636  11.447   0.701   6.952  0.6136 -0.0107  0.8956
45953SOL    HW146637  11.368   0.681   6.902 -0.1909  0.7720  1.7857
45953SOL    HW246638  11.453   0.630   7.016  0.5129  0.0323  0.9539
45954SOL     OW46639   3.533  10.760   0.521  0.2456 -0.4509  0.0278
45954SOL    HW146640   3.591  10.825   0.481 -0.5783  1.8557  2.2898
45954SOL    HW246641   3.584  10.726   0.595 -0.2826 -0.3702  0.4356
45955SOL     OW46642   0.800   6.295   4.209  0.3498 -0.2954  0.5553
45955SOL    HW146643   0.758   6.215   4.239  2.1088 -1.1282  0.8963
45955SOL    HW246644   0.743   6.326   4.138  0.1060 -2.3425 -0.2214
45956SOL     OW46645   7.401   1.763   2.337  0.1974  0.1636 -0.6409
45956SOL    HW146646   7.348   1.815   2.277  2.7542  3.1485 -0.6393
45956SOL    HW246647   7.475   1.732   2.284 -0.9512 -3.2040 -0.4872
45957SOL     OW46648   6.265   3.881   7.068  0.0816  0.5645 -0.1761
45957SOL    HW146649   6.242   3.951   7.129  1.6729  1.4275 -0.5033
45957SOL    HW246650   6.329   3.828   7.116 -1.2252 -0.8019  0.1245
45958SOL     OW46651   2.005   7.274   0.348 -0.4757 -0.3937 -0.2071
45958SOL    HW146652   2.013   7.291   0.254  2.3046  0.3898  0.0791
45958SOL    HW246653   1.977   7.358   0.384  0.6119 -0.0462 -0.1386
45959SOL     OW46654   8.550   0.752   5.548 -0.0656 -0.6274 -0.0669
45959SOL    HW146655   8.537   0.658   5.538  3.1529 -0.9994 -2.6705
45959SOL    HW246656   8.626   0.759   5.607  0.2990  0.2605 -0.6223
45960SOL     OW46657   6.360  10.149   5.558 -0.1448  0.1220 -0.2349
45960SOL    HW146658   6.346  10.157   5.463  0.3718 -0.8809 -0.4115
45960SOL    HW246659   6.321  10.064   5.580  2.7688 -1.3208 -0.2052
45961SOL     OW46660   3.861  12.394   3.378  0.0200  0.4296 -0.2963
45961SOL    HW146661   3.895  12.479   3.407  1.9500 -0.9697  1.9274
45961SOL    HW246662   3.808  12.364   3.451 -0.7915 -0.2269 -1.1402
45962SOL     OW46663   6.170   9.495   7.002  0.4436  0.6210  0.7834
45962SOL    HW146664   6.154   9.401   7.007  0.8634  0.5544  0.9224
45962SOL    HW246665   6.133   9.531   7.082  0.2598  0.5794  0.7179
45963SOL     OW46666   7.657   9.749   2.355  0.0455 -0.0192  0.4815
45963SOL    HW146667   7.653   9.775   2.447  0.3702 -0.3880  0.6011
45963SOL    HW246668   7.642   9.655   2.356 -0.3087  0.0336  0.1231
45964SOL     OW46669   6.054   8.640   3.100  0.2009  0.0807 -0.6359
45964SOL    HW146670   6.030   8.729   3.074 -0.7438 -0.4456 -1.6721
45964SOL    HW246671   5.970   8.595   3.109  0.6655 -0.6508  0.0814
45965SOL     OW46672  12.234   4.570   4.483  0.0310  0.3900 -0.4062
45965SOL    HW146673  12.197   4.618   4.409 -1.1938 -0.9506 -0.6978
45965SOL    HW246674  12.158   4.542   4.534  0.8035  0.2554  0.7260
45966SOL     OW46675   2.823  11.955   2.741 -0.0216  0.5405  0.2360
45966SOL    HW146676   2.868  11.879   2.778  2.1262  2.1244  1.0218
45966SOL    HW246677   2.787  12.001   2.816 -0.6748  0.7249 -0.1756
45967SOL     OW46678   9.371   3.960   7.251 -0.1204 -0.3926 -0.4062
45967SOL    HW146679   9.318   3.891   7.292  0.2199 -0.4241 -0.0064
45967SOL    HW246680   9.374   3.937   7.159 -1.7235  0.2102 -0.6300
45968SOL     OW46681  11.105   0.567   7.240  0.7559  0.2505 -0.9943
45968SOL    HW146682  11.010   0.568   7.229  0.4270 -2.5582  0.6937
45968SOL    HW246683  11.120   0.602   7.327  1.2489  0.3417 -1.1090
45969SOL     OW46684   8.781  11.976   1.581  0.2236  0.6593 -0.0856
45969SOL    HW146685   8.746  11.899   1.536  2.0268 -0.9018  1.0646
45969SOL    HW246686   8.745  12.050   1.532 -3.1983 -0.7895 -0.0457
45970SOL     OW46687  11.482   9.982   1.063 -0.1426 -0.3162 -0.4287
45970SOL    HW146688  11.472   9.917   1.131 -0.5997  0.8090  0.6152
45970SOL    HW246689  11.577   9.994   1.056 -0.1062  0.0613  0.5268
45971SOL     OW46690   1.129   6.824   9.607 -0.0613 -0.2785 -0.2746
45971SOL    HW146691   1.199   6.889   9.612 -1.2328  1.0504 -0.3616
45971SOL    HW246692   1.093   6.834   9.518 -0.5518 -0.7302 -0.1385
45972SOL     OW46693   7.192   2.131   0.685  0.5761 -0.3044  0.0950
45972SOL    HW146694   7.239   2.156   0.605  0.7181  1.0064  0.5646
45972SOL    HW246695   7.100   2.137   0.661  0.6122 -1.4100 -0.3923
45973SOL     OW46696   7.896   1.437   2.711 -0.7196 -0.4326 -0.3391
45973SOL    HW146697   7.985   1.406   2.723 -0.8739 -0.3723  1.1090
45973SOL    HW246698   7.849   1.360   2.678 -0.6636 -1.2307  1.3356
45974SOL     OW46699  12.328   9.063   9.203  0.1940  0.0830  0.6496
45974SOL    HW146700  12.307   9.108   9.122  0.2746  1.0686  1.1562
45974SOL    HW246701  12.378   8.986   9.176  1.9645  1.4413 -0.1312
45975SOL     OW46702   1.370  11.525   1.587  0.2818 -0.2492  0.0813
45975SOL    HW146703   1.329  11.439   1.579  0.9229 -0.5989  0.5245
45975SOL    HW246704   1.463  11.509   1.574  0.1836  0.7513 -2.4902
45976SOL     OW46705   9.936   0.087   6.194  0.0623 -0.2528  0.0253
45976SOL    HW146706   9.967   0.015   6.249  0.0982 -0.3255 -0.0906
45976SOL    HW246707   9.978   0.165   6.230  0.2980 -0.3359 -0.0661
45977SOL     OW46708   9.377   1.805  10.367  0.4736 -0.0012  0.0641
45977SOL    HW146709   9.390   1.861  10.444 -0.1917  0.0643  0.1317
45977SOL    HW246710   9.459   1.813  10.318 -0.4094  2.8590 -1.1478
45978SOL     OW46711   9.118   9.096   0.026  0.0874 -0.4197  0.4943
45978SOL    HW146712   9.167   9.168  -0.014  1.2154 -1.4563 -0.0689
45978SOL    HW246713   9.088   9.131   0.110 -0.2858  1.0304 -0.2106
45979SOL     OW46714  12.575  10.201  10.399 -0.6481 -0.1918  0.0295
45979SOL    HW146715  12.616  10.161  10.476 -0.4055 -0.1551 -0.0819
45979SOL    HW246716  12.482  10.181  10.409 -0.3466 -2.2217 -0.8743
45980SOL     OW46717   5.297   5.955   1.594 -0.2928 -0.1229 -0.3592
45980SOL    HW146718   5.288   5.911   1.678 -0.8272 -0.2606 -0.4903
45980SOL    HW246719   5.230   6.023   1.595  0.0372  0.2096 -0.4645
45981SOL     OW46720   1.583   5.446   2.111 -0.2434  0.1232 -0.2381
45981SOL    HW146721   1.500   5.404   2.089 -0.4533  0.8210 -0.8556
45981SOL    HW246722   1.564   5.540   2.108  0.0415  0.2739  1.8105
45982SOL     OW46723   2.585  12.362  10.210 -0.6677 -0.3292 -0.2414
45982SOL    HW146724   2.608  12.351  10.118 -0.8112  0.8351 -0.4272
45982SOL    HW246725   2.640  12.434  10.241  0.3597 -1.5659  0.9566
45983SOL     OW46726   8.179  12.458   4.658  0.5397  0.0927  0.5018
45983SOL    HW146727   8.228  12.445   4.577  0.3072  0.4819  0.2941
45983SOL    HW246728   8.091  12.481   4.629  0.5351  0.5452  0.8642
45984SOL     OW46729   6.890   6.050  10.546 -0.2944 -0.3094  0.0518
45984SOL    HW146730   6.864   5.976  10.491 -0.2076  0.3483 -0.9072
45984SOL    HW246731   6.957   6.095  10.495 -1.2117  1.1283  0.0642
45985SOL     OW46732   4.127   9.011  11.311  0.0269  0.4530  0.2016
45985SOL    HW146733   4.061   9.032  11.244  0.4969  1.3963  0.0225
45985SOL    HW246734   4.137   8.916  11.306 -1.4974  0.2617  0.4027
45986SOL     OW46735  11.615  11.145   6.195 -0.0340  0.1950  0.1083
45986SOL    HW146736  11.669  11.212   6.153  3.8425 -0.6421  3.1414
45986SOL    HW246737  11.643  11.063   6.155 -0.1740 -0.1151  0.6363
45987SOL     OW46738   7.969  11.753   3.371  0.1231 -0.4513  0.1976
45987SOL    HW146739   8.023  11.695   3.317 -0.5033 -0.4722 -0.4039
45987SOL    HW246740   7.949  11.701   3.449  0.2592 -0.7427  0.0382
45988SOL     OW46741   5.362   0.888   5.320  0.9655  0.0553  0.4154
45988SOL    HW146742   5.324   0.816   5.270 -0.0530  0.5373  0.4847
45988SOL    HW246743   5.454   0.890   5.293  0.4326  0.3236 -1.4649
45989SOL     OW46744  10.356   2.627   0.867 -0.0242 -0.1453  0.4693
45989SOL    HW146745  10.280   2.644   0.923 -1.1143 -0.8295 -0.7439
45989SOL    HW246746  10.380   2.536   0.887 -0.7641 -0.5791 -0.5286
45990SOL     OW46747  10.164   4.108   0.676  0.2026 -0.4520 -0.1559
45990SOL    HW146748  10.086   4.105   0.730  0.0809 -2.7227 -0.3880
45990SOL    HW246749  10.218   4.035   0.707  2.0461  0.7712 -0.3072
45991SOL     OW46750   2.309  10.807   9.454  0.1780  0.3168 -0.2809
45991SOL    HW146751   2.264  10.751   9.518  0.4230 -0.6810 -0.9659
45991SOL    HW246752   2.316  10.892   9.498 -1.7974  0.3348  0.0944
45992SOL     OW46753   4.656   8.544   2.554  0.2766  0.3171  0.4739
45992SOL    HW146754   4.678   8.572   2.465 -1.2791  2.5859  0.7227
45992SOL    HW246755   4.579   8.488   2.544  0.8518 -0.4772  0.3346
45993SOL     OW46756   8.315   4.316   5.779 -0.1396 -0.5773 -0.1342
45993SOL    HW146757   8.234   4.281   5.816  0.2284  0.5102  1.8284
45993SOL    HW246758   8.286   4.370   5.705 -1.2232 -0.1878  0.5449
45994SOL     OW46759   9.094   3.719   5.651  0.0367  0.7641 -0.4846
45994SOL    HW146760   9.111   3.779   5.578 -1.6189  0.3102 -1.2796
45994SOL    HW246761   9.181   3.686   5.675  0.6058  0.7929 -2.3530
45995SOL     OW46762   3.746   0.032   4.461 -0.0637  0.4266 -0.0718
45995SOL    HW146763   3.719  -0.051   4.500  0.5997 -0.3154 -1.1206
45995SOL    HW246764   3.772   0.009   4.372 -1.1539  1.9953 -0.8406
45996SOL     OW46765   9.816   8.213   5.399  0.4194 -0.4461 -0.3250
45996SOL    HW146766   9.730   8.170   5.401 -1.2809  2.4423 -2.5384
45996SOL    HW246767   9.845   8.202   5.308  2.7838 -1.8806  0.5295
45997SOL     OW46768   0.859   7.443  11.505  0.2044 -0.3632 -0.0056
45997SOL    HW146769   0.800   7.450  11.430  1.7595 -2.2356 -1.5302
45997SOL    HW246770   0.879   7.533  11.528 -0.2762  0.2890 -1.9103
45998SOL     OW46771   2.616   2.784  11.176  0.1962  0.3846  0.2777
45998SOL    HW146772   2.560   2.825  11.242 -0.2237  1.0024 -0.4380
45998SOL    HW246773   2.571   2.703  11.153  0.6191 -0.1007  1.1227
45999SOL     OW46774   9.467   3.322   3.826  0.0789  0.7760 -0.1803
45999SOL    HW146775   9.420   3.404   3.816 -0.2406  0.6090 -0.0685
45999SOL    HW246776   9.502   3.325   3.915  0.2610  0.8886 -0.2543
46000SOL     OW46777  10.229   6.369  11.498 -0.6318 -0.0033  0.7751
46000SOL    HW146778  10.195   6.285  11.526 -1.2469  0.1160  0.4074
46000SOL    HW246779  10.224   6.425  11.575  1.9590 -0.9181  1.7037
46001SOL     OW46780  11.683   0.660   3.743  0.6683 -0.5276  0.4807
46001SOL    HW146781  11.591   0.650   3.764  0.1462  1.7470 -0.4663
46001SOL    HW246782  11.704   0.750   3.769  2.0104 -0.2504 -1.3892
46002SOL     OW46783   4.820   1.305  10.752  0.8146 -0.3452  0.0146
46002SOL    HW146784   4.876   1.284  10.827  0.6219 -0.3830  0.1523
46002SOL    HW246785   4.880   1.331  10.683  1.0849 -1.7006 -0.2855
46003SOL     OW46786  11.681   6.378   5.255 -0.2513  0.2779  0.3439
46003SOL    HW146787  11.711   6.409   5.169  1.7876 -0.1897  0.8482
46003SOL    HW246788  11.651   6.288   5.239  0.9531 -0.1264  0.2461
46004SOL     OW46789   2.422   2.335   5.762  0.4612 -0.3860  0.8325
46004SOL    HW146790   2.382   2.276   5.826  2.0025 -1.9666  0.4029
46004SOL    HW246791   2.439   2.280   5.686  3.4666  0.1446  1.0271
46005SOL     OW46792  10.552   1.067   6.480 -0.4114  0.2259 -0.1674
46005SOL    HW146793  10.617   1.004   6.508  0.6014  0.8427 -1.0636
46005SOL    HW246794  10.564   1.075   6.385  0.1936  2.4664  0.0280
46006SOL     OW46795   6.845   1.843   6.462  0.4416 -0.0691  0.0031
46006SOL    HW146796   6.913   1.888   6.511  0.7090 -1.6314  1.1700
46006SOL    HW246797   6.768   1.899   6.471  0.8518  0.3627  1.0687
46007SOL     OW46798  10.152   8.890   1.560  0.6652  0.1343 -0.0879
46007SOL    HW146799  10.213   8.915   1.491  1.0427  0.5249  0.3751
46007SOL    HW246800  10.089   8.963   1.564 -0.0534 -0.4278 -0.8004
46008SOL     OW46801   7.523  11.121   1.298 -0.3364 -0.1098 -0.0596
46008SOL    HW146802   7.527  11.027   1.283 -1.0682 -0.1136 -0.3118
46008SOL    HW246803   7.455  11.132   1.364 -0.1201  0.2275  0.1102
46009SOL     OW46804   9.042   9.246   1.280  0.2035  0.3283  0.2268
46009SOL    HW146805   9.105   9.192   1.233  0.6639  1.1833 -0.1688
46009SOL    HW246806   9.089   9.276   1.357 -0.5523 -1.0771  1.2850
46010SOL     OW46807   7.266   6.522   9.559 -0.1797 -1.0189  0.1172
46010SOL    HW146808   7.284   6.616   9.562  0.5261 -1.1721  1.4621
46010SOL    HW246809   7.201   6.507   9.628 -1.3497 -1.3357 -1.0061
46011SOL     OW46810   0.856   4.250   4.844  0.3074 -0.4447  0.1123
46011SOL    HW146811   0.782   4.245   4.784  0.1387 -0.4350  0.3168
46011SOL    HW246812   0.816   4.265   4.930  0.6020  0.8609  0.0404
46012SOL     OW46813   4.389  10.880   5.631  0.5567 -0.4442 -0.2357
46012SOL    HW146814   4.425  10.848   5.549 -1.9959  0.5850 -1.8600
46012SOL    HW246815   4.414  10.972   5.635  0.8570 -0.5397  0.2883
46013SOL     OW46816   6.764  11.735   2.426  0.1650  0.1841 -0.0687
46013SOL    HW146817   6.735  11.692   2.346  0.9239  0.4033 -0.4661
46013SOL    HW246818   6.709  11.813   2.434 -0.0596  0.0431 -0.2561
46014SOL     OW46819   6.143  10.254  11.920  0.3967  0.1952 -0.1196
46014SOL    HW146820   6.238  10.268  11.917  0.4939  0.4205  2.2049
46014SOL    HW246821   6.121  10.220  11.833  2.3219  1.7439 -1.2944
46015SOL     OW46822   1.787   3.265   8.050  0.7429 -0.2546 -0.4145
46015SOL    HW146823   1.763   3.191   8.104  0.3341  1.2824  1.6405
46015SOL    HW246824   1.709   3.284   7.999  0.1028  0.0788  0.6654
46016SOL     OW46825   4.131   5.119   0.846 -0.0815  0.1498  0.3840
46016SOL    HW146826   4.056   5.150   0.897  0.9736  1.0162  1.4759
46016SOL    HW246827   4.124   5.024   0.850 -1.0271  0.2135  0.5946
46017SOL     OW46828   4.472   4.753   1.918 -0.9604  0.1855  0.2858
46017SOL    HW146829   4.557   4.761   1.874  0.1664 -1.2488  2.0687
46017SOL    HW246830   4.437   4.669   1.886 -1.5069  0.5475 -0.0831
46018SOL     OW46831   9.623   3.243   8.362  0.4449  0.8660 -0.7707
46018SOL    HW146832   9.551   3.253   8.424  1.0106 -0.6748  0.1844
46018SOL    HW246833   9.599   3.300   8.288 -1.8263  0.2717 -0.5579
46019SOL     OW46834   0.159  12.069   0.689 -0.5275  0.2882 -0.0943
46019SOL    HW146835   0.123  12.125   0.620  2.5949  3.4148  0.5506
46019SOL    HW246836   0.085  12.055   0.748 -1.7768  2.9086 -0.8549
46020SOL     OW46837  12.321   9.379   4.149 -0.4166  0.0695  0.2475
46020SOL    HW146838  12.345   9.297   4.191 -0.8175  0.7049  1.7818
46020SOL    HW246839  12.398   9.435   4.160 -1.0394  0.7249  1.4899
46021SOL     OW46840   4.522  11.903   4.961  0.1513  0.3103  0.0712
46021SOL    HW146841   4.531  11.829   5.021  0.4760  2.2564  2.5823
46021SOL    HW246842   4.485  11.864   4.881 -0.0519 -2.4697  1.3793
46022SOL     OW46843   0.411   9.672   8.295 -0.3707 -0.0088  0.6309
46022SOL    HW146844   0.446   9.601   8.241 -0.8172 -1.0985  1.7234
46022SOL    HW246845   0.488   9.723   8.321 -0.0031 -0.3076  0.1385
46023SOL     OW46846   5.172   0.775   8.482 -0.3810  0.6447 -0.1005
46023SOL    HW146847   5.243   0.729   8.439 -0.0409  0.3402  0.7544
46023SOL    HW246848   5.109   0.707   8.506 -0.4982  0.7857 -0.0020
46024SOL     OW46849   2.908   0.662   5.725 -0.1608 -0.2881  0.2127
46024SOL    HW146850   2.873   0.601   5.660  1.0462 -0.4315 -0.3497
46024SOL    HW246851   2.926   0.608   5.802  1.1443 -0.7496 -0.3690
46025SOL     OW46852   6.786   8.191   1.485 -0.0228  0.1036 -0.8774
46025SOL    HW146853   6.736   8.272   1.495  0.5318  0.1125  3.2550
46025SOL    HW246854   6.721   8.122   1.498  0.2159  0.0246 -0.0382
46026SOL     OW46855   1.925   3.697   7.659  0.0814 -0.3050 -0.3365
46026SOL    HW146856   1.955   3.624   7.713  0.3206 -0.3803 -0.5669
46026SOL    HW246857   1.881   3.756   7.720  1.1412  0.0523  0.1038
46027SOL     OW46858  12.588   1.706  12.551 -0.6729 -0.1802 -0.0639
46027SOL    HW146859  12.563   1.787  12.506  1.4464 -0.2846 -1.5910
46027SOL    HW246860  12.630   1.735  12.632 -2.2302  0.1081  0.6735
46028SOL     OW46861   7.341   1.245   9.057  0.7640  0.1341  0.5225
46028SOL    HW146862   7.391   1.173   9.095 -0.3601 -0.3048  1.2168
46028SOL    HW246863   7.330   1.220   8.965  2.2426  0.4992  0.2236
46029SOL     OW46864  12.198   1.297   4.496 -0.3224 -0.0972  0.1376
46029SOL    HW146865  12.183   1.317   4.588  0.1640 -0.5247  0.3164
46029SOL    HW246866  12.153   1.214   4.481 -2.4566  1.1292 -0.6392
46030SOL     OW46867  10.604   9.483   0.383 -0.6382 -0.4075  0.0087
46030SOL    HW146868  10.622   9.534   0.304 -0.0657 -1.1516 -0.3634
46030SOL    HW246869  10.602   9.392   0.352  1.8144 -0.9421  1.1440
46031SOL     OW46870   1.494   0.088   4.209  0.5960 -0.2156 -0.5025
46031SOL    HW146871   1.540   0.168   4.233  1.0072 -0.0883 -1.6276
46031SOL    HW246872   1.538   0.019   4.259 -0.1188  0.3135  0.8920
46032SOL     OW46873   5.078   8.155  10.553  0.0560  0.4077  0.2795
46032SOL    HW146874   5.169   8.131  10.532  0.2288  1.5047 -0.2771
46032SOL    HW246875   5.044   8.193  10.473 -0.5703  0.9703  0.7993
46033SOL     OW46876  11.743   7.842   0.111 -0.3484 -0.1754 -0.4261
46033SOL    HW146877  11.750   7.795   0.194 -1.6383 -0.0132 -0.1952
46033SOL    HW246878  11.716   7.776   0.048 -4.9201  0.5054  0.4226
46034SOL     OW46879  11.384  11.076   6.631  0.1143 -0.2384 -0.1716
46034SOL    HW146880  11.399  10.985   6.657 -0.5622 -0.7199 -1.3815
46034SOL    HW246881  11.400  11.077   6.537  0.4027  0.9656 -0.1211
46035SOL     OW46882   5.572   5.883   0.400  0.3740  0.1322 -0.4791
46035SOL    HW146883   5.560   5.921   0.487 -2.4674 -0.2258 -0.6310
46035SOL    HW246884   5.637   5.814   0.413  0.2316  0.2813  1.3020
46036SOL     OW46885   8.779  11.534   5.446 -0.4218  0.1087 -0.1636
46036SOL    HW146886   8.874  11.534   5.430 -0.0179  2.0047  1.6778
46036SOL    HW246887   8.765  11.456   5.499 -0.0214 -0.5501 -1.0022
46037SOL     OW46888   9.571  12.017  11.668  0.0321 -0.2794  0.3225
46037SOL    HW146889   9.650  12.047  11.714  0.3079 -1.0757  0.3866
46037SOL    HW246890   9.590  12.033  11.575  0.0098  0.1132  0.3848
46038SOL     OW46891   9.478   6.269   9.204  0.3235  0.0544  0.3975
46038SOL    HW146892   9.408   6.329   9.233  0.2250 -1.3453  3.4907
46038SOL    HW246893   9.485   6.206   9.276  3.0163 -1.3904 -1.0295
46039SOL     OW46894   2.870  12.289   0.597 -0.9134  0.0479  0.2969
46039SOL    HW146895   2.959  12.271   0.625 -0.8375  0.2575  0.1963
46039SOL    HW246896   2.832  12.339   0.669 -0.6395  0.8047 -0.0701
46040SOL     OW46897   1.087   9.546   6.495 -0.3333  0.0543 -0.0776
46040SOL    HW146898   1.056   9.587   6.575 -2.4945 -0.7762 -0.4130
46040SOL    HW246899   1.013   9.550   6.435  1.2002  0.5947 -2.0473
46041SOL     OW46900   1.029   3.654   1.435  0.0363 -1.0036 -0.6235
46041SOL    HW146901   0.944   3.695   1.447 -0.5882 -2.4308  0.1509
46041SOL    HW246902   1.091   3.727   1.432 -0.7729  0.0106  2.6484
46042SOL     OW46903   9.493   1.881   2.683 -0.3204 -0.5230 -0.0727
46042SOL    HW146904   9.575   1.860   2.639  0.1955  0.1486  0.5583
46042SOL    HW246905   9.499   1.839   2.768 -0.9814 -1.1399 -0.3173
46043SOL     OW46906   0.646   0.550   9.976 -0.1688  0.6337  0.0291
46043SOL    HW146907   0.716   0.531   9.915  2.0926  0.2188  2.5495
46043SOL    HW246908   0.659   0.643   9.999  0.2180  0.2988  1.2326
46044SOL     OW46909   1.970   8.777   6.668  0.2912 -0.1462  0.8200
46044SOL    HW146910   1.903   8.830   6.711 -0.9048 -0.4842 -0.5316
46044SOL    HW246911   1.938   8.687   6.677 -0.5849 -0.1571 -1.6139
46045SOL     OW46912  11.561   8.916   2.321  0.4429 -0.2947 -0.5425
46045SOL    HW146913  11.527   8.963   2.245 -2.0907 -2.4568 -0.9018
46045SOL    HW246914  11.507   8.945   2.394  0.5109 -0.8204 -0.2788
46046SOL     OW46915   6.279   8.564   3.659  0.2550 -0.1056  0.0701
46046SOL    HW146916   6.318   8.553   3.746 -1.7255  0.7771  1.1306
46046SOL    HW246917   6.342   8.617   3.611  0.2744  1.5774  1.8346
46047SOL     OW46918   3.687  11.643  11.870 -0.1699  0.2293  0.0312
46047SOL    HW146919   3.660  11.564  11.821 -1.4784  0.9856 -0.5332
46047SOL    HW246920   3.747  11.689  11.811  2.4856 -1.4185  1.2581
46048SOL     OW46921   4.808   5.111   1.269  0.1020 -0.5739 -0.9000
46048SOL    HW146922   4.812   5.191   1.320 -1.6167 -0.4890 -0.8454
46048SOL    HW246923   4.778   5.044   1.331  0.0286 -0.9280 -1.3104
46049SOL     OW46924   4.507   4.930  12.237 -0.0184 -0.4730 -0.0146
46049SOL    HW146925   4.579   4.907  12.178 -0.0658 -0.8092  0.0565
46049SOL    HW246926   4.468   4.846  12.261  1.1817 -0.4895  2.0226
46050SOL     OW46927  12.571   1.340   2.370  0.0016  0.0120  0.0682
46050SOL    HW146928  12.535   1.254   2.349  1.7178 -0.8787  0.5594
46050SOL    HW246929  12.573   1.342   2.466  0.7626  0.2243  0.0570
46051SOL     OW46930   0.995   7.930  10.083  0.1233 -0.3729 -0.1965
46051SOL    HW146931   0.913   7.882  10.076 -0.5817  0.6201  0.8523
46051SOL    HW246932   1.056   7.883  10.025 -0.6004 -2.3205  0.5513
46052SOL     OW46933  10.489   0.307   0.920 -0.4723 -0.0273  0.1126
46052SOL    HW146934  10.415   0.341   0.969 -0.0420 -1.0201  1.5112
46052SOL    HW246935  10.558   0.296   0.985  1.1551  1.4721 -1.2497
46053SOL     OW46936   3.869   8.735  10.159 -0.2617 -0.2990 -0.5001
46053SOL    HW146937   3.863   8.650  10.114  0.7063 -0.0489 -1.1471
46053SOL    HW246938   3.960   8.762  10.146 -0.9050  1.5110 -1.5052
46054SOL     OW46939   1.521   7.825  12.089 -0.1641  0.8497  0.1207
46054SOL    HW146940   1.589   7.759  12.106 -0.7379 -0.0551 -0.9614
46054SOL    HW246941   1.565   7.891  12.036  0.0700  0.6576  0.0745
46055SOL     OW46942   0.426   6.878  12.382 -0.3013 -0.1188  0.1031
46055SOL    HW146943   0.489   6.845  12.318  1.5428  0.0959  1.7203
46055SOL    HW246944   0.357   6.919  12.329  0.3338 -1.3421 -1.7587
46056SOL     OW46945   3.214   7.749   1.669 -0.3604 -0.0676 -0.4437
46056SOL    HW146946   3.205   7.791   1.755  0.2080 -0.9253  0.0405
46056SOL    HW246947   3.124   7.730   1.643 -0.4994 -0.5670  0.3534
46057SOL     OW46948   5.240   8.211  11.251  0.5456 -0.3277  0.6076
46057SOL    HW146949   5.218   8.137  11.306 -0.0422 -0.8539 -0.3015
46057SOL    HW246950   5.163   8.269  11.257 -0.2222 -1.1279 -0.8449
46058SOL     OW46951  10.057   0.602   1.279 -0.1010 -0.9944  0.1225
46058SOL    HW146952  10.046   0.565   1.366 -0.3459  1.0339  1.0078
46058SOL    HW246953   9.983   0.568   1.228 -0.2305 -1.7993  0.8304
46059SOL     OW46954  10.027   4.509   1.980 -0.0979 -0.1614  0.6156
46059SOL    HW146955   9.945   4.528   1.934 -0.4113  1.1046  1.6743
46059SOL    HW246956  10.001   4.447   2.049 -0.3520  0.9651  1.5468
46060SOL     OW46957   2.445   4.521   1.744  0.2249 -0.1048  0.6323
46060SOL    HW146958   2.497   4.473   1.809  2.5013  0.3288 -0.7459
46060SOL    HW246959   2.430   4.606   1.784 -0.2259 -0.5414  1.4154
46061SOL     OW46960   3.415  10.552   9.752  0.5727 -0.0152  0.3395
46061SOL    HW146961   3.406  10.618   9.683 -4.1773  0.9643  1.4799
46061SOL    HW246962   3.418  10.604   9.833 -1.7692 -1.0425  1.1713
46062SOL     OW46963   3.080   6.063  12.563  0.0692  0.4355 -0.0671
46062SOL    HW146964   3.033   6.030  12.640  0.5682  3.5025  1.7271
46062SOL    HW246965   3.172   6.039  12.579 -0.2230 -1.9881 -1.5575
46063SOL     OW46966   2.482   7.122  11.790  0.2279 -0.3537  0.2118
46063SOL    HW146967   2.490   7.076  11.707 -1.5044  0.3597 -0.4003
46063SOL    HW246968   2.395   7.162  11.788  0.7215  0.9497  1.7220
46064SOL     OW46969   6.481   3.080   0.149 -0.0105  0.2531 -0.1721
46064SOL    HW146970   6.441   3.156   0.189  1.3791  1.0065 -0.1454
46064SOL    HW246971   6.467   3.092   0.055 -0.8587 -0.1024 -0.0993
46065SOL     OW46972   4.638   5.144  12.423  0.3893  0.2188  0.1729
46065SOL    HW146973   4.685   5.222  12.395 -1.0500  0.0359 -3.3155
46065SOL    HW246974   4.610   5.102  12.341 -2.2336 -1.8601  1.9463
46066SOL     OW46975   3.485   7.551   0.661  1.0561  0.1058 -0.1295
46066SOL    HW146976   3.397   7.529   0.631  1.1847  0.1193 -0.5314
46066SOL    HW246977   3.479   7.643   0.687  1.2287  0.4600 -1.2829
46067SOL     OW46978  11.972   7.708  12.241  0.3521 -0.2592 -0.3765
46067SOL    HW146979  11.899   7.770  12.240  0.6693  0.1297 -1.8036
46067SOL    HW246980  12.043   7.754  12.197  0.5577 -1.6807 -1.5951
46068SOL     OW46981   3.159  12.048   6.646 -0.0836 -0.4296 -0.1769
46068SOL    HW146982   3.067  12.076   6.640 -0.4894 -1.0741  2.1031
46068SOL    HW246983   3.205  12.105   6.585 -1.6450  1.6582  0.4662
46069SOL     OW46984   0.412  11.089  10.970 -0.5707 -0.8039  0.2475
46069SOL    HW146985   0.489  11.145  10.971 -0.2119 -1.2980  0.8300
46069SOL    HW246986   0.363  11.117  10.893 -0.1136 -0.0803  0.2122
46070SOL     OW46987   8.408   1.717  10.893  0.4931 -0.1060 -0.4715
46070SOL    HW146988   8.421   1.726  10.799 -0.1304 -0.9050 -0.6459
46070SOL    HW246989   8.459   1.789  10.931 -0.1234  0.8978 -1.4737
46071SOL     OW46990   5.171  12.377   2.947 -0.0339  0.8284  0.0181
46071SOL    HW146991   5.191  12.341   2.861 -3.6100  1.6839 -1.3504
46071SOL    HW246992   5.171  12.472   2.933  2.1499  1.1984  1.7954
46072SOL     OW46993   0.710  10.962   8.713  0.1145  0.1108 -0.9067
46072SOL    HW146994   0.747  10.946   8.626 -2.6692  0.0108 -2.1692
46072SOL    HW246995   0.691  10.874   8.748 -1.3531  0.1871 -1.4445
46073SOL     OW46996  11.310   7.095   4.854 -0.0182 -0.0903 -0.7183
46073SOL    HW146997  11.383   7.071   4.795  0.4384  0.3128 -0.3234
46073SOL    HW246998  11.246   7.136   4.796 -0.4156 -1.4074 -1.2603
46074SOL     OW46999  11.885  11.988   4.558 -0.3681  0.0431  0.4484
46074SOL    HW147000  11.814  11.931   4.588 -0.6645  0.5455  0.7227
46074SOL    HW247001  11.957  11.928   4.537 -2.0111 -0.9152 -3.4736
46075SOL     OW47002   3.421  11.226   9.457 -0.3848  0.1648  0.3469
46075SOL    HW147003   3.342  11.191   9.415 -0.0525  0.4376 -0.5280
46075SOL    HW247004   3.388  11.276   9.532 -1.0348  0.1394  0.0885
46076SOL     OW47005   5.639   1.034   2.561 -0.0498 -1.4071 -1.3551
46076SOL    HW147006   5.635   1.114   2.509 -1.2269  1.5812  2.7821
46076SOL    HW247007   5.730   1.027   2.588 -0.2823 -0.3250 -0.2389
46077SOL     OW47008   6.217   4.186   8.506  0.1612 -0.1127  0.0408
46077SOL    HW147009   6.269   4.250   8.555  0.8501 -0.4084 -0.2802
46077SOL    HW247010   6.131   4.188   8.547  0.5249  0.1439  0.8163
46078SOL     OW47011   5.432   7.750   1.535  0.1677 -0.6589  0.0063
46078SOL    HW147012   5.429   7.662   1.499 -1.3282 -0.4486 -0.4673
46078SOL    HW247013   5.521   7.761   1.566  0.1418 -2.6443  0.8669
46079SOL     OW47014   9.880   2.834   5.699  0.8536  0.2750  0.2007
46079SOL    HW147015   9.882   2.740   5.679  2.1582  0.2980  0.1394
46079SOL    HW247016   9.892   2.838   5.794  0.2775  0.3761  0.2760
46080SOL     OW47017   1.291   8.565  11.907 -0.8436  0.0853 -0.5309
46080SOL    HW147018   1.292   8.562  12.003 -0.5478 -0.8649 -0.5595
46080SOL    HW247019   1.262   8.478  11.880 -0.7256  0.2812 -1.3131
46081SOL     OW47020  11.689   1.888   5.934 -0.1023  0.1957  0.4638
46081SOL    HW147021  11.768   1.908   5.983  2.4596 -2.3211 -2.2295
46081SOL    HW247022  11.683   1.793   5.936 -1.3139  0.1477 -1.9180
46082SOL     OW47023   7.951  11.689   2.273  0.8318  0.0164  0.2570
46082SOL    HW147024   7.894  11.756   2.311  0.2055 -1.6819  2.5795
46082SOL    HW247025   7.895  11.641   2.212 -0.2293 -1.3787  2.2167
46083SOL     OW47026  10.456   0.826   6.331  0.6226 -0.0957 -0.4348
46083SOL    HW147027  10.477   0.906   6.282  1.2861 -0.0896 -0.1543
46083SOL    HW247028  10.507   0.833   6.412 -2.2822  1.0938  1.4826
46084SOL     OW47029  10.254   9.976   3.101 -0.4934 -0.2817 -0.0804
46084SOL    HW147030  10.234   9.953   3.011 -1.1175 -0.7312  0.1599
46084SOL    HW247031  10.323  10.041   3.095  0.0542 -0.9197 -0.8491
46085SOL     OW47032   6.347  10.189   6.543  0.5461 -0.0246 -0.6110
46085SOL    HW147033   6.390  10.191   6.458 -1.3786  1.7998 -1.6415
46085SOL    HW247034   6.295  10.269   6.546  0.6093  0.0322  2.3573
46086SOL     OW47035   9.460   6.913  11.294 -0.1409  0.0806  0.4422
46086SOL    HW147036   9.471   6.980  11.361  3.2550 -0.4220  0.5766
46086SOL    HW247037   9.472   6.960  11.211 -2.1124  0.3078  0.2352
46087SOL     OW47038   7.299   7.314   9.876 -0.2888 -0.5701 -0.0555
46087SOL    HW147039   7.305   7.219   9.869  1.5961 -0.5321  0.5263
46087SOL    HW247040   7.354   7.336   9.951  0.5292  1.0855 -1.0819
46088SOL     OW47041   2.861   6.948   8.748  0.7241 -0.0794  0.0758
46088SOL    HW147042   2.837   6.872   8.696 -1.5306  0.0642  0.8181
46088SOL    HW247043   2.882   7.016   8.684  2.0685 -1.0809 -0.5852
46089SOL     OW47044   4.103   5.408   1.098  0.0919  0.2325  0.1086
46089SOL    HW147045   4.189   5.402   1.056 -0.1193 -0.1303 -0.2776
46089SOL    HW247046   4.089   5.321   1.135 -0.0035  0.3642  0.3832
46090SOL     OW47047  10.681   3.760  12.610 -0.1765  0.0802  0.4521
46090SOL    HW147048  10.622   3.696  12.569 -2.0670  2.5887 -1.0184
46090SOL    HW247049  10.642   3.777  12.696  0.8064 -1.2637  1.2073
46091SOL     OW47050   6.252   9.947   3.918  0.3507 -0.0749  0.0652
46091SOL    HW147051   6.289   9.954   3.830 -0.2110 -0.7046 -0.2293
46091SOL    HW247052   6.260   9.854   3.940 -0.9295 -0.1979  0.0464
46092SOL     OW47053   0.370  12.262  11.327  0.0795  0.1866 -0.3053
46092SOL    HW147054   0.386  12.232  11.417 -1.8271 -0.4274 -0.1227
46092SOL    HW247055   0.381  12.357  11.331  1.7574  0.0017  0.1503
46093SOL     OW47056   9.117   5.772   9.111 -0.1174  0.5923 -0.2283
46093SOL    HW147057   9.037   5.816   9.140 -0.1789  0.7965 -0.7057
46093SOL    HW247058   9.107   5.761   9.017  0.3144  0.4031 -0.2579
46094SOL     OW47059   1.815   8.198   2.182 -0.6355  0.5188 -0.3639
46094SOL    HW147060   1.851   8.163   2.101  1.0027  0.5290  0.3302
46094SOL    HW247061   1.751   8.263   2.154  0.6841  1.3120 -1.6558
46095SOL     OW47062  11.243   2.272   0.804  0.4976 -0.3014  0.3219
46095SOL    HW147063  11.240   2.346   0.744 -0.7900 -1.1268 -0.6844
46095SOL    HW247064  11.174   2.290   0.868  0.5234 -0.3901  0.3750
46096SOL     OW47065   7.628   3.313   7.626  0.6510  0.2071  0.0950
46096SOL    HW147066   7.620   3.279   7.536 -0.1543 -0.1117  0.2807
46096SOL    HW247067   7.670   3.242   7.674 -0.7033 -0.4176  0.4010
46097SOL     OW47068   2.425   3.150   2.361  0.6179  0.2106 -0.7678
46097SOL    HW147069   2.367   3.221   2.388 -0.8069 -0.3423 -2.1648
46097SOL    HW247070   2.475   3.128   2.440  0.2076  1.9105  0.0112
46098SOL     OW47071   4.385   4.563   8.253  0.0281  0.2052 -0.0026
46098SOL    HW147072   4.352   4.617   8.325 -0.5058 -1.1306  0.7960
46098SOL    HW247073   4.312   4.556   8.192 -0.3776 -0.7008  0.5596
46099SOL     OW47074  11.432   1.776  11.892 -0.3592  0.0820  0.4941
46099SOL    HW147075  11.524   1.799  11.877 -0.1324  0.0288  1.7624
46099SOL    HW247076  11.416   1.703  11.832 -0.7188  2.4930 -2.6142
46100SOL     OW47077   9.840   7.112  11.938 -0.3895  0.4295 -0.0862
46100SOL    HW147078   9.816   7.020  11.925 -0.5932  0.6422 -1.3405
46100SOL    HW247079   9.756   7.156  11.956 -0.0064 -0.0358  3.4178
46101SOL     OW47080   9.016   8.788   1.985  0.3481 -0.4375 -0.0549
46101SOL    HW147081   9.085   8.774   1.920 -0.5637  1.0026 -1.4249
46101SOL    HW247082   9.032   8.876   2.019  0.6631 -1.0763  1.5397
46102SOL     OW47083   3.141   9.532   2.967 -0.0289  0.3542 -0.3463
46102SOL    HW147084   3.080   9.481   3.021  0.8121  0.4964  0.7777
46102SOL    HW247085   3.227   9.515   3.006  0.6092  0.5259 -1.6117
46103SOL     OW47086   3.678  11.940  12.350 -0.1780 -0.3600 -0.2031
46103SOL    HW147087   3.760  11.986  12.367  0.4666 -2.2051  2.1417
46103SOL    HW247088   3.672  11.938  12.254  1.4452  1.5641 -0.4229
46104SOL     OW47089   5.245   2.095   4.858 -0.7703  0.0225  0.2031
46104SOL    HW147090   5.171   2.119   4.801 -0.4009  0.9842  0.1107
46104SOL    HW247091   5.204   2.064   4.938 -1.2995  1.3999  0.5032
46105SOL     OW47092   1.860   3.823  11.674 -0.1790 -0.1184 -0.0100
46105SOL    HW147093   1.867   3.737  11.715  0.8083  0.7317  1.7229
46105SOL    HW247094   1.772   3.853  11.696 -0.4145 -0.5645 -0.3519
46106SOL     OW47095   4.349   5.872   9.209  0.3665 -0.0444  0.1534
46106SOL    HW147096   4.277   5.820   9.245  0.0126  0.9755  0.9600
46106SOL    HW247097   4.369   5.936   9.277  3.2804 -1.3950  0.7598
46107SOL     OW47098  12.278   2.792   5.850  0.6430  0.0658 -0.2487
46107SOL    HW147099  12.193   2.789   5.893  1.1260 -0.0561  0.7237
46107SOL    HW247100  12.333   2.843   5.909  0.7473  1.8990 -1.7964
46108SOL     OW47101  10.264  11.550   0.872  0.2783  0.0527  0.0585
46108SOL    HW147102  10.266  11.455   0.882 -2.5746  0.0198  1.6159
46108SOL    HW247103  10.298  11.584   0.954  0.2362  0.3469 -0.0433
46109SOL     OW47104   9.048   5.417   7.630  0.2898  0.3029  0.2442
46109SOL    HW147105   8.956   5.396   7.616  0.1701 -0.4754  1.9599
46109SOL    HW247106   9.051   5.512   7.638  0.1567  0.6877 -3.0264
46110SOL     OW47107   7.178   7.320   7.562 -0.2611  0.5786 -0.0361
46110SOL    HW147108   7.263   7.311   7.520 -0.9837  0.1748 -1.4662
46110SOL    HW247109   7.199   7.347   7.652  1.4770 -2.0329  0.4544
46111SOL     OW47110   8.700   5.388   0.889 -0.1536  0.5545  0.4475
46111SOL    HW147111   8.785   5.428   0.870  0.0027 -0.6067 -1.6576
46111SOL    HW247112   8.719   5.294   0.894 -1.2234  0.3338  0.5462
46112SOL     OW47113   1.036   0.296   3.035  0.2500 -0.1195  0.1513
46112SOL    HW147114   1.004   0.285   3.125  0.5591 -0.7555  0.1864
46112SOL    HW247115   1.067   0.387   3.032  0.9611 -0.3278  0.9163
46113SOL     OW47116  11.771   9.291   8.145 -0.0825 -0.0574 -0.4427
46113SOL    HW147117  11.860   9.256   8.133 -0.3445 -0.3923 -1.4861
46113SOL    HW247118  11.739   9.249   8.224 -0.3089 -2.0649 -1.5408
46114SOL     OW47119   5.383   0.572   2.495 -0.0275 -0.2592 -0.1767
46114SOL    HW147120   5.360   0.479   2.485  1.0569 -1.3724  5.0928
46114SOL    HW247121   5.478   0.574   2.492 -0.0281  0.6648  0.0936
46115SOL     OW47122   7.999   4.682   8.764 -0.2026 -0.5524  0.0216
46115SOL    HW147123   8.057   4.728   8.703 -0.2651  0.2121  0.5140
46115SOL    HW247124   8.056   4.624   8.813  0.1967  0.3284  0.6302
46116SOL     OW47125  12.426   0.075  10.809  0.2116 -0.0138 -0.0509
46116SOL    HW147126  12.503   0.022  10.831  0.0938 -0.2846 -0.2796
46116SOL    HW247127  12.452   0.164  10.829  0.8318 -0.0229 -0.7473
46117SOL     OW47128   9.538   0.563  10.785  0.1647 -0.0942  0.2248
46117SOL    HW147129   9.603   0.508  10.742 -0.3422 -0.1667 -0.4625
46117SOL    HW247130   9.576   0.651  10.783 -0.6060  0.2578 -2.0495
46118SOL     OW47131   4.105  10.557   9.437 -0.3328 -0.6360  0.2659
46118SOL    HW147132   4.072  10.630   9.490 -1.4561 -0.1033 -1.1104
46118SOL    HW247133   4.177  10.596   9.387 -1.9417  0.0001 -1.6409
46119SOL     OW47134   6.746  11.794   3.056  0.1079 -0.2409  0.4536
46119SOL    HW147135   6.675  11.819   3.116  0.0175 -0.4380  0.4316
46119SOL    HW247136   6.818  11.853   3.078 -0.4634  0.7835 -0.3437
46120SOL     OW47137  10.616   2.454  11.595 -0.9545 -0.0372 -0.1971
46120SOL    HW147138  10.547   2.465  11.661 -2.3096 -1.0598 -1.3684
46120SOL    HW247139  10.568   2.445  11.512  0.6532  0.2202 -1.1861
46121SOL     OW47140   9.871   6.445   7.377  0.5502 -0.4466 -0.7465
46121SOL    HW147141   9.826   6.526   7.351  0.4526 -0.7799 -1.6552
46121SOL    HW247142   9.964   6.470   7.379  0.3359  0.4657  1.9664
46122SOL     OW47143   5.127  12.541   1.329  0.4306  0.4367 -0.0929
46122SOL    HW147144   5.133  12.529   1.424 -1.0612 -1.3564 -0.1715
46122SOL    HW247145   5.170  12.625   1.313 -0.7190  1.5969  2.3534
46123SOL     OW47146  11.660   2.402   9.556  0.0408 -0.0112  0.3655
46123SOL    HW147147  11.700   2.470   9.610 -0.3422  4.3027 -4.1709
46123SOL    HW247148  11.735   2.350   9.525  1.0052  1.6140 -0.1226
46124SOL     OW47149   0.898   6.368   1.447 -0.3178 -0.1428 -0.7887
46124SOL    HW147150   0.918   6.343   1.538  0.6224  0.2202 -0.8876
46124SOL    HW247151   0.961   6.319   1.395 -0.5965 -0.0383 -1.2287
46125SOL     OW47152   7.890   0.905  11.767  0.5687  0.3597  0.3016
46125SOL    HW147153   7.888   0.908  11.863  2.2337  0.5858  0.3603
46125SOL    HW247154   7.982   0.923  11.745  0.3580 -0.4255 -1.3111
46126SOL     OW47155   7.744   9.332  11.117 -0.2756  0.3864  0.6854
46126SOL    HW147156   7.666   9.387  11.127 -0.7344 -0.0865 -0.1838
46126SOL    HW247157   7.775   9.319  11.207 -1.0403  0.8052  1.0242
46127SOL     OW47158   0.465   4.138   9.845  0.9237  0.6454  0.4729
46127SOL    HW147159   0.538   4.091   9.806 -0.1264  0.2100 -1.0585
46127SOL    HW247160   0.400   4.144   9.775  0.2488  2.7042  1.1835
46128SOL     OW47161   7.716   7.884  11.944  0.0740  0.6966  0.0482
46128SOL    HW147162   7.775   7.890  12.020 -0.6573  1.7381  0.5557
46128SOL    HW247163   7.713   7.973  11.909  0.7879  0.1259 -1.5215
46129SOL     OW47164   8.362   2.829   9.917  0.6043  0.0224  0.4152
46129SOL    HW147165   8.302   2.871   9.978 -0.9191  2.9451 -2.7548
46129SOL    HW247166   8.306   2.775   9.861  1.5663 -0.5790 -0.0021
46130SOL     OW47167  11.796   1.137   0.321  0.2624  0.2473 -0.1454
46130SOL    HW147168  11.838   1.218   0.351 -0.5852  0.8229 -0.4635
46130SOL    HW247169  11.862   1.069   0.335 -0.0440  0.4432  3.0273
46131SOL     OW47170   8.198   1.046  10.527 -0.1273  0.0949  0.2728
46131SOL    HW147171   8.232   1.110  10.589 -1.2346 -0.1475  1.1705
46131SOL    HW247172   8.270   0.983  10.515  0.2695  0.4134  0.9389
46132SOL     OW47173   4.604  10.220  10.523 -0.7414 -0.4912  0.2521
46132SOL    HW147174   4.636  10.301  10.563 -0.0349 -0.7496  0.2220
46132SOL    HW247175   4.611  10.155  10.592 -0.4743 -0.7185  0.0106
46133SOL     OW47176   8.670   4.745   9.742  0.4961 -0.2326 -0.4079
46133SOL    HW147177   8.680   4.799   9.820 -0.4541  1.5615 -1.4766
46133SOL    HW247178   8.756   4.706   9.729  1.1447  0.8170  0.5631
46134SOL     OW47179  10.761  12.372   3.749  0.3969  0.0740 -0.0654
46134SOL    HW147180  10.702  12.297   3.741  1.5234 -0.6742 -1.8923
46134SOL    HW247181  10.706  12.447   3.724 -0.8263 -0.0250  2.0902
46135SOL     OW47182   4.846   6.180   5.091  0.1344 -0.1387  0.0819
46135SOL    HW147183   4.899   6.248   5.132  0.3129 -0.6097  0.6315
46135SOL    HW247184   4.905   6.105   5.082 -0.5966 -0.9004  1.3083
46136SOL     OW47185   6.754   2.862   9.132 -0.0222  0.0310  0.4684
46136SOL    HW147186   6.665   2.865   9.166 -0.0524  0.1852  0.3751
46136SOL    HW247187   6.807   2.902   9.202 -0.2351  1.4353 -0.1405
46137SOL     OW47188   6.164  12.074   8.271  0.6232 -0.0922  0.0703
46137SOL    HW147189   6.183  12.012   8.341  1.2807  0.8231  0.7104
46137SOL    HW247190   6.217  12.042   8.197 -1.0231 -1.7878 -0.4581
46138SOL     OW47191   0.918   6.370   8.199  0.0015 -0.6137 -0.1986
46138SOL    HW147192   0.860   6.370   8.123 -0.4167 -2.6824  0.0469
46138SOL    HW247193   1.006   6.358   8.163  0.3080  2.0811 -0.5401
46139SOL     OW47194   5.963   1.864  12.261 -0.1397  0.7935 -0.4110
46139SOL    HW147195   5.903   1.938  12.256  0.0523  1.0845  1.2558
46139SOL    HW247196   6.050   1.903  12.250 -0.0520  0.7937  0.2714
46140SOL     OW47197  11.839   6.873   3.946 -0.2571  0.0272 -0.8469
46140SOL    HW147198  11.842   6.967   3.962  0.4788  0.6288 -3.9337
46140SOL    HW247199  11.919   6.840   3.988  0.5482  1.1200 -1.4530
46141SOL     OW47200   3.848  10.613  12.364 -0.0743 -0.7871  0.3614
46141SOL    HW147201   3.889  10.699  12.371  0.8812 -1.2928  1.2649
46141SOL    HW247202   3.912  10.560  12.316 -0.4675 -1.1111  0.1937
46142SOL     OW47203   1.060   8.433   3.766 -0.5785 -0.0993 -0.4792
46142SOL    HW147204   0.978   8.385   3.753  1.1684 -3.4797 -0.2923
46142SOL    HW247205   1.127   8.374   3.732  2.0637  0.9853  2.3717
46143SOL     OW47206   4.419   5.751   9.874  0.2021 -0.4200  0.1602
46143SOL    HW147207   4.461   5.727   9.957 -1.7357  2.7756  2.3128
46143SOL    HW247208   4.370   5.673   9.848  0.1791 -1.2688  2.5176
46144SOL     OW47209   3.454  10.839   1.976 -0.3491  0.1861 -0.1381
46144SOL    HW147210   3.498  10.917   1.941  1.5628 -1.3875 -1.5123
46144SOL    HW247211   3.394  10.812   1.907  0.9737 -1.0251 -0.8699
46145SOL     OW47212   0.313  11.547   8.089  0.4886  0.0215 -0.5896
46145SOL    HW147213   0.292  11.521   8.179  2.4120  1.0214  0.2101
46145SOL    HW247214   0.340  11.639   8.097  0.8878  0.0644 -2.1529
46146SOL     OW47215   1.443   6.353  12.103  0.0433  0.5064 -0.6675
46146SOL    HW147216   1.474   6.390  12.186  0.3761 -0.1048 -0.5145
46146SOL    HW247217   1.406   6.268  12.127 -1.4433  1.0601 -0.9011
46147SOL     OW47218   9.484   1.245   9.542 -0.1904 -0.2040  0.4939
46147SOL    HW147219   9.536   1.295   9.478  0.7925 -2.3905 -0.5160
46147SOL    HW247220   9.424   1.193   9.488  1.2358 -2.7457  1.1995
46148SOL     OW47221   3.913   7.661   5.936  0.2313 -0.2523 -0.2929
46148SOL    HW147222   3.931   7.739   5.988  0.9108  0.1235 -1.0690
46148SOL    HW247223   3.896   7.593   6.001  3.0013 -0.2721  0.5747
46149SOL     OW47224  12.162  10.040   6.922 -0.1842 -0.3579  0.0964
46149SOL    HW147225  12.238  10.096   6.940 -0.2884 -0.5705  1.2696
46149SOL    HW247226  12.137  10.006   7.007 -1.1550 -0.8755 -0.3827
46150SOL     OW47227   9.484   2.486  12.408 -0.2501  0.2164 -0.0798
46150SOL    HW147228   9.389   2.488  12.393 -0.4341 -1.8815  0.4644
46150SOL    HW247229   9.494   2.432  12.487  1.3876  0.7452  0.1035
46151SOL     OW47230  11.237  10.012   2.795 -0.6283  0.2911 -0.3871
46151SOL    HW147231  11.292   9.934   2.787 -0.3167  0.2981  1.3274
46151SOL    HW247232  11.155   9.980   2.833 -0.9036  0.6522 -0.6660
46152SOL     OW47233   0.819   6.742   7.785 -0.1200  0.0799 -0.5990
46152SOL    HW147234   0.757   6.783   7.725  2.0244  0.6675 -2.5324
46152SOL    HW247235   0.839   6.657   7.745  0.4540 -0.0294 -0.0946
46153SOL     OW47236   3.045  11.151   2.255  0.3710 -0.2060 -0.0795
46153SOL    HW147237   3.109  11.218   2.228  1.4891 -1.0167  0.4573
46153SOL    HW247238   3.069  11.131   2.345  0.4696 -1.7937 -0.4408
46154SOL     OW47239  11.785  12.031  10.124  0.1552 -0.3841  0.5995
46154SOL    HW147240  11.799  12.116  10.165 -0.7267 -0.7605  1.7439
46154SOL    HW247241  11.811  11.968  10.191  2.7495 -1.0739 -0.9273
46155SOL     OW47242   6.718   5.970  11.904  0.0889 -0.0496 -0.7471
46155SOL    HW147243   6.710   6.026  11.981  2.2605 -1.2921  0.4544
46155SOL    HW247244   6.664   5.893  11.925 -1.4803  0.7272 -1.6724
46156SOL     OW47245   9.752   4.288   6.956 -0.3006  0.7073 -0.1599
46156SOL    HW147246   9.735   4.380   6.974  0.9987  0.6648  1.5526
46156SOL    HW247247   9.814   4.261   7.025 -0.7684 -1.4780 -0.5171
46157SOL     OW47248   6.167  11.379   4.852  0.3606 -0.0509 -0.3763
46157SOL    HW147249   6.123  11.450   4.806 -2.6580 -0.4711  1.6005
46157SOL    HW247250   6.133  11.299   4.811 -0.1271 -0.3858  0.6481
46158SOL     OW47251   3.493   4.252  11.764  0.4300  0.0660  0.5279
46158SOL    HW147252   3.460   4.164  11.748 -0.4317  0.1949  1.4934
46158SOL    HW247253   3.537   4.245  11.849  2.6286 -0.0136 -0.5410
46159SOL     OW47254   0.120   7.493  10.796 -0.8734 -0.2039  0.3281
46159SOL    HW147255   0.046   7.433  10.804 -0.7096 -0.3298  0.9019
46159SOL    HW247256   0.161   7.494  10.883  0.7908 -1.4074 -0.3833
46160SOL     OW47257   4.037   3.392   9.982 -0.1295  0.2623  0.6153
46160SOL    HW147258   4.076   3.387   9.894 -0.6869 -1.1077  0.4143
46160SOL    HW247259   4.027   3.485   9.999 -0.4309  0.5494 -0.9759
46161SOL     OW47260   0.394   3.834  12.514  0.0222  0.1411 -0.1775
46161SOL    HW147261   0.352   3.903  12.566 -2.4645 -0.4903 -1.1682
46161SOL    HW247262   0.379   3.754  12.564  4.0989  0.2854  1.6680
46162SOL     OW47263   6.189   3.193  11.431  0.3775 -0.3232 -0.4075
46162SOL    HW147264   6.173   3.287  11.437  0.7050 -0.3155  0.4603
46162SOL    HW247265   6.145   3.156  11.508  2.6540 -0.5364  0.8628
46163SOL     OW47266  12.140   2.131   8.762 -0.1997  0.1640 -0.4962
46163SOL    HW147267  12.079   2.204   8.746 -0.9733 -0.5443 -0.8832
46163SOL    HW247268  12.083   2.059   8.790  0.3590 -0.7730 -1.7088
46164SOL     OW47269   6.394   1.655  11.037 -0.4623  0.3362  0.2340
46164SOL    HW147270   6.446   1.676  11.115  2.2679 -1.3388 -0.9733
46164SOL    HW247271   6.337   1.584  11.065  1.5588 -1.3057  0.4872
46165SOL     OW47272   6.480   0.229   2.668 -0.1986  0.3607  0.7542
46165SOL    HW147273   6.545   0.286   2.709 -0.2894  0.9100  0.1606
46165SOL    HW247274   6.469   0.156   2.729  1.1301  0.1447  0.7493
46166SOL     OW47275   2.261  11.021   5.021 -0.2678 -0.0675 -0.3001
46166SOL    HW147276   2.307  10.955   4.969 -1.4006 -0.0815 -1.3350
46166SOL    HW247277   2.177  10.981   5.043  0.0668  0.0506  1.3367
46167SOL     OW47278   0.872   5.889  11.127  0.2030 -0.1287  0.3235
46167SOL    HW147279   0.940   5.830  11.095 -0.3677  0.4089 -2.0986
46167SOL    HW247280   0.830   5.840  11.198  1.0658 -1.8027 -0.2488
46168SOL     OW47281   4.950   8.081   4.765  0.5021 -0.5906  0.6690
46168SOL    HW147282   5.016   8.121   4.708  0.2766 -1.0904  0.0404
46168SOL    HW247283   4.928   7.998   4.721  0.3401 -0.9955  1.5027
46169SOL     OW47284   0.201  11.129   7.812 -0.0145  0.3180 -0.1375
46169SOL    HW147285   0.125  11.185   7.798  0.1073 -0.0899 -3.1177
46169SOL    HW247286   0.246  11.167   7.888 -2.4237  1.3359  0.8758
46170SOL     OW47287   7.386   1.153   9.581 -0.3680 -0.2852  0.3881
46170SOL    HW147288   7.428   1.077   9.541 -1.1076  0.6644 -2.4241
46170SOL    HW247289   7.444   1.178   9.652  0.9229 -2.2487  0.1083
46171SOL     OW47290  12.545   1.240   7.353  0.2802 -0.4442 -0.4471
46171SOL    HW147291  12.498   1.185   7.416  0.6526 -2.1011 -1.5738
46171SOL    HW247292  12.479   1.302   7.321 -0.5798 -1.3402 -0.4321
46172SOL     OW47293   1.335   4.951   2.439  0.5628 -0.7554  0.0234
46172SOL    HW147294   1.241   4.969   2.437  0.6910  0.2174  1.2198
46172SOL    HW247295   1.375   5.023   2.390  0.7557 -0.4550  0.6073
46173SOL     OW47296   6.943   2.204  11.236 -0.2227 -0.3011 -0.0243
46173SOL    HW147297   7.031   2.228  11.266 -0.3797  1.8305 -1.0843
46173SOL    HW247298   6.892   2.199  11.317  0.6970 -0.8612  0.5484
46174SOL     OW47299   3.827  12.092   9.406 -0.4857 -0.0041 -0.4313
46174SOL    HW147300   3.768  12.156   9.445  0.9266  0.7940  0.4862
46174SOL    HW247301   3.881  12.143   9.345  1.4921  0.0268  1.2075
46175SOL     OW47302   4.580   7.022   0.251 -0.2002 -0.0126 -0.1789
46175SOL    HW147303   4.504   7.044   0.197  0.4794  3.2758 -0.0014
46175SOL    HW247304   4.653   7.066   0.209  1.5049 -2.2204  0.2562
46176SOL     OW47305  10.929  11.353   3.952 -0.7171  0.2591 -0.1779
46176SOL    HW147306  10.970  11.309   3.878 -0.0508 -2.4210  1.6303
46176SOL    HW247307  10.995  11.349   4.022 -2.2191  0.3723  1.3136
46177SOL     OW47308  10.103   8.888   3.875 -0.0075  0.2648 -0.1939
46177SOL    HW147309  10.182   8.837   3.894 -0.5810 -1.8263 -2.9259
46177SOL    HW247310  10.050   8.880   3.955  1.0242 -1.2764  0.3772
46178SOL     OW47311   3.315   1.027  11.677  0.4068  0.5478 -1.2110
46178SOL    HW147312   3.359   1.037  11.761  0.5710  1.4468 -1.3866
46178SOL    HW247313   3.353   0.947  11.639 -0.2634 -0.3259 -0.1035
46179SOL     OW47314   6.103  10.569  12.288  0.5307  0.1351 -0.1624
46179SOL    HW147315   6.063  10.577  12.201  0.0942  2.8422  0.1960
46179SOL    HW247316   6.155  10.649  12.297  1.4881 -0.6425  1.6555
46180SOL     OW47317  12.190   6.204   8.447 -0.4682 -0.0213  0.0483
46180SOL    HW147318  12.191   6.238   8.358 -1.9283  1.1669  0.4470
46180SOL    HW247319  12.113   6.244   8.488  0.0263 -0.7197  1.7779
46181SOL     OW47320   7.914   6.145   8.027 -0.0539 -1.0563 -0.0423
46181SOL    HW147321   7.838   6.132   8.083 -0.4881  0.2343 -0.3032
46181SOL    HW247322   7.879   6.168   7.941  0.6247 -0.8688 -0.2813
46182SOL     OW47323   1.041   1.949   8.323  0.0925  0.2497 -0.1637
46182SOL    HW147324   0.990   2.005   8.264  0.5249  0.7083 -0.1031
46182SOL    HW247325   1.041   1.863   8.280 -1.5075 -0.0125  0.2863
46183SOL     OW47326  11.960   2.041   7.729  0.0854 -0.3020 -0.0648
46183SOL    HW147327  12.047   2.013   7.698 -0.0015  0.6579 -1.2534
46183SOL    HW247328  11.904   2.035   7.652  0.0997  3.2295 -0.5142
46184SOL     OW47329   9.394   6.333   1.076 -0.0427 -0.2730 -0.2264
46184SOL    HW147330   9.319   6.308   1.129  1.3727 -1.4278  1.3326
46184SOL    HW247331   9.366   6.414   1.032 -1.7478  0.0160  1.2509
46185SOL     OW47332   2.095   2.789   1.708 -0.0375  0.1185  0.4158
46185SOL    HW147333   2.153   2.789   1.784 -0.3714 -1.0022  0.6831
46185SOL    HW247334   2.144   2.745   1.639 -0.1842  0.0883  0.3284
46186SOL     OW47335   2.613   0.634   6.495 -0.4014  0.0909 -0.2028
46186SOL    HW147336   2.623   0.566   6.428 -1.1290 -1.9051  1.5847
46186SOL    HW247337   2.689   0.623   6.552 -0.5829  0.7125  0.1710
46187SOL     OW47338   3.142   5.540   1.542 -0.4334  0.2837  0.1423
46187SOL    HW147339   3.163   5.599   1.469  1.2765 -0.5400 -0.0853
46187SOL    HW247340   3.194   5.574   1.616  0.8451 -1.0639 -0.0816
46188SOL     OW47341  11.578   9.849  12.556 -0.5261  0.2902 -0.2233
46188SOL    HW147342  11.507   9.889  12.607  1.0440  1.2567  1.3343
46188SOL    HW247343  11.607   9.918  12.497 -2.4004 -0.8552 -2.6725
46189SOL     OW47344  11.506   9.881   9.254  0.2392  0.2521 -0.0398
46189SOL    HW147345  11.497   9.865   9.348  0.7149  1.2323  0.1774
46189SOL    HW247346  11.435   9.941   9.233 -0.3358 -0.5607 -0.4675
46190SOL     OW47347  11.690   7.361   3.859 -0.7991  0.0465  0.5498
46190SOL    HW147348  11.697   7.371   3.764 -1.4506  0.1642  0.5087
46190SOL    HW247349  11.777   7.334   3.887 -0.9213 -1.2384 -0.2360
46191SOL     OW47350  12.088   9.045   1.975  0.0082 -0.2977  0.2133
46191SOL    HW147351  12.064   9.038   1.883 -2.3989 -1.8228  0.8703
46191SOL    HW247352  12.054   9.130   2.003  0.3352 -0.0344 -0.1873
46192SOL     OW47353   8.713   1.150   9.194  0.2703  0.0412 -0.2766
46192SOL    HW147354   8.783   1.097   9.232 -0.6314 -0.7558  0.3015
46192SOL    HW247355   8.759   1.225   9.155  1.5012 -0.8086 -0.5225
46193SOL     OW47356  11.796   7.931   7.626  0.3532 -0.1480  0.0635
46193SOL    HW147357  11.829   8.015   7.595  0.4338 -0.4574 -0.7117
46193SOL    HW247358  11.722   7.911   7.569 -0.2572 -0.1694  0.8423
46194SOL     OW47359   0.496   9.750   2.683 -0.0188  0.3394 -0.2081
46194SOL    HW147360   0.468   9.683   2.621  0.8094 -1.3338  1.1441
46194SOL    HW247361   0.500   9.831   2.631 -2.7840 -0.2190 -1.5000
46195SOL     OW47362  11.291   1.679   4.417 -0.5063  0.7635  0.0637
46195SOL    HW147363  11.254   1.597   4.449  0.6931  0.4882  0.7662
46195SOL    HW247364  11.282   1.673   4.321 -1.8081  0.5017  0.1832
46196SOL     OW47365   6.958   0.318   7.272 -0.2977  0.6556 -0.4093
46196SOL    HW147366   6.899   0.368   7.216 -0.9852  1.8362  1.2789
46196SOL    HW247367   6.933   0.343   7.361  0.3287 -1.5978  0.4785
46197SOL     OW47368   9.108   5.901   6.683 -0.7120  0.6637  0.3117
46197SOL    HW147369   9.178   5.911   6.618 -0.7835 -2.1580 -0.3205
46197SOL    HW247370   9.147   5.933   6.764  1.2881 -0.5547 -0.0837
46198SOL     OW47371   5.238   0.690   8.028 -0.0300 -0.4080 -0.5569
46198SOL    HW147372   5.291   0.734   8.094 -1.0922  1.4360 -0.8645
46198SOL    HW247373   5.296   0.684   7.952  0.8164 -1.4982  0.1463
46199SOL     OW47374  12.314   7.096   9.483 -0.1894 -0.2646  0.0225
46199SOL    HW147375  12.295   7.162   9.416  0.2803  0.4862  0.6154
46199SOL    HW247376  12.298   7.012   9.439 -0.8831  0.2383 -0.7158
46200SOL     OW47377   1.059   4.509   8.092 -0.1245  0.1457 -0.1374
46200SOL    HW147378   1.047   4.469   8.006 -1.4168  0.6273 -0.1983
46200SOL    HW247379   0.973   4.541   8.117  0.3802  0.7105  1.0044
46201SOL     OW47380   9.956   4.108   4.550  0.5858 -0.2041  0.1315
46201SOL    HW147381   9.883   4.162   4.580  1.4205  0.6271  0.7140
46201SOL    HW247382  10.009   4.092   4.628  0.1704 -2.2212  0.0658
46202SOL     OW47383   9.684   9.934   2.196  0.0450 -0.0374  0.1816
46202SOL    HW147384   9.754   9.872   2.174 -0.1337 -0.0602 -0.3474
46202SOL    HW247385   9.664   9.916   2.287  0.6161 -0.1444  0.2896
46203SOL     OW47386   9.868   0.853  10.306 -0.8333 -0.1084 -0.0795
46203SOL    HW147387   9.870   0.762  10.334 -1.7447 -0.3224 -0.6636
46203SOL    HW247388   9.894   0.851  10.214 -0.3439  0.2916  0.0419
46204SOL     OW47389  10.483   5.277   9.554  0.0205 -0.1397 -0.8012
46204SOL    HW147390  10.573   5.286   9.586 -0.7054 -0.9191  1.7121
46204SOL    HW247391  10.447   5.365   9.556  0.5577  0.1009 -1.3495
46205SOL     OW47392   1.103  11.128  10.966 -0.1695  0.1085  0.3324
46205SOL    HW147393   1.128  11.037  10.951 -0.9945 -0.2160  0.7970
46205SOL    HW247394   1.095  11.135  11.061 -1.0693  0.3896  0.2482
46206SOL     OW47395   0.964   9.416  10.597 -0.0675  0.5997  0.9143
46206SOL    HW147396   0.874   9.417  10.628 -0.0270  1.8348  1.0473
46206SOL    HW247397   0.970   9.340  10.541 -0.8707 -0.1701  1.8426
46207SOL     OW47398   6.956   1.547  10.771  0.6674  0.2949 -0.1187
46207SOL    HW147399   6.884   1.610  10.769  0.6954  0.3307 -1.7376
46207SOL    HW247400   6.933   1.483  10.704  0.6680 -1.4193  1.4455
46208SOL     OW47401   7.256  12.560   5.283 -0.0067  0.3053 -0.1339
46208SOL    HW147402   7.332  12.596   5.236 -0.5259  1.5606 -0.0491
46208SOL    HW247403   7.243  12.620   5.357 -1.7968  0.8405 -0.8277
46209SOL     OW47404   9.901   0.311   2.056 -0.0852 -0.3255 -0.0194
46209SOL    HW147405   9.832   0.362   2.096  2.1122  1.4423  1.7905
46209SOL    HW247406   9.895   0.225   2.097 -0.5568  0.1385  0.9125
46210SOL     OW47407   8.555   4.415  10.431  0.3994  0.5049 -0.1883
46210SOL    HW147408   8.635   4.408  10.483  0.1748  2.7673  0.5664
46210SOL    HW247409   8.490   4.450  10.492 -1.0833 -0.8525 -0.9126
46211SOL     OW47410   9.100  11.054   1.089  0.4844  0.2999 -0.3384
46211SOL    HW147411   9.120  10.976   1.141  0.0488  0.5306  0.1896
46211SOL    HW247412   9.019  11.088   1.127  1.1507  1.5424  0.0560
46212SOL     OW47413  10.126   0.228   9.090 -0.2009  0.2910  0.0514
46212SOL    HW147414  10.214   0.209   9.122 -0.1678 -1.6720 -1.0823
46212SOL    HW247415  10.101   0.309   9.135  2.0272  0.6990  0.6608
46213SOL     OW47416   5.351   1.219   7.268 -0.4754  0.0892 -0.3875
46213SOL    HW147417   5.422   1.214   7.203 -0.8417  0.4212 -0.8160
46213SOL    HW247418   5.272   1.228   7.216 -0.8373 -0.2669  0.0938
46214SOL     OW47419   0.532   1.648  12.325 -0.4143 -0.5000  0.2064
46214SOL    HW147420   0.453   1.605  12.358 -1.1252 -0.4419 -1.3200
46214SOL    HW247421   0.551   1.717  12.388 -2.2183  0.1655  0.0692
46215SOL     OW47422   5.689   6.294   3.236  0.1389 -0.2380  0.6255
46215SOL    HW147423   5.641   6.228   3.286  1.2090 -1.1692  0.4666
46215SOL    HW247424   5.771   6.305   3.284 -0.2736  1.4448  0.9821
46216SOL     OW47425   5.868  12.477   5.859 -0.8250 -0.4589  0.1750
46216SOL    HW147426   5.943  12.471   5.800  0.3560 -1.3106  1.6759
46216SOL    HW247427   5.808  12.409   5.828 -2.2474  1.8586 -2.5904
46217SOL     OW47428   2.236  11.808   1.406 -0.1933  0.0943  0.4111
46217SOL    HW147429   2.157  11.789   1.456 -1.1999  0.1946 -1.1149
46217SOL    HW247430   2.307  11.782   1.465 -1.1891  2.6761  3.0088
46218SOL     OW47431   9.392   2.444   9.990  0.0410  0.6146 -0.1430
46218SOL    HW147432   9.310   2.433  10.039  0.7185  0.3395  0.9585
46218SOL    HW247433   9.401   2.363   9.941  0.9205 -0.4734  1.7129
46219SOL     OW47434   7.917   7.453   7.788 -0.3033 -0.0040 -0.3609
46219SOL    HW147435   7.883   7.511   7.856 -0.8065 -2.1531  1.3180
46219SOL    HW247436   7.986   7.504   7.746 -0.1276  1.5055  1.6180
46220SOL     OW47437   6.115   4.054   7.600  0.1860  0.2618 -0.0442
46220SOL    HW147438   6.206   4.038   7.575  0.1898 -2.2085  1.2731
46220SOL    HW247439   6.117   4.056   7.695 -0.7996  2.8488 -0.0139
46221SOL     OW47440   1.502  11.826   6.174  0.1098 -0.4667 -0.2947
46221SOL    HW147441   1.416  11.831   6.132  0.5507 -0.3745 -1.1997
46221SOL    HW247442   1.528  11.735   6.165 -0.6266 -0.8878  1.4943
46222SOL     OW47443   9.638   0.723   7.482 -0.2186  0.5038 -0.1415
46222SOL    HW147444   9.731   0.701   7.492 -0.3368  0.5445  1.2232
46222SOL    HW247445   9.632   0.763   7.395  1.3239  1.9603  0.3755
46223SOL     OW47446  11.639   0.059   1.305  0.2096 -0.1269 -0.1863
46223SOL    HW147447  11.674   0.047   1.217  0.3839 -0.1417 -0.1142
46223SOL    HW247448  11.554   0.101   1.291  0.1962 -0.2148 -0.3653
46224SOL     OW47449   4.877   0.297   2.555  0.0544  0.2936 -0.4346
46224SOL    HW147450   4.869   0.202   2.558 -0.9311  0.4071  1.7681
46224SOL    HW247451   4.790   0.328   2.529 -0.2420  0.6630  0.9616
46225SOL     OW47452   4.604  12.311   0.583  0.6039  0.5664 -0.5445
46225SOL    HW147453   4.693  12.345   0.592  1.4076 -0.8627 -2.3725
46225SOL    HW247454   4.551  12.387   0.559  1.4977  1.2698 -0.3382
46226SOL     OW47455   6.022   1.860   0.504 -0.8019  0.0375  0.2902
46226SOL    HW147456   6.091   1.795   0.517  0.4939  1.4543  0.7409
46226SOL    HW247457   5.988   1.878   0.592 -0.1498  0.9955  0.3673
46227SOL     OW47458   0.724   7.707   5.925  0.0867 -0.5012 -0.1071
46227SOL    HW147459   0.714   7.797   5.895  0.3800 -0.4235  0.0316
46227SOL    HW247460   0.671   7.656   5.864 -0.3036 -0.2041 -0.0203
46228SOL     OW47461   6.712  11.891   6.413  0.0038  0.3516  0.2529
46228SOL    HW147462   6.689  11.935   6.495  1.5515 -0.3754  1.1101
46228SOL    HW247463   6.656  11.933   6.347 -0.4886  1.7079  1.4846
46229SOL     OW47464   7.373   8.956   7.859 -0.0549  0.2637  0.1118
46229SOL    HW147465   7.318   8.900   7.805  1.7144  0.3449 -1.9065
46229SOL    HW247466   7.456   8.909   7.867 -0.0641  0.5116  2.3690
46230SOL     OW47467  12.522   9.011   7.222  0.2507 -0.3924 -0.8032
46230SOL    HW147468  12.513   8.994   7.128 -0.8572  0.6133 -0.8989
46230SOL    HW247469  12.581   9.086   7.228  0.4680 -0.5713 -0.6778
46231SOL     OW47470   3.011   9.109   0.188 -0.3534  0.0932  0.0483
46231SOL    HW147471   2.941   9.047   0.172 -0.8675  0.4987  0.6842
46231SOL    HW247472   3.029   9.148   0.103 -2.4929  1.6511  0.2568
46232SOL     OW47473   2.424   4.029  10.419 -0.1903  0.1670  0.6777
46232SOL    HW147474   2.487   3.960  10.441 -2.4724 -3.1444 -2.1619
46232SOL    HW247475   2.451   4.059  10.332 -1.5339 -0.1673  0.1179
46233SOL     OW47476   4.514   8.787   8.572 -0.7148 -0.0192 -0.0992
46233SOL    HW147477   4.451   8.730   8.528  0.0762 -1.1008  0.1283
46233SOL    HW247478   4.597   8.739   8.569  0.4301  1.8963 -1.4689
46234SOL     OW47479   2.063  11.250  10.003  0.3139 -0.2266  0.5503
46234SOL    HW147480   2.117  11.272  10.080  3.3273 -0.4277 -1.3360
46234SOL    HW247481   2.097  11.166   9.974 -1.7593 -0.8494 -0.2484
46235SOL     OW47482   3.573  10.402   2.268 -0.2574  0.2141 -0.3273
46235SOL    HW147483   3.610  10.480   2.227 -2.4468  1.0411 -0.8769
46235SOL    HW247484   3.519  10.362   2.199 -1.9857  0.2206  0.9484
46236SOL     OW47485  12.010   3.435   1.956  0.4520  0.2367 -0.6116
46236SOL    HW147486  11.974   3.412   1.870  2.9048 -4.6582 -0.6891
46236SOL    HW247487  12.099   3.465   1.938  0.2199  1.4986  0.1805
46237SOL     OW47488   9.410   0.594   3.605 -0.3556  0.8372  0.4193
46237SOL    HW147489   9.418   0.499   3.600  1.4325  0.8985  1.3600
46237SOL    HW247490   9.371   0.620   3.522  0.0294 -0.6274 -0.2336
46238SOL     OW47491  11.316   1.774   9.333 -0.3475 -0.2454 -0.8613
46238SOL    HW147492  11.393   1.821   9.364  0.9741 -1.3150 -2.3985
46238SOL    HW247493  11.328   1.684   9.363 -0.6336 -0.5790 -1.7059
46239SOL     OW47494   5.974  12.513   4.686 -0.2961 -0.1948 -0.8112
46239SOL    HW147495   5.905  12.563   4.642 -1.0899 -1.7708 -1.4323
46239SOL    HW247496   5.938  12.493   4.772  0.9511  2.2217  0.3682
46240SOL     OW47497   8.887   8.012   0.796  0.1755  0.5890 -0.0038
46240SOL    HW147498   8.849   8.087   0.750 -0.6812  0.6425  0.7406
46240SOL    HW247499   8.864   8.027   0.888 -2.3672 -1.8693 -0.0878
46241SOL     OW47500   8.233   2.983   2.257 -0.0494  0.3344  0.4369
46241SOL    HW147501   8.191   2.934   2.187 -0.7506  1.7991 -0.2125
46241SOL    HW247502   8.168   3.048   2.283  1.5760  2.3776 -0.2967
46242SOL     OW47503   7.738   6.806   9.271 -0.0748 -0.6602  0.5528
46242SOL    HW147504   7.817   6.752   9.274 -1.5123 -2.9657 -0.2775
46242SOL    HW247505   7.743   6.861   9.350  2.2949 -0.7519  0.5273
46243SOL     OW47506   1.231   9.390   9.942 -0.5843 -0.0596 -0.1115
46243SOL    HW147507   1.138   9.376   9.964 -0.9730 -1.2097 -2.1826
46243SOL    HW247508   1.229   9.438   9.859  0.7805  3.1959  1.5725
46244SOL     OW47509   1.558   5.562  10.665  0.1086  0.2404 -0.0124
46244SOL    HW147510   1.478   5.594  10.706 -0.2670 -0.5070 -0.1330
46244SOL    HW247511   1.622   5.633  10.676 -0.5385  0.7998  0.1734
46245SOL     OW47512   9.456   4.059  12.410  0.0305  0.3999 -0.4413
46245SOL    HW147513   9.483   4.037  12.499 -2.0572  2.2058  0.7123
46245SOL    HW247514   9.361   4.048  12.409 -0.0875  1.1168 -2.2411
46246SOL     OW47515  12.272   8.071  10.132 -0.0634 -0.7623 -0.5493
46246SOL    HW147516  12.363   8.045  10.119 -0.3989 -1.6554 -1.1959
46246SOL    HW247517  12.268   8.160  10.098  0.4631 -0.8807 -0.9341
46247SOL     OW47518  12.561   5.913   4.309 -0.2907 -0.4374  0.4371
46247SOL    HW147519  12.634   5.956   4.266 -2.0216  2.8579  0.4753
46247SOL    HW247520  12.589   5.901   4.399  0.6264 -0.4002  0.1638
46248SOL     OW47521  12.013  12.058   1.509 -0.2223  0.0115  0.6430
46248SOL    HW147522  12.044  12.083   1.596 -0.6265 -0.2291  0.8607
46248SOL    HW247523  12.063  12.113   1.448 -1.6550  1.9910  1.1432
46249SOL     OW47524   8.321   5.171   2.035  0.1975  0.1947  0.1559
46249SOL    HW147525   8.236   5.161   2.079  0.3976  2.3983  1.1785
46249SOL    HW247526   8.384   5.130   2.095  0.0972  0.4263  0.4242
46250SOL     OW47527   1.729   9.096   4.522 -0.1071  0.1821 -0.0761
46250SOL    HW147528   1.818   9.103   4.557  0.3264 -1.4631 -0.7626
46250SOL    HW247529   1.741   9.091   4.427 -0.7577 -1.8353 -0.0981
46251SOL     OW47530   5.260  10.521   6.265  0.1975 -0.0737  0.6844
46251SOL    HW147531   5.353  10.514   6.289  0.3677 -0.3143 -0.0410
46251SOL    HW247532   5.259  10.587   6.195 -0.0806 -0.6388  0.1548
46252SOL     OW47533   0.443   1.245   5.212 -0.0372  0.3225  0.5316
46252SOL    HW147534   0.382   1.313   5.241  0.0417 -0.3405  2.3461
46252SOL    HW247535   0.452   1.186   5.287  1.4984 -0.5617 -0.2871
46253SOL     OW47536   6.882  11.557   0.255 -0.5676 -0.1793 -0.0543
46253SOL    HW147537   6.917  11.608   0.182 -3.2353 -0.3824 -1.6427
46253SOL    HW247538   6.941  11.482   0.264  1.6301  1.5142  0.2169
46254SOL     OW47539   2.648   0.016   1.571  0.7894  0.1262 -0.3201
46254SOL    HW147540   2.649   0.032   1.665  0.8058  1.7883 -0.5778
46254SOL    HW247541   2.731  -0.028   1.553  0.5560 -0.6942  0.4931
46255SOL     OW47542   5.863   5.246  10.281  0.3194  0.2466 -0.6565
46255SOL    HW147543   5.805   5.270  10.209 -0.4351  0.0618 -0.1220
46255SOL    HW247544   5.817   5.275  10.360  0.7766 -0.2388 -0.1988
46256SOL     OW47545   8.801   1.563   0.881  0.3263 -0.4178  0.2186
46256SOL    HW147546   8.758   1.526   0.958 -1.0214 -1.8741 -1.1517
46256SOL    HW247547   8.754   1.644   0.864  0.0089 -0.5571  0.4136
46257SOL     OW47548   0.087   7.496   8.620  0.0560  0.5174 -0.2229
46257SOL    HW147549   0.176   7.471   8.597  0.2407 -0.3867  1.3178
46257SOL    HW247550   0.098   7.553   8.697 -0.7366 -0.9296  1.0113
46258SOL     OW47551   9.081   6.284   2.424  0.9010  0.4854  0.1844
46258SOL    HW147552   9.125   6.242   2.497 -0.5861 -0.1966  0.7314
46258SOL    HW247553   9.104   6.377   2.431  1.3266  0.3177  1.0824
46259SOL     OW47554  10.219   5.453   9.770  0.1492 -0.1354  0.0985
46259SOL    HW147555  10.247   5.422   9.684 -1.0664  1.3401 -0.8717
46259SOL    HW247556  10.136   5.409   9.786 -1.9310  2.8755 -1.5874
46260SOL     OW47557  10.282   0.454   7.808 -0.5563 -0.0229  0.2065
46260SOL    HW147558  10.241   0.388   7.752 -1.3026  0.3279  0.3150
46260SOL    HW247559  10.348   0.406   7.858 -0.1671 -0.4148 -0.6779
46261SOL     OW47560   0.576   4.129   2.151  0.2403 -0.9890  0.4142
46261SOL    HW147561   0.576   4.190   2.078  1.1161 -0.2032  1.0572
46261SOL    HW247562   0.656   4.077   2.139  1.1189  0.0646  1.5512
46262SOL     OW47563   7.481   5.224   7.431  0.0063 -0.3199  0.1448
46262SOL    HW147564   7.532   5.304   7.447 -1.5632  0.5042  1.3670
46262SOL    HW247565   7.458   5.194   7.519 -0.1446 -1.6599 -0.3434
46263SOL     OW47566   1.199   5.329  12.269  0.3022 -0.2861  0.0151
46263SOL    HW147567   1.199   5.237  12.298 -0.4907 -0.4187 -0.3829
46263SOL    HW247568   1.166   5.378  12.344  0.8664 -0.3053  0.2796
46264SOL     OW47569   9.676   9.733  11.139 -0.6737  0.0823  0.4708
46264SOL    HW147570   9.698   9.699  11.226 -0.7943  0.2686  0.5752
46264SOL    HW247571   9.717   9.671  11.078 -1.0352 -0.3455  0.6579
46265SOL     OW47572   3.339   7.580   7.182 -0.2966 -0.0630 -0.2322
46265SOL    HW147573   3.324   7.604   7.274 -0.6281 -1.4275  0.1051
46265SOL    HW247574   3.252   7.555   7.150 -0.1837  0.4354 -0.9248
46266SOL     OW47575   6.159   7.165   9.047  0.2747  0.0726  0.0454
46266SOL    HW147576   6.235   7.161   8.989 -0.3370 -1.3614 -0.7232
46266SOL    HW247577   6.193   7.142   9.133  0.6946 -0.8217 -0.3409
46267SOL     OW47578   0.603   7.898   5.001  0.6735  0.3689  0.1057
46267SOL    HW147579   0.532   7.949   4.962 -3.0755 -3.5207  1.0353
46267SOL    HW247580   0.590   7.906   5.095 -0.8532 -2.8501  0.3257
46268SOL     OW47581  10.210   0.283  12.334 -0.1006 -0.1028 -0.0673
46268SOL    HW147582  10.131   0.280  12.280 -0.0656 -0.2349 -0.1117
46268SOL    HW247583  10.202   0.365  12.384 -0.9090 -0.7446  0.9033
46269SOL     OW47584   6.468   0.543   6.110  0.8817 -0.6338 -0.1377
46269SOL    HW147585   6.451   0.619   6.053  0.0172 -0.9443 -0.3087
46269SOL    HW247586   6.456   0.577   6.198 -0.5051 -0.7950 -0.2470
46270SOL     OW47587   9.234   9.266   4.720  0.6227  0.6726 -0.0137
46270SOL    HW147588   9.315   9.294   4.677  1.4405 -0.2665  0.8774
46270SOL    HW247589   9.245   9.292   4.812  0.4898 -0.6347  0.3880
46271SOL     OW47590  12.482  10.382   1.304 -0.0534 -0.2592 -0.1606
46271SOL    HW147591  12.530  10.301   1.289  0.3514 -0.2210  0.8712
46271SOL    HW247592  12.548  10.444   1.336 -0.1994  0.7281 -1.6867
46272SOL     OW47593   8.948   6.094   3.054  0.4897  0.5337 -0.1173
46272SOL    HW147594   8.886   6.076   2.984  1.2529  1.3401 -1.0332
46272SOL    HW247595   9.034   6.075   3.015  0.8771  0.2359  0.8564
46273SOL     OW47596   6.575   2.776  10.535  0.2252  0.4445  0.5221
46273SOL    HW147597   6.485   2.748  10.548 -0.0578 -0.3592 -2.4748
46273SOL    HW247598   6.622   2.696  10.512  1.3125  1.1471  0.2081
46274SOL     OW47599  11.721  12.123   3.380  0.3119 -0.4694 -0.0458
46274SOL    HW147600  11.789  12.094   3.440  1.3204 -0.7216 -1.2491
46274SOL    HW247601  11.747  12.086   3.295 -1.6498 -1.0538 -0.4421
46275SOL     OW47602  10.918   3.930   5.863  0.1795 -0.0406 -0.4186
46275SOL    HW147603  10.847   3.992   5.851  0.7328  0.8923  0.8381
46275SOL    HW247604  10.968   3.933   5.782 -1.1535 -0.6563 -1.2847
46276SOL     OW47605   0.477  10.039   9.250  0.3087 -0.0884 -0.2807
46276SOL    HW147606   0.557  10.005   9.290  0.7119  0.7687 -0.3194
46276SOL    HW247607   0.406  10.000   9.301  0.8077  0.9522  1.2811
46277SOL     OW47608   0.368   1.719  11.392  0.5444 -0.0545  0.2512
46277SOL    HW147609   0.334   1.752  11.476  0.3622  1.6767 -0.4678
46277SOL    HW247610   0.302   1.744  11.328  1.7193  0.6421 -0.7280
46278SOL     OW47611   3.788  11.422   7.727 -0.4345  0.5275 -0.1033
46278SOL    HW147612   3.791  11.328   7.709  0.3954  0.6032 -0.4162
46278SOL    HW247613   3.777  11.463   7.641 -1.4415  0.7033  0.0934
46279SOL     OW47614   1.537   8.863   6.172 -0.0202  0.1424  0.0978
46279SOL    HW147615   1.555   8.883   6.080 -1.3750  0.9148 -0.0329
46279SOL    HW247616   1.502   8.774   6.171 -1.8361  0.8219 -0.4093
46280SOL     OW47617  11.912   5.651  10.993  0.2578 -0.3807  0.0958
46280SOL    HW147618  11.945   5.590  11.058 -2.2791 -1.7230  0.2431
46280SOL    HW247619  11.846   5.602  10.944 -0.1323  1.5177 -1.4401
46281SOL     OW47620  11.266   4.434   5.832  0.5526  0.0582  0.6477
46281SOL    HW147621  11.193   4.380   5.862 -0.3416  0.6336 -0.4436
46281SOL    HW247622  11.276   4.413   5.740  1.8145 -0.0391  0.7882
46282SOL     OW47623   6.011   3.093   4.912 -0.0315 -0.4441 -0.0313
46282SOL    HW147624   6.001   3.058   4.824 -1.4605 -2.3437  0.8239
46282SOL    HW247625   5.952   3.040   4.966  0.8020  0.6601  2.0701
46283SOL     OW47626   1.719   0.980   5.703 -0.2825  0.1543  0.4997
46283SOL    HW147627   1.661   0.958   5.630 -1.1662  2.5264  0.3871
46283SOL    HW247628   1.669   0.959   5.782 -0.0892 -0.6063  0.4231
46284SOL     OW47629   2.542   2.648   9.896  0.3862  0.3207  0.2329
46284SOL    HW147630   2.469   2.602   9.937  1.0441  0.2262  1.3234
46284SOL    HW247631   2.620   2.605   9.930  0.9918 -0.7981 -2.2922
46285SOL     OW47632   3.527   2.721   2.283  0.5539  0.0716  0.2595
46285SOL    HW147633   3.539   2.725   2.377 -0.6590  0.1060  0.4238
46285SOL    HW247634   3.538   2.628   2.261 -2.1312 -0.4686  0.8884
46286SOL     OW47635  12.246   1.017   1.386  0.3375  0.1322  0.4050
46286SOL    HW147636  12.288   0.991   1.469  1.6195 -0.0373 -0.2720
46286SOL    HW247637  12.195   1.095   1.408 -1.8031 -1.6063  2.0075
46287SOL     OW47638  10.625   1.744   1.799 -0.0524 -0.7937  0.6050
46287SOL    HW147639  10.621   1.655   1.764  0.7140 -0.4866 -0.3294
46287SOL    HW247640  10.615   1.800   1.722 -1.1635 -0.0528  1.2571
46288SOL     OW47641  10.294  10.622   4.900  0.2619  0.2022 -0.3581
46288SOL    HW147642  10.240  10.676   4.843  0.3119 -0.0470 -0.6438
46288SOL    HW247643  10.383  10.655   4.886  0.0209  1.7932  1.4109
46289SOL     OW47644  11.161   5.938  11.603  0.7421  0.3174 -0.0129
46289SOL    HW147645  11.100   5.965  11.534 -1.0148  2.3736  2.1510
46289SOL    HW247646  11.105   5.921  11.678  2.5813 -1.8419  0.9680
46290SOL     OW47647  10.577  10.221   2.034  0.2013 -0.8627 -0.2415
46290SOL    HW147648  10.611  10.179   2.113  0.9068  0.7481  0.3573
46290SOL    HW247649  10.647  10.281   2.007  0.1844 -1.7135 -2.3887
46291SOL     OW47650   0.570   2.695   8.377 -0.1750 -0.5221 -0.2516
46291SOL    HW147651   0.552   2.601   8.383  0.3778 -0.5602  1.5735
46291SOL    HW247652   0.659   2.700   8.343  0.5100 -0.7629  1.4175
46292SOL     OW47653  11.743  11.667   7.152 -0.1444  0.0027  0.0778
46292SOL    HW147654  11.688  11.637   7.080  0.0387 -0.4471  0.1209
46292SOL    HW247655  11.832  11.669   7.116 -0.3408  2.0224 -0.3936
46293SOL     OW47656   5.694   4.970   1.770  0.4044 -0.1604 -0.5857
46293SOL    HW147657   5.719   5.032   1.701 -0.4000 -0.7440 -1.4369
46293SOL    HW247658   5.682   4.887   1.723 -0.9170 -0.3926  0.1261
46294SOL     OW47659   2.385   9.096  10.567  0.2432  0.1176  0.3931
46294SOL    HW147660   2.444   9.098  10.643  0.6844  0.1710  0.0591
46294SOL    HW247661   2.396   9.182  10.526 -0.2689  0.2210  0.4750
46295SOL     OW47662   1.192  12.296   2.990  0.5504  0.2743 -0.5649
46295SOL    HW147663   1.244  12.277   2.912  0.3179 -0.0458 -0.6416
46295SOL    HW247664   1.103  12.310   2.957  0.3618 -0.3007 -0.3116
46296SOL     OW47665   2.340   3.537   9.944 -0.0340 -0.6097 -0.1448
46296SOL    HW147666   2.354   3.519  10.037 -4.7135  1.3286  1.2329
46296SOL    HW247667   2.382   3.621   9.930  2.6642 -1.9214 -0.5653
46297SOL     OW47668  10.516   4.485   0.866  0.3475 -0.1480  0.8250
46297SOL    HW147669  10.491   4.552   0.802 -0.3187 -0.0857  1.1403
46297SOL    HW247670  10.596   4.447   0.831 -0.1102 -0.2384 -0.1380
46298SOL     OW47671   3.260   1.585   6.119  0.5744 -0.0114  0.0198
46298SOL    HW147672   3.171   1.557   6.141  1.5489 -2.1568  1.6171
46298SOL    HW247673   3.286   1.529   6.046  0.9652 -0.1409  0.2511
46299SOL     OW47674   9.192  11.785   1.671  0.3627  0.1878 -0.6173
46299SOL    HW147675   9.263  11.729   1.704 -0.1143 -0.4288 -0.6246
46299SOL    HW247676   9.118  11.726   1.661  0.3889  0.4124 -2.5172
46300SOL     OW47677  10.567   0.102   2.455  0.3774  0.0341 -0.1996
46300SOL    HW147678  10.572   0.124   2.363 -0.6778  0.1380 -0.2472
46300SOL    HW247679  10.631   0.159   2.498 -0.2442  1.1159 -0.6765
46301SOL     OW47680   4.477   5.503   8.262  0.2640  0.0353 -0.9533
46301SOL    HW147681   4.507   5.420   8.300 -0.3501 -0.3768 -1.3430
46301SOL    HW247682   4.519   5.506   8.176  0.6906  0.3834 -0.7393
46302SOL     OW47683   4.261   1.132   8.958 -0.5684 -0.3150 -0.0750
46302SOL    HW147684   4.319   1.201   8.989  0.0136 -1.3972  1.3212
46302SOL    HW247685   4.182   1.179   8.929  0.2909  1.0232 -0.3502
46303SOL     OW47686   5.363   1.299  10.446  0.0062  0.2952  0.1670
46303SOL    HW147687   5.268   1.298  10.460 -0.0850 -1.2148 -0.4073
46303SOL    HW247688   5.376   1.361  10.374 -1.0126 -2.1853 -2.3756
46304SOL     OW47689  10.610   7.635  10.333 -0.0175  0.6178  0.1733
46304SOL    HW147690  10.638   7.687  10.258 -0.4758  0.9384  0.2234
46304SOL    HW247691  10.670   7.659  10.403 -0.7851  1.7635  0.4590
46305SOL     OW47692   1.916   6.259  11.972  0.7686 -0.2097  0.1704
46305SOL    HW147693   1.849   6.271  12.039  0.7394 -2.2973  0.5650
46305SOL    HW247694   1.871   6.213  11.900  1.2610  0.3251 -0.4962
46306SOL     OW47695   0.918   1.349  10.072  0.0286 -0.2934  0.3566
46306SOL    HW147696   0.972   1.357   9.994  0.6955  0.4547  0.8840
46306SOL    HW247697   0.912   1.254  10.087 -1.4034 -0.5620 -1.4492
46307SOL     OW47698   3.231   3.859   3.211 -0.0198  0.0543  0.3656
46307SOL    HW147699   3.286   3.896   3.279  0.4975  1.2256 -0.6569
46307SOL    HW247700   3.248   3.913   3.133 -0.3649 -1.4064 -0.7785
46308SOL     OW47701   2.574   2.923   1.778 -0.6395  0.3766  0.8509
46308SOL    HW147702   2.605   2.867   1.849  0.8451  0.2804  0.1627
46308SOL    HW247703   2.628   3.002   1.784 -0.9670  0.6532  0.2555
46309SOL     OW47704  12.265   1.898   3.295  0.1606  0.2671  0.0173
46309SOL    HW147705  12.337   1.942   3.341  1.7338  0.4714 -2.4090
46309SOL    HW247706  12.294   1.896   3.203 -2.9338  0.3087 -1.0832
46310SOL     OW47707   2.605   2.452   8.558  0.4210 -0.0336  0.4278
46310SOL    HW147708   2.638   2.477   8.472  1.3732 -2.2444  0.0860
46310SOL    HW247709   2.684   2.436   8.610 -0.0913 -1.8671  0.7052
46311SOL     OW47710   3.438   5.207   2.977  0.4287 -0.4634 -0.4725
46311SOL    HW147711   3.428   5.112   2.982  0.0318 -0.3975  0.2224
46311SOL    HW247712   3.515   5.226   3.031 -0.3416 -0.2751  0.6041
46312SOL     OW47713  11.528  10.625   2.838  0.7287  0.1999  0.4277
46312SOL    HW147714  11.596  10.558   2.843  0.9556  0.4476  0.7952
46312SOL    HW247715  11.446  10.577   2.845  0.8573 -0.1171 -0.1639
46313SOL     OW47716   8.138   5.379   7.060  0.5035 -0.0154  0.1206
46313SOL    HW147717   8.123   5.411   6.971 -0.7545  1.7654  0.9160
46313SOL    HW247718   8.233   5.382   7.071  0.5916  0.8714 -0.7618
46314SOL     OW47719   5.014   1.551   4.810 -0.5897 -0.4815  0.3368
46314SOL    HW147720   4.920   1.543   4.793 -0.4933 -0.1064 -0.3760
46314SOL    HW247721   5.038   1.637   4.776 -0.3712  0.2974  2.2929
46315SOL     OW47722   4.733   2.006   8.798 -0.5138  0.3037  0.1936
46315SOL    HW147723   4.794   2.052   8.741  0.3750 -1.5427 -0.4205
46315SOL    HW247724   4.695   1.938   8.742 -2.8040  1.0708  0.6906
46316SOL     OW47725   6.701   2.490   0.032  0.4479  0.2859  0.0539
46316SOL    HW147726   6.677   2.404   0.067 -0.7464  1.0594  1.2308
46316SOL    HW247727   6.618   2.536   0.022  1.0528  1.2431 -0.7480
46317SOL     OW47728   5.253   1.387   6.280  0.5339  0.4688 -0.0744
46317SOL    HW147729   5.249   1.479   6.256  1.2931  0.3441 -0.7111
46317SOL    HW247730   5.307   1.347   6.212 -0.0888 -0.5136 -0.0055
46318SOL     OW47731  11.062   7.453   7.690 -0.0352 -0.0756  0.1274
46318SOL    HW147732  11.154   7.441   7.665  0.2007 -0.5457  1.1959
46318SOL    HW247733  11.026   7.365   7.692 -0.0450 -0.0544  1.4212
46319SOL     OW47734   9.253   8.292   0.097 -0.2592 -0.1622 -0.1753
46319SOL    HW147735   9.213   8.215   0.137 -1.1991  1.0830  1.4371
46319SOL    HW247736   9.342   8.294   0.131 -0.3453 -0.3527  0.0637
46320SOL     OW47737   7.055   6.534   6.909 -0.8101 -0.6030  0.2315
46320SOL    HW147738   7.023   6.597   6.973  0.9453 -0.9712  1.5348
46320SOL    HW247739   7.068   6.586   6.829 -1.7945  0.1260  0.5232
46321SOL     OW47740   9.334   6.865  10.723 -0.1848  0.0466  0.4319
46321SOL    HW147741   9.272   6.821  10.781 -1.4883  1.9086  0.5382
46321SOL    HW247742   9.355   6.800  10.656 -1.6788 -0.8893  0.8223
46322SOL     OW47743   9.297   4.517   3.806 -0.0872 -0.0335 -0.0791
46322SOL    HW147744   9.382   4.560   3.804 -0.7578  1.3069 -1.8944
46322SOL    HW247745   9.291   4.471   3.722  0.3057 -3.2293  1.4911
46323SOL     OW47746  10.323   2.735   6.398  0.2062  0.3868 -0.3763
46323SOL    HW147747  10.283   2.678   6.463  1.9571 -2.4433 -1.5643
46323SOL    HW247748  10.357   2.809   6.448 -2.1891  0.4875  1.2486
46324SOL     OW47749  11.655   5.431  10.913 -0.8312 -0.5123 -0.4292
46324SOL    HW147750  11.671   5.402  11.003 -0.8761 -1.0641 -0.5943
46324SOL    HW247751  11.638   5.525  10.921  0.8143 -0.2036 -0.0459
46325SOL     OW47752   7.644   0.791  11.601 -0.2989 -0.2945 -0.5287
46325SOL    HW147753   7.698   0.833  11.534  1.4100 -1.6817 -0.1004
46325SOL    HW247754   7.620   0.707  11.563 -1.7263  0.0647 -0.4739
46326SOL     OW47755  10.847   4.347   7.134 -0.2742  0.2712  0.1283
46326SOL    HW147756  10.919   4.341   7.197 -1.1005  1.2754  1.2148
46326SOL    HW247757  10.875   4.414   7.072 -0.2610  0.6482  0.5389
46327SOL     OW47758   0.919   2.606   9.137 -0.0737  0.6010 -0.1756
46327SOL    HW147759   0.853   2.547   9.101  0.8295 -0.2860 -0.4237
46327SOL    HW247760   0.878   2.641   9.217 -0.2839 -1.1070  0.5176
46328SOL     OW47761   0.504   1.982  10.996  0.0354 -0.3487 -0.5012
46328SOL    HW147762   0.484   1.895  10.961 -2.8709 -0.8080  1.9485
46328SOL    HW247763   0.438   1.997  11.063  1.6256  2.9868  0.5233
46329SOL     OW47764   3.032   5.471   0.857 -0.1240  0.3053 -0.4082
46329SOL    HW147765   2.942   5.440   0.870 -0.6895  0.6060 -3.1404
46329SOL    HW247766   3.023   5.558   0.820  1.3168  0.4095 -0.5795
46330SOL     OW47767   8.698   7.069   1.833 -0.0356  0.2171  0.3989
46330SOL    HW147768   8.654   7.040   1.752  1.3589  1.6472 -0.9362
46330SOL    HW247769   8.627   7.106   1.886 -1.0957 -1.4059  0.1898
46331SOL     OW47770   3.073   2.076   7.934 -0.2097 -0.0572 -0.1152
46331SOL    HW147771   3.013   2.018   7.888  0.6645 -2.0718  1.1303
46331SOL    HW247772   3.147   2.020   7.958  1.3862  1.9281 -0.0982
46332SOL     OW47773   0.577   9.450   4.964  0.3412 -0.0361 -0.4011
46332SOL    HW147774   0.561   9.466   4.872  0.9346  0.9950 -0.3385
46332SOL    HW247775   0.496   9.477   5.008  0.2257 -0.0899 -0.5838
46333SOL     OW47776  10.747   4.900   7.812 -0.2097  0.1527 -0.6871
46333SOL    HW147777  10.824   4.956   7.826  0.3699 -0.8104  0.0794
46333SOL    HW247778  10.781   4.824   7.765 -0.6143 -0.4367 -0.0476
46334SOL     OW47779   1.396   0.316   8.463 -0.0809 -0.2635  0.1499
46334SOL    HW147780   1.351   0.301   8.380  1.0327 -0.7957 -0.3771
46334SOL    HW247781   1.487   0.334   8.438  0.1841 -0.0373  1.2308
46335SOL     OW47782   7.560  12.579  11.022 -0.0425 -0.1739  0.2615
46335SOL    HW147783   7.485  12.562  10.965  0.0426  1.1408 -0.2859
46335SOL    HW247784   7.596  12.492  11.040 -0.2310 -0.6566 -1.4814
46336SOL     OW47785   6.662   4.697   3.241 -0.4937  0.4309  0.0419
46336SOL    HW147786   6.698   4.779   3.208  1.1320 -1.0578 -2.1260
46336SOL    HW247787   6.679   4.700   3.336  0.9502  1.9065 -0.2146
46337SOL     OW47788   7.179   5.614   9.218  0.1657 -0.1109 -0.1067
46337SOL    HW147789   7.201   5.647   9.305 -0.4747  0.2608 -0.0811
46337SOL    HW247790   7.085   5.598   9.221 -0.2582  1.7730 -1.3139
46338SOL     OW47791   9.979   6.500   1.882  0.3823  0.5223 -0.7160
46338SOL    HW147792   9.949   6.418   1.843 -1.1611  1.2961 -1.2370
46338SOL    HW247793   9.935   6.503   1.967 -0.0793  1.1172 -0.9749
46339SOL     OW47794   8.586   5.860   4.473 -0.4568 -0.0380  0.0497
46339SOL    HW147795   8.613   5.952   4.472  0.1285 -0.2053 -0.4282
46339SOL    HW247796   8.491   5.862   4.459 -0.4095  0.4867 -0.2151
46340SOL     OW47797   0.186   3.692   1.665  0.1421  0.3229  0.2742
46340SOL    HW147798   0.227   3.620   1.618 -0.1459  1.6590 -2.1765
46340SOL    HW247799   0.251   3.762   1.663 -0.1093  0.6090  1.3996
46341SOL     OW47800   4.336  10.575   1.129  0.0480  0.2533  0.4144
46341SOL    HW147801   4.393  10.596   1.055 -0.4957  1.6024  0.3590
46341SOL    HW247802   4.321  10.481   1.120 -0.2239  0.4239 -1.3548
46342SOL     OW47803   8.283   7.063   9.620 -0.0120  0.0350 -0.2165
46342SOL    HW147804   8.188   7.055   9.609 -0.0176 -0.1488 -0.0535
46342SOL    HW247805   8.302   7.012   9.699  0.1841  0.3118 -0.0846
46343SOL     OW47806   9.219   0.784   0.689  0.6931 -0.0202 -0.1295
46343SOL    HW147807   9.149   0.833   0.646  1.5552  0.5469 -0.9351
46343SOL    HW247808   9.194   0.692   0.679 -0.8774  0.2071  1.2812
46344SOL     OW47809   2.404   4.360   8.336 -0.2713 -0.0193 -0.5375
46344SOL    HW147810   2.430   4.436   8.283  0.8764  0.5348  0.7558
46344SOL    HW247811   2.428   4.385   8.425 -0.1509 -1.7944 -0.0531
46345SOL     OW47812   4.628   7.104   8.143 -0.0167  0.2424 -0.0627
46345SOL    HW147813   4.723   7.111   8.135 -0.0581  1.3321  0.1993
46345SOL    HW247814   4.606   7.163   8.216 -1.0016  0.8549 -0.8297
46346SOL     OW47815   4.469  12.066   4.697 -0.3671 -0.2327  0.3707
46346SOL    HW147816   4.496  12.006   4.628 -0.8744  0.0965 -0.1218
46346SOL    HW247817   4.549  12.114   4.720 -0.8154  2.2246 -2.5245
46347SOL     OW47818   9.902   2.876  12.381  0.3443 -0.3431  0.3127
46347SOL    HW147819   9.904   2.965  12.417 -2.6222 -0.8861  2.1594
46347SOL    HW247820   9.932   2.820  12.453 -1.0180 -1.0460  0.3824
46348SOL     OW47821   4.473  12.126  10.531  0.4076  0.2165  0.0799
46348SOL    HW147822   4.564  12.152  10.514  0.6305 -1.0025 -0.6672
46348SOL    HW247823   4.479  12.062  10.602  0.3333 -1.1918 -1.1389
46349SOL     OW47824   3.175   4.397   8.788 -0.7727 -0.5947 -0.2939
46349SOL    HW147825   3.230   4.401   8.709 -0.2724 -0.4861  0.0533
46349SOL    HW247826   3.121   4.476   8.783 -0.6590 -0.5266 -0.4708
46350SOL     OW47827   4.369   3.627   7.263 -0.3349 -0.3658 -0.2821
46350SOL    HW147828   4.346   3.673   7.345 -0.9582  0.7265 -1.0445
46350SOL    HW247829   4.459   3.599   7.276 -0.7365 -1.1082  1.1785
46351SOL     OW47830  10.591  10.382   9.647  0.3374  0.1999  0.1933
46351SOL    HW147831  10.606  10.436   9.569  0.7365  1.1979  0.9484
46351SOL    HW247832  10.669  10.392   9.700  1.5873 -3.1627 -0.7446
46352SOL     OW47833   4.644  10.993   1.790  0.3273 -0.5986 -0.4103
46352SOL    HW147834   4.609  11.027   1.873 -0.5843 -1.0796 -0.5936
46352SOL    HW247835   4.736  10.974   1.810  0.9616  2.1483 -0.3509
46353SOL     OW47836   7.716   0.050   7.408 -0.7966  0.1942 -0.4911
46353SOL    HW147837   7.745   0.084   7.324 -2.3716  1.8364 -0.4386
46353SOL    HW247838   7.625   0.024   7.394 -1.5384  1.7994  0.9960
46354SOL     OW47839   3.060   3.484  12.470 -0.1695  0.1011 -0.0939
46354SOL    HW147840   3.053   3.413  12.406  0.2601 -1.3727  1.3981
46354SOL    HW247841   3.027   3.561  12.425 -0.7988 -1.0817 -1.7522
46355SOL     OW47842   8.710   0.229   0.379  0.3436 -0.4773  0.1833
46355SOL    HW147843   8.672   0.282   0.309  1.4626  1.5090  1.0001
46355SOL    HW247844   8.634   0.193   0.425 -0.4381 -0.1118 -0.7822
46356SOL     OW47845   9.131   6.606   7.747 -0.1656 -0.1130  0.6890
46356SOL    HW147846   9.074   6.588   7.823 -0.4845 -0.3758  0.3923
46356SOL    HW247847   9.140   6.521   7.704  0.4283 -0.0623  0.7129
46357SOL     OW47848  10.735   7.719   7.575 -0.3982 -0.0954 -0.2262
46357SOL    HW147849  10.784   7.732   7.656  0.2030  1.6554 -0.8188
46357SOL    HW247850  10.777   7.643   7.534  0.1263 -0.2057  0.4865
46358SOL     OW47851   2.226   6.531   1.214 -0.0195 -0.5417  0.1217
46358SOL    HW147852   2.284   6.606   1.229 -0.4377 -0.3377  0.7363
46358SOL    HW247853   2.195   6.507   1.301 -0.8907 -0.6235 -0.2049
46359SOL     OW47854  10.097   9.584   4.235 -0.0889  0.2734  1.2004
46359SOL    HW147855  10.160   9.564   4.165 -1.5893 -0.5223  0.0140
46359SOL    HW247856  10.072   9.675   4.220  0.8096  0.6163  1.7238
46360SOL     OW47857   0.064   0.072   0.759  0.6943 -0.8363 -0.2513
46360SOL    HW147858   0.079   0.109   0.846 -0.3758 -2.4062  0.6383
46360SOL    HW247859   0.039   0.147   0.705  1.3172  0.1561  0.7945
46361SOL     OW47860   1.611   7.587   3.251 -0.4106  0.3189  0.5725
46361SOL    HW147861   1.574   7.499   3.248  0.5781 -0.1413  1.3296
46361SOL    HW247862   1.539   7.643   3.282 -1.2336 -0.0902 -0.5258
46362SOL     OW47863  10.440  12.011   0.369 -0.2366 -0.5561  0.4916
46362SOL    HW147864  10.504  11.954   0.328  0.4910  1.3639 -1.1927
46362SOL    HW247865  10.387  11.952   0.423  0.6450 -2.7525 -0.8919
46363SOL     OW47866   2.985   4.623  11.756 -0.8055  0.6705 -0.0926
46363SOL    HW147867   2.975   4.716  11.736  1.5709  1.2163  0.9050
46363SOL    HW247868   3.021   4.586  11.675  0.9892  1.2359  0.4081
46364SOL     OW47869   6.012   7.464   2.615  0.0229 -0.3123 -1.0984
46364SOL    HW147870   5.943   7.453   2.680  1.2782 -2.0410  0.0233
46364SOL    HW247871   5.966   7.490   2.535 -1.9320 -1.4590 -0.4119
46365SOL     OW47872   3.670   1.218  11.552  0.1750  0.3406  0.1172
46365SOL    HW147873   3.722   1.211  11.631  0.0960  0.2538  0.1614
46365SOL    HW247874   3.601   1.281  11.574  0.0838  0.2280  0.1560
46366SOL     OW47875   1.202   7.478  10.556  0.0202  0.1628 -0.1261
46366SOL    HW147876   1.146   7.446  10.627 -0.6801  0.2502 -0.6259
46366SOL    HW247877   1.146   7.477  10.479  0.7273  0.2135 -0.6525
46367SOL     OW47878   4.273   6.278  10.856 -0.5733 -0.2675  0.1408
46367SOL    HW147879   4.305   6.212  10.795 -2.0853 -0.7899 -0.1234
46367SOL    HW247880   4.353   6.315  10.895  0.3669 -0.9101 -1.0932
46368SOL     OW47881  12.094   1.102   8.774 -0.3901  0.2039  0.0798
46368SOL    HW147882  12.053   1.020   8.802 -0.2320 -0.6115 -1.9489
46368SOL    HW247883  12.035   1.137   8.707  0.8636  0.3819 -0.9628
46369SOL     OW47884   8.313   1.546   8.032  0.4808  0.1110 -0.5316
46369SOL    HW147885   8.386   1.484   8.031  0.6805  0.2668  1.4213
46369SOL    HW247886   8.313   1.585   7.944  3.7155  1.2169 -0.1397
46370SOL     OW47887   0.022  12.187   4.854 -0.4475  0.2321 -0.6315
46370SOL    HW147888   0.023  12.181   4.949 -1.7263  0.4295 -0.5804
46370SOL    HW247889   0.024  12.281   4.836 -0.6070  0.2102 -0.7737
46371SOL     OW47890   5.498   4.659   5.431 -1.2680  0.3831  0.0327
46371SOL    HW147891   5.574   4.627   5.383 -0.0567 -1.1059  2.7232
46371SOL    HW247892   5.445   4.581   5.449 -2.3710  1.0954  0.0189
46372SOL     OW47893   2.408   7.694   3.738  0.5127 -0.5801 -0.4358
46372SOL    HW147894   2.361   7.641   3.674 -0.3501 -0.4846  0.0963
46372SOL    HW247895   2.405   7.642   3.819 -0.6357  0.3944  0.1845
46373SOL     OW47896   1.474   9.968   1.191 -0.1674 -0.3051 -0.8695
46373SOL    HW147897   1.464   9.876   1.169 -0.2758 -0.2959 -0.8579
46373SOL    HW247898   1.506  10.009   1.110 -0.1306 -0.3505 -0.8776
46374SOL     OW47899   7.526  12.372   0.373 -0.2346  0.6397 -0.5795
46374SOL    HW147900   7.596  12.414   0.323 -0.8049  1.8014 -0.4368
46374SOL    HW247901   7.569  12.343   0.454 -0.1437  2.4955  0.0859
46375SOL     OW47902   4.078   8.940   6.984 -0.5361  0.2010  0.4016
46375SOL    HW147903   4.064   8.939   6.889 -0.4662  1.6167  0.3606
46375SOL    HW247904   4.029   9.016   7.015 -2.5949 -1.5742  1.8686
46376SOL     OW47905   7.883   8.138   3.413 -0.3307 -0.5949 -0.0163
46376SOL    HW147906   7.938   8.206   3.452 -0.0314  0.0516 -1.5181
46376SOL    HW247907   7.816   8.186   3.364  1.6495 -1.1941 -3.6641
46377SOL     OW47908   4.778   2.079   7.877  0.7274  0.5418 -0.3219
46377SOL    HW147909   4.733   2.127   7.946 -0.0003  0.6616 -0.8709
46377SOL    HW247910   4.796   1.993   7.915  1.2394  0.9371  0.3575
46378SOL     OW47911   8.611   6.724   0.879  0.0141 -0.2264  0.2511
46378SOL    HW147912   8.535   6.716   0.937 -0.8251  0.2275 -0.7380
46378SOL    HW247913   8.600   6.810   0.837  1.6753  0.3333  0.9000
46379SOL     OW47914  11.613   5.774   6.886  0.1157  0.9504  0.0665
46379SOL    HW147915  11.536   5.757   6.939  0.6809  0.1841  0.6775
46379SOL    HW247916  11.595   5.731   6.802  1.0587 -1.9038  1.2110
46380SOL     OW47917  12.291   6.317   5.793 -0.2864  0.1724  0.0345
46380SOL    HW147918  12.371   6.284   5.752  0.1829  1.7038 -0.3428
46380SOL    HW247919  12.309   6.314   5.887 -0.3235 -0.7576  0.0250
46381SOL     OW47920  12.557   7.165   7.159  0.4283  0.7247 -0.2221
46381SOL    HW147921  12.622   7.216   7.110 -0.4994 -0.1879 -2.5503
46381SOL    HW247922  12.494   7.137   7.093  0.4833 -2.8350  1.0404
46382SOL     OW47923  12.524   6.750   0.451  0.3228 -0.5569  0.3365
46382SOL    HW147924  12.572   6.726   0.372 -1.1360 -1.5746 -0.2869
46382SOL    HW247925  12.433   6.728   0.431 -0.7093  2.6352  0.8985
46383SOL     OW47926   0.354   6.532   3.053  0.1067 -0.0100  0.2195
46383SOL    HW147927   0.288   6.595   3.084 -0.1285 -0.2069  0.1239
46383SOL    HW247928   0.327   6.448   3.091  0.3663 -0.0715  0.2696
46384SOL     OW47929   5.674   2.281   3.441  0.4141  0.5671  0.2506
46384SOL    HW147930   5.681   2.208   3.503 -0.7492 -1.2740 -1.6607
46384SOL    HW247931   5.634   2.352   3.493 -0.6437 -0.9394  1.6060
46385SOL     OW47932   9.102   5.015   0.140  0.7788 -0.3494  0.0450
46385SOL    HW147933   9.194   5.024   0.167  1.0541 -1.7387 -0.3545
46385SOL    HW247934   9.074   4.931   0.176 -1.1545  1.1635  2.3193
46386SOL     OW47935  11.649   0.782  10.059 -0.1130  0.4471 -0.1770
46386SOL    HW147936  11.672   0.870  10.088 -1.6937  1.0839 -0.7403
46386SOL    HW247937  11.692   0.773   9.974  0.0272  0.6893 -0.1326
46387SOL     OW47938  10.401   0.883  10.177 -0.0044 -0.5658 -0.6538
46387SOL    HW147939  10.393   0.788  10.188 -4.2815 -0.3579 -0.0416
46387SOL    HW247940  10.391   0.918  10.265  0.1013  0.4839 -1.0480
46388SOL     OW47941   5.249   0.240   2.124  0.2628 -0.3517  0.2768
46388SOL    HW147942   5.304   0.163   2.142  2.3066  0.6038 -1.3775
46388SOL    HW247943   5.311   0.307   2.096 -1.6950  1.0848 -0.8934
46389SOL     OW47944   2.247   4.541  11.867 -0.0013 -0.4674 -0.1347
46389SOL    HW147945   2.310   4.548  11.938  0.1776 -0.7078 -0.2679
46389SOL    HW247946   2.300   4.541  11.787 -0.2174  0.0779 -0.2822
46390SOL     OW47947  12.147   0.212  10.741  0.1647 -0.0374 -0.4170
46390SOL    HW147948  12.158   0.122  10.772 -2.6498 -0.4671 -0.3925
46390SOL    HW247949  12.218   0.260  10.782 -0.1173 -1.6653  2.2352
46391SOL     OW47950  11.741   3.501   3.072  0.1595 -0.3722  0.3236
46391SOL    HW147951  11.658   3.479   3.030 -1.4957  0.3054  3.0055
46391SOL    HW247952  11.728   3.589   3.107  2.0298 -0.2476  0.8285
46392SOL     OW47953   3.703  10.037  10.599  0.5095 -0.1764 -0.7333
46392SOL    HW147954   3.788   9.998  10.622  0.5385  0.0403 -0.4732
46392SOL    HW247955   3.715  10.068  10.509  1.1209  0.9940 -0.2676
46393SOL     OW47956   0.264  10.068   5.170  0.1845 -0.2730 -0.1948
46393SOL    HW147957   0.177  10.057   5.131 -0.1642  1.1668  0.1351
46393SOL    HW247958   0.324  10.051   5.097 -0.3820 -0.7506 -0.5603
46394SOL     OW47959   5.027   1.266  11.247  0.1100  0.5287 -0.2049
46394SOL    HW147960   4.934   1.285  11.265  0.2788  1.9932 -0.6763
46394SOL    HW247961   5.074   1.330  11.300  0.7760  1.1366 -1.4889
46395SOL     OW47962   5.310   4.292   3.240 -0.2060 -0.2161 -0.1441
46395SOL    HW147963   5.254   4.369   3.227 -1.5985 -0.6982  2.3262
46395SOL    HW247964   5.267   4.222   3.193 -0.6646 -0.1518  0.1711
46396SOL     OW47965   0.219   9.869   3.141  0.2007 -0.8175  0.3755
46396SOL    HW147966   0.131   9.899   3.121 -0.0657 -1.3746  0.7052
46396SOL    HW247967   0.253   9.837   3.057  0.5731  0.5664 -0.0395
46397SOL     OW47968   1.704   8.542   9.406 -0.3434  0.3790 -0.0911
46397SOL    HW147969   1.688   8.488   9.328 -1.3182  0.2711  0.1637
46397SOL    HW247970   1.617   8.555   9.444  0.0455  0.9703  0.6263
46398SOL     OW47971  12.236  11.055   2.659  0.4534 -0.2382 -1.2880
46398SOL    HW147972  12.193  10.970   2.668  2.5209 -1.6895 -3.8343
46398SOL    HW247973  12.232  11.075   2.565  0.5256  2.2649 -0.8408
46399SOL     OW47974  12.557   9.857  12.042  0.1675  0.0883  0.4303
46399SOL    HW147975  12.498   9.914  12.091 -0.2940  0.9189 -1.0413
46399SOL    HW247976  12.632   9.846  12.100 -1.1396 -0.5029  2.0916
46400SOL     OW47977   7.521   7.931   4.000  0.1016 -0.3999 -0.1468
46400SOL    HW147978   7.518   7.854   4.057  0.0508 -0.0875  0.2821
46400SOL    HW247979   7.569   7.902   3.923  1.0694 -0.5549  0.4894
46401SOL     OW47980   3.568   2.744   4.460  0.2284  0.4437 -0.0565
46401SOL    HW147981   3.570   2.699   4.544  0.0477 -0.8185 -0.6974
46401SOL    HW247982   3.644   2.710   4.412  1.4137  2.4931  0.2179
46402SOL     OW47983   7.874   1.713   0.699 -0.1263 -0.4002 -0.8806
46402SOL    HW147984   7.907   1.747   0.782  1.6799 -0.1555 -1.6524
46402SOL    HW247985   7.796   1.766   0.681 -0.5754 -0.4893  0.6558
46403SOL     OW47986   9.669  12.356   4.635 -0.4870  0.2637  0.7614
46403SOL    HW147987   9.705  12.389   4.718 -0.5493 -0.9657  1.3120
46403SOL    HW247988   9.697  12.264   4.632  1.1258  0.7436 -1.5201
46404SOL     OW47989   3.055   6.487   6.735 -0.4867  0.8344 -0.0038
46404SOL    HW147990   3.026   6.502   6.645 -1.7327  2.3848  0.6155
46404SOL    HW247991   3.132   6.430   6.726 -2.0406 -1.1449 -1.8806
46405SOL     OW47992   5.331   2.017   2.641 -0.2702  0.6910 -0.0089
46405SOL    HW147993   5.387   2.065   2.579  1.0703 -0.6892  0.0910
46405SOL    HW247994   5.242   2.033   2.609  0.3790 -0.2645 -2.5633
46406SOL     OW47995   3.077  12.465   6.698  0.0581  0.2017  0.2688
46406SOL    HW147996   3.031  12.438   6.778 -0.3159  0.7009  0.2278
46406SOL    HW247997   3.169  12.464   6.723  0.0997 -1.5566  0.1214
46407SOL     OW47998  11.523   2.314  12.132  0.1300 -0.9685  0.2946
46407SOL    HW147999  11.575   2.394  12.132 -1.0522 -0.1696  0.4122
46407SOL    HW248000  11.525   2.284  12.041 -0.1971 -0.2663  0.0508
46408SOL     OW48001   2.572   1.943   5.150  0.0819  0.1565  0.6729
46408SOL    HW148002   2.538   2.031   5.168 -1.0930 -0.0567 -0.4457
46408SOL    HW248003   2.609   1.915   5.234  0.9140  1.8860  0.9409
46409SOL     OW48004   8.870   3.694   8.074  0.0803  0.0738  0.2183
46409SOL    HW148005   8.936   3.748   8.119 -0.0093 -0.2685  0.7712
46409SOL    HW248006   8.911   3.607   8.069  1.0183  0.5817 -2.3514
46410SOL     OW48007   4.731  12.051   3.033  0.7176 -0.4617  0.1425
46410SOL    HW148008   4.741  12.049   2.938  0.6828  1.0269  0.0911
46410SOL    HW248009   4.673  11.977   3.052  2.9542 -2.5818 -0.6601
46411SOL     OW48010   0.525   1.935   3.407 -0.2098 -0.2843 -0.1690
46411SOL    HW148011   0.448   1.990   3.417  0.0288  0.1102 -0.4732
46411SOL    HW248012   0.512   1.864   3.471  0.0177  0.7202  1.0300
46412SOL     OW48013   2.762   0.154   3.254  0.2940 -0.1135  0.3864
46412SOL    HW148014   2.731   0.085   3.194  1.0565 -0.4980  0.4095
46412SOL    HW248015   2.700   0.226   3.242  0.4009 -0.1927 -0.8469
46413SOL     OW48016  10.171   4.496  12.362  0.4849  0.6267  0.3842
46413SOL    HW148017  10.250   4.524  12.408 -0.0214  1.8754  0.5273
46413SOL    HW248018  10.114   4.462  12.430  1.1796 -1.0265  0.1863
46414SOL     OW48019   5.970   0.081   9.618  0.1570 -0.2105 -0.5066
46414SOL    HW148020   5.918   0.052   9.693 -0.2070 -1.0146 -1.0624
46414SOL    HW248021   5.915   0.149   9.577 -0.4623 -1.0216 -1.0631
46415SOL     OW48022   5.753   5.789   5.468 -0.0497  0.1235 -0.0289
46415SOL    HW148023   5.754   5.800   5.373 -0.2305  0.5474  0.0197
46415SOL    HW248024   5.797   5.705   5.482 -0.6586 -0.2946 -0.5346
46416SOL     OW48025   0.224   0.562  11.298  0.1685  0.1301  0.1403
46416SOL    HW148026   0.202   0.655  11.304  0.6794  0.3652 -1.1859
46416SOL    HW248027   0.316   0.562  11.271  0.1454 -0.7622  0.0490
46417SOL     OW48028  11.142   8.305  12.257 -0.0073 -0.2317  0.6031
46417SOL    HW148029  11.181   8.219  12.244  3.0396  1.2669 -1.4743
46417SOL    HW248030  11.191   8.363  12.198 -1.5946  3.0356  2.2024
46418SOL     OW48031   0.582   4.850  11.423  0.2934 -0.4805 -0.1664
46418SOL    HW148032   0.654   4.846  11.486  1.4594 -1.3080 -1.4854
46418SOL    HW248033   0.620   4.890  11.345 -0.8913 -0.2476 -0.6533
46419SOL     OW48034   2.577   7.339   1.812  0.5364 -0.6826  0.2428
46419SOL    HW148035   2.638   7.266   1.820  0.4819 -0.6560  0.9454
46419SOL    HW248036   2.526   7.337   1.893 -0.7250 -0.9929 -0.5158
46420SOL     OW48037   6.988   6.100   3.858  0.0897 -0.2093  0.2459
46420SOL    HW148038   7.011   6.064   3.943 -0.2082  2.3436  1.5035
46420SOL    HW248039   7.065   6.150   3.831 -0.8973  1.5538  0.5483
46421SOL     OW48040   0.794   2.534   9.750 -0.0641  0.4374 -0.4843
46421SOL    HW148041   0.827   2.501   9.667  1.8409  0.8271  0.0651
46421SOL    HW248042   0.863   2.591   9.782 -0.8167  0.4092  1.3074
46422SOL     OW48043   3.993   6.158   2.941 -0.3165  0.3991 -0.2217
46422SOL    HW148044   3.992   6.068   2.975 -0.1575  0.4208 -0.1612
46422SOL    HW248045   4.083   6.172   2.911 -0.8168 -0.1735 -2.1203
46423SOL     OW48046   0.713  12.377   1.363 -0.3083  0.8048  0.7942
46423SOL    HW148047   0.679  12.303   1.414 -2.3915  0.9824 -0.2028
46423SOL    HW248048   0.787  12.340   1.314 -0.7944 -0.4223  0.9366
46424SOL     OW48049   3.034  10.441   3.191  0.2525 -0.1090  0.2722
46424SOL    HW148050   2.999  10.477   3.273  1.4434  1.7907 -0.0007
46424SOL    HW248051   3.004  10.502   3.123 -1.7600 -2.2988 -0.9763
46425SOL     OW48052   0.243   2.055   9.881 -0.0377 -0.3791 -0.7043
46425SOL    HW148053   0.164   2.100   9.911  1.3859  1.1985  0.8755
46425SOL    HW248054   0.262   2.094   9.796  0.4609  1.1218  0.0768
46426SOL     OW48055   4.764   7.732   7.481 -0.0283  0.0473  0.1537
46426SOL    HW148056   4.688   7.790   7.486 -0.0709  0.0095 -0.0489
46426SOL    HW248057   4.727   7.644   7.473  0.0366 -0.0153  0.5334
46427SOL     OW48058   4.090   0.059   3.758  0.3971 -0.1001 -0.4378
46427SOL    HW148059   4.039   0.138   3.773 -0.4268 -0.1090 -2.6847
46427SOL    HW248060   4.181   0.087   3.765  0.1074  0.8662 -0.3882
46428SOL     OW48061   8.706   3.770   0.804  0.2025  0.4186  0.0902
46428SOL    HW148062   8.675   3.730   0.722 -0.4493 -0.4475  0.7456
46428SOL    HW248063   8.632   3.764   0.864  0.5120  1.4956  0.6087
46429SOL     OW48064   2.549   9.084   6.058 -0.2037 -0.0893  0.3103
46429SOL    HW148065   2.598   9.164   6.039 -0.8484 -0.3027 -2.6495
46429SOL    HW248066   2.557   9.031   5.979 -3.1100 -1.2046  0.6245
46430SOL     OW48067   2.976   2.137  11.684  0.0113  0.1515  0.2555
46430SOL    HW148068   3.065   2.111  11.660  0.1353  0.2934  0.5509
46430SOL    HW248069   2.941   2.062  11.731 -0.8171 -0.7796 -1.7565
46431SOL     OW48070   1.627   1.118  11.186  0.3565 -0.0783  0.2212
46431SOL    HW148071   1.541   1.154  11.209  0.8518  1.2296  0.1109
46431SOL    HW248072   1.608   1.050  11.121 -0.6156 -0.0206  0.4302
46432SOL     OW48073   4.264   6.953   0.951 -0.1768 -0.6439  0.1013
46432SOL    HW148074   4.327   7.024   0.959  0.1093 -0.8633 -0.1765
46432SOL    HW248075   4.278   6.899   1.029 -0.0528 -0.6671  0.0623
46433SOL     OW48076   7.019   9.790   6.656 -0.4557 -0.1477 -0.1395
46433SOL    HW148077   7.060   9.874   6.637  0.5387 -0.6992 -0.5154
46433SOL    HW248078   6.990   9.757   6.571 -0.7441 -0.2292 -0.0104
46434SOL     OW48079   4.407   3.286  10.673  0.4538 -0.0621 -0.4801
46434SOL    HW148080   4.486   3.296  10.727  0.0564 -1.0991  0.3431
46434SOL    HW248081   4.411   3.358  10.610  1.1598  0.9243  0.6552
46435SOL     OW48082   5.721   1.324  11.146 -0.2689 -0.1170 -0.2022
46435SOL    HW148083   5.768   1.270  11.209 -1.8017 -0.4511  0.7130
46435SOL    HW248084   5.655   1.370  11.198 -1.4775 -0.2723 -1.5222
46436SOL     OW48085   3.294   6.327   3.351 -0.6923  0.1101  0.1552
46436SOL    HW148086   3.377   6.284   3.369 -1.1855 -0.4217  1.3219
46436SOL    HW248087   3.300   6.355   3.260  0.3558 -0.8375 -0.0894
46437SOL     OW48088   4.353   5.530   9.695 -0.3670 -0.2155 -0.4731
46437SOL    HW148089   4.270   5.520   9.741  0.8639  0.3407  2.0550
46437SOL    HW248090   4.338   5.602   9.634 -1.6237  0.1753  0.2639
46438SOL     OW48091   3.649   4.234   9.312 -0.2404 -0.0435  0.0554
46438SOL    HW148092   3.582   4.284   9.265  0.8567  1.6143  0.1554
46438SOL    HW248093   3.685   4.175   9.246 -0.2019  0.7247 -0.6270
46439SOL     OW48094   3.822   0.219   0.794  0.2417  0.0165  0.4430
46439SOL    HW148095   3.912   0.250   0.789  1.0391 -1.9454  1.7120
46439SOL    HW248096   3.780   0.279   0.856  1.0489  0.1219  0.9033
46440SOL     OW48097  12.014   6.768  10.139  0.3584  0.6496 -0.7417
46440SOL    HW148098  12.101   6.801  10.117  0.9213 -0.5618 -0.4105
46440SOL    HW248099  12.028   6.712  10.215 -0.4490 -0.9068 -1.6936
46441SOL     OW48100  11.814   0.273   4.119  0.0906  0.0172 -0.0105
46441SOL    HW148101  11.788   0.221   4.043  2.4060  0.3862 -1.1427
46441SOL    HW248102  11.786   0.362   4.099  1.7485  0.3514 -1.0730
46442SOL     OW48103   8.906   4.141   2.551  0.5878  0.2059 -0.0528
46442SOL    HW148104   8.902   4.054   2.511 -0.6405 -0.5057  1.4855
46442SOL    HW248105   8.973   4.133   2.619 -1.2116 -0.4036  1.7941
46443SOL     OW48106   7.373   4.165   2.305  0.5135  0.1064  0.0627
46443SOL    HW148107   7.328   4.227   2.362  1.3265 -0.3429  1.2157
46443SOL    HW248108   7.303   4.106   2.274 -0.0988  0.9779 -0.2709
46444SOL     OW48109   2.042   4.022   2.508 -0.0387 -0.0643 -0.2522
46444SOL    HW148110   2.092   4.085   2.560  0.9203 -0.1170 -1.0813
46444SOL    HW248111   2.038   4.061   2.421 -1.2840 -0.1654 -0.2570
46445SOL     OW48112   4.783   5.148  10.655 -0.2405 -0.1971  0.0500
46445SOL    HW148113   4.711   5.132  10.594  0.9540  0.9324 -1.7421
46445SOL    HW248114   4.857   5.099  10.619  1.2033  2.5255 -0.9781
46446SOL     OW48115  12.137  12.015   2.642  0.2959  0.3383  0.4201
46446SOL    HW148116  12.116  12.066   2.720 -0.0490 -0.4209  0.8406
46446SOL    HW248117  12.158  12.080   2.575 -1.4345  1.0984  0.5450
46447SOL     OW48118  11.564   4.238   5.902 -0.6706 -0.3284 -0.3675
46447SOL    HW148119  11.654   4.257   5.930 -1.2551  0.9806  0.7879
46447SOL    HW248120  11.539   4.313   5.847 -1.4554 -0.0295  0.3641
46448SOL     OW48121   5.398   9.946   6.812 -0.2986 -0.3401  0.6938
46448SOL    HW148122   5.325   9.924   6.755  1.1119 -2.6599 -0.3626
46448SOL    HW248123   5.370   9.919   6.899 -1.3123  0.3544  0.5931
46449SOL     OW48124  11.546   5.218   7.019 -0.1684 -0.9708 -0.2356
46449SOL    HW148125  11.594   5.136   7.009 -1.5752 -2.0966  1.5335
46449SOL    HW248126  11.487   5.202   7.094 -1.1390  1.3365 -0.4306
46450SOL     OW48127   7.088   4.367   8.561  0.3421 -1.2031  0.6536
46450SOL    HW148128   7.145   4.319   8.621  1.4704 -1.6885 -0.7542
46450SOL    HW248129   7.095   4.458   8.591  1.6121 -1.2987  0.7282
46451SOL     OW48130   8.697   2.769   4.273  0.1496  0.3985  0.0797
46451SOL    HW148131   8.694   2.819   4.355 -2.3674 -0.1216  0.3760
46451SOL    HW248132   8.659   2.684   4.295  1.3863 -0.5250 -1.1713
46452SOL     OW48133  12.109  11.889  11.067  0.8474 -0.6527 -0.2092
46452SOL    HW148134  12.153  11.974  11.071  1.9731 -1.2600  1.4901
46452SOL    HW248135  12.045  11.892  11.138  1.1847 -1.3530  0.1377
46453SOL     OW48136   8.983   1.033   6.079 -0.1075 -0.0646  0.7621
46453SOL    HW148137   9.011   1.113   6.124 -1.1585  2.5243 -2.7807
46453SOL    HW248138   9.063   0.996   6.043  0.0062  2.1223 -1.4820
46454SOL     OW48139   7.736  10.615  11.059 -0.1188  0.8336 -0.0686
46454SOL    HW148140   7.784  10.573  10.986 -0.3178  0.6290 -0.0830
46454SOL    HW248141   7.776  10.577  11.138  0.7205  1.7294 -0.0415
46455SOL     OW48142  11.581   9.750   5.672  0.0342  0.5675 -0.4203
46455SOL    HW148143  11.596   9.759   5.578  2.9192  0.4630 -0.0592
46455SOL    HW248144  11.564   9.657   5.686  1.4168  0.2545 -0.6780
46456SOL     OW48145   6.558   0.972   0.038  0.6448 -0.9604 -0.1692
46456SOL    HW148146   6.647   0.994   0.012  0.3325 -0.7384 -1.1037
46456SOL    HW248147   6.564   0.949   0.131  1.3879  0.6597  0.2113
46457SOL     OW48148   0.730   2.728   4.850 -0.0374  0.2705 -0.7002
46457SOL    HW148149   0.715   2.707   4.942 -0.1928  1.2504 -0.4925
46457SOL    HW248150   0.825   2.728   4.841 -0.0276 -0.2203 -0.6438
46458SOL     OW48151   8.022   9.402   6.043  0.4461  0.4491 -0.0844
46458SOL    HW148152   7.967   9.359   5.978 -0.0915 -0.4242  0.9230
46458SOL    HW248153   8.111   9.376   6.020  0.1388 -1.1381  0.4340
46459SOL     OW48154   4.300   7.539   2.838  0.1931  0.1649 -0.7616
46459SOL    HW148155   4.326   7.458   2.794  1.6630  1.1019 -1.7020
46459SOL    HW248156   4.287   7.513   2.930  1.2065 -1.0248 -0.9294
46460SOL     OW48157  10.823   3.846   7.260  0.1383 -0.4425  0.3295
46460SOL    HW148158  10.887   3.904   7.302  1.3608 -1.4598 -0.0474
46460SOL    HW248159  10.776   3.903   7.199  0.7754  0.3209  0.5237
46461SOL     OW48160   0.758   8.996   5.742  0.2446 -0.2713 -0.2064
46461SOL    HW148161   0.792   9.077   5.704 -0.7064  0.2407 -0.0011
46461SOL    HW248162   0.690   9.025   5.802 -0.6746 -1.2623 -0.7360
46462SOL     OW48163   1.628   5.994  10.640  0.1762  0.6894 -0.0041
46462SOL    HW148164   1.685   6.062  10.606 -0.8527  1.8690  0.5590
46462SOL    HW248165   1.592   6.031  10.721 -1.3338 -0.0374 -0.3055
46463SOL     OW48166   5.108   4.122   7.006 -0.0118 -0.3412 -0.4027
46463SOL    HW148167   5.114   4.061   7.080 -1.6690  0.6744  0.6275
46463SOL    HW248168   5.058   4.074   6.940  1.0332 -1.0581 -0.7157
46464SOL     OW48169   5.781  10.642   5.221 -0.8611 -0.1067 -0.2792
46464SOL    HW148170   5.775  10.590   5.141  0.0461 -1.4176  0.4508
46464SOL    HW248171   5.696  10.633   5.263 -0.5900 -1.4124  0.0414
46465SOL     OW48172   0.463   1.204   7.600  0.1293 -0.5275 -1.0638
46465SOL    HW148173   0.513   1.151   7.663  0.2766  1.1086  0.2835
46465SOL    HW248174   0.433   1.141   7.535  0.7775 -2.1700  0.1277
46466SOL     OW48175  10.035   1.274   6.912 -0.4849 -0.2576  0.6234
46466SOL    HW148176  10.052   1.288   6.819 -0.0775 -0.1609  0.7115
46466SOL    HW248177  10.121   1.255   6.950 -0.5640  0.2329  1.0683
46467SOL     OW48178   7.229   7.080   1.371  0.4942 -0.4658 -0.4622
46467SOL    HW148179   7.218   6.985   1.361  2.8493 -0.8802  0.1730
46467SOL    HW248180   7.159   7.118   1.318 -0.7898 -2.5447 -0.3886
46468SOL     OW48181  10.528   9.031   5.683 -0.1062 -0.2777 -0.0557
46468SOL    HW148182  10.602   9.075   5.725  1.3163 -1.2365 -1.4384
46468SOL    HW248183  10.562   8.944   5.660 -2.1720 -1.3512  0.6862
46469SOL     OW48184  11.961   3.916   9.869 -0.0396  0.8611 -0.1946
46469SOL    HW148185  11.975   3.863   9.948  1.2970  2.3912  0.6533
46469SOL    HW248186  11.897   3.866   9.818 -0.1968 -0.6614  1.3875
46470SOL     OW48187   7.046   1.349   2.628  0.6165 -0.5599 -0.2553
46470SOL    HW148188   6.964   1.323   2.669  0.7490  0.6420  0.8389
46470SOL    HW248189   7.023   1.424   2.572  1.1064  0.5433  0.9524
46471SOL     OW48190  10.477   1.360   5.409 -0.4094  0.1350 -0.2674
46471SOL    HW148191  10.538   1.304   5.362  0.5447 -1.5514  2.6760
46471SOL    HW248192  10.398   1.306   5.418 -0.6740  0.5372 -0.1651
46472SOL     OW48193   7.350   2.424   3.736  0.6194 -0.3740  0.1789
46472SOL    HW148194   7.259   2.410   3.709  0.5205 -0.0485  0.3378
46472SOL    HW248195   7.347   2.421   3.832  0.3914  1.8502  0.2872
46473SOL     OW48196  11.763   8.087   8.554  0.3922  0.2737  0.4658
46473SOL    HW148197  11.690   8.075   8.615  0.6677 -0.0371  0.7387
46473SOL    HW248198  11.721   8.110   8.471  0.0829  2.5594  1.1846
46474SOL     OW48199  11.685   7.317  12.555  0.0294  0.1364 -0.4141
46474SOL    HW148200  11.662   7.277  12.471 -0.0693 -0.7400  0.0295
46474SOL    HW248201  11.657   7.254  12.621 -0.2956  1.0170  0.3044
46475SOL     OW48202   1.039   1.171   2.657  0.1325  0.1336  0.4081
46475SOL    HW148203   1.023   1.078   2.676  1.8197 -0.5629 -1.2479
46475SOL    HW248204   1.064   1.209   2.741 -1.6880 -0.6300  1.3318
46476SOL     OW48205   3.490   4.585   1.055 -0.5678  0.4719  0.4143
46476SOL    HW148206   3.460   4.569   0.965 -0.1026 -1.1277  0.5114
46476SOL    HW248207   3.546   4.662   1.047 -0.3061  0.1957 -0.7377
46477SOL     OW48208   8.232   4.851  10.601  0.0420  0.2289  0.4099
46477SOL    HW148209   8.325   4.830  10.591  0.6649  2.0209  1.8034
46477SOL    HW248210   8.188   4.766  10.603  1.4974 -0.6219 -1.3931
46478SOL     OW48211   8.911   5.483   2.864 -0.4151 -0.0244  0.5423
46478SOL    HW148212   8.958   5.483   2.780  2.0178  1.2149  1.8000
46478SOL    HW248213   8.964   5.428   2.921 -1.0432  0.6098  1.7645
46479SOL     OW48214   8.331   3.618   9.179 -0.2815 -0.5536 -0.1455
46479SOL    HW148215   8.404   3.620   9.241 -0.0712  0.9103 -0.3858
46479SOL    HW248216   8.373   3.635   9.094 -0.8225 -0.3578 -0.3732
46480SOL     OW48217   6.821   6.247   3.681  0.0491 -0.2736 -0.0925
46480SOL    HW148218   6.779   6.168   3.647  0.8855 -0.6599 -0.2490
46480SOL    HW248219   6.895   6.215   3.733  0.8757  0.4215 -0.8136
46481SOL     OW48220   3.790   8.402   2.296  0.5073 -0.1892 -0.0970
46481SOL    HW148221   3.812   8.478   2.242 -0.8697  0.4590  0.1921
46481SOL    HW248222   3.874   8.368   2.326  1.3181 -0.6175 -2.6685
46482SOL     OW48223   7.278   9.610   6.653 -0.4975  0.4521  0.3275
46482SOL    HW148224   7.297   9.541   6.717 -0.7246  0.2496  0.1790
46482SOL    HW248225   7.194   9.646   6.680 -0.3884  0.6606  0.3940
46483SOL     OW48226   3.897   7.034   0.048  0.5549  0.0258 -0.2625
46483SOL    HW148227   3.807   7.004   0.053  0.2741  0.7964 -0.6326
46483SOL    HW248228   3.915   7.072   0.134  0.6984 -0.5860 -0.0174
46484SOL     OW48229  12.506   5.950  10.675 -0.3366 -0.1558  0.1170
46484SOL    HW148230  12.447   5.911  10.609 -1.1722  0.2485  0.6152
46484SOL    HW248231  12.458   6.026  10.708  1.5710  1.8168 -1.3690
46485SOL     OW48232   3.516  12.327  10.445 -0.4718 -0.0522 -1.0432
46485SOL    HW148233   3.518  12.412  10.401  3.5735  0.3101 -0.4741
46485SOL    HW248234   3.524  12.348  10.538 -0.5413 -1.0603 -0.7994
46486SOL     OW48235   0.385   9.988   2.524 -0.2887  0.4001 -0.2188
46486SOL    HW148236   0.322  10.059   2.531  0.2822  0.8164  1.2291
46486SOL    HW248237   0.354   9.934   2.452 -0.4062  2.4327 -1.7651
46487SOL     OW48238   4.770   4.903   6.525 -0.0540 -0.4148  0.0758
46487SOL    HW148239   4.692   4.928   6.475 -0.6246 -1.6422  0.3039
46487SOL    HW248240   4.743   4.824   6.573  0.9204 -0.0771  1.2185
46488SOL     OW48241   0.483   5.255   3.240  0.0353 -0.5040 -0.2222
46488SOL    HW148242   0.420   5.255   3.168 -0.5786 -1.7957  0.2739
46488SOL    HW248243   0.547   5.322   3.217 -1.9194  1.4149 -0.3653
46489SOL     OW48244   2.834  11.010   0.111  0.2721  0.4064 -0.6176
46489SOL    HW148245   2.860  10.943   0.048 -0.2728 -0.5470  0.1634
46489SOL    HW248246   2.916  11.052   0.137  0.8040 -1.0524  0.1214
46490SOL     OW48247   0.982   5.686   0.614  0.2004  0.2121 -0.2438
46490SOL    HW148248   0.997   5.599   0.575  1.0097  0.2818 -0.1099
46490SOL    HW248249   0.904   5.719   0.569 -1.8362 -1.6892  1.6187
46491SOL     OW48250   7.356   9.695   4.455  0.0398  0.1183  0.0114
46491SOL    HW148251   7.449   9.679   4.464  0.0035  0.7554  2.0404
46491SOL    HW248252   7.330   9.644   4.379  1.9216 -0.5296 -0.2468
46492SOL     OW48253   1.474   1.750  12.076  0.6500 -0.4946  0.1504
46492SOL    HW148254   1.425   1.682  12.121  0.5100 -0.3176  0.2669
46492SOL    HW248255   1.558   1.754  12.122  0.3010  0.0731  0.7678
46493SOL     OW48256   6.639   9.695   7.487 -0.4419 -0.0910  0.1654
46493SOL    HW148257   6.554   9.654   7.503  0.0882 -0.3650  2.7023
46493SOL    HW248258   6.692   9.624   7.449 -0.8342 -0.4226  0.2247
46494SOL     OW48259   0.558   4.779   0.629 -0.2040  0.4305  0.6136
46494SOL    HW148260   0.547   4.874   0.639  0.8841  0.4255  2.3499
46494SOL    HW248261   0.566   4.746   0.719  0.4923 -1.1739  0.0054
46495SOL     OW48262  11.115   4.760   3.203 -0.2021 -0.3984 -0.5488
46495SOL    HW148263  11.197   4.784   3.247  0.5659 -1.7895 -1.1590
46495SOL    HW248264  11.058   4.731   3.274 -0.3865  1.1155 -0.0521
46496SOL     OW48265  12.457   2.407   6.045  0.4776 -0.0183 -0.3156
46496SOL    HW148266  12.373   2.400   6.092  1.4204 -0.4943  1.3723
46496SOL    HW248267  12.439   2.367   5.959 -1.1034  0.2034 -0.1274
46497SOL     OW48268   5.321   3.945   7.470 -0.5672  0.6138 -0.1530
46497SOL    HW148269   5.320   3.936   7.565 -0.4803  2.4181  0.0718
46497SOL    HW248270   5.385   4.015   7.454 -1.1927  0.9186 -1.4759
46498SOL     OW48271   1.560   5.122   9.682  0.2294  0.8170  0.3566
46498SOL    HW148272   1.594   5.200   9.726 -0.1750  0.7332  0.8282
46498SOL    HW248273   1.613   5.114   9.603 -0.1443  1.9478 -0.0310
46499SOL     OW48274  10.282   3.541  11.647 -0.4602  0.7379  0.4098
46499SOL    HW148275  10.314   3.579  11.565 -1.0319  2.1105  0.7866
46499SOL    HW248276  10.351   3.481  11.674  0.6718  1.7803 -0.0478
46500SOL     OW48277   8.217   9.876   1.138 -0.2374 -0.5202  0.1546
46500SOL    HW148278   8.312   9.876   1.145 -0.0249 -4.3441 -0.5141
46500SOL    HW248279   8.197   9.951   1.082  2.3247  0.4351  0.3829
46501SOL     OW48280   4.544   6.447  10.164 -0.6055  0.1074  0.2565
46501SOL    HW148281   4.633   6.437  10.197 -0.3877 -0.0009 -0.3518
46501SOL    HW248282   4.500   6.502  10.229 -0.2564 -0.2920  0.8357
46502SOL     OW48283   3.037   7.557   0.553 -0.1380  0.5403 -0.0525
46502SOL    HW148284   3.124   7.519   0.540  0.2901  1.7642 -0.9848
46502SOL    HW248285   3.051   7.652   0.549 -1.2772  0.8136  1.4458
46503SOL     OW48286   0.017  11.758   3.060  0.0610 -0.2283  0.1113
46503SOL    HW148287   0.016  11.692   3.129 -0.5490  0.3292  0.6490
46503SOL    HW248288   0.002  11.709   2.980  0.2389 -0.8182  0.4331
46504SOL     OW48289  11.394   0.665   0.156 -0.5620  0.0992 -0.2634
46504SOL    HW148290  11.439   0.728   0.100  0.7937  0.0664  0.7367
46504SOL    HW248291  11.396   0.705   0.243 -1.4989 -0.4200  0.0128
46505SOL     OW48292   1.083   5.914   8.557 -0.3132 -0.0616 -0.4247
46505SOL    HW148293   1.063   5.841   8.498  1.5611  0.4250 -1.7496
46505SOL    HW248294   1.020   5.905   8.629 -3.2341 -0.2338 -2.8181
46506SOL     OW48295   6.124   1.145   3.975 -0.0694 -0.0719 -0.6268
46506SOL    HW148296   6.029   1.156   3.979 -0.2751 -1.5711 -0.5279
46506SOL    HW248297   6.136   1.065   3.924  1.1285 -0.1059 -0.3238
46507SOL     OW48298   4.937   6.091   3.128 -0.0154  0.0431  0.2874
46507SOL    HW148299   4.960   6.184   3.117  2.4308 -0.3338  1.5944
46507SOL    HW248300   4.883   6.089   3.207 -1.9601  0.5540 -0.9645
46508SOL     OW48301   8.122   6.881   3.242  0.1042  0.4313  0.1501
46508SOL    HW148302   8.073   6.932   3.178 -1.1916 -0.6878  0.2046
46508SOL    HW248303   8.119   6.791   3.209  0.7696  0.0851  0.9842
46509SOL     OW48304   5.098   8.001   9.142 -0.3261  0.1956  0.2874
46509SOL    HW148305   5.169   7.939   9.154 -0.0307  0.2097 -1.1963
46509SOL    HW248306   5.141   8.079   9.106 -0.6758  1.3147  2.1534
46510SOL     OW48307   0.688   0.086   5.001 -0.3380 -0.0420 -0.0425
46510SOL    HW148308   0.632   0.163   5.014 -1.2652 -1.0468  2.3899
46510SOL    HW248309   0.629   0.011   5.010  0.8498 -1.0775 -0.6361
46511SOL     OW48310  10.017   1.850   9.949 -0.0763  0.1391 -0.1796
46511SOL    HW148311   9.946   1.905   9.916 -0.0309 -0.3212 -1.0736
46511SOL    HW248312   9.994   1.834  10.041 -1.0640  0.1163 -0.4156
46512SOL     OW48313   9.403   7.460   4.848  0.0919  0.6769  0.3153
46512SOL    HW148314   9.462   7.535   4.842  0.0101  0.7168 -0.0241
46512SOL    HW248315   9.443   7.402   4.913  0.2730  0.9099  0.4121
46513SOL     OW48316   2.360   4.659   1.070 -0.1647  0.3177 -0.5340
46513SOL    HW148317   2.446   4.660   1.112 -0.6949  0.5425  0.5580
46513SOL    HW248318   2.362   4.734   1.010 -0.5450  1.9644  1.4305
46514SOL     OW48319  11.819   9.297  12.603  0.2440  0.0185 -0.8477
46514SOL    HW148320  11.797   9.204  12.608 -1.5311  0.3948 -0.7907
46514SOL    HW248321  11.838   9.313  12.511  3.9078 -1.0200 -0.4099
46515SOL     OW48322  11.235   6.609  10.892 -0.5027 -0.2439  0.0446
46515SOL    HW148323  11.215   6.697  10.922 -1.9284 -0.2885 -0.6788
46515SOL    HW248324  11.204   6.607  10.801  0.0382 -1.3091 -0.1304
46516SOL     OW48325  10.644   8.356   4.894 -0.4236 -0.0117  0.5445
46516SOL    HW148326  10.606   8.350   4.806  0.2124 -0.2623  0.2823
46516SOL    HW248327  10.665   8.266   4.917  0.0201  0.1202  0.6741
46517SOL     OW48328   3.452   5.628  12.548 -0.0662 -0.1134 -0.1749
46517SOL    HW148329   3.484   5.661  12.632 -0.0859 -2.2392  0.7264
46517SOL    HW248330   3.515   5.560  12.523 -1.1216 -0.8693 -0.8861
46518SOL     OW48331   4.236   1.574   8.957 -0.1215  0.1235 -0.4894
46518SOL    HW148332   4.195   1.632   8.893 -1.0667  0.5051  0.4250
46518SOL    HW248333   4.322   1.556   8.921  1.6265  4.7303  0.6571
46519SOL     OW48334  12.020   6.121   5.847 -0.2092  0.3602 -0.4783
46519SOL    HW148335  12.107   6.104   5.810 -1.4025 -0.6433 -3.0203
46519SOL    HW248336  12.024   6.212   5.875  2.1822 -0.1386  1.1909
46520SOL     OW48337   5.117   0.961   9.913  0.5873 -0.0832 -0.2709
46520SOL    HW148338   5.077   1.047   9.924  0.0588 -0.2511 -0.8189
46520SOL    HW248339   5.089   0.911   9.989 -2.6841 -1.1097 -1.9541
46521SOL     OW48340  11.137   3.694  10.070 -0.0119  0.2398  0.8605
46521SOL    HW148341  11.164   3.766  10.013  2.3333 -2.0757 -1.2260
46521SOL    HW248342  11.169   3.719  10.157  3.1958  0.7029 -0.2852
46522SOL     OW48343   1.046   0.534   0.229 -0.2204  0.7177 -0.1947
46522SOL    HW148344   1.029   0.493   0.145  2.6273  1.6853 -1.3926
46522SOL    HW248345   0.988   0.611   0.231  0.2771  1.1753 -1.7292
46523SOL     OW48346   7.298   6.884   5.059 -0.0883  0.0931  0.4053
46523SOL    HW148347   7.205   6.884   5.037  0.1329 -2.5703 -0.9590
46523SOL    HW248348   7.304   6.831   5.139  0.3327 -0.9668 -0.2977
46524SOL     OW48349   5.887   9.508   4.488 -0.1485 -0.6344  0.1673
46524SOL    HW148350   5.897   9.457   4.408 -1.6507 -1.1212  0.2692
46524SOL    HW248351   5.976   9.534   4.510  0.1934  0.8040 -2.4670
46525SOL     OW48352  11.107   5.536  10.571 -0.4655  0.1696  0.4726
46525SOL    HW148353  11.055   5.459  10.595 -2.0257  1.4277  1.3229
46525SOL    HW248354  11.194   5.501  10.553 -1.3896 -1.9315 -0.2770
46526SOL     OW48355   1.605   1.546   3.114 -0.3755  0.0439  0.2944
46526SOL    HW148356   1.675   1.599   3.152  0.2406 -0.5995  0.0638
46526SOL    HW248357   1.640   1.457   3.110 -1.8437 -0.6831  1.8919
46527SOL     OW48358   4.611   0.260   9.055 -0.2488  0.7766 -0.6925
46527SOL    HW148359   4.690   0.206   9.050 -0.9263 -0.7263  2.4350
46527SOL    HW248360   4.542   0.204   9.019 -1.1222 -1.1321  3.3550
46528SOL     OW48361   9.282   9.084   2.723  0.1746 -0.1457  0.3159
46528SOL    HW148362   9.187   9.083   2.736  0.2238  0.4492  0.7211
46528SOL    HW248363   9.309   8.994   2.740 -0.6328 -0.9901 -2.2929
46529SOL     OW48364   4.250   5.177   9.276  0.2679  0.0788 -0.4467
46529SOL    HW148365   4.295   5.132   9.205  0.0144  0.9185 -1.1639
46529SOL    HW248366   4.184   5.115   9.306  1.4318 -0.9154  0.1744
46530SOL     OW48367   3.780   0.094   0.216 -0.5725 -0.0519 -0.7391
46530SOL    HW148368   3.865   0.079   0.257 -1.0091 -1.8029 -0.3814
46530SOL    HW248369   3.749   0.007   0.192 -1.7139  0.6657 -2.0224
46531SOL     OW48370   9.996   2.391   9.628 -0.0293 -0.3617 -0.2829
46531SOL    HW148371   9.958   2.308   9.600 -0.4643 -0.1782 -0.2471
46531SOL    HW248372   9.983   2.393   9.723 -3.4313  1.3521 -0.5845
46532SOL     OW48373  12.296   5.425   7.584  0.7386  0.0860 -0.3684
46532SOL    HW148374  12.341   5.477   7.650  1.5797 -0.1821 -0.7251
46532SOL    HW248375  12.203   5.438   7.603  0.9633  0.4820  0.4966
46533SOL     OW48376   9.277   4.450   9.416  0.4696 -0.1838 -0.1586
46533SOL    HW148377   9.309   4.404   9.493 -0.4403  0.5289  0.6765
46533SOL    HW248378   9.184   4.466   9.434  0.4352  0.7392 -1.0182
46534SOL     OW48379   3.337  11.604   9.776 -0.0175 -0.1614 -0.8695
46534SOL    HW148380   3.386  11.589   9.857  0.3345 -0.1122 -1.0694
46534SOL    HW248381   3.394  11.661   9.724  1.2034 -2.6807 -2.4649
46535SOL     OW48382   0.161   0.616   3.148 -0.1584  0.7771  0.0408
46535SOL    HW148383   0.070   0.604   3.175 -0.3366 -0.0163 -0.8521
46535SOL    HW248384   0.209   0.546   3.192 -0.2757  0.1384 -0.8187
46536SOL     OW48385   1.400   3.634   6.511  0.4196 -0.2221 -0.4014
46536SOL    HW148386   1.339   3.708   6.509 -1.4455 -1.6608  0.8632
46536SOL    HW248387   1.437   3.631   6.423 -0.8722  1.0691 -1.0280
46537SOL     OW48388  11.738  11.573   7.604  0.2492  0.2343 -0.4055
46537SOL    HW148389  11.762  11.631   7.532  0.7102  1.6159  0.8197
46537SOL    HW248390  11.656  11.532   7.575  0.8591  0.1095 -2.0521
46538SOL     OW48391   1.576   7.010   5.067 -0.8257  0.5920 -0.0151
46538SOL    HW148392   1.571   6.922   5.104 -0.0384  0.4535 -0.2104
46538SOL    HW248393   1.486   7.043   5.071 -1.1333 -0.2250  0.0440
46539SOL     OW48394  10.433   3.103   3.151 -0.2235 -0.2194 -0.2681
46539SOL    HW148395  10.404   3.186   3.189 -1.7088 -0.9380  0.2496
46539SOL    HW248396  10.353   3.053   3.138  0.6596 -1.6900 -0.3231
46540SOL     OW48397   8.708  12.449   5.877 -0.3607  0.6295 -0.1682
46540SOL    HW148398   8.661  12.372   5.910  2.4027 -0.2980  1.9423
46540SOL    HW248399   8.705  12.511   5.950 -0.7663  1.7446 -1.0990
46541SOL     OW48400   7.113   5.235  12.202 -0.7545  0.3449  0.0240
46541SOL    HW148401   7.188   5.284  12.167 -0.3039  0.4816  1.1137
46541SOL    HW248402   7.056   5.303  12.238 -0.5241  0.1372  0.8014
46542SOL     OW48403   2.355   7.079   3.226  0.1695  0.7166  0.0512
46542SOL    HW148404   2.428   7.091   3.166  0.8669 -0.1041  0.7078
46542SOL    HW248405   2.345   6.984   3.234 -2.2723  0.7480 -1.5552
46543SOL     OW48406   7.086   0.692   7.287 -0.1469  1.1512 -0.0812
46543SOL    HW148407   7.024   0.685   7.359 -0.4170  1.6685 -0.2532
46543SOL    HW248408   7.090   0.786   7.268  0.1444  1.0494 -0.5429
46544SOL     OW48409   3.283   3.496   8.658  0.0081  0.3257  0.6728
46544SOL    HW148410   3.250   3.567   8.603  0.1013 -0.3705 -0.3044
46544SOL    HW248411   3.220   3.425   8.646  1.7939 -1.0423 -1.2615
46545SOL     OW48412  10.943   5.756   4.817  0.2120  0.0163 -0.5090
46545SOL    HW148413  10.995   5.834   4.832 -1.5875  1.7539 -2.5634
46545SOL    HW248414  10.952   5.738   4.723 -0.1699 -1.6903 -0.2701
46546SOL     OW48415  11.441   5.272  11.272  0.0349 -0.2433  0.6615
46546SOL    HW148416  11.473   5.319  11.349  1.1623 -0.5519  0.3884
46546SOL    HW248417  11.514   5.274  11.210 -0.8863  0.1044 -0.4581
46547SOL     OW48418   5.278   4.069   4.533  0.1589  0.3553 -0.4916
46547SOL    HW148419   5.219   4.076   4.608  0.2029 -1.9967 -0.1784
46547SOL    HW248420   5.334   4.146   4.540 -0.3532  0.6089  1.4366
46548SOL     OW48421   3.364   7.098   2.794 -0.1419 -0.2191  0.0635
46548SOL    HW148422   3.402   7.182   2.769 -0.4814 -0.1476 -0.2138
46548SOL    HW248423   3.411   7.074   2.874 -1.4496  1.2341  1.3328
46549SOL     OW48424   9.256   4.030  11.247  0.2794 -0.5362  0.3119
46549SOL    HW148425   9.343   4.042  11.211 -0.3347 -0.9114 -1.3695
46549SOL    HW248426   9.219   4.119  11.251  0.8964 -0.3075  1.5504
46550SOL     OW48427   5.041  10.705   0.098 -0.6780 -0.2602 -0.1352
46550SOL    HW148428   5.001  10.747   0.022  1.4705  0.9892 -0.6390
46550SOL    HW248429   5.099  10.638   0.061  0.7750  0.7084  0.3524
46551SOL     OW48430   8.190   6.229   3.326  0.1532  0.2092 -0.3827
46551SOL    HW148431   8.232   6.314   3.340  0.2950  0.1409 -0.4027
46551SOL    HW248432   8.260   6.171   3.296  0.5003 -0.4631  1.5899
46552SOL     OW48433   0.141   9.890   2.673 -0.9863  0.9614  0.1192
46552SOL    HW148434   0.233   9.912   2.656 -1.0466  0.2700 -1.2313
46552SOL    HW248435   0.106   9.968   2.718  0.3734  1.0180  1.1571
46553SOL     OW48436   7.969   7.917   3.267  0.0973  0.4879  0.2582
46553SOL    HW148437   7.952   7.998   3.315  1.5784  1.0501 -0.1020
46553SOL    HW248438   7.891   7.904   3.213 -1.0830  0.4839  1.8926
46554SOL     OW48439   4.251   9.731   7.167  0.2849  0.4658  0.1789
46554SOL    HW148440   4.275   9.816   7.202  1.4302 -0.1206  0.8868
46554SOL    HW248441   4.186   9.750   7.100  0.1412  1.8461  0.6795
46555SOL     OW48442   5.135  12.346   5.952 -0.0644 -0.0951 -0.7397
46555SOL    HW148443   5.082  12.286   5.899 -0.4654  0.8460 -1.4211
46555SOL    HW248444   5.106  12.433   5.926 -0.7337  0.4216  1.4607
46556SOL     OW48445   4.940   0.734  11.154 -0.3731 -0.1703  0.0346
46556SOL    HW148446   4.967   0.788  11.228  0.4550 -1.2101  0.5194
46556SOL    HW248447   4.859   0.693  11.185  0.7216 -1.7335  0.9915
46557SOL     OW48448   5.411   1.759   0.589  0.1442  0.5009  0.2769
46557SOL    HW148449   5.446   1.738   0.675  0.2824 -1.0857 -0.1336
46557SOL    HW248450   5.459   1.837   0.562 -1.7832  2.7028  2.7099
46558SOL     OW48451   4.533  11.245   2.400 -0.4494 -0.3276 -0.8061
46558SOL    HW148452   4.546  11.203   2.485  0.2740  0.8562 -0.3034
46558SOL    HW248453   4.615  11.230   2.353 -0.0757  0.7069 -0.5173
46559SOL     OW48454   7.862   2.283   0.832 -0.1762  0.6933  0.1608
46559SOL    HW148455   7.934   2.346   0.838 -1.7311  2.5352  0.4443
46559SOL    HW248456   7.832   2.290   0.741 -1.4206  1.6613  0.6150
46560SOL     OW48457  11.472   4.203   2.513  0.4688  0.1751  0.0123
46560SOL    HW148458  11.517   4.272   2.563 -0.9682  1.3238 -0.2110
46560SOL    HW248459  11.483   4.228   2.422 -2.5411  1.8624 -0.0218
46561SOL     OW48460   4.884   2.173   8.964 -0.2875 -0.1125  0.5397
46561SOL    HW148461   4.848   2.261   8.950 -0.7790 -0.6997 -2.5993
46561SOL    HW248462   4.809   2.115   8.952  0.2013 -1.0240  1.7798
46562SOL     OW48463   1.189   5.610   0.144 -0.0717  0.5589  0.4127
46562SOL    HW148464   1.273   5.605   0.097  0.0744  0.9313  0.6225
46562SOL    HW248465   1.183   5.528   0.192  0.5335  0.8349  0.9790
46563SOL     OW48466   4.823  11.316   7.761  0.2464  0.3271 -0.2473
46563SOL    HW148467   4.869  11.266   7.693 -0.7268 -1.4456  0.3296
46563SOL    HW248468   4.893  11.346   7.819  0.8124 -1.6972  0.2167
46564SOL     OW48469  12.522   8.759   4.721 -0.0896 -0.5493 -0.4076
46564SOL    HW148470  12.552   8.682   4.770 -0.3809 -0.8769 -0.7379
46564SOL    HW248471  12.488   8.723   4.639  1.0015  0.0545 -1.1381
46565SOL     OW48472  10.683   7.229   6.860  0.2640 -0.0394  0.1685
46565SOL    HW148473  10.756   7.184   6.904 -0.3302 -2.6021 -1.2872
46565SOL    HW248474  10.720   7.262   6.778 -0.4911 -3.0063 -1.4931
46566SOL     OW48475   6.824   0.326   2.117 -0.3574 -0.5287 -0.7892
46566SOL    HW148476   6.795   0.242   2.084  0.2902 -0.6312 -1.1199
46566SOL    HW248477   6.917   0.313   2.137 -0.7532 -0.5206  1.2265
46567SOL     OW48478   2.986   9.899   2.169 -0.4601  0.0357 -0.2695
46567SOL    HW148479   2.952   9.810   2.179  0.3739 -0.2567  0.0892
46567SOL    HW248480   3.014   9.924   2.257  0.0518  0.3384 -0.5140
46568SOL     OW48481  11.374   4.140   9.529  0.8057 -0.1854  0.6628
46568SOL    HW148482  11.351   4.094   9.448 -2.3314  2.0775  0.0611
46568SOL    HW248483  11.432   4.211   9.501  0.4838  0.0283  0.5309
46569SOL     OW48484   2.514   9.622  10.830 -0.2512 -0.2627 -0.2482
46569SOL    HW148485   2.527   9.606  10.923  1.9137  0.2072 -0.4201
46569SOL    HW248486   2.488   9.714  10.825  0.0746 -0.1621 -0.1271
46570SOL     OW48487   5.038   4.140   5.479  0.1594 -0.0755 -0.0503
46570SOL    HW148488   5.037   4.113   5.571  0.6319  2.1659  0.6761
46570SOL    HW248489   5.110   4.090   5.440  1.9160  1.0848  1.5666
46571SOL     OW48490   7.362   2.101   5.739 -0.5137  0.0412  0.5070
46571SOL    HW148491   7.453   2.073   5.752 -0.9849 -1.6230  0.4818
46571SOL    HW248492   7.317   2.021   5.712 -2.1558  0.6593  1.3298
46572SOL     OW48493   0.732  11.404   3.967  0.1242  0.2443  0.1247
46572SOL    HW148494   0.795  11.477   3.961  0.2032  0.4288  2.2851
46572SOL    HW248495   0.682  11.423   4.046 -1.9192 -0.5081 -0.9315
46573SOL     OW48496   5.918   4.554   3.305  0.2711  0.2849  0.0595
46573SOL    HW148497   5.928   4.620   3.237 -0.2143  1.9023  1.4838
46573SOL    HW248498   5.993   4.567   3.363  1.6441 -2.2310 -1.0329
46574SOL     OW48499   0.416  10.292   8.370  0.0509  0.1475 -0.2064
46574SOL    HW148500   0.449  10.317   8.283 -1.4969  0.2463 -0.7965
46574SOL    HW248501   0.343  10.233   8.352 -0.7854  0.7718  1.0121
46575SOL     OW48502   5.725   5.116   6.127  0.2193  0.0858  0.2305
46575SOL    HW148503   5.738   5.043   6.067 -1.2398  0.9633 -1.2413
46575SOL    HW248504   5.640   5.099   6.167  1.0625 -0.3582  1.9277
46576SOL     OW48505   6.329  11.331   3.591 -0.2679 -0.6732  0.2921
46576SOL    HW148506   6.394  11.326   3.661  0.0077 -1.3348 -0.0087
46576SOL    HW248507   6.253  11.284   3.625 -0.9991  0.9812  1.0616
46577SOL     OW48508  10.562  10.951  11.571 -0.0952  0.0625 -0.1837
46577SOL    HW148509  10.567  10.890  11.644  2.1743  0.4367  0.0413
46577SOL    HW248510  10.600  11.032  11.604  0.0158  0.5681 -1.4707
46578SOL     OW48511   7.145   5.664   0.455 -0.5829 -0.0832 -0.0806
46578SOL    HW148512   7.067   5.688   0.505 -1.1397  0.2087 -1.0596
46578SOL    HW248513   7.123   5.686   0.365  0.8084  0.4189 -0.3233
46579SOL     OW48514   0.046  10.488   8.320 -0.1722  0.3351  0.0994
46579SOL    HW148515  -0.038  10.443   8.313 -0.3382  0.5865  0.4391
46579SOL    HW248516   0.087  10.477   8.234  1.1035 -3.0645  0.9716
46580SOL     OW48517   6.799   7.716   3.524 -0.3074 -0.0960 -0.6376
46580SOL    HW148518   6.772   7.800   3.560 -1.1893 -0.6409  0.0297
46580SOL    HW248519   6.830   7.666   3.600  4.1091  0.9695 -1.5003
46581SOL     OW48520   2.259   9.615   4.594  0.0033  0.2095  0.2425
46581SOL    HW148521   2.314   9.651   4.524  0.2942  0.5679  0.6452
46581SOL    HW248522   2.170   9.617   4.558  0.1941  0.0577 -0.2460
46582SOL     OW48523   2.332  11.491   6.103  0.3042 -0.1516 -0.4540
46582SOL    HW148524   2.311  11.525   6.190  0.7691 -2.5679  0.6977
46582SOL    HW248525   2.247  11.484   6.059 -0.2557 -1.1375  0.7188
46583SOL     OW48526   8.480   9.847   1.655 -0.6013  0.7825 -0.5998
46583SOL    HW148527   8.386   9.846   1.673 -0.6649  2.9342 -0.5509
46583SOL    HW248528   8.521   9.856   1.741 -0.1958 -1.7822 -0.4369
46584SOL     OW48529  10.908   7.969   3.118  0.8538 -0.3435 -0.2786
46584SOL    HW148530  10.907   7.875   3.101 -0.4343 -0.0181 -2.3076
46584SOL    HW248531  10.831   7.985   3.173  1.2124 -0.4790  0.2759
46585SOL     OW48532   0.359   8.318   7.445 -0.2262 -0.3807 -0.3761
46585SOL    HW148533   0.449   8.332   7.415 -0.3965  0.4013 -0.5483
46585SOL    HW248534   0.310   8.392   7.409 -0.8508 -0.5491  0.1042
46586SOL     OW48535   3.790   9.721   6.896 -0.4964 -0.0400  0.0548
46586SOL    HW148536   3.779   9.645   6.839 -1.6999 -0.0394  0.2487
46586SOL    HW248537   3.700   9.751   6.913 -0.0989  0.6523  1.0220
46587SOL     OW48538   8.519   1.610   5.812  0.2148 -0.1254 -0.1764
46587SOL    HW148539   8.587   1.555   5.774  0.2586  0.1689 -0.5202
46587SOL    HW248540   8.462   1.548   5.859 -0.1638 -0.5675 -1.1893
46588SOL     OW48541   3.244   5.838  10.539 -0.5268  0.1446  1.1697
46588SOL    HW148542   3.311   5.775  10.514 -0.2546  0.4273  1.1804
46588SOL    HW248543   3.220   5.882  10.457 -0.3845  0.3444  1.2335
46589SOL     OW48544   4.665  11.259   6.712  0.1989  0.1831  0.4763
46589SOL    HW148545   4.694  11.347   6.737 -0.7403  1.2348 -1.7595
46589SOL    HW248546   4.717  11.239   6.634 -0.5623 -0.6330  0.1640
46590SOL     OW48547   2.395   8.432   1.982 -0.1199  1.0936  0.0675
46590SOL    HW148548   2.429   8.485   1.910  2.0235  2.3189  1.8435
46590SOL    HW248549   2.472   8.384   2.014 -1.0884  0.3456  1.3504
46591SOL     OW48550   0.716   1.440   4.464 -0.7343 -0.5166 -0.2798
46591SOL    HW148551   0.658   1.457   4.538  2.2488  1.6232  1.7609
46591SOL    HW248552   0.734   1.346   4.469 -3.0949 -1.0456 -0.3801
46592SOL     OW48553   7.034  10.685   5.718  0.0469  0.8388 -0.0309
46592SOL    HW148554   6.961  10.703   5.659 -0.9970 -1.4691  0.4362
46592SOL    HW248555   7.102  10.649   5.660 -0.0812  0.7799 -0.1471
46593SOL     OW48556   3.900  11.421   6.966  0.4865 -0.2364 -0.0086
46593SOL    HW148557   3.985  11.393   6.998  0.6651  0.3289  0.0291
46593SOL    HW248558   3.847  11.341   6.964  0.5620 -0.3464  1.3985
46594SOL     OW48559   8.691   4.923  12.286  0.4034  0.0636 -0.5569
46594SOL    HW148560   8.737   4.943  12.205  1.3074  0.0236 -0.0715
46594SOL    HW248561   8.759   4.928  12.354 -0.5864  1.4523  0.3884
46595SOL     OW48562   0.785   8.905   6.256  0.2502  0.2195 -0.5161
46595SOL    HW148563   0.720   8.882   6.191  1.1401 -2.7007 -0.5247
46595SOL    HW248564   0.869   8.899   6.209  0.6758  1.8563 -0.0117
46596SOL     OW48565   7.821   1.086  11.269  0.3178  0.1977 -0.2288
46596SOL    HW148566   7.908   1.122  11.254  0.6049  0.5715  2.0074
46596SOL    HW248567   7.837   0.996  11.298 -0.0096  0.3156  0.3404
46597SOL     OW48568   0.062   5.343  10.977 -0.0827 -0.2648  0.3343
46597SOL    HW148569   0.138   5.318  11.030  0.5698  2.5657  0.9123
46597SOL    HW248570   0.100   5.376  10.895 -0.6269  1.3150  0.6824
46598SOL     OW48571   9.573   3.019   7.872 -0.1572  0.2500 -0.0444
46598SOL    HW148572   9.562   3.090   7.935 -2.2187 -0.1498  0.1155
46598SOL    HW248573   9.644   2.966   7.907 -0.9343  0.3093  1.7099
46599SOL     OW48574   8.774  11.431   9.977 -0.1434  1.0468 -0.5192
46599SOL    HW148575   8.826  11.466  10.050  0.3517  0.3868 -0.5489
46599SOL    HW248576   8.803  11.481   9.901  0.7199  0.4381 -0.6018
46600SOL     OW48577   0.212   2.011   4.401 -0.1676  0.3578  0.2852
46600SOL    HW148578   0.143   1.952   4.431 -1.1958  1.2065 -0.3269
46600SOL    HW248579   0.286   1.993   4.459 -1.3599  0.4110  1.8804
46601SOL     OW48580   7.049   9.253  10.776  0.1830 -0.3994 -0.1919
46601SOL    HW148581   6.987   9.207  10.720 -2.2834  0.7603  1.3967
46601SOL    HW248582   7.049   9.203  10.858  3.4149 -1.8395 -0.9263
46602SOL     OW48583   5.817  10.586   0.179  0.2186 -0.0470 -0.1999
46602SOL    HW148584   5.746  10.647   0.159  0.7190  0.3136 -0.8908
46602SOL    HW248585   5.844  10.551   0.094  0.8925 -0.1587  0.0546
46603SOL     OW48586   0.116   2.544   7.032  0.4546 -0.2418  0.2438
46603SOL    HW148587   0.070   2.595   6.965  3.7565  2.0730 -0.4924
46603SOL    HW248588   0.046   2.507   7.086 -2.2408  1.7846 -1.5953
46604SOL     OW48589  10.342   2.318   3.092  0.3469 -0.5442  0.3024
46604SOL    HW148590  10.407   2.361   3.037 -2.0210  2.4320 -0.4512
46604SOL    HW248591  10.294   2.261   3.032 -0.3448  0.4447 -0.1090
46605SOL     OW48592   3.061   0.769   0.835 -0.2560  0.4842 -0.4002
46605SOL    HW148593   3.048   0.824   0.912  0.2242  1.2250 -0.8380
46605SOL    HW248594   2.979   0.777   0.786 -0.8649 -0.6149  0.4071
46606SOL     OW48595   2.396   3.153  10.101 -0.3558  0.4697 -0.2837
46606SOL    HW148596   2.336   3.199  10.042  0.5101 -1.0539 -2.5119
46606SOL    HW248597   2.477   3.203  10.096 -0.1943  0.1778 -0.6469
46607SOL     OW48598   6.948   8.879   7.526 -0.3827 -0.3708  0.1457
46607SOL    HW148599   6.902   8.864   7.608 -0.7683  1.8401  0.3963
46607SOL    HW248600   6.933   8.799   7.475 -1.7529 -0.9970  1.4634
46608SOL     OW48601   2.417   5.886  12.475  0.5970  0.2732  0.3416
46608SOL    HW148602   2.346   5.859  12.417  0.4541 -0.7325  0.9581
46608SOL    HW248603   2.403   5.980  12.489 -0.8759 -0.0007  0.8237
46609SOL     OW48604   1.290   1.520   8.273  0.3138  0.1177  1.1275
46609SOL    HW148605   1.378   1.484   8.261  0.5090  0.6073  1.0383
46609SOL    HW248606   1.294   1.606   8.231  0.3511  0.9406  2.7483
46610SOL     OW48607   2.505  11.620   4.117 -0.4321 -0.2358 -0.5838
46610SOL    HW148608   2.473  11.616   4.207 -1.6927 -0.5735 -1.0281
46610SOL    HW248609   2.554  11.539   4.105 -0.1997 -0.1579 -0.1888
46611SOL     OW48610   3.989  11.799   6.130 -0.2322 -0.2280  0.1432
46611SOL    HW148611   4.018  11.779   6.041  0.0133  1.1708 -0.1168
46611SOL    HW248612   4.025  11.886   6.148  1.5660 -1.3283  2.4388
46612SOL     OW48613   5.127   7.815   7.092  0.9388 -0.7038  0.3656
46612SOL    HW148614   5.148   7.755   7.021 -1.3299 -0.7109 -0.3799
46612SOL    HW248615   5.072   7.764   7.151 -0.5718  0.4434  0.0081
46613SOL     OW48616   0.872   2.889  12.217  0.4208  0.3913  0.1773
46613SOL    HW148617   0.940   2.920  12.158 -0.3722  0.9065 -0.4997
46613SOL    HW248618   0.793   2.936  12.188 -0.2844 -0.4328  0.7259
46614SOL     OW48619   8.018   7.800   3.556  0.0763 -0.0647  0.1248
46614SOL    HW148620   7.999   7.817   3.464 -1.3041 -1.6603  0.0558
46614SOL    HW248621   8.063   7.715   3.557  1.7589  0.7743  0.8224
46615SOL     OW48622   4.745   8.957   2.401 -0.0919  0.4494 -0.3341
46615SOL    HW148623   4.696   9.035   2.375  1.2673  1.2221 -0.6709
46615SOL    HW248624   4.718   8.889   2.339  2.6876  2.0997 -3.7061
46616SOL     OW48625   0.096   5.607   7.598 -0.1335  0.0075 -0.4229
46616SOL    HW148626   0.066   5.564   7.677  0.2088  0.9114  0.2106
46616SOL    HW248627   0.092   5.539   7.530  0.8127 -1.1505  0.6371
46617SOL     OW48628   8.396   5.181  10.786  0.4985  0.3115 -0.0173
46617SOL    HW148629   8.344   5.105  10.762  1.6894 -0.1730 -1.1321
46617SOL    HW248630   8.368   5.250  10.725 -1.2766  1.1412  1.5935
46618SOL     OW48631   1.295   9.511   8.247  0.1955 -0.1670  0.3025
46618SOL    HW148632   1.265   9.530   8.158 -0.3753 -0.8098  0.3433
46618SOL    HW248633   1.257   9.580   8.301  2.2724  1.4672 -0.2134
46619SOL     OW48634   2.731   8.607   5.887 -0.3614  0.0853 -0.1862
46619SOL    HW148635   2.691   8.658   5.817  0.9010  1.0476 -0.2413
46619SOL    HW248636   2.675   8.623   5.963 -1.1852 -0.1834 -0.7236
46620SOL     OW48637   8.855   4.305   3.585  0.0661  0.0685  0.3852
46620SOL    HW148638   8.770   4.270   3.557  0.0518  0.3325  0.0980
46620SOL    HW248639   8.920   4.250   3.543  0.0385 -0.2164  0.7105
46621SOL     OW48640  12.538   9.496   8.976  0.1295  0.0968 -0.5167
46621SOL    HW148641  12.444   9.507   8.989  0.0485 -1.8647  0.8970
46621SOL    HW248642  12.547   9.417   8.923  1.0102 -0.1758  0.0092
46622SOL     OW48643   6.540  11.052   5.304 -0.3028 -0.0830 -0.0604
46622SOL    HW148644   6.519  10.995   5.378 -0.9298  0.2077 -0.0047
46622SOL    HW248645   6.568  10.992   5.235 -1.6055 -0.5255 -0.2242
46623SOL     OW48646   5.608   1.354   4.041 -0.0077  0.0198 -0.2512
46623SOL    HW148647   5.513   1.361   4.037  0.0080  0.8744  0.4409
46623SOL    HW248648   5.625   1.297   4.116  0.0432  0.8038  0.3361
46624SOL     OW48649  10.817   4.087  11.932 -0.2887  0.1527  0.3789
46624SOL    HW148650  10.869   4.159  11.898  0.0746 -1.3199 -2.4525
46624SOL    HW248651  10.734   4.126  11.958  0.2723  1.7194 -0.1058
46625SOL     OW48652   9.776   5.284   6.958 -0.4082 -0.3119  0.1968
46625SOL    HW148653   9.709   5.336   6.915 -0.5855  0.2389  1.1050
46625SOL    HW248654   9.852   5.288   6.900  0.0979  2.2501  0.9152
46626SOL     OW48655   5.710  11.424   0.939  0.0617 -0.4173 -0.2690
46626SOL    HW148656   5.792  11.430   0.889 -1.2110  1.9409 -2.2901
46626SOL    HW248657   5.710  11.502   0.994 -1.0813 -0.0597 -0.7473
46627SOL     OW48658  10.407   7.267   1.284  0.4930 -0.5768  0.1826
46627SOL    HW148659  10.337   7.272   1.349 -0.0981 -0.2679 -0.4754
46627SOL    HW248660  10.410   7.354   1.245  0.4064 -0.9493 -0.6650
46628SOL     OW48661  11.353   9.598   1.192  0.3583 -0.2535  0.1044
46628SOL    HW148662  11.366   9.650   1.113 -1.7759 -0.0696 -0.2091
46628SOL    HW248663  11.374   9.657   1.264 -3.1030  1.6162 -0.1894
46629SOL     OW48664   5.785  10.930  10.268  0.3537  0.2609 -0.1379
46629SOL    HW148665   5.706  10.967  10.309  0.6945  1.5048 -0.5709
46629SOL    HW248666   5.849  11.001  10.271  1.9175 -1.1361  1.3685
46630SOL     OW48667   9.021   4.884   3.777  0.7670  0.5671 -0.2924
46630SOL    HW148668   9.003   4.840   3.860  1.9097  1.0300  0.2109
46630SOL    HW248669   8.937   4.881   3.730  0.2449 -0.1579  0.6473
46631SOL     OW48670  12.190  11.709  11.569 -0.4537 -0.1701 -0.1691
46631SOL    HW148671  12.258  11.642  11.559 -2.8251 -2.5504 -1.3358
46631SOL    HW248672  12.125  11.688  11.503 -2.5733  1.7553  1.1684
46632SOL     OW48673   9.199   5.227   4.305 -0.0878 -0.1777  0.4183
46632SOL    HW148674   9.164   5.249   4.391  1.9560  2.1262  0.7811
46632SOL    HW248675   9.166   5.297   4.248  0.3187 -0.4591 -0.1727
46633SOL     OW48676  12.379   3.671  12.036 -0.6993  0.1705 -0.4835
46633SOL    HW148677  12.342   3.759  12.044 -0.6693  0.5346 -3.2387
46633SOL    HW248678  12.310   3.619  11.996 -0.6032 -1.0258  0.8115
46634SOL     OW48679   0.832   0.083   3.454 -0.3051  0.0393 -0.3337
46634SOL    HW148680   0.860  -0.002   3.419 -0.0683  0.3637 -0.9465
46634SOL    HW248681   0.885   0.094   3.533 -1.4897 -1.1109  0.6702
46635SOL     OW48682  11.300   6.596   4.557  0.0973  0.0042 -0.6134
46635SOL    HW148683  11.262   6.555   4.636  1.0679 -0.8154 -0.5516
46635SOL    HW248684  11.241   6.669   4.537 -0.5749 -0.2277  0.4424
46636SOL     OW48685   8.875   4.999   4.915 -0.1697  0.3261 -0.0643
46636SOL    HW148686   8.890   4.955   4.832  0.6699 -0.0911  0.2983
46636SOL    HW248687   8.913   4.941   4.981 -1.0792  0.5099  0.6484
46637SOL     OW48688  11.737   7.977   3.064 -0.1039  0.1178 -0.6875
46637SOL    HW148689  11.792   7.986   2.986  0.0136  0.8515 -0.5274
46637SOL    HW248690  11.650   7.958   3.030 -0.2746  1.4511 -1.0568
46638SOL     OW48691   9.275   8.141   0.515  0.5584 -0.6638 -0.0642
46638SOL    HW148692   9.370   8.133   0.524  0.6923 -0.5153 -1.2759
46638SOL    HW248693   9.241   8.060   0.552  1.2538 -1.4954 -1.2017
46639SOL     OW48694  11.257   6.541   3.386 -0.7220 -0.4605 -0.3738
46639SOL    HW148695  11.321   6.606   3.358 -0.1539  0.0139  1.8462
46639SOL    HW248696  11.309   6.468   3.419 -1.2970 -0.2829  0.9826
46640SOL     OW48697   2.412   6.252   4.783 -0.4657 -0.2207 -0.4279
46640SOL    HW148698   2.387   6.310   4.854 -0.2044 -0.3025 -0.2680
46640SOL    HW248699   2.498   6.219   4.808 -0.9266 -1.2634 -0.1474
46641SOL     OW48700  10.258   3.324   9.894 -0.2349  0.0859  0.2161
46641SOL    HW148701  10.223   3.337   9.805 -1.3602 -1.1045  0.4492
46641SOL    HW248702  10.331   3.385   9.900 -1.5060  1.8189 -0.7573
46642SOL     OW48703   1.109   2.923   1.112 -0.3522  0.3653  0.1152
46642SOL    HW148704   1.154   2.997   1.072 -1.9036  0.0617 -2.4516
46642SOL    HW248705   1.073   2.874   1.038 -2.1493 -1.1555  1.8657
46643SOL     OW48706   5.586   2.404  11.946  0.1536 -0.5105  0.2066
46643SOL    HW148707   5.628   2.407  12.032  0.7822 -0.7242 -0.0879
46643SOL    HW248708   5.645   2.351  11.892 -0.3132 -0.5095 -0.3149
46644SOL     OW48709   4.716   5.961   1.940  0.2065 -0.1767  0.1140
46644SOL    HW148710   4.680   6.047   1.918 -0.0068 -0.6753 -1.6507
46644SOL    HW248711   4.639   5.907   1.961  0.4239  0.4044  2.8119
46645SOL     OW48712   9.302   3.634  11.907 -0.0941  0.8998 -0.0393
46645SOL    HW148713   9.307   3.597  11.995  0.0473  1.4675  0.1957
46645SOL    HW248714   9.213   3.614  11.878  0.6172 -1.5574 -0.8019
46646SOL     OW48715   0.452   7.906  10.998 -0.1326  0.5735 -0.3276
46646SOL    HW148716   0.542   7.925  10.974  0.1141 -0.5498 -0.3092
46646SOL    HW248717   0.423   7.983  11.047  1.2746  0.3222  0.9309
46647SOL     OW48718   7.362   4.709   6.385 -0.2325  0.8124 -0.0885
46647SOL    HW148719   7.299   4.683   6.318 -1.8076 -0.0630  1.6228
46647SOL    HW248720   7.444   4.667   6.359 -0.6024  1.0915 -1.8166
46648SOL     OW48721   1.000   8.999  12.149 -0.0786 -0.1602  0.1663
46648SOL    HW148722   1.083   8.995  12.195  0.3873 -1.3476 -0.7254
46648SOL    HW248723   0.951   9.068  12.194  1.4812  0.7731  0.5258
46649SOL     OW48724   9.948   3.828   3.940  0.7515  0.0192  0.3217
46649SOL    HW148725   9.908   3.745   3.965  1.7864 -1.0703 -1.3678
46649SOL    HW248726  10.037   3.823   3.975  1.0193  0.1052 -0.3196
46650SOL     OW48727   4.507   9.690  11.677  0.4272  0.4026  0.3449
46650SOL    HW148728   4.427   9.722  11.718  0.0700 -1.2360  1.0123
46650SOL    HW248729   4.476   9.631  11.608  1.0129 -1.2429  1.4277
46651SOL     OW48730   1.447   7.207   3.098 -0.6439 -0.1298 -0.1624
46651SOL    HW148731   1.373   7.162   3.139 -1.6693  2.3309  0.9256
46651SOL    HW248732   1.408   7.284   3.057  1.1871  0.6648 -0.5080
46652SOL     OW48733   9.103  11.468   1.195  0.0537 -0.5767 -0.0760
46652SOL    HW148734   9.097  11.544   1.252 -0.7333 -0.9379  0.3479
46652SOL    HW248735   9.024  11.472   1.142  0.2589 -0.8196 -0.4021
46653SOL     OW48736   3.140   0.819   9.963 -0.4653 -0.4151 -0.9112
46653SOL    HW148737   3.115   0.910   9.947  0.4807 -0.0201 -0.2412
46653SOL    HW248738   3.085   0.792  10.037 -0.8223 -0.4214 -1.1792
46654SOL     OW48739   2.930  12.244   2.322 -0.0720  0.0606  0.0168
46654SOL    HW148740   2.965  12.310   2.262 -0.3439 -0.6177 -0.9208
46654SOL    HW248741   2.978  12.258   2.404  2.1549 -0.5998 -1.0948
46655SOL     OW48742  10.241   6.431  10.809 -0.1783 -0.0937 -0.0236
46655SOL    HW148743  10.250   6.342  10.843  0.5128  0.5453  1.5628
46655SOL    HW248744  10.321   6.475  10.836  0.2573  0.5968 -2.2165
46656SOL     OW48745   0.074   8.821   8.895 -0.2274 -0.0488  0.1508
46656SOL    HW148746   0.108   8.773   8.819  0.4601  0.2795  0.2372
46656SOL    HW248747   0.146   8.879   8.920 -0.4073 -0.2366  1.1286
46657SOL     OW48748   1.272   0.170  10.993  0.4178 -0.4387  0.0182
46657SOL    HW148749   1.307   0.085  11.022  0.8741  0.4557  2.3011
46657SOL    HW248750   1.269   0.223  11.073 -0.1868  1.6010 -1.2890
46658SOL     OW48751   8.900   3.815   0.482  0.4335  0.0093  0.3836
46658SOL    HW148752   8.832   3.780   0.539  1.8571 -0.5485  1.8159
46658SOL    HW248753   8.877   3.783   0.395 -0.5669 -1.0397  1.0050
46659SOL     OW48754   1.083   7.926  12.262  0.4822 -0.2506  0.1248
46659SOL    HW148755   1.009   7.922  12.201  0.0754  0.2987  0.5625
46659SOL    HW248756   1.160   7.938  12.207 -0.0425  1.8202 -0.2268
46660SOL     OW48757   0.713   0.288   9.290  0.5418 -0.1872 -0.0923
46660SOL    HW148758   0.778   0.219   9.279  0.9440  0.3269 -1.1931
46660SOL    HW248759   0.703   0.325   9.202 -0.4400  0.4613  0.2724
46661SOL     OW48760  12.439   4.554   2.132  0.3166 -0.4260 -0.1249
46661SOL    HW148761  12.353   4.515   2.118  0.4230 -0.9240  0.5594
46661SOL    HW248762  12.447   4.619   2.062 -0.6255 -0.3418 -0.1694
46662SOL     OW48763   7.495   4.043   4.810 -0.4699 -0.6314  0.3061
46662SOL    HW148764   7.476   4.110   4.743 -2.0193 -0.1344  1.1710
46662SOL    HW248765   7.561   3.987   4.770 -1.2296 -0.2687 -1.5987
46663SOL     OW48766   2.676   8.327   6.053 -0.1803 -0.2372  0.6847
46663SOL    HW148767   2.738   8.264   6.091  0.5046 -1.1799 -1.8020
46663SOL    HW248768   2.732   8.389   6.005 -1.0539  0.3019  0.3387
46664SOL     OW48769   1.014   1.283   3.873 -0.2838  0.0029  0.2364
46664SOL    HW148770   1.091   1.329   3.906  0.3188  0.4752 -1.6984
46664SOL    HW248771   1.041   1.191   3.871  1.1300  0.3782 -2.5117
46665SOL     OW48772  11.832   2.894   3.174  0.0059  0.1940  0.2895
46665SOL    HW148773  11.749   2.851   3.195  0.7026 -2.0902 -1.2953
46665SOL    HW248774  11.886   2.883   3.252 -1.0339  1.4448  1.2251
46666SOL     OW48775   7.858   4.336   1.195  0.2559  0.3745 -0.3567
46666SOL    HW148776   7.942   4.311   1.232  0.7052  0.6171 -1.1983
46666SOL    HW248777   7.851   4.430   1.212  0.0687  0.3250 -0.1419
46667SOL     OW48778   5.169   4.047   4.008 -0.0280  0.0664 -0.2951
46667SOL    HW148779   5.228   4.117   4.035 -0.5689 -0.3175  2.0592
46667SOL    HW248780   5.124   4.020   4.088 -3.0331 -0.0467 -1.8610
46668SOL     OW48781   6.434   8.198   5.213  0.8101  0.1363  0.2958
46668SOL    HW148782   6.472   8.152   5.288 -0.6944 -0.2465  0.8591
46668SOL    HW248783   6.486   8.278   5.205 -1.1336  2.0528  4.0768
46669SOL     OW48784   8.794   0.045   0.000 -0.3449  0.0627 -0.0929
46669SOL    HW148785   8.709   0.059   0.043  1.0949  2.7349  2.2110
46669SOL    HW248786   8.852   0.017   0.071  0.9742 -0.7367 -1.4349
46670SOL     OW48787   1.226   4.105   3.155  0.8589 -0.3113  0.6431
46670SOL    HW148788   1.199   4.036   3.216  1.2243 -0.9109  0.1256
46670SOL    HW248789   1.269   4.059   3.083  1.4527  0.4896  0.4800
46671SOL     OW48790   7.027   6.626   0.264  0.1074 -0.2007 -0.2204
46671SOL    HW148791   6.969   6.693   0.229  1.0943  0.5543 -0.4595
46671SOL    HW248792   7.065   6.666   0.343  0.9536 -0.3390 -0.5465
46672SOL     OW48793   9.987   5.821   2.440 -0.1550  0.0359 -0.4656
46672SOL    HW148794  10.064   5.766   2.429 -1.3742 -1.9911  0.5778
46672SOL    HW248795   9.913   5.761   2.431 -1.5517  1.3744  1.3675
46673SOL     OW48796   9.497   5.760   0.561  0.0711 -0.2528 -0.0754
46673SOL    HW148797   9.412   5.792   0.592  0.2689 -0.4025  0.6293
46673SOL    HW248798   9.549   5.839   0.548  0.5305 -0.2538  1.5783
46674SOL     OW48799   0.773  11.833   2.129 -0.1968 -0.4173 -0.0797
46674SOL    HW148800   0.735  11.832   2.217 -1.0880 -0.0865 -0.4421
46674SOL    HW248801   0.697  11.832   2.071  0.3873 -0.9895 -0.8496
46675SOL     OW48802   2.080   5.528   9.197 -0.3115  0.2080 -0.3815
46675SOL    HW148803   2.011   5.497   9.257 -1.6553  1.1520 -1.3864
46675SOL    HW248804   2.155   5.543   9.253 -0.5029 -2.0353  0.5884
46676SOL     OW48805  10.662   5.878   6.014  0.0305  0.0844  0.2119
46676SOL    HW148806  10.605   5.955   6.017 -0.4888 -0.3275  1.1875
46676SOL    HW248807  10.639   5.828   6.092 -0.0739 -1.3714 -0.7087
46677SOL     OW48808  12.108   6.949   8.998  0.5008 -0.5465  0.6944
46677SOL    HW148809  12.075   7.008   8.930  1.4889 -0.3420  0.3780
46677SOL    HW248810  12.105   7.002   9.078  3.1314  0.6551  0.1159
46678SOL     OW48811   3.817  11.407   2.700  0.4201  0.4576 -0.2215
46678SOL    HW148812   3.858  11.356   2.630 -2.4551 -1.6410 -0.5675
46678SOL    HW248813   3.890  11.444   2.749  2.6848 -2.2946 -1.2498
46679SOL     OW48814  10.694  10.659   4.239 -0.0727  0.1684 -0.1281
46679SOL    HW148815  10.772  10.708   4.264 -0.9460  1.9863 -0.7611
46679SOL    HW248816  10.697  10.580   4.292  2.8892 -0.5065 -1.0932
46680SOL     OW48817   6.538   0.328  11.318  0.3198  0.2286  0.2828
46680SOL    HW148818   6.472   0.329  11.248  2.2165 -1.0399 -1.6370
46680SOL    HW248819   6.577   0.415  11.316 -0.4994  0.6096  0.6466
46681SOL     OW48820   2.854   7.579   9.078  0.5034  0.4429 -0.2643
46681SOL    HW148821   2.908   7.657   9.089  0.2520  0.4638  0.9040
46681SOL    HW248822   2.846   7.542   9.165  1.3607 -1.4172 -0.9322
46682SOL     OW48823   0.258   1.324  11.922 -0.1032 -0.4609  0.0411
46682SOL    HW148824   0.296   1.295  11.839 -1.3043 -0.7789 -0.4194
46682SOL    HW248825   0.260   1.420  11.917 -0.3822 -0.4759 -0.4628
46683SOL     OW48826  10.251   8.051  10.340 -0.9465  0.4890 -0.4949
46683SOL    HW148827  10.165   8.010  10.337 -0.2690 -1.2854  1.7953
46683SOL    HW248828  10.313   7.979  10.348  0.5574  1.8029  0.4821
46684SOL     OW48829   1.710  12.271   4.525 -0.2373  0.3298  0.3079
46684SOL    HW148830   1.741  12.198   4.471  0.0487  0.5681  0.1402
46684SOL    HW248831   1.635  12.306   4.477 -2.0387 -1.4590  1.6827
46685SOL     OW48832  12.184   5.988   1.911  0.4445  0.1263 -0.2189
46685SOL    HW148833  12.213   5.899   1.890 -1.5722 -1.3371  2.4518
46685SOL    HW248834  12.129   6.014   1.837  0.1831 -1.3259 -0.5705
46686SOL     OW48835   2.505  11.836   6.783  0.0728 -0.1592 -0.1114
46686SOL    HW148836   2.428  11.780   6.790 -0.2248  0.0195 -1.5389
46686SOL    HW248837   2.498  11.898   6.856 -0.5611 -0.8139  0.3913
46687SOL     OW48838   1.874   8.135   9.379 -0.5785  0.1700  0.0808
46687SOL    HW148839   1.834   8.218   9.403  0.2359  0.2912  1.1079
46687SOL    HW248840   1.808   8.091   9.326 -1.1125  1.3678 -0.2883
46688SOL     OW48841   4.640  11.265  12.381 -0.2479 -0.6465 -0.9961
46688SOL    HW148842   4.571  11.324  12.350 -0.4566 -0.5519 -0.3539
46688SOL    HW248843   4.670  11.303  12.464  0.0071 -1.1375 -0.8587
46689SOL     OW48844  11.224  12.330   9.980  0.4832 -0.1261 -0.2003
46689SOL    HW148845  11.244  12.251   9.929 -0.0668  0.9057 -2.1267
46689SOL    HW248846  11.132  12.319  10.005  0.9683 -1.0043  1.3698
46690SOL     OW48847   8.561   1.351   3.476  0.2999  0.2721  0.1346
46690SOL    HW148848   8.489   1.339   3.538  0.8198 -0.2456  0.6487
46690SOL    HW248849   8.640   1.331   3.527  0.6033 -2.6240 -1.3103
46691SOL     OW48850   7.346   1.013   1.981  0.3881 -0.2308  0.5863
46691SOL    HW148851   7.271   1.040   2.034 -0.1111 -0.8772  0.2239
46691SOL    HW248852   7.311   1.006   1.892  1.1655  0.6249  0.1957
46692SOL     OW48853  11.916   4.512   0.558  0.2440 -0.3916 -0.4105
46692SOL    HW148854  11.956   4.565   0.489  1.0594 -0.4882 -0.0219
46692SOL    HW248855  11.944   4.422   0.539 -0.0516 -0.5063 -0.3131
46693SOL     OW48856   7.686   3.243  11.029  0.3913  0.1794  0.2893
46693SOL    HW148857   7.598   3.246  11.066  0.7517 -1.5681  1.4046
46693SOL    HW248858   7.684   3.305  10.956 -1.1748  1.6279  1.4908
46694SOL     OW48859  12.176   0.326   7.266 -0.0623  0.5404  0.1930
46694SOL    HW148860  12.194   0.340   7.173 -0.3846 -0.4770 -0.0394
46694SOL    HW248861  12.247   0.268   7.295 -0.5463 -0.0078  0.3116
46695SOL     OW48862   8.315   4.192   2.907  0.1741 -0.5052  0.2752
46695SOL    HW148863   8.252   4.124   2.884 -0.9096  0.4755  0.2303
46695SOL    HW248864   8.400   4.152   2.895 -0.4010 -1.2262 -1.7236
46696SOL     OW48865  10.265   4.448   8.161 -0.3868  0.0178 -0.7303
46696SOL    HW148866  10.344   4.420   8.206  0.4510  1.1200 -1.4509
46696SOL    HW248867  10.253   4.383   8.091 -1.4048 -1.4044  0.7105
46697SOL     OW48868   9.422   3.198   0.156  0.2203  0.1059 -0.4363
46697SOL    HW148869   9.347   3.185   0.097  0.0325  0.7906 -0.3619
46697SOL    HW248870   9.498   3.174   0.104 -0.1296 -2.2849  0.0076
46698SOL     OW48871   5.989   6.689  10.139  0.2803 -0.1348 -0.1028
46698SOL    HW148872   6.025   6.611  10.182  0.6620 -0.4880 -1.0317
46698SOL    HW248873   5.901   6.663  10.113  0.4131 -0.2665 -0.4257
46699SOL     OW48874   8.329   4.422   7.420 -0.6262  0.4621  0.3448
46699SOL    HW148875   8.307   4.446   7.510 -1.9422 -0.7493  0.3910
46699SOL    HW248876   8.333   4.326   7.421 -2.3865  0.3092 -1.2067
46700SOL     OW48877   9.524   9.578   3.560 -0.4149 -0.4838  0.2406
46700SOL    HW148878   9.440   9.602   3.599 -0.0558  0.4253  0.4784
46700SOL    HW248879   9.568   9.527   3.628 -1.1406 -1.7946 -0.2303
46701SOL     OW48880   4.999   8.818   6.530 -1.4705  0.0697 -0.2611
46701SOL    HW148881   4.967   8.754   6.467 -0.4307 -0.0203 -0.7196
46701SOL    HW248882   5.066   8.772   6.580 -0.1351  0.9788 -1.1276
46702SOL     OW48883   8.829  12.171  11.454  0.0118  0.0142  0.2216
46702SOL    HW148884   8.886  12.200  11.382 -0.3490 -1.0793 -0.5379
46702SOL    HW248885   8.881  12.182  11.533  0.2290  1.7493 -0.1391
46703SOL     OW48886  10.930   4.233   5.315 -0.7704  0.3286  0.5862
46703SOL    HW148887  11.021   4.208   5.300 -0.7139  1.1065 -0.4935
46703SOL    HW248888  10.935   4.310   5.371 -0.7833  0.0965  0.9060
46704SOL     OW48889   8.272   9.143   4.435  0.3366  0.1628 -0.0127
46704SOL    HW148890   8.292   9.108   4.348  0.1606  0.7602 -0.2974
46704SOL    HW248891   8.318   9.084   4.495 -0.2300 -0.7503 -0.4567
46705SOL     OW48892   9.976   6.882   3.643  0.4245  0.0811  0.3759
46705SOL    HW148893   9.979   6.974   3.618  2.0601  0.9774  3.2947
46705SOL    HW248894  10.063   6.849   3.621 -0.0677 -0.7062 -0.4162
46706SOL     OW48895   0.830   6.516   3.840 -0.5786 -0.3666  0.6567
46706SOL    HW148896   0.917   6.479   3.828  0.8742  3.0024 -0.5919
46706SOL    HW248897   0.773   6.441   3.857  2.3701 -2.7962  0.5160
46707SOL     OW48898   1.963   4.272   3.007 -0.4780  0.4722  0.4251
46707SOL    HW148899   1.991   4.201   2.949  1.7037  2.2645 -0.8939
46707SOL    HW248900   1.889   4.312   2.960 -1.6148 -0.7903  1.1016
46708SOL     OW48901   0.009   3.364  10.928 -0.6124  0.2453 -0.4238
46708SOL    HW148902  -0.034   3.299  10.872 -1.8691 -0.5222  1.3159
46708SOL    HW248903   0.095   3.327  10.946  0.4080  1.1754 -2.8909
46709SOL     OW48904   2.382   5.446   9.742 -0.2802 -0.4418  0.2121
46709SOL    HW148905   2.424   5.490   9.669 -0.5560  0.4030  0.5491
46709SOL    HW248906   2.386   5.353   9.720 -1.5309 -0.1296 -1.5233
46710SOL     OW48907   9.158   4.511   0.111 -0.4303 -0.3237 -0.3357
46710SOL    HW148908   9.110   4.586   0.146 -0.8532 -0.5708 -0.3847
46710SOL    HW248909   9.201   4.545   0.032 -1.2979 -0.3466 -0.8246
46711SOL     OW48910   9.731   0.605   0.756  0.0688 -0.2820 -0.1716
46711SOL    HW148911   9.642   0.631   0.732 -0.8490 -2.2423  0.9073
46711SOL    HW248912   9.785   0.635   0.682 -1.4767  0.8650 -0.8887
46712SOL     OW48913   5.182   5.702   8.249  0.1481  0.4350  0.4258
46712SOL    HW148914   5.116   5.769   8.232  0.0974  0.4166  0.5470
46712SOL    HW248915   5.266   5.745   8.233  0.0639 -0.1038 -1.7648
46713SOL     OW48916   1.488   0.887   8.725 -0.1726 -0.2220 -0.3754
46713SOL    HW148917   1.559   0.944   8.757  1.4440 -2.6905  0.7250
46713SOL    HW248918   1.492   0.810   8.781 -1.6289 -1.8958 -2.4154
46714SOL     OW48919   6.061   0.683   8.275  0.2925 -0.2779  0.1618
46714SOL    HW148920   6.115   0.662   8.351 -0.5225 -0.7340  0.6209
46714SOL    HW248921   6.121   0.676   8.201  1.1970  0.5672  0.7876
46715SOL     OW48922   7.731   2.535   2.967  0.4186 -0.0694  0.0272
46715SOL    HW148923   7.778   2.585   2.901 -1.3165  1.1223 -0.3771
46715SOL    HW248924   7.668   2.597   3.004 -0.7366 -1.5340  0.6312
46716SOL     OW48925   9.421   6.430  12.386 -0.3568 -0.1982  0.8638
46716SOL    HW148926   9.343   6.473  12.421  0.2053 -0.2727  2.2687
46716SOL    HW248927   9.477   6.416  12.462  1.3987  0.5766 -0.2396
46717SOL     OW48928  10.799  11.573   4.645 -0.1184  0.3729 -0.4622
46717SOL    HW148929  10.767  11.662   4.660  0.1747  0.6812 -1.5860
46717SOL    HW248930  10.736  11.517   4.690 -0.2945  1.1411  0.2807
46718SOL     OW48931   6.252   8.993  12.517  0.3022 -0.2186 -0.0091
46718SOL    HW148932   6.220   9.014  12.429 -2.8617  0.6617  1.2359
46718SOL    HW248933   6.293   8.907  12.508  0.7540  0.1854 -2.4640
46719SOL     OW48934  10.794   5.491   7.001 -0.4677 -0.2167  0.0645
46719SOL    HW148935  10.720   5.504   6.941  0.1505  0.0390 -0.6441
46719SOL    HW248936  10.854   5.563   6.982 -0.5284  0.2290  1.4164
46720SOL     OW48937   5.875   2.722   6.449  0.4922 -0.7125 -0.0167
46720SOL    HW148938   5.953   2.666   6.447  2.6347  1.9662  0.9581
46720SOL    HW248939   5.872   2.761   6.361  1.6734  0.8494  0.5897
46721SOL     OW48940   3.106  10.859   7.950  0.1456  0.6955 -0.3799
46721SOL    HW148941   3.178  10.920   7.964 -0.8385  1.9014 -0.3229
46721SOL    HW248942   3.115  10.830   7.860  0.9182  0.5295 -0.2513
46722SOL     OW48943   6.491   6.181   3.650 -0.3455 -0.1611  0.3781
46722SOL    HW148944   6.533   6.205   3.733 -0.6314 -0.6303  0.6625
46722SOL    HW248945   6.451   6.263   3.619  0.0945  0.1050  0.5044
46723SOL     OW48946  10.044   6.339  10.670 -0.1727 -0.2848  0.3585
46723SOL    HW148947  10.133   6.350  10.703 -0.0097  0.1150 -0.2050
46723SOL    HW248948   9.992   6.321  10.748 -0.0184  1.9209  1.0485
46724SOL     OW48949  11.237   2.358   6.878 -0.5344  0.4381  0.0265
46724SOL    HW148950  11.307   2.410   6.916 -0.2603  0.8929 -1.0543
46724SOL    HW248951  11.277   2.272   6.863 -0.4339  0.4700  0.1090
46725SOL     OW48952   1.441   2.156  10.151 -0.2329 -0.5206 -0.5237
46725SOL    HW148953   1.430   2.203  10.234 -0.6685  0.2866 -1.0300
46725SOL    HW248954   1.424   2.222  10.083  0.3367 -1.1112 -1.2642
46726SOL     OW48955  12.026   3.354   4.358 -0.9439 -0.1239 -0.0500
46726SOL    HW148956  12.051   3.445   4.340  0.3276 -0.8441 -2.4037
46726SOL    HW248957  11.986   3.324   4.276 -0.1689 -2.0231  0.2151
46727SOL     OW48958   9.157   3.621   8.926  0.2786  0.6321 -0.1269
46727SOL    HW148959   9.239   3.609   8.879  0.4448 -2.7185  0.7606
46727SOL    HW248960   9.180   3.608   9.018 -1.2233 -0.8070  0.0994
46728SOL     OW48961   3.975   3.322   4.383 -0.4217 -0.3166 -0.1358
46728SOL    HW148962   4.031   3.398   4.368 -0.8138 -0.0167 -0.1124
46728SOL    HW248963   4.025   3.266   4.442 -0.8702  0.7848  1.3519
46729SOL     OW48964   6.279   5.462   8.574 -0.1110 -0.1679  0.2748
46729SOL    HW148965   6.261   5.502   8.489 -0.1758  0.3298  0.5182
46729SOL    HW248966   6.262   5.532   8.637  1.9396  0.1359  0.5656
46730SOL     OW48967   7.801   2.988   8.326  0.6318 -0.2769 -0.0644
46730SOL    HW148968   7.757   3.072   8.313 -0.0408 -0.8220 -1.6125
46730SOL    HW248969   7.846   2.997   8.410  1.9993  2.2233 -0.9674
46731SOL     OW48970   0.982  11.023   1.221  0.3144 -1.0397 -0.3849
46731SOL    HW148971   1.070  10.988   1.232  0.4110 -0.6100  0.2914
46731SOL    HW248972   0.938  11.003   1.304  0.5131  0.7776  0.2072
46732SOL     OW48973   6.650  11.635   8.143 -0.1588  0.2216 -0.4034
46732SOL    HW148974   6.715  11.599   8.083  1.1855  1.1598  0.4323
46732SOL    HW248975   6.701  11.675   8.213 -1.6649 -0.2403  1.0331
46733SOL     OW48976  11.475   6.348   8.776 -0.4432  0.1864  0.5221
46733SOL    HW148977  11.401   6.324   8.833 -0.1511 -2.3858 -0.0659
46733SOL    HW248978  11.442   6.335   8.687  0.5549 -0.5731  0.2424
46734SOL     OW48979   6.541   0.148  11.935 -0.2709 -0.0692  0.3680
46734SOL    HW148980   6.508   0.072  11.888  0.8981  0.0865 -0.7454
46734SOL    HW248981   6.588   0.112  12.010 -1.3458 -0.3466  0.9406
46735SOL     OW48982   8.340  10.070  11.915  0.3028 -0.1489  0.7152
46735SOL    HW148983   8.289  10.011  11.970 -0.6908  0.7842  0.8366
46735SOL    HW248984   8.312  10.051  11.826  0.4947 -0.3360  0.6941
46736SOL     OW48985   0.584   9.594   6.376  0.0224  0.6607 -0.3707
46736SOL    HW148986   0.615   9.626   6.461  0.6513  0.0322 -0.3492
46736SOL    HW248987   0.503   9.547   6.395 -0.2790  1.2237 -0.2413
46737SOL     OW48988   8.173   5.428   7.788  0.4583 -0.1105 -0.4343
46737SOL    HW148989   8.086   5.432   7.828  1.0531 -1.6485  1.1571
46737SOL    HW248990   8.160   5.457   7.698 -1.2665  1.9135  0.3833
46738SOL     OW48991   3.312   7.588   7.884 -0.5060 -0.0737  1.0453
46738SOL    HW148992   3.308   7.664   7.825  0.4035 -0.3264  0.6453
46738SOL    HW248993   3.257   7.523   7.841  1.1910 -0.7239 -0.2580
46739SOL     OW48994   5.972  12.118  10.680  0.2044 -0.1060  0.4871
46739SOL    HW148995   5.971  12.204  10.637  2.3978  0.2924  1.1370
46739SOL    HW248996   5.897  12.121  10.739  1.3253  2.1834  1.9354
46740SOL     OW48997   0.875   3.523  12.173  0.3542  0.1336 -0.2657
46740SOL    HW148998   0.838   3.607  12.201  1.2294  0.1223  0.9880
46740SOL    HW248999   0.804   3.460  12.186  0.4940  0.2620  1.2241
46741SOL     OW49000   4.728  10.834  11.301 -0.3090 -0.3924  0.2805
46741SOL    HW149001   4.658  10.792  11.351 -0.1084 -0.3726  0.5837
46741SOL    HW249002   4.770  10.893  11.364  0.9359 -1.5044  0.5543
46742SOL     OW49003   9.315   0.859   2.185  0.0609  0.2526 -0.1884
46742SOL    HW149004   9.369   0.854   2.264  0.0335 -1.1886 -0.2440
46742SOL    HW249005   9.228   0.883   2.217 -0.2319 -1.4554  0.3832
46743SOL     OW49006   5.023   5.202   5.809 -0.2267 -0.0509  0.0277
46743SOL    HW149007   5.039   5.108   5.808  1.2480  0.1766 -0.1654
46743SOL    HW249008   5.008   5.225   5.717 -0.4922 -0.0774  0.0630
46744SOL     OW49009  10.272   7.124   4.768  0.4111  0.1995  0.0505
46744SOL    HW149010  10.264   7.136   4.674 -1.2381  0.0579  0.1293
46744SOL    HW249011  10.250   7.209   4.805  0.1154  0.0134  0.3158
46745SOL     OW49012   0.976   4.906  10.572 -0.4317 -0.0152 -0.5180
46745SOL    HW149013   1.049   4.846  10.563 -1.9027 -1.8264 -0.8819
46745SOL    HW249014   0.898   4.851  10.566 -1.8574  1.4596  2.2243
46746SOL     OW49015   3.785   2.760   2.162 -0.4371  0.3737 -0.2847
46746SOL    HW149016   3.740   2.700   2.220 -2.8540  1.1324 -1.2708
46746SOL    HW249017   3.716   2.814   2.124  1.1043  0.5976 -3.0857
46747SOL     OW49018   7.426   5.812  12.117  0.6332 -0.0239 -0.5355
46747SOL    HW149019   7.499   5.872  12.133  1.1778 -0.7030 -0.3686
46747SOL    HW249020   7.468   5.726  12.108 -0.1968 -0.5374  0.2546
46748SOL     OW49021   9.690   0.110   0.919  0.5626  0.3377  0.5816
46748SOL    HW149022   9.716   0.193   0.958 -2.6346  0.6422  2.4136
46748SOL    HW249023   9.599   0.124   0.891  1.1226 -1.4246 -2.6217
46749SOL     OW49024   1.117   4.743   4.052 -0.1331 -0.0191  0.2499
46749SOL    HW149025   1.194   4.691   4.032  0.2674  0.8796 -0.6542
46749SOL    HW249026   1.048   4.708   3.996 -0.3329 -0.6819  0.9005
46750SOL     OW49027   2.634   2.690   2.651  0.1426  0.0775 -0.3121
46750SOL    HW149028   2.631   2.774   2.697 -0.9907 -0.6772  1.0691
46750SOL    HW249029   2.724   2.658   2.665 -0.3969 -0.5387  2.2520
46751SOL     OW49030   1.754   9.340  11.268 -0.4794  0.0686  0.2416
46751SOL    HW149031   1.740   9.299  11.353 -0.2978  0.7965  0.6221
46751SOL    HW249032   1.778   9.267  11.210 -0.9589 -0.4803  0.7188
46752SOL     OW49033   4.435  12.048   7.955  0.1001 -0.2097  0.0837
46752SOL    HW149034   4.462  11.992   8.028 -0.6718  0.2277  0.7173
46752SOL    HW249035   4.462  12.000   7.877  0.8373 -0.7375  0.6474
46753SOL     OW49036   9.352   2.254   5.101  0.3189  0.2900 -0.6314
46753SOL    HW149037   9.434   2.266   5.052 -1.6863 -0.8921 -4.7491
46753SOL    HW249038   9.319   2.342   5.116  1.7114  0.7315  0.0531
46754SOL     OW49039   6.593  11.278   6.290 -0.0575 -0.7026 -0.0046
46754SOL    HW149040   6.532  11.351   6.299 -0.2964 -0.9043  0.0297
46754SOL    HW249041   6.537  11.202   6.273  0.0817 -1.1407  1.3917
46755SOL     OW49042   6.198   3.583   6.950  0.0884 -0.0046  0.1230
46755SOL    HW149043   6.106   3.582   6.923  0.4838  0.3278 -1.3287
46755SOL    HW249044   6.195   3.597   7.044 -1.3398  0.4851  0.0306
46756SOL     OW49045  10.848   0.068  10.663 -0.0454 -0.3372  0.5009
46756SOL    HW149046  10.883   0.153  10.692  1.0280 -0.9259  0.9772
46756SOL    HW249047  10.753   0.080  10.661  0.0676  0.7200  1.0454
46757SOL     OW49048   7.459   5.082   3.438  0.2392  0.5253 -0.9553
46757SOL    HW149049   7.406   5.028   3.379 -0.1535 -0.3456  0.1471
46757SOL    HW249050   7.523   5.020   3.475 -0.2243  0.7980  0.3426
46758SOL     OW49051   3.882   5.252   2.845 -0.0489 -0.4481 -0.1807
46758SOL    HW149052   3.936   5.186   2.802 -1.6141 -1.4225 -0.7544
46758SOL    HW249053   3.842   5.301   2.774  2.2981  2.2705  0.2155
46759SOL     OW49054   4.510   9.359   9.871  0.0534 -0.2844  0.3582
46759SOL    HW149055   4.533   9.388   9.783  0.9212  1.3972  1.0853
46759SOL    HW249056   4.445   9.423   9.901  0.3293 -0.3810  1.1970
46760SOL     OW49057   6.754   5.184   3.867 -0.0428  0.1638 -0.0594
46760SOL    HW149058   6.849   5.189   3.856 -0.2902  0.7380 -2.4803
46760SOL    HW249059   6.731   5.097   3.834 -0.2376 -0.6513  2.0790
46761SOL     OW49060   5.188   9.253  12.399 -0.0046 -0.1051  0.1153
46761SOL    HW149061   5.231   9.336  12.378 -0.2131  0.3840  1.5063
46761SOL    HW249062   5.256   9.186  12.387 -0.0156  0.1531 -1.6747
46762SOL     OW49063   9.423   9.539  10.561  0.0802  0.1852 -0.4233
46762SOL    HW149064   9.332   9.555  10.588  0.6520  2.2811  0.5065
46762SOL    HW249065   9.434   9.445  10.569 -1.7894 -0.0336  0.2008
46763SOL     OW49066   4.580  11.861  11.168 -0.0817 -0.0931 -0.0396
46763SOL    HW149067   4.633  11.941  11.163 -0.4300  0.2005  0.8176
46763SOL    HW249068   4.491  11.891  11.152 -0.0299 -0.5426 -1.1809
46764SOL     OW49069  10.936  10.974   3.961 -0.7663 -0.6877 -0.3694
46764SOL    HW149070  11.004  10.907   3.949  0.3725  0.3958 -0.1826
46764SOL    HW249071  10.952  11.009   4.049  0.2342  1.4774 -1.3236
46765SOL     OW49072   7.732   2.281   2.994 -0.0898  0.6405 -0.5669
46765SOL    HW149073   7.736   2.252   2.903  1.4309  0.3071 -0.4240
46765SOL    HW249074   7.733   2.376   2.988 -0.4461  0.6283 -0.9028
46766SOL     OW49075  12.441   4.327   0.496 -0.4909 -0.2549  0.1910
46766SOL    HW149076  12.353   4.356   0.470  0.2227  1.2662 -0.6105
46766SOL    HW249077  12.472   4.394   0.557  1.0292  0.5503 -1.3922
46767SOL     OW49078   4.001   4.044   6.732  0.5344 -0.5372 -0.1316
46767SOL    HW149079   3.979   4.125   6.779 -1.6196 -0.2861 -1.4565
46767SOL    HW249080   4.092   4.056   6.706  1.1218  0.2473  2.0245
46768SOL     OW49081   2.728  11.278  10.944  0.3218 -0.5991 -0.2038
46768SOL    HW149082   2.658  11.323  10.897  0.0550  0.4059  1.1012
46768SOL    HW249083   2.699  11.186  10.946  0.4454 -0.7201 -2.1085
46769SOL     OW49084   7.926   3.178   5.468 -0.0208  0.1690 -0.1167
46769SOL    HW149085   7.948   3.116   5.398 -0.6102  0.4649 -0.5800
46769SOL    HW249086   7.992   3.246   5.462  0.6788 -0.4430  0.4461
46770SOL     OW49087   1.190  10.515   6.776  0.3917 -0.4306  0.6010
46770SOL    HW149088   1.238  10.432   6.781  0.1936 -0.5297  0.8612
46770SOL    HW249089   1.205  10.546   6.686 -0.5960 -1.3986  0.0722
46771SOL     OW49090   3.706   8.142  10.132  0.2922  0.2701 -0.1444
46771SOL    HW149091   3.650   8.192  10.193 -1.0164 -0.4218 -0.7322
46771SOL    HW249092   3.677   8.052  10.142  2.2646 -0.3468  0.4986
46772SOL     OW49093   7.605  10.710   4.640 -0.0491  0.2301 -0.5998
46772SOL    HW149094   7.557  10.665   4.709  2.4597 -1.3743  0.2218
46772SOL    HW249095   7.543  10.712   4.566 -1.8427 -0.4635  0.8013
46773SOL     OW49096   5.646   3.284   9.033  0.1751  0.0860  0.3754
46773SOL    HW149097   5.689   3.247   8.956 -2.2497  0.9003 -1.4819
46773SOL    HW249098   5.694   3.366   9.049  0.2757  0.2655 -0.7300
46774SOL     OW49099   2.648   1.048   4.207 -0.5429 -0.2959 -0.0276
46774SOL    HW149100   2.604   1.097   4.277 -1.2112  0.6267 -1.0684
46774SOL    HW249101   2.738   1.083   4.207 -0.8039  0.3837 -0.2553
46775SOL     OW49102   2.870   7.719   7.211 -0.8127 -0.1606 -0.2380
46775SOL    HW149103   2.936   7.649   7.213  1.9179  2.1002 -2.0834
46775SOL    HW249104   2.799   7.683   7.159 -0.4664 -2.2578  0.6509
46776SOL     OW49105   3.753   7.738   5.445 -0.1545 -0.0925  0.0114
46776SOL    HW149106   3.813   7.749   5.371  0.7371 -0.3404  0.6841
46776SOL    HW249107   3.760   7.820   5.494  0.4091 -0.4984  0.6319
46777SOL     OW49108   1.398  12.220   5.247  0.6235  0.5698 -0.0009
46777SOL    HW149109   1.450  12.182   5.318  0.3226  1.3894  0.6830
46777SOL    HW249110   1.441  12.304   5.229  2.6262 -0.9231 -3.0024
46778SOL     OW49111   3.628   0.362   3.050  0.2204 -0.2669  0.3202
46778SOL    HW149112   3.674   0.282   3.024  1.3293  0.7662 -1.0144
46778SOL    HW249113   3.542   0.331   3.080  0.2651 -1.8954 -1.0821
46779SOL     OW49114   6.060   9.691   0.842 -0.1808  0.0924  0.0460
46779SOL    HW149115   6.007   9.702   0.921 -2.1941 -0.6658 -1.1030
46779SOL    HW249116   5.997   9.666   0.775  1.4234  0.9008 -1.8688
46780SOL     OW49117   4.572   0.635   9.042  0.5980  0.0547  0.1244
46780SOL    HW149118   4.611   0.684   9.114 -3.5789 -1.0676  3.6100
46780SOL    HW249119   4.525   0.701   8.991  3.0405  0.7648 -1.3750
46781SOL     OW49120   4.969   7.274   6.671  0.1228 -0.2142  0.4666
46781SOL    HW149121   5.048   7.320   6.697  0.4461  0.8432 -2.1337
46781SOL    HW249122   4.998   7.184   6.653  0.6058 -0.0097  0.2058
46782SOL     OW49123   5.864   9.513   7.826  0.0702  0.6550  0.2016
46782SOL    HW149124   5.895   9.554   7.907 -0.3854  0.6810  0.3675
46782SOL    HW249125   5.792   9.569   7.797  0.2431  0.6560 -0.2363
46783SOL     OW49126   5.955  12.590   1.413  0.6740  0.5815  0.3136
46783SOL    HW149127   5.892  12.643   1.365  1.0858  1.3710  0.6197
46783SOL    HW249128   5.923  12.591   1.503 -0.1633 -0.9936  0.0692
46784SOL     OW49129   0.416   3.214  11.951  0.0917  0.6415  0.9243
46784SOL    HW149130   0.373   3.277  11.893  1.5095  1.3539  0.5985
46784SOL    HW249131   0.389   3.239  12.039  1.6030  2.5737  0.9194
46785SOL     OW49132   1.358  10.960   6.163  0.2667  0.3686  0.1307
46785SOL    HW149133   1.304  10.930   6.236  0.8116  0.1200  0.4367
46785SOL    HW249134   1.444  10.979   6.202  0.0834  1.8711 -0.1471
46786SOL     OW49135   3.203   3.627   2.834  0.0951 -0.1188  0.3374
46786SOL    HW149136   3.188   3.620   2.740  0.4033  1.3481  0.1594
46786SOL    HW249137   3.278   3.686   2.843  1.2240 -1.6035  1.4627
46787SOL     OW49138   9.929   9.505   9.923  0.4776 -0.2227 -0.3413
46787SOL    HW149139   9.906   9.526  10.014  1.4892 -1.6103  0.2886
46787SOL    HW249140  10.007   9.557   9.905  0.6919 -0.4834 -0.1649
46788SOL     OW49141   8.057  12.512   7.235 -0.2011  0.1296  0.1270
46788SOL    HW149142   8.022  12.496   7.323 -0.3296 -2.1636 -0.2833
46788SOL    HW249143   8.005  12.585   7.201  1.0156  2.3156  2.5353
46789SOL     OW49144   2.348   3.845   3.576 -0.4457 -0.5026 -0.1517
46789SOL    HW149145   2.383   3.841   3.486  1.2191  0.4602  0.4045
46789SOL    HW249146   2.255   3.864   3.565  0.2853  2.9583 -1.6939
46790SOL     OW49147   8.822   5.425   8.846 -0.3930  0.0743  0.0019
46790SOL    HW149148   8.808   5.506   8.895  1.1246  0.5965 -0.3776
46790SOL    HW249149   8.733   5.392   8.830 -1.0117  1.2213  0.8691
46791SOL     OW49150   9.119   5.313   7.395  0.1673  0.1540 -0.5441
46791SOL    HW149151   9.095   5.351   7.480  0.0340 -1.3869  0.1522
46791SOL    HW249152   9.127   5.219   7.413  3.7369  0.1351 -1.3610
46792SOL     OW49153   6.802  12.499   8.814 -0.1239  0.0134 -0.0848
46792SOL    HW149154   6.733  12.552   8.853 -1.3482 -1.3258 -0.3513
46792SOL    HW249155   6.881  12.525   8.862 -1.2609 -0.2952  2.1078
46793SOL     OW49156   6.668   7.361   6.845  0.2461 -0.3297 -0.2525
46793SOL    HW149157   6.631   7.272   6.841  0.5110 -0.4344 -0.3961
46793SOL    HW249158   6.721   7.369   6.766  0.3222 -0.0874 -0.1785
46794SOL     OW49159   8.080   9.629   1.151  0.8676  0.0777  0.3310
46794SOL    HW149160   8.097   9.597   1.062  2.4985  2.1494 -0.2011
46794SOL    HW249161   8.123   9.715   1.154  0.8202  0.1051  3.1177
46795SOL     OW49162   0.303   2.199   2.996 -0.4464  0.0100 -0.5697
46795SOL    HW149163   0.338   2.167   2.913 -0.5496  1.1361 -1.0647
46795SOL    HW249164   0.280   2.119   3.045 -0.8464 -0.6579 -1.8092
46796SOL     OW49165   0.821   5.455   4.067 -0.6233  0.4196 -0.9138
46796SOL    HW149166   0.866   5.418   4.143 -1.6636 -1.0594 -0.9783
46796SOL    HW249167   0.888   5.458   3.999 -0.0390  0.4526 -0.3469
46797SOL     OW49168  10.742   5.364   5.897  0.0150  0.6304  0.2099
46797SOL    HW149169  10.832   5.360   5.864  0.2797  1.2080  0.8399
46797SOL    HW249170  10.691   5.398   5.824  0.5697  1.7856  0.3405
46798SOL     OW49171   4.455   1.016   4.894  0.3860  0.1934  0.1945
46798SOL    HW149172   4.466   0.936   4.843 -1.8212 -0.3236  0.4071
46798SOL    HW249173   4.444   1.085   4.828 -0.0813 -0.0910 -0.0383
46799SOL     OW49174  11.877   2.724   6.151  0.1440  0.2047  0.1484
46799SOL    HW149175  11.820   2.696   6.223 -0.9977  0.6352 -0.5654
46799SOL    HW249176  11.838   2.685   6.073  1.2151 -0.0364 -0.2798
46800SOL     OW49177   0.573  10.135   5.099 -0.0735 -0.0605  0.0939
46800SOL    HW149178   0.619  10.204   5.147 -0.4494  0.5878 -0.4407
46800SOL    HW249179   0.567  10.169   5.009 -1.8659  0.0330  0.2182
46801SOL     OW49180   3.744   3.502   4.459 -0.5016  0.0852  0.5965
46801SOL    HW149181   3.809   3.476   4.395 -2.1365  1.6114 -1.8434
46801SOL    HW249182   3.775   3.585   4.494 -0.4559  0.1080  0.4998
46802SOL     OW49183  11.382   3.565   9.494 -0.0200  0.5153 -0.6931
46802SOL    HW149184  11.373   3.507   9.418  1.6368  0.1015 -0.6351
46802SOL    HW249185  11.441   3.517   9.552  0.4668  1.7605 -0.1222
46803SOL     OW49186   4.371   4.942   5.798 -0.3680  0.2841  0.4994
46803SOL    HW149187   4.359   4.869   5.859 -0.7909  0.7086  0.9384
46803SOL    HW249188   4.305   5.006   5.824 -0.0704  0.7839  0.0580
46804SOL     OW49189   7.593   0.738   8.698 -0.2334 -0.9990  0.2524
46804SOL    HW149190   7.685   0.711   8.702  0.5140  1.4002  0.4472
46804SOL    HW249191   7.563   0.706   8.613  1.2701 -0.3916 -0.5374
46805SOL     OW49192   7.622  11.423  10.966  0.4763  0.5401 -0.1117
46805SOL    HW149193   7.584  11.461  10.887  1.7207  1.2612 -0.3938
46805SOL    HW249194   7.577  11.468  11.038  0.0136  0.5776 -0.4186
46806SOL     OW49195   8.291   3.258   5.741  0.5739 -0.6842  0.4989
46806SOL    HW149196   8.386   3.268   5.728  0.3713  0.6700 -0.0234
46806SOL    HW249197   8.273   3.300   5.825  0.2380  0.3198 -0.0634
46807SOL     OW49198  11.606   4.853   2.013  0.1273 -0.1658 -0.9084
46807SOL    HW149199  11.523   4.873   2.055 -0.7066 -0.3572 -2.3985
46807SOL    HW249200  11.669   4.846   2.086 -1.2006 -0.3262  0.2666
46808SOL     OW49201   4.995   9.964   7.031 -0.0077  0.0666  0.1331
46808SOL    HW149202   5.002  10.043   6.978 -0.5949 -0.1028 -0.1970
46808SOL    HW249203   4.980   9.996   7.120  0.9682  0.3492  0.2111
46809SOL     OW49204  10.577  12.245   1.469  0.0307  0.4010  0.1152
46809SOL    HW149205  10.534  12.233   1.554 -1.2928 -0.3926 -0.6424
46809SOL    HW249206  10.524  12.311   1.425  0.7433  0.8423 -0.0904
46810SOL     OW49207  10.939   8.257   1.490  0.5045  0.4201  0.1337
46810SOL    HW149208  11.014   8.214   1.531  1.3074  0.1892 -1.4794
46810SOL    HW249209  10.869   8.250   1.554  1.9043  0.8133  1.7749
46811SOL     OW49210   3.029   6.866   4.632 -0.5851 -0.1951  0.4079
46811SOL    HW149211   3.074   6.827   4.706 -1.2863 -0.0944  0.9052
46811SOL    HW249212   3.057   6.958   4.632  0.4962 -0.5154 -0.3140
46812SOL     OW49213   0.225   1.630   6.432 -0.0859  0.2024  0.1017
46812SOL    HW149214   0.255   1.637   6.522  0.0700  0.7829  0.0124
46812SOL    HW249215   0.181   1.714   6.415 -1.9392 -0.6709  0.2951
46813SOL     OW49216   3.470  11.290   8.579 -0.5836  0.1701 -0.3368
46813SOL    HW149217   3.559  11.290   8.615 -0.8883  1.6409  0.4863
46813SOL    HW249218   3.476  11.350   8.504 -0.8868  0.2587 -0.2880
46814SOL     OW49219   1.950   7.857   5.536 -0.3968 -0.9543  0.0615
46814SOL    HW149220   1.920   7.892   5.452 -0.9329 -1.6704 -0.0511
46814SOL    HW249221   1.875   7.868   5.595 -0.1011 -0.6646  0.3937
46815SOL     OW49222   7.391   4.170   6.274  0.4734 -0.4659  0.4429
46815SOL    HW149223   7.341   4.114   6.333  0.1351 -1.3117 -0.6001
46815SOL    HW249224   7.438   4.108   6.217 -0.8523  0.2343 -1.5417
46816SOL     OW49225   3.188   9.846   5.508 -0.4508  0.0163 -0.2162
46816SOL    HW149226   3.213   9.905   5.579  2.6608 -0.7924 -0.4767
46816SOL    HW249227   3.104   9.809   5.535  0.4536 -0.0044  2.9178
46817SOL     OW49228   0.828   7.299  11.156  0.2800  0.3473  0.1793
46817SOL    HW149229   0.824   7.203  11.154 -1.0854  0.3664 -2.9021
46817SOL    HW249230   0.903   7.318  11.212  1.1521 -2.5321  0.1758
46818SOL     OW49231   8.516   6.290   7.418  0.3672 -0.2359  0.2249
46818SOL    HW149232   8.585   6.282   7.484  1.3859 -0.0056 -0.7637
46818SOL    HW249233   8.443   6.331   7.464  0.5251 -1.3861  1.5508
46819SOL     OW49234   3.058   7.292   9.165  0.2266  0.2842  0.3572
46819SOL    HW149235   2.972   7.258   9.186 -0.0983  1.2370  0.6231
46819SOL    HW249236   3.102   7.301   9.249  0.9248 -1.0391  0.1522
46820SOL     OW49237  11.209   0.068   8.974  0.5050  0.1021  0.1608
46820SOL    HW149238  11.276   0.104   9.032  0.7589  0.3043 -0.2511
46820SOL    HW249239  11.146   0.139   8.963 -0.6887 -0.6188  1.8860
46821SOL     OW49240   6.635   7.388   5.798 -0.6366  0.6537 -0.6133
46821SOL    HW149241   6.670   7.302   5.776 -0.7742  0.0672  1.2755
46821SOL    HW249242   6.619   7.430   5.713  0.6751 -0.6573 -1.5561
46822SOL     OW49243   8.381   2.090  12.545 -0.5320  0.2739 -0.3918
46822SOL    HW149244   8.288   2.085  12.523 -0.7478  0.2482  0.4809
46822SOL    HW249245   8.426   2.080  12.461 -1.3438  2.5384 -1.1933
46823SOL     OW49246   9.635   4.295   4.890  0.5863  0.2441  0.2006
46823SOL    HW149247   9.649   4.308   4.984 -0.4700 -1.0757  0.5797
46823SOL    HW249248   9.551   4.337   4.872  0.4710 -0.0740 -0.0106
46824SOL     OW49249  10.592   2.696   2.473 -0.3898  0.1883  0.4618
46824SOL    HW149250  10.661   2.743   2.427 -0.0291 -0.9414 -0.2003
46824SOL    HW249251  10.525   2.680   2.407 -1.4238  1.4592  1.1482
46825SOL     OW49252   7.585   5.578   1.111 -0.1929  0.0900  0.5496
46825SOL    HW149253   7.517   5.638   1.143  0.0868  1.0483 -0.5854
46825SOL    HW249254   7.537   5.500   1.083 -0.9942  1.1356 -1.1642
46826SOL     OW49255   0.167   7.203   2.197 -0.3586  0.5053  0.2319
46826SOL    HW149256   0.249   7.251   2.204  0.6353 -0.7503 -1.8763
46826SOL    HW249257   0.099   7.271   2.204  0.8705  1.7211  0.8206
46827SOL     OW49258   3.370  11.891   5.725  0.0656 -0.0395  0.3956
46827SOL    HW149259   3.434  11.918   5.660  1.0417  0.4690  1.5393
46827SOL    HW249260   3.291  11.872   5.674  1.2885 -1.3245 -1.1103
46828SOL     OW49261   4.116  10.688   7.453 -0.2039 -0.3968  0.0306
46828SOL    HW149262   4.128  10.660   7.543 -1.6876  0.0189  0.3863
46828SOL    HW249263   4.191  10.744   7.435  0.7112 -1.4167  0.6135
46829SOL     OW49264  11.597  11.858   0.995 -0.5572 -0.1343 -0.1147
46829SOL    HW149265  11.610  11.925   1.061 -0.5171 -0.6622  0.4187
46829SOL    HW249266  11.503  11.838   0.998 -0.8674  1.0004 -1.3612
46830SOL     OW49267   1.964   4.756   1.967 -0.1588 -0.5325  0.2634
46830SOL    HW149268   1.918   4.687   1.918  0.3800  0.0962 -1.1864
46830SOL    HW249269   1.987   4.714   2.050 -1.8430 -1.3772  0.3607
46831SOL     OW49270  12.231   6.031   9.911  0.0129  0.6940  0.0708
46831SOL    HW149271  12.281   5.974   9.852  0.1978  1.2375 -0.2974
46831SOL    HW249272  12.282   6.112   9.915  0.8153  0.1541  2.1654
46832SOL     OW49273   5.404   3.984   1.557  0.0450  0.3373 -0.0214
46832SOL    HW149274   5.331   4.039   1.526 -2.1618 -2.9722 -1.1967
46832SOL    HW249275   5.452   3.960   1.478  0.7676  0.2531  0.4312
46833SOL     OW49276   4.663   1.130  12.531  0.2701  0.2985  0.6750
46833SOL    HW149277   4.699   1.176  12.455 -1.8983  0.1084 -0.5430
46833SOL    HW249278   4.681   1.188  12.605  0.7689  1.3795 -0.2646
46834SOL     OW49279   1.270  11.214   6.137  0.1215  0.1565  0.8550
46834SOL    HW149280   1.349  11.262   6.111 -0.3389  1.3549  1.5719
46834SOL    HW249281   1.296  11.123   6.137  0.8758  0.3187 -1.1473
46835SOL     OW49282  12.126   9.447   0.411 -0.3364  0.9752 -0.0221
46835SOL    HW149283  12.068   9.469   0.484  0.8453  2.5476  0.4976
46835SOL    HW249284  12.138   9.529   0.364 -0.2692  0.1955 -1.4117
46836SOL     OW49285   9.380   4.361   1.640  0.1290 -0.4148  0.1253
46836SOL    HW149286   9.382   4.287   1.700 -1.8593  1.1733  2.3662
46836SOL    HW249287   9.322   4.334   1.569  0.0550 -1.2767  0.5112
46837SOL     OW49288   4.687  11.983   1.950 -0.4508  0.5426 -0.3858
46837SOL    HW149289   4.603  12.013   1.983  0.4471  4.0461 -0.8802
46837SOL    HW249290   4.702  12.035   1.871  2.4776  0.5684  0.0872
46838SOL     OW49291   1.462  11.489   2.500 -0.1336 -0.1188 -0.5920
46838SOL    HW149292   1.427  11.564   2.452  0.8765  0.7748  0.0031
46838SOL    HW249293   1.501  11.528   2.579 -1.5962 -1.5130  0.8895
46839SOL     OW49294   1.600   2.713   0.375 -0.0742  0.1974  0.5477
46839SOL    HW149295   1.524   2.702   0.432  1.1525 -0.3078  2.1506
46839SOL    HW249296   1.563   2.715   0.286 -2.0725  1.3662  1.3391
46840SOL     OW49297   0.695   9.344   0.845 -0.3263  0.4651  0.3287
46840SOL    HW149298   0.658   9.281   0.783 -0.1547 -0.2046  0.8834
46840SOL    HW249299   0.780   9.306   0.870 -0.6524  0.4043  1.4194
46841SOL     OW49300   2.495  10.800   7.268 -0.2626 -0.0884  0.4025
46841SOL    HW149301   2.552  10.751   7.209 -0.4560 -0.1052  0.2266
46841SOL    HW249302   2.427  10.737   7.293 -0.1907 -0.0762  0.6289
46842SOL     OW49303  11.737   0.334   5.434 -0.0609  0.2597  0.1548
46842SOL    HW149304  11.769   0.245   5.417  0.3737  0.3623  0.4079
46842SOL    HW249305  11.763   0.384   5.356  0.2633  0.3086  0.2940
46843SOL     OW49306  12.102   5.189   4.215  0.6632  0.1025  0.2109
46843SOL    HW149307  12.135   5.116   4.266  0.5298 -1.2798 -1.5740
46843SOL    HW249308  12.024   5.155   4.171  0.5719  1.3131 -0.6326
46844SOL     OW49309   7.238   7.378   1.592  0.2459 -0.0141 -0.2442
46844SOL    HW149310   7.180   7.450   1.618 -0.7181 -1.1223  0.7814
46844SOL    HW249311   7.312   7.422   1.549  0.8469  1.8118  2.3678
46845SOL     OW49312   2.596   5.834  11.794  0.5770 -0.5557 -0.1058
46845SOL    HW149313   2.637   5.750  11.814  0.1110 -1.2893 -2.0059
46845SOL    HW249314   2.648   5.898  11.843  3.4381 -1.5437 -1.6103
46846SOL     OW49315   3.952   1.399   1.554  0.1315  0.0064 -0.1854
46846SOL    HW149316   3.886   1.330   1.551  0.6698 -0.5742  0.7508
46846SOL    HW249317   3.995   1.396   1.468  0.4283 -1.1152 -0.0110
46847SOL     OW49318   1.005   2.122   2.114 -0.3677 -0.8325 -0.3536
46847SOL    HW149319   0.999   2.104   2.020  0.2631  1.0531 -0.7861
46847SOL    HW249320   1.072   2.189   2.122  1.4746 -2.7227  1.7275
46848SOL     OW49321   5.799   8.805   3.921  0.1223 -0.0467 -0.2614
46848SOL    HW149322   5.892   8.788   3.939 -0.0051  1.1513  1.9190
46848SOL    HW249323   5.773   8.867   3.989 -2.0464  0.4262 -1.4360
46849SOL     OW49324   6.541  11.200   5.891 -0.2926 -0.3659 -0.1223
46849SOL    HW149325   6.621  11.165   5.852 -1.7967 -4.0378 -0.2562
46849SOL    HW249326   6.536  11.159   5.977 -2.5672 -1.1363 -0.5727
46850SOL     OW49327   2.170   9.281   7.196  0.3477 -0.0444 -0.9205
46850SOL    HW149328   2.262   9.290   7.170  0.2328  0.2800 -1.2176
46850SOL    HW249329   2.160   9.188   7.214 -0.1202 -0.7859 -4.2461
46851SOL     OW49330   1.015  10.798  10.120 -0.4733 -0.3052 -0.5583
46851SOL    HW149331   0.942  10.859  10.131  1.5747  2.0282  1.3225
46851SOL    HW249332   1.041  10.807  10.029 -2.2204 -0.9169 -1.1664
46852SOL     OW49333  10.269   3.863   1.623 -0.4947 -0.1160  0.6174
46852SOL    HW149334  10.191   3.919   1.632 -1.0329 -0.9907  1.6099
46852SOL    HW249335  10.320   3.882   1.702 -0.2536 -0.3844  0.5244
46853SOL     OW49336   5.476   0.670   7.194 -0.5319 -0.4619  0.6753
46853SOL    HW149337   5.423   0.650   7.271  0.8995 -0.9474  1.5815
46853SOL    HW249338   5.433   0.745   7.153 -3.0993 -2.1257  0.1255
46854SOL     OW49339   8.474   3.346   4.340  0.4785 -0.3005 -0.1517
46854SOL    HW149340   8.434   3.425   4.305 -0.5832 -0.9262 -0.3962
46854SOL    HW249341   8.531   3.314   4.270  1.8988  0.9012  0.4040
46855SOL     OW49342   5.070  12.568   5.821  0.6147 -0.5669  0.3233
46855SOL    HW149343   5.082  12.639   5.884  0.0325 -2.0261  2.1412
46855SOL    HW249344   4.976  12.552   5.819  0.7078 -1.1094 -0.2764
46856SOL     OW49345  10.818   4.733   8.925  0.6070  0.1979 -0.1841
46856SOL    HW149346  10.826   4.695   9.012  0.1513  0.2830 -0.0996
46856SOL    HW249347  10.736   4.697   8.891 -0.3113  1.7583  0.2481
46857SOL     OW49348  11.325   2.487   2.890 -0.2891 -0.2155  0.3982
46857SOL    HW149349  11.340   2.530   2.806  1.7256 -0.1119  0.7481
46857SOL    HW249350  11.258   2.421   2.872  0.9373 -0.9918 -1.5898
46858SOL     OW49351  11.249   8.315   3.250 -0.0960 -0.7628  0.1649
46858SOL    HW149352  11.240   8.393   3.196  0.1026 -2.0731 -1.8967
46858SOL    HW249353  11.342   8.308   3.268 -0.3865  1.0676  3.0245
46859SOL     OW49354   7.849   5.212   5.109  0.3281 -0.0795 -0.7563
46859SOL    HW149355   7.843   5.166   5.192  1.8284 -0.6337 -0.9137
46859SOL    HW249356   7.796   5.161   5.049 -1.7681  0.9940  0.0871
46860SOL     OW49357   4.501   4.555  10.308 -0.1965 -0.3591 -0.0568
46860SOL    HW149358   4.506   4.560  10.403 -0.9260 -0.8156  0.0096
46860SOL    HW249359   4.541   4.637  10.278  1.8349 -1.0465  0.5644
46861SOL     OW49360   9.727   9.619   3.379  0.0710  0.2635  0.7758
46861SOL    HW149361   9.658   9.614   3.446 -1.7289  2.5629 -0.7182
46861SOL    HW249362   9.771   9.703   3.397 -0.0762  0.6434 -0.5442
46862SOL     OW49363   2.770   5.145   7.779 -0.1052 -0.3679  0.0731
46862SOL    HW149364   2.782   5.162   7.685 -1.0563  1.0901  0.1785
46862SOL    HW249365   2.686   5.099   7.784 -0.5315  0.4305  0.2824
46863SOL     OW49366   9.576   7.062   0.626  0.4856 -0.9180  0.4375
46863SOL    HW149367   9.594   7.129   0.692  0.6908 -0.4674 -0.0683
46863SOL    HW249368   9.504   7.098   0.574  0.6890 -1.0172  0.0780
46864SOL     OW49369   5.754   8.176   7.179 -0.3815 -0.0732 -0.2319
46864SOL    HW149370   5.778   8.128   7.100 -0.9756 -1.6040  0.4691
46864SOL    HW249371   5.699   8.114   7.228 -0.6883  1.1326  0.9952
46865SOL     OW49372   8.510  10.515   1.601 -0.0823 -0.2216 -0.3216
46865SOL    HW149373   8.432  10.459   1.612 -0.3444 -0.4717 -2.8157
46865SOL    HW249374   8.579  10.470   1.650 -1.0322 -1.0649  0.2865
46866SOL     OW49375  12.311   7.956  12.266 -0.1179  0.7040  0.2221
46866SOL    HW149376  12.256   8.026  12.301  0.2058  1.8334 -1.3985
46866SOL    HW249377  12.401   7.984  12.282  0.0110 -0.0298  0.8213
46867SOL     OW49378   8.148   6.455   5.838  0.3191 -0.3228  0.3771
46867SOL    HW149379   8.236   6.421   5.826  0.0454 -0.8735 -0.1205
46867SOL    HW249380   8.123   6.489   5.753  1.2327  2.8095  1.2242
46868SOL     OW49381   9.179   6.810  12.244  0.2422 -0.2680  0.7580
46868SOL    HW149382   9.188   6.726  12.200  0.6019  1.3398 -2.5371
46868SOL    HW249383   9.268   6.846  12.246  0.0613  0.1759  1.9098
46869SOL     OW49384   3.392   4.042   9.628  0.3842  0.4841 -0.4291
46869SOL    HW149385   3.311   4.069   9.671  0.5988 -0.8237  0.8487
46869SOL    HW249386   3.452   4.116   9.641 -0.1428  0.8720 -0.1559
46870SOL     OW49387   0.556   4.079  12.300  0.5507 -0.2256  0.7208
46870SOL    HW149388   0.549   4.034  12.215  0.8588 -2.1636  1.6666
46870SOL    HW249389   0.483   4.140  12.301 -0.6364 -1.5690 -0.1541
46871SOL     OW49390   3.679   5.636   2.772 -0.3323  1.0373  0.2385
46871SOL    HW149391   3.747   5.619   2.838 -0.1715 -0.2170 -0.2228
46871SOL    HW249392   3.597   5.612   2.816 -0.2187  0.1294 -0.0169
46872SOL     OW49393   4.813   1.869   8.069 -0.9027 -0.5884  0.2197
46872SOL    HW149394   4.869   1.818   8.127  2.4646 -0.3651 -2.4655
46872SOL    HW249395   4.810   1.956   8.108 -1.3029 -1.1830  1.5611
46873SOL     OW49396   2.505  11.710   2.338 -0.3716  0.5998 -0.0625
46873SOL    HW149397   2.430  11.768   2.326 -0.4605  0.6476  0.6886
46873SOL    HW249398   2.484  11.658   2.416  1.2349  2.0261  1.4073
46874SOL     OW49399   4.425   9.097   0.167 -0.2771  0.5509  0.1338
46874SOL    HW149400   4.398   9.150   0.242 -0.1386  0.1154  0.4997
46874SOL    HW249401   4.368   9.125   0.095  0.8474  2.3435 -0.1290
46875SOL     OW49402   6.589   0.166   3.131  0.0210 -0.2721 -0.3560
46875SOL    HW149403   6.549   0.173   3.217  0.2007  0.1867 -0.3056
46875SOL    HW249404   6.596   0.072   3.115 -1.5591 -0.3721 -0.6059
46876SOL     OW49405   4.301   3.400   9.833 -0.1211  0.0428 -0.4940
46876SOL    HW149406   4.320   3.327   9.892  2.4516  0.5410 -0.5774
46876SOL    HW249407   4.305   3.478   9.889  0.4120  0.3626 -0.9657
46877SOL     OW49408   4.299   7.523  11.444 -0.3056 -0.7426  0.6617
46877SOL    HW149409   4.367   7.560  11.501  0.7306 -1.1726 -0.2560
46877SOL    HW249410   4.268   7.597  11.393  1.6431 -1.0167 -1.0506
46878SOL     OW49411   1.345   9.587   7.072  0.1029  0.2933 -0.2497
46878SOL    HW149412   1.406   9.521   7.105  1.0239  1.4444  0.4381
46878SOL    HW249413   1.293   9.612   7.148  1.0516  1.6981 -0.0230
46879SOL     OW49414   0.375   2.350  12.536 -0.7078  0.1299  0.0394
46879SOL    HW149415   0.305   2.354  12.600 -1.0646 -0.1834 -0.3235
46879SOL    HW249416   0.434   2.422  12.559 -1.0565  0.2831  0.4506
46880SOL     OW49417   6.903   3.888  11.426 -0.2700 -0.5682  0.3490
46880SOL    HW149418   6.854   3.866  11.506  0.6067  0.5735  1.2400
46880SOL    HW249419   6.965   3.816  11.416 -1.0100 -1.1929  0.1477
46881SOL     OW49420   3.933   0.537   6.120 -0.2922 -0.3244  0.5587
46881SOL    HW149421   3.956   0.541   6.027 -1.7645 -0.4780  0.1631
46881SOL    HW249422   4.008   0.494   6.162  0.0578 -0.9398 -0.6641
46882SOL     OW49423  10.350  10.609   9.796 -0.1511  0.1142 -0.4456
46882SOL    HW149424  10.369  10.529   9.748 -0.4693  1.0770 -2.2686
46882SOL    HW249425  10.436  10.644   9.819  0.0804  0.4320 -1.7229
46883SOL     OW49426   8.835   3.790   4.831 -0.0718  0.1030 -0.5875
46883SOL    HW149427   8.842   3.872   4.782 -2.0932 -0.5511 -2.1113
46883SOL    HW249428   8.771   3.808   4.900  1.0593  0.3657  0.4257
46884SOL     OW49429   4.398   1.496   8.583  0.8839 -0.0293 -0.2373
46884SOL    HW149430   4.307   1.466   8.586  1.1014 -0.8957 -1.7804
46884SOL    HW249431   4.438   1.458   8.661  0.0445 -0.0177  0.2166
46885SOL     OW49432  10.970   0.448  11.200 -0.1938 -0.0079 -0.3081
46885SOL    HW149433  10.904   0.455  11.270  0.0910 -2.8168  0.3405
46885SOL    HW249434  11.053   0.467  11.244 -0.2701  0.9835 -0.5589
46886SOL     OW49435   3.535   6.571   5.693 -0.2832 -0.2825 -0.4914
46886SOL    HW149436   3.566   6.501   5.750 -0.4376 -0.8419 -1.0918
46886SOL    HW249437   3.481   6.626   5.751  0.8797  0.0854  0.2920
46887SOL     OW49438   0.513   9.314   1.337  0.0790  0.0111 -0.1164
46887SOL    HW149439   0.491   9.323   1.244  0.2195 -2.4209 -0.4457
46887SOL    HW249440   0.446   9.365   1.383 -0.5217  0.5051 -1.5030
46888SOL     OW49441   6.076   9.555   3.906 -0.6371  0.1188  0.5739
46888SOL    HW149442   6.025   9.542   3.826 -0.8049  3.6833 -0.0786
46888SOL    HW249443   6.150   9.610   3.879  1.0508 -1.1038  2.3646
46889SOL     OW49444   6.482   7.610  10.931 -0.4930 -0.4434 -0.2267
46889SOL    HW149445   6.409   7.578  10.879 -0.7216  0.1048 -0.2455
46889SOL    HW249446   6.509   7.691  10.888 -0.5137 -0.1235  0.3496
46890SOL     OW49447   0.071   2.474   8.075 -0.1774  0.3035 -0.1947
46890SOL    HW149448   0.047   2.534   8.146  1.6600  1.6140 -0.5882
46890SOL    HW249449   0.092   2.392   8.119 -0.4904  0.6444  0.6161
46891SOL     OW49450   2.075   0.125   2.577  0.4408 -0.4808  0.0190
46891SOL    HW149451   2.030   0.070   2.514 -0.1691  0.4278 -0.3573
46891SOL    HW249452   2.135   0.066   2.623  0.3300 -1.2965 -0.8733
46892SOL     OW49453   7.989  11.254  11.724 -0.1713  0.3620 -0.4428
46892SOL    HW149454   8.002  11.207  11.807 -0.2273  0.1061 -0.5784
46892SOL    HW249455   8.076  11.262  11.686  0.2178  2.5792  0.7562
46893SOL     OW49456   0.315   1.434   9.494 -0.3065  0.1444 -0.2405
46893SOL    HW149457   0.388   1.481   9.455 -0.1600 -0.6910 -1.0133
46893SOL    HW249458   0.357   1.363   9.544 -0.4006  2.0018  2.6906
46894SOL     OW49459   3.298   5.593   0.308 -0.3148 -0.0263  0.0408
46894SOL    HW149460   3.303   5.687   0.293  0.5946 -0.2191 -0.9881
46894SOL    HW249461   3.388   5.567   0.328 -0.3306 -0.8463 -0.8603
46895SOL     OW49462   9.524   4.112   8.454 -0.1155  0.1413  0.2839
46895SOL    HW149463   9.432   4.100   8.481  0.0019 -0.1597  0.5631
46895SOL    HW249464   9.575   4.085   8.531  0.1955  1.0760  0.4141
46896SOL     OW49465   6.999   8.590  11.858  0.1730 -0.6228 -0.5452
46896SOL    HW149466   7.071   8.604  11.920 -0.1902 -1.4479  0.0812
46896SOL    HW249467   7.023   8.511  11.810 -0.3001 -0.8950 -0.3442
46897SOL     OW49468   3.249   0.082   9.358  0.2501 -0.0312 -0.0703
46897SOL    HW149469   3.170   0.133   9.338  0.1840  0.0252  0.3163
46897SOL    HW249470   3.218   0.011   9.414  0.3613 -0.4290 -0.5104
46898SOL     OW49471   6.754   0.109   7.200 -0.0963  0.6618  0.1860
46898SOL    HW149472   6.798   0.174   7.256  1.4643  1.2768 -1.6374
46898SOL    HW249473   6.745   0.153   7.115  0.3208 -1.2270 -0.8903
46899SOL     OW49474   0.699  11.305  12.507  0.4998  0.4693 -0.1332
46899SOL    HW149475   0.695  11.230  12.448 -0.8529  1.1216 -0.9454
46899SOL    HW249476   0.705  11.268  12.595 -2.0837 -0.6985 -0.3521
46900SOL     OW49477   9.605  10.438   7.633 -0.1366 -0.3520 -0.0788
46900SOL    HW149478   9.511  10.421   7.635  0.0051 -1.3632 -0.9536
46900SOL    HW249479   9.641  10.378   7.698  0.2016 -2.4831 -2.0742
46901SOL     OW49480   2.888   0.181   5.460 -0.7699  0.6632 -0.0057
46901SOL    HW149481   2.971   0.227   5.452  0.3163 -0.8455  1.5987
46901SOL    HW249482   2.880   0.163   5.554 -2.7887  0.5238 -0.1633
46902SOL     OW49483   6.413   9.531   7.514  1.3544 -0.2080  0.1526
46902SOL    HW149484   6.348   9.465   7.539  0.7365  0.6342  0.8177
46902SOL    HW249485   6.455   9.494   7.436 -0.9500 -0.1594 -1.2184
46903SOL     OW49486   1.561   0.524   4.472 -0.5943 -0.2509  0.2617
46903SOL    HW149487   1.624   0.541   4.401  0.2778 -0.3392  0.9919
46903SOL    HW249488   1.480   0.566   4.443  0.3043  1.4458  0.1068
46904SOL     OW49489  10.259  10.756  12.175 -0.0008  0.2268 -0.1977
46904SOL    HW149490  10.224  10.686  12.119 -0.7455  0.9153 -0.6066
46904SOL    HW249491  10.215  10.835  12.144 -1.7494  0.4112  2.4613
46905SOL     OW49492  10.098   6.254   8.628 -0.3572 -0.2974 -0.1707
46905SOL    HW149493  10.180   6.257   8.678 -0.0011 -0.1491 -0.7534
46905SOL    HW249494  10.037   6.308   8.679 -0.4019 -1.2464  0.7998
46906SOL     OW49495   5.279   5.770   4.042  0.1542 -0.1310 -0.3579
46906SOL    HW149496   5.351   5.721   4.083 -1.0564 -3.4055 -1.7658
46906SOL    HW249497   5.206   5.760   4.102 -0.3189 -0.8247 -1.0205
46907SOL     OW49498   1.914   9.372   4.497 -0.1101  0.2949 -0.6624
46907SOL    HW149499   1.856   9.383   4.572 -0.3906  1.6337 -1.0418
46907SOL    HW249500   1.990   9.326   4.532 -1.0879 -0.9067 -0.0163
46908SOL     OW49501  11.403   1.852   2.835 -0.0382 -0.5638  0.2060
46908SOL    HW149502  11.448   1.918   2.887 -1.4384 -0.3470  1.2050
46908SOL    HW249503  11.381   1.897   2.753  1.7482 -0.7610 -0.4288
46909SOL     OW49504   2.928   7.543   9.579  0.1858  0.4048 -0.1222
46909SOL    HW149505   3.021   7.529   9.563 -0.0227  0.7047 -1.7839
46909SOL    HW249506   2.886   7.519   9.496 -1.0261  2.0649 -0.0211
46910SOL     OW49507   7.756   6.330   3.051 -0.1355 -0.5547 -0.0899
46910SOL    HW149508   7.703   6.361   2.978  1.4872  0.6241 -0.8287
46910SOL    HW249509   7.743   6.395   3.120  0.8710  0.1531 -0.5387
46911SOL     OW49510   3.752   6.354   8.571  0.3699  0.3532 -0.3349
46911SOL    HW149511   3.671   6.404   8.559  1.0046  1.4317 -0.2547
46911SOL    HW249512   3.738   6.274   8.521 -0.1515  1.2202 -1.6288
46912SOL     OW49513   2.183   8.007   7.121  0.5526 -0.3515  0.1621
46912SOL    HW149514   2.260   8.013   7.064  0.3179  1.6556 -0.0344
46912SOL    HW249515   2.172   7.913   7.137  4.0675 -0.6631  1.6589
46913SOL     OW49516   0.602   1.403   7.980 -0.2091  0.1537 -0.6063
46913SOL    HW149517   0.520   1.452   7.966  0.4607  1.2905 -0.6726
46913SOL    HW249518   0.650   1.413   7.898  0.5314  0.5724 -0.1392
46914SOL     OW49519   6.973   5.194  11.559  0.8005  0.2369 -0.3619
46914SOL    HW149520   7.067   5.189  11.575  0.4377  0.5221  2.4171
46914SOL    HW249521   6.948   5.283  11.585 -0.3279 -0.0810 -0.2657
46915SOL     OW49522   8.057  10.311   0.028 -0.2711  0.0438  0.0898
46915SOL    HW149523   8.080  10.303   0.121  0.5121 -2.2208 -0.2362
46915SOL    HW249524   7.976  10.260   0.020 -0.0433 -0.2172 -0.5575
46916SOL     OW49525   9.422   7.540  10.630 -0.4617  0.2921 -0.2318
46916SOL    HW149526   9.338   7.494  10.630 -0.4469  0.2612  0.3816
46916SOL    HW249527   9.441   7.554  10.537 -0.2958 -1.2558 -0.4580
46917SOL     OW49528   7.348   3.792   7.507  0.5187 -0.6199 -0.2727
46917SOL    HW149529   7.372   3.712   7.553  1.9634 -1.3963 -2.2935
46917SOL    HW249530   7.260   3.775   7.474 -0.3607 -0.2197  1.6933
46918SOL     OW49531   0.439   1.477   8.228 -1.0915 -0.1874  0.3665
46918SOL    HW149532   0.526   1.454   8.193 -1.8423 -2.6774 -0.0395
46918SOL    HW249533   0.454   1.491   8.321  0.0381  1.3543  0.0002
46919SOL     OW49534   0.595   8.431   8.661 -0.2579 -0.4130 -0.0751
46919SOL    HW149535   0.622   8.514   8.700 -0.3162 -0.7426  0.6742
46919SOL    HW249536   0.676   8.379   8.656 -0.6539 -1.3311  2.0034
46920SOL     OW49537   3.500   0.813   9.437  0.4849  0.2930 -0.7382
46920SOL    HW149538   3.474   0.852   9.520  0.0200 -0.6564 -0.4256
46920SOL    HW249539   3.578   0.762   9.457  1.6718  1.8089 -1.3438
46921SOL     OW49540   1.856   9.099   1.143 -0.3568  0.4239 -0.7877
46921SOL    HW149541   1.817   9.175   1.185  0.7721 -0.9221  3.1071
46921SOL    HW249542   1.793   9.029   1.156  1.0141 -0.5733  1.0217
46922SOL     OW49543  11.904   5.460  11.806  0.0317  0.3023 -0.1697
46922SOL    HW149544  11.980   5.407  11.832 -0.7358 -0.9607 -0.4194
46922SOL    HW249545  11.899   5.449  11.711  0.7370  2.0726 -0.4655
46923SOL     OW49546   9.383   3.502   2.174 -0.0471 -0.3025 -0.7018
46923SOL    HW149547   9.420   3.504   2.086 -0.4682  1.0323 -0.8783
46923SOL    HW249548   9.330   3.423   2.177  0.2958 -0.5669 -1.5158
46924SOL     OW49549   1.883  10.850   7.454 -0.3001  0.1842 -0.1692
46924SOL    HW149550   1.977  10.837   7.468 -0.3916  0.3867  0.6367
46924SOL    HW249551   1.865  10.937   7.490 -0.7950  0.1561 -0.3410
46925SOL     OW49552   4.732  10.756  10.857 -0.0146 -0.0301  0.2450
46925SOL    HW149553   4.738  10.851  10.842  0.9452 -0.2213 -0.6758
46925SOL    HW249554   4.776  10.743  10.941 -1.0323  0.4441  0.8762
46926SOL     OW49555   5.640   2.841   7.572  0.2286 -0.4317 -0.3130
46926SOL    HW149556   5.733   2.833   7.549  0.4167 -0.0361  0.2621
46926SOL    HW249557   5.616   2.929   7.543  0.8821  0.7022  2.2364
46927SOL     OW49558   3.468  10.445   3.082  0.6545 -0.1883 -0.2533
46927SOL    HW149559   3.550  10.485   3.112  0.1995 -0.4153  1.3463
46927SOL    HW249560   3.467  10.359   3.122 -1.2794  0.5427  1.4291
46928SOL     OW49561   2.392   1.590  12.164 -0.0905 -0.6190 -0.0795
46928SOL    HW149562   2.400   1.562  12.073  0.7619  1.9037 -0.8559
46928SOL    HW249563   2.481   1.587  12.199 -0.6172 -3.2561  1.3099
46929SOL     OW49564   0.892   4.087  12.360 -0.3052 -0.2516  0.3450
46929SOL    HW149565   0.856   4.095  12.448  0.4961  0.7080  0.6077
46929SOL    HW249566   0.825   4.041  12.310 -1.3406  0.3885  1.1177
46930SOL     OW49567   5.182   8.312   9.304 -0.5712 -0.1978 -0.1837
46930SOL    HW149568   5.094   8.321   9.342 -0.0360  2.1700  0.6943
46930SOL    HW249569   5.216   8.231   9.341 -1.6047 -0.0505  1.1822
46931SOL     OW49570   9.229  10.534   5.813 -0.1526 -0.0163 -0.6487
46931SOL    HW149571   9.144  10.534   5.858  0.9368 -0.7641  1.5740
46931SOL    HW249572   9.207  10.525   5.720 -2.4297 -2.2922 -0.0004
46932SOL     OW49573   6.040   9.626   2.239  0.0652  0.7738 -0.2769
46932SOL    HW149574   6.134   9.622   2.252 -0.1240  0.6616  1.1325
46932SOL    HW249575   6.006   9.545   2.276 -0.5368  0.4757 -1.4129
46933SOL     OW49576   8.205   6.632   8.487  0.4748  0.1167  0.3595
46933SOL    HW149577   8.212   6.550   8.440  1.9637 -0.0707  0.8519
46933SOL    HW249578   8.145   6.613   8.559  0.7613 -0.5327  0.4365
46934SOL     OW49579  10.953   9.065   4.560 -0.3593  0.2177 -0.3488
46934SOL    HW149580  10.939   8.976   4.591 -1.0708  0.0939 -1.0195
46934SOL    HW249581  10.891   9.076   4.488 -0.1827  1.2059 -0.3631
46935SOL     OW49582   5.347   6.217   3.629 -0.2543  0.0831 -0.5874
46935SOL    HW149583   5.414   6.158   3.595  0.0138 -0.1044  0.2288
46935SOL    HW249584   5.397   6.284   3.676 -0.6496 -0.2678  0.3566
46936SOL     OW49585   3.859   0.836   0.514  0.0857  0.5095  0.2100
46936SOL    HW149586   3.767   0.809   0.511  0.1002  0.4943 -0.2808
46936SOL    HW249587   3.882   0.850   0.422 -0.1230  2.8441  0.4473
46937SOL     OW49588   1.458   6.506   0.120  0.2229  0.3925  0.4563
46937SOL    HW149589   1.541   6.503   0.072  0.4037  0.0753  0.7849
46937SOL    HW249590   1.401   6.448   0.070  0.3151  0.3102  0.4455
46938SOL     OW49591   4.331   5.433   6.503  0.0676 -0.0364 -0.6668
46938SOL    HW149592   4.314   5.527   6.495 -0.1898 -0.1139 -1.0220
46938SOL    HW249593   4.248   5.396   6.536  0.7271  0.1162  1.3339
46939SOL     OW49594  11.661   8.784   6.724  0.0815  0.2797  0.3863
46939SOL    HW149595  11.608   8.705   6.720 -0.9359  0.9498  0.4373
46939SOL    HW249596  11.727   8.765   6.791  1.1743 -1.2997 -1.0651
46940SOL     OW49597   2.961   3.773   2.718  0.1432 -0.0481  0.1070
46940SOL    HW149598   3.004   3.858   2.709  1.4824 -0.6632  0.4676
46940SOL    HW249599   2.974   3.730   2.634  1.5054 -0.7879  0.6709
46941SOL     OW49600   6.656   4.637   0.551  0.3020  0.6397  0.1408
46941SOL    HW149601   6.611   4.704   0.602  1.9400  2.2030 -0.3457
46941SOL    HW249602   6.679   4.570   0.615 -1.1714  0.6175  0.6858
46942SOL     OW49603   3.420   9.592   6.124  0.5662 -0.2282 -0.1984
46942SOL    HW149604   3.467   9.512   6.102 -1.0304 -0.9539 -1.0809
46942SOL    HW249605   3.376   9.618   6.043 -1.4539 -0.2156  0.8508
46943SOL     OW49606  12.365   4.554   1.138 -0.8886 -0.5717  0.2339
46943SOL    HW149607  12.369   4.628   1.077 -1.7116  0.5442  1.4963
46943SOL    HW249608  12.279   4.515   1.123 -0.6952 -0.9104 -0.0071
46944SOL     OW49609   1.486   1.996   4.457 -0.1806  0.2907  0.1036
46944SOL    HW149610   1.512   1.907   4.432  1.1663  0.5523  0.5118
46944SOL    HW249611   1.566   2.048   4.448 -0.7250  1.2762  0.7728
46945SOL     OW49612   0.893   6.065   2.123 -0.2227 -0.1217 -0.1575
46945SOL    HW149613   0.888   6.123   2.199 -0.0749 -0.4071  0.0774
46945SOL    HW249614   0.966   6.006   2.144  0.2973  0.2599 -0.8548
46946SOL     OW49615   8.472   9.996   5.387 -0.0895  0.2595  0.4970
46946SOL    HW149616   8.452   9.941   5.311 -2.5274  1.1077  0.4524
46946SOL    HW249617   8.536   9.945   5.437 -0.0823 -1.2908 -1.0032
46947SOL     OW49618  10.124   4.090   6.772  0.3625  0.2249 -0.4794
46947SOL    HW149619  10.093   4.000   6.760 -0.9397  0.3143  1.8069
46947SOL    HW249620  10.046   4.144   6.759 -0.1091  0.6137  3.0187
46948SOL     OW49621   5.720   7.146  11.426 -0.1918 -0.3918 -0.1955
46948SOL    HW149622   5.785   7.088  11.385 -0.0534 -0.6634  0.4071
46948SOL    HW249623   5.692   7.205  11.355  0.9375 -0.0685 -0.3791
46949SOL     OW49624   7.838   4.287   1.739 -0.0194  0.3375  0.7594
46949SOL    HW149625   7.900   4.242   1.797  0.2359  1.1862  1.1670
46949SOL    HW249626   7.757   4.294   1.791  0.6013  2.2530  1.5535
46950SOL     OW49627  10.392   9.414   7.599  0.0037 -0.3540 -0.1983
46950SOL    HW149628  10.453   9.487   7.596 -0.9702  0.4993  0.0123
46950SOL    HW249629  10.311   9.452   7.634  0.7097 -2.4406  4.4737
46951SOL     OW49630   7.155   3.728  12.478  0.4095 -0.5220  0.0170
46951SOL    HW149631   7.062   3.707  12.468 -0.0801  1.7155 -0.5955
46951SOL    HW249632   7.184   3.754  12.391  1.3877 -0.2856  0.3976
46952SOL     OW49633   5.465   2.447  11.365  0.6186  0.4905 -0.3865
46952SOL    HW149634   5.529   2.518  11.366 -0.9575  2.0089 -0.6034
46952SOL    HW249635   5.417   2.457  11.448  1.7173 -1.6887  0.5782
46953SOL     OW49636  10.299   5.512   8.228 -0.8874 -0.1317  0.4419
46953SOL    HW149637  10.282   5.429   8.184 -0.1676  0.0684 -0.2499
46953SOL    HW249638  10.344   5.566   8.162  1.5537 -0.3347  1.8090
46954SOL     OW49639   2.812   5.260  11.537  0.7091  0.3319  0.3707
46954SOL    HW149640   2.819   5.287  11.629  0.9741 -0.7639  0.6888
46954SOL    HW249641   2.808   5.164  11.541  0.4753  0.2881 -0.7506
46955SOL     OW49642   7.652   6.151   6.451  0.3857  0.1014  0.4581
46955SOL    HW149643   7.683   6.074   6.402  0.4531  0.6670 -0.3931
46955SOL    HW249644   7.648   6.221   6.387 -2.3671  0.1573  0.5902
46956SOL     OW49645   0.485   8.596   0.972 -0.1750 -0.3903  0.9655
46956SOL    HW149646   0.439   8.550   0.901  0.5948 -0.8216  0.7403
46956SOL    HW249647   0.523   8.673   0.930 -0.1022 -0.4044  1.0048
46957SOL     OW49648   0.016  11.103  10.177 -0.0255 -0.0512 -0.3283
46957SOL    HW149649  -0.038  11.134  10.250 -0.3363 -0.8891 -0.1927
46957SOL    HW249650   0.106  11.113  10.208 -0.1458 -0.0963  0.0432
46958SOL     OW49651   1.071   8.274   9.747 -0.2826 -0.1468 -0.2696
46958SOL    HW149652   1.092   8.366   9.763  3.3386 -0.8708 -0.0216
46958SOL    HW249653   1.051   8.239   9.834  0.1130  0.0537 -0.0934
46959SOL     OW49654   6.894   4.923   3.788 -0.0503 -0.2456  0.0061
46959SOL    HW149655   6.933   4.848   3.742 -1.2897 -1.9951  1.6455
46959SOL    HW249656   6.904   4.902   3.881  0.3458  2.0854  0.5550
46960SOL     OW49657   8.207   5.800   8.746  0.4673 -0.0163 -0.0047
46960SOL    HW149658   8.249   5.734   8.690  2.5342  0.0273  1.3812
46960SOL    HW249659   8.179   5.751   8.823 -0.0032  0.3653  0.0685
46961SOL     OW49660   3.163   4.870   5.890  0.1664  0.9962  0.3185
46961SOL    HW149661   3.075   4.861   5.853  0.5101  1.5989 -0.6879
46961SOL    HW249662   3.151   4.921   5.970 -0.5683 -0.1460  0.9679
46962SOL     OW49663   9.739   9.976  11.061 -0.3193 -0.0247  0.2210
46962SOL    HW149664   9.708   9.899  11.108 -1.0379  0.8702  1.2658
46962SOL    HW249665   9.729   9.954  10.968  0.0670 -1.4024  0.4908
46963SOL     OW49666   0.328   6.148  10.070  0.0863  0.0002 -0.1570
46963SOL    HW149667   0.394   6.208  10.105 -0.3379  1.1085 -1.2206
46963SOL    HW249668   0.267   6.136  10.143  1.0238 -0.4272  0.5832
46964SOL     OW49669   5.857   9.475  12.500 -0.8539  0.0973  0.6193
46964SOL    HW149670   5.870   9.568  12.517  0.4517 -0.0059  0.2501
46964SOL    HW249671   5.866   9.434  12.586 -2.0031  0.3402  0.8836
46965SOL     OW49672  12.283   6.766  10.201  0.0932 -0.4599 -0.2396
46965SOL    HW149673  12.248   6.684  10.234 -1.4112  0.1394 -0.2404
46965SOL    HW249674  12.316   6.811  10.279  2.4195 -1.6925 -0.4332
46966SOL     OW49675   4.216   5.559   9.075  0.1701  0.5874 -0.3232
46966SOL    HW149676   4.304   5.561   9.036 -0.6811  0.4178 -2.4048
46966SOL    HW249677   4.169   5.630   9.032 -0.9923  0.0641  0.0430
46967SOL     OW49678   5.560  11.066  10.387 -0.1350  0.1790 -0.1146
46967SOL    HW149679   5.540  11.011  10.462 -0.9388 -0.3645 -0.7062
46967SOL    HW249680   5.475  11.093  10.353  0.2303  1.0178 -0.4050
46968SOL     OW49681   2.586   2.706   1.584  0.0197 -0.1306  0.7474
46968SOL    HW149682   2.528   2.730   1.512  1.3603  1.4032  0.1124
46968SOL    HW249683   2.588   2.785   1.639  2.4692  0.3935  0.0458
46969SOL     OW49684   8.809   6.928   6.653  0.5602  0.0579  0.3100
46969SOL    HW149685   8.830   6.867   6.582 -0.3999 -0.4844  0.4865
46969SOL    HW249686   8.822   6.877   6.733 -3.5030 -1.0919  0.4341
46970SOL     OW49687   7.593  10.503   1.951  0.3732 -0.0772  0.2688
46970SOL    HW149688   7.513  10.556   1.952 -0.2906 -1.0651  0.5918
46970SOL    HW249689   7.664  10.567   1.938 -0.3916  0.8951  0.7733
46971SOL     OW49690   0.220   5.125   2.836  0.1030 -0.1130  0.0620
46971SOL    HW149691   0.215   5.040   2.791 -1.7152  0.3336 -0.6484
46971SOL    HW249692   0.262   5.183   2.772 -0.1219 -0.0896 -0.0631
46972SOL     OW49693   3.508   9.612   0.919  0.0998 -0.6179  0.3345
46972SOL    HW149694   3.491   9.566   0.837  0.0939 -1.4089  0.7735
46972SOL    HW249695   3.587   9.571   0.953  0.8375  0.5562  0.1172
46973SOL     OW49696   9.332   4.204   9.965  0.8016  0.2137 -0.4014
46973SOL    HW149697   9.343   4.256   9.885  0.7670 -0.9268 -1.1699
46973SOL    HW249698   9.410   4.148   9.968  0.5742 -0.0815  0.1117
46974SOL     OW49699   9.116   0.886  10.622  0.0010 -0.5827 -0.3055
46974SOL    HW149700   9.081   0.972  10.598  0.1880 -0.9121 -1.8980
46974SOL    HW249701   9.045   0.825  10.604 -0.0953 -0.7877  0.7174
46975SOL     OW49702   5.614   2.647  11.411  0.2535  0.2468 -0.7065
46975SOL    HW149703   5.709   2.662  11.408  0.3637 -0.3689 -0.5678
46975SOL    HW249704   5.575   2.734  11.407  0.8740  0.6511  1.1569
46976SOL     OW49705   9.428   2.714   7.227 -0.1178  0.3224  0.1603
46976SOL    HW149706   9.496   2.675   7.281 -1.0842  0.4015  1.4739
46976SOL    HW249707   9.394   2.786   7.280 -0.3620  1.0936 -1.0063
46977SOL     OW49708   2.199   8.243   4.403 -0.0457 -0.2760 -0.0294
46977SOL    HW149709   2.292   8.263   4.402 -0.2317  0.7817  0.9996
46977SOL    HW249710   2.189   8.175   4.469 -0.0958  0.2249  0.4892
46978SOL     OW49711   8.748   1.756   5.688  0.1841 -0.0848  0.3080
46978SOL    HW149712   8.814   1.755   5.756 -0.6143  1.1503  1.1503
46978SOL    HW249713   8.674   1.708   5.725  0.7586 -1.9484 -0.8379
46979SOL     OW49714   4.836  12.594   2.473 -0.1041 -0.3380  0.0579
46979SOL    HW149715   4.745  12.618   2.485  0.3400  1.4791  0.0322
46979SOL    HW249716   4.834  12.527   2.405 -1.2099  1.8394 -2.2009
46980SOL     OW49717   4.754   6.672  12.012  0.3781  0.1917 -0.5957
46980SOL    HW149718   4.741   6.603  12.078  1.1945  0.4880 -0.1084
46980SOL    HW249719   4.811   6.735  12.055 -1.1063  1.6769 -0.6883
46981SOL     OW49720   9.554   1.446   7.827 -0.3543  0.2299  0.3739
46981SOL    HW149721   9.530   1.493   7.746  1.3738  0.1362 -0.2438
46981SOL    HW249722   9.533   1.508   7.897 -0.7785  0.7942 -0.2339
46982SOL     OW49723   7.003   9.207   6.727  0.4137 -0.6741  0.5836
46982SOL    HW149724   7.066   9.136   6.736  0.6300 -0.5191  0.3186
46982SOL    HW249725   7.042   9.281   6.772  0.4236 -0.5767  0.4172
46983SOL     OW49726   0.655   4.427   9.692  0.7034 -0.3489 -0.6702
46983SOL    HW149727   0.666   4.522   9.685  0.3608 -0.4016 -2.2184
46983SOL    HW249728   0.742   4.395   9.719  0.4565  0.4904  1.3557
46984SOL     OW49729   2.097   0.217   3.616  0.9079  0.6470  0.3824
46984SOL    HW149730   2.170   0.272   3.590  0.8178  1.2118  1.2842
46984SOL    HW249731   2.136   0.148   3.669  0.9599  0.1175 -0.3394
46985SOL     OW49732   1.063   0.531  11.733 -0.5027  0.6793  0.1709
46985SOL    HW149733   1.090   0.454  11.782 -1.7480  0.4714  0.5598
46985SOL    HW249734   1.141   0.557  11.684 -0.2419 -1.2047 -0.4796
46986SOL     OW49735  10.226   4.416   0.323 -0.0774 -0.1151 -0.2882
46986SOL    HW149736  10.166   4.383   0.256  1.7227 -1.0526 -1.5290
46986SOL    HW249737  10.169   4.457   0.388 -1.9499  0.4283 -2.1508
46987SOL     OW49738   0.531  12.431  12.038 -0.3087 -0.2216 -0.1619
46987SOL    HW149739   0.560  12.454  11.950  1.3843 -0.9978  0.1474
46987SOL    HW249740   0.493  12.344  12.029  1.3616 -1.0120  0.1083
46988SOL     OW49741   6.296  10.372   2.723 -0.7468 -0.0554 -0.4616
46988SOL    HW149742   6.304  10.454   2.675 -0.3152  1.5298  2.1257
46988SOL    HW249743   6.381  10.329   2.712 -0.6582  0.2680 -1.0924
46989SOL     OW49744  10.438   2.422   7.502 -0.0657 -0.1730 -0.2910
46989SOL    HW149745  10.457   2.413   7.595  2.5084 -1.0503 -0.8200
46989SOL    HW249746  10.414   2.334   7.474  3.0341 -0.8902 -1.1154
46990SOL     OW49747   4.118   0.298  12.219 -0.1535  0.2675 -0.1451
46990SOL    HW149748   4.119   0.350  12.299  0.1000  0.5253 -0.3143
46990SOL    HW249749   4.082   0.357  12.152  0.2173  0.2548 -0.3576
46991SOL     OW49750   0.430   7.545  11.765  0.1596  0.1161 -0.0087
46991SOL    HW149751   0.521   7.533  11.795 -0.0756  1.7422  1.4808
46991SOL    HW249752   0.438   7.579  11.676  0.9940  0.1254  0.0636
46992SOL     OW49753   0.259   6.752   5.437  0.7370  0.4869 -0.2124
46992SOL    HW149754   0.344   6.757   5.482  0.4482  1.7963  0.2318
46992SOL    HW249755   0.280   6.715   5.351  1.8641  1.2524 -0.3034
46993SOL     OW49756  12.511   7.284   4.615  0.2982  0.0246  0.3582
46993SOL    HW149757  12.427   7.243   4.595 -0.2524 -0.2973  2.9545
46993SOL    HW249758  12.569   7.258   4.543 -1.7250  0.0679 -1.3773
46994SOL     OW49759  11.776  11.127   7.919 -0.8148 -0.2942  0.1618
46994SOL    HW149760  11.853  11.098   7.970  0.0050  1.6677  0.1075
46994SOL    HW249761  11.704  11.124   7.982 -0.7512 -2.1215  0.2258
46995SOL     OW49762   3.351   1.275   8.995  0.2408  0.2500  0.0399
46995SOL    HW149763   3.375   1.186   8.969 -0.5014 -0.1914  0.8346
46995SOL    HW249764   3.400   1.331   8.934 -1.8231 -0.7313 -2.7118
46996SOL     OW49765   9.380  10.330   0.287 -0.1914  0.3402 -0.0304
46996SOL    HW149766   9.374  10.414   0.334 -1.6678 -0.3729  1.1260
46996SOL    HW249767   9.469  10.300   0.303 -0.0822  1.0246  0.7371
46997SOL     OW49768  11.517   1.237   8.692 -0.1936 -1.2605  0.3351
46997SOL    HW149769  11.546   1.305   8.631 -0.6340 -1.9920 -0.7169
46997SOL    HW249770  11.595   1.215   8.743  0.2299 -0.7772 -0.0975
46998SOL     OW49771   6.922   1.592   7.702 -0.2301 -0.4851 -0.3885
46998SOL    HW149772   6.922   1.518   7.763 -1.4012 -0.0742  0.1462
46998SOL    HW249773   6.947   1.667   7.755  2.2806 -0.6415 -1.2075
46999SOL     OW49774   1.981   6.970   6.598  0.4041  0.4180 -0.2711
46999SOL    HW149775   1.945   7.002   6.680  0.4492  2.0435 -0.8548
46999SOL    HW249776   1.932   6.890   6.580 -0.2295  0.5278  0.8707
47000SOL     OW49777   0.953   9.433   7.216  0.2045 -0.0842 -0.2720
47000SOL    HW149778   1.017   9.362   7.218  0.7245  0.3896  1.1943
47000SOL    HW249779   0.923   9.436   7.125  0.0381 -2.2893 -0.3564
47001SOL     OW49780   0.942   6.594   5.711  0.6468  0.3730 -0.2958
47001SOL    HW149781   0.869   6.537   5.686  0.1689  0.9482 -0.2467
47001SOL    HW249782   0.992   6.607   5.630  1.1543 -0.6605 -0.1619
47002SOL     OW49783   8.237   7.788  10.356  0.2161 -0.3225 -0.2094
47002SOL    HW149784   8.261   7.700  10.326  3.9096  1.3068 -2.8514
47002SOL    HW249785   8.283   7.797  10.440  0.0945 -0.7710 -0.0884
47003SOL     OW49786   3.486   6.032   2.543  0.1710  0.1410  0.3396
47003SOL    HW149787   3.518   6.086   2.472 -0.1880 -0.8902 -0.6305
47003SOL    HW249788   3.391   6.035   2.535  0.1552 -1.0179 -0.0311
47004SOL     OW49789   2.827   6.720   6.716 -0.3865 -0.3227 -0.4221
47004SOL    HW149790   2.731   6.716   6.726 -0.6242  0.7304 -1.9466
47004SOL    HW249791   2.860   6.701   6.803 -2.0134  0.0284  0.3225
47005SOL     OW49792  12.419   8.114   6.155  0.4742  0.0593 -0.7829
47005SOL    HW149793  12.332   8.096   6.119  0.8846 -1.5683 -1.0354
47005SOL    HW249794  12.476   8.119   6.078  1.0408 -1.5602 -0.4908
47006SOL     OW49795   4.860   0.772  11.632 -0.0457 -0.1817  0.9164
47006SOL    HW149796   4.783   0.809  11.588 -0.4832  0.2700  2.0285
47006SOL    HW249797   4.851   0.677  11.620  1.0828 -0.0221 -1.9584
47007SOL     OW49798  10.503   0.095   6.445 -0.5489 -0.0960 -0.3653
47007SOL    HW149799  10.564   0.032   6.406  1.1730  0.5613  1.1501
47007SOL    HW249800  10.503   0.168   6.383  0.2146 -0.1001 -0.3873
47008SOL     OW49801   6.385   9.248   8.777 -0.6788  0.4570 -0.2899
47008SOL    HW149802   6.434   9.271   8.856 -2.2136 -2.3523  1.6741
47008SOL    HW249803   6.313   9.310   8.774 -0.6688  0.5216  0.6061
47009SOL     OW49804  10.299   0.862  12.559 -0.2250 -0.4768 -0.0462
47009SOL    HW149805  10.209   0.888  12.539  0.1412 -0.5539 -1.9700
47009SOL    HW249806  10.298   0.767  12.555  0.2620 -0.4606 -1.9273
47010SOL     OW49807   4.131   4.764   9.717  0.1028 -0.1906  0.2272
47010SOL    HW149808   4.094   4.727   9.636  2.0054 -1.0669 -0.2874
47010SOL    HW249809   4.151   4.687   9.771  1.4841  0.2238  0.3316
47011SOL     OW49810   5.411   1.787   6.847 -0.5067 -0.0676  0.3322
47011SOL    HW149811   5.372   1.796   6.760 -1.2091  0.8207  0.7235
47011SOL    HW249812   5.341   1.748   6.900 -0.4689  0.4550  0.7672
47012SOL     OW49813  12.312   7.335   4.239  0.3599 -0.1006  0.2979
47012SOL    HW149814  12.298   7.278   4.314  0.5961 -0.4976  0.0466
47012SOL    HW249815  12.226   7.345   4.198  0.5586 -1.5400 -0.5461
47013SOL     OW49816   2.854  12.167   5.187  0.2301 -0.3295 -0.1819
47013SOL    HW149817   2.836  12.128   5.273 -0.6269  1.2077  0.3870
47013SOL    HW249818   2.947  12.187   5.189  0.4665 -1.3897 -0.0938
47014SOL     OW49819   1.392   4.698   1.503 -0.3663  0.4913 -0.2875
47014SOL    HW149820   1.365   4.789   1.492 -0.0065  0.3751 -2.7303
47014SOL    HW249821   1.347   4.668   1.582 -0.6725  2.7031  0.4254
47015SOL     OW49822   5.899   6.971  12.174 -0.5994 -0.0616 -0.1251
47015SOL    HW149823   5.805   6.967  12.155 -0.7721  0.9274  0.4430
47015SOL    HW249824   5.941   6.974  12.088 -1.1570  0.6750 -0.3793
47016SOL     OW49825   3.421   2.485   7.662 -0.1368  0.3680 -0.0578
47016SOL    HW149826   3.357   2.440   7.717  0.2709 -1.0244 -0.6730
47016SOL    HW249827   3.462   2.548   7.721 -1.6800  0.9112  0.4780
47017SOL     OW49828   6.228   5.355   9.490  0.0587 -0.4601 -0.8021
47017SOL    HW149829   6.154   5.371   9.549  0.9996  0.3619  0.2043
47017SOL    HW249830   6.304   5.388   9.538  0.8725  0.1937 -2.4614
47018SOL     OW49831   2.042   3.678   1.185  0.2843 -0.0140 -0.7858
47018SOL    HW149832   1.972   3.698   1.247  0.8036  0.7252 -0.4220
47018SOL    HW249833   2.084   3.600   1.220 -0.1568 -0.2675 -0.8282
47019SOL     OW49834  11.545   4.987  11.164  0.1915  0.1628  0.3050
47019SOL    HW149835  11.614   4.971  11.100 -0.5410  0.0924 -0.4696
47019SOL    HW249836  11.588   5.039  11.232  1.5770 -1.6387  0.9085
47020SOL     OW49837   5.776   7.741  10.882 -0.1531  0.3231  0.8132
47020SOL    HW149838   5.731   7.817  10.919  1.0452  1.6625 -0.3524
47020SOL    HW249839   5.842   7.778  10.823  0.0629 -1.6392 -0.2837
47021SOL     OW49840   6.437   7.905   9.505  0.0007  0.2543 -0.5119
47021SOL    HW149841   6.451   7.908   9.600  0.6287 -0.2525 -0.5764
47021SOL    HW249842   6.519   7.938   9.468  0.1753 -0.5719 -0.8891
47022SOL     OW49843   4.700   6.047   7.707  0.6788 -0.0368  0.3548
47022SOL    HW149844   4.610   6.077   7.712  0.4019 -0.6141 -0.7485
47022SOL    HW249845   4.703   5.993   7.627  1.6760 -1.0686  1.0459
47023SOL     OW49846   0.604   2.403  10.989  0.0894 -0.1528 -0.1439
47023SOL    HW149847   0.604   2.375  11.081 -0.8265  0.1133 -0.0510
47023SOL    HW249848   0.524   2.455  10.980  0.2731 -0.0112 -1.0465
47024SOL     OW49849   6.311   7.098   1.721 -0.2180 -0.2321 -0.2677
47024SOL    HW149850   6.352   7.117   1.637 -0.1604 -1.5105 -0.5474
47024SOL    HW249851   6.354   7.018   1.751  0.2638  0.5769  1.3287
47025SOL     OW49852   8.883   2.905  10.295  0.5341 -0.4496 -0.2191
47025SOL    HW149853   8.881   2.994  10.331 -1.8757 -1.1972  1.8069
47025SOL    HW249854   8.844   2.914  10.208  0.4050  0.5064 -0.0827
47026SOL     OW49855   6.716   8.633   8.423 -0.0807 -1.0871  0.4995
47026SOL    HW149856   6.641   8.592   8.379 -0.6251 -0.0044  0.3878
47026SOL    HW249857   6.769   8.669   8.351  0.4233 -1.6129  0.5953
47027SOL     OW49858   3.315   1.032   0.311 -0.0109  0.2996  0.1565
47027SOL    HW149859   3.393   0.984   0.342 -0.1430 -0.0657 -0.0698
47027SOL    HW249860   3.264   0.966   0.264 -0.7097  0.4154  0.7359
47028SOL     OW49861   4.879  10.309   6.433 -0.1552  0.7150  0.0274
47028SOL    HW149862   4.842  10.306   6.522  0.3290 -1.6207  0.2038
47028SOL    HW249863   4.810  10.272   6.377  0.4159 -0.0065 -0.2096
47029SOL     OW49864   6.632  10.583   0.815 -0.0661  0.5149 -0.0912
47029SOL    HW149865   6.575  10.577   0.892  0.0644 -0.3585 -0.0563
47029SOL    HW249866   6.623  10.674   0.786 -2.0327  0.2496 -0.4894
47030SOL     OW49867   1.915   6.364   9.437 -0.4724  0.5870  0.3809
47030SOL    HW149868   2.008   6.355   9.417 -0.7079  1.7530 -1.5919
47030SOL    HW249869   1.903   6.319   9.520  1.3466 -1.9701 -0.6246
47031SOL     OW49870   4.455   8.343   7.407 -0.4264 -0.0294 -0.4518
47031SOL    HW149871   4.413   8.398   7.341  0.1552  1.2188  0.1852
47031SOL    HW249872   4.421   8.376   7.491 -1.8313 -2.1370 -0.1013
47032SOL     OW49873   6.571   1.104   0.957 -0.5865 -0.3600  0.0703
47032SOL    HW149874   6.599   1.083   1.046 -0.9662  0.5789  0.4240
47032SOL    HW249875   6.630   1.175   0.930 -0.9702 -0.1166 -0.1362
47033SOL     OW49876   2.615   4.764   7.526  0.0547  0.9291  0.1783
47033SOL    HW149877   2.548   4.697   7.513  1.4856 -0.4767 -0.3783
47033SOL    HW249878   2.621   4.774   7.621  1.7735 -1.9335  0.4927
47034SOL     OW49879  11.318   5.825   8.626  0.0234  0.3407 -0.3340
47034SOL    HW149880  11.401   5.798   8.587 -0.0780 -0.1836 -0.1852
47034SOL    HW249881  11.302   5.912   8.589  0.8227  0.6118 -0.0887
47035SOL     OW49882  11.173   9.328   1.893  0.2884  0.0028  0.6580
47035SOL    HW149883  11.087   9.346   1.932  0.4106  1.3024  0.3613
47035SOL    HW249884  11.224   9.407   1.910  0.9784 -0.2090 -0.3717
47036SOL     OW49885   2.064   9.309   1.939 -0.0937  0.3109 -0.0428
47036SOL    HW149886   2.133   9.290   2.002  1.2846 -1.2180 -1.8583
47036SOL    HW249887   1.994   9.248   1.961 -0.1006  0.5652  0.6641
47037SOL     OW49888   8.388   8.668   4.391 -0.5404 -0.0369 -0.1065
47037SOL    HW149889   8.420   8.696   4.477 -0.1858  1.3512 -0.6746
47037SOL    HW249890   8.466   8.633   4.347 -0.8127 -1.1958  0.2804
47038SOL     OW49891   5.627   0.456   0.035 -0.3898  0.4411 -0.4285
47038SOL    HW149892   5.534   0.472   0.055 -0.3417  0.1723  0.0399
47038SOL    HW249893   5.674   0.489   0.111 -0.4031 -3.4989  1.5690
47039SOL     OW49894  12.347   1.325  12.521  0.1184 -0.0835 -0.3061
47039SOL    HW149895  12.263   1.332  12.474  0.1099  0.8825 -0.1669
47039SOL    HW249896  12.323   1.295  12.608 -0.1690  0.9327 -0.0287
47040SOL     OW49897   5.026   5.780   6.401  0.2902 -0.2052  0.7778
47040SOL    HW149898   5.063   5.748   6.319 -3.2052  0.4728 -1.2812
47040SOL    HW249899   5.003   5.701   6.450  1.4590 -0.6338  0.6441
47041SOL     OW49900   4.734  10.329   0.004  0.1437 -0.6773 -0.4673
47041SOL    HW149901   4.719  10.404   0.061  0.6361 -1.6298  0.9773
47041SOL    HW249902   4.668  10.264   0.032 -0.5459 -0.6736 -1.9564
47042SOL     OW49903   1.373   6.426   1.774 -0.2217  0.1548 -0.0803
47042SOL    HW149904   1.408   6.495   1.830  2.4966 -1.7535  0.7777
47042SOL    HW249905   1.310   6.379   1.829  1.1935 -0.6837  0.8609
47043SOL     OW49906  12.065   1.765   1.207 -0.2163  0.7757 -0.2140
47043SOL    HW149907  11.996   1.782   1.271 -0.6158  0.2683 -0.4991
47043SOL    HW249908  12.092   1.852   1.177 -0.1524  1.0055  0.5064
47044SOL     OW49909   5.746   3.892  10.770  0.4971  0.0148  0.8052
47044SOL    HW149910   5.670   3.933  10.729  1.3967  0.8304 -0.1171
47044SOL    HW249911   5.710   3.840  10.842 -0.7777  1.6375  1.3805
47045SOL     OW49912   5.816   8.830   5.358  0.5530  0.6297 -0.0450
47045SOL    HW149913   5.887   8.844   5.296  1.0607  1.3730  0.6852
47045SOL    HW249914   5.822   8.904   5.418  0.0088 -0.0218  0.8318
47046SOL     OW49915  12.374  11.886   6.631  0.5686 -0.3806  0.5886
47046SOL    HW149916  12.462  11.859   6.659  1.2001 -1.0574 -1.8160
47046SOL    HW249917  12.324  11.805   6.632  0.6826 -0.4693 -0.4749
47047SOL     OW49918   1.095   5.881   0.116 -0.4766  0.0644  0.2866
47047SOL    HW149919   1.114   5.790   0.139  1.5589 -0.1495 -1.8500
47047SOL    HW249920   1.157   5.933   0.168  1.2380 -0.1430 -1.4073
47048SOL     OW49921   4.895   2.053  12.469  0.0337  0.1309 -0.1469
47048SOL    HW149922   4.833   2.039  12.541  0.3167 -0.0364  0.0644
47048SOL    HW249923   4.879   1.980  12.409  0.1385  0.0002 -0.0146
47049SOL     OW49924   2.410   0.456   5.726 -0.1970  0.0200 -0.2514
47049SOL    HW149925   2.368   0.397   5.664 -0.4168 -0.7575  0.6048
47049SOL    HW249926   2.373   0.542   5.707 -1.6305 -0.5133 -0.0269
47050SOL     OW49927   6.953   3.224   6.187 -0.2930 -0.4366 -0.0093
47050SOL    HW149928   6.960   3.150   6.127  1.3262  0.9524 -1.6544
47050SOL    HW249929   7.040   3.263   6.188 -0.7940  0.7987  1.7205
47051SOL     OW49930   7.802   0.498  11.795  0.4582 -0.4658 -0.3902
47051SOL    HW149931   7.734   0.435  11.773  0.3519 -0.6130  0.3248
47051SOL    HW249932   7.865   0.448  11.847  0.0474  0.1617  0.7388
47052SOL     OW49933   2.706   7.726   0.323  0.5729  0.2157  0.5531
47052SOL    HW149934   2.723   7.724   0.229  2.3638 -1.6945  0.8480
47052SOL    HW249935   2.724   7.816   0.348  2.2393  0.2653 -0.6208
47053SOL     OW49936   7.528   1.480   2.168 -0.9087 -0.0946  0.0269
47053SOL    HW149937   7.525   1.554   2.107 -1.6265 -0.2498 -0.1265
47053SOL    HW249938   7.545   1.404   2.113 -2.5808 -0.3858 -0.1302
47054SOL     OW49939   1.928   3.425   4.340 -0.6748 -0.0624  0.2833
47054SOL    HW149940   1.935   3.508   4.386 -0.5392  0.5703 -0.8307
47054SOL    HW249941   2.010   3.416   4.292 -0.4425 -1.1371  0.8369
47055SOL     OW49942   6.638   5.017   2.887  0.0828  0.1242  0.1305
47055SOL    HW149943   6.639   5.029   2.982 -1.0553 -2.1681  0.5141
47055SOL    HW249944   6.546   5.003   2.866  0.4943 -1.0161 -1.0335
47056SOL     OW49945  11.000   7.192   0.165 -0.6566  0.2144  0.3798
47056SOL    HW149946  10.949   7.131   0.112 -0.3697  0.3472 -0.0561
47056SOL    HW249947  11.091   7.167   0.148 -0.5736  0.0124  1.1049
47057SOL     OW49948   5.242   4.021  11.167  0.4142 -0.0508  0.2262
47057SOL    HW149949   5.214   3.930  11.156  3.1681 -0.9276 -0.4299
47057SOL    HW249950   5.200   4.049  11.249 -1.5228 -1.4372 -0.2114
47058SOL     OW49951   0.348   4.679   3.231 -0.0055  0.8388  0.4116
47058SOL    HW149952   0.267   4.708   3.274 -1.5832 -0.7733 -1.2700
47058SOL    HW249953   0.369   4.596   3.272 -0.0432  0.5463 -0.1512
47059SOL     OW49954   4.814  10.648   3.411 -0.0002 -0.5507 -0.8397
47059SOL    HW149955   4.855  10.627   3.327 -0.3575 -2.9727 -0.4780
47059SOL    HW249956   4.873  10.613   3.477  0.2535  1.2971 -0.0339
47060SOL     OW49957   7.632   2.878   7.847  0.1781 -0.1356  0.7076
47060SOL    HW149958   7.688   2.883   7.924  3.0373 -1.6036 -1.1033
47060SOL    HW249959   7.594   2.790   7.851  0.4337 -0.2627  0.4082
47061SOL     OW49960   9.616   0.353   8.799  0.1018  0.1319 -0.0760
47061SOL    HW149961   9.682   0.346   8.868  1.0133 -1.5134 -1.0476
47061SOL    HW249962   9.627   0.442   8.765  1.2045  0.1930  0.3886
47062SOL     OW49963   4.182   1.588   0.495 -0.2562  0.6290  0.1436
47062SOL    HW149964   4.151   1.643   0.423 -0.1594  1.5107  0.7536
47062SOL    HW249965   4.274   1.572   0.475 -0.2516  0.8009  0.0248
47063SOL     OW49966  11.668   4.308  12.574  0.0577 -0.7914 -0.4103
47063SOL    HW149967  11.590   4.295  12.519  0.4996 -1.0802 -0.9749
47063SOL    HW249968  11.634   4.347  12.655 -0.5384  0.0692 -1.0682
47064SOL     OW49969   0.681   5.798   2.600  0.4076 -0.6547  0.2636
47064SOL    HW149970   0.720   5.844   2.674 -1.4125 -0.4372  1.1414
47064SOL    HW249971   0.714   5.845   2.523  2.2874 -0.8503  0.8929
47065SOL     OW49972   6.570   4.850   8.886 -0.0005  0.2971  0.3322
47065SOL    HW149973   6.551   4.815   8.799 -0.4887  1.3815 -0.0147
47065SOL    HW249974   6.658   4.887   8.878  0.9915 -1.7555  1.0082
47066SOL     OW49975   5.024   4.998  12.367 -0.4211 -0.3652  0.2701
47066SOL    HW149976   4.955   5.008  12.302  0.9472 -1.0767 -1.3613
47066SOL    HW249977   4.985   5.031  12.449 -2.2217  0.4618 -0.8587
47067SOL     OW49978  12.011  11.219   7.536 -0.0949  0.2244 -0.0075
47067SOL    HW149979  12.088  11.163   7.539 -0.2171  0.0325 -0.4145
47067SOL    HW249980  11.967  11.196   7.454  0.6188  1.9307 -0.9179
47068SOL     OW49981   3.766   4.664   5.589 -0.1347 -0.0389  0.2883
47068SOL    HW149982   3.837   4.700   5.535 -1.8639  0.5088 -1.7673
47068SOL    HW249983   3.718   4.607   5.529 -2.3363  0.8211  1.1508
47069SOL     OW49984  11.435   3.547  12.154  0.0435  0.1694 -0.6823
47069SOL    HW149985  11.412   3.455  12.144  0.6309  0.1530 -2.1413
47069SOL    HW249986  11.386   3.591  12.085 -1.2252  1.1655  0.7833
47070SOL     OW49987   4.710   5.769  10.750 -0.6588  0.1608  0.0636
47070SOL    HW149988   4.696   5.756  10.657 -0.2408 -0.0538  0.0289
47070SOL    HW249989   4.794   5.814  10.757 -1.2003  1.1708  0.2864
47071SOL     OW49990  10.735   1.398   9.281  0.1276  0.1983 -0.1766
47071SOL    HW149991  10.662   1.417   9.340 -0.1590 -1.6618  0.1174
47071SOL    HW249992  10.785   1.329   9.325  2.6430  2.0021  0.0728
47072SOL     OW49993  12.474   1.492  11.728 -0.3689  0.0247  1.0083
47072SOL    HW149994  12.562   1.525  11.714 -0.7658  1.0159  0.7585
47072SOL    HW249995  12.440   1.544  11.801 -1.0641  0.2946  0.5019
47073SOL     OW49996   0.113   7.772   2.188 -0.3223 -0.1038  0.3902
47073SOL    HW149997   0.087   7.702   2.248 -0.5348 -0.1363  0.2621
47073SOL    HW249998   0.139   7.845   2.245 -1.6798  0.3008  0.5356
47074SOL     OW49999   1.845   8.999   0.545  0.4109 -0.2319 -0.0428
47074SOL    HW150000   1.927   8.988   0.498  0.0635 -0.6931 -0.5534
47074SOL    HW250001   1.871   9.026   0.633  1.3145 -3.6701  0.9004
47075SOL     OW50002   5.848  12.539   2.287 -0.3775  0.3069 -0.7347
47075SOL    HW150003   5.783  12.508   2.349 -0.7248  0.4777 -1.0094
47075SOL    HW250004   5.900  12.462   2.265 -0.9694  0.0086 -1.0989
47076SOL     OW50005  11.038   1.238   1.141 -0.1595  0.6071 -0.1137
47076SOL    HW150006  11.110   1.253   1.202  0.3788  0.3180 -0.6618
47076SOL    HW250007  10.967   1.202   1.196  0.0398  1.0701  0.4577
47077SOL     OW50008   0.266   1.118  12.121 -0.2348  0.3542  0.2081
47077SOL    HW150009   0.281   1.207  12.088 -0.2674 -0.8576 -3.6012
47077SOL    HW250010   0.325   1.063  12.070 -1.5255 -2.0161  1.0925
47078SOL     OW50011   1.162   2.360  11.696 -0.5944  0.1000 -0.2634
47078SOL    HW150012   1.132   2.315  11.776  1.5619 -0.7636  0.1415
47078SOL    HW250013   1.091   2.348  11.634 -0.7482 -2.6849  0.3007
47079SOL     OW50014   5.910   2.994   2.139 -0.1506  0.0028  0.1591
47079SOL    HW150015   5.891   2.900   2.131  0.0500 -0.1585  1.4510
47079SOL    HW250016   5.999   2.997   2.175  0.5867  0.7206 -1.6063
47080SOL     OW50017   3.289   3.071  10.517 -0.0243 -0.2038 -0.2603
47080SOL    HW150018   3.342   2.995  10.491  1.1399  0.2190  0.7550
47080SOL    HW250019   3.255   3.106  10.435  1.5879 -0.2764 -1.0021
47081SOL     OW50020   8.992   0.112   7.253 -0.4183 -0.9836 -0.3891
47081SOL    HW150021   8.965   0.201   7.277 -1.1181 -1.7695  2.0037
47081SOL    HW250022   8.929   0.086   7.186  0.8636  0.8918 -2.4636
47082SOL     OW50023   5.436   5.858  12.448  0.1282  0.0535 -0.2202
47082SOL    HW150024   5.378   5.868  12.373 -0.1003  2.3398  0.2137
47082SOL    HW250025   5.523   5.847  12.410 -0.0040  1.0569 -0.8213
47083SOL     OW50026   0.581   6.672   8.436  0.2607 -0.4019  0.3147
47083SOL    HW150027   0.560   6.584   8.467  1.8626 -1.7007 -1.9798
47083SOL    HW250028   0.609   6.660   8.345  0.2507  2.5332 -0.1883
47084SOL     OW50029  12.570   3.192  12.190 -0.8428 -0.7182  0.1353
47084SOL    HW150030  12.531   3.258  12.133 -1.5418 -0.8873  0.4035
47084SOL    HW250031  12.654   3.229  12.217  0.0302 -1.1154 -1.8838
47085SOL     OW50032   3.308   2.096   3.612 -0.0299  0.4085  0.4408
47085SOL    HW150033   3.353   2.034   3.669  0.4091 -0.2433 -0.5800
47085SOL    HW250034   3.225   2.052   3.590 -0.8565  1.2748  1.7025
47086SOL     OW50035   4.005   8.961  12.184  0.4191  0.1153 -0.3874
47086SOL    HW150036   3.909   8.964  12.186  0.3074 -1.7561 -0.6660
47086SOL    HW250037   4.025   8.871  12.155  2.2451  0.8282 -1.5063
47087SOL     OW50038   1.782   4.970   7.476 -0.2569  0.6098 -0.5835
47087SOL    HW150039   1.761   5.048   7.526  1.5784  0.1470  1.0555
47087SOL    HW250040   1.697   4.931   7.455 -1.1740  2.5192 -0.6354
47088SOL     OW50041   9.099   9.845   3.686 -0.4147  0.4215  0.1354
47088SOL    HW150042   9.080   9.905   3.759  0.2468  1.4568 -0.5154
47088SOL    HW250043   9.122   9.763   3.729 -1.3926  0.5961  1.0550
47089SOL     OW50044   2.618   9.223   9.652 -0.3306  0.1633 -0.4592
47089SOL    HW150045   2.647   9.300   9.701 -1.1091  0.5786 -0.6378
47089SOL    HW250046   2.610   9.254   9.562 -0.9684 -0.0407 -0.4727
47090SOL     OW50047   7.073   1.457   4.908  0.3173 -0.2380 -0.6533
47090SOL    HW150048   7.137   1.524   4.885  2.4143 -1.9674 -0.1981
47090SOL    HW250049   7.065   1.402   4.830 -0.6737 -0.0380 -0.7141
47091SOL     OW50050  11.855   6.322   7.777 -0.7826 -0.1819 -0.1632
47091SOL    HW150051  11.907   6.257   7.729 -0.0060  1.3854 -1.5501
47091SOL    HW250052  11.769   6.282   7.786  0.0871 -2.0460  0.4462
47092SOL     OW50053   0.918   5.661  12.177  0.1252 -1.0325  0.3730
47092SOL    HW150054   0.967   5.601  12.122 -1.1999 -1.0399 -0.8682
47092SOL    HW250055   0.973   5.675  12.253  2.3120 -0.5533 -1.2120
47093SOL     OW50056   7.937   7.909  10.003  0.1631  0.3127  0.8997
47093SOL    HW150057   7.904   7.991   9.966 -1.6207 -0.1769  1.2928
47093SOL    HW250058   7.948   7.928  10.096  0.4278  0.3042  0.8691
47094SOL     OW50059   0.048   4.577   6.322 -0.4963  0.2704  0.4953
47094SOL    HW150060  -0.035   4.602   6.282 -0.7193 -1.3790 -0.1829
47094SOL    HW250061   0.060   4.486   6.296  1.8817  0.6640 -0.0309
47095SOL     OW50062   6.626  12.467   0.299  0.4904  0.2453 -0.0669
47095SOL    HW150063   6.693  12.419   0.347  0.8044  1.0634  0.3312
47095SOL    HW250064   6.620  12.422   0.215  0.3786 -0.8208  0.5011
47096SOL     OW50065   5.688   2.466   7.695  0.3184 -0.1750  0.1888
47096SOL    HW150066   5.776   2.438   7.719  0.3878 -0.1652 -0.0496
47096SOL    HW250067   5.645   2.484   7.779  1.2931  2.1012  0.2970
47097SOL     OW50068   3.823  10.480   1.448  0.1539 -0.3095 -0.4127
47097SOL    HW150069   3.898  10.425   1.428  0.1484 -1.5334  2.4053
47097SOL    HW250070   3.749  10.419   1.452  0.1817 -0.2939  2.9841
47098SOL     OW50071   2.816   2.568   7.267 -0.3727  0.2229 -0.1151
47098SOL    HW150072   2.732   2.614   7.264 -0.3529  0.2363 -0.6764
47098SOL    HW250073   2.813   2.509   7.192  0.2829  0.5188 -0.3856
47099SOL     OW50074   3.645   6.437   1.559  0.3660 -0.1101  0.3776
47099SOL    HW150075   3.617   6.382   1.486  0.6482  0.9022 -0.5199
47099SOL    HW250076   3.706   6.500   1.520  0.5691  0.4212  1.4971
47100SOL     OW50077   9.804  11.380  12.304  0.6176  0.0019  0.4444
47100SOL    HW150078   9.718  11.398  12.266  0.0040  0.9364  2.1425
47100SOL    HW250079   9.864  11.437  12.257  0.3588 -0.7892 -0.8800
47101SOL     OW50080  10.461   5.203  12.498 -0.2038  0.0573  0.1487
47101SOL    HW150081  10.520   5.128  12.508  0.6252  0.5740 -0.6786
47101SOL    HW250082  10.480   5.258  12.574 -0.6026 -0.4138  0.5995
47102SOL     OW50083   8.197   6.253   8.861 -0.5672  0.1616 -0.1303
47102SOL    HW150084   8.110   6.247   8.823  0.5508 -1.4377 -2.6851
47102SOL    HW250085   8.223   6.162   8.878  1.7089  0.2851 -2.3554
47103SOL     OW50086   0.201   6.543   3.862  0.2585  0.1949 -0.4910
47103SOL    HW150087   0.122   6.555   3.809  1.9448  0.6075 -3.0957
47103SOL    HW250088   0.234   6.457   3.837  1.0577  0.3677 -0.0645
47104SOL     OW50089   4.829  10.129   5.564 -0.1964 -0.0390  0.0856
47104SOL    HW150090   4.916  10.091   5.556  0.1245  0.3393  1.5168
47104SOL    HW250091   4.776  10.080   5.501  1.0218 -0.2969 -0.7821
47105SOL     OW50092   3.127   7.313   5.242  0.7067 -0.0302 -0.5572
47105SOL    HW150093   3.092   7.229   5.211 -0.6787  0.4638 -0.4186
47105SOL    HW250094   3.202   7.330   5.185  0.4483 -0.9161 -1.1967
47106SOL     OW50095  11.447   2.183   0.973  0.0949 -0.3941  0.5012
47106SOL    HW150096  11.536   2.187   0.937  0.1307 -1.3488  0.4666
47106SOL    HW250097  11.392   2.220   0.903  0.5986  1.6263  1.1070
47107SOL     OW50098   5.025   7.205   6.300  0.3461  0.7371 -0.7700
47107SOL    HW150099   5.028   7.117   6.337  2.3470  1.0122 -0.2152
47107SOL    HW250100   4.932   7.219   6.283 -0.3827 -0.3769  1.7662
47108SOL     OW50101   5.394   3.324  11.378 -0.4300  0.2454  0.5116
47108SOL    HW150102   5.434   3.238  11.364 -1.5310 -0.5118  1.7648
47108SOL    HW250103   5.396   3.336  11.473 -0.1866  1.6634  0.3415
47109SOL     OW50104   0.168  12.112   1.342  0.1205 -0.6426  0.2038
47109SOL    HW150105   0.188  12.020   1.322  2.0903 -0.1936 -0.0954
47109SOL    HW250106   0.109  12.107   1.417  1.4183 -2.1615  1.1977
47110SOL     OW50107   3.562   1.212   6.066 -0.2503 -0.2710 -0.1061
47110SOL    HW150108   3.600   1.294   6.035  0.8453 -0.3301  1.0257
47110SOL    HW250109   3.637   1.157   6.088 -0.9769 -0.6236  1.6045
47111SOL     OW50110   0.550  10.185  12.372  0.1153 -0.4164 -0.2886
47111SOL    HW150111   0.486  10.256  12.380  1.1415  0.4281  0.6954
47111SOL    HW250112   0.523  10.138  12.293 -1.3775  0.2575 -0.2142
47112SOL     OW50113   4.301   5.503   4.746  0.1024  0.5531 -0.2449
47112SOL    HW150114   4.263   5.445   4.811  0.2879  1.5845  0.8108
47112SOL    HW250115   4.226   5.542   4.702 -0.0808  1.5422  0.8951
47113SOL     OW50116   9.559   2.927   0.646  0.1903 -0.2925 -0.0376
47113SOL    HW150117   9.507   2.973   0.581 -1.2416 -1.1048  0.4944
47113SOL    HW250118   9.563   2.987   0.721 -3.6724 -1.7280  1.5955
47114SOL     OW50119   7.914   0.105   8.321 -0.0559 -0.4662  0.2266
47114SOL    HW150120   7.954   0.081   8.237  0.3294  1.4674 -0.1792
47114SOL    HW250121   7.987   0.117   8.381 -0.1815  0.2149  0.2570
47115SOL     OW50122   0.311   2.047   6.850 -0.1354  0.1792  0.3214
47115SOL    HW150123   0.404   2.067   6.860  0.5523 -1.4005 -2.0429
47115SOL    HW250124   0.268   2.132   6.843  1.1305  0.9277  1.3547
47116SOL     OW50125   5.305   1.133   4.867  1.1144  0.3860 -0.3934
47116SOL    HW150126   5.377   1.082   4.831  2.2743  2.2343 -0.8198
47116SOL    HW250127   5.287   1.199   4.800  1.2717  2.0238  1.1023
47117SOL     OW50128   7.626   6.581   8.107 -0.3822 -0.0795 -0.3117
47117SOL    HW150129   7.544   6.533   8.112  0.2610 -1.1287  0.7454
47117SOL    HW250130   7.691   6.522   8.146  0.1066  2.3121  2.9297
47118SOL     OW50131   6.542   1.747  11.239 -0.6546 -0.0115  0.0421
47118SOL    HW150132   6.587   1.825  11.207 -1.3203  0.9921  1.4294
47118SOL    HW250133   6.454   1.779  11.263 -1.0164 -1.2427  0.4064
47119SOL     OW50134   4.517   8.755   6.223  0.4058 -0.6319  0.3350
47119SOL    HW150135   4.501   8.846   6.199  3.5952  0.2183  0.9354
47119SOL    HW250136   4.550   8.714   6.143 -1.7407 -1.5571 -0.1450
47120SOL     OW50137   7.621  10.787   3.185  0.5072  0.2530  0.1789
47120SOL    HW150138   7.626  10.795   3.280 -0.9607 -0.0857  0.3064
47120SOL    HW250139   7.632  10.693   3.168  2.7178  0.5049 -0.1773
47121SOL     OW50140  12.184  11.405   9.846  0.1321  0.1159  0.3855
47121SOL    HW150141  12.143  11.342   9.905 -0.4166 -1.3939 -1.4814
47121SOL    HW250142  12.117  11.472   9.833 -0.7814 -0.9160 -0.5048
47122SOL     OW50143   4.325   8.126   1.975  0.6582  0.3416 -0.4283
47122SOL    HW150144   4.253   8.064   1.979  0.3589  0.6897 -0.3650
47122SOL    HW250145   4.404   8.072   1.982  0.3904  0.0128  0.1211
47123SOL     OW50146   0.311  12.522   2.129  0.1608 -0.0002 -0.1374
47123SOL    HW150147   0.260  12.582   2.182  1.1635  2.1708 -1.4952
47123SOL    HW250148   0.248  12.483   2.068 -0.1807  1.4110 -0.7160
47124SOL     OW50149   4.719   8.330   0.529 -0.3009 -0.7044 -0.4395
47124SOL    HW150150   4.652   8.316   0.596 -0.4466 -1.0315 -0.6523
47124SOL    HW250151   4.746   8.421   0.541  0.8585 -1.2108  1.1662
47125SOL     OW50152   4.237   6.907  12.249  0.2734 -0.4812  0.6708
47125SOL    HW150153   4.178   6.892  12.323 -2.1488 -1.6609 -1.3366
47125SOL    HW250154   4.232   6.826  12.197  0.2829  0.9826 -1.8053
47126SOL     OW50155   6.263   9.584   7.981  0.1697  0.1216 -0.9503
47126SOL    HW150156   6.318   9.594   7.903 -0.0479  2.8436 -0.8495
47126SOL    HW250157   6.254   9.673   8.016 -0.3535 -0.9016  1.7864
47127SOL     OW50158   8.919   1.495   3.528 -0.1578  0.3599 -0.2654
47127SOL    HW150159   8.999   1.486   3.581  1.0891  1.3723 -1.8742
47127SOL    HW250160   8.884   1.581   3.553 -0.0375  0.4693 -0.4723
47128SOL     OW50161   9.316   4.726   7.093 -0.0338 -0.7086 -0.1930
47128SOL    HW150162   9.343   4.696   7.179 -1.4352 -0.3193  0.4049
47128SOL    HW250163   9.288   4.817   7.107 -1.2765 -0.9762 -0.8470
47129SOL     OW50164  10.264   2.165   2.891 -0.3139  0.2871 -0.3067
47129SOL    HW150165  10.351   2.131   2.870  0.1802  1.7847 -0.7717
47129SOL    HW250166  10.204   2.102   2.850  0.4673 -1.5499  1.1897
47130SOL     OW50167   1.447   3.061   0.398 -0.0337 -0.2815  0.1359
47130SOL    HW150168   1.515   3.016   0.448  0.0597 -0.2560  0.0349
47130SOL    HW250169   1.452   3.022   0.310  0.3033  0.1769 -0.0578
47131SOL     OW50170   5.488   0.821   9.085 -0.0470  0.1060  0.1289
47131SOL    HW150171   5.561   0.784   9.035 -0.4167  1.1281 -1.2168
47131SOL    HW250172   5.516   0.910   9.106 -0.9580  0.5843 -0.5871
47132SOL     OW50173   9.530   3.028  12.528  0.1734  0.0783  0.1432
47132SOL    HW150174   9.595   2.970  12.489  0.1607 -0.0938  0.3720
47132SOL    HW250175   9.446   2.996  12.494  0.0153 -1.0912  1.5370
47133SOL     OW50176  10.378   7.243   3.827 -0.7420  0.0337 -0.4476
47133SOL    HW150177  10.415   7.253   3.914  0.7581  0.9421 -1.1543
47133SOL    HW250178  10.367   7.148   3.816 -0.3636 -0.1210  0.4794
47134SOL     OW50179  11.717   1.586   1.813  0.6548 -0.0384 -0.4477
47134SOL    HW150180  11.696   1.592   1.720  2.0774 -0.6047 -0.8311
47134SOL    HW250181  11.742   1.675   1.837  1.1224 -0.0668 -0.8225
47135SOL     OW50182   0.012   1.770   0.195  0.2998 -0.4454  0.3823
47135SOL    HW150183  -0.013   1.756   0.286  0.3218 -0.2866  0.4126
47135SOL    HW250184   0.061   1.852   0.195 -1.1789  0.4774 -0.0423
47136SOL     OW50185   1.826   8.540   6.699 -0.0064 -0.8346  0.2930
47136SOL    HW150186   1.738   8.513   6.672 -0.1349  0.3257 -0.5331
47136SOL    HW250187   1.870   8.458   6.724 -0.8780 -1.5913 -0.5716
47137SOL     OW50188  10.394   6.338   4.012 -0.3950  0.1711  0.0451
47137SOL    HW150189  10.456   6.275   3.976 -0.2849 -2.2694  3.9692
47137SOL    HW250190  10.319   6.334   3.952  0.8318 -1.3262 -1.5130
47138SOL     OW50191   6.455  10.233   3.305  0.2223 -0.7277 -0.4124
47138SOL    HW150192   6.513  10.214   3.378 -1.4049 -0.5618  0.9710
47138SOL    HW250193   6.513  10.268   3.237  1.7077 -0.4143  0.9594
47139SOL     OW50194   3.088   4.495  10.625 -0.1273 -0.3542  0.0678
47139SOL    HW150195   3.081   4.589  10.608 -0.0987 -0.6991 -2.2290
47139SOL    HW250196   3.000   4.470  10.655 -0.6159  0.1502 -0.8907
47140SOL     OW50197   2.314   6.947   5.523 -0.0746 -0.0101  0.9240
47140SOL    HW150198   2.347   6.881   5.461 -0.5609 -1.3865  2.0770
47140SOL    HW250199   2.370   6.937   5.600  0.0268  1.1532  1.0230
47141SOL     OW50200   2.645   5.710   9.120 -0.9288  0.1761  0.3806
47141SOL    HW150201   2.611   5.747   9.202  0.5910  1.6352  0.4017
47141SOL    HW250202   2.623   5.776   9.054  1.7941  1.2127  0.4076
47142SOL     OW50203   6.999   8.042   9.442 -0.4046  0.3242  0.2721
47142SOL    HW150204   7.031   8.109   9.502  0.1774  1.2470 -1.0232
47142SOL    HW250205   6.909   8.068   9.422  0.0472  1.1472 -0.7758
47143SOL     OW50206   1.929   1.196   3.462 -0.3115  0.3623 -0.2445
47143SOL    HW150207   1.836   1.208   3.481 -0.4999 -2.2192  0.8679
47143SOL    HW250208   1.931   1.148   3.379 -0.1226 -1.1449  0.5800
47144SOL     OW50209  10.142  11.482   8.682 -0.3454 -0.0116  0.6194
47144SOL    HW150210  10.197  11.446   8.613 -1.0782 -1.4984  0.7715
47144SOL    HW250211  10.137  11.413   8.748 -2.4372  0.0146  0.5785
47145SOL     OW50212   5.354   8.216  11.768 -0.3224 -0.0716  0.1021
47145SOL    HW150213   5.327   8.163  11.694  0.0053  0.2621 -0.2606
47145SOL    HW250214   5.399   8.155  11.827 -0.0183 -0.2074 -0.2718
47146SOL     OW50215   4.710   7.892   1.681 -0.0705 -0.0768 -0.5170
47146SOL    HW150216   4.796   7.850   1.673  1.7764  3.2375  0.1898
47146SOL    HW250217   4.658   7.853   1.610  2.1632 -1.7539 -1.3478
47147SOL     OW50218  10.727   0.165   6.142  0.2045  0.4102  0.2609
47147SOL    HW150219  10.736   0.245   6.193  1.0708  0.1406  0.5479
47147SOL    HW250220  10.815   0.127   6.141 -0.2159 -0.5954  0.2306
47148SOL     OW50221   9.228   4.841   7.693  0.0359  0.0018  0.1191
47148SOL    HW150222   9.143   4.881   7.708 -0.3590 -0.5830 -0.4855
47148SOL    HW250223   9.270   4.840   7.779 -1.4893 -1.7893  0.9181
47149SOL     OW50224   8.069   1.922   3.472 -0.1458  0.1346  0.3717
47149SOL    HW150225   8.106   1.962   3.551  0.1197 -0.0584  0.3496
47149SOL    HW250226   7.979   1.952   3.469  0.2429  1.3233 -0.0447
47150SOL     OW50227  10.846   2.314   1.943  0.0500 -0.4276  0.1169
47150SOL    HW150228  10.853   2.282   1.852 -0.5088 -0.3111  0.0258
47150SOL    HW250229  10.848   2.234   1.996  0.0819 -0.5168 -0.0173
47151SOL     OW50230   8.185   8.817   5.066  0.2486 -0.0903  0.3655
47151SOL    HW150231   8.161   8.844   4.977  0.4784 -0.1888  0.2737
47151SOL    HW250232   8.208   8.899   5.110  0.0965 -0.0366  0.3464
47152SOL     OW50233   3.173   6.718   8.012  0.0150  0.4664 -0.2011
47152SOL    HW150234   3.249   6.770   8.037 -1.0660  2.4332 -0.7909
47152SOL    HW250235   3.173   6.719   7.916 -0.2864 -0.2632 -0.2186
47153SOL     OW50236   0.169   7.500   9.728  0.5206  0.2172 -0.3022
47153SOL    HW150237   0.236   7.436   9.755  1.8596  1.8215  0.3435
47153SOL    HW250238   0.190   7.579   9.778 -1.6013  0.9282 -0.4515
47154SOL     OW50239   4.712   0.396   7.017 -0.3460  0.3047 -0.6229
47154SOL    HW150240   4.790   0.348   6.987  0.2207  0.1921  0.9486
47154SOL    HW250241   4.641   0.359   6.966  0.1587 -1.8841  0.1376
47155SOL     OW50242   0.167   6.650   3.211 -0.0280 -0.4226 -0.0480
47155SOL    HW150243   0.080   6.617   3.235  0.8645 -1.3719  2.2092
47155SOL    HW250244   0.162   6.744   3.227 -0.9883 -0.2543 -1.1966
47156SOL     OW50245   9.630   0.861  11.670  0.0824 -0.0056  0.3854
47156SOL    HW150246   9.601   0.952  11.675 -1.2375 -0.3886  0.1125
47156SOL    HW250247   9.563   0.812  11.718  0.7728 -0.8408  0.5193
47157SOL     OW50248   4.400   9.042   1.703  0.1516  0.1857 -0.8030
47157SOL    HW150249   4.465   8.994   1.755  1.8342  1.8650 -1.2412
47157SOL    HW250250   4.347   8.973   1.663  0.1121 -1.1980  1.4516
47158SOL     OW50251  10.513   2.032   5.510  0.0891  0.1356  0.3277
47158SOL    HW150252  10.529   2.071   5.424 -1.2143  0.5079  0.2444
47158SOL    HW250253  10.576   1.960   5.515  0.8079  0.6737 -0.5457
47159SOL     OW50254   9.009   1.774   3.134  0.3647 -0.4403  0.5032
47159SOL    HW150255   8.966   1.844   3.085 -1.0214 -0.6824  1.3148
47159SOL    HW250256   9.018   1.808   3.223  0.6184 -0.9060  0.6600
47160SOL     OW50257   2.182   7.235  11.862 -0.6280 -0.1750 -0.3419
47160SOL    HW150258   2.096   7.195  11.868 -0.7625 -0.2734 -2.3177
47160SOL    HW250259   2.223   7.216  11.947 -1.7512 -1.9741 -0.1422
47161SOL     OW50260   8.268  12.496   1.976  0.1105 -0.2095 -0.3238
47161SOL    HW150261   8.245  12.589   1.975  0.4213 -0.1369 -1.5776
47161SOL    HW250262   8.296  12.477   1.887  1.5617 -1.1357  0.3057
47162SOL     OW50263   2.787  11.078   3.835 -0.0694  0.4328  0.3475
47162SOL    HW150264   2.808  10.985   3.829 -0.0087  0.3448  1.6118
47162SOL    HW250265   2.834  11.108   3.913 -1.4358  1.1283  0.9366
47163SOL     OW50266   8.886   5.692   2.130  0.5401 -0.0875  0.0903
47163SOL    HW150267   8.933   5.620   2.171  1.1711  0.5203  0.4526
47163SOL    HW250268   8.831   5.650   2.063  0.8549 -0.9012  0.3330
47164SOL     OW50269  11.590   0.570   4.556 -0.3939 -0.1978 -0.4121
47164SOL    HW150270  11.498   0.589   4.542 -0.5313  1.9553  2.5197
47164SOL    HW250271  11.636   0.647   4.523  0.1312 -0.2397  0.1995
47165SOL     OW50272  10.126   1.057   8.006 -0.0311  0.2837 -0.1180
47165SOL    HW150273  10.184   1.113   7.954  2.8897 -0.8163  1.6842
47165SOL    HW250274  10.183   1.021   8.074 -2.0151 -3.8033 -0.3390
47166SOL     OW50275   3.800  11.986   0.120 -0.2651 -0.2990  0.1770
47166SOL    HW150276   3.855  12.003   0.044  0.3159 -1.3019  0.3575
47166SOL    HW250277   3.807  11.892   0.134 -0.5902 -0.1654  1.3041
47167SOL     OW50278   8.778   5.687   9.887  0.4231 -0.1340 -0.3295
47167SOL    HW150279   8.766   5.752   9.957 -1.6087 -0.2065 -0.5618
47167SOL    HW250280   8.814   5.611   9.932 -0.0735  0.1046  0.5008
47168SOL     OW50281   2.332   7.568   2.907 -0.0526  0.0412  0.2390
47168SOL    HW150282   2.278   7.530   2.976  1.5418 -1.3160  0.7954
47168SOL    HW250283   2.351   7.657   2.938 -0.4304 -0.1115  0.9237
47169SOL     OW50284  10.306   6.418  10.071 -0.4825 -0.0511 -0.2930
47169SOL    HW150285  10.400   6.399  10.078 -0.5262 -0.0725  0.3251
47169SOL    HW250286  10.264   6.340  10.106 -0.7362 -0.1242 -0.7612
47170SOL     OW50287  10.864   0.278   6.707 -0.4347 -0.4158 -0.3579
47170SOL    HW150288  10.803   0.338   6.750 -1.2318 -1.4307 -0.0370
47170SOL    HW250289  10.894   0.220   6.777  1.7681  0.7298 -0.2742
47171SOL     OW50290  12.438  10.333  12.471 -0.6393  0.3056 -0.4196
47171SOL    HW150291  12.509  10.360  12.528 -2.0710  0.6497  1.3069
47171SOL    HW250292  12.369  10.397  12.486 -1.2838  0.0841 -2.1637
47172SOL     OW50293   8.480   5.378  12.341  0.2684 -0.3209 -0.0339
47172SOL    HW150294   8.487   5.404  12.433 -0.9304 -1.2605  0.3630
47172SOL    HW250295   8.568   5.350  12.317  0.9938  1.5741  0.2810
47173SOL     OW50296   0.391   9.880   6.211 -0.2731 -0.0746  0.1099
47173SOL    HW150297   0.395   9.945   6.140  0.8960 -0.5786 -0.3043
47173SOL    HW250298   0.341   9.807   6.174 -0.8188  0.2089  0.2736
47174SOL     OW50299   8.279   5.237  11.766  0.2656  0.1698 -0.6436
47174SOL    HW150300   8.281   5.195  11.852 -1.2241  1.3525  0.0079
47174SOL    HW250301   8.251   5.327  11.783 -1.1212  0.1462 -2.4575
47175SOL     OW50302   4.435   9.309   3.485  0.5072  0.3285  0.4096
47175SOL    HW150303   4.415   9.261   3.404 -0.5999  0.7828  0.3869
47175SOL    HW250304   4.476   9.390   3.456 -0.9411  1.0193  0.2001
47176SOL     OW50305  12.030   2.774   4.983  0.3475  0.5357 -0.3712
47176SOL    HW150306  12.075   2.788   5.066  0.8008  1.1305 -0.7140
47176SOL    HW250307  12.084   2.709   4.937  0.0140  0.0906 -0.1432
47177SOL     OW50308   7.896   7.206   4.654  0.4322  0.0336  0.6494
47177SOL    HW150309   7.842   7.193   4.576 -0.6877  0.7944  1.2649
47177SOL    HW250310   7.981   7.233   4.619 -0.1196  0.6164 -0.3208
47178SOL     OW50311   7.947   8.402   4.964 -0.0577 -0.5526  0.5525
47178SOL    HW150312   7.880   8.397   5.032 -0.3657  2.2163  0.5644
47178SOL    HW250313   8.030   8.391   5.011 -0.3244  0.0248  1.1659
47179SOL     OW50314  12.428  11.281   6.844  0.0159 -0.4324  0.6495
47179SOL    HW150315  12.419  11.189   6.869 -0.0742 -0.2961  1.1219
47179SOL    HW250316  12.501  11.313   6.896 -0.5675  0.0123  1.2124
47180SOL     OW50317   2.896  11.403   8.039 -0.0553 -0.0871 -0.1826
47180SOL    HW150318   2.960  11.332   8.038 -1.8752 -1.8241  0.2721
47180SOL    HW250319   2.821  11.367   8.086 -1.9147  1.3416 -1.8915
47181SOL     OW50320   0.555   7.322   8.631  0.4441 -0.3563 -0.4225
47181SOL    HW150321   0.645   7.320   8.598  0.2558 -0.7103 -0.9310
47181SOL    HW250322   0.512   7.391   8.580  0.5153  0.0645  0.0724
47182SOL     OW50323   6.356   2.557   8.341  0.3768 -0.0841  0.6435
47182SOL    HW150324   6.304   2.520   8.270 -0.3696  1.0998  0.5418
47182SOL    HW250325   6.293   2.608   8.392  0.8714 -1.0106  2.2442
47183SOL     OW50326  10.468   8.029   0.501  0.3182 -0.2501 -0.2562
47183SOL    HW150327  10.532   8.048   0.433  1.4158 -0.4804  0.6722
47183SOL    HW250328  10.487   8.093   0.570  0.5647 -1.2871  0.6621
47184SOL     OW50329   2.071   9.108   3.228 -0.1924  0.1358 -0.2227
47184SOL    HW150330   2.137   9.107   3.298 -0.6090 -0.1409  0.1644
47184SOL    HW250331   2.043   9.199   3.224 -0.3014  0.1177  0.0969
47185SOL     OW50332   6.033   7.123   6.442 -0.4192 -0.0228 -0.9330
47185SOL    HW150333   5.959   7.062   6.442 -0.3651 -0.2214 -3.6987
47185SOL    HW250334   6.110   7.067   6.453 -0.5318 -0.1240 -0.6601
47186SOL     OW50335   0.258   6.791  11.575 -0.1756 -0.4546 -0.3124
47186SOL    HW150336   0.242   6.842  11.496 -0.7958 -0.4942 -0.2212
47186SOL    HW250337   0.226   6.703  11.554 -4.2039  0.4123  1.2336
47187SOL     OW50338   6.326  11.458   8.469 -0.3450 -0.6202 -0.1321
47187SOL    HW150339   6.342  11.524   8.401 -1.7588 -0.1829 -0.0750
47187SOL    HW250340   6.231  11.454   8.476 -0.2384 -1.1002  1.4053
47188SOL     OW50341   5.608   2.441   1.366 -0.2121 -0.4830 -0.4516
47188SOL    HW150342   5.659   2.413   1.442  2.4488  0.5027 -1.7355
47188SOL    HW250343   5.630   2.377   1.298 -1.2935 -0.4592 -0.8308
47189SOL     OW50344   9.530   8.209   2.522  0.2688 -0.2617  0.3123
47189SOL    HW150345   9.440   8.176   2.518  0.7863 -1.6243 -1.0209
47189SOL    HW250346   9.567   8.185   2.437  1.9245  0.2173  0.8764
47190SOL     OW50347   9.814   9.604   8.132  0.1174 -0.2483 -0.0021
47190SOL    HW150348   9.852   9.638   8.213 -0.8622 -0.4745  0.5772
47190SOL    HW250349   9.783   9.682   8.085  1.8055 -0.0114 -0.7750
47191SOL     OW50350   6.411   5.573  10.212  0.7762  0.0423 -0.0942
47191SOL    HW150351   6.320   5.589  10.238  0.8949  1.2426 -0.3872
47191SOL    HW250352   6.404   5.508  10.141  0.2220 -0.5845  0.5160
47192SOL     OW50353  12.407   6.582   3.434  0.7030  0.2314  0.7550
47192SOL    HW150354  12.346   6.515   3.467 -0.6961  1.4646  0.7647
47192SOL    HW250355  12.458   6.536   3.367 -0.4906 -0.7683  0.4771
47193SOL     OW50356  10.051   1.480  10.876 -0.4040  0.3209  0.4214
47193SOL    HW150357  10.006   1.395  10.880 -1.9207  0.9309 -1.6834
47193SOL    HW250358  10.143   1.457  10.864 -0.8086 -1.0507 -0.3012
47194SOL     OW50359   4.353  10.633   0.145 -0.4261  0.2680  0.2566
47194SOL    HW150360   4.439  10.653   0.107  0.5128 -0.4714  1.8678
47194SOL    HW250361   4.291  10.650   0.074  0.8501  2.5936 -0.4135
47195SOL     OW50362   0.857  11.425   9.534  0.2468 -0.3089  0.1135
47195SOL    HW150363   0.948  11.430   9.561 -0.2093  1.5535  1.5386
47195SOL    HW250364   0.838  11.332   9.527  1.9285 -0.7415  0.9643
47196SOL     OW50365   3.042   8.253  11.649  0.6322 -0.7376  0.2370
47196SOL    HW150366   3.100   8.182  11.676  1.7141 -0.2866 -0.8078
47196SOL    HW250367   3.046   8.253  11.554 -0.2574 -0.0043  0.1818
47197SOL     OW50368   7.567   9.831   4.706 -0.1182 -0.1085 -0.4600
47197SOL    HW150369   7.493   9.845   4.765  0.9908  0.0812  0.9413
47197SOL    HW250370   7.583   9.736   4.710  1.0478  0.1047  0.9878
47198SOL     OW50371   5.318   3.699   1.613 -0.3214  0.3420 -0.2445
47198SOL    HW150372   5.310   3.748   1.695 -1.2101  1.6947 -1.1009
47198SOL    HW250373   5.380   3.750   1.560 -1.1075  0.4566 -1.0758
47199SOL     OW50374   4.440   2.208   2.094 -0.3238  0.4459 -0.0619
47199SOL    HW150375   4.434   2.196   1.999 -0.1349 -0.2259  0.0067
47199SOL    HW250376   4.461   2.121   2.128  2.1585  1.1491  0.3707
47200SOL     OW50377   7.212   3.778   0.338  0.3230 -0.5479 -0.3915
47200SOL    HW150378   7.244   3.755   0.425 -0.2688  0.6927  0.1770
47200SOL    HW250379   7.199   3.873   0.342  1.2060 -0.3063 -2.1339
47201SOL     OW50380   3.268   3.825   4.663 -0.1587  0.1284 -0.5186
47201SOL    HW150381   3.229   3.798   4.580 -0.9755 -0.7898  0.1390
47201SOL    HW250382   3.360   3.840   4.642 -0.5952  1.1556 -1.8436
47202SOL     OW50383   1.461   0.551   5.192 -0.2376 -0.0047  0.0558
47202SOL    HW150384   1.485   0.561   5.100  0.5427 -0.1500  0.2338
47202SOL    HW250385   1.397   0.620   5.208  1.2866  1.5026 -0.0305
47203SOL     OW50386   8.204   5.805   7.216  0.1787  0.0151  0.1094
47203SOL    HW150387   8.138   5.738   7.232 -1.2725  0.5426 -3.0448
47203SOL    HW250388   8.157   5.876   7.173  2.3772  1.4994 -0.0220
47204SOL     OW50389   4.069   2.784   5.849 -0.3455  0.0071  0.2006
47204SOL    HW150390   4.008   2.854   5.873  0.0484 -0.1629  1.7670
47204SOL    HW250391   4.052   2.714   5.911  0.8168 -0.4002  0.0863
47205SOL     OW50392   7.109   3.687  11.353 -0.2020 -0.3037  0.0334
47205SOL    HW150393   7.198   3.672  11.383  0.0077  0.1018 -0.3831
47205SOL    HW250394   7.108   3.657  11.262 -0.1816  0.7546 -0.3259
47206SOL     OW50395  10.443  12.130   1.220 -0.1121 -0.2548 -0.0546
47206SOL    HW150396  10.377  12.132   1.289 -0.6766 -1.8781 -0.4963
47206SOL    HW250397  10.397  12.160   1.142 -0.4924 -1.7817 -0.4530
47207SOL     OW50398   6.929   1.479   5.140  0.8013  0.6809  0.3720
47207SOL    HW150399   6.973   1.466   5.057  0.1346 -0.1048  0.1264
47207SOL    HW250400   6.903   1.391   5.168  1.4084  0.8797  1.6310
47208SOL     OW50401  10.513   2.121   3.170 -0.0146 -0.3736 -0.4117
47208SOL    HW150402  10.450   2.188   3.144  0.8865 -0.1513 -2.2067
47208SOL    HW250403  10.598   2.167   3.169  0.6440 -1.5306 -1.8751
47209SOL     OW50404  10.707  11.709   8.631 -0.3987  0.7630  0.6047
47209SOL    HW150405  10.699  11.626   8.584 -1.0118  0.9537  0.3635
47209SOL    HW250406  10.625  11.717   8.680  0.7981 -0.1560  2.9266
47210SOL     OW50407   1.229   6.455   9.532  0.1099 -0.0862  0.2214
47210SOL    HW150408   1.253   6.364   9.512 -0.6829 -0.2477 -0.0363
47210SOL    HW250409   1.265   6.505   9.459 -1.3477 -0.4765 -0.8119
47211SOL     OW50410   3.787   4.931   3.786  0.1557  0.2492 -0.4540
47211SOL    HW150411   3.694   4.914   3.800 -0.1246  1.8774 -0.2032
47211SOL    HW250412   3.831   4.863   3.838 -0.8986  0.2906  0.5425
47212SOL     OW50413  11.187  10.840  11.916 -0.1162 -0.2844  0.4330
47212SOL    HW150414  11.275  10.851  11.880 -0.2067 -1.1240 -0.0676
47212SOL    HW250415  11.128  10.855  11.843 -0.4465  1.1255  0.9572
47213SOL     OW50416  10.422   2.334  11.442  0.0031  0.1084 -0.1421
47213SOL    HW150417  10.435   2.240  11.428 -1.2443 -0.1837  0.5226
47213SOL    HW250418  10.335   2.352  11.407  0.5458  1.1907 -0.9823
47214SOL     OW50419   4.363   0.959   4.363  0.5371  0.0743  0.4312
47214SOL    HW150420   4.431   0.893   4.375  1.8535  1.6030  1.7432
47214SOL    HW250421   4.386   1.002   4.281  0.6953  0.0781  0.4770
47215SOL     OW50422   9.325   3.621   5.697 -0.3807 -0.6748 -0.0893
47215SOL    HW150423   9.325   3.617   5.793  0.5052  0.3961 -0.0206
47215SOL    HW250424   9.362   3.538   5.670  0.9569 -0.3178  0.5682
47216SOL     OW50425   4.108   9.631   6.225 -0.6243  0.0917 -0.8175
47216SOL    HW150426   4.172   9.638   6.154  0.0498  0.9116 -0.1560
47216SOL    HW250427   4.074   9.720   6.236 -1.2939 -0.1781 -0.6223
47217SOL     OW50428   2.741   0.235   4.010 -0.4970 -0.2970 -0.3285
47217SOL    HW150429   2.711   0.312   4.058 -0.3322  0.5952 -1.6041
47217SOL    HW250430   2.833   0.226   4.034 -0.3031  0.4026 -0.7695
47218SOL     OW50431   4.097   9.815   4.225  0.2599  0.4875  0.0605
47218SOL    HW150432   4.061   9.887   4.277 -0.9425 -0.4650  0.5936
47218SOL    HW250433   4.028   9.792   4.163 -0.1184 -1.3698  1.0940
47219SOL     OW50434   4.840   3.168   1.016  0.1424  0.3462  0.6526
47219SOL    HW150435   4.931   3.158   1.044  0.0005  1.6673  1.6616
47219SOL    HW250436   4.843   3.160   0.921  1.1173 -0.8507  0.7519
47220SOL     OW50437   9.347   4.833  12.217  0.4675  0.0895 -0.5848
47220SOL    HW150438   9.261   4.862  12.245  0.5739 -0.8780  0.8639
47220SOL    HW250439   9.330   4.776  12.142 -0.3220 -1.1632  0.4879
47221SOL     OW50440   7.598   6.300   3.617 -0.1255  0.0162  0.1168
47221SOL    HW150441   7.623   6.231   3.679 -1.0975  0.0523  0.5734
47221SOL    HW250442   7.674   6.358   3.613  0.4802 -0.7481  0.1931
47222SOL     OW50443   9.507   1.971   5.462  0.3801 -0.3926  0.8725
47222SOL    HW150444   9.565   1.984   5.388  0.0147 -1.6044  0.3500
47222SOL    HW250445   9.486   1.877   5.461 -2.3408  0.1175  0.4249
47223SOL     OW50446   8.354   4.384  11.816  0.4907  0.1163 -0.4445
47223SOL    HW150447   8.303   4.456  11.852  1.4011  1.7969 -2.3373
47223SOL    HW250448   8.444   4.401  11.843  0.8843  0.3370 -1.8304
47224SOL     OW50449   7.163   4.470   4.132  0.5802 -0.3904 -0.3155
47224SOL    HW150450   7.245   4.474   4.082 -0.0246  0.4724 -1.2776
47224SOL    HW250451   7.109   4.539   4.094 -1.1131 -1.8221 -0.6234
47225SOL     OW50452   4.813   7.718   9.644  0.2615  0.1408 -0.0903
47225SOL    HW150453   4.885   7.720   9.707 -1.1381 -1.7448  1.7178
47225SOL    HW250454   4.785   7.809   9.637  1.0051  0.5265  1.4176
47226SOL     OW50455   4.762  11.586   5.339  0.6070 -0.0204  0.4952
47226SOL    HW150456   4.727  11.674   5.320 -0.2112 -0.2589  0.8584
47226SOL    HW250457   4.691  11.541   5.384  0.0161 -1.7506 -1.9200
47227SOL     OW50458   3.302   9.669  11.407  0.3566  0.0140  0.0684
47227SOL    HW150459   3.261   9.640  11.488  0.0937  1.2487  0.4050
47227SOL    HW250460   3.351   9.747  11.432 -0.3279  0.8402 -1.0935
47228SOL     OW50461   4.091   5.605   4.584  0.1364  0.0942  0.1306
47228SOL    HW150462   4.006   5.649   4.594 -0.6550 -0.9398 -1.5573
47228SOL    HW250463   4.086   5.564   4.498  3.0199  1.3894 -0.7646
47229SOL     OW50464   2.081   0.282   1.964  0.2918  0.3446 -0.2941
47229SOL    HW150465   2.153   0.310   1.907 -0.2951  2.7747  0.0571
47229SOL    HW250466   2.003   0.321   1.925 -1.0619 -2.7786 -1.0522
47230SOL     OW50467   6.264  12.247   7.733 -1.0259 -0.3217 -0.0898
47230SOL    HW150468   6.295  12.214   7.649  0.6973  1.1823 -0.0990
47230SOL    HW250469   6.309  12.191   7.798 -0.5278 -0.0005 -0.1512
47231SOL     OW50470   3.236   9.046   6.219 -0.0431 -0.1397 -0.3161
47231SOL    HW150471   3.294   8.970   6.215  0.1579  0.0250 -0.6210
47231SOL    HW250472   3.149   9.009   6.229 -0.0860 -0.4717 -1.6850
47232SOL     OW50473   7.077   5.251   4.422 -0.5315 -0.4290  0.0938
47232SOL    HW150474   7.041   5.177   4.373 -1.2324  1.0410 -1.8053
47232SOL    HW250475   7.008   5.275   4.483 -0.3801 -1.1959  0.5763
47233SOL     OW50476   3.232   3.636  12.081  0.7924  0.0717 -0.2479
47233SOL    HW150477   3.140   3.609  12.085  1.2484 -1.4900  0.3752
47233SOL    HW250478   3.248   3.654  11.988 -0.1220  0.3277 -0.3609
47234SOL     OW50479  11.239   7.662   6.255  0.8144 -0.3031  0.4541
47234SOL    HW150480  11.179   7.734   6.237  2.3104  0.6583 -0.9927
47234SOL    HW250481  11.289   7.691   6.332 -0.3037 -0.9567  1.4515
47235SOL     OW50482   7.108  12.244   1.232  0.3735 -0.4176 -0.1277
47235SOL    HW150483   7.198  12.272   1.214  0.2432 -0.1695 -0.4269
47235SOL    HW250484   7.086  12.187   1.158 -0.3656  1.0707 -1.1181
47236SOL     OW50485   1.245   4.931   1.437  0.5602  0.2014  0.4609
47236SOL    HW150486   1.155   4.963   1.448  0.1068 -1.5069  2.2621
47236SOL    HW250487   1.300   5.002   1.470  0.0532  1.9018 -2.0322
47237SOL     OW50488   5.253   7.708   8.930  0.6482 -0.7940 -0.6139
47237SOL    HW150489   5.206   7.638   8.884 -1.3417 -0.0452  0.1654
47237SOL    HW250490   5.225   7.788   8.886  0.7316 -0.2794  0.2560
47238SOL     OW50491   5.268   4.511   4.775 -0.2283  0.6550  0.1253
47238SOL    HW150492   5.315   4.436   4.811 -0.5497  1.9398  3.6405
47238SOL    HW250493   5.305   4.587   4.820 -0.5415  2.5949 -2.6021
47239SOL     OW50494   0.635   3.442   1.025  0.1205 -0.1375  0.1397
47239SOL    HW150495   0.709   3.502   1.031  0.5608 -0.6903  0.4011
47239SOL    HW250496   0.643   3.386   1.103 -0.7565 -0.0052  0.3465
47240SOL     OW50497   6.273  10.927   4.616  0.2823  0.6490  0.4843
47240SOL    HW150498   6.318  10.843   4.620 -1.9666 -0.7368 -0.9744
47240SOL    HW250499   6.211  10.917   4.544  0.5892  3.9260 -0.4001
47241SOL     OW50500  11.845   6.040   0.287 -0.1926 -0.3142  0.6075
47241SOL    HW150501  11.773   6.066   0.230  0.4714  0.0615 -0.0757
47241SOL    HW250502  11.910   6.110   0.276 -0.0483 -0.2327  1.8240
47242SOL     OW50503   0.454   8.282  12.276  0.1782  0.3005  0.2452
47242SOL    HW150504   0.473   8.298  12.183  1.9529 -1.1058  0.3202
47242SOL    HW250505   0.383   8.219  12.275  0.2330  0.2402 -0.1592
47243SOL     OW50506   4.964   3.085   2.403 -0.0883  0.4924  0.3848
47243SOL    HW150507   4.951   3.088   2.498 -0.6918 -1.2157  0.3969
47243SOL    HW250508   4.898   3.145   2.369  0.0128  0.9866  1.0233
47244SOL     OW50509   6.421  12.081   0.341 -0.5228 -0.6378 -0.1620
47244SOL    HW150510   6.368  12.078   0.420  0.1100  1.1735  0.3736
47244SOL    HW250511   6.361  12.108   0.272 -0.4833  0.6639  0.2923
47245SOL     OW50512   9.808   0.913   4.841 -0.3881 -0.5802  0.6171
47245SOL    HW150513   9.895   0.934   4.808  0.0578 -0.5565  1.7726
47245SOL    HW250514   9.820   0.831   4.889 -0.9869 -0.5441  0.8333
47246SOL     OW50515   3.933   1.192  11.143 -0.1915 -0.4652 -0.0726
47246SOL    HW150516   3.925   1.280  11.107 -0.7541 -0.6034 -0.2897
47246SOL    HW250517   3.873   1.190  11.217  0.8272 -0.2422  0.7766
47247SOL     OW50518   7.787   3.471   0.624 -0.1921  0.0586 -0.1238
47247SOL    HW150519   7.697   3.459   0.592  0.0473  0.7712 -1.1146
47247SOL    HW250520   7.806   3.390   0.671 -1.2719 -0.1998 -0.0994
47248SOL     OW50521   0.239  11.644   3.948  0.7726 -0.4162 -0.4638
47248SOL    HW150522   0.195  11.598   3.876 -2.3626 -1.3210  1.8128
47248SOL    HW250523   0.189  11.726   3.958  1.6557  0.0601  0.1870
47249SOL     OW50524  10.047   7.651  11.924 -0.0828 -0.3062  0.3097
47249SOL    HW150525  10.030   7.578  11.984  1.1749 -1.0198 -0.1512
47249SOL    HW250526   9.961   7.689  11.907 -0.5948 -0.8152  1.6433
47250SOL     OW50527  10.007   7.509   1.882 -0.2147  0.7280 -0.3722
47250SOL    HW150528  10.097   7.481   1.865 -0.8319 -1.4308 -0.3662
47250SOL    HW250529  10.005   7.531   1.975  0.4679  1.5209 -0.5362
47251SOL     OW50530   3.513   2.655   9.861 -0.1330  0.1284  0.4780
47251SOL    HW150531   3.546   2.628   9.947  0.0289  0.0636  0.3965
47251SOL    HW250532   3.589   2.691   9.816 -0.4294  1.0806  0.7221
47252SOL     OW50533   6.433   1.368   5.307 -0.3745  0.0621 -0.3966
47252SOL    HW150534   6.421   1.288   5.358 -0.7020  0.4843  0.2062
47252SOL    HW250535   6.429   1.340   5.216 -0.5555 -0.5961 -0.1908
47253SOL     OW50536   0.477   3.887  10.021 -0.1917  0.0799  0.0061
47253SOL    HW150537   0.547   3.943  10.053  0.1287 -0.6861  0.6757
47253SOL    HW250538   0.430   3.941   9.957  0.5438  0.8519  0.1070
47254SOL     OW50539   5.332   9.086   4.933 -0.1551  0.1459 -0.5254
47254SOL    HW150540   5.310   9.154   4.997  1.6552  0.1438  0.1392
47254SOL    HW250541   5.317   9.003   4.980 -0.6558  0.0989 -0.7559
47255SOL     OW50542  11.536   0.645   0.992 -0.4921 -0.0143 -0.0149
47255SOL    HW150543  11.559   0.552   0.993 -0.3973  0.0006 -0.5078
47255SOL    HW250544  11.473   0.655   1.063 -1.0668 -0.6044 -0.4318
47256SOL     OW50545   0.190   1.963  10.133 -0.2197 -0.1627 -0.1977
47256SOL    HW150546   0.143   1.879  10.133 -1.1047  0.3126 -0.7397
47256SOL    HW250547   0.200   1.984  10.040  1.2160 -0.3106 -0.0963
47257SOL     OW50548  11.006  10.618   6.868  0.1851 -0.9918  0.1848
47257SOL    HW150549  10.981  10.544   6.923  2.0482 -1.1620  0.8839
47257SOL    HW250550  11.023  10.579   6.782  0.6579 -1.3021  0.4148
47258SOL     OW50551   9.603  10.615  11.738 -0.0814  0.2591 -0.0911
47258SOL    HW150552   9.618  10.534  11.788  0.5642 -0.6924 -1.7269
47258SOL    HW250553   9.509  10.614  11.720  0.1104 -0.8291 -1.1750
47259SOL     OW50554   0.633  12.271   1.896 -0.3976 -0.4734 -0.0678
47259SOL    HW150555   0.683  12.283   1.977 -0.3547 -0.5065 -0.0894
47259SOL    HW250556   0.553  12.227   1.923 -0.6937  0.1334  0.0612
47260SOL     OW50557  11.204   4.624   8.516  0.0337  0.1197 -0.1764
47260SOL    HW150558  11.154   4.558   8.468 -1.0896  1.5414 -1.0605
47260SOL    HW250559  11.259   4.665   8.449 -0.6118  1.2797 -0.0167
47261SOL     OW50560   7.429   6.882   6.917  0.2251  0.2495 -0.3893
47261SOL    HW150561   7.413   6.801   6.869 -0.8328  1.0238 -1.4059
47261SOL    HW250562   7.347   6.899   6.963  1.3377 -0.6849  2.0920
47262SOL     OW50563   1.788   3.277  12.185 -0.1032  0.6771  0.0835
47262SOL    HW150564   1.864   3.330  12.208  0.7650 -1.0871  1.5221
47262SOL    HW250565   1.784   3.280  12.089  1.1846  1.5817  0.0444
47263SOL     OW50566   6.372   8.769  12.427  0.1646  0.3188  0.4964
47263SOL    HW150567   6.319   8.703  12.383 -1.2346  1.4498  0.3977
47263SOL    HW250568   6.460   8.758  12.391  0.0739 -1.7708  0.8449
47264SOL     OW50569   9.396   5.252   9.403 -0.7028  0.1189 -0.3589
47264SOL    HW150570   9.338   5.200   9.459 -1.5785  2.3725  1.0048
47264SOL    HW250571   9.341   5.278   9.329 -0.9093  0.8006  0.0294
47265SOL     OW50572   5.002  10.526   6.278 -0.2934 -0.8252 -0.0702
47265SOL    HW150573   4.954  10.495   6.355  0.3814  0.6486  0.9997
47265SOL    HW250574   5.094  10.518   6.303  0.0227 -2.4167 -1.6084
47266SOL     OW50575   1.421   2.330   7.311  0.0695 -0.3299 -0.2773
47266SOL    HW150576   1.473   2.372   7.243 -0.9584 -0.9592 -1.4828
47266SOL    HW250577   1.422   2.237   7.289  0.9910 -0.7851  1.4625
47267SOL     OW50578  11.342   8.597   0.721 -0.0846  0.2849  0.6307
47267SOL    HW150579  11.420   8.541   0.729 -0.5931 -0.1923  5.2093
47267SOL    HW250580  11.282   8.546   0.667  1.4116 -1.1057  0.1759
47268SOL     OW50581   5.461  12.136   6.112  0.0749  0.0621 -0.3770
47268SOL    HW150582   5.423  12.221   6.089 -0.3123 -0.3440 -1.2808
47268SOL    HW250583   5.548  12.157   6.144  0.6067  0.6943 -2.1251
47269SOL     OW50584   7.979   6.467   6.657 -0.0227 -0.4027 -0.1359
47269SOL    HW150585   8.014   6.438   6.741 -0.6993  1.1163  0.7301
47269SOL    HW250586   7.907   6.407   6.639 -0.9437  0.2263  1.2463
47270SOL     OW50587   0.268   9.270   1.775  0.2129  0.2475 -0.5385
47270SOL    HW150588   0.183   9.259   1.818  0.4475 -1.3480 -0.4024
47270SOL    HW250589   0.275   9.363   1.757 -1.3684  0.4601 -0.1418
47271SOL     OW50590   2.497   3.857   4.481  0.1124 -0.0257 -0.0396
47271SOL    HW150591   2.448   3.939   4.479 -0.8689 -0.5997 -0.7951
47271SOL    HW250592   2.473   3.817   4.565 -2.4942 -1.2819 -1.2516
47272SOL     OW50593   7.647   4.032   0.109 -0.3683  0.5552 -0.3060
47272SOL    HW150594   7.722   4.012   0.054 -1.4805  1.1521 -2.1226
47272SOL    HW250595   7.582   3.966   0.087 -2.4393  3.2368 -3.0994
47273SOL     OW50596   5.226   3.222   5.979 -0.1853  0.1423 -0.0374
47273SOL    HW150597   5.285   3.164   5.931  0.7965 -0.7087  2.0997
47273SOL    HW250598   5.146   3.171   5.992 -0.8609  0.7391 -1.5594
47274SOL     OW50599   2.309   3.494  10.208  0.3183  0.2830 -0.6649
47274SOL    HW150600   2.363   3.454  10.276  0.1339 -2.3894 -1.9571
47274SOL    HW250601   2.225   3.512  10.251  0.4362 -0.7171  0.0133
47275SOL     OW50602   6.696   1.263   0.141 -0.0481 -0.1429 -0.3582
47275SOL    HW150603   6.724   1.233   0.054 -0.3700  0.0495 -0.5277
47275SOL    HW250604   6.601   1.254   0.140 -0.0265 -0.4563  0.0957
47276SOL     OW50605   1.913   2.256   2.888 -0.3819  0.1887  0.1119
47276SOL    HW150606   1.936   2.325   2.826 -0.4532  1.1131  1.0864
47276SOL    HW250607   1.968   2.274   2.965 -1.4926  0.0731  0.9561
47277SOL     OW50608   2.855   7.977   2.401 -0.5291 -0.1122  0.1906
47277SOL    HW150609   2.849   7.901   2.343  1.2769 -0.7865  0.8263
47277SOL    HW250610   2.886   8.047   2.344 -0.9028 -0.1846 -0.1129
47278SOL     OW50611   9.565   1.382   2.534  0.4681 -0.3612  0.3728
47278SOL    HW150612   9.578   1.436   2.612  0.8748 -0.0381  0.0791
47278SOL    HW250613   9.642   1.325   2.531  1.0329  0.4281 -0.4438
47279SOL     OW50614  10.196   6.825   1.870 -0.2764  0.6413 -0.7350
47279SOL    HW150615  10.254   6.827   1.793  1.9189  0.5492  0.8182
47279SOL    HW250616  10.166   6.915   1.879 -0.6199  0.6419 -1.7164
47280SOL     OW50617   3.165   2.888   6.106 -0.0522  0.3227  0.0417
47280SOL    HW150618   3.175   2.831   6.182 -1.9943  0.2686  0.3156
47280SOL    HW250619   3.197   2.836   6.032  0.9415  0.0063  0.6750
47281SOL     OW50620   7.349   8.657   1.750  0.5592 -0.6361  0.3029
47281SOL    HW150621   7.431   8.618   1.781  1.0564 -0.2294 -0.4539
47281SOL    HW250622   7.340   8.623   1.660 -1.1112 -2.2177  0.9930
47282SOL     OW50623   4.524  10.464   6.461 -0.8021  0.2732  0.1670
47282SOL    HW150624   4.503  10.379   6.499  0.3076  0.3152  0.9379
47282SOL    HW250625   4.440  10.510   6.458 -1.4948 -0.9945 -0.6924
47283SOL     OW50626   0.798   2.629  10.571  0.0486 -0.1479 -0.2331
47283SOL    HW150627   0.844   2.567  10.628  0.7832 -0.2000 -0.8706
47283SOL    HW250628   0.749   2.685  10.631  0.4070 -0.5273  0.4218
47284SOL     OW50629   8.457  12.305   1.336 -0.1493  0.5020  0.6486
47284SOL    HW150630   8.364  12.296   1.317 -0.1031  2.8649 -0.9729
47284SOL    HW250631   8.464  12.388   1.383  1.3090  1.2242 -0.7692
47285SOL     OW50632   5.395   5.963   2.373 -0.1316  0.0784  0.3757
47285SOL    HW150633   5.457   5.997   2.437  0.6774 -0.8771  0.1245
47285SOL    HW250634   5.357   5.886   2.415  1.2571 -1.2549 -0.6845
47286SOL     OW50635   2.154   1.790   3.212  0.4428  0.2103  0.3454
47286SOL    HW150636   2.100   1.858   3.172 -0.4327 -0.9685 -0.5539
47286SOL    HW250637   2.227   1.778   3.151 -0.3147 -0.8227 -0.3972
47287SOL     OW50638  12.049   6.242   5.454 -0.1454 -0.4193  0.0053
47287SOL    HW150639  12.040   6.151   5.484 -1.2258 -0.3563 -0.1099
47287SOL    HW250640  12.045   6.236   5.359 -1.7418 -0.1137  0.0286
47288SOL     OW50641   2.535   7.225   3.436 -0.1835 -0.1346  0.5668
47288SOL    HW150642   2.459   7.179   3.401  0.2863 -0.0997 -0.5187
47288SOL    HW250643   2.595   7.155   3.463 -0.6548 -0.1641  1.5864
47289SOL     OW50644   4.108   2.922   4.917 -0.3632  0.8846  0.3716
47289SOL    HW150645   4.170   2.900   4.987  0.9166  0.7948 -0.7575
47289SOL    HW250646   4.131   2.864   4.845 -1.4436  1.2086 -0.2579
47290SOL     OW50647  10.980   2.245   8.966 -0.3199  0.4249  0.0444
47290SOL    HW150648  10.966   2.336   8.991  0.8424  0.7693 -0.4742
47290SOL    HW250649  11.067   2.223   9.000 -0.3868 -0.3395 -0.2387
47291SOL     OW50650   2.263   3.893  11.625 -0.1282 -0.1909  0.3047
47291SOL    HW150651   2.305   3.973  11.594  0.3705 -0.4265  0.3651
47291SOL    HW250652   2.173   3.899  11.593 -0.5311  1.1208  1.6050
47292SOL     OW50653   8.011  10.982  12.483  0.0070 -0.4823 -0.5819
47292SOL    HW150654   7.982  10.986  12.574  1.1228  1.8408 -0.2356
47292SOL    HW250655   7.974  11.061  12.442  1.7801  0.0061 -1.3576
47293SOL     OW50656   8.113   9.265  10.210 -0.0648  0.2104  0.3354
47293SOL    HW150657   8.192   9.304  10.173  0.7990 -1.3899  0.4015
47293SOL    HW250658   8.127   9.268  10.305 -0.1605  0.0527  0.3548
47294SOL     OW50659   6.334   4.345   8.115 -0.3022 -0.2972 -0.2630
47294SOL    HW150660   6.291   4.341   8.200 -0.3803  0.2034 -0.2794
47294SOL    HW250661   6.427   4.329   8.134 -0.6253 -2.6305 -0.3657
47295SOL     OW50662   4.215   9.747   5.536 -0.5772  0.5400  0.4520
47295SOL    HW150663   4.120   9.746   5.522 -0.2585  2.3060 -2.9733
47295SOL    HW250664   4.244   9.659   5.510 -0.9525  1.3026 -3.0508
47296SOL     OW50665   0.811  11.024   6.219 -0.0538 -0.2287  0.0972
47296SOL    HW150666   0.733  11.001   6.168 -0.0316  0.8362 -0.4705
47296SOL    HW250667   0.830  11.114   6.192  1.4551 -0.5169  0.1215
47297SOL     OW50668   3.788   3.873  10.288 -0.1003 -0.3661 -0.8158
47297SOL    HW150669   3.800   3.956  10.242 -1.4955  0.1107 -0.3630
47297SOL    HW250670   3.697   3.875  10.318  0.2853 -1.3725  0.5392
47298SOL     OW50671  11.107   4.431   1.689 -0.1537  0.0803  0.6890
47298SOL    HW150672  11.012   4.430   1.687 -0.2130  1.8790  1.1107
47298SOL    HW250673  11.133   4.434   1.596 -0.4908 -0.7226  0.5680
47299SOL     OW50674   3.479  11.964   5.477 -0.2851  0.4042 -0.0580
47299SOL    HW150675   3.461  12.056   5.491 -0.7913  0.2647  0.2227
47299SOL    HW250676   3.416  11.937   5.410 -0.3850  0.1782  0.1238
47300SOL     OW50677   5.088  11.721   7.875 -0.3964  0.7142 -0.0318
47300SOL    HW150678   5.173  11.763   7.890  0.2007 -1.2182  2.8647
47300SOL    HW250679   5.066  11.743   7.785  1.9250  3.4160 -0.1032
47301SOL     OW50680  11.101   7.376   8.707  0.0443  0.0015  0.2431
47301SOL    HW150681  11.022   7.423   8.681  0.7031  1.6619  1.1077
47301SOL    HW250682  11.125   7.414   8.791  1.4114 -0.9299  0.3028
47302SOL     OW50683   9.554  12.474   0.999 -0.2104  0.3610  0.3792
47302SOL    HW150684   9.587  12.548   1.049 -0.4190 -1.2430  3.0952
47302SOL    HW250685   9.611  12.401   1.023  0.1978 -0.3691 -2.4696
47303SOL     OW50686  12.410   3.445   4.926 -0.1373 -0.0154  0.4238
47303SOL    HW150687  12.359   3.457   5.005 -0.7052 -0.1174  0.0805
47303SOL    HW250688  12.367   3.500   4.860 -0.5659 -1.0318 -0.1869
47304SOL     OW50689   0.873  11.954   8.847  0.0308 -0.2456 -0.1903
47304SOL    HW150690   0.879  11.869   8.890  1.5604 -0.1025 -0.0464
47304SOL    HW250691   0.934  12.010   8.896 -1.7655  1.2611  0.4180
47305SOL     OW50692   2.879  12.569   4.918  0.2188 -0.0509 -0.0889
47305SOL    HW150693   2.872  12.479   4.886 -1.3298 -0.2603  0.7430
47305SOL    HW250694   2.902  12.560   5.010  0.7478  0.4516 -0.1608
47306SOL     OW50695   4.981   2.216   1.642  0.6516 -0.7150 -0.1026
47306SOL    HW150696   4.935   2.226   1.559  2.5621 -1.0640 -1.2550
47306SOL    HW250697   4.916   2.238   1.708 -0.6101  0.6860 -1.7294
47307SOL     OW50698   8.657   0.928   6.589 -0.1689 -0.3073 -0.2109
47307SOL    HW150699   8.675   0.995   6.524  0.0731 -0.3397 -0.1800
47307SOL    HW250700   8.608   0.973   6.658 -0.3993 -0.2668 -0.4032
47308SOL     OW50701   2.270   2.923  11.604  0.1152  0.5401  0.1820
47308SOL    HW150702   2.310   3.009  11.618 -0.2476  0.5007  1.6766
47308SOL    HW250703   2.329   2.862  11.649  0.4731 -0.0314 -1.0353
47309SOL     OW50704   1.837  10.191  11.356 -0.3495 -0.2106 -0.1451
47309SOL    HW150705   1.904  10.136  11.395 -0.2954  1.2514  2.0025
47309SOL    HW250706   1.768  10.130  11.329  0.2637 -1.4290  0.9532
47310SOL     OW50707   6.630   3.542   9.950  0.4080 -0.3936 -0.1815
47310SOL    HW150708   6.664   3.548   9.860  0.2313 -1.9951 -0.3794
47310SOL    HW250709   6.602   3.451   9.959  0.4283 -0.2575  1.5209
47311SOL     OW50710   5.134   4.706   3.841  0.2576  0.9376 -0.0489
47311SOL    HW150711   5.136   4.780   3.902  1.0654  0.9891 -0.1333
47311SOL    HW250712   5.183   4.637   3.885 -2.2486 -0.3120  0.9680
47312SOL     OW50713   3.252  12.476   0.711 -0.0787 -0.0810  0.1710
47312SOL    HW150714   3.324  12.496   0.651 -1.0592  0.4544 -0.8573
47312SOL    HW250715   3.283  12.506   0.797  1.2127 -0.5531 -0.1181
47313SOL     OW50716   3.163  11.517   3.544  0.0682  0.4428  0.6147
47313SOL    HW150717   3.235  11.564   3.587 -0.6712  1.6759  0.5469
47313SOL    HW250718   3.128  11.579   3.480  0.0594 -0.7588 -0.6179
47314SOL     OW50719   7.939   7.362  10.759  0.2959 -0.1257  0.0898
47314SOL    HW150720   8.023   7.319  10.743  0.0744 -0.1602 -1.0659
47314SOL    HW250721   7.876   7.311  10.709 -0.2353  0.5397  0.0618
47315SOL     OW50722  11.921   6.228   3.254 -0.6490  0.1692 -0.0821
47315SOL    HW150723  11.843   6.221   3.199 -1.0263 -0.9396  0.5687
47315SOL    HW250724  11.976   6.292   3.209 -1.5833  0.3773 -0.9688
47316SOL     OW50725   1.480   3.149   4.957 -0.4675 -0.2664  0.3580
47316SOL    HW150726   1.413   3.145   4.889 -0.0629 -1.2523 -0.0094
47316SOL    HW250727   1.555   3.189   4.915 -0.9213  1.1943  0.8785
47317SOL     OW50728   3.703  10.652  12.128 -0.1393 -0.0711  0.0297
47317SOL    HW150729   3.732  10.741  12.144  0.3739 -0.2954  0.3561
47317SOL    HW250730   3.771  10.597  12.166 -0.4931 -0.6022 -0.0948
47318SOL     OW50731   6.524   2.270   5.343 -0.2874 -0.0339 -0.6096
47318SOL    HW150732   6.578   2.239   5.271  0.6363  0.0754  0.0092
47318SOL    HW250733   6.435   2.276   5.307  0.1886  0.2041 -1.7788
47319SOL     OW50734   5.648   0.897   3.714  0.0090 -0.1320  0.3190
47319SOL    HW150735   5.563   0.853   3.721 -0.2017  0.1557 -0.3493
47319SOL    HW250736   5.688   0.886   3.800 -0.3784 -0.9411  0.4070
47320SOL     OW50737   3.462   8.734   9.958  0.4540 -0.3345  0.0375
47320SOL    HW150738   3.495   8.730   9.869  1.0257 -0.7654  0.2649
47320SOL    HW250739   3.379   8.781   9.951  0.4943 -0.3714 -0.7188
47321SOL     OW50740   0.020  12.451  10.431 -0.0706  0.2075  0.0054
47321SOL    HW150741   0.069  12.440  10.350 -0.9148 -0.2038 -0.4559
47321SOL    HW250742   0.027  12.544  10.451 -0.6648  0.4958 -1.0638
47322SOL     OW50743   5.925   1.945  11.224  0.2326  0.3530  0.1048
47322SOL    HW150744   5.980   1.873  11.194 -0.2909 -1.5283  3.2029
47322SOL    HW250745   5.986   2.017  11.239  1.1078 -0.1418 -0.9554
47323SOL     OW50746   4.066   7.958   9.089 -0.8644  0.2863 -0.5006
47323SOL    HW150747   4.105   7.871   9.100 -0.0211  0.8269  1.0435
47323SOL    HW250748   4.127   8.018   9.132 -2.4630  1.3834  0.3450
47324SOL     OW50749   1.911   3.580   9.611 -0.3197  0.1263 -0.3074
47324SOL    HW150750   1.909   3.547   9.700  0.4563 -0.3971 -0.4814
47324SOL    HW250751   1.828   3.550   9.573  0.1157 -1.1342 -0.2869
47325SOL     OW50752   8.483   7.872  11.393  0.1134  0.3242 -0.1420
47325SOL    HW150753   8.559   7.830  11.433 -0.3485  1.1796  1.7965
47325SOL    HW250754   8.418   7.874  11.464 -0.9163  1.5810 -1.0848
47326SOL     OW50755   5.490   3.420   2.766 -0.1058  0.0787 -0.3867
47326SOL    HW150756   5.485   3.341   2.711  0.9686  0.4180 -0.9978
47326SOL    HW250757   5.531   3.486   2.710  1.9852  0.1399  1.1026
47327SOL     OW50758   7.256   3.786   8.485 -1.2999 -0.2752 -0.1096
47327SOL    HW150759   7.293   3.867   8.519  0.0446 -0.8293 -0.1921
47327SOL    HW250760   7.162   3.802   8.481 -1.4226  0.2370  2.7266
47328SOL     OW50761   5.626  11.821   3.131 -0.0720  0.8380 -0.1548
47328SOL    HW150762   5.626  11.869   3.214  0.9510 -0.1673  0.4565
47328SOL    HW250763   5.660  11.735   3.154  0.5814  0.6611 -1.6918
47329SOL     OW50764   5.784   7.003  10.697  0.6750 -0.0008 -0.1584
47329SOL    HW150765   5.839   7.027  10.771 -0.5343  1.4444  0.3208
47329SOL    HW250766   5.824   7.048  10.622  0.8018  0.1189 -0.0199
47330SOL     OW50767   6.075   4.934   2.431 -0.3774  0.0671  0.4277
47330SOL    HW150768   6.038   4.962   2.514 -0.7162  3.2084 -0.6789
47330SOL    HW250769   6.014   4.867   2.400 -0.5700 -0.7443  2.3698
47331SOL     OW50770   9.236   1.725   7.734 -0.0141 -0.0742 -0.5496
47331SOL    HW150771   9.209   1.713   7.825 -0.3113  0.9053 -0.4981
47331SOL    HW250772   9.163   1.772   7.693  0.2973 -0.1333 -1.1863
47332SOL     OW50773   9.728  12.147   1.272  0.6580 -0.6060 -0.5918
47332SOL    HW150774   9.641  12.179   1.250  1.0745  0.1638 -1.1687
47332SOL    HW250775   9.718  12.052   1.276  0.1779 -0.7029 -2.5996
47333SOL     OW50776   3.894   8.047   0.257 -0.2169  0.0245 -0.2604
47333SOL    HW150777   3.817   8.084   0.214 -0.6762  1.5086  1.7280
47333SOL    HW250778   3.860   7.987   0.322  0.2840  0.6863  0.6308
47334SOL     OW50779   4.083   3.464   2.476 -0.4318 -0.0994 -0.2964
47334SOL    HW150780   4.007   3.408   2.464 -3.1724  3.0523  0.8390
47334SOL    HW250781   4.093   3.470   2.571 -0.9008  2.0595 -0.3462
47335SOL     OW50782   7.682  12.054   0.161  0.2313 -0.2056  0.1734
47335SOL    HW150783   7.690  12.047   0.256 -1.9747 -0.9398  0.3769
47335SOL    HW250784   7.657  11.966   0.133 -0.7700  0.3862 -0.8686
47336SOL     OW50785   0.512   1.798   6.565  0.3080 -1.1703 -0.6418
47336SOL    HW150786   0.560   1.816   6.646 -0.5999 -0.9704 -0.1261
47336SOL    HW250787   0.529   1.705   6.547  1.4045 -0.9397 -0.8387
47337SOL     OW50788  12.313   7.816   5.499  0.3101 -0.8088  0.2367
47337SOL    HW150789  12.256   7.748   5.462 -0.2274 -0.1867 -0.0964
47337SOL    HW250790  12.288   7.896   5.453  1.8914 -0.6379 -0.3661
47338SOL     OW50791  10.976   5.443   9.951  0.1112 -0.0711  0.2366
47338SOL    HW150792  10.942   5.395  10.026  0.8574  0.5433  0.9832
47338SOL    HW250793  10.978   5.534   9.980 -1.5353  0.5043 -1.2310
47339SOL     OW50794   2.504   4.269  11.039 -0.8069 -0.0633 -0.6008
47339SOL    HW150795   2.437   4.265  11.106 -1.1573 -2.4275 -1.0079
47339SOL    HW250796   2.571   4.328  11.074 -1.1629 -0.9250  1.6435
47340SOL     OW50797   6.583  10.872   2.369 -0.0975 -0.0370 -0.0170
47340SOL    HW150798   6.552  10.782   2.354  0.8861  0.0193 -3.0834
47340SOL    HW250799   6.506  10.927   2.352  0.0241 -0.1889 -1.1108
47341SOL     OW50800  10.063   6.329   3.675  0.5660 -0.2329 -0.4644
47341SOL    HW150801  10.057   6.236   3.696  1.4121 -0.0172  0.8592
47341SOL    HW250802  10.098   6.332   3.586  0.4391 -1.1714 -0.5533
47342SOL     OW50803   9.072   4.011   9.000  0.1919 -0.3287  0.3139
47342SOL    HW150804   9.023   3.973   9.073  1.0787 -0.0171  1.0904
47342SOL    HW250805   9.155   4.039   9.038  0.1439  1.0828 -0.5316
47343SOL     OW50806   6.648   8.520   0.035 -0.0847  0.4395  0.3510
47343SOL    HW150807   6.738   8.506   0.005 -0.2597 -0.1394  0.0993
47343SOL    HW250808   6.639   8.615   0.037  0.6780  0.5148  0.7979
47344SOL     OW50809   2.733   0.385  12.366 -0.0168  0.7318  0.0704
47344SOL    HW150810   2.729   0.404  12.273  1.2045  1.7119  0.1948
47344SOL    HW250811   2.790   0.308  12.374 -1.3200 -0.2873 -0.0789
47345SOL     OW50812   9.859   1.507  11.883 -0.1179 -0.9178 -0.4281
47345SOL    HW150813   9.882   1.576  11.821  0.4229 -0.6132  0.0946
47345SOL    HW250814   9.782   1.464  11.845 -1.8827  1.4110  0.2913
47346SOL     OW50815   7.934   3.494   0.027  0.1714 -0.3772 -0.7156
47346SOL    HW150816   8.003   3.526  -0.030  1.9460  2.0292  2.4749
47346SOL    HW250817   7.855   3.539  -0.003  0.6277 -0.5639 -2.3014
47347SOL     OW50818   1.559  11.625   0.658  0.2282  0.2016 -0.2262
47347SOL    HW150819   1.566  11.710   0.614  0.1309 -0.4912 -1.6460
47347SOL    HW250820   1.471  11.593   0.635 -0.1979  0.2345  1.2925
47348SOL     OW50821  12.310  11.627   2.077  0.1098  0.2371 -0.2363
47348SOL    HW150822  12.314  11.629   1.981 -1.0708 -1.1969 -0.3509
47348SOL    HW250823  12.285  11.716   2.102  1.2249  0.8563 -1.1867
47349SOL     OW50824   2.190   1.836   9.044 -0.2497 -0.3798  0.7041
47349SOL    HW150825   2.144   1.759   9.077 -0.8045  0.5302  2.1939
47349SOL    HW250826   2.122   1.888   9.001 -0.3294  0.2507  1.5662
47350SOL     OW50827   4.573  11.246   3.280  0.2476  0.7265  0.6124
47350SOL    HW150828   4.580  11.172   3.340 -0.5347  1.8728  2.1749
47350SOL    HW250829   4.479  11.253   3.262  0.0747  2.3540  1.8756
47351SOL     OW50830   1.024  11.845  10.504  0.3684 -0.3682  0.5107
47351SOL    HW150831   1.087  11.813  10.440  0.9642  0.8574  0.4647
47351SOL    HW250832   1.049  11.802  10.586 -0.7068 -2.3418 -0.1140
47352SOL     OW50833   4.338   3.808   7.895 -0.3178 -0.2405 -0.2875
47352SOL    HW150834   4.344   3.713   7.880 -0.3960 -0.1322 -1.0215
47352SOL    HW250835   4.409   3.845   7.843 -0.3622  0.1151 -0.0918
47353SOL     OW50836   7.119   1.157   1.165 -0.4304 -0.0487  0.1347
47353SOL    HW150837   7.042   1.160   1.108  0.6834  0.2282 -1.4306
47353SOL    HW250838   7.186   1.114   1.112  0.4080 -0.5924  1.5870
47354SOL     OW50839   0.741   5.949   3.288  0.0689  0.1155  0.3169
47354SOL    HW150840   0.691   6.006   3.346 -0.0280 -1.6465  2.0443
47354SOL    HW250841   0.682   5.876   3.268  0.6854 -0.1400 -0.6411
47355SOL     OW50842   0.079  11.601   7.625  0.0593  0.7566 -0.2983
47355SOL    HW150843   0.173  11.592   7.632 -0.0928 -0.3308  0.4319
47355SOL    HW250844   0.052  11.641   7.708 -0.4874 -2.0977  0.9901
47356SOL     OW50845   5.208   6.671   8.170 -0.1833  0.1718  0.8302
47356SOL    HW150846   5.138   6.644   8.110 -0.5728 -0.5491  1.5903
47356SOL    HW250847   5.181   6.758   8.199  0.4531  0.9134 -0.6826
47357SOL     OW50848   5.837  10.002   1.545 -0.1308  0.0310 -0.9529
47357SOL    HW150849   5.826   9.937   1.615 -1.5365  0.4311 -0.7650
47357SOL    HW250850   5.809  10.084   1.585  1.7354  0.8020 -1.1545
47358SOL     OW50851   2.808   2.935   8.207 -0.0817  0.2603  0.3369
47358SOL    HW150852   2.781   2.877   8.135  0.3821 -0.1403  0.4772
47358SOL    HW250853   2.729   2.945   8.260  0.0888 -1.1156  0.8933
47359SOL     OW50854   2.587   7.359   4.081 -0.3370  0.4184  0.6370
47359SOL    HW150855   2.502   7.345   4.123 -1.0453 -1.3366 -1.2111
47359SOL    HW250856   2.565   7.400   3.997  0.8256  1.5552  0.8630
47360SOL     OW50857   2.426   4.976   8.940 -0.6244  0.0626  0.3291
47360SOL    HW150858   2.351   4.987   8.999  0.4263  1.5749  1.4397
47360SOL    HW250859   2.436   5.060   8.897 -0.4179 -0.5623 -0.8769
47361SOL     OW50860   0.274   6.177  12.057  0.4416 -0.6515  0.4230
47361SOL    HW150861   0.182   6.175  12.083  0.2214 -1.7198 -0.4059
47361SOL    HW250862   0.272   6.179  11.961  1.2929 -1.2370  0.3864
47362SOL     OW50863   2.163   5.882   6.885  0.3057  0.3961  0.3584
47362SOL    HW150864   2.092   5.818   6.889 -0.5458  1.3661  1.9852
47362SOL    HW250865   2.174   5.911   6.976  2.9453  0.1338  0.1899
47363SOL     OW50866   0.879  12.218   2.617 -0.1804  0.4282  0.1397
47363SOL    HW150867   0.836  12.296   2.581 -0.7898  0.0574  0.0498
47363SOL    HW250868   0.969  12.246   2.634 -0.7040  1.5302  1.2898
47364SOL     OW50869   7.177   1.011  10.204  0.1555 -0.0168  0.5034
47364SOL    HW150870   7.270   1.031  10.214 -0.1258  2.2697 -0.8198
47364SOL    HW250871   7.169   0.981  10.113 -0.5834  1.3233  0.0979
47365SOL     OW50872   1.018   5.765  10.582 -0.2357 -0.1061  0.4770
47365SOL    HW150873   1.109   5.760  10.612 -0.4813 -1.2406  1.0924
47365SOL    HW250874   1.018   5.717  10.499 -0.2451  0.0327  0.3952
47366SOL     OW50875   7.076  12.360   8.613 -0.3216 -0.0477 -0.5157
47366SOL    HW150876   7.080  12.368   8.708 -1.0326 -1.0531 -0.3905
47366SOL    HW250877   7.119  12.440   8.580  0.3117  0.0937  0.6352
47367SOL     OW50878   1.352  12.427   9.581  0.4960 -0.2132  0.5826
47367SOL    HW150879   1.390  12.487   9.517  1.2207 -1.8280 -0.5779
47367SOL    HW250880   1.258  12.433   9.566  0.6924 -1.5630 -1.6752
47368SOL     OW50881   6.937   6.461   1.193 -0.1047  0.4603  0.0390
47368SOL    HW150882   6.974   6.393   1.136 -1.6346  1.0400 -1.7859
47368SOL    HW250883   6.867   6.417   1.241 -0.6945  0.5638 -0.6948
47369SOL     OW50884   0.992  11.604   8.647  0.6897 -0.6102  0.4831
47369SOL    HW150885   0.939  11.528   8.624 -0.5897  0.6150 -0.7919
47369SOL    HW250886   1.071  11.596   8.594  1.0970 -1.6107  1.2067
47370SOL     OW50887   0.491   7.855  12.081 -0.2641  0.2908  0.0942
47370SOL    HW150888   0.423   7.819  12.138 -0.7702 -0.2605 -0.8393
47370SOL    HW250889   0.450   7.861  11.995  0.8214  0.0595 -0.4625
47371SOL     OW50890   9.762   2.091   2.803  0.1222  0.1387 -0.1253
47371SOL    HW150891   9.707   2.049   2.869 -0.4802  1.6560  0.3602
47371SOL    HW250892   9.755   2.033   2.727 -1.0957 -0.3844  0.3521
47372SOL     OW50893  11.795  11.911  12.363 -0.4868 -0.4522  0.3443
47372SOL    HW150894  11.842  11.976  12.310  0.6187 -2.1820 -0.8941
47372SOL    HW250895  11.714  11.895  12.315  0.1570 -1.4354 -0.4513
47373SOL     OW50896   8.227   2.203  10.013  0.6622  0.0659  0.2306
47373SOL    HW150897   8.254   2.277   9.959 -0.5643  0.7499  0.4990
47373SOL    HW250898   8.135   2.221  10.034  0.8957 -0.5382  1.9413
47374SOL     OW50899  10.065   1.921  11.734 -0.0489  0.5441  0.2982
47374SOL    HW150900  10.142   1.866  11.719 -0.9424 -0.4625 -0.8790
47374SOL    HW250901  10.074   1.951  11.824  1.5748  0.2384  0.2770
47375SOL     OW50902   2.157  11.314   5.021  0.2487  0.6289  0.1455
47375SOL    HW150903   2.209  11.237   5.047  0.3897  1.1359  1.4453
47375SOL    HW250904   2.069  11.294   5.052  0.4589  1.3244  1.2483
47376SOL     OW50905  11.219   5.067  12.600 -0.0766  0.3317  0.0202
47376SOL    HW150906  11.178   5.153  12.597 -1.1187 -0.1459  0.0695
47376SOL    HW250907  11.245   5.049  12.509  1.5977  1.3516  0.2590
47377SOL     OW50908   6.882   0.345  10.796 -0.4390 -0.8963 -0.0661
47377SOL    HW150909   6.862   0.269  10.741  0.9375 -1.9142  0.7670
47377SOL    HW250910   6.928   0.308  10.871  1.1975  0.8780 -0.1363
47378SOL     OW50911   0.297   9.144   0.462 -0.0708 -0.0383 -0.6031
47378SOL    HW150912   0.234   9.214   0.480 -0.4464  0.6693 -4.1344
47378SOL    HW250913   0.253   9.086   0.401  1.6335 -1.2710 -0.7461
47379SOL     OW50914   5.566   4.301   2.126 -0.5573  0.2508 -0.2951
47379SOL    HW150915   5.628   4.316   2.198 -0.8589  1.0419 -0.1875
47379SOL    HW250916   5.494   4.362   2.144 -0.4769  0.7010 -1.4548
47380SOL     OW50917   4.279  12.424   6.385 -0.2885  0.3680 -0.5053
47380SOL    HW150918   4.276  12.492   6.318  0.3096  1.6772  0.7384
47380SOL    HW250919   4.370  12.422   6.413 -0.4876 -0.3092  0.1210
47381SOL     OW50920  11.975  11.730   4.500  0.1329 -0.6820 -0.0571
47381SOL    HW150921  11.990  11.757   4.409 -1.2007 -1.3066 -0.4853
47381SOL    HW250922  11.898  11.675   4.496 -1.0550  0.7385  1.7314
47382SOL     OW50923   2.648   1.227   2.697 -0.3159  0.1888 -0.1746
47382SOL    HW150924   2.705   1.292   2.738 -1.0962  1.3279 -0.8101
47382SOL    HW250925   2.560   1.263   2.708 -0.8504 -1.1657  0.1415
47383SOL     OW50926   6.427   2.836   4.459 -0.4217  0.1244  0.2134
47383SOL    HW150927   6.410   2.742   4.456 -0.8967  0.2311 -0.8486
47383SOL    HW250928   6.513   2.843   4.501 -1.1698 -0.6497  1.9725
47384SOL     OW50929   7.150   7.898   9.245  0.1739  0.1630  0.2990
47384SOL    HW150930   7.082   7.931   9.304 -1.0434 -0.7757 -0.5260
47384SOL    HW250931   7.224   7.878   9.303  0.0804  1.9853  1.1104
47385SOL     OW50932  12.416   8.894   3.005 -0.2546  0.1075 -0.5502
47385SOL    HW150933  12.360   8.963   2.969  0.4338  1.8947  1.6145
47385SOL    HW250934  12.470   8.866   2.931 -0.5076  1.9371 -1.4732
47386SOL     OW50935   1.470   4.810   6.923  0.1687  0.3720 -0.0211
47386SOL    HW150936   1.390   4.762   6.946 -0.2614  1.1090  0.0745
47386SOL    HW250937   1.505   4.764   6.847  0.6989 -1.1127  1.0752
47387SOL     OW50938  10.182   7.563  10.448 -0.3075 -0.9148  0.2229
47387SOL    HW150939  10.138   7.480  10.468  0.2672 -0.8897  1.7682
47387SOL    HW250940  10.254   7.567  10.511 -0.8398  1.1630  0.7648
47388SOL     OW50941   0.195   0.530   3.949 -0.7817  0.0221  0.0911
47388SOL    HW150942   0.152   0.585   4.015  1.2645  0.8944  0.7775
47388SOL    HW250943   0.286   0.525   3.977  0.3407  0.8875 -2.9078
47389SOL     OW50944   5.664   6.453   0.140 -0.6063  0.2617 -0.2331
47389SOL    HW150945   5.737   6.416   0.190 -0.7926 -0.9814 -0.8430
47389SOL    HW250946   5.597   6.473   0.205 -0.5532 -0.6263  0.1015
47390SOL     OW50947   8.609  12.033  11.793  0.4566 -0.2620 -0.5820
47390SOL    HW150948   8.558  11.961  11.757 -2.5182  0.5855  1.5542
47390SOL    HW250949   8.661  11.993  11.863 -1.1204 -0.4265  0.5444
47391SOL     OW50950   6.500   2.263   2.292 -0.9835  0.4037  0.1561
47391SOL    HW150951   6.462   2.183   2.327  0.6510 -0.8394 -0.7566
47391SOL    HW250952   6.470   2.267   2.202  0.7669 -0.4942 -0.5175
47392SOL     OW50953   6.345   5.691   9.663 -0.1738  0.0471 -0.1674
47392SOL    HW150954   6.306   5.709   9.578  0.7559 -0.1092 -0.6375
47392SOL    HW250955   6.420   5.752   9.669  0.1326 -0.3634  0.2709
47393SOL     OW50956   7.974  12.368   0.242  0.7272 -0.0642  0.4737
47393SOL    HW150957   7.915  12.388   0.314  0.5554  1.0292  0.0550
47393SOL    HW250958   8.042  12.436   0.246  1.6032 -0.9163  0.5503
47394SOL     OW50959  10.650   7.122   8.622 -0.1256 -0.3493 -0.1497
47394SOL    HW150960  10.612   7.202   8.585  1.0194 -0.1591 -0.9560
47394SOL    HW250961  10.580   7.057   8.614 -0.7313  0.3210 -0.3951
47395SOL     OW50962  11.142   8.880  10.684 -0.1305  0.1892  0.0880
47395SOL    HW150963  11.072   8.838  10.633  0.5830  0.3711 -1.0947
47395SOL    HW250964  11.119   8.863  10.775 -0.6078 -1.5594 -0.3161
47396SOL     OW50965   5.387   6.703  10.724 -0.5496 -0.0742  0.2430
47396SOL    HW150966   5.336   6.760  10.782  0.4709 -1.2440  2.4057
47396SOL    HW250967   5.337   6.702  10.642 -2.3055  1.3000  1.2119
47397SOL     OW50968   0.336   4.119   1.332  0.2188  0.2531  0.2009
47397SOL    HW150969   0.369   4.090   1.246 -0.9636  0.2297 -0.2640
47397SOL    HW250970   0.308   4.209   1.317  0.4704  0.4196  0.7064
47398SOL     OW50971   7.182   5.827   6.588 -0.3382 -0.3696  0.0530
47398SOL    HW150972   7.214   5.770   6.659  2.2176  2.1945  1.1334
47398SOL    HW250973   7.235   5.804   6.512  0.1676  0.0537  0.2776
47399SOL     OW50974  12.390   4.475   8.805 -0.1854  0.2436 -0.5072
47399SOL    HW150975  12.448   4.543   8.771 -0.7459  1.1937  0.3832
47399SOL    HW250976  12.347   4.439   8.728  0.7634  0.2869 -1.0723
47400SOL     OW50977   0.367   7.504   8.489  0.2905  0.2146 -0.1627
47400SOL    HW150978   0.333   7.594   8.483 -0.4119 -0.1170 -1.8672
47400SOL    HW250979   0.395   7.484   8.399  1.5618 -0.8607  0.4421
47401SOL     OW50980   7.908   2.958   1.414  0.6586 -0.5014 -0.7827
47401SOL    HW150981   7.871   2.879   1.453 -4.2711  1.7704 -0.1090
47401SOL    HW250982   7.875   2.958   1.325 -0.3041  1.2209 -0.4621
47402SOL     OW50983  12.576   4.340   2.864  0.0208 -0.1123  0.0737
47402SOL    HW150984  12.591   4.408   2.930  1.5227 -1.6194  1.3926
47402SOL    HW250985  12.622   4.372   2.786  1.9847 -0.1994  1.1207
47403SOL     OW50986  11.418   0.624   5.915  0.1188  0.2989  0.7866
47403SOL    HW150987  11.494   0.683   5.918  0.0704  0.4719 -0.7892
47403SOL    HW250988  11.455   0.539   5.894 -0.0649  0.2557  0.6412
47404SOL     OW50989   6.825   1.739   2.061 -0.4309 -0.0365 -0.1223
47404SOL    HW150990   6.791   1.702   1.980 -0.4696 -0.7125  0.1994
47404SOL    HW250991   6.919   1.748   2.046 -0.5300  0.4430 -0.4703
47405SOL     OW50992   3.847   9.347   9.346 -0.1642 -0.3288 -0.0647
47405SOL    HW150993   3.893   9.351   9.430 -0.3036 -2.0339  0.1297
47405SOL    HW250994   3.845   9.254   9.324 -1.8521 -0.1129 -1.0007
47406SOL     OW50995   6.947   4.624   0.455 -0.2363  0.1135 -0.7329
47406SOL    HW150996   6.863   4.612   0.498  1.2236 -0.1463  2.3756
47406SOL    HW250997   6.934   4.696   0.395 -2.6205  0.1645 -0.2505
47407SOL     OW50998   0.100   9.920   5.005  0.5235  0.0483  0.1711
47407SOL    HW150999   0.119   9.828   4.985  0.5670 -0.1275  0.9840
47407SOL    HW251000   0.013   9.935   4.967  1.6209  0.4891 -2.4182
47408SOL     OW51001   9.362   6.080  10.195  0.3539  0.5569 -0.0416
47408SOL    HW151002   9.318   6.055  10.114  1.4989 -0.0455 -0.5135
47408SOL    HW251003   9.408   6.001  10.222  1.9312  1.3958 -0.1265
47409SOL     OW51004  12.331   1.115   2.968 -0.1267  0.0383 -0.9218
47409SOL    HW151005  12.327   1.158   2.883 -1.1226  1.0798 -0.3755
47409SOL    HW251006  12.358   1.184   3.029 -0.4872 -0.4160 -0.2321
47410SOL     OW51007   1.647   7.682   6.759  0.0264 -0.0995 -0.6645
47410SOL    HW151008   1.593   7.608   6.785 -0.1104  0.4501  0.7090
47410SOL    HW251009   1.704   7.698   6.834 -0.5794  1.7506 -0.5324
47411SOL     OW51010  10.021   5.288   0.504  0.2748 -0.8566  0.3060
47411SOL    HW151011   9.952   5.223   0.514  0.3190 -0.9406  0.0682
47411SOL    HW251012   9.979   5.371   0.525  0.2102 -0.9581  0.5794
47412SOL     OW51013   5.380   1.439   2.350  0.5203 -0.1627  0.1185
47412SOL    HW151014   5.312   1.502   2.376  1.0394  0.1322  0.8116
47412SOL    HW251015   5.367   1.364   2.409 -0.4189 -0.9410 -1.0458
47413SOL     OW51016   0.056   3.601   2.958  0.3697 -0.0185 -0.0149
47413SOL    HW151017   0.098   3.653   3.026 -1.7818  0.4448  1.0407
47413SOL    HW251018   0.054   3.659   2.882 -1.2509  1.2214  0.9073
47414SOL     OW51019   1.853   9.809   5.526 -0.1295 -0.6750 -0.2070
47414SOL    HW151020   1.888   9.725   5.553 -0.8314 -0.9658 -0.1761
47414SOL    HW251021   1.918   9.873   5.555  0.6761 -1.2447 -0.7216
47415SOL     OW51022   4.305  10.803   9.294  0.0497 -0.1222 -0.3064
47415SOL    HW151023   4.278  10.860   9.366  0.3529  0.2255 -0.4607
47415SOL    HW251024   4.314  10.863   9.219  0.8979 -0.2755 -0.3431
47416SOL     OW51025   7.493   6.192   4.879  0.1943  0.0906 -0.2046
47416SOL    HW151026   7.527   6.103   4.865 -0.4800 -0.0161 -1.2016
47416SOL    HW251027   7.549   6.248   4.825 -0.5880  0.0304 -1.0953
47417SOL     OW51028   1.667  11.022   9.584  0.2977 -0.0806 -0.5343
47417SOL    HW151029   1.741  10.983   9.630  1.1225  0.2960 -1.4796
47417SOL    HW251030   1.702  11.042   9.497 -0.6563  0.9680 -0.6952
47418SOL     OW51031   9.333  12.111  10.171  0.9835  0.5592  0.2202
47418SOL    HW151032   9.333  12.192  10.121 -0.0176  1.0304  0.9373
47418SOL    HW251033   9.422  12.103  10.204  1.1489  1.2598 -0.0368
47419SOL     OW51034   3.231   4.044  12.420 -0.0973  0.1897 -0.3051
47419SOL    HW151035   3.228   4.075  12.510 -0.1108  0.8993 -0.5455
47419SOL    HW251036   3.183   3.961  12.422 -1.2100  0.8079  0.1034
47420SOL     OW51037   8.252   1.338   9.562  0.3185 -0.0150 -0.0944
47420SOL    HW151038   8.213   1.315   9.477  1.2748 -1.5387 -0.1541
47420SOL    HW251039   8.288   1.256   9.595 -0.7783  0.3621  2.2125
47421SOL     OW51040   5.823  10.070   3.513  0.1085 -0.4932 -0.0256
47421SOL    HW151041   5.889  10.038   3.575 -0.0015  0.5620  0.6626
47421SOL    HW251042   5.864  10.061   3.427  0.0680 -2.5063  0.1016
47422SOL     OW51043   4.927   0.057   1.714 -0.0842  0.5045 -0.1971
47422SOL    HW151044   4.842   0.096   1.736 -2.0479 -3.6946  0.8399
47422SOL    HW251045   4.980   0.072   1.792 -1.5914 -0.7092  1.1588
47423SOL     OW51046   0.801   6.659   2.962 -0.6209 -0.7898 -0.2661
47423SOL    HW151047   0.868   6.659   3.030 -0.8128  0.8005 -0.0230
47423SOL    HW251048   0.789   6.567   2.940  1.1090 -1.1726  0.1979
47424SOL     OW51049   5.599   4.049  12.049 -0.4614 -0.0067 -0.5707
47424SOL    HW151050   5.555   3.988  11.990  0.3734  1.3026 -2.6673
47424SOL    HW251051   5.685   4.012  12.064 -0.8636 -0.6174  0.3431
47425SOL     OW51052   6.703   3.604   7.635  0.0871 -0.1666 -0.2908
47425SOL    HW151053   6.743   3.688   7.616 -2.2596  1.0923  0.0400
47425SOL    HW251054   6.702   3.558   7.551  0.5813  0.4809 -0.6627
47426SOL     OW51055  12.399   5.534   3.051  0.1808  0.0721  0.0610
47426SOL    HW151056  12.445   5.495   3.125  3.3700 -0.0125 -1.7767
47426SOL    HW251057  12.357   5.460   3.007 -1.1621  0.0366  1.3184
47427SOL     OW51058  10.951   1.996   1.344 -0.1319 -0.1701 -0.3895
47427SOL    HW151059  10.912   1.951   1.419 -0.4780 -0.7692 -0.9120
47427SOL    HW251060  10.933   2.089   1.359 -0.1595 -0.2853  0.2872
47428SOL     OW51061   1.977   9.093   8.577 -0.3588 -0.0208  0.2502
47428SOL    HW151062   2.034   9.170   8.580  0.4977 -0.4767 -2.0867
47428SOL    HW251063   1.989   9.058   8.489 -3.4571 -0.7879  0.0202
47429SOL     OW51064   1.103   1.510   3.492  0.2454  0.0366  0.3558
47429SOL    HW151065   1.124   1.516   3.398  0.3575 -1.9264  0.2161
47429SOL    HW251066   1.021   1.559   3.501  0.0196 -0.0789 -0.8578
47430SOL     OW51067   7.001   1.649   3.253  0.0579  0.0789  0.3478
47430SOL    HW151068   6.974   1.711   3.185 -1.2372 -0.0974  0.6858
47430SOL    HW251069   6.994   1.699   3.335 -0.2298 -0.2894  0.5446
47431SOL     OW51070   8.176   1.938   4.720 -0.3379  0.1294  0.1746
47431SOL    HW151071   8.198   1.905   4.807 -0.8497 -0.7197  0.0025
47431SOL    HW251072   8.256   1.925   4.668 -0.3838 -0.4279  0.2355
47432SOL     OW51073  11.604   7.985   1.647 -0.6071 -0.2895 -0.4231
47432SOL    HW151074  11.615   7.894   1.676  0.2410  0.0911  0.4910
47432SOL    HW251075  11.589   7.978   1.552  0.3679 -1.3359 -0.5218
47433SOL     OW51076   8.460  10.791  11.568 -0.5508  0.4596 -0.3386
47433SOL    HW151077   8.420  10.775  11.654  0.0700  0.7134 -0.0018
47433SOL    HW251078   8.499  10.878  11.575  0.2721  0.1221 -0.5756
47434SOL     OW51079   9.673   9.496  12.346 -0.9274 -0.3341 -0.2423
47434SOL    HW151080   9.695   9.477  12.254 -0.7790  0.3646 -0.3508
47434SOL    HW251081   9.740   9.557  12.375 -1.8565  0.6685 -0.1400
47435SOL     OW51082   8.685   7.152   8.945  0.0428  0.0494 -0.4859
47435SOL    HW151083   8.669   7.236   8.902  0.7581  0.7198  0.5034
47435SOL    HW251084   8.601   7.106   8.941 -0.3330  0.7732 -1.1103
47436SOL     OW51085   1.293  10.380   7.884  0.6034  0.8179 -0.3430
47436SOL    HW151086   1.328  10.395   7.972  0.1917  1.3657 -0.2636
47436SOL    HW251087   1.213  10.432   7.881 -1.4383 -2.0590  0.2538
47437SOL     OW51088   6.298   2.245  10.557 -0.8686  0.3940 -0.2209
47437SOL    HW151089   6.264   2.157  10.577 -1.4966  0.3674 -1.3311
47437SOL    HW251090   6.305   2.246  10.462  2.6203  0.2845 -0.0699
47438SOL     OW51091  11.993   3.595   7.205 -0.5319 -0.1139  0.0796
47438SOL    HW151092  12.026   3.506   7.192 -2.5368 -1.0057  0.7952
47438SOL    HW251093  12.052   3.633   7.270  1.1099 -0.4445 -1.1470
47439SOL     OW51094  11.368   3.962   3.051 -0.3542  0.0130 -0.0351
47439SOL    HW151095  11.442   4.014   3.081  1.0786 -1.5234 -0.7105
47439SOL    HW251096  11.291   4.013   3.075  0.9140  1.7200  0.6049
47440SOL     OW51097   6.285   4.824   3.109 -0.3494 -0.4330 -0.7051
47440SOL    HW151098   6.197   4.823   3.146 -0.4890 -0.3635 -1.0311
47440SOL    HW251099   6.327   4.899   3.151 -0.6052 -0.1736 -0.9084
47441SOL     OW51100   5.632   1.272   6.229  0.1558 -0.6072  0.0814
47441SOL    HW151101   5.686   1.195   6.214  0.1948 -0.9683  1.9043
47441SOL    HW251102   5.547   1.250   6.190  1.0260 -0.3332 -2.1107
47442SOL     OW51103  10.541   7.169   5.579  0.2491 -0.3986  0.3570
47442SOL    HW151104  10.548   7.225   5.656  0.6763 -0.4217  0.3365
47442SOL    HW251105  10.450   7.139   5.579 -1.0069  2.8658 -1.3865
47443SOL     OW51106   3.982   8.314   4.141 -0.0084  0.8344  0.1477
47443SOL    HW151107   4.056   8.285   4.087 -0.1876  0.5743  0.0426
47443SOL    HW251108   3.959   8.237   4.193  1.2489  1.5282  1.8407
47444SOL     OW51109  12.073   8.779  12.447  0.5045  0.5035  0.7252
47444SOL    HW151110  12.010   8.835  12.401  1.3937  2.8626  2.1773
47444SOL    HW251111  12.024   8.700  12.469 -0.5121  0.1339 -2.4047
47445SOL     OW51112   6.516  10.742  11.288 -0.4524 -0.0524  0.3920
47445SOL    HW151113   6.572  10.764  11.363  0.1204 -1.1145  0.3106
47445SOL    HW251114   6.437  10.704  11.328 -0.8868  0.9231  0.4905
47446SOL     OW51115   1.858   9.819   3.460 -0.1515 -0.4557  0.3606
47446SOL    HW151116   1.831   9.818   3.369  4.3284 -1.9723 -1.2231
47446SOL    HW251117   1.831   9.904   3.493  0.1948  1.1652 -3.1486
47447SOL     OW51118  10.130   0.518  10.649  0.0189  0.0051  0.6634
47447SOL    HW151119  10.198   0.458  10.680  1.4428  0.4757 -1.3238
47447SOL    HW251120  10.177   0.581  10.594 -1.9781  0.5671 -0.5035
47448SOL     OW51121   5.143   2.052  12.314  0.2956 -0.3709 -0.4909
47448SOL    HW151122   5.077   2.065  12.382  0.1190 -2.3972 -0.1988
47448SOL    HW251123   5.093   2.055  12.232 -0.0777 -1.2832 -0.3062
47449SOL     OW51124   9.215  11.633  12.096 -0.2072 -0.1917  0.0961
47449SOL    HW151125   9.181  11.546  12.114  0.8956 -0.5997  0.2484
47449SOL    HW251126   9.193  11.650  12.005  0.3893 -1.0033 -0.1994
47450SOL     OW51127   8.140   2.868   5.757  0.3636  0.5769 -0.5902
47450SOL    HW151128   8.179   2.927   5.692  0.3323  0.8552 -0.3569
47450SOL    HW251129   8.212   2.809   5.781  0.4549  0.6568 -0.6638
47451SOL     OW51130   9.710   4.937   4.821 -0.2527  0.2981  0.0036
47451SOL    HW151131   9.715   4.973   4.909 -1.3790 -1.3744  0.8009
47451SOL    HW251132   9.679   5.010   4.767  2.3997  1.9481  0.5237
47452SOL     OW51133   2.483   3.863  12.584 -0.6595 -0.3891 -0.1822
47452SOL    HW151134   2.495   3.820  12.668 -1.0666  0.7631  0.4893
47452SOL    HW251135   2.566   3.907  12.566 -1.2306  1.1566  0.7057
47453SOL     OW51136   2.511   7.278   6.077 -0.0032 -0.0842 -0.1996
47453SOL    HW151137   2.516   7.205   6.139 -1.5619  0.1037  0.1933
47453SOL    HW251138   2.434   7.328   6.105  0.7676  1.4607 -0.7458
47454SOL     OW51139   8.695   8.538   4.641  0.6653 -0.1030 -0.2041
47454SOL    HW151140   8.790   8.531   4.653  0.6382  0.7311  0.5507
47454SOL    HW251141   8.661   8.549   4.729 -0.1944 -0.9225 -0.4213
47455SOL     OW51142  12.516  11.825   3.351  0.4476  0.1104 -0.6912
47455SOL    HW151143  12.512  11.803   3.444  1.0593  0.1583 -0.6460
47455SOL    HW251144  12.589  11.887   3.345  0.7320 -0.2705 -1.2714
47456SOL     OW51145   0.413   3.693   2.600 -0.2163  0.4458 -0.0760
47456SOL    HW151146   0.485   3.728   2.547  0.9501 -1.7508 -0.0556
47456SOL    HW251147   0.457   3.645   2.671 -1.4710 -3.4563 -1.6485
47457SOL     OW51148  11.046   3.354   5.017  0.0574 -0.1659 -0.3714
47457SOL    HW151149  11.041   3.273   4.966 -1.4270  0.1344 -0.7451
47457SOL    HW251150  10.995   3.335   5.096 -0.7170  0.5318 -0.6803
47458SOL     OW51151   4.103  10.799   4.451  0.1386  0.0155 -0.1809
47458SOL    HW151152   4.186  10.843   4.471  0.0182  0.8902 -1.4411
47458SOL    HW251153   4.038  10.869   4.455 -0.0360  0.0511 -2.3839
47459SOL     OW51154   7.864   9.591  11.518  0.4527 -0.5848  0.2627
47459SOL    HW151155   7.783   9.542  11.531 -0.0350  0.1285 -0.0364
47459SOL    HW251156   7.891   9.616  11.606 -0.2531  0.1184  0.2877
47460SOL     OW51157   8.077   9.405  11.854 -0.2296  0.0744  0.4379
47460SOL    HW151158   8.045   9.378  11.940  1.1227 -0.8684  0.6722
47460SOL    HW251159   8.166   9.370  11.849  0.7705  2.5127 -0.2233
47461SOL     OW51160   4.296   7.106   3.483 -0.0468 -0.2500 -0.3784
47461SOL    HW151161   4.259   7.194   3.473  0.9584  0.1980 -0.3204
47461SOL    HW251162   4.284   7.065   3.397  1.5804  0.8044 -1.1660
47462SOL     OW51163   3.106   1.627  12.393  0.0971  0.3250  0.0467
47462SOL    HW151164   3.153   1.673  12.461  0.9042  2.4826 -1.8546
47462SOL    HW251165   3.151   1.543  12.384  0.4079  0.3067  1.6313
47463SOL     OW51166   0.843   8.340  11.082 -0.1989  0.2323  0.0894
47463SOL    HW151167   0.762   8.382  11.053 -0.4987 -0.4143 -0.0282
47463SOL    HW251168   0.852   8.368  11.174  0.2743  1.5428 -0.3400
47464SOL     OW51169   3.371   5.521   3.345 -0.3413 -0.0369  0.0467
47464SOL    HW151170   3.325   5.439   3.329  1.0255 -0.8076 -0.0149
47464SOL    HW251171   3.442   5.522   3.281 -0.2921  1.1795  0.0850
47465SOL     OW51172   4.933   8.277  10.329 -0.1544 -0.8456 -0.4574
47465SOL    HW151173   4.932   8.364  10.370  2.4909 -0.2931 -1.3157
47465SOL    HW251174   4.871   8.285  10.256  1.8931  1.3056 -2.1371
47466SOL     OW51175   6.051   4.153   8.741  0.1237 -0.2501  0.7794
47466SOL    HW151176   6.093   4.154   8.828  0.1581 -1.4481  0.7806
47466SOL    HW251177   6.023   4.063   8.729  0.8474 -0.2887 -0.8107
47467SOL     OW51178   4.167   9.398   4.095 -0.6432  0.9753 -0.4560
47467SOL    HW151179   4.215   9.338   4.037 -0.0848  0.0826  0.8791
47467SOL    HW251180   4.222   9.477   4.097 -0.1561  0.6440 -0.3864
47468SOL     OW51181  12.035   7.265  11.833 -0.2375 -0.6706  0.3015
47468SOL    HW151182  11.955   7.260  11.885 -0.5922 -0.4380 -0.2156
47468SOL    HW251183  12.036   7.183  11.783  0.6797 -1.4148  1.4771
47469SOL     OW51184   9.895   7.759  12.217  0.6160  0.4163 -0.3221
47469SOL    HW151185   9.804   7.750  12.188  1.3548 -0.2874 -2.7128
47469SOL    HW251186   9.920   7.848  12.192  1.0934 -0.0084 -1.4411
47470SOL     OW51187   9.864  11.335  10.955  0.1810  0.4658  0.5460
47470SOL    HW151188   9.908  11.284  11.024  0.1280 -0.9022 -0.3864
47470SOL    HW251189   9.858  11.274  10.881  0.7630  2.0928 -0.8830
47471SOL     OW51190   9.220   7.994  11.609 -0.3286 -0.0056  0.2364
47471SOL    HW151191   9.169   7.931  11.559 -0.1820  0.5587 -0.6369
47471SOL    HW251192   9.270   7.941  11.671 -0.9185 -0.6653  0.1500
47472SOL     OW51193   9.049   5.020   5.482 -0.2904  0.0553 -0.1829
47472SOL    HW151194   9.116   5.030   5.551  0.4671  0.2210 -0.9314
47472SOL    HW251195   8.971   5.063   5.518  0.5874  1.6407 -0.1125
47473SOL     OW51196   0.538  11.995  12.260  0.5039 -0.2920  0.4796
47473SOL    HW151197   0.595  11.926  12.294 -0.2459 -2.6459 -2.5887
47473SOL    HW251198   0.592  12.043  12.199  0.1362 -0.3168  0.1299
47474SOL     OW51199  10.174   2.344  11.304 -0.0514 -0.1297 -0.0993
47474SOL    HW151200  10.119   2.275  11.266  0.8403 -0.6195 -0.5499
47474SOL    HW251201  10.112   2.406  11.341 -0.9185 -0.4835 -0.8941
47475SOL     OW51202   8.328  10.341  11.942  0.2916 -0.1059 -0.5241
47475SOL    HW151203   8.342  10.248  11.922  2.0719 -0.2315  1.0147
47475SOL    HW251204   8.390  10.360  12.012  0.5038  2.4634 -1.3052
47476SOL     OW51205   3.715   8.162   7.261  0.1415 -0.1608  0.4460
47476SOL    HW151206   3.623   8.189   7.261  0.2508  0.4128  2.6632
47476SOL    HW251207   3.764   8.242   7.241  0.1962 -0.2476  0.2290
47477SOL     OW51208   2.759   7.987  10.092  0.2165 -0.5714 -0.3908
47477SOL    HW151209   2.677   7.947  10.063 -0.6942  1.8150 -1.3562
47477SOL    HW251210   2.813   7.992  10.014 -0.3617  1.5427 -0.7052
47478SOL     OW51211   9.084  10.232  12.008 -0.0450 -0.0290  0.2120
47478SOL    HW151212   9.015  10.284  11.966  0.4435  0.2079 -0.3334
47478SOL    HW251213   9.053  10.217  12.097 -0.5556  0.5340  0.1390
47479SOL     OW51214   9.290   3.640   9.196 -0.2103  0.6242  0.0326
47479SOL    HW151215   9.313   3.718   9.245 -1.1583  1.8790 -1.4143
47479SOL    HW251216   9.290   3.569   9.260  2.9182  1.3354  0.9849
47480SOL     OW51217   1.026   9.605   1.931  0.1552 -0.0658 -0.8411
47480SOL    HW151218   0.972   9.596   2.010 -0.1840  1.7876 -0.8088
47480SOL    HW251219   0.999   9.689   1.893  2.6212  0.6631 -1.1521
47481SOL     OW51220   8.897   6.556  11.137  0.4429 -0.4167  0.5953
47481SOL    HW151221   8.907   6.650  11.119 -1.3282 -0.2620  0.2933
47481SOL    HW251222   8.813   6.549  11.182  1.3212 -1.6916  2.1393
47482SOL     OW51223   9.576   5.866  12.053 -0.1206 -0.4040 -0.6962
47482SOL    HW151224   9.568   5.859  11.958  0.6257 -1.7969 -0.6858
47482SOL    HW251225   9.655   5.919  12.066  0.7476 -1.6005 -0.8934
47483SOL     OW51226   6.170   4.616   8.151  0.3265 -0.5841 -0.0743
47483SOL    HW151227   6.157   4.539   8.096  0.4010  0.1384 -1.1199
47483SOL    HW251228   6.090   4.668   8.139  0.6581 -0.0671 -0.0845
47484SOL     OW51229   6.719   7.365  10.624 -0.1494  0.0140 -0.2462
47484SOL    HW151230   6.625   7.355  10.609  0.2483 -1.8447 -1.8948
47484SOL    HW251231   6.733   7.335  10.714 -0.8363 -2.1246 -0.8088
47485SOL     OW51232  10.985  11.720  10.975 -0.3962  0.0584  0.1001
47485SOL    HW151233  11.027  11.643  11.013  0.8376  0.3280 -0.6875
47485SOL    HW251234  10.940  11.687  10.897 -0.3397  0.0495  0.0723
47486SOL     OW51235   3.165   4.536   1.140 -0.3528  0.3778  0.1327
47486SOL    HW151236   3.201   4.581   1.064 -0.8457  0.9000  0.1923
47486SOL    HW251237   3.196   4.588   1.215 -0.6777  0.4481  0.2208
47487SOL     OW51238  12.000   3.832   3.118 -0.0658 -0.0378  0.2901
47487SOL    HW151239  11.938   3.904   3.102 -1.1086 -0.7770  0.9129
47487SOL    HW251240  11.951   3.770   3.171  1.0592 -0.8907  0.3499
47488SOL     OW51241   7.536   2.128   1.520 -0.3539  0.0623 -0.0082
47488SOL    HW151242   7.489   2.211   1.513 -2.9232 -1.3036 -0.1618
47488SOL    HW251243   7.568   2.110   1.432 -0.2401  0.6027 -0.0826
47489SOL     OW51244   3.346  10.695   5.345 -0.0605  0.2601  0.0623
47489SOL    HW151245   3.354  10.619   5.403 -0.8987  0.2151  0.1344
47489SOL    HW251246   3.371  10.662   5.259 -0.1381 -0.0202  0.1468
47490SOL     OW51247  12.537  12.387   3.805  0.3836  0.2415  0.5084
47490SOL    HW151248  12.480  12.319   3.770  0.5765 -0.4270  1.4279
47490SOL    HW251249  12.487  12.427   3.876  1.4988 -1.2927  2.2649
47491SOL     OW51250   2.984   7.627   1.424 -0.1114  0.4614 -0.2607
47491SOL    HW151251   3.004   7.571   1.499  1.0543 -0.1381 -0.9808
47491SOL    HW251252   2.909   7.679   1.451 -0.9634 -1.1649  0.5822
47492SOL     OW51253   9.128  10.749   4.135  0.2212 -0.2458 -0.3487
47492SOL    HW151254   9.039  10.776   4.159  1.0239  1.0897  1.2471
47492SOL    HW251255   9.181  10.827   4.147  1.6334 -1.0154 -1.3307
47493SOL     OW51256   7.073   7.103  11.306 -0.2056 -0.0591 -0.1044
47493SOL    HW151257   7.112   7.071  11.225  1.2625 -1.4670  1.1065
47493SOL    HW251258   7.088   7.033  11.370  0.3537  1.7543  1.8688
47494SOL     OW51259   9.266   2.176   7.319  0.3799  0.2971 -0.0507
47494SOL    HW151260   9.259   2.195   7.225 -0.9031 -0.9364 -0.2363
47494SOL    HW251261   9.319   2.096   7.323 -0.3236 -0.1588  0.2106
47495SOL     OW51262   2.640   6.064   4.583  0.4278  0.9338  0.1985
47495SOL    HW151263   2.655   6.099   4.671  1.4812 -0.9651  0.8213
47495SOL    HW251264   2.688   5.982   4.581  1.0258  1.2630 -2.4176
47496SOL     OW51265   7.533   7.623   8.181  0.4659 -0.2013  0.6339
47496SOL    HW151266   7.446   7.588   8.200 -0.8021  1.4776 -1.5542
47496SOL    HW251267   7.565   7.656   8.265 -1.4156 -0.0598  1.3414
47497SOL     OW51268   9.995   6.165   1.991 -0.3814 -0.2028 -0.3422
47497SOL    HW151269   9.961   6.228   2.054  0.2023 -0.1868 -0.0398
47497SOL    HW251270   9.994   6.081   2.038 -0.7219 -0.3435 -0.5910
47498SOL     OW51271   3.599   6.958   8.751 -0.1790  0.0220 -0.4557
47498SOL    HW151272   3.667   6.917   8.806  0.1321 -0.3236 -1.0881
47498SOL    HW251273   3.527   6.894   8.751  0.2732 -0.5011 -1.3731
47499SOL     OW51274   3.588  10.515   5.778  0.1473  0.7773  0.7797
47499SOL    HW151275   3.541  10.594   5.751  0.6486  0.9938  0.5203
47499SOL    HW251276   3.635  10.541   5.858  0.6809  0.8877  0.4400
47500SOL     OW51277   8.138   8.433   5.525  0.3594 -0.1694 -0.3991
47500SOL    HW151278   8.067   8.371   5.511  0.6025 -0.2642 -1.2747
47500SOL    HW251279   8.104   8.495   5.589  0.0045 -1.0275  0.2603
47501SOL     OW51280   3.650   6.595   5.162 -0.3259 -0.6189  0.1537
47501SOL    HW151281   3.713   6.565   5.226  1.2658  2.2908  0.1103
47501SOL    HW251282   3.670   6.545   5.083  0.3583 -1.3748  0.7967
47502SOL     OW51283  11.096   2.228  10.183 -0.1896  0.6710 -0.0755
47502SOL    HW151284  11.070   2.149  10.231 -0.1481  0.8760  0.2913
47502SOL    HW251285  11.186   2.210  10.155 -0.7242 -0.0533 -1.3781
47503SOL     OW51286   4.478   7.363   2.088 -0.4829  0.5056  0.5892
47503SOL    HW151287   4.463   7.452   2.121 -1.2233  0.7939 -0.4951
47503SOL    HW251288   4.418   7.308   2.138 -1.5901  0.9370 -0.2352
47504SOL     OW51289   1.162   9.740   9.100 -0.2511 -0.1767  0.0410
47504SOL    HW151290   1.154   9.835   9.093  1.8714 -0.0546 -2.6661
47504SOL    HW251291   1.074   9.707   9.083 -0.5362  1.2968 -1.5827
47505SOL     OW51292   0.748   5.190  10.779  0.6988 -0.8771  0.4269
47505SOL    HW151293   0.707   5.122  10.724 -3.8112  0.1920  1.9935
47505SOL    HW251294   0.794   5.141  10.847  1.4095 -2.2665 -0.9967
47506SOL     OW51295   6.729   4.395   6.418  0.1339  0.1356 -0.3740
47506SOL    HW151296   6.653   4.357   6.463 -1.1695  1.8556 -0.9788
47506SOL    HW251297   6.768   4.453   6.483  0.5962 -0.3045 -0.2529
47507SOL     OW51298   3.927   1.266  11.487 -0.7665  0.3307  0.0116
47507SOL    HW151299   3.833   1.274  11.503 -0.6061 -0.4695  1.4770
47507SOL    HW251300   3.952   1.349  11.446 -1.5875  1.7860  2.2912
47508SOL     OW51301   8.986   4.165   6.485  0.3495 -0.0688 -0.5716
47508SOL    HW151302   8.982   4.091   6.425  2.4692 -0.1886 -0.6448
47508SOL    HW251303   9.076   4.163   6.519  0.1271  1.8420  0.2295
47509SOL     OW51304   9.601   9.532  11.898 -0.2069  0.2629 -0.5628
47509SOL    HW151305   9.657   9.593  11.947  1.3988 -1.1492 -0.5621
47509SOL    HW251306   9.537   9.589  11.855  0.2047  1.8092  0.7354
47510SOL     OW51307   4.480   9.444   1.270  0.2101  0.1878  0.1273
47510SOL    HW151308   4.572   9.427   1.251  0.4004  2.2807 -1.1454
47510SOL    HW251309   4.479   9.463   1.364  1.1115  0.3536  0.1164
47511SOL     OW51310  11.733   7.917   4.926 -0.4375 -0.3116 -0.6407
47511SOL    HW151311  11.757   8.008   4.940 -0.8446 -0.4330  1.0097
47511SOL    HW251312  11.743   7.876   5.012 -3.2073 -1.1107 -0.6092
47512SOL     OW51313   7.999  10.562   6.647  0.0805  0.1715  1.0227
47512SOL    HW151314   8.036  10.640   6.688  1.2541  0.1451  0.0714
47512SOL    HW251315   8.074  10.504   6.633 -0.5061 -0.4199  0.1792
47513SOL     OW51316   6.754   7.906   7.889  0.7542 -0.9506 -0.0978
47513SOL    HW151317   6.697   7.896   7.966  2.3055  4.0183  2.0853
47513SOL    HW251318   6.697   7.943   7.822  0.5148  0.2574  0.7369
47514SOL     OW51319   5.391   3.702   2.422  0.2506 -0.5634 -0.5966
47514SOL    HW151320   5.466   3.701   2.481  0.2342  1.4650 -0.4693
47514SOL    HW251321   5.395   3.619   2.376  1.8797 -0.9958  0.2623
47515SOL     OW51322   8.346   6.606  11.965  0.0325  0.3458 -0.6528
47515SOL    HW151323   8.275   6.669  11.978 -0.7429 -0.7012  0.3715
47515SOL    HW251324   8.327   6.566  11.881  1.0269  2.0424 -1.7572
47516SOL     OW51325   5.997  11.920   2.470  0.3804  0.1046  0.5501
47516SOL    HW151326   5.924  11.914   2.531 -0.4620 -0.0845 -0.4608
47516SOL    HW251327   6.060  11.855   2.502 -0.7386 -1.1342  0.3201
47517SOL     OW51328  10.726   2.837   8.843 -0.2389  0.3411  0.7106
47517SOL    HW151329  10.749   2.929   8.850 -1.2910  0.9970 -2.5688
47517SOL    HW251330  10.630   2.836   8.838 -0.1961 -0.7581 -0.5247
47518SOL     OW51331   2.661   4.943  12.260  0.7433  0.0520 -0.6287
47518SOL    HW151332   2.702   4.982  12.337 -3.7435  2.3526  0.9040
47518SOL    HW251333   2.661   5.012  12.194  0.3670 -0.3300 -1.0386
47519SOL     OW51334   9.193  11.217   2.688 -0.4337  0.1476  0.2060
47519SOL    HW151335   9.275  11.170   2.706 -0.5808 -0.0567  0.3451
47519SOL    HW251336   9.193  11.229   2.593 -0.1577  0.3007  0.2256
47520SOL     OW51337   6.545   3.374   2.154 -0.7844  0.3533 -0.3593
47520SOL    HW151338   6.590   3.400   2.074  1.3467 -0.4646  0.4960
47520SOL    HW251339   6.507   3.288   2.133 -4.0872  1.9592 -1.7900
47521SOL     OW51340   1.107   0.860   9.730 -0.6750 -0.7373 -0.1767
47521SOL    HW151341   1.137   0.813   9.652  1.5457 -1.6806  1.1312
47521SOL    HW251342   1.110   0.793   9.800 -0.4441  0.5906  1.1332
47522SOL     OW51343   3.545   6.643   6.832  0.6292  0.2397 -0.1022
47522SOL    HW151344   3.524   6.560   6.788 -0.2757 -1.3681  3.0780
47522SOL    HW251345   3.640   6.652   6.821  0.3909  0.2361 -2.7469
47523SOL     OW51346   5.475   4.667  11.220 -0.1817 -0.2631 -0.4429
47523SOL    HW151347   5.451   4.602  11.155  3.8577 -0.7599 -1.7231
47523SOL    HW251348   5.493   4.617  11.299  1.5595 -0.6240 -1.0242
47524SOL     OW51349   0.573   9.555   2.373  0.0410  0.3396  0.3737
47524SOL    HW151350   0.645   9.504   2.411 -0.6390  0.5989  2.0963
47524SOL    HW251351   0.614   9.636   2.343  0.7000 -0.1260 -0.0075
47525SOL     OW51352   6.259  10.297   4.500  0.0250  0.0752  0.0991
47525SOL    HW151353   6.256  10.240   4.577 -1.6153 -0.5428 -0.3621
47525SOL    HW251354   6.202  10.371   4.523 -0.9048 -0.3741 -0.6678
47526SOL     OW51355   4.429   8.360   9.000 -0.2806 -0.0791 -0.1344
47526SOL    HW151356   4.460   8.421   9.067  0.7262  0.2490 -0.8690
47526SOL    HW251357   4.334   8.358   9.011 -0.3863  1.9104 -0.3009
47527SOL     OW51358   9.391  12.495   6.198 -0.2310  0.4105 -0.0578
47527SOL    HW151359   9.297  12.484   6.185 -0.0237  0.2005 -1.4644
47527SOL    HW251360   9.399  12.579   6.243 -1.1062  0.2140  0.4943
47528SOL     OW51361   0.630  11.477   7.229 -0.0764 -0.4469 -0.4396
47528SOL    HW151362   0.598  11.553   7.182  1.1026  0.2284 -0.1831
47528SOL    HW251363   0.716  11.460   7.192  1.0277  0.2857  1.6262
47529SOL     OW51364   3.446   1.322   3.116  0.0820 -0.7324  0.6243
47529SOL    HW151365   3.493   1.245   3.082  0.2688  0.1545 -1.2708
47529SOL    HW251366   3.471   1.393   3.057 -0.0814  0.8196  2.3313
47530SOL     OW51367   1.382   3.803  10.314 -0.2769  0.0735  0.4895
47530SOL    HW151368   1.365   3.714  10.283 -0.2825  0.3213 -0.2389
47530SOL    HW251369   1.434   3.791  10.393 -1.7311 -0.6210  1.3680
47531SOL     OW51370   4.677  11.599   0.163  0.0475 -0.0642  0.0918
47531SOL    HW151371   4.585  11.614   0.139 -0.1346 -1.1890  0.0544
47531SOL    HW251372   4.710  11.539   0.097  1.3230  1.6217 -0.8829
47532SOL     OW51373   2.312   4.270  10.433  0.0718 -0.3621 -0.4953
47532SOL    HW151374   2.366   4.346  10.411 -0.8046  0.7085  0.8718
47532SOL    HW251375   2.374   4.198  10.442  0.9086  0.1242 -1.9819
47533SOL     OW51376  10.870   4.759   2.142 -0.2334 -0.0539  0.2564
47533SOL    HW151377  10.792   4.807   2.170  0.3199  0.3127  1.2421
47533SOL    HW251378  10.943   4.808   2.181  0.3951 -1.2315  0.5892
47534SOL     OW51379   3.070   9.506   2.297  0.2404  0.0748 -0.2721
47534SOL    HW151380   3.107   9.546   2.217 -0.1070  0.7337 -0.1126
47534SOL    HW251381   3.110   9.556   2.368  2.0653 -1.7640  0.0847
47535SOL     OW51382   0.466   5.762   4.094 -0.4407  0.6445  0.2726
47535SOL    HW151383   0.471   5.855   4.073 -2.3185  0.7377  0.1378
47535SOL    HW251384   0.477   5.757   4.189 -0.1419  0.9677  0.2569
47536SOL     OW51385  11.845   4.511  10.139 -0.5435 -0.0146  0.4977
47536SOL    HW151386  11.753   4.484  10.133 -0.4021 -0.4480  0.1679
47536SOL    HW251387  11.893   4.429  10.149 -0.0287  0.0055 -1.3854
47537SOL     OW51388   7.814  12.300   1.291  0.0711  0.5117 -0.0815
47537SOL    HW151389   7.860  12.383   1.308  1.8374 -0.5645  0.6970
47537SOL    HW251390   7.824  12.251   1.373  2.8105 -2.1544 -1.8361
47538SOL     OW51391   8.882  12.476   3.907 -0.0041 -0.4400  0.3296
47538SOL    HW151392   8.954  12.483   3.970  0.7895  0.6139 -0.6590
47538SOL    HW251393   8.921  12.433   3.830 -0.4422  0.0614 -0.1837
47539SOL     OW51394   2.040  10.954   9.984 -0.6166  0.6353  0.2261
47539SOL    HW151395   2.125  10.911   9.995 -0.7256  0.4833  0.4789
47539SOL    HW251396   1.998  10.947  10.070 -1.6166 -0.8908 -0.3320
47540SOL     OW51397   3.933  11.778   3.196  0.0074  0.2893 -0.4605
47540SOL    HW151398   3.942  11.775   3.100  0.8210 -0.8514 -0.3770
47540SOL    HW251399   3.981  11.856   3.222  1.4287 -0.4261 -0.8521
47541SOL     OW51400   7.817   7.481   2.639 -0.5256 -0.3800 -0.7532
47541SOL    HW151401   7.868   7.526   2.707 -1.4125  0.1153 -0.3997
47541SOL    HW251402   7.857   7.509   2.557  0.9629 -1.4738 -0.4462
47542SOL     OW51403   7.990   7.996   5.071  0.0060 -0.5076  0.0316
47542SOL    HW151404   8.033   7.915   5.101  1.3860 -0.1977 -0.9984
47542SOL    HW251405   8.009   8.060   5.139 -1.1644 -1.0577  0.8940
47543SOL     OW51406   7.376  10.799   2.568  0.1537  0.5482 -0.2698
47543SOL    HW151407   7.452  10.824   2.620  0.0216  1.9357 -0.6926
47543SOL    HW251408   7.409  10.733   2.507  0.3492 -0.9781  1.3872
47544SOL     OW51409   5.980   3.213  11.110 -0.1100  0.1626  0.4092
47544SOL    HW151410   6.018   3.235  11.024 -0.0125 -1.3547  0.0442
47544SOL    HW251411   5.887   3.200  11.092  0.2266 -2.1243  0.1167
47545SOL     OW51412   2.826  11.624   9.589  0.1631 -0.4582  0.3293
47545SOL    HW151413   2.906  11.640   9.639 -0.4952 -0.8970  1.5630
47545SOL    HW251414   2.761  11.601   9.654 -1.9061  3.0350 -0.2086
47546SOL     OW51415   4.524   9.505   5.496  0.6927  0.0016  0.2651
47546SOL    HW151416   4.429   9.509   5.504  0.7908  0.5804  1.3422
47546SOL    HW251417   4.553   9.595   5.514  1.3415  0.3367 -2.0267
47547SOL     OW51418   5.406   4.196   5.485  0.2199 -0.2065  0.9142
47547SOL    HW151419   5.380   4.127   5.546 -2.3747 -0.0774  0.0865
47547SOL    HW251420   5.360   4.174   5.404 -0.1770  2.1084  0.4393
47548SOL     OW51421   1.006   2.694   9.734 -0.0155 -0.0390 -0.1960
47548SOL    HW151422   1.040   2.778   9.764  0.0408  0.1126 -0.6764
47548SOL    HW251423   1.080   2.653   9.689 -0.4824  0.3401 -1.3499
47549SOL     OW51424   4.622   9.044   7.395  0.3209 -0.6335 -0.4457
47549SOL    HW151425   4.679   9.067   7.322 -0.3234 -0.8175 -1.0097
47549SOL    HW251426   4.578   8.964   7.367  1.3650 -1.7164  0.8448
47550SOL     OW51427   6.497   6.552   2.115  0.5902  0.4337  0.2674
47550SOL    HW151428   6.485   6.523   2.025  0.8489 -0.2546  0.4472
47550SOL    HW251429   6.577   6.507   2.144 -0.2222 -0.4074  1.2566
47551SOL     OW51430   9.655   5.992   0.500 -0.2238  0.5143 -0.2136
47551SOL    HW151431   9.671   5.973   0.407  0.7840  0.9928 -0.1521
47551SOL    HW251432   9.742   6.011   0.536 -0.5159 -0.2661  0.9724
47552SOL     OW51433   9.360   2.207   5.389 -0.2468 -0.3783 -0.3495
47552SOL    HW151434   9.399   2.121   5.405  1.0730  0.2214 -0.2003
47552SOL    HW251435   9.335   2.205   5.297 -1.1388 -1.2545 -0.1100
47553SOL     OW51436   7.217  11.716   8.369  0.1866  0.1176  0.0495
47553SOL    HW151437   7.202  11.768   8.291  0.8463  1.8596  1.0431
47553SOL    HW251438   7.268  11.772   8.427  2.6054 -2.2935  0.4472
47554SOL     OW51439  10.916  10.379   6.980  0.2269 -0.4929  0.2534
47554SOL    HW151440  10.992  10.397   7.035 -0.5064 -0.9588  1.4817
47554SOL    HW251441  10.870  10.308   7.025 -0.6318 -0.6026 -0.7523
47555SOL     OW51442   4.617   2.027   0.452  0.1875 -0.5566  0.2438
47555SOL    HW151443   4.615   2.083   0.374  1.9052 -0.1891  0.4137
47555SOL    HW251444   4.705   1.990   0.451  0.2318 -0.5594  1.9936
47556SOL     OW51445   7.190   1.981   5.237 -0.1152 -0.6525 -0.1840
47556SOL    HW151446   7.237   2.060   5.263  0.9654 -1.5482  0.6732
47556SOL    HW251447   7.132   2.009   5.166 -1.2533  1.3542  1.4399
47557SOL     OW51448  10.486   2.410   5.055  0.2265  0.0632  0.1123
47557SOL    HW151449  10.435   2.335   5.084  0.5284 -1.1337 -2.2204
47557SOL    HW251450  10.425   2.462   5.003  0.6913  0.0084 -0.4986
47558SOL     OW51451  10.366   9.656  10.668  0.3394 -0.4076  0.7248
47558SOL    HW151452  10.428   9.665  10.740  1.0249  0.1658  0.0767
47558SOL    HW251453  10.332   9.744  10.655  0.8639 -0.3391 -0.2134
47559SOL     OW51454   2.974   0.443   7.521 -0.2971  0.1107 -0.8586
47559SOL    HW151455   2.932   0.392   7.589 -0.1241 -0.7426 -1.3764
47559SOL    HW251456   2.904   0.496   7.483 -0.3096  0.9024  0.2499
47560SOL     OW51457   2.945  12.028   9.461 -0.2626 -0.6833  0.7458
47560SOL    HW151458   2.913  12.053   9.548  0.4414 -0.4313  0.9374
47560SOL    HW251459   2.982  12.108   9.425  3.2698 -1.6064  1.9131
47561SOL     OW51460   1.767   6.803  10.450  0.1163 -0.4591  0.1221
47561SOL    HW151461   1.710   6.814  10.526  2.3812 -1.8210  2.1880
47561SOL    HW251462   1.803   6.890  10.434 -1.0604  0.0243  0.0070
47562SOL     OW51463  10.894  11.055  12.514  0.2669 -0.0063 -0.7725
47562SOL    HW151464  10.966  11.118  12.524 -0.9745  1.0988  3.3245
47562SOL    HW251465  10.903  10.996  12.588 -2.6744 -0.1674 -0.4146
47563SOL     OW51466   3.742   2.734   4.085 -0.0945  0.3224 -0.5038
47563SOL    HW151467   3.689   2.805   4.120  1.2384  1.4790 -0.7260
47563SOL    HW251468   3.829   2.773   4.074  0.4260 -1.0633 -1.5652
47564SOL     OW51469   2.208   7.498  11.485 -0.2865 -0.3232 -0.0680
47564SOL    HW151470   2.253   7.478  11.403 -1.0782  1.8452 -1.1023
47564SOL    HW251471   2.278   7.526  11.544  0.2967 -1.9682  0.0635
47565SOL     OW51472   8.110   0.173   0.822 -0.9397  0.6335  0.2932
47565SOL    HW151473   8.200   0.145   0.802 -0.7978  1.4593 -0.2646
47565SOL    HW251474   8.108   0.265   0.798 -1.7547  0.7963  0.9454
47566SOL     OW51475   8.719  11.165   2.639  0.5762  0.4435 -0.4882
47566SOL    HW151476   8.699  11.204   2.724  0.9058 -0.0606 -0.1722
47566SOL    HW251477   8.637  11.170   2.590 -0.1733 -1.0026  0.5543
47567SOL     OW51478   5.707   9.319   8.466 -0.2325  0.1687 -0.6426
47567SOL    HW151479   5.780   9.380   8.482 -1.6641  1.8126  0.0129
47567SOL    HW251480   5.743   9.233   8.486  1.2715  1.0307  0.6622
47568SOL     OW51481  11.782   7.850   7.044 -0.4651 -0.1841  0.0268
47568SOL    HW151482  11.717   7.913   7.012  0.0003  0.6401  0.6346
47568SOL    HW251483  11.731   7.772   7.065 -0.9798 -0.2195 -1.2709
47569SOL     OW51484   7.389  10.317   3.462  0.2323 -0.0583  0.7110
47569SOL    HW151485   7.307  10.363   3.444 -0.1266  0.5675  3.4612
47569SOL    HW251486   7.450  10.386   3.487  1.1129 -0.6743  0.3038
47570SOL     OW51487  11.222   0.912   6.246 -0.0817 -0.1579  0.2135
47570SOL    HW151488  11.242   0.895   6.154  0.4368  0.7082  0.1458
47570SOL    HW251489  11.260   0.999   6.262 -0.4090 -0.1835  1.1682
47571SOL     OW51490   7.720   1.681  11.233  0.0811 -0.1441 -1.0356
47571SOL    HW151491   7.638   1.680  11.282  0.4389 -1.3600 -0.4233
47571SOL    HW251492   7.696   1.713  11.146 -0.9182  0.1424 -0.6615
47572SOL     OW51493  10.438  10.997   4.164  0.2271  0.1156 -0.1163
47572SOL    HW151494  10.486  11.066   4.211  2.5932 -0.4957 -1.4975
47572SOL    HW251495  10.486  10.985   4.082 -0.9210 -2.2338 -0.5334
47573SOL     OW51496   7.524  12.444   4.255  0.3857  0.2441  0.3402
47573SOL    HW151497   7.494  12.354   4.263  1.5049 -0.0895  0.9122
47573SOL    HW251498   7.457  12.496   4.299 -0.3561 -0.2799 -0.1538
47574SOL     OW51499  12.049   6.193   7.947 -0.0492 -0.1603  0.6157
47574SOL    HW151500  11.974   6.249   7.968  1.6930  2.1128  1.1298
47574SOL    HW251501  12.049   6.186   7.852  0.3774  1.7867  0.4427
47575SOL     OW51502   6.507   7.642  11.530  0.1287  0.1913  0.2892
47575SOL    HW151503   6.513   7.732  11.499 -0.4909  1.8776  4.3771
47575SOL    HW251504   6.595   7.607  11.521  0.3254  1.0527 -1.6011
47576SOL     OW51505   5.034  11.097   4.660  0.0191  0.0764  0.3421
47576SOL    HW151506   5.052  11.173   4.716 -0.6797  1.6814 -1.5243
47576SOL    HW251507   4.943  11.106   4.634  0.9278  0.8761 -3.0928
47577SOL     OW51508   7.252  12.333   4.207 -0.7947  0.0720  0.0908
47577SOL    HW151509   7.217  12.278   4.278 -1.7846  0.4003 -0.1177
47577SOL    HW251510   7.229  12.287   4.127 -1.1001  0.4814 -0.0647
47578SOL     OW51511   8.131   4.532   8.941  0.4153  0.0776 -0.5052
47578SOL    HW151512   8.181   4.451   8.950 -0.0386 -0.0771  1.0363
47578SOL    HW251513   8.110   4.556   9.032 -1.5591  0.5976 -1.0640
47579SOL     OW51514  11.417   9.662   0.917 -0.4950  0.4370  0.4645
47579SOL    HW151515  11.490   9.656   0.856  1.2148  0.7505  2.3948
47579SOL    HW251516  11.379   9.748   0.902  0.8548  1.1125  0.8254
47580SOL     OW51517   8.928   6.502   7.944  0.3545  0.1692  0.7382
47580SOL    HW151518   8.932   6.597   7.954  3.3092  0.0221  1.8834
47580SOL    HW251519   8.972   6.468   8.021 -0.1278 -2.1517  0.0697
47581SOL     OW51520   9.777  10.953   0.486 -0.0444  0.2725  0.0660
47581SOL    HW151521   9.871  10.971   0.492  0.1074 -1.0109  2.8026
47581SOL    HW251522   9.760  10.887   0.553 -2.8399  0.0732 -0.7028
47582SOL     OW51523   0.373   3.520   3.126 -0.2038 -0.3329  0.2851
47582SOL    HW151524   0.455   3.569   3.129  1.1812 -2.5049  0.6745
47582SOL    HW251525   0.304   3.586   3.126  1.5445  1.6479 -2.0742
47583SOL     OW51526   6.775  10.528  12.311 -0.4267 -0.2610 -0.1216
47583SOL    HW151527   6.732  10.485  12.385  0.3523 -0.4901  0.2126
47583SOL    HW251528   6.704  10.569  12.262 -1.1674 -1.6194 -0.2405
47584SOL     OW51529  12.138   9.554   6.119  0.6989  0.4738 -0.3136
47584SOL    HW151530  12.150   9.647   6.103  0.1691  0.8788  1.4381
47584SOL    HW251531  12.078   9.549   6.193  0.3061 -1.2770 -0.6895
47585SOL     OW51532   3.315   6.124   5.386 -0.1326 -0.1997  0.3186
47585SOL    HW151533   3.257   6.170   5.325  0.3944 -1.0781 -0.8815
47585SOL    HW251534   3.348   6.050   5.336  1.1839 -0.3235  1.3337
47586SOL     OW51535   1.215   7.380   0.385  0.1697 -0.4129 -0.0490
47586SOL    HW151536   1.184   7.393   0.296  0.9259  0.9289 -0.1508
47586SOL    HW251537   1.308   7.360   0.375  0.4269  0.4742  0.4514
47587SOL     OW51538   2.986   9.960   9.126  0.1043 -0.2551 -0.4300
47587SOL    HW151539   2.897   9.961   9.089  0.0235  1.7672 -0.2675
47587SOL    HW251540   3.042   9.992   9.055  0.9135 -2.5599 -0.9046
47588SOL     OW51541   3.843  10.239   3.264 -0.0611 -0.1503 -0.2001
47588SOL    HW151542   3.830  10.198   3.178 -0.2214  0.0508 -0.2720
47588SOL    HW251543   3.896  10.316   3.246  0.5302 -0.5138 -0.0162
47589SOL     OW51544   7.487   6.188   7.657 -0.0232  0.0059  1.1891
47589SOL    HW151545   7.435   6.250   7.707  1.1537  0.6657  1.6440
47589SOL    HW251546   7.521   6.239   7.583  1.4400  0.1100  1.8870
47590SOL     OW51547  11.663   7.870   5.563 -0.2682  0.3906  0.1254
47590SOL    HW151548  11.572   7.873   5.594  0.1069 -0.9063  1.4833
47590SOL    HW251549  11.669   7.941   5.499 -1.8892  1.3133  0.9374
47591SOL     OW51550   3.090  10.688  10.069  0.2485 -0.6146  0.0388
47591SOL    HW151551   3.146  10.758  10.035 -0.6709 -0.2267 -0.7167
47591SOL    HW251552   3.060  10.720  10.154  0.5248 -0.4777  0.0868
47592SOL     OW51553   6.711   4.324   8.157 -0.1256 -0.0293 -0.5012
47592SOL    HW151554   6.667   4.311   8.241 -1.0041  0.9656 -0.7868
47592SOL    HW251555   6.735   4.236   8.128 -1.3536 -0.5449 -0.0136
47593SOL     OW51556  12.594   5.104   5.905  0.0514 -0.8292 -0.0211
47593SOL    HW151557  12.572   5.181   5.853 -0.6052 -0.3939  0.8692
47593SOL    HW251558  12.572   5.030   5.849  3.0634 -0.4646 -1.9268
47594SOL     OW51559   5.549   6.486  10.637 -0.8193  0.8241  0.0346
47594SOL    HW151560   5.522   6.492  10.545 -2.6538 -0.7001  0.3980
47594SOL    HW251561   5.517   6.567  10.677 -2.8827  0.1325 -0.0736
47595SOL     OW51562   8.513   5.732   4.704  0.7872  0.2123  0.3946
47595SOL    HW151563   8.538   5.768   4.620 -0.6610  0.2455 -0.0531
47595SOL    HW251564   8.522   5.805   4.765  2.0849  0.1176  0.3297
47596SOL     OW51565   9.201   6.370   2.840  0.8678 -0.0991 -0.1326
47596SOL    HW151566   9.213   6.275   2.834  0.0104 -0.1551 -5.1946
47596SOL    HW251567   9.107   6.383   2.827  0.7076  1.5096  2.0447
47597SOL     OW51568   4.996   6.396   1.337 -0.0572  0.4316 -0.1367
47597SOL    HW151569   5.075   6.360   1.377 -0.1369  0.1069 -0.2660
47597SOL    HW251570   4.942   6.319   1.318 -0.1270  0.5981 -0.6340
47598SOL     OW51571   2.297   7.928   3.844  0.2085 -0.2468 -0.1328
47598SOL    HW151572   2.329   7.865   3.779  0.8433  0.0503 -0.1127
47598SOL    HW251573   2.317   7.887   3.929  2.2401  0.7383 -0.0867
47599SOL     OW51574  11.356   5.868   9.567  0.5134 -0.8276  0.1018
47599SOL    HW151575  11.438   5.917   9.556  0.0484 -0.6732 -4.7073
47599SOL    HW251576  11.379   5.778   9.546 -0.0500 -1.3652  1.6907
47600SOL     OW51577   9.666   0.635   4.475  0.6835  0.1936 -0.2866
47600SOL    HW151578   9.679   0.558   4.420  1.6680 -0.1135  0.3626
47600SOL    HW251579   9.754   0.657   4.507  0.7405  2.6074 -1.8303
47601SOL     OW51580   9.623   4.939   7.936 -0.2253  0.3502 -0.0510
47601SOL    HW151581   9.636   4.877   7.863 -2.3603 -0.6026  0.2929
47601SOL    HW251582   9.555   4.999   7.904 -3.5352 -1.9169  2.0401
47602SOL     OW51583   2.596   6.561   2.429 -0.4744  0.3900 -0.1175
47602SOL    HW151584   2.522   6.511   2.392 -0.3034  0.1971 -0.2024
47602SOL    HW251585   2.670   6.539   2.373 -0.3336  0.5214  0.0165
47603SOL     OW51586   4.020   3.625   0.599  0.2308  0.2044 -0.6248
47603SOL    HW151587   4.110   3.619   0.630  0.1316  0.3398 -0.3055
47603SOL    HW251588   3.999   3.718   0.604 -0.7078 -0.0679  1.5957
47604SOL     OW51589   0.148   3.734  11.691 -0.1563 -0.0749 -0.0563
47604SOL    HW151590   0.060   3.750  11.658 -0.3500 -0.7363  0.1239
47604SOL    HW251591   0.163   3.641  11.675 -0.3971 -0.5262  2.0315
47605SOL     OW51592   6.269   9.496   6.143  0.5025  0.4802  0.3040
47605SOL    HW151593   6.355   9.513   6.182 -0.0864  0.3243  1.7256
47605SOL    HW251594   6.238   9.416   6.186  1.3583 -1.9266 -3.1319
47606SOL     OW51595  11.397   2.646   0.080  0.6758 -0.2851 -0.1873
47606SOL    HW151596  11.400   2.606   0.167 -1.1860  0.2568  0.1661
47606SOL    HW251597  11.460   2.718   0.084 -0.4505  0.6785  1.2399
47607SOL     OW51598   7.767  11.585   2.097 -0.2486  0.1465  0.1843
47607SOL    HW151599   7.689  11.635   2.119  0.6336  1.4821  0.3784
47607SOL    HW251600   7.747  11.546   2.012 -0.5602  1.7643 -0.5246
47608SOL     OW51601   7.300  10.485   7.960  0.1910  0.3598  0.3121
47608SOL    HW151602   7.254  10.472   7.877  1.6043  2.0368 -0.8116
47608SOL    HW251603   7.364  10.414   7.964  0.4711  0.5750 -0.2958
47609SOL     OW51604   6.670   0.509   7.340 -0.4332  0.2764 -0.4280
47609SOL    HW151605   6.733   0.509   7.412 -1.2380  0.1356  0.2937
47609SOL    HW251606   6.702   0.576   7.280 -0.0549  0.7980  0.3423
47610SOL     OW51607   0.690   8.514   5.712 -0.6326 -0.2694  0.3095
47610SOL    HW151608   0.624   8.481   5.650  2.0628  0.4511 -3.2592
47610SOL    HW251609   0.705   8.605   5.685  1.9555 -0.4820  0.8316
47611SOL     OW51610   0.317   1.357   3.551 -0.3568  0.2052  1.2234
47611SOL    HW151611   0.222   1.358   3.557 -0.4039 -0.9989  0.9532
47611SOL    HW251612   0.346   1.363   3.642 -0.7036 -0.0158  1.3510
47612SOL     OW51613   2.355   4.647   2.582 -0.6204 -0.3391 -0.5202
47612SOL    HW151614   2.318   4.624   2.668  2.0400  0.1336  0.8537
47612SOL    HW251615   2.335   4.740   2.572  0.3985 -0.0045  0.3646
47613SOL     OW51616   8.662   8.752   6.326 -0.7749 -0.1625  0.5102
47613SOL    HW151617   8.727   8.782   6.390 -1.7427  0.5148  1.1938
47613SOL    HW251618   8.584   8.734   6.377 -1.0363 -1.3339 -0.2559
47614SOL     OW51619   9.057   3.102   6.319  0.1041 -0.3912  0.5597
47614SOL    HW151620   9.026   3.185   6.354  0.2553  0.2263 -0.7181
47614SOL    HW251621   9.086   3.052   6.396  2.3267  1.6781  1.2003
47615SOL     OW51622  12.394   0.940   3.218 -0.1597  0.1114 -0.0921
47615SOL    HW151623  12.345   0.859   3.231  1.3626 -1.0034 -1.0368
47615SOL    HW251624  12.345   0.987   3.151 -1.9243  0.7757  1.5495
47616SOL     OW51625   1.184   2.492   7.847 -0.3775  0.3808  0.1714
47616SOL    HW151626   1.193   2.584   7.821 -0.7679  0.8733  1.6672
47616SOL    HW251627   1.099   2.465   7.811 -1.5532  1.4593  1.9746
47617SOL     OW51628  12.448   7.410   5.342  0.2509  0.3415 -0.0807
47617SOL    HW151629  12.441   7.399   5.247  0.1504  0.9385 -0.1431
47617SOL    HW251630  12.539   7.387   5.361  0.0849 -0.4598 -0.2247
47618SOL     OW51631  10.727   5.643   4.945  0.0970 -0.3120 -0.5279
47618SOL    HW151632  10.747   5.632   5.037 -0.8743  1.9888  0.0274
47618SOL    HW251633  10.806   5.680   4.906  0.0943 -0.1170 -0.3473
47619SOL     OW51634   5.276   9.339   3.088  0.2526  0.1973  0.3332
47619SOL    HW151635   5.272   9.298   3.001  1.9393 -0.8594  0.7148
47619SOL    HW251636   5.320   9.422   3.072  0.0941  0.2410  0.1095
47620SOL     OW51637   2.481   3.209   6.314  0.2864  0.1912  0.1666
47620SOL    HW151638   2.437   3.291   6.338 -2.7289 -1.5058  1.0061
47620SOL    HW251639   2.443   3.187   6.228  2.1376  0.3236 -0.7246
47621SOL     OW51640   5.041   9.210   0.908  0.1283  0.1336 -0.1406
47621SOL    HW151641   5.068   9.156   0.835  0.7146 -2.6663  1.9896
47621SOL    HW251642   4.968   9.262   0.874 -0.0793 -1.5419 -2.4906
47622SOL     OW51643   2.479   3.422  10.442  0.5848 -0.5031  0.3504
47622SOL    HW151644   2.544   3.458  10.382  1.0810 -0.2951  0.9981
47622SOL    HW251645   2.529   3.367  10.502  0.0305 -1.1041  0.2758
47623SOL     OW51646   6.497   2.179   3.967  0.3393  0.4733  0.0117
47623SOL    HW151647   6.482   2.086   3.951 -0.4865  0.6076 -0.0325
47623SOL    HW251648   6.590   2.184   3.991  1.0662 -0.0458 -2.4053
47624SOL     OW51649  11.357   2.911   5.166 -0.1693  0.1705  0.5225
47624SOL    HW151650  11.355   2.952   5.079  0.5102  0.3322  0.5750
47624SOL    HW251651  11.362   2.817   5.148  1.0641  0.2544  0.3672
47625SOL     OW51652   7.508   1.789   7.334  0.0399 -0.5090  0.0890
47625SOL    HW151653   7.595   1.748   7.329 -0.8899 -2.5477 -0.1574
47625SOL    HW251654   7.450   1.719   7.362 -1.3788  1.1137  1.4109
47626SOL     OW51655   5.243   1.514   8.952 -0.4897 -0.4761 -0.5943
47626SOL    HW151656   5.149   1.524   8.968 -0.2939 -0.6374  0.7296
47626SOL    HW251657   5.278   1.478   9.033  0.9698  1.0790 -0.4673
47627SOL     OW51658   7.068   7.074   4.454 -0.4578  0.8546 -0.1379
47627SOL    HW151659   7.100   7.002   4.507  0.7412  1.6806  0.3173
47627SOL    HW251660   7.072   7.150   4.512  0.6085  1.7229 -1.2860
47628SOL     OW51661  11.133  11.767   4.182 -0.2949  0.2453 -0.0421
47628SOL    HW151662  11.160  11.852   4.214 -0.4782  0.5473 -0.6664
47628SOL    HW251663  11.043  11.779   4.154 -0.2298 -0.0752 -0.4022
47629SOL     OW51664   9.963   1.121   3.389 -0.0563 -0.3350 -0.0609
47629SOL    HW151665  10.016   1.111   3.469  0.3756 -0.6623 -0.3813
47629SOL    HW251666   9.972   1.213   3.366  0.1501 -0.3266  0.0437
47630SOL     OW51667  12.511   9.633   5.555  0.5091  0.3536  0.2042
47630SOL    HW151668  12.546   9.549   5.528 -0.1436  0.0029  0.4369
47630SOL    HW251669  12.440   9.612   5.616 -0.5041  1.0174 -0.7006
47631SOL     OW51670   8.827   0.494   1.619  0.1925  0.0044  0.1624
47631SOL    HW151671   8.908   0.499   1.671  0.7326 -0.5970 -0.6023
47631SOL    HW251672   8.785   0.413   1.649 -0.7262  0.8811  1.3741
47632SOL     OW51673  11.280  10.543  10.802 -0.2294  0.4658  0.1615
47632SOL    HW151674  11.240  10.619  10.844 -2.4844  0.2965 -1.5225
47632SOL    HW251675  11.296  10.571  10.712  1.4940 -0.2125  0.2189
47633SOL     OW51676   0.287   0.711  12.050  0.3220 -0.2321  0.1297
47633SOL    HW151677   0.375   0.678  12.030  0.3083  0.0406 -0.4077
47633SOL    HW251678   0.231   0.634  12.045  0.2296 -0.1043 -1.4876
47634SOL     OW51679   7.222   5.056  12.568 -0.2300 -0.2753 -0.2665
47634SOL    HW151680   7.264   5.076  12.484 -1.7116  1.5596 -0.6479
47634SOL    HW251681   7.129   5.075  12.553 -1.1895 -3.6199  0.7004
47635SOL     OW51682  10.188   5.386  11.795  0.2899  0.1221 -0.5442
47635SOL    HW151683  10.168   5.473  11.829 -0.5226  0.0791 -0.8636
47635SOL    HW251684  10.254   5.350  11.854 -0.7828  0.2028  0.7483
47636SOL     OW51685   4.362  10.342  10.478  0.1239  1.0370  0.8755
47636SOL    HW151686   4.453  10.313  10.469 -0.0991  0.6342 -0.2389
47636SOL    HW251687   4.315  10.264  10.508  0.4355  1.7330  3.3896
47637SOL     OW51688  11.693   4.691   0.089 -0.3881  0.2140  0.0310
47637SOL    HW151689  11.616   4.707   0.144  0.2116 -0.1201  0.9979
47637SOL    HW251690  11.673   4.610   0.042 -0.0914 -0.6587  1.3379
47638SOL     OW51691   2.521   0.217   0.332 -0.6805  0.0706  0.2825
47638SOL    HW151692   2.457   0.203   0.262  1.3059 -1.4314 -1.3446
47638SOL    HW251693   2.581   0.282   0.296  0.4946 -0.8889  0.4625
47639SOL     OW51694   8.874  11.932   3.972 -0.0142  0.0923  0.0932
47639SOL    HW151695   8.945  11.991   3.950  0.2228  0.8350  2.5352
47639SOL    HW251696   8.795  11.978   3.943  0.1804  1.5887  1.7885
47640SOL     OW51697   6.786   7.334   6.607 -0.2267  0.3855  0.2036
47640SOL    HW151698   6.793   7.260   6.548 -0.3933  0.8272 -0.3763
47640SOL    HW251699   6.702   7.375   6.585 -0.8346 -0.0923  1.5065
47641SOL     OW51700   1.927   2.658   8.604 -0.2402 -0.1458 -0.3121
47641SOL    HW151701   1.896   2.743   8.574 -1.0685 -1.3618 -3.3642
47641SOL    HW251702   2.010   2.645   8.558 -1.4654 -2.0357 -2.1851
47642SOL     OW51703  12.077   0.122   7.586  0.6072  0.6991  0.0268
47642SOL    HW151704  12.016   0.053   7.611 -0.4102  0.9810 -1.5575
47642SOL    HW251705  12.118   0.091   7.505  2.9564  0.3189  1.2586
47643SOL     OW51706  10.790  10.026   3.673  0.6859 -0.2590  0.0425
47643SOL    HW151707  10.875  10.026   3.630 -0.2005 -0.1382 -1.7849
47643SOL    HW251708  10.779   9.936   3.706  0.8436 -0.7227 -1.1346
47644SOL     OW51709   9.112   5.409   5.591 -0.1593 -0.1256  0.3958
47644SOL    HW151710   9.083   5.500   5.603 -1.7498 -0.8188  2.5453
47644SOL    HW251711   9.055   5.375   5.522  1.0348  0.6843 -1.0580
47645SOL     OW51712  12.534   1.908   9.780  0.3618 -0.7061  0.2736
47645SOL    HW151713  12.576   1.994   9.778  0.6534 -0.8506 -1.1167
47645SOL    HW251714  12.530   1.881   9.688 -1.0510 -1.5399  0.5399
47646SOL     OW51715   3.168   1.091  12.498  0.1541  0.1151 -0.8902
47646SOL    HW151716   3.170   1.128  12.586 -1.5065  0.3570 -0.9265
47646SOL    HW251717   3.253   1.047  12.489  1.4594  2.2859 -0.1474
47647SOL     OW51718   2.363   7.129   5.902 -0.1694 -0.4502 -0.4939
47647SOL    HW151719   2.402   7.045   5.926 -0.0621 -0.0551  0.8183
47647SOL    HW251720   2.419   7.194   5.945 -1.2188  0.2161 -0.0952
47648SOL     OW51721   2.704   1.718   2.553 -0.0671  0.1500 -0.4095
47648SOL    HW151722   2.784   1.730   2.603 -1.1505 -0.6512  1.6163
47648SOL    HW251723   2.699   1.624   2.537 -0.5068  0.2209 -0.7154
47649SOL     OW51724   4.956   5.999   8.460 -0.2961  0.9284  0.0197
47649SOL    HW151725   4.980   6.006   8.368 -0.1562  0.8617  0.0516
47649SOL    HW251726   5.036   6.020   8.508 -0.4242  1.1854  0.1294
47650SOL     OW51727   9.725  10.017   2.649  0.2294 -0.5089 -0.4152
47650SOL    HW151728   9.780   9.976   2.582  0.8634 -1.4225  0.6343
47650SOL    HW251729   9.667   9.947   2.679 -0.0349 -0.1207 -0.0006
47651SOL     OW51730   1.968   7.685   4.485  0.7739 -0.1811 -0.3682
47651SOL    HW151731   1.982   7.689   4.391 -1.8417 -2.3598 -1.0092
47651SOL    HW251732   1.874   7.698   4.495  1.1415  1.0272  2.0754
47652SOL     OW51733   3.864   6.684   2.215 -0.0531 -0.2590  0.1171
47652SOL    HW151734   3.801   6.714   2.280 -1.1902 -1.7567 -0.2491
47652SOL    HW251735   3.814   6.679   2.134  1.2505  1.2197 -0.8310
47653SOL     OW51736   5.168   0.049   2.517 -0.4522 -0.3590 -0.0999
47653SOL    HW151737   5.223   0.021   2.590 -0.5256 -0.2961 -0.0205
47653SOL    HW251738   5.139  -0.032   2.477 -0.4881 -0.3940 -0.0025
47654SOL     OW51739  10.044   7.112  11.574  0.0058 -0.0260 -0.3486
47654SOL    HW151740  10.068   7.117  11.666  1.2566 -0.2525 -0.6444
47654SOL    HW251741   9.949   7.125  11.573 -0.1448 -0.8535  1.0398
47655SOL     OW51742   1.187  11.082   6.530 -1.2162 -0.0010 -0.0258
47655SOL    HW151743   1.271  11.090   6.574 -0.7047 -0.1524 -0.9453
47655SOL    HW251744   1.135  11.024   6.587 -0.7333  0.1598  0.5834
47656SOL     OW51745   6.210   0.690   5.985  0.4855  0.6510  0.2601
47656SOL    HW151746   6.181   0.619   5.928  0.4983  0.4953  0.4458
47656SOL    HW251747   6.255   0.751   5.926 -1.4420  1.6130 -0.2825
47657SOL     OW51748   9.422   2.088   5.721 -0.1132 -0.3275 -0.0211
47657SOL    HW151749   9.424   2.043   5.637 -1.4756 -1.7479  0.6617
47657SOL    HW251750   9.344   2.144   5.716  0.4749  0.5029 -0.1298
47658SOL     OW51751   7.702   0.443   7.294 -0.1760  0.3728  0.2032
47658SOL    HW151752   7.684   0.531   7.326  0.7898  0.5667  0.2593
47658SOL    HW251753   7.720   0.392   7.373  0.7174  0.4896  0.0878
47659SOL     OW51754  12.240   3.857   6.459  0.1641  0.1840 -0.0221
47659SOL    HW151755  12.147   3.882   6.463  0.3798  0.9021  0.7260
47659SOL    HW251756  12.255   3.808   6.540  0.1802 -0.9248 -0.6644
47660SOL     OW51757  10.222   3.392   1.535 -0.7252 -0.4911 -0.5765
47660SOL    HW151758  10.212   3.405   1.630 -1.6133 -1.0119 -0.5930
47660SOL    HW251759  10.215   3.298   1.523 -1.0767 -0.3857 -1.2190
47661SOL     OW51760   2.037   0.852   2.351 -0.9908 -0.5146  0.3765
47661SOL    HW151761   2.001   0.933   2.317  1.9813  0.5604 -0.5016
47661SOL    HW251762   2.121   0.843   2.307  0.8777 -1.6397  3.8593
47662SOL     OW51763   3.021   8.156   0.043  0.5196 -0.5663 -0.0024
47662SOL    HW151764   2.973   8.197   0.115  1.8797 -0.7778  1.0745
47662SOL    HW251765   2.955   8.110  -0.008 -0.4496 -0.6063  1.2601
47663SOL     OW51766  10.217   2.329   6.439 -0.5864  0.6294 -0.1716
47663SOL    HW151767  10.233   2.351   6.347  1.1994 -0.5620 -0.1913
47663SOL    HW251768  10.274   2.387   6.488 -0.8796  0.6584  0.1369
47664SOL     OW51769   7.439  12.166   3.086  0.2021  0.0196 -0.0805
47664SOL    HW151770   7.371  12.156   3.019  0.7178 -1.5701 -0.4189
47664SOL    HW251771   7.516  12.123   3.048  0.9289  0.3739  0.9556
47665SOL     OW51772   5.892  11.178   5.153  0.7628 -0.5878 -0.3608
47665SOL    HW151773   5.972  11.227   5.136 -1.0399  2.7345 -0.1266
47665SOL    HW251774   5.881  11.183   5.248 -0.9136  1.2879 -0.5736
47666SOL     OW51775   3.760   0.150  12.071 -0.5589  0.0738  0.4246
47666SOL    HW151776   3.710   0.225  12.036  0.3619  0.8214  0.6804
47666SOL    HW251777   3.794   0.181  12.155  1.2070 -0.0552 -0.2177
47667SOL     OW51778   2.358   2.309  11.139 -0.0135  0.2271 -0.4202
47667SOL    HW151779   2.319   2.239  11.088 -0.1043 -0.1209  0.1203
47667SOL    HW251780   2.452   2.295  11.132  0.0906  1.4689 -2.2944
47668SOL     OW51781   3.211   5.025   5.186  0.4258  0.0538  0.8091
47668SOL    HW151782   3.153   4.980   5.247  0.8341  0.9513  1.8955
47668SOL    HW251783   3.294   4.977   5.193  0.1918 -0.4619  0.1850
47669SOL     OW51784   1.400   5.289   6.605  0.2039  0.3216 -0.1307
47669SOL    HW151785   1.319   5.336   6.627  0.9973  1.6042  0.1644
47669SOL    HW251786   1.469   5.339   6.649  1.1538 -0.8178 -0.2796
47670SOL     OW51787   8.174   6.911  11.597  0.3368 -0.2276 -0.2263
47670SOL    HW151788   8.129   6.850  11.539  0.3344 -0.7551  0.3240
47670SOL    HW251789   8.260   6.872  11.610  0.3878 -0.0388  0.0070
47671SOL     OW51790   7.839   6.007  10.749 -0.0303  0.2865  0.1463
47671SOL    HW151791   7.765   5.956  10.782  0.7214 -0.4007  0.8239
47671SOL    HW251792   7.808   6.097  10.749 -1.4198 -0.1441 -1.1658
47672SOL     OW51793  10.516   5.312   7.148 -0.0116 -0.2207  0.2343
47672SOL    HW151794  10.535   5.306   7.242  0.0698 -1.2243  0.1568
47672SOL    HW251795  10.573   5.247   7.107 -0.3821 -0.1152 -0.4637
47673SOL     OW51796   4.987  11.598  11.928  0.4610 -0.6005 -0.0555
47673SOL    HW151797   4.894  11.618  11.934  0.4502  0.2232 -2.0414
47673SOL    HW251798   5.014  11.577  12.017 -0.7939  2.8109  1.2800
47674SOL     OW51799   9.155   4.738   4.390 -0.0450  0.1874  0.0898
47674SOL    HW151800   9.130   4.652   4.359  1.1694 -0.1807  0.0857
47674SOL    HW251801   9.241   4.754   4.351 -0.4600  1.6123 -0.3115
47675SOL     OW51802   3.243   3.687   3.843  0.1706  0.8595 -0.4147
47675SOL    HW151803   3.179   3.621   3.869  1.2263 -0.8520 -1.9316
47675SOL    HW251804   3.192   3.752   3.794 -0.6449  0.4161 -0.1680
47676SOL     OW51805   4.699   9.143  11.185 -0.2397 -0.6553 -0.2776
47676SOL    HW151806   4.773   9.196  11.214 -0.9513  0.1418  0.1309
47676SOL    HW251807   4.644   9.136  11.263 -1.2490 -0.1003 -0.9272
47677SOL     OW51808   6.551   3.398   4.939  0.0937  0.1226  0.0573
47677SOL    HW151809   6.596   3.346   5.007 -0.9271 -0.8824 -0.0008
47677SOL    HW251810   6.580   3.360   4.857  0.7402  0.8467 -0.0603
47678SOL     OW51811   1.991   4.475  11.829 -0.0136 -0.0000  0.4355
47678SOL    HW151812   1.962   4.541  11.766  0.7768  1.0701  1.1577
47678SOL    HW251813   2.082   4.497  11.847 -0.6342  0.7354  3.1570
47679SOL     OW51814   8.409   8.890  10.977 -0.1504 -0.0620 -0.0515
47679SOL    HW151815   8.350   8.926  10.911  0.2072  1.7970  0.5704
47679SOL    HW251816   8.496   8.921  10.950  0.2793 -1.0655  0.1472
47680SOL     OW51817   5.047  11.121  12.540  0.2177 -0.8051  0.0865
47680SOL    HW151818   4.963  11.133  12.585 -0.0000 -2.8581  0.3185
47680SOL    HW251819   5.023  11.090  12.453  0.7198  0.5414 -0.5559
47681SOL     OW51820   3.358   5.469   3.879  0.2757  0.3119  0.0025
47681SOL    HW151821   3.389   5.399   3.936 -2.2406 -0.8004  0.1207
47681SOL    HW251822   3.348   5.428   3.793  0.2301  0.9370 -0.2977
47682SOL     OW51823   0.822   8.299   3.729 -0.0794 -0.6025 -0.2374
47682SOL    HW151824   0.765   8.295   3.652  0.6248 -0.6069 -0.7751
47682SOL    HW251825   0.820   8.210   3.765  1.0011 -1.0934 -1.3240
47683SOL     OW51826   8.109   6.830   0.011 -0.1942  0.0410 -0.4118
47683SOL    HW151827   8.037   6.783   0.054 -1.8002  2.4945 -0.2641
47683SOL    HW251828   8.187   6.800   0.057 -0.9852 -2.9875 -0.8025
47684SOL     OW51829   1.760   6.730   1.884 -0.1261  0.5124  0.3731
47684SOL    HW151830   1.828   6.779   1.929  0.1876  0.5902 -0.1778
47684SOL    HW251831   1.772   6.750   1.792 -2.3204  2.3543  0.4012
47685SOL     OW51832   3.348  12.291   7.564 -0.0086 -0.3532  0.3816
47685SOL    HW151833   3.283  12.223   7.581 -2.0380  0.9192 -1.7027
47685SOL    HW251834   3.423  12.245   7.528 -0.7289 -1.6168  0.4324
47686SOL     OW51835   4.023   5.352   2.167  0.3423 -0.0604  0.0578
47686SOL    HW151836   4.020   5.260   2.193 -0.8808 -0.3210 -0.8832
47686SOL    HW251837   4.034   5.350   2.072  0.2378  0.7616  0.0173
47687SOL     OW51838   3.911  10.605  10.060 -0.3891  0.5952 -0.8095
47687SOL    HW151839   3.963  10.539  10.106 -1.3855  0.8203  0.7139
47687SOL    HW251840   3.960  10.687  10.074  1.0724  0.1906 -3.0589
47688SOL     OW51841   8.023   7.803  10.741  0.3807 -0.4635 -0.0792
47688SOL    HW151842   8.028   7.884  10.791  0.5613  0.1497 -1.0830
47688SOL    HW251843   7.969   7.745  10.796  2.6484 -0.7314  2.0578
47689SOL     OW51844   9.158   7.681   4.591 -0.2234 -0.1222  0.6206
47689SOL    HW151845   9.138   7.684   4.685  1.6800 -0.3172  1.0712
47689SOL    HW251846   9.169   7.773   4.567 -0.9852 -0.0514  0.4947
47690SOL     OW51847   0.680   0.551   0.815  0.3316  0.2279  0.8622
47690SOL    HW151848   0.757   0.500   0.840  0.8803  0.0725 -0.9892
47690SOL    HW251849   0.606   0.493   0.834  0.8784 -0.8377 -0.0893
47691SOL     OW51850   0.310   7.891   6.594  0.0228 -0.3636 -0.2538
47691SOL    HW151851   0.358   7.921   6.516 -0.9301  0.1629 -0.6484
47691SOL    HW251852   0.272   7.971   6.630 -0.2499 -0.7255  0.2672
47692SOL     OW51853  11.941  12.593   4.093  0.3010  0.3551 -0.1411
47692SOL    HW151854  11.992  12.669   4.122  0.2588 -0.2335  1.5909
47692SOL    HW251855  11.890  12.568   4.170  0.3678 -1.4735 -0.6565
47693SOL     OW51856   2.353   4.903   3.971  0.2794  0.2141 -0.1659
47693SOL    HW151857   2.285   4.902   3.904  1.0301 -1.5818 -0.9931
47693SOL    HW251858   2.429   4.941   3.928 -0.0348  1.7640  0.6030
47694SOL     OW51859   5.929   6.011   9.397 -0.0306 -0.5470  0.2164
47694SOL    HW151860   5.947   6.104   9.414 -3.1212 -0.1263  1.9448
47694SOL    HW251861   5.945   5.968   9.481  1.8107 -1.7690 -0.6805
47695SOL     OW51862   2.230   4.113   6.587  0.2586  0.5264  0.6350
47695SOL    HW151863   2.231   4.171   6.663 -0.2410 -0.7533  1.6321
47695SOL    HW251864   2.316   4.072   6.587  0.2460  0.4984  0.5149
47696SOL     OW51865   2.591  10.376  10.607  0.0198 -0.1871  0.0268
47696SOL    HW151866   2.548  10.460  10.617  0.6027 -0.0103  1.2535
47696SOL    HW251867   2.544  10.333  10.534  0.6402  1.7330 -1.5788
47697SOL     OW51868   5.637   2.588   7.286 -0.0541 -0.0951 -0.5987
47697SOL    HW151869   5.553   2.628   7.263  0.2919  1.0078 -0.0387
47697SOL    HW251870   5.702   2.646   7.246  0.4576 -0.3344 -0.1170
47698SOL     OW51871  12.429  11.843   9.865  0.0251 -0.3452  0.6690
47698SOL    HW151872  12.398  11.891   9.942 -0.1315 -0.0030  0.3959
47698SOL    HW251873  12.441  11.753   9.897  1.3605  0.0838  1.4525
47699SOL     OW51874   2.588   8.325  10.708 -0.0177  0.0598  0.2470
47699SOL    HW151875   2.644   8.401  10.693 -2.4631  2.0251  0.4886
47699SOL    HW251876   2.601   8.303  10.800  1.3388 -0.3970 -0.0345
47700SOL     OW51877   3.370  11.095   0.952  0.3332  0.7955 -0.3732
47700SOL    HW151878   3.419  11.084   0.871  2.6529  2.1799  0.7298
47700SOL    HW251879   3.419  11.045   1.017 -2.2533 -1.4507  0.0075
47701SOL     OW51880   7.947   3.930   1.808  0.5113 -0.1534 -0.2499
47701SOL    HW151881   7.861   3.941   1.848 -0.5658 -3.2975 -1.3974
47701SOL    HW251882   7.992   4.014   1.823 -2.0798  0.9905  1.8801
47702SOL     OW51883   0.151   9.338  12.393  0.1144 -0.1911 -0.0297
47702SOL    HW151884   0.218   9.338  12.460  0.8205  0.3964 -0.7170
47702SOL    HW251885   0.191   9.292  12.319  0.2502  1.2353 -0.8876
47703SOL     OW51886   3.783   4.163   6.073 -0.2786  0.1898 -0.3511
47703SOL    HW151887   3.710   4.202   6.023 -0.4089 -3.1623 -3.1182
47703SOL    HW251888   3.743   4.093   6.123  0.7516 -0.4748 -0.4304
47704SOL     OW51889   8.489   7.281   3.405 -0.6010  0.4634  0.7528
47704SOL    HW151890   8.458   7.284   3.314 -0.7837  0.4451  0.8135
47704SOL    HW251891   8.534   7.197   3.413  1.3869  1.3789  0.0451
47705SOL     OW51892   2.775   8.638   2.226  0.3438  0.1180  0.7527
47705SOL    HW151893   2.762   8.566   2.287 -0.4000 -0.5842 -0.1986
47705SOL    HW251894   2.693   8.687   2.228  0.0588 -0.2930 -0.1402
47706SOL     OW51895   6.053  10.974   3.780 -0.8193 -0.1365  0.2748
47706SOL    HW151896   6.042  10.997   3.872  2.4407 -0.2946  0.8366
47706SOL    HW251897   6.076  11.057   3.737 -1.4838 -0.2125 -0.2407
47707SOL     OW51898  10.920   2.755   6.185 -0.4029  0.3080 -0.2172
47707SOL    HW151899  10.990   2.739   6.121 -0.9944  0.3929 -0.8901
47707SOL    HW251900  10.873   2.830   6.150 -1.5975 -0.5134 -0.4024
47708SOL     OW51901  11.643   0.091   8.039 -0.3322 -0.3830  0.1406
47708SOL    HW151902  11.600   0.148   8.102  0.4771  0.9302 -0.4624
47708SOL    HW251903  11.658   0.146   7.963 -0.4256 -1.6820 -0.8519
47709SOL     OW51904  10.905   1.061   1.297 -0.3694 -0.1618  0.0301
47709SOL    HW151905  10.878   0.980   1.340 -0.1707 -0.5667 -0.5971
47709SOL    HW251906  10.896   1.128   1.365  1.9871 -1.0986  1.3897
47710SOL     OW51907   7.121   6.113   7.209 -0.3584 -0.1703 -1.1215
47710SOL    HW151908   7.211   6.080   7.217 -0.7128 -0.7846  1.4022
47710SOL    HW251909   7.131   6.208   7.200  0.6123  0.2145  2.4513
47711SOL     OW51910   8.934  12.288   7.214  0.1534  0.1577 -0.0359
47711SOL    HW151911   8.949  12.334   7.297 -0.5977  1.7121 -0.7021
47711SOL    HW251912   8.852  12.242   7.227  0.4014 -0.1915  0.3151
47712SOL     OW51913   7.543   1.887   0.936  0.2794 -0.0391 -0.1310
47712SOL    HW151914   7.455   1.862   0.909  0.2110 -0.4878  0.4843
47712SOL    HW251915   7.539   1.982   0.944  0.0630  0.0168 -0.8318
47713SOL     OW51916   2.046   9.999   1.181  0.5654 -0.3496  0.4124
47713SOL    HW151917   2.045   9.919   1.232 -1.6609 -1.0743 -0.6325
47713SOL    HW251918   2.026   9.971   1.092  0.6382  1.2755 -0.1590
47714SOL     OW51919   4.267   1.726   7.938 -0.3682 -0.0356  0.7486
47714SOL    HW151920   4.209   1.799   7.960  0.5660  0.8115  0.4748
47714SOL    HW251921   4.352   1.767   7.920 -0.1864 -1.0427 -0.9031
47715SOL     OW51922   8.108   4.493   7.918  0.6710 -0.6684 -0.4395
47715SOL    HW151923   8.194   4.532   7.933  0.7028 -0.8668 -0.0649
47715SOL    HW251924   8.108   4.415   7.975 -1.2418  1.4541  2.7982
47716SOL     OW51925  10.223  10.733   2.187  0.2454 -0.1846  0.2912
47716SOL    HW151926  10.287  10.802   2.173  0.7024 -0.9292 -1.5857
47716SOL    HW251927  10.142  10.779   2.211  0.2747  1.1024 -1.8556
47717SOL     OW51928   9.080  10.556   1.789 -0.0863 -0.2729  0.4831
47717SOL    HW151929   9.097  10.621   1.721  0.5707 -1.2753 -0.3559
47717SOL    HW251930   9.163  10.509   1.798 -1.0851 -2.4052 -0.5256
47718SOL     OW51931  11.711   7.027  10.756  0.3656 -0.2111  0.1695
47718SOL    HW151932  11.780   7.038  10.690 -0.9714  0.3169 -1.2113
47718SOL    HW251933  11.711   7.109  10.805  0.3564  0.0095 -0.1972
47719SOL     OW51934   1.696   5.182  10.393  0.3082 -0.4262  0.0606
47719SOL    HW151935   1.771   5.157  10.339  1.2788  0.6520  0.8558
47719SOL    HW251936   1.699   5.124  10.468  0.2836 -0.4551  0.0389
47720SOL     OW51937   6.765   7.725   9.691  0.0036  0.1911 -0.2142
47720SOL    HW151938   6.725   7.639   9.683 -0.6583  0.5204 -0.5025
47720SOL    HW251939   6.695   7.787   9.668 -0.0761  0.8999  1.6734
47721SOL     OW51940  12.530  10.651  11.706 -0.2907  0.4440  0.2463
47721SOL    HW151941  12.505  10.732  11.749  0.7951  0.9551 -0.0446
47721SOL    HW251942  12.618  10.668  11.672  0.5320 -1.2980  1.3668
47722SOL     OW51943   9.345   8.233  12.258 -0.0778  0.2738 -0.4330
47722SOL    HW151944   9.375   8.322  12.236  1.8221 -0.1759  0.1544
47722SOL    HW251945   9.385   8.178  12.191  1.0666 -0.4379  0.8002
47723SOL     OW51946  11.109   8.113  10.667  0.2505 -0.3657 -0.1506
47723SOL    HW151947  11.140   8.071  10.747 -1.9416 -1.0656  0.4135
47723SOL    HW251948  11.111   8.043  10.601  1.7004  0.1145 -0.6494
47724SOL     OW51949   7.378   3.574   2.104  0.2061  0.1094  0.6646
47724SOL    HW151950   7.394   3.543   2.015  0.0834  2.1830 -0.1162
47724SOL    HW251951   7.430   3.516   2.159 -0.4898 -1.8543 -0.6362
47725SOL     OW51952   5.179   0.542   3.787  0.2592  0.9825 -0.0029
47725SOL    HW151953   5.244   0.554   3.856  0.6220  1.4838 -0.4208
47725SOL    HW251954   5.111   0.488   3.827 -0.4907  2.8263  1.4047
47726SOL     OW51955   2.941   6.587  12.013  0.7188  0.1020  0.0077
47726SOL    HW151956   2.877   6.538  11.962 -0.1426 -0.0458  1.1876
47726SOL    HW251957   2.967   6.659  11.956 -2.1154  1.4178  0.2137
47727SOL     OW51958  11.338   8.802   5.751  0.6476 -0.0538  0.1549
47727SOL    HW151959  11.355   8.885   5.797 -1.0529  0.2226  0.3509
47727SOL    HW251960  11.310   8.828   5.664 -0.7205 -0.3680  0.4838
47728SOL     OW51961   8.208   2.349  11.593  0.0109 -0.0713 -0.4015
47728SOL    HW151962   8.275   2.305  11.540 -0.1079 -1.1908  0.3403
47728SOL    HW251963   8.189   2.288  11.664  0.2214  1.4318  1.0071
47729SOL     OW51964   3.950   1.094  12.250 -0.5664 -0.4329 -0.5237
47729SOL    HW151965   3.885   1.047  12.198  0.5514  0.8067 -3.1819
47729SOL    HW251966   3.901   1.166  12.291 -1.3536 -1.1233 -0.2017
47730SOL     OW51967   7.821   9.583   8.248 -0.0819 -0.1043 -0.0943
47730SOL    HW151968   7.776   9.499   8.239  0.1651 -0.1411 -1.1366
47730SOL    HW251969   7.774   9.628   8.318  1.0416 -1.9061  1.9870
47731SOL     OW51970   6.220   8.629   0.615 -0.8491 -0.1821 -1.0279
47731SOL    HW151971   6.215   8.635   0.520  1.3683 -0.8581 -1.2417
47731SOL    HW251972   6.162   8.699   0.646 -2.7265 -0.8643 -2.8105
47732SOL     OW51973   7.325   9.018   0.778  0.2951 -0.0198 -0.1099
47732SOL    HW151974   7.277   8.991   0.856  0.2688  1.5261  0.4578
47732SOL    HW251975   7.306   8.951   0.713 -0.9987 -0.5010  0.7232
47733SOL     OW51976   4.064   9.579   4.835 -0.0126  0.0668 -0.4073
47733SOL    HW151977   3.986   9.549   4.881  0.9832 -2.2484 -0.0602
47733SOL    HW251978   4.038   9.585   4.744 -0.3989 -1.5843 -0.4285
47734SOL     OW51979   0.667   0.572  12.359 -0.1334 -0.0984  0.2845
47734SOL    HW151980   0.676   0.482  12.328  0.3862 -0.7357  2.1626
47734SOL    HW251981   0.572   0.586  12.366 -0.2087 -0.7560  0.6495
47735SOL     OW51982   3.382  10.104   9.935 -0.3227  0.4529 -0.2461
47735SOL    HW151983   3.365  10.198   9.931 -0.8511  0.3370 -1.0345
47735SOL    HW251984   3.298  10.065   9.956 -0.7075 -0.0001 -2.3992
47736SOL     OW51985  10.139   6.964   0.045  0.4291  0.2565 -0.0616
47736SOL    HW151986  10.112   6.890   0.099 -1.7159  1.1154  0.1454
47736SOL    HW251987  10.170   6.925  -0.036 -0.2736 -0.9000  0.2040
47737SOL     OW51988   4.956   9.500   7.314  0.1888 -0.2345 -0.9521
47737SOL    HW151989   5.038   9.508   7.362  0.6441 -1.2185 -1.5138
47737SOL    HW251990   4.981   9.460   7.231 -0.8924 -0.7663 -1.0459
47738SOL     OW51991   8.614   3.380   6.917 -0.1508 -0.2669  0.4318
47738SOL    HW151992   8.528   3.407   6.951  0.0643  0.6572  0.2773
47738SOL    HW251993   8.631   3.440   6.844  0.1970 -1.0759 -0.1692
47739SOL     OW51994   1.564   3.001  12.043  0.4135  0.3549  0.5185
47739SOL    HW151995   1.513   3.056  11.983  1.3184  0.8273  0.1680
47739SOL    HW251996   1.499   2.943  12.082 -0.2121  0.0884 -0.8464
47740SOL     OW51997   9.141   8.932   2.360  0.0301  0.2970 -0.4137
47740SOL    HW151998   9.065   8.991   2.352  1.0585  1.5033 -2.2143
47740SOL    HW251999   9.216   8.988   2.342  1.2036 -1.2346 -0.4763
47741SOL     OW52000   9.370   2.171   9.877  0.2941  0.3225 -0.3040
47741SOL    HW152001   9.361   2.232   9.804  0.6687  0.5899 -0.1283
47741SOL    HW252002   9.408   2.092   9.838  1.0473  0.6728 -0.3017
47742SOL     OW52003   4.225   9.971   8.566  0.3616  0.2481 -0.2189
47742SOL    HW152004   4.163   9.903   8.593  0.3129  0.1432 -0.5927
47742SOL    HW252005   4.296   9.966   8.630  0.5501 -0.4183 -0.4816
47743SOL     OW52006  10.355  10.590  11.747 -0.2050 -0.0480 -0.2165
47743SOL    HW152007  10.307  10.618  11.825  0.5282  0.9448 -0.0877
47743SOL    HW252008  10.291  10.543  11.695 -1.3331  1.2274 -0.0550
47744SOL     OW52009   1.278   1.926   6.109 -0.1186 -0.1199 -0.6323
47744SOL    HW152010   1.305   1.844   6.151  0.6521  0.7828  0.7331
47744SOL    HW252011   1.183   1.918   6.100  0.0285 -1.4653 -1.2482
47745SOL     OW52012   7.582  11.262   0.374 -0.6759 -0.9309  0.3272
47745SOL    HW152013   7.503  11.213   0.351 -1.6233 -0.2224  1.9027
47745SOL    HW252014   7.549  11.344   0.413  0.8046  1.4107 -2.8404
47746SOL     OW52015   3.480  12.568   0.582 -0.1715 -0.0574  0.3442
47746SOL    HW152016   3.494  12.662   0.569 -0.3311 -0.2974 -1.9803
47746SOL    HW252017   3.434  12.540   0.503  2.3750 -2.6188 -0.3872
47747SOL     OW52018   9.797   5.372   4.132 -0.5320 -0.6944  0.0048
47747SOL    HW152019   9.824   5.280   4.135 -1.7332 -1.0465  0.8036
47747SOL    HW252020   9.777   5.394   4.223  0.0168  0.4546 -0.1377
47748SOL     OW52021   3.669   6.611   6.371  0.2548  0.8223 -0.3066
47748SOL    HW152022   3.645   6.696   6.335  1.1803  0.9068 -0.7682
47748SOL    HW252023   3.751   6.589   6.327 -0.3347 -0.6499 -0.7335
47749SOL     OW52024   4.315   2.673   8.875 -0.1893 -0.5952  0.5350
47749SOL    HW152025   4.349   2.709   8.957  2.3614 -0.3817 -0.5254
47749SOL    HW252026   4.334   2.741   8.809 -0.8800 -1.3539 -0.4836
47750SOL     OW52027  10.014  11.376   2.235 -0.4922  0.0859  0.1403
47750SOL    HW152028  10.093  11.368   2.289  0.5191  2.8881 -0.7058
47750SOL    HW252029  10.039  11.339   2.150 -0.1293  0.7403 -0.0495
47751SOL     OW52030   5.106   6.051  12.071  0.0318 -1.1296  0.0230
47751SOL    HW152031   5.068   6.111  12.136  1.2289 -0.0821 -0.2047
47751SOL    HW252032   5.097   6.098  11.988  0.1540 -1.6811 -0.3021
47752SOL     OW52033   6.968   3.525   5.535 -0.2691  0.1427  0.2540
47752SOL    HW152034   6.945   3.590   5.470 -1.3276 -0.1190  0.3433
47752SOL    HW252035   6.931   3.443   5.501  2.0550 -0.6790 -0.4470
47753SOL     OW52036   9.899   4.615  10.413 -0.0015  0.6031 -0.8094
47753SOL    HW152037   9.826   4.677  10.417 -1.8333 -1.4115  2.9894
47753SOL    HW252038   9.861   4.537  10.373  0.2385 -0.2416  0.5771
47754SOL     OW52039   9.404  10.956  10.419 -0.2503 -0.0070  0.0425
47754SOL    HW152040   9.375  10.929  10.506 -2.9630 -0.0068 -0.7758
47754SOL    HW252041   9.392  11.051  10.419 -1.6090 -0.1523 -0.7307
47755SOL     OW52042   4.665   5.501   6.965 -0.1297  0.4110 -0.5284
47755SOL    HW152043   4.643   5.477   6.875 -0.2229  1.0714 -0.6879
47755SOL    HW252044   4.753   5.468   6.978  0.0076  0.5905 -0.9741
47756SOL     OW52045   6.845  11.453  11.870  0.5778  0.1403  0.6602
47756SOL    HW152046   6.844  11.380  11.932  0.2849  0.4496  1.0289
47756SOL    HW252047   6.753  11.478  11.861  0.5129 -0.5095 -0.6442
47757SOL     OW52048   9.731  12.612   3.553 -0.4157 -0.1671  0.4726
47757SOL    HW152049   9.676  12.675   3.506 -0.8141  0.4104  1.6757
47757SOL    HW252050   9.795  12.582   3.488 -0.9897  0.5604 -0.4406
47758SOL     OW52051   9.367   2.148   6.774  0.0917  1.0945 -0.3814
47758SOL    HW152052   9.343   2.216   6.712  0.0796  2.0737  0.6656
47758SOL    HW252053   9.329   2.068   6.737 -1.2196  1.9020 -0.8734
47759SOL     OW52054  12.564   1.678  10.499 -0.6602  0.0424 -0.3258
47759SOL    HW152055  12.563   1.635  10.585 -0.2253 -1.8158 -1.1820
47759SOL    HW252056  12.486   1.733  10.498 -0.6461  0.1265  1.2653
47760SOL     OW52057   8.425   1.168   4.761  0.1314  0.1041 -0.0480
47760SOL    HW152058   8.418   1.234   4.692 -0.9084 -0.9012 -0.9275
47760SOL    HW252059   8.493   1.202   4.819  1.8380  0.4761 -2.1307
47761SOL     OW52060   7.186   6.082  11.107  0.3111 -0.4132  0.3651
47761SOL    HW152061   7.242   6.092  11.030 -1.1647  0.3740 -0.6494
47761SOL    HW252062   7.206   6.159  11.161  0.9339 -0.6713  0.5150
47762SOL     OW52063  12.285  12.550   0.625 -0.1023 -0.2997  0.2258
47762SOL    HW152064  12.306  12.632   0.669  1.4030 -1.0758  1.0420
47762SOL    HW252065  12.364  12.528   0.576 -0.2800 -1.5352  0.4557
47763SOL     OW52066   9.143   9.151  11.644  0.0543  0.0029 -0.5370
47763SOL    HW152067   9.066   9.107  11.610  0.0558  0.6577 -1.4225
47763SOL    HW252068   9.209   9.082  11.651  0.1508 -0.1134 -2.1707
47764SOL     OW52069   3.439   5.452   9.460 -0.0062 -0.1600  0.2004
47764SOL    HW152070   3.523   5.492   9.437  0.3610 -1.2231 -0.3274
47764SOL    HW252071   3.375   5.522   9.445  0.8697  1.0255  1.6767
47765SOL     OW52072   3.633   0.124   1.348  0.5108 -0.5620 -0.0068
47765SOL    HW152073   3.632   0.056   1.280  0.6336 -0.4995 -0.0721
47765SOL    HW252074   3.580   0.089   1.419 -0.9914  0.0446 -0.7876
47766SOL     OW52075   5.484   4.453   2.971 -0.6766 -0.1710 -0.1457
47766SOL    HW152076   5.408   4.413   3.015 -0.4015 -0.9075 -0.3154
47766SOL    HW252077   5.453   4.469   2.882 -0.0091 -2.5549 -0.9007
47767SOL     OW52078   8.038   2.623   8.157  0.6273  0.3540  0.0754
47767SOL    HW152079   8.025   2.691   8.223  1.0015 -0.8973  1.4754
47767SOL    HW252080   8.040   2.541   8.206 -1.4709 -0.8794 -1.7333
47768SOL     OW52081   6.941   0.015   2.320 -0.0195  0.2511 -0.2942
47768SOL    HW152082   6.978  -0.071   2.301 -0.7660 -0.2025  0.2247
47768SOL    HW252083   6.906   0.045   2.236  1.2408  0.5658 -0.7249
47769SOL     OW52084  10.129   1.783   7.710 -0.1393  0.2028 -0.3200
47769SOL    HW152085  10.192   1.756   7.643 -0.8592 -0.7947 -0.6244
47769SOL    HW252086  10.153   1.873   7.731  1.1592 -0.0387 -0.6891
47770SOL     OW52087   1.078   8.001   1.763  0.2858  0.4495 -0.1035
47770SOL    HW152088   1.117   8.082   1.797  2.9604 -0.4946 -0.6688
47770SOL    HW252089   1.088   7.938   1.834  3.7378 -0.8835 -1.5379
47771SOL     OW52090   9.655   1.154   0.018  0.4862 -0.0157 -0.1618
47771SOL    HW152091   9.594   1.217   0.058 -1.2077 -0.9661 -1.1392
47771SOL    HW252092   9.740   1.197   0.025 -0.4699  2.0339 -0.0480
47772SOL     OW52093   7.645   0.501   8.553  0.4127  0.7119 -0.0330
47772SOL    HW152094   7.711   0.437   8.580 -0.0095  0.8121  1.3396
47772SOL    HW252095   7.631   0.484   8.460  0.2616 -1.2687  0.3000
47773SOL     OW52096  11.649   3.434   0.120 -0.0273  0.0879 -0.0024
47773SOL    HW152097  11.554   3.441   0.109 -0.1707  1.8994  1.9014
47773SOL    HW252098  11.671   3.351   0.078 -2.3271 -0.0311 -1.1556
47774SOL     OW52099  12.336   5.150   5.252  0.7343 -0.7775  0.2387
47774SOL    HW152100  12.275   5.143   5.179  0.1688 -1.7077  0.7795
47774SOL    HW252101  12.421   5.162   5.210  0.2762 -0.1755 -0.5409
47775SOL     OW52102   6.291   5.761   7.789 -0.0142 -0.3631 -0.0075
47775SOL    HW152103   6.318   5.693   7.727 -2.7663 -0.7848 -0.8974
47775SOL    HW252104   6.320   5.729   7.874  0.4388 -1.7030 -0.6344
47776SOL     OW52105   3.640  10.462  10.148  0.5811  0.1506 -0.1829
47776SOL    HW152106   3.725  10.498  10.120  0.6898  0.4535  0.5183
47776SOL    HW252107   3.587  10.463  10.068  0.9398  0.8381 -0.4268
47777SOL     OW52108   1.635   9.391   8.544 -0.5755  0.7429  0.1573
47777SOL    HW152109   1.720   9.431   8.564 -0.4279  1.0863 -1.0884
47777SOL    HW252110   1.654   9.297   8.539 -0.4251  0.7450  0.6328
47778SOL     OW52111   1.069   5.813   7.512  0.1364 -0.5250  0.1286
47778SOL    HW152112   1.050   5.728   7.471 -0.6873  0.1241 -0.8949
47778SOL    HW252113   1.101   5.868   7.440  4.3666 -0.9820  1.4189
47779SOL     OW52114  10.374  11.414   7.600  0.8515 -0.4600  0.0355
47779SOL    HW152115  10.296  11.413   7.544  2.1394  0.0879 -1.8439
47779SOL    HW252116  10.350  11.471   7.673 -2.1077 -3.8585  2.1028
47780SOL     OW52117   6.898   8.379   9.057 -0.1634 -0.0324 -0.5571
47780SOL    HW152118   6.902   8.375   8.962 -0.7985  0.2961 -0.6056
47780SOL    HW252119   6.984   8.350   9.087  0.1951  0.3333 -1.2403
47781SOL     OW52120   2.451   9.967   7.759  1.0137  0.4816 -0.0221
47781SOL    HW152121   2.500   9.987   7.838 -0.9797 -0.5748  1.5721
47781SOL    HW252122   2.508   9.995   7.687  2.3384  2.7268  1.7742
47782SOL     OW52123   6.732   3.514   7.346 -0.4304 -0.0525 -0.0360
47782SOL    HW152124   6.744   3.550   7.258  0.7706  1.5241  0.7162
47782SOL    HW252125   6.697   3.426   7.332  0.9005 -0.3142 -2.1234
47783SOL     OW52126   9.982   5.472   0.843  0.2400 -0.3596 -0.4656
47783SOL    HW152127  10.075   5.491   0.851  0.3531 -1.1847  0.4458
47783SOL    HW252128   9.965   5.475   0.749  1.0747  0.2929 -0.6043
47784SOL     OW52129   7.211  10.496   7.709  0.0064  0.5753  0.0798
47784SOL    HW152130   7.274  10.564   7.685 -0.6774  1.3367  0.4011
47784SOL    HW252131   7.198  10.445   7.629  0.6262  0.7409 -0.1290
47785SOL     OW52132   2.657  12.312   0.019 -0.0023 -0.0156  0.7762
47785SOL    HW152133   2.752  12.305   0.008  0.0186  0.7573  0.4304
47785SOL    HW252134   2.636  12.249   0.089  0.8565  0.3484  1.3696
47786SOL     OW52135  12.290   2.910   2.966 -0.5112 -0.6680  0.4312
47786SOL    HW152136  12.321   2.917   2.876 -2.5728 -2.8111 -0.5397
47786SOL    HW252137  12.197   2.934   2.961 -0.5590 -0.4101  2.0834
47787SOL     OW52138   5.350   2.737   5.195 -0.7258 -0.6835 -0.4159
47787SOL    HW152139   5.295   2.723   5.118 -0.6960 -0.5330 -0.4637
47787SOL    HW252140   5.328   2.664   5.253 -1.5691 -0.1874 -0.0946
47788SOL     OW52141   1.600  10.953   6.329  0.1899  0.0702  0.0962
47788SOL    HW152142   1.650  10.882   6.369  0.4383 -0.7636 -1.5785
47788SOL    HW252143   1.631  11.032   6.373  0.4566 -0.7684  1.4811
47789SOL     OW52144  10.520   3.166   5.520  0.3995 -0.3456  0.1153
47789SOL    HW152145  10.546   3.101   5.586  1.1325 -1.3900 -1.1615
47789SOL    HW252146  10.576   3.241   5.537 -0.4363 -0.0254  1.5986
47790SOL     OW52147   3.078   1.952   3.575  0.5405 -0.5945  0.0164
47790SOL    HW152148   3.117   1.890   3.513  0.3816 -1.0289  0.3420
47790SOL    HW252149   3.032   1.896   3.638  0.1857 -0.1315  0.1727
47791SOL     OW52150  10.989   3.754   0.978  0.6558  0.0148 -0.3958
47791SOL    HW152151  11.047   3.683   0.951 -0.7734 -1.8478  1.1077
47791SOL    HW252152  10.951   3.786   0.897  0.2426 -1.9777 -1.0374
47792SOL     OW52153   4.528   7.851  11.474 -0.6959 -0.2239 -0.2256
47792SOL    HW152154   4.527   7.834  11.568 -2.2347 -0.4432 -0.2509
47792SOL    HW252155   4.435   7.862  11.451 -0.3166  0.2132 -1.6465
47793SOL     OW52156   8.232   7.741   2.706 -0.8634 -0.6163 -0.2783
47793SOL    HW152157   8.315   7.775   2.673 -0.1569 -0.8249  1.1931
47793SOL    HW252158   8.198   7.687   2.634 -0.3171  0.3930 -1.3366
47794SOL     OW52159   3.327   7.758   2.479 -0.0449  0.2414  0.4070
47794SOL    HW152160   3.349   7.795   2.565  0.1399  1.1142 -0.0039
47794SOL    HW252161   3.320   7.834   2.422 -0.6297 -0.3035 -0.2526
47795SOL     OW52162  10.498   0.893   5.777  0.4108 -0.5358  0.3206
47795SOL    HW152163  10.547   0.969   5.743 -1.1807  0.8035  0.8973
47795SOL    HW252164  10.565   0.836   5.813  1.6905  0.4579 -0.3935
47796SOL     OW52165  10.117   2.799  12.071 -0.0780  0.3671 -0.5223
47796SOL    HW152166  10.094   2.816  11.980  2.1760  0.2333 -1.1903
47796SOL    HW252167  10.150   2.883  12.103  2.5511 -0.3580 -1.0341
47797SOL     OW52168  11.136   6.383   7.679 -0.1831  0.4128  0.6823
47797SOL    HW152169  11.119   6.401   7.586 -2.6158  0.0919  1.0126
47797SOL    HW252170  11.107   6.462   7.725 -2.5324 -0.8102  1.4209
47798SOL     OW52171  10.949   6.727  10.364  0.3618  0.0499  0.1179
47798SOL    HW152172  11.042   6.713  10.346  0.8199  0.0074  2.2870
47798SOL    HW252173  10.915   6.640  10.384  0.0761  0.2008  0.2900
47799SOL     OW52174   3.365   2.954   7.626  0.1061  0.1189 -0.7402
47799SOL    HW152175   3.308   2.880   7.644 -0.5603  0.4455 -1.4539
47799SOL    HW252176   3.406   2.974   7.710 -0.6116 -0.3079 -0.2834
47800SOL     OW52177  10.223  11.450   3.439 -0.4596  0.0797 -0.0357
47800SOL    HW152178  10.244  11.504   3.364  0.6032  2.5113  1.8799
47800SOL    HW252179  10.146  11.399   3.412 -0.8262  1.7334 -2.3186
47801SOL     OW52180  11.190  11.221   5.904  0.5871  0.4853 -0.2293
47801SOL    HW152181  11.123  11.163   5.869  2.7802 -0.6135 -2.9688
47801SOL    HW252182  11.156  11.309   5.888 -1.1438  0.0048  0.5708
47802SOL     OW52183   5.138   2.620   9.346 -0.1403 -0.4432  0.0801
47802SOL    HW152184   5.088   2.663   9.277 -1.2844  0.9757  1.6823
47802SOL    HW252185   5.092   2.645   9.427  1.2153 -1.8994  1.3606
47803SOL     OW52186   4.119   5.190   0.111  0.0443 -0.1329  0.2517
47803SOL    HW152187   4.073   5.196   0.027 -2.8097 -1.7403  1.5372
47803SOL    HW252188   4.078   5.257   0.166 -1.8013 -2.3320  1.7791
47804SOL     OW52189  11.961   0.051  11.087 -0.5145  0.9459 -0.2123
47804SOL    HW152190  12.006   0.128  11.122  1.6497 -0.8511  1.2385
47804SOL    HW252191  12.029  -0.000  11.045 -1.9780 -0.0349 -1.5068
47805SOL     OW52192  10.087  11.368  10.296  0.0989  0.0414 -0.2610
47805SOL    HW152193  10.017  11.389  10.357  0.2288  1.5665 -0.5882
47805SOL    HW252194  10.051  11.389  10.210  1.2655  1.9016 -0.3592
47806SOL     OW52195  11.685   0.929   4.898  0.2545 -0.2308 -0.3149
47806SOL    HW152196  11.732   1.012   4.896 -2.0408  1.1525  0.0949
47806SOL    HW252197  11.638   0.926   4.814 -1.8399  0.2516  0.7914
47807SOL     OW52198   9.914   2.012   2.192 -0.5771 -0.2744 -0.1713
47807SOL    HW152199   9.942   1.971   2.110 -0.9433  1.1775 -1.0545
47807SOL    HW252200   9.821   1.990   2.199 -1.0772  1.3346 -1.2695
47808SOL     OW52201   2.785   9.129  12.089 -0.0279  0.1503 -0.5823
47808SOL    HW152202   2.693   9.102  12.093  0.4915 -1.6639  0.6218
47808SOL    HW252203   2.815   9.127  12.180  1.0332  1.3984 -0.8758
47809SOL     OW52204   0.215   9.844   8.263  0.1400  0.1446 -0.3356
47809SOL    HW152205   0.140   9.788   8.246  0.3980 -0.6883  1.0737
47809SOL    HW252206   0.290   9.785   8.262  0.4344  0.4658  1.0808
47810SOL     OW52207   7.083   3.618  10.177  0.0008  0.2484 -0.3965
47810SOL    HW152208   7.047   3.657  10.098  0.5930  1.2265 -0.2081
47810SOL    HW252209   7.023   3.644  10.247  0.3735  0.8108 -0.2769
47811SOL     OW52210  11.011   4.898   3.016  0.2094 -0.5551  0.5468
47811SOL    HW152211  11.067   4.872   2.944 -0.7626  0.2560 -0.5343
47811SOL    HW252212  11.048   4.854   3.093  3.2856  1.1937  0.2330
47812SOL     OW52213  11.394   4.587   1.177 -0.0262 -0.0562  0.0702
47812SOL    HW152214  11.364   4.497   1.166 -0.3119 -0.1528  1.4285
47812SOL    HW252215  11.488   4.580   1.192  0.5167  0.1322 -2.6569
47813SOL     OW52216   8.649   5.928   8.262 -0.2920 -0.0395  0.2025
47813SOL    HW152217   8.689   6.013   8.277 -0.4153 -0.0277  0.4686
47813SOL    HW252218   8.556   5.942   8.278 -0.4387 -0.0145 -0.6219
47814SOL     OW52219   2.276   8.160  11.170 -0.8576  0.2808 -0.3458
47814SOL    HW152220   2.225   8.229  11.211 -0.7635  0.1287  0.0377
47814SOL    HW252221   2.228   8.079  11.190 -1.4222  0.3078 -1.5024
47815SOL     OW52222   7.794   7.476   1.269 -0.2282 -0.1910  1.1048
47815SOL    HW152223   7.881   7.440   1.285 -0.0728  0.5264  1.9203
47815SOL    HW252224   7.803   7.526   1.187 -0.2697 -1.3683  0.3609
47816SOL     OW52225   3.947   6.439  10.975 -0.3044 -0.7435 -0.2491
47816SOL    HW152226   3.950   6.372  11.043  0.2819 -2.3319 -1.7691
47816SOL    HW252227   3.904   6.514  11.017 -1.9582 -2.4081  1.2234
47817SOL     OW52228   4.052   6.432  12.252 -0.1165  0.3631  0.2295
47817SOL    HW152229   4.146   6.423  12.239 -0.0015  1.7669 -0.0674
47817SOL    HW252230   4.042   6.449  12.346 -0.0110  0.8064  0.1635
47818SOL     OW52231   0.730   5.473  12.083  0.7746 -0.0489  0.1041
47818SOL    HW152232   0.752   5.382  12.103  1.4993  0.0782 -0.0888
47818SOL    HW252233   0.792   5.525  12.135  0.2470  0.3429  0.3537
47819SOL     OW52234  10.180   1.843   0.641  0.4987 -0.4564  0.0403
47819SOL    HW152235  10.165   1.915   0.579  0.2405 -1.5226 -1.1890
47819SOL    HW252236  10.271   1.854   0.669  0.2111  0.8260  0.5361
47820SOL     OW52237   9.822   1.383   8.021  0.2316  0.3769  0.0753
47820SOL    HW152238   9.843   1.294   8.048 -1.1698  0.2897  1.0161
47820SOL    HW252239   9.759   1.372   7.949  1.5814  0.6245 -1.1826
47821SOL     OW52240   4.993   8.595   3.289 -0.0883 -0.4182  0.7094
47821SOL    HW152241   5.064   8.542   3.253  0.5582  0.0257  1.3059
47821SOL    HW252242   5.029   8.684   3.292 -0.6894 -0.1808  0.9637
47822SOL     OW52243   9.365   4.826   8.825  0.6569  0.3144  0.1199
47822SOL    HW152244   9.450   4.826   8.869  0.3472 -2.7069  0.9455
47822SOL    HW252245   9.304   4.789   8.890 -0.3227 -1.9452 -1.9328
47823SOL     OW52246   5.361   4.650  10.792  0.7518 -0.2781 -0.5224
47823SOL    HW152247   5.349   4.687  10.704  3.1493  1.9767 -0.0147
47823SOL    HW252248   5.300   4.699  10.847 -0.0775 -1.0529 -0.7114
47824SOL     OW52249  12.439   0.235   7.784 -0.1787 -0.0842 -0.4845
47824SOL    HW152250  12.521   0.185   7.784 -0.9644 -1.5387  1.5406
47824SOL    HW252251  12.453   0.305   7.720  2.0922 -1.1323 -1.2511
47825SOL     OW52252   7.498  10.332  11.388 -0.1207 -0.1851 -0.6502
47825SOL    HW152253   7.420  10.305  11.437 -0.0100  0.0881 -0.3278
47825SOL    HW252254   7.523  10.253  11.339 -0.7927 -0.1800 -1.0109
47826SOL     OW52255   8.786   4.789   2.537  0.1166  0.0537  0.5151
47826SOL    HW152256   8.749   4.736   2.466  2.1752  1.0336 -1.4084
47826SOL    HW252257   8.783   4.731   2.614 -1.0594 -1.4887 -0.6138
47827SOL     OW52258   4.944  10.176  11.019  0.2090 -0.0268  0.6103
47827SOL    HW152259   4.964  10.229  10.941 -0.6237  1.4507  1.3519
47827SOL    HW252260   5.005  10.206  11.085 -1.8914  1.9249  1.7989
47828SOL     OW52261   0.405  12.463   9.615 -0.3124  0.7005  0.7526
47828SOL    HW152262   0.333  12.502   9.565  0.8092  0.6209 -1.0429
47828SOL    HW252263   0.422  12.525   9.686 -0.5101  2.0097 -0.2954
47829SOL     OW52264   7.508   5.681  10.463  0.2488  0.0879 -0.0591
47829SOL    HW152265   7.487   5.588  10.479  0.7212 -0.6321 -3.0716
47829SOL    HW252266   7.431   5.728  10.496 -1.4763 -1.6676 -1.2950
47830SOL     OW52267   5.110   1.667   6.430 -0.0878 -0.1765  0.0610
47830SOL    HW152268   5.139   1.695   6.343 -1.8265  3.2720  0.4178
47830SOL    HW252269   5.022   1.631   6.415 -0.5515  0.7906  0.3972
47831SOL     OW52270   6.968   8.090  11.037 -0.1980  0.4780  0.6120
47831SOL    HW152271   6.918   8.165  11.069 -0.7564 -0.2620  1.5395
47831SOL    HW252272   6.964   8.026  11.108  0.0202 -0.5452 -0.2574
47832SOL     OW52273  11.280   1.184  10.280  0.4157  0.4925  0.0332
47832SOL    HW152274  11.350   1.175  10.345 -0.3589 -1.5978  0.6404
47832SOL    HW252275  11.310   1.133  10.205  0.0059  0.4706 -0.1171
47833SOL     OW52276   5.856   8.796   7.701  0.1832  0.1125  0.7005
47833SOL    HW152277   5.899   8.822   7.783  0.1165 -1.4948  1.2928
47833SOL    HW252278   5.909   8.723   7.669 -1.4234 -1.1649  0.8305
47834SOL     OW52279  11.764   6.337   2.641 -0.1988 -0.0138  0.3339
47834SOL    HW152280  11.729   6.252   2.667 -0.1424 -1.0861 -2.6797
47834SOL    HW252281  11.845   6.316   2.595  0.0914  1.7167  0.0044
47835SOL     OW52282   2.320   0.102  11.666 -0.5284  0.0872  0.3233
47835SOL    HW152283   2.287   0.167  11.728 -1.9224 -0.3030  0.0155
47835SOL    HW252284   2.247   0.043  11.652  0.2695 -0.7293 -0.5117
47836SOL     OW52285  11.746   4.203   5.059 -0.5079  0.1731  0.1244
47836SOL    HW152286  11.742   4.299   5.064  0.1521  0.2086  0.1770
47836SOL    HW252287  11.682   4.173   5.123 -1.9216  0.5602 -1.0451
47837SOL     OW52288   1.043   1.441   1.501  0.0297 -0.4056  0.1571
47837SOL    HW152289   0.965   1.456   1.448 -0.1639 -1.4236  0.1409
47837SOL    HW252290   1.013   1.389   1.575  0.4141  0.4933  0.9688
47838SOL     OW52291   5.313   2.349   5.838  0.8110  0.3514  0.6359
47838SOL    HW152292   5.248   2.291   5.877  0.2528  0.6502  0.1614
47838SOL    HW252293   5.325   2.418   5.903  0.1190  0.6788  0.4262
47839SOL     OW52294   1.012   9.977   6.973 -0.0265  0.4996 -0.0729
47839SOL    HW152295   1.041   9.965   7.063 -0.5864 -0.1363  0.0320
47839SOL    HW252296   0.916   9.970   6.977  0.0045 -0.8619 -0.8904
47840SOL     OW52297   2.239   3.436   0.880  0.5840  0.0513 -0.3412
47840SOL    HW152298   2.230   3.526   0.911  1.1924  0.5771 -1.6170
47840SOL    HW252299   2.155   3.395   0.903  0.2496  0.9648  0.1446
47841SOL     OW52300   0.881   6.911  11.774  0.0781 -1.0462 -0.0857
47841SOL    HW152301   0.845   6.999  11.789  2.6257  0.0697 -0.0165
47841SOL    HW252302   0.815   6.852  11.811 -2.1307  0.7298 -0.9008
47842SOL     OW52303   2.571   6.054   2.515  0.0360  0.1096  0.6262
47842SOL    HW152304   2.503   6.100   2.466  0.0005 -0.2218  0.3625
47842SOL    HW252305   2.523   5.996   2.574  0.0891 -0.4779  0.1021
47843SOL     OW52306   7.349   3.403  12.348 -0.0442  0.2870  0.1027
47843SOL    HW152307   7.394   3.418  12.265 -0.5796 -1.1709 -0.4858
47843SOL    HW252308   7.257   3.395  12.323 -0.3701  1.0973  1.0146
47844SOL     OW52309   4.752   4.263   9.486 -0.0400 -0.5824  0.0434
47844SOL    HW152310   4.838   4.279   9.526  1.0133 -2.1219 -1.4610
47844SOL    HW252311   4.744   4.332   9.419  1.0308 -1.6731 -1.2581
47845SOL     OW52312   8.674   5.094   7.297 -0.3201  0.0310 -0.1234
47845SOL    HW152313   8.747   5.086   7.236  0.5908  2.0472  0.6223
47845SOL    HW252314   8.706   5.055   7.378 -0.4792 -0.0813 -0.1144
47846SOL     OW52315   2.948   1.305   9.928  0.5516  0.0496  0.0517
47846SOL    HW152316   2.953   1.350  10.012  2.4029  1.4016 -0.7164
47846SOL    HW252317   2.894   1.228   9.945  1.2359  0.0484  2.5753
47847SOL     OW52318   3.641   9.075   7.734 -0.1607  0.2974  0.0911
47847SOL    HW152319   3.576   9.005   7.727 -0.7935  0.7233  1.4953
47847SOL    HW252320   3.687   9.057   7.816 -1.0179  2.0616  1.0130
47848SOL     OW52321   0.240  11.794   5.863  0.0623 -0.0007 -0.3662
47848SOL    HW152322   0.297  11.741   5.920 -0.9573 -0.9990 -0.2348
47848SOL    HW252323   0.300  11.851   5.816  1.1901 -1.0445 -0.2618
47849SOL     OW52324   3.367   4.016  11.837 -0.4015 -0.1437  0.3551
47849SOL    HW152325   3.284   4.029  11.791 -1.4087 -1.5185  1.7108
47849SOL    HW252326   3.342   4.000  11.928  1.3606 -0.5957  0.7929
47850SOL     OW52327  10.738   7.637   4.256  0.5579  0.0511 -0.2221
47850SOL    HW152328  10.826   7.606   4.278  0.3330 -0.0273  0.6278
47850SOL    HW252329  10.734   7.726   4.290  0.2527 -0.0156 -0.0721
47851SOL     OW52330  12.409   9.947   5.819  0.2132 -0.2715 -0.4683
47851SOL    HW152331  12.435   9.927   5.729 -1.4232  0.2521 -1.1056
47851SOL    HW252332  12.341  10.014   5.810 -0.5784 -0.7997  1.1105
47852SOL     OW52333   9.608   1.353   5.087  0.1902 -0.3177  0.0325
47852SOL    HW152334   9.649   1.420   5.032  0.6974  0.2035  1.0104
47852SOL    HW252335   9.528   1.394   5.120 -1.0785 -1.2581 -1.6956
47853SOL     OW52336   6.765   2.761   1.216 -0.4653 -0.1463 -0.0266
47853SOL    HW152337   6.779   2.701   1.144 -0.5268  1.8249 -1.7801
47853SOL    HW252338   6.818   2.838   1.194 -0.2450  0.4117  2.1990
47854SOL     OW52339   8.777   5.718   8.136  0.2075 -0.6085 -0.0514
47854SOL    HW152340   8.811   5.766   8.060 -1.0464 -1.1908 -1.0150
47854SOL    HW252341   8.731   5.784   8.188 -0.1531 -0.4531 -0.5567
47855SOL     OW52342   6.522   4.310   9.722 -0.0870 -0.3696 -0.8630
47855SOL    HW152343   6.440   4.286   9.764 -0.1660  0.3709 -0.5940
47855SOL    HW252344   6.539   4.237   9.662 -0.1783 -1.2470  0.1318
47856SOL     OW52345   6.064   2.924   0.269  0.0121 -0.4204  0.2746
47856SOL    HW152346   6.117   2.862   0.219  0.8104 -1.6727  2.5605
47856SOL    HW252347   6.004   2.868   0.319 -0.2302  0.7398  1.2992
47857SOL     OW52348   6.281   7.066  12.218 -0.2716 -0.2674 -0.0645
47857SOL    HW152349   6.224   7.142  12.222 -2.4069 -1.8308  2.1685
47857SOL    HW252350   6.273   7.034  12.128  0.3824  1.8209 -0.9345
47858SOL     OW52351   1.087   2.489  12.504  0.2764 -0.1518  0.3968
47858SOL    HW152352   1.108   2.434  12.428  1.7812 -0.8252  1.2748
47858SOL    HW252353   1.052   2.569  12.465  1.5728 -0.2379 -1.0571
47859SOL     OW52354   0.680   0.572   5.095 -0.3047 -0.1779  0.3598
47859SOL    HW152355   0.600   0.550   5.142  0.3854  0.8306  2.0981
47859SOL    HW252356   0.652   0.632   5.026 -1.7748 -3.8150 -2.5848
47860SOL     OW52357  11.673   1.618   5.655  0.2285  0.0931 -0.2997
47860SOL    HW152358  11.640   1.542   5.607  2.9343 -0.0857 -2.1275
47860SOL    HW252359  11.596   1.671   5.673 -1.3978 -1.7746 -1.4068
47861SOL     OW52360   9.966   2.117   0.778 -0.2473 -0.1439  0.5876
47861SOL    HW152361   9.899   2.179   0.749 -0.2179 -0.2336  0.3235
47861SOL    HW252362   9.932   2.031   0.752  0.3390 -0.1280 -0.2886
47862SOL     OW52363   7.302  11.109   4.796  0.2125 -0.2618  0.2623
47862SOL    HW152364   7.303  11.028   4.848 -0.2813 -1.4167 -1.4529
47862SOL    HW252365   7.390  11.115   4.759 -0.2132 -0.8984 -0.8869
47863SOL     OW52366   7.985   4.941   5.785 -0.3008 -0.3220  0.5237
47863SOL    HW152367   8.061   4.884   5.777 -0.8240 -0.9906  0.2646
47863SOL    HW252368   8.011   5.007   5.850  0.0360 -1.3148  1.4194
47864SOL     OW52369   8.684   5.378   9.125  0.3768  0.0002  0.5012
47864SOL    HW152370   8.670   5.466   9.160 -1.3848  0.4922 -1.2765
47864SOL    HW252371   8.596   5.341   9.117  1.0878 -2.0816  1.4667
47865SOL     OW52372   6.099   3.642  10.562  0.2549  0.2782 -0.1057
47865SOL    HW152373   6.060   3.720  10.522  0.4096  0.0710 -0.6673
47865SOL    HW252374   6.105   3.664  10.655 -1.1781  0.3302  0.0063
47866SOL     OW52375   9.715   2.814  11.932 -0.5351  0.3378 -0.6094
47866SOL    HW152376   9.645   2.750  11.916 -0.6811  0.5122 -0.6719
47866SOL    HW252377   9.674   2.881  11.987  0.0227 -0.3642  0.7057
47867SOL     OW52378   6.604   6.456   9.529 -0.3126 -0.1936 -0.3833
47867SOL    HW152379   6.617   6.429   9.439 -0.4923  1.3500 -0.9116
47867SOL    HW252380   6.555   6.538   9.522  1.1021  0.8349  1.0354
47868SOL     OW52381   0.006   5.622  11.210 -0.0204  0.4507  0.3747
47868SOL    HW152382  -0.036   5.650  11.129 -1.1582  2.1489  1.4949
47868SOL    HW252383   0.100   5.629  11.192 -0.1740 -0.7790 -1.2756
47869SOL     OW52384   5.783   0.692   1.403  0.1829  0.2029 -0.4889
47869SOL    HW152385   5.733   0.661   1.479  0.1002  2.2122  0.3206
47869SOL    HW252386   5.765   0.627   1.335 -1.2804 -0.6215  0.6244
47870SOL     OW52387   8.085   1.489   1.238 -0.1183  0.3492  0.3803
47870SOL    HW152388   8.084   1.481   1.143  0.8969 -0.3057  0.4026
47870SOL    HW252389   8.178   1.484   1.261 -0.4545 -1.1185  1.5312
47871SOL     OW52390  12.009   1.014  11.909  0.3118 -0.1071 -0.5969
47871SOL    HW152391  11.957   1.010  11.828  0.3018 -2.2405 -0.5453
47871SOL    HW252392  11.957   0.965  11.973  1.0768  0.1807  0.2583
47872SOL     OW52393   0.419  12.144   0.349  0.0827 -0.1678 -0.1353
47872SOL    HW152394   0.412  12.143   0.445 -0.0700 -1.8313 -0.1351
47872SOL    HW252395   0.337  12.184   0.320  0.5866  1.3714  0.4174
47873SOL     OW52396   0.314   8.110   5.175  0.1937  0.4256 -0.4442
47873SOL    HW152397   0.222   8.135   5.166  0.4930  0.8280 -3.7879
47873SOL    HW252398   0.312   8.015   5.189 -0.7654  0.1982 -1.9166
47874SOL     OW52399   5.994   9.832   3.783  0.5394 -0.5467  0.4136
47874SOL    HW152400   5.962   9.778   3.855 -0.1234 -1.6395 -0.6682
47874SOL    HW252401   6.060   9.889   3.823  0.7172 -1.6383  1.7339
47875SOL     OW52402  11.871   7.706   7.754  0.1312  0.2371  0.6060
47875SOL    HW152403  11.967   7.710   7.759  0.1755 -0.9090  0.9584
47875SOL    HW252404  11.847   7.783   7.702  1.0281  2.1379  2.8306
47876SOL     OW52405   4.059  10.412   2.139  0.2984  0.2742 -0.0591
47876SOL    HW152406   4.089  10.394   2.228 -1.2128  2.1634  0.9002
47876SOL    HW252407   4.091  10.337   2.088  3.3074  0.3129  1.5256
47877SOL     OW52408   6.269   7.904   8.937 -0.2150  0.2402 -0.3188
47877SOL    HW152409   6.233   7.820   8.965 -1.6244  0.5232 -1.2100
47877SOL    HW252410   6.346   7.881   8.884  2.7301 -0.3175  3.7358
47878SOL     OW52411   6.143   1.279   5.901 -0.0523  0.4670 -0.9919
47878SOL    HW152412   6.106   1.237   5.823  0.2659  0.2032 -1.0018
47878SOL    HW252413   6.231   1.307   5.875 -0.2857  1.2197 -1.0095
47879SOL     OW52414   2.044   6.076   8.542 -0.6019 -0.6733  0.8116
47879SOL    HW152415   2.037   6.169   8.563 -1.6014 -0.7643  0.9179
47879SOL    HW252416   2.137   6.055   8.555  0.1404  0.8401 -1.4778
47880SOL     OW52417   6.300   1.906   8.483 -0.0839  0.2925 -0.3819
47880SOL    HW152418   6.268   1.974   8.424 -0.6197  1.4878  1.2340
47880SOL    HW252419   6.383   1.939   8.515 -0.4990  0.3502  0.6607
47881SOL     OW52420  12.001   9.547   6.406 -0.0469  0.2820  0.0746
47881SOL    HW152421  11.952   9.614   6.454 -1.7398 -1.5438  1.0204
47881SOL    HW252422  11.998   9.470   6.462  1.2665 -0.8125 -1.2780
47882SOL     OW52423   7.294   8.907   2.349 -0.0609 -0.6249  0.4338
47882SOL    HW152424   7.328   8.824   2.315 -1.0753 -0.9351  0.1312
47882SOL    HW252425   7.347   8.925   2.426 -0.0501 -1.7378  0.7004
47883SOL     OW52426   4.361   3.677   4.546 -0.3493  1.0790  0.7093
47883SOL    HW152427   4.352   3.728   4.466  2.2325  2.6883  1.2992
47883SOL    HW252428   4.272   3.653   4.570 -1.2230  0.6712 -2.5073
47884SOL     OW52429   3.606   5.702   5.328 -0.1652  0.9951 -0.1143
47884SOL    HW152430   3.564   5.618   5.311 -0.3011  0.7075  1.4439
47884SOL    HW252431   3.578   5.758   5.256 -0.8301 -0.0255 -0.6816
47885SOL     OW52432   7.640   5.688   2.258  0.0073 -0.0147 -0.8163
47885SOL    HW152433   7.699   5.620   2.226 -0.7252  0.1335 -2.6313
47885SOL    HW252434   7.554   5.646   2.261 -0.3052  0.5830 -1.1572
47886SOL     OW52435   2.244   9.247   8.936  0.2994 -0.5107  0.1415
47886SOL    HW152436   2.305   9.305   8.982  0.7397 -0.1537 -0.8799
47886SOL    HW252437   2.257   9.162   8.979  0.3774 -0.0965  0.9714
47887SOL     OW52438  10.803  12.249   6.766 -0.1369 -0.0053  0.1087
47887SOL    HW152439  10.765  12.227   6.852  0.8959 -0.5052  0.4549
47887SOL    HW252440  10.741  12.213   6.703  0.1438 -1.5446  0.6624
47888SOL     OW52441   6.933   6.903  11.123 -0.5493 -0.4451  0.0547
47888SOL    HW152442   6.896   6.934  11.041  0.6935 -1.0305 -0.7549
47888SOL    HW252443   6.932   6.808  11.115 -0.4125 -0.5086  0.7245
47889SOL     OW52444   5.501  11.722  11.286 -0.4202  0.8538  0.5052
47889SOL    HW152445   5.556  11.726  11.364  0.2391  0.5445  0.0612
47889SOL    HW252446   5.436  11.655  11.307 -1.3103  1.9622  1.4464
47890SOL     OW52447  12.222   5.523  10.616 -0.7717 -0.4525 -0.0890
47890SOL    HW152448  12.308   5.539  10.577 -1.4088 -0.8185 -1.7636
47890SOL    HW252449  12.217   5.581  10.691  0.1885  1.0047 -1.1123
47891SOL     OW52450   6.773   3.967  10.816  0.1701  0.1647 -0.4724
47891SOL    HW152451   6.792   4.048  10.864  0.1602 -0.4618  0.6176
47891SOL    HW252452   6.845   3.959  10.754  1.5481 -0.2502  1.0963
47892SOL     OW52453  12.149   1.166  10.804  0.1087 -0.5777 -0.2824
47892SOL    HW152454  12.160   1.186  10.711  1.1063 -1.7951 -0.4385
47892SOL    HW252455  12.182   1.244  10.849 -0.1424 -0.0831 -0.9294
47893SOL     OW52456   6.684   5.974   5.291  0.3065  0.2123  0.1077
47893SOL    HW152457   6.617   6.041   5.279  0.1757 -0.1036 -1.0513
47893SOL    HW252458   6.646   5.912   5.352  1.0761  2.0293  2.5853
47894SOL     OW52459   3.796   6.044   1.067  0.2341 -0.2058 -0.8386
47894SOL    HW152460   3.759   6.043   0.979  1.3157 -0.9424 -1.3057
47894SOL    HW252461   3.864   6.111   1.064 -1.9660  2.3304  0.4720
47895SOL     OW52462   5.236   3.496   4.545  0.4363  0.3363 -0.1334
47895SOL    HW152463   5.240   3.591   4.555 -0.1442  0.6639 -2.5630
47895SOL    HW252464   5.145   3.477   4.526  0.6732 -0.6253 -0.3778
47896SOL     OW52465   7.051   2.199   4.228 -0.3587  0.3362 -0.3881
47896SOL    HW152466   7.094   2.276   4.264  0.7163 -0.4565  0.0609
47896SOL    HW252467   7.025   2.225   4.140 -0.4136  1.3522 -0.0791
47897SOL     OW52468   7.697   5.681  11.817  0.1228 -0.8038 -0.4039
47897SOL    HW152469   7.704   5.744  11.888  2.0782 -1.2016 -0.1749
47897SOL    HW252470   7.788   5.661  11.793 -0.4414 -2.5648 -1.3245
47898SOL     OW52471   0.060   3.945   3.632 -0.0400  0.1437  0.1996
47898SOL    HW152472   0.114   3.962   3.710  0.1292  1.3586 -0.1512
47898SOL    HW252473   0.014   4.028   3.617 -0.2064 -0.1332 -0.8937
47899SOL     OW52474   8.397   1.409   6.005 -0.2241  0.1013 -0.0646
47899SOL    HW152475   8.432   1.320   6.005  0.8518  0.4973  0.3483
47899SOL    HW252476   8.312   1.402   6.048  0.1830 -0.6090  0.6609
47900SOL     OW52477  11.766   2.002  12.427 -0.7385  0.2711 -0.0073
47900SOL    HW152478  11.768   2.037  12.339  1.3706  0.1662 -0.0593
47900SOL    HW252479  11.750   2.078  12.483 -1.3142  0.4618 -0.4237
47901SOL     OW52480   6.631   2.161   7.506 -0.1596  0.2016 -0.0861
47901SOL    HW152481   6.536   2.161   7.518 -0.0503  0.3438  0.8460
47901SOL    HW252482   6.656   2.254   7.505 -0.0834  0.1820 -0.8601
47902SOL     OW52483   5.457   4.645   0.638 -0.0774 -0.5449 -0.2565
47902SOL    HW152484   5.468   4.734   0.606 -2.2639  0.3831  1.3111
47902SOL    HW252485   5.545   4.607   0.635  1.0291  1.8592 -0.4069
47903SOL     OW52486   2.398   2.174   7.109  0.4848  0.2421  0.4332
47903SOL    HW152487   2.347   2.110   7.158  0.2581  0.2994  0.2733
47903SOL    HW252488   2.335   2.215   7.049  0.5891  0.7448  0.6619
47904SOL     OW52489   5.766   3.175   1.427  0.2679 -0.0168  0.1529
47904SOL    HW152490   5.758   3.168   1.332  0.6332  1.0284  0.0352
47904SOL    HW252491   5.691   3.125   1.461 -0.9082  1.0930 -0.7205
47905SOL     OW52492  10.341   0.089   1.528 -0.5573 -0.6285 -0.1968
47905SOL    HW152493  10.374   0.017   1.474  0.4116 -0.1711 -0.2219
47905SOL    HW252494  10.369   0.168   1.482 -1.4286 -0.2206 -0.0540
47906SOL     OW52495   1.882  10.235   7.993  0.5590  0.5980 -1.0439
47906SOL    HW152496   1.813  10.221   8.058  1.1770 -1.0705 -0.6933
47906SOL    HW252497   1.962  10.246   8.045  0.9655 -0.1813 -1.4873
47907SOL     OW52498   4.412   7.871   5.404 -0.1356 -0.0241 -0.4060
47907SOL    HW152499   4.450   7.792   5.365  1.1646 -0.2065  1.1039
47907SOL    HW252500   4.467   7.942   5.372 -0.6941  0.1567 -0.9777
47908SOL     OW52501   8.685  12.164   7.247 -0.0477  0.3813  0.5095
47908SOL    HW152502   8.668  12.074   7.219 -1.4829  0.2386  1.7183
47908SOL    HW252503   8.599  12.206   7.246  0.2312  1.0665  2.1711
47909SOL     OW52504   6.899   6.459   2.524 -0.6267  0.4309 -1.0433
47909SOL    HW152505   6.965   6.460   2.593 -0.7269  0.8393 -0.9536
47909SOL    HW252506   6.916   6.377   2.477 -1.6985 -0.7808  0.5632
47910SOL     OW52507  10.804   8.591   3.311  0.6320 -0.4677  0.7748
47910SOL    HW152508  10.827   8.596   3.403 -0.0605  1.6935  0.8911
47910SOL    HW252509  10.887   8.605   3.265  1.1823 -2.6352  0.9819
47911SOL     OW52510  12.235   0.349   7.018 -0.1888 -0.4758  0.0308
47911SOL    HW152511  12.202   0.329   6.931 -0.9246  1.6981 -0.2501
47911SOL    HW252512  12.317   0.395   7.003 -1.2496  1.6582  0.3135
47912SOL     OW52513  12.243   3.646   4.757  0.5393 -0.7578 -0.3137
47912SOL    HW152514  12.263   3.739   4.758 -0.3128 -0.5623  1.1702
47912SOL    HW252515  12.182   3.636   4.684 -0.4200  0.1095  0.3426
47913SOL     OW52516   3.414  10.518   1.953 -0.1749 -0.2403 -0.3845
47913SOL    HW152517   3.425  10.429   1.986 -0.4247 -1.0676 -2.4361
47913SOL    HW252518   3.489  10.566   1.988  0.4799 -1.4834 -0.0417
47914SOL     OW52519   7.202   8.645  10.149  0.7289 -0.6664 -0.5982
47914SOL    HW152520   7.262   8.646  10.074  1.9873 -2.0638  0.3261
47914SOL    HW252521   7.147   8.568  10.133 -0.6330  0.4037 -1.2567
47915SOL     OW52522  12.100   8.555  10.957 -0.0259 -0.0927  0.0488
47915SOL    HW152523  12.082   8.461  10.954 -0.4073 -0.0166 -0.2075
47915SOL    HW252524  12.189   8.562  10.990  0.7996 -0.6366 -1.9399
47916SOL     OW52525   9.401  11.358   7.550  0.2697  0.2413  0.4378
47916SOL    HW152526   9.341  11.432   7.547 -2.0720 -1.5660 -0.4149
47916SOL    HW252527   9.406  11.335   7.642  0.3532  0.9310  0.6124
47917SOL     OW52528   7.622   5.395  11.426  0.3976  0.1258  0.3843
47917SOL    HW152529   7.561   5.322  11.433  0.0896  0.3737  0.2950
47917SOL    HW252530   7.568   5.474  11.434  0.6507  0.3522 -0.0754
47918SOL     OW52531   5.558   1.356   1.330  0.0524 -0.5498 -0.2316
47918SOL    HW152532   5.504   1.376   1.407 -0.6948 -1.7465 -0.4230
47918SOL    HW252533   5.624   1.426   1.329  0.1615 -0.5707  1.5758
47919SOL     OW52534  11.083   1.996   5.784  0.4189 -0.7567 -0.7263
47919SOL    HW152535  11.003   1.970   5.739  1.1877 -1.4267 -1.7448
47919SOL    HW252536  11.145   1.926   5.766  1.6269  0.3498 -1.0419
47920SOL     OW52537  12.197   6.231  10.209  0.5009 -0.3527  0.5492
47920SOL    HW152538  12.277   6.180  10.224 -2.1095 -5.3173 -0.1388
47920SOL    HW252539  12.187   6.232  10.113  0.7814  2.2263  0.4997
47921SOL     OW52540   4.278   6.404   0.612 -0.6190  0.1780  0.0420
47921SOL    HW152541   4.245   6.484   0.571 -1.3543  0.4622  1.1582
47921SOL    HW252542   4.230   6.333   0.568 -1.5610  0.4901  0.5552
47922SOL     OW52543  11.576   4.042   2.058  0.3339 -0.2040 -0.2373
47922SOL    HW152544  11.662   4.062   2.095  0.4726 -1.0507 -0.0927
47922SOL    HW252545  11.569   3.947   2.063 -1.2855 -0.0609  1.2680
47923SOL     OW52546  11.172   5.793   8.361  0.1191  0.2587 -0.8914
47923SOL    HW152547  11.174   5.794   8.457 -1.0826  2.5280 -0.8053
47923SOL    HW252548  11.092   5.745   8.339  0.2495 -0.0228 -0.7554
47924SOL     OW52549   8.665  10.227   1.138  0.7108  0.7829 -0.1419
47924SOL    HW152550   8.584  10.181   1.114  0.7965  0.6661 -0.2040
47924SOL    HW252551   8.731  10.159   1.145  1.1932  1.0408 -1.7472
47925SOL     OW52552   5.782   7.344   1.318 -0.6515  0.2993  0.7620
47925SOL    HW152553   5.732   7.310   1.392  0.2515 -1.9778  0.4032
47925SOL    HW252554   5.725   7.331   1.242  0.5742 -2.9662  0.2418
47926SOL     OW52555  10.658  11.784  10.323 -0.1149 -0.1173  0.3718
47926SOL    HW152556  10.668  11.713  10.260  2.2447  0.6176 -0.1622
47926SOL    HW252557  10.672  11.864  10.272  0.1508  0.5846  1.5130
47927SOL     OW52558  12.448   8.978   4.856  0.1221  0.0187 -0.1635
47927SOL    HW152559  12.360   8.965   4.822  0.1415 -1.9561  0.3790
47927SOL    HW252560  12.502   8.916   4.806  1.2270  1.2532 -0.5397
47928SOL     OW52561   8.161   3.824  10.802 -0.0418 -0.4776 -0.5005
47928SOL    HW152562   8.111   3.906  10.793 -0.0393 -0.3333  0.6353
47928SOL    HW252563   8.137   3.772  10.726  0.1727  0.6994 -1.3914
47929SOL     OW52564   8.457   0.095   5.380  0.4969 -0.5617  0.1432
47929SOL    HW152565   8.454   0.094   5.284 -2.6910  1.4772  0.0420
47929SOL    HW252566   8.490   0.183   5.402 -1.1862 -0.0427  0.7816
47930SOL     OW52567   0.641   9.599   3.826 -0.4487  0.0618  0.2325
47930SOL    HW152568   0.694   9.535   3.874 -1.1598  0.1105  1.1244
47930SOL    HW252569   0.595   9.547   3.760  0.6694  0.0168 -0.5369
47931SOL     OW52570  11.061   6.394   3.649 -0.0554  0.4159 -0.1565
47931SOL    HW152571  11.072   6.338   3.572  0.3704  1.3387 -0.7772
47931SOL    HW252572  10.984   6.359   3.693 -0.9547  0.5355 -1.5842
47932SOL     OW52573   4.075   5.503   7.791 -0.2315 -0.0209 -0.3149
47932SOL    HW152574   4.095   5.538   7.704 -0.2488  2.5401  0.6337
47932SOL    HW252575   3.991   5.457   7.780  0.2320 -0.5584 -1.8183
47933SOL     OW52576  11.751   6.514  11.945  0.3818  0.2499  0.8700
47933SOL    HW152577  11.739   6.609  11.943 -2.1141 -0.0242 -0.6548
47933SOL    HW252578  11.715   6.483  11.862 -0.3538 -2.1899  2.0129
47934SOL     OW52579   3.529   6.282   9.475 -0.4961  0.4719 -0.2401
47934SOL    HW152580   3.482   6.289   9.392 -0.4890 -1.1660 -0.4131
47934SOL    HW252581   3.461   6.286   9.542 -0.6955  0.0584 -0.4107
47935SOL     OW52582   7.068   5.078  11.873 -0.0669  0.0892 -0.3613
47935SOL    HW152583   7.058   5.169  11.847  3.2418  1.4586  2.4430
47935SOL    HW252584   7.029   5.073  11.960  0.4676 -0.9949 -0.1630
47936SOL     OW52585   0.466  11.137   6.599 -0.2604  0.9781 -0.1350
47936SOL    HW152586   0.518  11.059   6.580 -1.1340  0.8024 -2.0515
47936SOL    HW252587   0.526  11.210   6.581 -0.1509  0.7646 -0.6565
47937SOL     OW52588   9.489   6.926   0.860 -0.6126  0.1421 -0.6032
47937SOL    HW152589   9.513   6.937   0.768  0.0783  0.7351 -0.3552
47937SOL    HW252590   9.512   6.836   0.880  2.1239  0.8571 -0.1886
47938SOL     OW52591   0.103   2.325  10.605 -0.2999 -0.0892  0.2605
47938SOL    HW152592   0.043   2.254  10.583  1.0511 -1.0839 -0.4020
47938SOL    HW252593   0.128   2.363  10.521  0.7010 -0.3230  0.4366
47939SOL     OW52594   3.787   9.889  10.187  0.2283  0.2950 -0.0390
47939SOL    HW152595   3.722   9.944  10.231  0.6908  0.7908  0.0222
47939SOL    HW252596   3.760   9.890  10.095 -0.5025 -0.4137  0.1530
47940SOL     OW52597   2.514   4.434  10.327  0.0384 -0.6972 -0.1153
47940SOL    HW152598   2.518   4.429  10.231 -0.6451 -2.2831 -0.0820
47940SOL    HW252599   2.597   4.475  10.352 -0.6313  1.6829 -1.4767
47941SOL     OW52600  10.210   5.889  10.635 -0.6381  0.3266 -0.2031
47941SOL    HW152601  10.151   5.956  10.670  1.4947  0.7766  2.9259
47941SOL    HW252602  10.196   5.813  10.691  1.9030  0.5761  0.9143
47942SOL     OW52603   5.282   8.301   8.084 -0.1439  0.3908  0.1454
47942SOL    HW152604   5.271   8.312   8.178  1.1074 -0.1411  0.3819
47942SOL    HW252605   5.358   8.355   8.062 -0.6244  0.7733 -0.6277
47943SOL     OW52606   2.820  10.385   4.975 -0.1322  0.2509  0.7032
47943SOL    HW152607   2.805  10.342   4.891  0.1001  0.0842  0.7457
47943SOL    HW252608   2.884  10.454   4.955  0.6217 -0.3745  0.9102
47944SOL     OW52609   9.440   1.551   3.729  0.0038 -0.6073 -0.4843
47944SOL    HW152610   9.370   1.592   3.780 -0.9639 -1.7057 -0.8962
47944SOL    HW252611   9.500   1.517   3.796 -0.3626 -0.5224 -0.1046
47945SOL     OW52612   5.099   6.690   4.477 -0.1948  0.2330  0.3358
47945SOL    HW152613   5.086   6.778   4.443 -0.6910  0.0028 -0.0872
47945SOL    HW252614   5.190   6.689   4.509 -0.1205  0.8240  0.1476
47946SOL     OW52615  11.931   8.559  12.543  0.1252 -0.0862  0.3651
47946SOL    HW152616  11.854   8.551  12.599  0.2732 -1.9219  0.3704
47946SOL    HW252617  11.987   8.486  12.570  1.0559  0.1505 -0.8748
47947SOL     OW52618   4.995  11.033  11.770  0.0015  0.0349  0.1197
47947SOL    HW152619   5.050  11.035  11.692 -0.2251 -0.8387 -0.0750
47947SOL    HW252620   4.998  11.123  11.803  0.4586  0.3150 -0.6375
47948SOL     OW52621   5.989   8.010   6.799 -0.0111  0.1831  0.1313
47948SOL    HW152622   6.026   8.098   6.802  0.9831 -0.2600  2.1485
47948SOL    HW252623   6.006   7.981   6.709  0.0069  1.8560 -0.4544
47949SOL     OW52624   8.447   8.522   2.037 -0.0313  0.2412  0.0698
47949SOL    HW152625   8.363   8.476   2.031  1.0265 -1.7398 -0.2341
47949SOL    HW252626   8.490   8.506   1.953  1.0279  0.4699  0.5515
47950SOL     OW52627  10.483  10.835  12.297  0.0449 -0.6576  0.0003
47950SOL    HW152628  10.568  10.808  12.260  0.7144  0.3048  0.7693
47950SOL    HW252629  10.418  10.804  12.234  1.0402 -0.5226 -1.1278
47951SOL     OW52630   0.208   0.261   1.648  0.6933 -0.3326  0.7022
47951SOL    HW152631   0.259   0.285   1.570  1.1537  0.7848  1.3280
47951SOL    HW252632   0.119   0.245   1.614  0.8659  0.2246 -0.0385
47952SOL     OW52633   9.245   4.408   2.233 -0.0553 -0.0474 -0.0126
47952SOL    HW152634   9.313   4.467   2.263  2.5738 -1.5450 -2.4520
47952SOL    HW252635   9.218   4.444   2.148 -1.4793 -0.1268  0.3862
47953SOL     OW52636   0.984  12.131   5.501  0.3044 -0.0582  0.4274
47953SOL    HW152637   0.929  12.194   5.548  1.1031  0.9927 -0.0112
47953SOL    HW252638   1.024  12.182   5.430  1.7060 -0.8353  0.6289
47954SOL     OW52639  12.488  11.993  10.333 -0.2810  0.6230  0.4738
47954SOL    HW152640  12.577  12.008  10.365  1.1803  2.8695 -3.8508
47954SOL    HW252641  12.455  12.080  10.312 -1.3807 -0.4517 -2.8287
47955SOL     OW52642  11.589   8.972   4.531  0.1468 -0.4696  0.1815
47955SOL    HW152643  11.638   9.041   4.577 -0.1996  0.3356 -0.6442
47955SOL    HW252644  11.611   8.984   4.439 -2.0202  0.2754 -0.2970
47956SOL     OW52645   5.153   4.041  10.339  0.2007 -0.4194  0.0891
47956SOL    HW152646   5.146   4.132  10.365 -0.0457 -0.7566  1.2402
47956SOL    HW252647   5.207   4.043  10.259  0.5614  0.6775  0.3460
47957SOL     OW52648   5.926   7.400   6.164 -0.5940  0.3474  0.2439
47957SOL    HW152649   5.905   7.433   6.076  1.5252 -1.0188 -0.8686
47957SOL    HW252650   5.883   7.461   6.224 -0.1424  2.7228 -1.6985
47958SOL     OW52651   4.404  11.064   3.802 -0.5735 -0.1923  0.1849
47958SOL    HW152652   4.467  11.077   3.873 -1.8599  2.5275  0.9653
47958SOL    HW252653   4.322  11.042   3.847 -0.5973 -2.1522 -0.7324
47959SOL     OW52654   4.625   0.988   1.134 -0.2927 -0.5794 -0.2863
47959SOL    HW152655   4.682   0.946   1.198  0.9545 -1.4894 -1.9021
47959SOL    HW252656   4.588   0.916   1.083 -1.8414  0.0744 -0.1579
47960SOL     OW52657   3.893  11.491   8.870 -0.2700  0.2955 -0.7483
47960SOL    HW152658   3.874  11.520   8.959  0.2452  0.1130 -0.5763
47960SOL    HW252659   3.807  11.476   8.831 -0.6064  3.0590 -1.2167
47961SOL     OW52660   2.582   2.963   8.378 -0.7043  0.5239  0.3891
47961SOL    HW152661   2.600   2.997   8.465 -0.9085  0.3532  0.5018
47961SOL    HW252662   2.496   2.920   8.387 -0.0433 -0.8224  0.4895
47962SOL     OW52663   6.420  10.573   4.415  0.1684  0.1440 -0.2135
47962SOL    HW152664   6.414  10.610   4.327  0.5525  0.4070 -0.1318
47962SOL    HW252665   6.476  10.496   4.405  0.6384  0.4687 -0.1097
47963SOL     OW52666   5.182   5.947   2.183  0.2337  0.2444  0.0425
47963SOL    HW152667   5.108   5.973   2.237 -0.4668 -0.5226 -0.5267
47963SOL    HW252668   5.259   5.973   2.234 -0.4136  0.2246  1.0525
47964SOL     OW52669   7.977   0.961   4.733 -0.3011 -0.2675 -0.0298
47964SOL    HW152670   8.029   1.024   4.783 -0.1251  3.1574 -3.9214
47964SOL    HW252671   8.007   0.875   4.763  1.3658  1.4094  3.8348
47965SOL     OW52672   4.897  12.250   1.991  0.6012 -0.2257 -0.2108
47965SOL    HW152673   4.818  12.232   2.042  0.4673  2.9125  0.8473
47965SOL    HW252674   4.868  12.241   1.900 -0.5503 -0.6316  0.1684
47966SOL     OW52675   4.846   4.248  10.644  0.3670  0.7959 -0.1648
47966SOL    HW152676   4.888   4.206  10.569 -0.7088 -0.1719 -0.2728
47966SOL    HW252677   4.906   4.233  10.717  1.1820  1.2971 -0.7190
47967SOL     OW52678   8.070   4.459   8.551  0.6923  0.0431 -0.8617
47967SOL    HW152679   8.151   4.487   8.593  1.0052 -1.0571 -0.6946
47967SOL    HW252680   8.008   4.449   8.623  0.5082  0.5347 -0.9485
47968SOL     OW52681   9.208   1.755   4.423  0.6155  0.2626  0.1541
47968SOL    HW152682   9.170   1.672   4.393 -2.2851  1.4307  0.2141
47968SOL    HW252683   9.222   1.742   4.517 -0.0135 -0.1311  0.2027
47969SOL     OW52684  10.083   9.789  11.580 -0.3402 -0.6154  0.3465
47969SOL    HW152685  10.136   9.825  11.509 -1.6838 -0.6137 -0.6783
47969SOL    HW252686  10.141   9.793  11.657  0.0307  2.5286  0.0206
47970SOL     OW52687   5.005   3.435   1.951 -0.3627  0.6393  0.6290
47970SOL    HW152688   5.094   3.428   1.917 -0.7593 -1.6810 -0.1113
47970SOL    HW252689   4.956   3.477   1.880 -0.3777 -0.5265 -0.0680
47971SOL     OW52690   7.503   5.663   5.168  0.5691 -0.0038 -0.4602
47971SOL    HW152691   7.538   5.742   5.210 -0.2319 -1.6904  3.7992
47971SOL    HW252692   7.550   5.591   5.209 -0.9866 -1.9333 -1.8567
47972SOL     OW52693   7.753   7.551   0.152  1.0953 -0.2745 -0.0347
47972SOL    HW152694   7.691   7.599   0.208 -0.3342 -1.8605 -0.1959
47972SOL    HW252695   7.828   7.535   0.209  0.3765 -0.3704  0.9077
47973SOL     OW52696   3.205   7.903  12.447 -0.3304 -0.0775 -0.5119
47973SOL    HW152697   3.201   7.816  12.409 -0.1642 -0.9169  1.2915
47973SOL    HW252698   3.298   7.916  12.468 -0.5191 -0.0011  0.3417
47974SOL     OW52699  11.075   1.273   7.846 -0.0654  0.9031 -0.1843
47974SOL    HW152700  11.161   1.234   7.832 -0.2771  0.1476  0.4777
47974SOL    HW252701  11.070   1.346   7.784  0.9279  0.7714 -0.4314
47975SOL     OW52702   6.403   5.111   6.039 -0.3902 -0.5441 -0.4511
47975SOL    HW152703   6.461   5.178   6.077 -0.6695  0.6551 -2.0291
47975SOL    HW252704   6.319   5.125   6.083  0.0488 -1.1515  0.6062
47976SOL     OW52705   0.428   1.619   6.251 -0.4329 -0.2300  0.1317
47976SOL    HW152706   0.422   1.567   6.171 -0.7142 -1.3459  0.8404
47976SOL    HW252707   0.345   1.604   6.296 -0.7417  1.2959  0.1106
47977SOL     OW52708   6.793  12.044   3.620 -0.3663 -0.1201 -0.1215
47977SOL    HW152709   6.700  12.032   3.639 -0.6396  0.9097 -0.7822
47977SOL    HW252710   6.838  12.009   3.698 -1.1988 -2.6402 -0.6861
47978SOL     OW52711   9.936  11.238   9.692 -0.0687  0.0190 -0.0213
47978SOL    HW152712   9.995  11.247   9.767 -0.4773 -0.0919  0.3162
47978SOL    HW252713   9.866  11.302   9.709 -1.1867 -1.3447  0.6704
47979SOL     OW52714   3.914   5.287  11.106 -0.1037 -0.2537  0.0892
47979SOL    HW152715   3.834   5.293  11.053  1.0749 -2.2394 -2.1226
47979SOL    HW252716   3.940   5.195  11.101  1.8709  0.1649  1.4327
47980SOL     OW52717  11.027   5.958   6.199 -0.5738 -0.1359  0.3841
47980SOL    HW152718  11.094   6.019   6.227 -0.0713  0.5386 -2.1219
47980SOL    HW252719  11.073   5.892   6.148 -1.4305 -1.3786  1.1442
47981SOL     OW52720   8.039   5.520   8.265  0.1191  0.3012 -0.1152
47981SOL    HW152721   7.956   5.551   8.230  0.1195 -0.6214 -0.9878
47981SOL    HW252722   8.102   5.534   8.195  0.5483  0.3042  0.2653
47982SOL     OW52723   9.298  11.582   3.916 -0.3720 -0.2647  0.7362
47982SOL    HW152724   9.232  11.650   3.904 -2.0320 -2.0541 -0.9027
47982SOL    HW252725   9.269  11.534   3.994 -0.2025 -0.2129  0.8332
47983SOL     OW52726  10.178   2.647   3.416 -0.0862 -0.2810  0.5912
47983SOL    HW152727  10.124   2.726   3.414  1.5395  0.9251  1.5245
47983SOL    HW252728  10.166   2.611   3.504 -0.6883 -1.0084  0.2256
47984SOL     OW52729   4.719   7.118   4.453  0.2342  0.2390 -0.1458
47984SOL    HW152730   4.755   7.033   4.476 -0.0719 -0.0054 -0.5446
47984SOL    HW252731   4.662   7.100   4.378 -0.2586  0.7084  0.1112
47985SOL     OW52732   8.729   6.821   8.988 -0.1335 -0.4248 -0.3288
47985SOL    HW152733   8.681   6.831   8.905 -2.1326 -0.0158  0.8019
47985SOL    HW252734   8.759   6.909   9.009  1.7929 -0.7876 -1.3643
47986SOL     OW52735   7.158   7.441   0.665  0.1045  0.2096 -0.0145
47986SOL    HW152736   7.090   7.446   0.732  0.8776 -0.6020  0.8521
47986SOL    HW252737   7.221   7.509   0.690 -0.8592  1.7040 -1.4150
47987SOL     OW52738  11.477   2.838   3.548 -0.1451  0.7306  0.2018
47987SOL    HW152739  11.566   2.859   3.521 -0.3589  0.3379 -0.8567
47987SOL    HW252740  11.423   2.908   3.513 -0.6521 -0.6790 -1.9882
47988SOL     OW52741  12.464   4.019   0.389  0.2335  0.0953 -0.4677
47988SOL    HW152742  12.466   4.114   0.404  0.3658 -0.0747  0.7291
47988SOL    HW252743  12.422   4.008   0.304  2.1535  1.3405 -1.6593
47989SOL     OW52744   9.640   6.991   8.183  0.1380 -0.1173  0.4096
47989SOL    HW152745   9.663   6.910   8.137  0.0060 -0.2019  0.4904
47989SOL    HW252746   9.559   7.019   8.143  0.6912  0.5134 -0.2949
47990SOL     OW52747   4.185   1.278   3.956 -0.3772  0.1964 -0.3054
47990SOL    HW152748   4.276   1.293   3.982 -0.6074 -0.4504  0.9807
47990SOL    HW252749   4.157   1.203   4.010 -2.4529  1.9725  1.2733
47991SOL     OW52750   5.724   8.242  11.150  0.3201  0.1749 -0.2387
47991SOL    HW152751   5.722   8.336  11.166 -0.0602  0.2306 -0.6009
47991SOL    HW252752   5.644   8.224  11.102  0.0895 -0.4380  0.3603
47992SOL     OW52753  12.590   6.197   5.440 -0.4722  0.1424  0.4359
47992SOL    HW152754  12.564   6.280   5.400  0.9771  0.3184 -0.1830
47992SOL    HW252755  12.682   6.187   5.418 -0.6546 -1.7215  0.3654
47993SOL     OW52756   5.499  10.153   1.960 -0.4232 -0.3268  0.6037
47993SOL    HW152757   5.493  10.087   2.029 -2.1156  0.8183  1.6216
47993SOL    HW252758   5.534  10.105   1.885  1.0235 -1.7301  2.0674
47994SOL     OW52759  10.997   9.983   0.219 -0.1127 -0.1786 -0.5019
47994SOL    HW152760  10.929  10.040   0.254 -2.2690 -1.9803 -1.5309
47994SOL    HW252761  11.059  10.042   0.176 -0.5355  1.5774  1.1871
47995SOL     OW52762  10.929   5.412   0.080 -0.4342 -0.2218 -0.1447
47995SOL    HW152763  10.890   5.498   0.067  0.4072  0.2666  0.4993
47995SOL    HW252764  10.956   5.411   0.171 -0.7788 -1.3217 -0.0395
47996SOL     OW52765   8.708   0.926   4.201  0.3983 -0.4527  0.3976
47996SOL    HW152766   8.798   0.923   4.168 -0.8775 -0.6563 -3.6553
47996SOL    HW252767   8.673   1.009   4.169 -1.4255 -1.3140  0.0045
47997SOL     OW52768   1.501   9.864   3.543  0.6620  0.7446  0.1308
47997SOL    HW152769   1.499   9.932   3.476  2.8637  0.9620  0.2218
47997SOL    HW252770   1.518   9.783   3.496 -0.7350  0.4126  0.1542
47998SOL     OW52771  11.369   1.404   9.939  0.3786 -0.0042 -0.2401
47998SOL    HW152772  11.278   1.427   9.923  0.3066  0.7987  1.1421
47998SOL    HW252773  11.377   1.313   9.911 -0.9820 -0.2354  0.0801
47999SOL     OW52774  12.438   4.958   1.319 -0.6185  0.0251  0.2947
47999SOL    HW152775  12.502   4.997   1.378  1.7309 -1.5273 -1.0626
47999SOL    HW252776  12.418   4.872   1.358 -0.3011 -0.3274 -0.3000
48000SOL     OW52777  10.883   3.988   4.221 -0.2488  0.0049  0.5727
48000SOL    HW152778  10.890   4.068   4.273  0.5371 -0.3927  1.1005
48000SOL    HW252779  10.892   3.917   4.285  1.5181 -0.4985 -0.1707
48001SOL     OW52780  12.499  10.666   8.130  0.5588 -0.0159  0.3256
48001SOL    HW152781  12.428  10.637   8.073 -1.1351  1.8703  1.3478
48001SOL    HW252782  12.574  10.677   8.071 -0.8256  0.8108 -1.3641
48002SOL     OW52783   4.038   0.203  11.479  0.8254  0.7008  0.4662
48002SOL    HW152784   4.011   0.114  11.456  2.2468  0.3830 -0.1031
48002SOL    HW252785   4.054   0.246  11.395 -1.6601  2.1475  0.6466
48003SOL     OW52786   2.417   8.045   1.012 -0.1053  0.2466  0.4110
48003SOL    HW152787   2.404   8.120   1.070  0.1046 -0.0985  0.9055
48003SOL    HW252788   2.464   8.081   0.937  0.8133  0.4398  1.0587
48004SOL     OW52789   7.711   9.722   4.475  0.1301  0.0679 -0.1247
48004SOL    HW152790   7.691   9.814   4.493  0.7211  0.4191 -1.1661
48004SOL    HW252791   7.756   9.691   4.553 -0.3522  0.5648  0.3625
48005SOL     OW52792   5.471   0.735  11.087  0.1292  0.3019  0.1023
48005SOL    HW152793   5.390   0.785  11.099  0.8104  1.7944 -1.1436
48005SOL    HW252794   5.451   0.675  11.015  0.2516  0.9972 -0.5220
48006SOL     OW52795   9.388   5.063   7.886  0.1554 -0.1816 -0.2622
48006SOL    HW152796   9.336   5.143   7.879  1.3585  0.6098 -0.4917
48006SOL    HW252797   9.356   5.020   7.965 -0.0683  0.8550  0.2227
48007SOL     OW52798   9.550   6.214   1.616  0.0286 -0.3319 -0.0742
48007SOL    HW152799   9.608   6.240   1.688  1.2587 -0.2164 -1.0747
48007SOL    HW252800   9.533   6.121   1.631 -0.1998 -0.1780  0.6685
48008SOL     OW52801   9.005   9.297   3.742  0.1460  0.1897  0.1295
48008SOL    HW152802   8.975   9.211   3.713 -0.7350  0.1743  1.0485
48008SOL    HW252803   8.959   9.359   3.685  0.6585  0.0712 -0.4254
48009SOL     OW52804   3.911   6.215   2.310 -0.0733 -0.4582  0.2081
48009SOL    HW152805   3.897   6.134   2.261  0.4255  0.3692 -1.3422
48009SOL    HW252806   3.837   6.218   2.371 -0.4277 -1.7694 -0.1100
48010SOL     OW52807  10.084   1.548   5.769  0.3320  0.2930 -0.5807
48010SOL    HW152808  10.011   1.599   5.804 -0.0164 -1.0520  0.7608
48010SOL    HW252809  10.041   1.476   5.722  0.8167  0.2823 -1.0149
48011SOL     OW52810   3.461   2.820   7.177 -0.2316  0.1111  0.2638
48011SOL    HW152811   3.419   2.747   7.133 -0.8671 -0.3420  1.5650
48011SOL    HW252812   3.541   2.835   7.127 -0.3178 -1.1695 -0.3059
48012SOL     OW52813   4.033   7.911   4.678 -0.1428 -0.1636  0.1470
48012SOL    HW152814   4.000   7.998   4.704 -0.3010 -0.0531 -0.4141
48012SOL    HW252815   4.127   7.915   4.695 -0.2438 -0.0964  0.7095
48013SOL     OW52816   6.312  12.594   9.777 -0.0047 -0.3417 -0.2648
48013SOL    HW152817   6.261  12.606   9.857 -0.4137  0.9358 -0.6981
48013SOL    HW252818   6.292  12.670   9.724 -0.1780 -1.4358 -1.8385
48014SOL     OW52819   0.883  10.263   2.340  0.6443 -0.3576 -0.4129
48014SOL    HW152820   0.964  10.224   2.308  0.6709 -0.0891 -0.6804
48014SOL    HW252821   0.826  10.267   2.263 -0.0549 -1.5963  0.0006
48015SOL     OW52822   9.756   3.662  12.070  0.0801  0.0703 -0.1641
48015SOL    HW152823   9.733   3.696  12.157  0.2856 -0.8512  0.2661
48015SOL    HW252824   9.719   3.574  12.069  0.7434 -0.2083 -0.7204
48016SOL     OW52825   9.298   1.829   3.081  0.2347 -0.9052  0.2503
48016SOL    HW152826   9.351   1.813   3.159 -0.8772  0.0692  1.2508
48016SOL    HW252827   9.209   1.805   3.107 -0.1339 -0.7176 -0.7782
48017SOL     OW52828   5.478   0.244   1.800  0.2316 -0.7747  0.0198
48017SOL    HW152829   5.383   0.253   1.803  0.3424  0.7053 -0.1398
48017SOL    HW252830   5.497   0.166   1.852 -1.0728 -1.1716 -0.0813
48018SOL     OW52831  10.835   0.964   4.690 -0.1176  0.2811  0.1362
48018SOL    HW152832  10.773   1.034   4.668  0.3496  0.1885 -1.5631
48018SOL    HW252833  10.779   0.890   4.712 -0.6086  0.7664  0.5871
48019SOL     OW52834   3.875   0.635   1.696 -0.1118  0.7033 -0.2912
48019SOL    HW152835   3.839   0.554   1.658  0.1241  0.7656 -0.6510
48019SOL    HW252836   3.959   0.647   1.652 -0.5817  1.6703 -0.9447
48020SOL     OW52837  11.886   3.809   8.519  0.0704  0.1948  0.7917
48020SOL    HW152838  11.928   3.723   8.522 -1.4789 -0.6468  0.0192
48020SOL    HW252839  11.875   3.834   8.611  0.5867 -0.4128  1.0256
48021SOL     OW52840  11.374   1.122  10.655  0.2214  0.0341 -0.2724
48021SOL    HW152841  11.378   1.190  10.722 -2.6977 -0.1282  0.1897
48021SOL    HW252842  11.362   1.041  10.703 -0.3079 -0.2910 -0.9362
48022SOL     OW52843   9.994   2.896   1.215  0.1678 -0.0005 -0.3311
48022SOL    HW152844   9.985   2.938   1.301  1.0169 -0.0685 -0.2070
48022SOL    HW252845   9.933   2.945   1.159 -0.7823 -0.2889  0.4205
48023SOL     OW52846  11.041   4.637   6.124 -0.5051  0.0879 -0.3981
48023SOL    HW152847  10.977   4.643   6.195  0.0096  0.5808  0.0368
48023SOL    HW252848  11.125   4.659   6.166 -0.2162  0.5065 -1.1852
48024SOL     OW52849   0.689   8.005   9.152  0.3068  0.3048  0.4412
48024SOL    HW152850   0.601   7.976   9.126  0.1458  0.3582  0.9148
48024SOL    HW252851   0.748   7.958   9.093  0.0157 -0.5209  0.7878
48025SOL     OW52852  11.850   3.127   9.289 -0.6186 -0.1168  0.0349
48025SOL    HW152853  11.816   3.103   9.375  0.5137 -1.1047  0.2375
48025SOL    HW252854  11.874   3.044   9.249 -0.2717  0.4031 -0.8592
48026SOL     OW52855   3.159   6.525   3.511  0.2080  0.1771 -0.2507
48026SOL    HW152856   3.169   6.595   3.446 -0.6542 -0.6960 -1.3640
48026SOL    HW252857   3.194   6.447   3.467  0.1708 -0.3086  0.5685
48027SOL     OW52858   2.859  10.138   9.480  0.0136  0.3254 -0.3725
48027SOL    HW152859   2.897  10.199   9.544 -0.5272 -0.7542  1.0523
48027SOL    HW252860   2.933  10.086   9.450  0.1085  0.0464  0.3175
48028SOL     OW52861  10.319  11.807   3.316  0.4831  0.7781 -0.3404
48028SOL    HW152862  10.335  11.900   3.302  0.1000  0.8996  0.0143
48028SOL    HW252863  10.385  11.780   3.380 -0.5577  1.2311  0.9652
48029SOL     OW52864   1.833   2.786   6.299  0.1865  0.1541  0.2910
48029SOL    HW152865   1.803   2.788   6.208 -0.5027  0.7931  0.5289
48029SOL    HW252866   1.769   2.837   6.347 -0.2172 -1.3346  1.3894
48030SOL     OW52867   6.215   7.957  10.962  0.1432 -0.1181 -0.2308
48030SOL    HW152868   6.186   7.877  11.005 -1.3270  0.3312 -0.3159
48030SOL    HW252869   6.299   7.935  10.923 -0.4353 -1.7462 -0.6279
48031SOL     OW52870  12.596   8.185   5.645  0.4825 -0.6187  0.3547
48031SOL    HW152871  12.565   8.262   5.597  0.6665 -0.7855 -0.0328
48031SOL    HW252872  12.517   8.131   5.657 -0.0780  0.5878  2.4670
48032SOL     OW52873   1.882   4.599   1.404 -0.1652 -0.0121 -0.1717
48032SOL    HW152874   1.945   4.641   1.346 -0.8257  0.4868 -0.5340
48032SOL    HW252875   1.880   4.654   1.482  1.2043 -1.0315  0.6333
48033SOL     OW52876  12.392   0.193   4.133 -0.2800 -0.6211 -0.0833
48033SOL    HW152877  12.350   0.121   4.180  1.6225 -2.3067 -0.8038
48033SOL    HW252878  12.480   0.161   4.114  0.6889  1.9704 -0.3680
48034SOL     OW52879   7.221   9.649   3.970 -0.2310  0.0280  0.2610
48034SOL    HW152880   7.157   9.710   3.935 -0.8305 -0.7071  0.0585
48034SOL    HW252881   7.239   9.589   3.898 -0.5638 -0.7604  0.8252
48035SOL     OW52882   8.433   8.018   0.081 -0.1366  0.0169 -0.3339
48035SOL    HW152883   8.461   7.945   0.136  0.0448  1.4107  1.5069
48035SOL    HW252884   8.362   7.982   0.028  1.2125 -1.9865 -0.8751
48036SOL     OW52885   4.005   3.635   5.128 -0.7333  0.3098 -0.1446
48036SOL    HW152886   3.993   3.713   5.183 -2.3977  0.2167 -0.3194
48036SOL    HW252887   4.072   3.584   5.173  2.6122  3.1013 -1.4849
48037SOL     OW52888   9.956   4.561   0.345  0.9090  0.3869 -0.6229
48037SOL    HW152889  10.026   4.589   0.287 -0.0654 -1.0945 -2.6017
48037SOL    HW252890   9.908   4.495   0.296 -1.9148  1.3475  0.6341
48038SOL     OW52891   2.650   4.657   7.077  0.1283 -0.6153 -0.5442
48038SOL    HW152892   2.703   4.583   7.107 -0.3689 -0.2602  1.3594
48038SOL    HW252893   2.560   4.632   7.099 -0.1192  0.2184 -0.5743
48039SOL     OW52894   5.391   2.081   3.492  0.7220 -0.0247 -0.6766
48039SOL    HW152895   5.400   2.175   3.505 -0.3458  0.0651 -0.5077
48039SOL    HW252896   5.442   2.063   3.412  1.3229  0.6005 -0.4469
48040SOL     OW52897   5.217   4.451   1.868  0.5220  0.2728  0.3950
48040SOL    HW152898   5.191   4.523   1.925  0.9405  1.6122 -1.0271
48040SOL    HW252899   5.135   4.404   1.851  0.1460  0.7066  0.9384
48041SOL     OW52900   8.463  10.934   2.764  0.6808 -0.5516  0.4642
48041SOL    HW152901   8.478  10.889   2.681 -0.4311 -1.6823  0.8440
48041SOL    HW252902   8.435  11.022   2.737  2.6161 -0.1106 -0.2854
48042SOL     OW52903  10.989   5.115   6.028  0.0216  0.3965  0.1530
48042SOL    HW152904  10.916   5.111   6.091  1.0973  1.7074  1.5454
48042SOL    HW252905  11.019   5.024   6.022 -1.0161  0.0118  0.3859
48043SOL     OW52906   5.837   4.837   8.529 -0.4774 -0.1423  0.2340
48043SOL    HW152907   5.880   4.783   8.462 -0.3840 -1.7660  1.5323
48043SOL    HW252908   5.799   4.910   8.480  1.9623  0.2472 -1.2070
48044SOL     OW52909   0.253   3.614   8.064 -0.0332 -0.1559  0.0197
48044SOL    HW152910   0.270   3.595   8.156 -1.1470  1.2248  0.5418
48044SOL    HW252911   0.255   3.709   8.058 -0.4189 -0.2084 -1.3105
48045SOL     OW52912   2.517   8.942   5.486 -0.4984 -0.3013 -0.4279
48045SOL    HW152913   2.546   8.969   5.399 -1.5620  2.6751  0.0130
48045SOL    HW252914   2.426   8.915   5.475 -0.2598 -1.1400 -0.4125
48046SOL     OW52915  11.994   7.778   8.293 -0.3833 -0.1828 -0.4981
48046SOL    HW152916  11.930   7.725   8.245  0.6702 -0.8490 -1.2084
48046SOL    HW252917  12.017   7.848   8.232 -0.6165  0.2096 -0.1429
48047SOL     OW52918  11.230  10.532  10.056 -0.2151  0.1994  0.2976
48047SOL    HW152919  11.303  10.481  10.090 -0.9026 -1.0731 -0.0964
48047SOL    HW252920  11.267  10.620  10.042  0.1348  0.8679  4.2520
48048SOL     OW52921   7.816   2.735  12.221  0.4754 -0.5009 -0.2210
48048SOL    HW152922   7.871   2.789  12.165  1.3522 -0.9531  0.1788
48048SOL    HW252923   7.757   2.689  12.161  1.2402 -0.8025 -0.7471
48049SOL     OW52924   1.677   0.095   7.480 -0.0120 -0.3016 -0.2134
48049SOL    HW152925   1.625   0.014   7.474  1.5499 -1.3343 -0.2499
48049SOL    HW252926   1.642   0.150   7.410 -3.1508  0.3327  1.6648
48050SOL     OW52927  12.493  10.276   0.516 -0.2381  0.1666  0.1016
48050SOL    HW152928  12.453  10.352   0.559  0.5287 -0.6153  2.3282
48050SOL    HW252929  12.586  10.298   0.511 -0.2300 -0.0050 -0.6955
48051SOL     OW52930   2.968   5.092  12.293  0.0594 -0.0754 -0.5201
48051SOL    HW152931   2.973   5.186  12.310 -0.7499 -0.2883  1.1436
48051SOL    HW252932   2.921   5.085  12.210 -2.8687  0.9810  0.9065
48052SOL     OW52933   7.884   7.365   4.245 -0.2229  0.3522 -0.2148
48052SOL    HW152934   7.820   7.373   4.174 -1.3532 -1.4645  0.5318
48052SOL    HW252935   7.904   7.455   4.270 -1.4108  0.9781 -1.4264
48053SOL     OW52936   7.214   0.612  10.103 -0.3214 -0.1267 -0.2391
48053SOL    HW152937   7.291   0.668  10.114  1.1045 -1.9236 -0.4036
48053SOL    HW252938   7.169   0.615  10.188  1.5182 -1.1756  0.8523
48054SOL     OW52939   4.703   7.285   5.752  0.3498 -0.0462 -0.6913
48054SOL    HW152940   4.778   7.235   5.720  2.3580  1.8332  0.7833
48054SOL    HW252941   4.706   7.367   5.703  0.4355  0.8213  0.7149
48055SOL     OW52942  11.298   7.854  10.273 -0.3284 -0.2626 -0.4505
48055SOL    HW152943  11.294   7.801  10.193  1.8753 -1.6066  0.2088
48055SOL    HW252944  11.392   7.861  10.292 -0.6012  2.6408  0.3842
48056SOL     OW52945   7.933   6.473  12.424 -0.1437  0.2671 -0.2432
48056SOL    HW152946   7.859   6.452  12.480  0.8140  1.8957  1.7496
48056SOL    HW252947   7.900   6.540  12.364 -0.6564 -0.0892 -0.3696
48057SOL     OW52948   2.337   4.839   0.868 -0.3908  0.0872  0.0481
48057SOL    HW152949   2.250   4.800   0.872  0.0916 -1.1351 -0.6198
48057SOL    HW252950   2.329   4.912   0.807 -0.4563 -1.5288 -2.0137
48058SOL     OW52951   2.037   0.909   0.467  0.3449 -0.2025 -0.2562
48058SOL    HW152952   2.004   0.844   0.405  0.9860  0.1962 -1.0383
48058SOL    HW252953   2.004   0.993   0.434  2.8237  0.3294 -1.6282
48059SOL     OW52954   0.425   2.732   9.238 -0.3504  0.1509 -0.2064
48059SOL    HW152955   0.466   2.783   9.307  1.0271 -1.0982 -0.0610
48059SOL    HW252956   0.428   2.790   9.161 -0.1924  0.8346  0.3005
48060SOL     OW52957   3.714   2.793   9.432 -0.3286 -0.7672 -0.0335
48060SOL    HW152958   3.676   2.724   9.378  0.2503 -0.0388 -1.4123
48060SOL    HW252959   3.765   2.846   9.371 -0.6583  0.8096  1.0162
48061SOL     OW52960   4.077   3.359  10.599 -0.1251 -0.1429 -0.1554
48061SOL    HW152961   4.112   3.438  10.557  1.1565 -0.1351  0.8709
48061SOL    HW252962   3.984   3.376  10.610 -0.0707  0.7561 -0.9512
48062SOL     OW52963  11.390   7.610   6.522  0.5532  0.5767  0.6306
48062SOL    HW152964  11.297   7.611   6.545 -0.0004  1.2226 -1.4346
48062SOL    HW252965  11.415   7.518   6.529 -1.1094 -0.1573 -1.8592
48063SOL     OW52966   2.348   8.001   3.332  0.2898  0.1820 -0.4950
48063SOL    HW152967   2.421   8.027   3.389  1.0191  0.3504 -1.4817
48063SOL    HW252968   2.313   7.922   3.373 -0.0695  1.0280  0.9304
48064SOL     OW52969  11.804   0.464   7.505 -0.1791  0.5314  0.0638
48064SOL    HW152970  11.860   0.440   7.579  0.4971  0.8395 -0.3406
48064SOL    HW252971  11.823   0.398   7.438  0.7689  1.4313 -0.5937
48065SOL     OW52972  10.967   4.533   8.767 -0.2195  0.0779  0.0587
48065SOL    HW152973  10.979   4.622   8.733  0.7087 -0.4916 -1.1991
48065SOL    HW252974  10.993   4.539   8.859  1.9892  0.6849 -0.5263
48066SOL     OW52975   6.428  12.379   7.933 -0.4364  0.9683  0.4703
48066SOL    HW152976   6.339  12.356   7.960 -1.1444  1.3507 -1.3270
48066SOL    HW252977   6.418  12.408   7.842  1.8478 -1.0571 -0.5280
48067SOL     OW52978   5.297   1.038  12.531 -0.0276 -0.2274  0.0589
48067SOL    HW152979   5.304   1.098  12.606 -0.7919  1.6291 -1.2788
48067SOL    HW252980   5.227   0.977  12.557 -0.0807  0.2005  0.9828
48068SOL     OW52981   6.050   0.652  12.549 -0.1191  0.1615 -0.5961
48068SOL    HW152982   6.097   0.714  12.492  0.5759 -0.3606 -0.6081
48068SOL    HW252983   6.100   0.570  12.541  0.9547  0.4903  2.0180
48069SOL     OW52984   7.922   5.906  10.485 -0.1431 -0.3387  0.2241
48069SOL    HW152985   7.909   5.960  10.563 -0.1775  0.2540 -0.1814
48069SOL    HW252986   8.017   5.908  10.470 -0.0097 -1.3617  0.8796
48070SOL     OW52987   7.387   4.592   4.921  0.2197  0.3061 -0.2706
48070SOL    HW152988   7.464   4.583   4.864  0.1307 -0.5616 -0.2742
48070SOL    HW252989   7.364   4.502   4.944  0.4550  0.6380  1.4007
48071SOL     OW52990   1.949   1.817   4.923 -0.0839  0.3212  0.2151
48071SOL    HW152991   1.917   1.826   4.833  0.2775 -0.6283 -0.0283
48071SOL    HW252992   1.960   1.906   4.955 -3.7307  0.7628  0.6092
48072SOL     OW52993   8.692   2.676   3.040  0.3986 -0.1188 -0.0889
48072SOL    HW152994   8.739   2.754   3.012  0.7008 -0.0787  0.5085
48072SOL    HW252995   8.600   2.701   3.034  0.4684  0.0419 -0.5772
48073SOL     OW52996   5.630   8.129  12.455 -0.6950  0.1974  0.5501
48073SOL    HW152997   5.682   8.062  12.409 -1.5316 -1.6024  2.0847
48073SOL    HW252998   5.678   8.210  12.441  2.4038 -1.2936  1.6028
48074SOL     OW52999   3.217   7.510   3.789  0.4936  0.2667 -0.9254
48074SOL    HW153000   3.145   7.527   3.729 -0.6538 -0.5183  0.1759
48074SOL    HW253001   3.174   7.486   3.872  1.9998 -1.0398 -0.4740
48075SOL     OW53002   0.802  12.090   3.500  0.0779  0.3633  0.2107
48075SOL    HW153003   0.851  12.012   3.473  0.7035  1.2949 -1.4951
48075SOL    HW253004   0.854  12.127   3.571  0.8169  0.2396 -0.2453
48076SOL     OW53005   5.833  11.189   0.461 -0.7929  0.3535  0.1523
48076SOL    HW153006   5.835  11.246   0.384 -2.9788 -0.9835 -0.9996
48076SOL    HW253007   5.871  11.107   0.431 -2.1571 -0.3604  0.2687
48077SOL     OW53008   0.526  12.193   1.206  0.0676  0.3553 -0.2552
48077SOL    HW153009   0.578  12.185   1.126 -0.3526 -0.4912 -0.4589
48077SOL    HW253010   0.589  12.176   1.277  0.0064 -1.1940 -0.5206
48078SOL     OW53011  10.416   6.007   1.787  0.2952  0.3487 -0.2456
48078SOL    HW153012  10.362   5.977   1.714 -0.4684 -0.8986  0.7829
48078SOL    HW253013  10.375   6.090   1.814 -0.3931  0.0170 -0.2411
48079SOL     OW53014   5.454  10.535   8.029  0.2321  0.2798 -0.1873
48079SOL    HW153015   5.508  10.614   8.030 -0.8348  1.0314  0.7618
48079SOL    HW253016   5.516  10.463   8.041  1.1772  0.9921 -0.6682
48080SOL     OW53017   0.722  10.632  10.903  0.7467  0.2783 -0.2695
48080SOL    HW153018   0.706  10.538  10.914 -0.2323  0.3718 -0.7439
48080SOL    HW253019   0.643  10.674  10.937  0.7424  0.8784 -0.9962
48081SOL     OW53020   0.815   0.990   6.949 -0.1366  0.0024 -0.4878
48081SOL    HW153021   0.818   0.934   7.027  0.6244 -1.1439 -1.3019
48081SOL    HW253022   0.765   0.939   6.886 -0.4745  0.7868 -0.8580
48082SOL     OW53023   9.009   7.153   2.440 -0.2185 -0.1116  0.8632
48082SOL    HW153024   8.921   7.145   2.404 -0.7996 -0.6052  2.3033
48082SOL    HW253025   8.997   7.199   2.523  1.3102  2.7774 -0.4006
48083SOL     OW53026  10.350   8.321  11.362 -0.0962  0.5376 -0.1887
48083SOL    HW153027  10.430   8.268  11.361 -0.3225  0.1950 -0.3718
48083SOL    HW253028  10.299   8.287  11.435 -0.4914  0.1241 -0.6540
48084SOL     OW53029   1.147   4.280  11.741 -0.6593  0.3583  0.0570
48084SOL    HW153030   1.240   4.289  11.722 -0.5947  3.0464  1.1849
48084SOL    HW253031   1.104   4.293  11.657 -0.0498 -2.9482 -0.8823
48085SOL     OW53032   1.957   8.215  11.965  0.0794 -0.2199 -0.2113
48085SOL    HW153033   2.051   8.234  11.972 -0.0820  0.4857  0.0451
48085SOL    HW253034   1.940   8.214  11.871  0.4155 -0.7118 -0.2693
48086SOL     OW53035   7.821   7.054   0.214  0.4339  0.3318 -0.3918
48086SOL    HW153036   7.887   7.114   0.250 -0.0565 -0.0221  1.2192
48086SOL    HW253037   7.794   7.002   0.290 -0.5050 -0.6484 -1.3737
48087SOL     OW53038   8.317   4.150  10.075  0.2053 -0.0303  0.2658
48087SOL    HW153039   8.380   4.191  10.016  2.5084 -1.9925  1.1419
48087SOL    HW253040   8.233   4.159  10.032  1.3130  1.3225 -1.7727
48088SOL     OW53041   3.888   1.049   8.234  0.3994  0.4299 -0.0676
48088SOL    HW153042   3.835   1.116   8.189 -0.3245  0.0863  0.2586
48088SOL    HW253043   3.975   1.059   8.196 -0.1242  0.3470 -1.3510
48089SOL     OW53044   3.305  10.819   9.264 -0.1263  0.3901  0.7479
48089SOL    HW153045   3.351  10.735   9.269  0.3751  0.6437  0.3842
48089SOL    HW253046   3.321  10.861   9.349  0.0704  0.3576  0.7254
48090SOL     OW53047  10.389   6.409   6.942 -0.5650 -0.2322 -0.1858
48090SOL    HW153048  10.300   6.401   6.974 -0.2969 -0.9044  0.4120
48090SOL    HW253049  10.380   6.455   6.858 -1.3853  0.4537  0.2602
48091SOL     OW53050   8.094  10.436   2.302 -0.2934  0.0408 -0.2661
48091SOL    HW153051   8.143  10.435   2.220  0.9049 -1.4062  0.4123
48091SOL    HW253052   8.035  10.361   2.296  0.7081 -0.8671  0.6664
48092SOL     OW53053   9.272   1.727   4.718 -0.9605 -0.1498  0.0399
48092SOL    HW153054   9.327   1.655   4.749 -0.2292 -0.1508 -1.2274
48092SOL    HW253055   9.318   1.806   4.747 -0.9127 -0.1641  0.0013
48093SOL     OW53056   0.266  12.014  10.257  0.2913  0.0388  0.3989
48093SOL    HW153057   0.312  12.098  10.254 -0.5171  0.5633  1.7826
48093SOL    HW253058   0.304  11.963  10.186  1.1900  1.3775 -0.1115
48094SOL     OW53059   9.979  11.636  12.178 -0.4586 -0.0421  0.4251
48094SOL    HW153060  10.015  11.701  12.238 -0.4167  0.7796 -0.4677
48094SOL    HW253061  10.049  11.572  12.167  0.0431  0.5496  0.1625
48095SOL     OW53062  12.123   5.460   6.397 -0.5602 -0.1057 -0.0287
48095SOL    HW153063  12.198   5.403   6.381 -1.6412 -1.5967 -0.0030
48095SOL    HW253064  12.050   5.400   6.410 -1.9824  1.3102 -1.1346
48096SOL     OW53065  12.193   6.533  10.336 -0.1062 -0.4952  0.2664
48096SOL    HW153066  12.209   6.454  10.284 -0.9928 -0.9338  0.6401
48096SOL    HW253067  12.186   6.501  10.426 -0.2253  0.0443  0.4511
48097SOL     OW53068   5.818   5.333   0.547  0.1844  0.1003  0.1208
48097SOL    HW153069   5.895   5.327   0.604  1.5995 -1.8208 -1.7995
48097SOL    HW253070   5.802   5.427   0.538  1.9253  0.5319  1.0837
48098SOL     OW53071   7.114   9.455  11.839 -0.1236 -0.3919  0.2823
48098SOL    HW153072   7.059   9.379  11.820  1.4411 -1.1711 -1.4174
48098SOL    HW253073   7.086   9.484  11.926 -3.5374 -0.4119 -0.6778
48099SOL     OW53074   5.628   0.286   1.081 -0.0303  0.1913 -0.8904
48099SOL    HW153075   5.621   0.207   1.027  0.9664 -1.5316  1.3350
48099SOL    HW253076   5.572   0.350   1.037 -3.6366 -2.7577 -1.0675
48100SOL     OW53077   2.825   1.840   5.049  0.3968 -0.2405 -0.7197
48100SOL    HW153078   2.740   1.855   5.092  0.8312  0.3917 -0.0591
48100SOL    HW253079   2.858   1.928   5.030  1.4942 -0.4314  0.2039
48101SOL     OW53080   1.932   9.035   6.465 -0.4601 -0.4043  0.1490
48101SOL    HW153081   1.839   9.057   6.478 -0.4533 -1.5719  2.8100
48101SOL    HW253082   1.979   9.100   6.517  0.0322 -1.3984  0.9795
48102SOL     OW53083   2.373   5.774  11.587  0.0242  0.1665 -0.5043
48102SOL    HW153084   2.316   5.739  11.656 -0.9616  1.1733 -0.7787
48102SOL    HW253085   2.441   5.823  11.634  0.2334 -0.4030 -0.2037
48103SOL     OW53086   9.962   5.074   7.500 -0.0540 -0.2718 -0.6267
48103SOL    HW153087  10.014   5.010   7.549  0.8837  0.9991  0.1135
48103SOL    HW253088   9.908   5.117   7.566  0.4297  0.7155 -0.8531
48104SOL     OW53089   2.231   3.821   7.124  0.0973  0.1952 -0.0626
48104SOL    HW153090   2.184   3.759   7.069 -0.5081  0.5075  0.0985
48104SOL    HW253091   2.276   3.766   7.189 -1.9265 -0.0278  1.2550
48105SOL     OW53092   6.065   9.706  10.271  0.0759 -0.2009  0.1973
48105SOL    HW153093   6.025   9.634  10.320  0.4766  0.4417  1.5387
48105SOL    HW253094   6.002   9.728  10.203 -0.3996 -1.2877  0.2720
48106SOL     OW53095   8.500  12.247   1.771 -0.2884 -0.7368 -0.0363
48106SOL    HW153096   8.558  12.318   1.798 -0.7175 -1.1628  2.2350
48106SOL    HW253097   8.430  12.290   1.723  1.4171 -0.1272 -2.1405
48107SOL     OW53098   7.341  12.363   0.163  0.2898  0.0213 -0.3075
48107SOL    HW153099   7.404  12.348   0.234  0.2878 -0.0058 -0.3113
48107SOL    HW253100   7.297  12.444   0.187 -1.7172 -1.4193  1.2312
48108SOL     OW53101   7.723   2.801   1.954  0.2046  0.2422  0.3210
48108SOL    HW153102   7.760   2.873   2.005 -1.0618  0.7491  0.5609
48108SOL    HW253103   7.680   2.745   2.018  0.3890 -0.2385  0.0334
48109SOL     OW53104   0.898   8.108   6.669 -0.0151 -0.0469  0.0100
48109SOL    HW153105   0.811   8.143   6.689 -0.0912  0.6731 -1.4269
48109SOL    HW253106   0.881   8.025   6.624 -0.0477  0.7644 -1.5461
48110SOL     OW53107   3.000   8.865   9.536 -0.3085  0.2572 -0.0319
48110SOL    HW153108   2.914   8.842   9.571 -0.6794  2.1806  0.4128
48110SOL    HW253109   3.025   8.944   9.583  1.7710 -0.3097 -0.0814
48111SOL     OW53110   5.443  10.861   3.826 -0.2301 -0.0924 -0.5873
48111SOL    HW153111   5.533  10.853   3.794 -0.6135 -0.9721 -1.5039
48111SOL    HW253112   5.394  10.896   3.751 -0.3914  1.9403  0.3965
48112SOL     OW53113   0.634   6.965  11.963 -0.4836 -0.6781 -0.6739
48112SOL    HW153114   0.545   6.963  11.927 -0.9044 -0.3833  0.3067
48112SOL    HW253115   0.632   6.901  12.034  0.6433 -2.0560 -1.8096
48113SOL     OW53116  10.268   8.246   4.121  0.1436  0.0700  0.2496
48113SOL    HW153117  10.211   8.215   4.192  0.7615  0.9259  1.1445
48113SOL    HW253118  10.208   8.292   4.062 -0.4267 -0.9168  0.0269
48114SOL     OW53119   4.970   4.121  10.855  0.0271 -0.2331 -0.2180
48114SOL    HW153120   5.038   4.054  10.868 -0.9469 -1.4074 -0.9213
48114SOL    HW253121   4.917   4.116  10.935 -1.5245 -2.1339 -1.2880
48115SOL     OW53122   6.616   7.020   5.277 -0.3118  0.4952 -0.2160
48115SOL    HW153123   6.711   7.005   5.272 -0.5431 -1.0653 -0.3428
48115SOL    HW253124   6.580   6.967   5.206 -1.4369 -0.4567  1.0194
48116SOL     OW53125   3.618   5.803   5.062  0.3090 -0.2530  0.2098
48116SOL    HW153126   3.576   5.835   4.983 -2.5201 -1.6887  0.9802
48116SOL    HW253127   3.663   5.723   5.036  2.3557  1.0650 -0.5365
48117SOL     OW53128   2.051   0.563   0.160  0.1535 -0.3716 -0.1861
48117SOL    HW153129   1.986   0.627   0.187 -0.5980 -1.5069  0.7893
48117SOL    HW253130   2.004   0.502   0.102  0.8470 -0.0912 -1.0830
48118SOL     OW53131   4.479   9.003   1.248  0.4820 -0.3312 -0.3353
48118SOL    HW153132   4.544   8.934   1.233  2.5498  1.2025  1.0227
48118SOL    HW253133   4.502   9.071   1.185  0.0582  0.1517  0.0290
48119SOL     OW53134   5.581   9.044  11.431  0.1402  1.1554  0.3530
48119SOL    HW153135   5.526   9.078  11.501  0.0745 -0.1836  0.9904
48119SOL    HW253136   5.548   8.955  11.416 -0.0776  1.5290 -1.6277
48120SOL     OW53137   5.538   0.997   4.761  0.3910 -0.1884 -0.3384
48120SOL    HW153138   5.543   0.927   4.826  1.8233  0.8611  0.7448
48120SOL    HW253139   5.612   0.980   4.702  1.4768  1.0187  0.6180
48121SOL     OW53140   8.790   7.737   4.773  0.4216 -0.4936 -0.8732
48121SOL    HW153141   8.730   7.682   4.723 -1.0997  0.0340  0.2889
48121SOL    HW253142   8.733   7.793   4.825  1.9340 -0.5240  0.8998
48122SOL     OW53143   1.013   3.484   5.083  0.1958  0.1220 -0.3055
48122SOL    HW153144   0.997   3.484   5.177  0.5525 -0.0971 -0.2452
48122SOL    HW253145   0.934   3.446   5.045 -0.1025  0.5510 -0.1218
48123SOL     OW53146   4.504   1.820   1.072 -0.7671  0.5029  0.4069
48123SOL    HW153147   4.414   1.806   1.099 -0.7573  1.3100  0.8784
48123SOL    HW253148   4.556   1.798   1.150 -0.3950 -1.8030 -0.4041
48124SOL     OW53149  10.816   3.744   8.750 -0.5153  0.1103  0.2766
48124SOL    HW153150  10.787   3.690   8.677 -0.8467  0.3947  0.1942
48124SOL    HW253151  10.863   3.684   8.808 -2.0197 -0.5647  0.8423
48125SOL     OW53152   6.418   0.381   8.852  0.2193 -0.2757  0.0089
48125SOL    HW153153   6.326   0.393   8.827  0.7140  1.0317 -1.3713
48125SOL    HW253154   6.446   0.303   8.804 -0.2667 -0.9346  0.7756
48126SOL     OW53155   4.672   1.320   7.821  1.1025  0.7001  0.0732
48126SOL    HW153156   4.743   1.378   7.847  0.0640  1.9054  0.3547
48126SOL    HW253157   4.647   1.351   7.734  1.6108 -0.4100 -0.4822
48127SOL     OW53158   4.099  12.452   5.462 -0.0840 -0.5495  0.6230
48127SOL    HW153159   4.174  12.437   5.405 -0.4024 -0.0347  0.0594
48127SOL    HW253160   4.137  12.456   5.550  0.7774  1.1194  0.2359
48128SOL     OW53161   5.804   5.592   7.722  0.2510 -0.5684  0.0379
48128SOL    HW153162   5.879   5.533   7.724  0.8614  0.1372 -0.9063
48128SOL    HW253163   5.728   5.536   7.736  0.9503 -1.2784  1.1935
48129SOL     OW53164   5.659   0.851  11.226  0.1873  0.2605 -0.6483
48129SOL    HW153165   5.605   0.894  11.292 -1.4851 -1.3752 -0.8423
48129SOL    HW253166   5.596   0.798  11.176  2.0743 -2.3366 -0.4442
48130SOL     OW53167   0.984   3.938  11.227  0.8420 -0.1232  0.2333
48130SOL    HW153168   0.951   4.005  11.166 -1.4637  1.0626  2.5449
48130SOL    HW253169   0.925   3.864  11.215  0.9190 -0.2072  0.3704
48131SOL     OW53170   4.224  10.130  10.777 -0.2307  0.0290 -0.0365
48131SOL    HW153171   4.195  10.166  10.694  0.6415 -0.2901 -0.4940
48131SOL    HW253172   4.241  10.038  10.759  0.3831  0.0515  0.3761
48132SOL     OW53173   1.877   4.602   2.850  0.9474 -0.1513  0.2062
48132SOL    HW153174   1.889   4.656   2.929 -0.0011  0.6926 -0.1982
48132SOL    HW253175   1.826   4.527   2.880 -0.6572  0.8715  0.1633
48133SOL     OW53176   3.478   7.491   4.181 -0.5658 -0.6791  0.5349
48133SOL    HW153177   3.503   7.581   4.200 -0.8322 -0.7855  1.4507
48133SOL    HW253178   3.546   7.459   4.121 -1.5835  0.7668 -1.5309
48134SOL     OW53179   5.473   9.736   8.884 -0.0420 -0.6895  0.0848
48134SOL    HW153180   5.505   9.721   8.795  1.6479  2.4392  0.0301
48134SOL    HW253181   5.401   9.798   8.873  0.6840  0.3323  0.8856
48135SOL     OW53182   4.191   5.873  11.649  0.0382  0.4234 -0.2853
48135SOL    HW153183   4.096   5.881  11.641  0.1957  1.0262 -1.9929
48135SOL    HW253184   4.221   5.855  11.560  1.4828 -0.3623  0.3277
48136SOL     OW53185   0.260   3.603   6.658 -0.0358  0.3063  0.0369
48136SOL    HW153186   0.346   3.588   6.618 -0.9125 -1.9600 -1.2039
48136SOL    HW253187   0.200   3.608   6.583 -0.9217  2.9669  0.8178
48137SOL     OW53188   5.878   1.951   9.252  0.4421  0.3822 -0.1948
48137SOL    HW153189   5.891   1.987   9.164  1.6189  1.1487  0.2678
48137SOL    HW253190   5.840   1.864   9.237 -0.5835  1.0022 -1.4066
48138SOL     OW53191   0.624  10.569  12.536 -0.1794 -0.0603  0.2966
48138SOL    HW153192   0.590  10.640  12.591 -2.1484 -0.8455  0.1533
48138SOL    HW253193   0.630  10.494  12.594  0.6988 -0.1183  0.1450
48139SOL     OW53194  12.491  11.251   8.504  0.2154 -0.0947 -0.0614
48139SOL    HW153195  12.487  11.328   8.561 -1.4250  0.1180 -0.4112
48139SOL    HW253196  12.501  11.178   8.565  0.6905  0.2965  0.3474
48140SOL     OW53197   7.229   9.525   0.532  0.0216  0.3466 -0.4738
48140SOL    HW153198   7.252   9.582   0.458  1.1989 -0.2906 -0.6365
48140SOL    HW253199   7.253   9.437   0.502  1.0557  0.1425  0.8478
48141SOL     OW53200   7.123  10.072   5.983 -0.0109 -0.3706  0.0939
48141SOL    HW153201   7.186  10.008   6.018 -0.4773 -1.1364 -0.4172
48141SOL    HW253202   7.042  10.023   5.975 -0.6731  0.6059  0.7180
48142SOL     OW53203   0.724   3.144   6.231  0.0871  0.6145  0.7946
48142SOL    HW153204   0.804   3.153   6.282  1.2008 -1.4498 -0.4889
48142SOL    HW253205   0.721   3.052   6.205 -0.5838  1.4271 -2.5142
48143SOL     OW53206   8.645   1.990   5.199  0.2293 -0.0938 -0.6374
48143SOL    HW153207   8.709   2.047   5.155 -0.8213  1.3209 -0.3870
48143SOL    HW253208   8.668   1.996   5.292  0.3392 -0.3763 -0.6452
48144SOL     OW53209   6.420   4.257   1.900  0.0662 -0.3058  0.3070
48144SOL    HW153210   6.499   4.281   1.948  2.6747 -2.7542 -2.2979
48144SOL    HW253211   6.422   4.310   1.821 -1.2078 -0.0640  0.4109
48145SOL     OW53212  11.271   0.259   1.480  1.0148 -0.0401 -0.2102
48145SOL    HW153213  11.352   0.301   1.452  2.2219 -1.1881  1.3584
48145SOL    HW253214  11.299   0.176   1.518 -0.7022  0.2785  1.9494
48146SOL     OW53215   2.566   4.043  11.881  0.4986 -0.3022  0.3823
48146SOL    HW153216   2.580   3.971  11.942  1.5704  1.4296  2.2910
48146SOL    HW253217   2.591   4.121  11.930  1.7770  1.1626 -2.3810
48147SOL     OW53218   1.423   5.927   4.483 -0.3091 -0.4200  0.2025
48147SOL    HW153219   1.384   5.994   4.539  0.1278  0.4407 -0.4976
48147SOL    HW253220   1.358   5.857   4.481 -0.9806  0.1747  0.5877
48148SOL     OW53221   4.987   6.642   9.340  0.2907 -0.0466  0.1740
48148SOL    HW153222   5.056   6.709   9.348 -0.2752  0.5857 -0.1322
48148SOL    HW253223   4.908   6.691   9.317  0.0960 -0.9326 -1.1659
48149SOL     OW53224   4.732   2.003   4.404 -0.1169  0.4353  0.1746
48149SOL    HW153225   4.643   2.007   4.369 -0.4473 -3.5658  0.0886
48149SOL    HW253226   4.788   2.025   4.329 -0.9830 -0.4717 -0.7699
48150SOL     OW53227   7.236   3.908  12.250 -0.6459  0.3998 -0.0111
48150SOL    HW153228   7.278   3.993  12.238  4.0701 -1.5015  0.9216
48150SOL    HW253229   7.225   3.873  12.161 -1.4194  1.3667 -0.3189
48151SOL     OW53230  10.732   7.270  12.563  0.0621  0.2063  0.1361
48151SOL    HW153231  10.748   7.326  12.487  0.7987 -0.4382 -0.1944
48151SOL    HW253232  10.779   7.312  12.635 -2.2190  1.9097  0.7747
48152SOL     OW53233   7.648   6.005   0.022  0.2510 -0.5625 -0.4742
48152SOL    HW153234   7.697   6.033   0.099 -0.9182 -0.7449  0.3551
48152SOL    HW253235   7.659   6.077  -0.041  1.0460 -0.3269 -0.0697
48153SOL     OW53236   7.698   0.044   4.563 -0.0071  0.5995  0.3433
48153SOL    HW153237   7.659   0.131   4.554 -0.5776  0.2053 -1.3791
48153SOL    HW253238   7.626  -0.017   4.543  0.8246 -0.2125 -0.2685
48154SOL     OW53239  10.243  12.307   5.176 -0.1852  0.5242 -0.5844
48154SOL    HW153240  10.256  12.393   5.135  1.1892  0.7822  0.2935
48154SOL    HW253241  10.248  12.325   5.270  2.0512 -0.7214 -0.3891
48155SOL     OW53242   8.977   3.467   1.429  0.7657  0.0871 -0.6551
48155SOL    HW153243   8.961   3.560   1.412  1.5422  0.2054 -0.7759
48155SOL    HW253244   8.998   3.463   1.523  1.3018  0.1178 -0.7715
48156SOL     OW53245   5.372   6.603   9.218  0.4152  0.5743 -0.1810
48156SOL    HW153246   5.453   6.645   9.187  0.7870 -0.0002 -0.0007
48156SOL    HW253247   5.377   6.610   9.314  0.9018 -0.6247 -0.1008
48157SOL     OW53248   3.778   0.990   5.108  0.0224  0.1832 -0.4335
48157SOL    HW153249   3.846   1.022   5.167  0.8248  0.2659 -1.3722
48157SOL    HW253250   3.780   1.051   5.034 -0.6342 -0.1932 -0.7690
48158SOL     OW53251   0.639  11.548   6.116  0.7975  0.2910 -0.3249
48158SOL    HW153252   0.615  11.605   6.189 -0.1566  0.6172 -0.8819
48158SOL    HW253253   0.727  11.577   6.092  1.1432  0.1533  0.7067
48159SOL     OW53254   9.614   5.313   5.521  0.2615 -0.5216  0.1458
48159SOL    HW153255   9.572   5.264   5.592  0.3378 -0.3770  0.2907
48159SOL    HW253256   9.593   5.404   5.539 -0.5399 -0.5594 -0.5619
48160SOL     OW53257   4.146  11.338   4.029 -0.2798  0.1555 -0.4039
48160SOL    HW153258   4.233  11.371   4.008  0.0890 -0.4918  0.0553
48160SOL    HW253259   4.114  11.300   3.947  0.1170 -0.1293 -0.4288
48161SOL     OW53260   1.359   5.319   9.056  0.2260  0.2174  0.4311
48161SOL    HW153261   1.369   5.409   9.027  0.2277 -0.3835 -1.5452
48161SOL    HW253262   1.269   5.314   9.088 -0.5523  0.3935 -1.5903
48162SOL     OW53263   1.455   0.072   0.462 -0.7344 -0.3661 -0.4811
48162SOL    HW153264   1.536   0.033   0.495 -0.4137  2.0514  2.0137
48162SOL    HW253265   1.467   0.078   0.367  1.5952 -0.9818 -0.2825
48163SOL     OW53266   6.560   2.823   0.240 -0.1079  0.0681 -0.1788
48163SOL    HW153267   6.537   2.779   0.158  1.0525  0.9834 -1.0288
48163SOL    HW253268   6.524   2.912   0.230  1.8068  0.8450 -0.6315
48164SOL     OW53269   3.124  11.273   1.420 -0.3311 -0.7262 -0.2339
48164SOL    HW153270   3.140  11.196   1.474  0.4031 -0.5712 -0.2217
48164SOL    HW253271   3.211  11.308   1.402 -0.6704  0.3324  0.0985
48165SOL     OW53272   3.167   8.104  10.315  0.1084  0.1959  0.2583
48165SOL    HW153273   3.098   8.164  10.289  0.2269  0.8784  1.4321
48165SOL    HW253274   3.175   8.043  10.242 -1.8707 -0.0390  0.1985
48166SOL     OW53275   6.348   0.545   3.325  0.1162  0.5446 -0.2967
48166SOL    HW153276   6.301   0.620   3.361 -1.7289 -0.9399  0.5882
48166SOL    HW253277   6.372   0.493   3.401  0.5706 -0.2017 -0.9345
48167SOL     OW53278   4.461   5.040   5.422 -0.0028  0.0346 -0.6090
48167SOL    HW153279   4.551   5.042   5.390  0.3686  0.8885  0.3986
48167SOL    HW253280   4.464   5.094   5.502 -1.8071  1.7340 -1.6151
48168SOL     OW53281  12.350   0.473   8.759  0.5141  0.7697  0.3663
48168SOL    HW153282  12.425   0.435   8.715 -0.3712  1.4869 -1.9189
48168SOL    HW253283  12.300   0.515   8.689 -2.1088  0.1708  1.7502
48169SOL     OW53284   0.603   8.858   0.730 -0.7379  0.0053 -0.2687
48169SOL    HW153285   0.533   8.807   0.687 -0.1167 -2.3917  1.3628
48169SOL    HW253286   0.681   8.839   0.678 -0.2794 -1.7391  0.9568
48170SOL     OW53287  11.307   7.335   4.447  0.5023 -0.1738 -0.0461
48170SOL    HW153288  11.378   7.391   4.478  0.5221  0.3290 -0.9623
48170SOL    HW253289  11.285   7.369   4.360 -0.5579 -0.6036  0.0311
48171SOL     OW53290   5.418   2.651  10.700  0.0677  0.7680 -0.5430
48171SOL    HW153291   5.433   2.601  10.780  0.9603  1.6472 -0.1437
48171SOL    HW253292   5.465   2.603  10.632 -1.7095 -0.6628 -0.8161
48172SOL     OW53293   4.712   6.414   0.018 -0.2239  0.0082 -0.4050
48172SOL    HW153294   4.656   6.490   0.032  2.3565  1.6377  1.9695
48172SOL    HW253295   4.761   6.434  -0.062 -1.0365 -0.1801 -0.9613
48173SOL     OW53296   7.527   7.840  10.020  0.0104  0.6099 -0.3311
48173SOL    HW153297   7.544   7.821  10.113 -0.0305 -1.1984 -0.6522
48173SOL    HW253298   7.599   7.798   9.974 -1.3721 -0.9092 -1.2520
48174SOL     OW53299   0.272   8.886   1.908  0.0529 -0.1346 -0.2160
48174SOL    HW153300   0.261   8.977   1.935 -0.0017 -0.0939 -0.3735
48174SOL    HW253301   0.346   8.888   1.848 -0.4186 -0.0732 -0.8036
48175SOL     OW53302  11.582   9.429   8.989 -0.4144  0.4926 -0.5452
48175SOL    HW153303  11.640   9.449   8.916 -1.1155 -1.3341 -1.6865
48175SOL    HW253304  11.513   9.375   8.950  0.0250 -1.8949  1.7399
48176SOL     OW53305  10.787   2.209  12.321  0.0494 -0.0147  0.8246
48176SOL    HW153306  10.821   2.168  12.242  0.7484 -0.6230  1.4123
48176SOL    HW253307  10.695   2.225  12.303  0.4720  1.0293 -0.5738
48177SOL     OW53308   6.240  11.192   4.386  0.0170  0.1427  0.6271
48177SOL    HW153309   6.190  11.272   4.370  0.3496 -0.0074 -1.5051
48177SOL    HW253310   6.176  11.121   4.376  0.4945 -0.0391 -1.9253
48178SOL     OW53311  10.557   1.823  11.403 -0.2690 -0.3531  0.0581
48178SOL    HW153312  10.528   1.805  11.492  1.1753 -1.1656  0.4100
48178SOL    HW253313  10.648   1.791  11.401  0.6214  2.0035 -0.9380
48179SOL     OW53314   2.133   6.292  11.195  0.0482 -0.0220  0.0105
48179SOL    HW153315   2.219   6.330  11.182  0.5090 -0.4990  1.5037
48179SOL    HW253316   2.113   6.308  11.288 -0.6897 -1.4453  0.1292
48180SOL     OW53317   3.348   0.293   6.446  0.4194 -0.7386 -0.2383
48180SOL    HW153318   3.402   0.345   6.386  0.0332 -0.3831 -0.2922
48180SOL    HW253319   3.297   0.236   6.388 -0.8994  0.5020 -0.3806
48181SOL     OW53320   5.584  11.420   9.263  0.3052 -0.1577  0.0129
48181SOL    HW153321   5.646  11.441   9.194 -0.4580  0.0658 -0.6143
48181SOL    HW253322   5.498  11.439   9.225 -0.1393 -0.2956  0.9235
48182SOL     OW53323   2.305   2.110   2.485 -0.1695 -0.0391 -0.9163
48182SOL    HW153324   2.321   2.115   2.391  0.0729  0.3518 -0.8569
48182SOL    HW253325   2.357   2.036   2.514 -0.2158 -0.1375 -1.0850
48183SOL     OW53326   5.110   6.095  11.648  0.1165  0.0860 -0.0884
48183SOL    HW153327   5.031   6.043  11.662 -1.1692  1.6397 -1.1750
48183SOL    HW253328   5.078   6.185  11.636  2.0150  0.7163 -0.8395
48184SOL     OW53329   4.907   7.508   6.135 -0.1782  0.4848  0.1594
48184SOL    HW153330   4.811   7.509   6.138 -0.2426  1.9533 -1.1994
48184SOL    HW253331   4.928   7.423   6.096 -0.9899  0.6995 -0.7749
48185SOL     OW53332   7.661  10.688   8.708  0.4064  0.3349 -0.2933
48185SOL    HW153333   7.705  10.706   8.791  1.6219 -1.2240 -0.5688
48185SOL    HW253334   7.574  10.656   8.733  0.1416  1.4551  0.3024
48186SOL     OW53335  11.439   7.771   3.930 -0.2864  0.1590 -0.0193
48186SOL    HW153336  11.439   7.819   4.013 -2.3105 -1.3901  0.9377
48186SOL    HW253337  11.488   7.691   3.949 -1.4307 -0.5632 -0.0694
48187SOL     OW53338   7.906  11.839   9.228 -0.2735  0.0984 -0.4044
48187SOL    HW153339   7.997  11.811   9.225 -0.1277  0.2540  1.4553
48187SOL    HW253340   7.897  11.882   9.313 -2.1415 -0.1575 -0.4284
48188SOL     OW53341   1.029   0.750   1.953  0.1581  0.4424  0.6628
48188SOL    HW153342   0.973   0.746   2.030 -0.7977  0.5496  0.0020
48188SOL    HW253343   0.997   0.827   1.904  0.8590  0.4813  0.2576
48189SOL     OW53344   4.555   2.202   5.694  0.0499 -0.4987  0.1807
48189SOL    HW153345   4.635   2.189   5.744 -0.0482 -0.4901  0.3447
48189SOL    HW253346   4.516   2.281   5.733  0.0362 -0.4197  0.0059
48190SOL     OW53347   4.138   8.369  12.045 -0.0740 -0.0141  0.3948
48190SOL    HW153348   4.230   8.366  12.019 -0.3886 -0.7971 -0.7000
48190SOL    HW253349   4.097   8.426  11.980 -0.2859  0.8019  1.2114
48191SOL     OW53350  10.938   6.103   4.772 -0.2497  0.0719 -0.2466
48191SOL    HW153351  11.007   6.059   4.822 -1.8318 -0.2302  1.8052
48191SOL    HW253352  10.971   6.191   4.757  1.1494 -0.4754 -0.5872
48192SOL     OW53353   3.831  10.328   9.072  0.1725  0.3958  0.5623
48192SOL    HW153354   3.836  10.240   9.035  0.0525  0.1466  1.1374
48192SOL    HW253355   3.891  10.380   9.018  1.8416 -0.4924  1.4948
48193SOL     OW53356   5.748   1.046   6.520 -0.1889  0.4444 -0.4598
48193SOL    HW153357   5.762   1.045   6.425 -0.7656  0.8805 -0.5515
48193SOL    HW253358   5.748   0.954   6.546  2.1128  0.3554 -0.5569
48194SOL     OW53359   5.231   3.861   8.161  0.0848  0.2599  0.5080
48194SOL    HW153360   5.286   3.918   8.108  0.5305 -1.3402 -0.8157
48194SOL    HW253361   5.173   3.921   8.209 -0.2115  1.7859 -1.6334
48195SOL     OW53362   7.093   9.966   3.211 -0.1328 -0.0885  0.3002
48195SOL    HW153363   7.079   9.876   3.182 -0.8194 -0.5996  2.0940
48195SOL    HW253364   7.094  10.017   3.130 -2.3661 -1.3456 -0.6178
48196SOL     OW53365   8.529   0.705   5.122  0.0834  0.3850 -0.1273
48196SOL    HW153366   8.622   0.707   5.100  0.3765 -0.1172  1.0080
48196SOL    HW253367   8.507   0.796   5.140  0.3651  0.4984 -0.3453
48197SOL     OW53368   9.250   0.134   3.889  0.0237  0.5381  0.6351
48197SOL    HW153369   9.203   0.054   3.912 -1.2806  0.8168 -0.8531
48197SOL    HW253370   9.211   0.161   3.806  1.9278  1.5437  0.0143
48198SOL     OW53371   1.168   9.403   2.698  0.6321 -0.1091 -0.2255
48198SOL    HW153372   1.230   9.331   2.693  0.6312 -0.1252 -0.0106
48198SOL    HW253373   1.091   9.366   2.742  0.0613 -0.3726 -1.4089
48199SOL     OW53374   4.451   2.987   0.371 -0.1624 -0.2415  0.4706
48199SOL    HW153375   4.453   3.049   0.299  2.1276 -1.3463 -0.5164
48199SOL    HW253376   4.451   2.901   0.329 -1.5772 -0.9585  1.8094
48200SOL     OW53377   8.540   9.918  12.389 -0.1440  0.0139  0.2600
48200SOL    HW153378   8.480   9.987  12.416  0.2617  0.1950  0.7208
48200SOL    HW253379   8.621   9.936  12.438  0.7449  0.5468 -1.3156
48201SOL     OW53380   1.330   0.308  11.230  0.2672 -0.1003  0.3236
48201SOL    HW153381   1.283   0.243  11.282 -0.3776 -1.7732 -2.1673
48201SOL    HW253382   1.417   0.271  11.218  0.8524  0.9114  1.2477
48202SOL     OW53383   4.318  11.535   9.814 -0.4799 -0.4499 -0.2128
48202SOL    HW153384   4.228  11.514   9.793 -0.6783  0.6904 -0.6037
48202SOL    HW253385   4.370  11.490   9.747 -0.7717 -0.8632 -0.1616
48203SOL     OW53386   4.935   4.429  11.196 -0.1689  0.0714 -0.0725
48203SOL    HW153387   4.866   4.496  11.204 -2.4755 -2.0686 -0.5671
48203SOL    HW253388   4.952   4.401  11.286 -0.0735  0.4780  0.0393
48204SOL     OW53389   9.504  10.726   3.832 -0.7622 -0.0615 -0.3794
48204SOL    HW153390   9.514  10.663   3.904 -0.5320 -1.2503 -1.4107
48204SOL    HW253391   9.459  10.801   3.871  0.2412 -0.2599  1.2150
48205SOL     OW53392   8.580   8.165  12.506 -0.1459 -0.1158  0.3041
48205SOL    HW153393   8.556   8.257  12.516  0.4676  0.0253  0.5139
48205SOL    HW253394   8.526   8.120  12.571 -2.2540 -0.2335 -1.4468
48206SOL     OW53395  10.324  12.419   1.445 -0.0890  0.3632 -0.1334
48206SOL    HW153396  10.278  12.404   1.528  0.2040  1.2754  0.2065
48206SOL    HW253397  10.273  12.370   1.380  0.0852 -0.9505  0.6857
48207SOL     OW53398   1.089   0.042  10.388  0.3320 -0.5628  0.3742
48207SOL    HW153399   1.055   0.114  10.441  1.9048 -0.3037  1.0814
48207SOL    HW253400   1.068  -0.037  10.437  0.0519 -0.4706  0.4028
48208SOL     OW53401   5.416   3.660   0.376 -0.1630 -0.0470 -0.4045
48208SOL    HW153402   5.415   3.566   0.360 -0.6883 -0.3418  1.1790
48208SOL    HW253403   5.379   3.670   0.464 -0.8882  1.7056 -0.8661
48209SOL     OW53404   9.449   8.574  11.097  0.3935 -0.2125  0.1791
48209SOL    HW153405   9.533   8.601  11.132  0.9729 -0.1031 -1.2160
48209SOL    HW253406   9.466   8.557  11.004 -1.1597 -0.0054 -0.1788
48210SOL     OW53407  11.314  10.267   4.275 -0.2651 -0.7823 -0.3338
48210SOL    HW153408  11.285  10.231   4.360  1.4083  0.4218  0.8116
48210SOL    HW253409  11.246  10.239   4.213 -1.8329 -1.2504  1.4874
48211SOL     OW53410   0.244   6.290   3.124 -0.0678 -0.4235  0.0690
48211SOL    HW153411   0.294   6.208   3.125 -0.4300 -0.6598  1.5779
48211SOL    HW253412   0.158   6.266   3.159 -0.7994  0.2555 -1.1859
48212SOL     OW53413   2.628   3.746   7.007  0.0852 -0.0814 -0.2693
48212SOL    HW153414   2.646   3.653   7.014 -0.5306 -0.1989 -0.2060
48212SOL    HW253415   2.652   3.782   7.093  0.9009 -0.0756 -0.4937
48213SOL     OW53416  11.097   2.190   3.954  0.3408 -0.0694  0.5654
48213SOL    HW153417  11.132   2.218   3.870 -0.8654  3.3235  1.0536
48213SOL    HW253418  11.173   2.193   4.013  0.6291  0.4180  0.1825
48214SOL     OW53419  12.527   3.987   7.765  0.2706 -0.7102 -0.0181
48214SOL    HW153420  12.582   3.948   7.832  0.4988  0.2809  0.3912
48214SOL    HW253421  12.447   3.935   7.765  0.2982 -0.7580  0.9779
48215SOL     OW53422   7.447   2.941   8.991 -0.0563  0.2725 -0.2420
48215SOL    HW153423   7.472   2.895   9.071  2.1591  0.6120 -0.6707
48215SOL    HW253424   7.372   2.995   9.017  0.6986  0.4943  1.6603
48216SOL     OW53425   1.345   4.985   2.723  0.0564 -0.1353 -0.4431
48216SOL    HW153426   1.340   4.954   2.633  1.2512 -1.1242 -0.1844
48216SOL    HW253427   1.254   4.992   2.751 -0.3539  0.7261 -1.8895
48217SOL     OW53428   6.569   7.858   3.392  0.0775 -0.3036 -0.5246
48217SOL    HW153429   6.629   7.789   3.421  1.7993  1.0083 -0.8102
48217SOL    HW253430   6.535   7.826   3.308  0.8874 -0.7917 -0.6783
48218SOL     OW53431   2.384  10.803  10.597 -0.3313 -0.4042 -0.4240
48218SOL    HW153432   2.327  10.814  10.673  0.2404 -0.2608 -0.0211
48218SOL    HW253433   2.339  10.850  10.527 -0.8443 -0.5111 -0.1720
48219SOL     OW53434   2.826   7.864  11.882 -0.7066 -0.1607  0.5342
48219SOL    HW153435   2.845   7.829  11.795 -1.6143 -1.2044  0.7282
48219SOL    HW253436   2.894   7.826  11.938  0.7585  1.6381  0.0943
48220SOL     OW53437   5.783  10.324   3.277  0.1393 -0.8981  0.2788
48220SOL    HW153438   5.798  10.232   3.256  1.6746 -0.9391  1.3641
48220SOL    HW253439   5.870  10.361   3.288 -0.4683  0.2914  1.4570
48221SOL     OW53440   0.016   5.959   3.559  0.0009 -0.2233  0.3166
48221SOL    HW153441   0.104   5.939   3.593  1.2997  3.3613 -0.4658
48221SOL    HW253442  -0.011   6.037   3.608 -1.2331  0.7239 -1.7463
48222SOL     OW53443   9.454   0.640   0.685 -0.0263 -0.0008  0.0314
48222SOL    HW153444   9.453   0.598   0.771 -0.7752 -0.3976 -0.1566
48222SOL    HW253445   9.382   0.703   0.688 -0.2619 -0.2407 -0.3968
48223SOL     OW53446   9.371   3.206   1.228 -0.3115  0.4927 -0.1917
48223SOL    HW153447   9.293   3.252   1.196  0.3599  1.0506 -1.0958
48223SOL    HW253448   9.361   3.204   1.323 -1.1025  1.1479 -0.2517
48224SOL     OW53449   1.980   0.414  12.001  0.3562 -0.4776  0.1060
48224SOL    HW153450   2.014   0.332  12.036  1.4979 -1.0142 -2.0759
48224SOL    HW253451   1.886   0.400  11.991  0.4965 -1.4088  0.0745
48225SOL     OW53452   9.224   3.956   1.744  0.1425 -0.1814 -0.3498
48225SOL    HW153453   9.208   4.024   1.809  0.3738  1.3243 -1.7752
48225SOL    HW253454   9.268   4.002   1.672  1.0500 -2.0212 -1.0331
48226SOL     OW53455   6.188   5.855  10.027 -0.3929  0.5688  0.4545
48226SOL    HW153456   6.231   5.769  10.032  0.0068  0.8237  1.5831
48226SOL    HW253457   6.111   5.839   9.972 -0.0257 -0.3859  0.1875
48227SOL     OW53458   2.896   6.183   1.696 -0.2804 -0.0780  0.2893
48227SOL    HW153459   2.948   6.228   1.762  1.3669  0.3206 -1.1879
48227SOL    HW253460   2.808   6.180   1.732  0.4065  0.7567  2.1607
48228SOL     OW53461  11.795   8.583   2.136 -0.7462  0.0457  0.4108
48228SOL    HW153462  11.833   8.652   2.082  1.0485 -0.6964  0.6466
48228SOL    HW253463  11.819   8.607   2.225  0.8080 -1.3839  0.4108
48229SOL     OW53464   1.738   3.152   0.994  0.4994  0.6759  0.0813
48229SOL    HW153465   1.772   3.209   0.925  1.3077 -0.4978 -0.5324
48229SOL    HW253466   1.796   3.169   1.069  0.8596  0.5347 -0.1599
48230SOL     OW53467   0.475  12.348  10.934 -0.2280 -0.2405  0.2771
48230SOL    HW153468   0.562  12.348  10.973  0.4143  1.3906 -0.9966
48230SOL    HW253469   0.463  12.438  10.904 -1.6041 -0.8541 -1.1616
48231SOL     OW53470  11.985   0.309  10.509 -0.0698 -0.1625  0.8170
48231SOL    HW153471  12.065   0.262  10.531 -0.0505 -0.0711  0.9437
48231SOL    HW253472  11.915   0.245  10.520 -0.0086 -0.2573  0.6537
48232SOL     OW53473   7.020   0.768   6.698 -0.0849 -0.1167 -0.0133
48232SOL    HW153474   7.041   0.795   6.609 -0.4916  2.5393  0.6002
48232SOL    HW253475   7.068   0.830   6.753 -0.2957 -1.3403  1.6102
48233SOL     OW53476   7.983  11.916  11.402  0.1551 -0.8348 -0.2324
48233SOL    HW153477   8.035  11.838  11.384  0.7896 -0.0907 -1.7729
48233SOL    HW253478   8.045  11.978  11.441 -0.2632 -0.9600  0.6530
48234SOL     OW53479   7.092  11.473   2.439  0.4957 -0.4197  0.2515
48234SOL    HW153480   7.095  11.544   2.503  2.0777 -1.3434  1.2928
48234SOL    HW253481   7.037  11.406   2.480  0.7235 -0.6275  0.2206
48235SOL     OW53482   0.601   2.474  12.222 -0.2151  0.7561  0.1645
48235SOL    HW153483   0.694   2.485  12.207 -0.1807 -0.0215 -0.2545
48235SOL    HW253484   0.577   2.546  12.280  0.3365  1.8460 -0.9257
48236SOL     OW53485  12.421  10.089   6.682  0.9983  0.1993  0.2901
48236SOL    HW153486  12.351  10.135   6.636  0.5013 -0.4376  0.4074
48236SOL    HW253487  12.424  10.002   6.643  1.5508  0.1340  0.4630
48237SOL     OW53488   0.295   5.870   1.225  0.0923 -0.3820 -0.7938
48237SOL    HW153489   0.377   5.848   1.181  0.3939 -1.5005  0.2664
48237SOL    HW253490   0.266   5.951   1.184  2.0981  0.4341 -0.7108
48238SOL     OW53491   6.887   0.003   3.464 -0.5561  0.0784  0.0894
48238SOL    HW153492   6.910   0.029   3.375 -3.0751  1.2109 -0.3104
48238SOL    HW253493   6.892  -0.092   3.464  1.1373  0.1287 -0.7133
48239SOL     OW53494  10.489   4.481   3.491 -0.3104 -0.4190 -0.2020
48239SOL    HW153495  10.491   4.403   3.546 -1.1464  0.0168  0.4703
48239SOL    HW253496  10.396   4.495   3.474 -0.2053  0.7232  0.1067
48240SOL     OW53497   5.703  12.169   6.275 -0.1678 -0.3892  0.3768
48240SOL    HW153498   5.724  12.259   6.250  0.4418 -0.3151  1.1140
48240SOL    HW253499   5.768  12.116   6.228 -1.0097 -0.5232 -0.6679
48241SOL     OW53500   2.035   5.425  12.386  0.0056  0.3650  0.3245
48241SOL    HW153501   1.952   5.426  12.337  0.3501 -0.4183 -0.3069
48241SOL    HW253502   2.096   5.474  12.331  0.8310 -1.8664 -0.9241
48242SOL     OW53503   2.115   3.066  10.782  0.4647 -0.6100  0.0865
48242SOL    HW153504   2.195   3.023  10.814  0.3280 -0.5358  0.5409
48242SOL    HW253505   2.076   3.002  10.722  0.3138 -1.0906  0.6858
48243SOL     OW53506   4.586   0.753   1.373 -0.1823 -0.6563 -0.2106
48243SOL    HW153507   4.648   0.684   1.348  0.9123  0.3818 -0.4106
48243SOL    HW253508   4.609   0.772   1.464  1.3352  1.2836 -0.9363
48244SOL     OW53509   1.842   1.733   2.085  0.0826 -0.1061  0.0558
48244SOL    HW153510   1.907   1.766   2.022 -0.9607  2.4169  0.1690
48244SOL    HW253511   1.804   1.656   2.042  0.3845  0.7219 -1.7964
48245SOL     OW53512  10.812   6.854   3.501 -0.2230 -0.2191 -0.3139
48245SOL    HW153513  10.870   6.925   3.528  1.2211 -1.5897  0.3440
48245SOL    HW253514  10.870   6.781   3.483 -1.6364 -1.1505 -1.3632
48246SOL     OW53515   3.276   4.155  11.226 -0.0351 -0.4272  0.2903
48246SOL    HW153516   3.320   4.169  11.142  1.0371  0.9297  1.0332
48246SOL    HW253517   3.188   4.192  11.213 -0.3454 -1.4286 -0.6140
48247SOL     OW53518   2.131   0.256   4.981  0.2815  0.3940 -0.2875
48247SOL    HW153519   2.140   0.285   4.890  1.4927  1.8477  0.2484
48247SOL    HW253520   2.207   0.198   4.994  0.5712  0.8401  0.0204
48248SOL     OW53521  10.821   0.773   7.506  0.3906  0.7783  0.4123
48248SOL    HW153522  10.826   0.750   7.599  0.1686  0.1534  0.2705
48248SOL    HW253523  10.791   0.864   7.506 -0.9538  0.3562  0.9251
48249SOL     OW53524   1.009   5.783   8.019 -0.4053  0.4660  0.1858
48249SOL    HW153525   0.928   5.741   8.049 -0.9532  0.4614 -1.2426
48249SOL    HW253526   1.025   5.853   8.083 -1.7205  0.6894  0.2877
48250SOL     OW53527  10.901   0.786   3.558 -0.1186 -0.0677  0.0320
48250SOL    HW153528  10.953   0.867   3.556 -0.3424  0.1693 -3.8041
48250SOL    HW253529  10.811   0.815   3.572 -0.1009  0.2755 -0.5512
48251SOL     OW53530   0.621   2.951   9.931 -0.1869  0.4750  0.7780
48251SOL    HW153531   0.620   2.863   9.893  2.8403  0.8753 -0.4957
48251SOL    HW253532   0.555   2.999   9.881  0.9555 -0.0741 -1.4039
48252SOL     OW53533   9.435  10.902   2.225 -0.0677 -0.6764 -0.1943
48252SOL    HW153534   9.392  10.873   2.144 -1.6763  0.1826  0.2953
48252SOL    HW253535   9.390  10.984   2.247  1.0835 -0.3329  0.9934
48253SOL     OW53536   9.419   6.313   0.698  0.5747  0.3603 -0.2918
48253SOL    HW153537   9.463   6.342   0.778  1.0554 -0.6630 -0.1789
48253SOL    HW253538   9.328   6.340   0.709 -0.0943 -2.4206  1.9759
48254SOL     OW53539   3.255   7.999   2.294 -0.3761 -0.3201  0.2272
48254SOL    HW153540   3.174   7.955   2.269 -0.8840  0.3244  0.7028
48254SOL    HW253541   3.293   8.028   2.212  0.4987 -2.4938 -0.2121
48255SOL     OW53542   5.034  11.265   0.186  0.4197  0.1673 -0.4901
48255SOL    HW153543   4.947  11.296   0.211  0.4314  0.3081 -0.6190
48255SOL    HW253544   5.044  11.181   0.232 -0.8232 -1.1458 -2.4675
48256SOL     OW53545   8.011   1.673  10.956 -0.1826  0.6715 -0.2912
48256SOL    HW153546   7.933   1.618  10.954  1.1867 -1.3724 -1.5823
48256SOL    HW253547   8.022   1.702  10.865  0.9202  0.3552 -0.2687
48257SOL     OW53548  10.744   3.828   3.582 -0.4630  0.5322  0.4052
48257SOL    HW153549  10.824   3.777   3.572  1.0561  2.8354  0.1161
48257SOL    HW253550  10.773   3.914   3.612 -3.0254  0.8401  2.4524
48258SOL     OW53551   6.313   8.662   1.302  0.3588  0.0907 -0.5707
48258SOL    HW153552   6.346   8.752   1.308 -0.2300  0.3499 -1.0525
48258SOL    HW253553   6.390   8.609   1.284  0.4756  0.7622 -2.2699
48259SOL     OW53554   0.754   7.422   9.386 -0.1364  0.0880  0.2900
48259SOL    HW153555   0.731   7.347   9.331 -1.3512  0.7909 -0.2024
48259SOL    HW253556   0.831   7.393   9.435 -0.0325 -1.1484 -0.5540
48260SOL     OW53557   3.820   0.318   7.102  0.0958  0.3070 -0.1603
48260SOL    HW153558   3.900   0.283   7.065  1.2317  1.6560  0.8835
48260SOL    HW253559   3.750   0.274   7.054  1.4150 -1.8655 -0.2172
48261SOL     OW53560   5.839   2.095   7.622 -0.4347 -0.2638  0.2620
48261SOL    HW153561   5.770   2.121   7.684 -0.9313 -2.2734  0.6297
48261SOL    HW253562   5.916   2.146   7.649 -0.7807 -0.7084  2.2332
48262SOL     OW53563  11.567   8.667   1.377  0.1143  0.0908 -0.0397
48262SOL    HW153564  11.477   8.691   1.401 -0.0135 -0.2320 -0.1920
48262SOL    HW253565  11.557   8.612   1.299  0.4685  0.3555 -0.2715
48263SOL     OW53566   7.167  10.497   0.218  0.4401  0.0266  0.4506
48263SOL    HW153567   7.238  10.503   0.282 -0.2543 -2.2984  1.5390
48263SOL    HW253568   7.112  10.572   0.237  1.4034  0.6001  1.0985
48264SOL     OW53569   9.486   2.288  10.510  0.1977 -0.1867 -0.2284
48264SOL    HW153570   9.438   2.362  10.474 -2.2591 -0.9262  1.2841
48264SOL    HW253571   9.552   2.327  10.567  0.0024  0.8528 -0.6904
48265SOL     OW53572   5.244   9.811   7.329 -0.0453  0.1177 -0.3353
48265SOL    HW153573   5.176   9.851   7.383 -0.3232 -0.4243 -0.2797
48265SOL    HW253574   5.199   9.784   7.249 -0.1926 -1.4291  0.2311
48266SOL     OW53575   5.353   9.953  12.452  0.2658 -0.2084  0.3023
48266SOL    HW153576   5.355   9.896  12.376 -1.6674  0.5498 -0.3800
48266SOL    HW253577   5.375  10.040  12.418  0.6751 -0.0877  0.8565
48267SOL     OW53578  10.354   4.760   0.440 -0.2717 -0.0664 -0.3509
48267SOL    HW153579  10.338   4.852   0.457  1.1501 -0.0018  0.9014
48267SOL    HW253580  10.298   4.738   0.366 -1.5840  1.4716  0.1436
48268SOL     OW53581   3.299   5.882   5.605  0.5143  0.4020  0.5264
48268SOL    HW153582   3.255   5.882   5.519 -0.4680  0.4740  1.0197
48268SOL    HW253583   3.389   5.858   5.585  0.4670  1.1006 -0.6159
48269SOL     OW53584   7.282   2.459   1.614  0.5433  0.7836 -0.0711
48269SOL    HW153585   7.330   2.436   1.693  1.4027 -0.3263 -0.8757
48269SOL    HW253586   7.349   2.492   1.554  0.4226 -1.0938 -1.3345
48270SOL     OW53587   6.136   5.015   6.182 -0.1899 -0.2639 -0.2420
48270SOL    HW153588   6.173   4.947   6.126 -0.7401  0.4607 -1.5056
48270SOL    HW253589   6.058   5.046   6.136 -0.3623  0.7287  0.6591
48271SOL     OW53590   4.398   8.482   3.601 -0.4789 -0.7000  0.0800
48271SOL    HW153591   4.331   8.540   3.638  0.4034  0.4180 -0.0082
48271SOL    HW253592   4.468   8.482   3.666 -1.0865 -2.9541  0.8089
48272SOL     OW53593   2.870   8.856  10.870  0.0295 -0.2782 -0.3199
48272SOL    HW153594   2.919   8.794  10.924 -0.2057  0.0312  0.2560
48272SOL    HW253595   2.872   8.938  10.919 -0.0968  0.0422 -0.8342
48273SOL     OW53596  12.579   5.374   3.840  0.8712 -0.0858 -0.0773
48273SOL    HW153597  12.668   5.355   3.811  1.1403 -0.3315  0.9005
48273SOL    HW253598  12.584   5.463   3.876  0.9368 -0.4440  0.8222
48274SOL     OW53599   6.688   6.666   0.175  0.2056 -0.0418 -0.4612
48274SOL    HW153600   6.596   6.648   0.157  0.5914 -1.8333 -0.9060
48274SOL    HW253601   6.688   6.722   0.252 -1.2721  0.7699 -1.0164
48275SOL     OW53602   7.828   8.986   3.550 -0.0557 -0.3270 -0.8252
48275SOL    HW153603   7.921   8.969   3.563  0.5551  2.1149 -1.4241
48275SOL    HW253604   7.818   9.079   3.570 -2.3675 -0.5166 -0.8466
48276SOL     OW53605   2.174  11.747   2.932  0.0403 -0.3886  0.6465
48276SOL    HW153606   2.226  11.756   3.012 -1.0021 -0.9091  1.4094
48276SOL    HW253607   2.173  11.653   2.915  0.6675 -0.2455 -0.2876
48277SOL     OW53608   7.150  10.387   7.473  0.3231 -0.4016 -0.4064
48277SOL    HW153609   7.083  10.446   7.438  0.0444  0.0535  0.8306
48277SOL    HW253610   7.214  10.378   7.402 -0.0858  0.6869 -0.9372
48278SOL     OW53611   2.903  12.551   1.574  0.3336  0.1771 -0.1828
48278SOL    HW153612   2.967  12.622   1.579  0.7534 -0.0532 -1.8017
48278SOL    HW253613   2.925  12.505   1.493 -2.0338  0.2406 -0.9141
48279SOL     OW53614   8.774   2.524   6.101  0.2901 -0.4115  0.0511
48279SOL    HW153615   8.699   2.556   6.051 -0.9511 -1.1489  1.3334
48279SOL    HW253616   8.821   2.468   6.041  0.4599  0.9357 -1.1199
48280SOL     OW53617   5.099   0.698   4.429 -0.0377  0.6164  0.2262
48280SOL    HW153618   5.075   0.651   4.509  0.7815  0.3122  0.2963
48280SOL    HW253619   5.169   0.758   4.457  1.4849 -0.7161 -0.5939
48281SOL     OW53620   8.323   0.105   1.622 -0.4108 -0.6006  0.1200
48281SOL    HW153621   8.236   0.086   1.659  0.0118  0.7315  1.9477
48281SOL    HW253622   8.313   0.191   1.581 -0.4069 -1.2969 -1.4118
48282SOL     OW53623  10.344   4.391  11.940  0.4026  0.7582  0.3477
48282SOL    HW153624  10.343   4.375  12.035 -0.9891  2.4455  0.6777
48282SOL    HW253625  10.342   4.304  11.901  1.3169  0.0096  1.8536
48283SOL     OW53626   9.171   3.574  12.345 -0.7585  0.3701  0.5998
48283SOL    HW153627   9.162   3.667  12.321  0.1784  0.9716  2.4115
48283SOL    HW253628   9.202   3.532  12.265 -0.6642  1.7244 -0.1120
48284SOL     OW53629   2.448   6.903  10.496 -0.0341 -0.1973 -0.3223
48284SOL    HW153630   2.450   6.947  10.581 -0.4889 -0.9338  0.0747
48284SOL    HW253631   2.430   6.974  10.433  2.7265  0.8000 -0.1311
48285SOL     OW53632  12.496   3.147   1.637 -0.1194 -0.0119 -0.1086
48285SOL    HW153633  12.460   3.069   1.593  0.6060  0.0648 -0.8630
48285SOL    HW253634  12.455   3.221   1.590 -0.0569  0.0670 -0.0380
48286SOL     OW53635   6.321   5.450  11.865  0.0513  0.2394 -0.0071
48286SOL    HW153636   6.316   5.478  11.774 -1.5149  0.1361  0.0100
48286SOL    HW253637   6.230   5.431  11.889  0.3463  0.8592  1.7613
48287SOL     OW53638   9.368   0.986   4.038 -0.3311 -0.3463  0.0322
48287SOL    HW153639   9.319   0.970   4.118 -0.3219  1.1394  0.3714
48287SOL    HW253640   9.420   0.907   4.024 -0.9598 -0.9454  1.0323
48288SOL     OW53641   5.172   8.416   6.687 -0.0201  0.1364  0.1410
48288SOL    HW153642   5.114   8.403   6.612  0.5283 -0.5378 -0.1741
48288SOL    HW253643   5.146   8.348   6.749 -0.0875  0.3304  0.3274
48289SOL     OW53644   1.964   3.497   4.807 -0.2987 -0.6013 -0.2245
48289SOL    HW153645   2.008   3.578   4.779 -0.7116 -0.2738  0.0521
48289SOL    HW253646   1.991   3.487   4.899  0.4287 -1.2442 -0.5011
48290SOL     OW53647  11.590   1.637   3.050  0.3840  0.1211  0.2623
48290SOL    HW153648  11.634   1.613   2.968  0.3662  0.0644  0.2699
48290SOL    HW253649  11.659   1.679   3.102  0.1139  1.2612 -0.2607
48291SOL     OW53650   7.648   2.789   0.353 -0.0879 -0.4636 -0.4314
48291SOL    HW153651   7.680   2.700   0.359  1.5146  0.1625  0.9593
48291SOL    HW253652   7.707   2.832   0.290 -0.2032 -0.1132 -0.3039
48292SOL     OW53653   3.770   5.218   8.862 -0.0293  0.3992 -0.0550
48292SOL    HW153654   3.705   5.238   8.930  0.3051 -0.3588  0.4934
48292SOL    HW253655   3.843   5.277   8.880  0.4350 -0.4279  0.7996
48293SOL     OW53656   6.408   7.263   1.491 -0.2768 -0.0159 -0.3663
48293SOL    HW153657   6.440   7.270   1.401 -1.8597  1.7767 -0.8378
48293SOL    HW253658   6.331   7.318   1.494 -0.6511 -0.5553  1.9522
48294SOL     OW53659   5.810   2.032   3.165  0.0330  0.2586  0.4842
48294SOL    HW153660   5.718   2.020   3.141 -0.8034  1.0438  2.9591
48294SOL    HW253661   5.825   1.970   3.236  0.8933  1.3115  1.2632
48295SOL     OW53662  11.513   1.431   7.938 -0.0641  0.4460  0.4917
48295SOL    HW153663  11.574   1.484   7.990  2.3668 -1.2188 -0.4754
48295SOL    HW253664  11.519   1.467   7.849 -1.1807  0.7923  0.5382
48296SOL     OW53665   1.047   1.990   2.531 -0.1780  0.0648  0.0704
48296SOL    HW153666   1.036   1.964   2.440 -0.4143 -0.6250  0.2950
48296SOL    HW253667   1.097   1.919   2.571 -2.0983 -0.8074  1.0396
48297SOL     OW53668  12.358   8.067   2.963  0.1243 -0.4904  0.1267
48297SOL    HW153669  12.373   8.151   2.920 -0.2281 -0.8684 -0.7470
48297SOL    HW253670  12.264   8.066   2.982  0.3323 -0.1775  1.2432
48298SOL     OW53671  12.507   4.968   1.733 -0.1368  0.1256 -0.3575
48298SOL    HW153672  12.571   4.973   1.804 -0.4638 -0.0109 -0.0495
48298SOL    HW253673  12.545   4.907   1.670 -0.0545 -0.1202 -0.0751
48299SOL     OW53674   1.806   0.749   1.218 -0.0390  0.7783 -0.3226
48299SOL    HW153675   1.859   0.829   1.214  0.5248  0.4427  0.1628
48299SOL    HW253676   1.820   0.707   1.133 -1.4563  1.8651 -1.1375
48300SOL     OW53677   3.361   7.497  11.781 -0.2289  0.6779  0.0691
48300SOL    HW153678   3.450   7.517  11.755 -0.0338 -0.7408 -0.4312
48300SOL    HW253679   3.308   7.520  11.704 -0.1203  0.1684 -0.1588
48301SOL     OW53680   3.592   1.142   4.828  0.1329  0.1013 -0.7887
48301SOL    HW153681   3.561   1.137   4.918 -0.6844  1.0427 -1.0015
48301SOL    HW253682   3.518   1.112   4.776  0.2537  0.5238 -1.2061
48302SOL     OW53683   8.912   4.959  11.609 -0.4549 -0.2170 -0.3189
48302SOL    HW153684   8.957   4.958  11.524 -0.9983 -1.7347 -0.6230
48302SOL    HW253685   8.848   4.889  11.602 -0.2367 -0.6337  1.5086
48303SOL     OW53686   1.393  11.872   7.938 -0.0997 -0.6429  0.1181
48303SOL    HW153687   1.306  11.837   7.954 -1.3704  2.2095  0.0317
48303SOL    HW253688   1.453  11.799   7.958 -2.4124 -2.3962  1.0418
48304SOL     OW53689   5.880   0.565  10.619  0.2879 -0.4909 -0.3778
48304SOL    HW153690   5.858   0.545  10.710 -1.6672 -1.0708 -0.9387
48304SOL    HW253691   5.932   0.645  10.624  4.0262 -2.7113  1.5766
48305SOL     OW53692   6.876   5.917   1.641 -0.1062 -0.2713 -0.0853
48305SOL    HW153693   6.841   5.829   1.629  0.1543 -0.4175  0.2191
48305SOL    HW253694   6.938   5.928   1.568 -0.2622 -0.2763 -0.2187
48306SOL     OW53695   2.402   3.057   7.854 -0.4770 -0.1798  0.5120
48306SOL    HW153696   2.492   3.040   7.881  0.1996  1.9148 -0.1782
48306SOL    HW253697   2.379   2.983   7.799  1.8809  0.5132 -1.6090
48307SOL     OW53698   5.854   7.317   3.927 -0.1379 -0.0090  0.5388
48307SOL    HW153699   5.862   7.406   3.960 -1.9931 -0.0059  1.0526
48307SOL    HW253700   5.782   7.321   3.864  0.6213 -0.8963 -0.4303
48308SOL     OW53701  12.503   6.254   2.717 -0.0930  0.1501  0.4200
48308SOL    HW153702  12.480   6.204   2.639 -2.3935  1.5067  0.1305
48308SOL    HW253703  12.516   6.344   2.686 -0.8964  0.6850  1.5468
48309SOL     OW53704   4.299   8.885   2.137  0.4326 -0.1854  0.8922
48309SOL    HW153705   4.304   8.807   2.082  1.5977 -0.3745  1.2447
48309SOL    HW253706   4.269   8.853   2.222 -2.2435  0.2242  0.2070
48310SOL     OW53707   2.457  12.208   1.816 -0.1227 -0.4514  0.7381
48310SOL    HW153708   2.420  12.274   1.875 -0.0402 -0.0726  0.3698
48310SOL    HW253709   2.485  12.137   1.874 -1.3468 -0.7177  1.0432
48311SOL     OW53710   2.454   1.869   8.862  0.1186  0.4206 -0.3993
48311SOL    HW153711   2.369   1.833   8.838  1.1667 -1.3708 -1.6907
48311SOL    HW253712   2.515   1.832   8.798  2.0466  0.7767  1.1203
48312SOL     OW53713   3.057  11.567   4.684 -0.2854  1.0131  0.3532
48312SOL    HW153714   3.000  11.520   4.745 -1.3374  1.8264  0.0430
48312SOL    HW253715   2.996  11.612   4.626  0.7036  1.1332 -0.6073
48313SOL     OW53716   5.816   5.122   5.742  0.4746  0.1862 -0.5236
48313SOL    HW153717   5.774   5.102   5.658  1.0932  0.1047 -0.8205
48313SOL    HW253718   5.876   5.049   5.756  0.4906  0.2830 -0.0880
48314SOL     OW53719  11.290   3.960  12.180 -0.0338  0.1748 -0.1827
48314SOL    HW153720  11.267   3.983  12.090 -0.7982 -0.4197 -0.1543
48314SOL    HW253721  11.269   3.867  12.186  2.6155 -0.4913 -0.2001
48315SOL     OW53722   6.773   4.113   7.302  0.5453 -0.0942 -0.2384
48315SOL    HW153723   6.831   4.111   7.378 -1.4372 -1.7800  1.3439
48315SOL    HW253724   6.829   4.141   7.230  3.0115 -0.4537  1.4198
48316SOL     OW53725   1.238   4.645   1.739  0.7667 -0.3167  0.1986
48316SOL    HW153726   1.171   4.619   1.802 -0.1930  2.5086  0.5139
48316SOL    HW253727   1.251   4.739   1.755  1.5261  0.2250 -2.8319
48317SOL     OW53728   8.722   3.087  12.463  0.0788  0.3595  0.4437
48317SOL    HW153729   8.719   3.140  12.383  0.4165  0.8577  0.7539
48317SOL    HW253730   8.760   3.145  12.529  0.8271 -0.3930  0.6971
48318SOL     OW53731   8.692   0.274   3.610 -0.1063 -0.1481 -0.2454
48318SOL    HW153732   8.768   0.274   3.552 -0.1678  1.0792 -0.3349
48318SOL    HW253733   8.617   0.292   3.554 -0.2083  0.6987  0.1534
48319SOL     OW53734  12.029   5.864   0.894 -0.1044 -0.3548  0.2184
48319SOL    HW153735  11.987   5.935   0.846  0.9238  0.5875  0.6559
48319SOL    HW253736  12.093   5.908   0.951  0.9764 -1.6729  0.0790
48320SOL     OW53737   4.759   0.866   7.877  0.4818 -0.0870  0.1694
48320SOL    HW153738   4.768   0.936   7.942 -2.5892 -0.2261  0.8786
48320SOL    HW253739   4.697   0.900   7.813  0.4858 -1.4157 -0.5889
48321SOL     OW53740   6.041   5.671   1.994  0.2632  0.2286 -0.1110
48321SOL    HW153741   6.053   5.647   1.902 -1.5843  3.2298 -1.3105
48321SOL    HW253742   5.988   5.601   2.031  1.9951 -1.6142 -0.9396
48322SOL     OW53743  10.626   0.462   9.128 -0.2647 -0.1243 -0.0546
48322SOL    HW153744  10.655   0.533   9.071  0.0345 -0.0187  0.2270
48322SOL    HW253745  10.671   0.384   9.093 -1.3393 -0.3656 -0.9641
48323SOL     OW53746   8.362   0.152   4.388 -0.2615  0.3482  0.5695
48323SOL    HW153747   8.427   0.181   4.452  0.4380 -1.2029  0.6126
48323SOL    HW253748   8.356   0.224   4.325  2.3096  0.1137 -0.0231
48324SOL     OW53749   0.865   5.004   0.407  0.1694 -0.2825 -0.7383
48324SOL    HW153750   0.799   5.052   0.458  1.4865  1.2297 -0.3544
48324SOL    HW253751   0.887   4.928   0.461 -0.2406 -0.0246 -0.2042
48325SOL     OW53752   8.289   2.993  10.451  0.3105 -0.5811 -0.4734
48325SOL    HW153753   8.333   2.909  10.458 -1.3627 -1.3929  1.2777
48325SOL    HW253754   8.235   2.999  10.530 -1.5509  0.9858 -1.7455
48326SOL     OW53755   7.253   1.076  12.275 -0.1715  0.1757 -0.0565
48326SOL    HW153756   7.337   1.048  12.311 -0.9839 -1.3852  0.7796
48326SOL    HW253757   7.252   1.042  12.186  0.0527  0.1093 -0.0332
48327SOL     OW53758   5.909   2.659   4.708 -0.1454  0.6387  0.6276
48327SOL    HW153759   5.818   2.654   4.736 -0.6104 -2.2472 -1.0377
48327SOL    HW253760   5.955   2.593   4.760  0.1937 -0.4858 -1.0060
48328SOL     OW53761   4.987   4.628   0.649 -0.3887  0.0457 -0.2809
48328SOL    HW153762   4.963   4.538   0.626 -0.7160  0.5065 -1.8757
48328SOL    HW253763   5.082   4.630   0.642 -0.3114 -0.3379  0.4748
48329SOL     OW53764  10.686  10.734   2.919  0.5390  0.0706 -0.7313
48329SOL    HW153765  10.767  10.684   2.925  0.1235 -0.5357 -0.0518
48329SOL    HW253766  10.680  10.782   3.002  0.6882  0.8786 -1.1774
48330SOL     OW53767   6.462   2.347   6.837 -0.0400  0.7668  0.2496
48330SOL    HW153768   6.529   2.356   6.904 -0.2063 -1.7695  0.8315
48330SOL    HW253769   6.505   2.300   6.766 -0.8384  0.2555  0.0898
48331SOL     OW53770   1.162   7.187   0.866  0.0053 -0.0793 -0.0828
48331SOL    HW153771   1.211   7.123   0.813  0.0200 -0.5115  0.4449
48331SOL    HW253772   1.074   7.149   0.874  0.1355 -0.2503  0.5975
48332SOL     OW53773   1.422   0.275   2.423 -0.3151 -0.1427 -0.3234
48332SOL    HW153774   1.464   0.360   2.436  0.2240 -0.6576  1.5623
48332SOL    HW253775   1.440   0.254   2.331 -0.7415  1.8960 -0.9330
48333SOL     OW53776   9.166   9.625   3.882  0.8751 -0.2172 -0.1236
48333SOL    HW153777   9.099   9.582   3.935  1.2168  1.1301  1.4705
48333SOL    HW253778   9.249   9.599   3.923  1.1727  0.5765 -0.2163
48334SOL     OW53779   2.926   8.296   9.315 -0.1871  0.0942 -0.1921
48334SOL    HW153780   2.910   8.203   9.330  1.5443  0.0644  1.8965
48334SOL    HW253781   2.840   8.337   9.325 -1.0562 -1.2554 -1.5314
48335SOL     OW53782   2.261   2.533   1.183 -0.0247  0.0097  0.0055
48335SOL    HW153783   2.193   2.574   1.130  0.2469 -0.2435 -0.5449
48335SOL    HW253784   2.297   2.605   1.235 -0.4568  0.2125  0.0270
48336SOL     OW53785  11.625  11.745   2.744 -0.2951  0.0363 -0.6032
48336SOL    HW153786  11.649  11.801   2.818  0.2381  0.5298 -1.1393
48336SOL    HW253787  11.546  11.786   2.709 -1.4863 -1.0964  0.6334
48337SOL     OW53788   3.147   3.507  10.227 -0.2833  0.7258 -0.2420
48337SOL    HW153789   3.153   3.549  10.313 -0.6209  0.2215  0.0324
48337SOL    HW253790   3.120   3.577  10.168  0.5359  1.2195 -0.0576
48338SOL     OW53791  11.751   4.260  10.062  0.0884  0.2762  0.1411
48338SOL    HW153792  11.696   4.189  10.095 -0.7748  0.4096 -0.9691
48338SOL    HW253793  11.701   4.298   9.990  1.6901  0.3198 -0.9934
48339SOL     OW53794  11.498   3.908   0.584  0.0782 -0.2106 -0.2683
48339SOL    HW153795  11.440   3.971   0.626  0.1240  1.0163 -1.9594
48339SOL    HW253796  11.578   3.909   0.637  0.7846  2.5561 -1.2169
48340SOL     OW53797  11.877   3.460   6.734  0.2227  0.1922 -0.1622
48340SOL    HW153798  11.871   3.526   6.802 -0.6903 -0.3303  0.2886
48340SOL    HW253799  11.786   3.443   6.709  0.4353 -0.9084 -0.2463
48341SOL     OW53800   4.929   9.752   2.217  0.0678  0.2898  0.0835
48341SOL    HW153801   5.016   9.792   2.225 -0.4718  2.3074 -2.7343
48341SOL    HW253802   4.895   9.752   2.306  2.0609  1.6443  0.9206
48342SOL     OW53803   6.392   1.607   0.078 -0.1925  0.6170  0.2279
48342SOL    HW153804   6.386   1.535   0.014 -1.3809  0.9215 -0.0242
48342SOL    HW253805   6.414   1.684   0.025 -2.3994  1.1291 -0.0678
48343SOL     OW53806   2.034   3.154   1.781  0.5961 -0.3689  0.0862
48343SOL    HW153807   2.108   3.197   1.739  0.5330  0.3410  0.6868
48343SOL    HW253808   2.019   3.205   1.861  0.4355 -1.4316  0.7437
48344SOL     OW53809   8.273   5.101   2.780  0.6821 -0.1704 -0.0369
48344SOL    HW153810   8.247   5.124   2.870  0.4841  2.3824 -0.6673
48344SOL    HW253811   8.366   5.082   2.786  0.7076  0.1401  0.6862
48345SOL     OW53812   6.696  10.576   0.389 -0.0772  0.6689 -0.1152
48345SOL    HW153813   6.670  10.663   0.419 -2.0763  0.4491 -1.0635
48345SOL    HW253814   6.707  10.524   0.469 -1.7728  1.0259  0.3815
48346SOL     OW53815   1.079  10.558   5.163 -0.4235 -0.3221 -0.3531
48346SOL    HW153816   1.109  10.476   5.123  0.1353 -0.5738  0.5586
48346SOL    HW253817   1.121  10.626   5.111  0.8231 -0.6601  0.1836
48347SOL     OW53818   2.104   1.194   1.893 -0.1169 -0.4437  0.3961
48347SOL    HW153819   2.113   1.207   1.798 -1.8125 -1.4418  0.0569
48347SOL    HW253820   2.035   1.128   1.901  0.1374 -0.5089  2.3370
48348SOL     OW53821   6.589   4.757  10.997  0.0695 -0.3168  0.5818
48348SOL    HW153822   6.524   4.767  10.928  0.3621  0.7559  0.4355
48348SOL    HW253823   6.539   4.742  11.077 -0.3730  0.4989  0.4703
48349SOL     OW53824   0.970   7.459   1.708  0.0060 -0.5689  0.6747
48349SOL    HW153825   0.944   7.428   1.795  0.5623 -0.4518  0.8823
48349SOL    HW253826   1.008   7.382   1.665  2.4315  0.0344  1.5923
48350SOL     OW53827   0.189   8.680   8.645 -0.3348 -0.1995  0.3142
48350SOL    HW153828   0.204   8.704   8.554  0.7919 -0.6836  0.3622
48350SOL    HW253829   0.183   8.585   8.644 -1.9644 -0.1299  0.5309
48351SOL     OW53830  11.696   1.120  10.680  0.3828  0.0123  0.4879
48351SOL    HW153831  11.709   1.075  10.764  0.8224 -0.5327  0.1339
48351SOL    HW253832  11.606   1.152  10.684 -0.2045 -1.5208  0.4740
48352SOL     OW53833   2.955  10.225   8.560 -0.1423  0.3564 -0.2444
48352SOL    HW153834   2.983  10.205   8.471 -1.4169 -0.5502 -0.4707
48352SOL    HW253835   2.880  10.283   8.549 -1.0330 -0.6920  0.1845
48353SOL     OW53836   0.557   6.431   2.901  0.1696 -0.0345  0.4711
48353SOL    HW153837   0.476   6.476   2.924 -0.7185 -0.9036 -0.8205
48353SOL    HW253838   0.588   6.393   2.983 -0.7331  0.2956  0.9812
48354SOL     OW53839   3.607   9.929   3.606  0.1042  0.1934  0.3112
48354SOL    HW153840   3.674   9.949   3.541  1.2185 -0.2345  1.2997
48354SOL    HW253841   3.530   9.979   3.577 -0.3453 -2.0215 -2.8368
48355SOL     OW53842   1.867  12.041   0.808  0.5557  0.4752 -0.1681
48355SOL    HW153843   1.835  12.052   0.718  0.7252 -0.7323 -0.3984
48355SOL    HW253844   1.956  12.008   0.798  0.6261  0.4637  0.4511
48356SOL     OW53845   1.489  12.292   2.102 -0.0044 -0.3227  0.5157
48356SOL    HW153846   1.418  12.228   2.106  0.4795 -0.8074  1.8904
48356SOL    HW253847   1.558  12.250   2.051 -1.2359  0.7490 -2.1990
48357SOL     OW53848   3.710   9.025   0.989  0.1124  0.2548  0.7354
48357SOL    HW153849   3.621   9.061   0.984  0.5944  1.6649  1.7511
48357SOL    HW253850   3.765   9.092   0.948  0.7741 -0.3898  0.5563
48358SOL     OW53851   0.417   3.383   0.431  1.1558 -0.2997 -0.2650
48358SOL    HW153852   0.424   3.466   0.383  0.5782  0.2620  0.5742
48358SOL    HW253853   0.322   3.370   0.440  1.2531 -0.3711  0.7322
48359SOL     OW53854   5.638   6.743   5.448 -0.2071  0.2954  0.0858
48359SOL    HW153855   5.674   6.738   5.537 -0.3777  2.1535  0.2897
48359SOL    HW253856   5.543   6.741   5.460 -0.2312  0.6590 -0.0449
48360SOL     OW53857   7.996  11.380   8.214 -0.1341 -0.2170 -0.5020
48360SOL    HW153858   8.042  11.322   8.275 -1.1880 -0.9436 -0.3641
48360SOL    HW253859   7.968  11.322   8.143  1.2030  0.6472 -1.7793
48361SOL     OW53860   4.640   3.599   9.651  0.4496  0.4125 -0.3052
48361SOL    HW153861   4.694   3.656   9.705 -2.5234  2.6459  0.5702
48361SOL    HW253862   4.632   3.518   9.703 -0.4595  1.6620  1.6278
48362SOL     OW53863   0.535   2.153  11.806  0.1076 -0.2007 -0.0330
48362SOL    HW153864   0.494   2.184  11.887  0.3320 -0.0665  0.0305
48362SOL    HW253865   0.582   2.229  11.773 -0.1077 -0.2133 -0.3705
48363SOL     OW53866   2.092   6.265   2.496 -0.1643  0.3345 -0.4721
48363SOL    HW153867   2.018   6.290   2.441 -1.6256 -1.4523  0.5645
48363SOL    HW253868   2.125   6.184   2.456 -0.5944 -0.4176  0.6290
48364SOL     OW53869   2.897   2.574   4.697  0.0449 -0.0672 -0.0502
48364SOL    HW153870   2.876   2.619   4.778 -0.2279 -0.5662  0.1639
48364SOL    HW253871   2.849   2.621   4.629  1.8103  1.5903 -0.2447
48365SOL     OW53872   9.934   1.309   1.266  0.0624  0.0871 -0.2061
48365SOL    HW153873   9.918   1.262   1.184 -0.1301 -0.4164  0.1162
48365SOL    HW253874   9.857   1.365   1.277  0.2417  0.4063 -0.5333
48366SOL     OW53875   7.856   1.689   1.227  0.5368 -0.2115 -0.1273
48366SOL    HW153876   7.950   1.673   1.233  1.0660  2.3892 -0.4001
48366SOL    HW253877   7.841   1.712   1.136 -0.3667 -0.5722 -0.0794
48367SOL     OW53878  10.582   7.220   1.534  0.0665  0.4319 -0.4193
48367SOL    HW153879  10.510   7.222   1.472 -0.5810  1.3881  0.3414
48367SOL    HW253880  10.548   7.174   1.610  0.9272 -0.9332 -0.8130
48368SOL     OW53881   4.384   0.639   0.683 -0.9497  0.1689 -0.2707
48368SOL    HW153882   4.345   0.622   0.597 -0.8938 -1.0598 -0.0716
48368SOL    HW253883   4.370   0.558   0.732 -0.3228  0.5925  0.6333
48369SOL     OW53884   7.037   7.170   2.525  0.2340  0.4235 -0.5317
48369SOL    HW153885   7.008   7.157   2.435 -2.1063  0.3678  0.1672
48369SOL    HW253886   6.959   7.200   2.571  0.6899 -1.8880  2.0022
48370SOL     OW53887   3.849   4.454   2.724  0.4809 -0.3922  0.6671
48370SOL    HW153888   3.920   4.402   2.686  0.4499 -1.2753  1.7445
48370SOL    HW253889   3.777   4.392   2.734 -0.8150  0.6938 -1.2492
48371SOL     OW53890   0.065   1.657   4.978  0.0701  0.0021 -0.7188
48371SOL    HW153891   0.069   1.705   5.060 -0.3622  0.5465 -1.0091
48371SOL    HW253892   0.031   1.571   5.003 -0.2858  0.2428 -0.3553
48372SOL     OW53893   1.719   6.750   9.884 -0.1234  0.3439  0.2038
48372SOL    HW153894   1.694   6.737   9.976  1.2875 -1.5247  0.3819
48372SOL    HW253895   1.806   6.791   9.888 -0.3503  0.8902 -0.3227
48373SOL     OW53896   0.927   6.313   2.284 -0.3322  0.2536  0.1827
48373SOL    HW153897   0.937   6.356   2.368 -0.4466  1.5876 -0.4587
48373SOL    HW253898   0.972   6.370   2.222 -0.5140 -0.5412 -0.7084
48374SOL     OW53899   3.626   0.423   5.947 -0.3649 -0.6230  0.0785
48374SOL    HW153900   3.545   0.391   5.908  1.0032 -2.3162 -1.5352
48374SOL    HW253901   3.663   0.483   5.882 -0.4126  0.3756  0.9316
48375SOL     OW53902   3.926   4.685   9.532  0.3679  0.3481 -0.1911
48375SOL    HW153903   3.858   4.732   9.579 -0.8733  0.0278 -1.6117
48375SOL    HW253904   3.900   4.689   9.440  2.8963  1.2805 -0.9571
48376SOL     OW53905   1.665   3.147   0.620  0.4801  0.4273  0.4715
48376SOL    HW153906   1.700   3.150   0.531  0.7807  0.1434  0.5798
48376SOL    HW253907   1.726   3.201   0.671  0.7007  0.0295  0.6367
48377SOL     OW53908  11.426   0.499   6.528 -0.0792 -0.6455 -0.3249
48377SOL    HW153909  11.484   0.424   6.544  2.3185  0.7105 -1.9731
48377SOL    HW253910  11.367   0.470   6.458  0.3113 -1.2457 -0.4090
48378SOL     OW53911  10.748   1.614   8.724  0.5641  0.3319  0.4969
48378SOL    HW153912  10.709   1.527   8.728 -0.3864  0.6044 -1.5785
48378SOL    HW253913  10.818   1.607   8.659  1.1322  0.9005  1.0280
48379SOL     OW53914   8.584   8.126   2.717 -0.2443 -0.3676  0.3820
48379SOL    HW153915   8.532   8.118   2.797 -1.5765 -1.9516 -0.5681
48379SOL    HW253916   8.674   8.136   2.747 -0.9486  1.5611  2.0723
48380SOL     OW53917   8.741   8.033   8.088 -0.3460 -0.3210  0.8195
48380SOL    HW153918   8.793   8.054   8.166 -1.8707 -0.5036  1.9209
48380SOL    HW253919   8.692   8.114   8.070 -0.9077 -0.6626  0.7920
48381SOL     OW53920   5.607  10.441   4.856  0.0669  0.6648 -0.4711
48381SOL    HW153921   5.656  10.402   4.929 -3.9147  0.3129  2.3058
48381SOL    HW253922   5.649  10.405   4.778  2.4882 -1.6816  1.6908
48382SOL     OW53923   2.765   5.913  10.579 -0.0671 -0.1975  0.0198
48382SOL    HW153924   2.747   5.819  10.582 -0.9490 -0.0256  0.4360
48382SOL    HW253925   2.849   5.923  10.625  0.6220 -0.8993 -1.0429
48383SOL     OW53926  12.523  12.024   3.046 -0.5366  0.3912 -0.2017
48383SOL    HW153927  12.541  11.931   3.052  2.7708  0.9923  1.2362
48383SOL    HW253928  12.575  12.055   2.972 -0.6499  1.2744  0.0693
48384SOL     OW53929   1.224   8.450   6.698 -0.0226 -0.3694 -0.5274
48384SOL    HW153930   1.274   8.501   6.635 -0.5413  1.9685  0.8517
48384SOL    HW253931   1.136   8.447   6.662 -0.6935  2.2633  0.6636
48385SOL     OW53932   9.407   4.114  10.500  0.3890 -0.1732 -0.5847
48385SOL    HW153933   9.341   4.070  10.446 -1.2565  1.2426  0.1640
48385SOL    HW253934   9.388   4.086  10.589  1.6913 -0.7870 -0.4830
48386SOL     OW53935  11.853   3.198   7.304  0.6192  0.4301  0.1486
48386SOL    HW153936  11.860   3.160   7.392  0.4046 -0.5964 -0.2678
48386SOL    HW253937  11.896   3.283   7.312  0.7775  0.2704  1.2009
48387SOL     OW53938   4.191   3.598  10.181  0.5184  0.3569 -0.5129
48387SOL    HW153939   4.104   3.640  10.175 -0.1366 -1.0670 -1.4139
48387SOL    HW253940   4.246   3.649  10.122  0.4145  1.5232  0.3674
48388SOL     OW53941  10.516  10.920   6.181  0.9019  0.4401  0.2307
48388SOL    HW153942  10.429  10.929   6.143  1.0864  1.8148  0.0760
48388SOL    HW253943  10.514  10.977   6.258  2.7408  3.5472 -1.7889
48389SOL     OW53944   8.042   7.981   1.004  0.5005  0.7259 -0.2002
48389SOL    HW153945   8.031   7.924   0.927 -0.4256 -1.3940  1.3970
48389SOL    HW253946   8.111   7.939   1.055 -1.8749 -0.5540  2.2279
48390SOL     OW53947   8.361   3.098   9.476 -0.2194  0.1978 -0.4143
48390SOL    HW153948   8.437   3.067   9.427 -1.1336 -2.8515 -0.1188
48390SOL    HW253949   8.390   3.099   9.567 -0.1865  0.1950 -0.4248
48391SOL     OW53950   3.406   9.903   2.868  0.1151 -0.4767  0.0500
48391SOL    HW153951   3.428   9.944   2.952 -0.5745 -0.5738  0.2834
48391SOL    HW253952   3.486   9.858   2.841  0.4149 -0.2377  0.5359
48392SOL     OW53953   3.453  11.864   2.470  0.0783  0.1723  0.3008
48392SOL    HW153954   3.443  11.887   2.378 -1.5962  1.0223  0.6528
48392SOL    HW253955   3.483  11.944   2.512 -1.8348  0.6129  0.8999
48393SOL     OW53956   2.203   0.560   2.612  0.8489 -0.0142 -0.1540
48393SOL    HW153957   2.234   0.649   2.626  0.9938 -0.0111 -0.4917
48393SOL    HW253958   2.272   0.517   2.561  0.7513 -0.3011 -0.0511
48394SOL     OW53959   9.828   2.023   9.878  0.0042 -0.5578 -0.1605
48394SOL    HW153960   9.800   2.108   9.909 -1.3286 -1.0406  0.0183
48394SOL    HW253961   9.819   2.028   9.783  1.3193 -0.0396 -0.2788
48395SOL     OW53962  11.487  11.077   9.653  0.1363 -0.7633  0.5088
48395SOL    HW153963  11.537  11.053   9.575  0.4024 -0.8021  0.6896
48395SOL    HW253964  11.513  11.013   9.718  0.0756 -0.6000  0.6927
48396SOL     OW53965  11.823  11.816   3.280 -0.6496 -0.6011 -0.0418
48396SOL    HW153966  11.865  11.771   3.354  0.2600 -1.5389 -1.0928
48396SOL    HW253967  11.894  11.857   3.232 -1.3753  1.2087  0.3338
48397SOL     OW53968   6.118   6.146   1.787 -0.1754 -0.1803  0.4225
48397SOL    HW153969   6.101   6.227   1.836 -2.6083 -0.1327 -0.3883
48397SOL    HW253970   6.068   6.079   1.833 -0.3716 -0.6684 -0.4778
48398SOL     OW53971   4.783   3.777   9.839 -0.0885 -0.3139  0.2055
48398SOL    HW153972   4.810   3.862   9.873  0.2787 -0.2439 -0.2549
48398SOL    HW253973   4.837   3.714   9.887 -1.2787 -0.3948  1.4978
48399SOL     OW53974   3.130   6.760   0.866  0.1377 -0.4483 -0.1313
48399SOL    HW153975   3.159   6.817   0.795  0.9254 -1.0872 -0.3502
48399SOL    HW253976   3.175   6.793   0.944  0.3188 -0.5544 -0.1903
48400SOL     OW53977   4.567   1.332   4.425 -0.1665 -0.1127 -0.2305
48400SOL    HW153978   4.591   1.421   4.450  0.3962 -0.2752 -0.1664
48400SOL    HW253979   4.569   1.332   4.330 -2.1642  0.4686 -0.3048
48401SOL     OW53980  10.250  10.126   4.342 -0.2296 -0.4177 -0.1465
48401SOL    HW153981  10.319  10.176   4.299  0.5557  2.6962  4.1587
48401SOL    HW253982  10.170  10.152   4.297  0.5149  2.7440  0.1133
48402SOL     OW53983   9.126   0.546  11.513  0.5805  0.3109  0.0866
48402SOL    HW153984   9.093   0.464  11.550  1.7168 -0.3367 -0.2587
48402SOL    HW253985   9.082   0.615  11.562 -0.1802 -0.5104  0.5856
48403SOL     OW53986  10.996   1.765  11.208  0.7666  0.0014  0.4472
48403SOL    HW153987  10.929   1.705  11.242  0.2029  0.2138 -0.2750
48403SOL    HW253988  10.950   1.819  11.144  1.5940  0.2629  0.0581
48404SOL     OW53989   3.563   8.174  10.555 -0.1061  0.2034  0.6978
48404SOL    HW153990   3.556   8.268  10.572  0.4769  0.7369 -1.6715
48404SOL    HW253991   3.487   8.154  10.499  0.6153 -0.3920 -0.0946
48405SOL     OW53992   5.757   6.373   6.074 -0.4607 -0.3102  0.7134
48405SOL    HW153993   5.729   6.433   6.005 -0.5467 -0.2339  0.8131
48405SOL    HW253994   5.809   6.307   6.029 -1.7230 -1.0934  0.3388
48406SOL     OW53995   1.464   5.377   6.135  0.0420  0.4603  0.8336
48406SOL    HW153996   1.558   5.389   6.142  0.1514  0.2566 -0.1790
48406SOL    HW253997   1.450   5.283   6.147 -0.0322  0.4890  0.9764
48407SOL     OW53998   1.558   9.119   0.749  0.4659 -0.4590  0.3012
48407SOL    HW153999   1.550   9.048   0.812  0.4294 -0.9831 -0.2811
48407SOL    HW254000   1.619   9.085   0.683  1.0477  0.3404  0.4121
48408SOL     OW54001   6.316   9.958   9.646 -0.8440 -0.1585 -0.1298
48408SOL    HW154002   6.243  10.016   9.622 -0.7308  0.3022  0.6168
48408SOL    HW254003   6.383   9.976   9.581 -0.3119  1.5193  0.8245
48409SOL     OW54004   7.763   8.568  12.566  0.6582 -0.1601  0.8397
48409SOL    HW154005   7.849   8.533  12.543 -0.4633 -2.8047  0.2302
48409SOL    HW254006   7.721   8.498  12.616 -1.8343  0.2305 -0.5077
48410SOL     OW54007   5.907   0.946   6.012 -0.0396  0.4244 -0.2283
48410SOL    HW154008   5.899   0.937   5.917 -0.2357 -1.5817 -0.0583
48410SOL    HW254009   5.981   0.890   6.035 -1.4522 -1.0068  1.0373
48411SOL     OW54010   3.850   0.552   3.398 -0.8732  0.0467 -0.7423
48411SOL    HW154011   3.889   0.640   3.397  0.1962 -0.3705  0.6106
48411SOL    HW254012   3.756   0.568   3.390 -0.7494  1.3754  0.0134
48412SOL     OW54013   6.409   3.658   6.359  1.1245  0.1201  0.0822
48412SOL    HW154014   6.479   3.634   6.297  1.5165 -0.2981  0.6792
48412SOL    HW254015   6.396   3.580   6.412 -0.5799 -0.1900 -0.7225
48413SOL     OW54016  11.023  11.488   2.195 -0.4573  0.1547 -0.2449
48413SOL    HW154017  10.977  11.440   2.263  0.8216  2.2604  2.2844
48413SOL    HW254018  11.090  11.427   2.163 -0.0991 -0.4269  1.5047
48414SOL     OW54019   7.396  10.891   8.055  0.0125  0.8877 -0.2005
48414SOL    HW154020   7.437  10.818   8.102  1.1087  0.7434 -1.3223
48414SOL    HW254021   7.313  10.855   8.023  0.3732  0.2393 -0.4360
48415SOL     OW54022   1.364   8.172   1.254 -1.1208 -0.2077  0.3922
48415SOL    HW154023   1.424   8.187   1.181 -0.7023  1.0253  0.9632
48415SOL    HW254024   1.333   8.259   1.277 -0.6562 -0.4840  2.1862
48416SOL     OW54025   8.583   1.456   8.096  0.7788 -0.3103 -0.2470
48416SOL    HW154026   8.651   1.516   8.127 -0.4462  0.9703  0.0779
48416SOL    HW254027   8.571   1.394   8.167  1.0906 -0.0797  0.0086
48417SOL     OW54028   6.112  10.005   3.384 -0.1193 -0.6463 -0.3801
48417SOL    HW154029   6.161  10.026   3.464 -0.2616 -1.0783 -0.1758
48417SOL    HW254030   6.076   9.918   3.400 -2.5841  0.4222  0.2637
48418SOL     OW54031  12.019   1.091   4.026 -0.7956  0.1103 -0.0318
48418SOL    HW154032  12.077   1.162   3.997 -0.8399 -0.0142 -0.4292
48418SOL    HW254033  12.070   1.011   4.014  0.0434  0.2040  2.3758
48419SOL     OW54034   1.433   9.226   4.992 -0.3644  0.0868  0.0290
48419SOL    HW154035   1.437   9.259   4.902 -0.0601  0.1552  0.0654
48419SOL    HW254036   1.350   9.258   5.025 -0.2860  0.4224 -0.0915
48420SOL     OW54037   5.996   3.060   2.461 -0.2618  0.3757  0.6247
48420SOL    HW154038   6.013   3.153   2.442  0.1030  0.2413  0.2686
48420SOL    HW254039   5.983   3.056   2.555 -0.4174  0.8108  0.6235
48421SOL     OW54040   6.630   1.394  11.696  0.4700  0.2563 -0.7657
48421SOL    HW154041   6.629   1.478  11.741 -1.2775 -0.0778 -0.1272
48421SOL    HW254042   6.662   1.332  11.761 -0.8809 -0.0170 -0.3356
48422SOL     OW54043   5.437   1.448   7.398  0.6528  0.1931  0.1773
48422SOL    HW154044   5.379   1.524   7.393  0.8224  0.4693  1.8213
48422SOL    HW254045   5.404   1.388   7.332 -0.0602  1.2977 -0.5095
48423SOL     OW54046   7.730  11.697   3.921 -0.0955 -0.0511 -0.5784
48423SOL    HW154047   7.804  11.744   3.882 -0.2249  0.2644 -0.4463
48423SOL    HW254048   7.755  11.685   4.012 -1.1212  1.9950  0.0328
48424SOL     OW54049   3.294  11.332   9.683  0.6692 -0.1773  0.8541
48424SOL    HW154050   3.221  11.344   9.744 -0.7374  0.4862 -0.8666
48424SOL    HW254051   3.336  11.418   9.678 -1.0448  0.6338 -1.2407
48425SOL     OW54052   7.345  11.337  10.563 -0.2649 -0.0317 -0.1489
48425SOL    HW154053   7.314  11.284  10.489 -1.0998 -0.1328  0.2683
48425SOL    HW254054   7.283  11.319  10.633  1.9945 -2.0234  1.4845
48426SOL     OW54055   3.199   7.981   5.544 -0.1520 -0.0163  0.0163
48426SOL    HW154056   3.243   7.899   5.520 -1.5179 -0.8202  0.1725
48426SOL    HW254057   3.251   8.015   5.617  1.2482  0.0055 -0.9337
48427SOL     OW54058   8.268   1.078   5.901  0.4561 -0.5272 -0.0951
48427SOL    HW154059   8.283   0.996   5.853 -0.1778  0.3451 -1.8969
48427SOL    HW254060   8.273   1.146   5.833 -1.1444  0.7310  0.9780
48428SOL     OW54061   3.413   2.822   9.179  0.4317 -0.1849  0.1854
48428SOL    HW154062   3.353   2.834   9.105  0.8961  0.8621 -0.0302
48428SOL    HW254063   3.419   2.727   9.189  0.6348 -0.3613 -1.3564
48429SOL     OW54064   8.258  10.781   1.008 -0.3902  0.2664  0.0579
48429SOL    HW154065   8.163  10.775   1.008 -0.3481 -1.2065  1.2756
48429SOL    HW254066   8.281  10.796   1.100  0.5771 -0.1430 -0.0983
48430SOL     OW54067  10.020   9.273   1.049 -0.4040  0.0233 -0.6994
48430SOL    HW154068   9.940   9.324   1.037 -1.2824 -1.5553 -1.9141
48430SOL    HW254069  10.073   9.295   0.972 -0.6391 -0.5955 -1.0478
48431SOL     OW54070   3.437   9.586   1.640 -0.6032 -0.1315 -0.3956
48431SOL    HW154071   3.492   9.532   1.583 -1.1124 -0.7318 -0.3353
48431SOL    HW254072   3.353   9.540   1.642 -0.2191 -0.8519  1.8869
48432SOL     OW54073   9.310   3.825   6.244  0.3486 -0.5963  0.0699
48432SOL    HW154074   9.307   3.731   6.258  0.1934 -0.5808  0.1499
48432SOL    HW254075   9.389   3.840   6.192 -0.9508 -1.0381 -2.1611
48433SOL     OW54076   7.700   2.676   8.555  0.6058  0.0191 -0.0346
48433SOL    HW154077   7.678   2.681   8.648 -0.4418 -2.0571 -0.1028
48433SOL    HW254078   7.621   2.707   8.510 -0.1290 -1.9670 -0.2162
48434SOL     OW54079   5.527   5.370   2.181  0.6822 -0.1100 -0.0545
48434SOL    HW154080   5.536   5.276   2.164 -0.2182 -1.0118  3.5445
48434SOL    HW254081   5.599   5.391   2.240  1.3027  1.7038 -1.3590
48435SOL     OW54082   3.838   5.839   6.085 -0.1616  0.5745  0.4184
48435SOL    HW154083   3.821   5.746   6.071  1.1771 -0.3026  3.6730
48435SOL    HW254084   3.908   5.860   6.023 -0.3578 -0.6174 -0.2360
48436SOL     OW54085   4.496   4.870  10.990  0.0814  0.6211  0.2916
48436SOL    HW154086   4.453   4.953  11.010 -0.4291  0.6253 -0.7644
48436SOL    HW254087   4.537   4.885  10.905  1.1559  0.2220  0.7206
48437SOL     OW54088   1.393   0.450   7.286  0.5785 -0.0891  0.6141
48437SOL    HW154089   1.372   0.493   7.203  1.3791  2.0894  1.4816
48437SOL    HW254090   1.345   0.500   7.352  3.1735  0.8927  1.8946
48438SOL     OW54091   5.028  10.388   3.248 -0.4813 -0.8986  0.1458
48438SOL    HW154092   5.116  10.421   3.266 -0.5105  0.3772 -1.7506
48438SOL    HW254093   5.039  10.334   3.169 -1.6782  0.9621 -1.3677
48439SOL     OW54094   9.271   9.704   5.924 -0.2812  0.1062 -0.1759
48439SOL    HW154095   9.350   9.757   5.931 -0.3332  0.1015  0.5061
48439SOL    HW254096   9.284   9.632   5.986 -0.5831 -0.1962 -0.4578
48440SOL     OW54097   1.438  11.881   3.021 -0.1329 -0.6772  0.1771
48440SOL    HW154098   1.485  11.798   3.020  3.0570  0.9775  0.3528
48440SOL    HW254099   1.476  11.931   2.949 -0.9389  1.1208  0.9317
48441SOL     OW54100   5.743   9.551   3.094  0.2983 -0.6561 -0.0269
48441SOL    HW154101   5.744   9.474   3.150  2.0798 -1.8976 -1.6343
48441SOL    HW254102   5.674   9.532   3.029 -0.8725  0.2031  0.9169
48442SOL     OW54103   0.936   7.762   0.771 -0.0832 -0.3249  0.2862
48442SOL    HW154104   0.844   7.765   0.798  0.0108 -0.3976  0.6201
48442SOL    HW254105   0.957   7.669   0.769 -0.2847 -0.3630 -0.7284
48443SOL     OW54106  12.560   3.968   4.608  0.3779  1.1689  0.0992
48443SOL    HW154107  12.611   3.960   4.527 -1.3396  0.8038 -0.9938
48443SOL    HW254108  12.477   4.006   4.580 -1.3437 -1.4689  1.1894
48444SOL     OW54109   7.511   6.914   6.597 -0.4150  0.4862 -0.3184
48444SOL    HW154110   7.500   7.008   6.608 -1.4475  0.5347 -1.6173
48444SOL    HW254111   7.583   6.892   6.657 -0.6864  1.9457  0.6014
48445SOL     OW54112   4.244   6.296   4.451 -0.1219 -0.3718  0.4363
48445SOL    HW154113   4.219   6.228   4.513 -1.3081  0.8693  1.3653
48445SOL    HW254114   4.327   6.329   4.484 -0.5384 -0.0091  1.1345
48446SOL     OW54115   5.543   1.677   8.457  0.2947  0.4488  0.0146
48446SOL    HW154116   5.508   1.589   8.475 -0.2673  0.6087 -0.2609
48446SOL    HW254117   5.503   1.701   8.374  0.4042  0.9919  0.1198
48447SOL     OW54118  12.031   5.398   8.539  0.4546 -0.0973 -0.1768
48447SOL    HW154119  11.996   5.343   8.468 -0.9636  0.1996  0.2658
48447SOL    HW254120  12.120   5.367   8.551 -0.2695 -2.3053  0.0076
48448SOL     OW54121   2.550   5.727   1.361  0.1411 -0.1565  0.0864
48448SOL    HW154122   2.541   5.729   1.265 -0.9818  2.9974  0.1265
48448SOL    HW254123   2.642   5.747   1.376 -0.0960  1.4958 -0.4057
48449SOL     OW54124   1.368   8.604   4.514  0.8194  0.5200  0.4614
48449SOL    HW154125   1.445   8.586   4.459  1.2138  0.4251  1.0291
48449SOL    HW254126   1.293   8.581   4.459  1.2347 -0.7164  0.3637
48450SOL     OW54127   0.580   0.599   5.462 -0.1540  0.0225 -0.4516
48450SOL    HW154128   0.559   0.581   5.371  1.0022  2.0693 -1.1835
48450SOL    HW254129   0.674   0.582   5.468 -0.2152 -0.0687  0.3515
48451SOL     OW54130   1.775  11.310  10.090  0.5186 -0.2555  0.2302
48451SOL    HW154131   1.839  11.371  10.126  1.9447 -0.0433 -2.4053
48451SOL    HW254132   1.825  11.232  10.067 -1.1327 -2.2644  2.7915
48452SOL     OW54133   5.319   6.465   8.295  0.5867  0.2395  0.2352
48452SOL    HW154134   5.361   6.494   8.376 -1.4339 -0.8056  1.7649
48452SOL    HW254135   5.271   6.541   8.264 -0.7324 -0.0265  1.5113
48453SOL     OW54136   2.164   0.872   7.937 -0.3363 -0.3437 -0.5934
48453SOL    HW154137   2.178   0.966   7.924  1.3319 -0.4538  0.2037
48453SOL    HW254138   2.105   0.867   8.012 -0.6731  0.0641 -0.8238
48454SOL     OW54139   5.512   4.186  10.399 -0.1179  0.5169 -0.0100
48454SOL    HW154140   5.455   4.258  10.424 -2.1370 -1.5046  1.5934
48454SOL    HW254141   5.598   4.210  10.435 -0.3198  2.7737 -0.8858
48455SOL     OW54142   9.554  10.795   8.546  0.4533 -0.6475  0.3056
48455SOL    HW154143   9.619  10.808   8.615 -0.2622  2.7673  0.5236
48455SOL    HW254144   9.599  10.741   8.481  1.9784 -1.9529  2.3152
48456SOL     OW54145  12.128   1.772   8.932  0.3386 -0.0572 -0.3849
48456SOL    HW154146  12.058   1.836   8.919  0.7243  0.6286  0.7681
48456SOL    HW254147  12.154   1.746   8.844 -1.7831 -0.8031 -0.8586
48457SOL     OW54148   4.413   3.053   8.854 -0.4950 -0.7187 -0.0314
48457SOL    HW154149   4.433   2.985   8.789 -0.6176 -0.8746  0.0925
48457SOL    HW254150   4.317   3.056   8.856 -0.5155  0.5834 -1.2179
48458SOL     OW54151  11.053   1.120   3.273 -0.0454  0.4002 -0.1589
48458SOL    HW154152  11.082   1.134   3.183  0.5932 -1.4394 -0.2846
48458SOL    HW254153  10.988   1.050   3.267  0.1826  0.0839  0.8276
48459SOL     OW54154   9.455   7.433   0.905  0.5652  0.2205 -0.3092
48459SOL    HW154155   9.400   7.357   0.925  0.5571  0.0955 -0.7726
48459SOL    HW254156   9.394   7.497   0.868  0.7954 -0.1085 -1.3023
48460SOL     OW54157   4.314   2.644   0.447  0.8122  0.2118  0.4486
48460SOL    HW154158   4.382   2.688   0.397  2.5970  0.7254  3.0982
48460SOL    HW254159   4.250   2.713   0.467  0.5029  0.1802 -0.3946
48461SOL     OW54160   7.229  10.658   3.672 -0.6840  0.6116 -0.1180
48461SOL    HW154161   7.277  10.707   3.738 -1.2252  1.2197 -0.1643
48461SOL    HW254162   7.233  10.714   3.594 -1.3188  0.5867 -0.1687
48462SOL     OW54163  11.861  11.195  11.995  0.3956 -0.0786  0.0852
48462SOL    HW154164  11.851  11.290  12.008 -3.1943 -0.3510  0.2727
48462SOL    HW254165  11.832  11.157  12.078 -0.6599 -1.3777 -0.8516
48463SOL     OW54166  12.315   8.494   0.955  0.2997 -0.3021  1.1664
48463SOL    HW154167  12.345   8.576   0.993  1.1700 -0.3377  0.5962
48463SOL    HW254168  12.362   8.426   1.003  0.2346 -0.4185  1.0658
48464SOL     OW54169   9.098   3.137   3.250 -0.0184 -0.1579 -0.0836
48464SOL    HW154170   9.140   3.137   3.165  0.1938 -0.3746  0.0203
48464SOL    HW254171   9.105   3.227   3.281 -1.1809  0.2040 -0.8212
48465SOL     OW54172   9.571   2.055   4.304 -0.1326 -0.7341  0.4033
48465SOL    HW154173   9.569   2.147   4.329  0.1915 -0.8404  0.8496
48465SOL    HW254174   9.653   2.045   4.255 -0.0374 -0.8301  0.5758
48466SOL     OW54175  10.649  12.388   4.693  0.1138 -0.0016  0.3292
48466SOL    HW154176  10.650  12.330   4.617  1.4658  0.7928 -0.3094
48466SOL    HW254177  10.715  12.351   4.752  1.7952  1.3820 -0.5537
48467SOL     OW54178   5.698   3.764   2.251  0.0128  0.0643  0.4965
48467SOL    HW154179   5.774   3.822   2.244 -1.2418  1.6039 -1.2795
48467SOL    HW254180   5.637   3.812   2.307 -1.8880  1.6488 -2.6311
48468SOL     OW54181   7.275   7.440   9.103  0.0656  0.0042  0.0807
48468SOL    HW154182   7.194   7.394   9.082  0.3692 -0.6130  0.2480
48468SOL    HW254183   7.324   7.379   9.158  0.4780  0.5249  0.2971
48469SOL     OW54184   0.151   6.482   5.096 -0.3362 -0.4098  0.1182
48469SOL    HW154185   0.225   6.506   5.040 -0.9387 -1.0461 -1.0070
48469SOL    HW254186   0.111   6.566   5.119  1.0571 -0.0233  1.2384
48470SOL     OW54187   3.007   3.672   1.825 -0.2388  0.1192 -0.1257
48470SOL    HW154188   2.993   3.679   1.919  0.7950  1.3756 -0.0273
48470SOL    HW254189   3.064   3.596   1.814  2.4369  1.8479  0.6768
48471SOL     OW54190   2.801   4.160   0.713 -0.2103  0.0235 -0.4400
48471SOL    HW154191   2.740   4.185   0.643 -0.3850 -0.3251 -0.4116
48471SOL    HW254192   2.754   4.180   0.794 -0.8678 -1.5724 -0.3926
48472SOL     OW54193   7.550   8.253   0.710  0.3219 -0.1287 -0.2938
48472SOL    HW154194   7.542   8.267   0.804  1.6653 -2.8887  0.3445
48472SOL    HW254195   7.546   8.158   0.700 -0.6667  0.1189 -3.1522
48473SOL     OW54196   5.802   3.101   7.712  0.4468  0.3191 -0.1182
48473SOL    HW154197   5.762   3.092   7.626 -2.8957 -1.3836  1.4226
48473SOL    HW254198   5.857   3.023   7.721 -0.8739 -0.6217  0.0347
48474SOL     OW54199  12.475   0.105   1.021 -0.2330  0.2783 -0.1902
48474SOL    HW154200  12.484   0.174   1.087 -0.9129 -0.3879  0.6251
48474SOL    HW254201  12.481   0.024   1.071 -1.6876 -0.2366 -0.8071
48475SOL     OW54202   7.279   0.627   0.119 -0.2433 -0.4176  0.7205
48475SOL    HW154203   7.197   0.675   0.109 -0.7852 -0.8006  2.8933
48475SOL    HW254204   7.328   0.646   0.038 -1.9560  0.7682 -0.0913
48476SOL     OW54205  11.819   4.063   6.959  0.2303  0.0786  0.0378
48476SOL    HW154206  11.800   3.995   6.895  1.0584  1.2241 -1.4889
48476SOL    HW254207  11.844   4.015   7.038 -2.0164 -1.3697 -0.0539
48477SOL     OW54208   3.471   0.005   4.399 -0.9453  0.0642 -0.4640
48477SOL    HW154209   3.524   0.082   4.419 -1.8785  0.5174  0.3672
48477SOL    HW254210   3.533  -0.060   4.365  0.2499  0.3508  1.0758
48478SOL     OW54211  12.349   6.151   7.921  0.0993  0.1505  0.2664
48478SOL    HW154212  12.376   6.241   7.938  0.1261  0.4820 -1.3555
48478SOL    HW254213  12.254   6.155   7.917  0.1423  0.3550 -0.9383
48479SOL     OW54214   7.227  11.311   5.099  0.4406 -0.0568 -0.5663
48479SOL    HW154215   7.293  11.380   5.102  1.1737 -0.7528 -0.4348
48479SOL    HW254216   7.181  11.327   5.016  0.1238  1.0046 -0.2059
48480SOL     OW54217   2.510   1.577   5.141  0.2720 -0.2445 -0.3213
48480SOL    HW154218   2.427   1.618   5.116  0.3525  0.2656  0.2144
48480SOL    HW254219   2.492   1.483   5.139 -0.4232 -0.1271  0.1085
48481SOL     OW54220   0.374   0.546   8.070 -0.3650  0.0463 -0.6653
48481SOL    HW154221   0.306   0.590   8.121  1.5496  2.2351  0.2131
48481SOL    HW254222   0.396   0.608   8.001  1.0597 -0.3612 -0.6138
48482SOL     OW54223  11.762   0.246  11.947  0.5724  0.0284  0.0164
48482SOL    HW154224  11.720   0.305  12.009  0.8620 -1.8808  2.1298
48482SOL    HW254225  11.830   0.300  11.906  0.0312  1.4829  0.9426
48483SOL     OW54226   5.718   2.723   1.303  0.7946  0.0516 -0.2914
48483SOL    HW154227   5.813   2.733   1.298  0.6324  2.0149 -0.1550
48483SOL    HW254228   5.705   2.649   1.362  2.2245 -0.7358 -0.8975
48484SOL     OW54229   2.186  10.465   5.063 -0.0823  0.7754  0.3893
48484SOL    HW154230   2.126  10.522   5.014 -1.5294 -0.9288  0.0696
48484SOL    HW254231   2.172  10.488   5.154 -1.6731  0.0388  0.3569
48485SOL     OW54232   3.284   6.330   3.056  0.4270  0.1972 -0.2436
48485SOL    HW154233   3.238   6.384   2.993 -2.2981 -1.1810  0.4248
48485SOL    HW254234   3.342   6.275   3.004 -0.3164  0.4403 -1.3460
48486SOL     OW54235   2.683   4.123   3.499 -0.2591 -0.2071 -0.3957
48486SOL    HW154236   2.619   4.183   3.537  0.5927  0.0892  0.6213
48486SOL    HW254237   2.678   4.138   3.405 -0.2633  1.2711 -0.1754
48487SOL     OW54238   0.845   4.088   0.013 -0.5291  0.0639 -0.4383
48487SOL    HW154239   0.756   4.060   0.036  0.3988 -0.9680  2.1890
48487SOL    HW254240   0.859   4.167   0.065  0.0668  0.2746 -0.9174
48488SOL     OW54241   0.519   4.085  11.778 -0.1379 -0.3302 -0.0075
48488SOL    HW154242   0.500   4.178  11.775  0.7988 -0.1085  0.5052
48488SOL    HW254243   0.440   4.043  11.745 -0.5104  0.6472 -0.3917
48489SOL     OW54244   5.237   3.208  11.983 -0.0015  0.4480 -0.3766
48489SOL    HW154245   5.237   3.113  11.995  1.2572  0.4712 -0.1254
48489SOL    HW254246   5.281   3.242  12.061  0.5561  1.1558 -0.9867
48490SOL     OW54247   6.264  11.770   5.441 -0.3098  0.4203  0.3729
48490SOL    HW154248   6.289  11.678   5.447  0.8846  0.7511  0.6365
48490SOL    HW254249   6.191  11.771   5.378 -0.7912 -0.7759  0.8774
48491SOL     OW54250  11.897   4.625   3.897 -0.0349 -0.3130 -0.1156
48491SOL    HW154251  11.850   4.597   3.818 -0.9015 -0.9940  0.6192
48491SOL    HW254252  11.872   4.561   3.963 -0.3280  0.9753  1.0514
48492SOL     OW54253   7.089   2.223  10.314 -0.0437 -0.5383 -0.0933
48492SOL    HW154254   7.052   2.307  10.341 -0.9883 -0.3345 -1.8670
48492SOL    HW254255   7.171   2.246  10.270 -0.1653 -0.5498 -0.3314
48493SOL     OW54256   1.223   2.233  12.596  0.0577 -0.4115 -0.5560
48493SOL    HW154257   1.170   2.303  12.557 -0.8092 -0.6772  0.1232
48493SOL    HW254258   1.252   2.268  12.680  0.4521 -0.5087 -0.6457
48494SOL     OW54259   4.491   3.652  12.156  0.0189 -0.5388 -0.4700
48494SOL    HW154260   4.573   3.684  12.194 -0.7004  0.8260 -0.0233
48494SOL    HW254261   4.517   3.618  12.070  1.8150 -4.3066  1.2787
48495SOL     OW54262   6.393   0.286   6.751  0.6354 -0.0238 -0.7313
48495SOL    HW154263   6.400   0.308   6.844  1.1586 -0.7272 -0.5963
48495SOL    HW254264   6.358   0.197   6.750  0.3303  0.0964 -1.2206
48496SOL     OW54265   2.842   3.254   8.047  0.2874 -0.3442 -0.0876
48496SOL    HW154266   2.768   3.196   8.060  0.3464 -0.6073 -0.8242
48496SOL    HW254267   2.886   3.219   7.969 -0.8593  1.8670 -1.8826
48497SOL     OW54268  10.035   5.516   5.702 -0.1465  0.3910 -0.1559
48497SOL    HW154269  10.039   5.549   5.792  0.7524  1.4441 -0.5533
48497SOL    HW254270  10.123   5.532   5.667 -0.6225  0.4406 -1.3717
48498SOL     OW54271   6.398  10.716  10.201 -0.0909  0.2362 -0.0494
48498SOL    HW154272   6.373  10.808  10.187  2.7988  0.8595 -2.1072
48498SOL    HW254273   6.357  10.669  10.129 -1.8327 -0.2453  1.1811
48499SOL     OW54274   0.815   9.794   0.708  0.3458 -0.2707  0.0970
48499SOL    HW154275   0.907   9.815   0.725  0.5483 -1.6480  0.8214
48499SOL    HW254276   0.814   9.757   0.620  0.5797 -0.8390  0.3348
48500SOL     OW54277   3.623   7.344   9.464  0.1529 -0.7521 -0.2814
48500SOL    HW154278   3.715   7.351   9.487  0.6524 -0.9840 -2.0663
48500SOL    HW254279   3.596   7.258   9.495  0.4979 -0.6384  0.3456
48501SOL     OW54280  11.490  12.164   6.725 -0.1381 -0.5415  0.3983
48501SOL    HW154281  11.411  12.116   6.699  0.6701 -1.2597 -0.8928
48501SOL    HW254282  11.475  12.254   6.696 -0.7250 -0.5459  0.6943
48502SOL     OW54283   2.394  11.617   7.546  0.1253  0.3235 -0.1004
48502SOL    HW154284   2.377  11.580   7.460  1.6840 -1.1075  0.1540
48502SOL    HW254285   2.311  11.656   7.573 -1.0386 -1.2536 -1.2613
48503SOL     OW54286   6.858   3.742  10.359  0.2134 -0.2876  0.5407
48503SOL    HW154287   6.790   3.740  10.292  0.3077  1.5347  0.3226
48503SOL    HW254288   6.842   3.665  10.413 -1.5594 -0.3080  0.0380
48504SOL     OW54289   9.599   5.207   8.731 -0.6532  0.6412 -0.7780
48504SOL    HW154290   9.601   5.111   8.736 -1.7152  0.6516  0.0081
48504SOL    HW254291   9.689   5.231   8.712  0.1370 -0.3874  1.3879
48505SOL     OW54292   4.869   4.072   7.391  0.0925  0.1264  0.3570
48505SOL    HW154293   4.817   4.049   7.468 -0.2635 -0.2991 -0.0028
48505SOL    HW254294   4.939   4.127   7.425 -0.5081  0.5917  0.8753
48506SOL     OW54295  11.714   7.859   9.562  0.2421  0.0293 -0.2125
48506SOL    HW154296  11.808   7.845   9.556 -0.0977 -2.4176 -0.8466
48506SOL    HW254297  11.689   7.897   9.477  0.4640 -0.7000 -0.6091
48507SOL     OW54298   9.522  11.136   1.673 -0.4115  0.8530  0.1711
48507SOL    HW154299   9.560  11.086   1.745  0.7566  0.0538 -0.9565
48507SOL    HW254300   9.430  11.147   1.698  0.3795  2.4075  2.7261
48508SOL     OW54301   7.611   4.647   4.759  0.6552  0.1775 -0.0530
48508SOL    HW154302   7.676   4.606   4.817 -0.6036 -0.5280  0.9047
48508SOL    HW254303   7.598   4.583   4.689 -0.2685 -0.4608  0.6861
48509SOL     OW54304   7.952   2.803  11.346 -0.1222  0.4494  0.2262
48509SOL    HW154305   7.958   2.767  11.435  0.0603 -1.7878 -0.6167
48509SOL    HW254306   8.043   2.824  11.323 -0.0183 -0.0434  0.1727
48510SOL     OW54307   6.019   8.408   1.142 -0.1339  0.4097  0.1308
48510SOL    HW154308   5.945   8.467   1.151  0.6684  1.3133  1.0441
48510SOL    HW254309   6.090   8.463   1.108  0.4055 -0.2175  0.2182
48511SOL     OW54310   6.401  11.931   7.074  0.6932 -0.3052 -0.2950
48511SOL    HW154311   6.459  11.952   7.147  0.5441  0.0567 -0.2745
48511SOL    HW254312   6.411  11.837   7.060  1.9161 -0.1052 -0.8480
48512SOL     OW54313  11.670   5.246   5.276  0.5057 -0.0525 -0.6832
48512SOL    HW154314  11.702   5.184   5.341 -2.1147 -0.5095  0.2952
48512SOL    HW254315  11.721   5.325   5.291  1.4750 -0.8554  0.4238
48513SOL     OW54316   8.316   5.948  10.983 -0.2421 -0.2762  0.5582
48513SOL    HW154317   8.317   5.990  11.069 -0.6651  1.3597 -0.2104
48513SOL    HW254318   8.224   5.951  10.955 -0.2946 -1.7560  0.4748
48514SOL     OW54319   6.801   7.518   3.316  0.8317 -0.1813 -0.9539
48514SOL    HW154320   6.813   7.587   3.381  1.3205 -0.1716 -1.0495
48514SOL    HW254321   6.710   7.490   3.327  0.3424  1.1117 -1.5411
48515SOL     OW54322   3.126   5.384  11.656 -0.1936 -0.2056 -0.0996
48515SOL    HW154323   3.057   5.338  11.703  1.0501 -0.7432  1.2622
48515SOL    HW254324   3.198   5.321  11.650  0.1217  0.2550 -1.7119
48516SOL     OW54325  11.633   5.660   2.693  0.5023  0.2919  0.2256
48516SOL    HW154326  11.633   5.565   2.680  0.4911  0.3607 -0.2896
48516SOL    HW254327  11.561   5.692   2.638 -0.5863  0.4357  1.6531
48517SOL     OW54328  11.283  12.562   3.799  0.2064 -0.0590 -0.2215
48517SOL    HW154329  11.259  12.472   3.821 -1.1184  0.3925  0.2562
48517SOL    HW254330  11.366  12.576   3.845  0.9131 -1.3084 -1.0333
48518SOL     OW54331   5.737   0.640   2.045 -0.4658 -0.3204  0.0410
48518SOL    HW154332   5.758   0.556   2.087 -0.4507 -0.1096  0.4542
48518SOL    HW254333   5.814   0.659   1.992  0.0489  0.0231  0.8847
48519SOL     OW54334   9.753   3.592   6.637  0.2394  0.3944  0.4860
48519SOL    HW154335   9.844   3.570   6.654  0.2480  0.2161  0.2094
48519SOL    HW254336   9.731   3.656   6.705  1.7180  3.5644 -1.8133
48520SOL     OW54337   5.524   2.527   5.031 -0.3020 -0.3306  0.0731
48520SOL    HW154338   5.558   2.447   5.072  0.8698  0.0116 -0.1811
48520SOL    HW254339   5.430   2.512   5.023 -0.4087 -0.8210  1.9179
48521SOL     OW54340  10.001   3.402   0.930  0.4998 -0.2872  0.2131
48521SOL    HW154341  10.082   3.369   0.890  1.1622 -0.1015  1.3665
48521SOL    HW254342  10.011   3.497   0.928 -0.3048 -0.2109 -0.8573
48522SOL     OW54343   7.575   5.818   0.360 -0.4806  0.3377  0.3567
48522SOL    HW154344   7.635   5.878   0.316 -1.5959  1.0497 -0.2507
48522SOL    HW254345   7.514   5.876   0.406 -0.7526 -0.3653  0.8947
48523SOL     OW54346   3.539   2.285   2.373 -1.2177 -0.1122 -0.0983
48523SOL    HW154347   3.580   2.366   2.342  0.1204 -0.4654  0.6656
48523SOL    HW254348   3.533   2.296   2.467  1.3313 -1.8526  0.3717
48524SOL     OW54349   2.964  12.015   9.086 -0.3752 -0.1402  0.2463
48524SOL    HW154350   2.908  11.970   9.022  0.1228  1.5080 -1.4568
48524SOL    HW254351   2.905  12.041   9.156 -1.0543 -1.4932  0.2063
48525SOL     OW54352   3.589  11.022   4.301 -0.4213 -0.3403 -0.1992
48525SOL    HW154353   3.547  10.952   4.251 -2.1613  0.5057 -0.0179
48525SOL    HW254354   3.575  10.998   4.392 -0.1116 -0.2639 -0.1296
48526SOL     OW54355   6.598  12.009  10.122  0.6281  0.2321  0.4316
48526SOL    HW154356   6.586  11.957  10.043  0.6608  1.9930 -0.8034
48526SOL    HW254357   6.675  12.063  10.103  0.4306  0.9294  1.5332
48527SOL     OW54358   6.567   9.667   6.126  0.0372  1.3406 -0.2012
48527SOL    HW154359   6.516   9.735   6.082 -0.2222  0.5738 -1.1179
48527SOL    HW254360   6.581   9.601   6.059 -0.4377  0.0793  0.9001
48528SOL     OW54361   6.579   8.611   7.378  0.0446  0.0138 -0.0676
48528SOL    HW154362   6.489   8.597   7.348 -1.0461  2.9052  1.4582
48528SOL    HW254363   6.595   8.540   7.441 -0.3790 -1.6658 -1.7762
48529SOL     OW54364  12.292  10.696   5.604 -0.0650  0.6550  0.2259
48529SOL    HW154365  12.200  10.670   5.609  0.2167 -0.7242 -1.0923
48529SOL    HW254366  12.313  10.690   5.511  1.9096 -1.0060  0.7203
48530SOL     OW54367   4.228  12.297   1.450 -0.5376  0.1637  0.3625
48530SOL    HW154368   4.288  12.319   1.522  0.7310 -0.7593 -0.3592
48530SOL    HW254369   4.175  12.226   1.484  0.0491 -0.2592  0.4167
48531SOL     OW54370  12.405   5.021  11.354  0.0042 -0.0817  0.7823
48531SOL    HW154371  12.472   5.041  11.289 -0.9924  0.8334 -0.0076
48531SOL    HW254372  12.420   4.929  11.376  0.7090 -0.2566 -0.3426
48532SOL     OW54373   1.822   3.694   5.941 -0.2045  0.3587  0.4423
48532SOL    HW154374   1.741   3.697   5.992  0.0843 -0.2296  0.9567
48532SOL    HW254375   1.801   3.739   5.859 -2.0947 -2.5233 -0.8371
48533SOL     OW54376   1.554   9.063   2.308 -0.2065 -0.3243  0.0382
48533SOL    HW154377   1.545   9.007   2.385 -0.8086  1.7442  1.5438
48533SOL    HW254378   1.618   9.130   2.334  0.2903 -0.1116 -1.6018
48534SOL     OW54379   0.015   4.696  10.408  0.4018  0.6404  0.1736
48534SOL    HW154380  -0.004   4.648  10.488  0.4333 -0.4410 -0.4553
48534SOL    HW254381  -0.043   4.772  10.411  0.2332  0.4818  1.0982
48535SOL     OW54382   2.652  10.668  10.176 -0.0937 -0.6870  0.6237
48535SOL    HW154383   2.690  10.682  10.089  2.2712  0.2605  1.6987
48535SOL    HW254384   2.560  10.648  10.159 -0.0543  0.8130 -2.0078
48536SOL     OW54385   4.071   6.391   7.140 -0.3459  0.4152 -0.5060
48536SOL    HW154386   4.017   6.339   7.200 -0.8341 -0.3439 -1.5587
48536SOL    HW254387   4.146   6.335   7.121  0.3494  1.0872  0.2216
48537SOL     OW54388   1.227   3.175  12.061 -0.0817 -0.3166  0.1866
48537SOL    HW154389   1.177   3.256  12.065 -0.4160 -0.4204 -1.3409
48537SOL    HW254390   1.205   3.129  12.142 -0.1445  0.9565  0.9157
48538SOL     OW54391   9.890   4.581  12.050 -0.2236 -0.2889 -0.3450
48538SOL    HW154392   9.903   4.656  12.107 -3.1990  1.0883 -1.2719
48538SOL    HW254393   9.920   4.506  12.102  2.2595  1.3864  0.8370
48539SOL     OW54394   8.390  10.435   2.896 -0.0336 -0.2393 -0.2885
48539SOL    HW154395   8.420  10.433   2.805  0.5299 -0.6067 -0.0953
48539SOL    HW254396   8.420  10.519   2.929 -1.3323  0.4620 -0.7991
48540SOL     OW54397   8.737   3.631   3.959 -0.0894 -0.4168  0.8271
48540SOL    HW154398   8.808   3.686   3.928 -1.1933  0.1606 -0.8681
48540SOL    HW254399   8.689   3.685   4.022 -0.6125  0.2525 -0.1171
48541SOL     OW54400   0.246  11.078   9.662 -0.7391  0.7130  0.5302
48541SOL    HW154401   0.268  10.985   9.667 -0.7229  0.2987 -3.6447
48541SOL    HW254402   0.225  11.102   9.752  1.1447 -2.7929  2.1260
48542SOL     OW54403   5.416  10.402   9.615  0.4377 -0.2526  0.2879
48542SOL    HW154404   5.321  10.395   9.617  0.1595  0.4939 -3.6070
48542SOL    HW254405   5.446  10.313   9.595  0.3650 -0.0261 -0.8588
48543SOL     OW54406   9.985  10.959   7.610  0.2827 -0.1482  0.3319
48543SOL    HW154407   9.993  10.864   7.596  2.4519  0.1551 -0.9655
48543SOL    HW254408  10.003  10.971   7.703 -1.4670 -1.0801  0.8565
48544SOL     OW54409   9.412   4.046   9.293  0.2245 -0.2083  0.1158
48544SOL    HW154410   9.379   4.124   9.336  1.2603  0.4987 -0.3373
48544SOL    HW254411   9.385   3.974   9.351 -2.1925  0.2749 -0.2998
48545SOL     OW54412   5.120   9.489   1.842  0.3046  0.2235  0.0751
48545SOL    HW154413   5.160   9.431   1.905 -0.1392  1.1629  1.2616
48545SOL    HW254414   5.027   9.488   1.864  0.1688  0.6970 -0.4419
48546SOL     OW54415   0.078   3.614   0.613  0.2147 -0.3987  0.1995
48546SOL    HW154416   0.131   3.542   0.646  0.7887  0.0877  0.3602
48546SOL    HW254417   0.134   3.658   0.549  0.0100  0.1226  0.3724
48547SOL     OW54418   0.372   3.720  10.616  0.3572 -0.0125 -0.2593
48547SOL    HW154419   0.416   3.805  10.608 -0.0522  0.3734  1.3307
48547SOL    HW254420   0.366   3.704  10.710 -0.2750 -1.4512 -0.5086
48548SOL     OW54421  10.567   0.979   9.994  0.0851  0.1379 -0.3781
48548SOL    HW154422  10.583   1.071  10.016 -0.7500  0.8161 -2.3954
48548SOL    HW254423  10.516   0.946  10.068  1.0705  1.0523  0.7533
48549SOL     OW54424   0.937  10.442   7.155 -0.2694 -0.6014  0.3015
48549SOL    HW154425   0.881  10.496   7.212  0.3083  1.9553 -1.3696
48549SOL    HW254426   1.025  10.452   7.192  0.0566  0.8159 -0.7481
48550SOL     OW54427   2.028   3.869   6.207  0.2521  0.2809 -0.0658
48550SOL    HW154428   2.053   3.870   6.300  0.3172  0.8650 -0.0880
48550SOL    HW254429   2.035   3.960   6.179  2.4095 -0.1682 -1.2331
48551SOL     OW54430   2.367   2.671   2.674  0.1294 -0.1088 -0.6671
48551SOL    HW154431   2.462   2.680   2.681  0.0379  0.1041  0.4758
48551SOL    HW254432   2.355   2.585   2.633  0.8109 -0.7844  0.4702
48552SOL     OW54433   4.444   3.451  11.621  0.0490  0.6393  0.3823
48552SOL    HW154434   4.489   3.428  11.539 -0.2923 -0.4530  0.4795
48552SOL    HW254435   4.420   3.543  11.610 -0.6543  0.3227 -1.0709
48553SOL     OW54436  10.596   9.998   0.787 -0.4245 -0.0739 -0.2355
48553SOL    HW154437  10.654   9.922   0.783 -1.4522 -0.9836  1.1601
48553SOL    HW254438  10.600  10.037   0.699  0.3274 -1.5765 -0.8927
48554SOL     OW54439   7.567   2.210   5.534 -0.4242 -0.3976  0.2135
48554SOL    HW154440   7.533   2.240   5.619 -2.3598 -0.5968 -0.4240
48554SOL    HW254441   7.526   2.124   5.522 -0.6328 -0.1151 -1.1634
48555SOL     OW54442   6.041   4.724   1.542  0.0497 -0.3210  0.1110
48555SOL    HW154443   5.984   4.797   1.516  0.9702 -0.2427 -1.8708
48555SOL    HW254444   5.991   4.677   1.608 -1.7904  0.4601 -0.6508
48556SOL     OW54445   8.949   8.084   1.395 -0.1457 -0.8034 -0.2060
48556SOL    HW154446   8.882   8.153   1.393 -1.3221 -1.9297 -1.5806
48556SOL    HW254447   8.910   8.014   1.446  1.1649 -0.3986  1.4330
48557SOL     OW54448   0.633   9.232   8.686 -0.4455 -0.2668  0.8005
48557SOL    HW154449   0.593   9.173   8.621 -0.1435  0.1452  0.2255
48557SOL    HW254450   0.725   9.207   8.687 -0.4182 -0.1601  0.9516
48558SOL     OW54451   7.367   4.555   2.598 -0.1556 -0.0723  0.0021
48558SOL    HW154452   7.318   4.610   2.536 -2.0860 -0.4508  1.0957
48558SOL    HW254453   7.364   4.604   2.680  0.1669 -0.7250  0.4084
48559SOL     OW54454   3.913   7.849   6.163  0.2060  0.3650 -0.3158
48559SOL    HW154455   3.846   7.905   6.202  1.4583  0.5988  1.6415
48559SOL    HW254456   3.995   7.879   6.202  1.3907 -0.4011 -2.0616
48560SOL     OW54457   5.210   5.096  11.673 -0.1046 -0.0368 -0.4625
48560SOL    HW154458   5.265   5.173  11.684  0.5383 -0.6657  0.8008
48560SOL    HW254459   5.138   5.126  11.616  0.5695  1.2575 -0.6548
48561SOL     OW54460   6.555   2.847   7.110 -0.3317 -0.6240  0.2454
48561SOL    HW154461   6.591   2.853   7.022  1.2110 -0.9423  0.8246
48561SOL    HW254462   6.545   2.938   7.138  2.2486 -0.4466  0.8876
48562SOL     OW54463  12.326   1.426   7.273 -0.0771  0.4228 -0.3568
48562SOL    HW154464  12.262   1.496   7.261 -3.2496 -1.7752  1.9096
48562SOL    HW254465  12.297   1.357   7.214  1.5206  0.1197 -0.8166
48563SOL     OW54466   9.790   6.841  10.094  0.6393 -0.0955  1.1052
48563SOL    HW154467   9.818   6.784  10.022 -0.3139  0.7776  0.0166
48563SOL    HW254468   9.747   6.781  10.156 -0.8654 -0.5194 -0.2885
48564SOL     OW54469   5.552   7.066   3.090 -0.6092  0.5718  0.1116
48564SOL    HW154470   5.463   7.098   3.106 -0.7050 -0.1770  1.2045
48564SOL    HW254471   5.540   6.974   3.065 -0.0725 -0.4837  3.1788
48565SOL     OW54472   2.278   7.354   5.163 -0.2054 -0.0317 -0.1561
48565SOL    HW154473   2.236   7.427   5.208 -1.9743 -1.4165  0.5600
48565SOL    HW254474   2.370   7.361   5.187 -0.5717  1.1569  1.0297
48566SOL     OW54475  11.853   1.779   0.936  0.1292  0.4789  0.2272
48566SOL    HW154476  11.889   1.843   0.996 -0.5360 -0.8082  2.0870
48566SOL    HW254477  11.843   1.700   0.988 -0.4029 -0.7465 -1.6147
48567SOL     OW54478  11.234   5.507   8.479  0.3327 -0.2321 -0.8651
48567SOL    HW154479  11.213   5.597   8.501 -0.1996 -0.2385 -1.3363
48567SOL    HW254480  11.201   5.495   8.390 -0.1039 -1.0549 -0.6050
48568SOL     OW54481   1.950  12.604   7.438  0.8275 -0.0403  0.6967
48568SOL    HW154482   1.857  12.585   7.442  0.6892  0.1822 -0.9218
48568SOL    HW254483   1.956  12.698   7.426  1.3351  0.1742  2.3891
48569SOL     OW54484   0.421   6.562   1.181  0.8930  0.2913 -0.0999
48569SOL    HW154485   0.344   6.613   1.155 -0.0584 -0.6616  0.7190
48569SOL    HW254486   0.404   6.474   1.147  1.2931 -0.0904  0.6609
48570SOL     OW54487   3.651   8.804   0.210  0.9297 -0.9613  0.8140
48570SOL    HW154488   3.707   8.826   0.284  0.5389 -0.5567  0.9903
48570SOL    HW254489   3.704   8.744   0.157  1.1665 -1.3518  1.4799
48571SOL     OW54490   5.183   5.159   7.421 -0.3990 -0.5605 -0.3899
48571SOL    HW154491   5.107   5.161   7.480 -1.0425  0.9496 -1.2103
48571SOL    HW254492   5.182   5.070   7.385 -0.5701 -1.2021  1.1019
48572SOL     OW54493   5.111   9.081   4.340  0.0741 -0.2017 -0.5120
48572SOL    HW154494   5.096   9.141   4.266  0.1135 -1.9220 -1.9945
48572SOL    HW254495   5.078   9.128   4.416  0.2199  1.7458 -1.5769
48573SOL     OW54496   6.668   1.261   7.490 -0.0194  0.3383  0.0583
48573SOL    HW154497   6.675   1.201   7.416 -0.1581  1.7602 -1.1566
48573SOL    HW254498   6.749   1.312   7.488 -1.2758  2.4160 -1.0101
48574SOL     OW54499   7.020   6.542   3.436  0.4580  0.9239  0.3065
48574SOL    HW154500   6.968   6.524   3.514 -0.4623  2.8604  0.1799
48574SOL    HW254501   6.984   6.623   3.400  1.5265  0.6376 -1.5643
48575SOL     OW54502  11.022   9.134   0.313  0.2997  0.2562 -0.1464
48575SOL    HW154503  10.955   9.193   0.280 -0.2344  0.3114  0.9900
48575SOL    HW254504  11.077   9.114   0.236  1.2339  3.1497 -0.3206
48576SOL     OW54505   5.538  10.423   7.373 -0.4180 -0.1062  0.2541
48576SOL    HW154506   5.493  10.383   7.298  0.4413 -0.3264 -0.1694
48576SOL    HW254507   5.474  10.421   7.444 -0.8000 -1.1479 -0.0990
48577SOL     OW54508   1.370   5.013   4.235  0.2397  0.1753 -0.1390
48577SOL    HW154509   1.395   4.922   4.221  1.3387 -0.1331  3.0728
48577SOL    HW254510   1.279   5.018   4.204  0.1288 -2.0011 -0.3038
48578SOL     OW54511   6.187   8.483   2.759  0.0019  0.3469 -0.3306
48578SOL    HW154512   6.154   8.466   2.670 -2.1860  2.7489 -0.0899
48578SOL    HW254513   6.137   8.423   2.814 -1.1981  1.2390 -0.4035
48579SOL     OW54514   9.180   9.184  10.562  0.3740 -0.7625  0.6667
48579SOL    HW154515   9.091   9.215  10.574  0.2724 -0.6360 -0.2848
48579SOL    HW254516   9.206   9.221  10.477  0.6543 -2.3587  0.0237
48580SOL     OW54517   4.136  10.587  11.387 -0.2229 -0.2715 -0.1785
48580SOL    HW154518   4.232  10.584  11.382 -0.2274  0.9157 -1.4009
48580SOL    HW254519   4.117  10.672  11.426 -0.8030 -0.1521 -0.7236
48581SOL     OW54520  12.233  11.673   3.711 -0.1082 -0.2734  0.2670
48581SOL    HW154521  12.278  11.756   3.696 -0.4250 -0.0510  0.5382
48581SOL    HW254522  12.300  11.606   3.696  0.0052  0.0053 -0.5322
48582SOL     OW54523  10.861   7.531  11.268 -0.1211  0.0395 -0.2700
48582SOL    HW154524  10.872   7.626  11.261 -1.0802  0.0725 -1.7683
48582SOL    HW254525  10.837   7.516  11.359  1.3319  1.0777  0.3187
48583SOL     OW54526   4.937   9.885   3.303  0.5763  0.2250 -0.0832
48583SOL    HW154527   4.853   9.840   3.307  0.5159  0.3587  0.1343
48583SOL    HW254528   4.916   9.977   3.287  0.7549 -0.1114 -2.9468
48584SOL     OW54529   4.015   3.617   3.143  0.3183  0.0261  0.5476
48584SOL    HW154530   3.995   3.593   3.052 -0.4484 -0.3441  0.8027
48584SOL    HW254531   3.956   3.563   3.195 -0.2227  1.2211  1.2094
48585SOL     OW54532   6.799   8.980   0.520  0.1031  0.5283  0.0307
48585SOL    HW154533   6.847   9.060   0.496 -0.4512  0.4754 -1.4049
48585SOL    HW254534   6.718   8.986   0.469 -1.4285  0.6082  2.3663
48586SOL     OW54535   4.569   9.115   2.165  0.0158  0.3647 -0.3795
48586SOL    HW154536   4.605   9.185   2.220  0.4497 -1.0760  1.2232
48586SOL    HW254537   4.474   9.129   2.168  0.0841  0.7374  0.1152
48587SOL     OW54538   4.095   9.370   0.221  0.3296 -0.0048 -0.1456
48587SOL    HW154539   4.127   9.428   0.290  0.4553  0.1290 -0.3147
48587SOL    HW254540   4.161   9.376   0.151 -0.2308  0.5526 -0.6406
48588SOL     OW54541   9.716   1.150   3.890  0.5983 -0.0365  0.6469
48588SOL    HW154542   9.809   1.155   3.911  0.8187  0.9844 -0.4730
48588SOL    HW254543   9.712   1.098   3.810 -0.0214 -1.9439  1.8383
48589SOL     OW54544  10.883   2.973   3.664  0.0042 -0.7654 -0.2364
48589SOL    HW154545  10.838   3.009   3.741  0.0999  0.7020 -0.8460
48589SOL    HW254546  10.812   2.947   3.605 -0.1697  2.0584 -1.4360
48590SOL     OW54547   3.073   8.260   3.439 -0.3653  1.2614 -0.4982
48590SOL    HW154548   2.995   8.235   3.390 -0.8322  2.0673 -0.1732
48590SOL    HW254549   3.040   8.297   3.521  0.3649  1.3399 -0.2283
48591SOL     OW54550   2.368  10.486   8.373  0.5262 -0.4347 -0.5584
48591SOL    HW154551   2.427  10.411   8.368  0.7187 -0.2499 -1.0983
48591SOL    HW254552   2.346  10.506   8.282  0.0536 -0.1677 -0.3916
48592SOL     OW54553   0.397  12.609   6.681  0.9545 -0.6532  0.6186
48592SOL    HW154554   0.427  12.526   6.719  0.6381 -1.2716 -0.4406
48592SOL    HW254555   0.330  12.583   6.617  1.0076  0.4043  0.1151
48593SOL     OW54556  10.898  12.274   8.142 -0.2210 -0.3125 -0.6629
48593SOL    HW154557  10.950  12.312   8.213  0.7418 -1.5863 -0.6655
48593SOL    HW254558  10.887  12.346   8.080 -0.8687  0.7611  0.6244
48594SOL     OW54559   9.812  10.159   1.134  0.1902  0.2124 -0.0939
48594SOL    HW154560   9.868  10.137   1.208 -0.8867 -0.1085  0.6412
48594SOL    HW254561   9.860  10.127   1.058  0.9406 -0.1787  0.5307
48595SOL     OW54562   3.838   4.726   0.970 -0.1052  0.0951 -0.1090
48595SOL    HW154563   3.888   4.656   0.926 -1.9279 -1.8354  0.7290
48595SOL    HW254564   3.905   4.789   0.997  1.5815 -1.0506 -1.3500
48596SOL     OW54565  11.322   3.061   3.392 -0.0704 -0.5185  0.4731
48596SOL    HW154566  11.243   3.014   3.368  0.4617 -1.2580  0.1241
48596SOL    HW254567  11.338   3.121   3.318  0.0929 -0.8888  0.2063
48597SOL     OW54568   1.322   3.647   5.990 -0.4046  0.3126  0.3734
48597SOL    HW154569   1.417   3.648   5.975 -0.5932  1.4320 -1.0020
48597SOL    HW254570   1.292   3.564   5.954  0.1446 -0.4776  1.6685
48598SOL     OW54571   6.695  10.271   6.861  0.4900  0.3618  0.3828
48598SOL    HW154572   6.601  10.253   6.855  0.4390  0.6190  0.4071
48598SOL    HW254573   6.725  10.270   6.770 -0.0292  2.9067  0.1181
48599SOL     OW54574   9.069   1.892   2.480 -0.2724 -0.0515 -0.0601
48599SOL    HW154575   8.981   1.867   2.509 -0.5801  0.3754 -0.6048
48599SOL    HW254576   9.095   1.961   2.541 -0.4911  0.1124 -0.1483
48600SOL     OW54577  12.493   4.447   9.815  0.1586 -0.3443 -0.6617
48600SOL    HW154578  12.408   4.462   9.773  0.5304 -0.9336 -1.6399
48600SOL    HW254579  12.494   4.353   9.835 -0.4601  0.0837  1.7023
48601SOL     OW54580   1.862   7.157   1.934 -0.2358  0.2950 -0.6109
48601SOL    HW154581   1.819   7.107   1.865 -2.6260  0.4621  0.6431
48601SOL    HW254582   1.859   7.248   1.904  2.4848 -0.0082 -2.0738
48602SOL     OW54583  11.638  10.870   1.734  0.8835  0.0740 -0.1729
48602SOL    HW154584  11.578  10.937   1.700  1.5834 -0.1871 -2.0247
48602SOL    HW254585  11.714  10.920   1.765  0.5836  0.2631  0.2683
48603SOL     OW54586  11.670   5.446   8.417  0.1947 -0.4607 -0.0580
48603SOL    HW154587  11.681   5.487   8.502 -2.0422 -2.3241  1.2522
48603SOL    HW254588  11.590   5.394   8.426  1.5851 -3.2284 -2.3041
48604SOL     OW54589   2.789   3.953  11.768 -0.6455 -0.6067  0.0307
48604SOL    HW154590   2.702   3.987  11.785 -0.2521  0.3309  0.2205
48604SOL    HW254591   2.843   4.030  11.750 -0.0010 -1.2181 -0.7672
48605SOL     OW54592  11.447   3.050  10.549 -0.3326 -0.4652  0.3166
48605SOL    HW154593  11.500   2.970  10.551 -0.6998 -0.7108  0.2460
48605SOL    HW254594  11.357   3.019  10.558 -0.6938 -0.2394 -1.9741
48606SOL     OW54595   1.116   6.350   0.194  0.6184  0.4128 -0.0300
48606SOL    HW154596   1.069   6.433   0.198  1.0390  0.7543 -1.4954
48606SOL    HW254597   1.161   6.343   0.278 -0.7814  0.8322  0.7729
48607SOL     OW54598   3.832   7.886   3.725 -0.0577  0.4068 -0.4899
48607SOL    HW154599   3.870   7.908   3.811  1.0372  0.9222 -1.0840
48607SOL    HW254600   3.826   7.791   3.725 -1.3413  0.4511  0.6731
48608SOL     OW54601   2.992   4.316   5.415 -0.0125 -0.4351 -0.3649
48608SOL    HW154602   3.001   4.409   5.396 -1.4224 -0.8502 -3.8551
48608SOL    HW254603   3.079   4.280   5.401 -0.2920 -0.1693 -3.4825
48609SOL     OW54604  11.857   9.207   7.493 -0.0941 -0.0667 -0.0149
48609SOL    HW154605  11.840   9.135   7.433  0.7418  0.0810 -0.4473
48609SOL    HW254606  11.770   9.234   7.524 -0.5067 -0.4139 -0.8352
48610SOL     OW54607   1.825  10.575   3.881  0.2619  0.5543  0.2343
48610SOL    HW154608   1.909  10.586   3.926  0.7164  1.3030 -0.7499
48610SOL    HW254609   1.763  10.623   3.935  1.0065  2.3912 -0.4479
48611SOL     OW54610   2.675   0.106   0.028 -0.1748 -0.2307  0.1399
48611SOL    HW154611   2.713   0.172   0.085 -0.7184  0.3853 -0.1963
48611SOL    HW254612   2.716   0.121  -0.057  0.4789 -1.0113  0.3005
48612SOL     OW54613   8.753  11.301   5.572  0.0306  0.1796  0.3499
48612SOL    HW154614   8.788  11.225   5.617  1.7462  1.6873  1.7136
48612SOL    HW254615   8.665  11.313   5.608 -0.5115 -1.4474 -0.3347
48613SOL     OW54616   6.470   3.422   4.636  0.0210  0.5949  0.5805
48613SOL    HW154617   6.440   3.332   4.627 -1.2919  1.1613 -1.2517
48613SOL    HW254618   6.469   3.439   4.731  1.1577 -1.5472  1.0352
48614SOL     OW54619   1.634   5.146   1.670 -0.5837 -0.2249  0.3208
48614SOL    HW154620   1.629   5.106   1.756  0.9191 -0.7113  0.2184
48614SOL    HW254621   1.724   5.130   1.641  0.0524  2.9469  0.1431
48615SOL     OW54622  10.834   8.071   7.127  0.0579 -0.6380  0.5762
48615SOL    HW154623  10.924   8.098   7.112  0.2117 -1.5799 -0.2520
48615SOL    HW254624  10.840   7.990   7.177 -0.2947 -1.2484 -0.3507
48616SOL     OW54625   8.716   4.473   6.506 -0.0223 -0.0932  0.0917
48616SOL    HW154626   8.748   4.534   6.572 -0.1039 -0.4988  0.5141
48616SOL    HW254627   8.645   4.426   6.549 -1.1248  0.7034 -0.7886
48617SOL     OW54628   0.951   2.274   5.296  0.0950 -0.2922  0.4835
48617SOL    HW154629   0.952   2.180   5.314 -1.1195 -0.3935  0.0709
48617SOL    HW254630   0.894   2.311   5.363 -2.0420 -0.3004 -1.2201
48618SOL     OW54631   2.122   5.724   2.036 -0.2212 -0.0275 -0.8663
48618SOL    HW154632   2.115   5.790   1.967  2.1966 -0.2951 -1.4612
48618SOL    HW254633   2.149   5.645   1.990  0.5012 -0.4571  0.2697
48619SOL     OW54634   6.802  10.864   5.315 -0.0498 -0.8082 -0.1889
48619SOL    HW154635   6.808  10.953   5.280  1.4774 -0.8184 -0.0245
48619SOL    HW254636   6.833  10.808   5.244  2.1011 -0.9088  0.7481
48620SOL     OW54637  11.448   0.178   3.174 -0.1133 -0.3624  0.3756
48620SOL    HW154638  11.537   0.204   3.150 -0.3978  0.8512  0.5855
48620SOL    HW254639  11.450   0.082   3.172  0.7849 -0.3531 -1.1569
48621SOL     OW54640   6.705   8.068   0.966  0.0184 -0.0253  0.2948
48621SOL    HW154641   6.695   7.984   1.012  0.0043  0.7489  1.7492
48621SOL    HW254642   6.777   8.111   1.011 -0.5962  1.1484  0.1794
48622SOL     OW54643   4.789   2.241   1.418 -0.0792  0.5280  0.4155
48622SOL    HW154644   4.720   2.180   1.445 -0.9726  0.4408 -1.8464
48622SOL    HW254645   4.825   2.203   1.338  1.3392  1.5399  0.5311
48623SOL     OW54646   8.674   4.138  10.128 -0.3317 -0.0154  0.2238
48623SOL    HW154647   8.642   4.227  10.140  1.0777  0.8643 -1.9510
48623SOL    HW254648   8.619   4.085  10.185 -2.4545  1.9936  0.1943
48624SOL     OW54649   5.345  10.937  11.465 -0.3473  0.1703 -0.2902
48624SOL    HW154650   5.365  10.847  11.490  0.4171 -0.3628 -2.5836
48624SOL    HW254651   5.410  10.990  11.513  0.3349 -0.6621 -0.2728
48625SOL     OW54652   9.508   7.260   6.809 -0.3669 -0.1682  0.3082
48625SOL    HW154653   9.437   7.202   6.781 -1.3475  0.4678  1.3860
48625SOL    HW254654   9.467   7.347   6.816  1.0463  0.6742 -1.1754
48626SOL     OW54655   8.485   0.160   9.063  0.0117 -0.2144 -0.1405
48626SOL    HW154656   8.494   0.212   9.142  1.5214 -0.7016  0.0477
48626SOL    HW254657   8.543   0.202   9.000 -2.0704  0.8841 -1.4278
48627SOL     OW54658  11.934   8.748   1.070 -0.4803  0.0944  0.7033
48627SOL    HW154659  11.923   8.793   0.986  1.7846 -0.4590  0.0443
48627SOL    HW254660  11.915   8.815   1.135 -0.7446  0.9844 -0.2514
48628SOL     OW54661  10.287  11.138   1.168 -0.1095  0.5677 -0.0060
48628SOL    HW154662  10.374  11.142   1.130  0.7689  2.5276  1.9873
48628SOL    HW254663  10.290  11.065   1.229  0.2849  0.8831  0.3549
48629SOL     OW54664   7.428   3.885   5.045 -0.1568 -0.0268  0.2210
48629SOL    HW154665   7.395   3.931   4.968  0.3463  0.2139  0.1432
48629SOL    HW254666   7.408   3.793   5.029 -0.6650  0.1026  0.1157
48630SOL     OW54667   4.164   2.130   3.159  0.1558 -0.0621  0.7770
48630SOL    HW154668   4.183   2.072   3.086 -0.5939 -0.7725  1.1315
48630SOL    HW254669   4.134   2.211   3.118 -0.0750 -0.3906  0.2938
48631SOL     OW54670  10.350   2.914   1.160  0.1747  0.4531  0.0983
48631SOL    HW154671  10.426   2.921   1.103  0.2037  2.5809  0.3284
48631SOL    HW254672  10.326   3.005   1.180 -0.5861 -0.1816  2.4470
48632SOL     OW54673   8.040   0.458   2.546 -0.1410 -0.0486 -0.1385
48632SOL    HW154674   8.043   0.389   2.479 -1.3173 -0.9801  0.7162
48632SOL    HW254675   7.980   0.424   2.612 -0.5458  1.7043  0.4444
48633SOL     OW54676   4.972   3.445   3.379 -0.9175 -0.4936  0.2788
48633SOL    HW154677   4.991   3.480   3.466  0.2803 -2.9570  1.1083
48633SOL    HW254678   4.884   3.477   3.359 -0.8515  0.9033  1.9663
48634SOL     OW54679   6.086   3.650   3.754 -0.0194 -0.4610 -0.0885
48634SOL    HW154680   6.181   3.640   3.743  0.0173 -1.6219  1.0998
48634SOL    HW254681   6.076   3.734   3.799  0.2481  0.8533 -2.2862
48635SOL     OW54682   1.909   7.394   7.798 -0.6305 -0.3869 -0.8128
48635SOL    HW154683   1.954   7.320   7.838 -2.4552 -0.0497  2.1203
48635SOL    HW254684   1.946   7.471   7.841 -1.4572  0.1301 -1.0010
48636SOL     OW54685   7.938   2.774   0.979  0.5707  0.3803 -0.0703
48636SOL    HW154686   7.991   2.736   0.909  0.4190 -0.2129  0.1322
48636SOL    HW254687   7.855   2.798   0.936  0.3751 -0.2310 -0.0439
48637SOL     OW54688   7.265   1.466   7.511  0.1505 -0.0069  0.0915
48637SOL    HW154689   7.227   1.549   7.481 -0.6605 -1.0988 -2.1338
48637SOL    HW254690   7.359   1.479   7.505  0.0576  1.0932  0.8136
48638SOL     OW54691   1.646  10.834   1.433  0.5466 -0.1079 -0.6708
48638SOL    HW154692   1.637  10.739   1.429  1.2172 -0.1393 -2.0993
48638SOL    HW254693   1.677  10.859   1.346  2.3490  1.2101  0.2908
48639SOL     OW54694   2.359  12.221   3.081  0.4537  0.6579 -0.0780
48639SOL    HW154695   2.448  12.216   3.045  0.6935 -0.1025  0.5935
48639SOL    HW254696   2.320  12.137   3.059 -0.0472  0.9231 -0.2121
48640SOL     OW54697   3.761   1.614   2.581 -0.6927 -0.2176  0.3904
48640SOL    HW154698   3.746   1.525   2.613  0.9504 -0.3759  0.7701
48640SOL    HW254699   3.691   1.665   2.621 -1.3223 -1.2286  0.6252
48641SOL     OW54700   8.600   4.413   1.100 -0.6653 -0.1996  0.4884
48641SOL    HW154701   8.622   4.394   1.191  1.6780  0.8459  0.2087
48641SOL    HW254702   8.611   4.330   1.054 -0.5994 -0.4451  0.9412
48642SOL     OW54703  10.359   6.043  12.298 -0.2185 -0.3284 -0.5382
48642SOL    HW154704  10.433   5.985  12.281 -0.5492 -0.5790 -1.1774
48642SOL    HW254705  10.388   6.099  12.370  0.1142 -1.2788  0.0922
48643SOL     OW54706   7.063   0.497   7.030 -0.5935 -0.2703  0.4696
48643SOL    HW154707   7.099   0.440   7.098  0.1479  0.3429  0.6120
48643SOL    HW254708   7.135   0.558   7.010 -1.3233  0.5345  0.2382
48644SOL     OW54709   8.347   6.787   0.172 -0.0756  0.7661  0.0537
48644SOL    HW154710   8.360   6.829   0.257  1.4038  0.2078  0.1187
48644SOL    HW254711   8.372   6.696   0.185  1.1892  0.8885 -1.2137
48645SOL     OW54712   2.360   2.587  10.608 -0.0423 -0.0941 -0.0209
48645SOL    HW154713   2.437   2.596  10.665  1.3505  0.0726 -1.8274
48645SOL    HW254714   2.359   2.494  10.585  0.6221  0.1973 -1.2917
48646SOL     OW54715  10.931   8.895  11.647 -0.4520 -0.3012  0.3098
48646SOL    HW154716  10.973   8.974  11.680  0.8929 -0.4344 -0.9608
48646SOL    HW254717  11.002   8.844  11.609 -0.8986 -3.1309  2.8443
48647SOL     OW54718   2.913  11.725   7.528 -0.2209 -0.5180 -0.3163
48647SOL    HW154719   2.823  11.732   7.559  0.6083  0.8994  1.9689
48647SOL    HW254720   2.918  11.637   7.489 -2.1130 -1.3159  1.0988
48648SOL     OW54721   2.647   0.854   8.460  0.3019  0.0399 -0.0181
48648SOL    HW154722   2.569   0.853   8.517  1.3121 -0.1609  1.4231
48648SOL    HW254723   2.622   0.909   8.386 -0.6143  1.4837  1.3122
48649SOL     OW54724   9.577  10.261   1.803  0.3111 -0.7041 -0.3880
48649SOL    HW154725   9.574  10.169   1.776  2.0826 -0.3115 -2.1564
48649SOL    HW254726   9.570  10.311   1.721  0.1515  0.7179  0.4546
48650SOL     OW54727  11.145   6.637  12.040 -0.2265 -0.1084  0.4544
48650SOL    HW154728  11.187   6.551  12.041  0.0251  0.0037  1.6687
48650SOL    HW254729  11.217   6.699  12.056 -0.4443  0.3156 -0.1738
48651SOL     OW54730   6.724   4.813   7.971 -0.1087  0.1230 -0.1215
48651SOL    HW154731   6.804   4.823   8.024 -0.2091  1.2726 -0.1575
48651SOL    HW254732   6.718   4.719   7.955  1.5637  0.0626 -0.6111
48652SOL     OW54733  11.441  12.191   1.656  0.5243  0.3899 -0.2298
48652SOL    HW154734  11.410  12.281   1.640 -0.7461 -0.2872 -1.8177
48652SOL    HW254735  11.442  12.150   1.570  1.3596 -1.0603  0.4398
48653SOL     OW54736   3.325   3.012   3.258 -0.1553  0.1900 -0.6519
48653SOL    HW154737   3.348   3.102   3.283  1.3583  0.2672 -2.1363
48653SOL    HW254738   3.386   2.958   3.308 -0.7165  0.0191 -0.1522
48654SOL     OW54739   9.890   3.286   5.161 -0.1609 -0.0059  0.3016
48654SOL    HW154740   9.926   3.234   5.234 -0.5105 -0.2868  0.2741
48654SOL    HW254741   9.966   3.303   5.105 -0.2713 -1.7605 -0.4651
48655SOL     OW54742   2.379   2.132   6.504 -0.2689 -0.1006 -0.4219
48655SOL    HW154743   2.304   2.083   6.472  0.5096 -0.5371 -1.6425
48655SOL    HW254744   2.443   2.065   6.529 -0.6540  0.2362  1.6412
48656SOL     OW54745   6.841   2.733   7.092  0.2677 -0.1470 -0.6805
48656SOL    HW154746   6.794   2.793   7.035 -0.9082 -0.6440 -0.2519
48656SOL    HW254747   6.918   2.783   7.120  0.6818  0.2336 -2.3686
48657SOL     OW54748   7.488   5.145   5.263  0.3925 -0.1754  0.3177
48657SOL    HW154749   7.396   5.166   5.271  0.1875 -1.1543  0.7526
48657SOL    HW254750   7.506   5.149   5.169  0.1285  0.8540  0.3032
48658SOL     OW54751  10.003  10.534   4.610  0.3231 -0.7261  0.3065
48658SOL    HW154752   9.970  10.483   4.536 -0.0878  3.0376 -2.4091
48658SOL    HW254753   9.928  10.541   4.669 -0.9484  0.1417 -1.3337
48659SOL     OW54754   1.304  11.255   5.718 -0.4820 -0.2347 -0.0766
48659SOL    HW154755   1.363  11.315   5.672 -0.3757 -0.2670  0.0170
48659SOL    HW254756   1.362  11.187   5.753 -0.2165  1.1110  2.2794
48660SOL     OW54757   2.098   0.900  12.006  0.1897  0.4541 -0.5487
48660SOL    HW154758   2.095   0.956  11.928  0.9036 -0.4243 -1.2325
48660SOL    HW254759   2.178   0.848  11.995 -0.0063 -0.0985  0.4874
48661SOL     OW54760   5.969   5.258  10.882  0.1768 -0.5629  0.1191
48661SOL    HW154761   5.912   5.185  10.857  1.0270 -2.3656  2.8842
48661SOL    HW254762   5.933   5.288  10.966  1.2027  0.6711  0.1407
48662SOL     OW54763  12.250   5.073   0.352 -0.0318  0.2696  0.7005
48662SOL    HW154764  12.311   5.027   0.409 -0.4966  0.3487  1.2663
48662SOL    HW254765  12.185   5.007   0.327  0.8383 -0.0800 -0.7282
48663SOL     OW54766   1.099   6.461   1.031 -0.1908  0.4533 -0.8564
48663SOL    HW154767   1.089   6.458   0.936 -0.7463 -0.7347 -0.7870
48663SOL    HW254768   1.062   6.377   1.061 -0.5350  1.0462  0.4464
48664SOL     OW54769   1.322   3.214  11.141  0.3584 -0.0226 -0.4545
48664SOL    HW154770   1.389   3.147  11.123  0.1069  0.2479 -2.6372
48664SOL    HW254771   1.248   3.165  11.177  1.1540 -0.5116  0.5939
48665SOL     OW54772   0.395   4.175   9.486  0.1630  0.3104 -0.1845
48665SOL    HW154773   0.431   4.113   9.423  0.8130 -1.2961  1.6685
48665SOL    HW254774   0.318   4.212   9.442  0.9202 -0.2828 -2.1128
48666SOL     OW54775  10.375   3.056   8.634 -0.2715  0.1175  0.4225
48666SOL    HW154776  10.288   3.067   8.594  0.2570 -0.4106 -0.9276
48666SOL    HW254777  10.428   3.018   8.565  1.4212  1.6914  0.7956
48667SOL     OW54778   7.639   4.297   9.405  0.0146  0.5493 -0.0966
48667SOL    HW154779   7.689   4.343   9.473  0.1973  0.9775 -0.5223
48667SOL    HW254780   7.664   4.339   9.323  1.1121 -1.0781 -0.6498
48668SOL     OW54781   5.100  10.626   4.436 -0.2005 -0.1991 -0.0182
48668SOL    HW154782   5.111  10.654   4.345 -0.6266 -0.7853 -0.2604
48668SOL    HW254783   5.170  10.562   4.450 -0.1883 -0.1734  0.0388
48669SOL     OW54784   6.583   8.248  11.829 -0.2691  0.0233  0.2458
48669SOL    HW154785   6.597   8.331  11.784  0.2176 -0.1554  0.0608
48669SOL    HW254786   6.490   8.229  11.816  0.1267 -0.6933 -1.8605
48670SOL     OW54787   5.226  11.461   9.503 -0.2179  0.2299  0.2032
48670SOL    HW154788   5.224  11.369   9.479 -1.0749  0.1214  0.6283
48670SOL    HW254789   5.303  11.470   9.559 -1.1688 -0.6612  1.7416
48671SOL     OW54790   8.929   1.672   0.074  0.4050 -0.4113  0.0640
48671SOL    HW154791   8.959   1.736   0.138  0.1459 -1.0146  0.8022
48671SOL    HW254792   9.005   1.616   0.058 -0.2652 -1.9437  1.9392
48672SOL     OW54793   7.285   4.922   7.077  0.1805  0.5174  0.3796
48672SOL    HW154794   7.355   4.954   7.134  0.2179 -0.9950  1.2425
48672SOL    HW254795   7.218   4.889   7.137  0.6999 -2.1316 -0.3647
48673SOL     OW54796   8.914   4.994  10.046 -0.0481  0.3585 -0.1865
48673SOL    HW154797   8.921   5.078  10.000 -2.6259  0.8623  0.1860
48673SOL    HW254798   8.970   4.935   9.996 -1.0941  1.3838 -2.7725
48674SOL     OW54799   4.431  12.609   0.786 -0.5366 -0.2414  0.0910
48674SOL    HW154800   4.351  12.624   0.737 -2.0684 -1.9299  1.9212
48674SOL    HW254801   4.406  12.619   0.878  1.6940  0.5977  0.6931
48675SOL     OW54802   2.236   7.292   4.613 -0.0316  0.0520  0.3017
48675SOL    HW154803   2.277   7.350   4.677 -0.7230  0.3751  0.4644
48675SOL    HW254804   2.301   7.223   4.598  1.5569  1.7995 -1.2683
48676SOL     OW54805  12.320   2.617  12.223 -0.3255  0.1104  0.2265
48676SOL    HW154806  12.334   2.569  12.304 -0.7470  1.0491  0.8777
48676SOL    HW254807  12.397   2.673  12.215  0.0571 -0.4936 -0.4076
48677SOL     OW54808   8.152  11.689  11.311  0.4669 -0.1892 -0.3238
48677SOL    HW154809   8.170  11.612  11.364 -0.3385 -0.7103 -0.7718
48677SOL    HW254810   8.063  11.675  11.278  1.0457 -0.0458 -2.0542
48678SOL     OW54811   1.762   1.094  11.987 -0.2329  0.0804 -0.4325
48678SOL    HW154812   1.763   1.162  12.054  0.6900 -0.9761  0.6694
48678SOL    HW254813   1.819   1.128  11.918 -0.5288  0.8211 -0.3176
48679SOL     OW54814   9.514   1.117   0.853  0.0891 -0.1271 -0.5502
48679SOL    HW154815   9.458   1.039   0.852  1.4581 -1.1961  1.2204
48679SOL    HW254816   9.506   1.152   0.764 -3.4374 -0.1148 -0.3688
48680SOL     OW54817   2.326   4.562   5.807  0.1362 -0.0099 -0.5447
48680SOL    HW154818   2.394   4.629   5.810  2.2755 -1.9683 -1.7923
48680SOL    HW254819   2.305   4.545   5.898 -1.0679  2.7972 -0.1811
48681SOL     OW54820   2.256  10.219   5.156  0.4265 -0.3832 -0.1516
48681SOL    HW154821   2.272  10.301   5.111 -0.9999 -0.2605 -0.4848
48681SOL    HW254822   2.343  10.182   5.171  1.0193  0.5176 -1.2338
48682SOL     OW54823   0.949   9.333   6.734  0.1662  0.8869 -0.0021
48682SOL    HW154824   0.993   9.280   6.668  1.2231  1.4177  0.2689
48682SOL    HW254825   0.985   9.304   6.818 -2.5862 -1.2113  0.6273
48683SOL     OW54826   6.811   6.815   2.670 -0.2943  0.7816 -0.5201
48683SOL    HW154827   6.807   6.870   2.748  4.7842  1.3019 -0.3492
48683SOL    HW254828   6.818   6.726   2.704  1.5390  0.9763 -0.3133
48684SOL     OW54829   9.679  10.985   1.847 -0.2501 -0.6751 -0.0617
48684SOL    HW154830   9.772  10.967   1.863 -0.2377 -0.3903  0.1850
48684SOL    HW254831   9.645  11.012   1.932 -0.3371  0.1842 -0.3620
48685SOL     OW54832  12.460  11.626   9.995  0.2536  0.3630 -0.5954
48685SOL    HW154833  12.406  11.594  10.067  0.1326  1.7866 -0.0241
48685SOL    HW254834  12.550  11.621  10.028  0.0994  2.2965  0.2066
48686SOL     OW54835   1.435   2.387  10.870 -0.1407 -0.3532  0.2026
48686SOL    HW154836   1.430   2.439  10.790 -0.2932  0.4676  0.7299
48686SOL    HW254837   1.454   2.451  10.939  0.2432 -1.0823  0.7864
48687SOL     OW54838   6.192  12.402   8.929 -0.2264  0.6397 -0.0148
48687SOL    HW154839   6.127  12.335   8.911  0.2551  0.4200 -1.0003
48687SOL    HW254840   6.143  12.484   8.927 -0.3258  0.5703 -1.7759
48688SOL     OW54841   8.614   2.579   8.994  0.1527 -0.3964 -0.4998
48688SOL    HW154842   8.616   2.630   9.075  1.2457 -0.2788 -0.5785
48688SOL    HW254843   8.548   2.621   8.940 -2.5496 -2.0323  1.3026
48689SOL     OW54844   9.643   7.773   8.751 -0.1189 -0.2821 -0.8733
48689SOL    HW154845   9.688   7.853   8.724 -0.4311 -0.5005 -2.1229
48689SOL    HW254846   9.685   7.704   8.700  1.0640 -1.1634  1.1596
48690SOL     OW54847   1.067   8.299   3.220  0.3043 -0.4012  0.0211
48690SOL    HW154848   1.000   8.365   3.235  2.2297  1.5100  0.8543
48690SOL    HW254849   1.094   8.314   3.129 -0.7177 -1.5255 -0.4867
48691SOL     OW54850  12.519   7.307  10.786 -0.2110  0.2779 -0.0779
48691SOL    HW154851  12.560   7.226  10.754  0.0326 -0.1649  1.2854
48691SOL    HW254852  12.436   7.311  10.739  0.6737  0.3509 -1.7082
48692SOL     OW54853   1.037   7.910   1.018 -0.9537  0.3798 -0.1743
48692SOL    HW154854   1.052   7.863   0.935  0.6018  0.2542  0.1514
48692SOL    HW254855   1.003   7.842   1.077 -1.0862  0.2411 -0.4032
48693SOL     OW54856  11.877   5.779   4.735  0.0900 -0.0287 -0.0414
48693SOL    HW154857  11.842   5.811   4.818  0.3766  0.2038 -0.0053
48693SOL    HW254858  11.877   5.856   4.678 -0.7640 -0.3405 -0.4858
48694SOL     OW54859  11.733  10.097   1.005 -0.1221 -0.4782  0.1297
48694SOL    HW154860  11.778  10.018   0.973  1.1800  0.9084 -1.6779
48694SOL    HW254861  11.757  10.165   0.943 -0.4402  1.5992  2.1349
48695SOL     OW54862   5.530   3.445   0.850  0.2187 -0.3460  0.6273
48695SOL    HW154863   5.470   3.376   0.877 -2.1455  1.7819  1.1871
48695SOL    HW254864   5.554   3.422   0.760 -2.5932 -0.6236 -0.1448
48696SOL     OW54865   1.309   1.120   7.149 -0.0731  0.1484  0.6655
48696SOL    HW154866   1.389   1.095   7.104  0.1836 -0.2199  1.3080
48696SOL    HW254867   1.251   1.045   7.138 -0.0293  0.0795  0.8902
48697SOL     OW54868   3.297   9.290  11.619  0.0905  0.5381 -0.7666
48697SOL    HW154869   3.373   9.346  11.606 -0.1785  1.2328  0.4654
48697SOL    HW254870   3.228   9.350  11.650 -0.5576 -0.2807 -0.5794
48698SOL     OW54871   1.195   0.454   1.609 -0.5030  0.5309  0.1046
48698SOL    HW154872   1.270   0.503   1.642  0.1242  0.0616 -0.6109
48698SOL    HW254873   1.120   0.490   1.657  0.0313  1.7456  0.0477
48699SOL     OW54874   9.187   2.442   3.140 -0.6509  0.4686  0.1151
48699SOL    HW154875   9.213   2.379   3.206  0.1143 -1.1474 -1.6309
48699SOL    HW254876   9.249   2.514   3.149  0.3889 -0.4204  0.2018
48700SOL     OW54877   0.330   7.859   1.982 -0.2949  0.0285  0.6540
48700SOL    HW154878   0.248   7.861   2.031 -0.3452 -0.2659  0.5841
48700SOL    HW254879   0.371   7.943   2.001 -0.9903  0.5163  0.0281
48701SOL     OW54880   3.249  10.099   2.215 -0.6090  0.2363  0.5563
48701SOL    HW154881   3.192  10.087   2.291 -0.8606  1.5576  0.5928
48701SOL    HW254882   3.189  10.115   2.142 -0.4005 -1.6601 -0.0880
48702SOL     OW54883   0.512   8.376   9.645  0.2544 -0.1056  0.0262
48702SOL    HW154884   0.420   8.350   9.641  0.5000 -0.9163 -0.6642
48702SOL    HW254885   0.531   8.384   9.739 -0.5655  0.2718  0.1647
48703SOL     OW54886   1.007   4.306   9.893  0.0110  0.1085  0.6285
48703SOL    HW154887   1.051   4.391   9.884  0.7782 -0.3568 -0.2977
48703SOL    HW254888   0.969   4.290   9.807  0.1087 -0.6006  0.7115
48704SOL     OW54889  10.719   0.486   6.832 -0.0071 -0.4183  0.3072
48704SOL    HW154890  10.707   0.579   6.815  0.6695 -0.3756  0.0401
48704SOL    HW254891  10.630   0.452   6.842 -0.4702 -0.3257 -2.6945
48705SOL     OW54892   6.985   0.634   8.211  0.3785 -0.3289 -0.5959
48705SOL    HW154893   6.958   0.545   8.188 -1.1421 -0.3331  0.9434
48705SOL    HW254894   7.027   0.668   8.133  0.1879 -2.0935 -1.5113
48706SOL     OW54895   6.692   2.436   9.843 -0.0630  0.0270 -0.5816
48706SOL    HW154896   6.657   2.513   9.798  0.2483  0.5423  0.0223
48706SOL    HW254897   6.787   2.449   9.842 -0.0745  0.6103  1.1090
48707SOL     OW54898   8.989   1.333  12.583 -0.2433  1.1116 -0.4667
48707SOL    HW154899   8.919   1.393  12.558 -2.4071 -0.8505  0.4674
48707SOL    HW254900   8.952   1.282  12.655  1.5745 -1.1314 -1.0046
48708SOL     OW54901   7.951   2.335   4.985 -0.5245 -0.1012 -0.0797
48708SOL    HW154902   8.011   2.333   4.910  0.1257 -0.3315  0.4404
48708SOL    HW254903   7.870   2.372   4.949 -0.0414  0.3218 -0.7682
48709SOL     OW54904   7.036   4.914   7.247  0.2530 -0.2838 -0.3866
48709SOL    HW154905   7.098   4.907   7.321 -0.1894  4.0334  0.6373
48709SOL    HW254906   6.969   4.848   7.266  1.3210 -0.8371  1.8424
48710SOL     OW54907  11.469   5.555   4.871  0.4042  0.0015  0.3075
48710SOL    HW154908  11.383   5.573   4.833  0.5953 -0.4267 -0.3361
48710SOL    HW254909  11.455   5.479   4.928 -0.1959  1.4917  2.2854
48711SOL     OW54910   4.289   4.512   0.396 -0.4064  0.1870  0.0207
48711SOL    HW154911   4.272   4.505   0.302 -0.3062 -0.1954  0.0299
48711SOL    HW254912   4.318   4.425   0.422  2.0971  0.8882 -0.0875
48712SOL     OW54913  10.117  10.076   9.263  0.0848 -0.2122  0.2398
48712SOL    HW154914  10.131  10.010   9.195  0.8712  0.4708 -0.2799
48712SOL    HW254915  10.204  10.089   9.302 -0.0252  0.6432  0.2106
48713SOL     OW54916   9.020   9.980   3.405  0.3137 -0.2007 -0.9484
48713SOL    HW154917   9.100   9.968   3.353 -0.4657 -0.3472 -2.1627
48713SOL    HW254918   9.023   9.910   3.470  1.8357  0.6282 -0.0696
48714SOL     OW54919   7.006   6.668   9.154  0.1975 -0.0364  0.1847
48714SOL    HW154920   6.912   6.686   9.150 -0.0840 -1.2450  0.7184
48714SOL    HW254921   7.012   6.572   9.160  1.3639  0.0957  2.0876
48715SOL     OW54922   6.233   3.312   1.825  0.2495 -0.1449  0.2453
48715SOL    HW154923   6.326   3.318   1.845  0.2549  1.1136 -0.1031
48715SOL    HW254924   6.228   3.323   1.730 -0.2192 -0.6968  0.2007
48716SOL     OW54925   0.057   3.346   4.594 -0.4100 -0.6850  0.1325
48716SOL    HW154926  -0.031   3.360   4.559  0.0992 -0.0330 -0.9454
48716SOL    HW254927   0.043   3.312   4.683 -1.7562  0.9195  0.5783
48717SOL     OW54928   7.111   6.440   9.747  0.0770  0.0368 -0.0115
48717SOL    HW154929   7.030   6.484   9.770  1.0268  0.6273  2.4762
48717SOL    HW254930   7.099   6.350   9.777  0.0443 -0.1118 -0.4532
48718SOL     OW54931   9.006   0.332   0.942 -0.5242 -0.2590  0.0339
48718SOL    HW154932   8.952   0.332   1.021 -1.3960 -2.2004 -0.5029
48718SOL    HW254933   8.943   0.334   0.870  0.2535  1.2783 -0.6376
48719SOL     OW54934   4.016  10.976   6.145  0.2720  0.2109 -0.3469
48719SOL    HW154935   4.027  10.889   6.183  1.6041  1.7681  3.3907
48719SOL    HW254936   3.923  10.995   6.155 -0.4040 -1.3125 -2.8555
48720SOL     OW54937   0.316   0.985   8.998  0.5487  0.3680  0.4157
48720SOL    HW154938   0.232   0.960   9.036  0.8096 -1.5279 -0.1452
48720SOL    HW254939   0.321   1.080   9.010 -1.5329  0.4751  0.7053
48721SOL     OW54940  10.951  11.355   1.173  0.3244 -0.0225  0.1993
48721SOL    HW154941  10.970  11.302   1.096  0.1667 -2.1571  1.5645
48721SOL    HW254942  11.036  11.385   1.204  0.4070  0.6446 -0.6340
48722SOL     OW54943   0.106  11.192   5.029  0.1610 -0.4318  0.2354
48722SOL    HW154944   0.142  11.205   4.942 -0.7820 -0.6649 -0.2001
48722SOL    HW254945   0.076  11.278   5.056 -2.3934 -0.8492 -0.9845
48723SOL     OW54946   6.607   6.206   1.522 -0.6446 -0.3956  0.6719
48723SOL    HW154947   6.537   6.263   1.554 -0.5483 -1.2250  2.5082
48723SOL    HW254948   6.561   6.134   1.479 -0.8071  0.3919 -0.5034
48724SOL     OW54949   4.507   3.163   8.475  0.4487  0.5112 -0.5293
48724SOL    HW154950   4.597   3.195   8.465  0.2172  1.6382  0.6206
48724SOL    HW254951   4.513   3.069   8.457  1.8328  0.5763 -0.5792
48725SOL     OW54952   6.144   0.721   9.961 -0.1929  0.6369 -0.1705
48725SOL    HW154953   6.070   0.729   9.901 -0.4912  0.2498  0.1455
48725SOL    HW254954   6.106   0.697  10.045  0.2936  0.3568 -0.0226
48726SOL     OW54955   3.002   1.549   6.199 -0.5325 -0.0488  0.2243
48726SOL    HW154956   2.955   1.484   6.147 -0.9960  0.8025 -0.4490
48726SOL    HW254957   2.971   1.535   6.288 -1.0812 -0.3501 -0.0108
48727SOL     OW54958   0.268  11.322  11.956  0.7320  0.3189 -0.1067
48727SOL    HW154959   0.174  11.335  11.941  0.6007 -0.1024  0.3612
48727SOL    HW254960   0.310  11.371  11.885  0.1392 -0.2806 -0.8837
48728SOL     OW54961  11.691   7.614   2.535 -0.3675 -0.0987 -0.5728
48728SOL    HW154962  11.624   7.656   2.589  0.5361  0.6557 -0.0019
48728SOL    HW254963  11.656   7.615   2.446 -1.7121 -0.9919 -0.0921
48729SOL     OW54964  10.216  12.536   7.806  0.3710  0.0726 -0.1092
48729SOL    HW154965  10.248  12.463   7.859 -0.4498  0.6124  1.1801
48729SOL    HW254966  10.295  12.573   7.766  0.5951 -3.1592 -3.1211
48730SOL     OW54967   7.702   3.194   4.779  0.1439  0.2284 -0.6989
48730SOL    HW154968   7.672   3.284   4.791 -0.3459 -0.0499  0.2884
48730SOL    HW254969   7.720   3.163   4.868  1.0533 -0.4011 -1.0859
48731SOL     OW54970  12.105  12.467  12.012  0.0666 -0.5916 -0.0314
48731SOL    HW154971  12.141  12.481  11.924 -2.4696  0.3784 -1.0042
48731SOL    HW254972  12.036  12.532  12.020 -1.2239 -2.0878  1.8443
48732SOL     OW54973   0.136  12.553   6.040 -0.1447 -0.3323 -0.0084
48732SOL    HW154974   0.204  12.544   5.973  1.8878  0.4614  1.8219
48732SOL    HW254975   0.077  12.620   6.005  0.4309 -0.4753 -1.3183
48733SOL     OW54976   8.756   6.697   8.559 -0.2401 -0.6131 -0.1189
48733SOL    HW154977   8.847   6.725   8.568 -0.3036 -0.5582  0.3685
48733SOL    HW254978   8.736   6.710   8.466 -0.1908  0.6837  0.0348
48734SOL     OW54979   7.806   8.386   3.653  0.5398  0.0984 -0.0802
48734SOL    HW154980   7.885   8.397   3.601 -0.0251 -1.9260 -1.4605
48734SOL    HW254981   7.837   8.352   3.737  1.1298 -1.3670 -0.8588
48735SOL     OW54982   6.286   2.111  12.195  0.3752 -0.0686 -0.3805
48735SOL    HW154983   6.367   2.133  12.150  0.3075 -0.5388 -0.7399
48735SOL    HW254984   6.273   2.182  12.257  0.3034  0.7461 -1.3154
48736SOL     OW54985   1.316   9.063   9.399  0.0812  0.3514 -0.0671
48736SOL    HW154986   1.352   9.148   9.423 -0.5379  0.3749  0.8292
48736SOL    HW254987   1.378   9.028   9.335  0.4348  1.3935 -0.3180
48737SOL     OW54988   3.540   4.361   6.236 -0.0668  0.1768 -0.0597
48737SOL    HW154989   3.573   4.404   6.314 -3.2596  0.4589  1.3040
48737SOL    HW254990   3.548   4.426   6.166  0.3444  0.9168  0.6726
48738SOL     OW54991   5.942   2.965   2.765  0.2032  0.0152  0.8174
48738SOL    HW154992   5.939   3.055   2.733 -0.1332 -0.3376 -0.1851
48738SOL    HW254993   5.872   2.960   2.829 -1.2397 -0.0859 -0.6934
48739SOL     OW54994  12.292  12.379  11.138 -0.4999 -0.2176  0.0852
48739SOL    HW154995  12.380  12.411  11.160 -0.3139  0.0700 -1.0359
48739SOL    HW254996  12.235  12.417  11.205  0.2218 -0.3837  0.8050
48740SOL     OW54997   6.732   3.982   4.193  0.0610 -0.3068 -0.0374
48740SOL    HW154998   6.652   3.978   4.140 -0.7328 -0.2547  1.1112
48740SOL    HW254999   6.721   4.061   4.246  0.8369 -0.3557  0.2052
48741SOL     OW55000   0.938  10.041   0.434  0.2742  0.1841  0.4400
48741SOL    HW155001   0.906  10.095   0.507 -1.3337  1.0547 -0.8334
48741SOL    HW255002   1.032  10.034   0.449  0.0555  0.7081  2.3419
48742SOL     OW55003   9.954   5.693   4.383  0.9220 -0.2835 -0.4458
48742SOL    HW155004   9.881   5.729   4.433  1.4515 -1.4242  1.2566
48742SOL    HW255005   9.978   5.762   4.321 -0.9780  0.4580 -0.4041
48743SOL     OW55006   8.466   6.009   6.252 -0.1389 -0.2039  0.0029
48743SOL    HW155007   8.415   6.077   6.297  2.1567  0.7512  1.3046
48743SOL    HW255008   8.424   5.927   6.278 -2.5640  0.5826 -1.0651
48744SOL     OW55009   4.279  10.584   6.471 -0.4399  0.0288 -0.3524
48744SOL    HW155010   4.219  10.631   6.529  0.3475 -0.4717  0.9049
48744SOL    HW255011   4.233  10.503   6.450  0.0459 -0.7102  1.2341
48745SOL     OW55012  12.151   9.137   9.848 -0.7620 -0.2503 -0.8531
48745SOL    HW155013  12.184   9.218   9.887  0.0274 -1.6023  1.4313
48745SOL    HW255014  12.085   9.105   9.910 -0.5866 -1.6895 -1.3700
48746SOL     OW55015   0.813   5.101   6.616  0.0466  0.4918 -0.3446
48746SOL    HW155016   0.785   5.064   6.699  1.2075 -1.2834 -0.7035
48746SOL    HW255017   0.760   5.056   6.550 -1.3067  2.3245 -0.5846
48747SOL     OW55018   5.316  12.142   0.271 -0.2729  0.0180  0.1935
48747SOL    HW155019   5.281  12.146   0.360  0.7175  0.4354  0.5850
48747SOL    HW255020   5.239  12.148   0.214 -0.8364  0.7858  1.0145
48748SOL     OW55021   5.800  10.278   2.037  0.6579  0.0323  0.1171
48748SOL    HW155022   5.788  10.185   2.016  0.0206  0.0041  0.5627
48748SOL    HW255023   5.890  10.298   2.010  0.3531 -0.3614 -1.2631
48749SOL     OW55024   9.598   4.938  11.878  0.1341  0.5548 -0.5338
48749SOL    HW155025   9.590   4.843  11.876 -0.1592  0.4125  2.3288
48749SOL    HW255026   9.628   4.962  11.791  2.0604 -2.3226 -0.7868
48750SOL     OW55027   6.482   4.282  12.518  0.4533  0.2604  0.3444
48750SOL    HW155028   6.398   4.318  12.491 -0.3957 -2.0338 -0.3145
48750SOL    HW255029   6.470   4.257  12.609  0.0442 -0.9919 -0.0325
48751SOL     OW55030   4.262   9.398  10.799  0.0339  0.2702  0.3521
48751SOL    HW155031   4.278   9.318  10.847 -1.4320  0.6152  1.4970
48751SOL    HW255032   4.291   9.468  10.857 -0.5148  0.6391  0.1965
48752SOL     OW55033   6.986   7.762   8.731 -0.0080 -0.1832  0.3431
48752SOL    HW155034   7.008   7.747   8.823 -0.3637 -0.9990  0.3048
48752SOL    HW255035   7.037   7.839   8.706 -1.0330  0.9631  1.6293
48753SOL     OW55036  12.024   4.963   1.949 -0.0150  0.5750 -0.3293
48753SOL    HW155037  12.089   5.030   1.930  2.0240 -1.1502  0.1554
48753SOL    HW255038  12.055   4.921   2.029 -2.1323  0.1270  0.3147
48754SOL     OW55039  10.903   6.710   5.041  0.3987 -0.3730  0.6674
48754SOL    HW155040  10.893   6.686   4.949  2.7482  1.1171 -0.0542
48754SOL    HW255041  10.856   6.792   5.050  0.9931 -0.0103  0.5242
48755SOL     OW55042   5.420   0.412   8.127  0.4779  0.5754 -0.3453
48755SOL    HW155043   5.473   0.478   8.171  1.9268 -0.3536 -0.6528
48755SOL    HW255044   5.471   0.386   8.051 -0.4097 -0.3658 -0.6437
48756SOL     OW55045   8.750   9.638   0.563  0.0539  0.4076  0.0252
48756SOL    HW155046   8.657   9.632   0.584  0.0172 -2.4568 -0.6461
48756SOL    HW255047   8.758   9.721   0.515 -1.7285  1.7187  1.7997
48757SOL     OW55048   1.210   4.483   2.299  0.3885  0.3409 -0.1972
48757SOL    HW155049   1.275   4.541   2.338 -1.3488  1.4818  1.1703
48757SOL    HW255050   1.261   4.411   2.261  2.3464  0.0414  2.6655
48758SOL     OW55051  10.063   5.066   5.079  0.1491  0.2680 -0.0342
48758SOL    HW155052  10.008   5.142   5.100  1.7052  1.3538  0.3289
48758SOL    HW255053  10.054   5.056   4.984  0.9500  1.7796 -0.3016
48759SOL     OW55054  11.770   1.980   4.116  0.6492  0.3967  0.5735
48759SOL    HW155055  11.830   1.987   4.190  1.0629  0.7674  0.2115
48759SOL    HW255056  11.752   2.071   4.092  0.2678  0.2812  0.4187
48760SOL     OW55057   9.249   5.750   0.663 -0.1117  0.4552 -0.0923
48760SOL    HW155058   9.203   5.813   0.608  1.9087  1.2451 -0.9302
48760SOL    HW255059   9.187   5.677   0.671 -2.0329  1.9981 -0.0680
48761SOL     OW55060  11.214   3.622   5.087 -0.5035  0.5650  0.5032
48761SOL    HW155061  11.165   3.547   5.053  0.3243  0.4649 -0.5021
48761SOL    HW255062  11.286   3.583   5.136 -0.6170  0.7094  0.7851
48762SOL     OW55063  11.166   9.410   1.090 -0.4880  0.7208 -0.0325
48762SOL    HW155064  11.240   9.470   1.104 -0.9059  1.2681 -0.1328
48762SOL    HW255065  11.089   9.462   1.112 -0.7300 -0.6868  2.9507
48763SOL     OW55066   6.302   8.464   5.929 -0.8305 -0.1289 -0.5428
48763SOL    HW155067   6.376   8.485   5.871  0.5511 -1.6476  0.5686
48763SOL    HW255068   6.288   8.544   5.979 -1.7232  1.0477 -2.5502
48764SOL     OW55069   2.613   5.659   5.993  0.1250 -0.0978  0.4332
48764SOL    HW155070   2.692   5.692   5.950  0.8232 -0.5574  1.3171
48764SOL    HW255071   2.641   5.579   6.038 -1.4079 -1.6684 -1.2327
48765SOL     OW55072  10.937   8.349   0.717  0.1144  1.0419 -0.4348
48765SOL    HW155073  10.967   8.364   0.806  0.7263  1.9242 -0.7736
48765SOL    HW255074  10.856   8.399   0.710  1.3071  2.9896 -1.0688
48766SOL     OW55075  10.693   3.477   8.321 -0.3861  0.9158 -0.5132
48766SOL    HW155076  10.606   3.450   8.352 -0.2246  0.6617 -0.2878
48766SOL    HW255077  10.678   3.505   8.231 -0.3542 -0.9873 -1.1524
48767SOL     OW55078   9.901   2.958   9.687 -0.3371 -0.3275  0.1561
48767SOL    HW155079   9.847   2.896   9.639  1.9097 -1.0634 -1.6001
48767SOL    HW255080   9.858   3.043   9.673 -1.2066 -0.9125 -0.9241
48768SOL     OW55081  10.781   2.765   0.490  0.0954  0.9644  0.0774
48768SOL    HW155082  10.698   2.765   0.538 -0.6571  1.3084 -1.1682
48768SOL    HW255083  10.842   2.809   0.549 -0.3967  0.0568  1.3239
48769SOL     OW55084   7.751  12.263  11.264  0.0634 -0.1550 -0.0402
48769SOL    HW155085   7.702  12.316  11.328  0.6214  0.4463 -0.0980
48769SOL    HW255086   7.841  12.262  11.298 -0.1733 -2.1415  0.6372
48770SOL     OW55087   4.451   9.302  11.727  1.0870 -0.0295  0.0562
48770SOL    HW155088   4.523   9.324  11.668  1.5853  2.3585  1.4408
48770SOL    HW255089   4.484   9.322  11.814 -1.6111  2.4530  0.6517
48771SOL     OW55090   6.275   8.813   7.669 -0.4103 -0.0904 -1.0078
48771SOL    HW155091   6.228   8.767   7.600 -0.7796  0.6801 -1.2838
48771SOL    HW255092   6.223   8.892   7.685  0.1701  0.1997 -0.5019
48772SOL     OW55093   3.712   2.558  11.266  0.1025 -0.4559 -0.0390
48772SOL    HW155094   3.787   2.609  11.235 -1.0036  1.4850  0.2974
48772SOL    HW255095   3.669   2.526  11.187 -0.0695  0.5099 -0.3495
48773SOL     OW55096   3.515   4.272   1.090 -0.5005  0.2025  0.4081
48773SOL    HW155097   3.454   4.245   1.159  2.6456 -2.5505  2.3786
48773SOL    HW255098   3.578   4.329   1.134 -0.5675  1.5581 -1.1595
48774SOL     OW55099  10.053   3.704   5.650  0.7140  0.0609 -0.3427
48774SOL    HW155100   9.999   3.748   5.715  1.6850  0.5825  0.1349
48774SOL    HW255101  10.025   3.741   5.566 -1.1769 -1.2772 -0.3433
48775SOL     OW55102   1.461  10.133   2.654 -0.3138 -0.2448  0.4131
48775SOL    HW155103   1.415  10.175   2.726 -3.3944  0.5774 -1.8029
48775SOL    HW255104   1.478  10.204   2.592  1.8345 -1.0005  0.0340
48776SOL     OW55105   7.167   8.218   7.953 -0.0722  0.1070  0.2706
48776SOL    HW155106   7.225   8.145   7.935 -1.3695 -0.6637 -1.0399
48776SOL    HW255107   7.225   8.290   7.977  1.2465 -1.2936  1.4966
48777SOL     OW55108   1.028  12.477   5.080  0.0753  0.3809  0.3243
48777SOL    HW155109   1.111  12.489   5.034  0.6540 -1.5517  0.7842
48777SOL    HW255110   0.988  12.564   5.079  1.4175  1.0405 -1.1961
48778SOL     OW55111   1.465   9.252  11.151  0.0737  0.4600  0.4914
48778SOL    HW155112   1.500   9.293  11.072 -0.4777  1.7112  0.8613
48778SOL    HW255113   1.424   9.324  11.199 -0.4579 -0.4463  1.4488
48779SOL     OW55114  11.848   4.407  11.937  0.4491  0.0547  0.0179
48779SOL    HW155115  11.835   4.432  11.845 -0.1736 -2.8990 -0.7989
48779SOL    HW255116  11.929   4.356  11.937 -0.7031 -1.8741  0.6324
48780SOL     OW55117   5.925  10.196   9.932  0.0124 -0.4259  0.1764
48780SOL    HW155118   5.836  10.179   9.963  0.3409 -1.0119  0.8148
48780SOL    HW255119   5.971  10.113   9.942  0.5405 -0.2232 -0.4815
48781SOL     OW55120   0.979   0.430   3.956 -0.2607 -0.1913  0.7097
48781SOL    HW155121   0.977   0.417   3.861 -0.8325 -0.0991  0.7071
48781SOL    HW255122   0.915   0.367   3.989 -0.7627  0.4454  0.9574
48782SOL     OW55123   5.253   1.876  11.268  0.2142  0.5347  0.3044
48782SOL    HW155124   5.325   1.814  11.268  0.8804  1.2918  1.0460
48782SOL    HW255125   5.291   1.958  11.299 -0.1969  1.8590 -2.3813
48783SOL     OW55126   8.230   3.195   1.937  0.5324 -0.0306 -0.3130
48783SOL    HW155127   8.157   3.173   1.995  0.2867 -2.9387 -1.5807
48783SOL    HW255128   8.212   3.285   1.910 -0.6029  0.5987  2.1880
48784SOL     OW55129   7.390   3.000   6.570 -0.2346  0.0593 -0.3355
48784SOL    HW155130   7.417   2.926   6.516 -1.0914 -1.0339  0.6722
48784SOL    HW255131   7.473   3.037   6.603  0.1964 -0.6299 -0.6240
48785SOL     OW55132   0.024  10.446   5.740 -0.3544 -0.4417  0.1711
48785SOL    HW155133   0.046  10.374   5.681  0.0276 -1.3054  1.3267
48785SOL    HW255134   0.049  10.525   5.692 -1.6767 -0.9876 -1.5191
48786SOL     OW55135  11.418   9.165   0.096 -0.1570  0.8185  0.1835
48786SOL    HW155136  11.499   9.147   0.144 -0.5340 -2.4217 -0.1712
48786SOL    HW255137  11.365   9.215   0.157  1.1791  0.8730  1.3556
48787SOL     OW55138   7.166   6.147   8.828  0.0716 -0.3491  0.3180
48787SOL    HW155139   7.255   6.121   8.849  0.6420  0.7390 -0.6684
48787SOL    HW255140   7.119   6.064   8.815  0.8456 -0.9313  1.1406
48788SOL     OW55141   6.832  10.708   9.638  0.2669  0.0185  0.4557
48788SOL    HW155142   6.835  10.726   9.544 -0.5669 -0.4008  0.3410
48788SOL    HW255143   6.812  10.793   9.677 -0.3035  0.0145  0.1817
48789SOL     OW55144   8.915   1.112  11.889 -0.1584 -0.5022 -0.4293
48789SOL    HW155145   8.878   1.156  11.965  1.3833  0.0629  0.0139
48789SOL    HW255146   8.970   1.043  11.925  0.2703 -0.4916 -1.0443
48790SOL     OW55147   9.215   2.937   3.668 -0.4480 -0.6802  0.0276
48790SOL    HW155148   9.224   2.842   3.658 -0.6737 -0.5983 -1.2166
48790SOL    HW255149   9.236   2.972   3.581 -2.7668  0.2144 -0.2623
48791SOL     OW55150   8.417   4.431   8.501 -0.4914 -0.1262 -0.4058
48791SOL    HW155151   8.394   4.488   8.427 -0.3377  1.6429  0.8511
48791SOL    HW255152   8.510   4.445   8.515 -0.8485  0.9611  1.2037
48792SOL     OW55153  11.025   5.293   1.910 -0.3614 -0.1439  0.1569
48792SOL    HW155154  11.010   5.255   1.997  0.0472 -2.0081 -0.5388
48792SOL    HW255155  11.052   5.219   1.856  1.1967  1.2740 -1.1295
48793SOL     OW55156   9.808  10.960   2.264 -0.2740  0.2616  0.1881
48793SOL    HW155157   9.894  10.954   2.306 -0.3827  0.5832  0.4615
48793SOL    HW255158   9.790  11.054   2.260 -0.8331  0.1740  0.5796
48794SOL     OW55159   9.068   9.047   2.028  0.4692 -0.1427 -0.3707
48794SOL    HW155160   9.108   9.088   2.105 -1.9313 -1.5711  1.7989
48794SOL    HW255161   8.984   9.091   2.018 -0.9448 -2.5186  0.3063
48795SOL     OW55162   0.266   4.964   3.562 -0.2685  0.2659 -0.1657
48795SOL    HW155163   0.251   5.056   3.583 -1.9173  0.2692 -1.1840
48795SOL    HW255164   0.303   4.966   3.473  0.3284 -0.0408  0.0684
48796SOL     OW55165   7.917   9.764   5.698 -0.0085  0.3168 -0.1344
48796SOL    HW155166   7.822   9.777   5.704 -0.2136 -1.4846  1.3593
48796SOL    HW255167   7.938   9.705   5.771  2.1726  0.1517 -0.8227
48797SOL     OW55168   8.483   5.484   0.271 -0.3080 -0.3727  0.4023
48797SOL    HW155169   8.404   5.453   0.315 -0.0951  1.3260  2.0843
48797SOL    HW255170   8.551   5.481   0.337  0.7993 -0.6761 -0.7022
48798SOL     OW55171   6.892  11.433   1.766  0.4291  0.3121  0.1898
48798SOL    HW155172   6.925  11.367   1.705  0.6978  0.4322  0.2064
48798SOL    HW255173   6.829  11.484   1.715 -2.8472 -2.3734  1.1233
48799SOL     OW55174  11.024   3.084   3.289  0.0064  0.0946  0.2981
48799SOL    HW155175  10.959   3.099   3.220 -2.1892 -1.8271  1.7936
48799SOL    HW255176  10.988   3.127   3.366  1.9754  1.4221  0.5587
48800SOL     OW55177   1.034   4.565   1.147 -0.1935  0.0417  0.1804
48800SOL    HW155178   1.078   4.516   1.078 -0.0332 -0.1693  0.4322
48800SOL    HW255179   1.079   4.650   1.148 -0.1286  0.0086  0.0955
48801SOL     OW55180   7.287  10.440   4.461 -0.2010 -0.0240  0.0962
48801SOL    HW155181   7.224  10.370   4.444 -0.4760  0.1051  0.5596
48801SOL    HW255182   7.289  10.491   4.381 -0.8585  0.1070  0.1577
48802SOL     OW55183   2.988   8.315   2.019 -0.3082  0.0537 -0.2250
48802SOL    HW155184   2.948   8.346   1.937  0.0784  0.0507 -0.4154
48802SOL    HW255185   3.021   8.394   2.061 -0.7277  0.0847  0.0503
48803SOL     OW55186   2.876   8.332   7.555 -0.5893 -0.0318 -0.2755
48803SOL    HW155187   2.887   8.356   7.463 -0.4270 -0.8371 -0.4731
48803SOL    HW255188   2.964   8.304   7.583 -0.7563 -0.3222 -0.0343
48804SOL     OW55189   4.132   0.818   7.213  0.0967  0.1340 -0.2119
48804SOL    HW155190   4.167   0.895   7.167  3.1259 -0.0137  1.5523
48804SOL    HW255191   4.089   0.767   7.146  3.0107  0.6237 -2.6679
48805SOL     OW55192   7.549   6.995   5.076  0.1029 -0.8164  0.6163
48805SOL    HW155193   7.596   6.999   4.992 -1.3943 -0.1082 -0.2406
48805SOL    HW255194   7.471   6.943   5.056 -1.2337  0.9197  1.0226
48806SOL     OW55195   8.523   8.651  11.874 -0.0758  0.5660  0.0890
48806SOL    HW155196   8.478   8.604  11.944 -0.0101 -0.6001 -0.6306
48806SOL    HW255197   8.606   8.604  11.863  0.1095  1.0167 -0.4692
48807SOL     OW55198   1.602  11.754   4.876  0.2103 -0.3797 -0.0697
48807SOL    HW155199   1.588  11.738   4.970  3.4373 -0.2841  0.5472
48807SOL    HW255200   1.648  11.837   4.873 -1.8262  0.7693 -2.0113
48808SOL     OW55201   3.162  11.943  12.412 -0.3691  0.3897  0.1746
48808SOL    HW155202   3.182  11.858  12.374 -2.0778  1.6171 -4.1167
48808SOL    HW255203   3.237  11.997  12.389  0.0810  0.4064  1.6315
48809SOL     OW55204   6.972   8.533   3.274  0.7295  0.5107 -0.7828
48809SOL    HW155205   6.974   8.629   3.270 -2.6389  0.7229 -0.1477
48809SOL    HW255206   6.904   8.508   3.212 -0.4866 -1.2121  1.1287
48810SOL     OW55207   0.915   8.226  11.538  0.2642 -0.1756  0.0821
48810SOL    HW155208   0.885   8.143  11.500  0.0632 -0.7433  1.4331
48810SOL    HW255209   0.843   8.252  11.596  0.0536  1.2796 -0.7850
48811SOL     OW55210   1.611   1.969   6.139 -0.3942 -0.2681  0.4317
48811SOL    HW155211   1.674   2.037   6.114  0.2836 -0.5466  1.3097
48811SOL    HW255212   1.666   1.893   6.161 -1.1274 -1.0339 -0.3206
48812SOL     OW55213   8.285   6.235  12.156  0.0305  0.2520  0.0871
48812SOL    HW155214   8.356   6.295  12.177  0.9311  0.1228 -2.3066
48812SOL    HW255215   8.247   6.268  12.075  0.7270 -2.4699 -1.4798
48813SOL     OW55216   5.105   2.123   2.580 -0.3100 -0.4034  0.0620
48813SOL    HW155217   5.099   2.189   2.650 -1.3201 -0.5926  0.1705
48813SOL    HW255218   5.047   2.156   2.512  0.8058 -0.1307 -0.7913
48814SOL     OW55219   1.036   3.498  10.278  0.1714 -0.1637 -0.0448
48814SOL    HW155220   1.045   3.419  10.331 -0.6282 -0.1501  0.1253
48814SOL    HW255221   0.969   3.476  10.213  2.0771 -0.6619 -1.9820
48815SOL     OW55222  11.245   5.785  10.089  0.0427  0.6275 -0.3311
48815SOL    HW155223  11.179   5.782  10.020  0.1592 -1.4639 -0.4232
48815SOL    HW255224  11.204   5.739  10.163  1.7795 -1.8252 -0.7976
48816SOL     OW55225   9.246   9.639  11.600  0.3416  0.3751  0.3443
48816SOL    HW155226   9.251   9.662  11.507 -2.1884 -0.2571 -0.0140
48816SOL    HW255227   9.258   9.544  11.601  1.7246  0.5414  0.8396
48817SOL     OW55228   3.763   0.520  12.581 -0.5430 -0.1780  0.1117
48817SOL    HW155229   3.815   0.560  12.512 -0.6441 -0.0715  0.0966
48817SOL    HW255230   3.673   0.547  12.562 -0.6658 -0.7341 -0.1214
48818SOL     OW55231   6.966   8.584   1.270 -0.3156  0.6728 -0.3396
48818SOL    HW155232   7.039   8.619   1.219 -0.9781 -0.5332 -2.2509
48818SOL    HW255233   6.906   8.658   1.279  0.3808  1.2295 -0.2272
48819SOL     OW55234   2.170   2.841   2.441  0.3859 -0.1200  0.2601
48819SOL    HW155235   2.151   2.785   2.517  1.4081  0.4180  0.9409
48819SOL    HW255236   2.217   2.916   2.478 -0.2773  0.8201 -0.7421
48820SOL     OW55237   8.297   2.030  12.098 -0.0527 -0.3970  0.2670
48820SOL    HW155238   8.313   2.109  12.047  0.1508 -0.7283 -0.1975
48820SOL    HW255239   8.327   1.959  12.041 -1.0326 -0.8735  0.3142
48821SOL     OW55240   5.194   1.526   0.867 -0.1726  0.0968 -0.1840
48821SOL    HW155241   5.199   1.432   0.848  1.3976  0.2286 -0.5963
48821SOL    HW255242   5.123   1.534   0.930 -1.8470 -1.0814 -1.8156
48822SOL     OW55243   1.280   4.368   9.434  0.0547 -0.0529  0.5326
48822SOL    HW155244   1.229   4.449   9.426 -0.4953 -0.3610  0.8261
48822SOL    HW255245   1.363   4.396   9.471 -0.5220  0.2487  1.6437
48823SOL     OW55246   0.195  12.227  12.262 -0.4370 -0.1664 -0.3776
48823SOL    HW155247   0.111  12.272  12.271  0.2594  1.2609 -0.7235
48823SOL    HW255248   0.256  12.279  12.314  0.3686 -0.8028 -0.6607
48824SOL     OW55249  11.702   2.909   8.560  0.4094  0.2890 -0.1714
48824SOL    HW155250  11.678   2.885   8.650 -0.9296 -3.7740 -1.3993
48824SOL    HW255251  11.796   2.888   8.554  1.0785  2.7423  0.7988
48825SOL     OW55252   5.454  10.370  11.677 -0.3969 -0.4373 -0.2479
48825SOL    HW155253   5.533  10.325  11.647  0.4567  1.3770 -0.8717
48825SOL    HW255254   5.484  10.426  11.749 -1.4946 -1.0510  0.7439
48826SOL     OW55255   3.570   4.452   3.536 -0.0333  0.1719  0.1690
48826SOL    HW155256   3.655   4.431   3.497  0.1614  0.9433  0.1578
48826SOL    HW255257   3.519   4.491   3.465 -1.2153 -2.2681 -0.4200
48827SOL     OW55258   4.807  10.876   2.882 -0.3348 -0.1737  0.1197
48827SOL    HW155259   4.902  10.880   2.894 -0.4125 -1.0107  1.1808
48827SOL    HW255260   4.796  10.830   2.798  0.1992 -0.2197  0.0716
48828SOL     OW55261   3.377   8.502   1.176 -0.3061  0.2661  0.2997
48828SOL    HW155262   3.432   8.452   1.236 -0.7518  0.6699  1.0534
48828SOL    HW255263   3.359   8.442   1.104  0.3356 -0.1842  0.5046
48829SOL     OW55264  12.572  12.509   2.315 -0.5861  0.0026 -0.2605
48829SOL    HW155265  12.519  12.584   2.344  1.5466  1.8826 -0.9079
48829SOL    HW255266  12.658  12.526   2.353  0.5943 -0.8293 -2.4398
48830SOL     OW55267  11.899   2.365   3.864 -0.0227 -0.3317  0.0273
48830SOL    HW155268  11.852   2.442   3.834 -0.2894 -0.5099 -0.0086
48830SOL    HW255269  11.972   2.400   3.916 -0.4438 -0.0717  0.4464
48831SOL     OW55270  11.717   9.771  12.142  0.3755 -0.2909  0.5038
48831SOL    HW155271  11.757   9.799  12.224  0.4569 -0.7040  0.6093
48831SOL    HW255272  11.788   9.770  12.079  0.9612 -2.7463  1.1000
48832SOL     OW55273   6.912  11.819   5.454 -0.3783 -0.0336  0.0725
48832SOL    HW155274   6.885  11.758   5.523 -0.3037  0.5581  0.6332
48832SOL    HW255275   6.877  11.903   5.481  1.4447  0.6409  0.5075
48833SOL     OW55276   5.431  10.032   5.805  0.2427 -0.3695  0.2544
48833SOL    HW155277   5.440   9.969   5.876 -0.4284 -0.3731  0.3380
48833SOL    HW255278   5.446  10.117   5.847  1.3008 -0.4658  0.1117
48834SOL     OW55279   9.380  12.416   5.425  0.0565 -0.4184 -0.5065
48834SOL    HW155280   9.449  12.456   5.372 -0.8861  1.0614 -0.6522
48834SOL    HW255281   9.404  12.437   5.515  0.5417 -1.1350 -0.4608
48835SOL     OW55282   3.875   5.466   9.395 -0.7533  0.8640  0.0499
48835SOL    HW155283   3.880   5.463   9.490 -0.0199  1.8539  0.0537
48835SOL    HW255284   3.953   5.419   9.365 -2.1217 -1.4883 -0.1315
48836SOL     OW55285   2.407   4.418  10.064  0.1250 -0.4076 -0.5751
48836SOL    HW155286   2.316   4.431  10.093  0.4824  0.9615 -0.0055
48836SOL    HW255287   2.399   4.397   9.971 -0.8408 -1.5427 -0.2694
48837SOL     OW55288   1.403  11.228   6.781  0.4591  0.4178  0.0028
48837SOL    HW155289   1.423  11.204   6.871  1.6545  0.6822 -0.1696
48837SOL    HW255290   1.413  11.147   6.731 -1.2670  0.0271  0.2394
48838SOL     OW55291   7.813   0.547   0.801 -0.2350 -0.1344  0.4475
48838SOL    HW155292   7.811   0.452   0.790 -1.3314 -0.3943  2.3092
48838SOL    HW255293   7.905   0.568   0.816  0.1037 -0.7929 -0.6059
48839SOL     OW55294   0.855  12.199  10.691  0.7578  0.2021  0.0771
48839SOL    HW155295   0.932  12.156  10.728 -0.0013  0.3587  1.9492
48839SOL    HW255296   0.784  12.137  10.704  0.5082  0.0994 -1.5508
48840SOL     OW55297  11.789   7.590  11.943 -0.3182 -0.4789  0.7140
48840SOL    HW155298  11.724   7.607  12.011  2.1340  0.3378  2.9624
48840SOL    HW255299  11.807   7.496  11.950  0.2219 -0.3200  1.4692
48841SOL     OW55300  11.049   0.696   5.368  0.4151  0.6958 -0.2203
48841SOL    HW155301  11.091   0.649   5.440  1.2266  0.4582 -0.8302
48841SOL    HW255302  11.110   0.688   5.295 -0.8882 -0.0752 -1.2937
48842SOL     OW55303   5.566   4.516  10.129  0.0876 -1.0510 -0.1559
48842SOL    HW155304   5.624   4.566  10.187 -1.8223  2.6409 -1.1231
48842SOL    HW255305   5.615   4.509  10.047 -0.2841  1.1582 -0.6459
48843SOL     OW55306  11.542   0.111  11.901  0.1196  0.2377  0.3385
48843SOL    HW155307  11.619   0.165  11.917  0.2101  0.3932 -0.5739
48843SOL    HW255308  11.561   0.066  11.819 -0.2774 -0.6043  0.6993
48844SOL     OW55309   6.041   9.802   6.218  0.0495 -0.5335  0.1887
48844SOL    HW155310   6.075   9.763   6.138 -1.0650 -0.7224 -0.2097
48844SOL    HW255311   6.020   9.727   6.274  0.4413 -0.4163  0.4939
48845SOL     OW55312   2.833   0.025   7.873 -0.2183 -0.0212  0.2794
48845SOL    HW155313   2.810   0.112   7.905 -1.1450 -0.2954  0.3690
48845SOL    HW255314   2.769   0.007   7.804  0.7269 -0.1256 -0.6037
48846SOL     OW55315   5.873   3.995   6.432 -0.6211 -0.7441  0.3321
48846SOL    HW155316   5.938   4.047   6.384  0.6052 -2.4501  0.0248
48846SOL    HW255317   5.893   4.011   6.524 -1.2714  0.4938  0.2792
48847SOL     OW55318   0.708   6.299   8.981 -0.2753 -0.3238  0.1381
48847SOL    HW155319   0.774   6.251   8.932 -0.3876 -0.2333 -0.1066
48847SOL    HW255320   0.639   6.317   8.917  0.2235  1.0535 -0.0502
48848SOL     OW55321   1.817   2.772  10.412  0.1870 -0.3759 -0.4291
48848SOL    HW155322   1.753   2.840  10.434 -0.0633 -0.7931  0.1530
48848SOL    HW255323   1.802   2.703  10.477  1.1851 -0.5080 -0.3226
48849SOL     OW55324   2.023   6.322   3.596  0.1432  0.1648  0.3550
48849SOL    HW155325   2.054   6.270   3.521  0.9232 -0.8939  1.3695
48849SOL    HW255326   1.948   6.370   3.562 -1.1990 -2.2957 -0.4330
48850SOL     OW55327   9.489   4.420   6.764 -0.0073 -1.0578 -0.1323
48850SOL    HW155328   9.424   4.351   6.771  0.2364 -1.2959 -0.2207
48850SOL    HW255329   9.519   4.415   6.673 -2.1687  1.1211 -1.1058
48851SOL     OW55330  11.547  11.151   9.338 -0.3936 -0.0837 -0.3050
48851SOL    HW155331  11.604  11.170   9.263  1.9435  1.2979  1.7005
48851SOL    HW255332  11.598  11.093   9.394 -0.8513  1.2853  1.6262
48852SOL     OW55333   7.779   7.581  12.340  0.6153  0.1460 -0.0001
48852SOL    HW155334   7.788   7.580  12.245  0.2726 -0.9989 -0.0364
48852SOL    HW255335   7.686   7.599  12.355  0.8087  1.0938  0.1501
48853SOL     OW55336   9.573   0.941   6.360 -0.3529 -0.3325  0.1286
48853SOL    HW155337   9.602   0.928   6.270 -1.6116 -1.2363 -0.1719
48853SOL    HW255338   9.544   0.855   6.388  0.2589 -0.1109  1.5054
48854SOL     OW55339  12.309   2.664   3.836  0.3393 -0.5042 -0.4003
48854SOL    HW155340  12.275   2.617   3.912  0.1742 -1.6908 -1.1727
48854SOL    HW255341  12.398   2.690   3.861  0.5302 -1.4784 -0.0265
48855SOL     OW55342   3.744   2.997   1.197  0.1152 -0.1462  0.1983
48855SOL    HW155343   3.708   2.993   1.285 -2.0260 -2.8836 -0.6643
48855SOL    HW255344   3.674   3.036   1.144  1.1047  0.8141 -0.4626
48856SOL     OW55345  12.492   2.557   4.985 -0.1831 -0.2821 -0.7166
48856SOL    HW155346  12.408   2.556   4.939 -0.0461  0.4067 -0.9918
48856SOL    HW255347  12.556   2.576   4.917  0.2325 -1.0688 -0.5531
48857SOL     OW55348   7.016  10.229   0.310 -0.1545 -0.1021 -0.1063
48857SOL    HW155349   6.961  10.224   0.388 -0.6417  1.7798 -0.2897
48857SOL    HW255350   6.968  10.286   0.249  1.6691  1.0870 -0.5154
48858SOL     OW55351  12.598   2.555  10.122  0.2008 -0.3537 -0.1664
48858SOL    HW155352  12.544   2.479  10.102  0.3583 -1.0262  1.7290
48858SOL    HW255353  12.688   2.523  10.117  0.3023 -0.0616 -0.2482
48859SOL     OW55354   3.635  11.448   1.702 -0.5294 -0.9144 -0.5919
48859SOL    HW155355   3.621  11.484   1.789  1.0914 -0.1343 -0.6240
48859SOL    HW255356   3.570  11.378   1.694 -0.7114 -0.9850  1.2206
48860SOL     OW55357   4.814   5.007  11.112  0.3840 -0.1926  0.2664
48860SOL    HW155358   4.724   5.030  11.137  0.4281  2.0496 -1.3895
48860SOL    HW255359   4.815   5.014  11.017  2.4305  0.3143  0.2949
48861SOL     OW55360   9.979   3.158   1.650  0.0706 -0.7545  0.0546
48861SOL    HW155361   9.970   3.168   1.744  0.0235 -0.7981  0.0549
48861SOL    HW255362  10.072   3.143   1.635 -0.2100 -3.0634  0.3054
48862SOL     OW55363   1.819   1.097   7.566 -0.0219 -0.0184 -0.1073
48862SOL    HW155364   1.838   1.188   7.589 -0.5521  0.4302 -1.3424
48862SOL    HW255365   1.868   1.082   7.485  0.4460 -0.9949  0.3412
48863SOL     OW55366   5.622  12.514   7.613  0.3861 -0.1400  0.0756
48863SOL    HW155367   5.528  12.508   7.596  0.5097 -1.0731 -0.3780
48863SOL    HW255368   5.630  12.574   7.688 -0.5045  0.5403 -0.3570
48864SOL     OW55369   5.931  10.597   3.792  0.2623 -0.2255 -0.1335
48864SOL    HW155370   6.016  10.634   3.815  1.9597 -2.4290 -2.3756
48864SOL    HW255371   5.927  10.602   3.696 -1.6602 -1.2045 -0.1582
48865SOL     OW55372   9.897   0.527   4.614  0.4264  0.0820  0.5637
48865SOL    HW155373   9.932   0.442   4.588 -1.5921 -0.6420 -0.0440
48865SOL    HW255374   9.875   0.517   4.707 -1.2408 -0.6618  0.1395
48866SOL     OW55375   9.001   9.127   6.470 -0.7426 -0.5431  0.2467
48866SOL    HW155376   9.096   9.132   6.478 -0.9129  1.3248  1.9005
48866SOL    HW255377   8.986   9.097   6.380  1.3735 -0.8060 -0.0799
48867SOL     OW55378   6.196  10.944   6.369 -0.4326  0.5596  0.4930
48867SOL    HW155379   6.149  10.885   6.311  0.0010 -0.4393  1.1404
48867SOL    HW255380   6.281  10.902   6.384  0.1989  1.7222  0.3488
48868SOL     OW55381   8.770   1.602   2.349  0.1414  0.2297  0.0510
48868SOL    HW155382   8.722   1.520   2.344  1.9188 -0.8018 -1.0769
48868SOL    HW255383   8.738   1.644   2.429  0.3740 -2.3128  1.5644
48869SOL     OW55384   4.604  12.240   3.406 -0.1206 -1.0265 -0.2774
48869SOL    HW155385   4.676  12.236   3.343 -0.3731 -1.0252 -0.5690
48869SOL    HW255386   4.526  12.255   3.352 -0.1344  0.6144  0.1648
48870SOL     OW55387   3.576   0.775   6.519 -0.5971  0.0448  0.7087
48870SOL    HW155388   3.590   0.681   6.509 -0.3346  0.1383  0.1900
48870SOL    HW255389   3.500   0.782   6.577 -1.9061 -0.5033 -0.8697
48871SOL     OW55390   1.169   2.801  11.096  0.6011  0.1248  0.5433
48871SOL    HW155391   1.102   2.857  11.056 -2.5708 -2.0919  2.2225
48871SOL    HW255392   1.252   2.843  11.076 -1.2854  3.2110 -1.5786
48872SOL     OW55393   3.645   8.186   2.230  0.7806 -0.1064 -0.2137
48872SOL    HW155394   3.696   8.260   2.263  0.1099  0.4688 -0.4257
48872SOL    HW255395   3.562   8.225   2.202  0.5884 -0.8737 -0.7513
48873SOL     OW55396   0.741   7.531   8.893 -0.4231 -0.2278  0.4028
48873SOL    HW155397   0.787   7.448   8.881  2.7216  1.5273 -0.8588
48873SOL    HW255398   0.760   7.556   8.984 -1.9166 -1.1304  0.9900
48874SOL     OW55399   6.212   9.877   9.183 -0.2898 -0.4312  0.1603
48874SOL    HW155400   6.154   9.921   9.121  1.4154 -1.0268 -2.0146
48874SOL    HW255401   6.188   9.784   9.178 -0.3889 -0.4373  0.6859
48875SOL     OW55402   3.391   5.319   1.812 -0.3502  0.5112  0.1254
48875SOL    HW155403   3.330   5.345   1.881  1.1637  0.6194  1.4893
48875SOL    HW255404   3.442   5.247   1.851 -1.7416 -1.8483 -2.1336
48876SOL     OW55405  10.005   5.731   0.123  0.3743 -0.2631  0.2252
48876SOL    HW155406   9.920   5.774   0.117  0.5681  0.0241 -0.5342
48876SOL    HW255407  10.050   5.775   0.195  0.9444  1.4897 -1.1302
48877SOL     OW55408   5.796   9.402   0.913  0.0926 -0.0194 -0.1101
48877SOL    HW155409   5.745   9.468   0.960  1.6599  0.6115  0.8080
48877SOL    HW255410   5.836   9.350   0.983 -1.3643 -2.2153 -0.8039
48878SOL     OW55411   8.496   2.922   0.361 -0.3066  0.5960 -0.2899
48878SOL    HW155412   8.576   2.955   0.403 -1.3594  0.4189  2.0159
48878SOL    HW255413   8.461   2.998   0.315 -0.2154  1.4428  0.9867
48879SOL     OW55414   5.510  11.603   8.382  0.6400 -0.5160  0.4827
48879SOL    HW155415   5.462  11.685   8.387  2.2768  0.4829  0.5300
48879SOL    HW255416   5.517  11.585   8.289 -1.0651 -1.4707  0.4987
48880SOL     OW55417   8.881   4.379   9.935  0.2630  0.4252 -0.1699
48880SOL    HW155418   8.937   4.304   9.955  1.3523  1.1318 -0.4345
48880SOL    HW255419   8.817   4.345   9.872 -0.0071 -0.5506  0.6053
48881SOL     OW55420  11.617   2.318   0.230  0.0846 -0.7240  0.1718
48881SOL    HW155421  11.582   2.232   0.253  3.0081 -1.9791  0.4858
48881SOL    HW255422  11.610   2.323   0.135  0.7803 -1.7978  0.0426
48882SOL     OW55423   0.618  11.447   6.899  0.0945 -0.0216  0.0368
48882SOL    HW155424   0.686  11.455   6.966 -0.6151 -2.1505  1.1090
48882SOL    HW255425   0.662  11.403   6.826  0.5770  1.2873 -0.4980
48883SOL     OW55426  11.562   6.431   1.730 -0.2399 -0.0141  0.1897
48883SOL    HW155427  11.512   6.513   1.736 -2.0062 -0.9737 -0.6543
48883SOL    HW255428  11.634   6.452   1.670  1.0889  1.6869  2.2434
48884SOL     OW55429   5.637  11.840  10.723 -0.1339 -0.8089 -0.4259
48884SOL    HW155430   5.642  11.769  10.786 -0.3283 -0.3606  0.0968
48884SOL    HW255431   5.685  11.913  10.764 -1.0381 -0.2197 -0.3945
48885SOL     OW55432   8.196  11.010  11.288 -0.5774  0.3084 -0.4459
48885SOL    HW155433   8.203  11.016  11.192 -0.0928  0.3346 -0.4081
48885SOL    HW255434   8.120  11.065  11.309 -0.1061  1.0918 -0.7299
48886SOL     OW55435   3.809   5.240   0.344 -0.6752  0.4019 -0.3545
48886SOL    HW155436   3.863   5.174   0.386  0.7181  2.0427  0.5363
48886SOL    HW255437   3.720   5.224   0.377 -0.2058 -0.4634  0.5177
48887SOL     OW55438   1.263   0.504   5.777  0.1103  0.4265 -0.0929
48887SOL    HW155439   1.168   0.496   5.787  0.1003 -0.2230 -0.6132
48887SOL    HW255440   1.281   0.597   5.792 -0.6150  0.5666 -0.0507
48888SOL     OW55441   0.149   3.659   2.031  0.0467 -0.2421  0.2490
48888SOL    HW155442   0.136   3.629   1.941  0.5021  0.1579  0.0448
48888SOL    HW255443   0.127   3.752   2.029 -0.3316 -0.3188  0.6434
48889SOL     OW55444  12.205   9.022   1.075 -0.5004 -0.6785  0.6126
48889SOL    HW155445  12.111   9.009   1.091 -0.4328 -0.0770  1.5937
48889SOL    HW255446  12.209   9.092   1.010 -0.7270 -0.8303  0.4321
48890SOL     OW55447  12.270   6.116   6.068  0.1490  0.1407 -0.4685
48890SOL    HW155448  12.296   6.030   6.099 -0.0714  0.1531 -0.2468
48890SOL    HW255449  12.181   6.128   6.102  0.8755  1.2702  1.1613
48891SOL     OW55450   4.262   6.732   8.853  0.3913  0.4908  0.3834
48891SOL    HW155451   4.175   6.748   8.889  1.2488  0.0168  2.8739
48891SOL    HW255452   4.269   6.636   8.851  0.6473  0.5230 -0.3485
48892SOL     OW55453   9.312   5.277   0.757  0.5365 -0.3758  0.6952
48892SOL    HW155454   9.308   5.184   0.737 -1.4529 -0.3144  0.6382
48892SOL    HW255455   9.238   5.293   0.815 -0.6989  1.5861 -1.2578
48893SOL     OW55456   9.471   3.519   7.689  0.5599  0.6098 -0.9338
48893SOL    HW155457   9.435   3.607   7.681 -0.4773  0.2148 -0.7664
48893SOL    HW255458   9.400   3.468   7.728  1.5598 -0.0375  0.0804
48894SOL     OW55459   0.728   4.699   2.610  0.2066 -0.2727  0.8662
48894SOL    HW155460   0.785   4.725   2.537 -0.7946  1.4408  0.6336
48894SOL    HW255461   0.694   4.781   2.644 -2.2693 -1.2143  0.8700
48895SOL     OW55462   1.594   5.425   0.845  0.1841 -0.5295  0.5861
48895SOL    HW155463   1.599   5.372   0.766  1.3631 -1.5089  1.2810
48895SOL    HW255464   1.570   5.512   0.814  2.4712 -0.4098 -1.0785
48896SOL     OW55465   8.261  10.986   4.703 -0.1036 -0.0715 -0.0470
48896SOL    HW155466   8.353  10.990   4.729 -0.4141  0.6409  1.0045
48896SOL    HW255467   8.215  11.037   4.770 -1.1761  0.2347 -0.9942
48897SOL     OW55468  12.254   5.807   2.362 -0.0870  0.6975 -0.6855
48897SOL    HW155469  12.346   5.780   2.358 -0.5666 -0.9242 -2.5674
48897SOL    HW255470  12.217   5.780   2.278 -2.6976 -0.2754  0.6440
48898SOL     OW55471   6.978   8.506  10.328  0.3874  0.4669  0.9783
48898SOL    HW155472   7.016   8.594  10.321 -0.0020  0.7250  1.8901
48898SOL    HW255473   6.995   8.465  10.244  1.8708  0.8998  1.0479
48899SOL     OW55474   6.927   4.205   5.473  0.2543 -0.2242 -0.0556
48899SOL    HW155475   6.915   4.116   5.505  0.0943 -0.2189 -0.0985
48899SOL    HW255476   6.852   4.220   5.416 -0.7535  0.6048  1.4268
48900SOL     OW55477   7.857   1.102   2.777  0.1332 -0.5743 -0.1079
48900SOL    HW155478   7.935   1.155   2.766 -1.1167  1.1121 -1.4279
48900SOL    HW255479   7.887   1.012   2.768  2.4130 -0.2284  2.7271
48901SOL     OW55480  11.765   6.442   0.048 -0.2121 -0.5028 -0.2597
48901SOL    HW155481  11.853   6.411   0.028 -0.6635 -1.1650 -1.3980
48901SOL    HW255482  11.727   6.461  -0.038 -0.8728  0.6595  0.2696
48902SOL     OW55483   3.603   0.574  10.936 -0.0933 -0.0550 -0.4291
48902SOL    HW155484   3.522   0.589  10.984 -0.0806 -0.6279 -0.2325
48902SOL    HW255485   3.603   0.643  10.869 -0.2381  0.5782  0.2133
48903SOL     OW55486  10.127   8.459   4.009 -0.3402  0.1546  0.0739
48903SOL    HW155487  10.220   8.481   4.007 -0.2856  0.1602  1.6038
48903SOL    HW255488  10.099   8.462   3.918  1.4792 -1.1963 -0.5848
48904SOL     OW55489   6.777   3.162   9.327  0.4768 -0.0633 -0.3570
48904SOL    HW155490   6.832   3.105   9.381  0.7768 -0.4939 -1.0972
48904SOL    HW255491   6.687   3.145   9.358  0.4530 -1.7045 -1.2279
48905SOL     OW55492   9.066   3.493   1.682 -0.0979 -0.3590 -0.5133
48905SOL    HW155493   9.035   3.545   1.756  0.1328 -0.3585 -0.4152
48905SOL    HW255494   9.123   3.427   1.722  0.0154 -0.3666 -0.6879
48906SOL     OW55495  10.280  10.128   1.389  0.1848  0.9647 -0.9418
48906SOL    HW155496  10.363  10.104   1.430 -0.7262  1.6749  1.5068
48906SOL    HW255497  10.285  10.223   1.378 -0.3825  1.0432 -0.5532
48907SOL     OW55498   4.381   9.176  11.298  0.2408 -0.3308 -0.0753
48907SOL    HW155499   4.323   9.237  11.343  1.8679  0.7986  0.5897
48907SOL    HW255500   4.342   9.165  11.211 -0.8058  0.5746  0.2555
48908SOL     OW55501   3.497   5.527   8.858 -0.3067  0.4132 -0.0537
48908SOL    HW155502   3.411   5.560   8.885 -1.4364 -1.2216 -1.4595
48908SOL    HW255503   3.508   5.445   8.907  0.0135  0.1412 -0.5693
48909SOL     OW55504   0.137   0.572   7.533  0.0697  0.4759  0.3482
48909SOL    HW155505   0.102   0.508   7.595 -0.2131  0.4266  0.1369
48909SOL    HW255506   0.072   0.576   7.463  0.7818 -0.0903 -0.3604
48910SOL     OW55507  11.748   7.378   0.916  0.1822  0.1270  0.2332
48910SOL    HW155508  11.666   7.426   0.916 -0.5022 -0.9984 -0.1203
48910SOL    HW255509  11.805   7.426   0.977 -0.6071  1.1217  0.1978
48911SOL     OW55510   7.085   4.911   9.222 -0.2211 -0.0551 -0.1344
48911SOL    HW155511   7.090   4.963   9.303 -0.9990  0.1003 -0.1795
48911SOL    HW255512   7.015   4.952   9.172  0.8478  0.4084 -1.3066
48912SOL     OW55513   8.310   5.787  12.263  0.2692  0.6813  0.2258
48912SOL    HW155514   8.332   5.701  12.229  1.4094  1.7140 -1.7882
48912SOL    HW255515   8.315   5.846  12.188 -0.3605  2.5545  1.5542
48913SOL     OW55516   2.971  11.138  10.789  0.6773  0.4324  0.3227
48913SOL    HW155517   2.999  11.223  10.755  0.6351  1.8633  3.5072
48913SOL    HW255518   2.878  11.149  10.809 -0.2977 -1.5963 -2.3731
48914SOL     OW55519   4.313   4.770   1.359  0.0971 -0.1595  1.0871
48914SOL    HW155520   4.308   4.862   1.385 -2.6929 -0.0376  0.4499
48914SOL    HW255521   4.360   4.770   1.276  1.0449  0.5327  1.6104
48915SOL     OW55522  10.355   6.747   5.270 -0.2998  0.1809 -0.2614
48915SOL    HW155523  10.440   6.783   5.298 -0.0740  0.0361 -0.7534
48915SOL    HW255524  10.330   6.687   5.341 -0.8145  1.4908  0.7023
48916SOL     OW55525   6.454   2.389   7.959  0.4784 -0.1127 -0.7224
48916SOL    HW155526   6.535   2.376   7.911  1.1859  1.9462 -0.1961
48916SOL    HW255527   6.475   2.365   8.050  0.7218  1.0586 -0.4571
48917SOL     OW55528   7.067   3.628   8.026  0.1922 -0.3276 -0.1428
48917SOL    HW155529   7.091   3.551   8.078 -1.1520 -3.0020 -3.1005
48917SOL    HW255530   7.151   3.664   7.998  0.8718 -0.2555  1.7971
48918SOL     OW55531   9.458  11.100  12.378  0.0941 -0.1225  0.0150
48918SOL    HW155532   9.480  11.057  12.461  1.2711 -1.3077 -0.8752
48918SOL    HW255533   9.467  11.193  12.397  2.2512 -0.4225  0.7517
48919SOL     OW55534   3.815   3.987   2.806 -0.4976  0.2803  0.5760
48919SOL    HW155535   3.792   4.013   2.895 -1.6081 -0.5200  0.5418
48919SOL    HW255536   3.768   4.049   2.750 -0.1328  0.5225  0.5331
48920SOL     OW55537   6.258   3.068   5.117  0.2307 -0.0446  0.2438
48920SOL    HW155538   6.348   3.072   5.150  0.4021 -2.4654  0.2339
48920SOL    HW255539   6.220   2.991   5.158 -1.5034  0.3075 -0.5963
48921SOL     OW55540   1.325   8.256   3.319  0.0726  0.0453 -0.1272
48921SOL    HW155541   1.371   8.334   3.350  1.1229 -0.3931 -0.5255
48921SOL    HW255542   1.234   8.283   3.309  0.0037  0.6216  1.7901
48922SOL     OW55543  10.387   2.543  12.148  0.1200 -0.1124  0.0898
48922SOL    HW155544  10.398   2.593  12.067 -0.1549 -0.9368 -0.4718
48922SOL    HW255545  10.305   2.495  12.135 -0.2520  0.2403  1.1206
48923SOL     OW55546  10.805   1.663   5.381 -0.4175  0.4127 -0.2352
48923SOL    HW155547  10.882   1.628   5.427 -1.3081  0.5202  1.4065
48923SOL    HW255548  10.763   1.720   5.445 -1.5561  0.8313 -1.3159
48924SOL     OW55549   9.724   2.131   0.500 -0.2015  0.8791 -0.1548
48924SOL    HW155550   9.762   2.045   0.518 -3.2493 -0.8760 -1.4229
48924SOL    HW255551   9.764   2.158   0.418  2.5379  1.9303  1.3696
48925SOL     OW55552  11.818   7.395   6.133  0.3396 -0.0094 -0.0337
48925SOL    HW155553  11.865   7.477   6.120 -0.2032  0.1086 -1.4222
48925SOL    HW255554  11.841   7.342   6.057 -0.9434 -0.3409 -0.2174
48926SOL     OW55555   3.844   3.159  11.987 -0.1177 -0.4202 -0.0996
48926SOL    HW155556   3.837   3.193  11.898  2.1254 -0.5581 -0.4049
48926SOL    HW255557   3.820   3.233  12.043  2.4616  1.1040 -0.8073
48927SOL     OW55558   3.131  11.045   1.570  0.0794 -0.1600 -0.9947
48927SOL    HW155559   3.064  11.067   1.635  0.9726 -0.9509  0.2614
48927SOL    HW255560   3.083  11.003   1.499 -0.6840 -2.0579  0.5251
48928SOL     OW55561   4.529   5.696  10.117  0.4936  0.0934  0.3623
48928SOL    HW155562   4.480   5.740  10.187  0.9263  0.3617  0.4964
48928SOL    HW255563   4.584   5.633  10.163  0.4127 -0.0785  0.2236
48929SOL     OW55564   3.943   2.721   1.296 -0.1883 -0.2638 -0.0007
48929SOL    HW155565   3.918   2.809   1.269 -1.1365 -0.7498 -0.7714
48929SOL    HW255566   3.916   2.665   1.223  0.6367 -1.1635  0.3638
48930SOL     OW55567  10.849   7.044   5.989 -0.0480  0.0385 -0.0557
48930SOL    HW155568  10.843   7.121   5.933  1.1128 -0.9936 -1.6841
48930SOL    HW255569  10.838   6.970   5.929  2.5000 -1.1538  0.7873
48931SOL     OW55570   7.361   5.524   3.169  0.1028  0.4671  0.0617
48931SOL    HW155571   7.413   5.456   3.212  1.5282  0.5693 -1.4197
48931SOL    HW255572   7.390   5.606   3.210 -1.4659  0.3008  1.6964
48932SOL     OW55573   8.419  11.173   2.595 -0.3639  0.6368  0.1391
48932SOL    HW155574   8.439  11.186   2.502 -0.4628 -0.9640 -0.1349
48932SOL    HW255575   8.370  11.251   2.621  0.3702  1.4828 -0.9318
48933SOL     OW55576   0.014   1.833   2.016 -0.4157  0.2863 -0.6964
48933SOL    HW155577   0.005   1.870   1.929 -1.5346  2.2691  0.1715
48933SOL    HW255578   0.090   1.776   2.012  0.2036  1.2009 -2.6651
48934SOL     OW55579   9.796   9.676   7.031  0.0531 -0.4327  0.2921
48934SOL    HW155580   9.813   9.646   6.942  0.9901  1.3484 -0.1551
48934SOL    HW255581   9.790   9.595   7.082  2.2431 -1.4104 -0.8889
48935SOL     OW55582   4.852   1.274   6.399  0.3894 -0.3235 -0.0868
48935SOL    HW155583   4.936   1.232   6.418  0.4981  0.1182  0.4579
48935SOL    HW255584   4.807   1.275   6.484 -0.4003 -1.0476 -0.4781
48936SOL     OW55585  11.009   8.225   6.143  0.1053  0.1076  0.1625
48936SOL    HW155586  11.036   8.277   6.219  1.9498 -1.6629  0.8015
48936SOL    HW255587  11.025   8.135   6.169 -0.5454 -0.6288 -1.8497
48937SOL     OW55588   3.497  11.843   8.225 -0.2204  0.0668 -0.3001
48937SOL    HW155589   3.472  11.934   8.241 -0.4058 -0.0730  0.2609
48937SOL    HW255590   3.414  11.796   8.219 -0.1490 -0.4561  1.9187
48938SOL     OW55591   1.020  11.627   6.248  0.3165  0.7592 -0.3981
48938SOL    HW155592   0.990  11.713   6.278  0.4656  0.6687  0.0197
48938SOL    HW255593   1.074  11.594   6.320 -0.7312 -0.2115 -0.0311
48939SOL     OW55594  10.280  12.122   6.037 -0.1344  0.4422 -0.3254
48939SOL    HW155595  10.334  12.140   6.114 -1.9978 -1.0978  1.4964
48939SOL    HW255596  10.282  12.027   6.028 -1.5232  0.4337 -0.9171
48940SOL     OW55597   9.495   8.228   9.627  0.4909 -0.8760 -0.3203
48940SOL    HW155598   9.508   8.225   9.532 -1.6014 -0.4972 -0.6747
48940SOL    HW255599   9.406   8.264   9.637  1.7551  2.0303  1.8605
48941SOL     OW55600  10.335   1.652   2.763  0.3310 -0.1712 -0.0895
48941SOL    HW155601  10.293   1.604   2.692 -0.8854 -0.2371  0.6409
48941SOL    HW255602  10.396   1.590   2.803 -0.7049 -0.9059  0.3909
48942SOL     OW55603  11.187   9.143   5.006  0.0237 -0.5170 -0.3391
48942SOL    HW155604  11.146   9.227   5.027 -1.3531 -1.1774 -0.2709
48942SOL    HW255605  11.132   9.078   5.050 -0.2778 -1.6112 -2.2452
48943SOL     OW55606   1.551  11.842   1.422  0.5312 -0.0700  0.0665
48943SOL    HW155607   1.485  11.806   1.363 -0.6450  1.0979  0.6087
48943SOL    HW255608   1.573  11.927   1.383 -0.2857  0.7277  1.2650
48944SOL     OW55609  12.396   6.389   1.403 -0.4179  0.1027  0.2467
48944SOL    HW155610  12.420   6.308   1.448  1.1810  0.9154  0.9215
48944SOL    HW255611  12.317   6.366   1.354 -1.5719 -1.1274  2.5426
48945SOL     OW55612   6.258   5.127  11.133 -0.4215  0.4367  0.0602
48945SOL    HW155613   6.219   5.168  11.056 -1.3406  0.9960  0.8054
48945SOL    HW255614   6.222   5.176  11.207  1.3129  0.6528  0.8067
48946SOL     OW55615   7.384   7.579   3.479  0.1827 -0.3958  0.1057
48946SOL    HW155616   7.438   7.516   3.431 -0.1766  0.0125 -0.8691
48946SOL    HW255617   7.379   7.544   3.568  1.2306 -0.9469 -0.0359
48947SOL     OW55618   4.432  11.234  12.601 -0.0582 -0.3038  0.1903
48947SOL    HW155619   4.367  11.234  12.531  2.1383  0.5013 -2.0457
48947SOL    HW255620   4.498  11.171  12.572  1.9772  1.5913  0.3663
48948SOL     OW55621   9.598   7.151   3.585 -0.4047  0.4087 -0.1963
48948SOL    HW155622   9.617   7.112   3.670  1.9077  1.6737 -0.0552
48948SOL    HW255623   9.667   7.216   3.572 -1.6970  1.4874 -2.2743
48949SOL     OW55624  11.176   0.510   4.970 -0.0435 -0.2155  0.0964
48949SOL    HW155625  11.254   0.558   4.941 -0.1804  0.6075  1.0428
48949SOL    HW255626  11.104   0.549   4.920 -0.0285 -0.0747  0.1846
48950SOL     OW55627   0.929   8.734   4.585  0.0347 -0.3190  0.0554
48950SOL    HW155628   0.876   8.740   4.665 -0.1497 -0.1390 -0.0796
48950SOL    HW255629   0.975   8.651   4.593  0.5343  0.0089  0.6761
48951SOL     OW55630   0.036  10.062   2.369  0.0548 -0.4169  0.0771
48951SOL    HW155631   0.041  10.007   2.290 -1.7030  2.2867 -2.1021
48951SOL    HW255632  -0.046  10.035   2.412 -1.3753  1.0562 -1.5706
48952SOL     OW55633   4.687   4.913  11.508  0.1327  1.3032 -0.5834
48952SOL    HW155634   4.779   4.896  11.487 -0.2467  0.1123 -1.4197
48952SOL    HW255635   4.640   4.894  11.427 -1.1465 -1.1039  0.6114
48953SOL     OW55636  12.463   8.183   2.335  0.2423 -0.3612 -0.1068
48953SOL    HW155637  12.406   8.257   2.355 -1.7417 -2.0826  1.0243
48953SOL    HW255638  12.522   8.215   2.267 -0.3304  2.3186  0.5606
48954SOL     OW55639   5.218   1.921   1.402 -0.0485  0.2763 -0.3837
48954SOL    HW155640   5.247   1.865   1.331 -0.3589  0.9114 -1.0204
48954SOL    HW255641   5.292   1.925   1.462  0.4661  0.2933 -1.0186
48955SOL     OW55642   9.422   9.895   0.064 -0.2399 -0.3192 -0.3091
48955SOL    HW155643   9.425   9.829  -0.005 -2.3217 -0.7733 -0.0461
48955SOL    HW255644   9.428   9.978   0.019 -1.1604 -0.6237 -1.0244
48956SOL     OW55645  10.439  11.661  12.204  0.2273  0.2723 -0.1420
48956SOL    HW155646  10.515  11.657  12.146 -0.9092 -0.7198 -1.6463
48956SOL    HW255647  10.397  11.745  12.182 -0.0785  0.0014 -0.6107
48957SOL     OW55648   3.636   2.248   5.217 -0.6644  0.0883 -0.1332
48957SOL    HW155649   3.697   2.214   5.151  1.3159  1.8130  0.6999
48957SOL    HW255650   3.640   2.183   5.288 -0.7868 -0.4415 -0.5992
48958SOL     OW55651   7.022   5.611   8.650  0.0632 -0.5218  0.2302
48958SOL    HW155652   7.056   5.559   8.724  1.2697 -1.5117 -0.9699
48958SOL    HW255653   7.098   5.662   8.621 -0.9473  1.4771  0.9746
48959SOL     OW55654   1.574   9.562   1.596  0.3047 -0.0192  0.3501
48959SOL    HW155655   1.609   9.500   1.660  0.6757 -1.1388 -0.8819
48959SOL    HW255656   1.562   9.643   1.645  1.2017 -0.6462  1.6720
48960SOL     OW55657  11.997   2.310  11.782 -0.7653  0.2369  0.4935
48960SOL    HW155658  11.947   2.383  11.818 -1.6501  1.1469 -2.2848
48960SOL    HW255659  12.067   2.352  11.731 -1.2743 -0.8082 -1.1387
48961SOL     OW55660   5.149  12.524   1.586 -0.2901 -0.2589 -0.4196
48961SOL    HW155661   5.219  12.590   1.580  1.6927 -2.3683 -2.7274
48961SOL    HW255662   5.070  12.576   1.603  1.7004  2.2560  2.3029
48962SOL     OW55663   5.120   3.320  10.562 -0.4726 -0.1889 -0.1562
48962SOL    HW155664   5.049   3.335  10.624  0.1620 -0.4575  0.6474
48962SOL    HW255665   5.106   3.230  10.531 -1.6806  0.4477 -1.5994
48963SOL     OW55666  10.056  12.571  10.660 -0.1439 -0.5784 -0.3584
48963SOL    HW155667  10.112  12.496  10.677  0.1685 -0.0616  1.0624
48963SOL    HW255668  10.116  12.646  10.659 -0.6071 -0.2045 -0.4104
48964SOL     OW55669   6.256   7.158   4.238 -0.1587 -0.3756  0.0612
48964SOL    HW155670   6.165   7.184   4.225 -0.5368 -1.5221  0.2280
48964SOL    HW255671   6.280   7.114   4.156 -0.8947 -3.0807  1.1839
48965SOL     OW55672   0.901  11.721   4.784  0.4399 -0.3954 -0.0065
48965SOL    HW155673   0.886  11.667   4.861 -0.1481 -1.5689 -0.9006
48965SOL    HW255674   0.954  11.795   4.815 -1.7704  0.4653  1.9866
48966SOL     OW55675   0.359   5.172   2.291 -0.4752 -0.7369  0.2438
48966SOL    HW155676   0.392   5.107   2.353  0.0950 -0.6431  0.0479
48966SOL    HW255677   0.387   5.256   2.328  0.3823 -0.7129 -0.4291
48967SOL     OW55678   1.730   1.642   9.681 -0.1939  0.6641 -0.2754
48967SOL    HW155679   1.733   1.727   9.637  1.3748  0.4772 -0.5998
48967SOL    HW255680   1.778   1.657   9.763 -1.3151  0.4879  0.4254
48968SOL     OW55681   9.969  12.488  11.513 -0.0799 -0.3632 -0.3086
48968SOL    HW155682  10.004  12.405  11.547  0.3861 -0.1429 -0.2369
48968SOL    HW255683   9.914  12.462  11.439  0.1815 -0.7315 -0.3789
48969SOL     OW55684  10.101   4.454   7.920  0.2663  0.3241  0.2521
48969SOL    HW155685  10.077   4.546   7.931  1.1252  0.4317  1.5379
48969SOL    HW255686  10.023   4.405   7.947 -0.7821  0.6402 -2.0216
48970SOL     OW55687   5.443   3.207   2.618  0.5577 -0.1963 -0.2719
48970SOL    HW155688   5.452   3.115   2.640  2.4051  0.4812  2.2316
48970SOL    HW255689   5.370   3.210   2.556  0.8242 -3.3569 -0.8745
48971SOL     OW55690   8.440  11.285   9.273  0.6083  0.6535 -0.1962
48971SOL    HW155691   8.385  11.298   9.351  1.8193  1.3769  0.5674
48971SOL    HW255692   8.378  11.287   9.200 -0.5097  0.4024  0.7067
48972SOL     OW55693   7.816  10.448   3.457 -0.2118  0.3497 -0.1340
48972SOL    HW155694   7.824  10.423   3.365  1.7011 -0.1072  0.1293
48972SOL    HW255695   7.796  10.366   3.502  0.4430  0.2869  0.0459
48973SOL     OW55696  11.217   8.775   3.497  0.2269  0.1456 -0.0139
48973SOL    HW155697  11.123   8.765   3.508  0.2052 -0.5614 -0.7705
48973SOL    HW255698  11.251   8.685   3.498  1.1893  0.4429  2.6631
48974SOL     OW55699   1.343   5.604   4.146  0.3779  0.1498  0.1330
48974SOL    HW155700   1.407   5.600   4.076 -0.7134 -1.0027 -0.8530
48974SOL    HW255701   1.320   5.512   4.163  1.0481  0.3479  2.4343
48975SOL     OW55702   6.216   2.841   5.296  0.2781 -0.2323 -0.6451
48975SOL    HW155703   6.254   2.853   5.383 -0.9111  0.9053 -0.2582
48975SOL    HW255704   6.133   2.795   5.312 -0.3914  0.8005 -1.0694
48976SOL     OW55705   7.524  10.345   7.674 -0.5171 -0.2755  0.0724
48976SOL    HW155706   7.589  10.323   7.741 -0.4322  1.0137  0.4402
48976SOL    HW255707   7.444  10.363   7.723 -1.3643 -2.4312 -0.4132
48977SOL     OW55708  10.100   9.606   2.850  0.2303  0.0694 -0.2514
48977SOL    HW155709  10.165   9.553   2.804  1.9802  2.0367 -0.1723
48977SOL    HW255710  10.103   9.574   2.940  1.8026  0.7431 -0.0419
48978SOL     OW55711   6.835  12.114  10.045  0.1977 -0.3199  0.0544
48978SOL    HW155712   6.903  12.077  10.102  0.7929  0.2094 -0.2984
48978SOL    HW255713   6.883  12.167   9.982 -0.5477  0.0219 -0.2358
48979SOL     OW55714   5.680   5.809   6.836  0.3618 -0.4664  0.2577
48979SOL    HW155715   5.722   5.895   6.838 -1.3596  0.4288 -0.2144
48979SOL    HW255716   5.749   5.748   6.862  0.9174  1.3110  3.4761
48980SOL     OW55717   1.099   8.977   6.947  0.4672  0.0934 -0.2532
48980SOL    HW155718   1.025   8.940   6.994  1.3671 -2.4817 -0.7235
48980SOL    HW255719   1.172   8.969   7.009  0.6042  1.6480 -0.1743
48981SOL     OW55720   5.692   2.104   4.868  0.2014  0.6248  0.4498
48981SOL    HW155721   5.656   2.164   4.803  0.2982 -1.6778 -1.8839
48981SOL    HW255722   5.619   2.087   4.928 -0.4707  1.3561 -0.1414
48982SOL     OW55723   8.372  12.036   2.996 -0.4582  0.4058 -0.4045
48982SOL    HW155724   8.395  11.943   3.002 -0.5207  0.3875 -0.4495
48982SOL    HW255725   8.279  12.039   3.015 -0.0269  0.7208  1.9408
48983SOL     OW55726  11.260   4.907   6.638  0.3366 -0.2302 -0.1423
48983SOL    HW155727  11.338   4.864   6.602 -0.3926 -1.5467 -0.2299
48983SOL    HW255728  11.190   4.883   6.577 -0.0803  1.2909 -0.3089
48984SOL     OW55729   3.799   1.682   8.019  0.0366  0.3297  0.1281
48984SOL    HW155730   3.722   1.670   7.962 -1.1274  1.9616  1.2536
48984SOL    HW255731   3.872   1.693   7.958 -1.3224  3.0996 -1.2154
48985SOL     OW55732   2.341   7.984   1.513  0.1302  0.0492  0.2855
48985SOL    HW155733   2.289   7.934   1.450 -0.9633  0.4372  0.8522
48985SOL    HW255734   2.339   7.931   1.593  0.6783  0.0367  0.2962
48986SOL     OW55735   4.523   6.236   2.840  0.3296 -0.1502 -0.7455
48986SOL    HW155736   4.559   6.148   2.832  2.8049  0.8312 -1.2724
48986SOL    HW255737   4.581   6.280   2.902 -2.4454  0.4087  1.7174
48987SOL     OW55738   9.813   8.893   7.295  0.6970  0.2024  0.4759
48987SOL    HW155739   9.875   8.910   7.224 -1.1760  2.4611 -0.7521
48987SOL    HW255740   9.751   8.831   7.258 -1.3121  2.7067 -0.6725
48988SOL     OW55741   8.936  11.190   3.472 -0.7725 -0.1068 -0.3960
48988SOL    HW155742   8.918  11.175   3.379 -0.2553 -0.2721 -0.4687
48988SOL    HW255743   9.022  11.232   3.473  0.1466 -1.9180  0.1251
48989SOL     OW55744   5.889   3.777   4.960 -0.0875  0.3741 -0.4382
48989SOL    HW155745   5.979   3.799   4.984  0.2440 -0.7983 -0.5701
48989SOL    HW255746   5.847   3.862   4.946  0.8618  0.9490  0.0905
48990SOL     OW55747   1.381   2.846   4.921  0.2386  0.2870  0.2137
48990SOL    HW155748   1.330   2.926   4.930  0.3039  0.2689  0.7797
48990SOL    HW255749   1.467   2.876   4.891  0.9161  0.6528  2.3860
48991SOL     OW55750   1.337   6.984   4.766 -0.5107 -0.7868  0.5433
48991SOL    HW155751   1.273   6.936   4.819 -0.0029 -0.6701  1.2842
48991SOL    HW255752   1.421   6.947   4.791 -0.0918  0.5226  1.2122
48992SOL     OW55753   2.014  11.473   8.833  0.1776 -0.5557 -0.0632
48992SOL    HW155754   1.982  11.391   8.871  0.3648 -0.0508  1.2255
48992SOL    HW255755   2.052  11.521   8.906  0.2930  0.5896 -0.8360
48993SOL     OW55756   8.077   1.425   9.351 -0.0115 -0.1125  0.3859
48993SOL    HW155757   8.144   1.491   9.329  0.2384 -0.1909  0.9055
48993SOL    HW255758   8.041   1.400   9.266 -0.2956  0.8813  0.1910
48994SOL     OW55759   8.181  12.234   4.157 -0.5113 -0.1807 -0.0025
48994SOL    HW155760   8.162  12.189   4.074 -1.0254  0.5545 -0.3003
48994SOL    HW255761   8.274  12.221   4.171  0.0795  1.6300 -1.8954
48995SOL     OW55762   2.654   0.904   2.161  0.2530 -0.0598  0.7708
48995SOL    HW155763   2.627   0.994   2.178 -1.0747 -0.5115  1.1798
48995SOL    HW255764   2.749   0.906   2.169  0.3547  1.5364 -0.3825
48996SOL     OW55765  10.308   1.759   3.502  0.3323  0.9436 -0.1746
48996SOL    HW155766  10.373   1.817   3.464 -0.1311  1.4455 -0.2054
48996SOL    HW255767  10.356   1.710   3.569  0.8111  1.0887 -0.4122
48997SOL     OW55768  11.898   7.932  10.141  0.6924  0.4057  0.0623
48997SOL    HW155769  11.965   7.945  10.208 -1.4477  1.8733  2.1028
48997SOL    HW255770  11.907   8.009  10.084  3.2912 -1.4193 -2.2552
48998SOL     OW55771   9.574   9.262   3.932  0.2646 -0.4289  0.2401
48998SOL    HW155772   9.641   9.248   3.865 -0.3728 -2.7700  0.0134
48998SOL    HW255773   9.505   9.312   3.887  0.9107  0.1545 -0.1167
48999SOL     OW55774   8.278   2.432   3.025 -0.2591  1.0272 -0.1504
48999SOL    HW155775   8.217   2.380   2.973 -0.2805 -0.1723  1.0248
48999SOL    HW255776   8.347   2.457   2.964 -0.0140 -0.7750 -0.6742
49000SOL     OW55777   6.381   8.826  10.738 -0.7035  0.0091 -0.2791
49000SOL    HW155778   6.457   8.868  10.698  0.4282  0.7898  2.4244
49000SOL    HW255779   6.405   8.734  10.746  0.3957  0.3883  1.3069
49001SOL     OW55780  10.231   2.158   8.675  0.1277 -0.1222  0.4913
49001SOL    HW155781  10.193   2.084   8.723  2.2085 -1.1174  0.7095
49001SOL    HW255782  10.303   2.120   8.625 -0.0163  1.4431 -1.0094
49002SOL     OW55783   2.181   8.979   3.659 -0.2393  0.0300  0.4615
49002SOL    HW155784   2.232   9.039   3.603 -0.3829  0.3982  0.7199
49002SOL    HW255785   2.155   8.908   3.600 -0.0585  0.2174  0.1494
49003SOL     OW55786   4.116  11.498   6.411  0.5352  0.2251 -0.2214
49003SOL    HW155787   4.159  11.567   6.359  1.0332 -0.7377 -1.1217
49003SOL    HW255788   4.176  11.424   6.406 -0.2585 -0.4615  0.2615
49004SOL     OW55789   5.978   8.624   0.095  0.5284 -0.0044  0.0516
49004SOL    HW155790   6.060   8.653   0.133  0.0617  2.5022 -0.6379
49004SOL    HW255791   6.001   8.596   0.006  0.4543  2.6471 -0.8861
49005SOL     OW55792   5.813   2.041   4.351 -0.2467  0.4536 -0.6406
49005SOL    HW155793   5.740   2.098   4.375  0.2575  1.3614 -1.2020
49005SOL    HW255794   5.834   2.066   4.261  1.3289  0.8570 -0.1906
49006SOL     OW55795   1.050  11.187   7.673  0.1412 -0.4483 -0.3963
49006SOL    HW155796   1.005  11.270   7.659  0.6016  0.1069  1.1712
49006SOL    HW255797   1.089  11.166   7.589 -0.5528  0.5744 -0.9921
49007SOL     OW55798   2.585   0.367   3.223  0.4300 -0.1645  0.0613
49007SOL    HW155799   2.502   0.408   3.246 -0.0756 -1.2340  0.1662
49007SOL    HW255800   2.576   0.344   3.131 -0.3729 -2.4785  0.6395
49008SOL     OW55801   1.762   7.593   2.979  0.4923  0.0716  0.1486
49008SOL    HW155802   1.707   7.608   3.056  1.9609  1.3380  0.9956
49008SOL    HW255803   1.763   7.497   2.969 -1.0731 -0.0251  0.6499
49009SOL     OW55804   6.307   5.995   3.293  0.3350  0.0781  0.3171
49009SOL    HW155805   6.397   5.975   3.317  0.8383  2.3144  0.5569
49009SOL    HW255806   6.269   6.034   3.372 -1.4557 -2.4170  0.8007
49010SOL     OW55807   8.083   3.262   3.376  0.4016  0.3673  0.3644
49010SOL    HW155808   8.112   3.247   3.466 -0.4963  0.5256  0.6975
49010SOL    HW255809   8.097   3.355   3.361  1.3190  0.1894  0.0403
49011SOL     OW55810   4.887   5.911   3.881 -0.2042  0.0602  0.5011
49011SOL    HW155811   4.912   5.996   3.846  0.1326 -1.0384 -2.1732
49011SOL    HW255812   4.792   5.907   3.869 -0.2873  0.2672  1.1050
49012SOL     OW55813  10.566   5.928   1.546 -0.4318 -0.1681 -1.1046
49012SOL    HW155814  10.606   5.849   1.583  1.3374  0.1182 -2.3038
49012SOL    HW255815  10.476   5.925   1.578 -0.1654 -2.1671 -0.3419
49013SOL     OW55816   3.822  11.962   2.391  0.1640  0.5585  0.3154
49013SOL    HW155817   3.783  11.906   2.458 -0.4987  1.2353  0.5229
49013SOL    HW255818   3.916  11.959   2.408  0.0435  0.3325  0.9707
49014SOL     OW55819   3.828   3.786   9.385 -0.3449 -0.1779  0.5867
49014SOL    HW155820   3.758   3.851   9.384 -0.1341  0.0519 -0.3527
49014SOL    HW255821   3.789   3.708   9.344 -0.1078 -0.1089  0.2290
49015SOL     OW55822  10.131   6.925   5.234 -0.0273 -0.1487  0.1112
49015SOL    HW155823  10.155   6.918   5.141  0.2505 -2.0626  0.2929
49015SOL    HW255824  10.192   6.868   5.279 -1.4260 -0.7955  1.2453
49016SOL     OW55825  11.876   0.783   4.619  0.2190 -0.4485  0.1249
49016SOL    HW155826  11.920   0.804   4.536 -1.8414  1.1770 -0.6318
49016SOL    HW255827  11.928   0.830   4.685  1.0722 -0.6276 -0.3954
49017SOL     OW55828   3.891   8.008   4.988 -0.6579 -0.6200 -0.4564
49017SOL    HW155829   3.875   7.925   4.943 -1.0950 -1.0204  0.4022
49017SOL    HW255830   3.823   8.012   5.056  0.5152 -0.4940  0.7662
49018SOL     OW55831   9.414   6.608   5.894 -0.0843 -0.0375 -0.4812
49018SOL    HW155832   9.446   6.522   5.921 -2.8081 -1.1324 -0.4026
49018SOL    HW255833   9.426   6.664   5.971  0.0095 -0.8616  0.1124
49019SOL     OW55834   2.283   4.130   9.699 -0.4791  0.2727  0.1143
49019SOL    HW155835   2.274   4.045   9.655 -1.7913  0.6167 -0.3130
49019SOL    HW255836   2.254   4.194   9.634 -1.0309  0.9200  0.9769
49020SOL     OW55837   3.806   0.161   2.884 -0.0229 -0.1183 -0.3397
49020SOL    HW155838   3.790   0.067   2.874  1.0635 -0.3650  0.0328
49020SOL    HW255839   3.901   0.167   2.893 -0.0929  1.0168 -0.2914
49021SOL     OW55840   6.764   1.353   4.261 -0.3136 -0.4188 -0.4227
49021SOL    HW155841   6.822   1.329   4.188 -0.2896 -0.5898 -0.3484
49021SOL    HW255842   6.678   1.321   4.234 -0.3266 -0.3833 -0.4240
49022SOL     OW55843  10.139  10.696   0.232  0.6058  0.4567  0.4707
49022SOL    HW155844  10.133  10.659   0.320 -0.9830  2.1985  1.1458
49022SOL    HW255845  10.204  10.765   0.239  0.9313  0.1939  0.1064
49023SOL     OW55846  12.171   1.953   2.506  0.4346 -0.0367 -0.1568
49023SOL    HW155847  12.206   1.873   2.546  0.1688 -1.4798 -2.6339
49023SOL    HW255848  12.247   2.010   2.497  0.8779 -0.5016  0.4804
49024SOL     OW55849   8.268   7.159   4.605  0.2134  0.2680  0.2921
49024SOL    HW155850   8.344   7.214   4.588  0.5316 -0.4461 -0.6323
49024SOL    HW255851   8.194   7.220   4.605  0.4246  0.5837 -1.7723
49025SOL     OW55852   8.910   6.345  11.878  0.0471 -0.1566  0.7614
49025SOL    HW155853   8.969   6.421  11.886  1.4550 -0.8605 -1.7577
49025SOL    HW255854   8.925   6.294  11.958 -0.0864  1.6017  1.9700
49026SOL     OW55855   1.005   6.643  12.589  0.5600  0.2530  0.5061
49026SOL    HW155856   1.094   6.673  12.603  1.3402 -1.2218 -1.0144
49026SOL    HW255857   0.955   6.681  12.662  1.7638  3.6571 -0.2911
49027SOL     OW55858   3.075   9.122  11.471  0.0003 -0.1594 -0.0176
49027SOL    HW155859   3.034   9.062  11.533 -0.9775  0.3538 -0.1557
49027SOL    HW255860   3.054   9.209  11.505  2.8670  0.2071  1.1894
49028SOL     OW55861   6.221   1.924  10.603  0.7329  0.5905  0.4875
49028SOL    HW155862   6.137   1.909  10.559  0.8537  0.5195  0.2776
49028SOL    HW255863   6.197   1.962  10.688  0.4190 -0.8965  1.0938
49029SOL     OW55864   8.695   0.822   1.222  0.2392  0.4076 -0.0027
49029SOL    HW155865   8.732   0.768   1.292 -0.0419  0.6278  0.3231
49029SOL    HW255866   8.678   0.760   1.151  0.3307  0.1419  0.2020
49030SOL     OW55867   2.318   0.548   3.460 -0.1200 -0.3531 -0.5752
49030SOL    HW155868   2.323   0.625   3.403  2.1142  0.0550  0.0596
49030SOL    HW255869   2.358   0.577   3.542 -2.0666 -1.3198  0.7790
49031SOL     OW55870  11.643   3.636   1.570 -0.0486  0.0171 -0.5879
49031SOL    HW155871  11.688   3.553   1.553 -0.4122 -0.4411  0.5890
49031SOL    HW255872  11.684   3.698   1.510  1.1021 -0.7297 -0.6057
49032SOL     OW55873   2.528   4.383   3.841  0.3816 -0.0228 -0.1830
49032SOL    HW155874   2.513   4.372   3.935 -1.7558  3.2361  0.0204
49032SOL    HW255875   2.613   4.427   3.836  0.5878 -0.3694  0.1909
49033SOL     OW55876   0.720   6.042   2.434 -0.2516 -0.0656 -1.0583
49033SOL    HW155877   0.740   6.108   2.500 -2.0689 -1.3590  0.9129
49033SOL    HW255878   0.643   6.075   2.389 -0.0793 -0.0074 -1.3100
49034SOL     OW55879  12.609   4.410  10.944 -0.1472 -0.3587  0.2281
49034SOL    HW155880  12.607   4.318  10.918  1.1945 -0.1811 -0.5815
49034SOL    HW255881  12.666   4.411  11.022  0.1190 -0.1751  0.0318
49035SOL     OW55882   2.733  10.152  11.681 -0.8744 -0.0095 -0.0631
49035SOL    HW155883   2.704  10.204  11.755 -0.1585  1.6810 -0.9287
49035SOL    HW255884   2.670  10.172  11.611 -1.8340 -1.9519  0.1511
49036SOL     OW55885   3.388  12.457   1.249  0.0710  0.2396  0.7459
49036SOL    HW155886   3.414  12.373   1.287  0.1097 -0.5172 -0.8714
49036SOL    HW255887   3.396  12.520   1.321  1.2281 -0.9185  1.6679
49037SOL     OW55888   9.994   1.844   3.353  0.4841  0.0860 -0.3059
49037SOL    HW155889  10.050   1.878   3.423 -0.6409  0.1976  0.5574
49037SOL    HW255890  10.051   1.845   3.275  2.0564 -0.9303  0.7641
49038SOL     OW55891  11.858   3.354  11.494  0.4296  0.0865 -0.1071
49038SOL    HW155892  11.860   3.298  11.417 -1.2790  0.2460 -0.2908
49038SOL    HW255893  11.886   3.440  11.462 -3.8169  1.1827 -1.5367
49039SOL     OW55894   2.495  11.448   3.374  0.6781 -0.8221 -0.3379
49039SOL    HW155895   2.501  11.378   3.308 -0.3925 -0.0977 -1.2444
49039SOL    HW255896   2.549  11.518   3.340 -0.5803 -0.1034 -0.9303
49040SOL     OW55897   2.889   1.172   5.438 -0.4198  0.3296  0.1662
49040SOL    HW155898   2.820   1.106   5.433  0.7586 -1.0260  1.1447
49040SOL    HW255899   2.881   1.220   5.355 -2.0599 -0.2427 -0.0531
49041SOL     OW55900   2.750   9.205   4.443  0.1787  0.2538 -0.3909
49041SOL    HW155901   2.675   9.145   4.447  0.7647 -0.4723 -0.2667
49041SOL    HW255902   2.721   9.274   4.383 -0.2369 -0.5299 -1.1258
49042SOL     OW55903   3.304   7.377  10.704  0.3063 -0.1527  0.3069
49042SOL    HW155904   3.255   7.362  10.624  1.0894 -0.2837 -0.1635
49042SOL    HW255905   3.378   7.432  10.677  0.1396  0.4744  1.0887
49043SOL     OW55906   3.963  10.760   3.796  0.4810 -0.1155 -0.7405
49043SOL    HW155907   3.892  10.786   3.738 -1.5400  0.9126  1.9764
49043SOL    HW255908   3.922  10.699   3.858  2.8929 -2.4071 -1.1970
49044SOL     OW55909   3.944   3.691   8.543  0.4016  0.4007  0.5307
49044SOL    HW155910   3.981   3.684   8.631  2.7046 -1.1650 -0.4598
49044SOL    HW255911   3.883   3.617   8.537 -0.0307  0.7201  0.9060
49045SOL     OW55912  10.464   9.208   0.916  0.1262  0.4743 -0.0401
49045SOL    HW155913  10.441   9.194   1.008  0.5263  2.3729  0.3990
49045SOL    HW255914  10.426   9.294   0.895 -0.0334  0.0325 -1.6914
49046SOL     OW55915   8.764   4.419   9.445 -0.2039 -0.6783 -0.2821
49046SOL    HW155916   8.720   4.456   9.369  0.9802 -1.3285 -1.3337
49046SOL    HW255917   8.737   4.327   9.446  0.1338 -0.7783 -0.1886
49047SOL     OW55918   8.674   2.863  10.755  0.1000  0.2971  0.4735
49047SOL    HW155919   8.628   2.779  10.763  1.0237 -0.1936  0.8382
49047SOL    HW255920   8.737   2.848  10.684  1.0756  0.2950  1.3317
49048SOL     OW55921   2.055   2.847  10.588 -0.2264 -0.1268 -0.8019
49048SOL    HW155922   2.057   2.760  10.628 -0.3651 -0.9090 -2.4428
49048SOL    HW255923   2.008   2.835  10.506  0.8408  1.2523 -1.6589
49049SOL     OW55924   7.075   2.973   2.569 -0.3783 -0.1898 -0.3715
49049SOL    HW155925   6.979   2.970   2.568 -0.4031  0.4286 -0.1381
49049SOL    HW255926   7.096   3.063   2.591  0.2563  0.1143 -2.0415
49050SOL     OW55927   3.923  12.361   8.633  0.0761 -0.2986  0.2763
49050SOL    HW155928   3.828  12.344   8.633  0.2360 -1.2943  0.2636
49050SOL    HW255929   3.944  12.376   8.725 -0.0799 -0.1538  0.2890
49051SOL     OW55930   5.419   8.954   1.775 -0.6105  0.1304 -0.1010
49051SOL    HW155931   5.415   8.892   1.701  0.1151 -0.1370  0.0768
49051SOL    HW255932   5.508   8.988   1.773 -0.2146 -0.7558  1.3573
49052SOL     OW55933   4.877  11.304  11.001 -0.2685 -0.2143 -0.1844
49052SOL    HW155934   4.928  11.309  11.082 -0.1734 -0.9684 -0.1860
49052SOL    HW255935   4.916  11.370  10.944  0.6676 -0.7215 -0.1601
49053SOL     OW55936   1.645   6.485   7.875  0.2472 -0.2366 -0.3559
49053SOL    HW155937   1.725   6.440   7.845  0.5654 -0.3361  0.6197
49053SOL    HW255938   1.574   6.426   7.849  0.5631 -0.6453 -0.3114
49054SOL     OW55939   7.115   2.502  12.576  0.0603 -0.7651  0.1169
49054SOL    HW155940   7.172   2.438  12.532  1.2253  0.4116 -0.1749
49054SOL    HW255941   7.164   2.526  12.655 -0.6142 -0.6247  0.4940
49055SOL     OW55942   7.590   1.868  10.179  0.0967 -0.0150 -0.1962
49055SOL    HW155943   7.513   1.845  10.232 -0.5193 -0.7935 -1.3862
49055SOL    HW255944   7.562   1.945  10.129 -0.0149 -0.4496 -0.8180
49056SOL     OW55945   4.302   8.475   4.279  0.2400 -0.6290 -0.0800
49056SOL    HW155946   4.267   8.562   4.261  2.0385 -0.1934 -1.9051
49056SOL    HW255947   4.246   8.440   4.348 -0.6495  1.8853  0.5887
49057SOL     OW55948   9.887   3.961   4.310 -0.3194  0.1172  0.7728
49057SOL    HW155949   9.810   3.989   4.261 -0.8001  1.5724  2.2235
49057SOL    HW255950   9.924   4.043   4.344  2.2438 -0.4758 -0.3449
49058SOL     OW55951   1.522   4.347   1.948 -0.5188 -0.4025 -0.3478
49058SOL    HW155952   1.616   4.328   1.942 -0.1997  0.8284  0.2761
49058SOL    HW255953   1.507   4.415   1.883 -1.0676 -0.8695 -0.7149
49059SOL     OW55954  11.241   8.375  10.038  0.2911 -0.3150 -0.3910
49059SOL    HW155955  11.158   8.411  10.006  0.4236  0.0914 -0.2778
49059SOL    HW255956  11.216   8.319  10.111  0.0742 -0.5379 -0.6337
49060SOL     OW55957   4.980   9.025   8.930 -0.4384 -0.0366 -0.1151
49060SOL    HW155958   4.899   9.074   8.922 -0.7229 -0.2898  1.0425
49060SOL    HW255959   4.996   9.020   9.025  0.8626 -0.0916 -0.3216
49061SOL     OW55960   7.579   4.866  11.949  0.4184 -0.0153 -0.5171
49061SOL    HW155961   7.493   4.888  11.914  0.2528  1.8021  0.8419
49061SOL    HW255962   7.616   4.805  11.886 -2.2515 -1.6803 -0.6266
49062SOL     OW55963   5.421   3.835   4.120  0.4324  0.0468 -0.2901
49062SOL    HW155964   5.460   3.908   4.169  1.6418 -1.2166  0.7460
49062SOL    HW255965   5.382   3.875   4.043  1.0664  1.7823  0.2482
49063SOL     OW55966   3.760   7.369  10.854 -0.1495  0.0091  0.1715
49063SOL    HW155967   3.727   7.456  10.878 -0.0983 -0.1448  0.8084
49063SOL    HW255968   3.698   7.308  10.893 -1.4955 -0.2409 -2.1981
49064SOL     OW55969  11.567  10.266   2.352 -0.7872  0.1045  0.5528
49064SOL    HW155970  11.543  10.202   2.419  0.7540 -0.6449  0.4396
49064SOL    HW255971  11.639  10.225   2.304 -0.2173  1.6436  0.0149
49065SOL     OW55972  11.233   5.236  11.092 -0.2487 -0.3776  0.3063
49065SOL    HW155973  11.218   5.147  11.124  2.1017 -1.1525 -0.5501
49065SOL    HW255974  11.314   5.264  11.136  0.4334  0.3449 -1.3443
49066SOL     OW55975   9.586   2.111  10.133  0.2887 -0.6676  0.6117
49066SOL    HW155976   9.633   2.178  10.184 -0.3381 -0.5247  1.0081
49066SOL    HW255977   9.566   2.154  10.050 -1.7814  0.3156  1.5592
49067SOL     OW55978   2.024   0.645   7.598 -0.5014 -0.4284 -0.4188
49067SOL    HW155979   2.095   0.626   7.536 -0.0510 -2.2808  0.5724
49067SOL    HW255980   1.954   0.585   7.574 -1.4856  0.8841 -0.9307
49068SOL     OW55981  12.351   9.622  12.107 -0.5996 -0.4713 -0.1887
49068SOL    HW155982  12.278   9.667  12.065 -0.4232 -0.7021 -0.7456
49068SOL    HW255983  12.428   9.674  12.083  0.0531 -2.5987 -3.3100
49069SOL     OW55984   2.323  11.438   0.091  0.1404 -0.1577  0.4955
49069SOL    HW155985   2.334  11.533   0.091  0.6519 -0.2126  0.9526
49069SOL    HW255986   2.332  11.413  -0.001 -0.5682  0.2887  0.2911
49070SOL     OW55987  11.612   8.898   5.898 -0.0125 -0.0732  0.4321
49070SOL    HW155988  11.540   8.889   5.961  0.8388 -3.0031  1.1505
49070SOL    HW255989  11.691   8.885   5.951  0.8667  0.0834 -0.8185
49071SOL     OW55990   7.019   0.857   2.223  0.3167  0.0168 -0.2479
49071SOL    HW155991   6.932   0.862   2.182  0.7668  2.1848 -1.1189
49071SOL    HW255992   7.002   0.828   2.313 -1.4096  1.0748 -0.1883
49072SOL     OW55993   9.090   0.243   0.397 -0.3795 -0.1227 -0.2189
49072SOL    HW155994   9.177   0.281   0.404  0.0216 -0.6321 -2.0223
49072SOL    HW255995   9.033   0.305   0.444  0.9215  0.2302  0.9479
49073SOL     OW55996   4.674  11.156   8.331 -0.1144 -0.5016  0.4290
49073SOL    HW155997   4.649  11.210   8.406 -0.2490 -0.0779  0.0875
49073SOL    HW255998   4.769  11.151   8.336 -0.1659 -0.9799  0.9651
49074SOL     OW55999   1.287  10.395   4.507  0.0074 -0.0934  0.5501
49074SOL    HW156000   1.241  10.314   4.488 -1.9653  0.7534  1.4527
49074SOL    HW256001   1.294  10.439   4.422 -0.1304 -0.5862  0.2801
49075SOL     OW56002   1.607  12.300  10.748 -0.0137 -0.5488  0.1656
49075SOL    HW156003   1.607  12.365  10.818  3.0049 -0.1422 -0.0770
49075SOL    HW256004   1.519  12.263  10.750 -1.3688  2.4166  1.3277
49076SOL     OW56005   6.605   2.220   9.134  0.0074  0.2823  0.1009
49076SOL    HW156006   6.522   2.172   9.133  0.0280  0.1980 -1.9453
49076SOL    HW256007   6.671   2.153   9.154 -0.1469 -0.2434 -1.0405
49077SOL     OW56008   1.632   4.014   6.155  0.0284  0.4220  0.0524
49077SOL    HW156009   1.594   4.102   6.153  1.9568  1.2986  0.2100
49077SOL    HW256010   1.710   4.019   6.100  0.2239 -1.1899  0.1085
49078SOL     OW56011   9.857  10.025   1.936  0.8882  0.1638 -0.0226
49078SOL    HW156012   9.912   9.962   1.983  1.3586  0.3091 -0.3751
49078SOL    HW256013   9.917  10.094   1.909  0.6599 -0.0283 -1.0366
49079SOL     OW56014   0.730   7.616   4.296 -0.5635  0.0952  0.4761
49079SOL    HW156015   0.816   7.585   4.326 -1.0308 -0.0956  1.6668
49079SOL    HW256016   0.682   7.634   4.377 -0.4696  3.6129 -0.0776
49080SOL     OW56017   1.353   7.201   2.795  0.2172  0.3626  0.4238
49080SOL    HW156018   1.377   7.143   2.868  0.8999 -0.4958 -0.4513
49080SOL    HW256019   1.433   7.208   2.743 -1.1619 -2.0551 -2.2625
49081SOL     OW56020   7.566   7.928   2.616  0.0126  0.2256  0.0519
49081SOL    HW156021   7.562   7.976   2.533 -2.9570 -0.2966 -0.2403
49081SOL    HW256022   7.546   7.993   2.683 -0.6120  0.0833  0.0120
49082SOL     OW56023   9.967   4.624   5.509  0.3406 -0.0512  0.2105
49082SOL    HW156024   9.884   4.672   5.510 -0.0627 -0.6891 -1.1433
49082SOL    HW256025   9.948   4.545   5.459  1.2729 -1.1524  1.5240
49083SOL     OW56026  10.499   8.750   9.695 -0.1379  0.2033 -0.8322
49083SOL    HW156027  10.433   8.681   9.701  0.5196 -0.2801  2.0241
49083SOL    HW256028  10.582   8.704   9.689  0.2625  0.7260  0.5008
49084SOL     OW56029   5.242   9.809   6.171 -0.0191  0.1691 -0.2917
49084SOL    HW156030   5.273   9.859   6.246  0.5661  0.8342 -0.9530
49084SOL    HW256031   5.196   9.734   6.208  2.3099 -0.8188  0.7448
49085SOL     OW56032   2.224   8.352  12.202  0.2187 -0.6476 -0.0031
49085SOL    HW156033   2.284   8.426  12.207 -0.8506  0.2417  0.1147
49085SOL    HW256034   2.227   8.323  12.111 -0.1052  0.1994 -0.2893
49086SOL     OW56035   2.249   6.553  11.321  0.4008  0.2152 -0.4637
49086SOL    HW156036   2.192   6.499  11.376 -0.0159 -0.5715 -1.6128
49086SOL    HW256037   2.252   6.638  11.365 -0.9995  0.0199  0.0692
49087SOL     OW56038   9.893   1.983  10.243  0.1143  0.1454 -0.2938
49087SOL    HW156039   9.846   2.006  10.323  0.5886 -0.4899  0.1778
49087SOL    HW256040   9.965   1.928  10.273  0.6144  0.3492 -1.1077
49088SOL     OW56041   2.198   0.514   4.850  0.1932 -0.1285  0.3800
49088SOL    HW156042   2.193   0.432   4.802 -1.1458 -0.3733  0.8747
49088SOL    HW256043   2.180   0.582   4.785  0.2522 -0.3122  0.1732
49089SOL     OW56044   9.834   2.584   9.580  0.2200  0.0044 -0.6439
49089SOL    HW156045   9.906   2.521   9.581  0.2586  0.0516 -0.1198
49089SOL    HW256046   9.765   2.542   9.631 -0.0363  0.0657 -0.9342
49090SOL     OW56047  11.216   2.841   7.131  0.5626 -0.6913  0.2296
49090SOL    HW156048  11.130   2.882   7.126  0.5908 -0.4796  1.2968
49090SOL    HW256049  11.247   2.840   7.041 -0.9332 -1.5902 -0.3081
49091SOL     OW56050   0.723   3.975   6.582  0.1897  0.2742  0.3826
49091SOL    HW156051   0.717   3.903   6.645 -0.6161 -1.4805 -1.5786
49091SOL    HW256052   0.815   4.003   6.587  0.8146 -1.5955  0.5107
49092SOL     OW56053   1.675   4.602   8.641 -0.0380  0.3030  0.2024
49092SOL    HW156054   1.724   4.627   8.563 -0.9750  1.0322 -0.1742
49092SOL    HW256055   1.742   4.585   8.707  0.7589 -0.0057 -0.6560
49093SOL     OW56056  12.188   4.251   8.064  0.1893  1.1329 -0.6807
49093SOL    HW156057  12.145   4.307   8.129 -0.8845  1.6704 -1.8264
49093SOL    HW256058  12.198   4.166   8.108 -2.6759  0.7655 -0.5812
49094SOL     OW56059  12.235   8.830  11.902 -0.0684  0.1015  0.1077
49094SOL    HW156060  12.204   8.743  11.926 -0.9252  0.5709  0.7599
49094SOL    HW256061  12.257   8.871  11.986  3.9195 -0.7323 -0.3481
49095SOL     OW56062   8.714   4.797   5.659  0.1205 -0.1498  0.9506
49095SOL    HW156063   8.715   4.887   5.691  0.7517  0.6687 -1.2177
49095SOL    HW256064   8.792   4.757   5.698  1.0645  0.9123  0.1954
49096SOL     OW56065   0.817   9.909  10.082  0.3299  0.1881  0.0343
49096SOL    HW156066   0.747   9.895  10.145 -0.0331 -0.1101 -0.4245
49096SOL    HW256067   0.779   9.881   9.998 -0.2128  3.1708 -0.8493
49097SOL     OW56068   5.020  12.220   8.560  0.0159  0.4732  0.2851
49097SOL    HW156069   4.929  12.191   8.559 -0.5720  2.1798 -0.0634
49097SOL    HW256070   5.043  12.225   8.653 -0.4258  0.5272  0.3922
49098SOL     OW56071  11.297   2.191   4.404  0.3681 -0.2574 -0.4210
49098SOL    HW156072  11.202   2.181   4.395  0.0553  0.9813  1.1159
49098SOL    HW256073  11.324   2.115   4.456  0.2141 -0.5601 -0.7769
49099SOL     OW56074   5.197  10.167   3.559  0.3094 -0.0492 -0.3072
49099SOL    HW156075   5.254  10.208   3.625  1.8343 -2.0058 -0.3423
49099SOL    HW256076   5.126  10.231   3.548  0.4510  0.7871  2.5488
49100SOL     OW56077   7.664   3.174   3.728 -0.2307 -0.8943 -0.3888
49100SOL    HW156078   7.663   3.252   3.783 -1.8908 -0.7565 -0.5660
49100SOL    HW256079   7.739   3.187   3.670  0.5386 -0.2547  0.6968
49101SOL     OW56080   7.596   2.260   2.135 -0.2748 -0.1163 -0.3931
49101SOL    HW156081   7.518   2.215   2.165 -0.4076  0.7777  0.6722
49101SOL    HW256082   7.564   2.325   2.073 -0.3607  0.1465 -0.0744
49102SOL     OW56083   6.991  11.038   5.177 -0.6358  0.1680  0.0224
49102SOL    HW156084   7.033  11.120   5.205  1.0093 -0.8667  0.7442
49102SOL    HW256085   7.053  10.970   5.202 -2.4680 -1.4122  0.4528
49103SOL     OW56086   0.764   7.811   1.889  0.5890  0.1821 -0.1662
49103SOL    HW156087   0.682   7.842   1.849 -0.2903  0.5245  1.7879
49103SOL    HW256088   0.787   7.733   1.837 -2.1867 -1.2630  0.5137
49104SOL     OW56089   4.004   4.147  11.256 -0.2520  0.2248  0.0926
49104SOL    HW156090   3.963   4.109  11.178 -0.3607  0.0809  0.2181
49104SOL    HW256091   3.937   4.140  11.323 -0.2585  0.6084  0.1264
49105SOL     OW56092   9.668   9.095   7.199 -0.6570  0.2678 -0.5526
49105SOL    HW156093   9.668   9.073   7.106 -1.0508 -1.8069 -0.1055
49105SOL    HW256094   9.721   9.027   7.240 -2.4585 -0.2623  1.0197
49106SOL     OW56095   4.087  10.874   6.514 -0.0629 -0.6110  0.5132
49106SOL    HW156096   4.005  10.922   6.524 -0.9513 -2.2060  1.4642
49106SOL    HW256097   4.104  10.838   6.602  0.2633 -2.4042 -0.2379
49107SOL     OW56098   4.579   3.197   0.816 -0.1180 -0.1877  0.2982
49107SOL    HW156099   4.673   3.186   0.828 -0.4222 -1.1588  2.2175
49107SOL    HW256100   4.543   3.109   0.824 -1.1191 -0.0032 -1.6200
49108SOL     OW56101   2.894  11.714   4.538  0.0670 -0.2684 -0.2229
49108SOL    HW156102   2.915  11.797   4.581 -0.9241 -0.7774  1.3008
49108SOL    HW256103   2.855  11.740   4.454  2.4371  0.7262 -1.1260
49109SOL     OW56104  10.036  11.156   1.749  0.1081  0.3621 -0.5665
49109SOL    HW156105   9.960  11.212   1.732 -0.4009 -0.1143  0.0803
49109SOL    HW256106  10.105  11.191   1.692 -0.3642  1.2886 -0.5925
49110SOL     OW56107   6.203   8.197   9.695 -0.6879  0.2040 -0.0187
49110SOL    HW156108   6.111   8.187   9.669 -0.8244  3.7328 -1.4586
49110SOL    HW256109   6.230   8.279   9.655  2.6114  0.2046  1.8681
49111SOL     OW56110   9.287  10.683   8.413 -0.4305 -0.3987  0.3393
49111SOL    HW156111   9.224  10.615   8.391 -1.7501  0.7802  0.3557
49111SOL    HW256112   9.308  10.725   8.330 -0.7192  0.0947  0.5130
49112SOL     OW56113  10.766   4.627  11.494  0.5209  0.0237 -0.7541
49112SOL    HW156114  10.685   4.637  11.445  0.2245  0.6707 -0.1498
49112SOL    HW256115  10.739   4.621  11.586  1.1082 -0.4999 -0.6100
49113SOL     OW56116   5.165   8.278   3.255 -0.0410  0.2162  0.1900
49113SOL    HW156117   5.215   8.356   3.231  1.3609 -0.5286  0.6066
49113SOL    HW256118   5.093   8.276   3.193  1.5237  0.2680 -1.7084
49114SOL     OW56119   9.825  11.973   9.830 -0.7082  0.1817  0.1218
49114SOL    HW156120   9.733  11.961   9.805 -0.7245 -0.3994  0.4299
49114SOL    HW256121   9.839  12.068   9.825 -1.2602  0.2563 -0.1441
49115SOL     OW56122   4.028   6.097   8.448  0.6737  0.3721 -0.2531
49115SOL    HW156123   4.014   6.014   8.493  0.1799  0.6137  0.0471
49115SOL    HW256124   3.941   6.135   8.440  0.8174  0.5726 -0.9589
49116SOL     OW56125   1.169  11.019   1.009 -0.0019  0.1593  0.2328
49116SOL    HW156126   1.095  11.043   1.064  0.0245  0.8808 -0.0340
49116SOL    HW256127   1.246  11.054   1.054  0.0681  0.3262 -0.0106
49117SOL     OW56128   0.235   1.310   4.966 -0.1965  0.5059 -0.4196
49117SOL    HW156129   0.170   1.267   5.021 -0.1453  0.4596 -0.3954
49117SOL    HW256130   0.273   1.378   5.021 -3.0590  3.3022 -1.6164
49118SOL     OW56131   6.798   2.006   8.133  0.2315  0.4351  0.3364
49118SOL    HW156132   6.881   2.007   8.179 -0.7170  0.9743  2.1497
49118SOL    HW256133   6.792   2.093   8.092  0.1032  0.8043  1.1195
49119SOL     OW56134   7.259   4.869   5.918 -0.0881 -0.2567  0.3774
49119SOL    HW156135   7.312   4.815   5.859 -1.1565 -1.3310  0.3345
49119SOL    HW256136   7.321   4.923   5.965  0.8296  0.3786 -1.4859
49120SOL     OW56137   8.891   7.915   2.451 -0.4288 -0.1735 -0.3599
49120SOL    HW156138   8.936   7.868   2.381  1.3061  1.0305 -0.0961
49120SOL    HW256139   8.925   7.877   2.532  0.3668  0.9303 -0.1551
49121SOL     OW56140  12.099   2.792   5.247 -0.1202  0.0646  0.7234
49121SOL    HW156141  12.113   2.886   5.233 -0.8626  0.0926  0.1051
49121SOL    HW256142  12.044   2.787   5.324 -1.2458  0.2166 -0.0485
49122SOL     OW56143   3.438   8.911  10.493 -0.2424 -0.1447  0.3037
49122SOL    HW156144   3.416   8.823  10.461 -1.6371 -0.1195  1.1037
49122SOL    HW256145   3.529   8.924  10.467 -0.6497 -0.9587 -1.7778
49123SOL     OW56146   2.496  10.441   9.473  0.1520 -0.6276 -0.2126
49123SOL    HW156147   2.529  10.351   9.478  0.2825 -0.5101  1.6770
49123SOL    HW256148   2.549  10.482   9.405  1.8468 -1.2800  0.6659
49124SOL     OW56149   0.054   5.429  11.679  0.0345  0.0280  0.2282
49124SOL    HW156150   0.039   5.418  11.585 -0.8477  1.9743  0.1109
49124SOL    HW256151  -0.031   5.451  11.715  0.6017  0.5774  1.2777
49125SOL     OW56152   5.061  11.139   2.838  0.0748  0.3989 -0.0779
49125SOL    HW156153   5.011  11.172   2.912 -0.3939 -0.5600  0.0531
49125SOL    HW256154   5.146  11.115   2.875 -0.2903 -0.4362  0.2349
49126SOL     OW56155   2.181  10.392   7.864 -0.3542 -0.0157  0.5595
49126SOL    HW156156   2.089  10.415   7.854 -0.6279 -1.2257  0.0825
49126SOL    HW256157   2.185  10.298   7.845  0.8526 -0.1635  1.3897
49127SOL     OW56158  11.766   2.371   2.315 -0.2254 -0.2948 -0.0442
49127SOL    HW156159  11.732   2.348   2.401  0.4451 -1.2692 -0.0295
49127SOL    HW256160  11.840   2.429   2.333  0.3750 -1.0823  0.0817
49128SOL     OW56161  10.520   7.731  11.920  0.3379  0.2974 -0.1766
49128SOL    HW156162  10.455   7.667  11.891  0.6747  0.8594 -2.2928
49128SOL    HW256163  10.602   7.681  11.925  0.4932  0.4081 -1.3180
49129SOL     OW56164   9.184   5.168   3.344 -0.0700  0.0802 -0.4706
49129SOL    HW156165   9.207   5.103   3.410 -0.5191 -0.7883 -1.1435
49129SOL    HW256166   9.232   5.141   3.266 -2.1096 -0.9041 -1.4610
49130SOL     OW56167   1.203   0.778  10.276 -0.3568 -0.0582  0.1231
49130SOL    HW156168   1.204   0.687  10.246  0.1650 -0.0139 -0.0109
49130SOL    HW256169   1.111   0.803  10.275 -0.2879  0.4550 -3.0017
49131SOL     OW56170   0.928  10.042   1.639 -0.2459  0.3159  0.4965
49131SOL    HW156171   0.873  10.121   1.643 -0.7283 -0.0122  0.4110
49131SOL    HW256172   1.000  10.060   1.698 -0.9574  0.3611  1.3736
49132SOL     OW56173   1.141   8.222   9.482 -0.0272  0.0330 -0.1047
49132SOL    HW156174   1.072   8.171   9.440  0.4800 -0.3100 -0.5232
49132SOL    HW256175   1.108   8.235   9.572 -0.2959 -0.7831 -0.0690
49133SOL     OW56176   5.661   8.865   6.029  0.1464  0.7538  0.0998
49133SOL    HW156177   5.696   8.910   5.952 -0.7145 -0.3952 -1.0039
49133SOL    HW256178   5.579   8.910   6.048 -1.0510 -0.6699 -1.4093
49134SOL     OW56179   6.273   0.007   5.619  0.1706  0.3286  0.1077
49134SOL    HW156180   6.335  -0.031   5.557  1.4109 -0.8771  2.0186
49134SOL    HW256181   6.311   0.092   5.643  0.1773  0.3640 -0.0265
49135SOL     OW56182   4.825   4.949   8.118 -0.5695 -0.1867  0.0899
49135SOL    HW156183   4.809   4.918   8.207 -0.4011 -1.8255 -0.4029
49135SOL    HW256184   4.744   4.926   8.071 -0.1922 -0.4477 -0.4378
49136SOL     OW56185   4.341   0.269   9.386  0.1127 -0.1678  0.0061
49136SOL    HW156186   4.395   0.192   9.370  0.0594 -0.2352  0.1472
49136SOL    HW256187   4.270   0.237   9.441 -1.1265 -0.4985 -1.7127
49137SOL     OW56188   2.648  12.111  11.762  0.2981  0.2560 -0.5104
49137SOL    HW156189   2.676  12.200  11.783  0.8249  0.0599 -0.3696
49137SOL    HW256190   2.707  12.055  11.812 -0.8744 -0.1578  0.4626
49138SOL     OW56191   8.416   1.865   6.955  0.1526  0.1314 -0.2600
49138SOL    HW156192   8.324   1.849   6.933 -0.3915 -0.2518  2.0076
49138SOL    HW256193   8.458   1.780   6.942 -0.1323 -0.0621  0.0567
49139SOL     OW56194   0.999  12.543   8.023  0.4349  0.1269  0.1026
49139SOL    HW156195   0.980  12.483   8.095 -1.4740 -0.3321 -0.7357
49139SOL    HW256196   0.945  12.512   7.950  1.7959  0.9796 -1.3538
49140SOL     OW56197   8.199  11.525   2.273  0.3881  0.4975 -0.5835
49140SOL    HW156198   8.126  11.581   2.300 -0.0537 -0.2315 -0.2429
49140SOL    HW256199   8.196  11.526   2.178 -1.1429 -0.8902 -0.5798
49141SOL     OW56200   1.824   9.423  10.046  0.0529  0.0137  0.2994
49141SOL    HW156201   1.747   9.443   9.993 -1.5790 -0.8202  2.2268
49141SOL    HW256202   1.856   9.509  10.075  0.7464  0.4598 -1.5908
49142SOL     OW56203   5.389  12.315   7.752  0.1201 -0.2149  0.0650
49142SOL    HW156204   5.418  12.295   7.663 -0.0601  0.2379 -0.0983
49142SOL    HW256205   5.294  12.310   7.748  0.1477 -2.5668  0.8059
49143SOL     OW56206   0.394  12.315  12.470 -0.1977  0.2012 -0.5785
49143SOL    HW156207   0.426  12.401  12.442  2.4147 -1.2389 -2.3431
49143SOL    HW256208   0.325  12.335  12.533  1.9122  3.5852  0.9032
49144SOL     OW56209  11.721  11.632  10.457  1.0122 -0.1685  0.1212
49144SOL    HW156210  11.667  11.569  10.504  0.4744 -0.4863 -0.8822
49144SOL    HW256211  11.764  11.580  10.389  2.0307  0.2178  0.4512
49145SOL     OW56212   8.455  10.653   3.025  0.0528 -0.3861 -0.3086
49145SOL    HW156213   8.521  10.717   3.051 -0.1991 -0.0594 -0.4558
49145SOL    HW256214   8.393  10.650   3.098  0.6309 -1.2616  0.1646
49146SOL     OW56215  11.520   5.755   3.328  0.2823  0.5539 -0.0812
49146SOL    HW156216  11.494   5.673   3.287 -1.6075  1.2970 -0.4997
49146SOL    HW256217  11.615   5.752   3.331  0.5099  0.0379 -3.7187
49147SOL     OW56218   0.308   7.585   2.674  0.3658 -0.0704 -0.0642
49147SOL    HW156219   0.381   7.613   2.620  1.8212  0.8414  2.2355
49147SOL    HW256220   0.333   7.498   2.706  0.0174 -0.1344  0.0456
49148SOL     OW56221   3.884   3.971   9.763  0.0534 -0.5160 -0.0425
49148SOL    HW156222   3.972   3.951   9.796  0.5760  1.0922 -0.3881
49148SOL    HW256223   3.887   4.063   9.740 -1.7530 -0.4141 -0.0373
49149SOL     OW56224   7.509   4.475  10.270  0.0073 -0.1029  0.4477
49149SOL    HW156225   7.433   4.508  10.222  0.0290  0.9649  1.1357
49149SOL    HW256226   7.583   4.489  10.211  0.2137  2.2717  1.1674
49150SOL     OW56227   7.432   9.970   1.519  0.1471  0.2334  0.2457
49150SOL    HW156228   7.468   9.940   1.436 -1.1730  0.0354 -0.2803
49150SOL    HW256229   7.378  10.045   1.496  0.7343  0.9425  1.1061
49151SOL     OW56230   8.297   7.791   4.372  0.3272  0.1750  0.2920
49151SOL    HW156231   8.290   7.695   4.375 -2.1379  0.1644 -2.2216
49151SOL    HW256232   8.235   7.822   4.438 -0.4444 -0.0019 -0.3330
49152SOL     OW56233   1.629   6.938   9.683  0.0707  0.8399  0.4935
49152SOL    HW156234   1.723   6.923   9.669  0.0078  0.6405  0.2692
49152SOL    HW256235   1.604   6.874   9.750 -0.0264  0.4986  0.1316
49153SOL     OW56236   5.127   6.450   0.378 -0.0263  0.2008 -1.0421
49153SOL    HW156237   5.036   6.460   0.406  0.8995 -2.2515  3.9448
49153SOL    HW256238   5.161   6.539   0.374 -1.5929  1.0141  1.5838
49154SOL     OW56239  11.263   9.750  10.936 -0.0693 -0.3757 -0.8930
49154SOL    HW156240  11.195   9.712  10.991  0.0475  0.4284 -0.1673
49154SOL    HW256241  11.330   9.682  10.931  0.3616 -0.1304  0.8036
49155SOL     OW56242   6.327  10.859   0.639  0.2590  0.3899 -0.2512
49155SOL    HW156243   6.347  10.942   0.681  0.1334  0.0663  0.4511
49155SOL    HW256244   6.239  10.870   0.604 -0.4547 -0.0347  1.3541
49156SOL     OW56245   9.944   6.136   7.211  0.5884 -0.9473 -0.1389
49156SOL    HW156246   9.923   6.213   7.264 -0.0425  0.2904 -2.0824
49156SOL    HW256247  10.032   6.153   7.177  0.2180 -0.7836 -1.0439
49157SOL     OW56248  11.855   3.228   1.701  0.0229  0.4618  0.3184
49157SOL    HW156249  11.890   3.176   1.629  0.3415  0.8150  0.2202
49157SOL    HW256250  11.788   3.171   1.740  0.5983 -0.1604  0.4238
49158SOL     OW56251   4.089   2.106  10.083 -0.0739  0.6636 -0.5259
49158SOL    HW156252   4.039   2.145  10.011 -2.5837  0.5194  0.9840
49158SOL    HW256253   4.045   2.022  10.100  1.2221  0.1378  0.3724
49159SOL     OW56254   0.713  12.198   0.475 -0.0703 -0.2712 -0.0403
49159SOL    HW156255   0.722  12.105   0.456  0.7887  0.0356 -1.2065
49159SOL    HW256256   0.647  12.202   0.545 -1.1076 -1.6597 -0.8966
49160SOL     OW56257   5.233   8.838   5.073  0.0489  0.1429  0.0180
49160SOL    HW156258   5.279   8.777   5.015 -0.7055 -0.1287 -0.2935
49160SOL    HW256259   5.141   8.830   5.049 -0.2754  0.0230  1.2656
49161SOL     OW56260   2.628  10.065   3.862  0.2105 -0.2073 -0.5019
49161SOL    HW156261   2.721  10.055   3.841 -0.1848 -0.6413 -2.1723
49161SOL    HW256262   2.601  10.144   3.816 -0.3207 -0.2159 -0.2197
49162SOL     OW56263   3.804   1.637   4.537  0.4228  0.0147  0.7889
49162SOL    HW156264   3.789   1.697   4.464  1.1699  0.2513  0.8205
49162SOL    HW256265   3.843   1.560   4.497  0.4760 -0.0087  0.8860
49163SOL     OW56266   5.561   5.299  10.386 -0.1148  0.4045 -0.2924
49163SOL    HW156267   5.553   5.215  10.431  1.2545  0.5298  0.2269
49163SOL    HW256268   5.527   5.283  10.298 -1.9258 -0.1096  0.4422
49164SOL     OW56269   1.855   4.978   3.276 -0.2678 -0.3276  0.1760
49164SOL    HW156270   1.856   5.063   3.321 -0.7765  1.5041 -2.9128
49164SOL    HW256271   1.938   4.976   3.228  0.9145 -2.8591  2.1022
49165SOL     OW56272  10.702   1.305  11.346  0.1159 -0.3892 -1.0063
49165SOL    HW156273  10.609   1.293  11.325 -0.0569 -0.4265 -0.2751
49165SOL    HW256274  10.724   1.229  11.399  0.5662 -0.3819 -1.1825
49166SOL     OW56275   5.927   2.711  12.120  0.0881 -0.1994 -0.0908
49166SOL    HW156276   5.929   2.691  12.026 -0.1056  0.4177 -0.2301
49166SOL    HW256277   5.969   2.635  12.161  0.6029 -0.2614 -0.7080
49167SOL     OW56278   4.712  10.057  11.000  0.1849  0.0636  0.3784
49167SOL    HW156279   4.710   9.973  11.047 -0.2877  0.6255  1.4032
49167SOL    HW256280   4.804  10.082  10.998  0.2084  0.0565  1.0788
49168SOL     OW56281   5.238   2.031  10.742  0.2106 -0.8126 -0.1463
49168SOL    HW156282   5.307   2.021  10.808 -0.3124 -1.7393  0.2686
49168SOL    HW256283   5.168   2.079  10.786  1.1038  1.3943 -0.9739
49169SOL     OW56284  10.884  12.306   2.698 -0.7614  0.5192 -0.2981
49169SOL    HW156285  10.817  12.281   2.635 -1.8413  1.5936  0.3829
49169SOL    HW256286  10.954  12.344   2.644 -0.1664 -1.5799 -1.1065
49170SOL     OW56287   1.492   4.821   5.222  0.3219  0.3730 -0.0271
49170SOL    HW156288   1.441   4.744   5.197  0.8792  0.1575 -0.5353
49170SOL    HW256289   1.509   4.866   5.139  1.4306  0.1324  0.0508
49171SOL     OW56290   7.932   8.000  10.548  0.1525 -0.2026 -0.0121
49171SOL    HW156291   7.877   8.053  10.606 -0.3281  0.5986 -1.1622
49171SOL    HW256292   7.978   7.940  10.606 -1.5548 -0.5532  1.0334
49172SOL     OW56293   1.697   5.503   1.333 -0.1371 -0.6114 -0.0539
49172SOL    HW156294   1.656   5.590   1.342  1.2701  0.1973 -1.0700
49172SOL    HW256295   1.680   5.460   1.417 -0.7418  0.6992  0.5259
49173SOL     OW56296   2.987   4.318   0.584 -0.5757 -0.8759  0.1067
49173SOL    HW156297   2.964   4.236   0.629  1.2650 -0.7585  1.3725
49173SOL    HW256298   2.918   4.379   0.610 -1.4997 -1.7557 -0.1586
49174SOL     OW56299  12.415   6.342   1.017 -0.3933 -0.1405 -0.1854
49174SOL    HW156300  12.411   6.356   0.922  0.1836  2.5412  0.1129
49174SOL    HW256301  12.329   6.306   1.039 -1.2547  0.9807 -1.4935
49175SOL     OW56302   9.231   4.795  10.380  0.3203 -0.0363  0.0374
49175SOL    HW156303   9.314   4.805  10.426  0.2691  1.7318 -0.1981
49175SOL    HW256304   9.167   4.844  10.432 -0.6558 -1.4912  0.3005
49176SOL     OW56305  10.041   8.615   4.237  0.0996  0.4705 -0.5525
49176SOL    HW156306  10.052   8.556   4.163  3.3435 -0.7459  0.7417
49176SOL    HW256307  10.118   8.672   4.235 -0.3526  1.2229  1.2014
49177SOL     OW56308   7.680   8.828  12.594  0.3621  0.9666 -0.0963
49177SOL    HW156309   7.727   8.868  12.521  2.2008 -2.2924 -0.9141
49177SOL    HW256310   7.711   8.737  12.596 -2.1033 -0.0003  2.6919
49178SOL     OW56311   7.993   6.933  12.276  0.1363 -0.0615  0.0693
49178SOL    HW156312   8.062   6.888  12.325  0.1312  0.8828  0.9581
49178SOL    HW256313   7.941   6.862  12.237  0.1923 -0.8238  1.3563
49179SOL     OW56314   2.972  10.834   1.777 -0.1204 -0.1233 -0.3789
49179SOL    HW156315   2.909  10.778   1.732 -1.6362 -0.1899  1.6852
49179SOL    HW256316   2.947  10.923   1.753 -1.9821 -0.0696  1.4861
49180SOL     OW56317   3.385   7.724   3.914  0.1824  0.5903  0.8965
49180SOL    HW156318   3.327   7.740   3.988 -0.9932  1.5938 -0.1983
49180SOL    HW256319   3.336   7.665   3.857 -0.0524  1.9178 -0.3222
49181SOL     OW56320   9.647   0.836  12.126 -0.6045 -0.1285  0.8168
49181SOL    HW156321   9.741   0.837  12.145  0.1621  0.4717 -2.3460
49181SOL    HW256322   9.641   0.786  12.044 -2.6181  2.3749 -0.6897
49182SOL     OW56323   8.033   4.887   9.632 -0.0560  0.2908 -0.2918
49182SOL    HW156324   7.957   4.893   9.690 -0.2883 -0.1277 -0.5446
49182SOL    HW256325   8.008   4.821   9.568  1.5976 -1.9937  1.2577
49183SOL     OW56326   3.441   5.662   7.864 -0.1870 -0.2335 -0.0891
49183SOL    HW156327   3.395   5.590   7.906  0.7352 -0.4609  0.5763
49183SOL    HW256328   3.395   5.677   7.782  0.7627 -2.8885 -1.1936
49184SOL     OW56329  10.666   8.605   4.095 -0.2473 -0.1252  0.0198
49184SOL    HW156330  10.728   8.674   4.070 -1.6034  1.4041  0.6639
49184SOL    HW256331  10.592   8.653   4.132 -1.3797 -1.9489  0.1983
49185SOL     OW56332  11.913   5.377   5.034  0.1813 -0.1014 -0.0248
49185SOL    HW156333  11.863   5.382   5.116  0.2706  1.5722 -0.0450
49185SOL    HW256334  11.860   5.425   4.971  0.8255 -0.1133 -0.5864
49186SOL     OW56335   6.627   4.973   7.746  0.3349  0.0795 -0.2988
49186SOL    HW156336   6.548   4.937   7.704  0.2722  1.8429 -1.8160
49186SOL    HW256337   6.633   4.926   7.829 -0.5286 -2.3604 -1.5122
49187SOL     OW56338   6.497  10.570   7.744 -0.4373  0.1445 -0.0760
49187SOL    HW156339   6.422  10.615   7.783  0.8165  0.6949  1.8312
49187SOL    HW256340   6.507  10.490   7.796 -1.4895 -1.5066 -2.2458
49188SOL     OW56341   8.639   0.803   2.811 -0.1932 -0.0103 -0.4236
49188SOL    HW156342   8.596   0.832   2.892 -0.5596  0.2590 -0.7127
49188SOL    HW256343   8.714   0.752   2.841  1.0169  1.9870  0.1304
49189SOL     OW56344   3.605  11.027   8.685 -0.1909 -0.3227  0.0989
49189SOL    HW156345   3.551  10.948   8.683  0.5555 -0.8448 -0.0913
49189SOL    HW256346   3.552  11.094   8.642 -0.6457 -0.8473 -0.1678
49190SOL     OW56347   3.611   2.489   9.038  0.1387  0.4577  0.2038
49190SOL    HW156348   3.581   2.405   9.075 -2.1487  0.5393 -1.2684
49190SOL    HW256349   3.531   2.530   9.004  1.6208  1.8931 -1.7692
49191SOL     OW56350   4.453   2.149   5.256  0.4778  0.1191  0.1017
49191SOL    HW156351   4.527   2.180   5.308  0.5418 -0.2437  0.2301
49191SOL    HW256352   4.376   2.186   5.299  0.6608  2.0103 -1.0660
49192SOL     OW56353  10.434  10.350   1.144 -0.4784  0.1373 -0.1056
49192SOL    HW156354  10.385  10.410   1.088 -1.1324 -1.4605 -1.3251
49192SOL    HW256355  10.490  10.301   1.084  0.5571 -0.0125  0.9452
49193SOL     OW56356   8.425   8.465  11.332  0.4184 -0.1580 -0.0288
49193SOL    HW156357   8.414   8.378  11.293  0.6895 -0.4634  0.5666
49193SOL    HW256358   8.477   8.450  11.410  2.1364  0.7996 -0.9298
49194SOL     OW56359  11.497  11.733   8.889 -0.3026 -0.0395 -0.2995
49194SOL    HW156360  11.550  11.809   8.863 -2.1649  0.9699 -1.3542
49194SOL    HW256361  11.426  11.770   8.941 -1.2320 -1.0565 -0.8006
49195SOL     OW56362   9.464   2.812   5.029 -0.0908  0.7472  0.2846
49195SOL    HW156363   9.525   2.818   4.955 -0.5083  0.0669 -0.1319
49195SOL    HW256364   9.459   2.901   5.063  0.3921  1.0010 -0.2770
49196SOL     OW56365   9.084   7.228   3.076  0.4001 -0.4086 -0.0593
49196SOL    HW156366   9.085   7.191   3.164  1.0055 -1.7901 -0.6265
49196SOL    HW256367   9.087   7.153   3.018  0.8961  0.5153 -1.2715
49197SOL     OW56368   6.413   7.542   6.199  0.1579 -0.2220 -0.3124
49197SOL    HW156369   6.335   7.531   6.143 -0.1949 -2.7420  0.5312
49197SOL    HW256370   6.379   7.580   6.280 -0.4343 -2.1207  0.3900
49198SOL     OW56371   3.599   3.477   2.196 -0.6745 -0.0071 -0.3531
49198SOL    HW156372   3.653   3.554   2.216  0.8808 -0.8220 -1.2183
49198SOL    HW256373   3.538   3.508   2.129 -2.1254  1.2205  1.4195
49199SOL     OW56374  10.856  11.883   1.186 -0.8835 -0.3347 -0.4715
49199SOL    HW156375  10.882  11.829   1.112 -1.9107 -1.2849 -0.1517
49199SOL    HW256376  10.870  11.828   1.263  0.7691  0.8498  0.1457
49200SOL     OW56377   9.012   0.011   1.069 -0.1107  0.1515  0.3741
49200SOL    HW156378   9.100  -0.025   1.070  0.2924  1.1115  1.6188
49200SOL    HW256379   8.997   0.035   0.978  1.1898  0.6155  0.2678
49201SOL     OW56380  12.574  10.540   5.055 -0.6037  0.0911  0.2066
49201SOL    HW156381  12.578  10.635   5.043  0.7825 -0.1201 -1.2847
49201SOL    HW256382  12.665  10.513   5.069 -0.8557 -1.1316 -0.3507
49202SOL     OW56383   5.380  12.426   5.989  0.2334  0.1409  0.0294
49202SOL    HW156384   5.287  12.405   5.992  0.2650  0.1113  1.2211
49202SOL    HW256385   5.391  12.477   5.908 -0.9717  0.9303  0.3428
49203SOL     OW56386   1.757  11.551   0.099 -0.3650  0.2972 -0.1136
49203SOL    HW156387   1.769  11.470   0.049 -0.5284  0.3898 -0.3039
49203SOL    HW256388   1.707  11.524   0.176 -1.7156  0.4684 -0.9082
49204SOL     OW56389   2.432   7.916  11.069  0.4038 -0.2638 -0.3539
49204SOL    HW156390   2.440   7.867  11.150 -3.6928 -0.7062 -0.0080
49204SOL    HW256391   2.397   8.001  11.096 -0.2844 -0.1432 -1.5579
49205SOL     OW56392   6.240   2.981   3.449  0.2491  0.3766  0.4055
49205SOL    HW156393   6.161   2.930   3.466  1.0095 -1.4898 -1.2467
49205SOL    HW256394   6.257   3.027   3.531 -2.2435  0.4332  0.9559
49206SOL     OW56395   7.126   8.766   8.076 -0.2078  0.0101  0.3476
49206SOL    HW156396   7.094   8.797   7.991 -0.4843 -0.1947  0.3753
49206SOL    HW256397   7.207   8.720   8.056 -0.3052 -0.0909  0.1879
49207SOL     OW56398   2.574   5.006   3.813 -0.3428 -0.5286 -0.5787
49207SOL    HW156399   2.634   5.079   3.826 -0.2941 -0.7151  0.2731
49207SOL    HW256400   2.607   4.962   3.734 -0.3833  0.3664 -1.0975
49208SOL     OW56401   7.067   5.149   2.045 -0.0845 -0.1954 -0.9211
49208SOL    HW156402   7.076   5.073   1.987  1.4577 -0.5744 -0.2516
49208SOL    HW256403   6.994   5.127   2.102  0.8249 -1.5606 -0.2280
49209SOL     OW56404   3.650  10.807  10.315 -0.3924  0.0020  0.5569
49209SOL    HW156405   3.663  10.719  10.279 -1.0862  0.2416 -0.3000
49209SOL    HW256406   3.707  10.863  10.263 -0.4126  0.1597  0.7040
49210SOL     OW56407   8.408   1.759   4.374  0.0723 -0.4583  0.0589
49210SOL    HW156408   8.337   1.707   4.409 -0.6729  0.1553 -0.5081
49210SOL    HW256409   8.373   1.848   4.370  0.2207 -0.4511 -1.9403
49211SOL     OW56410  10.979   1.637   1.273  0.3350  0.9150 -0.1093
49211SOL    HW156411  11.041   1.708   1.255 -1.2564  2.4116 -0.0898
49211SOL    HW256412  10.918   1.675   1.336  0.3308 -1.0500  1.1373
49212SOL     OW56413   2.498   2.316  10.592 -0.1277 -0.7727 -0.2294
49212SOL    HW156414   2.516   2.285  10.503 -0.5493  0.3400 -0.7211
49212SOL    HW256415   2.583   2.344  10.625 -0.4728  3.2418 -2.0618
49213SOL     OW56416   1.537   3.261   3.870  0.7029 -0.4611 -0.4124
49213SOL    HW156417   1.616   3.315   3.874  2.1975 -2.4050 -1.7198
49213SOL    HW256418   1.567   3.173   3.892 -0.9563 -1.3672 -1.5842
49214SOL     OW56419   3.679   1.860   7.424 -0.5306 -0.6862 -0.4128
49214SOL    HW156420   3.656   1.830   7.512  1.1143  0.2575  0.3776
49214SOL    HW256421   3.663   1.784   7.368 -1.2363 -1.4217  0.7404
49215SOL     OW56422   8.609   5.568   9.456  0.1566  0.3877 -0.0343
49215SOL    HW156423   8.552   5.507   9.503 -1.0085  1.2031 -0.3326
49215SOL    HW256424   8.698   5.540   9.478 -0.3501 -0.0983  1.5359
49216SOL     OW56425   5.231  11.899   0.748  0.0515 -0.1644 -0.2051
49216SOL    HW156426   5.283  11.860   0.819 -1.1235  0.0535  0.8229
49216SOL    HW256427   5.142  11.900   0.782 -0.2662  1.6452 -0.9532
49217SOL     OW56428   3.838  10.594   6.368 -0.2270 -0.2006 -0.0493
49217SOL    HW156429   3.809  10.559   6.453  0.0122 -0.5407 -0.1047
49217SOL    HW256430   3.812  10.686   6.370  1.4741  0.2986  1.1871
49218SOL     OW56431  11.008   4.412   3.510  0.3756  0.1418 -0.5647
49218SOL    HW156432  10.915   4.390   3.509  0.5299 -1.1246  2.5787
49218SOL    HW256433  11.014   4.491   3.563  1.0854  0.3417 -0.9299
49219SOL     OW56434   5.828   2.994  10.402  0.2417 -0.3397  0.2411
49219SOL    HW156435   5.816   3.042  10.320 -1.5859 -0.7189  0.2376
49219SOL    HW256436   5.787   3.050  10.468  2.0466  0.1463  0.9969
49220SOL     OW56437   4.138   5.285   9.692 -0.3943 -0.1446 -0.3267
49220SOL    HW156438   4.215   5.253   9.739 -1.1659 -0.6560  0.6348
49220SOL    HW256439   4.084   5.207   9.679 -1.2860  0.3850  0.0747
49221SOL     OW56440   9.446   8.368   3.243  0.0414 -0.5503  0.2639
49221SOL    HW156441   9.417   8.451   3.206  0.0243 -0.9751 -0.7138
49221SOL    HW256442   9.516   8.391   3.303  0.4772  0.1193 -0.4889
49222SOL     OW56443   0.955   9.150   9.532 -0.2103 -0.5908  0.2140
49222SOL    HW156444   0.974   9.101   9.451 -0.8997 -0.3014 -0.1254
49222SOL    HW256445   0.969   9.242   9.509 -3.0234 -0.2259 -0.3946
49223SOL     OW56446  10.569   7.033   7.749  0.8902  0.2553  0.1417
49223SOL    HW156447  10.525   7.066   7.671  0.2465  1.6573  1.0630
49223SOL    HW256448  10.518   7.068   7.822  1.3038 -1.2700  1.1987
49224SOL     OW56449   3.390   2.688  11.106  0.5265 -0.1575 -0.2242
49224SOL    HW156450   3.431   2.768  11.136 -0.0570 -0.3181  1.0720
49224SOL    HW256451   3.338   2.658  11.181 -0.9894 -0.5906 -1.3925
49225SOL     OW56452   1.852   5.373   8.809 -0.5547 -0.1833  0.5854
49225SOL    HW156453   1.920   5.433   8.839 -1.3323 -0.0249  2.1345
49225SOL    HW256454   1.879   5.288   8.843 -1.1981 -0.0890  1.3649
49226SOL     OW56455   8.249   9.177   8.067 -0.4324 -0.4133  0.8544
49226SOL    HW156456   8.341   9.168   8.092  0.3037  1.9774 -0.6692
49226SOL    HW256457   8.206   9.212   8.146  0.2254 -0.3502  1.1908
49227SOL     OW56458   2.512   5.838  10.913 -0.7580  0.2118 -0.1017
49227SOL    HW156459   2.602   5.854  10.943 -0.7465  0.9068 -0.4903
49227SOL    HW256460   2.512   5.747  10.884 -0.0558  0.3356 -0.5155
49228SOL     OW56461   6.507  11.474   0.497 -0.1873 -0.5012  0.5362
49228SOL    HW156462   6.506  11.516   0.583 -2.0879 -2.2827  1.4785
49228SOL    HW256463   6.539  11.541   0.437  0.2569  1.0959  2.4766
49229SOL     OW56464   3.728   4.876   4.199  0.0890  0.0543  0.3122
49229SOL    HW156465   3.729   4.878   4.295  1.5174  2.2433  0.3072
49229SOL    HW256466   3.746   4.966   4.172 -1.1647 -0.3241 -2.0449
49230SOL     OW56467   4.472   7.311   2.769  0.5255 -0.2063  0.6390
49230SOL    HW156468   4.390   7.283   2.727 -1.2763  2.0786  2.3655
49230SOL    HW256469   4.536   7.244   2.742 -1.7554 -1.8854 -1.1250
49231SOL     OW56470  11.315  12.513   8.793 -0.0962 -0.6055  0.1591
49231SOL    HW156471  11.247  12.446   8.798  0.5341 -1.1641  1.7544
49231SOL    HW256472  11.283  12.584   8.848 -0.1895 -0.1153 -0.5193
49232SOL     OW56473   6.762   3.534  10.524 -0.1171  0.2337  0.1894
49232SOL    HW156474   6.809   3.450  10.524 -1.2171 -0.4066 -0.2763
49232SOL    HW256475   6.809   3.587  10.588  2.6383  0.4620 -1.8311
49233SOL     OW56476   7.695   6.363   5.531  0.1086 -0.3486 -0.2507
49233SOL    HW156477   7.745   6.299   5.481  0.0517 -2.1936  1.9069
49233SOL    HW256478   7.747   6.376   5.610 -0.9748  0.6206  0.3203
49234SOL     OW56479   7.624   5.211   4.097 -0.0204  0.3987 -0.5735
49234SOL    HW156480   7.568   5.248   4.165  0.4635  1.3130 -0.6574
49234SOL    HW256481   7.565   5.196   4.023 -0.3895  0.1800 -0.2400
49235SOL     OW56482   9.760   0.010   0.124  0.5248 -0.1116 -0.2914
49235SOL    HW156483   9.668   0.003   0.148  0.3172  0.2491 -0.9730
49235SOL    HW256484   9.794   0.081   0.179  0.3765 -0.1745 -0.1152
49236SOL     OW56485   4.550  10.146   2.275  0.3094 -0.8502 -0.2973
49236SOL    HW156486   4.470  10.190   2.304  0.5902 -0.1566 -0.5605
49236SOL    HW256487   4.558  10.070   2.332 -0.1877 -0.5660  0.1543
49237SOL     OW56488   6.249   9.023   3.856 -0.1083  0.0375  0.1493
49237SOL    HW156489   6.187   8.965   3.811  0.9502 -0.0517 -1.2663
49237SOL    HW256490   6.308   9.052   3.787 -1.2393  3.7574  0.5144
49238SOL     OW56491   8.492   1.991  12.291 -0.0371 -0.6220  0.5906
49238SOL    HW156492   8.419   2.025  12.239 -1.4767 -0.8562  2.3628
49238SOL    HW256493   8.556   1.960  12.227 -1.2672  0.0559 -1.0112
49239SOL     OW56494  11.728   7.428   1.284 -0.9632  0.1942  0.0438
49239SOL    HW156495  11.779   7.470   1.353 -0.3660 -0.0603 -0.2361
49239SOL    HW256496  11.637   7.439   1.311 -0.7650  0.7385  0.5000
49240SOL     OW56497   7.001  11.716  11.154  0.6049 -0.0003  0.2845
49240SOL    HW156498   6.978  11.781  11.089  1.5353  1.2202  1.1219
49240SOL    HW256499   7.021  11.767  11.233  0.0929 -1.3855  1.3487
49241SOL     OW56500   2.928   9.033  10.094 -0.5380  0.3070  0.0125
49241SOL    HW156501   2.926   8.978  10.016  0.1553  0.3184 -0.0241
49241SOL    HW256502   2.842   9.074  10.097 -0.5023  0.4749 -0.8769
49242SOL     OW56503   4.841   3.154   1.799 -0.2490  0.1555  0.3740
49242SOL    HW156504   4.791   3.145   1.880  0.3302  1.6839  0.9424
49242SOL    HW256505   4.894   3.233   1.812  0.5697 -0.1050 -1.1223
49243SOL     OW56506   2.405   4.253   7.827 -0.0221 -0.2275 -0.5833
49243SOL    HW156507   2.399   4.292   7.739 -1.0922  2.6950  0.6517
49243SOL    HW256508   2.397   4.328   7.886  1.2908 -2.0203  2.0397
49244SOL     OW56509   3.649   1.499   1.076  1.0773  0.5013 -0.4553
49244SOL    HW156510   3.563   1.526   1.043  0.0805 -0.3885  1.2291
49244SOL    HW256511   3.647   1.523   1.169  3.0526  1.3197 -0.5754
49245SOL     OW56512   0.635   3.825   1.938 -0.0674 -0.2298  0.4856
49245SOL    HW156513   0.686   3.802   1.860 -0.9497  0.5490 -0.3592
49245SOL    HW256514   0.662   3.762   2.004  2.3546  0.4326  0.2380
49246SOL     OW56515   7.124   8.156   9.139  0.2450  0.5565  0.0940
49246SOL    HW156516   7.192   8.189   9.197 -0.3912  1.9899  0.0633
49246SOL    HW256517   7.126   8.061   9.151 -0.1332  0.8278  2.7918
49247SOL     OW56518   2.978   7.868   5.564 -0.2200 -0.1837 -0.4725
49247SOL    HW156519   3.057   7.920   5.559 -1.0454  1.1796  0.1168
49247SOL    HW256520   2.991   7.798   5.499  1.9138 -0.6928  0.4189
49248SOL     OW56521   1.604   0.567   8.204  0.3395 -0.7409  0.2703
49248SOL    HW156522   1.625   0.517   8.283  2.1837 -0.6636 -0.1372
49248SOL    HW256523   1.683   0.562   8.150 -0.1286  0.9950 -0.6442
49249SOL     OW56524   8.500   8.823   3.506  0.0093 -0.4762  0.4937
49249SOL    HW156525   8.518   8.908   3.465 -0.7717  0.0138  1.1192
49249SOL    HW256526   8.422   8.791   3.460  0.0026 -0.6197  0.6040
49250SOL     OW56527   3.189   4.277  11.859 -0.1769  0.1858  0.3346
49250SOL    HW156528   3.231   4.361  11.880 -1.0536  0.5000  0.8669
49250SOL    HW256529   3.237   4.246  11.782 -0.5812  1.7587 -0.6148
49251SOL     OW56530  11.305   6.271   7.148  0.1221 -0.1408 -0.0943
49251SOL    HW156531  11.337   6.184   7.172 -1.1240 -0.5207  0.2332
49251SOL    HW256532  11.221   6.255   7.105 -0.3825  0.9320  0.4620
49252SOL     OW56533   5.012   9.004   9.212 -0.0770  0.5870  0.2650
49252SOL    HW156534   5.002   9.070   9.281  1.5871  0.3468  0.7754
49252SOL    HW256535   5.038   8.925   9.258 -1.3908 -0.2702 -0.4179
49253SOL     OW56536  11.058   8.668   1.417 -0.1053 -0.0325  0.4462
49253SOL    HW156537  11.064   8.629   1.504 -1.3236 -0.2668  0.4381
49253SOL    HW256538  11.057   8.763   1.432 -0.5938 -0.0776  0.7154
49254SOL     OW56539   5.792   2.375   8.280  0.8401 -0.0200 -0.2848
49254SOL    HW156540   5.847   2.387   8.358  0.7361 -0.9604 -0.0537
49254SOL    HW256541   5.741   2.296   8.299  0.5802 -0.0713 -1.1742
49255SOL     OW56542   3.147   2.185   6.789 -0.1108 -0.0196  0.2715
49255SOL    HW156543   3.088   2.175   6.714  0.6501  0.7380 -0.4472
49255SOL    HW256544   3.192   2.101   6.796 -0.5101 -0.2452  0.1594
49256SOL     OW56545  11.190   6.528   0.042  0.0174  0.7240  0.2985
49256SOL    HW156546  11.183   6.434   0.057  0.2076  0.8036  0.9550
49256SOL    HW256547  11.254   6.536  -0.028 -0.9726  0.3184 -0.6701
49257SOL     OW56548   7.109   6.720   6.678  0.2723  0.0447 -0.7656
49257SOL    HW156549   7.117   6.813   6.699 -1.4909 -0.2914  1.8154
49257SOL    HW256550   7.198   6.685   6.689  0.5651  1.0621  0.3063
49258SOL     OW56551   9.581   3.225   1.065  0.2060  0.3867  0.4085
49258SOL    HW156552   9.503   3.187   1.105 -1.1350  1.6410 -0.8576
49258SOL    HW256553   9.626   3.269   1.137 -2.1450  2.6154  0.6924
49259SOL     OW56554  10.334  11.420   4.294  0.1754  0.1357 -0.8391
49259SOL    HW156555  10.347  11.513   4.276  0.3706  0.8380  2.3637
49259SOL    HW256556  10.381  11.375   4.224 -0.4246  2.3876 -2.8190
49260SOL     OW56557   6.427  12.519   8.409  0.3356 -0.9407 -0.0018
49260SOL    HW156558   6.464  12.587   8.352 -2.1887 -0.0017 -0.6580
49260SOL    HW256559   6.421  12.442   8.353 -1.2660 -0.2783 -0.8327
49261SOL     OW56560   1.094   4.690   6.023  0.4003  0.4899  0.6710
49261SOL    HW156561   1.017   4.665   6.074 -1.3588  0.1038 -2.0215
49261SOL    HW256562   1.140   4.607   6.008 -0.2684  0.2467 -0.1456
49262SOL     OW56563   0.099  11.838  11.048  0.5145  0.6666  0.2492
49262SOL    HW156564   0.133  11.827  11.137 -0.0743 -0.3409  0.3569
49262SOL    HW256565   0.178  11.850  10.994  1.0538 -1.0541  0.5837
49263SOL     OW56566  12.248   6.100  10.993  0.1460 -0.0157 -0.4675
49263SOL    HW156567  12.322   6.158  11.009  0.7791 -0.9110 -0.0732
49263SOL    HW256568  12.286   6.012  10.990 -1.1707 -0.7919  2.1706
49264SOL     OW56569   1.381   4.545   6.206 -0.3421  0.1044 -0.1114
49264SOL    HW156570   1.455   4.566   6.262 -0.1666  0.4081 -0.4529
49264SOL    HW256571   1.417   4.545   6.117 -0.6705 -0.1114 -0.2462
49265SOL     OW56572   9.453   8.730   0.652 -0.1356  0.5365  0.2096
49265SOL    HW156573   9.401   8.767   0.581 -0.5490  0.0662  0.2630
49265SOL    HW256574   9.445   8.635   0.641 -0.3606  0.4570  1.0039
49266SOL     OW56575   6.552   3.772   2.386  0.6159 -0.2455  0.4191
49266SOL    HW156576   6.522   3.862   2.374  3.1384  0.6580  0.2037
49266SOL    HW256577   6.500   3.721   2.324  0.5257  1.4016 -0.9540
49267SOL     OW56578   1.391  10.252   3.142 -0.0752  0.3306 -0.7544
49267SOL    HW156579   1.456  10.238   3.073 -0.2567 -3.8820 -0.2980
49267SOL    HW256580   1.311  10.212   3.109 -1.2428  1.5080  0.4818
49268SOL     OW56581   5.240   2.529  11.206  0.2403 -0.6310  0.1551
49268SOL    HW156582   5.193   2.447  11.222  1.3439 -1.5385 -1.0813
49268SOL    HW256583   5.329   2.512  11.237  0.4789  0.1030 -0.1160
49269SOL     OW56584   8.852   1.639   8.630 -0.3722 -0.0089  0.1176
49269SOL    HW156585   8.812   1.650   8.716  0.6131 -1.8495  0.8691
49269SOL    HW256586   8.794   1.578   8.584  0.6301 -1.3880  0.6129
49270SOL     OW56587   0.077   7.366  11.938  0.2882  0.1250 -0.5251
49270SOL    HW156588   0.162   7.364  11.893  0.2944 -0.3532 -0.4955
49270SOL    HW256589   0.081   7.444  11.993  0.6523  0.1862 -0.6340
49271SOL     OW56590   1.279   0.037   1.266 -0.7688 -0.2148 -0.2296
49271SOL    HW156591   1.286   0.132   1.273 -2.8821 -0.0978  1.1416
49271SOL    HW256592   1.300   0.004   1.353  1.1027 -1.1458 -0.9801
49272SOL     OW56593   8.065  12.109   0.206 -0.0112 -0.3130 -0.1624
49272SOL    HW156594   7.984  12.073   0.170 -1.3407 -0.7080  2.9092
49272SOL    HW256595   8.042  12.198   0.233  1.2619  0.3811 -1.2330
49273SOL     OW56596   1.489  11.246   4.262 -0.3468 -0.2999 -0.4789
49273SOL    HW156597   1.525  11.300   4.333 -2.4161 -0.0844  0.4674
49273SOL    HW256598   1.467  11.163   4.304  0.8788 -1.1887 -1.4931
49274SOL     OW56599   8.197   2.043   8.111  0.0497  0.1800  0.4294
49274SOL    HW156600   8.174   2.131   8.140 -0.0721 -0.3344  2.0243
49274SOL    HW256601   8.246   2.006   8.185 -0.9860 -1.5065  0.3250
49275SOL     OW56602   9.140   7.454   3.998 -0.2057  0.0598  0.0386
49275SOL    HW156603   9.145   7.548   3.984 -0.2748 -0.0559 -0.8438
49275SOL    HW256604   9.066   7.442   4.057 -0.3608  0.5343 -0.0598
49276SOL     OW56605  10.489   7.691   4.647  0.3723  0.0329 -0.4262
49276SOL    HW156606  10.396   7.703   4.626 -0.0609  1.0964  1.7747
49276SOL    HW256607  10.525   7.779   4.650  1.8209 -0.4172 -2.4522
49277SOL     OW56608   0.900   8.687   3.762 -0.0044  0.1654 -0.1087
49277SOL    HW156609   0.873   8.660   3.850 -0.7344 -0.8938 -0.6278
49277SOL    HW256610   0.990   8.655   3.755 -0.6203 -1.6267 -0.4537
49278SOL     OW56611   9.025   6.741   5.510  0.0075  0.0830  0.2162
49278SOL    HW156612   9.021   6.807   5.441 -0.9807 -0.4717 -0.2638
49278SOL    HW256613   9.080   6.671   5.474 -0.4777 -0.1897  0.0037
49279SOL     OW56614   1.114   2.541   1.236 -0.0397  0.3882 -0.1351
49279SOL    HW156615   1.185   2.480   1.216 -0.3368 -0.0672  0.1621
49279SOL    HW256616   1.146   2.592   1.310 -0.9588 -1.5635  1.7410
49280SOL     OW56617   9.779   0.921   2.366 -0.0878 -0.3007  0.1426
49280SOL    HW156618   9.861   0.894   2.408  1.5759  2.4499 -1.0327
49280SOL    HW256619   9.712   0.911   2.434  2.0277  1.5732  2.7195
49281SOL     OW56620   9.153   0.280   5.318  0.3130 -0.3705 -1.3109
49281SOL    HW156621   9.204   0.256   5.241  1.9086 -0.5208 -0.2610
49281SOL    HW256622   9.169   0.210   5.381 -1.7383 -0.7489 -1.1268
49282SOL     OW56623  12.203   4.799   0.585 -0.2980 -0.0386  0.6675
49282SOL    HW156624  12.247   4.715   0.569 -0.1880  0.2236 -0.4961
49282SOL    HW256625  12.146   4.783   0.661 -0.9876 -1.4369 -0.1113
49283SOL     OW56626   2.823   4.846   7.335 -0.2897 -0.8427  0.2902
49283SOL    HW156627   2.727   4.848   7.344 -0.2840  0.8555  0.2854
49283SOL    HW256628   2.852   4.791   7.407 -1.1710  0.4966  1.7562
49284SOL     OW56629   8.168   9.073   0.527  0.5973  0.2025 -0.2814
49284SOL    HW156630   8.218   9.037   0.601  0.6507 -1.1857 -0.9583
49284SOL    HW256631   8.081   9.032   0.535  0.2602  0.8845 -0.3809
49285SOL     OW56632   3.712   0.857   1.798  0.3601 -0.3502  0.2582
49285SOL    HW156633   3.755   0.936   1.764 -0.4752 -0.5964 -1.5150
49285SOL    HW256634   3.773   0.786   1.778  0.4899 -0.3270  0.5696
49286SOL     OW56635   7.516   6.513  11.722 -0.1219 -0.1865  0.4445
49286SOL    HW156636   7.610   6.526  11.732 -0.2572  0.7967  0.5501
49286SOL    HW256637   7.477   6.594  11.755 -0.9169  0.1102 -1.0949
49287SOL     OW56638   8.057   2.343   3.606  0.3553  0.3257  0.4321
49287SOL    HW156639   8.083   2.250   3.606  0.2278  0.2875  0.1147
49287SOL    HW256640   8.028   2.360   3.695 -1.1902 -0.3918  0.0903
49288SOL     OW56641   5.736   8.715   6.248  0.5235  0.1558 -0.3673
49288SOL    HW156642   5.793   8.782   6.285 -0.1349 -0.0969  1.1900
49288SOL    HW256643   5.683   8.762   6.183 -3.5447  2.6609  4.0201
49289SOL     OW56644  10.254  10.672   2.577  0.3294 -0.0600  0.5697
49289SOL    HW156645  10.303  10.590   2.571  0.0275 -0.1726 -0.6584
49289SOL    HW256646  10.294  10.718   2.650 -0.3105 -1.8212  2.1050
49290SOL     OW56647   5.421  12.062   6.622  0.2490  0.0805  0.1126
49290SOL    HW156648   5.327  12.081   6.630  0.3667  1.4076 -1.2536
49290SOL    HW256649   5.431  12.029   6.533  1.2742  1.3286 -0.2619
49291SOL     OW56650  10.312   4.044  10.858  0.5991  0.5072  0.0117
49291SOL    HW156651  10.271   4.082  10.936 -0.6643  0.3483 -0.5534
49291SOL    HW256652  10.388   4.100  10.842  0.0307  1.4518  0.4989
49292SOL     OW56653   0.846   3.521   7.270 -0.4254  0.2387 -0.0815
49292SOL    HW156654   0.881   3.457   7.333  0.8530 -0.2283 -1.2036
49292SOL    HW256655   0.924   3.562   7.233 -1.2109  1.8420 -0.0388
49293SOL     OW56656   5.852  10.605   1.459 -0.3292 -0.6008  0.9258
49293SOL    HW156657   5.842  10.522   1.413  0.5475 -0.7242  0.9309
49293SOL    HW256658   5.840  10.672   1.392 -0.0314 -0.7552  0.7181
49294SOL     OW56659   3.933   9.284   6.697  0.7037 -0.0867  1.0079
49294SOL    HW156660   4.025   9.309   6.708  0.5789  0.2136  1.4256
49294SOL    HW256661   3.902   9.269   6.786  0.0975  0.7533  0.9494
49295SOL     OW56662   3.792  10.058   9.033  0.4026  0.3224 -0.2028
49295SOL    HW156663   3.858  10.027   8.972  0.3003 -1.4717  0.5540
49295SOL    HW256664   3.733   9.984   9.046 -0.5465  1.1948  0.7750
49296SOL     OW56665   1.328   6.626   9.358  0.2042  0.1125 -0.1385
49296SOL    HW156666   1.356   6.663   9.441 -1.1468 -1.5576  1.1715
49296SOL    HW256667   1.408   6.617   9.307  1.2075  0.4423  1.3045
49297SOL     OW56668   5.391   8.906   4.338  0.1559 -0.1637 -0.2152
49297SOL    HW156669   5.404   8.938   4.248 -0.1945  1.1474  0.1829
49297SOL    HW256670   5.354   8.980   4.385  0.4329 -0.8020  1.0554
49298SOL     OW56671   6.304   6.822   6.731 -0.1499  0.5883  0.0788
49298SOL    HW156672   6.333   6.740   6.773 -0.7603 -0.0993 -0.8190
49298SOL    HW256673   6.210   6.811   6.720 -0.4381  1.9159  0.9964
49299SOL     OW56674   9.551   1.903   0.874 -0.5421 -0.2674  0.7245
49299SOL    HW156675   9.486   1.847   0.916 -3.2766  1.2670 -1.1315
49299SOL    HW256676   9.502   1.982   0.850  2.2564  1.3437 -0.0725
49300SOL     OW56677   5.835   1.462   8.216 -0.3486  0.0982  0.3411
49300SOL    HW156678   5.920   1.461   8.172  0.1579  2.8773  1.0699
49300SOL    HW256679   5.776   1.501   8.152 -0.3986  0.8288  0.8156
49301SOL     OW56680  11.598  11.547   2.134  0.8556 -0.2734  0.8300
49301SOL    HW156681  11.654  11.581   2.204  0.8612  0.7303  0.3575
49301SOL    HW256682  11.635  11.583   2.054  0.9366 -1.5314  0.2826
49302SOL     OW56683   6.152   1.066   7.466 -0.1630 -0.2726  0.2717
49302SOL    HW156684   6.162   1.100   7.555 -0.7716 -0.6461  0.4878
49302SOL    HW256685   6.061   1.038   7.461 -0.1997 -0.0231 -0.5549
49303SOL     OW56686   3.728   2.277  11.034  0.8461 -0.2098  0.1187
49303SOL    HW156687   3.675   2.203  11.004  1.7279 -0.3414 -1.2489
49303SOL    HW256688   3.670   2.353  11.026 -0.0054 -0.7039  1.3486
49304SOL     OW56689   2.958   0.253   2.337 -0.2053  0.0284  0.0463
49304SOL    HW156690   2.881   0.267   2.281 -0.7888  1.6559  1.1710
49304SOL    HW256691   3.028   0.301   2.292 -0.2263 -0.1384 -0.1697
49305SOL     OW56692   6.068   6.468   1.374 -0.0655  0.0135 -0.0021
49305SOL    HW156693   6.159   6.476   1.343  0.6722  0.4943  2.1160
49305SOL    HW256694   6.071   6.399   1.440 -1.3322 -0.1928 -0.1339
49306SOL     OW56695   0.319   6.423  12.326 -0.5272  0.6943  0.0807
49306SOL    HW156696   0.280   6.489  12.268  0.2008  0.1411 -1.0744
49306SOL    HW256697   0.303   6.340  12.282  0.5321  0.3065  0.3902
49307SOL     OW56698  11.355   7.630   5.542  0.1468  0.1671  0.2770
49307SOL    HW156699  11.359   7.544   5.500  0.0761  0.2500  0.0988
49307SOL    HW256700  11.273   7.629   5.591 -0.7735  0.8038 -1.2033
49308SOL     OW56701   7.816   0.010  11.262  0.2448 -0.4127  0.7395
49308SOL    HW156702   7.751  -0.030  11.320 -0.0705 -0.4154  0.3865
49308SOL    HW256703   7.893  -0.047  11.269  0.2669 -0.3230  1.2771
49309SOL     OW56704   2.601  12.359   4.772 -0.2088  0.3846 -0.5187
49309SOL    HW156705   2.593  12.313   4.856  2.0544  0.8358  0.0185
49309SOL    HW256706   2.529  12.422   4.773  0.1521  0.8516  1.4478
49310SOL     OW56707   4.945   4.275   7.731  0.3340 -0.7823  0.2459
49310SOL    HW156708   4.995   4.258   7.651 -0.7177  1.5143 -0.9845
49310SOL    HW256709   4.854   4.280   7.702 -0.1611 -0.7728  1.7435
49311SOL     OW56710   4.251  12.583   9.276 -0.0373 -0.1878 -0.0012
49311SOL    HW156711   4.304  12.549   9.204  1.2064  1.0252  0.2983
49311SOL    HW256712   4.179  12.628   9.233  0.7026  0.5370 -0.5164
49312SOL     OW56713  10.677  10.424   4.385 -0.7142  0.4562  0.2301
49312SOL    HW156714  10.751  10.386   4.433  0.8067  3.0273  0.1252
49312SOL    HW256715  10.607  10.432   4.450  0.3194  1.1969  1.2891
49313SOL     OW56716  11.373   5.418   6.941  0.1131  0.5952 -0.4758
49313SOL    HW156717  11.458   5.397   6.980  0.4845  0.7753 -1.1866
49313SOL    HW256718  11.310   5.371   6.996  0.5292  1.6938  0.9951
49314SOL     OW56719   0.204  10.435   8.079 -0.2605  0.6097 -0.3936
49314SOL    HW156720   0.215  10.344   8.105  1.2665  1.1999  1.2582
49314SOL    HW256721   0.286  10.458   8.034 -0.6539  1.1505 -0.8542
49315SOL     OW56722   1.199   3.843  10.063 -0.0469  0.3178  0.5865
49315SOL    HW156723   1.224   3.751  10.050  0.9508  0.7584 -0.7565
49315SOL    HW256724   1.161   3.844  10.151 -0.5990 -1.4837  0.4284
49316SOL     OW56725   6.515  11.084   7.273 -0.2432 -0.2778 -0.1265
49316SOL    HW156726   6.469  11.020   7.218 -0.9503 -1.1030  1.3628
49316SOL    HW256727   6.605  11.084   7.240 -1.0768  0.8762 -2.6830
49317SOL     OW56728   8.503   6.618   9.225 -0.0342  0.1295  0.0343
49317SOL    HW156729   8.440   6.546   9.221 -0.9605  0.9216 -0.0728
49317SOL    HW256730   8.572   6.593   9.163 -0.1109 -0.8615  0.3251
49318SOL     OW56731   6.721   9.481   6.711  0.1837  0.2748 -0.1017
49318SOL    HW156732   6.631   9.494   6.680  0.0564 -0.2903  0.0273
49318SOL    HW256733   6.771   9.550   6.667 -0.4678  1.1948  0.5404
49319SOL     OW56734  11.389  12.110   1.381 -0.1600  0.5984 -0.0897
49319SOL    HW156735  11.456  12.073   1.323 -1.5719 -0.9569 -0.8101
49319SOL    HW256736  11.385  12.203   1.356  0.3046  0.2711 -1.4523
49320SOL     OW56737   8.910   0.370   1.970 -0.1709  0.3391 -0.3722
49320SOL    HW156738   8.975   0.312   1.931 -1.7203 -2.8208  1.3624
49320SOL    HW256739   8.934   0.373   2.063 -0.2565  2.4320 -0.3723
49321SOL     OW56740  12.364   4.007  10.353 -0.3087 -0.1672  0.0022
49321SOL    HW156741  12.444   4.059  10.346  0.1672 -0.4906  2.1529
49321SOL    HW256742  12.299   4.069  10.386 -0.7410 -0.0986 -0.9580
49322SOL     OW56743   1.943   1.941  10.353 -0.0594  0.2250  0.3646
49322SOL    HW156744   1.932   2.025  10.398 -1.8732  1.0979 -1.5607
49322SOL    HW256745   1.859   1.897  10.366  0.4015 -0.7146  0.1867
49323SOL     OW56746   1.790  11.158   6.843 -0.4180  0.0494 -0.0215
49323SOL    HW156747   1.707  11.130   6.882 -0.2861  1.8200  1.7061
49323SOL    HW256748   1.833  11.077   6.816 -1.1334 -1.2046  2.3779
49324SOL     OW56749   3.900   6.384  12.003  0.2441 -0.0181  0.1818
49324SOL    HW156750   3.815   6.389  12.047  1.4631  0.7247  2.6426
49324SOL    HW256751   3.963   6.404  12.072  2.7335 -3.9543 -0.6535
49325SOL     OW56752   3.985   9.965   4.620 -0.1640  0.8312  0.1141
49325SOL    HW156753   3.978   9.872   4.597  1.5110  0.9410 -1.0407
49325SOL    HW256754   4.009   9.965   4.713  0.4270  0.0681 -0.0286
49326SOL     OW56755   2.010   8.549   9.962 -0.1135 -0.0889 -0.2676
49326SOL    HW156756   2.098   8.513   9.953  0.0201  0.1386  0.0851
49326SOL    HW256757   2.024   8.642   9.979 -0.3853 -0.1828  0.5327
49327SOL     OW56758   7.442   4.284   4.306 -0.0603 -0.0886 -0.7666
49327SOL    HW156759   7.495   4.364   4.303 -0.8123  0.4076 -3.2566
49327SOL    HW256760   7.361   4.310   4.349 -0.1765  0.4450 -1.2907
49328SOL     OW56761   3.781   2.831  11.013 -0.2363 -0.0310  0.2259
49328SOL    HW156762   3.827   2.908  11.048 -1.5661  0.1639  1.6648
49328SOL    HW256763   3.845   2.760  11.018  1.2476  1.0716 -1.7595
49329SOL     OW56764   0.530   3.318   6.308 -0.1458  0.1131  0.1120
49329SOL    HW156765   0.606   3.276   6.268 -0.1224  0.6392 -0.3924
49329SOL    HW256766   0.457   3.294   6.251 -0.0859  0.9969 -0.3572
49330SOL     OW56767   0.180   1.095  11.619 -0.3172 -0.2782 -0.1390
49330SOL    HW156768   0.156   1.082  11.711 -1.1722 -1.3589 -0.4824
49330SOL    HW256769   0.096   1.111  11.575  0.2394  1.9178 -0.5019
49331SOL     OW56770   7.708   2.162  11.559 -0.2643 -0.0577 -0.1050
49331SOL    HW156771   7.757   2.178  11.478 -0.6164  3.3943  0.2277
49331SOL    HW256772   7.756   2.092  11.603  2.2489  0.6821 -1.4940
49332SOL     OW56773  10.225   4.244   5.753  0.1909 -0.3167 -0.2382
49332SOL    HW156774  10.314   4.274   5.769 -0.6286  1.7947  0.9353
49332SOL    HW256775  10.174   4.325   5.745 -1.8648 -1.4310  0.7578
49333SOL     OW56776   1.715   3.566  12.576  0.2954  0.0260  0.1641
49333SOL    HW156777   1.703   3.559  12.671  1.5871  1.2072  0.4514
49333SOL    HW256778   1.731   3.476  12.547 -0.8463 -0.4517  0.9317
49334SOL     OW56779   2.656   1.214   7.423  0.2957  0.0578 -0.0100
49334SOL    HW156780   2.634   1.233   7.332 -0.5248 -3.0755 -0.5762
49334SOL    HW256781   2.751   1.223   7.427  0.3256  0.4177 -1.1226
49335SOL     OW56782   5.797   1.987   5.514  0.0358  0.9675  0.0453
49335SOL    HW156783   5.758   2.072   5.532 -1.3386  0.3290  0.2400
49335SOL    HW256784   5.724   1.925   5.524  0.8086 -0.1379 -0.9081
49336SOL     OW56785   5.864   1.203   5.119  0.0143 -0.4578 -0.3481
49336SOL    HW156786   5.773   1.200   5.148 -0.6561 -0.9424 -2.3320
49336SOL    HW256787   5.905   1.269   5.174 -2.1589  1.6134 -1.0149
49337SOL     OW56788   0.452  10.070   3.278  0.2489 -0.4140  0.4820
49337SOL    HW156789   0.415  10.121   3.206 -0.7280 -1.6851  0.0465
49337SOL    HW256790   0.471   9.984   3.240  2.0268 -0.3750  1.1493
49338SOL     OW56791   9.008   9.007   2.727  0.3367 -0.3503 -0.1109
49338SOL    HW156792   8.992   8.944   2.657  1.0780  0.2721 -0.8532
49338SOL    HW256793   8.938   9.071   2.718  1.0398  0.3237 -0.9927
49339SOL     OW56794   5.023  10.358   5.244 -0.0290  0.3883  0.0114
49339SOL    HW156795   4.951  10.295   5.252  0.3826 -0.0174  0.5865
49339SOL    HW256796   4.994  10.434   5.294 -0.5793  0.7227 -0.7836
49340SOL     OW56797   2.028  10.919   6.294 -0.2858 -0.3988 -0.1544
49340SOL    HW156798   1.969  10.923   6.219 -0.3488  1.0751 -0.0494
49340SOL    HW256799   2.060  11.008   6.304  0.3711 -0.7514  1.0613
49341SOL     OW56800   2.273   6.424   9.239 -0.3481  0.1801 -0.6160
49341SOL    HW156801   2.189   6.394   9.205  0.0072 -1.3382 -0.2241
49341SOL    HW256802   2.338   6.368   9.197  0.1838 -1.0846  1.7041
49342SOL     OW56803   3.918   7.821   6.807 -0.1467  0.2795  0.4685
49342SOL    HW156804   3.898   7.741   6.757 -0.5326  0.3998  0.4290
49342SOL    HW256805   3.963   7.878   6.744  1.3005 -0.4024  0.8361
49343SOL     OW56806   1.643   8.096   0.002  0.1664 -0.4321  0.1308
49343SOL    HW156807   1.657   8.017   0.054 -3.0108 -2.0354 -1.1747
49343SOL    HW256808   1.555   8.126   0.027  0.6299  1.7447 -0.6377
49344SOL     OW56809   3.428   7.645   9.982 -0.8401 -0.0392  0.5709
49344SOL    HW156810   3.347   7.599  10.001 -0.4322 -0.9556  0.1599
49344SOL    HW256811   3.460   7.673  10.068 -1.8610  0.8264  0.6860
49345SOL     OW56812   6.027   5.768   5.858 -0.5713  0.2199  0.2111
49345SOL    HW156813   6.053   5.681   5.891  1.0572  0.7585  0.4648
49345SOL    HW256814   5.933   5.773   5.875 -0.3827 -0.8074  1.8606
49346SOL     OW56815   2.331   0.242  12.093 -0.1517  0.2154 -0.0387
49346SOL    HW156816   2.400   0.178  12.115  0.5115  0.8154 -0.3189
49346SOL    HW256817   2.263   0.190  12.050 -0.2381 -0.5215  0.9584
49347SOL     OW56818   9.563   6.757   6.421 -0.6835 -0.0372 -0.4702
49347SOL    HW156819   9.526   6.746   6.334 -0.2006 -0.1875 -0.6586
49347SOL    HW256820   9.658   6.747   6.409 -0.4817  1.1888 -0.1533
49348SOL     OW56821   1.790  11.108   1.434 -0.4898  0.1745 -0.3871
49348SOL    HW156822   1.743  11.062   1.504 -1.8692  0.0138 -1.3765
49348SOL    HW256823   1.880  11.114   1.465 -0.5990 -1.8496  0.4253
49349SOL     OW56824  11.163   2.774  11.693 -0.3349  0.0486 -0.2877
49349SOL    HW156825  11.193   2.810  11.776  0.0258 -1.5820  0.3217
49349SOL    HW256826  11.110   2.843  11.655 -0.9770  0.6362  1.5669
49350SOL     OW56827   4.213   9.337  12.577  0.1142  0.3853  0.3487
49350SOL    HW156828   4.219   9.302  12.488  0.7156 -1.1436  0.9476
49350SOL    HW256829   4.126   9.310  12.606  0.2275  0.1789  0.4973
49351SOL     OW56830   8.533  10.324   1.972 -0.2287 -0.3774  0.2093
49351SOL    HW156831   8.489  10.408   1.980 -1.2469 -0.4431 -3.0422
49351SOL    HW256832   8.474  10.262   2.016 -0.6065  0.2960  0.6641
49352SOL     OW56833   7.929   9.390  12.079 -0.0279 -0.0813  0.4242
49352SOL    HW156834   7.867   9.458  12.051  0.1938 -0.0812 -0.0789
49352SOL    HW256835   7.875   9.312  12.089 -0.6372  0.5522  2.8227
49353SOL     OW56836  11.133   7.035   7.898 -0.3562  0.1932 -0.5349
49353SOL    HW156837  11.102   7.097   7.832  0.0652  1.7988  0.7343
49353SOL    HW256838  11.228   7.046   7.899 -0.4513  1.2061  1.2558
49354SOL     OW56839   6.959  10.556   6.876 -0.0352  0.5556 -0.1953
49354SOL    HW156840   6.877  10.516   6.906 -0.8741 -0.3190 -3.2059
49354SOL    HW256841   7.021  10.484   6.873  0.6573  1.0600  1.3365
49355SOL     OW56842   2.277   1.094   0.409 -0.5041 -0.4468  0.4150
49355SOL    HW156843   2.290   1.188   0.422  0.0492 -0.4570  0.0104
49355SOL    HW256844   2.218   1.087   0.334  0.5677 -0.4157 -0.4647
49356SOL     OW56845   7.331   9.951   4.180 -0.0827  0.0105 -0.4782
49356SOL    HW156846   7.312   9.869   4.135  0.2968 -0.1626 -0.3267
49356SOL    HW256847   7.271   9.953   4.255  2.0972 -1.7479  1.4867
49357SOL     OW56848   5.126  10.776   9.615  0.4863 -0.3360  0.1951
49357SOL    HW156849   5.094  10.861   9.647  1.0663 -0.3832  0.9271
49357SOL    HW256850   5.054  10.742   9.562  1.2230  1.8266 -2.4305
49358SOL     OW56851   9.585   2.328   3.126 -0.4356  0.1049 -0.4416
49358SOL    HW156852   9.492   2.307   3.127 -0.5116  0.1550 -2.4097
49358SOL    HW256853   9.591   2.413   3.169 -2.0478  2.4373 -4.2667
49359SOL     OW56854  11.613   6.762   0.677  0.5607 -0.2346  0.1386
49359SOL    HW156855  11.651   6.847   0.699  0.0540 -0.0341  0.2696
49359SOL    HW256856  11.687   6.708   0.652  0.8236  0.4443 -0.5798
49360SOL     OW56857   5.568   4.087   9.602  0.3785  0.5448 -0.1029
49360SOL    HW156858   5.628   4.042   9.661  1.7751  2.3380 -0.0571
49360SOL    HW256859   5.624   4.118   9.531 -0.9662  0.0127 -1.4517
49361SOL     OW56860   5.337   3.794   4.566 -0.5989 -0.4569  0.0965
49361SOL    HW156861   5.314   3.872   4.516 -0.2998  2.1771  3.6161
49361SOL    HW256862   5.430   3.783   4.552 -0.5552  0.1255 -0.1094
49362SOL     OW56863  10.815   2.457   5.879  0.5882 -0.3243 -0.2741
49362SOL    HW156864  10.734   2.441   5.831  1.0538 -1.0283 -0.8538
49362SOL    HW256865  10.860   2.372   5.877  1.7497  0.2915 -0.7434
49363SOL     OW56866   5.559   4.837   6.364 -0.0717  0.2686  0.5221
49363SOL    HW156867   5.511   4.785   6.300 -0.2907 -0.0720  0.9607
49363SOL    HW256868   5.635   4.784   6.386 -0.5129 -0.0684  1.2849
49364SOL     OW56869   1.820   2.318  11.029  0.2376 -0.0388  0.2550
49364SOL    HW156870   1.729   2.294  11.041 -0.3573  0.2459 -2.7724
49364SOL    HW256871   1.863   2.238  10.998  0.1901  0.5680 -1.5287
49365SOL     OW56872   5.378   1.165   5.364 -0.4612 -0.8446  0.2650
49365SOL    HW156873   5.290   1.192   5.337 -1.0315  0.5820  3.1472
49365SOL    HW256874   5.365   1.080   5.406 -0.5406 -0.4710  1.0053
49366SOL     OW56875   4.713  12.199   9.424 -0.7274  0.0194  0.1207
49366SOL    HW156876   4.726  12.281   9.472  1.1696 -0.0505 -0.2020
49366SOL    HW256877   4.723  12.131   9.490  1.0152 -0.0416 -0.1542
49367SOL     OW56878   0.255   3.488   2.660  0.3303 -0.0454 -0.2224
49367SOL    HW156879   0.299   3.573   2.654 -1.4079  0.9121 -0.0294
49367SOL    HW256880   0.286   3.440   2.583 -1.8871  2.4045 -2.8401
49368SOL     OW56881   9.271   9.067   3.110  0.1253 -0.0323  0.0206
49368SOL    HW156882   9.193   9.013   3.099 -0.2167 -0.3304  3.0590
49368SOL    HW256883   9.255   9.144   3.056 -0.2440 -1.9614 -2.8522
49369SOL     OW56884   2.118   7.075   9.995 -0.3371 -0.8245 -0.5014
49369SOL    HW156885   2.130   7.061  10.089  1.2893  0.8940 -0.3805
49369SOL    HW256886   2.206   7.066   9.958  0.0514  3.1663 -1.0764
49370SOL     OW56887   8.182   3.524  11.898 -0.2016  0.0811  0.0334
49370SOL    HW156888   8.260   3.580  11.903  0.8500 -1.4446  1.6395
49370SOL    HW256889   8.199   3.467  11.823  0.0375  0.0171  0.1360
49371SOL     OW56890   8.656   6.303   6.995  0.8316 -0.0574 -0.3487
49371SOL    HW156891   8.674   6.256   7.077 -2.0183  0.6506  0.8258
49371SOL    HW256892   8.709   6.382   7.000 -0.5146  0.8034  1.7244
49372SOL     OW56893   0.001   1.974  12.455  0.1765 -0.2559  0.1268
49372SOL    HW156894  -0.053   1.967  12.376 -0.5876  1.4543  0.4440
49372SOL    HW256895   0.090   1.987  12.422 -0.3973  2.5493 -0.5783
49373SOL     OW56896   9.848   0.435   4.146  0.1771  0.0623 -0.5399
49373SOL    HW156897   9.772   0.435   4.203  0.3074  0.2700 -0.3632
49373SOL    HW256898   9.923   0.446   4.205  0.3334 -0.0108 -0.7219
49374SOL     OW56899   1.451  11.613   5.438 -0.1586  0.1954 -0.3063
49374SOL    HW156900   1.364  11.602   5.401  0.4846 -3.5872 -1.0756
49374SOL    HW256901   1.501  11.659   5.370 -1.3122  1.7447 -0.1418
49375SOL     OW56902   6.162   7.464   4.117  0.0569  0.1340 -0.6410
49375SOL    HW156903   6.219   7.515   4.174  0.3599 -0.6105 -0.2663
49375SOL    HW256904   6.104   7.416   4.177  0.2832 -0.5425 -0.9497
49376SOL     OW56905   0.548   0.061  11.472 -0.7001 -0.1101  0.0344
49376SOL    HW156906   0.563   0.088  11.562 -1.2047  0.1158  0.0548
49376SOL    HW256907   0.539  -0.035  11.477 -2.4328  0.0496  0.4861
49377SOL     OW56908   4.046   8.818   4.945 -0.1132 -0.0590 -0.0189
49377SOL    HW156909   4.116   8.787   5.002 -0.0705 -1.2842 -0.7061
49377SOL    HW256910   4.070   8.909   4.925  0.8547 -0.2101  0.3851
49378SOL     OW56911   9.880   3.437  10.314  0.0721 -0.4809  0.3571
49378SOL    HW156912   9.837   3.437  10.229  0.3239  1.4371  0.1890
49378SOL    HW256913   9.933   3.357  10.314 -1.7167 -1.7432 -0.3124
49379SOL     OW56914   4.639   4.769   1.027 -0.0573 -0.2048 -0.2771
49379SOL    HW156915   4.690   4.755   0.948  0.2509  1.3611 -0.3891
49379SOL    HW256916   4.700   4.755   1.099 -0.2587 -1.3209 -0.3154
49380SOL     OW56917   8.417   0.101   2.770  0.1841 -0.3935  0.5035
49380SOL    HW156918   8.400   0.188   2.733  2.4259  0.1465  0.6195
49380SOL    HW256919   8.354   0.044   2.726 -0.1462  0.9854 -0.9073
49381SOL     OW56920   3.778   3.204   5.102  0.4123 -0.5014 -0.0248
49381SOL    HW156921   3.720   3.260   5.051 -0.6324 -0.8778  0.7064
49381SOL    HW256922   3.733   3.119   5.105  1.7044 -1.2417 -0.6522
49382SOL     OW56923   3.009  10.461   2.144 -0.9357  0.1367  0.8012
49382SOL    HW156924   2.969  10.455   2.057  0.1425 -0.1873  0.3112
49382SOL    HW256925   3.084  10.519   2.132  1.3459 -2.6237  0.6486
49383SOL     OW56926   4.301   0.231   3.916  0.6210  0.2006  0.0235
49383SOL    HW156927   4.304   0.326   3.923 -2.2938  0.3312  1.0040
49383SOL    HW256928   4.240   0.203   3.985 -1.9016 -1.9081 -2.7397
49384SOL     OW56929   1.622   0.108  11.863  0.3244 -0.0275 -0.2155
49384SOL    HW156930   1.708   0.121  11.902 -0.0426 -2.1034  1.4625
49384SOL    HW256931   1.626   0.155  11.780  3.4651 -1.0157 -0.7457
49385SOL     OW56932   4.870   1.737   2.215  0.2723 -0.0247 -0.2929
49385SOL    HW156933   4.909   1.650   2.208  0.3634 -0.1643  1.5390
49385SOL    HW256934   4.780   1.726   2.183 -0.2810 -1.2411  1.5186
49386SOL     OW56935   8.262   1.031  12.430  0.2130  0.2850  0.6759
49386SOL    HW156936   8.296   0.946  12.459 -0.7948  0.2272  1.7279
49386SOL    HW256937   8.332   1.093  12.451  0.4438 -0.1056  1.0711
49387SOL     OW56938   7.357   3.422   6.768  0.9653 -0.1079 -0.2495
49387SOL    HW156939   7.318   3.472   6.696  0.8895  0.8045  0.4034
49387SOL    HW256940   7.282   3.386   6.816  0.9448  0.7333  0.3693
49388SOL     OW56941   0.446   5.308  11.824 -0.0493 -0.2115 -0.1581
49388SOL    HW156942   0.514   5.247  11.794  0.0510  0.0732 -0.5238
49388SOL    HW256943   0.487   5.394  11.815 -0.3095 -0.0675  0.0360
49389SOL     OW56944  11.922   4.847  11.431  0.0412  0.0074  0.5113
49389SOL    HW156945  12.017   4.861  11.428  0.2391 -1.3507 -0.0747
49389SOL    HW256946  11.895   4.842  11.340 -0.3927 -0.8301  0.6755
49390SOL     OW56947  10.261   1.148   8.916  0.1476 -0.8539  0.6540
49390SOL    HW156948  10.269   1.060   8.952 -0.4635 -1.9129 -1.6323
49390SOL    HW256949  10.313   1.146   8.836  0.3903  0.9857  0.7260
49391SOL     OW56950   6.762   2.579   0.985 -0.1586  0.6497  0.3411
49391SOL    HW156951   6.809   2.498   1.008 -0.8318 -0.3671 -1.6320
49391SOL    HW256952   6.747   2.572   0.891 -1.4637  2.4519  0.3692
49392SOL     OW56953   1.479   7.902  10.801 -0.1705  0.5193  0.5394
49392SOL    HW156954   1.415   7.959  10.843 -1.4782 -1.1825  0.9649
49392SOL    HW256955   1.543   7.883  10.869 -0.0196  1.0492  0.5473
49393SOL     OW56956   6.406   6.384   2.555  0.1010  0.1518 -0.3467
49393SOL    HW156957   6.387   6.392   2.461  2.0092  1.8933 -0.6626
49393SOL    HW256958   6.323   6.406   2.598 -0.9458 -1.1896 -1.5863
49394SOL     OW56959  10.261  11.089   2.487 -0.2101  0.1016 -0.2538
49394SOL    HW156960  10.310  11.087   2.405  0.7904  0.3440  0.3224
49394SOL    HW256961  10.328  11.090   2.555 -0.9836 -2.2705  0.6509
49395SOL     OW56962   8.275   5.754   3.554 -0.1877  0.2850 -0.5763
49395SOL    HW156963   8.226   5.784   3.477 -1.3419 -1.4180 -0.5571
49395SOL    HW256964   8.361   5.730   3.519 -0.1986  0.9443 -1.0710
49396SOL     OW56965   2.666   4.397  12.254  0.0755 -0.1202 -0.1679
49396SOL    HW156966   2.722   4.473  12.237  1.3183 -0.5300  1.8195
49396SOL    HW256967   2.596   4.430  12.310 -0.4409 -0.0818 -0.8194
49397SOL     OW56968   4.330   8.978   4.738  0.4584 -0.6653  0.0423
49397SOL    HW156969   4.291   9.064   4.757  2.4409  0.4644 -0.7725
49397SOL    HW256970   4.255   8.918   4.737 -0.7929  0.6460  2.6479
49398SOL     OW56971  11.562   9.488   9.657 -0.7696  0.1434 -0.0064
49398SOL    HW156972  11.498   9.559   9.659  2.6754  3.5784  0.6079
49398SOL    HW256973  11.593   9.486   9.567 -2.0403 -1.9109 -0.4465
49399SOL     OW56974  11.015   2.754   6.678  0.1092 -0.0051 -0.1834
49399SOL    HW156975  10.938   2.781   6.628 -0.1166 -1.0378 -0.4172
49399SOL    HW256976  10.981   2.696   6.745  0.2676  2.1100  1.8759
49400SOL     OW56977   5.980   4.506  11.470 -0.1320  0.0758 -0.1823
49400SOL    HW156978   6.021   4.435  11.519  1.5432  1.1091 -0.0218
49400SOL    HW256979   5.928   4.553  11.535 -1.5045 -1.1380 -0.3503
49401SOL     OW56980   4.503   1.157   0.871  0.2635 -0.5684  0.1829
49401SOL    HW156981   4.423   1.107   0.857  0.3276 -0.6831  0.2231
49401SOL    HW256982   4.553   1.146   0.790 -0.0580  0.0606 -0.1066
49402SOL     OW56983   5.975  11.725   5.259 -0.2060  0.0843 -0.0007
49402SOL    HW156984   5.888  11.738   5.221  0.4671  0.0486 -1.6536
49402SOL    HW256985   5.976  11.633   5.288 -0.1695 -0.4479 -1.5874
49403SOL     OW56986  11.664   2.569  11.409  0.0939 -0.0260 -0.2205
49403SOL    HW156987  11.716   2.611  11.477 -0.6884  1.1825 -0.3377
49403SOL    HW256988  11.668   2.475  11.430  1.1448  0.1819  0.5635
49404SOL     OW56989  10.121   5.201  11.605 -0.2868 -0.6703  0.6679
49404SOL    HW156990  10.108   5.278  11.661  0.7087  0.3297 -0.4043
49404SOL    HW256991  10.200   5.159  11.639  0.1647 -0.2135  0.2094
49405SOL     OW56992   9.877   6.917  11.406  0.1276  0.3440 -0.2246
49405SOL    HW156993   9.902   6.980  11.474 -0.0615 -0.4201  0.5741
49405SOL    HW256994   9.846   6.840  11.455  0.0615 -0.2508 -1.1800
49406SOL     OW56995  10.298   5.366   1.769 -0.6000 -0.5697 -0.0979
49406SOL    HW156996  10.321   5.454   1.799 -0.9715 -0.4804 -0.0614
49406SOL    HW256997  10.369   5.342   1.710 -2.0469  1.1001 -2.7370
49407SOL     OW56998   5.435  11.985   4.557  0.0984 -0.1306  0.0772
49407SOL    HW156999   5.465  11.923   4.624 -1.0191  1.5966  2.3030
49407SOL    HW257000   5.358  12.027   4.596 -1.5232 -0.0614 -2.9195
49408SOL     OW57001   9.796   4.218   5.936 -0.2290 -0.0492  0.0841
49408SOL    HW157002   9.715   4.248   5.896 -0.3749 -1.9307 -1.1468
49408SOL    HW257003   9.772   4.196   6.026 -1.1718 -0.8456 -0.3460
49409SOL     OW57004   1.858   6.916   8.629 -0.3735 -0.5292  0.6532
49409SOL    HW157005   1.882   6.837   8.581  0.5728 -0.9653  1.7772
49409SOL    HW257006   1.771   6.939   8.597 -0.4723 -1.7709 -0.0173
49410SOL     OW57007   1.328   4.606  10.327 -0.8341 -0.0992 -0.0143
49410SOL    HW157008   1.276   4.532  10.360 -2.2121  0.8577  0.0413
49410SOL    HW257009   1.319   4.601  10.232  0.2243 -0.7830 -0.1006
49411SOL     OW57010   7.537   8.558   7.598  0.1545  0.2298  0.0383
49411SOL    HW157011   7.601   8.502   7.554  0.6490 -1.0256  2.1968
49411SOL    HW257012   7.581   8.642   7.609  0.2709  0.3433 -1.1766
49412SOL     OW57013   0.684   6.267   1.295 -0.2522 -0.1388  0.6330
49412SOL    HW157014   0.740   6.286   1.370 -1.1459 -0.2029  1.3347
49412SOL    HW257015   0.606   6.226   1.332 -0.3271 -1.0152 -0.4196
49413SOL     OW57016   5.969   6.902  11.938 -0.5014 -0.6674 -0.3376
49413SOL    HW157017   5.949   6.849  11.861 -1.5749 -1.5000  0.4902
49413SOL    HW257018   5.910   6.977  11.931 -1.8285 -1.6055  0.5415
49414SOL     OW57019  10.794  12.468  10.938 -0.1986 -0.3318 -0.0973
49414SOL    HW157020  10.860  12.522  10.982  0.8435 -2.0883  0.5849
49414SOL    HW257021  10.712  12.513  10.956  0.5197  0.5419  1.2222
49415SOL     OW57022   7.331   0.364   7.490  0.2034  0.0265 -0.0981
49415SOL    HW157023   7.395   0.318   7.544  0.4600 -1.3967 -1.5432
49415SOL    HW257024   7.295   0.431   7.548  3.0876  1.0005  0.7373
49416SOL     OW57025   4.612  10.196   2.953  0.3643 -0.5418 -0.0018
49416SOL    HW157026   4.575  10.269   3.004 -0.4383 -0.3849 -0.7987
49416SOL    HW257027   4.536  10.146   2.923  0.9002 -1.6020  0.3554
49417SOL     OW57028  12.144   6.058   4.683 -0.1499 -0.5440 -0.0391
49417SOL    HW157029  12.063   6.032   4.640 -1.7873  2.0235  1.2644
49417SOL    HW257030  12.195   6.100   4.613 -1.2012  0.3814 -0.2681
49418SOL     OW57031   5.607   6.794   5.166 -0.2168  0.1446  0.2721
49418SOL    HW157032   5.542   6.760   5.226  0.4561 -2.1548 -0.1817
49418SOL    HW257033   5.691   6.772   5.206  0.2711  1.0728 -0.1956
49419SOL     OW57034   0.441   7.353   3.143 -0.3100  0.4557  0.2345
49419SOL    HW157035   0.529   7.316   3.152 -1.1673 -2.2987 -1.3419
49419SOL    HW257036   0.436   7.420   3.211  1.9431 -1.4166  2.4685
49420SOL     OW57037   9.556   8.115   5.441 -0.3063 -0.1784  0.0469
49420SOL    HW157038   9.489   8.067   5.392  0.1358  1.1222 -1.9881
49420SOL    HW257039   9.513   8.197   5.466  0.2440  0.2952 -0.5157
49421SOL     OW57040  11.182   5.847   2.079  0.2162 -0.1038 -0.5092
49421SOL    HW157041  11.098   5.801   2.083  0.3043 -0.2035  2.8465
49421SOL    HW257042  11.162   5.931   2.037 -1.1853 -0.7946 -1.2816
49422SOL     OW57043   0.548   8.597   6.303  0.6023 -0.0588 -0.0403
49422SOL    HW157044   0.489   8.538   6.350  1.3071 -1.2607 -0.6144
49422SOL    HW257045   0.506   8.611   6.218 -0.3930  1.6555  0.7049
49423SOL     OW57046  12.120  11.311   7.919 -0.2017 -0.6294 -0.0711
49423SOL    HW157047  12.059  11.325   7.846  0.7748 -1.5379 -1.1121
49423SOL    HW257048  12.193  11.262   7.880  0.4462 -0.9741  1.4874
49424SOL     OW57049   9.637   4.541   6.070 -0.1093  0.2274 -0.0558
49424SOL    HW157050   9.647   4.458   6.117 -0.2575  0.8725  1.1559
49424SOL    HW257051   9.571   4.523   6.003  0.5327 -0.8775 -0.4123
49425SOL     OW57052   0.508   7.187   2.426  0.1803  0.3259 -0.8749
49425SOL    HW157053   0.503   7.209   2.333 -0.3696 -1.7816 -1.4185
49425SOL    HW257054   0.424   7.215   2.463 -0.6945 -1.1809 -1.6365
49426SOL     OW57055   7.013  10.563   8.998 -0.6104  0.5990  0.1536
49426SOL    HW157056   7.034  10.568   8.904 -0.1977  0.0890  0.2117
49426SOL    HW257057   6.929  10.517   9.001 -0.4796  0.3476  0.0457
49427SOL     OW57058   2.115   8.681   3.126 -0.5486 -0.4860 -0.3156
49427SOL    HW157059   2.049   8.748   3.110 -0.5246 -0.3651  0.0754
49427SOL    HW257060   2.138   8.691   3.219 -1.8019 -2.1478  0.2274
49428SOL     OW57061  12.247   6.579   5.098  0.0941  0.2127 -0.3252
49428SOL    HW157062  12.256   6.547   5.188 -1.4825  0.6366  0.0198
49428SOL    HW257063  12.293   6.514   5.045  0.7422 -0.2393  0.7526
49429SOL     OW57064   1.727  12.404   7.410 -0.2420 -0.0973 -0.1757
49429SOL    HW157065   1.706  12.329   7.465 -1.1021 -0.5140 -1.0370
49429SOL    HW257066   1.813  12.384   7.374 -0.8853 -1.1812 -1.1952
49430SOL     OW57067  10.838  10.769  11.373  0.6300 -0.1810  0.5586
49430SOL    HW157068  10.757  10.728  11.343  1.1808  0.9223 -2.9059
49430SOL    HW257069  10.828  10.861  11.350  2.2718  0.2732  1.4888
49431SOL     OW57070  10.575   4.711   3.598  0.2245 -0.1305  0.3687
49431SOL    HW157071  10.540   4.631   3.558  0.2971 -0.5148  1.0594
49431SOL    HW257072  10.587   4.688   3.690  1.4314  0.2788  0.3256
49432SOL     OW57073   0.640   5.850   1.602  0.0881  0.3530 -0.0357
49432SOL    HW157074   0.711   5.909   1.630 -2.0652  3.2257 -0.1739
49432SOL    HW257075   0.636   5.862   1.507 -0.6435  0.2994 -0.0129
49433SOL     OW57076   2.162   7.042   8.902 -0.0034  0.0825 -0.1086
49433SOL    HW157077   2.102   6.969   8.918  0.2633 -0.0346  0.3577
49433SOL    HW257078   2.248   7.008   8.925  0.0629  0.6898  0.5596
49434SOL     OW57079   8.154   0.128   8.452  0.5753  0.1839 -0.3700
49434SOL    HW157080   8.169   0.198   8.389 -1.1647  0.3249 -0.6646
49434SOL    HW257081   8.166   0.169   8.537 -1.1569  1.0918 -0.5152
49435SOL     OW57082   9.054   1.903   6.836  0.1306  0.2180  0.1626
49435SOL    HW157083   9.042   1.808   6.839  1.4261  0.0504  0.4904
49435SOL    HW257084   8.993   1.937   6.900  0.1071 -0.4456  0.5010
49436SOL     OW57085   0.983   5.637   4.287 -0.2987  0.5252  0.1150
49436SOL    HW157086   1.028   5.556   4.312 -3.1161 -0.5618  2.1473
49436SOL    HW257087   0.986   5.637   4.191 -0.6960 -2.3555  0.0084
49437SOL     OW57088   8.222   4.585   4.508  0.0883  0.2363  0.0185
49437SOL    HW157089   8.269   4.502   4.519  2.3400  1.7389  3.1075
49437SOL    HW257090   8.151   4.581   4.572 -1.6381 -0.3546 -1.8225
49438SOL     OW57091   5.955   7.025   0.163  0.2551  0.2584 -0.6121
49438SOL    HW157092   6.001   7.099   0.123  0.5384  0.2890 -0.2355
49438SOL    HW257093   5.877   7.064   0.203 -0.5049  0.0973 -1.9024
49439SOL     OW57094  11.817  11.526   0.714  0.5111 -0.1833  0.1236
49439SOL    HW157095  11.907  11.499   0.736  0.9373  2.5354  2.2027
49439SOL    HW257096  11.797  11.595   0.777 -3.0097 -0.5471 -0.4318
49440SOL     OW57097   5.922   3.937   4.665 -0.6579  0.1569 -0.3613
49440SOL    HW157098   5.925   3.941   4.761 -1.0356  1.1627 -0.3830
49440SOL    HW257099   6.003   3.891   4.641  1.1414  2.7357  0.3085
49441SOL     OW57100   5.938   5.029   4.551 -0.7651 -0.2096  0.5395
49441SOL    HW157101   6.022   4.983   4.559 -0.5766  0.0230 -0.0214
49441SOL    HW257102   5.876   4.974   4.599 -0.1077  0.1182  1.8301
49442SOL     OW57103   3.227   0.999   8.496 -0.2194 -0.0134  0.1368
49442SOL    HW157104   3.298   0.984   8.558 -0.4915 -0.1588  0.4217
49442SOL    HW257105   3.182   1.076   8.530 -1.0207 -0.7173  0.7482
49443SOL     OW57106   7.124   3.245   4.220  0.0797  0.2277 -0.3758
49443SOL    HW157107   7.081   3.314   4.170  1.3620  1.3894  0.0508
49443SOL    HW257108   7.058   3.214   4.281 -0.4737  1.2135 -0.4605
49444SOL     OW57109  10.634   1.347   5.123  0.8957  0.0610  0.2838
49444SOL    HW157110  10.631   1.409   5.050 -1.6510 -0.3357 -0.0323
49444SOL    HW257111  10.687   1.274   5.091  0.7414  0.3975 -0.7607
49445SOL     OW57112   8.254   6.566   4.100  0.4625  0.2309  0.0623
49445SOL    HW157113   8.233   6.659   4.100  1.7952  0.5770 -0.9163
49445SOL    HW257114   8.239   6.538   4.010 -1.0801 -0.8143  0.6094
49446SOL     OW57115  12.236   7.927   2.280 -0.0981  0.1500  0.2951
49446SOL    HW157116  12.161   7.982   2.260 -0.2242 -0.7582 -2.0887
49446SOL    HW257117  12.309   7.988   2.291 -0.5312  0.8773 -0.7438
49447SOL     OW57118   5.769   6.558   8.061 -0.7691  0.0686  0.3215
49447SOL    HW157119   5.738   6.648   8.053  0.3799  0.5072  0.6318
49447SOL    HW257120   5.848   6.555   8.008 -1.3322 -1.0450 -0.5104
49448SOL     OW57121   2.857   8.510   3.211  0.2615 -0.2955 -0.2242
49448SOL    HW157122   2.805   8.553   3.143  1.5541  1.4249 -0.1935
49448SOL    HW257123   2.907   8.581   3.251 -0.1596 -1.3209  2.2893
49449SOL     OW57124   6.413   1.009   3.887  0.5929  0.5566 -0.0180
49449SOL    HW157125   6.412   1.097   3.926  1.7275  0.5832 -0.0192
49449SOL    HW257126   6.406   1.025   3.793 -0.7035  0.5591  0.0595
49450SOL     OW57127   3.367   0.520   7.614 -0.4280  0.0527  0.7678
49450SOL    HW157128   3.335   0.460   7.547 -0.3935  0.3512  0.4828
49450SOL    HW257129   3.462   0.510   7.612 -0.4020  0.3193  0.5238
49451SOL     OW57130   6.200   1.694   3.298  0.0400 -0.0962  0.2183
49451SOL    HW157131   6.190   1.615   3.245  0.8566  0.4076 -0.6881
49451SOL    HW257132   6.209   1.661   3.388 -2.7032 -0.9074  0.2891
49452SOL     OW57133   5.898   0.852   0.415 -0.7254 -0.1468  0.1235
49452SOL    HW157134   5.913   0.941   0.383 -1.0238 -0.6960 -1.6764
49452SOL    HW257135   5.981   0.808   0.401 -1.2133 -0.7284 -1.1960
49453SOL     OW57136  10.071   0.943   7.772 -0.2766  0.5025 -0.4629
49453SOL    HW157137  10.020   0.876   7.817 -1.0465  1.7237  0.5271
49453SOL    HW257138  10.119   0.987   7.842  0.8552  0.4742 -1.1995
49454SOL     OW57139  11.406  12.309  11.960 -0.4374  0.0820 -0.6631
49454SOL    HW157140  11.366  12.378  11.907 -0.9728  0.8855  0.7493
49454SOL    HW257141  11.494  12.341  11.980 -0.5227  0.1452 -0.3902
49455SOL     OW57142   9.873   7.908   3.913 -0.0305  0.6553 -0.0486
49455SOL    HW157143   9.859   7.993   3.870  1.5131  0.3617 -1.2349
49455SOL    HW257144   9.960   7.881   3.883 -0.5910 -1.4627  0.1221
49456SOL     OW57145  12.111   7.574   0.550 -0.3519 -0.3216  0.0301
49456SOL    HW157146  12.128   7.666   0.568 -0.8641  0.3784 -2.6121
49456SOL    HW257147  12.147   7.559   0.463  0.1237 -2.7817  0.5487
49457SOL     OW57148   2.420  10.823   0.600  0.0028 -0.4551  0.3535
49457SOL    HW157149   2.328  10.844   0.582  0.2556 -0.0295 -0.5379
49457SOL    HW257150   2.461  10.821   0.513  1.3187  1.7319  0.8325
49458SOL     OW57151   2.268   0.622   9.709  0.3502 -0.3898 -0.3688
49458SOL    HW157152   2.313   0.676   9.643  0.5789 -0.7064 -0.4737
49458SOL    HW257153   2.331   0.614   9.780 -0.4642  1.2550  0.5894
49459SOL     OW57154   0.003  10.354   8.790 -0.0203  0.1139 -0.0555
49459SOL    HW157155   0.034  10.319   8.707 -0.2752  0.3261 -0.2436
49459SOL    HW257156   0.012  10.282   8.852 -2.5478 -1.0485 -0.8822
49460SOL     OW57157   1.764  12.501  11.674 -0.5283  0.2053  0.7402
49460SOL    HW157158   1.729  12.587  11.648  0.6125  0.5470  0.2887
49460SOL    HW257159   1.711  12.476  11.750  0.3127  2.1452  2.0363
49461SOL     OW57160   3.501   1.046   0.672  0.2058  0.2689 -0.5095
49461SOL    HW157161   3.483   1.131   0.632 -0.4848 -0.2601 -1.3608
49461SOL    HW257162   3.530   1.067   0.761  1.0149  1.4352 -1.0200
49462SOL     OW57163   8.182  11.308   9.583  0.4544  0.3343 -0.3418
49462SOL    HW157164   8.230  11.332   9.663 -2.2832 -0.8056  1.8212
49462SOL    HW257165   8.173  11.391   9.536 -0.8413  1.8741  2.3427
49463SOL     OW57166   9.538   3.680   7.089  0.1631  0.4514 -0.2713
49463SOL    HW157167   9.488   3.600   7.072 -0.3568  0.7778 -0.2956
49463SOL    HW257168   9.579   3.701   7.005  1.0100 -0.2639 -0.0528
49464SOL     OW57169   0.652   2.985   3.082 -0.2450  0.3276 -0.0001
49464SOL    HW157170   0.676   2.894   3.066 -0.3805  0.4389 -0.8684
49464SOL    HW257171   0.558   2.989   3.063 -0.6281  0.2627  1.7521
49465SOL     OW57172  11.112   3.698   8.714 -0.3981 -0.0173  0.0230
49465SOL    HW157173  11.204   3.718   8.729 -0.0576 -0.1034 -1.7388
49465SOL    HW257174  11.075   3.780   8.680 -0.6942 -0.3255 -0.4054
49466SOL     OW57175   2.543   4.978   6.394  0.1123 -0.3108  0.2875
49466SOL    HW157176   2.588   5.055   6.359  1.2898 -0.3058  1.7138
49466SOL    HW257177   2.451   4.994   6.376  0.5803 -0.0872 -2.2940
49467SOL     OW57178   0.344   4.135   5.562 -0.0282  0.6026  0.7404
49467SOL    HW157179   0.353   4.194   5.488 -1.5294 -0.1062 -0.0417
49467SOL    HW257180   0.293   4.062   5.529  1.7097 -1.1439  1.6951
49468SOL     OW57181   0.683   6.140   7.011  0.1991 -0.0026  0.6459
49468SOL    HW157182   0.657   6.130   6.919  2.9721 -0.1087 -0.2350
49468SOL    HW257183   0.682   6.234   7.025 -1.5779 -0.0366  1.0043
49469SOL     OW57184   3.953   6.601  11.353  0.2304  0.6031  0.0506
49469SOL    HW157185   3.895   6.584  11.278 -1.7546 -1.4632  1.8913
49469SOL    HW257186   4.041   6.598  11.317 -0.6762  2.1203 -2.5764
49470SOL     OW57187   5.803   3.249   9.905 -0.5677 -0.2400 -0.1031
49470SOL    HW157188   5.738   3.303   9.861  0.5463  0.1288 -1.3331
49470SOL    HW257189   5.887   3.289   9.884  0.3266 -2.4936 -1.2137
49471SOL     OW57190   2.284   0.642   5.318 -0.3020  0.0360 -0.4630
49471SOL    HW157191   2.260   0.707   5.251 -0.2917  0.0694 -0.4344
49471SOL    HW257192   2.349   0.586   5.275  2.8251  2.4530  0.7458
49472SOL     OW57193  10.477   6.522   3.420  0.1260  0.3635  0.1455
49472SOL    HW157194  10.514   6.610   3.417 -1.3446  1.0091  0.1714
49472SOL    HW257195  10.487   6.488   3.331  3.3685 -0.6484  0.7740
49473SOL     OW57196   5.924   5.043   2.189  0.0908 -0.5306 -0.3879
49473SOL    HW157197   5.893   4.956   2.217  2.1080 -0.8772  0.9854
49473SOL    HW257198   6.010   5.052   2.230 -1.2462  3.3998  2.0544
49474SOL     OW57199  11.996   3.907   8.262  0.7505 -0.0501  0.0757
49474SOL    HW157200  11.964   3.869   8.344  0.7455  0.2440  0.2129
49474SOL    HW257201  11.919   3.909   8.205  1.0803 -1.6501 -0.4743
49475SOL     OW57202   0.443   9.399  11.515 -0.2056  0.2809 -0.2406
49475SOL    HW157203   0.389   9.334  11.561  0.2175 -0.2054 -0.4143
49475SOL    HW257204   0.384   9.472  11.499 -0.6849 -0.0458 -0.0026
49476SOL     OW57205   7.568   4.841  10.099 -0.2596  0.1385 -0.2806
49476SOL    HW157206   7.660   4.831  10.072  0.2173 -0.4804  1.4769
49476SOL    HW257207   7.522   4.773  10.051  0.5706 -0.9612  0.4467
49477SOL     OW57208   3.442   1.956   1.101  0.0470 -0.4992 -0.1865
49477SOL    HW157209   3.431   1.883   1.039 -0.4620 -1.4123  0.9450
49477SOL    HW257210   3.513   1.927   1.158  0.6714  0.4404 -0.4762
49478SOL     OW57211   5.726   1.807   9.963 -0.4559 -0.5077 -0.6937
49478SOL    HW157212   5.730   1.767  10.050 -0.7388 -0.6508 -0.7476
49478SOL    HW257213   5.790   1.757   9.911  0.3936  0.1675 -0.3302
49479SOL     OW57214   4.297   1.660   2.262  0.0531 -0.5144 -0.5995
49479SOL    HW157215   4.349   1.596   2.310  1.8117  1.6036  0.5002
49479SOL    HW257216   4.323   1.647   2.170  0.0236 -1.6524 -0.4591
49480SOL     OW57217   2.755   0.884   7.548 -0.2435  0.0754  0.5110
49480SOL    HW157218   2.765   0.789   7.542  1.5424  0.1889  0.9248
49480SOL    HW257219   2.711   0.909   7.468  2.0431 -0.8027 -1.1287
49481SOL     OW57220   1.207   0.246   6.085 -0.0422 -0.6600  0.2120
49481SOL    HW157221   1.292   0.235   6.042 -0.0000 -0.3208  0.2079
49481SOL    HW257222   1.208   0.181   6.156 -0.6529 -2.1413 -1.0837
49482SOL     OW57223  12.267   7.045   5.208  0.2310 -0.2291  0.5794
49482SOL    HW157224  12.229   7.096   5.137 -1.1089  0.1608  1.5386
49482SOL    HW257225  12.295   6.963   5.167  0.5625  0.4596 -0.5972
49483SOL     OW57226   2.910   3.903   3.473 -0.7773  0.1660  0.3117
49483SOL    HW157227   2.854   3.973   3.439 -1.2200 -0.7242 -0.8527
49483SOL    HW257228   2.984   3.899   3.413 -0.6517 -0.2301  0.4889
49484SOL     OW57229   2.889   7.614   3.874 -0.3140  0.3032 -0.3651
49484SOL    HW157230   2.946   7.677   3.831 -0.3221  0.4872 -0.1098
49484SOL    HW257231   2.804   7.627   3.833 -1.0233  2.3876  1.5172
49485SOL     OW57232   2.482   0.289   9.590  0.1691 -0.0662  0.4591
49485SOL    HW157233   2.436   0.356   9.538  0.7690 -2.4290 -3.4807
49485SOL    HW257234   2.412   0.245   9.638 -0.7676  0.7373 -0.1121
49486SOL     OW57235   2.002   5.085   2.831 -0.2243 -0.9735  0.0384
49486SOL    HW157236   1.927   5.026   2.817 -0.2033 -1.4564  1.7329
49486SOL    HW257237   2.034   5.063   2.918  0.7920  0.4807  0.0713
49487SOL     OW57238   1.169  11.163   4.270  0.0870 -0.0055  0.2389
49487SOL    HW157239   1.189  11.226   4.339 -1.8680 -0.2919  1.1307
49487SOL    HW257240   1.085  11.192   4.234  0.3090 -0.7686 -0.9636
49488SOL     OW57241   5.786   1.630  10.172 -0.2832 -0.2134  0.0051
49488SOL    HW157242   5.698   1.594  10.180 -2.0162  3.7697  1.4649
49488SOL    HW257243   5.841   1.569  10.222 -2.4820 -1.9451  0.4969
49489SOL     OW57244   4.732  11.429  12.568  0.2729 -0.1471 -0.4076
49489SOL    HW157245   4.823  11.401  12.564  0.7200  1.3363 -2.8050
49489SOL    HW257246   4.729  11.508  12.515 -2.5725 -0.6383 -1.1581
49490SOL     OW57247   1.965   3.583   8.437  0.3374 -0.1255 -0.1295
49490SOL    HW157248   1.905   3.621   8.501  0.4812  0.6774 -0.4587
49490SOL    HW257249   1.909   3.534   8.377  0.1221 -0.2119  0.1409
49491SOL     OW57250   9.771  10.952  11.523 -0.0560  0.0014 -0.1772
49491SOL    HW157251   9.750  10.924  11.612 -1.4825  3.3232  0.6630
49491SOL    HW257252   9.712  10.902  11.467 -1.1219 -0.1071  1.0209
49492SOL     OW57253   9.547   0.898  11.025  0.4323  0.3727 -0.2509
49492SOL    HW157254   9.477   0.835  11.039  1.7672 -1.4957 -1.4560
49492SOL    HW257255   9.510   0.963  10.965 -1.3211  1.4329  1.8827
49493SOL     OW57256   9.248   4.126   4.877  0.6544  0.2550  0.3242
49493SOL    HW157257   9.270   4.080   4.796  1.1190  1.1261 -0.0647
49493SOL    HW257258   9.314   4.195   4.883  0.4473  0.3728  1.3008
49494SOL     OW57259   0.918   7.702   8.511 -0.3165 -0.4288 -0.5928
49494SOL    HW157260   0.832   7.665   8.491 -0.7124  0.1542  0.0248
49494SOL    HW257261   0.916   7.790   8.473  0.5180 -0.8928 -1.7897
49495SOL     OW57262  11.414   7.339   6.587  0.2178 -0.0111  0.1447
49495SOL    HW157263  11.391   7.273   6.522 -0.6946 -0.6265  1.0592
49495SOL    HW257264  11.394   7.298   6.671  0.2510  1.2019  0.7676
49496SOL     OW57265   4.015  11.206   8.816 -0.3046  0.5236  0.0452
49496SOL    HW157266   3.981  11.210   8.727 -0.2012  0.5201  0.0045
49496SOL    HW257267   3.980  11.283   8.859 -2.2356 -0.6410  0.6716
49497SOL     OW57268   2.290   1.972   7.295 -0.2655  0.1835  0.2344
49497SOL    HW157269   2.226   2.018   7.350 -1.5489 -0.9532 -0.2392
49497SOL    HW257270   2.373   1.982   7.341 -0.8135  1.5043  0.9976
49498SOL     OW57271   0.953  11.451   3.445 -0.2969  0.6921  0.3317
49498SOL    HW157272   0.887  11.389   3.413  1.0505 -1.3181  1.2520
49498SOL    HW257273   0.930  11.534   3.403 -1.2949 -0.7424 -2.1632
49499SOL     OW57274   0.802   9.804   7.596 -0.4492  0.0279 -0.1245
49499SOL    HW157275   0.727   9.773   7.646  0.5908 -0.4027  1.2346
49499SOL    HW257276   0.804   9.747   7.519 -0.6853 -0.9027  0.5418
49500SOL     OW57277   7.276   4.638   3.931  0.2931 -0.2232  0.2431
49500SOL    HW157278   7.192   4.665   3.969  0.2564  0.0754 -0.0447
49500SOL    HW257279   7.253   4.573   3.865  0.2633  0.0276  0.0017
49501SOL     OW57280  10.411  12.417  12.026 -0.1581 -0.2679  0.2988
49501SOL    HW157281  10.460  12.369  12.093 -0.5997  1.0729  1.6415
49501SOL    HW257282  10.446  12.506  12.030 -0.1264 -0.1835 -1.3507
49502SOL     OW57283   9.895  12.568   9.532 -0.3864  0.5635 -0.0875
49502SOL    HW157284   9.935  12.581   9.446  0.1586 -1.8318 -0.2841
49502SOL    HW257285   9.969  12.552   9.591 -0.8462 -2.0574 -0.0863
49503SOL     OW57286   4.415   7.279   8.273 -0.0248 -0.1711  0.3793
49503SOL    HW157287   4.478   7.351   8.278  1.0509 -0.9835 -0.6776
49503SOL    HW257288   4.455   7.209   8.326 -0.9014 -0.1075  1.1380
49504SOL     OW57289   6.127   4.950  10.798  0.2459  0.1953 -0.1160
49504SOL    HW157290   6.066   5.023  10.813  0.4653  0.6839 -1.4329
49504SOL    HW257291   6.135   4.907  10.883 -2.4028 -0.2590 -0.0036
49505SOL     OW57292   1.536   7.304   3.843 -0.2228 -0.3505  0.1957
49505SOL    HW157293   1.450   7.316   3.803 -0.3970 -0.1091  0.6338
49505SOL    HW257294   1.563   7.216   3.818 -0.2328 -0.1264 -0.6256
49506SOL     OW57295   5.555   9.759   7.440  0.1892  0.4325 -0.4521
49506SOL    HW157296   5.519   9.738   7.354  1.4471 -1.1713 -0.6292
49506SOL    HW257297   5.530   9.685   7.495  2.3687 -0.3119 -0.3663
49507SOL     OW57298  11.030   0.093   7.783 -0.1910 -0.6564 -0.4706
49507SOL    HW157299  11.024   0.110   7.689 -2.6020  1.9056  0.0079
49507SOL    HW257300  11.047   0.179   7.822  0.4764 -1.6134  1.4704
49508SOL     OW57301   2.848   2.192   8.493 -0.2716  0.3674  0.3405
49508SOL    HW157302   2.754   2.178   8.479 -0.3259  0.9608  0.0743
49508SOL    HW257303   2.885   2.199   8.405 -0.3333  2.3222  0.4179
49509SOL     OW57304   5.032   8.703   8.599  0.3886 -0.1198  0.1735
49509SOL    HW157305   5.103   8.755   8.561  0.6902 -0.8060 -0.2195
49509SOL    HW257306   5.032   8.727   8.692  2.1184 -1.1955  0.4908
49510SOL     OW57307   4.030   6.722   0.182  0.1173  0.7681 -0.4863
49510SOL    HW157308   4.020   6.797   0.240  0.0944  1.5357 -1.4506
49510SOL    HW257309   4.084   6.661   0.231  1.5331  2.1074 -0.2910
49511SOL     OW57310  11.319   5.867   1.098  0.0414 -0.5740  0.1130
49511SOL    HW157311  11.377   5.941   1.114 -2.8750  2.3368 -1.7451
49511SOL    HW257312  11.286   5.842   1.184  2.3003 -0.9552  0.9539
49512SOL     OW57313   1.870  12.141   5.802  0.1375 -0.2191 -0.1472
49512SOL    HW157314   1.942  12.204   5.793 -0.4527  0.3688 -0.8844
49512SOL    HW257315   1.897  12.084   5.874  1.4217 -0.1144 -0.5134
49513SOL     OW57316   4.684   9.826  10.527 -0.1276 -0.3428 -0.0921
49513SOL    HW157317   4.683   9.900  10.588 -0.3103  1.3583 -2.0543
49513SOL    HW257318   4.732   9.757  10.574 -0.9165  0.5867  2.2357
49514SOL     OW57319   8.209   5.061  10.972 -0.0152  0.1155 -0.3647
49514SOL    HW157320   8.153   5.094  11.042  0.1510  0.6181 -0.4610
49514SOL    HW257321   8.270   5.133  10.954  1.3229 -0.7883  0.4251
49515SOL     OW57322   7.467   7.050   0.146 -0.5009 -0.7498 -0.1239
49515SOL    HW157323   7.542   7.109   0.135 -0.2394 -1.0819 -0.1403
49515SOL    HW257324   7.500   6.964   0.119 -0.1838 -1.3720  2.0856
49516SOL     OW57325   4.524   1.539   6.197  0.5280 -0.0241 -0.3404
49516SOL    HW157326   4.613   1.573   6.190  0.6925 -0.6571 -1.6718
49516SOL    HW257327   4.507   1.499   6.112 -1.0508  0.1178 -0.1209
49517SOL     OW57328   8.273   3.607  10.185 -0.3423 -0.2054 -0.2611
49517SOL    HW157329   8.233   3.645  10.107 -1.3504  0.9568  0.7883
49517SOL    HW257330   8.199   3.579  10.239  0.3083 -0.1558  0.6773
49518SOL     OW57331   5.758  11.518   5.189 -0.0539 -0.0971 -0.1952
49518SOL    HW157332   5.826  11.454   5.166  0.9724  0.8351  0.1455
49518SOL    HW257333   5.762  11.583   5.119  0.2678  0.5993  0.4459
49519SOL     OW57334   8.098   4.274   8.113  0.8783 -0.0032 -0.5203
49519SOL    HW157335   8.101   4.301   8.205  0.1075  1.5050 -0.8967
49519SOL    HW257336   8.085   4.180   8.116 -0.5023  0.1914  0.9454
49520SOL     OW57337   5.376   9.688   4.944 -0.1950  0.1459  0.3121
49520SOL    HW157338   5.327   9.618   4.987  2.9385 -1.9538  0.7798
49520SOL    HW257339   5.316   9.720   4.876 -1.2183 -4.3484 -1.2651
49521SOL     OW57340  11.364   2.074   0.653 -0.4400  0.0537  0.0818
49521SOL    HW157341  11.323   2.116   0.729 -0.3650  1.0654 -0.4205
49521SOL    HW257342  11.322   1.988   0.647 -1.3921  0.4838  0.4869
49522SOL     OW57343   1.992   8.220  10.776  0.7265  0.0452 -0.0383
49522SOL    HW157344   2.027   8.202  10.689  1.2511  0.4336  0.0829
49522SOL    HW257345   2.070   8.238  10.829  0.4482 -0.6838  0.6307
49523SOL     OW57346   7.177  12.239   6.658 -0.8764  0.2297 -0.0253
49523SOL    HW157347   7.238  12.279   6.720 -0.1147 -2.2882  1.0027
49523SOL    HW257348   7.197  12.282   6.574  0.8129  1.0007  0.7104
49524SOL     OW57349   4.814   9.339  10.190 -0.0215  0.5344 -0.7851
49524SOL    HW157350   4.889   9.323  10.247 -1.2093  0.5856  0.8360
49524SOL    HW257351   4.826   9.429  10.159  1.3372  0.0533 -1.7680
49525SOL     OW57352   6.602   1.477   2.733  0.4500 -0.7328  0.3395
49525SOL    HW157353   6.697   1.466   2.739  0.6169  0.0327 -0.5383
49525SOL    HW257354   6.576   1.418   2.662  0.6050  0.5809 -0.8617
49526SOL     OW57355   9.079   5.087   6.476  0.4141 -0.1331 -0.2013
49526SOL    HW157356   9.001   5.142   6.483 -0.4932 -1.2166 -1.3534
49526SOL    HW257357   9.120   5.093   6.562 -0.2624  1.4321  0.0496
49527SOL     OW57358   9.071   5.747   8.002 -0.0488  0.1383  0.2657
49527SOL    HW157359   9.123   5.818   7.965  1.5404 -0.7323  0.7071
49527SOL    HW257360   9.091   5.749   8.096 -1.3299  0.1742  0.5496
49528SOL     OW57361   4.445   8.731   9.528  0.3866  0.0098 -0.2498
49528SOL    HW157362   4.445   8.736   9.432  0.1226 -0.8157 -0.3062
49528SOL    HW257363   4.375   8.789   9.556 -1.0302 -1.4252 -0.6898
49529SOL     OW57364   5.196   6.221   8.950 -0.2766  0.3727  0.1159
49529SOL    HW157365   5.198   6.311   8.916 -0.4268 -0.0060 -0.9377
49529SOL    HW257366   5.107   6.211   8.985 -0.3281  0.5704  0.0465
49530SOL     OW57367   4.766   2.154   0.228 -0.3688 -0.3051 -0.0301
49530SOL    HW157368   4.837   2.187   0.173 -0.3330  0.3068  0.3724
49530SOL    HW257369   4.736   2.230   0.277 -0.2541 -0.8730  0.9555
49531SOL     OW57370   8.805  12.304  10.546  0.3794  0.0354 -0.9478
49531SOL    HW157371   8.892  12.274  10.571 -0.6648 -1.5110  1.1930
49531SOL    HW257372   8.796  12.390  10.587  0.2852 -0.5854  0.3848
49532SOL     OW57373   5.678   3.324   0.169  0.2428 -0.0748  0.3717
49532SOL    HW157374   5.737   3.249   0.168  0.8966  0.3464  2.2766
49532SOL    HW257375   5.735   3.400   0.155 -0.0804  0.2098  0.5727
49533SOL     OW57376  10.468   1.293   4.723 -0.6658  0.7505 -0.0405
49533SOL    HW157377  10.426   1.377   4.704 -0.4473  0.8699  0.0031
49533SOL    HW257378  10.397   1.230   4.723 -0.7195  0.8057 -0.9040
49534SOL     OW57379  12.381  10.933  11.739 -1.1904 -0.1807 -0.1370
49534SOL    HW157380  12.314  10.925  11.807 -0.8325  0.5297  0.3132
49534SOL    HW257381  12.340  10.895  11.661 -2.2430  0.5054  0.0542
49535SOL     OW57382   9.140   2.708   5.864 -0.8097  0.6158  0.6080
49535SOL    HW157383   9.068   2.653   5.835  0.9627 -0.7135 -1.6591
49535SOL    HW257384   9.161   2.762   5.788  1.6827 -0.3558  0.4848
49536SOL     OW57385   5.758   5.151   4.779  0.1758 -0.2423 -0.6774
49536SOL    HW157386   5.846   5.144   4.816  0.6072  2.5191 -0.9724
49536SOL    HW257387   5.765   5.220   4.713 -2.0587 -0.4966 -1.2619
49537SOL     OW57388   2.762   1.291   6.554 -0.2185 -0.4659  0.0870
49537SOL    HW157389   2.731   1.210   6.514 -1.1292  0.0422 -0.2712
49537SOL    HW257390   2.777   1.269   6.645  0.5158 -1.2876 -0.2216
49538SOL     OW57391   1.653   6.545   9.706  0.3787 -0.4061 -0.0664
49538SOL    HW157392   1.661   6.459   9.748 -1.1972 -0.6308 -0.1493
49538SOL    HW257393   1.675   6.607   9.775 -0.0461 -0.8400  0.4710
49539SOL     OW57394   1.056   6.841   8.609 -0.3847  0.2930  0.6715
49539SOL    HW157395   1.005   6.776   8.561 -0.3870  0.7059  0.1047
49539SOL    HW257396   1.124   6.867   8.547  0.7196 -0.4753  1.5156
49540SOL     OW57397  11.911   7.202   0.820 -0.2692  0.5456 -0.1765
49540SOL    HW157398  11.986   7.261   0.810  1.0156 -1.0138 -0.1191
49540SOL    HW257399  11.845   7.255   0.867  1.2112  1.6220  0.7897
49541SOL     OW57400   5.785   0.752   4.817  0.1109  0.3639  0.1963
49541SOL    HW157401   5.742   0.753   4.731 -3.0042 -0.2885  1.6098
49541SOL    HW257402   5.727   0.803   4.873  0.2042 -2.0398  2.6895
49542SOL     OW57403   5.836   8.611   1.094 -0.3015 -0.1416 -0.1475
49542SOL    HW157404   5.851   8.705   1.107 -1.4013 -0.1476  1.4335
49542SOL    HW257405   5.816   8.603   1.001 -1.8083  1.4480 -0.0130
49543SOL     OW57406   8.872   2.887   5.846 -0.2889  0.1374  0.2550
49543SOL    HW157407   8.850   2.821   5.780 -0.5447  1.2434 -0.8027
49543SOL    HW257408   8.794   2.891   5.902 -0.2295 -0.5204  0.3983
49544SOL     OW57409   0.155  11.462   8.709  0.3887  0.0260 -0.4575
49544SOL    HW157410   0.095  11.503   8.772  0.4857  0.8159 -0.8588
49544SOL    HW257411   0.235  11.514   8.715  1.0377 -0.9996  0.0495
49545SOL     OW57412   3.558   9.279   3.284 -0.1851 -0.3558  0.0529
49545SOL    HW157413   3.639   9.240   3.252 -0.5666 -0.6184 -0.6128
49545SOL    HW257414   3.573   9.291   3.378  0.4606 -0.8038  0.0168
49546SOL     OW57415   5.130   9.053   6.005  0.1229 -0.8702  0.2073
49546SOL    HW157416   5.103   9.100   5.926  1.3821  0.5288  0.5777
49546SOL    HW257417   5.071   8.978   6.009 -0.9492 -0.1508 -1.2328
49547SOL     OW57418  11.584   3.568   7.923  0.3433 -0.1845 -0.1022
49547SOL    HW157419  11.568   3.625   7.847  2.1925  2.1615  1.1259
49547SOL    HW257420  11.518   3.593   7.987 -0.2742 -1.0931 -0.3667
49548SOL     OW57421  11.939   0.911   9.227  0.0147 -0.4750  0.0779
49548SOL    HW157422  12.011   0.848   9.225  0.9919  0.5598  0.7875
49548SOL    HW257423  11.979   0.992   9.261 -1.6361 -0.0578  1.1896
49549SOL     OW57424  11.382   3.842  11.671  0.1990 -0.3833 -0.9448
49549SOL    HW157425  11.416   3.921  11.628 -0.2560  0.6030  0.4375
49549SOL    HW257426  11.340   3.875  11.750 -2.9381 -1.6670 -1.9240
49550SOL     OW57427   5.876   1.170   0.964  0.0006 -0.0660  0.2763
49550SOL    HW157428   5.958   1.122   0.966 -0.5142 -1.0239 -0.3938
49550SOL    HW257429   5.814   1.113   1.010 -0.4589  0.2843  0.0977
49551SOL     OW57430   5.188   4.405   7.423  0.0869 -0.1206 -1.0271
49551SOL    HW157431   5.245   4.473   7.458  0.1684  0.1004 -1.5934
49551SOL    HW257432   5.169   4.432   7.334 -0.4733 -0.4681 -1.0166
49552SOL     OW57433   2.547   7.465   7.566  0.1197  0.1493 -0.1291
49552SOL    HW157434   2.515   7.554   7.581  0.7847  0.1328  1.5056
49552SOL    HW257435   2.638   7.476   7.538 -0.6922  0.1048 -3.2194
49553SOL     OW57436   3.175  11.982   9.899 -0.2725  0.3754  0.2273
49553SOL    HW157437   3.267  11.979   9.876 -0.5331  0.0135 -0.8382
49553SOL    HW257438   3.142  12.061   9.856 -0.6021  0.1431  0.0528
49554SOL     OW57439   0.177  12.502  11.108 -0.5802 -0.1791  0.1908
49554SOL    HW157440   0.250  12.532  11.163 -1.8147  0.0625  1.7540
49554SOL    HW257441   0.197  12.410  11.090  0.0768 -0.1311  0.6265
49555SOL     OW57442   1.733   5.338   7.450  0.2343  0.5646 -0.2203
49555SOL    HW157443   1.769   5.279   7.516  0.7593  1.4639  0.3239
49555SOL    HW257444   1.638   5.323   7.453  0.2646  0.5002  0.6611
49556SOL     OW57445   3.090   4.514   6.367  1.3942  0.2971  0.1810
49556SOL    HW157446   3.049   4.549   6.446  0.9885  1.8729 -0.6903
49556SOL    HW257447   3.143   4.586   6.334  2.2906 -0.6523 -0.5018
49557SOL     OW57448  11.671   9.815   9.715 -0.1540 -0.4512 -0.4781
49557SOL    HW157449  11.716   9.890   9.754  1.5511 -1.6605  0.0060
49557SOL    HW257450  11.623   9.775   9.789  1.4665 -1.5908  0.0095
49558SOL     OW57451   5.531  12.015  10.253  0.5857  0.1855 -0.0742
49558SOL    HW157452   5.613  12.015  10.203  1.5729 -0.8126  1.4623
49558SOL    HW257453   5.510  11.922  10.263  0.0516  0.3877  0.7668
49559SOL     OW57454   0.830   4.153   8.014 -0.1829  0.0456 -0.1694
49559SOL    HW157455   0.796   4.217   7.952  1.9663 -0.0097 -1.5330
49559SOL    HW257456   0.770   4.079   8.009 -1.7686  1.2644  0.1772
49560SOL     OW57457   6.888   4.321   3.617 -0.1398 -0.1112  0.8687
49560SOL    HW157458   6.867   4.228   3.626 -1.7796  0.3011  1.7964
49560SOL    HW257459   6.854   4.361   3.697 -2.1803  1.6863 -0.7500
49561SOL     OW57460   3.695   8.896   2.120  0.0666 -0.4494 -0.7487
49561SOL    HW157461   3.604   8.919   2.100  0.5167  1.6039 -0.6472
49561SOL    HW257462   3.740   8.903   2.036  0.6642  1.4736 -0.3059
49562SOL     OW57463   4.531   3.596   7.008 -0.2037  0.0039  0.1339
49562SOL    HW157464   4.473   3.647   6.951 -0.0436  0.7121  0.5839
49562SOL    HW257465   4.557   3.520   6.956  1.7080  1.7258 -1.5610
49563SOL     OW57466   6.934   5.594   9.350 -0.7926  0.5071 -0.1296
49563SOL    HW157467   6.844   5.627   9.345 -0.5960  1.3150  1.1857
49563SOL    HW257468   6.961   5.611   9.440  1.0446  1.2593 -0.7627
49564SOL     OW57469   8.678   5.076   6.422  0.3509  0.4119  0.0612
49564SOL    HW157470   8.625   4.997   6.436 -0.0374  0.9501  1.9952
49564SOL    HW257471   8.752   5.046   6.370  1.1952 -1.6945  2.2923
49565SOL     OW57472   1.593   5.496   6.465  0.0454  0.3392  0.9268
49565SOL    HW157473   1.633   5.477   6.550 -0.2086  0.9024  1.1772
49565SOL    HW257474   1.516   5.548   6.486 -2.2108 -2.6496  0.6629
49566SOL     OW57475   5.798   3.148   0.583  0.1645 -0.0665 -0.3535
49566SOL    HW157476   5.787   3.082   0.514 -1.6008  0.5459 -0.7099
49566SOL    HW257477   5.887   3.180   0.570  0.0866 -0.3825 -1.9997
49567SOL     OW57478   5.071   0.625   1.643 -0.5449 -0.7393  0.1503
49567SOL    HW157479   5.053   0.634   1.737 -3.1977  0.2910 -0.3916
49567SOL    HW257480   4.988   0.599   1.604  0.1885  0.0132 -2.0780
49568SOL     OW57481   9.832   1.137   5.784 -0.0599 -0.6766  0.3454
49568SOL    HW157482   9.833   1.044   5.763  0.9000 -0.9366  1.4338
49568SOL    HW257483   9.762   1.147   5.848 -0.8446 -0.4575 -0.5349
49569SOL     OW57484   6.252   4.466   2.967  0.8934 -0.5892 -0.1247
49569SOL    HW157485   6.295   4.500   3.046 -0.3375  0.1133  0.2605
49569SOL    HW257486   6.203   4.389   2.997 -1.1267  0.7670  0.2341
49570SOL     OW57487   9.831   2.553   5.719  0.5656  0.3126  0.2763
49570SOL    HW157488   9.871   2.571   5.803 -3.1174  0.4418  2.1903
49570SOL    HW257489   9.866   2.467   5.694 -0.3017 -1.0770  3.4011
49571SOL     OW57490   0.870   7.490   9.940 -0.4393 -0.6930 -0.1814
49571SOL    HW157491   0.867   7.455   9.851 -0.8590 -0.8927 -0.0878
49571SOL    HW257492   0.950   7.453   9.977 -0.1762 -0.4772 -0.5297
49572SOL     OW57493  12.266   5.170   4.917 -0.5578  0.3553 -0.1826
49572SOL    HW157494  12.312   5.245   4.954 -0.0507 -0.2996  0.5418
49572SOL    HW257495  12.327   5.134   4.852 -0.5132  0.1658 -0.0378
49573SOL     OW57496   0.951   0.654  11.489  0.2001  0.1578 -0.1527
49573SOL    HW157497   0.970   0.604  11.568  0.4028 -0.0158 -0.3126
49573SOL    HW257498   1.028   0.643  11.433 -0.4521 -0.7315 -0.8981
49574SOL     OW57499  10.130   2.927   0.958  0.5446 -0.1574  0.0006
49574SOL    HW157500  10.132   2.961   1.047 -1.3736 -0.4548  0.2009
49574SOL    HW257501  10.128   2.832   0.969  1.4255 -0.2325 -0.4098
49575SOL     OW57502   2.928  10.940   3.084 -0.1089  0.2307  0.1603
49575SOL    HW157503   2.833  10.934   3.092 -0.1514 -0.0466 -0.5320
49575SOL    HW257504   2.942  11.006   3.016  0.1729 -0.4838 -0.4877
49576SOL     OW57505  11.141   7.724   8.352  0.0754  0.6028 -0.4824
49576SOL    HW157506  11.229   7.688   8.356  0.1330  0.8206  0.7144
49576SOL    HW257507  11.151   7.814   8.383 -0.6271  0.4737  0.1629
49577SOL     OW57508   1.678   2.874   3.993 -0.0895  0.1875 -0.1043
49577SOL    HW157509   1.664   2.922   3.911 -2.0160 -0.1034  0.0194
49577SOL    HW257510   1.669   2.782   3.968  1.9702 -0.0742 -0.0342
49578SOL     OW57511   1.433  11.089   7.020  0.4796  0.0532 -0.1681
49578SOL    HW157512   1.513  11.045   6.991 -0.6360 -1.8022 -0.5579
49578SOL    HW257513   1.366  11.021   7.019 -0.9540  1.3709  0.9232
49579SOL     OW57514   5.365   1.818   7.327 -0.0635  0.4748  0.9911
49579SOL    HW157515   5.278   1.821   7.287 -0.2608 -1.1151  1.2489
49579SOL    HW257516   5.361   1.883   7.398 -0.7769  0.9658  0.5151
49580SOL     OW57517   4.415   1.852   0.536  0.0659 -0.4373 -0.3946
49580SOL    HW157518   4.507   1.876   0.538  0.1010 -0.6020 -0.0494
49580SOL    HW257519   4.403   1.792   0.609 -0.0217 -1.4805 -1.2322
49581SOL     OW57520   6.489  10.011   2.800  0.0652  1.0172 -0.3899
49581SOL    HW157521   6.534  10.074   2.744 -0.7971  1.7491 -0.2712
49581SOL    HW257522   6.429  10.063   2.853 -1.4884  0.0304 -1.0750
49582SOL     OW57523   5.595  11.119  12.472 -0.0241 -0.2047 -0.3923
49582SOL    HW157524   5.514  11.154  12.434 -0.0052  0.0188 -0.2275
49582SOL    HW257525   5.647  11.196  12.492  0.8173 -0.3780 -1.7496
49583SOL     OW57526  10.623   0.120   8.426  0.1703 -0.1681 -0.3630
49583SOL    HW157527  10.683   0.103   8.499  0.3743  2.2308  0.0943
49583SOL    HW257528  10.552   0.171   8.464 -0.9900 -0.9391 -1.3952
49584SOL     OW57529   8.631   2.640  12.177 -0.4722 -0.3084  0.4845
49584SOL    HW157530   8.670   2.727  12.174 -1.5751  0.2187  0.9548
49584SOL    HW257531   8.590   2.635  12.263 -0.1651 -1.4169  0.5819
49585SOL     OW57532   7.076   7.319   1.382 -0.4820  0.4003 -0.3946
49585SOL    HW157533   7.111   7.353   1.464  0.4981 -1.2835 -0.0671
49585SOL    HW257534   6.986   7.292   1.403 -0.2278 -0.0474  0.1486
49586SOL     OW57535   7.097   4.834   6.404 -0.5817  0.6228  0.1879
49586SOL    HW157536   7.101   4.760   6.466  1.1085  1.0251  0.6110
49586SOL    HW257537   7.164   4.895   6.436 -2.7177  2.9163  0.5277
49587SOL     OW57538   5.328   5.241  10.045 -0.2813  0.2068 -0.1295
49587SOL    HW157539   5.297   5.216   9.958  1.8614 -4.4727  0.1097
49587SOL    HW257540   5.423   5.244  10.037  0.0444 -1.3545  2.1442
49588SOL     OW57541   2.108  12.546  11.510  0.1617 -0.1460 -0.0728
49588SOL    HW157542   2.135  12.539  11.418  1.8399 -0.3439  0.3921
49588SOL    HW257543   2.150  12.470  11.552 -1.3966 -0.6182  0.6893
49589SOL     OW57544   2.474   4.168  11.654 -0.3038  0.3042  0.5603
49589SOL    HW157545   2.510   4.101  11.597 -1.9167  0.4496 -0.6859
49589SOL    HW257546   2.496   4.138  11.743  1.0746 -0.6049 -0.0531
49590SOL     OW57547   8.031   2.009   4.362  0.3537 -0.8097 -0.1222
49590SOL    HW157548   8.010   2.096   4.396  1.1277 -0.3772 -0.7232
49590SOL    HW257549   7.978   1.949   4.415 -1.7269  0.1445 -0.9951
49591SOL     OW57550   0.931  10.098   5.171 -0.2026  0.3535 -0.4829
49591SOL    HW157551   0.884  10.018   5.150  2.6991 -1.7143  0.2022
49591SOL    HW257552   0.913  10.114   5.264 -0.2163  0.0651 -0.4365
49592SOL     OW57553   0.634   6.488  12.209 -0.3848 -0.4735  0.4066
49592SOL    HW157554   0.561   6.430  12.191 -0.1614 -0.1614 -1.8250
49592SOL    HW257555   0.673   6.505  12.123  0.2790  2.0249  1.1102
49593SOL     OW57556  11.724   2.069   9.001 -0.2231  0.4689  0.0932
49593SOL    HW157557  11.646   2.055   8.948 -1.4984  0.3771  1.9343
49593SOL    HW257558  11.710   2.017   9.080  1.5255  0.7732  0.6610
49594SOL     OW57559   2.656   5.129   5.694  0.0820 -0.7373 -0.5887
49594SOL    HW157560   2.605   5.165   5.622 -1.8819 -1.6678  0.2872
49594SOL    HW257561   2.728   5.083   5.650 -0.2958 -0.1509 -1.8911
49595SOL     OW57562   8.949   7.496   2.800 -0.3187  0.1744 -0.9450
49595SOL    HW157563   8.990   7.530   2.880 -0.6732 -0.3949 -0.5182
49595SOL    HW257564   8.855   7.501   2.818 -0.5038  2.1110 -2.1732
49596SOL     OW57565   9.138   3.524   0.394 -0.3277  0.2455 -0.2257
49596SOL    HW157566   9.183   3.603   0.422 -0.6399  0.3824 -0.1060
49596SOL    HW257567   9.199   3.453   0.414 -0.3128  0.3947  0.2686
49597SOL     OW57568   2.603   1.963   9.736 -0.1655 -0.2150 -0.0475
49597SOL    HW157569   2.683   1.996   9.695 -0.1744  0.7856  0.6936
49597SOL    HW257570   2.621   1.967   9.830 -0.4889 -1.5600  0.0929
49598SOL     OW57571  10.877   7.033   7.190  0.2091 -0.1359  0.2925
49598SOL    HW157572  10.968   7.058   7.174  0.3256  0.5895  1.9157
49598SOL    HW257573  10.858   6.967   7.123  2.0529 -0.5971  0.1767
49599SOL     OW57574   5.413  12.104   3.854 -0.3736  0.3555 -0.0543
49599SOL    HW157575   5.439  12.050   3.929  3.7473  0.5060 -1.1137
49599SOL    HW257576   5.369  12.043   3.795  1.5231 -1.2357  0.0650
49600SOL     OW57577   6.697   6.069   3.509 -0.2955  0.5679  0.2050
49600SOL    HW157578   6.691   5.978   3.483 -0.0778  1.0099 -1.5333
49600SOL    HW257579   6.619   6.085   3.562 -1.1851 -0.2234 -0.8290
49601SOL     OW57580   3.471   8.142   4.897 -0.4584  0.0627 -0.7893
49601SOL    HW157581   3.534   8.194   4.947 -1.8417  0.9050  0.1509
49601SOL    HW257582   3.461   8.062   4.948 -2.4325  1.2304  0.8115
49602SOL     OW57583  10.307   9.015   2.324  0.0652  0.4852 -0.0265
49602SOL    HW157584  10.354   9.085   2.278 -0.2253  0.1566 -0.8508
49602SOL    HW257585  10.315   8.939   2.266 -0.4791  0.1085  0.3781
49603SOL     OW57586   0.603  12.574  10.101  0.2221 -0.2911 -0.0289
49603SOL    HW157587   0.654  12.646  10.138 -0.9357  0.7371 -0.3851
49603SOL    HW257588   0.642  12.495  10.140  0.0235  0.6454  2.2149
49604SOL     OW57589   7.388  10.309   7.000  0.1091  0.1854 -0.0816
49604SOL    HW157590   7.429  10.234   7.043 -0.6802 -1.2940 -1.8030
49604SOL    HW257591   7.449  10.332   6.930  0.0482  0.7988  0.0565
49605SOL     OW57592   9.917   1.457  11.546  0.1768  0.0702 -0.4991
49605SOL    HW157593   9.992   1.470  11.488  2.4486 -0.4504  2.1197
49605SOL    HW257594   9.903   1.362  11.547  2.2518 -0.3182  2.0643
49606SOL     OW57595  11.683   4.722   7.740  0.2212  0.0186  0.4707
49606SOL    HW157596  11.590   4.709   7.753  0.2580 -0.8065 -0.0324
49606SOL    HW257597  11.725   4.678   7.813  0.3056 -2.0157 -0.7310
49607SOL     OW57598   8.240   5.343   0.069  0.3989  0.0582  0.7574
49607SOL    HW157599   8.294   5.414   0.035  0.5276 -1.2553 -2.0241
49607SOL    HW257600   8.296   5.266   0.065 -0.3246 -0.5588  1.9698
49608SOL     OW57601  10.362   9.139   1.648  0.1589  0.1889  0.1804
49608SOL    HW157602  10.276   9.180   1.640  0.2692  0.3269 -0.3851
49608SOL    HW257603  10.411   9.196   1.707  0.1069  0.5347 -0.1084
49609SOL     OW57604   9.074   3.513   5.364  0.0108  0.3505  0.0145
49609SOL    HW157605   9.018   3.589   5.380  1.1099  1.7961 -2.4539
49609SOL    HW257606   9.097   3.519   5.271  0.1020 -3.0889 -0.3148
49610SOL     OW57607   2.051   6.264   7.581 -0.1896  0.2150 -0.4810
49610SOL    HW157608   2.006   6.319   7.517  0.4165  1.5898  0.2364
49610SOL    HW257609   2.096   6.326   7.639 -2.3014 -0.8097  2.5413
49611SOL     OW57610   6.795  10.070   2.184 -0.0574  0.0939 -0.2034
49611SOL    HW157611   6.770  10.159   2.159  0.1337  0.1688 -0.1319
49611SOL    HW257612   6.760  10.015   2.115 -1.0199  0.1257  0.2356
49612SOL     OW57613   5.872   7.888   4.739  0.5395  0.2941 -0.1418
49612SOL    HW157614   5.792   7.937   4.721 -0.4847 -1.0573  0.4725
49612SOL    HW257615   5.885   7.898   4.834 -1.0157 -2.3706  0.4714
49613SOL     OW57616   9.696   5.904   8.444  0.3733  0.6650 -0.4202
49613SOL    HW157617   9.736   5.847   8.378 -2.4834 -0.7237 -1.1038
49613SOL    HW257618   9.679   5.847   8.518  0.3238  1.4040  0.1546
49614SOL     OW57619  11.697   1.596   4.667 -0.1290 -0.1593  0.0887
49614SOL    HW157620  11.630   1.543   4.624  0.1562 -0.1930 -0.3140
49614SOL    HW257621  11.659   1.617   4.752  0.0275 -1.6049  0.5479
49615SOL     OW57622   4.465   1.154  10.469  0.2116 -0.7335 -0.5607
49615SOL    HW157623   4.395   1.101  10.506  1.0091 -0.7233  1.0433
49615SOL    HW257624   4.492   1.211  10.540 -0.4605  1.7273 -2.1627
49616SOL     OW57625   1.456   8.391  12.399  0.3153  0.3697  0.4293
49616SOL    HW157626   1.459   8.434  12.484 -0.5817  2.7020 -0.6138
49616SOL    HW257627   1.486   8.458  12.337 -2.0472 -0.1205 -1.4244
49617SOL     OW57628  11.191   8.012   2.138 -1.0728  0.2336  0.0288
49617SOL    HW157629  11.129   8.029   2.209 -0.3000 -1.0716  1.0697
49617SOL    HW257630  11.273   7.992   2.182 -0.3527  0.2013 -1.2743
49618SOL     OW57631   2.087   7.143   9.684 -0.3397 -0.0037  0.0718
49618SOL    HW157632   2.054   7.142   9.774  0.9545  2.6749  0.6880
49618SOL    HW257633   2.009   7.149   9.630 -1.0743  1.6001  1.2350
49619SOL     OW57634   1.531   6.450   6.238  0.0098 -0.5550 -0.5270
49619SOL    HW157635   1.513   6.518   6.304  0.9459  0.3239 -1.1371
49619SOL    HW257636   1.514   6.494   6.155 -0.7717 -1.5346 -0.9008
49620SOL     OW57637  11.174   8.846   4.364  0.2024 -0.4491 -0.4764
49620SOL    HW157638  11.151   8.836   4.271  1.0786 -1.1223 -0.6369
49620SOL    HW257639  11.133   8.771   4.407 -2.3985  1.2121  0.1482
49621SOL     OW57640   5.876   5.170   0.328 -0.1112 -0.1399 -0.8599
49621SOL    HW157641   5.857   5.249   0.378 -0.6694 -1.0347  0.3896
49621SOL    HW257642   5.971   5.171   0.317  0.0988 -0.2104  0.7522
49622SOL     OW57643   5.718   3.587  12.139  0.4958  0.1880  0.4984
49622SOL    HW157644   5.742   3.515  12.081  1.0755  0.0770  0.8614
49622SOL    HW257645   5.735   3.553  12.227  0.8422  0.7860  0.6699
49623SOL     OW57646  10.217  11.481  12.207  0.0297 -0.3852 -0.1078
49623SOL    HW157647  10.294  11.536  12.211  0.6203 -1.2485  0.7912
49623SOL    HW257648  10.230  11.427  12.129  1.2419 -1.7735  0.9902
49624SOL     OW57649   8.866   3.473   6.219 -0.5147  0.0538  0.7986
49624SOL    HW157650   8.883   3.453   6.127 -1.1812 -0.6034  0.8097
49624SOL    HW257651   8.793   3.416   6.243 -1.6883  1.6692  1.1926
49625SOL     OW57652   4.816   9.620  10.202 -0.5779 -0.2300  0.5737
49625SOL    HW157653   4.863   9.682  10.258 -0.2682  0.8468 -0.8273
49625SOL    HW257654   4.733   9.605  10.247  0.2429 -0.5252  2.0404
49626SOL     OW57655  12.428   2.291  11.626  0.0832 -0.3156  0.4848
49626SOL    HW157656  12.339   2.267  11.599  0.4901  0.1952 -1.4610
49626SOL    HW257657  12.434   2.259  11.716 -1.7999 -1.0645  0.4116
49627SOL     OW57658   8.252  11.201   1.953  0.1551  0.0963  0.1270
49627SOL    HW157659   8.254  11.262   1.879 -1.1016 -0.2793 -0.2495
49627SOL    HW257660   8.240  11.115   1.912 -2.2879  0.0525  0.7759
49628SOL     OW57661  12.116   1.812   7.639 -0.1061  0.0096 -0.0948
49628SOL    HW157662  12.097   1.722   7.611 -0.6393 -0.1010  0.6194
49628SOL    HW257663  12.197   1.834   7.592  0.5908 -1.2020  0.4860
49629SOL     OW57664   9.498   0.012   0.483 -0.7764 -0.3601 -0.2855
49629SOL    HW157665   9.497   0.088   0.542  0.3312 -0.3642 -0.2356
49629SOL    HW257666   9.494  -0.064   0.542 -1.5332 -0.3598 -0.3202
49630SOL     OW57667  11.050   8.763   0.542 -0.4018 -0.1859 -0.0579
49630SOL    HW157668  11.019   8.740   0.630 -1.2853  0.3326 -0.2213
49630SOL    HW257669  11.100   8.843   0.554 -0.5654 -0.0873 -0.0326
49631SOL     OW57670   4.216   0.945   1.070 -0.1001 -0.6805  0.7139
49631SOL    HW157671   4.206   0.958   0.976  1.5176 -2.4369  0.2385
49631SOL    HW257672   4.286   1.005   1.096  0.8034 -1.5629  0.3823
49632SOL     OW57673  10.759   0.523   8.138 -0.2124  0.4410 -1.1435
49632SOL    HW157674  10.739   0.592   8.075 -0.4391 -0.8114 -2.4753
49632SOL    HW257675  10.772   0.444   8.086 -0.3308 -0.6354  0.3618
49633SOL     OW57676   8.334   6.731   5.532  0.1209 -0.1999 -0.1586
49633SOL    HW157677   8.372   6.803   5.483 -1.0127  0.3757 -0.2172
49633SOL    HW257678   8.410   6.682   5.566  0.9007  1.0479 -0.0529
49634SOL     OW57679  11.238   1.215   3.433 -0.0906 -0.0850 -0.3459
49634SOL    HW157680  11.171   1.198   3.366 -0.2298  1.3917 -0.6129
49634SOL    HW257681  11.313   1.163   3.405 -0.7999 -1.0306 -0.5557
49635SOL     OW57682   0.418   4.654   9.990 -0.1505 -0.4636  0.1897
49635SOL    HW157683   0.512   4.643   9.975  0.1033  2.5863 -0.9994
49635SOL    HW257684   0.392   4.726   9.933 -3.2192 -1.0621  0.6419
49636SOL     OW57685   9.178   6.229   4.672  0.4890  0.2313 -0.4585
49636SOL    HW157686   9.119   6.178   4.727  0.5778  0.5153 -0.0944
49636SOL    HW257687   9.133   6.235   4.588  0.1657  0.1417 -0.2948
49637SOL     OW57688   3.940   9.078   2.699  0.4324  0.4074 -0.5212
49637SOL    HW157689   3.906   8.989   2.689 -0.1589  0.5529  0.0956
49637SOL    HW257690   3.973   9.102   2.612  0.5955 -0.4088 -0.6900
49638SOL     OW57691   2.134  11.575   6.488 -0.2329 -0.2663 -0.1374
49638SOL    HW157692   2.135  11.653   6.432 -2.1569  0.2191  0.4475
49638SOL    HW257693   2.216  11.530   6.466 -0.4113  0.4357 -2.5474
49639SOL     OW57694  10.147   2.211   5.338 -0.5292 -0.3845 -0.3373
49639SOL    HW157695  10.072   2.242   5.388 -0.5440  2.6593 -2.0046
49639SOL    HW257696  10.208   2.177   5.404 -0.7080  3.0102  1.8360
49640SOL     OW57697   0.386  11.715   0.210  0.1368  0.1533  0.0664
49640SOL    HW157698   0.461  11.699   0.153 -0.9310 -3.8554 -0.4617
49640SOL    HW257699   0.424  11.723   0.297  1.2746 -1.3508 -0.2491
49641SOL     OW57700  10.661   6.909   9.187  0.7315  0.3705 -0.0473
49641SOL    HW157701  10.583   6.864   9.155  1.3550 -0.2098 -0.8010
49641SOL    HW257702  10.732   6.874   9.133  1.3827  1.5396  0.0208
49642SOL     OW57703   7.279   4.652   0.963  0.2673 -0.4850  0.3822
49642SOL    HW157704   7.271   4.567   0.918  0.9407  0.3345 -1.3541
49642SOL    HW257705   7.223   4.711   0.913 -0.3746  0.0804  1.7161
49643SOL     OW57706   1.137  11.602   0.293  0.0419 -0.4880  0.1379
49643SOL    HW157707   1.155  11.654   0.215  0.7398 -1.0113 -0.0597
49643SOL    HW257708   1.161  11.512   0.269  2.8685 -0.2915  1.7418
49644SOL     OW57709   0.753  12.409   8.431  0.3759 -0.0425  0.1357
49644SOL    HW157710   0.767  12.389   8.524 -1.2559  0.5461  0.5368
49644SOL    HW257711   0.753  12.504   8.427 -1.3307 -0.0411 -0.1611
49645SOL     OW57712   4.644   7.013   6.964  0.4827  0.0409  0.2907
49645SOL    HW157713   4.593   6.961   6.903 -0.2824 -0.4826  1.3381
49645SOL    HW257714   4.734   7.002   6.936  0.5822 -3.3878  1.5211
49646SOL     OW57715   7.258  10.233   0.419 -0.5847 -0.4111  0.2930
49646SOL    HW157716   7.174  10.245   0.376 -0.7597 -1.3111  0.3659
49646SOL    HW257717   7.244  10.160   0.480 -0.3071  0.7160  1.7761
49647SOL     OW57718  12.492   0.064   5.159  0.2222  0.0088 -0.1931
49647SOL    HW157719  12.514   0.121   5.232 -0.3324  1.1078 -0.8518
49647SOL    HW257720  12.443  -0.009   5.199  1.1147 -0.1314  0.6788
49648SOL     OW57721   3.781   0.435   5.702 -0.7634  0.2359  0.1216
49648SOL    HW157722   3.829   0.517   5.690 -2.5529  1.2883 -0.2296
49648SOL    HW257723   3.824   0.373   5.643 -0.3972  1.3746 -0.8485
49649SOL     OW57724   7.858   3.579   3.173 -0.7054 -0.1083  0.0435
49649SOL    HW157725   7.771   3.577   3.133 -0.3927 -2.2061 -0.6851
49649SOL    HW257726   7.841   3.581   3.267 -1.6156 -1.9332 -0.0384
49650SOL     OW57727  10.104   0.185  11.673  0.0931 -0.7673 -0.1679
49650SOL    HW157728  10.141   0.099  11.695 -1.3624 -1.7462 -1.2873
49650SOL    HW257729  10.078   0.176  11.581  0.4638  1.1002 -0.4902
49651SOL     OW57730  10.761   6.185  11.683 -0.3843 -0.3620  0.4792
49651SOL    HW157731  10.764   6.098  11.722 -1.1026 -0.3888  0.4821
49651SOL    HW257732  10.852   6.215  11.685 -0.2121 -0.8955  0.9634
49652SOL     OW57733   8.479   3.600   8.686 -0.4859  0.0084  0.1619
49652SOL    HW157734   8.449   3.619   8.597  0.3134 -0.3181 -0.1806
49652SOL    HW257735   8.522   3.515   8.680  1.6753  1.0290  0.3628
49653SOL     OW57736   9.573   6.416   0.028  0.2745 -0.4148 -0.2060
49653SOL    HW157737   9.581   6.380   0.117 -1.4335 -2.5240 -0.8074
49653SOL    HW257738   9.551   6.508   0.042 -1.2407 -0.9715  1.6478
49654SOL     OW57739  12.058   9.845   3.727 -0.1911  0.1317  0.3093
49654SOL    HW157740  12.020   9.764   3.759  1.1486 -0.9968 -0.7983
49654SOL    HW257741  12.141   9.853   3.774  0.3057  0.1193 -0.5338
49655SOL     OW57742   2.521  12.528   7.597 -0.1692  0.6419  0.1432
49655SOL    HW157743   2.447  12.497   7.649 -0.0622  0.0390 -0.0563
49655SOL    HW257744   2.562  12.595   7.651  0.3221 -0.4069  1.1138
49656SOL     OW57745   3.155   2.525   1.491 -0.0344 -0.5896 -0.8229
49656SOL    HW157746   3.080   2.562   1.540  0.7864  1.9335 -1.3269
49656SOL    HW257747   3.116   2.461   1.432 -1.7122  0.0668 -0.4864
49657SOL     OW57748   6.430   9.558  11.486 -0.1991  0.0837  0.0002
49657SOL    HW157749   6.392   9.470  11.492 -0.4850  0.2795  1.3069
49657SOL    HW257750   6.516   9.549  11.527  0.5337  0.0269 -1.4685
49658SOL     OW57751  12.218   0.483  11.243  0.3399  0.3652  0.1387
49658SOL    HW157752  12.262   0.557  11.285  1.2410 -0.1389  0.1040
49658SOL    HW257753  12.184   0.518  11.161 -0.6382  1.1337  0.8488
49659SOL     OW57754  10.051   7.499   2.154 -0.2915  0.1239  0.2532
49659SOL    HW157755  10.136   7.533   2.182 -0.4706  0.3685  0.5160
49659SOL    HW257756   9.989   7.537   2.216 -0.4904 -0.7920  0.6334
49660SOL     OW57757   8.257   4.235  11.008 -0.8381  0.3159  0.0697
49660SOL    HW157758   8.261   4.177  10.932  0.6154  1.0836 -0.4684
49660SOL    HW257759   8.278   4.178  11.082 -1.1091 -0.1897 -0.2320
49661SOL     OW57760   0.493  12.360   2.734 -0.7671  0.2584 -0.3555
49661SOL    HW157761   0.469  12.369   2.826  0.6690 -0.8002  0.1684
49661SOL    HW257762   0.568  12.418   2.723  2.3212 -3.1154  0.5609
49662SOL     OW57763   8.052  11.151   0.882 -0.0671  0.0952 -0.4204
49662SOL    HW157764   8.074  11.226   0.937 -0.6382 -0.7746  1.0475
49662SOL    HW257765   7.957  11.147   0.883 -0.0296 -1.5337  0.8165
49663SOL     OW57766   1.868   3.600  11.116  0.0609 -0.4932  0.2957
49663SOL    HW157767   1.927   3.673  11.135 -1.0540  0.1362  1.5852
49663SOL    HW257768   1.925   3.524  11.105  1.2122  0.4611 -0.5573
49664SOL     OW57769   7.190   3.966   2.250  0.2645 -0.1104 -1.0861
49664SOL    HW157770   7.095   3.967   2.252  0.1663  0.7322 -3.3212
49664SOL    HW257771   7.213   3.873   2.243 -0.3316 -0.3583 -0.0048
49665SOL     OW57772   2.820  10.807   7.363 -0.6115 -0.0786  0.8785
49665SOL    HW157773   2.859  10.852   7.288 -1.3583 -1.4575 -0.3890
49665SOL    HW257774   2.726  10.814   7.349 -0.8928  1.6738  2.9804
49666SOL     OW57775   5.402   3.275   9.846  0.1975  0.1710  0.0476
49666SOL    HW157776   5.362   3.199   9.805 -0.9103  0.8753 -0.2246
49666SOL    HW257777   5.491   3.277   9.811 -0.8477  1.0641 -2.8621
49667SOL     OW57778   3.537   1.060   5.630  0.2876 -0.2770  0.4662
49667SOL    HW157779   3.493   0.989   5.677 -1.5674  0.8347  0.5135
49667SOL    HW257780   3.629   1.051   5.653 -0.3495 -0.6202  3.2260
49668SOL     OW57781   3.801   0.922   3.580 -0.3775  0.5748  0.1288
49668SOL    HW157782   3.866   0.889   3.518 -0.7985 -0.0454  0.0195
49668SOL    HW257783   3.854   0.952   3.655  0.0739  0.6413 -0.2080
49669SOL     OW57784  11.055   2.705   0.295 -0.3176 -0.0664 -0.3278
49669SOL    HW157785  10.982   2.764   0.316 -0.7463 -0.9359  0.7107
49669SOL    HW257786  11.084   2.734   0.208  0.6082  2.7623  0.8053
49670SOL     OW57787   3.912   7.263   6.586 -0.1907  0.5441 -0.1024
49670SOL    HW157788   3.890   7.239   6.676 -0.6748  1.8273  0.1426
49670SOL    HW257789   3.828   7.291   6.548  0.2985  1.5856 -0.4344
49671SOL     OW57790   0.380   7.557   9.277 -0.5005  0.6246 -0.1576
49671SOL    HW157791   0.421   7.546   9.363 -1.5315 -0.4116  0.2310
49671SOL    HW257792   0.436   7.620   9.232 -1.2116  3.0352  2.0916
49672SOL     OW57793   4.960  10.823   6.174  0.3296  0.3816  0.2034
49672SOL    HW157794   4.996  10.744   6.216  0.0003  0.0627 -0.1067
49672SOL    HW257795   4.865  10.813   6.181  0.2022 -0.5262 -2.1137
49673SOL     OW57796   1.455   4.829   0.152 -0.3874  0.2780  0.2078
49673SOL    HW157797   1.535   4.819   0.203 -1.9455  0.1412  2.8450
49673SOL    HW257798   1.432   4.922   0.161 -0.5509  0.3173 -0.5188
49674SOL     OW57799  10.037   3.905   5.444  0.1272 -0.2368 -0.3624
49674SOL    HW157800  10.013   3.979   5.500  0.4465 -0.3251 -0.1022
49674SOL    HW257801  10.133   3.903   5.448  0.1431 -0.3548 -0.7750
49675SOL     OW57802   0.319   4.085   9.052 -0.0202 -0.1235 -0.3242
49675SOL    HW157803   0.267   4.130   8.987 -1.8566 -1.8881 -0.1868
49675SOL    HW257804   0.375   4.026   9.001 -0.8198 -0.8616 -0.3718
49676SOL     OW57805   4.250   7.261  11.418  0.2135  0.3160 -0.0951
49676SOL    HW157806   4.245   7.248  11.513  1.7721  2.4393  0.3423
49676SOL    HW257807   4.268   7.354  11.407  3.5247 -0.4029 -2.3016
49677SOL     OW57808   6.271  11.325   1.013  0.0108 -0.1753  0.4589
49677SOL    HW157809   6.245  11.366   0.930  2.1529  0.2593 -0.0537
49677SOL    HW257810   6.189  11.296   1.052 -1.3749  2.4436 -0.2989
49678SOL     OW57811  10.849   7.804  11.239 -0.8064 -0.7059  0.2083
49678SOL    HW157812  10.766   7.798  11.192 -0.9087 -1.8304  0.4999
49678SOL    HW257813  10.913   7.830  11.173 -0.5473 -4.2314 -1.1318
49679SOL     OW57814   1.676   4.702   8.137 -0.0876  0.0944  0.3144
49679SOL    HW157815   1.612   4.660   8.080 -1.0653  0.5120  1.0931
49679SOL    HW257816   1.636   4.786   8.161  1.3247  0.9713 -0.2698
49680SOL     OW57817   9.505   3.503   0.072 -0.5810 -0.2815 -0.3008
49680SOL    HW157818   9.480   3.488   0.163 -0.2995 -0.2156 -0.2109
49680SOL    HW257819   9.427   3.544   0.032 -0.8688 -0.7365 -0.2118
49681SOL     OW57820   0.551  11.680   5.891  0.0144 -0.4568 -0.5387
49681SOL    HW157821   0.542  11.650   5.982 -1.5903 -1.3149 -0.9574
49681SOL    HW257822   0.601  11.610   5.848 -0.9117 -0.9928 -0.7574
49682SOL     OW57823  10.199  10.087   7.740  0.5728 -0.0649 -0.2584
49682SOL    HW157824  10.264  10.020   7.719 -0.0584  0.2273 -3.6688
49682SOL    HW257825  10.189  10.138   7.659 -3.3879  0.3135  0.2454
49683SOL     OW57826   1.988  10.738   2.168 -0.2384 -0.0066  0.0176
49683SOL    HW157827   1.971  10.807   2.232  0.1490  0.2560 -0.1627
49683SOL    HW257828   2.054  10.682   2.210 -0.1250  0.0587 -0.0741
49684SOL     OW57829   0.271   9.084   9.130  0.8286 -0.6161 -0.0637
49684SOL    HW157830   0.354   9.122   9.160  0.3411  0.3077  0.1720
49684SOL    HW257831   0.210   9.158   9.131 -0.0945 -1.3674  0.1422
49685SOL     OW57832   9.864   2.645   6.902  0.0172 -0.2073  0.3673
49685SOL    HW157833   9.878   2.584   6.830  1.7995 -0.2490  0.6812
49685SOL    HW257834   9.780   2.619   6.940  0.2203 -1.7872 -0.1698
49686SOL     OW57835  10.223  12.324  12.574  0.2695 -0.3330  0.0143
49686SOL    HW157836  10.193  12.411  12.600 -0.3229 -0.9944  1.7744
49686SOL    HW257837  10.318  12.329  12.577  0.2655 -0.3389  2.5754
49687SOL     OW57838   6.282  10.567  10.568  0.0923  0.2149 -0.2716
49687SOL    HW157839   6.338  10.553  10.491  0.6948  2.0313 -0.2088
49687SOL    HW257840   6.300  10.657  10.594 -2.6738  0.7917 -0.0589
49688SOL     OW57841  10.052   1.657   9.288  0.0090  0.1735 -0.1577
49688SOL    HW157842  10.031   1.571   9.325 -1.0636  0.9116  1.0128
49688SOL    HW257843  10.022   1.652   9.197  0.0595 -0.7104 -0.1345
49689SOL     OW57844   5.997   1.920  11.875 -0.0875 -0.0636 -0.3091
49689SOL    HW157845   5.989   1.848  11.937  0.1600 -0.1602 -0.3916
49689SOL    HW257846   6.084   1.956  11.889 -0.3230  0.4261 -0.0456
49690SOL     OW57847   5.277   9.296   4.758  0.4804  0.0469  0.0446
49690SOL    HW157848   5.206   9.289   4.694  0.6020  0.8770 -0.1949
49690SOL    HW257849   5.295   9.205   4.784 -1.3333 -0.1074  0.8693
49691SOL     OW57850   5.645   2.902   7.122  0.1318  0.0462  0.1931
49691SOL    HW157851   5.722   2.886   7.176  1.3486  2.7603 -0.5407
49691SOL    HW257852   5.613   2.987   7.152  0.0839  1.0369 -2.3945
49692SOL     OW57853   6.365   0.671   0.770 -0.3102  0.6615  0.4284
49692SOL    HW157854   6.336   0.601   0.711 -0.7168  1.2716 -0.1122
49692SOL    HW257855   6.303   0.668   0.843 -0.8216  0.9801  0.0107
49693SOL     OW57856   4.729   7.091   0.650  0.0685 -0.3645  0.1927
49693SOL    HW157857   4.762   7.122   0.734  1.5494 -0.0812 -0.4646
49693SOL    HW257858   4.778   7.011   0.633 -0.2139 -0.4150 -0.4203
49694SOL     OW57859  10.754  11.089   1.703 -0.0494 -0.0186 -0.0942
49694SOL    HW157860  10.788  11.056   1.620 -0.1644  1.0924 -0.5988
49694SOL    HW257861  10.783  11.180   1.707  1.8976 -0.6625  2.1674
49695SOL     OW57862   0.484   1.025   5.383  0.1126  0.1299 -0.1869
49695SOL    HW157863   0.551   0.979   5.333 -0.0570  0.1898 -0.4730
49695SOL    HW257864   0.408   0.966   5.380  0.2113 -0.0279  0.3002
49696SOL     OW57865   0.422   7.258  11.283  0.3939  0.0334 -0.0136
49696SOL    HW157866   0.340   7.253  11.332  1.4863  1.7549  2.1430
49696SOL    HW257867   0.481   7.196  11.327  0.4994 -0.6822 -1.1192
49697SOL     OW57868   0.938   5.170   0.814  0.0858  0.3576  0.0392
49697SOL    HW157869   0.909   5.120   0.890  0.3137 -0.2329 -0.2536
49697SOL    HW257870   0.974   5.251   0.851 -0.9410  0.6258  0.4649
49698SOL     OW57871   6.350   9.379   1.507 -0.2375 -0.4943  0.0206
49698SOL    HW157872   6.264   9.355   1.541 -0.3085 -2.0476 -1.1267
49698SOL    HW257873   6.407   9.382   1.584 -1.4981  1.6595  0.9471
49699SOL     OW57874   4.883   8.906   2.081  0.0555  0.2834 -0.1555
49699SOL    HW157875   4.893   8.999   2.058 -0.1052  0.4601  0.4573
49699SOL    HW257876   4.788   8.892   2.082  0.0734  0.1728 -0.0157
49700SOL     OW57877   1.015  12.585   2.879 -0.2998  0.2107  0.1384
49700SOL    HW157878   1.013  12.525   2.805 -0.1359  0.0117  0.2943
49700SOL    HW257879   0.962  12.542   2.947  0.1672  0.0371  0.4012
49701SOL     OW57880   0.880   2.060  11.319 -1.0605  0.1523  0.0757
49701SOL    HW157881   0.972   2.033  11.311 -1.2762 -0.1176 -2.2161
49701SOL    HW257882   0.842   1.997  11.380 -0.2975 -1.4568 -1.0343
49702SOL     OW57883   2.563   2.388   2.630  0.0772 -0.0472 -0.2499
49702SOL    HW157884   2.626   2.425   2.568  2.0224 -0.2557  1.5068
49702SOL    HW257885   2.499   2.343   2.575  1.1225  0.6593 -2.1277
49703SOL     OW57886   6.718   4.551   4.243 -0.7682  0.0310  0.6346
49703SOL    HW157887   6.653   4.517   4.182 -0.9359  0.0068  0.8275
49703SOL    HW257888   6.783   4.594   4.188 -0.1392 -1.2757  0.3133
49704SOL     OW57889   9.357   7.299   3.188  0.3100  0.0955 -0.2634
49704SOL    HW157890   9.275   7.272   3.229 -0.1418  0.3527 -0.9803
49704SOL    HW257891   9.368   7.239   3.115  1.6418 -1.0225  0.8035
49705SOL     OW57892   9.990   2.664   9.138 -0.0789 -0.4873 -0.7144
49705SOL    HW157893  10.084   2.648   9.148  0.3155  1.8468 -0.2580
49705SOL    HW257894   9.969   2.627   9.052  1.5298  0.0512 -1.3879
49706SOL     OW57895   3.730   5.178   0.726  0.3719  0.3568  1.0024
49706SOL    HW157896   3.782   5.192   0.805 -0.0229 -1.3293  1.6054
49706SOL    HW257897   3.685   5.261   0.711  1.6784  1.2164  1.6075
49707SOL     OW57898   2.233   4.789  10.988 -0.1699  0.2096  0.0168
49707SOL    HW157899   2.316   4.762  10.950 -0.5205 -0.1396 -0.5177
49707SOL    HW257900   2.176   4.803  10.912 -0.2391  1.6599  0.3088
49708SOL     OW57901   6.312  12.309   4.086  0.9260  0.3056  0.2817
49708SOL    HW157902   6.265  12.379   4.131  1.2726  1.1503 -0.6457
49708SOL    HW257903   6.326  12.342   3.997 -1.1027 -1.9319 -0.9940
49709SOL     OW57904   7.720   5.840   4.049  0.7032  0.3502 -0.6966
49709SOL    HW157905   7.770   5.814   3.971  0.8680 -0.5982 -0.2857
49709SOL    HW257906   7.786   5.861   4.114  0.6155 -1.4055  0.0159
49710SOL     OW57907   1.435   7.495   3.577  0.4803 -0.0355 -0.3396
49710SOL    HW157908   1.356   7.524   3.624 -0.1150 -0.3697 -1.1038
49710SOL    HW257909   1.411   7.500   3.485  0.8427 -1.5594 -0.5424
49711SOL     OW57910   0.552   9.030   5.107  0.0298 -0.2392 -0.1734
49711SOL    HW157911   0.588   8.941   5.109 -0.1051 -0.3425 -1.3994
49711SOL    HW257912   0.570   9.060   5.018 -2.0785  0.0522 -0.5349
49712SOL     OW57913   5.734   3.182  11.618  0.4912 -0.4909  0.4365
49712SOL    HW157914   5.782   3.128  11.680  0.1491 -0.7863  0.4469
49712SOL    HW257915   5.797   3.202  11.549  0.5768 -1.0264  0.3592
49713SOL     OW57916   3.307   0.467   0.487 -0.0437  0.3476  0.8612
49713SOL    HW157917   3.312   0.433   0.577  0.6715 -0.7883  0.4242
49713SOL    HW257918   3.357   0.404   0.435 -2.4317 -0.3942 -0.7417
49714SOL     OW57919   8.446  12.370  12.350  0.6277 -0.0290  0.7943
49714SOL    HW157920   8.363  12.322  12.349  0.6055  0.0066 -0.2790
49714SOL    HW257921   8.512  12.303  12.372  0.5139 -0.4228 -0.0288
49715SOL     OW57922   3.620  10.799   7.589  0.2907 -0.2091  0.5509
49715SOL    HW157923   3.656  10.831   7.672  1.9648  2.5682 -1.0842
49715SOL    HW257924   3.593  10.878   7.542  1.0942 -1.4711 -2.2847
49716SOL     OW57925   1.822   7.370   9.249  0.2110  0.2535 -0.0288
49716SOL    HW157926   1.794   7.451   9.292  0.7223  0.0353  0.7326
49716SOL    HW257927   1.780   7.300   9.299 -0.3673  0.0421 -0.7909
49717SOL     OW57928  11.109   8.293  11.799  0.1784 -0.3620 -0.4159
49717SOL    HW157929  11.052   8.218  11.815 -0.1735 -0.2903 -1.2796
49717SOL    HW257930  11.174   8.261  11.738  0.3431 -0.1112 -0.3737
49718SOL     OW57931   0.683   4.900   1.715  0.2713  0.1760  0.0030
49718SOL    HW157932   0.690   4.916   1.621 -0.9677 -0.1217 -0.1578
49718SOL    HW257933   0.609   4.839   1.723  0.7191 -0.2442  1.1253
49719SOL     OW57934  11.329  10.743   6.419  0.0945  0.0379 -0.2390
49719SOL    HW157935  11.370  10.828   6.432  0.4421  0.1592 -1.8538
49719SOL    HW257936  11.245  10.762   6.378 -1.8514 -0.1942  3.2333
49720SOL     OW57937  12.003   8.701   5.882 -0.1828  0.6253  0.0223
49720SOL    HW157938  12.082   8.670   5.925 -1.4817 -0.5376  1.7278
49720SOL    HW257939  12.026   8.707   5.789  1.1888 -2.1819  0.0766
49721SOL     OW57940  12.512   8.253   3.776  0.2894  0.6432  0.3091
49721SOL    HW157941  12.498   8.247   3.681  0.6113 -1.9789  0.3560
49721SOL    HW257942  12.604   8.279   3.785  0.4799  0.1317 -0.1162
49722SOL     OW57943   5.220   6.897   1.421  0.3853  0.0249  0.5164
49722SOL    HW157944   5.231   6.816   1.372 -1.6028  0.6215 -1.0905
49722SOL    HW257945   5.269   6.962   1.370  1.8781 -0.0951  1.7348
49723SOL     OW57946   7.918   0.223   5.316  0.1331 -0.0292  0.2362
49723SOL    HW157947   7.823   0.220   5.324  0.2852  0.3793  3.6697
49723SOL    HW257948   7.937   0.313   5.288 -0.4826 -0.3382 -1.2370
49724SOL     OW57949   3.151   2.773   4.904  0.1613  0.0566  0.2076
49724SOL    HW157950   3.165   2.678   4.893 -1.0524  0.0521 -1.8911
49724SOL    HW257951   3.065   2.780   4.945 -0.1354  0.2428 -0.4344
49725SOL     OW57952   9.941   4.963   8.672  0.0747 -0.1303  0.3641
49725SOL    HW157953   9.998   4.911   8.615  0.2388 -0.1415  0.5374
49725SOL    HW257954  10.000   5.000   8.738  0.1494  1.2016 -0.4066
49726SOL     OW57955   8.393  11.581  12.290  0.4555 -0.2676 -0.2448
49726SOL    HW157956   8.432  11.668  12.281  0.5352 -0.3258 -0.4481
49726SOL    HW257957   8.417  11.554  12.379  1.7128 -0.7187 -0.6999
49727SOL     OW57958   6.255   1.440   2.245  0.1512 -0.5870  0.2853
49727SOL    HW157959   6.178   1.397   2.208  0.3126  1.1251 -2.3599
49727SOL    HW257960   6.220   1.498   2.312 -0.7431 -0.7016 -0.0588
49728SOL     OW57961  10.679   6.491   1.669  0.4949 -0.2114 -0.5041
49728SOL    HW157962  10.705   6.401   1.690 -1.3997 -0.9888 -1.3356
49728SOL    HW257963  10.585   6.486   1.654  0.3470  1.9370 -0.5529
49729SOL     OW57964   4.536   8.290   4.670  0.1039 -0.1784  0.2314
49729SOL    HW157965   4.459   8.268   4.617 -0.5079  0.4866  0.8363
49729SOL    HW257966   4.546   8.384   4.662  0.8119 -0.2420  0.2345
49730SOL     OW57967  12.306   9.125   4.259 -0.3979  0.2413 -0.1499
49730SOL    HW157968  12.281   9.050   4.313 -0.7093  0.3503 -0.1408
49730SOL    HW257969  12.389   9.099   4.217 -1.6624 -1.0691 -2.0008
49731SOL     OW57970   5.463  10.427   1.896 -0.1619 -0.2694  0.0836
49731SOL    HW157971   5.478  10.333   1.882  3.1361  0.4234 -2.4354
49731SOL    HW257972   5.506  10.445   1.979 -1.1269 -0.9896  0.7675
49732SOL     OW57973   2.094  11.705   6.246 -0.4662  0.0643  0.0167
49732SOL    HW157974   2.159  11.764   6.208 -0.9755  0.4065 -0.3348
49732SOL    HW257975   2.091  11.630   6.187  1.3646 -1.1237  1.3087
49733SOL     OW57976  11.280   3.944   6.024  0.8604  0.0969 -0.1788
49733SOL    HW157977  11.281   3.850   6.040 -0.8635  0.3087  1.4530
49733SOL    HW257978  11.194   3.973   6.056  0.6830  1.9874 -2.1219
49734SOL     OW57979   4.588  12.052   0.649  1.0597  0.3952  0.3539
49734SOL    HW157980   4.635  12.048   0.566 -1.5937 -0.7880 -1.2226
49734SOL    HW257981   4.566  12.144   0.660  0.4021  0.4084 -0.9217
49735SOL     OW57982  11.088   7.895  12.553 -0.1154  0.5619 -1.0174
49735SOL    HW157983  11.044   7.968  12.598  0.6260  0.7662 -0.6049
49735SOL    HW257984  11.143   7.856  12.619  1.2133  1.0382 -1.8003
49736SOL     OW57985   9.706   2.905   1.757 -0.5050 -0.1840 -0.2102
49736SOL    HW157986   9.671   2.947   1.836  1.0691 -0.9881  0.9722
49736SOL    HW257987   9.663   2.951   1.685 -3.6046 -0.7913  1.0640
49737SOL     OW57988   8.197   1.910  12.311 -0.0016 -0.1526  0.1095
49737SOL    HW157989   8.229   1.940  12.226  0.4089 -0.5966  0.1021
49737SOL    HW257990   8.218   1.816  12.313  0.5126 -0.0234  0.9344
49738SOL     OW57991   4.701   8.854   2.826 -0.8597  0.1991  0.4580
49738SOL    HW157992   4.618   8.866   2.873 -0.3245  0.8931  1.2720
49738SOL    HW257993   4.752   8.796   2.883 -1.1528 -1.0452 -0.5279
49739SOL     OW57994   5.296   1.205   2.535 -0.1532 -0.5760  0.5765
49739SOL    HW157995   5.284   1.138   2.468  1.3374 -0.8807  0.5787
49739SOL    HW257996   5.346   1.162   2.604 -0.0877  0.2427  1.0602
49740SOL     OW57997   1.028   4.348   5.058 -1.1793  0.0650  0.1093
49740SOL    HW157998   1.073   4.271   5.093  2.8485  1.1800 -1.9469
49740SOL    HW257999   0.988   4.317   4.976  2.1779  0.3009 -1.8198
49741SOL     OW58000   9.246   6.799   3.335  0.1850  1.3536 -0.0075
49741SOL    HW158001   9.301   6.857   3.282 -0.8000  1.9655 -0.3980
49741SOL    HW258002   9.166   6.849   3.349 -1.3589 -0.4749 -1.6942
49742SOL     OW58003   7.799   6.888   8.326 -0.2306  0.3086  0.5128
49742SOL    HW158004   7.849   6.910   8.405 -0.4851 -0.8326  1.0158
49742SOL    HW258005   7.751   6.968   8.305 -1.6890  0.0888  2.6861
49743SOL     OW58006  11.729   8.171  11.547  0.4896  0.9536 -0.4917
49743SOL    HW158007  11.776   8.117  11.610 -1.1115 -1.0024 -0.8766
49743SOL    HW258008  11.684   8.236  11.600  0.3016  0.2203  0.2690
49744SOL     OW58009   5.614   9.135   4.918  0.0405 -0.6491  0.4191
49744SOL    HW158010   5.523   9.134   4.948 -0.0503  0.1105  0.1777
49744SOL    HW258011   5.608   9.140   4.823  0.2663  3.4226  0.4572
49745SOL     OW58012   5.088   8.552  12.110 -0.2801 -0.4524  0.4970
49745SOL    HW158013   5.154   8.533  12.177 -0.4091  0.8825  1.0292
49745SOL    HW258014   5.004   8.538  12.154 -0.3666 -0.6860  0.2630
49746SOL     OW58015  12.311  10.711  12.032 -0.4608 -0.1118  0.0864
49746SOL    HW158016  12.406  10.696  12.025 -0.3470 -0.2801  1.7046
49746SOL    HW258017  12.289  10.683  12.121 -2.2453 -1.1353 -0.6418
49747SOL     OW58018   9.164   6.939   1.717 -0.0101 -0.2555  0.1359
49747SOL    HW158019   9.098   6.945   1.786 -0.3640  0.6158 -0.2603
49747SOL    HW258020   9.175   6.845   1.702 -0.6055 -0.4284  0.7250
49748SOL     OW58021   4.766   7.669   3.562  0.7494 -0.6995  0.3454
49748SOL    HW158022   4.715   7.664   3.643 -0.8129  1.8978 -0.3523
49748SOL    HW258023   4.702   7.658   3.492  1.4791  0.4648 -0.5527
49749SOL     OW58024   5.402   8.498  11.446 -0.0989  0.7198 -0.6020
49749SOL    HW158025   5.435   8.409  11.448  0.3927  0.8806 -1.1252
49749SOL    HW258026   5.389   8.522  11.538 -1.1923 -0.2210 -0.4904
49750SOL     OW58027   9.829   8.004   1.846  0.1991 -0.8993  0.1906
49750SOL    HW158028   9.924   7.997   1.834  0.0846 -2.3450 -0.0762
49750SOL    HW258029   9.793   7.997   1.758 -0.1518  0.3582  0.2081
49751SOL     OW58030   1.183  11.952   1.468  0.1121 -0.5188  0.6192
49751SOL    HW158031   1.247  11.897   1.511 -0.0314 -1.5099 -0.3966
49751SOL    HW258032   1.214  11.961   1.378 -0.5070  0.0508  0.4458
49752SOL     OW58033   8.265   9.475   1.573  0.1316  0.1552  0.1971
49752SOL    HW158034   8.199   9.468   1.642  1.0736  0.4843  1.1555
49752SOL    HW258035   8.218   9.452   1.493 -1.5205  1.8400  0.6177
49753SOL     OW58036   5.560   8.777  12.446  0.3905  0.7686  0.0377
49753SOL    HW158037   5.653   8.787  12.428  0.5630 -1.4167 -0.6158
49753SOL    HW258038   5.521   8.762  12.359 -0.2549 -0.1910  0.4758
49754SOL     OW58039   2.974   6.673   6.943 -0.4113  0.3895  0.1879
49754SOL    HW158040   3.044   6.738   6.939  1.1784 -1.0363  2.3489
49754SOL    HW258041   3.007   6.598   6.894 -0.8179  0.0216  0.4646
49755SOL     OW58042   2.745   1.442   1.979 -0.0805  0.4923 -0.1119
49755SOL    HW158043   2.770   1.457   2.071 -0.7854  0.6698  0.0560
49755SOL    HW258044   2.675   1.504   1.963  1.8500  2.4248 -1.6318
49756SOL     OW58045   8.690   4.827   9.438 -0.2565  1.0204 -0.1660
49756SOL    HW158046   8.646   4.852   9.356  0.2406  0.1614 -0.7151
49756SOL    HW258047   8.645   4.746   9.464  0.5211  0.5186 -0.3584
49757SOL     OW58048   9.448   6.031   8.191  0.4779  0.4876  0.8935
49757SOL    HW158049   9.498   6.094   8.244  4.9087 -1.6335 -0.2906
49757SOL    HW258050   9.424   5.962   8.253  1.3526  0.3218  1.0660
49758SOL     OW58051   7.133   2.578   2.402 -0.2892  0.0083  0.0769
49758SOL    HW158052   7.216   2.624   2.384  1.1219 -2.1418  0.7646
49758SOL    HW258053   7.128   2.574   2.497 -1.9425  1.3149  0.0885
49759SOL     OW58054   1.426   3.186   0.756  0.6066  0.2533  0.0401
49759SOL    HW158055   1.503   3.174   0.700 -0.8270  0.0907 -2.0029
49759SOL    HW258056   1.428   3.112   0.816  2.0944  0.3335  0.1313
49760SOL     OW58057   2.004   1.138   2.268  0.9834  0.0989 -0.6009
49760SOL    HW158058   2.036   1.215   2.220 -0.0342  1.5612  0.9347
49760SOL    HW258059   2.034   1.153   2.358 -2.1746  0.5835  0.5119
49761SOL     OW58060  10.621   3.056  10.086  0.5310 -0.3991 -0.4883
49761SOL    HW158061  10.578   3.117  10.146  1.4254 -0.9924  0.8242
49761SOL    HW258062  10.712   3.086  10.082  0.7099 -0.9629 -0.7349
49762SOL     OW58063   6.362   5.222   4.616 -0.2456  0.3918  0.3055
49762SOL    HW158064   6.427   5.240   4.684 -1.3757  3.1255  0.7637
49762SOL    HW258065   6.299   5.293   4.623 -2.0585 -0.9039 -1.6532
49763SOL     OW58066  11.945   9.544  10.768 -0.0030  0.7594  0.1208
49763SOL    HW158067  11.922   9.624  10.814  3.1684  1.9667 -0.1221
49763SOL    HW258068  11.924   9.561  10.676 -1.2916  0.4489  0.3432
49764SOL     OW58069   6.734   7.782   4.693 -0.2096 -0.0619  0.1587
49764SOL    HW158070   6.738   7.839   4.616 -1.7710 -1.5254 -1.0798
49764SOL    HW258071   6.814   7.730   4.689 -0.3777 -0.2667 -0.6003
49765SOL     OW58072   8.265   2.289   8.548  0.3988  0.4532  0.0119
49765SOL    HW158073   8.212   2.232   8.604  1.1692 -0.4548 -0.1645
49765SOL    HW258074   8.212   2.301   8.469  1.1405 -1.9036 -0.9215
49766SOL     OW58075   3.883   6.425   7.429  0.3623 -0.1653 -0.1751
49766SOL    HW158076   3.824   6.365   7.473 -0.6597  1.9167  1.4523
49766SOL    HW258077   3.971   6.391   7.447 -0.1639 -0.8655  1.1405
49767SOL     OW58078   3.208   4.538   8.042  0.2673  0.0709  0.0255
49767SOL    HW158079   3.137   4.590   8.005 -0.5453 -1.7044 -1.0186
49767SOL    HW258080   3.287   4.573   8.000 -0.4047 -0.4086 -1.7344
49768SOL     OW58081   1.150  11.095  11.220 -0.0984  0.1539  0.2393
49768SOL    HW158082   1.201  11.015  11.203 -1.4632 -0.5543 -0.7481
49768SOL    HW258083   1.178  11.123  11.307  1.6383 -0.4330 -0.0839
49769SOL     OW58084   7.051   0.593  12.451  0.1525 -0.0055 -0.5739
49769SOL    HW158085   7.107   0.669  12.463  1.8559 -1.1245 -1.0279
49769SOL    HW258086   7.086   0.550  12.373 -1.9689 -0.2518 -1.4556
49770SOL     OW58087   6.423   4.032   7.543 -0.2415 -0.1043 -0.0620
49770SOL    HW158088   6.430   3.965   7.611 -0.6602  0.0942  0.1742
49770SOL    HW258089   6.467   4.108   7.581 -3.2901  1.0871  1.3455
49771SOL     OW58090   2.581  11.015  10.438  0.6399 -0.6502 -0.0641
49771SOL    HW158091   2.592  11.031  10.532  1.4632  2.0663 -0.5355
49771SOL    HW258092   2.670  11.014  10.404  0.3694 -2.0681 -0.8024
49772SOL     OW58093   9.451   6.149   7.298 -0.3238  0.1307  0.9766
49772SOL    HW158094   9.519   6.190   7.351 -0.2310  0.8105  0.3435
49772SOL    HW258095   9.479   6.057   7.290 -0.4167 -0.0241  2.2005
49773SOL     OW58096   0.815   2.065   7.254 -0.5092 -0.1232  0.2054
49773SOL    HW158097   0.742   2.118   7.223 -1.0787 -1.3491 -0.6706
49773SOL    HW258098   0.887   2.127   7.267 -1.3833  0.9535  0.0145
49774SOL     OW58099   2.499   5.518  11.701  0.4001  0.3470  0.0026
49774SOL    HW158100   2.413   5.554  11.721  0.3634 -0.7203  2.0290
49774SOL    HW258101   2.561   5.576  11.745  0.5013 -0.4833  0.9981
49775SOL     OW58102   8.309   6.461   9.025  0.1696 -0.2862  0.4373
49775SOL    HW158103   8.263   6.407   8.961 -0.5165  0.7077  0.0619
49775SOL    HW258104   8.266   6.443   9.108  1.1758 -1.7109  0.6833
49776SOL     OW58105  10.635   8.728   1.473  0.2451 -0.3759 -0.4166
49776SOL    HW158106  10.550   8.770   1.489  1.4912  1.8509  0.7350
49776SOL    HW258107  10.641   8.661   1.541 -0.2815 -0.0560 -0.0505
49777SOL     OW58108  11.612  10.996  11.487 -0.5500 -0.5490 -0.0133
49777SOL    HW158109  11.560  10.944  11.426  0.2536  0.0296 -1.2192
49777SOL    HW258110  11.547  11.035  11.546 -1.4720 -0.1997 -1.2025
49778SOL     OW58111   7.977   0.758   6.344 -0.0618  0.3284  0.0697
49778SOL    HW158112   7.975   0.853   6.331  1.9920  0.7047  1.9397
49778SOL    HW258113   7.970   0.722   6.255  0.4036  2.2704 -0.8102
49779SOL     OW58114   9.984   3.932   2.229 -0.4783  0.4463  0.3222
49779SOL    HW158115   9.971   3.881   2.310  0.0461 -0.4133 -0.1215
49779SOL    HW258116  10.076   3.957   2.232 -0.4642  0.4291  0.0030
49780SOL     OW58117   5.189   9.903   2.371 -0.5113 -0.5768  0.0367
49780SOL    HW158118   5.110   9.948   2.399 -0.1200 -0.3638  0.8513
49780SOL    HW258119   5.259   9.943   2.423  0.0038 -1.3490 -0.0350
49781SOL     OW58120  11.177  10.176   0.134  0.1514 -0.1076 -0.0949
49781SOL    HW158121  11.179  10.194   0.228  0.4487 -1.5415  0.1897
49781SOL    HW258122  11.260  10.212   0.102 -0.3619  1.2261  0.0064
49782SOL     OW58123   6.809   2.041   3.554  0.2779  0.2812  0.1236
49782SOL    HW158124   6.881   1.993   3.512 -0.6546 -0.2715 -0.8709
49782SOL    HW258125   6.771   2.094   3.484  0.3814  1.4245  0.8898
49783SOL     OW58126   2.072   8.851   5.719 -0.4209 -0.2447  0.2084
49783SOL    HW158127   2.040   8.776   5.670  0.1017  0.4821 -1.3154
49783SOL    HW258128   1.993   8.897   5.747 -0.7336 -0.8605  0.3558
49784SOL     OW58129  12.236   0.730   3.302 -0.5415 -0.2837 -0.0430
49784SOL    HW158130  12.300   0.689   3.360  1.5254  1.4311 -0.9776
49784SOL    HW258131  12.235   0.673   3.225  1.3519  0.6355 -0.8091
49785SOL     OW58132   0.444   0.500   1.622  0.1202 -0.3918  0.1840
49785SOL    HW158133   0.412   0.499   1.532 -0.2067 -1.1423  0.3034
49785SOL    HW258134   0.533   0.465   1.617  1.5948  3.0205 -0.3571
49786SOL     OW58135  11.079   7.633   3.953  0.5932 -0.5406  0.1146
49786SOL    HW158136  11.013   7.698   3.978  1.7304  0.7159 -0.0717
49786SOL    HW258137  11.081   7.636   3.858  2.8385  1.5124  0.1184
49787SOL     OW58138   1.148   1.597   9.792  0.3647  0.1369 -0.2589
49787SOL    HW158139   1.185   1.530   9.850  0.8018  0.3393 -0.2984
49787SOL    HW258140   1.115   1.664   9.852  0.7672  0.3206 -0.2406
49788SOL     OW58141  11.027   6.190   7.020 -0.7725 -0.3553  0.0212
49788SOL    HW158142  10.983   6.161   7.100 -0.2524 -1.1259  0.0385
49788SOL    HW258143  10.986   6.274   6.999 -0.0634  0.5029  1.8164
49789SOL     OW58144   9.914   0.879   7.078 -0.3235  0.4714  0.3978
49789SOL    HW158145   9.837   0.849   7.029 -0.2501 -0.8635  1.0424
49789SOL    HW258146   9.985   0.877   7.014  0.0714 -2.6289  0.7568
49790SOL     OW58147   8.000   6.928  10.605  0.9589  0.2223 -0.1851
49790SOL    HW158148   7.991   6.991  10.534  1.2458  1.6094  0.9748
49790SOL    HW258149   7.968   6.974  10.683 -0.6756 -1.7288  0.3739
49791SOL     OW58150  12.064   4.501  11.441  0.3655  0.2931 -0.0432
49791SOL    HW158151  12.048   4.474  11.350  2.1770  0.2238 -0.3720
49791SOL    HW258152  12.115   4.581  11.433 -0.3306  0.8446  0.9358
49792SOL     OW58153   7.064   9.432   2.540  0.1245 -0.2317  0.0104
49792SOL    HW158154   7.081   9.474   2.456 -0.7820  0.2954  0.0668
49792SOL    HW258155   7.017   9.499   2.590  0.9213 -0.4315  1.0511
49793SOL     OW58156   4.356  10.484   2.243  0.6323 -0.5509  0.0357
49793SOL    HW158157   4.299  10.558   2.222  0.0705 -1.4581 -1.8650
49793SOL    HW258158   4.434  10.497   2.189  1.8494  0.1681  1.8978
49794SOL     OW58159   2.825   1.078   8.881  0.0410  0.4728 -0.0954
49794SOL    HW158160   2.861   1.012   8.940  0.7956  1.0673  0.1341
49794SOL    HW258161   2.815   1.032   8.797  0.3983  0.0268  0.1005
49795SOL     OW58162   2.570   1.171   2.277 -0.1847 -0.7068 -0.2738
49795SOL    HW158163   2.542   1.260   2.295 -0.2724 -0.8266  0.2020
49795SOL    HW258164   2.662   1.168   2.307 -0.1532 -0.7464 -0.3753
49796SOL     OW58165  11.470   9.063   5.715 -0.1403 -0.9443 -0.4640
49796SOL    HW158166  11.543   9.091   5.660  0.0519 -2.0724 -0.8064
49796SOL    HW258167  11.506   9.057   5.803 -0.3285  0.3983 -0.2721
49797SOL     OW58168   5.549   2.277   3.865  0.3417  0.0665  0.6483
49797SOL    HW158169   5.494   2.199   3.879  0.0292 -0.2485 -1.8586
49797SOL    HW258170   5.622   2.246   3.811 -0.0196  1.5583 -0.7834
49798SOL     OW58171  11.231   2.998  11.862  0.0551  0.0720 -0.4724
49798SOL    HW158172  11.155   3.049  11.832 -0.6626 -0.1947  0.7980
49798SOL    HW258173  11.307   3.052  11.841 -0.6443  1.3821  0.2324
49799SOL     OW58174  11.414   2.265   7.228 -0.3243 -1.1106 -0.2237
49799SOL    HW158175  11.448   2.176   7.240 -1.8645 -1.7480 -0.3613
49799SOL    HW258176  11.414   2.303   7.316  2.7181 -0.2780 -0.4713
49800SOL     OW58177   1.120   6.933  10.292 -0.2248 -0.3715 -0.0075
49800SOL    HW158178   1.100   7.015  10.338 -0.0774 -0.8694  0.9662
49800SOL    HW258179   1.041   6.915  10.241 -0.1601  0.5046 -0.4425
49801SOL     OW58180  11.477   3.218   9.482 -0.0508 -0.4660  0.2000
49801SOL    HW158181  11.404   3.176   9.527  0.6191 -1.8452  0.0665
49801SOL    HW258182  11.491   3.164   9.404  0.1542  0.6591 -0.5741
49802SOL     OW58183   9.032   4.388   9.595 -0.4702  0.3406  0.5167
49802SOL    HW158184   9.046   4.294   9.612 -0.0427 -0.1181 -1.9541
49802SOL    HW258185   8.944   4.393   9.559  0.0168  0.6443 -0.6876
49803SOL     OW58186  11.757  12.334   7.770 -0.0406  0.4369 -0.5966
49803SOL    HW158187  11.712  12.395   7.828  0.6373  0.1170  0.2962
49803SOL    HW258188  11.759  12.252   7.820  2.6355  0.7712 -0.0289
49804SOL     OW58189   9.694  11.999   0.942 -0.1599  0.2596 -0.4909
49804SOL    HW158190   9.629  11.983   0.874 -1.6888 -1.2233  1.1958
49804SOL    HW258191   9.687  12.093   0.961 -1.8942  0.1194 -0.3123
49805SOL     OW58192   1.750   0.059   7.147  0.1157  0.5145  0.1542
49805SOL    HW158193   1.696   0.107   7.209  0.0310  2.6320 -1.4595
49805SOL    HW258194   1.687   0.013   7.091  0.1777 -0.6850  1.0070
49806SOL     OW58195  11.524  12.021  11.561 -0.3369 -0.3571 -0.0079
49806SOL    HW158196  11.458  11.952  11.561 -0.8005  0.0679  1.1802
49806SOL    HW258197  11.488  12.088  11.503  0.0578 -1.0319 -1.0643
49807SOL     OW58198   8.052  12.140   3.682  0.4554  0.1083  0.0990
49807SOL    HW158199   8.079  12.111   3.595  0.5595 -3.6039  1.2157
49807SOL    HW258200   7.964  12.176   3.669  1.3637  1.8613 -1.8111
49808SOL     OW58201   5.178   5.842   9.950  0.3950 -0.9850  0.1593
49808SOL    HW158202   5.192   5.773   9.886 -1.1832 -0.1465 -1.1761
49808SOL    HW258203   5.093   5.823   9.989  0.2588 -0.1837  0.2834
49809SOL     OW58204   5.219   3.561   2.795  0.2450  0.2309  0.5185
49809SOL    HW158205   5.249   3.509   2.721 -0.4200  0.4976  0.0498
49809SOL    HW258206   5.299   3.586   2.841  0.7867  1.2483 -0.9118
49810SOL     OW58207  10.874  11.543   0.556 -0.1779  0.0222  0.2963
49810SOL    HW158208  10.805  11.543   0.490  0.7850 -0.5598 -0.7754
49810SOL    HW258209  10.945  11.493   0.515  0.0619 -1.3129  2.2059
49811SOL     OW58210   6.934   7.119   2.275  0.5064 -0.0950  0.3819
49811SOL    HW158211   6.878   7.149   2.203  0.3901 -0.4280  0.3322
49811SOL    HW258212   6.875   7.067   2.330  1.0825 -1.6495 -0.4200
49812SOL     OW58213   5.899   2.667  11.354 -0.1085  0.2568 -0.2709
49812SOL    HW158214   5.931   2.663  11.264 -1.3951  2.2406 -0.8901
49812SOL    HW258215   5.927   2.753  11.385 -1.9877  0.7346  0.2413
49813SOL     OW58216   7.413   5.503   1.885  0.1366 -0.1432  0.2939
49813SOL    HW158217   7.490   5.450   1.866 -0.7454 -1.3108 -0.1389
49813SOL    HW258218   7.343   5.466   1.831 -0.8833  0.4872  1.1205
49814SOL     OW58219   5.987   2.977  12.096  0.3484 -0.2451  0.6725
49814SOL    HW158220   6.056   2.963  12.161 -1.3485  2.6580  3.4367
49814SOL    HW258221   5.917   2.916  12.121 -0.2108  0.7080  1.5292
49815SOL     OW58222   1.724   0.836   7.669  0.3808  0.2990 -1.1751
49815SOL    HW158223   1.780   0.801   7.738  1.1346  2.9377 -0.3494
49815SOL    HW258224   1.781   0.894   7.618 -0.9016  0.7621 -2.1368
49816SOL     OW58225   6.435  11.118   9.650  0.6309 -0.3186  0.2904
49816SOL    HW158226   6.503  11.056   9.624  1.5944  0.8900 -0.1633
49816SOL    HW258227   6.466  11.203   9.619 -1.6659  0.1338 -1.0640
49817SOL     OW58228  10.224   3.589   6.483 -0.8756  1.2109 -0.0318
49817SOL    HW158229  10.137   3.586   6.443 -0.5388  1.0290 -0.7560
49817SOL    HW258230  10.278   3.533   6.428 -1.1033 -1.7439  2.4792
49818SOL     OW58231   0.637   2.360  10.441  0.5765  0.1503 -0.4598
49818SOL    HW158232   0.694   2.378  10.516 -1.8393  0.1970  1.5226
49818SOL    HW258233   0.598   2.446  10.420 -1.8231 -0.4790  1.0186
49819SOL     OW58234   3.293   6.960   7.390  0.1696 -0.1259 -0.2505
49819SOL    HW158235   3.282   7.048   7.427  0.4684 -0.6998  1.3007
49819SOL    HW258236   3.207   6.936   7.358  0.0798  0.7203 -0.6547
49820SOL     OW58237   7.110  11.954   4.801  0.0892 -0.6383 -0.1766
49820SOL    HW158238   7.061  11.905   4.867  1.2294 -0.2210  1.0073
49820SOL    HW258239   7.043  11.983   4.739 -0.9024 -1.7030  0.3512
49821SOL     OW58240   4.206  10.631   2.735 -0.3508  0.0621 -0.1502
49821SOL    HW158241   4.162  10.548   2.715  1.2327 -0.3134 -2.4440
49821SOL    HW258242   4.138  10.697   2.722 -1.1223 -0.7318 -0.2894
49822SOL     OW58243   1.662   7.062   2.888 -0.0953  0.1173  0.2203
49822SOL    HW158244   1.707   7.059   2.973  0.1999 -0.8082  0.0350
49822SOL    HW258245   1.586   7.004   2.899 -1.1800  1.5280  0.4771
49823SOL     OW58246   8.129   4.936  10.089 -0.3185 -0.3508  0.5052
49823SOL    HW158247   8.123   4.842  10.106 -0.3435 -0.3983  0.2375
49823SOL    HW258248   8.130   4.976  10.176 -1.4992 -0.5243  0.6123
49824SOL     OW58249   7.777   9.965   1.051  0.5148  0.0275  0.5443
49824SOL    HW158250   7.774   9.870   1.042 -2.3497  0.0651  0.1011
49824SOL    HW258251   7.750   9.999   0.966  2.1425  1.3256  0.4777
49825SOL     OW58252   2.244   8.413   0.865  0.1804  0.0611  0.0265
49825SOL    HW158253   2.189   8.488   0.889  1.7429  1.2723 -0.0398
49825SOL    HW258254   2.247   8.360   0.945  0.9535  1.2839  0.8328
49826SOL     OW58255   8.557   0.283   9.310  0.3101 -0.1907  0.1100
49826SOL    HW158256   8.603   0.206   9.343  0.3093  0.6528  2.2491
49826SOL    HW258257   8.621   0.354   9.316 -0.5373  0.5286  0.9071
49827SOL     OW58258   1.996   8.666   7.536 -0.1626  0.2899  0.5089
49827SOL    HW158259   1.923   8.663   7.475  0.3121  0.1616 -0.0621
49827SOL    HW258260   2.011   8.575   7.561 -0.2777  0.3289  0.7169
49828SOL     OW58261  10.140  12.211   4.783 -0.7001  0.0487 -0.1291
49828SOL    HW158262  10.232  12.186   4.785 -0.8211 -0.6065 -1.6089
49828SOL    HW258263  10.109  12.195   4.872  0.6103  0.3100  0.3963
49829SOL     OW58264  10.737   4.202   1.031 -0.7336  0.3982 -0.3000
49829SOL    HW158265  10.666   4.188   0.969 -0.2749  0.0373 -0.7580
49829SOL    HW258266  10.783   4.280   0.998  0.7908 -1.0150 -1.6667
49830SOL     OW58267   3.225   5.649   6.603  0.0869  0.6144  0.6800
49830SOL    HW158268   3.145   5.675   6.649 -1.8107  1.8574 -2.9896
49830SOL    HW258269   3.289   5.717   6.627 -1.4425  2.3807  0.0144
49831SOL     OW58270   1.909   9.110   3.519 -0.4337 -0.1464  0.0755
49831SOL    HW158271   1.818   9.122   3.491  0.0953  1.0964 -1.2667
49831SOL    HW258272   1.945   9.199   3.523  1.3602 -0.7003 -1.7684
49832SOL     OW58273   3.191  10.730  11.744  0.6135 -0.2942 -0.0030
49832SOL    HW158274   3.122  10.665  11.729 -1.1529  1.2513  1.0022
49832SOL    HW258275   3.197  10.779  11.662 -0.7493  0.6582  0.4349
49833SOL     OW58276  10.583   4.673   6.463 -0.3737  0.3064  0.6715
49833SOL    HW158277  10.593   4.623   6.382  0.3146  3.1856 -1.1489
49833SOL    HW258278  10.489   4.673   6.479 -0.7795  1.3495 -1.3435
49834SOL     OW58279   8.301   2.861   7.807  0.2043 -0.5619 -0.5592
49834SOL    HW158280   8.356   2.850   7.885 -1.3799 -0.7759  0.5741
49834SOL    HW258281   8.294   2.773   7.771 -1.1630 -0.9540  0.5751
49835SOL     OW58282   9.488  12.301  10.528 -0.5524  0.3859  0.0637
49835SOL    HW158283   9.526  12.337  10.608  1.1262 -0.6049 -0.2296
49835SOL    HW258284   9.555  12.315  10.461 -0.1238 -2.4246 -0.2287
49836SOL     OW58285   6.703   5.506  10.032  0.3978 -0.3110  0.9407
49836SOL    HW158286   6.772   5.443  10.007  0.5377 -0.6168  2.0406
49836SOL    HW258287   6.659   5.464  10.106 -0.7418  0.0564  0.4903
49837SOL     OW58288   3.249   5.947   5.183 -0.3625 -0.2192 -0.1181
49837SOL    HW158289   3.305   6.005   5.131 -1.3391  0.1475 -0.8079
49837SOL    HW258290   3.171   5.936   5.129  0.1293 -2.9053 -0.4107
49838SOL     OW58291   4.721   1.323   6.632 -0.2260  1.3879 -0.2062
49838SOL    HW158292   4.690   1.370   6.710 -0.1474  2.6594 -0.9068
49838SOL    HW258293   4.665   1.355   6.561 -0.3675  0.1696 -0.6657
49839SOL     OW58294   1.874   2.456   2.272  0.4948  0.1008  0.3016
49839SOL    HW158295   1.802   2.406   2.235 -1.7056  2.5397  0.9951
49839SOL    HW258296   1.908   2.508   2.199  0.3951  0.2296  0.3468
49840SOL     OW58297   4.756  12.472  11.021  0.0907  0.6150 -0.5999
49840SOL    HW158298   4.753  12.486  11.116 -0.3912  1.5164 -0.7434
49840SOL    HW258299   4.669  12.498  10.990 -0.2783 -1.1025 -1.1104
49841SOL     OW58300   8.627   4.125   4.250 -0.0348  0.2927 -0.3436
49841SOL    HW158301   8.673   4.094   4.327 -0.1154  0.1953 -0.3344
49841SOL    HW258302   8.696   4.154   4.190  0.0942 -0.8341 -0.7614
49842SOL     OW58303   2.438  10.252  10.395  0.4161 -0.3857  0.2907
49842SOL    HW158304   2.353  10.223  10.363  1.0262 -0.3853 -1.4511
49842SOL    HW258305   2.484  10.172  10.420  0.7153 -0.6229 -0.9448
49843SOL     OW58306  12.243   2.951  11.280  0.0968 -0.5208  0.2145
49843SOL    HW158307  12.308   2.890  11.244  0.1460  0.9168 -2.3713
49843SOL    HW258308  12.173   2.952  11.216 -1.6106 -0.5057  1.9789
49844SOL     OW58309   5.655   0.936   7.222 -0.1504 -0.1710  0.1655
49844SOL    HW158310   5.568   0.968   7.199 -0.1422  0.2862  0.7455
49844SOL    HW258311   5.681   0.989   7.297 -0.0624 -1.4135  1.0562
49845SOL     OW58312   2.229   6.162   9.033 -0.2877  0.2195 -0.4243
49845SOL    HW158313   2.294   6.132   9.096 -2.0017 -0.3567  1.1771
49845SOL    HW258314   2.194   6.081   8.994 -0.5478  0.4725 -0.7273
49846SOL     OW58315  11.516   0.376   8.790  0.5836  0.3967  0.6886
49846SOL    HW158316  11.574   0.332   8.728  1.4097  1.3766  0.7489
49846SOL    HW258317  11.536   0.469   8.780  0.1157  0.6324  1.8132
49847SOL     OW58318   9.721   3.361   7.639  0.1761  0.1271 -0.1573
49847SOL    HW158319   9.626   3.371   7.650  0.3564  0.1334  1.6110
49847SOL    HW258320   9.748   3.439   7.591 -0.4852  0.9607  0.7989
49848SOL     OW58321  10.907   6.992   1.305 -0.7489  0.2781 -0.1642
49848SOL    HW158322  10.862   6.947   1.233  1.0881 -0.7056 -0.7757
49848SOL    HW258323  10.916   6.926   1.373  0.3614  0.2294 -0.3395
49849SOL     OW58324   2.940   1.180   9.590 -0.3944 -0.1364 -0.1958
49849SOL    HW158325   2.931   1.115   9.520 -1.1928  0.4598 -0.6580
49849SOL    HW258326   2.860   1.232   9.585  1.1047  2.2612 -1.2444
49850SOL     OW58327   6.099   8.324   4.063  0.2812 -0.4718  0.0028
49850SOL    HW158328   6.007   8.345   4.074  0.7056  0.2873  3.0360
49850SOL    HW258329   6.115   8.252   4.125  1.8833  0.0068  0.2051
49851SOL     OW58330   2.024   2.988   9.106 -0.3631  0.2476 -0.5757
49851SOL    HW158331   2.011   2.895   9.085  4.6026 -0.9102  0.2961
49851SOL    HW258332   2.052   2.988   9.198  1.3620  2.3674 -1.0286
49852SOL     OW58333   8.306   6.452   1.403 -0.6062  0.1680  0.3555
49852SOL    HW158334   8.370   6.496   1.347 -1.2588  0.4191 -0.2155
49852SOL    HW258335   8.274   6.379   1.350 -1.2478  0.4215  0.3813
49853SOL     OW58336   2.836   3.450   1.703  0.1838 -0.1824 -0.4398
49853SOL    HW158337   2.787   3.478   1.625  0.0436  1.3207  0.1459
49853SOL    HW258338   2.800   3.504   1.774 -0.2138 -2.0534  0.8363
49854SOL     OW58339   5.701   6.416   2.325  0.5132  0.4699  0.1622
49854SOL    HW158340   5.613   6.382   2.343  0.7609  0.0196  0.5185
49854SOL    HW258341   5.685   6.505   2.293 -0.1252  0.0973 -0.5923
49855SOL     OW58342   8.023   6.518  10.790  0.0672 -0.0027  0.1267
49855SOL    HW158343   7.980   6.588  10.839  0.4396  1.3863 -1.4220
49855SOL    HW258344   8.115   6.524  10.816  0.0081 -0.2924  0.4071
49856SOL     OW58345   8.490   2.621   0.383  0.3941 -0.3860  0.2622
49856SOL    HW158346   8.428   2.604   0.453  1.3784 -0.0671  1.2386
49856SOL    HW258347   8.509   2.715   0.390  1.3772 -0.5803  0.3192
49857SOL     OW58348   0.634  10.784   3.029 -0.3286  0.2263 -0.3235
49857SOL    HW158349   0.540  10.767   3.032 -0.5617  1.5079  0.4068
49857SOL    HW258350   0.667  10.749   3.112 -0.2143  0.0481 -0.4444
49858SOL     OW58351   6.482   5.527   8.808 -0.3548 -0.0540  0.2373
49858SOL    HW158352   6.525   5.448   8.839 -0.2703 -0.5032 -0.9648
49858SOL    HW258353   6.528   5.550   8.727  1.4957  2.8451  1.9227
49859SOL     OW58354  11.472   8.112  10.000 -0.0378  0.0510 -0.2936
49859SOL    HW158355  11.379   8.134   9.993  0.3457  1.9741 -0.0749
49859SOL    HW258356  11.485   8.041   9.937 -1.6741 -0.3312 -0.2294
49860SOL     OW58357   4.160   9.376   5.108 -0.5970  0.0826 -0.2465
49860SOL    HW158358   4.186   9.296   5.063 -0.2317  0.0660 -0.0116
49860SOL    HW258359   4.082   9.351   5.158 -1.3761  0.2570 -1.3346
49861SOL     OW58360   0.765   0.958   7.972 -0.2162  0.3112 -0.3037
49861SOL    HW158361   0.820   0.973   8.048 -0.1230  0.5022 -0.4083
49861SOL    HW258362   0.681   0.931   8.008  0.2438 -1.0376 -0.1471
49862SOL     OW58363   4.230   8.472   1.432 -0.1098  0.0019  0.7125
49862SOL    HW158364   4.249   8.381   1.456  2.8201  0.1711 -0.4927
49862SOL    HW258365   4.239   8.473   1.336  0.8798  1.7223  0.7886
49863SOL     OW58366   1.880   3.281   7.144  0.3931  0.4676 -0.5148
49863SOL    HW158367   1.976   3.285   7.136  0.4164  0.3899 -0.2973
49863SOL    HW258368   1.866   3.242   7.230  0.1814 -1.1266 -1.2197
49864SOL     OW58369   6.087   0.479   6.429  0.2369 -0.1464 -0.1056
49864SOL    HW158370   6.172   0.454   6.392  0.5843  2.1283 -0.9985
49864SOL    HW258371   6.096   0.463   6.523  1.2550 -0.9160 -0.3164
49865SOL     OW58372   3.087   7.833   0.601  0.2231 -0.2491 -0.9919
49865SOL    HW158373   3.120   7.913   0.561 -0.2029  0.1432 -0.5833
49865SOL    HW258374   3.139   7.822   0.681  0.3513 -0.4379 -1.1004
49866SOL     OW58375  10.731   3.407   6.489 -0.0873  0.5172 -0.6218
49866SOL    HW158376  10.766   3.320   6.469  0.4681  0.8280 -1.0390
49866SOL    HW258377  10.643   3.390   6.524  0.3757 -0.2666  0.2070
49867SOL     OW58378  11.539   1.558   7.314  0.0969 -0.2546 -0.1501
49867SOL    HW158379  11.553   1.467   7.342 -1.3543 -0.0456  1.4228
49867SOL    HW258380  11.529   1.607   7.396 -1.5687  0.8956 -0.9917
49868SOL     OW58381   5.984   3.547   8.893  0.2705 -0.0078  0.2925
49868SOL    HW158382   6.051   3.492   8.853  1.1833  2.1784 -1.4190
49868SOL    HW258383   6.033   3.617   8.937 -0.8529  0.8640  0.2133
49869SOL     OW58384   2.668   0.004  10.272  0.4147 -0.2264  0.1675
49869SOL    HW158385   2.600   0.048  10.322 -0.2991 -1.2001  0.0695
49869SOL    HW258386   2.714  -0.051  10.337  1.4576  0.8109  0.3411
49870SOL     OW58387   5.847   4.005   5.568 -0.5571 -0.2109  0.4313
49870SOL    HW158388   5.910   4.076   5.556 -1.8196  0.6688 -1.6379
49870SOL    HW258389   5.782   4.041   5.628  0.0146 -0.5016  1.2364
49871SOL     OW58390   2.974   1.350   4.033 -0.2126 -0.0189 -0.7992
49871SOL    HW158391   2.889   1.322   4.001 -1.0016  0.0280  1.1266
49871SOL    HW258392   2.957   1.381   4.122  1.8425 -0.1600 -0.3131
49872SOL     OW58393   4.826   9.551   4.573  0.2152  0.0125 -0.5388
49872SOL    HW158394   4.890   9.482   4.558 -0.4686 -0.9898  0.9440
49872SOL    HW258395   4.862   9.627   4.526  1.7362 -0.9136 -0.9542
49873SOL     OW58396   8.893  10.948   3.801  0.9669  0.2073  0.3879
49873SOL    HW158397   8.815  10.954   3.745  2.4450 -0.1277 -1.8320
49873SOL    HW258398   8.966  10.936   3.740  2.5865 -1.3582  2.4579
49874SOL     OW58399  12.242  10.243   9.601 -0.2166 -0.1522  0.2603
49874SOL    HW158400  12.199  10.157   9.600  0.1470 -0.3658  1.2216
49874SOL    HW258401  12.309  10.234   9.669  0.2115  0.7110 -0.0477
49875SOL     OW58402   6.074  10.477   4.597 -0.0149 -0.3722  0.5391
49875SOL    HW158403   6.007  10.517   4.542 -1.1336 -2.7326  0.0154
49875SOL    HW258404   6.024  10.437   4.669  0.9405 -1.3186  0.7008
49876SOL     OW58405   4.860   7.241   3.370  0.3157 -0.5895  0.1097
49876SOL    HW158406   4.892   7.208   3.285 -0.3577  1.2049 -0.9037
49876SOL    HW258407   4.900   7.328   3.378  0.2560 -0.6750  1.6000
49877SOL     OW58408   4.428  11.842   5.358 -0.5203  0.0571  0.0372
49877SOL    HW158409   4.339  11.834   5.324  0.4086  0.2279 -2.6556
49877SOL    HW258410   4.416  11.875   5.447 -3.1609 -0.9784  0.1656
49878SOL     OW58411   3.700   8.615  11.955  0.0248 -0.0692 -0.1567
49878SOL    HW158412   3.635   8.601  11.886 -2.3126 -0.1269  1.9493
49878SOL    HW258413   3.673   8.697  11.997 -0.0807 -1.2392  2.1846
49879SOL     OW58414   2.060   7.130   2.385 -0.5822  0.6104  0.1688
49879SOL    HW158415   2.154   7.119   2.369 -0.3675  2.5911 -0.1364
49879SOL    HW258416   2.028   7.179   2.309 -1.7841  0.3588  0.4852
49880SOL     OW58417   1.911   5.854   2.563  0.3427  0.0242 -0.2401
49880SOL    HW158418   1.931   5.780   2.621 -1.3174  0.3827  0.8604
49880SOL    HW258419   1.996   5.877   2.523  1.4838 -0.4884  1.7545
49881SOL     OW58420   5.376   6.226  11.280  0.0196 -0.0925 -0.1468
49881SOL    HW158421   5.348   6.277  11.356 -0.0439 -1.9282  1.1321
49881SOL    HW258422   5.427   6.287  11.228 -0.8964  1.5432  0.7757
49882SOL     OW58423  10.073   8.971  11.023  0.7319  1.1531  0.1416
49882SOL    HW158424  10.164   8.976  10.994  0.5654  0.5807 -0.4951
49882SOL    HW258425  10.021   8.979  10.943  0.2256  1.2572  0.4733
49883SOL     OW58426   4.419   4.582   4.068  0.1527  0.1229  0.0138
49883SOL    HW158427   4.356   4.533   4.121  0.6086 -1.2731 -0.6904
49883SOL    HW258428   4.460   4.643   4.129  0.9752 -1.7325  1.4011
49884SOL     OW58429   5.207   3.672  12.108  0.1529  0.2712 -0.6606
49884SOL    HW158430   5.256   3.650  12.187 -0.8751 -0.8846 -0.3035
49884SOL    HW258431   5.163   3.754  12.129 -0.7041 -0.4015  0.2761
49885SOL     OW58432   3.031   1.232   6.405 -0.3667 -0.9227  0.8999
49885SOL    HW158433   2.939   1.212   6.391 -0.2359 -1.3268  0.5818
49885SOL    HW258434   3.059   1.172   6.475 -0.2686 -1.0221  0.7764
49886SOL     OW58435   6.634   6.110   8.211 -0.0485 -0.2564 -0.2138
49886SOL    HW158436   6.714   6.089   8.162  0.5485  1.1171  0.1355
49886SOL    HW258437   6.652   6.195   8.251 -1.5495 -0.1065  0.1921
49887SOL     OW58438   2.393   9.061   1.839  0.1916 -0.5577 -0.3836
49887SOL    HW158439   2.474   9.060   1.787  1.0861  0.8780  0.8985
49887SOL    HW258440   2.337   9.124   1.794  0.1571 -0.8267 -0.7252
49888SOL     OW58441  11.583  11.244   6.693 -0.1048  0.0645  0.1153
49888SOL    HW158442  11.501  11.201   6.672 -0.0845  0.6483 -1.2827
49888SOL    HW258443  11.648  11.201   6.638 -0.0615  1.7179 -1.2195
49889SOL     OW58444   1.503   9.556   7.839  0.7184 -0.1705  0.4319
49889SOL    HW158445   1.487   9.493   7.909  0.0027  2.5690  2.9331
49889SOL    HW258446   1.419   9.565   7.795 -0.0270  1.1777  2.0428
49890SOL     OW58447   9.631   2.231   6.815 -0.0177  0.6463 -0.1323
49890SOL    HW158448   9.540   2.203   6.825 -0.8129  3.2150  0.6997
49890SOL    HW258449   9.625   2.316   6.771  1.8277  1.5791  1.2481
49891SOL     OW58450   4.048   3.148   0.799 -0.7032 -0.1913 -0.2848
49891SOL    HW158451   4.096   3.208   0.742 -1.6967  1.2108  0.3130
49891SOL    HW258452   4.098   3.148   0.881  0.2338 -1.5367 -0.8026
49892SOL     OW58453   6.059  11.364   1.791  0.5416  0.0697  0.2651
49892SOL    HW158454   6.015  11.291   1.749  1.4828 -0.9420  0.9864
49892SOL    HW258455   6.152  11.349   1.775  0.8565  0.2485  1.7273
49893SOL     OW58456   5.014   3.690   4.457  0.2818  0.0432 -0.2325
49893SOL    HW158457   4.980   3.780   4.457 -1.0359 -0.3826 -2.5085
49893SOL    HW258458   5.042   3.675   4.367  1.1966 -1.5926  0.2901
49894SOL     OW58459   9.791   5.156   6.255  0.0316 -0.7355  0.0783
49894SOL    HW158460   9.808   5.250   6.244 -1.4580 -0.1577  1.9880
49894SOL    HW258461   9.809   5.140   6.348 -1.0080 -2.0116  0.0878
49895SOL     OW58462   5.784  10.627   0.883  0.3735 -0.0158  0.0447
49895SOL    HW158463   5.700  10.583   0.870 -0.2812  0.8973  1.0037
49895SOL    HW258464   5.841  10.559   0.921 -0.4115 -0.2371  0.8711
49896SOL     OW58465   3.911   5.458   9.659  0.6971 -0.5959 -0.2247
49896SOL    HW158466   3.993   5.414   9.683  0.8595  0.5400  1.4755
49896SOL    HW258467   3.927   5.550   9.677 -0.4447 -0.1339 -1.4154
49897SOL     OW58468   1.273   2.668   8.485 -0.5940 -0.0566  0.2163
49897SOL    HW158469   1.347   2.669   8.546  0.0579  1.8352 -0.5150
49897SOL    HW258470   1.240   2.758   8.487 -1.5094 -0.3474 -1.0820
49898SOL     OW58471   8.270   1.498   4.941  0.4263 -0.1696 -0.5897
49898SOL    HW158472   8.239   1.545   5.018  0.8227  0.0845 -0.5853
49898SOL    HW258473   8.253   1.406   4.961  1.7135 -0.2265  0.3543
49899SOL     OW58474   1.709   1.194   5.353  0.2735 -0.5109  0.6077
49899SOL    HW158475   1.788   1.153   5.388  1.4991  0.7951 -0.4578
49899SOL    HW258476   1.708   1.170   5.260 -0.3534 -0.1856  0.5224
49900SOL     OW58477   8.622  10.488   3.892  0.5485 -0.3278  0.1151
49900SOL    HW158478   8.709  10.525   3.884  0.2935  0.6070  1.3554
49900SOL    HW258479   8.631  10.419   3.958  0.0109  1.0643  1.7167
49901SOL     OW58480  10.102   7.270   8.173  0.1003 -0.3514 -0.2794
49901SOL    HW158481  10.049   7.224   8.107  0.1631  1.0542 -1.3657
49901SOL    HW258482  10.048   7.344   8.199  0.7546  0.0327  0.0100
49902SOL     OW58483   8.285   2.229   9.264 -0.0259  0.8728 -0.1319
49902SOL    HW158484   8.275   2.173   9.341  0.1697  0.1537 -0.6136
49902SOL    HW258485   8.361   2.284   9.285  2.7659 -2.1234 -1.3599
49903SOL     OW58486   5.553  10.296  10.876 -0.0787  1.0779  0.1149
49903SOL    HW158487   5.471  10.251  10.895 -0.6427  2.4566  1.1458
49903SOL    HW258488   5.530  10.360  10.808  0.9910 -0.9195 -2.3083
49904SOL     OW58489   5.489  11.646   3.876 -0.3448 -0.2535 -0.4565
49904SOL    HW158490   5.524  11.713   3.816  1.6508 -0.4869  0.3665
49904SOL    HW258491   5.541  11.656   3.956 -1.8441 -1.0421  0.6589
49905SOL     OW58492   3.496   5.460  11.723 -0.1700  0.7530  0.4760
49905SOL    HW158493   3.518   5.457  11.629  2.1494  1.4934  0.9286
49905SOL    HW258494   3.494   5.368  11.750  0.7671  0.5796  0.0100
49906SOL     OW58495   5.870   3.590  10.847  0.0351 -0.2819  0.3457
49906SOL    HW158496   5.830   3.590  10.760 -0.2839 -4.1794  0.3063
49906SOL    HW258497   5.800   3.617  10.905  0.0292  1.5993 -0.4500
49907SOL     OW58498   3.122  12.298   4.512  0.1764 -0.2036 -0.7448
49907SOL    HW158499   3.171  12.359   4.457 -2.0130  0.5982 -1.8980
49907SOL    HW258500   3.071  12.245   4.450 -0.4808 -0.9619  0.4044
49908SOL     OW58501   5.341   2.797   9.155 -0.2099  0.2662  0.2515
49908SOL    HW158502   5.302   2.732   9.095 -2.1423 -0.4250  2.1409
49908SOL    HW258503   5.300   2.880   9.130 -1.0890 -0.0363  0.6492
49909SOL     OW58504  12.378   3.751   0.446  0.3585 -0.1467  0.5642
49909SOL    HW158505  12.428   3.826   0.415 -0.5119  0.2572  0.1024
49909SOL    HW258506  12.325   3.725   0.371 -0.7300 -0.0479  1.2757
49910SOL     OW58507  11.460   4.397  11.573 -0.1495 -0.1711  0.2999
49910SOL    HW158508  11.488   4.488  11.583  1.0920 -0.1829 -2.1052
49910SOL    HW258509  11.483   4.355  11.656  2.1701  1.0540  0.3617
49911SOL     OW58510   0.303   5.875   5.755 -0.1214 -0.1408 -0.4955
49911SOL    HW158511   0.385   5.865   5.706  0.8136 -0.6624  1.1013
49911SOL    HW258512   0.263   5.788   5.752 -0.7280  0.1592 -1.4296
49912SOL     OW58513   5.250   5.480   1.878  0.6920  0.7101  0.3599
49912SOL    HW158514   5.301   5.518   1.806 -0.4951 -0.3893 -1.1390
49912SOL    HW258515   5.223   5.556   1.930  2.5898  1.4352  0.3777
49913SOL     OW58516   4.625  11.178   3.989 -0.1648 -0.0047  0.5568
49913SOL    HW158517   4.647  11.210   4.076  0.2056 -0.1467  0.5157
49913SOL    HW258518   4.654  11.248   3.930  1.7672 -0.9026  0.3698
49914SOL     OW58519   8.586  10.930   6.439 -0.2014 -0.2591 -0.7996
49914SOL    HW158520   8.584  10.835   6.451  0.8852 -0.2410 -0.4497
49914SOL    HW258521   8.536  10.945   6.359 -1.7062 -0.9812 -0.0388
49915SOL     OW58522   2.822   9.060   9.106  0.1684  0.1251  0.1377
49915SOL    HW158523   2.728   9.071   9.091 -0.3918 -1.2466  2.1831
49915SOL    HW258524   2.844   8.981   9.055  0.0088 -0.0386  0.3168
49916SOL     OW58525   4.821   9.475   8.740 -0.3142  0.0160  0.0410
49916SOL    HW158526   4.776   9.461   8.657  1.7977  1.0398 -1.3472
49916SOL    HW258527   4.827   9.570   8.749  1.9593 -0.0732 -0.0952
49917SOL     OW58528   7.715   3.972   5.670 -0.2412 -0.1175 -0.4861
49917SOL    HW158529   7.788   3.946   5.726  0.1730  2.6209  0.4269
49917SOL    HW258530   7.756   4.016   5.596 -0.8475  2.4311  0.5687
49918SOL     OW58531   4.737  11.752   1.259  0.8062  0.1415  0.0369
49918SOL    HW158532   4.653  11.774   1.299  1.5828 -0.4148  2.1012
49918SOL    HW258533   4.738  11.657   1.257  1.1393  0.1533 -0.5911
49919SOL     OW58534   5.455   7.619   8.162 -0.1751  0.0259 -0.0183
49919SOL    HW158535   5.535   7.589   8.206  0.4398  1.4857 -0.0708
49919SOL    HW258536   5.471   7.600   8.070  0.9966  2.0331 -0.2921
49920SOL     OW58537   6.754   5.304   0.780 -0.3561 -0.1850 -0.2922
49920SOL    HW158538   6.820   5.368   0.809 -0.4356  0.0761 -0.6876
49920SOL    HW258539   6.798   5.220   0.790 -0.9607 -0.2739  2.2478
49921SOL     OW58540  10.040   1.432   3.674 -0.0395  0.0689 -0.5399
49921SOL    HW158541  10.042   1.482   3.755  0.8423 -0.8870  0.0484
49921SOL    HW258542  10.029   1.497   3.605  0.5271  1.0161  0.2515
49922SOL     OW58543   8.444   2.796  11.097  0.6191  0.0652 -0.4963
49922SOL    HW158544   8.504   2.860  11.136  0.7975 -0.6254  0.3970
49922SOL    HW258545   8.488   2.768  11.016  0.7937  0.6589 -0.6096
49923SOL     OW58546   1.063   8.844  12.442 -0.0577 -0.0366  0.4328
49923SOL    HW158547   1.143   8.893  12.424  0.5229 -0.7054  1.1141
49923SOL    HW258548   0.993   8.909  12.439  0.8918  1.2365  3.2987
49924SOL     OW58549  10.266   8.242  12.586  0.2164 -0.4109  0.4459
49924SOL    HW158550  10.234   8.287  12.508 -0.9019 -1.2973  0.3728
49924SOL    HW258551  10.188   8.228  12.640  1.1122  1.1572  2.2698
49925SOL     OW58552  11.839   7.202   1.219 -0.4306 -0.0128  0.0793
49925SOL    HW158553  11.799   7.170   1.138  0.7639  0.3317 -0.6830
49925SOL    HW258554  11.787   7.278   1.244 -2.0054 -1.2521  0.7399
49926SOL     OW58555   7.335   1.118   3.267  0.6860  0.4514  0.4208
49926SOL    HW158556   7.305   1.148   3.181 -0.8989 -1.7490  0.1046
49926SOL    HW258557   7.404   1.055   3.248 -1.7183 -2.4122  0.4098
49927SOL     OW58558   6.978   8.909   9.633  0.5512  0.6422 -0.1112
49927SOL    HW158559   6.917   8.923   9.560 -1.4200  0.7329  1.4632
49927SOL    HW258560   7.060   8.948   9.603  0.0166  0.1074 -2.5176
49928SOL     OW58561   3.216  12.501   8.896 -0.0910 -0.1119 -0.2671
49928SOL    HW158562   3.278  12.442   8.853  1.1604 -0.3936  1.7985
49928SOL    HW258563   3.246  12.589   8.873  1.6466 -0.2249  1.3772
49929SOL     OW58564   4.392   2.960   2.585 -0.1283 -0.5317  0.3194
49929SOL    HW158565   4.460   2.894   2.568 -0.3499 -0.5760 -0.4530
49929SOL    HW258566   4.331   2.916   2.644  1.1607 -0.0557  2.0901
49930SOL     OW58567   2.108   1.408   3.473  0.1339 -0.1051  0.4530
49930SOL    HW158568   2.062   1.455   3.543 -0.6170 -0.2012  0.0407
49930SOL    HW258569   2.051   1.333   3.454  0.2245  0.0374 -0.3962
49931SOL     OW58570  10.535   3.898   8.840 -0.5062 -0.5849  0.9222
49931SOL    HW158571  10.513   3.811   8.807 -0.6286  0.4413 -1.9279
49931SOL    HW258572  10.630   3.902   8.836 -0.5761 -0.0400 -0.5543
49932SOL     OW58573  12.074  12.461   5.536  0.3602 -0.5008  0.0459
49932SOL    HW158574  11.998  12.406   5.550  1.1716 -1.4970  0.7080
49932SOL    HW258575  12.084  12.465   5.440 -0.8073  0.0905 -0.0705
49933SOL     OW58576  11.935   4.788  10.748  0.4914  0.2091 -0.5198
49933SOL    HW158577  11.841   4.778  10.735  0.5776  0.0250 -1.0381
49933SOL    HW258578  11.952   4.880  10.728 -0.1267  1.2678  3.1507
49934SOL     OW58579   1.897   9.083  11.059 -0.3295  0.1106  0.7441
49934SOL    HW158580   1.831   9.118  10.999  1.5919  0.8810 -1.0476
49934SOL    HW258581   1.960   9.154  11.070  2.3024 -1.7844 -0.8763
49935SOL     OW58582   5.042   1.165  12.475 -0.1755  0.3036 -0.1197
49935SOL    HW158583   5.067   1.108  12.547  1.3197  0.3490 -0.5603
49935SOL    HW258584   4.968   1.121  12.433  0.1178 -0.6357  0.3404
49936SOL     OW58585  12.196   4.582   7.401 -0.0269 -0.0908 -0.0142
49936SOL    HW158586  12.192   4.530   7.482 -1.4544 -1.9882 -1.1913
49936SOL    HW258587  12.270   4.640   7.413 -0.3152 -0.1646  2.7332
49937SOL     OW58588   6.188   8.867   5.665 -0.3727 -0.2579  0.4497
49937SOL    HW158589   6.283   8.865   5.668 -0.4150 -1.4586  1.7666
49937SOL    HW258590   6.162   8.780   5.635 -1.0578  0.2463 -0.4848
49938SOL     OW58591  10.790   6.409   7.381 -0.5496  0.1276  0.2216
49938SOL    HW158592  10.834   6.492   7.397  0.1309 -0.3593  0.9300
49938SOL    HW258593  10.786   6.367   7.467 -0.4504 -0.7789 -0.2081
49939SOL     OW58594   1.574   8.558  11.803  0.1635  0.1409 -0.4833
49939SOL    HW158595   1.488   8.590  11.833 -0.1600  1.4320 -2.5984
49939SOL    HW258596   1.556   8.514  11.720  1.4733 -0.1067 -0.6595
49940SOL     OW58597  10.301   2.879   1.441 -0.1886  0.2703  0.1158
49940SOL    HW158598  10.385   2.837   1.458 -0.4898 -0.3570  0.0629
49940SOL    HW258599  10.298   2.890   1.346  0.3248  1.3389  0.2072
49941SOL     OW58600   2.453   6.405   2.115  0.8070 -0.4492 -0.2270
49941SOL    HW158601   2.414   6.337   2.060 -0.5214 -0.2568  0.4303
49941SOL    HW258602   2.431   6.487   2.070  2.2488 -0.4121 -0.9222
49942SOL     OW58603   2.536  11.769  10.842  0.2975 -0.0163  0.3441
49942SOL    HW158604   2.467  11.834  10.858  0.2700 -0.0008  0.1698
49942SOL    HW258605   2.617  11.820  10.836  0.1520  0.1156 -0.7395
49943SOL     OW58606  10.418   0.892   0.829  0.0778 -0.6480 -0.1354
49943SOL    HW158607  10.468   0.919   0.751 -0.5687  0.6605 -0.1178
49943SOL    HW258608  10.444   0.955   0.896 -1.8962  0.3554 -0.2482
49944SOL     OW58609   2.846  11.032   9.379  0.0871 -0.2620  0.7143
49944SOL    HW158610   2.818  10.947   9.345 -0.6769  0.0376  0.5697
49944SOL    HW258611   2.923  11.054   9.326 -0.0237 -0.6177  0.3950
49945SOL     OW58612   0.711   7.850   2.609  0.0410 -0.4825 -0.0192
49945SOL    HW158613   0.661   7.932   2.608 -0.9464 -0.9823  2.0512
49945SOL    HW258614   0.648   7.782   2.587  0.5201 -0.8329 -0.3322
49946SOL     OW58615   5.311  11.280  11.583 -0.2461  0.7198 -0.4466
49946SOL    HW158616   5.267  11.337  11.520  0.2944  0.7949 -0.7629
49946SOL    HW258617   5.363  11.340  11.637 -0.9128  0.6863  0.2593
49947SOL     OW58618   2.770  10.753   0.556  0.2332  0.0666 -0.2885
49947SOL    HW158619   2.740  10.794   0.475 -0.6412 -1.1443 -0.5957
49947SOL    HW258620   2.727  10.804   0.626 -0.2930  0.1016 -0.6357
49948SOL     OW58621   9.952  10.212   7.856 -0.7379  0.5863 -0.2010
49948SOL    HW158622   9.992  10.150   7.794  0.2398  1.4657 -0.4943
49948SOL    HW258623  10.017  10.221   7.926 -1.2960  0.5428  0.3272
49949SOL     OW58624   3.253   5.497   7.455  0.9122 -1.0339 -0.0630
49949SOL    HW158625   3.234   5.588   7.478 -0.0945 -1.2853  0.1339
49949SOL    HW258626   3.269   5.499   7.361  3.5721 -0.2375  0.3152
49950SOL     OW58627   5.100   1.357   4.020  0.3679 -0.0582 -0.0794
49950SOL    HW158628   5.126   1.266   4.003  1.7140  0.2896 -0.0394
49950SOL    HW258629   5.182   1.402   4.040 -0.2369  1.2312 -0.3617
49951SOL     OW58630   3.118   1.178   8.674 -0.2177  0.1332  0.5645
49951SOL    HW158631   3.091   1.183   8.765 -1.5618  1.5018  0.1322
49951SOL    HW258632   3.109   1.267   8.641  0.9586 -0.1821 -0.7223
49952SOL     OW58633   3.069   5.234   8.199 -0.5030  0.0077  0.4310
49952SOL    HW158634   3.032   5.323   8.196  1.3619  0.8111 -0.4239
49952SOL    HW258635   3.042   5.195   8.116  0.6367  0.6756 -0.2973
49953SOL     OW58636   7.705  12.433   1.565 -0.1157  0.1490 -0.2897
49953SOL    HW158637   7.756  12.464   1.490 -0.2463 -1.3365 -1.0327
49953SOL    HW258638   7.634  12.497   1.573 -0.3380  0.1172 -1.7093
49954SOL     OW58639   9.299   0.249   2.778 -0.8501 -0.3342 -0.2772
49954SOL    HW158640   9.377   0.300   2.754  0.1269 -2.1259 -1.1851
49954SOL    HW258641   9.235   0.270   2.710 -0.2310 -0.7658 -1.0163
49955SOL     OW58642   1.542  10.912   8.217  0.6461  0.0621 -0.1033
49955SOL    HW158643   1.497  10.862   8.285 -0.0337 -0.6362 -1.0530
49955SOL    HW258644   1.626  10.867   8.205  0.9354  0.4161  0.5277
49956SOL     OW58645   9.693   1.031  11.897 -0.2477 -0.4460 -0.2634
49956SOL    HW158646   9.617   1.089  11.903  0.9382  1.0057  1.6809
49956SOL    HW258647   9.676   0.963  11.962  0.4555  0.3251  0.7418
49957SOL     OW58648   1.965   2.982   1.589 -0.4854  0.4805  0.1836
49957SOL    HW158649   1.960   3.053   1.653  0.1330 -1.2930  2.3170
49957SOL    HW258650   2.038   2.928   1.619  0.6683  0.1940 -2.7730
49958SOL     OW58651   0.053   5.481   5.318  0.3691  0.3540 -0.2368
49958SOL    HW158652   0.042   5.547   5.250  2.1792  0.5358 -0.3961
49958SOL    HW258653   0.006   5.517   5.394  0.7711  1.5290 -0.5246
49959SOL     OW58654  11.290   2.684  10.645  0.5703 -0.1213  0.3135
49959SOL    HW158655  11.370   2.676  10.696  1.1468 -1.7391 -0.7614
49959SOL    HW258656  11.235   2.610  10.673 -0.4012  0.7403  0.7577
49960SOL     OW58657   3.550  12.598  11.884 -0.1085  0.0465 -0.1456
49960SOL    HW158658   3.458  12.577  11.867 -0.5274  0.5182  1.4312
49960SOL    HW258659   3.561  12.685  11.845 -0.9882  1.0006  1.6278
49961SOL     OW58660   7.654   2.304  12.326 -0.1696 -0.0276 -0.0059
49961SOL    HW158661   7.561   2.310  12.308 -0.2504 -1.2191 -0.0518
49961SOL    HW258662   7.663   2.226  12.382  0.6629  0.7136  0.9371
49962SOL     OW58663  11.877   9.749  12.425  0.3415  0.1693  0.2478
49962SOL    HW158664  11.932   9.681  12.465 -0.6771 -0.2039  1.0356
49962SOL    HW258665  11.893   9.827  12.478 -1.9974 -0.6423  2.3223
49963SOL     OW58666   8.842   0.723  11.391 -0.3709  0.1553  0.2304
49963SOL    HW158667   8.753   0.736  11.361 -0.5726 -0.5600  0.5110
49963SOL    HW258668   8.839   0.744  11.485 -0.1841  0.3717  0.1919
49964SOL     OW58669   2.896   9.994   1.724  0.1299 -0.5647 -0.5309
49964SOL    HW158670   2.803  10.014   1.725  0.1515 -0.0813  2.7782
49964SOL    HW258671   2.937  10.073   1.688 -0.5795  0.7270  1.3230
49965SOL     OW58672  11.804  10.658   0.355  0.3292  0.1125 -0.1245
49965SOL    HW158673  11.837  10.745   0.377  0.6465  0.1533 -0.7278
49965SOL    HW258674  11.840  10.640   0.268 -1.7118  0.3916 -1.0918
49966SOL     OW58675   5.499   9.771  11.053 -0.5095 -0.2281 -0.2049
49966SOL    HW158676   5.557   9.819  10.993 -0.6282  0.5570  0.2898
49966SOL    HW258677   5.420   9.825  11.058 -0.9407 -0.8501 -0.1952
49967SOL     OW58678   1.957   7.088  11.821 -0.2425 -0.1961 -0.5631
49967SOL    HW158679   1.942   7.099  11.727  1.4241 -0.8435 -0.9458
49967SOL    HW258680   1.945   6.994  11.836 -0.8237 -0.0420 -0.0612
49968SOL     OW58681  12.498   3.550   5.269 -0.8358  0.2769 -0.2904
49968SOL    HW158682  12.518   3.461   5.241  0.2505  0.5358 -0.3629
49968SOL    HW258683  12.524   3.605   5.195  1.4812  0.9091  0.9084
49969SOL     OW58684   0.696   8.502  10.280  0.1948  0.3422  0.2637
49969SOL    HW158685   0.744   8.427  10.246  1.7872  1.6339 -0.4453
49969SOL    HW258686   0.734   8.519  10.366 -0.7814 -0.1927  0.8162
49970SOL     OW58687  11.796   0.647   4.846 -0.0650 -0.1863 -0.5544
49970SOL    HW158688  11.708   0.683   4.856  0.0293 -0.0598 -0.1616
49970SOL    HW258689  11.816   0.656   4.753 -0.4393 -0.1532 -0.6312
49971SOL     OW58690   6.130   1.915   3.147 -0.1027  0.0238 -0.1894
49971SOL    HW158691   6.149   1.854   3.219 -0.0960 -0.4593 -0.5914
49971SOL    HW258692   6.179   1.994   3.169  1.7184 -0.8703 -0.7501
49972SOL     OW58693  11.618   2.585  10.466  0.5799 -0.0867  0.6470
49972SOL    HW158694  11.563   2.518  10.427  0.0366  0.5563  0.2772
49972SOL    HW258695  11.667   2.540  10.535  1.2661 -1.1553 -0.4944
49973SOL     OW58696   4.008   6.926   3.976  0.3145  0.2059 -0.1284
49973SOL    HW158697   4.042   6.864   4.040  1.4048  2.4007  1.5312
49973SOL    HW258698   4.073   6.927   3.906  0.0075 -0.8726 -0.4559
49974SOL     OW58699  11.906  10.873   6.811 -0.0889  0.0818 -0.2247
49974SOL    HW158700  11.901  10.918   6.896 -1.6235  1.8721 -1.1947
49974SOL    HW258701  11.922  10.782   6.834 -2.3373  0.1529  2.1186
49975SOL     OW58702   5.011   4.723   7.918  0.4189 -0.3392 -0.2636
49975SOL    HW158703   4.957   4.724   7.839  0.7126 -0.6559 -0.4739
49975SOL    HW258704   4.957   4.679   7.984 -0.0128  0.3512 -0.1470
49976SOL     OW58705   2.352   7.614  10.997  0.2849 -0.2190 -0.7457
49976SOL    HW158706   2.411   7.690  11.002  0.4371 -0.1709 -2.5770
49976SOL    HW258707   2.305   7.615  11.080  1.5302  0.8498 -0.0122
49977SOL     OW58708   2.369   9.531   1.459 -0.5991  0.2079 -0.2520
49977SOL    HW158709   2.275   9.544   1.445 -1.1096 -1.3200  1.3187
49977SOL    HW258710   2.384   9.559   1.549  0.7283  1.5401 -0.8435
49978SOL     OW58711  11.445  11.224   0.126  0.6133 -0.5787 -0.2764
49978SOL    HW158712  11.377  11.171   0.167 -1.3194  2.1062  0.2707
49978SOL    HW258713  11.405  11.254   0.044  2.4851 -1.6253 -1.6598
49979SOL     OW58714   8.032   5.562   7.223  0.3577 -0.2420 -0.3205
49979SOL    HW158715   8.101   5.508   7.185 -0.6398 -0.8781 -1.2830
49979SOL    HW258716   7.962   5.563   7.157 -0.3767  0.7591  0.4282
49980SOL     OW58717   4.462  11.524   2.272 -0.1219 -0.6803 -0.3874
49980SOL    HW158718   4.499  11.478   2.347 -0.4079  0.7498  0.6815
49980SOL    HW258719   4.502  11.482   2.196  0.8493 -1.5917  0.5870
49981SOL     OW58720   8.048  10.986   2.114  0.6967 -0.1767 -0.0597
49981SOL    HW158721   8.046  11.073   2.155  0.2698 -0.1761 -0.0698
49981SOL    HW258722   8.122  10.942   2.155  1.0502  0.2668 -0.2122
49982SOL     OW58723   4.594   5.964  11.378 -0.2953 -0.3200 -0.8650
49982SOL    HW158724   4.675   5.921  11.351 -0.4284 -1.9036  1.0269
49982SOL    HW258725   4.557   5.906  11.444 -0.9363  2.3008  1.2642
49983SOL     OW58726   2.959  10.019   3.779 -0.1782  0.2793 -0.2777
49983SOL    HW158727   3.049  10.032   3.809  0.6021 -0.3609 -2.1912
49983SOL    HW258728   2.927   9.945   3.831  0.1553  0.9216  0.8646
49984SOL     OW58729   7.493   6.101  10.029 -0.3354  0.0319 -0.1635
49984SOL    HW158730   7.433   6.039   9.987 -1.8007  0.6553  0.9449
49984SOL    HW258731   7.572   6.098   9.974 -0.2581 -2.9381 -0.0543
49985SOL     OW58732  11.808  10.727   1.211  0.6329 -0.3527  0.0869
49985SOL    HW158733  11.862  10.806   1.216  0.9318 -0.6044  1.0495
49985SOL    HW258734  11.834  10.675   1.287  0.2985 -1.2940 -0.4187
49986SOL     OW58735   8.739   5.310   5.892 -0.2511 -0.3786  0.3009
49986SOL    HW158736   8.659   5.259   5.893 -0.5633  0.1079  1.2779
49986SOL    HW258737   8.730   5.368   5.816  0.1878 -1.8478 -0.9315
49987SOL     OW58738   5.371   4.612   9.094 -0.2354  0.7147 -0.1949
49987SOL    HW158739   5.458   4.577   9.113 -0.6925 -0.3228  0.0332
49987SOL    HW258740   5.380   4.653   9.008 -0.4827 -3.0027 -2.2040
49988SOL     OW58741   9.389  11.050  11.679 -0.2111  0.2610  0.1417
49988SOL    HW158742   9.392  10.960  11.646  3.5884  0.4700 -0.4389
49988SOL    HW258743   9.332  11.095  11.616  1.2525 -0.8765 -2.1632
49989SOL     OW58744   3.789  12.447  11.807 -0.1568 -0.1877  0.1783
49989SOL    HW158745   3.746  12.454  11.722  0.6072 -0.6572 -0.2557
49989SOL    HW258746   3.734  12.499  11.866  0.4510  1.9279 -1.0349
49990SOL     OW58747   3.389   3.117   1.261  0.1340 -0.8788 -0.2589
49990SOL    HW158748   3.315   3.126   1.322  0.6067 -0.5267  0.2719
49990SOL    HW258749   3.418   3.207   1.244  0.8711 -1.0449  0.0799
49991SOL     OW58750   7.603   3.203   0.306  0.5465 -0.0433  0.1104
49991SOL    HW158751   7.653   3.154   0.371 -0.1031  0.6214  1.1439
49991SOL    HW258752   7.650   3.286   0.296  0.7173 -0.1946 -0.3752
49992SOL     OW58753  12.528  12.141   9.021 -0.2671  0.2511  0.1410
49992SOL    HW158754  12.578  12.147   9.102 -2.8262  0.8548  1.8219
49992SOL    HW258755  12.524  12.048   9.001  0.4511  0.1003  0.6722
49993SOL     OW58756   9.470   8.862   6.450 -0.1136 -0.3950  0.7458
49993SOL    HW158757   9.474   8.952   6.483  0.9428  0.7336 -2.1647
49993SOL    HW258758   9.553   8.823   6.478  0.2295  0.1493  0.5128
49994SOL     OW58759   0.368   0.290  11.708  0.1290 -0.4764  0.0950
49994SOL    HW158760   0.453   0.311  11.670  0.1796  0.0181  0.4669
49994SOL    HW258761   0.310   0.360  11.676  0.4012  0.5512  1.7190
49995SOL     OW58762  10.170   9.028   7.025  0.0897  0.3402 -0.7945
49995SOL    HW158763  10.187   9.095   7.091  0.3845  0.0128 -0.5363
49995SOL    HW258764  10.239   9.041   6.960 -0.8324  1.3761 -1.6193
49996SOL     OW58765   0.697  12.505   7.040 -0.4116 -0.4747  0.4317
49996SOL    HW158766   0.705  12.582   6.983  2.1186 -1.6649 -1.0072
49996SOL    HW258767   0.607  12.475   7.027 -0.8935  1.1949 -0.3675
49997SOL     OW58768   5.201   1.510  11.209 -0.7972  0.8870 -0.8057
49997SOL    HW158769   5.188   1.552  11.124 -0.1377  1.8880 -0.4395
49997SOL    HW258770   5.291   1.477  11.206 -0.5008  1.6137 -0.2321
49998SOL     OW58771   0.651   6.036   9.802  0.2559  0.0191 -0.6927
49998SOL    HW158772   0.742   6.008   9.803  0.6529  1.0607  2.8079
49998SOL    HW258773   0.655   6.129   9.780  0.0063  0.0051 -0.8007
49999SOL     OW58774   3.439  12.062  10.099  0.3674 -0.2599  0.0395
49999SOL    HW158775   3.367  12.030  10.155 -1.3162  1.8058 -0.7820
49999SOL    HW258776   3.441  12.001  10.025 -0.3886 -0.4877  0.1950
50000SOL     OW58777   4.574   1.637   3.805  0.1586 -0.3393 -0.6130
50000SOL    HW158778   4.495   1.582   3.801 -0.8741  1.0875 -0.6830
50000SOL    HW258779   4.590   1.648   3.898 -1.1303  1.2377 -0.5335
50001SOL     OW58780   7.342  11.751   8.943 -0.0880  0.5687  0.1182
50001SOL    HW158781   7.376  11.678   8.892  1.2950  0.5242  1.0351
50001SOL    HW258782   7.250  11.759   8.917 -0.1451 -1.2134 -0.3119
50002SOL     OW58783   0.129   0.116  11.668 -0.0625  0.3425 -0.1264
50002SOL    HW158784   0.116   0.180  11.598 -0.0667  0.0713 -0.3775
50002SOL    HW258785   0.164   0.167  11.741  2.5320  0.2356 -1.1754
50003SOL     OW58786  10.615   0.731   7.991  0.0982  0.2355  0.1739
50003SOL    HW158787  10.592   0.752   7.900  0.2852 -0.4042 -0.0312
50003SOL    HW258788  10.658   0.810   8.024  0.0202  0.4782 -0.2942
50004SOL     OW58789   5.220   3.691  11.600  0.3937  0.2722  0.1819
50004SOL    HW158790   5.154   3.727  11.660  0.7482 -2.2990  2.3284
50004SOL    HW258791   5.184   3.606  11.574  2.6456 -1.1064  1.2510
50005SOL     OW58792   7.504  10.382   2.308 -0.5586  0.1527 -0.3280
50005SOL    HW158793   7.515  10.291   2.280 -1.0455 -0.4577  1.3753
50005SOL    HW258794   7.555  10.389   2.388 -0.6308  1.3680 -0.3671
50006SOL     OW58795   6.072   1.114   3.041  0.3373 -0.2854  0.6911
50006SOL    HW158796   6.165   1.119   3.066  0.8438 -1.9720 -0.6240
50006SOL    HW258797   6.070   1.048   2.972 -1.6820  0.6362 -0.2065
50007SOL     OW58798   7.370   2.776   1.630 -0.9093  0.0434  0.2869
50007SOL    HW158799   7.387   2.826   1.550 -0.5552 -1.3064 -0.5132
50007SOL    HW258800   7.275   2.760   1.627 -0.9032  0.0261  0.1560
50008SOL     OW58801   6.833  11.125   2.376  0.1320 -0.3098  0.5080
50008SOL    HW158802   6.903  11.080   2.423  0.4757 -0.8492 -0.4862
50008SOL    HW258803   6.817  11.204   2.427  1.1575 -0.3963  0.9978
50009SOL     OW58804   4.497   2.218   4.692  0.0623  0.0012 -0.9896
50009SOL    HW158805   4.490   2.198   4.785  0.7570 -1.3909 -1.2168
50009SOL    HW258806   4.585   2.255   4.681 -0.1741  0.5714 -1.0436
50010SOL     OW58807   1.155   8.953   1.277  0.6910  0.0699  0.1095
50010SOL    HW158808   1.201   9.000   1.347 -0.4951 -1.7125  2.2191
50010SOL    HW258809   1.196   8.867   1.274  0.1240 -0.1882 -0.7829
50011SOL     OW58810   4.144   8.262   5.415 -0.0018  0.5070  0.4544
50011SOL    HW158811   4.198   8.206   5.471 -0.0700  1.3532  1.3888
50011SOL    HW258812   4.088   8.200   5.367  0.2271 -0.2519  1.1354
50012SOL     OW58813   9.260   3.014   0.887 -0.4450  0.2460  0.1414
50012SOL    HW158814   9.266   2.991   0.980 -2.0986 -1.2345 -0.0581
50012SOL    HW258815   9.250   2.930   0.842 -1.5594  1.0308 -1.1759
50013SOL     OW58816   0.038   4.018   0.043 -0.2013 -0.4918 -0.3260
50013SOL    HW158817  -0.015   4.074   0.099  0.8582  0.9134 -0.6722
50013SOL    HW258818  -0.025   3.964  -0.004 -1.2402  0.1284  0.3246
50014SOL     OW58819   5.295  10.599   8.298  0.4234  0.2747 -0.0758
50014SOL    HW158820   5.281  10.585   8.205  0.9702  1.6782 -0.3924
50014SOL    HW258821   5.209  10.584   8.338 -0.2702  1.5155 -1.0531
50015SOL     OW58822   3.796  10.005   2.215 -0.4313  0.4951  0.0555
50015SOL    HW158823   3.708  10.033   2.191 -0.8156 -0.6949 -0.0229
50015SOL    HW258824   3.849  10.024   2.138 -1.1056 -0.8209 -0.7929
50016SOL     OW58825   2.121   6.995   2.098 -0.4713  0.0607  1.0707
50016SOL    HW158826   2.078   6.922   2.143 -0.0180 -0.7426  0.2238
50016SOL    HW258827   2.099   7.072   2.151 -0.7491 -0.7215  2.1185
50017SOL     OW58828   5.222   1.466   1.657  0.0362 -0.1594  0.3199
50017SOL    HW158829   5.158   1.399   1.635 -0.4128  0.3862 -0.0957
50017SOL    HW258830   5.169   1.540   1.689  0.6032 -0.4963  2.1260
50018SOL     OW58831   4.588   9.610   7.451  0.0394 -0.1728 -0.3595
50018SOL    HW158832   4.623   9.527   7.484 -1.3247 -1.2216 -1.4103
50018SOL    HW258833   4.563   9.591   7.361  1.0220  1.8131 -1.1065
50019SOL     OW58834   2.723   6.758  11.850 -0.3483  0.1811 -0.7299
50019SOL    HW158835   2.769   6.839  11.872  0.9973 -0.8586  0.4890
50019SOL    HW258836   2.771   6.722  11.776  1.2069 -1.1489  0.8467
50020SOL     OW58837   0.560   2.837   8.593 -0.2963 -0.3036  0.0675
50020SOL    HW158838   0.515   2.769   8.644 -1.9716 -0.8743 -2.0095
50020SOL    HW258839   0.556   2.805   8.503 -0.9535  2.4668 -0.9764
50021SOL     OW58840   6.920   3.196   9.926  0.0801 -0.0932 -1.0639
50021SOL    HW158841   6.994   3.215   9.983  0.3163  2.7898 -2.1562
50021SOL    HW258842   6.846   3.187   9.985  0.9749 -1.3395 -0.0681
50022SOL     OW58843   8.342   1.492   8.487  0.0855  0.0232  0.1827
50022SOL    HW158844   8.305   1.534   8.409  0.7609  0.0840 -0.1157
50022SOL    HW258845   8.313   1.401   8.482 -0.4769  0.1949  0.2493
50023SOL     OW58846  10.582   0.502   0.429  0.3239 -0.0689  0.4830
50023SOL    HW158847  10.623   0.548   0.356 -1.5098  0.4913 -0.2634
50023SOL    HW258848  10.646   0.507   0.500  1.8695 -0.0142 -0.8576
50024SOL     OW58849   9.048   2.803   8.295 -0.7141 -0.3081 -0.2190
50024SOL    HW158850   9.015   2.843   8.214  0.3071 -1.5666 -1.3172
50024SOL    HW258851   9.086   2.875   8.344 -2.5266  0.7143 -0.2093
50025SOL     OW58852   3.708   6.101   9.605  0.1638 -0.2853  0.3597
50025SOL    HW158853   3.667   6.174   9.559  0.1668  0.5957  1.6911
50025SOL    HW258854   3.799   6.102   9.577  0.1575  0.2021  0.3614
50026SOL     OW58855   0.989   8.278  12.147 -0.3010 -0.2883  0.1193
50026SOL    HW158856   1.048   8.290  12.073  0.2362  1.2292  0.7478
50026SOL    HW258857   0.917   8.339  12.131 -1.3472 -1.5838 -0.2651
50027SOL     OW58858   0.879   4.910   5.032 -0.2805 -0.4302  0.6958
50027SOL    HW158859   0.933   4.953   5.098  0.4644  1.0967 -0.8470
50027SOL    HW258860   0.942   4.878   4.967 -1.1338  0.1109 -0.4153
50028SOL     OW58861   5.940  11.021  11.177 -0.4031  0.1009 -0.2935
50028SOL    HW158862   5.982  10.938  11.157 -0.9591  0.1357 -1.6854
50028SOL    HW258863   5.976  11.045  11.263  1.9950 -0.1503 -1.1293
50029SOL     OW58864   6.790   5.436  11.596 -0.3134  0.3276 -0.3448
50029SOL    HW158865   6.794   5.528  11.571 -0.3424  0.6825  0.8991
50029SOL    HW258866   6.726   5.398  11.535  0.7808  0.7780 -1.8327
50030SOL     OW58867   2.433   2.918   0.610  0.1170  0.1122  0.2562
50030SOL    HW158868   2.360   2.858   0.627  0.9501 -1.4020 -1.2770
50030SOL    HW258869   2.393   2.990   0.561 -0.3234 -0.8370 -0.8228
50031SOL     OW58870   0.282  11.303  11.610 -0.2899 -0.4835  0.7063
50031SOL    HW158871   0.355  11.290  11.670 -0.0361 -0.0730  0.4931
50031SOL    HW258872   0.310  11.261  11.529 -1.0337 -1.8959  1.1517
50032SOL     OW58873   9.307   0.212  11.278 -0.0188 -0.0544  0.1733
50032SOL    HW158874   9.343   0.147  11.338 -1.3887  2.0587  3.5685
50032SOL    HW258875   9.384   0.251  11.236  0.9608 -1.9472  0.1094
50033SOL     OW58876  10.929   0.775   0.301  0.6889 -0.0659  0.0201
50033SOL    HW158877  10.984   0.820   0.237  1.0838 -1.6677 -0.8307
50033SOL    HW258878  10.989   0.747   0.369  0.1061  2.6632  1.8218
50034SOL     OW58879   4.519   7.442  10.154 -0.3691 -0.0144  0.0438
50034SOL    HW158880   4.525   7.371  10.090 -0.2022  0.7552 -0.8056
50034SOL    HW258881   4.586   7.421  10.219  0.8286  0.2214 -1.0741
50035SOL     OW58882  10.382   5.112   0.805  0.4382  0.1865 -0.0508
50035SOL    HW158883  10.342   5.199   0.796  0.8662  0.6743  2.1901
50035SOL    HW258884  10.475   5.130   0.820  0.2140 -0.4791  2.5792
50036SOL     OW58885   3.045  12.538  10.899  0.1917  0.2806  0.5602
50036SOL    HW158886   3.103  12.572  10.832 -1.6759  0.7183 -0.9257
50036SOL    HW258887   3.071  12.583  10.979  1.2523  1.1479 -0.2487
50037SOL     OW58888   4.023   2.199   3.765  0.0498  0.8876 -0.2872
50037SOL    HW158889   3.930   2.178   3.759  0.3451 -0.5004 -0.2885
50037SOL    HW258890   4.060   2.131   3.821  0.7687  2.4650  1.2218
50038SOL     OW58891   5.025   3.308  10.074 -0.9398  0.5070 -0.8927
50038SOL    HW158892   5.079   3.385  10.086  1.0146 -0.8578 -0.4990
50038SOL    HW258893   5.034   3.286   9.981  0.8506 -0.8262 -0.4576
50039SOL     OW58894   5.808   8.976   8.395 -0.2335 -0.4647 -0.7907
50039SOL    HW158895   5.885   8.970   8.451 -1.4903  0.9173  1.2067
50039SOL    HW258896   5.843   8.969   8.306  2.3596  1.3711 -0.0249
50040SOL     OW58897  11.701  10.726  10.966 -0.2287 -0.0665 -0.0155
50040SOL    HW158898  11.761  10.654  10.945 -0.0495  0.3047 -0.8243
50040SOL    HW258899  11.619  10.702  10.922 -1.2524 -1.3661  2.3733
50041SOL     OW58900   8.002  10.696   1.019 -0.2878 -0.3267 -0.3140
50041SOL    HW158901   7.975  10.648   0.941 -0.3123 -1.2074  0.2232
50041SOL    HW258902   7.922  10.740   1.049 -1.2913 -3.0288  1.3479
50042SOL     OW58903   0.241   3.342   5.515 -0.2987 -0.2329  0.2227
50042SOL    HW158904   0.182   3.266   5.519 -0.8809  0.2614  2.3991
50042SOL    HW258905   0.188   3.415   5.545  0.5890  0.8496 -0.7546
50043SOL     OW58906   8.182   3.014  12.299  0.3840  0.3414 -0.0873
50043SOL    HW158907   8.140   3.097  12.321 -0.8469 -0.1302 -0.5741
50043SOL    HW258908   8.264   3.014  12.350  1.0350  2.3902 -1.0422
50044SOL     OW58909  12.405   5.781   3.632  0.1497 -0.0054  0.6480
50044SOL    HW158910  12.456   5.854   3.597  1.3941 -0.6802  0.9994
50044SOL    HW258911  12.337   5.823   3.685  0.3675  0.9124  0.2203
50045SOL     OW58912   1.226  10.983   1.909 -0.0242  0.4391  0.4280
50045SOL    HW158913   1.144  10.995   1.957  0.5061 -0.6688  1.7041
50045SOL    HW258914   1.289  11.036   1.957 -0.3424  3.0125 -1.7915
50046SOL     OW58915   5.949   9.745  11.116  0.3253 -1.2024  0.0662
50046SOL    HW158916   6.037   9.766  11.084 -0.3323 -0.3859 -1.2976
50046SOL    HW258917   5.959   9.742  11.211  1.1614  2.6096  0.2854
50047SOL     OW58918  11.430   1.659  11.501 -0.2208 -0.3211  0.4007
50047SOL    HW158919  11.493   1.729  11.519 -0.8092 -0.1413  1.9643
50047SOL    HW258920  11.346   1.705  11.495 -0.5757 -0.8583  1.1867
50048SOL     OW58921   8.070   8.393  11.875 -0.1126  0.3399 -0.2561
50048SOL    HW158922   8.015   8.367  11.949 -1.3726  0.5898 -1.0755
50048SOL    HW258923   8.141   8.444  11.915  0.3129 -1.1068  0.9663
50049SOL     OW58924   1.987   1.789   8.764 -0.2728  0.1571 -0.6997
50049SOL    HW158925   2.049   1.860   8.784  0.6995 -1.1492  1.3671
50049SOL    HW258926   1.902   1.823   8.793  0.1402  0.5833  0.0787
50050SOL     OW58927   8.758  10.209   6.709 -0.2909  0.0461 -0.2719
50050SOL    HW158928   8.847  10.206   6.744  0.7803 -2.0552 -2.7985
50050SOL    HW258929   8.722  10.122   6.726 -1.3626  0.4324 -0.4716
50051SOL     OW58930   5.622  11.448   4.768  0.4866 -0.1032  0.2162
50051SOL    HW158931   5.569  11.401   4.831 -0.4558 -0.6476 -0.9555
50051SOL    HW258932   5.565  11.460   4.692  2.1996 -1.2739 -1.3391
50052SOL     OW58933   6.178   4.870   4.499 -0.1901  0.3960 -0.2891
50052SOL    HW158934   6.264   4.904   4.522 -0.1118  0.3961 -0.5788
50052SOL    HW258935   6.163   4.798   4.561 -0.7080  1.4615  0.8644
50053SOL     OW58936  11.619   1.655   6.932 -0.3225 -0.5275 -0.2506
50053SOL    HW158937  11.537   1.669   6.886  0.2648  1.7763 -0.7156
50053SOL    HW258938  11.666   1.591   6.878 -0.8226 -0.0370 -1.2895
50054SOL     OW58939   1.519  10.006   6.263  0.2454 -0.4889  0.1737
50054SOL    HW158940   1.451   9.940   6.247  0.0015 -0.0515 -0.6901
50054SOL    HW258941   1.527  10.010   6.358 -0.0027 -1.4912  0.2534
50055SOL     OW58942   1.024  10.836  11.966  0.3585  0.2575 -0.0220
50055SOL    HW158943   1.120  10.836  11.963  0.4753  1.4865  1.8337
50055SOL    HW258944   0.997  10.826  11.875  2.1012 -5.6937 -0.2999
50056SOL     OW58945  12.272   8.842   7.656 -0.1750 -0.2838  0.1937
50056SOL    HW158946  12.325   8.838   7.736  0.4596 -2.4709 -0.2619
50056SOL    HW258947  12.311   8.913   7.605  0.6462 -0.1278  1.0040
50057SOL     OW58948  11.014  12.484   1.752  0.1259 -0.0249 -0.0274
50057SOL    HW158949  11.007  12.495   1.847  0.3048  0.7323 -0.0956
50057SOL    HW258950  11.100  12.444   1.739  0.5586  0.8451  0.0703
50058SOL     OW58951   3.713   2.312  11.736  0.6711  0.3412 -0.5069
50058SOL    HW158952   3.799   2.281  11.711  0.8856  0.5340 -0.0248
50058SOL    HW258953   3.706   2.289  11.829  0.3811  0.7225 -0.4351
50059SOL     OW58954   6.783   4.937   4.987  0.3754 -0.1610  0.5707
50059SOL    HW158955   6.795   4.905   4.897 -0.4226  0.4232  0.2436
50059SOL    HW258956   6.795   4.859   5.041  2.8910 -0.1523  0.1381
50060SOL     OW58957   3.953   0.576  12.311  0.2068 -0.0326 -0.2350
50060SOL    HW158958   3.880   0.632  12.284  0.1397  0.2672  0.5489
50060SOL    HW258959   4.028   0.609  12.261  0.0017  0.2520 -0.3587
50061SOL     OW58960   6.452  10.114   8.904 -0.3063  0.0582 -0.0407
50061SOL    HW158961   6.521  10.156   8.852  0.1956  1.0610  1.3781
50061SOL    HW258962   6.420  10.183   8.962  0.6948 -1.5408  2.5607
50062SOL     OW58963   4.725   2.405   3.711 -0.5465  0.7260 -0.7132
50062SOL    HW158964   4.630   2.391   3.702 -0.4260 -1.0455  0.4266
50062SOL    HW258965   4.763   2.355   3.639 -0.4445  1.5113 -1.2246
50063SOL     OW58966   1.283   7.246   7.475 -0.0005  0.0160 -1.1864
50063SOL    HW158967   1.197   7.228   7.513 -0.0764 -0.5136 -1.6071
50063SOL    HW258968   1.335   7.280   7.548 -0.3298 -0.4200 -0.7464
50064SOL     OW58969   4.212  10.289   9.140  0.2664 -0.1104  0.2832
50064SOL    HW158970   4.268  10.367   9.143 -0.5488  0.4664  1.9634
50064SOL    HW258971   4.169  10.293   9.055  0.0408  1.4505  0.4442
50065SOL     OW58972   5.819  12.233   7.285 -0.5438 -0.2493 -0.1285
50065SOL    HW158973   5.867  12.229   7.368 -1.7615  3.1470  0.9216
50065SOL    HW258974   5.734  12.194   7.304 -1.3439  1.7834  0.7608
50066SOL     OW58975  10.236   7.506   6.841 -0.7823 -0.0015  0.0998
50066SOL    HW158976  10.217   7.526   6.933  0.3949  2.6077 -0.1423
50066SOL    HW258977  10.307   7.442   6.844 -1.4363 -0.7065  0.9853
50067SOL     OW58978  10.198   2.113   9.850 -0.1054  0.5198  0.4410
50067SOL    HW158979  10.253   2.156   9.785 -0.8476  1.4489  0.3940
50067SOL    HW258980  10.171   2.031   9.809 -0.4463  1.0312 -0.3796
50068SOL     OW58981   1.336   7.916   3.917  0.6117 -0.0427  0.3855
50068SOL    HW158982   1.315   7.902   4.009 -1.4747 -1.7966 -0.2743
50068SOL    HW258983   1.428   7.889   3.909  0.0172 -2.7667  1.4598
50069SOL     OW58984   1.319   1.694   5.850  0.4460 -0.0410  0.7278
50069SOL    HW158985   1.304   1.663   5.940 -0.2601  1.0123  0.9821
50069SOL    HW258986   1.349   1.784   5.860  0.1725  0.1478 -0.1141
50070SOL     OW58987   1.410   6.304   9.268  0.3716  0.5925  0.2496
50070SOL    HW158988   1.486   6.287   9.325  0.6576  0.9112 -0.0276
50070SOL    HW258989   1.342   6.247   9.301  1.1694 -0.7774 -0.3913
50071SOL     OW58990   8.282   6.787   7.680 -0.2185  0.4602  0.2049
50071SOL    HW158991   8.307   6.742   7.599  0.0745  0.4953  0.2751
50071SOL    HW258992   8.331   6.741   7.749 -0.7974  0.1550  0.4141
50072SOL     OW58993   1.437  10.838   4.302  0.4157 -0.7024  0.0866
50072SOL    HW158994   1.414  10.897   4.230  0.6109 -0.5902  0.1175
50072SOL    HW258995   1.446  10.894   4.378  1.4725 -0.6545 -0.0653
50073SOL     OW58996   2.075   2.557  10.648  0.0839 -0.0100  0.2595
50073SOL    HW158997   2.165   2.588  10.641 -0.2580  0.7289 -1.2881
50073SOL    HW258998   2.082   2.461  10.649  0.8378 -0.0073 -1.4167
50074SOL     OW58999   3.059   7.021   5.319  0.0908 -0.5500  0.5330
50074SOL    HW159000   3.083   7.057   5.405 -0.5907 -2.5569  1.6178
50074SOL    HW259001   2.974   7.061   5.300 -0.2537 -0.8873  1.3040
50075SOL     OW59002   4.611   4.392  12.241  0.0851  0.4166  0.2443
50075SOL    HW159003   4.588   4.399  12.148  1.9743  0.6474 -0.2454
50075SOL    HW259004   4.557   4.320  12.274  0.3540 -0.5701 -1.3621
50076SOL     OW59005   8.349   5.654  11.482  0.2019 -0.1978  0.6068
50076SOL    HW159006   8.417   5.602  11.440  1.2667 -0.4549  2.5335
50076SOL    HW259007   8.284   5.669  11.413  0.8234 -2.3477 -0.5445
50077SOL     OW59008   0.108  12.335   6.220 -0.0246  0.0040 -0.6215
50077SOL    HW159009   0.151  12.411   6.180 -0.6978 -0.2559 -1.9141
50077SOL    HW259010   0.054  12.299   6.149 -1.0606 -0.6540  0.4762
50078SOL     OW59011  11.598   3.392   6.167  0.1637  0.0539 -0.6171
50078SOL    HW159012  11.593   3.305   6.207  1.0269  0.5369  0.5861
50078SOL    HW259013  11.690   3.402   6.144  0.6175  1.6315  1.5912
50079SOL     OW59014   8.721   3.576   0.031  0.1879 -0.3693 -0.3069
50079SOL    HW159015   8.650   3.553  -0.028 -0.4256  1.4670 -0.3392
50079SOL    HW259016   8.800   3.545  -0.013 -0.3538 -0.0017 -1.5739
50080SOL     OW59017   6.557   3.976   8.056 -0.0406 -0.3550  0.2023
50080SOL    HW159018   6.537   3.940   8.143  1.7415  0.3351  0.9543
50080SOL    HW259019   6.641   4.021   8.068 -0.1523  0.4420 -1.7048
50081SOL     OW59020   8.882   1.962   4.607 -0.6056 -0.0809 -0.2899
50081SOL    HW159021   8.854   1.902   4.538 -1.5064  0.5218 -0.4680
50081SOL    HW259022   8.859   1.917   4.688 -1.7230  0.1971 -0.4271
50082SOL     OW59023   3.303   6.644   2.086  0.1695 -0.1221  0.3644
50082SOL    HW159024   3.337   6.713   2.144  0.9450 -1.5265  1.6435
50082SOL    HW259025   3.229   6.607   2.134 -0.5837  0.1596 -0.5586
50083SOL     OW59026   0.983   9.611   5.008 -0.7974 -0.0763 -0.3293
50083SOL    HW159027   0.973   9.598   4.914  0.5066 -2.9858 -0.1793
50083SOL    HW259028   1.077   9.600   5.023 -0.9833  0.3366  1.3182
50084SOL     OW59029   6.803   8.450  10.562  0.4987 -0.0609  0.0986
50084SOL    HW159030   6.861   8.461  10.638  0.4664 -1.7536  0.3910
50084SOL    HW259031   6.862   8.448  10.487  0.6968 -0.3620  0.2611
50085SOL     OW59032   9.950   7.359   8.761  0.3046  0.3090  0.0831
50085SOL    HW159033   9.875   7.309   8.794  1.2507 -1.3151 -0.1027
50085SOL    HW259034   9.940   7.358   8.666  0.0330  0.9957  0.0962
50086SOL     OW59035   5.830   0.958   4.081  0.1535  0.0213  0.5112
50086SOL    HW159036   5.798   1.043   4.051 -1.0625 -0.9080 -1.0096
50086SOL    HW259037   5.803   0.953   4.173 -0.6824  0.8503  0.3252
50087SOL     OW59038  10.545   6.708  11.091  0.1385  0.1719 -0.2747
50087SOL    HW159039  10.520   6.629  11.138 -1.1060 -0.2820 -1.6335
50087SOL    HW259040  10.469   6.766  11.100  0.7356  0.9228  0.0546
50088SOL     OW59041  11.858  11.796   0.243 -0.0432  0.1548  0.5176
50088SOL    HW159042  11.879  11.768   0.154 -0.5892 -1.3884  0.8528
50088SOL    HW259043  11.765  11.780   0.252 -0.1963  1.2321  1.0636
50089SOL     OW59044  10.871   3.264   7.385 -0.2264  0.3038  1.0157
50089SOL    HW159045  10.937   3.248   7.317  0.2812 -0.6709  1.7230
50089SOL    HW259046  10.799   3.305   7.338 -0.7026 -2.0876 -0.5500
50090SOL     OW59047   4.543   2.959   6.311  0.3821 -0.3634 -0.1171
50090SOL    HW159048   4.532   2.950   6.406  0.6669  0.2586 -0.0150
50090SOL    HW259049   4.588   2.879   6.284 -1.0807 -1.2690  0.0134
50091SOL     OW59050  11.680   9.965   8.632 -0.2427 -0.1730 -0.2463
50091SOL    HW159051  11.593   9.999   8.610  0.3873  0.0609 -2.7030
50091SOL    HW259052  11.709  10.018   8.707 -1.6297  0.7186 -0.3092
50092SOL     OW59053   8.096   5.198   0.510 -0.0986 -0.0747 -0.1839
50092SOL    HW159054   8.114   5.119   0.458  1.6662 -0.3374  0.7432
50092SOL    HW259055   8.036   5.168   0.578 -0.2463 -0.3649 -0.4339
50093SOL     OW59056   3.711  11.749   4.107 -0.2622  0.3754  0.7627
50093SOL    HW159057   3.731  11.657   4.087  1.1045  0.6756  0.6484
50093SOL    HW259058   3.617  11.749   4.126 -0.4942 -0.8654 -0.2220
50094SOL     OW59059  10.756  10.139  11.529 -0.1044 -0.0714  0.2795
50094SOL    HW159060  10.712  10.055  11.533  1.1127 -0.6823  1.9855
50094SOL    HW259061  10.848  10.120  11.547  0.5316  1.4101 -1.1041
50095SOL     OW59062   6.207   5.753   2.192 -0.4719  0.0353 -0.4959
50095SOL    HW159063   6.145   5.716   2.128 -3.0749  2.1149  0.6022
50095SOL    HW259064   6.247   5.827   2.146  1.2144 -1.2443 -1.1690
50096SOL     OW59065   8.345  10.319   6.376  0.0397  0.8456  0.2851
50096SOL    HW159066   8.370  10.227   6.372 -2.2903  0.0614  1.9812
50096SOL    HW259067   8.257  10.319   6.412 -0.9037  3.6491 -1.6722
50097SOL     OW59068   5.599   1.556   7.126 -0.0999 -0.1629 -0.5712
50097SOL    HW159069   5.590   1.651   7.121  0.8238 -0.0841 -0.8849
50097SOL    HW259070   5.512   1.525   7.152 -0.1481  0.8506  0.6049
50098SOL     OW59071   8.274   5.737   2.092  0.1441 -0.5909 -0.3582
50098SOL    HW159072   8.211   5.692   2.149  0.9936 -2.7685 -1.0441
50098SOL    HW259073   8.225   5.753   2.011  0.1162 -1.2370 -0.4776
50099SOL     OW59074   5.280   1.464   1.197 -0.4928  0.5243  0.2801
50099SOL    HW159075   5.229   1.428   1.125 -1.0034 -0.2209  0.9915
50099SOL    HW259076   5.330   1.390   1.231  0.7425  1.1486 -0.1195
50100SOL     OW59077   7.815   5.372   2.678 -0.4048 -0.0998 -0.0692
50100SOL    HW159078   7.869   5.427   2.736  1.1884 -0.2032 -1.3726
50100SOL    HW259079   7.761   5.320   2.738  0.3659  0.5987  1.2827
50101SOL     OW59080   7.827   4.354   8.039  0.0920  0.0411  0.1673
50101SOL    HW159081   7.845   4.446   8.017 -1.0835  1.0867  3.0911
50101SOL    HW259082   7.896   4.331   8.101  0.9167 -1.4281 -1.2184
50102SOL     OW59083   3.299   2.105  10.768 -0.6443  0.1212 -0.6298
50102SOL    HW159084   3.247   2.119  10.689 -0.4186 -0.2158 -0.8421
50102SOL    HW259085   3.241   2.132  10.839 -1.1098 -0.2205 -0.8645
50103SOL     OW59086   4.091   7.043   6.630  0.3013  0.0475 -0.2301
50103SOL    HW159087   4.163   7.042   6.694 -0.2045  1.0086  0.3784
50103SOL    HW259088   4.051   6.957   6.640  1.2872 -0.4628 -0.4980
50104SOL     OW59089   2.682  11.196   8.116 -0.1837 -0.6739 -0.3617
50104SOL    HW159090   2.672  11.103   8.098 -0.7481 -0.7566  0.2976
50104SOL    HW259091   2.729  11.199   8.200  0.7891 -0.3420 -0.9033
50105SOL     OW59092   3.048   4.501  10.947 -0.4933  0.8183  0.5518
50105SOL    HW159093   3.002   4.584  10.962 -0.0012  1.3312 -0.6901
50105SOL    HW259094   3.096   4.514  10.865  0.0938 -0.4816  0.6630
50106SOL     OW59095   6.854   3.494   4.658 -0.0897  0.8877  0.2954
50106SOL    HW159096   6.835   3.424   4.720 -2.1533  1.0768 -0.0495
50106SOL    HW259097   6.806   3.469   4.578  0.2776  1.9992 -0.2966
50107SOL     OW59098   0.590   7.107   6.402  0.3211  0.3225  0.4470
50107SOL    HW159099   0.614   7.188   6.446 -1.5915  0.9507  0.4333
50107SOL    HW259100   0.560   7.049   6.473 -0.9742  0.6546  0.1816
50108SOL     OW59101   6.497   2.847   5.472 -0.3575  0.7340  0.8784
50108SOL    HW159102   6.476   2.816   5.560  0.1831 -0.6506  0.5490
50108SOL    HW259103   6.576   2.798   5.448 -1.0260  0.3872 -0.7283
50109SOL     OW59104   0.582  12.511   1.771 -0.3281 -0.5688 -0.1435
50109SOL    HW159105   0.499  12.558   1.759 -0.0298  0.5583  1.7788
50109SOL    HW259106   0.555  12.424   1.800 -0.9395  0.2266  1.9599
50110SOL     OW59107   7.368   1.634   6.538 -0.2190  0.0307 -0.0727
50110SOL    HW159108   7.316   1.688   6.597 -0.3757 -0.2263  0.0272
50110SOL    HW259109   7.363   1.546   6.575 -0.1607 -0.0964 -0.3611
50111SOL     OW59110   9.522  10.968   6.725  0.5226  0.4685 -0.2340
50111SOL    HW159111   9.475  10.888   6.703  0.7274  0.2075  0.2873
50111SOL    HW259112   9.534  10.965   6.819 -0.2325  1.5290 -0.0742
50112SOL     OW59113   4.848   4.672   7.677  0.0748  0.1552 -0.2992
50112SOL    HW159114   4.772   4.633   7.721  1.7241 -2.5216  0.4418
50112SOL    HW259115   4.853   4.627   7.593  1.4616 -0.5456  0.1362
50113SOL     OW59116   4.248   5.563   3.814 -0.7812  0.8165  0.0319
50113SOL    HW159117   4.172   5.599   3.768 -1.2273 -0.1486 -0.0244
50113SOL    HW259118   4.236   5.468   3.809  0.4995  0.6426 -0.0746
50114SOL     OW59119   8.497   0.440   0.746  0.4770  0.3758 -0.6445
50114SOL    HW159120   8.414   0.483   0.725 -1.0563 -3.0571 -2.4546
50114SOL    HW259121   8.488   0.413   0.837 -1.0438 -1.1524 -1.2092
50115SOL     OW59122   4.145   0.244   0.992 -0.5061  0.4358 -0.0227
50115SOL    HW159123   4.195   0.322   1.016 -0.1494  0.1602  0.1430
50115SOL    HW259124   4.054   0.270   1.003 -0.3664  0.4919  1.1021
50116SOL     OW59125   5.020  10.160  12.051  0.4464  0.2553 -0.7515
50116SOL    HW159126   5.047  10.076  12.088 -0.6673  0.1397 -0.1506
50116SOL    HW259127   5.100  10.212  12.046  1.0050 -0.5565 -0.3728
50117SOL     OW59128   1.557  10.306   5.297 -0.1020  0.4710  0.1371
50117SOL    HW159129   1.634  10.262   5.260 -1.0724  1.1237 -2.9549
50117SOL    HW259130   1.484  10.247   5.277 -0.8833  1.6173 -0.5485
50118SOL     OW59131   2.328   4.037   1.566  0.1157 -0.3740 -0.0702
50118SOL    HW159132   2.349   3.945   1.585  0.9445 -0.0183  0.8196
50118SOL    HW259133   2.353   4.049   1.474 -1.4805 -1.4435 -0.6797
50119SOL     OW59134   8.850   3.338   0.656 -0.4300  0.2677 -0.1430
50119SOL    HW159135   8.943   3.357   0.641 -0.4213  0.5795  0.2781
50119SOL    HW259136   8.803   3.402   0.603 -0.3994  1.0475  0.7421
50120SOL     OW59137  11.257   0.704  11.952  0.6074  0.5381 -0.7908
50120SOL    HW159138  11.189   0.758  11.992  0.5434  0.3936 -0.7022
50120SOL    HW259139  11.220   0.615  11.953  1.8586 -0.0761  1.8223
50121SOL     OW59140   2.191  12.257   6.695  0.2061  0.0403  0.1013
50121SOL    HW159141   2.141  12.213   6.763 -0.3351  1.2801  0.5416
50121SOL    HW259142   2.137  12.333   6.672  0.0554 -0.6703 -2.1592
50122SOL     OW59143   6.298   6.370  12.261  0.0348 -0.4054 -0.5559
50122SOL    HW159144   6.362   6.341  12.327 -0.2891  3.4438  1.7451
50122SOL    HW259145   6.350   6.401  12.188  0.5103 -2.1109 -0.9813
50123SOL     OW59146   1.505  11.596   8.303  0.1890  0.7251 -0.4963
50123SOL    HW159147   1.506  11.615   8.209 -0.3558  2.3249 -0.2108
50123SOL    HW259148   1.595  11.570   8.324  0.3561  0.5374 -1.4254
50124SOL     OW59149   4.397   2.383  10.312  0.0295  0.0017 -0.8349
50124SOL    HW159150   4.325   2.397  10.374 -1.1750 -0.7697 -1.9990
50124SOL    HW259151   4.414   2.470  10.276 -0.0862  0.2459 -0.3089
50125SOL     OW59152   8.635   5.487   2.994  0.0447  0.0953 -0.6807
50125SOL    HW159153   8.713   5.465   2.943  0.4735  0.2131 -0.0980
50125SOL    HW259154   8.669   5.505   3.082 -0.3875  2.1355 -0.8879
50126SOL     OW59155   0.281   9.944   9.410  0.1106  0.2849  0.2386
50126SOL    HW159156   0.322   9.928   9.495 -0.0802  1.0449  0.4784
50126SOL    HW259157   0.262   9.856   9.376  0.8838 -0.0445  0.6329
50127SOL     OW59158   6.293   5.241   9.222  0.4290 -0.0346  0.4391
50127SOL    HW159159   6.257   5.153   9.226 -3.1299  1.3082  1.1833
50127SOL    HW259160   6.299   5.269   9.313  0.7906  0.7978  0.1690
50128SOL     OW59161   9.229   4.597   7.377 -0.0297 -0.3202 -0.0818
50128SOL    HW159162   9.156   4.651   7.347 -0.9113 -0.3339  1.8582
50128SOL    HW259163   9.218   4.514   7.331  0.6706  0.7137 -2.2167
50129SOL     OW59164  12.182  10.316   9.921 -0.0697  0.3046 -0.0940
50129SOL    HW159165  12.123  10.352   9.855  0.3002 -0.1630 -0.6919
50129SOL    HW259166  12.242  10.388   9.941 -0.4722  0.5932  0.0759
50130SOL     OW59167   5.759   5.347  10.572  0.2642 -0.2010 -0.1038
50130SOL    HW159168   5.679   5.335  10.520 -2.0796 -0.0220  3.1620
50130SOL    HW259169   5.770   5.263  10.618  1.5852  0.0118 -0.0215
50131SOL     OW59170  11.531   6.383   6.137 -0.3486 -0.3349  0.2085
50131SOL    HW159171  11.541   6.367   6.043  1.9127 -0.6989  0.4596
50131SOL    HW259172  11.440   6.411   6.147 -0.2750  1.1020 -2.2881
50132SOL     OW59173   2.457   6.845   4.805  0.0910 -0.9410 -0.4738
50132SOL    HW159174   2.492   6.757   4.794  2.3629 -0.3315  1.1063
50132SOL    HW259175   2.445   6.855   4.899  0.7507  0.7010 -0.5218
50133SOL     OW59176   6.062   0.228   0.119  0.5805  0.4225  0.0160
50133SOL    HW159177   6.048   0.214   0.213 -0.4516  0.6365 -0.0907
50133SOL    HW259178   6.054   0.140   0.081 -1.5964  0.6324 -0.1482
50134SOL     OW59179   3.700  12.495   1.995  0.1221 -0.0517  0.2249
50134SOL    HW159180   3.669  12.429   1.933 -0.1854 -0.9221  1.2671
50134SOL    HW259181   3.697  12.451   2.080  1.6863  0.6962  0.7173
50135SOL     OW59182   5.079   6.759   4.905 -0.3553  0.1867 -0.2159
50135SOL    HW159183   5.099   6.707   4.982 -1.1552 -0.8275 -0.6756
50135SOL    HW259184   5.118   6.845   4.923  0.2301 -0.3016  0.9196
50136SOL     OW59185   9.213   3.301   1.799  0.1714  0.7075  0.5105
50136SOL    HW159186   9.244   3.297   1.709  1.2912  0.3465  0.8929
50136SOL    HW259187   9.275   3.247   1.848 -2.0557 -1.5564  1.0642
50137SOL     OW59188   3.978  12.342   5.881 -0.0505  0.0576  0.5447
50137SOL    HW159189   4.037  12.369   5.950  1.2783  1.3939 -1.0354
50137SOL    HW259190   3.974  12.417   5.821  0.5226 -1.7334 -1.8965
50138SOL     OW59191   4.835  11.082   6.214  0.2401  0.3337 -0.0911
50138SOL    HW159192   4.931  11.075   6.209  0.4827  3.3135 -2.2711
50138SOL    HW259193   4.803  11.018   6.151  0.7055 -1.0678  1.0423
50139SOL     OW59194   7.177   6.689  11.703 -0.4380 -0.1001  0.4229
50139SOL    HW159195   7.267   6.713  11.727 -0.1930 -0.4473 -0.1264
50139SOL    HW259196   7.158   6.612  11.758 -0.5904  0.2815  0.9133
50140SOL     OW59197   2.171   7.273  12.391  0.4060  0.1622  0.0840
50140SOL    HW159198   2.089   7.249  12.433  0.9838 -1.1769  0.5133
50140SOL    HW259199   2.155   7.359  12.353 -0.9546  0.2395  0.7876
50141SOL     OW59200   1.157   7.997   9.679 -0.2891  0.0526 -0.4711
50141SOL    HW159201   1.226   8.024   9.618  2.4853 -1.9238  1.5584
50141SOL    HW259202   1.163   8.060   9.751 -0.7737 -0.0111 -0.3760
50142SOL     OW59203   0.710   0.852   4.669  0.7179  0.2407 -0.4878
50142SOL    HW159204   0.801   0.824   4.665  0.1087 -2.5240  1.5371
50142SOL    HW259205   0.700   0.893   4.755 -0.4526 -2.1003  0.5968
50143SOL     OW59206   5.457   0.597   3.266 -0.2405  0.2432 -0.3891
50143SOL    HW159207   5.535   0.562   3.308  0.8074  0.2384 -2.2592
50143SOL    HW259208   5.421   0.658   3.330  2.3012  1.5882 -0.1292
50144SOL     OW59209   4.594  11.432   2.064 -0.0998  0.5528  0.2798
50144SOL    HW159210   4.626  11.354   2.018 -0.7780  0.1982  0.3953
50144SOL    HW259211   4.532  11.473   2.003  0.4540  1.1590  0.1115
50145SOL     OW59212   2.523   9.738   3.459  0.1375  0.8064 -0.0415
50145SOL    HW159213   2.577   9.665   3.489  0.7971  0.8151 -1.1678
50145SOL    HW259214   2.586   9.805   3.432 -0.4547  1.8711  1.1309
50146SOL     OW59215   0.725   4.522   2.195 -0.1002  0.3274  0.3904
50146SOL    HW159216   0.785   4.509   2.268  1.4911  0.6550 -0.8143
50146SOL    HW259217   0.744   4.450   2.135 -2.0269 -0.4718  0.6715
50147SOL     OW59218   8.821   1.142   2.870  0.1956 -0.0550 -0.3536
50147SOL    HW159219   8.799   1.181   2.955  1.3481 -0.0134 -0.0505
50147SOL    HW259220   8.905   1.183   2.846  0.4135 -0.8556 -1.0035
50148SOL     OW59221   3.493   4.256   8.190  0.1433 -0.0963  0.1620
50148SOL    HW159222   3.566   4.204   8.222  0.7951  0.6941  0.0009
50148SOL    HW259223   3.486   4.328   8.252  1.1048  1.1867 -1.1585
50149SOL     OW59224   9.898   9.014   0.083  0.0330  0.2970  0.2543
50149SOL    HW159225   9.808   9.040   0.104  0.0080 -0.7586  1.6383
50149SOL    HW259226   9.952   9.085   0.119 -0.1957  0.3868  0.4240
50150SOL     OW59227   9.323   8.238  10.092 -0.0544  0.6432  0.1436
50150SOL    HW159228   9.266   8.267  10.020  0.1898 -0.0548 -0.3401
50150SOL    HW259229   9.396   8.195  10.048  0.4891  0.9078  0.7931
50151SOL     OW59230  11.583   2.843   0.104 -0.0225  0.1345 -0.1112
50151SOL    HW159231  11.605   2.913   0.043  0.4410 -0.5754 -0.7827
50151SOL    HW259232  11.661   2.831   0.158 -0.0490  0.0490 -0.0893
50152SOL     OW59233   9.391   1.975   2.124  0.0064 -0.1948 -0.1245
50152SOL    HW159234   9.355   1.886   2.121  0.0336 -0.2458  0.8498
50152SOL    HW259235   9.420   1.991   2.034  2.6161 -2.2603  0.2103
50153SOL     OW59236   4.899  10.064   2.383 -1.0274  0.2189 -0.2223
50153SOL    HW159237   4.883  10.151   2.348 -0.9225 -0.0350 -0.9245
50153SOL    HW259238   4.811  10.028   2.400 -1.0494  0.9966  1.4691
50154SOL     OW59239   1.767   6.415   6.758 -0.0048  0.2356  0.2921
50154SOL    HW159240   1.839   6.454   6.708  0.0093 -0.4295 -0.2212
50154SOL    HW259241   1.693   6.472   6.742 -0.4141 -0.7687 -1.7611
50155SOL     OW59242   3.679   2.876   9.123 -0.3970  0.5594 -0.1465
50155SOL    HW159243   3.662   2.826   9.043 -0.4566 -2.6743  1.7208
50155SOL    HW259244   3.592   2.889   9.161 -0.2512  0.8160  0.0997
50156SOL     OW59245   9.745   5.518   8.901 -0.0953  0.0148 -0.0252
50156SOL    HW159246   9.762   5.613   8.900 -0.4593  0.1258  1.6610
50156SOL    HW259247   9.818   5.481   8.950 -1.6560 -0.1378  2.3603
50157SOL     OW59248  12.061   6.308  10.586  0.0399  0.3041 -0.0748
50157SOL    HW159249  12.116   6.386  10.592  1.3275 -0.5737  0.1215
50157SOL    HW259250  12.053   6.277  10.676 -0.3041  0.1170 -0.1698
50158SOL     OW59251   3.831   5.688   5.674  0.0226  0.4192 -0.0904
50158SOL    HW159252   3.877   5.727   5.748 -1.0978  0.9240  0.3483
50158SOL    HW259253   3.894   5.692   5.602  0.0099  2.8936 -0.0287
50159SOL     OW59254  10.970   5.150   0.700  0.5298 -0.4671  0.5105
50159SOL    HW159255  11.030   5.097   0.752  0.1358 -1.8274 -0.3835
50159SOL    HW259256  11.020   5.172   0.621  0.7502  0.6780  0.9387
50160SOL     OW59257   4.785  11.706   8.349 -0.3149 -0.1028  0.7554
50160SOL    HW159258   4.793  11.715   8.254 -0.5734 -2.1033  0.5167
50160SOL    HW259259   4.791  11.796   8.381  2.5794  0.4191 -0.9145
50161SOL     OW59260  10.111   1.876   3.688 -0.1250 -0.1613  0.1783
50161SOL    HW159261  10.095   1.969   3.703  1.7273  0.3031 -0.4130
50161SOL    HW259262  10.200   1.872   3.655 -0.9348 -1.9505 -2.0474
50162SOL     OW59263   5.188   2.507   0.215 -0.0600 -0.1682 -0.3919
50162SOL    HW159264   5.260   2.511   0.278 -0.7740 -2.6253  0.7180
50162SOL    HW259265   5.115   2.548   0.261 -0.4978 -1.6816  0.3213
50163SOL     OW59266  10.097   2.102  10.456 -0.4378 -0.0894  0.1627
50163SOL    HW159267  10.044   2.180  10.446 -0.4730 -0.0203  0.8355
50163SOL    HW259268  10.097   2.084  10.550 -0.0448 -0.6268  0.0704
50164SOL     OW59269   3.442   7.250   8.561  0.0592 -0.0007 -0.8768
50164SOL    HW159270   3.529   7.268   8.597  0.1864  0.9158 -1.6003
50164SOL    HW259271   3.452   7.262   8.466 -0.2599 -2.3755 -1.2666
50165SOL     OW59272   1.961   4.849   7.270  0.4436 -0.5309  0.4203
50165SOL    HW159273   1.917   4.779   7.221 -1.4474  0.9075 -0.0976
50165SOL    HW259274   1.902   4.868   7.342  0.5356  0.9888  0.1290
50166SOL     OW59275   2.044   2.938  11.106 -0.9111  0.2381  0.0079
50166SOL    HW159276   2.132   2.917  11.136 -0.9414 -1.3699 -0.9253
50166SOL    HW259277   1.993   2.860  11.126 -1.7477  0.5160 -0.9536
50167SOL     OW59278   2.090   4.063  11.319 -0.0341 -0.2187  0.1144
50167SOL    HW159279   2.067   4.053  11.412 -1.1062 -0.8226 -0.2002
50167SOL    HW259280   2.180   4.095  11.320  0.0211 -0.3663  1.3640
50168SOL     OW59281   6.269  12.173   8.554  0.2736  0.2608 -0.2581
50168SOL    HW159282   6.250  12.264   8.578  0.7691  0.3237 -0.0806
50168SOL    HW259283   6.193  12.123   8.584  1.3843  0.1508  2.6859
50169SOL     OW59284   3.806   8.176   1.108 -0.0410 -0.6539 -0.1448
50169SOL    HW159285   3.724   8.168   1.061 -1.3239 -0.2697  1.9196
50169SOL    HW259286   3.828   8.087   1.134  0.4501 -0.8094 -1.0309
50170SOL     OW59287  10.075   5.061  12.223  0.4519  0.6969 -0.2201
50170SOL    HW159288  10.159   5.105  12.234  0.9338 -0.1659 -0.3816
50170SOL    HW259289  10.034   5.065  12.310  1.5371 -0.6239  0.3884
50171SOL     OW59290   2.589   0.697   5.845  0.7073  0.2220 -0.0758
50171SOL    HW159291   2.616   0.776   5.892  1.1535  1.2318 -1.9365
50171SOL    HW259292   2.649   0.691   5.771 -0.2007 -1.0920 -0.7539
50172SOL     OW59293   4.311   8.519   9.896 -0.5867  0.2545  0.2918
50172SOL    HW159294   4.272   8.594   9.852  0.6271  0.4642 -0.4748
50172SOL    HW259295   4.374   8.557   9.958  0.3830 -0.1208 -0.4406
50173SOL     OW59296  11.216   5.855  11.222  0.1396  0.3579  0.2360
50173SOL    HW159297  11.170   5.937  11.207 -0.7510 -0.3889 -1.3833
50173SOL    HW259298  11.292   5.858  11.163  0.6655  0.4194  0.8993
50174SOL     OW59299   9.100  11.669  11.841  0.2461 -0.0333  0.0716
50174SOL    HW159300   9.079  11.742  11.783 -0.2277  0.0623  0.3579
50174SOL    HW259301   9.050  11.595  11.806  1.1189 -0.3560 -0.5184
50175SOL     OW59302  11.928  10.972   0.177  0.4483 -0.6780 -0.4595
50175SOL    HW159303  11.940  10.955   0.270 -0.5326 -0.7852 -0.3430
50175SOL    HW259304  11.854  11.032   0.172  0.4939 -0.6690 -1.1713
50176SOL     OW59305   9.698   4.024   0.106 -0.0239 -0.2388 -0.3460
50176SOL    HW159306   9.652   4.101   0.138  0.5578 -0.2386  0.5169
50176SOL    HW259307   9.790   4.039   0.130  0.1251 -1.1135 -0.3312
50177SOL     OW59308   4.108   2.666   5.061  0.6109 -0.5523 -0.4299
50177SOL    HW159309   4.066   2.684   5.145  1.1552  2.4548 -0.7092
50177SOL    HW259310   4.202   2.670   5.080  0.7696  1.6720 -1.3592
50178SOL     OW59311   6.325   0.669   1.417  0.1133 -0.4365 -0.6377
50178SOL    HW159312   6.246   0.638   1.373 -0.3848 -1.0760  0.6642
50178SOL    HW259313   6.393   0.663   1.350 -0.4077 -2.3392 -1.0525
50179SOL     OW59314   3.473   7.933  12.339  0.7354  0.6507  0.7573
50179SOL    HW159315   3.557   7.891  12.358  0.6857 -0.3028 -0.9648
50179SOL    HW259316   3.437   7.883  12.265  0.2532  3.1573 -0.8157
50180SOL     OW59317  12.243  11.735   6.294  0.2460  0.4331 -0.1825
50180SOL    HW159318  12.313  11.702   6.349 -1.2902 -3.1092 -0.0715
50180SOL    HW259319  12.286  11.760   6.212  1.7766 -0.7777  0.2140
50181SOL     OW59320   7.106   0.288   0.618 -0.1378 -0.1477 -0.4821
50181SOL    HW159321   7.044   0.247   0.557  1.0318 -0.1742 -1.6769
50181SOL    HW259322   7.073   0.377   0.629 -1.3664 -0.6609  0.2959
50182SOL     OW59323   1.939   8.687   5.546 -0.1142 -0.0748 -0.4640
50182SOL    HW159324   1.975   8.605   5.579  0.4032  0.5863  0.6512
50182SOL    HW259325   1.912   8.667   5.456 -0.0708 -1.4760 -0.1790
50183SOL     OW59326  12.124   6.485   1.056  0.2090 -0.3768 -0.1876
50183SOL    HW159327  12.088   6.469   0.969  0.4132  0.5393 -0.4543
50183SOL    HW259328  12.151   6.577   1.055  0.9139 -0.5532  0.5918
50184SOL     OW59329   2.905   3.245  11.656 -0.4001 -0.3333  0.2331
50184SOL    HW159330   2.855   3.327  11.659 -1.0311 -0.7079  0.1611
50184SOL    HW259331   2.841   3.179  11.631 -0.2317 -1.1056  1.7203
50185SOL     OW59332  11.982   5.195   5.804 -0.1906  0.0268  0.3565
50185SOL    HW159333  12.043   5.176   5.875  0.4954  0.1327 -0.1866
50185SOL    HW259334  12.020   5.271   5.760 -0.7433  0.1206  0.0353
50186SOL     OW59335   9.914  10.102   0.401 -0.3851 -0.2664 -0.2329
50186SOL    HW159336   9.919  10.147   0.316 -1.7917  1.1808  0.4158
50186SOL    HW259337   9.953  10.016   0.384  3.1273  1.3321 -1.3581
50187SOL     OW59338   3.261   6.831  10.501 -0.0240  0.2512 -0.4540
50187SOL    HW159339   3.292   6.894  10.436 -0.7868  0.9484 -0.1687
50187SOL    HW259340   3.268   6.746  10.457  1.8397  0.4177 -0.5353
50188SOL     OW59341   2.719  11.140   5.282  0.3931 -0.1555 -0.0642
50188SOL    HW159342   2.654  11.123   5.213  1.2586 -0.2573 -0.8895
50188SOL    HW259343   2.803  11.120   5.240  0.9167 -0.5858  1.1516
50189SOL     OW59344   2.031   6.701   9.013  0.1392  0.3634  0.9931
50189SOL    HW159345   1.987   6.776   8.973 -1.2264  0.1529  2.0273
50189SOL    HW259346   2.106   6.683   8.955 -1.2418  0.6040 -0.9529
50190SOL     OW59347   4.013   8.104   6.875 -0.2615 -0.5691 -0.2110
50190SOL    HW159348   4.100   8.066   6.876 -0.9695 -2.3050  0.1750
50190SOL    HW259349   3.990   8.111   6.782 -0.1549 -1.2410 -0.2956
50191SOL     OW59350   9.876   6.282  10.885 -0.0805 -0.5571  0.3279
50191SOL    HW159351   9.813   6.349  10.860 -1.4864 -2.0320 -0.2547
50191SOL    HW259352   9.897   6.302  10.976  0.0928  1.0555 -0.0330
50192SOL     OW59353   3.172   8.717   9.130 -0.6045 -0.7473 -0.0601
50192SOL    HW159354   3.253   8.669   9.110  0.1581  0.5471 -0.2138
50192SOL    HW259355   3.102   8.665   9.091  0.3978 -0.6687 -2.0730
50193SOL     OW59356   4.312  11.614   2.834 -0.4394 -0.3612 -0.3761
50193SOL    HW159357   4.230  11.563   2.838 -1.9800  1.6089 -2.9737
50193SOL    HW259358   4.293  11.694   2.883  0.6002 -0.6031  0.4600
50194SOL     OW59359   0.886   6.559   9.006  0.2317  0.3966  0.4058
50194SOL    HW159360   0.797   6.530   9.026  0.5696 -0.4930  0.6937
50194SOL    HW259361   0.939   6.528   9.080  0.7583  1.0431  0.3126
50195SOL     OW59362  10.646   1.854   3.762 -0.4557 -0.0495 -0.0305
50195SOL    HW159363  10.625   1.835   3.670 -0.9771 -0.6155  0.2019
50195SOL    HW259364  10.606   1.782   3.811 -1.7195  1.1779  0.7982
50196SOL     OW59365   1.935   9.558   1.821 -0.1806 -0.6168 -0.3905
50196SOL    HW159366   1.990   9.518   1.753  0.0279 -1.2411  0.1296
50196SOL    HW259367   1.922   9.487   1.884 -1.1455 -0.3151 -0.2432
50197SOL     OW59368  10.930  12.054   4.169 -0.5206 -0.5079  0.2553
50197SOL    HW159369  10.893  11.966   4.157  0.7851 -0.9043 -1.1486
50197SOL    HW259370  10.913  12.098   4.086  0.1143  0.0704  0.4257
50198SOL     OW59371   1.663  10.457   8.060  0.1053  0.2510  0.7296
50198SOL    HW159372   1.570  10.473   8.076 -0.0487  0.9544 -0.7295
50198SOL    HW259373   1.667  10.365   8.032 -0.5074  0.8216 -1.4333
50199SOL     OW59374   4.128   4.217   5.141 -0.2945 -0.1885  0.5615
50199SOL    HW159375   4.076   4.172   5.075 -1.7459  3.5331 -1.0928
50199SOL    HW259376   4.072   4.219   5.218 -1.0676  0.5682 -0.0141
50200SOL     OW59377  11.623  11.717  11.448 -0.3404  0.0491 -0.3190
50200SOL    HW159378  11.675  11.782  11.495 -1.0204 -0.2860  0.9704
50200SOL    HW259379  11.555  11.767  11.405  0.6215  0.4217 -1.4473
50201SOL     OW59380   8.553   4.018   2.519 -0.1932  0.5331  0.3949
50201SOL    HW159381   8.476   3.961   2.516 -0.6723  1.2066 -1.6766
50201SOL    HW259382   8.612   3.983   2.452  0.8193  0.7493  1.1312
50202SOL     OW59383   1.375   8.348   4.955  0.2250 -0.5306  0.0026
50202SOL    HW159384   1.450   8.405   4.942  0.4423 -0.8882 -0.3354
50202SOL    HW259385   1.300   8.402   4.931  0.5319 -0.8127 -1.6884
50203SOL     OW59386   9.164   4.107  12.014  0.0933 -0.0017  0.0319
50203SOL    HW159387   9.220   4.030  12.011 -2.1488 -1.9504  2.9206
50203SOL    HW259388   9.076   4.075  11.996 -0.8474  1.9806  0.7107
50204SOL     OW59389  10.403  10.413   0.484 -0.0281  0.7085  0.3805
50204SOL    HW159390  10.391  10.391   0.576 -0.4259  0.8207  0.3585
50204SOL    HW259391  10.396  10.330   0.438 -1.0366  0.8063  0.3432
50205SOL     OW59392   8.393   2.612   0.649 -0.1152  0.0476  0.2914
50205SOL    HW159393   8.439   2.533   0.676  0.0302  0.0635  0.0909
50205SOL    HW259394   8.349   2.643   0.729 -0.1534 -0.2199  0.3748
50206SOL     OW59395   0.928   7.915   0.144 -0.0103 -0.2554  0.1922
50206SOL    HW159396   0.926   7.912   0.048  0.1637  1.4551  0.1089
50206SOL    HW259397   0.996   7.852   0.168 -0.2204 -0.8823 -0.7879
50207SOL     OW59398   5.549   5.471  11.850  0.2343 -0.1224 -0.5434
50207SOL    HW159399   5.626   5.452  11.903 -1.1494 -0.3246  1.5072
50207SOL    HW259400   5.513   5.385  11.828  1.0177 -0.0561 -2.2370
50208SOL     OW59401   0.202   2.391   0.946  0.2343  0.3032 -0.9946
50208SOL    HW159402   0.254   2.466   0.977  1.6458  0.0732 -2.6640
50208SOL    HW259403   0.111   2.419   0.957  0.7115  1.7747 -0.4628
50209SOL     OW59404  10.200   1.793   0.349  0.5174  0.1300 -0.1288
50209SOL    HW159405  10.276   1.742   0.322  0.0535  0.0507 -1.3304
50209SOL    HW259406  10.125   1.747   0.312 -0.3558 -0.9772  2.7916
50210SOL     OW59407   0.795  11.503   1.252 -0.0235 -0.1280 -0.3935
50210SOL    HW159408   0.788  11.487   1.158 -0.3937  0.6223 -0.4990
50210SOL    HW259409   0.871  11.451   1.279 -0.8009 -1.5599 -0.8175
50211SOL     OW59410  12.058   1.246   2.667  0.8367 -0.0839  0.4521
50211SOL    HW159411  11.990   1.181   2.685 -2.1012  2.3709 -0.7700
50211SOL    HW259412  12.056   1.304   2.743  0.7159  0.6374 -0.0887
50212SOL     OW59413   6.019   5.661  10.897 -0.5407  0.1098 -0.2897
50212SOL    HW159414   6.082   5.695  10.833  0.5728  0.0042  0.7094
50212SOL    HW259415   6.051   5.572  10.916 -0.3637  0.4202  0.9952
50213SOL     OW59416   4.781   2.085   6.784 -0.1483 -0.1692 -0.4139
50213SOL    HW159417   4.687   2.105   6.775 -0.3845 -1.2438 -0.4161
50213SOL    HW259418   4.790   2.051   6.873  0.3692  0.5626 -0.1775
50214SOL     OW59419   1.953   5.129  11.383  0.3451 -0.2370 -0.2894
50214SOL    HW159420   1.890   5.061  11.358 -0.3333 -0.1760  1.1539
50214SOL    HW259421   1.908   5.211  11.367  0.4005 -0.1756 -0.1379
50215SOL     OW59422   7.112   3.600   4.524 -1.0440  0.7097 -0.0610
50215SOL    HW159423   7.030   3.551   4.532 -0.0970 -1.0590 -0.6956
50215SOL    HW259424   7.095   3.664   4.456 -1.9444  0.4278 -0.1160
50216SOL     OW59425   9.358   1.553   5.949  0.1451  0.0244 -0.1911
50216SOL    HW159426   9.338   1.636   5.906 -0.7128 -0.1912 -0.2186
50216SOL    HW259427   9.440   1.525   5.909  1.6387  1.8876  1.3280
50217SOL     OW59428  11.408   2.185   8.350  0.4951  0.4221 -0.1559
50217SOL    HW159429  11.502   2.193   8.333  0.4803  0.7833 -0.0714
50217SOL    HW259430  11.384   2.268   8.390  0.3878 -0.1663  1.0466
50218SOL     OW59431  11.646  10.272   9.484  0.7811  0.0237  0.0619
50218SOL    HW159432  11.595  10.257   9.405  0.6659 -2.8890  0.5953
50218SOL    HW259433  11.736  10.248   9.460  0.8427 -0.3671  0.6769
50219SOL     OW59434   4.932   5.596  10.490 -0.5214 -0.1996  0.1330
50219SOL    HW159435   4.986   5.649  10.548 -0.0766 -0.9904  0.4503
50219SOL    HW259436   4.859   5.567  10.544 -0.6027 -0.1672  0.0422
50220SOL     OW59437   0.474   2.898   0.313 -0.2563  0.4963 -0.1254
50220SOL    HW159438   0.451   2.813   0.277  2.2569 -0.2065 -0.2980
50220SOL    HW259439   0.454   2.960   0.244 -1.7926  0.0511 -0.1245
50221SOL     OW59440   3.420   4.441  11.550 -0.3529 -0.2535 -0.7823
50221SOL    HW159441   3.436   4.522  11.598  1.0269 -1.7695  1.5019
50221SOL    HW259442   3.412   4.374  11.617 -0.9361 -2.1252 -2.6017
50222SOL     OW59443   4.356   0.785   8.270 -0.0303 -0.3153 -0.1498
50222SOL    HW159444   4.327   0.721   8.205 -1.5267 -0.3419  0.4970
50222SOL    HW259445   4.387   0.860   8.218  0.1244 -0.8823 -0.8902
50223SOL     OW59446   0.238   8.669  10.449  0.3403  0.0088  0.7144
50223SOL    HW159447   0.334   8.677  10.448  0.3540  0.1067  1.7812
50223SOL    HW259448   0.217   8.621  10.369  1.3971 -1.2491  1.1722
50224SOL     OW59449   9.849   0.508   1.007 -0.0782  0.3790 -0.3940
50224SOL    HW159450   9.942   0.506   0.985 -0.1300  0.1061 -0.5950
50224SOL    HW259451   9.806   0.543   0.929 -0.4515 -2.2293 -1.4703
50225SOL     OW59452   4.222   5.316   8.416  0.1204  0.7337 -0.1528
50225SOL    HW159453   4.252   5.313   8.325  1.9569 -0.5817  0.4278
50225SOL    HW259454   4.199   5.225   8.436 -0.2041  0.9978  0.7158
50226SOL     OW59455   7.658   4.121   3.043 -0.5231  0.1302  0.2984
50226SOL    HW159456   7.646   4.091   2.953 -0.6018 -1.3486  0.7781
50226SOL    HW259457   7.726   4.188   3.036  0.8374 -1.2625 -0.6464
50227SOL     OW59458   1.925   7.326  11.118  0.1778  0.1213 -0.5728
50227SOL    HW159459   1.923   7.231  11.108 -0.3051  0.1271 -0.5551
50227SOL    HW259460   1.928   7.359  11.029  0.6564  0.0856 -0.5726
50228SOL     OW59461   0.955   1.040   5.111  0.2084  0.4541 -0.5912
50228SOL    HW159462   0.882   1.049   5.049  0.7729  1.0159 -1.1910
50228SOL    HW259463   0.915   1.053   5.197 -0.6186 -0.5375 -0.8095
50229SOL     OW59464   0.844   6.926   6.524 -0.1625 -0.4339  0.2288
50229SOL    HW159465   0.896   7.006   6.513 -0.8244 -0.0360 -0.0846
50229SOL    HW259466   0.754   6.955   6.514 -0.3944 -1.2865 -0.2926
50230SOL     OW59467  11.334  11.097   0.589  0.4396 -0.3274  0.2963
50230SOL    HW159468  11.360  11.175   0.540  1.5148 -0.8246  0.0303
50230SOL    HW259469  11.418  11.056   0.614 -0.1025 -1.1810  0.7682
50231SOL     OW59470   6.900   0.227   6.875  0.5488  0.3950  0.3325
50231SOL    HW159471   6.828   0.195   6.820  0.6322 -0.2486  0.5879
50231SOL    HW259472   6.874   0.316   6.899  0.9071  1.0280 -1.4470
50232SOL     OW59473   7.781   4.940   8.145  0.0846 -0.1370 -0.3556
50232SOL    HW159474   7.768   4.954   8.051  2.3979 -0.2480 -0.7608
50232SOL    HW259475   7.795   4.845   8.153  0.4156 -0.0596  0.0138
50233SOL     OW59476   5.752   7.751   2.577  0.0637  0.5875 -0.4229
50233SOL    HW159477   5.712   7.813   2.638 -0.9935 -0.2955 -0.1843
50233SOL    HW259478   5.707   7.668   2.594 -1.0843  0.5447 -3.1238
50234SOL     OW59479   8.425   9.477   4.278 -0.1746  0.4222  0.0703
50234SOL    HW159480   8.407   9.556   4.226 -0.9448  0.7048  0.7419
50234SOL    HW259481   8.515   9.489   4.309  0.4250  0.0791 -1.4640
50235SOL     OW59482  11.756   2.651   3.633  0.0112 -0.2874  0.5459
50235SOL    HW159483  11.726   2.723   3.578 -1.8909 -1.4237 -0.0187
50235SOL    HW259484  11.825   2.608   3.582  1.0073  0.9673  0.7981
50236SOL     OW59485   4.624   8.413  11.567 -0.3851 -0.0708  0.2793
50236SOL    HW159486   4.667   8.464  11.635  0.0284  0.7847 -0.5936
50236SOL    HW259487   4.696   8.383  11.511 -0.6490 -1.3702  0.6028
50237SOL     OW59488   0.688  10.903   5.617  0.8271  0.0348  0.3047
50237SOL    HW159489   0.651  10.832   5.564 -2.3983  1.7955 -0.0665
50237SOL    HW259490   0.660  10.882   5.707  0.8014  0.2761  0.3525
50238SOL     OW59491   7.820   2.091   7.273  0.4867 -0.1743  0.3624
50238SOL    HW159492   7.761   2.019   7.293 -0.6721  0.2738 -1.2488
50238SOL    HW259493   7.776   2.168   7.310  0.7526 -0.0329  0.3840
50239SOL     OW59494   0.106   2.033   4.153 -0.1853  0.3415  0.1849
50239SOL    HW159495   0.137   2.012   4.241 -1.6196 -0.5158  0.5156
50239SOL    HW259496   0.165   2.102   4.122  1.4510 -0.5863  1.1164
50240SOL     OW59497   2.772   2.690   0.535 -0.4182 -0.2894  0.3624
50240SOL    HW159498   2.838   2.696   0.466 -1.8389 -1.3468 -1.1885
50240SOL    HW259499   2.800   2.616   0.589  0.7838  0.6331  1.0457
50241SOL     OW59500  11.532   5.762   8.489 -0.5275 -0.3669 -0.4594
50241SOL    HW159501  11.552   5.707   8.414 -0.5574 -0.8359 -0.1285
50241SOL    HW259502  11.573   5.846   8.469  1.6808 -1.2350  0.1140
50242SOL     OW59503   6.338   4.388   7.704  0.3579 -0.0881 -0.0508
50242SOL    HW159504   6.362   4.478   7.728  1.3353 -0.1932 -0.5712
50242SOL    HW259505   6.418   4.337   7.718 -0.6591 -1.2643  1.9642
50243SOL     OW59506  11.319   9.949   2.199  0.4554 -0.0544  0.5295
50243SOL    HW159507  11.317   9.880   2.266 -1.1131 -1.4565 -0.8882
50243SOL    HW259508  11.386   9.919   2.137 -0.4760 -0.5238 -0.2716
50244SOL     OW59509   0.853   2.516  11.080  0.4211  0.0256 -0.5003
50244SOL    HW159510   0.788   2.467  11.031  0.2863 -1.3897  0.9878
50244SOL    HW259511   0.809   2.540  11.161  1.8374 -1.4144  0.7644
50245SOL     OW59512  10.301   0.961   6.745 -0.0327 -0.0612  0.7047
50245SOL    HW159513  10.344   1.046   6.758  0.1496  0.1903 -1.2362
50245SOL    HW259514  10.210   0.977   6.768  0.0501  0.6061  0.6050
50246SOL     OW59515   0.250   0.758   1.977 -0.4624  0.3709 -0.4950
50246SOL    HW159516   0.287   0.817   1.911  0.1636 -0.7076 -1.1194
50246SOL    HW259517   0.257   0.671   1.939 -0.0036 -0.2921  1.0402
50247SOL     OW59518  10.998   2.434   2.127 -0.2361 -0.4931  0.6392
50247SOL    HW159519  10.937   2.405   2.059 -1.1488  0.8777  0.8380
50247SOL    HW259520  10.943   2.453   2.202  0.5327  0.0347  1.0865
50248SOL     OW59521   3.646  11.696   3.185  0.5066  0.2167  0.4967
50248SOL    HW159522   3.733  11.713   3.150 -0.2705  0.1762 -1.6089
50248SOL    HW259523   3.661  11.659   3.272  2.5764 -0.0980  0.0416
50249SOL     OW59524   0.707   7.768   6.218  0.4158  0.5346 -0.0221
50249SOL    HW159525   0.622   7.752   6.258  0.3530  0.3028 -0.2472
50249SOL    HW259526   0.709   7.711   6.141  1.0637 -0.0165  0.3869
50250SOL     OW59527   0.394   9.626   7.509 -0.4061  0.0038 -0.4534
50250SOL    HW159528   0.473   9.577   7.489 -0.3994 -0.2957  0.2772
50250SOL    HW259529   0.325   9.580   7.462  0.0511  1.1430 -2.3309
50251SOL     OW59530   3.551   7.050  10.027  0.0385  0.2767 -0.3671
50251SOL    HW159531   3.523   7.115   9.963  0.9931  0.0657 -1.0233
50251SOL    HW259532   3.591   6.981   9.974  0.3539 -0.1583  0.4262
50252SOL     OW59533   7.068   0.881  11.290 -0.7427 -0.1664  0.1809
50252SOL    HW159534   7.103   0.966  11.266 -0.3840  0.4282  2.5397
50252SOL    HW259535   7.076   0.878  11.385  0.3198 -3.3127  0.0920
50253SOL     OW59536  10.045   5.635   1.649 -0.3762  0.0820 -0.0803
50253SOL    HW159537   9.998   5.553   1.658 -0.8418 -0.0021 -2.4796
50253SOL    HW259538  10.013   5.690   1.720 -0.0057 -1.7698  1.6216
50254SOL     OW59539  10.687   4.779   1.827 -0.0210  0.5307  0.0001
50254SOL    HW159540  10.727   4.757   1.743  1.3053  0.9752  0.4964
50254SOL    HW259541  10.753   4.755   1.892 -0.3971  1.6571  0.8237
50255SOL     OW59542  12.393   3.081   6.688 -0.2895  0.0895 -0.2141
50255SOL    HW159543  12.426   3.045   6.606  0.6804 -3.7886  1.6595
50255SOL    HW259544  12.317   3.027   6.709 -0.0822  0.5104  1.7924
50256SOL     OW59545   4.073   7.388   5.424 -0.1566 -0.0340  0.0439
50256SOL    HW159546   4.132   7.460   5.400 -1.2166  1.2490  1.1131
50256SOL    HW259547   4.131   7.318   5.453  0.9223  0.2190 -1.3985
50257SOL     OW59548  11.375   4.471   7.407  0.7929 -0.1901 -0.6132
50257SOL    HW159549  11.461   4.432   7.425  2.2513  3.0420  0.1443
50257SOL    HW259550  11.351   4.515   7.488 -1.3485 -0.5338 -1.0043
50258SOL     OW59551   3.969   3.748   4.206  0.3976  0.0476 -0.3316
50258SOL    HW159552   4.049   3.798   4.191  0.8871 -0.1324  1.4197
50258SOL    HW259553   3.997   3.657   4.205  0.3373 -0.0007  0.7676
50259SOL     OW59554   4.287   8.674   5.842 -0.2890  0.7713 -0.0261
50259SOL    HW159555   4.297   8.634   5.756  0.4584  0.3768  0.2388
50259SOL    HW259556   4.295   8.768   5.826  0.5417  0.6593 -0.2900
50260SOL     OW59557   1.104   2.633   8.863 -0.0214  0.4267  0.3491
50260SOL    HW159558   1.079   2.549   8.824  0.1101  0.7413 -0.4329
50260SOL    HW259559   1.196   2.645   8.838 -0.3320  1.2859 -0.4395
50261SOL     OW59560   4.864  11.724   2.836 -0.3425  0.2866 -0.3823
50261SOL    HW159561   4.860  11.687   2.923  1.3777 -0.1431 -0.4433
50261SOL    HW259562   4.905  11.656   2.782 -1.3733  0.5368 -1.5277
50262SOL     OW59563  10.728   7.573   2.486 -0.0982 -0.0219  0.0452
50262SOL    HW159564  10.773   7.624   2.418  1.5523 -2.2104 -0.6275
50262SOL    HW259565  10.669   7.515   2.438  0.3057 -0.8562  0.5372
50263SOL     OW59566   4.804  11.327   0.330 -0.1607  0.4329 -0.0488
50263SOL    HW159567   4.713  11.355   0.322 -0.0494  1.2865  1.3746
50263SOL    HW259568   4.800  11.239   0.366 -0.4196  1.0345  1.4445
50264SOL     OW59569   8.208   2.688   0.867  0.0474 -0.0244 -0.3170
50264SOL    HW159570   8.207   2.765   0.924 -4.1186 -0.2896  0.2767
50264SOL    HW259571   8.224   2.614   0.926  0.6702  0.0956 -0.3313
50265SOL     OW59572   6.823   0.917  12.247 -0.0774  0.0411  0.1650
50265SOL    HW159573   6.856   0.913  12.336 -2.8015 -1.5942  1.2404
50265SOL    HW259574   6.767   0.840  12.239 -2.5235  1.8454 -1.8267
50266SOL     OW59575   1.284   0.616   9.122 -0.5139  0.1031 -0.1151
50266SOL    HW159576   1.285   0.712   9.128  0.9947  0.1356 -0.5441
50266SOL    HW259577   1.320   0.587   9.205  2.0205  0.0370 -1.1466
50267SOL     OW59578  11.876   5.442  12.391  0.0259  0.4463  0.3880
50267SOL    HW159579  11.861   5.369  12.451  4.4884  1.3669  3.0537
50267SOL    HW259580  11.831   5.517  12.432 -0.1501  0.2847  0.4928
50268SOL     OW59581   8.271   7.836   1.082 -0.1693  0.2339  0.2967
50268SOL    HW159582   8.270   7.772   1.153 -1.1196 -0.5739 -0.4090
50268SOL    HW259583   8.354   7.821   1.036 -0.2143 -0.2364  0.3705
50269SOL     OW59584   8.105   1.876  11.695  0.3056 -0.2227 -0.0138
50269SOL    HW159585   8.020   1.881  11.651  0.4442  0.9772 -0.1737
50269SOL    HW259586   8.096   1.802  11.755 -0.1998 -1.2945 -1.3719
50270SOL     OW59587   3.340  10.033  11.970  0.2348  0.2463 -0.2089
50270SOL    HW159588   3.426   9.992  11.981  0.3101  0.8487  2.0729
50270SOL    HW259589   3.327  10.083  12.051 -1.4896  1.6447 -1.2727
50271SOL     OW59590   6.965   0.724  11.894 -0.1905 -0.0807 -0.0395
50271SOL    HW159591   6.934   0.679  11.973 -1.5228  0.9737  0.0680
50271SOL    HW259592   6.997   0.653  11.838 -0.0126 -0.9304  1.0876
50272SOL     OW59593   9.511  12.525  11.929  0.5573 -0.3602 -0.1442
50272SOL    HW159594   9.537  12.561  12.014  0.9855 -0.8058 -0.0808
50272SOL    HW259595   9.427  12.566  11.910  1.8276  2.1086 -0.9438
50273SOL     OW59596  10.604   2.542  10.879  0.5625 -0.5642 -0.0831
50273SOL    HW159597  10.614   2.481  10.805  0.7040  1.3379 -1.7208
50273SOL    HW259598  10.549   2.612  10.844 -0.3771 -0.1855  2.0397
50274SOL     OW59599   3.793   4.635   5.256  0.0196 -0.5849 -0.5836
50274SOL    HW159600   3.865   4.574   5.236  0.5287 -0.2090  0.0772
50274SOL    HW259601   3.721   4.605   5.200  1.4987  0.6911 -3.3720
50275SOL     OW59602   2.231   5.081   9.972 -0.6587  0.3720  0.3198
50275SOL    HW159603   2.311   5.126   9.999 -0.7848  0.2287  0.9320
50275SOL    HW259604   2.189   5.142   9.910 -1.9145  2.1084  2.7215
50276SOL     OW59605   7.119   4.924   5.254  0.1807  0.0527  0.1615
50276SOL    HW159606   7.182   4.924   5.182 -1.3936 -0.2573 -1.2875
50276SOL    HW259607   7.051   4.863   5.226 -0.7596  0.3449  1.6851
50277SOL     OW59608  11.507   6.060   0.901 -0.4681  0.9796 -0.1416
50277SOL    HW159609  11.578   6.121   0.882  0.2494  0.5956  1.1993
50277SOL    HW259610  11.523   6.032   0.991 -1.7256  0.0789 -0.1787
50278SOL     OW59611  11.318   1.554   3.825 -0.4505  0.0490  0.5022
50278SOL    HW159612  11.379   1.515   3.762 -0.4118 -1.6949  1.5774
50278SOL    HW259613  11.232   1.542   3.785 -0.4923 -1.6594  1.0332
50279SOL     OW59614  12.339   0.509  10.497 -0.3923  0.7999 -0.6155
50279SOL    HW159615  12.332   0.487  10.404  0.3701 -0.7349 -0.3505
50279SOL    HW259616  12.304   0.432  10.542  0.1035  1.1377  0.3710
50280SOL     OW59617   8.058  11.373  11.153 -0.5110 -0.2119  0.2408
50280SOL    HW159618   7.994  11.343  11.088  1.1126 -0.7985 -1.1603
50280SOL    HW259619   8.017  11.450  11.193 -1.3408  0.5543 -1.9173
50281SOL     OW59620   0.549   4.719   3.884 -0.7971  0.2268  0.0006
50281SOL    HW159621   0.496   4.714   3.964  0.9127 -2.1737  1.0765
50281SOL    HW259622   0.630   4.763   3.911 -0.5450  0.1540 -0.6211
50282SOL     OW59623   0.019   4.520   3.091 -0.6016 -0.4018  0.0659
50282SOL    HW159624   0.019   4.505   3.185 -0.9202 -0.6911  0.0205
50282SOL    HW259625   0.112   4.521   3.067 -0.4350  1.2620  0.6262
50283SOL     OW59626   3.124   5.073  12.549 -0.4101  0.3029 -0.0482
50283SOL    HW159627   3.064   5.071  12.475  1.4446  0.1037 -1.6437
50283SOL    HW259628   3.211   5.064  12.509  0.7349  1.1846  2.0810
50284SOL     OW59629   7.085   1.136   3.033  0.0334  0.1544  1.1408
50284SOL    HW159630   7.087   1.213   3.089  2.5147 -0.0482  1.4563
50284SOL    HW259631   7.172   1.133   2.993 -1.2307 -0.3464 -1.8814
50285SOL     OW59632   8.806   7.156   3.713 -0.1677  0.1161  0.3978
50285SOL    HW159633   8.882   7.100   3.695 -0.6515  0.2243 -2.5038
50285SOL    HW259634   8.843   7.244   3.721  0.1352 -0.0049  0.3396
50286SOL     OW59635   1.147  12.019   4.299  0.0134 -0.0789 -0.3105
50286SOL    HW159636   1.153  11.949   4.365  1.0797  0.1567 -0.1378
50286SOL    HW259637   1.227  12.009   4.248 -0.2464  0.4877 -0.8305
50287SOL     OW59638   6.081   6.236   1.507 -0.6329  0.4781  0.4808
50287SOL    HW159639   6.011   6.188   1.462  1.2852 -1.4110 -0.6627
50287SOL    HW259640   6.087   6.194   1.593 -0.9185  0.6547  0.5873
50288SOL     OW59641  11.091   9.044   3.571  0.4250 -0.1110  0.8381
50288SOL    HW159642  11.026   8.991   3.525  2.5148 -2.3523  0.2520
50288SOL    HW259643  11.065   9.038   3.663 -0.6258 -0.2933  0.5467
50289SOL     OW59644   4.854   3.507   8.152  0.2274 -0.0792  0.0589
50289SOL    HW159645   4.916   3.559   8.101  0.5432 -0.6270 -0.1296
50289SOL    HW259646   4.768   3.532   8.119  0.3673  0.3609  0.0152
50290SOL     OW59647  10.958   5.878   3.031  0.5133 -0.5375 -0.4042
50290SOL    HW159648  10.981   5.832   2.951 -2.5031  0.3445 -1.9404
50290SOL    HW259649  10.870   5.912   3.015  1.1476  2.7410  1.9404
50291SOL     OW59650   0.202   7.859   3.819 -0.2036  0.3488 -0.4781
50291SOL    HW159651   0.191   7.774   3.861  0.8867  0.2162 -0.4330
50291SOL    HW259652   0.153   7.919   3.875  0.0353 -0.0617  0.1894
50292SOL     OW59653   7.978   1.367   7.654 -0.0153  0.6942  0.3883
50292SOL    HW159654   7.923   1.322   7.717  0.4206  0.2433  0.4516
50292SOL    HW259655   8.066   1.366   7.692  0.7857 -1.7943 -1.2898
50293SOL     OW59656   2.928   0.245   8.900  0.7073  0.4813 -0.3651
50293SOL    HW159657   2.999   0.188   8.869 -0.3737 -1.0708 -0.1466
50293SOL    HW259658   2.850   0.189   8.896  0.2103  0.5797  3.5744
50294SOL     OW59659   3.919   0.587   3.950  0.2430 -0.3245 -0.0309
50294SOL    HW159660   3.990   0.652   3.945  0.4060 -0.5231 -0.2893
50294SOL    HW259661   3.930   0.533   3.872  0.8433 -1.4235  0.7808
50295SOL     OW59662  11.658   4.262   9.361 -0.2081  0.4625  0.1374
50295SOL    HW159663  11.635   4.338   9.309  2.8874 -0.2277 -2.5494
50295SOL    HW259664  11.623   4.187   9.312  0.3496 -0.0652  0.5244
50296SOL     OW59665   4.408   4.850   4.270  0.4730 -0.2836  0.0907
50296SOL    HW159666   4.424   4.790   4.343 -1.3492  2.0358  2.5689
50296SOL    HW259667   4.314   4.844   4.255  0.6294  0.2340 -1.2618
50297SOL     OW59668   2.087  10.738   8.500  0.3025  0.8626  0.1127
50297SOL    HW159669   2.016  10.768   8.558  0.6474  1.8676  0.0371
50297SOL    HW259670   2.153  10.703   8.560 -0.9119 -1.5951  0.0996
50298SOL     OW59671   7.181  12.034   5.628 -0.1207 -0.2045  0.6560
50298SOL    HW159672   7.261  12.033   5.680 -0.5199 -1.3993  1.2815
50298SOL    HW259673   7.122  12.092   5.677 -0.2348 -0.7288  1.1553
50299SOL     OW59674   8.981  11.226  11.564 -0.3589 -0.1781 -0.9479
50299SOL    HW159675   8.890  11.219  11.534 -0.4768 -0.4615 -0.5192
50299SOL    HW259676   9.020  11.141  11.545 -0.6183 -0.5997  0.3075
50300SOL     OW59677  11.408   0.995   0.922  0.2982  0.4246 -0.1024
50300SOL    HW159678  11.315   0.993   0.945  0.2811  1.5729 -0.0082
50300SOL    HW259679  11.454   0.997   1.006  0.5258 -2.2328 -0.0882
50301SOL     OW59680   0.478  11.833   1.962 -0.1773 -0.2016 -0.1960
50301SOL    HW159681   0.522  11.798   1.884  0.1220  1.0298 -0.6039
50301SOL    HW259682   0.419  11.763   1.989  2.0139 -1.9357  0.3782
50302SOL     OW59683   3.843  10.680   5.273 -0.1563 -0.0039 -0.5326
50302SOL    HW159684   3.758  10.687   5.316  0.6309 -0.5433  1.1890
50302SOL    HW259685   3.905  10.718   5.335  1.1114 -1.3011 -0.9478
50303SOL     OW59686   5.402   9.647  10.465 -0.0957 -0.4535  0.0080
50303SOL    HW159687   5.414   9.556  10.489 -0.1716 -0.4982 -0.1240
50303SOL    HW259688   5.422   9.696  10.545 -0.1653 -0.5918  0.1092
50304SOL     OW59689   2.981  10.979   3.522  0.0876 -0.8080 -0.3249
50304SOL    HW159690   2.921  11.027   3.579  0.9677 -0.1531  0.0763
50304SOL    HW259691   3.067  10.990   3.562  0.7603 -0.2014 -1.8318
50305SOL     OW59692   7.162  11.825  11.830 -0.0910 -0.0754  0.0470
50305SOL    HW159693   7.075  11.865  11.834  0.5376  1.3389  0.2237
50305SOL    HW259694   7.146  11.732  11.840 -1.7549 -0.0557 -1.8185
50306SOL     OW59695   6.235   8.555   4.011 -0.3047 -0.1719  0.5130
50306SOL    HW159696   6.191   8.471   4.023  0.2897 -0.4491  0.7867
50306SOL    HW259697   6.325   8.532   3.985  1.0229  0.2281  4.0937
50307SOL     OW59698   3.033  10.926  12.517  0.0627 -0.1042 -0.4218
50307SOL    HW159699   3.123  10.895  12.525 -0.1170 -0.8095 -1.0016
50307SOL    HW259700   3.009  10.906  12.426 -0.4383  0.7414 -0.4870
50308SOL     OW59701  11.472  10.145   8.813  0.2991  0.0162  0.3111
50308SOL    HW159702  11.550  10.098   8.844  1.3368  0.8555 -0.9501
50308SOL    HW259703  11.507  10.221   8.767 -1.3135  1.0131  0.6826
50309SOL     OW59704   8.018   5.292  12.392  0.5101  0.2352  0.0347
50309SOL    HW159705   8.023   5.218  12.454  0.5070  0.7726  0.6938
50309SOL    HW259706   7.930   5.285  12.354  0.7754 -0.5286 -0.4651
50310SOL     OW59707   4.855   2.745   2.190 -0.0989  0.7881 -0.3548
50310SOL    HW159708   4.867   2.721   2.282  1.7981  1.3665 -0.3895
50310SOL    HW259709   4.871   2.664   2.141 -0.3291  0.6510 -0.2006
50311SOL     OW59710   4.207   4.094   6.408 -0.3320  0.4675 -0.1691
50311SOL    HW159711   4.128   4.146   6.422 -0.4567  0.0194  0.8851
50311SOL    HW259712   4.192   4.051   6.324 -1.4372  0.0112  0.2407
50312SOL     OW59713   0.533   5.108   9.873  0.1232 -0.4207 -0.1412
50312SOL    HW159714   0.575   5.074   9.952  2.1260  1.7918 -0.1600
50312SOL    HW259715   0.467   5.169   9.905  0.9892  0.5363 -0.1277
50313SOL     OW59716   5.741   6.927   0.664  0.6620 -0.2886 -0.3861
50313SOL    HW159717   5.830   6.962   0.665  0.6219 -0.1642  1.4558
50313SOL    HW259718   5.688   6.995   0.704 -0.0688 -0.8455 -0.3955
50314SOL     OW59719   1.473   8.442  11.577  0.3975  0.2212 -0.7040
50314SOL    HW159720   1.410   8.372  11.591 -1.9444  2.3309 -0.1798
50314SOL    HW259721   1.444   8.486  11.497  1.5880  0.8513 -0.8235
50315SOL     OW59722  12.386  12.007   2.258 -0.5033  0.0087  0.0349
50315SOL    HW159723  12.304  11.973   2.223 -0.1594  0.1762 -0.9471
50315SOL    HW259724  12.389  12.098   2.228  0.0460  0.0013  0.0582
50316SOL     OW59725   1.162   5.411   6.670 -0.4090  0.0138 -0.1747
50316SOL    HW159726   1.179   5.505   6.680  0.3201 -0.0758 -0.4760
50316SOL    HW259727   1.090   5.393   6.731 -1.3315  0.9854 -0.9213
50317SOL     OW59728  11.763   5.279   3.916 -0.0503 -0.6767  0.0945
50317SOL    HW159729  11.739   5.287   4.008  0.6808 -1.1417  0.3411
50317SOL    HW259730  11.857   5.299   3.914 -0.1707 -0.1575 -0.6314
50318SOL     OW59731  11.599  11.120   0.650 -0.2234  0.2222  0.0943
50318SOL    HW159732  11.588  11.215   0.649  1.2926  0.5073  2.9176
50318SOL    HW259733  11.591  11.095   0.742 -0.3723 -2.3830 -0.5402
50319SOL     OW59734   9.304  10.249   0.958  0.0360  0.1434  0.5540
50319SOL    HW159735   9.214  10.250   0.992 -0.1306 -0.1384  0.1327
50319SOL    HW259736   9.313  10.332   0.912  0.9761  1.5280  3.0560
50320SOL     OW59737  10.268   5.210  10.730  0.0426  0.3945  0.1702
50320SOL    HW159738  10.336   5.160  10.775 -1.1894  0.3510  2.1053
50320SOL    HW259739  10.284   5.301  10.757 -1.2029  0.2678  1.4848
50321SOL     OW59740  11.259   6.883  11.258  0.0603  0.2329  0.4787
50321SOL    HW159741  11.349   6.856  11.241 -0.8392 -2.9651  0.1120
50321SOL    HW259742  11.225   6.908  11.172  0.0317 -0.6268  0.2258
50322SOL     OW59743   6.227   1.643  11.833  0.2328 -0.1151 -0.2372
50322SOL    HW159744   6.152   1.701  11.845  1.2827  1.0326  1.2117
50322SOL    HW259745   6.249   1.614  11.922  1.0667 -0.9793 -0.7100
50323SOL     OW59746   5.773  11.114   1.045 -0.0173 -0.2384 -0.6484
50323SOL    HW159747   5.735  11.148   0.964 -1.4757 -0.8495 -0.2573
50323SOL    HW259748   5.697  11.100   1.103  0.9359 -0.3593  0.6116
50324SOL     OW59749   7.465  10.760   5.261 -0.5596 -0.2335  0.3518
50324SOL    HW159750   7.526  10.833   5.250  0.4775 -0.9497  1.0717
50324SOL    HW259751   7.494  10.717   5.342 -1.0726 -1.4916 -0.1031
50325SOL     OW59752   3.860   8.055   4.232  0.1051 -0.4803  0.2105
50325SOL    HW159753   3.797   7.983   4.223 -1.2015  0.3406  1.9809
50325SOL    HW259754   3.923   8.023   4.297 -0.2136 -0.2169  0.6555
50326SOL     OW59755   2.377  11.253   4.091  0.2493  0.1572 -0.2049
50326SOL    HW159756   2.337  11.295   4.167  1.2014  0.6583  0.0448
50326SOL    HW259757   2.311  11.260   4.022 -0.2024  0.7051  0.2693
50327SOL     OW59758  11.254   0.393   4.605  0.2461  0.1084  0.4728
50327SOL    HW159759  11.197   0.330   4.651  0.5168  0.6759  1.6345
50327SOL    HW259760  11.204   0.474   4.603 -0.9497 -0.5900 -2.8427
50328SOL     OW59761   0.488   9.244   9.224 -0.2738  0.3415  0.0703
50328SOL    HW159762   0.531   9.285   9.148 -1.7558 -0.1709 -1.0951
50328SOL    HW259763   0.477   9.315   9.287  2.6389  0.4113  0.6387
50329SOL     OW59764   0.850  11.403   6.348  0.1250 -0.4238  0.4100
50329SOL    HW159765   0.911  11.329   6.346  1.2436  0.4608  0.9005
50329SOL    HW259766   0.897  11.473   6.302 -0.6480  0.1756  0.5251
50330SOL     OW59767   7.249   2.147   1.971  0.4074  0.0054 -0.4618
50330SOL    HW159768   7.161   2.179   1.991  0.4000 -0.9359  1.2772
50330SOL    HW259769   7.303   2.226   1.963 -0.1194  0.5439  1.0228
50331SOL     OW59770   7.990  11.107   4.013  0.2444 -0.4033  0.1309
50331SOL    HW159771   7.929  11.102   4.086 -0.1306 -1.8336 -0.2367
50331SOL    HW259772   8.076  11.090   4.053 -0.0607 -2.0942  0.1624
50332SOL     OW59773   7.188   3.076   6.744  0.0704 -0.0007  0.4255
50332SOL    HW159774   7.242   3.040   6.673 -0.4663  0.5341 -0.2701
50332SOL    HW259775   7.116   3.120   6.699  0.2916  1.2797  1.2696
50333SOL     OW59776   4.369  10.945  11.629  0.5621  0.4666  0.5354
50333SOL    HW159777   4.383  10.858  11.666 -0.3108  0.8279  1.7639
50333SOL    HW259778   4.450  10.963  11.580 -0.2911 -2.1886 -2.2258
50334SOL     OW59779  12.061  10.263   7.638  0.1485  0.0453 -0.2042
50334SOL    HW159780  12.083  10.339   7.583  0.5230 -0.2382 -0.4533
50334SOL    HW259781  12.107  10.190   7.597  1.2628 -0.0013  1.0514
50335SOL     OW59782   9.087   7.781  11.497  0.7054  0.2634  0.8868
50335SOL    HW159783   8.994   7.780  11.522 -0.1612  1.1359 -1.9774
50335SOL    HW259784   9.109   7.688  11.487  0.6934 -0.0490  3.1937
50336SOL     OW59785   6.705  11.761  10.701 -0.0381 -0.2361 -0.4665
50336SOL    HW159786   6.734  11.848  10.728 -2.0305  0.5296 -0.6131
50336SOL    HW259787   6.618  11.775  10.663 -0.9871 -2.4676  0.6967
50337SOL     OW59788   3.151   1.629   5.753 -0.2640  0.4055 -0.1455
50337SOL    HW159789   3.185   1.684   5.682 -0.0747  1.3821  0.6841
50337SOL    HW259790   3.078   1.678   5.789  0.0206  0.1996  0.7251
50338SOL     OW59791   9.650   1.828   7.957 -0.1481 -0.0424 -0.7385
50338SOL    HW159792   9.730   1.806   7.910  2.1238  1.8752  1.8668
50338SOL    HW259793   9.621   1.910   7.917 -0.5984 -0.5343 -1.4299
50339SOL     OW59794  10.245   5.836   3.577 -0.3048 -0.1198 -0.4286
50339SOL    HW159795  10.166   5.790   3.604  0.6976 -1.1849  0.8149
50339SOL    HW259796  10.288   5.861   3.659  0.8089  0.1462 -1.0656
50340SOL     OW59797   4.638  10.423   0.470 -0.1371  0.1057 -0.2705
50340SOL    HW159798   4.599  10.420   0.558  1.3542  0.4287  0.4375
50340SOL    HW259799   4.564  10.431   0.411 -1.0956  3.2168  1.1376
50341SOL     OW59800  11.133   1.940   8.980 -0.3641 -0.1411 -0.1855
50341SOL    HW159801  11.182   1.942   8.898 -1.8426  1.5616 -1.1011
50341SOL    HW259802  11.049   1.900   8.956 -0.9917  0.8225  0.3548
50342SOL     OW59803   4.228  12.024  10.446  0.1126 -0.2050  0.1490
50342SOL    HW159804   4.312  12.046  10.487  0.1793 -0.3305  0.0806
50342SOL    HW259805   4.215  12.092  10.380  0.8110 -0.9248 -0.7600
50343SOL     OW59806  11.369   6.532   2.244 -0.4776  0.1851 -0.1771
50343SOL    HW159807  11.399   6.622   2.234  0.5236 -0.0479  0.5932
50343SOL    HW259808  11.348   6.523   2.337 -0.7957 -0.3074 -0.2913
50344SOL     OW59809  12.591   4.289   4.470 -0.6397  0.0385  0.0502
50344SOL    HW159810  12.604   4.344   4.547 -0.5493  1.0412 -0.6716
50344SOL    HW259811  12.679   4.279   4.433 -0.7592  0.0137 -0.2276
50345SOL     OW59812   3.266   6.940   9.690 -0.5476  0.0307 -0.3298
50345SOL    HW159813   3.320   7.001   9.741 -1.6397  0.3541  0.4797
50345SOL    HW259814   3.177   6.975   9.697 -1.5183 -2.4655  1.5764
50346SOL     OW59815   5.672  12.560   3.005  0.1605 -0.3336  0.4869
50346SOL    HW159816   5.715  12.622   3.063 -4.7930  4.5085 -0.2156
50346SOL    HW259817   5.725  12.561   2.925  1.9028  0.4278  1.5973
50347SOL     OW59818   4.362  12.213  11.748 -0.6346  0.5971  0.4018
50347SOL    HW159819   4.453  12.242  11.760 -0.4194 -0.0981  0.5177
50347SOL    HW259820   4.315  12.252  11.821 -0.4916  1.2243  0.1628
50348SOL     OW59821  10.745   1.449   6.249  0.6278  0.1694  0.2671
50348SOL    HW159822  10.692   1.528   6.245 -0.6742 -0.6215  0.9613
50348SOL    HW259823  10.791   1.455   6.333  0.4176  0.1422  0.3869
50349SOL     OW59824   9.919   3.625   9.003 -0.1210  0.0216  0.8848
50349SOL    HW159825  10.013   3.643   9.013 -0.1265 -0.5485  2.1182
50349SOL    HW259826   9.878   3.672   9.075 -0.8325  0.5415  0.1499
50350SOL     OW59827   5.814  10.229   1.672 -0.7849 -0.2372  0.3091
50350SOL    HW159828   5.780  10.312   1.707 -2.1641 -1.5255  2.2515
50350SOL    HW259829   5.908  10.242   1.666 -1.1133  2.0050 -1.0323
50351SOL     OW59830   5.121   4.731  10.186 -0.3296 -0.6938 -0.9769
50351SOL    HW159831   5.082   4.742  10.273  1.0102 -2.3304 -0.0954
50351SOL    HW259832   5.052   4.692  10.133 -1.2638  0.6254 -0.7656
50352SOL     OW59833   5.849   4.215   7.866 -0.4906 -0.5216  0.0246
50352SOL    HW159834   5.843   4.271   7.944 -0.8031 -0.3844 -0.0965
50352SOL    HW259835   5.939   4.183   7.867 -0.5332 -0.6341  0.5197
50353SOL     OW59836   9.459   3.760   4.425  0.2917  0.3056 -0.1420
50353SOL    HW159837   9.542   3.777   4.381  0.0756  0.4109 -0.5224
50353SOL    HW259838   9.414   3.697   4.368 -0.3234  1.0426 -0.4978
50354SOL     OW59839   2.947   2.474   0.641 -0.6300  0.1601 -0.2212
50354SOL    HW159840   2.974   2.389   0.607 -0.9929 -0.2978  0.5985
50354SOL    HW259841   3.026   2.510   0.680 -0.6195 -0.0972  0.0028
50355SOL     OW59842   3.978   6.958   5.852 -0.1017 -0.2224 -0.3603
50355SOL    HW159843   3.970   6.985   5.760  2.0636  0.8020 -0.3199
50355SOL    HW259844   3.896   6.986   5.892 -0.1862  1.3630 -1.5307
50356SOL     OW59845   4.471   8.879   0.860 -0.0100 -0.3829  0.7056
50356SOL    HW159846   4.403   8.811   0.863 -0.5662  0.1823  1.1577
50356SOL    HW259847   4.494   8.894   0.952  0.6379 -0.4743  0.5637
50357SOL     OW59848   9.810   1.375   7.222  0.1744  0.1685 -0.4318
50357SOL    HW159849   9.824   1.409   7.134 -1.3928  2.2175  0.0082
50357SOL    HW259850   9.828   1.450   7.279  0.1465 -0.8193  0.9232
50358SOL     OW59851   3.875   5.771   7.737  0.7204 -0.1112 -0.1893
50358SOL    HW159852   3.817   5.828   7.687 -1.6752 -1.8987  0.3751
50358SOL    HW259853   3.875   5.689   7.689 -0.7140 -1.4984  1.9982
50359SOL     OW59854   8.722   0.233   3.042  0.4592 -0.3658 -0.0414
50359SOL    HW159855   8.645   0.178   3.052 -0.4635  0.8644 -0.1901
50359SOL    HW259856   8.735   0.240   2.947 -0.0700  0.5347 -0.0518
50360SOL     OW59857   8.302   9.453  10.216 -0.3887  0.5170 -0.6165
50360SOL    HW159858   8.371   9.434  10.152 -0.5644  0.2484 -0.7277
50360SOL    HW259859   8.348   9.490  10.291 -0.2409  1.4170 -1.1394
50361SOL     OW59860   3.289   6.529   8.815  0.2224  0.0438  0.1065
50361SOL    HW159861   3.289   6.551   8.722 -0.9957 -1.1213 -0.2072
50361SOL    HW259862   3.322   6.608   8.858  1.1907  0.4700 -1.3236
50362SOL     OW59863   0.943   0.656   6.066 -0.5916  0.6797 -0.2794
50362SOL    HW159864   0.983   0.743   6.069  2.6993 -0.6209 -1.4303
50362SOL    HW259865   0.990   0.606   6.133 -1.6145 -0.5059 -0.4079
50363SOL     OW59866   6.333   8.346   7.926  0.4500 -0.7114 -0.5706
50363SOL    HW159867   6.345   8.440   7.942  0.1777 -0.6198 -0.8959
50363SOL    HW259868   6.238   8.334   7.927  0.4398 -0.7760 -1.6906
50364SOL     OW59869   5.660   7.487   1.102  0.5686  0.0839 -0.5235
50364SOL    HW159870   5.731   7.551   1.095  1.4888 -0.9786 -1.5206
50364SOL    HW259871   5.585   7.530   1.061  0.9646  0.7992 -0.5131
50365SOL     OW59872   5.605   8.603   4.673 -0.5096 -0.2368  0.3716
50365SOL    HW159873   5.612   8.584   4.579  0.1772  2.7148 -0.2974
50365SOL    HW259874   5.676   8.553   4.713  2.2583  1.8969 -1.4388
50366SOL     OW59875   7.919   9.818   2.955 -0.4663  0.4620  0.0591
50366SOL    HW159876   7.955   9.854   3.036  0.1322 -1.4937  0.7110
50366SOL    HW259877   7.990   9.828   2.891 -1.0182  2.2154 -0.3423
50367SOL     OW59878   9.991  10.701   2.502 -0.0804  0.0434  0.0795
50367SOL    HW159879  10.081  10.682   2.530  0.1897 -3.0599 -2.2938
50367SOL    HW259880   9.936  10.653   2.564 -0.0430  0.7224  0.6494
50368SOL     OW59881   2.634  12.277   5.080 -0.1217  0.5042  0.2732
50368SOL    HW159882   2.721  12.240   5.092 -0.8401 -2.0590 -1.6548
50368SOL    HW259883   2.574  12.207   5.105 -1.5797  1.0811 -1.3663
50369SOL     OW59884   2.462   1.478   6.309 -0.1555 -0.4679 -0.4532
50369SOL    HW159885   2.528   1.532   6.265 -0.3433 -0.6215 -0.9300
50369SOL    HW259886   2.381   1.528   6.302 -0.0263 -0.1181  0.4418
50370SOL     OW59887   8.225   2.387   5.365  0.6174 -1.0090 -0.2336
50370SOL    HW159888   8.238   2.481   5.377 -1.5812 -0.7685  0.9284
50370SOL    HW259889   8.134   2.379   5.337  0.4556 -2.8441  0.6743
50371SOL     OW59890  10.185   5.063   4.637 -0.0311 -0.0108 -1.2459
50371SOL    HW159891  10.177   5.152   4.673 -1.8601  0.2113 -2.0878
50371SOL    HW259892  10.267   5.030   4.673  0.0693  1.5630  0.0885
50372SOL     OW59893   1.701   6.254   2.073  0.4524  0.8938 -0.0477
50372SOL    HW159894   1.761   6.273   2.145  0.7454  0.4951 -0.1826
50372SOL    HW259895   1.738   6.300   1.998  1.5325 -0.6779 -0.5379
50373SOL     OW59896  12.234   0.404   2.554  0.3889  0.4287  0.0141
50373SOL    HW159897  12.259   0.472   2.491  1.5120 -0.8599 -0.9921
50373SOL    HW259898  12.317   0.375   2.592  0.3784 -2.5788 -1.9501
50374SOL     OW59899   0.713  10.713   3.377  0.3927  0.0248 -0.0878
50374SOL    HW159900   0.751  10.656   3.443 -1.3898  0.2386  1.1844
50374SOL    HW259901   0.734  10.671   3.294  0.4946 -1.6294  0.7476
50375SOL     OW59902   7.575   4.766  11.346  0.6693 -0.1308 -0.0257
50375SOL    HW159903   7.545   4.682  11.382 -0.7320 -0.4063 -1.7215
50375SOL    HW259904   7.625   4.742  11.268  2.0685  0.5404  0.6351
50376SOL     OW59905   0.260  10.484  10.439  0.2724 -0.1615  0.0996
50376SOL    HW159906   0.291  10.408  10.488  0.4540 -0.4203 -0.3980
50376SOL    HW259907   0.262  10.556  10.501 -1.6143 -0.9008  1.0947
50377SOL     OW59908   7.233   3.899   3.399  0.0176 -0.4714  0.8449
50377SOL    HW159909   7.142   3.871   3.393  0.1325 -0.6069 -0.7171
50377SOL    HW259910   7.282   3.828   3.357  0.9427 -0.7653  2.3364
50378SOL     OW59911   7.461  12.510   4.574  0.0298 -0.8564  0.3743
50378SOL    HW159912   7.444  12.419   4.599 -1.7351 -0.3437  1.2024
50378SOL    HW259913   7.376  12.554   4.585  0.6140  0.6955 -0.9234
50379SOL     OW59914   4.361   7.512   3.976 -0.6197 -0.4321  0.1271
50379SOL    HW159915   4.438   7.470   4.013  1.0493  0.8146 -1.7530
50379SOL    HW259916   4.348   7.469   3.891 -1.0360  0.4297 -0.2613
50380SOL     OW59917   4.916   4.648   9.026  0.6688 -0.3060  0.0644
50380SOL    HW159918   4.898   4.556   9.048  2.0941 -0.3756  1.0466
50380SOL    HW259919   4.999   4.667   9.069  1.1687  1.0061 -1.4201
50381SOL     OW59920   3.227  10.930  10.033  0.1863  0.1854 -0.0001
50381SOL    HW159921   3.318  10.954  10.047  0.7574 -1.4379 -0.6364
50381SOL    HW259922   3.204  10.969   9.949 -0.0007  1.3300  0.5681
50382SOL     OW59923   3.999   8.942   3.248 -0.1319  0.2741 -0.2025
50382SOL    HW159924   4.092   8.941   3.225  0.0613  1.8424  0.4553
50382SOL    HW259925   3.997   8.945   3.343 -0.8993 -1.3571 -0.1275
50383SOL     OW59926   5.210  10.075   4.186 -0.3223 -0.0726  0.0296
50383SOL    HW159927   5.187  10.056   4.096 -3.0351  1.3387  0.3119
50383SOL    HW259928   5.195  10.169   4.195  1.9407  0.2431  1.4601
50384SOL     OW59929   2.876   1.080   9.307 -0.2599 -0.0597  0.7538
50384SOL    HW159930   2.926   1.106   9.230  0.0353 -0.3788  0.8341
50384SOL    HW259931   2.808   1.147   9.315 -1.4288 -0.9856 -0.8361
50385SOL     OW59932   6.692   2.562   4.152  0.3282 -0.2106 -0.3675
50385SOL    HW159933   6.678   2.634   4.213  0.1965 -0.1124 -0.5106
50385SOL    HW259934   6.662   2.484   4.199 -2.9270  0.2315 -1.4217
50386SOL     OW59935   5.261   9.100   7.475  0.3939 -0.1815  0.8421
50386SOL    HW159936   5.327   9.133   7.415  0.3072  0.3143  1.0127
50386SOL    HW259937   5.310   9.056   7.544  0.4501 -1.9921 -0.2869
50387SOL     OW59938  11.547   4.583  12.159 -0.0029  0.5872 -0.1701
50387SOL    HW159939  11.611   4.516  12.184  0.5922  0.4259 -1.9721
50387SOL    HW259940  11.490   4.592  12.235  0.3677 -1.4187  0.3913
50388SOL     OW59941  10.868   3.413  10.603 -0.0450 -0.2276  0.2395
50388SOL    HW159942  10.907   3.325  10.608 -0.5282 -0.5439 -1.0161
50388SOL    HW259943  10.852   3.426  10.509  1.8091  2.0059  0.1601
50389SOL     OW59944   2.930   5.962   6.288  0.6981  0.5177  0.0402
50389SOL    HW159945   2.961   5.969   6.198 -1.8466 -0.7229 -1.0396
50389SOL    HW259946   2.914   5.868   6.301  1.9638  0.5213  2.1926
50390SOL     OW59947   6.768   7.509   4.932 -0.1489  0.1304 -0.8180
50390SOL    HW159948   6.836   7.574   4.949 -1.4820  1.4659 -0.3220
50390SOL    HW259949   6.781   7.442   4.999  0.7637  0.2689 -0.8449
50391SOL     OW59950   1.601  10.592   8.605 -0.2495  0.0297 -0.1433
50391SOL    HW159951   1.623  10.625   8.692 -1.6664  0.5557  0.0474
50391SOL    HW259952   1.673  10.533   8.582  0.5606  0.5369  1.0199
50392SOL     OW59953   5.780   8.569  10.710  0.0417 -0.5036  0.0037
50392SOL    HW159954   5.875   8.582  10.711  0.0596 -0.3340 -1.8904
50392SOL    HW259955   5.744   8.655  10.732  0.2733 -1.0990  3.2542
50393SOL     OW59956   4.143   3.792   6.512  0.3003 -0.6111 -0.0807
50393SOL    HW159957   4.209   3.773   6.578  1.0547 -0.9702 -0.9206
50393SOL    HW259958   4.172   3.873   6.471  0.3845 -0.9204 -0.6461
50394SOL     OW59959   1.608  11.990   3.250  0.2114 -0.5785 -0.0893
50394SOL    HW159960   1.545  12.047   3.293  0.0110  0.1538 -1.3105
50394SOL    HW259961   1.591  12.001   3.156  1.5900 -1.0003 -0.4186
50395SOL     OW59962  10.565  12.534   0.944  0.3079 -0.6947  0.2513
50395SOL    HW159963  10.622  12.478   0.996  2.0054  1.7943  1.2750
50395SOL    HW259964  10.548  12.610   1.000  0.7652  1.3088 -2.1562
50396SOL     OW59965  11.851   3.699   7.871 -0.2864  0.0543  0.1711
50396SOL    HW159966  11.944   3.678   7.872  0.4619  2.8801 -1.2790
50396SOL    HW259967  11.808   3.619   7.902  2.7097 -0.5689  3.2130
50397SOL     OW59968   8.590   1.404   2.377  0.3103 -0.2103 -0.1021
50397SOL    HW159969   8.524   1.464   2.410  1.2069  1.0045 -0.4562
50397SOL    HW259970   8.545   1.355   2.308 -0.0036  1.2522 -0.9896
50398SOL     OW59971   6.899   0.776   8.903 -0.3822 -0.3442  0.1536
50398SOL    HW159972   6.838   0.710   8.937  0.1180 -0.8825  0.0287
50398SOL    HW259973   6.871   0.790   8.813  0.1143 -1.1487 -0.1458
50399SOL     OW59974  12.271   3.907   1.229 -0.4517 -0.3172  0.6491
50399SOL    HW159975  12.310   3.952   1.154  0.1933  0.4050  1.3972
50399SOL    HW259976  12.178   3.931   1.225 -0.1337  1.0521  0.9872
50400SOL     OW59977   7.265   9.542   4.243  0.0453 -0.2292 -0.2294
50400SOL    HW159978   7.184   9.503   4.276 -0.4163 -0.3676 -1.4478
50400SOL    HW259979   7.238   9.589   4.164  0.9547  0.7862  0.0380
50401SOL     OW59980   9.331   2.165   2.382  0.1836 -0.0082  0.1229
50401SOL    HW159981   9.334   2.133   2.472 -0.2409 -1.0717 -0.2276
50401SOL    HW259982   9.284   2.097   2.334 -0.6633  1.0936 -0.6789
50402SOL     OW59983   5.062   6.349  11.260  0.2722 -0.1971  0.6011
50402SOL    HW159984   5.013   6.420  11.301 -1.3412  0.5564 -2.3165
50402SOL    HW259985   5.126   6.394  11.204  0.4407 -1.0773  0.0688
50403SOL     OW59986   3.424   3.540   4.863  0.2101 -0.0042  0.3445
50403SOL    HW159987   3.437   3.525   4.770  1.5842 -3.2421  0.9219
50403SOL    HW259988   3.335   3.574   4.870  0.4618  1.3677 -2.1717
50404SOL     OW59989   0.396   3.166   9.307 -0.3387 -0.0611  0.0033
50404SOL    HW159990   0.448   3.165   9.387 -0.6872 -0.7040  0.2307
50404SOL    HW259991   0.460   3.151   9.237 -0.1321 -0.2711  0.2324
50405SOL     OW59992   1.142  11.062   5.264  0.3111  0.1296 -0.2145
50405SOL    HW159993   1.081  10.997   5.299 -0.4165  0.9945  0.1403
50405SOL    HW259994   1.097  11.146   5.273  0.3017  0.4846 -2.6991
50406SOL     OW59995   2.816   8.711   0.312 -0.2706  0.1515  0.4365
50406SOL    HW159996   2.772   8.780   0.362 -0.8765 -1.7938  2.7811
50406SOL    HW259997   2.803   8.632   0.364 -0.0521 -1.8784 -2.3820
50407SOL     OW59998   1.133  11.778   7.996 -0.0514 -0.1439  0.3491
50407SOL    HW159999   1.046  11.758   7.961 -0.4559 -0.8631  1.6804
50407SOL    HW260000   1.126  11.760   8.090  1.3820  0.3382  0.5816
50408SOL     OW60001  10.860   2.327  10.067 -0.4971  0.0811 -0.2131
50408SOL    HW160002  10.937   2.278  10.097 -1.7647 -2.9919 -1.5855
50408SOL    HW260003  10.785   2.277  10.099 -1.9250  1.2581 -1.5366
50409SOL     OW60004   5.989   6.272   9.116 -0.1402  0.1440  0.1344
50409SOL    HW160005   5.995   6.276   9.021 -0.5719  0.4870  0.1168
50409SOL    HW260006   5.913   6.217   9.134 -0.8686  1.1456  0.2523
50410SOL     OW60007   3.868   9.105   1.625 -0.1121  0.2155  0.6717
50410SOL    HW160008   3.815   9.086   1.547 -0.8712  0.8909  1.0067
50410SOL    HW260009   3.938   9.161   1.593 -0.7758  1.0058  0.5649
50411SOL     OW60010  11.755   5.890  12.192  0.0664 -0.5766 -0.0198
50411SOL    HW160011  11.754   5.807  12.239  1.4550 -0.4940  0.1934
50411SOL    HW260012  11.848   5.908  12.176  0.0881  2.3057  2.4275
50412SOL     OW60013   8.689   5.288   7.841  0.2677  0.5261  0.1290
50412SOL    HW160014   8.643   5.360   7.886  2.3109  1.0752  1.4864
50412SOL    HW260015   8.644   5.209   7.872 -1.2899  1.1287 -0.4958
50413SOL     OW60016   4.933   5.291   9.078 -0.3717 -0.2493 -0.3032
50413SOL    HW160017   4.929   5.378   9.117 -1.0895 -0.4859  0.1724
50413SOL    HW260018   4.879   5.298   8.999 -0.3395 -0.2353 -0.3246
50414SOL     OW60019  12.156  10.894  11.918 -0.0962 -0.1742 -0.7432
50414SOL    HW160020  12.102  10.937  11.985 -1.1094  0.7936 -2.1233
50414SOL    HW260021  12.219  10.842  11.968  0.5693  2.1416  0.9988
50415SOL     OW60022   9.211   9.046   1.757  0.1038 -0.2083 -0.1801
50415SOL    HW160023   9.299   9.041   1.793 -0.1861 -3.3898  0.3550
50415SOL    HW260024   9.153   9.037   1.833 -0.6096 -1.0763 -0.8060
50416SOL     OW60025   4.716   2.004  12.031  0.1455  0.0698  0.1723
50416SOL    HW160026   4.634   1.956  12.024  0.1564  0.0288  0.3222
50416SOL    HW260027   4.734   2.034  11.941  0.1675 -0.2457  0.0734
50417SOL     OW60028   1.697   4.455  11.402  0.1015  0.1834 -0.4231
50417SOL    HW160029   1.726   4.365  11.388  2.1818  0.5842  0.8897
50417SOL    HW260030   1.769   4.497  11.449 -1.6424  1.9693  0.8649
50418SOL     OW60031   9.729   8.634   1.437 -0.0514 -0.0575  0.3854
50418SOL    HW160032   9.752   8.702   1.374 -1.4402 -0.3964 -0.5133
50418SOL    HW260033   9.680   8.569   1.387 -1.0185 -0.4431  1.7558
50419SOL     OW60034  11.808   8.284  12.146 -0.0781  0.1697  0.3424
50419SOL    HW160035  11.832   8.371  12.180 -0.0607 -0.1262  1.1073
50419SOL    HW260036  11.739   8.253  12.205 -0.0769 -0.3409  0.0808
50420SOL     OW60037   2.701   9.590   3.715 -0.3253 -0.1024 -0.2179
50420SOL    HW160038   2.661   9.516   3.670  0.4854 -1.0769  0.6183
50420SOL    HW260039   2.792   9.590   3.686 -0.0950 -0.0059  0.4716
50421SOL     OW60040   7.709   2.684   5.709  1.2456 -0.4527 -0.0130
50421SOL    HW160041   7.652   2.678   5.786  0.6212 -0.9755 -0.5113
50421SOL    HW260042   7.703   2.598   5.667 -0.9418  0.7312 -2.3992
50422SOL     OW60043   7.896  10.403  12.394 -0.5256  0.7430  0.8958
50422SOL    HW160044   7.948  10.428  12.318 -0.9879  0.1492  0.3730
50422SOL    HW260045   7.955  10.413  12.469 -0.5605  3.0124  0.6897
50423SOL     OW60046   1.522  11.871   6.441  0.2160  0.1666 -0.0509
50423SOL    HW160047   1.558  11.787   6.469  1.4219  0.5056 -0.5354
50423SOL    HW260048   1.521  11.867   6.346 -0.6817  0.3226 -0.0583
50424SOL     OW60049   8.194  11.216  12.566 -0.5395 -0.0683 -0.2221
50424SOL    HW160050   8.154  11.171  12.640  1.4197 -0.5484  0.6081
50424SOL    HW260051   8.120  11.257  12.520 -1.9728 -1.0972  1.0608
50425SOL     OW60052   7.836   2.923   6.127  0.4479  0.3308 -0.5837
50425SOL    HW160053   7.915   2.925   6.180  0.6979 -3.4918 -0.5708
50425SOL    HW260054   7.780   2.858   6.169 -1.7713  1.2970 -1.8558
50426SOL     OW60055   3.157  11.659   0.809  0.3435 -0.1834  0.3299
50426SOL    HW160056   3.115  11.582   0.771 -1.3809  0.1912  1.3812
50426SOL    HW260057   3.220  11.687   0.743 -0.3587 -1.3661 -0.8847
50427SOL     OW60058   8.858   2.228   4.682 -0.3548  0.3038  0.8437
50427SOL    HW160059   8.898   2.292   4.622 -1.3240  0.3668  0.2373
50427SOL    HW260060   8.885   2.143   4.648 -0.9689  0.3370  0.2422
50428SOL     OW60061   6.088   3.698   5.656 -0.3881  0.7685  1.1479
50428SOL    HW160062   6.067   3.769   5.716 -0.2746  0.6319  1.3504
50428SOL    HW260063   6.012   3.640   5.660 -0.2773  0.6344  1.3474
50429SOL     OW60064   4.593   7.608   1.273 -0.9786 -0.5249  0.5224
50429SOL    HW160065   4.593   7.512   1.268  2.2213 -0.5569 -1.2369
50429SOL    HW260066   4.568   7.637   1.186  0.2258  0.1666  0.3861
50430SOL     OW60067   5.742  11.733   5.017  0.4664 -0.3484  0.0161
50430SOL    HW160068   5.650  11.711   4.999 -0.4757  1.4500  2.1060
50430SOL    HW260069   5.766  11.795   4.948 -0.2082 -0.1386 -0.0427
50431SOL     OW60070   8.599   4.841   3.888 -0.7117  0.2110  0.1135
50431SOL    HW160071   8.689   4.873   3.889 -0.1729 -1.1585  2.2399
50431SOL    HW260072   8.596   4.777   3.959 -2.7918 -1.4004 -1.3100
50432SOL     OW60073   8.147   1.097  10.136  0.2541  0.3512 -0.2576
50432SOL    HW160074   8.133   1.017  10.186 -1.4671  0.9038  0.2505
50432SOL    HW260075   8.240   1.115  10.144  0.8820 -2.1162 -1.2250
50433SOL     OW60076  11.718  11.764  11.881  0.2229 -0.7497 -0.1019
50433SOL    HW160077  11.789  11.704  11.905  0.6690 -0.8725 -1.6593
50433SOL    HW260078  11.763  11.842  11.848 -0.3203 -1.1253 -1.8358
50434SOL     OW60079   0.321   4.506   5.963  0.1166 -0.4768 -0.2148
50434SOL    HW160080   0.317   4.449   6.040 -0.4469  0.7628  0.7064
50434SOL    HW260081   0.341   4.447   5.890  0.5469 -1.6970  0.8571
50435SOL     OW60082   2.018   4.259   8.098 -0.1388  0.1050  0.0114
50435SOL    HW160083   2.006   4.210   8.179  0.4670  1.4519  0.9480
50435SOL    HW260084   2.112   4.275   8.093 -0.3169  1.1730 -0.2458
50436SOL     OW60085   2.398   0.766   2.978 -0.1512 -0.2994  0.1151
50436SOL    HW160086   2.470   0.720   2.936 -1.0422 -0.7494 -0.9646
50436SOL    HW260087   2.319   0.723   2.945 -1.0184  1.7183 -0.6510
50437SOL     OW60088   0.572   2.492   5.443 -0.1568  0.2116 -0.4169
50437SOL    HW160089   0.527   2.572   5.417 -1.7959 -0.1433  1.1560
50437SOL    HW260090   0.523   2.422   5.401  0.7039 -0.0475 -1.0257
50438SOL     OW60091  12.283   8.251   1.589 -0.2678  0.1800  0.0190
50438SOL    HW160092  12.208   8.242   1.648 -1.1122 -2.9374 -1.3546
50438SOL    HW260093  12.335   8.172   1.602  1.2678  0.9288 -1.1374
50439SOL     OW60094   2.173   6.192   5.463 -0.2338  0.0807  0.9706
50439SOL    HW160095   2.121   6.138   5.404 -0.7928  1.0564  0.5508
50439SOL    HW260096   2.255   6.144   5.473 -0.1991 -0.2080 -0.4499
50440SOL     OW60097   0.578   4.422   0.068  0.1066 -0.3361 -0.4698
50440SOL    HW160098   0.494   4.381   0.086  0.7430 -1.1766  0.6935
50440SOL    HW260099   0.557   4.495   0.009 -1.2995 -1.0865 -0.9464
50441SOL     OW60100   9.924  11.057   4.494 -0.6180  0.6491 -0.0805
50441SOL    HW160101  10.013  11.072   4.464 -0.3685 -0.8643 -0.1927
50441SOL    HW260102   9.928  11.069   4.589 -0.3053  0.6107 -0.0895
50442SOL     OW60103   6.339  11.476   5.410  0.0160 -0.4392 -0.0529
50442SOL    HW160104   6.288  11.420   5.468  0.7070  0.0757  1.1134
50442SOL    HW260105   6.345  11.428   5.328  0.3902 -1.9653  0.8302
50443SOL     OW60106   1.940   7.589   6.187  0.0055 -0.6150 -0.0115
50443SOL    HW160107   1.864   7.577   6.130 -0.4881  1.3725  0.1312
50443SOL    HW260108   2.012   7.608   6.127 -0.3741  0.8182 -0.0659
50444SOL     OW60109   0.485   8.707   8.223 -0.0578 -0.8299 -0.1877
50444SOL    HW160110   0.571   8.717   8.181  0.1669  2.1334  0.7614
50444SOL    HW260111   0.498   8.640   8.289  1.3875 -0.7892 -0.3959
50445SOL     OW60112   3.715  12.434   0.659  0.3369  0.0060 -0.3855
50445SOL    HW160113   3.730  12.368   0.591  0.4009 -1.8842  1.3580
50445SOL    HW260114   3.630  12.472   0.637  0.3756 -0.5102 -1.5233
50446SOL     OW60115  12.317  11.352   3.587 -0.0649 -0.1074 -0.9391
50446SOL    HW160116  12.312  11.362   3.682 -0.5479  1.2310 -1.0739
50446SOL    HW260117  12.351  11.264   3.573  0.1521 -0.2656  0.4747
50447SOL     OW60118  10.525   2.913   6.312 -0.9811  0.2871  0.1928
50447SOL    HW160119  10.600   2.956   6.272 -1.1436  0.5476  0.1678
50447SOL    HW260120  10.560   2.832   6.348 -0.5372  0.7448  0.8128
50448SOL     OW60121   4.816   0.356   4.345 -0.8061 -0.2093 -0.1558
50448SOL    HW160122   4.870   0.280   4.367  0.4528  0.2120 -1.6380
50448SOL    HW260123   4.799   0.398   4.430 -0.4049 -1.3964  0.5411
50449SOL     OW60124   7.398   2.242   7.154 -0.0878 -0.4188  0.4184
50449SOL    HW160125   7.307   2.225   7.129 -0.0306  0.6026 -0.5686
50449SOL    HW260126   7.424   2.316   7.100  1.4586 -0.9203  0.4392
50450SOL     OW60127   8.399   7.671   3.072 -0.4809  0.1626  0.4028
50450SOL    HW160128   8.377   7.697   3.161 -2.5436  1.2366 -0.3500
50450SOL    HW260129   8.411   7.754   3.026 -1.2786 -0.3189 -0.7155
50451SOL     OW60130   9.917   0.125   2.344 -0.3074  0.0014 -0.0155
50451SOL    HW160131   9.931   0.039   2.384  0.7743 -0.6227 -1.6570
50451SOL    HW260132   9.889   0.181   2.417  2.3588 -0.8551  1.7932
50452SOL     OW60133  10.706   6.418   1.038  0.6133  0.3028 -0.3683
50452SOL    HW160134  10.632   6.379   1.083 -0.2064  0.6775 -1.3580
50452SOL    HW260135  10.763   6.450   1.108  0.4814 -1.1398  0.4314
50453SOL     OW60136  12.179   6.100   0.272  0.0244 -0.1601 -0.0873
50453SOL    HW160137  12.176   6.087   0.367 -0.1780 -2.0588 -0.3164
50453SOL    HW260138  12.119   6.173   0.257 -1.6856 -1.2498  1.0510
50454SOL     OW60139   3.799   5.778  11.454  0.2277 -0.4939  0.0350
50454SOL    HW160140   3.783   5.823  11.537  1.7864 -0.4189  0.3115
50454SOL    HW260141   3.854   5.838  11.404 -0.5568 -0.6098 -1.0114
50455SOL     OW60142  11.514   4.316   1.867  0.0741  0.4136  0.3118
50455SOL    HW160143  11.572   4.242   1.884  0.0351  0.4368  0.5384
50455SOL    HW260144  11.441   4.278   1.818  0.0362  0.2972  0.4593
50456SOL     OW60145   7.173  12.020   5.132  0.2464 -0.1108  0.1729
50456SOL    HW160146   7.124  11.940   5.115  1.2947 -1.1073  1.6645
50456SOL    HW260147   7.247  11.992   5.185  0.6709  1.8460  0.6774
50457SOL     OW60148   9.756   7.103  10.657 -1.0601 -0.0087  0.2642
50457SOL    HW160149   9.687   7.066  10.602 -0.6521 -0.8742  0.3340
50457SOL    HW260150   9.827   7.040  10.654 -0.3617  0.7459  0.4213
50458SOL     OW60151   3.012  10.521   8.582 -0.7893 -0.1784  0.9305
50458SOL    HW160152   3.085  10.462   8.563 -1.0167 -0.1638  0.0074
50458SOL    HW260153   3.035  10.560   8.667  0.2444 -0.2178  0.6831
50459SOL     OW60154   4.437   8.006   1.353  0.0770 -0.1246 -0.3265
50459SOL    HW160155   4.474   8.093   1.344  1.2312 -0.6200 -0.6100
50459SOL    HW260156   4.352   8.020   1.395 -0.2241  1.2077 -1.3287
50460SOL     OW60157   9.566   4.076   2.833 -0.0483 -0.1298 -0.8148
50460SOL    HW160158   9.579   4.017   2.908  1.9065  1.7881  0.4986
50460SOL    HW260159   9.474   4.065   2.809 -0.3358 -1.9575  0.8671
50461SOL     OW60160  10.563   4.058   9.887  0.0388 -0.1042 -0.2901
50461SOL    HW160161  10.553   4.149   9.859  1.6616  0.7391  1.6084
50461SOL    HW260162  10.473   4.025   9.896 -0.5613  1.1710 -1.3998
50462SOL     OW60163   4.256   0.516   2.857  0.0145 -0.1497 -0.1233
50462SOL    HW160164   4.242   0.512   2.762 -0.4282  0.0762 -0.0706
50462SOL    HW260165   4.168   0.521   2.894  0.1030 -1.7118  0.3816
50463SOL     OW60166  10.261   4.439   3.255 -0.0921 -0.1559 -0.3411
50463SOL    HW160167  10.277   4.352   3.291  0.8013  0.6043  1.1834
50463SOL    HW260168  10.171   4.435   3.222 -0.3985 -1.3548  0.5729
50464SOL     OW60169   8.718   0.501   6.533 -0.1877 -0.3314 -0.2484
50464SOL    HW160170   8.797   0.548   6.560 -0.5744  0.2521 -0.1086
50464SOL    HW260171   8.677   0.474   6.615  0.5747 -1.8437 -0.3498
50465SOL     OW60172   8.541   9.204  12.380 -0.5280 -0.0769 -0.5451
50465SOL    HW160173   8.453   9.191  12.415 -0.1928 -0.2004  0.2778
50465SOL    HW260174   8.552   9.134  12.315 -0.2796 -1.3790  0.8463
50466SOL     OW60175  12.531   7.699   0.461 -0.3643 -0.3920  0.0963
50466SOL    HW160176  12.524   7.607   0.434 -1.2049 -0.1619 -0.4774
50466SOL    HW260177  12.494   7.701   0.549 -0.2198 -0.6203  0.1640
50467SOL     OW60178   5.500   4.353   7.106  0.0521  0.0882  0.1893
50467SOL    HW160179   5.570   4.291   7.126 -0.5505 -0.2233  1.4219
50467SOL    HW260180   5.525   4.433   7.153  1.4459  1.2703 -2.3396
50468SOL     OW60181   3.441   5.952   1.200 -0.2148 -0.2108  0.5478
50468SOL    HW160182   3.356   5.941   1.158 -0.9546  2.2070  1.2320
50468SOL    HW260183   3.504   5.942   1.129 -1.1095 -1.1268 -0.1414
50469SOL     OW60184   5.323  11.511  11.301  0.4044 -0.2382  0.4935
50469SOL    HW160185   5.279  11.499  11.385  0.4054  1.6914  0.8258
50469SOL    HW260186   5.272  11.579  11.257  2.9444  2.1109  0.8827
50470SOL     OW60187   9.419   2.947   0.380  0.3430 -0.1404  0.7898
50470SOL    HW160188   9.501   2.933   0.331  0.4347  0.1729  0.8501
50470SOL    HW260189   9.388   3.031   0.349  0.4371  0.0940  1.3243
50471SOL     OW60190   0.752   1.029  12.325  0.8511  0.0174 -0.3046
50471SOL    HW160191   0.755   1.090  12.251  0.7699  1.0169  0.4944
50471SOL    HW260192   0.684   0.965  12.302  0.6772  0.4484 -0.9931
50472SOL     OW60193   3.554   6.369   2.798 -0.6688 -0.0274 -0.0746
50472SOL    HW160194   3.495   6.301   2.765  0.7733 -3.0877  2.9790
50472SOL    HW260195   3.640   6.343   2.767 -0.2155  1.1244  0.1890
50473SOL     OW60196   5.612   3.097   1.076  0.6984  0.6936  0.6356
50473SOL    HW160197   5.542   3.145   1.119 -0.7854 -0.9703  0.2099
50473SOL    HW260198   5.580   3.081   0.988  0.5151 -2.0735  1.0975
50474SOL     OW60199   0.211   3.748   5.224 -0.1062  0.2664 -0.7343
50474SOL    HW160200   0.180   3.657   5.228  0.0330  0.2695  1.2684
50474SOL    HW260201   0.147   3.793   5.169 -2.1544 -0.3365  1.0402
50475SOL     OW60202   3.096   7.141   3.689  0.6905 -0.2002 -0.4345
50475SOL    HW160203   3.063   7.164   3.775  1.6141  0.2441 -0.1904
50475SOL    HW260204   3.044   7.193   3.628  0.0686 -0.4836 -0.1504
50476SOL     OW60205  10.591   6.519   7.076 -0.0880  0.6352  0.4551
50476SOL    HW160206  10.534   6.524   7.000  1.1593  1.2025 -0.4820
50476SOL    HW260207  10.593   6.426   7.099 -1.0535  0.5627  0.2533
50477SOL     OW60208   2.121  12.332   4.323 -0.0527  0.1949 -1.0517
50477SOL    HW160209   2.158  12.419   4.314  0.3075  0.2973  1.0989
50477SOL    HW260210   2.108  12.302   4.232  3.8863  0.7037 -1.9477
50478SOL     OW60211  11.616   3.587   0.424  0.3597  0.2033  0.2571
50478SOL    HW160212  11.684   3.561   0.362 -0.7346  0.4311 -1.0739
50478SOL    HW260213  11.585   3.672   0.394  1.0478  1.2199  2.2049
50479SOL     OW60214   3.258   2.217  10.290  0.4469 -0.5060  0.4002
50479SOL    HW160215   3.260   2.311  10.269 -0.7998 -0.3290  0.9651
50479SOL    HW260216   3.281   2.174  10.207 -0.4687  0.2739 -0.2903
50480SOL     OW60217  12.020   5.344   3.941 -0.0263 -0.1630 -0.2350
50480SOL    HW160218  12.042   5.374   4.029  0.0546 -0.6889 -0.0684
50480SOL    HW260219  12.104   5.332   3.897 -0.0606 -0.0435 -0.3344
50481SOL     OW60220   7.472  12.347   6.102 -0.0260  0.4357 -0.8060
50481SOL    HW160221   7.385  12.313   6.081 -0.1597  1.0070 -1.1956
50481SOL    HW260222   7.532  12.276   6.078 -0.4937 -0.7938  1.3807
50482SOL     OW60223   9.141   5.026   7.434  0.3774 -0.4581  0.4237
50482SOL    HW160224   9.089   4.947   7.422 -1.5041  0.7202  0.3449
50482SOL    HW260225   9.186   5.014   7.517  1.1073 -2.1070 -0.1822
50483SOL     OW60226   5.320   6.219   7.765 -0.0860  0.6264  1.0225
50483SOL    HW160227   5.307   6.263   7.849 -0.1071 -2.1596  2.6011
50483SOL    HW260228   5.237   6.174   7.748  0.5755 -0.4859  0.5930
50484SOL     OW60229  10.035  10.141   2.337  0.4442  0.8448 -0.1371
50484SOL    HW160230  10.052  10.126   2.244 -0.6837 -1.2920 -0.0652
50484SOL    HW260231   9.940  10.146   2.344  0.2118 -2.7548  1.2733
50485SOL     OW60232   7.217   4.120   1.382  0.0680 -0.4276  0.2179
50485SOL    HW160233   7.234   4.164   1.465  0.6753 -1.5542  0.7026
50485SOL    HW260234   7.121   4.119   1.375  0.0309  0.4684  0.4519
50486SOL     OW60235   1.063   3.901  12.229 -0.0155 -0.1554 -0.2101
50486SOL    HW160236   1.047   3.988  12.265  0.0310  0.9053 -2.5617
50486SOL    HW260237   1.024   3.841  12.293 -1.4571  1.6673  0.7106
50487SOL     OW60238  11.597   1.007   2.253  0.3335 -0.2041 -0.0497
50487SOL    HW160239  11.646   1.071   2.305 -0.1157 -1.3031  1.8122
50487SOL    HW260240  11.650   0.928   2.255  0.1951 -0.3400 -1.1165
50488SOL     OW60241   6.186  11.734   4.839 -0.3039  0.6119  0.0310
50488SOL    HW160242   6.278  11.751   4.818 -0.4619 -0.0110 -1.2890
50488SOL    HW260243   6.181  11.739   4.934  0.8558  1.8320  0.0515
50489SOL     OW60244   0.970   4.775   3.531 -0.1470 -0.1906  0.0138
50489SOL    HW160245   0.907   4.824   3.584 -3.1805 -4.4319  0.8149
50489SOL    HW260246   1.014   4.716   3.592 -0.7865 -2.3626 -1.4801
50490SOL     OW60247  11.549   5.540   3.139  0.1783  0.6459  0.1113
50490SOL    HW160248  11.553   5.487   3.059  2.0607 -1.0032  1.2154
50490SOL    HW260249  11.573   5.628   3.111 -0.6910  0.4359 -1.3806
50491SOL     OW60250  11.722   5.913  11.538 -0.3559 -0.4689 -0.0847
50491SOL    HW160251  11.674   5.881  11.462  1.5026  0.3226 -1.6679
50491SOL    HW260252  11.745   5.834  11.588 -0.9410 -1.0638 -0.7382
50492SOL     OW60253   9.841   3.342  10.594 -0.0963  0.1481  0.4889
50492SOL    HW160254   9.836   3.246  10.604 -1.8383  0.2059  0.5332
50492SOL    HW260255   9.790   3.359  10.515  1.7677  0.9085 -0.6010
50493SOL     OW60256  11.523  12.111   4.775 -0.0429  0.1503 -0.1505
50493SOL    HW160257  11.533  12.173   4.703  0.2162  0.5947  0.2586
50493SOL    HW260258  11.433  12.124   4.806  0.3851  1.1937  0.7083
50494SOL     OW60259   1.866  10.497   1.378  0.0091  0.0506  0.1279
50494SOL    HW160260   1.852  10.427   1.442 -0.3311 -2.2082 -2.2194
50494SOL    HW260261   1.778  10.530   1.359 -0.0523 -0.2522 -0.1368
50495SOL     OW60262   3.441   0.317   5.787  0.6746  0.4791 -0.0359
50495SOL    HW160263   3.424   0.355   5.701  1.7818  0.2544 -0.3742
50495SOL    HW260264   3.425   0.223   5.775 -0.3739  0.5922  0.3451
50496SOL     OW60265   7.590   4.097   2.191 -0.3947 -0.6640  0.3665
50496SOL    HW160266   7.532   4.159   2.236 -1.1355 -2.2476  1.6716
50496SOL    HW260267   7.545   4.013   2.198 -0.0738 -1.1587 -2.5780
50497SOL     OW60268   0.775   0.660  10.983 -0.0039 -0.0386 -0.1792
50497SOL    HW160269   0.812   0.725  11.043 -0.5755 -0.1570  0.3131
50497SOL    HW260270   0.704   0.620  11.033 -0.4524 -0.1752 -0.9239
50498SOL     OW60271  11.511   5.172   9.972 -0.0851  0.0195  0.0430
50498SOL    HW160272  11.605   5.178   9.988 -0.1544 -0.3601  0.5899
50498SOL    HW260273  11.493   5.244   9.911  0.5478  0.1214 -0.0330
50499SOL     OW60274   6.842   4.726  10.969 -0.2816  0.1730 -0.6986
50499SOL    HW160275   6.871   4.809  10.932 -0.8799  0.5340 -0.3658
50499SOL    HW260276   6.747   4.730  10.966 -0.4114  0.6606  1.8113
50500SOL     OW60277  11.101   0.449  11.929  0.3934  0.0228 -0.4630
50500SOL    HW160278  11.010   0.419  11.942 -0.0690  1.2612 -0.7301
50500SOL    HW260279  11.152   0.397  11.991 -0.5360 -0.4866 -0.0972
50501SOL     OW60280  12.149   0.029   5.772  0.1368 -0.0200 -0.2450
50501SOL    HW160281  12.155  -0.051   5.721 -0.7903 -0.1714 -0.1296
50501SOL    HW260282  12.161   0.001   5.863  2.5430  0.3419 -0.3706
50502SOL     OW60283  10.324   8.396   3.736  0.9630 -0.3277 -0.0805
50502SOL    HW160284  10.396   8.333   3.741  2.2837  1.1456  0.2539
50502SOL    HW260285  10.365   8.476   3.702 -1.0213 -0.1365 -2.2625
50503SOL     OW60286   2.885  12.322   3.901  0.2812 -0.5993  0.2915
50503SOL    HW160287   2.874  12.412   3.929 -0.4286 -0.6844  0.2901
50503SOL    HW260288   2.978  12.315   3.878  0.4984 -0.0763  1.0034
50504SOL     OW60289   3.167  11.253   2.705 -0.3465 -0.2075 -0.5134
50504SOL    HW160290   3.253  11.279   2.739 -0.3841 -0.0339 -0.5544
50504SOL    HW260291   3.114  11.332   2.710 -0.2794 -0.1172 -1.2229
50505SOL     OW60292   3.986   9.822   5.381  0.2719 -0.4564 -0.1865
50505SOL    HW160293   3.898   9.789   5.399 -0.0680 -0.0914 -1.1199
50505SOL    HW260294   4.025   9.756   5.324 -0.2351  0.4779 -1.6570
50506SOL     OW60295   9.425   9.929   5.193  0.1792 -0.0767 -0.0582
50506SOL    HW160296   9.341   9.973   5.180 -0.3994 -1.1786 -0.2019
50506SOL    HW260297   9.489  10.000   5.199 -0.9796  0.8649  1.9211
50507SOL     OW60298  11.335   1.083   5.527 -0.5139  0.1935 -0.5753
50507SOL    HW160299  11.267   1.063   5.462 -0.3741 -0.7470 -0.4408
50507SOL    HW260300  11.337   1.007   5.584  1.4395 -0.3131 -1.2413
50508SOL     OW60301   2.861   2.116   1.754 -0.0974 -0.0313 -0.5624
50508SOL    HW160302   2.866   2.034   1.704 -0.6368  0.7293 -1.9121
50508SOL    HW260303   2.791   2.166   1.711  0.1052  1.0782  0.3466
50509SOL     OW60304  11.759   0.095  10.646  0.4889 -0.1546 -0.7343
50509SOL    HW160305  11.746   0.004  10.620 -1.1246 -0.0649 -0.3285
50509SOL    HW260306  11.776   0.092  10.740 -2.7483  0.1114 -0.0238
50510SOL     OW60307   7.891   1.154   7.425 -0.1174 -0.2242  0.2061
50510SOL    HW160308   7.928   1.241   7.435 -1.1368  0.2466 -0.0473
50510SOL    HW260309   7.823   1.147   7.491 -0.9236 -0.3320 -0.6070
50511SOL     OW60310   0.272   2.818   3.831  0.4960 -0.2921 -0.1696
50511SOL    HW160311   0.210   2.890   3.843 -1.0698 -0.8771 -3.6740
50511SOL    HW260312   0.252   2.758   3.904 -3.8801 -0.8672 -1.5371
50512SOL     OW60313   8.255  10.036   0.279 -0.6524  0.2158  0.0866
50512SOL    HW160314   8.280  10.017   0.370 -0.4558 -2.4808 -0.4312
50512SOL    HW260315   8.322   9.994   0.226 -1.0290  1.3163 -1.3428
50513SOL     OW60316   8.494   7.234   5.038  0.0841 -0.3665  0.6894
50513SOL    HW160317   8.440   7.229   5.117 -1.5821 -0.8677 -0.4282
50513SOL    HW260318   8.575   7.188   5.061 -0.7042 -1.2393  1.8478
50514SOL     OW60319   1.325   4.931   2.097 -0.0332 -0.2266 -0.3529
50514SOL    HW160320   1.404   4.894   2.136 -0.6664 -0.1494  1.0532
50514SOL    HW260321   1.257   4.866   2.115 -0.9764  1.1670  1.4095
50515SOL     OW60322   1.094   7.893   3.161 -0.1471 -0.2201  0.3301
50515SOL    HW160323   1.066   7.984   3.150  2.8018  0.5648 -2.0163
50515SOL    HW260324   1.114   7.886   3.255 -0.4256  1.5323  0.5620
50516SOL     OW60325  10.437   2.065  11.416  0.4522 -0.1194 -0.0553
50516SOL    HW160326  10.349   2.041  11.389  0.0875  0.7521  0.3331
50516SOL    HW260327  10.490   1.988  11.394 -0.1924 -0.2341 -1.3153
50517SOL     OW60328   2.110   0.070   9.984  0.4080 -0.4509  0.0844
50517SOL    HW160329   2.114   0.156   9.942  0.0671 -0.0485  0.8478
50517SOL    HW260330   2.149   0.083  10.071 -0.6097 -0.7876  0.6192
50518SOL     OW60331   0.088   6.106  11.436  0.3494 -0.2174  0.0154
50518SOL    HW160332   0.026   6.162  11.390  0.8372 -0.4205 -0.8972
50518SOL    HW260333   0.162   6.096  11.376 -0.1650 -2.6809 -0.3047
50519SOL     OW60334   2.924   4.704   1.068  0.5218 -0.3353  0.6483
50519SOL    HW160335   2.977   4.641   1.117  0.0080 -0.6619  0.7915
50519SOL    HW260336   2.933   4.677   0.977  3.1990  1.5158  0.2346
50520SOL     OW60337   3.950   1.696   9.304 -0.1102  0.1637  0.1617
50520SOL    HW160338   3.952   1.700   9.400  1.8709 -1.5244  0.2726
50520SOL    HW260339   4.043   1.694   9.278 -0.5974  0.8709 -1.8188
50521SOL     OW60340   0.320   6.035   7.886  0.0817 -0.3976 -0.1325
50521SOL    HW160341   0.270   6.111   7.857 -0.1019 -1.1736 -2.0229
50521SOL    HW260342   0.376   6.013   7.812  1.4120 -1.0614  1.0267
50522SOL     OW60343   8.240   2.932   3.466 -0.0095  0.2731 -0.1041
50522SOL    HW160344   8.167   2.885   3.507  0.3330 -0.5536 -0.4099
50522SOL    HW260345   8.198   2.991   3.404 -0.3961 -1.4424 -1.5618
50523SOL     OW60346   6.241  12.576   0.008  0.4211 -0.2726 -0.1019
50523SOL    HW160347   6.323  12.556  -0.038  0.4717  0.5208 -0.3661
50523SOL    HW260348   6.173  12.556  -0.056  0.4531  0.0440 -0.2335
50524SOL     OW60349   6.503   1.692   4.140  0.0549 -0.1729 -0.3593
50524SOL    HW160350   6.539   1.778   4.163 -0.3600 -0.6217  2.2675
50524SOL    HW260351   6.580   1.637   4.124  0.4543 -0.0968  1.1810
50525SOL     OW60352   5.026   9.633   1.462 -0.3885  0.1146  1.4315
50525SOL    HW160353   5.022   9.633   1.366 -1.3860 -0.3591  1.4595
50525SOL    HW260354   5.118   9.615   1.482 -0.1666  0.2306  0.5618
50526SOL     OW60355   4.474   3.664   9.287  0.5126  0.0697 -0.2025
50526SOL    HW160356   4.429   3.720   9.224  1.4321 -0.3324 -1.2421
50526SOL    HW260357   4.407   3.641   9.351 -1.6058 -2.7652 -3.1378
50527SOL     OW60358   5.693   7.030   5.701  0.2045 -0.2621 -0.4977
50527SOL    HW160359   5.712   6.936   5.702 -1.9777 -0.7590 -0.7001
50527SOL    HW260360   5.743   7.065   5.774  1.3586 -1.4914 -0.6400
50528SOL     OW60361  10.563   7.034   0.994 -0.6334  0.4134  0.1000
50528SOL    HW160362  10.477   7.021   1.032 -0.9858  0.1634 -0.7638
50528SOL    HW260363  10.559   6.991   0.908 -0.4921  2.5570 -1.0539
50529SOL     OW60364   1.565  10.749  10.840  0.0939 -0.4681 -0.4614
50529SOL    HW160365   1.524  10.664  10.846  0.6977 -0.7967 -0.8748
50529SOL    HW260366   1.641  10.743  10.898 -0.2054 -0.0016 -0.0115
50530SOL     OW60367   6.002  11.119  11.444 -0.5954 -0.0572 -0.1498
50530SOL    HW160368   6.048  11.050  11.492 -0.6807  0.0971  0.1587
50530SOL    HW260369   6.057  11.196  11.455 -0.0978 -0.2553 -1.1571
50531SOL     OW60370   2.299   9.208   7.480 -0.4710  0.1079 -0.6715
50531SOL    HW160371   2.355   9.208   7.557 -0.8079  0.0039 -0.4235
50531SOL    HW260372   2.345   9.154   7.417 -0.2809  0.0422 -0.4761
50532SOL     OW60373  10.656   9.293  12.049  0.4202  0.3549 -0.2654
50532SOL    HW160374  10.670   9.272  11.957 -1.1634 -1.6640 -0.1207
50532SOL    HW260375  10.579   9.349  12.050  1.3391  1.6690 -0.2313
50533SOL     OW60376  12.246   4.830   1.582  0.6218 -0.6001 -0.1815
50533SOL    HW160377  12.172   4.828   1.643  1.7555 -1.0432  1.2303
50533SOL    HW260378  12.319   4.865   1.633  1.5519 -0.7080 -1.3806
50534SOL     OW60379   2.127   8.226   8.460 -0.9199 -0.3843  0.1112
50534SOL    HW160380   2.164   8.199   8.544 -1.7365 -2.0440 -0.0221
50534SOL    HW260381   2.108   8.319   8.471 -0.1771 -0.3635  1.4365
50535SOL     OW60382  10.621   0.060   6.994 -0.4176  0.1648 -0.2949
50535SOL    HW160383  10.633   0.153   7.014  0.0980  0.6182 -2.4694
50535SOL    HW260384  10.683   0.015   7.053 -0.1372  1.2413  0.2569
50536SOL     OW60385   1.190  10.725   8.292 -0.2250 -0.6870  0.4102
50536SOL    HW160386   1.151  10.813   8.289 -1.7775 -1.2545  1.9657
50536SOL    HW260387   1.240  10.725   8.374  0.6354 -0.9121 -0.1169
50537SOL     OW60388   5.078   5.053   4.343 -0.3655  0.0755  0.2457
50537SOL    HW160389   5.088   5.148   4.338 -0.8503  0.1138 -0.0623
50537SOL    HW260390   4.997   5.035   4.295 -0.8304 -0.3825  1.1633
50538SOL     OW60391   6.302   5.416   6.515  0.3083 -0.6253  0.0626
50538SOL    HW160392   6.385   5.447   6.478  0.7368 -0.6893  0.9276
50538SOL    HW260393   6.248   5.495   6.522 -0.2005 -0.7783 -1.6869
50539SOL     OW60394   8.786   2.947  10.031 -0.1670  0.4363  0.2110
50539SOL    HW160395   8.755   3.034  10.056  2.6284  0.9782  2.3289
50539SOL    HW260396   8.839   2.962   9.952 -2.7475 -0.0740 -1.7614
50540SOL     OW60397   4.850   3.321   3.785  0.2546  0.1454 -0.1531
50540SOL    HW160398   4.802   3.378   3.724  0.2211 -1.1380 -1.3663
50540SOL    HW260399   4.786   3.254   3.809  0.3081  0.5678  1.2418
50541SOL     OW60400  11.392   0.650   4.912 -0.2044 -0.4332 -0.0714
50541SOL    HW160401  11.440   0.651   4.829 -0.5546 -1.0084 -0.2857
50541SOL    HW260402  11.452   0.690   4.975  0.4608 -0.9347 -0.3859
50542SOL     OW60403  12.318   6.056   2.490  0.0493 -0.8827  0.6248
50542SOL    HW160404  12.259   5.989   2.455  2.2181 -2.5690 -0.0051
50542SOL    HW260405  12.406   6.025   2.469  1.2309  1.2830  1.9453
50543SOL     OW60406   7.745   4.780   5.042  0.0784  0.2052  0.0019
50543SOL    HW160407   7.783   4.821   5.119 -1.9133  0.2256  1.0552
50543SOL    HW260408   7.718   4.693   5.071  1.8683 -0.9334 -1.4972
50544SOL     OW60409   5.659   2.935   1.495  0.6957 -0.3855 -0.2141
50544SOL    HW160410   5.662   2.856   1.441  1.4319 -0.3821 -0.1889
50544SOL    HW260411   5.600   2.912   1.567 -1.0549 -0.0717 -1.4878
50545SOL     OW60412   5.110   8.303   3.521  0.3185  0.1234 -0.2012
50545SOL    HW160413   5.081   8.270   3.436  0.1556 -1.8947  0.5852
50545SOL    HW260414   5.201   8.328   3.508  0.6077 -1.1625 -0.7404
50546SOL     OW60415   6.437   7.719   3.202 -0.4530  0.4537  0.2378
50546SOL    HW160416   6.419   7.633   3.164 -0.0723  0.7690 -0.6876
50546SOL    HW260417   6.461   7.774   3.127  0.3852  1.0847  0.9485
50547SOL     OW60418  10.293   0.930   4.251 -0.0309  0.2986 -0.1684
50547SOL    HW160419  10.327   0.856   4.301  0.0234 -0.7356 -1.6694
50547SOL    HW260420  10.201   0.910   4.237 -0.3609  1.2053  0.5684
50548SOL     OW60421  12.329   0.573   4.585  0.3018  0.2005  0.5014
50548SOL    HW160422  12.314   0.533   4.500  0.5532  0.7644  0.1843
50548SOL    HW260423  12.296   0.509   4.648 -0.0776 -0.1302 -0.0260
50549SOL     OW60424  11.758  11.605   3.778  0.3147 -0.0072  0.2678
50549SOL    HW160425  11.695  11.672   3.754 -3.0234 -2.3129  1.8213
50549SOL    HW260426  11.828  11.614   3.713 -2.1730  1.9318 -2.4419
50550SOL     OW60427   8.481   4.710  10.128  0.7281 -0.3990  0.4166
50550SOL    HW160428   8.423   4.638  10.154 -1.0470  0.9441  0.3501
50550SOL    HW260429   8.569   4.675  10.140  0.2454 -4.6160 -4.7773
50551SOL     OW60430   4.290   2.564   9.268  0.0574  0.1237  0.1945
50551SOL    HW160431   4.240   2.484   9.284  0.5356 -0.2507 -0.1719
50551SOL    HW260432   4.381   2.539   9.281  0.4014  0.0809 -1.9354
50552SOL     OW60433   7.839   2.198   9.126  0.1138 -0.8088 -0.5831
50552SOL    HW160434   7.872   2.109   9.142  2.8390  0.2768  0.3658
50552SOL    HW260435   7.900   2.235   9.062 -1.5399  0.1193 -1.6861
50553SOL     OW60436  10.974   8.781  11.294  0.6221 -0.3751 -0.1945
50553SOL    HW160437  10.986   8.863  11.245  2.4539  0.3785  1.3924
50553SOL    HW260438  10.888   8.749  11.266 -0.7205  2.6895 -0.0034
50554SOL     OW60439   5.452   4.794   1.200 -0.0462 -0.2466  0.3142
50554SOL    HW160440   5.410   4.809   1.285 -0.5912  2.4240 -0.3192
50554SOL    HW260441   5.380   4.771   1.142 -0.0463  0.2413  0.1111
50555SOL     OW60442   0.392   9.806   6.537  0.3774 -0.2060 -0.5648
50555SOL    HW160443   0.473   9.794   6.487 -0.0003 -0.2291 -1.1786
50555SOL    HW260444   0.347   9.878   6.493  1.1532  1.4518  1.2045
50556SOL     OW60445   0.619   4.609   4.881  0.3689 -0.3116 -0.2239
50556SOL    HW160446   0.632   4.572   4.793 -2.6739 -1.5034 -0.3043
50556SOL    HW260447   0.580   4.695   4.865 -0.1910 -0.5306 -0.0736
50557SOL     OW60448   2.348   2.568   7.360  0.3087 -0.2637 -0.0146
50557SOL    HW160449   2.298   2.501   7.406  1.4037 -0.5112  0.8677
50557SOL    HW260450   2.402   2.520   7.297  2.0636 -0.3985  1.5140
50558SOL     OW60451   0.922   0.263   0.645  0.2224  0.8275 -0.0972
50558SOL    HW160452   0.938   0.181   0.598  0.3657  0.6352  0.2793
50558SOL    HW260453   0.952   0.332   0.586  1.0205  0.5558 -0.0261
50559SOL     OW60454   1.880  12.059   3.326 -0.8945  0.6311  0.2343
50559SOL    HW160455   1.937  12.110   3.268  1.1205 -1.4391  0.2382
50559SOL    HW260456   1.809  12.028   3.269  0.0965  0.0887 -0.7546
50560SOL     OW60457  10.084   0.109   0.554  0.6082 -0.4321  0.3499
50560SOL    HW160458  10.138   0.133   0.630  1.6942 -2.1841  0.1979
50560SOL    HW260459   9.997   0.141   0.575  1.1902  0.3503  1.7057
50561SOL     OW60460  11.152   8.628  11.603 -0.3749 -0.1395  0.4638
50561SOL    HW160461  11.171   8.540  11.636  0.6716 -1.1006 -2.3619
50561SOL    HW260462  11.237   8.673  11.605 -0.8043  0.6617  1.4054
50562SOL     OW60463   8.449   5.467   5.885 -0.3091 -0.3901  0.1459
50562SOL    HW160464   8.407   5.383   5.865  0.2823 -0.8131  0.6041
50562SOL    HW260465   8.495   5.450   5.968  0.1323  0.2773  0.0378
50563SOL     OW60466   6.323   1.649   6.101  0.2620  0.3968 -0.5370
50563SOL    HW160467   6.239   1.692   6.089  0.1331  0.3738  0.2607
50563SOL    HW260468   6.379   1.715   6.142  0.1270 -0.1155  0.4918
50564SOL     OW60469   5.662   6.357   1.524 -0.0230  0.0076 -0.2753
50564SOL    HW160470   5.606   6.301   1.577  0.2745  0.0284  0.0653
50564SOL    HW260471   5.698   6.298   1.457 -0.7026  0.0624 -0.6991
50565SOL     OW60472  11.503   9.098   2.141  0.1112 -0.6689  0.3280
50565SOL    HW160473  11.558   9.093   2.062  0.5006 -0.4608  0.5816
50565SOL    HW260474  11.528   9.181   2.182  0.5127 -1.1700  1.1118
50566SOL     OW60475   2.563   1.869   2.808 -0.1149  0.0502  0.1672
50566SOL    HW160476   2.583   1.788   2.761 -1.0226  0.2647 -0.6295
50566SOL    HW260477   2.486   1.849   2.860 -0.5772  0.4875 -0.3253
50567SOL     OW60478   0.918   6.058   3.970 -0.4905 -0.3933 -0.1253
50567SOL    HW160479   0.842   6.114   3.952 -2.0525 -1.6882  1.8869
50567SOL    HW260480   0.952   6.091   4.054  0.2457 -0.7764 -0.2649
50568SOL     OW60481   2.882   6.931   9.234 -0.2329 -0.2446 -0.3846
50568SOL    HW160482   2.809   6.991   9.215 -0.2884 -0.3140 -0.3914
50568SOL    HW260483   2.915   6.906   9.148  0.6307  0.7962 -0.3795
50569SOL     OW60484   8.066   3.020   9.127  0.4762 -0.0479  0.9910
50569SOL    HW160485   7.974   3.001   9.107  0.6191 -1.4595  1.5384
50569SOL    HW260486   8.081   3.107   9.091 -1.2604  0.4908  1.4755
50570SOL     OW60487   5.044  11.118   8.762  0.1846 -0.2602  0.4021
50570SOL    HW160488   5.051  11.213   8.747  0.9935 -0.5794 -1.6251
50570SOL    HW260489   4.982  11.088   8.695 -0.2222 -1.1524  1.1524
50571SOL     OW60490   4.764   5.784   3.687 -0.4559  0.4675  0.5071
50571SOL    HW160491   4.853   5.804   3.715 -0.2404  2.4571 -1.3045
50571SOL    HW260492   4.774   5.708   3.629  0.2964  1.4444 -0.6953
50572SOL     OW60493   4.008   4.407   0.198  0.0734  0.3303 -0.2661
50572SOL    HW160494   3.971   4.445   0.278 -0.9099 -0.6928 -0.2118
50572SOL    HW260495   3.974   4.463   0.128  0.6946  1.0491 -0.0133
50573SOL     OW60496  11.016  10.347   3.014 -0.0064  0.2081  0.0507
50573SOL    HW160497  11.099  10.333   3.058  0.6504  2.9573 -0.1441
50573SOL    HW260498  10.964  10.269   3.035  2.3594 -1.2913  0.6755
50574SOL     OW60499   6.643   7.374   0.640 -0.3694  0.2364  0.0606
50574SOL    HW160500   6.689   7.412   0.566  1.5058 -1.2069  0.4098
50574SOL    HW260501   6.658   7.280   0.632 -1.9160 -0.1350  1.1216
50575SOL     OW60502   3.292   2.540   9.287 -0.5136  0.2437  0.4844
50575SOL    HW160503   3.386   2.529   9.299 -0.5325 -0.0299  0.3861
50575SOL    HW260504   3.252   2.501   9.364 -0.7418 -3.4945 -1.3057
50576SOL     OW60505   9.456  10.607  11.220 -0.4571 -0.3007 -0.1287
50576SOL    HW160506   9.451  10.627  11.127 -2.8140  1.7274  0.3413
50576SOL    HW260507   9.394  10.535  11.232 -0.5485 -0.2099 -0.0533
50577SOL     OW60508   9.262   8.763   1.870  0.1369  0.1239 -0.1392
50577SOL    HW160509   9.272   8.685   1.816  0.5915 -0.5356  0.8667
50577SOL    HW260510   9.352   8.795   1.882 -0.0830  1.0803 -0.9268
50578SOL     OW60511   7.646   7.228   9.433  0.0080  0.1704  0.6615
50578SOL    HW160512   7.656   7.170   9.509  0.3158 -0.2664  0.2930
50578SOL    HW260513   7.734   7.235   9.397 -0.1970  0.0735  0.1277
50579SOL     OW60514   9.656  10.587   7.400  0.1945 -0.0377 -0.7312
50579SOL    HW160515   9.629  10.515   7.343  0.0726 -0.5922  0.0104
50579SOL    HW260516   9.646  10.552   7.488  0.0954  0.9083 -0.3604
50580SOL     OW60517  10.544  12.468   0.565 -0.5675 -0.5049  0.0293
50580SOL    HW160518  10.498  12.523   0.629  0.3553 -0.0749  0.3381
50580SOL    HW260519  10.620  12.434   0.612  0.5448  0.4157 -1.0226
50581SOL     OW60520   2.909   2.721   3.659 -0.1957  0.5095 -0.0661
50581SOL    HW160521   2.965   2.786   3.702 -0.1365 -0.0284  0.6750
50581SOL    HW260522   2.822   2.761   3.657 -0.0360  0.8592 -0.1676
50582SOL     OW60523   4.483   4.283   7.094 -0.3002 -0.1167  0.2055
50582SOL    HW160524   4.475   4.223   7.168 -1.0638  0.1344  0.3345
50582SOL    HW260525   4.398   4.327   7.089  0.4943  1.5543  0.6094
50583SOL     OW60526   7.339   8.152   4.983 -0.3661 -0.1163 -0.5010
50583SOL    HW160527   7.392   8.072   4.976  2.2048  1.4954 -0.7517
50583SOL    HW260528   7.369   8.207   4.911 -2.1842  1.0591 -0.4311
50584SOL     OW60529   2.195   9.119   0.836  0.7916  0.0828  0.2051
50584SOL    HW160530   2.217   9.153   0.750  1.7687  0.6640  0.6752
50584SOL    HW260531   2.267   9.060   0.859  0.9089  0.4916  0.9262
50585SOL     OW60532   3.049   1.546  11.426 -0.0888  0.0225 -0.1774
50585SOL    HW160533   2.961   1.546  11.464  0.1420 -0.7226  0.3742
50585SOL    HW260534   3.038   1.501  11.342 -0.0506 -0.9987  0.3544
50586SOL     OW60535   4.171  12.595   7.115 -0.7946 -0.5105  0.2096
50586SOL    HW160536   4.250  12.637   7.082 -0.4158 -0.9335  0.5514
50586SOL    HW260537   4.202  12.541   7.188 -1.0000 -2.5058 -1.0950
50587SOL     OW60538  10.261   9.619   0.565 -0.0037  0.4135 -0.4803
50587SOL    HW160539  10.342   9.580   0.597 -0.4021 -0.9100 -0.9677
50587SOL    HW260540  10.289   9.682   0.499  0.6259 -0.1683 -0.7827
50588SOL     OW60541   1.151   1.913   4.737  0.3096  0.6239  0.6730
50588SOL    HW160542   1.191   1.831   4.765 -1.2439 -0.0841  0.9233
50588SOL    HW260543   1.165   1.916   4.642  2.0036  1.0204  0.9020
50589SOL     OW60544   2.484   2.637   4.185  0.2923 -0.0000 -0.4150
50589SOL    HW160545   2.497   2.548   4.219 -0.0010  0.4375  0.9190
50589SOL    HW260546   2.464   2.625   4.092  2.5055 -1.1895 -0.8243
50590SOL     OW60547   3.576   7.178  11.885 -0.2927 -0.1344  0.1973
50590SOL    HW160548   3.602   7.140  11.801  0.7979  0.7609  0.1179
50590SOL    HW260549   3.591   7.108  11.949 -2.3177 -1.2661 -0.4662
50591SOL     OW60550   1.213   9.259   8.979 -0.2020  0.1845  0.0998
50591SOL    HW160551   1.306   9.272   8.997  0.0667 -0.9287 -0.3867
50591SOL    HW260552   1.196   9.316   8.903  0.2432 -0.1039 -0.2228
50592SOL     OW60553  11.103   7.160   7.671 -0.3645 -0.4937  0.1720
50592SOL    HW160554  11.161   7.144   7.597 -0.4933  0.5982 -0.1923
50592SOL    HW260555  11.018   7.126   7.642 -0.6581  0.8306 -0.6188
50593SOL     OW60556   3.729   9.074   1.281 -0.1598  0.2993 -0.2320
50593SOL    HW160557   3.708   8.983   1.304  2.9216 -0.9906 -1.8153
50593SOL    HW260558   3.766   9.067   1.193  0.7429  3.0322 -0.1385
50594SOL     OW60559   3.379   2.818   5.544  0.3724  0.6720  0.1711
50594SOL    HW160560   3.471   2.794   5.529 -0.0219 -0.8363  0.0616
50594SOL    HW260561   3.344   2.835   5.457  0.1163 -0.4447  0.0415
50595SOL     OW60562   8.735   2.871   1.949 -0.0701  0.0789 -0.5451
50595SOL    HW160563   8.790   2.804   1.907 -1.3489 -0.2361 -1.8125
50595SOL    HW260564   8.796   2.937   1.980  1.0301 -0.3157 -1.8053
50596SOL     OW60565   5.196   0.413   0.804 -0.5167 -0.1349  0.2102
50596SOL    HW160566   5.134   0.480   0.775 -0.0198 -0.0143 -0.5862
50596SOL    HW260567   5.220   0.440   0.893 -0.7005  0.4621  0.0822
50597SOL     OW60568   3.511   2.310   1.375 -0.9671 -0.5410 -0.3964
50597SOL    HW160569   3.485   2.226   1.413 -1.3974  0.7098  2.2591
50597SOL    HW260570   3.558   2.355   1.445  0.3540  0.9609 -2.1631
50598SOL     OW60571   6.074   9.175   0.046  0.0506  0.6609 -0.8270
50598SOL    HW160572   6.144   9.131  -0.003 -0.8281  1.8118 -3.2561
50598SOL    HW260573   6.106   9.264   0.059  0.4658  0.2764  1.2546
50599SOL     OW60574   1.376   8.572   8.172  0.2429  0.1403  0.5452
50599SOL    HW160575   1.292   8.614   8.192 -0.5875 -0.9355 -0.5872
50599SOL    HW260576   1.355   8.502   8.110  1.9967 -0.0745  0.1254
50600SOL     OW60577   0.031   0.248  10.337 -0.1421  0.3156  0.0128
50600SOL    HW160578  -0.039   0.295  10.292 -1.5564  0.0015  1.7848
50600SOL    HW260579   0.100   0.240  10.271 -2.4176 -0.9525 -2.4051
50601SOL     OW60580  10.118   3.124   0.207 -0.3130  0.6390  0.0186
50601SOL    HW160581  10.078   3.178   0.138  1.6750 -0.3145 -2.0052
50601SOL    HW260582  10.058   3.050   0.217 -0.9120  1.0727 -0.2404
50602SOL     OW60583   7.134   3.415  10.946 -0.1729  0.1354  0.1815
50602SOL    HW160584   7.099   3.493  10.988 -1.3332 -0.9236  1.2934
50602SOL    HW260585   7.228   3.431  10.937  0.4823 -0.0965  4.5914
50603SOL     OW60586   5.631  11.648   1.326 -0.0750 -0.2131 -0.7111
50603SOL    HW160587   5.708  11.664   1.271 -0.5723  0.6299 -1.1824
50603SOL    HW260588   5.620  11.553   1.324  1.0515 -0.3611 -0.4967
50604SOL     OW60589   8.187   3.238   6.290 -0.2231 -0.2774  0.6484
50604SOL    HW160590   8.265   3.184   6.280  0.2081  0.4751 -0.3849
50604SOL    HW260591   8.209   3.319   6.243 -1.2913  0.3055  1.1187
50605SOL     OW60592   6.266   7.716   4.249  0.1933 -0.2116  0.1320
50605SOL    HW160593   6.254   7.783   4.182  1.2719 -0.8302 -0.7108
50605SOL    HW260594   6.195   7.731   4.311 -1.0010  0.2174 -1.2852
50606SOL     OW60595   4.682  10.168   6.272  0.1105  0.6169  0.3828
50606SOL    HW160596   4.612  10.104   6.257 -0.0486  1.0457 -0.8059
50606SOL    HW260597   4.636  10.248   6.294  0.1736  1.0630 -1.0086
50607SOL     OW60598   1.351   1.179   3.220  0.6681  0.2507 -0.0210
50607SOL    HW160599   1.324   1.115   3.285  1.4818 -0.5970 -0.4907
50607SOL    HW260600   1.389   1.251   3.271 -1.0524  0.7900  0.5573
50608SOL     OW60601   0.201  11.080   6.596 -0.1412 -0.4352 -0.4696
50608SOL    HW160602   0.290  11.117   6.599  0.2011 -1.2585 -0.1470
50608SOL    HW260603   0.167  11.094   6.684 -0.7786  0.9059 -0.9013
50609SOL     OW60604   5.600   8.559   0.016 -0.3721 -0.1028  0.1484
50609SOL    HW160605   5.593   8.646  -0.023 -0.8156 -0.3311 -0.3009
50609SOL    HW260606   5.677   8.564   0.073  0.5435  0.1128 -1.0763
50610SOL     OW60607   7.759   2.068   6.988 -0.3604  0.9081 -0.6494
50610SOL    HW160608   7.763   2.006   6.915 -0.0605  0.3627 -0.1782
50610SOL    HW260609   7.684   2.039   7.040  0.3528  0.3386  0.0927
50611SOL     OW60610  12.090   1.694   4.694  0.1195  0.9419 -0.2067
50611SOL    HW160611  12.116   1.742   4.616 -1.8922  0.9650 -0.9231
50611SOL    HW260612  12.165   1.702   4.753  0.9853  2.4603 -1.4262
50612SOL     OW60613  10.362  11.769  11.351  0.7700  0.5836 -0.5244
50612SOL    HW160614  10.319  11.686  11.372  0.4711  0.5099 -1.4147
50612SOL    HW260615  10.437  11.744  11.297  1.2892  0.8114  0.0831
50613SOL     OW60616   0.225   2.011  10.569  0.1425 -0.1847  0.0039
50613SOL    HW160617   0.282   1.972  10.503  0.5018 -0.1332  0.2861
50613SOL    HW260618   0.159   2.058  10.518 -0.5284 -1.4634 -0.3599
50614SOL     OW60619   9.416   2.787   6.310  0.1781 -0.3744 -0.0384
50614SOL    HW160620   9.447   2.835   6.234 -0.5606 -2.3502 -1.6690
50614SOL    HW260621   9.431   2.847   6.384  0.3848  1.8245 -1.7676
50615SOL     OW60622   0.290  10.582   0.609 -0.9323 -0.0782 -0.0091
50615SOL    HW160623   0.223  10.647   0.587 -0.6745  0.3780  0.5076
50615SOL    HW260624   0.358  10.596   0.544 -1.2607 -0.4257 -0.4310
50616SOL     OW60625  12.081   6.919   2.999  0.2182 -0.3258 -0.2825
50616SOL    HW160626  12.002   6.869   2.979  0.0784 -0.5591  0.7871
50616SOL    HW260627  12.056   7.010   2.987 -0.7381 -0.2960  1.6932
50617SOL     OW60628   3.158   4.880   3.324 -0.2194  0.2366  0.1207
50617SOL    HW160629   3.131   4.894   3.233  1.1871  0.6135 -0.2699
50617SOL    HW260630   3.135   4.789   3.342  0.5914 -0.2186 -1.0386
50618SOL     OW60631   4.278   2.593   2.571  0.4131 -0.2385  0.6362
50618SOL    HW160632   4.260   2.512   2.619 -3.1698  0.4507  0.7676
50618SOL    HW260633   4.269   2.662   2.637  2.3273  0.3866  0.3009
50619SOL     OW60634   7.813   8.793  12.207 -0.3064 -0.5914  0.1979
50619SOL    HW160635   7.793   8.700  12.217 -1.1087 -0.4539 -0.0729
50619SOL    HW260636   7.794   8.831  12.293  0.3033 -0.7197  0.3948
50620SOL     OW60637   5.737   1.918   7.291  0.4829 -0.5678  0.2584
50620SOL    HW160638   5.680   1.922   7.368 -0.4922  2.1391 -0.4894
50620SOL    HW260639   5.685   1.871   7.226 -0.3949  0.6874  0.0176
50621SOL     OW60640  10.966  12.436   6.333  0.4373 -0.1527 -0.3450
50621SOL    HW160641  10.941  12.465   6.420  0.9331  1.3477 -0.6679
50621SOL    HW260642  10.895  12.378   6.305  0.2917 -0.6780  1.0453
50622SOL     OW60643   5.252   8.580   8.313 -0.2171  0.3430  0.2456
50622SOL    HW160644   5.239   8.485   8.322 -1.2903  0.5063  0.5416
50622SOL    HW260645   5.316   8.602   8.380  0.8386 -0.3268 -0.5075
50623SOL     OW60646   9.696   4.330  10.753 -0.2771 -0.2910 -0.6825
50623SOL    HW160647   9.730   4.300  10.837  0.7503  1.9851 -0.2216
50623SOL    HW260648   9.601   4.321  10.761 -0.1455 -0.8409  0.4135
50624SOL     OW60649   1.483   5.149   4.974  0.3419  0.4162  0.5025
50624SOL    HW160650   1.540   5.116   5.043  1.4416  0.9648 -0.0949
50624SOL    HW260651   1.440   5.225   5.012  1.4080  1.0860  0.4312
50625SOL     OW60652   7.185   0.849   0.711  0.6398 -0.4391  0.3831
50625SOL    HW160653   7.148   0.769   0.674  1.4905 -0.5958 -0.1428
50625SOL    HW260654   7.265   0.820   0.755  0.2970 -0.0618  1.2906
50626SOL     OW60655   3.760   9.502   3.669 -0.4852 -0.1179  0.0600
50626SOL    HW160656   3.748   9.421   3.618  0.0607 -0.8053  0.9893
50626SOL    HW260657   3.793   9.472   3.753 -2.1124  0.9283  1.1285
50627SOL     OW60658   9.045   6.280   7.433 -0.1006  0.6076 -0.1613
50627SOL    HW160659   9.096   6.360   7.429  0.7176  0.1467  0.5570
50627SOL    HW260660   9.105   6.211   7.403 -0.4338  0.1197  0.2655
50628SOL     OW60661   4.561   0.426   3.810 -0.1740 -0.3886  0.7710
50628SOL    HW160662   4.506   0.491   3.853  0.0205 -0.4819  1.1661
50628SOL    HW260663   4.622   0.477   3.756  0.2909 -0.2187  1.4491
50629SOL     OW60664   2.136   5.615   7.419 -0.5169 -0.1510 -0.0888
50629SOL    HW160665   2.055   5.582   7.458 -0.1457 -1.1835 -0.1418
50629SOL    HW260666   2.204   5.554   7.449 -0.1531 -0.7753 -2.0008
50630SOL     OW60667  10.545   4.950   2.846  0.2228  0.0847 -0.1071
50630SOL    HW160668  10.542   4.881   2.912 -1.9689 -1.7788 -1.9682
50630SOL    HW260669  10.461   4.995   2.855  0.2422  0.3333 -1.0685
50631SOL     OW60670  11.846   5.415   4.448 -0.9281  0.1639  0.0616
50631SOL    HW160671  11.905   5.358   4.398 -0.1598  0.4727  0.6119
50631SOL    HW260672  11.867   5.397   4.539 -1.6940  0.2791  0.2664
50632SOL     OW60673  12.491   2.597   9.252 -0.5106 -1.0396 -0.6108
50632SOL    HW160674  12.427   2.663   9.279  0.7081  0.4401 -1.2360
50632SOL    HW260675  12.447   2.547   9.184 -0.6798  0.6679 -1.8214
50633SOL     OW60676  12.382  12.038   3.289 -0.2593 -0.5725 -0.5725
50633SOL    HW160677  12.400  11.946   3.310 -0.9746 -0.2617  1.6962
50633SOL    HW260678  12.468  12.078   3.277  0.4242 -0.6277  2.9902
50634SOL     OW60679   0.283   4.569   2.804 -0.2885  0.2679  0.6704
50634SOL    HW160680   0.286   4.561   2.899  0.3733  1.2011  0.7406
50634SOL    HW260681   0.253   4.483   2.773  0.2468 -0.2966  1.6740
50635SOL     OW60682  11.522   1.833   8.168  0.3663 -0.0369  0.1899
50635SOL    HW160683  11.433   1.852   8.200 -0.4930 -1.3072 -1.3043
50635SOL    HW260684  11.529   1.884   8.087  0.8652 -0.2292  0.1139
50636SOL     OW60685   0.510  12.517   1.017  0.2425 -0.1383 -0.5246
50636SOL    HW160686   0.554  12.538   1.099 -1.0314 -0.5425  0.2735
50636SOL    HW260687   0.424  12.558   1.024 -1.2101 -3.0146 -0.1608
50637SOL     OW60688   6.908   1.165   0.993 -0.3048 -0.0824 -0.1220
50637SOL    HW160689   6.833   1.205   0.947 -0.0733  0.9863  0.3881
50637SOL    HW260690   6.934   1.092   0.937 -2.4761 -1.2527  0.2826
50638SOL     OW60691   6.664   9.929  11.072  0.1128 -0.5208  0.8337
50638SOL    HW160692   6.740   9.925  11.014 -0.6203  0.6614 -0.2608
50638SOL    HW260693   6.660  10.020  11.100 -0.3600 -0.7817  1.6498
50639SOL     OW60694   7.450   0.933   7.282 -0.0975  0.0324  0.4870
50639SOL    HW160695   7.520   0.870   7.296 -1.1101 -1.1403  0.4607
50639SOL    HW260696   7.409   0.907   7.200 -1.3999 -0.1548  1.1579
50640SOL     OW60697   2.896   8.444   1.795  0.2259 -0.1506  0.1262
50640SOL    HW160698   2.891   8.510   1.864 -2.6376 -0.7437  0.6209
50640SOL    HW260699   2.969   8.472   1.740  0.2777  2.3833  1.3404
50641SOL     OW60700   7.580   1.899   5.845 -0.2594  0.3661 -0.3633
50641SOL    HW160701   7.535   1.842   5.907 -1.0232 -0.2274 -1.4142
50641SOL    HW260702   7.666   1.859   5.833 -0.0609  0.5602  0.4082
50642SOL     OW60703   9.886   5.928   5.542  0.3267 -0.1881  0.2727
50642SOL    HW160704   9.944   5.854   5.525 -0.4418 -0.8902  0.6565
50642SOL    HW260705   9.814   5.917   5.480 -0.0756 -0.0775  0.7186
50643SOL     OW60706   2.296  11.288   7.436  0.3510  0.2586 -0.7966
50643SOL    HW160707   2.354  11.213   7.423  3.0293  1.3266  3.2464
50643SOL    HW260708   2.325  11.353   7.372  0.9223 -0.6053 -1.4450
50644SOL     OW60709   4.012   6.155   1.800  0.0929  0.1099 -0.5224
50644SOL    HW160710   3.974   6.241   1.780  0.3439  0.3154 -0.1243
50644SOL    HW260711   4.064   6.132   1.724  1.1413  0.9388 -0.0752
50645SOL     OW60712  10.753   4.949   3.893 -0.3686 -0.5912 -0.0801
50645SOL    HW160713  10.673   4.946   3.945  0.6459  0.4465  1.6350
50645SOL    HW260714  10.723   4.970   3.805 -1.9802 -0.0370  0.5556
50646SOL     OW60715   4.126   6.085   8.142  0.5131  0.3123 -0.2005
50646SOL    HW160716   4.035   6.055   8.153  0.9418 -0.6794  0.8572
50646SOL    HW260717   4.179   6.009   8.167  1.6461  0.7341 -1.2281
50647SOL     OW60718   0.402   2.997   5.272 -0.1339 -0.0952 -0.1166
50647SOL    HW160719   0.327   3.052   5.294 -0.0326 -0.0541  0.1348
50647SOL    HW260720   0.469   3.022   5.336  0.1128 -0.0925 -0.3724
50648SOL     OW60721   6.828   7.798   1.526  0.0856  0.4103 -0.2895
50648SOL    HW160722   6.794   7.879   1.563 -1.0156  0.8731 -2.1630
50648SOL    HW260723   6.785   7.729   1.576  0.3109  0.9664  0.7032
50649SOL     OW60724   7.025   4.869   8.033 -0.0974  0.0025 -0.7558
50649SOL    HW160725   7.104   4.920   8.016  0.5557 -0.7052  0.0089
50649SOL    HW260726   7.055   4.778   8.030 -0.4941 -0.2430  1.2164
50650SOL     OW60727   5.909   7.655   4.604  0.5926 -0.3086 -0.0371
50650SOL    HW160728   5.885   7.740   4.640 -0.7232  0.2585 -2.0589
50650SOL    HW260729   5.899   7.594   4.677  2.0673  1.2803  1.6016
50651SOL     OW60730   3.231   7.503   8.458  0.4253 -0.0140 -0.2144
50651SOL    HW160731   3.290   7.512   8.533  0.6845  0.1572 -0.4371
50651SOL    HW260732   3.251   7.578   8.402 -0.4786  0.4311  0.0303
50652SOL     OW60733   0.596   8.594   9.906 -0.0822  0.1089 -0.3532
50652SOL    HW160734   0.585   8.624   9.997 -0.5920 -1.1548  0.0304
50652SOL    HW260735   0.691   8.595   9.892  0.1221 -1.0531  0.7074
50653SOL     OW60736   4.895   5.596   7.228 -0.0494  0.3424 -0.2184
50653SOL    HW160737   4.813   5.645   7.226 -0.5301 -0.4576 -1.8661
50653SOL    HW260738   4.963   5.663   7.239 -0.8215  1.1650 -0.3810
50654SOL     OW60739   8.144   9.309   1.799  0.6147 -0.1818 -0.1112
50654SOL    HW160740   8.172   9.255   1.873 -0.0832  0.4498  0.6215
50654SOL    HW260741   8.056   9.337   1.821  1.0512  1.5029 -0.3290
50655SOL     OW60742   5.051   2.795   3.818 -0.7049  0.5998  0.0070
50655SOL    HW160743   5.118   2.839   3.870  0.1024 -0.4992 -0.0600
50655SOL    HW260744   5.069   2.822   3.728  0.4522 -0.6221 -0.1663
50656SOL     OW60745   8.745   5.117  11.303  0.3479  0.3215 -0.2126
50656SOL    HW160746   8.707   5.050  11.360  0.4514  0.5939  0.1751
50656SOL    HW260747   8.672   5.176  11.284  0.7748  1.3506  1.2639
50657SOL     OW60748   9.119   3.039   7.264 -0.1260 -0.4446 -0.3708
50657SOL    HW160749   9.138   3.132   7.273  0.0186 -0.5401  0.3145
50657SOL    HW260750   9.023   3.034   7.259 -0.0990 -0.1711 -1.5054
50658SOL     OW60751  12.360   0.745  10.692 -0.4333  0.5584  0.1416
50658SOL    HW160752  12.381   0.687  10.765  0.5930 -0.1515 -0.6928
50658SOL    HW260753  12.375   0.693  10.613  0.5908  1.9486 -0.6463
50659SOL     OW60754   4.502   8.176  11.957 -0.4806 -0.2060  0.2431
50659SOL    HW160755   4.577   8.170  11.898  0.8344 -0.1076  1.8146
50659SOL    HW260756   4.509   8.098  12.012 -0.5681  0.6251  1.4747
50660SOL     OW60757   0.142   0.550   0.745  0.3401  0.1432  0.7119
50660SOL    HW160758   0.213   0.601   0.706  0.3118  0.2156  0.7548
50660SOL    HW260759   0.147   0.570   0.839  0.8771 -0.5974  0.8501
50661SOL     OW60760   7.225   2.030   9.380 -0.7637  0.6704 -0.2436
50661SOL    HW160761   7.145   2.076   9.354 -1.6795 -0.5801  0.2505
50661SOL    HW260762   7.194   1.956   9.433  0.4402 -1.5666 -2.4315
50662SOL     OW60763   8.747   7.208   2.973  0.7386  0.4505  0.0630
50662SOL    HW160764   8.729   7.295   3.009 -0.5058  0.1343  0.2714
50662SOL    HW260765   8.780   7.158   3.047 -0.2342  0.2656  0.3869
50663SOL     OW60766   3.378   5.082   8.812  0.3729 -0.5551 -1.0354
50663SOL    HW160767   3.301   5.043   8.771  0.0486 -0.8911 -0.1299
50663SOL    HW260768   3.435   5.008   8.833  0.4704 -0.4014 -0.7513
50664SOL     OW60769   2.986  11.462   2.760  0.2202  0.2155  0.8545
50664SOL    HW160770   2.918  11.438   2.823 -0.5608 -0.6590 -0.2628
50664SOL    HW260771   2.989  11.557   2.762 -0.6763  0.2476  1.3141
50665SOL     OW60772   6.169  12.498   4.231 -0.2434 -0.1304  0.2538
50665SOL    HW160773   6.246  12.545   4.263 -1.3841  1.9945  0.0638
50665SOL    HW260774   6.130  12.459   4.309 -2.2408  3.8575  1.5305
50666SOL     OW60775  12.496   9.795   6.027  0.3443 -0.2584  0.4737
50666SOL    HW160776  12.561   9.744   5.980 -0.7883 -1.3605  0.0488
50666SOL    HW260777  12.464   9.859   5.964  0.1334 -0.5341  0.3008
50667SOL     OW60778  10.159   5.877   7.481  0.4028 -0.0067  0.5637
50667SOL    HW160779  10.166   5.792   7.437  1.0859  0.8780 -1.0931
50667SOL    HW260780  10.080   5.869   7.535 -0.0441 -1.3874 -0.2422
50668SOL     OW60781   6.008   7.891   3.109  0.0926 -0.7556  0.4489
50668SOL    HW160782   6.006   7.922   3.199  0.0338  0.2780  0.1092
50668SOL    HW260783   6.063   7.954   3.063 -2.2187  0.4545 -0.8330
50669SOL     OW60784   9.516  10.784   0.410  0.1233 -0.5332 -0.3692
50669SOL    HW160785   9.478  10.699   0.389 -1.6274  0.0623  0.2250
50669SOL    HW260786   9.458  10.821   0.477  0.8502  1.1142 -0.5930
50670SOL     OW60787  11.776   9.757   3.921  0.0366 -0.0696  0.0928
50670SOL    HW160788  11.765   9.721   3.833 -0.5816 -2.2151  0.9897
50670SOL    HW260789  11.801   9.848   3.907 -0.5103 -0.2326 -2.2940
50671SOL     OW60790   2.742   5.402  10.750  0.3314  0.0598  0.1391
50671SOL    HW160791   2.703   5.320  10.721 -0.5346  1.0245 -1.5658
50671SOL    HW260792   2.836   5.383  10.756 -0.1045 -1.7828  2.5257
50672SOL     OW60793   5.747  10.896   5.373 -0.0601  0.1728  0.4875
50672SOL    HW160794   5.794  10.813   5.372 -2.0177 -1.0534 -2.4152
50672SOL    HW260795   5.655  10.873   5.387 -0.5323  1.9833  0.7496
50673SOL     OW60796   0.138   8.756   3.416  0.0650  0.1834 -0.5075
50673SOL    HW160797   0.060   8.807   3.438 -0.7734 -0.8493 -1.0250
50673SOL    HW260798   0.139   8.685   3.479 -1.0850 -1.4914 -2.2736
50674SOL     OW60799   6.691   0.828   0.632  0.3940 -0.3443  0.5979
50674SOL    HW160800   6.756   0.809   0.564 -0.6065 -0.3230 -0.3787
50674SOL    HW260801   6.726   0.785   0.710  1.3773 -0.6898 -0.0097
50675SOL     OW60802  10.774   4.495   5.022  0.5231 -0.1948 -0.0057
50675SOL    HW160803  10.774   4.591   5.018 -0.2884 -0.2385 -2.8147
50675SOL    HW260804  10.859   4.470   4.987  0.4805 -0.5337  0.1347
50676SOL     OW60805   2.662   4.145   3.205 -0.0308 -0.7222 -0.2131
50676SOL    HW160806   2.756   4.140   3.187  0.2371  1.4676  0.2894
50676SOL    HW260807   2.631   4.217   3.150 -1.1098 -0.4652  0.6982
50677SOL     OW60808   1.159   4.966   0.049 -0.1300  0.0643  0.2597
50677SOL    HW160809   1.095   5.031   0.078  0.3253  0.1814  1.0391
50677SOL    HW260810   1.188   4.923   0.130  1.7557  0.9281  0.1022
50678SOL     OW60811   7.823   4.837  10.409  0.6889 -0.3824  0.4236
50678SOL    HW160812   7.870   4.764  10.370  0.7286  0.4351 -1.1122
50678SOL    HW260813   7.758   4.796  10.466 -0.0786 -1.6537 -1.2915
50679SOL     OW60814  12.080  12.344   8.419 -0.0715  0.8313 -0.2234
50679SOL    HW160815  12.083  12.381   8.507  1.9685 -0.6629  0.3915
50679SOL    HW260816  12.153  12.385   8.373 -0.5297  0.8747 -0.9372
50680SOL     OW60817   9.474   4.827   5.952  0.0637 -0.6608  0.0945
50680SOL    HW160818   9.533   4.852   6.023 -0.5749 -1.1688  0.8234
50680SOL    HW260819   9.403   4.890   5.956  1.2047  0.8450 -1.6983
50681SOL     OW60820   3.329   5.398  12.057 -0.0587  0.3509 -0.1185
50681SOL    HW160821   3.294   5.487  12.066  0.9057  0.6601  0.8390
50681SOL    HW260822   3.253   5.345  12.031 -0.6260  1.4558 -0.7903
50682SOL     OW60823   4.804   7.543   3.089 -0.1811 -0.1592  0.2357
50682SOL    HW160824   4.831   7.576   3.004  0.1336 -1.2427 -0.0911
50682SOL    HW260825   4.885   7.532   3.138 -0.1084 -2.0885 -0.2662
50683SOL     OW60826   3.516  12.183   4.079 -0.0269  0.4065  0.8833
50683SOL    HW160827   3.560  12.099   4.096  0.9391  0.6826 -0.0991
50683SOL    HW260828   3.479  12.174   3.992 -0.5361  0.7523  1.0610
50684SOL     OW60829   1.118   1.093   5.642  0.3496  0.1882 -0.1479
50684SOL    HW160830   1.154   1.076   5.729  0.3909 -0.7223 -0.3259
50684SOL    HW260831   1.195   1.112   5.588  0.5539 -1.1848 -0.3983
50685SOL     OW60832   2.156   0.963   9.403  0.6149 -0.4685 -0.2651
50685SOL    HW160833   2.064   0.987   9.399  0.8144  0.3950  0.1911
50685SOL    HW260834   2.176   0.957   9.496  1.2988  0.5177 -0.3287
50686SOL     OW60835   9.553  11.922   6.285  0.3235 -0.2882 -0.4482
50686SOL    HW160836   9.644  11.948   6.273 -0.3660  1.7630 -1.8903
50686SOL    HW260837   9.512  11.937   6.199 -1.8573  1.1089  0.7353
50687SOL     OW60838   4.412  12.243   7.524 -0.2045 -0.2504  0.2074
50687SOL    HW160839   4.319  12.237   7.547 -0.3995 -0.0360 -0.5071
50687SOL    HW260840   4.416  12.218   7.432  0.4171  0.0180  0.1568
50688SOL     OW60841   0.311   9.054   1.603 -0.4150  0.5803  0.1724
50688SOL    HW160842   0.316   9.144   1.635  1.8001  1.0575 -1.2426
50688SOL    HW260843   0.403   9.029   1.589 -0.9155 -2.2117  1.3145
50689SOL     OW60844   3.739   2.558   8.627  0.5478 -0.4980  0.1519
50689SOL    HW160845   3.730   2.473   8.671 -0.6965 -1.2510 -1.4324
50689SOL    HW260846   3.716   2.540   8.536  0.5705  1.4906 -0.2909
50690SOL     OW60847   4.866  12.349   0.661  0.0692  0.1145  0.4002
50690SOL    HW160848   4.881  12.263   0.623  2.6105  0.1207  1.1432
50690SOL    HW260849   4.866  12.334   0.756  0.2709  0.8651  0.5304
50691SOL     OW60850   4.006   5.817   2.666  0.1079  0.0170  0.2177
50691SOL    HW160851   4.023   5.726   2.641 -0.3196 -0.5007  1.7035
50691SOL    HW260852   3.915   5.832   2.643 -0.1053 -0.2576  0.8644
50692SOL     OW60853   6.995   6.917   7.274 -0.2542 -0.7729  0.2559
50692SOL    HW160854   6.916   6.963   7.245  0.7169  2.4462  2.1126
50692SOL    HW260855   7.030   6.973   7.344  1.7968 -3.8777  1.9181
50693SOL     OW60856   2.880   5.603  10.939 -0.2506 -0.1058 -0.1137
50693SOL    HW160857   2.973   5.622  10.926 -0.0068 -0.1204  1.4303
50693SOL    HW260858   2.837   5.689  10.936  0.2183  0.2643  1.9825
50694SOL     OW60859   1.455   6.482   4.422  0.3207  0.8379 -0.0029
50694SOL    HW160860   1.435   6.564   4.468 -0.3189  0.3186  0.6661
50694SOL    HW260861   1.489   6.425   4.490 -0.9587 -0.0632 -0.0939
50695SOL     OW60862   6.347   8.614   8.002 -0.0737 -0.1521  0.2108
50695SOL    HW160863   6.438   8.601   8.030 -0.3255  1.2498  1.8434
50695SOL    HW260864   6.334   8.709   8.006 -1.4630 -0.2836 -0.5074
50696SOL     OW60865   8.629   5.642   9.212  0.1471  0.0256  0.1943
50696SOL    HW160866   8.612   5.618   9.303  1.2012 -0.8419  0.1797
50696SOL    HW260867   8.543   5.666   9.177 -0.4152 -0.5108  1.1601
50697SOL     OW60868   4.591   4.419   3.289 -0.3615 -0.0624  0.3286
50697SOL    HW160869   4.572   4.424   3.382  0.4728  0.2463  0.4912
50697SOL    HW260870   4.645   4.496   3.271  0.4767 -0.7425 -0.1575
50698SOL     OW60871   7.375   1.844   7.813 -0.1294 -0.3505  0.0989
50698SOL    HW160872   7.465   1.815   7.797  0.2689  0.8521  0.0895
50698SOL    HW260873   7.323   1.764   7.807  0.9816 -1.1227  0.4932
50699SOL     OW60874   8.359   3.439   6.574  0.6260  0.4111  0.0121
50699SOL    HW160875   8.415   3.469   6.503 -1.0745  1.5714 -0.9234
50699SOL    HW260876   8.360   3.511   6.638  0.2368  0.4367 -0.0054
50700SOL     OW60877  10.714  11.064  12.034 -0.4641  0.2026  0.0401
50700SOL    HW160878  10.743  10.977  12.064  1.0283  1.1417  1.4848
50700SOL    HW260879  10.674  11.103  12.111  0.3618  1.3999 -0.1114
50701SOL     OW60880   2.758   1.133   7.667  0.2844 -0.3555  0.2672
50701SOL    HW160881   2.807   1.053   7.647 -2.8114 -2.6917  1.2229
50701SOL    HW260882   2.708   1.151   7.588 -0.2789 -0.3856  0.6103
50702SOL     OW60883   7.408  11.375   4.556  0.1992  0.3792 -0.7490
50702SOL    HW160884   7.450  11.362   4.471 -0.8326  2.4982 -1.6484
50702SOL    HW260885   7.316  11.353   4.541 -0.1922  1.7699 -0.4970
50703SOL     OW60886   9.471   4.422   0.876 -0.3854  0.4718  0.1384
50703SOL    HW160887   9.528   4.349   0.849 -0.0163  0.9408 -0.3791
50703SOL    HW260888   9.502   4.446   0.963 -1.2195 -0.6914  0.7915
50704SOL     OW60889  11.059   5.008   1.333  0.0671  0.1229  0.1646
50704SOL    HW160890  11.066   4.931   1.276 -0.1974  0.8400 -0.8682
50704SOL    HW260891  10.991   5.061   1.292  0.8750  1.3328  0.3449
50705SOL     OW60892   5.315   7.342   3.415 -0.3051  0.0986  0.0800
50705SOL    HW160893   5.238   7.351   3.472 -0.0251 -0.7175  0.6186
50705SOL    HW260894   5.384   7.391   3.460  0.2744 -1.6166  1.1837
50706SOL     OW60895   5.059   6.095  10.067  0.1731  0.4915 -0.2022
50706SOL    HW160896   5.141   6.067  10.109 -0.8189 -0.5830  1.1094
50706SOL    HW260897   5.061   6.054   9.981 -0.4075 -2.2964  1.0091
50707SOL     OW60898   6.249   7.501   7.945 -0.5394  0.1608  0.3545
50707SOL    HW160899   6.202   7.496   7.861 -0.2692 -0.0036  0.2140
50707SOL    HW260900   6.180   7.495   8.011 -0.5614 -2.0618  0.1892
50708SOL     OW60901   9.667   7.997  10.207  0.1404 -0.5663  0.1273
50708SOL    HW160902   9.745   8.018  10.259  0.2316 -2.4570  0.8383
50708SOL    HW260903   9.595   8.007  10.268 -0.2485  1.2442 -0.5482
50709SOL     OW60904   4.307   9.322  12.265  0.0587 -0.3190 -0.2869
50709SOL    HW160905   4.297   9.235  12.227  0.2043 -0.2215 -0.5509
50709SOL    HW260906   4.402   9.333  12.276 -0.0310 -1.5563  2.9221
50710SOL     OW60907   3.935  12.148   5.064 -0.0478  0.6476 -0.2308
50710SOL    HW160908   3.961  12.240   5.062 -0.2593  0.6988 -1.8800
50710SOL    HW260909   4.007  12.102   5.021 -0.0863  0.0673  0.3106
50711SOL     OW60910   3.229   0.519   6.783  0.5145  0.0319  0.3692
50711SOL    HW160911   3.312   0.517   6.831 -0.2052 -2.3520  1.6985
50711SOL    HW260912   3.169   0.564   6.843  0.3582 -0.1032  0.3130
50712SOL     OW60913   8.835   6.613   3.906  0.2969  0.1168 -0.2704
50712SOL    HW160914   8.771   6.662   3.958  0.5280 -0.4218  0.5429
50712SOL    HW260915   8.782   6.559   3.848 -0.0014 -0.6340  0.6887
50713SOL     OW60916   1.157  12.413   5.890  0.2059  0.3325 -0.2894
50713SOL    HW160917   1.081  12.454   5.932  0.2803  0.6602 -0.4763
50713SOL    HW260918   1.127  12.393   5.802 -0.6083 -2.1450  0.4541
50714SOL     OW60919   8.196   1.753   3.676  0.4009  0.1594  0.8589
50714SOL    HW160920   8.206   1.674   3.729  2.2540 -0.0199  0.3005
50714SOL    HW260921   8.197   1.825   3.739  1.4540 -0.1199  1.1720
50715SOL     OW60922   0.259   0.224  10.137 -0.4094 -0.3684  0.0793
50715SOL    HW160923   0.176   0.200  10.094 -1.5105  1.6743  0.9137
50715SOL    HW260924   0.324   0.221  10.067 -1.2855 -1.4888 -0.7252
50716SOL     OW60925  10.847   3.663  10.742  0.1698 -1.1057  0.5981
50716SOL    HW160926  10.838   3.583  10.690 -0.0070 -1.0801  0.5855
50716SOL    HW260927  10.911   3.716  10.695 -1.0048 -0.4823 -0.3729
50717SOL     OW60928   9.400  10.328   0.665 -0.0311 -0.6378 -0.5518
50717SOL    HW160929   9.415  10.413   0.706 -1.2648 -0.0901 -1.1703
50717SOL    HW260930   9.469  10.272   0.700  0.4524  0.4587  0.3235
50718SOL     OW60931  12.250  11.309   3.935  0.3485  0.1181  0.3277
50718SOL    HW160932  12.196  11.288   4.011  0.2219  0.6277  0.3793
50718SOL    HW260933  12.296  11.227   3.915 -1.2134 -0.6414 -0.3448
50719SOL     OW60934  11.848   3.228  11.899  0.2989 -0.3994 -0.1765
50719SOL    HW160935  11.793   3.235  11.821  0.8607 -0.0839 -0.5460
50719SOL    HW260936  11.785   3.223  11.971 -0.2326 -0.9277 -0.6568
50720SOL     OW60937   1.938   0.934  11.267 -0.3801  0.3288  0.2254
50720SOL    HW160938   1.865   0.895  11.217 -0.9456 -0.1218  1.3768
50720SOL    HW260939   1.898   0.966  11.348  0.8480 -0.8186  1.3313
50721SOL     OW60940  11.344   8.726  10.555 -0.3146 -0.0781  0.5653
50721SOL    HW160941  11.292   8.682  10.488 -0.0474  0.5953 -0.0910
50721SOL    HW260942  11.292   8.802  10.581  0.6941  1.0872 -0.7178
50722SOL     OW60943   6.475   3.378   7.319 -0.7574 -0.5005  0.2474
50722SOL    HW160944   6.437   3.459   7.353  1.1735  0.6286 -0.1392
50722SOL    HW260945   6.529   3.346   7.391 -0.9090 -1.0436  0.1216
50723SOL     OW60946   4.903   8.315   6.952  0.4846 -0.4300 -0.5886
50723SOL    HW160947   4.925   8.231   6.992 -0.1396 -0.1336  0.4186
50723SOL    HW260948   4.988   8.357   6.938  0.7491  0.3904  2.5609
50724SOL     OW60949   1.684   4.738   0.814 -0.1243  0.3871 -0.4120
50724SOL    HW160950   1.599   4.781   0.803 -1.0127 -0.9066  1.0284
50724SOL    HW260951   1.699   4.737   0.909  0.9702 -0.4176 -0.5662
50725SOL     OW60952   8.740  10.005  12.530  0.0287  0.3012 -0.0889
50725SOL    HW160953   8.756   9.963  12.615 -2.8900  1.6401  1.2405
50725SOL    HW260954   8.732  10.098  12.550 -3.1843  0.4051 -1.3468
50726SOL     OW60955   3.219   5.965   5.842  0.3359  0.5229  0.1705
50726SOL    HW160956   3.309   5.981   5.871  1.3513 -0.6224 -2.0394
50726SOL    HW260957   3.227   5.951   5.747 -1.9756 -0.9751  0.1154
50727SOL     OW60958   9.232  11.779   2.157 -0.3630 -0.7703  0.1759
50727SOL    HW160959   9.172  11.817   2.221 -0.1253  0.3415 -0.2250
50727SOL    HW260960   9.306  11.840   2.155 -0.4687 -0.6649 -1.3013
50728SOL     OW60961   7.818   3.022  12.346  0.2138  0.4179 -0.2687
50728SOL    HW160962   7.803   2.969  12.268  0.0673  1.4776 -0.9707
50728SOL    HW260963   7.881   2.971  12.398  0.5581 -0.1451 -1.2178
50729SOL     OW60964   6.986   3.727   4.038  0.5626  0.3302  0.5593
50729SOL    HW160965   6.912   3.787   4.024  0.1648  0.6577  3.3923
50729SOL    HW260966   7.028   3.721   3.953 -0.6921  2.8972 -0.3649
50730SOL     OW60967   3.324   2.525   0.180  0.2667 -0.4200 -0.2413
50730SOL    HW160968   3.350   2.547   0.091  0.1967  0.6851 -0.0065
50730SOL    HW260969   3.231   2.501   0.173  0.4518 -1.0540 -0.5686
50731SOL     OW60970   3.816   4.967   9.347  0.3725 -0.5060 -0.3496
50731SOL    HW160971   3.775   4.899   9.294  0.0302 -0.3594 -0.2753
50731SOL    HW260972   3.767   5.047   9.326 -0.6721 -0.6946  1.2004
50732SOL     OW60973   5.169   0.559   5.495 -0.4163  0.2785 -0.4917
50732SOL    HW160974   5.153   0.465   5.491 -0.6322  0.1662  1.9810
50732SOL    HW260975   5.248   0.572   5.443  0.5756 -1.5337  0.4884
50733SOL     OW60976   5.167   3.792   8.725 -0.0484 -0.1425 -0.6502
50733SOL    HW160977   5.073   3.807   8.716 -0.1900 -0.7811 -0.3403
50733SOL    HW260978   5.186   3.810   8.817  0.3042  0.8319 -0.9019
50734SOL     OW60979   9.993  12.447  10.297 -0.2096  0.4435 -0.3747
50734SOL    HW160980   9.938  12.369  10.289 -1.6652  1.5601 -2.0866
50734SOL    HW260981  10.071  12.417  10.344 -0.3289 -2.2470 -1.7073
50735SOL     OW60982  11.451   5.268   9.557 -0.1326 -0.5730 -0.1302
50735SOL    HW160983  11.412   5.311   9.633 -0.1749 -0.0968 -0.4118
50735SOL    HW260984  11.529   5.320   9.537 -0.9442  0.2560 -1.3298
50736SOL     OW60985   7.489  10.127   6.698 -0.4269 -0.3710  0.0909
50736SOL    HW160986   7.396  10.147   6.708  0.4160  4.1252  0.6647
50736SOL    HW260987   7.521  10.113   6.787 -0.0963  0.9101  0.1936
50737SOL     OW60988   8.393   3.607   6.820 -0.0445 -0.3795 -0.2734
50737SOL    HW160989   8.307   3.638   6.794 -0.3424  0.3638  1.4880
50737SOL    HW260990   8.378   3.518   6.853 -0.1128 -0.3127 -0.1243
50738SOL     OW60991  11.078   3.928   3.131 -0.1496 -0.1119  0.2140
50738SOL    HW160992  11.018   4.003   3.135 -1.1971 -0.8783 -0.4793
50738SOL    HW260993  11.034   3.859   3.182  0.8742 -0.2283  0.9774
50739SOL     OW60994   1.630   6.501   0.614 -0.1465  0.1069 -0.1792
50739SOL    HW160995   1.622   6.585   0.659  1.8310 -0.3825  1.2445
50739SOL    HW260996   1.714   6.506   0.568  1.4621 -1.9879  2.2252
50740SOL     OW60997   5.272   2.116   0.851  0.0119  0.6243 -0.4640
50740SOL    HW160998   5.318   2.052   0.905  0.0545  1.3327  0.3573
50740SOL    HW260999   5.339   2.147   0.789 -0.0940 -0.3478 -1.0769
50741SOL     OW61000   8.283   3.353   3.950  0.5258 -0.0017  0.9792
50741SOL    HW161001   8.375   3.362   3.976  1.0913  1.3656 -1.2365
50741SOL    HW261002   8.252   3.444   3.946 -1.5005 -0.4922  3.4006
50742SOL     OW61003   0.907   9.578  11.977 -0.1051 -0.2828  0.3943
50742SOL    HW161004   0.948   9.500  12.014  0.9205  0.7122  1.4147
50742SOL    HW261005   0.823   9.585  12.024  1.1243  0.8970  2.5432
50743SOL     OW61006  11.074   9.511  12.290 -1.1334 -0.3717  0.1603
50743SOL    HW161007  11.039   9.527  12.378 -1.6176 -0.5305 -0.0033
50743SOL    HW261008  11.010   9.454  12.248 -0.3541 -1.2257  0.0876
50744SOL     OW61009   5.952   8.547   9.505 -0.0971  0.5234 -0.5119
50744SOL    HW161010   6.023   8.551   9.569 -0.8899  1.7555  0.3593
50744SOL    HW261011   5.984   8.491   9.435  2.4644  2.4563 -1.0434
50745SOL     OW61012   3.252   7.187  11.591 -0.0123  0.0894  0.5324
50745SOL    HW161013   3.192   7.183  11.665  0.0080 -1.0333  0.5091
50745SOL    HW261014   3.205   7.143  11.520 -0.3767  1.8799 -0.3997
50746SOL     OW61015   0.684   8.682  12.364 -0.4678 -0.0685  0.1719
50746SOL    HW161016   0.760   8.683  12.305 -1.4438  3.2210 -1.3186
50746SOL    HW261017   0.720   8.708  12.449  0.1731  1.2943 -0.4721
50747SOL     OW61018  11.535  12.377   2.004 -0.0919  0.2280 -0.0900
50747SOL    HW161019  11.589  12.402   1.929 -0.6453  0.2935 -0.4679
50747SOL    HW261020  11.473  12.449   2.014 -0.4193 -0.0711  0.0467
50748SOL     OW61021   3.940   6.750  12.525  0.0452 -0.4316  0.0921
50748SOL    HW161022   3.943   6.837  12.483 -1.0206 -1.1921 -1.6734
50748SOL    HW261023   3.981   6.764  12.611  1.2374  1.4873 -0.7064
50749SOL     OW61024   0.287   3.300  10.143  0.5968 -0.8110  0.7204
50749SOL    HW161025   0.255   3.210  10.148 -0.1783 -0.4777  2.0530
50749SOL    HW261026   0.374   3.292  10.103  0.0296 -2.0065 -0.3529
50750SOL     OW61027   6.129   7.115   0.494  0.4601 -0.5169  0.0974
50750SOL    HW161028   6.207   7.132   0.548  0.3307 -1.3247  0.5535
50750SOL    HW261029   6.147   7.160   0.411  1.0874 -0.0774  0.4626
50751SOL     OW61030   8.830   1.961   0.985 -0.1787  0.3248 -0.2204
50751SOL    HW161031   8.831   2.031   1.050 -0.0919 -0.0508  0.1875
50751SOL    HW261032   8.901   1.903   1.012  0.0472  0.3189 -0.8224
50752SOL     OW61033   0.475   3.024   3.566  0.1763  0.2329 -0.4072
50752SOL    HW161034   0.531   2.961   3.611 -1.1177 -0.1847  0.6744
50752SOL    HW261035   0.388   3.009   3.602 -0.5304  1.2998 -1.5820
50753SOL     OW61036   2.088  10.371   2.804  0.5161  0.1064 -0.3908
50753SOL    HW161037   2.041  10.299   2.845  1.4846 -1.2678 -1.5953
50753SOL    HW261038   2.168  10.381   2.856  0.3298  0.3998 -0.1572
50754SOL     OW61039  11.235   1.816   2.208 -0.4910  0.7833  0.1222
50754SOL    HW161040  11.269   1.726   2.213 -0.1354  0.9850  1.7243
50754SOL    HW261041  11.313   1.871   2.204 -0.6678  1.0194 -2.8952
50755SOL     OW61042   6.494   0.999   1.213 -0.1418  0.4933 -0.3831
50755SOL    HW161043   6.425   0.933   1.209  0.0422  0.1092  1.6992
50755SOL    HW261044   6.570   0.953   1.249  0.9628  1.1236 -1.7941
50756SOL     OW61045  12.497   5.989  10.070 -0.1745  0.1951 -0.4490
50756SOL    HW161046  12.418   5.948  10.105  0.8237 -0.3612  1.2983
50756SOL    HW261047  12.522   6.054  10.137 -0.0590  1.5366 -1.7546
50757SOL     OW61048  10.572  10.614   1.935  0.0747 -0.3936 -0.5361
50757SOL    HW161049  10.605  10.570   2.013  0.2834 -0.3510 -0.6015
50757SOL    HW261050  10.553  10.703   1.964  0.9183 -0.1456 -0.7289
50758SOL     OW61051   4.259   7.504   4.593  0.0722  0.2731  0.0636
50758SOL    HW161052   4.266   7.426   4.648 -1.5411 -0.2876 -0.4722
50758SOL    HW261053   4.173   7.496   4.551  1.4170  0.4488 -2.9082
50759SOL     OW61054   1.846   8.976   3.779  0.2660  0.0496 -0.0412
50759SOL    HW161055   1.818   8.961   3.689 -0.4791 -0.8288  0.3235
50759SOL    HW261056   1.908   9.049   3.773  1.4276 -0.9856 -1.4721
50760SOL     OW61057   2.615  11.018   9.552  0.0594  0.4153 -0.0818
50760SOL    HW161058   2.617  10.925   9.528  0.9754 -0.1986  2.0987
50760SOL    HW261059   2.699  11.053   9.521  1.6301 -0.5787  2.6832
50761SOL     OW61060   1.268  11.300   1.341  0.3422  0.6273 -0.1347
50761SOL    HW161061   1.190  11.252   1.368  1.0945  0.1378  1.3208
50761SOL    HW261062   1.333  11.232   1.323  0.0560  0.9590 -2.8194
50762SOL     OW61063   1.523   0.467   0.556 -0.5097  0.1572 -0.2764
50762SOL    HW161064   1.557   0.388   0.595  0.2845 -0.8541 -2.8085
50762SOL    HW261065   1.534   0.535   0.623  3.0843 -0.8810  0.3678
50763SOL     OW61066   5.483   9.807   1.584  0.3326 -0.3778 -0.0996
50763SOL    HW161067   5.538   9.738   1.620 -0.2647 -0.9896 -0.3352
50763SOL    HW261068   5.398   9.765   1.571  0.1460  0.2239 -0.8750
50764SOL     OW61069   5.355   6.422   0.093 -0.4655 -0.2844  0.2670
50764SOL    HW161070   5.381   6.510   0.066 -2.4121 -0.1888 -1.5367
50764SOL    HW261071   5.340   6.430   0.187  2.2694  0.5077  0.7208
50765SOL     OW61072   9.882   9.010   2.407  0.1387  0.0321  0.5357
50765SOL    HW161073   9.837   9.054   2.335 -0.2556  0.3809  0.9811
50765SOL    HW261074   9.929   8.938   2.366  0.1295  0.3780 -0.1024
50766SOL     OW61075   2.280   2.829   0.373  0.1469 -0.4473 -0.0776
50766SOL    HW161076   2.294   2.826   0.278  1.3115 -1.6360  0.1026
50766SOL    HW261077   2.361   2.795   0.410  0.5156  1.9005  1.4473
50767SOL     OW61078   3.197   6.052   6.410  0.1360  0.0402 -0.4710
50767SOL    HW161079   3.251   6.005   6.473 -0.7746 -0.0769  0.2453
50767SOL    HW261080   3.110   6.011   6.418  0.4721 -1.5704 -3.4232
50768SOL     OW61081   4.558   4.363  11.525 -0.1059 -0.3376 -0.1404
50768SOL    HW161082   4.483   4.314  11.492 -0.3629  0.3675 -0.6134
50768SOL    HW261083   4.522   4.423  11.590  0.0900 -0.1889 -0.1674
50769SOL     OW61084  11.991   0.175   9.865  0.6031 -0.2349  0.2705
50769SOL    HW161085  11.934   0.248   9.842 -0.0881 -0.7725  0.2431
50769SOL    HW261086  11.985   0.115   9.791  2.3723  0.3534 -0.4164
50770SOL     OW61087   8.752   9.664  12.364 -0.0741 -0.1841  0.6494
50770SOL    HW161088   8.698   9.702  12.433 -1.5898 -0.6728 -0.2370
50770SOL    HW261089   8.693   9.655  12.289  1.0896 -1.2776 -0.1732
50771SOL     OW61090   4.268   4.303   8.755  0.2486  0.0950  0.3032
50771SOL    HW161091   4.214   4.337   8.826 -0.9770  0.3827 -0.7313
50771SOL    HW261092   4.228   4.338   8.676  0.3017 -1.8990 -0.6646
50772SOL     OW61093   5.593   0.029   0.928  0.3836 -0.0732 -0.5410
50772SOL    HW161094   5.686   0.006   0.934 -0.2729 -3.0268  0.1838
50772SOL    HW261095   5.557  -0.034   0.865 -1.0504  1.4297 -1.3047
50773SOL     OW61096   2.270   5.360   2.527 -0.5163 -0.2023  0.5689
50773SOL    HW161097   2.242   5.286   2.581  0.8283 -0.7409  0.5750
50773SOL    HW261098   2.334   5.323   2.467 -2.1523  0.3232 -1.6429
50774SOL     OW61099  11.687   5.990   3.884 -0.6006 -0.2411  0.6261
50774SOL    HW161100  11.713   5.898   3.879  0.6503  0.1191  0.0932
50774SOL    HW261101  11.770   6.038   3.885 -1.2171  0.8493  1.8383
50775SOL     OW61102   5.282   9.352   9.375 -0.1011 -0.2471 -0.1757
50775SOL    HW161103   5.315   9.316   9.293  0.8332  0.9669 -0.3654
50775SOL    HW261104   5.210   9.294   9.400 -0.2858 -0.7322 -1.7558
50776SOL     OW61105   6.171   1.043   7.024 -0.0617 -0.4760  0.2871
50776SOL    HW161106   6.077   1.059   7.026 -0.0409 -0.4159  1.6655
50776SOL    HW261107   6.190   1.022   6.933 -1.3601 -0.2119 -0.0601
50777SOL     OW61108   0.367   4.010   2.466 -0.0395 -0.1447  0.3362
50777SOL    HW161109   0.425   3.934   2.465 -0.7070 -0.6674  0.4673
50777SOL    HW261110   0.426   4.086   2.463  0.5978 -0.6620 -1.2482
50778SOL     OW61111  10.033   3.601   1.575  0.0724 -0.0457 -0.0597
50778SOL    HW161112  10.111   3.565   1.533  0.2064 -0.6063  0.6487
50778SOL    HW261113  10.045   3.696   1.569 -0.2961 -0.0926 -1.9528
50779SOL     OW61114   2.512   5.883   6.453  0.4648 -0.4161 -0.2763
50779SOL    HW161115   2.537   5.796   6.485  1.3626 -0.7236 -1.7106
50779SOL    HW261116   2.531   5.880   6.359 -0.9660  0.8173 -0.6517
50780SOL     OW61117   0.426   7.446   6.473 -0.1933  0.1829  0.2438
50780SOL    HW161118   0.490   7.514   6.494 -1.3184  1.2763  0.2399
50780SOL    HW261119   0.341   7.485   6.495 -0.9523 -0.8309 -0.7724
50781SOL     OW61120   8.557   4.048   1.761 -0.2192  0.0296 -0.3226
50781SOL    HW161121   8.598   3.997   1.830  0.2388 -0.7579 -1.1602
50781SOL    HW261122   8.614   4.124   1.750  0.0029 -0.1232 -0.2264
50782SOL     OW61123   8.814   0.621  10.198 -0.0909  0.6267 -0.6008
50782SOL    HW161124   8.896   0.577  10.217 -0.4872 -0.5669 -1.4917
50782SOL    HW261125   8.775   0.569  10.127 -1.7540  0.9707  0.0137
50783SOL     OW61126   6.200   7.521  11.491 -0.0870 -0.4875  0.1050
50783SOL    HW161127   6.239   7.519  11.579 -0.2044  1.3099  0.2515
50783SOL    HW261128   6.270   7.555  11.435 -0.2811 -0.7996 -0.3261
50784SOL     OW61129   1.253   7.280   9.064  0.0526 -0.8096  0.0392
50784SOL    HW161130   1.292   7.199   9.030  0.2032 -0.0963 -1.5658
50784SOL    HW261131   1.167   7.252   9.096 -0.0799 -1.5511 -0.8970
50785SOL     OW61132   3.031   5.140  11.170  0.1664  0.0933  0.0415
50785SOL    HW161133   3.066   5.145  11.259 -0.8613 -0.7025  0.5142
50785SOL    HW261134   2.952   5.194  11.173  0.3759  0.4361 -0.5225
50786SOL     OW61135   2.242   1.544  10.657 -0.4080  0.0983  0.6296
50786SOL    HW161136   2.209   1.479  10.720 -0.9425 -1.0576 -0.7853
50786SOL    HW261137   2.216   1.509  10.572  0.4651  1.5330 -0.2495
50787SOL     OW61138  12.477   0.508   6.371 -0.1747  0.0236 -0.3246
50787SOL    HW161139  12.396   0.528   6.324  0.1182 -1.8935 -1.7952
50787SOL    HW261140  12.501   0.590   6.414 -3.7689  0.2545  1.6273
50788SOL     OW61141   0.796  10.145   3.111  0.3744 -0.0016 -0.4494
50788SOL    HW161142   0.721  10.203   3.120  0.8750  0.3036  3.7089
50788SOL    HW261143   0.763  10.058   3.134  0.8962 -0.1744 -0.3220
50789SOL     OW61144  11.050   7.035  11.755 -0.4691  0.5400 -0.2699
50789SOL    HW161145  11.125   7.093  11.747  1.8399 -2.2380 -0.0229
50789SOL    HW261146  10.989   7.064  11.687  1.3588  2.0636 -1.3234
50790SOL     OW61147  12.023   2.099   9.653 -0.0432  0.4169 -0.3200
50790SOL    HW161148  12.004   2.113   9.746  1.1481 -0.5763  0.0944
50790SOL    HW261149  12.018   2.005   9.641  1.2508  0.4104 -0.9263
50791SOL     OW61150  11.263  10.233   2.232 -0.3288  0.3328 -0.1423
50791SOL    HW161151  11.184  10.219   2.179 -0.6098 -0.4440  0.4576
50791SOL    HW261152  11.282  10.147   2.268  1.8055  0.0995 -1.6390
50792SOL     OW61153   8.009   1.548  11.281 -0.0367  0.3074 -0.2591
50792SOL    HW161154   7.980   1.466  11.240 -2.0809  1.1060 -0.5073
50792SOL    HW261155   7.931   1.604  11.282  0.8813  1.6585  1.4340
50793SOL     OW61156   1.870  12.121   1.065 -0.3243  0.0139 -0.1303
50793SOL    HW161157   1.849  12.214   1.056 -2.8994 -0.4397  0.4245
50793SOL    HW261158   1.866  12.087   0.975  0.0048  0.3145 -0.2609
50794SOL     OW61159   9.115  11.724   4.276  0.2032  0.1867  0.5872
50794SOL    HW161160   9.197  11.696   4.236  1.1515  1.5485  1.5247
50794SOL    HW261161   9.069  11.642   4.296  1.7449 -0.6318  0.8892
50795SOL     OW61162   5.884   3.743   1.527  0.4257  0.5773 -0.4972
50795SOL    HW161163   5.891   3.719   1.619  1.6735  0.1231 -0.6762
50795SOL    HW261164   5.832   3.673   1.487 -0.2477  0.8586 -0.1141
50796SOL     OW61165   0.514  11.869   0.880  0.7036 -0.0818  0.1841
50796SOL    HW161166   0.443  11.934   0.876  1.5625  1.0406  1.9567
50796SOL    HW261167   0.470  11.787   0.903 -0.4232 -0.2747 -2.2950
50797SOL     OW61168   4.449   3.157   0.171 -0.2506 -0.5728 -0.5117
50797SOL    HW161169   4.534   3.154   0.128 -0.2635 -1.1154 -0.5002
50797SOL    HW261170   4.413   3.242   0.147 -0.1597 -0.7768 -1.3909
50798SOL     OW61171   4.094   3.123   3.683 -0.4512  0.4724  0.6483
50798SOL    HW161172   4.147   3.122   3.763  0.1420  1.6708  0.2939
50798SOL    HW261173   4.004   3.120   3.714 -0.2014 -0.7508  1.2954
50799SOL     OW61174   2.975   3.262   9.728 -0.5138 -0.7657 -0.4494
50799SOL    HW161175   2.914   3.336   9.729  1.1447  0.6614  0.1860
50799SOL    HW261176   2.959   3.219   9.644 -0.7713  0.9856 -1.3384
50800SOL     OW61177  10.454   6.653   1.110  0.3909 -0.2945 -0.1676
50800SOL    HW161178  10.481   6.574   1.158  1.1109 -0.9370 -1.5815
50800SOL    HW261179  10.396   6.620   1.041  0.0134  0.5170 -0.2404
50801SOL     OW61180  10.171   6.128   2.718 -0.2934  0.7124  0.9267
50801SOL    HW161181  10.149   6.063   2.785  1.4375  0.2646  1.1354
50801SOL    HW261182  10.187   6.208   2.767  0.3177  0.5530  1.0060
50802SOL     OW61183   6.891   9.452   8.358  0.8216 -0.1680 -0.7143
50802SOL    HW161184   6.805   9.451   8.316  0.9813 -0.0135 -1.0535
50802SOL    HW261185   6.892   9.374   8.413 -0.3693  0.9320  0.9912
50803SOL     OW61186   7.089   0.252   6.681  0.3783 -0.1691  0.1451
50803SOL    HW161187   7.031   0.272   6.754  1.1947 -0.1812  0.8086
50803SOL    HW261188   7.129   0.168   6.704 -0.8423 -1.1817 -1.2615
50804SOL     OW61189   0.091   0.457   0.229  0.5010 -0.0476  0.2348
50804SOL    HW161190  -0.003   0.442   0.229  0.3432  0.8771  0.0346
50804SOL    HW261191   0.129   0.370   0.221 -0.3360 -0.4180  0.1571
50805SOL     OW61192   5.588   6.713   9.128 -0.1410  0.1378  0.5167
50805SOL    HW161193   5.650   6.780   9.100  0.3649  0.0476  1.3739
50805SOL    HW261194   5.630   6.630   9.106 -0.0906  0.0824  0.8086
50806SOL     OW61195   5.679  12.276   9.620 -0.1731  0.1907 -0.2468
50806SOL    HW161196   5.759  12.324   9.597 -0.9324  1.4627 -0.3332
50806SOL    HW261197   5.656  12.308   9.707 -0.2458 -0.6412  0.0448
50807SOL     OW61198  11.786   2.755   6.914 -0.4824  0.7523 -1.1304
50807SOL    HW161199  11.851   2.795   6.856  0.5469 -0.4715 -0.8699
50807SOL    HW261200  11.815   2.779   7.002  1.9501 -2.8352 -0.7297
50808SOL     OW61201  11.354   4.047   6.524  0.1302 -0.2649 -0.2617
50808SOL    HW161202  11.289   3.985   6.490  1.8486 -1.4932 -1.4992
50808SOL    HW261203  11.402   4.076   6.446  1.7012 -0.1889  0.6948
50809SOL     OW61204   0.639   2.724  10.758 -0.0604 -0.4090 -0.5326
50809SOL    HW161205   0.580   2.664  10.805  1.5824 -1.5526  0.1655
50809SOL    HW261206   0.676   2.780  10.827  0.7903 -0.7073 -0.7335
50810SOL     OW61207  12.266   5.028   7.025  0.1428  0.1463  0.3961
50810SOL    HW161208  12.326   4.969   7.071 -0.7069 -1.1569 -0.1052
50810SOL    HW261209  12.200   4.970   6.987 -1.4744  1.5278  0.9743
50811SOL     OW61210   6.207   4.125   8.969 -0.5146 -0.5331 -0.3087
50811SOL    HW161211   6.291   4.107   9.012  0.0708  1.2364 -0.6384
50811SOL    HW261212   6.142   4.114   9.038 -0.0664 -2.2264 -0.1243
50812SOL     OW61213   5.324   5.975   5.411  0.5464  0.7774  0.2057
50812SOL    HW161214   5.255   5.910   5.400  2.0401 -0.5157 -2.7177
50812SOL    HW261215   5.284   6.058   5.386 -0.2329  0.2055 -0.4912
50813SOL     OW61216   5.825  12.422  11.720 -0.3330  0.1932  0.5412
50813SOL    HW161217   5.759  12.423  11.651  0.3440  1.3453 -0.1087
50813SOL    HW261218   5.855  12.331  11.723 -1.1656 -0.1018  0.1001
50814SOL     OW61219   5.128   7.774   8.049 -0.0051 -0.1038  0.0901
50814SOL    HW161220   5.055   7.830   8.025 -1.2418 -1.8612 -0.4909
50814SOL    HW261221   5.110   7.747   8.139 -0.4750 -1.0830 -0.2808
50815SOL     OW61222  10.900   4.106   8.189  0.3015 -0.2982  0.0709
50815SOL    HW161223  10.887   4.060   8.272  0.7754 -0.7078 -0.0813
50815SOL    HW261224  10.869   4.195   8.206  1.8434  0.0616  1.1562
50816SOL     OW61225   8.491  11.397   9.884 -0.2539 -0.2945  0.1699
50816SOL    HW161226   8.484  11.307   9.852  1.3981 -1.4540  2.6474
50816SOL    HW261227   8.581  11.402   9.918 -0.6501  1.9624  1.0277
50817SOL     OW61228   8.788  11.078   6.416 -0.5785  0.1582 -0.2707
50817SOL    HW161229   8.838  11.029   6.350 -1.1073  0.0182 -0.5732
50817SOL    HW261230   8.715  11.021   6.437  0.3217 -0.4213  1.4845
50818SOL     OW61231   5.770   9.889   4.709  0.1995  0.4198 -0.1206
50818SOL    HW161232   5.675   9.899   4.708 -0.0370 -1.5969 -0.2775
50818SOL    HW261233   5.787   9.823   4.775  1.7642  2.6370  1.8908
50819SOL     OW61234   2.733   3.240   0.370 -0.4638 -0.1531  0.0987
50819SOL    HW161235   2.746   3.335   0.376 -0.0720 -0.1644 -0.5057
50819SOL    HW261236   2.658   3.229   0.312  0.5250 -0.2414 -1.2197
50820SOL     OW61237  10.568  11.455  10.576 -0.3350  0.4340 -0.5072
50820SOL    HW161238  10.542  11.508  10.651  0.2425 -0.5487  0.4339
50820SOL    HW261239  10.516  11.375  10.585 -0.3331  0.3525 -1.2177
50821SOL     OW61240   8.372   5.601  10.341 -0.2419  0.2405  0.2475
50821SOL    HW161241   8.294   5.567  10.297 -1.2127  2.4956  0.1165
50821SOL    HW261242   8.347   5.609  10.433  0.7674 -1.5451  0.7217
50822SOL     OW61243   0.433   5.591  10.614  0.1634  0.1855  0.2666
50822SOL    HW161244   0.442   5.628  10.702 -1.7615 -2.0678  1.5176
50822SOL    HW261245   0.340   5.569  10.607  0.6243 -1.3913 -1.6096
50823SOL     OW61246   3.792  10.086   2.765 -0.6888  0.1633 -0.1835
50823SOL    HW161247   3.800  10.177   2.738  1.6616  0.6198  1.6728
50823SOL    HW261248   3.797  10.089   2.861  1.2128 -1.9955 -0.1283
50824SOL     OW61249   0.241   1.583   6.783  0.1931  0.0016 -0.4836
50824SOL    HW161250   0.246   1.676   6.761 -0.4573  0.3383  0.7200
50824SOL    HW261251   0.170   1.577   6.847  1.9491 -0.9244  1.4725
50825SOL     OW61252   5.166   5.896   3.093 -0.6904  0.0645  0.5461
50825SOL    HW161253   5.093   5.955   3.075 -0.0707  0.8141  0.4431
50825SOL    HW261254   5.126   5.809   3.095 -1.3846  0.3247 -0.7428
50826SOL     OW61255  11.244   3.986  12.482 -0.3602  0.4110 -0.4212
50826SOL    HW161256  11.245   3.912  12.541 -1.6641  0.8453  0.1752
50826SOL    HW261257  11.244   3.948  12.394 -0.9518 -0.2848 -0.1185
50827SOL     OW61258   6.030   7.204   3.421  0.4854  0.0532  0.3687
50827SOL    HW161259   5.987   7.146   3.358  0.6467 -0.2746  0.5622
50827SOL    HW261260   6.050   7.148   3.496 -0.8088  0.6865  1.2389
50828SOL     OW61261   7.140   7.781   6.381  0.3574 -0.1258 -0.0121
50828SOL    HW161262   7.208   7.721   6.350  0.9983 -0.8332  2.5535
50828SOL    HW261263   7.062   7.754   6.333  1.4219 -0.5702 -1.5931
50829SOL     OW61264   6.288   9.191   1.807 -0.4155  0.1227  0.1434
50829SOL    HW161265   6.372   9.146   1.809 -0.7551 -0.4822  0.8579
50829SOL    HW261266   6.224   9.122   1.790 -0.6219  0.8222 -2.3829
50830SOL     OW61267   8.356   8.890   9.663 -0.3581  0.1476 -0.3753
50830SOL    HW161268   8.348   8.803   9.703 -1.3017 -0.5976 -2.0666
50830SOL    HW261269   8.271   8.931   9.677  0.1084  0.8614  0.4822
50831SOL     OW61270   8.958   7.428   4.197  0.5293  0.3099 -0.0348
50831SOL    HW161271   8.955   7.333   4.186 -0.7846  0.5170 -2.0476
50831SOL    HW261272   8.866   7.456   4.189  0.6183  1.6053  2.4894
50832SOL     OW61273   3.763   1.167  10.554 -0.3273  0.3607  0.1463
50832SOL    HW161274   3.685   1.175  10.499 -0.1070  0.4582 -0.1543
50832SOL    HW261275   3.728   1.154  10.642 -0.6886 -1.4920 -0.2433
50833SOL     OW61276   2.301  10.538   8.103 -0.0655  0.1838 -0.1535
50833SOL    HW161277   2.330  10.463   8.052  3.8366  2.7149 -2.1850
50833SOL    HW261278   2.211  10.555   8.073 -1.6271 -4.1411  1.3374
50834SOL     OW61279  11.944   2.437   1.565 -0.1297  0.2690 -0.2152
50834SOL    HW161280  11.984   2.492   1.498 -0.1392 -0.1865 -0.5983
50834SOL    HW261281  11.850   2.447   1.553 -0.2165  2.3223  1.4775
50835SOL     OW61282   7.788   3.752   1.588 -0.5826  0.4162 -0.0449
50835SOL    HW161283   7.832   3.806   1.522  0.7041  0.4528  0.7923
50835SOL    HW261284   7.826   3.782   1.671  0.1966 -1.7677  0.4374
50836SOL     OW61285  12.095   7.029   1.334 -0.0142  0.0402 -0.3517
50836SOL    HW161286  12.093   7.123   1.353 -0.8671 -0.1609  0.6050
50836SOL    HW261287  12.178   7.016   1.288 -0.4232  1.4490 -1.5516
50837SOL     OW61288   1.643   5.644   4.667 -0.2591  0.3239 -0.1786
50837SOL    HW161289   1.637   5.717   4.605  0.1368  0.7793  0.3122
50837SOL    HW261290   1.595   5.673   4.744  0.7701  0.5028  0.4200
50838SOL     OW61291   1.259   9.981   3.796  0.4598  0.0993 -0.3752
50838SOL    HW161292   1.310   9.930   3.859 -1.4921  0.4393  1.6259
50838SOL    HW261293   1.297  10.068   3.799  0.7765 -0.0437 -0.1435
50839SOL     OW61294   7.064  10.069   2.953  0.5472 -0.0171  0.1851
50839SOL    HW161295   7.109  10.101   2.875 -0.2920  0.6955 -0.0154
50839SOL    HW261296   6.998  10.008   2.920 -0.0558  0.5614  0.2849
50840SOL     OW61297   7.277   1.525   3.238 -0.0351 -1.1076 -0.2977
50840SOL    HW161298   7.202   1.583   3.228  0.3104 -0.3634  1.1967
50840SOL    HW261299   7.350   1.573   3.199  0.5939  0.2696  2.3574
50841SOL     OW61300   5.818  11.004   2.105  0.1107 -0.2623  0.1543
50841SOL    HW161301   5.826  11.098   2.089  1.2855 -0.4316 -0.3659
50841SOL    HW261302   5.749  10.997   2.171  0.1511  0.9726  0.3588
50842SOL     OW61303  11.941   6.621   1.236  0.1400 -0.3588  0.2663
50842SOL    HW161304  12.003   6.569   1.185 -0.5959 -1.9527  0.8992
50842SOL    HW261305  11.934   6.704   1.189  0.9750 -1.0211 -1.0930
50843SOL     OW61306  11.312   3.101   2.185  0.5663 -1.0302  0.1436
50843SOL    HW161307  11.264   3.032   2.139 -2.0090 -0.8837  2.3019
50843SOL    HW261308  11.329   3.167   2.118  0.0018 -2.2501 -1.2738
50844SOL     OW61309   0.360   9.798  10.970 -0.6126 -0.4205 -0.1639
50844SOL    HW161310   0.366   9.715  10.922 -0.1041 -0.9031  0.7069
50844SOL    HW261311   0.424   9.789  11.040  0.4177  1.2696 -0.8456
50845SOL     OW61312   3.329   2.989   4.955  0.1586 -0.0051 -0.6403
50845SOL    HW161313   3.254   2.932   4.941  0.1190  0.5016 -2.8029
50845SOL    HW261314   3.372   2.994   4.870  2.5103 -0.0527  0.4672
50846SOL     OW61315   7.095  12.353  10.158 -0.0002  0.4078 -0.4052
50846SOL    HW161316   7.088  12.278  10.217 -2.0131 -1.2208 -2.5356
50846SOL    HW261317   7.035  12.418  10.195  0.2982  0.2525  0.3891
50847SOL     OW61318   7.442   8.083  11.250 -0.3324  0.3032 -0.1586
50847SOL    HW161319   7.379   8.146  11.217  0.8177  0.6802 -1.7311
50847SOL    HW261320   7.444   8.014  11.184  0.4487 -0.0082  0.1786
50848SOL     OW61321   0.551  12.534   0.731  0.0766  0.2893  0.0607
50848SOL    HW161322   0.631  12.514   0.780 -0.8931  1.1309  2.1192
50848SOL    HW261323   0.482  12.491   0.781 -0.9128  0.6545 -0.9567
50849SOL     OW61324   5.565   7.302   0.713 -0.3241 -0.3220 -0.4156
50849SOL    HW161325   5.602   7.249   0.784 -0.5602  0.9936  0.7307
50849SOL    HW261326   5.478   7.326   0.745  0.5529  2.5311  0.1002
50850SOL     OW61327   7.555  12.525   6.921  0.3182 -0.1154 -0.3031
50850SOL    HW161328   7.513  12.593   6.973 -0.2532 -0.9164  0.3017
50850SOL    HW261329   7.587  12.571   6.843  0.1011  0.8700  0.1771
50851SOL     OW61330   7.946   6.997   4.228 -0.5706  0.0708  0.0400
50851SOL    HW161331   7.906   7.065   4.282  0.4970  0.2351  0.6467
50851SOL    HW261332   7.910   6.915   4.262 -3.1370  0.3191 -1.7385
50852SOL     OW61333   3.907   3.277   3.253  0.0192 -0.7177  0.6241
50852SOL    HW161334   3.956   3.325   3.319  1.4113  1.4785 -1.8164
50852SOL    HW261335   3.947   3.190   3.251  1.9027  0.1090  0.7061
50853SOL     OW61336  11.957  12.236  10.655 -0.0368 -0.1702 -0.1098
50853SOL    HW161337  12.011  12.305  10.695  1.0338 -0.6599 -0.6902
50853SOL    HW261338  11.991  12.155  10.692 -0.8925 -0.4453  0.0944
50854SOL     OW61339   1.343   6.244   3.264 -0.0596 -0.7699  0.1285
50854SOL    HW161340   1.334   6.171   3.325 -0.7988 -0.7892 -0.0000
50854SOL    HW261341   1.270   6.234   3.203  0.6753 -0.7535 -0.7740
50855SOL     OW61342   1.075   3.662   6.753 -0.0227 -0.3596  0.4900
50855SOL    HW161343   1.130   3.730   6.713 -0.9801  0.2003  0.0975
50855SOL    HW261344   1.124   3.581   6.740 -0.2560 -0.1998 -1.8272
50856SOL     OW61345  11.906   9.427  10.033 -0.4964 -0.5144  0.1990
50856SOL    HW161346  11.890   9.436   9.939  0.8642 -3.7056 -0.4641
50856SOL    HW261347  11.978   9.487  10.051 -2.2722  1.8667 -0.2108
50857SOL     OW61348  12.053   7.377   7.704  0.1898 -0.1445  0.0702
50857SOL    HW161349  12.009   7.438   7.764 -1.2153  1.3368 -2.2889
50857SOL    HW261350  12.138   7.417   7.687  0.9237 -0.9853  1.6319
50858SOL     OW61351  10.955   4.529   7.961 -0.1881 -0.1679  0.2947
50858SOL    HW161352  10.960   4.613   7.917 -0.5875 -0.2938 -0.0028
50858SOL    HW261353  11.036   4.484   7.938  0.3171  0.3806  0.9779
50859SOL     OW61354   1.616  11.622   2.986 -0.5469 -0.0786  0.1875
50859SOL    HW161355   1.666  11.679   3.044 -0.1543 -0.1885 -0.0450
50859SOL    HW261356   1.679  11.589   2.923 -1.1846  1.0983 -1.1424
50860SOL     OW61357   2.948   1.702   3.002  0.5180  0.0355 -0.5643
50860SOL    HW161358   2.891   1.737   2.934 -0.7221 -0.6215  0.0773
50860SOL    HW261359   3.024   1.669   2.956  1.2197  2.4903 -1.2898
50861SOL     OW61360  12.042   0.262   1.711 -0.0033  0.0814 -0.1842
50861SOL    HW161361  11.972   0.294   1.768 -0.0991 -0.6970  0.1508
50861SOL    HW261362  12.037   0.318   1.633 -0.4277  0.5983  0.2064
50862SOL     OW61363  12.484   9.423  11.831 -0.6044  0.1453 -0.0244
50862SOL    HW161364  12.396   9.427  11.869 -0.8491  0.0229 -0.5608
50862SOL    HW261365  12.499   9.511  11.797 -0.3753  0.2614  0.3805
50863SOL     OW61366   4.762  12.399   2.299  0.1586  0.6372  0.0579
50863SOL    HW161367   4.795  12.353   2.377 -0.0385  1.7293  0.8065
50863SOL    HW261368   4.734  12.329   2.240  1.1174 -0.2361  0.6006
50864SOL     OW61369   6.084   8.397   6.461 -0.0696 -0.5414 -0.4879
50864SOL    HW161370   6.037   8.480   6.463 -1.2113 -1.0008 -3.4822
50864SOL    HW261371   6.172   8.419   6.431  0.8473 -0.0510  2.2926
50865SOL     OW61372   4.131   1.179   6.506 -0.0579 -0.3008 -0.1896
50865SOL    HW161373   4.042   1.167   6.537  0.1000 -2.7344 -0.4328
50865SOL    HW261374   4.180   1.105   6.543  1.9735  1.1570  0.2397
50866SOL     OW61375   3.758   6.664  11.556  0.1791  0.1014 -0.4964
50866SOL    HW161376   3.827   6.621  11.505  0.2100 -0.0878 -0.2950
50866SOL    HW261377   3.770   6.757  11.539  0.3466  0.0548 -0.6374
50867SOL     OW61378   0.295   2.917   8.112  0.3521  0.3729 -0.0388
50867SOL    HW161379   0.313   2.864   8.189  0.0973  0.7992  0.3214
50867SOL    HW261380   0.372   2.906   8.056 -0.3754 -1.6321 -0.7100
50868SOL     OW61381  12.156   2.135   6.592  0.5924 -0.3125  0.1802
50868SOL    HW161382  12.160   2.226   6.562  0.4725 -0.0343  0.9863
50868SOL    HW261383  12.111   2.140   6.676 -0.7703 -1.2888 -0.4433
50869SOL     OW61384   7.387  10.168   9.047  0.1864  0.4813  0.3604
50869SOL    HW161385   7.424  10.123   9.123 -1.0425 -0.7934  0.2482
50869SOL    HW261386   7.457  10.166   8.981  0.1148 -1.5758  0.2640
50870SOL     OW61387  10.756   6.790   6.382  0.0558 -0.7482  0.0516
50870SOL    HW161388  10.755   6.848   6.458  0.7064 -1.4701  0.6242
50870SOL    HW261389  10.751   6.850   6.307  1.6359  0.1374  0.5965
50871SOL     OW61390   5.628   5.745   8.312 -0.2181  0.2725 -0.2455
50871SOL    HW161391   5.661   5.742   8.402  1.2935  0.9648 -0.7255
50871SOL    HW261392   5.544   5.700   8.315  1.3788 -2.9217  0.8164
50872SOL     OW61393  11.836   7.133  10.162 -0.1814 -0.4229  0.1549
50872SOL    HW161394  11.788   7.062  10.204 -1.2348  0.0433 -0.2405
50872SOL    HW261395  11.926   7.100  10.156 -0.2591 -0.9731  1.6391
50873SOL     OW61396   5.364   8.483   1.754 -0.0461  0.2807 -0.2033
50873SOL    HW161397   5.322   8.401   1.727  0.3968  0.1671 -0.5541
50873SOL    HW261398   5.307   8.517   1.824 -2.3501  1.5878 -2.5235
50874SOL     OW61399  11.859   3.574   5.369 -0.1097 -0.1495 -0.1242
50874SOL    HW161400  11.783   3.538   5.415 -0.1334  0.3108  0.2129
50874SOL    HW261401  11.922   3.593   5.439  0.2824 -0.4451 -0.3923
50875SOL     OW61402   3.409   4.897  10.429  0.0466  0.2741  0.4153
50875SOL    HW161403   3.463   4.819  10.444  0.0919  0.3992  0.9194
50875SOL    HW261404   3.338   4.866  10.373 -0.0631 -0.1931  0.7975
50876SOL     OW61405  10.036   5.772   9.153  0.1863  0.1172 -0.2699
50876SOL    HW161406  10.007   5.757   9.063 -2.5072  1.7811  0.1839
50876SOL    HW261407  10.025   5.687   9.196  0.5132 -0.4460 -1.2704
50877SOL     OW61408   6.117   7.518   2.092  0.7036 -0.1764 -0.9034
50877SOL    HW161409   6.045   7.578   2.111 -0.1174 -0.9116 -1.5885
50877SOL    HW261410   6.191   7.574   2.071  0.7680  0.6273  1.2523
50878SOL     OW61411   6.941  11.267  10.419  0.1491 -0.5963  0.5829
50878SOL    HW161412   6.886  11.308  10.352  0.6688 -1.2513 -0.2601
50878SOL    HW261413   6.993  11.339  10.455  1.7729 -0.6173 -1.5680
50879SOL     OW61414   7.812   3.204   1.056 -0.1576  0.1967  0.4223
50879SOL    HW161415   7.795   3.206   0.962  0.6352 -0.8433  0.2322
50879SOL    HW261416   7.744   3.146   1.092 -1.0767  1.3831  0.6568
50880SOL     OW61417   0.687   6.383   0.520  0.3174 -0.6317  0.5509
50880SOL    HW161418   0.741   6.407   0.444  0.9567 -2.2811  0.4454
50880SOL    HW261419   0.699   6.455   0.581  0.5539  0.2775 -0.5202
50881SOL     OW61420   9.513   2.632  11.105 -0.4555  0.6457  0.4790
50881SOL    HW161421   9.522   2.727  11.116  0.7508  0.4166  1.6666
50881SOL    HW261422   9.557   2.613  11.022 -0.0642  1.0373  0.5929
50882SOL     OW61423   6.999  11.717  10.080 -0.1627 -0.0975  0.7325
50882SOL    HW161424   7.039  11.784  10.026 -2.1734  0.7668  0.2012
50882SOL    HW261425   7.058  11.707  10.155  0.3673  2.0180  0.6393
50883SOL     OW61426   3.250   5.312   7.653 -0.0416 -0.6040 -0.1920
50883SOL    HW161427   3.222   5.383   7.595 -1.6449 -1.4395 -0.5138
50883SOL    HW261428   3.190   5.319   7.728  0.9087 -0.5819  0.5757
50884SOL     OW61429   1.863   5.266  11.012 -0.1229 -0.5485  0.0174
50884SOL    HW161430   1.952   5.260  11.048 -0.5943 -1.4175  1.0760
50884SOL    HW261431   1.816   5.323  11.073 -0.5429 -0.8541 -0.0170
50885SOL     OW61432   7.647   0.310   6.388  0.5379  0.7489  0.4199
50885SOL    HW161433   7.555   0.294   6.409  0.5411  0.7541  0.4395
50885SOL    HW261434   7.661   0.402   6.411  0.1166  1.2136 -1.1105
50886SOL     OW61435   1.715   8.320   5.131  0.4860  0.1210  0.4338
50886SOL    HW161436   1.710   8.239   5.181  0.9553  0.0615  0.3887
50886SOL    HW261437   1.727   8.388   5.198 -1.0708  0.3073  0.5733
50887SOL     OW61438  11.048   7.270  10.223  0.8094 -0.5900 -0.3216
50887SOL    HW161439  11.054   7.175  10.231  0.2704 -0.5400  0.9522
50887SOL    HW261440  11.033   7.286  10.129  1.8724 -1.6861 -0.6990
50888SOL     OW61441   1.446   2.352   6.036 -0.4016 -0.2967  0.3512
50888SOL    HW161442   1.495   2.306   5.968  1.7159  1.7283  0.3774
50888SOL    HW261443   1.450   2.293   6.112  2.9172  0.0725  0.6352
50889SOL     OW61444   8.891   4.720   1.242 -0.4611  0.3663 -0.0206
50889SOL    HW161445   8.971   4.717   1.190 -1.4396 -0.3395 -1.5485
50889SOL    HW261446   8.828   4.668   1.193 -0.7902 -2.4755  3.0283
50890SOL     OW61447   3.608   5.660   9.510  0.3431 -0.1500  0.3737
50890SOL    HW161448   3.671   5.665   9.582  0.9097  0.3406 -0.1509
50890SOL    HW261449   3.552   5.736   9.522  0.8855  0.3348 -0.1092
50891SOL     OW61450   5.266   8.518  10.922 -0.6367 -0.1993 -0.0956
50891SOL    HW161451   5.293   8.442  10.870 -0.3591  0.3996 -0.8452
50891SOL    HW261452   5.297   8.594  10.871 -1.1819  0.4234  0.4864
50892SOL     OW61453   2.972   1.768   4.425 -0.2718  0.0380  0.4289
50892SOL    HW161454   2.943   1.711   4.496  1.9544 -0.8307  0.7160
50892SOL    HW261455   2.907   1.755   4.356 -0.4742 -1.9766  0.9312
50893SOL     OW61456   4.464   4.153   8.018 -0.0849  0.4415  0.2348
50893SOL    HW161457   4.547   4.184   7.982  0.2013 -0.9904 -0.4092
50893SOL    HW261458   4.408   4.137   7.942 -0.1707 -0.7162  0.5143
50894SOL     OW61459  12.559   2.309   0.242  0.6795 -0.1615 -0.6790
50894SOL    HW161460  12.478   2.359   0.234  0.7239 -0.3021 -2.5192
50894SOL    HW261461  12.550   2.239   0.177  1.4293 -1.4142  0.5085
50895SOL     OW61462   5.415   5.942  11.964 -0.0653  0.2355  0.2786
50895SOL    HW161463   5.386   5.973  12.050 -0.6900  1.7358 -0.4488
50895SOL    HW261464   5.416   6.020  11.909  2.1867 -0.3471 -0.6211
50896SOL     OW61465  11.803   4.482   1.100  0.3029 -0.0222 -0.1451
50896SOL    HW161466  11.731   4.544   1.101  0.8495  0.6547  1.3215
50896SOL    HW261467  11.866   4.519   1.038  0.2837  0.4856  0.1342
50897SOL     OW61468   7.867   5.970   0.496  0.3993  0.2204 -0.5240
50897SOL    HW161469   7.848   6.033   0.565 -0.3642  0.3455 -0.8384
50897SOL    HW261470   7.948   6.002   0.455 -0.6692  1.7680 -1.5367
50898SOL     OW61471  10.444   3.671   2.539  0.0832  0.4282 -0.2062
50898SOL    HW161472  10.530   3.690   2.501 -0.0463  1.6185  0.0504
50898SOL    HW261473  10.396   3.753   2.531 -2.3962 -1.0751 -3.7407
50899SOL     OW61474   7.242  11.595   4.262 -0.1130 -0.4332  0.5487
50899SOL    HW161475   7.150  11.584   4.239  0.0536  1.9702 -1.7721
50899SOL    HW261476   7.281  11.509   4.248 -1.8338 -1.3188  0.8776
50900SOL     OW61477   2.214   9.464  10.455  0.2830  0.5886  0.3115
50900SOL    HW161478   2.208   9.371  10.430 -1.6639  0.8102 -0.1857
50900SOL    HW261479   2.251   9.463  10.543 -0.8008 -0.7500  0.7865
50901SOL     OW61480   4.806  11.459   0.668 -0.3166  0.2540  0.0126
50901SOL    HW161481   4.894  11.480   0.638 -0.2234 -1.4643 -1.0727
50901SOL    HW261482   4.760  11.430   0.589 -0.2448 -3.9363  1.2391
50902SOL     OW61483   0.824  11.935   0.582 -0.6053  0.1701 -0.0258
50902SOL    HW161484   0.793  11.973   0.664  2.3997 -1.9104  2.2901
50902SOL    HW261485   0.784  11.848   0.579 -0.0890 -0.0618 -0.3464
50903SOL     OW61486   9.175   7.266   1.793  0.4766  0.0385  0.4869
50903SOL    HW161487   9.177   7.212   1.714 -0.4486  0.2488  0.3077
50903SOL    HW261488   9.267   7.292   1.807  1.1045 -2.3235  1.1239
50904SOL     OW61489   8.456   1.129  11.318 -0.0223  0.0515 -0.1856
50904SOL    HW161490   8.410   1.204  11.280  1.5390  0.6558 -0.9661
50904SOL    HW261491   8.413   1.053  11.280 -2.3994  0.4392  1.4929
50905SOL     OW61492   3.233   8.378   7.345 -0.3806 -0.2658  0.1453
50905SOL    HW161493   3.280   8.326   7.409 -1.7420 -0.5639  0.9496
50905SOL    HW261494   3.212   8.317   7.275 -0.4198 -0.3614  0.2410
50906SOL     OW61495   3.024   5.659  11.787 -0.0993 -0.1092 -0.4073
50906SOL    HW161496   3.007   5.565  11.788  1.2094 -0.3661 -0.1772
50906SOL    HW261497   2.977   5.691  11.710 -0.3706 -0.9828 -0.6200
50907SOL     OW61498   9.638  10.915   8.092  0.0762  0.7498 -0.2758
50907SOL    HW161499   9.563  10.974   8.092 -0.9669 -0.4556  1.7860
50907SOL    HW261500   9.711  10.970   8.064 -1.1131  2.6215  0.0966
50908SOL     OW61501   7.767  10.414   6.685  0.1605 -0.1305 -0.0495
50908SOL    HW161502   7.726  10.350   6.626 -0.4935  0.2722 -0.0526
50908SOL    HW261503   7.845  10.443   6.639 -0.9734  1.0807 -1.3220
50909SOL     OW61504   6.070   7.773  10.291  0.6890 -0.1688 -0.2358
50909SOL    HW161505   6.016   7.771  10.370  0.6075 -0.1933 -0.2917
50909SOL    HW261506   6.098   7.683  10.279  0.1912 -0.2844 -0.5831
50910SOL     OW61507   0.470   1.022   0.924  0.3480 -0.3321 -0.8178
50910SOL    HW161508   0.562   1.020   0.947 -0.1161  0.6394  1.3820
50910SOL    HW261509   0.467   1.064   0.838  1.9190 -0.1762 -0.8131
50911SOL     OW61510  11.066   6.819   8.017  0.5309  0.1704 -0.1627
50911SOL    HW161511  11.079   6.897   7.963 -1.4041 -0.3459 -1.4716
50911SOL    HW261512  11.067   6.852   8.107 -2.6646  2.2198 -0.7222
50912SOL     OW61513   5.952   0.308   6.858 -0.4452  0.0507 -0.2360
50912SOL    HW161514   6.008   0.341   6.787  0.2548 -0.7905 -0.0885
50912SOL    HW261515   5.996   0.229   6.889 -1.1098  0.0209  0.6776
50913SOL     OW61516   1.285   0.062   7.201 -0.2151 -0.5273 -0.1774
50913SOL    HW161517   1.266   0.127   7.269 -2.9198 -1.2169 -0.1566
50913SOL    HW261518   1.235  -0.015   7.228 -0.0573 -1.3515 -2.1234
50914SOL     OW61519   7.516   5.824   6.595 -0.0064  0.1485 -0.3763
50914SOL    HW161520   7.462   5.822   6.516 -0.2039  1.4498 -0.3004
50914SOL    HW261521   7.478   5.894   6.648  1.3570  0.6602 -0.0306
50915SOL     OW61522   4.610   8.710   3.125  0.7075 -0.3604 -0.4254
50915SOL    HW161523   4.629   8.686   3.216 -0.6735 -0.8217 -0.2302
50915SOL    HW261524   4.519   8.684   3.112  1.2933 -1.7131 -2.4077
50916SOL     OW61525  12.571   0.029   7.021 -0.0625 -0.2091 -0.2154
50916SOL    HW161526  12.542  -0.006   6.937  1.2741 -4.3241  0.8417
50916SOL    HW261527  12.494   0.021   7.077 -0.7209  1.8094 -0.7470
50917SOL     OW61528   2.506   1.811  12.461  0.6313  0.3832  0.1806
50917SOL    HW161529   2.592   1.802  12.501  0.1369  0.1689  1.2265
50917SOL    HW261530   2.501   1.903  12.434  1.1065  0.4391  0.2924
50918SOL     OW61531   8.827   3.444   8.289  0.3208  0.0254  0.1437
50918SOL    HW161532   8.878   3.370   8.321 -0.2657 -0.3443  0.2437
50918SOL    HW261533   8.811   3.423   8.197  0.1084  0.0038  0.1860
50919SOL     OW61534  10.447   4.698   1.152 -0.0801 -0.6241  0.2200
50919SOL    HW161535  10.424   4.612   1.118  0.1720 -0.4727 -0.3471
50919SOL    HW261536  10.406   4.760   1.091  1.0058 -0.3474 -0.2521
50920SOL     OW61537   5.092   4.428  10.209  0.5811 -0.5495  0.2246
50920SOL    HW161538   5.181   4.422  10.173  0.7965  0.3378  0.5821
50920SOL    HW261539   5.036   4.435  10.132  0.9548  0.3757  0.0292
50921SOL     OW61540   9.500  11.115   9.130  0.4934 -0.5355 -0.1726
50921SOL    HW161541   9.486  11.209   9.140 -1.6598 -0.8311  0.1705
50921SOL    HW261542   9.590  11.101   9.158  1.4310  1.6277 -1.8540
50922SOL     OW61543  10.440   8.625   6.935 -0.2493 -0.7292 -0.0537
50922SOL    HW161544  10.533   8.611   6.952 -0.2626 -1.2071 -0.3534
50922SOL    HW261545  10.407   8.666   7.015  0.3249 -0.0763 -0.1442
50923SOL     OW61546  10.034   9.707   1.829 -0.4507  0.2289  0.1458
50923SOL    HW161547  10.100   9.724   1.897  0.5289  0.3783 -0.8223
50923SOL    HW261548  10.016   9.614   1.837  1.7136 -0.3563 -1.1560
50924SOL     OW61549   2.075   8.847   2.432  0.0131  0.2989  0.4919
50924SOL    HW161550   2.047   8.801   2.353 -0.2999 -0.8349  1.2404
50924SOL    HW261551   2.169   8.860   2.420 -0.3275  1.9134 -0.9206
50925SOL     OW61552   5.769   0.784   6.456 -0.3357  0.7056 -0.7693
50925SOL    HW161553   5.736   0.696   6.438  0.0938  0.2712  0.4310
50925SOL    HW261554   5.859   0.783   6.423  0.1008  0.2512  0.3714
50926SOL     OW61555   2.972   6.942   8.349  0.0485  0.1611  0.0503
50926SOL    HW161556   3.031   6.996   8.296 -2.1239  0.5133 -2.2289
50926SOL    HW261557   2.908   7.004   8.384 -1.1653 -0.6306 -0.7156
50927SOL     OW61558   7.349   0.216   8.602 -0.1342 -0.5984 -0.4296
50927SOL    HW161559   7.395   0.263   8.671 -2.1269  0.1844  0.4458
50927SOL    HW261560   7.317   0.285   8.543 -0.0271 -1.1295 -1.1278
50928SOL     OW61561  10.038  11.990   7.974 -0.0877  0.2077  0.7573
50928SOL    HW161562  10.042  12.034   7.888  0.9646 -1.1430  0.0834
50928SOL    HW261563  10.070  12.056   8.035  3.3156 -0.1002 -0.4762
50929SOL     OW61564   2.569   9.311  11.085  0.1967 -0.1284 -0.1877
50929SOL    HW161565   2.505   9.301  11.155 -1.0073  1.5106 -0.9865
50929SOL    HW261566   2.588   9.405  11.084  0.7710 -0.2389 -1.5479
50930SOL     OW61567   2.721  12.150   4.217  0.0268 -0.0582  0.1363
50930SOL    HW161568   2.775  12.228   4.234  0.1805 -0.1422  0.0367
50930SOL    HW261569   2.650  12.155   4.281  1.5877 -1.3583  2.0857
50931SOL     OW61570   7.684   1.428   5.126 -0.4444  0.1375  0.1725
50931SOL    HW161571   7.651   1.346   5.164 -0.6901 -0.4358 -1.2071
50931SOL    HW261572   7.614   1.456   5.066  0.2766  0.5608 -0.4808
50932SOL     OW61573  10.537   0.677   9.413  0.1575 -0.0276 -0.3337
50932SOL    HW161574  10.591   0.717   9.345 -1.0530 -0.7266 -1.7660
50932SOL    HW261575  10.572   0.588   9.423  0.9421  0.3740  0.6880
50933SOL     OW61576  10.065   2.120  10.105 -0.5022  0.6057  0.6773
50933SOL    HW161577  10.026   2.109  10.018 -2.4872 -0.3663  1.6214
50933SOL    HW261578  10.003   2.077  10.164  0.3210  2.0410  2.6887
50934SOL     OW61579   6.179   1.801   3.655  0.2187  0.3559 -0.6700
50934SOL    HW161580   6.206   1.711   3.635 -1.3383 -0.9308  2.3645
50934SOL    HW261581   6.091   1.808   3.617  1.1033  1.4063 -2.6843
50935SOL     OW61582  11.126   1.047  12.118 -0.0504  0.2893 -0.3396
50935SOL    HW161583  11.213   1.085  12.104  0.3491 -0.4014  0.2304
50935SOL    HW261584  11.073   1.082  12.045  0.7151  0.6450 -0.7421
50936SOL     OW61585  11.495   1.057   6.686  0.3623 -0.9934  0.0716
50936SOL    HW161586  11.454   0.980   6.648 -0.0222 -0.0065 -1.5980
50936SOL    HW261587  11.434   1.085   6.755 -0.1793 -1.3802 -0.2477
50937SOL     OW61588  11.176   4.887   4.115  0.6653 -0.0457 -0.0950
50937SOL    HW161589  11.196   4.801   4.078 -0.0692 -1.2428  2.1015
50937SOL    HW261590  11.207   4.882   4.205 -1.9429  0.9438  0.9540
50938SOL     OW61591   6.176   4.716   1.298  0.0347 -0.5149  0.4625
50938SOL    HW161592   6.116   4.720   1.372  1.4837 -1.6362  1.7614
50938SOL    HW261593   6.157   4.632   1.256 -0.6726  0.0458 -0.3744
50939SOL     OW61594   2.803   2.550  11.242  0.0653 -0.2129 -0.3541
50939SOL    HW161595   2.869   2.574  11.307 -1.9690 -0.5111  1.9633
50939SOL    HW261596   2.741   2.622  11.243 -0.8038 -0.9343 -0.8383
50940SOL     OW61597   3.581   7.114   7.061 -0.5674 -0.0953  0.1208
50940SOL    HW161598   3.631   7.141   6.984  0.7052 -2.4000  0.0532
50940SOL    HW261599   3.527   7.041   7.030  0.0216 -1.1119  1.3891
50941SOL     OW61600   0.142   0.541   9.088  0.2798  0.0553 -0.6031
50941SOL    HW161601   0.054   0.516   9.113  0.0082  1.4542 -0.0561
50941SOL    HW261602   0.145   0.527   8.993 -1.2976  2.0074 -1.0180
50942SOL     OW61603  12.509   7.664   1.392 -0.0904  0.2771 -0.5053
50942SOL    HW161604  12.461   7.692   1.470 -0.1508 -1.9301  0.3246
50942SOL    HW261605  12.599   7.652   1.422 -0.0735 -0.4178 -0.8266
50943SOL     OW61606  12.378  10.049   7.920 -0.2009 -0.1414 -0.1145
50943SOL    HW161607  12.332  10.133   7.917  0.9806  0.4961 -1.5086
50943SOL    HW261608  12.470  10.072   7.935 -0.1575 -1.3500  1.9502
50944SOL     OW61609   2.336   1.103  11.310  0.2791  0.2677 -0.9462
50944SOL    HW161610   2.283   1.178  11.284 -0.9729 -0.0700  0.4223
50944SOL    HW261611   2.273   1.045  11.355  1.9503  0.2154  1.4930
50945SOL     OW61612   5.796  11.272   8.073 -0.6755  0.1198 -0.0174
50945SOL    HW161613   5.803  11.179   8.093  2.8171  0.1323 -0.5171
50945SOL    HW261614   5.850  11.315   8.138 -1.2466  1.7004 -0.5316
50946SOL     OW61615  12.404   8.792   5.059  0.5595 -0.0359  0.6149
50946SOL    HW161616  12.344   8.760   4.991 -0.4595  0.7251  1.1271
50946SOL    HW261617  12.440   8.873   5.024  2.3126 -1.1080 -0.2242
50947SOL     OW61618  11.319   2.399   7.477  0.0490 -0.8547 -0.2107
50947SOL    HW161619  11.285   2.468   7.420  1.4947 -0.4616 -0.6524
50947SOL    HW261620  11.307   2.433   7.566 -0.7293 -0.7564 -0.3457
50948SOL     OW61621   2.656   1.699  11.092  0.1318  0.2701  0.0409
50948SOL    HW161622   2.706   1.648  11.029  1.8939 -0.5309  1.9691
50948SOL    HW261623   2.611   1.634  11.146  0.9438  0.7927  1.3885
50949SOL     OW61624   4.676  11.961   5.632  0.3843  0.8029  0.1138
50949SOL    HW161625   4.591  11.918   5.618  0.7820 -0.1447  0.5177
50949SOL    HW261626   4.682  11.972   5.727  1.0730  0.0870  0.1622
50950SOL     OW61627   2.087   6.809  10.484  0.3547  0.1419 -0.1361
50950SOL    HW161628   1.993   6.826  10.473  0.2688  0.4412  0.9529
50950SOL    HW261629   2.121   6.887  10.527  0.6502 -0.8707  1.5703
50951SOL     OW61630  11.079   7.027  10.578 -0.4137  0.1013  0.0711
50951SOL    HW161631  11.138   7.071  10.639 -0.0656 -0.2833  0.0219
50951SOL    HW261632  11.011   6.989  10.633  0.8993 -1.8509  0.4702
50952SOL     OW61633   5.340   3.584   0.633 -0.0904 -0.0140  0.3818
50952SOL    HW161634   5.286   3.561   0.709  0.4291  0.4354  0.8916
50952SOL    HW261635   5.421   3.535   0.646  0.3940  0.8541  0.6434
50953SOL     OW61636   0.741   2.283   0.656  0.2910  0.1639 -0.3040
50953SOL    HW161637   0.779   2.230   0.586 -2.3421 -1.5398 -0.5592
50953SOL    HW261638   0.681   2.224   0.701 -1.7740  2.5586  0.2857
50954SOL     OW61639  10.480   3.376  11.881 -0.2628  0.4038 -0.3215
50954SOL    HW161640  10.516   3.465  11.880  2.2285 -0.5435 -0.8022
50954SOL    HW261641  10.552   3.321  11.910 -1.3863 -1.6185 -1.1645
50955SOL     OW61642   2.651   0.538   8.557  0.2534 -0.0115  0.8797
50955SOL    HW161643   2.673   0.615   8.609 -2.6671  1.9589 -0.5193
50955SOL    HW261644   2.695   0.552   8.473  1.6551 -1.1610  1.3707
50956SOL     OW61645   6.653   4.251   5.352 -0.2821  0.0928 -0.3482
50956SOL    HW161646   6.614   4.171   5.387 -1.4416  0.3830 -0.9588
50956SOL    HW261647   6.625   4.255   5.261  1.9957 -0.1983 -1.1428
50957SOL     OW61648   9.260   4.489  10.966  0.6000 -0.7445  0.3027
50957SOL    HW161649   9.340   4.522  11.007  0.6189 -0.0062 -0.3028
50957SOL    HW261650   9.226   4.564  10.917 -0.7785 -0.8755  1.0187
50958SOL     OW61651   3.205   6.428   0.932  0.1679 -0.3197 -0.0649
50958SOL    HW161652   3.139   6.450   0.866  2.0737  0.1813 -1.9192
50958SOL    HW261653   3.205   6.332   0.935  0.2943 -0.3629 -1.0875
50959SOL     OW61654   0.376  10.938   5.726  0.1104 -0.2233  0.7614
50959SOL    HW161655   0.362  10.847   5.703  1.6559 -1.0776  2.8993
50959SOL    HW261656   0.409  10.978   5.646  0.2109 -1.7328  0.0207
50960SOL     OW61657  12.359   9.209   5.421  0.8143 -0.0799  0.2764
50960SOL    HW161658  12.296   9.180   5.355  1.1119 -0.8472  0.3154
50960SOL    HW261659  12.370   9.133   5.479  1.8720 -0.0141  0.1880
50961SOL     OW61660   1.964   7.432   3.768 -0.2153  0.5482  0.0732
50961SOL    HW161661   1.885   7.484   3.780 -0.3915  0.2472  0.2403
50961SOL    HW261662   2.001   7.423   3.856 -0.9363 -0.7675  0.2785
50962SOL     OW61663   0.238   2.914   6.650  0.0584 -0.4499  0.0112
50962SOL    HW161664   0.246   2.832   6.699 -1.7702 -0.7172 -0.0889
50962SOL    HW261665   0.159   2.955   6.684  0.7097  1.0854 -0.2519
50963SOL     OW61666   1.967   3.892   1.894 -0.0230  0.2308 -0.4436
50963SOL    HW161667   1.889   3.847   1.924 -0.0964  0.4220 -0.3457
50963SOL    HW261668   1.947   3.985   1.904  0.3324  0.2762 -0.1219
50964SOL     OW61669   4.925   8.060   7.745  0.1134  0.4540 -0.6257
50964SOL    HW161670   4.853   8.073   7.684 -1.2790  2.4735  1.2755
50964SOL    HW261671   4.923   8.137   7.801  0.0316 -2.0851  3.2284
50965SOL     OW61672  10.314   5.911  10.351 -0.0352  0.3444 -0.0231
50965SOL    HW161673  10.279   5.823  10.337  1.5651 -0.5707  1.4006
50965SOL    HW261674  10.255   5.949  10.416 -0.7269  0.3364 -0.6313
50966SOL     OW61675   9.888   4.847  10.694  0.4598  0.2359  0.6480
50966SOL    HW161676   9.928   4.881  10.614 -0.3290 -0.1854  0.0537
50966SOL    HW261677   9.811   4.799  10.663 -0.2893  0.7032  1.7201
50967SOL     OW61678  10.582   4.108   6.289  0.0114 -0.0462 -0.3347
50967SOL    HW161679  10.538   4.042   6.342 -1.9244  0.0107 -1.7490
50967SOL    HW261680  10.618   4.170   6.352 -0.3851 -1.0956  0.9473
50968SOL     OW61681   1.992   3.443  12.307 -0.1122 -0.1588 -0.1400
50968SOL    HW161682   1.975   3.482  12.392  1.6287  0.5867 -0.0878
50968SOL    HW261683   2.022   3.515  12.252 -0.8440 -0.6930 -1.2958
50969SOL     OW61684   1.752  11.676   4.638 -0.3120 -0.0992  0.3972
50969SOL    HW161685   1.709  11.701   4.556 -1.3239 -2.1540  0.2341
50969SOL    HW261686   1.725  11.743   4.701 -2.0022 -0.1226 -0.2418
50970SOL     OW61687   9.953  11.749   7.195  0.0038 -0.0794  0.3619
50970SOL    HW161688  10.024  11.693   7.164  0.1102 -0.1366  0.7153
50970SOL    HW261689   9.982  11.780   7.280  0.2402  1.0356 -0.1051
50971SOL     OW61690   9.629  10.310   1.496 -0.0944  0.3909  0.1154
50971SOL    HW161691   9.583  10.286   1.415 -0.5278  0.2728  0.3959
50971SOL    HW261692   9.691  10.238   1.510  0.2430  0.5934 -0.3096
50972SOL     OW61693   6.511  11.279   1.097  0.3093 -0.2961 -0.2435
50972SOL    HW161694   6.474  11.278   1.185  0.2600 -1.1864 -0.2644
50972SOL    HW261695   6.436  11.298   1.040  0.3981  0.5968 -0.0835
50973SOL     OW61696   0.020   1.847   7.704  0.5088 -0.0926 -0.3881
50973SOL    HW161697  -0.048   1.819   7.644  1.6232 -2.0077 -0.8388
50973SOL    HW261698   0.095   1.792   7.683  1.4336  0.2600  1.7000
50974SOL     OW61699   3.767   6.535   2.925  0.3984 -0.4798  0.3775
50974SOL    HW161700   3.686   6.490   2.900  1.7598 -1.7925 -1.8945
50974SOL    HW261701   3.787   6.501   3.013 -0.9902 -0.8426  0.5738
50975SOL     OW61702  12.240   4.266  10.071  0.4050 -0.9369  0.4018
50975SOL    HW161703  12.160   4.214  10.059  0.6797 -1.1988 -0.3598
50975SOL    HW261704  12.250   4.272  10.166 -1.5036  0.6410  0.5519
50976SOL     OW61705   7.259   9.874   6.088 -0.0772 -0.1209  0.3138
50976SOL    HW161706   7.271   9.787   6.125  3.5941 -0.1823 -0.6276
50976SOL    HW261707   7.235   9.929   6.162 -1.2796 -1.6384  1.1309
50977SOL     OW61708   3.788  11.330  10.386 -0.5783  0.1315  0.1601
50977SOL    HW161709   3.853  11.273  10.344 -0.9296 -0.4046  0.3267
50977SOL    HW261710   3.726  11.269  10.425 -0.9779  0.6403  0.3217
50978SOL     OW61711   1.033  10.882   9.865 -0.4087 -0.7623 -0.2270
50978SOL    HW161712   0.978  10.813   9.829  0.0440 -1.0196 -0.4353
50978SOL    HW261713   1.033  10.950   9.797 -1.4057 -0.2512  0.2663
50979SOL     OW61714   9.511  11.799   1.574  0.0231 -0.5550  0.2977
50979SOL    HW161715   9.589  11.845   1.605 -0.4868  0.3169  0.3214
50979SOL    HW261716   9.478  11.754   1.651  1.2309 -2.0316 -0.0045
50980SOL     OW61717   6.258   0.291  11.941 -0.3319 -0.1258 -0.6540
50980SOL    HW161718   6.213   0.240  12.008 -0.0816  0.2666 -0.1873
50980SOL    HW261719   6.340   0.245  11.926  0.3065  0.6274  0.4237
50981SOL     OW61720   2.518   4.023   4.012 -0.2154 -0.1393 -0.4131
50981SOL    HW161721   2.451   4.013   3.943 -0.6316  0.6926 -0.1513
50981SOL    HW261722   2.595   4.055   3.965 -0.4876  0.3927 -0.5063
50982SOL     OW61723  10.358   5.841   4.737 -0.8566  0.4171 -0.4410
50982SOL    HW161724  10.288   5.842   4.672  0.2887 -0.7834 -1.7452
50982SOL    HW261725  10.407   5.922   4.721 -1.9446  1.2910  0.5177
50983SOL     OW61726   9.498   5.791   3.118  0.1733 -0.3205 -0.1950
50983SOL    HW161727   9.533   5.863   3.170 -0.8187  0.8503 -1.0983
50983SOL    HW261728   9.557   5.717   3.137  0.5952  0.4163  1.5538
50984SOL     OW61729   4.670   6.762   0.335  0.7240  0.1643 -0.5168
50984SOL    HW161730   4.604   6.832   0.329  1.2901  0.6672 -0.9584
50984SOL    HW261731   4.753   6.805   0.317  1.0893 -0.6199 -0.7637
50985SOL     OW61732  11.836   6.189   6.475  0.0151 -0.1276  0.4682
50985SOL    HW161733  11.782   6.129   6.528 -0.7916  1.9715  2.1640
50985SOL    HW261734  11.781   6.209   6.399 -1.7082  1.9162  2.1297
50986SOL     OW61735   5.574   5.268   9.983  0.1828 -0.7069 -0.5265
50986SOL    HW161736   5.621   5.330   9.927  3.5666 -1.5332  1.1705
50986SOL    HW261737   5.618   5.184   9.968 -1.2614 -1.7392  0.6731
50987SOL     OW61738   7.130   5.270   4.817  0.0691  0.5225  0.7112
50987SOL    HW161739   7.206   5.211   4.817 -0.6329 -0.4816  2.5932
50987SOL    HW261740   7.109   5.281   4.910 -2.4865  0.2166  0.2306
50988SOL     OW61741   1.376   7.300   6.514  0.2103 -0.4620 -0.5514
50988SOL    HW161742   1.298   7.265   6.471  0.3393 -1.0651 -0.3017
50988SOL    HW261743   1.378   7.392   6.489 -1.8581  0.1729  1.2531
50989SOL     OW61744   3.398   4.650   3.894  0.5570 -0.1751  0.5516
50989SOL    HW161745   3.401   4.560   3.862  0.0023  0.3805 -1.1300
50989SOL    HW261746   3.343   4.646   3.972 -0.0606 -1.1833  0.0746
50990SOL     OW61747   6.958   1.839   9.943  0.1318  0.9296  0.1838
50990SOL    HW161748   6.867   1.867   9.941 -0.1171  0.7285  3.5838
50990SOL    HW261749   6.955   1.744   9.950  0.5686  0.9514  0.7585
50991SOL     OW61750   4.851   7.940   9.034  0.2698  0.0648  0.4722
50991SOL    HW161751   4.778   8.002   9.040  0.4307  0.3112 -0.0409
50991SOL    HW261752   4.915   7.972   9.097  0.5976  0.7655 -0.2002
50992SOL     OW61753   4.000   5.843   8.897 -0.3752  0.0272  0.5929
50992SOL    HW161754   3.988   5.888   8.980  0.0958 -2.9716  2.4443
50992SOL    HW261755   4.095   5.840   8.885 -0.3578 -1.1214  0.9264
50993SOL     OW61756   4.294   0.911  11.382 -0.2651 -0.1405 -0.0229
50993SOL    HW161757   4.201   0.891  11.378 -0.0895 -0.7924 -1.8694
50993SOL    HW261758   4.322   0.913  11.290  1.6541 -0.5241  0.5134
50994SOL     OW61759   6.252   1.995   1.532  0.3166  0.0295 -0.0794
50994SOL    HW161760   6.183   2.046   1.491  0.1096 -0.3380 -0.1817
50994SOL    HW261761   6.329   2.011   1.477  0.3564  0.5625  0.1237
50995SOL     OW61762   8.357   7.770   1.874 -0.5364 -0.6990 -0.7261
50995SOL    HW161763   8.437   7.812   1.907 -1.0880  0.0349 -0.3164
50995SOL    HW261764   8.389   7.692   1.827  0.4481 -0.1748 -0.9530
50996SOL     OW61765   6.410  12.272   6.167 -0.4195  0.6463 -0.0653
50996SOL    HW161766   6.473  12.318   6.112  0.0130 -0.8712 -0.9048
50996SOL    HW261767   6.392  12.332   6.239  1.8158  1.2226  0.0765
50997SOL     OW61768   2.342   1.869   1.006  0.2941 -0.2874  0.0423
50997SOL    HW161769   2.390   1.936   1.055  1.7392 -1.8413  0.8758
50997SOL    HW261770   2.250   1.892   1.016  0.7298  1.2056  0.8177
50998SOL     OW61771   0.647  11.539   7.507 -0.4970  0.1901 -0.0843
50998SOL    HW161772   0.556  11.537   7.537 -0.7571 -0.2900 -0.8832
50998SOL    HW261773   0.643  11.505   7.418  0.0638  2.8390 -1.2094
50999SOL     OW61774   0.856  11.250   4.221  0.1080 -0.6330 -0.0008
50999SOL    HW161775   0.787  11.316   4.227  1.1358  0.5653 -0.7732
50999SOL    HW261776   0.870  11.239   4.127 -0.7933 -2.8149  0.0543
51000SOL     OW61777   6.323   4.082   0.136 -0.0399 -0.2409  0.8369
51000SOL    HW161778   6.411   4.062   0.105 -0.4319  0.0617 -0.5414
51000SOL    HW261779   6.286   3.996   0.157  0.3727 -0.4298  0.8133
51001SOL     OW61780   6.726   8.962   6.525 -0.1205 -0.1432  0.1428
51001SOL    HW161781   6.725   9.041   6.580 -0.4620 -0.1697  0.1758
51001SOL    HW261782   6.819   8.945   6.510  0.0068 -0.4656  1.1993
51002SOL     OW61783   1.190   1.946   4.448 -0.5139 -0.0547  0.5021
51002SOL    HW161784   1.154   2.031   4.473 -0.7580 -0.1150  0.3510
51002SOL    HW261785   1.273   1.967   4.405 -1.4354  0.2285 -1.2024
51003SOL     OW61786   9.780  11.216  10.706  0.5872 -0.2402  0.0519
51003SOL    HW161787   9.772  11.130  10.664 -0.6878 -0.4639  0.7017
51003SOL    HW261788   9.692  11.254  10.700  1.5046  1.7764 -1.7293
51004SOL     OW61789   7.685  10.991   7.365 -0.1884 -0.1944  0.0987
51004SOL    HW161790   7.742  11.056   7.405 -0.2244 -0.4565  0.5858
51004SOL    HW261791   7.619  11.042   7.319  0.3668  0.1102 -0.3721
51005SOL     OW61792   6.675   8.931  10.691 -0.1785 -0.0977 -0.2144
51005SOL    HW161793   6.688   8.949  10.784 -1.5958  0.6012 -0.1181
51005SOL    HW261794   6.643   8.841  10.689 -0.9312  0.1561  0.0614
51006SOL     OW61795  12.537  11.319   1.985  0.1736  0.1862 -0.1138
51006SOL    HW161796  12.539  11.406   2.024 -0.9507  0.0442  0.2825
51006SOL    HW261797  12.501  11.332   1.898 -0.0731  0.1161 -0.0248
51007SOL     OW61798   5.649   5.915   4.700  0.3040  1.3273 -1.1473
51007SOL    HW161799   5.664   5.879   4.787  1.3828  0.3846 -1.6919
51007SOL    HW261800   5.636   5.838   4.644 -0.9686  1.9325 -1.7341
51008SOL     OW61801   4.205   2.091   8.382  0.2267  0.3861 -0.1227
51008SOL    HW161802   4.168   2.072   8.296  0.2787  0.2988 -0.1260
51008SOL    HW261803   4.166   2.174   8.408 -1.2462 -0.4936  0.5996
51009SOL     OW61804   8.108   3.684   0.833  0.1191  0.1789 -0.0203
51009SOL    HW161805   8.128   3.757   0.774 -0.8747  0.9474  0.5589
51009SOL    HW261806   8.180   3.623   0.821  0.1109  0.4630 -1.7980
51010SOL     OW61807   1.946   9.982  11.496  0.3085 -0.0023 -0.3836
51010SOL    HW161808   1.972   9.895  11.465 -1.4307 -0.7734  0.1865
51010SOL    HW261809   1.878   9.965  11.561 -0.3138  1.8075 -0.5017
51011SOL     OW61810   5.543   2.502   4.647 -0.0670  0.1546 -0.2356
51011SOL    HW161811   5.559   2.580   4.701  0.5559 -0.2097  0.1281
51011SOL    HW261812   5.538   2.430   4.710  3.9576 -0.8182 -0.7430
51012SOL     OW61813   4.565   7.725  10.116 -0.5161  0.5314 -0.0290
51012SOL    HW161814   4.644   7.719  10.062 -0.6062  0.6310 -0.1700
51012SOL    HW261815   4.537   7.634  10.126 -1.2082  0.6024 -1.1882
51013SOL     OW61816   7.913   3.369   6.352  0.0114 -0.0240 -0.0393
51013SOL    HW161817   7.852   3.394   6.282  0.5061  1.3360 -0.0232
51013SOL    HW261818   7.974   3.309   6.310 -0.1258  0.2151 -0.5966
51014SOL     OW61819  12.243   9.033   8.946  0.4428  0.3223  0.6427
51014SOL    HW161820  12.198   8.973   8.886 -2.2377  2.8479 -0.1211
51014SOL    HW261821  12.320   9.062   8.897  0.2292 -0.3615 -0.1203
51015SOL     OW61822   0.775   9.576   1.580  0.2963  0.4872 -0.1097
51015SOL    HW161823   0.824   9.499   1.607 -0.5666  0.3073  1.0947
51015SOL    HW261824   0.838   9.648   1.583  0.6792  0.1326  0.6344
51016SOL     OW61825   3.993   2.104   6.751  0.2255 -0.1760 -0.2417
51016SOL    HW161826   3.920   2.042   6.748  0.1488 -0.0899 -0.1878
51016SOL    HW261827   3.960   2.176   6.806  0.4644 -0.2830  0.0448
51017SOL     OW61828   4.569   4.638   1.296 -0.4605 -0.8100  0.0163
51017SOL    HW161829   4.573   4.587   1.377  1.8003  0.7499  0.9681
51017SOL    HW261830   4.602   4.578   1.229  0.4843 -1.1778  0.7981
51018SOL     OW61831  12.379   9.083  10.926 -0.1106  0.4394 -0.6612
51018SOL    HW161832  12.432   9.075  11.005 -0.9990  0.4728 -0.0426
51018SOL    HW261833  12.294   9.047  10.951 -0.3850  0.4042 -1.6239
51019SOL     OW61834   8.665   8.475   0.129  0.2275  0.0183  0.6888
51019SOL    HW161835   8.604   8.405   0.153 -0.0059 -0.4459 -1.1010
51019SOL    HW261836   8.752   8.434   0.132  0.1346 -0.2356  0.1176
51020SOL     OW61837   6.929   6.791   5.762  0.1769 -0.1271 -0.4622
51020SOL    HW161838   6.858   6.835   5.809 -0.5860 -0.8641 -0.9039
51020SOL    HW261839   7.006   6.846   5.779 -0.7552  1.4391 -1.0738
51021SOL     OW61840   7.535   0.475   3.002 -0.9262  0.2568  0.0603
51021SOL    HW161841   7.549   0.491   3.096 -0.3008  3.1670 -0.4383
51021SOL    HW261842   7.449   0.514   2.984 -0.4513  0.9332 -0.8089
51022SOL     OW61843   7.188   7.745   2.759 -0.4557 -0.5730 -0.0244
51022SOL    HW161844   7.210   7.688   2.832 -0.5295  0.3007  0.6942
51022SOL    HW261845   7.095   7.764   2.770 -0.4275 -0.3006 -0.2360
51023SOL     OW61846   8.831   1.223  11.624 -0.3077  0.6362 -0.0952
51023SOL    HW161847   8.836   1.152  11.688 -1.2046 -0.1086 -0.8242
51023SOL    HW261848   8.837   1.303  11.676  0.7037  0.0363  0.7472
51024SOL     OW61849  10.723   6.175   6.207  0.1999 -0.3145  0.5206
51024SOL    HW161850  10.800   6.208   6.159  0.4077 -1.0833  0.3033
51024SOL    HW261851  10.656   6.166   6.140 -0.3771  1.1682  0.8514
51025SOL     OW61852   3.452   0.966   8.663  0.0583 -0.3358 -0.2774
51025SOL    HW161853   3.472   1.057   8.685 -0.6217 -0.1978 -0.2112
51025SOL    HW261854   3.503   0.948   8.584  1.6092 -0.4714  0.7143
51026SOL     OW61855  10.357   3.350   4.563  0.0587  0.7351 -0.0016
51026SOL    HW161856  10.326   3.381   4.648 -2.6747 -1.4260 -0.0298
51026SOL    HW261857  10.296   3.278   4.541  2.1012 -0.3358 -2.6934
51027SOL     OW61858  11.209   0.345   6.961  0.2144  0.2434 -0.2048
51027SOL    HW161859  11.153   0.410   6.918 -1.3320 -0.8753  0.0306
51027SOL    HW261860  11.299   0.373   6.939 -0.3898  2.2836 -0.3079
51028SOL     OW61861   4.922   9.286   2.433 -0.4375  0.0425  0.4479
51028SOL    HW161862   4.977   9.213   2.461 -0.5156 -0.4834 -0.7070
51028SOL    HW261863   4.956   9.310   2.347 -0.2649  1.5395  0.9076
51029SOL     OW61864   2.366   8.893   4.126 -0.1970 -0.2772  0.1211
51029SOL    HW161865   2.346   8.800   4.115 -2.2763  0.1162  0.2218
51029SOL    HW261866   2.392   8.922   4.038  1.9540 -1.2244  0.3816
51030SOL     OW61867   2.318  11.437   9.755  0.8519 -0.3671 -0.1332
51030SOL    HW161868   2.357  11.395   9.832  1.6591 -0.0808 -0.3730
51030SOL    HW261869   2.274  11.515   9.791  1.6767  0.0540 -0.0120
51031SOL     OW61870   7.043   7.618   2.067  0.1226  0.2783  0.2285
51031SOL    HW161871   7.109   7.677   2.101  1.2759 -0.2605 -1.0121
51031SOL    HW261872   7.050   7.540   2.123  1.2897 -0.1943 -0.5436
51032SOL     OW61873   9.696   9.854   7.483 -0.1417 -0.1871  0.1402
51032SOL    HW161874   9.680   9.938   7.526 -1.4035 -0.8303  0.9754
51032SOL    HW261875   9.671   9.868   7.392  0.9868  0.7166 -0.0561
51033SOL     OW61876   9.751   9.372  11.738 -0.5680 -0.2210  0.3940
51033SOL    HW161877   9.803   9.435  11.688  0.3328 -1.7271 -0.6400
51033SOL    HW261878   9.687   9.426  11.785 -0.1360  1.4128 -0.8028
51034SOL     OW61879   4.186   9.515   0.509  0.5573 -0.3875  0.2195
51034SOL    HW161880   4.209   9.441   0.565  1.6728 -0.5134 -0.3671
51034SOL    HW261881   4.268   9.563   0.499  0.6313 -0.8657 -2.0224
51035SOL     OW61882  12.434   3.220   9.813 -0.1565 -0.1838  0.1280
51035SOL    HW161883  12.455   3.196   9.903 -0.8266 -0.8165  0.1254
51035SOL    HW261884  12.516   3.255   9.778  0.8010 -2.1480  0.2611
51036SOL     OW61885   2.382   7.999  10.669 -0.1348  0.2043  0.4698
51036SOL    HW161886   2.388   8.085  10.627  1.2597 -0.6554 -1.2341
51036SOL    HW261887   2.380   7.936  10.596 -1.7961 -1.2183  1.6546
51037SOL     OW61888   3.608   3.795  11.865 -0.1883 -0.6265  0.1576
51037SOL    HW161889   3.680   3.859  11.864 -2.0616  1.5963  0.3834
51037SOL    HW261890   3.529   3.848  11.871 -1.8566 -3.0214  0.5585
51038SOL     OW61891   0.346   3.024   7.592 -0.0059  0.0898  0.5213
51038SOL    HW161892   0.287   2.964   7.637  1.9129 -2.1317  0.2809
51038SOL    HW261893   0.345   3.103   7.646 -1.8935 -0.4622  1.4039
51039SOL     OW61894  11.694   1.265   0.797 -0.1951 -0.5826 -0.0557
51039SOL    HW161895  11.709   1.222   0.880  0.7787  1.3184  0.8197
51039SOL    HW261896  11.757   1.226   0.737  0.2642 -0.7727  0.5509
51040SOL     OW61897   5.545   4.366   0.461  0.1330 -0.5142  0.4699
51040SOL    HW161898   5.502   4.309   0.525  1.0624 -0.3341  1.2811
51040SOL    HW261899   5.589   4.433   0.514 -0.4270  0.6117 -0.4378
51041SOL     OW61900   4.754   0.854   4.950  0.2298  0.7709  0.2955
51041SOL    HW161901   4.742   0.898   5.034  2.0600  0.6096  0.6845
51041SOL    HW261902   4.755   0.925   4.886  0.6481  1.0831  0.6364
51042SOL     OW61903  10.081  12.133   5.680 -0.0321 -0.3618  1.1178
51042SOL    HW161904  10.071  12.182   5.599 -0.9258  0.7039  1.8461
51042SOL    HW261905  10.163  12.166   5.718  0.1353 -0.5122  0.8928
51043SOL     OW61906   4.637   0.869   9.440  0.2954  0.3424 -0.3248
51043SOL    HW161907   4.715   0.864   9.496  0.3373  0.3645 -0.3811
51043SOL    HW261908   4.567   0.832   9.494  0.9953 -3.0502 -1.5119
51044SOL     OW61909   4.816   7.501   1.485  0.2952  0.2205 -0.2229
51044SOL    HW161910   4.792   7.536   1.571  1.1494 -0.1513  0.1711
51044SOL    HW261911   4.843   7.578   1.435 -0.7248  0.5153 -0.3583
51045SOL     OW61912  11.773   4.599   2.750 -0.3086  0.3330  0.0418
51045SOL    HW161913  11.685   4.626   2.726  0.0500 -0.1198 -2.0345
51045SOL    HW261914  11.760   4.524   2.808 -1.2629  1.2555  1.0602
51046SOL     OW61915   3.388   8.573   2.998  0.3073 -0.2253  0.3359
51046SOL    HW161916   3.368   8.487   3.035 -0.1753  0.1407  0.9542
51046SOL    HW261917   3.426   8.622   3.071 -1.8144  0.9165  0.7516
51047SOL     OW61918  11.338   8.563  12.380 -0.3839 -0.4237  0.1415
51047SOL    HW161919  11.377   8.482  12.412 -1.0691 -0.3353  1.2547
51047SOL    HW261920  11.379   8.578  12.295  0.3426 -1.5032  0.2903
51048SOL     OW61921   7.521   8.554   0.721 -0.2300 -0.6085  0.7163
51048SOL    HW161922   7.540   8.460   0.728 -0.0753 -0.4459  4.8390
51048SOL    HW261923   7.605   8.597   0.738 -0.2092  0.4009 -1.5265
51049SOL     OW61924   7.688   4.749   9.649 -0.3362 -0.2263 -0.0322
51049SOL    HW161925   7.768   4.721   9.603 -0.4186 -1.8710  0.7396
51049SOL    HW261926   7.626   4.678   9.633 -1.1739  0.3648  0.5533
51050SOL     OW61927   2.275   0.055   0.724  0.0550  0.1726 -0.1195
51050SOL    HW161928   2.240   0.110   0.794 -0.8030  1.3620 -1.4295
51050SOL    HW261929   2.355   0.017   0.761  0.0560  1.4014  1.2216
51051SOL     OW61930   9.443   6.575   2.041  0.3276 -0.5500  0.7033
51051SOL    HW161931   9.431   6.509   2.108 -1.0637  0.6655  1.7260
51051SOL    HW261932   9.533   6.606   2.053 -0.1108  0.1435  2.5081
51052SOL     OW61933   4.137   1.661   0.860 -0.3845  0.5173 -0.3284
51052SOL    HW161934   4.221   1.659   0.813 -1.2722 -1.5136 -1.9991
51052SOL    HW261935   4.079   1.606   0.807 -2.7795  1.8108  0.8086
51053SOL     OW61936   7.443   0.150  11.745  0.1247 -0.6152 -0.0193
51053SOL    HW161937   7.501   0.198  11.686 -0.1503 -1.5242 -1.0774
51053SOL    HW261938   7.501   0.103  11.804  0.4176 -0.2157  0.0151
51054SOL     OW61939   7.258  11.994   3.830 -0.4749  1.1841 -0.2214
51054SOL    HW161940   7.330  11.941   3.795 -1.2119  0.5430 -0.8165
51054SOL    HW261941   7.255  12.071   3.774  0.5130  1.8012  0.5591
51055SOL     OW61942   9.736   6.176   9.240 -0.6439  0.4474 -0.0519
51055SOL    HW161943   9.673   6.182   9.168 -1.2420  0.0717  0.4311
51055SOL    HW261944   9.695   6.116   9.303  1.2454 -1.8287 -0.8182
51056SOL     OW61945  12.159   8.098  10.562 -0.2069 -0.3964  0.2627
51056SOL    HW161946  12.112   8.181  10.572 -1.5168 -0.8334 -1.6121
51056SOL    HW261947  12.242   8.123  10.523 -0.8439  0.0265 -0.8812
51057SOL     OW61948  10.796   0.357   5.534 -0.7058  0.1027  0.2452
51057SOL    HW161949  10.750   0.276   5.553  0.0920 -0.2852  0.5400
51057SOL    HW261950  10.877   0.330   5.492 -0.9717  0.8024 -0.7758
51058SOL     OW61951  10.134   4.026   4.001 -0.0249 -0.2427 -0.1674
51058SOL    HW161952  10.173   3.947   4.037  0.4534  0.3228  0.5903
51058SOL    HW261953  10.044   4.002   3.981  0.0135 -0.8743  0.3891
51059SOL     OW61954   6.550   8.687  10.346 -0.3135 -0.0438  0.6493
51059SOL    HW161955   6.547   8.591  10.351  0.6353 -0.0289  2.0022
51059SOL    HW261956   6.500   8.717  10.422 -1.2896  0.5744 -0.2061
51060SOL     OW61957   3.362  10.168   2.720  0.1411  0.6897  0.6444
51060SOL    HW161958   3.355  10.076   2.745  0.9540 -0.3312 -2.3818
51060SOL    HW261959   3.445  10.197   2.756  0.2213  0.0070  1.0279
51061SOL     OW61960   6.257  10.937  10.126  0.6872 -0.0320  0.0806
51061SOL    HW161961   6.219  10.865  10.075 -1.2668  0.6871  0.4423
51061SOL    HW261962   6.201  11.012  10.106  1.8399  1.0580  0.8125
51062SOL     OW61963   8.467  10.165  12.131  0.0943  0.2036 -0.4287
51062SOL    HW161964   8.431  10.109  12.063  0.4620 -0.7549  0.1428
51062SOL    HW261965   8.441  10.124  12.213  1.5342  0.0854  0.0019
51063SOL     OW61966   9.926   4.224   0.491  0.0123  0.3590 -0.0194
51063SOL    HW161967   9.945   4.212   0.398  1.3581  0.4972  0.2162
51063SOL    HW261968   9.939   4.137   0.529  1.1773  0.6580  0.3015
51064SOL     OW61969  10.352   7.964  11.400 -0.1000  0.8502 -0.2931
51064SOL    HW161970  10.273   8.004  11.365 -1.4115  1.0632  2.6255
51064SOL    HW261971  10.346   7.872  11.372 -1.0961  1.0014 -0.6254
51065SOL     OW61972  10.532   6.933   7.228 -0.7331 -0.4674 -0.2088
51065SOL    HW161973  10.577   7.011   7.195 -0.4037 -1.1620 -1.4651
51065SOL    HW261974  10.597   6.887   7.281 -0.2127 -0.9885 -1.2576
51066SOL     OW61975  11.662   7.401   4.767  0.2487  0.5091 -0.1289
51066SOL    HW161976  11.596   7.396   4.837  0.9724  0.5189  0.5600
51066SOL    HW261977  11.613   7.433   4.691 -0.2795  1.8103  0.7225
51067SOL     OW61978   2.312   2.916   1.459 -0.0761 -0.2798  0.4739
51067SOL    HW161979   2.267   2.835   1.485 -1.0951  0.7006  1.9346
51067SOL    HW261980   2.330   2.961   1.542  1.0688  0.7021 -0.2741
51068SOL     OW61981   2.459   2.372   3.164  0.0089  0.0192 -0.5591
51068SOL    HW161982   2.370   2.366   3.130 -0.4046  1.3762  0.1934
51068SOL    HW261983   2.504   2.431   3.104 -0.1821  0.8985  0.1383
51069SOL     OW61984   4.644   6.295   2.123  0.2565  0.3404 -0.1858
51069SOL    HW161985   4.727   6.304   2.076 -0.2076  0.1422 -1.0476
51069SOL    HW261986   4.580   6.273   2.056 -0.1818 -1.2602  0.6951
51070SOL     OW61987   6.946   2.762  12.278  0.4356  0.0074 -0.0041
51070SOL    HW161988   6.902   2.746  12.195 -0.1039  1.6932 -0.0922
51070SOL    HW261989   6.919   2.690  12.335  1.0885 -1.3519 -1.3690
51071SOL     OW61990   0.476   7.018   1.992 -0.7588 -0.1609 -0.6450
51071SOL    HW161991   0.518   7.033   1.907 -0.6927 -1.5409 -0.8745
51071SOL    HW261992   0.549   7.007   2.053 -0.7878 -0.8322 -0.7250
51072SOL     OW61993   4.280   8.929   9.590 -0.1153  0.3825 -0.1260
51072SOL    HW161994   4.339   9.004   9.590 -0.9115  1.0198 -1.0255
51072SOL    HW261995   4.224   8.942   9.514 -0.4759 -0.9607 -0.1139
51073SOL     OW61996  10.029   1.956   5.879 -0.3355  0.0814  0.7368
51073SOL    HW161997  10.115   1.926   5.910  0.1064 -0.9251 -1.2223
51073SOL    HW261998   9.967   1.892   5.914 -0.0123 -0.3167  0.5961
51074SOL     OW61999   0.449   3.777   1.094  0.3565  0.2429  0.5182
51074SOL    HW162000   0.498   3.742   1.019 -1.0322 -0.1096 -0.2502
51074SOL    HW262001   0.405   3.702   1.131 -0.4108  0.7135  0.5784
51075SOL     OW62002   6.271  11.928  10.901 -0.0401  0.1637  0.2800
51075SOL    HW162003   6.224  12.011  10.890  1.1300  0.9136  0.7153
51075SOL    HW262004   6.266  11.886  10.815 -1.3244  0.3042  0.2668
51076SOL     OW62005  12.261   7.979   7.156  0.3618 -0.3565  0.0610
51076SOL    HW162006  12.303   7.894   7.161 -0.8310 -0.9555  0.2737
51076SOL    HW262007  12.281   8.010   7.067 -0.8569 -1.7793 -0.7673
51077SOL     OW62008  11.916   0.343  10.872  0.0359 -0.2757  0.3418
51077SOL    HW162009  11.935   0.303  10.956  1.3404 -0.4945 -0.0384
51077SOL    HW262010  11.965   0.291  10.808 -2.5925 -1.4560 -0.8641
51078SOL     OW62011   9.723   0.402  11.999  0.2033 -0.4031  0.1059
51078SOL    HW162012   9.742   0.338  11.930 -0.9707  0.6455 -1.2472
51078SOL    HW262013   9.668   0.355  12.062  2.0620 -1.6494  0.8786
51079SOL     OW62014   5.032   0.756   6.947  0.4401  0.4963 -0.5459
51079SOL    HW162015   4.981   0.691   6.996 -1.3834  1.0522 -1.6281
51079SOL    HW262016   5.065   0.816   7.014 -0.7429  0.3974  0.1463
51080SOL     OW62017   4.154   7.182  10.076  0.0672 -0.2242 -0.6938
51080SOL    HW162018   4.240   7.145  10.099 -0.1361 -0.9066 -1.0142
51080SOL    HW262019   4.095   7.107  10.075 -0.1885 -0.0347 -2.2349
51081SOL     OW62020   1.922   1.945  11.449 -0.2227  0.1982 -0.3089
51081SOL    HW162021   1.961   1.895  11.377  0.3301 -0.4221  0.4094
51081SOL    HW262022   1.955   1.903  11.528 -0.1956  1.3552  0.3136
51082SOL     OW62023   7.742   0.434   1.540 -0.3141  0.7249  0.0115
51082SOL    HW162024   7.765   0.446   1.448 -2.0700  0.8680 -0.4504
51082SOL    HW262025   7.667   0.492   1.553  0.0107  0.8324  1.5946
51083SOL     OW62026  12.161   4.076   7.257 -0.9381  0.0211  0.2953
51083SOL    HW162027  12.163   4.132   7.180 -3.1803  0.6843  0.6198
51083SOL    HW262028  12.139   4.136   7.329 -1.1199 -0.9155  1.0402
51084SOL     OW62029  11.225   6.772   7.448  0.1257 -0.8043 -0.2503
51084SOL    HW162030  11.170   6.838   7.490 -0.2795 -0.6071 -1.0817
51084SOL    HW262031  11.189   6.762   7.360  0.9928 -1.1715 -0.5800
51085SOL     OW62032   8.260   3.501   1.975 -0.3961 -0.4386 -0.0999
51085SOL    HW162033   8.171   3.509   1.941 -0.2320 -0.6812 -0.5949
51085SOL    HW262034   8.253   3.528   2.067 -0.9297 -0.2077 -0.2036
51086SOL     OW62035  11.823   6.472   9.190  0.2279  0.0295  0.6854
51086SOL    HW162036  11.805   6.446   9.100  0.8163  0.4389  0.4410
51086SOL    HW262037  11.742   6.512   9.221 -0.4166 -1.3255  0.7905
51087SOL     OW62038   1.625  11.723   2.248  0.1990 -0.1569  0.1655
51087SOL    HW162039   1.579  11.645   2.217 -2.3000  0.9146  0.8860
51087SOL    HW262040   1.621  11.785   2.175 -0.1657  0.1999  0.4835
51088SOL     OW62041  10.208   0.093   8.639 -0.1841 -0.4901 -0.0476
51088SOL    HW162042  10.136   0.098   8.577 -2.1398 -0.7316  2.0891
51088SOL    HW262043  10.241   0.003   8.631  0.3391 -0.1842 -1.4919
51089SOL     OW62044   6.709   0.792   4.187  0.8118  0.5677 -0.1630
51089SOL    HW162045   6.760   0.749   4.118  0.4623  0.0667 -0.1122
51089SOL    HW262046   6.618   0.771   4.166  0.6869  0.6379  0.2985
51090SOL     OW62047   6.488   9.299   9.018  0.0421  0.2147  0.0167
51090SOL    HW162048   6.519   9.209   9.005  0.7828  0.2634  1.2954
51090SOL    HW262049   6.421   9.292   9.086  0.0157  0.6084  0.0322
51091SOL     OW62050   5.095   0.978   7.495 -0.4158  0.4799  0.1833
51091SOL    HW162051   5.053   0.993   7.579  0.1662  1.1475  0.3693
51091SOL    HW262052   5.165   1.044   7.491  0.1134 -0.0992 -0.4422
51092SOL     OW62053   2.023  12.415   9.974 -0.2776  0.0392  0.2655
51092SOL    HW162054   1.932  12.405   9.946  0.2060 -0.6653 -1.1710
51092SOL    HW262055   2.044  12.507   9.956 -0.6183  0.1363  0.3568
51093SOL     OW62056  12.272   3.516   8.862 -0.2441  0.0016  0.0999
51093SOL    HW162057  12.351   3.571   8.856 -0.9362  0.9197 -1.0497
51093SOL    HW262058  12.254   3.490   8.772 -1.5320  0.2109  0.2813
51094SOL     OW62059   0.699   4.505  10.425  0.5844 -0.2452 -0.2374
51094SOL    HW162060   0.724   4.498  10.333  0.0386 -0.8930 -0.3452
51094SOL    HW262061   0.725   4.594  10.450  1.7371 -0.4409 -0.7045
51095SOL     OW62062   6.219   7.186   7.214  0.1384 -0.5739  0.4623
51095SOL    HW162063   6.312   7.173   7.235  0.8788  0.4435 -1.8512
51095SOL    HW262064   6.190   7.100   7.184  0.3604 -0.8740  1.0909
51096SOL     OW62065   2.558   1.691   1.615 -0.0537 -0.5302 -0.0205
51096SOL    HW162066   2.545   1.784   1.634 -0.3588 -0.8520  1.4369
51096SOL    HW262067   2.532   1.682   1.523 -0.2341  0.7780 -0.1193
51097SOL     OW62068  12.574  11.533   5.505 -0.7690  0.1347 -0.0794
51097SOL    HW162069  12.539  11.544   5.593 -0.4553 -1.9519  0.3675
51097SOL    HW262070  12.653  11.480   5.517  1.3203  2.7407 -1.2981
51098SOL     OW62071   2.719   9.423   0.796 -0.0581 -0.4397  0.1704
51098SOL    HW162072   2.627   9.446   0.785  0.1720 -0.0597 -1.2631
51098SOL    HW262073   2.750   9.481   0.866 -0.6426  0.2457 -0.1240
51099SOL     OW62074  10.031  11.433   5.060 -0.2008  0.2271 -0.6439
51099SOL    HW162075   9.991  11.356   5.100  1.7948 -1.1428 -1.1818
51099SOL    HW262076  10.048  11.408   4.969 -0.1224  1.5527 -1.0288
51100SOL     OW62077   0.385  10.828   5.286  0.1769 -0.6463 -0.4830
51100SOL    HW162078   0.313  10.856   5.229  0.1436  1.0884  0.3598
51100SOL    HW262079   0.459  10.882   5.259  1.3324 -2.6844 -1.6012
51101SOL     OW62080   8.789   1.104   8.872  0.0840  0.1461  0.1215
51101SOL    HW162081   8.851   1.141   8.808 -0.0156 -0.7548 -0.5258
51101SOL    HW262082   8.845   1.066   8.940  0.3428 -1.8809 -1.1440
51102SOL     OW62083   1.226   9.352  12.538  0.1944  0.2224  0.0484
51102SOL    HW162084   1.220   9.389  12.450 -0.0287  1.8586  0.7133
51102SOL    HW262085   1.139   9.317  12.555  0.5718 -1.2207 -0.8151
51103SOL     OW62086   1.708  11.193   0.140 -0.2185 -0.0949 -0.0936
51103SOL    HW162087   1.720  11.213   0.047  1.5813  0.0372  0.1234
51103SOL    HW262088   1.725  11.099   0.147  0.7980  0.0940  0.2344
51104SOL     OW62089   1.408   6.912   0.241  0.3230 -0.1720 -0.1460
51104SOL    HW162090   1.358   6.947   0.315 -0.2483 -0.6771 -0.2883
51104SOL    HW262091   1.431   6.823   0.268 -0.1605 -0.4724 -0.6999
51105SOL     OW62092   8.197   9.405   2.166  0.0392  0.2215 -0.4072
51105SOL    HW162093   8.161   9.401   2.255 -0.2264  0.7668 -0.4896
51105SOL    HW262094   8.126   9.374   2.110  0.2050 -0.1183 -0.4333
51106SOL     OW62095   3.188   3.631   5.015 -0.6748  0.2908  0.2628
51106SOL    HW162096   3.128   3.609   5.087  0.0570  1.1377  1.1554
51106SOL    HW262097   3.275   3.612   5.050 -0.4165 -2.1998 -1.4713
51107SOL     OW62098   7.526   3.573  12.058 -0.2446 -0.3654  0.2318
51107SOL    HW162099   7.432   3.579  12.044 -0.5527 -0.0770  2.1915
51107SOL    HW262100   7.555   3.663  12.069  0.3532 -0.4169 -0.8140
51108SOL     OW62101   5.927   5.866   4.581 -0.3429 -0.2164  0.3129
51108SOL    HW162102   5.986   5.831   4.513  0.1102  0.0233  0.5805
51108SOL    HW262103   5.859   5.912   4.532 -0.6956 -1.0764 -0.0307
51109SOL     OW62104   1.187   9.010   0.372 -0.2432 -0.3333  0.2904
51109SOL    HW162105   1.173   8.915   0.369 -1.1090 -0.1963 -0.1943
51109SOL    HW262106   1.268   9.024   0.323  0.6818 -0.9471  1.5566
51110SOL     OW62107   6.851   1.262  11.284 -0.5738 -0.2876 -0.1682
51110SOL    HW162108   6.868   1.356  11.280 -0.3791 -0.2960  0.4113
51110SOL    HW262109   6.899   1.225  11.211  1.3441 -0.2251  1.0041
51111SOL     OW62110   8.524   2.544   2.775  0.3848 -0.3282 -0.2038
51111SOL    HW162111   8.499   2.612   2.837 -0.7749 -1.1921  0.3137
51111SOL    HW262112   8.581   2.588   2.712 -2.2282  1.7627 -1.3075
51112SOL     OW62113   0.481   0.910   4.554  0.7836 -0.4778  0.0015
51112SOL    HW162114   0.456   0.834   4.500  0.9840 -0.6652  0.1710
51112SOL    HW262115   0.570   0.890   4.583  1.7643  0.8573 -1.8444
51113SOL     OW62116  10.738   5.183  12.308  0.2996  0.0258  0.5697
51113SOL    HW162117  10.713   5.091  12.294 -1.2504  0.4033  0.6715
51113SOL    HW262118  10.790   5.181  12.388  1.1666 -0.8848  0.0104
51114SOL     OW62119   7.732   7.898   3.082  1.2300  0.2091 -0.3254
51114SOL    HW162120   7.774   7.902   2.997 -0.2097  1.2279 -1.0341
51114SOL    HW262121   7.649   7.944   3.070  0.6385 -0.3165  1.4243
51115SOL     OW62122   6.360   3.218   4.375  0.4644  0.0587  0.1174
51115SOL    HW162123   6.363   3.181   4.464  1.2692 -2.4172 -0.8615
51115SOL    HW262124   6.433   3.279   4.373 -0.8684  1.8739  1.7714
51116SOL     OW62125   8.860  12.132   4.727  0.2106 -0.3171 -0.2087
51116SOL    HW162126   8.774  12.113   4.689  0.8408 -0.6426 -1.5619
51116SOL    HW262127   8.877  12.059   4.786 -0.8523  0.2588  0.8486
51117SOL     OW62128   4.530   9.720   7.752  0.4390  0.3312 -0.0506
51117SOL    HW162129   4.501   9.748   7.665  2.2245 -1.7986 -1.4495
51117SOL    HW262130   4.450   9.698   7.799 -0.5030 -1.2373 -2.2137
51118SOL     OW62131   0.780   7.283   6.791  0.0007  0.1176  0.0981
51118SOL    HW162132   0.731   7.280   6.708 -0.2291 -1.7977  0.2528
51118SOL    HW262133   0.785   7.376   6.813 -3.9326  0.4660  0.2418
51119SOL     OW62134   6.155   7.736   3.321 -0.4140 -0.4334 -0.1594
51119SOL    HW162135   6.218   7.722   3.250 -0.6879  0.4185 -0.5878
51119SOL    HW262136   6.208   7.754   3.398 -0.1179  0.9357 -0.6579
51120SOL     OW62137   6.524   9.011   4.474 -0.1647  0.0713  0.0712
51120SOL    HW162138   6.567   9.052   4.399  1.4641  0.7113  1.2837
51120SOL    HW262139   6.437   8.987   4.442  0.5980 -0.0087 -2.1101
51121SOL     OW62140   6.594   1.206   8.622  0.0817 -0.0250 -0.3754
51121SOL    HW162141   6.588   1.262   8.699 -1.4423  1.5095 -1.5068
51121SOL    HW262142   6.686   1.209   8.596  0.8328 -1.3901  1.8879
51122SOL     OW62143   6.617   9.245   2.055  0.7348  0.1395 -0.1454
51122SOL    HW162144   6.634   9.305   1.982  0.1732 -0.6215 -0.9202
51122SOL    HW262145   6.523   9.249   2.068  0.3728 -1.9291 -1.4752
51123SOL     OW62146   1.586   9.885  11.539 -0.4742 -1.1087  0.4439
51123SOL    HW162147   1.508   9.899  11.593 -0.2181 -0.1649  0.5988
51123SOL    HW262148   1.600   9.790  11.540 -1.0108 -1.1887  1.2784
51124SOL     OW62149   6.398  11.598   2.635 -0.0228 -0.3227 -0.5705
51124SOL    HW162150   6.435  11.668   2.581  1.9421  0.0512  1.1361
51124SOL    HW262151   6.391  11.637   2.722  2.8475 -2.6928  0.8882
51125SOL     OW62152   2.038  11.773   5.809  0.1734 -0.2373 -0.1835
51125SOL    HW162153   2.019  11.843   5.871 -0.2755 -0.1637 -0.3998
51125SOL    HW262154   2.120  11.735   5.841 -0.2006 -0.3971  0.6331
51126SOL     OW62155  12.375   3.543  10.290  0.1321 -0.3882 -0.8049
51126SOL    HW162156  12.454   3.574  10.246  1.1086 -0.3749  0.8415
51126SOL    HW262157  12.336   3.623  10.327  1.1466 -0.6969  1.0925
51127SOL     OW62158   4.861   9.350   7.056 -0.7278  0.1628 -0.3073
51127SOL    HW162159   4.949   9.335   7.021 -0.0183 -0.5745  1.6657
51127SOL    HW262160   4.833   9.432   7.015  1.3625  1.0280 -0.1178
51128SOL     OW62161   9.486   0.469   5.534 -0.9620 -0.1363 -0.2838
51128SOL    HW162162   9.415   0.478   5.471 -1.1315 -0.6212 -0.1653
51128SOL    HW262163   9.550   0.536   5.508 -1.1827 -0.1048 -0.7570
51129SOL     OW62164   8.956   0.860  10.242  0.4890  0.6452 -0.6459
51129SOL    HW162165   8.891   0.885  10.307  1.8613  1.5626  0.4284
51129SOL    HW262166   8.929   0.772  10.214  0.8633 -0.6489  2.5842
51130SOL     OW62167  11.261   8.841  11.350  0.2393 -0.0324 -0.2350
51130SOL    HW162168  11.259   8.901  11.275 -0.7053 -0.8599 -0.8989
51130SOL    HW262169  11.324   8.881  11.410 -0.3155  1.5970 -0.6703
51131SOL     OW62170   0.718   8.353   2.861  0.5055  0.0312  0.2325
51131SOL    HW162171   0.750   8.335   2.773  1.1094  2.0405 -0.0065
51131SOL    HW262172   0.714   8.449   2.867 -2.2313 -0.0346  1.4254
51132SOL     OW62173   0.277  11.036  11.942 -0.6461 -0.4149  0.0825
51132SOL    HW162174   0.218  11.006  11.873  1.2199  0.4132 -1.9971
51132SOL    HW262175   0.273  11.132  11.937 -1.1075 -0.3253  1.7218
51133SOL     OW62176   0.027   5.081   1.976  0.2313 -0.1629 -0.1214
51133SOL    HW162177   0.094   5.148   1.964 -0.2150  0.3962  0.4007
51133SOL    HW262178   0.047   5.043   2.062 -0.4422  0.4096  0.3073
51134SOL     OW62179  11.787   2.988   2.380  0.0329 -0.1946 -0.4425
51134SOL    HW162180  11.726   3.059   2.361  1.0389  0.8761  0.1929
51134SOL    HW262181  11.863   3.032   2.417  0.7094 -1.6109 -0.1108
51135SOL     OW62182  11.226   3.122   6.382  0.1375 -0.2858 -0.4654
51135SOL    HW162183  11.277   3.070   6.445 -0.4823  0.0566  0.3238
51135SOL    HW262184  11.140   3.080   6.381 -1.0351  1.8025  1.6579
51136SOL     OW62185   3.282   3.444  12.610  0.0019  0.3918  0.2101
51136SOL    HW162186   3.195   3.464  12.577 -0.2613  0.6159  1.0281
51136SOL    HW262187   3.311   3.368  12.559 -0.7707  0.1534  0.1277
51137SOL     OW62188   3.789   0.555   8.548  0.5255 -0.7903 -0.1567
51137SOL    HW162189   3.823   0.470   8.519  0.1658 -1.0904  0.2914
51137SOL    HW262190   3.866   0.601   8.581  0.7186 -0.9575 -0.3716
51138SOL     OW62191   6.721   0.247   1.643 -0.3262  0.0425 -0.5542
51138SOL    HW162192   6.758   0.314   1.700  0.0764 -1.1622  0.6588
51138SOL    HW262193   6.629   0.271   1.634 -0.3424  0.3876  0.4183
51139SOL     OW62194  10.538   1.502   1.606 -0.1954  0.5295  0.5258
51139SOL    HW162195  10.569   1.420   1.644 -1.7580  0.2210  1.2572
51139SOL    HW262196  10.447   1.509   1.637 -1.2018  0.8771 -2.2053
51140SOL     OW62197   9.258   6.144   2.586 -0.0253 -0.4219  0.6851
51140SOL    HW162198   9.248   6.061   2.539  0.1641  0.7064 -1.4992
51140SOL    HW262199   9.353   6.155   2.595  0.1534  0.9861 -1.9479
51141SOL     OW62200   2.257   1.792   3.464  0.4037  0.7513 -0.0406
51141SOL    HW162201   2.240   1.779   3.370  1.6047  0.2360 -0.2020
51141SOL    HW262202   2.328   1.856   3.467  1.6483 -0.5717  0.4241
51142SOL     OW62203  12.348   6.766   1.253 -0.1685  0.1264 -0.2123
51142SOL    HW162204  12.307   6.717   1.324 -0.0249 -0.3462 -0.4532
51142SOL    HW262205  12.424   6.809   1.293 -0.1402 -0.0654 -0.0615
51143SOL     OW62206   1.905   9.961   6.394  0.2380  0.0247  0.2070
51143SOL    HW162207   1.958   9.882   6.384  0.6061  0.2950  0.0401
51143SOL    HW262208   1.860   9.971   6.310 -0.3138 -0.3740  0.4493
51144SOL     OW62209  11.646   8.483   3.868  0.4096  0.3456  0.3774
51144SOL    HW162210  11.721   8.496   3.925 -0.9108  0.1789  2.2563
51144SOL    HW262211  11.649   8.556   3.807  2.5742 -0.1542 -0.2067
51145SOL     OW62212   9.220   2.000   5.156 -0.1371 -0.6467 -0.3384
51145SOL    HW162213   9.161   2.031   5.086 -1.0162 -0.5769  0.4102
51145SOL    HW262214   9.299   2.052   5.145 -0.1152 -0.8869 -1.5066
51146SOL     OW62215   0.846   6.156  10.407 -0.5456 -0.2044 -0.2068
51146SOL    HW162216   0.824   6.082  10.463 -1.3090  0.2856  0.1549
51146SOL    HW262217   0.926   6.193  10.446  0.6238 -1.5971 -1.1535
51147SOL     OW62218   3.846   0.556  10.211  0.3287 -0.5576 -0.1653
51147SOL    HW162219   3.916   0.497  10.183  0.6307 -0.6291  0.6902
51147SOL    HW262220   3.827   0.609  10.134  0.3698 -1.4619 -0.8156
51148SOL     OW62221   5.321  11.836   7.935 -0.1042 -0.3703  0.0452
51148SOL    HW162222   5.330  11.897   8.008  0.5115  0.4481 -0.7072
51148SOL    HW262223   5.349  11.885   7.858 -1.1339 -1.0906 -0.8175
51149SOL     OW62224   6.159   5.044   9.508  0.3001 -0.1821  0.8293
51149SOL    HW162225   6.099   5.017   9.439  1.9152 -1.6798 -0.0486
51149SOL    HW262226   6.159   4.971   9.570  1.5866 -0.4290  0.5571
51150SOL     OW62227   3.300   6.323   9.646 -0.1797 -0.1861 -0.3382
51150SOL    HW162228   3.292   6.252   9.709  1.0859  1.2416  1.5631
51150SOL    HW262229   3.211   6.338   9.616 -1.0128 -0.3538  1.8350
51151SOL     OW62230   9.322   3.557   6.285  0.0416  0.0199 -0.8838
51151SOL    HW162231   9.249   3.496   6.291 -1.0706  1.3418 -0.5813
51151SOL    HW262232   9.361   3.557   6.372 -0.8352  0.7746 -0.4757
51152SOL     OW62233   3.143   5.377   1.160  0.4168 -0.1406 -0.2338
51152SOL    HW162234   3.143   5.472   1.168 -0.3706 -0.0900 -0.7216
51152SOL    HW262235   3.202   5.347   1.229  0.1584  0.6638  0.3459
51153SOL     OW62236   5.915  10.857   1.017 -0.0637  0.1679  0.2298
51153SOL    HW162237   5.858  10.930   0.992  1.3523  0.6818 -1.7563
51153SOL    HW262238   5.875  10.780   0.976  0.3203  0.4410 -0.6944
51154SOL     OW62239   3.349  11.219   8.192  0.7706  0.2530  0.0254
51154SOL    HW162240   3.307  11.296   8.153  0.1118  0.0414  0.3095
51154SOL    HW262241   3.436  11.250   8.216  0.0558  1.3100  1.4013
51155SOL     OW62242   9.644   2.473   2.879 -0.2396 -0.5756 -0.3361
51155SOL    HW162243   9.668   2.564   2.894  1.0473 -0.7457 -1.2308
51155SOL    HW262244   9.693   2.424   2.945  0.0718 -0.7295 -0.6814
51156SOL     OW62245   4.795   0.138   6.532 -1.2586 -0.5070 -0.3273
51156SOL    HW162246   4.848   0.200   6.483  0.1277 -1.3476  0.0601
51156SOL    HW262247   4.749   0.087   6.464 -0.3016 -0.8472 -0.7306
51157SOL     OW62248   1.509   6.850   6.588 -0.1450 -0.1474 -0.5016
51157SOL    HW162249   1.420   6.845   6.623  0.9457  0.8572  2.8048
51157SOL    HW262250   1.523   6.943   6.572  0.6429 -0.1795 -0.0199
51158SOL     OW62251   5.752   7.260   3.212 -0.4825 -0.0879 -0.2487
51158SOL    HW162252   5.686   7.228   3.150  0.1490 -0.9360 -0.5163
51158SOL    HW262253   5.782   7.343   3.175 -0.6438 -0.2230 -0.6925
51159SOL     OW62254   7.781   3.226   2.465 -0.5387 -0.0208 -0.5470
51159SOL    HW162255   7.749   3.192   2.548  0.5251 -0.4371 -0.2867
51159SOL    HW262256   7.738   3.171   2.399 -0.9242 -0.0829 -0.2475
51160SOL     OW62257   7.314   6.256   1.215  0.2026  0.0701 -0.1638
51160SOL    HW162258   7.405   6.235   1.192  0.3715 -0.5133  0.9550
51160SOL    HW262259   7.320   6.300   1.300 -0.6210 -0.9004  0.4190
51161SOL     OW62260   2.121   1.437   0.643  0.1253 -0.3160 -0.1485
51161SOL    HW162261   2.049   1.406   0.699 -1.9242  0.5261 -2.1774
51161SOL    HW262262   2.123   1.531   0.657  0.9168 -0.3429 -0.0467
51162SOL     OW62263  12.108   0.658   1.675 -0.1534  0.2501 -0.5815
51162SOL    HW162264  12.038   0.687   1.733  0.5832  0.4153  0.2527
51162SOL    HW262265  12.151   0.587   1.722  1.0771  1.0403 -0.4676
51163SOL     OW62266   0.638   0.022   9.546  0.0024  0.1268  0.0102
51163SOL    HW162267   0.569  -0.045   9.542  0.6536 -0.5963  0.6412
51163SOL    HW262268   0.596   0.101   9.512 -0.2585 -1.0110 -2.5421
51164SOL     OW62269   8.964  10.135  12.250 -0.4149  0.3207  0.4027
51164SOL    HW162270   8.930  10.057  12.206  0.5839 -2.9664  4.7306
51164SOL    HW262271   8.895  10.162  12.310  1.0898 -0.7417  2.7626
51165SOL     OW62272   5.933   7.322   9.101  0.2687  0.2250  0.2615
51165SOL    HW162273   6.027   7.313   9.087  0.1203  1.9479 -2.4271
51165SOL    HW262274   5.906   7.390   9.040 -2.4572  1.0566  2.2189
51166SOL     OW62275   2.319   3.191   0.532 -0.2154 -0.4970  0.0997
51166SOL    HW162276   2.329   3.278   0.572 -0.3433 -0.0108 -0.8895
51166SOL    HW262277   2.227   3.168   0.547 -0.2052 -0.4243  0.2801
51167SOL     OW62278   6.899  11.877   7.830 -0.6374  0.2586 -0.4843
51167SOL    HW162279   6.817  11.831   7.812  0.0289 -1.1959  0.0125
51167SOL    HW262280   6.907  11.874   7.925  0.8724 -1.2997 -0.6052
51168SOL     OW62281   3.105  11.333  11.088 -0.2857  0.7235  0.3959
51168SOL    HW162282   3.013  11.359  11.087 -0.6443 -0.2588 -2.3924
51168SOL    HW262283   3.103  11.239  11.072  1.2100  0.4709  1.4974
51169SOL     OW62284  11.735   0.289   6.226  0.4429 -0.0930 -0.2769
51169SOL    HW162285  11.801   0.219   6.228 -0.6067 -1.1443 -1.1094
51169SOL    HW262286  11.688   0.280   6.309 -0.8684 -1.5900 -1.1367
51170SOL     OW62287   3.226   1.239  10.673 -0.4447 -0.3737  0.0736
51170SOL    HW162288   3.284   1.167  10.698  0.1726  1.1142  3.6954
51170SOL    HW262289   3.145   1.197  10.646  0.4137 -2.4439  0.5298
51171SOL     OW62290   2.234   4.823   7.675 -0.2937 -0.2587  0.0872
51171SOL    HW162291   2.160   4.814   7.736 -1.6030  0.1283 -1.3559
51171SOL    HW262292   2.194   4.858   7.595  1.3530 -0.7252 -0.9878
51172SOL     OW62293   4.475   0.054   5.918 -0.8962  0.1590  0.1298
51172SOL    HW162294   4.398   0.051   5.861  0.1319  0.9155 -1.3616
51172SOL    HW262295   4.474   0.142   5.955  0.4045  0.9761 -1.6384
51173SOL     OW62296  10.964  12.173   5.311  0.6010  0.1583 -0.6914
51173SOL    HW162297  11.025  12.247   5.320  1.0646 -0.3054  0.1146
51173SOL    HW262298  10.916  12.172   5.393  0.1204 -0.0328 -0.9714
51174SOL     OW62299   5.640   2.909  10.003 -0.3820  0.5287 -0.4303
51174SOL    HW162300   5.706   2.939   9.941 -0.1082  0.3090 -0.2486
51174SOL    HW262301   5.642   2.973  10.074  0.5415 -0.1703  0.1879
51175SOL     OW62302  10.743   2.786  12.526 -0.0842  0.3879 -0.1119
51175SOL    HW162303  10.828   2.743  12.515 -1.7360 -2.6186 -3.1371
51175SOL    HW262304  10.758   2.876  12.496  2.0447  0.0027 -0.3915
51176SOL     OW62305   5.005   7.510  12.139 -0.1941  0.3632  0.6375
51176SOL    HW162306   5.061   7.541  12.068 -1.0180 -1.8564 -1.1121
51176SOL    HW262307   5.066   7.470  12.202  0.4314  0.9809  0.4364
51177SOL     OW62308   6.689   2.250   8.049  0.1983  0.2211  0.3982
51177SOL    HW162309   6.698   2.264   7.955 -1.3675 -0.8510  0.0572
51177SOL    HW262310   6.695   2.338   8.087  0.9113  0.6583 -0.6736
51178SOL     OW62311   2.259  10.090  10.618  0.4694  0.0567 -0.4940
51178SOL    HW162312   2.254  10.166  10.676  1.8897 -1.0372  1.1633
51178SOL    HW262313   2.352  10.069  10.613  0.0911 -1.7806 -0.6058
51179SOL     OW62314   3.157   3.287  11.697  0.2724 -0.2379 -0.2430
51179SOL    HW162315   3.067   3.270  11.669 -0.5610  0.8170  1.6068
51179SOL    HW262316   3.205   3.206  11.675 -1.6231 -1.7012  0.7172
51180SOL     OW62317   3.047   5.005  10.696 -0.6817 -0.6251  0.1010
51180SOL    HW162318   3.030   5.067  10.624 -0.1847 -0.8759 -0.2409
51180SOL    HW262319   2.997   5.039  10.770 -0.8139 -0.0922 -0.2302
51181SOL     OW62320   5.109  12.417   2.451 -0.2525 -0.3058  0.1322
51181SOL    HW162321   5.035  12.358   2.439  0.6484 -1.7150  1.2203
51181SOL    HW262322   5.147  12.428   2.364 -1.3637 -0.0386 -0.3315
51182SOL     OW62323   4.125   9.288   5.919  0.1707 -0.0409  0.0620
51182SOL    HW162324   4.088   9.373   5.895  0.0485 -0.1112  0.0026
51182SOL    HW262325   4.053   9.243   5.962  0.1968 -0.1668 -0.0276
51183SOL     OW62326   0.452   5.855   2.424  0.4274 -0.1206  0.1143
51183SOL    HW162327   0.502   5.878   2.502  0.3698  1.9228 -0.3902
51183SOL    HW262328   0.477   5.921   2.359 -1.5373 -0.1261 -0.7306
51184SOL     OW62329   6.875   8.918  10.037 -0.4145  0.5255 -0.5831
51184SOL    HW162330   6.927   8.995  10.017 -0.0901 -0.1912 -2.7074
51184SOL    HW262331   6.786   8.941  10.010 -0.7391  0.8466  0.6878
51185SOL     OW62332   0.697  11.501   2.024  0.2204  1.0236 -0.1259
51185SOL    HW162333   0.696  11.478   2.117 -1.9400  1.1225 -0.0895
51185SOL    HW262334   0.615  11.547   2.008  1.4837  2.9571 -1.6528
51186SOL     OW62335   5.828   8.745   4.352  0.6668  0.5619 -0.2727
51186SOL    HW162336   5.922   8.729   4.339  0.5605 -0.8989  0.5680
51186SOL    HW262337   5.826   8.826   4.404  1.4152  1.1088 -1.0623
51187SOL     OW62338   6.252   9.488   8.732 -0.0055  0.2643  0.4876
51187SOL    HW162339   6.288   9.577   8.738  0.6759 -0.0516  1.2894
51187SOL    HW262340   6.274   9.459   8.643  0.0694  0.7730  0.3395
51188SOL     OW62341   6.366   2.802   1.527 -0.1440 -0.9917  0.3580
51188SOL    HW162342   6.409   2.747   1.462  0.8221  1.4798 -1.2523
51188SOL    HW262343   6.372   2.891   1.491 -1.5911  0.2052  2.7930
51189SOL     OW62344   1.711   4.894   9.436 -0.2132 -0.4839 -0.1123
51189SOL    HW162345   1.772   4.824   9.412  0.0680  0.0059 -0.8456
51189SOL    HW262346   1.658   4.908   9.358 -1.7681 -1.3904  0.7282
51190SOL     OW62347   1.278  12.309   4.866 -1.2135  0.0921 -0.3899
51190SOL    HW162348   1.244  12.398   4.859 -0.7155  0.2574 -0.7631
51190SOL    HW262349   1.220  12.256   4.812 -2.1358  0.0019  0.6503
51191SOL     OW62350   5.851  10.235   5.385 -0.4563 -0.5289 -0.0585
51191SOL    HW162351   5.787  10.273   5.445 -1.4266 -0.6514 -0.9963
51191SOL    HW262352   5.913  10.306   5.368  0.5988 -0.8551  2.0745
51192SOL     OW62353   5.101  10.880   4.809 -0.1746  0.3011  0.2704
51192SOL    HW162354   5.062  10.945   4.750 -0.3627 -0.3315 -0.3094
51192SOL    HW262355   5.042  10.805   4.805  0.7288 -0.4029 -0.0745
51193SOL     OW62356   5.488   7.703   5.212 -0.3391  0.1655 -0.0578
51193SOL    HW162357   5.470   7.615   5.247  1.6617 -0.3762 -0.2942
51193SOL    HW262358   5.499   7.688   5.118  1.7590  0.3306  0.1197
51194SOL     OW62359   8.648  12.487   8.901  0.0377 -0.1524  0.5583
51194SOL    HW162360   8.600  12.552   8.850 -1.7099 -1.7642 -0.0078
51194SOL    HW262361   8.739  12.497   8.874 -0.7103 -0.4621 -2.4680
51195SOL     OW62362   5.890   6.743  10.863 -0.0301  0.0836 -0.2909
51195SOL    HW162363   5.971   6.771  10.820  1.3705 -1.0358  1.4969
51195SOL    HW262364   5.826   6.737  10.791  1.2545  1.6223 -1.6531
51196SOL     OW62365   3.930   9.415   6.207  0.1262  0.3554 -0.5944
51196SOL    HW162366   4.016   9.457   6.194  0.3083  0.1767  0.0134
51196SOL    HW262367   3.868   9.473   6.162  0.7057 -0.1734 -2.1736
51197SOL     OW62368   3.237  11.483   4.446 -0.0543  0.3200  0.4350
51197SOL    HW162369   3.203  11.549   4.385 -0.7692  1.3581  1.9071
51197SOL    HW262370   3.195  11.504   4.530  0.5751 -1.3330  1.1974
51198SOL     OW62371   9.071   7.136   4.495 -0.1762 -0.2278 -0.1162
51198SOL    HW162372   8.991   7.168   4.537 -0.3145  0.5586 -0.9383
51198SOL    HW262373   9.142   7.177   4.545 -0.3509  1.5480 -1.2190
51199SOL     OW62374   7.656   1.995   6.236 -0.3969  0.2772  0.0212
51199SOL    HW162375   7.563   1.978   6.216 -0.1792 -0.0022 -0.8008
51199SOL    HW262376   7.681   2.063   6.174  0.3847 -0.8250 -0.9116
51200SOL     OW62377   2.574  11.311   1.310  0.8205 -0.0554  0.2982
51200SOL    HW162378   2.588  11.285   1.219 -0.2600 -2.1919  0.6776
51200SOL    HW262379   2.518  11.389   1.304 -1.5945 -1.7415 -0.9143
51201SOL     OW62380  11.495   7.089   6.713  0.2188 -0.3026 -0.7147
51201SOL    HW162381  11.492   7.063   6.621  1.6214  0.8827 -1.1353
51201SOL    HW262382  11.588   7.089   6.735 -0.1589 -2.0563  1.1872
51202SOL     OW62383   2.255   7.218  12.116  0.4232  0.8071 -0.1390
51202SOL    HW162384   2.344   7.192  12.141 -0.1553 -0.5108  0.6130
51202SOL    HW262385   2.216   7.253  12.196 -0.3013 -0.2400 -0.0161
51203SOL     OW62386  12.502   8.480   4.198 -0.5635 -0.7774  0.0124
51203SOL    HW162387  12.500   8.386   4.218  0.7923 -1.1153 -1.2297
51203SOL    HW262388  12.594   8.505   4.211 -0.7950  0.2374 -0.2432
51204SOL     OW62389   6.562   7.714  10.208  0.0291  0.4082 -0.0741
51204SOL    HW162390   6.569   7.657  10.132 -0.1310  1.6067 -1.0316
51204SOL    HW262391   6.517   7.792  10.175 -1.3069  0.4057  1.5762
51205SOL     OW62392   2.224  10.237   5.465 -0.4116  0.3906 -0.3850
51205SOL    HW162393   2.277  10.239   5.386  2.2099  0.0262  1.2427
51205SOL    HW262394   2.263  10.303   5.522 -0.5074 -1.1585  1.5907
51206SOL     OW62395   7.983   3.287   3.912 -0.5644 -0.3779 -0.4265
51206SOL    HW162396   7.988   3.256   3.821 -0.5343 -2.2547  0.1612
51206SOL    HW262397   7.971   3.207   3.963  0.1135  0.5760  1.2949
51207SOL     OW62398   2.145  11.041   4.095 -0.3672 -0.4271  0.2882
51207SOL    HW162399   2.110  10.955   4.120  0.4697 -1.0570 -0.6327
51207SOL    HW262400   2.236  11.024   4.073 -0.5695  0.4157 -1.3505
51208SOL     OW62401  11.936   3.903  11.879 -0.3489  0.2746 -0.0242
51208SOL    HW162402  11.975   3.816  11.887 -1.6809 -0.4121 -0.7238
51208SOL    HW262403  11.980   3.942  11.803 -0.7356 -0.3433 -0.5730
51209SOL     OW62404   3.061   8.949   8.747 -0.5425  0.1574  0.0989
51209SOL    HW162405   3.153   8.974   8.756 -1.3732  3.2377  1.1688
51209SOL    HW262406   3.030   8.997   8.671 -1.6080  0.3030  0.6020
51210SOL     OW62407   9.923   4.981   2.769  0.1981  0.3620 -0.3707
51210SOL    HW162408   9.897   5.065   2.729  1.2551  0.3597 -1.1151
51210SOL    HW262409   9.908   4.916   2.700 -1.6321 -0.2631  0.5529
51211SOL     OW62410   2.285   7.376   0.698 -0.3131 -0.3491 -0.1111
51211SOL    HW162411   2.335   7.368   0.617  1.7155 -0.1315  1.0515
51211SOL    HW262412   2.340   7.429   0.755 -3.4024  3.0590  0.1215
51212SOL     OW62413   6.850  11.379   8.292 -0.5903 -0.0959  0.0016
51212SOL    HW162414   6.771  11.409   8.248 -1.0960 -0.8424  0.3825
51212SOL    HW262415   6.850  11.284   8.280  0.6114 -0.0369 -0.5727
51213SOL     OW62416  11.971   7.125   0.492 -0.4764  0.3882 -0.4071
51213SOL    HW162417  11.986   7.215   0.464  0.1012  0.0563 -1.2052
51213SOL    HW262418  11.909   7.089   0.427  0.0307 -0.0630 -0.6536
51214SOL     OW62419   4.762   0.946  12.039  0.4305  0.0568  0.0560
51214SOL    HW162420   4.702   0.991  11.979 -0.3644 -0.7574  0.2086
51214SOL    HW262421   4.832   0.913  11.984  0.0017 -0.1915 -0.3487
51215SOL     OW62422  11.803   7.231  10.947  0.1428 -0.3365 -0.9051
51215SOL    HW162423  11.865   7.235  11.019 -0.1627  2.9986 -0.7041
51215SOL    HW262424  11.740   7.164  10.973  0.3959  0.3356  1.6455
51216SOL     OW62425   7.883   6.676   2.052 -0.0522 -0.1006  0.0433
51216SOL    HW162426   7.892   6.721   1.968  0.7940  0.7318  0.5547
51216SOL    HW262427   7.818   6.728   2.100 -0.7774 -0.7618 -0.2053
51217SOL     OW62428   4.367  10.562   5.533  0.0249  0.3042 -0.1842
51217SOL    HW162429   4.326  10.625   5.593  0.1951 -0.4767  0.7945
51217SOL    HW262430   4.338  10.589   5.446  0.0731  1.7062  0.2115
51218SOL     OW62431   4.537   5.593  12.362 -0.2119  0.6501  0.0726
51218SOL    HW162432   4.518   5.567  12.272  0.5014  0.5981 -0.0642
51218SOL    HW262433   4.542   5.689  12.359 -0.1557  0.6463  0.0532
51219SOL     OW62434   2.255   2.245   4.560  0.3593  0.5546  0.3498
51219SOL    HW162435   2.313   2.234   4.636  1.7357  1.3650 -0.5290
51219SOL    HW262436   2.187   2.180   4.572  0.7081  0.4675  2.1309
51220SOL     OW62437   2.097   5.172  12.287  0.4644  0.0529 -0.3116
51220SOL    HW162438   2.035   5.234  12.326  0.1218  1.0577 -2.3342
51220SOL    HW262439   2.046   5.091  12.275 -0.1632  0.5383 -0.9934
51221SOL     OW62440   6.709  11.577   1.615  0.3476  0.9092  0.2591
51221SOL    HW162441   6.647  11.582   1.688 -0.4307 -2.5128  0.0017
51221SOL    HW262442   6.655  11.584   1.537  0.7522  1.3391  0.0153
51222SOL     OW62443  12.081   3.157   8.934  0.3760  0.3150 -0.9543
51222SOL    HW162444  12.154   3.104   8.967 -2.1315 -1.4708  2.3354
51222SOL    HW262445  12.103   3.247   8.960  0.4325 -0.4977  2.2097
51223SOL     OW62446   5.033   8.213   1.200  0.4288  0.0903  0.1877
51223SOL    HW162447   4.945   8.178   1.213  0.4403  0.7893  2.7224
51223SOL    HW262448   5.092   8.142   1.226  0.5991  0.0885 -0.1899
51224SOL     OW62449   4.538   5.773  11.560 -0.3997 -0.0784 -0.0317
51224SOL    HW162450   4.476   5.704  11.586  1.2679 -1.5169  0.3282
51224SOL    HW262451   4.592   5.787  11.638 -0.4727  1.3976 -0.2247
51225SOL     OW62452  10.849  11.948  10.815  0.3323  0.3830  0.3008
51225SOL    HW162453  10.767  11.910  10.848 -0.0026  0.2759 -0.6356
51225SOL    HW262454  10.891  11.876  10.767 -0.2341  1.1235 -1.3666
51226SOL     OW62455   8.329   1.104   3.405 -0.0240  0.3773  0.3099
51226SOL    HW162456   8.338   1.030   3.345  0.6689  1.8908 -1.5577
51226SOL    HW262457   8.387   1.083   3.479 -0.3238 -1.1930  0.1236
51227SOL     OW62458   8.068   2.082   1.191  0.5839  1.2372 -0.5610
51227SOL    HW162459   8.013   2.053   1.119  0.4668  1.7923 -0.7015
51227SOL    HW262460   8.126   2.148   1.152 -0.1298  2.2525  0.0484
51228SOL     OW62461   5.614  12.017   7.303 -0.5810 -0.4935  0.3638
51228SOL    HW162462   5.555  11.986   7.234  1.4664  0.4649 -1.9362
51228SOL    HW262463   5.689  11.959   7.299 -0.7055 -0.8498  2.3191
51229SOL     OW62464   7.870  11.290  10.970 -0.0968  0.4353 -0.2471
51229SOL    HW162465   7.838  11.216  11.022 -2.8199  1.6474  0.0146
51229SOL    HW262466   7.790  11.334  10.941  1.4162  2.4370 -1.6142
51230SOL     OW62467   4.664   0.118   7.984 -0.3928 -0.4357  0.2039
51230SOL    HW162468   4.744   0.166   7.964  1.4316 -2.5132  2.0761
51230SOL    HW262469   4.604   0.184   8.017  0.0741  1.3431 -2.2013
51231SOL     OW62470   4.445   6.270   1.968  0.5847  0.4006  0.1312
51231SOL    HW162471   4.362   6.239   2.004  1.6664 -1.2586  1.3646
51231SOL    HW262472   4.422   6.310   1.884 -1.6740  1.8092  1.3378
51232SOL     OW62473  11.289   5.053   9.164 -0.2790  0.2300  0.1636
51232SOL    HW162474  11.244   5.128   9.203 -0.3133  0.8472 -0.9884
51232SOL    HW262475  11.355   5.028   9.228  0.3201  1.8320  0.2192
51233SOL     OW62476   7.501   0.192   6.131  0.3158 -0.3416 -0.0350
51233SOL    HW162477   7.485   0.231   6.045  0.8484  0.2341  0.1237
51233SOL    HW262478   7.592   0.214   6.151  0.9154 -2.3453 -0.2952
51234SOL     OW62479   3.704  12.181  10.066  0.3939 -0.5728  0.1845
51234SOL    HW162480   3.612  12.155  10.074  0.0690  0.6924  0.8333
51234SOL    HW262481   3.753  12.099  10.069 -0.5600 -1.1265  2.4609
51235SOL     OW62482   4.615   2.102  10.934 -0.4561 -0.1543 -0.1943
51235SOL    HW162483   4.575   2.094  10.848  0.2511  2.2609 -0.8340
51235SOL    HW262484   4.671   2.180  10.927  0.3018 -0.4035  2.1906
51236SOL     OW62485   1.954  10.998   6.015  0.2592  0.8777  0.2563
51236SOL    HW162486   2.015  11.030   5.949  0.3074 -0.1661 -0.2286
51236SOL    HW262487   1.874  11.049   6.001 -0.4636 -0.7137 -2.0331
51237SOL     OW62488   8.012   0.747  11.212 -0.6639 -0.2424 -0.5291
51237SOL    HW162489   8.047   0.779  11.129  1.8407 -1.5105 -0.0489
51237SOL    HW262490   7.997   0.654  11.198  0.2367 -0.5645  0.5632
51238SOL     OW62491   5.288   7.858   0.012 -0.0346  0.0596  0.0214
51238SOL    HW162492   5.208   7.831   0.056  0.8628  0.9611  2.4088
51238SOL    HW262493   5.282   7.953   0.007 -0.1070 -0.0075 -1.9419
51239SOL     OW62494   7.861   0.998   6.224  0.1527 -0.2107  0.0927
51239SOL    HW162495   7.917   1.028   6.153 -0.4476 -1.0850 -0.7735
51239SOL    HW262496   7.790   1.062   6.228 -0.4858 -0.8236 -0.9535
51240SOL     OW62497  10.310  11.966  10.252 -0.3393 -0.2402  0.9709
51240SOL    HW162498  10.231  11.987  10.202  0.2944  1.4079  0.5972
51240SOL    HW262499  10.296  12.009  10.337  0.7072  1.2834  0.4215
51241SOL     OW62500   8.801   7.133  12.262  0.3159 -0.6298 -0.1183
51241SOL    HW162501   8.723   7.088  12.230  0.9628 -0.2682 -2.3629
51241SOL    HW262502   8.864   7.063  12.280 -0.0267 -0.8316  0.3145
51242SOL     OW62503   9.196   1.455   7.946 -0.1965  0.3938 -0.5296
51242SOL    HW162504   9.172   1.383   8.005  0.5776  0.4820 -0.0959
51242SOL    HW262505   9.286   1.477   7.970  0.9049 -0.9297 -3.0934
51243SOL     OW62506   2.974   2.412  11.757 -0.2017  0.4484  0.5455
51243SOL    HW162507   2.969   2.347  11.687  1.6602  0.2526  0.5686
51243SOL    HW262508   2.976   2.361  11.838  1.5962  0.4760  0.5499
51244SOL     OW62509   2.916   1.024  10.968 -0.2914  0.6965  0.3585
51244SOL    HW162510   2.966   1.101  10.941  1.3933 -0.6741 -0.6411
51244SOL    HW262511   2.846   1.018  10.903  0.7091  0.3486 -0.7368
51245SOL     OW62512   9.389   0.549   7.107 -0.2883  0.2370 -0.5580
51245SOL    HW162513   9.456   0.482   7.121 -0.2608  0.4654  0.4843
51245SOL    HW262514   9.310   0.500   7.086 -0.0129 -0.0739 -0.8770
51246SOL     OW62515   9.703   5.889   5.774 -0.6032  0.0998  0.6428
51246SOL    HW162516   9.731   5.978   5.797 -1.6262  0.1301  1.8915
51246SOL    HW262517   9.775   5.854   5.721 -0.7590  2.1361 -1.0288
51247SOL     OW62518   0.214   2.168   5.026 -0.0622 -0.2486 -0.2026
51247SOL    HW162519   0.145   2.222   5.064  0.1248 -0.8830  1.1195
51247SOL    HW262520   0.279   2.161   5.096  1.5515  0.6498 -1.5308
51248SOL     OW62521   6.688   5.431   5.020 -0.5306  0.0642  0.2482
51248SOL    HW162522   6.773   5.386   5.022 -0.9434 -0.7832 -0.4195
51248SOL    HW262523   6.708   5.520   4.995  0.1372 -0.1987 -0.1711
51249SOL     OW62524   0.380   6.188   7.069  0.1784  0.1380  0.2895
51249SOL    HW162525   0.462   6.227   7.041 -0.1775  1.2186  0.7075
51249SOL    HW262526   0.334   6.166   6.988  0.3949  0.5683  0.0499
51250SOL     OW62527   5.621   6.172   0.004 -0.2608 -0.1795  0.3559
51250SOL    HW162528   5.650   6.260   0.029  0.3484 -0.5842  1.1604
51250SOL    HW262529   5.698   6.117   0.020 -0.0381 -0.6021 -1.8714
51251SOL     OW62530   1.635   2.123   1.935 -0.4247 -0.0603  0.2652
51251SOL    HW162531   1.593   2.055   1.987 -2.5451  1.4371  0.6450
51251SOL    HW262532   1.562   2.174   1.899  1.0612  1.1993 -1.1036
51252SOL     OW62533   6.040   7.153   1.802  0.0162  0.0301  0.6157
51252SOL    HW162534   6.130   7.159   1.771  0.8374 -1.2438  2.5822
51252SOL    HW262535   6.035   7.069   1.848 -2.4626 -0.3978 -0.2424
51253SOL     OW62536  11.933   2.338   5.858 -0.1137  0.0664  1.1615
51253SOL    HW162537  11.928   2.358   5.952  1.8128  2.0152  0.9255
51253SOL    HW262538  12.022   2.304   5.845  0.4934  2.0324 -0.2686
51254SOL     OW62539   4.501   0.980   3.067 -0.2162  0.1752 -0.4615
51254SOL    HW162540   4.585   0.950   3.031  0.2450  0.4885  0.3365
51254SOL    HW262541   4.437   0.957   2.999  0.5827  0.4293 -1.3325
51255SOL     OW62542  11.570   2.988   7.719  0.2453  0.6453  0.1333
51255SOL    HW162543  11.626   3.054   7.677  2.6145 -1.1470  0.2222
51255SOL    HW262544  11.611   2.973   7.804 -1.3941  0.4229  0.9127
51256SOL     OW62545   0.053  10.727   4.217  0.3270  0.5338 -0.3006
51256SOL    HW162546   0.028  10.680   4.138 -0.7197 -1.8123  1.3237
51256SOL    HW262547   0.147  10.712   4.225  0.9390  2.6863 -2.1834
51257SOL     OW62548   1.277   2.611   6.103 -0.0901  0.1244 -0.0045
51257SOL    HW162549   1.207   2.578   6.158 -0.5188  0.8922 -0.0778
51257SOL    HW262550   1.328   2.533   6.079 -0.1249 -0.2597  1.1418
51258SOL     OW62551  10.420   4.835   9.168  0.0853  0.6760 -0.6941
51258SOL    HW162552  10.383   4.918   9.199 -0.3870  0.8093 -1.5975
51258SOL    HW262553  10.498   4.860   9.118  2.1992  0.3394  2.1748
51259SOL     OW62554   4.712   7.162   1.417 -0.1477  0.1180  0.4199
51259SOL    HW162555   4.756   7.205   1.491 -1.7738  1.0156  0.9113
51259SOL    HW262556   4.783   7.129   1.363  1.1263  1.1398  1.3996
51260SOL     OW62557   9.223   6.175   8.250 -0.2918  0.1251 -0.0153
51260SOL    HW162558   9.259   6.189   8.337 -2.7015 -1.8272  1.4147
51260SOL    HW262559   9.281   6.110   8.210  0.9206  1.1571  0.0272
51261SOL     OW62560   7.081   3.142   9.623  0.0562  0.0813  0.3597
51261SOL    HW162561   7.173   3.154   9.645  0.4030 -2.6148  0.6547
51261SOL    HW262562   7.039   3.120   9.707 -0.4881 -0.5654 -0.0729
51262SOL     OW62563   8.736   7.223  10.992  0.2330 -0.1802  0.0634
51262SOL    HW162564   8.732   7.315  11.018 -1.6322  0.0279 -0.7908
51262SOL    HW262565   8.708   7.175  11.070  3.1036 -0.2579  1.1858
51263SOL     OW62566   2.768  11.408   0.633 -0.4115 -0.4382  0.1714
51263SOL    HW162567   2.731  11.457   0.560 -0.5893  0.8192  1.0571
51263SOL    HW262568   2.726  11.445   0.711  0.3727 -1.1582  0.9740
51264SOL     OW62569   5.016   8.016   9.874 -0.1381 -0.0634 -0.6505
51264SOL    HW162570   5.072   8.063   9.812  0.7955 -0.4889 -0.1502
51264SOL    HW262571   4.947   8.079   9.895  0.1037  0.4549 -1.3255
51265SOL     OW62572   5.241  11.808   6.718 -0.5205 -0.1877 -0.2966
51265SOL    HW162573   5.319  11.838   6.765 -1.4646  0.2090  1.0849
51265SOL    HW262574   5.169  11.829   6.777 -1.5656 -1.6976 -0.9888
51266SOL     OW62575   8.764   6.427  11.472  0.2536  0.0967  0.3723
51266SOL    HW162576   8.793   6.368  11.402  3.1487  1.9273 -0.1207
51266SOL    HW262577   8.843   6.447  11.521 -0.9327  2.3022  1.4983
51267SOL     OW62578   0.523   9.568   5.856 -0.1319  0.3449  0.1041
51267SOL    HW162579   0.574   9.581   5.936  0.1456 -1.6338  0.2947
51267SOL    HW262580   0.446   9.624   5.868  0.6577  1.2839  1.0356
51268SOL     OW62581   8.568   3.307   2.849  0.5427 -0.0669  0.2852
51268SOL    HW162582   8.587   3.219   2.816  2.1301  0.6539 -0.8822
51268SOL    HW262583   8.481   3.300   2.889  0.9623 -2.3222  0.9013
51269SOL     OW62584   2.675   0.967   4.934 -0.2188 -0.7253 -1.0372
51269SOL    HW162585   2.704   0.878   4.954 -0.3137 -0.4194  0.6299
51269SOL    HW262586   2.582   0.967   4.956 -0.4527 -0.4828 -2.0141
51270SOL     OW62587   0.568   5.400   0.925  0.4408  0.3089 -0.0961
51270SOL    HW162588   0.625   5.452   0.982  1.6185 -1.5336  0.4541
51270SOL    HW262589   0.494   5.459   0.907  1.0075  1.6638  1.6750
51271SOL     OW62590   0.923   1.449   5.053 -0.4666 -0.3877  0.3516
51271SOL    HW162591   0.925   1.544   5.064  0.1128 -0.3880  0.2845
51271SOL    HW262592   0.839   1.422   5.089 -2.7985  0.6526 -3.7195
51272SOL     OW62593   0.551   8.464   9.398 -0.4648 -0.3390 -0.2098
51272SOL    HW162594   0.560   8.427   9.485 -0.2162  1.3231  0.5238
51272SOL    HW262595   0.604   8.409   9.341 -0.5254 -1.3614  0.7073
51273SOL     OW62596   9.881  12.181  10.269  0.1535  0.3401 -0.1580
51273SOL    HW162597   9.929  12.135  10.199  0.5134  0.4817 -0.0091
51273SOL    HW262598   9.899  12.129  10.347 -0.5909 -0.0521 -0.2462
51274SOL     OW62599   7.664   6.446   3.296 -0.2811  0.0965 -0.0742
51274SOL    HW162600   7.587   6.468   3.349  0.1382  2.2284 -0.2407
51274SOL    HW262601   7.737   6.450   3.358 -0.0247  0.5899 -0.4001
51275SOL     OW62602   5.155   4.583   6.785  0.1288  0.1915 -0.1378
51275SOL    HW162603   5.185   4.671   6.808 -0.1985  0.3753 -0.4038
51275SOL    HW262604   5.086   4.565   6.848 -0.2411  0.3848 -0.4844
51276SOL     OW62605   7.079   9.564   9.977  0.2877 -0.0024  0.5400
51276SOL    HW162606   7.151   9.520   9.931 -0.8800  0.6781 -2.1166
51276SOL    HW262607   7.118   9.592  10.060  3.1619  0.4633 -0.8414
51277SOL     OW62608   4.154  12.046   8.328  0.4324 -0.3160  0.5956
51277SOL    HW162609   4.126  11.988   8.257  0.0800 -1.1706  1.3926
51277SOL    HW262610   4.150  11.990   8.406  0.5014  0.6815  1.3293
51278SOL     OW62611   5.445   2.032   4.334 -0.4044 -0.3828 -0.0868
51278SOL    HW162612   5.361   2.044   4.292  0.0484  0.0347 -0.8916
51278SOL    HW262613   5.505   2.089   4.286  0.0810  0.3178  1.2838
51279SOL     OW62614   1.603   1.024   3.110  0.0764 -0.3412  0.6254
51279SOL    HW162615   1.520   0.981   3.132 -0.0953 -0.1205  0.4261
51279SOL    HW262616   1.669   0.956   3.119 -0.3311 -0.9772 -0.8330
51280SOL     OW62617   4.929   5.598   2.509  0.8594  0.3462  0.5953
51280SOL    HW162618   4.851   5.643   2.476  0.8027 -0.3238 -0.2308
51280SOL    HW262619   4.919   5.507   2.479  2.1229  0.3243  0.1818
51281SOL     OW62620  10.079   0.466   4.293 -0.1534 -0.2771  0.5774
51281SOL    HW162621  10.112   0.395   4.347  1.8690 -0.1923 -0.4388
51281SOL    HW262622  10.158   0.509   4.259 -1.3247  0.7638 -0.9860
51282SOL     OW62623   4.262  10.920   6.315  0.3582  0.0470  0.4430
51282SOL    HW162624   4.224  10.968   6.242  1.5999  0.9340  0.3521
51282SOL    HW262625   4.194  10.921   6.383  0.0261  1.1356  0.1095
51283SOL     OW62626   7.257  10.808  10.105 -0.4724  0.1843  0.2588
51283SOL    HW162627   7.281  10.774  10.191 -2.3349 -1.7700  0.1058
51283SOL    HW262628   7.256  10.903  10.115  2.1498  0.1397  1.5660
51284SOL     OW62629   8.754   4.108  10.412  0.1639  0.5304 -0.0030
51284SOL    HW162630   8.841   4.103  10.372  1.5985  2.2223  2.5789
51284SOL    HW262631   8.759   4.185  10.469 -2.6044 -0.1148  1.2651
51285SOL     OW62632   8.213   6.516  12.519  0.5820 -0.2134  0.0601
51285SOL    HW162633   8.228   6.431  12.560  3.3431  0.5991  0.9705
51285SOL    HW262634   8.118   6.526  12.518  0.2507 -2.5517  1.4869
51286SOL     OW62635   9.873   6.061   8.853 -0.1579 -0.9315  0.7635
51286SOL    HW162636   9.965   6.088   8.858 -0.7767  1.5121  0.3532
51286SOL    HW262637   9.833   6.098   8.931 -0.6336 -2.8339  1.4537
51287SOL     OW62638  11.709   6.983   6.534  0.1834  0.0968 -0.0990
51287SOL    HW162639  11.684   6.982   6.442 -0.1907 -0.7442  0.0016
51287SOL    HW262640  11.745   6.895   6.551  1.3954  0.6388  0.2528
51288SOL     OW62641   5.880   9.937   0.284  1.0987  0.9570  0.5068
51288SOL    HW162642   5.964   9.935   0.330  0.2086  0.6262  2.1974
51288SOL    HW262643   5.879   9.855   0.233  0.5459 -0.6623  2.9357
51289SOL     OW62644   1.673   7.166   9.359  0.0851  0.1413 -0.3709
51289SOL    HW162645   1.643   7.077   9.380 -0.9025  0.3533 -0.8130
51289SOL    HW262646   1.604   7.201   9.303  0.3054  1.3035  0.0681
51290SOL     OW62647   2.137   1.637   8.038 -0.0144  0.1458  0.6988
51290SOL    HW162648   2.127   1.677   8.124 -2.7199 -1.0211  1.0260
51290SOL    HW262649   2.096   1.700   7.978  0.0731  0.0575  0.5459
51291SOL     OW62650   9.719   3.502   8.897 -0.1541  0.3903  0.3696
51291SOL    HW162651   9.672   3.466   8.973 -1.5634  2.2885  0.4436
51291SOL    HW262652   9.796   3.544   8.935 -1.4109  2.2931  0.9474
51292SOL     OW62653   3.061  12.386   7.875  0.4946 -0.1936  0.2394
51292SOL    HW162654   3.060  12.411   7.782  1.8464  1.1895  0.5589
51292SOL    HW262655   3.149  12.354   7.891  0.8944  1.3821  1.4620
51293SOL     OW62656   8.497   5.560   5.127  0.7424 -0.5462  0.1024
51293SOL    HW162657   8.462   5.471   5.124  0.1827 -0.3040 -1.2648
51293SOL    HW262658   8.573   5.558   5.068 -0.7971  0.4540 -2.0956
51294SOL     OW62659   8.603   4.938   9.961  0.3503  0.6253 -0.1839
51294SOL    HW162660   8.625   5.007  10.023  1.3939 -0.3827  0.6219
51294SOL    HW262661   8.536   4.886  10.006 -1.6291  1.9669 -1.4261
51295SOL     OW62662   7.597   1.563   3.885  0.1083 -0.0944 -0.0860
51295SOL    HW162663   7.568   1.585   3.974 -0.6165 -1.0478 -0.0683
51295SOL    HW262664   7.540   1.491   3.858  1.3183 -0.8359 -0.7563
51296SOL     OW62665   0.818  10.186   9.877 -0.5862 -0.0213 -0.3681
51296SOL    HW162666   0.741  10.231   9.842 -0.7856 -1.2918 -1.6560
51296SOL    HW262667   0.786  10.100   9.903 -0.2893  0.6096  2.4189
51297SOL     OW62668   2.966  11.667  10.676 -0.1048  0.0275 -0.3422
51297SOL    HW162669   2.883  11.658  10.628 -0.7488  1.2199  0.5219
51297SOL    HW262670   2.988  11.577  10.700 -2.3907 -0.1633  1.4510
51298SOL     OW62671  11.616  10.619   6.557  0.1490 -0.3990  0.5170
51298SOL    HW162672  11.658  10.705   6.549  1.1635 -0.9015  0.3386
51298SOL    HW262673  11.621  10.599   6.651  0.1398 -0.3881  0.5201
51299SOL     OW62674   6.829   1.083   7.627  0.2102  0.1005  0.1231
51299SOL    HW162675   6.779   1.160   7.599  1.5064  0.5303 -1.1128
51299SOL    HW262676   6.767   1.010   7.616 -0.1789  0.6175 -1.3380
51300SOL     OW62677   3.488   6.933   0.849  0.0065  1.0788  0.3870
51300SOL    HW162678   3.498   6.855   0.795  1.5710  1.0677  0.6610
51300SOL    HW262679   3.575   6.973   0.852  0.3308  0.4779  3.7780
51301SOL     OW62680   0.819  11.609   5.015  0.2180 -0.2154  0.1844
51301SOL    HW162681   0.751  11.544   5.002 -1.1571  1.3301 -0.6134
51301SOL    HW262682   0.774  11.686   5.049  1.9879 -0.0674  2.5033
51302SOL     OW62683   9.114   3.422   0.676  0.1816  0.4745 -0.0397
51302SOL    HW162684   9.099   3.508   0.715 -0.6663  0.7974 -1.0428
51302SOL    HW262685   9.207   3.422   0.653  0.3800  0.7881  0.7385
51303SOL     OW62686   5.948   3.761   6.982 -0.3700  0.5360  0.6274
51303SOL    HW162687   5.927   3.718   6.900 -0.6357  1.7371  0.0434
51303SOL    HW262688   6.044   3.766   6.983 -0.3960  1.5716 -0.1965
51304SOL     OW62689   3.416   0.285   4.742 -0.6850  0.0038 -0.1993
51304SOL    HW162690   3.413   0.321   4.653  1.7419  1.5666  0.2693
51304SOL    HW262691   3.460   0.201   4.732 -2.0472 -0.6758 -0.6768
51305SOL     OW62692   3.298   0.302   8.898  0.2107  0.0030  0.3139
51305SOL    HW162693   3.284   0.256   8.815 -2.5232  0.7240  0.2728
51305SOL    HW262694   3.325   0.234   8.959 -1.0485 -1.1658 -0.3828
51306SOL     OW62695   6.824  11.315   9.423  0.1834 -0.4146 -0.3000
51306SOL    HW162696   6.811  11.375   9.350 -1.4320 -0.5132 -0.1315
51306SOL    HW262697   6.782  11.359   9.498 -0.0049 -1.2289  0.0854
51307SOL     OW62698   1.234   4.152   4.414  0.9117  0.0680  0.0953
51307SOL    HW162699   1.243   4.243   4.440  0.3233 -0.2881  1.6499
51307SOL    HW262700   1.321   4.115   4.425  0.7781  0.0427  1.1700
51308SOL     OW62701   7.933   2.617  10.120 -0.0176  0.1798  0.0398
51308SOL    HW162702   7.880   2.579  10.049  0.5580  0.5881 -0.6223
51308SOL    HW262703   7.988   2.545  10.149  2.2764  0.8142 -2.3463
51309SOL     OW62704  10.370   7.824   0.899 -0.0788 -0.2406  0.1391
51309SOL    HW162705  10.440   7.812   0.835  0.0168  2.2052 -0.2956
51309SOL    HW262706  10.412   7.803   0.983  1.4553  1.7941 -0.0322
51310SOL     OW62707   8.688   6.027   2.012  0.4482  0.4121  0.3347
51310SOL    HW162708   8.641   5.945   2.028  1.3582 -0.5127 -1.4304
51310SOL    HW262709   8.766   6.021   2.067  0.4375  0.1489  0.3257
51311SOL     OW62710   3.337  10.452   5.471 -0.2533  0.6145  0.0373
51311SOL    HW162711   3.265  10.396   5.439 -0.1291  1.3210 -1.5696
51311SOL    HW262712   3.330  10.448   5.566 -0.9507 -1.2265 -0.0562
51312SOL     OW62713   8.190   3.228   6.559 -0.1911 -0.1443 -0.4648
51312SOL    HW162714   8.168   3.211   6.467 -0.0208  1.4513 -0.8242
51312SOL    HW262715   8.225   3.317   6.559 -2.5484  0.8819  1.5157
51313SOL     OW62716   5.618  10.692   4.445 -0.2264 -0.8305  0.3383
51313SOL    HW162717   5.686  10.718   4.383 -0.7512 -1.4635 -0.5292
51313SOL    HW262718   5.664  10.681   4.528  0.5923 -0.5281 -0.0585
51314SOL     OW62719   9.886   1.773   6.228  0.0218  0.4091  0.8328
51314SOL    HW162720   9.965   1.747   6.180 -0.0329  0.3309  0.7852
51314SOL    HW262721   9.868   1.863   6.198 -0.4395  0.0982  0.1422
51315SOL     OW62722   5.527   8.839   8.262  0.2601 -0.5715  0.6650
51315SOL    HW162723   5.593   8.898   8.228 -1.1385  1.2496  0.9447
51315SOL    HW262724   5.523   8.858   8.356 -2.3851  1.2821  0.2826
51316SOL     OW62725   6.352   9.642  10.723  0.8411 -0.3715  0.5326
51316SOL    HW162726   6.315   9.710  10.666  0.4462 -1.1069 -0.1079
51316SOL    HW262727   6.446   9.643  10.703  0.7418 -0.4505  0.0498
51317SOL     OW62728   6.476   8.246   9.797  0.0609  0.1329 -0.9224
51317SOL    HW162729   6.435   8.179   9.852  3.7444 -3.2347 -1.8334
51317SOL    HW262730   6.450   8.221   9.708 -1.5212  2.3288 -1.1525
51318SOL     OW62731   7.026   8.339   3.893  0.3244  0.2731 -0.2995
51318SOL    HW162732   6.978   8.268   3.937  1.1997  0.5678  1.2205
51318SOL    HW262733   7.118   8.312   3.897  0.5979  1.1632 -0.3253
51319SOL     OW62734  10.704   9.771   3.011 -0.3044  0.0355 -0.3605
51319SOL    HW162735  10.683   9.705   3.077  0.2955 -0.7665 -0.9517
51319SOL    HW262736  10.720   9.851   3.062  1.7801 -0.9367  0.6663
51320SOL     OW62737  12.561   6.990   5.067 -0.2450 -0.3726 -0.1826
51320SOL    HW162738  12.482   6.940   5.046 -0.5659  0.1193 -0.1751
51320SOL    HW262739  12.569   7.053   4.996  2.0071 -2.5030 -1.9846
51321SOL     OW62740   4.280   3.554   1.422  0.6334  0.3646 -0.3926
51321SOL    HW162741   4.283   3.459   1.412  0.6334  0.5810 -3.2820
51321SOL    HW262742   4.358   3.586   1.377 -0.1338  1.8123 -0.7535
51322SOL     OW62743   7.034  10.257   2.360  0.2298  0.6942  0.1726
51322SOL    HW162744   7.013  10.342   2.399  0.5389  1.0921 -0.5166
51322SOL    HW262745   6.967  10.198   2.395 -2.5904  2.0226 -2.4300
51323SOL     OW62746   1.136   1.370   0.373  0.6028 -0.1466 -0.3712
51323SOL    HW162747   1.119   1.359   0.467 -0.6562  1.4679 -0.3684
51323SOL    HW262748   1.050   1.387   0.335  1.4629  3.1593 -1.1962
51324SOL     OW62749  11.749   1.473  11.885  0.6016 -0.3512  0.1319
51324SOL    HW162750  11.719   1.392  11.845  0.2230 -0.6216  0.9361
51324SOL    HW262751  11.817   1.446  11.947  1.5397  0.1122 -0.6712
51325SOL     OW62752  11.337   6.654   5.973 -0.0633 -0.1979  0.0666
51325SOL    HW162753  11.408   6.668   5.910  0.0455 -0.3655  0.1498
51325SOL    HW262754  11.277   6.727   5.958  1.7834  1.9405  2.2944
51326SOL     OW62755   1.865   2.100   9.311 -0.6573  1.2620 -0.6809
51326SOL    HW162756   1.931   2.091   9.380 -2.0667 -0.5225  0.5418
51326SOL    HW262757   1.871   2.191   9.283  1.1648  1.5695  0.5519
51327SOL     OW62758   8.505   0.267   7.770  0.4130  0.0537  0.3589
51327SOL    HW162759   8.476   0.194   7.717 -1.2624  1.2821 -0.4970
51327SOL    HW262760   8.502   0.234   7.860 -0.7929 -0.7955  0.0313
51328SOL     OW62761   1.965  11.830   6.461 -0.0780 -0.6115  0.1473
51328SOL    HW162762   1.901  11.766   6.493 -2.4231  1.2866 -0.4022
51328SOL    HW262763   1.980  11.806   6.370 -1.4287 -0.0886 -0.2394
51329SOL     OW62764   0.927   2.318   4.988 -0.4852  0.1197 -0.6407
51329SOL    HW162765   0.842   2.293   4.953 -1.2359  1.5153  0.1218
51329SOL    HW262766   0.919   2.304   5.083  0.0973  0.3437 -0.5531
51330SOL     OW62767   8.819   7.574  10.145  0.0431  0.1772  0.0322
51330SOL    HW162768   8.769   7.495  10.164 -1.2901  0.7007 -1.0804
51330SOL    HW262769   8.864   7.554  10.063 -0.1399  0.4889 -0.1469
51331SOL     OW62770   7.139   6.292   8.523  0.6395  0.6074 -0.3070
51331SOL    HW162771   7.175   6.259   8.605 -0.3204  1.7662  0.6111
51331SOL    HW262772   7.079   6.223   8.493  0.9605  0.2048 -0.0401
51332SOL     OW62773   4.641   1.715   3.241  0.5803 -0.8548 -0.0889
51332SOL    HW162774   4.688   1.734   3.322  1.0485  0.0958 -0.5671
51332SOL    HW262775   4.664   1.787   3.182 -0.2511 -1.1961 -0.8575
51333SOL     OW62776   6.289   6.118  10.073  0.2614 -0.5156  0.0497
51333SOL    HW162777   6.261   6.030  10.048  1.0662 -0.3923 -1.4428
51333SOL    HW262778   6.269   6.172   9.996 -2.7400  1.2374  1.8525
51334SOL     OW62779   0.246   1.744   0.852 -0.0670  0.2139  0.1653
51334SOL    HW162780   0.307   1.671   0.842 -0.9837 -0.5424 -0.0579
51334SOL    HW262781   0.220   1.741   0.944 -2.3282 -1.5984 -0.4654
51335SOL     OW62782   0.009   4.125   5.236 -0.4571 -0.0925  0.0432
51335SOL    HW162783  -0.074   4.077   5.226 -0.4397 -0.4964  1.7054
51335SOL    HW262784  -0.015   4.203   5.285  0.3005 -0.7520  1.5233
51336SOL     OW62785   7.359   4.931   8.268 -0.0563 -0.2136 -0.4657
51336SOL    HW162786   7.327   4.994   8.204  0.0227 -0.7911 -1.0810
51336SOL    HW262787   7.425   4.979   8.318 -2.9591  1.6157  2.0095
51337SOL     OW62788  11.625   2.875  11.074  0.3907 -0.2020 -0.5144
51337SOL    HW162789  11.657   2.834  10.993  1.9378 -0.1321  0.0245
51337SOL    HW262790  11.562   2.813  11.110 -0.1092 -0.3631 -1.6200
51338SOL     OW62791   3.526   5.077   6.616  0.8604  0.0752 -0.0345
51338SOL    HW162792   3.510   4.986   6.640 -0.1512  0.3503  0.3870
51338SOL    HW262793   3.595   5.106   6.675 -0.7688  0.3944  1.8152
51339SOL     OW62794  11.827   2.725   7.786  0.0862 -0.1063  0.1866
51339SOL    HW162795  11.918   2.702   7.805 -0.1335 -0.7108  0.5223
51339SOL    HW262796  11.824   2.732   7.690  0.4833 -0.0889  0.1727
51340SOL     OW62797   3.717  11.575   9.686  0.6483 -0.2188  0.6113
51340SOL    HW162798   3.722  11.667   9.663  2.2417 -0.3739  0.2295
51340SOL    HW262799   3.757  11.529   9.612  0.1259 -1.1958  0.9178
51341SOL     OW62800   3.827  10.572   4.183 -0.1006 -0.2622 -0.3473
51341SOL    HW162801   3.836  10.547   4.275  0.3431  0.1698 -0.2687
51341SOL    HW262802   3.892  10.641   4.170  0.5193 -1.0067 -1.2523
51342SOL     OW62803   3.530   7.431   7.832  0.7356 -0.0149 -0.0287
51342SOL    HW162804   3.466   7.496   7.858 -0.7059 -0.7145 -1.6576
51342SOL    HW262805   3.535   7.371   7.907  1.4364  1.4191  1.1249
51343SOL     OW62806   2.261   9.012   1.366 -0.0276 -0.6251 -0.5795
51343SOL    HW162807   2.192   8.951   1.390 -0.7022  0.3698  0.0917
51343SOL    HW262808   2.238   9.093   1.412  0.2169  0.4854 -2.3385
51344SOL     OW62809   1.387   2.543   0.985 -0.3937 -0.0334  0.0991
51344SOL    HW162810   1.389   2.482   0.912 -0.5718 -0.9114  0.8117
51344SOL    HW262811   1.375   2.488   1.062  2.0496  0.6178  1.0574
51345SOL     OW62812   6.804   7.240   2.670  0.0442  0.4964  0.0701
51345SOL    HW162813   6.825   7.168   2.730  1.3039  2.0890  1.6536
51345SOL    HW262814   6.723   7.277   2.706 -1.3769 -0.8977 -1.5410
51346SOL     OW62815   8.718  10.387   2.902 -0.1710 -0.7330 -0.2601
51346SOL    HW162816   8.685  10.323   2.839  1.3758 -1.6856 -0.1405
51346SOL    HW262817   8.779  10.441   2.852 -0.1583 -0.4596  0.0471
51347SOL     OW62818   5.049   6.159   7.822  0.7208 -0.4238 -0.4958
51347SOL    HW162819   5.000   6.172   7.741  0.5443  0.4331 -0.2633
51347SOL    HW262820   4.983   6.142   7.889  0.9388 -2.3834 -0.7456
51348SOL     OW62821   1.789   2.883   4.337  0.1298 -0.1704 -0.2712
51348SOL    HW162822   1.702   2.923   4.336  0.0378 -0.3799 -0.4584
51348SOL    HW262823   1.841   2.943   4.391 -0.6536 -1.1512  1.6798
51349SOL     OW62824   9.385  10.538   2.234 -0.1922  0.1956 -0.0226
51349SOL    HW162825   9.419  10.467   2.180  0.8657 -0.6277  1.6194
51349SOL    HW262826   9.310  10.571   2.186  0.4776 -0.7150 -1.7877
51350SOL     OW62827  12.298   0.983   4.433 -0.1735 -0.1763 -0.2744
51350SOL    HW162828  12.364   0.978   4.365  0.1864  1.7978 -0.1269
51350SOL    HW262829  12.217   1.007   4.387  0.2119  1.8256  0.0004
51351SOL     OW62830   4.859   5.926  11.720 -0.4415 -0.2319 -0.1059
51351SOL    HW162831   4.848   5.899  11.811 -1.9256 -1.1487 -0.5216
51351SOL    HW262832   4.800   6.001  11.710 -2.0618 -1.5192 -0.8347
51352SOL     OW62833   1.849   4.147   7.889  0.3683  0.1008  0.2922
51352SOL    HW162834   1.919   4.160   7.953  0.4078  1.1997  0.0390
51352SOL    HW262835   1.804   4.231   7.885 -0.7905 -0.5042  0.2275
51353SOL     OW62836   4.491   2.190  11.791 -0.0778  0.1801  0.5433
51353SOL    HW162837   4.585   2.171  11.788 -0.0154  0.5056  0.3806
51353SOL    HW262838   4.450   2.122  11.738  0.2734  1.3215 -1.2712
51354SOL     OW62839  12.092  12.254   9.126 -0.0100  0.1719  0.0759
51354SOL    HW162840  11.999  12.241   9.105 -0.3823  1.9360  0.4286
51354SOL    HW262841  12.128  12.297   9.049  0.0531  1.1811  0.6535
51355SOL     OW62842   0.449   4.417   8.925 -0.4419  0.1027  0.4388
51355SOL    HW162843   0.414   4.376   8.847 -0.3568 -1.4350  1.1709
51355SOL    HW262844   0.387   4.394   8.994 -1.4432  2.8325  0.5826
51356SOL     OW62845   1.317   2.019   7.560 -0.3087 -0.3043 -0.4754
51356SOL    HW162846   1.261   1.994   7.486 -0.1818  1.6092 -1.2872
51356SOL    HW262847   1.268   2.088   7.604  0.5270 -0.0099  0.0092
51357SOL     OW62848   0.125   4.871   8.505 -0.5022  0.0977 -0.7490
51357SOL    HW162849   0.119   4.788   8.552 -0.9094 -0.3977 -1.6457
51357SOL    HW262850   0.175   4.928   8.563  0.9738 -1.1883 -0.6957
51358SOL     OW62851   5.432   9.135  11.715 -0.1531  0.5932  0.2666
51358SOL    HW162852   5.501   9.143  11.781  1.9263  0.8684 -1.8155
51358SOL    HW262853   5.393   9.049  11.731  2.9785 -1.1184 -0.4776
51359SOL     OW62854   4.065   1.885  12.227  0.8278 -0.1264  0.6414
51359SOL    HW162855   4.056   1.806  12.279  0.2168  0.1871  1.0194
51359SOL    HW262856   4.098   1.855  12.142  1.7346 -0.6495  1.1679
51360SOL     OW62857   5.882   4.851  10.692  0.2894  0.6995  0.1563
51360SOL    HW162858   5.971   4.847  10.726  0.6359 -0.0440 -0.7891
51360SOL    HW262859   5.832   4.791  10.748  0.9224 -0.7621 -0.7887
51361SOL     OW62860  12.517   8.319   1.348 -0.0855 -0.0717 -0.4194
51361SOL    HW162861  12.602   8.279   1.362 -1.0672 -2.1234  0.1401
51361SOL    HW262862  12.522   8.404   1.391  1.3629 -0.5536  0.4274
51362SOL     OW62863   3.835   3.995   6.511 -0.4083  0.1314 -0.0027
51362SOL    HW162864   3.891   4.017   6.585  0.8318 -0.6243 -0.6931
51362SOL    HW262865   3.870   3.912   6.478 -0.6821  0.6515 -1.6820
51363SOL     OW62866   0.134   4.502  11.210 -0.0026 -0.1714 -0.6310
51363SOL    HW162867   0.157   4.417  11.248 -1.6392 -1.0686 -1.5698
51363SOL    HW262868   0.128   4.561  11.286  0.0591 -1.1502  0.1546
51364SOL     OW62869  10.633   3.567   7.226  0.2508  0.1512  0.9185
51364SOL    HW162870  10.561   3.567   7.163 -0.6700  0.7914  1.9357
51364SOL    HW262871  10.596   3.607   7.305  0.7168 -2.4656  2.6180
51365SOL     OW62872   4.255   2.524   8.602  0.8733  0.4454  0.1459
51365SOL    HW162873   4.240   2.603   8.549 -0.9699 -0.9169 -1.4992
51365SOL    HW262874   4.286   2.558   8.686 -0.3985  2.9775 -0.3022
51366SOL     OW62875   6.923   7.351  12.137 -0.2334 -0.4425  0.1229
51366SOL    HW162876   6.901   7.392  12.220 -0.5319  1.6042 -0.9034
51366SOL    HW262877   6.839   7.335  12.095 -0.0584  1.1665 -0.9434
51367SOL     OW62878   2.202   5.048   3.443  0.6201 -0.7755  0.1849
51367SOL    HW162879   2.277   5.069   3.388  1.8780  1.4706  2.5690
51367SOL    HW262880   2.234   4.981   3.504  1.4337  1.4806  2.4113
51368SOL     OW62881  10.407   4.041   6.767 -0.2774 -0.5099  0.0143
51368SOL    HW162882  10.340   4.061   6.832 -2.0664 -0.9496 -1.6047
51368SOL    HW262883  10.399   3.947   6.751  0.0572 -0.3926 -0.9134
51369SOL     OW62884   3.202   1.120   2.969 -0.7987 -0.4262 -0.0692
51369SOL    HW162885   3.125   1.112   2.913  0.4215  0.9033 -2.0699
51369SOL    HW262886   3.272   1.080   2.919  0.1568 -0.0508  0.9262
51370SOL     OW62887  11.255   1.573   5.368  0.7970  0.1753  0.3842
51370SOL    HW162888  11.207   1.510   5.314 -0.3013  0.7348  0.6766
51370SOL    HW262889  11.298   1.630   5.305  2.0903 -1.0511  0.1122
51371SOL     OW62890   3.911   7.131   3.033  0.2648  0.2032 -0.0949
51371SOL    HW162891   3.884   7.046   2.998 -1.1077  0.8070 -0.5412
51371SOL    HW262892   4.001   7.141   3.002  0.2565 -0.8388 -0.5075
51372SOL     OW62893   7.088   6.394  11.348 -0.8393 -0.2035  0.1461
51372SOL    HW162894   7.034   6.358  11.278  1.1443 -2.5236 -0.3078
51372SOL    HW262895   7.050   6.358  11.428 -0.0518 -1.8360 -0.1708
51373SOL     OW62896   7.368   8.100   6.915 -0.5218  0.2503  0.2066
51373SOL    HW162897   7.302   8.039   6.881  0.0198 -0.2741  0.0847
51373SOL    HW262898   7.426   8.116   6.841 -0.3969  0.5610  0.3691
51374SOL     OW62899   7.906   4.137   2.646 -0.5610  0.3557  0.7162
51374SOL    HW162900   7.878   4.102   2.731 -2.0289 -1.7950 -0.5337
51374SOL    HW262901   7.877   4.071   2.583  3.4793  0.1367 -1.2423
51375SOL     OW62902   1.093  10.375   8.780 -0.1059 -0.1888  0.2750
51375SOL    HW162903   1.143  10.431   8.721  2.0691 -1.8589  0.4092
51375SOL    HW262904   1.055  10.308   8.723 -0.0446 -0.3936  0.4721
51376SOL     OW62905   1.115   1.668  11.653  0.2509 -0.2524  0.3087
51376SOL    HW162906   1.103   1.734  11.721  0.5959  0.4586 -0.3079
51376SOL    HW262907   1.200   1.689  11.613  0.0477 -0.6452 -0.3587
51377SOL     OW62908   1.373   0.239   5.170 -0.3921  0.4380 -0.4187
51377SOL    HW162909   1.394   0.211   5.259  2.1121 -0.2033 -1.1363
51377SOL    HW262910   1.307   0.308   5.181 -0.7755 -0.2122  1.8455
51378SOL     OW62911   6.052   4.659   4.973  0.0748  0.4001 -0.4010
51378SOL    HW162912   6.090   4.718   5.038 -0.9547 -0.0313  0.6250
51378SOL    HW262913   6.069   4.571   5.007  0.9993  0.0903 -1.5775
51379SOL     OW62914   2.000   7.937   9.505  0.0138  0.4895 -0.0665
51379SOL    HW162915   1.993   7.868   9.439 -0.9968  1.5837 -1.1802
51379SOL    HW262916   1.953   8.011   9.466 -0.1430  1.3569  1.6687
51380SOL     OW62917   1.947   3.038   4.116 -0.0854 -0.3157  0.4655
51380SOL    HW162918   1.871   3.091   4.092  0.7839  1.2382  0.9932
51380SOL    HW262919   1.911   2.967   4.169 -0.9428  1.9541  3.1550
51381SOL     OW62920   3.141   8.181   7.604 -0.8801 -0.6419  0.1023
51381SOL    HW162921   3.149   8.098   7.557  0.6459 -0.9528  0.8226
51381SOL    HW262922   3.098   8.158   7.686  1.4687 -1.1904  1.2580
51382SOL     OW62923   9.716   2.003   5.201  0.0593  0.3868  0.2519
51382SOL    HW162924   9.773   2.078   5.185  2.6123 -1.2268  1.1454
51382SOL    HW262925   9.743   1.971   5.287 -1.4429 -1.1476  0.2011
51383SOL     OW62926   0.911   0.179   9.754  0.1638  0.3098 -0.1240
51383SOL    HW162927   0.941   0.106   9.700  0.2499 -0.5620  1.0692
51383SOL    HW262928   0.819   0.190   9.730 -0.7574 -2.2478  1.8314
51384SOL     OW62929   4.581   7.302  12.199  0.4789 -0.7483 -0.0856
51384SOL    HW162930   4.520   7.229  12.194  1.7450 -1.8140 -0.3419
51384SOL    HW262931   4.661   7.265  12.236  1.7888  0.0515 -1.9456
51385SOL     OW62932   0.313   7.527  10.608  0.5346  0.2889 -0.5602
51385SOL    HW162933   0.279   7.603  10.560 -0.9895 -0.9674 -1.5628
51385SOL    HW262934   0.240   7.499  10.663  1.5479  0.3687  0.8689
51386SOL     OW62935   3.233  10.642   6.611  0.1074  0.1018  0.2123
51386SOL    HW162936   3.161  10.580   6.598  0.1974  0.3039 -1.5021
51386SOL    HW262937   3.271  10.617   6.695 -0.0300 -2.0211 -0.2846
51387SOL     OW62938   5.242  10.489   5.893  0.0538  0.2922 -0.0279
51387SOL    HW162939   5.161  10.475   5.943  0.0012  2.5408  0.6196
51387SOL    HW262940   5.213  10.487   5.801 -0.3811 -0.7474  0.1099
51388SOL     OW62941   7.363   4.937   9.465  0.5541  0.0077 -0.3637
51388SOL    HW162942   7.457   4.945   9.443  1.0533 -0.4373  1.4981
51388SOL    HW262943   7.362   4.916   9.558 -1.4434  0.7990 -0.1679
51389SOL     OW62944   0.862   0.022  11.379 -0.0573 -0.1823 -0.2689
51389SOL    HW162945   0.908  -0.000  11.460  0.6433 -0.8237 -0.8234
51389SOL    HW262946   0.771   0.000  11.397  0.0294  0.0293  0.4696
51390SOL     OW62947  11.537  10.524   8.258 -0.3917 -0.2694  0.2412
51390SOL    HW162948  11.452  10.498   8.223 -0.9255  1.1289  0.4578
51390SOL    HW262949  11.600  10.492   8.194 -1.3039  1.6892 -1.7525
51391SOL     OW62950  11.101   1.474   9.173 -0.2300  0.0467 -0.2648
51391SOL    HW162951  11.157   1.463   9.249 -0.6196  0.1536  0.0411
51391SOL    HW262952  11.057   1.558   9.186  0.9135  0.8548 -1.4106
51392SOL     OW62953   3.224   9.042   0.894  0.7556 -0.8007 -0.1847
51392SOL    HW162954   3.222   9.138   0.891  0.6472 -0.8281 -2.1058
51392SOL    HW262955   3.179   9.020   0.976 -1.1894  0.7573 -0.7586
51393SOL     OW62956   5.120  11.612   0.396  0.6022 -0.4972 -0.3612
51393SOL    HW162957   5.126  11.595   0.491 -0.8013 -1.0157 -0.3451
51393SOL    HW262958   5.143  11.528   0.356  0.1904 -0.5719 -0.4476
51394SOL     OW62959   0.094   7.372  10.443 -0.0491 -0.3334  0.8524
51394SOL    HW162960   0.093   7.416  10.528  1.0958  1.3844  0.0306
51394SOL    HW262961   0.102   7.443  10.379  0.2437 -1.6447 -0.6374
51395SOL     OW62962   5.441   4.780   3.344  0.2036 -0.3030 -0.6324
51395SOL    HW162963   5.513   4.716   3.345  1.1032  0.6636 -1.2708
51395SOL    HW262964   5.436   4.811   3.435  1.0456  0.0910 -0.7090
51396SOL     OW62965   2.615   0.109   4.424 -0.0555 -0.2973 -0.0490
51396SOL    HW162966   2.597   0.057   4.347 -0.4229  0.8666 -0.7724
51396SOL    HW262967   2.639   0.045   4.491 -1.3063 -1.4535 -0.6566
51397SOL     OW62968  10.804   3.652   6.571 -0.2937  0.0737 -0.2365
51397SOL    HW162969  10.732   3.684   6.627 -2.7871  1.2184 -3.7532
51397SOL    HW262970  10.780   3.562   6.549 -0.6238  0.4040 -1.2905
51398SOL     OW62971   2.509  11.932   4.012  0.3075 -0.2073  0.6331
51398SOL    HW162972   2.554  11.852   3.984 -0.3083 -0.2274 -0.3517
51398SOL    HW262973   2.527  11.938   4.106 -0.0802 -1.8075  0.8475
51399SOL     OW62974   5.427   7.084   5.697 -0.2571  0.0200  0.0376
51399SOL    HW162975   5.521   7.067   5.701 -0.4700 -1.4462 -0.7527
51399SOL    HW262976   5.420   7.180   5.698  1.1955  0.1380  0.8079
51400SOL     OW62977   4.413   1.352   9.076 -0.1074 -0.4310 -0.4447
51400SOL    HW162978   4.489   1.371   9.131  0.6766  0.5182 -1.8042
51400SOL    HW262979   4.338   1.376   9.130  0.5408 -1.0702  0.8037
51401SOL     OW62980   5.622   7.487  12.559 -0.3698  0.1179  0.1060
51401SOL    HW162981   5.666   7.538  12.490  0.9279  1.5277  1.8534
51401SOL    HW262982   5.547   7.541  12.583 -0.4056 -0.0134  0.2840
51402SOL     OW62983   8.981   0.714   4.510  0.4712  0.2422 -0.0991
51402SOL    HW162984   8.954   0.728   4.601  0.5012  0.2391 -0.0896
51402SOL    HW262985   8.900   0.693   4.464  0.7707 -2.5895  0.4492
51403SOL     OW62986   8.311   1.597   9.551  0.5757  0.0609  0.6706
51403SOL    HW162987   8.301   1.502   9.560 -1.3951  0.1276 -0.1724
51403SOL    HW262988   8.278   1.616   9.463 -0.0430  1.6402  1.2115
51404SOL     OW62989   1.912   8.157  11.688 -0.5456  0.1958  0.1736
51404SOL    HW162990   1.911   8.063  11.674 -0.5194  0.1812  0.2729
51404SOL    HW262991   1.830   8.188  11.649 -1.8645 -0.1949  2.4681
51405SOL     OW62992   8.425   1.454   4.141  0.4445  0.3343 -0.7069
51405SOL    HW162993   8.338   1.486   4.163 -0.4490 -0.6336 -2.5859
51405SOL    HW262994   8.484   1.505   4.197 -1.3289  0.6207  1.0126
51406SOL     OW62995   6.015  10.138  11.402  0.2847  0.2642  0.1213
51406SOL    HW162996   5.932  10.165  11.364 -1.3165 -1.6628  2.0188
51406SOL    HW262997   6.037  10.056  11.357  0.6910  0.2915  0.2589
51407SOL     OW62998   0.443   2.493   3.591 -0.8164  0.0874 -0.0105
51407SOL    HW162999   0.441   2.526   3.681 -0.1008  2.3499 -0.7490
51407SOL    HW263000   0.523   2.441   3.587 -1.2949 -0.7540  0.8596
51408SOL     OW63001   2.143   1.235   7.587 -0.2211 -0.2273 -0.1603
51408SOL    HW163002   2.124   1.147   7.554 -3.5463  0.7467 -1.2684
51408SOL    HW263003   2.218   1.264   7.537 -1.5991 -0.9766 -2.8486
51409SOL     OW63004   9.605   0.579   9.922  0.8363  0.1986  0.2275
51409SOL    HW163005   9.538   0.518   9.892  0.5886  0.1934  0.7917
51409SOL    HW263006   9.675   0.572   9.857 -0.0248  0.7731 -0.7902
51410SOL     OW63007   5.605  11.641   5.896  0.1912  0.1386  0.4227
51410SOL    HW163008   5.557  11.721   5.920 -0.7294 -0.2714  0.0125
51410SOL    HW263009   5.632  11.657   5.805 -0.0097 -0.0197  0.3345
51411SOL     OW63010  12.604  10.621  12.476  0.2257 -0.1472  0.2274
51411SOL    HW163011  12.626  10.586  12.562 -0.1475 -3.4930 -0.8988
51411SOL    HW263012  12.686  10.613  12.426  0.6388  2.4089  0.3477
51412SOL     OW63013   2.720   7.128   6.636 -0.0822 -0.5730 -0.4805
51412SOL    HW163014   2.733   7.212   6.679  0.2290 -1.1076  0.5170
51412SOL    HW263015   2.792   7.073   6.669 -0.5803 -1.3804 -0.7063
51413SOL     OW63016   5.299   5.608   8.658 -0.3439 -0.2580 -0.1034
51413SOL    HW163017   5.330   5.537   8.714  1.4357  1.2871  0.9962
51413SOL    HW263018   5.219   5.638   8.700  1.7184  1.8661  2.7147
51414SOL     OW63019   2.796   0.837   2.785  0.4411  0.0594  0.1591
51414SOL    HW163020   2.839   0.789   2.714 -0.1363  0.0122 -0.1658
51414SOL    HW263021   2.742   0.771   2.829 -1.0095  0.5473 -0.8011
51415SOL     OW63022   7.279   1.895   0.824  0.5028 -0.2398 -0.0196
51415SOL    HW163023   7.214   1.864   0.888  1.1065  0.2529  0.8671
51415SOL    HW263024   7.244   1.978   0.793 -0.5512 -1.1956 -1.5323
51416SOL     OW63025  11.074   5.953  12.005 -0.1401 -0.1658 -0.0559
51416SOL    HW163026  11.028   5.911  11.932  0.5923  0.2271 -0.7592
51416SOL    HW263027  11.057   6.047  11.993  1.7289  0.1059 -0.9958
51417SOL     OW63028   5.513  11.279   2.407 -0.0491 -0.2335  0.2215
51417SOL    HW163029   5.593  11.298   2.455 -0.5909  0.1570  1.0061
51417SOL    HW263030   5.446  11.270   2.475 -1.0334  1.2451 -0.4987
51418SOL     OW63031   9.188  10.565   3.217  0.3192  0.3505 -0.0284
51418SOL    HW163032   9.259  10.530   3.164  0.8798  0.6699  0.5057
51418SOL    HW263033   9.231  10.606   3.292 -0.5357 -2.1149  1.9296
51419SOL     OW63034   4.191   8.882  11.789  0.4657  0.2662  0.4768
51419SOL    HW163035   4.138   8.957  11.812 -0.8124 -0.0064 -1.3661
51419SOL    HW263036   4.160   8.856  11.702  1.4039 -1.9032  0.7227
51420SOL     OW63037   3.598   5.138   1.932 -0.6623  1.1226  0.3612
51420SOL    HW163038   3.680   5.095   1.908 -1.5421  0.8229 -2.4730
51420SOL    HW263039   3.625   5.218   1.976  1.1892  1.2396 -0.8746
51421SOL     OW63040   3.058   2.609  12.496  0.0833  0.9624  0.3768
51421SOL    HW163041   3.014   2.548  12.555  1.9028 -1.8497 -0.9766
51421SOL    HW263042   3.119   2.657  12.552  2.1356 -1.9838  0.9156
51422SOL     OW63043  10.001   6.433   7.885  0.4954  0.4986  0.1740
51422SOL    HW163044   9.980   6.501   7.950  1.0107  0.1361  0.7212
51422SOL    HW263045   9.996   6.479   7.801  0.3281  1.0942  0.5022
51423SOL     OW63046  11.081   6.237   6.610  0.4394 -0.2190 -0.3810
51423SOL    HW163047  11.174   6.231   6.634  0.2786 -0.5013  0.1900
51423SOL    HW263048  11.038   6.172   6.666 -0.1194 -0.0160 -0.5723
51424SOL     OW63049   0.762  11.650   3.422  0.4115  0.4906  0.3826
51424SOL    HW163050   0.687  11.622   3.370  0.3977  0.8441  0.2047
51424SOL    HW263051   0.739  11.628   3.512  0.0924  0.5982  0.3290
51425SOL     OW63052   7.581   3.395   2.267 -0.1080 -0.2756 -0.2424
51425SOL    HW163053   7.552   3.304   2.265 -0.4919 -0.1496 -1.2472
51425SOL    HW263054   7.537   3.433   2.343 -0.5872 -0.7351 -0.2843
51426SOL     OW63055   0.534   1.609  12.059  0.2191  0.0595  0.0716
51426SOL    HW163056   0.472   1.679  12.039 -0.1002 -0.6032 -1.3187
51426SOL    HW263057   0.535   1.606  12.155 -2.3571 -0.2971  0.1648
51427SOL     OW63058  11.624  10.411   7.101  0.1303  0.0434 -0.0575
51427SOL    HW163059  11.571  10.488   7.118  1.5039  0.7112  1.5088
51427SOL    HW263060  11.680  10.403   7.178  2.3009 -0.5918 -1.5874
51428SOL     OW63061  10.293   7.955   9.858  0.1059  0.2337 -0.0907
51428SOL    HW163062  10.345   7.918   9.787 -1.7745 -1.7080 -0.5692
51428SOL    HW263063  10.329   7.917   9.938  0.9203  0.8123 -0.1691
51429SOL     OW63064   5.346  11.867  10.736 -0.1720  0.8102  0.1142
51429SOL    HW163065   5.346  11.833  10.826  0.9361  2.9905  0.9968
51429SOL    HW263066   5.438  11.866  10.710 -0.4122  0.8501 -0.7684
51430SOL     OW63067   8.012   1.006   1.148  0.1745  0.3777 -0.4317
51430SOL    HW163068   7.984   1.089   1.108 -0.3920  0.7465  0.6695
51430SOL    HW263069   7.960   1.000   1.228  0.5542 -0.8232 -0.2574
51431SOL     OW63070  10.136   7.891  12.053 -0.2296  0.7161 -0.0527
51431SOL    HW163071  10.127   7.801  12.023  0.5848  0.6919 -0.2373
51431SOL    HW263072  10.082   7.942  11.994  1.2203  0.6526 -1.5057
51432SOL     OW63073   9.256   7.378   1.492 -0.6616 -0.0184  0.8619
51432SOL    HW163074   9.219   7.299   1.531 -2.0035  0.4199  0.5168
51432SOL    HW263075   9.347   7.378   1.522 -0.8409 -1.2780  1.4993
51433SOL     OW63076   6.497  11.810   2.473  0.3649  0.4410 -0.3505
51433SOL    HW163077   6.454  11.890   2.504 -2.0253 -0.3760 -1.2943
51433SOL    HW263078   6.495  11.818   2.377  0.1569 -0.6850 -0.4543
51434SOL     OW63079   7.928   2.497   6.266 -0.2182 -0.1931 -0.0861
51434SOL    HW163080   7.950   2.551   6.341 -0.1776  0.6263 -0.6813
51434SOL    HW263081   7.863   2.548   6.218 -2.2510 -1.8337  0.7649
51435SOL     OW63082  12.076  11.800   5.850  0.5995 -0.1678 -0.2983
51435SOL    HW163083  12.144  11.816   5.916 -0.0496 -0.1326  0.3740
51435SOL    HW263084  12.065  11.705   5.849  0.0291 -0.1151  0.2526
51436SOL     OW63085   6.027   4.407   5.087  0.4641 -0.3925 -0.5704
51436SOL    HW163086   6.054   4.358   5.165  1.0986 -2.3006 -1.9156
51436SOL    HW263087   5.934   4.390   5.078  0.4589 -0.4438 -0.4151
51437SOL     OW63088   5.856   4.974   8.794 -0.2960 -0.2372  0.3752
51437SOL    HW163089   5.847   4.951   8.702 -0.5790  1.4256 -0.0492
51437SOL    HW263090   5.936   4.930   8.822  1.0944  1.0450 -1.3297
51438SOL     OW63091   6.510   9.120   5.904  0.0643  0.0265  0.6272
51438SOL    HW163092   6.466   9.157   5.828 -0.1956 -2.0679 -0.3122
51438SOL    HW263093   6.601   9.149   5.896 -0.0661  0.2071 -0.2488
51439SOL     OW63094   8.414   4.307   9.250  0.3884  0.1592 -0.0676
51439SOL    HW163095   8.421   4.243   9.179  0.7437 -1.2409  1.1544
51439SOL    HW263096   8.500   4.348   9.254  0.3594  0.2523 -0.4696
51440SOL     OW63097   1.599   9.637  12.449  0.0455  0.1426 -0.1738
51440SOL    HW163098   1.649   9.672  12.523  0.5765 -0.0508 -0.4368
51440SOL    HW263099   1.512   9.618  12.486 -0.2477  1.6746 -0.0190
51441SOL     OW63100   7.344  10.594   0.465 -0.4599 -0.2302 -0.7936
51441SOL    HW163101   7.305  10.656   0.527 -2.8763 -0.9993 -1.4398
51441SOL    HW263102   7.357  10.514   0.516 -1.2163 -0.4471 -0.9180
51442SOL     OW63103   5.734   1.235   1.697  0.1987 -0.3640 -0.0613
51442SOL    HW163104   5.779   1.309   1.656  0.9051 -0.6904  0.1241
51442SOL    HW263105   5.727   1.260   1.790  1.4356 -1.0020  0.2216
51443SOL     OW63106   9.572   8.432   1.273  0.1026 -0.1533 -0.4787
51443SOL    HW163107   9.524   8.433   1.190  0.2625 -0.1617 -0.5707
51443SOL    HW263108   9.512   8.388   1.334 -0.3982  0.6856 -0.3510
51444SOL     OW63109   1.067   7.157  11.997  0.2183 -0.3854  0.4718
51444SOL    HW163110   1.083   7.225  12.063 -1.3431 -1.4994  2.0976
51444SOL    HW263111   1.047   7.079  12.049 -1.2790 -1.2579 -1.3282
51445SOL     OW63112  10.593   8.022   2.717 -0.0016 -0.2416 -0.6267
51445SOL    HW163113  10.571   7.933   2.690  1.0386 -0.5207 -0.6187
51445SOL    HW263114  10.678   8.013   2.761  0.2066  0.7808 -0.7886
51446SOL     OW63115   5.908  10.401   6.460  0.2561  0.4604 -0.6902
51446SOL    HW163116   5.868  10.475   6.415 -0.3029  1.0745  0.7677
51446SOL    HW263117   5.872  10.403   6.548 -0.7579 -2.3120 -0.9265
51447SOL     OW63118   3.920   1.011   7.416 -0.1295 -0.4211  0.1765
51447SOL    HW163119   3.847   0.954   7.393  1.2960 -2.1681 -0.2587
51447SOL    HW263120   3.994   0.951   7.428  1.3142  1.3094  0.2719
51448SOL     OW63121   2.000   9.617   6.672  0.0038  0.0874 -0.0123
51448SOL    HW163122   1.966   9.578   6.753  0.3821  1.4680  0.8548
51448SOL    HW263123   1.999   9.711   6.689  0.0669  0.4072 -1.6458
51449SOL     OW63124   3.937   6.925   1.333 -1.1066  0.2547 -0.3521
51449SOL    HW163125   3.925   6.994   1.398 -1.7512 -0.9735  0.8916
51449SOL    HW263126   3.854   6.919   1.287 -1.3667 -0.2848  0.1699
51450SOL     OW63127   4.620   2.361   0.830 -0.1866 -0.3315 -0.7997
51450SOL    HW163128   4.709   2.325   0.829  0.7157  1.7879 -1.1272
51450SOL    HW263129   4.606   2.385   0.922 -0.7142 -1.2552 -0.6208
51451SOL     OW63130   0.970   8.848  11.929 -0.5659 -0.0360 -0.0431
51451SOL    HW163131   1.059   8.829  11.898 -0.9671 -1.1768 -0.5549
51451SOL    HW263132   0.983   8.909  12.001  0.7648 -1.3364  0.8938
51452SOL     OW63133   3.155   7.997  10.044  0.0139  0.7502  0.0579
51452SOL    HW163134   3.186   7.927   9.987  0.8433  0.4498  0.8531
51452SOL    HW263135   3.062   8.005  10.024  0.0148 -0.2512 -0.3920
51453SOL     OW63136   5.319   9.252   1.030 -0.4726 -0.2276  0.0377
51453SOL    HW163137   5.306   9.164   1.064  1.5782 -0.8777 -0.7796
51453SOL    HW263138   5.329   9.241   0.936 -0.3714  0.9127 -0.1024
51454SOL     OW63139   9.613  11.894   4.830  0.0042 -0.0430 -0.0885
51454SOL    HW163140   9.628  11.892   4.925 -0.5004  1.9986  0.0946
51454SOL    HW263141   9.671  11.827   4.794  1.5142  0.3474  1.5083
51455SOL     OW63142   8.404   7.031  10.651 -0.5440 -0.0491  0.4535
51455SOL    HW163143   8.495   7.061  10.656 -0.7236  0.4251  0.9499
51455SOL    HW263144   8.388   6.990  10.737 -0.5039 -1.0002  0.0244
51456SOL     OW63145  10.413   6.155   3.770 -0.7240 -0.2699 -0.9802
51456SOL    HW163146  10.411   6.066   3.734  4.2375 -0.4227 -1.5088
51456SOL    HW263147  10.404   6.212   3.694 -0.8283 -0.3914 -1.0590
51457SOL     OW63148   8.075  12.296   2.408 -0.2701 -0.1656  0.5117
51457SOL    HW163149   8.147  12.338   2.361  0.8200 -0.3750  1.9216
51457SOL    HW263150   8.069  12.345   2.490 -0.3392 -1.4714  1.3083
51458SOL     OW63151   0.880   8.293  10.226  0.0674 -0.3926  0.1619
51458SOL    HW163152   0.851   8.213  10.271 -0.9408 -0.1450 -0.0172
51458SOL    HW263153   0.960   8.319  10.272 -1.3912  0.3708  2.4799
51459SOL     OW63154   1.368   0.229   0.767  0.9515  0.2347  0.1069
51459SOL    HW163155   1.291   0.174   0.783  1.1202 -0.0152  0.0700
51459SOL    HW263156   1.413   0.231   0.852  0.8621  0.4429  0.1478
51460SOL     OW63157   9.909   0.659   3.987 -0.4979 -0.2041  0.6200
51460SOL    HW163158   9.929   0.571   4.020 -0.3271 -1.0901 -1.6665
51460SOL    HW263159   9.830   0.684   4.034 -0.8206 -1.7851  0.9997
51461SOL     OW63160   4.339  12.281   9.862  0.1184 -0.3387  0.1713
51461SOL    HW163161   4.364  12.299   9.771  1.7205  0.6949  0.7776
51461SOL    HW263162   4.417  12.243   9.901 -0.5331 -0.6962  1.1576
51462SOL     OW63163   5.435   2.041   3.920 -0.2549  0.0801  0.3992
51462SOL    HW163164   5.347   2.037   3.883 -1.0135 -2.3739  2.2227
51462SOL    HW263165   5.486   1.980   3.867  0.8849  2.5963 -1.6298
51463SOL     OW63166   9.374   2.040   1.357  0.3722  0.0035  0.3549
51463SOL    HW163167   9.290   2.018   1.316  0.5396  0.8245 -0.4673
51463SOL    HW263168   9.423   1.958   1.355  0.5287  0.1033 -1.5006
51464SOL     OW63169   0.310  11.912  11.774  0.3040  0.1281 -0.3579
51464SOL    HW163170   0.230  11.917  11.826 -0.6862 -0.1369 -1.8054
51464SOL    HW263171   0.297  11.836  11.716  1.8079 -0.2173 -0.2902
51465SOL     OW63172   5.130   6.790   0.685  0.1810  0.5842  0.0463
51465SOL    HW163173   5.208   6.787   0.740  0.7318 -0.8468 -0.7627
51465SOL    HW263174   5.158   6.753   0.601 -1.9514 -2.5874  0.5585
51466SOL     OW63175   0.694  12.344  10.202  0.3430  0.0333  0.1556
51466SOL    HW163176   0.738  12.321  10.120  1.7422  0.6348  0.7096
51466SOL    HW263177   0.626  12.277  10.212  0.3632 -0.2389 -1.3175
51467SOL     OW63178   6.949   8.282   0.455 -0.4061  0.1971  0.2170
51467SOL    HW163179   6.853   8.275   0.462 -0.4980  0.5871 -0.4845
51467SOL    HW263180   6.979   8.296   0.544 -1.3090  3.4883  0.1452
51468SOL     OW63181   2.561   0.107   2.337  0.3874  0.2147 -0.3420
51468SOL    HW163182   2.591   0.027   2.295  1.1300  0.0866  0.4240
51468SOL    HW263183   2.523   0.159   2.265  1.0580 -0.2675 -1.0557
51469SOL     OW63184   6.438  11.652  12.405 -0.5922  0.0667 -0.4718
51469SOL    HW163185   6.418  11.633  12.313 -1.2317  0.3039 -0.3911
51469SOL    HW263186   6.531  11.672  12.406 -0.5441 -0.1018 -1.0446
51470SOL     OW63187   9.121  11.232   4.360 -0.4707  0.2548  0.2967
51470SOL    HW163188   9.042  11.182   4.340 -1.4699  0.6675  2.8153
51470SOL    HW263189   9.089  11.322   4.373  0.6512  0.7207 -0.0613
51471SOL     OW63190   8.646   4.700   0.082  0.2841 -0.8170 -0.7329
51471SOL    HW163191   8.562   4.700   0.127 -0.0667 -0.6692 -1.3747
51471SOL    HW263192   8.657   4.790   0.051  0.8984 -0.7212 -0.2620
51472SOL     OW63193  10.253   0.202   2.215  0.3848 -0.3056 -0.2527
51472SOL    HW163194  10.187   0.152   2.166 -1.5495  0.1550  1.6938
51472SOL    HW263195  10.231   0.294   2.197  0.1729 -0.1453  0.7847
51473SOL     OW63196   0.306   0.144   9.680  0.0198  0.4378 -0.0132
51473SOL    HW163197   0.345   0.174   9.597 -0.6006  1.4063  0.0262
51473SOL    HW263198   0.360   0.184   9.748  1.4957 -1.6093  0.1148
51474SOL     OW63199   1.950   1.217   6.080 -0.6194  0.0307 -0.3780
51474SOL    HW163200   1.874   1.161   6.101 -1.5182  1.3351 -0.0256
51474SOL    HW263201   1.931   1.251   5.993 -0.1133 -0.1492 -0.5598
51475SOL     OW63202   3.807   6.057   6.735  0.9947  0.2297  0.5833
51475SOL    HW163203   3.892   6.013   6.727  0.7234 -0.3609  0.9592
51475SOL    HW263204   3.786   6.053   6.828  0.2034 -0.2909  0.3924
51476SOL     OW63205  10.428   0.851   6.982 -0.3838  0.3459 -0.1689
51476SOL    HW163206  10.458   0.931   7.026  2.9745  0.1302 -1.7782
51476SOL    HW263207  10.403   0.881   6.894 -1.6379 -0.0518  0.0320
51477SOL     OW63208   5.931   1.964   2.158 -0.1876 -0.1787  0.0808
51477SOL    HW163209   5.995   1.893   2.148  2.2892  1.2150  3.8440
51477SOL    HW263210   5.954   2.027   2.090  0.1674 -1.1869 -0.7633
51478SOL     OW63211  11.778   0.089  11.326 -0.5018 -0.2872  0.1493
51478SOL    HW163212  11.807   0.096  11.235 -1.1621  0.2756 -0.0255
51478SOL    HW263213  11.718   0.162  11.338 -0.5150 -0.4271  1.0071
51479SOL     OW63214   6.250   5.024   4.808  0.4313 -0.1042 -0.2327
51479SOL    HW163215   6.314   5.002   4.875 -0.4758  1.0458  1.0632
51479SOL    HW263216   6.288   5.099   4.762  0.5690 -0.2015 -0.2765
51480SOL     OW63217  10.242  12.152  10.929 -0.3415 -0.1803 -0.5145
51480SOL    HW163218  10.171  12.091  10.909  0.6843 -0.9529 -1.9417
51480SOL    HW263219  10.238  12.217  10.858  1.3881 -1.1808 -1.5985
51481SOL     OW63220   2.971  10.768   4.451  0.0200  0.1743  0.5012
51481SOL    HW163221   2.912  10.723   4.512 -1.4344  2.4034  0.8851
51481SOL    HW263222   3.057  10.733   4.471 -0.7594 -0.9527  2.1315
51482SOL     OW63223   7.338   1.318   5.074 -0.1648  0.1119 -0.3166
51482SOL    HW163224   7.248   1.285   5.076  0.8479 -2.8484  1.2780
51482SOL    HW263225   7.370   1.293   4.987 -0.4530 -0.0367 -0.3833
51483SOL     OW63226   5.349   0.056  10.145  0.0714 -0.0538 -0.3060
51483SOL    HW163227   5.343  -0.027  10.192  0.4218  0.7097  1.1626
51483SOL    HW263228   5.258   0.082  10.130 -0.0873  0.1372  0.8498
51484SOL     OW63229   1.679   7.903  10.354  0.5354  0.0478 -0.4130
51484SOL    HW163230   1.673   7.987  10.307  0.0595  0.6358  0.6390
51484SOL    HW263231   1.750   7.916  10.418  0.8710 -0.5698 -0.6583
51485SOL     OW63232   7.726   8.139  12.217  0.3142 -0.9711 -0.1135
51485SOL    HW163233   7.684   8.060  12.183  0.8102 -1.3514  0.1513
51485SOL    HW263234   7.731   8.123  12.312 -2.0535  0.5241  0.3423
51486SOL     OW63235   2.901  10.325  10.109 -0.0314  0.2304  0.7976
51486SOL    HW163236   2.956  10.355  10.037 -0.3048  1.9553  1.2463
51486SOL    HW263237   2.953  10.258  10.154  0.5762 -0.0844 -0.3550
51487SOL     OW63238   8.575   6.853   8.754  0.3923  0.1631  0.3815
51487SOL    HW163239   8.628   6.809   8.688  1.4609  1.1843  0.5255
51487SOL    HW263240   8.486   6.819   8.740  0.9777 -1.2068 -0.1874
51488SOL     OW63241   5.539  10.445   6.676  0.3901 -0.3712 -0.3598
51488SOL    HW163242   5.505  10.530   6.647  0.2999 -0.4020 -0.3445
51488SOL    HW263243   5.477  10.416   6.743  0.2080 -0.6329 -0.6429
51489SOL     OW63244  11.152   7.493   9.172 -0.3893  0.5399 -0.1378
51489SOL    HW163245  11.139   7.407   9.210 -0.3590 -0.0151 -1.3273
51489SOL    HW263246  11.158   7.552   9.247 -0.1280 -0.5206  0.7033
51490SOL     OW63247   9.567   2.605  11.905  0.1194  0.1667 -0.4993
51490SOL    HW163248   9.645   2.554  11.924 -1.1915 -1.9985 -0.6562
51490SOL    HW263249   9.517   2.605  11.986 -0.0961  0.8967 -0.6200
51491SOL     OW63250   8.756   8.854   2.102 -0.2977 -0.5157  0.1414
51491SOL    HW163251   8.824   8.821   2.042 -1.4834 -1.0538 -0.9475
51491SOL    HW263252   8.804   8.911   2.162  1.0738 -0.6234 -0.7887
51492SOL     OW63253   1.070   8.711   0.962  0.1235 -0.0026  0.3948
51492SOL    HW163254   1.065   8.635   0.904 -0.5007 -0.2958  0.8218
51492SOL    HW263255   1.016   8.778   0.919 -0.5989 -0.3245  0.7810
51493SOL     OW63256   2.119   8.998   0.410  0.2867 -0.0005 -0.6900
51493SOL    HW163257   2.164   8.915   0.395 -0.2865 -0.2245 -1.2138
51493SOL    HW263258   2.104   9.033   0.322 -0.9716 -0.1605 -0.5617
51494SOL     OW63259  12.507   9.691   3.271  0.2425 -0.5580 -0.3033
51494SOL    HW163260  12.572   9.751   3.236  0.2089  1.2224  2.3957
51494SOL    HW263261  12.423   9.730   3.248  0.2046 -0.2423  0.3559
51495SOL     OW63262   3.725   6.200   2.492  0.2487  0.1292 -0.0541
51495SOL    HW163263   3.767   6.192   2.578 -0.9070 -0.4646  0.4848
51495SOL    HW263264   3.639   6.238   2.510  0.5197  1.3171 -1.1288
51496SOL     OW63265   2.849   3.516  11.346  0.0339 -0.4650  0.1875
51496SOL    HW163266   2.856   3.542  11.254  1.9224  0.1098  0.4585
51496SOL    HW263267   2.898   3.434  11.352 -0.5776 -0.8140  0.5853
51497SOL     OW63268   4.585  10.324   2.552  0.6554  0.0170  0.7846
51497SOL    HW163269   4.597  10.418   2.564 -0.0353  0.1859  0.2213
51497SOL    HW263270   4.508  10.316   2.496  2.5278 -0.7547 -1.8850
51498SOL     OW63271   7.910   6.581   4.841  0.3095 -0.7511 -0.4890
51498SOL    HW163272   7.972   6.611   4.907  0.7748  1.2884 -1.7454
51498SOL    HW263273   7.955   6.596   4.757 -0.6281 -2.3356 -1.3431
51499SOL     OW63274   2.366   2.580   0.669  0.2026 -0.4003  0.1683
51499SOL    HW163275   2.323   2.663   0.689  1.6704  0.4141  0.1127
51499SOL    HW263276   2.408   2.554   0.752 -0.6671 -1.3650  0.3244
51500SOL     OW63277  12.369  11.660  11.809  0.0153 -0.1574 -0.0556
51500SOL    HW163278  12.299  11.690  11.750  0.8420  0.6675 -0.6534
51500SOL    HW263279  12.427  11.608  11.753  1.9732  2.3961 -0.5734
51501SOL     OW63280  10.725   0.463   3.809  0.7455 -0.1531 -0.4511
51501SOL    HW163281  10.748   0.374   3.833  1.7061 -0.0787 -1.0174
51501SOL    HW263282  10.697   0.457   3.717 -0.4996 -0.0680 -0.0940
51502SOL     OW63283   6.742   4.509   7.617  0.5526  0.0986  0.2590
51502SOL    HW163284   6.660   4.487   7.573  0.5691  1.6263 -0.5817
51502SOL    HW263285   6.767   4.428   7.662 -0.7552 -0.7612 -0.4950
51503SOL     OW63286   3.268  11.645   0.032  0.1533 -0.1321  0.4619
51503SOL    HW163287   3.358  11.633   0.062  0.7898  1.2867 -0.7588
51503SOL    HW263288   3.274  11.710  -0.038 -1.7854 -0.2508  0.1208
51504SOL     OW63289   2.559   4.769   8.744  0.3218  0.0863 -0.1928
51504SOL    HW163290   2.612   4.843   8.715  2.0114 -0.7479  0.6028
51504SOL    HW263291   2.525   4.795   8.829  0.2020  0.2681 -0.2957
51505SOL     OW63292   6.963  11.622   5.238 -0.2996 -0.2450 -0.2023
51505SOL    HW163293   6.925  11.670   5.311 -0.2084  0.1004 -0.3797
51505SOL    HW263294   6.893  11.563   5.209 -0.2704 -0.5235  0.2843
51506SOL     OW63295   5.954   3.599   2.350  0.3098 -0.3817  0.2964
51506SOL    HW163296   5.874   3.570   2.305  0.6618 -0.1830 -0.4865
51506SOL    HW263297   5.952   3.694   2.344 -0.2770 -0.2648  1.8682
51507SOL     OW63298   6.067  10.339   5.138 -0.0934 -0.2871 -0.3837
51507SOL    HW163299   6.110  10.402   5.079  1.8903 -0.3260  0.9409
51507SOL    HW263300   6.038  10.392   5.212  0.4982 -0.7462  0.1794
51508SOL     OW63301   6.283   8.680   2.944  0.3300 -0.2329 -0.0665
51508SOL    HW163302   6.283   8.619   3.018  1.1315 -1.3715 -0.9538
51508SOL    HW263303   6.226   8.638   2.879 -0.9523  1.1002  0.1465
51509SOL     OW63304  10.109   2.663   0.991 -0.3014 -0.5688  0.6011
51509SOL    HW163305  10.069   2.667   0.904 -1.7785  1.6439  1.2812
51509SOL    HW263306  10.052   2.603   1.040  0.9788 -2.4463 -0.0727
51510SOL     OW63307   2.454   2.653   3.579 -0.2000 -0.0480  0.2198
51510SOL    HW163308   2.503   2.604   3.513  0.1726 -0.1691  0.5863
51510SOL    HW263309   2.367   2.613   3.579 -0.3559  0.2772 -0.5467
51511SOL     OW63310  12.207  10.395   0.896 -0.0695 -0.2385  0.6054
51511SOL    HW163311  12.113  10.406   0.911 -0.0512 -1.1230  1.4553
51511SOL    HW263312  12.248  10.451   0.961 -0.0082  0.2251  0.1674
51512SOL     OW63313   3.074   6.774   3.784 -0.0668 -0.3226 -0.2612
51512SOL    HW163314   3.056   6.784   3.878 -0.5347  1.3094 -0.4838
51512SOL    HW263315   3.153   6.826   3.769  0.3963 -1.1325 -0.6632
51513SOL     OW63316   9.745   6.878   2.532  0.4656  0.3954 -0.4399
51513SOL    HW163317   9.735   6.867   2.437 -1.5094 -0.1460 -0.2198
51513SOL    HW263318   9.694   6.807   2.570  0.7856  0.9176  1.0394
51514SOL     OW63319  12.296   0.060   8.250 -0.0291 -0.3177  0.0899
51514SOL    HW163320  12.338   0.133   8.204 -0.6551  0.5725  0.9137
51514SOL    HW263321  12.213   0.095   8.281 -0.0029 -1.1549  1.1545
51515SOL     OW63322   8.889   5.248   1.979  0.2691 -0.2552 -0.2854
51515SOL    HW163323   8.813   5.194   1.958 -0.3436  0.1859  0.6633
51515SOL    HW263324   8.965   5.196   1.954 -0.3463  0.0275 -3.0106
51516SOL     OW63325   6.634  11.115   8.292 -0.5803 -0.2235  0.8056
51516SOL    HW163326   6.588  11.042   8.250  0.1305 -1.0691  1.4618
51516SOL    HW263327   6.565  11.165   8.335 -0.9826 -1.0888  1.2024
51517SOL     OW63328  10.171   8.077   0.402  0.5498  0.5937  0.4924
51517SOL    HW163329  10.212   8.028   0.330 -0.9820  1.7781 -1.2771
51517SOL    HW263330  10.232   8.149   0.419  0.4480  0.8969 -0.3622
51518SOL     OW63331   7.317   7.538   8.362 -0.3216  0.1909 -0.0603
51518SOL    HW163332   7.241   7.595   8.365  0.3993  1.1881 -0.0522
51518SOL    HW263333   7.306   7.477   8.435 -0.3358  1.3543  0.9326
51519SOL     OW63334  11.103   9.322   3.543 -0.4038 -0.1424  0.2109
51519SOL    HW163335  11.071   9.233   3.529  1.3278 -0.8156  0.1999
51519SOL    HW263336  11.199   9.314   3.537  0.0086  1.1547  3.0760
51520SOL     OW63337   2.307   4.988   2.902  0.0267 -0.2383  0.1835
51520SOL    HW163338   2.276   5.044   2.973  1.4910 -0.8201  1.3297
51520SOL    HW263339   2.401   4.976   2.920  0.7860  0.7606 -2.6392
51521SOL     OW63340  10.951   8.808   4.767  0.3231  0.1870  0.1007
51521SOL    HW163341  10.878   8.760   4.727  1.1012  0.0232 -1.1713
51521SOL    HW263342  10.968   8.762   4.849  0.2088 -0.9313 -0.4826
51522SOL     OW63343   3.355   1.530   9.988 -0.6651 -0.2530 -0.1490
51522SOL    HW163344   3.440   1.489  10.006 -0.9472 -0.9753 -0.4431
51522SOL    HW263345   3.326   1.562  10.073 -1.3901 -2.5094  0.5247
51523SOL     OW63346   1.606   7.223   4.325  0.1867  0.1093  0.1854
51523SOL    HW163347   1.577   7.299   4.375  2.0354  0.9360  0.0600
51523SOL    HW263348   1.685   7.194   4.370  1.8535  0.8086 -2.1365
51524SOL     OW63349  10.801   0.533   5.288 -0.0980 -0.0864  0.5937
51524SOL    HW163350  10.780   0.494   5.373  0.5283  0.0500  0.8153
51524SOL    HW263351  10.893   0.560   5.296  0.1954 -0.7582 -0.3834
51525SOL     OW63352   3.746   8.826   4.907 -0.4028 -0.2631  0.8220
51525SOL    HW163353   3.817   8.803   4.848 -0.6760 -0.5550  0.6015
51525SOL    HW263354   3.788   8.847   4.990  0.1292  1.6007  0.1340
51526SOL     OW63355   8.053  11.510   0.758  0.6016  0.1653 -0.1169
51526SOL    HW163356   8.084  11.584   0.811 -1.2516  0.3499  0.8196
51526SOL    HW263357   8.031  11.442   0.822  1.4773 -0.8877 -0.9152
51527SOL     OW63358   6.369   1.382   4.643  0.5069 -0.1636  0.0920
51527SOL    HW163359   6.454   1.361   4.606  1.6191  3.1405  0.4117
51527SOL    HW263360   6.369   1.340   4.729  1.1942 -1.3217 -0.4515
51528SOL     OW63361   1.156   2.343  10.756  0.0321 -0.3961 -0.1866
51528SOL    HW163362   1.125   2.330  10.846  2.2401  1.0917  0.8906
51528SOL    HW263363   1.231   2.283  10.749  0.4652  0.2038 -0.6997
51529SOL     OW63364   5.010   2.414   8.575  0.1903 -0.1655  0.3967
51529SOL    HW163365   5.032   2.498   8.617  0.1737  0.4633 -0.8196
51529SOL    HW263366   4.923   2.393   8.609 -2.0201  2.7428 -2.7726
51530SOL     OW63367   2.319   3.144   4.597 -0.1668  0.0648  0.0615
51530SOL    HW163368   2.259   3.134   4.671 -1.2434  2.4900 -0.3630
51530SOL    HW263369   2.303   3.068   4.542 -0.8191 -0.7484  1.3265
51531SOL     OW63370   2.100  10.715   0.356  0.1504 -0.1540 -0.0177
51531SOL    HW163371   2.072  10.803   0.329 -0.7420 -0.5566 -0.4459
51531SOL    HW263372   2.196  10.720   0.356  0.1109  1.2378  1.4255
51532SOL     OW63373   0.353  11.667   0.963 -0.2420  0.2068  0.6281
51532SOL    HW163374   0.284  11.622   1.012  0.2142 -0.2570  0.8552
51532SOL    HW263375   0.349  11.629   0.875  2.0305 -2.5198  1.5245
51533SOL     OW63376  12.365  11.714   8.497  0.1523 -0.3063  0.1698
51533SOL    HW163377  12.279  11.751   8.514  0.1573 -0.2432  0.0612
51533SOL    HW263378  12.348  11.628   8.461  0.1055  0.1481 -0.9219
51534SOL     OW63379   9.701  10.093   8.062 -0.1015  0.2736 -0.8002
51534SOL    HW163380   9.625  10.072   8.116 -0.5191  0.2405 -1.3897
51534SOL    HW263381   9.755  10.148   8.118 -1.0000  1.0657 -0.6663
51535SOL     OW63382   8.129   2.799   4.354 -0.1368  0.3314 -0.3935
51535SOL    HW163383   8.044   2.805   4.310 -0.3050 -1.0881 -0.3130
51535SOL    HW263384   8.115   2.838   4.440 -2.1154 -3.9269  1.5047
51536SOL     OW63385   7.787   1.897   1.758 -0.1818  0.0477  0.0804
51536SOL    HW163386   7.872   1.936   1.782  0.1251 -0.2974 -0.4334
51536SOL    HW263387   7.724   1.967   1.772  0.2849  0.5435 -0.2420
51537SOL     OW63388   4.469   8.378   8.061  0.0538  0.5744  0.1907
51537SOL    HW163389   4.538   8.422   8.010  1.0415 -0.4076  0.6341
51537SOL    HW263390   4.433   8.313   8.002 -1.9539  2.3917 -0.7354
51538SOL     OW63391   7.863  10.851   3.452  0.2907 -0.3285  0.1406
51538SOL    HW163392   7.882  10.782   3.516 -0.1507  0.1387  0.7770
51538SOL    HW263393   7.774  10.879   3.472  1.2495  2.1098  1.4944
51539SOL     OW63394   8.602   1.503   5.451  0.3138  0.0057 -0.4799
51539SOL    HW163395   8.549   1.538   5.522 -1.2956 -0.5598 -1.3602
51539SOL    HW263396   8.667   1.572   5.434  2.1610 -0.6958  2.8848
51540SOL     OW63397   1.370   0.212   3.106  0.2359 -0.1503 -0.6984
51540SOL    HW163398   1.438   0.147   3.088  0.9918  0.6215 -0.6997
51540SOL    HW263399   1.335   0.187   3.191  2.5724  1.1036  0.7345
51541SOL     OW63400   7.797   8.820   3.018  0.2778 -0.0223  0.1287
51541SOL    HW163401   7.709   8.830   3.057  0.7584  1.0982  0.9902
51541SOL    HW263402   7.795   8.734   2.976 -1.6136  0.4636 -0.8852
51542SOL     OW63403   5.578   6.024   6.245 -0.4542  0.1127  0.2545
51542SOL    HW163404   5.527   5.978   6.311  0.7028 -0.4854  0.7527
51542SOL    HW263405   5.609   6.103   6.289 -0.1661  0.0068  0.2386
51543SOL     OW63406   3.932   4.764   3.947  0.1445 -0.0604 -0.2640
51543SOL    HW163407   3.963   4.821   4.017  0.5076  0.6889 -1.0161
51543SOL    HW263408   4.011   4.732   3.905 -0.0406  1.5867 -1.9733
51544SOL     OW63409   9.804   4.555   8.643 -0.3582 -0.2189 -0.4747
51544SOL    HW163410   9.723   4.539   8.692  0.3636  0.4640  1.0204
51544SOL    HW263411   9.781   4.626   8.583 -0.9106 -0.1022 -0.1435
51545SOL     OW63412   1.746  11.489   8.405 -0.6938 -0.9323 -0.5380
51545SOL    HW163413   1.782  11.417   8.352  0.5745 -0.6860 -0.0383
51545SOL    HW263414   1.822  11.527   8.449 -1.5201 -0.0933  0.2052
51546SOL     OW63415   2.602   1.934   5.992  0.4048  0.3198  0.0360
51546SOL    HW163416   2.601   1.932   6.087 -0.6063 -0.6051  0.0237
51546SOL    HW263417   2.675   1.992   5.970  0.3875  0.8863  1.3653
51547SOL     OW63418   4.079  11.552  11.235 -1.0555 -0.3008 -0.8162
51547SOL    HW163419   3.995  11.516  11.208 -0.6529 -0.2172 -2.2687
51547SOL    HW263420   4.125  11.569  11.153  0.5023 -0.6320 -0.0426
51548SOL     OW63421   6.648   9.516   3.229  0.0996 -0.5067 -0.5114
51548SOL    HW163422   6.553   9.510   3.235  0.0639 -0.2154 -0.7415
51548SOL    HW263423   6.676   9.429   3.202  0.0385 -1.0407  1.0735
51549SOL     OW63424   9.807   3.970   9.506 -0.0010  0.8857 -0.0325
51549SOL    HW163425   9.844   3.972   9.418  0.6921  0.2892  0.2343
51549SOL    HW263426   9.864   4.028   9.557  0.4738  0.1149  0.3352
51550SOL     OW63427   7.738   3.886   6.938 -0.7995  0.0681 -0.2752
51550SOL    HW163428   7.831   3.894   6.919 -0.6518 -1.6638 -0.4468
51550SOL    HW263429   7.726   3.796   6.965 -2.3665  0.3737  0.1829
51551SOL     OW63430  12.279   9.305   7.495 -0.2708  0.4681  0.3001
51551SOL    HW163431  12.224   9.290   7.571 -2.7187 -1.1616 -1.6674
51551SOL    HW263432  12.330   9.224   7.485 -0.6750  0.2877 -0.3366
51552SOL     OW63433   3.847   0.178  10.591 -0.1562  0.2397  0.4967
51552SOL    HW163434   3.772   0.173  10.650 -0.3636  0.5320  0.2585
51552SOL    HW263435   3.858   0.089  10.558 -0.4930  0.2316  0.4101
51553SOL     OW63436   6.904   2.063  12.569 -0.1920 -0.3506 -0.2644
51553SOL    HW163437   6.980   2.111  12.536 -0.6065  1.2902  0.9975
51553SOL    HW263438   6.840   2.065  12.498 -0.2114  1.0748 -0.2302
51554SOL     OW63439   2.127   3.375   8.399 -0.1007 -0.1918 -0.5346
51554SOL    HW163440   2.104   3.468   8.406 -1.8884 -0.7038  1.6864
51554SOL    HW263441   2.186   3.360   8.472 -0.1173 -0.8809 -0.6617
51555SOL     OW63442   1.674  12.526   8.710  0.2330  0.1983 -0.5374
51555SOL    HW163443   1.647  12.455   8.651 -0.1926  0.0699 -0.1900
51555SOL    HW263444   1.619  12.600   8.686  1.0638  0.5894 -1.2787
51556SOL     OW63445   4.417   4.590   4.930  0.2236 -0.1313  0.0965
51556SOL    HW163446   4.363   4.512   4.920  0.9673 -0.8967  1.7053
51556SOL    HW263447   4.505   4.563   4.903  0.6862 -0.1714  1.5495
51557SOL     OW63448   3.956   3.396   9.695  0.1422  0.5041 -0.0049
51557SOL    HW163449   3.863   3.399   9.673  0.0875 -0.2072  0.0987
51557SOL    HW263450   3.999   3.370   9.613  0.1586  0.0178  0.1512
51558SOL     OW63451   7.134   3.678   1.891  0.3004 -0.2817  0.7165
51558SOL    HW163452   7.137   3.773   1.894  0.1166 -0.2965  1.6298
51558SOL    HW263453   7.225   3.651   1.896  0.4611 -0.1454 -0.8624
51559SOL     OW63454   1.153  10.523   7.323  0.4351  0.4832  0.2982
51559SOL    HW163455   1.090  10.494   7.388  1.6664  0.1141  1.3648
51559SOL    HW263456   1.130  10.615   7.306 -0.6752  0.2134  0.2780
51560SOL     OW63457   1.152   7.145  12.323  0.2617  0.6715 -0.1637
51560SOL    HW163458   1.130   7.229  12.282  2.8253  0.9163 -1.2058
51560SOL    HW263459   1.174   7.168  12.414  1.1083  1.1835 -0.4830
51561SOL     OW63460   0.123   3.024   9.774 -0.3872  0.7810  0.7846
51561SOL    HW163461   0.049   2.964   9.764 -0.2219  0.4903  1.2625
51561SOL    HW263462   0.128   3.070   9.691 -0.8311  0.4867  0.5903
51562SOL     OW63463  12.250  11.644   9.295 -0.0385  0.4189 -0.0506
51562SOL    HW163464  12.255  11.740   9.296  1.3156  0.4247 -1.8719
51562SOL    HW263465  12.331  11.616   9.252  0.0191 -1.6133  1.2394
51563SOL     OW63466   6.689   2.386   4.857 -0.5038 -0.5921  0.4185
51563SOL    HW163467   6.602   2.359   4.885 -0.2117 -2.1063  0.0080
51563SOL    HW263468   6.733   2.413   4.938 -1.7328  1.4829  0.4568
51564SOL     OW63469  12.347  10.935   1.579 -0.0407  0.4292  0.6327
51564SOL    HW163470  12.396  11.005   1.537 -0.8106  0.8541  0.4309
51564SOL    HW263471  12.292  10.979   1.644 -0.0472 -0.0539  0.9633
51565SOL     OW63472   5.361   0.895   1.362  0.0669 -0.9014  0.2443
51565SOL    HW163473   5.457   0.901   1.358  0.0778 -1.0936  0.1583
51565SOL    HW263474   5.343   0.852   1.446  0.0260 -0.3255  0.5303
51566SOL     OW63475  12.492   5.025   0.482 -0.4485 -0.1484 -0.7634
51566SOL    HW163476  12.564   5.085   0.497 -0.7417  0.0869 -0.2726
51566SOL    HW263477  12.510   4.987   0.396  0.0563  0.1873 -0.8103
51567SOL     OW63478  11.503  12.474   8.610 -0.1902  1.0338  0.1020
51567SOL    HW163479  11.579  12.505   8.658  0.2704  0.9613 -0.5704
51567SOL    HW263480  11.431  12.479   8.673  0.6202 -0.2098  1.1954
51568SOL     OW63481   6.348   6.239   8.748 -0.6150 -0.2335  0.0410
51568SOL    HW163482   6.419   6.197   8.796 -2.0589 -1.9633  0.7927
51568SOL    HW263483   6.270   6.188   8.771 -1.7356  0.1717 -2.4972
51569SOL     OW63484   8.459   8.903   1.926  0.0465  0.3947  0.4704
51569SOL    HW163485   8.519   8.888   1.853 -0.7061 -0.5064  0.0227
51569SOL    HW263486   8.508   8.877   2.003  0.2724 -0.2247  0.1197
51570SOL     OW63487   1.396   6.238   8.006  0.3722 -0.2086  0.0820
51570SOL    HW163488   1.433   6.271   7.924 -0.8276 -1.0370 -0.8203
51570SOL    HW263489   1.471   6.234   8.066  1.2896  0.3299 -0.9922
51571SOL     OW63490  10.615   5.431   5.358 -0.1697 -0.2986  0.0234
51571SOL    HW163491  10.564   5.382   5.293  0.5073  0.0277 -0.7724
51571SOL    HW263492  10.687   5.470   5.308  0.3852 -0.0581  0.9790
51572SOL     OW63493   8.268  11.159  10.496  0.0102  0.4897  0.1318
51572SOL    HW163494   8.248  11.066  10.511  0.8116  0.3229  0.2031
51572SOL    HW263495   8.199  11.189  10.437  0.1089 -0.3191 -0.4077
51573SOL     OW63496   6.948   3.261   4.803 -0.0852  0.1189 -0.1926
51573SOL    HW163497   6.966   3.181   4.852  1.8532  0.6142 -0.0145
51573SOL    HW263498   6.965   3.332   4.865 -0.9908  0.6861 -0.5787
51574SOL     OW63499  10.836   2.587  11.930  0.0737 -0.5157 -0.2702
51574SOL    HW163500  10.768   2.631  11.880 -0.7755 -0.8743  0.5387
51574SOL    HW263501  10.917   2.605  11.882 -0.3739  1.1168 -0.4614
51575SOL     OW63502   0.905  10.472   3.082  0.1056 -0.2281  0.0885
51575SOL    HW163503   0.913  10.531   3.158  0.1983  0.1365 -0.2011
51575SOL    HW263504   0.959  10.397   3.104  3.5049  1.6042 -1.3105
51576SOL     OW63505   1.781   4.628   9.041 -0.3552  0.2804  0.0069
51576SOL    HW163506   1.822   4.643   9.126 -1.5379  0.6034  0.5447
51576SOL    HW263507   1.710   4.693   9.037  0.1396  0.7611 -1.5457
51577SOL     OW63508   3.607   4.324   7.482  0.1221 -0.1261 -0.4035
51577SOL    HW163509   3.689   4.374   7.489  1.0393 -1.6252  0.1400
51577SOL    HW263510   3.546   4.383   7.438  1.3871  1.1719 -0.4831
51578SOL     OW63511   2.937   0.422   4.988  0.1366 -0.0299 -0.3523
51578SOL    HW163512   2.892   0.438   5.071  1.3746 -0.7337  0.4837
51578SOL    HW263513   2.880   0.360   4.942 -1.1079  1.2020 -0.5309
51579SOL     OW63514   5.157  12.471   4.448 -0.2588  0.5717 -0.3066
51579SOL    HW163515   5.109  12.409   4.395 -0.9915  0.6768  0.2201
51579SOL    HW263516   5.231  12.498   4.393 -0.6501  0.2119 -1.0190
51580SOL     OW63517   8.356   3.935   6.752 -0.7563  0.0140  0.6564
51580SOL    HW163518   8.318   3.880   6.684 -0.1820 -0.6171  0.8372
51580SOL    HW263519   8.360   3.879   6.829 -0.4051  0.3898  0.9171
51581SOL     OW63520   6.853   6.567   2.804 -0.3023 -0.3250  0.1580
51581SOL    HW163521   6.929   6.575   2.746  0.7392  0.7484  1.5620
51581SOL    HW263522   6.857   6.477   2.837  0.1535 -0.3911 -0.0720
51582SOL     OW63523  10.646   3.224   1.668  0.1905 -0.1915  0.4178
51582SOL    HW163524  10.658   3.274   1.587  1.1110  0.4241  0.9173
51582SOL    HW263525  10.649   3.290   1.737 -0.6505 -0.7050  0.9567
51583SOL     OW63526   3.592   1.457  11.649  0.3151  0.4895  0.4746
51583SOL    HW163527   3.559   1.432  11.736  0.0237  0.3244  0.3183
51583SOL    HW263528   3.514   1.484  11.601  0.5998  1.5236  0.5729
51584SOL     OW63529  10.764   9.217   0.873 -0.3329  0.1079 -0.1501
51584SOL    HW163530  10.737   9.287   0.932 -0.2620 -0.2247  0.2844
51584SOL    HW263531  10.859   9.214   0.881 -0.4361 -1.0357  1.0090
51585SOL     OW63532   9.584   0.564   8.465  0.2813 -0.6902 -0.0357
51585SOL    HW163533   9.675   0.533   8.461  0.3913 -0.2729 -1.4917
51585SOL    HW263534   9.532   0.484   8.465  0.6124 -0.9403 -1.7592
51586SOL     OW63535   6.057  12.194   4.162  0.1488 -0.8065 -0.0118
51586SOL    HW163536   6.141  12.210   4.120  0.9879 -1.7539  1.2398
51586SOL    HW263537   6.068  12.110   4.207 -0.9203 -0.1868  1.4873
51587SOL     OW63538   2.806   0.773   9.964  0.1326 -0.4760  0.3632
51587SOL    HW163539   2.755   0.694   9.947 -0.7940  0.4167 -1.2447
51587SOL    HW263540   2.799   0.824   9.883  0.2983  1.4779  1.5161
51588SOL     OW63541   9.711  10.113   9.584 -0.6580 -0.5874  0.2452
51588SOL    HW163542   9.759  10.188   9.618 -0.3083 -1.2788  1.3321
51588SOL    HW263543   9.770  10.074   9.519 -0.8534  0.0934 -0.3387
51589SOL     OW63544   6.031   6.527   2.319 -0.0358 -0.2521  0.4461
51589SOL    HW163545   5.979   6.591   2.270  0.2574  0.8688  1.5620
51589SOL    HW263546   6.083   6.483   2.252 -0.1823  0.7293 -0.3464
51590SOL     OW63547   0.224   1.655   3.906  0.0695 -0.7966  0.0086
51590SOL    HW163548   0.187   1.703   3.832  1.4613 -0.6466 -0.6097
51590SOL    HW263549   0.240   1.722   3.973  0.0727 -0.7254 -0.0637
51591SOL     OW63550   1.086   5.865   4.725 -0.1070 -0.2276  0.1166
51591SOL    HW163551   1.170   5.825   4.747 -0.7516 -1.5176  0.3142
51591SOL    HW263552   1.050   5.810   4.656 -1.0763 -0.0718  0.4797
51592SOL     OW63553   4.495   0.076   7.769 -0.3047  0.2765 -0.3015
51592SOL    HW163554   4.556   0.075   7.843 -1.3465  0.7342  0.5971
51592SOL    HW263555   4.491  -0.015   7.740 -0.1751  0.0161  0.4725
51593SOL     OW63556   7.671   5.188   7.191  0.7089 -0.0612 -0.0516
51593SOL    HW163557   7.608   5.123   7.220  0.8736 -0.4281 -0.5136
51593SOL    HW263558   7.660   5.261   7.252 -2.4767  1.2853 -1.9963
51594SOL     OW63559   8.382   2.605  11.748 -0.4278 -0.0695 -0.3724
51594SOL    HW163560   8.360   2.531  11.803  0.7704  1.2684  2.0875
51594SOL    HW263561   8.309   2.667  11.760 -0.0078  0.3632 -0.0133
51595SOL     OW63562  10.889   1.019  10.240 -0.8964 -0.3680 -0.0995
51595SOL    HW163563  10.934   1.038  10.322  0.1263 -3.0466  0.0377
51595SOL    HW263564  10.798   1.046  10.256 -0.2506  1.3856  1.0074
51596SOL     OW63565   4.163   6.613   8.247  0.3939 -0.2041 -0.1914
51596SOL    HW163566   4.141   6.700   8.214 -0.8309 -0.4321 -0.0068
51596SOL    HW263567   4.086   6.586   8.298  0.4837 -1.6702 -0.7821
51597SOL     OW63568  12.582   6.294   4.660  0.2132  0.0476  0.0107
51597SOL    HW163569  12.641   6.235   4.613 -0.5781 -1.0365  0.3342
51597SOL    HW263570  12.518   6.322   4.595  0.2492  0.0858 -0.0083
51598SOL     OW63571   1.566   5.649   5.971 -0.1974  0.0992 -0.0259
51598SOL    HW163572   1.587   5.657   6.065  0.8859 -0.2371 -0.2251
51598SOL    HW263573   1.498   5.582   5.968 -0.5047  0.3757  0.5539
51599SOL     OW63574   5.039   8.014   1.393 -0.1880 -0.0449 -0.2115
51599SOL    HW163575   5.096   8.039   1.465  0.4289 -1.2038 -0.2763
51599SOL    HW263576   4.958   8.063   1.408 -0.2463 -0.6355  1.5346
51600SOL     OW63577   4.443   1.169   6.833  0.4275  0.2870 -0.0863
51600SOL    HW163578   4.495   1.248   6.818 -0.6715  0.9471 -0.5512
51600SOL    HW263579   4.353   1.201   6.842 -0.0103 -0.9003 -0.0761
51601SOL     OW63580  11.765   2.553   9.758 -0.2835 -0.0194 -0.3140
51601SOL    HW163581  11.833   2.496   9.795 -0.0813  0.4904  0.1105
51601SOL    HW263582  11.743   2.613   9.829 -1.0179 -0.0324 -0.5285
51602SOL     OW63583  11.058   8.120  11.401  0.3135 -0.2182  0.3880
51602SOL    HW163584  11.000   8.195  11.409  0.2313 -0.1337 -0.7549
51602SOL    HW263585  11.016   8.051  11.453 -2.2240 -0.9613 -2.3755
51603SOL     OW63586   3.881   1.441  11.025 -0.0424 -0.1664  0.3999
51603SOL    HW163587   3.890   1.520  10.971  0.5364 -0.1359  0.5302
51603SOL    HW263588   3.861   1.474  11.112  0.3138 -0.1550  0.4790
51604SOL     OW63589   2.088   7.444   7.054  0.2243 -0.1216  0.2962
51604SOL    HW163590   2.065   7.526   7.097 -1.3467 -0.6436  0.5060
51604SOL    HW263591   2.085   7.378   7.124  0.9181 -0.4664  0.0189
51605SOL     OW63592   9.963   9.742   8.318  0.6439 -0.1705 -0.2015
51605SOL    HW163593   9.891   9.800   8.346 -0.1541 -0.5844 -1.3332
51605SOL    HW263594  10.041   9.797   8.322 -0.0017  0.8035 -0.6184
51606SOL     OW63595   5.033   7.752   8.331 -0.2509 -0.1748 -0.0753
51606SOL    HW163596   5.096   7.792   8.390 -0.3465  0.5662 -0.4668
51606SOL    HW263597   5.007   7.671   8.375 -1.5418  1.1090  1.6780
51607SOL     OW63598   3.695  12.593   6.689 -0.0742  0.1550  0.1106
51607SOL    HW163599   3.732  12.657   6.628  0.2569  0.2188  0.3744
51607SOL    HW263600   3.600  12.603   6.679 -0.0444  1.4659  0.9401
51608SOL     OW63601   0.173   9.354  11.253 -0.1901  0.3527  0.1742
51608SOL    HW163602   0.205   9.422  11.313 -0.0002 -0.2696  0.8036
51608SOL    HW263603   0.222   9.368  11.172  0.4285  0.4794  0.5584
51609SOL     OW63604   2.238   7.821   0.948  0.0057  0.4147 -0.4158
51609SOL    HW163605   2.272   7.739   0.982 -0.9177  0.9174  1.9045
51609SOL    HW263606   2.294   7.888   0.985 -0.5998  0.9620 -0.4714
51610SOL     OW63607   5.918   0.271   8.312 -0.1978  0.2862 -0.4573
51610SOL    HW163608   5.927   0.223   8.230  1.9731 -2.3354  1.1381
51610SOL    HW263609   5.861   0.215   8.366  3.3440 -1.4622  1.8719
51611SOL     OW63610  12.350  10.010   9.744  0.0710  0.4090  0.3861
51611SOL    HW163611  12.444   9.996   9.748  0.2212  1.4905  1.3209
51611SOL    HW263612  12.312   9.922   9.751  1.0026 -0.1056 -0.7802
51612SOL     OW63613   7.248  11.112   4.209  0.2348 -0.4003  0.0267
51612SOL    HW163614   7.236  11.170   4.133 -0.6622 -1.1591 -0.4312
51612SOL    HW263615   7.338  11.130   4.238  1.0246 -0.8775 -1.9156
51613SOL     OW63616   1.154   7.990  10.738 -0.9241 -0.4213  0.4293
51613SOL    HW163617   1.119   8.057  10.679  1.5960  0.6445  0.0227
51613SOL    HW263618   1.200   8.039  10.806 -0.5805 -1.7120  1.1647
51614SOL     OW63619   3.632   5.093   7.493  0.5930 -0.0351 -0.4212
51614SOL    HW163620   3.694   5.085   7.565 -1.2123 -0.2826  1.1899
51614SOL    HW263621   3.580   5.171   7.514 -0.5470 -0.6153 -0.9672
51615SOL     OW63622   7.114   8.180   1.106 -0.2254 -0.1199  0.0940
51615SOL    HW163623   7.042   8.174   1.170  1.0696 -1.3808  1.4873
51615SOL    HW263624   7.126   8.091   1.075  0.3713  0.1867 -0.5678
51616SOL     OW63625   1.290   8.447   0.726 -0.0630  0.1829 -0.7329
51616SOL    HW163626   1.221   8.460   0.791 -0.5867 -0.8950 -1.0527
51616SOL    HW263627   1.371   8.468   0.772 -0.6239  2.4183 -0.6145
51617SOL     OW63628   7.682   1.271   2.620  0.2968  0.1188 -0.4088
51617SOL    HW163629   7.739   1.221   2.679  0.5036 -0.1929 -0.8675
51617SOL    HW263630   7.606   1.215   2.607  0.2784  0.1618 -0.4844
51618SOL     OW63631  10.192   7.526   8.941  0.0565 -0.0990 -0.0095
51618SOL    HW163632  10.138   7.565   9.010 -0.3288  1.3203 -1.0763
51618SOL    HW263633  10.278   7.564   8.955 -0.3411  1.2819 -1.1077
51619SOL     OW63634   8.752   9.010  11.443 -0.3198 -0.2180 -0.0353
51619SOL    HW163635   8.673   9.064  11.436  1.7497  3.1754  0.2699
51619SOL    HW263636   8.782   9.023  11.533 -0.5014 -3.3021  0.5804
51620SOL     OW63637   3.131   1.471   6.531 -0.2240 -0.4626 -0.0202
51620SOL    HW163638   3.115   1.392   6.481 -1.3906 -0.2315 -0.0406
51620SOL    HW263639   3.078   1.538   6.488  1.1213  0.4594 -0.3048
51621SOL     OW63640   3.960   3.293  10.210  0.1669 -0.3848 -0.1070
51621SOL    HW163641   4.048   3.292  10.249 -0.3271  2.3181  1.3131
51621SOL    HW263642   3.976   3.316  10.118  1.0852 -3.0979 -0.7160
51622SOL     OW63643   3.177   2.750   7.659 -0.8238 -0.4217 -0.7360
51622SOL    HW163644   3.210   2.671   7.701  0.6379  1.2371  1.4245
51622SOL    HW263645   3.098   2.772   7.709 -0.3070  0.3677 -0.2591
51623SOL     OW63646   1.280   2.686   8.218 -0.6954 -0.0122 -0.4271
51623SOL    HW163647   1.218   2.619   8.189  0.5479 -1.6018  0.3965
51623SOL    HW263648   1.280   2.678   8.314  0.2951  0.3652 -0.3789
51624SOL     OW63649   9.062   9.681   0.307 -0.2386 -0.2830  0.3958
51624SOL    HW163650   9.120   9.738   0.357  0.6011  0.1797 -1.0627
51624SOL    HW263651   9.053   9.602   0.361  1.6982 -0.3343  0.6865
51625SOL     OW63652   5.532  11.738   6.686 -0.7753  0.1825 -0.0096
51625SOL    HW163653   5.615  11.727   6.732 -1.8102  0.1510  1.9938
51625SOL    HW263654   5.496  11.819   6.722 -3.1898 -1.5893  1.9560
51626SOL     OW63655   0.865  11.337   7.357 -0.1777 -0.1622 -0.5145
51626SOL    HW163656   0.807  11.283   7.303 -0.0542  0.3427 -1.1694
51626SOL    HW263657   0.838  11.319   7.447  0.4163 -1.9529 -0.6542
51627SOL     OW63658   8.754   2.092   9.314 -0.1012  0.3407 -0.0245
51627SOL    HW163659   8.734   2.000   9.294 -0.2824  0.4093 -0.1635
51627SOL    HW263660   8.736   2.138   9.232  1.5781  0.2738 -0.4734
51628SOL     OW63661   5.402   9.455   7.258  0.1871 -0.0312  0.0565
51628SOL    HW163662   5.468   9.515   7.222  0.9486  0.7730  2.5507
51628SOL    HW263663   5.443   9.369   7.253  1.2069  0.3694  0.9387
51629SOL     OW63664   9.633   5.923   4.347  0.0117 -0.5162 -0.4590
51629SOL    HW163665   9.567   5.889   4.408  0.3833 -0.8047 -0.2090
51629SOL    HW263666   9.584   5.977   4.285 -0.3809 -0.2362  0.0865
51630SOL     OW63667   3.919   6.360   9.323 -0.0678  0.2925 -0.1631
51630SOL    HW163668   3.961   6.413   9.255 -0.5665 -0.9724 -1.4945
51630SOL    HW263669   3.990   6.339   9.384  0.5757  0.6964 -0.7580
51631SOL     OW63670   2.850   6.098   1.444 -0.3564 -0.2787 -0.2896
51631SOL    HW163671   2.876   6.105   1.536  1.3595  0.3203 -0.7828
51631SOL    HW263672   2.794   6.174   1.429 -0.5141 -0.2938  0.2110
51632SOL     OW63673   2.052   2.634   4.499  0.6015  0.6252 -0.2057
51632SOL    HW163674   1.968   2.616   4.542  1.1107 -0.7847  0.2612
51632SOL    HW263675   2.036   2.612   4.407  0.1835  1.3526 -0.3167
51633SOL     OW63676   3.065   5.147   9.951  0.0339  0.0407  0.0612
51633SOL    HW163677   3.128   5.216   9.931  0.6427 -0.5942 -0.2413
51633SOL    HW263678   3.039   5.112   9.865 -0.0823 -0.2708  0.2212
51634SOL     OW63679   8.302   3.797   1.486 -0.2465  0.0126 -0.2683
51634SOL    HW163680   8.239   3.782   1.557  2.6289 -1.0100  2.2839
51634SOL    HW263681   8.318   3.710   1.449  1.7762 -0.2973  1.1638
51635SOL     OW63682   0.975   5.582   9.738 -0.1721  0.0744 -0.6932
51635SOL    HW163683   0.954   5.630   9.658 -2.3110  1.0309  0.3496
51635SOL    HW263684   0.917   5.505   9.735  0.6439 -0.5544 -0.6380
51636SOL     OW63685   1.454   8.363   2.705  0.7030 -0.0566  0.4781
51636SOL    HW163686   1.454   8.288   2.764 -0.3459 -1.4105 -1.1221
51636SOL    HW263687   1.545   8.372   2.677  0.4673 -2.6183 -1.4697
51637SOL     OW63688   4.867   1.548   4.341  0.1683  0.5950 -0.3200
51637SOL    HW163689   4.861   1.457   4.370  0.9191  0.2678 -1.1437
51637SOL    HW263690   4.781   1.585   4.360 -1.2830 -1.1502 -2.8742
51638SOL     OW63691   3.624   2.180   6.002  0.5124 -0.0338  0.8117
51638SOL    HW163692   3.579   2.256   5.965 -0.3889 -1.1307 -0.4875
51638SOL    HW263693   3.716   2.203   6.000  0.4978  0.1166 -1.9941
51639SOL     OW63694   0.719   4.851  10.051 -0.4330 -0.2737 -0.4995
51639SOL    HW163695   0.788   4.910  10.022 -1.3304  0.1250 -1.9633
51639SOL    HW263696   0.661   4.906  10.104 -1.2794  0.2165 -1.8789
51640SOL     OW63697   8.403   6.392   5.737  0.3146 -0.0407  0.2242
51640SOL    HW163698   8.459   6.437   5.800 -1.1159 -1.5930  2.8067
51640SOL    HW263699   8.464   6.353   5.674  1.8927  0.9145  1.0874
51641SOL     OW63700   2.127   8.822   8.544  0.1461 -0.0635 -0.1225
51641SOL    HW163701   2.168   8.770   8.613  0.8217 -2.3805 -2.1423
51641SOL    HW263702   2.200   8.872   8.506  0.3868 -1.1002 -1.0748
51642SOL     OW63703   2.554   7.772  11.839 -0.5443  0.6689 -0.3513
51642SOL    HW163704   2.542   7.694  11.893 -0.3569  0.5666 -0.4555
51642SOL    HW263705   2.643   7.801  11.859 -0.1182  0.0787 -1.3102
51643SOL     OW63706   1.625   3.952   3.800  0.4284 -0.3045  0.2116
51643SOL    HW163707   1.651   3.861   3.813 -1.0843 -0.7918 -0.0287
51643SOL    HW263708   1.529   3.950   3.797  0.3486  1.3872  0.8230
51644SOL     OW63709   4.175   0.170   2.168 -0.3408 -0.6526  1.0204
51644SOL    HW163710   4.083   0.159   2.194 -1.4868  0.4581 -2.0307
51644SOL    HW263711   4.184   0.116   2.089  0.4364  2.0460 -0.9090
51645SOL     OW63712   7.730  11.902  12.015  0.6405 -0.2836 -0.0352
51645SOL    HW163713   7.735  11.881  11.921 -1.0790  1.1543 -0.5093
51645SOL    HW263714   7.704  11.819  12.056  0.3098 -0.6667 -0.9754
51646SOL     OW63715   4.471   3.732   5.546  0.3304 -0.0305 -1.0960
51646SOL    HW163716   4.443   3.812   5.591  1.3179  0.4110 -1.2166
51646SOL    HW263717   4.397   3.673   5.552 -0.4873  0.9595 -1.1409
51647SOL     OW63718  10.840   7.822   0.130 -0.6428 -0.5822  0.1618
51647SOL    HW163719  10.868   7.859   0.213 -2.0755 -1.2186  0.9619
51647SOL    HW263720  10.746   7.840   0.126 -0.9047 -1.9652 -0.5590
51648SOL     OW63721   2.779   6.099   9.135 -0.2490  0.3980 -0.1202
51648SOL    HW163722   2.712   6.035   9.110 -1.2359  0.6579  1.6743
51648SOL    HW263723   2.806   6.140   9.053 -0.1673 -1.7287 -1.2346
51649SOL     OW63724   6.149   3.331  12.305  0.4698  0.2393  0.4527
51649SOL    HW163725   6.168   3.376  12.222  0.7973 -1.4240 -0.4256
51649SOL    HW263726   6.163   3.397  12.372  0.5298  1.5466 -0.7936
51650SOL     OW63727  11.504   4.496  10.529 -0.0713 -0.1281  0.3707
51650SOL    HW163728  11.421   4.542  10.539 -0.5889 -0.8835 -0.2710
51650SOL    HW263729  11.562   4.559  10.487 -0.7017  0.0295 -0.2882
51651SOL     OW63730   7.171   3.001   0.016  0.4365 -0.0341 -0.3865
51651SOL    HW163731   7.126   3.053  -0.051  0.8039 -1.0962 -1.5032
51651SOL    HW263732   7.258   3.040   0.023 -0.2178  1.2701  0.8951
51652SOL     OW63733   7.928   4.394   7.509  0.1767  0.2535 -0.1407
51652SOL    HW163734   7.974   4.337   7.571  2.2256  1.7182 -0.2201
51652SOL    HW263735   7.889   4.463   7.562 -1.2081 -0.4680 -0.1732
51653SOL     OW63736   9.444   1.052   5.618  0.2777 -0.6825 -0.3903
51653SOL    HW163737   9.465   1.034   5.709  1.4609 -0.5352 -0.6193
51653SOL    HW263738   9.497   0.990   5.568  0.4931 -0.0271 -1.0009
51654SOL     OW63739   5.143   8.935   6.971  0.4714 -0.0268  0.2098
51654SOL    HW163740   5.089   9.012   6.960  1.2557  0.1891 -3.1993
51654SOL    HW263741   5.223   8.967   7.012 -0.3268  0.3609  1.5342
51655SOL     OW63742   8.038   5.714  10.186  0.3850 -0.1615 -0.0770
51655SOL    HW163743   8.121   5.693  10.143  1.0894 -1.4177  1.7639
51655SOL    HW263744   8.061   5.784  10.248 -0.3428  0.7353 -0.7890
51656SOL     OW63745   0.952   0.591   5.805  0.4699  0.3659  0.0514
51656SOL    HW163746   0.984   0.672   5.764  3.8883 -0.1623  1.3597
51656SOL    HW263747   0.932   0.617   5.895 -3.6418  0.7544 -0.7664
51657SOL     OW63748   5.605   7.946   8.872  0.1824  0.2353  0.1709
51657SOL    HW163749   5.592   8.018   8.934 -1.2401 -0.4803  0.7457
51657SOL    HW263750   5.548   7.969   8.798  1.2508  0.6719 -0.5541
51658SOL     OW63751   8.079   7.178  11.503  0.0219  0.0472 -0.0137
51658SOL    HW163752   8.083   7.087  11.532 -2.5995  0.0937  0.8161
51658SOL    HW263753   8.149   7.222  11.551 -0.2991 -1.0699  1.5665
51659SOL     OW63754  10.860   6.324   1.442  0.5828  0.6665  0.4727
51659SOL    HW163755  10.802   6.276   1.501  1.1244  0.4776  0.8626
51659SOL    HW263756  10.933   6.351   1.497 -0.3679  3.2120  0.5929
51660SOL     OW63757   6.657   6.638   6.386 -0.1258  0.1425 -0.0254
51660SOL    HW163758   6.729   6.589   6.347  0.2200  0.5600  0.0851
51660SOL    HW263759   6.656   6.721   6.339 -0.3375  0.2590  0.1830
51661SOL     OW63760   4.155   9.110   7.602  0.2137  0.2427 -0.0536
51661SOL    HW163761   4.078   9.122   7.658  0.5614 -1.0231  0.7155
51661SOL    HW263762   4.226   9.151   7.650  0.3941 -0.2954  0.1381
51662SOL     OW63763   0.800   0.785   3.208  0.0302  0.1839  0.6493
51662SOL    HW163764   0.819   0.714   3.148  1.6447  0.7136  0.4945
51662SOL    HW263765   0.752   0.744   3.281  2.9377 -1.5491  1.7257
51663SOL     OW63766   1.130   7.339   3.924 -0.5083 -0.2011  0.5981
51663SOL    HW163767   1.051   7.299   3.960 -1.7110 -0.1794 -1.8047
51663SOL    HW263768   1.162   7.277   3.859 -0.3268  1.1223 -0.6251
51664SOL     OW63769   9.333   6.942   3.086 -0.1390 -0.0712  0.2202
51664SOL    HW163770   9.414   6.976   3.126 -0.1062 -0.5147  0.5327
51664SOL    HW263771   9.361   6.904   3.003 -0.1049  0.2419  0.0874
51665SOL     OW63772   6.343   9.883  12.421  0.1873  0.7316  0.7952
51665SOL    HW163773   6.310   9.848  12.503  0.6661 -0.6911  0.3974
51665SOL    HW263774   6.272   9.869  12.358  0.7170 -0.3743  0.4294
51666SOL     OW63775   4.839  11.269  10.368 -0.7924 -0.1417  0.1624
51666SOL    HW163776   4.848  11.181  10.332  0.8131 -1.1255  2.7037
51666SOL    HW263777   4.747  11.276  10.393 -1.5922  0.0282 -2.5227
51667SOL     OW63778   0.665  11.620   9.504  0.5646  0.6126  0.0974
51667SOL    HW163779   0.607  11.606   9.579 -1.1585 -1.3318 -1.4704
51667SOL    HW263780   0.742  11.565   9.524 -0.3291 -0.7146  0.0377
51668SOL     OW63781   1.985   3.410  10.465  0.6631 -1.1126 -0.4567
51668SOL    HW163782   2.052   3.402  10.533 -1.1511  0.0328  1.6272
51668SOL    HW263783   1.937   3.327  10.468 -0.3727 -0.5177  0.8624
51669SOL     OW63784  10.793   3.125   8.910  0.4513 -0.0077 -0.0131
51669SOL    HW163785  10.709   3.166   8.929  1.1067  2.7194 -2.2929
51669SOL    HW263786  10.830   3.105   8.997 -2.4888 -1.3806  1.0290
51670SOL     OW63787   1.279   3.478   6.989  0.0579 -0.5750 -0.0105
51670SOL    HW163788   1.254   3.446   6.902  0.0824 -0.4193 -0.0766
51670SOL    HW263789   1.196   3.506   7.029 -0.0357 -1.2264  0.2606
51671SOL     OW63790   9.161  10.322   2.444  0.1327  0.5323 -0.1509
51671SOL    HW163791   9.155  10.417   2.435 -0.5105  0.6437  1.1433
51671SOL    HW263792   9.223  10.308   2.516 -1.0440  0.0717  0.8262
51672SOL     OW63793  11.547   3.607   9.197 -0.2560 -0.2440  0.4193
51672SOL    HW163794  11.623   3.579   9.146 -0.3619 -1.2707  0.8209
51672SOL    HW263795  11.473   3.598   9.137 -0.4847 -2.1283  0.9370
51673SOL     OW63796   0.820   3.758  10.509 -0.3414  0.1771  0.1655
51673SOL    HW163797   0.793   3.815  10.437 -0.9735  0.7736  0.8511
51673SOL    HW263798   0.865   3.817  10.570 -0.8492 -0.0946  0.8053
51674SOL     OW63799   2.255   0.036  12.462 -0.1199 -0.6279 -0.2601
51674SOL    HW163800   2.167   0.004  12.481 -0.1835  0.7318  2.1339
51674SOL    HW263801   2.250   0.130  12.474  1.5077 -0.4518 -0.7396
51675SOL     OW63802  10.969  12.240   9.039 -0.2794  0.2066  0.5077
51675SOL    HW163803  10.878  12.260   9.065 -0.8953 -0.6522 -0.8776
51675SOL    HW263804  11.011  12.326   9.033 -1.5388  0.7722 -0.6639
51676SOL     OW63805   4.962   5.443  12.232  0.2236  0.0685 -0.6511
51676SOL    HW163806   4.989   5.496  12.158  0.6750  1.0233  0.1801
51676SOL    HW263807   4.947   5.356  12.195  0.8096  0.4363 -1.7892
51677SOL     OW63808  10.374   2.638   2.301  0.2261 -0.3297  0.0964
51677SOL    HW163809  10.411   2.622   2.214 -1.5153  0.5080 -0.8436
51677SOL    HW263810  10.292   2.589   2.302 -0.4455  0.7550  0.7400
51678SOL     OW63811   2.770   2.119  11.909 -0.7868 -0.1059  0.1250
51678SOL    HW163812   2.834   2.114  11.981  0.0259  0.0710 -0.5709
51678SOL    HW263813   2.765   2.212  11.888 -1.0007 -0.1628 -0.0770
51679SOL     OW63814  12.279   7.392   0.973  0.1492 -0.3880  0.4352
51679SOL    HW163815  12.217   7.370   1.042  1.3699 -0.3546  1.5747
51679SOL    HW263816  12.319   7.474   1.001  1.3483 -0.8687  0.1708
51680SOL     OW63817   0.463   2.881   6.188 -0.0251  0.0475 -0.6215
51680SOL    HW163818   0.518   2.908   6.115  0.3508 -0.4674 -0.5408
51680SOL    HW263819   0.455   2.786   6.177 -2.0065  0.2517 -1.3913
51681SOL     OW63820  10.694   0.778   2.837 -0.2223  0.0127 -0.0678
51681SOL    HW163821  10.694   0.873   2.842  1.8351 -0.0228  1.8344
51681SOL    HW263822  10.674   0.748   2.925 -1.4767 -1.3664 -0.7641
51682SOL     OW63823   6.554   3.542   8.421  0.4060 -0.0145 -0.1279
51682SOL    HW163824   6.560   3.466   8.479 -1.0108 -0.3944 -0.4370
51682SOL    HW263825   6.505   3.606   8.472  0.7807  0.3462 -0.2195
51683SOL     OW63826   8.830  12.274   1.300 -0.4720 -0.1376 -0.0486
51683SOL    HW163827   8.766  12.202   1.299 -0.5220 -0.0889 -0.3452
51683SOL    HW263828   8.813  12.321   1.381  1.3715 -2.1036  1.6076
51684SOL     OW63829  10.990   1.999   1.617 -0.1112  0.6337  0.4264
51684SOL    HW163830  11.046   2.035   1.686 -1.1332  1.9049  0.6285
51684SOL    HW263831  10.950   1.922   1.656  2.9622 -1.5682 -0.3710
51685SOL     OW63832  10.817   0.579   4.501 -0.2809 -0.1224  0.5084
51685SOL    HW163833  10.772   0.538   4.575 -0.7611 -3.3356 -1.3418
51685SOL    HW263834  10.768   0.660   4.485 -1.9236 -0.7545  1.9837
51686SOL     OW63835   4.753   9.502   1.493 -0.1387 -0.5323 -0.7574
51686SOL    HW163836   4.751   9.446   1.570 -1.4975  1.5957  0.8858
51686SOL    HW263837   4.838   9.547   1.498 -0.1457 -0.5369 -0.6031
51687SOL     OW63838  11.633   3.245   8.390  0.1597  0.0666  0.0653
51687SOL    HW163839  11.575   3.279   8.322  0.7399  0.2216 -0.3673
51687SOL    HW263840  11.663   3.161   8.356 -0.2216 -0.2578  0.5263
51688SOL     OW63841   5.416   6.425   5.172 -0.4383 -0.3832 -0.3287
51688SOL    HW163842   5.375   6.441   5.088 -0.6986  0.0290 -0.1310
51688SOL    HW263843   5.374   6.346   5.206  1.0365 -1.7010 -1.4370
51689SOL     OW63844   8.746  10.855   6.132  0.0426  0.3177  0.1822
51689SOL    HW163845   8.708  10.926   6.080  0.4880 -1.0151 -2.1241
51689SOL    HW263846   8.832  10.887   6.159  0.7048  0.3143 -1.7754
51690SOL     OW63847  12.044  10.598   8.232 -0.3989  0.0730 -0.0651
51690SOL    HW163848  12.098  10.556   8.165 -3.3012 -2.4321 -1.0987
51690SOL    HW263849  12.010  10.677   8.189  0.6787  0.5269 -0.1287
51691SOL     OW63850   3.443   5.777   5.946 -0.2143  0.0750  0.1819
51691SOL    HW163851   3.423   5.796   6.037  1.0978 -0.4996  0.6048
51691SOL    HW263852   3.489   5.855   5.914 -0.7118  0.2941 -0.0106
51692SOL     OW63853   0.939   7.004   4.141 -0.2276  0.2725  0.0797
51692SOL    HW163854   0.863   6.970   4.094 -1.1419  1.2845  0.7745
51692SOL    HW263855   0.954   6.942   4.212 -0.1136 -0.1590 -0.3107
51693SOL     OW63856   9.469  11.771   2.491 -0.1260  0.6008 -0.9295
51693SOL    HW163857   9.554  11.727   2.498 -0.7775 -0.5854 -0.0668
51693SOL    HW263858   9.463  11.798   2.400  0.6890 -0.3426 -1.2862
51694SOL     OW63859   6.343   7.004   8.635  0.9717 -0.5488  0.3643
51694SOL    HW163860   6.300   7.082   8.670  0.3907 -1.3889  1.6049
51694SOL    HW263861   6.299   6.988   8.552  0.7217  0.1366  0.3594
51695SOL     OW63862  11.893   9.187   5.914  0.0148 -0.8890 -0.0995
51695SOL    HW163863  11.849   9.219   5.993  0.3246 -0.9353  0.0906
51695SOL    HW263864  11.869   9.094   5.910 -1.0766 -0.5926 -0.7793
51696SOL     OW63865   4.393   1.625  12.440 -0.1227  0.4208 -0.4796
51696SOL    HW163866   4.425   1.682  12.511  0.7292 -1.4541  0.7290
51696SOL    HW263867   4.464   1.625  12.376  1.5644 -2.0397  1.2101
51697SOL     OW63868   2.135   7.627   9.581 -0.1401 -0.2145  0.3860
51697SOL    HW163869   2.093   7.542   9.585 -2.9366  0.8501 -2.3849
51697SOL    HW263870   2.193   7.622   9.505  1.6104 -0.3334  1.6714
51698SOL     OW63871   3.838  11.003   9.680  0.5121 -0.0871  0.2040
51698SOL    HW163872   3.789  11.061   9.622  0.1823 -0.1577  0.4082
51698SOL    HW263873   3.832  10.917   9.637  2.3499  0.2970 -0.9413
51699SOL     OW63874  12.019   8.314   0.523 -0.1499  0.3538  0.0860
51699SOL    HW163875  11.962   8.237   0.532  1.7790 -1.2635 -0.7917
51699SOL    HW263876  12.048   8.333   0.612 -0.6162  0.0749  0.3068
51700SOL     OW63877   6.108   0.941   5.340  1.0118  0.1754 -0.4155
51700SOL    HW163878   6.127   0.891   5.420  0.0714  0.5026  0.0242
51700SOL    HW263879   6.164   0.901   5.273  1.1620 -0.6770  0.2005
51701SOL     OW63880  11.929  12.603   7.326 -0.3143 -1.1572 -0.3448
51701SOL    HW163881  11.864  12.629   7.392  0.5028 -0.6739  0.2810
51701SOL    HW263882  11.901  12.647   7.246 -0.1689 -0.0815  0.1841
51702SOL     OW63883   5.964  12.593   7.855 -0.1866 -0.9550  0.4543
51702SOL    HW163884   5.876  12.556   7.847 -0.0299 -1.3280  0.4606
51702SOL    HW263885   6.011  12.561   7.778  0.3084 -1.7624  1.0870
51703SOL     OW63886   5.419   3.759  12.551 -0.5474 -0.0742  0.0439
51703SOL    HW163887   5.505   3.759  12.509 -0.1399 -0.4886  0.8516
51703SOL    HW263888   5.368   3.697  12.499 -0.0818 -0.5076  0.0851
51704SOL     OW63889   1.084   7.520   8.335 -0.0508  0.2824 -0.1040
51704SOL    HW163890   1.130   7.460   8.394 -1.5690 -2.1303 -1.2637
51704SOL    HW263891   1.065   7.597   8.390  1.2460 -0.5875  1.6590
51705SOL     OW63892   8.302  12.609   4.851  0.3103 -0.3439 -0.1057
51705SOL    HW163893   8.269  12.555   4.779  1.5530 -1.1310 -0.1154
51705SOL    HW263894   8.235  12.676   4.864  0.1972  0.0155 -2.2043
51706SOL     OW63895   4.488   2.352   1.579 -0.1597  0.3701 -0.3924
51706SOL    HW163896   4.429   2.425   1.602  0.1403  0.9696 -1.4407
51706SOL    HW263897   4.488   2.351   1.483  0.8034 -0.2364 -0.3962
51707SOL     OW63898  11.358  12.529   4.473  0.2566 -0.1807 -0.3451
51707SOL    HW163899  11.329  12.437   4.470  3.0223 -1.1586  0.1067
51707SOL    HW263900  11.419  12.537   4.399 -0.2330  1.4540 -0.6155
51708SOL     OW63901  11.539   8.185   1.471 -0.1672  0.4605 -0.0194
51708SOL    HW163902  11.471   8.180   1.404 -0.1421 -1.4050  0.0533
51708SOL    HW263903  11.491   8.205   1.552 -0.7451 -1.2248  0.1037
51709SOL     OW63904  10.135   3.702   9.169  0.0144  0.0922 -0.3120
51709SOL    HW163905  10.163   3.611   9.179 -0.8546 -0.0914  0.6129
51709SOL    HW263906  10.212   3.753   9.191  0.5594 -0.4121 -1.0039
51710SOL     OW63907  10.338  10.166  10.290 -0.3866  0.1240 -0.3708
51710SOL    HW163908  10.244  10.147  10.283 -0.2893 -0.7931  0.5469
51710SOL    HW263909  10.374  10.090  10.336  0.3640  1.6542  1.7056
51711SOL     OW63910   3.200   3.114  10.211  0.5940  0.3961  0.2500
51711SOL    HW163911   3.260   3.159  10.151  0.9414  0.2788  0.5053
51711SOL    HW263912   3.113   3.139  10.182  0.7614  0.3300 -0.3129
51712SOL     OW63913   4.344   6.922   9.379  0.1819  0.2729 -0.4806
51712SOL    HW163914   4.261   6.965   9.358  1.0428  3.1654  1.4535
51712SOL    HW263915   4.377   6.891   9.294 -2.8038 -1.0854 -1.3139
51713SOL     OW63916   9.505   5.126  10.407 -0.2850  0.1955 -0.5813
51713SOL    HW163917   9.590   5.153  10.372 -0.6303 -0.2185 -1.7915
51713SOL    HW263918   9.442   5.183  10.364 -0.6718  0.1498 -0.0841
51714SOL     OW63919   5.641  10.530   3.124  0.1774  0.3376  0.0577
51714SOL    HW163920   5.721  10.480   3.143 -0.0121 -0.1549 -0.4216
51714SOL    HW263921   5.576  10.495   3.184  0.7117  1.8612  1.6234
51715SOL     OW63922   4.386  10.953   2.212 -0.0816 -0.2711  0.0832
51715SOL    HW163923   4.477  10.982   2.206 -0.8394  2.1168 -1.0092
51715SOL    HW263924   4.334  11.032   2.199 -2.3425 -1.7427 -0.5056
51716SOL     OW63925  11.817   3.600   0.241 -0.6447 -0.1178 -0.3136
51716SOL    HW163926  11.768   3.528   0.201 -0.6099 -0.2330 -0.1541
51716SOL    HW263927  11.816   3.670   0.176 -2.1805  0.3796  0.2161
51717SOL     OW63928   9.211  11.577   6.185 -0.0603 -0.4160 -0.2312
51717SOL    HW163929   9.266  11.655   6.193 -1.5164  0.5995  0.5188
51717SOL    HW263930   9.226  11.528   6.266  0.8741 -0.9545 -0.7132
51718SOL     OW63931   6.250   1.148   3.553 -0.5167 -0.0930  0.3231
51718SOL    HW163932   6.325   1.143   3.493  0.5161 -0.6373  1.6244
51718SOL    HW263933   6.264   1.230   3.601 -0.4983 -0.4433  0.9113
51719SOL     OW63934   5.633  11.941   0.730  0.4610  0.7370  0.1879
51719SOL    HW163935   5.632  11.860   0.680 -0.1051  0.8765 -0.0254
51719SOL    HW263936   5.726  11.966   0.732  0.4083  1.1778 -1.5107
51720SOL     OW63937   8.161  12.270   9.836  0.0013  0.2603 -0.2868
51720SOL    HW163938   8.226  12.238   9.775  0.4747  1.7341 -0.5774
51720SOL    HW263939   8.193  12.243   9.922 -0.9404 -2.2989 -0.6447
51721SOL     OW63940  11.866  10.216   5.739 -0.2434  0.1441  0.0022
51721SOL    HW163941  11.820  10.281   5.792 -0.3700 -0.3878  0.5463
51721SOL    HW263942  11.959  10.239   5.749 -0.3691  1.3335 -1.2521
51722SOL     OW63943  11.292  11.699  10.873  0.2796 -0.0798 -0.0700
51722SOL    HW163944  11.300  11.604  10.869 -0.2054 -0.1369  0.2643
51722SOL    HW263945  11.233  11.721  10.801 -1.6097 -0.2854  1.3479
51723SOL     OW63946   4.935   3.645   2.238  0.2830  0.2503 -0.3991
51723SOL    HW163947   4.899   3.624   2.152  0.2935  0.3571 -0.4289
51723SOL    HW263948   4.959   3.560   2.275 -0.8913  0.0804  0.0201
51724SOL     OW63949   7.675   5.576   9.071  0.6498  0.0640 -0.2164
51724SOL    HW163950   7.662   5.493   9.024 -0.8239  0.8454 -1.2750
51724SOL    HW263951   7.742   5.622   9.020  1.1229 -0.2777  0.0965
51725SOL     OW63952   2.547   6.136  11.945 -0.9919  0.2589  0.0059
51725SOL    HW163953   2.523   6.094  11.863 -0.0046  0.0913 -0.2141
51725SOL    HW263954   2.540   6.230  11.927  0.2536  0.2468 -0.6116
51726SOL     OW63955   4.950   8.348   6.511  0.4136  0.1070  0.6720
51726SOL    HW163956   4.881   8.375   6.571  2.6179  0.4453  3.2608
51726SOL    HW263957   4.951   8.252   6.518 -0.3904  0.0336 -0.1220
51727SOL     OW63958   1.486  10.217   9.830 -0.4323 -0.5264  0.0153
51727SOL    HW163959   1.521  10.295   9.874 -1.0092  0.4405 -1.1714
51727SOL    HW263960   1.425  10.252   9.766  1.2193 -1.7759 -2.3734
51728SOL     OW63961   7.883   6.002   2.548 -0.1917 -0.2075  0.1798
51728SOL    HW163962   7.799   5.989   2.504 -0.5937  0.0098  0.8760
51728SOL    HW263963   7.861   6.008   2.641  0.3787  1.7262  0.2242
51729SOL     OW63964   2.105   0.617   1.569  0.2832  0.4082 -0.4344
51729SOL    HW163965   2.098   0.648   1.479  1.8142 -1.1428 -1.1468
51729SOL    HW263966   2.159   0.683   1.613  1.4090  0.0610 -1.2619
51730SOL     OW63967   4.036  10.219   0.842 -0.2540 -0.5191 -0.3622
51730SOL    HW163968   4.010  10.139   0.887 -3.0042 -0.4554 -1.6217
51730SOL    HW263969   3.976  10.286   0.874  1.2755  0.8233 -0.1647
51731SOL     OW63970   4.549   5.861   2.279  0.4677  0.1582  0.0717
51731SOL    HW163971   4.508   5.898   2.358  2.3822  0.5633  0.9558
51731SOL    HW263972   4.504   5.904   2.206 -0.7136  0.4943  0.9686
51732SOL     OW63973   4.244   7.010   6.841 -0.0261  0.0031  0.4274
51732SOL    HW163974   4.172   6.970   6.889 -1.5375 -1.6096 -2.8520
51732SOL    HW263975   4.298   7.052   6.909 -3.1628 -0.0128  3.1841
51733SOL     OW63976   0.253   1.332   3.247 -0.4897 -0.1574 -0.4216
51733SOL    HW163977   0.298   1.391   3.307 -1.6850 -1.7908  2.2948
51733SOL    HW263978   0.307   1.252   3.249 -1.2274 -0.6612 -0.5107
51734SOL     OW63979   5.539  11.567   3.494 -0.3344  0.1339  0.3200
51734SOL    HW163980   5.544  11.487   3.441 -0.7983  0.0215  0.4425
51734SOL    HW263981   5.471  11.620   3.451 -0.3301  0.2762  0.4895
51735SOL     OW63982   7.472   7.856   1.708  0.3532 -0.1146  0.0537
51735SOL    HW163983   7.431   7.817   1.785 -1.1961  1.0417 -0.1174
51735SOL    HW263984   7.553   7.895   1.741 -1.3046  2.2968  1.6952
51736SOL     OW63985   0.577   2.955  12.495  0.4717  0.6989 -0.1672
51736SOL    HW163986   0.522   2.987  12.566  0.2036 -1.7816  0.8452
51736SOL    HW263987   0.619   2.876  12.530 -0.4896 -1.2770 -3.0260
51737SOL     OW63988   9.705   7.970   0.912  0.1391 -0.3394  0.1757
51737SOL    HW163989   9.642   7.899   0.929 -0.9001  0.4859 -0.1377
51737SOL    HW263990   9.752   7.980   0.995 -0.3633 -0.7543  0.5202
51738SOL     OW63991   7.698   2.612   4.147  0.0166 -0.0810 -0.1911
51738SOL    HW163992   7.673   2.552   4.217  1.0057  0.4278  0.6286
51738SOL    HW263993   7.638   2.687   4.158 -1.8830 -1.2552 -1.8220
51739SOL     OW63994   0.921   7.656   3.589  0.2430  0.0795  0.1666
51739SOL    HW163995   0.866   7.669   3.667  1.9835 -0.4958  1.5753
51739SOL    HW263996   0.913   7.563   3.570  1.7426 -0.3201  1.2633
51740SOL     OW63997   9.373  10.950   0.190 -0.3931  0.2727 -0.4292
51740SOL    HW163998   9.320  10.926   0.266 -1.8393  0.2792 -1.4136
51740SOL    HW263999   9.462  10.960   0.226 -1.2384  1.4994  1.4996
51741SOL     OW64000   8.455   8.255   0.710 -0.4840  0.1350 -0.1349
51741SOL    HW164001   8.363   8.255   0.685 -0.6170 -0.1105  0.3454
51741SOL    HW264002   8.456   8.220   0.799  0.0393  0.4813 -0.0013
51742SOL     OW64003   3.288   4.617   9.199 -0.4130 -0.0774 -1.0122
51742SOL    HW164004   3.330   4.703   9.199 -1.5073  0.7474  3.5565
51742SOL    HW264005   3.215   4.626   9.138  0.2087  1.8502 -1.5434
51743SOL     OW64006  11.882   7.697   2.113  0.1208  0.4354 -0.1889
51743SOL    HW164007  11.815   7.643   2.154 -1.5741  0.8553 -2.2620
51743SOL    HW264008  11.912   7.646   2.038  1.8726  0.4455  0.4518
51744SOL     OW64009   7.952   3.394   7.601  0.8111  0.1617  0.1335
51744SOL    HW164010   7.930   3.443   7.680  0.4027 -0.2238  0.2617
51744SOL    HW264011   7.884   3.418   7.538  0.2385 -0.7074  0.3974
51745SOL     OW64012   1.404   1.922   3.796  0.2352  0.3659  0.0274
51745SOL    HW164013   1.348   1.906   3.720  0.5335  1.2659 -0.3938
51745SOL    HW264014   1.343   1.934   3.869 -0.0409 -1.1378  0.0827
51746SOL     OW64015   2.846   7.180  11.461  0.0406 -0.2798  0.1910
51746SOL    HW164016   2.854   7.246  11.530 -1.3324 -0.4683  0.5431
51746SOL    HW264017   2.856   7.097  11.506 -1.6614 -0.4382  0.3136
51747SOL     OW64018   0.964   2.439   3.909 -0.2745 -0.5578 -0.0398
51747SOL    HW164019   0.951   2.526   3.871  2.5042 -0.3569 -0.7210
51747SOL    HW264020   0.962   2.380   3.834  0.8777 -0.6986  0.0314
51748SOL     OW64021   3.323   8.523   0.565  0.1814  0.2950 -0.0369
51748SOL    HW164022   3.391   8.532   0.498  0.0674 -0.6850 -0.3012
51748SOL    HW264023   3.328   8.604   0.615  0.9751  0.5971 -0.5787
51749SOL     OW64024   3.567   2.656   8.121  0.0334 -0.2487  0.1705
51749SOL    HW164025   3.637   2.600   8.088 -0.1196 -0.8534  0.8502
51749SOL    HW264026   3.613   2.723   8.172  0.2917  0.8563 -1.4390
51750SOL     OW64027   5.302   3.551   7.193  0.0546  0.3919  0.1187
51750SOL    HW164028   5.235   3.484   7.208  0.0682  0.2753 -0.3363
51750SOL    HW264029   5.286   3.581   7.104  0.4958  0.4927  0.0729
51751SOL     OW64030   7.940   6.312   7.179  0.2547  0.5049  0.1426
51751SOL    HW164031   7.926   6.302   7.273 -0.1706  0.6336  0.0939
51751SOL    HW264032   7.991   6.234   7.154  0.6372  0.6252  0.5300
51752SOL     OW64033  10.846  10.403   2.180  0.1251  0.0504  0.0255
51752SOL    HW164034  10.878  10.411   2.270 -0.2044 -0.8862  0.2405
51752SOL    HW264035  10.768  10.458   2.177  0.6817  0.8485  0.0370
51753SOL     OW64036   5.858   6.379  11.307 -0.0596 -0.0855 -0.5650
51753SOL    HW164037   5.923   6.330  11.358  0.7139  0.1637 -1.2838
51753SOL    HW264038   5.906   6.407  11.229 -1.1119 -0.1196 -1.2396
51754SOL     OW64039   3.534  12.608   5.801 -0.3379  0.2326 -0.2556
51754SOL    HW164040   3.549  12.677   5.866  3.4617 -0.4764 -0.2022
51754SOL    HW264041   3.575  12.530   5.837 -3.3418 -1.8636 -0.9332
51755SOL     OW64042   4.112   7.591   2.077 -0.7415 -0.7084 -0.1220
51755SOL    HW164043   4.046   7.619   2.140  1.1142  1.1130  1.1358
51755SOL    HW264044   4.146   7.672   2.040  1.2661 -1.5117 -0.1837
51756SOL     OW64045   7.009   2.481   3.381 -0.1885  0.4506 -0.3607
51756SOL    HW164046   6.939   2.426   3.348  0.2599 -0.7243  0.5822
51756SOL    HW264047   6.996   2.565   3.337 -1.5815 -0.0413 -0.9449
51757SOL     OW64048   2.146   9.397   1.692 -0.2129  0.1051  0.3237
51757SOL    HW164049   2.132   9.359   1.779  0.8380  0.5681  0.7206
51757SOL    HW264050   2.180   9.485   1.710  0.2033  0.1343 -0.5600
51758SOL     OW64051   8.435   8.629   8.730  0.4689 -0.4133 -0.0740
51758SOL    HW164052   8.486   8.706   8.758 -0.9889 -0.0422  1.6995
51758SOL    HW264053   8.373   8.614   8.801 -1.3836 -1.3394 -1.7975
51759SOL     OW64054   0.277   0.842   5.272 -0.7171  0.2667  0.5469
51759SOL    HW164055   0.193   0.805   5.301 -0.5633 -1.4123 -0.9562
51759SOL    HW264056   0.257   0.882   5.188 -0.3025  1.2558  0.9104
51760SOL     OW64057   2.048   3.222  11.117 -0.6010  0.2032  0.0920
51760SOL    HW164058   2.126   3.241  11.066 -1.6333 -0.0309 -1.6547
51760SOL    HW264059   2.024   3.133  11.093 -2.7611  1.0926 -1.3568
51761SOL     OW64060   5.563  11.058   6.581  0.1160 -0.4388  0.3229
51761SOL    HW164061   5.647  11.100   6.563  0.4471 -1.9672 -2.3247
51761SOL    HW264062   5.498  11.120   6.549  0.1276  0.8767  2.6483
51762SOL     OW64063   5.913  10.211   0.384 -0.3317  0.7884  0.1030
51762SOL    HW164064   5.897  10.119   0.365 -0.7378  1.0762 -0.9788
51762SOL    HW264065   6.004  10.214   0.415  1.0332  0.4934 -3.4705
51763SOL     OW64066   4.203  10.701   7.013 -0.0071 -0.5335 -0.0616
51763SOL    HW164067   4.172  10.708   6.923  0.8552  1.0788 -0.2639
51763SOL    HW264068   4.143  10.638   7.054 -2.0198  0.6030 -1.0926
51764SOL     OW64069   1.960   5.671   6.860 -0.2995 -0.0394 -0.1275
51764SOL    HW164070   1.972   5.645   6.769  0.8389 -1.6520  0.4454
51764SOL    HW264071   1.983   5.594   6.911 -1.7857  0.5288  1.5287
51765SOL     OW64072   5.779   6.859   5.931  0.7462  0.0213 -0.5739
51765SOL    HW164073   5.731   6.939   5.951  1.5782  0.7257 -1.2921
51765SOL    HW264074   5.734   6.790   5.981 -1.2517  0.5600 -1.5484
51766SOL     OW64075   4.480   5.591   7.418 -0.1637  0.3177  0.1612
51766SOL    HW164076   4.534   5.532   7.365 -2.6229 -2.3900  0.3862
51766SOL    HW264077   4.452   5.659   7.357 -0.4022 -0.9853 -1.2757
51767SOL     OW64078   3.088   0.416  10.268  0.3069 -1.2579 -0.0949
51767SOL    HW164079   3.113   0.406  10.360  0.2901 -0.3483  0.0123
51767SOL    HW264080   3.072   0.326  10.238 -1.6679 -1.4517  1.3343
51768SOL     OW64081  12.454   4.579   5.354  0.3967  0.0470 -0.4384
51768SOL    HW164082  12.468   4.489   5.383  1.0345 -0.1707 -1.3903
51768SOL    HW264083  12.497   4.584   5.269  0.1631  1.1900 -0.5048
51769SOL     OW64084  11.229   1.452  11.579 -0.0157 -0.4620  0.3994
51769SOL    HW164085  11.154   1.435  11.522 -0.9944 -0.4560  1.6393
51769SOL    HW264086  11.301   1.470  11.519 -1.0159 -0.3907 -0.8258
51770SOL     OW64087   9.396  10.772   6.584  0.2836  0.1680  0.6958
51770SOL    HW164088   9.310  10.809   6.568  0.9464  1.3720 -0.2423
51770SOL    HW264089   9.431  10.752   6.497  0.5208 -1.3481  1.1159
51771SOL     OW64090   4.830   6.764  10.559  0.1284 -0.7702 -0.7400
51771SOL    HW164091   4.782   6.789  10.480  0.7628 -2.2257 -1.6034
51771SOL    HW264092   4.871   6.846  10.589 -1.9980  0.3014 -0.5545
51772SOL     OW64093   9.091  12.136  10.039  0.1607  0.3800 -0.7984
51772SOL    HW164094   9.166  12.171  10.086  0.5679 -0.3299 -0.9060
51772SOL    HW264095   9.124  12.119   9.951  0.2350 -1.0967 -0.5131
51773SOL     OW64096   4.992   2.600   2.793 -0.1830  0.3694  0.5756
51773SOL    HW164097   5.047   2.522   2.781 -0.9621 -0.0794 -0.2065
51773SOL    HW264098   5.025   2.662   2.728 -1.4729 -0.4130 -0.8864
51774SOL     OW64099  12.021   9.937   4.298  0.1868  0.0417  0.4703
51774SOL    HW164100  11.983  10.023   4.277  0.5744  0.5261  1.6640
51774SOL    HW264101  12.115   9.950   4.291  0.2634 -0.1742  1.0246
51775SOL     OW64102   7.155  12.289   5.304 -0.0741 -0.3431 -0.0365
51775SOL    HW164103   7.235  12.307   5.352  0.5395 -1.5621 -0.5491
51775SOL    HW264104   7.084  12.320   5.361  0.6901 -0.5544  1.0476
51776SOL     OW64105   9.435   4.612   2.363 -0.4146 -0.4619 -0.4805
51776SOL    HW164106   9.394   4.679   2.418  0.4400 -0.0205 -0.3713
51776SOL    HW264107   9.500   4.571   2.419 -0.3654 -0.8366 -0.8038
51777SOL     OW64108   3.137   7.545   0.208  0.0638  0.3475  0.6952
51777SOL    HW164109   3.119   7.526   0.300 -3.6477 -0.3232  0.0192
51777SOL    HW264110   3.137   7.640   0.202  1.2709  0.4096  1.5075
51778SOL     OW64111   9.989   5.903   2.160 -0.3314  0.5528  0.3283
51778SOL    HW164112   9.980   5.903   2.255  1.0387 -0.4849  0.4870
51778SOL    HW264113   9.973   5.813   2.134 -0.2399  0.7331 -0.3783
51779SOL     OW64114   6.465   6.295   5.602 -0.3294  0.1359 -0.5505
51779SOL    HW164115   6.461   6.317   5.696 -0.7177  1.2508 -0.8090
51779SOL    HW264116   6.559   6.287   5.583 -0.2621 -2.8609  0.4982
51780SOL     OW64117   9.667   2.289  11.554  0.3099  0.7957  0.7107
51780SOL    HW164118   9.745   2.336  11.584 -0.7669  1.3344  2.8645
51780SOL    HW264119   9.650   2.225  11.624  0.1304 -0.9345 -0.8442
51781SOL     OW64120  10.123   8.763   0.094 -0.5935  0.1348  0.1223
51781SOL    HW164121  10.198   8.750   0.036 -0.7441 -2.4398  0.3677
51781SOL    HW264122  10.048   8.766   0.035 -0.4292  1.9001 -0.0608
51782SOL     OW64123   6.479   1.359   1.529 -0.6451  0.0816 -0.0140
51782SOL    HW164124   6.451   1.276   1.490 -1.1155  0.4298 -0.4338
51782SOL    HW264125   6.443   1.357   1.618  1.0566 -1.0412  0.7068
51783SOL     OW64126   1.100   4.514  11.902 -0.1371 -0.2163  0.2623
51783SOL    HW164127   1.053   4.475  11.976 -0.5671 -0.2401 -0.0221
51783SOL    HW264128   1.138   4.440  11.856  0.9696 -0.1428  1.0091
51784SOL     OW64129   8.240   1.556   5.212  0.4654  0.0232 -0.2867
51784SOL    HW164130   8.306   1.625   5.214  0.6041 -0.0614 -1.3211
51784SOL    HW264131   8.286   1.477   5.241  0.6379  0.1088 -0.3272
51785SOL     OW64132   1.795  11.017   5.692 -0.0844 -0.3411 -0.0098
51785SOL    HW164133   1.870  10.962   5.717 -0.7837 -1.8490 -1.0682
51785SOL    HW264134   1.740  10.960   5.638 -0.6773  1.5320 -1.4960
51786SOL     OW64135   3.290  12.369   8.340  0.0151  0.2603  0.6278
51786SOL    HW164136   3.299  12.275   8.324 -1.0328 -0.0132  1.4867
51786SOL    HW264137   3.360  12.410   8.289 -0.2072 -0.8979 -0.6459
51787SOL     OW64138   1.684   2.494   5.540  0.2846  0.0082 -0.5938
51787SOL    HW164139   1.703   2.415   5.590  0.5098  0.4743  0.0727
51787SOL    HW264140   1.657   2.559   5.606  1.3418  0.8612 -0.9713
51788SOL     OW64141   8.782   5.753   6.381  0.6618  0.3523  0.1002
51788SOL    HW164142   8.832   5.769   6.301  0.0336 -0.6639 -0.5061
51788SOL    HW264143   8.698   5.720   6.351  0.3025  0.2610  1.1708
51789SOL     OW64144   6.969   7.825  11.121 -0.2828  0.3337 -0.4152
51789SOL    HW164145   6.911   7.859  11.189 -0.0755 -0.5240  0.2056
51789SOL    HW264146   7.052   7.808  11.166 -0.5088 -1.3882 -0.5744
51790SOL     OW64147  11.695  12.447  10.281 -0.2035  0.2764  0.0894
51790SOL    HW164148  11.687  12.405  10.367 -1.2901 -1.4838 -0.8114
51790SOL    HW264149  11.629  12.404  10.227  0.9849  0.7688 -1.8602
51791SOL     OW64150  11.857   3.202   9.824  0.1346 -0.1978 -0.1130
51791SOL    HW164151  11.783   3.260   9.806 -0.4101 -0.4187  1.3019
51791SOL    HW264152  11.930   3.261   9.844  0.4911  0.0281 -1.9240
51792SOL     OW64153   3.365   0.663   2.268  0.1069 -0.0350 -0.1437
51792SOL    HW164154   3.362   0.706   2.353  0.4203  0.9202 -0.6066
51792SOL    HW264155   3.277   0.624   2.258  0.2373 -0.6125  0.8250
51793SOL     OW64156   5.465   8.467   1.522 -0.1708 -0.3619 -0.2886
51793SOL    HW164157   5.421   8.477   1.606 -1.3941  1.2192 -1.0587
51793SOL    HW264158   5.557   8.455   1.544 -0.2875  1.2006  1.2658
51794SOL     OW64159   0.407   4.953   4.354  0.0819 -0.1026  0.1832
51794SOL    HW164160   0.465   4.924   4.424 -0.0515 -0.0859  0.3010
51794SOL    HW264161   0.319   4.945   4.391 -0.0912 -1.4664 -0.4634
51795SOL     OW64162   9.813  12.020   5.620 -0.2232  0.2075 -0.1683
51795SOL    HW164163   9.767  12.097   5.655 -0.3842  0.9819 -1.9893
51795SOL    HW264164   9.905  12.036   5.639 -0.3067  0.6119 -0.0932
51796SOL     OW64165   0.122   3.538   7.348 -0.1219 -0.6761  0.5710
51796SOL    HW164166   0.067   3.589   7.407 -2.0431 -1.2791 -0.6310
51796SOL    HW264167   0.197   3.512   7.403 -0.8816  0.3692  2.1895
51797SOL     OW64168  11.336   4.710   7.980  0.4105  0.2553  0.2851
51797SOL    HW164169  11.270   4.647   7.952  0.1173  0.8648 -0.4344
51797SOL    HW264170  11.412   4.657   8.003  0.5369 -0.3111 -1.3463
51798SOL     OW64171   3.388   9.194   9.484 -0.6579 -0.5824  0.0941
51798SOL    HW164172   3.297   9.202   9.513 -0.5148 -0.8185  0.6214
51798SOL    HW264173   3.431   9.273   9.517 -0.5490 -0.7374  0.3263
51799SOL     OW64174  10.927   6.001   1.839 -0.0217 -0.1304  0.2185
51799SOL    HW164175  11.015   6.035   1.858 -0.3982  0.1612  1.5805
51799SOL    HW264176  10.942   5.920   1.792  0.9945 -0.2798  0.7667
51800SOL     OW64177   2.543  11.435   2.761  0.0664  0.2874  0.4875
51800SOL    HW164178   2.553  11.400   2.673 -1.2857  0.9098  0.0568
51800SOL    HW264179   2.481  11.375   2.803  0.4066  0.2149  0.8889
51801SOL     OW64180   2.841  11.721   4.022  0.5827  0.3513 -0.4505
51801SOL    HW164181   2.874  11.787   3.961  0.7537 -1.0437 -1.9368
51801SOL    HW264182   2.813  11.648   3.966 -1.9520  0.1316  0.9429
51802SOL     OW64183   8.414   3.127  12.437  0.1882 -0.2058 -0.4571
51802SOL    HW164184   8.504   3.102  12.458 -0.6976 -0.1403  4.6384
51802SOL    HW264185   8.414   3.222  12.442 -0.2773 -0.2389  0.2353
51803SOL     OW64186   9.873   1.880   0.661  0.1697  0.6824  0.1757
51803SOL    HW164187   9.813   1.821   0.707 -0.5367  0.3883 -1.0772
51803SOL    HW264188   9.923   1.822   0.603  1.8231  0.8989  1.3056
51804SOL     OW64189  10.178  12.517   5.851 -0.4905 -0.0673 -0.2168
51804SOL    HW164190  10.165  12.511   5.946 -2.6807 -0.9199 -0.5046
51804SOL    HW264191  10.215  12.433   5.826 -0.0135  0.1182 -0.1439
51805SOL     OW64192   1.654   7.292   3.249 -0.4859  0.6683 -0.4457
51805SOL    HW164193   1.583   7.243   3.207 -0.8739  0.3024  0.6076
51805SOL    HW264194   1.632   7.291   3.342  1.6385 -0.7062  0.1181
51806SOL     OW64195   7.780   4.263   9.851  0.7376 -0.3605  0.0901
51806SOL    HW164196   7.693   4.293   9.826  1.4606  0.5703 -1.4681
51806SOL    HW264197   7.769   4.229   9.940 -0.6554  2.4295  1.1312
51807SOL     OW64198  10.647  11.496  11.808 -0.2180 -0.1978  0.0981
51807SOL    HW164199  10.661  11.579  11.854 -2.6064  1.3010 -1.6541
51807SOL    HW264200  10.605  11.440  11.873  0.4139  0.3254  0.9832
51808SOL     OW64201   6.049  12.467   3.966 -0.0912  0.5321  0.3275
51808SOL    HW164202   6.025  12.544   3.913  0.0912  0.5380  0.2534
51808SOL    HW264203   6.085  12.504   4.046 -0.9340  0.5252  0.7209
51809SOL     OW64204   2.688   0.442   3.646  0.1648 -0.5689 -0.4327
51809SOL    HW164205   2.691   0.443   3.550 -1.0956  1.7565 -0.5359
51809SOL    HW264206   2.779   0.445   3.673  0.5134  0.6480 -1.6254
51810SOL     OW64207  11.559   2.700   1.343  0.1532  0.8202 -0.1074
51810SOL    HW164208  11.630   2.679   1.282 -0.9090  1.0034 -1.4384
51810SOL    HW264209  11.562   2.795   1.352  0.0953  0.8249 -0.1375
51811SOL     OW64210   7.185   7.249   8.021 -0.0259 -0.3145  0.0678
51811SOL    HW164211   7.138   7.249   8.104  0.1004  0.5581  0.1406
51811SOL    HW264212   7.273   7.219   8.043 -0.2575 -1.0039  0.0864
51812SOL     OW64213   5.251  10.302   0.389 -0.2544  0.0865 -0.5333
51812SOL    HW164214   5.227  10.393   0.368  0.0261  0.4257  0.5722
51812SOL    HW264215   5.251  10.258   0.304 -1.3643  0.8824 -0.9732
51813SOL     OW64216   2.301   0.000   5.003  0.4984  0.3355  0.3211
51813SOL    HW164217   2.258  -0.085   5.004  0.9961  0.0280  3.0946
51813SOL    HW264218   2.360  -0.003   4.927  0.6852 -1.8711  0.5038
51814SOL     OW64219  11.042   3.393   6.792  0.1033  0.2216  0.0754
51814SOL    HW164220  10.950   3.368   6.782 -0.3268  2.2702 -1.6500
51814SOL    HW264221  11.086   3.354   6.717  0.8663 -1.4560  1.3355
51815SOL     OW64222   1.515   5.941   6.818 -0.0690  0.2384 -0.2233
51815SOL    HW164223   1.539   5.928   6.727  0.8376  0.9433 -0.0940
51815SOL    HW264224   1.566   6.016   6.847  1.2503 -1.2076  1.4644
51816SOL     OW64225   0.738   8.419   6.518 -0.2447 -0.5414 -0.5553
51816SOL    HW164226   0.711   8.499   6.473  0.9849 -0.3056 -0.9140
51816SOL    HW264227   0.714   8.434   6.609 -0.8286 -0.1427 -0.7626
51817SOL     OW64228   6.963   7.453   9.051 -0.5014 -0.5362 -0.8511
51817SOL    HW164229   7.003   7.538   9.033 -2.5903  0.8446  0.6736
51817SOL    HW264230   6.906   7.436   8.976 -1.0428  0.0465 -0.5786
51818SOL     OW64231   9.306   3.121  12.283 -0.5275 -0.0920  0.0392
51818SOL    HW164232   9.290   3.148  12.193  3.2876 -0.1334 -0.8350
51818SOL    HW264233   9.285   3.198  12.335  2.3448  1.9961 -1.5762
51819SOL     OW64234  12.341  10.671  12.332 -0.1524 -0.1151  0.0009
51819SOL    HW164235  12.436  10.668  12.321 -0.1926 -1.3756 -0.1502
51819SOL    HW264236  12.325  10.622  12.412 -0.7604 -0.9967 -0.6440
51820SOL     OW64237  12.588   9.067   4.463  0.4483  0.3832  0.2632
51820SOL    HW164238  12.606   9.043   4.373 -1.5477  2.9892 -0.9577
51820SOL    HW264239  12.518   9.007   4.491 -0.2018  0.7302 -0.5824
51821SOL     OW64240   7.997   5.869  11.183 -0.4258 -0.3186 -0.4615
51821SOL    HW164241   7.949   5.787  11.177 -1.2940  0.1446 -0.0053
51821SOL    HW264242   7.938   5.928  11.231 -0.1828  0.8360 -1.5397
51822SOL     OW64243   3.186   2.371   1.995 -0.2061 -0.2653 -0.2521
51822SOL    HW164244   3.230   2.372   1.910  0.9405  2.0012  0.2864
51822SOL    HW264245   3.254   2.343   2.057 -0.3310  0.4125  0.2042
51823SOL     OW64246   6.056   7.190   1.328 -0.2005 -0.1210 -0.1423
51823SOL    HW164247   6.064   7.283   1.306  0.2793  0.1190  0.9748
51823SOL    HW264248   6.003   7.189   1.408  1.1201 -0.6883  0.7494
51824SOL     OW64249   1.321  12.040   5.745 -0.6776 -1.0850 -0.2553
51824SOL    HW164250   1.340  12.077   5.832 -0.6163 -1.7628  0.0303
51824SOL    HW264251   1.287  12.113   5.694 -0.4379 -0.6118  0.2574
51825SOL     OW64252  11.737   9.524   8.810  0.1013 -0.3563 -0.0449
51825SOL    HW164253  11.818   9.567   8.839  0.6255 -1.1089 -0.3760
51825SOL    HW264254  11.767   9.449   8.758 -0.8125 -0.2462 -0.7498
51826SOL     OW64255   2.307   8.874   8.170 -0.0172 -0.0690 -0.1622
51826SOL    HW164256   2.376   8.860   8.106 -0.6141 -2.3625 -0.3925
51826SOL    HW264257   2.248   8.937   8.128  1.7009  1.7160 -0.0635
51827SOL     OW64258   3.727  11.892  10.239 -0.3248 -0.0723  0.3888
51827SOL    HW164259   3.679  11.960  10.286 -0.6355 -0.0091 -0.0163
51827SOL    HW264260   3.819  11.908  10.262 -0.4649 -0.0079  0.9218
51828SOL     OW64261   5.251   7.233   1.621 -0.4200  0.7965 -0.2342
51828SOL    HW164262   5.234   7.315   1.575 -1.2406  0.3495 -0.7455
51828SOL    HW264263   5.173   7.180   1.606 -0.0289  0.0336  0.3467
51829SOL     OW64264  10.659   2.779   5.047 -0.2042  0.0466  0.1583
51829SOL    HW164265  10.583   2.835   5.063 -1.2057 -1.2192  0.0637
51829SOL    HW264266  10.674   2.734   5.130  0.1837 -0.0116  0.0585
51830SOL     OW64267  10.019   1.093   2.028 -0.5438 -0.2183  0.0244
51830SOL    HW164268  10.030   1.084   1.934  0.1355  0.0215  0.0760
51830SOL    HW264269  10.099   1.136   2.058 -0.6562 -0.4870  0.7392
51831SOL     OW64270   6.036   1.998   8.219  0.4415 -0.5026  0.1479
51831SOL    HW164271   5.980   2.061   8.173 -1.6621 -1.5581  1.0830
51831SOL    HW264272   6.107   1.980   8.158 -0.1793  0.9908 -1.0904
51832SOL     OW64273   2.225   1.418   4.670 -0.0123 -0.3544  0.1439
51832SOL    HW164274   2.258   1.481   4.606 -0.6042 -0.4120 -0.2291
51832SOL    HW264275   2.131   1.417   4.655 -0.0822 -0.8197  0.6137
51833SOL     OW64276   3.913   0.726   7.737  0.3535 -0.3367 -0.3215
51833SOL    HW164277   3.988   0.750   7.683  1.0884  0.5003  1.0074
51833SOL    HW264278   3.928   0.772   7.820 -0.7955 -1.4717  0.5497
51834SOL     OW64279   7.330   8.231  12.175  0.3569 -0.4669  0.2152
51834SOL    HW164280   7.320   8.315  12.220  3.0982  0.0713 -0.0214
51834SOL    HW264281   7.326   8.166  12.245 -0.0042 -0.0073  0.6291
51835SOL     OW64282   6.419   1.989   1.316  0.3506 -1.0479 -0.0990
51835SOL    HW164283   6.384   1.951   1.236  1.4036 -1.2040 -0.5103
51835SOL    HW264284   6.487   1.926   1.344  2.1916  0.5075 -0.8323
51836SOL     OW64285   1.866   1.164   4.664 -0.2646  0.4183  0.4715
51836SOL    HW164286   1.879   1.208   4.581 -0.6178  0.3766  0.3934
51836SOL    HW264287   1.771   1.164   4.677 -0.2542 -0.1341  0.5694
51837SOL     OW64288   3.855   5.477  12.382 -0.2933  0.7444  0.4930
51837SOL    HW164289   3.805   5.474  12.300  0.9604 -0.0421 -0.2851
51837SOL    HW264290   3.790   5.461  12.451 -1.1128 -0.2431 -0.4762
51838SOL     OW64291   5.728   9.956   5.381  0.0451 -0.2930  0.5684
51838SOL    HW164292   5.691  10.011   5.311 -0.9445 -2.1034 -0.4020
51838SOL    HW264293   5.774  10.018   5.438 -1.9466  1.7005  0.1540
51839SOL     OW64294   5.483  12.592   4.803 -0.2724  0.2140 -0.3125
51839SOL    HW164295   5.462  12.516   4.858  1.3402 -0.2139 -0.2373
51839SOL    HW264296   5.486  12.556   4.714 -2.6138  0.8521 -0.7324
51840SOL     OW64297   4.264  12.501   2.672  0.1078  0.3327 -0.7191
51840SOL    HW164298   4.283  12.429   2.732 -1.8050  1.3080  1.2092
51840SOL    HW264299   4.322  12.487   2.598  1.2248 -2.0311  0.5024
51841SOL     OW64300   1.475   6.037   1.205 -0.6350  0.9224 -0.2535
51841SOL    HW164301   1.420   6.114   1.217  0.8291  2.0030 -0.1429
51841SOL    HW264302   1.552   6.054   1.259  1.1444  0.8579 -2.6032
51842SOL     OW64303   9.334   6.459   4.779 -0.0668  0.1890 -0.1612
51842SOL    HW164304   9.246   6.498   4.781  0.0884  0.5184  0.4394
51842SOL    HW264305   9.318   6.365   4.790 -0.4034  0.1284 -1.0443
51843SOL     OW64306   5.429  12.307   4.888  0.5825  0.4065  0.2425
51843SOL    HW164307   5.503  12.246   4.893  1.4793  1.1607 -2.1861
51843SOL    HW264308   5.354  12.251   4.867  1.0403 -0.0777 -0.1625
51844SOL     OW64309  10.100  10.761  12.393  0.0764 -0.0729 -0.3766
51844SOL    HW164310  10.162  10.776  12.322 -0.6831  0.0808 -1.0206
51844SOL    HW264311  10.150  10.780  12.473  1.6974 -2.7104 -0.6575
51845SOL     OW64312   5.706  12.300   0.646 -0.0685  0.1476  0.6411
51845SOL    HW164313   5.648  12.332   0.577  0.9321  2.6322  0.8458
51845SOL    HW264314   5.763  12.237   0.602 -0.0284  1.0141 -0.5840
51846SOL     OW64315   4.506   3.128   2.424  0.0800 -0.0773  0.0533
51846SOL    HW164316   4.451   3.070   2.477 -0.1956  0.4835  0.3912
51846SOL    HW264317   4.554   3.181   2.488 -1.0798  1.3767 -0.2262
51847SOL     OW64318   1.418   9.036   1.863 -0.1374 -0.9277  0.3613
51847SOL    HW164319   1.355   9.002   1.799  0.5421 -1.4852 -0.0225
51847SOL    HW264320   1.384   9.122   1.887 -1.6026 -1.6355  0.9398
51848SOL     OW64321   6.548   6.499   7.316  0.6806 -0.2021  0.1561
51848SOL    HW164322   6.507   6.478   7.232  1.1238 -0.0733 -0.0919
51848SOL    HW264323   6.638   6.468   7.307  0.5072 -0.9700  0.8908
51849SOL     OW64324   0.158   6.114   1.459 -0.2003 -0.2599 -0.0824
51849SOL    HW164325   0.122   6.066   1.384 -2.9354  1.0062  0.3234
51849SOL    HW264326   0.159   6.205   1.431  2.4155 -0.1416  0.1237
51850SOL     OW64327   9.400   0.832  10.148 -0.0913 -0.2779 -0.2103
51850SOL    HW164328   9.442   0.875  10.222  0.0576  1.0726 -1.0339
51850SOL    HW264329   9.329   0.891  10.122 -0.5621 -1.0459 -0.7287
51851SOL     OW64330   5.380   5.806  11.291 -0.1368  0.6584 -0.2357
51851SOL    HW164331   5.377   5.830  11.384  1.4031 -0.5740  0.1772
51851SOL    HW264332   5.359   5.887  11.244  1.0252  1.8031  1.1407
51852SOL     OW64333   8.731  11.187  11.927  0.5664 -0.9270 -0.2644
51852SOL    HW164334   8.651  11.159  11.971  0.9006 -1.8317 -0.2008
51852SOL    HW264335   8.702  11.247  11.859  0.0214  0.3722  1.0721
51853SOL     OW64336   4.835   8.236   5.672  0.2510  0.0182  0.3404
51853SOL    HW164337   4.780   8.181   5.616 -0.5472 -0.2701  1.3889
51853SOL    HW264338   4.784   8.316   5.685 -1.6199 -1.5526  4.1232
51854SOL     OW64339   2.457   9.919   4.645  0.6325 -0.0179 -0.1266
51854SOL    HW164340   2.459   9.930   4.740  2.1193 -1.0815  0.0155
51854SOL    HW264341   2.367   9.897   4.624  0.2403  0.4740  1.0041
51855SOL     OW64342   0.372   9.420   0.819  0.2073  0.4110  0.4200
51855SOL    HW164343   0.371   9.447   0.727  2.2049 -1.0129 -0.0740
51855SOL    HW264344   0.296   9.362   0.828  0.3483  0.0701 -0.5032
51856SOL     OW64345  11.532   4.495  11.122 -0.5974  0.0759  0.2002
51856SOL    HW164346  11.455   4.492  11.065 -1.2062 -0.7996  1.0259
51856SOL    HW264347  11.569   4.582  11.109 -1.6276  0.4448 -0.3423
51857SOL     OW64348   6.823   0.904  12.537 -0.0112 -0.3384 -0.2795
51857SOL    HW164349   6.901   0.896  12.591  0.8452 -0.2361 -1.4504
51857SOL    HW264350   6.790   0.815  12.527  1.6694 -0.8125 -2.1665
51858SOL     OW64351   4.816   8.607   3.613  0.9517  0.3986  0.2330
51858SOL    HW164352   4.828   8.688   3.564  0.7883 -0.7653 -1.8473
51858SOL    HW264353   4.734   8.619   3.661  1.0497  1.5367  0.1297
51859SOL     OW64354  10.755  12.122  11.622  0.1339  0.4538  0.0044
51859SOL    HW164355  10.685  12.079  11.671 -0.9344 -0.4377 -2.1406
51859SOL    HW264356  10.731  12.214  11.620 -2.7096 -0.1635 -3.0847
51860SOL     OW64357   7.256   6.022   5.624  0.3035 -0.3650  0.2499
51860SOL    HW164358   7.213   6.105   5.643 -0.6179 -0.4520 -1.2767
51860SOL    HW264359   7.303   6.000   5.705 -1.0457  0.6439  1.3682
51861SOL     OW64360   8.083   5.643   1.677  0.8103  0.4124 -0.0717
51861SOL    HW164361   8.082   5.655   1.582 -1.6011  0.5804 -0.1056
51861SOL    HW264362   8.128   5.560   1.690  0.9022  0.2193 -1.4060
51862SOL     OW64363   2.142   6.237   3.849 -0.2995  0.3490  0.1873
51862SOL    HW164364   2.056   6.211   3.883 -0.8473  0.9354 -0.6687
51862SOL    HW264365   2.123   6.265   3.759  0.9283 -0.2599 -0.2770
51863SOL     OW64366  12.130   2.392   7.917  0.2246 -0.6002  0.2430
51863SOL    HW164367  12.222   2.408   7.935  0.1915 -0.1142 -0.0031
51863SOL    HW264368  12.121   2.297   7.918  0.2163 -0.6309  2.8280
51864SOL     OW64369   5.231  10.815  10.597 -0.3478 -0.3583  0.2040
51864SOL    HW164370   5.258  10.753  10.529  0.3826 -0.2204  0.3585
51864SOL    HW264371   5.310  10.827  10.651 -0.1012  1.6150 -0.5151
51865SOL     OW64372   3.123   4.609  12.508 -0.6486 -0.3338 -0.0846
51865SOL    HW164373   3.088   4.534  12.556 -0.6581 -1.1571 -1.3533
51865SOL    HW264374   3.046   4.650  12.468 -0.8318  1.1718  1.6316
51866SOL     OW64375   8.406   9.576   3.334  0.5021 -0.6335 -0.0554
51866SOL    HW164376   8.483   9.610   3.380  0.9856 -1.5185 -0.1936
51866SOL    HW264377   8.437   9.496   3.291 -0.1202 -0.2202 -1.3260
51867SOL     OW64378   1.183   6.698   2.571 -0.0349 -0.2577  0.1820
51867SOL    HW164379   1.247   6.767   2.586  1.3621 -1.4131 -0.2411
51867SOL    HW264380   1.155   6.671   2.658  0.6449 -0.2504  0.4081
51868SOL     OW64381   1.830   8.744   4.291  0.5973 -0.2324  0.8708
51868SOL    HW164382   1.919   8.712   4.275  0.7378 -0.0883  1.3490
51868SOL    HW264383   1.814   8.807   4.220  0.9536 -0.1011  0.9055
51869SOL     OW64384  10.067   4.064   1.107  0.3743 -0.1801 -0.3235
51869SOL    HW164385   9.993   4.013   1.074  2.1438 -1.9618 -1.7745
51869SOL    HW264386  10.068   4.046   1.201 -1.2256  0.2206 -0.1856
51870SOL     OW64387   8.284   3.029  11.760 -0.3776 -0.2051  0.4313
51870SOL    HW164388   8.301   3.009  11.668  0.9512 -0.2994  0.6756
51870SOL    HW264389   8.205   3.083  11.759 -0.6507 -0.6087 -0.7147
51871SOL     OW64390   3.431   3.595   6.494 -0.2713 -0.4967  0.0203
51871SOL    HW164391   3.368   3.627   6.429 -0.4707 -1.2420 -0.1689
51871SOL    HW264392   3.513   3.587   6.446  0.0660  0.7737  0.3428
51872SOL     OW64393   3.234   1.762   7.132  0.4169 -0.3615 -0.5258
51872SOL    HW164394   3.327   1.760   7.108  0.7713 -1.0543  0.7488
51872SOL    HW264395   3.188   1.729   7.055  1.2602 -0.2940 -1.0689
51873SOL     OW64396   4.477   8.103   5.826  0.1333 -0.3793  0.0126
51873SOL    HW164397   4.519   8.023   5.795 -0.6244 -0.8586  0.1967
51873SOL    HW264398   4.475   8.094   5.921  0.2933 -0.0067  0.0541
51874SOL     OW64399   6.684   4.627   5.793  0.2224  0.3807  0.3336
51874SOL    HW164400   6.706   4.712   5.753  0.6271 -0.5625 -1.5760
51874SOL    HW264401   6.751   4.567   5.758 -0.8791 -1.0053  0.5390
51875SOL     OW64402   5.435   0.490   2.106 -0.1715  0.6968  0.1488
51875SOL    HW164403   5.407   0.573   2.144 -3.6819  0.1588 -0.9457
51875SOL    HW264404   5.471   0.440   2.179  0.8762  2.6734  1.0502
51876SOL     OW64405   7.621   4.360   7.038  0.1835 -0.4670 -0.4260
51876SOL    HW164406   7.677   4.346   7.115 -0.4916  0.6034  0.2900
51876SOL    HW264407   7.657   4.438   6.996 -0.2769 -0.2415 -0.4089
51877SOL     OW64408   9.912  11.685   9.374  0.2700 -0.5274  0.0599
51877SOL    HW164409   9.831  11.735   9.365  1.9501  2.1690 -1.9235
51877SOL    HW264410   9.922  11.640   9.290  2.5522  2.3135 -1.3804
51878SOL     OW64411   1.110   4.418   1.356 -0.1579 -0.5814 -0.0105
51878SOL    HW164412   1.203   4.432   1.338 -0.0841 -0.9946  0.0575
51878SOL    HW264413   1.065   4.472   1.291  0.1221 -0.6426 -0.2570
51879SOL     OW64414   3.997   7.840   4.034  0.1191 -0.5282 -0.3953
51879SOL    HW164415   3.920   7.876   4.077  1.4831  2.0711  0.0813
51879SOL    HW264416   4.028   7.771   4.094  0.1822  0.8721  1.2415
51880SOL     OW64417   9.676   1.233   0.641 -0.3979  0.0565 -0.2409
51880SOL    HW164418   9.672   1.294   0.715 -1.7607 -0.2142 -0.0826
51880SOL    HW264419   9.757   1.258   0.594  2.2599 -1.7024  2.9725
51881SOL     OW64420  12.384   9.798   8.203 -0.6052  0.8061 -0.0261
51881SOL    HW164421  12.352   9.729   8.145 -2.3662  0.2933  1.4873
51881SOL    HW264422  12.401   9.754   8.286  0.4800  1.7957  0.3076
51882SOL     OW64423   2.921   5.899  10.217 -0.4390 -0.3350 -0.1554
51882SOL    HW164424   2.890   5.973  10.269 -3.8682  2.1250 -4.9961
51882SOL    HW264425   2.853   5.832  10.227 -0.6609 -0.2068 -0.7919
51883SOL     OW64426   4.169   7.781   6.532  0.5146 -0.0363  0.7598
51883SOL    HW164427   4.229   7.805   6.603  0.0825 -0.6262  1.3402
51883SOL    HW264428   4.163   7.859   6.478 -0.7238  1.1652  2.5060
51884SOL     OW64429   4.032   1.504   7.820  0.0867  0.2937 -0.5513
51884SOL    HW164430   4.049   1.595   7.843 -0.9626  0.5192 -0.6416
51884SOL    HW264431   4.047   1.456   7.901  2.3806  0.2959 -0.9167
51885SOL     OW64432   1.169   3.871   1.376  0.1827  0.6053  0.1241
51885SOL    HW164433   1.251   3.914   1.350  0.7782 -1.1153 -1.0349
51885SOL    HW264434   1.102   3.913   1.323  0.8740 -0.3975 -1.6052
51886SOL     OW64435   1.712   2.631  11.663  0.1621  0.4922 -0.4614
51886SOL    HW164436   1.670   2.704  11.708 -0.6151 -0.3776  0.2761
51886SOL    HW264437   1.754   2.580  11.732  2.5534  1.3534 -1.1850
51887SOL     OW64438   2.638  10.665   7.061 -0.7441 -0.0958 -0.4194
51887SOL    HW164439   2.557  10.622   7.034 -0.0255 -0.1320 -2.7979
51887SOL    HW264440   2.706  10.598   7.050 -0.2519  0.2040  0.6421
51888SOL     OW64441   7.054   4.924  11.401 -0.1567 -0.6379 -0.0940
51888SOL    HW164442   6.967   4.953  11.373 -1.4659 -1.9092  2.3977
51888SOL    HW264443   7.038   4.871  11.479  2.9079 -0.5688  0.6927
51889SOL     OW64444   9.714   7.810   0.318 -0.0267 -0.3382 -0.2727
51889SOL    HW164445   9.751   7.806   0.406  1.6664  2.4966 -0.7125
51889SOL    HW264446   9.789   7.825   0.261 -1.2821  0.0000 -1.9335
51890SOL     OW64447  10.778   1.717   1.003  0.0534  0.0733  0.0344
51890SOL    HW164448  10.743   1.672   1.080 -0.7019  0.8828  0.1759
51890SOL    HW264449  10.753   1.660   0.930  0.0974 -0.3107  0.3133
51891SOL     OW64450   5.829   9.334   7.204  0.3054 -0.1483 -0.3567
51891SOL    HW164451   5.802   9.373   7.288 -0.3229 -0.4279 -0.4226
51891SOL    HW264452   5.788   9.389   7.138  1.3420  0.4668 -0.5057
51892SOL     OW64453   0.118   8.944  10.519  0.1644  0.2032  0.2950
51892SOL    HW164454   0.136   8.948  10.613  0.2529 -1.2101  0.3481
51892SOL    HW264455   0.160   8.864  10.489  0.0006  0.5534 -0.9349
51893SOL     OW64456   3.764  10.639  11.848 -0.4547 -0.4088 -0.3428
51893SOL    HW164457   3.693  10.596  11.801 -1.0412  0.2476 -0.0865
51893SOL    HW264458   3.736  10.636  11.940 -0.6768  0.8114 -0.3591
51894SOL     OW64459   1.701   6.385   9.106 -0.2646 -0.0655  0.5278
51894SOL    HW164460   1.699   6.474   9.142  0.6268  0.3808 -0.4722
51894SOL    HW264461   1.660   6.331   9.174  0.2545  0.9269  1.6725
51895SOL     OW64462  12.187   1.373   9.844  0.0591  0.1876  0.4421
51895SOL    HW164463  12.203   1.333   9.929 -1.0705  1.0363  1.0746
51895SOL    HW264464  12.273   1.376   9.802  0.5961 -0.4120  1.4670
51896SOL     OW64465   2.187   6.844   8.317  0.4162  0.2467 -0.1859
51896SOL    HW164466   2.188   6.840   8.221  0.4786 -0.1401 -0.1707
51896SOL    HW264467   2.129   6.772   8.343  0.7043  0.1079  0.0769
51897SOL     OW64468   2.729   1.090   9.883  0.4375 -0.0909  0.2121
51897SOL    HW164469   2.671   1.015   9.876 -1.6774  1.1924  2.2465
51897SOL    HW264470   2.671   1.163   9.907  2.5125  1.9693 -0.6544
51898SOL     OW64471   6.877   9.021   2.497  0.2082  0.0056 -0.0706
51898SOL    HW164472   6.828   8.956   2.446 -0.3612  0.3668  0.0078
51898SOL    HW264473   6.890   8.980   2.583 -0.8484  0.2997  0.2403
51899SOL     OW64474   0.418  11.889  10.681 -0.1174  0.2463 -0.0067
51899SOL    HW164475   0.479  11.885  10.608  1.1983 -1.7501  1.1227
51899SOL    HW264476   0.414  11.982  10.704  1.5496  0.5687 -0.9041
51900SOL     OW64477  11.656  10.216   1.929 -1.1051  0.3551 -0.2030
51900SOL    HW164478  11.721  10.157   1.890 -1.8520 -0.0370 -0.8883
51900SOL    HW264479  11.623  10.168   2.005  0.0689  0.9544  0.7171
51901SOL     OW64480   1.644   2.813   4.552 -0.3135 -0.0977 -0.2216
51901SOL    HW164481   1.712   2.837   4.489  0.8637  1.2052  1.4583
51901SOL    HW264482   1.624   2.722   4.532  2.4047 -0.7459 -0.3868
51902SOL     OW64483   2.437   7.124   4.658 -0.0285  0.2623  0.0578
51902SOL    HW164484   2.432   7.029   4.669 -3.3443  0.3638  0.2289
51902SOL    HW264485   2.442   7.158   4.748 -0.6106  0.2818  0.0868
51903SOL     OW64486   9.819   5.279   9.535 -0.4888  0.1253 -0.3497
51903SOL    HW164487   9.775   5.334   9.600  0.5013  0.7969 -0.2262
51903SOL    HW264488   9.754   5.267   9.466 -0.5225  2.0415 -0.7059
51904SOL     OW64489   4.785   1.542   0.708  0.7494  0.3673  0.1416
51904SOL    HW164490   4.736   1.575   0.783  2.0573 -0.6166  1.4986
51904SOL    HW264491   4.814   1.455   0.734  0.4865 -0.3931 -1.8939
51905SOL     OW64492   2.775   1.370   4.519 -0.6497 -0.0033  0.1324
51905SOL    HW164493   2.796   1.286   4.561 -1.8746 -1.3068 -1.7074
51905SOL    HW264494   2.702   1.405   4.570  0.4314  0.4434  1.4511
51906SOL     OW64495   0.429   7.062   4.734 -0.6401  1.0156  0.4135
51906SOL    HW164496   0.340   7.038   4.758 -0.6693  1.4524  0.7421
51906SOL    HW264497   0.445   7.146   4.777 -0.0811  0.9579  0.3349
51907SOL     OW64498  12.582   9.168   6.088  0.4943 -0.5215  0.2122
51907SOL    HW164499  12.618   9.185   6.175  0.2405 -1.4852  0.5223
51907SOL    HW264500  12.506   9.227   6.081  1.7360  1.0952 -0.2170
51908SOL     OW64501   1.012   7.205   9.171  0.1041  0.3623 -0.0160
51908SOL    HW164502   0.986   7.114   9.186  0.3858  0.4129  0.8663
51908SOL    HW264503   1.014   7.243   9.259  0.8372  0.9860 -0.2995
51909SOL     OW64504  11.732   5.810  10.732 -0.0442 -0.2789 -0.5773
51909SOL    HW164505  11.679   5.816  10.812  1.1746 -0.1068  0.2491
51909SOL    HW264506  11.699   5.732  10.688 -0.7805 -0.3500  0.0685
51910SOL     OW64507   7.017   3.976   2.934 -0.0214 -0.0268  0.2406
51910SOL    HW164508   6.969   3.994   2.853  1.1412 -0.7960 -0.6458
51910SOL    HW264509   7.103   4.016   2.921  0.5044 -0.9593  0.7099
51911SOL     OW64510   5.252   0.227  10.523  0.2685  0.0994 -0.0481
51911SOL    HW164511   5.212   0.265  10.444  2.2383  1.2709 -0.5415
51911SOL    HW264512   5.251   0.298  10.587  0.5862 -0.1912  0.2825
51912SOL     OW64513   3.120  11.545   9.068 -0.1206 -0.1182 -0.2184
51912SOL    HW164514   3.181  11.472   9.064  0.6434  0.5472 -1.1522
51912SOL    HW264515   3.049  11.521   9.009  0.4206  0.1260 -0.9937
51913SOL     OW64516   4.051  10.213   5.988  0.2320  0.2222  0.4019
51913SOL    HW164517   4.019  10.284   6.043 -2.3316 -0.8979  0.5098
51913SOL    HW264518   4.051  10.249   5.899  1.5117  1.1092  0.7325
51914SOL     OW64519   3.297   2.815   0.256  0.0313 -0.1879  0.1696
51914SOL    HW164520   3.330   2.895   0.215  0.1739  0.1836  0.9849
51914SOL    HW264521   3.375   2.772   0.291 -0.0473 -0.6811 -0.2508
51915SOL     OW64522   5.943  12.297   2.209  0.2467 -0.1916  0.1100
51915SOL    HW164523   5.889  12.239   2.155 -0.6051 -2.0444  2.7631
51915SOL    HW264524   5.984  12.239   2.273  1.6228  1.8280  1.1531
51916SOL     OW64525  10.956  11.209   6.088 -0.3017  1.3638 -0.4732
51916SOL    HW164526  10.885  11.201   6.024  0.9335  3.8754 -2.3390
51916SOL    HW264527  10.986  11.300   6.079  0.1322  1.8214  3.5613
51917SOL     OW64528   4.409  10.492   6.950  0.4225  0.3418  0.3375
51917SOL    HW164529   4.469  10.551   6.904  1.7831 -0.3543  1.1452
51917SOL    HW264530   4.348  10.550   6.994  0.7277  1.0975 -0.2062
51918SOL     OW64531  11.390   1.498   4.878  0.0650 -0.0433  0.0310
51918SOL    HW164532  11.480   1.501   4.910 -0.0615  0.7458  0.3131
51918SOL    HW264533  11.340   1.460   4.950 -0.5148  3.2450  1.5618
51919SOL     OW64534   1.103   4.727   8.867  0.0266  0.3050 -0.4555
51919SOL    HW164535   1.113   4.654   8.927  0.6161  0.8977  0.1852
51919SOL    HW264536   1.026   4.774   8.899 -0.1895  0.1242 -0.7037
51920SOL     OW64537   3.354   3.443   2.361 -0.9374  0.2737  0.1638
51920SOL    HW164538   3.300   3.437   2.282 -0.8706 -0.0361  0.1414
51920SOL    HW264539   3.406   3.363   2.361  0.2800  1.0280 -0.3695
51921SOL     OW64540   5.627   0.984   1.094 -0.1232 -0.1830  0.0033
51921SOL    HW164541   5.583   1.046   1.035 -0.8750 -0.3694  0.3485
51921SOL    HW264542   5.609   1.018   1.182  1.8773  0.6816  0.1247
51922SOL     OW64543   4.343   8.118   5.564 -0.9809 -0.6241 -0.7940
51922SOL    HW164544   4.358   8.028   5.535  0.4952 -0.7716  0.2878
51922SOL    HW264545   4.368   8.118   5.657 -2.3504  0.5810 -0.3895
51923SOL     OW64546   2.078   6.092   1.593  0.0852 -0.2811  0.1955
51923SOL    HW164547   2.046   6.033   1.525 -0.9563 -1.8818  1.9943
51923SOL    HW264548   2.153   6.136   1.552  1.4712 -3.4226 -0.9953
51924SOL     OW64549   4.770   9.503   8.279 -0.3951 -0.2056 -0.5004
51924SOL    HW164550   4.797   9.415   8.251 -1.7111 -0.9489  0.4461
51924SOL    HW264551   4.736   9.491   8.368 -0.5115  1.2895 -0.3134
51925SOL     OW64552   0.550   0.180   0.022 -0.9428 -0.0142  0.1468
51925SOL    HW164553   0.560   0.114   0.090  2.8619  0.3896  0.1963
51925SOL    HW264554   0.608   0.251   0.049 -3.3772  2.5840 -0.9077
51926SOL     OW64555   6.813   0.689   2.927 -0.3497  0.2698 -0.3566
51926SOL    HW164556   6.880   0.675   2.859  0.3802  1.0861  0.1784
51926SOL    HW264557   6.856   0.664   3.008 -0.9295  0.1371 -0.0903
51927SOL     OW64558   6.147   8.931   2.967 -0.2480 -0.4402  0.3900
51927SOL    HW164559   6.199   8.851   2.968 -0.5562 -0.6492 -0.2262
51927SOL    HW264560   6.179   8.980   2.891  0.3463  0.3029  1.0913
51928SOL     OW64561  11.501   6.657  10.546  0.0673 -0.3978 -0.1712
51928SOL    HW164562  11.467   6.731  10.494 -0.3959 -0.7517 -0.3826
51928SOL    HW264563  11.550   6.699  10.617 -1.0078  0.1574  0.2850
51929SOL     OW64564   0.979   3.483   1.807  0.0076 -0.2244  0.0854
51929SOL    HW164565   1.029   3.443   1.736  1.0214  0.9427  0.0990
51929SOL    HW264566   0.894   3.441   1.803  0.2719 -0.6823 -1.3764
51930SOL     OW64567   7.998   1.457  10.711  0.4859 -0.3374  0.3772
51930SOL    HW164568   8.040   1.541  10.693 -0.6155  0.1382 -0.0832
51930SOL    HW264569   7.919   1.480  10.760 -1.9267 -0.6258 -2.9989
51931SOL     OW64570  11.898   3.293  10.731  0.2076 -0.3387  0.1159
51931SOL    HW164571  11.910   3.198  10.723  1.6118 -0.1156 -0.9135
51931SOL    HW264572  11.975   3.330  10.687  1.1260  1.2810  2.8947
51932SOL     OW64573   9.861   4.560  11.784  0.2053 -0.2217 -0.2244
51932SOL    HW164574   9.900   4.473  11.794 -0.0448 -0.1851  1.2813
51932SOL    HW264575   9.879   4.604  11.866 -1.8062  0.2719  0.0178
51933SOL     OW64576   6.760   4.417   8.508  0.0527  0.3263  0.1128
51933SOL    HW164577   6.673   4.447   8.532  0.2570  1.7163 -0.7219
51933SOL    HW264578   6.800   4.389   8.590 -1.2760 -0.6479  0.4512
51934SOL     OW64579   6.564   6.823   6.171  0.0635 -0.5486  0.2902
51934SOL    HW164580   6.486   6.821   6.115 -1.4399 -0.6479  2.2889
51934SOL    HW264581   6.551   6.900   6.226  1.6093 -0.3379  0.3985
51935SOL     OW64582  12.383  11.444   7.733  0.5500  0.2547  0.2223
51935SOL    HW164583  12.403  11.448   7.640 -1.4870 -0.8138 -0.3204
51935SOL    HW264584  12.376  11.351   7.753  0.9540  0.4641  1.4477
51936SOL     OW64585   0.019   8.141   4.843 -0.0883 -0.1338 -0.1548
51936SOL    HW164586  -0.003   8.191   4.922  1.2021  0.2984 -0.0451
51936SOL    HW264587   0.108   8.168   4.822  0.5109 -2.1041 -0.3197
51937SOL     OW64588   0.768   7.544   6.850 -0.1479  0.5174  0.1582
51937SOL    HW164589   0.718   7.605   6.795 -0.2997 -0.9907 -1.4728
51937SOL    HW264590   0.768   7.584   6.936 -1.8370  1.9107 -0.4287
51938SOL     OW64591   7.494   2.634   7.359  0.6817 -0.0515  0.2033
51938SOL    HW164592   7.534   2.698   7.418  0.6929 -0.6998  0.9267
51938SOL    HW264593   7.426   2.683   7.313 -0.1004  0.2223  1.5982
51939SOL     OW64594   6.368  11.269   7.538  0.5436 -0.1824  0.1880
51939SOL    HW164595   6.403  11.218   7.611 -0.7965 -0.3086  0.7826
51939SOL    HW264596   6.341  11.352   7.579 -1.3231 -0.7013  0.1239
51940SOL     OW64597   7.057   0.798   3.377 -0.5866 -0.0689  0.1498
51940SOL    HW164598   7.079   0.851   3.453 -2.3204 -0.4896  0.9922
51940SOL    HW264599   7.008   0.724   3.413  0.0473 -1.2010 -1.2063
51941SOL     OW64600   4.693   0.958   0.469  0.7351  0.2443 -0.3693
51941SOL    HW164601   4.640   0.986   0.395 -0.3926 -1.2983 -0.2027
51941SOL    HW264602   4.709   0.865   0.454  2.2519  0.3627  0.3016
51942SOL     OW64603   4.664   1.369   3.286  0.4626  0.1222  0.5520
51942SOL    HW164604   4.648   1.455   3.323 -0.0415 -0.2816  1.3050
51942SOL    HW264605   4.687   1.314   3.361  2.1084 -0.1124 -0.0740
51943SOL     OW64606   5.196  11.923   9.828 -0.5181 -0.5281  0.2765
51943SOL    HW164607   5.161  11.837   9.851 -0.1584 -0.5895  0.6097
51943SOL    HW264608   5.177  11.977   9.905  1.3599 -0.9236  1.0636
51944SOL     OW64609   2.870   2.854  11.315 -0.1657  0.4483 -0.1418
51944SOL    HW164610   2.789   2.861  11.265 -0.2013 -0.1166 -0.1648
51944SOL    HW264611   2.930   2.915  11.272 -0.3672  0.3670 -0.5384
51945SOL     OW64612   4.584  10.127   5.786  0.3689  0.0678  0.2270
51945SOL    HW164613   4.654  10.157   5.729 -0.6969  0.9587 -0.6482
51945SOL    HW264614   4.599  10.172   5.869  1.5469 -0.7270  0.4589
51946SOL     OW64615   1.834   9.755   7.520  0.6462  0.7584  0.3474
51946SOL    HW164616   1.754   9.746   7.571  0.8162  1.2628  0.7116
51946SOL    HW264617   1.895   9.799   7.579  1.4620 -0.3443  0.3612
51947SOL     OW64618   5.858  10.964   9.864  0.1737 -0.3214 -0.5434
51947SOL    HW164619   5.889  10.979   9.775 -2.6286  1.5366 -1.3356
51947SOL    HW264620   5.824  10.874   9.862 -0.0847 -0.2161 -1.4524
51948SOL     OW64621   8.397   8.820   0.306 -0.4834  0.0529  0.3597
51948SOL    HW164622   8.330   8.886   0.319  0.3580  0.7546  1.3157
51948SOL    HW264623   8.422   8.793   0.394 -1.2336 -2.0170  0.0056
51949SOL     OW64624   5.732   6.516   9.845 -0.3493 -0.7964 -0.0898
51949SOL    HW164625   5.727   6.556   9.758 -1.1838  1.8660  1.0520
51949SOL    HW264626   5.647   6.474   9.856 -1.5403  1.5612  0.5151
51950SOL     OW64627   5.837   3.233   9.256 -0.7626 -0.5515  1.0268
51950SOL    HW164628   5.749   3.234   9.218 -0.1745  0.7959 -0.3824
51950SOL    HW264629   5.893   3.199   9.186  0.1482  0.7027  1.1133
51951SOL     OW64630   4.497   7.452   7.177 -0.3447 -0.1287  0.2526
51951SOL    HW164631   4.471   7.373   7.130  0.9251 -0.4206  0.0017
51951SOL    HW264632   4.517   7.515   7.108 -1.4314  0.4561  0.4506
51952SOL     OW64633   7.815   0.533   6.444 -0.5715 -0.5187  0.1853
51952SOL    HW164634   7.887   0.488   6.400 -0.7294 -0.8644  0.2719
51952SOL    HW264635   7.794   0.607   6.387  0.4570  0.1252  0.6234
51953SOL     OW64636   1.213   1.514   1.793  0.4297  0.0185  1.0812
51953SOL    HW164637   1.151   1.584   1.771 -0.4303 -0.7899  0.8662
51953SOL    HW264638   1.267   1.505   1.714  0.8338  0.7296  1.2692
51954SOL     OW64639  12.068  12.113   7.412  0.6499  0.0301 -0.8618
51954SOL    HW164640  12.016  12.094   7.490  0.5256  0.8023 -0.7436
51954SOL    HW264641  12.135  12.175   7.442  1.3010 -0.5270 -1.1325
51955SOL     OW64642   0.153   4.926   7.441  0.0027 -0.4011 -0.9018
51955SOL    HW164643   0.136   5.016   7.469 -0.3374 -0.6041 -0.4521
51955SOL    HW264644   0.249   4.921   7.434  0.0341 -0.0671 -0.7195
51956SOL     OW64645   3.141  12.264   3.855  0.0519 -0.2602  0.0954
51956SOL    HW164646   3.176  12.309   3.931  0.7788 -0.5033 -0.0921
51956SOL    HW264647   3.205  12.278   3.785 -0.5110 -0.2003 -0.4226
51957SOL     OW64648   3.745   0.341   2.718 -0.3765  0.2075  0.2619
51957SOL    HW164649   3.655   0.318   2.695  0.1392 -1.6054 -0.1261
51957SOL    HW264650   3.766   0.284   2.792  0.1715  1.2873  0.9708
51958SOL     OW64651  12.323   3.732   2.411  0.3208 -0.0944  0.2264
51958SOL    HW164652  12.260   3.798   2.382  1.8935  1.1384 -0.6026
51958SOL    HW264653  12.408   3.772   2.393  1.3417 -1.8651  0.8891
51959SOL     OW64654   8.965   4.456   1.567  0.0818  0.1402 -0.0606
51959SOL    HW164655   8.955   4.422   1.479 -0.6279 -0.2405  0.1629
51959SOL    HW264656   8.883   4.435   1.611 -0.2098  1.7409  0.2276
51960SOL     OW64657   9.308   6.812   8.984  0.4201 -0.0291  0.3324
51960SOL    HW164658   9.266   6.844   8.904 -1.7726 -1.4863  0.8196
51960SOL    HW264659   9.275   6.870   9.053  0.5647 -0.1283  0.4849
51961SOL     OW64660   5.818  10.192   1.194 -0.2085 -0.2224  0.3087
51961SOL    HW164661   5.905  10.154   1.196  0.0697  0.3159 -0.7228
51961SOL    HW264662   5.781  10.164   1.110 -1.2591 -0.9223  0.9804
51962SOL     OW64663  10.903   6.282   8.940  0.1346 -0.3448  0.0482
51962SOL    HW164664  10.922   6.331   9.021  1.2049  0.2118 -0.5201
51962SOL    HW264665  10.870   6.198   8.970 -0.4101  0.2080  1.0613
51963SOL     OW64666   6.997  10.296   6.100  0.2320 -0.4203 -0.3733
51963SOL    HW164667   7.039  10.376   6.068  0.2918 -0.9470 -1.6870
51963SOL    HW264668   7.055  10.226   6.071 -0.2738 -0.9906 -0.0083
51964SOL     OW64669   4.744   7.935   6.243  0.7527  0.0757 -0.8126
51964SOL    HW164670   4.733   7.961   6.151  1.2740 -0.8957 -1.1640
51964SOL    HW264671   4.666   7.883   6.263  0.7709  0.0569 -0.7908
51965SOL     OW64672  10.478   1.797   8.013  0.2871 -0.3036 -0.6219
51965SOL    HW164673  10.540   1.832   8.077 -0.0534  0.5872 -0.7602
51965SOL    HW264674  10.453   1.873   7.960  0.2750 -0.9592 -1.5765
51966SOL     OW64675   0.689   4.946   2.736  0.3079  0.1748  0.1838
51966SOL    HW164676   0.740   5.001   2.796  0.0357 -1.5108  2.0878
51966SOL    HW264677   0.624   4.905   2.793  0.2107 -1.7343 -1.2464
51967SOL     OW64678  12.403   0.760  11.731 -0.2026 -0.3081  0.2379
51967SOL    HW164679  12.488   0.795  11.706 -1.2821  1.4829 -1.1698
51967SOL    HW264680  12.342   0.831  11.714 -1.8748 -1.1455  2.2615
51968SOL     OW64681   0.179  12.022  11.494 -0.1472 -0.1087  0.2920
51968SOL    HW164682   0.164  12.035  11.588 -1.8493 -1.2936  0.2379
51968SOL    HW264683   0.114  12.079  11.452 -1.0742 -1.3976 -0.0869
51969SOL     OW64684  12.454   2.044  10.151  0.1419 -0.4329 -0.2343
51969SOL    HW164685  12.469   2.048  10.057 -1.3393  1.2677 -0.4591
51969SOL    HW264686  12.372   1.994  10.160  0.8171 -1.4837  0.2467
51970SOL     OW64687   9.766   0.867   1.879  0.4858  0.2561  0.7979
51970SOL    HW164688   9.811   0.881   1.962  2.0277 -0.0243  0.0330
51970SOL    HW264689   9.756   0.954   1.841  0.5780  0.2936  0.8610
51971SOL     OW64690   6.297   7.552   2.685 -0.8365  0.6535  0.0082
51971SOL    HW164691   6.264   7.613   2.751 -0.4979  2.6765 -1.5925
51971SOL    HW264692   6.220   7.504   2.656 -1.2580  0.8759  0.7408
51972SOL     OW64693   1.745   4.391   7.750  0.3989 -0.3093  0.6264
51972SOL    HW164694   1.781   4.473   7.717 -0.7472 -0.5538 -1.3720
51972SOL    HW264695   1.659   4.414   7.785 -0.4849 -0.7967 -1.1104
51973SOL     OW64696   8.020   1.490   1.687  0.0841  0.1496 -0.2610
51973SOL    HW164697   7.943   1.531   1.726  0.3163  0.5076 -0.1717
51973SOL    HW264698   7.985   1.418   1.634 -0.1456 -1.4360  1.9011
51974SOL     OW64699   3.287   2.880   5.301 -0.0650 -0.1845  0.1946
51974SOL    HW164700   3.306   2.974   5.290 -1.2100 -0.0173 -0.5802
51974SOL    HW264701   3.320   2.840   5.220 -0.7461 -0.2450 -0.0608
51975SOL     OW64702   8.195   1.935   5.641 -0.3583 -0.4000 -0.2540
51975SOL    HW164703   8.250   1.889   5.577 -1.7457  0.8525 -2.5024
51975SOL    HW264704   8.210   2.028   5.623 -1.7980 -0.0205  0.3060
51976SOL     OW64705   3.151  11.365   7.323  0.4818  0.0920  0.1336
51976SOL    HW164706   3.165  11.316   7.404 -2.9167  0.4296  1.0847
51976SOL    HW264707   3.155  11.457   7.349 -0.7059  0.2011 -0.0202
51977SOL     OW64708   4.908   9.294   6.528  0.2238  0.5923  0.2369
51977SOL    HW164709   4.922   9.219   6.471  1.8808 -0.5318  2.0115
51977SOL    HW264710   4.842   9.347   6.483  0.4132 -0.9491 -1.9749
51978SOL     OW64711   6.128   6.038   5.826 -0.8928 -0.0933 -0.2021
51978SOL    HW164712   6.153   6.080   5.908  0.5672 -1.6034  0.1941
51978SOL    HW264713   6.116   5.945   5.849 -1.0732 -0.4349 -1.5696
51979SOL     OW64714  12.535   3.071   5.784 -0.6743  0.1886 -0.1850
51979SOL    HW164715  12.542   2.975   5.778 -1.2067  0.0140  1.3767
51979SOL    HW264716  12.441   3.088   5.777 -0.7040  0.4702  0.7317
51980SOL     OW64717   9.876   4.672   8.389 -0.1674  0.0032  0.1196
51980SOL    HW164718   9.785   4.669   8.359  0.8735  0.6470 -3.6829
51980SOL    HW264719   9.915   4.590   8.356  1.1166  0.7550 -0.3003
51981SOL     OW64720   7.165   0.211   9.558  0.0791 -0.1211  0.1934
51981SOL    HW164721   7.071   0.203   9.575  0.3251 -1.0641  1.3066
51981SOL    HW264722   7.173   0.285   9.499 -1.3734 -0.0783  0.0127
51982SOL     OW64723   5.786   9.250   5.766  0.0558 -0.0198  0.1877
51982SOL    HW164724   5.734   9.318   5.807  0.4316  1.9901 -2.3942
51982SOL    HW264725   5.727   9.210   5.702  0.5092 -0.5164  0.0729
51983SOL     OW64726   6.439   1.445   9.536  0.2985  0.2501  0.0126
51983SOL    HW164727   6.527   1.432   9.501  0.4750  1.1255  0.1032
51983SOL    HW264728   6.384   1.386   9.485  0.9423 -0.3293 -0.0243
51984SOL     OW64729  12.251   1.281   7.031 -0.1591  0.5847  0.1430
51984SOL    HW164730  12.230   1.191   7.006 -1.6789  1.2741 -1.2174
51984SOL    HW264731  12.328   1.303   6.979 -0.2084  0.2974 -0.0556
51985SOL     OW64732   1.075   6.609   8.283 -0.0691 -0.2984 -0.0949
51985SOL    HW164733   1.016   6.653   8.344  1.2900  0.3919  0.7541
51985SOL    HW264734   1.031   6.527   8.263 -1.2844  0.1623  0.5625
51986SOL     OW64735   3.805  10.578   0.075 -0.0223 -0.3339 -0.0597
51986SOL    HW164736   3.728  10.629   0.050  0.0079  0.5616  1.4958
51986SOL    HW264737   3.879  10.629   0.042 -0.0648 -0.8517 -0.9745
51987SOL     OW64738   6.942  10.343  10.810  0.2569 -0.7417 -0.4136
51987SOL    HW164739   6.970  10.270  10.866 -2.3938 -0.8237  0.9926
51987SOL    HW264740   6.929  10.304  10.724  2.4242 -1.0726 -0.6428
51988SOL     OW64741   8.802   9.651   1.184  0.2695 -0.3868 -0.4123
51988SOL    HW164742   8.716   9.612   1.201 -0.5698  1.5645  0.0787
51988SOL    HW264743   8.786   9.718   1.118  1.5903 -0.5891 -0.9738
51989SOL     OW64744   8.851  12.309   3.207  0.1998 -0.0703 -0.1172
51989SOL    HW164745   8.837  12.229   3.158  1.0937 -0.1710 -0.2257
51989SOL    HW264746   8.915  12.359   3.155  1.1118 -0.1526  0.8753
51990SOL     OW64747   3.066  11.393   4.014 -0.0454 -0.0413  0.1482
51990SOL    HW164748   3.101  11.478   4.040  0.4580  0.3573 -1.6419
51990SOL    HW264749   3.142  11.345   3.979 -0.1973 -1.4935  1.6903
51991SOL     OW64750   2.205   3.403  11.796  0.2420 -0.3195  0.2915
51991SOL    HW164751   2.127   3.420  11.849  0.5311  0.2027  0.5573
51991SOL    HW264752   2.209   3.476  11.734  0.0623 -0.7795 -0.2800
51992SOL     OW64753   6.841   3.024  11.166 -0.0791  0.4493  0.8654
51992SOL    HW164754   6.895   3.015  11.087 -2.2850  0.6597 -0.7796
51992SOL    HW264755   6.837   3.119  11.182 -0.7480  0.5165  0.3590
51993SOL     OW64756   1.349   6.165   9.621 -0.5984  0.5231 -0.3529
51993SOL    HW164757   1.417   6.223   9.589  0.1571  0.0477  0.3589
51993SOL    HW264758   1.288   6.157   9.547  0.0907  0.9823 -0.9891
51994SOL     OW64759   4.515   5.200   0.767  0.0775  0.4497 -0.0817
51994SOL    HW164760   4.603   5.200   0.805  0.5800 -0.8268 -1.1672
51994SOL    HW264761   4.483   5.111   0.781 -0.4398  0.4795 -1.0404
51995SOL     OW64762  10.282   4.971   6.968 -0.3628 -0.4774  0.2653
51995SOL    HW164763  10.214   4.919   6.925  1.0663  0.5210 -3.6825
51995SOL    HW264764  10.240   5.054   6.988 -0.3723  0.2751 -2.4883
51996SOL     OW64765   5.493   3.899  11.856  0.3035 -0.0860 -0.6215
51996SOL    HW164766   5.441   3.937  11.785 -0.5107 -0.0806 -0.0426
51996SOL    HW264767   5.436   3.831  11.893  0.8715 -0.3519 -0.2250
51997SOL     OW64768  11.977   9.700   7.399 -0.8101 -0.1223 -0.6713
51997SOL    HW164769  11.959   9.651   7.479  2.7237  0.9518  1.0036
51997SOL    HW264770  12.029   9.640   7.345 -1.7330 -0.2548 -1.4432
51998SOL     OW64771   6.585   9.544  10.017 -0.2324  0.3491  0.9514
51998SOL    HW164772   6.515   9.503  10.067  0.4805 -0.1797  1.5389
51998SOL    HW264773   6.635   9.595  10.081  0.7188 -0.3710  0.8083
51999SOL     OW64774   6.447   4.440   4.849  0.5045 -0.0924  0.9065
51999SOL    HW164775   6.411   4.519   4.808  1.7406  1.3239  2.3917
51999SOL    HW264776   6.372   4.380   4.854 -0.5838  1.1299  0.1048
52000SOL     OW64777   4.720   8.905   0.707  0.3084 -0.4780 -0.1174
52000SOL    HW164778   4.664   8.852   0.763  1.6948 -0.2131  1.6052
52000SOL    HW264779   4.805   8.859   0.708  1.0949  0.9221  0.1719
52001SOL     OW64780   6.513  12.405   6.428  0.2298 -0.3339  0.2021
52001SOL    HW164781   6.572  12.467   6.385  2.2981 -2.7605 -0.7549
52001SOL    HW264782   6.564  12.371   6.502 -0.5503 -1.3752  0.2879
52002SOL     OW64783   0.002   8.681   6.567 -0.3326  0.3538  0.3440
52002SOL    HW164784  -0.019   8.657   6.477  0.2207 -2.4348  0.8668
52002SOL    HW264785  -0.017   8.602   6.618  0.1786  1.5787  2.5583
52003SOL     OW64786  10.535  11.333   3.531 -0.2815  0.2794  0.3580
52003SOL    HW164787  10.530  11.409   3.589 -1.6517  0.5047 -0.0144
52003SOL    HW264788  10.612  11.286   3.560 -0.0452  1.2249  1.3311
52004SOL     OW64789   9.722   8.361   3.738 -0.4615  0.6278 -0.3697
52004SOL    HW164790   9.722   8.446   3.693 -1.1275 -0.0847 -1.7669
52004SOL    HW264791   9.651   8.312   3.696 -0.5657 -0.3685  0.9214
52005SOL     OW64792   4.876   0.461  11.638 -0.2523  0.2722  0.0241
52005SOL    HW164793   4.813   0.422  11.698 -0.5660  0.4321 -0.1960
52005SOL    HW264794   4.854   0.425  11.552 -1.3450  1.8317 -0.3998
52006SOL     OW64795   9.464   0.897   8.602  0.5555  0.0598  0.5825
52006SOL    HW164796   9.556   0.884   8.626  0.8805  1.7798  0.4020
52006SOL    HW264797   9.458   0.990   8.578 -0.7313 -0.5018 -1.6148
52007SOL     OW64798   4.290   8.991   3.860 -0.1932 -0.1333  0.2680
52007SOL    HW164799   4.260   8.911   3.903 -0.7746  0.6593  1.3935
52007SOL    HW264800   4.372   9.012   3.905 -0.2947  0.1616  0.3173
52008SOL     OW64801   5.082   8.295  11.516 -0.2310  0.0949 -0.5622
52008SOL    HW164802   5.102   8.383  11.549 -0.6425 -0.3154  0.9043
52008SOL    HW264803   4.989   8.300  11.492 -0.5676 -0.2077  0.5937
52009SOL     OW64804   7.041  11.990  10.195  0.1927  0.1937  0.0327
52009SOL    HW164805   7.084  11.982  10.110  0.0659  0.8479 -0.0953
52009SOL    HW264806   7.100  11.944  10.255  0.9195  0.8045 -0.1961
52010SOL     OW64807   6.564   4.017   4.568 -0.4255  0.2812  0.4489
52010SOL    HW164808   6.634   4.054   4.623  0.0211 -0.7423  0.5801
52010SOL    HW264809   6.548   3.931   4.605 -2.2597  0.7604  0.8456
52011SOL     OW64810   3.372   9.760   6.348 -0.6747  0.3104 -0.5902
52011SOL    HW164811   3.278   9.741   6.348 -0.3153 -1.9209  0.6888
52011SOL    HW264812   3.409   9.693   6.290  0.1278  1.2159 -1.1382
52012SOL     OW64813   8.153   1.572   8.851  0.1161  0.0200  0.0693
52012SOL    HW164814   8.201   1.500   8.889  0.6548  0.3708  0.0607
52012SOL    HW264815   8.218   1.640   8.836 -0.0970 -0.0606 -1.3709
52013SOL     OW64816   3.027  12.308  11.543 -0.3827 -0.6684 -0.0395
52013SOL    HW164817   3.021  12.253  11.465 -2.3697 -0.4834 -0.0597
52013SOL    HW264818   2.999  12.252  11.615 -0.9888 -0.1383  0.1526
52014SOL     OW64819   0.983   3.163   2.329 -0.3985  0.0942  0.2404
52014SOL    HW164820   0.893   3.196   2.333 -0.5480 -0.3633  0.8185
52014SOL    HW264821   1.003   3.137   2.419 -0.0675 -0.7758 -0.0683
52015SOL     OW64822   3.166   8.315   8.919 -0.1394  0.1702  0.0569
52015SOL    HW164823   3.170   8.357   9.005  0.3307  0.2295  0.0067
52015SOL    HW264824   3.097   8.249   8.928 -0.1108  0.1928  0.4703
52016SOL     OW64825   1.123   7.714   2.148  0.0104 -0.3935  0.1216
52016SOL    HW164826   1.206   7.697   2.192 -0.2398  0.9597  1.1894
52016SOL    HW264827   1.062   7.653   2.189 -0.3091  1.1165  2.0470
52017SOL     OW64828  12.535   9.506  11.459 -0.0896  0.1495  0.1347
52017SOL    HW164829  12.570   9.586  11.499 -1.1131  0.7733 -0.1762
52017SOL    HW264830  12.539   9.523  11.365 -1.4572  0.3550  0.0998
52018SOL     OW64831  11.163   3.830  10.812 -0.5260  0.0400 -0.0514
52018SOL    HW164832  11.166   3.876  10.728  0.6328  0.4719  0.1993
52018SOL    HW264833  11.247   3.851  10.853 -1.0111 -0.2916  1.1511
52019SOL     OW64834  10.425   1.782   2.418  0.4904 -0.2378 -0.0628
52019SOL    HW164835  10.445   1.689   2.410  1.9366 -0.0013  0.5322
52019SOL    HW264836  10.333   1.785   2.443  0.1989 -1.4668 -0.9296
52020SOL     OW64837   5.639   3.617   7.513 -0.1740 -0.3504 -0.3354
52020SOL    HW164838   5.590   3.538   7.534 -0.2897 -0.8897 -2.3650
52020SOL    HW264839   5.586   3.662   7.447  0.8769  0.3312 -0.7475
52021SOL     OW64840   8.379   9.305   0.685 -0.3363 -0.9795 -0.0185
52021SOL    HW164841   8.367   9.214   0.710 -1.3529 -0.6557  0.7312
52021SOL    HW264842   8.358   9.355   0.764 -1.2584 -0.0383 -0.8266
52022SOL     OW64843  12.181  11.795   4.297 -0.4798 -0.0049  0.5561
52022SOL    HW164844  12.139  11.709   4.296 -1.4637  0.3741 -3.3171
52022SOL    HW264845  12.273  11.776   4.320 -0.8514 -1.9534  0.6106
52023SOL     OW64846   3.073   5.605  10.633 -0.0261 -0.1161 -0.4628
52023SOL    HW164847   3.099   5.555  10.711 -3.1028  0.3252  1.0225
52023SOL    HW264848   3.132   5.680  10.632  1.8585 -1.5074 -0.2167
52024SOL     OW64849   0.419  10.869   7.297 -0.0452 -0.2155  0.1850
52024SOL    HW164850   0.327  10.863   7.320 -0.0604 -0.0917  0.1599
52024SOL    HW264851   0.426  10.952   7.249  0.3365  0.4892  1.4063
52025SOL     OW64852   3.383  11.861  10.430  0.0140  0.5031  0.2903
52025SOL    HW164853   3.313  11.901  10.378  1.2292  1.2357 -0.8302
52025SOL    HW264854   3.437  11.935  10.458  0.3160 -0.0480  1.1911
52026SOL     OW64855   4.980  12.000   2.393  0.4474 -0.0305  0.0910
52026SOL    HW164856   4.975  11.953   2.310  1.9908 -0.4209  0.1717
52026SOL    HW264857   5.064  12.046   2.389 -0.1609  1.1683  0.8198
52027SOL     OW64858  11.393   9.272   9.717 -0.3823 -0.2254 -0.2155
52027SOL    HW164859  11.316   9.320   9.746 -0.2664 -0.5266  0.6244
52027SOL    HW264860  11.459   9.340   9.701 -0.6781 -0.0023 -0.4858
52028SOL     OW64861  11.407   4.846   4.794 -0.0622 -0.1112  0.2932
52028SOL    HW164862  11.466   4.921   4.805  0.1039 -0.2924  0.6807
52028SOL    HW264863  11.412   4.800   4.878 -0.3908 -0.3916  0.1592
52029SOL     OW64864   4.073   4.350   6.833 -0.1455 -0.4286  0.1577
52029SOL    HW164865   3.986   4.330   6.869 -0.6220  1.6768  0.3350
52029SOL    HW264866   4.082   4.445   6.844  1.7535 -0.4436 -0.8267
52030SOL     OW64867   5.429   4.729   6.135 -0.5254  0.4638 -0.3350
52030SOL    HW164868   5.487   4.743   6.060 -0.5324 -0.9032 -0.6241
52030SOL    HW264869   5.345   4.764   6.107 -0.4588  0.2119 -0.8710
52031SOL     OW64870   2.017   3.139   1.111 -0.2325  0.4465  0.2088
52031SOL    HW164871   2.098   3.182   1.080 -0.4405  0.3528 -0.4933
52031SOL    HW264872   2.022   3.146   1.206 -0.0216  1.6035  0.1405
52032SOL     OW64873   8.175   0.787   5.947  0.0991 -0.1274 -0.0094
52032SOL    HW164874   8.219   0.807   5.864 -0.7070  1.5594 -0.0704
52032SOL    HW264875   8.236   0.728   5.992  1.3057  0.2200 -1.1014
52033SOL     OW64876   8.698   9.738   3.832 -0.0028  0.2580  0.3969
52033SOL    HW164877   8.609   9.703   3.821 -0.2517  1.2719 -0.9619
52033SOL    HW264878   8.688   9.832   3.821  0.7096  0.8394  3.7097
52034SOL     OW64879  10.871   9.433   4.792  0.0214  0.0567 -0.1531
52034SOL    HW164880  10.939   9.389   4.741 -0.2055  0.7078 -1.0334
52034SOL    HW264881  10.791   9.421   4.739 -0.4680 -0.3118  0.6476
52035SOL     OW64882   9.250   2.485   5.101 -0.4079  0.5997  0.4435
52035SOL    HW164883   9.303   2.545   5.155 -0.4955  0.3163  0.8476
52035SOL    HW264884   9.166   2.480   5.147 -0.1579 -0.4020  0.8096
52036SOL     OW64885   5.139  10.442   5.012 -0.2842 -0.3613  0.1656
52036SOL    HW164886   5.099  10.436   5.099 -0.1261  0.0038  0.2671
52036SOL    HW264887   5.107  10.365   4.966  0.3107 -1.0206  0.8241
52037SOL     OW64888   8.352   1.249   6.302 -0.0398  0.3582 -0.4436
52037SOL    HW164889   8.366   1.324   6.360  0.4239 -0.2984  0.3248
52037SOL    HW264890   8.421   1.257   6.235  1.0278 -0.2198  0.5454
52038SOL     OW64891   8.286   9.223   7.793  0.5175  0.1700 -0.7027
52038SOL    HW164892   8.367   9.174   7.779 -0.5684 -2.1846  0.5246
52038SOL    HW264893   8.265   9.208   7.885 -1.8435 -0.2594 -1.2471
52039SOL     OW64894   6.291   1.226   4.892 -0.3565  0.5243  0.4318
52039SOL    HW164895   6.375   1.238   4.937 -1.0373  0.5148  1.7382
52039SOL    HW264896   6.244   1.163   4.945 -0.4765 -0.9342 -1.3214
52040SOL     OW64897   2.803   3.656  10.263 -0.6528  0.0142 -0.3248
52040SOL    HW164898   2.822   3.625  10.175 -0.9352 -0.9410 -0.0689
52040SOL    HW264899   2.735   3.596  10.295  0.7428 -0.8529  1.1995
52041SOL     OW64900  12.234   7.561   1.804 -0.2256  0.6886 -0.1251
52041SOL    HW164901  12.316   7.530   1.767  0.0888  1.6652 -0.2718
52041SOL    HW264902  12.167   7.528   1.745 -0.1092 -1.4314  0.8160
52042SOL     OW64903  11.658   5.207   6.097 -0.3524  0.3846 -0.1148
52042SOL    HW164904  11.616   5.162   6.024 -0.1132  1.9066 -1.2330
52042SOL    HW264905  11.590   5.213   6.164 -0.7770 -0.4517 -0.4631
52043SOL     OW64906   2.412  12.315   4.444  0.3055  1.2025 -0.4998
52043SOL    HW164907   2.360  12.386   4.483  0.1500  1.0474 -0.4257
52043SOL    HW264908   2.362  12.289   4.367 -1.1752 -0.8077  1.0303
52044SOL     OW64909   9.680   1.420   4.648 -0.1703  0.6135  0.5439
52044SOL    HW164910   9.663   1.500   4.598 -0.8553 -0.9653 -1.8800
52044SOL    HW264911   9.602   1.366   4.636  1.5848 -1.8140 -0.7878
52045SOL     OW64912   8.650   0.919   3.910 -0.2253  0.1859  0.4745
52045SOL    HW164913   8.656   0.857   3.837  0.2272  0.7779 -0.0014
52045SOL    HW264914   8.614   0.867   3.982  0.7335 -0.7979  0.2739
52046SOL     OW64915   1.277   3.429   9.253  0.2501  0.1880 -0.0935
52046SOL    HW164916   1.318   3.343   9.254 -1.0964 -0.5353 -1.6727
52046SOL    HW264917   1.244   3.439   9.163 -1.3936  1.4614  0.5949
52047SOL     OW64918  10.277   0.608   3.021 -0.1661 -0.2581  0.2780
52047SOL    HW164919  10.303   0.516   3.032 -1.8562 -0.6546  1.3110
52047SOL    HW264920  10.330   0.656   3.085  0.2392 -0.5983  0.2046
52048SOL     OW64921   4.461   8.797   0.308 -0.4008  0.2404  0.3888
52048SOL    HW164922   4.486   8.857   0.237 -2.9824  0.4814 -0.4367
52048SOL    HW264923   4.458   8.853   0.386  2.1002  0.0483  0.6945
52049SOL     OW64924   3.618   9.581   6.429 -0.0559  0.2041 -0.6833
52049SOL    HW164925   3.547   9.600   6.490 -0.1768  0.5362 -0.9237
52049SOL    HW264926   3.637   9.488   6.442 -0.1630  0.2468 -0.2329
52050SOL     OW64927   1.938   6.168   0.494  0.0171 -0.2984  0.1149
52050SOL    HW164928   1.981   6.245   0.459 -1.9071  1.7595  1.9549
52050SOL    HW264929   1.970   6.162   0.584  0.7475 -2.1910 -0.2246
52051SOL     OW64930  12.172   4.126  10.603 -0.0642 -0.0516 -0.4595
52051SOL    HW164931  12.127   4.058  10.653 -0.1091  1.0387  1.0638
52051SOL    HW264932  12.103   4.186  10.576  0.3249  1.2916  1.3472
52052SOL     OW64933   1.053  11.961   9.882 -0.3148 -0.2008 -0.1837
52052SOL    HW164934   1.136  11.919   9.861  0.0266  0.9288 -1.2229
52052SOL    HW264935   0.987  11.911   9.834  0.0095  0.0421 -0.9027
52053SOL     OW64936   1.600   2.373   9.795  0.2273 -0.4319  0.2169
52053SOL    HW164937   1.518   2.344   9.755 -0.5892 -1.4650  2.4406
52053SOL    HW264938   1.582   2.462   9.826 -0.7450 -1.2442  2.2151
52054SOL     OW64939   5.991   9.635   1.842 -0.4166  0.1646  0.4729
52054SOL    HW164940   5.990   9.721   1.884  0.9443  1.1353 -1.3617
52054SOL    HW264941   6.077   9.599   1.862 -0.4085 -0.1130 -0.0611
52055SOL     OW64942   0.411   9.895  11.788  0.8028  0.2941 -0.4101
52055SOL    HW164943   0.488   9.935  11.829  0.1835  0.2544  0.8616
52055SOL    HW264944   0.337   9.933  11.835  0.0809 -0.1953 -1.1301
52056SOL     OW64945  11.236   2.809   4.790 -0.2318 -0.1852  0.4883
52056SOL    HW164946  11.149   2.776   4.766 -0.2166  1.0280 -1.4301
52056SOL    HW264947  11.294   2.775   4.722  0.5562  0.2316  0.9400
52057SOL     OW64948   1.144   6.902   2.986 -0.0351 -0.9850  0.3156
52057SOL    HW164949   1.088   6.964   3.032  0.7913  0.3509 -0.4396
52057SOL    HW264950   1.184   6.850   3.056  1.9754  1.6505  1.2703
52058SOL     OW64951  11.912   4.751   8.873 -0.1922 -0.2185  0.2059
52058SOL    HW164952  11.829   4.757   8.920  0.4430 -0.5980  1.4208
52058SOL    HW264953  11.913   4.662   8.838 -1.3408  0.5164 -1.9164
52059SOL     OW64954   4.282   8.962   7.160 -0.1150  0.1766  0.2240
52059SOL    HW164955   4.323   9.044   7.134  0.2518 -0.0900 -0.0478
52059SOL    HW264956   4.215   8.946   7.093  0.3456 -0.1430 -0.1706
52060SOL     OW64957   6.630   6.236  11.482  0.2523  0.1909  0.3109
52060SOL    HW164958   6.619   6.212  11.390 -1.4956  0.2211  0.4809
52060SOL    HW264959   6.586   6.167  11.531 -1.2106  1.5327  0.9872
52061SOL     OW64960   0.101   9.404   1.375  0.1968  0.7129 -0.0810
52061SOL    HW164961   0.040   9.386   1.447  0.0760  1.4255  0.0070
52061SOL    HW264962   0.184   9.422   1.418  0.7659 -1.2776 -0.2446
52062SOL     OW64963   3.968   3.826   3.505 -0.1392 -0.9273  0.5955
52062SOL    HW164964   3.877   3.855   3.501  0.6642  1.6601 -0.9272
52062SOL    HW264965   3.993   3.835   3.597 -0.5144  1.6346  0.5167
52063SOL     OW64966   8.336   3.830   2.370 -0.5340  0.3807 -0.4747
52063SOL    HW164967   8.326   3.904   2.311  1.8593  0.1567 -1.2617
52063SOL    HW264968   8.311   3.754   2.317 -0.4808  0.3841 -0.5049
52064SOL     OW64969   0.040   9.300   7.013 -0.3747  0.5899 -0.0276
52064SOL    HW164970   0.026   9.394   7.004  0.6433  0.7801  0.2270
52064SOL    HW264971   0.093   9.291   7.092 -1.4351 -0.3069  0.6195
52065SOL     OW64972   1.259   9.500   1.979  0.7470 -0.0166  0.0076
52065SOL    HW164973   1.168   9.526   1.966  0.6966 -0.7183 -1.2017
52065SOL    HW264974   1.292   9.560   2.046 -1.4190 -1.6297  2.7737
52066SOL     OW64975   3.996  11.615  10.342 -0.0052  0.4337  0.1145
52066SOL    HW164976   4.028  11.576  10.423 -0.7001  1.2484  0.7992
52066SOL    HW264977   3.926  11.556  10.313  0.0715  0.2802  0.2371
52067SOL     OW64978   4.779   4.254  10.087  0.2059 -0.1311 -0.1863
52067SOL    HW164979   4.831   4.322  10.043  0.4086  0.6982  1.2424
52067SOL    HW264980   4.844   4.201  10.133 -0.0894  0.0083  0.4057
52068SOL     OW64981   9.215   8.929  11.236 -0.2658 -0.6239  0.2881
52068SOL    HW164982   9.269   8.880  11.173 -0.1446 -0.5982  0.3709
52068SOL    HW264983   9.278   8.984  11.283 -0.4344 -0.2085  0.0285
52069SOL     OW64984  12.385   1.231   9.435 -0.1042 -0.2272  0.1084
52069SOL    HW164985  12.356   1.141   9.450 -0.5727 -0.2614 -0.9383
52069SOL    HW264986  12.316   1.270   9.381 -0.0270  0.8384  0.7528
52070SOL     OW64987  12.339   5.933   9.226 -0.6573  0.5877  0.1444
52070SOL    HW164988  12.367   5.842   9.230  0.5377  0.9729  0.8262
52070SOL    HW264989  12.257   5.935   9.275 -0.5501 -0.0656  0.3570
52071SOL     OW64990   2.906  10.521   3.725 -0.4787 -0.3650 -0.6944
52071SOL    HW164991   2.872  10.476   3.803  0.3791  0.1217 -0.0273
52071SOL    HW264992   2.834  10.515   3.662 -0.9678 -1.2942 -0.0800
52072SOL     OW64993   2.963   2.396   1.049  0.0637  0.2378 -0.2251
52072SOL    HW164994   3.021   2.467   1.020 -0.1845  0.4844 -0.1274
52072SOL    HW264995   3.021   2.336   1.095  0.1277  0.8673  0.5477
52073SOL     OW64996   4.103   3.444   9.457  0.1301 -0.0145 -0.0811
52073SOL    HW164997   4.180   3.500   9.462  1.1365 -1.1557 -1.7618
52073SOL    HW264998   4.074   3.450   9.366 -1.0491 -0.5576  0.2325
52074SOL     OW64999  10.000   2.946   9.156 -0.5283  0.0152 -0.0296
52074SOL    HW165000   9.996   3.001   9.235  2.9826 -0.9800  1.0206
52074SOL    HW265001   9.992   2.857   9.189  1.0560 -0.4151 -0.7269
52075SOL     OW65002   5.349  12.077   1.814  0.0783 -0.2321 -1.1470
52075SOL    HW165003   5.257  12.080   1.839  0.5719 -2.3888  1.4676
52075SOL    HW265004   5.357  12.140   1.742 -3.2538  0.5158 -1.0229
52076SOL     OW65005   3.481   2.996   4.713 -0.1659  0.4728 -0.2867
52076SOL    HW165006   3.561   2.982   4.663 -0.2924 -0.6241 -0.1916
52076SOL    HW265007   3.459   3.088   4.697  2.1409  1.3789  1.2072
52077SOL     OW65008   0.824   3.220   1.947 -0.2927 -0.3613 -0.6320
52077SOL    HW165009   0.777   3.229   2.030  0.7058  0.0603 -0.1013
52077SOL    HW265010   0.771   3.271   1.885 -0.4425  0.2751 -0.0004
52078SOL     OW65011   5.224  11.838   3.976 -0.1379 -0.1468  0.1294
52078SOL    HW165012   5.223  11.862   3.883  0.8107 -0.6984 -0.0376
52078SOL    HW265013   5.313  11.858   4.005 -0.0249 -1.2209  0.5835
52079SOL     OW65014   2.127   6.793   6.077 -0.4856 -0.2801 -0.1161
52079SOL    HW165015   2.073   6.715   6.088 -0.1983 -0.3727  0.7067
52079SOL    HW265016   2.209   6.772   6.122  0.5264 -0.4063 -1.9558
52080SOL     OW65017   4.976  12.259  10.674  0.4225 -0.2802 -0.3880
52080SOL    HW165018   5.037  12.187  10.661  0.7573 -0.1635  0.5199
52080SOL    HW265019   4.986  12.312  10.594  2.1701  0.2185  0.1171
52081SOL     OW65020  11.742   4.794  10.139  0.2307  0.7134  0.2669
52081SOL    HW165021  11.745   4.704  10.173 -1.2790  0.5332  0.0077
52081SOL    HW265022  11.750   4.783  10.044 -2.7458  0.5429 -0.0552
52082SOL     OW65023   4.074   1.302   2.036 -0.4325 -0.3606  0.0816
52082SOL    HW165024   4.094   1.395   2.032  0.4764 -0.5617 -0.3130
52082SOL    HW265025   4.014   1.286   1.964  0.7193 -0.3751 -0.9057
52083SOL     OW65026   0.720  11.691   8.633 -0.1560  0.0061 -0.1343
52083SOL    HW165027   0.790  11.628   8.652 -0.5728 -0.8471 -1.3068
52083SOL    HW265028   0.733  11.761   8.697  0.3956 -1.2030  1.1341
52084SOL     OW65029  11.014   6.214  10.524  0.9169 -0.1409 -0.0368
52084SOL    HW165030  11.063   6.208  10.607 -0.0984 -1.2563  0.5166
52084SOL    HW265031  11.068   6.166  10.461  1.4072  0.2026  0.1108
52085SOL     OW65032   9.539   0.627   3.143 -0.1269 -0.2199 -0.0520
52085SOL    HW165033   9.510   0.657   3.057 -1.7460 -0.2849  0.4334
52085SOL    HW265034   9.585   0.545   3.127  0.9322  0.5331 -0.9958
52086SOL     OW65035  10.827   2.523   6.526 -0.5040  0.3049 -0.1539
52086SOL    HW165036  10.815   2.444   6.474  0.8757 -1.3962  1.9662
52086SOL    HW265037  10.922   2.537   6.528 -0.7328  2.3438 -0.8761
52087SOL     OW65038   4.010   8.296   1.692  0.1371  0.3479  0.1046
52087SOL    HW165039   4.083   8.354   1.714  2.5780 -2.7117  0.7432
52087SOL    HW265040   3.986   8.254   1.774 -1.9927  0.7912 -0.2220
52088SOL     OW65041   1.419   4.573   5.121  0.6655  0.1212  0.3921
52088SOL    HW165042   1.485   4.518   5.080  0.3948  0.4589 -0.5045
52088SOL    HW265043   1.345   4.573   5.060  0.2336  0.5790  0.8994
52089SOL     OW65044   6.244  10.310   7.096 -0.0742 -0.1308  0.1016
52089SOL    HW165045   6.257  10.223   7.060 -0.0745 -0.3768  0.6900
52089SOL    HW265046   6.328  10.332   7.136 -0.7269 -0.7819  1.9041
52090SOL     OW65047   9.554  12.450   9.369  0.3339 -0.1065 -0.5210
52090SOL    HW165048   9.511  12.535   9.381 -0.0905 -0.3537 -0.2750
52090SOL    HW265049   9.483  12.389   9.354  0.4992 -0.7394  1.1026
52091SOL     OW65050   3.569   3.220   1.731 -0.1941 -0.0136  0.1662
52091SOL    HW165051   3.497   3.157   1.727 -0.5260  0.4022 -0.4553
52091SOL    HW265052   3.635   3.185   1.672 -1.8330  2.0026 -3.1823
52092SOL     OW65053   5.877   3.199  12.323 -0.1255  0.1495  0.0275
52092SOL    HW165054   5.955   3.233  12.278 -0.5270  1.6039  0.3830
52092SOL    HW265055   5.887   3.230  12.413  0.9188 -3.1314  1.1792
52093SOL     OW65056   8.225   1.557  10.360  0.1916 -0.2464 -0.3839
52093SOL    HW165057   8.153   1.495  10.355 -1.4390  1.2916  1.7076
52093SOL    HW265058   8.197   1.632  10.307  1.4389 -0.6128 -1.6227
52094SOL     OW65059   0.515   1.250  12.390 -0.2684  0.5276 -0.4600
52094SOL    HW165060   0.513   1.236  12.296 -1.0953  0.1314 -0.3914
52094SOL    HW265061   0.442   1.309  12.407 -2.1953 -1.9037  0.2978
52095SOL     OW65062   2.031   4.406   9.568 -0.9228  0.3017 -0.3363
52095SOL    HW165063   1.968   4.398   9.496  0.9841 -0.2080 -2.0623
52095SOL    HW265064   2.112   4.369   9.532  0.1421  0.1260  2.0727
52096SOL     OW65065   5.680   1.641   3.065 -0.5216  0.0984 -0.1637
52096SOL    HW165066   5.605   1.582   3.070 -2.2253  2.0949 -0.6070
52096SOL    HW265067   5.668   1.702   3.138 -0.2032  1.3674 -1.1260
52097SOL     OW65068   1.468  11.799  11.569  0.6122 -0.4625 -0.9304
52097SOL    HW165069   1.540  11.858  11.544 -1.3186  1.3460 -2.6580
52097SOL    HW265070   1.454  11.745  11.491  0.7256 -1.4804 -0.2488
52098SOL     OW65071   2.917   5.115   3.368 -0.5471 -0.3320  0.2056
52098SOL    HW165072   2.926   5.020   3.355  2.1756 -0.2384  0.7475
52098SOL    HW265073   3.004   5.143   3.397 -1.1740  2.4086 -0.3105
52099SOL     OW65074   8.899   8.767  11.461 -0.1378 -0.6058 -0.4022
52099SOL    HW165075   8.845   8.845  11.447  0.3966  0.4216  2.4620
52099SOL    HW265076   8.838   8.702  11.496 -0.2138 -0.7966 -0.8830
52100SOL     OW65077   4.704   4.455   0.636 -0.2406  0.6570  0.2000
52100SOL    HW165078   4.706   4.505   0.555  0.3905  0.6389  0.2048
52100SOL    HW265079   4.694   4.364   0.609 -0.9600  0.7342  0.1785
52101SOL     OW65080  10.963   9.136  11.795 -0.7600 -0.2288 -0.3040
52101SOL    HW165081  10.890   9.195  11.814 -0.5482 -0.3566  1.0341
52101SOL    HW265082  11.037   9.195  11.775 -1.0406 -0.0916 -0.9696
52102SOL     OW65083   4.819   1.228   3.447  0.1552 -0.4926  0.0081
52102SOL    HW165084   4.743   1.188   3.489  0.6076 -2.5903 -1.0481
52102SOL    HW265085   4.865   1.155   3.405  0.8274  1.1947 -2.3818
52103SOL     OW65086   4.000  11.500  12.310 -0.6971  0.0399  0.1026
52103SOL    HW165087   3.992  11.496  12.214 -0.8455  0.7242  0.0844
52103SOL    HW265088   3.911  11.515  12.341 -0.4928  0.9221  0.2786
52104SOL     OW65089   9.478  12.531   5.965  0.2085 -0.0743  0.4895
52104SOL    HW165090   9.440  12.493   6.044  1.3328 -0.5658  0.8116
52104SOL    HW265091   9.572  12.537   5.983  0.1534  2.5277  0.2919
52105SOL     OW65092   3.278   9.773   7.539 -0.5419  0.3921 -0.3197
52105SOL    HW165093   3.333   9.764   7.617 -0.3435  0.0061 -0.5001
52105SOL    HW265094   3.223   9.849   7.557 -2.0178 -0.9265  1.1308
52106SOL     OW65095   9.287   6.286   6.956  0.7526 -0.2522 -0.0342
52106SOL    HW165096   9.198   6.271   6.986  0.2068  0.0177 -1.4655
52106SOL    HW265097   9.320   6.356   7.013  0.8294 -1.7733  1.9058
52107SOL     OW65098   8.055  12.367   1.584  0.0568  0.2326  0.0115
52107SOL    HW165099   8.012  12.400   1.505  0.8950 -1.9061 -1.4390
52107SOL    HW265100   7.983  12.346   1.643 -0.7906 -0.7990 -1.3333
52108SOL     OW65101   8.703   8.330   0.480 -0.0903  0.1440 -0.2033
52108SOL    HW165102   8.608   8.337   0.481 -0.0858  0.8127 -1.5390
52108SOL    HW265103   8.729   8.330   0.572 -1.3314  0.6891  0.1623
52109SOL     OW65104   9.364  10.653   0.090 -0.8832 -0.4346  0.6325
52109SOL    HW165105   9.388  10.746   0.086 -1.1435 -0.3905 -0.0635
52109SOL    HW265106   9.369  10.631   0.182  1.7147 -0.3904  0.5611
52110SOL     OW65107   9.580   5.962   3.773  0.2587  0.2537  0.0004
52110SOL    HW165108   9.525   5.930   3.845  2.1761  1.0811  1.9718
52110SOL    HW265109   9.563   6.056   3.770  1.0333  0.4119  0.1985
52111SOL     OW65110   2.328  11.583   4.356  0.4795  0.3890 -0.2294
52111SOL    HW165111   2.348  11.517   4.423 -2.1923 -0.7535 -0.4307
52111SOL    HW265112   2.268  11.644   4.400 -1.0501 -0.1959 -1.4151
52112SOL     OW65113   1.466   6.558   7.113  0.3534  0.5109  0.4370
52112SOL    HW165114   1.410   6.594   7.181  0.5920  1.9076 -0.0843
52112SOL    HW265115   1.428   6.472   7.094 -1.4275  1.2679  0.3479
52113SOL     OW65116  12.225   7.964   7.839  0.2775 -0.0435  0.5777
52113SOL    HW165117  12.199   7.991   7.927  0.0551 -0.5553  0.6672
52113SOL    HW265118  12.219   7.869   7.839  1.7282 -0.1563  0.4648
52114SOL     OW65119   6.932   4.859   6.206  0.4616 -0.8737 -0.1189
52114SOL    HW165120   6.987   4.822   6.276  0.4048 -2.0002 -0.6436
52114SOL    HW265121   6.874   4.787   6.181  0.1697 -0.3412 -1.0059
52115SOL     OW65122   2.602  12.529   0.277  0.3929  0.0602  0.2147
52115SOL    HW165123   2.529  12.480   0.239 -0.0939  0.6746  0.3360
52115SOL    HW265124   2.607  12.609   0.225  0.6023  0.2885  0.5842
52116SOL     OW65125  10.982   6.043   6.788 -0.0327  0.0564 -0.9247
52116SOL    HW165126  11.007   6.095   6.865  2.0309 -0.4234 -1.1987
52116SOL    HW265127  10.888   6.029   6.797 -0.3911  2.6202 -0.1149
52117SOL     OW65128   5.394  12.210   5.519 -0.2802  0.2014  0.5569
52117SOL    HW165129   5.398  12.203   5.424 -1.5352 -0.1786  0.5185
52117SOL    HW265130   5.484  12.195   5.548  0.1878  0.6907 -0.5844
52118SOL     OW65131   7.086  10.758   1.308 -0.5676 -0.5679  0.1901
52118SOL    HW165132   7.130  10.676   1.328  1.6121  0.4238 -0.1460
52118SOL    HW265133   7.107  10.815   1.382  0.9723  0.7179 -1.1461
52119SOL     OW65134   1.336   3.026   3.027 -0.2256 -0.4664 -0.4985
52119SOL    HW165135   1.376   2.945   2.995 -1.2197 -1.0863 -0.2358
52119SOL    HW265136   1.403   3.093   3.014  0.2737 -1.1469 -1.6177
52120SOL     OW65137  12.530   0.287   1.720 -0.0271  1.4493  0.1667
52120SOL    HW165138  12.554   0.369   1.677 -0.7466  1.6325  0.0928
52120SOL    HW265139  12.583   0.285   1.799  1.4731  1.0108 -0.8008
52121SOL     OW65140  11.691   7.558   8.828  0.2849 -0.2654 -1.2649
52121SOL    HW165141  11.740   7.600   8.756 -0.5902  1.6346 -0.8051
52121SOL    HW265142  11.707   7.464   8.815 -0.6911 -0.1095 -4.5859
52122SOL     OW65143   4.045   8.389   7.220  0.0469 -0.1239  0.0268
52122SOL    HW165144   3.976   8.428   7.166  0.1093 -0.1664 -0.0836
52122SOL    HW265145   4.021   8.297   7.224  0.7172 -0.3581 -0.9656
52123SOL     OW65146   2.400   2.240   4.901 -0.0472 -0.3090 -0.3084
52123SOL    HW165147   2.350   2.321   4.907 -0.1817 -0.3566 -0.7707
52123SOL    HW265148   2.479   2.256   4.952 -0.0870  0.1005 -0.3770
52124SOL     OW65149   8.905   0.724   7.906 -0.6125 -0.0423 -0.4138
52124SOL    HW165150   8.916   0.819   7.917  0.2034 -0.2656  0.9789
52124SOL    HW265151   8.860   0.715   7.822 -2.8921  1.7008  0.5055
52125SOL     OW65152   2.292   6.708   2.721  0.0585 -0.2662  0.1417
52125SOL    HW165153   2.223   6.702   2.655  0.3500 -0.0936 -0.1848
52125SOL    HW265154   2.288   6.799   2.752  1.6015  0.4286 -1.5141
52126SOL     OW65155   2.050   6.418  11.468  0.5165 -0.1416  0.0535
52126SOL    HW165156   1.957   6.440  11.473  0.4176 -0.5185 -0.0384
52126SOL    HW265157   2.052   6.324  11.488  0.8763 -0.1342  0.0444
52127SOL     OW65158   1.141   8.383   5.510  0.1329  0.3379 -0.5239
52127SOL    HW165159   1.064   8.396   5.566 -0.2100 -1.1620 -0.6054
52127SOL    HW265160   1.105   8.369   5.423  0.6062  1.4622 -0.9062
52128SOL     OW65161   9.392   9.257  10.716  0.7300 -0.1805 -0.2961
52128SOL    HW165162   9.378   9.203  10.794  3.8557 -2.8845 -1.4254
52128SOL    HW265163   9.311   9.248  10.666 -0.3567 -0.4306  1.3948
52129SOL     OW65164   3.460  10.318   0.402  0.2091  0.2700 -0.2813
52129SOL    HW165165   3.500  10.292   0.319 -0.9766 -0.2498 -0.7125
52129SOL    HW265166   3.367  10.299   0.391 -0.3289  2.2387  0.3679
52130SOL     OW65167   8.362   8.927  11.725  0.0661 -0.2958  0.0191
52130SOL    HW165168   8.414   8.978  11.786 -0.5361 -1.6784  1.7908
52130SOL    HW265169   8.409   8.844  11.715 -0.9516 -0.9483  0.3937
52131SOL     OW65170   9.141   6.535   9.731  0.2041  0.2914  0.2708
52131SOL    HW165171   9.089   6.487   9.666 -0.4934  1.0798  0.2413
52131SOL    HW265172   9.212   6.575   9.680  0.6088 -0.4336  0.2496
52132SOL     OW65173  10.786   4.480  12.249  0.1028 -0.2307  0.2635
52132SOL    HW165174  10.750   4.457  12.334 -0.7718 -0.2728 -0.1055
52132SOL    HW265175  10.732   4.432  12.186 -0.1960  0.9197 -0.3896
52133SOL     OW65176  10.760   9.458   2.378 -0.2394  0.4589  0.8210
52133SOL    HW165177  10.805   9.486   2.458 -1.8459  1.7065  1.3512
52133SOL    HW265178  10.714   9.378   2.402 -1.2690  1.1910  1.4003
52134SOL     OW65179   1.276   4.488   8.638 -0.0759  0.3478  0.0444
52134SOL    HW165180   1.313   4.467   8.553  1.0100  0.2026  0.5315
52134SOL    HW265181   1.247   4.579   8.630  0.6531  0.5577 -0.2790
52135SOL     OW65182   2.790  11.471   3.902  0.4090  0.2757 -0.2929
52135SOL    HW165183   2.871  11.420   3.913  0.8050  0.5154 -1.8506
52135SOL    HW265184   2.721  11.415   3.938  1.1408 -0.3775  0.1107
52136SOL     OW65185   8.530   3.156   5.427  0.3734 -0.0242 -0.2926
52136SOL    HW165186   8.608   3.109   5.397 -0.0019  0.4963 -2.2241
52136SOL    HW265187   8.552   3.248   5.416 -0.0761  0.1729  0.3723
52137SOL     OW65188  10.688   4.255   5.175  0.3456  0.2223  0.8820
52137SOL    HW165189  10.687   4.338   5.128 -0.6243  0.3524  1.1132
52137SOL    HW265190  10.776   4.249   5.212  0.3562  1.2570  1.0493
52138SOL     OW65191   7.807  11.159   9.254 -0.1134 -0.3135  0.8555
52138SOL    HW165192   7.744  11.182   9.322  0.2998  1.5890  0.6469
52138SOL    HW265193   7.891  11.188   9.287 -0.0760  1.9568 -0.9491
52139SOL     OW65194  11.166   0.993   0.252 -0.3679 -0.6111 -0.3416
52139SOL    HW165195  11.146   1.077   0.212 -0.6469 -1.0439 -1.1445
52139SOL    HW265196  11.227   1.013   0.323  0.5038  0.1400 -1.2739
52140SOL     OW65197   7.348   5.192   4.406 -0.5763 -0.2186 -0.7307
52140SOL    HW165198   7.382   5.196   4.317 -2.5713 -1.7934 -1.6365
52140SOL    HW265199   7.257   5.219   4.399 -1.1750 -1.7504  0.5583
52141SOL     OW65200   7.390   6.634   6.798  0.6659  0.0530  0.0542
52141SOL    HW165201   7.435   6.605   6.878  0.7466 -2.2739 -0.7516
52141SOL    HW265202   7.448   6.608   6.727 -2.0896 -3.9126 -1.0980
52142SOL     OW65203   7.513   0.334   8.327 -0.3161  0.6582  0.2079
52142SOL    HW165204   7.499   0.245   8.294 -0.4413  0.7103  0.1235
52142SOL    HW265205   7.546   0.320   8.416 -0.2346  0.5244  0.1579
52143SOL     OW65206   9.524   0.662   4.739  0.0107  0.2746 -0.1278
52143SOL    HW165207   9.563   0.744   4.708 -0.5112  0.5196 -0.1499
52143SOL    HW265208   9.435   0.662   4.702 -0.3437  0.1837  0.7044
52144SOL     OW65209  10.401   0.777   4.442 -0.0849 -0.2556  0.2778
52144SOL    HW165210  10.492   0.748   4.450 -1.0954 -3.5811  1.0891
52144SOL    HW265211  10.391   0.843   4.511  1.4981 -0.3736  0.6581
52145SOL     OW65212   5.494   5.691  10.077  0.4147 -0.0862 -0.5831
52145SOL    HW165213   5.577   5.673  10.120  1.4188  0.8418 -2.0602
52145SOL    HW265214   5.500   5.782  10.049 -1.0834 -0.0118 -0.7755
52146SOL     OW65215   7.616   1.849   5.145 -0.1078 -0.1640  0.3037
52146SOL    HW165216   7.662   1.804   5.216  0.3610  0.1851  0.2283
52146SOL    HW265217   7.686   1.884   5.090 -0.4647  0.8847  0.5039
52147SOL     OW65218   9.208   0.647  12.563  0.2482  0.3613  0.5808
52147SOL    HW165219   9.193   0.563  12.606 -0.2837  0.6240  0.9221
52147SOL    HW265220   9.212   0.626  12.470 -0.8904  0.0723  0.5721
52148SOL     OW65221   0.971   5.946   2.493 -0.2143 -0.6326  0.6882
52148SOL    HW165222   1.021   5.910   2.420  1.4203  2.6450 -0.0190
52148SOL    HW265223   0.883   5.959   2.458 -0.2413 -1.7906  0.2908
52149SOL     OW65224   7.963  11.151  11.353 -0.6122  0.1351 -1.1246
52149SOL    HW165225   7.891  11.135  11.415 -0.1713 -0.7771 -0.8463
52149SOL    HW265226   7.919  11.167  11.270 -1.1327 -0.6563 -1.0061
52150SOL     OW65227   3.105   6.729   1.624 -0.4537  0.0626 -0.2627
52150SOL    HW165228   3.200   6.744   1.627 -0.5052  0.4626 -0.5461
52150SOL    HW265229   3.096   6.634   1.618 -0.0920 -0.0299  0.6068
52151SOL     OW65230   6.396   6.779   3.664 -0.0513 -0.1714  0.1277
52151SOL    HW165231   6.310   6.752   3.631 -0.7992  0.9479  1.0754
52151SOL    HW265232   6.429   6.839   3.597 -0.1804 -0.2795 -0.0368
52152SOL     OW65233  10.920   7.788  10.355 -0.1306 -0.2842 -0.0583
52152SOL    HW165234  10.945   7.696  10.345  0.3343 -0.0775 -0.8639
52152SOL    HW265235  10.986   7.824  10.414 -0.8822 -0.6842  1.0674
52153SOL     OW65236   6.092  11.978   4.773 -0.0242  0.0385 -0.3148
52153SOL    HW165237   6.114  11.886   4.788 -0.7957  0.0266  0.9300
52153SOL    HW265238   6.166  12.027   4.809 -0.4630 -0.0680  0.7581
52154SOL     OW65239   9.294   3.610   9.827 -0.1026  0.3487  0.0504
52154SOL    HW165240   9.354   3.681   9.803  1.0009 -0.2410  0.9669
52154SOL    HW265241   9.339   3.530   9.801 -0.6250 -0.0941  0.4709
52155SOL     OW65242   9.497  11.899  12.293 -0.4034 -0.3997  0.5122
52155SOL    HW165243   9.566  11.838  12.270 -0.1733  0.3712 -0.9064
52155SOL    HW265244   9.542  11.972  12.336 -0.3828 -0.1196  0.0214
52156SOL     OW65245   8.064  12.507  10.354  0.0061  0.4473  0.0059
52156SOL    HW165246   8.001  12.560  10.402 -1.2785  0.4538 -1.6004
52156SOL    HW265247   8.123  12.571  10.313 -0.6090  0.5843 -0.6835
52157SOL     OW65248   0.462   4.521  11.561  0.1927 -0.1845 -0.1222
52157SOL    HW165249   0.419   4.593  11.515  0.2767  1.0383  1.6310
52157SOL    HW265250   0.533   4.493  11.502  0.0832  1.0823 -0.8792
52158SOL     OW65251   1.755   7.925   1.575  0.0098 -0.0766  0.3286
52158SOL    HW165252   1.756   7.890   1.486 -2.7672  1.0790 -0.2383
52158SOL    HW265253   1.802   8.008   1.568 -1.4450  0.7227 -0.4486
52159SOL     OW65254   9.379   5.355   3.122  0.5179 -0.3799 -0.1019
52159SOL    HW165255   9.468   5.327   3.102  0.0756 -3.5808  1.8481
52159SOL    HW265256   9.328   5.275   3.123 -2.2613  1.2655 -0.2774
52160SOL     OW65257   6.846   0.145  10.605  0.0415 -0.0400  0.2087
52160SOL    HW165258   6.915   0.086  10.574  0.1216 -0.1952  0.6779
52160SOL    HW265259   6.822   0.196  10.528  0.2544 -0.4065 -0.1063
52161SOL     OW65260   5.367   7.136   9.007  0.4078 -0.3132  0.0373
52161SOL    HW165261   5.366   7.077   9.082 -1.2461 -1.5161 -0.8564
52161SOL    HW265262   5.350   7.223   9.044  0.7656 -0.7016  1.1470
52162SOL     OW65263   4.575   1.470  12.217 -0.5675 -0.0148  0.9528
52162SOL    HW165264   4.504   1.515  12.172  0.0437  0.2388  0.2114
52162SOL    HW265265   4.654   1.517  12.188  0.2303 -2.2621 -0.7766
52163SOL     OW65266   9.314   1.879   6.925  0.1060 -0.1367 -0.2219
52163SOL    HW165267   9.236   1.884   6.870 -0.2048 -0.8093  0.1384
52163SOL    HW265268   9.280   1.877   7.014  0.5812  0.4054 -0.0244
52164SOL     OW65269   6.943   0.836   7.475  0.0610  0.3629 -0.4481
52164SOL    HW165270   6.974   0.927   7.473  0.9187  0.0874 -0.1462
52164SOL    HW265271   6.859   0.839   7.429 -0.5184  1.5214  0.6046
52165SOL     OW65272  12.091   3.043   4.804  0.0594  0.6052 -0.1666
52165SOL    HW165273  12.177   3.066   4.840 -0.4353  1.7420  0.3600
52165SOL    HW265274  12.084   3.098   4.726  0.4395 -0.6401 -1.1110
52166SOL     OW65275   0.067  12.193  11.694 -0.2047 -0.0046  0.2630
52166SOL    HW165276  -0.027  12.208  11.702 -0.5222 -0.8470 -1.5255
52166SOL    HW265277   0.102  12.277  11.665 -0.7120 -0.2196 -1.0364
52167SOL     OW65278   6.956   8.752   0.540 -0.0444  0.4123 -0.3190
52167SOL    HW165279   7.005   8.732   0.619  3.2491  0.7172 -2.0868
52167SOL    HW265280   6.917   8.837   0.556  1.2805  0.8601  0.6946
52168SOL     OW65281  10.766   6.483   4.150  0.8721  0.2302  0.6246
52168SOL    HW165282  10.845   6.445   4.112  1.1540 -0.1430  1.5372
52168SOL    HW265283  10.780   6.578   4.146  0.3320  0.2560 -1.3159
52169SOL     OW65284   4.878   1.256   2.641 -0.2334  0.4861 -0.0127
52169SOL    HW165285   4.853   1.163   2.634 -0.7611  0.5402  1.0230
52169SOL    HW265286   4.805   1.297   2.688  0.0860  1.3989 -0.2963
52170SOL     OW65287   3.303  12.126   7.155 -0.8157 -0.3061  0.3711
52170SOL    HW165288   3.350  12.047   7.184  0.7691  0.1343 -0.8318
52170SOL    HW265289   3.226  12.130   7.211  0.2274 -1.4736  1.9837
52171SOL     OW65290   4.573   2.379  11.308 -0.0874 -0.1233  0.5809
52171SOL    HW165291   4.541   2.389  11.398  0.8356 -1.3722  1.0917
52171SOL    HW265292   4.507   2.326  11.264 -0.5828  0.5610  0.4934
52172SOL     OW65293   6.652   7.247   6.321  0.1630 -0.8218 -0.3156
52172SOL    HW165294   6.617   7.281   6.239  0.1696 -1.0602 -0.4167
52172SOL    HW265295   6.604   7.296   6.389  0.2469 -0.5378 -0.4608
52173SOL     OW65296   0.676   9.375   4.406  0.3880 -0.2780 -0.0129
52173SOL    HW165297   0.594   9.424   4.413  0.3189 -0.4712  0.5531
52173SOL    HW265298   0.649   9.284   4.400  0.5418 -0.2991 -0.4592
52174SOL     OW65299  10.177   4.319  10.892 -0.2161 -0.2463 -0.0601
52174SOL    HW165300  10.098   4.271  10.866 -0.5862  0.6117 -0.5731
52174SOL    HW265301  10.156   4.411  10.875  0.9641 -0.0205 -0.3943
52175SOL     OW65302  11.481   6.186   1.714  0.1452 -0.4518  0.0167
52175SOL    HW165303  11.530   6.268   1.706 -0.3315 -0.2427 -0.8895
52175SOL    HW265304  11.392   6.213   1.737  0.5668 -0.8665  2.3603
52176SOL     OW65305   2.015   7.773   4.200  0.0134 -0.0243  0.0099
52176SOL    HW165306   1.974   7.791   4.115  0.4542  1.0577  0.0054
52176SOL    HW265307   2.022   7.859   4.241 -0.6121 -0.5867  1.3519
52177SOL     OW65308   7.510  10.429   6.786  0.1500  0.9054 -0.3818
52177SOL    HW165309   7.474  10.459   6.702  1.3499  0.1125 -1.2106
52177SOL    HW265310   7.605  10.427   6.772  0.3170 -0.0072  0.7439
52178SOL     OW65311   2.035   1.513   2.976  0.2289  0.2506 -0.6437
52178SOL    HW165312   2.027   1.418   2.965  0.5291  0.1697 -0.1754
52178SOL    HW265313   2.033   1.527   3.070 -1.3831  0.8576 -0.7406
52179SOL     OW65314   9.180  12.038  11.185 -0.1241 -0.0881 -0.2479
52179SOL    HW165315   9.251  12.095  11.215 -0.1616  0.4275 -1.0938
52179SOL    HW265316   9.131  12.018  11.264  0.6934 -0.0758  0.2824
52180SOL     OW65317   6.014   0.823  10.524  0.4856 -0.1010  0.2024
52180SOL    HW165318   6.060   0.740  10.509  2.1342  0.8305 -0.1718
52180SOL    HW265319   6.030   0.874  10.444 -1.9088 -0.0058 -0.2813
52181SOL     OW65320  10.385   7.747   3.220 -0.2009  0.3517  0.2768
52181SOL    HW165321  10.387   7.843   3.222  0.7565  0.3407  2.2128
52181SOL    HW265322  10.467   7.721   3.261  0.2056 -1.3314 -1.4893
52182SOL     OW65323   8.637   8.085  12.106  0.2278 -0.0106 -0.1746
52182SOL    HW165324   8.549   8.121  12.098  0.2650  0.3353  0.8108
52182SOL    HW265325   8.624   7.999  12.145  0.2976 -0.1589 -0.4726
52183SOL     OW65326   4.538   9.662   6.917 -0.0808 -0.1131 -0.0360
52183SOL    HW165327   4.603   9.726   6.889 -1.3123  1.3459  0.2609
52183SOL    HW265328   4.495   9.703   6.993 -0.1414 -1.8164  0.9110
52184SOL     OW65329   5.986   8.143   9.509 -0.2399 -0.0927 -0.0040
52184SOL    HW165330   5.994   8.224   9.459  0.8847 -0.3458 -0.2656
52184SOL    HW265331   5.901   8.107   9.483 -0.7566  0.9996  0.1324
52185SOL     OW65332   8.035   5.931  12.277  0.5793 -0.0538  0.1309
52185SOL    HW165333   8.079   5.848  12.296  2.0572  0.9772  1.4970
52185SOL    HW265334   8.011   5.965  12.363  0.7831  1.3351 -0.3421
52186SOL     OW65335   1.130   3.559   0.719  0.4904  0.8544  1.1385
52186SOL    HW165336   1.191   3.561   0.792  1.5407  0.9385  0.2977
52186SOL    HW265337   1.144   3.472   0.679  0.0094  0.8469  0.9788
52187SOL     OW65338  11.730   6.402   7.480  0.5256  0.7699  0.4045
52187SOL    HW165339  11.639   6.429   7.493 -0.0042 -1.1072  0.8780
52187SOL    HW265340  11.782   6.480   7.502 -0.9664  2.2048 -0.8899
52188SOL     OW65341   2.615  11.259  11.260 -0.7601 -0.4045  0.1582
52188SOL    HW165342   2.557  11.333  11.244  0.2798  0.8761  1.9548
52188SOL    HW265343   2.684  11.267  11.195  0.9716  2.0652  2.1007
52189SOL     OW65344   3.813  11.159   3.697  0.4058  0.4861 -0.2847
52189SOL    HW165345   3.722  11.160   3.726 -0.1547  0.4147 -1.9469
52189SOL    HW265346   3.808  11.155   3.602  2.1574  0.3764 -0.4059
52190SOL     OW65347  12.561   4.173   2.405  0.0572 -0.6883  0.4629
52190SOL    HW165348  12.589   4.140   2.490  0.9862 -0.5568  0.2224
52190SOL    HW265349  12.604   4.258   2.397  0.8163 -1.1504 -0.5631
52191SOL     OW65350  11.085   5.932  12.537 -0.7809  0.5208  0.1386
52191SOL    HW165351  11.170   5.922  12.580 -1.3716 -1.9767  0.8835
52191SOL    HW265352  11.076   5.854  12.482 -2.9241  0.3110  0.6971
52192SOL     OW65353   2.704   9.799   4.659  0.2323 -0.0023 -1.4204
52192SOL    HW165354   2.772   9.860   4.688 -0.5432  0.6019 -0.8266
52192SOL    HW265355   2.626   9.854   4.648 -1.2421 -1.2355  1.7254
52193SOL     OW65356   6.036   5.051  10.193  0.1442  0.4029  0.3222
52193SOL    HW165357   5.980   5.093  10.259  0.9056 -1.3538  2.1877
52193SOL    HW265358   6.110   5.110  10.184  1.0428 -0.2426  2.6671
52194SOL     OW65359   9.686   7.979   2.393  0.3419 -0.2160  0.0777
52194SOL    HW165360   9.769   8.009   2.432  0.7732  0.7596 -1.4893
52194SOL    HW265361   9.708   7.961   2.301 -1.2857  0.6138 -0.5150
52195SOL     OW65362   8.251   0.927   4.035  0.7714 -0.2294 -0.4308
52195SOL    HW165363   8.280   0.986   4.105 -0.6468  1.5639 -1.2659
52195SOL    HW265364   8.286   0.966   3.955  0.2034 -0.7863 -0.9610
52196SOL     OW65365   1.237   7.438   0.663 -0.7650  0.2544 -0.6646
52196SOL    HW165366   1.327   7.423   0.692 -0.8513  2.5021  1.0238
52196SOL    HW265367   1.239   7.419   0.569  1.3277 -0.3110 -0.5627
52197SOL     OW65368   4.811  10.293  11.890  0.3171  0.3838 -0.2153
52197SOL    HW165369   4.874  10.261  11.954  1.9795  1.8993 -1.0001
52197SOL    HW265370   4.763  10.362  11.936 -1.2516 -1.1838  0.5746
52198SOL     OW65371  10.512   6.338  10.543 -0.1542  0.0471 -0.1049
52198SOL    HW165372  10.549   6.385  10.618 -1.0666  0.3027  0.1955
52198SOL    HW265373  10.508   6.404  10.474 -1.0836  0.3349  0.2045
52199SOL     OW65374   5.761   9.705   6.874 -0.4062 -0.1162 -0.1177
52199SOL    HW165375   5.828   9.725   6.809 -1.0846 -0.4511 -0.9494
52199SOL    HW265376   5.761   9.779   6.934  2.3537 -1.1538  1.3399
52200SOL     OW65377   1.158   0.930  12.232  0.1142  0.0771 -0.0942
52200SOL    HW165378   1.234   0.953  12.179 -0.3450 -0.9316 -1.2342
52200SOL    HW265379   1.179   0.845  12.269 -0.2841 -0.0132 -0.0736
52201SOL     OW65380  11.119   3.866   4.587  0.3140  0.0278 -0.3478
52201SOL    HW165381  11.106   3.838   4.677 -0.0695 -1.3333 -0.8022
52201SOL    HW265382  11.160   3.790   4.544 -1.6704 -0.2679 -1.8664
52202SOL     OW65383  11.516   7.515   0.905 -0.1112  0.1216  0.2672
52202SOL    HW165384  11.495   7.595   0.954 -0.1348 -0.6253  1.5310
52202SOL    HW265385  11.439   7.499   0.851 -0.9329 -0.0759  1.4476
52203SOL     OW65386   6.651   2.196   6.338 -0.2102  0.1587  0.0426
52203SOL    HW165387   6.575   2.255   6.338  0.7591  1.4745  1.3264
52203SOL    HW265388   6.638   2.140   6.261 -1.3813  1.7837 -1.0099
52204SOL     OW65389   3.680  11.942   9.714  0.2523  0.5956  1.0586
52204SOL    HW165390   3.768  11.971   9.736  0.2190  2.3220 -0.7752
52204SOL    HW265391   3.688  11.905   9.626 -0.3598 -2.0454  2.0235
52205SOL     OW65392   4.260  11.641   1.616 -0.3444 -0.0702  0.0110
52205SOL    HW165393   4.346  11.602   1.633 -0.4394 -0.3770 -0.2122
52205SOL    HW265394   4.277  11.735   1.615 -0.3387 -0.0223  1.8300
52206SOL     OW65395   9.779  10.273  11.458 -0.8324 -0.1441 -0.7385
52206SOL    HW165396   9.821  10.354  11.429 -3.0751  0.9258 -1.1849
52206SOL    HW265397   9.747  10.231  11.378  1.2493 -2.1227 -0.6405
52207SOL     OW65398   6.531   3.311   8.571  0.4897 -0.1835  0.1740
52207SOL    HW165399   6.531   3.340   8.663  1.6143  0.6773 -0.0856
52207SOL    HW265400   6.527   3.215   8.577 -0.1417 -0.1191  1.1022
52208SOL     OW65401   6.156  10.940   2.975  0.7458  0.1199 -0.4399
52208SOL    HW165402   6.098  10.996   3.028 -1.1101 -0.7423 -1.4938
52208SOL    HW265403   6.200  11.001   2.916  1.5399  0.8781  0.8681
52209SOL     OW65404   1.257  11.379   3.171 -0.0925 -0.4267  0.0045
52209SOL    HW165405   1.237  11.291   3.202 -0.0275 -0.2660  0.5106
52209SOL    HW265406   1.269  11.431   3.250 -0.9306  0.2226 -0.2836
52210SOL     OW65407  11.590   3.398   1.853 -0.2630 -0.0305 -0.2892
52210SOL    HW165408  11.609   3.446   1.934  0.2699 -0.4480 -0.1590
52210SOL    HW265409  11.676   3.377   1.818 -0.4321  2.1322 -2.1777
52211SOL     OW65410   6.732   1.749   6.961  0.4978 -0.1847  0.1078
52211SOL    HW165411   6.694   1.668   6.926  0.2091 -0.0997  0.2207
52211SOL    HW265412   6.809   1.765   6.906 -0.0964  0.0931 -0.6521
52212SOL     OW65413   2.885   5.386   5.355 -0.5820 -0.4713  0.4056
52212SOL    HW165414   2.940   5.308   5.344 -0.7549 -0.5105 -0.1980
52212SOL    HW265415   2.897   5.436   5.274 -0.8423 -0.1033  0.5915
52213SOL     OW65416   7.616   3.498   8.933 -0.4836 -0.7240  0.0706
52213SOL    HW165417   7.549   3.475   8.997 -0.7162 -0.1577  0.0345
52213SOL    HW265418   7.686   3.434   8.947 -1.5687 -2.1615 -0.7639
52214SOL     OW65419  10.393  11.696  10.360  0.1821 -0.2305  0.3762
52214SOL    HW165420  10.390  11.791  10.349  2.2892  0.0426  1.5537
52214SOL    HW265421  10.475  11.670  10.318 -0.3755 -1.5470  0.0575
52215SOL     OW65422   9.082  11.277   3.806 -0.1583 -0.5070  0.4375
52215SOL    HW165423   9.171  11.298   3.779 -0.6055 -1.0742 -1.6339
52215SOL    HW265424   9.070  11.185   3.782 -1.8206 -0.0008 -0.8712
52216SOL     OW65425  11.321   7.387   7.554 -0.6256 -0.3884 -0.5545
52216SOL    HW165426  11.395   7.345   7.509 -0.8535 -0.7062 -0.6348
52216SOL    HW265427  11.244   7.339   7.524 -0.7035 -1.2172  0.8680
52217SOL     OW65428   5.634  10.204   9.954 -0.4628  0.1911  0.3291
52217SOL    HW165429   5.541  10.196   9.973 -0.6574  1.4149  0.0004
52217SOL    HW265430   5.641  10.286   9.904  0.6580 -0.3848 -0.4942
52218SOL     OW65431   8.649   9.072   6.339 -0.0305  0.6366 -0.0684
52218SOL    HW165432   8.677   9.082   6.430  1.1561  1.6189 -0.5114
52218SOL    HW265433   8.647   8.977   6.325  0.9667  0.4936  0.6332
52219SOL     OW65434   6.735   0.020   9.961 -0.1781  0.1141  0.2006
52219SOL    HW165435   6.706   0.108   9.935 -0.7252  0.4044  1.7337
52219SOL    HW265436   6.819   0.034  10.003 -0.0102 -0.1735 -0.0340
52220SOL     OW65437   6.688   3.062   3.586  0.5316  0.4462 -0.1274
52220SOL    HW165438   6.637   2.988   3.619  0.7477 -0.5055 -1.8385
52220SOL    HW265439   6.778   3.044   3.614  0.9916 -1.1563 -2.4031
52221SOL     OW65440   1.816   2.003  10.711  0.1527  0.3132 -0.2616
52221SOL    HW165441   1.802   1.972  10.800  1.0899  1.8376  0.4627
52221SOL    HW265442   1.863   1.932  10.668  1.2614  0.2479  1.0006
52222SOL     OW65443   7.557   0.183   3.264  0.6603  0.4804  0.0771
52222SOL    HW165444   7.470   0.200   3.230  0.6598  1.1660  0.4053
52222SOL    HW265445   7.571   0.250   3.331  1.3390  0.2259  0.2069
52223SOL     OW65446   4.769   3.839  10.934 -0.4997 -0.0412  0.7775
52223SOL    HW165447   4.714   3.905  10.975  1.5623  2.7016 -0.5156
52223SOL    HW265448   4.855   3.850  10.975  0.4193 -0.4417 -0.9152
52224SOL     OW65449   7.445   1.386   1.076  0.2544 -0.1156 -0.2322
52224SOL    HW165450   7.392   1.310   1.099 -0.2230  0.3130  0.1009
52224SOL    HW265451   7.408   1.417   0.993 -1.5786  1.5817  1.1442
52225SOL     OW65452   3.757   7.384  11.720 -0.3763  0.3271  0.5292
52225SOL    HW165453   3.672   7.368  11.763 -1.4561  3.4647 -0.1808
52225SOL    HW265454   3.819   7.389  11.792 -0.6361 -2.3244  1.0476
52226SOL     OW65455   9.593   0.497   6.852 -0.2122 -0.2256 -0.3380
52226SOL    HW165456   9.679   0.464   6.824 -0.1810  0.8016 -1.5135
52226SOL    HW265457   9.562   0.432   6.915  1.7120 -0.2963  0.6227
52227SOL     OW65458   8.408   7.694   6.697 -0.0927 -0.0624  0.2497
52227SOL    HW165459   8.388   7.614   6.745  1.6338 -0.3928  0.4923
52227SOL    HW265460   8.456   7.664   6.620 -2.9071  0.4384 -1.8622
52228SOL     OW65461   2.347   4.524   9.681  0.5406  0.0533 -0.0628
52228SOL    HW165462   2.405   4.451   9.702 -1.0151 -1.4638 -0.7402
52228SOL    HW265463   2.379   4.557   9.597 -0.1819 -1.5061 -1.0002
52229SOL     OW65464  11.152   5.921   4.816  0.1042 -0.3052 -0.1685
52229SOL    HW165465  11.232   5.965   4.844  0.0881 -0.1053 -0.4303
52229SOL    HW265466  11.182   5.856   4.753  0.3089 -1.7493  1.3557
52230SOL     OW65467   6.880  10.258   5.775  0.1205 -0.7545 -0.3024
52230SOL    HW165468   6.834  10.214   5.703 -0.9175  0.6214 -0.5263
52230SOL    HW265469   6.859  10.205   5.852 -2.4265  0.1152 -0.2889
52231SOL     OW65470   4.013   6.063   9.729  0.4552 -0.0210 -0.1053
52231SOL    HW165471   4.043   6.152   9.750  1.0972 -0.4498  0.8892
52231SOL    HW265472   4.011   6.018   9.814 -0.2004 -0.8570 -0.5522
52232SOL     OW65473   6.035   1.059  11.011 -1.0684 -0.2860 -0.8033
52232SOL    HW165474   6.000   0.986  11.063 -0.4228 -0.1452 -0.1432
52232SOL    HW265475   6.073   1.016  10.934 -1.2012 -0.5924 -0.7031
52233SOL     OW65476   8.254   2.262   6.103 -0.3422 -0.2366 -0.2765
52233SOL    HW165477   8.275   2.232   6.015  0.5121 -1.5574  0.3399
52233SOL    HW265478   8.281   2.190   6.160 -2.7276 -0.2822  0.9338
52234SOL     OW65479   9.832  10.856   4.335  0.5616 -0.4739 -0.0449
52234SOL    HW165480   9.905  10.834   4.393  2.4087  0.5990 -1.8327
52234SOL    HW265481   9.818  10.950   4.346 -1.6370 -0.8972  1.3755
52235SOL     OW65482  10.168  12.366   9.168 -0.2946 -0.3268  0.2059
52235SOL    HW165483  10.080  12.361   9.204 -0.7942 -1.7120 -1.1314
52235SOL    HW265484  10.225  12.374   9.246 -1.4698 -0.9812  1.1619
52236SOL     OW65485   9.529  11.156   3.885 -0.2043  0.6645 -0.6870
52236SOL    HW165486   9.616  11.133   3.916 -0.4318  1.7848  0.9085
52236SOL    HW265487   9.521  11.113   3.800  1.9441  0.6538 -0.9262
52237SOL     OW65488   8.982  10.830   5.804  0.8833 -0.9300  0.3977
52237SOL    HW165489   8.995  10.836   5.709  1.7592 -0.9581  0.5102
52237SOL    HW265490   9.000  10.739   5.825  2.0782 -0.6250  0.7788
52238SOL     OW65491   6.190   5.564   5.356 -0.0012 -0.7733 -0.2758
52238SOL    HW165492   6.276   5.530   5.333  0.0588 -0.1769 -0.9790
52238SOL    HW265493   6.200   5.598   5.444  0.8915  0.6068 -0.8805
52239SOL     OW65494   0.613  12.440   4.714  0.9023  0.3189  0.1220
52239SOL    HW165495   0.633  12.371   4.650 -0.6515 -0.4814  0.4689
52239SOL    HW265496   0.518  12.439   4.722  0.8437  2.4602  0.2143
52240SOL     OW65497   4.909   8.223   4.257  0.0625  0.0274 -0.6058
52240SOL    HW165498   4.921   8.283   4.329 -0.3086 -0.0515 -0.4755
52240SOL    HW265499   4.823   8.244   4.221 -0.5565 -1.1218  0.1193
52241SOL     OW65500  11.222   2.347   3.189 -0.1577  0.1037  0.3661
52241SOL    HW165501  11.196   2.439   3.189 -0.9549 -0.1052 -0.4960
52241SOL    HW265502  11.241   2.327   3.281 -0.4846  0.9930  0.6307
52242SOL     OW65503  11.274   5.662  11.450  0.1876 -0.1301  0.0508
52242SOL    HW165504  11.228   5.724  11.507  0.6174  0.0431  0.2116
52242SOL    HW265505  11.280   5.706  11.366  0.6833  0.1369  0.2233
52243SOL     OW65506   6.085  12.135   5.126 -0.2182 -0.0111 -0.2269
52243SOL    HW165507   6.132  12.192   5.064 -0.4890 -0.4676 -0.8580
52243SOL    HW265508   6.016  12.190   5.162  0.5758  0.5760  0.4697
52244SOL     OW65509   4.588  10.773   3.483 -0.6292 -0.6874 -0.7020
52244SOL    HW165510   4.528  10.701   3.467 -1.2523 -0.0359 -1.3936
52244SOL    HW265511   4.670  10.747   3.442  0.0815 -2.2550  1.5516
52245SOL     OW65512   1.422  11.625  10.395 -0.7208 -0.2918 -0.5188
52245SOL    HW165513   1.517  11.620  10.406 -0.4298  3.3410  0.0265
52245SOL    HW265514   1.386  11.570  10.465  1.0071 -0.2271  0.4785
52246SOL     OW65515   8.213   9.777   1.694 -0.1680  0.2062  0.7043
52246SOL    HW165516   8.167   9.839   1.750  1.0647  1.4271  0.4248
52246SOL    HW265517   8.188   9.802   1.605  0.7704  0.6725  0.5655
52247SOL     OW65518   1.580   1.674  10.767 -0.3020  0.0399  0.3775
52247SOL    HW165519   1.665   1.713  10.746 -0.4790  0.3455  0.2324
52247SOL    HW265520   1.529   1.679  10.686 -0.1878 -0.8777  0.2300
52248SOL     OW65521   3.270   5.686   9.503 -0.3466  0.3343  0.1652
52248SOL    HW165522   3.293   5.773   9.537  0.7130  0.1652 -0.0968
52248SOL    HW265523   3.174   5.685   9.503 -0.3828  0.8749  1.7748
52249SOL     OW65524  12.460   1.035   5.858 -0.2211  0.1300 -0.7045
52249SOL    HW165525  12.378   1.027   5.809 -1.1421 -0.0551  0.7900
52249SOL    HW265526  12.459   1.125   5.891  0.0035  0.0247 -0.4063
52250SOL     OW65527  12.497   4.493   5.813  0.0257 -0.1127  0.5660
52250SOL    HW165528  12.461   4.419   5.861 -0.4038 -0.4330 -0.2299
52250SOL    HW265529  12.432   4.562   5.823 -0.1712 -0.2512  0.2719
52251SOL     OW65530   1.968   1.104   7.315  0.1033 -0.1079 -1.1450
52251SOL    HW165531   1.987   1.096   7.221  1.0629 -1.1190 -0.8845
52251SOL    HW265532   2.019   1.034   7.356 -0.7362 -0.0310  0.0808
52252SOL     OW65533   0.106   2.032  11.681  0.4238  0.1935 -0.1574
52252SOL    HW165534   0.104   2.095  11.753  0.0148  0.3309 -0.2901
52252SOL    HW265535   0.084   2.083  11.604 -0.9882 -0.3133 -0.1196
52253SOL     OW65536   7.010   1.456   8.950 -0.3242  0.1876 -0.4385
52253SOL    HW165537   7.021   1.406   8.869 -0.3817  1.6745 -1.3998
52253SOL    HW265538   7.041   1.397   9.019  0.2974 -0.8927 -1.6023
52254SOL     OW65539  10.962   7.195   2.555  0.1500 -0.2647 -0.2486
52254SOL    HW165540  10.891   7.250   2.586  0.3062 -0.3615  0.3026
52254SOL    HW265541  10.954   7.114   2.605 -1.0850 -1.4346 -2.2140
52255SOL     OW65542  10.009   7.362   3.272 -0.3429  1.1120 -0.3757
52255SOL    HW165543  10.036   7.345   3.363  2.9603  0.4471 -1.3533
52255SOL    HW265544  10.013   7.277   3.229 -2.1947  1.3674 -1.1518
52256SOL     OW65545   2.159   3.858   5.261  0.3887 -0.4904 -0.2095
52256SOL    HW165546   2.145   3.818   5.347 -0.1620 -0.6191 -0.3503
52256SOL    HW265547   2.251   3.842   5.241  0.4411 -0.7368  0.2193
52257SOL     OW65548   8.840  11.168   8.565 -0.0360 -0.0052  0.5849
52257SOL    HW165549   8.825  11.078   8.535 -0.7905 -1.2021  4.0618
52257SOL    HW265550   8.934  11.173   8.579  0.2532  0.3986 -1.2302
52258SOL     OW65551  12.537   5.557   6.558 -0.4001  0.0273  0.2014
52258SOL    HW165552  12.619   5.537   6.513  0.0128  0.0080  0.9361
52258SOL    HW265553  12.565   5.601   6.638 -1.1869  1.6134 -0.3569
52259SOL     OW65554   9.767   4.991   9.574  0.1500  0.6140 -0.0166
52259SOL    HW165555   9.826   4.943   9.516  1.0541  0.3786  1.0666
52259SOL    HW265556   9.797   5.081   9.569 -0.2735  0.7331 -0.5055
52260SOL     OW65557  11.536   2.679   9.723  0.1218 -0.2749 -0.3009
52260SOL    HW165558  11.603   2.612   9.710 -0.9340 -2.2297  3.1272
52260SOL    HW265559  11.528   2.721   9.638  3.7995 -1.6730 -1.5418
52261SOL     OW65560   4.637   1.830   4.581  0.7562  0.4726  0.0015
52261SOL    HW165561   4.668   1.913   4.544  1.4877 -0.0132 -0.5018
52261SOL    HW265562   4.556   1.853   4.627 -0.7259  0.9815 -2.6432
52262SOL     OW65563  11.977  12.305   4.101  0.1966  0.4308  0.3176
52262SOL    HW165564  12.015  12.391   4.121 -1.0207  1.1354 -0.3541
52262SOL    HW265565  11.972  12.262   4.187 -0.3185  1.4999  0.8448
52263SOL     OW65566   0.820   1.283   0.355  0.4168  0.2772 -0.5690
52263SOL    HW165567   0.772   1.200   0.352  0.3215  0.3531 -1.1827
52263SOL    HW265568   0.811   1.312   0.446 -0.8722  0.3995 -0.7201
52264SOL     OW65569   6.422   5.367   7.757  0.3816  0.7473 -0.2487
52264SOL    HW165570   6.517   5.363   7.744  0.2989  0.5982 -0.8522
52264SOL    HW265571   6.411   5.378   7.851  0.9883  0.3021 -0.1188
52265SOL     OW65572  10.023   1.150   1.466  0.8458 -0.4679 -0.3644
52265SOL    HW165573  10.043   1.217   1.400 -1.7470  0.9154  0.1447
52265SOL    HW265574   9.936   1.118   1.443 -0.7210  0.9300  2.9138
52266SOL     OW65575   0.925   6.612  11.316  0.2110 -0.3157  0.1081
52266SOL    HW165576   0.978   6.541  11.280  0.9754  0.5246 -0.4751
52266SOL    HW265577   0.968   6.692  11.285 -0.5623  0.4064  0.8402
52267SOL     OW65578  12.138   7.753   9.330  0.8325 -0.0699 -0.2010
52267SOL    HW165579  12.139   7.775   9.423 -2.3202  1.8745 -0.4662
52267SOL    HW265580  12.207   7.807   9.291 -1.5579  3.7605  0.3471
52268SOL     OW65581   3.685   8.143   9.515  0.1020  0.1078  0.0324
52268SOL    HW165582   3.590   8.156   9.516  0.0540 -0.2726  1.1278
52268SOL    HW265583   3.700   8.064   9.568  1.1676  1.2434  1.5238
52269SOL     OW65584   8.267  12.480   0.830  0.1845 -0.1414 -0.3917
52269SOL    HW165585   8.191  12.459   0.884 -0.0963  0.1107 -0.6847
52269SOL    HW265586   8.318  12.540   0.885  0.1208 -0.2316 -0.2326
52270SOL     OW65587   5.682   1.349  11.592  0.3681  0.0788  0.1425
52270SOL    HW165588   5.629   1.340  11.512  0.5973 -0.3145  0.0348
52270SOL    HW265589   5.717   1.438  11.587  0.1688  0.1484 -0.0623
52271SOL     OW65590   7.340   6.329   4.290 -0.0997  0.1260 -0.3141
52271SOL    HW165591   7.410   6.391   4.273 -0.3044 -0.0233 -1.8677
52271SOL    HW265592   7.285   6.332   4.211 -0.6336 -1.3280 -0.0330
52272SOL     OW65593   5.089  11.294   9.223  0.2655  0.4000 -0.5691
52272SOL    HW165594   5.146  11.227   9.260  0.3522  0.1190 -1.1846
52272SOL    HW265595   5.124  11.309   9.135  0.2234  1.2340 -0.4512
52273SOL     OW65596   9.221   4.568  12.457 -0.2739 -0.0692 -0.2554
52273SOL    HW165597   9.290   4.558  12.391  0.8924 -0.0089  0.9172
52273SOL    HW265598   9.208   4.663  12.464  1.1878  0.0749  1.1332
52274SOL     OW65599  11.940   9.907   7.229  0.2675 -0.4199  0.1288
52274SOL    HW165600  11.908   9.973   7.291  2.4645 -0.6571  1.6391
52274SOL    HW265601  11.955   9.829   7.282  1.5117 -0.8648 -0.8117
52275SOL     OW65602  10.199   4.101   4.421 -0.0863  0.7485  0.1542
52275SOL    HW165603  10.268   4.160   4.452  0.8041 -0.9106  1.4825
52275SOL    HW265604  10.123   4.121   4.475  0.3726  0.3358  0.9662
52276SOL     OW65605   2.820   1.890   3.434 -0.1212  0.2324  0.6411
52276SOL    HW165606   2.862   1.820   3.384 -0.0542 -0.2630  1.3744
52276SOL    HW265607   2.893   1.935   3.477 -0.3639 -1.5975  3.1796
52277SOL     OW65608   1.333   0.123   0.121  0.0138  0.0595  0.2294
52277SOL    HW165609   1.282   0.076   0.055 -1.6365 -1.2271  2.3077
52277SOL    HW265610   1.343   0.211   0.085 -0.0671 -0.8111 -2.0877
52278SOL     OW65611   2.293   3.788   8.032 -0.1239  0.1341  0.0798
52278SOL    HW165612   2.332   3.730   8.097 -1.0339 -1.6929 -0.9472
52278SOL    HW265613   2.199   3.786   8.050 -0.4347 -0.6881 -1.4722
52279SOL     OW65614   4.314  10.232   2.406 -0.7723 -0.1473  0.0040
52279SOL    HW165615   4.228  10.216   2.445 -0.0160  0.5974  2.1077
52279SOL    HW265616   4.308  10.321   2.370 -0.7341  0.0971  0.5984
52280SOL     OW65617  12.331   9.721   1.285  0.0267 -0.0446  0.8839
52280SOL    HW165618  12.385   9.676   1.221  0.3496 -0.2134  1.2698
52280SOL    HW265619  12.334   9.813   1.259 -1.0389 -0.2899 -0.2023
52281SOL     OW65620  10.076   2.979   5.562 -0.0293 -0.1182 -0.2572
52281SOL    HW165621  10.031   2.906   5.606 -0.2069  1.1653  1.8141
52281SOL    HW265622  10.037   3.058   5.599  1.8120  1.0514 -0.6585
52282SOL     OW65623   5.149   6.221   1.939 -0.2147 -0.1042  0.3845
52282SOL    HW165624   5.179   6.132   1.958  0.2269  0.1392  0.8396
52282SOL    HW265625   5.133   6.260   2.025  0.4686  0.5496  0.2255
52283SOL     OW65626   5.468   0.879   6.473  0.0961  0.3477 -0.5751
52283SOL    HW165627   5.556   0.918   6.469  0.4259 -0.4347 -1.2163
52283SOL    HW265628   5.475   0.813   6.543 -0.0857  0.5370 -0.3789
52284SOL     OW65629   4.862   2.399   7.381  0.0754 -0.5445 -0.2749
52284SOL    HW165630   4.936   2.398   7.442  0.1434 -0.8595 -0.3581
52284SOL    HW265631   4.789   2.365   7.434 -0.4659  1.5082  0.3581
52285SOL     OW65632   4.231   0.427  10.357  0.2250  0.2712 -0.2471
52285SOL    HW165633   4.246   0.417  10.451 -0.0319 -0.6968 -0.2962
52285SOL    HW265634   4.169   0.499  10.349  2.9681  2.8592  0.0934
52286SOL     OW65635   2.941   0.465   3.744  0.4908  0.0682  0.0436
52286SOL    HW165636   2.999   0.534   3.712 -0.9290  0.5525 -1.6321
52286SOL    HW265637   3.000   0.402   3.785  1.8864  1.9699  1.1395
52287SOL     OW65638   9.889   1.140   8.798 -0.1515  0.2895  0.5597
52287SOL    HW165639   9.937   1.175   8.873 -0.2626  1.8838 -0.0791
52287SOL    HW265640   9.951   1.144   8.725  0.2441 -2.0393  0.6824
52288SOL     OW65641   9.956   3.461  11.271  0.1423  0.2999 -0.0282
52288SOL    HW165642  10.030   3.501  11.225 -0.0630  0.1784 -0.4692
52288SOL    HW265643   9.916   3.533  11.319 -0.0146  0.5561 -0.5338
52289SOL     OW65644   5.042   6.164   9.227  0.1104 -0.4165 -0.1238
52289SOL    HW165645   5.060   6.256   9.242  1.2164 -0.4860 -0.8956
52289SOL    HW265646   4.954   6.162   9.188 -0.2595  0.2240  0.6570
52290SOL     OW65647   4.880   1.048  12.274 -0.9345 -0.5131  0.6811
52290SOL    HW165648   4.818   1.121  12.275  1.5184  1.8949 -1.8267
52290SOL    HW265649   4.884   1.022  12.183  1.2733 -0.9314  0.8484
52291SOL     OW65650   4.797  12.214   1.218 -0.1329 -0.0231 -0.2272
52291SOL    HW165651   4.802  12.307   1.240  1.9045 -0.4580  1.5365
52291SOL    HW265652   4.820  12.210   1.125  2.3785  1.0958  0.2591
52292SOL     OW65653   3.560   8.331  10.276 -0.8003  0.0088  0.2102
52292SOL    HW165654   3.488   8.307  10.334 -1.5122  0.4733 -0.4644
52292SOL    HW265655   3.527   8.405  10.226 -0.2335 -0.4335 -0.8457
52293SOL     OW65656   2.692   2.911   0.657 -0.1261 -0.0953 -0.3634
52293SOL    HW165657   2.722   2.852   0.588  0.3294  0.0406 -0.2816
52293SOL    HW265658   2.598   2.921   0.640 -0.3351 -1.3235 -0.0129
52294SOL     OW65659   1.761   2.081   9.670  0.2531 -0.8219 -0.7253
52294SOL    HW165660   1.819   2.006   9.652  0.0523 -1.0316 -0.5019
52294SOL    HW265661   1.678   2.041   9.696  0.2364 -0.5211 -0.3101
52295SOL     OW65662   2.467   4.361   4.925  0.3168  0.5141 -0.7103
52295SOL    HW165663   2.398   4.428   4.919  1.0216  1.2972 -0.2353
52295SOL    HW265664   2.448   4.314   5.006  0.3628  0.7447 -0.5667
52296SOL     OW65665  11.581   1.021  11.972 -0.3156 -0.2238  0.0887
52296SOL    HW165666  11.639   1.033  12.048 -1.7103  0.5132  1.0667
52296SOL    HW265667  11.621   0.948  11.924  0.3668 -1.0209  1.7708
52297SOL     OW65668   7.602   9.736   3.623  0.3545  0.3008  0.6420
52297SOL    HW165669   7.622   9.643   3.620 -1.4261 -0.1136  0.5274
52297SOL    HW265670   7.613   9.760   3.715 -0.7249 -0.4245  0.9857
52298SOL     OW65671   6.402   5.035  12.507 -0.1338 -0.0396  0.6735
52298SOL    HW165672   6.371   5.088  12.580  2.6583  2.3647  0.2981
52298SOL    HW265673   6.484   4.997  12.537  0.1173 -0.5515 -0.5745
52299SOL     OW65674   3.886   6.162  10.920 -0.0656 -0.1504  0.0188
52299SOL    HW165675   3.875   6.068  10.905 -2.5589  0.3403 -1.9131
52299SOL    HW265676   3.911   6.197  10.834 -0.3196  1.0709  0.4228
52300SOL     OW65677   7.377   1.526   5.240 -0.3727 -0.1546 -0.0996
52300SOL    HW165678   7.397   1.587   5.170  0.2578 -0.8472 -0.5346
52300SOL    HW265679   7.345   1.447   5.196  2.0457 -1.4017  0.2204
52301SOL     OW65680  12.556   6.463   5.406  0.5260 -0.4750  0.1536
52301SOL    HW165681  12.483   6.485   5.464  0.1292 -0.2198 -0.4406
52301SOL    HW265682  12.634   6.479   5.459  0.2222  1.2715  0.1126
52302SOL     OW65683   9.249   2.912  11.064 -0.4232  0.0780 -0.1511
52302SOL    HW165684   9.266   2.887  11.155  1.6658  2.3306  0.1694
52302SOL    HW265685   9.282   2.840  11.012  0.3939 -0.2730  0.8369
52303SOL     OW65686   0.213   4.835  10.737  0.7884  0.6549  0.6152
52303SOL    HW165687   0.284   4.774  10.757  0.4815 -0.4209 -1.3649
52303SOL    HW265688   0.136   4.798  10.781  0.7514 -0.0222 -0.0128
52304SOL     OW65689  10.991  11.629   3.322 -0.0792  0.0021  0.2876
52304SOL    HW165690  11.060  11.688   3.352 -0.1232  0.0464  0.3021
52304SOL    HW265691  10.962  11.666   3.239  0.0131 -0.0965  0.2112
52305SOL     OW65692   0.620   7.754   9.029 -0.0696 -0.6598 -0.8759
52305SOL    HW165693   0.564   7.812   9.080  2.1173  0.0009  0.9641
52305SOL    HW265694   0.561   7.688   8.992 -2.1487  0.6622 -0.0386
52306SOL     OW65695   9.413   4.446   2.853  0.1459  0.1012 -0.2374
52306SOL    HW165696   9.341   4.424   2.794 -0.2980  0.3913  0.1887
52306SOL    HW265697   9.489   4.404   2.814  0.2745  1.8923 -2.1127
52307SOL     OW65698   1.235  11.403   2.029 -0.0802 -0.4687  0.9372
52307SOL    HW165699   1.241  11.313   2.061  0.5245  0.2409  2.9104
52307SOL    HW265700   1.141  11.422   2.026 -0.2024 -1.0820  0.6663
52308SOL     OW65701  11.908   9.760   3.264 -0.0465  0.8406 -0.4357
52308SOL    HW165702  11.904   9.665   3.276  0.9247  0.8246 -0.1705
52308SOL    HW265703  11.866   9.775   3.180  1.3645 -0.0192 -1.3285
52309SOL     OW65704   4.258   7.932   0.911  0.5838 -0.7626  0.4697
52309SOL    HW165705   4.199   7.856   0.916  0.3492 -0.7235 -1.2732
52309SOL    HW265706   4.304   7.921   0.828 -0.3277  1.6271 -0.4175
52310SOL     OW65707   7.159   8.269   1.887 -0.1963 -0.1655 -0.2760
52310SOL    HW165708   7.128   8.210   1.818  0.7520 -0.2134 -0.6627
52310SOL    HW265709   7.230   8.221   1.930 -0.8482 -0.1844  0.8190
52311SOL     OW65710  11.390   3.759   9.877 -0.3714  0.1649 -0.3721
52311SOL    HW165711  11.459   3.693   9.867 -1.5498 -1.5094  1.7452
52311SOL    HW265712  11.342   3.755   9.794  1.4873  0.7536 -1.5495
52312SOL     OW65713   9.206   5.516   1.411 -0.7043 -0.2495 -0.1298
52312SOL    HW165714   9.249   5.539   1.493 -1.7471  0.5180  0.2171
52312SOL    HW265715   9.277   5.481   1.356  0.0313 -0.6281  1.0281
52313SOL     OW65716   4.273   3.562   5.553 -0.5506 -0.2308  0.2826
52313SOL    HW165717   4.246   3.512   5.476  0.3073 -0.5513  0.1837
52313SOL    HW265718   4.191   3.583   5.597 -1.0867  0.2555 -0.8984
52314SOL     OW65719   1.947   8.499  11.843  0.1658 -0.5149 -0.1651
52314SOL    HW165720   2.040   8.521  11.838  0.2073 -0.8439 -1.0989
52314SOL    HW265721   1.946   8.408  11.874  0.0862 -0.0345  1.3097
52315SOL     OW65722   2.075   4.344   1.301  0.7475 -0.2245  0.2793
52315SOL    HW165723   2.065   4.308   1.213  2.0629 -0.9278  0.3867
52315SOL    HW265724   1.992   4.388   1.319  1.5381  2.8151 -2.5630
52316SOL     OW65725   2.142   2.070   5.716 -0.1298  0.0473  0.1679
52316SOL    HW165726   2.146   2.079   5.621  0.2331 -1.0738  0.0694
52316SOL    HW265727   2.233   2.073   5.745 -0.2885  1.4914  0.6109
52317SOL     OW65728   4.031   9.336   2.913 -0.0566 -1.0124  0.2343
52317SOL    HW165729   4.095   9.352   2.843  0.6368  0.3334  1.1230
52317SOL    HW265730   4.045   9.245   2.939  1.4371 -0.7916  0.3145
52318SOL     OW65731   6.959   9.408   1.430  0.6282  0.2090  0.2886
52318SOL    HW165732   6.956   9.332   1.489  0.0196 -0.4617 -0.5921
52318SOL    HW265733   6.896   9.388   1.361  2.3116  0.3513 -1.3558
52319SOL     OW65734   2.879  11.171   9.616 -0.4028 -0.4130 -0.2648
52319SOL    HW165735   2.870  11.090   9.667 -0.5511  0.3938  1.0566
52319SOL    HW265736   2.875  11.143   9.525  2.0309 -2.1698  0.0872
52320SOL     OW65737   4.054  11.686   7.476 -0.1348  0.7276  0.2797
52320SOL    HW165738   4.064  11.779   7.496  1.5359  0.8753 -1.0453
52320SOL    HW265739   4.051  11.643   7.562 -0.2370  1.9410  0.8933
52321SOL     OW65740   6.212  10.595   7.800 -0.2415 -0.4158  0.2024
52321SOL    HW165741   6.156  10.574   7.725 -1.7634 -0.2115  1.2317
52321SOL    HW265742   6.170  10.551   7.874  1.2293 -0.6222  0.9440
52322SOL     OW65743   1.862   0.460   3.388 -0.4523 -0.0289 -0.4040
52322SOL    HW165744   1.859   0.374   3.430  0.9197  0.0121 -0.1719
52322SOL    HW265745   1.899   0.443   3.302  0.1635  0.3705 -0.2234
52323SOL     OW65746   2.193   4.080   6.991  0.1557  0.0749 -0.1547
52323SOL    HW165747   2.117   4.037   6.953  0.3376 -0.3949  0.0153
52323SOL    HW265748   2.224   4.021   7.059 -0.1515  0.8944  0.7323
52324SOL     OW65749   5.838   6.362   8.319  0.0826  0.6452 -0.4281
52324SOL    HW165750   5.910   6.302   8.298 -0.5713 -0.7623  1.1250
52324SOL    HW265751   5.766   6.335   8.262 -0.1771 -0.0027  0.1947
52325SOL     OW65752   0.644   8.361   9.161 -0.3813  0.3527  0.2625
52325SOL    HW165753   0.642   8.275   9.120 -2.5824  0.3023  0.3444
52325SOL    HW265754   0.599   8.418   9.099  2.1876  1.8167 -0.4120
52326SOL     OW65755  12.137   1.921  11.435  0.3905 -0.0176 -0.2750
52326SOL    HW165756  12.158   1.843  11.384 -0.3230 -0.6630  0.3970
52326SOL    HW265757  12.047   1.908  11.464  0.3034  0.9969 -0.0361
52327SOL     OW65758   2.540  11.720   0.862 -0.1562  0.1525  0.2273
52327SOL    HW165759   2.511  11.781   0.929  0.1184 -0.5430  0.9993
52327SOL    HW265760   2.487  11.641   0.877 -0.0528 -0.0283 -0.3355
52328SOL     OW65761   8.144   4.044   4.788 -0.2674 -0.1190  0.3009
52328SOL    HW165762   8.174   4.134   4.775  1.6490 -0.8775 -1.0389
52328SOL    HW265763   8.190   4.014   4.866  2.2123 -1.0720 -1.3887
52329SOL     OW65764  12.073   7.626  11.932 -0.0160  0.0137  0.4229
52329SOL    HW165765  12.087   7.707  11.980 -2.4959 -0.2200  1.6932
52329SOL    HW265766  11.986   7.636  11.892  1.0942 -0.6225 -2.4412
52330SOL     OW65767  11.771   0.996  10.430 -1.0583  0.3639 -0.1328
52330SOL    HW165768  11.797   0.904  10.430 -1.5552  0.2199 -0.5402
52330SOL    HW265769  11.756   1.017  10.522  1.2370  0.6730  0.2320
52331SOL     OW65770   9.100   0.087   4.180  0.2067  0.7506 -0.0470
52331SOL    HW165771   9.019   0.037   4.169 -0.4366  0.6127  3.7930
52331SOL    HW265772   9.076   0.177   4.157 -0.9630  0.6432  0.6660
52332SOL     OW65773  11.723   7.768   3.346 -0.0475 -0.0456  0.3518
52332SOL    HW165774  11.767   7.692   3.308  0.6332  0.2047  0.6260
52332SOL    HW265775  11.793   7.820   3.385 -0.6002  0.2979  0.9137
52333SOL     OW65776   5.195   3.944  12.226 -0.5768  0.7009  0.3122
52333SOL    HW165777   5.120   3.910  12.275  0.4054 -0.9601  0.7563
52333SOL    HW265778   5.258   3.971  12.294  0.1388 -0.0809 -0.0254
52334SOL     OW65779   1.614  11.096  12.075  0.2025 -0.5036 -0.8763
52334SOL    HW165780   1.547  11.139  12.022 -0.1278  0.0939  0.0086
52334SOL    HW265781   1.674  11.058  12.011 -0.5561 -0.3811 -1.6797
52335SOL     OW65782  12.156   1.016   6.007 -0.2224  0.2634 -0.4431
52335SOL    HW165783  12.228   1.079   6.013  0.4428 -0.5908  0.8743
52335SOL    HW265784  12.176   0.950   6.072 -1.9490 -0.2734 -0.4038
52336SOL     OW65785   0.136   7.265   5.683 -0.1825 -0.1256  0.1787
52336SOL    HW165786   0.079   7.316   5.626  0.4535 -0.3645 -0.6839
52336SOL    HW265787   0.089   7.183   5.697  0.1307 -0.4996 -0.8892
52337SOL     OW65788   9.504   5.670   7.773  0.4395  1.0091 -0.2404
52337SOL    HW165789   9.522   5.675   7.679 -2.4307  3.3364 -0.8066
52337SOL    HW265790   9.589   5.683   7.814  1.6621  0.6956 -2.4896
52338SOL     OW65791   5.026   3.644   0.537 -0.0903  0.2835 -0.2440
52338SOL    HW165792   5.028   3.550   0.520 -1.1914  0.0971  0.5642
52338SOL    HW265793   5.085   3.681   0.471  0.1535 -0.9374 -0.7458
52339SOL     OW65794   0.589   9.580   4.701  0.3534  0.2557 -0.3527
52339SOL    HW165795   0.526   9.642   4.739  0.1046  0.3120 -0.8503
52339SOL    HW265796   0.590   9.602   4.608  1.7792  0.8519 -0.2134
52340SOL     OW65797   2.052   1.595   8.606 -0.0347 -0.5348  0.0882
52340SOL    HW165798   1.992   1.589   8.531 -0.2395  1.6880  0.0292
52340SOL    HW265799   2.028   1.676   8.650  2.4872  0.1143  0.4365
52341SOL     OW65800   1.443   3.006   3.694 -0.4672  0.1319 -0.5023
52341SOL    HW165801   1.531   3.042   3.691 -0.6107  0.8224  1.9269
52341SOL    HW265802   1.387   3.078   3.663 -0.2693 -0.0460 -1.2968
52342SOL     OW65803  10.076   1.018   2.734 -0.1500  0.1515  0.1176
52342SOL    HW165804  10.087   0.961   2.809 -2.1796 -1.0853 -0.4541
52342SOL    HW265805  10.035   1.097   2.769 -0.1993 -0.0196  0.4434
52343SOL     OW65806   0.595   5.307   1.741  0.0781 -0.9168 -0.2797
52343SOL    HW165807   0.545   5.352   1.808  0.8528 -0.7262  0.1863
52343SOL    HW265808   0.642   5.376   1.694 -1.4431 -0.9097 -1.8981
52344SOL     OW65809  11.713  11.130   1.102  0.0576 -0.2286 -0.0578
52344SOL    HW165810  11.680  11.096   1.185  0.3341 -0.7791 -0.1688
52344SOL    HW265811  11.764  11.207   1.126 -0.6153  0.1481  0.1920
52345SOL     OW65812   4.753   4.635   2.893 -0.3218  0.0585  0.2845
52345SOL    HW165813   4.722   4.557   2.939 -1.1464 -0.4201 -1.0286
52345SOL    HW265814   4.716   4.708   2.941 -0.1439 -0.3835  1.1013
52346SOL     OW65815   0.333  12.373   4.748 -0.3160  0.6588  0.1970
52346SOL    HW165816   0.331  12.354   4.654 -2.9262  2.7656 -0.2889
52346SOL    HW265817   0.290  12.458   4.757 -1.2557  0.0096  3.4060
52347SOL     OW65818   2.997   4.416  12.264  0.1483 -0.1867 -0.4313
52347SOL    HW165819   2.970   4.495  12.311  0.3077 -0.7495  0.6475
52347SOL    HW265820   3.057   4.446  12.197 -1.5136  0.8706 -1.5344
52348SOL     OW65821   8.700  10.272   1.500 -0.4908 -0.0162  0.3680
52348SOL    HW165822   8.682  10.178   1.494  3.0909 -0.8768  0.9011
52348SOL    HW265823   8.718  10.298   1.410  0.4760 -0.3586  0.4474
52349SOL     OW65824   7.411  10.011  11.991  0.0670  0.6136 -0.5711
52349SOL    HW165825   7.360  10.091  12.005  0.4517  0.8068 -0.2586
52349SOL    HW265826   7.457   9.997  12.074 -0.0073  0.0594 -0.6166
52350SOL     OW65827   0.515  10.838   0.576  0.2139  0.0686 -0.0055
52350SOL    HW165828   0.560  10.771   0.627  0.1628 -1.2862 -1.6407
52350SOL    HW265829   0.443  10.867   0.632 -0.9439 -2.6722  0.0379
52351SOL     OW65830   0.908   1.883   0.413 -0.3317  0.0579  0.4262
52351SOL    HW165831   0.892   1.884   0.319 -0.6411  0.9277  0.4793
52351SOL    HW265832   0.826   1.914   0.452 -0.0896  0.0423  0.9560
52352SOL     OW65833  10.052   1.992   1.739 -0.0554  0.2767  0.1190
52352SOL    HW165834  10.073   2.033   1.822  1.9367  1.8311 -1.0540
52352SOL    HW265835  10.021   2.064   1.684 -1.7721 -0.7933 -0.3974
52353SOL     OW65836   3.401  11.712  10.669  0.1297  0.1924 -0.3876
52353SOL    HW165837   3.458  11.640  10.696  2.6647  2.1474 -0.1857
52353SOL    HW265838   3.409  11.715  10.574 -1.0147 -0.5292 -0.5364
52354SOL     OW65839  11.841   5.662  11.372  0.6902  0.2995  1.0718
52354SOL    HW165840  11.822   5.653  11.466 -0.8968 -2.2393  0.6103
52354SOL    HW265841  11.757   5.690  11.334  0.5441 -1.2746  0.1446
52355SOL     OW65842  12.599   5.986   1.191  0.0531  0.3559  0.0792
52355SOL    HW165843  12.517   5.959   1.234 -0.3477  0.7940 -0.3989
52355SOL    HW265844  12.627   5.908   1.143  1.2818 -0.6291  2.2401
52356SOL     OW65845   3.132  10.630   5.910 -0.0858 -0.7738 -0.1986
52356SOL    HW165846   3.196  10.569   5.871  0.2444  0.2386 -1.3240
52356SOL    HW265847   3.067  10.642   5.841 -0.2802 -0.0547  0.1085
52357SOL     OW65848  11.314   5.392   5.801  0.1483  0.7893 -0.4207
52357SOL    HW165849  11.265   5.344   5.867 -2.2830  0.6235 -2.2055
52357SOL    HW265850  11.349   5.468   5.848 -1.6958  0.8085  1.0489
52358SOL     OW65851   6.883   8.794  11.633  0.9215 -0.2562  0.4814
52358SOL    HW165852   6.957   8.733  11.637  0.2353 -1.1404  0.0037
52358SOL    HW265853   6.860   8.811  11.724  1.9812  0.3842  0.6513
52359SOL     OW65854   0.354  12.203  12.047  0.1129 -0.4722  0.2523
52359SOL    HW165855   0.315  12.205  12.134 -1.3513  0.0031 -0.3803
52359SOL    HW265856   0.394  12.117  12.040  1.1357 -0.1602  1.7405
52360SOL     OW65857   5.164   4.542   2.769  0.0380  0.2315 -0.9901
52360SOL    HW165858   5.154   4.452   2.798 -0.5608  0.8119  0.7241
52360SOL    HW265859   5.204   4.535   2.682  1.6289 -1.6182 -0.1865
52361SOL     OW65860   9.389   1.706   1.011  0.3914  0.0452 -0.0822
52361SOL    HW165861   9.395   1.740   1.100 -0.4726  0.1888 -0.0602
52361SOL    HW265862   9.302   1.735   0.981  1.0684  0.8748 -1.3287
52362SOL     OW65863   9.848   5.924   7.351 -0.0234  0.3216  0.1497
52362SOL    HW165864   9.852   5.923   7.446 -0.5446 -2.2678  0.2167
52362SOL    HW265865   9.880   6.010   7.326 -0.8705  1.4485  2.6943
52363SOL     OW65866   3.152   5.803   4.289 -0.2136  0.6439 -0.4303
52363SOL    HW165867   3.216   5.814   4.219 -0.1050  1.5353 -0.2057
52363SOL    HW265868   3.138   5.891   4.323 -0.7331  0.3094  0.2586
52364SOL     OW65869   9.413   5.231   2.368 -0.3131  0.1321  0.2388
52364SOL    HW165870   9.444   5.190   2.448  0.8547 -0.2713 -0.3909
52364SOL    HW265871   9.317   5.227   2.374 -0.2610 -2.4183  0.3726
52365SOL     OW65872  11.905   1.355   9.875 -0.2778  0.3756 -0.0551
52365SOL    HW165873  11.998   1.379   9.880 -0.3646  0.6058  0.6051
52365SOL    HW265874  11.875   1.395   9.793  0.6520 -1.3654 -1.3200
52366SOL     OW65875  12.005   5.917   4.113  0.0590 -0.3097 -0.1835
52366SOL    HW165876  11.938   5.933   4.179 -0.1906 -0.2151 -0.4534
52366SOL    HW265877  11.986   5.981   4.044 -2.3747 -3.0498 -2.3563
52367SOL     OW65878   6.923   1.664   0.276 -0.0786  0.5732  0.4141
52367SOL    HW165879   6.830   1.646   0.267  0.3109 -1.2362 -0.6914
52367SOL    HW265880   6.952   1.686   0.187  0.7084  0.1581  0.5549
52368SOL     OW65881   3.866   6.421   1.321 -0.2418  0.6163 -0.6558
52368SOL    HW165882   3.817   6.395   1.243 -2.1508  0.5159  0.5050
52368SOL    HW265883   3.882   6.338   1.368 -3.2931  0.9614  1.3227
52369SOL     OW65884   2.741   0.966   9.591  0.6769  0.4696 -0.3485
52369SOL    HW165885   2.648   0.985   9.575 -0.1498 -2.6597  0.0888
52369SOL    HW265886   2.768   1.034   9.652 -1.7131  0.7286  0.5547
52370SOL     OW65887   9.076   4.407   3.332 -0.0365  0.3081  0.6853
52370SOL    HW165888   9.086   4.315   3.358 -0.2968 -0.3592 -1.4103
52370SOL    HW265889   8.983   4.417   3.312  0.3106  0.4420 -1.0158
52371SOL     OW65890   8.164   4.689   2.914 -0.5182  0.4330  0.1187
52371SOL    HW165891   8.166   4.667   2.821  0.0465 -0.8496  0.4224
52371SOL    HW265892   8.201   4.613   2.958 -0.3197  1.2208  1.3647
52372SOL     OW65893   4.328   7.716  11.707  0.2524 -0.6075  0.0516
52372SOL    HW165894   4.418   7.749  11.708  0.3875 -0.9521 -0.3192
52372SOL    HW265895   4.289   7.756  11.629  0.2865 -0.9749 -0.1569
52373SOL     OW65896  11.105   2.550   2.525 -0.4050 -0.0004 -0.0198
52373SOL    HW165897  11.076   2.479   2.467  0.5838  0.1671 -0.7330
52373SOL    HW265898  11.038   2.553   2.593 -1.1032 -0.8182 -0.6422
52374SOL     OW65899  10.340   0.386   7.308  0.1376  0.4278 -0.2566
52374SOL    HW165900  10.271   0.341   7.259 -0.1156  0.0502  0.4347
52374SOL    HW265901  10.296   0.461   7.348  0.4412  1.0032 -0.9520
52375SOL     OW65902   3.004   1.828   6.135 -0.5088 -0.4517 -0.6887
52375SOL    HW165903   3.030   1.853   6.046 -0.5114  0.5465 -0.4210
52375SOL    HW265904   2.995   1.733   6.131 -1.4721 -0.3404 -2.0097
52376SOL     OW65905   6.220  10.960   8.539 -0.8211  0.0035 -0.5017
52376SOL    HW165906   6.249  11.029   8.599  0.6120  0.0415 -1.2066
52376SOL    HW265907   6.143  10.996   8.496 -0.0065  1.2439 -0.9675
52377SOL     OW65908   8.115   4.749   2.240  0.3011  0.2646 -0.0534
52377SOL    HW165909   8.100   4.843   2.236  0.7170  0.3284 -0.1457
52377SOL    HW265910   8.209   4.739   2.222  0.5528 -0.0705  1.3485
52378SOL     OW65911   0.848   2.240   0.369 -0.1967  0.5658  0.1929
52378SOL    HW165912   0.929   2.189   0.376 -0.9005 -1.3026 -3.2897
52378SOL    HW265913   0.872   2.315   0.315 -1.0341 -0.9719 -2.4902
52379SOL     OW65914   2.071   2.266  10.274 -0.2839 -0.1811 -0.4659
52379SOL    HW165915   2.106   2.186  10.312 -3.2025 -1.4711 -0.2988
52379SOL    HW265916   2.078   2.253  10.179 -0.0250 -0.2550 -0.4391
52380SOL     OW65917   8.080   9.317  11.399 -0.0214  0.2262 -0.2160
52380SOL    HW165918   8.163   9.327  11.353  0.0770  2.4673  0.3624
52380SOL    HW265919   8.105   9.281  11.485  0.5062  1.8020  0.3212
52381SOL     OW65920   9.813   6.967   1.444  0.5215  0.4309 -0.4832
52381SOL    HW165921   9.848   6.965   1.534 -2.1310 -0.6900  0.6232
52381SOL    HW265922   9.819   6.877   1.414 -1.1676  0.2352 -0.3155
52382SOL     OW65923   8.312   7.515   4.387 -0.5123  0.1318 -0.0631
52382SOL    HW165924   8.400   7.478   4.382  0.4041  2.2462 -0.8419
52382SOL    HW265925   8.255   7.440   4.402  1.4684 -1.2322  1.0720
52383SOL     OW65926   1.918   8.764  10.403 -0.3473  0.4089  0.1326
52383SOL    HW165927   1.991   8.818  10.372 -0.2650  0.3970  0.3047
52383SOL    HW265928   1.840   8.816  10.385 -0.6684 -1.0649 -3.5275
52384SOL     OW65929   2.020  11.912  10.734 -0.3249  0.2697 -0.0582
52384SOL    HW165930   2.008  11.921  10.640 -0.2672  0.4388 -0.0502
52384SOL    HW265931   1.939  11.873  10.766 -0.0027 -0.6392 -0.3013
52385SOL     OW65932   5.168   2.100   0.050  0.3425  0.5294 -0.1392
52385SOL    HW165933   5.107   2.062  -0.014 -1.2796  0.7636  1.1803
52385SOL    HW265934   5.242   2.039   0.052 -0.0600 -0.0419 -1.4346
52386SOL     OW65935  10.818   9.649   2.821 -0.0704  0.0335 -0.1498
52386SOL    HW165936  10.772   9.692   2.893 -0.0864 -1.4272  0.7445
52386SOL    HW265937  10.840   9.720   2.761  0.9297  1.4674  1.8062
52387SOL     OW65938   5.802   8.786   6.574 -0.4630 -0.0371  0.4494
52387SOL    HW165939   5.814   8.865   6.521 -0.1327  1.1018  2.1335
52387SOL    HW265940   5.708   8.786   6.595 -0.6467 -0.6365 -0.3174
52388SOL     OW65941   1.399   1.392   3.384  0.4221 -0.0772 -0.3864
52388SOL    HW165942   1.347   1.339   3.444 -0.3815  0.0813 -0.9321
52388SOL    HW265943   1.380   1.483   3.410  0.9250 -0.0270 -0.1783
52389SOL     OW65944   1.835   4.270   3.271  0.0913  0.0065 -0.0010
52389SOL    HW165945   1.753   4.220   3.276  0.9057 -1.6499 -1.8889
52389SOL    HW265946   1.874   4.244   3.188  1.6250  2.2478 -0.0781
52390SOL     OW65947   0.964  12.299   8.623  0.3093  0.7968 -0.2547
52390SOL    HW165948   0.992  12.220   8.577  0.1583  0.5194  0.1311
52390SOL    HW265949   1.039  12.324   8.677  0.7073  1.4634 -1.0870
52391SOL     OW65950   7.535   6.689   3.054  0.0390  0.0629  0.4601
52391SOL    HW165951   7.625   6.713   3.073  0.1195 -0.5868  0.9345
52391SOL    HW265952   7.502   6.654   3.137 -1.1518  1.7687  0.7656
52392SOL     OW65953   5.762   7.415   2.370 -0.0594 -0.5343 -0.0387
52392SOL    HW165954   5.745   7.444   2.280 -0.1117 -1.4858 -0.3425
52392SOL    HW265955   5.676   7.388   2.403  0.0232 -0.5562  0.1603
52393SOL     OW65956   0.514  10.709  12.221 -0.0975  0.6562 -0.3519
52393SOL    HW165957   0.557  10.786  12.184  0.1271  1.5025  1.5394
52393SOL    HW265958   0.430  10.704  12.175 -0.1785  2.1218 -0.4187
52394SOL     OW65959   2.373  11.139   5.845 -0.0552 -0.1120 -0.1767
52394SOL    HW165960   2.453  11.158   5.797 -1.1640  1.4694 -1.5308
52394SOL    HW265961   2.356  11.047   5.828  1.4571 -0.4888  0.1734
52395SOL     OW65962   2.693  11.494   5.735 -0.3729  0.2517 -0.7071
52395SOL    HW165963   2.603  11.499   5.764 -0.5031 -2.6942 -0.2473
52395SOL    HW265964   2.698  11.411   5.686  2.3440 -0.4103  0.4791
52396SOL     OW65965  11.792   4.612   1.934  0.1159  0.1805  1.1616
52396SOL    HW165966  11.740   4.685   1.966 -0.2700  0.0103  0.9327
52396SOL    HW265967  11.822   4.640   1.848 -1.1189 -0.4301  0.5011
52397SOL     OW65968   8.246   0.755   2.793  0.1261  0.0040  0.1098
52397SOL    HW165969   8.280   0.833   2.751  1.3035 -0.4763  0.1224
52397SOL    HW265970   8.254   0.773   2.887  0.0903 -0.0033  0.1144
52398SOL     OW65971   2.062   2.644  12.376 -0.3438  0.3845 -0.0759
52398SOL    HW165972   2.067   2.554  12.407 -0.8483  0.4954  0.3507
52398SOL    HW265973   2.030   2.638  12.287  0.4346  0.0996 -0.3436
52399SOL     OW65974   3.750   9.499  12.588 -0.1799  0.0440  0.2596
52399SOL    HW165975   3.760   9.490  12.683  1.5761 -1.6369 -0.0308
52399SOL    HW265976   3.810   9.569  12.564  0.1716 -0.2610  0.2525
52400SOL     OW65977   0.191   3.362   2.941 -0.6276 -0.1182  0.5487
52400SOL    HW165978   0.124   3.429   2.951 -0.2498  0.5301 -0.9600
52400SOL    HW265979   0.272   3.405   2.969 -0.7055 -0.6576  1.6455
52401SOL     OW65980  11.971  12.049   3.744  0.0656  0.0711 -0.1228
52401SOL    HW165981  12.003  12.016   3.660  1.5671 -1.2820  0.9150
52401SOL    HW265982  11.920  12.127   3.722 -0.4730 -0.8457 -2.3648
52402SOL     OW65983  11.565   7.866   8.208  0.1774  0.4061 -0.3732
52402SOL    HW165984  11.643   7.853   8.154  1.0918 -1.0087  1.2123
52402SOL    HW265985  11.502   7.801   8.175  0.1763  0.5716 -0.7059
52403SOL     OW65986   6.133   0.632  12.110 -0.2276 -0.3284 -0.2744
52403SOL    HW165987   6.095   0.715  12.080  0.9263  0.2610 -0.1509
52403SOL    HW265988   6.203   0.613  12.048 -0.5356 -1.2744 -0.3572
52404SOL     OW65989   5.190   5.714   2.575 -0.7854  0.4179  0.0747
52404SOL    HW165990   5.141   5.643   2.533  0.8851 -1.3354  0.9447
52404SOL    HW265991   5.173   5.703   2.668 -0.1194  0.8847  0.2577
52405SOL     OW65992   1.989   1.428   0.998 -0.0487 -0.1088  0.1062
52405SOL    HW165993   1.912   1.454   0.948 -0.7919 -0.4428  1.0332
52405SOL    HW265994   1.985   1.481   1.078 -0.2961 -1.3504  0.9545
52406SOL     OW65995   2.923   0.724   2.568  0.4136 -0.0420  0.4946
52406SOL    HW165996   2.901   0.659   2.501  2.0731 -1.1822  0.9802
52406SOL    HW265997   2.986   0.782   2.526  0.2920  0.1743  0.6081
52407SOL     OW65998   4.924   0.948   2.383 -0.0913  0.2439  0.0237
52407SOL    HW165999   5.004   0.908   2.351  0.3355  0.5949  0.6274
52407SOL    HW266000   4.856   0.881   2.369  0.5619 -0.6138  0.8153
52408SOL     OW66001   5.662   5.088   5.532  0.5579 -0.1562 -0.9630
52408SOL    HW166002   5.634   5.009   5.577 -1.5543  0.5029 -1.0026
52408SOL    HW266003   5.584   5.118   5.485  1.8043  0.9504 -2.4395
52409SOL     OW66004   8.744  11.537  11.997 -0.3407  0.2797  0.5806
52409SOL    HW166005   8.757  11.481  11.921 -0.2680  0.5451  0.3947
52409SOL    HW266006   8.728  11.624  11.960 -0.3550  0.4007  0.8678
52410SOL     OW66007  10.324   0.170   0.157  0.1019 -0.4739 -0.2310
52410SOL    HW166008  10.311   0.261   0.183 -0.0070 -0.3636 -0.6649
52410SOL    HW266009  10.353   0.126   0.237  1.3390  0.1913 -0.3033
52411SOL     OW66010   8.438  11.723   1.860  0.4299  0.4756  0.1893
52411SOL    HW166011   8.347  11.746   1.879 -0.2370 -1.2982 -0.6404
52411SOL    HW266012   8.474  11.697   1.945 -1.4866 -3.9639 -0.0794
52412SOL     OW66013  12.079   5.365   2.129 -0.4891 -0.0191  0.1440
52412SOL    HW166014  12.122   5.372   2.044 -0.9990 -2.8442 -0.4382
52412SOL    HW266015  12.150   5.378   2.193  0.1475  0.8017 -0.7096
52413SOL     OW66016   1.990   4.294   8.422  0.2532 -0.5529  0.0894
52413SOL    HW166017   1.993   4.344   8.504 -1.1148 -1.0653  0.4969
52413SOL    HW266018   1.897   4.275   8.410  0.3513 -0.0107 -1.9041
52414SOL     OW66019   0.976   5.770   4.026 -0.3011 -0.3597 -0.0225
52414SOL    HW166020   0.915   5.839   4.052 -2.9729 -2.3477 -0.6601
52414SOL    HW266021   0.985   5.781   3.932  1.6632  0.8479  0.2405
52415SOL     OW66022   2.610   4.469   5.276 -0.2869 -0.3291 -0.2045
52415SOL    HW166023   2.584   4.558   5.253 -1.2794 -0.9137 -1.4649
52415SOL    HW266024   2.696   4.458   5.235  0.1154  0.2285  0.4642
52416SOL     OW66025   4.036   0.041   5.180 -0.4834 -0.2193 -0.2590
52416SOL    HW166026   4.071   0.072   5.096  0.0816  1.3032  0.4912
52416SOL    HW266027   3.991  -0.040   5.159 -0.2053  0.0393 -2.0103
52417SOL     OW66028   4.467  11.476   9.574 -0.1080  0.2000 -0.7305
52417SOL    HW166029   4.505  11.560   9.547  0.6091  0.3839  0.6904
52417SOL    HW266030   4.542  11.425   9.604 -0.8260  0.1602  1.1411
52418SOL     OW66031   5.336   1.202   1.201  0.3459  0.5636  0.1934
52418SOL    HW166032   5.274   1.146   1.153  1.3916 -0.6483  0.2002
52418SOL    HW266033   5.364   1.148   1.274  0.9299  1.3432  0.5509
52419SOL     OW66034  10.612   1.517  12.058 -0.4238 -0.0086 -0.2765
52419SOL    HW166035  10.668   1.440  12.057  1.4221  1.1622  1.9123
52419SOL    HW266036  10.531   1.488  12.102  0.1651 -0.7570  0.3421
52420SOL     OW66037   9.043   4.139   3.414  0.4482 -0.6466 -0.5169
52420SOL    HW166038   9.129   4.099   3.423 -0.5572 -3.0677 -0.8953
52420SOL    HW266039   8.993   4.076   3.362 -1.8288  0.2390  0.4818
52421SOL     OW66040   9.294   5.865   0.942 -0.3503 -0.0590 -0.0835
52421SOL    HW166041   9.285   5.847   0.848  1.8717 -1.3055 -0.1299
52421SOL    HW266042   9.303   5.779   0.983  1.7982  0.5316  0.8442
52422SOL     OW66043  12.551   7.632   6.592  0.2139  0.1151 -0.3331
52422SOL    HW166044  12.511   7.575   6.658 -0.8606  0.8577 -0.3144
52422SOL    HW266045  12.536   7.587   6.509  0.1928 -0.0729 -0.2284
52423SOL     OW66046   7.069   4.371   4.361  0.2317  0.2878  0.2484
52423SOL    HW166047   7.091   4.407   4.275  1.6638  0.7288  0.7752
52423SOL    HW266048   6.978   4.342   4.352  0.5675 -0.3221 -1.6116
52424SOL     OW66049   5.621   6.339  11.202 -0.1208  0.7715  0.1266
52424SOL    HW166050   5.705   6.354  11.246  0.1839 -0.2689 -0.0835
52424SOL    HW266051   5.624   6.396  11.125  0.3359  0.8369  0.1878
52425SOL     OW66052   2.789   5.384   2.552  0.7864 -0.5399 -0.0717
52425SOL    HW166053   2.794   5.289   2.541 -1.1565 -0.8329  1.1393
52425SOL    HW266054   2.794   5.418   2.463  2.6369 -1.6823 -0.4500
52426SOL     OW66055   7.082   7.104   4.905 -0.0786 -0.4052  0.6095
52426SOL    HW166056   6.990   7.129   4.896  0.5042  1.7547  0.0376
52426SOL    HW266057   7.079   7.013   4.936 -2.4186  0.2395  2.6129
52427SOL     OW66058   4.656   8.948   0.145 -0.4360 -0.0638 -0.0578
52427SOL    HW166059   4.642   8.877   0.082  1.0459  1.1921 -1.9130
52427SOL    HW266060   4.578   9.002   0.137 -0.3235  0.0111 -0.7525
52428SOL     OW66061   0.059   9.703  11.560 -0.6339 -0.3868  0.6036
52428SOL    HW166062   0.030   9.715  11.650  0.6307 -0.3013  1.0166
52428SOL    HW266063   0.099   9.786  11.536 -2.2543  0.1153 -0.5739
52429SOL     OW66064   9.994   0.342   6.324  0.2807 -0.0924 -0.3581
52429SOL    HW166065  10.075   0.393   6.336  0.2859 -0.4528  1.4839
52429SOL    HW266066   9.926   0.396   6.363 -0.4361  0.2669 -2.0261
52430SOL     OW66067   0.301   9.824   2.340 -0.3435 -0.1162  0.3694
52430SOL    HW166068   0.290   9.824   2.245  0.3403  0.7939  0.2824
52430SOL    HW266069   0.215   9.798   2.373 -1.1596  1.3500 -0.4600
52431SOL     OW66070   1.461   7.971   1.448 -0.1377 -0.1848 -0.0200
52431SOL    HW166071   1.420   8.022   1.378  0.0563  0.6732  0.4742
52431SOL    HW266072   1.390   7.952   1.509 -0.4705 -1.5839 -0.7821
52432SOL     OW66073  12.059   5.583   9.254  0.0026 -0.0577 -0.4276
52432SOL    HW166074  12.066   5.497   9.294  0.0233 -0.0334 -0.3790
52432SOL    HW266075  12.115   5.639   9.307  2.5771 -0.6717 -2.2689
52433SOL     OW66076   2.221  11.822  11.368  0.0952 -0.2360 -0.8187
52433SOL    HW166077   2.206  11.728  11.352 -0.8585 -0.2364  0.0116
52433SOL    HW266078   2.143  11.865  11.334  0.2385  0.2028 -0.6038
52434SOL     OW66079   6.028   8.885   3.674 -0.2840  0.0917 -1.2071
52434SOL    HW166080   6.027   8.793   3.701  0.4399 -0.1438 -1.9325
52434SOL    HW266081   6.091   8.888   3.601 -1.6874  0.7934 -2.4580
52435SOL     OW66082   0.839   7.121   3.708 -0.4797  0.2162 -0.0172
52435SOL    HW166083   0.797   7.120   3.795  0.8656 -0.4487  0.6563
52435SOL    HW266084   0.830   7.032   3.676 -1.2984  0.5525 -0.7374
52436SOL     OW66085   3.342   2.263   2.177  0.0026  0.9124 -0.4890
52436SOL    HW166086   3.414   2.266   2.240 -1.0956  2.1624  0.7610
52436SOL    HW266087   3.281   2.199   2.213  0.1685  0.3278 -1.2187
52437SOL     OW66088   8.555   7.948   2.001 -0.0865  0.0659 -0.3455
52437SOL    HW166089   8.627   8.011   1.994  0.4862 -0.4694  0.6596
52437SOL    HW266090   8.509   7.972   2.081 -1.0867  0.4381 -1.0044
52438SOL     OW66091   1.067   8.172  10.006 -0.0065  0.3240 -0.0397
52438SOL    HW166092   1.018   8.102  10.049 -0.4354  1.1495  0.8802
52438SOL    HW266093   1.117   8.213  10.077  0.9158  0.3988 -0.7183
52439SOL     OW66094   1.567   2.110   3.878 -0.0317  0.8136 -0.0602
52439SOL    HW166095   1.506   2.041   3.854  0.1527  0.1079  1.3604
52439SOL    HW266096   1.522   2.191   3.854 -1.5990  0.3244  1.0176
52440SOL     OW66097   2.324  11.994   3.353 -0.0935  0.1131 -0.4040
52440SOL    HW166098   2.373  12.075   3.364 -0.2688  0.1386  0.2530
52440SOL    HW266099   2.364  11.933   3.415 -1.6422  0.4936  1.0523
52441SOL     OW66100   0.380   4.045   3.147  0.3006 -0.8203 -0.3363
52441SOL    HW166101   0.434   4.062   3.224  0.3140 -3.9239  0.4707
52441SOL    HW266102   0.301   4.098   3.161  1.5973  1.0545  0.2025
52442SOL     OW66103   6.758   6.073   3.045 -0.4243  0.4842  0.2092
52442SOL    HW166104   6.766   6.127   2.966  2.1266 -0.4631 -0.2728
52442SOL    HW266105   6.744   6.136   3.116  0.4485  1.6090 -0.5863
52443SOL     OW66106   2.952   2.636  11.459 -0.1789 -0.2633 -0.0076
52443SOL    HW166107   2.936   2.653  11.552  1.4668  1.1799  0.0783
52443SOL    HW266108   2.918   2.713  11.414  1.7827  0.5445 -0.2436
52444SOL     OW66109  11.181  11.287  11.924  0.0553  0.0781 -0.4281
52444SOL    HW166110  11.192  11.226  11.851 -0.8137 -2.2914  1.3047
52444SOL    HW266111  11.107  11.252  11.973 -0.7458  2.8014  0.4726
52445SOL     OW66112   8.180   9.953  11.697 -0.2662  0.1730 -0.1189
52445SOL    HW166113   8.222   9.920  11.618 -0.1640 -0.1029  0.0503
52445SOL    HW266114   8.095   9.910  11.700 -0.6109  0.8095 -0.5173
52446SOL     OW66115   5.643  11.170   5.042 -0.7074 -0.2728  0.5920
52446SOL    HW166116   5.631  11.096   4.983 -0.4148 -0.5519  0.8773
52446SOL    HW266117   5.734  11.164   5.070 -0.3431  0.8663 -0.2707
52447SOL     OW66118   5.773   1.274   7.143  0.4647  0.8214  0.1157
52447SOL    HW166119   5.684   1.247   7.118  0.7504 -1.3376  1.1953
52447SOL    HW266120   5.761   1.338   7.213 -0.2625 -0.4878  1.2174
52448SOL     OW66121   3.965   8.676  12.601  0.3251  0.2259 -0.1538
52448SOL    HW166122   4.047   8.685  12.650 -0.3073 -0.6545  1.1245
52448SOL    HW266123   3.897   8.668  12.669 -1.1541  3.2112 -1.1055
52449SOL     OW66124   2.597   8.721   2.578  0.3553 -0.6479 -0.1062
52449SOL    HW166125   2.677   8.692   2.622  0.5975  0.6801  0.3618
52449SOL    HW266126   2.526   8.690   2.634  0.6128 -0.3089  0.4197
52450SOL     OW66127   0.098   9.512   2.622 -0.0901  0.3785 -1.1088
52450SOL    HW166128   0.188   9.495   2.593  0.6669 -0.6736  1.5842
52450SOL    HW266129   0.062   9.425   2.639  0.0794  0.8637  2.4028
52451SOL     OW66130   4.940   2.410   0.503 -0.0628  0.7817  0.3476
52451SOL    HW166131   5.001   2.339   0.485  0.1646  0.6465  1.5870
52451SOL    HW266132   4.921   2.403   0.596 -2.1059  0.7317 -0.0413
52452SOL     OW66133   6.858   7.164   1.538 -0.4588  0.3247  0.2952
52452SOL    HW166134   6.810   7.082   1.552  0.3964 -0.0935  0.8833
52452SOL    HW266135   6.947   7.144   1.567 -0.5745  1.8979  1.9496
52453SOL     OW66136  11.565   1.165   3.326  0.1788  0.2637 -0.3421
52453SOL    HW166137  11.631   1.122   3.271  0.7733  1.7318 -0.8236
52453SOL    HW266138  11.510   1.213   3.264 -1.4184 -0.9678  0.0534
52454SOL     OW66139  11.538   5.777  10.425  0.2954  0.0357  0.1606
52454SOL    HW166140  11.505   5.807  10.509  1.1908  0.9333  0.2142
52454SOL    HW266141  11.540   5.681  10.432 -0.5814  0.0527  0.7799
52455SOL     OW66142  12.451  12.487  12.491 -0.0754 -0.2204  0.2627
52455SOL    HW166143  12.499  12.547  12.548  0.7404 -0.3986 -0.2217
52455SOL    HW266144  12.382  12.451  12.547  0.0949  0.3484  0.8540
52456SOL     OW66145   8.072   2.528   9.195 -0.2447 -0.6016 -0.5309
52456SOL    HW166146   8.150   2.498   9.149 -0.4152 -1.5781 -0.1936
52456SOL    HW266147   8.027   2.584   9.132  2.2215  2.5550  0.1966
52457SOL     OW66148   6.071   4.020   1.846 -0.8776  0.0783 -0.0390
52457SOL    HW166149   6.130   3.968   1.900 -2.2117 -1.4145  0.0669
52457SOL    HW266150   6.126   4.089   1.809  0.8667 -1.1191  0.2030
52458SOL     OW66151  11.529   1.895   9.452 -0.0560  0.3327 -0.7701
52458SOL    HW166152  11.589   1.906   9.526 -0.2438  0.7517 -0.6795
52458SOL    HW266153  11.524   1.982   9.412 -0.7191  0.3406 -0.6839
52459SOL     OW66154   5.773  11.162   4.241 -0.7082  0.6333  0.7923
52459SOL    HW166155   5.713  11.094   4.210 -0.3759  0.7046 -0.0411
52459SOL    HW266156   5.741  11.243   4.201 -0.1383  0.6887  0.4243
52460SOL     OW66157  10.523   7.126   2.566  0.9989 -0.1135 -0.3169
52460SOL    HW166158  10.526   7.204   2.621 -1.1819 -1.0890  1.3026
52460SOL    HW266159  10.431   7.114   2.545  1.2582 -2.3057 -0.4505
52461SOL     OW66160   1.240  10.419  10.008 -0.3141  0.6608 -0.1698
52461SOL    HW166161   1.209  10.333   9.982  2.0122  0.0132 -1.0847
52461SOL    HW266162   1.234  10.472   9.929  0.8656  0.4994 -0.3894
52462SOL     OW66163  11.910  12.557  12.297 -0.2914 -0.3582 -0.5597
52462SOL    HW166164  11.907  12.573  12.203 -0.5749  2.0830 -0.1923
52462SOL    HW266165  11.904  12.644  12.337  2.2065 -1.0659  1.6927
52463SOL     OW66166   8.745   4.311  10.622 -0.3201  0.3611 -0.1046
52463SOL    HW166167   8.714   4.287  10.709  0.0694  1.7206  0.4354
52463SOL    HW266168   8.801   4.387  10.637  1.7860 -0.8759 -1.2538
52464SOL     OW66169   7.380   0.702   5.078  0.2181  0.3949  0.2585
52464SOL    HW166170   7.446   0.745   5.132 -0.0223  1.2131 -0.0902
52464SOL    HW266171   7.320   0.772   5.054  0.3477  0.0476 -1.1172
52465SOL     OW66172   3.931   1.641   2.339  0.4000  0.4891  0.3273
52465SOL    HW166173   3.879   1.618   2.417 -1.2380  1.2074 -0.5130
52465SOL    HW266174   3.995   1.570   2.332 -1.8773 -1.6866  0.1400
52466SOL     OW66175   4.283  12.300   5.841  0.3683 -0.3729 -0.0380
52466SOL    HW166176   4.326  12.216   5.825  0.5907 -0.3671  0.5058
52466SOL    HW266177   4.191  12.277   5.857  0.0055 -0.3292 -1.8393
52467SOL     OW66178  11.814   5.524   8.972  0.0115  0.0052  0.6523
52467SOL    HW166179  11.903   5.558   8.960 -0.5533  1.4799  0.3855
52467SOL    HW266180  11.826   5.440   9.015  1.4871  0.7003  1.6938
52468SOL     OW66181   7.706   6.434   1.877  0.1712 -0.2267 -0.1519
52468SOL    HW166182   7.647   6.500   1.912 -1.7777 -2.3768  0.9009
52468SOL    HW266183   7.728   6.379   1.952  2.2154 -0.4710 -0.8636
52469SOL     OW66184  10.482   7.371  10.409 -0.4807 -0.0624 -0.2099
52469SOL    HW166185  10.536   7.449  10.418  1.8581 -1.7745  2.0201
52469SOL    HW266186  10.436   7.364  10.493  0.0140 -1.5006 -0.0253
52470SOL     OW66187   2.099   3.861   4.425 -0.3026 -0.0613  0.4843
52470SOL    HW166188   2.107   3.934   4.363  0.6280 -0.0516  0.6027
52470SOL    HW266189   2.163   3.796   4.394 -0.5770 -0.5016  0.8286
52471SOL     OW66190   4.275  11.645   4.385  0.2802  0.2707 -0.3183
52471SOL    HW166191   4.190  11.687   4.373  1.3825  3.1665  1.0606
52471SOL    HW266192   4.264  11.588   4.461 -1.2739 -2.2765 -2.2869
52472SOL     OW66193  12.025  10.658   4.568  0.0327 -0.1548  0.6259
52472SOL    HW166194  11.944  10.707   4.586  0.3725  0.8196 -0.3476
52472SOL    HW266195  12.095  10.721   4.585  0.6020 -1.0219  1.5431
52473SOL     OW66196   6.105  11.026   0.330 -0.0916 -0.0938 -0.1406
52473SOL    HW166197   6.157  11.100   0.299 -3.6750  2.7406 -0.1896
52473SOL    HW266198   6.063  10.992   0.251  0.1518 -1.0426  0.1267
52474SOL     OW66199   6.049   6.885   9.473 -0.0471  0.0297  0.1327
52474SOL    HW166200   6.056   6.981   9.481  0.1243  0.0595 -0.3189
52474SOL    HW266201   6.129   6.852   9.512  0.0084  0.0841  0.0648
52475SOL     OW66202   5.534   5.923   8.879  0.5574  0.5799 -0.0391
52475SOL    HW166203   5.527   5.867   8.802 -0.2442  0.8075 -0.1441
52475SOL    HW266204   5.488   5.876   8.948  0.9717  0.5343  0.2060
52476SOL     OW66205   4.426   3.113   2.168  0.4679 -0.2738 -0.4369
52476SOL    HW166206   4.424   3.017   2.173 -0.2387 -0.2223  0.6680
52476SOL    HW266207   4.451   3.141   2.256 -1.9329  0.5942  0.0477
52477SOL     OW66208   0.572   7.382   7.285 -0.4275  0.4080  0.6979
52477SOL    HW166209   0.528   7.306   7.325 -2.0508  1.7264  1.5577
52477SOL    HW266210   0.648   7.345   7.241 -1.2562 -1.7451  0.9375
52478SOL     OW66211   5.095   9.615   6.270  0.0555  0.4527  0.1132
52478SOL    HW166212   5.105   9.583   6.360  0.0712  0.5877  0.1608
52478SOL    HW266213   5.001   9.616   6.255  0.0518  0.4505  0.1357
52479SOL     OW66214   3.347   2.423   3.354  0.3369 -0.5495 -0.3490
52479SOL    HW166215   3.377   2.332   3.349 -0.1288 -0.7455  0.2098
52479SOL    HW266216   3.259   2.417   3.392  0.3912  0.1481 -0.0880
52480SOL     OW66217   4.777   9.210   6.770 -0.1254  0.0128  0.7886
52480SOL    HW166218   4.849   9.154   6.741 -1.7494 -1.3817 -0.7854
52480SOL    HW266219   4.787   9.290   6.717 -0.1056 -0.4407  0.0924
52481SOL     OW66220   7.175   5.543   0.173  0.4766 -0.1989 -0.5488
52481SOL    HW166221   7.201   5.451   0.166  0.8489  0.0197 -3.1627
52481SOL    HW266222   7.246   5.591   0.131 -0.0856  1.2296  0.0812
52482SOL     OW66223   2.519   0.058   7.091 -0.3989 -0.6415  0.0954
52482SOL    HW166224   2.591   0.103   7.134  0.6144 -1.6963 -0.4503
52482SOL    HW266225   2.470   0.017   7.162  0.5443 -1.3437  0.3589
52483SOL     OW66226   8.539   6.143   4.178  0.0419 -0.4778 -0.0387
52483SOL    HW166227   8.590   6.208   4.129  1.4628 -1.7630 -0.3202
52483SOL    HW266228   8.467   6.119   4.119  0.0735  0.1000 -0.3190
52484SOL     OW66229   0.953   1.304   7.831 -0.2070  0.1666  0.2743
52484SOL    HW166230   0.977   1.396   7.841  0.9255  0.0652 -1.1328
52484SOL    HW266231   0.998   1.260   7.903 -0.9803  0.7199  1.1232
52485SOL     OW66232   3.777   8.780   0.451  0.9204  0.1553  0.4046
52485SOL    HW166233   3.868   8.799   0.474  0.5969  0.8824  1.1630
52485SOL    HW266234   3.728   8.798   0.532  0.0003  0.6186 -0.2365
52486SOL     OW66235  11.518   7.014   4.700 -0.1345  0.7017 -1.0260
52486SOL    HW166236  11.566   7.007   4.782 -1.2587  0.6119 -0.3592
52486SOL    HW266237  11.583   7.042   4.636  0.3363  2.9452  0.3424
52487SOL     OW66238   6.858   2.471   1.867  0.2468 -0.1324  0.2392
52487SOL    HW166239   6.950   2.450   1.855  0.9062  1.7530  1.5182
52487SOL    HW266240   6.817   2.388   1.889  1.5273 -1.0879 -0.8103
52488SOL     OW66241  11.232   0.163  11.167 -0.3141  0.3897 -0.6037
52488SOL    HW166242  11.206   0.220  11.095 -0.5544  3.2436  1.5748
52488SOL    HW266243  11.174   0.187  11.239  0.1485 -2.0778  0.7038
52489SOL     OW66244  10.797   6.928   8.089 -0.6779 -0.3298  0.3212
52489SOL    HW166245  10.807   6.896   8.179  0.9376  0.0005  0.2862
52489SOL    HW266246  10.869   6.886   8.041  0.4642  1.9519 -0.0936
52490SOL     OW66247   6.170   6.801   9.940  0.0142  0.1600  0.4152
52490SOL    HW166248   6.098   6.839   9.890  0.2771 -0.3367 -0.3511
52490SOL    HW266249   6.128   6.747  10.007 -0.3285 -0.5580 -0.3674
52491SOL     OW66250   0.676   8.920   4.628  0.5599  0.6419  0.3332
52491SOL    HW166251   0.621   8.932   4.551  0.0415  0.4277  0.6579
52491SOL    HW266252   0.742   8.856   4.601  1.3006  1.6901 -0.3796
52492SOL     OW66253   7.679   9.819   2.011  0.2458 -0.2788  0.0982
52492SOL    HW166254   7.705   9.881   1.942  3.2623 -1.1696  0.2953
52492SOL    HW266255   7.696   9.733   1.973  0.2506 -0.8379  1.3512
52493SOL     OW66256   0.876   1.051   5.946 -0.9390 -0.3267  0.3869
52493SOL    HW166257   0.945   1.118   5.949  0.6157 -1.8148 -0.1554
52493SOL    HW266258   0.888   1.001   6.026 -1.4065 -0.5824  0.2999
52494SOL     OW66259   8.702   9.016   4.763  0.5232 -0.2978  0.6881
52494SOL    HW166260   8.680   8.928   4.732 -0.6654  0.3648 -0.4364
52494SOL    HW266261   8.707   9.069   4.684 -0.8842  1.0743  1.4650
52495SOL     OW66262   0.121   5.550   8.501 -0.0891  0.0967 -0.6926
52495SOL    HW166263   0.146   5.498   8.424 -0.6700  1.1165 -1.5983
52495SOL    HW266264   0.193   5.612   8.512  1.1793 -1.5689  1.1016
52496SOL     OW66265  11.212   7.050   0.066 -0.0675  0.5526  0.5549
52496SOL    HW166266  11.217   6.970   0.118 -2.3610 -0.4286 -0.5742
52496SOL    HW266267  11.265   7.031  -0.012 -1.5573 -0.4327 -0.2826
52497SOL     OW66268   2.602  11.310   6.938 -0.3380  0.4890  0.3438
52497SOL    HW166269   2.600  11.400   6.908 -2.8578  0.0269 -1.1044
52497SOL    HW266270   2.579  11.315   7.031  0.5264  1.3734  0.5299
52498SOL     OW66271   2.916   9.667   1.764 -0.6370  0.3276  0.1847
52498SOL    HW166272   2.824   9.659   1.788 -1.2546  1.8841 -1.4716
52498SOL    HW266273   2.936   9.586   1.718 -1.3504  0.2377  0.0297
52499SOL     OW66274  11.685   4.844   1.306 -0.1683 -0.2794 -0.0370
52499SOL    HW166275  11.776   4.862   1.282 -0.4956  1.1710 -0.2775
52499SOL    HW266276  11.654   4.785   1.237 -0.3273  1.7664 -1.8200
52500SOL     OW66277  11.961   7.033   2.344  0.5881 -0.3145 -0.3845
52500SOL    HW166278  11.929   6.966   2.403  0.7769 -0.4836 -0.4723
52500SOL    HW266279  12.057   7.027   2.350  0.6834  1.9583  1.9116
52501SOL     OW66280   0.406  12.422   3.349  0.1270 -0.4715  0.0722
52501SOL    HW166281   0.451  12.348   3.390  0.0931 -0.5606 -0.0476
52501SOL    HW266282   0.474  12.471   3.305  0.0622 -0.8095 -0.4136
52502SOL     OW66283   0.378   3.489   6.888  0.1820  0.3828 -0.2794
52502SOL    HW166284   0.322   3.513   6.962 -0.3081  2.3893 -1.2296
52502SOL    HW266285   0.318   3.449   6.825  0.1562  0.8181 -0.5340
52503SOL     OW66286   7.639   3.197   9.106 -1.0403  0.2052 -0.2857
52503SOL    HW166287   7.549   3.169   9.123 -1.7522  2.4122 -0.0575
52503SOL    HW266288   7.671   3.225   9.192 -0.7733  1.0504 -0.6503
52504SOL     OW66289   6.787   2.008  10.405 -0.0634 -0.3199 -0.1294
52504SOL    HW166290   6.741   1.934  10.367  0.3725  1.0365 -3.5954
52504SOL    HW266291   6.877   2.001  10.373  0.5170  0.6178  1.1737
52505SOL     OW66292   5.017   2.536   3.865 -0.4341  0.4189 -0.0225
52505SOL    HW166293   5.013   2.632   3.867  0.9487  0.4905  0.0170
52505SOL    HW266294   4.925   2.509   3.864 -0.8543  1.7530 -0.6729
52506SOL     OW66295   3.091  12.235   0.700 -0.3219  0.1672 -0.1100
52506SOL    HW166296   3.152  12.303   0.673 -0.1393  0.5218  1.1037
52506SOL    HW266297   3.086  12.245   0.796 -1.6763 -0.3706 -0.1114
52507SOL     OW66298   4.106   1.987   1.997 -0.2151  0.0393 -0.8645
52507SOL    HW166299   4.154   1.954   2.073  1.3882  1.3073 -1.2661
52507SOL    HW266300   4.142   1.937   1.924  0.8159  1.2309 -1.2135
52508SOL     OW66301   9.203  12.093   6.673  0.9638 -0.2693 -0.4991
52508SOL    HW166302   9.234  12.070   6.586  0.8082  1.3165 -1.0004
52508SOL    HW266303   9.282  12.097   6.726  1.4852  1.9299 -1.3449
52509SOL     OW66304   1.148   8.918   3.038  0.5048  0.0752  0.0203
52509SOL    HW166305   1.169   8.844   2.981  2.4231  0.7203 -0.1957
52509SOL    HW266306   1.095   8.880   3.108  1.3193 -1.4760 -0.1568
52510SOL     OW66307   9.071   0.734   3.318 -0.5024 -0.1959  0.0475
52510SOL    HW166308   9.010   0.663   3.298 -1.0366  0.2920 -0.1179
52510SOL    HW266309   9.157   0.693   3.320 -0.8989 -1.0226  0.9250
52511SOL     OW66310  12.181  11.592   7.860  0.0118  0.2378  0.6432
52511SOL    HW166311  12.261  11.560   7.817 -0.3836  0.8793 -0.6101
52511SOL    HW266312  12.127  11.514   7.870  0.1181  0.0803 -0.0057
52512SOL     OW66313   5.767  11.113   0.725  0.2224 -0.4932 -0.3668
52512SOL    HW166314   5.804  11.123   0.637 -1.9993  1.6294 -1.1634
52512SOL    HW266315   5.755  11.019   0.736  1.0304 -0.8384 -2.0960
52513SOL     OW66316   7.425   3.637   6.070  0.3416 -0.2302  0.0967
52513SOL    HW166317   7.395   3.573   6.004  0.2176  0.7245 -0.8029
52513SOL    HW266318   7.507   3.671   6.034  0.9644 -0.6386  1.0942
52514SOL     OW66319   4.257   4.900   2.377  0.4980 -0.6267 -0.3607
52514SOL    HW166320   4.286   4.849   2.301  4.6050  1.8220 -0.7181
52514SOL    HW266321   4.267   4.840   2.451  1.5977 -1.4841 -1.1598
52515SOL     OW66322   1.705   1.602   3.430 -0.0922  0.3404  0.1602
52515SOL    HW166323   1.702   1.508   3.411  1.4040  0.2382  0.3119
52515SOL    HW266324   1.616   1.624   3.456 -1.0017 -0.5797 -1.9582
52516SOL     OW66325   7.872   1.282  11.499 -0.0629 -0.3541  0.0417
52516SOL    HW166326   7.825   1.211  11.543  0.7417 -0.8260  0.1588
52516SOL    HW266327   7.803   1.335  11.460 -0.7303 -0.6222  0.8247
52517SOL     OW66328   0.170  12.419   3.876 -0.0247 -0.0622 -0.1951
52517SOL    HW166329   0.080  12.387   3.867  0.1200 -0.3821 -0.5282
52517SOL    HW266330   0.222  12.360   3.822  0.4873 -0.3078  0.5611
52518SOL     OW66331  11.339   5.405   1.791  0.1614 -0.1926 -0.4733
52518SOL    HW166332  11.425   5.405   1.749  1.2271  1.6178  1.5104
52518SOL    HW266333  11.349   5.350   1.868 -0.5222 -0.1715 -0.3655
52519SOL     OW66334   5.344   1.741   2.175 -0.0724 -0.2325 -0.3270
52519SOL    HW166335   5.408   1.717   2.241  0.0038 -0.6546 -0.5459
52519SOL    HW266336   5.312   1.827   2.201  0.6715  0.0337 -0.2852
52520SOL     OW66337   9.961  11.891   4.784  0.5367 -0.0292 -0.0774
52520SOL    HW166338   9.902  11.963   4.806 -0.2872  0.0668 -2.3238
52520SOL    HW266339   9.907  11.813   4.791  1.2786 -0.4333  1.7899
52521SOL     OW66340   1.613   8.443  10.568  0.1126  0.0149 -0.1382
52521SOL    HW166341   1.593   8.527  10.526  1.6511 -0.0340 -1.0137
52521SOL    HW266342   1.567   8.448  10.653 -1.1946  1.0235 -0.8662
52522SOL     OW66343   6.285  10.821  10.652  0.2622  0.7988  0.2232
52522SOL    HW166344   6.273  10.858  10.739 -0.6785  2.2255 -0.4785
52522SOL    HW266345   6.324  10.891  10.601 -1.0979  0.7169 -1.0062
52523SOL     OW66346  12.401  10.741   0.557 -0.2931  0.6279 -0.0827
52523SOL    HW166347  12.403  10.788   0.641 -0.1891  1.5710 -0.6081
52523SOL    HW266348  12.336  10.672   0.571  0.6956 -0.1035  1.2237
52524SOL     OW66349  11.625   6.179   3.483 -0.0928  0.1576  0.4868
52524SOL    HW166350  11.716   6.203   3.466 -0.0108 -0.8934 -0.7022
52524SOL    HW266351  11.623   6.084   3.474 -1.2792  0.1573  0.6554
52525SOL     OW66352   8.258   6.870   9.852 -0.2579 -0.1227  0.2368
52525SOL    HW166353   8.269   6.776   9.869  1.2184  0.1402  0.9157
52525SOL    HW266354   8.252   6.910   9.938 -0.9230  0.4070 -0.0502
52526SOL     OW66355  12.402   8.304  10.402  0.4434 -0.1868 -0.3918
52526SOL    HW166356  12.413   8.276  10.493  0.2520 -0.6330 -0.5046
52526SOL    HW266357  12.481   8.274  10.357 -0.2990 -1.6528 -0.7773
52527SOL     OW66358   0.690   1.803   6.818  0.0311  0.0434  0.1909
52527SOL    HW166359   0.761   1.774   6.761  1.1675  0.2311  1.4536
52527SOL    HW266360   0.693   1.744   6.893 -1.7864 -0.5484 -0.1379
52528SOL     OW66361   5.219  12.048   2.572  0.1021  0.1818  0.3468
52528SOL    HW166362   5.137  12.007   2.599 -0.8846  0.1066 -2.5090
52528SOL    HW266363   5.275  11.976   2.545  0.7038  0.3200  1.1849
52529SOL     OW66364  11.143   1.490   1.681 -0.3464 -0.7457  0.1219
52529SOL    HW166365  11.224   1.529   1.649 -0.1444 -0.2402  1.2034
52529SOL    HW266366  11.163   1.397   1.691  0.5511 -0.4049  1.7095
52530SOL     OW66367   4.187   2.964   4.309  0.4408  0.0647 -0.1518
52530SOL    HW166368   4.115   2.935   4.366 -0.0562  0.9752 -0.3005
52530SOL    HW266369   4.173   2.915   4.228  0.2717 -0.1257 -0.0109
52531SOL     OW66370   3.564   0.224  11.705 -0.1573  0.5972 -0.0481
52531SOL    HW166371   3.590   0.317  11.708  0.6800  0.3672  0.0138
52531SOL    HW266372   3.646   0.177  11.695 -0.4363 -0.2170  1.2315
52532SOL     OW66373   5.404   1.250   6.091  0.7216 -0.5891 -0.0629
52532SOL    HW166374   5.322   1.202   6.083  0.2138 -0.0423  1.5313
52532SOL    HW266375   5.434   1.262   6.000 -0.2831 -1.9094 -0.6020
52533SOL     OW66376   7.108  12.030   6.196 -0.9083 -0.0561  0.3408
52533SOL    HW166377   7.054  11.971   6.248 -0.7742 -0.3211  0.1816
52533SOL    HW266378   7.110  11.991   6.109 -1.6191  0.6901 -0.0308
52534SOL     OW66379   2.048   8.286   5.320 -0.4817 -0.2246  0.5613
52534SOL    HW166380   1.959   8.252   5.320 -0.8606  0.7163  1.5364
52534SOL    HW266381   2.099   8.220   5.271 -1.8603 -0.3077 -0.8375
52535SOL     OW66382   6.083  11.714   2.018  0.1196  0.7250  0.6813
52535SOL    HW166383   6.107  11.684   1.930  1.4391  0.2925  1.1573
52535SOL    HW266384   5.990  11.693   2.026  0.3730 -0.7807  0.0033
52536SOL     OW66385   6.535   7.908   8.067  0.4693  0.1581 -0.1072
52536SOL    HW166386   6.478   7.837   8.095  1.4935 -1.2535 -1.3986
52536SOL    HW266387   6.479   7.966   8.016 -0.2203 -0.1767  0.2675
52537SOL     OW66388   9.430   2.996  11.902 -0.3840  0.4632 -0.5429
52537SOL    HW166389   9.451   2.958  11.987  0.1916 -0.8491 -1.2457
52537SOL    HW266390   9.351   2.950  11.874  0.0814  0.0587 -1.2197
52538SOL     OW66391   8.222   4.887   4.484  0.3206 -0.7284  0.1809
52538SOL    HW166392   8.263   4.888   4.398 -2.7138  1.0579 -1.4486
52538SOL    HW266393   8.222   4.795   4.510  1.9634 -1.2301 -1.3578
52539SOL     OW66394   4.964   9.650   9.495 -0.7104 -0.4384 -0.4023
52539SOL    HW166395   4.932   9.704   9.567 -1.0166 -1.8572  0.5758
52539SOL    HW266396   4.885   9.609   9.460 -0.4435 -0.5629 -0.8643
52540SOL     OW66397  10.670   3.833   0.296 -0.2641 -0.1336 -0.0801
52540SOL    HW166398  10.756   3.811   0.330 -0.6702 -1.8535 -0.1112
52540SOL    HW266399  10.609   3.808   0.364 -0.8298 -0.1173 -0.5690
52541SOL     OW66400   5.838   3.419  10.407  0.2591  0.1550 -0.0602
52541SOL    HW166401   5.933   3.424  10.392  0.7785  1.6935  2.9115
52541SOL    HW266402   5.799   3.443  10.324  2.4398 -0.6502 -1.4210
52542SOL     OW66403  11.345  10.876   4.913 -0.9184  0.1515  0.2830
52542SOL    HW166404  11.389  10.880   4.828  0.7267  1.2390  1.1309
52542SOL    HW266405  11.322  10.967   4.933 -0.5401  0.0320  1.3519
52543SOL     OW66406   6.947   9.871   6.378 -0.1929  0.0418  0.3859
52543SOL    HW166407   7.027   9.843   6.334  1.1364  1.4307  1.7763
52543SOL    HW266408   6.937   9.963   6.353 -2.6241 -0.6285 -1.4810
52544SOL     OW66409   0.964  11.955   3.117  0.4147  0.2016 -0.0985
52544SOL    HW166410   0.952  11.912   3.032  0.2699 -1.0315  0.5263
52544SOL    HW266411   1.027  12.025   3.100  0.7922 -0.3687 -1.1139
52545SOL     OW66412   9.439   3.394   8.557  0.2070 -0.2921 -0.1131
52545SOL    HW166413   9.347   3.408   8.532  0.5780  1.1105 -0.7919
52545SOL    HW266414   9.459   3.467   8.616  0.8042 -0.7599  0.2658
52546SOL     OW66415   9.149   1.102   6.602  0.8629 -0.5399 -0.5780
52546SOL    HW166416   9.110   1.132   6.684  0.7270 -1.6017 -0.2370
52546SOL    HW266417   9.075   1.068   6.551  0.5895  1.9789 -2.0611
52547SOL     OW66418   4.640   8.238   1.658 -0.3740  0.2792  0.0632
52547SOL    HW166419   4.615   8.319   1.613 -1.9237  0.5421  1.2943
52547SOL    HW266420   4.718   8.261   1.708  0.2527  0.4949 -0.9767
52548SOL     OW66421   4.767  10.768   7.607 -0.1623 -0.0383  0.2113
52548SOL    HW166422   4.745  10.757   7.699  0.9059 -0.0247  0.4821
52548SOL    HW266423   4.694  10.729   7.559 -0.3418 -0.7583  1.0651
52549SOL     OW66424   7.387   7.604  10.155 -0.5680  0.5534  0.0755
52549SOL    HW166425   7.438   7.680  10.185  1.0680 -0.0684 -0.9992
52549SOL    HW266426   7.360   7.628  10.066 -2.0349  0.7849  0.5558
52550SOL     OW66427   6.267   6.435   8.614  0.1090  0.0587 -0.0154
52550SOL    HW166428   6.294   6.509   8.669 -0.0094 -0.4381  0.7252
52550SOL    HW266429   6.311   6.359   8.653  0.7076 -0.1911 -1.1254
52551SOL     OW66430   5.159  11.553  12.398 -0.2514 -0.7098  0.3168
52551SOL    HW166431   5.248  11.545  12.364  0.3857 -1.9726  2.1009
52551SOL    HW266432   5.108  11.585  12.324  1.8163  0.8469 -0.5508
52552SOL     OW66433   8.501   3.461   5.273  0.4803 -0.1037 -0.4043
52552SOL    HW166434   8.510   3.513   5.194  1.4600 -0.0562 -0.2672
52552SOL    HW266435   8.417   3.488   5.310  0.9522  1.3504 -0.3490
52553SOL     OW66436   8.640   2.626   0.988  0.3191 -0.2271 -0.1694
52553SOL    HW166437   8.711   2.611   1.050 -0.6216  0.2591  1.0573
52553SOL    HW266438   8.586   2.695   1.028  0.5027  1.2064 -2.2353
52554SOL     OW66439   4.072   9.669   9.034 -0.2653  0.1936  0.8172
52554SOL    HW166440   4.044   9.680   9.125  2.1334 -1.2798  1.8277
52554SOL    HW266441   4.160   9.632   9.040 -0.8936 -2.2173 -2.0837
52555SOL     OW66442   6.069   2.659   5.689 -0.1682 -0.0628  1.0416
52555SOL    HW166443   5.992   2.681   5.741 -1.0052  1.0204 -0.5604
52555SOL    HW266444   6.085   2.738   5.636  0.4332 -1.1999 -0.5361
52556SOL     OW66445   7.798   4.714   5.842 -0.8888  0.0044 -0.1090
52556SOL    HW166446   7.736   4.712   5.915 -1.9946  0.2104 -1.0199
52556SOL    HW266447   7.807   4.807   5.821 -0.8123 -0.0769 -0.4379
52557SOL     OW66448   0.101  10.361   4.058  0.2915  0.0103 -0.2222
52557SOL    HW166449   0.118  10.427   4.126 -0.8172  1.3555 -1.1925
52557SOL    HW266450   0.126  10.404   3.976 -0.8182 -0.6212 -0.9167
52558SOL     OW66451   1.851   8.850   8.641 -0.1986  0.2554 -0.3247
52558SOL    HW166452   1.790   8.862   8.567  0.0153 -1.9062 -0.9352
52558SOL    HW266453   1.936   8.879   8.607 -0.4678  1.2396 -0.1942
52559SOL     OW66454   3.906   6.168   8.720 -0.7677 -0.0123 -0.0975
52559SOL    HW166455   3.822   6.214   8.715 -0.8705 -0.0985  0.7627
52559SOL    HW266456   3.884   6.077   8.705 -0.7718  0.0186 -0.2803
52560SOL     OW66457   5.061   3.650   6.573 -0.3781 -0.6319 -0.1354
52560SOL    HW166458   4.983   3.655   6.518  0.1269  0.8483 -0.7529
52560SOL    HW266459   5.029   3.618   6.658 -1.8599  1.0593  0.0001
52561SOL     OW66460  11.123   2.208   4.981  0.0054 -0.2992 -0.2749
52561SOL    HW166461  11.154   2.127   4.942 -1.0007  0.1241 -2.0691
52561SOL    HW266462  11.075   2.252   4.911 -1.6936  0.6420  1.3712
52562SOL     OW66463  11.281   1.298   5.726 -0.0609 -0.4399 -0.0641
52562SOL    HW166464  11.298   1.204   5.719  0.4151 -0.3885  0.3379
52562SOL    HW266465  11.186   1.305   5.728 -0.1444 -0.8133 -1.4005
52563SOL     OW66466   0.854   1.716   5.149  0.0453  0.0032 -0.1335
52563SOL    HW166467   0.846   1.811   5.158 -2.2311 -0.0897 -0.7219
52563SOL    HW266468   0.792   1.680   5.212  1.0607 -1.1443  0.2614
52564SOL     OW66469   5.637   6.221   7.894 -0.7504  0.1695 -0.2455
52564SOL    HW166470   5.595   6.187   7.815 -1.9764 -0.1807  0.5300
52564SOL    HW266471   5.722   6.178   7.897 -0.5469  0.4430 -1.5398
52565SOL     OW66472   3.673   8.341   7.604 -0.1784  0.0002 -1.0575
52565SOL    HW166473   3.634   8.255   7.617  1.3884 -0.3827  1.5615
52565SOL    HW266474   3.754   8.325   7.556  1.2016 -0.3227  1.2637
52566SOL     OW66475   3.546   3.096   7.826  0.2819  0.4995 -0.0794
52566SOL    HW166476   3.625   3.150   7.833 -0.2230  1.6144 -2.1855
52566SOL    HW266477   3.486   3.149   7.774 -0.4196 -1.9058 -1.8792
52567SOL     OW66478   6.826   3.842   7.549  0.7161 -0.4804  0.3264
52567SOL    HW166479   6.832   3.937   7.537 -0.8212 -0.5084 -0.9084
52567SOL    HW266480   6.868   3.805   7.472 -0.5203 -0.7695 -0.2202
52568SOL     OW66481   2.322  12.105   3.731  0.4223  0.0478 -0.0154
52568SOL    HW166482   2.398  12.124   3.785  0.3127  2.2206 -0.5081
52568SOL    HW266483   2.341  12.148   3.647  0.0914 -2.2296 -1.3524
52569SOL     OW66484   5.365   7.454   3.659  0.3300  0.1147 -0.0808
52569SOL    HW166485   5.399   7.418   3.742  0.1153 -0.0478 -0.0632
52569SOL    HW266486   5.273   7.429   3.658  0.1737  0.6787 -0.0617
52570SOL     OW66487   3.103   9.994   4.088 -0.0035  0.0724  0.5225
52570SOL    HW166488   3.140  10.083   4.093 -2.6540  1.4421 -1.5165
52570SOL    HW266489   3.020  10.001   4.136 -0.4994 -1.1569 -0.1306
52571SOL     OW66490  10.811   7.161   2.929 -0.0646  0.3492 -0.6276
52571SOL    HW166491  10.797   7.196   2.841 -1.9173  1.0068 -0.1087
52571SOL    HW266492  10.735   7.106   2.946  0.1109  0.4683  0.6756
52572SOL     OW66493  11.006   2.730   2.811 -0.3891  0.4662  0.4944
52572SOL    HW166494  10.926   2.678   2.823 -0.9080  1.1087 -0.1226
52572SOL    HW266495  11.073   2.683   2.861 -0.5975 -1.3641 -0.8406
52573SOL     OW66496   1.071   9.908   4.403  0.1395  0.3851  0.4224
52573SOL    HW166497   1.099   9.816   4.406  0.9096  0.5081 -1.6924
52573SOL    HW266498   1.015   9.914   4.326 -0.2443  1.6325  0.7738
52574SOL     OW66499   4.875   9.798  10.841  0.3357 -0.1139  0.1220
52574SOL    HW166500   4.832   9.714  10.828 -2.0824  0.8403  1.2453
52574SOL    HW266501   4.905   9.824  10.754 -1.5331 -0.8075 -0.7876
52575SOL     OW66502  12.511   5.056   4.476 -0.2153  0.3555  0.9541
52575SOL    HW166503  12.599   5.059   4.513  0.3483 -0.7293 -0.2246
52575SOL    HW266504  12.466   5.132   4.514  0.8242  0.2231  2.5341
52576SOL     OW66505  12.266   1.033  11.080 -0.1334 -0.7610 -0.1756
52576SOL    HW166506  12.185   1.007  11.035  0.5080 -0.3399 -1.6180
52576SOL    HW266507  12.333   0.975  11.044  0.6928  0.6519 -0.9793
52577SOL     OW66508   3.712   9.758   2.202  0.5910 -0.0124 -0.4784
52577SOL    HW166509   3.726   9.852   2.213  0.7990 -0.1033  0.0157
52577SOL    HW266510   3.775   9.716   2.261  1.2217 -0.4810 -1.4537
52578SOL     OW66511   2.921   0.591   7.896 -0.1583  0.3153  0.0439
52578SOL    HW166512   2.847   0.616   7.840 -0.2993 -1.9782 -0.8888
52578SOL    HW266513   2.997   0.633   7.856 -0.8199  2.2677  0.7114
52579SOL     OW66514   0.342   1.928   7.510  0.4848 -0.1631 -0.0210
52579SOL    HW166515   0.381   1.958   7.428  2.1289  0.1745  0.8375
52579SOL    HW266516   0.398   1.855   7.538 -0.3031 -0.5532  0.5842
52580SOL     OW66517  11.123  11.279   0.925  0.5305  0.3410 -0.0113
52580SOL    HW166518  11.181  11.353   0.911 -0.3317  1.2148  0.8839
52580SOL    HW266519  11.177  11.202   0.906  2.1241  1.0921  1.2543
52581SOL     OW66520   0.049   0.177   4.594 -0.4156 -0.2550 -0.2145
52581SOL    HW166521   0.079   0.267   4.586  0.4099 -0.3074  1.6833
52581SOL    HW266522  -0.047   0.184   4.598 -0.4082  0.4357 -1.0059
52582SOL     OW66523  12.204   8.189   7.369  0.0692 -0.0015  0.0387
52582SOL    HW166524  12.206   8.122   7.301 -2.1054 -1.1876  1.0346
52582SOL    HW266525  12.255   8.152   7.441  1.0012  0.5568 -0.3109
52583SOL     OW66526   1.097   7.340   8.672 -0.4919 -0.1797  0.4868
52583SOL    HW166527   1.100   7.250   8.704  1.2198 -0.8164 -1.2200
52583SOL    HW266528   1.176   7.348   8.618 -2.2353  1.3049 -2.0302
52584SOL     OW66529   2.933  11.425   6.384 -0.4568  0.1293 -0.0214
52584SOL    HW166530   2.884  11.497   6.344  0.4629  0.9489  0.2963
52584SOL    HW266531   3.010  11.415   6.328 -0.9641 -1.1572 -0.5222
52585SOL     OW66532   1.658   4.169   7.583 -0.2477 -0.5443 -0.3847
52585SOL    HW166533   1.619   4.095   7.629 -1.4097  0.8390  0.9658
52585SOL    HW266534   1.671   4.235   7.651  2.2740 -0.0673 -1.2568
52586SOL     OW66535   2.553  11.161   2.860  0.3154 -0.2404 -0.6633
52586SOL    HW166536   2.631  11.196   2.818  1.9862 -0.7372  1.8038
52586SOL    HW266537   2.576  11.070   2.880 -0.9716 -0.4550 -0.0689
52587SOL     OW66538   3.040   7.458   4.543 -0.1632  0.3306 -0.3313
52587SOL    HW166539   2.950   7.485   4.525 -0.4471 -0.0437  0.4817
52587SOL    HW266540   3.066   7.511   4.619  0.4002  0.6282 -0.7222
52588SOL     OW66541   3.986  10.866   9.407  0.0458 -0.0355  0.2112
52588SOL    HW166542   4.056  10.919   9.446 -2.1202  2.4646  0.9827
52588SOL    HW266543   3.907  10.920   9.416 -1.7923 -2.1810 -1.7373
52589SOL     OW66544   9.959   0.791   1.659 -0.0749 -0.3535  0.0386
52589SOL    HW166545  10.009   0.873   1.656 -0.5123 -0.0974 -0.4913
52589SOL    HW266546   9.867   0.818   1.660 -0.2575 -0.8317 -1.2496
52590SOL     OW66547   2.609   8.157   3.452 -0.2368 -0.1601 -0.3519
52590SOL    HW166548   2.589   8.155   3.545 -0.8000 -0.8454 -0.4854
52590SOL    HW266549   2.681   8.221   3.444  0.9472 -1.2969  0.7683
52591SOL     OW66550   9.626  10.853   7.746  1.0119 -0.3770 -0.2110
52591SOL    HW166551   9.683  10.809   7.808  0.7236  0.4802  0.6883
52591SOL    HW266552   9.567  10.905   7.800  0.4861  0.0775 -1.1886
52592SOL     OW66553   7.955   5.125   2.753 -0.1202  0.3835  0.2671
52592SOL    HW166554   7.935   5.115   2.660 -0.4960  1.6836  0.1822
52592SOL    HW266555   8.049   5.110   2.759  0.0093  0.8373 -0.4283
52593SOL     OW66556   1.705   7.130   5.273 -0.1684 -0.7732 -0.1487
52593SOL    HW166557   1.753   7.212   5.266  0.2016 -0.9987 -0.3422
52593SOL    HW266558   1.664   7.119   5.187 -0.5032 -0.6206 -0.0101
52594SOL     OW66559   5.986   5.833   9.857 -0.4772  0.6309 -0.5571
52594SOL    HW166560   6.011   5.782   9.780  0.5418  1.7928 -1.0244
52594SOL    HW266561   5.945   5.912   9.823 -0.4743  0.9290  0.1022
52595SOL     OW66562   6.591   6.978   6.392 -0.0927  0.0325  0.3235
52595SOL    HW166563   6.581   6.956   6.485 -0.8804 -0.0700  0.2198
52595SOL    HW266564   6.611   7.071   6.391  0.3304 -0.0531  0.6165
52596SOL     OW66565   0.042   9.094   3.692  0.3698 -0.3232 -0.6290
52596SOL    HW166566  -0.046   9.056   3.693 -0.1887  0.9174  1.0595
52596SOL    HW266567   0.082   9.063   3.773 -0.0204  2.3556  0.6962
52597SOL     OW66568  11.361  10.278  12.590  0.3227 -0.4074 -0.4055
52597SOL    HW166569  11.422  10.349  12.574  1.4084 -1.4457 -1.0478
52597SOL    HW266570  11.304  10.278  12.513  1.7264 -1.5888 -1.4998
52598SOL     OW66571   5.588   7.226  11.656 -0.1902  0.2857 -0.2556
52598SOL    HW166572   5.650   7.292  11.686 -0.3500  0.4485 -0.2856
52598SOL    HW266573   5.633   7.183  11.583 -0.0735  0.3373 -0.2154
52599SOL     OW66574   6.644  12.400  11.919 -0.1148 -0.7695  0.0398
52599SOL    HW166575   6.580  12.429  11.855 -0.9892 -0.1905  1.1514
52599SOL    HW266576   6.647  12.469  11.984  1.3714 -0.9559  0.2270
52600SOL     OW66577   0.266   0.059  10.599  0.1887  0.1833 -0.1778
52600SOL    HW166578   0.285  -0.011  10.661 -0.8246  0.6656  0.7080
52600SOL    HW266579   0.172   0.052  10.582 -0.0400  1.6367  0.3308
52601SOL     OW66580   7.048   9.505  10.953 -0.1920  0.6306  0.5393
52601SOL    HW166581   6.986   9.578  10.966 -1.8937 -0.4608 -0.9029
52601SOL    HW266582   6.992   9.428  10.943  1.2395 -0.1370 -2.8065
52602SOL     OW66583   5.034   7.365  10.068 -0.5567  0.2844  0.5315
52602SOL    HW166584   5.065   7.455  10.065  1.8525 -0.4465  1.1673
52602SOL    HW266585   4.976   7.361  10.143 -0.1246  1.1554  0.9180
52603SOL     OW66586   2.210   0.338  10.540 -0.1724 -0.1497 -0.6261
52603SOL    HW166587   2.279   0.278  10.511 -0.4436  0.4737 -2.6922
52603SOL    HW266588   2.183   0.383  10.461 -2.2404  0.3810  0.3297
52604SOL     OW66589   6.793  11.483   4.533 -0.6824  0.6841  0.4083
52604SOL    HW166590   6.863  11.548   4.529 -1.4445  1.4710 -0.6643
52604SOL    HW266591   6.743  11.496   4.453 -0.0189 -2.1966 -0.6147
52605SOL     OW66592   4.498   4.003   8.930 -0.2592 -0.5315 -0.2481
52605SOL    HW166593   4.582   3.960   8.943  0.0750  0.1665 -0.0382
52605SOL    HW266594   4.512   4.061   8.855 -0.1698  0.5226  0.5550
52606SOL     OW66595   0.591  12.572   3.979  0.2027  0.0390 -0.3719
52606SOL    HW166596   0.677  12.573   4.022  0.0783 -0.1772 -0.1177
52606SOL    HW266597   0.608  12.536   3.892  0.5675  1.0557 -0.7450
52607SOL     OW66598  11.297  11.012  12.565  0.2593 -0.0179 -0.5458
52607SOL    HW166599  11.223  11.071  12.551  0.3769  0.5550  0.9972
52607SOL    HW266600  11.309  11.012  12.660  1.5730 -0.9237 -0.6928
52608SOL     OW66601  11.755   8.638   2.643 -0.6130  0.3823 -0.0823
52608SOL    HW166602  11.819   8.574   2.674 -0.7494  0.6768  0.8515
52608SOL    HW266603  11.787   8.665   2.557  0.2938  0.2259  0.1973
52609SOL     OW66604   6.948  12.545   3.849  0.3832  0.6321 -0.2722
52609SOL    HW166605   7.029  12.553   3.899  1.1619 -0.8737 -1.2093
52609SOL    HW266606   6.905  12.468   3.885  0.8806 -0.3815 -1.7479
52610SOL     OW66607  10.010   8.859   5.426 -0.3796  0.0304  0.0820
52610SOL    HW166608  10.025   8.952   5.407  0.5359 -0.3558 -1.2754
52610SOL    HW266609  10.081   8.834   5.485 -1.0155  0.3316  0.9969
52611SOL     OW66610   6.209   1.709   4.454 -0.0241  0.2063 -0.2466
52611SOL    HW166611   6.124   1.741   4.484 -0.9251 -1.7582 -0.5505
52611SOL    HW266612   6.220   1.746   4.367 -0.6202  0.3822 -0.2498
52612SOL     OW66613   1.433   0.236   1.034 -0.3221 -1.0327  0.1989
52612SOL    HW166614   1.521   0.223   1.070 -0.4589 -2.5417  0.0220
52612SOL    HW266615   1.378   0.252   1.111  0.3733  1.9169  0.2074
52613SOL     OW66616  10.594   1.972   2.512 -0.0166 -0.1238  0.2799
52613SOL    HW166617  10.539   1.913   2.460 -1.0829  0.4771  0.6960
52613SOL    HW266618  10.544   2.054   2.517  1.0572  0.5487  0.4165
52614SOL     OW66619   7.805  12.272   6.285  0.1831  0.2400 -0.1361
52614SOL    HW166620   7.820  12.293   6.193  1.3966  0.0247 -0.0090
52614SOL    HW266621   7.735  12.206   6.284 -0.7776  1.2394 -0.7964
52615SOL     OW66622   5.498   6.387   8.710 -0.2450  0.5853 -0.1888
52615SOL    HW166623   5.576   6.337   8.735 -0.8635 -0.1110  0.3871
52615SOL    HW266624   5.491   6.456   8.776 -0.3090  0.4511 -0.0570
52616SOL     OW66625   7.753   4.170   5.461 -0.1700  0.4707 -0.0667
52616SOL    HW166626   7.791   4.229   5.526  0.0273 -0.9615  1.1546
52616SOL    HW266627   7.799   4.192   5.379  0.9984  0.9484  0.6947
52617SOL     OW66628  10.436   6.796   7.009  0.5706  0.3472 -0.3631
52617SOL    HW166629  10.489   6.821   7.085 -0.7405 -0.3474  0.8446
52617SOL    HW266630  10.439   6.700   7.008 -1.2067  0.2384  0.2143
52618SOL     OW66631   4.661   6.391   3.003 -0.2944 -0.3307  0.0622
52618SOL    HW166632   4.656   6.485   3.018 -2.7823 -0.4532  0.4411
52618SOL    HW266633   4.747   6.365   3.035  0.0007  1.6389  0.9728
52619SOL     OW66634   0.443   4.403   3.277 -0.4152 -0.1306  0.3680
52619SOL    HW166635   0.538   4.409   3.285 -0.3699  0.8183 -0.5722
52619SOL    HW266636   0.424   4.310   3.279  0.5747 -0.3482  0.1945
52620SOL     OW66637  12.166   1.371   7.930  0.1118  0.5585 -0.2020
52620SOL    HW166638  12.178   1.285   7.889  1.1312  0.3128  0.5674
52620SOL    HW266639  12.072   1.384   7.933 -0.0123  0.3155 -2.0457
52621SOL     OW66640   7.259   6.976  11.938 -0.0526 -0.6555  0.4867
52621SOL    HW166641   7.346   6.971  11.897 -0.2731 -0.5205  0.0030
52621SOL    HW266642   7.271   7.036  12.012 -0.3760  1.5898 -1.2052
52622SOL     OW66643  11.633   6.020   8.617 -0.7732 -0.4946  0.8005
52622SOL    HW166644  11.661   5.956   8.682 -0.1109  1.9517  3.1017
52622SOL    HW266645  11.548   6.051   8.648  0.2833  1.8990  1.5685
52623SOL     OW66646   3.145   6.007  12.031 -0.1020 -0.0894 -0.6103
52623SOL    HW166647   3.206   6.080  12.025  1.5728 -1.3513  0.0323
52623SOL    HW266648   3.134   5.992  12.125 -1.7124  0.3280 -0.7080
52624SOL     OW66649   7.260   1.478  12.218 -0.6675  0.2354 -0.6118
52624SOL    HW166650   7.329   1.477  12.285  0.5382 -0.8262 -1.8054
52624SOL    HW266651   7.294   1.422  12.148 -2.1127  0.8929 -1.8969
52625SOL     OW66652   1.431   4.097  11.400  0.1575  0.3848 -0.3190
52625SOL    HW166653   1.389   4.183  11.397  1.2338  0.9597  0.4601
52625SOL    HW266654   1.372   4.040  11.351  0.4272  1.9792 -2.6365
52626SOL     OW66655   0.712   7.020   7.415 -0.0118  0.1927 -0.0902
52626SOL    HW166656   0.631   7.056   7.380 -0.3966 -0.6702 -0.1073
52626SOL    HW266657   0.706   6.926   7.398  0.6979  0.0327  0.4960
52627SOL     OW66658   3.172   8.255   9.748  0.1495 -0.2173 -0.3424
52627SOL    HW166659   3.106   8.300   9.695 -1.0380 -0.1282  1.1425
52627SOL    HW266660   3.186   8.171   9.703 -1.1098 -0.3017 -0.6122
52628SOL     OW66661   6.493   1.302   7.673 -1.1366  0.5091 -0.0614
52628SOL    HW166662   6.524   1.371   7.732 -0.4136  0.7332 -0.6799
52628SOL    HW266663   6.565   1.290   7.612 -0.6446 -1.7875  0.8662
52629SOL     OW66664   5.300  10.301   6.793 -0.0094 -0.7800  0.0241
52629SOL    HW166665   5.219  10.292   6.742  0.5371  0.0586 -1.0400
52629SOL    HW266666   5.335  10.213   6.799 -1.2237 -1.2348  0.9067
52630SOL     OW66667   7.100   9.948  11.142 -0.1728 -0.1231 -0.3572
52630SOL    HW166668   7.183   9.928  11.099 -0.8701 -0.6710 -1.5305
52630SOL    HW266669   7.106   9.906  11.228  0.8223  0.0053 -0.3561
52631SOL     OW66670   5.145   6.185   4.030 -0.1747  0.0256 -0.3164
52631SOL    HW166671   5.135   6.264   3.977 -1.3378 -1.2918 -2.1720
52631SOL    HW266672   5.180   6.119   3.970  1.5065 -0.7031  1.3787
52632SOL     OW66673   9.964   7.630   2.897 -0.1741  0.1286 -0.3442
52632SOL    HW166674   9.943   7.539   2.878 -1.6759  0.7259 -1.8131
52632SOL    HW266675   9.929   7.646   2.984  0.5753 -0.8221  0.1421
52633SOL     OW66676   8.424   4.924  10.263  0.1299  0.0976 -0.3781
52633SOL    HW166677   8.511   4.911  10.301 -0.2426  0.0497  0.4823
52633SOL    HW266678   8.413   4.850  10.202 -0.2868 -1.3425  1.3642
52634SOL     OW66679  11.391   7.817  12.108 -0.7897  0.1388 -0.4458
52634SOL    HW166680  11.415   7.729  12.137 -1.2922  0.6279  1.6934
52634SOL    HW266681  11.321   7.803  12.044  1.5770 -1.0948 -2.9180
52635SOL     OW66682   7.825   3.608  11.178  0.2989  0.0040 -0.0221
52635SOL    HW166683   7.868   3.616  11.263 -1.2597  1.5070  0.6845
52635SOL    HW266684   7.824   3.697  11.143 -0.5187 -0.3261 -0.8778
52636SOL     OW66685   8.106   0.039   1.052 -0.2712  0.3727  0.3997
52636SOL    HW166686   8.086   0.093   0.975 -0.2344  0.9357  0.7827
52636SOL    HW266687   8.092   0.097   1.127 -0.0063 -0.0790  0.8058
52637SOL     OW66688   6.121   6.011   7.067  0.3827  0.0312 -0.6148
52637SOL    HW166689   6.170   6.059   7.134 -0.0609 -0.9192  0.4171
52637SOL    HW266690   6.135   5.919   7.088  0.9992 -0.3271 -2.4080
52638SOL     OW66691   2.039   7.031   7.315  0.2550  0.2424 -0.6275
52638SOL    HW166692   2.084   6.961   7.362  0.4879 -0.6359 -2.0702
52638SOL    HW266693   2.015   7.094   7.382  0.5732 -0.9361  0.6472
52639SOL     OW66694   2.257   8.320  10.859  0.1007  0.6051  0.4214
52639SOL    HW166695   2.312   8.251  10.895  0.6392  0.7191 -0.1639
52639SOL    HW266696   2.286   8.399  10.904  0.0679  0.5832  0.4800
52640SOL     OW66697   5.928   0.024   6.719  0.2828 -0.0097  0.1135
52640SOL    HW166698   5.952  -0.008   6.805 -0.2126 -0.8845 -0.0655
52640SOL    HW266699   5.838   0.054   6.728  0.5116  0.6974  0.1055
52641SOL     OW66700  12.269   9.848   8.510 -0.8209 -0.2136  0.1334
52641SOL    HW166701  12.257   9.798   8.590  0.5003 -0.7635  0.0091
52641SOL    HW266702  12.205   9.811   8.449  0.6253 -2.3373 -0.2011
52642SOL     OW66703   8.861   9.222   2.077  0.1272 -0.1838  0.5624
52642SOL    HW166704   8.825   9.230   2.165  0.1186  1.0742  0.4565
52642SOL    HW266705   8.792   9.253   2.019  0.2007 -0.8330  0.1232
52643SOL     OW66706  11.878   2.881   3.969 -0.5447 -0.0256  0.0268
52643SOL    HW166707  11.922   2.862   4.052 -0.0682  2.2448  0.3597
52643SOL    HW266708  11.927   2.953   3.931 -2.4319  0.8738 -0.8636
52644SOL     OW66709   1.275   5.668   5.484  0.0732  0.0106 -0.2148
52644SOL    HW166710   1.299   5.654   5.575 -1.1610  1.1631  0.3383
52644SOL    HW266711   1.348   5.635   5.434  0.9676 -0.2658  1.2163
52645SOL     OW66712   0.157  11.818   1.515 -0.6289  0.1503  0.5012
52645SOL    HW166713   0.112  11.750   1.464 -0.6902 -3.1320  4.4635
52645SOL    HW266714   0.249  11.792   1.513  0.5802  3.7100 -2.9427
52646SOL     OW66715   7.697   4.451   4.949 -0.1598  0.0546  0.0889
52646SOL    HW166716   7.692   4.357   4.967  1.0136  0.0208  0.2759
52646SOL    HW266717   7.652   4.492   5.023 -0.7244 -0.3530 -0.0210
52647SOL     OW66718   7.337   2.296   4.650 -0.2959  0.8170 -0.6679
52647SOL    HW166719   7.275   2.363   4.676 -1.7422  0.0209 -1.8858
52647SOL    HW266720   7.297   2.214   4.677  1.4468  0.3908  0.8119
52648SOL     OW66721   4.242   6.218   8.344  0.1361  0.2609  0.0628
52648SOL    HW166722   4.176   6.204   8.412  0.0910  0.7571  0.1271
52648SOL    HW266723   4.204   6.180   8.265  0.0032  0.0659  0.2217
52649SOL     OW66724   2.398   5.759   6.863  0.3061  0.7321 -0.8230
52649SOL    HW166725   2.326   5.821   6.877 -0.9464 -0.8851  0.3415
52649SOL    HW266726   2.477   5.809   6.881 -0.7308  1.7254  1.2724
52650SOL     OW66727   1.535   4.923   8.274 -0.2903  0.0108  0.2900
52650SOL    HW166728   1.529   4.864   8.349  0.5617 -0.0159  0.3534
52650SOL    HW266729   1.456   4.907   8.224 -0.9610  0.1624  1.2826
52651SOL     OW66730   6.891   4.443   5.270  0.0573 -0.2299 -0.2952
52651SOL    HW166731   6.845   4.405   5.345  0.5354 -0.0372  0.0971
52651SOL    HW266732   6.901   4.370   5.209 -1.8632 -0.0092 -0.9299
52652SOL     OW66733   4.758   3.483   2.547  0.7541  0.5980 -0.2663
52652SOL    HW166734   4.792   3.408   2.595  1.0869  1.3552  0.7077
52652SOL    HW266735   4.665   3.485   2.567  0.7338  0.3974 -0.3491
52653SOL     OW66736  10.998   9.548   7.254 -0.0191  0.1959 -0.3477
52653SOL    HW166737  11.032   9.491   7.186  1.0319 -0.2195  0.4966
52653SOL    HW266738  10.903   9.533   7.254  0.0527 -0.2826 -1.2568
52654SOL     OW66739   2.148  10.355  10.017  0.1948  0.4800 -0.5133
52654SOL    HW166740   2.167  10.275   9.968 -1.3210 -0.4714  0.3702
52654SOL    HW266741   2.172  10.333  10.108 -0.4544  0.9552 -0.2228
52655SOL     OW66742   7.072   3.241   7.702  0.1672  0.1864 -0.1141
52655SOL    HW166743   7.048   3.320   7.752 -2.5732 -0.2822 -0.5448
52655SOL    HW266744   7.155   3.264   7.661  0.1958  2.3064  0.9532
52656SOL     OW66745   0.690   1.803   2.187 -0.2442 -0.4164 -0.3040
52656SOL    HW166746   0.680   1.803   2.282  0.7029 -2.1908 -0.1716
52656SOL    HW266747   0.600   1.809   2.154 -0.6462 -0.6803  0.7085
52657SOL     OW66748   9.326   1.124   0.015 -0.1169 -0.1554  0.4574
52657SOL    HW166749   9.269   1.113  -0.062 -0.1613  1.2721  0.2556
52657SOL    HW266750   9.402   1.172  -0.018  0.2262 -0.2148  1.1511
52658SOL     OW66751   6.059   2.672  11.610  0.2983 -0.1012 -0.3174
52658SOL    HW166752   6.023   2.690  11.697 -0.3307  0.2088 -0.6335
52658SOL    HW266753   5.984   2.677  11.552  0.4973 -1.5194 -0.7310
52659SOL     OW66754   4.589   6.820   4.012 -0.2989 -0.2403  0.3900
52659SOL    HW166755   4.502   6.801   3.976 -0.3101  0.1373  0.2158
52659SOL    HW266756   4.572   6.846   4.103 -0.1686 -2.3804  1.0784
52660SOL     OW66757   0.360   6.319  10.292 -0.5404  0.0987 -0.1708
52660SOL    HW166758   0.351   6.388  10.358 -0.3020 -0.5057  0.5129
52660SOL    HW266759   0.435   6.267  10.321 -0.6820 -0.4145 -0.6987
52661SOL     OW66760   1.198   4.602   4.666 -0.0080 -0.3910 -0.1186
52661SOL    HW166761   1.206   4.587   4.760 -0.6343 -0.8017 -0.1302
52661SOL    HW266762   1.279   4.648   4.643  0.5790 -1.1009  0.4528
52662SOL     OW66763   9.084   5.308  10.053  0.3465  0.1057 -0.1851
52662SOL    HW166764   9.055   5.398  10.068  0.0717 -0.3450  2.5186
52662SOL    HW266765   9.030   5.277   9.981 -1.2075  1.3926  0.3676
52663SOL     OW66766   7.184   9.375  10.541 -0.6472 -0.8511  0.0748
52663SOL    HW166767   7.164   9.359  10.633 -0.8217 -1.0095  0.0103
52663SOL    HW266768   7.099   9.367  10.496 -0.3608 -2.0425 -0.2741
52664SOL     OW66769   0.799   1.920   1.964 -0.2679  0.2831 -0.2848
52664SOL    HW166770   0.732   1.877   2.017 -0.4238  1.1201  0.2166
52664SOL    HW266771   0.755   1.998   1.928  0.4537  0.9056  0.1482
52665SOL     OW66772   7.819  11.348   9.952 -0.4390 -0.3834  0.3617
52665SOL    HW166773   7.899  11.363  10.002 -1.1182 -0.3986  1.4837
52665SOL    HW266774   7.797  11.435   9.917  1.2297 -0.7540 -1.8276
52666SOL     OW66775  10.647  11.761   4.785  0.7451 -0.2167 -0.1547
52666SOL    HW166776  10.695  11.737   4.865  1.5591  0.5237 -0.3960
52666SOL    HW266777  10.556  11.769   4.813  0.5939 -2.4619  0.1511
52667SOL     OW66778  11.151  11.686   2.325 -0.0114 -0.0470 -0.0995
52667SOL    HW166779  11.242  11.670   2.351  0.1577 -1.8774 -1.6069
52667SOL    HW266780  11.138  11.629   2.249 -1.7411  1.8578 -1.3126
52668SOL     OW66781   1.749   5.817   1.976  0.0766  0.9873 -0.3963
52668SOL    HW166782   1.734   5.744   1.915 -2.3199  0.2241  0.9547
52668SOL    HW266783   1.802   5.779   2.046 -0.5806  0.7057 -0.0408
52669SOL     OW66784   7.123   1.044  11.543  0.1098 -0.2485 -0.5382
52669SOL    HW166785   7.205   1.087  11.520  0.3265  1.8180  3.3096
52669SOL    HW266786   7.148   0.980  11.610 -1.0971 -1.9958 -1.6551
52670SOL     OW66787   2.471   2.773   0.970 -0.1834  0.5656 -0.3450
52670SOL    HW166788   2.427   2.714   0.908 -1.1442  0.5951  0.2838
52670SOL    HW266789   2.403   2.797   1.032  0.5957  1.0932  0.3244
52671SOL     OW66790  11.571   6.643   5.830  0.1861  0.2881  0.4136
52671SOL    HW166791  11.579   6.547   5.823  0.5611  0.0327  3.1323
52671SOL    HW266792  11.661   6.675   5.828  0.0518  0.6211 -0.6636
52672SOL     OW66793   9.803   8.459   5.124 -0.0086 -0.1031 -0.0452
52672SOL    HW166794   9.848   8.450   5.040  1.6721  1.9464  0.5641
52672SOL    HW266795   9.847   8.532   5.167 -1.9543 -0.0125  1.9241
52673SOL     OW66796   3.844   6.748   4.897 -0.3822  0.2793 -0.7436
52673SOL    HW166797   3.888   6.664   4.900 -0.3769  0.3104  1.0994
52673SOL    HW266798   3.765   6.732   4.846  0.5950 -0.3181 -2.1381
52674SOL     OW66799   1.713   6.188   4.088  0.3639 -0.1538 -0.0653
52674SOL    HW166800   1.663   6.131   4.146  1.6648  0.0969  1.3865
52674SOL    HW266801   1.712   6.273   4.132  2.3069 -0.2239  0.1804
52675SOL     OW66802   8.676   4.552  11.975  0.0645  0.4154  0.2314
52675SOL    HW166803   8.708   4.560  12.065  0.8848 -0.6183  0.0447
52675SOL    HW266804   8.752   4.526  11.924 -0.6051  0.0472 -0.6138
52676SOL     OW66805   3.564   7.216  12.236 -0.4301  0.3766 -0.7476
52676SOL    HW166806   3.483   7.245  12.194 -0.6046  0.1852 -0.5434
52676SOL    HW266807   3.553   7.122  12.248 -0.3255  0.4068 -0.4000
52677SOL     OW66808   5.859   3.780   7.490 -0.7015 -0.5481  0.1630
52677SOL    HW166809   5.911   3.802   7.567 -1.5891  0.5085  0.4809
52677SOL    HW266810   5.770   3.770   7.523 -1.1468  0.2180 -0.7463
52678SOL     OW66811   9.929   5.318  11.965  0.2688  0.2596 -0.6459
52678SOL    HW166812   9.872   5.251  12.002  1.7628 -0.4987  0.3806
52678SOL    HW266813   9.885   5.345  11.884 -0.4933 -1.7634 -0.9559
52679SOL     OW66814  11.377  10.712  12.398  0.5207  0.3997 -0.0346
52679SOL    HW166815  11.365  10.803  12.371  1.9164  0.2683 -1.2650
52679SOL    HW266816  11.396  10.666  12.316 -0.4528 -1.0682  0.5216
52680SOL     OW66817   0.278  10.194   7.762  0.7948 -1.1333  0.7915
52680SOL    HW166818   0.251  10.252   7.833  1.1862 -2.1284  1.7796
52680SOL    HW266819   0.277  10.249   7.684 -2.1175 -0.6409  1.0900
52681SOL     OW66820   5.897   6.648   9.374  0.0587 -0.0960 -0.2460
52681SOL    HW166821   5.932   6.736   9.387  0.0508 -0.1014 -0.1887
52681SOL    HW266822   5.886   6.640   9.279  0.3841 -0.1579 -0.2805
52682SOL     OW66823   8.394   6.742   1.063  0.4951  0.6443  0.0446
52682SOL    HW166824   8.366   6.782   0.980  2.0345  0.7978 -0.4346
52682SOL    HW266825   8.331   6.773   1.127 -0.3637  1.0354 -0.9544
52683SOL     OW66826   3.635   0.734  10.584 -0.3343 -0.4447 -0.6831
52683SOL    HW166827   3.627   0.792  10.508  0.8082  0.2029 -0.3358
52683SOL    HW266828   3.636   0.794  10.659 -1.9774 -1.1066 -0.1015
52684SOL     OW66829   7.263   3.049   3.012  0.0507 -0.3247 -0.5215
52684SOL    HW166830   7.286   2.992   2.939  0.0419  0.0755 -0.8361
52684SOL    HW266831   7.277   3.137   2.980 -1.3154 -0.0825 -0.5185
52685SOL     OW66832  11.648   5.388   1.789  0.0907 -0.4883  0.5376
52685SOL    HW166833  11.646   5.313   1.847 -1.9030 -1.3621 -0.5753
52685SOL    HW266834  11.680   5.353   1.706  0.4155  0.1893  0.3699
52686SOL     OW66835   1.392   2.987   8.837  0.0147 -0.7806 -0.0810
52686SOL    HW166836   1.364   3.070   8.876 -0.6799 -0.6781 -0.7707
52686SOL    HW266837   1.452   3.011   8.768 -1.5727 -0.6989 -1.4990
52687SOL     OW66838   2.478   2.159   8.781  0.5955  0.0081 -0.1916
52687SOL    HW166839   2.441   2.070   8.778  2.0809 -0.6549  0.2619
52687SOL    HW266840   2.539   2.162   8.708  1.1270  0.3793  0.2605
52688SOL     OW66841  10.595   6.048   3.186  0.2714  0.2218  0.0849
52688SOL    HW166842  10.655   6.120   3.204 -0.2687  0.0365  3.0988
52688SOL    HW266843  10.644   5.970   3.211 -0.6816 -0.0346  1.2338
52689SOL     OW66844   4.083   8.501  10.707 -0.3308 -0.2500  0.4192
52689SOL    HW166845   4.014   8.566  10.718 -0.2310  0.8270 -3.7202
52689SOL    HW266846   4.037   8.417  10.703 -1.5706  0.4423 -2.1804
52690SOL     OW66847   3.427   1.252   1.125 -0.1562 -0.0173  0.6331
52690SOL    HW166848   3.398   1.268   1.215 -1.3845  0.8879  0.1105
52690SOL    HW266849   3.491   1.321   1.108 -0.0366 -0.0961  0.7602
52691SOL     OW66850   1.977   4.369   0.053  0.2084 -0.5063 -0.0397
52691SOL    HW166851   2.011   4.448   0.010  0.6837 -0.4203  0.4854
52691SOL    HW266852   2.026   4.297   0.014 -1.1875 -0.6966 -1.5222
52692SOL     OW66853   5.006   9.864  11.896  0.0107 -0.1432  0.3297
52692SOL    HW166854   4.925   9.831  11.934 -0.4518 -0.2907 -0.7719
52692SOL    HW266855   5.006   9.958  11.915  0.0708 -0.3043  1.1809
52693SOL     OW66856  12.539  11.285   9.580  0.1389  0.1227  0.7181
52693SOL    HW166857  12.502  11.279   9.668 -0.2864  0.9071  0.6012
52693SOL    HW266858  12.502  11.366   9.544 -0.3175 -0.5976 -0.4737
52694SOL     OW66859   3.279   3.864  10.590  0.0077  0.5470  0.4316
52694SOL    HW166860   3.322   3.826  10.667 -3.0754  1.1268  2.6300
52694SOL    HW266861   3.335   3.937  10.564  1.8748 -0.5594  1.1238
52695SOL     OW66862   0.890   0.868   9.020  0.0995  0.3462 -0.2418
52695SOL    HW166863   0.844   0.823   8.949 -0.3643  1.1419 -0.4614
52695SOL    HW266864   0.834   0.943   9.040  1.5458  1.6108 -0.8367
52696SOL     OW66865   3.987   0.297   7.650  0.1165 -0.0408 -1.0426
52696SOL    HW166866   4.006   0.213   7.693  0.6896  0.0246 -1.1551
52696SOL    HW266867   3.919   0.336   7.705 -0.2757 -0.6502 -1.0845
52697SOL     OW66868   1.684   5.425   2.375  0.5957 -0.2772 -0.3548
52697SOL    HW166869   1.638   5.425   2.292  0.6176 -0.9739 -0.3724
52697SOL    HW266870   1.662   5.509   2.415 -1.1873 -0.8456 -0.0794
52698SOL     OW66871   7.181   6.100   0.563 -0.5380 -0.2207  0.1497
52698SOL    HW166872   7.233   6.035   0.611 -0.5528 -1.2982 -1.2484
52698SOL    HW266873   7.221   6.184   0.587  2.4639 -1.0303 -1.4755
52699SOL     OW66874  11.830   7.194   8.028 -0.4569 -0.6871  0.2692
52699SOL    HW166875  11.794   7.142   8.100 -0.5743 -0.7822  0.1434
52699SOL    HW266876  11.890   7.256   8.070 -1.6393  0.2570  0.6009
52700SOL     OW66877  11.499   5.615   2.476 -0.2788  0.1013  0.0161
52700SOL    HW166878  11.589   5.631   2.446 -0.7346 -0.7000 -1.9323
52700SOL    HW266879  11.473   5.534   2.432 -1.4525 -0.5333  1.7572
52701SOL     OW66880   4.184   0.234   4.360 -0.5334 -0.1489  0.3132
52701SOL    HW166881   4.194   0.186   4.442 -0.3577  0.5643  0.7177
52701SOL    HW266882   4.093   0.266   4.363 -0.5195 -0.1030  0.2394
52702SOL     OW66883   4.236  11.488   6.819  0.1385  0.1306  0.2799
52702SOL    HW166884   4.304  11.521   6.877  0.3483  1.0571 -0.4663
52702SOL    HW266885   4.280  11.421   6.766 -0.0022 -0.5671  1.0345
52703SOL     OW66886   3.622   6.008   1.482  0.4551  0.4197  0.3512
52703SOL    HW166887   3.558   6.079   1.480 -0.4375 -0.3720  0.1643
52703SOL    HW266888   3.633   5.989   1.575  0.6082  0.7256  0.3964
52704SOL     OW66889   4.119  11.369   0.800  0.4486 -0.4206  0.1564
52704SOL    HW166890   4.157  11.369   0.712  1.7078  0.0974  0.6755
52704SOL    HW266891   4.081  11.282   0.809  1.6111 -1.0181 -0.3797
52705SOL     OW66892   8.096   2.719  11.881  0.6651  0.3266 -0.2029
52705SOL    HW166893   8.098   2.760  11.968 -1.6392  2.5123 -1.0443
52705SOL    HW266894   8.063   2.631  11.897  0.2251  0.7063  1.1615
52706SOL     OW66895   7.776   4.713   3.379  0.8810 -0.0909 -0.3541
52706SOL    HW166896   7.707   4.763   3.423  0.9633  0.4209 -0.7968
52706SOL    HW266897   7.772   4.742   3.288  1.6566 -0.0811 -0.3879
52707SOL     OW66898  11.069   2.273   1.068 -0.2373 -0.0439 -0.0236
52707SOL    HW166899  11.146   2.272   1.124  1.0467 -0.6286 -1.7220
52707SOL    HW266900  11.054   2.181   1.046 -0.8304  0.1539 -0.4812
52708SOL     OW66901   7.454   8.953   2.604  0.9659  0.3065 -0.6047
52708SOL    HW166902   7.541   8.917   2.584  2.0965  0.8856  2.6581
52708SOL    HW266903   7.415   8.888   2.662  0.7848  1.7197  0.9221
52709SOL     OW66904  11.274   6.613   0.725  0.1881  0.3412  0.4356
52709SOL    HW166905  11.185   6.628   0.758  1.1306  1.5499  2.6543
52709SOL    HW266906  11.285   6.679   0.656 -1.0281 -0.6999 -0.8280
52710SOL     OW66907   1.631   5.303   3.499  0.1164  0.3620 -0.3520
52710SOL    HW166908   1.725   5.321   3.491  0.5115 -1.7802 -1.1852
52710SOL    HW266909   1.599   5.302   3.408 -0.2387 -1.0289 -0.2343
52711SOL     OW66910   4.208   9.881   3.408 -0.2874 -0.1562 -0.4253
52711SOL    HW166911   4.291   9.843   3.378 -0.6925 -1.1602 -0.3010
52711SOL    HW266912   4.221   9.897   3.501 -0.6913 -1.6405 -0.0859
52712SOL     OW66913  10.800   7.456   0.580 -0.0439 -0.1944 -0.2390
52712SOL    HW166914  10.881   7.405   0.582 -0.3183 -0.6372 -0.2272
52712SOL    HW266915  10.763   7.438   0.494  0.4896  1.0044 -0.7394
52713SOL     OW66916  11.796   8.340   4.163  0.5641  0.3239 -0.6032
52713SOL    HW166917  11.847   8.330   4.243  0.0101 -0.3812 -0.3292
52713SOL    HW266918  11.824   8.424   4.127  1.6556  0.1094 -0.2815
52714SOL     OW66919   8.002   5.121   7.496  0.1526  0.2998  0.1205
52714SOL    HW166920   7.951   5.046   7.468 -0.6389  0.1604  1.7933
52714SOL    HW266921   8.093   5.094   7.483 -0.0031 -1.8812  2.6640
52715SOL     OW66922   2.908   1.460  11.021 -0.6911  0.1092  0.2460
52715SOL    HW166923   2.954   1.412  10.953 -1.7043  0.8818 -1.0434
52715SOL    HW266924   2.973   1.520  11.056 -0.7760  1.6686 -2.0223
52716SOL     OW66925   8.078  12.110   2.698  0.5093  0.3046  0.2295
52716SOL    HW166926   8.070  12.122   2.603  2.2152 -0.3659 -0.0332
52716SOL    HW266927   8.024  12.034   2.717  1.5134 -0.6214 -0.5087
52717SOL     OW66928   6.334   1.968  11.240 -0.1660  0.7556 -0.2001
52717SOL    HW166929   6.338   2.061  11.262  3.2783  1.3127 -2.4619
52717SOL    HW266930   6.319   1.966  11.146 -0.5742 -1.0261 -0.1345
52718SOL     OW66931   7.791   6.145  11.999 -0.4445 -0.2475  0.0870
52718SOL    HW166932   7.740   6.140  11.918 -0.8458  0.3734  0.2952
52718SOL    HW266933   7.873   6.100  11.978 -0.7668 -0.5883 -0.4880
52719SOL     OW66934   4.291   7.512   3.121 -0.1627  0.0491  0.0880
52719SOL    HW166935   4.338   7.439   3.163  1.3017  1.9626  2.0264
52719SOL    HW266936   4.199   7.486   3.124  0.1070 -0.9113  2.6146
52720SOL     OW66937   6.468  10.489  10.347 -0.4851 -0.1473 -0.4423
52720SOL    HW166938   6.443  10.564  10.294  2.5269  1.3696  0.0770
52720SOL    HW266939   6.524  10.436  10.290  1.2493  0.5274  0.5648
52721SOL     OW66940   3.770   4.779  12.492 -0.0409 -0.5669  0.8094
52721SOL    HW166941   3.698   4.841  12.480 -0.3414 -0.4777  2.7891
52721SOL    HW266942   3.846   4.834  12.509  0.1834 -0.7071  0.2936
52722SOL     OW66943   3.462  10.989   3.988 -0.4749  0.0643 -0.1603
52722SOL    HW166944   3.375  10.950   3.997  0.3323 -2.0189 -0.8218
52722SOL    HW266945   3.521  10.923   4.024  0.7619  2.1166  1.7816
52723SOL     OW66946  12.482   2.996   1.194  0.0120 -0.3201  0.4470
52723SOL    HW166947  12.408   3.052   1.221 -0.6702 -1.5706  1.2572
52723SOL    HW266948  12.441   2.917   1.160  0.9713 -1.1275  1.1096
52724SOL     OW66949   6.224   1.056   2.696 -0.1877 -0.2887 -0.6910
52724SOL    HW166950   6.270   1.018   2.622  1.0330 -0.9518  0.3631
52724SOL    HW266951   6.149   0.999   2.710  0.0031 -0.6035 -0.9477
52725SOL     OW66952   4.902   6.918  11.720 -0.3665 -0.2810 -0.4201
52725SOL    HW166953   4.821   6.868  11.719  0.2322 -1.3178  0.4290
52725SOL    HW266954   4.971   6.852  11.717  0.4567  0.5855 -1.4494
52726SOL     OW66955  10.123   8.037   1.135 -0.4557 -0.1333 -0.1782
52726SOL    HW166956  10.068   7.964   1.163 -1.7764  1.0842  0.5185
52726SOL    HW266957  10.061   8.104   1.108  0.7256  0.8494 -0.5026
52727SOL     OW66958  11.456   0.252   2.711  0.1790  0.1235  0.0474
52727SOL    HW166959  11.399   0.251   2.788 -0.7667 -2.5263 -0.5680
52727SOL    HW266960  11.540   0.220   2.743 -0.1286 -0.6902  0.0735
52728SOL     OW66961  10.036   4.733   1.071 -0.0997 -0.3809  0.9829
52728SOL    HW166962  10.126   4.702   1.071  0.5546  1.3222  2.2852
52728SOL    HW266963  10.005   4.720   0.981  1.8430  0.0982  0.2120
52729SOL     OW66964   3.075   9.456   0.152 -0.3244  0.4325 -0.2028
52729SOL    HW166965   3.111   9.477   0.239 -0.5412 -1.8617  0.5149
52729SOL    HW266966   3.152   9.442   0.097 -0.1469 -0.0790  0.1643
52730SOL     OW66967   1.400  10.269  11.617  0.0558  0.0689  0.3967
52730SOL    HW166968   1.370  10.359  11.634 -0.1602  0.1539 -0.4060
52730SOL    HW266969   1.466  10.279  11.548 -0.7889 -0.5111 -0.5027
52731SOL     OW66970   3.989   0.958  10.033 -0.2909 -0.3169 -0.1173
52731SOL    HW166971   4.005   0.914   9.950 -0.4007  0.0472 -0.3351
52731SOL    HW266972   4.039   0.908  10.097  0.4309 -0.1442 -0.5287
52732SOL     OW66973   0.608  10.159   0.284  0.4429  0.5922 -0.1975
52732SOL    HW166974   0.604  10.074   0.239 -0.7783  1.7880 -2.5266
52732SOL    HW266975   0.594  10.138   0.376 -0.4530 -1.6998 -0.7865
52733SOL     OW66976   5.226  11.243   6.239  0.5152  0.3085  0.7816
52733SOL    HW166977   5.302  11.244   6.297  0.6429  0.5404  0.6110
52733SOL    HW266978   5.201  11.334   6.231  1.2416  0.4316 -0.4924
52734SOL     OW66979  10.610  11.113  10.648 -0.0525  0.0024 -0.1466
52734SOL    HW166980  10.562  11.056  10.588 -0.5032  1.6502 -1.4507
52734SOL    HW266981  10.543  11.148  10.707 -0.3441  1.4344 -1.2565
52735SOL     OW66982   9.161   5.014   6.750 -0.2183 -0.0802  0.0915
52735SOL    HW166983   9.224   4.953   6.788 -1.2024 -0.6823  0.7934
52735SOL    HW266984   9.136   5.072   6.821  0.6291  1.1124 -0.5461
52736SOL     OW66985   4.964   5.015  10.488 -0.5220 -0.0925 -0.6403
52736SOL    HW166986   5.013   4.941  10.453  0.0967 -0.1730  0.3551
52736SOL    HW266987   4.995   5.090  10.436 -0.0903 -0.3029 -0.6956
52737SOL     OW66988  12.186   4.091   9.324  0.3649  0.3134 -0.4922
52737SOL    HW166989  12.168   4.116   9.234 -0.2918  0.0936 -0.4245
52737SOL    HW266990  12.141   4.156   9.377  0.2801  0.1116 -0.3187
52738SOL     OW66991  10.417   0.911   7.604  0.2493 -0.2560  0.6004
52738SOL    HW166992  10.421   0.823   7.643 -0.6122 -1.0988 -1.0898
52738SOL    HW266993  10.333   0.912   7.557  1.1367  0.7482 -1.0574
52739SOL     OW66994   4.520   2.564   4.125  0.3227  0.4433  0.2641
52739SOL    HW166995   4.483   2.565   4.213 -0.2325  0.4119  0.0356
52739SOL    HW266996   4.573   2.644   4.120  2.4735 -0.8242  1.4929
52740SOL     OW66997   2.717  11.552   0.044  0.2335 -0.0296 -0.4790
52740SOL    HW166998   2.755  11.471   0.010  0.4403  0.6061 -1.7999
52740SOL    HW266999   2.654  11.579  -0.022 -1.1620 -0.0228  0.7840
52741SOL     OW67000   9.237   7.258   3.792 -0.1354 -0.1906  0.4382
52741SOL    HW167001   9.211   7.336   3.743  2.5787  2.1806  2.3491
52741SOL    HW267002   9.204   7.274   3.881  0.3179 -1.3157  0.8247
52742SOL     OW67003   1.475   4.112   4.231 -0.6798  0.1339 -0.5595
52742SOL    HW167004   1.525   4.140   4.308 -0.8759  1.2664 -0.8238
52742SOL    HW267005   1.524   4.146   4.157 -0.1978 -1.4205 -0.9922
52743SOL     OW67006   0.771   4.809   9.138  0.6965  0.2220 -0.3692
52743SOL    HW167007   0.713   4.885   9.142 -0.0270 -0.2836 -0.9544
52743SOL    HW267008   0.763   4.778   9.048  2.5645  0.6548 -0.7256
52744SOL     OW67009   5.066   8.978   2.905  0.6332  0.5764 -0.5496
52744SOL    HW167010   5.141   9.029   2.874  0.5324  0.5191 -0.8868
52744SOL    HW267011   4.990   9.024   2.871  0.5740 -0.9351 -2.6536
52745SOL     OW67012  11.664  11.804  12.146 -0.3821 -1.0993 -0.0980
52745SOL    HW167013  11.595  11.843  12.092  1.7132  3.9437  0.2832
52745SOL    HW267014  11.735  11.786  12.084  0.5428  0.8593  0.3158
52746SOL     OW67015   6.393   6.642   0.043  0.4299  0.0447  0.0045
52746SOL    HW167016   6.321   6.645  -0.019 -0.0218  2.7504  0.5375
52746SOL    HW267017   6.354   6.609   0.124 -0.4938  2.2483  0.5241
52747SOL     OW67018   1.203   1.042   7.481 -0.4236 -0.4169 -0.4684
52747SOL    HW167019   1.125   1.039   7.425 -0.9076  0.2270  0.1441
52747SOL    HW267020   1.187   0.974   7.547 -0.9075  0.3170  0.1916
52748SOL     OW67021   8.079   2.752   6.947 -0.5527 -0.3482  0.0720
52748SOL    HW167022   8.019   2.683   6.919 -0.2944  0.4562 -2.7835
52748SOL    HW267023   8.022   2.819   6.986 -1.2053 -0.7503 -0.1731
52749SOL     OW67024   7.612   5.919   9.072 -0.0449 -0.1560 -0.4486
52749SOL    HW167025   7.543   5.922   9.138  1.0505  0.6214  0.7117
52749SOL    HW267026   7.691   5.894   9.120  1.2904  2.6996 -0.9312
52750SOL     OW67027  12.246   3.330   6.238 -0.1700 -0.1704 -0.0117
52750SOL    HW167028  12.250   3.309   6.331  0.3698 -0.3310 -0.0694
52750SOL    HW267029  12.225   3.247   6.195 -0.9567  0.0092  0.0054
52751SOL     OW67030   0.909   3.592  10.877 -0.6383  0.0893 -0.5430
52751SOL    HW167031   0.849   3.590  10.802 -0.9057  0.1932 -0.3326
52751SOL    HW267032   0.931   3.501  10.893  0.7628  0.1547 -1.8170
52752SOL     OW67033   9.188   1.129   2.615 -0.3725 -0.0717 -0.2854
52752SOL    HW167034   9.267   1.153   2.662  0.3438 -3.6976  0.6080
52752SOL    HW267035   9.119   1.183   2.655  1.1585  1.0975  0.8845
52753SOL     OW67036  11.517   7.960   4.582  0.2678 -0.2802 -0.5125
52753SOL    HW167037  11.477   7.925   4.503 -0.7027 -0.2145 -0.0599
52753SOL    HW267038  11.558   7.885   4.624  0.4669 -0.3822 -0.8865
52754SOL     OW67039   4.380  11.832   9.303  0.6056 -0.3318 -0.9170
52754SOL    HW167040   4.429  11.762   9.346 -0.7235 -0.9389 -0.3444
52754SOL    HW267041   4.377  11.807   9.211 -0.9468 -1.7374 -0.5303
52755SOL     OW67042   1.538  10.946   9.941 -0.5665  0.1419 -1.2765
52755SOL    HW167043   1.445  10.948   9.916 -0.8506  0.4061 -0.2571
52755SOL    HW267044   1.563  11.038   9.949 -0.7238  0.0861  0.1756
52756SOL     OW67045   7.442  10.785  12.288  0.5094  0.3548  0.4751
52756SOL    HW167046   7.444  10.690  12.280  0.6752  0.4260 -0.5382
52756SOL    HW267047   7.521  10.814  12.242  0.6624  0.9652  1.1076
52757SOL     OW67048   8.275   2.670  10.191  0.0495 -0.5791 -0.1016
52757SOL    HW167049   8.285   2.674  10.096  0.1143 -1.5192 -0.1451
52757SOL    HW267050   8.203   2.608  10.206 -1.3526  1.1074  0.4155
52758SOL     OW67051  11.919   4.979   1.265  0.1036 -0.3323  0.5857
52758SOL    HW167052  11.868   5.059   1.248  0.3322  0.0109  1.4430
52758SOL    HW267053  12.009   5.002   1.244 -0.2125 -1.3308 -2.1823
52759SOL     OW67054  12.504  11.675   2.804 -0.3614  0.1213  0.1384
52759SOL    HW167055  12.428  11.622   2.830 -0.2254  0.3548  1.0805
52759SOL    HW267056  12.465  11.757   2.772 -0.5265  0.8137  1.9396
52760SOL     OW67057   7.868   5.765   7.929  0.2557 -0.2509 -0.0799
52760SOL    HW167058   7.916   5.755   7.847  0.5249 -1.6777  0.2420
52760SOL    HW267059   7.787   5.809   7.904  1.8970  2.7920 -0.5528
52761SOL     OW67060   8.331   2.271   6.908 -0.1981 -0.1800  0.3664
52761SOL    HW167061   8.282   2.246   6.986  0.8040 -0.1655  1.0162
52761SOL    HW267062   8.310   2.364   6.895 -1.8148 -0.6202 -0.4916
52762SOL     OW67063   6.271   9.445  12.401  0.7417 -0.4466  0.7224
52762SOL    HW167064   6.302   9.425  12.490 -0.9104 -1.2081  1.1444
52762SOL    HW267065   6.209   9.517  12.413  2.2738  1.1130 -0.1326
52763SOL     OW67066   1.690   4.949   4.144 -0.0553  0.2369  0.5501
52763SOL    HW167067   1.617   4.996   4.103 -0.4191  0.1756  1.1083
52763SOL    HW267068   1.766   4.972   4.091 -0.3990  0.6764  0.2331
52764SOL     OW67069   7.610  10.137  11.220 -0.6737  0.1190  0.4013
52764SOL    HW167070   7.650  10.056  11.253 -0.5080 -0.2778 -0.7362
52764SOL    HW267071   7.681  10.182  11.175 -1.2080 -0.0264 -0.6135
52765SOL     OW67072   4.039   8.763   0.480  0.3975 -0.0370 -0.1547
52765SOL    HW167073   4.103   8.815   0.529 -0.5999  0.9740  0.1164
52765SOL    HW267074   4.046   8.675   0.517  0.8650  0.3098  0.6141
52766SOL     OW67075   9.557   1.125   3.533  0.1162 -0.1783 -0.3305
52766SOL    HW167076   9.617   1.060   3.572  0.4767  0.2563 -0.1492
52766SOL    HW267077   9.507   1.075   3.468  1.2448 -0.3851 -1.0745
52767SOL     OW67078   2.165   6.854   1.428 -0.3404 -0.2701 -0.0119
52767SOL    HW167079   2.143   6.936   1.472 -0.5461 -0.0553 -0.5087
52767SOL    HW267080   2.132   6.786   1.487  0.9526 -0.0555  1.0291
52768SOL     OW67081   0.406   2.560   0.432 -0.3504 -0.2222 -0.0249
52768SOL    HW167082   0.331   2.583   0.378 -0.5155  1.5872  0.8938
52768SOL    HW267083   0.478   2.551   0.370 -0.9090  0.0284 -0.7213
52769SOL     OW67084   8.378   8.464   5.382 -0.1864  0.6481  0.4936
52769SOL    HW167085   8.298   8.438   5.429  1.1961 -1.6145  1.8114
52769SOL    HW267086   8.418   8.530   5.438  0.0631 -0.0154  1.1174
52770SOL     OW67087   1.914  12.095   4.695 -0.2023 -0.2181  0.1535
52770SOL    HW167088   1.918  12.010   4.740  0.9530  0.9220  2.3825
52770SOL    HW267089   1.830  12.132   4.720  0.2073  0.1825  0.9709
52771SOL     OW67090   4.184   9.267   1.833 -0.4489 -0.6518  0.5667
52771SOL    HW167091   4.169   9.193   1.773  0.8755 -1.9738  1.7631
52771SOL    HW267092   4.276   9.259   1.858 -0.6443  0.5826  1.8166
52772SOL     OW67093   6.619   7.761   8.335  0.4240 -0.2127 -0.6508
52772SOL    HW167094   6.666   7.787   8.414 -0.9878 -0.5775  0.3605
52772SOL    HW267095   6.660   7.810   8.264  1.4520  0.4367  0.3771
52773SOL     OW67096   2.344   9.720   0.600 -0.0883  0.4123  0.3093
52773SOL    HW167097   2.309   9.796   0.648 -0.7238 -0.2532  0.9344
52773SOL    HW267098   2.364   9.656   0.669 -2.0220 -0.9811 -0.3621
52774SOL     OW67099   8.629   9.586   1.490 -0.0235  0.3140  0.1180
52774SOL    HW167100   8.703   9.537   1.526  0.1153  0.5895  0.2099
52774SOL    HW267101   8.585   9.623   1.566  0.5252  1.2592 -0.0087
52775SOL     OW67102   9.406   2.077   8.803 -0.3905 -0.4200 -0.2704
52775SOL    HW167103   9.354   2.013   8.853  0.4895 -0.4223  0.6573
52775SOL    HW267104   9.388   2.161   8.845 -0.6143 -0.2220 -0.7477
52776SOL     OW67105   5.372   2.219  11.060 -0.7255 -0.2547  0.0449
52776SOL    HW167106   5.389   2.185  11.148  1.9411  0.9057  0.0594
52776SOL    HW267107   5.390   2.146  11.002 -0.2229 -0.3726  0.3481
52777SOL     OW67108   0.454   4.420   8.416 -0.0684  0.3717 -0.3732
52777SOL    HW167109   0.405   4.482   8.469 -1.3686  0.2282 -1.3527
52777SOL    HW267110   0.538   4.410   8.461 -1.3386 -0.2417  1.9822
52778SOL     OW67111   9.492   7.289   5.049  0.3292 -0.0971 -0.0843
52778SOL    HW167112   9.573   7.260   5.092  0.5078  0.0542 -0.3167
52778SOL    HW267113   9.488   7.236   4.969  0.6846  0.5489 -0.5404
52779SOL     OW67114   5.671   8.462  11.616 -0.1583 -0.1572  0.1980
52779SOL    HW167115   5.591   8.479  11.666 -0.4982 -1.6419  0.2058
52779SOL    HW267116   5.641   8.418  11.536  0.6403 -0.6628  0.1606
52780SOL     OW67117   7.644  10.858  11.178 -0.5048  0.2235  0.7344
52780SOL    HW167118   7.655  10.770  11.142  1.7498  0.7334 -0.0011
52780SOL    HW267119   7.549  10.873  11.178 -0.8987 -2.0192  0.4741
52781SOL     OW67120   1.621   2.889   4.794 -0.2800 -0.0805  0.2459
52781SOL    HW167121   1.670   2.971   4.807 -0.3276  0.3588 -1.9651
52781SOL    HW267122   1.629   2.871   4.701 -2.6200 -1.1077  0.1812
52782SOL     OW67123   5.747   7.073   2.867 -0.0804  0.3808 -0.4061
52782SOL    HW167124   5.690   7.146   2.840 -0.5058  0.8199  1.5500
52782SOL    HW267125   5.717   7.051   2.955  2.2590  0.0604  0.3569
52783SOL     OW67126  11.000   9.576   3.498  0.0368 -0.2708 -0.3490
52783SOL    HW167127  10.994   9.543   3.408 -1.7229 -0.1736 -0.2911
52783SOL    HW267128  11.043   9.505   3.546 -3.7543 -2.7628 -0.1961
52784SOL     OW67129   5.749   2.889   2.980  0.1071 -0.0326 -0.0597
52784SOL    HW167130   5.789   2.891   3.067 -0.5711  0.1822  0.2572
52784SOL    HW267131   5.671   2.833   2.991 -0.4986  0.7514 -0.2969
52785SOL     OW67132   7.026  11.317   9.673 -0.5824  0.5149  0.1610
52785SOL    HW167133   7.036  11.410   9.652  2.9336  0.4577  1.0686
52785SOL    HW267134   6.956  11.316   9.739 -2.1138  2.1832 -1.2840
52786SOL     OW67135   3.205   5.401   5.663 -0.1651  0.2026 -0.9115
52786SOL    HW167136   3.258   5.471   5.626 -2.4827  1.9769 -1.1519
52786SOL    HW267137   3.232   5.322   5.616 -0.2673  1.6809 -3.6487
52787SOL     OW67138   1.721  10.534   1.988 -0.2106 -0.3789  0.2200
52787SOL    HW167139   1.804  10.559   2.028 -0.0469  0.3231 -0.5214
52787SOL    HW267140   1.673  10.617   1.981  0.5673 -0.0633 -2.8352
52788SOL     OW67141  11.011  11.382   4.643 -0.7220  0.3852 -0.3378
52788SOL    HW167142  10.933  11.396   4.589 -0.7399  0.7599 -0.2169
52788SOL    HW267143  11.041  11.294   4.619 -1.9997 -0.3601  0.6410
52789SOL     OW67144   0.553  11.364   6.429  0.4827  0.3444  0.3192
52789SOL    HW167145   0.524  11.325   6.347 -0.4341  1.9868 -0.1735
52789SOL    HW267146   0.645  11.386   6.415  0.4938  0.0742 -0.0426
52790SOL     OW67147   7.472   8.151   4.737  0.0505  0.3615  0.1191
52790SOL    HW167148   7.486   8.066   4.779 -0.9958 -0.2573 -0.7408
52790SOL    HW267149   7.455   8.130   4.646  1.1800  1.6174 -0.4123
52791SOL     OW67150   1.386   9.316   4.336 -0.7097 -0.1785 -0.0180
52791SOL    HW167151   1.347   9.230   4.350  0.2315 -0.4349  1.1840
52791SOL    HW267152   1.369   9.363   4.418  4.4213 -1.4836  2.1755
52792SOL     OW67153   4.475   2.986  11.330 -0.1746  0.4841  0.3046
52792SOL    HW167154   4.519   3.028  11.256 -2.7035 -1.1044 -2.2779
52792SOL    HW267155   4.466   3.056  11.395  0.0849  2.6271 -1.8392
52793SOL     OW67156   1.421   8.706   0.331 -0.1924  0.3170  0.3174
52793SOL    HW167157   1.383   8.739   0.413  0.2396  0.5806  0.4133
52793SOL    HW267158   1.466   8.782   0.294  1.0654 -0.2367  0.6796
52794SOL     OW67159   0.186   7.545   4.835 -0.3789  0.3497  0.0644
52794SOL    HW167160   0.238   7.622   4.813  0.4196  0.1196  1.0958
52794SOL    HW267161   0.248   7.484   4.874 -1.0054 -0.8304 -0.7226
52795SOL     OW67162   0.617   6.291   3.117 -0.3018  0.3642  0.1208
52795SOL    HW167163   0.553   6.221   3.107  0.2330 -0.2445  0.8888
52795SOL    HW267164   0.621   6.308   3.211 -0.0597  1.0791 -0.0120
52796SOL     OW67165  12.308  11.139   3.233 -0.3457  0.0140  0.6218
52796SOL    HW167166  12.339  11.048   3.238 -1.8133 -0.4918  0.8481
52796SOL    HW267167  12.226  11.133   3.186  0.7808  1.5763 -1.7129
52797SOL     OW67168   0.294   6.979   2.814  0.0878  0.2836  0.4187
52797SOL    HW167169   0.321   6.887   2.815  1.0892  0.5011 -1.6053
52797SOL    HW267170   0.376   7.028   2.804 -0.6393  1.2377 -1.2527
52798SOL     OW67171   3.575   2.042   2.788  0.3183 -0.0865  0.2782
52798SOL    HW167172   3.627   1.993   2.852 -0.2384  0.7422  1.3907
52798SOL    HW267173   3.515   1.977   2.752  0.9512 -0.6676  0.2468
52799SOL     OW67174   4.472   1.789   3.604 -0.0723  0.2149  0.1054
52799SOL    HW167175   4.513   1.764   3.687  0.7592  1.6049  0.1535
52799SOL    HW267176   4.438   1.707   3.568  2.3421 -0.9717  0.3078
52800SOL     OW67177   6.519   3.142   3.372  0.5918  0.0984 -0.1510
52800SOL    HW167178   6.552   3.084   3.303 -1.3807 -0.6785 -0.5237
52800SOL    HW267179   6.578   3.126   3.446  1.3939 -0.7512 -0.9383
52801SOL     OW67180  11.906   3.441   3.323 -0.1097 -0.1977  0.5611
52801SOL    HW167181  11.983   3.388   3.304  1.7781  2.5389 -0.0456
52801SOL    HW267182  11.856   3.441   3.241  0.8461  0.4261 -0.0412
52802SOL     OW67183   0.553   0.521   8.277  0.6407  0.1619 -0.1102
52802SOL    HW167184   0.580   0.606   8.312  1.5910  0.2645 -1.0627
52802SOL    HW267185   0.480   0.542   8.218  1.0920  0.3665 -0.6042
52803SOL     OW67186   4.038   8.563   1.973 -0.4643  0.2922 -0.0083
52803SOL    HW167187   4.115   8.615   1.950 -1.4447  0.3867 -3.6203
52803SOL    HW267188   4.073   8.491   2.026  1.8755  1.1140 -0.3109
52804SOL     OW67189   6.476  11.951   5.388 -0.1354  0.3222  0.1428
52804SOL    HW167190   6.441  11.926   5.302  1.3214 -0.9957 -0.1097
52804SOL    HW267191   6.427  11.899   5.451 -0.9492  1.0153  0.0987
52805SOL     OW67192   7.561   6.900   7.618  0.0262 -1.2967 -0.0551
52805SOL    HW167193   7.616   6.824   7.637  2.4892  0.2348 -0.6498
52805SOL    HW267194   7.622   6.967   7.587 -1.7184  1.6278  2.3286
52806SOL     OW67195  10.785   2.232   8.588 -0.4264  0.3575 -0.3223
52806SOL    HW167196  10.730   2.260   8.662 -1.8147  0.6470 -1.4171
52806SOL    HW267197  10.759   2.141   8.573 -1.0785  0.6769 -1.2220
52807SOL     OW67198   1.205   8.603  11.500  0.1882 -0.0633  0.6705
52807SOL    HW167199   1.211   8.677  11.560 -1.7499  0.7591 -0.0725
52807SOL    HW267200   1.125   8.558  11.524 -0.2629 -0.1235 -0.8271
52808SOL     OW67201   4.797   1.577   1.956  0.3031  0.2897  0.2025
52808SOL    HW167202   4.755   1.534   2.031 -0.1657  1.7998  0.8318
52808SOL    HW267203   4.888   1.588   1.984  0.9939 -2.1687 -0.8111
52809SOL     OW67204   3.292   7.018   8.517 -0.2327  0.5066  0.7994
52809SOL    HW167205   3.203   7.031   8.550 -0.2023  1.2828  0.5943
52809SOL    HW267206   3.337   7.101   8.536 -0.0505  0.7671 -0.6368
52810SOL     OW67207   4.278   2.550   9.717 -0.2976 -0.0729  0.1373
52810SOL    HW167208   4.289   2.524   9.809  1.5873 -2.1951 -0.6136
52810SOL    HW267209   4.361   2.591   9.694 -0.4385 -0.3326 -0.8652
52811SOL     OW67210   8.554   3.903   1.532 -0.2255 -0.2077 -0.0463
52811SOL    HW167211   8.551   3.974   1.597  0.9589 -0.0815 -0.1173
52811SOL    HW267212   8.464   3.899   1.499 -0.3873  1.0883  0.1478
52812SOL     OW67213   3.377   5.044   3.313 -0.1717  0.2262 -0.0971
52812SOL    HW167214   3.300   4.987   3.324 -1.0973  1.0042 -2.0624
52812SOL    HW267215   3.434   4.997   3.253 -0.0404  0.4984 -0.1895
52813SOL     OW67216   6.716  12.221   9.606  0.0666  0.3319  0.3826
52813SOL    HW167217   6.644  12.182   9.654  0.6470 -0.7588  0.4220
52813SOL    HW267218   6.758  12.281   9.668  0.5845 -0.7763  1.1330
52814SOL     OW67219   6.949  10.219   5.116  0.7994  0.0113  0.4318
52814SOL    HW167220   6.940  10.123   5.114 -0.0045  0.0907 -0.1057
52814SOL    HW267221   6.984  10.237   5.203  0.2497 -0.7225  0.8188
52815SOL     OW67222   6.551   2.432   3.940 -0.5895  0.5198 -0.1802
52815SOL    HW167223   6.513   2.358   3.987 -1.2048  1.0332  0.1396
52815SOL    HW267224   6.576   2.494   4.009 -1.3266  1.1973 -0.5095
52816SOL     OW67225   6.048   3.371   1.054 -0.1193 -0.2194  0.0944
52816SOL    HW167226   6.015   3.281   1.044  1.0311 -0.8105  1.3109
52816SOL    HW267227   5.993   3.410   1.121 -0.5182 -0.0566 -0.3220
52817SOL     OW67228  11.911   4.597   6.671 -0.4596  0.3369 -0.4721
52817SOL    HW167229  11.885   4.687   6.654 -0.2362  0.4414 -0.2568
52817SOL    HW267230  11.886   4.582   6.763  3.0040  1.4394  0.8078
52818SOL     OW67231   1.418  12.559   1.507  0.0989 -0.2126  0.6454
52818SOL    HW167232   1.447  12.622   1.573  0.8877 -1.8139  1.8850
52818SOL    HW267233   1.413  12.476   1.553 -1.7265 -0.9474 -0.7471
52819SOL     OW67234  11.813   4.725  12.264  0.2324  0.1259 -0.1010
52819SOL    HW167235  11.843   4.652  12.318 -1.8668 -1.0447 -0.4129
52819SOL    HW267236  11.818   4.801  12.322  3.0936 -0.0331  0.0389
52820SOL     OW67237   0.958   2.462   0.803 -0.1925  0.2745  0.0731
52820SOL    HW167238   1.005   2.520   0.744  2.1828 -2.4062 -0.8727
52820SOL    HW267239   0.919   2.396   0.746  0.3763 -1.1896  1.3001
52821SOL     OW67240   9.325   3.335  12.452  0.8503 -0.2379  0.0198
52821SOL    HW167241   9.416   3.317  12.475  1.0296  0.5847 -0.0060
52821SOL    HW267242   9.326   3.426  12.424  0.5594 -1.0272 -2.8118
52822SOL     OW67243   8.750   2.714   7.291 -0.1743 -0.3366 -0.5700
52822SOL    HW167244   8.834   2.679   7.321  0.1730 -0.1536 -1.2860
52822SOL    HW267245   8.713   2.758   7.367 -0.7930 -2.5132  0.4679
52823SOL     OW67246   7.197  11.004   3.774 -0.0580  0.0542 -0.1975
52823SOL    HW167247   7.151  11.073   3.822  0.0401  0.9552 -1.3496
52823SOL    HW267248   7.276  11.047   3.741  1.1851 -1.2330  0.9914
52824SOL     OW67249  10.405   6.818   9.098  0.0095  0.0489  0.3181
52824SOL    HW167250  10.336   6.853   9.154 -1.1804 -0.7178 -0.6403
52824SOL    HW267251  10.406   6.724   9.117  0.7559  0.0403  0.2689
52825SOL     OW67252   9.772   1.839   1.992  0.1513  0.3083  0.2193
52825SOL    HW167253   9.753   1.928   1.963  3.3653  0.9193 -0.3424
52825SOL    HW267254   9.769   1.786   1.912 -0.3717  0.1723  0.3272
52826SOL     OW67255   1.933  11.846   5.095  0.1549  0.2881 -0.1696
52826SOL    HW167256   1.962  11.875   5.182  0.5446 -0.2360 -0.1167
52826SOL    HW267257   1.898  11.758   5.109  0.0693  0.2660 -0.5136
52827SOL     OW67258   9.785   5.873   4.825 -0.5107 -0.3227 -0.4612
52827SOL    HW167259   9.823   5.961   4.825 -2.0021  0.3391 -0.9990
52827SOL    HW267260   9.799   5.842   4.915  1.4568 -0.1984 -0.6866
52828SOL     OW67261   6.154   4.906  11.783  0.8922 -0.0860 -0.4422
52828SOL    HW167262   6.170   4.997  11.759  1.9514 -0.5127 -1.4452
52828SOL    HW267263   6.234   4.860  11.759 -0.4131 -1.6849 -2.0791
52829SOL     OW67264   9.893   1.248   6.370  0.5210  0.3599  0.1388
52829SOL    HW167265   9.930   1.235   6.283 -0.1406 -0.7290  0.0069
52829SOL    HW267266   9.940   1.324   6.405  0.7691  0.8361 -1.1743
52830SOL     OW67267   7.585  11.172   8.482 -0.0722  0.6119 -0.5857
52830SOL    HW167268   7.642  11.249   8.491 -2.4920  2.6020 -1.0246
52830SOL    HW267269   7.514  11.188   8.545 -0.6822 -1.2529 -0.7497
52831SOL     OW67270   5.318   7.376   1.904 -0.4448 -0.4806  0.5398
52831SOL    HW167271   5.341   7.466   1.927  0.0390 -0.5246  0.2215
52831SOL    HW267272   5.274   7.383   1.819 -0.7627 -0.5038  0.7000
52832SOL     OW67273   2.363   3.480  12.496  0.0414  0.3042 -0.0884
52832SOL    HW167274   2.391   3.508  12.583  0.2100 -0.1814  0.0156
52832SOL    HW267275   2.321   3.395  12.510  0.1958  0.1579 -0.4994
52833SOL     OW67276   8.608   5.931   2.480 -0.5250  0.0954 -0.2860
52833SOL    HW167277   8.614   5.844   2.441  1.1852 -1.2900  2.7670
52833SOL    HW267278   8.691   5.974   2.457  0.2403 -0.5156  1.2082
52834SOL     OW67279   1.519   8.688   7.417  0.0359 -0.0457 -0.5524
52834SOL    HW167280   1.467   8.768   7.412 -2.5368 -1.5407  0.5488
52834SOL    HW267281   1.567   8.695   7.499 -0.1891  0.3801 -0.4556
52835SOL     OW67282   8.738   3.171   4.266  0.1189  0.6247 -0.6756
52835SOL    HW167283   8.663   3.115   4.250 -0.3853  1.3097 -0.7467
52835SOL    HW267284   8.793   3.122   4.327 -0.5122  0.2386 -0.4149
52836SOL     OW67285   7.191   5.793   8.978  0.2381  0.1788 -0.0661
52836SOL    HW167286   7.257   5.862   8.985  1.7436 -1.3285  1.6057
52836SOL    HW267287   7.204   5.740   9.056 -1.6669 -1.3270 -0.7057
52837SOL     OW67288   8.093   8.595   4.603  0.0891  0.8371  0.0815
52837SOL    HW167289   8.131   8.520   4.556  0.7149  0.0248  1.7718
52837SOL    HW267290   8.122   8.672   4.554  0.9644  0.0519 -0.6827
52838SOL     OW67291   7.678   0.002   0.230 -0.1617  0.1809  0.0440
52838SOL    HW167292   7.634   0.033   0.151 -0.3240  0.2403  0.1590
52838SOL    HW267293   7.767   0.036   0.222  0.5255 -1.7475 -1.2839
52839SOL     OW67294  11.885   2.255   6.523 -0.1605  0.0451  0.1927
52839SOL    HW167295  11.899   2.239   6.616 -0.1855  1.2598  0.4184
52839SOL    HW267296  11.801   2.213   6.503  0.3049 -1.0532  0.4840
52840SOL     OW67297   6.177   8.734   6.670  0.7001 -0.1932  0.6075
52840SOL    HW167298   6.148   8.745   6.580 -0.4640 -0.5794  0.9241
52840SOL    HW267299   6.103   8.762   6.723  1.8322  1.2640  1.4696
52841SOL     OW67300   9.901   4.505  10.691 -0.3252  0.0311 -0.1822
52841SOL    HW167301   9.847   4.428  10.705  0.0880 -0.5233 -1.4437
52841SOL    HW267302   9.858   4.551  10.618  1.6073 -1.1935 -2.2282
52842SOL     OW67303   8.190   5.904  10.321 -0.1580  0.6006 -0.2151
52842SOL    HW167304   8.273   5.876  10.283  0.1945  1.5636 -0.1736
52842SOL    HW267305   8.213   5.940  10.407 -0.2578  3.0534 -1.1380
52843SOL     OW67306   0.106   2.423   1.595 -0.0093  0.1200 -0.2896
52843SOL    HW167307   0.126   2.426   1.502 -0.8561 -0.6167 -0.5193
52843SOL    HW267308   0.154   2.496   1.633  0.1841  0.5537 -1.3363
52844SOL     OW67309   6.611   1.443   6.405 -0.3504  0.0934  0.1546
52844SOL    HW167310   6.701   1.467   6.383  0.9741 -2.9700  1.6580
52844SOL    HW267311   6.590   1.498   6.481  0.4829  0.4446  0.1466
52845SOL     OW67312   9.770  11.313  11.973 -0.0849 -0.1275  0.7450
52845SOL    HW167313   9.708  11.382  11.950 -0.2492 -0.2709  0.7613
52845SOL    HW267314   9.724  11.231  11.956  0.6252 -0.2609 -0.7213
52846SOL     OW67315   2.729   8.071   7.294  0.5039 -0.3299 -0.4770
52846SOL    HW167316   2.716   8.164   7.311  2.3371  0.1088 -1.1962
52846SOL    HW267317   2.697   8.028   7.373 -1.1053  0.8247 -0.4499
52847SOL     OW67318  11.965   3.757   1.734 -0.8502  0.0097 -0.0430
52847SOL    HW167319  11.980   3.663   1.738  2.5129  0.4379  1.2806
52847SOL    HW267320  11.978   3.780   1.641 -2.4021 -0.8664 -0.4999
52848SOL     OW67321   9.010   6.964   3.397  0.2171  0.3076 -0.1537
52848SOL    HW167322   9.020   6.963   3.492 -1.4474  2.8842  0.1475
52848SOL    HW267323   9.086   7.012   3.365 -0.2463  1.2544  0.1167
52849SOL     OW67324   6.406  10.268  11.901  0.0679 -0.0748 -0.2634
52849SOL    HW167325   6.457  10.245  11.823  0.1346  0.4914 -0.3880
52849SOL    HW267326   6.438  10.208  11.968  1.1757  0.5235 -0.2341
52850SOL     OW67327  10.427   1.199   6.699  0.4902  0.2257  0.4817
52850SOL    HW167328  10.415   1.275   6.642 -0.7722 -0.9789 -0.9313
52850SOL    HW267329  10.492   1.145   6.654 -1.2624 -1.2303 -0.4276
52851SOL     OW67330   6.023   7.335   0.692 -0.2132 -0.6167  0.7058
52851SOL    HW167331   6.112   7.364   0.708 -0.1482 -1.4678  2.0515
52851SOL    HW267332   5.978   7.349   0.775 -1.7521  1.1705 -0.3504
52852SOL     OW67333   7.809   9.111   2.738 -0.0629 -0.5905 -0.3809
52852SOL    HW167334   7.797   9.026   2.696 -1.1273  0.1405 -1.6163
52852SOL    HW267335   7.886   9.099   2.795  0.5075 -2.0381 -1.3968
52853SOL     OW67336   1.044   7.917   9.129 -0.2928  0.0665 -0.5762
52853SOL    HW167337   1.121   7.865   9.151 -0.4317 -0.1386 -0.5827
52853SOL    HW267338   1.008   7.875   9.051 -0.9860 -0.4329  0.0053
52854SOL     OW67339   3.048   8.851   7.330  0.3624 -0.1935  0.6712
52854SOL    HW167340   2.953   8.854   7.343 -0.1206  0.3990 -2.3358
52854SOL    HW267341   3.067   8.758   7.316  0.1357 -0.2420  0.6763
52855SOL     OW67342  10.667   9.741   1.897  0.6408  0.3166  0.0946
52855SOL    HW167343  10.739   9.803   1.910  0.9482 -0.0451  0.1428
52855SOL    HW267344  10.597   9.794   1.858  1.2710  0.4705 -0.8779
52856SOL     OW67345   1.682   0.986   3.379  0.3554 -0.3699  0.8725
52856SOL    HW167346   1.623   0.964   3.307  2.6871  0.5608 -1.4520
52856SOL    HW267347   1.755   0.924   3.370  1.7724  1.2259  1.0182
52857SOL     OW67348   4.193   4.510  10.281  0.0132  0.0794  0.0178
52857SOL    HW167349   4.238   4.526  10.363 -0.4652  0.3887  0.2279
52857SOL    HW267350   4.169   4.417  10.284  1.3192 -0.2945 -0.4542
52858SOL     OW67351  12.217  11.516   8.252 -0.2478 -0.6944  0.3035
52858SOL    HW167352  12.145  11.491   8.309 -1.0562 -1.3096 -0.9565
52858SOL    HW267353  12.265  11.435   8.235 -0.1770 -0.5726 -0.1046
52859SOL     OW67354  11.399  11.781   6.712 -0.2904  0.2874 -0.3632
52859SOL    HW167355  11.469  11.724   6.746 -0.3893  0.6183  0.4159
52859SOL    HW267356  11.321  11.726   6.714 -0.1746  0.1101 -0.6483
52860SOL     OW67357  11.450   0.025   4.936 -0.3862  0.0478 -0.0261
52860SOL    HW167358  11.433   0.041   4.843  2.0597  0.0137 -0.5490
52860SOL    HW267359  11.480   0.109   4.970 -0.3452 -0.1819  0.5140
52861SOL     OW67360   1.242  10.046  11.287 -0.0450 -0.1833  0.5342
52861SOL    HW167361   1.161  10.095  11.278 -0.0626 -0.1690  0.7799
52861SOL    HW267362   1.254  10.035  11.381  0.6637  0.5309  0.5423
52862SOL     OW67363   2.583   2.694   7.159 -0.4329 -0.6591 -0.1807
52862SOL    HW167364   2.501   2.729   7.123 -0.1478  2.4731  1.8937
52862SOL    HW267365   2.555   2.617   7.210 -2.5024  1.3222  1.9513
52863SOL     OW67366  10.152   5.953   0.626 -0.0799  0.1644  0.9575
52863SOL    HW167367  10.059   5.977   0.624 -0.1045  0.0426 -0.5962
52863SOL    HW267368  10.198   6.030   0.595  0.0970 -0.6435 -0.9125
52864SOL     OW67369  10.621   7.164  10.368 -0.0384  0.0486  0.1454
52864SOL    HW167370  10.572   7.246  10.360  0.1273  0.1689  0.3696
52864SOL    HW267371  10.553   7.099  10.387 -0.2078  0.0774 -0.3448
52865SOL     OW67372   4.432   5.449   4.342 -0.1217 -0.8756 -0.1736
52865SOL    HW167373   4.385   5.520   4.384  0.5619 -0.2330 -0.4729
52865SOL    HW267374   4.394   5.443   4.254  0.7356  0.0358 -0.6202
52866SOL     OW67375  12.374   7.775   3.815  0.3030 -0.6414 -0.3234
52866SOL    HW167376  12.379   7.683   3.789 -1.9089 -1.8485  2.9485
52866SOL    HW267377  12.465   7.800   3.829  0.9218 -2.5866 -0.4540
52867SOL     OW67378   1.810  12.020   2.083 -0.0194 -0.7498 -0.2031
52867SOL    HW167379   1.732  11.998   2.032  1.4423 -1.2944 -2.3090
52867SOL    HW267380   1.822  12.114   2.069  0.8905 -1.0575 -1.7006
52868SOL     OW67381   2.032   1.489  11.880  0.4853 -0.6969  0.0859
52868SOL    HW167382   1.954   1.493  11.825  0.3888 -2.3022  0.0576
52868SOL    HW267383   2.085   1.420  11.841  0.9064 -1.1300  1.3808
52869SOL     OW67384   5.697   9.672   9.486 -0.4942  0.1063 -0.0647
52869SOL    HW167385   5.748   9.747   9.455  0.6920 -0.4035  0.5956
52869SOL    HW267386   5.613   9.680   9.441 -0.0126  1.2440 -0.8030
52870SOL     OW67387   0.687   4.813   5.547  0.0213  0.0570 -0.5866
52870SOL    HW167388   0.670   4.893   5.497 -0.3396  0.6796  0.4863
52870SOL    HW267389   0.688   4.842   5.638  0.7653 -1.0241 -0.2311
52871SOL     OW67390  11.901   4.169   1.531 -0.2536 -0.0288 -0.8359
52871SOL    HW167391  11.811   4.195   1.511 -0.9857 -1.7262 -0.0414
52871SOL    HW267392  11.901   4.074   1.520  1.3026 -0.1190 -0.2937
52872SOL     OW67393  10.500   3.714   2.974  0.4683  0.2916  0.2335
52872SOL    HW167394  10.498   3.660   2.895 -0.7399  1.4776 -0.5814
52872SOL    HW267395  10.503   3.650   3.046  1.3392 -0.8122 -0.7336
52873SOL     OW67396  12.324   9.836  10.443 -0.0317  0.1957 -0.4256
52873SOL    HW167397  12.371   9.755  10.426 -1.0832 -0.2308 -1.4096
52873SOL    HW267398  12.237   9.809  10.473  0.5646  0.9636  2.2384
52874SOL     OW67399   4.154   5.418   5.297 -0.2438 -0.0478 -0.5782
52874SOL    HW167400   4.192   5.333   5.320 -0.7176 -0.0651  0.1746
52874SOL    HW267401   4.083   5.397   5.237 -2.5506 -0.5707  2.0872
52875SOL     OW67402   8.451   1.598   7.547 -0.0140 -0.2907 -0.1361
52875SOL    HW167403   8.522   1.541   7.576 -0.2708 -0.3055  0.4683
52875SOL    HW267404   8.375   1.571   7.598  0.1452  1.3942  1.0773
52876SOL     OW67405   1.958   7.868  11.370 -0.2405 -0.1177 -0.0644
52876SOL    HW167406   1.869   7.899  11.354  0.3842  2.1266  0.4763
52876SOL    HW267407   2.010   7.910  11.301  0.6017 -0.2602  0.4712
52877SOL     OW67408   6.855   5.542   9.600  0.1007 -0.1628  0.3627
52877SOL    HW167409   6.811   5.503   9.524  3.7779 -3.0687 -0.5885
52877SOL    HW267410   6.786   5.549   9.666 -2.3053 -1.8574 -1.7394
52878SOL     OW67411  11.664   3.378   5.480 -0.0645  0.1361 -0.3640
52878SOL    HW167412  11.708   3.296   5.459 -2.2442 -1.4802  0.9225
52878SOL    HW267413  11.713   3.413   5.555  0.2190 -0.5895 -0.2012
52879SOL     OW67414  11.730   0.265   2.263 -0.1149  0.4519 -0.5645
52879SOL    HW167415  11.688   0.179   2.268  0.7132  0.0993  1.1585
52879SOL    HW267416  11.808   0.250   2.208 -0.3251  0.2634 -0.8129
52880SOL     OW67417   9.876   4.659   6.083 -0.0251  0.1516 -0.5601
52880SOL    HW167418   9.797   4.607   6.092 -0.5246  1.1321  1.2823
52880SOL    HW267419   9.896   4.657   5.989  0.2284 -3.5767 -0.5696
52881SOL     OW67420   1.923  10.204   0.350  0.6699 -0.5164 -0.4078
52881SOL    HW167421   2.018  10.200   0.354  0.7100 -1.1976 -1.6144
52881SOL    HW267422   1.905  10.287   0.306  0.7821 -1.1770 -1.7455
52882SOL     OW67423   3.380   0.850  10.210  0.1779  0.1452  0.1820
52882SOL    HW167424   3.324   0.928  10.209  0.5432  0.4704  1.8152
52882SOL    HW267425   3.323   0.779  10.180 -1.2170  0.4291  1.9772
52883SOL     OW67426  12.229   2.731   4.241 -0.4960  0.2021  0.0354
52883SOL    HW167427  12.294   2.792   4.206 -0.6498 -0.7646 -2.0970
52883SOL    HW267428  12.277   2.650   4.255 -0.4623  0.5184  2.1571
52884SOL     OW67429   5.925   0.933   7.532  0.1995  0.6821 -0.8902
52884SOL    HW167430   5.936   0.996   7.604  0.7653 -0.3950 -0.0134
52884SOL    HW267431   5.894   0.853   7.574  1.6548 -0.3359 -1.6696
52885SOL     OW67432   9.718   1.801   7.632  0.5476  0.3433  0.4051
52885SOL    HW167433   9.773   1.767   7.702  0.9082  1.3460  0.6298
52885SOL    HW267434   9.744   1.893   7.623 -0.7250  0.7123  0.1745
52886SOL     OW67435   9.194   2.881   9.381 -0.6060 -0.0356  0.0128
52886SOL    HW167436   9.246   2.830   9.319 -0.4903  0.5846 -0.4075
52886SOL    HW267437   9.110   2.835   9.384 -1.2192  0.8409 -1.9049
52887SOL     OW67438   2.143   8.147   2.913 -0.2649  0.0624 -0.3388
52887SOL    HW167439   2.104   8.229   2.941 -0.4981 -0.5198  1.1330
52887SOL    HW267440   2.214   8.173   2.854  0.8388  1.4436  1.4869
52888SOL     OW67441   6.384   1.383   3.209  0.5422 -0.4364  0.5993
52888SOL    HW167442   6.401   1.313   3.272  1.7800 -0.6397  0.0653
52888SOL    HW267443   6.467   1.394   3.162 -0.1322  0.2275 -0.4805
52889SOL     OW67444   3.895   8.802   2.379 -0.1687 -0.3891  0.2388
52889SOL    HW167445   3.836   8.863   2.423 -0.1412  0.0933 -0.3791
52889SOL    HW267446   3.880   8.718   2.424  0.8309  0.3463  2.0265
52890SOL     OW67447   5.108   4.761  11.845 -0.1845  0.1391 -0.2609
52890SOL    HW167448   5.058   4.841  11.831  0.4909  0.5609 -0.3144
52890SOL    HW267449   5.158   4.778  11.925  0.1995 -0.1058 -0.4468
52891SOL     OW67450   0.563   9.125   8.165 -0.2497 -0.1156  0.0279
52891SOL    HW167451   0.584   9.185   8.236 -0.6235 -0.1717  0.1882
52891SOL    HW267452   0.469   9.110   8.173 -0.3632  0.1566 -0.6929
52892SOL     OW67453   9.350   3.355   0.356  0.5607 -0.0042  0.0926
52892SOL    HW167454   9.386   3.310   0.280  2.6201 -0.9819  1.5663
52892SOL    HW267455   9.426   3.380   0.408 -0.7929  0.0744  2.1566
52893SOL     OW67456  10.945   0.339   7.120  0.8986 -0.4664 -0.4014
52893SOL    HW167457  11.030   0.360   7.158  0.7762  0.2300 -0.4945
52893SOL    HW267458  10.900   0.423   7.114  0.7229 -0.6271 -1.5949
52894SOL     OW67459   1.495   3.926  10.100 -0.0202  0.6252 -0.6683
52894SOL    HW167460   1.437   3.902  10.173  0.1695  0.3134 -0.6205
52894SOL    HW267461   1.444   3.905  10.022  0.9320 -2.0470 -0.6819
52895SOL     OW67462   2.863   5.388   6.664 -0.0254  0.6384 -0.2017
52895SOL    HW167463   2.894   5.347   6.583 -0.0151 -0.6441  0.4281
52895SOL    HW267464   2.838   5.477   6.638 -0.7568  0.0079 -1.7757
52896SOL     OW67465   3.474   4.869  10.813  1.1835  0.1457  0.4658
52896SOL    HW167466   3.491   4.851  10.906  1.5078 -0.6696  0.2539
52896SOL    HW267467   3.406   4.807  10.788  1.6045 -0.1252 -0.0231
52897SOL     OW67468   9.328   8.495   0.636  0.5671  0.9023 -0.1551
52897SOL    HW167469   9.273   8.441   0.579  2.0480 -0.2276 -0.5739
52897SOL    HW267470   9.266   8.539   0.694 -0.9110  1.2146 -1.8701
52898SOL     OW67471   2.846   6.140   8.367  0.6226  0.2642 -0.7158
52898SOL    HW167472   2.938   6.166   8.360  1.5593 -2.6419 -0.8958
52898SOL    HW267473   2.844   6.051   8.332 -2.3912  0.4093 -1.1747
52899SOL     OW67474  10.713  10.493   0.109  0.1747 -0.2261  0.0881
52899SOL    HW167475  10.761  10.420   0.149 -0.3435 -0.5450  0.1372
52899SOL    HW267476  10.716  10.476   0.015  0.7253  0.1122  0.0368
52900SOL     OW67477   0.395   1.172   9.594  0.5250  0.3020  0.0152
52900SOL    HW167478   0.362   1.083   9.599 -0.6446  0.5443 -2.1455
52900SOL    HW267479   0.478   1.165   9.548  1.8741  0.0844  2.3381
52901SOL     OW67480   2.374   4.043  11.309 -0.3703 -0.0198 -0.1145
52901SOL    HW167481   2.461   4.064  11.344 -0.3647  0.1271 -0.2139
52901SOL    HW267482   2.382   3.953  11.277 -1.1271 -1.2077  2.7046
52902SOL     OW67483   1.995   8.499   7.164 -0.6631  0.5782 -0.1692
52902SOL    HW167484   1.955   8.553   7.232  0.7085  2.3046 -0.6420
52902SOL    HW267485   1.942   8.517   7.086 -0.0727  1.4780 -0.3803
52903SOL     OW67486   9.278   6.001   3.512 -0.5538  0.6150 -0.2250
52903SOL    HW167487   9.217   6.026   3.443  1.1201  0.8225 -1.6972
52903SOL    HW267488   9.298   6.083   3.557 -0.0738  0.8431 -0.8414
52904SOL     OW67489   3.319   2.106   0.894 -0.0025 -0.1880  0.5548
52904SOL    HW167490   3.385   2.094   0.826 -0.6809 -1.2874  0.0682
52904SOL    HW267491   3.358   2.067   0.972  1.4377  2.4639  1.2798
52905SOL     OW67492   5.656   5.034   9.708  0.2406  0.0298 -0.1421
52905SOL    HW167493   5.676   5.022   9.801  0.3802  2.5430  0.2256
52905SOL    HW267494   5.562   5.052   9.706 -0.2421 -2.2356 -0.8039
52906SOL     OW67495   6.508   4.844   6.395  0.2857  0.3692 -0.4096
52906SOL    HW167496   6.578   4.825   6.458 -0.1379 -0.4501 -0.1608
52906SOL    HW267497   6.434   4.791   6.426 -0.5009  1.3545 -0.5624
52907SOL     OW67498   9.489  10.841  10.913  0.2558 -0.0970  0.8701
52907SOL    HW167499   9.485  10.748  10.932  2.2500 -0.2531  0.7455
52907SOL    HW267500   9.523  10.880  10.994  2.5367  0.0687 -0.0950
52908SOL     OW67501   6.736   2.641   7.375 -0.0103 -0.2435 -0.4998
52908SOL    HW167502   6.754   2.641   7.281  2.5378 -2.6666 -0.1360
52908SOL    HW267503   6.805   2.695   7.413 -0.5849  0.1109  0.0605
52909SOL     OW67504  11.157   8.749  12.063  0.5993  0.0575 -0.1389
52909SOL    HW167505  11.236   8.788  12.026  0.3762  0.5917 -0.0668
52909SOL    HW267506  11.149   8.789  12.149  0.8303 -0.7931  0.2854
52910SOL     OW67507   7.846  10.151   0.013  0.1188  0.1650 -0.1948
52910SOL    HW167508   7.797  10.082  -0.031 -0.1909  0.2262  0.0422
52910SOL    HW267509   7.887  10.107   0.088 -0.0544  0.2308 -0.0609
52911SOL     OW67510   3.028   6.563   4.876 -0.6637 -0.0101 -0.2824
52911SOL    HW167511   2.965   6.635   4.874  1.5180  2.0258  0.0820
52911SOL    HW267512   3.006   6.514   4.955 -2.4062  0.0067 -0.7284
52912SOL     OW67513   3.010   5.398   3.747  0.2019 -0.4123  0.1171
52912SOL    HW167514   2.939   5.340   3.721  0.4178 -0.2634 -0.8330
52912SOL    HW267515   3.067   5.343   3.801 -1.1187 -0.2775  1.7628
52913SOL     OW67516   4.560   7.109   8.445 -0.0964  0.1222 -0.0582
52913SOL    HW167517   4.606   7.025   8.452 -1.6672 -0.7312  0.3475
52913SOL    HW267518   4.534   7.130   8.534 -0.4108  0.6607 -0.2706
52914SOL     OW67519   4.736  12.184  10.474 -0.0070  1.0100 -0.2412
52914SOL    HW167520   4.804  12.135  10.428 -0.7115 -0.1057 -0.1378
52914SOL    HW267521   4.738  12.271  10.434  1.0908  0.8263 -0.6203
52915SOL     OW67522   2.952   6.183  12.320  0.4281  0.1916 -0.0892
52915SOL    HW167523   2.903   6.232  12.254 -0.1740 -1.2513 -0.7591
52915SOL    HW267524   2.972   6.100  12.277  1.4330 -0.1527  1.0083
52916SOL     OW67525   5.788   0.698   7.147 -0.2648 -0.2543 -0.0424
52916SOL    HW167526   5.717   0.635   7.158 -0.2717 -0.1526  0.5140
52916SOL    HW267527   5.756   0.778   7.189 -1.7445  1.3197 -3.7374
52917SOL     OW67528  10.821   4.933   4.876 -0.3054  0.4532 -0.2264
52917SOL    HW167529  10.900   4.981   4.852 -0.2535 -0.2824 -1.6830
52917SOL    HW267530  10.750   4.995   4.862 -0.1532  0.4515 -1.0883
52918SOL     OW67531   3.755   4.037   3.741  0.2590  0.6126 -0.3671
52918SOL    HW167532   3.849   4.054   3.729  0.1499  0.8947 -0.8462
52918SOL    HW267533   3.716   4.124   3.750  0.0060  0.5119 -0.4793
52919SOL     OW67534   7.620   8.580   2.068 -0.0257 -0.5483 -0.1818
52919SOL    HW167535   7.584   8.499   2.103 -0.5585 -0.9222 -1.5073
52919SOL    HW267536   7.618   8.568   1.973 -0.5379  1.1849 -0.4322
52920SOL     OW67537   1.242   1.743  11.269 -0.3649 -0.3346  0.1493
52920SOL    HW167538   1.205   1.657  11.291  1.5190 -1.5800 -1.2009
52920SOL    HW267539   1.193   1.772  11.193 -1.8134  0.4066  1.3169
52921SOL     OW67540   8.820   4.980  12.050 -0.0444 -0.1022  0.6861
52921SOL    HW167541   8.898   5.016  12.007 -0.2921 -0.6790 -0.2636
52921SOL    HW267542   8.747   5.016  12.000 -0.3676 -0.0179  1.2209
52922SOL     OW67543  11.419   6.207  10.239 -0.0136 -0.1392  0.5197
52922SOL    HW167544  11.467   6.133  10.276  0.2729 -1.2698 -1.9199
52922SOL    HW267545  11.480   6.248  10.178 -0.8425  0.8572  0.3209
52923SOL     OW67546   1.683   8.173   1.393 -0.6319  0.2029 -0.3803
52923SOL    HW167547   1.612   8.222   1.436 -0.0182 -0.0818  1.0053
52923SOL    HW267548   1.661   8.081   1.408 -0.8985  0.0637 -1.5263
52924SOL     OW67549   8.276   1.336  10.016  0.6280 -0.1068  0.1818
52924SOL    HW167550   8.326   1.255  10.014  0.4350 -0.2759  1.4865
52924SOL    HW267551   8.322   1.392  10.079  1.4259  1.2690 -1.5351
52925SOL     OW67552   0.042   8.549   7.991  0.2760  0.0172 -0.2860
52925SOL    HW167553   0.125   8.582   8.025  0.9205 -1.0636 -0.7673
52925SOL    HW267554   0.058   8.457   7.973 -1.2293 -0.3646  0.2092
52926SOL     OW67555   5.689   8.398   8.244 -0.1211  0.0009  0.1901
52926SOL    HW167556   5.689   8.360   8.332  1.2897  2.5649  1.4236
52926SOL    HW267557   5.726   8.486   8.256  0.1155  0.4582 -2.9807
52927SOL     OW67558   1.183   5.382   0.282 -0.7012 -0.1939  0.2685
52927SOL    HW167559   1.276   5.364   0.269 -0.6362  0.4647 -0.2501
52927SOL    HW267560   1.141   5.296   0.281 -0.0548 -0.5261  0.9140
52928SOL     OW67561   4.017   4.334   4.670 -0.2213 -0.7879  0.3644
52928SOL    HW167562   4.014   4.312   4.577  0.7214  0.8591 -0.0910
52928SOL    HW267563   3.970   4.417   4.677  4.7493  2.4884  0.1921
52929SOL     OW67564   1.461   2.750   3.165  0.1147  0.0884 -0.1164
52929SOL    HW167565   1.549   2.762   3.202 -0.6289  2.4814  1.1106
52929SOL    HW267566   1.471   2.773   3.073  1.0258 -1.0441 -0.3255
52930SOL     OW67567   6.033   3.846   0.330  0.1146  1.0798  1.1121
52930SOL    HW167568   5.943   3.845   0.363 -0.1646  1.5765  0.3762
52930SOL    HW267569   6.086   3.861   0.408 -0.2744 -1.1592  1.8739
52931SOL     OW67570   3.075   4.460   9.955 -0.0267  0.0769  0.1685
52931SOL    HW167571   3.051   4.378   9.999  0.5326 -0.1759  0.0125
52931SOL    HW267572   3.127   4.433   9.880  0.5144  0.5919  0.3489
52932SOL     OW67573   6.576  11.436   0.131 -0.3116 -0.2844 -0.0668
52932SOL    HW167574   6.634  11.451   0.056 -0.9305  0.0893 -0.4754
52932SOL    HW267575   6.587  11.514   0.186 -0.1201 -0.4029  0.0667
52933SOL     OW67576   5.322   2.267   4.511  0.1107 -0.7265 -0.0302
52933SOL    HW167577   5.284   2.179   4.515 -0.8646 -0.3289 -0.2549
52933SOL    HW267578   5.309   2.294   4.420 -1.4477  0.4355  0.5092
52934SOL     OW67579   1.252   4.313   3.346  0.0029 -0.2028  0.2974
52934SOL    HW167580   1.255   4.264   3.264  3.4547 -0.4592  0.4439
52934SOL    HW267581   1.240   4.404   3.320 -0.6181 -0.4514 -0.3325
52935SOL     OW67582   0.038   4.539  10.198  0.0353 -0.9167  0.4088
52935SOL    HW167583   0.031   4.599  10.273  1.5367 -0.1241 -0.0532
52935SOL    HW267584  -0.052   4.532  10.165 -0.8052 -1.8601  2.6801
52936SOL     OW67585   4.784   9.893   6.511 -0.2466  0.7334  0.2413
52936SOL    HW167586   4.851   9.858   6.569  1.5337  2.1928 -0.8283
52936SOL    HW267587   4.762   9.979   6.548 -1.8739  0.1416  0.7831
52937SOL     OW67588   4.566  10.060  10.301  0.1769 -0.3938  0.5375
52937SOL    HW167589   4.483  10.029  10.336  0.0857  1.4207  2.0775
52937SOL    HW267590   4.608  10.106  10.374  2.0190 -0.2719 -0.5222
52938SOL     OW67591  10.431   5.874   0.474  0.3336  0.4351  0.5587
52938SOL    HW167592  10.525   5.885   0.483  0.5366  0.9728 -1.5390
52938SOL    HW267593  10.415   5.781   0.488  0.8552  0.6428  2.8812
52939SOL     OW67594   8.583   3.087  10.363 -0.5527 -0.5916 -0.3544
52939SOL    HW167595   8.496   3.127  10.366  0.3516  1.6219 -1.3472
52939SOL    HW267596   8.567   2.993  10.375 -2.7784  0.0059  2.3061
52940SOL     OW67597   1.879   4.409   1.101 -0.2474  0.1335  0.1415
52940SOL    HW167598   1.927   4.492   1.106 -0.0379 -0.0106  0.5978
52940SOL    HW267599   1.875   4.389   1.007  2.3787 -0.8700  0.1528
52941SOL     OW67600   0.245   4.069   8.528  0.1258 -0.7145 -0.3967
52941SOL    HW167601   0.162   4.102   8.493  0.6150  2.0532  0.7793
52941SOL    HW267602   0.306   4.074   8.455 -0.4420 -1.6440 -0.9525
52942SOL     OW67603   5.570   9.645   2.854  0.1105  0.2326  0.0510
52942SOL    HW167604   5.509   9.644   2.780  0.1133  0.0319  0.0488
52942SOL    HW267605   5.596   9.736   2.863 -2.8504  1.0160  2.2168
52943SOL     OW67606   5.750   5.415  12.443  0.2456  0.0164 -0.2406
52943SOL    HW167607   5.691   5.339  12.441  1.9221 -1.3278 -0.9090
52943SOL    HW267608   5.838   5.378  12.438  1.2923  1.8610  2.0523
52944SOL     OW67609   3.038   3.106   6.205  1.1338  0.1218  0.5115
52944SOL    HW167610   3.103   3.050   6.162 -0.1057  0.8389 -2.5617
52944SOL    HW267611   3.063   3.195   6.179 -0.7148  0.4362 -0.3165
52945SOL     OW67612   4.878   5.633  11.700  0.1815 -0.3466  0.4746
52945SOL    HW167613   4.964   5.647  11.740  0.3566 -0.9537  0.3238
52945SOL    HW267614   4.844   5.721  11.683  0.9106 -0.1092  0.2432
52946SOL     OW67615  12.474   9.647   8.406  0.2201  0.2506 -0.5455
52946SOL    HW167616  12.476   9.556   8.436  1.9320  0.0035 -1.2649
52946SOL    HW267617  12.471   9.698   8.486 -1.0319 -0.4140 -0.1336
52947SOL     OW67618   6.421   1.029   6.224  0.4434 -0.2411  0.5372
52947SOL    HW167619   6.496   1.058   6.275 -0.1228  0.7648  0.8218
52947SOL    HW267620   6.348   1.080   6.257 -0.1368 -0.3172 -0.5759
52948SOL     OW67621   8.604  11.730  10.546 -0.1245 -0.2391  0.0698
52948SOL    HW167622   8.517  11.690  10.543 -0.4572  0.5019 -0.5053
52948SOL    HW267623   8.645  11.693  10.624 -1.7945  1.1029  1.6688
52949SOL     OW67624   5.131   3.506  10.368 -0.2882 -0.1400 -0.3657
52949SOL    HW167625   5.050   3.556  10.374 -1.0908 -0.8508 -3.6716
52949SOL    HW267626   5.120   3.434  10.431 -1.6311  0.5078  0.1703
52950SOL     OW67627   3.809   2.471  10.342 -0.2980  0.4232 -0.0425
52950SOL    HW167628   3.901   2.465  10.315 -0.1403 -0.7533  0.6696
52950SOL    HW267629   3.808   2.536  10.411 -0.0795  0.7833 -0.3752
52951SOL     OW67630   8.522   7.860  12.224  0.0791  0.3795  0.1022
52951SOL    HW167631   8.475   7.852  12.307  0.2725  1.1439  0.2931
52951SOL    HW267632   8.470   7.810  12.162 -0.6867  0.7484  0.4361
52952SOL     OW67633   6.889   7.475   7.754  0.0857  0.3477  0.4285
52952SOL    HW167634   6.937   7.558   7.762 -0.6251  1.0558 -1.9512
52952SOL    HW267635   6.811   7.497   7.703 -0.0705 -1.8134 -0.3631
52953SOL     OW67636   9.288   0.211   7.252 -0.3489 -0.3952 -0.0419
52953SOL    HW167637   9.217   0.153   7.224  0.7063 -1.7572  0.0008
52953SOL    HW267638   9.262   0.298   7.220 -3.2949 -0.2938  2.2363
52954SOL     OW67639   7.510   4.781   0.675 -0.3085  0.5725  0.4864
52954SOL    HW167640   7.590   4.830   0.656  0.1628 -0.3422  0.0443
52954SOL    HW267641   7.446   4.849   0.696  0.7568  1.3026  1.5932
52955SOL     OW67642   8.608   8.839   0.941 -0.1937 -0.1139 -0.4112
52955SOL    HW167643   8.634   8.897   1.012 -0.8716  1.2933 -1.2850
52955SOL    HW267644   8.513   8.838   0.943 -0.2081 -0.5790 -0.9013
52956SOL     OW67645   5.728  10.552  10.420  0.1334 -0.1128 -0.3465
52956SOL    HW167646   5.634  10.561  10.407  0.3839 -0.5255 -3.2774
52956SOL    HW267647   5.739  10.467  10.463 -0.8186 -0.0027  0.1271
52957SOL     OW67648  10.192  12.255  10.176 -0.1245  0.0013  0.1196
52957SOL    HW167649  10.237  12.325  10.127  0.8476  0.9978  2.3088
52957SOL    HW267650  10.145  12.206  10.109  1.1136  1.2917 -1.8076
52958SOL     OW67651  11.324   9.522   4.217  0.0204  0.1217  0.3138
52958SOL    HW167652  11.372   9.578   4.155 -0.9025  0.1206 -0.4279
52958SOL    HW267653  11.355   9.549   4.303 -0.3271  1.7329 -0.0278
52959SOL     OW67654   9.436   9.808  10.877  0.5358 -0.0608 -0.0528
52959SOL    HW167655   9.443   9.830  10.784 -0.4371 -1.5584 -0.5109
52959SOL    HW267656   9.523   9.774  10.900  1.1878  1.5143 -0.0438
52960SOL     OW67657   4.687   5.546   2.101  0.3460 -0.1922  0.3022
52960SOL    HW167658   4.643   5.603   2.038  1.3713 -0.0815 -0.3450
52960SOL    HW267659   4.757   5.504   2.050  0.1757 -1.3503  0.9748
52961SOL     OW67660   8.451   8.778   3.156  0.3464  0.5036  0.4775
52961SOL    HW167661   8.474   8.686   3.142 -3.3427 -0.8986  2.3810
52961SOL    HW267662   8.520   8.812   3.212  1.9724 -0.9572 -0.5364
52962SOL     OW67663   7.731   7.270   8.885  0.3219 -0.0120 -0.1735
52962SOL    HW167664   7.671   7.258   8.959 -0.4574 -0.9841 -0.9445
52962SOL    HW267665   7.675   7.263   8.808  0.9051  2.2066 -0.8812
52963SOL     OW67666   1.143   6.219   9.899 -0.7202  0.1776  0.0996
52963SOL    HW167667   1.168   6.191   9.988  0.9066  2.1459  0.3308
52963SOL    HW267668   1.205   6.172   9.842 -0.7643  0.0839  0.1282
52964SOL     OW67669   0.298   3.960  11.647  0.2474  0.2972 -0.0802
52964SOL    HW167670   0.250   4.043  11.651  0.2329  0.3216 -0.6255
52964SOL    HW267671   0.230   3.893  11.651  0.3685  0.2283  2.5193
52965SOL     OW67672   2.399   8.473   1.682  0.0346  0.4570 -0.1248
52965SOL    HW167673   2.377   8.555   1.637  0.9945  1.9566  1.9510
52965SOL    HW267674   2.396   8.406   1.614  1.7034  2.5977 -2.4858
52966SOL     OW67675   7.364   5.089  11.028 -0.3326  0.4024  0.3639
52966SOL    HW167676   7.371   4.993  11.032  1.7029  0.4378 -0.7678
52966SOL    HW267677   7.435   5.120  11.084  0.4340  1.1771 -0.9751
52967SOL     OW67678  12.284   9.482   5.131  0.1520 -0.1042  0.5118
52967SOL    HW167679  12.352   9.523   5.184 -0.5241  0.0155  1.3132
52967SOL    HW267680  12.317   9.394   5.114  1.7533  0.8052 -1.4784
52968SOL     OW67681   6.282   2.686  11.089 -0.3656  0.2075 -0.6088
52968SOL    HW167682   6.254   2.733  11.167  1.1860  0.8768 -0.4274
52968SOL    HW267683   6.309   2.755  11.028  0.3089 -0.3748 -0.9852
52969SOL     OW67684   1.334   5.246  10.706 -0.1648 -0.4479  0.2183
52969SOL    HW167685   1.252   5.209  10.674 -0.5643  0.8800 -0.3673
52969SOL    HW267686   1.379   5.276  10.627  0.2753  0.0114  0.6392
52970SOL     OW67687   3.295   0.298   4.981  0.0524 -0.7503 -0.1687
52970SOL    HW167688   3.210   0.336   4.960  0.2267 -0.4931 -0.4051
52970SOL    HW267689   3.341   0.295   4.898 -0.3236 -2.4088 -0.3507
52971SOL     OW67690   3.350  10.439   0.609  0.1927  0.7046 -0.3318
52971SOL    HW167691   3.368  10.394   0.527 -1.5504  0.7090 -0.7466
52971SOL    HW267692   3.332  10.368   0.672 -0.2534  0.7594 -0.4000
52972SOL     OW67693   5.856   3.276   8.497  0.0404  0.2177  0.4857
52972SOL    HW167694   5.835   3.352   8.551 -1.2373  0.9004 -0.9049
52972SOL    HW267695   5.772   3.251   8.458  0.7550 -0.8615 -0.4141
52973SOL     OW67696   9.351   3.990   3.870  0.0616 -0.3348 -0.3098
52973SOL    HW167697   9.366   3.912   3.817  2.0377 -0.1206 -0.1130
52973SOL    HW267698   9.340   4.061   3.807  3.6354  0.1509 -0.5603
52974SOL     OW67699   3.907   5.042   5.862  0.1765 -0.0978  0.1434
52974SOL    HW167700   3.851   4.964   5.852 -0.0946 -0.0726  1.3696
52974SOL    HW267701   3.846   5.115   5.870  0.4341  0.3567 -1.6194
52975SOL     OW67702   3.491   2.160   8.634  0.7941  0.4433 -0.0288
52975SOL    HW167703   3.463   2.174   8.543  1.9666 -0.4409 -0.5540
52975SOL    HW267704   3.500   2.065   8.642  2.8344  0.6254  0.3144
52976SOL     OW67705   7.237   0.094   8.037  0.0731  0.2492  0.3453
52976SOL    HW167706   7.214   0.118   8.127  2.8595  0.7024  1.0237
52976SOL    HW267707   7.226   0.175   7.987  1.0376  0.7111  0.8487
52977SOL     OW67708  12.036   8.143   0.956  0.4725 -0.6386 -0.2658
52977SOL    HW167709  12.043   8.215   1.019 -1.8737 -1.0169  0.5167
52977SOL    HW267710  12.078   8.177   0.877  0.2238  1.2535  0.3483
52978SOL     OW67711  11.455  10.731   9.299 -0.0173  0.0644 -0.2439
52978SOL    HW167712  11.502  10.812   9.277 -0.4441  0.2948 -0.3141
52978SOL    HW267713  11.515  10.685   9.358  1.4676 -0.8989 -2.3672
52979SOL     OW67714  10.976   0.685   8.620  0.6222  0.9741 -0.5555
52979SOL    HW167715  10.960   0.731   8.703  1.7723  0.1000  0.1777
52979SOL    HW267716  10.960   0.593   8.640  2.1384  0.5986 -0.9502
52980SOL     OW67717   9.937   2.343  10.646 -0.7103  0.4735  0.3325
52980SOL    HW167718   9.903   2.333  10.557 -2.4659  0.2417  0.9924
52980SOL    HW267719   9.976   2.431  10.647  1.6387 -0.4557 -1.3389
52981SOL     OW67720   3.188   0.223   2.969  0.0213  0.4072 -0.0386
52981SOL    HW167721   3.171   0.222   2.875  0.1495  1.3639 -0.0918
52981SOL    HW267722   3.116   0.173   3.007  0.4969 -0.8202 -0.7082
52982SOL     OW67723   5.329   6.352  12.229  0.4893 -0.6691 -0.1714
52982SOL    HW167724   5.309   6.377  12.320  0.4511  0.1906 -0.4105
52982SOL    HW267725   5.370   6.266  12.237  0.7739 -0.4664  0.6897
52983SOL     OW67726   5.965  12.120   1.859  0.0579  0.3530  0.2300
52983SOL    HW167727   6.031  12.112   1.927 -1.0308 -0.3450  1.2358
52983SOL    HW267728   5.890  12.161   1.903 -0.0240  1.6174 -1.0086
52984SOL     OW67729   7.706   4.475   8.588  0.6429  0.2036  0.6093
52984SOL    HW167730   7.721   4.398   8.533  0.5064  0.1949  0.5837
52984SOL    HW267731   7.614   4.497   8.574  0.9627  1.0382 -0.2237
52985SOL     OW67732   4.393   7.665   0.124  0.3935 -0.7332  0.4266
52985SOL    HW167733   4.378   7.594   0.186  1.0459 -0.8984  0.4012
52985SOL    HW267734   4.470   7.710   0.157 -0.5361  0.5503  0.9701
52986SOL     OW67735   5.939   9.708   9.705  0.5674  0.7515 -0.2993
52986SOL    HW167736   5.890   9.652   9.766 -0.2160  1.7477  0.0176
52986SOL    HW267737   5.979   9.774   9.761  1.1062  0.7871 -0.7202
52987SOL     OW67738  11.363   0.032   1.636  0.5472  0.1788  0.0627
52987SOL    HW167739  11.355   0.105   1.698 -0.4815 -0.0800  0.2414
52987SOL    HW267740  11.450  -0.004   1.654  0.7675  0.8883  0.4876
52988SOL     OW67741  10.263   5.242   3.208  0.1724 -0.4571 -0.0308
52988SOL    HW167742  10.327   5.313   3.205 -0.5768  0.2280 -2.7926
52988SOL    HW267743  10.179   5.286   3.219 -0.3384 -0.7829 -2.1385
52989SOL     OW67744   3.835   9.684   8.517 -0.1719 -0.3566  0.4190
52989SOL    HW167745   3.840   9.670   8.422  0.8599  0.0738  0.3957
52989SOL    HW267746   3.801   9.772   8.526  2.7693  0.9262  0.3280
52990SOL     OW67747  11.540   3.079   2.630  0.1195  0.6211  0.0822
52990SOL    HW167748  11.587   3.056   2.550 -0.7418 -0.1121 -0.2291
52990SOL    HW267749  11.608   3.082   2.698  1.1460  3.0017 -0.9632
52991SOL     OW67750   1.936  10.701   0.990  0.7315 -0.1633  0.3500
52991SOL    HW167751   2.006  10.680   1.052  0.9259  0.6234  0.3999
52991SOL    HW267752   1.981  10.717   0.907  0.6115  0.3719  0.3893
52992SOL     OW67753   0.473  11.587  12.197  0.2377 -0.5118  0.3303
52992SOL    HW167754   0.451  11.579  12.104  0.6545 -1.5878  0.3096
52992SOL    HW267755   0.421  11.518  12.240  0.3416 -0.2780  0.8395
52993SOL     OW67756   7.207   4.910   7.448 -0.0388  0.3291  0.6903
52993SOL    HW167757   7.265   4.875   7.515  0.0605 -0.0993  0.3848
52993SOL    HW267758   7.158   4.978   7.492  0.8506  0.8537  0.9012
52994SOL     OW67759   6.964   2.927   8.088  0.5147 -0.1858 -0.3967
52994SOL    HW167760   7.016   2.988   8.035 -0.2818  0.0734 -0.9039
52994SOL    HW267761   6.945   2.854   8.030 -0.4291  0.1350 -0.5209
52995SOL     OW67762   8.737   5.260   1.630  0.4499 -0.2701 -0.2721
52995SOL    HW167763   8.805   5.321   1.657  0.5270  0.6499 -2.3520
52995SOL    HW267764   8.682   5.248   1.708  2.8406 -0.9028  1.4130
52996SOL     OW67765   5.920   2.265   6.372  0.6027  0.3240 -0.2784
52996SOL    HW167766   5.975   2.187   6.378  0.1922  0.0480 -0.0600
52996SOL    HW267767   5.847   2.247   6.431 -0.4147  0.0990 -1.5578
52997SOL     OW67768   7.138   1.255   8.752 -0.3298 -0.3951  0.1491
52997SOL    HW167769   7.173   1.170   8.775  1.0432  0.4221  1.2390
52997SOL    HW267770   7.147   1.260   8.656  0.2760 -1.1586  0.1646
52998SOL     OW67771   7.199  12.509   7.491  0.4916 -0.4176  0.3387
52998SOL    HW167772   7.144  12.484   7.565 -1.5652 -1.7344 -1.5077
52998SOL    HW267773   7.164  12.594   7.463  1.3572  0.1460  0.9141
52999SOL     OW67774   2.158  10.599   9.663 -0.0590  0.5953  0.0020
52999SOL    HW167775   2.144  10.505   9.665  5.4583 -0.5699 -0.3746
52999SOL    HW267776   2.186  10.621   9.752 -1.7253  2.0757  0.2214
53000SOL     OW67777  12.084   2.830   9.418  0.1365 -0.0478 -0.0691
53000SOL    HW167778  12.125   2.913   9.441  0.6064 -0.1690 -0.4389
53000SOL    HW267779  12.155   2.779   9.378 -0.1154 -0.6661  0.2473
53001SOL     OW67780   7.514   9.652  11.729 -0.4741  0.5724 -0.0596
53001SOL    HW167781   7.539   9.743  11.716  0.1495  0.7278  1.9018
53001SOL    HW267782   7.429   9.656  11.772 -0.3902  0.2418  0.1466
53002SOL     OW67783   8.657  11.597  10.319 -0.4902  0.1041  0.3729
53002SOL    HW167784   8.639  11.656  10.392 -0.4082  1.8869 -0.9784
53002SOL    HW267785   8.720  11.645  10.265 -0.1086 -1.4135 -0.5869
53003SOL     OW67786   1.527  12.486  11.844  0.3220  0.0249 -0.6775
53003SOL    HW167787   1.434  12.480  11.824  0.3091  1.7663 -1.3158
53003SOL    HW267788   1.542  12.578  11.864  1.6755 -0.4453  0.6873
53004SOL     OW67789   1.878   6.688   8.175 -0.1601  0.5079 -0.1643
53004SOL    HW167790   1.907   6.603   8.208 -1.3462  0.1534  0.0186
53004SOL    HW267791   1.956   6.726   8.134  0.5700 -0.3459  0.3983
53005SOL     OW67792   4.424   6.585   6.286  0.1799  0.0184 -0.6037
53005SOL    HW167793   4.517   6.567   6.270  0.2351  0.8952 -1.4248
53005SOL    HW267794   4.421   6.679   6.302 -0.3256 -0.3178  1.4959
53006SOL     OW67795   2.192   9.836   7.002  0.0892 -0.3459 -0.1393
53006SOL    HW167796   2.286   9.852   7.004  0.0252  0.1322 -0.6968
53006SOL    HW267797   2.180   9.757   7.055  0.5880  0.6502  1.5217
53007SOL     OW67798   8.227   0.166  11.681  0.1017  0.2090  0.5022
53007SOL    HW167799   8.257   0.226  11.749  2.7149 -1.5503  1.0665
53007SOL    HW267800   8.202   0.086  11.728 -1.5014  0.1502 -0.3755
53008SOL     OW67801   0.521   3.188   9.561  0.1826  0.0842 -0.7281
53008SOL    HW167802   0.612   3.157   9.564  0.2852  0.3369 -1.0770
53008SOL    HW267803   0.482   3.155   9.641 -0.3462 -2.8268 -2.0532
53009SOL     OW67804   1.358   2.047   4.157 -0.2337  0.5540 -0.3134
53009SOL    HW167805   1.409   2.016   4.231  1.5696 -0.5185 -1.9060
53009SOL    HW267806   1.379   2.140   4.149  1.4134  0.1612 -0.8488
53010SOL     OW67807   2.290  12.282   7.404  0.2029 -0.0917  0.2643
53010SOL    HW167808   2.256  12.364   7.368  0.2215 -0.3055 -0.2433
53010SOL    HW267809   2.280  12.292   7.499  1.2524  0.9525  0.2855
53011SOL     OW67810   5.528   6.354   9.833  0.9270 -0.0777 -0.4396
53011SOL    HW167811   5.447   6.354   9.883 -1.5708  0.8607 -4.0467
53011SOL    HW267812   5.542   6.261   9.810  0.2839 -0.1420 -0.5901
53012SOL     OW67813   5.586   3.334   5.111  0.4412  0.0795  0.1491
53012SOL    HW167814   5.528   3.370   5.178 -2.7881  1.1146 -2.8630
53012SOL    HW267815   5.673   3.366   5.134 -0.1165 -1.0801  4.6504
53013SOL     OW67816   5.540   0.312  12.209 -0.5099 -0.3524  0.1093
53013SOL    HW167817   5.621   0.306  12.158 -0.0063 -1.2848  0.9761
53013SOL    HW267818   5.565   0.280  12.296 -1.2734  1.5089  1.0483
53014SOL     OW67819  11.946   3.896   6.388 -0.3009  0.8550 -0.3148
53014SOL    HW167820  11.885   3.846   6.334 -1.1152 -0.1947  1.4620
53014SOL    HW267821  11.910   3.985   6.387  0.1098  1.0306 -2.0215
53015SOL     OW67822  11.448   8.259   3.538  0.6495  0.2156 -0.5664
53015SOL    HW167823  11.473   8.168   3.522  1.1383  0.6172 -2.2008
53015SOL    HW267824  11.529   8.302   3.566  0.3642  0.1139  0.4682
53016SOL     OW67825   5.392  12.357   9.973 -0.0681 -0.0103  0.1008
53016SOL    HW167826   5.376  12.264   9.960 -2.5059  0.4072 -0.2808
53016SOL    HW267827   5.351  12.378  10.056  0.9239  0.6415  0.4465
53017SOL     OW67828   2.399   6.073   3.819  0.3895  0.4761 -0.4178
53017SOL    HW167829   2.442   6.098   3.737 -1.9345  1.2871 -1.4759
53017SOL    HW267830   2.335   6.142   3.834  0.4571  0.1151  1.8939
53018SOL     OW67831   1.577  11.510   0.294 -0.0245  0.2572  0.1524
53018SOL    HW167832   1.584  11.585   0.353 -0.6058  1.7001 -1.5145
53018SOL    HW267833   1.609  11.436   0.345 -0.3351  1.4532  2.1922
53019SOL     OW67834   7.578   0.090   4.843  0.2790 -0.4539 -0.0373
53019SOL    HW167835   7.565   0.034   4.767  0.7616 -1.6638  0.7436
53019SOL    HW267836   7.521   0.166   4.827 -1.2780 -1.6841 -0.5819
53020SOL     OW67837   0.534   8.875   3.591 -0.1309 -0.1501 -0.0254
53020SOL    HW167838   0.441   8.871   3.613  0.1008  0.2991  1.0631
53020SOL    HW267839   0.576   8.820   3.656  0.4087 -0.0967 -0.3238
53021SOL     OW67840   9.436   2.072   6.442 -0.0330 -0.5747  0.4074
53021SOL    HW167841   9.373   2.045   6.508 -0.2694 -0.7428  0.1171
53021SOL    HW267842   9.383   2.114   6.374  0.3713  1.0813  1.0740
53022SOL     OW67843   1.488   8.777  12.040 -0.3006  0.0484 -0.5052
53022SOL    HW167844   1.455   8.732  12.118 -0.0307 -0.5911 -0.7584
53022SOL    HW267845   1.574   8.810  12.067  0.7889 -2.0593 -1.1686
53023SOL     OW67846  12.101   3.440   5.683 -0.4188  0.5748 -0.3360
53023SOL    HW167847  12.164   3.445   5.755 -1.0321  3.1543  0.1289
53023SOL    HW267848  12.022   3.403   5.724 -0.2365  0.4103 -0.1272
53024SOL     OW67849  10.694   4.079   9.462 -0.2416  0.6257  0.0411
53024SOL    HW167850  10.635   4.143   9.423  0.3584  1.4630  0.4727
53024SOL    HW267851  10.637   4.015   9.505 -0.8479  2.3238  1.9229
53025SOL     OW67852   5.764   5.994  11.238 -0.5779 -0.0805 -0.4337
53025SOL    HW167853   5.727   5.993  11.150 -1.9124 -0.8541  0.0909
53025SOL    HW267854   5.852   6.029  11.228 -1.7476  2.7404 -1.6626
53026SOL     OW67855   0.663   0.892   5.227  0.3691  0.3540  0.5234
53026SOL    HW167856   0.739   0.837   5.241 -0.4641 -0.8444  0.5400
53026SOL    HW267857   0.680   0.937   5.144  0.3312 -1.2522 -0.3800
53027SOL     OW67858   9.852   3.586   2.632  0.0055 -0.1390  0.5308
53027SOL    HW167859   9.899   3.525   2.576 -2.0611 -1.1062 -0.2356
53027SOL    HW267860   9.795   3.531   2.686 -1.8947  1.0604 -0.1591
53028SOL     OW67861   0.450   6.654   6.753  0.5563 -0.1525  0.2268
53028SOL    HW167862   0.367   6.630   6.712 -0.4686  0.8182  1.6090
53028SOL    HW267863   0.516   6.601   6.708 -0.7928 -0.8959 -0.9609
53029SOL     OW67864   2.258  10.157   1.083  0.1820 -0.1593 -0.0359
53029SOL    HW167865   2.183  10.102   1.106  0.2621  0.2030  1.2183
53029SOL    HW267866   2.306  10.107   1.018 -1.0803 -0.4569 -0.7777
53030SOL     OW67867   9.783   2.353   0.860  0.2846 -0.6732  0.4960
53030SOL    HW167868   9.705   2.408   0.869 -0.5741 -1.3730 -1.9266
53030SOL    HW267869   9.834   2.396   0.791  1.4365 -0.9065  1.1865
53031SOL     OW67870  11.281   4.616   1.494  0.1559  0.3173  0.0725
53031SOL    HW167871  11.375   4.616   1.475 -0.0908  0.1026 -1.2465
53031SOL    HW267872  11.253   4.526   1.477 -0.2297  0.2860  0.8318
53032SOL     OW67873   7.365  10.209   3.723  0.2821 -0.4208  0.4639
53032SOL    HW167874   7.319  10.256   3.654  0.7144 -0.4414  0.1526
53032SOL    HW267875   7.450  10.253   3.729 -0.1557  0.2925  1.7646
53033SOL     OW67876  10.436   6.784   1.346  0.6397 -0.6075 -0.4730
53033SOL    HW167877  10.507   6.726   1.374  1.5455  0.7402  0.1585
53033SOL    HW267878  10.431   6.773   1.251  1.7078 -0.7322 -0.5228
53034SOL     OW67879   7.026   6.438   1.486  0.0859 -0.0328  0.4308
53034SOL    HW167880   7.021   6.495   1.408  0.3249 -0.1347  0.3387
53034SOL    HW267881   7.118   6.410   1.488  0.6914  1.8182  2.0648
53035SOL     OW67882  10.463   3.697   7.453  0.4294 -0.3077 -0.0954
53035SOL    HW167883  10.492   3.704   7.543 -1.4553  2.4890  0.4098
53035SOL    HW267884  10.379   3.743   7.451  1.3774  1.6160 -3.6885
53036SOL     OW67885   0.377   5.439   4.739 -0.7283 -0.1091  0.3509
53036SOL    HW167886   0.297   5.436   4.687 -0.7063 -0.2634  0.3269
53036SOL    HW267887   0.428   5.363   4.710 -0.8051 -0.3080  0.7385
53037SOL     OW67888   5.272  10.440   3.365  0.0965  0.2302 -0.6557
53037SOL    HW167889   5.301  10.516   3.415  1.4157  0.1611 -1.2568
53037SOL    HW267890   5.353  10.391   3.347 -0.8852 -2.3369  1.3050
53038SOL     OW67891   3.100   1.644  11.088 -0.5362  0.4546  0.2841
53038SOL    HW167892   3.172   1.643  11.152  0.8512  1.6993 -1.1584
53038SOL    HW267893   3.142   1.625  11.005 -2.4789 -2.2835 -0.2094
53039SOL     OW67894  10.562   5.814   2.325  0.2410 -0.0179  0.1092
53039SOL    HW167895  10.572   5.832   2.419 -1.4176 -0.0494  0.3345
53039SOL    HW267896  10.523   5.893   2.290 -0.8539 -0.6602 -0.1809
53040SOL     OW67897   2.930   0.254  11.882 -0.0869 -0.0241  0.7814
53040SOL    HW167898   2.858   0.203  11.917 -1.4651  0.8471 -0.7046
53040SOL    HW267899   2.955   0.211  11.801  2.3580 -1.3837  2.1376
53041SOL     OW67900   8.873   3.245   1.322  0.0158 -0.1278 -0.0760
53041SOL    HW167901   8.883   3.334   1.356  0.3930  0.0353 -0.5901
53041SOL    HW267902   8.905   3.188   1.391  0.0879  0.1559  0.1249
53042SOL     OW67903   6.216   2.273   2.987  0.0322 -0.2324  0.2166
53042SOL    HW167904   6.124   2.256   3.007  1.0052 -2.7506  3.4263
53042SOL    HW267905   6.222   2.368   2.980 -3.0107 -0.0302 -1.8946
53043SOL     OW67906  10.128   5.128   6.378  0.1497  0.0523  0.6799
53043SOL    HW167907  10.148   5.217   6.347 -1.4167  0.4968  0.8305
53043SOL    HW267908  10.147   5.072   6.304  0.3289  0.6304  0.2784
53044SOL     OW67909   7.125   7.201   8.946 -0.2546 -0.2172  0.0654
53044SOL    HW167910   7.098   7.163   9.030 -0.1136 -1.3813 -0.3916
53044SOL    HW267911   7.176   7.131   8.904  0.6238  0.7514 -0.5117
53045SOL     OW67912   7.298   7.382   0.134 -0.2732 -0.1437 -0.7603
53045SOL    HW167913   7.235   7.404   0.066 -0.2071  2.1244 -0.1579
53045SOL    HW267914   7.243   7.356   0.209 -0.3825 -1.1453 -1.1737
53046SOL     OW67915   6.457   9.636   6.983 -0.4720  0.1612  0.3618
53046SOL    HW167916   6.443   9.621   6.890  0.8443 -1.6658  0.4052
53046SOL    HW267917   6.384   9.693   7.009 -1.4725 -0.1598 -1.5384
53047SOL     OW67918   6.596   8.352   4.566 -0.1561  0.5510 -0.0571
53047SOL    HW167919   6.667   8.288   4.565  0.1824  0.9223 -0.3920
53047SOL    HW267920   6.538   8.325   4.495  0.2813  0.9295 -0.5696
53048SOL     OW67921  12.064  10.352   1.375  0.0819  0.0171  0.3928
53048SOL    HW167922  11.998  10.417   1.400 -1.3066 -1.0459 -0.4095
53048SOL    HW267923  12.026  10.304   1.302  1.6763 -0.7668  0.0180
53049SOL     OW67924   9.914   7.008   8.921  0.3839  0.2129  0.1022
53049SOL    HW167925   9.881   6.919   8.932  0.3261  0.2376  0.1326
53049SOL    HW267926  10.000   6.997   8.879  1.2602  0.0424  1.8621
53050SOL     OW67927   7.051   3.966   4.680 -0.3946  0.0471 -0.1468
53050SOL    HW167928   6.994   4.037   4.712 -0.4963  0.4537 -1.1988
53050SOL    HW267929   6.992   3.893   4.666 -0.3281 -0.1832  0.7028
53051SOL     OW67930  10.365   3.410   0.054  0.3284 -0.3888  0.6050
53051SOL    HW167931  10.272   3.390   0.040  0.2571 -0.3303  0.9710
53051SOL    HW267932  10.401   3.329   0.091  0.5978 -0.6722 -0.2762
53052SOL     OW67933   4.212   8.192  10.370  0.2143  0.1921  0.6814
53052SOL    HW167934   4.180   8.161  10.285 -3.0676 -0.1138  1.8594
53052SOL    HW267935   4.238   8.283  10.354 -0.5815  0.2179 -0.6316
53053SOL     OW67936  12.509   7.536   4.304 -0.4074 -0.4500  0.2531
53053SOL    HW167937  12.436   7.475   4.297  0.0505 -1.3757  2.4909
53053SOL    HW267938  12.497   7.579   4.389  0.8442  0.4854 -0.0033
53054SOL     OW67939   3.792  12.108  11.402  0.0581 -0.4718 -0.1873
53054SOL    HW167940   3.869  12.068  11.361  0.6486 -0.9162  1.3142
53054SOL    HW267941   3.753  12.162  11.332  0.4518 -1.9730 -1.6219
53055SOL     OW67942   9.112   6.407   5.156  0.0141 -0.0933  0.3231
53055SOL    HW167943   9.197   6.367   5.175  0.9976  1.6447 -0.1914
53055SOL    HW267944   9.122   6.498   5.183 -2.2738 -0.1996  1.8717
53056SOL     OW67945   2.991   5.358   0.018  0.1122  0.4128  0.0353
53056SOL    HW167946   3.014   5.281  -0.034 -0.8515  0.3980 -0.4035
53056SOL    HW267947   3.073   5.387   0.057  0.6806 -0.1683 -0.7030
53057SOL     OW67948   5.211   2.531   7.823  0.4223 -0.2395  0.2092
53057SOL    HW167949   5.139   2.577   7.779  1.6462 -0.1890 -1.8645
53057SOL    HW267950   5.184   2.526   7.914 -1.5234  1.1146 -0.2331
53058SOL     OW67951   9.950   3.757   5.201  0.0622  0.3111  0.1658
53058SOL    HW167952   9.937   3.823   5.133 -0.0484  1.4407  1.2511
53058SOL    HW267953   9.967   3.808   5.280  1.2211 -0.9824  0.7816
53059SOL     OW67954  10.526   5.612   3.732  0.2448 -0.1980 -0.6624
53059SOL    HW167955  10.527   5.619   3.637 -1.6305  0.5324 -0.6819
53059SOL    HW267956  10.584   5.540   3.752 -1.2762 -2.0676 -2.5523
53060SOL     OW67957   9.756   6.288   2.110 -0.0249 -0.3655 -0.1347
53060SOL    HW167958   9.743   6.381   2.130  2.1513  0.0316 -0.2263
53060SOL    HW267959   9.778   6.248   2.194 -0.6561 -0.7366 -0.1450
53061SOL     OW67960  10.009   7.007  12.179  0.5988  0.1422 -0.1273
53061SOL    HW167961   9.949   7.046  12.115 -0.5376 -1.5921 -0.1915
53061SOL    HW267962   9.981   7.044  12.263  1.0236  1.1529 -0.4046
53062SOL     OW67963   4.048  10.303   9.365  0.4459  0.1998  0.6748
53062SOL    HW167964   4.053  10.395   9.389  0.6120  0.5252 -0.5428
53062SOL    HW267965   4.111  10.293   9.294 -1.6981 -0.1513 -1.2772
53063SOL     OW67966   4.572   9.681   8.198  0.2130  0.1296 -0.3498
53063SOL    HW167967   4.654   9.644   8.228  0.5130  0.6750 -0.4888
53063SOL    HW267968   4.527   9.707   8.278  0.0031 -0.5144 -0.2516
53064SOL     OW67969   6.874   7.822   1.249 -0.2746  0.2928  0.1060
53064SOL    HW167970   6.937   7.759   1.214 -0.6036 -0.8876  1.5293
53064SOL    HW267971   6.867   7.799   1.341 -2.2204  0.8899  0.1430
53065SOL     OW67972   9.034   0.173   9.960  0.8131  0.7052  0.6118
53065SOL    HW167973   9.097   0.133   9.901  0.3976  0.2132  0.4911
53065SOL    HW267974   8.958   0.192   9.905  0.9608  1.5730  0.6908
53066SOL     OW67975  10.502  11.897   1.581 -0.1580  0.0099  0.5460
53066SOL    HW167976  10.541  11.869   1.498 -0.4408 -0.3526  0.5336
53066SOL    HW267977  10.526  11.828   1.643  0.8481  0.7337  0.9947
53067SOL     OW67978   7.958   2.903   3.545 -0.2565  0.4936  0.1593
53067SOL    HW167979   8.003   2.820   3.556  1.0454  1.2581  0.8895
53067SOL    HW267980   7.935   2.906   3.452 -0.1500 -0.5880  0.0841
53068SOL     OW67981  12.301   0.055   6.404 -0.0372 -0.6875  0.7675
53068SOL    HW167982  12.391   0.052   6.369  0.2862  1.5211  1.2365
53068SOL    HW267983  12.247   0.016   6.335  1.1341 -0.8647 -0.0792
53069SOL     OW67984   8.954   6.924  12.327  0.4536  0.3727  0.2236
53069SOL    HW167985   9.032   6.890  12.285  0.4753 -0.1303  0.6651
53069SOL    HW267986   8.935   6.862  12.398  1.7373  2.3828  2.4547
53070SOL     OW67987   8.787   5.292   3.787 -0.4613 -0.3233  0.3655
53070SOL    HW167988   8.869   5.339   3.802 -1.8636  2.1865  0.7118
53070SOL    HW267989   8.810   5.223   3.724  1.6623  1.0664 -0.4971
53071SOL     OW67990   7.733   0.613   2.141 -0.7736  0.6856 -0.7080
53071SOL    HW167991   7.710   0.542   2.201 -0.4913  1.6514  0.5874
53071SOL    HW267992   7.660   0.674   2.147  0.5050  2.1661  0.8880
53072SOL     OW67993   8.280   5.302   9.800 -0.4340 -0.3737  0.1990
53072SOL    HW167994   8.187   5.299   9.780 -0.9211 -0.0916  2.2224
53072SOL    HW267995   8.300   5.214   9.834 -0.0630 -0.2938  0.1960
53073SOL     OW67996   8.309   7.198   5.272 -0.4956 -0.0793  0.0521
53073SOL    HW167997   8.239   7.134   5.256  1.3721 -2.1951 -0.0702
53073SOL    HW267998   8.335   7.184   5.363  0.9691 -0.6100 -0.4197
53074SOL     OW67999   9.474   4.970   7.621  0.4930 -0.5656  0.4140
53074SOL    HW168000   9.444   5.026   7.693 -1.6886  0.3429 -1.1161
53074SOL    HW268001   9.396   4.922   7.593  0.8990  0.1750 -2.2704
53075SOL     OW68002   4.034   1.675   3.048 -0.1524 -0.2560 -0.4054
53075SOL    HW168003   3.977   1.720   2.985 -1.5514 -1.5319 -0.1368
53075SOL    HW268004   4.122   1.688   3.015 -0.7083  0.6914 -1.5918
53076SOL     OW68005  11.992   6.268   9.495  0.0517  0.4590 -0.0920
53076SOL    HW168006  11.918   6.290   9.439 -0.6508  0.7966  0.9325
53076SOL    HW268007  12.005   6.346   9.549  1.4622  0.5736 -0.5616
53077SOL     OW68008   2.181   7.108   5.166  0.4404  0.2074 -0.6250
53077SOL    HW168009   2.160   7.107   5.259  3.0876 -2.5964  0.0964
53077SOL    HW268010   2.239   7.184   5.156 -0.2552  0.8200 -0.1275
53078SOL     OW68011   6.023  10.868  12.183  0.4239 -0.2023  0.6955
53078SOL    HW168012   6.083  10.893  12.113  0.2137  0.9257  0.9119
53078SOL    HW268013   6.016  10.772  12.175  1.8529 -0.2942  0.3636
53079SOL     OW68014   5.686   3.479  10.183 -0.0446 -0.2648 -0.1551
53079SOL    HW168015   5.624   3.407  10.179  0.5884 -0.7931 -0.8771
53079SOL    HW268016   5.632   3.558  10.175 -0.6285 -0.7100 -0.7533
53080SOL     OW68017   2.864   2.719   6.984 -0.1745 -0.1905  0.5838
53080SOL    HW168018   2.875   2.797   6.930 -1.0065 -0.3878  0.1165
53080SOL    HW268019   2.771   2.720   7.009 -0.2096 -1.0619  0.5228
53081SOL     OW68020   3.278  11.551  11.339 -0.4116  0.6651  0.2322
53081SOL    HW168021   3.186  11.524  11.341  0.3797 -2.7116 -1.1645
53081SOL    HW268022   3.308  11.540  11.429 -1.5974  3.0199  0.9780
53082SOL     OW68023   2.623   2.779  12.207  0.9302  0.0139 -0.2376
53082SOL    HW168024   2.595   2.870  12.202 -0.8533 -0.3795  1.5600
53082SOL    HW268025   2.542   2.729  12.208  1.8551 -1.5446 -0.1619
53083SOL     OW68026   5.653   3.321   3.385 -0.6890  0.2581 -0.4952
53083SOL    HW168027   5.574   3.330   3.439  0.2426 -2.0681  1.5040
53083SOL    HW268028   5.721   3.366   3.435 -0.0180 -1.0760 -0.1433
53084SOL     OW68029   6.616   3.091   7.851  0.0893 -0.1187 -0.0374
53084SOL    HW168030   6.684   3.024   7.844 -0.9581 -1.0581 -1.9934
53084SOL    HW268031   6.643   3.159   7.790 -0.2560 -0.0459 -0.1089
53085SOL     OW68032  10.479   1.836   3.166 -0.1437 -0.1275 -0.5786
53085SOL    HW168033  10.518   1.923   3.167  0.4895 -0.3865  1.0281
53085SOL    HW268034  10.544   1.781   3.123  1.3852 -0.5507  2.0545
53086SOL     OW68035   2.292  10.564  11.916 -0.6825  0.3632  0.2706
53086SOL    HW168036   2.316  10.520  11.835 -0.9322 -0.3430  0.5715
53086SOL    HW268037   2.369  10.556  11.972 -0.7796  0.1682  0.3793
53087SOL     OW68038   4.792   1.460   7.403 -0.2141  0.0157 -0.4437
53087SOL    HW168039   4.714   1.457   7.458  0.1391 -0.5138  0.0357
53087SOL    HW268040   4.759   1.485   7.316 -0.9004 -0.0913 -0.2194
53088SOL     OW68041   5.316   2.336   4.256  0.4687 -0.1789 -0.1435
53088SOL    HW168042   5.270   2.348   4.173  0.9816 -1.2515 -0.6100
53088SOL    HW268043   5.398   2.293   4.232  1.3287  0.8722  0.7640
53089SOL     OW68044  12.021   4.878   3.253  0.2117  0.2741 -0.0244
53089SOL    HW168045  12.015   4.967   3.286  0.0782  0.0629  0.5343
53089SOL    HW268046  11.986   4.882   3.164  2.9604  1.3788 -1.1559
53090SOL     OW68047  12.377  12.343   5.557  0.8084  0.0445 -0.3523
53090SOL    HW168048  12.427  12.264   5.535 -1.1580 -0.2666 -4.8732
53090SOL    HW268049  12.296  12.310   5.596  1.0844  0.0634  0.2511
53091SOL     OW68050   5.605  11.249   2.152 -0.1794  0.0167  0.4569
53091SOL    HW168051   5.572  11.273   2.239 -1.5322 -1.2185  0.3075
53091SOL    HW268052   5.544  11.183   2.120  1.9416 -1.7393 -0.2178
53092SOL     OW68053  10.193   4.515   5.873  0.3326  0.2771  0.5399
53092SOL    HW168054  10.111   4.550   5.838  0.4965 -0.5319 -0.7470
53092SOL    HW268055  10.261   4.573   5.838  0.4402 -0.1120  0.0890
53093SOL     OW68056  10.965   1.262   5.333 -0.5592 -0.5415  0.0220
53093SOL    HW168057  10.998   1.330   5.275 -0.3251  0.9473  1.8329
53093SOL    HW268058  11.029   1.191   5.324  0.6456  0.5020  0.0623
53094SOL     OW68059  11.739   8.306   6.039  0.1582 -0.3848 -0.1674
53094SOL    HW168060  11.663   8.272   6.086 -1.5130  2.0363 -0.9036
53094SOL    HW268061  11.744   8.398   6.066  2.9052 -0.4468 -0.1317
53095SOL     OW68062  12.246   5.420   7.978 -0.1513  0.5477 -0.2382
53095SOL    HW168063  12.158   5.437   8.012 -0.4875 -0.5675 -0.5206
53095SOL    HW268064  12.265   5.496   7.923 -1.0748  0.6327 -0.4530
53096SOL     OW68065   6.577  12.375   5.988  0.2036  0.1565 -0.0110
53096SOL    HW168066   6.584  12.293   5.940  0.9922 -1.1627  2.1925
53096SOL    HW268067   6.659  12.420   5.970  2.5954 -2.3314  3.2886
53097SOL     OW68068   7.877  12.172   4.157 -0.1301  0.0523 -0.0017
53097SOL    HW168069   7.949  12.126   4.113 -0.1382 -0.4034  0.4500
53097SOL    HW268070   7.879  12.260   4.121 -0.5333 -0.4840 -1.4001
53098SOL     OW68071   9.499   9.542   2.549  0.0475 -0.6623  0.0348
53098SOL    HW168072   9.403   9.539   2.553  0.0877 -0.6689  2.1513
53098SOL    HW268073   9.526   9.452   2.565  0.3741 -0.1313  3.3655
53099SOL     OW68074   4.710   3.175   1.551 -0.8861 -0.3591  0.0921
53099SOL    HW168075   4.681   3.084   1.538 -0.2409 -0.7348  1.1207
53099SOL    HW268076   4.756   3.173   1.635 -1.7570  1.1570  0.6378
53100SOL     OW68077   8.482   6.984   1.677 -0.1113  0.3553  0.0983
53100SOL    HW168078   8.427   7.025   1.744  1.3331  2.8568 -0.0986
53100SOL    HW268079   8.439   7.006   1.594 -0.2256 -0.0154  0.0578
53101SOL     OW68080  12.212   5.221  10.667  0.1561  0.0532  0.6071
53101SOL    HW168081  12.285   5.184  10.618 -0.6367  2.2024 -2.4970
53101SOL    HW268082  12.219   5.316  10.653 -2.7019  0.3996  0.9174
53102SOL     OW68083   6.403   8.633   5.101 -0.1652 -0.5530 -0.0235
53102SOL    HW168084   6.308   8.643   5.099 -0.0160  1.5796  0.7096
53102SOL    HW268085   6.435   8.691   5.031  0.6222 -0.6271  0.2642
53103SOL     OW68086   1.871   4.390   0.833 -0.4059 -0.1574  0.7169
53103SOL    HW168087   1.830   4.470   0.801  0.0058 -0.5530 -0.8863
53103SOL    HW268088   1.945   4.375   0.774 -0.7499 -1.9636  0.6746
53104SOL     OW68089   4.103   3.915   9.338  0.1897  0.2841 -0.0204
53104SOL    HW168090   4.030   3.866   9.376  1.1060 -0.5546  0.6886
53104SOL    HW268091   4.093   3.904   9.243  0.5528 -1.5347  0.1322
53105SOL     OW68092   6.649  10.138   4.920  0.3803  0.1753  0.3586
53105SOL    HW168093   6.652  10.231   4.897  0.1557  0.2335  0.5602
53105SOL    HW268094   6.726  10.101   4.878 -0.4167  0.1310 -1.1303
53106SOL     OW68095   2.591   0.694   3.520  0.2421  0.7138 -0.6676
53106SOL    HW168096   2.613   0.639   3.594 -1.6114  0.2220 -0.4387
53106SOL    HW268097   2.622   0.781   3.545  2.3414  0.0099 -0.6361
53107SOL     OW68098  11.465  10.377   0.264 -0.3097  0.1404  0.4673
53107SOL    HW168099  11.515  10.302   0.297  0.3986  1.3840  2.4290
53107SOL    HW268100  11.492  10.450   0.321 -0.1027  2.1662 -2.0545
53108SOL     OW68101   9.285   1.069   9.389 -0.1905 -0.0762 -0.1981
53108SOL    HW168102   9.205   1.110   9.422 -0.3309 -0.4546 -0.0583
53108SOL    HW268103   9.261   0.977   9.376  0.0659 -0.0778 -0.6797
53109SOL     OW68104   9.290   0.804   1.140  0.3220 -0.9170  0.1813
53109SOL    HW168105   9.326   0.833   1.223 -0.2352 -0.8217  0.3974
53109SOL    HW268106   9.247   0.720   1.161 -0.4292 -0.5518  0.1518
53110SOL     OW68107   7.880   0.596   3.409  0.1085  0.4592 -0.2671
53110SOL    HW168108   7.921   0.510   3.416 -1.1759 -0.0604  2.0060
53110SOL    HW268109   7.953   0.658   3.411  0.9556 -0.4604  2.5603
53111SOL     OW68110   4.209   1.413   2.708  0.2606  0.4719  0.7000
53111SOL    HW168111   4.264   1.478   2.751 -0.4471 -0.0972  2.5483
53111SOL    HW268112   4.256   1.330   2.720 -0.1307  0.2512  0.7288
53112SOL     OW68113   9.463   2.597   9.524  0.1477  0.6690  0.5284
53112SOL    HW168114   9.397   2.657   9.559  1.2491  1.3374  1.5304
53112SOL    HW268115   9.461   2.522   9.584  0.3748  0.7442  0.6318
53113SOL     OW68116  11.712   1.561   2.582 -0.2800  0.2206 -0.3142
53113SOL    HW168117  11.802   1.567   2.549 -0.3645  2.0231 -0.3102
53113SOL    HW268118  11.676   1.648   2.569 -2.0219 -0.4578 -0.2331
53114SOL     OW68119   8.452  11.847  12.298  0.0960 -0.1748 -0.2717
53114SOL    HW168120   8.507  11.912  12.254 -0.6676  0.2761 -0.5678
53114SOL    HW268121   8.391  11.898  12.352 -0.9932 -0.5919 -1.0668
53115SOL     OW68122   0.444   1.896   1.639 -0.3500 -0.2962  0.1043
53115SOL    HW168123   0.390   1.831   1.685  3.0043 -2.9511  0.7154
53115SOL    HW268124   0.506   1.843   1.588  0.0090  2.5537 -2.6790
53116SOL     OW68125   2.749   9.104  10.970  0.3734 -0.1629  0.5613
53116SOL    HW168126   2.694   9.176  10.998 -0.5118 -0.7727  0.4350
53116SOL    HW268127   2.770   9.056  11.050  1.5876  0.6333  0.7521
53117SOL     OW68128   7.765   7.498   9.727 -0.1311  0.4574 -0.5272
53117SOL    HW168129   7.761   7.409   9.762  1.6350  0.3480 -0.5118
53117SOL    HW268130   7.676   7.516   9.697 -0.2146 -1.9177 -2.0003
53118SOL     OW68131   4.785   2.958   3.509  0.1116 -0.0245 -0.3964
53118SOL    HW168132   4.836   3.038   3.498 -1.0086  0.6176 -1.0751
53118SOL    HW268133   4.722   2.979   3.578 -1.3444  0.3114 -1.7631
53119SOL     OW68134   5.703  10.237   8.552 -0.4422  0.4823  0.0709
53119SOL    HW168135   5.711  10.332   8.564 -0.2556  0.4612  0.1227
53119SOL    HW268136   5.610  10.223   8.535 -0.3027  0.7865 -0.9928
53120SOL     OW68137   6.217   4.320  10.244  0.1143 -0.1106 -0.3827
53120SOL    HW168138   6.208   4.225  10.256 -1.0044  0.1086  0.6763
53120SOL    HW268139   6.147   4.344  10.184 -1.1915  0.3743  1.2665
53121SOL     OW68140   8.614   5.072   5.074 -0.3891  0.1951 -0.7970
53121SOL    HW168141   8.660   4.996   5.038 -2.3786 -1.7142  0.4705
53121SOL    HW268142   8.577   5.117   4.998 -0.5968 -1.0841 -1.4624
53122SOL     OW68143   8.848   0.779  10.692  0.4687  0.0308 -0.0254
53122SOL    HW168144   8.863   0.686  10.673 -1.1083 -0.6008  1.5313
53122SOL    HW268145   8.903   0.796  10.769  0.1843  0.1781  0.1445
53123SOL     OW68146   9.929   1.948   0.344 -0.4462  0.2384 -0.2278
53123SOL    HW168147   9.996   1.940   0.411 -0.2324 -1.9696 -0.6277
53123SOL    HW268148   9.968   2.006   0.278  0.6461 -0.1631  0.0424
53124SOL     OW68149  10.079   2.360   8.796 -0.6057 -0.1811  0.0602
53124SOL    HW168150  10.087   2.351   8.891  0.1024  0.3752  0.0722
53124SOL    HW268151  10.147   2.302   8.761 -0.5938 -0.0781 -0.0876
53125SOL     OW68152   7.514   3.992   7.064  0.1994  0.5544 -0.2311
53125SOL    HW168153   7.560   3.989   6.981  1.0088 -1.1218  0.2377
53125SOL    HW268154   7.422   4.004   7.040  0.4053 -0.0270 -1.3730
53126SOL     OW68155   0.359   5.701   8.440  0.2649 -0.3257  0.6449
53126SOL    HW168156   0.385   5.708   8.348  0.4211 -0.0032  0.7104
53126SOL    HW268157   0.341   5.792   8.466 -1.4059 -0.5921  0.4700
53127SOL     OW68158   2.113   6.951  12.098 -0.3302  0.0722  0.4054
53127SOL    HW168159   2.169   7.026  12.078  0.5402 -0.8109 -0.6019
53127SOL    HW268160   2.150   6.914  12.179  0.4155 -0.3613 -0.1218
53128SOL     OW68161   8.153  12.577   0.187  0.8669  0.3214  0.0680
53128SOL    HW168162   8.220  12.634   0.225  0.3775  1.2877 -0.4897
53128SOL    HW268163   8.196  12.537   0.111  0.4686  1.9127 -1.0494
53129SOL     OW68164   8.362   9.291   4.793 -0.0166  0.3772  0.7162
53129SOL    HW168165   8.354   9.348   4.717 -1.3788  0.1247  0.6406
53129SOL    HW268166   8.285   9.312   4.847  0.2918 -0.2908  1.4404
53130SOL     OW68167   1.683   8.685   0.642 -0.6817 -0.6181  0.2776
53130SOL    HW168168   1.595   8.717   0.619 -0.9249 -1.9674 -0.8279
53130SOL    HW268169   1.724   8.665   0.557  1.2909  1.3676  0.6739
53131SOL     OW68170   3.881  11.542   4.962  0.5324 -0.8343  0.1954
53131SOL    HW168171   3.924  11.482   4.900  0.6183  0.3599 -0.9444
53131SOL    HW268172   3.953  11.574   5.017  0.2847 -2.8371  1.7981
53132SOL     OW68173   5.081  11.399   7.536 -0.2286 -0.3517  0.3034
53132SOL    HW168174   5.057  11.327   7.595 -0.8786 -0.1279  0.3188
53132SOL    HW268175   5.168  11.426   7.565  0.4435 -1.7635 -0.3076
53133SOL     OW68176   5.824   1.378   9.467  0.0874 -0.1336  0.7754
53133SOL    HW168177   5.778   1.295   9.453  0.4805 -0.9591  3.7581
53133SOL    HW268178   5.906   1.368   9.419 -0.7165 -0.5934 -0.5720
53134SOL     OW68179   5.214   5.657  11.652  0.4709  0.1438  0.1780
53134SOL    HW168180   5.237   5.733  11.598  0.6453 -0.6036 -0.8365
53134SOL    HW268181   5.248   5.678  11.739  1.7951  0.6067 -0.4314
53135SOL     OW68182   9.539   5.933   1.076 -0.2146  0.4321 -0.4262
53135SOL    HW168183   9.505   5.972   1.157  2.7988  1.7254  0.3445
53135SOL    HW268184   9.461   5.907   1.028 -2.1765  1.0831  2.1726
53136SOL     OW68185   5.302   5.374   7.295 -0.4730  0.3530 -0.1847
53136SOL    HW168186   5.383   5.327   7.276 -0.7558 -0.4781  0.6119
53136SOL    HW268187   5.241   5.306   7.323 -1.5601  0.9232 -1.0805
53137SOL     OW68188   1.051  11.652   3.098  0.1759 -0.4493  0.3121
53137SOL    HW168189   1.108  11.608   3.034  0.7811  1.2269 -0.3889
53137SOL    HW268190   1.105  11.724   3.131 -1.1758  0.5396  0.4394
53138SOL     OW68191   8.414   4.758   7.221  0.9924 -0.2364 -0.2741
53138SOL    HW168192   8.426   4.775   7.314  0.8419 -0.6415 -0.1749
53138SOL    HW268193   8.390   4.842   7.183 -0.8052 -0.4129  0.3760
53139SOL     OW68194  11.183   9.617  12.034 -0.1507  0.1571 -0.2465
53139SOL    HW168195  11.250   9.611  11.966  1.9084 -2.2451  1.7848
53139SOL    HW268196  11.102   9.588  11.991  0.7804 -0.0855 -1.9268
53140SOL     OW68197   8.659   2.252   8.221 -0.0854 -0.2673  0.2805
53140SOL    HW168198   8.689   2.313   8.288 -0.7603  0.0539  0.3001
53140SOL    HW268199   8.564   2.257   8.224 -0.1325 -0.0391 -0.8902
53141SOL     OW68200   6.332   6.154   4.069 -0.0690 -0.6002 -0.3052
53141SOL    HW168201   6.270   6.155   3.996 -0.9888  2.6616  0.3749
53141SOL    HW268202   6.416   6.176   4.029 -0.3452  0.0171 -0.5629
53142SOL     OW68203   4.182   4.700   3.778  0.0931 -0.0822 -0.1622
53142SOL    HW168204   4.222   4.613   3.768  0.6945  0.2793 -1.0094
53142SOL    HW268205   4.255   4.761   3.772 -0.5893  0.6297 -2.2230
53143SOL     OW68206   5.450  11.458  10.084 -0.2376 -0.4371 -0.6902
53143SOL    HW168207   5.444  11.488  10.175 -0.8441 -1.2546 -0.4559
53143SOL    HW268208   5.444  11.363  10.089  0.6940 -0.5614 -1.5121
53144SOL     OW68209  11.250   9.373   0.215  0.2739 -0.2714 -0.4708
53144SOL    HW168210  11.177   9.432   0.235 -0.3855 -0.3047 -2.5133
53144SOL    HW268211  11.327   9.430   0.219  0.0945 -0.1009  1.1082
53145SOL     OW68212  10.797   4.354   8.296 -0.5313 -0.3461  0.7163
53145SOL    HW168213  10.772   4.395   8.214  1.0405 -2.7721 -1.1108
53145SOL    HW268214  10.715   4.324   8.334 -1.3292  1.2576  0.3405
53146SOL     OW68215   3.259  11.878   4.907  0.5773 -0.3463 -0.0817
53146SOL    HW168216   3.269  11.961   4.953 -1.2154 -0.4573  0.6225
53146SOL    HW268217   3.307  11.814   4.960 -1.7015 -0.5326  1.9521
53147SOL     OW68218  11.511   3.019   6.952 -0.2334  0.0098 -0.0791
53147SOL    HW168219  11.568   2.955   6.910 -0.4485 -1.0684  1.1935
53147SOL    HW268220  11.532   3.012   7.046 -1.1277  0.9343  0.2116
53148SOL     OW68221   5.042   7.143   9.373  0.2569  0.1776 -0.1410
53148SOL    HW168222   5.116   7.083   9.383 -0.7445 -1.3245 -1.2919
53148SOL    HW268223   5.056   7.209   9.441  1.7426 -1.0028  0.7774
53149SOL     OW68224  11.537   5.480   1.489 -0.5136  0.8677 -0.2177
53149SOL    HW168225  11.599   5.419   1.529  0.2885  0.5108 -1.9001
53149SOL    HW268226  11.469   5.424   1.451 -2.0393  1.2656  1.8004
53150SOL     OW68227   5.768   1.477   9.742 -0.3344 -0.5900 -0.1555
53150SOL    HW168228   5.765   1.564   9.702 -1.4079 -0.4387  0.2204
53150SOL    HW268229   5.807   1.421   9.675 -1.3129 -0.1714 -1.1133
53151SOL     OW68230   8.318  10.868  10.482 -0.1415 -0.2749  0.3690
53151SOL    HW168231   8.347  10.906  10.565  0.4914 -0.3800  0.1998
53151SOL    HW268232   8.367  10.786  10.475  1.5914  0.8116 -1.2065
53152SOL     OW68233   2.429   4.316   7.521  0.7729  0.5388  0.2146
53152SOL    HW168234   2.515   4.345   7.491 -0.0754  1.3929 -1.5568
53152SOL    HW268235   2.413   4.235   7.473  0.1170  1.0016 -0.3691
53153SOL     OW68236  12.323   8.961  12.126  0.2715  0.2021  0.1515
53153SOL    HW168237  12.393   8.998  12.180  0.6242 -0.0641 -0.1246
53153SOL    HW268238  12.255   9.029  12.126  0.7597  0.7034 -0.0453
53154SOL     OW68239  12.128  11.606   3.988  0.0046  0.1294 -0.4340
53154SOL    HW168240  12.188  11.671   3.951 -0.5850  0.0633 -1.5409
53154SOL    HW268241  12.166  11.521   3.963 -1.0305  0.0875 -2.0041
53155SOL     OW68242   5.086   8.994   5.567 -0.7817 -0.0320  0.5455
53155SOL    HW168243   5.148   8.987   5.495 -1.2210 -1.0356  0.2353
53155SOL    HW268244   5.122   8.938   5.636 -1.2142 -0.4324  0.4520
53156SOL     OW68245   6.870   5.599  11.976 -0.1941 -0.1976 -0.2489
53156SOL    HW168246   6.901   5.657  12.045  0.1966 -0.8735  0.1600
53156SOL    HW268247   6.812   5.537  12.021 -0.0770 -0.5319 -0.5502
53157SOL     OW68248  10.216   7.330   4.240 -0.1189  0.4186  0.2835
53157SOL    HW168249  10.125   7.357   4.252 -0.3007  1.1151 -2.0121
53157SOL    HW268250  10.265   7.412   4.234  0.4731  0.0779  0.3993
53158SOL     OW68251   2.141   6.260   3.341  0.3391  0.5119  0.4016
53158SOL    HW168252   2.168   6.307   3.262 -1.9598  4.1094  1.4770
53158SOL    HW268253   2.071   6.202   3.311  1.4383 -0.3865 -0.5604
53159SOL     OW68254   0.637   9.368   8.310  0.1992 -0.1356 -0.0908
53159SOL    HW168255   0.634   9.430   8.383  0.4346  0.9137 -0.9404
53159SOL    HW268256   0.674   9.419   8.238 -2.5475 -0.2747 -1.7489
53160SOL     OW68257   8.458   6.676   4.675  0.2527 -0.9176  0.9216
53160SOL    HW168258   8.457   6.635   4.588 -0.4128 -1.8074  1.3281
53160SOL    HW268259   8.448   6.769   4.658  1.4742 -0.9281 -0.0239
53161SOL     OW68260  11.863   4.075   4.046  0.0881  0.0181  0.1726
53161SOL    HW168261  11.858   4.111   4.135  2.6670  1.5220 -0.1888
53161SOL    HW268262  11.882   3.982   4.059 -3.8159 -0.8508  1.1049
53162SOL     OW68263  10.028   3.894  11.793 -0.4068 -0.3468  0.3329
53162SOL    HW168264  10.014   3.803  11.766  0.4219 -0.6747  0.9572
53162SOL    HW268265   9.972   3.905  11.870 -1.1353 -0.0703 -0.2297
53163SOL     OW68266   0.550   3.866   5.506  0.3665  0.1400  0.6663
53163SOL    HW168267   0.554   3.813   5.586 -2.4794  0.2920  1.0322
53163SOL    HW268268   0.551   3.956   5.537 -0.5943  0.2014  0.5606
53164SOL     OW68269   7.887  10.676  10.640 -0.4248  0.4162 -0.5942
53164SOL    HW168270   7.884  10.639  10.728  2.9163  1.1513 -0.0444
53164SOL    HW268271   7.857  10.766  10.651 -3.8700 -0.5252 -1.0661
53165SOL     OW68272   6.160   3.842   2.779 -0.0927 -0.1743 -0.2392
53165SOL    HW168273   6.188   3.765   2.730  0.5164 -1.7521  2.3721
53165SOL    HW268274   6.064   3.837   2.778 -0.0636 -0.8793 -0.2644
53166SOL     OW68275   1.617  12.552  10.222  0.1184 -0.1899  0.5173
53166SOL    HW168276   1.554  12.604  10.272  0.9340  1.3337  0.0444
53166SOL    HW268277   1.633  12.474  10.275  1.0516  1.4261  2.7417
53167SOL     OW68278   4.826   2.034   8.461  0.7455 -0.3630  0.2725
53167SOL    HW168279   4.834   1.943   8.488 -0.4604 -0.8422 -0.8889
53167SOL    HW268280   4.753   2.069   8.512  1.8629  0.2935  1.4887
53168SOL     OW68281  11.905   1.355   0.431  0.5514  0.5964 -0.7366
53168SOL    HW168282  11.942   1.386   0.348  0.5761  1.0670 -0.5496
53168SOL    HW268283  11.855   1.429   0.465 -0.1915  0.1223 -0.7565
53169SOL     OW68284  12.199  10.530   6.842 -0.2934  0.0066 -0.5680
53169SOL    HW168285  12.231  10.563   6.758  0.8515  1.4219  0.3688
53169SOL    HW268286  12.249  10.450   6.857  0.0982  0.1919 -0.8549
53170SOL     OW68287   9.487   1.828   6.651 -0.6972  0.6681  0.1765
53170SOL    HW168288   9.419   1.774   6.690 -0.1771  0.3253  0.6225
53170SOL    HW268289   9.498   1.902   6.711  0.4589 -0.1191  0.9782
53171SOL     OW68290  10.750  10.117   0.276 -0.2582 -0.3016  0.0902
53171SOL    HW168291  10.674  10.093   0.223 -0.7936  0.5000  0.4733
53171SOL    HW268292  10.796  10.184   0.224 -1.1216  0.9373  0.8737
53172SOL     OW68293   5.566   7.564   4.843  0.5699  0.1728 -0.1433
53172SOL    HW168294   5.658   7.559   4.817  0.0834  1.6433 -2.5454
53172SOL    HW268295   5.518   7.538   4.764 -1.0902 -0.3814  0.9944
53173SOL     OW68296   2.259   9.578  12.224  0.7505 -0.3486  0.0069
53173SOL    HW168297   2.184   9.519  12.227  0.4590  0.0308  0.2409
53173SOL    HW268298   2.332   9.527  12.259  0.3089 -0.2945  1.0310
53174SOL     OW68299  12.185   1.130   2.384 -0.1813  0.0865  0.4927
53174SOL    HW168300  12.096   1.157   2.403 -1.0053 -1.9821 -0.0982
53174SOL    HW268301  12.207   1.175   2.302 -0.5474  0.8403  0.8004
53175SOL     OW68302  11.978   2.282   0.073 -0.1434 -0.0576 -0.2381
53175SOL    HW168303  11.981   2.246   0.161 -1.4274  1.1102  0.3186
53175SOL    HW268304  11.893   2.254   0.038 -0.3810  0.8940 -0.4566
53176SOL     OW68305   6.285   1.536   7.865 -0.1018  0.3892 -0.1984
53176SOL    HW168306   6.362   1.558   7.917 -1.0018  0.2175  1.2565
53176SOL    HW268307   6.245   1.621   7.846  1.0189  0.5786 -1.9505
53177SOL     OW68308   2.871   0.346  10.790  0.3243 -0.1268 -0.2173
53177SOL    HW168309   2.801   0.380  10.845 -0.7692 -2.5845  0.0406
53177SOL    HW268310   2.839   0.357  10.700  0.2301 -0.0149 -0.1698
53178SOL     OW68311   6.920   2.480   9.368 -0.3914  0.5281 -0.0544
53178SOL    HW168312   6.978   2.527   9.427 -1.9495  0.4294  1.6528
53178SOL    HW268313   6.849   2.449   9.424 -1.6373 -0.1083 -1.8900
53179SOL     OW68314   3.984  12.269   1.148  0.4353 -0.2905  0.5940
53179SOL    HW168315   3.946  12.324   1.080 -1.2401 -0.2704  1.5089
53179SOL    HW268316   4.037  12.205   1.101  3.4792  2.6910 -0.5139
53180SOL     OW68317   6.844  10.562   1.471  0.3504  0.6510 -0.5235
53180SOL    HW168318   6.851  10.562   1.566 -2.1015  0.6082 -0.2648
53180SOL    HW268319   6.926  10.525   1.440  0.7366 -0.4233  1.6218
53181SOL     OW68320   8.715   0.255   7.256  0.1691 -0.4064 -0.1397
53181SOL    HW168321   8.654   0.305   7.310 -1.7530  0.5659 -2.9772
53181SOL    HW268322   8.685   0.164   7.266  0.9539 -0.5120  1.6748
53182SOL     OW68323   9.441   4.278  10.810 -0.1731 -0.1480  0.2565
53182SOL    HW168324   9.395   4.208  10.765  0.4320  0.0962 -0.7612
53182SOL    HW268325   9.398   4.283  10.896 -0.7361 -1.2267  0.0577
53183SOL     OW68326  12.095   1.677   5.070 -0.1877 -0.0951 -0.6893
53183SOL    HW168327  12.136   1.688   4.984 -0.9185  1.3245 -0.8899
53183SOL    HW268328  12.126   1.752   5.121 -0.2694 -0.5788  0.0939
53184SOL     OW68329   6.300   7.944  11.537 -0.1281 -0.3705 -0.0327
53184SOL    HW168330   6.285   7.885  11.463  0.9650  1.6996 -2.0525
53184SOL    HW268331   6.387   7.980  11.522  0.4861 -0.4505  2.7661
53185SOL     OW68332   6.394   5.331   0.700  0.2518 -0.2147  0.2709
53185SOL    HW168333   6.365   5.369   0.617 -1.6983 -0.3563  0.8384
53185SOL    HW268334   6.474   5.283   0.678 -1.1300 -1.6581 -1.8824
53186SOL     OW68335   7.047   3.178   7.347 -0.0096 -0.3078 -0.2518
53186SOL    HW168336   7.054   3.197   7.253 -0.0412  2.3359  0.1922
53186SOL    HW268337   7.130   3.136   7.370  0.9135  0.9890 -1.0856
53187SOL     OW68338   1.193   0.845  11.168 -0.7395 -0.3594 -0.1071
53187SOL    HW168339   1.195   0.837  11.073 -1.2703  0.4358 -0.1953
53187SOL    HW268340   1.263   0.787  11.198  0.8657  0.9331 -1.1103
53188SOL     OW68341   4.535   2.923   1.714  0.3953  0.8432 -0.5335
53188SOL    HW168342   4.562   2.841   1.674 -0.2086  1.0497 -1.3900
53188SOL    HW268343   4.587   2.929   1.794  0.2848 -0.4875 -0.3358
53189SOL     OW68344   8.942   1.407   5.009 -0.7421  0.3961  0.6376
53189SOL    HW168345   8.875   1.473   5.022  0.9704  2.2026  0.7968
53189SOL    HW268346   8.988   1.402   5.093  0.2119  0.2839  0.1317
53190SOL     OW68347  12.375  11.613   3.266  0.1979 -0.8730 -0.5270
53190SOL    HW168348  12.388  11.589   3.358 -1.2851 -2.5027 -0.6771
53190SOL    HW268349  12.384  11.708   3.264 -1.0012 -0.6534  1.5421
53191SOL     OW68350  12.031   8.100   2.247 -0.1001 -0.1087  0.1019
53191SOL    HW168351  12.031   8.137   2.335 -0.7878 -0.6019  0.3209
53191SOL    HW268352  12.079   8.164   2.194  0.9020 -0.1393  0.9559
53192SOL     OW68353   5.572   0.024   6.096  0.5154  0.2573  0.3590
53192SOL    HW168354   5.482   0.005   6.071  0.6200 -0.2519  0.3659
53192SOL    HW268355   5.565   0.088   6.167  0.1701  0.4011  0.1971
53193SOL     OW68356   1.327  10.170   5.194  0.1975  0.4087 -0.0775
53193SOL    HW168357   1.273  10.193   5.118 -0.3756 -0.9360 -0.1088
53193SOL    HW268358   1.390  10.106   5.160 -0.5845 -0.8305  0.7278
53194SOL     OW68359  12.528   5.067   6.944  0.0472 -0.2214  0.3119
53194SOL    HW168360  12.443   5.107   6.963 -0.3908 -0.5869 -0.7903
53194SOL    HW268361  12.592   5.131   6.976 -0.6365  0.2638  0.7492
53195SOL     OW68362   5.598   8.703   5.207 -0.2800 -0.5242 -0.8227
53195SOL    HW168363   5.636   8.645   5.140  1.7564 -0.0372 -0.1621
53195SOL    HW268364   5.673   8.746   5.247 -1.5759  0.6064  0.5240
53196SOL     OW68365   6.690   1.958   4.606  0.1972 -0.0280  0.5785
53196SOL    HW168366   6.603   1.997   4.612  1.4007  3.5695 -2.0871
53196SOL    HW268367   6.674   1.863   4.607 -3.5273  0.4660  1.5639
53197SOL     OW68368   1.574  11.388  12.482 -0.0456  0.1466 -0.5579
53197SOL    HW168369   1.658  11.347  12.458 -1.3896 -2.3413 -1.3720
53197SOL    HW268370   1.547  11.434  12.403 -0.8413 -1.6258 -1.3657
53198SOL     OW68371   6.332  12.070   4.881 -0.2872 -0.0007  0.4009
53198SOL    HW168372   6.277  12.141   4.848 -1.9102 -1.4706 -0.1823
53198SOL    HW268373   6.413  12.113   4.908 -0.5925  1.8798 -1.4133
53199SOL     OW68374   8.057   4.180   7.048  0.1997 -0.1430 -0.2967
53199SOL    HW168375   8.014   4.197   7.132 -0.1918 -2.6830  0.0827
53199SOL    HW268376   8.048   4.263   7.000 -1.4556  0.7059  1.3279
53200SOL     OW68377   3.485  10.047   3.910  0.3450  0.2558 -0.7449
53200SOL    HW168378   3.490  10.080   4.000 -2.4445  0.1441 -0.4865
53200SOL    HW268379   3.509  10.123   3.857  0.3878  0.8076  0.0294
53201SOL     OW68380   6.444   2.649   6.006 -0.4744  0.1236  0.7695
53201SOL    HW168381   6.423   2.556   6.006 -1.0897  0.2500 -0.4080
53201SOL    HW268382   6.392   2.685   6.078  2.1290 -0.8804  3.3999
53202SOL     OW68383   9.912   5.415   1.688  0.2642  0.9939 -0.4729
53202SOL    HW168384   9.964   5.338   1.711  1.4702  1.8171 -0.3836
53202SOL    HW268385   9.830   5.403   1.736  1.1939  0.7253  1.0954
53203SOL     OW68386   5.420   8.338   3.529 -0.3075 -0.4066 -0.4882
53203SOL    HW168387   5.493   8.396   3.508  0.4977 -1.6614 -1.2476
53203SOL    HW268388   5.440   8.305   3.617  0.6726 -1.6537 -1.1561
53204SOL     OW68389   3.927   7.462   8.217 -0.4028  0.2591  0.2409
53204SOL    HW168390   3.913   7.390   8.156 -1.9421  0.9957 -0.3384
53204SOL    HW268391   4.017   7.452   8.246 -0.4101 -1.5571 -0.2548
53205SOL     OW68392   3.896   3.543   1.040  0.0508  0.5708  0.4445
53205SOL    HW168393   3.907   3.523   1.133  0.0810  0.0141  0.3285
53205SOL    HW268394   3.807   3.514   1.019 -0.7125  2.5774  0.7611
53206SOL     OW68395   0.159  11.525   1.123 -0.5889 -0.5149  0.0701
53206SOL    HW168396   0.130  11.434   1.125 -0.5290 -0.5245  0.6122
53206SOL    HW268397   0.141  11.558   1.211  1.2351 -0.5787  0.5105
53207SOL     OW68398   6.853   2.672  11.621  0.4802 -0.2958 -0.1913
53207SOL    HW168399   6.862   2.594  11.566  0.8152  0.4676 -1.2359
53207SOL    HW268400   6.908   2.738  11.579 -1.0779  1.0090 -0.2543
53208SOL     OW68401   1.559   9.250   7.504 -0.2168  0.4793  0.3081
53208SOL    HW168402   1.501   9.256   7.428 -0.4696  1.2627  0.5551
53208SOL    HW268403   1.500   9.238   7.578 -0.1223  1.7345  0.6183
53209SOL     OW68404  11.486   0.046   6.292  0.2870  0.1194 -0.4520
53209SOL    HW168405  11.514   0.077   6.206  0.1467 -1.1709 -0.9835
53209SOL    HW268406  11.449  -0.041   6.275 -1.3943  0.5654  0.6391
53210SOL     OW68407   5.890   1.833   3.366 -0.5351 -0.4871  0.9627
53210SOL    HW168408   5.976   1.872   3.382  0.0656 -0.3904 -1.9419
53210SOL    HW268409   5.910   1.743   3.339 -1.0229  0.2177 -2.1177
53211SOL     OW68410   6.269   5.967   2.043 -0.2016 -0.0251  0.3527
53211SOL    HW168411   6.248   6.031   1.975 -0.6677 -0.0897  0.4369
53211SOL    HW268412   6.361   5.944   2.026 -0.3850 -0.2208 -0.3954
53212SOL     OW68413   3.239  12.361   9.591 -0.0507 -0.7974  0.1302
53212SOL    HW168414   3.183  12.339   9.516  0.4548  1.0240 -0.8290
53212SOL    HW268415   3.205  12.444   9.623 -0.6060 -1.8190  2.3210
53213SOL     OW68416  10.750  12.329   2.035  0.0957 -0.4957 -0.0432
53213SOL    HW168417  10.672  12.356   1.986  0.5529 -0.1846 -0.6089
53213SOL    HW268418  10.775  12.245   1.996  1.0619  0.2351 -1.0781
53214SOL     OW68419   9.163   6.905  10.215 -0.5724  0.0238  0.3464
53214SOL    HW168420   9.253   6.939  10.216 -0.1222 -1.0774 -0.7721
53214SOL    HW268421   9.160   6.847  10.139 -1.6845 -1.4275  1.4346
53215SOL     OW68422   1.948   8.529   1.300  0.2256 -0.5187  0.0161
53215SOL    HW168423   2.039   8.551   1.316 -0.2825  1.4519  0.5250
53215SOL    HW268424   1.901   8.612   1.314 -1.6675 -1.5591  0.1255
53216SOL     OW68425   2.050   5.376   3.903  0.8506  0.5471 -0.1197
53216SOL    HW168426   2.118   5.333   3.955  1.4412 -0.0364 -1.3326
53216SOL    HW268427   2.083   5.464   3.889  0.4013  0.9145  0.9761
53217SOL     OW68428   3.049   1.897   7.577  0.1420 -0.1272 -0.9016
53217SOL    HW168429   3.067   1.988   7.554 -0.6250  0.0731 -0.7269
53217SOL    HW268430   3.059   1.849   7.495  2.8872 -0.2771 -0.5836
53218SOL     OW68431   4.722  10.927  11.909  0.2681  0.2053  0.0026
53218SOL    HW168432   4.800  10.919  11.854 -0.0102  1.5064 -0.6121
53218SOL    HW268433   4.725  11.017  11.943 -0.3809 -0.0860  0.8788
53219SOL     OW68434   3.804   9.157   3.241 -0.2429  0.0435 -0.2425
53219SOL    HW168435   3.852   9.112   3.172 -0.5963  2.0041 -1.8704
53219SOL    HW268436   3.870   9.209   3.287 -0.2314 -0.0870 -0.1140
53220SOL     OW68437   6.062   6.095  12.452 -0.1894 -0.1126 -0.0525
53220SOL    HW168438   6.076   6.005  12.485 -0.0982  0.2241  0.8677
53220SOL    HW268439   6.139   6.143  12.482 -0.7500  0.5206  0.3988
53221SOL     OW68440   8.256   0.479   6.841  0.8339 -0.0877  0.2191
53221SOL    HW168441   8.256   0.422   6.764 -0.9032  0.8449 -0.5237
53221SOL    HW268442   8.244   0.567   6.806  0.9401  0.4711  1.5181
53222SOL     OW68443  12.501  12.610   6.770 -0.3322  0.3719  0.3745
53222SOL    HW168444  12.474  12.537   6.716  1.1718 -1.0973  1.5171
53222SOL    HW268445  12.477  12.688   6.719 -3.4152 -0.7950 -0.1984
53223SOL     OW68446   2.260   8.407   8.741 -0.1293  0.0895 -0.0902
53223SOL    HW168447   2.221   8.320   8.751  0.2401 -0.4240 -2.6136
53223SOL    HW268448   2.229   8.438   8.656  2.5773  0.9103 -0.8533
53224SOL     OW68449  11.405   6.909   1.686  0.3910  0.0413 -0.6327
53224SOL    HW168450  11.356   6.882   1.764 -0.5550 -1.9940 -1.8732
53224SOL    HW268451  11.339   6.939   1.625  0.8269 -1.0094 -1.6527
53225SOL     OW68452   8.171   4.714   8.386 -0.0295 -0.5880  0.2502
53225SOL    HW168453   8.231   4.651   8.347  2.4876  0.6136  1.9308
53225SOL    HW268454   8.196   4.798   8.347 -1.6616 -0.2147 -0.0981
53226SOL     OW68455   3.602   2.383   6.217  0.1462  0.8443  0.1126
53226SOL    HW168456   3.539   2.431   6.163 -0.5245  0.6175  0.6722
53226SOL    HW268457   3.613   2.299   6.172  0.5624  1.1397 -0.3410
53227SOL     OW68458   2.071   7.950   6.016 -0.5569  0.1238  0.3231
53227SOL    HW168459   1.978   7.964   6.034 -0.6405 -0.5322  0.3960
53227SOL    HW268460   2.073   7.910   5.930 -0.3416  0.0818  0.3482
53228SOL     OW68461   3.991   2.941   7.903 -0.1372  0.6016 -0.1337
53228SOL    HW168462   3.897   2.955   7.915 -0.0612  0.8258  0.2141
53228SOL    HW268463   4.031   2.975   7.983  0.1639 -0.4267  0.1645
53229SOL     OW68464   4.976   9.280   3.300 -0.1670  0.2963 -0.1343
53229SOL    HW168465   5.020   9.363   3.283  1.4044 -0.1570  1.4066
53229SOL    HW268466   5.043   9.214   3.283 -0.8310 -0.5426  0.4608
53230SOL     OW68467   6.807   0.592   6.683 -0.2223  0.3265  0.1671
53230SOL    HW168468   6.740   0.600   6.751 -0.2149  1.7610  0.0412
53230SOL    HW268469   6.863   0.668   6.695  0.9365 -0.4350 -0.2322
53231SOL     OW68470   1.023   5.528   8.884 -0.0747  0.2219  0.5193
53231SOL    HW168471   1.107   5.565   8.859 -0.9493  1.7852 -0.2544
53231SOL    HW268472   1.008   5.557   8.973 -0.0537  0.4233  0.4562
53232SOL     OW68473  12.092   0.071   0.038  0.2401  0.7504 -0.1874
53232SOL    HW168474  12.058   0.144   0.089 -0.7943 -1.3040  2.2453
53232SOL    HW268475  12.034   0.065  -0.038 -1.8930  0.3577  1.3928
53233SOL     OW68476   1.286   4.880   8.176  0.0066  0.7081 -0.4986
53233SOL    HW168477   1.250   4.968   8.160  1.8724  1.9495  1.5683
53233SOL    HW268478   1.214   4.833   8.218 -0.5944  1.7023 -0.3621
53234SOL     OW68479   6.558   4.846   7.107 -0.1018 -0.3988 -0.2489
53234SOL    HW168480   6.649   4.816   7.108  0.6917  1.8281  1.0290
53234SOL    HW268481   6.534   4.854   7.199 -1.2242  0.1195 -0.5703
53235SOL     OW68482   6.115   5.961  10.841 -0.7468 -0.4074 -0.7192
53235SOL    HW168483   6.205   5.931  10.852 -0.8962 -1.0756 -1.2123
53235SOL    HW268484   6.073   5.892  10.790 -0.9408  0.9404 -2.4807
53236SOL     OW68485  12.183   7.047  12.533  0.4312  0.6623 -0.5285
53236SOL    HW168486  12.180   7.051  12.629 -0.2013 -2.9385 -0.2806
53236SOL    HW268487  12.096   7.074  12.506  0.6128  1.7070 -0.1277
53237SOL     OW68488   1.876   0.757   3.446  0.3535 -0.3219  0.1604
53237SOL    HW168489   1.848   0.794   3.530  0.2552  0.8816 -0.3768
53237SOL    HW268490   1.852   0.664   3.451 -1.4454  0.1333  0.7076
53238SOL     OW68491   1.970  10.533   5.860  0.1849  0.0828 -0.8997
53238SOL    HW168492   1.921  10.595   5.914 -1.0274 -1.2702 -0.3666
53238SOL    HW268493   2.047  10.581   5.831 -0.5938  1.7448 -0.3156
53239SOL     OW68494   2.456   6.556  12.591  0.5524  0.0060 -0.0423
53239SOL    HW168495   2.464   6.462  12.608  0.9780  0.0866  0.1999
53239SOL    HW268496   2.450   6.596  12.678 -1.3195  0.0654 -0.1551
53240SOL     OW68497   4.860  11.479   9.886 -0.8334  0.6359 -0.1706
53240SOL    HW168498   4.859  11.501   9.980 -1.8363  0.1448 -0.0542
53240SOL    HW268499   4.868  11.384   9.884 -1.3095  0.6020 -0.5786
53241SOL     OW68500   2.492   7.458   8.286  0.0539  0.0717  0.4262
53241SOL    HW168501   2.470   7.419   8.202 -0.6950  0.7463  0.3047
53241SOL    HW268502   2.577   7.500   8.271 -0.7474  1.4587 -0.4257
53242SOL     OW68503   2.112   1.257   1.615 -0.7764  0.1494  0.4699
53242SOL    HW168504   2.058   1.335   1.622 -2.6093 -1.1294  5.6994
53242SOL    HW268505   2.068   1.202   1.550 -2.8441  1.2191  0.8991
53243SOL     OW68506   9.542   6.142   6.583  0.3575  0.0676 -0.0414
53243SOL    HW168507   9.630   6.138   6.544  0.1647 -0.5697 -0.4327
53243SOL    HW268508   9.531   6.233   6.609  1.2005  0.1233  0.1575
53244SOL     OW68509   5.694   8.328  10.815 -0.3096  0.5806  0.0108
53244SOL    HW168510   5.754   8.322  10.890 -0.4538  0.3295  0.1069
53244SOL    HW268511   5.717   8.411  10.773 -0.0668  0.6093  0.1960
53245SOL     OW68512   9.442   7.410   7.169  0.2223  0.0520  0.2746
53245SOL    HW168513   9.461   7.402   7.262  0.5999  0.1758  0.2076
53245SOL    HW268514   9.350   7.384   7.161 -0.2235  1.3566  0.8775
53246SOL     OW68515   5.700  12.056  12.213  0.2803 -0.3371  0.3434
53246SOL    HW168516   5.638  12.111  12.165 -0.2722 -0.2528  1.1323
53246SOL    HW268517   5.649  11.980  12.239  0.3392 -0.0143  1.4772
53247SOL     OW68518   0.547   2.069   0.103  0.2373 -0.1906  0.0229
53247SOL    HW168519   0.569   2.130   0.173  0.1734  0.1128 -0.2205
53247SOL    HW268520   0.481   2.011   0.142  0.5966 -0.3701  0.3839
53248SOL     OW68521   7.138   0.139   1.479  0.3136  0.9185  0.2926
53248SOL    HW168522   7.173   0.208   1.535 -2.2454  2.1973  0.4418
53248SOL    HW268523   7.058   0.111   1.522 -0.9806  0.9244 -1.9210
53249SOL     OW68524  11.787   3.094   6.738  0.2421  0.0746  0.2102
53249SOL    HW168525  11.725   3.162   6.709 -1.7046 -1.1577  1.2650
53249SOL    HW268526  11.819   3.125   6.823  1.7255  1.0661 -0.6625
53250SOL     OW68527   4.362   1.634   0.719 -0.1406  0.3597  0.5970
53250SOL    HW168528   4.399   1.587   0.793  0.5398 -0.6542 -0.3504
53250SOL    HW268529   4.343   1.566   0.655 -0.4621  1.2376 -0.2631
53251SOL     OW68530  10.514   0.548   1.562 -0.4756 -0.3609  0.4616
53251SOL    HW168531  10.447   0.480   1.562  0.7878 -1.6528 -0.2893
53251SOL    HW268532  10.550   0.545   1.651 -0.2665 -0.8356  0.3627
53252SOL     OW68533   8.788   2.039  11.358  0.1324  0.0611  0.5127
53252SOL    HW168534   8.801   2.108  11.423  1.6840 -0.7477  1.1371
53252SOL    HW268535   8.814   1.959  11.404  1.7863 -0.4772 -1.2363
53253SOL     OW68536   6.026   5.795   9.583  0.0006 -0.3600  0.2946
53253SOL    HW168537   5.943   5.761   9.548 -0.7855  0.0930  1.6250
53253SOL    HW268538   6.093   5.754   9.529 -1.0035 -2.2226  0.3802
53254SOL     OW68539   2.316   2.528  10.004 -1.6080  0.3132 -0.1035
53254SOL    HW168540   2.336   2.444   9.962 -1.0527  0.0458  0.6795
53254SOL    HW268541   2.298   2.506  10.095  1.5794  1.3405  0.8963
53255SOL     OW68542   4.341   3.522   3.701  0.3220 -0.1832  0.1033
53255SOL    HW168543   4.384   3.443   3.671 -1.2691 -1.2373  0.4434
53255SOL    HW268544   4.294   3.555   3.624  0.0915 -0.2040  0.2326
53256SOL     OW68545   6.013   9.668   4.899  0.0970 -0.2898 -0.3588
53256SOL    HW168546   5.932   9.716   4.916  0.2361  0.0249 -0.5496
53256SOL    HW268547   6.082   9.726   4.931  0.2608 -0.4287 -0.4556
53257SOL     OW68548   2.130   0.218   2.837  0.2010  0.0878  0.0972
53257SOL    HW168549   2.099   0.303   2.867 -1.5834 -0.4729 -0.0422
53257SOL    HW268550   2.093   0.208   2.749  1.0573 -0.4912 -0.2132
53258SOL     OW68551   4.129  11.906   9.652  0.5206  0.2994  0.2956
53258SOL    HW168552   4.218  11.939   9.661  0.4928  0.1753  1.1239
53258SOL    HW268553   4.123  11.875   9.561  1.3162  0.3197  0.2339
53259SOL     OW68554   2.529   8.679   6.097 -0.4066 -0.5649 -0.3294
53259SOL    HW168555   2.560   8.660   6.185  0.0563 -1.9673 -0.7664
53259SOL    HW268556   2.536   8.774   6.089  0.8407 -0.5537  0.6645
53260SOL     OW68557   1.297   7.402   5.893  0.2795  0.1687 -0.2865
53260SOL    HW168558   1.387   7.369   5.891  0.3956  0.4203 -3.0985
53260SOL    HW268559   1.248   7.342   5.837 -1.3985 -0.0955  1.3775
53261SOL     OW68560  11.088   7.386   8.054 -0.1480  0.2955 -0.3892
53261SOL    HW168561  11.129   7.323   7.994 -1.0638 -0.7728  0.0619
53261SOL    HW268562  11.120   7.360   8.141 -0.2275  0.7005 -0.2403
53262SOL     OW68563   3.612   8.201  12.290 -0.2523  0.3819 -0.2000
53262SOL    HW168564   3.660   8.176  12.369  0.2849  0.2236 -0.5706
53262SOL    HW268565   3.583   8.118  12.253  0.4143  0.3776 -0.7337
53263SOL     OW68566   7.171   4.747   4.870 -0.2109  0.6873 -1.0979
53263SOL    HW168567   7.091   4.696   4.881 -0.3927  1.1700 -0.0429
53263SOL    HW268568   7.242   4.687   4.891 -0.1521 -0.2140 -3.5882
53264SOL     OW68569   3.260   7.454   0.457 -0.2495 -0.0190 -0.5021
53264SOL    HW168570   3.273   7.521   0.390  1.0018 -0.2930 -0.5556
53264SOL    HW268571   3.328   7.389   0.438  0.5713  0.2262  1.4433
53265SOL     OW68572  10.258   0.112   5.469 -0.2573 -0.2751 -0.1099
53265SOL    HW168573  10.215   0.173   5.409 -1.5707 -0.2089  0.8401
53265SOL    HW268574  10.333   0.160   5.503  0.5099 -0.3132 -1.6559
53266SOL     OW68575   8.545   3.247   9.067 -0.3060  0.4488 -0.6537
53266SOL    HW168576   8.553   3.342   9.051 -0.0855  0.5084 -0.1913
53266SOL    HW268577   8.457   3.226   9.036 -0.6146  0.9402 -0.1253
53267SOL     OW68578   8.620   0.776   9.330 -0.4640 -0.7139 -0.1190
53267SOL    HW168579   8.581   0.858   9.360  0.5829 -0.0968 -0.3651
53267SOL    HW268580   8.710   0.780   9.362  0.4299 -0.4618 -2.4491
53268SOL     OW68581   1.609  10.953   3.943  0.2953  0.2903  1.1185
53268SOL    HW168582   1.651  10.918   3.864 -1.8371  1.1813 -0.5353
53268SOL    HW268583   1.555  10.881   3.975 -0.8188  0.6888  0.2056
53269SOL     OW68584   6.914   7.054   9.485 -0.3893  0.6639  0.1712
53269SOL    HW168585   6.987   7.012   9.531  0.9697  1.8196 -0.8238
53269SOL    HW268586   6.951   7.079   9.401 -2.1587  0.7021 -0.6307
53270SOL     OW68587  11.401   1.643   1.648 -0.4054  0.1196 -0.7115
53270SOL    HW168588  11.492   1.624   1.626 -0.5607 -2.1755  0.3180
53270SOL    HW268589  11.404   1.729   1.689  1.7475 -0.9636  1.6581
53271SOL     OW68590  11.637   3.708   5.795 -0.3675  0.7420  0.1982
53271SOL    HW168591  11.566   3.650   5.821 -1.3117  1.8637  0.1717
53271SOL    HW268592  11.630   3.783   5.854  0.4464  1.1287 -0.1786
53272SOL     OW68593   0.716  10.127   4.277  0.2906 -0.4173 -0.2718
53272SOL    HW168594   0.794  10.081   4.245  0.6934  0.8696 -1.1803
53272SOL    HW268595   0.678  10.169   4.200 -1.5385 -1.3049  0.0787
53273SOL     OW68596   5.225   5.991   4.720 -0.0541 -0.2537 -0.0436
53273SOL    HW168597   5.144   5.939   4.726 -1.0606  1.2715  0.2121
53273SOL    HW268598   5.211   6.048   4.645  1.3399 -0.8262 -0.7581
53274SOL     OW68599   3.157   3.037   2.257 -0.5929  0.1982  0.1394
53274SOL    HW168600   3.071   3.057   2.294  0.1297  2.6659  0.6991
53274SOL    HW268601   3.164   2.942   2.261 -3.3666 -0.0895 -0.1429
53275SOL     OW68602   8.525  12.604  12.483 -0.3122 -0.5626 -0.1296
53275SOL    HW168603   8.532  12.653  12.401  0.0247 -0.5753 -0.1120
53275SOL    HW268604   8.494  12.518  12.458  2.7070 -1.6197 -0.6627
53276SOL     OW68605   6.687   8.352   6.311 -0.0500  0.3985 -0.1986
53276SOL    HW168606   6.703   8.321   6.400  0.9619  2.3264  0.3611
53276SOL    HW268607   6.642   8.436   6.323  2.2861  1.9322 -1.3404
53277SOL     OW68608  11.090   4.472  11.237 -0.0281  0.3070 -0.2726
53277SOL    HW168609  11.012   4.500  11.284 -0.7464  0.7632 -1.6664
53277SOL    HW268610  11.163   4.488  11.297 -0.8842  0.9692  0.6067
53278SOL     OW68611  12.567  11.331   0.044  0.3961  0.4485  0.0504
53278SOL    HW168612  12.616  11.268   0.097 -0.3132 -0.7141 -0.6326
53278SOL    HW268613  12.607  11.415   0.065  2.4356 -0.3838 -0.1625
53279SOL     OW68614   2.442   1.898   6.695 -0.1388 -0.2250 -0.0282
53279SOL    HW168615   2.473   1.828   6.637 -1.1757  0.5458 -1.5756
53279SOL    HW268616   2.357   1.868   6.725 -0.2018 -0.0115  0.0053
53280SOL     OW68617   0.127   0.904   2.340 -0.4638  0.1852 -0.1051
53280SOL    HW168618   0.135   0.894   2.245  3.4810 -1.8938  0.2194
53280SOL    HW268619   0.215   0.927   2.369 -1.3597 -0.0055  3.1522
53281SOL     OW68620  10.049   4.985  10.473 -0.3764  0.3836 -0.3031
53281SOL    HW168621  10.136   4.946  10.470 -1.0708 -1.4505  1.3013
53281SOL    HW268622  10.058   5.068  10.425  1.9563 -0.2544 -1.0978
53282SOL     OW68623   5.588   1.765   3.851 -0.4076  0.2210 -0.5471
53282SOL    HW168624   5.602   1.830   3.782 -0.2476  1.2702  0.4319
53282SOL    HW268625   5.676   1.734   3.873 -0.3825  0.4298 -0.3360
53283SOL     OW68626   4.223   0.947   5.029  0.4108 -0.0479 -0.4762
53283SOL    HW168627   4.159   0.936   4.959  0.3338  0.6320 -0.5218
53283SOL    HW268628   4.304   0.972   4.984  0.3505  0.4307 -0.3226
53284SOL     OW68629   2.419   8.576  12.596  0.2218  0.1240 -0.3947
53284SOL    HW168630   2.495   8.566  12.539  0.6262 -0.8120  0.2897
53284SOL    HW268631   2.383   8.487  12.605 -1.2067  0.6054 -1.0391
53285SOL     OW68632   1.782  12.557  11.170 -0.2642  0.0323  0.0955
53285SOL    HW168633   1.809  12.630  11.114 -0.0014 -0.2205 -0.1167
53285SOL    HW268634   1.858  12.499  11.171 -0.2050  0.1109  0.8541
53286SOL     OW68635  11.811   1.836   4.558  0.0687  0.2092 -0.2959
53286SOL    HW168636  11.734   1.889   4.534 -0.3939 -0.3108  0.0314
53286SOL    HW268637  11.775   1.752   4.584  0.5252  0.7589  2.3603
53287SOL     OW68638   9.561   0.108   7.377  0.1982 -0.5569 -0.0023
53287SOL    HW168639   9.621   0.181   7.364 -0.9516  1.0110  2.7091
53287SOL    HW268640   9.478   0.136   7.338  0.0508 -0.8787  0.0681
53288SOL     OW68641   4.320   9.543   2.915 -0.7550 -0.4285  0.2328
53288SOL    HW168642   4.413   9.543   2.940 -0.7295  2.2523  0.4920
53288SOL    HW268643   4.306   9.459   2.873  0.9038 -2.4364  3.2997
53289SOL     OW68644   0.370   3.004   3.046  0.4405  0.6951  0.5970
53289SOL    HW168645   0.341   2.943   3.114 -3.2125 -0.8375 -2.0438
53289SOL    HW268646   0.292   3.019   2.992  3.1596  1.3429 -3.5991
53290SOL     OW68647   0.692   9.763  12.431 -0.1064 -0.6998  0.2041
53290SOL    HW168648   0.753   9.829  12.464  1.7252 -1.8024 -0.7658
53290SOL    HW268649   0.669   9.710  12.507 -1.7822  1.1154  1.0368
53291SOL     OW68650   2.413   3.943   5.190  0.3155 -0.2296  0.3354
53291SOL    HW168651   2.406   3.906   5.102 -0.9279  2.0238 -0.5759
53291SOL    HW268652   2.411   4.037   5.177 -1.6662  0.1753  2.8743
53292SOL     OW68653   6.793   5.358   4.382 -0.0428 -0.5670 -0.8436
53292SOL    HW168654   6.753   5.436   4.420 -0.9954 -0.1755 -2.5340
53292SOL    HW268655   6.855   5.391   4.317 -0.8601 -1.1903 -1.9765
53293SOL     OW68656   3.944   0.165   6.360 -0.1057  0.2329  0.6413
53293SOL    HW168657   3.995   0.108   6.417  1.4582  0.1802 -0.7454
53293SOL    HW268658   3.963   0.135   6.271  0.2931  2.4674 -0.1097
53294SOL     OW68659   8.986   2.492   2.228 -0.0756  0.1174  0.1633
53294SOL    HW168660   9.018   2.548   2.299  1.4735 -0.8263  0.2406
53294SOL    HW268661   9.026   2.528   2.149 -0.1837 -0.0603  0.0275
53295SOL     OW68662  12.337   2.655   6.680 -0.4758 -0.1624 -0.2699
53295SOL    HW168663  12.289   2.589   6.729 -0.6719  1.4949  1.9569
53295SOL    HW268664  12.272   2.722   6.659 -0.3928 -0.7997 -2.9038
53296SOL     OW68665   7.049   2.125   2.235 -0.5051  0.0725  0.1637
53296SOL    HW168666   6.998   2.067   2.178  0.2940 -0.6355  0.1507
53296SOL    HW268667   7.043   2.211   2.193 -0.8201 -0.2181 -0.3984
53297SOL     OW68668   6.796  11.834   8.883 -0.3616 -0.3102  0.1943
53297SOL    HW168669   6.759  11.909   8.835 -0.1946 -0.3860 -0.0557
53297SOL    HW268670   6.849  11.789   8.818 -0.6997 -0.8148  0.2654
53298SOL     OW68671   4.939  11.585   3.975  0.0989  0.1860  0.0471
53298SOL    HW168672   4.963  11.669   4.014 -0.9759 -0.3956  2.1157
53298SOL    HW268673   4.919  11.529   4.050  1.3346 -2.1168 -1.2323
53299SOL     OW68674   1.302   7.912   1.132  0.8859  0.9145 -0.0740
53299SOL    HW168675   1.313   7.999   1.170  0.1918  0.3579  1.5199
53299SOL    HW268676   1.221   7.917   1.082  1.5628  1.5289 -1.1614
53300SOL     OW68677   6.384   2.646   7.876 -0.3481  0.3910 -0.0842
53300SOL    HW168678   6.325   2.685   7.941  0.2616  0.4187  0.4690
53300SOL    HW268679   6.392   2.554   7.903 -2.7296 -0.5133 -2.0699
53301SOL     OW68680   1.024   0.005   9.561 -0.4319 -0.2084  0.3878
53301SOL    HW168681   1.017  -0.084   9.527  0.1465  0.0792 -0.5138
53301SOL    HW268682   1.102   0.003   9.616 -0.8860 -0.4537  1.0465
53302SOL     OW68683   0.517   6.538   9.772  0.1293  0.0569 -0.1323
53302SOL    HW168684   0.464   6.524   9.694 -0.5477  0.1951  0.2957
53302SOL    HW268685   0.591   6.590   9.742 -0.6116  0.9216 -0.5116
53303SOL     OW68686   5.317   2.420   1.468  0.3735  0.5591  0.2750
53303SOL    HW168687   5.232   2.457   1.445  0.0874 -0.4833 -0.4430
53303SOL    HW268688   5.380   2.471   1.418  0.1017  0.9040  0.2851
53304SOL     OW68689   6.594   6.494   4.900  0.8833 -0.0406 -0.8844
53304SOL    HW168690   6.578   6.588   4.894  0.7262 -0.0358 -0.4055
53304SOL    HW268691   6.508   6.454   4.889  0.5359 -0.0249  1.3329
53305SOL     OW68692   2.854  10.125   0.074 -0.4090 -0.3069 -0.6042
53305SOL    HW168693   2.801  10.149   0.150  1.7815 -0.3805  1.0616
53305SOL    HW268694   2.903  10.205   0.053  1.3297 -1.1080  0.1523
53306SOL     OW68695  12.074   6.068   8.912 -0.0356  0.4503 -0.3301
53306SOL    HW168696  12.105   5.995   8.858  0.5831  1.4009 -1.3096
53306SOL    HW268697  12.141   6.078   8.980 -0.9707 -0.9515  0.8789
53307SOL     OW68698   4.913   2.549  12.183 -0.2431 -0.0987  0.2215
53307SOL    HW168699   4.879   2.559  12.093 -0.4639 -0.4169  0.2688
53307SOL    HW268700   5.006   2.567  12.175 -0.7042  2.8338  0.4243
53308SOL     OW68701   1.938   6.991   6.322  0.3747 -0.0207 -0.1761
53308SOL    HW168702   1.980   6.996   6.408  1.0719  2.6921 -0.5948
53308SOL    HW268703   1.867   7.055   6.326 -1.3354 -1.7622 -0.8066
53309SOL     OW68704   1.587   2.425   8.556 -0.5936  0.4179 -0.1896
53309SOL    HW168705   1.572   2.420   8.651 -0.5786  2.5488 -0.0173
53309SOL    HW268706   1.513   2.378   8.517 -0.7400 -0.2598  0.8747
53310SOL     OW68707   4.807   2.729   4.952  0.5795  0.7056 -0.4175
53310SOL    HW168708   4.759   2.804   4.916  0.3403 -0.1622 -1.9989
53310SOL    HW268709   4.883   2.719   4.894  0.6998 -0.1723 -0.1259
53311SOL     OW68710   2.883   5.760   1.145 -0.1938  0.5073 -0.4811
53311SOL    HW168711   2.853   5.772   1.235  0.3952 -0.7028 -0.1052
53311SOL    HW268712   2.819   5.701   1.106 -0.3245  0.8534 -0.7999
53312SOL     OW68713  11.944   4.689   4.901 -0.1569 -0.6185  0.0149
53312SOL    HW168714  12.013   4.750   4.874  0.0395 -1.4289 -1.3775
53312SOL    HW268715  11.875   4.701   4.836 -0.9246 -0.5333  0.8285
53313SOL     OW68716   6.513   9.334   3.460  0.2429  0.6389  0.4227
53313SOL    HW168717   6.605   9.362   3.468  0.7551 -1.3704  2.8864
53313SOL    HW268718   6.517   9.253   3.409 -0.2001  0.6477  0.3715
53314SOL     OW68719  12.229  10.156   2.327 -0.0450  0.1734  0.3275
53314SOL    HW168720  12.265  10.077   2.369  0.6899 -0.4647 -1.4335
53314SOL    HW268721  12.304  10.215   2.319  0.3488 -0.5330 -1.8985
53315SOL     OW68722   0.323  11.178   1.548  0.2119  0.0973 -0.1537
53315SOL    HW168723   0.249  11.222   1.505 -0.3323 -0.6984 -0.0598
53315SOL    HW268724   0.283  11.122   1.614  0.6312 -2.5570 -2.0020
53316SOL     OW68725   6.447   2.735   0.468  0.0438  0.0558  0.0643
53316SOL    HW168726   6.470   2.793   0.395 -1.7199  0.8473  0.0671
53316SOL    HW268727   6.515   2.750   0.533  0.8558  0.4250 -0.8467
53317SOL     OW68728   1.576   4.748   1.846  0.3116  0.1066 -0.0355
53317SOL    HW168729   1.592   4.841   1.860 -0.3838  0.5053 -1.6525
53317SOL    HW268730   1.589   4.735   1.752  1.4647 -1.6665  0.3221
53318SOL     OW68731  11.171   1.746  12.045 -0.3612  0.4432 -0.7671
53318SOL    HW168732  11.257   1.754  12.005  0.4523 -0.3769  0.7212
53318SOL    HW268733  11.160   1.651  12.058 -1.3858  0.5571 -0.7204
53319SOL     OW68734   4.958   6.808   8.290  0.1108  0.3192  0.2328
53319SOL    HW168735   4.981   6.778   8.378 -0.7367 -0.1307  0.3125
53319SOL    HW268736   4.886   6.751   8.264 -1.0298  1.7845  0.0765
53320SOL     OW68737  11.641   1.949  10.230 -0.6385  0.0112  0.0596
53320SOL    HW168738  11.580   2.022  10.234  0.2804  0.8864 -1.0537
53320SOL    HW268739  11.626   1.901  10.311 -1.4436  1.2885  0.7084
53321SOL     OW68740  11.962   3.028  10.223  0.3675 -0.2971 -0.0909
53321SOL    HW168741  12.054   3.003  10.210  0.2262 -0.7097 -0.3045
53321SOL    HW268742  11.962   3.123  10.209  0.6450 -0.3880 -0.7974
53322SOL     OW68743   8.630   4.517   9.193  0.2389 -0.2021 -0.3463
53322SOL    HW168744   8.657   4.495   9.104 -1.5254 -1.3117 -0.6678
53322SOL    HW268745   8.598   4.607   9.187  3.3364  1.0539 -0.0069
53323SOL     OW68746   7.270   7.012  12.413 -0.2191 -0.0548 -0.0859
53323SOL    HW168747   7.359   7.033  12.442 -1.0451  1.5407  1.5016
53323SOL    HW268748   7.213   7.055  12.477 -2.1531 -1.7731 -0.5244
53324SOL     OW68749  12.110  10.609   3.386  0.0187  0.3547  0.2805
53324SOL    HW168750  12.131  10.694   3.426  1.9506 -0.0706  0.2586
53324SOL    HW268751  12.032  10.626   3.334 -0.3941  1.8024  1.3066
53325SOL     OW68752  10.911   6.684   2.998  0.3679 -0.0523 -0.0677
53325SOL    HW168753  10.831   6.679   3.050  0.8854 -1.7931  0.6268
53325SOL    HW268754  10.982   6.688   3.063  0.9279 -0.3286 -0.6516
53326SOL     OW68755   4.298   3.140   8.030 -0.0175 -0.1330 -0.3035
53326SOL    HW168756   4.260   3.057   8.059 -0.4551  0.4184  0.7414
53326SOL    HW268757   4.308   3.191   8.110  0.6928  0.6452 -0.8780
53327SOL     OW68758   5.477  12.198  12.135 -0.1668  0.0690  0.4111
53327SOL    HW168759   5.434  12.204  12.220 -0.6135 -1.6327  0.3416
53327SOL    HW268760   5.447  12.276  12.088  0.3091  1.1827  1.8797
53328SOL     OW68761   4.562   9.821   8.879 -0.1531 -0.0705 -0.3955
53328SOL    HW168762   4.551   9.835   8.973 -1.2715 -3.0875  0.0438
53328SOL    HW268763   4.654   9.795   8.869  0.1918  1.0722 -0.2939
53329SOL     OW68764   4.411  12.463   2.192  0.0127 -0.3393 -0.5133
53329SOL    HW168765   4.364  12.454   2.109  0.3967  0.2661 -0.8052
53329SOL    HW268766   4.385  12.549   2.225  0.1913 -0.3976 -0.2183
53330SOL     OW68767  10.217  11.079   5.374  0.3851 -0.1276  0.1104
53330SOL    HW168768  10.185  11.121   5.454 -1.6256  0.4007 -0.8991
53330SOL    HW268769  10.275  11.144   5.334 -0.4646  0.5762 -0.0140
53331SOL     OW68770  10.640   2.666   6.392  1.1149  0.5595 -0.3915
53331SOL    HW168771  10.687   2.612   6.456 -1.8518 -1.0466  0.6091
53331SOL    HW268772  10.578   2.606   6.352 -0.4448  2.6538 -1.2496
53332SOL     OW68773   0.232   4.993   8.723 -0.3484 -0.0145  0.0747
53332SOL    HW168774   0.294   5.036   8.664 -0.7394  1.0297  0.4116
53332SOL    HW268775   0.169   5.061   8.745 -1.9645 -1.2099 -0.6999
53333SOL     OW68776   6.504   2.987  12.102  0.4549  0.3498 -1.0531
53333SOL    HW168777   6.510   3.027  12.188 -0.8245  0.7470 -1.1249
53333SOL    HW268778   6.448   3.046  12.052 -2.0104 -1.7457 -0.9879
53334SOL     OW68779   8.276   4.894   9.533 -0.4663 -0.1916 -0.0638
53334SOL    HW168780   8.345   4.932   9.588 -0.9418  1.4254 -0.5228
53334SOL    HW268781   8.195   4.918   9.578 -0.8040 -0.1231 -0.7061
53335SOL     OW68782  10.601   8.924   6.910  0.2862  0.3729 -0.0723
53335SOL    HW168783  10.675   8.977   6.942 -0.9537  1.9181  0.3767
53335SOL    HW268784  10.613   8.839   6.952  0.4773  1.3593  2.0118
53336SOL     OW68785   5.714   0.073   1.284  0.2287 -0.1740 -0.1399
53336SOL    HW168786   5.692   0.104   1.372  2.1351  0.2571  0.2412
53336SOL    HW268787   5.721   0.152   1.231  0.2147 -0.3376 -0.3888
53337SOL     OW68788   2.558   6.585   4.874  0.3134  0.3879  0.3751
53337SOL    HW168789   2.630   6.529   4.846 -0.0991  0.6355 -1.2930
53337SOL    HW268790   2.551   6.570   4.968  0.1164 -2.4791 -0.0242
53338SOL     OW68791   5.663   9.493  10.632  0.6249 -0.1206 -0.0989
53338SOL    HW168792   5.598   9.427  10.605  0.7416 -0.6157  0.7665
53338SOL    HW268793   5.610   9.563  10.670  0.3741  1.1122 -2.5367
53339SOL     OW68794   8.254   2.216   5.622  0.6469  0.1528  0.0805
53339SOL    HW168795   8.192   2.285   5.646  1.1908  0.3466  0.9917
53339SOL    HW268796   8.299   2.251   5.544 -1.3913 -0.6407 -1.5301
53340SOL     OW68797   7.476   2.361   7.391 -0.0442  0.0775  0.2292
53340SOL    HW168798   7.425   2.307   7.331 -2.6045  1.9978  0.4799
53340SOL    HW268799   7.491   2.443   7.343  0.2089  0.6406  1.2317
53341SOL     OW68800   7.312   1.761   0.363  0.2293  0.2202  0.1216
53341SOL    HW168801   7.272   1.760   0.450  0.2599  0.1400  0.1350
53341SOL    HW268802   7.253   1.814   0.310 -0.1389 -0.2840  0.0264
53342SOL     OW68803  12.597   2.840   8.825  0.2625  0.3032  0.0768
53342SOL    HW168804  12.525   2.901   8.844 -0.0720 -0.4302  1.2978
53342SOL    HW268805  12.654   2.845   8.902  1.5082  0.8164 -0.8467
53343SOL     OW68806   8.005   2.901   6.661  0.4522  0.8280 -0.5601
53343SOL    HW168807   8.009   2.911   6.756  0.2966  1.4558 -0.6095
53343SOL    HW268808   7.938   2.965   6.634 -0.6586 -0.4375 -0.9373
53344SOL     OW68809  12.463   5.401   8.288  0.1883  0.1823 -0.0456
53344SOL    HW168810  12.427   5.485   8.258  0.9095 -0.2368 -2.2968
53344SOL    HW268811  12.558   5.411   8.282  0.2912 -0.6913 -0.0530
53345SOL     OW68812   4.227   4.121   5.846 -0.1982  0.0376  0.4359
53345SOL    HW168813   4.172   4.183   5.894 -1.0914  0.7407 -1.4145
53345SOL    HW268814   4.221   4.040   5.897  0.9195  1.3650  2.8611
53346SOL     OW68815   0.815   4.843   6.158 -0.0617  0.0342  0.0709
53346SOL    HW168816   0.817   4.937   6.177 -1.1546  0.1608 -0.3578
53346SOL    HW268817   0.724   4.826   6.135  0.1130 -1.1582  0.2413
53347SOL     OW68818  10.516   6.729   6.146 -0.1390 -0.0133 -0.7314
53347SOL    HW168819  10.429   6.733   6.187  0.0749  0.9099 -0.3229
53347SOL    HW268820  10.559   6.811   6.173  0.4841  0.0280 -1.7685
53348SOL     OW68821   1.798   1.883   3.645  0.5807 -0.5563 -0.2500
53348SOL    HW168822   1.759   1.970   3.643 -0.8553 -1.1778 -1.7588
53348SOL    HW268823   1.891   1.898   3.662  0.7522  1.4329 -2.5635
53349SOL     OW68824   5.406   2.943  10.699  0.0758  0.2704  0.0022
53349SOL    HW168825   5.390   2.854  10.728 -0.0503  0.6991  1.3405
53349SOL    HW268826   5.467   2.979  10.764 -1.1647  1.6548  0.4617
53350SOL     OW68827   3.835   1.274   2.436 -0.2505  0.5024 -1.0274
53350SOL    HW168828   3.924   1.309   2.427  0.0312  0.1754  0.1918
53350SOL    HW268829   3.800   1.318   2.514 -0.6843 -0.2938 -0.7585
53351SOL     OW68830   5.851   4.757   0.536  0.0428  0.5666 -0.1068
53351SOL    HW168831   5.790   4.829   0.516 -1.0456 -0.8017 -2.0941
53351SOL    HW268832   5.936   4.800   0.545 -0.5700  2.1306 -1.1898
53352SOL     OW68833   1.543   3.580   7.028 -0.2749 -0.3118 -0.0684
53352SOL    HW168834   1.567   3.511   6.966 -1.1713  0.2932 -1.1507
53352SOL    HW268835   1.451   3.562   7.050 -0.2586  0.0407  0.3070
53353SOL     OW68836   4.107   1.705   3.980 -0.0021 -0.0165  0.7125
53353SOL    HW168837   4.031   1.664   4.022 -1.1645  0.3761 -0.9406
53353SOL    HW268838   4.114   1.662   3.895  1.5686  0.0577  0.7758
53354SOL     OW68839   0.112   3.651  10.916  0.5484 -0.3779  0.0981
53354SOL    HW168840   0.205   3.644  10.896  0.5397 -1.0661  0.2519
53354SOL    HW268841   0.086   3.561  10.939  0.2012  0.0812  1.5919
53355SOL     OW68842   5.872   2.213   5.164  0.0057 -0.4228  0.4311
53355SOL    HW168843   5.862   2.118   5.154 -0.7906 -0.3812  0.7233
53355SOL    HW268844   5.962   2.225   5.195  0.6694 -0.9459 -1.2232
53356SOL     OW68845   6.153   1.557   8.608  0.8185 -0.0398 -0.3274
53356SOL    HW168846   6.186   1.477   8.566  0.4089 -0.0163 -0.6925
53356SOL    HW268847   6.168   1.626   8.543 -0.7165 -0.1667 -0.8405
53357SOL     OW68848   5.320   5.933   3.324 -0.3012 -0.0632 -0.3438
53357SOL    HW168849   5.250   5.912   3.263  0.5289 -1.6914 -0.8204
53357SOL    HW268850   5.288   5.903   3.409 -0.7194  0.4752 -0.3090
53358SOL     OW68851  11.454   1.734   5.213 -0.1207 -0.1088  0.2525
53358SOL    HW168852  11.435   1.803   5.150 -0.4604  0.4056  0.9116
53358SOL    HW268853  11.549   1.739   5.226 -0.0212 -0.3622 -0.3854
53359SOL     OW68854   3.865   6.343   0.529  0.3439  0.0678  0.1898
53359SOL    HW168855   3.862   6.260   0.577 -0.1002 -0.2901 -0.4381
53359SOL    HW268856   3.773   6.371   0.525  0.5848  1.0705  1.2036
53360SOL     OW68857  10.211   9.756   2.035  0.1683 -0.6918  0.3266
53360SOL    HW168858  10.184   9.728   2.122 -0.6338 -0.5366  0.1379
53360SOL    HW268859  10.249   9.843   2.048  1.1899 -1.1726  0.6846
53361SOL     OW68860   0.560  11.025   8.960 -0.0278  0.1716 -0.3653
53361SOL    HW168861   0.481  11.077   8.943 -0.1523  0.7624  1.7332
53361SOL    HW268862   0.599  11.013   8.874 -1.4433  1.4331 -1.2413
53362SOL     OW68863   6.232  12.268   8.073  0.1334 -0.0904 -0.3418
53362SOL    HW168864   6.182  12.234   8.147  1.1293  0.6609  0.7096
53362SOL    HW268865   6.297  12.200   8.055  2.0006  1.0480  1.6358
53363SOL     OW68866   7.251   9.911   5.564  0.5824  0.7052 -0.3670
53363SOL    HW168867   7.167   9.955   5.550  0.6181  1.2007  0.8985
53363SOL    HW268868   7.296   9.964   5.629  1.0377 -0.6724  0.4870
53364SOL     OW68869  11.175   4.814   9.123  0.0343 -0.4113  0.0569
53364SOL    HW168870  11.130   4.815   9.038  0.2551  1.9992 -0.1024
53364SOL    HW268871  11.196   4.906   9.140  0.8059 -0.9441  2.3154
53365SOL     OW68872  10.890   7.492   6.927 -0.0001  0.2949  0.4092
53365SOL    HW168873  10.967   7.482   6.982 -0.1657 -1.5344  0.3804
53365SOL    HW268874  10.879   7.406   6.885 -1.5570  0.7681 -0.2391
53366SOL     OW68875   5.097  11.186   1.214  0.1796  0.0290  0.5932
53366SOL    HW168876   5.097  11.107   1.160  0.5930 -0.6656  1.5948
53366SOL    HW268877   5.004  11.207   1.226  0.0806  0.2193 -0.3990
53367SOL     OW68878  10.254   5.849   6.551  0.4031  0.3537 -0.1741
53367SOL    HW168879  10.294   5.929   6.517  0.0771  0.2868 -0.7407
53367SOL    HW268880  10.277   5.848   6.644 -0.3375  1.5729  0.0543
53368SOL     OW68881  11.218   5.536   5.147 -0.1576  0.0155 -0.1521
53368SOL    HW168882  11.168   5.519   5.227 -0.4483 -0.1761 -0.3712
53368SOL    HW268883  11.271   5.613   5.168 -2.8750  2.2807 -0.9305
53369SOL     OW68884   6.372   7.587   1.785  0.0721  0.1433 -0.3067
53369SOL    HW168885   6.293   7.551   1.745  0.6337 -1.1434 -0.3050
53369SOL    HW268886   6.349   7.599   1.877  0.0967 -0.9036 -0.1613
53370SOL     OW68887  11.199  11.209   3.141 -0.6079 -0.1172 -0.6364
53370SOL    HW168888  11.116  11.173   3.110 -0.9906  0.5777 -0.4493
53370SOL    HW268889  11.180  11.302   3.157 -0.3262 -0.3545  1.3026
53371SOL     OW68890  10.451   1.236   1.646 -0.2791 -0.1775 -0.3835
53371SOL    HW168891  10.505   1.157   1.636  0.8396  0.2872  1.4820
53371SOL    HW268892  10.369   1.214   1.604  0.0942 -2.2669 -0.1433
53372SOL     OW68893   4.604   9.563   2.931 -0.0746  0.1152 -0.4403
53372SOL    HW168894   4.634   9.643   2.887  0.4787  0.1176 -0.0716
53372SOL    HW268895   4.612   9.583   3.024  1.9688 -1.0427 -0.3148
53373SOL     OW68896   7.090  10.471   2.673 -0.3583 -0.0623 -0.3047
53373SOL    HW168897   7.105  10.560   2.704 -0.8992  0.0625 -0.3994
53373SOL    HW268898   7.053  10.482   2.585  0.1131 -0.3892 -0.5511
53374SOL     OW68899   6.791   5.646   1.668 -0.2558  0.2539  0.6544
53374SOL    HW168900   6.847   5.583   1.622 -0.0427  0.9338 -0.0357
53374SOL    HW268901   6.730   5.678   1.601 -0.2465  0.9120  0.9507
53375SOL     OW68902   0.142   8.910   6.883  0.3773  0.2050 -0.2553
53375SOL    HW168903   0.065   8.941   6.835  0.5510  1.4542  0.2425
53375SOL    HW268904   0.189   8.856   6.819 -0.0227  0.8415 -1.1120
53376SOL     OW68905   7.552   3.670   6.778 -0.3053  0.0016 -0.0552
53376SOL    HW168906   7.459   3.691   6.770 -0.5289 -0.6352  0.6904
53376SOL    HW268907   7.563   3.646   6.870  0.9902  1.8675  0.3325
53377SOL     OW68908   7.399   2.508   4.245 -0.4061 -0.5058  0.0889
53377SOL    HW168909   7.344   2.434   4.271 -0.6775 -0.4564 -0.3349
53377SOL    HW268910   7.482   2.494   4.292 -0.3099 -1.2992 -0.2883
53378SOL     OW68911  11.191   1.785   9.586  0.2876  0.1112  0.2291
53378SOL    HW168912  11.227   1.776   9.498 -1.6483  1.0567 -0.7234
53378SOL    HW268913  11.209   1.701   9.628  2.2142  0.0249 -0.6620
53379SOL     OW68914   6.000   2.169   5.687  0.5503  0.0235 -0.0329
53379SOL    HW168915   6.062   2.117   5.636 -1.1272 -0.8775 -1.2834
53379SOL    HW268916   5.986   2.247   5.634  0.2632 -0.0120 -0.0107
53380SOL     OW68917   7.641  12.300   1.094  0.7564 -0.0543  0.1671
53380SOL    HW168918   7.548  12.304   1.116  0.2925  0.4687 -1.6876
53380SOL    HW268919   7.686  12.322   1.176 -0.7785  0.9346  0.7894
53381SOL     OW68920   2.344   3.087   8.827 -0.3076 -0.3973 -0.0153
53381SOL    HW168921   2.358   2.993   8.844 -0.2523 -0.0040  2.5669
53381SOL    HW268922   2.265   3.109   8.877  0.9902  1.3784  1.3844
53382SOL     OW68923   1.977   6.626   9.382  0.6593  0.1112 -0.2704
53382SOL    HW168924   1.989   6.545   9.331 -2.2976  0.2472 -1.3769
53382SOL    HW268925   2.052   6.680   9.358  0.3835 -0.5717 -3.1198
53383SOL     OW68926  10.079   2.692  11.655  0.2194 -0.0770 -0.3100
53383SOL    HW168927  10.082   2.778  11.613 -0.8522 -0.9971 -2.3934
53383SOL    HW268928  10.046   2.709  11.743  0.4989  1.6813 -0.5114
53384SOL     OW68929   0.236   5.049   6.238 -0.3427 -0.6657  0.7490
53384SOL    HW168930   0.204   5.005   6.317 -1.2637 -0.8961  0.2560
53384SOL    HW268931   0.302   5.111   6.270  0.0537 -1.4922  1.5896
53385SOL     OW68932  10.706  12.324  11.912  0.3149 -0.2972 -0.5529
53385SOL    HW168933  10.707  12.325  11.816  1.4819 -2.4008 -0.5992
53385SOL    HW268934  10.788  12.365  11.937  0.9129 -1.5031 -0.5067
53386SOL     OW68935   7.421   8.374   7.966  0.3167  0.0738  0.6609
53386SOL    HW168936   7.514   8.365   7.991  0.2711 -0.5968  0.5940
53386SOL    HW268937   7.404   8.299   7.909 -0.2221  0.3000  0.5225
53387SOL     OW68938   5.737  10.856   0.743  0.6608 -0.1255  0.0126
53387SOL    HW168939   5.752  10.776   0.794  1.2395 -0.4341 -0.6405
53387SOL    HW268940   5.687  10.826   0.667  0.1115  0.2827  0.2074
53388SOL     OW68941   5.040  11.817   1.884 -0.0658 -0.6238 -0.0109
53388SOL    HW168942   4.952  11.827   1.848  0.1648 -0.5654 -0.5566
53388SOL    HW268943   5.084  11.755   1.826  1.5842  2.3224 -2.1827
53389SOL     OW68944   1.264   6.790   5.617  0.4409  0.5503  0.2670
53389SOL    HW168945   1.212   6.854   5.666  0.7614  2.2835 -1.5026
53389SOL    HW268946   1.321   6.844   5.562  1.5127 -1.2986 -0.5075
53390SOL     OW68947   9.401   6.237   2.214 -0.5341  0.4728  0.5313
53390SOL    HW168948   9.358   6.282   2.287 -1.9731 -0.6268  0.4134
53390SOL    HW268949   9.333   6.179   2.179  0.1329  0.9088 -1.6431
53391SOL     OW68950   9.699   8.952  11.772 -0.2796  0.2426 -0.0067
53391SOL    HW168951   9.670   8.906  11.850 -2.7762  0.4560 -0.7181
53391SOL    HW268952   9.720   8.883  11.709  1.7770  0.0704  0.7871
53392SOL     OW68953   1.375   7.496   6.140  0.0293 -0.4172  0.5045
53392SOL    HW168954   1.345   7.586   6.151 -0.7525 -0.7964  1.6974
53392SOL    HW268955   1.345   7.471   6.053 -2.3947 -0.4610  1.2742
53393SOL     OW68956   3.843   8.021   9.895 -0.3064 -0.0707 -0.4662
53393SOL    HW168957   3.855   7.940   9.946 -0.2454 -1.8633 -3.1363
53393SOL    HW268958   3.750   8.041   9.905 -0.3507 -0.5139  0.1138
53394SOL     OW68959   4.222   9.680  10.575  0.3129  0.4487 -0.0967
53394SOL    HW168960   4.190   9.594  10.602  0.5188  1.1764  2.8604
53394SOL    HW268961   4.305   9.663  10.531 -0.1822 -0.9069 -0.5553
53395SOL     OW68962  10.397   6.488   4.247 -0.2240 -0.5425  0.1910
53395SOL    HW168963  10.314   6.472   4.292 -0.1763 -0.7559  0.2054
53395SOL    HW268964  10.393   6.434   4.168 -0.3916 -0.0101 -0.1698
53396SOL     OW68965   8.073  10.232  11.879  0.4421  0.2882  0.7751
53396SOL    HW168966   8.053  10.232  11.786 -0.8346 -0.4456  1.0133
53396SOL    HW268967   8.160  10.271  11.886  0.2933  0.9240 -0.6564
53397SOL     OW68968   1.133  10.249   4.234 -0.2218 -0.2669 -0.0458
53397SOL    HW168969   1.133  10.193   4.156  1.8963  0.9113 -1.0099
53397SOL    HW268970   1.070  10.318   4.214  0.9075  0.4994 -1.1687
53398SOL     OW68971   5.308   4.772   6.950  0.5892  0.2442 -0.9458
53398SOL    HW168972   5.365   4.761   6.874  1.0397 -0.3053 -0.5490
53398SOL    HW268973   5.359   4.734   7.022 -0.2621 -0.2121 -0.5725
53399SOL     OW68974   8.710   5.153   4.602  0.4748  0.3822 -0.8261
53399SOL    HW168975   8.656   5.139   4.680  2.2178 -0.5009  0.2828
53399SOL    HW268976   8.766   5.228   4.624  3.3110 -1.8559  0.2218
53400SOL     OW68977   2.150   7.211  11.440  0.7102  0.0007 -0.5973
53400SOL    HW168978   2.154   7.256  11.356 -0.5318 -1.3586 -1.4473
53400SOL    HW268979   2.159   7.280  11.506 -2.3931  1.7178 -1.7880
53401SOL     OW68980   2.492  12.540   3.683 -0.4415  0.2286  0.4486
53401SOL    HW168981   2.538  12.623   3.701 -1.9055  1.9866 -2.9829
53401SOL    HW268982   2.399  12.563   3.687 -0.8662 -0.8328 -1.9617
53402SOL     OW68983   7.207   3.479   7.242  0.0177 -0.3090 -0.1409
53402SOL    HW168984   7.121   3.459   7.278 -0.2036  2.2378  1.0123
53402SOL    HW268985   7.189   3.536   7.167  0.6693  1.6743  1.1427
53403SOL     OW68986   9.229   5.677  11.139  0.4820  0.1710  0.2782
53403SOL    HW168987   9.250   5.764  11.172 -0.4143 -0.1063  1.6886
53403SOL    HW268988   9.158   5.692  11.077  2.4857  0.7498 -2.0331
53404SOL     OW68989  11.464   3.503   3.669 -0.0495 -0.3635  0.2878
53404SOL    HW168990  11.431   3.418   3.639 -1.6876  0.3719 -0.1141
53404SOL    HW268991  11.393   3.564   3.649  0.8533  1.0029  1.1307
53405SOL     OW68992   3.698   9.412   1.635 -0.4259 -0.0679 -0.3614
53405SOL    HW168993   3.698   9.501   1.671  2.2739 -0.1155 -0.0171
53405SOL    HW268994   3.726   9.357   1.708  1.4774 -0.6615 -1.4569
53406SOL     OW68995  10.992   0.965   9.721  0.4425  0.2359 -0.7398
53406SOL    HW168996  10.924   0.926   9.776 -0.5449  2.0048 -0.6380
53406SOL    HW268997  10.960   0.953   9.632 -0.9398  2.5328 -0.6430
53407SOL     OW68998   9.470   7.946   0.635  0.7415  0.1950 -0.4309
53407SOL    HW168999   9.465   7.959   0.730  0.2413  1.9944 -0.6758
53407SOL    HW269000   9.512   7.860   0.625  0.7400 -0.0583  1.4061
53408SOL     OW69001   1.113   5.394   6.380  0.0615 -0.7013 -0.0989
53408SOL    HW169002   1.112   5.395   6.476 -2.0522  1.9254 -0.0242
53408SOL    HW269003   1.024   5.367   6.355 -0.5171  1.8379 -1.1545
53409SOL     OW69004   6.415   6.818   2.160 -0.5151 -0.1497 -0.2785
53409SOL    HW169005   6.454   6.731   2.164  0.5389  0.3414  0.5635
53409SOL    HW269006   6.490   6.878   2.156 -1.2189  0.7331 -0.7882
53410SOL     OW69007   7.311   4.904  11.897  0.5786  0.3930 -0.0123
53410SOL    HW169008   7.246   4.974  11.892  0.1483  0.1049  1.2384
53410SOL    HW269009   7.262   4.825  11.878  0.8830  0.3250 -0.5366
53411SOL     OW69010   2.385  11.881   8.843  0.3649  0.2878 -0.5757
53411SOL    HW169011   2.380  11.954   8.906 -0.5785 -0.1356 -0.1403
53411SOL    HW269012   2.391  11.803   8.898 -0.7091 -0.1053 -1.0035
53412SOL     OW69013   2.442  10.936   0.987 -0.0442  0.0483  0.1523
53412SOL    HW169014   2.357  10.965   0.952  1.0358  0.4253 -2.3586
53412SOL    HW269015   2.462  10.857   0.937  1.4306  0.3965  0.1726
53413SOL     OW69016  11.198   0.246   6.163  0.2737 -0.7624  0.0807
53413SOL    HW169017  11.265   0.217   6.225  2.0955 -0.8414 -1.8216
53413SOL    HW269018  11.225   0.334   6.138 -0.4891 -0.6874 -0.5288
53414SOL     OW69019   1.687  10.928   7.951 -0.6276 -0.1981  0.2047
53414SOL    HW169020   1.645  11.001   7.996  1.8501  0.5263  1.5024
53414SOL    HW269021   1.694  10.859   8.017  0.5320 -0.1545  0.1448
53415SOL     OW69022   1.443  11.149   1.052  0.0106  0.5208  0.4463
53415SOL    HW169023   1.510  11.214   1.072 -0.3029  0.7661  0.7170
53415SOL    HW269024   1.483  11.092   0.986  1.3966 -0.8063  2.3235
53416SOL     OW69025   3.402   3.084   3.796  0.0257  0.0596 -0.4798
53416SOL    HW169026   3.452   3.107   3.875 -3.1507  2.0594  1.1977
53416SOL    HW269027   3.402   3.165   3.744 -0.3914 -0.3010 -1.0508
53417SOL     OW69028   6.386   1.383  12.549 -0.1301  0.4721  0.2259
53417SOL    HW169029   6.373   1.327  12.625 -0.0885  0.7434  0.4359
53417SOL    HW269030   6.343   1.337  12.477  2.0855 -1.1230 -0.1869
53418SOL     OW69031   1.621   6.169   0.139 -0.3596 -0.5353 -0.2214
53418SOL    HW169032   1.670   6.236   0.091 -0.6250 -0.0754  0.1364
53418SOL    HW269033   1.530   6.199   0.135 -0.4447 -0.7340  0.1727
53419SOL     OW69034   2.556   7.511   9.588  0.0428 -0.1208 -0.4895
53419SOL    HW169035   2.624   7.452   9.620 -0.8569 -1.3421 -0.7345
53419SOL    HW269036   2.480   7.492   9.644  0.0022  1.5029  0.0468
53420SOL     OW69037  11.716   6.483   1.250 -0.0850  0.0092  0.1950
53420SOL    HW169038  11.794   6.538   1.241 -0.3273  0.0685 -1.8503
53420SOL    HW269039  11.723   6.446   1.338  1.6442  0.9261  0.4792
53421SOL     OW69040   7.195   7.079   0.221 -0.4436 -0.2799  0.4271
53421SOL    HW169041   7.282   7.067   0.182  0.3353 -0.1144  2.0167
53421SOL    HW269042   7.142   7.117   0.151  1.1757  1.0250 -0.1594
53422SOL     OW69043   1.645   4.027  11.925  0.0874 -0.3990 -0.1489
53422SOL    HW169044   1.723   4.043  11.978 -1.5956  3.1302  1.5470
53422SOL    HW269045   1.629   4.109  11.879 -2.3316 -1.1643 -0.8439
53423SOL     OW69046   4.904   1.298   0.783  1.0879  0.6254  0.0151
53423SOL    HW169047   4.872   1.219   0.739  1.3863  0.8117 -0.5416
53423SOL    HW269048   4.994   1.278   0.807  0.6350  0.1537  1.4601
53424SOL     OW69049   8.112   2.521   7.620 -0.0942 -0.3965 -0.4749
53424SOL    HW169050   8.073   2.540   7.706  2.1396 -1.0028  0.7561
53424SOL    HW269051   8.148   2.605   7.591 -0.2408 -0.3391 -0.4920
53425SOL     OW69052   7.090   3.428   5.212 -0.0595  0.0883 -0.9658
53425SOL    HW169053   7.142   3.502   5.243 -1.7398  0.6271  0.7101
53425SOL    HW269054   7.125   3.352   5.260 -3.0128  0.9884  3.1399
53426SOL     OW69055   9.775  11.851   0.594  0.2181  0.5028 -0.0395
53426SOL    HW169056   9.683  11.863   0.618  0.4942  0.8332  0.9041
53426SOL    HW269057   9.772  11.803   0.511 -0.7987  0.4242  0.0255
53427SOL     OW69058   0.954   5.374   1.976 -0.2841 -0.3462 -0.0752
53427SOL    HW169059   0.926   5.423   1.899 -0.5819  2.6623  1.7787
53427SOL    HW269060   1.048   5.391   1.982  0.1954 -2.3995 -0.9052
53428SOL     OW69061   8.287   0.956  11.199  0.5726  0.3679  0.4241
53428SOL    HW169062   8.222   0.985  11.263 -0.2134 -1.7978  0.7079
53428SOL    HW269063   8.236   0.936  11.121  0.9805 -0.5570  0.3798
53429SOL     OW69064   7.236  11.788   0.414 -0.3650  0.2718  0.1752
53429SOL    HW169065   7.243  11.867   0.468 -0.5032  2.3083 -2.5471
53429SOL    HW269066   7.327  11.768   0.390 -0.2646 -0.8786  1.3847
53430SOL     OW69067  10.632   2.980   1.133 -0.0077 -0.4433  0.4286
53430SOL    HW169068  10.671   3.051   1.081  0.4004 -1.0558 -0.1175
53430SOL    HW269069  10.648   2.901   1.081  0.0346 -1.0132  1.2939
53431SOL     OW69070   3.658   6.439   2.085 -0.0428 -0.4814  0.2231
53431SOL    HW169071   3.641   6.526   2.046  0.1390 -0.8015 -0.5941
53431SOL    HW269072   3.643   6.452   2.178  0.0793  0.4617  0.1284
53432SOL     OW69073   1.081   3.338  10.841 -0.2710  0.2021 -0.0520
53432SOL    HW169074   1.071   3.326  10.936 -1.2994  1.3677  0.0046
53432SOL    HW269075   1.172   3.365  10.830 -0.1864  0.2067  0.6193
53433SOL     OW69076   2.248   2.668   8.126  0.4356 -0.3388 -0.3966
53433SOL    HW169077   2.311   2.597   8.140 -1.3495 -2.2707 -1.5543
53433SOL    HW269078   2.214   2.653   8.038 -0.1813  1.8722 -0.5981
53434SOL     OW69079   2.639   8.521  11.329 -0.6155 -0.2553 -0.2958
53434SOL    HW169080   2.587   8.467  11.388  0.3678 -0.4824  0.3912
53434SOL    HW269081   2.583   8.597  11.310  0.0386  1.3335  3.2894
53435SOL     OW69082   7.108  11.247  10.070 -0.1698 -0.7013 -0.7905
53435SOL    HW169083   7.161  11.169  10.055 -1.0860 -1.5161  0.1090
53435SOL    HW269084   7.023  11.226  10.033 -0.1569  0.2499 -1.3945
53436SOL     OW69085   1.560   8.019   7.934  0.1432  0.1238 -0.1977
53436SOL    HW169086   1.476   8.063   7.942  0.6555  1.0647  0.2742
53436SOL    HW269087   1.558   7.951   8.001  0.5352  1.4851  1.2477
53437SOL     OW69088   1.406   8.208   9.561 -0.0014  0.2407  0.0337
53437SOL    HW169089   1.452   8.178   9.483 -0.6464 -1.9357  0.4339
53437SOL    HW269090   1.314   8.214   9.535 -0.0843  0.4944  0.3736
53438SOL     OW69091   7.596   5.920   6.073  0.0388  0.1842  0.7317
53438SOL    HW169092   7.532   5.968   6.020 -0.2292 -1.4041 -0.4620
53438SOL    HW269093   7.545   5.852   6.117  0.7890 -0.6862  0.2942
53439SOL     OW69094   2.755   9.735   7.345  0.1416 -0.0309 -0.0045
53439SOL    HW169095   2.683   9.791   7.374 -0.7284 -1.0407 -0.1277
53439SOL    HW269096   2.714   9.674   7.283  0.9366 -1.1363  0.5254
53440SOL     OW69097   3.485   7.965   1.270  0.6178 -0.3274 -0.8771
53440SOL    HW169098   3.547   7.916   1.324  1.6925  0.9744 -0.8552
53440SOL    HW269099   3.436   8.019   1.332 -0.3493 -1.1128 -0.9278
53441SOL     OW69100  11.011   1.808   2.823 -1.0390 -0.2652  0.2289
53441SOL    HW169101  11.039   1.733   2.771  0.4005 -0.1426  0.7863
53441SOL    HW269102  10.948   1.854   2.767 -0.7583 -1.0317 -0.7380
53442SOL     OW69103   7.035   0.227  10.385  0.1851 -0.4913 -0.0803
53442SOL    HW169104   7.035   0.264  10.473  1.1004  0.4000 -0.4194
53442SOL    HW269105   7.090   0.288  10.335 -2.4075  0.5265 -1.9012
53443SOL     OW69106   3.151   0.509   0.858  0.3593  0.0141 -0.1983
53443SOL    HW169107   3.121   0.590   0.816  0.3190 -0.1039 -0.3981
53443SOL    HW269108   3.091   0.497   0.931 -0.6789 -0.7234 -1.1500
53444SOL     OW69109  10.088   7.650  11.627 -0.4356 -0.2759  0.3028
53444SOL    HW169110  10.081   7.676  11.719  0.1455 -1.4559  0.7017
53444SOL    HW269111  10.032   7.572  11.619 -1.0548  0.2338 -0.5234
53445SOL     OW69112  11.137  12.296   3.854 -1.1795 -0.0329  0.0218
53445SOL    HW169113  11.192  12.219   3.869  0.6092  1.2522  0.3875
53445SOL    HW269114  11.048  12.263   3.860 -0.4702 -2.0532  0.2668
53446SOL     OW69115   1.948  10.124   4.457 -0.1351  0.2059 -0.1859
53446SOL    HW169116   1.921  10.097   4.369  1.2879 -4.6492  0.5321
53446SOL    HW269117   1.873  10.103   4.512  0.5400 -1.2696  0.2298
53447SOL     OW69118   3.422   8.856  11.837 -0.3262 -0.5197  0.0570
53447SOL    HW169119   3.474   8.781  11.809 -1.0783 -0.8403 -0.5047
53447SOL    HW269120   3.461   8.931  11.791 -0.9212 -0.8969 -1.1206
53448SOL     OW69121   0.612  10.349   0.554 -0.6243  0.6805 -0.1668
53448SOL    HW169122   0.656  10.395   0.626 -0.4596  0.7450 -0.3077
53448SOL    HW269123   0.626  10.406   0.478  0.6289 -0.1976 -0.6108
53449SOL     OW69124   1.691  10.947   3.253 -0.3160  0.2760 -0.4219
53449SOL    HW169125   1.636  10.912   3.183  1.6507  1.0452 -2.4607
53449SOL    HW269126   1.703  11.039   3.231 -0.0178  0.6652  1.2117
53450SOL     OW69127   2.790   2.373   5.340 -0.2944  0.7377  0.0836
53450SOL    HW169128   2.804   2.448   5.399 -0.0437  0.3606  0.5102
53450SOL    HW269129   2.781   2.412   5.254  0.7511  1.1991  0.1702
53451SOL     OW69130   5.808   5.567   2.949 -0.0850 -0.1159 -0.4993
53451SOL    HW169131   5.788   5.573   2.855 -0.3809 -0.2905 -0.4486
53451SOL    HW269132   5.886   5.620   2.960 -0.2461  0.1832 -0.7886
53452SOL     OW69133   8.658   2.856   1.513 -0.0242  0.2159  0.1934
53452SOL    HW169134   8.605   2.825   1.440  0.7728 -0.7534 -0.0003
53452SOL    HW269135   8.670   2.778   1.569  3.4332 -0.4220 -1.1529
53453SOL     OW69136   4.684   2.392   8.404  0.1208  0.5009 -0.5731
53453SOL    HW169137   4.590   2.376   8.406  0.2696 -0.2953  0.6786
53453SOL    HW269138   4.703   2.407   8.311 -0.8348 -1.8558 -1.2280
53454SOL     OW69139   9.037   8.183   8.783 -0.2920  0.1195  0.5241
53454SOL    HW169140   9.042   8.101   8.734  0.0428  0.6331 -0.3109
53454SOL    HW269141   9.071   8.160   8.870 -5.2614 -2.0091  2.2614
53455SOL     OW69142   1.141   3.913   2.101 -0.7426 -0.8731 -0.4502
53455SOL    HW169143   1.075   3.975   2.132 -1.9806 -2.2320 -0.2619
53455SOL    HW269144   1.224   3.950   2.129 -1.5942 -0.3233  1.4637
53456SOL     OW69145   9.279   0.469   1.932  0.1788 -0.1492  0.1913
53456SOL    HW169146   9.275   0.502   2.022 -1.8548 -0.3551  0.2286
53456SOL    HW269147   9.255   0.377   1.939 -0.3145 -0.0944 -0.5791
53457SOL     OW69148   9.638   4.165   9.196 -0.1705 -0.2420 -0.0823
53457SOL    HW169149   9.583   4.098   9.237  0.6657 -0.2287  1.1291
53457SOL    HW269150   9.616   4.246   9.243  0.6822 -0.1941  0.2556
53458SOL     OW69151   1.642   5.953   6.566 -0.1977  0.3815  0.2779
53458SOL    HW169152   1.683   5.912   6.490 -1.4977  0.7041 -0.6287
53458SOL    HW269153   1.712   6.005   6.606  0.4270  0.4633 -0.8781
53459SOL     OW69154  10.995  10.810  11.145  0.4903 -0.4478  0.2608
53459SOL    HW169155  10.971  10.807  11.238 -0.1128  1.9700  0.2496
53459SOL    HW269156  10.911  10.807  11.099  0.7676 -1.2073 -0.2155
53460SOL     OW69157   1.985  10.261   3.676 -0.0425 -0.1665  0.4683
53460SOL    HW169158   1.902  10.307   3.684  1.4536  3.1876 -1.4164
53460SOL    HW269159   1.970  10.198   3.605 -1.2916 -0.5194  1.0187
53461SOL     OW69160   5.998   6.546   3.005  0.5288 -0.2099 -1.0437
53461SOL    HW169161   5.983   6.483   2.935  0.0253 -0.8059 -0.3995
53461SOL    HW269162   5.911   6.576   3.030  0.6056 -1.0891  0.3257
53462SOL     OW69163   5.431   9.104  12.520 -0.1835 -0.1584 -0.4765
53462SOL    HW169164   5.486   9.152  12.582 -0.4927  0.6735 -0.8253
53462SOL    HW269165   5.467   9.016  12.519 -0.6791 -0.4352  1.5236
53463SOL     OW69166   6.184  10.498   3.974 -0.4515 -0.3278  0.3550
53463SOL    HW169167   6.185  10.417   3.922 -0.8003 -0.2357  0.1990
53463SOL    HW269168   6.187  10.568   3.908 -1.4445 -0.2051  0.4298
53464SOL     OW69169   1.434   3.552   3.547  0.1801 -0.3469 -0.1719
53464SOL    HW169170   1.368   3.584   3.609  0.0027 -1.1821  0.0735
53464SOL    HW269171   1.515   3.595   3.574 -0.2589  0.7819 -0.5432
53465SOL     OW69172   2.293   5.861   7.497 -0.7689  0.0425  0.6128
53465SOL    HW169173   2.277   5.927   7.430  0.7197  1.1875  1.3156
53465SOL    HW269174   2.283   5.777   7.451 -1.3093  0.7759 -0.6458
53466SOL     OW69175  11.502  12.086   3.947  0.0947  0.1108  0.0262
53466SOL    HW169176  11.485  12.044   4.031  0.8223 -1.8217 -0.7326
53466SOL    HW269177  11.591  12.060   3.925  0.1798  1.1988 -1.0042
53467SOL     OW69178   1.595   8.450   6.591 -0.0831  0.7325 -0.4307
53467SOL    HW169179   1.601   8.412   6.503  0.1456 -0.5203  0.1187
53467SOL    HW269180   1.518   8.508   6.586 -0.7252 -0.1433 -1.1481
53468SOL     OW69181   3.904   0.988   3.822  0.2829  0.6270  0.5040
53468SOL    HW169182   3.912   1.063   3.881  0.1234 -0.3076  1.7466
53468SOL    HW269183   3.995   0.962   3.804  0.3138  0.4396  0.9439
53469SOL     OW69184   8.626  11.410  11.735 -0.4212  0.1542  0.4147
53469SOL    HW169185   8.609  11.335  11.678  0.7520 -0.8658  1.3339
53469SOL    HW269186   8.555  11.471  11.717 -2.7443 -2.1364  1.2695
53470SOL     OW69187   2.201   4.485   7.801 -0.3326 -0.2541 -0.0446
53470SOL    HW169188   2.151   4.501   7.721 -0.9656  0.1405  0.4207
53470SOL    HW269189   2.143   4.514   7.871  0.6685  0.4979  0.4870
53471SOL     OW69190   4.797   7.407   6.866  0.6418  0.2428  0.3523
53471SOL    HW169191   4.798   7.498   6.837 -2.4197  0.0876 -0.6228
53471SOL    HW269192   4.860   7.363   6.808  0.1527  1.2961 -1.0457
53472SOL     OW69193   9.751  11.161   7.793 -0.0503 -0.4339  0.6481
53472SOL    HW169194   9.836  11.131   7.827 -0.6664 -1.0748  1.6837
53472SOL    HW269195   9.751  11.134   7.701  1.1031  0.1061  0.4696
53473SOL     OW69196   5.729   2.311   8.735  0.0941  0.2767  0.5373
53473SOL    HW169197   5.660   2.365   8.697 -0.1953 -0.9076 -0.6885
53473SOL    HW269198   5.702   2.221   8.717  1.6832 -0.2211  0.5103
53474SOL     OW69199   1.868   9.515   2.758 -0.1758 -0.0227 -0.3179
53474SOL    HW169200   1.808   9.466   2.815  0.4328 -1.8238 -1.1380
53474SOL    HW269201   1.859   9.606   2.786 -1.0115 -0.6435  1.6139
53475SOL     OW69202   2.560   0.768   4.152  0.0101 -0.0841 -0.1661
53475SOL    HW169203   2.582   0.850   4.196  1.0302 -0.9527  1.0126
53475SOL    HW269204   2.633   0.752   4.091 -1.5377  1.2698 -2.5332
53476SOL     OW69205   2.512  11.292   2.516  0.1020 -0.4073  0.3334
53476SOL    HW169206   2.530  11.199   2.529 -1.2300 -0.4826  2.0024
53476SOL    HW269207   2.538  11.309   2.425 -0.1164 -2.5173 -0.1815
53477SOL     OW69208   6.064   0.783   7.975  0.1003  0.2268  0.1252
53477SOL    HW169209   6.054   0.715   7.909 -2.3540  0.3199  0.3029
53477SOL    HW269210   6.156   0.778   8.001 -0.1470 -3.6005  0.7722
53478SOL     OW69211   2.379   0.929  11.562 -0.1569  0.1296  0.0707
53478SOL    HW169212   2.434   0.855  11.538 -0.6665 -0.4926  0.7601
53478SOL    HW269213   2.295   0.910  11.520 -0.0711  0.6985 -0.3649
53479SOL     OW69214   8.166   3.845   9.365 -0.0402 -0.1943  0.3651
53479SOL    HW169215   8.197   3.869   9.278 -1.1192  1.2233  0.3233
53479SOL    HW269216   8.085   3.796   9.350 -1.3063  1.7222  0.5396
53480SOL     OW69217   7.215   1.659  11.318  0.1347  0.1440 -0.0316
53480SOL    HW169218   7.288   1.712  11.283  0.7624  0.1829  1.2886
53480SOL    HW269219   7.161   1.640  11.241 -0.0780  2.6357 -0.5762
53481SOL     OW69220   6.073   0.258   3.474  0.0450 -0.3762 -0.0623
53481SOL    HW169221   6.088   0.319   3.546  1.0402 -0.6563 -0.0246
53481SOL    HW269222   6.093   0.172   3.510  3.4186 -0.3074 -1.3644
53482SOL     OW69223   2.618   2.783   5.059 -0.1927  0.1416  0.0923
53482SOL    HW169224   2.587   2.787   4.968 -0.7064 -0.6165  0.2300
53482SOL    HW269225   2.583   2.862   5.099  2.0610  1.8069 -0.9613
53483SOL     OW69226   2.489  11.912  10.359  0.0593 -0.2912  0.2927
53483SOL    HW169227   2.481  11.880  10.269 -0.8687 -0.1625  0.3250
53483SOL    HW269228   2.581  11.940  10.366  0.1017 -0.1567 -0.6642
53484SOL     OW69229   0.014   6.648   9.530 -0.7422  0.0292  0.4286
53484SOL    HW169230  -0.027   6.616   9.610  0.2351 -2.3999  0.0419
53484SOL    HW269231   0.090   6.697   9.560 -1.2549  0.4945  0.9977
53485SOL     OW69232  12.158  10.215   8.284 -0.2724  0.3889  0.5533
53485SOL    HW169233  12.174  10.136   8.232 -0.2073  1.0643 -0.4951
53485SOL    HW269234  12.195  10.286   8.231  0.3074  1.0558  1.7944
53486SOL     OW69235   8.132   3.518   8.519 -0.2038 -0.4181  0.3035
53486SOL    HW169236   8.057   3.459   8.530  0.0487 -1.3191 -2.2059
53486SOL    HW269237   8.128   3.576   8.595 -1.8793 -2.1288  1.6240
53487SOL     OW69238   2.166   6.746   8.056 -1.1733 -0.0307  0.2423
53487SOL    HW169239   2.131   6.741   7.967  0.2668 -3.8039 -0.2811
53487SOL    HW269240   2.258   6.770   8.044 -0.8460 -1.0385  0.6372
53488SOL     OW69241  10.349   4.448  10.101  0.1782 -0.8230 -0.0406
53488SOL    HW169242  10.423   4.508  10.105 -1.5593  1.5233 -0.7396
53488SOL    HW269243  10.386   4.363  10.126  2.8887  0.3767  0.4517
53489SOL     OW69244   1.351   8.842   5.703 -0.5268 -0.6148  0.2845
53489SOL    HW169245   1.397   8.765   5.669  2.2155  1.0041  0.1099
53489SOL    HW269246   1.270   8.845   5.653 -0.1575 -2.7091 -0.5328
53490SOL     OW69247   0.025   4.836   8.907 -0.3363  0.4531  0.1363
53490SOL    HW169248   0.102   4.893   8.913  0.0172  0.1105 -0.8607
53490SOL    HW269249  -0.048   4.891   8.933  0.2695  0.6995  1.4132
53491SOL     OW69250   7.482   9.590   1.031 -0.5361 -0.1672  0.2080
53491SOL    HW169251   7.463   9.524   0.965 -0.7218  1.1403 -1.1071
53491SOL    HW269252   7.450   9.672   0.992  0.1427  0.7736  1.5634
53492SOL     OW69253   6.533   6.387   1.232 -0.2186  0.2446  0.6274
53492SOL    HW169254   6.581   6.336   1.167  0.9061  1.7623  0.2000
53492SOL    HW269255   6.600   6.422   1.290 -1.1859 -0.8805  2.5197
53493SOL     OW69256   6.648   1.989   0.327 -0.4195  0.1209 -0.3629
53493SOL    HW169257   6.597   1.926   0.275 -0.2277 -0.5024  0.1811
53493SOL    HW269258   6.608   1.987   0.414 -1.7728  2.3735 -0.8764
53494SOL     OW69259   0.343  11.673   4.216 -0.5085 -0.4409 -0.0639
53494SOL    HW169260   0.302  11.648   4.133  0.3971 -0.3000 -0.5609
53494SOL    HW269261   0.283  11.640   4.283 -0.8877 -1.1881 -0.7559
53495SOL     OW69262  12.195   4.085   4.941  0.2088 -0.0393  0.4748
53495SOL    HW169263  12.266   4.145   4.965  2.0793 -1.9841  0.0479
53495SOL    HW269264  12.215   4.059   4.851 -2.0873  0.7281 -0.3385
53496SOL     OW69265   0.668   5.186   3.981  0.3345 -0.2342  0.2681
53496SOL    HW169266   0.584   5.149   4.010 -1.0541  2.2274 -0.2866
53496SOL    HW269267   0.712   5.209   4.063  0.2162 -1.0075  0.5600
53497SOL     OW69268  11.759   2.475  10.659  0.1694 -0.1047  0.0555
53497SOL    HW169269  11.838   2.425  10.639  0.5014  0.5918 -0.4181
53497SOL    HW269270  11.790   2.553  10.704 -0.2246  0.2859 -0.3386
53498SOL     OW69271   6.528   9.375   7.805  0.0585  0.7031  0.4179
53498SOL    HW169272   6.567   9.460   7.826  0.0156  0.5744  1.0471
53498SOL    HW269273   6.589   9.335   7.743  0.9009  0.5281  1.3475
53499SOL     OW69274   3.772   8.218   6.925  0.1263  0.1765  0.3077
53499SOL    HW169275   3.860   8.185   6.941  0.3596  1.5481  2.2755
53499SOL    HW269276   3.765   8.297   6.980 -2.4563 -0.1302  0.5846
53500SOL     OW69277   0.685   8.333  10.525  0.0916 -0.1134 -0.4145
53500SOL    HW169278   0.679   8.276  10.602 -1.2039 -0.9915 -1.1433
53500SOL    HW269279   0.610   8.310  10.471  0.3540  1.2704 -1.4389
53501SOL     OW69280   3.525   0.088   5.182 -0.5487  0.4485 -0.2781
53501SOL    HW169281   3.486   0.173   5.158  2.6869  1.8999 -0.9429
53501SOL    HW269282   3.606   0.084   5.132  0.7627 -1.8226  1.8168
53502SOL     OW69283   9.848   9.844   8.594 -0.5586 -0.5877  0.1887
53502SOL    HW169284   9.868   9.768   8.648 -1.1631 -0.2617  0.8971
53502SOL    HW269285   9.770   9.818   8.545 -0.4161 -0.6355 -0.0131
53503SOL     OW69286   7.230   5.807   6.164 -0.1245 -0.0592 -0.0593
53503SOL    HW169287   7.228   5.713   6.146 -1.8856 -0.1482  0.3560
53503SOL    HW269288   7.208   5.847   6.080  0.9279  0.0144 -0.3108
53504SOL     OW69289   8.927   5.859   3.310 -0.4264  0.1873 -0.1442
53504SOL    HW169290   8.932   5.774   3.265  0.6273 -0.3312  0.9018
53504SOL    HW269291   8.986   5.916   3.259  0.1525 -0.1806  0.1017
53505SOL     OW69292   9.619  11.120  11.003 -0.2518 -0.3785  0.0588
53505SOL    HW169293   9.713  11.131  11.017 -0.0981 -2.8087  1.5122
53505SOL    HW269294   9.579  11.185  11.060  0.4959  1.4088 -1.3696
53506SOL     OW69295   4.735   8.403   3.070  0.2354  0.2446  0.2033
53506SOL    HW169296   4.676   8.467   3.110 -0.5354  0.6591 -1.4963
53506SOL    HW269297   4.731   8.422   2.977  1.0339 -1.4370 -0.2105
53507SOL     OW69298   1.611   8.164   0.605  0.7330 -0.0304  0.3145
53507SOL    HW169299   1.579   8.195   0.521  2.0439 -2.0746 -1.0340
53507SOL    HW269300   1.532   8.150   0.657 -0.1073  1.1600 -0.5956
53508SOL     OW69301  10.289   2.694   8.759  0.4619  0.2015 -0.0888
53508SOL    HW169302  10.232   2.633   8.712 -0.7824 -0.0353  1.6440
53508SOL    HW269303  10.231   2.761   8.793  1.3339  0.4621  0.9603
53509SOL     OW69304   7.081   9.349   6.475  0.0776 -0.5117  0.4117
53509SOL    HW169305   7.065   9.278   6.538  0.7032 -0.9947  0.0415
53509SOL    HW269306   7.094   9.304   6.392  0.3065  0.0552  0.1401
53510SOL     OW69307   6.701   2.704   5.970 -0.1509  0.2977  0.6790
53510SOL    HW169308   6.618   2.656   5.962  0.2735 -0.1348 -2.1450
53510SOL    HW269309   6.751   2.655   6.034 -1.0108 -1.1404  0.3059
53511SOL     OW69310   7.469   0.535  12.007  0.1851 -0.0436 -0.5555
53511SOL    HW169311   7.521   0.609  11.977  0.0598  0.5260  0.5734
53511SOL    HW269312   7.426   0.502  11.928 -0.5978  1.7533 -0.9391
53512SOL     OW69313  11.862  10.280   2.237 -0.1816 -0.5490  0.0324
53512SOL    HW169314  11.903  10.264   2.322 -2.9842  0.1270  1.6240
53512SOL    HW269315  11.851  10.193   2.199 -1.2061 -1.1126  1.5508
53513SOL     OW69316   9.495   7.384  12.000 -0.9176  0.3906  0.7732
53513SOL    HW169317   9.566   7.385  12.064  1.0818  0.7190 -1.3220
53513SOL    HW269318   9.488   7.292  11.973  0.6795  0.7458 -1.0105
53514SOL     OW69319  10.910  10.139   3.447 -0.0655  0.2276  0.1271
53514SOL    HW169320  10.975  10.156   3.380 -0.7457 -1.2679 -0.9695
53514SOL    HW269321  10.864  10.223   3.458  0.8951  0.8260 -0.3132
53515SOL     OW69322  11.016   4.741   5.085  0.4287 -0.3878  0.4020
53515SOL    HW169323  10.927   4.776   5.090 -0.1063 -1.5922 -0.1284
53515SOL    HW269324  11.064   4.806   5.033 -0.1840  0.1933  0.5451
53516SOL     OW69325   2.850   0.254   6.728 -0.7479 -0.6862  0.0394
53516SOL    HW169326   2.887   0.190   6.789  1.5201  1.6279  1.2629
53516SOL    HW269327   2.923   0.278   6.671 -1.0826  1.8917  0.5998
53517SOL     OW69328   5.639   2.245   7.472 -0.4900 -0.0068  0.1765
53517SOL    HW169329   5.684   2.161   7.479 -1.1304 -0.2523  1.9031
53517SOL    HW269330   5.555   2.225   7.431  0.2994  0.2030 -1.6116
53518SOL     OW69331   3.816   1.647   0.560 -0.2650  0.4522 -0.3222
53518SOL    HW169332   3.807   1.741   0.544 -0.3514  1.1321  3.0420
53518SOL    HW269333   3.728   1.619   0.585 -0.2945 -0.6372 -1.5529
53519SOL     OW69334   7.515   0.930   3.168  0.5056 -0.6588 -0.2316
53519SOL    HW169335   7.580   0.965   3.107 -1.0240 -1.6650 -2.5701
53519SOL    HW269336   7.531   0.836   3.170  1.8227 -0.4993  2.6506
53520SOL     OW69337   8.901   9.364   7.851  0.1478 -0.1372 -0.8460
53520SOL    HW169338   8.977   9.410   7.887  0.5674 -1.6135  0.2813
53520SOL    HW269339   8.936   9.310   7.781  0.4804 -1.9771  0.6565
53521SOL     OW69340   9.304   7.545   2.922  0.1252  0.5016  0.8831
53521SOL    HW169341   9.232   7.552   2.984  0.5867  0.2740  1.4540
53521SOL    HW269342   9.341   7.458   2.938 -0.2859  0.0904 -0.3096
53522SOL     OW69343  12.457   6.740   6.965  0.1970 -0.3940  0.3641
53522SOL    HW169344  12.406   6.786   7.033 -1.3622  0.3210 -1.2180
53522SOL    HW269345  12.391   6.708   6.904  1.2974 -3.9047  0.8015
53523SOL     OW69346  11.912   2.529   6.748  0.3806 -0.8837  0.2741
53523SOL    HW169347  11.828   2.502   6.784  1.0066 -3.5243  0.0063
53523SOL    HW269348  11.952   2.582   6.817 -1.4503  0.3616  0.4181
53524SOL     OW69349  10.660   8.173   3.853  0.0711  0.5821 -0.3207
53524SOL    HW169350  10.727   8.120   3.811  0.2638  0.5872 -0.0222
53524SOL    HW269351  10.616   8.113   3.914  1.6256  1.2199  1.5417
53525SOL     OW69352   6.680   1.574   0.526 -0.5472  0.0609  0.8994
53525SOL    HW169353   6.684   1.487   0.566  2.5700 -1.2151 -1.6911
53525SOL    HW269354   6.666   1.557   0.433  0.2931  2.3065  0.3022
53526SOL     OW69355  10.404   2.870   0.458  0.3780 -1.0107 -0.0428
53526SOL    HW169356  10.333   2.848   0.399  0.3006  0.0248 -0.3484
53526SOL    HW269357  10.481   2.879   0.402  0.0020  1.5526 -0.2836
53527SOL     OW69358  12.078  12.064   4.251 -0.5034  0.6842 -0.4026
53527SOL    HW169359  12.127  11.987   4.282 -0.5592  0.8634  0.1353
53527SOL    HW269360  11.988  12.032   4.242 -0.5071  0.6629 -0.2854
53528SOL     OW69361   2.796  10.352   1.356 -0.0431  0.4757  0.6201
53528SOL    HW169362   2.813  10.324   1.266  0.3252 -2.4760  1.5285
53528SOL    HW269363   2.792  10.448   1.350  0.5600  0.4199 -2.4070
53529SOL     OW69364   7.262   4.717   5.524  0.3996 -0.1884 -0.2265
53529SOL    HW169365   7.319   4.684   5.594  0.8181 -1.1716 -1.0037
53529SOL    HW269366   7.189   4.656   5.521  0.2275  0.0268 -0.4439
53530SOL     OW69367   8.018   7.132   4.012  0.2705 -0.4498  0.0207
53530SOL    HW169368   8.020   7.084   4.095 -0.8614  0.8198  0.8406
53530SOL    HW269369   7.946   7.093   3.963 -0.5882  0.2878  0.6479
53531SOL     OW69370   9.454   4.147   1.817  0.1864  0.1939 -0.4603
53531SOL    HW169371   9.549   4.155   1.825  0.1069 -0.4333  2.0006
53531SOL    HW269372   9.435   4.061   1.854 -1.4609  0.9360  0.4889
53532SOL     OW69373   2.127   2.382   1.461 -0.6457 -0.1897  0.1158
53532SOL    HW169374   2.104   2.459   1.409 -1.1169  1.2627  2.3208
53532SOL    HW269375   2.220   2.368   1.443 -0.1678  1.8440  0.7484
53533SOL     OW69376  12.460   6.897   5.393 -0.3208 -0.7203 -0.0733
53533SOL    HW169377  12.531   6.934   5.445 -1.9437  0.4449  1.4199
53533SOL    HW269378  12.430   6.969   5.338  0.3792 -1.5285 -1.5617
53534SOL     OW69379   8.355   5.525   8.924 -0.1034 -0.3203  0.5469
53534SOL    HW169380   8.286   5.467   8.892 -0.5655  0.0703  0.8239
53534SOL    HW269381   8.400   5.554   8.845  0.5777 -1.5902  0.4429
53535SOL     OW69382  10.994   6.981  11.084 -0.1983 -0.5544  0.1618
53535SOL    HW169383  10.902   6.982  11.058 -0.6304 -1.5907  1.5243
53535SOL    HW269384  11.006   7.061  11.136 -0.3273 -0.4257 -0.0072
53536SOL     OW69385   7.816  10.062   0.789 -0.0117  0.0752 -0.0725
53536SOL    HW169386   7.819  10.153   0.758  0.2851 -0.8230 -2.9190
53536SOL    HW269387   7.896  10.052   0.840 -0.1525  1.4188  0.4885
53537SOL     OW69388   7.947   6.843   2.836 -0.0730  0.0593 -0.2059
53537SOL    HW169389   7.907   6.779   2.776  0.8102 -1.4518  0.7521
53537SOL    HW269390   8.010   6.890   2.782 -0.3139 -0.2881 -0.8018
53538SOL     OW69391   2.085  10.596   6.159 -0.0352 -0.0561 -0.6851
53538SOL    HW169392   2.171  10.621   6.126  0.0099  1.3388  0.4029
53538SOL    HW269393   2.036  10.569   6.081  1.1355 -0.1307 -1.4124
53539SOL     OW69394   6.948   5.488   7.166 -0.4493 -0.2963  0.3933
53539SOL    HW169395   6.859   5.503   7.198 -1.2299 -0.5811 -1.4982
53539SOL    HW269396   6.986   5.425   7.227 -2.1203 -1.3801  0.3586
53540SOL     OW69397  10.042   7.864   2.107  0.2491 -0.0526  0.3692
53540SOL    HW169398  10.058   7.824   2.021  0.8165 -2.1965  1.3882
53540SOL    HW269399   9.947   7.873   2.112  0.2821  2.4514 -1.3940
53541SOL     OW69400   9.099   8.774   8.495  0.3585  1.0435 -0.0375
53541SOL    HW169401   9.138   8.757   8.409 -0.4264  2.1896 -0.6573
53541SOL    HW269402   9.154   8.843   8.532  0.2863  1.0364  0.0828
53542SOL     OW69403   4.272   5.864   8.876 -0.6075 -0.5633 -0.7302
53542SOL    HW169404   4.244   5.933   8.936 -1.2869 -1.0713 -0.4480
53542SOL    HW269405   4.361   5.843   8.903 -1.4617 -1.9507  1.2125
53543SOL     OW69406   0.253   9.625   2.048  0.2589 -0.2217 -0.0742
53543SOL    HW169407   0.217   9.559   2.107  1.2057 -0.6228  0.0702
53543SOL    HW269408   0.176   9.670   2.013 -0.3207  0.3630  1.8303
53544SOL     OW69409   4.971   7.073   7.186 -0.1444  0.8502 -0.2257
53544SOL    HW169410   4.956   7.041   7.097  0.8524  0.4433 -0.2548
53544SOL    HW269411   5.051   7.124   7.180  0.4146  0.1055  0.6027
53545SOL     OW69412   6.580   2.506   3.265 -0.1753 -0.1314 -0.2358
53545SOL    HW169413   6.554   2.598   3.263 -0.9764 -0.3468 -2.1954
53545SOL    HW269414   6.650   2.502   3.330 -0.1197  1.8614 -0.1171
53546SOL     OW69415  10.466   7.043   0.584 -0.4896 -0.1249  0.7099
53546SOL    HW169416  10.461   7.013   0.494 -0.8150 -1.1774  1.0590
53546SOL    HW269417  10.547   7.094   0.588 -0.4242 -0.1498 -0.1496
53547SOL     OW69418   0.118  12.513   7.268  0.5158 -0.4502 -0.6123
53547SOL    HW169419   0.036  12.511   7.319  0.5634 -1.7947 -0.5570
53547SOL    HW269420   0.091  12.495   7.178  0.6221  0.3334 -0.8100
53548SOL     OW69421   9.460   1.123   5.187 -0.1327  0.1264  0.0349
53548SOL    HW169422   9.480   1.030   5.198  0.5889  0.2567 -0.1243
53548SOL    HW269423   9.524   1.168   5.242  0.8942  0.6020 -1.4680
53549SOL     OW69424   7.175   9.962   4.722  0.0513 -0.0749  0.1604
53549SOL    HW169425   7.240   9.926   4.782  0.7383  0.7756 -0.0465
53549SOL    HW269426   7.143  10.040   4.766 -1.3525 -0.8480  0.5659
53550SOL     OW69427  10.707   7.048   7.402 -0.6876  0.2300  0.6400
53550SOL    HW169428  10.765   7.047   7.478  0.7126  0.6438 -0.3708
53550SOL    HW269429  10.767   7.048   7.327 -2.0280 -1.0726 -0.4764
53551SOL     OW69430   0.600   6.828   7.621 -0.2136 -0.1721  0.0316
53551SOL    HW169431   0.585   6.890   7.693 -0.4348  0.4806 -0.5639
53551SOL    HW269432   0.513   6.805   7.591 -0.1263 -0.6659  0.1528
53552SOL     OW69433   8.669   4.186   8.456  0.3373  0.0598  0.0905
53552SOL    HW169434   8.592   4.157   8.505  1.0966 -1.4717  0.4241
53552SOL    HW269435   8.744   4.154   8.507  1.2892  2.7338  0.5458
53553SOL     OW69436   7.458   0.638   4.155 -0.7631  0.1740 -0.5225
53553SOL    HW169437   7.477   0.575   4.225  2.8844 -0.6035 -1.9883
53553SOL    HW269438   7.414   0.711   4.200  0.1050 -0.8898  2.2949
53554SOL     OW69439   0.565  10.452   4.604 -0.5636  1.0399 -0.3213
53554SOL    HW169440   0.605  10.485   4.684 -1.0241  0.5834  0.1120
53554SOL    HW269441   0.518  10.373   4.632  0.8421 -0.2266 -1.3821
53555SOL     OW69442   1.627   4.017   8.851  0.9868 -0.7963 -0.7807
53555SOL    HW169443   1.615   4.016   8.756 -1.3786 -0.8917 -0.5538
53555SOL    HW269444   1.719   3.996   8.865  1.6602  0.4330 -3.0802
53556SOL     OW69445   5.151   0.355   4.562 -0.4302 -0.1864  0.1960
53556SOL    HW169446   5.124   0.312   4.481  0.6639  0.6387 -0.6500
53556SOL    HW269447   5.080   0.416   4.582  0.6605  1.9848 -2.0113
53557SOL     OW69448   9.987   5.200  10.728 -0.8487  0.3029 -0.4565
53557SOL    HW169449  10.081   5.192  10.717 -0.9658 -0.4567 -0.9518
53557SOL    HW269450   9.976   5.247  10.811 -0.0089  2.4921 -1.5042
53558SOL     OW69451   9.910  10.343   3.949 -0.1306  0.1144  0.4754
53558SOL    HW169452   9.918  10.282   3.876  0.5103  0.1617  0.4999
53558SOL    HW269453   9.855  10.298   4.012  0.8577 -0.7185  0.7699
53559SOL     OW69454   0.677   3.521   2.790  0.0512 -0.2772 -0.2210
53559SOL    HW169455   0.732   3.531   2.712  1.0706  0.4674  0.5694
53559SOL    HW269456   0.622   3.445   2.770  1.2355 -0.9440 -1.1159
53560SOL     OW69457   6.022  10.757  11.131  0.0237 -0.4142  0.5557
53560SOL    HW169458   6.118  10.756  11.128  0.0288 -1.2672  0.8201
53560SOL    HW269459   5.998  10.669  11.160 -0.8671 -0.4224 -0.1697
53561SOL     OW69460   3.130   8.164  12.407 -0.3691 -0.0501 -0.6715
53561SOL    HW169461   3.086   8.201  12.484  1.2119  0.9600 -0.1992
53561SOL    HW269462   3.149   8.073  12.432  0.8139  0.4796  0.4716
53562SOL     OW69463   5.858   9.385  11.473 -0.2581  0.2311 -0.5629
53562SOL    HW169464   5.948   9.411  11.453 -0.0989  1.2117  1.2867
53562SOL    HW269465   5.850   9.297  11.435  1.5080  0.0690 -0.6409
53563SOL     OW69466   2.860  11.436  11.111 -0.1594  0.9542  0.3095
53563SOL    HW169467   2.853  11.517  11.061 -2.9883  0.6726  0.1075
53563SOL    HW269468   2.817  11.370  11.057 -0.7200  0.0240  1.8175
53564SOL     OW69469   8.199   5.210   3.043  0.0439 -0.1273 -0.0376
53564SOL    HW169470   8.285   5.252   3.037  0.5243 -1.1680 -0.9190
53564SOL    HW269471   8.138   5.282   3.060  0.7694  1.0246 -1.9617
53565SOL     OW69472   0.988   7.536   4.367 -0.7998 -0.0471 -0.2852
53565SOL    HW169473   1.065   7.557   4.419 -1.5184  1.4288  0.2334
53565SOL    HW269474   1.008   7.451   4.328  0.3249 -0.5457  1.2930
53566SOL     OW69475  11.171   8.048   3.114  0.2500 -0.1679 -0.2282
53566SOL    HW169476  11.173   8.137   3.148 -0.5536  0.0918 -0.8150
53566SOL    HW269477  11.078   8.028   3.104  0.4267 -0.3858 -1.8133
53567SOL     OW69478   8.492  12.266   4.246  0.2998 -0.1542  0.2274
53567SOL    HW169479   8.447  12.185   4.273  1.1255 -0.7773 -0.2098
53567SOL    HW269480   8.584  12.240   4.237  0.3711  0.5047 -1.2272
53568SOL     OW69481  10.033   8.586   2.050 -0.5289 -0.5526  0.1900
53568SOL    HW169482  10.033   8.530   1.972 -0.0247  0.3540 -0.4939
53568SOL    HW269483  10.118   8.571   2.091 -2.0465 -3.6574  2.6125
53569SOL     OW69484   6.058   4.647  10.466 -0.0988 -0.1798  0.2832
53569SOL    HW169485   6.096   4.609  10.386  0.5533 -0.1742  0.5889
53569SOL    HW269486   6.096   4.596  10.537  0.8900  1.1117  0.7121
53570SOL     OW69487   8.736   6.368   5.146 -0.0593  0.5016 -0.0337
53570SOL    HW169488   8.696   6.364   5.059 -1.0374 -1.7508  0.4465
53570SOL    HW269489   8.772   6.281   5.160  0.0369  0.7934  1.8487
53571SOL     OW69490   7.098   5.195   8.402  0.7876 -0.0963 -0.8620
53571SOL    HW169491   7.110   5.197   8.307 -0.2563 -0.5929 -1.0214
53571SOL    HW269492   7.184   5.170   8.437  0.9305 -0.8925 -1.7407
53572SOL     OW69493  11.620   0.533  12.407  0.1211 -0.1249  0.4287
53572SOL    HW169494  11.553   0.597  12.430 -0.3030 -0.4060 -0.0236
53572SOL    HW269495  11.575   0.449  12.408  0.9998 -0.6565  2.5519
53573SOL     OW69496   9.638   4.567   6.480  0.1221 -0.3256 -0.3018
53573SOL    HW169497   9.554   4.564   6.434 -0.0833 -2.2303  0.1358
53573SOL    HW269498   9.652   4.660   6.496 -0.0270  0.4031 -3.7116
53574SOL     OW69499   4.798  11.941  11.877 -0.0646  0.4655  0.3115
53574SOL    HW169500   4.819  11.867  11.819 -1.7443  0.6226 -0.5482
53574SOL    HW269501   4.769  12.010  11.818  0.6264  1.5280  1.1875
53575SOL     OW69502  10.093   2.390   6.982 -0.3628 -0.3688  0.0134
53575SOL    HW169503  10.064   2.480   6.966 -0.0422 -0.0770  1.0022
53575SOL    HW269504  10.077   2.345   6.900 -3.5699 -0.2289  0.4436
53576SOL     OW69505   6.953   9.428   2.154  0.2261  0.1713  0.2678
53576SOL    HW169506   6.860   9.453   2.154  0.6538  2.1947 -2.2953
53576SOL    HW269507   6.997   9.500   2.199  0.7136 -0.0864  0.2116
53577SOL     OW69508   2.678  11.724   9.161 -0.1052  0.7485 -0.7009
53577SOL    HW169509   2.735  11.748   9.234  0.9205 -0.1735 -1.1562
53577SOL    HW269510   2.590  11.726   9.197  0.4295 -0.4219  0.7946
53578SOL     OW69511  11.346  12.356   5.847 -0.1916 -0.6897  0.0736
53578SOL    HW169512  11.340  12.449   5.868 -1.4344 -0.9972  1.2252
53578SOL    HW269513  11.413  12.351   5.779 -0.8754  1.1628 -0.7982
53579SOL     OW69514   7.092   9.419   3.603  0.4257  0.3009 -0.5663
53579SOL    HW169515   7.007   9.385   3.632  0.5185 -0.7375 -1.4359
53579SOL    HW269516   7.075   9.452   3.514  0.3469  2.5681  0.2276
53580SOL     OW69517   9.270   8.072   1.325  0.5299  0.3978 -0.6762
53580SOL    HW169518   9.263   8.127   1.403  1.0950  0.1335 -0.4320
53580SOL    HW269519   9.188   8.022   1.323  1.3215 -1.0899  0.9092
53581SOL     OW69520   6.218   3.412  12.064  0.0219 -0.3744 -0.3892
53581SOL    HW169521   6.145   3.366  12.023 -0.8441  1.1642 -0.6353
53581SOL    HW269522   6.278   3.431  11.992 -1.0891  1.5596 -0.8714
53582SOL     OW69523   7.098   1.109   3.386 -0.0732 -0.7027 -0.2388
53582SOL    HW169524   7.073   1.154   3.305  0.1705  1.3165  0.7233
53582SOL    HW269525   7.193   1.103   3.382  0.0578  0.5921  0.4366
53583SOL     OW69526  11.011   9.306   0.029  0.2405  0.0678 -0.0461
53583SOL    HW169527  11.019   9.399   0.006  0.0278  0.3822  1.0654
53583SOL    HW269528  11.098   9.282   0.060  0.0218  0.2164  0.7171
53584SOL     OW69529   0.435   7.025   3.676 -0.9269 -0.2279 -0.5518
53584SOL    HW169530   0.488   7.020   3.755  1.4567 -1.6628 -2.1168
53584SOL    HW269531   0.392   6.940   3.669  1.8455 -1.6417 -2.5750
53585SOL     OW69532  12.587   0.054   5.737  0.1841  0.0026  0.0813
53585SOL    HW169533  12.603  -0.040   5.746  2.5310  0.2517 -0.7391
53585SOL    HW269534  12.617   0.092   5.820 -1.7823 -0.0075  0.8596
53586SOL     OW69535  10.143   9.838   2.717  0.3213  0.2062  0.1917
53586SOL    HW169536  10.127   9.752   2.755  0.1382  0.4553  0.6891
53586SOL    HW269537  10.076   9.894   2.757  0.7724  0.6896  0.2674
53587SOL     OW69538   9.430   1.634   7.987  0.3914 -0.3833  0.1564
53587SOL    HW169539   9.356   1.690   8.009  0.8406  0.8271 -1.2616
53587SOL    HW269540   9.501   1.695   7.968  1.1416 -1.4598 -0.5761
53588SOL     OW69541   7.273  12.493   0.516  0.5429 -0.2825 -0.4305
53588SOL    HW169542   7.362  12.466   0.494  0.9522  0.4640  0.2524
53588SOL    HW269543   7.285  12.568   0.574 -0.5384  0.2984 -0.9291
53589SOL     OW69544   0.365   5.082  12.590 -0.0092  0.3131  0.4696
53589SOL    HW169545   0.279   5.094  12.632 -0.2912  0.0295 -0.0246
53589SOL    HW269546   0.404   5.009  12.637 -0.0619  0.4004  0.6533
53590SOL     OW69547  12.495   2.443   8.776 -0.2991  0.2416  0.0727
53590SOL    HW169548  12.456   2.437   8.688 -0.0350  1.1473 -0.1133
53590SOL    HW269549  12.518   2.352   8.798 -1.8589 -0.2241 -0.1025
53591SOL     OW69550   5.952   7.918   5.007 -0.1182 -0.1477  0.5213
53591SOL    HW169551   5.949   7.886   5.097  0.0647 -3.2575 -0.4378
53591SOL    HW269552   6.043   7.904   4.979 -0.0820  1.1139 -0.0500
53592SOL     OW69553   0.244   2.972   5.519 -0.1689 -0.1637  0.6190
53592SOL    HW169554   0.328   3.006   5.550 -0.2732 -0.3907  1.1679
53592SOL    HW269555   0.178   3.027   5.561 -0.3010 -0.0604  0.2821
53593SOL     OW69556   4.203  11.913  12.533 -0.9552  0.3231  0.0273
53593SOL    HW169557   4.247  11.958  12.605 -0.7423  0.0750  0.0533
53593SOL    HW269558   4.199  11.822  12.562 -2.2184  0.4770  0.3922
53594SOL     OW69559   7.330   3.538  10.048 -0.9645  0.1981 -0.1167
53594SOL    HW169560   7.278   3.556  10.126  0.2237 -0.9878  1.0145
53594SOL    HW269561   7.377   3.620  10.031 -0.9661  0.3644  0.6495
53595SOL     OW69562  10.502  12.347   1.873 -0.2340  0.2436 -0.2653
53595SOL    HW169563  10.444  12.323   1.945  0.6044 -1.0618  0.0147
53595SOL    HW269564  10.471  12.295   1.799  0.6513 -0.6084 -0.0641
53596SOL     OW69565   8.490   5.246   3.726 -0.2547 -0.1431  0.2819
53596SOL    HW169566   8.545   5.168   3.724  0.2339  0.1930 -2.1546
53596SOL    HW269567   8.521   5.296   3.802  0.5166 -1.5369  0.9105
53597SOL     OW69568   5.676   3.049   3.760 -0.1197  0.4181 -0.1866
53597SOL    HW169569   5.640   3.135   3.742  1.1413  1.3394  1.4519
53597SOL    HW269570   5.770   3.059   3.747  0.2842 -0.1200  1.9693
53598SOL     OW69571   9.800   9.537   3.676 -0.2734  0.3843 -0.2040
53598SOL    HW169572   9.831   9.534   3.586  0.3461  1.0776 -0.0184
53598SOL    HW269573   9.813   9.447   3.708 -0.5675  0.1137 -0.8166
53599SOL     OW69574   6.271   5.010   5.362  0.1807 -0.2486  0.4617
53599SOL    HW169575   6.228   4.935   5.401  1.2399 -1.5415 -0.7568
53599SOL    HW269576   6.201   5.057   5.316 -0.7790  0.4356  2.5011
53600SOL     OW69577   9.428   8.518   6.675  0.1465 -1.2894 -0.2117
53600SOL    HW169578   9.358   8.560   6.627 -0.9717 -1.8064  0.9170
53600SOL    HW269579   9.412   8.424   6.664  1.4803 -1.4390 -1.0910
53601SOL     OW69580   9.891   1.285   4.641  0.1945  0.1550 -0.5560
53601SOL    HW169581   9.814   1.341   4.648 -1.2524 -1.6827 -0.8400
53601SOL    HW269582   9.856   1.200   4.613  1.6705 -2.1703  3.7136
53602SOL     OW69583   1.912  10.559   8.789 -0.3628 -1.1150  0.5228
53602SOL    HW169584   1.820  10.573   8.814 -0.7072 -0.5767 -0.9920
53602SOL    HW269585   1.961  10.583   8.868 -1.4309  0.1044  0.8576
53603SOL     OW69586   6.770   0.470   0.634  0.0268 -0.1770  0.2638
53603SOL    HW169587   6.790   0.386   0.592 -1.6923 -0.2517 -0.4901
53603SOL    HW269588   6.681   0.458   0.669  0.8814  0.3418  2.8221
53604SOL     OW69589   9.489   1.911   0.562 -0.0827 -0.3236  0.1808
53604SOL    HW169590   9.564   1.887   0.508  0.4358  2.5406 -0.5223
53604SOL    HW269591   9.520   1.900   0.652  0.6641 -0.5699 -0.1013
53605SOL     OW69592   5.115   1.413  11.988 -0.3092 -0.1813 -0.0418
53605SOL    HW169593   5.207   1.437  11.983 -0.6876  1.7025  0.9274
53605SOL    HW269594   5.093   1.383  11.900  1.2955 -1.0115 -0.1929
53606SOL     OW69595   6.195  11.777   3.311  0.6836 -0.4279  0.0301
53606SOL    HW169596   6.214  11.706   3.373  0.3523 -1.5383 -1.1084
53606SOL    HW269597   6.256  11.762   3.239  0.7831  0.6195 -0.1184
53607SOL     OW69598   7.178   8.270   6.551  0.0666  0.2491  0.5702
53607SOL    HW169599   7.151   8.179   6.563 -0.1325  0.4558  1.7794
53607SOL    HW269600   7.140   8.296   6.467  0.9209 -1.0645 -0.2675
53608SOL     OW69601   2.375  10.456   4.393  0.4661  0.4626 -0.0659
53608SOL    HW169602   2.388  10.375   4.443 -1.8485 -0.3594 -0.6887
53608SOL    HW269603   2.427  10.442   4.313  0.6855 -0.0694  0.1603
53609SOL     OW69604   5.574   4.315   8.947 -0.4229 -0.0185 -0.1217
53609SOL    HW169605   5.637   4.249   8.976 -1.5203 -0.9948  0.1065
53609SOL    HW269606   5.612   4.398   8.976  0.6592 -0.5917  0.1777
53610SOL     OW69607   6.840   1.375   2.809 -0.1999 -0.6428 -0.4735
53610SOL    HW169608   6.924   1.353   2.850 -0.1652 -1.2514 -0.8559
53610SOL    HW269609   6.782   1.301   2.832 -1.0585  0.4146  0.9669
53611SOL     OW69610   6.341   8.511   9.839 -0.3214  0.0450  0.3417
53611SOL    HW169611   6.368   8.545   9.924  0.0610 -2.7556  1.4226
53611SOL    HW269612   6.380   8.424   9.834 -1.9898 -0.6614 -1.8326
53612SOL     OW69613   9.199   6.071   7.331 -0.2034  0.5877  0.1745
53612SOL    HW169614   9.292   6.095   7.329  0.3198 -1.3370 -0.0353
53612SOL    HW269615   9.194   5.990   7.280 -2.1285  1.0520 -0.4536
53613SOL     OW69616   6.575  11.756  11.604  0.0043  0.7018 -0.3649
53613SOL    HW169617   6.601  11.827  11.663  0.3171  0.0369  0.3082
53613SOL    HW269618   6.515  11.798  11.541  0.1758  1.5524  0.0272
53614SOL     OW69619   3.400   9.501   0.286  0.4372  0.3249  0.4459
53614SOL    HW169620   3.364   9.475   0.201  2.3611  0.5611 -0.4922
53614SOL    HW269621   3.421   9.419   0.329 -4.1529 -0.0607  2.5200
53615SOL     OW69622  10.134   8.779   7.501  0.1564  0.4146 -0.4547
53615SOL    HW169623  10.067   8.744   7.559  1.5407  0.0340  0.9786
53615SOL    HW269624  10.144   8.870   7.528  2.3119 -0.2963  1.5058
53616SOL     OW69625   7.335   3.076   4.270 -0.6052 -0.7055 -0.2888
53616SOL    HW169626   7.398   3.085   4.198 -0.7374 -0.0758 -0.3290
53616SOL    HW269627   7.262   3.132   4.244 -0.5959 -0.3736  0.4092
53617SOL     OW69628   1.603  11.429  10.691 -0.6785 -0.5987  0.1719
53617SOL    HW169629   1.683  11.376  10.688 -1.5784 -1.9554 -0.8758
53617SOL    HW269630   1.616  11.495  10.622  0.9583  1.4271  2.2603
53618SOL     OW69631  12.441   5.152   0.079  0.0490 -0.0243  0.7935
53618SOL    HW169632  12.462   5.071   0.125 -0.4225 -0.7923 -0.3001
53618SOL    HW269633  12.346   5.160   0.085 -0.1083 -0.5304 -0.6357
53619SOL     OW69634   2.674  10.563   5.887 -0.0290  0.0662 -0.1075
53619SOL    HW169635   2.634  10.560   5.800  0.0962 -2.0242 -0.1563
53619SOL    HW269636   2.743  10.496   5.883  1.1102  1.1219  1.0824
53620SOL     OW69637  10.507   1.569   6.161 -0.0435  0.1000  0.3277
53620SOL    HW169638  10.481   1.490   6.208  1.3241 -0.2802  0.4949
53620SOL    HW269639  10.492   1.548   6.069 -0.9725  0.1610  0.4580
53621SOL     OW69640   2.849   0.018  10.023  0.1004  0.2536  0.0305
53621SOL    HW169641   2.900  -0.062  10.006  1.5350  0.8702  1.1913
53621SOL    HW269642   2.846   0.024  10.118 -1.5785  0.6403 -0.0219
53622SOL     OW69643   8.322   3.532   2.879 -0.1132  0.5773  0.3851
53622SOL    HW169644   8.241   3.481   2.869  0.3842 -0.1576 -0.0320
53622SOL    HW269645   8.300   3.599   2.943 -1.4343  1.2024 -0.6730
53623SOL     OW69646   1.623  11.823   5.536 -0.5445  0.2242 -0.0430
53623SOL    HW169647   1.567  11.887   5.494 -1.1766  0.2727  0.8338
53623SOL    HW269648   1.563  11.755   5.567  0.2575 -1.7936 -2.5645
53624SOL     OW69649   2.545   1.503   4.027 -0.0995  0.1667 -0.0667
53624SOL    HW169650   2.634   1.489   4.058 -0.5391  0.0269  1.1857
53624SOL    HW269651   2.555   1.558   3.949  1.1094 -0.3603 -0.3086
53625SOL     OW69652   3.746   1.560   9.864 -0.2700 -0.0736  0.4509
53625SOL    HW169653   3.730   1.653   9.848 -1.9784 -0.4732 -0.4101
53625SOL    HW269654   3.683   1.515   9.808  0.0029 -1.7432  1.4194
53626SOL     OW69655   5.619   8.204   2.199  0.3928 -0.3986  0.2354
53626SOL    HW169656   5.661   8.290   2.193  1.5911 -0.9141  0.9990
53626SOL    HW269657   5.559   8.212   2.274  0.7251 -0.3173  0.4931
53627SOL     OW69658   2.004  10.428   1.951 -0.1704  0.4917  0.0310
53627SOL    HW169659   2.034  10.374   2.024 -0.2949 -0.0234 -0.2918
53627SOL    HW269660   1.908  10.418   1.952 -0.0807 -0.9033 -1.2269
53628SOL     OW69661   1.353  12.140  10.732 -0.0940  0.3251  0.0583
53628SOL    HW169662   1.353  12.059  10.682  0.7939  0.3345  0.0371
53628SOL    HW269663   1.310  12.118  10.815 -0.1202 -0.0886 -0.0651
53629SOL     OW69664   5.348   3.968   6.881 -0.3708 -0.4790 -0.2120
53629SOL    HW169665   5.280   4.031   6.904  0.8526  0.9867 -0.4866
53629SOL    HW269666   5.396   3.954   6.963  0.4991  0.3846 -0.5672
53630SOL     OW69667   3.323   8.876   4.381  0.0433 -0.1741 -0.2080
53630SOL    HW169668   3.237   8.892   4.419  0.5158  1.7640  0.1399
53630SOL    HW269669   3.379   8.854   4.455 -0.2936 -2.2327 -0.5268
53631SOL     OW69670   9.528  11.491  10.177 -0.3129 -0.6390  0.6276
53631SOL    HW169671   9.473  11.522  10.248  0.4261  0.3660  0.7798
53631SOL    HW269672   9.550  11.569  10.127  1.4108 -0.9150  0.8947
53632SOL     OW69673   8.623   3.787   4.992  0.2049  0.3470  0.2315
53632SOL    HW169674   8.540   3.746   4.970 -0.4003  1.0206  1.1892
53632SOL    HW269675   8.670   3.720   5.042  0.2862 -0.0627 -0.3833
53633SOL     OW69676   2.011  10.861   3.247 -0.6812 -0.2628  0.7165
53633SOL    HW169677   1.962  10.866   3.165  1.5607 -2.0441 -0.8349
53633SOL    HW269678   1.977  10.934   3.299 -0.8575  2.1943 -2.5369
53634SOL     OW69679   1.109   7.078   2.773  0.4003  0.3824 -0.3024
53634SOL    HW169680   1.128   7.018   2.845 -1.9342 -1.4339 -1.0626
53634SOL    HW269681   1.177   7.145   2.779  2.4259 -1.6453  1.3582
53635SOL     OW69682   7.660   6.828   2.141 -0.3633 -0.0634  0.5091
53635SOL    HW169683   7.603   6.890   2.096  2.6029  1.9137 -0.8585
53635SOL    HW269684   7.686   6.874   2.221  1.0749  0.1080 -0.0291
53636SOL     OW69685  11.533   2.934  11.723 -0.4978 -0.1460  0.6092
53636SOL    HW169686  11.512   2.981  11.804 -0.4492 -1.0569  1.1700
53636SOL    HW269687  11.595   2.990  11.678 -1.2700  0.8445  0.7245
53637SOL     OW69688  11.208  11.059   6.166  0.2746  0.5361  0.5065
53637SOL    HW169689  11.219  11.124   6.097 -0.2693 -0.3302 -0.4209
53637SOL    HW269690  11.114  11.045   6.171  0.3653  0.0100  0.8587
53638SOL     OW69691   6.737   8.933  10.959  0.7015 -0.4333  0.2665
53638SOL    HW169692   6.824   8.892  10.958 -0.2635 -2.6893  0.6963
53638SOL    HW269693   6.714   8.939  11.052  0.4147  0.2082  0.1608
53639SOL     OW69694   5.174   3.051   8.868  0.6214 -0.4942  0.1086
53639SOL    HW169695   5.257   3.060   8.915  1.7422  0.2547 -1.9149
53639SOL    HW269696   5.143   3.141   8.859 -0.5544 -0.7860  1.0405
53640SOL     OW69697   5.464   6.744   1.127 -0.1684 -0.1115 -0.4123
53640SOL    HW169698   5.539   6.691   1.156 -0.9353 -0.8013  0.3605
53640SOL    HW269699   5.492   6.835   1.141  0.2671 -0.3783  0.5325
53641SOL     OW69700   6.977   3.359  11.559 -0.2349  0.2368 -0.8106
53641SOL    HW169701   6.960   3.286  11.618  0.8306  0.9375  0.4309
53641SOL    HW269702   7.072   3.374  11.566 -0.1179  0.5247 -2.5071
53642SOL     OW69703   4.842  11.899  12.142 -0.6427  0.2358  0.1534
53642SOL    HW169704   4.757  11.918  12.181 -0.2827  1.4330  0.3911
53642SOL    HW269705   4.826  11.902  12.047 -0.7791  0.8756  0.1957
53643SOL     OW69706   2.439   7.922  10.418 -1.0673  0.4906 -0.2508
53643SOL    HW169707   2.498   7.847  10.415  0.3002  1.4559  0.9633
53643SOL    HW269708   2.356   7.888  10.385 -0.4213 -1.4665 -0.0193
53644SOL     OW69709  11.830  11.658  10.882  0.1539  0.4597 -0.1404
53644SOL    HW169710  11.766  11.712  10.835 -0.3072 -1.1258 -1.4760
53644SOL    HW269711  11.790  11.641  10.967 -0.2500  1.1901 -0.1789
53645SOL     OW69712   0.615   3.573   8.556 -0.2205 -0.5524 -0.7011
53645SOL    HW169713   0.608   3.487   8.513 -2.8971 -1.7168  1.7542
53645SOL    HW269714   0.527   3.593   8.586  0.6518  2.2851  0.3535
53646SOL     OW69715   2.859   7.508   6.517 -0.0519  0.2560  0.2505
53646SOL    HW169716   2.890   7.461   6.439 -1.1379 -0.2748  0.1127
53646SOL    HW269717   2.787   7.562   6.484  0.4914  1.2241  0.6141
53647SOL     OW69718  10.325   0.070   6.653 -0.1715 -0.1653 -0.5565
53647SOL    HW169719  10.368   0.013   6.716 -1.1462  0.0485  0.3447
53647SOL    HW269720  10.378   0.064   6.574  0.6452 -1.0500  0.0397
53648SOL     OW69721  10.936   7.720  10.902  0.2954  0.0273 -0.3053
53648SOL    HW169722  10.848   7.750  10.881 -0.2834 -0.5669  1.1660
53648SOL    HW269723  10.991   7.756  10.832 -1.0958  0.4326 -1.2202
53649SOL     OW69724   7.574  10.082   6.162 -0.6163  0.4387 -0.7036
53649SOL    HW169725   7.484  10.114   6.161 -0.0886  2.0288 -1.8498
53649SOL    HW269726   7.590  10.054   6.072 -0.1974 -0.5909 -0.3234
53650SOL     OW69727   0.836   6.096   8.851 -0.2855 -0.4605  0.3642
53650SOL    HW169728   0.882   6.015   8.829 -1.4705 -0.6252 -1.7993
53650SOL    HW269729   0.891   6.165   8.814 -0.0494 -0.3973  0.8350
53651SOL     OW69730   5.258   2.869   3.572  0.8451  0.3704 -0.2626
53651SOL    HW169731   5.267   2.804   3.502  0.0740 -1.3811  1.1730
53651SOL    HW269732   5.347   2.882   3.604  1.0608  0.3578 -0.8375
53652SOL     OW69733  11.788   0.163   7.785  0.6545  0.3461  0.4017
53652SOL    HW169734  11.836   0.094   7.739  0.3865 -0.2746  1.0297
53652SOL    HW269735  11.731   0.202   7.719  0.3400 -0.4659  0.1959
53653SOL     OW69736   2.893   6.753   7.815 -0.1999 -0.0426  0.9194
53653SOL    HW169737   2.963   6.689   7.801  0.5328  0.5610  1.7102
53653SOL    HW269738   2.817   6.701   7.840 -0.7235 -0.9178 -2.0798
53654SOL     OW69739   9.021   5.902  10.483 -0.5483  0.5258 -0.2835
53654SOL    HW169740   8.940   5.857  10.459 -0.7228  1.2613 -1.1538
53654SOL    HW269741   9.091   5.843  10.455 -0.7666  0.9254 -1.7299
53655SOL     OW69742   1.568   7.836   8.526 -0.2974  0.6620 -0.4745
53655SOL    HW169743   1.592   7.770   8.591 -0.5940  0.1208 -0.9190
53655SOL    HW269744   1.503   7.891   8.571  0.8340  1.4185  0.3258
53656SOL     OW69745   0.398   2.376   8.769  0.6923 -0.1244  0.0063
53656SOL    HW169746   0.334   2.357   8.700  1.6987 -0.8664 -0.7722
53656SOL    HW269747   0.348   2.418   8.838 -0.4597  0.1318 -0.9511
53657SOL     OW69748   2.888   3.097   5.627  0.1370  0.1363  0.2381
53657SOL    HW169749   2.848   3.131   5.707 -1.8995  0.3781 -0.8367
53657SOL    HW269750   2.941   3.170   5.594  0.6933  0.1576  1.1526
53658SOL     OW69751   4.927   1.024   0.759  0.4913  0.1015  0.0624
53658SOL    HW169752   4.849   1.042   0.708  0.8052  0.0950 -0.4272
53658SOL    HW269753   4.947   0.932   0.743  1.4785  0.4827 -1.0663
53659SOL     OW69754   1.163   0.563   7.747  0.1731  0.2866 -0.6364
53659SOL    HW169755   1.084   0.536   7.795  1.8403 -0.4521  1.8532
53659SOL    HW269756   1.232   0.505   7.778  2.3133  2.6449 -0.6520
53660SOL     OW69757   9.972   4.372   9.798  0.1148 -0.6145 -0.2955
53660SOL    HW169758   9.904   4.435   9.775  1.1453  0.4996 -0.3359
53660SOL    HW269759   9.975   4.313   9.722 -0.1930 -0.1466 -0.6829
53661SOL     OW69760   6.462   5.290   9.005  0.0574 -0.0662 -0.0274
53661SOL    HW169761   6.399   5.310   9.074  1.6408  0.0503  1.4783
53661SOL    HW269762   6.432   5.207   8.968 -0.2757 -0.6968  1.5627
53662SOL     OW69763   7.739   3.949  11.126  0.5805  0.3067 -0.3756
53662SOL    HW169764   7.793   3.911  11.057 -0.2584 -0.1808 -0.7713
53662SOL    HW269765   7.753   4.044  11.117 -2.5577  0.6659 -3.9132
53663SOL     OW69766   1.214   6.863   9.300 -0.0489  0.1651  0.3352
53663SOL    HW169767   1.283   6.796   9.298  0.2398  0.4006  1.4300
53663SOL    HW269768   1.226   6.913   9.220  2.2256  1.3358  1.3156
53664SOL     OW69769   3.191   9.606  12.112  0.2598  0.1062  0.1277
53664SOL    HW169770   3.111   9.577  12.157  0.7545 -0.5340  0.6226
53664SOL    HW269771   3.251   9.532  12.122  1.2013  0.9063  0.4847
53665SOL     OW69772   8.293   9.098   3.369 -0.2050  0.1643 -0.7044
53665SOL    HW169773   8.384   9.072   3.360  0.1457  1.6570 -2.0562
53665SOL    HW269774   8.252   9.069   3.287 -0.6419  0.5722 -0.6367
53666SOL     OW69775   0.548   9.626   9.687  0.3283 -0.2849 -0.3964
53666SOL    HW169776   0.482   9.681   9.645  0.7388  0.8479  0.3859
53666SOL    HW269777   0.500   9.551   9.721 -0.6486  0.7366  0.5400
53667SOL     OW69778   8.201   7.300   0.842 -0.1416  0.1556  0.1762
53667SOL    HW169779   8.122   7.250   0.822 -0.8034  0.9533  0.6970
53667SOL    HW269780   8.245   7.310   0.758 -0.7439 -0.0548 -0.1734
53668SOL     OW69781   3.324   1.308   7.004 -0.2393  0.2489  0.5233
53668SOL    HW169782   3.290   1.263   7.082  0.0176 -2.1520 -0.6591
53668SOL    HW269783   3.248   1.317   6.947  0.0619 -0.3941  0.0072
53669SOL     OW69784  12.128   0.011   1.651  0.3936 -0.0493 -0.5447
53669SOL    HW169785  12.113   0.103   1.672 -0.7659 -0.3673  0.1084
53669SOL    HW269786  12.200  -0.016   1.708  0.3557  0.3017 -0.3305
53670SOL     OW69787   3.694   9.559   1.214 -0.2679  0.3440 -0.3481
53670SOL    HW169788   3.717   9.550   1.121  1.1265  0.4452 -0.0259
53670SOL    HW269789   3.718   9.475   1.252 -0.3139  0.5044  0.0354
53671SOL     OW69790   2.389  11.847   1.826 -0.1807  0.2247 -0.1101
53671SOL    HW169791   2.398  11.781   1.757  0.0517 -0.1176  0.2417
53671SOL    HW269792   2.439  11.811   1.899  0.4126  1.0488 -0.1011
53672SOL     OW69793   5.273  10.476   1.658 -0.1440 -0.8683 -0.1594
53672SOL    HW169794   5.186  10.443   1.637 -1.0652  0.9163  0.6342
53672SOL    HW269795   5.283  10.460   1.752  0.0528 -0.3865 -0.0910
53673SOL     OW69796   1.699   6.511  12.573  0.3721 -0.0414  0.3335
53673SOL    HW169797   1.750   6.588  12.549 -1.1682  0.6845 -0.7359
53673SOL    HW269798   1.753   6.437  12.545  0.4640  0.7186 -1.6384
53674SOL     OW69799  11.181   2.326   5.591  0.1546  0.5773 -0.1388
53674SOL    HW169800  11.261   2.330   5.538  0.5327 -2.0445  0.1158
53674SOL    HW269801  11.146   2.238   5.575 -0.1015 -0.0930  3.3243
53675SOL     OW69802   8.969  12.059   9.200  0.1952 -0.5999  0.0287
53675SOL    HW169803   8.930  12.038   9.284  0.9126  1.6187  1.0035
53675SOL    HW269804   9.004  12.148   9.211  1.9213 -0.9270 -2.0325
53676SOL     OW69805   8.034   2.637   4.816 -0.1405 -0.5056 -0.3661
53676SOL    HW169806   7.994   2.680   4.741 -0.9135 -1.3042 -0.4208
53676SOL    HW269807   7.976   2.657   4.889 -0.4249 -1.3196 -0.3621
53677SOL     OW69808   4.173   9.176   8.022  0.0241  0.3852 -0.2294
53677SOL    HW169809   4.232   9.251   8.034  0.7583 -0.5936  3.4751
53677SOL    HW269810   4.230   9.100   8.021 -0.9588 -0.3747 -0.0745
53678SOL     OW69811  12.587  11.013   8.622 -0.5927  0.1258 -0.0280
53678SOL    HW169812  12.629  10.944   8.674  0.6227  0.4707 -0.5204
53678SOL    HW269813  12.545  10.966   8.550 -1.4104 -0.2546  0.6681
53679SOL     OW69814   5.321  12.610   0.408  0.1576  0.0221 -0.0684
53679SOL    HW169815   5.291  12.564   0.329  0.4856  1.7276 -1.2443
53679SOL    HW269816   5.245  12.660   0.437  0.3946  0.3856 -0.0602
53680SOL     OW69817   7.431   6.961   3.141  0.1154 -0.0576 -0.3159
53680SOL    HW169818   7.488   6.886   3.128 -1.0577 -0.9518 -0.4846
53680SOL    HW269819   7.486   7.037   3.121  0.9596 -0.9226 -1.4117
53681SOL     OW69820  12.306   3.831   5.865 -0.0371  0.1437  0.0974
53681SOL    HW169821  12.358   3.890   5.920  0.5162 -0.2078 -0.0338
53681SOL    HW269822  12.352   3.830   5.781 -0.1692 -0.2968  0.0287
53682SOL     OW69823   2.316   3.746   5.753  0.1401  0.5452  0.4038
53682SOL    HW169824   2.304   3.707   5.840 -1.0997 -0.5728 -0.2294
53682SOL    HW269825   2.276   3.833   5.761 -0.1731  0.3628  0.9009
53683SOL     OW69826   9.995   1.046  10.451 -0.2112  0.1163  0.1495
53683SOL    HW169827  10.054   1.078  10.383  1.4330 -2.9770 -0.0655
53683SOL    HW269828   9.937   0.985  10.405 -0.2275 -0.6893  1.2090
53684SOL     OW69829   7.329   5.667   9.728  0.0115  0.0806 -0.3182
53684SOL    HW169830   7.411   5.715   9.719  1.2084 -1.4892  1.4872
53684SOL    HW269831   7.343   5.586   9.678 -0.5554 -0.0798 -0.2274
53685SOL     OW69832   1.072   8.297   7.621  0.0684 -0.1071  0.5978
53685SOL    HW169833   1.083   8.386   7.654  1.4081 -0.6976  1.8243
53685SOL    HW269834   1.160   8.268   7.599 -0.1714 -1.5789  1.4215
53686SOL     OW69835   3.272   0.454   4.150 -0.1878  0.3711  0.8420
53686SOL    HW169836   3.259   0.361   4.166 -2.4783  0.6253  0.7512
53686SOL    HW269837   3.345   0.458   4.089 -0.0788 -1.3565  0.8202
53687SOL     OW69838   1.292  12.077  10.176  0.6030  0.2799 -0.1656
53687SOL    HW169839   1.274  12.001  10.120  0.4623  1.3787 -1.6780
53687SOL    HW269840   1.218  12.080  10.236 -0.6045  0.5231 -1.5994
53688SOL     OW69841  10.481   7.368   8.918  0.1677 -0.1458  0.1450
53688SOL    HW169842  10.449   7.458   8.912 -0.3520 -0.3554 -0.4388
53688SOL    HW269843  10.576   7.376   8.929  0.1244  0.4678  0.0873
53689SOL     OW69844   2.215  10.666   5.729  0.3807 -0.2838 -0.4053
53689SOL    HW169845   2.304  10.680   5.761 -0.2699 -0.2491  1.5096
53689SOL    HW269846   2.189  10.751   5.692  0.2371  0.5790  1.5047
53690SOL     OW69847   7.598   6.845   3.341  0.2824  0.0038  0.1930
53690SOL    HW169848   7.519   6.894   3.364  0.3579  0.1711  0.0919
53690SOL    HW269849   7.665   6.912   3.326  0.4519 -0.1384  0.3084
53691SOL     OW69850   9.139   2.190  10.347 -0.4206  0.1523  0.9098
53691SOL    HW169851   9.221   2.143  10.337 -1.1843 -1.3478  1.3493
53691SOL    HW269852   9.087   2.164  10.270  0.0374  2.2769 -0.1718
53692SOL     OW69853   3.055  12.130  11.347 -0.5904 -0.3032  0.1985
53692SOL    HW169854   3.130  12.120  11.288 -0.1665 -2.4469  1.0208
53692SOL    HW269855   2.985  12.079  11.307 -0.8698 -0.2866  0.6635
53693SOL     OW69856  10.992   5.568   1.876 -0.3978 -0.0217  0.2427
53693SOL    HW169857  11.018   5.478   1.897  1.6834  0.7748  1.3575
53693SOL    HW269858  10.900   5.561   1.851  0.0157 -2.6285 -0.8917
53694SOL     OW69859   9.055   5.917   9.671  0.2551  0.1463  0.4655
53694SOL    HW169860   9.100   5.850   9.620 -1.9042 -1.0646  0.0290
53694SOL    HW269861   9.060   5.887   9.762  1.4334  0.7155  0.6075
53695SOL     OW69862   6.972   4.981   5.974  0.6058  0.6521  0.4347
53695SOL    HW169863   7.060   4.948   5.955 -0.9611 -2.2135 -2.9129
53695SOL    HW269864   6.958   4.962   6.067  2.7521 -0.8197  0.5237
53696SOL     OW69865   6.285   6.409   9.471 -0.1147 -0.3398 -0.9980
53696SOL    HW169866   6.259   6.477   9.535  1.5393  0.0359 -0.6849
53696SOL    HW269867   6.321   6.458   9.398  1.0940 -0.8541 -0.7723
53697SOL     OW69868   1.707   0.396   6.368 -0.0962  0.3207 -0.5498
53697SOL    HW169869   1.709   0.483   6.406  1.9499  0.1613 -0.1617
53697SOL    HW269870   1.614   0.374   6.361 -0.6134  1.2927  2.1885
53698SOL     OW69871   1.097   7.621   8.695 -0.3625  0.2745  0.3225
53698SOL    HW169872   1.084   7.530   8.724 -0.9109 -0.0939 -0.9929
53698SOL    HW269873   1.021   7.639   8.639 -0.3453  1.6143  0.7130
53699SOL     OW69874   5.445   7.175   7.399 -0.5619 -0.0017  0.4662
53699SOL    HW169875   5.401   7.216   7.473 -1.0190 -0.4511  0.4423
53699SOL    HW269876   5.491   7.247   7.356 -2.4214  0.7401 -0.3428
53700SOL     OW69877  10.818   1.483   0.811  0.6557 -0.3558  0.4912
53700SOL    HW169878  10.840   1.480   0.904 -1.1022 -1.5442  0.9191
53700SOL    HW269879  10.802   1.391   0.787 -1.2392  0.1449 -0.3732
53701SOL     OW69880   1.033   0.557   6.297 -0.3777 -0.8057 -0.4580
53701SOL    HW169881   0.965   0.494   6.318 -0.7376 -0.5098 -0.7305
53701SOL    HW269882   1.054   0.598   6.381  0.3671 -1.7809 -0.1532
53702SOL     OW69883  11.209   4.700   6.907 -0.2747  0.0965 -0.3480
53702SOL    HW169884  11.302   4.687   6.891  0.3729  2.2435  1.2132
53702SOL    HW269885  11.192   4.790   6.878 -1.3718  0.4298  1.1729
53703SOL     OW69886  12.317   3.103  11.545 -0.0505 -0.3553  0.6389
53703SOL    HW169887  12.401   3.094  11.500 -1.3391 -1.8044 -1.7219
53703SOL    HW269888  12.332   3.064  11.631  1.6763 -0.6290  0.2538
53704SOL     OW69889   7.381   2.869   3.854 -0.3209  0.0762 -0.1472
53704SOL    HW169890   7.322   2.929   3.900 -0.4928 -0.0316 -0.2212
53704SOL    HW269891   7.468   2.889   3.887 -0.5421 -0.6705  0.9526
53705SOL     OW69892   2.444   3.180   6.727 -0.4904  0.3021 -0.0885
53705SOL    HW169893   2.461   3.138   6.811  0.1534  1.4571  0.3873
53705SOL    HW269894   2.506   3.140   6.667 -1.2408 -0.8352 -0.1383
53706SOL     OW69895  10.292   5.056   2.878  0.4685 -0.4727 -0.0522
53706SOL    HW169896  10.284   5.013   2.963  0.8629 -0.7515 -0.1531
53706SOL    HW269897  10.268   5.147   2.894 -0.7986 -0.8142  0.0775
53707SOL     OW69898   2.889  10.465   5.337 -0.7238  0.0282 -0.4740
53707SOL    HW169899   2.841  10.500   5.412 -0.4133 -2.2116  0.8678
53707SOL    HW269900   2.971  10.515   5.336 -0.1105 -0.7949  1.6252
53708SOL     OW69901   5.745   1.397   7.395  0.1425 -0.2662 -0.2489
53708SOL    HW169902   5.651   1.408   7.382  0.2725 -0.1347 -1.0909
53708SOL    HW269903   5.769   1.467   7.457 -0.3644 -0.5134  0.2350
53709SOL     OW69904   6.325  11.138   3.838  0.2687  0.4111  0.6899
53709SOL    HW169905   6.266  11.196   3.790  1.2452  0.7708 -0.1109
53709SOL    HW269906   6.372  11.195   3.899 -0.4521  0.0692  1.5869
53710SOL     OW69907   4.325   1.502   3.793  0.1220 -0.1105  0.4701
53710SOL    HW169908   4.264   1.525   3.723  0.5882  0.0249  0.0986
53710SOL    HW269909   4.270   1.469   3.864 -0.5732  1.7841  0.8787
53711SOL     OW69910   5.169   8.223   8.994 -0.2096 -0.4773  0.0163
53711SOL    HW169911   5.230   8.284   9.036 -1.7961  0.3181  1.2699
53711SOL    HW269912   5.153   8.262   8.907 -0.0106  0.0666  0.2166
53712SOL     OW69913   1.788   3.367   6.899 -0.3253  0.0237  0.0939
53712SOL    HW169914   1.850   3.417   6.847  0.4184 -0.1130  0.8335
53712SOL    HW269915   1.835   3.345   6.979 -1.9567  1.6448  1.6094
53713SOL     OW69916   1.044  10.294   1.468  0.5947 -0.8455 -0.3015
53713SOL    HW169917   1.040  10.264   1.377  2.0310  0.2208 -0.7573
53713SOL    HW269918   0.969  10.354   1.476  1.5528  0.5560 -1.3962
53714SOL     OW69919   2.599   3.180  12.395 -0.2750 -0.0861  0.2824
53714SOL    HW169920   2.567   3.269  12.384 -1.1188 -0.4085  0.0352
53714SOL    HW269921   2.631   3.155  12.308  0.6708  0.2425  0.5340
53715SOL     OW69922   7.635   4.536   3.026 -0.5765 -0.4544  0.2623
53715SOL    HW169923   7.728   4.555   3.016 -0.5898 -0.7831 -0.5682
53715SOL    HW269924   7.593   4.622   3.030 -0.2385 -0.3066  0.6400
53716SOL     OW69925   3.715   3.821   1.024 -0.0005  0.1028 -0.4904
53716SOL    HW169926   3.624   3.850   1.026  0.0738  0.3496 -0.6535
53716SOL    HW269927   3.714   3.745   0.966  0.2980  1.5535 -2.5311
53717SOL     OW69928   9.313   4.126   9.056 -0.2470 -0.1428  0.5943
53717SOL    HW169929   9.365   4.067   9.111  1.1181  0.6535  0.2186
53717SOL    HW269930   9.335   4.214   9.089 -0.0658  0.2918 -0.6532
53718SOL     OW69931   2.597   6.906   4.341 -0.0573  0.5563  0.0092
53718SOL    HW169932   2.669   6.873   4.395 -0.6721  0.5292  0.8244
53718SOL    HW269933   2.582   6.994   4.373 -0.1560  0.6879 -0.4016
53719SOL     OW69934   3.339   3.131   1.645 -0.2812 -0.0955 -0.2063
53719SOL    HW169935   3.310   3.133   1.554 -0.4347 -0.1148 -0.1576
53719SOL    HW269936   3.258   3.132   1.696 -0.4122 -3.6346 -0.0753
53720SOL     OW69937   3.168   6.527   3.792  0.2160  0.2384  0.3215
53720SOL    HW169938   3.160   6.508   3.699  1.0911  1.4361 -0.0340
53720SOL    HW269939   3.127   6.613   3.803  0.0847  0.0908  1.0470
53721SOL     OW69940   2.407   0.639   2.325  0.1133 -0.7733  0.1230
53721SOL    HW169941   2.369   0.720   2.291  0.5790 -0.6190 -0.0442
53721SOL    HW269942   2.500   0.659   2.335  0.1367 -1.1159  0.6104
53722SOL     OW69943   0.945   7.380   3.613  0.3342 -0.1352 -0.0005
53722SOL    HW169944   0.872   7.370   3.552  1.2361 -0.4644 -1.0704
53722SOL    HW269945   0.941   7.303   3.669  0.1446 -0.3990 -0.3733
53723SOL     OW69946   8.469   4.219   1.446  0.2935  0.2352  0.0499
53723SOL    HW169947   8.525   4.156   1.400 -0.7157  0.0089 -0.9041
53723SOL    HW269948   8.528   4.292   1.467  1.2378 -0.5532  0.2333
53724SOL     OW69949   0.973  11.122   8.252  0.1992  0.0166  0.3985
53724SOL    HW169950   1.030  11.103   8.178 -1.9946 -0.3563 -1.3044
53724SOL    HW269951   1.023  11.095   8.329  2.7992  0.9798 -0.8602
53725SOL     OW69952   6.465   3.555   9.050 -0.1193 -0.0361  0.1245
53725SOL    HW169953   6.493   3.496   9.120  0.7333 -2.3998 -2.0467
53725SOL    HW269954   6.370   3.560   9.061 -0.0154 -0.4072  1.3970
53726SOL     OW69955   0.202  10.755  11.231  0.1542 -0.0674 -0.4077
53726SOL    HW169956   0.270  10.809  11.273  0.9856 -1.4722  0.1098
53726SOL    HW269957   0.243  10.723  11.151 -1.0619  1.7068 -1.8350
53727SOL     OW69958  11.261   5.246   7.916 -0.4187  0.1240  0.5811
53727SOL    HW169959  11.290   5.259   8.006  0.2528 -0.0555  0.3961
53727SOL    HW269960  11.338   5.266   7.863 -0.6021 -0.4529  0.0879
53728SOL     OW69961   1.339  10.591   0.933 -0.4590  0.5095 -0.0385
53728SOL    HW169962   1.252  10.630   0.930 -0.4772  0.5373  0.5744
53728SOL    HW269963   1.373  10.615   1.020 -0.3093 -0.4761  0.1909
53729SOL     OW69964   5.117   3.038  11.194 -0.2906  0.1196  0.5281
53729SOL    HW169965   5.142   3.096  11.266  2.1672 -0.4741  0.2349
53729SOL    HW269966   5.118   2.950  11.231  1.9241 -0.2968 -0.3565
53730SOL     OW69967   2.830   6.240   8.916 -0.1899  0.1049 -0.3335
53730SOL    HW169968   2.777   6.212   8.842  2.0325 -1.3323 -1.4921
53730SOL    HW269969   2.904   6.286   8.877 -0.2014  1.5438  1.1895
53731SOL     OW69970   2.235   8.212   6.007 -0.2739 -0.3783  0.1799
53731SOL    HW169971   2.247   8.119   5.989 -0.1556 -0.5371  1.0501
53731SOL    HW269972   2.196   8.215   6.094 -2.2174  0.3250 -0.6679
53732SOL     OW69973   8.282   5.312   5.598 -0.2361 -0.3284  0.5049
53732SOL    HW169974   8.301   5.220   5.577 -0.5380 -0.0934 -0.8939
53732SOL    HW269975   8.337   5.362   5.538 -1.0583  0.3785  0.3140
53733SOL     OW69976   4.723   5.390  12.403  0.3971 -0.8388  0.5108
53733SOL    HW169977   4.780   5.420  12.333 -0.4147 -1.6757 -0.5442
53733SOL    HW269978   4.644   5.444  12.395  0.7228 -0.1901  1.4915
53734SOL     OW69979   7.011   3.103   9.178  0.2277  0.3648 -0.0227
53734SOL    HW169980   7.065   3.178   9.202  1.9718 -0.6280 -0.6418
53734SOL    HW269981   6.924   3.123   9.213  1.5128  0.9922  3.1351
53735SOL     OW69982  11.360   1.617  10.156 -0.5325  0.6408  0.2625
53735SOL    HW169983  11.311   1.535  10.150 -1.8264  1.4721 -1.2539
53735SOL    HW269984  11.374   1.630  10.250 -1.5387 -0.6025  0.6039
53736SOL     OW69985   0.115   5.892   8.359  0.3102 -0.0891 -0.2936
53736SOL    HW169986   0.063   5.972   8.358 -0.5494 -0.5842  1.3308
53736SOL    HW269987   0.204   5.921   8.378  0.3282  0.5976 -1.3426
53737SOL     OW69988   6.895  11.411   0.846  0.2247  0.4836  0.5065
53737SOL    HW169989   6.810  11.422   0.889  0.5514 -1.3225  1.7304
53737SOL    HW269990   6.916  11.498   0.812 -2.1820  0.9631 -0.0090
53738SOL     OW69991   5.298  10.922   0.670  0.1578 -0.1010  0.6044
53738SOL    HW169992   5.244  10.844   0.658  0.3794 -0.1711  0.0105
53738SOL    HW269993   5.370  10.911   0.608 -0.9376  1.5705 -1.0909
53739SOL     OW69994   9.957   1.337   5.647 -0.1580  0.1313 -0.1486
53739SOL    HW169995   9.931   1.337   5.554  2.0968  0.6799 -0.8372
53739SOL    HW269996   9.903   1.269   5.687 -0.5269 -0.7589 -2.0536
53740SOL     OW69997   5.373   8.772  10.031  0.0508 -0.0618 -0.0667
53740SOL    HW169998   5.354   8.744  10.121 -1.4032  1.6920  0.2360
53740SOL    HW269999   5.454   8.822  10.038  0.2248 -0.3739  0.1712
53741SOL     OW70000   2.563   4.731  11.117  0.2235  0.0430  0.2005
53741SOL    HW170001   2.529   4.814  11.150 -0.1966  0.3410 -0.9338
53741SOL    HW270002   2.553   4.737  11.022 -0.2776 -1.4970  0.1249
53742SOL     OW70003   5.962   8.333  10.931  0.1853  0.3393 -0.1973
53742SOL    HW170004   6.046   8.292  10.911  0.5589  0.1657  1.5957
53742SOL    HW270005   5.935   8.294  11.014 -2.4973 -0.8287 -1.4807
53743SOL     OW70006   3.686   8.692   6.997  0.7498 -0.5231 -0.2145
53743SOL    HW170007   3.651   8.776   6.967  1.9025  0.0955  0.1257
53743SOL    HW270008   3.609   8.641   7.022 -0.0532 -0.0722 -1.6991
53744SOL     OW70009   9.405   4.805   6.589  0.1247  0.0714  0.1393
53744SOL    HW170010   9.499   4.823   6.584  0.0619  0.2834 -0.2423
53744SOL    HW270011   9.383   4.820   6.681  0.0844  1.8677 -0.1427
53745SOL     OW70012  12.124   4.426   2.413 -0.3575 -0.1249  0.1480
53745SOL    HW170013  12.031   4.422   2.435 -0.4216  0.3674  0.0004
53745SOL    HW270014  12.142   4.343   2.369 -1.1347  0.4387 -1.3089
53746SOL     OW70015   3.370   5.147   1.610  0.0479  0.1650  0.3747
53746SOL    HW170016   3.376   5.201   1.688 -2.0933  0.1444  0.5901
53746SOL    HW270017   3.292   5.093   1.623  1.8697 -2.8054  0.0202
53747SOL     OW70018   5.944   1.347   6.895  0.1825 -0.4251 -0.4001
53747SOL    HW170019   5.920   1.259   6.926  0.1747 -0.6097 -0.9208
53747SOL    HW270020   5.956   1.336   6.801  0.7459  0.0092 -0.3823
53748SOL     OW70021   8.740   1.085   6.392 -0.4186  0.1818  0.3084
53748SOL    HW170022   8.688   1.143   6.337  0.9827  0.7534 -0.4690
53748SOL    HW270023   8.809   1.141   6.427 -0.2265 -0.5853  1.1927
53749SOL     OW70024   1.804   8.759   9.254  0.5629 -0.0482 -0.1025
53749SOL    HW170025   1.798   8.670   9.290 -0.1439  0.4555  1.1264
53749SOL    HW270026   1.752   8.812   9.315  1.0153  1.2164 -0.7875
53750SOL     OW70027   3.286   9.001   1.291 -0.1064 -0.4761 -0.1749
53750SOL    HW170028   3.372   8.961   1.277 -0.3302 -0.5979 -1.2543
53750SOL    HW270029   3.304   9.094   1.302  0.0220 -0.2159 -2.2874
53751SOL     OW70030   9.915   8.317   9.772 -0.0892 -0.2910 -0.0326
53751SOL    HW170031   9.984   8.255   9.795  1.1105  0.6258 -1.0120
53751SOL    HW270032   9.913   8.316   9.676 -0.2084  0.9877 -0.0588
53752SOL     OW70033   8.374   5.739  10.814 -0.0979 -0.6873  0.3897
53752SOL    HW170034   8.346   5.807  10.875 -1.1475 -1.0519  0.3345
53752SOL    HW270035   8.465   5.762  10.793 -0.3868  0.6090  0.4695
53753SOL     OW70036   5.163  12.253  11.584 -0.7591  0.0917 -0.1585
53753SOL    HW170037   5.085  12.235  11.635  0.1136 -1.7225  0.6184
53753SOL    HW270038   5.158  12.192  11.510 -0.8061  1.0184 -0.9389
53754SOL     OW70039   7.198   7.146  12.182  0.4091  0.1751  0.5914
53754SOL    HW170040   7.209   7.091  12.260 -1.7282 -1.0949  0.0667
53754SOL    HW270041   7.114   7.189  12.194  0.7624  1.1741 -0.3370
53755SOL     OW70042  12.046   6.134   3.548 -0.3023  0.3726 -0.1013
53755SOL    HW170043  11.995   6.207   3.584 -1.6877 -1.0796  1.0142
53755SOL    HW270044  12.039   6.145   3.453 -1.5758  0.9874  0.0318
53756SOL     OW70045   9.850   8.499   9.978 -0.2699 -0.3735 -0.0987
53756SOL    HW170046   9.881   8.435  10.042 -1.1193 -1.4299 -0.7109
53756SOL    HW270047   9.878   8.464   9.894  2.4262  1.8893 -0.3020
53757SOL     OW70048   7.907   0.328   6.883 -0.2723 -0.2028  0.0271
53757SOL    HW170049   7.841   0.279   6.834  0.1071  0.4919 -1.2229
53757SOL    HW270050   7.936   0.397   6.822  0.0996  0.7952  1.2896
53758SOL     OW70051   0.392   6.032   4.437 -0.5218  0.3661  0.1288
53758SOL    HW170052   0.360   6.122   4.444 -0.3536  0.7985 -3.0910
53758SOL    HW270053   0.485   6.041   4.416 -0.0430 -0.6493  1.6967
53759SOL     OW70054  10.501   5.724   5.829 -0.1657 -0.0932 -0.1629
53759SOL    HW170055  10.494   5.631   5.851  1.0859 -0.2790 -0.4639
53759SOL    HW270056  10.543   5.763   5.905  1.4933 -0.2200 -0.9710
53760SOL     OW70057  11.592   9.005  10.776 -0.2556  0.2420 -0.4030
53760SOL    HW170058  11.637   9.054  10.844 -0.5766  1.8093 -1.2576
53760SOL    HW270059  11.499   9.026  10.789 -0.2258  1.7364 -2.1118
53761SOL     OW70060   5.164  11.140   4.074  0.2151  0.1039 -0.3589
53761SOL    HW170061   5.223  11.150   3.999  0.0964 -1.6643 -0.7349
53761SOL    HW270062   5.213  11.084   4.135  0.1089  1.1154  0.6755
53762SOL     OW70063  10.438  11.692   4.270  0.1447 -0.2335 -0.6121
53762SOL    HW170064  10.353  11.735   4.276  1.0459  1.4376  2.1473
53762SOL    HW270065  10.492  11.736   4.337  1.7814 -4.3537  1.1317
53763SOL     OW70066   2.542   1.674   1.339 -0.0771 -0.1281  0.4084
53763SOL    HW170067   2.468   1.630   1.297 -0.1130 -0.0075  0.3452
53763SOL    HW270068   2.619   1.633   1.300 -0.0343  1.9734 -2.0047
53764SOL     OW70069   7.195   2.587   8.342  0.2254  0.4695  0.1265
53764SOL    HW170070   7.281   2.572   8.382  0.1191  0.9552  0.5529
53764SOL    HW270071   7.163   2.666   8.385 -0.1950  0.6049 -0.4311
53765SOL     OW70072   9.705  11.860   9.357  0.1657 -0.5130 -0.2223
53765SOL    HW170073   9.617  11.831   9.383 -0.3925  0.9774 -0.3150
53765SOL    HW270074   9.701  11.956   9.363  0.4484 -0.0632 -4.3058
53766SOL     OW70075   4.322  10.540   9.170 -0.5819 -0.1194 -0.1818
53766SOL    HW170076   4.306  10.625   9.211 -1.2460 -0.3938  0.1333
53766SOL    HW270077   4.333  10.561   9.077  0.5265  0.4512  0.0603
53767SOL     OW70078   2.970   0.042   4.479 -0.7868  0.7407  0.4520
53767SOL    HW170079   2.899   0.076   4.534 -0.9200  2.1355 -0.5300
53767SOL    HW270080   2.927   0.017   4.397 -0.2187  1.1932  0.0057
53768SOL     OW70081  10.510   2.431   2.858 -0.3316 -0.1967 -0.6825
53768SOL    HW170082  10.531   2.396   2.771 -0.9411 -3.4166  0.3566
53768SOL    HW270083  10.417   2.451   2.855 -0.6432 -1.5212 -0.4474
53769SOL     OW70084   5.151  12.428   7.422  0.2409 -0.7487 -0.1817
53769SOL    HW170085   5.062  12.462   7.430  0.3709 -0.7537  1.9679
53769SOL    HW270086   5.145  12.357   7.358 -1.1023 -0.1663 -0.7272
53770SOL     OW70087   3.842   3.625  10.891 -0.3924  0.1344 -0.1037
53770SOL    HW170088   3.751   3.609  10.916 -0.4922 -0.1364 -0.6236
53770SOL    HW270089   3.888   3.636  10.974 -0.0223 -4.2114  0.5111
53771SOL     OW70090  10.850  11.447   0.801 -0.7788 -0.3374  0.4346
53771SOL    HW170091  10.852  11.461   0.707 -0.9748 -0.2808  0.4395
53771SOL    HW270092  10.942  11.437   0.826 -0.6884  0.2017  0.3240
53772SOL     OW70093   8.991   9.806   2.665 -0.0921  0.5991 -0.2033
53772SOL    HW170094   9.024   9.815   2.576  1.1612 -0.2087  0.1584
53772SOL    HW270095   8.923   9.739   2.660  1.9550 -1.5754 -0.0996
53773SOL     OW70096   2.406   1.374   2.348 -0.0004  1.1037  0.1000
53773SOL    HW170097   2.314   1.394   2.365 -0.2346  0.5090 -0.4764
53773SOL    HW270098   2.451   1.457   2.364 -0.6217  1.3808  0.4584
53774SOL     OW70099  10.928   5.340   2.573 -0.3614 -0.1872  0.3553
53774SOL    HW170100  10.994   5.398   2.612  1.8803 -1.7542 -0.8925
53774SOL    HW270101  10.880   5.305   2.648  1.6646 -0.6410  1.5173
53775SOL     OW70102   8.145   1.438   0.936 -0.1599 -0.0013 -0.2095
53775SOL    HW170103   8.143   1.534   0.945  0.2173 -0.0900  1.0461
53775SOL    HW270104   8.205   1.422   0.864 -2.6238  0.7872 -2.5884
53776SOL     OW70105  11.587   6.289   8.417 -0.0211  0.0199 -0.0737
53776SOL    HW170106  11.593   6.337   8.334 -1.9291 -1.3638 -1.0990
53776SOL    HW270107  11.618   6.351   8.483  2.2687  0.9307 -1.8531
53777SOL     OW70108   2.357   7.425   3.274  0.1978  0.3729  0.4436
53777SOL    HW170109   2.270   7.458   3.298 -0.0896  0.5151 -0.7580
53777SOL    HW270110   2.341   7.339   3.236  0.6507  0.1468  0.7498
53778SOL     OW70111  10.747   5.512   0.928  0.2328 -0.1568  0.6373
53778SOL    HW170112  10.708   5.599   0.932 -1.4070 -0.7930 -0.3405
53778SOL    HW270113  10.833   5.522   0.969 -0.6430  1.4982  2.2251
53779SOL     OW70114   0.657   0.440   6.730 -0.3122  0.0536 -0.3201
53779SOL    HW170115   0.663   0.407   6.820 -0.6873 -0.1341 -0.3613
53779SOL    HW270116   0.622   0.366   6.681  2.1850 -0.7070 -1.0945
53780SOL     OW70117   9.655   0.429  11.563  0.4014  0.5891  0.1327
53780SOL    HW170118   9.567   0.413  11.598  1.2011 -1.6325  1.3616
53780SOL    HW270119   9.640   0.467  11.477 -1.7613  0.3688  0.3577
53781SOL     OW70120   8.062   0.370   8.041 -0.1099 -0.7343  0.7746
53781SOL    HW170121   8.071   0.339   7.951  0.8130  1.5587  0.0103
53781SOL    HW270122   7.974   0.342   8.068  0.1740 -2.7639 -0.2538
53782SOL     OW70123  11.499   4.903   1.771  0.1478 -0.2843  0.2693
53782SOL    HW170124  11.521   4.872   1.859  0.0395 -1.2436 -0.0219
53782SOL    HW270125  11.413   4.863   1.753  0.3235 -0.3791 -0.3913
53783SOL     OW70126   1.792   5.893   3.927 -0.0906  0.2320 -0.5500
53783SOL    HW170127   1.811   5.985   3.946  0.9184  0.4943 -2.4752
53783SOL    HW270128   1.868   5.864   3.876 -0.2294 -1.7819  0.3147
53784SOL     OW70129   7.463   0.840  10.757  0.4780  0.0791  0.0311
53784SOL    HW170130   7.368   0.831  10.757  0.4418  0.3686 -1.0951
53784SOL    HW270131   7.496   0.754  10.783 -0.0621 -0.3559 -0.7127
53785SOL     OW70132   7.991   2.651   5.633 -0.0020 -0.2431  0.4479
53785SOL    HW170133   7.908   2.687   5.662 -0.1036 -1.0066  1.1579
53785SOL    HW270134   8.057   2.714   5.661 -0.1015 -0.9194  2.3496
53786SOL     OW70135   9.749   6.728   7.370 -0.5447  0.0036 -0.9322
53786SOL    HW170136   9.668   6.767   7.336 -1.0961  0.1073  0.4241
53786SOL    HW270137   9.813   6.799   7.365 -1.3405  0.9058  0.7847
53787SOL     OW70138  12.027   6.776   0.637 -0.0404 -0.4991 -0.4095
53787SOL    HW170139  11.952   6.717   0.624  0.4090 -0.7986 -1.9211
53787SOL    HW270140  12.102   6.717   0.644  0.3256 -0.1381 -1.2001
53788SOL     OW70141   2.539   2.843   5.598  0.4784  0.3982 -0.1754
53788SOL    HW170142   2.505   2.767   5.645  1.3938 -1.4676 -2.3147
53788SOL    HW270143   2.628   2.855   5.632  0.6972 -0.1637 -0.5359
53789SOL     OW70144   2.399  11.846   7.776  0.5325  0.2597  0.9912
53789SOL    HW170145   2.352  11.784   7.832 -1.7184 -0.6958 -1.7143
53789SOL    HW270146   2.449  11.791   7.716 -1.0697  0.9738 -1.1084
53790SOL     OW70147  12.434   3.561   0.646 -0.4315  0.0366  0.3934
53790SOL    HW170148  12.524   3.578   0.618 -0.6467  1.8081  0.6873
53790SOL    HW270149  12.380   3.608   0.583 -1.1197 -0.3052  0.7213
53791SOL     OW70150   1.094   6.421   7.446 -0.2802 -0.0032  0.1903
53791SOL    HW170151   1.005   6.454   7.436  0.7308  3.3294  0.8676
53791SOL    HW270152   1.103   6.407   7.541  0.8587  3.1620  0.6723
53792SOL     OW70153   9.936   2.232   7.534  0.2322  0.0426  0.2744
53792SOL    HW170154   9.965   2.223   7.443  1.2135  1.0600  0.4614
53792SOL    HW270155   9.841   2.242   7.528  0.2930  0.1540 -0.6483
53793SOL     OW70156  12.019   4.929   4.444  0.1267 -0.5987  0.2141
53793SOL    HW170157  12.097   4.932   4.389  0.7971  0.4059  1.1754
53793SOL    HW270158  11.988   4.838   4.437  0.8670 -0.7874 -0.8622
53794SOL     OW70159   3.890   5.207   0.953  0.1028 -0.3521 -0.2133
53794SOL    HW170160   3.823   5.174   1.013  0.7705 -0.7271  0.3360
53794SOL    HW270161   3.883   5.302   0.960  0.3590 -0.3893  0.6823
53795SOL     OW70162   8.626   9.770  12.086  0.0254  0.1144 -0.0230
53795SOL    HW170163   8.639   9.798  11.995 -0.6573 -0.5774 -0.3437
53795SOL    HW270164   8.559   9.829  12.120 -0.5232 -0.3223 -0.3214
53796SOL     OW70165  10.167   6.202   0.858  0.0420  0.2216 -0.4060
53796SOL    HW170166  10.092   6.257   0.883 -1.4838 -1.6519 -0.5782
53796SOL    HW270167  10.208   6.249   0.785 -0.7050  1.5124 -0.0242
53797SOL     OW70168  12.301   5.998   6.983  0.3398 -0.2053  0.0111
53797SOL    HW170169  12.331   5.912   7.011 -0.1397  0.0927  1.5362
53797SOL    HW270170  12.367   6.059   7.018 -0.3639  0.1980  0.6522
53798SOL     OW70171   9.114   2.410   6.090  0.1645  0.5481  0.4498
53798SOL    HW170172   9.067   2.366   6.019 -0.3020  0.4425  0.8150
53798SOL    HW270173   9.097   2.503   6.076  0.5116  0.5627  0.1204
53799SOL     OW70174   7.618   4.291   7.690  0.1889 -0.2384 -0.3201
53799SOL    HW170175   7.608   4.231   7.616  1.6070 -2.1661  0.9575
53799SOL    HW270176   7.679   4.358   7.659 -1.9022  1.0743 -1.9842
53800SOL     OW70177   2.421   1.191   5.545  0.6093  0.0035 -0.1148
53800SOL    HW170178   2.497   1.183   5.602  0.4453 -2.3443 -0.1080
53800SOL    HW270179   2.457   1.185   5.456  0.5954  0.6353 -0.1620
53801SOL     OW70180  11.592   5.808  11.950 -0.0761  0.3971  0.1929
53801SOL    HW170181  11.632   5.834  12.032 -0.0567  0.4549  0.1646
53801SOL    HW270182  11.531   5.878  11.929 -0.0426  0.4081  0.1308
53802SOL     OW70183   9.569  12.532   1.387 -0.1265 -0.8465  0.6822
53802SOL    HW170184   9.522  12.595   1.332  0.6579  0.6918  1.7277
53802SOL    HW270185   9.642  12.502   1.333  0.4109  0.3574  0.7110
53803SOL     OW70186   2.985   5.308   5.842 -0.5280 -1.2460  0.5928
53803SOL    HW170187   3.058   5.335   5.787 -1.2644  0.4145  0.3753
53803SOL    HW270188   3.002   5.349   5.927 -1.9837  0.5777  0.0790
53804SOL     OW70189   2.041   6.908   1.667 -0.4793 -0.0715  0.2324
53804SOL    HW170190   2.051   6.992   1.621  1.0420 -0.4199 -0.1263
53804SOL    HW270191   2.118   6.902   1.723 -0.7996 -1.0344  0.5896
53805SOL     OW70192   2.847   5.002   9.197  0.1094  0.1298  0.3119
53805SOL    HW170193   2.856   4.980   9.290  1.8644  1.0159  0.3868
53805SOL    HW270194   2.936   5.023   9.169 -0.7444  2.3554 -0.9367
53806SOL     OW70195   4.583  11.714   9.529 -0.0824 -0.3503 -0.0391
53806SOL    HW170196   4.668  11.689   9.567  0.3565  0.3981 -0.4946
53806SOL    HW270197   4.597  11.803   9.497 -1.2139 -0.0146  0.3754
53807SOL     OW70198   0.153   7.359  10.109 -0.0156 -0.0429 -0.2942
53807SOL    HW170199   0.116   7.437  10.152  1.1297 -0.3805  1.4223
53807SOL    HW270200   0.093   7.288  10.133  1.2787 -0.4747  1.9693
53808SOL     OW70201   2.715   3.886   4.329 -0.2236 -1.0314  0.0226
53808SOL    HW170202   2.697   3.835   4.250 -0.9110 -1.7725  0.6274
53808SOL    HW270203   2.644   3.862   4.389  0.8305 -1.2660  1.2290
53809SOL     OW70204   4.844   8.370   5.333 -0.3416  0.1670 -0.0447
53809SOL    HW170205   4.793   8.424   5.272  0.1519 -0.1574 -0.7521
53809SOL    HW270206   4.871   8.431   5.402 -1.2191  0.4557  0.0575
53810SOL     OW70207   7.995   0.296  12.236 -0.0609 -0.3726  0.6255
53810SOL    HW170208   8.075   0.258  12.201 -0.6796  0.4878 -2.0485
53810SOL    HW270209   8.024   0.363  12.298  1.2990 -0.2788 -0.0858
53811SOL     OW70210   9.219   8.207  11.964 -0.2527 -0.1945 -0.5427
53811SOL    HW170211   9.142   8.184  11.912 -0.2649 -0.9209 -0.2242
53811SOL    HW270212   9.184   8.257  12.038 -0.7282 -2.3665  0.7870
53812SOL     OW70213   9.697   1.000   0.291  0.1329 -0.2525  0.3442
53812SOL    HW170214   9.609   0.970   0.269 -0.5155  1.3340  0.6167
53812SOL    HW270215   9.742   1.004   0.208  0.3686 -2.2190  0.3246
53813SOL     OW70216   7.193   1.847   0.147  0.1407  0.0110  0.0352
53813SOL    HW170217   7.107   1.854   0.104  0.6607 -0.0767 -1.0623
53813SOL    HW270218   7.247   1.801   0.083  0.9777 -0.0406  0.7725
53814SOL     OW70219   0.782   1.848   3.368  0.6462  0.0039 -0.1050
53814SOL    HW170220   0.778   1.782   3.298 -0.8205  1.2495 -1.2725
53814SOL    HW270221   0.690   1.872   3.383  1.0519  0.7659  1.2868
53815SOL     OW70222  10.516   6.649   4.972 -0.1833  0.6351 -0.2963
53815SOL    HW170223  10.501   6.568   4.924 -1.0287  1.4490 -1.4573
53815SOL    HW270224  10.430   6.674   5.005  0.5255 -0.4991  2.7349
53816SOL     OW70225  11.424   7.599  12.261 -0.2856  0.1015 -0.6372
53816SOL    HW170226  11.330   7.585  12.273 -0.1908 -1.5182 -1.4764
53816SOL    HW270227  11.458   7.602  12.351 -1.1260  0.6609 -0.3237
53817SOL     OW70228   5.259   4.299  12.430 -0.1346 -0.4547  0.2384
53817SOL    HW170229   5.324   4.355  12.388 -1.4951  1.8103  0.9701
53817SOL    HW270230   5.302   4.214  12.438  2.6506  0.8557  0.4703
53818SOL     OW70231   7.860  10.124  12.267  0.0006 -0.0070 -0.3509
53818SOL    HW170232   7.869  10.203  12.320 -0.8638 -0.3330  0.2989
53818SOL    HW270233   7.930  10.066  12.298 -0.0038  0.1133 -0.1138
53819SOL     OW70234   6.782   1.348   4.723 -0.2112 -0.1386 -0.2503
53819SOL    HW170235   6.701   1.301   4.699 -0.9136  0.3453  1.0475
53819SOL    HW270236   6.764   1.382   4.811  0.2579  2.5868 -1.1136
53820SOL     OW70237   5.747   8.960   9.710 -0.6443 -0.2174 -0.0724
53820SOL    HW170238   5.749   8.874   9.752 -0.8896  0.1513  0.7096
53820SOL    HW270239   5.801   9.015   9.766 -0.7331  0.2108 -0.4068
53821SOL     OW70240   3.894   2.571   1.055  0.1975 -0.7757 -0.4342
53821SOL    HW170241   3.875   2.480   1.032 -0.1223 -0.9808  0.5829
53821SOL    HW270242   3.823   2.621   1.014  1.4386 -0.7168 -2.6996
53822SOL     OW70243  10.972   1.865  12.184  0.0424  0.1580 -0.6378
53822SOL    HW170244  11.036   1.807  12.142  0.4578  0.6267 -0.6686
53822SOL    HW270245  10.980   1.948  12.137 -0.2565  0.3618 -0.3344
53823SOL     OW70246   8.831   4.343   7.321 -0.0074 -0.2705 -0.6230
53823SOL    HW170247   8.921   4.377   7.317 -0.2142  0.4268  0.3526
53823SOL    HW270248   8.842   4.248   7.322  0.7112 -0.1988 -0.7931
53824SOL     OW70249   2.611   1.687   5.382  0.0669 -0.5036  0.3717
53824SOL    HW170250   2.558   1.665   5.305  1.9987 -0.3463 -1.0504
53824SOL    HW270251   2.631   1.602   5.423  0.1562 -0.6885 -0.0565
53825SOL     OW70252   4.975   4.240   3.064 -0.4238  0.5286 -0.0203
53825SOL    HW170253   5.015   4.327   3.062  0.0159  0.3226 -0.9843
53825SOL    HW270254   4.948   4.228   3.155 -0.1091  1.4988  0.2150
53826SOL     OW70255  11.628  12.588   8.849  0.2895 -0.5068  0.0022
53826SOL    HW170256  11.610  12.503   8.891  1.6161 -0.0730  1.5578
53826SOL    HW270257  11.575  12.650   8.900 -0.3945 -0.3338 -0.9013
53827SOL     OW70258  11.347   4.177   2.175  0.1653  0.2082 -0.7128
53827SOL    HW170259  11.262   4.152   2.138  0.1234  1.1982 -1.3179
53827SOL    HW270260  11.404   4.101   2.158 -0.4040 -0.1714 -0.9445
53828SOL     OW70261   7.115  11.289   5.657  0.2280 -0.2353 -0.1164
53828SOL    HW170262   7.176  11.357   5.628  0.0313  1.2172  2.5683
53828SOL    HW270263   7.040  11.297   5.598  1.4621 -0.1714 -1.7187
53829SOL     OW70264   6.126   9.022   0.313 -0.0235 -0.1059 -0.0017
53829SOL    HW170265   6.171   9.004   0.230  1.5067  2.9670 -0.0086
53829SOL    HW270266   6.059   9.086   0.290  0.3763  0.7327  1.0966
53830SOL     OW70267   0.102   1.200  10.137  0.5353  0.3749 -0.3852
53830SOL    HW170268   0.116   1.263  10.066 -2.5877  1.5570 -0.1051
53830SOL    HW270269   0.095   1.254  10.216 -0.0304 -0.5269  0.1943
53831SOL     OW70270   7.125   9.196   4.007 -0.0757 -0.2605  0.0559
53831SOL    HW170271   7.209   9.236   3.986 -0.6591  0.9504 -0.0581
53831SOL    HW270272   7.148   9.112   4.047  1.1243 -1.2721 -2.5278
53832SOL     OW70273   1.351  12.117   7.226  0.1798  0.0551 -0.0216
53832SOL    HW170274   1.366  12.133   7.319 -2.4564  4.0231  0.0181
53832SOL    HW270275   1.272  12.064   7.223 -0.3931  0.8727  0.0971
53833SOL     OW70276   5.358   4.974   7.964 -0.2463 -0.1875 -0.8791
53833SOL    HW170277   5.287   4.957   8.025 -2.1595  0.4161 -2.8121
53833SOL    HW270278   5.367   4.893   7.915 -0.6547  0.2066 -1.6260
53834SOL     OW70279   0.148   4.828   4.037  0.0555 -0.0956 -0.2532
53834SOL    HW170280   0.093   4.774   3.981  1.2874 -0.8144 -0.7869
53834SOL    HW270281   0.197   4.884   3.977  0.5463 -0.0722  0.1634
53835SOL     OW70282   6.129   7.275  12.222  0.2012 -0.4147  0.2287
53835SOL    HW170283   6.134   7.337  12.148 -0.7646 -0.4585  0.1070
53835SOL    HW270284   6.035   7.259  12.232  0.2217  0.3988  2.1501
53836SOL     OW70285   1.035   7.314   3.054 -0.5496 -0.0199 -0.0496
53836SOL    HW170286   1.005   7.343   2.968  2.1849 -1.0500 -1.4634
53836SOL    HW270287   1.009   7.222   3.059  1.4935 -0.7134 -0.9806
53837SOL     OW70288   8.506   9.418   1.305 -0.0076 -0.3244  0.0078
53837SOL    HW170289   8.562   9.343   1.325 -0.1737 -0.2562  0.7582
53837SOL    HW270290   8.544   9.490   1.355 -0.7821 -0.2871  0.5543
53838SOL     OW70291   1.918   4.661   8.816 -0.1398  0.3891  0.4227
53838SOL    HW170292   1.953   4.748   8.831  3.9380 -1.5041  3.7112
53838SOL    HW270293   1.871   4.639   8.896 -0.2989 -0.7924  0.0296
53839SOL     OW70294  12.182   2.660   8.596  0.1239 -0.0048  0.6842
53839SOL    HW170295  12.187   2.602   8.520  0.9516  0.5475  0.3071
53839SOL    HW270296  12.101   2.634   8.640 -0.9556  0.4057 -0.9832
53840SOL     OW70297  12.447  10.318   8.277  0.0502 -0.5160  0.2700
53840SOL    HW170298  12.431  10.279   8.362  0.0082 -2.3088 -0.5133
53840SOL    HW270299  12.467  10.244   8.220  1.6509  0.7681 -0.9377
53841SOL     OW70300   1.858   9.890   0.982  0.0684  0.3613  0.2802
53841SOL    HW170301   1.785   9.952   0.980 -0.4893 -0.3151 -1.6770
53841SOL    HW270302   1.825   9.816   1.033 -0.7057 -0.0198 -0.7407
53842SOL     OW70303   2.001   0.088   7.762 -0.3918  0.0365  0.0181
53842SOL    HW170304   1.963   0.171   7.732  0.2412  0.9657  1.6583
53842SOL    HW270305   1.930   0.024   7.752 -1.7824  1.3172  1.1389
53843SOL     OW70306  10.687   4.894   1.072 -0.9274  0.0849  0.3904
53843SOL    HW170307  10.702   4.903   0.978  2.3121 -0.3096  0.7411
53843SOL    HW270308  10.604   4.846   1.079  0.6225 -3.4856 -2.4608
53844SOL     OW70309   7.405   4.318   8.224 -0.4272  0.1964 -0.1406
53844SOL    HW170310   7.455   4.281   8.151 -0.0339  0.9090 -0.2500
53844SOL    HW270311   7.367   4.243   8.269  0.7737 -0.3729 -0.0494
53845SOL     OW70312   5.097  12.331   3.201  0.3204 -0.2725  0.0889
53845SOL    HW170313   5.139  12.393   3.261 -0.2498  0.1999  0.0121
53845SOL    HW270314   5.127  12.358   3.114 -4.1413  3.5891 -0.6476
53846SOL     OW70315   9.534   8.224  10.969 -0.1823  0.0234 -0.2020
53846SOL    HW170316   9.558   8.268  11.051  0.2920 -1.0802  0.2710
53846SOL    HW270317   9.578   8.276  10.901 -0.4545  0.8635  0.2414
53847SOL     OW70318   0.863   2.143   4.683  0.0024  0.6464  0.0340
53847SOL    HW170319   0.818   2.201   4.745 -2.2323 -0.3927 -0.5216
53847SOL    HW270320   0.897   2.072   4.737  1.1603  1.5085  0.4789
53848SOL     OW70321   7.339   3.740   1.619 -0.1056  0.0699  0.0225
53848SOL    HW170322   7.353   3.808   1.552 -1.3448  0.8087  0.4941
53848SOL    HW270323   7.427   3.721   1.651  0.1621  3.4305  1.7909
53849SOL     OW70324   6.539   3.343  12.289  0.2000  0.1805  0.4018
53849SOL    HW170325   6.454   3.353  12.332  1.1762  0.2142  2.4986
53849SOL    HW270326   6.543   3.414  12.226 -1.8938 -0.7034 -0.8217
53850SOL     OW70327   8.260   1.017   6.188  0.3591 -0.1336  0.0287
53850SOL    HW170328   8.293   1.096   6.231  0.9070 -0.9435  1.1298
53850SOL    HW270329   8.244   1.044   6.097 -0.6313  1.5659  0.6657
53851SOL     OW70330   2.064   0.419  11.582  0.0041 -0.5850  0.3089
53851SOL    HW170331   2.107   0.489  11.533 -1.9334  0.2312 -0.3565
53851SOL    HW270332   2.125   0.398  11.653  1.3416  0.6638 -0.4042
53852SOL     OW70333   9.533   0.458   4.892  0.1192  0.1199 -0.1057
53852SOL    HW170334   9.532   0.544   4.851  0.9649 -0.1944 -0.8011
53852SOL    HW270335   9.456   0.413   4.856  1.4435 -0.5515 -2.2773
53853SOL     OW70336   5.257   0.206   6.240  0.2076  0.3168  0.4674
53853SOL    HW170337   5.340   0.159   6.252  0.2096  0.7218  2.3367
53853SOL    HW270338   5.273   0.264   6.165  1.5667  0.2893  0.7054
53854SOL     OW70339  12.304  12.361   1.022  0.4404  0.1252 -0.4150
53854SOL    HW170340  12.398  12.374   1.010  0.1478  1.5128 -1.4490
53854SOL    HW270341  12.268  12.373   0.934 -0.9775  2.2826  0.4083
53855SOL     OW70342   2.822   1.637   6.692 -0.2112 -0.3637  0.0949
53855SOL    HW170343   2.896   1.653   6.751  0.3090 -2.0344 -0.0511
53855SOL    HW270344   2.749   1.618   6.750 -0.4631  0.9338  0.2333
53856SOL     OW70345   9.683   9.920   9.959 -0.5680  0.3364 -0.1844
53856SOL    HW170346   9.695   9.924   9.864 -2.1908  0.8356 -0.3956
53856SOL    HW270347   9.684   9.826   9.980  0.2220  0.2405 -0.6130
53857SOL     OW70348   5.579  10.888   9.113 -0.4772 -0.2947 -0.1416
53857SOL    HW170349   5.628  10.813   9.078 -0.9891 -1.4238  1.4379
53857SOL    HW270350   5.511  10.904   9.048 -0.4933 -1.3590 -0.4138
53858SOL     OW70351   5.980   6.543  12.024 -0.1643 -0.4206  0.0464
53858SOL    HW170352   5.952   6.622  11.977 -1.1901 -0.6224  0.3009
53858SOL    HW270353   6.050   6.574  12.082 -0.6991  0.3562  0.3007
53859SOL     OW70354   1.597  10.578   2.560  0.2031  0.2191 -0.1576
53859SOL    HW170355   1.532  10.627   2.510  0.6001  0.6247 -0.2826
53859SOL    HW270356   1.549  10.546   2.637  0.0268  1.1532  0.1411
53860SOL     OW70357   1.043   8.239   4.731  0.9915 -0.1399 -0.0656
53860SOL    HW170358   0.971   8.176   4.724  0.5414  0.1681  1.3979
53860SOL    HW270359   1.108   8.194   4.784  2.4766 -0.8866 -2.3767
53861SOL     OW70360   8.427   1.856   5.858 -0.3664  0.2743 -0.1701
53861SOL    HW170361   8.472   1.772   5.855 -0.2505  0.3444 -0.4432
53861SOL    HW270362   8.335   1.834   5.872 -0.5500  0.0242 -1.5636
53862SOL     OW70363   0.901  11.869   3.397 -0.3300 -0.1132  0.3776
53862SOL    HW170364   0.848  11.790   3.401 -2.4115  1.0650 -1.4448
53862SOL    HW270365   0.904  11.891   3.304 -1.5044  2.9677  0.9516
53863SOL     OW70366   8.067   4.517   1.206  0.4034  0.0327  0.4442
53863SOL    HW170367   7.993   4.576   1.193  0.7495  0.1643 -1.0879
53863SOL    HW270368   8.131   4.568   1.255 -0.6552 -0.2276  2.1943
53864SOL     OW70369   4.528   0.884   8.721 -0.3629  0.1542 -0.1272
53864SOL    HW170370   4.496   0.884   8.811  1.9707  1.4064  0.7854
53864SOL    HW270371   4.622   0.864   8.729  0.2584  1.9510 -2.0918
53865SOL     OW70372   5.095   4.958   5.046 -0.0735  0.2630 -0.1905
53865SOL    HW170373   5.042   4.930   5.121 -0.3532  1.1174 -0.0552
53865SOL    HW270374   5.182   4.920   5.062 -0.3157 -0.1209  0.2188
53866SOL     OW70375  11.130   5.516  11.265  0.0169  0.1154  0.0216
53866SOL    HW170376  11.037   5.528  11.284 -0.6215  0.3114 -2.6972
53866SOL    HW270377  11.176   5.545  11.344 -2.2172  0.2408  1.3381
53867SOL     OW70378  10.769   2.931   3.411 -0.4091  0.5547  0.6221
53867SOL    HW170379  10.786   2.840   3.389  0.2026  0.6608  0.6398
53867SOL    HW270380  10.747   2.973   3.328 -0.8421  0.3667  0.6361
53868SOL     OW70381   9.511  11.690  11.624  0.1995 -0.3396  0.4575
53868SOL    HW170382   9.584  11.747  11.600 -0.2426 -0.0448 -0.2271
53868SOL    HW270383   9.457  11.743  11.682  0.2759 -0.3873  0.5719
53869SOL     OW70384   2.083  10.060   8.869 -0.2328 -0.4873 -0.1067
53869SOL    HW170385   1.993  10.069   8.838 -0.1502  1.8421  0.1528
53869SOL    HW270386   2.125  10.142   8.844  1.2089 -0.5876  1.7804
53870SOL     OW70387   3.164  12.142   4.777  0.1715 -0.4695  0.4488
53870SOL    HW170388   3.210  12.131   4.860 -0.0242 -0.6953  0.5316
53870SOL    HW270389   3.189  12.229   4.746 -0.7691  0.1725  1.3871
53871SOL     OW70390   7.007   9.013  10.365 -0.0019 -0.1221  0.4264
53871SOL    HW170391   6.959   8.934  10.338  2.7444 -2.9262  2.8554
53871SOL    HW270392   7.097   8.995  10.339  0.7362  2.2133  1.1992
53872SOL     OW70393   5.519   9.579   4.275 -0.6033  0.0238 -0.3087
53872SOL    HW170394   5.440   9.547   4.317 -0.9506  0.5131 -0.5842
53872SOL    HW270395   5.547   9.652   4.330  0.1954 -0.7274  0.3277
53873SOL     OW70396   3.232   9.801  12.273  0.3223  0.1932  0.1108
53873SOL    HW170397   3.213   9.728  12.214  0.7252 -0.3294  0.6081
53873SOL    HW270398   3.179   9.873  12.240 -2.7156 -1.2232  1.5187
53874SOL     OW70399   8.024  12.087   0.546 -0.2493  0.1146  0.1383
53874SOL    HW170400   8.095  12.151   0.557 -0.2516  0.0966  0.2574
53874SOL    HW270401   8.006  12.056   0.634  0.5798 -0.9463 -0.0457
53875SOL     OW70402   0.643  12.552   9.139 -0.2566  0.2770 -0.8337
53875SOL    HW170403   0.625  12.534   9.046  0.3695 -0.7186 -0.7819
53875SOL    HW270404   0.737  12.537   9.148 -0.1601  1.2251 -0.2191
53876SOL     OW70405   1.311  12.328  10.332 -0.7504  0.7585 -0.1454
53876SOL    HW170406   1.264  12.246  10.346 -0.3367  0.5773  0.2241
53876SOL    HW270407   1.401  12.301  10.313 -0.7379  1.1071 -0.6017
53877SOL     OW70408   4.364   0.778   2.604  0.3478 -0.4253  0.2619
53877SOL    HW170409   4.397   0.749   2.519  1.8387 -1.6736  1.2206
53877SOL    HW270410   4.439   0.819   2.647 -1.0053  2.4929  0.0735
53878SOL     OW70411   7.471  12.513   9.735  0.0596 -0.2692  0.2395
53878SOL    HW170412   7.461  12.529   9.641  2.9867 -3.5016 -0.8301
53878SOL    HW270413   7.527  12.584   9.765  0.7121 -0.2474 -0.9432
53879SOL     OW70414  10.512   1.780   1.540  0.0583  0.3552  0.0375
53879SOL    HW170415  10.489   1.693   1.509  0.3918  1.0930 -2.5314
53879SOL    HW270416  10.430   1.829   1.539 -0.3510 -0.1583  2.5870
53880SOL     OW70417   7.042   2.008   9.065 -0.4042  0.3909  0.5169
53880SOL    HW170418   6.963   2.042   9.022 -0.1811  2.7797  1.8282
53880SOL    HW270419   7.110   2.073   9.045  1.0197 -1.1441  0.1985
53881SOL     OW70420   8.504   6.766   3.698  0.1955  0.1111 -0.0249
53881SOL    HW170421   8.441   6.755   3.769  0.1538  0.7431  0.0357
53881SOL    HW270422   8.494   6.687   3.645  1.0426 -0.9551  1.3036
53882SOL     OW70423  10.675   2.336   8.795  0.1401  0.2355  0.1622
53882SOL    HW170424  10.695   2.309   8.885 -0.0705  1.3630  0.5668
53882SOL    HW270425  10.610   2.406   8.805  0.2036  0.4616 -0.8672
53883SOL     OW70426   9.799   3.319   3.542 -0.1022 -0.0611  0.1687
53883SOL    HW170427   9.840   3.244   3.499  0.9912  0.6781 -0.1224
53883SOL    HW270428   9.779   3.288   3.630 -1.1413 -1.1790 -0.4361
53884SOL     OW70429   1.675  10.180   7.542 -0.7092 -0.4074 -0.4159
53884SOL    HW170430   1.712  10.100   7.580  1.6381  0.3709 -0.9117
53884SOL    HW270431   1.609  10.208   7.605  1.1691 -0.6149  1.7609
53885SOL     OW70432   8.065  11.516   9.950  0.0429 -0.2556  0.1566
53885SOL    HW170433   8.156  11.534   9.974  0.0967  0.7181 -0.7275
53885SOL    HW270434   8.060  11.537   9.857 -0.9233 -0.9761  0.0319
53886SOL     OW70435   4.496   2.160  12.364  0.7128  0.1431 -0.0637
53886SOL    HW170436   4.444   2.087  12.330  0.3421  0.3739 -0.0116
53886SOL    HW270437   4.511   2.216  12.288 -0.1007  0.6506  0.1320
53887SOL     OW70438   7.807   0.672   9.374  0.0213 -0.6202  0.6030
53887SOL    HW170439   7.869   0.660   9.301  0.0682  0.8206  0.3752
53887SOL    HW270440   7.763   0.588   9.382  0.7979 -1.1420 -0.3792
53888SOL     OW70441   4.562   7.910  10.618  0.1742 -0.4094  0.4010
53888SOL    HW170442   4.613   7.990  10.607  0.6213 -0.2974  2.8017
53888SOL    HW270443   4.554   7.875  10.530  3.0085  0.4154 -0.2933
53889SOL     OW70444   9.460   7.931   4.329  0.4254 -0.1343  0.0028
53889SOL    HW170445   9.544   7.907   4.368 -0.5691 -1.9983  1.0935
53889SOL    HW270446   9.421   7.848   4.303 -1.3876  0.6410  0.1353
53890SOL     OW70447  11.207   0.792   4.691  0.4941  0.4537 -0.4436
53890SOL    HW170448  11.253   0.730   4.749 -0.7217  0.6859  0.8315
53890SOL    HW270449  11.157   0.736   4.632 -1.8728  0.1094  1.7360
53891SOL     OW70450   7.650   6.611   5.027 -0.3644 -0.2532  0.2441
53891SOL    HW170451   7.711   6.658   5.083 -1.0853  3.3259 -1.7176
53891SOL    HW270452   7.705   6.553   4.974  0.9013  0.4086  0.8126
53892SOL     OW70453   2.842   7.681   9.879 -0.1221  0.3571  0.1716
53892SOL    HW170454   2.776   7.733   9.833  1.3119  1.4990 -0.6870
53892SOL    HW270455   2.900   7.650   9.810  1.3023  0.9519  1.0445
53893SOL     OW70456   2.381   5.795  10.589  0.2152 -0.1520 -0.0177
53893SOL    HW170457   2.440   5.748  10.649 -1.3849  0.2109  1.9654
53893SOL    HW270458   2.312   5.732  10.569  0.1605  0.0889 -0.5951
53894SOL     OW70459   4.939   0.588  12.490  0.3775 -0.0922 -0.0523
53894SOL    HW170460   4.851   0.581  12.453  0.9474 -0.3211 -1.4274
53894SOL    HW270461   4.962   0.681  12.481 -0.9184  0.6800  3.2811
53895SOL     OW70462  10.661  10.291   3.666  0.3393 -0.0371  0.4278
53895SOL    HW170463  10.706  10.332   3.592 -2.1500  1.2268 -0.4982
53895SOL    HW270464  10.702  10.205   3.675  1.4649  0.2295 -1.6883
53896SOL     OW70465   9.416   9.018  12.414  0.5727 -0.2448  0.1728
53896SOL    HW170466   9.342   8.984  12.464 -0.1878  1.9865  0.6842
53896SOL    HW270467   9.494   8.987  12.461 -0.0974 -0.2925  1.2760
53897SOL     OW70468   3.657   4.064   7.475  0.6586  0.5379  0.0352
53897SOL    HW170469   3.637   4.157   7.465 -0.6109  0.3504  0.5885
53897SOL    HW270470   3.617   4.040   7.559  1.6609 -0.3329  0.2812
53898SOL     OW70471   2.305   8.795  11.945  0.0152 -0.7428  0.1714
53898SOL    HW170472   2.396   8.818  11.928 -0.4015  0.2363 -0.8142
53898SOL    HW270473   2.255   8.872  11.918 -1.2426 -1.9038 -0.9774
53899SOL     OW70474   4.085   2.535   7.306  0.4255 -0.8479 -0.8226
53899SOL    HW170475   4.067   2.601   7.372 -0.4497 -0.5688 -1.3230
53899SOL    HW270476   4.173   2.502   7.327  0.3367 -0.4487  0.1917
53900SOL     OW70477   4.401   2.750   5.516 -0.0399 -0.2683 -0.3216
53900SOL    HW170478   4.409   2.764   5.610 -0.0373  0.4361 -0.4223
53900SOL    HW270479   4.355   2.828   5.483 -1.2879 -1.1323 -0.7160
53901SOL     OW70480   0.961   9.675  10.252 -0.0605  0.1573  0.1841
53901SOL    HW170481   1.040   9.716  10.216  0.2628 -1.6008 -1.2446
53901SOL    HW270482   0.985   9.653  10.342  1.7942 -1.9288 -0.7186
53902SOL     OW70483   0.605   8.381   7.383  0.3024 -0.2506  0.2393
53902SOL    HW170484   0.642   8.436   7.314 -1.0507  0.2198 -0.1276
53902SOL    HW270485   0.682   8.340   7.424  1.3238  1.6114  0.2910
53903SOL     OW70486   2.689   4.443   1.292 -0.2321 -0.0789 -0.0061
53903SOL    HW170487   2.671   4.485   1.376  0.2032  0.2845 -0.0926
53903SOL    HW270488   2.631   4.486   1.230  0.0257  0.2164 -0.0444
53904SOL     OW70489   3.857   1.488   7.609  0.0368  0.4778 -0.2840
53904SOL    HW170490   3.801   1.410   7.609 -3.0502  2.4976 -1.6175
53904SOL    HW270491   3.893   1.491   7.698 -0.2399 -2.0674  0.0063
53905SOL     OW70492   9.983   8.844   7.056 -0.1496  0.2887  0.4889
53905SOL    HW170493  10.036   8.799   7.122 -0.8237  0.8258  1.4279
53905SOL    HW270494  10.039   8.913   7.022 -0.5223  1.4714  2.1671
53906SOL     OW70495   0.656   3.220   1.319  0.1788  0.3802 -0.1152
53906SOL    HW170496   0.651   3.309   1.355  0.8858  0.0196  0.9311
53906SOL    HW270497   0.729   3.179   1.366  1.2470 -0.1013 -2.0453
53907SOL     OW70498   4.410   9.118   5.740 -0.2540  0.0788 -0.3912
53907SOL    HW170499   4.488   9.163   5.708 -0.0952  0.1541  0.0899
53907SOL    HW270500   4.346   9.127   5.670  0.1697  0.0147 -0.7908
53908SOL     OW70501   0.876   5.331   2.364 -0.2121  0.2281 -0.0735
53908SOL    HW170502   0.834   5.289   2.439 -0.2083  0.6880  0.1913
53908SOL    HW270503   0.932   5.263   2.327 -0.5898 -0.1501  0.0459
53909SOL     OW70504   3.528   7.605   1.798 -0.3767 -0.4989 -0.3344
53909SOL    HW170505   3.520   7.663   1.874  2.3317 -0.1714 -0.2012
53909SOL    HW270506   3.484   7.524   1.825  0.1387 -0.2352  1.4139
53910SOL     OW70507  11.047   5.308  10.759 -0.1751  0.3917 -0.3494
53910SOL    HW170508  11.000   5.227  10.779  1.8748 -1.1847 -1.5513
53910SOL    HW270509  11.057   5.352  10.844  1.3977 -2.1815  0.9121
53911SOL     OW70510  12.298   1.094   3.469 -0.0557  0.1324 -0.5386
53911SOL    HW170511  12.224   1.139   3.429  0.4908  0.8388 -0.7844
53911SOL    HW270512  12.350   1.063   3.395  0.6531  0.9292 -0.3916
53912SOL     OW70513  12.021   6.294   2.502  0.0322 -0.0368  0.1526
53912SOL    HW170514  11.983   6.218   2.458  1.4729 -0.2083 -0.8654
53912SOL    HW270515  12.016   6.364   2.438  1.7502 -0.1739 -0.1885
53913SOL     OW70516   7.368   3.859   7.979  0.1142 -0.1356  0.0696
53913SOL    HW170517   7.314   3.799   7.927 -0.3716  0.1807  0.1986
53913SOL    HW270518   7.414   3.913   7.914 -0.3723  0.1553 -0.0393
53914SOL     OW70519  10.920   9.240   4.220  0.3438  0.0286  0.2671
53914SOL    HW170520  10.925   9.144   4.224  0.4376  0.0599  1.2971
53914SOL    HW270521  10.835   9.258   4.181 -0.4837 -0.4969  1.7444
53915SOL     OW70522   3.973   4.915   3.456  0.0500  0.4717 -0.0099
53915SOL    HW170523   4.002   4.854   3.389  2.9262  0.2237  1.3144
53915SOL    HW270524   3.929   4.860   3.521  0.2783  0.2065 -0.0785
53916SOL     OW70525   9.862   1.243  11.982  0.0304 -0.9082  0.0259
53916SOL    HW170526   9.881   1.309  11.915 -1.1816 -1.0969 -0.5345
53916SOL    HW270527   9.810   1.177  11.936 -0.0331 -1.5047  0.9354
53917SOL     OW70528   2.879   2.222   8.202 -0.1723 -0.2218 -0.0970
53917SOL    HW170529   2.833   2.248   8.123 -0.5987 -1.6281 -0.3379
53917SOL    HW270530   2.968   2.257   8.191 -0.7153  1.1418 -0.3470
53918SOL     OW70531  11.548   7.038   0.319 -0.0494  0.5602 -0.0107
53918SOL    HW170532  11.623   6.982   0.339 -1.2894 -0.7369  1.2593
53918SOL    HW270533  11.574   7.125   0.349  2.6895  1.2914 -3.7931
53919SOL     OW70534  10.254   8.540   6.747  0.7566  0.2141 -0.4238
53919SOL    HW170535  10.310   8.582   6.812 -0.0261  0.4303  0.1170
53919SOL    HW270536  10.306   8.541   6.666  2.4851 -1.6412  0.5622
53920SOL     OW70537  12.030   7.539   5.696 -0.1945 -0.0641  0.3030
53920SOL    HW170538  12.068   7.523   5.610 -0.6910  0.6550 -0.0630
53920SOL    HW270539  11.973   7.615   5.683 -3.4467 -2.3275  0.3053
53921SOL     OW70540   7.660   0.813   8.144  0.0178 -0.1028 -0.2422
53921SOL    HW170541   7.656   0.864   8.063  2.7837  2.1092  0.8947
53921SOL    HW270542   7.580   0.837   8.191 -0.7649 -0.0916 -1.5262
53922SOL     OW70543   0.899   0.558   9.555  0.9526  0.0031  0.0015
53922SOL    HW170544   0.924   0.467   9.540 -0.9761 -0.5838  0.1479
53922SOL    HW270545   0.957   0.608   9.497  1.2781 -1.3868 -0.9254
53923SOL     OW70546   2.529   4.040  12.277  0.8099 -0.6397 -0.5019
53923SOL    HW170547   2.482   3.984  12.339  1.0507  0.8949  1.1313
53923SOL    HW270548   2.463   4.104  12.249  1.4314  0.4549  0.4593
53924SOL     OW70549   2.276   5.664  11.997 -0.0959 -0.4710  0.2038
53924SOL    HW170550   2.281   5.643  11.904  0.1637 -0.0737  0.1232
53924SOL    HW270551   2.281   5.580  12.042 -0.2549 -0.6666 -0.1411
53925SOL     OW70552   2.588  11.173   1.047  0.1292 -0.2600 -0.3806
53925SOL    HW170553   2.554  11.087   1.020 -1.2687  0.1022  0.1715
53925SOL    HW270554   2.516  11.234   1.029  0.2229  0.4359  1.4054
53926SOL     OW70555   7.462   4.991   7.252  0.5923 -0.7493  0.1476
53926SOL    HW170556   7.528   4.954   7.311 -0.4901 -2.7971  0.1570
53926SOL    HW270557   7.391   5.019   7.310  0.8551  0.1824  0.0322
53927SOL     OW70558   5.159   0.322   2.571 -0.1008 -0.1208  0.0949
53927SOL    HW170559   5.065   0.327   2.557  0.0351  0.2716 -0.7475
53927SOL    HW270560   5.181   0.230   2.557 -0.4065 -0.2843  0.6564
53928SOL     OW70561  12.097   7.355   2.759 -0.5896 -0.0967 -0.2836
53928SOL    HW170562  12.013   7.392   2.732  0.2289  1.3456 -0.9842
53928SOL    HW270563  12.162   7.406   2.711  0.7881  0.0319  1.6076
53929SOL     OW70564   9.171   0.892   1.380  0.1804 -0.0966 -0.1376
53929SOL    HW170565   9.118   0.850   1.312 -1.3757  2.1262 -0.4164
53929SOL    HW270566   9.120   0.970   1.405  0.6814 -0.7844  3.5720
53930SOL     OW70567   6.637   2.622   1.760  0.5278 -0.1574 -0.6217
53930SOL    HW170568   6.661   2.665   1.678 -0.5385 -0.1403 -0.9360
53930SOL    HW270569   6.714   2.571   1.784  0.4758 -1.0268 -2.2085
53931SOL     OW70570   0.123   3.477   5.139 -0.1754  0.2623  0.6455
53931SOL    HW170571   0.126   3.518   5.052 -1.1971 -0.2019  0.3828
53931SOL    HW270572   0.065   3.402   5.128  0.5726 -0.4605  1.4678
53932SOL     OW70573  10.363  12.286   0.991  0.2837  0.0826  0.4581
53932SOL    HW170574  10.439  12.332   0.956 -0.5325 -0.7883 -2.8308
53932SOL    HW270575  10.321  12.247   0.914 -1.8284 -1.9888  2.4828
53933SOL     OW70576   2.160  11.535   1.654 -0.5333  0.3004  0.1803
53933SOL    HW170577   2.089  11.586   1.615 -2.8579 -3.3409 -0.8174
53933SOL    HW270578   2.145  11.542   1.748 -1.3468  0.7164  0.0297
53934SOL     OW70579   7.028   2.962   2.163 -0.6537 -0.0394 -0.0242
53934SOL    HW170580   7.042   3.051   2.133 -0.6285 -0.1157 -0.2431
53934SOL    HW270581   6.943   2.937   2.127 -0.8569  0.0423  0.3916
53935SOL     OW70582   0.364   8.732   0.634 -0.0301  0.4109  0.1126
53935SOL    HW170583   0.317   8.659   0.675 -2.3467  1.4166 -0.5678
53935SOL    HW270584   0.301   8.769   0.572  1.0715  2.9311  0.3593
53936SOL     OW70585   8.980   5.256   8.700 -0.3902  0.2604  0.0936
53936SOL    HW170586   8.984   5.305   8.618 -2.2613 -0.5460 -0.5336
53936SOL    HW270587   8.918   5.305   8.755  2.2488  1.8776  1.8851
53937SOL     OW70588   1.240   5.955  10.379  0.0473 -0.3014  0.2140
53937SOL    HW170589   1.308   5.912  10.430 -0.1495  0.1411  0.8558
53937SOL    HW270590   1.208   6.026  10.435  0.4591  0.7854 -0.8586
53938SOL     OW70591   1.239   6.605   6.772  0.2491  0.2375 -0.3675
53938SOL    HW170592   1.294   6.540   6.816 -0.7964  0.4951  1.4350
53938SOL    HW270593   1.153   6.564   6.768 -0.0299  0.8488 -0.7653
53939SOL     OW70594  12.301  11.899   4.063 -0.0189 -0.2878  0.7564
53939SOL    HW170595  12.240  11.963   4.025  0.0584 -1.1247 -0.8790
53939SOL    HW270596  12.258  11.870   4.143  0.4740  2.6013  2.1929
53940SOL     OW70597  11.938   0.166  12.438 -0.7897 -0.2370  0.2921
53940SOL    HW170598  11.897   0.242  12.479  0.0113  0.0986  0.4887
53940SOL    HW270599  12.015   0.202  12.392 -0.9168 -0.7930 -0.3782
53941SOL     OW70600  12.575   9.024   5.189  0.0099 -0.4194 -0.3466
53941SOL    HW170601  12.575   9.096   5.252  2.5279 -0.4071 -0.2893
53941SOL    HW270602  12.612   8.950   5.238  0.0552 -0.9840 -1.2143
53942SOL     OW70603   7.124  11.225   3.915 -0.3340 -0.2844  0.2272
53942SOL    HW170604   7.096  11.290   3.979  0.3949 -0.7272  1.0190
53942SOL    HW270605   7.162  11.275   3.843  0.4353  0.1651  0.9353
53943SOL     OW70606   7.906   5.580   2.845  1.1011 -0.1426 -0.0620
53943SOL    HW170607   7.867   5.561   2.930 -2.0533 -0.4103 -1.4492
53943SOL    HW270608   7.980   5.639   2.866 -0.8564  1.5960  2.7101
53944SOL     OW70609   4.692   9.227  11.584 -0.2478 -0.0937  0.2861
53944SOL    HW170610   4.743   9.258  11.658 -2.5094  1.3002  1.3480
53944SOL    HW270611   4.716   9.285  11.512  0.9205 -0.5607  0.2873
53945SOL     OW70612   3.145  10.611  10.454 -0.1545  0.3799  0.0825
53945SOL    HW170613   3.214  10.597  10.390 -0.2494  0.4526 -0.0372
53945SOL    HW270614   3.068  10.567  10.417 -0.1748  0.3073  0.2091
53946SOL     OW70615   0.497   2.110  11.324 -0.0659  0.2678 -0.0198
53946SOL    HW170616   0.427   2.069  11.273 -1.3423  1.2338  0.8965
53946SOL    HW270617   0.461   2.119  11.412  1.4002  0.3530  0.6115
53947SOL     OW70618   6.652   1.879  11.549 -0.1614  0.6977 -0.3854
53947SOL    HW170619   6.611   1.911  11.629  0.1649  2.8013 -0.9906
53947SOL    HW270620   6.580   1.871  11.486 -0.0884  1.5804 -0.6031
53948SOL     OW70621   7.714   5.533   3.450 -0.1007 -0.4373 -0.2364
53948SOL    HW170622   7.805   5.509   3.465 -0.0083 -0.4715 -0.8435
53948SOL    HW270623   7.718   5.603   3.385 -0.5600 -1.2366 -1.1595
53949SOL     OW70624  10.804   2.570   0.789 -0.6558 -0.3003 -0.0389
53949SOL    HW170625  10.824   2.549   0.698 -0.0889 -1.6685  0.3800
53949SOL    HW270626  10.826   2.491   0.838  0.1548  0.7907  1.4447
53950SOL     OW70627  12.390   3.496   7.766 -0.3576 -0.0818 -0.0848
53950SOL    HW170628  12.396   3.405   7.794  2.1454  0.5248  1.6853
53950SOL    HW270629  12.407   3.547   7.845 -0.0553  1.8884 -1.3404
53951SOL     OW70630   4.885  10.586   1.578 -0.3714 -0.3754  0.3326
53951SOL    HW170631   4.896  10.567   1.671  3.8571 -2.4899 -0.3611
53951SOL    HW270632   4.941  10.662   1.563 -4.1785  2.6934 -0.0055
53952SOL     OW70633  11.455   7.292   2.066 -0.9359  0.2408  0.0962
53952SOL    HW170634  11.461   7.329   2.154  1.3934 -0.9654  0.5126
53952SOL    HW270635  11.546   7.277   2.040 -1.6451 -2.9843 -0.9549
53953SOL     OW70636   2.739  11.487   2.937  0.2373  0.1750  0.1382
53953SOL    HW170637   2.661  11.471   2.884 -0.7050  0.5572  1.3868
53953SOL    HW270638   2.754  11.404   2.983  0.8999 -0.0705 -0.4937
53954SOL     OW70639   8.179   4.030   1.405  0.3830  0.3756 -0.5295
53954SOL    HW170640   8.176   3.986   1.319  0.4029  0.5242 -0.6060
53954SOL    HW270641   8.223   3.967   1.462  0.0459  0.1226 -0.5406
53955SOL     OW70642  11.323   2.295  11.412 -0.2871 -0.3551 -0.1857
53955SOL    HW170643  11.347   2.314  11.321 -0.6112  1.3469  0.0451
53955SOL    HW270644  11.247   2.351  11.429 -0.7991 -1.3309  0.8619
53956SOL     OW70645   2.123  12.602  10.761 -0.0054  0.2398  0.6283
53956SOL    HW170646   2.207  12.597  10.806  0.6389 -0.0201 -0.5722
53956SOL    HW270647   2.094  12.692  10.774  1.9352  1.2670 -1.4736
53957SOL     OW70648   8.505   1.696   5.208 -0.1810 -0.0155  0.0131
53957SOL    HW170649   8.575   1.733   5.261 -0.8377  1.2723  0.0353
53957SOL    HW270650   8.538   1.610   5.180  2.1911  1.2930 -1.5427
53958SOL     OW70651   2.694   4.687   0.303 -0.0640  0.7652  0.0303
53958SOL    HW170652   2.774   4.696   0.252  0.3848  2.0384  0.9172
53958SOL    HW270653   2.660   4.776   0.310 -1.0508  0.3657  0.4760
53959SOL     OW70654   0.024   7.873   9.157  0.2099 -0.2387 -0.1349
53959SOL    HW170655  -0.028   7.814   9.102  0.7170 -0.6495 -0.1888
53959SOL    HW270656   0.034   7.952   9.105 -1.0093  0.1587  0.1872
53960SOL     OW70657   5.430   4.744   4.756 -0.0417 -0.2782 -0.5416
53960SOL    HW170658   5.470   4.798   4.824  0.4418 -0.8454 -0.3637
53960SOL    HW270659   5.503   4.694   4.719 -0.6479 -1.7010  0.1308
53961SOL     OW70660  12.422   8.963   5.546  0.2710 -0.6823 -0.4938
53961SOL    HW170661  12.359   8.944   5.476  0.6148  1.2416 -1.3775
53961SOL    HW270662  12.508   8.951   5.505  0.4766 -0.0762 -0.2518
53962SOL     OW70663   5.726   5.197   7.061 -0.1760 -0.2005  0.0473
53962SOL    HW170664   5.742   5.181   6.968  0.0196 -2.6008  0.4356
53962SOL    HW270665   5.799   5.155   7.106 -0.5650  0.4160  1.3234
53963SOL     OW70666   2.037   2.029   8.918  0.5587  0.3546  0.4551
53963SOL    HW170667   1.953   2.046   8.960 -0.1078  1.3180 -1.1990
53963SOL    HW270668   2.085   2.112   8.926  1.1723 -0.0328  0.9367
53964SOL     OW70669   8.775   3.651   3.528  0.2111  0.0256  0.2770
53964SOL    HW170670   8.870   3.641   3.523  0.2749  0.5288  0.4656
53964SOL    HW270671   8.751   3.688   3.443  0.1211 -0.5651  0.0413
53965SOL     OW70672  12.516   9.082  10.312  0.6610  0.1000 -0.0099
53965SOL    HW170673  12.429   9.041  10.314  0.5865  0.2154 -0.6333
53965SOL    HW270674  12.565   9.037  10.380  0.3219 -0.4533 -0.1227
53966SOL     OW70675   2.803  11.183   4.114 -0.7962  0.3294 -0.5404
53966SOL    HW170676   2.879  11.131   4.140 -2.2650 -1.5863  0.1613
53966SOL    HW270677   2.789  11.244   4.186 -1.2282 -0.8616  0.4236
53967SOL     OW70678   6.017   4.564   5.358  0.6062  0.0384 -0.7658
53967SOL    HW170679   6.012   4.659   5.351  1.1838  0.0013 -2.0056
53967SOL    HW270680   6.107   4.546   5.387  0.6900 -0.1451 -1.1315
53968SOL     OW70681   9.081   5.691   7.597 -0.7127 -0.5109 -0.9126
53968SOL    HW170682   9.170   5.723   7.582 -0.8746 -0.3625 -1.6407
53968SOL    HW270683   9.025   5.767   7.578 -1.0194 -0.7803 -1.1022
53969SOL     OW70684  11.992   1.477   9.229 -0.5028 -0.1341 -0.6135
53969SOL    HW170685  11.986   1.511   9.140 -0.5351 -1.5407 -1.1675
53969SOL    HW270686  11.904   1.447   9.251 -0.1481 -1.3572 -0.7723
53970SOL     OW70687   8.073   2.749  10.403 -0.6636  0.2701  0.3471
53970SOL    HW170688   8.008   2.800  10.453 -0.7236  0.5082  0.0264
53970SOL    HW270689   8.077   2.792  10.318  0.0281  0.3507  0.4128
53971SOL     OW70690   5.985   4.613   6.216 -0.2621  0.6036  0.2953
53971SOL    HW170691   5.983   4.560   6.136 -0.5914  0.3027  0.4990
53971SOL    HW270692   6.063   4.667   6.206  0.9341 -0.9483  0.7149
53972SOL     OW70693  10.495   9.313   4.335 -0.0042 -0.0409  0.2167
53972SOL    HW170694  10.579   9.271   4.315 -0.4974 -0.5755 -0.8876
53972SOL    HW270695  10.470   9.278   4.420  1.6869  1.4558  1.3863
53973SOL     OW70696   7.488  11.136  11.133  0.1982  0.3500  0.2344
53973SOL    HW170697   7.446  11.211  11.175  1.8663  0.9550  0.8675
53973SOL    HW270698   7.438  11.061  11.165 -0.8479  1.0942  0.3961
53974SOL     OW70699   3.911  12.101   5.987  0.0561  0.2943 -0.0924
53974SOL    HW170700   3.919  12.196   5.986  0.4925  0.2831  0.8450
53974SOL    HW270701   3.992  12.071   6.030 -0.1193 -0.4935 -0.2938
53975SOL     OW70702   8.738   5.512   5.467  0.5364  0.5151  0.5619
53975SOL    HW170703   8.802   5.442   5.480 -0.7133 -0.7858 -0.0214
53975SOL    HW270704   8.787   5.580   5.421  1.2462 -0.9662 -1.0171
53976SOL     OW70705   8.594   2.687   9.910  0.0872 -0.0430  0.5712
53976SOL    HW170706   8.633   2.727   9.988  1.7016 -1.2696  0.4518
53976SOL    HW270707   8.510   2.730   9.900 -0.1486  0.1742  2.9725
53977SOL     OW70708   2.371  12.589   1.529  0.3238 -0.4074 -0.2883
53977SOL    HW170709   2.467  12.598   1.526  0.4537 -1.5904 -0.2152
53977SOL    HW270710   2.356  12.496   1.516 -0.9746  0.1146 -3.7385
53978SOL     OW70711   8.515   1.967  10.930 -0.2642  0.1987  0.2244
53978SOL    HW170712   8.590   1.990  10.875 -1.3630  1.6251 -0.7713
53978SOL    HW270713   8.545   1.980  11.019  0.5452  1.2756 -0.1758
53979SOL     OW70714  10.543  10.043   1.821 -0.2239 -0.3317  0.5301
53979SOL    HW170715  10.489  10.087   1.755  0.6315 -1.6890 -1.1582
53979SOL    HW270716  10.565  10.112   1.884 -0.3147  1.2505 -1.1008
53980SOL     OW70717   1.543   0.517   7.504 -0.1422 -0.4364 -0.1839
53980SOL    HW170718   1.561   0.448   7.568 -1.3846 -0.6558 -0.0324
53980SOL    HW270719   1.542   0.473   7.420 -0.4458 -0.5218 -0.1382
53981SOL     OW70720   5.137  10.768   3.416  0.6537  0.7355 -0.5311
53981SOL    HW170721   5.149  10.863   3.406  1.1229  0.7395  0.0343
53981SOL    HW270722   5.135  10.735   3.326 -2.3360  1.5818 -0.8945
53982SOL     OW70723   8.641   4.228  12.055  0.3147  0.2206 -0.0985
53982SOL    HW170724   8.614   4.285  12.126  0.5308  0.7836 -0.4651
53982SOL    HW270725   8.676   4.287  11.988  0.4687 -0.3300 -0.5127
53983SOL     OW70726   4.755   7.491   5.598 -0.1724  0.4534  0.3095
53983SOL    HW170727   4.754   7.456   5.509  1.6463  1.4447 -0.1410
53983SOL    HW270728   4.706   7.573   5.592  0.8035  1.0293 -0.0387
53984SOL     OW70729   6.772   7.638   6.528  0.5948  0.3323  0.1241
53984SOL    HW170730   6.752   7.702   6.596 -0.6353 -0.2949  0.3694
53984SOL    HW270731   6.690   7.591   6.513  1.3016 -0.7499 -0.5204
53985SOL     OW70732  10.208   1.951   4.285  0.2976  0.2327  0.3474
53985SOL    HW170733  10.288   1.951   4.338  0.3515 -0.7114  0.2848
53985SOL    HW270734  10.137   1.944   4.348  0.2958  0.4672  0.3707
53986SOL     OW70735   1.166  10.142   4.485 -0.0515  0.0601 -0.5287
53986SOL    HW170736   1.159  10.182   4.398 -0.7715  0.7388 -0.1672
53986SOL    HW270737   1.126  10.056   4.476 -0.1683  0.1495 -0.8613
53987SOL     OW70738  10.894  11.661   2.495  0.1561 -0.2056  0.2514
53987SOL    HW170739  10.926  11.682   2.407  1.9729 -0.5082  0.7853
53987SOL    HW270740  10.799  11.654   2.486  0.2985 -0.1142 -1.6526
53988SOL     OW70741   7.860   4.397   0.571 -0.5427 -0.0853 -0.0933
53988SOL    HW170742   7.925   4.467   0.566 -0.8361  0.1053 -1.7290
53988SOL    HW270743   7.784   4.438   0.613 -0.3305  0.2601 -0.0392
53989SOL     OW70744   1.113  10.201   9.900  0.6190 -0.3213  0.0551
53989SOL    HW170745   1.163  10.226   9.822  0.9194 -0.6640  0.1329
53989SOL    HW270746   1.023  10.188   9.868  1.0500 -2.0598 -0.5728
53990SOL     OW70747   1.768  11.318   0.362  0.2939  0.3717 -0.0235
53990SOL    HW170748   1.780  11.243   0.420 -0.6619  1.1337  1.1912
53990SOL    HW270749   1.741  11.279   0.279  2.0344 -0.7569 -0.1191
53991SOL     OW70750   6.186   4.025   2.966  0.2873 -0.3599  0.1549
53991SOL    HW170751   6.182   3.959   2.896 -1.1564 -0.2631  0.1101
53991SOL    HW270752   6.096   4.059   2.971  0.7469  0.7661  0.9796
53992SOL     OW70753   3.839   5.646   0.322  0.0857  0.1643  0.0697
53992SOL    HW170754   3.911   5.653   0.385 -0.1603  0.1175  0.3552
53992SOL    HW270755   3.881   5.658   0.237  0.1312  2.3836  0.3398
53993SOL     OW70756   2.022   6.704  10.064  0.0661 -0.5929  0.1790
53993SOL    HW170757   2.103   6.719  10.114 -0.7131  2.5730  0.7160
53993SOL    HW270758   2.014   6.782  10.010 -2.6882 -0.7763  0.2238
53994SOL     OW70759   0.734   3.783   6.753  0.1116 -0.1223 -0.3766
53994SOL    HW170760   0.694   3.696   6.746 -0.6188  0.1099  0.6307
53994SOL    HW270761   0.795   3.775   6.826 -0.3093  0.3244  0.0346
53995SOL     OW70762   3.076   2.993   2.583  0.1178  0.2143 -0.2381
53995SOL    HW170763   3.062   3.036   2.668 -1.1672  0.3725 -0.5145
53995SOL    HW270764   3.165   2.958   2.589 -0.1654 -0.3135  1.4069
53996SOL     OW70765   6.568  11.538   5.823 -0.2680  0.1299 -0.6942
53996SOL    HW170766   6.509  11.481   5.775 -0.1616 -1.3541  0.8574
53996SOL    HW270767   6.652  11.529   5.779 -0.1369 -1.3225 -0.1845
53997SOL     OW70768   0.186   2.889   2.683 -0.4413 -0.9782  0.2970
53997SOL    HW170769   0.178   2.800   2.718 -1.1552 -1.5221 -1.1769
53997SOL    HW270770   0.098   2.910   2.652  0.3922 -1.1188 -2.4435
53998SOL     OW70771   6.434  11.082   7.745  0.2405 -0.2558  0.4097
53998SOL    HW170772   6.481  11.024   7.686  1.7672  2.2965 -1.0585
53998SOL    HW270773   6.483  11.078   7.827 -1.7147 -3.5796  1.6286
53999SOL     OW70774   9.381   4.560   5.583  0.2318 -0.0206  0.1520
53999SOL    HW170775   9.348   4.488   5.529 -2.6284 -0.5290  2.3157
53999SOL    HW270776   9.334   4.637   5.551  1.8174  0.5889 -0.8522
54000SOL     OW70777   0.855   6.991  11.482 -0.6593  0.6225 -0.1835
54000SOL    HW170778   0.912   7.068  11.482 -1.0883  0.9661 -1.5509
54000SOL    HW270779   0.867   6.953  11.569  1.5798  0.7323 -0.3640
54001SOL     OW70780   5.671  10.270  11.538 -0.3337 -0.1977 -0.3091
54001SOL    HW170781   5.603  10.285  11.473 -1.1212 -0.1540  0.5166
54001SOL    HW270782   5.682  10.175  11.539 -1.3388 -0.3111  0.5156
54002SOL     OW70783   4.346  11.344   8.141 -0.2075  0.2147  0.3393
54002SOL    HW170784   4.439  11.340   8.117 -0.2758 -2.0114  0.2167
54002SOL    HW270785   4.345  11.373   8.232  0.5869  0.6381  0.2170
54003SOL     OW70786   9.902   0.468   7.043 -0.0883 -0.3464 -0.8374
54003SOL    HW170787   9.940   0.531   7.105  1.2782 -0.8450 -1.1129
54003SOL    HW270788   9.947   0.486   6.960 -1.8346  0.2516 -1.6839
54004SOL     OW70789  11.549   7.486   1.857 -0.3859  0.0848 -0.0020
54004SOL    HW170790  11.499   7.404   1.858  0.4564 -0.4793 -1.3248
54004SOL    HW270791  11.637   7.460   1.883 -0.4273  0.8232  0.9028
54005SOL     OW70792   0.615   0.538   7.673 -0.3095 -0.3491 -0.5447
54005SOL    HW170793   0.555   0.545   7.599  1.8092 -0.8503 -2.4354
54005SOL    HW270794   0.689   0.594   7.649  0.4378 -0.5366  1.1988
54006SOL     OW70795   5.858  12.398   0.336 -0.2443  0.0744 -0.2244
54006SOL    HW170796   5.876  12.460   0.265  1.0650 -1.8083 -1.6450
54006SOL    HW270797   5.870  12.312   0.296  0.0501 -1.0732  2.1638
54007SOL     OW70798   0.011   4.077   4.896  0.0337  0.4130 -0.0300
54007SOL    HW170799   0.050   4.164   4.899 -1.0781  0.9174  0.6061
54007SOL    HW270800  -0.007   4.061   4.803  1.8985  0.0721 -0.3593
54008SOL     OW70801  10.165  11.556   1.722  0.0539  0.0251  0.4062
54008SOL    HW170802  10.193  11.465   1.710 -1.8126 -0.4897 -0.3043
54008SOL    HW270803  10.232  11.607   1.677  0.3775 -1.0876 -0.4136
54009SOL     OW70804   3.665   9.922   7.483 -0.2604  0.3875  0.2737
54009SOL    HW170805   3.684  10.007   7.524 -0.9765 -0.3461  2.2377
54009SOL    HW270806   3.692   9.858   7.549 -0.4013 -0.9123 -0.8939
54010SOL     OW70807   1.400   8.790   3.788 -0.0038  0.3563  0.0966
54010SOL    HW170808   1.494   8.771   3.780  0.2110  1.7881 -1.1376
54010SOL    HW270809   1.365   8.715   3.836  1.4337 -1.2108 -1.1571
54011SOL     OW70810  11.876   8.903   6.006  0.0265  0.1466  0.0381
54011SOL    HW170811  11.899   8.820   5.964  1.1870  0.6800 -0.4244
54011SOL    HW270812  11.865   8.880   6.099  1.5284 -0.3288  0.1269
54012SOL     OW70813   4.269   7.480   3.700  0.2099 -0.5172  0.6284
54012SOL    HW170814   4.346   7.477   3.643  1.3375  1.4783  1.9335
54012SOL    HW270815   4.206   7.534   3.653  1.2257  1.3230  1.2635
54013SOL     OW70816   3.859   4.441   3.128  0.5483  0.0892  0.6896
54013SOL    HW170817   3.930   4.388   3.165  0.6447  0.0632  0.4657
54013SOL    HW270818   3.903   4.505   3.073  0.5001  0.9286  1.5839
54014SOL     OW70819   4.806   0.873   8.714  0.7344  0.3487 -0.0742
54014SOL    HW170820   4.888   0.849   8.672  1.4116  1.3181  0.6499
54014SOL    HW270821   4.831   0.932   8.785 -0.6230  1.0549 -0.1360
54015SOL     OW70822   7.189   6.076   6.838 -0.1010  0.2423 -0.4679
54015SOL    HW170823   7.119   6.122   6.885  0.0837 -0.4556  0.5180
54015SOL    HW270824   7.153   6.062   6.750 -0.2492  2.0205 -0.7222
54016SOL     OW70825   4.475  12.173   6.568  0.3246  0.2114 -0.2062
54016SOL    HW170826   4.457  12.134   6.653 -1.5213 -0.9087 -1.0335
54016SOL    HW270827   4.504  12.262   6.587  0.2047 -0.1055  1.5916
54017SOL     OW70828   1.185  11.272   9.698 -0.1795 -0.4552  0.0313
54017SOL    HW170829   1.155  11.183   9.683 -1.7944  0.1030 -0.2394
54017SOL    HW270830   1.276  11.272   9.669 -0.6397 -1.6048 -1.5240
54018SOL     OW70831   4.878   6.204   0.100 -0.1499  0.3841  0.4889
54018SOL    HW170832   4.955   6.237   0.146  0.0456  0.8430 -0.1460
54018SOL    HW270833   4.824   6.282   0.085 -0.5489  0.1270  0.5846
54019SOL     OW70834   4.205   5.490  12.151  0.4775 -0.0699  0.4414
54019SOL    HW170835   4.157   5.409  12.134 -0.8598  0.5326  1.2007
54019SOL    HW270836   4.192   5.543  12.072  0.0464  0.0060  0.5586
54020SOL     OW70837   0.109   5.707   3.089  0.3562 -0.0344 -0.0708
54020SOL    HW170838   0.057   5.767   3.034 -0.2816 -1.4777 -1.1307
54020SOL    HW270839   0.081   5.726   3.178  0.1270  1.1947 -0.3828
54021SOL     OW70840   3.373   8.375  10.541  0.4605 -0.2878 -0.9194
54021SOL    HW170841   3.363   8.465  10.510 -0.3207 -0.4009 -1.0332
54021SOL    HW270842   3.327   8.373  10.625  0.3049 -0.6260 -1.0098
54022SOL     OW70843   6.631   1.529   7.800  0.2377 -0.5943  0.3344
54022SOL    HW170844   6.596   1.547   7.888 -1.1120  0.2362 -0.3284
54022SOL    HW270845   6.689   1.603   7.782  0.3469 -0.6533  0.4439
54023SOL     OW70846   8.546  12.540   6.259 -0.2440 -0.3418  0.1461
54023SOL    HW170847   8.628  12.491   6.254  1.1266  1.7056  1.0482
54023SOL    HW270848   8.549  12.601   6.186 -0.3143  0.6061  0.9017
54024SOL     OW70849   0.212   3.823   0.153  0.0114  0.0161 -0.0242
54024SOL    HW170850   0.231   3.752   0.092 -1.4387  0.0558 -0.5586
54024SOL    HW270851   0.137   3.869   0.114  0.3325  1.2686  0.7788
54025SOL     OW70852   7.642   0.836   6.535 -0.5337  0.1103 -0.3445
54025SOL    HW170853   7.604   0.756   6.570 -0.2360 -0.5300 -1.4141
54025SOL    HW270854   7.572   0.900   6.540 -0.7139 -0.1580  0.7185
54026SOL     OW70855   7.859   6.656   8.855  0.6660  0.0171  0.6125
54026SOL    HW170856   7.769   6.626   8.863  0.2026  0.6782 -1.7017
54026SOL    HW270857   7.855   6.751   8.863  1.1421  0.0707  0.2799
54027SOL     OW70858  12.537   6.082   7.096  0.6158  0.5539 -0.5206
54027SOL    HW170859  12.564   6.068   7.187 -0.2351  0.3200 -0.2918
54027SOL    HW270860  12.509   6.173   7.094  0.6308  0.5577 -0.5515
54028SOL     OW70861   1.049  11.423  10.728  0.8262 -0.0843  0.4836
54028SOL    HW170862   1.023  11.484  10.659 -1.2447 -1.4348  0.0109
54028SOL    HW270863   1.025  11.337  10.696 -1.8638 -0.6615  3.5156
54029SOL     OW70864   7.521   9.874   5.535  0.2916  0.4294 -0.1335
54029SOL    HW170865   7.427   9.891   5.529  0.2511  0.2640  0.0503
54029SOL    HW270866   7.548   9.862   5.444 -0.4151 -2.5305 -0.0627
54030SOL     OW70867   4.515   3.842   2.158 -0.0613 -0.1070  0.0977
54030SOL    HW170868   4.552   3.802   2.080 -0.2669 -2.7069  1.2085
54030SOL    HW270869   4.582   3.830   2.225 -1.0882 -0.8117  1.0372
54031SOL     OW70870   4.011   9.328   3.351  0.1720 -0.0595 -0.4434
54031SOL    HW170871   4.030   9.393   3.419 -1.9626  1.4872 -1.2223
54031SOL    HW270872   4.072   9.350   3.280 -0.6543  1.2709 -0.7768
54032SOL     OW70873   0.782   0.876   5.781  0.3710  0.1532 -0.4420
54032SOL    HW170874   0.703   0.918   5.749 -0.3874 -0.3924  0.6650
54032SOL    HW270875   0.825   0.943   5.834 -0.3565 -0.1438  0.5487
54033SOL     OW70876  11.683   5.200   3.228 -0.2582  0.1443  0.0117
54033SOL    HW170877  11.771   5.219   3.193  0.2209 -0.5187  0.8274
54033SOL    HW270878  11.694   5.120   3.279 -1.8140 -1.2505 -1.6992
54034SOL     OW70879   4.161   1.961   8.641  0.7385 -0.4336  0.3027
54034SOL    HW170880   4.240   1.997   8.681  1.4602 -0.9453 -0.6035
54034SOL    HW270881   4.163   1.995   8.551 -1.4714  1.6823  0.9635
54035SOL     OW70882   7.976   7.337   9.628  0.0599 -0.4189  0.1015
54035SOL    HW170883   7.905   7.399   9.643 -0.1374 -0.0883 -1.9500
54035SOL    HW270884   7.999   7.305   9.715 -0.8480  1.4029  1.0595
54036SOL     OW70885   0.429   4.621   7.936 -0.6267  0.5256 -0.2396
54036SOL    HW170886   0.346   4.596   7.975  0.1704  0.5249  1.5192
54036SOL    HW270887   0.404   4.661   7.852 -2.3097 -0.4118 -0.2317
54037SOL     OW70888   5.121   6.053   9.646  0.5816  0.1656 -0.1336
54037SOL    HW170889   5.127   6.148   9.645 -0.4366  0.2780  1.2922
54037SOL    HW270890   5.028   6.034   9.654  0.5347 -1.0324 -2.4374
54038SOL     OW70891   1.999   9.645   4.462  0.1645  0.1490  0.4320
54038SOL    HW170892   1.936   9.680   4.399  3.5881  2.4258 -2.1447
54038SOL    HW270893   2.024   9.560   4.426  0.9201  0.7337 -0.4986
54039SOL     OW70894   3.492  12.577  11.353  0.8181  0.3851 -0.0855
54039SOL    HW170895   3.410  12.531  11.333  0.2994  1.2408  0.0204
54039SOL    HW270896   3.464  12.664  11.382  1.8322  1.6300 -2.5516
54040SOL     OW70897  12.438   5.777  10.451 -0.2316 -0.0438  0.5936
54040SOL    HW170898  12.463   5.825  10.372  2.5533 -0.4366  1.1340
54040SOL    HW270899  12.358   5.731  10.427  0.5059 -0.1371 -2.0112
54041SOL     OW70900   4.818   7.667   4.991 -0.1430  0.2496  0.3574
54041SOL    HW170901   4.877   7.646   4.919 -0.0369  0.7958  0.2810
54041SOL    HW270902   4.875   7.674   5.068 -0.1703  0.3059  0.3729
54042SOL     OW70903   2.317   0.462   3.182 -0.0368 -0.1873 -0.0993
54042SOL    HW170904   2.256   0.512   3.127 -0.9763 -1.7545 -0.5550
54042SOL    HW270905   2.299   0.492   3.271  0.3695  1.2127 -0.4500
54043SOL     OW70906   4.315   7.876   6.763 -0.0822  0.3619  0.2781
54043SOL    HW170907   4.276   7.821   6.831  0.2530  0.3970  0.5027
54043SOL    HW270908   4.320   7.963   6.803  2.4229 -0.1038  1.1695
54044SOL     OW70909   4.467   0.089   3.752 -0.4361  0.0279 -0.4471
54044SOL    HW170910   4.466   0.009   3.805 -0.7683 -0.0280 -0.5320
54044SOL    HW270911   4.418   0.153   3.803 -1.7457 -0.3528 -1.1664
54045SOL     OW70912   2.672   5.313   6.839  0.1285 -0.0689  0.3415
54045SOL    HW170913   2.728   5.352   6.771  1.8567  0.0111  1.7329
54045SOL    HW270914   2.606   5.380   6.856  0.0882  0.1937 -0.7569
54046SOL     OW70915   4.114   6.182   4.710  0.4726  0.1771 -0.2773
54046SOL    HW170916   4.104   6.276   4.724 -0.6672  0.2938 -1.6964
54046SOL    HW270917   4.028   6.146   4.729  0.7951 -0.5410 -0.1500
54047SOL     OW70918   1.339   1.967   1.332  0.1443  0.2232 -0.3641
54047SOL    HW170919   1.315   1.888   1.283  1.1696  0.0600 -0.6057
54047SOL    HW270920   1.403   2.012   1.278 -0.2894  1.1487 -0.1420
54048SOL     OW70921  11.327   0.692   2.474 -0.2763  0.6397 -0.4655
54048SOL    HW170922  11.366   0.621   2.525  0.7020  1.9315  0.6231
54048SOL    HW270923  11.233   0.687   2.494 -0.4750 -1.2584 -1.5931
54049SOL     OW70924   9.853   6.189   4.238  0.2379  0.7622  0.0811
54049SOL    HW170925   9.848   6.284   4.235  0.8086  0.7719 -0.9582
54049SOL    HW270926   9.882   6.163   4.150 -0.7013 -0.4180  0.0884
54050SOL     OW70927   2.272   8.085   9.886  0.1387  0.8434  0.3095
54050SOL    HW170928   2.187   8.095   9.843 -0.1973 -0.0729  0.7266
54050SOL    HW270929   2.263   8.004   9.937  1.7676 -0.1384 -0.8683
54051SOL     OW70930  11.436   0.059   4.667 -0.0462 -0.3816 -0.5213
54051SOL    HW170931  11.441   0.146   4.627  0.3132 -0.4499 -0.6287
54051SOL    HW270932  11.413   0.000   4.594  1.8010 -0.6898 -0.9102
54052SOL     OW70933  11.678   1.870   9.696  0.2440  0.2088 -0.1120
54052SOL    HW170934  11.701   1.780   9.718 -1.9723 -0.2585  0.4935
54052SOL    HW270935  11.701   1.921   9.774  1.0873  0.1131 -0.2898
54053SOL     OW70936   0.545   1.557   4.925 -0.1842  0.0500  0.1585
54053SOL    HW170937   0.502   1.606   4.996 -0.3866 -0.1692  0.1872
54053SOL    HW270938   0.550   1.467   4.957  0.4190  0.0974  0.2085
54054SOL     OW70939   8.626   1.460   5.165 -0.1968 -0.5211 -0.3102
54054SOL    HW170940   8.639   1.435   5.256 -0.7432 -0.0339 -0.0928
54054SOL    HW270941   8.705   1.508   5.142 -0.0062 -0.7465 -0.1285
54055SOL     OW70942   3.032   7.021   3.081 -0.8098 -0.3426  0.2727
54055SOL    HW170943   3.110   7.003   3.029 -1.2754 -0.8704 -0.2574
54055SOL    HW270944   3.063   7.079   3.151  0.4474 -2.0518  1.2069
54056SOL     OW70945   7.650   2.767   6.240  0.2683 -0.0241 -0.0917
54056SOL    HW170946   7.614   2.703   6.301 -0.4982 -1.2052 -1.7082
54056SOL    HW270947   7.622   2.736   6.153  3.3547  0.1802 -1.3096
54057SOL     OW70948   3.173  11.609   8.337  0.0323  0.3286  0.2413
54057SOL    HW170949   3.123  11.604   8.255  0.1667  2.2282 -0.0043
54057SOL    HW270950   3.188  11.702   8.350  0.4960  0.0294  2.1635
54058SOL     OW70951   8.025   8.174   2.004  0.5975 -0.1236 -0.0160
54058SOL    HW170952   8.094   8.225   1.961  0.9137 -0.3062  0.2662
54058SOL    HW270953   7.965   8.240   2.040  1.1414  0.0656  0.5751
54059SOL     OW70954   2.650   4.161   8.406  0.8574  0.0596 -0.8317
54059SOL    HW170955   2.580   4.181   8.345 -0.1756 -0.4779  0.1385
54059SOL    HW270956   2.620   4.198   8.490  1.7411 -0.1675 -0.3986
54060SOL     OW70957  11.938   4.966   6.689  0.3666  0.5541 -0.0200
54060SOL    HW170958  11.892   5.047   6.713 -1.8276 -0.0895 -1.7009
54060SOL    HW270959  11.991   4.945   6.765 -0.7038  2.3852  1.3176
54061SOL     OW70960  12.047   9.687   1.289  0.0425  0.1706  0.1782
54061SOL    HW170961  12.036   9.746   1.215 -0.0955  0.2395  0.2523
54061SOL    HW270962  12.139   9.694   1.312  0.2065 -0.2667 -0.3298
54062SOL     OW70963   6.533   7.173   9.354 -0.0744  0.0259 -0.7502
54062SOL    HW170964   6.588   7.218   9.289 -1.7479  1.8226 -1.0170
54062SOL    HW270965   6.565   7.204   9.438  0.2571 -0.0794 -0.8352
54063SOL     OW70966   5.762   8.533   3.150 -0.7050 -0.4728 -0.6933
54063SOL    HW170967   5.732   8.553   3.238  2.4983  1.2408  0.1460
54063SOL    HW270968   5.761   8.438   3.145 -0.4422 -0.6324  1.4057
54064SOL     OW70969  10.956   7.423   4.069  0.0205  0.2188  0.2591
54064SOL    HW170970  10.972   7.450   4.160  0.3043  1.6764 -0.1955
54064SOL    HW270971  10.989   7.496   4.016  1.0821 -1.1655 -1.0746
54065SOL     OW70972  10.959   4.789   1.170  0.0719  0.7834 -0.0407
54065SOL    HW170973  10.888   4.852   1.155  0.4814  1.1482 -0.4671
54065SOL    HW270974  10.914   4.706   1.187 -0.4507  0.5459 -2.2888
54066SOL     OW70975   5.175   8.624   4.691  0.6773 -0.2923 -0.3296
54066SOL    HW170976   5.096   8.631   4.638  0.3316 -1.3400  0.0241
54066SOL    HW270977   5.241   8.675   4.643 -0.5339  1.7974  0.0742
54067SOL     OW70978   0.195   9.216  10.644 -0.3573  0.2897  0.5832
54067SOL    HW170979   0.137   9.167  10.587  0.9774  0.3703 -0.8836
54067SOL    HW270980   0.157   9.205  10.732 -2.2991 -0.0366 -0.2504
54068SOL     OW70981  11.374  10.567   1.039 -0.1449 -0.0473 -0.1570
54068SOL    HW170982  11.423  10.486   1.049  0.3662  0.4253  1.4387
54068SOL    HW270983  11.315  10.569   1.115 -2.6705 -0.5681 -1.9435
54069SOL     OW70984   0.708   0.729   8.863  0.6120 -0.3313 -0.7302
54069SOL    HW170985   0.650   0.744   8.938  1.5341 -0.0557 -0.0493
54069SOL    HW270986   0.725   0.634   8.866  1.3941 -0.1874  0.0056
54070SOL     OW70987   9.108   3.922   8.143  0.5877 -0.2087  0.4335
54070SOL    HW170988   9.197   3.957   8.152  0.0399  1.5999 -0.7805
54070SOL    HW270989   9.076   3.959   8.061 -1.1751 -1.1256  0.6706
54071SOL     OW70990  10.898   0.485  12.498 -0.2663 -0.3425 -0.1802
54071SOL    HW170991  10.888   0.574  12.463 -1.1324 -0.1332  0.5568
54071SOL    HW270992  10.890   0.496  12.593 -0.6509 -1.2416 -0.1001
54072SOL     OW70993   7.671   0.731  12.323 -0.0000 -0.1309 -0.4924
54072SOL    HW170994   7.682   0.651  12.272 -1.5239  0.0256 -1.1429
54072SOL    HW270995   7.758   0.770  12.327  0.2259 -0.2269 -2.8814
54073SOL     OW70996   7.115   3.069   7.920 -0.1339  0.0131 -0.0729
54073SOL    HW170997   7.062   3.106   7.850  0.3046 -0.8950 -0.9147
54073SOL    HW270998   7.206   3.080   7.891  0.1596  1.2951  1.2160
54074SOL     OW70999  11.821   6.123   8.859 -0.2136 -0.1009 -0.2223
54074SOL    HW171000  11.833   6.152   8.769 -0.0382 -0.9972 -0.5015
54074SOL    HW271001  11.910   6.104   8.891 -0.0818  1.8775  0.7479
54075SOL     OW71002   1.633   8.744   5.326 -0.2101 -0.5557 -0.2694
54075SOL    HW171003   1.590   8.786   5.252  2.5130  1.8201 -0.6504
54075SOL    HW271004   1.620   8.804   5.399  1.6909 -0.1412 -0.2193
54076SOL     OW71005   0.737   2.563  11.334 -0.1652 -0.4442  0.1200
54076SOL    HW171006   0.655   2.514  11.324 -0.8170  0.5945  0.1658
54076SOL    HW271007   0.784   2.518  11.405 -1.3391 -0.2431  1.0674
54077SOL     OW71008   2.304   0.786   0.357  0.1674  0.4868  0.4942
54077SOL    HW171009   2.332   0.696   0.341  0.9834  0.4636  1.9611
54077SOL    HW271010   2.290   0.823   0.269  2.2803 -0.2885 -0.2085
54078SOL     OW71011   6.745   8.638   3.966  0.6276  0.4171 -0.1009
54078SOL    HW171012   6.781   8.564   4.015  5.0598  2.1784 -0.2628
54078SOL    HW271013   6.747   8.609   3.874 -0.1740 -0.1107  0.0336
54079SOL     OW71014   5.342   6.104   9.798 -0.1971 -0.0108 -0.0894
54079SOL    HW171015   5.275   6.079   9.734 -0.5462 -2.2422  1.0370
54079SOL    HW271016   5.303   6.174   9.849 -1.4136 -0.7761  0.0692
54080SOL     OW71017   2.999  10.207   5.064  0.0998  0.4766  0.8870
54080SOL    HW171018   3.016  10.220   5.157 -1.6619 -1.2868  1.5278
54080SOL    HW271019   2.944  10.282   5.040  1.5139  1.5754  0.9117
54081SOL     OW71020   2.651   1.196  11.283 -0.0914 -0.5340 -0.2478
54081SOL    HW171021   2.691   1.116  11.250 -1.6030 -0.3956 -2.7117
54081SOL    HW271022   2.562   1.170  11.307  0.0804 -0.0122  0.9879
54082SOL     OW71023   7.055   5.902   8.778 -0.2887 -0.1749 -0.3701
54082SOL    HW171024   7.080   5.858   8.696 -1.2258 -1.7245  0.1204
54082SOL    HW271025   7.100   5.852   8.846  0.8048  1.3507  0.0792
54083SOL     OW71026   5.691   8.558  12.194  1.1249 -0.3825 -0.2098
54083SOL    HW171027   5.659   8.599  12.114  2.9887 -1.9614 -1.8813
54083SOL    HW271028   5.740   8.628  12.239  0.1919  0.4782 -0.4971
54084SOL     OW71029  11.992   6.127   6.170 -0.0195  0.0460 -0.0517
54084SOL    HW171030  11.992   6.056   6.234 -0.7250  0.2968  0.2415
54084SOL    HW271031  11.992   6.207   6.222  0.1236  0.2615 -0.3735
54085SOL     OW71032   6.705   5.305   9.495 -0.4440 -0.4631 -0.2375
54085SOL    HW171033   6.614   5.292   9.466 -0.0817 -1.5971 -0.9667
54085SOL    HW271034   6.757   5.284   9.417  0.4804 -1.1965  0.5582
54086SOL     OW71035   1.510   8.511   5.221  0.2894 -0.0763  0.1599
54086SOL    HW171036   1.443   8.537   5.158 -0.3974 -0.4030  0.7417
54086SOL    HW271037   1.533   8.593   5.265 -1.2997 -0.2675  1.4396
54087SOL     OW71038   2.077   6.382   0.402 -0.0872 -0.1553 -0.0731
54087SOL    HW171039   2.172   6.371   0.401  0.1128  1.2229  0.4972
54087SOL    HW271040   2.063   6.460   0.456 -1.6008 -0.7997  0.5124
54088SOL     OW71041  10.317   8.612   2.583  0.9653 -0.1886 -0.2377
54088SOL    HW171042  10.366   8.694   2.572  0.8471 -0.1099 -0.1771
54088SOL    HW271043  10.264   8.605   2.504  0.2331  0.2990  0.1940
54089SOL     OW71044   4.550  12.145   1.306 -0.1388 -0.3745  0.0347
54089SOL    HW171045   4.495  12.167   1.231  0.2025  2.5925  0.5230
54089SOL    HW271046   4.640  12.149   1.273 -0.0430 -0.8850  0.2170
54090SOL     OW71047   9.366   1.765   1.901  0.3251  0.1532  0.0477
54090SOL    HW171048   9.298   1.719   1.949 -0.9623  0.5528 -1.3164
54090SOL    HW271049   9.324   1.792   1.819  1.4941  2.2861  0.0603
54091SOL     OW71050   3.455   2.485   2.866 -0.1333 -0.2586 -0.4884
54091SOL    HW171051   3.397   2.409   2.871 -0.4887  0.0459  0.0509
54091SOL    HW271052   3.474   2.508   2.957  0.0775  0.2142 -0.6471
54092SOL     OW71053  10.944   0.925   7.087  0.1454  0.1139  0.0847
54092SOL    HW171054  11.027   0.883   7.109  0.2334  0.6433  0.7819
54092SOL    HW271055  10.888   0.908   7.162 -0.1323  0.4140 -0.0547
54093SOL     OW71056   4.664   1.583   2.931  0.2408  0.1435  0.5615
54093SOL    HW171057   4.672   1.660   2.987  1.7864  0.0538  0.5199
54093SOL    HW271058   4.733   1.524   2.961  0.7223 -0.1597 -1.0110
54094SOL     OW71059  12.528   4.901  12.461 -0.0663 -0.7559  0.1378
54094SOL    HW171060  12.443   4.876  12.426 -0.0765  0.4694 -0.7685
54094SOL    HW271061  12.540   4.991  12.432  1.5996 -0.9534  0.1495
54095SOL     OW71062   4.870  11.485   7.085 -0.2161  0.0541 -0.0555
54095SOL    HW171063   4.953  11.521   7.053 -1.2009  2.2475 -0.2888
54095SOL    HW271064   4.872  11.501   7.180  0.4289 -1.7088  0.2788
54096SOL     OW71065   0.792   5.126  11.933  0.1839  0.2514  0.2813
54096SOL    HW171066   0.728   5.139  12.002 -0.3373 -0.0504 -0.1423
54096SOL    HW271067   0.740   5.117  11.853  0.7588  0.1830 -0.0907
54097SOL     OW71068   0.385   2.473   6.554 -0.5438  0.2229 -0.1029
54097SOL    HW171069   0.335   2.533   6.610 -1.5326 -1.3136  0.7517
54097SOL    HW271070   0.343   2.480   6.469 -3.0584 -1.7901  0.8305
54098SOL     OW71071   3.295   0.623   4.961  0.0935  0.5384 -0.4080
54098SOL    HW171072   3.374   0.569   4.969  0.2523  0.6788 -1.0122
54098SOL    HW271073   3.249   0.610   5.044  1.2622  1.2611  0.3854
54099SOL     OW71074   5.323   0.238   6.710  0.2108 -0.1700 -0.0580
54099SOL    HW171075   5.365   0.152   6.708  0.8286  0.0314  1.8457
54099SOL    HW271076   5.269   0.241   6.631  3.0182 -0.8165 -2.1672
54100SOL     OW71077   3.396  12.071  11.803  0.0623 -0.8198 -0.0569
54100SOL    HW171078   3.318  12.056  11.856  0.3222 -0.2347  0.5005
54100SOL    HW271079   3.381  12.018  11.724 -0.9209 -0.6731  0.0106
54101SOL     OW71080   0.562  11.907  10.474 -0.0353  0.1594 -0.1621
54101SOL    HW171081   0.655  11.899  10.454  0.0257  0.0133  0.1727
54101SOL    HW271082   0.529  11.970  10.410  0.9637  2.7350  1.6684
54102SOL     OW71083  10.972   6.403   2.483  0.1614 -0.0348 -0.2683
54102SOL    HW171084  10.956   6.475   2.422  2.0452  0.0381 -0.7550
54102SOL    HW271085  11.059   6.421   2.519  0.2271 -1.5120  0.3947
54103SOL     OW71086   5.520   5.778   8.661  0.0184  0.6280  0.1215
54103SOL    HW171087   5.599   5.740   8.622  0.3756 -1.6533  2.7819
54103SOL    HW271088   5.453   5.711   8.650  0.0507  0.0082  2.9480
54104SOL     OW71089   2.249   1.136  12.460  0.4797 -0.2848 -0.0557
54104SOL    HW171090   2.207   1.081  12.394  0.3299  0.5538 -0.6792
54104SOL    HW271091   2.293   1.204  12.409  2.2801 -0.8920  0.5793
54105SOL     OW71092  12.326   2.363   1.805  0.7825  0.1733 -0.4713
54105SOL    HW171093  12.395   2.426   1.826  0.6504  0.1115  0.1768
54105SOL    HW271094  12.246   2.415   1.805  0.4163 -0.2667  1.8899
54106SOL     OW71095   1.614   3.234   3.349  0.0370  0.2340 -0.5516
54106SOL    HW171096   1.562   3.165   3.391 -0.8591  1.6775  0.8261
54106SOL    HW271097   1.697   3.191   3.328 -0.5982 -1.3371 -0.0132
54107SOL     OW71098   7.231   7.424  11.241  0.1043  0.2442 -0.0602
54107SOL    HW171099   7.305   7.420  11.302  0.0649  0.6577  0.0214
54107SOL    HW271100   7.164   7.472  11.289 -0.3630 -0.4627  0.0086
54108SOL     OW71101   5.986  11.183   4.045  0.1609 -0.0251 -0.6342
54108SOL    HW171102   5.944  11.172   4.131  0.9605  0.6328 -0.1445
54108SOL    HW271103   5.926  11.140   3.984 -0.8438  0.2227  0.1395
54109SOL     OW71104   1.394   2.298   1.958  0.1889  0.2380 -0.0006
54109SOL    HW171105   1.402   2.389   1.929  0.1462  0.0289 -0.6855
54109SOL    HW271106   1.351   2.253   1.885 -2.9143  0.3221  1.5898
54110SOL     OW71107   6.500   4.790   8.646 -0.0730 -0.2500  0.1797
54110SOL    HW171108   6.436   4.861   8.650  1.6298  1.3221  0.5958
54110SOL    HW271109   6.559   4.815   8.576 -0.3134 -2.0836 -0.7402
54111SOL     OW71110   3.856  11.190  10.791  0.1292 -0.3799  0.1161
54111SOL    HW171111   3.777  11.213  10.741  1.2589  0.3411 -1.4099
54111SOL    HW271112   3.823  11.144  10.868 -1.8642  0.9983  0.1646
54112SOL     OW71113  10.984   3.507   4.455  0.0370 -0.6762 -0.6334
54112SOL    HW171114  10.994   3.426   4.405 -2.3478 -0.8755 -0.9046
54112SOL    HW271115  10.919   3.486   4.522 -0.9382  1.1157 -0.9568
54113SOL     OW71116   2.054   8.114   9.728  0.2126 -0.5435 -0.7121
54113SOL    HW171117   2.045   8.057   9.651  1.1015 -0.0789 -1.1766
54113SOL    HW271118   2.035   8.202   9.694  0.3210 -0.3696 -0.3260
54114SOL     OW71119   7.480   8.220   5.395  0.5034 -0.2601 -0.1222
54114SOL    HW171120   7.459   8.233   5.487 -1.3944  0.4492 -0.6145
54114SOL    HW271121   7.402   8.249   5.348  2.2926  1.7502 -2.0901
54115SOL     OW71122   2.778   0.975  11.187 -0.3134 -0.2379  0.5464
54115SOL    HW171123   2.693   0.943  11.159 -0.5907 -0.0253  1.1251
54115SOL    HW271124   2.821   1.004  11.107 -0.1793 -1.7445  0.0529
54116SOL     OW71125  11.885   6.038  10.681 -0.7833 -0.0057  0.7413
54116SOL    HW171126  11.836   5.958  10.700 -0.3915 -0.3054  0.5097
54116SOL    HW271127  11.828   6.089  10.624 -0.8111 -0.3699  0.4397
54117SOL     OW71128   3.961   5.990   9.986  0.5861 -0.0827  0.4029
54117SOL    HW171129   3.958   6.080  10.020 -0.1129  0.1164 -0.1566
54117SOL    HW271130   3.958   5.935  10.064 -1.5839  0.3515  0.6902
54118SOL     OW71131   4.843  12.013   3.774  0.1374  0.3594  0.0299
54118SOL    HW171132   4.895  12.070   3.717  0.3488 -0.4995 -0.6542
54118SOL    HW271133   4.833  11.932   3.724  1.2430 -0.8313  1.6280
54119SOL     OW71134   0.416   6.496  11.340 -0.5998  0.5265 -0.2160
54119SOL    HW171135   0.370   6.466  11.418  0.7935  1.2268  0.9196
54119SOL    HW271136   0.496   6.537  11.373  1.7341 -2.0575 -2.0817
54120SOL     OW71137   2.368   5.568  11.409 -0.1695 -0.5032  0.2130
54120SOL    HW171138   2.390   5.476  11.425  0.4006 -0.6829 -1.3662
54120SOL    HW271139   2.390   5.613  11.490  1.5902 -1.4537  0.3123
54121SOL     OW71140   6.635   9.373  11.614 -0.2140  0.2459  0.1179
54121SOL    HW171141   6.700   9.402  11.551 -0.2827  0.8706  0.3296
54121SOL    HW271142   6.663   9.411  11.697 -0.7217  0.3304  0.2545
54122SOL     OW71143   6.908  11.270   5.897 -0.1609 -0.1626  0.2952
54122SOL    HW171144   6.850  11.199   5.925 -1.1161  0.9882  1.4186
54122SOL    HW271145   6.992  11.228   5.880  0.0252 -1.2911  3.2821
54123SOL     OW71146  11.072   7.350   7.365 -0.0448  0.2229 -0.4075
54123SOL    HW171147  11.034   7.262   7.354 -0.4488  0.2679  0.5279
54123SOL    HW271148  11.154   7.347   7.316 -0.5843 -0.3220 -1.3114
54124SOL     OW71149   6.647   6.402   9.252  0.2158 -0.0320 -0.0409
54124SOL    HW171150   6.565   6.365   9.219  0.3350  0.4922 -0.9554
54124SOL    HW271151   6.713   6.337   9.230 -0.0375 -0.8430  1.4286
54125SOL     OW71152   0.101   9.932   3.385  0.2631  0.8808  0.0422
54125SOL    HW171153   0.160   9.917   3.310 -1.3356 -0.7198 -0.9705
54125SOL    HW271154   0.158   9.923   3.461  1.4036 -0.4100 -0.8967
54126SOL     OW71155   2.096   6.479   1.572  0.0331 -0.1403 -0.1981
54126SOL    HW171156   2.032   6.426   1.525 -0.6549  0.5097 -0.0297
54126SOL    HW271157   2.081   6.458   1.664  0.9833 -0.9800 -0.2202
54127SOL     OW71158  12.490   3.639   8.233 -0.2319  0.3960 -0.1139
54127SOL    HW171159  12.542   3.580   8.287  0.1347 -0.0051 -0.8776
54127SOL    HW271160  12.401   3.632   8.268 -0.3851 -1.3353 -0.7499
54128SOL     OW71161   6.384   3.298   5.949 -0.6325 -0.3446  0.3735
54128SOL    HW171162   6.418   3.384   5.926 -0.7495  0.0523  1.5976
54128SOL    HW271163   6.370   3.303   6.044 -0.6852 -1.6918  0.4520
54129SOL     OW71164   1.689   4.963  12.452  0.1466  0.2293  0.1215
54129SOL    HW171165   1.744   4.910  12.510  0.9798  0.5671 -0.3565
54129SOL    HW271166   1.629   4.899  12.412  0.5415 -0.2154  0.2315
54130SOL     OW71167  12.551  10.411   2.516  0.3350 -0.0319  0.7884
54130SOL    HW171168  12.633  10.419   2.467  0.0598 -3.1946 -0.4336
54130SOL    HW271169  12.535  10.499   2.551  2.4888  1.5214 -1.7187
54131SOL     OW71170  11.970   2.186   0.708 -0.5437  0.8710  0.3551
54131SOL    HW171171  11.900   2.179   0.643 -1.0250 -0.9129  0.9951
54131SOL    HW271172  12.029   2.113   0.687 -0.0566  1.0193  1.1574
54132SOL     OW71173  11.988   8.352   4.388 -0.3077  0.3163  0.5085
54132SOL    HW171174  12.028   8.288   4.447  2.2414  0.2915 -1.0813
54132SOL    HW271175  12.031   8.336   4.304 -0.5133  3.2756 -0.2537
54133SOL     OW71176  12.550   1.047   7.894 -0.0749  0.0541 -0.6064
54133SOL    HW171177  12.513   0.969   7.935  1.2074  0.0391  0.6404
54133SOL    HW271178  12.566   1.106   7.968  0.9258  0.6434 -1.2751
54134SOL     OW71179   4.432   3.400   8.591 -0.4502 -0.0140  0.0727
54134SOL    HW171180   4.495   3.449   8.644  0.2149 -1.6988  0.9083
54134SOL    HW271181   4.470   3.313   8.582 -0.8644 -0.0015 -2.6569
54135SOL     OW71182   5.387   7.868   3.703  0.2083  0.1607  0.2851
54135SOL    HW171183   5.392   7.791   3.647  1.9096  1.4194 -1.4289
54135SOL    HW271184   5.299   7.903   3.688  0.0219 -0.5131 -0.2260
54136SOL     OW71185   3.442   0.694   7.856  0.4426  0.8216  0.4036
54136SOL    HW171186   3.425   0.666   7.767  1.3826  2.1228 -0.2337
54136SOL    HW271187   3.441   0.614   7.908 -2.2300  0.2661 -0.3798
54137SOL     OW71188   7.128   2.130   3.216  0.3229 -0.8544 -0.0540
54137SOL    HW171189   7.099   2.217   3.190  0.7967 -1.1097 -1.5386
54137SOL    HW271190   7.150   2.086   3.134 -0.8817 -2.7338  0.5565
54138SOL     OW71191   8.077  11.275  10.335 -0.6721  0.1617 -0.0581
54138SOL    HW171192   7.983  11.267  10.348 -0.6595 -0.5287 -0.3546
54138SOL    HW271193   8.089  11.270  10.240 -0.3648  0.5979 -0.0491
54139SOL     OW71194   6.098   4.822   0.138  0.1095 -0.5827 -0.3031
54139SOL    HW171195   6.171   4.790   0.192  0.9840 -1.1984 -1.7760
54139SOL    HW271196   6.041   4.746   0.130 -0.5937 -0.1721  0.6380
54140SOL     OW71197   5.701   3.969   7.895 -0.5822  0.0441  0.1167
54140SOL    HW171198   5.744   3.915   7.961 -3.0614 -0.1948  1.6669
54140SOL    HW271199   5.754   4.049   7.891  0.3874 -0.5123  1.3765
54141SOL     OW71200   9.438  11.424   1.358 -0.3596  0.0212  0.2295
54141SOL    HW171201   9.365  11.418   1.420 -1.6013  0.8005 -1.0935
54141SOL    HW271202   9.411  11.370   1.284 -0.1496  1.2471 -0.7806
54142SOL     OW71203   9.133  11.496   7.491 -0.0822 -0.4676  0.0195
54142SOL    HW171204   9.065  11.563   7.498 -0.6158 -1.0753  0.8858
54142SOL    HW271205   9.087  11.417   7.463  0.3840 -0.7016 -0.0964
54143SOL     OW71206   9.018   2.749   8.891  0.3290  0.6492  0.5220
54143SOL    HW171207   9.032   2.759   8.797 -1.5842  2.6438  0.3826
54143SOL    HW271208   8.965   2.670   8.900 -0.3907  1.0407 -0.1977
54144SOL     OW71209   2.267  11.710   6.794  0.1230  0.8945 -0.2742
54144SOL    HW171210   2.187  11.760   6.777 -0.3217  0.9665  1.7426
54144SOL    HW271211   2.237  11.622   6.813  0.5890  0.7663 -0.1199
54145SOL     OW71212   5.378   8.122   5.906 -0.4926 -0.0227 -0.2158
54145SOL    HW171213   5.459   8.166   5.932 -1.6501  1.3894  1.2022
54145SOL    HW271214   5.330   8.188   5.855 -1.3912 -0.3262  0.2208
54146SOL     OW71215  10.827  12.127   0.519  0.3587 -0.5673 -0.3643
54146SOL    HW171216  10.899  12.102   0.577 -0.3028  0.7185  1.0848
54146SOL    HW271217  10.800  12.046   0.477 -0.3632 -1.9690  2.5791
54147SOL     OW71218   0.195   9.572   0.562 -0.2377  0.0772  0.5867
54147SOL    HW171219   0.187   9.477   0.553  0.6539 -0.0570  1.0831
54147SOL    HW271220   0.116   9.598   0.610 -0.9227 -0.2809 -0.3159
54148SOL     OW71221   2.454   8.021   2.294 -0.3743  0.4756 -0.1596
54148SOL    HW171222   2.535   8.066   2.319  0.6771 -0.7365 -1.2065
54148SOL    HW271223   2.459   7.937   2.340 -1.1297  0.4711 -0.0849
54149SOL     OW71224   9.278   8.444   2.866  0.1947  0.3553 -0.0016
54149SOL    HW171225   9.251   8.437   2.957 -0.0128  0.6343 -0.0404
54149SOL    HW271226   9.217   8.388   2.818  1.6974 -1.6381  0.2845
54150SOL     OW71227   6.442   6.696  11.413  0.1437 -0.2036  0.4932
54150SOL    HW171228   6.519   6.639  11.409 -0.2374 -0.7934  1.1964
54150SOL    HW271229   6.411   6.687  11.503 -0.7141  0.0670  0.2344
54151SOL     OW71230   6.207  12.108   5.378  0.9793 -0.2428  0.0633
54151SOL    HW171231   6.170  12.115   5.290 -2.3396 -2.7516  1.0339
54151SOL    HW271232   6.258  12.028   5.376  0.7906 -0.3741  0.4368
54152SOL     OW71233   9.370   2.562  10.490 -0.1678 -0.6354  0.5620
54152SOL    HW171234   9.281   2.577  10.457  0.2890  0.3266 -0.3089
54152SOL    HW271235   9.380   2.626  10.560  1.0498  1.9222 -1.7580
54153SOL     OW71236   1.633   4.489   1.177  0.0968  0.7878 -0.1047
54153SOL    HW171237   1.576   4.446   1.113 -0.2538  1.2598 -0.1165
54153SOL    HW271238   1.719   4.449   1.163 -0.6876 -1.7467  1.6023
54154SOL     OW71239   8.382   5.578   7.490 -0.2772 -0.5715  0.7353
54154SOL    HW171240   8.471   5.614   7.489  1.3263 -4.0082  1.0627
54154SOL    HW271241   8.333   5.635   7.549  2.8750 -0.7371  3.8497
54155SOL     OW71242  10.516   5.292   6.643  0.3758 -0.6845 -0.5566
54155SOL    HW171243  10.572   5.251   6.709  0.3793  0.9047  0.4741
54155SOL    HW271244  10.475   5.218   6.598  1.7089 -1.8442  0.0366
54156SOL     OW71245   0.868   2.376   2.351 -0.0076 -0.1179  0.1796
54156SOL    HW171246   0.948   2.428   2.362  0.9162 -1.6212  0.7721
54156SOL    HW271247   0.847   2.383   2.258  0.3484  0.9312  0.1665
54157SOL     OW71248   8.054   0.016   8.107 -0.1436  0.9875  0.1411
54157SOL    HW171249   8.086  -0.073   8.092 -0.7566  0.1964  2.9406
54157SOL    HW271250   8.062   0.059   8.022  0.3218 -1.6725 -1.2676
54158SOL     OW71251  11.407   7.348   2.821  0.0426 -0.3306  0.5478
54158SOL    HW171252  11.464   7.372   2.893  0.4344  1.1336 -0.2103
54158SOL    HW271253  11.336   7.298   2.861 -0.6351  1.8254  2.2052
54159SOL     OW71254   6.603   3.887   2.751 -0.4879  0.2469  0.2137
54159SOL    HW171255   6.609   3.850   2.839  0.4254 -0.2961 -0.0718
54159SOL    HW271256   6.513   3.920   2.746 -1.2640 -1.6942  0.5639
54160SOL     OW71257   6.706   8.781   5.914 -0.7623 -0.4908 -0.1355
54160SOL    HW171258   6.775   8.717   5.934 -1.0581 -1.1503 -1.1467
54160SOL    HW271259   6.718   8.850   5.979  1.1090 -0.4032 -0.5033
54161SOL     OW71260   4.435   3.661  11.331  0.3793 -0.6215 -0.0706
54161SOL    HW171261   4.432   3.681  11.425 -0.7726 -2.2669  0.2843
54161SOL    HW271262   4.439   3.747  11.289  1.0851  0.1435  1.4712
54162SOL     OW71263   9.099   2.823   8.632 -0.6136  0.2967 -0.2318
54162SOL    HW171264   9.149   2.839   8.552  0.0230  0.1559  0.1292
54162SOL    HW271265   9.076   2.911   8.664  0.8035  0.4459  0.4574
54163SOL     OW71266   6.693   8.253   9.632  0.3021 -0.5223  0.0510
54163SOL    HW171267   6.680   8.168   9.591 -0.1065 -0.0735 -0.7766
54163SOL    HW271268   6.641   8.250   9.712  1.2503 -1.4719  0.6661
54164SOL     OW71269  12.374   9.072   9.494  0.3041 -0.1362 -0.1832
54164SOL    HW171270  12.439   9.139   9.513 -1.6405  1.5921  0.7428
54164SOL    HW271271  12.366   9.073   9.398 -0.5969  1.9310 -0.1286
54165SOL     OW71272   3.305   0.390   5.242 -0.1743 -0.3489 -0.3326
54165SOL    HW171273   3.376   0.454   5.238  1.0085 -1.2453  2.6355
54165SOL    HW271274   3.291   0.363   5.152  1.2400  1.9808 -1.3336
54166SOL     OW71275  11.287   9.166   8.892 -0.0658 -0.3296 -0.3025
54166SOL    HW171276  11.324   9.251   8.868  3.4034 -1.5129  0.2183
54166SOL    HW271277  11.330   9.104   8.832  0.4771 -2.0852  1.7891
54167SOL     OW71278   1.823   6.531   0.393  0.3332  0.6057  0.0347
54167SOL    HW171279   1.875   6.468   0.343 -0.1814 -0.0706  0.3326
54167SOL    HW271280   1.877   6.552   0.469  0.4694  0.4483 -0.0174
54168SOL     OW71281   4.510   5.630   8.648 -0.3702  0.3605  0.2556
54168SOL    HW171282   4.448   5.561   8.625 -1.1445  0.1754  2.6080
54168SOL    HW271283   4.515   5.685   8.570  0.4063 -2.3563 -1.7712
54169SOL     OW71284   2.721  10.233   9.203  0.0074  0.6048 -0.2154
54169SOL    HW171285   2.807  10.255   9.167  0.6788 -2.9681 -1.1085
54169SOL    HW271286   2.736  10.228   9.297  0.7755  0.1195 -0.3517
54170SOL     OW71287  11.480  11.041   2.861 -0.4216  0.2749  0.2871
54170SOL    HW171288  11.492  11.091   2.780  0.3059 -0.5112 -0.1039
54170SOL    HW271289  11.387  11.052   2.882 -1.0822 -1.0630 -1.6974
54171SOL     OW71290   8.580   5.065   5.730 -0.0306  0.3365  0.2467
54171SOL    HW171291   8.525   5.055   5.652  0.3366 -1.0326  0.1376
54171SOL    HW271292   8.521   5.101   5.796 -0.9428 -0.5806 -0.0321
54172SOL     OW71293  11.137  11.225  12.533  0.2129 -0.5882  0.0687
54172SOL    HW171294  11.159  11.302  12.584  2.3868 -1.5591  0.7269
54172SOL    HW271295  11.111  11.259  12.447 -1.8717  0.9691  1.2244
54173SOL     OW71296  11.550   0.943   2.818  0.4277  0.5147  0.2268
54173SOL    HW171297  11.494   0.914   2.891  1.9826  0.3861  1.4246
54173SOL    HW271298  11.604   1.012   2.857  1.4330  0.2970 -0.7556
54174SOL     OW71299   6.967   4.616   4.557  0.2695 -0.0489  0.2192
54174SOL    HW171300   7.004   4.657   4.479 -0.2902 -2.3603 -1.4168
54174SOL    HW271301   6.872   4.624   4.545  0.1760 -0.4373  0.6564
54175SOL     OW71302   9.359  11.230  10.495 -0.4209 -0.1398  0.3934
54175SOL    HW171303   9.398  11.317  10.505 -0.4952 -0.2380  1.5994
54175SOL    HW271304   9.398  11.179  10.565 -0.4322 -1.0744 -0.2668
54176SOL     OW71305   7.271   1.022   5.184 -0.0580  0.0111 -0.4647
54176SOL    HW171306   7.213   1.001   5.257 -0.2572  0.7567 -0.4025
54176SOL    HW271307   7.216   1.070   5.122  0.4548  0.6266 -0.4564
54177SOL     OW71308  11.536   9.963   9.512  0.3631  0.2861 -0.2014
54177SOL    HW171309  11.581   9.905   9.573 -0.1757 -0.0287 -0.0999
54177SOL    HW271310  11.573  10.050   9.531  0.0157  0.2379  0.7626
54178SOL     OW71311   8.831  10.016   1.183 -0.0650  0.2956  0.1539
54178SOL    HW171312   8.901   9.999   1.121  1.3126  2.8704  0.8418
54178SOL    HW271313   8.839   9.947   1.249  0.0581 -0.9970 -1.1713
54179SOL     OW71314   6.400   9.976  11.051 -0.7459  0.1828  0.0687
54179SOL    HW171315   6.492   9.955  11.069 -0.7906  1.7248  2.5787
54179SOL    HW271316   6.404  10.066  11.016 -1.3150  0.4457  0.6700
54180SOL     OW71317   9.006   0.714   0.332  0.8405  0.3227  0.2201
54180SOL    HW171318   8.976   0.741   0.245  1.3238  0.3517  0.0553
54180SOL    HW271319   9.095   0.682   0.317  0.1891 -1.6464  0.3644
54181SOL     OW71320   5.340   9.539   8.005 -0.3031  0.1346 -0.0467
54181SOL    HW171321   5.333   9.572   8.095  0.7784  2.1034 -0.6315
54181SOL    HW271322   5.354   9.445   8.016 -0.5826  0.2621  1.8362
54182SOL     OW71323   7.914   2.261  10.912  0.4232  0.5369 -0.2200
54182SOL    HW171324   7.958   2.244  10.829 -0.9407 -0.5530 -0.7410
54182SOL    HW271325   7.875   2.348  10.901 -1.5810 -0.4639 -1.5849
54183SOL     OW71326   3.311   2.923   8.685  0.2431  0.8921  0.3329
54183SOL    HW171327   3.388   2.868   8.669 -2.2356 -2.5299 -0.8883
54183SOL    HW271328   3.316   2.991   8.618 -0.5722 -2.6901 -3.7881
54184SOL     OW71329   0.289   0.300   5.375  0.5773 -0.0394  0.0842
54184SOL    HW171330   0.339   0.225   5.343  0.9390  1.0991 -2.2851
54184SOL    HW271331   0.248   0.336   5.296  1.0096  2.6447  0.9911
54185SOL     OW71332   6.522   7.740   5.863  0.0870  0.4168  0.2028
54185SOL    HW171333   6.550   7.726   5.953 -0.4374  1.6936  0.5995
54185SOL    HW271334   6.446   7.682   5.852 -1.2835  1.8673  1.3801
54186SOL     OW71335  10.493   3.293   4.925  0.1674  0.1514  0.4858
54186SOL    HW171336  10.439   3.218   4.950 -0.3969  0.3726 -0.0335
54186SOL    HW271337  10.430   3.356   4.889  0.7992  0.3453 -0.2967
54187SOL     OW71338   4.008   5.363   5.815  1.0657  0.3150  0.6690
54187SOL    HW171339   4.023   5.380   5.722  0.0711  0.1252  0.4610
54187SOL    HW271340   3.928   5.311   5.817  0.5510  1.1076  1.6794
54188SOL     OW71341   2.764   0.876  10.220 -0.1906  0.2363  0.0197
54188SOL    HW171342   2.678   0.916  10.214 -1.1336 -1.4701  1.3521
54188SOL    HW271343   2.759   0.799  10.163  0.6779  0.4378 -0.3575
54189SOL     OW71344   0.491   2.483   2.504 -0.9854  0.5002 -0.1885
54189SOL    HW171345   0.460   2.517   2.589 -0.9207  1.0725 -0.3913
54189SOL    HW271346   0.411   2.453   2.460 -1.1838  1.3795 -0.4440
54190SOL     OW71347   5.588   9.285   6.487 -0.5497  0.6622 -0.2559
54190SOL    HW171348   5.623   9.361   6.440  2.5393 -1.6702 -2.1359
54190SOL    HW271349   5.525   9.246   6.428 -1.9776  1.5368  0.6232
54191SOL     OW71350   1.920   2.723  11.198  0.4565 -0.0333 -0.4137
54191SOL    HW171351   1.849   2.660  11.195  1.3592 -1.2047  1.1859
54191SOL    HW271352   1.993   2.675  11.236  0.7000  2.3412  2.5101
54192SOL     OW71353   2.935   6.218  11.348 -0.1688  0.2378 -0.7270
54192SOL    HW171354   2.852   6.188  11.311 -0.6953 -0.3314  0.8537
54192SOL    HW271355   2.968   6.143  11.397 -1.7915  2.1381  3.8397
54193SOL     OW71356  10.188  10.733   5.782 -0.2688 -0.1819 -0.3361
54193SOL    HW171357  10.273  10.695   5.805 -0.4573 -1.0352 -1.0188
54193SOL    HW271358  10.140  10.662   5.740 -1.5294  0.1373  0.4989
54194SOL     OW71359   4.469   2.255   9.661 -0.0432 -0.0333  0.1188
54194SOL    HW171360   4.465   2.288   9.750  0.9843  0.2626  0.0622
54194SOL    HW271361   4.516   2.323   9.612 -0.6686 -0.1525 -0.6686
54195SOL     OW71362   3.023   6.372   8.780  0.5753 -0.2572 -0.8795
54195SOL    HW171363   3.116   6.397   8.781  0.3702  0.5906 -1.5957
54195SOL    HW271364   2.976   6.455   8.776 -0.2443 -0.6591  0.1219
54196SOL     OW71365  11.884   2.724  12.526 -0.3899  0.1884 -0.0282
54196SOL    HW171366  11.958   2.665  12.541 -1.3017 -0.8623  0.5253
54196SOL    HW271367  11.826   2.674  12.468 -1.1705  0.5294  0.4404
54197SOL     OW71368   6.556   6.073   9.839  0.5345  0.3179  0.5532
54197SOL    HW171369   6.521   6.140   9.781  0.7976  0.3548  0.4350
54197SOL    HW271370   6.578   6.121   9.919  1.2361  0.4793  0.2734
54198SOL     OW71371   9.664   7.532  10.745  0.0844  0.0836 -0.1282
54198SOL    HW171372   9.573   7.519  10.719 -0.2091  1.8048 -0.1263
54198SOL    HW271373   9.665   7.620  10.783  1.7336  0.0582 -0.0450
54199SOL     OW71374  11.782   5.693   7.926 -0.4065 -0.4211  0.0981
54199SOL    HW171375  11.690   5.669   7.939 -0.4171 -0.2244  0.4182
54199SOL    HW271376  11.801   5.753   7.999 -0.9610  2.2168 -1.7985
54200SOL     OW71377   0.429   4.104   3.599  0.3448 -0.1980 -0.5207
54200SOL    HW171378   0.372   4.172   3.636  0.8291  0.3684 -0.8035
54200SOL    HW271379   0.468   4.061   3.676  0.7104  0.4270 -0.3523
54201SOL     OW71380   2.245  12.416   3.947  0.5206 -0.6289 -0.2300
54201SOL    HW171381   2.177  12.366   3.992  0.4859  0.7803  1.3641
54201SOL    HW271382   2.327  12.377   3.977  0.4672 -0.6695 -0.1376
54202SOL     OW71383  12.425   8.897   0.916  0.1153  0.5126 -0.1680
54202SOL    HW171384  12.432   8.812   0.959 -1.1249  0.6680  0.3713
54202SOL    HW271385  12.336   8.927   0.936 -0.0245  1.2097 -1.6950
54203SOL     OW71386  10.201   4.707  11.558  0.0234 -0.1384  0.0287
54203SOL    HW171387  10.167   4.623  11.588  0.1441 -0.1805  0.0496
54203SOL    HW271388  10.221   4.755  11.639  0.2495 -0.2111  0.0175
54204SOL     OW71389   4.472   8.300  12.486 -0.0027  0.4408 -0.8287
54204SOL    HW171390   4.506   8.259  12.407  0.9209  1.6983 -1.1072
54204SOL    HW271391   4.476   8.230  12.552 -1.1843 -0.7512 -1.9455
54205SOL     OW71392   4.601   3.739   1.515  0.2052  0.0927 -0.2472
54205SOL    HW171393   4.684   3.720   1.470  1.3888  1.9519  0.9928
54205SOL    HW271394   4.604   3.683   1.593 -0.1759 -0.5386 -0.6782
54206SOL     OW71395   4.540   9.453  11.432 -0.2922  0.1493 -0.1104
54206SOL    HW171396   4.624   9.429  11.393 -0.4663 -1.2862  0.3418
54206SOL    HW271397   4.496   9.505  11.365  0.2205 -0.6035 -1.0411
54207SOL     OW71398   4.271   3.890   6.927  0.1452 -0.0690 -0.1703
54207SOL    HW171399   4.333   3.900   6.999  0.3972  0.5792 -0.4653
54207SOL    HW271400   4.304   3.949   6.859  0.7081 -1.7104 -1.3740
54208SOL     OW71401  10.863  10.275   0.797 -0.0346  1.1551  0.2815
54208SOL    HW171402  10.797  10.249   0.861 -1.3959  0.0139 -1.5021
54208SOL    HW271403  10.946  10.269   0.845 -1.0050  0.6963  2.0109
54209SOL     OW71404   2.827   3.884   8.184 -0.4013 -0.6883  0.2846
54209SOL    HW171405   2.775   3.963   8.172 -1.2695 -1.0657  1.3981
54209SOL    HW271406   2.854   3.887   8.276  0.2065 -1.3150  0.1360
54210SOL     OW71407   9.716   2.637   6.249 -0.0303  0.0420 -0.6964
54210SOL    HW171408   9.784   2.585   6.291 -1.5036 -1.5507 -0.1633
54210SOL    HW271409   9.666   2.674   6.322 -0.7880 -0.2532 -1.0560
54211SOL     OW71410   2.777   7.507   2.691 -0.6026 -0.3910  0.1269
54211SOL    HW171411   2.853   7.449   2.691  0.3259  0.7541 -0.7224
54211SOL    HW271412   2.702   7.449   2.689  0.2785 -1.5590 -0.0958
54212SOL     OW71413  12.517  11.104   3.614 -0.0266 -0.0699  0.1124
54212SOL    HW171414  12.586  11.140   3.557  0.8354 -2.3074 -0.3595
54212SOL    HW271415  12.565  11.063   3.687 -0.6497 -2.8288 -0.8935
54213SOL     OW71416   2.783   1.529   1.252 -0.1598  0.1013  0.0182
54213SOL    HW171417   2.719   1.495   1.190  0.1974 -0.7214  0.0947
54213SOL    HW271418   2.866   1.491   1.225 -0.0787 -0.6922  1.3068
54214SOL     OW71419   2.863   3.796   7.691  0.5443 -0.1008  0.0480
54214SOL    HW171420   2.877   3.797   7.786 -0.1425  0.8103  0.1524
54214SOL    HW271421   2.788   3.854   7.678  1.2694  0.5917 -1.1520
54215SOL     OW71422  10.889  12.259   4.807 -0.5509 -0.4902 -0.5912
54215SOL    HW171423  10.955  12.280   4.874  0.1583  0.0229 -1.4310
54215SOL    HW271424  10.937  12.262   4.724 -1.9205  1.4450 -1.3923
54216SOL     OW71425   0.764  10.815   4.676 -0.4747 -0.1895 -0.0872
54216SOL    HW171426   0.717  10.827   4.594 -1.6463  0.9650  0.7235
54216SOL    HW271427   0.801  10.901   4.696 -1.8647  0.0826  1.5542
54217SOL     OW71428  10.732   4.945   3.612 -0.5879  0.3380  0.1508
54217SOL    HW171429  10.746   4.976   3.523 -0.7792 -0.2730 -0.0967
54217SOL    HW271430  10.710   4.853   3.602 -1.0968  0.3832  0.7988
54218SOL     OW71431   9.248   6.539   0.958 -0.4408  0.0980  0.7405
54218SOL    HW171432   9.225   6.472   0.893  0.9552 -1.3226  1.6317
54218SOL    HW271433   9.173   6.597   0.960 -1.2994 -0.8724 -0.7943
54219SOL     OW71434   1.105   7.387  11.281  0.0183 -0.0954 -0.1181
54219SOL    HW171435   1.147   7.431  11.207  0.3406  1.4312  0.9278
54219SOL    HW271436   1.089   7.457  11.344 -3.4151 -0.7302 -0.1106
54220SOL     OW71437   4.339   7.228   7.542  0.1323 -0.3665 -0.5040
54220SOL    HW171438   4.378   7.307   7.579  1.4393 -0.2740 -1.9695
54220SOL    HW271439   4.287   7.192   7.614  1.2169  0.6733  0.8868
54221SOL     OW71440  12.019  12.486  10.764  0.8084  0.0996 -0.3001
54221SOL    HW171441  12.096  12.530  10.800  0.6861  1.9191 -2.0830
54221SOL    HW271442  11.946  12.514  10.820  1.0270  0.6730 -0.2995
54222SOL     OW71443   5.108   7.171   1.194 -0.1260  0.1705 -0.3964
54222SOL    HW171444   5.198   7.159   1.225 -0.2267 -2.4616 -0.8818
54222SOL    HW271445   5.068   7.229   1.258  1.1049 -1.0239  1.5541
54223SOL     OW71446   9.483   3.430  10.902  0.1992  0.1544  0.1425
54223SOL    HW171447   9.391   3.454  10.891 -0.2010 -0.9131  0.9357
54223SOL    HW271448   9.517   3.492  10.966 -0.6187 -0.8222  1.6013
54224SOL     OW71449  11.849   8.943   8.639 -0.1739 -0.0380  0.5149
54224SOL    HW171450  11.795   8.986   8.705 -0.4850 -1.0689  0.9455
54224SOL    HW271451  11.791   8.878   8.599  0.5300 -0.6262  0.4437
54225SOL     OW71452   5.403   5.616   5.141 -0.0588 -0.0280 -0.3244
54225SOL    HW171453   5.482   5.573   5.173  1.2593  1.8362 -0.8661
54225SOL    HW271454   5.357   5.644   5.221  0.2923 -0.3291 -0.0108
54226SOL     OW71455   9.218   0.468   5.835 -0.0269 -0.2314 -0.3182
54226SOL    HW171456   9.170   0.492   5.756 -0.4943  0.0971  0.0589
54226SOL    HW271457   9.194   0.377   5.851 -0.3545 -0.1370 -0.2577
54227SOL     OW71458   2.552   6.584   8.057 -0.0978  0.4555  0.6842
54227SOL    HW171459   2.605   6.542   8.125 -1.2046 -1.9472  0.1572
54227SOL    HW271460   2.462   6.565   8.080 -0.5579  0.7210 -0.7730
54228SOL     OW71461   8.371   1.545   6.380 -0.0609  0.1946  0.2660
54228SOL    HW171462   8.428   1.551   6.303  1.5685 -0.8010  1.3336
54228SOL    HW271463   8.290   1.588   6.353  0.5765  0.1747 -1.8896
54229SOL     OW71464  11.960   5.210  11.236  0.0578  0.0123  0.0488
54229SOL    HW171465  12.035   5.195  11.179 -0.8752 -2.8107 -0.6124
54229SOL    HW271466  11.991   5.187  11.324  0.4694  0.7460  0.1031
54230SOL     OW71467   1.103   0.219   5.642 -0.1960 -0.3738 -0.1210
54230SOL    HW171468   1.195   0.202   5.663 -0.2924 -1.1446 -0.2823
54230SOL    HW271469   1.063   0.240   5.726  0.2820  0.7706 -0.1587
54231SOL     OW71470   2.225   8.492   3.439 -0.0381 -0.2973  0.1598
54231SOL    HW171471   2.256   8.455   3.522 -2.4113 -0.7388  0.9438
54231SOL    HW271472   2.279   8.570   3.426 -0.0964  0.2462  2.5780
54232SOL     OW71473   1.265   3.314   0.967 -0.1841  0.6203  0.1855
54232SOL    HW171474   1.288   3.406   0.954  0.3243  0.1785 -2.5765
54232SOL    HW271475   1.349   3.267   0.962 -0.5999 -0.1252 -0.0070
54233SOL     OW71476  11.117   1.251   7.362  0.0383 -0.0681 -0.5268
54233SOL    HW171477  11.027   1.278   7.340 -0.2354 -0.7308 -0.2364
54233SOL    HW271478  11.171   1.291   7.294  0.2354  4.8370  2.0527
54234SOL     OW71479   0.850   9.622   3.131 -0.4775  0.0563  0.2982
54234SOL    HW171480   0.915   9.669   3.079 -0.7956  2.8639  2.2251
54234SOL    HW271481   0.902   9.563   3.187  0.1945  0.3991  0.0414
54235SOL     OW71482   0.237   1.675   1.971  0.1623  1.1089  0.5556
54235SOL    HW171483   0.331   1.664   1.955  0.1478  0.8767  0.6277
54235SOL    HW271484   0.206   1.588   1.994 -0.5194  0.7137 -1.6956
54236SOL     OW71485   5.291  11.591   3.059 -0.3157  0.6286 -0.0171
54236SOL    HW171486   5.329  11.679   3.055 -0.1215  0.6437  1.5675
54236SOL    HW271487   5.207  11.603   3.103  0.0024 -0.0465  0.8040
54237SOL     OW71488   1.260   1.454   9.023 -0.8591  0.2488  0.3997
54237SOL    HW171489   1.240   1.365   8.996  0.6265 -0.2929  0.9927
54237SOL    HW271490   1.284   1.500   8.942  0.6546 -0.5477  0.3620
54238SOL     OW71491   7.011  10.772   9.178  0.3195  0.5901  0.4000
54238SOL    HW171492   6.997  10.856   9.133 -1.4498  0.1620  0.0839
54238SOL    HW271493   7.017  10.708   9.107  0.6230  0.3072  0.6815
54239SOL     OW71494   0.916  10.846   9.101  0.4901 -0.7224  0.0633
54239SOL    HW171495   0.830  10.883   9.120  0.0234 -0.0197 -2.9283
54239SOL    HW271496   0.897  10.756   9.074  0.5277 -0.3008 -1.4606
54240SOL     OW71497   0.040  10.477   0.117  0.3918 -0.2044  0.1786
54240SOL    HW171498   0.089  10.436   0.188 -0.9412 -0.8052  0.7786
54240SOL    HW271499  -0.006  10.550   0.159  0.2801 -0.0215 -0.2581
54241SOL     OW71500   7.518  11.976  10.134 -0.4065 -0.3634  0.0771
54241SOL    HW171501   7.559  12.024  10.062  1.5143  0.2625  1.4728
54241SOL    HW271502   7.544  11.885  10.121 -2.1808 -0.7095 -1.3478
54242SOL     OW71503   6.500   7.428   0.874 -0.3013  0.2929 -0.0882
54242SOL    HW171504   6.570   7.405   0.935  0.3574  2.3853  0.0151
54242SOL    HW271505   6.541   7.424   0.787 -0.3414  0.5358 -0.1175
54243SOL     OW71506   6.764   5.124   5.625  0.2583  0.4418 -0.0272
54243SOL    HW171507   6.742   5.095   5.714 -2.0028  0.0405 -0.6382
54243SOL    HW271508   6.845   5.173   5.634  1.0766 -1.1390  1.9735
54244SOL     OW71509   2.021   5.747   3.810  0.1386 -0.3099 -0.3965
54244SOL    HW171510   2.025   5.769   3.903  0.1873 -0.0605 -0.4581
54244SOL    HW271511   2.113   5.735   3.785  0.1379 -0.1934 -0.4560
54245SOL     OW71512   3.890   3.320   0.124  0.6018  0.1797  0.6502
54245SOL    HW171513   3.982   3.294   0.128  0.6073  0.2942  1.9182
54245SOL    HW271514   3.885   3.395   0.183 -0.3003  0.1940  0.5642
54246SOL     OW71515  11.304  11.967  12.465  0.3889 -0.4046  0.1676
54246SOL    HW171516  11.295  11.999  12.554 -0.0755  0.2972 -0.1277
54246SOL    HW271517  11.375  12.020  12.427 -1.6407  1.6944 -0.9212
54247SOL     OW71518   6.336   0.555   8.351 -0.4419  0.2484 -0.1790
54247SOL    HW171519   6.344   0.471   8.307  1.0227  0.1751  0.1828
54247SOL    HW271520   6.262   0.545   8.411  0.8924 -1.4034  1.2381
54248SOL     OW71521   2.645   1.000  11.681  0.1248  0.1450  0.0306
54248SOL    HW171522   2.560   1.032  11.649 -0.0300  2.0666  2.0929
54248SOL    HW271523   2.702   1.004  11.605 -1.8208 -2.2789 -1.7124
54249SOL     OW71524   1.847  11.441   6.811 -0.6829  0.5454 -0.3832
54249SOL    HW171525   1.829  11.348   6.805  0.4177  0.1056  1.9885
54249SOL    HW271526   1.765  11.480   6.841 -1.1713  0.3850 -1.4760
54250SOL     OW71527   8.560   6.607   7.279 -0.6498 -0.1255  0.2088
54250SOL    HW171528   8.541   6.605   7.373 -0.4031 -0.2934  0.2555
54250SOL    HW271529   8.476   6.627   7.238 -1.2805 -2.2982  0.3203
54251SOL     OW71530   0.216   9.524   4.763  0.0317  0.1791 -0.0640
54251SOL    HW171531   0.146   9.492   4.706 -0.4897  0.1725  0.5641
54251SOL    HW271532   0.269   9.446   4.781 -0.1722  0.0423 -0.0349
54252SOL     OW71533   8.842   7.736   0.787 -0.3651  0.1161  0.2030
54252SOL    HW171534   8.818   7.828   0.794 -0.5554  0.0761  0.0964
54252SOL    HW271535   8.867   7.710   0.875 -3.2263 -0.5388  0.9402
54253SOL     OW71536  11.024   9.975  11.030  0.3626 -0.0403  0.0069
54253SOL    HW171537  10.958   9.911  11.059  1.9742  0.1177  5.1320
54253SOL    HW271538  11.054   9.943  10.946 -3.3390 -2.3660 -0.6587
54254SOL     OW71539   7.863   3.809   0.276 -1.0605 -0.5137  0.1776
54254SOL    HW171540   7.769   3.822   0.290 -0.9578 -0.9668  1.3348
54254SOL    HW271541   7.901   3.804   0.363  0.1571  0.3530 -0.2742
54255SOL     OW71542  11.263  12.052   0.509 -0.2216  0.5490  0.2118
54255SOL    HW171543  11.300  11.983   0.564 -1.1960  0.3787  0.6649
54255SOL    HW271544  11.330  12.068   0.443  0.1579 -0.6002  0.2949
54256SOL     OW71545   8.027   3.172  11.764  0.0482  0.6553  0.0843
54256SOL    HW171546   7.966   3.099  11.769  1.9457 -0.9599  0.9056
54256SOL    HW271547   7.973   3.250  11.778 -1.7732 -0.6891  0.8985
54257SOL     OW71548  10.861   4.969   6.981  0.5750  0.2005  0.0430
54257SOL    HW171549  10.848   4.956   6.887  1.9710  1.6960 -0.4120
54257SOL    HW271550  10.949   4.936   6.998 -0.2745 -1.5761  1.1987
54258SOL     OW71551   4.008   3.068   6.254 -0.2492 -0.1149  0.1660
54258SOL    HW171552   3.948   3.087   6.326  0.4029  0.9778  0.4454
54258SOL    HW271553   4.000   3.144   6.195  0.2391 -0.3417 -0.2029
54259SOL     OW71554   8.964   3.231   4.925 -0.9313 -0.1763 -0.3855
54259SOL    HW171555   8.883   3.230   4.976 -0.7457  1.9363  0.0475
54259SOL    HW271556   8.956   3.308   4.870 -0.4485 -1.5631 -2.5151
54260SOL     OW71557   8.184   8.408   5.174  0.2730 -0.0885 -0.4672
54260SOL    HW171558   8.269   8.396   5.217 -0.4807 -0.5891  0.9664
54260SOL    HW271559   8.149   8.489   5.212  0.2586  0.3196 -1.3279
54261SOL     OW71560   1.848   5.421   2.010 -0.4232 -0.2472  0.2979
54261SOL    HW171561   1.771   5.471   2.037 -0.2403  1.1657 -1.6104
54261SOL    HW271562   1.845   5.342   2.064 -1.7625  0.9574  2.0819
54262SOL     OW71563  10.594   7.874   2.319  0.4915  0.0875 -0.7071
54262SOL    HW171564  10.614   7.828   2.400  2.3355 -0.0462 -1.2069
54262SOL    HW271565  10.563   7.961   2.347 -1.6700 -0.8988  0.1881
54263SOL     OW71566   5.121  10.174   2.205 -0.1665  0.3187  0.1988
54263SOL    HW171567   5.195  10.227   2.235 -0.0729 -0.7333  1.9578
54263SOL    HW271568   5.051  10.190   2.268 -1.0026  0.2890 -0.6958
54264SOL     OW71569   0.405   2.490   1.531  0.8119 -0.1380  0.6753
54264SOL    HW171570   0.488   2.470   1.489  1.4199  0.7366  1.3973
54264SOL    HW271571   0.382   2.577   1.498  0.4924 -0.1231  0.9310
54265SOL     OW71572   0.282   8.741   6.504 -0.1001  0.1987  0.2310
54265SOL    HW171573   0.201   8.740   6.555 -0.2302  1.1881  0.0682
54265SOL    HW271574   0.352   8.736   6.568 -0.2493  1.9728  0.5698
54266SOL     OW71575   9.991   2.755   4.356  0.5907  0.3303 -0.0252
54266SOL    HW171576   9.934   2.680   4.374  0.9904 -0.0654 -0.3771
54266SOL    HW271577   9.934   2.819   4.314  0.6978 -0.6482 -1.7785
54267SOL     OW71578   3.478   8.605  10.697  0.4140 -0.3802  0.0808
54267SOL    HW171579   3.385   8.583  10.688  0.3962  0.2797 -1.8229
54267SOL    HW271580   3.478   8.697  10.723  0.4316  0.6962 -3.1958
54268SOL     OW71581   2.139   9.625   5.137 -0.1913  0.0992  0.4058
54268SOL    HW171582   2.106   9.592   5.054 -2.6582  1.5117  0.7246
54268SOL    HW271583   2.098   9.570   5.203 -1.2821  1.3003  0.7773
54269SOL     OW71584   8.944   3.395   7.489  0.3122  0.3086 -0.0120
54269SOL    HW171585   8.951   3.371   7.581 -1.0093  1.9040  0.5497
54269SOL    HW271586   8.928   3.313   7.444 -0.8018 -0.2897  1.4127
54270SOL     OW71587  10.502   2.428   5.453 -0.6836 -0.1897  0.2303
54270SOL    HW171588  10.528   2.392   5.368 -0.6375  0.5639 -0.0851
54270SOL    HW271589  10.432   2.490   5.432 -0.9640 -0.3069  0.7941
54271SOL     OW71590  11.266   1.806   1.266  0.5003 -0.3703  0.4860
54271SOL    HW171591  11.273   1.857   1.185 -1.7976 -0.4847  0.1376
54271SOL    HW271592  11.242   1.871   1.332 -0.9921 -0.7364  0.3383
54272SOL     OW71593   5.120   7.488   7.755 -0.0809 -1.1755 -0.3594
54272SOL    HW171594   5.036   7.531   7.735  0.3777 -0.0333  0.0896
54272SOL    HW271595   5.168   7.553   7.806  0.7577 -2.1396  0.0992
54273SOL     OW71596  10.112   0.995   5.930  0.1238 -0.4481 -0.0477
54273SOL    HW171597  10.199   0.963   5.907  0.4371  0.4330 -0.1291
54273SOL    HW271598  10.054   0.922   5.909  1.1460 -2.3756  3.1704
54274SOL     OW71599   4.482   7.292   0.237  0.0174 -0.0927  0.3322
54274SOL    HW171600   4.457   7.344   0.161 -0.9123 -1.3860 -0.2712
54274SOL    HW271601   4.562   7.247   0.210 -2.3502 -3.6569 -1.4886
54275SOL     OW71602   5.166  10.092  11.663  0.0041  0.2637  0.2761
54275SOL    HW171603   5.080  10.057  11.688  0.9580 -1.4946  1.2268
54275SOL    HW271604   5.224  10.067  11.734  1.4132  1.0693 -0.5504
54276SOL     OW71605   4.117   8.817   1.076 -0.2912  0.0734  0.0512
54276SOL    HW171606   4.120   8.879   1.149  1.1525  1.5519 -1.2009
54276SOL    HW271607   4.024   8.803   1.060 -0.6379  0.5167  1.4819
54277SOL     OW71608   7.496   6.633   0.907 -0.3824  0.8136 -0.1105
54277SOL    HW171609   7.445   6.566   0.951 -0.3876  0.5218 -0.5570
54277SOL    HW271610   7.433   6.703   0.887 -0.2089  1.3597  1.1448
54278SOL     OW71611   0.868   3.119   1.097  0.4846 -0.0482 -0.4855
54278SOL    HW171612   0.876   3.094   1.190  1.0690 -1.1477 -0.8152
54278SOL    HW271613   0.903   3.208   1.093  0.7345 -0.1007  0.3064
54279SOL     OW71614   1.893  12.267   5.291 -0.7454  0.1617 -0.7523
54279SOL    HW171615   1.897  12.255   5.196  2.5791  0.8303 -0.8304
54279SOL    HW271616   1.902  12.361   5.304  2.1993 -0.1308  0.1568
54280SOL     OW71617   3.453  12.336  10.052  0.6733 -0.4678  0.4300
54280SOL    HW171618   3.416  12.264  10.103  0.8220 -0.1822  0.9540
54280SOL    HW271619   3.477  12.297   9.968  1.9563 -1.3287  1.1630
54281SOL     OW71620  11.989   7.628   3.900  0.1548 -0.0025 -0.0124
54281SOL    HW171621  11.902   7.665   3.917  0.2434  1.0663 -1.6207
54281SOL    HW271622  12.050   7.699   3.919  0.6217 -0.4610  0.2476
54282SOL     OW71623   0.980   3.347   0.947 -0.4901 -0.2332 -0.0614
54282SOL    HW171624   0.935   3.278   0.899  1.4300 -0.6470 -1.3764
54282SOL    HW271625   1.072   3.335   0.926  0.2519  0.7537  2.2758
54283SOL     OW71626   0.444   3.858   8.220 -0.2674  0.1562  0.1131
54283SOL    HW171627   0.521   3.828   8.268 -0.5667  2.2475  2.1080
54283SOL    HW271628   0.374   3.800   8.248 -0.0279  0.1528  0.7188
54284SOL     OW71629   1.703   7.966   2.818 -0.0901  0.4129  0.2255
54284SOL    HW171630   1.663   7.931   2.897  0.4463 -0.1830  0.2415
54284SOL    HW271631   1.796   7.943   2.826 -0.3666 -1.7253 -1.6253
54285SOL     OW71632   2.077   0.737   1.328 -0.0544 -0.5211  0.0230
54285SOL    HW171633   2.161   0.712   1.289  0.3757 -2.0379  1.8186
54285SOL    HW271634   2.052   0.816   1.280 -0.1506 -2.7800 -4.1264
54286SOL     OW71635   7.640   5.261   1.234  0.3232 -0.4815  1.2357
54286SOL    HW171636   7.681   5.341   1.199 -1.5022 -0.9117 -2.3861
54286SOL    HW271637   7.547   5.270   1.212 -0.1402 -3.1053  1.7679
54287SOL     OW71638   4.729   5.672   2.343  0.4302  0.5003 -0.2427
54287SOL    HW171639   4.670   5.747   2.334  2.3961  2.0958 -0.6726
54287SOL    HW271640   4.729   5.630   2.258 -1.7061 -0.8905  0.3604
54288SOL     OW71641   1.612  12.588   8.343 -0.2771 -0.3725 -0.1500
54288SOL    HW171642   1.686  12.537   8.311  0.0333  0.7360 -1.2314
54288SOL    HW271643   1.587  12.544   8.425  0.5211 -1.7343 -0.6047
54289SOL     OW71644   4.631   1.623   9.237 -0.2773 -0.0932 -0.0764
54289SOL    HW171645   4.570   1.654   9.304 -0.5603 -1.2894  0.2434
54289SOL    HW271646   4.626   1.528   9.242  1.2729 -0.2239 -0.3628
54290SOL     OW71647   3.317   3.710  11.813  0.1212  0.0987 -0.0138
54290SOL    HW171648   3.325   3.781  11.750 -0.6585 -0.4469 -0.7382
54290SOL    HW271649   3.346   3.632  11.765 -2.1651 -0.6291 -0.2915
54291SOL     OW71650   8.585   1.959   5.623  0.2222 -0.4988  0.1221
54291SOL    HW171651   8.506   1.910   5.644 -0.1045 -0.1812 -0.3543
54291SOL    HW271652   8.655   1.910   5.666 -0.4936  0.5845  2.7488
54292SOL     OW71653   6.831   2.062   4.854 -0.2125 -0.3827  0.1851
54292SOL    HW171654   6.856   2.126   4.788  1.1311  0.6515  1.6075
54292SOL    HW271655   6.844   1.977   4.812 -1.3977  0.2220 -1.5196
54293SOL     OW71656   9.521   1.463   4.002  0.5697 -0.4687 -0.5667
54293SOL    HW171657   9.528   1.377   4.045  0.2563  0.6355  1.8738
54293SOL    HW271658   9.585   1.517   4.048 -0.5917  1.0982 -0.7322
54294SOL     OW71659  11.076   0.714  11.464  0.2007 -0.1210 -0.7707
54294SOL    HW171660  11.005   0.664  11.425 -1.1984  1.4675 -0.3540
54294SOL    HW271661  11.085   0.679  11.553 -1.3631  0.8631 -0.1785
54295SOL     OW71662  12.566  10.782  11.360 -0.1772 -0.2672  0.0075
54295SOL    HW171663  12.557  10.876  11.373 -0.4164 -0.3795  0.7458
54295SOL    HW271664  12.655  10.771  11.326 -0.1465  0.2239 -0.0761
54296SOL     OW71665   1.559   5.621  12.429 -0.6709 -0.6600 -0.5136
54296SOL    HW171666   1.592   5.690  12.487 -1.0745  0.7998 -1.9290
54296SOL    HW271667   1.464   5.633  12.429 -0.9648 -2.6001  0.8299
54297SOL     OW71668  10.445   0.273   2.684 -0.2358  0.6328  0.8060
54297SOL    HW171669  10.428   0.243   2.594  0.6555 -0.3654  0.9385
54297SOL    HW271670  10.505   0.347   2.673 -0.2127  0.5815  0.5658
54298SOL     OW71671   1.954   0.710   5.507 -0.3398  0.1570 -0.5520
54298SOL    HW171672   1.981   0.660   5.584 -1.0191  1.5399  0.6313
54298SOL    HW271673   1.996   0.665   5.434 -0.7167 -1.9719  0.4642
54299SOL     OW71674   5.255   1.115  11.551  0.5513 -0.6532  0.3481
54299SOL    HW171675   5.259   1.048  11.620 -2.0305 -1.5698 -0.2861
54299SOL    HW271676   5.257   1.198  11.598  1.6442 -1.1715  1.2949
54300SOL     OW71677   3.708  10.397  10.402  0.2066  0.3479 -0.0990
54300SOL    HW171678   3.679  10.438  10.320  0.8608  2.1070  0.5037
54300SOL    HW271679   3.633  10.347  10.432 -0.9317  1.7888 -0.4542
54301SOL     OW71680   9.808  10.755   1.094  0.1341  0.1145  0.1748
54301SOL    HW171681   9.887  10.788   1.137 -0.9115  1.7670  0.9434
54301SOL    HW271682   9.737  10.808   1.131 -1.1948 -0.5227 -1.3439
54302SOL     OW71683   1.930  11.738   0.942  0.0041 -0.0445  0.0698
54302SOL    HW171684   1.871  11.810   0.963  1.6899  0.8677  1.9935
54302SOL    HW271685   1.899  11.706   0.857 -1.1178  2.5918 -0.6188
54303SOL     OW71686   8.400   0.013   9.785  0.5076  0.1725 -0.0853
54303SOL    HW171687   8.470   0.079   9.785 -1.9181  3.0356  1.9670
54303SOL    HW271688   8.402  -0.023   9.874  1.1655 -1.9305 -0.8988
54304SOL     OW71689   3.351   2.129   7.885  0.1615 -0.7211  0.2784
54304SOL    HW171690   3.423   2.094   7.833  1.7984  1.3263  1.0391
54304SOL    HW271691   3.365   2.093   7.973 -0.3347 -1.1021  0.2040
54305SOL     OW71692   7.866   2.075  10.604  0.3292  0.2473  0.2441
54305SOL    HW171693   7.798   2.116  10.549  0.2745  0.5897  0.5669
54305SOL    HW271694   7.923   2.147  10.629 -0.0044  0.2056  1.1607
54306SOL     OW71695   0.496   7.762   6.808 -0.3285  0.8358  0.2103
54306SOL    HW171696   0.443   7.704   6.863  0.1284 -0.2202 -0.4293
54306SOL    HW271697   0.439   7.836   6.790 -0.9646  0.5498  0.9814
54307SOL     OW71698  10.634   2.097   4.137 -0.4283  0.1109 -0.1428
54307SOL    HW171699  10.547   2.122   4.108 -0.4895 -0.0511 -0.0998
54307SOL    HW271700  10.671   2.177   4.175 -0.0486  0.5355 -1.3590
54308SOL     OW71701   9.812   5.133   9.934 -0.4109  0.1510 -0.0576
54308SOL    HW171702   9.846   5.127  10.024 -0.2176  0.0928 -0.1357
54308SOL    HW271703   9.722   5.164   9.946 -1.1519 -1.9603  0.3097
54309SOL     OW71704   2.959   6.156   5.458  0.8778 -0.4160  0.2485
54309SOL    HW171705   3.028   6.096   5.428  0.8083  0.2480 -1.3546
54309SOL    HW271706   2.968   6.158   5.553  3.3240 -0.0768  0.0762
54310SOL     OW71707   4.173   5.190  12.100 -0.5611 -0.0094  0.3407
54310SOL    HW171708   4.178   5.106  12.054 -0.6447  0.0780  0.1715
54310SOL    HW271709   4.229   5.179  12.176  4.1665  1.5750 -2.4777
54311SOL     OW71710  10.315  10.441  11.364  0.5414 -0.2371 -0.5536
54311SOL    HW171711  10.242  10.439  11.425  1.3595  1.0684  0.5309
54311SOL    HW271712  10.392  10.421  11.418  1.1147 -0.5664 -1.4640
54312SOL     OW71713  12.601   2.438   6.575  0.6951 -0.6816 -0.4410
54312SOL    HW171714  12.603   2.414   6.483  0.6986 -0.5674 -0.4709
54312SOL    HW271715  12.625   2.531   6.576 -1.1910 -0.1596 -0.5068
54313SOL     OW71716  12.459   2.400   3.105 -0.4558  0.4844  0.2639
54313SOL    HW171717  12.376   2.382   3.061 -0.1579  1.3613 -0.7266
54313SOL    HW271718  12.489   2.315   3.136 -0.5346 -0.2633 -1.5533
54314SOL     OW71719   3.015   1.247   2.577 -0.4545 -0.6366 -0.0744
54314SOL    HW171720   2.962   1.217   2.504  0.0235 -2.0299  0.1152
54314SOL    HW271721   3.105   1.241   2.545 -0.2911 -0.4565  0.3417
54315SOL     OW71722   8.913   1.137   7.014 -0.0095  0.0001 -0.2452
54315SOL    HW171723   8.910   1.043   7.032 -4.0422 -0.1948 -0.9201
54315SOL    HW271724   8.966   1.174   7.084 -1.6977 -2.3769  2.4859
54316SOL     OW71725   2.117   7.953   3.581  0.2858  0.2757 -0.0166
54316SOL    HW171726   2.044   7.938   3.642 -0.2531  1.7153 -0.2469
54316SOL    HW271727   2.166   8.025   3.621  1.2421 -0.2891 -0.1687
54317SOL     OW71728   5.276   2.819   4.627 -0.5964  0.1113 -0.2076
54317SOL    HW171729   5.348   2.869   4.590  0.8782 -1.3853  0.5015
54317SOL    HW271730   5.287   2.731   4.591 -0.7468 -0.7005  1.6219
54318SOL     OW71731  11.088   6.221   3.420  0.1152 -0.3887 -0.2160
54318SOL    HW171732  11.057   6.177   3.341  2.1284 -1.6998 -0.3639
54318SOL    HW271733  11.084   6.154   3.488 -0.4890  0.3801  0.5207
54319SOL     OW71734  11.171   4.364  11.543  0.3907 -0.3623  0.4627
54319SOL    HW171735  11.262   4.392  11.549  0.0436  0.5810  1.7616
54319SOL    HW271736  11.120   4.443  11.563 -0.6919 -1.0495  0.5246
54320SOL     OW71737   2.979   8.707   8.167  0.6549  0.1610  0.3619
54320SOL    HW171738   2.945   8.755   8.242  0.1948 -0.5716  0.6308
54320SOL    HW271739   2.965   8.615   8.189  1.9287 -0.1273  0.0557
54321SOL     OW71740  12.557   6.922   9.157  0.6387  0.5015  0.2791
54321SOL    HW171741  12.598   6.997   9.201  2.2226  0.1205 -0.4417
54321SOL    HW271742  12.624   6.854   9.161 -0.3117 -0.4798 -0.1516
54322SOL     OW71743   2.213   8.630  10.981  0.1153  0.1528 -0.2132
54322SOL    HW171744   2.291   8.638  10.925  0.6114  1.7432  0.6437
54322SOL    HW271745   2.152   8.694  10.946  0.0351  0.4401  0.4433
54323SOL     OW71746   5.092  11.062   6.366 -0.4232  0.1854 -0.3775
54323SOL    HW171747   5.143  10.983   6.350 -1.0573 -1.2403  3.4975
54323SOL    HW271748   5.151  11.134   6.346  0.6785 -1.2353 -2.6000
54324SOL     OW71749   4.886   7.646   2.808  0.0835  0.0934 -0.0839
54324SOL    HW171750   4.796   7.630   2.778 -0.1187 -0.1728  0.6566
54324SOL    HW271751   4.886   7.737   2.837 -1.0643 -0.8983  3.6352
54325SOL     OW71752   6.810   8.087  11.669  0.1012 -0.1691  0.3478
54325SOL    HW171753   6.759   8.135  11.733 -1.1301 -0.6990 -0.1929
54325SOL    HW271754   6.867   8.153  11.629 -0.3806  0.5049  0.7533
54326SOL     OW71755   2.585   0.720  11.559 -0.4680  0.2622  0.6283
54326SOL    HW171756   2.632   0.756  11.635 -0.6462 -0.0694  0.8970
54326SOL    HW271757   2.654   0.701  11.496 -0.3622  1.0531  0.4841
54327SOL     OW71758   1.502   3.886   1.968 -0.1759  0.1559  0.8976
54327SOL    HW171759   1.494   3.810   1.911 -0.5841  0.2466  0.8334
54327SOL    HW271760   1.542   3.953   1.912 -3.1979  1.1963 -0.2159
54328SOL     OW71761  10.116  10.071   8.011  0.2684  0.4833  0.3166
54328SOL    HW171762  10.089   9.982   8.034  0.0521  0.9785  2.1403
54328SOL    HW271763  10.156  10.063   7.924 -0.7030 -1.2021 -0.0017
54329SOL     OW71764   5.839   5.231   6.558 -0.4181 -0.7833 -0.1798
54329SOL    HW171765   5.743   5.233   6.553 -0.3757 -0.7666 -1.1754
54329SOL    HW271766   5.866   5.198   6.472  0.5787  2.2420 -1.1514
54330SOL     OW71767   9.720   6.116  10.712  0.2361 -0.1274 -0.1945
54330SOL    HW171768   9.633   6.120  10.752 -0.0623 -0.5352 -0.7936
54330SOL    HW271769   9.778   6.156  10.777 -0.3875  0.0890  0.2344
54331SOL     OW71770  10.637   4.536   4.132 -0.1760 -0.2360 -0.1442
54331SOL    HW171771  10.570   4.585   4.179  0.1244 -0.5059  0.5877
54331SOL    HW271772  10.720   4.576   4.158  0.2946 -2.4511  2.2985
54332SOL     OW71773   9.524   5.379   0.930  0.0186 -0.2239 -0.6889
54332SOL    HW171774   9.517   5.295   0.975  2.8070 -1.2708 -1.9402
54332SOL    HW271775   9.459   5.375   0.859 -1.6789 -0.1609  0.8004
54333SOL     OW71776   9.104   6.140  12.376  0.2644  0.4519 -0.5500
54333SOL    HW171777   9.144   6.147  12.463 -0.5298 -1.4352  0.0188
54333SOL    HW271778   9.175   6.106  12.321  0.5034  0.7206 -0.4115
54334SOL     OW71779  11.305  12.079   0.108 -0.6022 -0.5416  0.1854
54334SOL    HW171780  11.358  12.019   0.159 -0.9505 -1.3918 -0.4214
54334SOL    HW271781  11.222  12.086   0.157  0.1601  1.0931  1.3378
54335SOL     OW71782   1.086   8.494   4.028 -0.4573 -0.6901  0.2940
54335SOL    HW171783   1.102   8.470   3.937 -1.6473  2.2782 -0.8129
54335SOL    HW271784   1.156   8.451   4.077  0.4635 -2.0325 -2.0371
54336SOL     OW71785   7.356   6.125   1.743 -0.0479  0.2773  0.0542
54336SOL    HW171786   7.283   6.078   1.783 -0.7238  1.1010 -0.1735
54336SOL    HW271787   7.335   6.127   1.649  0.2830  0.4908 -0.0173
54337SOL     OW71788   5.802   6.112   7.620 -0.0549 -0.5619 -0.9344
54337SOL    HW171789   5.715   6.073   7.637 -0.7882  1.3961  0.1631
54337SOL    HW271790   5.850   6.097   7.702  1.5826 -3.6793 -2.2897
54338SOL     OW71791  12.451   5.081   9.608  0.4328 -0.1681  0.1350
54338SOL    HW171792  12.469   5.121   9.693  0.5572 -0.3774  0.2080
54338SOL    HW271793  12.367   5.117   9.582  1.1387  1.1760 -0.4034
54339SOL     OW71794   2.096   5.545   7.055  0.2424 -0.1028  0.0343
54339SOL    HW171795   2.047   5.503   7.126 -1.3847 -0.3082 -1.1451
54339SOL    HW271796   2.122   5.630   7.090 -1.8580  0.4397  0.4355
54340SOL     OW71797   2.813  12.590  10.633  0.1418 -0.2987  0.1875
54340SOL    HW171798   2.906  12.602  10.651  0.3133  0.3565 -1.0444
54340SOL    HW271799   2.810  12.516  10.572  0.1244  1.2632 -1.8339
54341SOL     OW71800   9.538   2.620   9.827  0.4797 -0.4057  0.1791
54341SOL    HW171801   9.475   2.567   9.877 -1.9945  0.0719 -2.1504
54341SOL    HW271802   9.566   2.563   9.755  1.5346 -0.0841  0.3203
54342SOL     OW71803   3.098   6.356   7.601 -0.2102  0.7341  0.5158
54342SOL    HW171804   3.005   6.337   7.608 -0.0755 -0.7410 -1.0798
54342SOL    HW271805   3.141   6.271   7.603  0.8461  1.1296 -1.6727
54343SOL     OW71806   8.728   3.066   4.959  0.0029  0.3898  0.1809
54343SOL    HW171807   8.705   3.147   5.003  0.7683  0.0075  1.3263
54343SOL    HW271808   8.660   3.054   4.893 -0.2917  1.7851  0.2046
54344SOL     OW71809   4.065   3.517   1.787  0.5695 -0.2858 -0.1918
54344SOL    HW171810   4.041   3.452   1.721  1.1593 -0.8769  0.1650
54344SOL    HW271811   3.985   3.529   1.839  0.3175 -0.3617 -0.5563
54345SOL     OW71812   9.652   5.420   4.603  0.1447  0.7602 -0.8858
54345SOL    HW171813   9.723   5.430   4.541  0.1481  0.8020 -0.8757
54345SOL    HW271814   9.650   5.503   4.651  1.7048 -0.1197  0.8135
54346SOL     OW71815   7.936  12.562   9.195 -0.9034  0.5118  0.3078
54346SOL    HW171816   7.989  12.632   9.159 -0.1892 -0.1917 -0.0400
54346SOL    HW271817   7.847  12.581   9.164 -0.7359  1.2882  0.2811
54347SOL     OW71818   3.286   5.443   0.687  0.2283 -0.4727  0.2581
54347SOL    HW171819   3.226   5.499   0.638  0.5213  0.2641  0.7192
54347SOL    HW271820   3.234   5.413   0.762  0.2830 -0.2403  0.3901
54348SOL     OW71821   2.271   3.075   0.859  1.2618  0.2788 -0.0735
54348SOL    HW171822   2.281   3.127   0.939 -0.2324  0.7701 -0.1800
54348SOL    HW271823   2.330   3.117   0.797  1.0841  1.0271  0.2439
54349SOL     OW71824   4.137  11.409   1.494  1.0173  0.3068 -0.1451
54349SOL    HW171825   4.047  11.430   1.516  0.2340 -1.2773 -1.5993
54349SOL    HW271826   4.186  11.490   1.511 -0.7680  1.3757  0.0947
54350SOL     OW71827   8.835   4.063   7.239 -0.1443 -0.2869 -0.9289
54350SOL    HW171828   8.835   4.066   7.143  0.3533 -0.0604 -0.9239
54350SOL    HW271829   8.781   3.987   7.260 -1.9426  0.8194 -1.3314
54351SOL     OW71830   0.050   5.037  11.239 -0.6715 -0.1782  0.1154
54351SOL    HW171831   0.120   4.982  11.204 -0.8393 -0.1451 -0.2830
54351SOL    HW271832   0.094   5.094  11.303 -0.6554 -1.3840  1.2106
54352SOL     OW71833  10.638   4.479   5.784  0.4489 -0.1701  0.6031
54352SOL    HW171834  10.718   4.437   5.817  0.8803  0.2004  0.0311
54352SOL    HW271835  10.652   4.488   5.690 -0.1337  0.1945  0.5470
54353SOL     OW71836   7.442  11.446   1.987 -0.1590  0.2730 -0.2046
54353SOL    HW171837   7.479  11.481   2.069  0.2968 -0.7909  0.0652
54353SOL    HW271838   7.358  11.490   1.978  0.1674  1.0411  0.3920
54354SOL     OW71839   5.535  11.111   7.019  0.5109  0.2568  0.9209
54354SOL    HW171840   5.502  11.196   6.990  1.6847  0.5303  0.3064
54354SOL    HW271841   5.522  11.110   7.113 -0.4968  0.6727  0.7921
54355SOL     OW71842   7.700   7.315   4.017 -0.1056  0.6056  0.7791
54355SOL    HW171843   7.605   7.309   4.005 -0.2398  1.7854  1.1482
54355SOL    HW271844   7.732   7.355   3.936  0.4734 -2.3370 -0.5952
54356SOL     OW71845  10.245   0.643   3.533 -0.0498 -0.2430 -0.1767
54356SOL    HW171846  10.266   0.616   3.623  0.1613  1.2576  0.2431
54356SOL    HW271847  10.157   0.608   3.518 -0.0241 -0.6573  0.5549
54357SOL     OW71848  11.992   6.488  11.790 -0.6076  0.1019  0.1260
54357SOL    HW171849  12.061   6.521  11.848  0.7282  0.7489 -1.7605
54357SOL    HW271850  11.913   6.489  11.845  0.3643  1.7685  1.5966
54358SOL     OW71851   5.071   2.102   5.422 -0.0943  0.2672 -0.2304
54358SOL    HW171852   5.132   2.031   5.444  1.1618  0.8465 -1.6635
54358SOL    HW271853   5.104   2.177   5.471  0.0346  0.4398 -0.5751
54359SOL     OW71854   5.908   2.549   7.126 -0.4814  0.1084 -0.3391
54359SOL    HW171855   5.963   2.536   7.049  0.7399 -1.8660  0.7789
54359SOL    HW271856   5.832   2.493   7.112 -0.5453  0.2082 -0.3881
54360SOL     OW71857   4.939   2.765  10.447  0.1740  0.2677 -0.8245
54360SOL    HW171858   4.979   2.760  10.534  0.1276 -2.0729 -0.8716
54360SOL    HW271859   5.011   2.743  10.387  0.5883  3.2803 -1.5841
54361SOL     OW71860   4.560   5.463   3.155 -0.8333 -0.3712  0.0428
54361SOL    HW171861   4.603   5.388   3.197  0.0999  0.7937  1.2306
54361SOL    HW271862   4.514   5.425   3.080  3.6113 -1.6116 -2.4809
54362SOL     OW71863   9.944   4.986  11.705 -0.3824 -0.1481  0.3833
54362SOL    HW171864   9.969   4.990  11.798 -0.7572  0.4400  0.4636
54362SOL    HW271865  10.005   5.045  11.661  0.0630 -0.7464  0.1912
54363SOL     OW71866   8.092   6.550   1.582 -0.5534  0.2390 -0.6350
54363SOL    HW171867   8.083   6.505   1.665 -2.4732 -1.1232 -1.5122
54363SOL    HW271868   8.183   6.534   1.555 -0.7407 -1.8165 -0.1702
54364SOL     OW71869   5.574   0.434   5.935  0.2851  0.0292 -0.7645
54364SOL    HW171870   5.603   0.343   5.935  0.0334 -0.0510 -1.0432
54364SOL    HW271871   5.480   0.430   5.952  0.5934  0.3531  1.2105
54365SOL     OW71872   8.986   5.533   6.936 -0.6879  0.3302 -0.2434
54365SOL    HW171873   8.976   5.469   7.006 -2.0675 -0.5855 -1.2212
54365SOL    HW271874   8.919   5.599   6.954 -2.9656 -1.3178 -2.0972
54366SOL     OW71875   7.664   0.407  10.741  0.0119 -0.2338  0.4456
54366SOL    HW171876   7.571   0.383  10.742 -1.0062  3.1762  1.9045
54366SOL    HW271877   7.699   0.361  10.665 -2.7163 -2.0397  0.1147
54367SOL     OW71878   4.304   1.170  11.888 -0.0805 -0.3610  0.1777
54367SOL    HW171879   4.267   1.167  11.800 -1.7581  2.0202  0.7028
54367SOL    HW271880   4.246   1.113  11.940 -0.8962  0.5572  0.2950
54368SOL     OW71881   2.445   0.981   6.015 -0.5326  0.1321 -0.0029
54368SOL    HW171882   2.438   1.048   6.083  0.2602 -2.4422  2.8779
54368SOL    HW271883   2.539   0.977   5.996 -0.7917  1.1432 -1.7110
54369SOL     OW71884   2.201  10.650   1.081 -0.0448  0.1226 -0.0909
54369SOL    HW171885   2.229  10.563   1.053  0.0953  0.1925 -0.1698
54369SOL    HW271886   2.200  10.645   1.177 -3.4721 -1.0782 -0.0521
54370SOL     OW71887   4.149   0.933   1.915 -0.4631  0.4214  0.0061
54370SOL    HW171888   4.103   0.869   1.970  0.6512  1.5870  2.4485
54370SOL    HW271889   4.233   0.891   1.895  0.2928  1.0894  1.6591
54371SOL     OW71890   9.424   4.061   6.037 -0.2340 -0.1479  0.3262
54371SOL    HW171891   9.356   4.044   5.971 -0.7663 -0.4104  0.9292
54371SOL    HW271892   9.468   3.977   6.049 -1.8947 -0.8210  2.2278
54372SOL     OW71893   0.798   8.413   0.251  0.4257  0.0181 -0.7411
54372SOL    HW171894   0.711   8.450   0.264  0.9999  0.7298  1.6265
54372SOL    HW271895   0.789   8.321   0.275  0.0459 -0.2587 -1.8910
54373SOL     OW71896   1.804   5.910   1.599  0.5785 -0.0849 -0.2083
54373SOL    HW171897   1.774   5.832   1.646  0.2512 -1.4042 -2.4771
54373SOL    HW271898   1.878   5.879   1.547  1.3120  1.4731 -0.1299
54374SOL     OW71899   0.967  12.168  11.001  0.6311  0.2691  0.3859
54374SOL    HW171900   1.058  12.198  11.007  0.8553 -0.2401 -0.3365
54374SOL    HW271901   0.974  12.073  10.992 -0.0192  0.0985  1.3888
54375SOL     OW71902   1.850   9.676   4.087 -0.1024  0.0913 -0.1813
54375SOL    HW171903   1.832   9.714   4.173 -0.9407 -0.8738  0.0887
54375SOL    HW271904   1.940   9.645   4.093  0.7180  2.2494 -0.5126
54376SOL     OW71905   0.854   6.795  12.364 -0.4896 -0.1095 -0.0799
54376SOL    HW171906   0.907   6.744  12.426 -1.0690 -0.7764 -0.1227
54376SOL    HW271907   0.801   6.852  12.420  0.3210  0.6282 -0.0404
54377SOL     OW71908   5.144   6.519  11.820  0.2812  0.9329  0.4081
54377SOL    HW171909   5.198   6.576  11.765  0.9816  0.3411  0.4642
54377SOL    HW271910   5.054   6.538  11.793  0.5582  1.3808 -0.2298
54378SOL     OW71911   3.069  10.976  11.292 -0.3473  0.7463  0.5462
54378SOL    HW171912   3.028  10.895  11.260 -1.8741  0.6350  2.5781
54378SOL    HW271913   3.095  11.023  11.213  0.1819 -1.5118 -0.7071
54379SOL     OW71914   7.949   0.216   2.041  0.1785 -0.0055 -0.2227
54379SOL    HW171915   7.878   0.206   1.978  0.9655 -0.2267 -1.0870
54379SOL    HW271916   7.909   0.196   2.126 -0.7982 -0.0585 -0.6909
54380SOL     OW71917   1.246   1.893   1.581 -0.6012  0.1592 -1.0131
54380SOL    HW171918   1.321   1.900   1.640 -0.5883  1.3030 -1.1387
54380SOL    HW271919   1.274   1.940   1.502 -1.2238  0.0596 -1.2939
54381SOL     OW71920   0.069   8.481   3.118  0.1924 -0.7298  0.5438
54381SOL    HW171921   0.001   8.548   3.123 -0.1091 -0.9917  0.0239
54381SOL    HW271922   0.151   8.530   3.112 -0.1383 -0.3644 -1.5856
54382SOL     OW71923   3.644   3.020  10.295  0.3658  0.1513 -0.1518
54382SOL    HW171924   3.594   3.083  10.242 -0.4901 -0.2767  0.1270
54382SOL    HW271925   3.579   2.984  10.356  1.5838  1.6279  2.1340
54383SOL     OW71926  10.001   3.360  12.298  0.0199  0.5657 -0.0690
54383SOL    HW171927   9.907   3.373  12.286 -0.1790 -1.3331 -0.8951
54383SOL    HW271928  10.040   3.393  12.217 -0.0435  0.2457 -0.2290
54384SOL     OW71929   8.893   3.354   7.050 -0.4198  0.2522 -0.3644
54384SOL    HW171930   8.922   3.439   7.015  0.9741 -0.6975 -1.6282
54384SOL    HW271931   8.802   3.347   7.021 -1.0659  1.9478  1.0475
54385SOL     OW71932   6.060   6.867   3.914  0.1689  0.5912 -0.5645
54385SOL    HW171933   6.124   6.885   3.845  1.2994 -0.2284  0.2477
54385SOL    HW271934   6.111   6.865   3.995 -0.9530  0.3758  0.1602
54386SOL     OW71935  10.423   8.912  10.314 -0.7392  0.2332 -0.0538
54386SOL    HW171936  10.367   8.843  10.276  1.2839  0.0170 -2.9997
54386SOL    HW271937  10.511   8.874  10.313 -0.0699  1.6212  1.6951
54387SOL     OW71938   7.043   2.426   1.424  0.3391 -0.7393 -0.2704
54387SOL    HW171939   7.079   2.428   1.335  0.0834 -0.0405 -0.3621
54387SOL    HW271940   7.116   2.451   1.480 -0.1072  1.2188 -0.5021
54388SOL     OW71941   3.782   0.610   6.326  0.9207 -0.3592 -0.4314
54388SOL    HW171942   3.831   0.580   6.249  1.7044 -0.7935  0.2208
54388SOL    HW271943   3.759   0.530   6.373  0.1287 -0.1172 -0.3929
54389SOL     OW71944  11.791   4.663   8.561  0.0235 -0.3725 -0.0105
54389SOL    HW171945  11.708   4.694   8.596 -0.6170 -1.6767 -0.3065
54389SOL    HW271946  11.803   4.712   8.480 -0.3914 -0.0777  0.1060
54390SOL     OW71947  11.620   0.566   8.004  0.1335 -0.5618  0.3814
54390SOL    HW171948  11.644   0.549   8.095  0.6064  1.3498  0.6598
54390SOL    HW271949  11.700   0.599   7.964 -0.4324 -0.0190 -0.3409
54391SOL     OW71950  10.779   7.649   3.654  0.3056  0.3320  0.0779
54391SOL    HW171951  10.823   7.577   3.608 -1.0888  0.8897 -2.3018
54391SOL    HW271952  10.804   7.637   3.746  0.6260 -2.8232 -0.2844
54392SOL     OW71953  11.094   3.133   1.599  0.6001 -0.5360  0.5101
54392SOL    HW171954  11.121   3.186   1.675 -0.4462 -0.5486  0.9111
54392SOL    HW271955  11.174   3.092   1.568  0.9751 -0.9134  1.9192
54393SOL     OW71956   1.415   2.695  11.962 -0.0035  0.1158 -0.2499
54393SOL    HW171957   1.396   2.723  11.873 -0.5594 -0.0600 -0.1867
54393SOL    HW271958   1.370   2.759  12.018 -1.2162 -0.8327 -0.1067
54394SOL     OW71959  11.789   3.274   3.919  0.1389  0.1539  0.3123
54394SOL    HW171960  11.721   3.232   3.972 -0.5807  1.1369  0.1983
54394SOL    HW271961  11.866   3.277   3.977 -0.0891 -0.4399  0.6527
54395SOL     OW71962   5.981   4.420   4.558 -1.0220 -0.1355 -0.0515
54395SOL    HW171963   6.074   4.400   4.553 -0.9290 -0.1436  1.4071
54395SOL    HW271964   5.968   4.490   4.494 -0.3974 -1.3621 -1.6053
54396SOL     OW71965   0.105   1.593   7.618 -0.0278 -0.4363 -0.3511
54396SOL    HW171966   0.151   1.511   7.634  0.6303  0.2551  1.4924
54396SOL    HW271967   0.125   1.615   7.527 -0.6896 -2.5821 -1.0617
54397SOL     OW71968   1.714   7.224   7.337 -0.0254  0.0734 -0.0216
54397SOL    HW171969   1.665   7.194   7.413  0.0639  0.0241  0.0168
54397SOL    HW271970   1.806   7.209   7.360  0.0503  0.8910  0.2185
54398SOL     OW71971  10.572   4.787   1.379 -0.5343 -0.2269  0.4623
54398SOL    HW171972  10.546   4.786   1.287  0.5326  0.9068  0.1106
54398SOL    HW271973  10.587   4.880   1.399 -0.4315 -0.4796  1.6893
54399SOL     OW71974   0.378   4.675   6.704  0.3510  0.4257  0.2616
54399SOL    HW171975   0.361   4.672   6.610  1.2394 -0.1368  0.1107
54399SOL    HW271976   0.411   4.764   6.720 -2.1471  1.3920  0.4866
54400SOL     OW71977   2.674   8.378   9.386 -0.6523 -0.2128  0.3484
54400SOL    HW171978   2.599   8.337   9.344 -0.1032  1.2848 -2.3362
54400SOL    HW271979   2.637   8.438   9.450 -1.6274 -1.1381  0.6701
54401SOL     OW71980   2.356  10.702   4.024 -0.2179  0.1274  0.1415
54401SOL    HW171981   2.307  10.712   4.105  1.1730 -2.0127  1.3415
54401SOL    HW271982   2.443  10.738   4.044  0.0635 -0.1967 -0.4670
54402SOL     OW71983  10.221  10.914  12.598 -0.1168 -0.1862  0.1580
54402SOL    HW171984  10.315  10.907  12.616  0.0081  0.6457 -0.1246
54402SOL    HW271985  10.182  10.935  12.683 -0.1959 -1.5861  0.4996
54403SOL     OW71986   7.935   4.967   6.104 -0.2641 -0.3110 -0.3061
54403SOL    HW171987   7.979   5.037   6.056 -2.8130  0.4421 -1.7384
54403SOL    HW271988   7.873   5.012   6.161  0.3779 -1.3396  1.2737
54404SOL     OW71989  11.887   8.221   2.813 -0.0669  0.0556  0.0194
54404SOL    HW171990  11.869   8.312   2.790  1.1687  0.6150  1.1586
54404SOL    HW271991  11.801   8.179   2.811 -0.7570  1.4135  0.1904
54405SOL     OW71992   6.438   8.972   1.908  0.0696 -0.0398  0.0683
54405SOL    HW171993   6.392   8.964   1.991 -1.2571  0.7439 -0.5567
54405SOL    HW271994   6.401   8.904   1.852  1.0193 -0.6240  0.1295
54406SOL     OW71995   0.445  12.411   7.025 -0.6959  0.2152  0.4473
54406SOL    HW171996   0.414  12.323   7.045 -0.1750 -0.5529 -1.8451
54406SOL    HW271997   0.366  12.461   7.007 -0.9090 -0.3313 -0.1834
54407SOL     OW71998   6.221  10.552   1.950  0.3848  0.1740  0.1554
54407SOL    HW171999   6.266  10.617   2.004 -1.2046  0.0986  1.6678
54407SOL    HW272000   6.141  10.595   1.922 -1.8525 -1.6718  3.0574
54408SOL     OW72001  10.553   3.054   3.870 -0.2391  0.5015  0.0542
54408SOL    HW172002  10.640   3.088   3.891  0.0513 -0.2779  0.1347
54408SOL    HW272003  10.569   2.966   3.836 -0.9938  0.3631  0.0417
54409SOL     OW72004   2.249   3.967   0.840  0.2111  0.4524  0.3951
54409SOL    HW172005   2.215   3.994   0.755 -0.3735 -1.1938  0.0673
54409SOL    HW272006   2.344   3.958   0.826  0.3502  1.8126  0.3948
54410SOL     OW72007   0.853   3.205  10.825 -0.3917  0.4806 -0.0421
54410SOL    HW172008   0.872   3.127  10.876  1.3120 -0.1668 -1.5607
54410SOL    HW272009   0.935   3.254  10.822 -0.9215  1.3833 -0.6992
54411SOL     OW72010  12.484   1.301   9.881 -0.5094 -0.0369 -0.0648
54411SOL    HW172011  12.546   1.351   9.934  1.5077 -1.8104 -0.6114
54411SOL    HW272012  12.508   1.320   9.791  0.3369 -1.9520 -0.2812
54412SOL     OW72013   7.145   0.541  11.012 -0.5780 -0.8991 -1.2078
54412SOL    HW172014   7.202   0.618  11.016 -0.4121 -0.9750 -1.9187
54412SOL    HW272015   7.059   0.575  11.036 -0.0013 -1.0865  1.4367
54413SOL     OW72016   6.443  11.884   5.107 -0.1757 -0.5082 -0.4569
54413SOL    HW172017   6.347  11.887   5.109 -0.1792  0.7055  2.2055
54413SOL    HW272018   6.469  11.973   5.082  0.2356 -0.3629  0.4640
54414SOL     OW72019   9.644   4.536   6.984  0.5088 -0.4214 -0.5253
54414SOL    HW172020   9.584   4.560   7.054  1.4579 -0.8807  0.4701
54414SOL    HW272021   9.588   4.495   6.918 -0.3461 -0.3621  0.1419
54415SOL     OW72022  12.187   2.529  10.308  0.2732  0.3554 -0.1335
54415SOL    HW172023  12.249   2.597  10.284  1.2699 -1.0902 -1.9945
54415SOL    HW272024  12.130   2.519  10.231 -2.2376  1.4978  1.4407
54416SOL     OW72025   5.862   6.686   5.240 -0.2506 -0.5202  0.6534
54416SOL    HW172026   5.897   6.773   5.222  1.8389 -1.4613 -0.1805
54416SOL    HW272027   5.867   6.678   5.336 -0.4232  0.2611  0.7311
54417SOL     OW72028   8.653   1.050  12.596  0.3019  0.2504 -0.2576
54417SOL    HW172029   8.685   1.021  12.682 -1.0722  0.6658  0.4280
54417SOL    HW272030   8.650   1.146  12.603 -1.3843  0.2137 -0.1576
54418SOL     OW72031   6.792  11.375   6.456 -0.0107  0.8391  0.3366
54418SOL    HW172032   6.731  11.331   6.397  0.9974  0.7164 -0.6672
54418SOL    HW272033   6.762  11.465   6.461  0.0670  0.9268 -0.6430
54419SOL     OW72034   5.317   8.429   9.102  0.6627  0.2867 -0.3159
54419SOL    HW172035   5.345   8.515   9.131  2.4397 -0.7928  1.3946
54419SOL    HW272036   5.274   8.390   9.178 -1.4371  0.1384 -1.4934
54420SOL     OW72037   2.049   7.688   9.900 -0.2044  0.6264  0.3816
54420SOL    HW172038   2.012   7.726   9.820  0.0102  0.7870  0.3581
54420SOL    HW272039   2.027   7.595   9.895  0.0548  0.5835 -0.0015
54421SOL     OW72040   7.870  11.487  11.967  0.2466  0.2292  0.6224
54421SOL    HW172041   7.950  11.443  11.996  1.0467 -0.2800 -2.1203
54421SOL    HW272042   7.816  11.418  11.929 -1.4392  0.6220  2.1083
54422SOL     OW72043   2.231   5.901  10.937 -0.0928 -0.5567  0.3027
54422SOL    HW172044   2.324   5.887  10.919 -0.3883 -0.4735 -1.5073
54422SOL    HW272045   2.191   5.815  10.929 -0.5158 -0.2356 -1.4694
54423SOL     OW72046  10.326  11.180   2.978  0.0545 -0.3581 -0.6968
54423SOL    HW172047  10.290  11.114   2.918 -0.1398  1.0289 -2.1943
54423SOL    HW272048  10.279  11.167   3.060  2.8427 -4.7734  0.5636
54424SOL     OW72049  10.623  11.562  10.166 -0.3086  0.0213 -0.1771
54424SOL    HW172050  10.671  11.544  10.086 -0.5843 -0.3191 -0.2669
54424SOL    HW272051  10.586  11.477  10.192 -0.3493  0.1593  0.2218
54425SOL     OW72052  10.005   5.500   3.967 -0.0585  0.2098 -0.7465
54425SOL    HW172053  10.075   5.438   3.945  1.4045  1.9245 -1.1451
54425SOL    HW272054   9.975   5.471   4.053 -0.9463 -2.3196 -1.8174
54426SOL     OW72055   5.744   1.663   0.111  0.3838  0.6006  0.2979
54426SOL    HW172056   5.782   1.661   0.199 -1.9803 -0.3392  1.4033
54426SOL    HW272057   5.658   1.703   0.124 -0.3505 -0.3248 -1.4403
54427SOL     OW72058   0.298  11.950   5.216 -0.4806  0.2346 -0.1455
54427SOL    HW172059   0.306  11.988   5.303  2.0964  0.8816 -0.5931
54427SOL    HW272060   0.342  12.012   5.158 -1.2719 -0.6534 -1.7832
54428SOL     OW72061   9.995   0.979  10.892  0.1135  0.2767 -0.7028
54428SOL    HW172062   9.945   1.044  10.942  0.7549  0.4128 -0.2226
54428SOL    HW272063   9.967   0.991  10.802 -0.0572  0.9673 -0.5617
54429SOL     OW72064   4.031   1.795  12.590  0.1947 -0.7023 -0.8823
54429SOL    HW172065   4.076   1.779  12.507  3.8214  1.3462  0.4529
54429SOL    HW272066   4.053   1.886  12.612 -0.9438 -1.0478  2.1191
54430SOL     OW72067   1.488   2.484   0.567  0.1576 -0.0281 -0.0855
54430SOL    HW172068   1.427   2.558   0.572  0.6070  0.3010  0.5386
54430SOL    HW272069   1.452   2.429   0.497  0.6782  1.5613 -1.6954
54431SOL     OW72070  10.997   3.243   8.449 -0.5653 -0.1971  0.0603
54431SOL    HW172071  11.010   3.334   8.476  0.0034 -0.4133  0.5255
54431SOL    HW272072  11.005   3.245   8.353 -0.6247  0.2472  0.0619
54432SOL     OW72073   9.825   3.060   8.979 -0.2560  0.5294  0.0397
54432SOL    HW172074   9.739   3.080   9.017 -0.2734 -1.1124  0.9829
54432SOL    HW272075   9.869   3.009   9.047  0.2983 -1.2368 -1.5461
54433SOL     OW72076   5.842  12.511   7.402 -0.5665  0.0855  0.0479
54433SOL    HW172077   5.778  12.516   7.473  1.1554  0.3827  1.6672
54433SOL    HW272078   5.800  12.456   7.336 -2.4763  0.2798  1.0125
54434SOL     OW72079   3.139   9.146  12.568  0.1465  0.0306  0.4389
54434SOL    HW172080   3.068   9.173  12.509 -0.2640 -3.0888 -0.6785
54434SOL    HW272081   3.217   9.147  12.513  0.2180 -0.5130  0.5284
54435SOL     OW72082  11.236  12.211   8.536 -0.1294 -0.2105  0.0701
54435SOL    HW172083  11.329  12.227   8.519 -0.0639  0.5753  1.0243
54435SOL    HW272084  11.201  12.297   8.560 -0.5950 -0.8709  1.9085
54436SOL     OW72085   2.368   6.690   8.620  0.1881  0.3604 -0.0250
54436SOL    HW172086   2.388   6.643   8.539  0.6129  1.3022 -0.4809
54436SOL    HW272087   2.421   6.770   8.616  0.3505  0.3442  1.2712
54437SOL     OW72088   8.679   5.717   2.321  0.2599  0.1800  0.0104
54437SOL    HW172089   8.718   5.690   2.238  0.1301  1.9558 -0.6707
54437SOL    HW272090   8.698   5.644   2.381  0.6424 -0.9868 -1.4696
54438SOL     OW72091  10.449  10.199   5.431 -0.4479 -0.4227  1.1166
54438SOL    HW172092  10.439  10.194   5.336 -1.0209  0.7317  1.0994
54438SOL    HW272093  10.367  10.166   5.466 -1.4469  1.8627  1.1204
54439SOL     OW72094  11.865  11.110  11.471 -0.5958 -0.3200 -0.1014
54439SOL    HW172095  11.874  11.140  11.562  0.1317 -0.6109 -0.0708
54439SOL    HW272096  11.784  11.058  11.471 -1.2124  0.6287  0.1126
54440SOL     OW72097   5.528   3.245  12.543 -0.5846  0.0706  0.0909
54440SOL    HW172098   5.593   3.238  12.612  0.9081 -1.0613 -1.3347
54440SOL    HW272099   5.473   3.168  12.553 -1.4368  0.7908  1.0234
54441SOL     OW72100   6.254   1.616  12.134 -0.2100 -0.0478 -0.2905
54441SOL    HW172101   6.238   1.535  12.182  1.4177  0.3388  1.0080
54441SOL    HW272102   6.205   1.682  12.182 -0.8409 -0.0982 -0.8453
54442SOL     OW72103  12.534   0.493   1.181 -0.1452  0.1096 -0.0204
54442SOL    HW172104  12.535   0.403   1.212 -0.3125  0.4290  0.9326
54442SOL    HW272105  12.531   0.485   1.085  3.5541 -0.8972 -0.2126
54443SOL     OW72106   3.299  11.127   3.060 -0.0280  0.1802  0.3429
54443SOL    HW172107   3.327  11.048   3.015 -1.6398  0.3572 -1.0797
54443SOL    HW272108   3.380  11.173   3.081  0.8644  0.3226 -2.8452
54444SOL     OW72109   7.354   5.942   2.454 -0.1199  0.0324  0.6581
54444SOL    HW172110   7.262   5.963   2.435 -0.4738 -2.1436 -0.3134
54444SOL    HW272111   7.349   5.868   2.515  1.0179  0.4733  1.3144
54445SOL     OW72112   7.508   2.913   7.075  0.1629 -0.1739  0.0637
54445SOL    HW172113   7.549   2.996   7.052 -0.0141 -0.2936 -0.6877
54445SOL    HW272114   7.563   2.847   7.035  0.6565 -0.4639  1.1811
54446SOL     OW72115   5.080  10.096   5.399  0.1034  0.5345 -0.1029
54446SOL    HW172116   5.089  10.191   5.407  0.1711  0.8361 -2.9485
54446SOL    HW272117   4.992  10.083   5.366 -0.2226 -0.5086  1.0979
54447SOL     OW72118  12.269   3.671   2.672  0.3698 -0.5602 -0.3242
54447SOL    HW172119  12.268   3.743   2.734  0.7673  0.1283 -1.0961
54447SOL    HW272120  12.341   3.692   2.612 -0.3882 -0.9041 -1.3720
54448SOL     OW72121   1.691  10.533   5.394  0.5197 -0.4975  0.0548
54448SOL    HW172122   1.724  10.563   5.310  1.3486 -0.3122  0.4390
54448SOL    HW272123   1.601  10.505   5.376 -0.3002  2.1613 -0.3246
54449SOL     OW72124  11.805  11.176  10.836  0.0739  0.4288 -0.0482
54449SOL    HW172125  11.811  11.254  10.891 -2.0083 -0.7679  2.1001
54449SOL    HW272126  11.880  11.181  10.778  0.0107  4.0211 -0.0468
54450SOL     OW72127   3.719   1.758   3.571 -0.2385 -0.0555 -0.1659
54450SOL    HW172128   3.777   1.702   3.519 -0.6977 -1.2430  0.5451
54450SOL    HW272129   3.778   1.818   3.617  0.3006 -0.1676 -0.6991
54451SOL     OW72130   9.598  10.025   4.349  0.5593 -0.2685 -0.3420
54451SOL    HW172131   9.617  10.115   4.374  1.6103 -0.5354 -0.1317
54451SOL    HW272132   9.516  10.004   4.393  0.4973  0.4623 -0.1006
54452SOL     OW72133   4.752   7.316   2.069 -0.8391  0.3932  0.4097
54452SOL    HW172134   4.657   7.312   2.058 -0.7552 -1.1999 -0.0175
54452SOL    HW272135   4.767   7.288   2.159 -0.7003 -1.0180 -0.0333
54453SOL     OW72136   0.405   3.319  12.582 -0.3146 -0.0822 -0.0643
54453SOL    HW172137   0.478   3.288  12.635 -0.0204  2.0610  0.8937
54453SOL    HW272138   0.328   3.272  12.616  0.1417 -0.0378  1.0604
54454SOL     OW72139   4.139  11.517   3.231 -0.3377  0.4586  0.5142
54454SOL    HW172140   4.217  11.570   3.217  0.4903 -0.7103  0.5746
54454SOL    HW272141   4.154  11.437   3.180 -1.6371  0.3444  0.2684
54455SOL     OW72142   0.563   5.039   3.530 -0.4399  0.3584 -0.2363
54455SOL    HW172143   0.474   5.004   3.531 -0.4196  0.2307 -1.3298
54455SOL    HW272144   0.609   4.986   3.465 -0.6213  2.8081 -2.5378
54456SOL     OW72145   5.999   3.814   8.982 -0.1551 -0.4296 -0.6898
54456SOL    HW172146   5.926   3.789   8.926 -2.3103 -0.2556  1.8645
54456SOL    HW272147   5.976   3.901   9.014  1.7298  0.0984 -0.6074
54457SOL     OW72148   8.287   6.285   2.189  0.4344 -0.5315  0.4820
54457SOL    HW172149   8.300   6.301   2.095  0.6737 -3.2979 -0.0412
54457SOL    HW272150   8.211   6.339   2.212 -2.2235 -2.6945 -2.3192
54458SOL     OW72151   8.815   1.751   7.668  0.1130 -0.3964 -0.3643
54458SOL    HW172152   8.767   1.769   7.587 -2.4669 -1.9480  0.6792
54458SOL    HW272153   8.848   1.662   7.656  1.4148  0.0812 -0.4294
54459SOL     OW72154   9.020   9.995   0.989 -0.2164 -0.1376 -0.1236
54459SOL    HW172155   9.070   9.914   0.974  1.4466  0.9043 -0.5274
54459SOL    HW272156   8.984  10.016   0.902  1.3023  0.7493 -0.5760
54460SOL     OW72157   3.729   3.525   8.479 -0.3405  0.3190  0.4506
54460SOL    HW172158   3.692   3.452   8.530  0.4711 -1.5255 -1.4285
54460SOL    HW272159   3.655   3.583   8.462 -1.4082 -0.9597  0.5696
54461SOL     OW72160  10.434   4.853   4.944  0.2087  0.2428  0.0395
54461SOL    HW172161  10.360   4.797   4.921 -0.3256  0.5889  0.8434
54461SOL    HW272162  10.442   4.913   4.871 -1.5492  1.4205  0.7348
54462SOL     OW72163   9.174   4.786   0.737 -0.3188 -0.6021 -0.2331
54462SOL    HW172164   9.202   4.736   0.814 -0.3165  0.1944  0.2992
54462SOL    HW272165   9.079   4.774   0.734 -0.8231  1.8303  1.7835
54463SOL     OW72166   5.865   0.271   4.393 -0.2481  0.3405 -0.0354
54463SOL    HW172167   5.774   0.300   4.392 -0.0449  1.2057  2.0227
54463SOL    HW272168   5.861   0.180   4.362 -1.7452  0.4826 -0.3410
54464SOL     OW72169   5.991   4.934   5.815 -0.7899  0.1044 -0.0390
54464SOL    HW172170   6.046   5.006   5.844 -2.3239  0.2734  2.7067
54464SOL    HW272171   6.046   4.886   5.753  1.3584  1.8682  0.3827
54465SOL     OW72172   1.379   3.974   2.986  0.0064  0.2471  0.1066
54465SOL    HW172173   1.369   3.985   2.891  0.4995  1.1550  0.1432
54465SOL    HW272174   1.436   3.898   2.995 -0.0328  0.1594 -0.3325
54466SOL     OW72175   1.161   1.022   1.175  0.2028 -0.5210  1.0550
54466SOL    HW172176   1.203   1.048   1.093  0.2342 -0.7934  0.9840
54466SOL    HW272177   1.092   1.088   1.188  0.9266  0.1821  1.4030
54467SOL     OW72178   6.368   0.864   5.780  0.3754 -0.2665  0.4545
54467SOL    HW172179   6.404   0.844   5.694 -1.7640 -0.8879 -0.3798
54467SOL    HW272180   6.395   0.953   5.799  0.1998  0.1781 -1.2646
54468SOL     OW72181  11.316   1.581  10.851 -0.1201  0.3553 -0.4356
54468SOL    HW172182  11.261   1.503  10.856  1.4523 -0.7595  0.5314
54468SOL    HW272183  11.292   1.632  10.928  1.3825 -1.0166  1.0288
54469SOL     OW72184   8.591   6.303   5.540  0.2225 -0.4352  0.3370
54469SOL    HW172185   8.535   6.247   5.485  0.3463 -0.5471  0.3251
54469SOL    HW272186   8.627   6.368   5.480 -0.3781  0.0120  0.4530
54470SOL     OW72187   6.558   2.792   1.984 -0.2726  0.2879  0.2104
54470SOL    HW172188   6.593   2.745   1.908 -0.1937  0.6534  0.0170
54470SOL    HW272189   6.627   2.854   2.008 -0.1531 -0.0773  0.8085
54471SOL     OW72190   1.440  10.023   7.075  0.7779 -0.6957  0.0509
54471SOL    HW172191   1.424   9.951   7.014  0.6644 -0.4826 -0.1732
54471SOL    HW272192   1.413   9.988   7.160 -0.1194 -0.6248 -0.1863
54472SOL     OW72193   6.634   5.675  11.829  0.3454  0.0050  0.0994
54472SOL    HW172194   6.721   5.642  11.853  0.1043 -0.6881  0.0527
54472SOL    HW272195   6.622   5.650  11.738 -0.1339 -0.4255  0.2725
54473SOL     OW72196   7.560   4.477   1.862  0.6931 -0.3521  0.0160
54473SOL    HW172197   7.614   4.416   1.911  0.1811  0.1311  1.2207
54473SOL    HW272198   7.610   4.496   1.782  2.9302  1.0624  1.6454
54474SOL     OW72199   3.307  12.113   5.022  0.9068 -0.0969  0.1723
54474SOL    HW172200   3.231  12.154   5.063  0.2337 -0.6108 -0.5265
54474SOL    HW272201   3.372  12.183   5.016  0.8092  0.1449  1.5261
54475SOL     OW72202   7.321   7.129   8.404 -0.0354 -0.0619 -0.5257
54475SOL    HW172203   7.275   7.206   8.440 -1.8661 -1.6269  0.7093
54475SOL    HW272204   7.366   7.162   8.327 -1.1875  2.1475 -0.3412
54476SOL     OW72205   3.497   5.721  11.045  0.2732 -0.5888 -0.0413
54476SOL    HW172206   3.411   5.760  11.030  0.5421 -0.6299 -1.9498
54476SOL    HW272207   3.535   5.773  11.116  0.5292  2.5858 -2.2876
54477SOL     OW72208  10.783   8.009   8.324  0.1759  0.3254 -0.3827
54477SOL    HW172209  10.723   8.064   8.374 -1.1427  0.0993 -1.6563
54477SOL    HW272210  10.735   7.988   8.244  1.6902 -0.4664 -1.1181
54478SOL     OW72211  10.754  12.035   3.214  0.1381  0.0797 -0.2419
54478SOL    HW172212  10.714  12.078   3.139 -1.1728 -0.0031  0.3842
54478SOL    HW272213  10.755  11.942   3.191 -1.4517 -0.1091  0.3299
54479SOL     OW72214   4.384  12.593   4.945 -0.5140 -0.0105 -0.2593
54479SOL    HW172215   4.365  12.628   5.032 -0.1374 -0.2749 -0.0658
54479SOL    HW272216   4.461  12.538   4.958 -0.8717 -0.6088 -0.6324
54480SOL     OW72217   9.297   0.553   5.355 -0.3537  0.3053 -0.2369
54480SOL    HW172218   9.266   0.465   5.334  0.0881  0.0524  0.1595
54480SOL    HW272219   9.355   0.575   5.282  0.3806 -0.1686  0.1871
54481SOL     OW72220   7.739  12.586   5.061  0.1284  0.1141 -0.1815
54481SOL    HW172221   7.739  12.490   5.062  0.5942  0.1039  1.8614
54481SOL    HW272222   7.697  12.608   4.978  0.6756 -1.8482 -1.0530
54482SOL     OW72223   0.926   8.017   7.936 -0.2607  0.1332  0.0340
54482SOL    HW172224   0.942   7.958   7.862 -2.4729 -2.1165  1.1878
54482SOL    HW272225   0.837   8.050   7.921  0.4634  2.2826  0.0969
54483SOL     OW72226   3.487   1.523   7.646 -0.0332  0.1289  0.2302
54483SOL    HW172227   3.429   1.582   7.694  0.2110  1.1659 -0.6982
54483SOL    HW272228   3.429   1.479   7.584 -0.5529 -2.0415  2.1342
54484SOL     OW72229   9.001   2.334   2.592 -0.0081  0.0305  0.7793
54484SOL    HW172230   8.929   2.383   2.553 -0.3566 -2.5093 -2.0992
54484SOL    HW272231   9.079   2.384   2.568 -0.5335  0.7955  0.6323
54485SOL     OW72232   1.334   8.009   6.925 -0.3662  0.5668 -0.1725
54485SOL    HW172233   1.272   7.955   6.877 -0.8150  0.8016  0.1337
54485SOL    HW272234   1.298   8.098   6.920 -0.6895  0.5141  1.0246
54486SOL     OW72235  10.950   0.147   1.129 -0.6693 -0.1319 -0.2877
54486SOL    HW172236  10.879   0.104   1.176  0.9210 -2.7095 -0.0320
54486SOL    HW272237  10.944   0.114   1.040 -1.7090  2.2300 -1.1793
54487SOL     OW72238  12.185   3.051   5.598 -0.6038  0.6575 -0.0894
54487SOL    HW172239  12.181   3.051   5.694  0.9894  1.7269  0.0352
54487SOL    HW272240  12.279   3.041   5.579 -0.5838  2.8059 -1.4509
54488SOL     OW72241   8.057   5.220   6.193 -0.4984 -0.2587  0.0620
54488SOL    HW172242   8.036   5.173   6.274 -0.6301  0.3819  0.4099
54488SOL    HW272243   8.104   5.298   6.223 -1.2409  0.3879 -0.4196
54489SOL     OW72244   5.996   9.433   5.020 -0.1175 -0.5477 -0.7726
54489SOL    HW172245   5.904   9.408   5.012  0.1334 -1.5459 -0.5919
54489SOL    HW272246   6.002   9.517   4.973 -1.4838  0.4430  0.7427
54490SOL     OW72247  12.120   2.294   2.447  0.3708 -0.0998 -0.0846
54490SOL    HW172248  12.089   2.356   2.513  0.6639  0.0271 -0.0659
54490SOL    HW272249  12.081   2.324   2.365 -0.5534 -0.6539  0.1317
54491SOL     OW72250  10.297   1.721   6.346  0.4861 -0.0797  0.9073
54491SOL    HW172251  10.277   1.773   6.424 -1.6326  0.2651  0.1798
54491SOL    HW272252  10.352   1.650   6.379  0.1526  0.3951  2.6034
54492SOL     OW72253  12.249   9.310   4.538  0.1241  0.4642 -0.0777
54492SOL    HW172254  12.341   9.297   4.563  0.1557  0.6659 -0.0905
54492SOL    HW272255  12.204   9.233   4.572  0.1073  0.8888  0.8870
54493SOL     OW72256   4.175   8.089   2.278 -0.8425 -0.5525  0.3454
54493SOL    HW172257   4.267   8.064   2.282 -1.1748 -1.9678 -0.4092
54493SOL    HW272258   4.132   8.018   2.231 -1.8210  1.4699 -2.0975
54494SOL     OW72259   1.606  11.217   4.673 -0.2521 -0.7031  0.5839
54494SOL    HW172260   1.597  11.298   4.723  0.2483 -1.1083  1.3633
54494SOL    HW272261   1.563  11.151   4.727 -0.9838 -0.8984 -0.2209
54495SOL     OW72262   6.683   9.652   0.065  1.0215  0.1169 -0.5996
54495SOL    HW172263   6.743   9.726   0.055  0.8380  0.1489 -1.6103
54495SOL    HW272264   6.732   9.589   0.118  0.9899  1.1513  0.7093
54496SOL     OW72265   6.245   7.628   3.900  0.3296  0.3407 -0.0609
54496SOL    HW172266   6.200   7.590   3.975 -0.8900  1.1909 -0.3308
54496SOL    HW272267   6.175   7.650   3.839  1.1106  1.6320 -0.5321
54497SOL     OW72268  10.800   7.097   8.864  0.6614 -0.2679 -0.7388
54497SOL    HW172269  10.776   7.100   8.772 -0.6805 -0.9760 -0.4440
54497SOL    HW272270  10.821   7.005   8.881 -1.0817 -0.5720  0.0740
54498SOL     OW72271   9.568   3.782  10.216  0.2072 -0.1334 -0.2952
54498SOL    HW172272   9.527   3.838  10.282  0.7740  0.0584 -0.1006
54498SOL    HW272273   9.653   3.822  10.200  0.3228 -0.5301 -0.6907
54499SOL     OW72274   2.786   9.495   1.392  0.2156  0.9145 -0.3538
54499SOL    HW172275   2.821   9.577   1.357  0.2297  0.4622 -1.4297
54499SOL    HW272276   2.861   9.453   1.434  0.5533  0.8039 -1.0473
54500SOL     OW72277   8.664   9.818   8.218  0.6239  0.2439  0.1838
54500SOL    HW172278   8.621   9.793   8.299 -0.0550 -0.9209 -0.5061
54500SOL    HW272279   8.617   9.770   8.150  1.5482  0.7428 -0.8401
54501SOL     OW72280   5.025  12.322  12.129 -0.0317 -0.2549 -0.3348
54501SOL    HW172281   4.984  12.370  12.201  1.5214  0.9610 -0.2073
54501SOL    HW272282   5.033  12.232  12.161  1.2920  0.4016  1.3420
54502SOL     OW72283   1.853   6.999   9.258 -0.1902  0.5004 -0.3193
54502SOL    HW172284   1.916   6.931   9.236 -0.0822  0.2673  0.6430
54502SOL    HW272285   1.775   6.951   9.288 -0.7171  0.7861 -1.2021
54503SOL     OW72286   7.183   8.983   3.668 -0.1314  0.0275  0.1830
54503SOL    HW172287   7.102   9.028   3.645 -1.0176 -1.5837  0.0517
54503SOL    HW272288   7.185   8.986   3.764  0.6046  1.6348  0.1539
54504SOL     OW72289   8.387   3.162   0.460 -0.1981 -0.3411  0.5179
54504SOL    HW172290   8.349   3.125   0.540 -1.5100 -0.4133 -0.1146
54504SOL    HW272291   8.480   3.174   0.481 -0.8543  1.5008  2.7480
54505SOL     OW72292   2.444   9.860   6.543 -0.0375  0.3838 -0.1660
54505SOL    HW172293   2.464   9.767   6.549 -0.1723  0.3951  0.5491
54505SOL    HW272294   2.374   9.873   6.608  0.8928  1.2286  0.6958
54506SOL     OW72295   6.540   0.213   2.198  0.1209  0.0370  0.1592
54506SOL    HW172296   6.511   0.136   2.149 -2.1619  1.2677 -0.5835
54506SOL    HW272297   6.493   0.207   2.282 -2.5130  2.0145 -1.0259
54507SOL     OW72298   5.356   3.779   5.231  0.0972 -0.0053  0.3671
54507SOL    HW172299   5.345   3.838   5.157 -1.2279  0.9159  1.2679
54507SOL    HW272300   5.330   3.693   5.197  0.1069  0.2860 -0.3951
54508SOL     OW72301   1.381   8.617   6.548 -0.1633 -0.7842  0.1569
54508SOL    HW172302   1.361   8.706   6.580  2.6581 -0.1728  0.5352
54508SOL    HW272303   1.394   8.628   6.454  2.0111 -0.3282  0.4558
54509SOL     OW72304   4.693   9.547   0.673  0.8837 -0.1623 -0.0554
54509SOL    HW172305   4.745   9.547   0.593  0.3512  0.9580 -0.4255
54509SOL    HW272306   4.669   9.638   0.686 -0.9827 -0.6303  0.0975
54510SOL     OW72307   2.613  11.752   8.201 -0.0747  0.2643 -0.0751
54510SOL    HW172308   2.603  11.847   8.213 -1.8776  0.3723 -1.8072
54510SOL    HW272309   2.703  11.741   8.171  0.7499  1.1829  1.8835
54511SOL     OW72310   7.992   7.405   3.911 -0.1755  0.3350  0.7268
54511SOL    HW172311   7.979   7.344   3.983 -1.2177  1.0161  1.1383
54511SOL    HW272312   7.936   7.371   3.841  0.6014 -0.1567  0.3380
54512SOL     OW72313   7.020   5.878   5.550 -0.2473 -0.4172  0.6070
54512SOL    HW172314   7.050   5.823   5.478 -0.7200 -0.8361  0.7219
54512SOL    HW272315   7.094   5.935   5.569 -0.4473  0.4106 -0.8844
54513SOL     OW72316   6.175   7.433   1.463  0.4859  0.4965 -0.4158
54513SOL    HW172317   6.132   7.494   1.403  1.2935  1.5195  0.0026
54513SOL    HW272318   6.146   7.460   1.550  0.5313  0.0110 -0.2454
54514SOL     OW72319  10.577  12.521   9.966  0.2542 -0.0931 -0.1190
54514SOL    HW172320  10.665  12.555   9.947 -0.0278  0.5586 -0.2608
54514SOL    HW272321  10.581  12.495  10.058  0.1713  1.2731  0.2861
54515SOL     OW72322   4.546   9.524   5.077 -0.1632  0.3871 -0.4698
54515SOL    HW172323   4.460   9.515   5.036 -0.2063  1.6586 -0.6689
54515SOL    HW272324   4.584   9.602   5.038  1.5394 -0.7282 -1.1490
54516SOL     OW72325   1.476   0.809   3.241  0.1114 -0.1971  0.2671
54516SOL    HW172326   1.501   0.735   3.186 -0.0235 -0.1669  0.1631
54516SOL    HW272327   1.407   0.775   3.298 -0.5970  0.0813 -0.4014
54517SOL     OW72328  10.986   3.748   2.630  0.0720  0.0060 -0.6886
54517SOL    HW172329  11.014   3.685   2.564  0.5503  0.4795 -0.9433
54517SOL    HW272330  10.986   3.699   2.712  0.4424 -0.3189 -0.8839
54518SOL     OW72331   1.436   9.622   3.414 -0.1157 -0.2725 -0.1746
54518SOL    HW172332   1.341   9.635   3.405 -0.0565  0.6240  0.4317
54518SOL    HW272333   1.466   9.611   3.324 -0.6406  0.6281 -0.4757
54519SOL     OW72334  11.264   3.848   0.423  0.4091 -0.0793  0.6257
54519SOL    HW172335  11.344   3.855   0.476 -0.9366  2.4146  2.5679
54519SOL    HW272336  11.231   3.938   0.419 -2.2344 -1.0085 -0.2563
54520SOL     OW72337   3.444   6.032   3.815 -0.0135 -0.1155 -0.6394
54520SOL    HW172338   3.524   6.072   3.850 -1.1494  1.4137  0.3033
54520SOL    HW272339   3.451   5.939   3.840  1.3438  0.0297 -0.3850
54521SOL     OW72340   4.617  10.159   5.137 -0.2495  0.5218  0.0488
54521SOL    HW172341   4.539  10.183   5.086  0.3503  0.3077 -0.9981
54521SOL    HW272342   4.582  10.116   5.215 -1.1738  0.2620 -0.4910
54522SOL     OW72343  12.539   6.658   6.416  0.7402  0.4138  0.2712
54522SOL    HW172344  12.582   6.666   6.331  0.8217 -0.8903  0.1681
54522SOL    HW272345  12.556   6.741   6.460  2.0484  0.5055 -0.3701
54523SOL     OW72346   5.856   1.195   8.390 -0.7232  0.2822 -0.5394
54523SOL    HW172347   5.861   1.291   8.383 -0.5677  0.2726 -0.5610
54523SOL    HW272348   5.946   1.168   8.406 -0.6412  0.0751 -1.3155
54524SOL     OW72349  11.715   5.351  11.171  0.3375 -0.2738  0.1092
54524SOL    HW172350  11.781   5.281  11.171  2.6778  1.7686 -1.8775
54524SOL    HW272351  11.705   5.374  11.263  0.6939 -2.1024  0.6516
54525SOL     OW72352  11.631   2.797   6.363 -0.4190  0.5426 -0.1788
54525SOL    HW172353  11.623   2.804   6.268 -0.6947 -0.4444 -0.2337
54525SOL    HW272354  11.683   2.874   6.388 -1.7837  1.7520 -0.9196
54526SOL     OW72355  11.290   8.102   6.139  0.1964 -0.9606  0.5408
54526SOL    HW172356  11.279   8.092   6.045 -0.7004  0.5505  0.4502
54526SOL    HW272357  11.235   8.034   6.178  0.6871 -1.6833 -0.0135
54527SOL     OW72358   9.513   8.587   6.941 -0.6303 -0.1002  0.0468
54527SOL    HW172359   9.479   8.545   6.862  1.2105  1.3895 -1.6475
54527SOL    HW272360   9.464   8.669   6.947  0.6235  0.7366 -0.7777
54528SOL     OW72361   2.825   5.582   7.249  0.5025 -0.3681  0.2988
54528SOL    HW172362   2.778   5.665   7.243  0.9266 -0.2010 -1.3430
54528SOL    HW272363   2.756   5.515   7.254  0.1630  0.0601  1.7273
54529SOL     OW72364  10.644   4.048   0.135 -0.0930 -0.1901 -0.2338
54529SOL    HW172365  10.655   4.129   0.186 -0.3177 -0.3026 -0.0046
54529SOL    HW272366  10.658   3.978   0.199 -0.2649 -0.3321 -0.3543
54530SOL     OW72367   6.597   9.750   9.502  0.1643 -0.3252 -0.0976
54530SOL    HW172368   6.608   9.656   9.513  2.1793 -0.1764 -0.3918
54530SOL    HW272369   6.526   9.759   9.438  0.6337 -1.6867 -0.8574
54531SOL     OW72370   7.819   9.626   8.995  0.2115 -0.4376 -0.1358
54531SOL    HW172371   7.908   9.591   8.989  1.5700  2.5386  0.9862
54531SOL    HW272372   7.810   9.682   8.918 -0.7589 -0.7870 -0.2899
54532SOL     OW72373  10.917   7.072   6.701  0.5469 -0.9398 -0.2246
54532SOL    HW172374  10.987   7.076   6.636  1.2453  0.6923  0.5568
54532SOL    HW272375  10.943   7.136   6.768 -0.8290 -1.5675  0.9647
54533SOL     OW72376   3.448   8.023   4.594  0.3419  0.0320  0.2280
54533SOL    HW172377   3.463   7.929   4.604 -3.3653 -0.7663 -0.2755
54533SOL    HW272378   3.419   8.053   4.680  3.2531  1.2638  0.9116
54534SOL     OW72379  10.641   9.642  11.208  0.1061 -0.7710  0.6583
54534SOL    HW172380  10.572   9.655  11.272 -0.2214  0.4606  0.0952
54534SOL    HW272381  10.609   9.573  11.150 -1.6300  1.1458 -0.8249
54535SOL     OW72382  12.308   9.978   4.407  0.4224  0.1416  0.5228
54535SOL    HW172383  12.378  10.043   4.401  0.0415  0.5943  0.9365
54535SOL    HW272384  12.354   9.895   4.419  0.9141  0.3223 -0.0599
54536SOL     OW72385   0.156   2.330   6.847 -0.7905  0.3574  0.4812
54536SOL    HW172386   0.166   2.419   6.880  0.1679  0.7445 -0.7777
54536SOL    HW272387   0.188   2.334   6.756 -0.4068 -1.3371  0.5076
54537SOL     OW72388   0.538   0.892  12.232  0.6262  0.4523  0.5070
54537SOL    HW172389   0.473   0.854  12.291  0.8944  0.3656  0.7487
54537SOL    HW272390   0.486   0.930  12.161  0.3282  0.0609  0.5091
54538SOL     OW72391   9.349   9.283  10.035  0.3905  0.8140 -0.8495
54538SOL    HW172392   9.402   9.330   9.970  1.8065 -0.2824 -0.5504
54538SOL    HW272393   9.290   9.228   9.983  0.2519  1.2909 -1.1988
54539SOL     OW72394   5.542   9.974   6.173  0.2411  0.4150 -0.0117
54539SOL    HW172395   5.501  10.059   6.188 -1.0421 -0.3533  1.0720
54539SOL    HW272396   5.626   9.979   6.219 -0.0592  0.9257  0.4925
54540SOL     OW72397   0.976   3.411  10.002 -0.2678  0.1388 -0.0799
54540SOL    HW172398   0.947   3.410   9.910 -1.1044 -1.6106  0.1459
54540SOL    HW272399   0.998   3.320  10.020 -2.0698  0.0314  2.0153
54541SOL     OW72400   1.492   3.661   8.090 -0.2378 -0.4271 -0.2235
54541SOL    HW172401   1.445   3.651   8.173  0.9545 -3.8430  0.1747
54541SOL    HW272402   1.425   3.646   8.023 -0.5241 -1.2978  0.2422
54542SOL     OW72403   2.217   4.268   3.632  0.2766 -0.1028  0.1237
54542SOL    HW172404   2.169   4.317   3.699 -1.8057 -1.0751 -0.5589
54542SOL    HW272405   2.149   4.226   3.580  1.9042 -1.6792 -0.8588
54543SOL     OW72406  10.574   2.825   3.755  0.0682  0.1146 -0.6554
54543SOL    HW172407  10.592   2.731   3.753  1.6924  0.3755 -0.1534
54543SOL    HW272408  10.509   2.839   3.686 -2.5967 -1.7907  1.2633
54544SOL     OW72409   1.158   3.788   3.100  0.7187  0.1812  0.5905
54544SOL    HW172410   1.161   3.720   3.166  0.2623  0.1726  0.6040
54544SOL    HW272411   1.205   3.751   3.025 -0.5283 -0.6142  0.1756
54545SOL     OW72412   4.325  10.246   3.589 -0.5404 -0.0139  0.1354
54545SOL    HW172413   4.325  10.315   3.523 -1.4485 -0.7161 -0.6078
54545SOL    HW272414   4.310  10.292   3.672 -2.1444  0.5873 -0.4683
54546SOL     OW72415   5.831   1.371   2.266  0.1259 -0.0339 -0.0817
54546SOL    HW172416   5.860   1.456   2.233 -1.0620  1.2982  2.0645
54546SOL    HW272417   5.737   1.370   2.250 -0.0459 -0.4550  0.9109
54547SOL     OW72418   2.664   8.451   3.765  0.1238 -0.2818 -0.3030
54547SOL    HW172419   2.701   8.516   3.824 -1.0633  0.0692  0.0786
54547SOL    HW272420   2.637   8.500   3.687  1.1431 -0.6554 -0.9168
54548SOL     OW72421   7.261   1.482   2.197  0.1061  0.4727 -0.2677
54548SOL    HW172422   7.213   1.557   2.231  1.2898  0.2127  2.1381
54548SOL    HW272423   7.348   1.489   2.236 -0.0304 -2.6773  0.9151
54549SOL     OW72424   3.391   1.291   8.454  0.4760  0.1235 -0.2804
54549SOL    HW172425   3.430   1.312   8.369  0.7184  1.9687  0.2487
54549SOL    HW272426   3.465   1.265   8.508  0.5125  0.3098 -0.2403
54550SOL     OW72427   1.081  10.109   3.954 -0.3263 -0.1490 -0.3855
54550SOL    HW172428   1.088  10.193   3.909  0.7244  0.2726  0.5098
54550SOL    HW272429   1.108  10.044   3.889  1.3885  0.4632 -0.3540
54551SOL     OW72430   2.256   0.496   4.028 -0.6357  0.0814  0.7143
54551SOL    HW172431   2.192   0.495   3.957  0.9322 -0.9390 -0.7732
54551SOL    HW272432   2.260   0.588   4.056 -1.6541  0.4105 -0.1713
54552SOL     OW72433   0.373   1.916  10.376  0.4930 -0.4634 -0.0947
54552SOL    HW172434   0.317   1.917  10.299  0.1787 -0.6762  0.1286
54552SOL    HW272435   0.461   1.898  10.342  0.6874  1.2649 -0.6078
54553SOL     OW72436   9.565   0.467   6.335  0.2292 -0.6635  0.1751
54553SOL    HW172437   9.585   0.392   6.391  2.0825  0.1703  0.7002
54553SOL    HW272438   9.578   0.434   6.246  0.8541 -1.0233  0.3913
54554SOL     OW72439   2.941   4.766  11.008  0.8991  0.0541 -0.2653
54554SOL    HW172440   3.016   4.813  10.973  0.9651 -0.4060 -0.7591
54554SOL    HW272441   2.904   4.825  11.074  0.6646  1.0412 -1.2322
54555SOL     OW72442   9.176   2.187  10.629 -0.0305 -0.2016  0.1026
54555SOL    HW172443   9.163   2.186  10.534  0.8500 -2.0689 -0.0336
54555SOL    HW272444   9.268   2.210  10.641 -0.0588 -0.2966  0.5079
54556SOL     OW72445   4.985   4.254  12.480  0.1686 -0.7510  0.0440
54556SOL    HW172446   5.065   4.301  12.456 -0.4323 -0.5426 -1.7508
54556SOL    HW272447   5.011   4.161  12.481  0.7257 -0.5909  0.8067
54557SOL     OW72448   7.932  12.144   4.553 -0.7943 -0.1761  0.2264
54557SOL    HW172449   8.005  12.190   4.511  1.7717 -2.8634  1.3876
54557SOL    HW272450   7.855  12.171   4.503  1.0806  2.1009 -1.6935
54558SOL     OW72451   4.218   0.012   0.585  0.6677  0.2617 -0.2283
54558SOL    HW172452   4.198  -0.082   0.584  1.7700 -0.0378  1.3649
54558SOL    HW272453   4.133   0.055   0.590  0.1372 -0.6394 -1.1530
54559SOL     OW72454   0.616  12.000   8.760  0.1184  0.0161 -0.2355
54559SOL    HW172455   0.698  11.997   8.811 -0.6611  0.2146  1.0902
54559SOL    HW272456   0.641  12.040   8.677  1.7880 -1.8659 -0.7349
54560SOL     OW72457   4.382   0.269  12.144  1.0002  0.1098  0.0771
54560SOL    HW172458   4.289   0.284  12.161  1.0962 -0.5433  1.3397
54560SOL    HW272459   4.405   0.333  12.077  0.0784  1.6000  1.1090
54561SOL     OW72460   1.501   4.439   9.567 -0.2149  0.2282 -0.4409
54561SOL    HW172461   1.558   4.449   9.643 -1.8765 -0.8506  1.0208
54561SOL    HW272462   1.526   4.511   9.509  2.0298  0.2763  0.4965
54562SOL     OW72463  10.388   7.526   4.141  0.1579  0.4255  0.7924
54562SOL    HW172464  10.339   7.506   4.062 -2.1092  1.6236  1.7896
54562SOL    HW272465  10.398   7.622   4.140  1.5936  0.3004  1.1445
54563SOL     OW72466   5.157   2.609  12.109 -0.0850 -0.2345 -0.4814
54563SOL    HW172467   5.222   2.578  12.172  0.9105  1.2828 -0.7077
54563SOL    HW272468   5.205   2.617  12.027  0.3191  3.6135 -0.0594
54564SOL     OW72469   3.981   3.021  11.702 -0.7755 -0.1235 -0.5129
54564SOL    HW172470   4.004   2.945  11.649 -0.3097  0.5556 -1.3092
54564SOL    HW272471   3.907   2.992  11.755  0.0531 -1.4446 -0.0468
54565SOL     OW72472   7.651   1.614   2.480 -0.3040 -0.0165  0.0047
54565SOL    HW172473   7.744   1.597   2.463 -0.7722 -1.7481 -1.1154
54565SOL    HW272474   7.612   1.527   2.489 -1.9762  0.6472 -0.4387
54566SOL     OW72475   1.738   0.276  11.294  0.5675  0.2095  0.0733
54566SOL    HW172476   1.782   0.356  11.264  0.6957  0.2501  0.3672
54566SOL    HW272477   1.802   0.233  11.351 -0.1988  0.8753  1.4910
54567SOL     OW72478   7.793   2.581   2.568  0.7461  0.2270  0.2511
54567SOL    HW172479   7.711   2.540   2.595  0.1966  1.5388  0.6304
54567SOL    HW272480   7.858   2.549   2.631 -0.2792  2.3030  2.4954
54568SOL     OW72481   0.158   6.079  10.503  0.5626 -0.3692 -0.1931
54568SOL    HW172482   0.140   6.167  10.469 -0.0468 -1.1149 -1.9394
54568SOL    HW272483   0.071   6.042  10.521  0.8639 -0.0810  2.0922
54569SOL     OW72484  11.618   6.182   7.726  0.7627 -0.4246  0.0056
54569SOL    HW172485  11.526   6.171   7.702  0.9544 -0.5839 -0.6782
54569SOL    HW272486  11.662   6.206   7.644  0.9095  2.3101  0.7912
54570SOL     OW72487   9.462   5.195  10.682 -0.0096 -0.3289 -0.2781
54570SOL    HW172488   9.547   5.169  10.647 -0.1065 -0.1836 -0.6297
54570SOL    HW272489   9.474   5.286  10.710  0.3374 -0.7369  0.9725
54571SOL     OW72490   0.214   6.638  12.144  0.0003  0.1142  0.2715
54571SOL    HW172491   0.123   6.659  12.168  0.0274  2.2350 -1.2601
54571SOL    HW272492   0.255   6.723  12.128  1.6252 -0.9102 -1.3516
54572SOL     OW72493  11.989   9.718   2.273  0.0893  0.0755  0.1131
54572SOL    HW172494  12.011   9.667   2.195  1.6403  1.1490 -0.1864
54572SOL    HW272495  12.072   9.729   2.319 -0.4863  1.0368  0.9570
54573SOL     OW72496   1.009  11.919   3.840  0.1378  0.2536 -0.3170
54573SOL    HW172497   1.104  11.930   3.849  0.0786 -0.1762  1.0014
54573SOL    HW272498   0.973  11.965   3.915 -0.6969  0.2243 -0.6957
54574SOL     OW72499   7.918   4.332  10.875  0.3414  0.1452 -0.1394
54574SOL    HW172500   7.845   4.289  10.830  0.6850 -0.6617  0.0485
54574SOL    HW272501   7.995   4.302  10.827  0.5558  0.9761 -0.3242
54575SOL     OW72502  10.100   2.763   2.224  0.6035 -1.3924  0.0204
54575SOL    HW172503  10.024   2.821   2.214 -1.2082 -3.5547  0.3494
54575SOL    HW272504  10.164   2.816   2.271 -1.0753  0.2517  0.6074
54576SOL     OW72505   0.087   6.374   7.317  0.1777  0.1904 -0.1327
54576SOL    HW172506   0.072   6.468   7.327  2.3698  0.5025  1.0261
54576SOL    HW272507   0.063   6.354   7.227 -1.0011  1.7077 -0.1776
54577SOL     OW72508   3.490   6.198   6.449  0.2824 -0.3751 -0.0829
54577SOL    HW172509   3.467   6.106   6.463 -0.1099 -0.1858  0.5951
54577SOL    HW272510   3.552   6.217   6.519 -0.6873  0.2377  0.6355
54578SOL     OW72511   3.307   8.692   2.246 -0.0181 -0.2233 -0.3139
54578SOL    HW172512   3.237   8.739   2.290 -0.3305  0.3818 -1.4230
54578SOL    HW272513   3.351   8.759   2.193  0.8423 -0.7741 -0.3142
54579SOL     OW72514   1.985   1.112  11.797  0.0853 -0.1049  0.8089
54579SOL    HW172515   1.985   1.155  11.712  1.1104  1.2326  1.4482
54579SOL    HW272516   1.985   1.019  11.777 -1.4006  0.1563 -0.6240
54580SOL     OW72517  10.084   0.923   4.747 -0.7165  0.0064 -0.3123
54580SOL    HW172518  10.142   0.994   4.720  0.1067 -0.1624  0.9067
54580SOL    HW272519  10.144   0.852   4.771 -1.4849 -0.6686 -0.3639
54581SOL     OW72520  10.488  11.325   2.835 -0.1490 -0.4295 -0.1711
54581SOL    HW172521  10.434  11.286   2.904 -0.8385  0.7584 -0.0148
54581SOL    HW272522  10.570  11.346   2.879  0.2030 -1.5780 -0.2360
54582SOL     OW72523   7.074  11.856   9.673  0.0666 -0.2346  0.3921
54582SOL    HW172524   7.098  11.896   9.589  0.4813 -0.2446  0.5031
54582SOL    HW272525   7.138  11.892   9.736 -0.2367 -0.2299  0.7020
54583SOL     OW72526   4.613   3.150  11.127  0.4722  0.5287 -0.1547
54583SOL    HW172527   4.684   3.126  11.068  0.3175  0.9265 -0.5026
54583SOL    HW272528   4.606   3.245  11.119 -1.2157  0.3425 -1.4233
54584SOL     OW72529  10.052   5.657  11.328  0.0429  0.2060  0.0688
54584SOL    HW172530  10.064   5.698  11.413 -1.9791 -0.0970  0.5506
54584SOL    HW272531  10.086   5.568  11.338  0.5419  0.4255  0.3093
54585SOL     OW72532   0.773   2.512   8.763  0.3250  0.0286  0.5782
54585SOL    HW172533   0.774   2.598   8.720 -2.6143 -0.3721 -0.5215
54585SOL    HW272534   0.863   2.480   8.754  0.5935  1.2827 -2.6627
54586SOL     OW72535   4.019   0.406   9.128  0.5091  0.6513  0.2532
54586SOL    HW172536   4.019   0.432   9.220 -2.2215 -2.3007  1.2638
54586SOL    HW272537   3.930   0.424   9.098  0.3148 -1.6774 -0.7160
54587SOL     OW72538   6.123   0.787   5.608  0.0442  0.1693 -0.4212
54587SOL    HW172539   6.074   0.828   5.680  1.6864  1.3430  0.0849
54587SOL    HW272540   6.161   0.708   5.647  0.3477  0.4249 -0.1969
54588SOL     OW72541  11.187   0.742   0.737  0.0963 -0.5221 -0.4111
54588SOL    HW172542  11.282   0.745   0.743  0.1144 -1.2732 -0.2280
54588SOL    HW272543  11.157   0.759   0.826  0.0526 -0.0916 -0.5073
54589SOL     OW72544   9.414   6.151   1.931  0.2092  0.0555 -0.7238
54589SOL    HW172545   9.443   6.099   1.856  0.2265 -1.6086  0.3630
54589SOL    HW272546   9.479   6.131   1.999 -1.2785 -0.6486  0.5463
54590SOL     OW72547   7.614   3.796   4.184 -0.0112 -0.5209 -0.2181
54590SOL    HW172548   7.550   3.734   4.219 -1.8431  0.7798 -1.1120
54590SOL    HW272549   7.576   3.882   4.201  2.3063  0.4092  0.6850
54591SOL     OW72550   0.139   4.668  11.457  0.0102  0.5679  0.1743
54591SOL    HW172551   0.112   4.749  11.500  0.1473  0.6390  0.1262
54591SOL    HW272552   0.227   4.685  11.425  0.8252 -0.2193  1.8559
54592SOL     OW72553  10.105   5.325   6.673  0.0283 -0.3333 -0.3041
54592SOL    HW172554  10.049   5.403   6.666  0.3770 -0.1505 -1.0941
54592SOL    HW272555  10.084   5.273   6.596  0.2846 -0.7017 -0.1252
54593SOL     OW72556  11.375  10.937   1.441 -0.0957  0.4816 -0.5447
54593SOL    HW172557  11.319  11.003   1.399 -0.1669  0.7964  0.0326
54593SOL    HW272558  11.363  10.952   1.535  0.1057 -0.1768 -0.4113
54594SOL     OW72559   4.424   1.543   3.524 -0.0090 -0.0138  0.2040
54594SOL    HW172560   4.388   1.466   3.570 -0.4451  0.1512  0.1418
54594SOL    HW272561   4.361   1.561   3.454 -0.8921  1.5040  1.3202
54595SOL     OW72562  11.554  11.042   0.904  0.3441 -0.2174 -0.1628
54595SOL    HW172563  11.617  11.087   0.961 -0.0410 -0.6872  0.6493
54595SOL    HW272564  11.553  10.952   0.936 -1.7197  0.0689  0.7339
54596SOL     OW72565   3.651   5.280   3.236 -0.2174  0.3492 -0.2556
54596SOL    HW172566   3.657   5.371   3.207  1.5738 -0.6982 -3.7738
54596SOL    HW272567   3.742   5.255   3.254 -0.5213 -1.0810 -0.6008
54597SOL     OW72568  10.674   5.066   0.513  1.2161 -0.5054 -0.2334
54597SOL    HW172569  10.600   5.054   0.454  0.9049 -0.8164  0.2134
54597SOL    HW272570  10.725   5.137   0.474  1.7636 -1.6150 -1.6326
54598SOL     OW72571   4.142   3.895   6.217 -0.4522  0.4010 -0.1164
54598SOL    HW172572   4.222   3.843   6.217 -0.1615  0.8448 -0.2707
54598SOL    HW272573   4.123   3.908   6.124 -0.1211  1.1869 -0.0746
54599SOL     OW72574   4.964   2.756   5.441 -0.5082  0.7931 -0.3106
54599SOL    HW172575   4.965   2.725   5.350  0.8227 -0.5811  0.1250
54599SOL    HW272576   4.987   2.848   5.435  3.3768 -0.0358 -1.2216
54600SOL     OW72577   7.924  11.741   4.856  0.5113 -0.7996 -0.1525
54600SOL    HW172578   7.957  11.672   4.798 -3.9525 -2.9226 -0.5904
54600SOL    HW272579   7.887  11.693   4.931 -0.5437  1.3399  0.7672
54601SOL     OW72580  12.010   8.851   0.448  0.3570  0.0742 -0.0649
54601SOL    HW172581  12.052   8.774   0.410  1.7932  1.4750 -1.4469
54601SOL    HW272582  12.069   8.923   0.428 -2.5277  2.1369 -1.8136
54602SOL     OW72583   3.867  11.164   8.570 -0.2921  0.3484  0.1938
54602SOL    HW172584   3.812  11.242   8.563 -1.7098 -0.3721  2.1388
54602SOL    HW272585   3.810  11.099   8.612  1.4968 -1.0440  0.5865
54603SOL     OW72586   5.294  10.347   1.353  0.1455  0.1943 -0.3838
54603SOL    HW172587   5.295  10.442   1.352  1.1284  0.2040  0.1342
54603SOL    HW272588   5.204  10.323   1.329 -0.0252  1.2372 -0.8258
54604SOL     OW72589   4.619   0.705  11.293  0.1057 -0.6131 -0.1625
54604SOL    HW172590   4.590   0.719  11.383  0.5374 -1.4077  0.1128
54604SOL    HW272591   4.670   0.624  11.296 -0.5206 -1.0804 -1.2666
54605SOL     OW72592   8.380   0.107   6.396  0.3597 -0.3258 -0.2795
54605SOL    HW172593   8.422   0.193   6.387  1.2718 -0.7931 -0.5143
54605SOL    HW272594   8.452   0.046   6.410 -0.3756 -0.8738  1.3120
54606SOL     OW72595   5.677  10.119   9.579  0.1382 -0.1230 -0.2615
54606SOL    HW172596   5.670  10.042   9.523  0.5184 -0.7060  0.4821
54606SOL    HW272597   5.589  10.132   9.613  0.2509 -0.7504  0.2872
54607SOL     OW72598   4.335   1.217  12.383  0.0606 -0.2597  0.3396
54607SOL    HW172599   4.412   1.257  12.343  1.0463 -1.3260  1.1038
54607SOL    HW272600   4.274   1.203  12.310  1.2430 -0.8795 -0.5637
54608SOL     OW72601   6.615   8.830   2.036 -0.8202 -0.0340 -0.6343
54608SOL    HW172602   6.581   8.883   1.964 -0.4383 -1.6125 -2.0556
54608SOL    HW272603   6.549   8.762   2.050  0.8172 -2.1194 -2.2842
54609SOL     OW72604   0.959   3.109   0.736 -0.1483 -0.1034  0.2518
54609SOL    HW172605   0.982   3.159   0.658 -0.2262 -0.9644 -0.3277
54609SOL    HW272606   0.865   3.095   0.729  0.2580 -2.8755 -1.1588
54610SOL     OW72607   4.744   3.669   4.388  0.0998 -0.1452  0.1121
54610SOL    HW172608   4.719   3.658   4.480  0.8411 -1.2153  0.2135
54610SOL    HW272609   4.834   3.638   4.384 -0.3940 -1.5535 -1.2476
54611SOL     OW72610   7.134   5.903   8.000 -0.4002 -0.0038 -0.1573
54611SOL    HW172611   7.058   5.847   8.014  0.0502 -1.3848 -2.6364
54611SOL    HW272612   7.207   5.855   8.038 -0.5185  0.7346  1.0798
54612SOL     OW72613   2.199   8.798   4.943 -1.0890  0.2042  0.2960
54612SOL    HW172614   2.285   8.810   4.985 -1.6956  1.0465  1.3377
54612SOL    HW272615   2.218   8.744   4.866  0.4802  0.8723  0.1625
54613SOL     OW72616   6.659  11.274   1.540 -0.1874 -0.0610 -0.0014
54613SOL    HW172617   6.612  11.207   1.490  0.8893  0.7548 -2.2355
54613SOL    HW272618   6.744  11.282   1.496  0.3325  1.6297  1.2026
54614SOL     OW72619   1.502   9.456   6.242  0.5768  1.0239  0.3561
54614SOL    HW172620   1.475   9.401   6.168 -1.1524  2.7647 -0.3799
54614SOL    HW272621   1.520   9.393   6.312  1.7249 -0.6499 -1.3256
54615SOL     OW72622   9.158  11.001  12.087 -0.2294 -0.3262  0.2134
54615SOL    HW172623   9.207  10.979  12.166 -0.2075 -0.2252  0.2282
54615SOL    HW272624   9.066  10.997  12.114 -0.1950  1.0393  0.6098
54616SOL     OW72625   0.591   5.331   7.459 -0.0090 -0.3954  0.1156
54616SOL    HW172626   0.650   5.354   7.387 -0.4719  0.4669  0.0014
54616SOL    HW272627   0.545   5.412   7.479 -0.7369 -0.9188  0.6008
54617SOL     OW72628   6.946   3.310  10.737  0.3337 -0.2724  0.4769
54617SOL    HW172629   7.013   3.245  10.716  1.5528  0.7323  1.1114
54617SOL    HW272630   6.995   3.385  10.771 -0.8302  1.7448 -1.9576
54618SOL     OW72631   2.001   4.653   5.079 -0.8691 -0.1292 -0.0709
54618SOL    HW172632   1.935   4.713   5.113  0.3207  1.0717  0.2022
54618SOL    HW272633   2.079   4.670   5.132  0.3765  0.2089 -1.8918
54619SOL     OW72634  11.147  10.962  12.168 -0.1624  0.3555 -0.4869
54619SOL    HW172635  11.218  11.023  12.185  0.8871 -1.2741  1.3477
54619SOL    HW272636  11.176  10.913  12.091 -1.2060  2.3378 -2.2391
54620SOL     OW72637   7.990   3.563  10.290  0.1158  0.2418  0.4264
54620SOL    HW172638   7.904   3.599  10.272 -0.3755 -0.4258  1.3319
54620SOL    HW272639   7.973   3.479  10.333  1.2070  0.2319  0.8960
54621SOL     OW72640   5.555   1.474  10.190 -0.5386  0.1791  0.9290
54621SOL    HW172641   5.562   1.454  10.096 -0.5491  0.6535  0.8233
54621SOL    HW272642   5.461   1.480  10.207 -0.5408  2.4186  0.4407
54622SOL     OW72643   9.171  11.428  10.928 -0.6178  0.6143 -0.0163
54622SOL    HW172644   9.254  11.454  10.967 -1.6062  1.6566  1.4726
54622SOL    HW272645   9.196  11.384  10.847  1.5875 -2.1041  1.9348
54623SOL     OW72646   1.201   8.622   6.959  0.1186 -0.0449 -0.5641
54623SOL    HW172647   1.281   8.581   6.991 -0.1970 -1.0182 -0.9805
54623SOL    HW272648   1.188   8.585   6.872 -0.4791  0.5374 -0.7313
54624SOL     OW72649   6.998   9.140  12.184  0.3269 -0.3807 -0.6219
54624SOL    HW172650   6.980   9.226  12.221  0.1716 -0.5076 -0.3984
54624SOL    HW272651   7.056   9.098  12.249  0.5851 -0.3592 -0.8361
54625SOL     OW72652   6.470  12.190   9.167 -0.1541  0.8267  0.6875
54625SOL    HW172653   6.495  12.205   9.258 -0.0698 -1.1273  1.0160
54625SOL    HW272654   6.428  12.104   9.167 -0.5088  0.9593 -1.0610
54626SOL     OW72655  11.749   8.276   9.813 -1.1476 -0.2851  0.0958
54626SOL    HW172656  11.691   8.218   9.763 -0.2607  0.9521 -2.5836
54626SOL    HW272657  11.690   8.332   9.863 -2.2507 -0.1098 -1.3291
54627SOL     OW72658   5.787   5.622   5.851 -0.4899  0.3020 -0.4551
54627SOL    HW172659   5.765   5.561   5.921 -0.2551  0.3519 -0.3392
54627SOL    HW272660   5.756   5.579   5.771 -2.2256  0.9379 -0.1674
54628SOL     OW72661   5.145   6.059   4.288 -0.1292  0.0667  0.3473
54628SOL    HW172662   5.103   6.089   4.369  1.7403  2.0134  0.6974
54628SOL    HW272663   5.116   6.121   4.222 -0.3795 -0.5584 -0.1382
54629SOL     OW72664   7.047   8.697   0.774 -0.4423 -0.8735  0.3689
54629SOL    HW172665   7.002   8.659   0.850  0.5815 -1.8775  0.4866
54629SOL    HW272666   7.137   8.711   0.804 -0.7895  1.8809  0.4005
54630SOL     OW72667   4.587   4.322   6.607 -0.7617  0.1324  0.0775
54630SOL    HW172668   4.595   4.238   6.651 -0.9406 -0.0044 -0.1502
54630SOL    HW272669   4.669   4.333   6.559 -0.9683 -0.1782 -0.3534
54631SOL     OW72670   0.115   8.154   2.935 -0.0926 -0.0529 -0.4482
54631SOL    HW172671   0.032   8.184   2.900  0.0961  0.5023 -0.4175
54631SOL    HW272672   0.149   8.228   2.985  0.8434  0.0388 -1.1866
54632SOL     OW72673   9.169   5.685   5.605 -0.0766 -0.1981 -0.3376
54632SOL    HW172674   9.221   5.634   5.667 -0.8734 -0.3167  0.2479
54632SOL    HW272675   9.143   5.763   5.653  1.9983  1.3490 -1.5386
54633SOL     OW72676   5.552   3.104   0.735 -0.1996 -0.3817  0.6730
54633SOL    HW172677   5.643   3.114   0.708 -0.3511 -0.1096  0.2544
54633SOL    HW272678   5.530   3.014   0.713 -0.3925 -0.0929 -0.3444
54634SOL     OW72679   2.488  11.690   0.147 -0.6235  0.0003 -0.6233
54634SOL    HW172680   2.559  11.642   0.104 -0.4008 -1.6862  1.4541
54634SOL    HW272681   2.533  11.758   0.198 -0.5105 -0.7330  0.2768
54635SOL     OW72682   6.045   0.569  11.192  0.6306  0.1998  0.0532
54635SOL    HW172683   6.010   0.481  11.210  0.2968  0.5432  1.1802
54635SOL    HW272684   6.104   0.587  11.265 -0.0462  1.2911  0.3626
54636SOL     OW72685   5.688   4.701   7.858  0.1191  0.7806 -0.1678
54636SOL    HW172686   5.599   4.684   7.889  0.5631  1.5334  1.5896
54636SOL    HW272687   5.676   4.763   7.785 -0.9417 -1.1877 -1.7703
54637SOL     OW72688   1.114   3.574   6.357 -0.2946  0.2092 -0.0963
54637SOL    HW172689   1.028   3.600   6.390 -0.1596 -0.2143  0.6037
54637SOL    HW272690   1.169   3.566   6.435  0.3212  0.2318 -0.5151
54638SOL     OW72691   0.742   3.044   9.312 -0.1459 -0.3195  0.6624
54638SOL    HW172692   0.829   3.005   9.296 -0.0235  0.7618 -1.8709
54638SOL    HW272693   0.708   3.061   9.224 -2.0823  1.1454  1.6393
54639SOL     OW72694   8.655   4.536   4.492  0.3862  0.4122 -0.0240
54639SOL    HW172695   8.618   4.479   4.425 -1.9511 -0.2292  1.6978
54639SOL    HW272696   8.594   4.610   4.498  1.4661  1.3232  0.2743
54640SOL     OW72697   8.638   3.578  10.547  0.1274  0.1376  0.6316
54640SOL    HW172698   8.590   3.518  10.490  0.1368  0.1321  0.6294
54640SOL    HW272699   8.611   3.552  10.636  0.3110 -0.0231  0.6414
54641SOL     OW72700   1.950   3.193  10.007 -0.2248  0.3413 -0.1791
54641SOL    HW172701   2.039   3.225  10.017 -0.0863 -0.4873  1.9210
54641SOL    HW272702   1.949   3.109  10.053 -1.7385 -0.3763 -1.4050
54642SOL     OW72703   8.056   4.142  12.359 -0.1525  0.1580 -0.0967
54642SOL    HW172704   8.127   4.092  12.318  0.7324  1.1105  0.2141
54642SOL    HW272705   7.976   4.101  12.327  0.5135  0.0474 -1.7628
54643SOL     OW72706   9.527   7.280   6.314  0.5023 -0.1247  0.0556
54643SOL    HW172707   9.622   7.275   6.301  0.3579 -1.2116 -0.7400
54643SOL    HW272708   9.506   7.203   6.367  0.2796  1.1068  1.8316
54644SOL     OW72709   5.745   7.109   9.463  0.1701  1.1346  0.4733
54644SOL    HW172710   5.803   7.121   9.538  1.0000  1.5809 -0.2181
54644SOL    HW272711   5.757   7.188   9.410  0.1438  0.5187 -0.4810
54645SOL     OW72712   0.712  10.232   8.991  0.6562  0.1178 -0.0066
54645SOL    HW172713   0.651  10.167   8.957  0.9556  0.3361 -1.0141
54645SOL    HW272714   0.757  10.188   9.062 -1.1029  0.1536  1.1888
54646SOL     OW72715  11.467   4.138   3.245 -0.5620 -0.3015  0.6585
54646SOL    HW172716  11.512   4.139   3.329 -0.2172  1.1615  0.4750
54646SOL    HW272717  11.379   4.172   3.264  0.1506  1.9872  0.1259
54647SOL     OW72718   7.771  11.880   3.201  0.8440  0.0129 -0.2268
54647SOL    HW172719   7.745  11.942   3.269 -2.1752  0.1544 -1.3709
54647SOL    HW272720   7.834  11.822   3.244  1.4873  2.0187  1.7201
54648SOL     OW72721   3.862   6.276   8.172 -0.2092  0.0615 -0.0282
54648SOL    HW172722   3.894   6.195   8.211 -1.5354 -0.4963 -0.0600
54648SOL    HW272723   3.934   6.305   8.115  0.7914 -0.3760  0.9697
54649SOL     OW72724   7.525  11.701  12.488 -0.5230 -0.4175  0.3064
54649SOL    HW172725   7.599  11.759  12.469  0.5451 -2.4592 -2.3561
54649SOL    HW272726   7.455  11.731  12.430 -1.2087  0.3719  1.5060
54650SOL     OW72727   2.255   8.967   8.989 -0.0986  0.0007  0.3382
54650SOL    HW172728   2.197   8.948   9.063 -1.6173  0.2869 -0.7320
54650SOL    HW272729   2.196   8.974   8.913  1.3151  0.5331 -0.7586
54651SOL     OW72730   1.015   6.974   1.295  0.2205 -0.2141 -0.4078
54651SOL    HW172731   0.970   6.923   1.227 -0.5312 -0.6054  0.3657
54651SOL    HW272732   0.947   6.993   1.360  1.3632 -1.8028  1.3631
54652SOL     OW72733   8.548  11.229   4.310  0.1320 -0.3685  0.0105
54652SOL    HW172734   8.453  11.220   4.314 -0.0358  1.2620  0.4696
54652SOL    HW272735   8.576  11.225   4.402  0.4700 -0.4339 -0.0948
54653SOL     OW72736  11.139  11.472   3.154  0.6694 -0.4846 -0.0642
54653SOL    HW172737  11.115  11.544   3.095 -0.3890 -0.8185 -0.0556
54653SOL    HW272738  11.161  11.515   3.236 -0.5453 -0.2061  0.1202
54654SOL     OW72739   2.820   7.543   7.495 -0.4312 -0.2854  0.1108
54654SOL    HW172740   2.799   7.623   7.448  2.0757  0.0886 -0.5278
54654SOL    HW272741   2.901   7.563   7.542 -0.6861 -1.9244  1.3320
54655SOL     OW72742   5.333   0.317   7.827 -0.2605  0.0394 -0.3154
54655SOL    HW172743   5.298   0.228   7.817 -0.9609  0.4442 -1.7971
54655SOL    HW272744   5.261   0.367   7.864  0.2843 -0.0753  0.9665
54656SOL     OW72745   7.377   9.425  12.185 -0.6610  0.0026  0.0544
54656SOL    HW172746   7.404   9.452  12.097  0.2721 -1.1564 -0.0446
54656SOL    HW272747   7.448   9.456  12.242 -0.7990 -0.0668  0.2626
54657SOL     OW72748   0.024   5.032  12.016  0.1295 -0.0707 -0.0707
54657SOL    HW172749   0.014   5.126  12.029  0.2280  0.0057 -0.5511
54657SOL    HW272750   0.031   4.997  12.105 -2.2601  0.1038  0.2501
54658SOL     OW72751   7.669   5.383   2.459 -0.9187  0.3220  0.4104
54658SOL    HW172752   7.731   5.353   2.525 -0.3527 -0.6045 -0.5117
54658SOL    HW272753   7.583   5.373   2.500 -0.7130 -2.0319  0.3576
54659SOL     OW72754   2.055   9.727  11.488 -0.1194 -0.1202  0.3768
54659SOL    HW172755   2.008   9.645  11.475 -0.8043  0.6603 -2.7214
54659SOL    HW272756   2.148   9.703  11.484 -0.3063 -0.8133  0.0941
54660SOL     OW72757   4.305   2.992   0.605  0.2936 -0.3012  0.2382
54660SOL    HW172758   4.316   3.057   0.674 -0.3667  0.5776 -0.4522
54660SOL    HW272759   4.357   3.026   0.532  0.4729 -0.8856  0.0936
54661SOL     OW72760   1.934   2.032   6.781  0.0050  0.3261  0.2166
54661SOL    HW172761   1.882   1.952   6.782  1.2352 -0.5116  0.3369
54661SOL    HW272762   1.885   2.094   6.834 -1.5224  0.0358 -0.7982
54662SOL     OW72763  11.921  11.122   0.584  0.1113  0.0678 -0.4740
54662SOL    HW172764  11.827  11.109   0.577  0.1263 -0.8460  0.7839
54662SOL    HW272765  11.937  11.135   0.677  1.2334  0.1675 -0.6663
54663SOL     OW72766  12.261  11.254   6.606 -0.4891 -0.4023 -0.0116
54663SOL    HW172767  12.323  11.262   6.678  1.0862  1.4990 -1.4631
54663SOL    HW272768  12.200  11.327   6.618  0.1256  0.2702 -0.8811
54664SOL     OW72769   0.895   4.339   2.883  0.6572 -0.0854  0.3798
54664SOL    HW172770   0.854   4.417   2.845  2.4278  1.4744  1.5269
54664SOL    HW272771   0.837   4.313   2.954 -0.3941 -0.3947 -0.5575
54665SOL     OW72772   4.438   6.950   9.631 -0.3815 -0.1374 -0.1616
54665SOL    HW172773   4.505   6.882   9.628 -0.8038 -0.5272 -1.2838
54665SOL    HW272774   4.413   6.963   9.540 -2.3501 -0.5215  0.2699
54666SOL     OW72775  10.962   6.418   5.210 -0.2236  0.2146  0.3563
54666SOL    HW172776  10.873   6.416   5.173 -0.0689  1.0262 -0.0957
54666SOL    HW272777  10.952   6.460   5.295 -0.2102  0.7996  0.0779
54667SOL     OW72778   0.237   3.168   8.210 -0.2662  0.3581 -0.4375
54667SOL    HW172779   0.252   3.076   8.188 -1.3706  0.2771 -0.9539
54667SOL    HW272780   0.306   3.191   8.271 -0.2720 -0.9598  0.0800
54668SOL     OW72781   2.356   5.362   4.428  0.1024 -0.0407  0.4900
54668SOL    HW172782   2.353   5.273   4.394  1.2338 -0.7792  2.1942
54668SOL    HW272783   2.266   5.381   4.454 -0.1377 -0.6878  0.1491
54669SOL     OW72784   8.904   4.043   1.145  0.1345 -0.4041  0.1348
54669SOL    HW172785   8.959   4.022   1.220  0.4522  0.6052  0.1987
54669SOL    HW272786   8.832   4.095   1.181 -0.6968 -1.4256 -0.0016
54670SOL     OW72787  12.087   9.726   8.307  0.3111  0.0005 -0.1916
54670SOL    HW172788  11.998   9.722   8.340  0.3686 -2.0670 -0.1607
54670SOL    HW272789  12.077   9.750   8.215 -0.3695 -1.3603 -0.4859
54671SOL     OW72790  10.405  10.327   9.838  0.0020  0.6400 -0.3611
54671SOL    HW172791  10.488  10.351   9.795  0.2635  0.1725 -0.1196
54671SOL    HW272792  10.430  10.303   9.927 -0.1448 -1.2177 -0.7800
54672SOL     OW72793   7.271   6.972   8.861 -0.0756 -0.6218  0.0804
54672SOL    HW172794   7.271   6.884   8.898  0.9744 -0.8252 -0.3689
54672SOL    HW272795   7.262   6.958   8.766 -0.0924 -0.2367  0.0239
54673SOL     OW72796   2.201   8.618   3.890  0.7883 -0.1083  0.3405
54673SOL    HW172797   2.129   8.655   3.838  0.9117  0.7472  0.7590
54673SOL    HW272798   2.279   8.664   3.859  0.8478  0.4986  1.3339
54674SOL     OW72799   5.601   5.522   9.538  0.3576 -0.1025  0.1959
54674SOL    HW172800   5.610   5.502   9.631 -0.0385  1.8669  0.6973
54674SOL    HW272801   5.532   5.463   9.507 -0.1564 -0.1496  1.3761
54675SOL     OW72802   8.024   2.632   0.444 -0.1597 -0.2788 -0.4731
54675SOL    HW172803   7.944   2.590   0.410  0.5829 -1.3068 -1.0286
54675SOL    HW272804   8.087   2.623   0.372  1.6764 -3.0634  1.2744
54676SOL     OW72805  12.310   1.909   6.422  0.1699  0.3231 -0.1449
54676SOL    HW172806  12.275   1.976   6.479 -0.3710  0.0804 -0.1854
54676SOL    HW272807  12.347   1.843   6.482 -1.2332 -0.3930 -0.0176
54677SOL     OW72808  11.589   7.722   4.319 -0.5277 -0.3287 -0.4272
54677SOL    HW172809  11.678   7.753   4.338  0.9811 -5.0556  1.7502
54677SOL    HW272810  11.602   7.648   4.260 -3.4404  0.5475 -2.3813
54678SOL     OW72811  11.064   0.553   8.899  0.5853  0.2202 -0.4648
54678SOL    HW172812  11.062   0.521   8.989  0.9024 -0.0667 -0.5567
54678SOL    HW272813  11.077   0.648   8.907  0.9701  0.1481 -0.2139
54679SOL     OW72814   4.083   2.016   7.786 -0.5085  0.1092  0.3736
54679SOL    HW172815   4.115   1.998   7.874 -1.1583 -0.2657  0.5420
54679SOL    HW272816   4.136   2.090   7.755  0.3224 -0.3324  0.7311
54680SOL     OW72817   3.668  11.548  10.477 -0.2635  0.1059  0.1319
54680SOL    HW172818   3.696  11.461  10.447 -1.7962 -0.9774  1.6840
54680SOL    HW272819   3.614  11.581  10.405  0.7846  0.0324 -0.7088
54681SOL     OW72820   7.980   7.472   9.312  0.2550 -0.7258  0.4095
54681SOL    HW172821   7.950   7.382   9.303  3.2624 -1.6001 -2.9942
54681SOL    HW272822   8.061   7.465   9.362  0.1850  0.1976  0.6661
54682SOL     OW72823   3.255  10.217   3.622  0.4950  0.0942  0.0857
54682SOL    HW172824   3.175  10.233   3.572  1.2799  2.1418 -0.6245
54682SOL    HW272825   3.319  10.278   3.585  2.3252 -1.2736  0.8158
54683SOL     OW72826  11.490  11.656  11.787  0.7113 -0.4129  0.3915
54683SOL    HW172827  11.421  11.706  11.831  0.0884  0.2237 -1.2300
54683SOL    HW272828  11.572  11.701  11.812  0.3832 -0.0926  0.9136
54684SOL     OW72829  11.989   0.618   4.159  0.0205 -0.2008  0.2301
54684SOL    HW172830  12.009   0.647   4.070  0.8803  0.2793  0.5671
54684SOL    HW272831  11.935   0.540   4.148  0.0604 -0.1003 -0.7074
54685SOL     OW72832  12.110   0.293   5.537  0.1590  0.2273 -0.3948
54685SOL    HW172833  12.147   0.335   5.459  0.3899  0.2085 -0.2974
54685SOL    HW272834  12.156   0.208   5.542  0.0285  0.1608 -0.3311
54686SOL     OW72835   6.664   9.242   8.574  0.3186  0.2002  0.6743
54686SOL    HW172836   6.753   9.206   8.577  0.4263  0.4891  1.0362
54686SOL    HW272837   6.655   9.289   8.656 -0.4856 -0.5417  1.0186
54687SOL     OW72838   3.033   8.165   8.182  0.3287 -0.6277 -0.2411
54687SOL    HW172839   2.987   8.159   8.265 -0.8272 -0.4303 -0.8441
54687SOL    HW272840   3.112   8.112   8.194  1.3094  1.1209  1.6816
54688SOL     OW72841   9.444   3.757   5.045  0.3622 -0.0949  0.7353
54688SOL    HW172842   9.493   3.836   5.024  0.4857 -0.5578 -0.8139
54688SOL    HW272843   9.374   3.788   5.103  0.1013  1.2499 -0.2384
54689SOL     OW72844   3.188   5.699  11.212 -0.0897  0.1328 -0.0764
54689SOL    HW172845   3.181   5.678  11.305 -0.6008  1.3320  0.1760
54689SOL    HW272846   3.171   5.793  11.207 -0.7793 -0.0343 -1.4645
54690SOL     OW72847   5.898   6.506   2.546  0.3803 -0.0966 -0.3342
54690SOL    HW172848   5.834   6.441   2.517 -0.9504 -0.0908  2.2813
54690SOL    HW272849   5.942   6.533   2.466 -2.6166 -0.4129 -2.2680
54691SOL     OW72850   9.074   2.313   6.342 -0.5668  0.1211 -0.2523
54691SOL    HW172851   9.098   2.374   6.412  0.5320  0.5077 -0.9337
54691SOL    HW272852   9.082   2.365   6.262 -0.9075 -0.5635 -0.7408
54692SOL     OW72853   7.239   2.642   7.661 -0.5500 -0.1629 -0.0682
54692SOL    HW172854   7.243   2.559   7.708  0.9390  0.2285  0.5539
54692SOL    HW272855   7.235   2.709   7.729 -0.1842  0.3372 -0.5170
54693SOL     OW72856  11.163   3.876   6.404 -0.2500 -0.1339 -0.4692
54693SOL    HW172857  11.185   3.833   6.321  1.0620 -0.0021 -0.2137
54693SOL    HW272858  11.154   3.805   6.467 -0.3554 -0.1764 -0.5325
54694SOL     OW72859   7.206   6.431  11.804  0.6791 -0.3378  0.0180
54694SOL    HW172860   7.133   6.390  11.850  0.9535 -0.1977  0.5786
54694SOL    HW272861   7.244   6.360  11.751  0.2787 -0.4630 -0.1089
54695SOL     OW72862   8.562   7.734   0.153 -0.3640  0.0667  0.2060
54695SOL    HW172863   8.577   7.744   0.059  0.8681  0.1069  0.3908
54695SOL    HW272864   8.640   7.688   0.186 -0.3724  0.8207  1.3472
54696SOL     OW72865   2.617   9.050   0.940  0.1546 -0.0013  0.6298
54696SOL    HW172866   2.587   9.113   1.005  1.5489  3.2072 -1.5802
54696SOL    HW272867   2.536   9.009   0.908 -1.1506  2.3453  0.6409
54697SOL     OW72868  10.774   2.405   5.451 -0.0763  0.3480  0.7178
54697SOL    HW172869  10.826   2.422   5.372  0.1472  0.3717  0.8706
54697SOL    HW272870  10.688   2.443   5.431  0.9587  3.6906  1.8392
54698SOL     OW72871   3.677   8.873   5.655 -0.1360 -0.2135  0.1971
54698SOL    HW172872   3.686   8.783   5.623 -0.3474  0.2393 -1.1732
54698SOL    HW272873   3.586   8.878   5.686 -0.1771 -0.4183  0.1124
54699SOL     OW72874   7.853   3.047   6.460 -0.3185  0.3323 -0.0363
54699SOL    HW172875   7.777   3.017   6.410  0.3796 -0.9055 -0.3933
54699SOL    HW272876   7.928   3.016   6.409  0.4176  0.7700  0.7691
54700SOL     OW72877  11.802   1.089   7.793  0.4840 -0.3791  0.6203
54700SOL    HW172878  11.892   1.088   7.762  0.0620  0.2842 -0.7079
54700SOL    HW272879  11.796   1.166   7.850  1.0263 -1.0744  1.6448
54701SOL     OW72880   2.728   2.025   9.981 -0.1865 -0.1452  0.0913
54701SOL    HW172881   2.785   1.973  10.037  0.4144 -0.5802 -0.8947
54701SOL    HW272882   2.781   2.100   9.955 -0.6863  0.4027  0.6297
54702SOL     OW72883   9.971   5.632   9.574 -0.2476  0.2699 -0.7825
54702SOL    HW172884   9.890   5.589   9.602 -0.9011  1.8076 -0.1700
54702SOL    HW272885  10.036   5.562   9.571 -1.3924 -0.8446 -0.4014
54703SOL     OW72886  10.411   3.258   5.296  0.2785  0.0094  0.3133
54703SOL    HW172887  10.481   3.300   5.246 -1.1199 -0.1020 -1.9102
54703SOL    HW272888  10.456   3.210   5.365  2.4053 -0.2037 -1.1191
54704SOL     OW72889   5.443  12.469   5.192 -0.2762 -0.1571 -0.2880
54704SOL    HW172890   5.468  12.385   5.231 -2.5344 -0.4837  0.6217
54704SOL    HW272891   5.518  12.526   5.210  0.2526 -1.2857  1.4147
54705SOL     OW72892   0.507   0.287  11.313 -0.2829  0.2304  0.1388
54705SOL    HW172893   0.525   0.369  11.359  1.0407 -0.4939  0.9874
54705SOL    HW272894   0.505   0.221  11.383  0.3587 -0.6921 -0.6917
54706SOL     OW72895   2.142  12.400   2.869 -0.3307  0.5628  0.1064
54706SOL    HW172896   2.139  12.438   2.781 -0.1004  2.3686  0.8416
54706SOL    HW272897   2.143  12.306   2.854  1.3001  0.8260 -1.8889
54707SOL     OW72898   5.905   7.456  11.820  0.0648  0.1882  0.3300
54707SOL    HW172899   5.894   7.469  11.726 -1.2786 -0.9887  0.2928
54707SOL    HW272900   5.819   7.477  11.857  0.2303 -0.5449  1.1479
54708SOL     OW72901  12.180   2.275   8.228 -0.9062 -0.0374 -0.2419
54708SOL    HW172902  12.203   2.186   8.255  0.1963  0.2397 -0.2001
54708SOL    HW272903  12.163   2.268   8.134 -1.5459 -0.4207 -0.0989
54709SOL     OW72904   2.999  11.077   8.967 -0.4327  0.4515 -0.2646
54709SOL    HW172905   3.028  11.021   9.039  0.8152  0.4087 -0.7720
54709SOL    HW272906   2.904  11.071   8.968 -0.3473 -1.6294 -0.2603
54710SOL     OW72907   4.676   6.357   4.656  0.0296 -0.7182  0.0082
54710SOL    HW172908   4.707   6.327   4.741 -0.7144  0.1801  0.6131
54710SOL    HW272909   4.736   6.428   4.633 -1.1567  0.6062  0.8913
54711SOL     OW72910   4.606   7.865   9.233 -0.3378 -0.1181  0.5302
54711SOL    HW172911   4.692   7.903   9.248 -0.8275  1.1037  0.3897
54711SOL    HW272912   4.603   7.788   9.289  0.3944  0.5171  1.4689
54712SOL     OW72913   1.477   6.203   5.781 -1.0287 -0.1577  0.8036
54712SOL    HW172914   1.539   6.244   5.720  0.1322 -2.7140  0.1315
54712SOL    HW272915   1.403   6.263   5.784 -0.2090  1.0857 -1.5090
54713SOL     OW72916   6.525   2.109  10.857  0.3483 -0.2516 -0.1608
54713SOL    HW172917   6.589   2.180  10.861  1.1864 -1.0478  1.5903
54713SOL    HW272918   6.545   2.064  10.775  1.9676 -0.3759  0.2506
54714SOL     OW72919   3.053   6.191   3.514 -0.2667  0.1242  0.3312
54714SOL    HW172920   3.132   6.173   3.463 -1.6098  0.8371 -2.1788
54714SOL    HW272921   3.011   6.263   3.468 -2.0664  0.1875  1.9638
54715SOL     OW72922   7.095   0.446  10.580  0.4719  0.0424  0.0499
54715SOL    HW172923   7.177   0.397  10.582  2.5759  3.2264  2.1437
54715SOL    HW272924   7.059   0.436  10.668  1.5266  2.8634  0.9138
54716SOL     OW72925   3.422   4.394   9.256 -0.5683  0.0275 -0.3035
54716SOL    HW172926   3.375   4.478   9.254 -2.2233 -0.6534  3.0085
54716SOL    HW272927   3.371   4.337   9.199 -0.4640  0.7923 -1.1806
54717SOL     OW72928   3.323  11.225   2.009  0.3629  0.1777  0.2489
54717SOL    HW172929   3.250  11.170   1.981  1.4691 -0.7950 -0.7959
54717SOL    HW272930   3.301  11.312   1.976  0.8914 -0.6325 -2.4296
54718SOL     OW72931  12.532   6.104   3.965  0.9049  0.2618  0.4704
54718SOL    HW172932  12.448   6.059   3.960  1.1665 -0.2224  0.2778
54718SOL    HW272933  12.552   6.126   3.874  1.0500  0.2436  0.4980
54719SOL     OW72934   3.382   4.141   6.826  0.3519  0.0723  0.0648
54719SOL    HW172935   3.399   4.070   6.889  1.3548  0.0155 -0.2502
54719SOL    HW272936   3.464   4.150   6.777  0.9008  2.6843  1.3040
54720SOL     OW72937  11.043   0.105   9.770 -0.2469 -0.0483 -0.1775
54720SOL    HW172938  11.105   0.174   9.744  0.0644  0.0089  0.6814
54720SOL    HW272939  11.098   0.029   9.788 -0.3188  0.2309  1.3762
54721SOL     OW72940   8.805   5.681   8.983 -0.2021  0.1930 -0.4649
54721SOL    HW172941   8.713   5.678   9.012 -0.7396 -0.4055 -2.0793
54721SOL    HW272942   8.848   5.741   9.043 -1.4034 -0.3843  1.0285
54722SOL     OW72943   3.927   9.627   4.602 -0.3814 -0.2016 -0.1694
54722SOL    HW172944   3.994   9.604   4.538 -0.7093 -0.7382 -0.3227
54722SOL    HW272945   3.870   9.689   4.556 -0.5295 -0.4694 -0.3496
54723SOL     OW72946  11.584   1.567  12.114  0.4654  0.0641 -0.9673
54723SOL    HW172947  11.553   1.559  12.024 -0.3719 -0.6971 -0.6217
54723SOL    HW272948  11.536   1.641  12.150 -0.2781 -0.5253 -0.7209
54724SOL     OW72949  10.465   3.138   7.074 -0.7381  0.0628 -0.4000
54724SOL    HW172950  10.506   3.202   7.132  0.0756  1.2948 -2.2582
54724SOL    HW272951  10.380   3.119   7.114 -0.2189  0.8803  1.1496
54725SOL     OW72952   4.125   4.670  11.121 -0.0597  0.3203  0.2984
54725SOL    HW172953   4.211   4.668  11.078 -0.5942  0.4520 -0.8123
54725SOL    HW272954   4.117   4.583  11.160  0.4248  0.1823  0.1080
54726SOL     OW72955   9.305   4.331   5.455  0.2186 -0.2607  0.2629
54726SOL    HW172956   9.226   4.365   5.496  0.5432  0.6144  0.1842
54726SOL    HW272957   9.282   4.242   5.429 -1.4319  0.6264 -1.6143
54727SOL     OW72958   6.241  12.266  12.494  0.1188  0.1097  0.2313
54727SOL    HW172959   6.273  12.242  12.407 -0.0218 -1.6947  0.6439
54727SOL    HW272960   6.155  12.306  12.477 -1.1047 -2.5240 -0.3801
54728SOL     OW72961  11.953   7.362  11.160 -0.0821  0.3838 -0.1428
54728SOL    HW172962  12.014   7.323  11.222 -0.2793 -0.0318 -0.2049
54728SOL    HW272963  11.888   7.408  11.214 -0.4793 -0.3077 -0.0178
54729SOL     OW72964   3.912  12.206   7.410 -0.4457 -0.1150  0.0155
54729SOL    HW172965   3.875  12.245   7.331  0.5645  0.7629 -0.0462
54729SOL    HW272966   3.906  12.275   7.476  0.1233 -0.3174  0.2823
54730SOL     OW72967   7.406  11.966  10.506 -0.5345  0.0472 -0.8154
54730SOL    HW172968   7.322  11.924  10.490 -0.5288  0.1680 -1.1774
54730SOL    HW272969   7.429  12.007  10.422  0.1355 -0.4353 -0.8838
54731SOL     OW72970   8.218   5.973  10.573  0.3572 -0.1411  0.0512
54731SOL    HW172971   8.270   5.954  10.651 -0.3913  2.0332  1.1551
54731SOL    HW272972   8.179   6.058  10.590 -0.4789  0.0448 -2.3962
54732SOL     OW72973   2.747   3.560   1.982  0.2027  0.1250 -0.1529
54732SOL    HW172974   2.716   3.632   2.037 -0.8963  0.1879 -0.8218
54732SOL    HW272975   2.824   3.527   2.027  0.7403  1.7209  0.1684
54733SOL     OW72976   0.832   3.719  11.109 -0.1179  0.3138 -0.1721
54733SOL    HW172977   0.830   3.694  11.017 -1.9396  1.2641 -0.4538
54733SOL    HW272978   0.761   3.669  11.149  1.0736 -0.5827  0.8781
54734SOL     OW72979  10.481   5.674   5.425  0.4056  0.1764  0.4436
54734SOL    HW172980  10.505   5.703   5.337 -2.0853 -0.4759 -0.5362
54734SOL    HW272981  10.526   5.591   5.436  0.5344  0.1359 -0.3276
54735SOL     OW72982  12.078   1.562   3.945  0.0525  0.3407  0.3328
54735SOL    HW172983  12.157   1.600   3.907 -0.4143 -0.0554 -1.0714
54735SOL    HW272984  12.016   1.635   3.949 -0.8874 -0.1712 -2.4805
54736SOL     OW72985   6.823   7.437   8.508 -0.2770 -0.0554 -0.3271
54736SOL    HW172986   6.864   7.460   8.591  2.0441 -0.5905 -1.2448
54736SOL    HW272987   6.811   7.342   8.513  1.5672 -0.3778 -1.2486
54737SOL     OW72988  12.580   6.773  10.568 -0.7500  0.4095 -0.0406
54737SOL    HW172989  12.646   6.833  10.604 -0.1859 -1.2749  1.9903
54737SOL    HW272990  12.624   6.728  10.496  1.4453 -2.5027  2.8162
54738SOL     OW72991   5.686   3.223   4.880 -0.4475 -0.3435  0.0798
54738SOL    HW172992   5.771   3.265   4.894  0.1528 -1.7630  1.0954
54738SOL    HW272993   5.641   3.232   4.964 -0.8213 -0.6003 -0.0887
54739SOL     OW72994   0.236   6.763   9.598  0.2383 -0.1357 -0.2042
54739SOL    HW172995   0.312   6.786   9.652  0.5152 -0.2293 -0.5526
54739SOL    HW272996   0.263   6.781   9.508 -0.9461  2.0736 -0.2040
54740SOL     OW72997  12.305   5.333   8.515 -0.3407 -0.1343 -0.0837
54740SOL    HW172998  12.348   5.338   8.429 -1.1310  0.0649 -0.4746
54740SOL    HW272999  12.374   5.356   8.577  0.4001 -0.8561 -0.6125
54741SOL     OW73000  10.238   9.083  12.386  0.1774  0.7037 -0.2915
54741SOL    HW173001  10.143   9.078  12.370  0.0023 -0.8393  0.9226
54741SOL    HW273002  10.248   9.154  12.450 -0.1899  0.7119 -0.2404
54742SOL     OW73003   3.549  11.530   1.970  0.2938  0.1313  0.6003
54742SOL    HW173004   3.560  11.570   2.056 -1.9831 -0.6867  1.3277
54742SOL    HW273005   3.457  11.505   1.966  0.5171 -0.5749 -1.7769
54743SOL     OW73006   8.055   6.373   2.841 -0.6366  0.8930 -0.3148
54743SOL    HW173007   8.098   6.377   2.926 -0.7800  2.5121 -0.2966
54743SOL    HW273008   8.121   6.402   2.778 -0.9827  1.1262 -0.5767
54744SOL     OW73009   9.530   0.113  10.617 -0.2413  0.1861  0.0385
54744SOL    HW173010   9.605   0.061  10.588 -0.3115 -0.8666  1.5887
54744SOL    HW273011   9.480   0.129  10.537  0.2959 -1.3340 -0.6433
54745SOL     OW73012   6.757  11.488  10.347 -1.1900  0.2697 -0.5345
54745SOL    HW173013   6.788  11.567  10.390  2.5634 -1.1279 -0.3514
54745SOL    HW273014   6.729  11.431  10.418  1.7410 -0.7065 -0.0264
54746SOL     OW73015   1.058   3.779   0.552  0.3043  0.4157  0.1427
54746SOL    HW173016   1.121   3.802   0.620  0.4109  0.2516  0.0978
54746SOL    HW273017   1.016   3.862   0.530  2.4733  1.0933 -1.8529
54747SOL     OW73018   9.284  11.975   0.862  0.3323 -0.3310  0.1356
54747SOL    HW173019   9.189  11.971   0.851  0.0870  3.7409 -0.6767
54747SOL    HW273020   9.296  12.003   0.953  0.7315 -0.1667  0.0344
54748SOL     OW73021   4.857   6.361   1.975 -0.2055 -0.1866 -0.2336
54748SOL    HW173022   4.845   6.455   1.976  0.5547 -0.0844  0.5774
54748SOL    HW273023   4.942   6.347   2.017  0.8785 -1.0774 -2.5613
54749SOL     OW73024  11.358   5.825   7.802  0.1137 -0.2826  0.2670
54749SOL    HW173025  11.307   5.745   7.815  0.5987 -0.6549 -0.1121
54749SOL    HW273026  11.435   5.797   7.753  0.8922  0.2042  1.1824
54750SOL     OW73027  10.308   7.389   2.652  0.2630 -0.8740  0.0925
54750SOL    HW173028  10.270   7.455   2.594 -1.4779 -1.3069  0.6733
54750SOL    HW273029  10.276   7.305   2.617  0.6591 -1.2574  0.6276
54751SOL     OW73030   4.336   3.699   9.981 -0.4461  0.4789  0.6530
54751SOL    HW173031   4.359   3.789   9.960  1.2827  0.0052  0.3807
54751SOL    HW273032   4.410   3.647   9.950 -1.6743 -1.1065  0.2513
54752SOL     OW73033   5.540   1.053   9.236 -0.6854 -0.2182  0.3379
54752SOL    HW173034   5.519   1.062   9.329 -1.6723 -2.1855  0.3510
54752SOL    HW273035   5.499   1.130   9.195 -2.7931 -0.8045  1.1917
54753SOL     OW73036   1.209   6.521   6.042 -0.5907  0.0916  0.5106
54753SOL    HW173037   1.210   6.557   6.131 -1.0978 -2.8209  1.7938
54753SOL    HW273038   1.121   6.484   6.033  0.3577 -2.1130 -0.1187
54754SOL     OW73039   2.856   9.457   6.581 -0.0577  0.8657  0.0541
54754SOL    HW173040   2.817   9.521   6.521  0.6856  2.0728  0.8186
54754SOL    HW273041   2.945   9.445   6.548  0.1322  1.0149  0.4977
54755SOL     OW73042   9.151   6.937   8.238  0.9542 -0.3588  0.2306
54755SOL    HW173043   9.074   6.956   8.291  2.6089  0.1273  2.6207
54755SOL    HW273044   9.148   6.843   8.224  0.3666 -0.4658  1.0260
54756SOL     OW73045   0.664   8.046   7.888 -0.2473  0.4823  0.1188
54756SOL    HW173046   0.579   8.087   7.908 -1.3227 -0.8434 -1.5139
54756SOL    HW273047   0.676   8.060   7.794  0.2966 -1.2227 -0.0936
54757SOL     OW73048  10.780  11.129   5.514  0.0621 -0.4761 -0.4362
54757SOL    HW173049  10.851  11.168   5.564  0.2547 -1.4826  0.1076
54757SOL    HW273050  10.740  11.066   5.574  0.1277 -1.5225 -1.4404
54758SOL     OW73051   3.651   2.281  10.699 -0.3595 -0.4034  0.1124
54758SOL    HW173052   3.612   2.310  10.782  0.1384 -0.4466  0.3668
54758SOL    HW273053   3.576   2.251  10.647 -1.0885  2.4871 -0.6863
54759SOL     OW73054   4.174  10.357   3.802  0.2804 -0.1456  0.1913
54759SOL    HW173055   4.153  10.421   3.733  0.5076 -0.6001 -0.3085
54759SOL    HW273056   4.089  10.338   3.843  0.4687  2.1438  1.8640
54760SOL     OW73057   8.982   0.626   4.248  0.3959  0.2226  0.2148
54760SOL    HW173058   9.037   0.653   4.174  0.6700  1.2898  0.7918
54760SOL    HW273059   9.020   0.670   4.324 -0.7075  0.2389  0.7821
54761SOL     OW73060   3.410   9.249   6.960  0.2159 -0.2553 -0.1670
54761SOL    HW173061   3.422   9.338   6.927  0.2111  0.1706  0.9502
54761SOL    HW273062   3.478   9.238   7.026 -0.7260 -0.5235  0.7899
54762SOL     OW73063   8.189   0.938   9.009 -1.1881  0.0670 -0.0644
54762SOL    HW173064   8.170   0.852   8.971 -0.3494 -0.5899  0.9403
54762SOL    HW273065   8.185   0.999   8.935  0.5979 -1.1970 -1.2847
54763SOL     OW73066   2.654   9.347   6.001 -0.5417  0.3644 -0.1287
54763SOL    HW173067   2.604   9.348   6.082 -0.3322  1.4685 -0.0015
54763SOL    HW273068   2.594   9.381   5.934  0.0050  1.6792  0.0231
54764SOL     OW73069   0.914   8.180   5.021  0.5943  0.1338 -0.3854
54764SOL    HW173070   0.978   8.109   5.022 -0.0245 -0.4592  1.8009
54764SOL    HW273071   0.846   8.153   5.083 -0.1001  2.2367 -0.1321
54765SOL     OW73072   7.812   5.340   0.760  0.5002 -0.1596  0.2813
54765SOL    HW173073   7.809   5.403   0.832 -0.2141 -1.4213  1.4108
54765SOL    HW273074   7.734   5.359   0.708 -0.0608 -0.5000  0.9809
54766SOL     OW73075   8.152   5.334   4.464 -0.3074  0.0540  0.6442
54766SOL    HW173076   8.065   5.294   4.472  0.4865 -1.9206  0.0731
54766SOL    HW273077   8.167   5.341   4.369  0.5286 -0.5420  0.7185
54767SOL     OW73078   1.099   3.232   1.952 -0.0584  0.0523 -0.0303
54767SOL    HW173079   1.107   3.211   2.045  1.7032  0.7347  0.0018
54767SOL    HW273080   1.006   3.251   1.940 -0.2133  0.5371  1.7191
54768SOL     OW73081   7.036  12.495   1.212 -0.3931 -0.0013  0.2449
54768SOL    HW173082   7.071  12.407   1.222 -1.1584 -0.4053 -0.5711
54768SOL    HW273083   6.946  12.489   1.243 -0.2940  0.6310  0.6843
54769SOL     OW73084   4.305   2.691  10.696 -0.0278 -0.3263  0.2551
54769SOL    HW173085   4.258   2.741  10.629 -1.0054 -0.2511  0.9769
54769SOL    HW273086   4.321   2.754  10.766 -0.7632 -0.8687  0.9275
54770SOL     OW73087   6.834  11.444   2.023 -0.4998  0.2965 -0.1568
54770SOL    HW173088   6.907  11.450   2.084 -1.5140 -1.3348  1.3070
54770SOL    HW273089   6.875  11.419   1.939  0.7072  0.3139  0.4034
54771SOL     OW73090   1.069  11.111   2.641  0.3222  0.4700  0.0121
54771SOL    HW173091   1.133  11.182   2.646 -1.0337  1.8334 -0.8982
54771SOL    HW273092   1.036  11.115   2.551 -1.2630  0.0525  0.5337
54772SOL     OW73093   8.105   3.637   6.816 -0.2054  0.1720 -0.6050
54772SOL    HW173094   8.090   3.632   6.911  1.3500  0.4448 -0.3146
54772SOL    HW273095   8.048   3.569   6.780 -1.6087  0.7479  0.3994
54773SOL     OW73096  11.023   6.705  11.252  0.0575  0.1231 -0.4711
54773SOL    HW173097  11.097   6.765  11.258 -1.3873  2.0509 -0.9327
54773SOL    HW273098  11.002   6.702  11.159 -1.0968  0.4636 -0.2393
54774SOL     OW73099   3.210   7.324  12.176  0.1166  0.4186  0.3378
54774SOL    HW173100   3.277   7.369  12.227  1.2666 -0.5155 -0.2726
54774SOL    HW273101   3.232   7.345  12.085  0.6199 -1.2505  0.0492
54775SOL     OW73102   6.202   4.038  10.262  0.0839  0.9082  0.6505
54775SOL    HW173103   6.116   4.021  10.222  0.4676 -1.9644  0.8902
54775SOL    HW273104   6.182   4.055  10.354 -0.1774 -1.8346  1.1841
54776SOL     OW73105   7.262   3.625  11.992 -0.5498  0.2330  0.0153
54776SOL    HW173106   7.245   3.541  11.951 -1.7644  0.4980 -0.0526
54776SOL    HW273107   7.185   3.678  11.972 -0.5596  0.8197  1.4364
54777SOL     OW73108   8.736   2.087  11.709 -0.2148  0.0761 -0.9052
54777SOL    HW173109   8.641   2.079  11.723 -0.1642  0.2333 -0.4599
54777SOL    HW273110   8.744   2.144  11.633 -0.4802 -0.0385 -1.0240
54778SOL     OW73111   2.781   8.972   1.411 -0.1370 -0.0242  0.7583
54778SOL    HW173112   2.814   8.958   1.322  2.2488  1.9258  1.2380
54778SOL    HW273113   2.832   8.911   1.465 -1.7655 -1.3972  0.8564
54779SOL     OW73114   7.591   0.852   2.596  0.2817  0.0426  0.3696
54779SOL    HW173115   7.668   0.799   2.615  0.7024  0.2866 -0.6315
54779SOL    HW273116   7.613   0.902   2.518 -0.3594  1.2124  0.8974
54780SOL     OW73117   4.446  11.991  11.642 -0.5807 -0.2438 -0.5941
54780SOL    HW173118   4.397  12.053  11.697 -0.8764 -1.0774  0.1109
54780SOL    HW273119   4.447  12.032  11.555 -0.2086  1.0483 -0.0022
54781SOL     OW73120   0.470   9.755   2.975  0.1212  0.4297  0.5705
54781SOL    HW173121   0.511   9.669   2.972  0.3977  0.4971  2.0175
54781SOL    HW273122   0.437   9.769   2.886  0.2805 -1.0584  0.2630
54782SOL     OW73123   4.472   2.744   0.241 -0.4572 -0.7403 -0.1829
54782SOL    HW173124   4.429   2.678   0.187 -1.0732 -0.2754 -0.2705
54782SOL    HW273125   4.543   2.777   0.186 -0.7827 -0.6078 -0.5305
54783SOL     OW73126   4.039   8.371   3.423 -0.3815 -0.1730 -0.2265
54783SOL    HW173127   3.973   8.440   3.420  0.4162  0.7314  1.3862
54783SOL    HW273128   4.048   8.351   3.517  0.9197 -0.9505 -0.4915
54784SOL     OW73129   2.358   2.096   5.520  0.5301 -0.1327  0.1135
54784SOL    HW173130   2.422   2.026   5.529 -0.4260 -1.2367 -1.3551
54784SOL    HW273131   2.411   2.176   5.522  1.5644 -0.7657  2.6189
54785SOL     OW73132   0.890   3.068   9.867 -0.2158 -0.1171 -0.2292
54785SOL    HW173133   0.925   2.985   9.898  1.3055  0.5953  0.0792
54785SOL    HW273134   0.817   3.044   9.810  0.8183 -1.7162 -0.9527
54786SOL     OW73135  12.028   1.948   7.069  0.3431  0.3852  0.1535
54786SOL    HW173136  12.010   1.888   7.142  0.5529  1.4099  1.0808
54786SOL    HW273137  12.118   1.929   7.044 -0.6599 -2.1126 -1.9592
54787SOL     OW73138   0.826   6.840   2.382  0.4559  0.0924 -0.6332
54787SOL    HW173139   0.783   6.755   2.383 -0.5677  0.5775 -1.3267
54787SOL    HW273140   0.776   6.893   2.444 -0.0070  0.6840 -1.4943
54788SOL     OW73141   1.071  11.252   3.972 -0.0387 -0.5428  0.1487
54788SOL    HW173142   1.164  11.243   3.949  0.1120  0.4104  0.3225
54788SOL    HW273143   1.049  11.342   3.946 -1.1923 -1.0806 -0.8251
54789SOL     OW73144   4.992   5.700  10.136  0.7489  0.1624 -0.6911
54789SOL    HW173145   5.026   5.611  10.151  1.1508  0.3596 -0.4111
54789SOL    HW273146   4.904   5.698  10.174  1.3337  0.3215  0.7669
54790SOL     OW73147   2.443   8.749   1.580 -0.2875  0.1975 -0.0658
54790SOL    HW173148   2.428   8.837   1.614 -1.4739 -0.1268  0.3030
54790SOL    HW273149   2.537   8.734   1.593  0.1646  1.7916 -1.1202
54791SOL     OW73150  10.985   0.374   9.343  0.0839  0.4268 -0.1153
54791SOL    HW173151  11.056   0.310   9.342 -1.2562 -1.1200 -0.7379
54791SOL    HW273152  10.972   0.392   9.436 -0.5615 -1.4793  0.2116
54792SOL     OW73153   2.171  11.994  10.191  0.3893 -0.3682  0.3495
54792SOL    HW173154   2.112  12.068  10.181 -0.0310 -0.7496 -0.0319
54792SOL    HW273155   2.238  12.007  10.123  1.4065  0.6615  1.4991
54793SOL     OW73156   8.537   1.271   8.285  0.1839 -0.4012  0.3931
54793SOL    HW173157   8.455   1.273   8.334  0.4398  2.3629  0.8405
54793SOL    HW273158   8.587   1.200   8.325 -1.9835 -2.3314 -0.0464
54794SOL     OW73159   2.559   0.589   2.783  0.3875 -0.1702 -0.4710
54794SOL    HW173160   2.633   0.562   2.837  0.7147 -0.2486 -0.9486
54794SOL    HW273161   2.532   0.508   2.738  1.2635  0.2283 -1.7781
54795SOL     OW73162   5.764   1.197   7.894  0.2133 -0.2267  0.5224
54795SOL    HW173163   5.686   1.159   7.853  0.9176  0.0890 -1.1926
54795SOL    HW273164   5.755   1.174   7.987 -1.5142 -0.8696  0.2457
54796SOL     OW73165   4.334   8.025  10.978 -0.0153 -0.0543 -0.2050
54796SOL    HW173166   4.327   7.937  11.013  1.2507 -0.1427 -0.1579
54796SOL    HW273167   4.255   8.036  10.925 -1.1982 -0.4682  1.4089
54797SOL     OW73168   2.769   8.643   7.530  0.3430  0.6756 -0.0454
54797SOL    HW173169   2.787   8.651   7.624  0.4119  0.9973 -0.0828
54797SOL    HW273170   2.800   8.556   7.507  1.2198  0.9477  0.0362
54798SOL     OW73171  10.446   4.101   9.047  0.9399  0.0041  0.5008
54798SOL    HW173172  10.493   4.184   9.038  0.0873  0.3900 -0.6892
54798SOL    HW273173  10.494   4.040   8.991 -0.3616  0.6074 -1.3779
54799SOL     OW73174   6.809   9.031   9.412  0.0406  0.1829 -0.0062
54799SOL    HW173175   6.866   8.987   9.349 -0.4120 -0.7510  0.2273
54799SOL    HW273176   6.724   9.035   9.368 -0.2168 -0.2530  0.4520
54800SOL     OW73177   4.249   9.395   3.685 -0.0734  0.7192 -0.2110
54800SOL    HW173178   4.303   9.363   3.612 -0.0149 -0.1652  0.2030
54800SOL    HW273179   4.311   9.432   3.746  0.0063  0.3021 -0.0360
54801SOL     OW73180   5.777  10.547  12.337  0.4389  0.0297 -0.5395
54801SOL    HW173181   5.867  10.515  12.340  0.1367 -0.8098 -0.3237
54801SOL    HW273182   5.728  10.488  12.394  0.0191  1.4052  0.5911
54802SOL     OW73183  10.811   1.731  11.439 -0.1537  0.1399  0.7987
54802SOL    HW173184  10.883   1.741  11.502  0.4151 -0.5862  0.2869
54802SOL    HW273185  10.770   1.648  11.464 -1.4694  1.0232  1.7154
54803SOL     OW73186   2.640   3.487   1.486 -0.5607 -0.4746 -0.1743
54803SOL    HW173187   2.631   3.460   1.394  0.8441 -0.5848 -0.3083
54803SOL    HW273188   2.688   3.569   1.482  1.3909 -1.5142  0.5137
54804SOL     OW73189   2.448  11.748   9.294 -0.0999  0.1711  0.0586
54804SOL    HW173190   2.376  11.686   9.305  0.2075 -0.1551  0.2738
54804SOL    HW273191   2.474  11.770   9.384 -0.1384  0.5334 -0.0173
54805SOL     OW73192   0.876   2.187   8.746 -0.2339 -0.2209  0.3104
54805SOL    HW173193   0.873   2.141   8.830  2.7232 -1.9092 -0.3633
54805SOL    HW273194   0.835   2.127   8.685 -2.3285  0.9830  0.4167
54806SOL     OW73195   6.926  11.625   2.766 -0.3183 -0.1538 -0.1697
54806SOL    HW173196   6.836  11.651   2.743 -0.4696 -0.2466  0.3129
54806SOL    HW273197   6.981  11.674   2.705 -0.6718  0.2441 -0.1754
54807SOL     OW73198  10.950   9.621   1.084  0.3024  0.3769  0.1677
54807SOL    HW173199  10.999   9.662   1.013 -1.7607  1.5886 -0.6334
54807SOL    HW273200  10.951   9.686   1.155  1.3700 -0.3575  0.8638
54808SOL     OW73201   4.117   4.409  11.265 -0.3840  0.6542  0.1278
54808SOL    HW173202   4.077   4.323  11.274  3.0611 -0.9586  2.3560
54808SOL    HW273203   4.110   4.449  11.352  1.9381  0.6121  0.4038
54809SOL     OW73204  10.873   5.275  11.534 -0.5328  0.1753 -0.3615
54809SOL    HW173205  10.813   5.327  11.480  0.1237  0.6576 -0.6426
54809SOL    HW273206  10.952   5.266  11.480 -0.2447 -0.2086  0.1137
54810SOL     OW73207   2.905   0.245   8.465 -0.1745  0.0146 -0.8345
54810SOL    HW173208   2.995   0.270   8.482 -0.2585 -1.1741  1.6816
54810SOL    HW273209   2.856   0.275   8.541 -1.6152 -0.8799 -1.3603
54811SOL     OW73210   5.649  11.441   6.275 -0.8003  0.1777  0.8402
54811SOL    HW173211   5.565  11.470   6.242 -0.4999 -0.1961 -0.3098
54811SOL    HW273212   5.708  11.515   6.262 -0.5130 -0.2128 -0.1779
54812SOL     OW73213  11.357  10.807  11.418  0.0225  0.3085 -0.3551
54812SOL    HW173214  11.368  10.815  11.323 -4.2839 -3.4209 -1.5113
54812SOL    HW273215  11.283  10.864  11.438 -0.2195 -0.2850  0.4504
54813SOL     OW73216   3.056   7.529  11.082  0.6408 -0.2642 -0.0983
54813SOL    HW173217   2.987   7.586  11.049  1.0359  0.1590 -0.1964
54813SOL    HW273218   3.129   7.541  11.021  1.4470  0.6531  1.0052
54814SOL     OW73219   3.314   6.323   2.175 -0.2091  0.3986  0.5009
54814SOL    HW173220   3.292   6.412   2.203  0.7169  0.5934  0.6322
54814SOL    HW273221   3.277   6.316   2.087 -0.9332  0.6535  0.7787
54815SOL     OW73222   5.842   6.651   4.212  0.8469  0.7733  0.3610
54815SOL    HW173223   5.777   6.712   4.175 -0.2633 -0.2658  0.5369
54815SOL    HW273224   5.891   6.620   4.137  1.4269  1.8659  0.2664
54816SOL     OW73225   8.724   4.907   7.516 -0.6354 -0.1305  0.1918
54816SOL    HW173226   8.682   4.970   7.574  2.0259  0.9542  1.0789
54816SOL    HW273227   8.758   4.839   7.574 -1.4712 -1.2037 -0.5346
54817SOL     OW73228   9.980  12.232   1.269 -0.0521  0.1925  0.4435
54817SOL    HW173229  10.053  12.170   1.277  0.4813  0.2686 -2.5285
54817SOL    HW273230   9.902  12.177   1.263  0.2885 -0.1983 -0.8849
54818SOL     OW73231  10.765   9.856   7.870 -0.1177  0.2998  0.7842
54818SOL    HW173232  10.731   9.817   7.950  0.4668 -0.7576  0.5422
54818SOL    HW273233  10.859   9.860   7.883 -0.0562  0.4744  0.3039
54819SOL     OW73234  11.457  11.988   4.196 -0.7920 -0.2649 -0.6974
54819SOL    HW173235  11.371  12.010   4.232 -2.0766 -2.4056 -2.2785
54819SOL    HW273236  11.476  11.902   4.232  0.6496  0.1103 -0.5169
54820SOL     OW73237   7.373   3.927   3.706  0.5263  0.3338  0.5338
54820SOL    HW173238   7.337   3.890   3.626 -1.4425 -1.6452  2.2204
54820SOL    HW273239   7.452   3.876   3.723  2.1357  2.1241 -1.1347
54821SOL     OW73240  11.233   3.412   1.113 -0.1955  0.1834  0.0353
54821SOL    HW173241  11.172   3.341   1.134 -0.0238 -0.6279 -1.9551
54821SOL    HW273242  11.205   3.444   1.028  1.8234  0.1328 -0.7053
54822SOL     OW73243   0.609  10.650   9.742  0.0621 -0.2970 -0.1815
54822SOL    HW173244   0.702  10.668   9.746 -0.2174  1.0327  1.6900
54822SOL    HW273245   0.599  10.566   9.788  0.2857 -0.1872  0.0695
54823SOL     OW73246   3.334   6.606   9.242 -0.1955  0.7319  0.2214
54823SOL    HW173247   3.339   6.614   9.337 -2.9236  0.7915  0.4353
54823SOL    HW273248   3.344   6.696   9.210 -0.6782  0.9166  0.5716
54824SOL     OW73249   7.596   0.512  10.108  0.0939  0.6494 -0.2419
54824SOL    HW173250   7.630   0.548  10.190 -1.4094 -0.9069  1.1289
54824SOL    HW273251   7.557   0.587  10.063  0.3921  1.4193  0.7637
54825SOL     OW73252   5.694   4.803   8.115 -0.3650  0.5743  0.7524
54825SOL    HW173253   5.682   4.808   8.020 -0.4941  1.9332  0.8321
54825SOL    HW273254   5.696   4.894   8.144  1.4496  0.2249  1.8354
54826SOL     OW73255  10.238   6.309   0.350  0.5711  0.6686 -0.0455
54826SOL    HW173256  10.271   6.238   0.405 -0.9558 -0.2941 -0.3112
54826SOL    HW273257  10.255   6.388   0.401 -0.0883 -0.1185  1.4899
54827SOL     OW73258   8.441   6.382   3.586 -0.2119  0.4588 -0.0976
54827SOL    HW173259   8.519   6.422   3.546  1.8485 -0.0078  3.0697
54827SOL    HW273260   8.429   6.301   3.537  3.2196 -0.9313  0.9980
54828SOL     OW73261   7.784   6.964  10.220 -0.4025 -0.3782 -0.0892
54828SOL    HW173262   7.706   6.975  10.275 -0.8399  1.4234 -0.9935
54828SOL    HW273263   7.778   6.874  10.188 -1.3602 -0.7162  0.9462
54829SOL     OW73264   2.462   3.042   5.178  0.1328  0.0428  0.6049
54829SOL    HW173265   2.380   3.055   5.131 -0.4247 -0.3439  1.4420
54829SOL    HW273266   2.435   3.035   5.270  0.8391 -2.5145  0.6727
54830SOL     OW73267   3.923   9.260   9.909 -0.3376 -0.7622  0.2998
54830SOL    HW173268   3.974   9.250   9.828 -0.5160  0.1465  0.0607
54830SOL    HW273269   3.908   9.170   9.939 -0.9748 -1.1584 -1.1272
54831SOL     OW73270   6.028   9.696   9.022 -0.4176  0.4363  0.1578
54831SOL    HW173271   6.049   9.607   8.994 -0.4919  0.9908 -1.7893
54831SOL    HW273272   5.942   9.688   9.063  0.4875 -0.7038  1.9528
54832SOL     OW73273   5.885   1.049   7.039  0.3717  0.5614 -0.3703
54832SOL    HW173274   5.809   1.004   7.004 -0.1259  0.7450  0.4604
54832SOL    HW273275   5.851   1.105   7.109  1.1728  1.1418 -0.4182
54833SOL     OW73276   1.262   4.844  11.745  0.4499 -0.6279  0.3333
54833SOL    HW173277   1.336   4.885  11.700 -1.2393  3.6110  0.9839
54833SOL    HW273278   1.254   4.758  11.703  1.2311  1.5169 -5.0623
54834SOL     OW73279   8.985   3.467   5.676 -0.0996 -0.0037 -0.6144
54834SOL    HW173280   9.049   3.409   5.635  1.2481  0.6682  0.4673
54834SOL    HW273281   9.013   3.555   5.650 -0.7961  0.2856 -0.4127
54835SOL     OW73282   6.616   1.990  11.092 -0.5943 -0.0643 -0.6297
54835SOL    HW173283   6.580   1.996  11.004 -0.1310 -4.0033 -1.2936
54835SOL    HW273284   6.705   1.956  11.079 -1.3400 -3.1709  1.2591
54836SOL     OW73285   5.391   6.922   7.941  0.3011 -0.3287 -0.4246
54836SOL    HW173286   5.383   6.848   8.001  0.3780  0.0165  0.0155
54836SOL    HW273287   5.306   6.966   7.945  1.0373  1.0436  1.2269
54837SOL     OW73288   9.372   5.050   4.234  0.3104 -0.2261 -0.2038
54837SOL    HW173289   9.313   5.006   4.173 -1.5798 -1.4028  2.2804
54837SOL    HW273290   9.318   5.116   4.277  1.0610 -0.5958  1.3999
54838SOL     OW73291   7.538  12.046   7.073 -0.1755 -0.0024 -0.1035
54838SOL    HW173292   7.517  12.040   6.980 -0.6058 -0.6972  0.0302
54838SOL    HW273293   7.618  11.994   7.083  0.5473  1.0455 -0.2779
54839SOL     OW73294  12.270   3.776   1.915 -0.0365  0.6329  0.1395
54839SOL    HW173295  12.261   3.713   1.844  0.2776 -0.3457  0.9427
54839SOL    HW273296  12.191   3.829   1.910 -0.9018 -0.6240  0.2088
54840SOL     OW73297   8.793   5.410   7.580 -0.0806 -0.0938 -0.0795
54840SOL    HW173298   8.773   5.344   7.646 -0.4542  0.5337  0.4491
54840SOL    HW273299   8.787   5.493   7.627  1.4039  0.2725 -0.4721
54841SOL     OW73300  10.346   2.174   4.437 -0.4668 -0.4913  0.1397
54841SOL    HW173301  10.321   2.244   4.498 -0.2352 -0.0814 -0.2384
54841SOL    HW273302  10.340   2.213   4.351  2.2187 -0.1289  0.0478
54842SOL     OW73303  11.133   0.615  12.292  0.1028 -0.2198 -0.1118
54842SOL    HW173304  11.103   0.623  12.383 -0.7504 -0.1980 -0.3886
54842SOL    HW273305  11.109   0.526  12.267  1.9538 -0.8624  0.2445
54843SOL     OW73306  12.108   2.558   7.305  0.1019  0.0732 -0.2083
54843SOL    HW173307  12.155   2.639   7.326 -1.1313  0.6559  0.4171
54843SOL    HW273308  12.109   2.507   7.386  1.8922 -1.1141 -0.9158
54844SOL     OW73309   8.225   7.494   3.809  0.2119 -0.1055  0.2007
54844SOL    HW173310   8.146   7.461   3.851  0.3126 -1.0118 -0.2881
54844SOL    HW273311   8.199   7.514   3.719  0.5146 -0.3301  0.0605
54845SOL     OW73312   8.249   4.210   8.506 -0.6162 -0.2786  0.1214
54845SOL    HW173313   8.312   4.282   8.503 -1.1265  0.1616 -0.2441
54845SOL    HW273314   8.260   4.163   8.424 -0.3593 -0.5575  0.3126
54846SOL     OW73315   0.197   4.676  11.009 -0.4329 -0.1670  0.7175
54846SOL    HW173316   0.170   4.611  11.074  1.1990 -0.9349  0.6755
54846SOL    HW273317   0.269   4.634  10.962 -1.6378  0.3191 -1.6989
54847SOL     OW73318   3.555   3.676   1.375  0.1496 -0.1843 -0.5063
54847SOL    HW173319   3.546   3.582   1.393  0.1314 -0.4623 -1.9044
54847SOL    HW273320   3.606   3.709   1.449  0.2096 -1.2931 -0.0219
54848SOL     OW73321   4.350   1.387   3.136 -0.3403  0.1955  0.2318
54848SOL    HW173322   4.342   1.391   3.041  0.0928  2.9863  0.2287
54848SOL    HW273323   4.425   1.329   3.151 -0.1938 -0.0137 -1.1522
54849SOL     OW73324   9.133   3.315   4.382  0.2589 -0.1695  0.0920
54849SOL    HW173325   9.047   3.356   4.375  1.2150  1.9097 -0.6436
54849SOL    HW273326   9.160   3.331   4.473  0.6836  1.0689 -0.2269
54850SOL     OW73327   7.490  11.350   0.811 -0.8663  0.5781  0.1671
54850SOL    HW173328   7.542  11.409   0.756 -0.0033  0.7143  1.0981
54850SOL    HW273329   7.404  11.391   0.815 -0.7540  0.9034 -0.5483
54851SOL     OW73330   4.054   2.662   2.906 -0.1916 -0.3900 -0.6095
54851SOL    HW173331   3.993   2.685   2.976 -0.2104  0.9203 -1.0296
54851SOL    HW273332   4.123   2.612   2.950 -0.5709 -0.1989  0.2176
54852SOL     OW73333   1.202   8.868   9.590  0.1036  0.2901 -0.0265
54852SOL    HW173334   1.119   8.904   9.622  0.0368  0.6046 -0.5563
54852SOL    HW273335   1.234   8.932   9.527 -0.7762 -1.2265 -2.1435
54853SOL     OW73336   2.173   2.239   6.987  0.2821  0.1064 -0.1015
54853SOL    HW173337   2.152   2.332   6.988 -3.4280 -0.5865  0.9046
54853SOL    HW273338   2.174   2.216   6.894  2.0063  1.2294 -0.3955
54854SOL     OW73339   7.107   7.454   9.716  0.2285  0.1551  0.5341
54854SOL    HW173340   7.154   7.537   9.707 -2.5094  1.9511  1.5540
54854SOL    HW273341   7.150   7.409   9.790  2.3725  0.1050 -0.6612
54855SOL     OW73342  12.525   6.564   9.291 -0.2963 -0.2044  0.2263
54855SOL    HW173343  12.521   6.474   9.321  0.7350 -0.0164  1.0117
54855SOL    HW273344  12.549   6.614   9.369 -0.3097  0.6706 -0.3142
54856SOL     OW73345  10.092  10.769   0.743  0.1550  0.2749 -0.3609
54856SOL    HW173346  10.168  10.711   0.739  0.7097  0.9967 -0.8979
54856SOL    HW273347  10.102  10.817   0.825 -0.1304 -0.1701 -0.0693
54857SOL     OW73348   0.858   4.088   4.031 -0.2633  0.7604 -0.3635
54857SOL    HW173349   0.787   4.138   3.991 -0.0468  0.7552 -0.7601
54857SOL    HW273350   0.815   4.010   4.067 -0.3904  0.5127 -1.0379
54858SOL     OW73351   3.534   1.961   4.262 -0.3325  0.0893  0.2905
54858SOL    HW173352   3.486   1.879   4.270  0.3721 -0.3265  0.3420
54858SOL    HW273353   3.504   2.014   4.335  1.4658 -1.3052  2.1671
54859SOL     OW73354   8.945   3.462   4.097  0.3361  0.1130 -0.4081
54859SOL    HW173355   8.882   3.523   4.060 -0.5196  0.5033  1.5451
54859SOL    HW273356   8.925   3.461   4.191  3.5478  0.6457  0.3953
54860SOL     OW73357   4.121   0.898   7.620  0.1449 -0.0255  0.6633
54860SOL    HW173358   4.178   0.968   7.589 -0.7406  0.6756  0.5798
54860SOL    HW273359   4.079   0.935   7.698  0.6146 -0.9300  1.3719
54861SOL     OW73360   5.309  12.183   6.934 -0.4376 -0.6469  0.1187
54861SOL    HW173361   5.322  12.273   6.964  1.6867 -1.7044  2.7743
54861SOL    HW273362   5.287  12.192   6.841  0.9211  2.5680 -0.0286
54862SOL     OW73363   4.667  10.679   4.579 -1.2165  0.2754  0.6860
54862SOL    HW173364   4.633  10.601   4.534  0.9616 -0.0148 -0.6330
54862SOL    HW273365   4.656  10.750   4.515  0.1138  0.2691  0.4253
54863SOL     OW73366   4.798   9.268   3.072 -0.3217  0.3628 -0.2940
54863SOL    HW173367   4.877   9.264   3.125  0.1063  0.2403 -0.9345
54863SOL    HW273368   4.828   9.253   2.982 -1.0993  0.0931 -0.5171
54864SOL     OW73369  12.000   7.182   2.991 -0.1730  0.0692  0.2534
54864SOL    HW173370  12.053   7.236   2.933  1.0815 -1.5224 -0.1522
54864SOL    HW273371  11.912   7.187   2.954 -0.7943  3.9798  1.7943
54865SOL     OW73372   0.625   7.144  11.453  0.1253  0.4076  0.9030
54865SOL    HW173373   0.650   7.211  11.516  1.6268  1.2214 -0.5057
54865SOL    HW273374   0.705   7.094  11.438 -0.1419  0.3915 -0.5367
54866SOL     OW73375   1.443   7.389  10.627 -0.2222  0.2869 -0.2922
54866SOL    HW173376   1.358   7.427  10.606 -0.5723  0.0922  0.7212
54866SOL    HW273377   1.498   7.408  10.551 -0.5954  2.1418 -0.1348
54867SOL     OW73378   2.238   1.811  12.204 -0.3420  0.0034 -0.1510
54867SOL    HW173379   2.278   1.727  12.180  0.7575  1.0525 -2.3140
54867SOL    HW273380   2.167   1.822  12.140 -0.7316  0.5578  0.3708
54868SOL     OW73381   5.275   1.875   3.102 -0.5686  0.1854 -0.1246
54868SOL    HW173382   5.194   1.924   3.086 -1.7097 -1.5996 -0.0085
54868SOL    HW273383   5.317   1.868   3.016 -1.3108 -0.1998 -0.4576
54869SOL     OW73384   7.884   0.589   5.016  0.2641 -0.8053 -0.3489
54869SOL    HW173385   7.858   0.507   4.974  0.1985 -0.3077 -1.3062
54869SOL    HW273386   7.965   0.614   4.971  0.4996 -0.5388  0.2093
54870SOL     OW73387   7.566   1.351   7.881  0.0849 -0.4696 -0.3685
54870SOL    HW173388   7.608   1.401   7.951  0.4065  0.9095 -1.4840
54870SOL    HW273389   7.498   1.300   7.925  2.4026 -2.2336  1.4187
54871SOL     OW73390   9.205  10.135   7.755 -0.2850 -0.2420  0.2934
54871SOL    HW173391   9.255  10.077   7.698 -1.3272 -0.1304 -0.7697
54871SOL    HW273392   9.135  10.080   7.790 -1.9568  0.5538 -1.5931
54872SOL     OW73393   0.318   2.164   7.656  0.0826  0.4837  0.2022
54872SOL    HW173394   0.230   2.136   7.679 -0.4822  0.5024 -1.7173
54872SOL    HW273395   0.351   2.094   7.599  1.9048 -0.2470  2.0602
54873SOL     OW73396   0.372   6.572   1.459 -0.3670 -0.1242 -0.4285
54873SOL    HW173397   0.463   6.587   1.487  0.0329 -1.3402 -1.0167
54873SOL    HW273398   0.369   6.603   1.368 -1.1037  1.8113  0.2044
54874SOL     OW73399   0.920  10.415   4.166 -0.4470 -0.0706 -0.1555
54874SOL    HW173400   0.908  10.419   4.072  0.5899  1.7638 -0.2562
54874SOL    HW273401   0.842  10.458   4.202 -1.1191 -1.2816 -0.1274
54875SOL     OW73402   8.304   3.007   5.557  0.2872 -0.0909 -0.0541
54875SOL    HW173403   8.264   3.081   5.603 -1.7850  0.1759 -2.1126
54875SOL    HW273404   8.362   3.047   5.493  2.1028 -0.4250  1.3084
54876SOL     OW73405   0.742   8.815   2.123  0.1777 -0.2037  1.0422
54876SOL    HW173406   0.758   8.830   2.216 -2.7928 -0.1615  1.6413
54876SOL    HW273407   0.678   8.882   2.099 -0.3790 -1.2653 -0.5952
54877SOL     OW73408   8.116   6.569   5.588  0.0468  0.2902 -0.0505
54877SOL    HW173409   8.078   6.543   5.504  0.4213 -0.8446  0.1065
54877SOL    HW273410   8.193   6.621   5.566  0.2121 -0.1081 -0.4210
54878SOL     OW73411   3.344   5.133  10.523 -0.3742 -0.0226 -0.2676
54878SOL    HW173412   3.345   5.140  10.618 -2.1204 -0.8426 -0.1463
54878SOL    HW273413   3.359   5.040  10.505  1.2408  0.3243 -0.8759
54879SOL     OW73414   1.399   3.106   4.207  0.7132  0.1797 -0.7297
54879SOL    HW173415   1.457   3.073   4.276 -0.2923  3.1129  1.7568
54879SOL    HW273416   1.331   3.039   4.199  1.5539 -0.8189  0.2047
54880SOL     OW73417  11.038   1.750   0.923  0.0280  0.2724 -0.2268
54880SOL    HW173418  10.948   1.731   0.948  0.2750 -1.4372 -0.4982
54880SOL    HW273419  11.069   1.669   0.882  1.4178  1.1147 -0.9158
54881SOL     OW73420   8.693   4.961   2.123 -0.1071  0.3689  0.9012
54881SOL    HW173421   8.617   4.982   2.177 -2.0666 -1.0451 -1.1414
54881SOL    HW273422   8.707   4.868   2.137 -0.0210  0.1991 -0.2178
54882SOL     OW73423   5.472  12.156   3.221  0.2453 -0.4658 -0.2921
54882SOL    HW173424   5.480  12.247   3.190 -1.7159 -0.4155 -0.7654
54882SOL    HW273425   5.396  12.121   3.174 -0.8255 -1.4263  2.0018
54883SOL     OW73426   7.857   5.503  10.174 -0.4789 -0.1784  0.4336
54883SOL    HW173427   7.855   5.502  10.078 -2.8183  0.5576  0.4183
54883SOL    HW273428   7.907   5.582  10.195  0.0340 -0.3301 -0.1788
54884SOL     OW73429  12.524  11.878   7.196  0.0526 -0.7115 -0.0065
54884SOL    HW173430  12.565  11.940   7.135 -0.0317 -0.0324  0.6128
54884SOL    HW273431  12.433  11.875   7.168  0.5734 -2.6627 -1.7501
54885SOL     OW73432  10.002   5.562   6.256 -0.2222 -0.4075  0.0616
54885SOL    HW173433  10.022   5.644   6.300 -0.3722 -0.5577  0.4098
54885SOL    HW273434   9.923   5.530   6.299  1.7114 -2.4997  2.3811
54886SOL     OW73435   4.472  11.822   2.430 -0.4730  0.1071 -0.0726
54886SOL    HW173436   4.383  11.800   2.456 -0.6017  0.6132 -0.0952
54886SOL    HW273437   4.508  11.739   2.397 -0.7410 -0.2320  0.4696
54887SOL     OW73438   3.339   5.319  12.323 -0.4056  0.2165  0.3245
54887SOL    HW173439   3.372   5.230  12.330  1.3899  0.9330  1.8230
54887SOL    HW273440   3.336   5.337  12.229  1.4485 -0.6471  0.0718
54888SOL     OW73441  10.233  10.976   4.546 -0.3681 -0.2561  0.0629
54888SOL    HW173442  10.323  10.956   4.573 -1.4966 -1.5636  3.3680
54888SOL    HW273443  10.223  10.930   4.463  2.3339  0.9920 -1.0811
54889SOL     OW73444   9.769   1.660   3.032 -0.8133 -0.3030  0.0548
54889SOL    HW173445   9.858   1.625   3.031 -0.2910  0.8355 -2.9394
54889SOL    HW273446   9.713   1.583   3.032  0.1640 -1.0394  1.0090
54890SOL     OW73447  10.611   7.442   0.356  0.1052  0.1180  0.0834
54890SOL    HW173448  10.632   7.534   0.373  0.4196  0.1172 -0.2883
54890SOL    HW273449  10.520   7.432   0.385  0.2548  0.3999  0.6765
54891SOL     OW73450   0.281  12.366   5.026 -0.1627 -0.0557 -0.0273
54891SOL    HW173451   0.195  12.349   5.064 -0.4655  1.3532 -0.0190
54891SOL    HW273452   0.268  12.358   4.932  0.4392 -2.8986  0.0505
54892SOL     OW73453   4.158   1.964   3.606 -0.6666 -0.0803  0.0230
54892SOL    HW173454   4.188   2.054   3.619 -0.2067 -0.3973  1.3457
54892SOL    HW273455   4.215   1.930   3.537  1.8704 -0.5237  2.1510
54893SOL     OW73456   0.469   8.750   6.724 -0.2096  0.2748 -0.1454
54893SOL    HW173457   0.470   8.754   6.820 -2.1154 -2.2187  0.0561
54893SOL    HW273458   0.548   8.700   6.702 -1.1169 -1.4402  0.3463
54894SOL     OW73459   1.404   9.049   8.028  0.0589 -0.0131 -0.3362
54894SOL    HW173460   1.358   8.990   7.970  0.5715 -1.5083  0.7178
54894SOL    HW273461   1.371   9.028   8.115  2.0264 -0.5136  0.3503
54895SOL     OW73462   6.418  11.436   7.806  0.5638 -0.5093 -0.5279
54895SOL    HW173463   6.436  11.396   7.891  0.9784 -0.7944 -0.7465
54895SOL    HW273464   6.502  11.434   7.760  0.2788 -0.6169 -1.0517
54896SOL     OW73465  11.142  11.766  12.119  0.7994 -0.0796 -0.0294
54896SOL    HW173466  11.104  11.845  12.159  0.9762 -0.6825  1.3783
54896SOL    HW273467  11.071  11.701  12.124  0.6629 -0.0315 -1.1627
54897SOL     OW73468   1.630  12.384   6.511 -0.0341 -0.2763  0.5986
54897SOL    HW173469   1.535  12.396   6.520  0.0472  0.2796  0.7527
54897SOL    HW273470   1.645  12.293   6.536 -0.9267 -1.3747 -2.4556
54898SOL     OW73471   8.265   8.119  11.550  0.1929  0.8080 -0.4694
54898SOL    HW173472   8.347   8.072  11.569 -0.2557  0.2140  0.0360
54898SOL    HW273473   8.293   8.207  11.526  0.9732  0.6475 -0.1843
54899SOL     OW73474  12.428   0.975   9.215  0.1448 -0.2787  0.2394
54899SOL    HW173475  12.389   0.918   9.149 -0.9103  1.0326 -0.3167
54899SOL    HW273476  12.381   0.952   9.296 -0.7080  0.2048 -0.1065
54900SOL     OW73477   1.873   4.031   5.704  0.1131  0.4793 -0.8198
54900SOL    HW173478   1.788   3.987   5.717 -0.6503  1.9084 -0.8422
54900SOL    HW273479   1.851   4.110   5.655  1.3843  1.2131 -0.2236
54901SOL     OW73480   4.462   8.843   2.534  0.6831  0.1606 -0.2677
54901SOL    HW173481   4.526   8.862   2.465 -0.7953  1.0867 -1.4250
54901SOL    HW273482   4.473   8.914   2.597  0.9295  0.1976 -0.3485
54902SOL     OW73483   5.844   5.012  11.229  0.2584 -0.3202  0.6358
54902SOL    HW173484   5.893   4.936  11.198 -1.2297 -0.6730 -1.0397
54902SOL    HW273485   5.810   5.052  11.149  0.2355  1.5788  1.5622
54903SOL     OW73486   9.016   2.630   1.566  0.0941  0.3210 -0.1769
54903SOL    HW173487   9.010   2.565   1.497 -3.2737  0.0847  0.1703
54903SOL    HW273488   9.042   2.580   1.644  3.7873  0.5743 -1.0789
54904SOL     OW73489   4.113   7.310   3.454 -0.4347 -0.2806 -0.1978
54904SOL    HW173490   4.022   7.280   3.445 -0.5186  0.4154 -1.9262
54904SOL    HW273491   4.105   7.399   3.490 -0.5511  0.4263 -1.8944
54905SOL     OW73492  11.314   2.688   4.311  0.2148  0.1576  0.0644
54905SOL    HW173493  11.356   2.610   4.348 -0.2192 -0.1446 -0.0742
54905SOL    HW273494  11.275   2.658   4.229  0.6141  0.6736 -0.3217
54906SOL     OW73495  11.748   1.324  12.145  0.0446 -0.2056 -0.5937
54906SOL    HW173496  11.699   1.396  12.104 -2.2897 -1.5341 -0.2950
54906SOL    HW273497  11.755   1.350  12.237  1.4478  0.7623 -0.9445
54907SOL     OW73498   6.069  10.569   1.229  0.3373 -0.3280 -0.2559
54907SOL    HW173499   6.133  10.640   1.233 -0.6769  0.5999  1.8806
54907SOL    HW273500   6.027  10.572   1.315 -0.3146 -3.0246 -0.4152
54908SOL     OW73501   4.404  11.917   8.253 -0.3088  0.3338 -0.0071
54908SOL    HW173502   4.332  11.977   8.276 -1.4424 -1.7130  2.2496
54908SOL    HW273503   4.360  11.838   8.222  1.0580 -0.1869 -0.6663
54909SOL     OW73504   2.004   7.323   4.792 -0.1817 -0.1676 -0.2228
54909SOL    HW173505   2.098   7.313   4.777 -0.2760 -0.2977 -0.7347
54909SOL    HW273506   1.986   7.269   4.869  0.1699 -0.1093 -0.0994
54910SOL     OW73507   2.620  12.365   2.829  0.3585 -0.0721  0.1539
54910SOL    HW173508   2.612  12.280   2.872 -1.0256  0.5685  1.2406
54910SOL    HW273509   2.545  12.370   2.770  0.3613  0.4513  0.1858
54911SOL     OW73510   7.082   7.665   1.004  0.1881  0.1220 -0.0935
54911SOL    HW173511   7.057   7.598   0.941 -0.2578  0.1870  0.0092
54911SOL    HW273512   7.071   7.623   1.090 -1.5359  0.7774  0.0410
54912SOL     OW73513   7.534   3.404   6.357 -0.8471 -0.2339  0.0947
54912SOL    HW173514   7.616   3.429   6.400 -0.7785  0.5214 -0.4673
54912SOL    HW273515   7.550   3.420   6.264 -1.0195 -1.7794 -0.2321
54913SOL     OW73516   1.050   4.112   9.106 -0.2268  0.3310 -0.0886
54913SOL    HW173517   1.091   4.025   9.102 -1.9812 -0.5327 -0.2424
54913SOL    HW273518   1.063   4.148   9.018  0.3701  0.1662 -0.0727
54914SOL     OW73519   6.676   3.206  10.048  0.2748  0.0329 -0.6994
54914SOL    HW173520   6.608   3.153  10.006  0.1837 -0.5360  0.1254
54914SOL    HW273521   6.629   3.278  10.090  0.2079 -0.1526 -0.4477
54915SOL     OW73522   3.042   2.032   0.887 -0.0347  0.6420 -0.0242
54915SOL    HW173523   3.132   2.064   0.882  0.4418 -0.3637  1.5230
54915SOL    HW273524   3.051   1.940   0.912 -1.4698  0.2080 -0.9754
54916SOL     OW73525   2.218   0.007   3.767 -0.5630 -0.3154  0.0199
54916SOL    HW173526   2.234  -0.077   3.810  1.2968  0.7901  1.6821
54916SOL    HW273527   2.229   0.072   3.837 -0.0634  1.4184 -1.5839
54917SOL     OW73528   5.942  11.099  11.939 -0.3980  0.1991 -0.3774
54917SOL    HW173529   5.862  11.048  11.949 -0.6028 -0.1322 -3.0679
54917SOL    HW273530   6.012  11.040  11.966 -0.7729 -0.9560 -1.8343
54918SOL     OW73531   3.947   7.495   6.980 -0.1375  0.1875  0.3990
54918SOL    HW173532   3.993   7.416   6.953  0.2259  0.8494 -1.0351
54918SOL    HW273533   3.877   7.505   6.915 -0.2363  0.9843  0.6174
54919SOL     OW73534   2.547   7.268   8.463  0.4549  0.9113  0.5469
54919SOL    HW173535   2.543   7.341   8.401  2.9893  0.7257  0.0455
54919SOL    HW273536   2.575   7.308   8.545  0.1032  0.7361  0.7532
54920SOL     OW73537   6.101   0.670   9.108 -1.0736 -0.3072  0.2410
54920SOL    HW173538   6.009   0.650   9.125 -1.5025  0.0022 -1.5446
54920SOL    HW273539   6.099   0.727   9.032  0.7015 -2.2287 -1.3742
54921SOL     OW73540   7.443   7.287   9.253 -0.2290 -0.4835 -0.0572
54921SOL    HW173541   7.444   7.214   9.191  1.7005  1.7976 -3.0440
54921SOL    HW273542   7.508   7.263   9.319 -0.2155 -1.8171 -0.5137
54922SOL     OW73543   3.977   5.636   1.062  0.5109  0.1218  0.6665
54922SOL    HW173544   4.033   5.558   1.067  1.4460  0.7635  0.4477
54922SOL    HW273545   3.990   5.669   0.973 -0.2019  0.2977  0.6241
54923SOL     OW73546  11.433  12.364   3.942  0.4437  0.0484  0.2585
54923SOL    HW173547  11.458  12.273   3.953 -1.0042 -0.5809 -1.1653
54923SOL    HW273548  11.421  12.397   4.031 -1.0205 -1.7722  0.8048
54924SOL     OW73549   9.737   2.851   9.515 -0.0982  0.6399 -0.4059
54924SOL    HW173550   9.763   2.759   9.525 -0.0555  0.7382  0.4779
54924SOL    HW273551   9.642   2.847   9.505 -0.0341  0.4600 -0.9731
54925SOL     OW73552   0.841   9.135   7.183  0.4692  0.2811  0.0576
54925SOL    HW173553   0.808   9.185   7.258 -0.4321 -2.6444  1.8073
54925SOL    HW273554   0.920   9.092   7.216 -0.0712 -1.2390 -0.5083
54926SOL     OW73555  10.217   8.808   3.070  0.3522 -0.7312  0.4168
54926SOL    HW173556  10.197   8.896   3.101  0.6845 -0.0282 -1.2728
54926SOL    HW273557  10.132   8.769   3.051  0.2546 -0.2741 -0.1079
54927SOL     OW73558   4.680   1.227  12.272  0.4391  0.0389  0.1344
54927SOL    HW173559   4.612   1.189  12.216  1.6985  0.1319 -1.5180
54927SOL    HW273560   4.666   1.322  12.265  1.3377  0.1003 -1.0255
54928SOL     OW73561   0.696   7.337   7.639 -0.6444  0.1673  0.0985
54928SOL    HW173562   0.723   7.308   7.726 -2.1789 -0.1783  0.4918
54928SOL    HW273563   0.735   7.424   7.628 -0.0132 -0.0109  0.9072
54929SOL     OW73564   7.205  11.608   3.225 -0.4757  0.6996 -0.3469
54929SOL    HW173565   7.224  11.655   3.143 -1.4282  2.5207  0.4219
54929SOL    HW273566   7.216  11.674   3.293 -1.4869 -0.3145  0.8370
54930SOL     OW73567  12.435   9.851  10.176 -0.0337 -0.1176  0.0544
54930SOL    HW173568  12.382   9.860  10.255 -1.4708 -0.7151 -0.8144
54930SOL    HW273569  12.449   9.941  10.146  1.4527  0.1977  1.5464
54931SOL     OW73570   5.194   8.239   7.411 -0.2235 -0.1065  0.4889
54931SOL    HW173571   5.287   8.258   7.423  0.0882 -1.2261 -0.0070
54931SOL    HW273572   5.193   8.151   7.372 -1.5114 -0.4393  1.2336
54932SOL     OW73573   1.166   8.866  11.635 -0.2998  0.0938 -0.1779
54932SOL    HW173574   1.175   8.958  11.607 -1.1367  0.3793  0.4220
54932SOL    HW273575   1.192   8.866  11.727 -1.8318  0.0819  0.2973
54933SOL     OW73576  11.852   0.326   7.990  0.0518  0.0419  0.1631
54933SOL    HW173577  11.841   0.266   7.917 -1.2951 -0.1680  0.5288
54933SOL    HW273578  11.824   0.411   7.956 -0.8488 -0.1108  0.5138
54934SOL     OW73579   9.366   6.333  10.241 -0.3032  0.1550  0.0775
54934SOL    HW173580   9.358   6.243  10.208 -1.8025 -0.0550  0.9349
54934SOL    HW273581   9.379   6.386  10.162 -2.0533 -0.5393 -0.7227
54935SOL     OW73582   2.053   3.140   0.723 -0.5550 -0.0396  0.0206
54935SOL    HW173583   2.093   3.101   0.801 -2.2222 -0.0484  0.9270
54935SOL    HW273584   2.072   3.078   0.653  1.4113  0.2147  0.2866
54936SOL     OW73585   5.041   2.634   4.747  0.2530 -0.4511 -0.2852
54936SOL    HW173586   4.989   2.706   4.711 -1.0154 -1.1008  0.2060
54936SOL    HW273587   5.117   2.628   4.689  0.6979  1.6471  0.0044
54937SOL     OW73588   5.611   6.907   3.325 -0.0475 -0.4513 -0.2047
54937SOL    HW173589   5.605   6.962   3.247  0.4919 -2.0078 -1.3930
54937SOL    HW273590   5.546   6.944   3.385 -1.3513  0.0703 -1.8426
54938SOL     OW73591   1.173   4.692   2.099 -0.5055  0.0413  0.2973
54938SOL    HW173592   1.209   4.634   2.166 -0.2344  0.8691  0.8955
54938SOL    HW273593   1.153   4.635   2.025  0.4112 -0.7072  0.6074
54939SOL     OW73594   8.115   0.453   7.573 -0.5485  0.2344  0.2599
54939SOL    HW173595   8.058   0.507   7.519 -0.2311 -0.7748 -1.1225
54939SOL    HW273596   8.056   0.392   7.618 -0.5875 -1.0314 -1.4220
54940SOL     OW73597   5.872   2.780   7.247  0.3649  0.4033  0.2132
54940SOL    HW173598   5.907   2.696   7.219  1.3055  0.6265  0.6605
54940SOL    HW273599   5.881   2.780   7.342  0.3873  1.0100  0.2177
54941SOL     OW73600   3.004   3.529   5.196  0.1878 -0.1655 -0.0715
54941SOL    HW173601   2.963   3.443   5.208  0.4746 -0.1330  1.2825
54941SOL    HW273602   2.970   3.582   5.268 -1.0566  1.3116 -1.6614
54942SOL     OW73603   5.225   0.412   1.127  0.1084  0.5867 -0.0986
54942SOL    HW173604   5.307   0.433   1.081  0.2532 -0.4034 -0.3226
54942SOL    HW273605   5.213   0.484   1.189  0.2323  1.6426 -1.2604
54943SOL     OW73606   8.453   1.633   9.128  0.1954  0.0968  0.1038
54943SOL    HW173607   8.536   1.678   9.146 -1.4294  3.1845  0.5407
54943SOL    HW273608   8.449   1.628   9.032  0.8364 -0.0238  0.0776
54944SOL     OW73609   2.815   1.670   4.202 -0.0692  0.3898 -0.1736
54944SOL    HW173610   2.850   1.673   4.113  1.2521  1.5729  0.3329
54944SOL    HW273611   2.735   1.722   4.198  1.1232  2.3162 -0.2549
54945SOL     OW73612   4.860   2.819   1.499  0.1682 -0.0749  0.4056
54945SOL    HW173613   4.794   2.754   1.476  1.7550 -1.1444 -1.4696
54945SOL    HW273614   4.881   2.862   1.416  1.4417  0.6090  1.0552
54946SOL     OW73615   7.142   5.679   7.480  0.5959 -0.1998 -0.4061
54946SOL    HW173616   7.106   5.767   7.484 -0.5048 -0.6570  0.1694
54946SOL    HW273617   7.194   5.678   7.399 -1.5241  0.1906 -1.8731
54947SOL     OW73618   9.591   2.060  12.538 -0.5355  0.5990  0.2155
54947SOL    HW173619   9.601   2.035  12.447  0.9526  1.8811 -0.0110
54947SOL    HW273620   9.645   1.997  12.587 -0.1798  0.7884  0.0669
54948SOL     OW73621  12.543   0.668   3.310 -0.2913  0.5001 -0.6480
54948SOL    HW173622  12.524   0.726   3.236 -0.6610  1.3718  0.1036
54948SOL    HW273623  12.573   0.728   3.379 -1.2079 -0.1385  0.3293
54949SOL     OW73624   5.326  11.450   7.634  0.2318  0.5996 -0.5490
54949SOL    HW173625   5.340  11.472   7.726 -0.0879 -0.4715 -0.2318
54949SOL    HW273626   5.414  11.437   7.598  0.3326  0.5835 -0.2925
54950SOL     OW73627   2.526   9.859  12.447 -0.3548  0.3925  0.5063
54950SOL    HW173628   2.614   9.895  12.456  0.4366 -1.0161 -1.0865
54950SOL    HW273629   2.504   9.827  12.535  0.3129  1.6005  1.1358
54951SOL     OW73630   0.982   8.494  11.587 -0.1169 -0.4603 -0.1883
54951SOL    HW173631   0.983   8.398  11.589 -0.2377 -0.4825 -1.0387
54951SOL    HW273632   0.950   8.519  11.674 -2.7718 -1.2512 -0.8517
54952SOL     OW73633   0.088  10.310   8.522 -0.0637  0.3762  0.0973
54952SOL    HW173634   0.108  10.221   8.495  0.5669 -0.7195  3.6779
54952SOL    HW273635   0.076  10.358   8.440 -1.1856 -3.1143 -1.9647
54953SOL     OW73636  10.205  12.303   1.876  0.1862  0.4512 -0.3908
54953SOL    HW173637  10.117  12.265   1.867  0.9649 -1.1683 -1.7635
54953SOL    HW273638  10.252  12.240   1.931  0.1347  2.0617  1.6188
54954SOL     OW73639   2.810   2.434   9.719  0.0137  0.0525 -0.0950
54954SOL    HW173640   2.878   2.501   9.724 -0.2379  0.2131  1.8474
54954SOL    HW273641   2.819   2.397   9.631  3.4074 -0.7447  0.4522
54955SOL     OW73642   6.330   0.770   9.443 -0.2554 -0.4463  0.5646
54955SOL    HW173643   6.257   0.805   9.495 -0.2054 -2.4738  2.1443
54955SOL    HW273644   6.398   0.752   9.507  0.4784 -1.4150 -0.4574
54956SOL     OW73645  10.547   5.565   1.441 -0.5234  0.0157  0.2525
54956SOL    HW173646  10.493   5.637   1.476 -1.1398  0.0188 -0.6835
54956SOL    HW273647  10.617   5.609   1.393 -0.7867 -0.0008 -0.1517
54957SOL     OW73648   3.056   0.435   3.400 -0.0773 -0.3328  0.2583
54957SOL    HW173649   3.107   0.515   3.389 -0.6297 -0.1488 -1.2761
54957SOL    HW273650   2.966   0.465   3.407 -0.1262 -0.7360  1.4931
54958SOL     OW73651   9.764  11.927   7.093  0.0514 -0.1935  0.3163
54958SOL    HW173652   9.788  11.938   7.001 -1.5303  0.9870 -0.0089
54958SOL    HW273653   9.823  11.859   7.126  0.8991 -0.3699 -1.4598
54959SOL     OW73654   2.256   9.716   3.618  0.7258  0.0489  0.0451
54959SOL    HW173655   2.273   9.682   3.530  1.1700  0.3692  0.0007
54959SOL    HW273656   2.304   9.799   3.621  0.5364  0.1456  0.5164
54960SOL     OW73657   6.015   9.991   6.930 -0.2251 -0.3355  0.2580
54960SOL    HW173658   5.928  10.009   6.965 -1.1341  0.6348 -2.3143
54960SOL    HW273659   6.060   9.946   7.002 -2.2897  0.5258  2.2206
54961SOL     OW73660   5.336   3.440   0.013  0.2329 -0.4036 -0.0347
54961SOL    HW173661   5.394   3.376  -0.026 -0.4350 -1.0140 -0.0411
54961SOL    HW273662   5.254   3.432  -0.036  0.1736  0.5312 -0.1114
54962SOL     OW73663  11.981   3.303  10.251  0.2488 -0.2323 -0.2970
54962SOL    HW173664  11.984   3.396  10.274 -0.5494  0.4196 -2.6443
54962SOL    HW273665  12.013   3.258  10.330  0.2509  1.9810  1.0318
54963SOL     OW73666  12.181   8.649  10.701 -0.1872  0.2945 -0.7686
54963SOL    HW173667  12.133   8.650  10.784 -0.9768  0.2368 -1.2109
54963SOL    HW273668  12.118   8.682  10.636  0.7261  1.3052 -1.1846
54964SOL     OW73669   0.983   2.940   1.990 -0.2430 -0.0517  0.7702
54964SOL    HW173670   1.060   2.950   2.046  0.0691 -1.0734  0.5410
54964SOL    HW273671   0.940   3.025   1.994  1.9459  1.2235 -0.6816
54965SOL     OW73672   1.293   7.528   9.962  0.3123  0.3972  0.1732
54965SOL    HW173673   1.310   7.488  10.048  3.2306  1.7506  0.3385
54965SOL    HW273674   1.305   7.456   9.900  2.0390  0.1645  0.7046
54966SOL     OW73675   8.551   6.116   0.900 -0.2876 -0.8388 -0.4647
54966SOL    HW173676   8.600   6.034   0.891 -0.0065 -0.5720 -1.4926
54966SOL    HW273677   8.527   6.120   0.993 -1.6201 -2.8238 -0.6760
54967SOL     OW73678   9.847   5.594  12.111  0.0973  0.0910  0.2456
54967SOL    HW173679   9.762   5.561  12.139  1.6497 -2.0345  3.0002
54967SOL    HW273680   9.880   5.526  12.051  1.6333 -1.6665  2.8332
54968SOL     OW73681   3.774  11.166   0.607  0.8933  0.4516 -0.5925
54968SOL    HW173682   3.753  11.256   0.584  2.6811  0.9922 -0.2748
54968SOL    HW273683   3.754  11.160   0.701  0.2464  0.3290 -0.7300
54969SOL     OW73684   6.184   3.425  11.195 -0.5588  0.5706 -0.4233
54969SOL    HW173685   6.136   3.349  11.161 -1.4488  2.0632 -2.7187
54969SOL    HW273686   6.273   3.413  11.163 -0.7890  0.6753 -1.1146
54970SOL     OW73687   6.130  10.452   2.212  0.3714 -0.1304  0.2383
54970SOL    HW173688   6.090  10.473   2.296 -1.5047  0.3564 -0.7181
54970SOL    HW273689   6.138  10.537   2.168  0.1689 -0.5136 -0.5542
54971SOL     OW73690  11.171   7.542   9.900  0.0975 -0.0647  0.3705
54971SOL    HW173691  11.236   7.583   9.956  1.6188 -1.4178 -0.3140
54971SOL    HW273692  11.107   7.611   9.882  1.7707  1.5675  0.3953
54972SOL     OW73693   4.847   6.950   9.921 -0.0176 -0.5012 -0.1987
54972SOL    HW173694   4.870   6.944  10.014 -0.9247 -0.6490  0.0231
54972SOL    HW273695   4.877   7.038   9.895 -0.6156 -0.0898  0.4765
54973SOL     OW73696  11.555  10.270  10.231  0.2119  0.4500 -0.3876
54973SOL    HW173697  11.470  10.236  10.258 -0.6219  1.3025 -1.8113
54973SOL    HW273698  11.581  10.215  10.158  0.1812  1.0794 -0.8864
54974SOL     OW73699   2.352   2.047  11.858  0.2871  0.1961 -0.0936
54974SOL    HW173700   2.302   1.965  11.852 -0.3333  0.6048 -0.6022
54974SOL    HW273701   2.381   2.050  11.949  1.1112 -1.0424 -0.2793
54975SOL     OW73702   8.923   1.517   7.602  0.0806 -0.0778 -0.7287
54975SOL    HW173703   8.911   1.496   7.694  0.5070  0.0487 -0.6416
54975SOL    HW273704   8.893   1.439   7.556 -1.9934  0.5854 -0.5859
54976SOL     OW73705   7.017   3.010   4.938  0.1643 -0.1851 -0.1836
54976SOL    HW173706   6.997   2.935   4.993  0.8208  0.1626  0.5510
54976SOL    HW273707   7.113   3.013   4.936  0.2575  2.1980  2.0646
54977SOL     OW73708   1.964   9.232  10.550 -0.3464 -0.0993 -0.1070
54977SOL    HW173709   1.995   9.143  10.567  1.2118  0.1935 -1.1674
54977SOL    HW273710   2.027   9.267  10.486  0.4674  2.5470  1.9624
54978SOL     OW73711   6.370   3.637  10.625  0.1971 -0.0945 -0.0015
54978SOL    HW173712   6.402   3.602  10.708 -0.6172 -1.6515 -0.2855
54978SOL    HW273713   6.275   3.625  10.630  0.0660  0.5181 -0.8415
54979SOL     OW73714   6.871   7.566   3.771 -0.4258 -0.3170 -0.1265
54979SOL    HW173715   6.959   7.573   3.735  0.3731 -0.2312  1.7373
54979SOL    HW273716   6.839   7.481   3.742 -0.6368  0.5384 -2.6456
54980SOL     OW73717   6.629   0.748  10.155 -0.3803 -0.0801  0.9377
54980SOL    HW173718   6.669   0.707  10.232  1.3596 -1.1550 -0.4438
54980SOL    HW273719   6.687   0.821  10.134 -0.2717 -0.3844  0.1186
54981SOL     OW73720   5.245   5.017   8.583 -0.6205 -0.1637  0.5797
54981SOL    HW173721   5.319   5.015   8.644  0.2851  2.7875 -0.3072
54981SOL    HW273722   5.280   4.979   8.502 -1.1015 -1.7448  1.0624
54982SOL     OW73723  11.653   3.333   6.586 -0.2713  0.1583 -0.0316
54982SOL    HW173724  11.676   3.332   6.493 -1.1687 -0.2129 -0.2582
54982SOL    HW273725  11.574   3.387   6.590 -0.8529 -0.7059  0.3599
54983SOL     OW73726  11.122   1.011  10.877 -0.3971  0.4871  0.0051
54983SOL    HW173727  11.071   1.005  10.796 -1.7744 -0.7055  0.9225
54983SOL    HW273728  11.195   0.950  10.864 -0.2057  0.8372 -0.6029
54984SOL     OW73729   1.711  11.725  11.052 -0.0023  0.5359  0.5683
54984SOL    HW173730   1.791  11.720  11.105 -0.8329  0.3596  1.8185
54984SOL    HW273731   1.665  11.644  11.070 -0.3771  0.5288 -0.3437
54985SOL     OW73732   6.998   0.181  12.168  0.3600  0.2771 -0.2973
54985SOL    HW173733   6.913   0.146  12.141  0.3295  0.2112 -0.1176
54985SOL    HW273734   7.029   0.231  12.092  0.1604  0.3011 -0.3636
54986SOL     OW73735  11.400   3.247   6.843 -0.6974 -0.6036 -0.4990
54986SOL    HW173736  11.409   3.330   6.889 -0.6778  0.0912 -1.7464
54986SOL    HW273737  11.474   3.195   6.874 -1.7774 -0.9389  1.7996
54987SOL     OW73738  10.341   3.236   3.827  0.5536 -0.5029 -0.1157
54987SOL    HW173739  10.419   3.181   3.835  0.9146 -0.3401 -2.0505
54987SOL    HW273740  10.317   3.230   3.735 -1.0252  0.4228  0.1936
54988SOL     OW73741  10.865  11.922   7.373 -0.2797 -0.1530 -0.7292
54988SOL    HW173742  10.784  11.887   7.410  0.4537 -0.4527  0.6501
54988SOL    HW273743  10.885  11.999   7.427 -0.4183  0.8193 -2.0087
54989SOL     OW73744   6.440   3.236   5.565 -0.0506 -0.5585 -0.3114
54989SOL    HW173745   6.389   3.297   5.512  0.4052  1.0258  0.9972
54989SOL    HW273746   6.378   3.199   5.627 -0.1907 -0.9618 -0.6821
54990SOL     OW73747  12.233   6.672  11.160 -0.0513 -0.0520  0.1926
54990SOL    HW173748  12.193   6.589  11.186  0.5851 -0.6913 -0.7808
54990SOL    HW273749  12.321   6.668  11.198 -0.3566  0.6528  1.0095
54991SOL     OW73750   6.736  11.696  12.486  0.2841  0.2388  0.5121
54991SOL    HW173751   6.810  11.665  12.538  0.8499  2.1874  0.9622
54991SOL    HW273752   6.774  11.723  12.403  0.5957  3.2833  1.4870
54992SOL     OW73753   9.899   8.293  10.165 -0.0801  0.4847 -0.3687
54992SOL    HW173754   9.899   8.256  10.253 -0.1607  0.8236 -0.2234
54992SOL    HW273755   9.829   8.246  10.119 -0.0999  0.3721 -0.2226
54993SOL     OW73756  10.430   1.823   1.177 -0.7117  0.0689  0.2609
54993SOL    HW173757  10.345   1.781   1.191 -0.6501 -0.2940 -0.4027
54993SOL    HW273758  10.493   1.751   1.177 -0.3271  0.3924  1.3166
54994SOL     OW73759  11.027  11.052   0.501  0.2010 -0.2489  0.6480
54994SOL    HW173760  11.122  11.054   0.510  0.1740  1.0968  0.9077
54994SOL    HW273761  10.995  11.071   0.589 -0.2823  0.2772  0.3655
54995SOL     OW73762   9.937   1.650  11.264 -0.7383  0.0706 -0.4270
54995SOL    HW173763   9.983   1.705  11.327 -1.0821 -0.0706 -0.0460
54995SOL    HW273764   9.989   1.571  11.257 -1.6742 -0.7180  1.1221
54996SOL     OW73765   3.846   4.486   0.708 -0.5382  0.3948 -0.4441
54996SOL    HW173766   3.896   4.546   0.763  0.9154  1.4291 -2.7356
54996SOL    HW273767   3.902   4.409   0.699 -0.4793  0.4914 -0.9483
54997SOL     OW73768   6.715   3.221   4.017 -0.0998  0.2587 -0.0137
54997SOL    HW173769   6.702   3.141   4.067 -1.9168  0.9292  0.6845
54997SOL    HW273770   6.667   3.206   3.935  0.3436  0.2801 -0.2771
54998SOL     OW73771   8.722   1.156   2.323  0.0827 -0.4910  0.3529
54998SOL    HW173772   8.635   1.137   2.359 -0.7249  1.5840 -0.3514
54998SOL    HW273773   8.750   1.234   2.370  2.1265 -1.7570  1.3763
54999SOL     OW73774   5.354   4.016   3.635 -0.1673 -0.0171  0.3950
54999SOL    HW173775   5.320   3.971   3.558  1.0370 -1.8909  0.9041
54999SOL    HW273776   5.391   4.097   3.601  1.2901 -1.2920 -1.2073
55000SOL     OW73777  12.140   9.497   4.762  0.4136  0.5059  0.2357
55000SOL    HW173778  12.156   9.455   4.677  1.8273  0.0061  0.7165
55000SOL    HW273779  12.156   9.429   4.826 -2.5908  0.3166  0.9048
55001SOL     OW73780   9.574   9.321   7.812 -0.5050 -0.0311  0.5820
55001SOL    HW173781   9.587   9.374   7.733  2.4296 -2.9895 -1.1584
55001SOL    HW273782   9.554   9.233   7.780  0.6910 -1.3393  3.1095
55002SOL     OW73783   5.582   1.426   6.853 -0.3524 -0.1723  0.1628
55002SOL    HW173784   5.498   1.388   6.829 -0.1885  0.5066 -1.6496
55002SOL    HW273785   5.567   1.468   6.938 -1.2124 -1.9658  0.9398
55003SOL     OW73786   7.067  11.849  10.691  0.0211  0.0832 -0.0555
55003SOL    HW173787   6.997  11.789  10.719 -1.0777  0.5609 -1.6033
55003SOL    HW273788   7.076  11.910  10.764 -0.8512 -0.2900  0.3886
55004SOL     OW73789   9.716   9.852  10.259 -0.3394 -0.2195 -1.1355
55004SOL    HW173790   9.684   9.932  10.218 -0.9469 -0.4679 -1.1495
55004SOL    HW273791   9.639   9.796  10.268 -0.0767 -0.4725 -0.3585
55005SOL     OW73792   2.474   6.314   9.095 -0.1212  0.5259 -0.2615
55005SOL    HW173793   2.563   6.321   9.130  0.8276 -1.7529 -1.9168
55005SOL    HW273794   2.482   6.340   9.003 -1.7786  2.8087  0.1563
55006SOL     OW73795   1.694  10.085   3.290  0.3358  0.2415 -0.4312
55006SOL    HW173796   1.733  10.146   3.227  2.9421 -0.0158  0.7772
55006SOL    HW273797   1.641  10.026   3.237  2.1568  0.2225 -2.3851
55007SOL     OW73798   7.743   2.425   5.636  0.4955  0.3009  0.3365
55007SOL    HW173799   7.680   2.392   5.699 -0.1237 -0.5354 -0.6908
55007SOL    HW273800   7.825   2.380   5.658 -0.3956 -2.2343 -1.2020
55008SOL     OW73801   9.991   7.498  12.168 -0.1376  0.0700  0.8699
55008SOL    HW173802   9.973   7.587  12.197  1.1904  1.1579 -1.4095
55008SOL    HW273803  10.080   7.481  12.199 -0.0789 -0.1472  0.5842
55009SOL     OW73804   0.362   2.106   2.739 -0.0004  0.6774 -0.3694
55009SOL    HW173805   0.340   2.085   2.648  0.1275 -0.9745 -0.0480
55009SOL    HW273806   0.455   2.131   2.736 -0.3831  2.1467 -0.8913
55010SOL     OW73807   9.653   5.743   6.457 -0.0815  0.1444  0.2025
55010SOL    HW173808   9.729   5.776   6.504 -0.6289  0.6118  0.7835
55010SOL    HW273809   9.675   5.755   6.365  1.1772 -1.1737  0.2949
55011SOL     OW73810   1.856   9.932   8.669  0.4623 -0.1813 -0.1641
55011SOL    HW173811   1.905   9.989   8.609 -0.8710  0.4674 -0.6711
55011SOL    HW273812   1.820   9.863   8.612 -1.7556  1.0647 -0.3570
55012SOL     OW73813   1.558   5.858   5.254  0.1898 -0.2991  0.0007
55012SOL    HW173814   1.518   5.895   5.175  0.3378 -1.6432 -0.7159
55012SOL    HW273815   1.577   5.935   5.308  1.1908  0.7712 -1.7681
55013SOL     OW73816   0.715   5.863   6.670 -0.4611  0.5204  0.4895
55013SOL    HW173817   0.702   5.885   6.578 -3.7468 -1.8065  0.2071
55013SOL    HW273818   0.660   5.926   6.717 -0.0208  0.7210  0.7413
55014SOL     OW73819   0.494   1.761   3.603  0.1388 -0.0580  0.2815
55014SOL    HW173820   0.438   1.693   3.640  0.7197 -0.2244  0.8848
55014SOL    HW273821   0.566   1.769   3.666  0.3137  0.7919 -0.0169
55015SOL     OW73822   1.949   7.185   7.508  0.4038 -0.0380  0.2387
55015SOL    HW173823   1.973   7.147   7.592 -2.2279 -1.2309  0.5491
55015SOL    HW273824   1.942   7.279   7.525  2.1329  0.0199  0.7302
55016SOL     OW73825   0.187   6.990   5.979  0.3087  0.0270 -0.6831
55016SOL    HW173826   0.125   7.035   6.036  0.1658 -1.7595  0.6472
55016SOL    HW273827   0.262   7.049   5.974 -0.4839  1.1047 -0.2960
55017SOL     OW73828  10.605   0.228   0.372 -0.1904  0.3546  0.0807
55017SOL    HW173829  10.577   0.309   0.414 -0.3826 -0.3900  1.4601
55017SOL    HW273830  10.529   0.169   0.380  0.5909 -0.5818  0.8413
55018SOL     OW73831   0.696   4.222   3.598  0.0923 -0.3974  0.0952
55018SOL    HW173832   0.737   4.138   3.618 -1.7864 -1.1826  0.8964
55018SOL    HW273833   0.602   4.207   3.611 -0.3127  1.8051  0.1927
55019SOL     OW73834   9.235  11.843  10.142  0.1212  0.2028  0.7186
55019SOL    HW173835   9.259  11.931  10.111  1.0479  0.1586  1.2898
55019SOL    HW273836   9.260  11.842  10.234 -0.9525 -0.2848  1.0212
55020SOL     OW73837   0.375   0.327   7.684  0.1846  0.2147 -0.1908
55020SOL    HW173838   0.416   0.387   7.621  1.5701  0.9987  1.3827
55020SOL    HW273839   0.438   0.256   7.693 -0.1732 -0.0752  0.0237
55021SOL     OW73840   2.103   9.528   9.595 -0.2059 -0.0520  0.2590
55021SOL    HW173841   2.069   9.616   9.607 -0.7789  0.1235 -2.1058
55021SOL    HW273842   2.195   9.533   9.623 -0.8208  0.6535  2.3069
55022SOL     OW73843   9.205   2.280   4.521 -0.5061 -0.0124  0.3179
55022SOL    HW173844   9.211   2.185   4.514  0.9554  0.0660  0.1799
55022SOL    HW273845   9.173   2.296   4.610 -1.2450 -0.6252  0.1768
55023SOL     OW73846  11.233   9.085   2.099  0.5033  0.2691 -0.3807
55023SOL    HW173847  11.264   9.122   2.016  0.7050  1.2471  0.1232
55023SOL    HW273848  11.312   9.051   2.141  0.1440 -2.1373 -1.4870
55024SOL     OW73849   1.755   9.034   0.191  0.6008 -0.1976 -0.1098
55024SOL    HW173850   1.775   8.951   0.234  0.2542 -0.5146 -0.5488
55024SOL    HW273851   1.659   9.035   0.185  0.6720 -1.1138 -2.6748
55025SOL     OW73852   4.842   5.744   8.492  0.4099  0.3241 -0.3946
55025SOL    HW173853   4.877   5.832   8.479 -1.5095  1.3715  0.9195
55025SOL    HW273854   4.783   5.729   8.418  1.7253 -0.4386 -1.3199
55026SOL     OW73855   9.275   4.305   8.410  0.6945  0.2386  0.2683
55026SOL    HW173856   9.225   4.227   8.385  1.2231  0.2288 -0.7943
55026SOL    HW273857   9.257   4.316   8.503 -0.8943 -0.0541  0.0213
55027SOL     OW73858   4.854   1.821   2.810 -0.6379 -0.8795  0.0165
55027SOL    HW173859   4.771   1.775   2.800 -0.6192 -0.7861 -0.6029
55027SOL    HW273860   4.833   1.899   2.861 -0.5660 -1.8484  1.5675
55028SOL     OW73861   9.517   5.424  10.791  0.7210  0.1040 -0.1136
55028SOL    HW173862   9.583   5.425  10.860  0.6893  1.3148 -0.0851
55028SOL    HW273863   9.434   5.434  10.836  0.3535 -2.5187 -0.0435
55029SOL     OW73864   7.640   0.994   0.292 -0.4311 -0.2299  0.0693
55029SOL    HW173865   7.728   0.982   0.327 -0.6646  1.1075  1.2105
55029SOL    HW273866   7.599   0.908   0.299  0.3096 -0.5239  0.9237
55030SOL     OW73867   8.408   8.968   2.626  0.4952  0.4626 -0.2384
55030SOL    HW173868   8.314   8.954   2.640  0.9633 -1.4781  1.3829
55030SOL    HW273869   8.420   9.062   2.640 -1.1934  0.7264 -0.3834
55031SOL     OW73870   0.108   7.560   0.744 -0.0891 -0.0918 -0.4898
55031SOL    HW173871   0.180   7.592   0.799 -0.6692 -0.7732  0.7021
55031SOL    HW273872   0.030   7.571   0.797 -0.9110  0.7237 -1.8176
55032SOL     OW73873   1.836   6.295   8.452  0.2061  0.0362  0.8690
55032SOL    HW173874   1.778   6.224   8.481  0.9457 -0.2746  1.6145
55032SOL    HW273875   1.905   6.299   8.518  0.4809  1.0900  0.5383
55033SOL     OW73876   4.713   9.165   1.904  0.2681 -0.5416  0.4001
55033SOL    HW173877   4.643   9.156   1.969  0.9122  0.4686  1.2634
55033SOL    HW273878   4.793   9.166   1.956  0.7318  1.6859 -0.2391
55034SOL     OW73879   8.027   9.605   0.067 -0.2330 -0.5506 -0.3067
55034SOL    HW173880   7.994   9.683   0.024 -0.6865  0.4455  1.7146
55034SOL    HW273881   8.122   9.611   0.057 -0.3331 -0.4809 -1.3336
55035SOL     OW73882   4.958   8.807   5.958  0.2939  1.1040 -0.4363
55035SOL    HW173883   4.877   8.838   5.918  0.3806  2.2374  0.2193
55035SOL    HW273884   4.994   8.745   5.895 -0.2171  1.8854 -1.5244
55036SOL     OW73885   7.398   6.906  10.893  0.5363 -0.4916 -0.0497
55036SOL    HW173886   7.490   6.897  10.916  0.2995 -0.3148  1.0214
55036SOL    HW273887   7.373   6.821  10.857  1.3118 -0.2892 -1.1058
55037SOL     OW73888   7.880   6.295   7.482 -0.0982  0.7948 -0.2219
55037SOL    HW173889   7.870   6.214   7.531  0.8111 -0.7930 -2.4978
55037SOL    HW273890   7.940   6.348   7.535 -2.6862  1.2055  2.5842
55038SOL     OW73891   5.362   1.969  10.000 -0.0558 -0.6056  0.6497
55038SOL    HW173892   5.378   1.877   9.975 -0.0729 -1.0341  2.1242
55038SOL    HW273893   5.270   1.984   9.977  0.7395  0.1346 -2.6704
55039SOL     OW73894   1.485  10.286   1.410 -0.0330 -0.9185  0.3894
55039SOL    HW173895   1.429  10.330   1.473  1.7766  0.8754  0.8279
55039SOL    HW273896   1.455  10.195   1.411 -2.3788 -0.2070  1.1476
55040SOL     OW73897   4.887   5.014   2.447  0.2642  0.0619  0.7307
55040SOL    HW173898   4.917   5.068   2.520 -1.2770  0.1527  1.3364
55040SOL    HW273899   4.807   4.972   2.480 -0.8123  0.5738 -1.1018
55041SOL     OW73900   8.916   3.782   2.885  0.1483  0.2161 -0.3064
55041SOL    HW173901   8.961   3.755   2.965  0.4634 -0.1688 -0.6080
55041SOL    HW273902   8.909   3.877   2.891 -0.9979  0.0877  0.7963
55042SOL     OW73903   3.013   6.771  11.066 -0.4867  0.2505  0.1757
55042SOL    HW173904   3.055   6.850  11.032  0.4243 -0.2471  0.1032
55042SOL    HW273905   3.086   6.715  11.093 -1.0087 -1.2961 -1.4107
55043SOL     OW73906   1.290   9.386   9.416 -0.1566 -0.1880 -0.7198
55043SOL    HW173907   1.195   9.381   9.421 -0.2847  1.9614  0.1986
55043SOL    HW273908   1.307   9.469   9.371  1.2486  0.2048  0.4490
55044SOL     OW73909   3.919   6.681  11.883 -0.0057  0.4949  0.1396
55044SOL    HW173910   3.942   6.684  11.976 -0.1525 -0.1656  0.2000
55044SOL    HW273911   3.824   6.668  11.881  0.1698 -0.9762 -0.0753
55045SOL     OW73912  12.379   1.324  10.901  0.2915  0.2245 -0.2063
55045SOL    HW173913  12.381   1.249  10.960  0.7207 -0.7473 -1.4139
55045SOL    HW273914  12.325   1.389  10.946 -1.2574 -1.3272  0.2659
55046SOL     OW73915   0.805   0.761   7.111 -0.0213 -0.0041 -0.4930
55046SOL    HW173916   0.846   0.699   7.171  0.7525 -0.7953 -1.8168
55046SOL    HW273917   0.740   0.709   7.064 -2.2314  1.0837  1.1223
55047SOL     OW73918   3.760  10.875   6.729  0.0378  0.1681  0.4050
55047SOL    HW173919   3.845  10.834   6.719  0.3417  0.9177 -0.2098
55047SOL    HW273920   3.777  10.969   6.720 -0.7477  0.3755  0.9785
55048SOL     OW73921   4.977   6.331   4.814 -0.7068 -0.8182 -0.4649
55048SOL    HW173922   4.920   6.255   4.827 -0.8190 -0.8208 -0.9789
55048SOL    HW273923   4.925   6.405   4.845 -0.0586 -1.1015  1.4474
55049SOL     OW73924   1.507   8.191   2.453  0.3819  0.2468  0.1234
55049SOL    HW173925   1.561   8.116   2.476 -0.4331  0.1577  1.8281
55049SOL    HW273926   1.497   8.241   2.534 -0.5251  1.2728 -0.5774
55050SOL     OW73927   0.722   1.363   5.201  0.6947  0.4548  0.2741
55050SOL    HW173928   0.636   1.332   5.171  1.5699 -0.0377 -1.9786
55050SOL    HW273929   0.751   1.297   5.263 -0.0054 -0.1039  0.0235
55051SOL     OW73930   3.287   0.216   0.683 -0.2859  0.0558  0.4850
55051SOL    HW173931   3.195   0.242   0.690 -0.3478  0.0526 -0.2795
55051SOL    HW273932   3.331   0.265   0.753 -0.8397  0.1697  0.7615
55052SOL     OW73933   0.270   7.583   7.898  0.2015  0.4466 -0.4189
55052SOL    HW173934   0.211   7.525   7.946 -0.5720 -0.3198 -2.2275
55052SOL    HW273935   0.345   7.528   7.875 -0.2588  0.3013 -1.6194
55053SOL     OW73936  10.985   0.010   5.479  0.4745 -0.1573 -0.1677
55053SOL    HW173937  10.979  -0.021   5.569  0.7412  0.0863 -0.0653
55053SOL    HW273938  10.999  -0.069   5.427 -2.5396 -0.7045 -0.3392
55054SOL     OW73939   3.386   8.745  11.189 -0.0621  0.1651  0.0357
55054SOL    HW173940   3.374   8.837  11.215 -2.1923 -0.5135  1.8472
55054SOL    HW273941   3.330   8.735  11.112  0.1950  0.3908 -0.1820
55055SOL     OW73942  11.525  10.206  12.249  0.3186  0.0876  0.3762
55055SOL    HW173943  11.469  10.144  12.202 -0.3192  1.3961 -0.6721
55055SOL    HW273944  11.481  10.291  12.239  1.3085  0.7726  1.5177
55056SOL     OW73945  12.304   0.205   9.584  0.2742 -0.1592  0.2096
55056SOL    HW173946  12.231   0.198   9.522  0.3283 -0.0041  0.1270
55056SOL    HW273947  12.352   0.123   9.573 -0.0084 -0.3547  0.4212
55057SOL     OW73948   1.083   3.701  11.991  0.8519 -0.3147 -0.2572
55057SOL    HW173949   1.170   3.681  11.957  1.2394 -1.0451  1.0868
55057SOL    HW273950   1.053   3.619  12.031  0.8274  0.6780  1.9151
55058SOL     OW73951   3.190   4.596   4.710 -0.1924 -0.0036 -0.4917
55058SOL    HW173952   3.128   4.668   4.720  0.6470  0.6260  0.3808
55058SOL    HW273953   3.230   4.610   4.624 -1.5324 -0.6544 -1.2442
55059SOL     OW73954   1.213   5.437   8.452  0.0426 -0.8441  0.1748
55059SOL    HW173955   1.267   5.438   8.531 -1.1995  1.6554  1.1082
55059SOL    HW273956   1.127   5.405   8.482 -0.5127  0.3611 -0.0768
55060SOL     OW73957   1.198   7.767   7.620  0.8026  0.1919 -0.1992
55060SOL    HW173958   1.244   7.849   7.632  1.4169  0.2400 -2.3268
55060SOL    HW273959   1.263   7.709   7.579 -0.7192 -0.0063 -2.5172
55061SOL     OW73960   5.068   4.576   0.067 -0.3549 -0.1656  0.0895
55061SOL    HW173961   5.036   4.526   0.142 -0.3119  0.9278  0.8542
55061SOL    HW273962   4.988   4.609   0.025 -0.3630 -0.3995 -0.0779
55062SOL     OW73963  11.899   1.021   1.286  0.0972  0.0932  0.5384
55062SOL    HW173964  11.979   1.071   1.303  1.2262 -1.6419  0.6334
55062SOL    HW273965  11.914   0.937   1.330 -0.8864 -1.0491 -1.1855
55063SOL     OW73966   7.812   6.507  10.319  0.3934 -0.0441  0.5249
55063SOL    HW173967   7.781   6.583  10.270  0.0655 -0.7303 -0.3717
55063SOL    HW273968   7.872   6.543  10.384  0.3142  0.9694  0.0597
55064SOL     OW73969   4.400   0.320   8.290 -0.4498  0.7165 -0.0467
55064SOL    HW173970   4.369   0.255   8.352 -0.2944  1.5541  0.9352
55064SOL    HW273971   4.493   0.300   8.277 -0.6637  0.0753 -0.6126
55065SOL     OW73972   1.319   2.349   1.226 -0.8437 -0.0668  0.7216
55065SOL    HW173973   1.262   2.295   1.281 -0.8583 -0.4526  0.3389
55065SOL    HW273974   1.405   2.308   1.234 -0.5868  0.5703  1.3733
55066SOL     OW73975  11.722   9.792   0.202 -0.1622 -0.0078  0.0376
55066SOL    HW173976  11.800   9.737   0.194 -0.4443 -0.3655 -0.2980
55066SOL    HW273977  11.702   9.819   0.112 -1.3642 -1.2476 -0.1050
55067SOL     OW73978   1.851   5.026  11.933  0.3215 -0.4266 -0.5127
55067SOL    HW173979   1.844   5.000  12.025 -1.7911 -2.6831 -1.2246
55067SOL    HW273980   1.940   4.999  11.908  1.0950  0.6318  0.9298
55068SOL     OW73981   1.964   4.962   8.923 -0.0819 -0.0727  0.6689
55068SOL    HW173982   1.885   4.979   8.872  0.3181  0.6370  0.2611
55068SOL    HW273983   1.989   5.047   8.959  0.1055 -0.4185  1.3748
55069SOL     OW73984  10.589   0.754   2.278 -0.2702 -0.3015 -0.1773
55069SOL    HW173985  10.587   0.675   2.224 -0.4616  0.0261 -0.6510
55069SOL    HW273986  10.556   0.726   2.363 -0.2803 -0.7436 -0.3251
55070SOL     OW73987   1.045   3.679   9.595 -0.6726 -0.5688 -0.0943
55070SOL    HW173988   1.123   3.630   9.568 -0.6737  0.0440 -1.2675
55070SOL    HW273989   1.079   3.763   9.624 -0.8515 -0.4540 -0.2131
55071SOL     OW73990   4.380   1.062   9.574 -0.3823  0.0569 -0.3717
55071SOL    HW173991   4.336   1.112   9.642  1.0972  1.3675 -0.3191
55071SOL    HW273992   4.387   0.973   9.609  2.2389  1.1377  2.2013
55072SOL     OW73993  10.685  11.353   3.019  0.4591 -0.4561 -0.1293
55072SOL    HW173994  10.686  11.449   3.025  2.0323 -0.4809  0.6545
55072SOL    HW273995  10.645  11.324   3.101 -2.5760 -0.4935 -1.5004
55073SOL     OW73996   3.607   8.621   9.430  0.2115  0.6438  0.3901
55073SOL    HW173997   3.516   8.589   9.428  0.4945 -0.1747 -0.9112
55073SOL    HW273998   3.647   8.575   9.504 -0.0703 -0.1123  0.0852
55074SOL     OW73999   3.094   8.584   4.299 -0.2403 -0.2338 -0.2719
55074SOL    HW174000   3.055   8.648   4.360  2.2689  2.4485 -1.2485
55074SOL    HW274001   3.026   8.518   4.287 -2.5252  1.5279  1.8935
55075SOL     OW74002  11.721   0.538  10.178  0.4660  0.3607 -0.0458
55075SOL    HW174003  11.695   0.628  10.158 -0.0857 -0.2198 -2.2440
55075SOL    HW274004  11.640   0.497  10.210  0.5047  0.4464  0.1583
55076SOL     OW74005   6.342   9.829  10.483  0.1142  0.2777  0.2803
55076SOL    HW174006   6.326   9.742  10.447  1.2975 -0.1175  0.6572
55076SOL    HW274007   6.392   9.874  10.414  0.5412  0.2393  0.5599
55077SOL     OW74008  11.363   0.971   9.501  0.3707 -0.4338 -0.0602
55077SOL    HW174009  11.414   0.958   9.421  0.2121  0.9544 -0.4131
55077SOL    HW274010  11.373   0.889   9.550  3.5030 -0.0365  0.2044
55078SOL     OW74011   1.144   5.797   1.154  0.8597  0.6647 -0.0752
55078SOL    HW174012   1.203   5.725   1.174 -0.6062 -0.0859  1.8845
55078SOL    HW274013   1.069   5.783   1.211 -1.1567  1.6859 -2.2732
55079SOL     OW74014  10.897   8.948   4.259 -0.3999 -0.1706 -0.5761
55079SOL    HW174015  10.936   8.903   4.185  0.6103  0.7481 -0.6379
55079SOL    HW274016  10.924   8.897   4.336 -2.4975 -1.8489 -0.8771
55080SOL     OW74017   0.452  10.443  12.337 -0.2162 -0.6955  0.0255
55080SOL    HW174018   0.497  10.491  12.268 -2.3417 -0.3270 -1.1980
55080SOL    HW274019   0.479  10.486  12.418 -0.5288  1.3231 -0.8863
55081SOL     OW74020   1.429   4.625   2.388  0.4040 -0.0229  0.1988
55081SOL    HW174021   1.399   4.580   2.467  0.9393 -0.1259  0.3474
55081SOL    HW274022   1.430   4.718   2.413  1.4815 -0.1334  0.6296
55082SOL     OW74023   1.406   8.171   9.225 -0.8404 -0.1478  0.0983
55082SOL    HW174024   1.363   8.165   9.139  0.7250 -0.0070 -0.7437
55082SOL    HW274025   1.421   8.080   9.251 -2.0741 -0.2082  0.6446
55083SOL     OW74026  12.174   4.237   5.349  0.2038  0.5042 -0.5892
55083SOL    HW174027  12.085   4.204   5.333  1.2422 -2.1787 -1.3686
55083SOL    HW274028  12.178   4.250   5.444 -0.4510 -1.2710 -0.2780
55084SOL     OW74029   0.568   7.845   8.168  0.2795 -0.2436  0.0469
55084SOL    HW174030   0.569   7.757   8.129 -0.6003 -1.0404  1.7035
55084SOL    HW274031   0.616   7.899   8.106 -0.5385 -1.5420 -1.8225
55085SOL     OW74032   6.817   6.182   7.139  0.4655  0.1370  0.1014
55085SOL    HW174033   6.808   6.129   7.060 -0.2053 -1.4438  1.1801
55085SOL    HW274034   6.907   6.167   7.167  0.6711  0.6142 -0.2878
55086SOL     OW74035  10.218   6.754  11.366 -0.2261 -0.7286  0.2357
55086SOL    HW174036  10.298   6.756  11.418 -0.7876 -1.7727  1.1626
55086SOL    HW274037  10.248   6.771  11.276  0.8942 -0.1140  0.7002
55087SOL     OW74038  10.542   4.700   7.989  0.0091 -0.3756 -0.1151
55087SOL    HW174039  10.560   4.776   8.045 -0.4542  0.3371 -0.8977
55087SOL    HW274040  10.451   4.712   7.963  0.4049 -0.3389 -1.5290
55088SOL     OW74041   0.192  11.832  11.306 -0.3005  0.3956  0.4134
55088SOL    HW174042   0.124  11.811  11.370  0.4532  0.1898  1.1659
55088SOL    HW274043   0.227  11.916  11.335  0.0140  0.3203  0.2562
55089SOL     OW74044   2.266  10.331   3.200 -0.0998 -0.2127  0.2519
55089SOL    HW174045   2.213  10.315   3.278  0.6225 -0.6092  0.6745
55089SOL    HW274046   2.253  10.424   3.182  0.6826  0.1838  1.5895
55090SOL     OW74047   8.876  11.592   2.132 -0.4755  0.4082 -0.2690
55090SOL    HW174048   8.829  11.674   2.145  1.6612  1.9577 -1.6254
55090SOL    HW274049   8.832  11.551   2.057  0.7014  2.2524 -2.0937
55091SOL     OW74050   3.364   6.344   8.567 -0.2575 -0.4614  0.0170
55091SOL    HW174051   3.286   6.367   8.518 -0.6748  0.2589  0.9850
55091SOL    HW274052   3.414   6.426   8.572  1.1945 -1.1740 -1.6517
55092SOL     OW74053   9.054   9.381   1.969  0.1531 -0.5815  0.5104
55092SOL    HW174054   9.072   9.366   1.876 -0.7772 -0.6557  0.3339
55092SOL    HW274055   8.977   9.327   1.988  1.0758 -1.5580  1.6388
55093SOL     OW74056   5.362   9.967   6.409 -0.5618 -0.2152  0.0755
55093SOL    HW174057   5.376  10.033   6.477 -1.9585 -0.7730  0.9595
55093SOL    HW274058   5.441   9.970   6.355  0.3575  0.6210  1.4134
55094SOL     OW74059   3.753   5.278  10.275 -0.2542  0.1460  0.5669
55094SOL    HW174060   3.768   5.310  10.364  0.5361  0.5438  0.3038
55094SOL    HW274061   3.714   5.192  10.287  0.2132  0.0244  1.3019
55095SOL     OW74062   9.975   4.070  10.852 -0.1432  0.1356  0.2745
55095SOL    HW174063   9.881   4.087  10.846 -0.0756  0.3132 -0.2626
55095SOL    HW274064  10.005   4.067  10.762  0.6991  1.9233  0.4585
55096SOL     OW74065   8.544   3.423   9.582 -0.6669 -0.3318  0.0864
55096SOL    HW174066   8.591   3.381   9.510  2.4685 -0.2087  1.8708
55096SOL    HW274067   8.556   3.364   9.656 -1.1617  0.9384  1.2247
55097SOL     OW74068   9.337   3.742   4.654  0.0481  0.0984  0.6131
55097SOL    HW174069   9.369   3.767   4.567  0.1473 -0.0841  0.5986
55097SOL    HW274070   9.380   3.659   4.673 -1.5483 -0.9490 -0.0651
55098SOL     OW74071   0.198   2.715  11.728 -0.1896  0.4077  0.4580
55098SOL    HW174072   0.198   2.793  11.782  0.8457  0.1319  0.8870
55098SOL    HW274073   0.112   2.714  11.686 -0.6406  1.1498  1.3376
55099SOL     OW74074   3.292   4.071   3.033 -0.1931  0.0581 -0.2463
55099SOL    HW174075   3.270   4.124   2.957  0.0380 -0.3616 -0.6172
55099SOL    HW274076   3.388   4.063   3.030  0.0634  1.7703  1.2771
55100SOL     OW74077   8.303   0.877   5.713 -0.4874 -0.8761 -0.0808
55100SOL    HW174078   8.390   0.860   5.677 -0.3840 -0.8708  0.1662
55100SOL    HW274079   8.255   0.917   5.640  0.0531  0.1403  0.0958
55101SOL     OW74080  11.629  11.536   3.510 -0.1935  0.3162  0.1390
55101SOL    HW174081  11.541  11.529   3.547 -0.9903 -0.0413 -1.7363
55101SOL    HW274082  11.675  11.460   3.543 -1.2666 -0.6676 -0.5596
55102SOL     OW74083   8.879   7.454   9.915 -0.5679  0.5106  0.1377
55102SOL    HW174084   8.878   7.371   9.962  0.3805  0.6736  0.4545
55102SOL    HW274085   8.856   7.432   9.825 -0.1817 -0.1130  0.1894
55103SOL     OW74086  10.060  10.588   7.978 -0.0200 -0.1990  0.6074
55103SOL    HW174087  10.150  10.618   7.992 -0.2079  0.3214  0.7493
55103SOL    HW274088  10.033  10.553   8.063 -0.4976  1.1599  1.0464
55104SOL     OW74089   5.071   9.296  11.476 -0.6773  0.0317  0.0520
55104SOL    HW174090   5.165   9.314  11.485 -0.0513 -1.2213 -2.6728
55104SOL    HW274091   5.059   9.212  11.520 -0.4589  0.0591  0.1686
55105SOL     OW74092  12.531   0.207   8.748 -0.4280 -0.0841  0.0464
55105SOL    HW174093  12.465   0.190   8.680 -0.0161  0.8792 -0.6219
55105SOL    HW274094  12.613   0.213   8.700 -0.3062  2.0338  0.4038
55106SOL     OW74095  11.050   5.423  10.985  0.3618 -0.2025  0.0367
55106SOL    HW174096  11.059   5.490  11.053  0.5296  0.3659 -0.5402
55106SOL    HW274097  11.101   5.349  11.017  0.1222 -0.0829  0.7124
55107SOL     OW74098   4.808  11.978   4.026  0.3751  0.0185 -0.4103
55107SOL    HW174099   4.857  12.002   3.947 -0.6405  0.1752 -1.0059
55107SOL    HW274100   4.719  12.007   4.009 -0.6571 -2.9333 -0.6213
55108SOL     OW74101   4.050   0.656   7.427  0.1201 -0.0205 -0.3349
55108SOL    HW174102   4.087   0.669   7.339  2.2307 -2.4595  0.1122
55108SOL    HW274103   4.101   0.715   7.483  0.7766 -0.6173 -0.3008
55109SOL     OW74104   1.312  10.793  11.973 -0.0189  0.2425 -0.1797
55109SOL    HW174105   1.359  10.840  12.042  2.0580 -1.5452 -0.2764
55109SOL    HW274106   1.294  10.707  12.011  0.5584 -0.5293 -1.6055
55110SOL     OW74107   2.593   7.368   0.883 -0.0281  0.0574  0.9465
55110SOL    HW174108   2.654   7.381   0.955  0.6885 -0.7297  0.4963
55110SOL    HW274109   2.647   7.370   0.805 -0.4657 -1.3084  0.5817
55111SOL     OW74110  12.487   9.359   3.862 -0.2528  0.3758 -0.6538
55111SOL    HW174111  12.417   9.298   3.886  1.2851 -1.0372  0.4823
55111SOL    HW274112  12.529   9.380   3.945  1.1419  0.5618 -1.3897
55112SOL     OW74113  10.087   6.400   3.951 -0.3490 -0.7272 -0.5691
55112SOL    HW174114  10.073   6.495   3.956  1.3761 -0.4990  1.0325
55112SOL    HW274115  10.074   6.379   3.858  2.0254  1.6145 -1.5640
55113SOL     OW74116  10.737   6.928  11.997 -0.1828  0.3460  0.1664
55113SOL    HW174117  10.743   6.998  12.062  3.3606 -1.2442  1.8259
55113SOL    HW274118  10.659   6.878  12.022 -0.6467  1.5638  1.2402
55114SOL     OW74119   5.033   6.091   3.449 -0.0837 -0.1850  0.1506
55114SOL    HW174120   4.942   6.111   3.428 -0.1526 -1.3903 -0.7865
55114SOL    HW274121   5.039   5.996   3.440  1.3873 -0.0712 -0.2570
55115SOL     OW74122  11.303   6.545   7.207  0.4925 -0.0126  0.5606
55115SOL    HW174123  11.235   6.556   7.140  0.4721  0.9162  0.7221
55115SOL    HW274124  11.343   6.460   7.187 -0.7493 -0.6013  0.5005
55116SOL     OW74125   3.374   5.104  12.021 -0.0179  0.0740  0.3294
55116SOL    HW174126   3.351   5.090  12.113 -0.7509 -1.7568 -0.0806
55116SOL    HW274127   3.291   5.126  11.979  0.4103  1.4903  0.1692
55117SOL     OW74128   1.653   5.014   6.916 -0.1057 -0.0515 -0.1209
55117SOL    HW174129   1.607   4.936   6.886 -1.5530  0.5607  0.4328
55117SOL    HW274130   1.704   4.984   6.992 -0.8381 -0.4316  0.2321
55118SOL     OW74131  11.653   0.401   1.687 -0.3537 -0.4730 -0.5878
55118SOL    HW174132  11.692   0.338   1.627  0.4752 -0.7617  0.2344
55118SOL    HW274133  11.699   0.483   1.671 -1.6443  0.0480 -1.8786
55119SOL     OW74134  12.102   7.452  10.534  0.5240  0.1452 -0.0567
55119SOL    HW174135  12.122   7.536  10.492  0.0005 -0.7100 -2.1261
55119SOL    HW274136  12.013   7.463  10.568  0.5382  0.5048 -0.1287
55120SOL     OW74137  11.094   7.483   2.685  0.5440  0.6842  0.4138
55120SOL    HW174138  11.009   7.441   2.672 -0.9947  3.2079  1.6433
55120SOL    HW274139  11.155   7.410   2.697 -1.7411 -1.2070  1.2817
55121SOL     OW74140   9.252   3.591   6.810 -0.3183 -0.2261  0.3340
55121SOL    HW174141   9.310   3.655   6.769  0.5589 -0.3963  1.2795
55121SOL    HW274142   9.310   3.529   6.853 -1.1592 -1.6175 -0.4481
55122SOL     OW74143   0.243   6.435   6.798 -0.3365 -0.1413  0.1999
55122SOL    HW174144   0.339   6.444   6.804 -0.2355 -0.5966 -0.5978
55122SOL    HW274145   0.228   6.399   6.710 -1.3067  0.8110 -0.0412
55123SOL     OW74146   3.378   1.731  12.429 -0.3285 -0.6114  0.0695
55123SOL    HW174147   3.375   1.636  12.440  0.4900 -0.5819  0.6405
55123SOL    HW274148   3.395   1.766  12.516  0.4392 -0.0120 -0.2990
55124SOL     OW74149   4.081   3.462  11.015 -0.3661  0.1172  0.6217
55124SOL    HW174150   4.017   3.392  11.002  1.3701 -1.8760  2.2078
55124SOL    HW274151   4.108   3.486  10.926 -2.0128 -0.1861 -0.0057
55125SOL     OW74152   2.236   9.288   9.786  0.0158  0.0186 -0.2225
55125SOL    HW174153   2.290   9.341   9.726  1.3935 -0.2675  0.7077
55125SOL    HW274154   2.297   9.223   9.821 -0.6679  0.3500  1.6866
55126SOL     OW74155   3.855   8.658  10.702  0.6893 -0.1873  0.6962
55126SOL    HW174156   3.851   8.753  10.705  1.3809 -0.1381  0.2127
55126SOL    HW274157   3.772   8.631  10.664  1.8710  0.4179 -2.5750
55127SOL     OW74158   1.788   3.906   5.416  0.6603  0.0483 -0.5220
55127SOL    HW174159   1.842   3.928   5.340  0.6607  0.2862 -0.4535
55127SOL    HW274160   1.850   3.900   5.488  0.6867 -0.3767 -0.5763
55128SOL     OW74161   5.982   8.331   2.910  0.4133  0.2730  0.4158
55128SOL    HW174162   5.919   8.261   2.923 -0.2900  0.9382  0.6060
55128SOL    HW274163   6.032   8.335   2.992  0.7514 -0.2894  0.2417
55129SOL     OW74164  11.925  11.787  12.591  0.0763 -0.2170 -0.1840
55129SOL    HW174165  11.964  11.720  12.535  1.8646  0.5444  0.1001
55129SOL    HW274166  11.874  11.841  12.530  1.0258 -0.1081 -0.9119
55130SOL     OW74167   8.931  12.304   4.519 -0.1272 -0.2642  0.0817
55130SOL    HW174168   8.979  12.232   4.479 -1.2398 -0.4668 -0.9839
55130SOL    HW274169   8.915  12.276   4.609  1.7995 -0.1291  0.5002
55131SOL     OW74170   0.439   7.238   0.719  0.5394  0.1711  0.2607
55131SOL    HW174171   0.474   7.163   0.670  0.3039  0.8679 -1.0278
55131SOL    HW274172   0.344   7.234   0.706  0.3268 -0.3622  1.7713
55132SOL     OW74173  11.840  11.271   6.106 -0.4502  0.2746 -0.2343
55132SOL    HW174174  11.909  11.233   6.161 -1.4179  1.2839  1.8125
55132SOL    HW274175  11.866  11.250   6.016  1.2187 -1.4903  0.5840
55133SOL     OW74176   3.809  11.373   6.094 -0.3328 -0.1784  0.3798
55133SOL    HW174177   3.765  11.428   6.029 -0.9097 -0.0719  0.8508
55133SOL    HW274178   3.842  11.434   6.159  1.7671 -0.1187 -0.6509
55134SOL     OW74179   4.920   1.835   5.791 -0.0277  0.1475 -0.2251
55134SOL    HW174180   4.934   1.808   5.700 -0.2386 -0.6523 -0.0319
55134SOL    HW274181   5.005   1.823   5.833 -0.2978 -0.9574  0.0336
55135SOL     OW74182   5.745   6.527  11.514  0.1099 -0.5062  0.5727
55135SOL    HW174183   5.808   6.558  11.579  1.8415  1.3557 -1.7952
55135SOL    HW274184   5.798   6.481  11.449 -1.0488  0.3551 -1.0582
55136SOL     OW74185   8.218   0.059   7.636  0.1623  0.3986 -0.4641
55136SOL    HW174186   8.229   0.142   7.589  0.3921  0.5759 -0.1133
55136SOL    HW274187   8.126   0.036   7.624 -0.1283  1.1679  0.1715
55137SOL     OW74188   2.094   4.868  12.282  0.2231  0.2042  0.0136
55137SOL    HW174189   2.180   4.874  12.323  0.6286 -2.0113 -0.3757
55137SOL    HW274190   2.114   4.853  12.189 -0.6153  0.9915 -0.3028
55138SOL     OW74191   8.824   4.998   1.586 -0.0436  0.2076 -0.0519
55138SOL    HW174192   8.808   5.089   1.562 -2.0286  0.0281  0.3787
55138SOL    HW274193   8.794   4.992   1.677  0.3779 -0.7938  0.0313
55139SOL     OW74194   5.655   8.406   0.870 -0.5476 -0.1921 -0.3578
55139SOL    HW174195   5.585   8.449   0.821 -0.2744  0.8050  0.1079
55139SOL    HW274196   5.660   8.317   0.833 -3.3258 -0.9518  0.8629
55140SOL     OW74197   2.203   8.253   2.046 -0.3898  0.7044 -0.5641
55140SOL    HW174198   2.171   8.300   1.968 -0.3273 -0.5685 -1.3938
55140SOL    HW274199   2.287   8.294   2.066  0.7970 -0.5044 -2.7004
55141SOL     OW74200  12.600  12.049   1.525 -0.6362  0.8654  0.0610
55141SOL    HW174201  12.650  11.968   1.535 -0.2855  0.8737 -1.3496
55141SOL    HW274202  12.581  12.077   1.615 -2.4661 -1.7803  0.6169
55142SOL     OW74203   7.051  11.278   6.505  0.4033  0.2444 -0.1136
55142SOL    HW174204   7.072  11.341   6.574  0.4607 -1.2214  1.2809
55142SOL    HW274205   6.959  11.295   6.484  0.5569  1.1121 -0.1222
55143SOL     OW74206  10.210   5.591   8.687  0.0119 -0.4252 -0.1195
55143SOL    HW174207  10.169   5.597   8.601  1.0375 -0.0360 -0.5944
55143SOL    HW274208  10.210   5.498   8.708  1.4562 -0.7451 -1.3944
55144SOL     OW74209   3.915   4.316   9.005 -0.5717  0.3887  0.4291
55144SOL    HW174210   3.930   4.235   9.053 -1.4335  0.3668  0.6830
55144SOL    HW274211   3.885   4.287   8.918  1.6090  0.4129 -0.4083
55145SOL     OW74212   1.832  11.620   5.170  0.0136  0.3243  0.2575
55145SOL    HW174213   1.837  11.572   5.087 -2.0683  1.0465 -0.3723
55145SOL    HW274214   1.876  11.564   5.233  0.5448 -0.8464 -1.0886
55146SOL     OW74215   2.771  11.735   4.287  0.4020  0.6574 -0.0456
55146SOL    HW174216   2.798  11.725   4.195 -0.3883  0.6225 -0.2774
55146SOL    HW274217   2.682  11.770   4.283  0.5040  1.0225  0.7169
55147SOL     OW74218   4.822   9.820   9.292  0.9526  0.1691  0.1689
55147SOL    HW174219   4.780   9.739   9.260  0.1890  0.6247 -0.0101
55147SOL    HW274220   4.916   9.800   9.289  0.7728 -0.7731  0.2967
55148SOL     OW74221   1.706   7.542   8.193 -0.3000 -0.2997 -0.0052
55148SOL    HW174222   1.771   7.505   8.252 -0.0915  1.7919  1.1893
55148SOL    HW274223   1.752   7.612   8.147 -0.9511 -0.7173 -1.3313
55149SOL     OW74224  12.315   1.391   8.473 -0.8370 -0.1554 -0.1604
55149SOL    HW174225  12.335   1.453   8.403 -1.8913 -0.0560 -0.3909
55149SOL    HW274226  12.388   1.398   8.534  0.4625 -0.7561 -1.5948
55150SOL     OW74227  11.189   5.512   0.091  0.0396  0.5731 -0.0943
55150SOL    HW174228  11.222   5.518   0.181 -0.3963 -1.6229  0.2699
55150SOL    HW274229  11.111   5.457   0.097  0.5809 -0.4924 -1.9318
55151SOL     OW74230   3.135   3.218   8.973 -0.3912  0.0320  0.0371
55151SOL    HW174231   3.209   3.277   8.982 -0.9114  0.6634  0.2164
55151SOL    HW274232   3.144   3.182   8.884  1.6285 -1.9685  0.9582
55152SOL     OW74233   6.553   0.608   1.577 -0.6506  0.4603 -0.6074
55152SOL    HW174234   6.461   0.601   1.554 -0.3663 -1.2592 -1.3639
55152SOL    HW274235   6.599   0.556   1.511  0.5081 -1.8436  1.8382
55153SOL     OW74236  11.961  11.254   4.456  0.6673  0.0828 -0.8577
55153SOL    HW174237  12.029  11.304   4.500  1.1819 -0.5450 -0.9326
55153SOL    HW274238  11.981  11.163   4.475  0.3743 -0.1536 -1.6327
55154SOL     OW74239   7.938   5.613   4.824  0.9770 -0.0564  0.1047
55154SOL    HW174240   7.916   5.536   4.878 -0.0056 -0.5046 -0.8840
55154SOL    HW274241   8.031   5.604   4.806  1.1790 -0.2469  1.1791
55155SOL     OW74242   7.132   6.285   9.485  0.0267 -0.5532 -0.1678
55155SOL    HW174243   7.108   6.258   9.573 -0.4056  0.6528  0.1104
55155SOL    HW274244   7.176   6.369   9.497  0.7218 -0.7875 -1.0320
55156SOL     OW74245   5.559   8.049   8.348  0.0133  0.3906 -0.3315
55156SOL    HW174246   5.640   8.058   8.297  1.2604 -3.5147  0.6005
55156SOL    HW274247   5.498   8.005   8.289  0.0331 -0.4067  0.2325
55157SOL     OW74248   4.852   5.228   8.065  0.1853  0.4375 -0.6722
55157SOL    HW174249   4.906   5.198   7.992  0.4212 -0.4853 -0.1299
55157SOL    HW274250   4.839   5.150   8.119  0.8263  1.3017  0.7855
55158SOL     OW74251   8.978   8.526   0.271 -0.0635  0.6776  0.4892
55158SOL    HW174252   9.062   8.498   0.234  0.4068 -0.1071  2.0832
55158SOL    HW274253   8.914   8.466   0.233  0.1499  0.9761 -0.3639
55159SOL     OW74254   2.303   5.468   9.351  0.0542 -0.3179  0.7399
55159SOL    HW174255   2.370   5.509   9.405 -0.6172 -0.4243  1.6816
55159SOL    HW274256   2.313   5.374   9.368 -1.7599 -0.2437  2.7065
55160SOL     OW74257  12.012   6.417   4.694 -0.1938  0.1578  0.4103
55160SOL    HW174258  12.013   6.475   4.770  0.7806  0.8771 -0.1286
55160SOL    HW274259  11.971   6.468   4.625  1.4789  0.5781 -0.3211
55161SOL     OW74260   0.032   9.042   1.255  0.6185  0.9909  0.1181
55161SOL    HW174261   0.123   9.063   1.277  1.1468 -0.8904 -0.1436
55161SOL    HW274262   0.001   8.990   1.328  0.2130  0.4212 -0.4508
55162SOL     OW74263   4.944   1.487   3.371 -0.0560 -0.2998  0.1501
55162SOL    HW174264   4.858   1.452   3.394 -0.6461  2.0643  1.8998
55162SOL    HW274265   4.989   1.496   3.455  1.6338 -0.7393 -0.6613
55163SOL     OW74266   5.427   4.301   8.133 -0.5789  0.0084  0.3263
55163SOL    HW174267   5.493   4.370   8.125  0.2985 -0.4223  3.0376
55163SOL    HW274268   5.344   4.348   8.134 -0.0871  0.8973  0.5767
55164SOL     OW74269   1.114   0.275   7.993  0.1834 -0.5924  0.2487
55164SOL    HW174270   1.057   0.336   7.946  0.3480  0.0520  0.8762
55164SOL    HW274271   1.116   0.197   7.938  1.6257  0.6801 -1.6430
55165SOL     OW74272   2.325   4.049   3.787 -0.4126 -0.0257 -0.1542
55165SOL    HW174273   2.339   3.984   3.718 -0.7729 -1.0192  0.6776
55165SOL    HW274274   2.275   4.119   3.744 -0.9400 -0.7835 -0.8190
55166SOL     OW74275   8.730   5.740  11.119 -0.0718  0.2035 -0.9365
55166SOL    HW174276   8.685   5.740  11.204  0.6382  0.8441 -0.5526
55166SOL    HW274277   8.666   5.702  11.058 -0.0875 -1.5853  0.1224
55167SOL     OW74278   5.480  11.026   5.581 -0.5334 -0.5953  0.7520
55167SOL    HW174279   5.452  10.996   5.494  0.0719  0.4161  0.1912
55167SOL    HW274280   5.413  11.089   5.607 -0.4157 -0.4840  0.7815
55168SOL     OW74281   3.561   9.624   4.160  0.9318 -0.5855  0.0074
55168SOL    HW174282   3.586   9.535   4.133  0.8552 -1.2008  1.8040
55168SOL    HW274283   3.557   9.674   4.078 -2.5975 -3.0539 -1.5984
55169SOL     OW74284  10.952   9.128  10.587 -0.1504 -0.8895  0.1740
55169SOL    HW174285  11.043   9.140  10.611 -0.3088  1.7842 -0.1785
55169SOL    HW274286  10.906   9.119  10.670  0.2300 -0.1207  0.4827
55170SOL     OW74287   2.655   8.863   4.850  0.0283 -0.3812 -0.0749
55170SOL    HW174288   2.619   8.849   4.762 -0.0160 -0.8890  0.0163
55170SOL    HW274289   2.658   8.958   4.861  1.3269 -0.2870 -1.1508
55171SOL     OW74290  10.027   3.307   4.462  0.1073  0.1041 -0.1216
55171SOL    HW174291   9.938   3.343   4.457 -0.0005 -0.3041 -2.6600
55171SOL    HW274292  10.084   3.383   4.461 -0.1988  0.3322 -0.4271
55172SOL     OW74293   5.032   8.425   5.718 -0.0659  0.9967 -0.8898
55172SOL    HW174294   5.001   8.341   5.684  1.9422 -0.9267  1.6424
55172SOL    HW274295   5.088   8.460   5.648 -0.1021 -0.3002 -1.6020
55173SOL     OW74296   3.488   9.035   0.608 -0.3562 -0.3046  0.3712
55173SOL    HW174297   3.428   9.085   0.552  1.7413  2.6269  0.4759
55173SOL    HW274298   3.461   9.055   0.697 -0.3518 -0.5224  0.4230
55174SOL     OW74299   6.224   4.518   1.940  0.1302 -0.2816 -0.1268
55174SOL    HW174300   6.261   4.597   1.900 -0.2339  0.1927  0.4511
55174SOL    HW274301   6.287   4.449   1.921  0.0525 -0.0344 -1.3622
55175SOL     OW74302   2.878   0.468   7.147  0.4184 -0.4792  0.5794
55175SOL    HW174303   2.957   0.421   7.121 -1.0118 -1.3946 -2.7717
55175SOL    HW274304   2.816   0.398   7.169 -0.5967 -0.0534 -0.7741
55176SOL     OW74305   1.348   0.988   1.719 -0.3294 -0.1754  0.2456
55176SOL    HW174306   1.288   1.001   1.792  0.0514  2.7437  0.1319
55176SOL    HW274307   1.436   0.992   1.758 -0.1304  1.0269 -0.2944
55177SOL     OW74308   7.023   7.353  11.033 -0.1447  0.4096 -0.3853
55177SOL    HW174309   7.052   7.331  10.945 -0.4699 -1.1239 -0.1318
55177SOL    HW274310   7.104   7.370  11.081  0.2160 -1.1126 -0.3967
55178SOL     OW74311   4.506   2.159   4.967 -0.1119  0.2879  0.6317
55178SOL    HW174312   4.594   2.122   4.957 -0.4904 -0.4721  0.0518
55178SOL    HW274313   4.482   2.140   5.058  1.2921  2.6970  1.6033
55179SOL     OW74314   2.822   1.332   8.282  0.2260 -0.4003  0.0916
55179SOL    HW174315   2.793   1.372   8.200 -2.1240  0.4745  1.2428
55179SOL    HW274316   2.752   1.270   8.305  0.9127 -0.7562  1.3308
55180SOL     OW74317   7.256  11.591   1.640  0.1132 -0.7174 -0.2931
55180SOL    HW174318   7.215  11.573   1.725 -1.6957  0.0766 -0.9486
55180SOL    HW274319   7.261  11.686   1.635  0.2440 -0.7574 -1.0387
55181SOL     OW74320   2.245   4.223  12.199  0.3874 -0.1650 -0.3240
55181SOL    HW174321   2.231   4.132  12.223  1.3252 -0.5837 -1.2778
55181SOL    HW274322   2.168   4.246  12.146  0.7406 -0.8100 -1.1432
55182SOL     OW74323   7.586   3.171   9.886  0.0973 -0.0908  0.6170
55182SOL    HW174324   7.572   3.244   9.947  1.1808  0.4679  0.2160
55182SOL    HW274325   7.536   3.099   9.924 -0.0712  0.5345  1.6260
55183SOL     OW74326  10.530   0.153   2.193  0.2311 -0.0308  0.4789
55183SOL    HW174327  10.437   0.173   2.192  0.4294  0.8969  0.0344
55183SOL    HW274328  10.541   0.088   2.124 -0.0716 -0.0965  0.4899
55184SOL     OW74329   1.983  11.179  10.887 -0.2170  0.2660  0.1766
55184SOL    HW174330   2.079  11.187  10.887 -0.2921  2.5703 -2.2232
55184SOL    HW274331   1.952  11.259  10.928 -1.1888 -0.9016  1.8406
55185SOL     OW74332   7.330   0.938   1.374 -0.1673  0.0871 -0.2045
55185SOL    HW174333   7.316   0.844   1.375 -0.7708  0.1719 -0.3325
55185SOL    HW274334   7.245   0.975   1.398  0.4988  0.5492  1.6408
55186SOL     OW74335   9.230   4.135   7.412 -0.2377 -0.0744  0.0724
55186SOL    HW174336   9.293   4.097   7.351  0.0747  1.9664 -0.9719
55186SOL    HW274337   9.282   4.162   7.487 -0.4644 -1.6311  0.8288
55187SOL     OW74338   2.814   5.052   4.557 -0.1599 -0.0557 -0.0482
55187SOL    HW174339   2.814   5.021   4.647 -0.7916 -0.0129 -0.0277
55187SOL    HW274340   2.721   5.055   4.533 -0.0785  1.1549 -0.2680
55188SOL     OW74341   4.589   3.835   6.102  0.1346 -0.1940  0.1459
55188SOL    HW174342   4.598   3.920   6.058 -0.7240  1.0840  2.3143
55188SOL    HW274343   4.667   3.828   6.157  0.7576 -1.3823 -0.8247
55189SOL     OW74344  11.045   2.598   5.882 -0.1909 -0.1174 -0.0562
55189SOL    HW174345  11.086   2.535   5.823  0.3901 -0.4922  0.7412
55189SOL    HW274346  10.967   2.554   5.915 -1.2060  0.5352 -1.4441
55190SOL     OW74347   7.280   7.690   7.037  0.4105  0.0829 -0.4872
55190SOL    HW174348   7.356   7.700   6.980  0.3312  0.0398 -0.6019
55190SOL    HW274349   7.240   7.608   7.008  1.3454 -0.8440  0.7777
55191SOL     OW74350   8.684   9.515   4.325 -0.1028 -0.3290  0.5993
55191SOL    HW174351   8.730   9.441   4.285 -1.5156 -0.9679  0.0883
55191SOL    HW274352   8.742   9.589   4.311  0.2240 -0.8580 -1.1636
55192SOL     OW74353  12.353   3.504  10.777 -0.4847 -0.8881  0.5022
55192SOL    HW174354  12.434   3.529  10.732 -0.8990  1.0210  0.7677
55192SOL    HW274355  12.364   3.537  10.866 -0.5383 -2.8261  1.2766
55193SOL     OW74356   3.578   9.376   6.156  0.3348 -0.7557 -0.3381
55193SOL    HW174357   3.591   9.363   6.250 -0.9597 -0.7722 -0.1475
55193SOL    HW274358   3.650   9.434   6.130  1.0328 -1.2034  0.5385
55194SOL     OW74359   6.394   0.326   3.010 -0.2573  0.0471 -0.1397
55194SOL    HW174360   6.472   0.270   3.015  0.3324  0.9595  1.6282
55194SOL    HW274361   6.425   0.406   2.968 -0.8091 -0.3977 -1.4796
55195SOL     OW74362   3.772   6.738   2.555  0.5635 -0.0898 -0.0009
55195SOL    HW174363   3.782   6.643   2.555  1.8969  0.0406  0.4172
55195SOL    HW274364   3.861   6.772   2.555  0.1000  1.1670  0.1754
55196SOL     OW74365  10.296   3.808   6.666  0.2217 -0.2531 -0.1514
55196SOL    HW174366  10.281   3.715   6.650 -0.5200  0.1323 -1.9154
55196SOL    HW274367  10.208   3.846   6.667  0.5544  0.5235 -0.0005
55197SOL     OW74368  12.228   8.921   8.008 -0.0452  0.0492 -0.0402
55197SOL    HW174369  12.135   8.900   8.002  0.2921 -2.0509  1.0274
55197SOL    HW274370  12.250   8.906   8.100  1.6359 -0.9078 -0.5616
55198SOL     OW74371   4.876  10.507  11.346  0.6657  0.4790 -0.0453
55198SOL    HW174372   4.842  10.594  11.369 -0.0211  0.8875 -2.3049
55198SOL    HW274373   4.822  10.446  11.395 -1.7276  1.2298 -1.5751
55199SOL     OW74374   6.697   3.937   8.451 -0.1491 -0.4564 -0.6386
55199SOL    HW174375   6.727   3.867   8.509 -2.5489  0.3518  1.8212
55199SOL    HW274376   6.692   3.897   8.365  0.7760 -2.6060  0.2316
55200SOL     OW74377   9.514   6.054   9.369 -0.5478 -0.9063 -0.1088
55200SOL    HW174378   9.585   6.032   9.430  0.1572 -0.3292 -0.7053
55200SOL    HW274379   9.516   5.984   9.304  1.3830  0.5474 -1.7385
55201SOL     OW74380   5.278   1.966   3.708  0.8376 -0.2889  0.8116
55201SOL    HW174381   5.211   1.903   3.680 -0.1829  0.4059  1.6028
55201SOL    HW274382   5.315   2.000   3.627 -1.3558  0.9585  0.2548
55202SOL     OW74383  10.448   1.343  10.900  0.2640  0.1424  0.7275
55202SOL    HW174384  10.420   1.273  10.840 -2.7115 -0.9717  3.1497
55202SOL    HW274385  10.495   1.296  10.970  1.7302  1.1314  0.4400
55203SOL     OW74386   4.392   4.627  11.030  0.1691  0.0342 -0.6549
55203SOL    HW174387   4.445   4.706  11.014  2.0418 -1.1591 -0.5643
55203SOL    HW274388   4.434   4.583  11.103 -0.7923 -1.1161 -0.7576
55204SOL     OW74389   3.317   5.724   3.163 -0.0445 -0.0598 -0.0122
55204SOL    HW174390   3.289   5.660   3.228  0.0846 -0.5921 -0.4688
55204SOL    HW274391   3.400   5.690   3.130 -0.4053 -0.1201 -0.8950
55205SOL     OW74392   6.834  10.186   0.491  0.0253 -0.3433  0.1571
55205SOL    HW174393   6.767  10.126   0.458  0.7609 -0.7528 -0.6571
55205SOL    HW274394   6.790  10.238   0.559 -0.6394 -1.7701  0.8474
55206SOL     OW74395   6.805   7.615   0.727  0.5179  0.0664 -0.5125
55206SOL    HW174396   6.754   7.648   0.800 -0.1444 -0.7864 -0.5616
55206SOL    HW274397   6.818   7.690   0.669  0.8041  0.6760  0.3334
55207SOL     OW74398   4.019   1.124  10.585 -0.5267 -1.1086  0.1084
55207SOL    HW174399   4.010   1.187  10.657 -0.2364 -0.1907 -0.6304
55207SOL    HW274400   3.934   1.127  10.541 -0.2171 -0.5119 -0.4785
55208SOL     OW74401  10.763   7.048   3.285  0.5310  0.1186  0.5283
55208SOL    HW174402  10.810   7.039   3.202  0.1952 -1.4920  0.4902
55208SOL    HW274403  10.788   6.972   3.336 -1.2701 -0.2929  0.8774
55209SOL     OW74404   4.097   7.995   6.339  0.3954  0.5982  0.1690
55209SOL    HW174405   4.022   8.009   6.397 -0.3724 -2.2304 -0.0025
55209SOL    HW274406   4.169   8.042   6.382 -0.6816  0.5112  2.2028
55210SOL     OW74407   3.207  11.787   8.706  0.0050  0.1512  0.3429
55210SOL    HW174408   3.119  11.758   8.726 -0.1884  0.4169 -0.1028
55210SOL    HW274409   3.195  11.859   8.643  0.5050  0.6719  0.8326
55211SOL     OW74410   9.773   8.298   0.230 -0.1281 -0.0265 -0.6555
55211SOL    HW174411   9.826   8.368   0.192 -2.3976  0.8465 -2.4064
55211SOL    HW274412   9.771   8.229   0.164 -1.8666  0.3402 -1.0305
55212SOL     OW74413   5.298  11.660   0.913 -0.3183 -0.1718  0.0588
55212SOL    HW174414   5.316  11.694   1.000 -0.1179 -0.1223  0.0005
55212SOL    HW274415   5.217  11.610   0.922 -0.8309  0.6563  0.0561
55213SOL     OW74416   2.688   5.993   9.840  0.3579  0.4571 -0.4255
55213SOL    HW174417   2.594   5.978   9.854  0.0972  0.3518 -2.0883
55213SOL    HW274418   2.707   6.072   9.890 -1.0596  1.5422 -1.4898
55214SOL     OW74419   9.441   9.526   0.885  0.2055 -0.7068  0.4856
55214SOL    HW174420   9.464   9.586   0.956 -0.5778 -0.2567  0.3669
55214SOL    HW274421   9.349   9.504   0.901  0.3586 -1.5232  0.2677
55215SOL     OW74422   6.242   9.444   4.192  0.1541  0.6302  0.1173
55215SOL    HW174423   6.149   9.446   4.216  0.1597 -0.7853  0.3747
55215SOL    HW274424   6.283   9.388   4.258  0.7005 -0.9010 -1.4185
55216SOL     OW74425   5.470   8.207  11.030 -0.3173 -0.6258  0.1692
55216SOL    HW174426   5.407   8.214  11.103 -0.4635 -1.2030  0.1038
55216SOL    HW274427   5.426   8.249  10.957  0.1573  0.6837  0.6132
55217SOL     OW74428   9.933   6.440   5.696 -0.2033 -0.1271 -0.3522
55217SOL    HW174429  10.001   6.393   5.648 -0.0045  0.2151 -0.4127
55217SOL    HW274430   9.869   6.466   5.629  0.2810  0.7107 -0.5084
55218SOL     OW74431   2.613   5.248   5.039  0.4604  0.7243  0.1173
55218SOL    HW174432   2.681   5.180   5.045  1.2447  1.5220  0.4784
55218SOL    HW274433   2.607   5.267   4.946 -0.0059 -0.0672 -0.0265
55219SOL     OW74434   4.619  11.325   8.531 -0.3530 -0.5447 -0.6821
55219SOL    HW174435   4.640  11.270   8.607 -1.4600 -2.0585 -1.4207
55219SOL    HW274436   4.675  11.402   8.541 -0.1616 -0.8945  1.4373
55220SOL     OW74437   6.881   6.540   4.835 -0.0958 -0.9551 -0.2538
55220SOL    HW174438   6.796   6.497   4.842 -1.3783  1.2467 -1.3143
55220SOL    HW274439   6.871   6.622   4.885  1.0476 -0.1616 -1.2537
55221SOL     OW74440   4.031  11.068   0.217 -0.2070 -0.0278  0.0933
55221SOL    HW174441   3.981  11.121   0.278  1.7729  0.6229  1.2344
55221SOL    HW274442   4.040  10.983   0.260  1.0023  0.3624  0.6561
55222SOL     OW74443  11.655   5.353   4.705 -0.7050 -0.4175 -0.2209
55222SOL    HW174444  11.611   5.420   4.758  0.8204 -0.3968  1.1139
55222SOL    HW274445  11.748   5.367   4.724 -0.3216 -2.6117 -0.2854
55223SOL     OW74446   1.001   4.951  10.041 -0.6524 -0.1845 -0.1156
55223SOL    HW174447   1.059   4.891   9.993 -0.3664 -0.8590  1.0257
55223SOL    HW274448   1.040   5.037  10.029  1.2859 -0.7525  1.5203
55224SOL     OW74449   1.111   5.970  11.582  0.5153 -0.3657  0.2896
55224SOL    HW174450   1.018   5.955  11.565  0.4234  1.3442 -0.9680
55224SOL    HW274451   1.123   5.946  11.674 -0.8788 -1.7893  0.1326
55225SOL     OW74452   9.760   1.708   9.190  0.2249  0.4057  0.5656
55225SOL    HW174453   9.713   1.748   9.263 -0.2330  1.5350 -0.3315
55225SOL    HW274454   9.799   1.781   9.142  1.5010 -0.3917  0.3172
55226SOL     OW74455   5.443  10.579   0.144 -0.3280 -0.2148  0.0144
55226SOL    HW174456   5.464  10.639   0.072 -0.3195  0.2437  0.3971
55226SOL    HW274457   5.369  10.620   0.189 -0.8205 -0.8712 -0.1738
55227SOL     OW74458   5.573   1.011   2.926  0.0041  0.0448 -0.0500
55227SOL    HW174459   5.572   1.107   2.924  0.3755  0.0771  0.6814
55227SOL    HW274460   5.659   0.989   2.964  0.0357 -0.5826 -0.4661
55228SOL     OW74461   2.589   2.458   4.732  0.2682  0.1898  0.6382
55228SOL    HW174462   2.593   2.502   4.647  2.2257 -0.1044  0.5486
55228SOL    HW274463   2.530   2.512   4.784 -0.8570  0.4513 -0.8365
55229SOL     OW74464   9.449   5.580   8.452 -0.0957 -0.0962 -0.8050
55229SOL    HW174465   9.524   5.566   8.509  0.5720  0.8837 -1.4110
55229SOL    HW274466   9.433   5.495   8.411 -0.9225 -0.9720  1.1877
55230SOL     OW74467   1.738   5.833  11.574  0.0011 -0.2924  0.5004
55230SOL    HW174468   1.657   5.884  11.581  0.6229  1.3711 -2.4191
55230SOL    HW274469   1.731   5.790  11.489  2.0476 -0.2826  0.2847
55231SOL     OW74470   1.141   3.337   4.567  0.2117 -0.3780  0.1897
55231SOL    HW174471   1.099   3.421   4.547  1.0656  0.3699  1.4189
55231SOL    HW274472   1.104   3.312   4.651  0.3157 -1.0043  0.0481
55232SOL     OW74473   8.743   6.866   4.416  0.1394 -0.1641 -0.8732
55232SOL    HW174474   8.777   6.835   4.332 -0.4756  1.2248 -1.6678
55232SOL    HW274475   8.706   6.952   4.396 -0.0472  0.1701  0.8243
55233SOL     OW74476   7.706   1.346   0.960  0.0667 -0.4085  0.1209
55233SOL    HW174477   7.644   1.332   1.031  0.2777 -0.4011  0.3071
55233SOL    HW274478   7.711   1.262   0.915  1.9698 -1.2229  1.7410
55234SOL     OW74479   3.977   2.173   4.145  0.2105  0.5294  0.3593
55234SOL    HW174480   3.897   2.225   4.152 -0.4333 -0.5423  1.4128
55234SOL    HW274481   4.042   2.233   4.109 -0.8384  1.6750  0.3127
55235SOL     OW74482   1.664   1.914   2.500  0.4895  0.3622  0.0591
55235SOL    HW174483   1.650   1.822   2.477  0.7773  0.7817 -2.0041
55235SOL    HW274484   1.674   1.914   2.595 -0.3493 -1.6228  0.1932
55236SOL     OW74485  11.936   5.210   0.617  0.1276 -0.1652  0.1170
55236SOL    HW174486  11.841   5.193   0.619  0.0747  0.1444  0.3561
55236SOL    HW274487  11.951   5.249   0.531  0.2212 -1.2210 -0.3597
55237SOL     OW74488   0.864   8.332   9.524 -0.1161 -0.1054  0.2661
55237SOL    HW174489   0.877   8.310   9.431  0.2596 -0.4148  0.3933
55237SOL    HW274490   0.867   8.248   9.569 -2.0814 -0.1634  0.3686
55238SOL     OW74491   3.781   4.899  10.945  0.1729 -0.0883  0.3000
55238SOL    HW174492   3.821   4.972  10.992  1.6778 -1.4525  1.2743
55238SOL    HW274493   3.816   4.906  10.856  1.5781 -0.4937  0.7994
55239SOL     OW74494  11.759   6.329   0.490 -0.0198  0.0084 -0.5341
55239SOL    HW174495  11.701   6.346   0.416  0.5210 -1.1108 -1.2501
55239SOL    HW274496  11.739   6.239   0.516  0.1044  0.2455  0.4118
55240SOL     OW74497   5.473   5.238   1.410 -0.0284  0.1700  0.2109
55240SOL    HW174498   5.467   5.279   1.496 -2.2765  1.8400 -0.6489
55240SOL    HW274499   5.519   5.302   1.355 -2.1883  0.9773 -0.7633
55241SOL     OW74500   3.284   7.742   5.458 -0.1727  0.3156 -0.5423
55241SOL    HW174501   3.345   7.699   5.399  1.4424  1.0622  0.4943
55241SOL    HW274502   3.266   7.677   5.526  0.9453  0.6690  0.1233
55242SOL     OW74503   2.299  11.447  11.038 -0.3995 -0.5481  0.5618
55242SOL    HW174504   2.296  11.391  10.960 -0.6883 -0.4071  0.4728
55242SOL    HW274505   2.274  11.533  11.007  0.4666 -0.2658  0.6130
55243SOL     OW74506   0.607   6.113   3.653  0.2658  0.2418  0.2022
55243SOL    HW174507   0.601   6.039   3.713  1.5451 -0.2344 -0.2327
55243SOL    HW274508   0.559   6.183   3.697 -0.3374 -0.6276  0.9528
55244SOL     OW74509   5.790   2.267  11.812  0.1219  0.6105 -0.5424
55244SOL    HW174510   5.769   2.182  11.773  0.0876  0.9372 -1.2457
55244SOL    HW274511   5.870   2.295  11.768  1.3367  0.0043  1.1646
55245SOL     OW74512   2.835   5.117  12.055 -0.1437 -0.5406  0.2183
55245SOL    HW174513   2.866   5.170  11.982  2.4717 -2.8239 -0.5038
55245SOL    HW274514   2.766   5.063  12.018  1.9494 -2.5318 -1.0703
55246SOL     OW74515   0.400   1.777   0.447  0.5535  0.1629 -0.1773
55246SOL    HW174516   0.418   1.797   0.355 -0.7004  1.0254 -0.2475
55246SOL    HW274517   0.474   1.815   0.495  1.5751 -0.8886 -0.8458
55247SOL     OW74518   1.181  10.830   4.038 -0.2143 -0.1312 -0.4088
55247SOL    HW174519   1.245  10.890   4.076  0.1893 -1.1578  0.5842
55247SOL    HW274520   1.104  10.884   4.021  0.8475  1.1067 -1.5213
55248SOL     OW74521  11.825   8.556   4.575  0.0214  0.2386  0.2751
55248SOL    HW174522  11.902   8.507   4.604 -0.1414 -0.3111 -0.1887
55248SOL    HW274523  11.795   8.603   4.653 -0.1174 -0.8043  0.8698
55249SOL     OW74524  10.883   4.361   4.524 -0.2068  0.1802 -0.0705
55249SOL    HW174525  10.919   4.320   4.603  0.9730 -1.5152 -1.4035
55249SOL    HW274526  10.927   4.445   4.518  1.9945 -0.9403 -0.4897
55250SOL     OW74527  11.643   7.684   6.549 -0.2129  0.2624  0.0218
55250SOL    HW174528  11.676   7.601   6.514 -0.6978  0.4575 -0.9273
55250SOL    HW274529  11.548   7.677   6.542 -0.2296  1.5334 -1.6381
55251SOL     OW74530   4.196   2.965  11.319  0.0990  0.6376 -0.0125
55251SOL    HW174531   4.167   2.990  11.232 -0.5752 -2.2141 -0.7088
55251SOL    HW274532   4.285   2.932  11.307 -0.6514 -1.5289 -0.0472
55252SOL     OW74533   6.670   3.725   8.273 -0.0675 -0.1766 -0.3465
55252SOL    HW174534   6.642   3.646   8.318  0.4045 -1.2046 -1.7756
55252SOL    HW274535   6.686   3.697   8.183 -0.2004  1.6172 -0.9767
55253SOL     OW74536   3.224   1.957   5.750 -0.6783 -0.3304  0.3572
55253SOL    HW174537   3.191   1.894   5.686 -0.6429  0.2935 -0.2865
55253SOL    HW274538   3.242   1.905   5.828 -1.2845 -1.0039  0.0561
55254SOL     OW74539  11.595   3.160   2.334  0.1559 -0.0061  0.0238
55254SOL    HW174540  11.535   3.096   2.295  0.1646  0.3483 -0.5741
55254SOL    HW274541  11.548   3.243   2.327  0.2152  0.0857  0.6511
55255SOL     OW74542   8.769  12.361   2.667  0.0398  0.3213  0.0965
55255SOL    HW174543   8.743  12.449   2.696 -1.3856  0.1623 -0.6519
55255SOL    HW274544   8.814  12.375   2.584  2.1560  0.5596  1.2161
55256SOL     OW74545  11.435  10.634  10.544 -0.1642 -0.3234 -0.1600
55256SOL    HW174546  11.461  10.568  10.480 -0.3314 -1.8879  1.3249
55256SOL    HW274547  11.342  10.648  10.528  0.1468  0.6420 -1.3727
55257SOL     OW74548  12.298   9.318   6.552  0.0582 -0.0165 -0.9878
55257SOL    HW174549  12.261   9.333   6.639 -0.9242 -0.3233 -1.3300
55257SOL    HW274550  12.339   9.401   6.528  2.0780 -0.5023  0.5502
55258SOL     OW74551   8.651   2.702   3.502 -0.3519  0.3480 -0.2037
55258SOL    HW174552   8.715   2.771   3.488 -0.7951  1.1039  1.3149
55258SOL    HW274553   8.579   2.723   3.442  0.3404  0.0880 -1.1453
55259SOL     OW74554   8.188   1.713   0.133 -0.1379  0.1959 -0.0651
55259SOL    HW174555   8.164   1.800   0.166 -0.2092 -0.3361  1.3585
55259SOL    HW274556   8.108   1.681   0.090  0.1088  1.1072 -1.2289
55260SOL     OW74557   3.392  10.358   5.720 -0.0019  0.3899 -0.5540
55260SOL    HW174558   3.431  10.279   5.683 -0.0371 -0.0858  0.3788
55260SOL    HW274559   3.467  10.408   5.754 -0.1494 -0.4256  1.0533
55261SOL     OW74560   6.910   3.850   0.728  0.0063 -0.0124 -0.3704
55261SOL    HW174561   6.861   3.775   0.762  0.0224  0.4071  0.6258
55261SOL    HW274562   7.000   3.817   0.718  0.2264  0.1122  0.9857
55262SOL     OW74563   3.633  12.150   4.956  0.2414  0.5165  0.1496
55262SOL    HW174564   3.727  12.144   4.971  0.5274 -1.2594 -1.8111
55262SOL    HW274565   3.596  12.166   5.043  2.2962  0.7819  1.0468
55263SOL     OW74566   4.834   2.658   7.030  0.8658  0.0801 -0.2447
55263SOL    HW174567   4.808   2.587   6.972  1.0113 -0.4290  0.2997
55263SOL    HW274568   4.777   2.649   7.106  0.7976  0.6283 -0.2296
55264SOL     OW74569   5.538   2.648   1.585  0.1689 -0.0843  0.4241
55264SOL    HW174570   5.539   2.563   1.542 -0.2705 -0.7308  1.6435
55264SOL    HW274571   5.451   2.684   1.565  0.1099 -0.2175  0.4408
55265SOL     OW74572   8.701  12.205   0.836 -0.0609 -0.1191  0.3500
55265SOL    HW174573   8.679  12.176   0.747  1.0397 -0.0122  0.0234
55265SOL    HW274574   8.620  12.243   0.870  0.0206  1.8613 -1.4303
55266SOL     OW74575   2.241   9.207   2.150 -0.4875 -0.4852  0.2512
55266SOL    HW174576   2.176   9.137   2.164 -0.6547 -0.5542 -0.7281
55266SOL    HW274577   2.318   9.179   2.199 -0.8139 -0.9821  0.4918
55267SOL     OW74578   8.657   0.680  11.915  0.0761 -0.3467 -0.0749
55267SOL    HW174579   8.600   0.665  11.990  1.0001 -0.4752  0.6135
55267SOL    HW274580   8.650   0.775  11.899  0.5199 -0.1761  0.7050
55268SOL     OW74581   4.099  10.027   9.293 -0.1414 -0.4394  0.2494
55268SOL    HW174582   4.075  10.106   9.245 -0.7851 -0.8732 -0.1680
55268SOL    HW274583   4.052  10.035   9.376  1.8020  0.8213  1.3112
55269SOL     OW74584   6.726  12.379   1.082  0.5031  0.3501 -0.5302
55269SOL    HW174585   6.746  12.472   1.066  1.4040  0.1711 -0.4784
55269SOL    HW274586   6.640  12.380   1.124 -1.0895  0.9740 -3.4937
55270SOL     OW74587   0.092   0.939   1.641  0.5938 -0.1565  0.3526
55270SOL    HW174588   0.051   0.995   1.707  1.2719  0.5817  0.1565
55270SOL    HW274589   0.029   0.938   1.569  0.5121  0.2430  0.4127
55271SOL     OW74590   4.981   4.358   0.585  0.0238 -0.1720 -0.2184
55271SOL    HW174591   4.907   4.298   0.584 -0.6049  0.4946  2.0511
55271SOL    HW274592   5.044   4.318   0.645  1.7658 -0.9190 -2.3704
55272SOL     OW74593  10.954  10.523   9.388  0.1110  0.3685  0.2552
55272SOL    HW174594  11.030  10.580   9.396  1.5207 -1.5353  1.4178
55272SOL    HW274595  10.984  10.438   9.422 -2.4331 -0.5564  0.4393
55273SOL     OW74596   9.357   3.210   2.501 -0.0106  0.0108  0.2853
55273SOL    HW174597   9.439   3.239   2.460 -0.8091  0.7655 -0.8344
55273SOL    HW274598   9.349   3.265   2.579  0.2159  0.4136  0.0291
55274SOL     OW74599   6.113  11.031   0.842  0.1103  0.2273 -0.0524
55274SOL    HW174600   6.155  11.092   0.781 -0.9799  1.7020  0.6279
55274SOL    HW274601   6.035  11.000   0.796 -0.1711  0.5566  0.2024
55275SOL     OW74602   8.672   1.221   7.929  1.1887  0.1284 -0.0178
55275SOL    HW174603   8.623   1.303   7.915  0.3049 -0.4205 -0.2333
55275SOL    HW274604   8.656   1.170   7.850  1.4003 -0.4130  0.2864
55276SOL     OW74605   4.565   5.393   4.692  0.1222 -0.2419  0.3236
55276SOL    HW174606   4.580   5.324   4.627 -1.7201 -0.2884 -0.0917
55276SOL    HW274607   4.482   5.432   4.667  1.4959  2.7778  0.0109
55277SOL     OW74608  11.643   2.296   9.264 -0.0418 -0.6436 -0.5257
55277SOL    HW174609  11.727   2.290   9.310  0.0770  0.7120 -0.4970
55277SOL    HW274610  11.580   2.320   9.332 -0.4932 -1.7900 -0.5225
55278SOL     OW74611   3.526   0.617   8.747  0.5503  0.0996  0.4309
55278SOL    HW174612   3.536   0.555   8.820  0.6811  1.0067  1.2078
55278SOL    HW274613   3.607   0.668   8.747  0.0072  0.9889  0.5095
55279SOL     OW74614   1.457   1.296   1.633  0.2567 -0.0143 -0.0911
55279SOL    HW174615   1.420   1.233   1.571 -2.1062  0.6701  0.5194
55279SOL    HW274616   1.469   1.376   1.582 -0.6167  0.2188  0.0608
55280SOL     OW74617   9.855   8.135  10.388 -0.4836 -0.5717  0.1670
55280SOL    HW174618   9.840   8.167  10.477  0.3680  1.9110 -0.4898
55280SOL    HW274619   9.907   8.055  10.399 -1.5733 -1.0979  1.9030
55281SOL     OW74620   8.463  12.293  10.838 -0.1832  0.6407  0.3102
55281SOL    HW174621   8.437  12.216  10.888 -1.1877 -0.2366 -1.4716
55281SOL    HW274622   8.490  12.357  10.905  1.1121 -1.3575  1.8156
55282SOL     OW74623   7.200  11.496   9.337 -0.0841 -0.2086  0.1436
55282SOL    HW174624   7.231  11.584   9.315 -0.4385  0.0695  0.7290
55282SOL    HW274625   7.106  11.500   9.325  0.0060 -0.8449 -0.9240
55283SOL     OW74626   4.802   3.160   8.484  0.3310  0.1038 -0.0958
55283SOL    HW174627   4.891   3.126   8.472  0.2994  0.3955 -1.3069
55283SOL    HW274628   4.805   3.205   8.569  1.1371 -0.5114  0.2148
55284SOL     OW74629   4.413   4.716   5.164 -0.3539 -0.0644  0.2114
55284SOL    HW174630   4.437   4.806   5.142  0.9234 -0.5134 -0.3108
55284SOL    HW274631   4.405   4.672   5.080 -0.3724 -0.5891  0.4853
55285SOL     OW74632   6.830   7.159   0.400 -0.0868 -0.2749 -0.0358
55285SOL    HW174633   6.829   7.253   0.413  2.1123 -0.3277  1.0178
55285SOL    HW274634   6.800   7.122   0.483 -0.7492 -0.5157 -0.3764
55286SOL     OW74635   7.220   2.793  12.278 -0.1933  0.0553  0.4242
55286SOL    HW174636   7.237   2.888  12.279 -0.6428  0.1419  0.2118
55286SOL    HW274637   7.148   2.783  12.217  1.3867 -0.6942 -1.4103
55287SOL     OW74638   2.948   9.094   6.709 -0.1319  0.0003 -0.6194
55287SOL    HW174639   2.875   9.140   6.750 -1.2853 -2.0093 -0.2721
55287SOL    HW274640   3.000   9.061   6.782  0.2348  0.0714 -0.8452
55288SOL     OW74641  11.148   1.780   7.608  0.1133 -0.4433 -0.5352
55288SOL    HW174642  11.183   1.805   7.694  0.5081 -2.5041 -0.0469
55288SOL    HW274643  11.164   1.857   7.553 -1.1932  1.3846  1.4820
55289SOL     OW74644   2.193   1.072   5.526  0.1251 -0.0841  0.1671
55289SOL    HW174645   2.201   1.024   5.608 -1.4328 -0.8661 -0.1096
55289SOL    HW274646   2.273   1.124   5.521 -0.1974  0.8152  2.7089
55290SOL     OW74647  11.821   5.885   9.460  0.6829  0.1549  0.1581
55290SOL    HW174648  11.894   5.907   9.401  0.9519 -1.5083 -0.1690
55290SOL    HW274649  11.748   5.867   9.402  0.3413  0.6107  0.4410
55291SOL     OW74650   6.450   3.558  10.353 -0.3482 -0.2995 -0.3463
55291SOL    HW174651   6.422   3.583  10.442 -0.4191  2.2793 -1.0038
55291SOL    HW274652   6.377   3.583  10.297 -0.3538 -2.0249 -1.1602
55292SOL     OW74653   4.332   6.907   0.374  0.2032  0.0520 -0.2931
55292SOL    HW174654   4.391   6.944   0.440  0.4439  0.9674 -0.9988
55292SOL    HW274655   4.298   6.827   0.415  1.0992  0.0738  0.5513
55293SOL     OW74656   0.619   4.862   1.440 -0.2254  0.0358 -0.3548
55293SOL    HW174657   0.681   4.823   1.378  1.4786 -0.5996  1.6222
55293SOL    HW274658   0.535   4.821   1.419  0.4870 -0.8541 -1.6198
55294SOL     OW74659   0.795   7.621   0.290 -0.0635 -0.2934 -0.1516
55294SOL    HW174660   0.749   7.611   0.206 -0.0998  0.5581 -0.2435
55294SOL    HW274661   0.888   7.623   0.266 -0.0528 -0.4853 -0.1260
55295SOL     OW74662   0.409   4.359   4.695 -0.5499 -0.3276  0.1274
55295SOL    HW174663   0.399   4.444   4.652 -0.8466 -1.1589 -1.5067
55295SOL    HW274664   0.389   4.377   4.787 -0.4200  1.4023 -0.1466
55296SOL     OW74665   4.802  11.636   3.095  0.4322 -0.3229  0.2586
55296SOL    HW174666   4.723  11.610   3.142  0.8859 -1.6386  0.3303
55296SOL    HW274667   4.857  11.676   3.162  0.3910 -0.6713  0.5042
55297SOL     OW74668   7.106  11.568   9.035  0.9715 -0.1617  0.1752
55297SOL    HW174669   7.094  11.622   9.113  0.9144 -1.4035  1.0526
55297SOL    HW274670   7.023  11.577   8.987  0.3993 -0.6032  1.0498
55298SOL     OW74671   1.208   1.851   7.122  0.1351  0.3559  0.8702
55298SOL    HW174672   1.189   1.938   7.087  0.0308  0.0179  0.0635
55298SOL    HW274673   1.128   1.801   7.106  0.8182 -0.4043 -0.3701
55299SOL     OW74674  11.052   2.865   7.394 -0.4579  0.2736 -0.0386
55299SOL    HW174675  11.045   2.906   7.307 -0.2837  0.0256 -0.1716
55299SOL    HW274676  10.981   2.903   7.444 -0.9151 -0.0035 -0.4666
55300SOL     OW74677   3.744   3.292   2.653 -0.2920 -0.0649  0.1732
55300SOL    HW174678   3.784   3.237   2.586 -2.6483 -1.0979 -0.5160
55300SOL    HW274679   3.801   3.282   2.730  1.2087 -0.6994 -0.9810
55301SOL     OW74680   3.640   3.829   3.613  0.0646 -0.0827  0.3506
55301SOL    HW174681   3.555   3.849   3.653  0.6965  4.6710 -0.1102
55301SOL    HW274682   3.703   3.878   3.666  2.2881 -1.7445 -0.5983
55302SOL     OW74683  10.340   8.300   0.755 -0.7044 -0.8924  0.4480
55302SOL    HW174684  10.291   8.231   0.800  0.4837 -1.5504  0.7766
55302SOL    HW274685  10.423   8.259   0.733 -0.8949 -0.2977 -1.5416
55303SOL     OW74686  11.611   0.826  11.572 -0.8003  0.1996  0.2711
55303SOL    HW174687  11.519   0.840  11.553 -1.0097  0.6464  1.5513
55303SOL    HW274688  11.656   0.843  11.489 -1.9431 -1.0934 -0.6585
55304SOL     OW74689   0.852  12.246   9.346  0.4551 -0.3378 -0.3847
55304SOL    HW174690   0.883  12.161   9.375  0.0859 -1.1872 -2.2877
55304SOL    HW274691   0.829  12.293   9.426  1.9633 -1.4936  0.7721
55305SOL     OW74692  10.058   2.583   8.612  0.2795  0.0341 -0.8033
55305SOL    HW174693  10.021   2.530   8.683 -0.9539 -1.7706 -2.6950
55305SOL    HW274694  10.085   2.519   8.546  3.4565  1.5037 -1.1402
55306SOL     OW74695   0.357  12.571   9.930  0.2726 -0.5984 -0.1672
55306SOL    HW174696   0.398  12.516   9.997 -2.0691 -1.1063  0.9602
55306SOL    HW274697   0.411  12.650   9.927  2.7214 -2.1776 -0.5899
55307SOL     OW74698   5.131   0.370   1.901  0.0054  0.2240  0.5337
55307SOL    HW174699   5.131   0.464   1.920 -1.2674  0.3640 -0.0332
55307SOL    HW274700   5.106   0.329   1.983 -1.3969  0.5425  0.3019
55308SOL     OW74701   3.823  12.336  10.848 -0.3921  0.2914 -0.5387
55308SOL    HW174702   3.869  12.302  10.771  2.4483 -0.2973  1.2380
55308SOL    HW274703   3.873  12.414  10.873 -0.1481 -0.5010  1.6420
55309SOL     OW74704  11.310   6.182   4.970 -0.2655  0.3221  0.0992
55309SOL    HW174705  11.342   6.193   5.059  0.0228  0.7995 -0.0553
55309SOL    HW274706  11.216   6.170   4.979 -0.0464 -1.2615  0.5769
55310SOL     OW74707   4.786   9.580   3.674 -0.2128 -0.1265  0.1921
55310SOL    HW174708   4.834   9.497   3.677  0.4893  0.2415 -0.4603
55310SOL    HW274709   4.767   9.600   3.766 -2.1801 -2.0019  0.2615
55311SOL     OW74710  11.744   5.649   2.343 -0.0712  0.0706  0.2369
55311SOL    HW174711  11.831   5.607   2.348 -0.6184 -1.0574  0.6971
55311SOL    HW274712  11.723   5.649   2.250 -1.3769 -3.6111  0.3726
55312SOL     OW74713   8.549   5.913   6.605  0.0365  0.5634  0.6040
55312SOL    HW174714   8.644   5.922   6.596  0.0647  0.0509  0.3265
55312SOL    HW274715   8.516   6.003   6.611  0.2618  0.9060 -2.0674
55313SOL     OW74716   6.285   9.909   5.279 -0.6867  0.3350  0.9052
55313SOL    HW174717   6.301   9.868   5.364 -1.7686 -0.3579  0.8045
55313SOL    HW274718   6.193   9.937   5.284 -0.3437  1.5888  0.4800
55314SOL     OW74719   6.964   9.064  11.925 -0.6789 -0.0755  0.1691
55314SOL    HW174720   6.985   9.076  12.018  1.0988  1.8672 -0.4260
55314SOL    HW274721   7.000   8.979  11.903  0.7242  0.3325  0.8004
55315SOL     OW74722   7.535  10.855   1.280 -0.1622 -0.1066 -0.6173
55315SOL    HW174723   7.623  10.820   1.267 -0.6754 -1.2276 -1.2055
55315SOL    HW274724   7.481  10.777   1.296 -1.1156  0.5351 -0.6689
55316SOL     OW74725   3.412   4.247   8.883 -0.0486 -0.8144  0.1544
55316SOL    HW174726   3.476   4.301   8.837 -0.6427 -1.5576 -1.6137
55316SOL    HW274727   3.332   4.300   8.884 -0.3462 -1.2419 -0.6708
55317SOL     OW74728   5.616   9.661   6.588  0.2535  1.2489  0.4125
55317SOL    HW174729   5.666   9.601   6.532 -3.7169 -1.1061 -1.0807
55317SOL    HW274730   5.643   9.639   6.677  2.0449  0.3821 -0.2982
55318SOL     OW74731   5.831   2.617   8.533  0.0546 -0.2143 -0.3430
55318SOL    HW174732   5.885   2.640   8.609  0.8389 -0.4595 -0.8125
55318SOL    HW274733   5.777   2.544   8.563 -0.0838  0.0908  0.1612
55319SOL     OW74734   0.302   0.080   0.361  0.0815  0.1916  0.3078
55319SOL    HW174735   0.391   0.079   0.328 -0.1808  0.0365 -0.4314
55319SOL    HW274736   0.310   0.093   0.455  0.9062 -0.4629  0.3347
55320SOL     OW74737   7.622   5.852   7.473  0.3027 -0.4706 -0.5701
55320SOL    HW174738   7.567   5.819   7.402  0.9236  0.7032 -1.6344
55320SOL    HW274739   7.560   5.869   7.545  0.0380 -4.7726  0.5135
55321SOL     OW74740   2.408   3.762   7.320  0.3306 -0.2301  0.2615
55321SOL    HW174741   2.470   3.689   7.320 -0.4622 -0.9125 -0.1813
55321SOL    HW274742   2.441   3.821   7.387  0.9134 -1.0597  0.7188
55322SOL     OW74743  11.225  11.309  11.100  0.7673  0.3669  0.6288
55322SOL    HW174744  11.265  11.323  11.186  0.9984 -0.2964  0.6354
55322SOL    HW274745  11.209  11.215  11.096  1.9233  0.1870 -0.5397
55323SOL     OW74746  11.297   2.061   3.090 -0.3039 -0.0683 -0.6975
55323SOL    HW174747  11.258   2.138   3.131  1.8356  0.6471  0.1531
55323SOL    HW274748  11.228   2.026   3.033 -2.0029  1.2813  0.4360
55324SOL     OW74749   6.131   9.258   6.801  0.2238  0.0145 -0.6079
55324SOL    HW174750   6.077   9.268   6.723 -0.4655  1.4443  0.0198
55324SOL    HW274751   6.106   9.172   6.837 -0.5725  0.0226 -1.1167
55325SOL     OW74752   1.945   2.242   0.788  0.0550 -0.4718 -0.1755
55325SOL    HW174753   1.911   2.162   0.827  0.3187 -0.1796  0.6777
55325SOL    HW274754   2.006   2.212   0.721 -0.8536 -0.9832 -0.7888
55326SOL     OW74755   8.337   2.942   8.171  0.6750  0.7631  0.4541
55326SOL    HW174756   8.396   2.926   8.097  0.5013 -1.5031  0.7226
55326SOL    HW274757   8.254   2.966   8.131  0.7974  0.3408 -0.0680
55327SOL     OW74758   7.668   1.119   3.053 -0.1707  0.8253  0.3042
55327SOL    HW174759   7.655   1.213   3.044  1.2511  0.8503 -2.2495
55327SOL    HW274760   7.720   1.094   2.977 -0.5715 -2.0632  0.8676
55328SOL     OW74761   7.089   4.628   8.635 -0.1123  0.2997  0.3535
55328SOL    HW174762   7.118   4.711   8.671 -0.7961  0.6771  0.0523
55328SOL    HW274763   7.022   4.651   8.570  0.7278 -0.3859 -0.8031
55329SOL     OW74764   9.598   9.412  10.251  0.2436 -0.1455  0.4266
55329SOL    HW174765   9.594   9.344  10.318 -1.9163 -0.8239 -0.3171
55329SOL    HW274766   9.542   9.380  10.181  0.9720  1.4011 -0.9329
55330SOL     OW74767   1.549   7.617   7.906  0.1123  1.1358 -0.2391
55330SOL    HW174768   1.568   7.538   7.854 -1.6941  0.3567  0.2033
55330SOL    HW274769   1.628   7.630   7.958  1.6861  1.5114 -2.6005
55331SOL     OW74770   9.318   2.221   1.743 -0.2567 -0.5552 -0.1998
55331SOL    HW174771   9.402   2.195   1.705  0.4469  2.7152 -1.1920
55331SOL    HW274772   9.341   2.285   1.811 -1.9348  0.3154 -0.4072
55332SOL     OW74773   1.783  10.346   7.017 -0.3678  0.5530  0.6368
55332SOL    HW174774   1.839  10.424   7.023 -0.5684  0.7309  0.1851
55332SOL    HW274775   1.752  10.332   7.106  0.3759  0.4669  0.8946
55333SOL     OW74776   5.367   9.292   1.712 -0.1955 -0.3578  0.4380
55333SOL    HW174777   5.441   9.232   1.711  0.5623  0.4690 -2.4109
55333SOL    HW274778   5.400   9.370   1.756  1.3088  0.6270 -2.1978
55334SOL     OW74779   2.505   9.164   8.004  0.7118 -0.2836 -0.4768
55334SOL    HW174780   2.547   9.078   8.013  2.9421  0.6931 -1.0287
55334SOL    HW274781   2.428   9.147   7.950  0.6068 -2.0634  0.1425
55335SOL     OW74782   1.861   2.344   0.125  0.5799  0.4765 -0.7281
55335SOL    HW174783   1.849   2.369   0.034  1.2296  2.0370 -0.4180
55335SOL    HW274784   1.803   2.403   0.174 -0.3252 -0.8294 -0.1555
55336SOL     OW74785  12.248   2.992   4.403 -0.7649 -0.4397  0.1218
55336SOL    HW174786  12.203   3.044   4.469 -0.0131 -0.3128  0.5398
55336SOL    HW274787  12.212   2.903   4.415 -0.6331 -0.4174  0.6957
55337SOL     OW74788  10.992   8.656   1.981 -0.5622  0.3188  0.1249
55337SOL    HW174789  11.053   8.697   1.920  0.4138 -0.6831  0.3957
55337SOL    HW274790  10.921   8.624   1.925 -0.3005  0.5196 -0.3348
55338SOL     OW74791   3.804   1.126   9.018  0.0920 -0.4205 -0.1089
55338SOL    HW174792   3.803   1.217   8.987 -0.4775 -0.0736  0.8833
55338SOL    HW274793   3.815   1.074   8.938 -1.3285  0.4337 -0.8994
55339SOL     OW74794   4.564   8.686   5.969 -0.2878  0.3466 -0.1461
55339SOL    HW174795   4.474   8.653   5.977 -0.2860  0.3487 -0.1182
55339SOL    HW274796   4.563   8.740   5.890 -0.3046  0.3248 -0.1606
55340SOL     OW74797   5.842   4.262   0.824  0.3229 -0.5908  0.4453
55340SOL    HW174798   5.788   4.341   0.827 -0.6754 -1.1519 -1.3126
55340SOL    HW274799   5.817   4.212   0.902 -0.9859 -0.3705  0.1909
55341SOL     OW74800  10.205   1.636   4.363  0.1801 -0.1634  0.0643
55341SOL    HW174801  10.197   1.546   4.394  1.7934 -0.9799 -1.7111
55341SOL    HW274802  10.204   1.629   4.268 -0.7224  1.8474 -0.1331
55342SOL     OW74803  11.364   7.046   3.642 -0.8003  0.3901  0.2418
55342SOL    HW174804  11.431   7.080   3.701 -0.2307 -0.0703 -0.1281
55342SOL    HW274805  11.316   7.123   3.611  0.4037  0.8594 -0.5024
55343SOL     OW74806  10.077   6.037   9.983  0.0891 -0.4772 -0.4705
55343SOL    HW174807  10.061   6.075  10.069 -1.7149  1.4928 -1.5746
55343SOL    HW274808  10.145   6.092   9.944  1.3492 -1.7408 -0.1139
55344SOL     OW74809   9.729   5.075   2.427  0.2138  0.4405 -0.0869
55344SOL    HW174810   9.822   5.064   2.409  0.2406 -1.1352  0.8078
55344SOL    HW274811   9.685   5.038   2.351  0.3516 -1.2583  0.5990
55345SOL     OW74812   0.853   1.575  12.562  0.4470  0.4842  0.2646
55345SOL    HW174813   0.838   1.531  12.479  0.9063  0.7538  0.0385
55345SOL    HW274814   0.855   1.505  12.627 -0.5595  0.3273  0.1392
55346SOL     OW74815   2.985   0.651   9.205 -0.2228  0.0172  0.0120
55346SOL    HW174816   2.920   0.589   9.235 -0.5058  0.6953  0.8531
55346SOL    HW274817   3.050   0.598   9.159 -0.5824 -0.8608  0.4959
55347SOL     OW74818   2.059   6.016  11.148 -0.4984 -0.2977  0.7596
55347SOL    HW174819   2.086   5.981  11.064 -1.6158 -0.8160  0.6069
55347SOL    HW274820   2.093   6.106  11.148  0.3949 -0.6151  0.2075
55348SOL     OW74821   5.635   9.901   6.471  0.3220  0.0769  0.1756
55348SOL    HW174822   5.641   9.948   6.554  1.3855 -0.1434  0.2342
55348SOL    HW274823   5.640   9.808   6.495  0.7548  0.0150 -0.1390
55349SOL     OW74824   4.124   6.155   0.432  0.5813  0.1087  0.0617
55349SOL    HW174825   4.102   6.095   0.361  1.0518  0.0537 -0.0416
55349SOL    HW274826   4.047   6.155   0.488  0.5451 -0.5253  0.0175
55350SOL     OW74827   1.552   1.589   2.582 -0.3355  0.7319  0.6031
55350SOL    HW174828   1.470   1.637   2.595 -0.8084 -0.0972  0.8409
55350SOL    HW274829   1.590   1.583   2.669  0.1211  1.3615  0.4459
55351SOL     OW74830  10.784   7.199   6.388 -0.1541 -0.1368 -0.6134
55351SOL    HW174831  10.824   7.134   6.330  0.0572 -0.5187 -0.0410
55351SOL    HW274832  10.786   7.280   6.337  0.8962 -0.2536 -0.7827
55352SOL     OW74833  11.577  11.646  10.130 -0.3432 -0.0802  0.0979
55352SOL    HW174834  11.577  11.578  10.062 -0.5976 -0.3231  0.3407
55352SOL    HW274835  11.660  11.633  10.176 -0.7763 -0.7996  0.7066
55353SOL     OW74836   0.545   5.491   7.140 -0.1842  0.0701  0.0066
55353SOL    HW174837   0.594   5.499   7.058 -1.0220  1.6204 -0.3807
55353SOL    HW274838   0.604   5.444   7.199  1.3339  0.9171 -0.7744
55354SOL     OW74839   8.977   0.918   2.872 -0.2446 -0.1013  0.0206
55354SOL    HW174840   8.916   0.989   2.853 -0.6250 -0.7742 -1.4337
55354SOL    HW274841   9.014   0.940   2.958 -2.2362  0.5200  0.7799
55355SOL     OW74842   2.651   4.679   5.740  0.3993 -0.0020  0.4825
55355SOL    HW174843   2.649   4.624   5.662 -1.1059  0.8333 -0.1191
55355SOL    HW274844   2.646   4.617   5.813  2.6693 -0.8350  0.0076
55356SOL     OW74845   4.432  12.426   4.165 -0.1671 -0.3832 -0.1248
55356SOL    HW174846   4.457  12.401   4.254  1.3456 -0.5561 -0.5657
55356SOL    HW274847   4.420  12.521   4.170  2.3332  0.0147 -0.2062
55357SOL     OW74848   5.210   4.659   0.480  0.9502 -0.1065 -0.2190
55357SOL    HW174849   5.241   4.588   0.425  0.2831 -1.5616  1.1971
55357SOL    HW274850   5.279   4.671   0.545  1.3853  1.0658 -0.8638
55358SOL     OW74851   1.658   9.956   2.647  0.2871 -0.4806  0.1188
55358SOL    HW174852   1.584  10.016   2.654  0.3315 -0.4454  0.2823
55358SOL    HW274853   1.649   9.917   2.560  0.8121  0.4851 -0.3831
55359SOL     OW74854   5.608  10.571   5.547 -0.1894  0.0673 -0.1996
55359SOL    HW174855   5.683  10.580   5.605  1.0323 -0.8012 -1.5835
55359SOL    HW274856   5.604  10.478   5.527 -1.2282  0.2068 -0.7035
55360SOL     OW74857   2.020   0.857  11.710 -0.3845 -0.7796 -0.4653
55360SOL    HW174858   2.057   0.884  11.626  1.9738 -1.1040  0.3850
55360SOL    HW274859   1.993   0.766  11.696 -0.3323 -0.7200 -0.9771
55361SOL     OW74860   5.913  10.538   8.810 -0.4784  0.1292 -0.9185
55361SOL    HW174861   5.865  10.509   8.888 -0.7198  1.5880 -0.4970
55361SOL    HW274862   5.853  10.523   8.738 -0.5706 -0.4606 -0.7252
55362SOL     OW74863   8.289  11.573   1.572  0.3760 -0.0327  0.1751
55362SOL    HW174864   8.377  11.585   1.608  0.9340  0.7885 -1.3833
55362SOL    HW274865   8.246  11.515   1.634  2.8095 -2.4799 -0.2304
55363SOL     OW74866  11.831   6.798   2.887  0.4743 -0.6238  0.3473
55363SOL    HW174867  11.752   6.787   2.940  0.9945 -0.2766  1.2203
55363SOL    HW274868  11.812   6.752   2.805 -1.2522  0.7864 -0.1174
55364SOL     OW74869   7.633  10.803   2.204 -0.2593  0.2475  0.8297
55364SOL    HW174870   7.570  10.875   2.207 -1.2290 -0.5687  0.8909
55364SOL    HW274871   7.595  10.737   2.263 -0.3655 -1.0537 -0.6243
55365SOL     OW74872   5.156   0.718   7.542 -0.0151  0.2886  0.1662
55365SOL    HW174873   5.116   0.791   7.493 -2.0442 -1.0809 -0.3212
55365SOL    HW274874   5.185   0.657   7.474 -0.4507 -0.4076  0.5911
55366SOL     OW74875   7.545   3.408  11.825  0.9334 -0.6054  0.3126
55366SOL    HW174876   7.460   3.413  11.782  1.7287  3.8747 -1.2606
55366SOL    HW274877   7.541   3.475  11.894  2.0721 -2.8519  2.7480
55367SOL     OW74878   0.120   4.593   1.014  0.1047  0.1816  0.2597
55367SOL    HW174879   0.047   4.532   1.000  0.8578 -0.4123 -1.3885
55367SOL    HW274880   0.166   4.595   0.930  3.2778 -1.1572  1.7890
55368SOL     OW74881   9.731   2.263  10.812 -0.3045 -0.1772  0.2656
55368SOL    HW174882   9.688   2.315  10.744 -1.7855  1.7726  2.5313
55368SOL    HW274883   9.824   2.283  10.802 -0.4885  0.0866 -1.1339
55369SOL     OW74884  10.333   0.617   0.840 -0.3219  0.3257 -0.1999
55369SOL    HW174885  10.353   0.711   0.845 -2.4329  0.9384 -1.6146
55369SOL    HW274886  10.390   0.583   0.772  2.7885 -0.2483  2.4290
55370SOL     OW74887  11.486   9.240   6.289  0.3210 -0.1263 -0.5907
55370SOL    HW174888  11.560   9.295   6.316  0.4030 -0.1197 -0.8299
55370SOL    HW274889  11.471   9.182   6.363  2.2283 -1.9083 -1.4892
55371SOL     OW74890   2.093   6.582   2.175  0.4457  0.2014  0.6525
55371SOL    HW174891   2.037   6.656   2.152  0.0261 -0.0469  0.8701
55371SOL    HW274892   2.141   6.612   2.252  0.3029  0.2620  0.7188
55372SOL     OW74893   0.755   1.672   8.993  0.2324  0.3858  0.2289
55372SOL    HW174894   0.699   1.677   8.915  1.3975 -0.0427 -0.6581
55372SOL    HW274895   0.707   1.614   9.052 -0.8390  0.9916  0.0008
55373SOL     OW74896   8.388   1.611   2.505  0.4339 -0.0736 -0.2986
55373SOL    HW174897   8.334   1.619   2.427 -1.1593 -3.0435  0.3189
55373SOL    HW274898   8.330   1.639   2.577  1.4125  1.3213 -0.0198
55374SOL     OW74899   0.468  10.214   4.404 -0.5581  0.0148  0.6725
55374SOL    HW174900   0.550  10.175   4.373 -0.6302  0.6088 -0.3309
55374SOL    HW274901   0.474  10.210   4.500  0.9210  0.5666  0.6380
55375SOL     OW74902  11.190   4.798   3.709  0.5902 -0.2886  0.0985
55375SOL    HW174903  11.252   4.834   3.646 -0.4082  0.8975 -0.2473
55375SOL    HW274904  11.184   4.864   3.778 -0.7279 -0.0810 -0.1808
55376SOL     OW74905   0.042   8.417   9.287  0.0822  0.3506 -0.2890
55376SOL    HW174906   0.116   8.420   9.348 -0.7868 -0.2485  0.8421
55376SOL    HW274907   0.048   8.499   9.238  1.2262  0.5165  0.0928
55377SOL     OW74908  11.029  11.201   9.262  0.4773  0.0770 -0.3359
55377SOL    HW174909  11.121  11.187   9.285  0.3643  0.8166  0.6388
55377SOL    HW274910  11.024  11.294   9.240 -0.3720  0.5015  1.4564
55378SOL     OW74911   6.331  10.576   9.952 -0.0672 -0.0046 -0.0206
55378SOL    HW174912   6.315  10.649   9.893 -0.5189 -0.0993 -0.0207
55378SOL    HW274913   6.423  10.554   9.940 -0.4598 -0.8825 -1.6918
55379SOL     OW74914  10.620   2.505  11.153  0.4182 -0.1232  0.3212
55379SOL    HW174915  10.614   2.521  11.059  0.1238 -2.2210 -0.0684
55379SOL    HW274916  10.546   2.553  11.191  1.2894  1.7964 -0.3231
55380SOL     OW74917   9.595   1.039   2.762  0.0937  0.1228 -0.7170
55380SOL    HW174918   9.601   0.953   2.722  2.3617  0.0646 -0.3977
55380SOL    HW274919   9.613   1.024   2.855  0.0683  0.8684 -0.5828
55381SOL     OW74920   3.195   3.019  12.510 -0.0632  0.5161  0.2939
55381SOL    HW174921   3.247   2.951  12.552 -2.3395 -1.7188 -0.2594
55381SOL    HW274922   3.249   3.050  12.437  0.5566 -1.6511 -0.2260
55382SOL     OW74923   9.413   1.162   6.258  0.1310  0.4066  0.1929
55382SOL    HW174924   9.450   1.238   6.213  1.0043  0.1089  0.3704
55382SOL    HW274925   9.358   1.120   6.192  1.4283 -0.0504 -0.6600
55383SOL     OW74926   1.959  11.331   9.771  0.7715  0.0714 -0.1223
55383SOL    HW174927   1.916  11.250   9.743  0.7402  0.1535 -0.3161
55383SOL    HW274928   2.011  11.305   9.848  1.4657 -0.3371 -0.7064
55384SOL     OW74929   1.795   9.989   8.963  0.5558 -0.0118  0.0876
55384SOL    HW174930   1.801  10.083   8.946  1.3043 -0.2028 -0.7795
55384SOL    HW274931   1.796   9.949   8.876 -0.2135 -0.8046  0.4306
55385SOL     OW74932   8.282   6.763   9.197  0.6103  0.1248 -0.1499
55385SOL    HW174933   8.356   6.707   9.223  0.4376  0.3369  0.8244
55385SOL    HW274934   8.316   6.852   9.203 -0.0040  0.2853  1.3014
55386SOL     OW74935   8.040   6.052  12.007  0.0577  0.3825  0.1804
55386SOL    HW174936   8.049   6.035  12.101  1.1147  0.2599  0.0628
55386SOL    HW274937   8.106   6.119  11.988  1.4472 -1.2381 -0.9090
55387SOL     OW74938   5.857   9.602   9.217  0.1267  0.7157  0.3590
55387SOL    HW174939   5.796   9.628   9.286 -0.0799 -1.0171  0.8733
55387SOL    HW274940   5.940   9.587   9.262  0.3828  0.9920 -0.0093
55388SOL     OW74941   5.054   9.414   2.126  0.6916  0.1978 -0.2160
55388SOL    HW174942   5.071   9.486   2.187 -1.5235  0.9314 -0.3946
55388SOL    HW274943   4.972   9.437   2.083 -0.0686 -2.4015 -0.3468
55389SOL     OW74944  12.134   4.814  11.084  0.8774 -0.7703 -0.0115
55389SOL    HW174945  12.114   4.776  10.998 -2.3106  0.1074  0.2186
55389SOL    HW274946  12.185   4.892  11.064  1.1539 -1.1841 -1.0052
55390SOL     OW74947   3.749   1.221   1.566 -0.2442 -0.0190 -0.1736
55390SOL    HW174948   3.801   1.141   1.553  2.3366  1.0389  2.4849
55390SOL    HW274949   3.693   1.200   1.641  0.4577  0.5962  0.5455
55391SOL     OW74950   0.678   3.474   4.167 -0.2219  0.3971  0.2843
55391SOL    HW174951   0.656   3.391   4.126  0.8536  0.1907  0.0819
55391SOL    HW274952   0.633   3.474   4.251 -0.5317 -0.2249  0.1172
55392SOL     OW74953   4.380   1.161   1.400  0.7511 -0.1282  0.5496
55392SOL    HW174954   4.354   1.142   1.310 -1.5942  0.5858  1.0285
55392SOL    HW274955   4.304   1.202   1.440  2.0566  0.4697  2.6119
55393SOL     OW74956   0.468   9.298   6.524  0.3476 -0.1249 -0.0165
55393SOL    HW174957   0.398   9.363   6.522  0.0639 -0.2725  2.4525
55393SOL    HW274958   0.527   9.329   6.592  1.2521 -1.4572 -0.1630
55394SOL     OW74959   6.381   8.499  10.758 -0.0889  0.4096  0.5437
55394SOL    HW174960   6.316   8.510  10.828  1.4760  0.3202  2.0783
55394SOL    HW274961   6.392   8.404  10.750 -0.6878  0.3990 -0.2639
55395SOL     OW74962   6.877   8.252   2.424 -0.8051  0.8839  0.3533
55395SOL    HW174963   6.853   8.251   2.517 -4.3411 -1.5624 -0.3587
55395SOL    HW274964   6.816   8.315   2.384  1.2638  2.5856 -0.2919
55396SOL     OW74965   6.666  10.052   6.146  0.3892  0.6648 -0.0080
55396SOL    HW174966   6.613   9.987   6.192  0.4211  1.2358  0.8730
55396SOL    HW274967   6.604  10.099   6.091  0.3692 -0.1091 -0.6494
55397SOL     OW74968  11.125   0.133   3.658  0.1134  0.4202 -0.5242
55397SOL    HW174969  11.096   0.074   3.588 -0.8891 -1.3205  1.2418
55397SOL    HW274970  11.184   0.080   3.712 -0.3140  1.1992  0.7658
55398SOL     OW74971   1.017   2.873   5.364 -0.2295 -0.3065 -0.3221
55398SOL    HW174972   1.055   2.793   5.400  0.7165 -0.1560 -0.9385
55398SOL    HW274973   1.039   2.870   5.271 -0.9115  0.2661 -0.5131
55399SOL     OW74974  12.529   3.357   0.803 -0.3348  0.1441 -0.3698
55399SOL    HW174975  12.525   3.441   0.758  1.8172  0.8800  0.6849
55399SOL    HW274976  12.619   3.326   0.790 -0.3256 -0.7268  1.4200
55400SOL     OW74977   1.845   2.199   3.481  0.5152 -0.6981 -0.2516
55400SOL    HW174978   1.832   2.114   3.440  0.5415 -0.8419  0.0418
55400SOL    HW274979   1.810   2.190   3.569  0.0608 -0.2557 -0.3835
55401SOL     OW74980   2.660   5.328   4.512 -0.0360  0.6443  0.5247
55401SOL    HW174981   2.666   5.278   4.431  1.2308 -0.5155  1.2775
55401SOL    HW274982   2.568   5.353   4.519 -0.3589 -0.1093 -0.7433
55402SOL     OW74983   4.112  11.168  11.954  0.0601  0.1988  0.0083
55402SOL    HW174984   4.067  11.096  11.996  0.5380  0.1637  0.4719
55402SOL    HW274985   4.043  11.231  11.932 -0.4190 -0.6128 -0.8469
55403SOL     OW74986   0.769   0.859   1.781 -0.0619 -0.2803  0.5160
55403SOL    HW174987   0.820   0.906   1.846  0.6073  0.6018 -0.5988
55403SOL    HW274988   0.682   0.851   1.819  0.3044  0.2191  1.4965
55404SOL     OW74989   5.493   3.210   6.887  0.2380 -0.0818  0.4625
55404SOL    HW174990   5.579   3.250   6.899 -0.8038  2.6994 -0.5872
55404SOL    HW274991   5.504   3.151   6.812  1.0309  1.0154 -0.3238
55405SOL     OW74992   0.417   7.175  10.725  0.5764 -0.5249  0.0500
55405SOL    HW174993   0.397   7.085  10.699 -0.6357  0.1732 -1.6463
55405SOL    HW274994   0.377   7.185  10.811 -1.0532 -1.0392 -0.6109
55406SOL     OW74995   1.366   8.656   6.291  0.3082 -0.4459 -0.2081
55406SOL    HW174996   1.440   8.594   6.288  1.3729  0.8127 -2.8641
55406SOL    HW274997   1.317   8.638   6.211 -2.1955 -1.0311  1.3539
55407SOL     OW74998   8.179   4.276   2.534 -0.3055 -0.5716 -0.5331
55407SOL    HW174999   8.149   4.217   2.464 -0.9077 -2.4020  1.1714
55407SOL    HW275000   8.150   4.234   2.615  0.8937  1.1610  0.8809
55408SOL     OW75001   6.119   4.195  12.016  0.0999  0.1781  0.7671
55408SOL    HW175002   6.081   4.188  12.103 -1.0222 -2.7361  0.1710
55408SOL    HW275003   6.145   4.105  11.994  1.2078  0.9831 -1.5404
55409SOL     OW75004   0.457   1.308  10.079 -0.7244  0.4351  0.7679
55409SOL    HW175005   0.494   1.395  10.086 -0.5789  0.7083 -2.3251
55409SOL    HW275006   0.388   1.316  10.013  0.8211 -2.1931 -1.3393
55410SOL     OW75007   6.751  10.246   3.716 -0.4502 -0.7172 -0.0209
55410SOL    HW175008   6.715  10.247   3.627  0.0188  0.6829 -0.2213
55410SOL    HW275009   6.675  10.234   3.773 -1.0407  0.5282 -0.5155
55411SOL     OW75010   2.570   5.357  11.499  0.3782 -0.6148 -0.2589
55411SOL    HW175011   2.661   5.330  11.513  0.3883  0.1589  1.3597
55411SOL    HW275012   2.548   5.409  11.576 -1.1795 -0.0785 -1.0244
55412SOL     OW75013   4.342  10.196   0.088 -0.1642 -0.2067  0.4981
55412SOL    HW175014   4.276  10.147   0.136 -1.6108 -0.0444 -1.2134
55412SOL    HW275015   4.301  10.279   0.066  0.9095  0.2455  0.1009
55413SOL     OW75016   5.842  10.085   3.909 -0.4465  0.0256  0.2490
55413SOL    HW175017   5.752  10.097   3.877  0.4249  0.3340 -2.3414
55413SOL    HW275018   5.837  10.008   3.966 -2.6331  1.0772  1.6132
55414SOL     OW75019   2.742   3.621   9.146 -0.2884 -0.6473  0.1802
55414SOL    HW175020   2.738   3.545   9.204  0.2070  0.2577  1.4376
55414SOL    HW275021   2.814   3.602   9.085  0.6263 -0.6769  1.2490
55415SOL     OW75022   2.893   9.087   5.095 -0.0615 -0.1683  0.1212
55415SOL    HW175023   2.823   9.109   5.034  0.3892  0.1739 -0.2753
55415SOL    HW275024   2.945   9.167   5.103  1.1560 -0.8425 -0.7476
55416SOL     OW75025   8.364   5.772   5.573 -0.0875 -0.6512  0.2772
55416SOL    HW175026   8.424   5.833   5.615 -0.9692  0.0284  0.5579
55416SOL    HW275027   8.318   5.730   5.645 -0.8024 -0.2983  0.0321
55417SOL     OW75028   3.167  10.580   3.765 -0.4939  0.1122 -0.2565
55417SOL    HW175029   3.074  10.563   3.750 -0.3208 -1.2022  0.0336
55417SOL    HW275030   3.195  10.631   3.689 -1.5336  0.9115 -0.1305
55418SOL     OW75031   3.209   5.366   0.185 -0.7082  0.0728  0.1751
55418SOL    HW175032   3.217   5.460   0.200 -1.2159 -0.0610  1.4749
55418SOL    HW275033   3.249   5.327   0.263  1.6388 -0.8614 -1.3746
55419SOL     OW75034   3.067   7.119   9.687 -0.2060 -0.1924 -0.0526
55419SOL    HW175035   3.099   7.143   9.600 -1.4779  0.4856 -0.3723
55419SOL    HW275036   3.042   7.203   9.726 -1.0570 -0.6349  0.3711
55420SOL     OW75037   6.258   4.491   0.099  0.9330 -0.0672  0.5381
55420SOL    HW175038   6.278   4.418   0.158 -0.0226  0.0977  1.0965
55420SOL    HW275039   6.165   4.508   0.113  1.1953  1.4437  0.6269
55421SOL     OW75040   6.292   6.073   6.087 -0.5584 -0.4755 -0.5857
55421SOL    HW175041   6.383   6.069   6.059 -0.7627  2.0461 -1.9181
55421SOL    HW275042   6.296   6.067   6.182  0.9564 -0.7838 -0.6432
55422SOL     OW75043   2.728   4.882  12.570 -0.2610  0.1279 -0.1516
55422SOL    HW175044   2.651   4.839  12.532 -0.3468 -0.4068  0.5832
55422SOL    HW275045   2.742   4.834  12.652  1.0242  0.0376 -0.4137
55423SOL     OW75046   6.660   3.674  11.559 -0.2031 -0.4548 -0.1424
55423SOL    HW175047   6.687   3.637  11.475  1.7494  1.3611 -0.4093
55423SOL    HW275048   6.642   3.598  11.615 -0.1981 -1.7053 -1.7880
55424SOL     OW75049  12.010   3.483   8.199  0.3429 -0.2127  0.3993
55424SOL    HW175050  12.023   3.389   8.215  1.1189 -0.6223 -2.2628
55424SOL    HW275051  12.087   3.525   8.239  2.4327 -1.2167 -2.2865
55425SOL     OW75052   0.411   6.072   5.532 -0.2542 -0.4416  0.0721
55425SOL    HW175053   0.369   6.147   5.576  0.5359 -0.8680  1.6042
55425SOL    HW275054   0.438   6.107   5.447 -1.1066  0.6323  0.2119
55426SOL     OW75055   6.191  11.221  12.430  0.2683 -0.6146 -0.0761
55426SOL    HW175056   6.188  11.317  12.435 -3.2167 -0.2900 -3.7025
55426SOL    HW275057   6.267  11.203  12.376  1.3631 -0.0545  1.1926
55427SOL     OW75058   6.425   0.381   7.041  0.2874  0.8942 -0.3708
55427SOL    HW175059   6.434   0.476   7.051  0.7555  0.8793 -0.6072
55427SOL    HW275060   6.424   0.348   7.131 -0.5103  1.1741 -0.2751
55428SOL     OW75061   4.952  11.120   5.575  0.4505  0.0196 -0.1299
55428SOL    HW175062   4.865  11.139   5.540  0.5798 -0.0346 -0.4811
55428SOL    HW275063   4.935  11.074   5.658  0.0957  2.9424  1.5529
55429SOL     OW75064   6.188   4.051   2.512 -0.2627 -0.1291  0.0523
55429SOL    HW175065   6.196   3.964   2.472  1.5157  0.5815 -1.3199
55429SOL    HW275066   6.267   4.060   2.566  0.4209  1.1881 -1.0884
55430SOL     OW75067  11.289   8.991  11.125 -0.2321 -1.1341  0.1316
55430SOL    HW175068  11.321   8.978  11.036 -0.8183 -0.6126 -0.1602
55430SOL    HW275069  11.194   8.995  11.116 -0.2875 -0.9266  0.7638
55431SOL     OW75070   7.635  10.298   9.517  0.4776  0.0330  0.6636
55431SOL    HW175071   7.706  10.254   9.470  0.5534  0.6306  0.2055
55431SOL    HW275072   7.624  10.247   9.597  0.6421 -0.7521  0.2004
55432SOL     OW75073  10.704   6.061   0.125 -0.2435 -0.2271 -0.0039
55432SOL    HW175074  10.784   6.100   0.090 -0.4853 -0.6669 -1.0915
55432SOL    HW275075  10.728   5.970   0.144  0.1250  0.2256  1.8447
55433SOL     OW75076   9.902  11.677   5.152  0.2705 -0.1010 -0.2912
55433SOL    HW175077   9.889  11.584   5.133 -0.2054 -0.5367  1.8875
55433SOL    HW275078   9.985  11.699   5.110  2.0184 -2.3686  1.7064
55434SOL     OW75079   0.122   7.551   3.391 -0.0559  0.5063 -0.3127
55434SOL    HW175080   0.168   7.575   3.310  0.9521 -0.6591 -0.1161
55434SOL    HW275081   0.191   7.543   3.457 -0.8275  1.0935  0.5933
55435SOL     OW75082   6.490   6.202   0.538 -0.2657  0.0190  0.0715
55435SOL    HW175083   6.497   6.268   0.470 -0.7638  0.2485  0.2403
55435SOL    HW275084   6.560   6.224   0.600  0.7916 -0.7426 -0.8187
55436SOL     OW75085   2.388   4.604  10.600 -0.1518  0.0396 -0.0915
55436SOL    HW175086   2.397   4.548  10.677  0.4048  1.5302  0.9690
55436SOL    HW275087   2.391   4.543  10.526 -2.6725 -1.6689  1.0711
55437SOL     OW75088   0.149   8.415   8.308 -0.0084 -0.2360 -0.1071
55437SOL    HW175089   0.157   8.321   8.289 -0.3949 -0.1996 -0.4548
55437SOL    HW275090   0.111   8.419   8.396  1.5449 -0.4053  0.6099
55438SOL     OW75091  10.278  11.820   6.436 -0.5883 -0.1056  0.5484
55438SOL    HW175092  10.316  11.759   6.373  0.2501  2.4766 -1.6020
55438SOL    HW275093  10.189  11.786   6.450 -0.3703 -1.4882 -1.0256
55439SOL     OW75094  10.640   9.729   2.329  0.5865 -0.1059 -0.4349
55439SOL    HW175095  10.645   9.639   2.359  1.6089 -1.1721 -3.3899
55439SOL    HW275096  10.728   9.764   2.342  0.4282  0.1847 -0.1239
55440SOL     OW75097   6.029  10.810   9.564  0.2581 -0.1599  0.5993
55440SOL    HW175098   6.107  10.808   9.509 -1.1275  0.3605 -1.5407
55440SOL    HW275099   6.048  10.749   9.635  2.4776 -0.2553 -0.0052
55441SOL     OW75100   5.616  11.394  10.648  0.0140  0.3485  0.3388
55441SOL    HW175101   5.660  11.375  10.565 -0.8500 -1.7189  0.2845
55441SOL    HW275102   5.611  11.309  10.692 -1.1763  1.0841  1.7038
55442SOL     OW75103   8.136  10.942   9.836  0.0553 -0.1065  0.1890
55442SOL    HW175104   8.083  11.006   9.788 -0.0685 -2.3212 -2.8975
55442SOL    HW275105   8.221  10.945   9.792  1.8705  1.5798  3.4409
55443SOL     OW75106   6.525   0.386   5.440  0.1311 -0.1068 -0.1123
55443SOL    HW175107   6.576   0.331   5.380  0.6274  0.7784 -0.5181
55443SOL    HW275108   6.542   0.475   5.411 -1.9039  0.2230 -0.4743
55444SOL     OW75109  12.583  12.536   9.080  0.2191  0.1857  0.1962
55444SOL    HW175110  12.515  12.485   9.037  0.1156  0.4388  0.0550
55444SOL    HW275111  12.552  12.627   9.074  0.5411  0.2944  0.1828
55445SOL     OW75112   0.540   2.355   6.002 -0.3198  0.1922 -0.5076
55445SOL    HW175113   0.608   2.410   5.963 -0.9467  1.3544 -0.0102
55445SOL    HW275114   0.545   2.273   5.952  1.5114  0.1845 -0.3925
55446SOL     OW75115   6.693   6.443   0.932 -0.0011  0.1768  0.4639
55446SOL    HW175116   6.740   6.515   0.973 -0.8825  0.0494  1.7655
55446SOL    HW275117   6.607   6.481   0.910 -0.6061 -0.5421  1.4977
55447SOL     OW75118   9.397   7.922   3.079  0.0005  0.5206 -0.3297
55447SOL    HW175119   9.433   8.010   3.070  1.2839  0.0958  0.2902
55447SOL    HW275120   9.410   7.882   2.993  1.0044  0.3961 -0.1371
55448SOL     OW75121   1.667   3.265  11.198 -0.7186  0.2400  0.1734
55448SOL    HW175122   1.673   3.170  11.213  1.4174  0.1358 -0.8913
55448SOL    HW275123   1.732   3.302  11.258 -2.0032  1.1439  1.0636
55449SOL     OW75124   7.671   2.488   9.156  0.0413  0.4430  0.1295
55449SOL    HW175125   7.676   2.424   9.227 -0.2092  0.5950  0.2891
55449SOL    HW275126   7.586   2.531   9.169  1.0801  2.2707  1.3030
55450SOL     OW75127   0.899   1.738   6.665 -0.3446  0.1816  0.3010
55450SOL    HW175128   0.875   1.652   6.629  1.1052 -0.4362  0.7346
55450SOL    HW275129   0.974   1.765   6.613 -0.6150  1.0726  0.3613
55451SOL     OW75130   2.972  10.323   9.175  0.3700 -0.9008 -0.3184
55451SOL    HW175131   3.050  10.360   9.134 -0.4223  1.7391  0.3540
55451SOL    HW275132   3.005  10.253   9.231  2.2048 -0.1044 -0.3503
55452SOL     OW75133   3.555   3.992   2.966 -0.6827 -0.2796  0.0265
55452SOL    HW175134   3.588   3.987   2.876  0.5257 -0.8455  0.4707
55452SOL    HW275135   3.626   3.955   3.018 -1.0863  0.6693  1.2810
55453SOL     OW75136   2.442   4.615  11.361 -0.0575 -0.9740 -0.1835
55453SOL    HW175137   2.503   4.635  11.290  0.5749 -0.3817  0.5204
55453SOL    HW275138   2.361   4.661  11.336  0.3412 -0.2894 -0.2428
55454SOL     OW75139   6.698  10.907   3.141 -0.5338  0.6962  0.0402
55454SOL    HW175140   6.780  10.863   3.164 -0.7414  0.7603  0.9760
55454SOL    HW275141   6.701  10.989   3.192 -1.4409  0.4214  0.5541
55455SOL     OW75142  11.824   9.875   0.800 -0.3761 -0.3719  0.0746
55455SOL    HW175143  11.885   9.802   0.813 -0.4532 -0.3043  0.8359
55455SOL    HW275144  11.738   9.836   0.811 -0.5026 -0.5210 -1.2537
55456SOL     OW75145   1.912   1.324   7.667 -0.1607  0.4833  0.7160
55456SOL    HW175146   1.990   1.296   7.619 -0.2564 -0.2034  0.9413
55456SOL    HW275147   1.921   1.419   7.674 -0.7565  0.7879 -1.7148
55457SOL     OW75148  10.375  12.081   6.487 -0.0962 -0.4244  0.4344
55457SOL    HW175149  10.330  11.997   6.484  0.1657 -0.5559  0.1249
55457SOL    HW275150  10.306  12.145   6.506 -0.4600 -0.5874 -0.3009
55458SOL     OW75151  11.318   5.167   8.934  0.3176  0.7918  0.6146
55458SOL    HW175152  11.234   5.207   8.912  0.7966  2.1388  1.1305
55458SOL    HW275153  11.299   5.112   9.011 -0.0863  1.1362  0.7662
55459SOL     OW75154   2.057   5.541   8.752  0.1445  0.6011  0.3928
55459SOL    HW175155   2.080   5.468   8.694 -0.5797  0.3958  0.3596
55459SOL    HW275156   2.134   5.598   8.749 -0.1856  1.0278 -1.4346
55460SOL     OW75157   8.986   1.930   9.474 -0.5834 -0.1385  0.3480
55460SOL    HW175158   8.919   1.978   9.425  0.3283  0.3300 -0.4827
55460SOL    HW275159   9.022   1.868   9.410 -0.6523 -0.8362  0.9696
55461SOL     OW75160   6.904   3.438   8.321  0.0885 -0.4354 -0.1633
55461SOL    HW175161   6.991   3.437   8.283 -0.4467  0.9919 -1.5870
55461SOL    HW275162   6.903   3.515   8.378  0.1325 -1.1801  0.8709
55462SOL     OW75163  12.408  10.020   2.496  0.0860 -0.8598 -1.3062
55462SOL    HW175164  12.393   9.934   2.536 -1.6897  0.6270  1.6493
55462SOL    HW275165  12.432  10.076   2.569  1.6785  1.1091 -3.2208
55463SOL     OW75166   1.515  10.262   0.583 -0.0751  0.1736 -0.5185
55463SOL    HW175167   1.467  10.180   0.574 -0.6997  0.6132 -1.4206
55463SOL    HW275168   1.530  10.272   0.677  0.1794 -1.0582 -0.4229
55464SOL     OW75169   2.893   0.057   6.921 -0.5644  0.5416  0.1744
55464SOL    HW175170   2.984   0.089   6.922 -0.4062  0.1076  1.6082
55464SOL    HW275171   2.902  -0.039   6.917 -1.0050  0.5388 -1.5851
55465SOL     OW75172   6.239   6.824   7.599  0.2530 -0.0798 -0.1050
55465SOL    HW175173   6.182   6.857   7.530 -0.7329 -0.3451  0.5719
55465SOL    HW275174   6.277   6.743   7.563 -0.3636 -0.2885 -0.2875
55466SOL     OW75175   1.819   9.325   1.489 -0.5251  0.6565  0.0989
55466SOL    HW175176   1.809   9.385   1.415 -0.0758  1.3498  0.5840
55466SOL    HW275177   1.813   9.381   1.566  0.2039  0.1165  0.5574
55467SOL     OW75178   5.637   0.397  11.091  0.4285  0.1467 -0.4686
55467SOL    HW175179   5.660   0.335  11.022 -1.2933  1.1047 -2.0077
55467SOL    HW275180   5.542   0.390  11.098  0.4625  0.8690  1.0742
55468SOL     OW75181   7.927   4.994  10.612 -0.0210 -0.0531  0.0826
55468SOL    HW175182   7.851   5.052  10.621 -0.0348  0.2785 -1.7939
55468SOL    HW275183   7.916   4.952  10.527  0.6291 -1.9277  0.8604
55469SOL     OW75184  11.433   5.182   4.792 -0.2786  0.1673  0.4874
55469SOL    HW175185  11.391   5.223   4.868 -1.2451  1.5823 -0.7396
55469SOL    HW275186  11.516   5.229   4.782 -1.3309  1.8696 -0.8442
55470SOL     OW75187   1.173   9.203   3.015  0.1757 -0.2467 -0.3088
55470SOL    HW175188   1.173   9.109   3.028 -2.6287 -0.0496  1.8006
55470SOL    HW275189   1.087   9.223   2.978 -0.0210  1.6542  1.0218
55471SOL     OW75190   7.084   4.196  12.299  0.0853  0.1434 -0.2407
55471SOL    HW175191   7.044   4.115  12.268 -0.5209 -0.0733  1.0364
55471SOL    HW275192   7.014   4.261  12.292  0.5035  0.5204 -1.0526
55472SOL     OW75193  12.575  11.592   8.155  1.1762 -0.8289 -0.2992
55472SOL    HW175194  12.497  11.540   8.133  1.1023 -0.8525  0.0046
55472SOL    HW275195  12.647  11.548   8.110  0.9781 -0.6666 -0.7804
55473SOL     OW75196   7.910  11.363   3.608  0.1268  0.2694  0.6161
55473SOL    HW175197   7.974  11.359   3.679  1.1611  0.6478 -0.2721
55473SOL    HW275198   7.858  11.284   3.619  1.0387 -0.2836  1.0934
55474SOL     OW75199   0.334   5.492   2.829  0.1788  0.4799  0.0123
55474SOL    HW175200   0.410   5.510   2.773  1.0143 -2.2312  0.0868
55474SOL    HW275201   0.276   5.439   2.774 -0.2524  0.0321  0.8783
55475SOL     OW75202   7.423   5.351   2.579  0.2618  0.2757 -0.3035
55475SOL    HW175203   7.429   5.392   2.665 -1.5347  1.5331 -0.7210
55475SOL    HW275204   7.342   5.385   2.542  0.3853 -1.1648 -2.0279
55476SOL     OW75205   9.985   2.575   4.940 -0.5087 -0.1133 -0.4997
55476SOL    HW175206  10.000   2.577   4.845 -0.7984  0.8200 -0.5300
55476SOL    HW275207   9.912   2.635   4.954  0.0100  0.3178  0.4035
55477SOL     OW75208   9.483   2.763  10.660 -0.2465  0.0265 -0.2749
55477SOL    HW175209   9.572   2.762  10.694  0.0473  1.8084 -0.8927
55477SOL    HW275210   9.468   2.854  10.635 -1.8983 -0.4353 -1.0920
55478SOL     OW75211   1.641  11.524   3.401 -0.0172 -0.0074  0.7418
55478SOL    HW175212   1.678  11.581   3.334  2.0920 -1.6025  0.4408
55478SOL    HW275213   1.713  11.507   3.462 -0.5951 -2.0688  0.9540
55479SOL     OW75214   8.742   9.746   3.209  0.3303  0.3239  0.3391
55479SOL    HW175215   8.764   9.838   3.228 -0.8836  0.9944 -1.3041
55479SOL    HW275216   8.789   9.726   3.128 -1.8125  0.5420 -1.0502
55480SOL     OW75217  11.262  11.465   9.608  0.3878  0.2338  0.0415
55480SOL    HW175218  11.176  11.496   9.577  0.0449  0.4753  1.1853
55480SOL    HW275219  11.324  11.526   9.568 -0.0596  0.6692 -0.0135
55481SOL     OW75220   4.585   8.362   3.800 -1.0683 -0.1811 -0.1813
55481SOL    HW175221   4.663   8.307   3.792 -1.3941 -0.6448 -0.1948
55481SOL    HW275222   4.512   8.300   3.806 -1.2214  0.1142  2.5792
55482SOL     OW75223   1.525   8.101   3.457  0.5129  0.1868 -0.1203
55482SOL    HW175224   1.460   8.168   3.434  2.0305  1.8864  0.3527
55482SOL    HW275225   1.472   8.025   3.481 -1.2848  1.2559 -0.4601
55483SOL     OW75226   2.627  12.536   9.848  0.0934 -0.0384  0.5502
55483SOL    HW175227   2.691  12.583   9.901 -0.2544 -0.4089  1.3254
55483SOL    HW275228   2.551  12.595   9.846  0.5126  0.4964 -0.5473
55484SOL     OW75229   6.152   0.277   3.181 -0.5055 -0.0956 -0.7179
55484SOL    HW175230   6.239   0.306   3.155 -0.1603 -1.1615 -0.8336
55484SOL    HW275231   6.160   0.256   3.274 -1.1356  1.5292 -0.2724
55485SOL     OW75232  10.581   7.780   0.745 -0.1421 -0.3090 -0.0831
55485SOL    HW175233  10.654   7.721   0.765  0.8154  1.4132  1.8173
55485SOL    HW275234  10.623   7.856   0.704 -0.9675  0.3905  0.3583
55486SOL     OW75235   4.070   0.055   1.434 -0.1424  0.0842  0.2235
55486SOL    HW175236   4.040   0.116   1.366  1.1880  0.3934 -0.1124
55486SOL    HW275237   4.103  -0.020   1.385  1.8751  0.7837  0.4369
55487SOL     OW75238   9.351   5.366  10.036  0.0302 -0.2835 -0.5500
55487SOL    HW175239   9.348   5.416  10.117 -1.7412  1.0502 -1.3839
55487SOL    HW275240   9.275   5.308  10.040 -0.8526  0.7331 -1.7825
55488SOL     OW75241   2.519   8.975   5.814 -0.3562 -0.5877  0.2256
55488SOL    HW175242   2.505   9.034   5.740  1.1934 -0.1732  0.2169
55488SOL    HW275243   2.580   8.909   5.781  1.1677  0.1703  1.3599
55489SOL     OW75244   7.706   7.621   2.168  0.4218  0.4662  0.0455
55489SOL    HW175245   7.625   7.602   2.215  0.7206 -0.1622  0.3131
55489SOL    HW275246   7.691   7.707   2.128 -0.5370  0.1563 -0.2718
55490SOL     OW75247   5.387   6.434   3.131 -0.0434 -0.6703 -0.0732
55490SOL    HW175248   5.387   6.383   3.212 -2.3873  0.0378  0.4540
55490SOL    HW275249   5.341   6.378   3.068 -0.9577  0.0053 -0.0193
55491SOL     OW75250   3.401   1.025  10.742  0.0950  0.2110  0.6314
55491SOL    HW175251   3.400   0.983  10.656 -1.3883  2.1686 -0.3757
55491SOL    HW275252   3.485   1.071  10.746 -0.2642  0.9706 -0.2449
55492SOL     OW75253  12.206   5.821   0.136  0.0989 -0.1476  0.5185
55492SOL    HW175254  12.149   5.862   0.071 -0.3516 -0.9561  0.3869
55492SOL    HW275255  12.213   5.886   0.206 -0.1663  0.3608  0.0849
55493SOL     OW75256   3.454   9.979  11.222  0.2261  0.1520  0.0705
55493SOL    HW175257   3.448   9.989  11.127 -0.6822 -0.3811  0.0533
55493SOL    HW275258   3.431  10.065  11.257 -1.1159 -0.0776 -0.1753
55494SOL     OW75259   8.309   2.270  11.084 -0.0742 -0.6452 -0.0907
55494SOL    HW175260   8.262   2.279  11.167  0.5623 -0.2179  0.2293
55494SOL    HW275261   8.297   2.178  11.059  0.3268 -0.9536  0.8264
55495SOL     OW75262   9.947   4.329   8.547 -0.1623  0.1864 -0.2652
55495SOL    HW175263   9.962   4.378   8.467 -1.9810 -0.0200 -0.7773
55495SOL    HW275264   9.897   4.388   8.603  0.7394  0.1798  0.5758
55496SOL     OW75265   7.023   0.505   1.903  0.4074  0.4139 -0.0372
55496SOL    HW175266   7.066   0.471   1.982 -0.6641  1.4752  1.0250
55496SOL    HW275267   7.001   0.595   1.924  0.2552  0.7793 -1.6358
55497SOL     OW75268   8.673   0.019   2.638  0.2907 -0.1450 -0.6745
55497SOL    HW175269   8.591   0.024   2.687  0.6075  0.0473 -0.1567
55497SOL    HW275270   8.733   0.078   2.685  1.8468 -2.9499  1.1603
55498SOL     OW75271   8.547   6.994   4.842 -0.0139 -0.1009 -0.3918
55498SOL    HW175272   8.625   6.942   4.826 -0.0670  0.3577 -2.4623
55498SOL    HW275273   8.577   7.085   4.839 -0.6697  0.1094 -1.9120
55499SOL     OW75274   5.830  11.289   1.454  0.0742  0.3468  0.0008
55499SOL    HW175275   5.771  11.314   1.383  0.3298 -0.0624 -0.3578
55499SOL    HW275276   5.773  11.277   1.530 -0.4389 -1.0116 -0.5731
55500SOL     OW75277   9.703   0.163  10.273  0.3029  0.2457  0.1124
55500SOL    HW175278   9.785   0.177  10.320  1.9205 -0.1720 -2.3667
55500SOL    HW275279   9.724   0.095  10.209 -1.8165  0.5776 -1.0285
55501SOL     OW75280   5.980  10.345  10.394 -0.0450 -0.1187  0.8556
55501SOL    HW175281   5.905  10.323  10.449 -1.6058 -2.4575 -1.9217
55501SOL    HW275282   6.036  10.267  10.396 -0.5447 -0.6138 -1.3361
55502SOL     OW75283  12.478   1.150  11.439  0.3324  0.5117 -0.0028
55502SOL    HW175284  12.491   1.213  11.509 -2.5936  0.1177  1.0287
55502SOL    HW275285  12.467   1.204  11.360 -0.8006  1.2580  0.6385
55503SOL     OW75286   1.765   5.670   8.451  0.2192 -0.2142 -0.0961
55503SOL    HW175287   1.852   5.684   8.487 -0.0843 -1.9146  1.4604
55503SOL    HW275288   1.737   5.586   8.487 -1.8774  0.0491 -0.9321
55504SOL     OW75289   9.435   0.773   9.205  0.5262 -0.1447 -0.2266
55504SOL    HW175290   9.484   0.725   9.139  0.1232  0.4339 -0.9575
55504SOL    HW275291   9.503   0.818   9.257  0.8012  0.1576 -0.8398
55505SOL     OW75292   1.412   6.713   4.604  0.7907 -0.0549 -0.4858
55505SOL    HW175293   1.464   6.793   4.594 -1.2056  1.4222  0.3022
55505SOL    HW275294   1.323   6.744   4.622 -0.2497 -2.4666 -1.0231
55506SOL     OW75295   2.841   4.163   3.980  0.2498 -0.2846 -0.1970
55506SOL    HW175296   2.857   4.124   3.894  3.3926 -1.5130  0.7999
55506SOL    HW275297   2.857   4.092   4.042 -2.6481  0.3841  1.4666
55507SOL     OW75298   3.078   2.877   0.423  0.2383  0.1433  0.1265
55507SOL    HW175299   3.147   2.877   0.357  0.8098 -2.7424  0.6081
55507SOL    HW275300   2.998   2.897   0.374  0.6816 -1.6775 -1.4502
55508SOL     OW75301   1.694   7.943   0.255  0.1425 -0.1831  0.3183
55508SOL    HW175302   1.630   7.950   0.326 -0.8797  0.8936 -0.6770
55508SOL    HW275303   1.777   7.968   0.296 -0.3450 -0.0511  1.2525
55509SOL     OW75304   5.232  12.442   0.225 -0.2690 -0.0772  0.1414
55509SOL    HW175305   5.223  12.368   0.166  0.3856 -0.4824  0.5341
55509SOL    HW275306   5.193  12.412   0.307 -1.7494  0.7028 -0.2396
55510SOL     OW75307   7.806  12.220   3.614 -0.4213  0.3136 -0.1802
55510SOL    HW175308   7.805  12.315   3.626 -1.6277  0.1259  1.5431
55510SOL    HW275309   7.727  12.189   3.658  0.3047 -1.5572 -0.0989
55511SOL     OW75310   5.657   8.483   2.521 -0.3034 -0.1397 -0.2464
55511SOL    HW175311   5.586   8.439   2.475 -0.6505  0.0998  0.0599
55511SOL    HW275312   5.722   8.415   2.537 -1.6318 -0.9722  1.8908
55512SOL     OW75313   0.766   1.581   6.309 -0.6602 -0.1070  0.5621
55512SOL    HW175314   0.702   1.630   6.361 -2.5401 -1.8621  0.0327
55512SOL    HW275315   0.713   1.529   6.249  1.3694  0.2646 -1.7261
55513SOL     OW75316   7.934   9.286   5.158  0.2838 -0.4475  0.4192
55513SOL    HW175317   7.889   9.315   5.237 -0.1159 -0.2272  0.1120
55513SOL    HW275318   7.868   9.240   5.108  0.4046 -0.1315 -0.0303
55514SOL     OW75319   2.525  10.324   9.917  0.4460 -0.5069  0.1109
55514SOL    HW175320   2.607  10.279   9.937 -0.5537 -2.5419 -0.1054
55514SOL    HW275321   2.549  10.389   9.852  1.9216 -0.9472  0.1781
55515SOL     OW75322   7.530   6.381  10.940  0.3194 -0.1555  0.2112
55515SOL    HW175323   7.550   6.449  11.004  1.0940  0.1804 -0.3737
55515SOL    HW275324   7.467   6.324  10.985 -0.0935  0.7575  0.8162
55516SOL     OW75325   2.329  11.535   5.048  0.4102  0.4663 -0.1526
55516SOL    HW175326   2.276  11.610   5.075  1.3988  0.6859  1.3419
55516SOL    HW275327   2.277  11.459   5.073  1.6196  0.6458  3.4008
55517SOL     OW75328   2.949   9.279   0.817  0.3785  0.4301  0.5815
55517SOL    HW175329   2.872   9.329   0.792  0.6027  0.7888  0.5974
55517SOL    HW275330   2.921   9.188   0.813  0.4363  0.4385 -1.1997
55518SOL     OW75331   8.898   1.495  11.392  0.0628 -0.3367 -0.6620
55518SOL    HW175332   8.851   1.434  11.450  0.9449 -0.6744 -0.2835
55518SOL    HW275333   8.979   1.515  11.440 -0.2573  1.2166 -0.7379
55519SOL     OW75334   4.841  11.209   6.955 -0.7604  0.2436  0.4783
55519SOL    HW175335   4.816  11.264   7.030 -1.1380 -1.0958  1.3888
55519SOL    HW275336   4.758  11.193   6.910 -0.4706  1.3866 -0.4879
55520SOL     OW75337   2.567  11.708   1.175 -0.0091  0.5843 -0.1442
55520SOL    HW175338   2.550  11.802   1.180 -1.3286  0.4750 -1.7796
55520SOL    HW275339   2.660  11.701   1.153  0.2754  1.4697  0.7219
55521SOL     OW75340   0.220   4.361   1.256  0.1323  0.1354  0.2973
55521SOL    HW175341   0.125   4.344   1.256  0.4533 -1.9589  0.0709
55521SOL    HW275342   0.227   4.456   1.256 -2.0000  0.4019 -1.8377
55522SOL     OW75343   2.434   1.681   8.483  0.2150 -0.0282 -0.0833
55522SOL    HW175344   2.495   1.726   8.425 -1.2630 -0.1128 -1.7839
55522SOL    HW275345   2.471   1.693   8.570  1.1395  2.3816 -0.7303
55523SOL     OW75346   9.461   2.524   9.246 -0.0443  0.1206  0.1090
55523SOL    HW175347   9.553   2.498   9.237  0.5877  1.6930  1.6095
55523SOL    HW275348   9.451   2.547   9.338 -2.0790 -0.4050  0.0641
55524SOL     OW75349   3.810  10.005   3.412  0.3553 -0.2318 -0.2479
55524SOL    HW175350   3.853  10.083   3.377  0.3665 -0.0212  0.2383
55524SOL    HW275351   3.774   9.961   3.334 -0.6516  0.8586 -0.4201
55525SOL     OW75352   8.113   0.126   4.477  0.3663 -0.1000 -0.3882
55525SOL    HW175353   8.206   0.137   4.456  0.3104 -0.8626 -1.0833
55525SOL    HW275354   8.072   0.105   4.393 -0.8421  2.5309 -0.5606
55526SOL     OW75355   0.182   3.084   9.521 -0.1905  0.6716 -0.1499
55526SOL    HW175356   0.154   2.996   9.497  1.0498 -0.0477  0.9305
55526SOL    HW275357   0.225   3.118   9.443  0.8627 -0.3525 -0.0302
55527SOL     OW75358   9.650   2.849   4.791  0.1011 -0.3439 -0.4537
55527SOL    HW175359   9.646   2.803   4.708 -1.0265  0.2629 -0.7653
55527SOL    HW275360   9.662   2.941   4.767  0.9005 -0.2948  0.1037
55528SOL     OW75361   0.929   2.230   9.369  0.1687 -0.4699 -0.4084
55528SOL    HW175362   0.994   2.234   9.298  1.5842 -0.0345  0.8618
55528SOL    HW275363   0.871   2.158   9.344  2.8525 -2.8647 -0.2483
55529SOL     OW75364   1.600   6.899   9.368 -0.0553 -0.2522  0.9665
55529SOL    HW175365   1.636   6.857   9.446  1.0627 -0.0569  0.5876
55529SOL    HW275366   1.552   6.829   9.323  3.1827 -1.7638 -0.5326
55530SOL     OW75367   4.418   5.713   6.001  1.2417 -0.2345  0.5892
55530SOL    HW175368   4.399   5.690   6.092 -0.5226 -1.3317 -0.0030
55530SOL    HW275369   4.355   5.661   5.950  0.9879  1.6881 -1.1660
55531SOL     OW75370   3.288   3.295   3.392  0.5199 -0.2257  0.0986
55531SOL    HW175371   3.200   3.319   3.363  0.0171 -0.5099  1.3249
55531SOL    HW275372   3.346   3.360   3.351 -0.2197 -0.1755 -0.9034
55532SOL     OW75373  12.119   3.428  10.664 -0.0884  0.1259 -0.3742
55532SOL    HW175374  12.119   3.449  10.570  0.8933 -1.8480 -0.8697
55532SOL    HW275375  12.203   3.461  10.696 -0.3448  0.6395 -0.2325
55533SOL     OW75376  10.501   0.643   2.535 -0.8337  0.0045  0.0025
55533SOL    HW175377  10.425   0.650   2.477 -0.7119 -0.5791 -0.2335
55533SOL    HW275378  10.467   0.665   2.622 -0.9181  1.3483 -0.3452
55534SOL     OW75379   2.947   8.165   2.236  0.1839  0.7626 -0.4651
55534SOL    HW175380   2.940   8.190   2.144  2.2647 -0.9843 -1.1957
55534SOL    HW275381   3.012   8.226   2.273 -0.0115  0.9182 -0.3777
55535SOL     OW75382  11.244   6.897   1.468  0.7125  0.5684 -0.2736
55535SOL    HW175383  11.232   6.865   1.379 -1.9441  0.4098  0.0623
55535SOL    HW275384  11.195   6.980   1.471  0.6180  0.4919  1.0622
55536SOL     OW75385   4.858   6.988   2.763 -0.2762 -0.0200 -0.3920
55536SOL    HW175386   4.816   6.985   2.849 -0.1650  0.0095 -0.3355
55536SOL    HW275387   4.795   7.032   2.706  0.2996  1.4307  0.0489
55537SOL     OW75388   4.433   1.866  10.295  0.2189 -0.2685  0.4914
55537SOL    HW175389   4.417   1.908  10.379  0.6775  0.1735  0.3606
55537SOL    HW275390   4.405   1.775  10.308 -0.5704  0.0194  0.8370
55538SOL     OW75391   3.295  10.169  12.486 -0.4141  0.0758 -0.1956
55538SOL    HW175392   3.278  10.085  12.527 -2.6769 -0.5689 -2.2161
55538SOL    HW275393   3.233  10.229  12.526  0.7321  0.6594  0.7558
55539SOL     OW75394   0.674   9.428   6.686  0.1095 -0.7475  0.4108
55539SOL    HW175395   0.759   9.392   6.713  0.3944  1.1774  2.3682
55539SOL    HW275396   0.692   9.520   6.667 -1.1093 -0.8745 -1.6697
55540SOL     OW75397   2.305   9.753   0.340 -0.0856  0.0983  0.5751
55540SOL    HW175398   2.324   9.688   0.408 -1.5541 -1.8246 -0.7662
55540SOL    HW275399   2.230   9.802   0.374 -0.7331 -0.7717  0.4262
55541SOL     OW75400   8.802   6.491   4.402 -0.2593 -0.2031  0.7964
55541SOL    HW175401   8.802   6.575   4.355 -0.0283  0.2461  1.5736
55541SOL    HW275402   8.856   6.433   4.349 -0.0288  0.2811  0.4966
55542SOL     OW75403   9.816   5.662   2.111  1.0557  0.4485 -0.1871
55542SOL    HW175404   9.783   5.637   2.198  0.7724 -0.3564 -0.5114
55542SOL    HW275405   9.894   5.607   2.099  0.1053 -0.7631 -1.1486
55543SOL     OW75406   7.350   7.914   2.104  0.4812 -0.3841  0.2365
55543SOL    HW175407   7.411   7.842   2.121  1.5455  0.5000  0.3085
55543SOL    HW275408   7.308   7.931   2.188  2.7160  1.2604  1.1230
55544SOL     OW75409   8.978  12.219   5.239 -0.1345 -0.5533 -0.1092
55544SOL    HW175410   8.916  12.230   5.311  0.2799  1.0146  0.0423
55544SOL    HW275411   9.064  12.218   5.280  0.0620 -0.4667 -0.5080
55545SOL     OW75412   8.143  12.482   5.441  0.0233  0.5954 -0.1061
55545SOL    HW175413   8.178  12.552   5.496 -0.2403 -0.6543  1.7376
55545SOL    HW275414   8.081  12.436   5.497  1.0006 -1.8048 -0.8572
55546SOL     OW75415   2.071   6.127  11.465  0.1805  0.3823 -0.2381
55546SOL    HW175416   2.052   6.067  11.537  0.0017  0.2823 -0.3677
55546SOL    HW275417   2.133   6.080  11.410  0.6133  0.6072  0.0485
55547SOL     OW75418  12.281   2.955   0.995  0.1384  0.6888 -0.5390
55547SOL    HW175419  12.341   3.030   0.985 -1.0204  1.7454  0.2038
55547SOL    HW275420  12.226   2.959   0.917  1.3546 -0.6318 -1.5173
55548SOL     OW75421   0.909   5.449   1.219 -0.4266 -0.2345 -0.1938
55548SOL    HW175422   0.833   5.416   1.267 -0.8247 -0.3129 -0.8636
55548SOL    HW275423   0.975   5.381   1.230 -0.8698 -0.7434 -0.6379
55549SOL     OW75424   5.930   1.801   4.368 -0.1486 -0.2453  0.5175
55549SOL    HW175425   5.908   1.754   4.449  0.1652 -1.5810 -0.1372
55549SOL    HW275426   5.906   1.892   4.385 -0.8642 -0.6562  1.8100
55550SOL     OW75427   7.039  10.921  11.448 -0.7159  0.0917  1.1500
55550SOL    HW175428   6.988  10.961  11.519 -0.3058  0.9500  0.9693
55550SOL    HW275429   7.106  10.986  11.426  1.7768 -1.7240  2.7240
55551SOL     OW75430   4.432  10.425   0.659 -0.2513  0.2067  0.1192
55551SOL    HW175431   4.396  10.369   0.589 -1.3449  0.6044  0.3319
55551SOL    HW275432   4.388  10.395   0.738 -1.7974  2.0912  0.0694
55552SOL     OW75433   1.306  11.014   5.056  0.3768 -0.3153  0.3259
55552SOL    HW175434   1.246  11.019   5.130  0.3999  1.6725  0.2733
55552SOL    HW275435   1.307  10.922   5.031 -2.3096 -0.4748  0.5942
55553SOL     OW75436   1.251   6.889   3.768  0.2888 -0.6152  0.0555
55553SOL    HW175437   1.164   6.850   3.767 -1.7960  3.5677  0.7104
55553SOL    HW275438   1.271   6.902   3.861  0.1873  1.1808 -0.1403
55554SOL     OW75439  12.222  12.285   7.565 -0.1355 -0.4514  0.0387
55554SOL    HW175440  12.289  12.228   7.602  3.0563  2.2682 -1.1071
55554SOL    HW275441  12.170  12.313   7.641  2.8285  0.7510  1.8114
55555SOL     OW75442   0.592   9.007   8.885 -0.1145 -0.4675 -0.2405
55555SOL    HW175443   0.643   8.985   8.963 -0.1160  0.2315 -0.0374
55555SOL    HW275444   0.618   9.096   8.863 -0.0477 -0.6886 -1.0999
55556SOL     OW75445  11.993  11.493   7.296  0.3067 -0.6684 -0.1545
55556SOL    HW175446  12.037  11.498   7.380 -0.5297 -1.4272  0.3438
55556SOL    HW275447  12.021  11.572   7.249 -0.8789  0.9381  1.6438
55557SOL     OW75448   0.685   4.462  11.425  0.4144 -0.0695 -0.3433
55557SOL    HW175449   0.692   4.494  11.335 -1.5952  0.1019 -0.4926
55557SOL    HW275450   0.714   4.371  11.421  0.1510 -0.1195 -1.2105
55558SOL     OW75451   0.209   7.995   3.345 -0.6811  0.1197  0.0256
55558SOL    HW175452   0.266   8.056   3.299 -0.3881  0.3473  0.6778
55558SOL    HW275453   0.263   7.918   3.361 -0.8601 -0.0629 -0.2337
55559SOL     OW75454   1.892   4.907   8.555  0.0809  0.3646  0.5269
55559SOL    HW175455   1.875   4.989   8.507  0.2610  0.4036  0.5290
55559SOL    HW275456   1.826   4.905   8.623 -0.2341  0.2651  0.2203
55560SOL     OW75457   0.371   5.237  12.226 -0.3188  0.6171 -0.3726
55560SOL    HW175458   0.398   5.328  12.232 -0.9099  0.7009  3.0885
55560SOL    HW275459   0.294   5.231  12.283  0.2241 -2.1825  0.2129
55561SOL     OW75460   7.820   9.336   2.482 -0.1469 -0.1277  0.3264
55561SOL    HW175461   7.814   9.423   2.523 -0.6529 -0.1716  0.3446
55561SOL    HW275462   7.730   9.304   2.479  0.0907 -0.8701  0.7830
55562SOL     OW75463   4.287   2.344  12.427 -0.1719  0.1618 -0.8515
55562SOL    HW175464   4.234   2.305  12.497 -1.1198 -0.3043 -1.8016
55562SOL    HW275465   4.351   2.275  12.405 -0.0213  0.2218 -0.6068
55563SOL     OW75466   6.463   8.400   4.265  0.7468  0.7298 -0.1276
55563SOL    HW175467   6.392   8.424   4.206  0.4879 -1.1817 -0.6639
55563SOL    HW275468   6.495   8.483   4.300  0.7209  1.9079 -2.7292
55564SOL     OW75469   9.835   5.904   0.823  1.0094  0.4002  0.1815
55564SOL    HW175470   9.919   5.892   0.867  1.5100  3.0743  0.1587
55564SOL    HW275471   9.857   5.950   0.742 -0.4755  1.2228  0.2074
55565SOL     OW75472   9.147   1.341  10.337 -0.2558 -0.3141  0.5786
55565SOL    HW175473   9.078   1.397  10.302  0.6360  0.2651 -0.3104
55565SOL    HW275474   9.208   1.402  10.378  0.2691 -0.7090  0.3941
55566SOL     OW75475   2.044   3.371   8.120  0.5917 -0.8539  0.0597
55566SOL    HW175476   1.969   3.315   8.103 -0.9675  0.9659  0.5263
55566SOL    HW275477   2.076   3.344   8.206  0.2718 -1.4349 -0.0034
55567SOL     OW75478   7.408   3.816   0.588  0.1873  0.2121 -0.3917
55567SOL    HW175479   7.388   3.904   0.620  0.2035 -0.3370  1.2459
55567SOL    HW275480   7.327   3.767   0.599 -0.1340  0.2580 -2.2924
55568SOL     OW75481   7.270  10.060   2.400 -0.1019  0.1849 -0.2661
55568SOL    HW175482   7.188  10.108   2.409 -0.4165 -0.6380  2.3111
55568SOL    HW275483   7.331  10.105   2.459  0.2616 -1.1480  0.4351
55569SOL     OW75484  10.654  12.064   1.066  0.3344 -0.1391 -0.4959
55569SOL    HW175485  10.704  11.994   1.111 -0.4119 -0.2983  0.1050
55569SOL    HW275486  10.598  12.100   1.134  2.0300  2.3676 -0.2868
55570SOL     OW75487   0.633   8.567   4.592  0.2153  0.2643  0.0944
55570SOL    HW175488   0.647   8.551   4.685  0.6349 -0.2729 -0.0547
55570SOL    HW275489   0.538   8.574   4.582  0.1505  0.0027  0.5129
55571SOL     OW75490   4.539   0.392   1.224 -0.3812  0.2041  0.2090
55571SOL    HW175491   4.492   0.447   1.161  0.5333 -0.0354 -0.7219
55571SOL    HW275492   4.532   0.303   1.187 -0.2127 -0.0067  0.6782
55572SOL     OW75493   8.093   6.832  10.277  0.0182 -0.0514  0.1936
55572SOL    HW175494   8.046   6.828  10.194  0.5859 -0.1730 -0.1249
55572SOL    HW275495   8.034   6.879  10.336 -0.3153  0.1824 -0.3259
55573SOL     OW75496  10.744   6.109   8.011  0.1997 -0.4600 -0.3382
55573SOL    HW175497  10.766   6.191   8.055 -3.0846  1.4819 -1.8546
55573SOL    HW275498  10.655   6.090   8.040 -0.6218 -1.2191 -3.0445
55574SOL     OW75499   3.817   9.138   2.274 -0.3711  0.2701  0.9334
55574SOL    HW175500   3.735   9.166   2.314 -0.8670  0.8946 -0.4374
55574SOL    HW275501   3.808   9.043   2.261 -1.2803  0.4686 -0.0239
55575SOL     OW75502   5.247   4.689   8.037  0.2885 -0.2227  0.4980
55575SOL    HW175503   5.161   4.697   7.996  0.6005 -0.6617 -0.2637
55575SOL    HW275504   5.309   4.693   7.965  0.9072 -0.0206  1.0292
55576SOL     OW75505  11.603   9.072   2.707  0.0635  0.2023 -0.0087
55576SOL    HW175506  11.542   9.056   2.635 -1.6900  3.1335  0.6551
55576SOL    HW275507  11.547   9.094   2.782  1.7596  4.7278  0.2270
55577SOL     OW75508  10.284   2.564   5.345 -0.2882 -0.1978 -0.1076
55577SOL    HW175509  10.205   2.580   5.397 -0.4852  0.7886 -0.6818
55577SOL    HW275510  10.252   2.529   5.262 -0.0835 -0.3249 -0.1334
55578SOL     OW75511   8.147   9.954   0.681  0.1896 -0.2752  0.6583
55578SOL    HW175512   8.090   9.878   0.685 -1.0023  0.5976  0.9052
55578SOL    HW275513   8.235   9.918   0.671 -0.6127 -1.6277 -3.2083
55579SOL     OW75514   7.719   3.554   3.435  0.0330 -0.2448  0.3058
55579SOL    HW175515   7.638   3.508   3.413  1.1979 -1.5195 -1.7322
55579SOL    HW275516   7.735   3.532   3.526 -0.0596 -3.0866 -0.2622
55580SOL     OW75517   6.415   7.671   0.398  0.1800  0.5276  0.4398
55580SOL    HW175518   6.442   7.744   0.342  0.3657  0.3033  0.2359
55580SOL    HW275519   6.448   7.693   0.485  0.1403  0.7392  0.4008
55581SOL     OW75520   6.377   0.982   4.261 -0.2752 -0.4637 -0.1761
55581SOL    HW175521   6.387   0.906   4.203  0.8079 -0.3425 -0.1790
55581SOL    HW275522   6.352   0.944   4.345  0.6052 -0.8755 -0.0855
55582SOL     OW75523   8.257  12.568   1.275 -0.1696 -0.3331  0.0197
55582SOL    HW175524   8.235  12.476   1.290  0.5644 -0.5780 -0.3578
55582SOL    HW275525   8.238  12.582   1.182 -1.2044  0.1743  0.2877
55583SOL     OW75526   3.596   3.230  10.856 -0.0068  0.0762  0.2140
55583SOL    HW175527   3.633   3.154  10.810 -1.6035 -2.4273  2.7636
55583SOL    HW275528   3.524   3.258  10.799  0.6742 -0.2001 -0.8291
55584SOL     OW75529  11.626   4.402   7.131  0.5199 -0.2460  0.2903
55584SOL    HW175530  11.642   4.375   7.222 -3.2664  0.4744  1.3544
55584SOL    HW275531  11.697   4.463   7.111  0.8480  0.4763  3.2008
55585SOL     OW75532   7.613   2.246  11.917 -0.1175 -0.3696 -0.2316
55585SOL    HW175533   7.635   2.174  11.976 -1.0638 -0.6991 -0.2578
55585SOL    HW275534   7.527   2.223  11.882 -0.8071  1.1532  0.3702
55586SOL     OW75535   1.956  10.438  10.587  0.0596 -0.1547 -0.1426
55586SOL    HW175536   1.971  10.405  10.675  0.0170 -4.1684 -1.4514
55586SOL    HW275537   1.860  10.440  10.578  0.0687 -0.9350 -0.4624
55587SOL     OW75538  10.744   4.484  11.048 -0.6981  0.2657  0.0284
55587SOL    HW175539  10.778   4.571  11.028 -1.0601  0.3779 -0.1030
55587SOL    HW275540  10.650   4.490  11.030 -0.9418  0.2077  1.1960
55588SOL     OW75541   7.167   5.697  11.161 -0.6688  0.1051 -0.3104
55588SOL    HW175542   7.099   5.715  11.226  0.5130 -0.5189  1.1370
55588SOL    HW275543   7.212   5.619  11.193  2.2778  1.8211  0.1060
55589SOL     OW75544   2.071   1.789   8.255  0.5349  0.3974  0.4503
55589SOL    HW175545   2.006   1.795   8.325 -2.2422 -0.7855 -1.8123
55589SOL    HW275546   2.119   1.871   8.260 -0.4555  0.9113  2.8704
55590SOL     OW75547   9.251  11.017   4.203 -0.6278  0.1770  0.6236
55590SOL    HW175548   9.328  11.073   4.195 -0.4736 -0.2450 -1.6673
55590SOL    HW275549   9.190  11.065   4.258  0.7723  1.0908  1.4130
55591SOL     OW75550   2.927   9.955  10.884 -0.1389 -0.2122 -0.2896
55591SOL    HW175551   2.941   9.935  10.791  1.8616  0.3591 -0.1461
55591SOL    HW275552   2.832   9.949  10.895 -0.3169 -1.5125 -2.0812
55592SOL     OW75553  12.462  12.476   7.371 -0.7724  0.1117  0.2546
55592SOL    HW175554  12.437  12.483   7.463 -2.2240  1.1225 -0.1730
55592SOL    HW275555  12.380  12.459   7.325  0.0820 -1.6045 -0.7724
55593SOL     OW75556   4.553   9.727   1.458 -0.3795  1.1101  0.5715
55593SOL    HW175557   4.619   9.660   1.475  0.1233  0.7401 -2.2593
55593SOL    HW275558   4.473   9.694   1.499  0.3882 -0.1134  1.1286
55594SOL     OW75559   0.285   8.699   5.413 -0.3950 -0.2520 -0.0727
55594SOL    HW175560   0.309   8.632   5.349  1.3376  1.4096 -1.2632
55594SOL    HW275561   0.365   8.713   5.464 -0.3536  1.7060 -0.6197
55595SOL     OW75562  10.945   2.638   4.381 -0.2454  0.2853 -0.1099
55595SOL    HW175563  10.962   2.726   4.347 -2.5537  1.2064  0.8962
55595SOL    HW275564  10.877   2.604   4.324 -1.5469  0.4169  1.2874
55596SOL     OW75565   0.802   3.888   4.266 -0.0564  0.6502 -0.3769
55596SOL    HW175566   0.784   3.794   4.256 -1.4038  1.0816 -2.5240
55596SOL    HW275567   0.895   3.892   4.289 -0.4093 -1.2592  1.7667
55597SOL     OW75568   3.188  10.287   5.887  0.0844  0.2796 -0.0551
55597SOL    HW175569   3.184  10.191   5.893 -0.4626  0.3356  0.6812
55597SOL    HW275570   3.231  10.304   5.804  0.3515 -0.6121 -0.1150
55598SOL     OW75571   1.793  11.460   7.787  0.2744 -0.1397  0.0268
55598SOL    HW175572   1.886  11.453   7.810 -0.1342 -0.0050  1.8827
55598SOL    HW275573   1.757  11.373   7.806 -0.1047  0.0016 -0.0327
55599SOL     OW75574   1.634   9.760   7.717  0.5956  0.4133  0.2320
55599SOL    HW175575   1.716   9.763   7.766 -0.6741 -0.7479  2.5896
55599SOL    HW275576   1.579   9.697   7.764 -0.9501 -0.4087 -2.4383
55600SOL     OW75577   4.309   8.701   3.173  0.3277 -0.2270 -0.4987
55600SOL    HW175578   4.287   8.783   3.218 -4.3559 -1.1175 -0.6818
55600SOL    HW275579   4.277   8.632   3.231 -0.2083 -1.6829 -2.4065
55601SOL     OW75580   3.931   2.205  12.484  0.3717  0.2610  0.0236
55601SOL    HW175581   3.852   2.156  12.467 -0.5608  1.3917  0.9033
55601SOL    HW275582   3.977   2.209  12.400 -0.3251 -0.6932 -0.4104
55602SOL     OW75583   5.352   8.167   5.293 -0.0094  0.1267 -0.4391
55602SOL    HW175584   5.350   8.074   5.316  0.2053 -0.4755 -2.5816
55602SOL    HW275585   5.389   8.211   5.369  0.5825 -1.6409  0.3381
55603SOL     OW75586   2.999   9.113   3.113 -0.2299  0.6864  0.0002
55603SOL    HW175587   2.963   9.200   3.127  0.3192  1.0240 -0.6407
55603SOL    HW275588   2.930   9.064   3.069  0.3361  1.5598 -1.9392
55604SOL     OW75589  11.377   8.451   4.670  0.2128 -0.1799 -0.0942
55604SOL    HW175590  11.438   8.415   4.606 -1.5295 -0.0922 -1.9141
55604SOL    HW275591  11.430   8.511   4.723  2.0661 -1.5289 -0.3073
55605SOL     OW75592   2.663  11.012   7.591  0.0314  0.2138  0.5265
55605SOL    HW175593   2.627  10.977   7.673  0.0041  1.2277  0.9680
55605SOL    HW275594   2.729  10.948   7.565 -0.0729 -0.2116  1.2549
55606SOL     OW75595  10.790   4.049   3.969  0.1674 -0.5926  0.1910
55606SOL    HW175596  10.815   4.024   4.058 -1.8561 -0.1187  0.9472
55606SOL    HW275597  10.793   4.145   3.970 -1.4567 -0.5264  0.2761
55607SOL     OW75598  12.522   5.281   2.329  0.0217  0.4519  0.2414
55607SOL    HW175599  12.549   5.357   2.380  1.7223  0.0173  0.0477
55607SOL    HW275600  12.537   5.206   2.387 -0.5068  0.1577  0.0092
55608SOL     OW75601   2.550  11.105  10.716  0.4800 -0.8342 -0.0181
55608SOL    HW175602   2.456  11.085  10.715  0.5125 -1.0111 -1.4453
55608SOL    HW275603   2.579  11.081  10.804 -1.2320  1.3051  1.2275
55609SOL     OW75604   2.453  11.051  11.589 -0.2106  0.6558 -0.2528
55609SOL    HW175605   2.405  10.973  11.616  0.2274 -0.0820 -1.5036
55609SOL    HW275606   2.414  11.122  11.639 -1.5027 -0.1634 -0.0460
55610SOL     OW75607   4.656   4.129   4.454  0.0859 -0.7483 -0.5613
55610SOL    HW175608   4.579   4.088   4.494 -0.6489  1.2094  0.1011
55610SOL    HW275609   4.728   4.068   4.472 -0.5106 -0.6925  2.3931
55611SOL     OW75610   2.257   8.775   0.005  0.0387 -0.0360 -0.0766
55611SOL    HW175611   2.317   8.702  -0.006  2.4386  1.8443 -0.4918
55611SOL    HW275612   2.314   8.852   0.006 -1.8553  1.6444  4.3835
55612SOL     OW75613   9.035   7.742   1.728 -0.8880 -0.4209 -0.3860
55612SOL    HW175614   8.998   7.654   1.734 -1.2779 -0.1350  2.8980
55612SOL    HW275615   9.062   7.764   1.817 -0.2181  2.5558 -1.1961
55613SOL     OW75616  12.048  10.593   7.126  0.9385 -0.1498  0.4570
55613SOL    HW175617  12.131  10.640   7.119 -0.5091  2.4133 -0.8058
55613SOL    HW275618  12.006  10.630   7.203  0.1726 -0.0303 -0.0085
55614SOL     OW75619   0.560   3.535  12.211 -0.1313 -0.6876  0.3343
55614SOL    HW175620   0.596   3.447  12.225  0.1385 -0.5447  0.5513
55614SOL    HW275621   0.475   3.533  12.256 -0.5746 -1.1419 -0.4919
55615SOL     OW75622   3.080  11.670   9.718  0.5495 -0.2313  0.3537
55615SOL    HW175623   3.164  11.635   9.747  0.1530 -0.3696  1.3804
55615SOL    HW275624   3.090  11.765   9.723 -0.0426 -0.2332  2.6534
55616SOL     OW75625   3.164  10.248  10.688  0.3911  0.3593 -0.2465
55616SOL    HW175626   3.156  10.165  10.641  0.2478  0.1516  0.1379
55616SOL    HW275627   3.081  10.293  10.671  0.4458  0.3970 -0.4097
55617SOL     OW75628   1.697  12.605   9.008 -0.2308  0.1531 -0.3098
55617SOL    HW175629   1.757  12.628   9.079 -1.8553  0.7174  0.9361
55617SOL    HW275630   1.675  12.688   8.968  0.4768 -0.1408 -1.3548
55618SOL     OW75631   5.036   2.794   8.210  0.4984  0.2818  0.5928
55618SOL    HW175632   5.024   2.885   8.182  0.2759 -0.1688 -0.8356
55618SOL    HW275633   4.949   2.755   8.202  0.8559 -0.4012 -0.1030
55619SOL     OW75634  12.554  11.587  11.289  0.3226  0.3302 -0.2152
55619SOL    HW175635  12.518  11.634  11.214  0.3668 -0.2348 -0.5946
55619SOL    HW275636  12.608  11.518  11.251 -1.1274 -1.1483  0.2908
55620SOL     OW75637   8.030   9.247   1.366 -0.0335 -0.0757  0.8072
55620SOL    HW175638   8.054   9.317   1.305 -2.4021 -0.5670 -0.8225
55620SOL    HW275639   8.105   9.240   1.425  1.8714  1.2304 -1.3039
55621SOL     OW75640   6.559   9.565   1.523 -0.2078  0.0051  0.0731
55621SOL    HW175641   6.551   9.656   1.494  1.7710  0.1011 -0.2803
55621SOL    HW275642   6.485   9.520   1.483 -1.1895  1.4342  0.2158
55622SOL     OW75643   2.599   0.864   1.597  0.0770  0.9972 -0.1963
55622SOL    HW175644   2.664   0.902   1.657  0.4885 -1.8620  1.3558
55622SOL    HW275645   2.515   0.896   1.630  0.4141  0.7010  1.0265
55623SOL     OW75646   3.768  10.387   5.437  0.2210 -0.1293 -0.0507
55623SOL    HW175647   3.809  10.469   5.464 -0.4495  0.3451 -0.4303
55623SOL    HW275648   3.837  10.339   5.392  1.1929 -0.6673  1.9130
55624SOL     OW75649  12.412   1.341   3.167 -1.0083 -0.5094 -0.2238
55624SOL    HW175650  12.378   1.430   3.167  2.2710  0.9007  0.0470
55624SOL    HW275651  12.477   1.341   3.096  0.1667 -2.1663  0.7791
55625SOL     OW75652   8.565  10.209  10.883 -0.2930  1.2844  0.5497
55625SOL    HW175653   8.574  10.126  10.836 -1.2827  1.2854  0.3295
55625SOL    HW275654   8.471  10.215  10.903  0.0767  1.3044  2.4994
55626SOL     OW75655   1.113   3.390   1.576  0.4429  0.0797  0.1110
55626SOL    HW175656   1.207   3.400   1.592  0.1083  1.9645  1.1798
55626SOL    HW275657   1.091   3.465   1.519 -0.8575  1.2577  2.0596
55627SOL     OW75658   0.643   6.536   5.895  0.2829  0.9449  0.1115
55627SOL    HW175659   0.576   6.518   5.961  0.3725  1.0689  0.2359
55627SOL    HW275660   0.664   6.628   5.905 -1.0229  1.4388 -1.3250
55628SOL     OW75661   6.546  11.232   2.950  0.6535 -0.2575 -0.2051
55628SOL    HW175662   6.569  11.263   2.862  1.9152 -0.4930  0.0197
55628SOL    HW275663   6.563  11.307   3.007  0.4688 -0.3095 -0.0799
55629SOL     OW75664   8.815   7.743   8.034 -0.8471 -0.0881  0.1004
55629SOL    HW175665   8.816   7.833   8.066 -3.1366 -0.0382  0.1970
55629SOL    HW275666   8.831   7.751   7.940  0.8667  0.2076  0.3819
55630SOL     OW75667   3.112   2.323   8.091  0.1337  0.2280 -0.5404
55630SOL    HW175668   3.205   2.312   8.111 -0.1591 -1.7594 -0.0413
55630SOL    HW275669   3.098   2.270   8.012 -0.6592  0.1705 -0.3707
55631SOL     OW75670  11.206  10.890   1.056  0.3086  0.2629  0.1789
55631SOL    HW175671  11.227  10.941   0.978  0.3803  0.7056  0.4826
55631SOL    HW275672  11.289  10.849   1.080 -0.2142 -1.9093 -1.3988
55632SOL     OW75673  11.806   2.199   8.771 -0.6623  0.0646  0.2962
55632SOL    HW175674  11.777   2.148   8.847 -0.3826 -2.0623 -0.9558
55632SOL    HW275675  11.728   2.206   8.716 -0.2807 -0.4603 -0.3117
55633SOL     OW75676  10.012   5.803  10.944 -0.1491  0.5031 -0.0687
55633SOL    HW175677  10.051   5.761  10.867 -0.8425  0.7855 -0.5770
55633SOL    HW275678  10.084   5.807  11.008  0.1893 -0.5523 -0.3646
55634SOL     OW75679   4.318   3.190   4.383  0.0102 -0.1227 -0.2004
55634SOL    HW175680   4.259   3.119   4.359  0.3130 -0.1971 -0.7446
55634SOL    HW275681   4.266   3.247   4.439 -0.5455 -0.2395 -0.5958
55635SOL     OW75682   5.976   7.378   6.515  0.4699 -0.4315  0.1563
55635SOL    HW175683   5.920   7.379   6.592  1.2965 -0.2609  0.7753
55635SOL    HW275684   5.961   7.292   6.475  0.8996 -0.9927  1.1727
55636SOL     OW75685   0.236   2.628   5.270  0.1078  0.5093 -0.0973
55636SOL    HW175686   0.270   2.663   5.352  1.1591  1.0242 -0.7285
55636SOL    HW275687   0.154   2.586   5.294  0.4421  0.5650  1.2316
55637SOL     OW75688  11.790   4.642   3.183  0.2084  0.4693 -0.2695
55637SOL    HW175689  11.734   4.600   3.117  0.6959 -0.1589 -0.2887
55637SOL    HW275690  11.845   4.702   3.133  1.1270 -0.5886 -0.5413
55638SOL     OW75691   5.633   9.137  11.888 -0.2994  0.2923 -0.0251
55638SOL    HW175692   5.623   9.194  11.964  1.1185  1.7929 -0.9121
55638SOL    HW275693   5.696   9.181  11.832 -0.7615 -1.1224 -1.7752
55639SOL     OW75694   7.788   4.314   6.285  0.0587 -0.3756 -0.2903
55639SOL    HW175695   7.826   4.340   6.368  1.5444 -0.4838 -0.9117
55639SOL    HW275696   7.794   4.218   6.284  1.6439 -0.3060 -1.2079
55640SOL     OW75697  12.451   4.062   6.337  0.4193  0.5122  0.4865
55640SOL    HW175698  12.464   4.014   6.255  0.0801  0.7476  0.2950
55640SOL    HW275699  12.383   4.012   6.383 -0.4600  1.2076 -0.0338
55641SOL     OW75700  11.522   8.131   5.158  0.4409 -0.1497  0.1284
55641SOL    HW175701  11.496   8.051   5.113  1.8517 -0.1981 -0.6579
55641SOL    HW275702  11.442   8.184   5.159 -0.4862 -1.5021  0.5757
55642SOL     OW75703  11.996   0.544  10.196 -0.1709  0.7047  0.2588
55642SOL    HW175704  11.901   0.537  10.188 -0.2351  0.5441  1.0705
55642SOL    HW275705  12.030   0.461  10.165 -0.4158  0.0537  1.6355
55643SOL     OW75706   7.268  11.527   0.367  0.7901  0.0718 -0.3824
55643SOL    HW175707   7.267  11.623   0.361 -0.3846  0.0304 -1.2686
55643SOL    HW275708   7.345  11.507   0.419  0.1719  1.5787  1.1940
55644SOL     OW75709   1.228   7.747   6.090 -0.8299  0.2837 -0.1825
55644SOL    HW175710   1.157   7.705   6.138  0.6755 -0.9928  1.0446
55644SOL    HW275711   1.239   7.832   6.133  0.5513 -0.8727  1.9606
55645SOL     OW75712   2.509   8.391   0.345 -0.1191 -0.2821 -0.3782
55645SOL    HW175713   2.576   8.352   0.288  0.9792  0.0867  0.6125
55645SOL    HW275714   2.526   8.353   0.431  0.0686  1.2796  0.3037
55646SOL     OW75715   7.270   7.039   9.870  0.8048 -0.1551 -0.3472
55646SOL    HW175716   7.249   6.957   9.825  0.7141  0.1448 -0.8552
55646SOL    HW275717   7.320   7.012   9.947  0.2146 -0.7408 -0.1533
55647SOL     OW75718  10.996   1.967   4.099  0.2936  0.1396  0.2574
55647SOL    HW175719  11.090   1.953   4.085  0.0961  0.1790 -1.3454
55647SOL    HW275720  10.977   2.045   4.046 -0.9548 -0.8444 -0.7737
55648SOL     OW75721   9.607   9.985  12.381 -0.1948 -0.1058  0.0967
55648SOL    HW175722   9.655   9.946  12.308  0.9186  3.3067 -1.1991
55648SOL    HW275723   9.668   9.981  12.455  0.6775  0.7847 -0.5387
55649SOL     OW75724   4.385   0.078   5.195  0.1339  0.2191 -0.2267
55649SOL    HW175725   4.351   0.015   5.259 -1.4526  1.3631  0.1154
55649SOL    HW275726   4.375   0.163   5.238  2.4824  0.7458 -0.5644
55650SOL     OW75727   2.545   4.161   8.142  0.1777  0.4370  0.2334
55650SOL    HW175728   2.559   4.066   8.136 -2.0200 -0.0256  1.4649
55650SOL    HW275729   2.450   4.172   8.134  0.2993  2.4531  0.9988
55651SOL     OW75730   0.953   9.515   7.721 -0.1742  0.0550  0.8810
55651SOL    HW175731   0.953   9.605   7.689  0.0783  0.1401  1.1174
55651SOL    HW275732   0.860   9.494   7.734 -0.2823  0.0184  0.1002
55652SOL     OW75733  11.313   3.579   8.365  0.0635 -0.4606 -0.1872
55652SOL    HW175734  11.289   3.632   8.289 -0.7589  0.5681  0.7483
55652SOL    HW275735  11.404   3.600   8.382 -0.0974  0.2493 -0.1735
55653SOL     OW75736   0.599   7.562   0.098  0.3220 -0.0649 -0.2663
55653SOL    HW175737   0.597   7.647   0.054 -2.0217  0.0378 -0.0886
55653SOL    HW275738   0.650   7.506   0.040  1.4736  1.3046 -0.6391
55654SOL     OW75739   8.531   4.517  11.094 -0.0864  0.0210  0.2023
55654SOL    HW175740   8.495   4.437  11.135 -0.3102  0.5310  1.0261
55654SOL    HW275741   8.496   4.516  11.005 -3.3210  1.1644  1.3183
55655SOL     OW75742   2.722   5.355   7.991  0.2250  0.1668 -0.1697
55655SOL    HW175743   2.635   5.316   7.990 -0.3585  1.4307 -0.6619
55655SOL    HW275744   2.776   5.294   7.941 -0.6086 -0.1137 -0.7543
55656SOL     OW75745  11.813   9.475   9.775  0.2751 -0.4721  0.1059
55656SOL    HW175746  11.821   9.445   9.685 -0.1289  0.4692 -0.2556
55656SOL    HW275747  11.722   9.505   9.783  0.0215 -1.4175  1.1109
55657SOL     OW75748   8.980   0.372   3.453 -0.2693  0.1282 -0.0630
55657SOL    HW175749   8.919   0.346   3.384 -0.3198  0.2226 -0.0543
55657SOL    HW275750   9.059   0.398   3.407 -0.4982  0.7357 -0.1220
55658SOL     OW75751   9.638   8.670   7.229  0.5053  0.1698  0.5235
55658SOL    HW175752   9.616   8.643   7.140  2.4807 -0.9879  0.3312
55658SOL    HW275753   9.558   8.651   7.279 -0.6336  0.8040 -0.9496
55659SOL     OW75754   0.479   7.944   6.340 -0.3546  0.2816  0.7717
55659SOL    HW175755   0.434   8.005   6.282  1.2383  0.4053 -0.3970
55659SOL    HW275756   0.441   7.859   6.319 -2.7925  0.8126  2.6153
55660SOL     OW75757   6.864   8.746   8.224  0.6019 -0.2458 -0.4759
55660SOL    HW175758   6.827   8.831   8.202 -0.5495 -0.9211 -1.2202
55660SOL    HW275759   6.957   8.754   8.203  0.0208 -0.0406 -3.2512
55661SOL     OW75760  12.271   6.300   8.793 -0.0902 -0.1962  0.1641
55661SOL    HW175761  12.187   6.290   8.749  0.5601 -2.1501 -0.7298
55661SOL    HW275762  12.250   6.288   8.886 -1.0899  1.5861  0.2294
55662SOL     OW75763   4.966   5.466   4.195  0.3135  0.3583  0.0976
55662SOL    HW175764   4.948   5.550   4.238 -0.9889  0.3922 -0.4698
55662SOL    HW275765   4.926   5.474   4.109  1.9384 -0.1154 -0.7372
55663SOL     OW75766   4.593   5.041   5.692  0.0386  0.0471 -0.2389
55663SOL    HW175767   4.515   4.997   5.725 -0.5178  0.9881 -0.2778
55663SOL    HW275768   4.649   4.969   5.660 -1.0476 -0.5971 -0.7507
55664SOL     OW75769   9.788  11.827   3.666  0.2697 -0.0046  0.2039
55664SOL    HW175770   9.797  11.740   3.704 -0.4846  0.5065  1.6382
55664SOL    HW275771   9.693  11.841   3.660  0.3757  0.4618 -0.6678
55665SOL     OW75772   3.470   4.531   2.172 -0.1591 -0.4387 -0.0563
55665SOL    HW175773   3.379   4.504   2.185 -0.5599  0.2994 -1.1517
55665SOL    HW275774   3.473   4.622   2.202 -0.4949  0.4492 -2.4461
55666SOL     OW75775  11.700   9.753   1.946  0.1791  0.0544  0.4739
55666SOL    HW175776  11.612   9.768   1.981  0.8323  0.3510  2.0542
55666SOL    HW275777  11.726   9.837   1.909  0.1346  0.2029  0.7784
55667SOL     OW75778   4.402  10.776   4.680 -0.2582  0.2666  0.0675
55667SOL    HW175779   4.320  10.729   4.665 -0.1092 -0.0820  0.3450
55667SOL    HW275780   4.409  10.836   4.606 -0.4614 -0.1275 -0.2745
55668SOL     OW75781   0.479   5.493  12.285 -0.1277 -0.4500  0.3894
55668SOL    HW175782   0.482   5.491  12.381  1.4836  0.3500  0.3842
55668SOL    HW275783   0.571   5.489  12.258 -0.4326  1.1412 -1.0720
55669SOL     OW75784   3.967   1.298  10.796 -0.1779  0.2743  0.5272
55669SOL    HW175785   3.968   1.378  10.743  0.8803 -0.9905 -1.4535
55669SOL    HW275786   3.912   1.321  10.871 -0.6249  2.5797 -0.4041
55670SOL     OW75787   7.470  10.662  10.002 -0.1602  0.2799 -0.0216
55670SOL    HW175788   7.404  10.632   9.940 -1.1494 -0.3970  1.3071
55670SOL    HW275789   7.427  10.732  10.052  0.1936 -0.0085  0.7061
55671SOL     OW75790   9.087  10.668   9.170 -0.4562  0.2133  0.3203
55671SOL    HW175791   9.092  10.720   9.090  0.3131  1.2360  1.0134
55671SOL    HW275792   9.147  10.711   9.231 -2.3416  0.5393  2.0670
55672SOL     OW75793  10.670   1.073   5.095  1.1086 -0.5006 -0.2215
55672SOL    HW175794  10.738   1.107   5.037  1.4477 -1.6927 -0.5580
55672SOL    HW275795  10.683   0.978   5.093 -1.0678 -0.8477 -0.9443
55673SOL     OW75796   2.223   6.027   0.458 -0.0586  0.2227 -0.3697
55673SOL    HW175797   2.300   5.990   0.500  0.3336  0.5975 -0.7491
55673SOL    HW275798   2.205   6.107   0.507 -0.3420  0.0130 -0.1358
55674SOL     OW75799   1.255  10.267   6.332  0.2281  0.1461 -0.0310
55674SOL    HW175800   1.194  10.323   6.380  0.0742  0.3621 -0.4720
55674SOL    HW275801   1.199  10.212   6.278  0.4434  0.9146 -1.0603
55675SOL     OW75802   1.744  11.546   9.721 -0.3261 -0.5492  0.3539
55675SOL    HW175803   1.661  11.499   9.722  0.3180 -1.7678  2.3449
55675SOL    HW275804   1.810  11.477   9.728  0.8957  0.3870 -1.3008
55676SOL     OW75805   0.249  11.141   7.499  0.2182 -0.1961 -0.5926
55676SOL    HW175806   0.306  11.200   7.451 -1.3668  1.8077 -0.1617
55676SOL    HW275807   0.308  11.088   7.553  1.8398 -0.6542 -2.6633
55677SOL     OW75808  11.334  12.106   9.861 -0.3317 -0.1056 -0.7918
55677SOL    HW175809  11.405  12.167   9.880 -1.0430  1.0643 -1.7244
55677SOL    HW275810  11.350  12.078   9.771  0.3088 -1.7954 -0.1935
55678SOL     OW75811  11.356   4.825   3.001  0.6725 -0.3294 -0.1725
55678SOL    HW175812  11.399   4.896   3.049  0.8171 -0.0663 -0.6804
55678SOL    HW275813  11.315   4.868   2.926 -0.0391 -0.6555  0.0250
55679SOL     OW75814   4.536   6.730  11.087  0.1111 -0.1654  0.2157
55679SOL    HW175815   4.493   6.810  11.118  1.1115 -0.1008  1.4934
55679SOL    HW275816   4.605   6.761  11.028 -1.1864 -0.2493 -1.4426
55680SOL     OW75817   3.208   1.059  10.205 -0.1799  0.2037  0.9881
55680SOL    HW175818   3.247   1.146  10.205 -0.7743  0.5110 -0.7399
55680SOL    HW275819   3.121   1.072  10.168 -0.6171 -1.0080  1.5291
55681SOL     OW75820   3.928   4.832   8.641  0.3420 -0.0900  0.1910
55681SOL    HW175821   3.872   4.910   8.638 -0.7320 -0.8373  0.1894
55681SOL    HW275822   3.947   4.813   8.549 -0.9808 -0.9132  0.0617
55682SOL     OW75823   5.492   5.513  10.647  0.6571 -0.1475  0.6117
55682SOL    HW175824   5.587   5.505  10.660  0.4657 -1.4094  1.4806
55682SOL    HW275825   5.458   5.426  10.668 -0.8945  0.7506  2.0839
55683SOL     OW75826   6.961   2.855   0.304  0.1249 -0.8673 -0.1270
55683SOL    HW175827   6.873   2.829   0.331  0.1253 -0.4156  0.3277
55683SOL    HW275828   6.947   2.915   0.230 -0.1464  1.5508  1.7309
55684SOL     OW75829   5.187   7.482   6.783 -0.3459 -0.4230 -0.3556
55684SOL    HW175830   5.156   7.468   6.872 -1.6825  5.8679  0.6125
55684SOL    HW275831   5.281   7.465   6.787 -0.3449 -0.1748  2.2721
55685SOL     OW75832   7.519   9.530   0.557 -0.1857  0.3552  0.2174
55685SOL    HW175833   7.453   9.554   0.622 -1.8390 -1.9250 -0.5274
55685SOL    HW275834   7.525   9.435   0.563 -0.5697  0.0245 -3.0852
55686SOL     OW75835   0.970   3.987   2.998 -0.3348  0.7697  0.3431
55686SOL    HW175836   1.023   4.016   2.924 -1.0615 -3.5931 -2.2317
55686SOL    HW275837   1.028   3.931   3.049 -1.0218  0.1275  0.4393
55687SOL     OW75838   9.946   5.931   7.700 -0.0084  1.1568 -0.2790
55687SOL    HW175839   9.932   6.021   7.730 -0.3558  0.5046  1.6638
55687SOL    HW275840   9.876   5.881   7.742  1.1163 -0.2824 -0.0434
55688SOL     OW75841   4.954  11.480   5.160  0.4729 -0.6369  0.5295
55688SOL    HW175842   4.885  11.496   5.224  1.5832  0.7011  1.4423
55688SOL    HW275843   4.952  11.556   5.103 -0.8300 -2.0368 -1.4149
55689SOL     OW75844   6.404   5.843   7.036 -0.3226 -0.2340 -0.3871
55689SOL    HW175845   6.358   5.835   6.952  1.6485 -1.3013 -1.4376
55689SOL    HW275846   6.462   5.766   7.039  0.7141  0.5574  1.2699
55690SOL     OW75847   7.028  11.740   6.970  0.3320  0.4120  0.1009
55690SOL    HW175848   7.032  11.751   7.065  0.1405 -2.4731  0.5397
55690SOL    HW275849   6.943  11.699   6.955  0.9998 -0.6120 -1.0961
55691SOL     OW75850   8.510   0.532   9.868  0.1303 -0.0514 -0.0146
55691SOL    HW175851   8.503   0.619   9.908  1.8904 -0.0324  0.3253
55691SOL    HW275852   8.494   0.548   9.775  0.9312  0.7449 -0.0361
55692SOL     OW75853   4.898  12.051   6.427 -0.2273 -0.1813  0.2764
55692SOL    HW175854   4.847  12.079   6.351 -0.8668  0.5981  0.9662
55692SOL    HW275855   4.872  11.960   6.442  0.7564 -0.7152 -1.1003
55693SOL     OW75856   1.174   6.184   9.430  0.7241  0.1290 -0.7268
55693SOL    HW175857   1.118   6.129   9.485  0.3270  0.8690 -0.3650
55693SOL    HW275858   1.128   6.189   9.346 -0.2419  1.4443 -0.1603
55694SOL     OW75859   1.375  10.434   7.169 -0.3558 -1.1667  0.0366
55694SOL    HW175860   1.296  10.452   7.220  1.4747 -1.8970  3.3463
55694SOL    HW275861   1.408  10.521   7.145 -1.5495 -0.8370 -0.5485
55695SOL     OW75862   9.735   0.552   0.138 -0.2227  0.1872 -0.1782
55695SOL    HW175863   9.719   0.607   0.215 -1.1576  1.6058 -1.3408
55695SOL    HW275864   9.653   0.555   0.089 -0.5878 -2.8847  0.0353
55696SOL     OW75865   7.080   6.173   9.780 -0.2126  0.0645 -0.0848
55696SOL    HW175866   7.140   6.166   9.854  1.6384  0.0651 -1.5326
55696SOL    HW275867   7.031   6.091   9.782 -1.1389  0.5890  1.8587
55697SOL     OW75868   0.133   3.817   6.064  0.1005 -0.1239 -0.1987
55697SOL    HW175869   0.198   3.767   6.112 -0.2276  1.1690  1.7111
55697SOL    HW275870   0.170   3.904   6.056 -0.8895  0.3232 -0.1184
55698SOL     OW75871   8.433   8.210   3.500  0.1279  0.1068  0.1074
55698SOL    HW175872   8.408   8.301   3.514  0.8958  0.3714 -0.1656
55698SOL    HW275873   8.356   8.169   3.462 -0.5033  0.4417  0.9979
55699SOL     OW75874   9.040   1.982   1.591 -0.0832 -0.1083 -0.2694
55699SOL    HW175875   9.071   2.017   1.508 -0.2921  1.9050  0.4385
55699SOL    HW275876   8.953   2.021   1.602 -0.1857 -0.5952  0.7472
55700SOL     OW75877   6.711   9.480  11.175 -0.5855 -0.0913  0.2378
55700SOL    HW175878   6.704   9.404  11.118  0.2312 -0.1750  0.2392
55700SOL    HW275879   6.665   9.550  11.129  2.4938  0.6877 -2.0323
55701SOL     OW75880   6.883  10.333   0.975 -0.1862  0.3481  0.2710
55701SOL    HW175881   6.871  10.409   1.032 -4.4587  0.9256 -1.0445
55701SOL    HW275882   6.837  10.263   1.020 -0.5313 -0.1291 -0.8146
55702SOL     OW75883   5.369   1.487   3.996  0.4381 -0.2213  0.2322
55702SOL    HW175884   5.386   1.522   3.909  1.5574  0.6358  0.7754
55702SOL    HW275885   5.335   1.561   4.046 -0.0337 -0.6656  0.5845
55703SOL     OW75886   5.009   1.954   1.556  0.7683  0.6410 -0.1115
55703SOL    HW175887   5.083   1.934   1.498  2.9199 -2.5933  3.3186
55703SOL    HW275888   5.040   2.027   1.610  0.5240  0.7218 -0.0782
55704SOL     OW75889   2.438   8.859   5.047 -0.7136 -0.5529  0.0730
55704SOL    HW175890   2.434   8.947   5.084 -0.8949 -0.8171  0.7028
55704SOL    HW275891   2.513   8.861   4.989  0.0375 -0.3305  1.0269
55705SOL     OW75892   0.922   7.061   6.186 -0.1374  0.3009  0.3180
55705SOL    HW175893   1.001   7.104   6.155  0.2517 -1.1779 -0.8370
55705SOL    HW275894   0.936   6.968   6.168 -1.2379 -0.2543  2.0817
55706SOL     OW75895   7.051   8.138  12.611  0.4903 -0.1382  0.0239
55706SOL    HW175896   7.015   8.101  12.692 -2.1785  0.5688 -0.7296
55706SOL    HW275897   7.098   8.216  12.638 -2.1706  1.3100  0.8160
55707SOL     OW75898   7.951   2.769   8.384 -0.3006  0.2448 -0.4515
55707SOL    HW175899   7.919   2.704   8.446 -0.9186 -0.3197 -1.3337
55707SOL    HW275900   7.876   2.828   8.371  0.4199  1.4826  0.7548
55708SOL     OW75901   0.836   8.856  10.572  0.0319 -0.8091 -0.2810
55708SOL    HW175902   0.795   8.771  10.553 -1.9269  0.1510 -0.6093
55708SOL    HW275903   0.788   8.889  10.648  0.0548  0.4555 -0.7949
55709SOL     OW75904   4.209   3.912   8.448 -0.7467 -0.4043  0.3303
55709SOL    HW175905   4.261   3.938   8.372 -0.4454 -2.3789 -0.1874
55709SOL    HW275906   4.156   3.990   8.468  1.1484  1.1051 -0.1469
55710SOL     OW75907   0.000   8.412   9.785  0.1468 -0.2353 -0.4957
55710SOL    HW175908  -0.068   8.372   9.731 -1.3024  0.2421  0.8971
55710SOL    HW275909   0.050   8.337   9.819 -0.4860 -0.6782 -0.5231
55711SOL     OW75910   9.432   6.565   9.052 -0.0189  0.1454  0.4481
55711SOL    HW175911   9.390   6.480   9.046  1.1408 -0.3579 -1.1560
55711SOL    HW275912   9.368   6.627   9.016  0.4469 -0.5784 -1.7809
55712SOL     OW75913   0.009   4.189   7.297  0.2533 -0.3970  0.2287
55712SOL    HW175914  -0.070   4.145   7.330 -0.1193  0.2677  0.2575
55712SOL    HW275915   0.082   4.142   7.338 -0.1377 -0.8461  0.4215
55713SOL     OW75916   3.465   9.536   1.366 -0.2828 -0.2591 -0.2975
55713SOL    HW175917   3.433   9.624   1.384 -1.9069 -0.8884  0.1900
55713SOL    HW275918   3.524   9.545   1.292 -0.6063  1.1973 -0.3936
55714SOL     OW75919   2.742  12.032   7.233  0.3298  0.2007  0.1161
55714SOL    HW175920   2.809  11.996   7.290  0.2460 -1.0139 -0.5200
55714SOL    HW275921   2.659  12.007   7.273  0.2214  1.8654  1.0046
55715SOL     OW75922   2.083   2.917  12.432  0.4359 -0.3225  0.1194
55715SOL    HW175923   2.039   2.832  12.429 -1.2959  0.5568 -2.3469
55715SOL    HW275924   2.016   2.978  12.463  2.4252 -0.0692  4.8767
55716SOL     OW75925   0.821   1.666   4.724 -0.1359  1.1302 -0.0986
55716SOL    HW175926   0.843   1.587   4.773  0.1401  1.8459  0.9783
55716SOL    HW275927   0.812   1.637   4.634  0.5589 -0.0178  0.1812
55717SOL     OW75928   4.479   2.461   0.192 -0.0971 -0.2850 -0.3385
55717SOL    HW175929   4.531   2.438   0.269 -0.6971 -2.2252 -0.4682
55717SOL    HW275930   4.538   2.448   0.118 -0.5983 -2.0939 -0.4551
55718SOL     OW75931   3.037   7.900   9.316  0.0607 -0.3527  0.0088
55718SOL    HW175932   2.955   7.948   9.305  0.9483  1.4575  0.8038
55718SOL    HW275933   3.062   7.874   9.227  0.9054  3.1676 -0.9715
55719SOL     OW75934   4.715  10.256   1.734 -0.2203 -0.0840 -0.1753
55719SOL    HW175935   4.673  10.170   1.732 -1.1067 -0.0994  4.7797
55719SOL    HW275936   4.776  10.251   1.808  0.6250  3.1930 -0.4857
55720SOL     OW75937   2.271   9.420   0.562 -0.2619 -0.2695 -0.8576
55720SOL    HW175938   2.188   9.418   0.516 -0.4198 -1.1978 -0.5372
55720SOL    HW275939   2.287   9.330   0.589 -0.8334  0.4210  2.0924
55721SOL     OW75940   9.794  12.353   6.163 -0.0645  0.2881 -0.0094
55721SOL    HW175941   9.815  12.322   6.075 -2.8539  1.1564 -1.0560
55721SOL    HW275942   9.771  12.273   6.211 -1.5709  0.0990 -1.0023
55722SOL     OW75943   5.256   1.790  10.617  0.0619 -0.5439  0.2218
55722SOL    HW175944   5.260   1.879  10.652  0.4366  0.0085 -1.1461
55722SOL    HW275945   5.344   1.774  10.583 -0.1916 -1.1690 -0.1508
55723SOL     OW75946   8.626   2.982  11.136  0.1414 -0.2805 -0.3143
55723SOL    HW175947   8.709   3.027  11.126 -0.2451  0.5746  0.2483
55723SOL    HW275948   8.587   3.019  11.216 -0.7615 -0.6917 -0.5474
55724SOL     OW75949   2.774   2.609   9.018  0.3844  0.3866 -0.0258
55724SOL    HW175950   2.807   2.541   9.076  0.1533  1.2177  1.1283
55724SOL    HW275951   2.690   2.635   9.057  0.0616  0.7297 -0.9251
55725SOL     OW75952  10.380   4.836  10.603 -0.0548  0.1074  0.0240
55725SOL    HW175953  10.335   4.758  10.569 -0.4037  0.3188 -0.0044
55725SOL    HW275954  10.379   4.898  10.531 -1.9407  1.0449  0.7634
55726SOL     OW75955   9.289  12.534   7.129 -0.4511  0.0059  0.1222
55726SOL    HW175956   9.244  12.451   7.119 -2.2323  0.8639  0.7340
55726SOL    HW275957   9.285  12.575   7.042 -1.3114  0.2932  0.2926
55727SOL     OW75958   0.639   4.750  10.752 -0.1217  0.3288  0.3285
55727SOL    HW175959   0.696   4.705  10.814  1.0408  0.1094 -0.8460
55727SOL    HW275960   0.676   4.838  10.744 -1.0122  0.7676  0.8749
55728SOL     OW75961  10.213   2.950   3.122  0.4962  0.2387  0.0962
55728SOL    HW175962  10.247   2.880   3.067  2.3249  2.3840 -1.7026
55728SOL    HW275963  10.119   2.953   3.102  0.6708 -0.6893 -0.9446
55729SOL     OW75964   4.897   7.260  12.050 -0.2894 -0.3890  0.0194
55729SOL    HW175965   4.980   7.235  12.011 -0.3435 -0.2959 -0.1582
55729SOL    HW275966   4.914   7.347  12.088  0.0035 -0.8488  0.9699
55730SOL     OW75967  10.310  12.386   6.441  0.0657  0.0530  0.5397
55730SOL    HW175968  10.398  12.407   6.473  0.8860 -3.3549  0.9086
55730SOL    HW275969  10.308  12.422   6.352  2.3838 -0.9213  0.0241
55731SOL     OW75970  12.223   3.632   8.330  0.8421 -0.1646  0.2632
55731SOL    HW175971  12.252   3.688   8.401 -0.2543 -1.2995  1.6797
55731SOL    HW275972  12.231   3.543   8.365 -0.8433 -0.6900 -0.5780
55732SOL     OW75973   6.155   5.448  11.066  0.2293  0.0329  0.7196
55732SOL    HW175974   6.094   5.390  11.021 -1.3023  0.9265  1.5474
55732SOL    HW275975   6.150   5.421  11.158  0.8092  0.3663  0.8554
55733SOL     OW75976  11.017   7.230  11.201  0.4441 -0.3804 -0.4977
55733SOL    HW175977  10.965   7.306  11.175 -0.3965 -0.6271  0.3943
55733SOL    HW275978  11.030   7.241  11.295 -0.6155 -1.8562 -0.1327
55734SOL     OW75979   8.105   1.689   1.017 -0.3866  0.6852 -0.1136
55734SOL    HW175980   8.188   1.722   1.050  0.8191  0.6883 -2.8805
55734SOL    HW275981   8.045   1.763   1.024  0.5472  1.4859 -0.4578
55735SOL     OW75982  11.606   6.091  10.892  0.2707  0.4856  0.2807
55735SOL    HW175983  11.596   6.028  10.822  1.2141 -0.5632  1.0590
55735SOL    HW275984  11.639   6.170  10.849  0.6240 -0.0638 -0.4750
55736SOL     OW75985   3.996   1.412   5.910  0.2951  0.6478  0.0564
55736SOL    HW175986   3.997   1.341   5.974 -0.2845 -0.3568 -1.0091
55736SOL    HW275987   4.040   1.376   5.833  1.3185  1.9621 -0.0007
55737SOL     OW75988   9.482   4.865   1.278  0.4878 -0.2168  0.2186
55737SOL    HW175989   9.483   4.879   1.373  1.8875  0.7717  0.0946
55737SOL    HW275990   9.572   4.840   1.257  1.1139  2.8287 -1.2497
55738SOL     OW75991   1.555  12.482  11.275 -0.1152 -0.5855  0.1065
55738SOL    HW175992   1.537  12.553  11.337 -0.5076  0.7647 -1.4943
55738SOL    HW275993   1.643  12.500  11.242 -0.0459 -1.0992  0.0011
55739SOL     OW75994   4.980  11.225   9.956  0.0427  0.0006 -0.1093
55739SOL    HW175995   4.909  11.176   9.997 -1.1411  2.0720  0.4610
55739SOL    HW275996   5.029  11.263  10.029  1.6690 -1.2145 -0.5014
55740SOL     OW75997   0.984   3.240   9.105 -0.1157  0.0402 -0.5389
55740SOL    HW175998   1.036   3.211   9.180 -1.3729  1.6873  1.0719
55740SOL    HW275999   0.983   3.165   9.046 -1.3590 -2.3816  2.3264
55741SOL     OW76000   2.336   9.938   9.724 -0.3013  0.0044  0.1963
55741SOL    HW176001   2.418   9.964   9.766 -0.9696  2.5638  0.1301
55741SOL    HW276002   2.364   9.883   9.651  1.1907 -0.7912  1.2982
55742SOL     OW76003   2.742   6.419   9.178 -0.3016 -0.1625 -0.4335
55742SOL    HW176004   2.806   6.489   9.193 -1.2391  0.5527  0.3854
55742SOL    HW276005   2.791   6.351   9.132  1.9586 -0.9662  2.7423
55743SOL     OW76006   2.559  11.971   7.458  0.7212  0.1657  0.6062
55743SOL    HW176007   2.474  11.960   7.414  1.6517  0.9715 -1.5910
55743SOL    HW276008   2.548  12.050   7.512  0.3886  1.0184 -0.6543
55744SOL     OW76009   1.595   3.653   3.283 -0.3298  0.1692 -0.7902
55744SOL    HW176010   1.537   3.707   3.336 -1.6017 -2.0595  0.2424
55744SOL    HW276011   1.639   3.596   3.347  0.7713 -0.2033 -1.8442
55745SOL     OW76012   6.245   9.268   6.302  0.4119  0.6539 -0.4222
55745SOL    HW176013   6.314   9.240   6.362  0.5370  1.1741 -0.3159
55745SOL    HW276014   6.242   9.200   6.235  0.6830  0.3719 -0.1515
55746SOL     OW76015   0.316   0.696   7.124  0.1821  0.1415 -0.8548
55746SOL    HW176016   0.408   0.672   7.114  0.3783  0.2007  0.5798
55746SOL    HW276017   0.268   0.627   7.077  0.8649 -1.3097  0.4987
55747SOL     OW76018   8.809  10.454   7.004  0.2529 -0.0525  0.0732
55747SOL    HW176019   8.762  10.382   7.045  0.5387  0.4457  1.3031
55747SOL    HW276020   8.748  10.528   7.005  1.0995  0.6920  1.9750
55748SOL     OW76021   8.337   0.263   2.511  0.6384 -0.2673 -0.2434
55748SOL    HW176022   8.286   0.307   2.579 -0.7750 -0.0766 -1.3792
55748SOL    HW276023   8.298   0.293   2.429  1.2103 -1.7927 -1.1053
55749SOL     OW76024   2.531   5.156   0.455 -0.1196  0.0034  0.3043
55749SOL    HW176025   2.535   5.217   0.529  0.6930  0.3495 -0.0140
55749SOL    HW276026   2.528   5.213   0.378  0.1011 -0.3636  0.0252
55750SOL     OW76027   7.044   2.913  11.927 -0.1219  0.7458 -0.0360
55750SOL    HW176028   6.968   2.855  11.917  0.0471  0.1975  1.6356
55750SOL    HW276029   7.110   2.877  11.868  0.8921 -2.4155  2.6987
55751SOL     OW76030   3.153   3.423   4.219 -0.3331 -0.8132  0.0376
55751SOL    HW176031   3.137   3.361   4.290 -0.0313  0.1833  1.0060
55751SOL    HW276032   3.140   3.372   4.139 -2.0083 -1.6533  0.7840
55752SOL     OW76033   7.799   3.453   8.529  0.6663  0.3931  0.1198
55752SOL    HW176034   7.844   3.381   8.573  2.0891  0.2105 -1.5250
55752SOL    HW276035   7.722   3.471   8.584  0.9354 -1.5428  1.2098
55753SOL     OW76036   0.487   3.165  11.222 -0.1597  0.1834 -0.1626
55753SOL    HW176037   0.513   3.189  11.311  0.9977 -0.1646 -0.3881
55753SOL    HW276038   0.456   3.075  11.229  2.2695 -0.7732 -0.4589
55754SOL     OW76039   9.487   5.510   0.679  0.4643 -0.1464  0.5272
55754SOL    HW176040   9.479   5.602   0.655  0.5527 -0.2047  0.2709
55754SOL    HW276041   9.426   5.464   0.622  1.1533 -0.3600 -0.0546
55755SOL     OW76042   5.047   3.535  11.031  0.2511  0.2231 -0.4060
55755SOL    HW176043   5.114   3.590  10.991  1.1229 -0.5964 -0.1220
55755SOL    HW276044   5.096   3.473  11.085 -0.6236 -1.2660 -1.2395
55756SOL     OW76045   0.565   2.714   3.022 -0.3572 -0.1511  0.0724
55756SOL    HW176046   0.542   2.621   3.016  0.0657 -0.2170 -0.7164
55756SOL    HW276047   0.597   2.726   3.111  0.3333 -0.9428 -0.0649
55757SOL     OW76048   6.556  10.764   7.471 -0.3382  0.0785  0.4122
55757SOL    HW176049   6.463  10.782   7.486 -0.1463  0.9587  0.5840
55757SOL    HW276050   6.602  10.815   7.538  0.4089  2.0392 -1.4761
55758SOL     OW76051   4.844   9.771   2.475  0.1222 -0.9425 -0.6768
55758SOL    HW176052   4.874   9.791   2.564 -1.8976 -1.1058  0.0786
55758SOL    HW276053   4.836   9.675   2.474 -1.3483 -0.8455 -0.4885
55759SOL     OW76054   0.749   9.878   3.939 -0.0837 -0.1916  0.3968
55759SOL    HW176055   0.816   9.903   4.003  1.0529 -0.5198 -0.6149
55759SOL    HW276056   0.725   9.789   3.963  1.5443 -0.9398 -0.5492
55760SOL     OW76057   6.808   5.331   6.975 -0.3318  0.9683 -0.2840
55760SOL    HW176058   6.846   5.409   7.016  0.4900  0.0522  0.7632
55760SOL    HW276059   6.856   5.257   7.015 -2.6232 -0.2057  0.4443
55761SOL     OW76060   6.449   9.352   1.248 -0.8842 -0.5223  0.0408
55761SOL    HW176061   6.405   9.418   1.193  0.0518 -0.3216 -0.4781
55761SOL    HW276062   6.418   9.372   1.337 -0.0548  1.1097  0.0069
55762SOL     OW76063  10.201   5.381   6.249 -0.1180  0.0071 -0.3118
55762SOL    HW176064  10.286   5.424   6.258 -0.0117  0.1891 -1.8765
55762SOL    HW276065  10.137   5.453   6.250 -0.0791  0.0629 -1.1673
55763SOL     OW76066   3.550   1.763   6.281 -0.2270 -0.6033 -0.0209
55763SOL    HW176067   3.488   1.720   6.340  0.7629 -1.6260  0.3145
55763SOL    HW276068   3.570   1.697   6.215  1.2618 -0.6630  0.4578
55764SOL     OW76069   6.521   2.358   8.922  0.6229  0.0695  0.6018
55764SOL    HW176070   6.538   2.300   8.996 -0.4419  1.1379  1.7123
55764SOL    HW276071   6.604   2.405   8.909  1.5695 -1.7687 -0.4409
55765SOL     OW76072   3.317   9.200   8.945  0.7121  0.0271 -0.1350
55765SOL    HW176073   3.307   9.218   8.852 -3.4317  0.6918  0.2357
55765SOL    HW276074   3.252   9.133   8.964  1.1732  0.1855  2.3519
55766SOL     OW76075   4.155  11.254   6.125 -0.2698  0.2953  0.2880
55766SOL    HW176076   4.072  11.300   6.126 -0.9257 -0.7534 -1.3514
55766SOL    HW276077   4.132  11.164   6.101  1.2678 -0.1670  0.4369
55767SOL     OW76078  10.908   2.886  10.424  0.0597 -0.3105  0.3384
55767SOL    HW176079  10.879   2.973  10.399 -1.9862 -0.9743  0.2230
55767SOL    HW276080  10.936   2.845  10.341  1.3733  0.3173  0.4455
55768SOL     OW76081   0.012   7.013   0.553 -0.2110 -0.6795  0.7077
55768SOL    HW176082  -0.013   6.924   0.530 -1.9768 -0.1056  0.2721
55768SOL    HW276083  -0.041   7.034   0.630  0.3432 -0.0700  0.9381
55769SOL     OW76084   8.484   9.973   2.647 -0.5526 -0.2146 -0.5401
55769SOL    HW176085   8.409   9.980   2.706  0.3059 -2.3980  0.9513
55769SOL    HW276086   8.551  10.029   2.687 -0.6905  0.0901 -0.7288
55770SOL     OW76087   6.420   6.923  10.964  0.3948 -0.0494  0.3157
55770SOL    HW176088   6.385   6.857  10.904 -0.7741  0.7231  0.1109
55770SOL    HW276089   6.501   6.953  10.922 -1.3379  1.8676 -1.9776
55771SOL     OW76090  10.586   9.681   7.481 -0.0069 -0.0236 -0.4816
55771SOL    HW176091  10.562   9.694   7.389  1.6638 -0.9492 -1.0933
55771SOL    HW276092  10.576   9.768   7.521 -2.6656  0.0152 -0.9948
55772SOL     OW76093  11.964  10.705  11.602 -0.4756  0.3415 -0.0329
55772SOL    HW176094  11.988  10.790  11.638  1.0180 -0.4206  0.8778
55772SOL    HW276095  11.899  10.671  11.663 -0.6121  0.5542 -0.0558
55773SOL     OW76096   7.053  11.501  10.495 -0.4533 -0.0097  0.4506
55773SOL    HW176097   7.104  11.523  10.573 -0.4399  1.6073  0.0287
55773SOL    HW276098   6.992  11.574  10.486 -0.2007  0.0245 -1.2455
55774SOL     OW76099   2.310   6.797  10.098 -0.2713 -0.2917 -0.2545
55774SOL    HW176100   2.396   6.797  10.139 -1.0883 -0.8480  1.5715
55774SOL    HW276101   2.309   6.876  10.044  1.0943  0.1265  0.2877
55775SOL     OW76102   2.981   7.631  10.108  0.1441 -0.0661  0.1864
55775SOL    HW176103   2.965   7.709  10.162  0.3894  0.6402 -0.7444
55775SOL    HW276104   2.937   7.648  10.025 -0.3999 -1.2380  0.2075
55776SOL     OW76105   7.648   0.187   0.745  0.1209  0.4611 -0.1409
55776SOL    HW176106   7.625   0.151   0.660 -0.4766  0.9833 -0.2018
55776SOL    HW276107   7.607   0.273   0.748  0.8366  0.8037  0.3440
55777SOL     OW76108   2.421   9.351   4.647 -0.1422  0.0521 -0.1492
55777SOL    HW176109   2.356   9.336   4.716 -0.7773  0.1407 -0.7243
55777SOL    HW276110   2.488   9.285   4.663 -0.8676 -0.6934 -0.1548
55778SOL     OW76111   3.379   4.466   5.779  0.8010 -0.0072 -0.0789
55778SOL    HW176112   3.464   4.484   5.738  1.0567 -1.7462 -0.4220
55778SOL    HW276113   3.395   4.478   5.873  1.3033  0.1411 -0.1782
55779SOL     OW76114   3.883   4.199   9.589 -0.5193 -0.7331  0.1722
55779SOL    HW176115   3.886   4.261   9.516 -0.4980 -2.0942 -1.0306
55779SOL    HW276116   3.814   4.137   9.565 -0.1051 -1.5432  1.0156
55780SOL     OW76117   3.542   8.943   9.484  0.9907  0.3506 -0.4391
55780SOL    HW176118   3.499   9.026   9.467  1.3988  0.8189  0.7318
55780SOL    HW276119   3.565   8.909   9.397 -0.9823  0.4680 -1.0485
55781SOL     OW76120  11.524  10.259   1.690  0.0333 -0.4299 -0.0808
55781SOL    HW176121  11.438  10.280   1.727 -0.0380 -0.3998 -0.2646
55781SOL    HW276122  11.582  10.255   1.766  0.2458  1.3376 -0.1073
55782SOL     OW76123   7.266   5.029   3.666 -0.0571 -0.1022 -0.8164
55782SOL    HW176124   7.222   5.039   3.582  0.5157 -1.5572 -1.3292
55782SOL    HW276125   7.295   4.938   3.667 -0.2318 -0.1876  1.0525
55783SOL     OW76126   0.273   8.140   9.421  0.6679  0.1388  0.0823
55783SOL    HW176127   0.183   8.108   9.431  0.8710 -0.2566  0.7361
55783SOL    HW276128   0.323   8.063   9.397  0.7259  0.4972 -1.0118
55784SOL     OW76129   4.519  10.941   8.304 -0.4307  0.1439  0.3148
55784SOL    HW176130   4.581  11.013   8.310 -0.6561  0.3540  0.0962
55784SOL    HW276131   4.445  10.968   8.359 -0.2724 -0.1657  0.6828
55785SOL     OW76132   8.834   0.517  11.055 -0.2069  0.0766  0.0008
55785SOL    HW176133   8.840   0.506  10.960  1.1393  1.9630 -0.1807
55785SOL    HW276134   8.892   0.451  11.091 -0.1274 -0.1483 -0.5337
55786SOL     OW76135   2.271   0.222   1.383  0.8952 -0.1196  0.2753
55786SOL    HW176136   2.178   0.199   1.385  0.6130  1.0344  1.0550
55786SOL    HW276137   2.315   0.147   1.423  0.3092 -0.6448 -0.0355
55787SOL     OW76138   1.808   9.759  11.155 -0.5528 -0.1830 -0.0926
55787SOL    HW176139   1.870   9.794  11.092  0.9234 -0.4998  1.1360
55787SOL    HW276140   1.846   9.676  11.182 -1.3092 -0.1897  0.9899
55788SOL     OW76141   8.632  11.691  12.601  0.1425 -0.2278  0.8902
55788SOL    HW176142   8.719  11.651  12.593 -1.0170 -2.5189 -1.9878
55788SOL    HW276143   8.578  11.621  12.639 -1.0800  0.0495 -0.2916
55789SOL     OW76144  11.461   9.567   0.216  0.6118  0.2716  0.1927
55789SOL    HW176145  11.526   9.586   0.149  0.7129 -0.8479 -0.0417
55789SOL    HW276146  11.501   9.497   0.269 -0.5876 -0.7622 -0.2422
55790SOL     OW76147   7.104   9.717   3.100  0.4129 -0.0098 -0.3856
55790SOL    HW176148   7.102   9.624   3.077 -0.3282 -0.2275  0.4974
55790SOL    HW276149   7.193   9.730   3.133 -0.0216 -0.8743  1.2386
55791SOL     OW76150   0.177   6.305   6.010 -0.9004 -0.1555 -0.0560
55791SOL    HW176151   0.140   6.239   5.952  0.5482 -0.3148 -0.8556
55791SOL    HW276152   0.134   6.387   5.984 -0.8127 -0.3575 -0.8558
55792SOL     OW76153   6.357  12.512   6.647 -0.5550 -0.3386  0.1467
55792SOL    HW176154   6.340  12.424   6.681  0.6318 -0.1950  1.1685
55792SOL    HW276155   6.405  12.497   6.566  1.9485 -0.6657  1.5987
55793SOL     OW76156  10.053   8.750   3.624  0.4244 -0.3217  0.2804
55793SOL    HW176157  10.054   8.655   3.637  1.1694 -0.6023 -1.4857
55793SOL    HW276158  10.048   8.787   3.712  1.7036 -2.0024  1.1142
55794SOL     OW76159   8.656   4.241  10.893  0.5461  0.1569  0.0196
55794SOL    HW176160   8.677   4.228  10.985 -2.1505  0.5794  0.7876
55794SOL    HW276161   8.627   4.155  10.862 -0.6579  0.4612  0.2339
55795SOL     OW76162   2.452   8.699   3.763  0.3731  0.0695  0.0475
55795SOL    HW176163   2.535   8.686   3.809  0.0833 -1.4778  0.1747
55795SOL    HW276164   2.435   8.793   3.771  3.0775  0.8304 -1.6697
55796SOL     OW76165   6.995   4.113  12.028  0.0285 -0.1278  0.0356
55796SOL    HW176166   7.026   4.204  12.034  0.5892 -0.1619 -1.5911
55796SOL    HW276167   6.901   4.121  12.013 -0.4767  0.0496  2.8128
55797SOL     OW76168   6.458   8.742   3.238 -0.1365 -0.1311  0.2109
55797SOL    HW176169   6.532   8.779   3.287 -0.8257 -0.2393  1.3793
55797SOL    HW276170   6.486   8.744   3.147  0.5744  1.6110  0.4203
55798SOL     OW76171  11.239   8.698   3.872 -0.2577 -0.6147  0.1127
55798SOL    HW176172  11.314   8.758   3.862  0.1971 -1.1516  0.2666
55798SOL    HW276173  11.270   8.615   3.835 -0.8828 -0.7615 -0.0898
55799SOL     OW76174   3.149   9.407   6.232  0.0290  0.4253 -0.0934
55799SOL    HW176175   3.195   9.368   6.306 -3.2529  2.2269  3.1946
55799SOL    HW276176   3.157   9.502   6.245 -1.0603  0.8042 -1.7785
55800SOL     OW76177   6.634   3.562   0.341 -0.3906  0.3054 -0.6463
55800SOL    HW176178   6.615   3.648   0.303  1.5436  0.6971 -0.8404
55800SOL    HW276179   6.707   3.578   0.401  1.3266 -1.4696 -2.1148
55801SOL     OW76180   5.578   5.953   7.128 -0.4374 -0.2698 -0.2425
55801SOL    HW176181   5.641   6.001   7.075 -0.4928 -1.5461 -1.5119
55801SOL    HW276182   5.595   5.861   7.108 -1.5228 -0.7112  0.7570
55802SOL     OW76183   4.142   2.790   2.705  0.2093 -0.8446 -0.1128
55802SOL    HW176184   4.121   2.748   2.789  0.2438  0.6549  0.6850
55802SOL    HW276185   4.059   2.830   2.677  0.4242 -0.5309 -0.3037
55803SOL     OW76186   2.020   3.257  12.537  0.5238 -0.3915  0.0339
55803SOL    HW176187   1.997   3.224  12.450 -0.8550 -1.1885  0.6617
55803SOL    HW276188   1.990   3.347  12.537  0.4038 -0.4299 -0.2666
55804SOL     OW76189  10.232   5.854  11.143  0.3510 -0.1060  0.0904
55804SOL    HW176190  10.234   5.781  11.205  1.9837 -0.7080 -0.6194
55804SOL    HW276191  10.324   5.875  11.128 -0.0549  0.9596 -1.0484
55805SOL     OW76192  11.723  10.984   9.487  0.2223 -0.1372  0.2070
55805SOL    HW176193  11.723  10.933   9.568  1.1840 -0.8134 -0.2107
55805SOL    HW276194  11.813  10.981   9.456 -0.3053 -0.6113 -1.3441
55806SOL     OW76195   3.575   8.934   6.913  0.2530  0.3942  0.3337
55806SOL    HW176196   3.645   8.954   6.851  0.6445 -0.9054  0.3436
55806SOL    HW276197   3.500   8.984   6.880  0.0838 -1.2371 -1.9504
55807SOL     OW76198   3.642  12.320   1.288  0.3011 -0.4026 -0.5147
55807SOL    HW176199   3.673  12.246   1.236  0.4986 -0.3114 -0.5287
55807SOL    HW276200   3.652  12.396   1.230  0.2932 -0.3351 -0.4286
55808SOL     OW76201   6.773   0.860  10.507 -0.5154  0.0290  0.1448
55808SOL    HW176202   6.778   0.790  10.443  1.2439 -1.7554  2.0935
55808SOL    HW276203   6.815   0.935  10.464 -0.1830 -0.8530 -1.1072
55809SOL     OW76204   6.243   9.055   7.241 -0.1987 -0.7544  0.5215
55809SOL    HW176205   6.194   8.973   7.248  0.5920 -1.2231  0.7070
55809SOL    HW276206   6.186   9.113   7.191 -0.7525 -1.4281  0.3533
55810SOL     OW76207   5.008   5.089   3.503  0.3274 -0.7825  0.1927
55810SOL    HW176208   5.014   5.138   3.585 -2.0590  0.4339 -0.2741
55810SOL    HW276209   5.098   5.083   3.472  1.1152 -0.0014  2.1545
55811SOL     OW76210  11.685   4.306  10.445  0.5156  0.7860  0.0751
55811SOL    HW176211  11.612   4.366  10.463  1.3518  1.8291  0.0675
55811SOL    HW276212  11.653   4.249  10.376 -0.9290  0.0675  1.2870
55812SOL     OW76213   4.853  10.674  11.102  0.0041  0.1832 -0.1739
55812SOL    HW176214   4.813  10.710  11.181  1.4260  0.3460  0.5199
55812SOL    HW276215   4.888  10.589  11.130 -1.7323 -0.9774 -1.3259
55813SOL     OW76216  11.546   1.266   1.712  0.0972 -0.0717  0.3550
55813SOL    HW176217  11.629   1.299   1.746 -0.9231  2.1437  0.8499
55813SOL    HW276218  11.530   1.318   1.633 -1.0237 -0.1727  0.5027
55814SOL     OW76219  12.062   1.468   3.681 -0.2179  0.1648 -0.3045
55814SOL    HW176220  12.049   1.496   3.771 -1.5474 -0.2200 -0.3563
55814SOL    HW276221  11.992   1.511   3.632 -0.5699 -0.9785 -0.8489
55815SOL     OW76222   0.726   5.166   8.616  0.3513 -0.2116  0.2855
55815SOL    HW176223   0.682   5.173   8.701  0.0249 -0.7343  0.1695
55815SOL    HW276224   0.725   5.072   8.597 -1.8839  0.0598 -1.4700
55816SOL     OW76225   3.846   2.309   1.504 -0.4042 -0.3611  0.1307
55816SOL    HW176226   3.869   2.345   1.418 -0.1755 -0.6306  0.0777
55816SOL    HW276227   3.782   2.371   1.540 -1.3223 -0.7917 -0.6896
55817SOL     OW76228  11.964   3.548   5.104  0.4237 -0.0545 -0.4385
55817SOL    HW176229  11.921   3.550   5.189  1.6662  2.2974  0.2201
55817SOL    HW276230  11.913   3.610   5.051 -1.4703 -2.7928 -2.1245
55818SOL     OW76231   7.149   2.026   8.015  0.7063  1.0148  0.2570
55818SOL    HW176232   7.154   2.120   8.033  2.4462  1.1918 -0.8178
55818SOL    HW276233   7.132   1.986   8.100 -2.7350  2.3852  0.3881
55819SOL     OW76234   6.227   7.912   4.941  0.2977 -0.1939  0.0613
55819SOL    HW176235   6.215   7.954   4.856 -1.3113 -0.5450  0.0835
55819SOL    HW276236   6.298   7.961   4.982  1.4437 -0.3294 -1.6561
55820SOL     OW76237   2.345   3.291   5.008  0.4127 -0.0729 -0.4678
55820SOL    HW176238   2.330   3.385   5.004  1.6641  0.1069 -2.2414
55820SOL    HW276239   2.388   3.277   5.093 -0.3412  0.8382  0.0828
55821SOL     OW76240  12.038   4.232   4.717 -0.0450 -0.2459  0.3634
55821SOL    HW176241  11.967   4.235   4.781  0.9732 -1.9345  1.6540
55821SOL    HW276242  12.109   4.282   4.756 -0.6222  1.9137 -1.1669
55822SOL     OW76243   5.681   2.324  10.374  0.0315 -0.5814 -0.5410
55822SOL    HW176244   5.687   2.351  10.465 -0.8031  0.3059 -0.7271
55822SOL    HW276245   5.654   2.233  10.377  1.5699 -1.0476  0.1031
55823SOL     OW76246   9.088   1.840   1.072 -0.2433 -0.4635 -0.0756
55823SOL    HW176247   9.101   1.778   1.144  0.2840 -0.3289 -0.0541
55823SOL    HW276248   9.068   1.784   0.997  1.4337 -0.7592 -0.3394
55824SOL     OW76249   0.677   0.016  10.794 -0.1492  0.0583  0.4082
55824SOL    HW176250   0.663   0.101  10.837 -0.8152  0.3356 -0.3354
55824SOL    HW276251   0.760  -0.015  10.830  0.2678  1.1775  0.4613
55825SOL     OW76252   9.506   7.369   7.454 -0.2591 -0.4437  0.3778
55825SOL    HW176253   9.491   7.369   7.549  0.7954  0.1149  0.5542
55825SOL    HW276254   9.599   7.352   7.445 -0.4883 -1.2611 -0.5970
55826SOL     OW76255   9.656   8.041   1.605 -0.3892 -0.1740  0.7021
55826SOL    HW176256   9.733   8.083   1.566 -1.1567  1.4037  0.8222
55826SOL    HW276257   9.602   8.016   1.530 -0.6607  0.4994  0.6682
55827SOL     OW76258   0.313   8.146   6.275  0.4250 -0.1607  0.3537
55827SOL    HW176259   0.241   8.173   6.219  0.9220  0.3548 -0.0527
55827SOL    HW276260   0.303   8.199   6.354  0.6959  0.3504  0.0516
55828SOL     OW76261  12.463  12.097   5.493 -0.4800 -0.5811 -0.7316
55828SOL    HW176262  12.443  12.073   5.403 -0.1806  1.7798 -1.4840
55828SOL    HW276263  12.523  12.029   5.523 -1.3020 -1.9128 -1.9747
55829SOL     OW76264   0.138   8.158   9.100 -0.7069 -0.2335  0.0245
55829SOL    HW176265   0.107   8.200   9.180  2.8028 -2.1549  2.7290
55829SOL    HW276266   0.164   8.230   9.043 -1.1595  1.2232  1.5773
55830SOL     OW76267   8.953   2.727   2.628  0.0768  0.1736  1.3366
55830SOL    HW176268   8.935   2.820   2.643 -0.6899  0.0011  1.5376
55830SOL    HW276269   8.975   2.693   2.715 -1.6922 -0.2539  1.6599
55831SOL     OW76270   8.548   7.324  12.053 -0.1998 -0.0308 -0.3256
55831SOL    HW176271   8.459   7.315  12.086  0.2716 -0.5483  0.8410
55831SOL    HW276272   8.565   7.240  12.008  0.7556 -1.2427  2.1333
55832SOL     OW76273   9.219   2.358   7.501 -0.5843  0.1848  0.1000
55832SOL    HW176274   9.143   2.404   7.467 -1.8175 -1.3118  0.7201
55832SOL    HW276275   9.235   2.287   7.438  0.0878  0.2639  0.1673
55833SOL     OW76276   0.686   9.035   9.547  0.5107  0.1339  0.3189
55833SOL    HW176277   0.693   8.994   9.633  1.0188 -1.7383 -0.5662
55833SOL    HW276278   0.775   9.062   9.526  0.9710 -2.0903 -0.8274
55834SOL     OW76279   4.819  10.825   2.141  0.0156 -0.5350 -0.4968
55834SOL    HW176280   4.888  10.808   2.205  0.1791  1.9848  0.1277
55834SOL    HW276281   4.866  10.848   2.061 -0.0970 -0.1305 -0.4516
55835SOL     OW76282  12.070   0.415   0.334  0.0101  0.0567  0.1159
55835SOL    HW176283  12.159   0.432   0.365  0.1896 -1.3274  0.4143
55835SOL    HW276284  12.079   0.402   0.240  0.6452 -3.0697  0.5184
55836SOL     OW76285  10.287  10.784  10.184  0.7139  0.1096  0.1166
55836SOL    HW176286  10.372  10.794  10.227  0.2795  0.8302  0.8329
55836SOL    HW276287  10.292  10.700  10.139  1.1832 -0.6869  1.6024
55837SOL     OW76288   5.384   0.853   8.249 -0.2903  0.5575  0.2101
55837SOL    HW176289   5.345   0.941   8.243  0.9082  1.1050  0.0927
55837SOL    HW276290   5.478   0.869   8.244 -0.0496 -0.7298  0.4496
55838SOL     OW76291   3.987  11.953  11.223  0.7617  0.2140 -0.1902
55838SOL    HW176292   3.988  11.861  11.195  0.7676  0.2085 -0.1726
55838SOL    HW276293   4.065  11.962  11.278  0.3354  0.0227  0.4530
55839SOL     OW76294   6.097   0.854   9.553  0.4701  0.1540 -0.2444
55839SOL    HW176295   6.043   0.811   9.620  3.1156 -0.2567  1.7660
55839SOL    HW276296   6.077   0.947   9.562 -0.0432 -0.0041  0.2905
55840SOL     OW76297   5.419   7.581  11.793  0.2790  0.3163  0.2274
55840SOL    HW176298   5.456   7.600  11.706 -1.4003  1.1453 -0.3587
55840SOL    HW276299   5.343   7.525  11.775 -0.8106  1.4720  1.0085
55841SOL     OW76300  10.129   2.196   1.905  0.5438 -0.3650 -0.2544
55841SOL    HW176301  10.087   2.263   1.959  0.7011 -0.2615 -0.2612
55841SOL    HW276302  10.222   2.213   1.914  0.6561 -1.3606  0.7783
55842SOL     OW76303  11.026   2.114   4.374  0.4973 -0.5257 -0.2570
55842SOL    HW176304  11.000   2.066   4.453 -0.9570  0.5208 -0.0395
55842SOL    HW276305  11.015   2.051   4.303 -1.2440 -0.6131  0.0335
55843SOL     OW76306   4.098   4.354   2.634  0.0071  0.4624  0.0175
55843SOL    HW176307   4.079   4.282   2.694  0.6969  0.7399  0.5797
55843SOL    HW276308   4.147   4.417   2.687  0.0419  1.0163 -0.6604
55844SOL     OW76309   4.624  11.608  11.282 -0.6263  0.0841 -0.0403
55844SOL    HW176310   4.530  11.592  11.292 -0.4281 -1.0940  0.0978
55844SOL    HW276311   4.629  11.693  11.239 -1.7964 -0.3753 -1.1773
55845SOL     OW76312   6.909   9.326   3.977 -0.2277  0.3159  0.2313
55845SOL    HW176313   6.890   9.321   4.070  0.2231  0.0435  0.3113
55845SOL    HW276314   6.984   9.268   3.964 -0.0187  0.6754 -0.2264
55846SOL     OW76315   7.113  11.900   2.214  0.1395 -0.3636 -0.0341
55846SOL    HW176316   7.055  11.863   2.282  0.0076 -0.4974 -0.2158
55846SOL    HW276317   7.069  11.877   2.131  0.1184  0.1025 -0.1533
55847SOL     OW76318   9.874   1.667   7.412 -0.5603 -0.4833  0.1449
55847SOL    HW176319   9.815   1.607   7.458 -2.1967 -0.2853 -1.5928
55847SOL    HW276320   9.829   1.752   7.415  0.2484 -0.0315 -0.1286
55848SOL     OW76321  11.697   5.159  10.439  0.3050 -0.4894  0.0261
55848SOL    HW176322  11.764   5.224  10.459 -1.0802  0.9043  0.3829
55848SOL    HW276323  11.642   5.201  10.373 -1.1677 -0.8955  0.9438
55849SOL     OW76324   3.049   5.961  10.679 -0.2445 -0.2457 -0.8375
55849SOL    HW176325   3.120   5.897  10.682  0.2805  0.2264  3.6267
55849SOL    HW276326   3.093   6.045  10.668 -0.1833 -0.0720  0.5951
55850SOL     OW76327  10.200   6.599   3.544  0.0031 -0.2914 -0.4107
55850SOL    HW176328  10.276   6.599   3.486 -0.4220 -0.2154 -0.9759
55850SOL    HW276329  10.236   6.610   3.631  0.6302 -0.0892 -0.6921
55851SOL     OW76330  11.861  10.131   1.514  0.1168  0.1267 -0.0258
55851SOL    HW176331  11.880  10.221   1.540 -1.2604  0.9580 -1.7111
55851SOL    HW276332  11.933  10.107   1.455  1.1304 -0.3610  1.3498
55852SOL     OW76333   3.642  11.261   8.150  0.1874 -0.0905  0.5797
55852SOL    HW176334   3.713  11.273   8.086 -0.3317 -1.3133 -0.2585
55852SOL    HW276335   3.628  11.349   8.186  0.2396  0.7257 -1.2501
55853SOL     OW76336   7.678  10.813  12.095  0.1169  0.1585 -0.3156
55853SOL    HW176337   7.750  10.806  12.157  0.4333  1.6325 -0.4646
55853SOL    HW276338   7.683  10.903  12.063 -0.8856 -0.1572 -1.4460
55854SOL     OW76339   2.807   6.699   3.304  0.6730 -0.2967  0.6941
55854SOL    HW176340   2.867   6.709   3.231  0.6115 -0.2798  0.6464
55854SOL    HW276341   2.816   6.780   3.355 -0.6525  0.4982 -0.2903
55855SOL     OW76342   8.767  11.702   3.467 -0.0882  0.5777  0.0120
55855SOL    HW176343   8.747  11.795   3.479 -1.6696  0.4460 -1.2532
55855SOL    HW276344   8.710  11.675   3.394  2.0526 -0.8122 -1.2363
55856SOL     OW76345   0.806   5.220   5.589  0.9275  0.3821 -0.4010
55856SOL    HW176346   0.747   5.147   5.572  0.9971 -0.1661  1.5010
55856SOL    HW276347   0.880   5.205   5.531 -0.0964  0.2395 -1.7035
55857SOL     OW76348   9.470  12.549   7.620  0.0222 -0.1391  0.5120
55857SOL    HW176349   9.487  12.609   7.547  1.9526 -2.1032 -0.7670
55857SOL    HW276350   9.554  12.544   7.666 -0.2851 -1.3249  0.9719
55858SOL     OW76351  10.239   0.203   7.679  0.0099 -0.2510 -0.2214
55858SOL    HW176352  10.327   0.170   7.660  0.4462  0.3478  0.7308
55858SOL    HW276353  10.210   0.153   7.755 -0.1674  0.0888 -0.0632
55859SOL     OW76354   0.004   5.276   5.165 -0.3912  0.1361 -0.0077
55859SOL    HW176355  -0.047   5.318   5.095 -0.7742  1.2704  0.9251
55859SOL    HW276356   0.025   5.347   5.226  3.3470  0.0122 -0.8852
55860SOL     OW76357  10.776   4.933   3.336 -0.3594 -0.2993 -0.9782
55860SOL    HW176358  10.832   4.993   3.286 -0.6100 -0.8499 -1.9473
55860SOL    HW276359  10.828   4.853   3.343 -0.0593 -0.0229  0.2442
55861SOL     OW76360   5.724   9.513   4.118 -0.0564  0.1220  0.2703
55861SOL    HW176361   5.697   9.510   4.026  2.0826  1.1755 -0.4423
55861SOL    HW276362   5.644   9.538   4.165 -0.7632  1.4223 -1.4988
55862SOL     OW76363   5.627   3.570   3.712  0.1691 -0.1403  0.7408
55862SOL    HW176364   5.548   3.625   3.718 -0.3041 -0.7372  0.0318
55862SOL    HW276365   5.692   3.626   3.669 -1.0679 -0.8928 -2.3752
55863SOL     OW76366  10.793   7.608   0.815 -0.1025  1.0419 -0.9702
55863SOL    HW176367  10.881   7.595   0.850 -1.1580  1.3122  2.1559
55863SOL    HW276368  10.792   7.560   0.733  1.5847 -3.2687  1.2032
55864SOL     OW76369  11.382  11.259   3.475 -0.0758  0.1937  0.3656
55864SOL    HW176370  11.394  11.278   3.382  0.9796  0.6224  0.5802
55864SOL    HW276371  11.470  11.237   3.507 -0.6333 -1.2920  0.9721
55865SOL     OW76372   2.870  10.886   9.651 -0.0248 -0.2588  0.8491
55865SOL    HW176373   2.878  10.815   9.715  1.2101 -1.4128 -0.5130
55865SOL    HW276374   2.826  10.846   9.576  0.0032  0.6343  0.3408
55866SOL     OW76375   9.562   3.987  12.148  0.2800  0.2827  0.1234
55866SOL    HW176376   9.505   3.997  12.224  1.4479  1.5423  0.8864
55866SOL    HW276377   9.562   4.074  12.106 -0.9094 -0.5663 -1.7785
55867SOL     OW76378  11.972   5.098   3.371  0.1813  0.4932 -0.2769
55867SOL    HW176379  12.046   5.147   3.408  0.3607  0.0001  0.0300
55867SOL    HW276380  11.901   5.113   3.433  0.6519 -0.8296  0.6339
55868SOL     OW76381   9.758   7.310   5.454 -0.2156 -0.0724  0.0309
55868SOL    HW176382   9.678   7.325   5.505 -0.8192  1.1797 -1.2058
55868SOL    HW276383   9.787   7.398   5.430 -1.6295 -0.5314 -4.2514
55869SOL     OW76384   6.046   0.247   9.904  0.4749  0.4522  0.5357
55869SOL    HW176385   5.997   0.166   9.889  1.0058 -0.1817  1.9562
55869SOL    HW276386   6.116   0.245   9.839 -1.5566  1.5926 -1.8202
55870SOL     OW76387  11.934  12.264   2.375 -0.3715  0.0823  0.2064
55870SOL    HW176388  11.880  12.248   2.452 -0.1349  1.0906  0.6055
55870SOL    HW276389  12.020  12.286   2.410 -0.6365  2.0691 -0.2320
55871SOL     OW76390  12.513   8.746   9.483 -0.2765  0.3137 -0.7355
55871SOL    HW176391  12.557   8.778   9.562 -2.0057  2.0107 -0.3720
55871SOL    HW276392  12.579   8.752   9.414  1.0760 -0.5825  0.4231
55872SOL     OW76393   2.636   1.832   4.605 -0.5177  0.2851 -0.5487
55872SOL    HW176394   2.611   1.877   4.685 -2.0455 -1.4996  0.0472
55872SOL    HW276395   2.659   1.743   4.633 -0.2316 -0.1277 -1.9801
55873SOL     OW76396   8.376   8.421   0.430  0.1905  0.1457 -0.1388
55873SOL    HW176397   8.413   8.509   0.439  1.0178 -0.1708 -0.3309
55873SOL    HW276398   8.342   8.401   0.517 -0.2149  0.7487 -0.1574
55874SOL     OW76399   0.819   4.749   1.288  0.0868 -0.5121  0.1335
55874SOL    HW176400   0.857   4.762   1.201 -1.0425  0.3173 -0.2512
55874SOL    HW276401   0.821   4.654   1.301  1.7357 -0.5337 -0.1043
55875SOL     OW76402   5.850  10.090  11.789 -0.1059 -0.2444  0.0325
55875SOL    HW176403   5.830  10.038  11.711  2.1362 -2.7960  0.9943
55875SOL    HW276404   5.945  10.099  11.788 -0.1906  1.3847  1.4735
55876SOL     OW76405   0.230  12.088   5.515  0.1922  0.0704 -0.1304
55876SOL    HW176406   0.221  12.129   5.602  0.5500  0.5507 -0.3154
55876SOL    HW276407   0.166  12.018   5.515  1.1688 -0.8676  1.0621
55877SOL     OW76408   1.326   7.345   8.500 -0.2818  0.1642 -0.3394
55877SOL    HW176409   1.350   7.257   8.472 -0.6120 -0.2789  0.7086
55877SOL    HW276410   1.385   7.402   8.452  0.5081 -0.6860 -0.4071
55878SOL     OW76411  11.944  11.504  12.281 -0.3006 -0.4815 -0.2239
55878SOL    HW176412  12.003  11.459  12.221  0.1231  1.0095 -0.9864
55878SOL    HW276413  11.992  11.583  12.307 -1.5923  0.3180 -0.1579
55879SOL     OW76414   1.348   8.256  12.172 -0.9693 -0.2031 -0.7948
55879SOL    HW176415   1.395   8.294  12.098 -0.1862 -0.7891 -0.6139
55879SOL    HW276416   1.354   8.322  12.241 -1.2452  0.1252 -1.0817
55880SOL     OW76417  12.182   0.910  10.843  0.2535 -0.1987 -1.1007
55880SOL    HW176418  12.168   1.002  10.822 -2.0531  0.8384  3.5888
55880SOL    HW276419  12.222   0.873  10.764  1.1044  4.6737 -3.3354
55881SOL     OW76420   2.683   3.828  11.085  0.5309  0.1859 -0.2661
55881SOL    HW176421   2.705   3.893  11.018 -0.4850  0.5592 -0.2484
55881SOL    HW276422   2.589   3.837  11.098  0.7981  0.5625  1.6776
55882SOL     OW76423  12.346   0.093   2.452  0.0180 -0.0036  0.4126
55882SOL    HW176424  12.381   0.117   2.538 -1.6977  1.8181  0.6977
55882SOL    HW276425  12.384   0.157   2.392 -1.3004  0.8228  0.4179
55883SOL     OW76426   1.273   9.623   6.814 -0.2348  0.1377  0.0126
55883SOL    HW176427   1.289   9.637   6.908  0.0607 -0.8376  0.1172
55883SOL    HW276428   1.360   9.622   6.775 -0.2611 -0.9832 -0.0414
55884SOL     OW76429   1.111  12.312   5.315  0.1111  0.3144 -0.0666
55884SOL    HW176430   1.178  12.289   5.250 -0.0333  0.6850 -0.3530
55884SOL    HW276431   1.049  12.366   5.267 -0.4876 -0.1659  0.1585
55885SOL     OW76432  12.024  12.165   2.120 -0.2300 -0.3382  0.4265
55885SOL    HW176433  12.100  12.222   2.108  0.0730 -1.1282 -1.8348
55885SOL    HW276434  11.969  12.212   2.183  0.9411  1.4638  0.1779
55886SOL     OW76435   2.454   5.265  12.147  0.3277 -0.1688  0.3940
55886SOL    HW176436   2.498   5.272  12.062  0.9919 -0.3528  0.7110
55886SOL    HW276437   2.362   5.250  12.126  0.5357 -0.5266 -0.2969
55887SOL     OW76438   6.954   2.454  10.446 -0.3825 -0.0314 -0.2031
55887SOL    HW176439   6.947   2.494  10.533 -0.6335 -1.0653  0.2649
55887SOL    HW276440   7.030   2.497  10.407 -0.2731  0.4565  0.5150
55888SOL     OW76441   8.787   6.406   6.590  0.2126  0.0773 -0.5348
55888SOL    HW176442   8.866   6.361   6.620  0.7800  0.3472 -1.5632
55888SOL    HW276443   8.727   6.336   6.564  0.9026 -0.1173 -1.6630
55889SOL     OW76444   1.713   2.568   0.768 -0.2792 -0.0770  0.2395
55889SOL    HW176445   1.637   2.605   0.724 -0.1881  0.9199  0.9037
55889SOL    HW276446   1.788   2.614   0.729 -0.1732  0.5340  1.1349
55890SOL     OW76447   6.528   9.667   8.607  0.1694  0.0174 -0.4565
55890SOL    HW176448   6.602   9.629   8.655  1.0344  0.6923 -1.2124
55890SOL    HW276449   6.511   9.751   8.650 -0.5566 -0.3989  0.0853
55891SOL     OW76450   7.616   7.231   4.769  0.6485  0.0873  0.8087
55891SOL    HW176451   7.648   7.141   4.760  2.2556  0.6041  0.9802
55891SOL    HW276452   7.573   7.249   4.686  0.2939 -0.8449  0.7782
55892SOL     OW76453   2.758  10.867  11.581  0.5697 -0.5487  0.2791
55892SOL    HW176454   2.765  10.948  11.530  2.6855 -0.0013  1.3481
55892SOL    HW276455   2.803  10.886  11.663  0.1452 -2.4836  1.0199
55893SOL     OW76456  10.070   0.617   8.055  0.3412 -0.1255  0.6176
55893SOL    HW176457   9.993   0.660   8.093  1.2355  0.9851  1.2529
55893SOL    HW276458  10.095   0.672   7.981  0.3316 -0.6500  0.2269
55894SOL     OW76459   3.283   8.504   0.239  0.4005 -0.4536  0.0827
55894SOL    HW176460   3.251   8.577   0.187  0.1420 -2.0546 -2.1611
55894SOL    HW276461   3.378   8.504   0.225  0.4544 -0.3054  0.4328
55895SOL     OW76462   1.119  11.410   5.962 -0.3369 -0.8899  0.1283
55895SOL    HW176463   1.177  11.366   5.900  1.8076 -1.0779  2.1201
55895SOL    HW276464   1.150  11.381   6.048 -0.7738  2.1134  1.4274
55896SOL     OW76465  10.627   8.321   0.285 -0.5975 -0.2314 -0.4710
55896SOL    HW176466  10.555   8.327   0.348 -0.2366  0.5510 -0.1241
55896SOL    HW276467  10.584   8.316   0.200 -1.0654  0.8274 -0.3097
55897SOL     OW76468   6.888   2.092   0.247  0.5040  0.3817 -0.0020
55897SOL    HW176469   6.798   2.072   0.275 -0.1197  1.0499 -1.3881
55897SOL    HW276470   6.888   2.073   0.153  0.8531  3.3635 -0.7006
55898SOL     OW76471  12.476   9.579   5.256 -0.4089 -0.0131 -0.2570
55898SOL    HW176472  12.529   9.536   5.323 -0.6272 -0.1971 -0.2030
55898SOL    HW276473  12.518   9.664   5.243  0.1008 -0.2847 -0.4488
55899SOL     OW76474   8.369   7.006  11.824  0.3261 -0.2123  0.0514
55899SOL    HW176475   8.396   6.926  11.779  0.1154 -0.0433 -0.3830
55899SOL    HW276476   8.446   7.031  11.877  0.1135 -1.1252  0.8143
55900SOL     OW76477  11.448   3.668   0.910 -0.4672 -0.1747  0.1320
55900SOL    HW176478  11.494   3.586   0.927 -0.1161 -0.2932 -1.2545
55900SOL    HW276479  11.408   3.656   0.824  1.5483  1.9182 -1.2321
55901SOL     OW76480  11.316   2.245   8.680 -0.1534  0.5768 -0.8474
55901SOL    HW176481  11.247   2.184   8.656  0.6522 -0.1022 -1.5184
55901SOL    HW276482  11.271   2.317   8.724 -1.0884 -0.7185  0.4362
55902SOL     OW76483   6.267   5.197   0.073 -0.6015 -0.0608 -0.0505
55902SOL    HW176484   6.179   5.221   0.044 -1.4893 -1.6572  1.1368
55902SOL    HW276485   6.260   5.187   0.168  1.6275  2.6406  0.5244
55903SOL     OW76486   9.421   9.619   3.964  0.4477  0.0177 -0.5157
55903SOL    HW176487   9.485   9.673   3.918  1.4169  0.9396  1.7850
55903SOL    HW276488   9.444   9.627   4.056 -1.1262 -2.1169  0.1453
55904SOL     OW76489   5.793   8.695   2.359 -0.2018  0.1220  0.3019
55904SOL    HW176490   5.725   8.680   2.425  0.2451 -0.5997  0.6159
55904SOL    HW276491   5.875   8.668   2.402  0.2412  0.6685 -0.1776
55905SOL     OW76492   3.579   7.873   1.046  0.5910 -0.0452 -0.4433
55905SOL    HW176493   3.564   7.903   1.136  0.6591  1.1019 -0.7946
55905SOL    HW276494   3.520   7.799   1.035 -0.1874  0.4587  0.2185
55906SOL     OW76495   2.334   8.089   4.112  0.3048 -0.3567  0.0791
55906SOL    HW176496   2.344   8.160   4.176 -2.1493  1.4065 -1.3071
55906SOL    HW276497   2.240   8.088   4.092  0.9590 -0.6976 -3.5561
55907SOL     OW76498   2.243  11.755   0.047  0.0967 -0.5152  0.5273
55907SOL    HW176499   2.323  11.727   0.092  0.6768 -1.2116 -0.8718
55907SOL    HW276500   2.266  11.840   0.008 -0.2974 -0.0707  1.2453
55908SOL     OW76501   1.478   8.505   9.581 -0.4615 -0.1459  0.2868
55908SOL    HW176502   1.383   8.514   9.579 -0.4143  0.3613 -1.5803
55908SOL    HW276503   1.493   8.410   9.584 -1.0400 -0.2794 -0.7562
55909SOL     OW76504  10.838   4.412   0.767  0.4927  0.2333 -0.0668
55909SOL    HW176505  10.905   4.412   0.698  1.0548  2.2403  0.4227
55909SOL    HW276506  10.883   4.444   0.845 -0.5929 -0.2232  0.7713
55910SOL     OW76507   0.460  11.145   1.884  0.1293 -0.4709 -0.5710
55910SOL    HW176508   0.460  11.055   1.918  3.1761 -0.4368 -0.2286
55910SOL    HW276509   0.528  11.146   1.817 -0.0220  1.5344 -0.7594
55911SOL     OW76510   7.361   4.297   2.679 -0.1514  0.6546 -0.1607
55911SOL    HW176511   7.455   4.301   2.697 -0.3983  2.2309  1.0264
55911SOL    HW276512   7.337   4.387   2.659 -1.5701  0.4374  0.4716
55912SOL     OW76513   9.149   1.215   8.060 -0.2834 -0.2200  0.1112
55912SOL    HW176514   9.056   1.210   8.082 -1.1548 -0.9737 -3.1834
55912SOL    HW276515   9.181   1.125   8.070 -0.3676 -0.3121 -0.4233
55913SOL     OW76516   3.084  11.832   3.571 -0.0171  0.8534  0.0514
55913SOL    HW176517   3.127  11.820   3.656 -1.7728 -2.2393  0.6755
55913SOL    HW276518   2.997  11.867   3.593 -0.2357  0.6785 -0.5228
55914SOL     OW76519   0.101   1.952   4.875 -0.5963 -0.1591  0.0099
55914SOL    HW176520   0.125   2.028   4.928 -0.3900 -0.4958  0.4077
55914SOL    HW276521   0.184   1.913   4.849 -0.6606  0.8709 -1.8642
55915SOL     OW76522  12.482   5.448   6.225 -0.1965  0.0588  0.3171
55915SOL    HW176523  12.470   5.480   6.136 -0.5317  1.1377  0.7249
55915SOL    HW276524  12.538   5.514   6.267 -1.8510  0.7747  1.5177
55916SOL     OW76525   1.504   6.440   4.994 -0.0721  0.0420 -0.2088
55916SOL    HW176526   1.520   6.462   5.086 -3.1992 -1.4634  0.8330
55916SOL    HW276527   1.431   6.496   4.969 -0.8611 -1.2910 -0.9662
55917SOL     OW76528  11.435   5.064   3.129 -0.7115 -0.0936  0.3024
55917SOL    HW176529  11.383   5.143   3.144  1.0409  1.4097 -1.1279
55917SOL    HW276530  11.521   5.096   3.102 -0.1652 -2.4978 -1.1282
55918SOL     OW76531   8.711   2.126   2.069 -0.0882 -0.0730  0.1045
55918SOL    HW176532   8.720   2.170   1.984  0.9302 -0.2733  0.0944
55918SOL    HW276533   8.706   2.197   2.133 -0.1198  0.0707 -0.0568
55919SOL     OW76534  12.054   5.371   7.274 -0.3046  0.1860  0.4281
55919SOL    HW176535  11.998   5.420   7.335 -1.7356 -0.3584 -0.4020
55919SOL    HW276536  12.047   5.420   7.192  0.6907  0.2688  0.3850
55920SOL     OW76537   6.479   9.215  12.100  0.3830 -0.5178 -0.1002
55920SOL    HW176538   6.532   9.211  12.180 -0.8009 -2.0290  0.6680
55920SOL    HW276539   6.529   9.164  12.037  0.3007 -1.1764  0.3521
55921SOL     OW76540   5.274   7.763  12.145  0.2309  0.4698 -0.5914
55921SOL    HW176541   5.229   7.848  12.147  0.4922  0.6166 -0.7834
55921SOL    HW276542   5.225   7.712  12.080 -0.2405  0.2911 -0.1004
55922SOL     OW76543   2.050  11.037   1.226  0.0915 -0.2578 -0.1699
55922SOL    HW176544   2.089  11.116   1.190  2.5334 -2.2410 -2.2982
55922SOL    HW276545   2.043  11.054   1.320  0.0395  2.6029 -0.6072
55923SOL     OW76546   5.489   7.180   8.561  0.4592 -0.1087 -0.2349
55923SOL    HW176547   5.470   7.192   8.468  1.0824  0.3964 -0.3012
55923SOL    HW276548   5.579   7.209   8.572  1.1927 -2.3501  0.1063
55924SOL     OW76549   1.341   7.094   0.649  0.1844  0.6004  0.4566
55924SOL    HW176550   1.300   7.009   0.663 -0.9314  1.1386  0.5923
55924SOL    HW276551   1.413   7.076   0.588  1.3786 -0.7887  2.1708
55925SOL     OW76552   1.912   7.392   3.224 -0.4899 -0.0725  0.1455
55925SOL    HW176553   1.884   7.476   3.261 -1.3284 -0.8847  1.4533
55925SOL    HW276554   1.836   7.335   3.233  0.1739 -1.0850 -0.3975
55926SOL     OW76555   1.232   0.692   5.240 -0.0802  0.1249  0.2227
55926SOL    HW176556   1.192   0.774   5.212  1.0096  0.2942 -0.9445
55926SOL    HW276557   1.223   0.692   5.335  0.9548  2.1992  0.3849
55927SOL     OW76558   2.868   6.396   3.408  0.0594 -0.0945 -0.1737
55927SOL    HW176559   2.906   6.459   3.470 -0.8932  0.4033 -0.0809
55927SOL    HW276560   2.796   6.443   3.367 -0.1260 -0.8509 -0.7334
55928SOL     OW76561   2.658   6.460  11.633  0.3045  1.1752 -0.2660
55928SOL    HW176562   2.568   6.471  11.600 -0.1345 -0.0708  0.4686
55928SOL    HW276563   2.710   6.439  11.555 -0.3773  0.1255 -0.4576
55929SOL     OW76564   8.824   0.528   5.578 -0.6533  0.2956 -0.2538
55929SOL    HW176565   8.781   0.478   5.648 -0.6140  0.7381  0.0941
55929SOL    HW276566   8.817   0.472   5.501 -0.0585 -0.5205  0.2673
55930SOL     OW76567   3.007  11.133   7.259 -0.6069  0.0965  0.2209
55930SOL    HW176568   2.926  11.144   7.308  0.0855 -0.6120  1.5554
55930SOL    HW276569   3.063  11.205   7.288 -0.7247  0.5824 -0.6955
55931SOL     OW76570   7.341   2.432   7.839  0.3156 -0.5235 -0.4171
55931SOL    HW176571   7.324   2.383   7.920 -1.1247  0.3197 -0.1718
55931SOL    HW276572   7.417   2.487   7.859  0.1893 -0.5841  0.2454
55932SOL     OW76573   4.165   6.077   0.120 -0.0425 -0.5783 -0.2349
55932SOL    HW176574   4.256   6.065   0.096  1.3766  1.0454  3.5221
55932SOL    HW276575   4.154   6.172   0.126 -1.5248 -0.7815  0.7962
55933SOL     OW76576   9.557   5.024   6.934  0.4975  0.4131  0.3774
55933SOL    HW176577   9.621   4.992   6.997  4.2203 -0.0037 -3.1627
55933SOL    HW276578   9.568   5.119   6.935  0.4725  0.4155  0.4283
55934SOL     OW76579   8.459   0.541  10.891  0.1530  0.1310  0.2378
55934SOL    HW176580   8.403   0.464  10.899  0.8905 -0.3863  0.4886
55934SOL    HW276581   8.457   0.581  10.979  0.8084 -0.3343  0.4684
55935SOL     OW76582  11.352   1.540   1.917 -0.3455 -0.2148  0.0940
55935SOL    HW176583  11.265   1.578   1.903 -0.1752  0.6578  1.2376
55935SOL    HW276584  11.409   1.587   1.857 -0.1654  1.3086  1.3895
55936SOL     OW76585   7.687   9.296   0.610  0.5709  0.3011 -0.3744
55936SOL    HW176586   7.695   9.245   0.529  0.2116 -1.2983  0.5556
55936SOL    HW276587   7.660   9.232   0.676  1.5976  1.4196  1.1927
55937SOL     OW76588   6.342   2.126   6.301  0.6479  0.3038 -0.2074
55937SOL    HW176589   6.339   2.049   6.244  1.3247  1.4560 -1.8787
55937SOL    HW276590   6.263   2.119   6.355  0.7877 -1.6318 -0.1757
55938SOL     OW76591   5.401   5.083   8.327 -0.0970 -0.1916  0.0817
55938SOL    HW176592   5.377   5.147   8.394  0.4470  0.3468 -0.2335
55938SOL    HW276593   5.496   5.089   8.321 -0.1441 -0.1976 -0.7768
55939SOL     OW76594   6.480   7.270  10.811  0.4620 -0.1892  0.2358
55939SOL    HW176595   6.433   7.337  10.861  0.9248  0.3058  0.0084
55939SOL    HW276596   6.568   7.269  10.847  2.2275  3.2455 -3.2441
55940SOL     OW76597   3.316  10.236  10.900  0.7558 -0.1819 -0.0679
55940SOL    HW176598   3.262  10.239  10.821  0.3966  1.5837  0.2108
55940SOL    HW276599   3.387  10.176  10.878  0.2281 -0.3472 -1.4313
55941SOL     OW76600   7.128   2.178   7.449  0.7901 -0.3344 -0.3233
55941SOL    HW176601   7.141   2.183   7.544  0.1434  0.8596 -0.2661
55941SOL    HW276602   7.049   2.125   7.438 -0.6839  1.6709  0.0038
55942SOL     OW76603   4.034   4.631   6.568  0.1315 -0.5565  0.0947
55942SOL    HW176604   4.127   4.613   6.575  0.4569 -0.1069 -2.2944
55942SOL    HW276605   4.009   4.666   6.653  2.3257  0.1150  0.5084
55943SOL     OW76606   0.705   1.691   1.211  0.5643  0.4959  0.2384
55943SOL    HW176607   0.640   1.753   1.179  0.0790 -0.3961 -0.5305
55943SOL    HW276608   0.699   1.616   1.152  0.8242 -0.4845  1.4120
55944SOL     OW76609   5.494   1.598   5.846  0.3112 -0.4667  0.0318
55944SOL    HW176610   5.477   1.512   5.807  1.9559 -0.6826 -0.2788
55944SOL    HW276611   5.589   1.601   5.856  0.2604  1.2324  0.2500
55945SOL     OW76612   8.613   0.064  10.842  0.6543 -0.0269 -0.2301
55945SOL    HW176613   8.688   0.073  10.900 -0.2683 -0.5710  1.0827
55945SOL    HW276614   8.578   0.153  10.834  0.4677 -0.0299  0.4916
55946SOL     OW76615   7.255  11.388  10.273  0.0339 -0.1190 -0.0369
55946SOL    HW176616   7.203  11.321  10.228  0.2732 -0.6425  0.4599
55946SOL    HW276617   7.198  11.418  10.344  0.6250 -1.1276  0.8855
55947SOL     OW76618   1.314  12.045   7.509 -0.1755 -0.3674  0.1547
55947SOL    HW176619   1.222  12.021   7.523  0.0006  0.0835  2.5980
55947SOL    HW276620   1.364  11.978   7.556  0.7486 -0.3684 -0.7888
55948SOL     OW76621   6.851   8.113   1.231  0.0928  0.6033  0.2368
55948SOL    HW176622   6.866   8.019   1.243 -1.3475  0.2744 -0.3779
55948SOL    HW276623   6.818   8.143   1.315  0.5875  0.5839  0.4449
55949SOL     OW76624   5.411   0.981   2.694  0.4268  0.4753  0.2617
55949SOL    HW176625   5.461   1.007   2.772  1.3100  1.6380 -0.6402
55949SOL    HW276626   5.478   0.968   2.626 -0.1555 -2.3513  0.1104
55950SOL     OW76627   6.613  11.996   1.455 -1.1051  0.1149 -0.3300
55950SOL    HW176628   6.597  12.087   1.481  0.9944 -0.3002  3.1050
55950SOL    HW276629   6.605  11.946   1.536  1.8908 -2.0997 -1.1988
55951SOL     OW76630   9.419   0.474  11.959 -0.8953 -1.0743 -0.5474
55951SOL    HW176631   9.431   0.384  11.990 -2.6486 -0.6802  1.5512
55951SOL    HW276632   9.454   0.529  12.030 -1.6257 -0.1262 -0.8950
55952SOL     OW76633   1.650   6.754   4.105 -0.3341 -0.1801 -0.2816
55952SOL    HW176634   1.671   6.688   4.172  0.6276  0.3600 -0.0450
55952SOL    HW276635   1.564   6.787   4.132  0.4999  0.8070  1.3405
55953SOL     OW76636   3.270  10.926  11.008 -0.1228 -0.1163  0.0633
55953SOL    HW176637   3.316  10.901  11.088  0.0202  1.5908  0.5662
55953SOL    HW276638   3.325  10.892  10.937  2.2448  2.1917  0.6399
55954SOL     OW76639   4.459   6.183   5.644  0.3328  0.0913  0.7175
55954SOL    HW176640   4.519   6.257   5.646 -0.2644  0.6205 -0.3066
55954SOL    HW276641   4.487   6.127   5.717  2.2416  0.1853  0.1102
55955SOL     OW76642   4.736   4.816   4.761  0.0025  0.0519 -0.1021
55955SOL    HW176643   4.816   4.795   4.810  0.8708 -1.4187 -2.0030
55955SOL    HW276644   4.667   4.768   4.807  0.4951 -0.0272  0.5766
55956SOL     OW76645  11.158  11.078   7.031 -0.5290 -0.8778  0.3585
55956SOL    HW176646  11.088  11.023   6.998 -0.9116  0.1314 -0.5818
55956SOL    HW276647  11.187  11.128   6.955  0.0845 -0.0955  1.0892
55957SOL     OW76648   9.446   4.288   3.096 -0.8917 -0.3809 -0.7897
55957SOL    HW176649   9.393   4.327   3.166  0.6762  1.8546 -0.7338
55957SOL    HW276650   9.434   4.346   3.021  1.8191  0.5894 -0.6009
55958SOL     OW76651   9.293   8.170   3.360  0.0759 -0.3240  0.4763
55958SOL    HW176652   9.329   8.244   3.312  0.4256 -1.3530 -0.9074
55958SOL    HW276653   9.370   8.118   3.386 -0.1962 -0.5248  0.8933
55959SOL     OW76654   3.454   7.939   4.200  0.2623  0.3106  0.5363
55959SOL    HW176655   3.512   7.913   4.272  0.9776  0.5076  0.0412
55959SOL    HW276656   3.504   7.918   4.121 -1.3412 -1.9558  0.0042
55960SOL     OW76657   7.414   0.271   5.597 -0.4469  0.2983  0.3557
55960SOL    HW176658   7.327   0.249   5.630 -0.6140  0.0941 -0.1979
55960SOL    HW276659   7.402   0.354   5.550  0.0591  1.2876  1.9174
55961SOL     OW76660   7.900   3.517  11.964  0.0055 -0.0681  0.0693
55961SOL    HW176661   7.995   3.509  11.950 -0.1093 -0.9954 -0.2969
55961SOL    HW276662   7.885   3.611  11.972  1.2881  0.0082  2.5904
55962SOL     OW76663  11.254   2.624   3.257  0.5975  0.0624  0.0177
55962SOL    HW176664  11.315   2.615   3.330  0.4558 -0.5129  0.0745
55962SOL    HW276665  11.212   2.709   3.271  0.9630  0.2019  0.2996
55963SOL     OW76666   8.923   3.154  11.798 -0.0330 -0.2515 -0.2393
55963SOL    HW176667   8.908   3.205  11.878 -3.0315 -0.8280 -0.3099
55963SOL    HW276668   8.889   3.067  11.818  1.5337 -1.1728 -1.3504
55964SOL     OW76669  12.017   9.216   8.493  0.5545  0.5478 -0.3787
55964SOL    HW176670  12.023   9.264   8.411 -0.2721 -1.3537 -1.6296
55964SOL    HW276671  12.033   9.125   8.468 -0.2666 -0.1484  1.4769
55965SOL     OW76672   3.403  11.716   5.069 -0.2283 -0.4221  0.2489
55965SOL    HW176673   3.495  11.691   5.081 -0.4048 -0.3906  1.8869
55965SOL    HW276674   3.358  11.634   5.050 -0.0945 -0.6990  1.0787
55966SOL     OW76675   7.334   7.328   7.290 -1.4615 -0.6941 -0.3445
55966SOL    HW176676   7.252   7.315   7.243 -0.2587  0.2886 -2.9399
55966SOL    HW276677   7.390   7.255   7.262 -1.4423 -1.4298  1.4920
55967SOL     OW76678   2.143   0.090   0.997  0.4551 -0.5090 -0.3092
55967SOL    HW176679   2.153   0.014   1.054  2.8171 -1.0251 -1.3177
55967SOL    HW276680   2.080   0.061   0.930 -1.0338 -0.4635  1.0164
55968SOL     OW76681   5.937   1.043   2.617  0.6957 -0.6563 -0.1150
55968SOL    HW176682   6.003   1.005   2.559  0.7589 -0.8143  0.0606
55968SOL    HW276683   5.904   1.118   2.568  0.7518 -0.7852 -0.3558
55969SOL     OW76684   2.245   7.892   6.214 -0.2843 -0.4190  0.3251
55969SOL    HW176685   2.182   7.884   6.143  0.2275 -1.8678  0.0071
55969SOL    HW276686   2.309   7.956   6.183 -1.0929  0.4076  0.3013
55970SOL     OW76687   3.099  12.559   3.290 -0.7225 -0.2912 -0.5460
55970SOL    HW176688   3.060  12.638   3.328 -1.8955 -0.8092 -0.6109
55970SOL    HW276689   3.091  12.571   3.196 -2.1961 -1.0681 -0.5495
55971SOL     OW76690   6.824  10.945   8.418 -0.0907  0.2146 -0.0306
55971SOL    HW176691   6.870  10.880   8.365 -1.4668 -0.5479 -0.3473
55971SOL    HW276692   6.798  11.013   8.355  0.7489  0.7493  0.1829
55972SOL     OW76693   2.666   8.275   0.146  0.1611  0.0849 -0.3213
55972SOL    HW176694   2.660   8.186   0.112 -0.1919 -0.2941  0.6917
55972SOL    HW276695   2.695   8.328   0.072  0.2410 -0.8523 -0.9648
55973SOL     OW76696   3.151   1.616   9.692 -0.1095 -0.6243  0.0774
55973SOL    HW176697   3.064   1.619   9.733  0.1065  2.2172  0.5741
55973SOL    HW276698   3.141   1.557   9.618 -2.4517 -0.4559  0.1763
55974SOL     OW76699   1.189  11.285  11.982 -0.0350  0.2184 -0.3337
55974SOL    HW176700   1.166  11.267  11.891 -1.2813 -0.9566  0.1763
55974SOL    HW276701   1.284  11.295  11.982 -0.1024  1.0468 -1.8774
55975SOL     OW76702   3.949   4.569   8.535  0.1680  0.6762  0.3676
55975SOL    HW176703   3.922   4.591   8.624  0.0255 -0.8619  0.7334
55975SOL    HW276704   4.009   4.495   8.546  1.1024  1.2448 -0.7435
55976SOL     OW76705   8.822  12.240   4.081  0.2283  0.1108 -0.0399
55976SOL    HW176706   8.766  12.292   4.025  0.6206  0.1069 -0.4434
55976SOL    HW276707   8.898  12.218   4.026  0.6598  0.1835  0.5175
55977SOL     OW76708   9.356   9.118  11.386 -0.4519 -0.4479  0.2070
55977SOL    HW176709   9.384   9.204  11.354  0.6198 -0.3374  1.3490
55977SOL    HW276710   9.359   9.126  11.481 -0.0358 -1.8439  0.3313
55978SOL     OW76711   8.301   6.994  10.134  0.5108 -0.3310  0.2730
55978SOL    HW176712   8.251   6.929  10.183  2.0861 -0.1433  2.2295
55978SOL    HW276713   8.355   7.038  10.199  1.3609  1.2186 -1.3781
55979SOL     OW76714   1.206   5.838  10.109  0.3543 -0.6043 -0.0075
55979SOL    HW176715   1.244   5.898  10.173 -0.6831 -0.8360  0.8418
55979SOL    HW276716   1.282   5.792  10.072  0.9083 -1.3280  1.9124
55980SOL     OW76717   7.396   5.470   7.183 -0.1646  0.0014 -0.0585
55980SOL    HW176718   7.332   5.399   7.183 -0.9805  0.7055 -1.0093
55980SOL    HW276719   7.448   5.455   7.104 -1.6244  1.5250 -1.3839
55981SOL     OW76720   6.535  12.375  12.492  0.1789 -0.0431 -0.9405
55981SOL    HW176721   6.450  12.369  12.448 -0.3859 -0.1297  0.1258
55981SOL    HW276722   6.562  12.284  12.504 -0.5989 -0.1127  0.5839
55982SOL     OW76723   4.977   9.129   7.247 -0.3225 -0.4072  0.3449
55982SOL    HW176724   5.067   9.143   7.218  0.0585 -1.8296  0.7307
55982SOL    HW276725   4.922   9.162   7.176  0.5240 -0.1441 -0.1877
55983SOL     OW76726   1.835   5.971   1.245 -0.4269 -0.0761  0.2623
55983SOL    HW176727   1.821   6.038   1.312  0.8735 -1.0934  1.6235
55983SOL    HW276728   1.926   5.945   1.256 -0.2955 -0.5883 -1.6592
55984SOL     OW76729   2.956   5.584   3.346  0.5336  0.4953  0.8837
55984SOL    HW176730   3.021   5.621   3.406  1.7982 -0.6876  0.2972
55984SOL    HW276731   2.915   5.513   3.396  0.1772  0.7935  1.0173
55985SOL     OW76732  10.113  11.799   4.544  0.4142 -0.1541 -0.1475
55985SOL    HW176733  10.028  11.841   4.555  0.6744  0.5525 -0.7108
55985SOL    HW276734  10.119  11.735   4.615 -0.3128  0.2406  0.2721
55986SOL     OW76735  12.468   9.746   4.697 -0.0878 -0.0864  0.2301
55986SOL    HW176736  12.464   9.671   4.756 -1.8368 -0.6408 -0.5042
55986SOL    HW276737  12.382   9.787   4.705 -0.1757  0.1433 -1.4995
55987SOL     OW76738  11.536  10.051   5.559 -0.0545  0.1651  0.7469
55987SOL    HW176739  11.539   9.960   5.589  1.0019 -0.5154 -1.2289
55987SOL    HW276740  11.499  10.046   5.471  1.2507  1.4801  0.0837
55988SOL     OW76741   6.868   6.547   9.703 -0.3586  0.5752 -0.1027
55988SOL    HW176742   6.826   6.489   9.640  0.5372 -0.4903  0.2341
55988SOL    HW276743   6.808   6.621   9.713 -2.5687 -1.2434  0.9687
55989SOL     OW76744   4.544   9.018   5.007 -0.2247  0.8761 -0.3119
55989SOL    HW176745   4.590   9.009   4.924  0.0859 -0.1203 -0.0396
55989SOL    HW276746   4.614   9.037   5.071 -0.3058  0.3135 -0.0568
55990SOL     OW76747   1.756   3.980   7.048  0.5039  0.0552 -0.4193
55990SOL    HW176748   1.834   4.004   6.997 -1.3062  0.2893 -3.2880
55990SOL    HW276749   1.736   3.891   7.020 -0.3044  0.0174  0.2501
55991SOL     OW76750   8.030   4.381   3.656  0.0112  0.7126 -0.4365
55991SOL    HW176751   8.008   4.369   3.749  2.4844 -1.2785 -0.0120
55991SOL    HW276752   7.946   4.402   3.615 -1.3233  0.7969  2.0935
55992SOL     OW76753   7.243   6.155  10.768 -0.0826  0.0972 -0.1268
55992SOL    HW176754   7.255   6.245  10.739  0.4536  0.6982  1.7665
55992SOL    HW276755   7.325   6.111  10.744 -0.9029 -0.3014 -2.3338
55993SOL     OW76756   7.553  10.790   3.456 -0.1667  0.5351 -0.3645
55993SOL    HW176757   7.475  10.835   3.488 -0.8683 -1.4465  0.9251
55993SOL    HW276758   7.548  10.703   3.496  1.6468 -0.3375 -1.8951
55994SOL     OW76759   3.958   5.502   8.472 -0.0468 -0.3786  0.3968
55994SOL    HW176760   3.984   5.567   8.407 -0.3268 -2.1578 -1.6381
55994SOL    HW276761   3.869   5.477   8.446  0.2513 -1.9209  0.7556
55995SOL     OW76762  10.262  11.174   3.253 -0.4230 -0.8238 -0.1079
55995SOL    HW176763  10.291  11.086   3.277 -0.2370 -1.2567 -1.8013
55995SOL    HW276764  10.247  11.218   3.337  0.4858 -2.1282  0.7816
55996SOL     OW76765   2.654   2.164  10.959  0.3363 -0.3514 -0.0078
55996SOL    HW176766   2.674   2.237  11.018 -1.8484  0.6292 -0.3802
55996SOL    HW276767   2.574   2.125  10.996  1.3161 -2.4202  0.0280
55997SOL     OW76768   5.535   9.848   0.009  0.0252  0.0504 -0.2244
55997SOL    HW176769   5.612   9.904   0.020 -0.2754  0.2195  1.1027
55997SOL    HW276770   5.474   9.902  -0.040  0.7746 -0.1299 -1.4095
55998SOL     OW76771   8.167  12.116  11.937 -0.3862 -0.3059  0.2303
55998SOL    HW176772   8.193  12.024  11.931 -0.5746 -0.2642 -1.8483
55998SOL    HW276773   8.091  12.116  11.994  0.0746 -1.3233  0.8688
55999SOL     OW76774   6.343   0.629  12.341 -0.3394  0.3167  0.0071
55999SOL    HW176775   6.378   0.650  12.428 -0.6012 -0.7496  0.3821
55999SOL    HW276776   6.267   0.686  12.331  0.1248  0.9813  0.1515
56000SOL     OW76777   7.511  10.634   2.401  0.1816 -0.3468 -0.3670
56000SOL    HW176778   7.577  10.618   2.469 -1.8981 -0.1399  1.8303
56000SOL    HW276779   7.499  10.549   2.359  2.0110 -0.3254 -1.0460
56001SOL     OW76780   1.528   1.066   7.697  0.0337  0.0479 -0.0171
56001SOL    HW176781   1.611   1.019   7.692  0.7936  1.2795  0.4919
56001SOL    HW276782   1.464   0.999   7.719  0.9741 -0.8446  0.0841
56002SOL     OW76783   1.865   4.232  10.635  0.7144  0.1287  0.2189
56002SOL    HW176784   1.879   4.145  10.598  1.0488  1.0672 -2.0318
56002SOL    HW276785   1.773   4.251  10.616  1.1515  1.0244 -1.1237
56003SOL     OW76786   5.393   1.370   5.731  0.7022 -0.1393  0.4604
56003SOL    HW176787   5.440   1.288   5.719  0.5588 -0.4212  1.6450
56003SOL    HW276788   5.308   1.343   5.766 -0.5860  0.3227 -2.1070
56004SOL     OW76789   6.448  12.386   0.791  0.3923 -0.2293  0.4100
56004SOL    HW176790   6.441  12.473   0.830 -1.6229  1.1816 -2.6995
56004SOL    HW276791   6.512  12.397   0.720 -0.3119 -1.0763 -0.3867
56005SOL     OW76792  10.878   6.400   9.374  0.5206  0.0092  1.1189
56005SOL    HW176793  10.826   6.320   9.380 -0.5566  0.2605 -2.5590
56005SOL    HW276794  10.823   6.467   9.414 -0.5872 -0.3347  0.2349
56006SOL     OW76795   7.036   2.574   5.315  0.2148  0.0669 -0.3793
56006SOL    HW176796   7.039   2.599   5.223 -1.8948 -0.8129 -0.7299
56006SOL    HW276797   7.057   2.480   5.315 -0.7666 -0.1606 -0.0853
56007SOL     OW76798   6.730   2.524   8.134  0.0030  0.0973 -0.2124
56007SOL    HW176799   6.671   2.558   8.201 -0.0357  0.6047 -0.4892
56007SOL    HW276800   6.809   2.498   8.181  0.0448  0.6173  0.0120
56008SOL     OW76801   4.667   7.829   8.153 -0.1543 -0.5410 -0.3381
56008SOL    HW176802   4.609   7.806   8.225  0.2385 -1.6780 -0.3687
56008SOL    HW276803   4.654   7.759   8.088  1.6832 -1.1923 -0.0790
56009SOL     OW76804   7.801   1.876   2.553 -0.5986  0.1865  0.0422
56009SOL    HW176805   7.878   1.931   2.571  0.9233 -1.6274 -0.5262
56009SOL    HW276806   7.793   1.820   2.630 -1.3597  0.3560  0.0931
56010SOL     OW76807   8.721  11.379   0.765 -0.2872  0.5585 -0.3212
56010SOL    HW176808   8.641  11.341   0.802  0.2386 -0.5054 -0.2468
56010SOL    HW276809   8.690  11.453   0.713 -1.3252  0.1770 -0.2758
56011SOL     OW76810   5.213   2.935   0.680  0.1272 -0.7473  0.1340
56011SOL    HW176811   5.141   2.994   0.656  0.2591 -0.7358 -0.2392
56011SOL    HW276812   5.240   2.965   0.766 -0.7310 -1.1460  0.5558
56012SOL     OW76813   0.107   9.385   6.657 -0.5229  0.2884  0.4628
56012SOL    HW176814   0.172   9.431   6.605 -1.0283 -0.2428 -0.6862
56012SOL    HW276815   0.140   9.389   6.747 -0.0974  2.0503  0.2609
56013SOL     OW76816   0.213  10.640   1.870 -0.0922  0.3235  0.7833
56013SOL    HW176817   0.262  10.667   1.793 -0.2360  0.5990  0.7853
56013SOL    HW276818   0.128  10.684   1.861 -0.6463 -0.7983  0.3638
56014SOL     OW76819  12.180   1.922   4.162  0.2413  0.0197 -0.4106
56014SOL    HW176820  12.263   1.922   4.114 -0.0973  0.6771 -1.0028
56014SOL    HW276821  12.154   2.013   4.166 -0.4745 -0.1851 -0.2548
56015SOL     OW76822   5.489   9.251   9.940  0.2708 -0.0228  0.0885
56015SOL    HW176823   5.520   9.335   9.907  0.7846 -0.2739 -0.0730
56015SOL    HW276824   5.396   9.250   9.919 -0.5181  1.8778  2.8904
56016SOL     OW76825   8.446   8.558   0.739 -0.1518  0.2659  0.0188
56016SOL    HW176826   8.437   8.462   0.738 -1.2484  0.3294 -2.4857
56016SOL    HW276827   8.537   8.573   0.711 -0.1631 -0.0282 -0.1820
56017SOL     OW76828   6.881   1.425   7.468  0.1638  0.0912  0.3270
56017SOL    HW176829   6.943   1.465   7.407 -0.5025  1.4167  0.4934
56017SOL    HW276830   6.887   1.478   7.547 -0.9191  0.0219  0.4747
56018SOL     OW76831   1.581   5.686  11.053  0.2188 -0.0135 -0.2918
56018SOL    HW176832   1.675   5.696  11.039  1.0385 -2.0978  2.6644
56018SOL    HW276833   1.545   5.668  10.966  2.4801  1.0205 -1.5209
56019SOL     OW76834   3.325   7.244   4.712 -0.1403 -0.1441 -0.5352
56019SOL    HW176835   3.282   7.288   4.638  0.2814 -0.2567 -0.8489
56019SOL    HW276836   3.396   7.302   4.736 -1.3523  0.7967  0.9657
56020SOL     OW76837  11.957  10.193   0.251 -0.7408 -0.0579  0.7577
56020SOL    HW176838  11.881  10.209   0.195 -1.4754 -0.2639  1.6650
56020SOL    HW276839  11.950  10.258   0.321 -1.0653 -1.1727  1.7982
56021SOL     OW76840  11.730   8.307   5.148 -0.5905 -0.2817 -0.2682
56021SOL    HW176841  11.664   8.238   5.151  1.8372 -2.7655  0.3040
56021SOL    HW276842  11.751   8.323   5.240  1.8550 -2.0264 -0.4113
56022SOL     OW76843   0.621   1.927   0.530 -0.5215  0.7859  0.2022
56022SOL    HW176844   0.608   2.010   0.484  0.5129  0.4769 -0.6831
56022SOL    HW276845   0.680   1.947   0.602 -1.1584  1.0311  0.6584
56023SOL     OW76846  11.995   5.488   7.022 -0.2240  0.2563 -0.1053
56023SOL    HW176847  11.901   5.470   7.015 -0.6548  2.5438 -1.0432
56023SOL    HW276848  12.011   5.557   6.958  1.8114  0.9636  1.0822
56024SOL     OW76849   2.825   2.614   5.454  0.3525  0.3172 -0.0898
56024SOL    HW176850   2.844   2.705   5.432  2.0486 -0.2306 -1.0834
56024SOL    HW276851   2.863   2.603   5.541 -1.1441  0.9044  0.6809
56025SOL     OW76852   0.783  12.340  11.331  0.1183  0.2829 -0.1456
56025SOL    HW176853   0.735  12.308  11.255 -1.0532  2.3839 -0.3549
56025SOL    HW276854   0.859  12.386  11.294 -0.4506  1.3024 -0.0831
56026SOL     OW76855  10.236   6.143   2.258  0.2758  0.9340 -0.0219
56026SOL    HW176856  10.162   6.132   2.318 -0.1933 -2.4359 -1.0412
56026SOL    HW276857  10.216   6.224   2.210 -2.9412  0.0186 -0.4711
56027SOL     OW76858  10.498  12.496   8.943 -0.0221 -0.0658  0.0243
56027SOL    HW176859  10.473  12.585   8.917  0.0463 -0.4668 -1.4972
56027SOL    HW276860  10.415  12.452   8.960 -0.0923  0.0770  0.0547
56028SOL     OW76861   6.876  11.693  10.489  0.2357 -0.0258 -0.2474
56028SOL    HW176862   6.821  11.713  10.565  0.1001 -1.3054  0.0186
56028SOL    HW276863   6.856  11.762  10.426  0.6707  1.3171  1.0198
56029SOL     OW76864   0.454  11.672   3.442 -0.4961 -0.0821 -0.4547
56029SOL    HW176865   0.516  11.638   3.506 -1.0196 -0.6417 -0.2265
56029SOL    HW276866   0.460  11.612   3.368 -0.1274  0.3765 -0.7994
56030SOL     OW76867   3.911   9.131   6.226  0.6820 -0.1650 -0.3742
56030SOL    HW176868   3.892   9.119   6.133 -1.6820  1.0496 -0.1487
56030SOL    HW276869   3.894   9.224   6.241 -0.5832 -0.6577  1.5658
56031SOL     OW76870   9.644   7.432   3.906  0.2106 -0.1655 -0.5164
56031SOL    HW176871   9.564   7.401   3.948  1.3414 -0.5054  1.4891
56031SOL    HW276872   9.672   7.506   3.959 -0.1744  1.7288 -2.7871
56032SOL     OW76873   8.781   7.021  11.621  0.8126 -0.7019 -0.2985
56032SOL    HW176874   8.796   6.927  11.631  0.9506 -0.9858 -2.5125
56032SOL    HW276875   8.864   7.055  11.587  0.0463 -0.2469 -1.8147
56033SOL     OW76876   3.063  10.934   9.187  0.2686  0.2779 -0.7004
56033SOL    HW176877   3.147  10.901   9.218 -0.2116 -1.6878 -1.3742
56033SOL    HW276878   3.001  10.863   9.205 -1.4943  2.0592  0.7473
56034SOL     OW76879   8.005  10.097  10.831 -0.9365  0.2666  0.0656
56034SOL    HW176880   8.085  10.141  10.804 -0.0247  0.1336  2.3541
56034SOL    HW276881   7.940  10.123  10.766  0.5156  1.8440 -0.8196
56035SOL     OW76882  10.360   7.484   0.871  1.0549  0.0335  0.4209
56035SOL    HW176883  10.348   7.555   0.808  0.2006 -0.0124  0.5245
56035SOL    HW276884  10.365   7.405   0.816 -0.2228 -0.0672  0.4250
56036SOL     OW76885   5.580   1.157   5.177 -0.0164  0.1140 -0.1732
56036SOL    HW176886   5.501   1.186   5.223 -0.0936  1.2667 -0.9938
56036SOL    HW276887   5.592   1.066   5.205 -1.5741 -0.0507  0.0395
56037SOL     OW76888   4.997   1.672   1.656 -0.0331 -0.3618  0.4582
56037SOL    HW176889   5.034   1.684   1.744  0.6014 -0.3767  0.1977
56037SOL    HW276890   4.996   1.760   1.619  1.6148 -0.6198 -0.2659
56038SOL     OW76891  12.500   1.228  11.690 -0.0775 -0.1753  0.0859
56038SOL    HW176892  12.485   1.322  11.702  2.4789  0.4696 -1.1218
56038SOL    HW276893  12.505   1.193  11.779 -1.8627  0.6403  0.5504
56039SOL     OW76894  10.552  11.937   2.885 -0.4760 -0.5272  0.1362
56039SOL    HW176895  10.639  11.920   2.921 -0.2274 -0.4425 -0.4099
56039SOL    HW276896  10.516  11.850   2.867 -0.5497 -0.5654  0.4687
56040SOL     OW76897   1.534   9.239   4.646  0.0003  0.1819 -0.0758
56040SOL    HW176898   1.595   9.183   4.598 -0.7077 -1.7943  1.1815
56040SOL    HW276899   1.454   9.186   4.654 -0.4706  1.0843  1.7767
56041SOL     OW76900   1.428   5.914   8.048 -0.0878  0.4377 -0.0516
56041SOL    HW176901   1.454   5.823   8.063  1.1528  0.3874 -2.1327
56041SOL    HW276902   1.507   5.956   8.015 -1.2744  1.6364 -1.5162
56042SOL     OW76903  11.553   2.247   3.456 -0.2085 -0.2932 -0.1366
56042SOL    HW176904  11.578   2.257   3.363  1.0769  3.0004  0.3943
56042SOL    HW276905  11.635   2.262   3.504 -1.4469  1.8036  1.5282
56043SOL     OW76906   3.863  11.039   5.096  0.0588 -0.3895  0.1845
56043SOL    HW176907   3.900  11.118   5.134 -0.1718 -0.8352  1.3871
56043SOL    HW276908   3.939  10.989   5.066  0.2191  0.1548 -0.3404
56044SOL     OW76909  10.993   6.695   4.326 -0.1986  0.0527  0.2203
56044SOL    HW176910  11.080   6.732   4.310  0.3623 -0.7769  1.1923
56044SOL    HW276911  11.010   6.604   4.350 -1.3610 -0.1924  0.1872
56045SOL     OW76912   4.597   7.152   4.111 -0.1075  0.3980  0.2582
56045SOL    HW176913   4.520   7.097   4.109 -0.3633  0.6888 -2.4223
56045SOL    HW276914   4.669   7.094   4.136 -0.7098 -0.6303 -0.3706
56046SOL     OW76915  12.437   3.636   6.691 -0.0113  0.1685 -0.0917
56046SOL    HW176916  12.355   3.591   6.674 -0.2484 -0.1817  1.7477
56046SOL    HW276917  12.491   3.618   6.614 -0.6361 -2.0011 -0.0891
56047SOL     OW76918   1.631   0.026   6.508 -0.2213  0.3798 -0.5079
56047SOL    HW176919   1.669  -0.062   6.505 -1.0296  0.0049  0.0096
56047SOL    HW276920   1.537   0.012   6.508 -0.3649  1.2202  0.1507
56048SOL     OW76921   1.966  11.475   1.919 -0.0955  0.0215 -0.6385
56048SOL    HW176922   1.929  11.559   1.949 -1.7527 -1.6563  2.5617
56048SOL    HW276923   2.006  11.437   1.997  0.4684 -2.2562 -1.9495
56049SOL     OW76924   0.770   5.418   4.659  0.3743  0.2711 -0.3957
56049SOL    HW176925   0.785   5.437   4.751  1.4173  1.2501 -0.7441
56049SOL    HW276926   0.748   5.503   4.620  0.0325 -0.1108 -1.0616
56050SOL     OW76927   3.846   1.916   2.343 -0.3380 -0.1825 -0.4693
56050SOL    HW176928   3.886   1.829   2.339 -1.0271 -0.4577 -2.1557
56050SOL    HW276929   3.917   1.976   2.321 -0.3369 -0.4864 -1.3110
56051SOL     OW76930   5.648   7.983   7.412 -0.4405  0.2516 -0.1482
56051SOL    HW176931   5.558   7.973   7.444  0.7429 -1.1762  3.2524
56051SOL    HW276932   5.665   7.903   7.363 -0.3584 -0.5698  1.1765
56052SOL     OW76933   9.943   4.381   9.326  0.0981 -0.7439 -0.2105
56052SOL    HW176934   9.900   4.465   9.342  1.1406 -0.0739 -0.8693
56052SOL    HW276935   9.919   4.358   9.236  1.5825 -0.0451 -0.8235
56053SOL     OW76936   4.185   6.235   7.447  0.3468 -0.3683  0.2050
56053SOL    HW176937   4.231   6.289   7.511 -0.6863 -0.1397  0.7805
56053SOL    HW276938   4.205   6.145   7.473  1.8416 -0.2970 -0.5851
56054SOL     OW76939   6.915  10.205   7.358 -0.7119  0.7872  0.1917
56054SOL    HW176940   6.841  10.256   7.392 -1.7788 -1.0151  0.7054
56054SOL    HW276941   6.934  10.245   7.273 -1.4760  2.0506  0.5788
56055SOL     OW76942   7.126   4.626   7.393  0.0218 -0.3776  0.0544
56055SOL    HW176943   7.206   4.573   7.388  1.7262  2.0930 -0.9057
56055SOL    HW276944   7.158   4.715   7.406 -2.6003  0.7421 -0.6480
56056SOL     OW76945   1.621   9.234   5.198 -0.0135 -0.2686  0.1818
56056SOL    HW176946   1.553   9.217   5.133  0.1882  0.0353 -0.1106
56056SOL    HW276947   1.679   9.298   5.157 -0.2782  0.4745  0.9301
56057SOL     OW76948   2.651  11.229   1.554  0.1297 -0.3013 -0.4763
56057SOL    HW176949   2.642  11.258   1.463 -0.7714  0.2146 -0.2342
56057SOL    HW276950   2.612  11.141   1.555  1.1317 -0.7652 -0.8061
56058SOL     OW76951   0.071   8.476   0.411  0.2646 -0.0255  0.4735
56058SOL    HW176952   0.146   8.432   0.450  0.3317 -0.3651 -0.0188
56058SOL    HW276953   0.006   8.479   0.481  1.5351  2.3968  1.6385
56059SOL     OW76954   6.618   1.795  12.280  0.5589  0.3928  0.0745
56059SOL    HW176955   6.581   1.706  12.275 -0.9990  0.9408  0.9894
56059SOL    HW276956   6.710   1.782  12.300  0.8561 -1.0532 -1.9136
56060SOL     OW76957   9.116   1.467  11.866 -0.0042  0.2968 -0.3279
56060SOL    HW176958   9.137   1.380  11.833 -0.3980  0.6108 -1.4485
56060SOL    HW276959   9.026   1.483  11.836  0.8370  2.0024 -2.2229
56061SOL     OW76960   9.127   7.382   0.253 -0.6476 -0.0710 -0.1746
56061SOL    HW176961   9.171   7.456   0.213 -1.8974  0.8209  0.0500
56061SOL    HW276962   9.085   7.418   0.331 -1.2213 -1.0262 -0.0196
56062SOL     OW76963   6.894   3.750  10.021 -0.2538 -0.1337  0.4593
56062SOL    HW176964   6.810   3.776  10.058 -0.4345 -1.1001  0.7486
56062SOL    HW276965   6.872   3.682   9.957  0.2168  0.3128 -0.1843
56063SOL     OW76966   7.705   3.744  10.560  0.1471  0.1193  0.5403
56063SOL    HW176967   7.661   3.783  10.485  0.1133 -2.1806 -0.7278
56063SOL    HW276968   7.798   3.752  10.541  0.1306 -1.4286 -0.3377
56064SOL     OW76969   4.285   1.830   4.131 -0.5881 -0.3181 -0.1754
56064SOL    HW176970   4.234   1.769   4.078 -1.1938  0.2393 -0.2412
56064SOL    HW276971   4.221   1.869   4.191  0.1047 -1.0742  1.1092
56065SOL     OW76972   8.618  12.084   1.375  0.0005 -0.2889  0.5501
56065SOL    HW176973   8.554  12.153   1.358 -2.3506 -2.6840 -1.4207
56065SOL    HW276974   8.566  12.014   1.415  1.8372 -1.6183  0.7206
56066SOL     OW76975   6.698   9.119   5.472 -0.3574 -0.3173  0.5110
56066SOL    HW176976   6.634   9.183   5.502  1.5273  0.9473  2.1049
56066SOL    HW276977   6.724   9.072   5.551  0.0212 -1.4249 -0.2493
56067SOL     OW76978   2.854   8.785   4.523 -0.2565 -0.6116 -1.0276
56067SOL    HW176979   2.901   8.818   4.446  1.4115  0.3120  0.3029
56067SOL    HW276980   2.924   8.761   4.585 -1.5281 -0.8812  0.3651
56068SOL     OW76981  11.349   1.299   0.961  0.2528  0.1186 -0.5432
56068SOL    HW176982  11.309   1.233   1.018  0.1906  1.5411  1.1642
56068SOL    HW276983  11.356   1.256   0.876 -4.5282 -0.4376 -0.9529
56069SOL     OW76984   2.658  10.579   4.313 -0.0092  0.5340 -0.0438
56069SOL    HW176985   2.668  10.484   4.324  0.2077  0.7843  2.4324
56069SOL    HW276986   2.737  10.606   4.266 -0.0458 -0.4887 -0.7276
56070SOL     OW76987   2.104   1.507  12.184  0.5449  0.4375 -0.1750
56070SOL    HW176988   2.069   1.485  12.097  1.1427 -2.9959  0.2870
56070SOL    HW276989   2.198   1.520  12.170  0.8067 -1.0666  0.0271
56071SOL     OW76990   1.941  12.487  10.553 -0.1433  0.5746 -0.2275
56071SOL    HW176991   1.959  12.547  10.481  0.1810 -0.1649 -0.7875
56071SOL    HW276992   1.989  12.523  10.627 -0.9980  1.6972 -0.1990
56072SOL     OW76993   2.352   9.694   7.382 -0.1594  0.2040  0.7982
56072SOL    HW176994   2.277   9.754   7.381 -0.0369  0.3558  0.4878
56072SOL    HW276995   2.315   9.609   7.406 -0.2913  0.4575  1.5046
56073SOL     OW76996   2.022   7.855   9.150  0.2326  0.6282 -0.1548
56073SOL    HW176997   2.003   7.943   9.183  0.3745  0.5577  0.1121
56073SOL    HW276998   1.991   7.857   9.059  0.7601  1.1384 -0.3287
56074SOL     OW76999   4.558   8.789   3.637 -0.4707 -0.5952 -0.3127
56074SOL    HW177000   4.564   8.821   3.727  0.3868  1.3243 -0.9941
56074SOL    HW277001   4.484   8.837   3.599  0.2626 -0.0705 -1.1149
56075SOL     OW77002   4.768   5.595   1.367 -0.4510  0.5817  0.6777
56075SOL    HW177003   4.777   5.502   1.386 -1.6521  0.6666  1.7788
56075SOL    HW277004   4.815   5.639   1.438  0.5293  0.8343 -0.1007
56076SOL     OW77005   9.527   3.122   6.124 -0.5185  0.3974 -0.4037
56076SOL    HW177006   9.464   3.058   6.089 -1.3987 -0.0530  1.8084
56076SOL    HW277007   9.596   3.068   6.163 -0.8689  0.7812  0.7859
56077SOL     OW77008  10.800  12.512   0.078 -0.5348  0.3076 -0.2230
56077SOL    HW177009  10.806  12.492  -0.015 -0.6939  0.5899 -0.2927
56077SOL    HW277010  10.720  12.564   0.087 -0.8591 -0.2389  0.1585
56078SOL     OW77011  10.426   2.827   5.616 -0.3450 -0.0201  0.1245
56078SOL    HW177012  10.496   2.817   5.551  0.2735 -1.2541  0.9451
56078SOL    HW277013  10.353   2.865   5.567  0.5254  0.2633 -0.9975
56079SOL     OW77014   7.705   3.928   9.979 -0.3293 -0.0768 -0.5618
56079SOL    HW177015   7.788   3.926   9.932 -0.3440  0.5081 -0.6225
56079SOL    HW277016   7.710   4.006  10.034 -1.1408  0.4021 -1.1335
56080SOL     OW77017  11.207   5.888   6.809 -0.4548 -0.4854  1.0515
56080SOL    HW177018  11.232   5.857   6.896  0.8131 -0.0779  0.8438
56080SOL    HW277019  11.128   5.940   6.824  0.6756  0.9977  2.2391
56081SOL     OW77020  10.396   0.934   8.449 -0.0463  0.4198  0.2994
56081SOL    HW177021  10.358   0.867   8.393  0.8251 -0.5552  0.8447
56081SOL    HW277022  10.346   0.930   8.530 -0.0097  0.4441  0.3230
56082SOL     OW77023   2.140   7.384   3.994  0.2489 -0.3607 -0.3431
56082SOL    HW177024   2.180   7.304   4.026  0.8851 -0.0694 -0.3868
56082SOL    HW277025   2.214   7.441   3.973 -0.1870  0.7141  0.9101
56083SOL     OW77026   2.827   6.443   0.921  0.5746  0.5284 -0.3001
56083SOL    HW177027   2.826   6.355   0.958  0.0229  0.3049 -0.8373
56083SOL    HW277028   2.785   6.498   0.988 -1.2491 -0.0269 -0.9167
56084SOL     OW77029   3.540   6.753  10.894  0.0115  0.0695 -0.4889
56084SOL    HW177030   3.501   6.751  10.982  2.0511  2.2340  0.5871
56084SOL    HW277031   3.590   6.671  10.888  1.4049  0.7114  1.2445
56085SOL     OW77032  12.120  11.233   0.167 -0.1061 -0.1996 -0.3615
56085SOL    HW177033  12.079  11.239   0.254  1.1811  1.9922  0.1694
56085SOL    HW277034  12.057  11.276   0.109  0.3262  0.9877  0.0266
56086SOL     OW77035   4.492   4.326   0.078  0.3852 -0.3891  0.0137
56086SOL    HW177036   4.458   4.241   0.051  1.9053 -1.1850  0.5020
56086SOL    HW277037   4.587   4.319   0.066  0.4396  1.8449 -1.6493
56087SOL     OW77038  10.325   2.906   7.701 -0.2807 -0.0460 -0.3868
56087SOL    HW177039  10.234   2.886   7.683 -0.2137  1.1408 -2.2581
56087SOL    HW277040  10.368   2.820   7.704 -1.2676 -0.5591 -0.4988
56088SOL     OW77041   8.551   7.122  11.512  0.1133 -0.0027 -0.5117
56088SOL    HW177042   8.635   7.090  11.544 -0.2247  0.7997  1.2945
56088SOL    HW277043   8.486   7.063  11.553 -0.4102  1.8696  1.5415
56089SOL     OW77044  12.524  11.492   4.959  0.4463  0.0276  0.5264
56089SOL    HW177045  12.492  11.578   4.986  0.9311  0.9848 -1.6953
56089SOL    HW277046  12.527  11.440   5.039 -0.3764  1.9097  1.8287
56090SOL     OW77047   2.768   9.118   7.366 -0.0600 -0.1960  0.1262
56090SOL    HW177048   2.739   9.188   7.307 -0.1496 -1.5473 -1.4985
56090SOL    HW277049   2.861   9.137   7.381 -0.4105  1.0449  0.8710
56091SOL     OW77050   2.611   0.697   4.912 -0.3028 -0.0126  0.1873
56091SOL    HW177051   2.677   0.657   4.856  0.1395  1.6333 -0.5331
56091SOL    HW277052   2.542   0.726   4.851 -2.1158 -2.3249  0.9725
56092SOL     OW77053   2.668  11.411   5.430  0.5987 -0.7961 -0.0892
56092SOL    HW177054   2.597  11.373   5.483  2.6274 -0.7892  2.8504
56092SOL    HW277055   2.648  11.505   5.429 -0.3882 -0.9974 -0.8887
56093SOL     OW77056   6.739   0.927   4.624 -0.7427 -0.0250 -0.1474
56093SOL    HW177057   6.725   1.005   4.570 -0.8378  1.9802  2.5748
56093SOL    HW277058   6.664   0.871   4.605 -0.5178  0.3270 -2.3951
56094SOL     OW77059  11.541   4.519   8.026  0.4082 -0.4863  0.4437
56094SOL    HW177060  11.520   4.488   8.114  1.0521  0.2764  0.8759
56094SOL    HW277061  11.635   4.504   8.017  0.5025  0.2059  0.2078
56095SOL     OW77062   5.359   1.111   9.691  0.2438  0.0971  0.5453
56095SOL    HW177063   5.283   1.085   9.744 -0.4392 -1.1379 -0.9751
56095SOL    HW277064   5.431   1.058   9.726 -0.2385 -0.8377  0.1716
56096SOL     OW77065   4.194   2.197   7.962 -0.1121 -0.2508  0.5068
56096SOL    HW177066   4.284   2.229   7.960  0.2059 -1.0883  0.9693
56096SOL    HW277067   4.142   2.269   7.925  0.5960  0.7209  1.3324
56097SOL     OW77068   2.381   0.348   5.281  0.8490 -0.5720 -0.2729
56097SOL    HW177069   2.409   0.380   5.195  0.2192 -0.8320 -0.5831
56097SOL    HW277070   2.386   0.253   5.274 -1.9511 -0.7422 -1.0286
56098SOL     OW77071  10.350   4.063   9.313  0.1012 -0.2724 -0.5785
56098SOL    HW177072  10.347   3.968   9.304  0.1605 -0.2120 -1.2908
56098SOL    HW277073  10.374   4.095   9.226  0.7971  0.3572 -0.1667
56099SOL     OW77074   8.208  11.397   0.567 -0.0052  0.2661  0.6853
56099SOL    HW177075   8.300  11.426   0.564  0.6825 -1.4100  2.9325
56099SOL    HW277076   8.167  11.454   0.632  0.4504 -1.3599  2.4658
56100SOL     OW77077   6.274   2.319  11.645 -0.3131 -0.2259 -0.0112
56100SOL    HW177078   6.323   2.378  11.704 -1.4352 -1.1041  1.8856
56100SOL    HW277079   6.293   2.353  11.558  0.0438  2.2312  0.9202
56101SOL     OW77080  11.741  11.158   2.678  0.0980  0.1088 -0.2564
56101SOL    HW177081  11.795  11.234   2.698  1.6548 -1.4415  1.8573
56101SOL    HW277082  11.767  11.092   2.742 -2.4657 -1.6330 -0.8326
56102SOL     OW77083   6.757   6.540  10.292 -0.0955  0.1270  0.3290
56102SOL    HW177084   6.712   6.532  10.208 -0.3579 -0.5342  0.5329
56102SOL    HW277085   6.829   6.601  10.274  0.0980 -0.3192 -0.4808
56103SOL     OW77086   8.925   2.675   4.072  0.3732 -0.4114 -0.1640
56103SOL    HW177087   8.998   2.692   4.013  1.1166  0.6702  1.0202
56103SOL    HW277088   8.939   2.584   4.101  1.0741 -0.3249 -0.2004
56104SOL     OW77089  10.739   8.954   1.549  0.6216  0.4525 -0.3711
56104SOL    HW177090  10.652   8.993   1.541 -0.3967 -0.7734  2.9380
56104SOL    HW277091  10.726   8.861   1.530  1.1463  0.2384  0.2640
56105SOL     OW77092  11.567  11.730   0.631 -0.1866  0.2745  0.1941
56105SOL    HW177093  11.564  11.684   0.546  1.8637  0.1721  0.1348
56105SOL    HW277094  11.639  11.688   0.678 -1.1070  0.5375  1.9024
56106SOL     OW77095   5.688   5.045   0.559 -0.2251 -0.0771 -0.3772
56106SOL    HW177096   5.603   5.000   0.560 -0.5469  0.5177 -0.4344
56106SOL    HW277097   5.666   5.137   0.547  0.4303  0.0929 -0.3075
56107SOL     OW77098   1.668  11.975  11.558 -0.7084 -0.4511  0.0641
56107SOL    HW177099   1.715  12.026  11.492  0.0754  2.0530  2.3439
56107SOL    HW277100   1.617  12.040  11.607 -2.4640 -2.3957  1.0070
56108SOL     OW77101   6.604  10.490   8.558  0.6226  0.1624  0.4702
56108SOL    HW177102   6.643  10.499   8.472  1.2172 -1.1256  0.5914
56108SOL    HW277103   6.555  10.407   8.554  0.5644  0.1465  1.3275
56109SOL     OW77104   7.064   8.946   4.816 -0.3409  0.4798  0.0201
56109SOL    HW177105   7.113   8.869   4.845 -0.5485  1.2293  2.5611
56109SOL    HW277106   6.994   8.910   4.761  1.4546 -0.8128 -1.5485
56110SOL     OW77107   0.116   1.055   4.138  0.0719  0.4413 -0.5488
56110SOL    HW177108   0.070   1.047   4.055 -2.2725 -1.3481  0.8259
56110SOL    HW277109   0.136   1.149   4.145 -1.7989  1.0069 -2.0366
56111SOL     OW77110   7.652   9.757   5.716  0.2458  0.6868 -0.5186
56111SOL    HW177111   7.585   9.689   5.732  0.2127  0.9478  0.5187
56111SOL    HW277112   7.607   9.822   5.663 -0.4923  1.0735  0.5329
56112SOL     OW77113  11.727   3.037  10.369  0.2319 -0.5806 -0.0048
56112SOL    HW177114  11.691   3.125  10.363 -0.9141 -0.8643  1.8820
56112SOL    HW277115  11.795   3.034  10.301  0.6382  1.9019  0.1908
56113SOL     OW77116   0.261   3.994  10.239  0.3005 -0.3173 -0.3768
56113SOL    HW177117   0.238   3.997  10.147 -0.6973  0.2667 -0.1168
56113SOL    HW277118   0.290   3.904  10.254  1.3027 -0.1881 -1.4436
56114SOL     OW77119   9.675   0.650   2.869  0.1353 -0.0322  0.1151
56114SOL    HW177120   9.729   0.684   2.941 -0.2818  1.2699 -0.1622
56114SOL    HW277121   9.734   0.596   2.818  0.5521 -0.6331  1.1965
56115SOL     OW77122   5.896   8.205  11.610  0.0775 -0.4559  0.0505
56115SOL    HW177123   5.878   8.137  11.675 -2.9103 -0.9681 -1.1595
56115SOL    HW277124   5.883   8.162  11.525  1.2685  0.8433 -0.8384
56116SOL     OW77125   9.048  10.859   0.633  0.3637 -0.2522 -0.3264
56116SOL    HW177126   9.059  10.912   0.713 -2.1384 -1.4273  0.9139
56116SOL    HW277127   8.957  10.874   0.607  1.0547 -0.0765 -2.9209
56117SOL     OW77128  10.814   9.804   8.477 -0.0647  0.3057 -0.0198
56117SOL    HW177129  10.822   9.891   8.517  1.5069  0.8578 -1.3796
56117SOL    HW277130  10.876   9.750   8.525  0.3169  0.4371 -0.3551
56118SOL     OW77131   8.554   7.178  10.004  0.0489  0.3659 -0.0869
56118SOL    HW177132   8.561   7.189   9.909  0.3519 -0.5494 -0.1754
56118SOL    HW277133   8.464   7.206  10.024 -0.1742  0.1070 -0.7076
56119SOL     OW77134   9.370   0.650   0.395 -0.2872 -0.3625  0.3240
56119SOL    HW177135   9.420   0.680   0.319 -0.5763  1.0582  0.6722
56119SOL    HW277136   9.428   0.661   0.469 -1.1885  1.6642  0.7860
56120SOL     OW77137   7.385   2.237   7.646 -0.2523  0.7547 -0.0315
56120SOL    HW177138   7.408   2.293   7.572  1.7269  0.0964  0.0419
56120SOL    HW277139   7.361   2.298   7.716  1.0462  1.4978 -0.2108
56121SOL     OW77140   0.277   6.853   7.629 -0.2441  0.8749 -0.0625
56121SOL    HW177141   0.258   6.817   7.716 -2.0017  1.2444 -0.2585
56121SOL    HW277142   0.230   6.936   7.627 -0.2605  0.8559 -1.3781
56122SOL     OW77143   7.467  11.225   3.975  0.7239 -0.4243  0.0100
56122SOL    HW177144   7.444  11.209   3.884 -1.6352  0.0911  0.4445
56122SOL    HW277145   7.504  11.313   3.976  0.5553 -0.3486 -0.4158
56123SOL     OW77146   3.509   3.593   7.435  0.9590  0.3669 -0.6494
56123SOL    HW177147   3.442   3.547   7.384  0.8540 -1.5991  1.1220
56123SOL    HW277148   3.478   3.683   7.441 -0.1084  0.1262 -2.1771
56124SOL     OW77149   2.901  11.850   8.022 -0.3000 -0.0819 -1.1347
56124SOL    HW177150   2.928  11.919   7.961  1.1952 -1.0487 -1.6097
56124SOL    HW277151   2.849  11.790   7.969  1.7678 -1.4177 -1.7876
56125SOL     OW77152   0.146   4.521   6.782  0.3693 -0.1285  0.0959
56125SOL    HW177153   0.146   4.454   6.714  0.5375  0.1508 -0.1767
56125SOL    HW277154   0.226   4.570   6.768 -0.3071  0.8517 -0.4090
56126SOL     OW77155   7.142   1.742   1.007  0.6480 -0.2754 -0.2560
56126SOL    HW177156   7.122   1.659   1.050  1.0359  0.7150  1.9457
56126SOL    HW277157   7.104   1.809   1.064  1.1834  1.1237 -1.4633
56127SOL     OW77158   7.645   3.116   5.738  0.1644  0.1564 -0.0178
56127SOL    HW177159   7.639   3.098   5.832 -1.3327 -1.0202 -0.2796
56127SOL    HW277160   7.558   3.150   5.715  0.3842  0.0583 -1.0353
56128SOL     OW77161   3.926   8.128   5.271 -0.1053  0.4151 -0.1860
56128SOL    HW177162   3.835   8.105   5.255  0.0607 -1.9836  1.6389
56128SOL    HW277163   3.976   8.051   5.242  0.9064 -0.1211  2.6638
56129SOL     OW77164   0.038  10.745   8.663  0.7930 -0.1394  0.2646
56129SOL    HW177165   0.105  10.683   8.635  0.4751 -0.6217  0.5650
56129SOL    HW277166  -0.045  10.708   8.631  0.5423 -0.1612  0.9272
56130SOL     OW77167   6.819   7.949   4.057  0.1982 -0.5072 -0.1251
56130SOL    HW177168   6.770   7.936   3.976 -0.3487  0.7169 -0.0153
56130SOL    HW277169   6.755   7.929   4.126 -0.1020  0.8213  0.0146
56131SOL     OW77170   2.089   6.586   4.255  0.4364  0.1855 -0.0013
56131SOL    HW177171   2.151   6.552   4.319 -0.2205  0.6896  0.9287
56131SOL    HW277172   2.046   6.660   4.299  1.7065  2.1899 -1.8763
56132SOL     OW77173   4.155   1.347   8.620  0.2154 -0.6392 -0.7202
56132SOL    HW177174   4.201   1.263   8.621  1.0377 -0.2062  0.6703
56132SOL    HW277175   4.135   1.365   8.712  1.2197  1.2883 -0.8338
56133SOL     OW77176   6.990   4.253   1.913 -0.5773  0.4442  0.6684
56133SOL    HW177177   7.052   4.196   1.958  0.5244  1.4983  0.5421
56133SOL    HW277178   6.950   4.197   1.846 -1.0687 -0.7168  1.8980
56134SOL     OW77179   6.703   5.398   9.108 -0.6536  0.7367 -0.1978
56134SOL    HW177180   6.660   5.417   9.192 -0.6613  0.1135 -0.0547
56134SOL    HW277181   6.631   5.375   9.049 -0.6992  1.7335 -0.5379
56135SOL     OW77182   7.351   6.905   7.373 -0.5423 -0.2999 -0.1280
56135SOL    HW177183   7.366   6.976   7.435  0.2260 -0.1291 -0.4965
56135SOL    HW277184   7.293   6.845   7.419  1.0062 -0.8076  1.2801
56136SOL     OW77185  10.306   9.800   0.342  0.3801  0.2747  0.1541
56136SOL    HW177186  10.339   9.865   0.404 -1.0769 -0.6110  2.0009
56136SOL    HW277187  10.318   9.839   0.256 -1.0732  3.3484  1.1935
56137SOL     OW77188   3.599   8.292   5.084  0.0400  0.1622  0.0862
56137SOL    HW177189   3.562   8.372   5.047  0.6721  0.2583 -0.3517
56137SOL    HW277190   3.600   8.307   5.179  0.0282  0.6153  0.0151
56138SOL     OW77191   5.347   4.922   8.920  0.5081  0.0654  0.3967
56138SOL    HW177192   5.439   4.941   8.940  0.0802 -0.2614  2.9311
56138SOL    HW277193   5.299   4.996   8.957 -0.3013  0.0532 -0.5987
56139SOL     OW77194  10.359   1.611  11.547 -0.6021 -0.5798  0.7327
56139SOL    HW177195  10.397   1.532  11.583  1.5696 -0.1095 -0.3406
56139SOL    HW277196  10.381   1.680  11.610 -0.2934 -0.4418  0.4836
56140SOL     OW77197   4.314   3.274   8.284 -0.5611  0.0944  0.0827
56140SOL    HW177198   4.325   3.361   8.322  1.6556 -0.2808  0.4344
56140SOL    HW277199   4.364   3.216   8.342  0.0710 -1.0187 -1.5059
56141SOL     OW77200   6.034   0.146   8.599  0.3244  0.7028 -0.1002
56141SOL    HW177201   5.994   0.118   8.681 -1.4200  0.3960 -0.9876
56141SOL    HW277202   6.029   0.068   8.543  0.6422  1.1725 -0.7913
56142SOL     OW77203  10.453  10.839   5.644  0.7315  0.6719 -0.0359
56142SOL    HW177204  10.414  10.865   5.560 -1.0525  1.6022  1.0289
56142SOL    HW277205  10.426  10.748   5.656  0.9724  0.5423 -0.4519
56143SOL     OW77206   0.908   4.197   0.693  0.7558 -0.3315  0.2655
56143SOL    HW177207   0.857   4.224   0.617 -0.2130  0.1161  1.0404
56143SOL    HW277208   0.867   4.115   0.721  1.5260 -0.8363 -0.0831
56144SOL     OW77209  11.108   3.749   1.950 -0.0354  0.3973  0.3112
56144SOL    HW177210  11.031   3.694   1.934 -0.1101  0.3293  0.8545
56144SOL    HW277211  11.183   3.691   1.936 -0.0586  0.6073 -0.7497
56145SOL     OW77212   2.750   1.163   1.365  0.1074 -0.3717 -0.5227
56145SOL    HW177213   2.840   1.181   1.338  1.3195 -1.8931  2.0995
56145SOL    HW277214   2.752   1.071   1.393 -2.4294 -0.6097 -0.9015
56146SOL     OW77215   1.398   6.546   4.090  0.2419 -0.0656 -0.5760
56146SOL    HW177216   1.392   6.631   4.133  0.3066  0.1754 -1.0396
56146SOL    HW277217   1.479   6.507   4.124 -0.3184 -0.3874  0.4272
56147SOL     OW77218  11.266   3.807   3.350 -0.2934  0.3766  0.4600
56147SOL    HW177219  11.179   3.783   3.319  0.5642 -0.6911 -1.2620
56147SOL    HW277220  11.273   3.901   3.331 -1.4822  0.7646  1.7585
56148SOL     OW77221   8.116   9.676   8.510 -0.1388  0.3636  0.2929
56148SOL    HW177222   8.078   9.637   8.589 -1.3182 -2.6901 -1.6023
56148SOL    HW277223   8.065   9.756   8.496 -0.2702  0.6850  2.2643
56149SOL     OW77224  10.566   7.380   2.788 -0.2377  0.1295 -0.4120
56149SOL    HW177225  10.472   7.376   2.771 -0.0779 -1.0838 -1.1768
56149SOL    HW277226  10.574   7.369   2.883 -0.8563 -0.3954 -0.4110
56150SOL     OW77227  10.679   9.420   2.742  0.1853 -0.9015  0.7881
56150SOL    HW177228  10.743   9.349   2.730  1.9010  0.5705  0.8572
56150SOL    HW277229  10.732   9.496   2.765 -1.6041  0.4428  0.6334
56151SOL     OW77230   8.271  10.071   2.807 -0.3726 -0.3147  0.0448
56151SOL    HW177231   8.216  10.136   2.762  0.3505  1.4118  1.5148
56151SOL    HW277232   8.245  10.078   2.899  0.5876 -1.2464  0.4008
56152SOL     OW77233   9.166   8.623   0.793  0.1715 -0.2648  0.1364
56152SOL    HW177234   9.196   8.688   0.856  0.2044 -0.9488  0.8368
56152SOL    HW277235   9.072   8.616   0.809  0.5780 -2.4563  2.0725
56153SOL     OW77236  11.932  10.412   0.418 -0.1522  0.2655 -1.1427
56153SOL    HW177237  11.883  10.488   0.388  0.3114  0.4851 -1.3453
56153SOL    HW277238  11.945  10.427   0.512 -0.1218  0.3986 -1.1683
56154SOL     OW77239  10.545   2.191   4.776  0.1151 -0.1501  0.1063
56154SOL    HW177240  10.544   2.249   4.700  2.8375  1.5811  1.2126
56154SOL    HW277241  10.590   2.242   4.844  0.1405 -2.5717  2.0519
56155SOL     OW77242   6.064   8.169   1.620 -0.7642  0.1928 -0.7241
56155SOL    HW177243   6.101   8.091   1.578  0.0390 -0.7800  1.6307
56155SOL    HW277244   6.031   8.221   1.547  0.7974 -1.2300 -2.5831
56156SOL     OW77245   9.141   5.293   1.646  0.6882 -0.0045  0.2842
56156SOL    HW177246   9.203   5.363   1.669 -0.0163  0.8789 -0.4491
56156SOL    HW277247   9.149   5.283   1.552 -0.7449  0.5877  0.0753
56157SOL     OW77248   7.262   3.327   4.951 -0.2114 -0.4930  0.1680
56157SOL    HW177249   7.249   3.402   4.894  0.9607  0.4457  1.0737
56157SOL    HW277250   7.307   3.262   4.897  0.0125 -0.0082 -0.2284
56158SOL     OW77251   3.644   4.641   6.220  0.8212 -0.8686  0.5925
56158SOL    HW177252   3.589   4.711   6.185  2.1154 -0.3220 -0.4085
56158SOL    HW277253   3.677   4.675   6.303  2.0779  0.0687 -0.2589
56159SOL     OW77254   9.610   1.166   2.027  0.1048  0.6110  0.1878
56159SOL    HW177255   9.577   1.083   1.992  0.7980  0.1941  0.4986
56159SOL    HW277256   9.538   1.200   2.080 -0.1196  0.1126  0.2092
56160SOL     OW77257   4.735   7.648  10.427 -0.1387  0.1058 -0.7984
56160SOL    HW177258   4.702   7.564  10.393 -1.1562 -0.2392  0.9373
56160SOL    HW277259   4.693   7.657  10.512 -0.6178  2.7605 -1.2498
56161SOL     OW77260   4.481  12.442  10.920 -0.3128  0.2191 -0.0465
56161SOL    HW177261   4.545  12.392  10.870  0.2894 -0.8740  1.7066
56161SOL    HW277262   4.413  12.379  10.942 -2.1003  1.3822 -1.9299
56162SOL     OW77263   7.700   3.551   3.710 -1.0707  0.2690 -0.5729
56162SOL    HW177264   7.664   3.637   3.731 -1.4968  0.1001 -0.6033
56162SOL    HW277265   7.681   3.497   3.787  0.0993  0.4680 -0.1252
56163SOL     OW77266   1.319   9.239   8.342 -0.4938  0.1726  0.3997
56163SOL    HW177267   1.267   9.174   8.295 -0.1429 -0.2347  0.5622
56163SOL    HW277268   1.293   9.323   8.305 -0.2243 -0.1399 -0.5286
56164SOL     OW77269   5.274   5.173   4.035  0.3108 -0.3755  0.4199
56164SOL    HW177270   5.183   5.197   4.054  0.6344  0.2477  1.2358
56164SOL    HW277271   5.325   5.213   4.106  1.3041 -0.1014 -0.4141
56165SOL     OW77272   4.502   2.930  10.768 -0.0173 -0.0358  0.0837
56165SOL    HW177273   4.570   2.996  10.756 -1.2924  1.1256 -1.2300
56165SOL    HW277274   4.521   2.864  10.701  0.7032 -0.5219  0.7586
56166SOL     OW77275   6.646  12.239   3.922 -0.2437 -0.2196  0.5308
56166SOL    HW177276   6.739  12.262   3.921 -0.0371 -1.0418 -0.2503
56166SOL    HW277277   6.611  12.274   3.839 -0.7212  0.3854  0.9718
56167SOL     OW77278  10.080   4.356  11.359  1.0521 -0.5030 -0.1408
56167SOL    HW177279  10.095   4.285  11.297 -1.3212 -0.4371 -0.8656
56167SOL    HW277280  10.162   4.362  11.409  2.6511 -1.2902 -2.4964
56168SOL     OW77281  11.805  12.281   9.065 -0.1556  0.0984 -0.3701
56168SOL    HW177282  11.741  12.236   9.120 -0.2242  0.3202 -0.2652
56168SOL    HW277283  11.768  12.280   8.977  0.0902 -0.5196 -0.4710
56169SOL     OW77284   7.501   6.556   7.018  0.3029 -0.4347 -0.4635
56169SOL    HW177285   7.532   6.473   7.055 -0.4343  0.2790  1.9410
56169SOL    HW277286   7.486   6.612   7.094 -1.2219  1.2232 -1.8877
56170SOL     OW77287  11.502  10.791  10.757  0.3706  0.1632  0.0302
56170SOL    HW177288  11.482  10.736  10.681 -2.1533  1.0678 -0.0651
56170SOL    HW277289  11.544  10.868  10.721  0.5686 -0.0800 -0.2657
56171SOL     OW77290   0.818   8.584   6.252 -0.0923 -0.1606 -0.4498
56171SOL    HW177291   0.732   8.593   6.293 -0.5623 -0.5342 -1.3286
56171SOL    HW277292   0.800   8.577   6.158  0.9097 -0.0529 -0.6698
56172SOL     OW77293   0.574   9.103   1.491 -0.2317  0.3465 -0.2707
56172SOL    HW177294   0.566   9.187   1.446  0.5010  0.4845 -0.1589
56172SOL    HW277295   0.650   9.114   1.548 -0.6255 -0.1202  0.3494
56173SOL     OW77296   9.735   1.442   9.104  0.2400  0.2976  0.2249
56173SOL    HW177297   9.751   1.533   9.126  0.7036  0.8091 -2.0201
56173SOL    HW277298   9.814   1.412   9.061 -1.0720 -0.1426 -2.0283
56174SOL     OW77299   4.658   4.897   1.392  0.4260 -0.2850 -0.2181
56174SOL    HW177300   4.587   4.843   1.357  0.8456 -0.8558 -0.1909
56174SOL    HW277301   4.638   4.906   1.485  0.5370 -0.6782 -0.1552
56175SOL     OW77302   2.289  10.581   9.916  0.3131  0.1016  0.1220
56175SOL    HW177303   2.239  10.513   9.960 -0.7379 -0.8183 -2.3238
56175SOL    HW277304   2.377  10.545   9.908  0.1255 -0.3554  0.1276
56176SOL     OW77305  10.198   5.954   0.122  0.3017  0.2508 -0.0725
56176SOL    HW177306  10.266   5.961   0.189  0.5501  1.4940 -0.4333
56176SOL    HW277307  10.241   5.908   0.050  0.7788  1.0308 -0.2992
56177SOL     OW77308   3.532   8.573  10.150  0.0249  0.1415 -0.4265
56177SOL    HW177309   3.627   8.563  10.147  0.1058  0.7607 -0.1363
56177SOL    HW277310   3.512   8.632  10.078  0.4470  3.9808  2.2631
56178SOL     OW77311   8.305   0.010   7.905  0.0882 -0.5395 -0.2884
56178SOL    HW177312   8.285   0.019   7.812 -3.6079 -2.2343  0.1604
56178SOL    HW277313   8.282  -0.080   7.926  0.6929 -0.1760  2.3075
56179SOL     OW77314  12.133  12.150   4.831  0.3113  0.8205  0.4118
56179SOL    HW177315  12.138  12.064   4.873 -0.3204  0.2041 -0.7120
56179SOL    HW277316  12.048  12.149   4.786  0.8694  1.5001 -0.7097
56180SOL     OW77317   5.835   4.231   0.055  0.3408 -0.5836 -0.0078
56180SOL    HW177318   5.841   4.250   0.149 -0.3067  0.3175 -0.1282
56180SOL    HW277319   5.745   4.199   0.043 -0.0793  0.7372 -0.5413
56181SOL     OW77320   1.614   9.807   1.801  0.2848  0.1181 -0.5702
56181SOL    HW177321   1.634   9.853   1.719 -1.2379  3.1924  0.6427
56181SOL    HW277322   1.692   9.820   1.856  0.3007  0.2251 -0.6192
56182SOL     OW77323   5.030   7.046   2.414  0.3459 -0.0437  0.8614
56182SOL    HW177324   5.075   7.004   2.340 -1.8593  0.4497 -0.8919
56182SOL    HW277325   5.021   6.976   2.479  0.4112 -1.1476 -0.2621
56183SOL     OW77326   9.096   5.230   1.296 -0.2747 -0.3495 -0.0036
56183SOL    HW177327   9.085   5.315   1.253  0.8677  0.3162  0.9562
56183SOL    HW277328   9.152   5.180   1.237 -0.7549 -0.3654 -0.4582
56184SOL     OW77329   1.124  11.545   4.303 -0.6101 -0.0626  0.2752
56184SOL    HW177330   1.174  11.538   4.221 -1.3447  1.2444 -0.3167
56184SOL    HW277331   1.181  11.507   4.369  0.0237 -1.1036 -0.8317
56185SOL     OW77332  10.472   7.373   0.078 -0.6192  0.2323 -0.1892
56185SOL    HW177333  10.447   7.296   0.129 -0.1609  0.2538  0.0712
56185SOL    HW277334  10.547   7.410   0.125  0.8796 -0.6846 -1.7421
56186SOL     OW77335   2.099   4.379   0.642  0.0783 -0.0592  0.0486
56186SOL    HW177336   2.110   4.316   0.571  2.3062 -0.6523  0.8382
56186SOL    HW277337   2.180   4.431   0.642 -0.7522  1.3166  0.8498
56187SOL     OW77338   0.538   4.213   2.423  0.4034  0.1807  0.0374
56187SOL    HW177339   0.551   4.211   2.328  0.3885 -0.2956  0.0439
56187SOL    HW277340   0.621   4.245   2.458  0.9079 -0.9990 -0.0459
56188SOL     OW77341   4.406   5.355  10.938 -0.2259  0.2138  0.3188
56188SOL    HW177342   4.458   5.435  10.930  0.4837 -0.3822 -1.4321
56188SOL    HW277343   4.331   5.381  10.991  0.1429  1.9490  0.0553
56189SOL     OW77344  10.935   9.939   4.639 -0.6414 -0.5669  0.2877
56189SOL    HW177345  11.026   9.957   4.615 -0.8483  0.8931  0.4617
56189SOL    HW277346  10.919   9.995   4.716 -2.3442  1.0477 -1.1281
56190SOL     OW77347   0.621   9.429   7.222  0.4154 -0.4773  0.1144
56190SOL    HW177348   0.575   9.439   7.138  0.7480 -0.9731 -0.1362
56190SOL    HW277349   0.581   9.352   7.262  1.1936 -1.0859 -0.2351
56191SOL     OW77350   5.507  10.757   8.349 -0.3491  0.5839 -0.7019
56191SOL    HW177351   5.526  10.766   8.255 -0.4356 -0.2715 -0.8096
56191SOL    HW277352   5.418  10.722   8.353  0.3669 -1.3187 -0.3814
56192SOL     OW77353   9.178  11.108   2.036 -0.3214 -0.7536  0.4831
56192SOL    HW177354   9.197  11.139   2.125  0.9806 -0.5015  0.1227
56192SOL    HW277355   9.082  11.114   2.029 -0.4029 -0.3742  1.7152
56193SOL     OW77356   2.542   0.071   5.749 -0.5062  0.3646 -0.3435
56193SOL    HW177357   2.622   0.051   5.701 -0.6910  0.2033 -0.5867
56193SOL    HW277358   2.563   0.053   5.841 -0.5398 -0.5395 -0.5107
56194SOL     OW77359   7.259   8.436   0.876 -1.0060  0.0244  0.1366
56194SOL    HW177360   7.302   8.520   0.892  1.0873 -0.7964 -0.8500
56194SOL    HW277361   7.269   8.387   0.957  0.0867 -0.2074 -0.1288
56195SOL     OW77362  11.178   8.608   4.554  0.1040  0.0920  0.3011
56195SOL    HW177363  11.190   8.556   4.475  0.6498 -0.8877  1.0128
56195SOL    HW277364  11.235   8.567   4.619 -2.9601 -1.3414  2.2690
56196SOL     OW77365   7.156   4.718  10.270 -0.0728  0.7749 -0.3832
56196SOL    HW177366   7.126   4.765  10.348 -1.3720  0.2771 -0.5621
56196SOL    HW277367   7.248   4.742  10.262 -0.4367  2.4725  0.1068
56197SOL     OW77368   7.856   4.650   3.984 -0.4067  0.5203  0.0062
56197SOL    HW177369   7.886   4.559   3.977 -0.1324  0.4468  1.7347
56197SOL    HW277370   7.882   4.690   3.901 -0.5310 -0.9743 -0.7767
56198SOL     OW77371   1.706   9.641   7.067 -0.1099  0.2549 -0.2126
56198SOL    HW177372   1.678   9.557   7.103  0.9761 -0.1624 -0.3013
56198SOL    HW277373   1.695   9.703   7.140  1.3090 -0.4257  0.6210
56199SOL     OW77374   1.843   0.945   0.659  0.6239 -0.0940 -0.3999
56199SOL    HW177375   1.775   0.978   0.600 -0.1876 -0.4160  0.3446
56199SOL    HW277376   1.915   0.921   0.601 -0.2797 -0.6975 -1.2957
56200SOL     OW77377  11.074   0.771   0.990 -0.2357  0.2817  0.4835
56200SOL    HW177378  10.983   0.769   1.019 -1.0693 -2.6058 -1.8396
56200SOL    HW277379  11.121   0.715   1.052 -0.3352  0.4987  0.7597
56201SOL     OW77380   6.305   8.184   0.014 -0.5371 -0.2485  0.3073
56201SOL    HW177381   6.334   8.275   0.023 -2.3201  0.4066 -0.1675
56201SOL    HW277382   6.218   8.182   0.055 -0.4520 -1.8031  0.4828
56202SOL     OW77383   1.308   4.573   2.632  0.7069  0.3234  0.4730
56202SOL    HW177384   1.231   4.518   2.645  0.9939  0.0421  1.0227
56202SOL    HW277385   1.325   4.611   2.718 -1.0752  3.4475 -0.4066
56203SOL     OW77386   5.720   0.595   5.187 -0.5313 -0.3948  0.5531
56203SOL    HW177387   5.793   0.651   5.213  0.2415 -0.8400 -0.5889
56203SOL    HW277388   5.649   0.620   5.246 -0.2966  1.9772 -0.0458
56204SOL     OW77389   4.059  11.405   8.358  0.2318 -0.1008  0.6634
56204SOL    HW177390   3.989  11.448   8.308  1.2137 -1.0475 -1.6638
56204SOL    HW277391   4.077  11.324   8.309  2.0682 -0.5130  1.9245
56205SOL     OW77392   6.891   3.977   2.103  0.3079 -0.7270  0.8608
56205SOL    HW177393   6.887   4.013   2.192  0.9324  0.7245  0.3405
56205SOL    HW277394   6.805   3.994   2.066  0.1742 -0.9750  1.0563
56206SOL     OW77395   7.881   5.213   2.057  0.3587 -0.5655 -0.0885
56206SOL    HW177396   7.813   5.244   1.998 -0.9994 -1.6245  0.8490
56206SOL    HW277397   7.925   5.293   2.087  1.3150 -0.0159 -2.6889
56207SOL     OW77398   2.157   3.036   3.902  0.2661  0.1981 -0.5950
56207SOL    HW177399   2.196   2.954   3.933 -1.3188 -0.4734 -0.3205
56207SOL    HW277400   2.089   3.057   3.966  0.2800  1.4548 -0.9551
56208SOL     OW77401   2.460   4.806   3.049  0.6139  0.4236  0.1760
56208SOL    HW177402   2.518   4.764   3.113  3.4283 -0.3890 -2.6239
56208SOL    HW277403   2.407   4.734   3.014  1.6947  0.1084 -0.8963
56209SOL     OW77404   1.355   1.930   0.591  0.3023  0.4407 -0.1549
56209SOL    HW177405   1.443   1.966   0.604  1.1320 -0.7613 -2.0353
56209SOL    HW277406   1.337   1.882   0.672  1.5782  0.3203  0.0849
56210SOL     OW77407   5.987   3.033   8.634 -0.3378 -0.4484  0.0651
56210SOL    HW177408   5.975   3.128   8.639  1.4634 -0.0297 -2.0513
56210SOL    HW277409   5.947   3.008   8.551  0.0134 -1.3949  0.1660
56211SOL     OW77410   5.872   4.294   3.262  0.4508  0.5525 -0.4349
56211SOL    HW177411   5.896   4.379   3.300  0.5652  0.3840 -0.1294
56211SOL    HW277412   5.777   4.297   3.255  0.3590  0.2766  0.6016
56212SOL     OW77413   4.209   7.850  12.200  0.4299  0.0462 -0.0554
56212SOL    HW177414   4.201   7.925  12.259 -1.0560 -0.3904  0.3218
56212SOL    HW277415   4.174   7.881  12.117 -0.9922 -0.4482  0.3278
56213SOL     OW77416  10.514  10.911  11.064  0.1707  0.1676 -0.3308
56213SOL    HW177417  10.594  10.866  11.039  0.2071 -1.0551  1.8314
56213SOL    HW277418  10.508  10.901  11.159 -2.0341  1.0799 -0.3009
56214SOL     OW77419   8.603   0.688   5.892  0.1277  0.6475  0.1684
56214SOL    HW177420   8.685   0.640   5.893  0.0817  0.3993 -2.1231
56214SOL    HW277421   8.622   0.768   5.843 -0.9273  0.7342 -0.1284
56215SOL     OW77422   7.248   3.957   6.904 -0.3440  0.1151  0.4158
56215SOL    HW177423   7.272   3.880   6.852  0.6485 -0.4412  1.6358
56215SOL    HW277424   7.235   4.027   6.840  1.4909 -0.3774 -0.5524
56216SOL     OW77425   1.162   2.689   5.165  0.2050 -0.5426  0.4367
56216SOL    HW177426   1.174   2.778   5.130 -0.1623  0.1028  1.8923
56216SOL    HW277427   1.214   2.634   5.107  2.6302  0.9522  1.0491
56217SOL     OW77428   5.544   9.040   6.798  0.3321 -0.3550  0.0151
56217SOL    HW177429   5.552   8.952   6.760 -0.9596  0.0338 -1.2428
56217SOL    HW277430   5.621   9.087   6.766  0.8092 -0.8936  0.3521
56218SOL     OW77431   8.601   0.701   2.085 -0.1966 -0.3473  0.0466
56218SOL    HW177432   8.667   0.664   2.028  2.5662  1.5427  1.7942
56218SOL    HW277433   8.568   0.778   2.038 -0.1263 -0.4934 -0.2418
56219SOL     OW77434   3.432   3.573   3.690  0.1975 -0.1000 -0.0795
56219SOL    HW177435   3.421   3.638   3.621 -0.4401 -0.4403 -0.3107
56219SOL    HW277436   3.359   3.588   3.750  0.2653 -0.3471  0.0683
56220SOL     OW77437  11.058  11.892  12.379  0.3226  0.0810 -0.3202
56220SOL    HW177438  11.146  11.927  12.394  0.8303  0.9925 -4.2620
56220SOL    HW277439  11.003  11.971  12.370 -0.0482 -0.3086 -1.7550
56221SOL     OW77440   9.487   7.607  10.079  0.1491 -0.5132  0.4960
56221SOL    HW177441   9.415   7.631  10.020  0.5398 -1.5239 -0.4213
56221SOL    HW277442   9.562   7.658  10.049  0.3501 -1.0336  0.0947
56222SOL     OW77443   7.107  12.032   2.497 -0.1749 -0.3164 -0.7319
56222SOL    HW177444   7.082  12.124   2.508 -0.4847 -0.3029 -1.4851
56222SOL    HW277445   7.199  12.029   2.522 -0.5345 -0.0933  0.7323
56223SOL     OW77446   7.880   1.621  11.808 -0.0961 -0.6176 -0.1419
56223SOL    HW177447   7.900   1.627  11.714 -0.6836 -0.4192 -0.2608
56223SOL    HW277448   7.888   1.528  11.829  3.0403 -0.3365  0.3101
56224SOL     OW77449   5.973  11.265  12.180 -0.5343  0.7044  0.2776
56224SOL    HW177450   5.958  11.219  12.098  1.3518  1.5242 -0.6046
56224SOL    HW277451   5.936  11.208  12.247 -1.3636 -0.3957 -1.0663
56225SOL     OW77452  11.063   0.811   6.859 -0.0523  0.2579 -0.1375
56225SOL    HW177453  11.069   0.854   6.774 -1.1526  0.5943 -0.0609
56225SOL    HW277454  10.999   0.863   6.908  0.4926  0.0144  0.8669
56226SOL     OW77455   2.676   2.260   7.974 -0.0063 -0.2098 -0.2559
56226SOL    HW177456   2.736   2.252   7.900 -0.4134  1.2073 -0.7701
56226SOL    HW277457   2.622   2.181   7.969  0.6837 -0.6690 -0.7961
56227SOL     OW77458   8.917   4.007  12.234 -0.3903 -0.0205  0.8410
56227SOL    HW177459   8.872   4.091  12.240  0.7317  0.6518  0.2588
56227SOL    HW277460   8.876   3.962  12.161 -1.5293 -0.3418  1.6436
56228SOL     OW77461   5.783  10.007   2.078 -0.1402 -0.3206 -0.2604
56228SOL    HW177462   5.856   9.945   2.084 -2.3869 -3.0753  1.8373
56228SOL    HW277463   5.770  10.036   2.169 -0.6377  1.4690 -0.8709
56229SOL     OW77464   8.551   5.582   1.550 -0.3928 -0.1307  0.4195
56229SOL    HW177465   8.597   5.665   1.535  1.8713 -1.5987 -1.4163
56229SOL    HW277466   8.544   5.577   1.646  0.4000  1.6676  0.6244
56230SOL     OW77467  10.516   6.281   2.025 -0.0010  0.7231 -0.0517
56230SOL    HW177468  10.590   6.240   1.981 -1.2440  0.1520 -1.7501
56230SOL    HW277469  10.507   6.366   1.983 -0.5741  0.5987 -0.1964
56231SOL     OW77470   2.700   5.153   7.094 -0.4227  0.2152  0.3323
56231SOL    HW177471   2.725   5.210   7.020  0.0363 -0.5155 -0.0845
56231SOL    HW277472   2.628   5.100   7.060 -0.2423 -0.0911  0.4226
56232SOL     OW77473   3.314   8.070   2.754  0.1667 -0.5864 -0.3106
56232SOL    HW177474   3.340   8.142   2.698  1.8431 -0.5533  0.4613
56232SOL    HW277475   3.218   8.075   2.756 -0.0998 -1.3198 -4.0404
56233SOL     OW77476   5.557   7.392  10.091  0.6117 -0.2485  0.7310
56233SOL    HW177477   5.645   7.408  10.125  0.0075  0.1861  2.1483
56233SOL    HW277478   5.503   7.381  10.169 -1.0121  1.7516 -0.0307
56234SOL     OW77479   4.840   2.417   8.146  0.2573  0.2881  0.4773
56234SOL    HW177480   4.812   2.483   8.083  2.0110 -0.1633 -0.8576
56234SOL    HW277481   4.925   2.447   8.177 -0.4606  0.3667  2.5107
56235SOL     OW77482   4.459   1.097   6.164  0.1484  0.1777 -0.7740
56235SOL    HW177483   4.430   1.137   6.082 -0.9808 -0.6833 -0.8091
56235SOL    HW277484   4.554   1.104   6.161  0.2417 -1.2579 -2.9031
56236SOL     OW77485   0.739   5.589   1.029 -0.0385 -0.1503 -0.3870
56236SOL    HW177486   0.785   5.650   0.972 -1.8337  2.5045  0.7895
56236SOL    HW277487   0.798   5.577   1.104  0.7841 -0.7990 -1.1144
56237SOL     OW77488   4.581   2.792   1.411 -0.2821 -0.0390  0.0909
56237SOL    HW177489   4.596   2.817   1.320 -1.4675  0.1025 -0.0757
56237SOL    HW277490   4.539   2.706   1.405 -0.3873 -0.0187  0.5061
56238SOL     OW77491   8.607   2.368   2.444 -0.3955 -0.4225 -0.1519
56238SOL    HW177492   8.651   2.442   2.486  0.0419 -0.2427 -0.8844
56238SOL    HW277493   8.664   2.347   2.369  0.6359 -2.8600  1.1925
56239SOL     OW77494  11.284   6.403  11.573  0.6902 -0.1291  0.5201
56239SOL    HW177495  11.335   6.388  11.652  0.8717  1.1417  0.6733
56239SOL    HW277496  11.302   6.494  11.550  0.5557 -0.4462 -0.9325
56240SOL     OW77497  11.353   4.839   3.303 -0.0360  0.1893 -0.1100
56240SOL    HW177498  11.339   4.882   3.387  1.1007 -1.0539  0.7634
56240SOL    HW277499  11.379   4.909   3.244  0.0884  0.9444  0.8095
56241SOL     OW77500   9.121   4.251   2.853 -0.5484  0.3215 -0.8016
56241SOL    HW177501   9.141   4.291   2.769 -1.3932 -1.6792 -2.0364
56241SOL    HW277502   9.206   4.232   2.892 -0.1528  0.9749 -1.3396
56242SOL     OW77503   2.758   4.413   5.708  0.4778 -0.1664 -0.1339
56242SOL    HW177504   2.810   4.337   5.735 -0.4688 -0.7943 -0.0231
56242SOL    HW277505   2.723   4.448   5.790 -1.2657 -1.2422 -0.3571
56243SOL     OW77506   5.510   2.003   3.246  0.0694 -0.7331 -0.4238
56243SOL    HW177507   5.445   1.962   3.189 -0.7482 -0.0537  0.0134
56243SOL    HW277508   5.564   1.930   3.276  0.3048 -1.1481 -1.7850
56244SOL     OW77509   5.238  10.728   0.936 -0.0179 -0.1421  0.7637
56244SOL    HW177510   5.270  10.680   0.860 -0.1824  0.6826  0.1699
56244SOL    HW277511   5.251  10.667   1.009 -2.5294 -2.0964 -0.2625
56245SOL     OW77512   5.098   4.343   6.503  0.4514 -0.3536  0.6325
56245SOL    HW177513   5.178   4.326   6.553  0.4633 -2.1320  0.0606
56245SOL    HW277514   5.121   4.322   6.412 -0.5191 -0.4042  0.3841
56246SOL     OW77515   0.844   9.308   3.793  0.0740 -0.1407  0.3203
56246SOL    HW177516   0.864   9.215   3.805 -0.5180 -0.0977  1.9427
56246SOL    HW277517   0.754   9.309   3.759  0.7726 -0.1829 -1.6359
56247SOL     OW77518   1.210   1.292  11.507  0.0693 -0.8402 -0.6096
56247SOL    HW177519   1.172   1.213  11.468  1.5961 -1.6451 -0.5474
56247SOL    HW277520   1.280   1.259  11.564  0.4581  0.5411 -0.2562
56248SOL     OW77521   4.405  12.380  12.084 -0.3173  0.3468 -0.6440
56248SOL    HW177522   4.464  12.455  12.079  0.0384  0.0500 -0.9047
56248SOL    HW277523   4.340  12.396  12.015  1.4196 -1.0007 -2.7118
56249SOL     OW77524   9.945   7.355   4.333 -0.7351  0.6110 -0.3577
56249SOL    HW177525   9.922   7.336   4.243  0.0561  1.7216 -0.8192
56249SOL    HW277526   9.879   7.310   4.385  0.3180 -2.2925 -1.3554
56250SOL     OW77527   4.807   9.788   0.974  0.0765  0.0971 -0.0104
56250SOL    HW177528   4.898   9.788   0.946  0.5264 -0.4861  1.3766
56250SOL    HW277529   4.756   9.785   0.893  1.3045 -1.6997 -0.7706
56251SOL     OW77530  10.067  10.527   3.513 -0.3157 -0.4441 -0.0388
56251SOL    HW177531  10.106  10.539   3.599 -0.1444  1.8718 -0.3688
56251SOL    HW277532  10.114  10.453   3.475  1.0938 -0.1422  1.0429
56252SOL     OW77533   2.366   9.691   9.895  0.7546  0.5365  0.4230
56252SOL    HW177534   2.298   9.639   9.854  0.4995  1.1548  0.0569
56252SOL    HW277535   2.357   9.779   9.857  0.9602  0.9413  1.2714
56253SOL     OW77536   7.462   3.768  10.019  0.5231  0.2816  0.0993
56253SOL    HW177537   7.398   3.803   9.957 -0.6046  0.7288  1.4673
56253SOL    HW277538   7.523   3.840  10.034  0.3339  0.4391  0.1162
56254SOL     OW77539   5.602   0.234   6.948  0.5520  0.1999 -0.1380
56254SOL    HW177540   5.566   0.148   6.926  2.7750 -0.8777  0.1117
56254SOL    HW277541   5.626   0.272   6.863 -0.3412  0.5475 -0.2417
56255SOL     OW77542  11.260   9.901  10.724 -0.2966 -0.2639  0.6601
56255SOL    HW177543  11.272   9.874  10.815 -1.2922  0.4329  1.0190
56255SOL    HW277544  11.333   9.960  10.706  0.3131 -0.9721  0.7654
56256SOL     OW77545   8.860   3.125   5.588  0.0580  0.1046 -0.5059
56256SOL    HW177546   8.845   3.046   5.640  1.9156 -0.6435 -1.0028
56256SOL    HW277547   8.919   3.096   5.518 -0.1955  1.6799 -1.4090
56257SOL     OW77548   4.853   9.659  12.349 -0.2380 -0.4048 -0.0821
56257SOL    HW177549   4.924   9.663  12.284  0.0690  0.3715  0.2861
56257SOL    HW277550   4.779   9.702  12.306 -0.1879 -0.3361 -0.0994
56258SOL     OW77551  10.628   5.149   4.845 -0.0331 -0.0785  0.3568
56258SOL    HW177552  10.649   5.151   4.939  1.9301 -0.3968 -0.0293
56258SOL    HW277553  10.648   5.238   4.815 -1.1887  0.1794  0.3277
56259SOL     OW77554   9.800   5.335   6.685  0.0052  0.4729 -0.4736
56259SOL    HW177555   9.707   5.343   6.707 -0.2396  0.3966 -1.4297
56259SOL    HW277556   9.810   5.243   6.657  0.2833  0.5734 -0.7081
56260SOL     OW77557   5.916   3.823   3.854 -0.1751 -0.8796 -0.5922
56260SOL    HW177558   5.864   3.843   3.776 -1.2608  2.5948  0.8522
56260SOL    HW277559   5.851   3.798   3.920  0.0205  1.8822  0.7608
56261SOL     OW77560   5.203   7.198   6.075 -0.1982 -0.0419  0.7308
56261SOL    HW177561   5.144   7.204   6.149  0.0269 -2.6548  1.2311
56261SOL    HW277562   5.146   7.190   5.999 -0.4615 -0.1132  0.9355
56262SOL     OW77563   1.190   4.019   9.862 -0.3522 -0.4429 -0.3296
56262SOL    HW177564   1.181   3.945   9.921  0.6007 -0.8847 -0.7103
56262SOL    HW277565   1.157   4.094   9.912 -2.2244 -1.2587 -0.3024
56263SOL     OW77566   3.400   4.906   8.027 -0.0926 -0.3795 -0.3119
56263SOL    HW177567   3.415   4.864   7.943  0.0103 -2.0960  0.5292
56263SOL    HW277568   3.488   4.927   8.060  0.0132 -1.8085  0.3737
56264SOL     OW77569   3.561   2.193   2.035  0.2508 -0.0837  0.6999
56264SOL    HW177570   3.473   2.226   2.056 -0.6152 -0.7429 -1.5768
56264SOL    HW277571   3.583   2.234   1.952  2.2203  0.1706  1.2888
56265SOL     OW77572  10.634   3.300   7.233 -0.1778 -0.1819 -0.5444
56265SOL    HW177573  10.596   3.297   7.321 -1.0908 -1.7066 -0.9392
56265SOL    HW277574  10.639   3.393   7.212  0.5773  0.2437  1.3214
56266SOL     OW77575  12.082   6.615   3.617 -0.4663 -0.2942 -0.5702
56266SOL    HW177576  12.160   6.618   3.561 -0.9831 -1.5258 -1.3862
56266SOL    HW277577  12.016   6.571   3.564 -1.5151  0.0853  0.3792
56267SOL     OW77578  11.740   7.797   8.009  0.2361  0.1084 -0.5289
56267SOL    HW177579  11.785   7.730   8.061  0.9613  1.3313  0.4831
56267SOL    HW277580  11.751   7.769   7.918  1.5366 -0.5466 -0.1900
56268SOL     OW77581   4.740   0.467   5.428 -0.4311 -0.3917  0.6153
56268SOL    HW177582   4.826   0.510   5.431  1.2673 -3.4498  0.0425
56268SOL    HW277583   4.694   0.511   5.357  1.7748 -0.4319 -0.9541
56269SOL     OW77584  10.620   5.181   0.895  0.5498 -0.1861 -0.0774
56269SOL    HW177585  10.684   5.119   0.863 -1.2240 -2.8249  1.1158
56269SOL    HW277586  10.667   5.232   0.961  1.2960 -2.6663  1.4407
56270SOL     OW77587   5.970   1.846   7.129  0.2145  0.5756 -0.1542
56270SOL    HW177588   5.997   1.931   7.095 -0.2195  0.4507 -0.8270
56270SOL    HW277589   5.896   1.864   7.186 -1.1682  0.4882 -1.8195
56271SOL     OW77590   1.293   2.388  11.237  0.1960 -0.2554 -0.0063
56271SOL    HW177591   1.356   2.459  11.246  0.9243 -0.9180  0.2751
56271SOL    HW277592   1.209   2.431  11.223  0.6555  0.6487 -0.0283
56272SOL     OW77593  11.030   2.415   4.589 -0.2719 -0.2151 -0.1345
56272SOL    HW177594  10.996   2.325   4.591 -1.1126  0.0673 -0.9403
56272SOL    HW277595  10.970   2.462   4.531  0.8254  0.6033 -0.6392
56273SOL     OW77596   3.644   0.323   6.785  0.1338 -0.4942  0.1685
56273SOL    HW177597   3.668   0.265   6.857 -1.4777  0.4998  1.5799
56273SOL    HW277598   3.728   0.352   6.749  0.9865 -1.0655  1.6153
56274SOL     OW77599  10.325   6.766   3.011  0.3480 -0.2596 -0.5290
56274SOL    HW177600  10.261   6.695   3.006  1.4943 -1.5238  1.1260
56274SOL    HW277601  10.380   6.742   3.086  0.4724  2.6956  0.4355
56275SOL     OW77602  12.408   0.661   5.137 -0.1928  0.2624 -0.6904
56275SOL    HW177603  12.379   0.572   5.158  1.8015 -0.2313  0.2790
56275SOL    HW277604  12.371   0.678   5.050  0.2735 -1.9729 -1.4095
56276SOL     OW77605   1.276  12.367   0.743  0.0795  0.2345 -0.2882
56276SOL    HW177606   1.246  12.426   0.673  2.7975 -0.5662 -2.2797
56276SOL    HW277607   1.315  12.426   0.808 -1.6916  0.9201  0.2271
56277SOL     OW77608  10.071  11.357   3.817 -0.2102 -0.0552 -0.2659
56277SOL    HW177609  10.154  11.357   3.769 -0.0561 -0.0581  0.0026
56277SOL    HW277610  10.061  11.267   3.848 -1.0514 -0.4391 -1.5733
56278SOL     OW77611   1.781   3.088   6.831 -0.4167  0.2536 -0.6244
56278SOL    HW177612   1.876   3.076   6.827 -0.5587 -1.9293  0.7945
56278SOL    HW277613   1.769   3.183   6.837  1.7832  0.5215  0.6970
56279SOL     OW77614   5.117   2.776   6.833 -0.0438  0.4469 -0.2576
56279SOL    HW177615   5.165   2.849   6.874 -0.8581  2.1187 -2.1424
56279SOL    HW277616   5.041   2.763   6.890  0.2435  0.8850  0.2435
56280SOL     OW77617   8.096   5.708   3.750 -0.1278  0.6320 -0.5452
56280SOL    HW177618   8.152   5.727   3.675  1.5225  0.4388  0.5822
56280SOL    HW277619   8.147   5.647   3.804 -1.3023  0.6863  0.6935
56281SOL     OW77620   1.744   6.697   9.489 -0.1483 -0.3084  0.2496
56281SOL    HW177621   1.830   6.661   9.468 -0.0766  0.4583 -0.8700
56281SOL    HW277622   1.716   6.650   9.568  1.8614  0.3541  1.4285
56282SOL     OW77623   5.376   4.135   8.347  0.1067 -0.0653 -0.5335
56282SOL    HW177624   5.408   4.048   8.321  1.8301  0.0564  0.9477
56282SOL    HW277625   5.396   4.191   8.272 -1.5218 -1.0141 -1.7278
56283SOL     OW77626   5.189   6.506   0.972  0.2288  0.7850 -0.1107
56283SOL    HW177627   5.237   6.448   1.032 -0.0290  1.5514  0.8499
56283SOL    HW277628   5.166   6.449   0.899 -0.8501 -0.6056  1.2304
56284SOL     OW77629  12.406   8.040   1.535  0.3408 -0.0845  0.1773
56284SOL    HW177630  12.350   7.970   1.569  2.0263 -1.0994  0.9413
56284SOL    HW277631  12.454   7.999   1.462  0.1714  0.7517 -0.4205
56285SOL     OW77632   6.896   7.762   2.783  0.0358 -0.0216 -0.4936
56285SOL    HW177633   6.856   7.675   2.793  1.0398 -0.5609 -0.9541
56285SOL    HW277634   6.859   7.813   2.855 -1.4467 -0.4839 -0.8944
56286SOL     OW77635  10.202   6.745   8.530  0.5183  0.6030 -0.0948
56286SOL    HW177636  10.135   6.735   8.598 -0.0094 -2.5252 -0.9481
56286SOL    HW277637  10.167   6.811   8.471 -0.5491  0.9411  0.8804
56287SOL     OW77638   0.263   2.033   3.471  0.1401 -0.0862 -0.0962
56287SOL    HW177639   0.229   2.108   3.421  0.0212 -0.8568 -1.1949
56287SOL    HW277640   0.251   2.059   3.563 -0.9596  0.7698 -0.4555
56288SOL     OW77641  11.284   7.436  11.570  0.3114  0.1034  0.0363
56288SOL    HW177642  11.189   7.449  11.576  0.2706 -0.8073  2.5040
56288SOL    HW277643  11.316   7.516  11.528 -1.4886  0.6206 -0.4747
56289SOL     OW77644   5.508  11.054   0.108 -0.1745 -0.0650 -0.3311
56289SOL    HW177645   5.554  11.069   0.025 -1.0862  1.3900 -0.6011
56289SOL    HW277646   5.416  11.048   0.084 -0.7438  2.8351  0.7855
56290SOL     OW77647   5.739   4.195   4.453  0.3337  0.4482  0.1577
56290SOL    HW177648   5.769   4.259   4.518 -1.7795  2.6267 -0.8407
56290SOL    HW277649   5.740   4.243   4.370  0.6335 -1.5017 -1.0344
56291SOL     OW77650   3.881   5.755   9.435 -0.8929  0.4591 -0.9513
56291SOL    HW177651   3.899   5.840   9.395  1.1606  0.2997 -0.4692
56291SOL    HW277652   3.874   5.774   9.529 -0.7305  0.1366 -0.8718
56292SOL     OW77653   0.978  12.395   8.249  0.7019  0.3019  0.1927
56292SOL    HW177654   0.928  12.377   8.328  1.8667 -0.1693  0.8568
56292SOL    HW277655   1.070  12.391   8.278  1.2306 -1.8046 -1.5584
56293SOL     OW77656   6.764   1.123   9.590 -0.0137 -0.1985  0.4970
56293SOL    HW177657   6.771   1.179   9.667  1.1402 -0.6415  0.7407
56293SOL    HW277658   6.723   1.178   9.524  2.0537  1.3256  0.3828
56294SOL     OW77659   1.731   3.664   8.231 -0.3715  0.2735  0.4313
56294SOL    HW177660   1.647   3.652   8.186  0.3174  0.1094 -0.8289
56294SOL    HW277661   1.797   3.635   8.169  0.6450  0.5161  1.3638
56295SOL     OW77662   4.565   2.942  12.013  0.1183  0.0909  0.4881
56295SOL    HW177663   4.535   3.003  12.081  0.6968  1.9665 -0.8425
56295SOL    HW277664   4.660   2.953  12.011  0.0870  0.3553 -0.8281
56296SOL     OW77665   7.578   1.279   5.545 -0.2909  0.3906 -0.8031
56296SOL    HW177666   7.505   1.341   5.549  0.3535  1.1095  0.3919
56296SOL    HW277667   7.631   1.300   5.622  1.1822 -0.1032 -1.6565
56297SOL     OW77668   8.909   4.969  12.557  0.3198 -0.7657  0.0725
56297SOL    HW177669   8.976   5.019  12.604 -0.8108  0.5558  0.3503
56297SOL    HW277670   8.858   4.926  12.626 -0.1908 -0.3390 -0.0306
56298SOL     OW77671  11.095  11.472   0.425  0.0433 -0.5868 -0.6785
56298SOL    HW177672  11.181  11.463   0.466  0.0004 -0.8362 -0.6427
56298SOL    HW277673  11.088  11.395   0.368 -0.1232 -0.5256 -0.7405
56299SOL     OW77674  11.600  10.114  11.844 -0.0396 -0.2388  0.8115
56299SOL    HW177675  11.637  10.046  11.788 -0.8155  0.0203 -0.0446
56299SOL    HW277676  11.601  10.193  11.789 -0.6214  0.0736  1.2342
56300SOL     OW77677   0.996   0.517   1.790 -0.6338  0.0215  0.3118
56300SOL    HW177678   0.902   0.511   1.776 -0.8940  1.4312  1.3433
56300SOL    HW277679   1.007   0.587   1.854  1.1358  0.0428  0.0335
56301SOL     OW77680   6.629  10.652  11.611 -0.3077  0.0964 -0.0364
56301SOL    HW177681   6.642  10.576  11.667 -0.9041 -0.1313 -0.2006
56301SOL    HW277682   6.709  10.656  11.558 -1.6096 -2.5018 -2.4597
56302SOL     OW77683  12.364   9.696   2.897  0.0407 -0.1113 -0.0069
56302SOL    HW177684  12.352   9.613   2.943 -0.7665 -0.8317 -1.4661
56302SOL    HW277685  12.285   9.746   2.917  0.7510  0.5610  1.2921
56303SOL     OW77686   0.915   1.115  11.886 -0.0143  0.3736 -0.1958
56303SOL    HW177687   0.964   1.186  11.846 -0.1504 -0.4531 -1.9289
56303SOL    HW277688   0.858   1.083  11.817 -0.6395 -0.8115  0.8175
56304SOL     OW77689   0.993  11.874   8.610 -0.1420 -0.1638 -0.1479
56304SOL    HW177690   0.987  11.779   8.621 -3.2481  0.1577  2.0743
56304SOL    HW277691   1.023  11.906   8.695 -0.9860  0.9749 -0.2622
56305SOL     OW77692   6.000   4.065   5.161 -0.5445  0.7722  0.5949
56305SOL    HW177693   5.995   3.987   5.217  0.2958  1.4055  1.5987
56305SOL    HW277694   5.951   4.132   5.209 -0.3355  1.1610  0.2736
56306SOL     OW77695   3.510   9.988   5.879  0.5306  0.4177 -0.4298
56306SOL    HW177696   3.531  10.081   5.876 -0.4224  0.7019  0.8882
56306SOL    HW277697   3.564   9.954   5.951 -0.7410  0.4304  0.5654
56307SOL     OW77698   4.473   3.842   0.612 -0.0992  0.1470 -0.4510
56307SOL    HW177699   4.442   3.755   0.639  1.0025 -1.3563 -3.4240
56307SOL    HW277700   4.394   3.887   0.582 -0.5959 -0.0780  0.4809
56308SOL     OW77701   7.944   5.815  11.794 -0.5711  0.1596  0.2105
56308SOL    HW177702   7.970   5.794  11.883  0.4116  1.4178  0.2490
56308SOL    HW277703   8.025   5.805  11.743 -1.3395 -1.5850 -0.7647
56309SOL     OW77704  12.457   1.123  10.140 -0.1034  0.3104 -0.6833
56309SOL    HW177705  12.430   1.048  10.088 -1.5183  1.7223 -2.1032
56309SOL    HW277706  12.548   1.140  10.113 -0.3177  0.0904 -1.5539
56310SOL     OW77707  10.190   2.335   3.858 -0.3477  0.4049 -0.1654
56310SOL    HW177708  10.279   2.316   3.887 -0.5483  0.5118  0.5391
56310SOL    HW277709  10.135   2.312   3.933 -0.9333  0.1623 -0.6573
56311SOL     OW77710  10.523   6.335   5.376 -0.3066 -0.5042  0.3255
56311SOL    HW177711  10.460   6.293   5.318  1.8305 -1.5056 -1.4073
56311SOL    HW277712  10.608   6.296   5.352  1.2685  2.1175  1.2007
56312SOL     OW77713  11.969   1.691  10.443 -0.2441 -0.1315 -0.1051
56312SOL    HW177714  11.895   1.653  10.491  0.8806 -0.3517  1.5329
56312SOL    HW277715  12.043   1.634  10.463  0.8163  1.1993 -0.0757
56313SOL     OW77716   9.030   9.835   8.482  0.2429  0.3103  0.2591
56313SOL    HW177717   9.000   9.917   8.521 -0.6174  0.6455 -1.0314
56313SOL    HW277718   9.124   9.847   8.469  0.3468  0.6067  1.1757
56314SOL     OW77719   8.761   2.058  10.008 -0.4392 -0.6300  0.0971
56314SOL    HW177720   8.776   2.002  10.084  0.9320 -0.2765  0.1087
56314SOL    HW277721   8.673   2.035   9.978 -1.2731 -0.3286  2.1787
56315SOL     OW77722  10.197   5.413  11.451 -0.0481 -0.1933 -0.0950
56315SOL    HW177723  10.217   5.345  11.516  0.9681 -0.7479 -0.9444
56315SOL    HW277724  10.230   5.494  11.489  1.1411 -0.6218 -0.1832
56316SOL     OW77725   4.718   9.977   9.521  0.0932 -0.1034 -0.0289
56316SOL    HW177726   4.754   9.952   9.436  1.9434 -1.8391  1.1800
56316SOL    HW277727   4.724   9.898   9.574 -2.2109  0.5757  1.3866
56317SOL     OW77728   8.182   4.813   6.537  0.3893 -0.4456 -0.0744
56317SOL    HW177729   8.115   4.871   6.573 -0.1388 -1.7128  1.0657
56317SOL    HW277730   8.227   4.866   6.472 -1.2546  0.6622 -0.3599
56318SOL     OW77731   3.082   8.592   3.831 -1.0576 -0.2439  0.5895
56318SOL    HW177732   3.112   8.541   3.907 -0.2272 -0.0061  0.4305
56318SOL    HW277733   3.044   8.671   3.869  1.0860  0.7832  0.7271
56319SOL     OW77734  11.224   5.864   9.803  0.1155  0.0085  0.4066
56319SOL    HW177735  11.267   5.802   9.863 -0.2629 -2.5667 -1.7625
56319SOL    HW277736  11.270   5.851   9.719 -1.4688  1.0494 -0.6738
56320SOL     OW77737  10.225  10.730  10.565 -0.0859  0.5560 -0.3522
56320SOL    HW177738  10.300  10.702  10.618  1.8655  1.3842 -2.5096
56320SOL    HW277739  10.219  10.824  10.580 -2.1702  0.2321  1.4538
56321SOL     OW77740   9.891   9.403   5.602  0.0940  0.3429  0.3251
56321SOL    HW177741   9.840   9.482   5.583  0.8160  0.2599 -2.3626
56321SOL    HW277742   9.843   9.332   5.559  1.2924 -0.0776 -0.3759
56322SOL     OW77743   3.925   2.902   2.624  0.0989  0.1520  0.1549
56322SOL    HW177744   3.842   2.895   2.671 -0.9339  0.7772 -1.4933
56322SOL    HW277745   3.905   2.955   2.547  1.9593  0.0456 -0.4522
56323SOL     OW77746   4.019  11.154   0.505  0.1057 -0.5807 -0.1226
56323SOL    HW177747   3.927  11.152   0.533  0.1238  1.4389  0.3112
56323SOL    HW277748   4.062  11.090   0.561 -0.9580 -1.2354 -0.0187
56324SOL     OW77749  11.436   5.743   1.599  0.3416 -0.4750  0.0565
56324SOL    HW177750  11.437   5.653   1.567 -1.3918 -0.6708  0.4078
56324SOL    HW277751  11.360   5.746   1.658  0.4534  1.1753  0.1664
56325SOL     OW77752   4.068  12.284   6.288  0.0688 -0.0929  0.0180
56325SOL    HW177753   4.141  12.312   6.343  0.0734  1.8748 -0.8720
56325SOL    HW277754   4.055  12.357   6.227 -1.8486 -0.9154 -0.6476
56326SOL     OW77755   7.194   6.894   3.521  0.7302 -0.4743  0.1623
56326SOL    HW177756   7.167   6.847   3.599  1.5166 -1.2194 -0.0030
56326SOL    HW277757   7.176   6.834   3.449 -1.9520  0.9778 -0.4990
56327SOL     OW77758   4.866   8.651   6.830  0.0471  0.4055 -0.2601
56327SOL    HW177759   4.893   8.663   6.921 -0.9462 -0.8773  0.2414
56327SOL    HW277760   4.941   8.680   6.778  0.4162  1.6886  0.9459
56328SOL     OW77761  11.784  11.912  11.540 -0.1931 -0.2058 -0.0942
56328SOL    HW177762  11.707  11.966  11.555  0.2397  0.2227  0.6956
56328SOL    HW277763  11.832  11.916  11.623 -1.3955 -3.9051  0.9446
56329SOL     OW77764   0.037  12.091   8.151 -0.4605 -0.4610 -0.0552
56329SOL    HW177765   0.095  12.163   8.174 -0.8839  0.0300 -0.4881
56329SOL    HW277766   0.096  12.022   8.120 -0.0626 -0.2340  0.1876
56330SOL     OW77767   4.355   4.049  12.030 -0.0394 -0.0341 -0.5832
56330SOL    HW177768   4.390   4.056  11.941  2.1676 -4.1098 -0.2688
56330SOL    HW277769   4.275   3.997  12.020 -0.2148  0.1643 -0.2406
56331SOL     OW77770   3.910  11.298  11.786  0.0561 -0.3066 -0.0531
56331SOL    HW177771   3.835  11.338  11.743 -0.0399  0.0345  0.4203
56331SOL    HW277772   3.929  11.220  11.734 -1.8462 -1.4823  0.9291
56332SOL     OW77773   2.940   6.670  11.652  0.5111  0.1683 -0.1755
56332SOL    HW177774   2.921   6.609  11.581  0.4992  1.2536 -1.1222
56332SOL    HW277775   3.035   6.682  11.649  0.8108 -1.3299  1.3184
56333SOL     OW77776   6.979  10.584   4.033 -0.5825  0.3816  0.1615
56333SOL    HW177777   6.936  10.498   4.029 -0.6330  0.3323  1.3032
56333SOL    HW277778   6.916  10.640   4.080  0.3893  0.4211  1.4854
56334SOL     OW77779   5.858   0.162   8.062  0.6190 -0.6056  0.0524
56334SOL    HW177780   5.896   0.102   7.997  1.3378 -0.6732  0.5185
56334SOL    HW277781   5.806   0.106   8.120 -2.0067 -0.2639 -1.7961
56335SOL     OW77782   7.176   1.154  11.234  0.6724 -0.0077 -0.8461
56335SOL    HW177783   7.224   1.220  11.285  1.1808 -0.6438 -0.4889
56335SOL    HW277784   7.105   1.203  11.193 -1.2799  0.1811  2.4055
56336SOL     OW77785   1.878   3.320   1.461  0.1525 -0.0574 -0.4389
56336SOL    HW177786   1.885   3.403   1.415  0.0732 -0.7336 -1.6988
56336SOL    HW277787   1.952   3.269   1.430 -0.4609 -0.8837 -0.5734
56337SOL     OW77788   6.399   3.119  12.512 -0.1144 -0.1365  0.4353
56337SOL    HW177789   6.395   3.206  12.472 -0.2901 -0.0664  0.6039
56337SOL    HW277790   6.349   3.063  12.452  2.0450 -0.6646 -1.0251
56338SOL     OW77791  11.015   5.660   5.839  0.1748  0.2577  0.1832
56338SOL    HW177792  10.983   5.749   5.850  1.3698  0.7309  0.0308
56338SOL    HW277793  10.990   5.614   5.919 -0.6986  0.6470  0.1350
56339SOL     OW77794  10.775   2.025   6.036  0.1520 -0.4958 -0.2562
56339SOL    HW177795  10.729   2.079   5.971  2.2282 -1.0354 -2.2982
56339SOL    HW277796  10.715   1.953   6.054 -1.7351  1.2319  0.8301
56340SOL     OW77797   7.771   3.860   9.305 -0.5770 -0.1728  0.1500
56340SOL    HW177798   7.712   3.913   9.358  0.8173  1.4392  0.1745
56340SOL    HW277799   7.787   3.782   9.359 -0.2644  0.8049  1.5307
56341SOL     OW77800   8.797   9.737  11.538  0.1536  0.1440  0.3684
56341SOL    HW177801   8.767   9.649  11.563  0.5049  0.3961  1.7059
56341SOL    HW277802   8.718   9.791  11.544 -0.1517 -0.1173 -0.8281
56342SOL     OW77803   2.333   5.440  10.867 -0.1771 -0.7462 -0.3004
56342SOL    HW177804   2.328   5.369  10.803  2.6323 -0.2010 -1.2801
56342SOL    HW277805   2.413   5.487  10.844 -0.0846  0.6534  2.4811
56343SOL     OW77806   2.534   5.681  11.180 -0.4562 -0.0803  0.3519
56343SOL    HW177807   2.469   5.645  11.240 -0.0497 -0.4622  0.5655
56343SOL    HW277808   2.530   5.625  11.103 -0.2602 -0.2083  0.4347
56344SOL     OW77809   7.956   4.624  11.471  0.0462 -0.1752  0.0129
56344SOL    HW177810   7.927   4.712  11.495  0.8393  0.5729 -1.6198
56344SOL    HW277811   8.026   4.604  11.534 -1.9274 -0.8410  2.1554
56345SOL     OW77812   0.789   3.273   5.989  0.3650 -0.3318  0.0992
56345SOL    HW177813   0.748   3.276   6.076 -0.1279 -0.7735 -0.1182
56345SOL    HW277814   0.883   3.273   6.008  0.3140  1.6205  0.5763
56346SOL     OW77815   9.612   3.052  10.576  0.0091  0.2033 -0.6435
56346SOL    HW177816   9.632   3.100  10.496 -1.9225  4.2180  1.0219
56346SOL    HW277817   9.696   3.041  10.620  1.0997 -2.0552 -3.0355
56347SOL     OW77818   1.211   5.158   7.713 -0.1401  0.4066  0.5333
56347SOL    HW177819   1.170   5.192   7.793  0.0523 -1.9011  1.6895
56347SOL    HW277820   1.171   5.208   7.642 -2.2046  0.7845  1.8909
56348SOL     OW77821  10.315   9.065   4.190 -0.3937 -0.2035  0.2093
56348SOL    HW177822  10.274   9.151   4.205  0.0049  0.0338 -0.0485
56348SOL    HW277823  10.408   9.084   4.184 -0.4361 -0.3709 -1.7970
56349SOL     OW77824   8.697  12.594   5.193 -0.1985  0.0256  0.2330
56349SOL    HW177825   8.684  12.584   5.288  1.4634  1.4122  0.6629
56349SOL    HW277826   8.615  12.632   5.162 -0.4129  0.4926  1.2968
56350SOL     OW77827   4.834   0.033   7.205  0.0356  0.0392 -0.2895
56350SOL    HW177828   4.796   0.119   7.222  1.6072  0.4958  1.1847
56350SOL    HW277829   4.844  -0.008   7.291 -1.7122 -2.1495 -1.0183
56351SOL     OW77830   9.759   3.648   4.930 -0.1180  0.6073  0.3603
56351SOL    HW177831   9.730   3.715   4.868  0.1197  1.0279  0.7008
56351SOL    HW277832   9.720   3.675   5.013 -3.2099 -1.6842 -0.1459
56352SOL     OW77833   1.460   6.317   8.643 -0.6079  0.2244 -0.1581
56352SOL    HW177834   1.385   6.319   8.702  0.3700  0.6941  1.1073
56352SOL    HW277835   1.484   6.224   8.638 -0.9205  0.1383 -0.1201
56353SOL     OW77836   7.869   7.420   2.261  0.0605  0.1648  0.7255
56353SOL    HW177837   7.788   7.461   2.233 -0.5714 -2.2100 -1.3239
56353SOL    HW277838   7.938   7.480   2.233 -0.8744  0.8770 -0.1232
56354SOL     OW77839   8.413   1.852   3.412  0.8451  0.3176 -0.3054
56354SOL    HW177840   8.421   1.935   3.458  1.0438 -1.0032  2.2447
56354SOL    HW277841   8.489   1.848   3.354  1.5421  1.3694  0.5036
56355SOL     OW77842   8.302   9.159   1.279 -0.8298 -0.8001 -0.0711
56355SOL    HW177843   8.340   9.137   1.364  3.1665  1.4001 -1.0329
56355SOL    HW277844   8.286   9.254   1.284  0.2764 -0.4660 -1.9724
56356SOL     OW77845  10.050  10.100  10.150 -0.1306 -0.1300  0.2524
56356SOL    HW177846   9.978  10.116  10.088 -0.7354 -1.4399  0.5978
56356SOL    HW277847  10.016  10.036  10.212  0.8527  0.3151  1.2987
56357SOL     OW77848  11.624  10.840  11.216 -0.0681  0.0021  0.2024
56357SOL    HW177849  11.682  10.794  11.276  1.7023  0.7343 -0.8823
56357SOL    HW277850  11.649  10.808  11.129 -1.2942  0.3444 -0.2956
56358SOL     OW77851   2.614  10.811   4.507  0.1660 -0.1470  0.0106
56358SOL    HW177852   2.639  10.757   4.432 -0.4222 -0.6161  0.1415
56358SOL    HW277853   2.525  10.840   4.487  0.1354  0.0092  0.3683
56359SOL     OW77854   9.512   5.787   4.012  0.0533  0.0386 -0.3644
56359SOL    HW177855   9.541   5.702   3.979  0.9372  0.2573 -0.1824
56359SOL    HW277856   9.437   5.767   4.067  0.0611 -0.5944 -0.5785
56360SOL     OW77857   8.965   5.772  11.671  0.4998  0.1888  0.1744
56360SOL    HW177858   9.000   5.833  11.607  0.0200  0.5933  0.2898
56360SOL    HW277859   8.935   5.697  11.618 -0.2603  0.6898 -0.1276
56361SOL     OW77860   7.993   2.454  11.916  1.0913 -0.0197 -0.1468
56361SOL    HW177861   7.944   2.405  11.851 -0.0989  1.9491 -0.8105
56361SOL    HW277862   7.944   2.441  11.998  0.4714  0.4738 -0.4323
56362SOL     OW77863  10.247   3.946  11.630 -0.0792  0.1660 -0.4210
56362SOL    HW177864  10.167   3.945  11.682  0.6165 -1.8080  0.7371
56362SOL    HW277865  10.222   3.905  11.547 -0.3055 -0.3135 -0.1196
56363SOL     OW77866  11.245   3.107  10.220 -0.1975  0.2441  0.2711
56363SOL    HW177867  11.305   3.100  10.294  1.4795 -0.8895 -1.1308
56363SOL    HW277868  11.266   3.191  10.180 -0.6087  0.5278  0.6365
56364SOL     OW77869   9.407   4.660   7.855 -0.1052  0.5292 -0.0776
56364SOL    HW177870   9.461   4.615   7.920 -0.8878 -1.0256 -0.4525
56364SOL    HW277871   9.337   4.701   7.907 -0.4223 -0.2566  0.1350
56365SOL     OW77872   7.076   4.330   3.411  0.3506  0.1817 -0.2231
56365SOL    HW177873   7.146   4.274   3.445  1.1840  1.3613  0.0617
56365SOL    HW277874   7.011   4.332   3.481  0.7244  0.2580  0.1273
56366SOL     OW77875   2.088   1.739   6.379  0.3897 -0.2894 -0.2365
56366SOL    HW177876   2.112   1.671   6.316  1.5589 -0.4406  0.3489
56366SOL    HW277877   1.993   1.751   6.366  0.6674  0.0413 -2.3443
56367SOL     OW77878   1.303   8.644  10.953 -0.1495  0.2480  0.5049
56367SOL    HW177879   1.291   8.734  10.984 -0.6926  0.4169 -0.1572
56367SOL    HW277880   1.254   8.590  11.015 -0.3082  0.4701  0.5732
56368SOL     OW77881   6.619   5.200   8.749 -0.2193 -0.1890  0.2770
56368SOL    HW177882   6.683   5.134   8.775 -0.0027 -0.5804 -1.1756
56368SOL    HW277883   6.664   5.283   8.762  0.4937 -0.4511 -0.4609
56369SOL     OW77884   9.824   9.246   9.905 -0.3414 -0.3615  0.0625
56369SOL    HW177885   9.889   9.177   9.915  1.3092  1.0260 -0.6558
56369SOL    HW277886   9.862   9.321   9.950 -1.7329  0.3293  0.1417
56370SOL     OW77887   3.633   3.425  12.591 -0.6014 -0.4148 -0.0816
56370SOL    HW177888   3.559   3.370  12.567  2.5431 -3.7513 -3.3909
56370SOL    HW277889   3.673   3.380  12.665 -0.8081  0.3779  0.5298
56371SOL     OW77890  11.820   7.564   4.945  0.5899 -0.4820 -0.1887
56371SOL    HW177891  11.787   7.497   4.886 -1.4973  1.7052 -1.7045
56371SOL    HW277892  11.876   7.619   4.890 -2.1585  2.1750 -0.6165
56372SOL     OW77893  12.568   2.192  11.185  0.4338 -0.3448  0.5908
56372SOL    HW177894  12.590   2.283  11.165  1.3406 -0.4136  1.2387
56372SOL    HW277895  12.613   2.141  11.118  0.7179 -0.3762  0.8070
56373SOL     OW77896   1.125  10.073   3.532  0.0821  0.5119 -0.1447
56373SOL    HW177897   1.196  10.109   3.586 -0.5352  1.0178  0.3379
56373SOL    HW277898   1.085  10.006   3.588 -0.0382  0.4617 -0.2923
56374SOL     OW77899   5.356   4.019  11.674 -0.1747 -0.0284 -0.0169
56374SOL    HW177900   5.357   4.110  11.702  5.6903  0.1494  0.2787
56374SOL    HW277901   5.317   4.022  11.586 -0.2455  2.6919  0.0317
56375SOL     OW77902   6.419   4.589   3.237 -0.1775  0.0539  0.5996
56375SOL    HW177903   6.372   4.670   3.218 -0.4443 -0.8356 -3.7904
56375SOL    HW277904   6.508   4.616   3.259 -0.0721  1.6086 -1.4753
56376SOL     OW77905   7.172   0.037   8.695 -0.0402  0.1982 -0.1245
56376SOL    HW177906   7.183   0.043   8.790  1.8741 -0.8985 -0.2335
56376SOL    HW277907   7.244   0.088   8.658 -0.1302 -0.2673 -0.9751
56377SOL     OW77908  12.611   1.198   1.187 -0.2854  0.0206 -0.3077
56377SOL    HW177909  12.610   1.166   1.277 -2.2687 -1.0504 -0.6514
56377SOL    HW277910  12.694   1.167   1.151  0.0728 -0.4092  0.8422
56378SOL     OW77911   2.838  12.049   2.150  0.4456  0.2407 -1.1191
56378SOL    HW177912   2.837  11.961   2.188 -0.9619  0.8939  0.4780
56378SOL    HW277913   2.841  12.108   2.225 -1.4352  1.5704 -2.0147
56379SOL     OW77914   4.326   3.892  11.132 -0.0950 -0.2079 -0.6435
56379SOL    HW177915   4.348   3.976  11.093  0.4596 -0.9440 -1.9536
56379SOL    HW277916   4.280   3.844  11.063 -0.0558 -1.1283 -0.0511
56380SOL     OW77917   1.935   5.318   7.222  0.2580 -0.0226 -0.3715
56380SOL    HW177918   1.874   5.326   7.296  0.0581  0.8697 -0.6239
56380SOL    HW277919   2.012   5.276   7.260  0.6531  1.5613  0.6511
56381SOL     OW77920   9.984   3.826   8.351 -0.0828 -0.4251 -0.1800
56381SOL    HW177921  10.033   3.787   8.423 -2.3990 -0.0652  1.6760
56381SOL    HW277922   9.954   3.910   8.384 -2.0448 -0.6685 -1.1739
56382SOL     OW77923   9.799   2.240   9.255  0.0348  0.9594 -0.7677
56382SOL    HW177924   9.814   2.334   9.260  2.3273  0.6899 -1.5318
56382SOL    HW277925   9.715   2.232   9.209 -1.1372  2.5977  0.9144
56383SOL     OW77926   1.344   8.273   7.564  0.4007  0.1528 -1.1882
56383SOL    HW177927   1.332   8.351   7.510  1.8390  0.0265 -1.7284
56383SOL    HW277928   1.425   8.233   7.532  1.0968 -0.1612  0.7929
56384SOL     OW77929   6.668  10.861  10.767 -0.3454  0.4890  0.4663
56384SOL    HW177930   6.690  10.779  10.723  1.7466  2.0808 -1.7391
56384SOL    HW277931   6.739  10.874  10.829 -2.3572 -0.8420  3.2491
56385SOL     OW77932   2.807   9.749   0.345  0.6262  0.2077  0.1721
56385SOL    HW177933   2.737   9.810   0.323 -0.1358 -1.0520 -1.1347
56385SOL    HW277934   2.785   9.719   0.434  1.1221  1.9134  0.9097
56386SOL     OW77935   4.384  10.314   5.417 -0.4275 -0.2793  0.1430
56386SOL    HW177936   4.344  10.241   5.464 -0.7445 -0.4342 -0.3485
56386SOL    HW277937   4.365  10.391   5.471 -2.3491 -0.1828 -0.5778
56387SOL     OW77938  12.094  11.595  10.481  0.5114  0.6049 -0.1312
56387SOL    HW177939  12.063  11.648  10.554 -3.8674  1.6802 -2.4241
56387SOL    HW277940  12.160  11.650  10.438  3.6770 -0.3136  3.0707
56388SOL     OW77941   2.679   1.441   2.516 -0.0178 -0.2698  0.5964
56388SOL    HW177942   2.689   1.351   2.548 -0.3615 -0.9397 -1.0730
56388SOL    HW277943   2.586   1.460   2.526  0.1865  0.2427  1.7278
56389SOL     OW77944   1.231   7.421   4.222  0.2030 -0.0495 -0.2365
56389SOL    HW177945   1.284   7.344   4.204 -0.7997 -0.6433 -0.7469
56389SOL    HW277946   1.144   7.399   4.189 -0.6139  0.5346  1.3891
56390SOL     OW77947   4.758   3.325   2.321 -0.1308  0.4869  0.3010
56390SOL    HW177948   4.715   3.409   2.307 -0.5628  0.1938 -0.1457
56390SOL    HW277949   4.740   3.302   2.412 -2.6316 -0.5755 -0.3801
56391SOL     OW77950  12.101  10.907  11.437  0.5311 -0.1474  0.0331
56391SOL    HW177951  12.084  10.948  11.521 -0.6075 -0.3309 -0.0958
56391SOL    HW277952  12.018  10.865  11.413  0.9059 -0.2941 -1.0676
56392SOL     OW77953   0.426   1.923   7.790 -0.1268 -0.3336 -0.1856
56392SOL    HW177954   0.405   1.988   7.723 -1.0022 -0.2324  0.1673
56392SOL    HW277955   0.459   1.848   7.742  1.5197  0.5984 -0.5537
56393SOL     OW77956   5.741   0.418   4.922 -0.0616  0.8180  0.0060
56393SOL    HW177957   5.714   0.436   5.012 -0.7414  1.6502 -0.3560
56393SOL    HW277958   5.762   0.504   4.886 -0.6249  0.5830 -0.8964
56394SOL     OW77959   8.223   0.726   6.738 -0.2280  0.0990  0.3004
56394SOL    HW177960   8.278   0.769   6.673  2.7779 -1.6020  1.5493
56394SOL    HW277961   8.207   0.794   6.804  0.9589  0.4766  0.2221
56395SOL     OW77962   9.002   4.184   6.104 -0.3616 -1.2169  0.0104
56395SOL    HW177963   9.049   4.102   6.084  1.8806  0.4381 -2.1266
56395SOL    HW277964   9.061   4.253   6.074 -3.2371  1.1502 -0.6644
56396SOL     OW77965   7.814   9.566   1.234  0.0488  0.1230 -0.2165
56396SOL    HW177966   7.755   9.626   1.189 -1.5712  0.0472  1.6747
56396SOL    HW277967   7.898   9.577   1.189 -0.6729  2.3409 -1.1718
56397SOL     OW77968  12.304   0.437   2.918  0.0069 -0.4371  0.2559
56397SOL    HW177969  12.339   0.518   2.880 -0.0551 -0.8765 -0.7930
56397SOL    HW277970  12.377   0.401   2.968 -0.3488  0.8854  1.8072
56398SOL     OW77971   1.023   6.858   5.809  0.3559 -0.6391  0.0567
56398SOL    HW177972   0.999   6.898   5.725  1.0223 -1.2089 -0.4170
56398SOL    HW277973   1.019   6.764   5.793 -1.1553 -0.7868  1.1508
56399SOL     OW77974   6.601  10.600   9.893  0.1343  0.1590  0.2033
56399SOL    HW177975   6.607  10.695   9.886  0.6110  0.1458  0.4054
56399SOL    HW277976   6.688  10.572   9.924  0.9722 -0.6006 -2.5603
56400SOL     OW77977   5.150  10.965   1.037 -0.2246 -0.7957  0.0967
56400SOL    HW177978   5.091  11.001   0.971  0.3341  1.2306  0.6191
56400SOL    HW277979   5.185  10.885   0.997 -0.8152 -0.2754 -1.5544
56401SOL     OW77980   7.301   4.683   1.764 -0.3375  0.0109  0.7265
56401SOL    HW177981   7.357   4.664   1.840  0.8605 -1.1894 -0.3931
56401SOL    HW277982   7.226   4.623   1.774  1.0179 -1.9644 -0.2317
56402SOL     OW77983  11.792   6.203   1.525 -0.2775 -0.2786  0.2129
56402SOL    HW177984  11.844   6.252   1.589  0.0973 -1.1862  0.6243
56402SOL    HW277985  11.739   6.144   1.578  1.6981 -2.6879 -0.3400
56403SOL     OW77986   7.987   9.720   9.898 -0.2503 -0.4057  0.3274
56403SOL    HW177987   8.062   9.777   9.917  0.2830 -1.2788  0.9869
56403SOL    HW277988   7.911   9.777   9.902  0.3253  0.3738  0.3353
56404SOL     OW77989   9.371   6.234   8.488  0.3795 -0.5059  0.3031
56404SOL    HW177990   9.467   6.233   8.492  0.4012 -0.6708 -0.1885
56404SOL    HW277991   9.343   6.223   8.579  0.8259  1.5761  0.7274
56405SOL     OW77992   7.456   7.251   3.976  0.7333  0.7271  0.1031
56405SOL    HW177993   7.368   7.289   3.984  1.4089  2.0271  2.0455
56405SOL    HW277994   7.443   7.158   3.996 -0.4768  0.4374 -1.7381
56406SOL     OW77995   5.965   1.884   5.767  0.1013  0.5362  0.1894
56406SOL    HW177996   5.916   1.935   5.702 -1.3223 -0.1979  0.6599
56406SOL    HW277997   6.026   1.832   5.715 -0.6869  0.3109 -0.5342
56407SOL     OW77998   7.367   2.360   6.171 -0.8368  0.7199 -0.0868
56407SOL    HW177999   7.385   2.323   6.258  1.2559  1.4938 -0.1202
56407SOL    HW278000   7.356   2.283   6.115  3.3759 -0.1358 -0.1374
56408SOL     OW78001   7.575   3.755   4.472 -0.8283  0.1814  0.1546
56408SOL    HW178002   7.551   3.696   4.544 -1.5294  0.3218  0.0445
56408SOL    HW278003   7.501   3.751   4.412 -0.0089 -0.3523 -0.8405
56409SOL     OW78004   9.605   9.575   2.887 -0.1258 -0.3179  0.1021
56409SOL    HW178005   9.531   9.518   2.866  1.1436 -1.3824 -1.7067
56409SOL    HW278006   9.617   9.565   2.981 -1.5064 -1.0700  0.2198
56410SOL     OW78007   0.414   0.795   0.418  0.1433  0.5516  0.1186
56410SOL    HW178008   0.379   0.817   0.504  1.4106 -0.9841  1.0773
56410SOL    HW278009   0.373   0.712   0.396 -0.9299  1.3897 -1.2686
56411SOL     OW78010   2.997   4.381   1.329  0.6609  0.1165  0.1448
56411SOL    HW178011   2.915   4.411   1.289  0.8273 -0.1586 -0.4184
56411SOL    HW278012   2.987   4.400   1.422 -0.0822 -0.0010  0.0949
56412SOL     OW78013   0.968   9.478   8.525  0.2200  0.4436  0.0100
56412SOL    HW178014   0.876   9.506   8.522 -0.1590 -0.8375 -1.9373
56412SOL    HW278015   1.000   9.494   8.437  1.5656 -0.1683  0.3745
56413SOL     OW78016  10.180  10.566   0.461 -0.2639  0.1549 -0.5650
56413SOL    HW178017  10.173  10.580   0.556 -0.8150  2.2104 -0.8782
56413SOL    HW278018  10.252  10.504   0.453 -0.1634 -0.0330  1.2002
56414SOL     OW78019   1.148  11.933   7.228  0.1536  0.1071 -0.1932
56414SOL    HW178020   1.167  11.853   7.277 -0.6353 -0.7971 -1.3033
56414SOL    HW278021   1.123  11.902   7.141 -1.9257  1.4581 -0.1320
56415SOL     OW78022   5.499   4.758  10.009 -0.2242 -0.0157  0.0176
56415SOL    HW178023   5.512   4.728   9.919 -1.1463  0.5007 -0.3004
56415SOL    HW278024   5.556   4.701  10.061  1.9220  1.0320 -1.0748
56416SOL     OW78025   0.128  12.267   8.521 -0.0322  0.5337 -0.2186
56416SOL    HW178026   0.155  12.226   8.603 -1.9243  1.2649  0.8297
56416SOL    HW278027   0.037  12.238   8.508  0.1570  0.6110 -1.9418
56417SOL     OW78028   7.930   8.634   2.122  0.2178 -0.2231  0.3223
56417SOL    HW178029   7.869   8.674   2.184  0.4209  2.4203 -1.0310
56417SOL    HW278030   8.015   8.638   2.167 -0.0656 -0.9213  0.9416
56418SOL     OW78031   2.779   4.079   7.437  0.2706 -0.0575  0.3320
56418SOL    HW178032   2.826   4.138   7.496  0.2804  0.6185 -0.3333
56418SOL    HW278033   2.715   4.036   7.493  0.1273  0.7456  0.8095
56419SOL     OW78034   6.547   7.308  11.423  0.1562 -0.4669  0.1445
56419SOL    HW178035   6.516   7.378  11.366 -3.0468 -1.2265  0.7386
56419SOL    HW278036   6.615   7.264  11.372  0.0816  1.1773 -1.4839
56420SOL     OW78037   0.129   3.906  10.875 -0.3227  0.1639  0.0886
56420SOL    HW178038   0.216   3.937  10.901 -0.0254  0.9681 -1.6562
56420SOL    HW278039   0.134   3.810  10.882  1.0162  0.1399 -0.7583
56421SOL     OW78040   5.485   6.061   4.539 -0.4458 -0.1246  0.1813
56421SOL    HW178041   5.541   6.051   4.616 -0.8778 -0.3870  0.4668
56421SOL    HW278042   5.545   6.058   4.465 -0.0271  0.1120  0.5041
56422SOL     OW78043   2.474   3.637   3.689 -0.0241 -0.0081  0.2368
56422SOL    HW178044   2.400   3.591   3.728 -0.0536  1.6702  2.3470
56422SOL    HW278045   2.436   3.715   3.648  0.4935  0.8879  1.3726
56423SOL     OW78046   9.992   0.537   3.577 -0.4926  0.7347  0.3332
56423SOL    HW178047  10.022   0.481   3.505 -0.7973  1.1820 -0.1473
56423SOL    HW278048   9.912   0.495   3.608 -2.1955  2.2554 -1.7420
56424SOL     OW78049   2.782  11.466   7.417 -0.1536  0.3510 -0.0341
56424SOL    HW178050   2.727  11.407   7.469  1.2830 -1.9723 -0.9815
56424SOL    HW278051   2.737  11.472   7.333 -1.2619  2.2208  0.6278
56425SOL     OW78052  11.810   6.388   5.683  0.9646 -1.0135  0.2911
56425SOL    HW178053  11.902   6.389   5.658  0.9427 -1.4748  0.1752
56425SOL    HW278054  11.810   6.360   5.774  0.9277 -1.2248  0.2271
56426SOL     OW78055   4.627  11.327   8.117 -0.2556  0.0540 -0.5597
56426SOL    HW178056   4.627  11.249   8.173  0.2234 -0.7161 -1.6044
56426SOL    HW278057   4.720  11.349   8.108 -0.4023  0.9458 -0.0258
56427SOL     OW78058   2.668   3.621   7.426 -0.5488 -0.3462  0.8993
56427SOL    HW178059   2.595   3.620   7.487 -0.9122  0.5729  0.5011
56427SOL    HW278060   2.730   3.557   7.460 -2.0142 -1.9586  0.6519
56428SOL     OW78061  11.378   8.407   3.802 -0.5592 -0.0595 -0.1259
56428SOL    HW178062  11.396   8.340   3.736 -0.5072  1.1065 -1.3508
56428SOL    HW278063  11.463   8.430   3.838 -0.6041 -0.8166  0.4871
56429SOL     OW78064   1.870   2.843   9.791 -0.2860 -0.3020 -0.2475
56429SOL    HW178065   1.892   2.937   9.792 -0.4689 -0.2590  0.6456
56429SOL    HW278066   1.953   2.799   9.807 -0.1740 -0.3054 -0.8121
56430SOL     OW78067   2.663   6.165   4.845 -0.4363  0.1444 -0.6450
56430SOL    HW178068   2.693   6.085   4.889 -0.6963  0.1027 -0.5464
56430SOL    HW278069   2.703   6.236   4.895 -0.5335  0.0895 -0.4925
56431SOL     OW78070   7.155   8.977   6.792 -0.2978  0.0880  0.2063
56431SOL    HW178071   7.205   8.935   6.862  0.9001 -0.4422 -0.9092
56431SOL    HW278072   7.152   8.911   6.722  1.0972  1.5621 -1.3577
56432SOL     OW78073  12.443   6.683   8.342  0.0391  0.6038  0.6078
56432SOL    HW178074  12.392   6.643   8.413  0.4244  1.7914  1.5893
56432SOL    HW278075  12.530   6.696   8.379  1.3110 -1.9266 -1.2349
56433SOL     OW78076   4.879   7.490   9.461 -0.0222 -0.5504  0.6164
56433SOL    HW178077   4.947   7.431   9.493 -1.0569 -2.2287 -0.1461
56433SOL    HW278078   4.834   7.521   9.540  1.0708 -0.0773  1.0707
56434SOL     OW78079   8.872   2.810  10.575  0.0053 -0.3092 -0.1640
56434SOL    HW178080   8.932   2.736  10.585  1.3132  0.5000 -1.6133
56434SOL    HW278081   8.887   2.840  10.485  0.5327  2.6064  0.8272
56435SOL     OW78082   9.277   4.115   7.924  0.0737  0.1371  0.0357
56435SOL    HW178083   9.259   4.197   7.969  0.2060 -0.0440  0.4173
56435SOL    HW278084   9.277   4.049   7.993 -1.6108 -0.4269 -0.4468
56436SOL     OW78085   5.379   7.811   1.242  0.2208  0.3479  0.0211
56436SOL    HW178086   5.374   7.836   1.335  0.7168 -1.4371  0.5618
56436SOL    HW278087   5.338   7.885   1.196  0.1542  1.3795  1.6272
56437SOL     OW78088  11.991   5.343  12.167 -0.3488  0.4278 -0.0710
56437SOL    HW178089  11.925   5.274  12.172  0.1338 -0.4690 -3.4398
56437SOL    HW278090  11.946   5.421  12.200 -1.4497 -1.0769  2.2416
56438SOL     OW78091  11.633  11.317   2.414 -0.3063 -0.1787  0.2347
56438SOL    HW178092  11.668  11.406   2.403  1.9795 -1.1195 -0.5274
56438SOL    HW278093  11.642  11.300   2.508 -0.3559  0.2411  0.3182
56439SOL     OW78094   1.179   2.133   7.024 -0.1501 -0.0645  0.1621
56439SOL    HW178095   1.134   2.188   6.960  0.1941  0.1251  0.0794
56439SOL    HW278096   1.258   2.182   7.046  0.3984 -0.7400 -0.2568
56440SOL     OW78097  10.712   6.712   1.544  0.5294  0.4673  0.2138
56440SOL    HW178098  10.731   6.624   1.575  1.5854  0.1444 -1.2499
56440SOL    HW278099  10.798   6.752   1.530  0.1286  0.8255 -1.5289
56441SOL     OW78100   6.024   5.818  12.237 -0.1222  0.1703  0.2171
56441SOL    HW178101   5.989   5.907  12.236 -1.7092 -0.4038  0.8751
56441SOL    HW278102   6.059   5.807  12.325 -0.7758 -0.1502  0.4431
56442SOL     OW78103   9.526   9.093   7.649 -0.5539 -0.1135 -0.7229
56442SOL    HW178104   9.612   9.051   7.642 -0.6561 -0.6208  0.6738
56442SOL    HW278105   9.501   9.111   7.558 -0.0038 -2.0945 -1.3376
56443SOL     OW78106   2.450   2.280   6.734 -0.1671 -0.0216 -0.1231
56443SOL    HW178107   2.450   2.248   6.644 -2.6286 -2.3684  0.5832
56443SOL    HW278108   2.511   2.223   6.780  0.9339  1.0460 -0.2100
56444SOL     OW78109   3.204   2.082   5.180  0.1767  0.1833 -0.2137
56444SOL    HW178110   3.127   2.094   5.235  0.0091  0.8521 -0.5800
56444SOL    HW278111   3.275   2.063   5.241 -0.2548 -0.3383  0.1339
56445SOL     OW78112   7.813   6.675   5.233  0.4062 -0.2575 -0.2263
56445SOL    HW178113   7.883   6.624   5.274  2.0270  1.5459 -0.6684
56445SOL    HW278114   7.846   6.764   5.228 -2.5336  1.0588  1.0062
56446SOL     OW78115  11.075   4.034   3.914 -0.0112  0.1791 -0.2847
56446SOL    HW178116  11.011   3.977   3.956  1.6074 -1.1905  0.4272
56446SOL    HW278117  11.095   4.101   3.980 -1.8832  1.6566 -1.1083
56447SOL     OW78118   0.996   1.744   6.934 -0.1378 -0.5164  0.0868
56447SOL    HW178119   0.989   1.759   6.839  0.9563  2.0139  0.3249
56447SOL    HW278120   1.016   1.651   6.942  2.4941 -0.3067 -2.3868
56448SOL     OW78121   3.777   6.311   3.983  0.2893 -0.4950  0.1107
56448SOL    HW178122   3.751   6.314   4.075 -0.2077  1.5578 -0.0392
56448SOL    HW278123   3.833   6.388   3.971 -2.2041  1.2056 -1.9384
56449SOL     OW78124   5.167  11.042   3.373  0.2104 -0.8315  0.6231
56449SOL    HW178125   5.098  11.108   3.361 -0.0927 -1.1244  0.7383
56449SOL    HW278126   5.248  11.088   3.350 -0.0236 -0.4899  0.4658
56450SOL     OW78127   5.586   6.060   2.974  0.5497  0.6502 -0.4536
56450SOL    HW178128   5.536   6.141   2.986 -0.1438 -0.0538  1.9576
56450SOL    HW278129   5.675   6.089   2.952  0.3224  2.0683  0.4282
56451SOL     OW78130   8.064   4.289   9.203  0.1704 -0.1838  0.0389
56451SOL    HW178131   8.112   4.256   9.279  0.1057 -1.7457 -0.5734
56451SOL    HW278132   8.081   4.383   9.203  1.8859 -0.4645  0.7733
56452SOL     OW78133   8.191   4.665  10.083  0.5289 -0.2994  0.2519
56452SOL    HW178134   8.208   4.703   9.997 -0.5478  1.7551  0.8928
56452SOL    HW278135   8.257   4.596  10.092  2.0222  0.8378 -1.3267
56453SOL     OW78136   6.088   8.273   0.261  0.1370  0.2373 -0.1646
56453SOL    HW178137   6.073   8.304   0.172  1.2656  0.7760 -0.1777
56453SOL    HW278138   6.039   8.334   0.316 -0.1307  0.2197 -0.3815
56454SOL     OW78139   8.360   9.652   1.391  0.1063 -0.3047 -0.3855
56454SOL    HW178140   8.452   9.677   1.400  0.6138 -2.3119  0.5920
56454SOL    HW278141   8.337   9.613   1.475 -1.2612 -0.9587 -1.0302
56455SOL     OW78142   4.906   0.347   0.217  0.1560 -0.2321  0.1956
56455SOL    HW178143   4.942   0.435   0.211  0.8573 -0.4434  1.1191
56455SOL    HW278144   4.962   0.302   0.280 -0.2095 -1.3332 -0.2341
56456SOL     OW78145   8.905  10.453   2.696  0.0972  0.2211  0.4346
56456SOL    HW178146   8.898  10.542   2.662 -1.2385 -0.3651 -0.9406
56456SOL    HW278147   8.914  10.398   2.618 -2.8807 -1.1656  0.9404
56457SOL     OW78148   5.859   5.220   9.678 -0.2374  0.4920 -0.1856
56457SOL    HW178149   5.904   5.196   9.759  2.3037  0.1034 -1.6028
56457SOL    HW278150   5.785   5.160   9.672  0.5815 -0.6759  0.9625
56458SOL     OW78151   6.657   3.447   2.800  0.2033 -0.4580 -0.1359
56458SOL    HW178152   6.666   3.538   2.772  0.1329 -0.0665  1.0469
56458SOL    HW278153   6.741   3.407   2.780  0.4224  0.0134 -0.1657
56459SOL     OW78154  12.098   6.039   2.168 -0.3581 -0.0844  0.3233
56459SOL    HW178155  12.128   6.043   2.077 -1.0222  0.0588  0.1032
56459SOL    HW278156  12.070   5.949   2.180 -2.3331  0.3945 -0.3120
56460SOL     OW78157   7.515  11.623  11.569 -0.3715 -0.0843  0.4528
56460SOL    HW178158   7.595  11.663  11.535 -0.7902  0.3167 -0.0724
56460SOL    HW278159   7.486  11.682  11.638 -0.7586  0.3022 -0.0367
56461SOL     OW78160   1.008  12.202   3.663  0.2041  0.5890  0.3636
56461SOL    HW178161   1.071  12.159   3.721 -0.8679 -1.3680  0.1488
56461SOL    HW278162   0.997  12.290   3.700 -0.2478 -0.5036  3.0154
56462SOL     OW78163   4.536   4.532  11.267 -0.2547  0.2576  0.1253
56462SOL    HW178164   4.477   4.481  11.322 -1.3536  1.0102 -0.3400
56462SOL    HW278165   4.620   4.527  11.313 -0.2936 -1.9506  0.1025
56463SOL     OW78166  12.511   3.591   4.275  0.3295 -0.6431  0.0677
56463SOL    HW178167  12.529   3.680   4.243  0.0545 -1.0699 -1.3304
56463SOL    HW278168  12.594   3.545   4.264 -0.3102 -1.3971 -2.2300
56464SOL     OW78169   0.988   0.953   8.600  0.6488 -0.1561 -0.2035
56464SOL    HW178170   1.033   0.894   8.660 -1.1855 -0.6835  0.7001
56464SOL    HW278171   1.024   0.931   8.514  0.5775 -2.0525  0.2170
56465SOL     OW78172  12.568  10.680   2.180  0.2117 -0.3365 -0.4216
56465SOL    HW178173  12.573  10.712   2.090 -1.3898 -0.1083 -0.4593
56465SOL    HW278174  12.591  10.587   2.174  0.0022 -0.3465 -1.0807
56466SOL     OW78175   9.962   0.109  10.392  0.0648 -0.0822  0.0360
56466SOL    HW178176   9.989   0.041  10.330  0.4206  0.2954 -0.2327
56466SOL    HW278177  10.024   0.102  10.464 -1.4005 -1.6974  1.2357
56467SOL     OW78178   0.344   0.290   4.428  0.0200  0.4538  0.0386
56467SOL    HW178179   0.402   0.229   4.473 -0.2452  0.2241  0.0783
56467SOL    HW278180   0.295   0.333   4.499 -0.3478  0.1426 -0.0200
56468SOL     OW78181  11.533  10.175   3.397  0.6170  0.0578 -0.0614
56468SOL    HW178182  11.557  10.143   3.310  1.1480 -2.2046  0.8437
56468SOL    HW278183  11.547  10.269   3.392 -2.6193  0.6128 -3.4517
56469SOL     OW78184   1.560   1.772   4.294  0.3825 -0.2628  0.2424
56469SOL    HW178185   1.560   1.803   4.204 -1.5840  0.3762  0.4010
56469SOL    HW278186   1.495   1.701   4.295 -0.8761  0.8508  1.4584
56470SOL     OW78187   2.432   9.750   4.115 -1.0242 -0.1615  0.2051
56470SOL    HW178188   2.516   9.732   4.071 -0.8700 -0.5350  0.6423
56470SOL    HW278189   2.382   9.799   4.050 -0.4451  0.1219 -0.0444
56471SOL     OW78190  12.314  10.268   3.452 -0.2375  0.4532 -0.1064
56471SOL    HW178191  12.371  10.208   3.500 -0.4112  0.5226  0.1846
56471SOL    HW278192  12.233  10.272   3.503  0.5569  2.6600  1.1060
56472SOL     OW78193  10.077   5.365   9.522  0.0470  0.3751  0.2012
56472SOL    HW178194   9.985   5.350   9.501  0.3143 -0.3683 -0.4928
56472SOL    HW278195  10.117   5.279   9.516  0.8777  0.7631  0.0623
56473SOL     OW78196   4.258   9.313   4.409  0.3638 -0.1807 -0.1146
56473SOL    HW178197   4.218   9.325   4.323 -2.6189 -0.3051  1.1154
56473SOL    HW278198   4.306   9.231   4.402  2.3709  1.0622 -2.3031
56474SOL     OW78199  11.331   6.455   4.810 -0.1189  0.4105  0.2308
56474SOL    HW178200  11.332   6.367   4.845 -1.0042  0.6711  0.9437
56474SOL    HW278201  11.421   6.487   4.820  0.2042 -0.3930 -0.0368
56475SOL     OW78202   5.095   7.343   3.572  0.4805 -0.0802  0.7498
56475SOL    HW178203   5.039   7.397   3.516  2.2072  0.7910 -0.1995
56475SOL    HW278204   5.053   7.257   3.571 -0.6985  0.4725 -0.1353
56476SOL     OW78205   1.090   3.130   4.126  0.3995 -0.7444 -0.0694
56476SOL    HW178206   1.128   3.146   4.213 -0.6512 -0.8022  0.4193
56476SOL    HW278207   1.119   3.205   4.073  0.9087 -0.6183  0.3751
56477SOL     OW78208   6.099   0.119   2.850 -0.8745 -0.2221 -0.2290
56477SOL    HW178209   6.084   0.211   2.871  1.0169 -0.0836  0.7318
56477SOL    HW278210   6.118   0.078   2.934 -0.8140 -1.3059 -0.7530
56478SOL     OW78211  10.159   1.742  10.822 -0.0044 -0.2395  0.1927
56478SOL    HW178212  10.229   1.680  10.801  0.2443  0.4387 -1.0574
56478SOL    HW278213  10.107   1.698  10.889  1.0510 -1.1589  0.4314
56479SOL     OW78214   7.375   9.193   1.849  0.3215  0.1252 -0.0847
56479SOL    HW178215   7.370   9.098   1.863  0.5810  0.1393  0.1031
56479SOL    HW278216   7.340   9.206   1.761  0.2383 -0.1415 -0.0910
56480SOL     OW78217   6.622   1.977   3.723  0.6633  0.5249 -0.5116
56480SOL    HW178218   6.706   2.002   3.683  0.2655  0.9399 -1.1039
56480SOL    HW278219   6.571   1.942   3.650 -0.4557  2.2241 -0.5848
56481SOL     OW78220   1.288   2.967   2.689  0.3007 -0.1589 -0.2987
56481SOL    HW178221   1.325   3.054   2.709 -3.8156  1.4962  1.1980
56481SOL    HW278222   1.328   2.909   2.754  0.2442  1.5106  1.3258
56482SOL     OW78223   0.775   0.491  10.755  0.3604 -0.0584  0.0894
56482SOL    HW178224   0.865   0.492  10.721  0.7128 -1.4067  0.9085
56482SOL    HW278225   0.776   0.552  10.829  1.0684 -1.3537  1.1735
56483SOL     OW78226   2.474   9.880   0.162  0.4256  0.1941  0.5692
56483SOL    HW178227   2.538   9.920   0.222 -0.7972  1.1503  1.2692
56483SOL    HW278228   2.411   9.836   0.219  0.5683 -0.9656 -0.1244
56484SOL     OW78229   2.783   0.220  11.484 -0.1270  0.2108 -0.4969
56484SOL    HW178230   2.845   0.280  11.443  0.9249 -0.3407  0.2277
56484SOL    HW278231   2.697   0.250  11.455  0.5457 -0.1484 -3.0641
56485SOL     OW78232   2.854   3.545  10.632  0.1316  0.0219  0.1925
56485SOL    HW178233   2.865   3.632  10.595  3.5807 -0.2976  0.1944
56485SOL    HW278234   2.939   3.524  10.670 -1.2074 -2.5333  2.0524
56486SOL     OW78235   1.477  11.765   6.727  0.6753 -0.2340  0.0253
56486SOL    HW178236   1.409  11.801   6.784  1.3252  2.8107 -0.9173
56486SOL    HW278237   1.432  11.697   6.677 -1.4993  1.1072  0.0118
56487SOL     OW78238  11.720   2.932   3.477  0.0748  0.2326 -0.2961
56487SOL    HW178239  11.695   3.024   3.467 -0.6886  0.1209  0.4796
56487SOL    HW278240  11.807   2.935   3.518 -0.9526  0.6280  2.0031
56488SOL     OW78241   5.253   4.059   5.272  0.1861 -0.1000  0.0775
56488SOL    HW178242   5.296   3.977   5.299 -0.0954  0.1406  1.3101
56488SOL    HW278243   5.252   4.054   5.176  2.1570 -0.5222  0.0249
56489SOL     OW78244   9.017   4.962   9.009  0.4679  0.4570 -0.1784
56489SOL    HW178245   9.010   4.949   8.915  0.8071  0.2360 -0.1760
56489SOL    HW278246   8.981   5.049   9.025  1.1226  0.8129 -0.6107
56490SOL     OW78247   5.736  10.999   7.467  0.2057  0.7099 -0.5007
56490SOL    HW178248   5.742  11.038   7.554 -0.9206 -0.7156  0.2583
56490SOL    HW278249   5.734  10.905   7.483 -1.1002  0.4388 -1.9660
56491SOL     OW78250   2.462   2.805  10.436  0.3432 -0.1797 -0.5231
56491SOL    HW178251   2.431   2.895  10.437  0.0276 -0.2698  0.9447
56491SOL    HW278252   2.386   2.753  10.464  0.9831 -0.7131  0.2720
56492SOL     OW78253   6.221   3.659   1.705 -0.0623 -0.0905  0.1969
56492SOL    HW178254   6.305   3.613   1.702  0.1128  0.2631 -0.7414
56492SOL    HW278255   6.245   3.751   1.717 -0.2102  0.2209 -1.5955
56493SOL     OW78256   4.567   5.117  10.485  0.0292  0.7084  0.1818
56493SOL    HW178257   4.508   5.044  10.471  0.0933  0.7948 -0.5484
56493SOL    HW278258   4.523   5.171  10.551 -0.4375  0.4837  0.0562
56494SOL     OW78259   6.750  10.681   8.116  0.7081 -0.3691  0.6157
56494SOL    HW178260   6.828  10.732   8.140  2.1529 -2.6061  0.9158
56494SOL    HW278261   6.760  10.667   8.022  0.2829 -0.0552  0.5237
56495SOL     OW78262   6.906  12.404   7.289 -0.5479 -0.1941  0.4012
56495SOL    HW178263   6.879  12.462   7.360 -3.3570  0.2233 -0.8516
56495SOL    HW278264   6.889  12.455   7.209 -0.1213 -1.6201 -0.6460
56496SOL     OW78265  12.168  11.196   7.152 -0.0125 -0.2404 -0.3952
56496SOL    HW178266  12.197  11.249   7.227 -0.2181  1.1957 -1.2890
56496SOL    HW278267  12.213  11.112   7.163  3.9889  1.5526 -1.3017
56497SOL     OW78268   8.470   7.315   4.282  0.0791  0.1117  0.7518
56497SOL    HW178269   8.428   7.263   4.213 -0.5658  0.9948  0.4668
56497SOL    HW278270   8.527   7.376   4.234  1.1827 -0.6055  1.1027
56498SOL     OW78271   5.881   4.769   2.324 -0.0709  0.1461  0.2997
56498SOL    HW178272   5.807   4.714   2.349 -1.5193  1.9512  0.2322
56498SOL    HW278273   5.943   4.709   2.283 -1.6710 -1.3930  0.0110
56499SOL     OW78274   6.802   7.345   3.646 -0.1645  0.3938  0.3520
56499SOL    HW178275   6.754   7.264   3.664 -1.3372  1.3498  1.7328
56499SOL    HW278276   6.745   7.393   3.585  0.6164  0.1292 -0.6190
56500SOL     OW78277   7.168   4.614   7.974 -0.5223 -1.0291 -0.1386
56500SOL    HW178278   7.244   4.614   8.031 -0.2304  0.3130 -0.4989
56500SOL    HW278279   7.177   4.534   7.922  0.7014 -0.8239 -0.2600
56501SOL     OW78280   9.577   2.040  12.247 -0.6693 -0.2976 -0.3153
56501SOL    HW178281   9.601   2.129  12.221 -1.6018 -0.0627 -0.4302
56501SOL    HW278282   9.536   2.003  12.168 -0.6867 -0.6709 -0.1327
56502SOL     OW78283   2.093   2.500   1.955  0.1394 -0.4478 -0.1531
56502SOL    HW178284   2.041   2.556   2.013  0.0347 -0.1793 -0.4981
56502SOL    HW278285   2.029   2.440   1.917  0.2355 -0.7352  0.1380
56503SOL     OW78286   2.797   1.384   3.730 -0.5472 -0.0023  0.0998
56503SOL    HW178287   2.813   1.466   3.683  1.9771 -0.6463 -0.3208
56503SOL    HW278288   2.723   1.344   3.684 -1.6847  1.8693  0.1677
56504SOL     OW78289   8.174   6.108   6.769 -0.3772  0.5098  0.1777
56504SOL    HW178290   8.232   6.115   6.845 -0.1431 -0.0861  0.0589
56504SOL    HW278291   8.178   6.195   6.728  0.8661  0.3149 -0.1442
56505SOL     OW78292   9.592   7.877  12.477 -0.3440  0.4664 -0.2604
56505SOL    HW178293   9.603   7.795  12.525 -3.0779 -0.6968 -1.4441
56505SOL    HW278294   9.557   7.938  12.541 -2.4607 -0.6162 -0.3098
56506SOL     OW78295   9.439   8.207   1.140 -0.2005 -0.4946  0.2371
56506SOL    HW178296   9.388   8.140   1.187  0.0451 -0.4204  0.6134
56506SOL    HW278297   9.526   8.169   1.133  0.1944  0.1741  1.2923
56507SOL     OW78298   8.001   9.961   0.181  0.7988 -0.0492  0.3018
56507SOL    HW178299   8.085   9.971   0.225  0.4844  0.8493  0.7275
56507SOL    HW278300   7.937   9.998   0.243  0.1599 -0.2675 -0.2209
56508SOL     OW78301   5.731   8.523   4.133 -0.0374  0.0072 -0.3389
56508SOL    HW178302   5.643   8.544   4.102 -0.1287  0.6103  0.3065
56508SOL    HW278303   5.786   8.596   4.103  0.9048 -1.8276 -3.4514
56509SOL     OW78304   6.941   5.388   5.261  0.0179 -0.7361  0.2410
56509SOL    HW178305   6.939   5.321   5.193  1.1149 -0.4826 -0.0699
56509SOL    HW278306   7.001   5.455   5.227 -1.5068  0.7201  0.2817
56510SOL     OW78307   8.448   0.293   3.443  0.3275  0.0070 -0.5840
56510SOL    HW178308   8.378   0.355   3.467  0.2966 -0.4344  0.5484
56510SOL    HW278309   8.458   0.303   3.349  0.4562  1.8880 -0.4155
56511SOL     OW78310   3.739   6.442   9.502  0.5004 -0.6939 -0.1870
56511SOL    HW178311   3.806   6.402   9.446  0.7834 -0.2551 -0.1755
56511SOL    HW278312   3.657   6.402   9.475  0.7082 -0.8822 -0.5451
56512SOL     OW78313  10.829   5.555  10.865 -0.5303 -0.2974  0.1470
56512SOL    HW178314  10.772   5.598  10.929 -0.0874 -0.6755  0.8179
56512SOL    HW278315  10.901   5.521  10.918 -0.0170 -0.3907 -0.6004
56513SOL     OW78316   9.058   3.849   0.994  0.5144  0.0425 -0.3749
56513SOL    HW178317   8.978   3.876   1.039  1.0701  1.2043 -0.0623
56513SOL    HW278318   9.100   3.930   0.968 -0.1774 -0.5494 -3.7854
56514SOL     OW78319  12.321  10.343   4.311 -0.0302  0.2796 -0.6283
56514SOL    HW178320  12.391  10.279   4.321  0.4458  0.7409 -0.9655
56514SOL    HW278321  12.353  10.421   4.355 -0.8035  0.1593  0.1900
56515SOL     OW78322  10.200   0.643  11.054  0.2687 -0.1699 -0.3056
56515SOL    HW178323  10.131   0.599  11.004  0.1495 -1.1563  0.6969
56515SOL    HW278324  10.212   0.588  11.132  2.0664  0.0777 -0.3723
56516SOL     OW78325  10.794   3.617   2.982 -0.4426 -0.0641  0.5827
56516SOL    HW178326  10.729   3.678   2.948 -3.0605 -2.3910  0.9924
56516SOL    HW278327  10.744   3.559   3.040  1.8748 -2.4333  0.3916
56517SOL     OW78328  10.349   4.595   7.635  0.1235 -0.4520  0.0764
56517SOL    HW178329  10.338   4.505   7.606 -0.1216  0.2630 -2.2050
56517SOL    HW278330  10.364   4.645   7.555  1.0038  1.4445  1.3469
56518SOL     OW78331   3.350   5.662   1.694 -0.6502  0.3601  0.5106
56518SOL    HW178332   3.337   5.714   1.614 -0.0003 -0.9005 -0.4496
56518SOL    HW278333   3.444   5.665   1.709 -0.6094 -0.5126  0.4577
56519SOL     OW78334   1.067   7.262   6.979 -0.2161  0.1312  0.5164
56519SOL    HW178335   1.081   7.246   6.886  0.8494 -0.6215  0.7810
56519SOL    HW278336   1.038   7.177   7.014 -1.3917  0.6075  0.7439
56520SOL     OW78337   7.571   2.837  10.910 -0.0859  0.3543 -0.0560
56520SOL    HW178338   7.568   2.915  10.965 -0.7465 -0.4324  1.0708
56520SOL    HW278339   7.652   2.793  10.935 -0.1140  0.2701 -0.1151
56521SOL     OW78340   0.191  11.977   4.229  0.5342 -0.5413  0.0111
56521SOL    HW178341   0.267  12.032   4.207  0.4533 -0.8176 -0.9989
56521SOL    HW278342   0.129  12.037   4.270 -0.5434  0.7504 -3.1455
56522SOL     OW78343   6.136   3.775   3.121 -0.4344  0.0661  0.0369
56522SOL    HW178344   6.115   3.838   3.052 -1.2524 -0.3210 -0.0800
56522SOL    HW278345   6.231   3.762   3.114 -0.2252  1.3927  0.1699
56523SOL     OW78346  11.129   5.046  10.544  0.2215  0.8251  0.3717
56523SOL    HW178347  11.198   5.021  10.605  0.0503  0.1422  0.2852
56523SOL    HW278348  11.084   5.119  10.588  2.4278  2.8782 -0.5707
56524SOL     OW78349   8.726   8.551  11.325 -0.3086 -0.4340 -0.3990
56524SOL    HW178350   8.783   8.493  11.375 -2.1590 -0.2393  2.0714
56524SOL    HW278351   8.674   8.493  11.270 -1.7451 -1.1430  1.6278
56525SOL     OW78352   7.406   6.032   3.059 -0.4144 -0.3217  0.7396
56525SOL    HW178353   7.419   6.020   3.153  1.3264 -2.2266  0.3250
56525SOL    HW278354   7.492   6.054   3.025 -0.7406 -0.9641 -0.5728
56526SOL     OW78355   6.691  10.086   0.196 -0.2721 -0.5570  0.0331
56526SOL    HW178356   6.603  10.084   0.157 -0.1853 -0.5789 -0.1654
56526SOL    HW278357   6.729  10.168   0.166 -0.8565  0.3021  1.5462
56527SOL     OW78358  11.156  10.598  10.512  0.6157  0.4660  0.5191
56527SOL    HW178359  11.072  10.576  10.552  0.2414  1.5827  0.3693
56527SOL    HW278360  11.162  10.539  10.436 -0.5916  1.1888 -0.1598
56528SOL     OW78361   1.417   7.057   7.271  0.3068 -0.2185  0.1818
56528SOL    HW178362   1.379   7.127   7.325  0.3103 -1.5909  2.0675
56528SOL    HW278363   1.493   7.027   7.321  2.1871  0.4593 -2.0983
56529SOL     OW78364   4.801  10.638   7.897 -0.0034  0.1535 -0.1491
56529SOL    HW178365   4.779  10.555   7.854  0.5677 -0.4937  0.7860
56529SOL    HW278366   4.728  10.654   7.957  0.0389  0.1840 -0.1063
56530SOL     OW78367   2.906   5.455   4.540  0.1710 -0.1667 -0.0564
56530SOL    HW178368   2.817   5.453   4.505 -0.2832 -1.5062  1.0948
56530SOL    HW278369   2.939   5.542   4.518 -0.9070 -0.1337 -1.7208
56531SOL     OW78370  12.473   2.803   5.168  0.1009  0.1611  0.0184
56531SOL    HW178371  12.452   2.714   5.141 -0.4850  1.0187 -2.6665
56531SOL    HW278372  12.558   2.821   5.128  0.7213  0.4783  1.4323
56532SOL     OW78373   0.974   7.298   4.922  0.1419  0.0897 -0.2448
56532SOL    HW178374   1.064   7.297   4.955  0.9049  0.5721 -2.1519
56532SOL    HW278375   0.945   7.207   4.928  1.6584 -0.5607 -1.7541
56533SOL     OW78376   2.279   7.762   3.449  0.6692 -0.1680  0.6597
56533SOL    HW178377   2.219   7.803   3.511  0.8699  0.1855  0.6284
56533SOL    HW278378   2.250   7.671   3.443 -0.2628  0.1502  0.1464
56534SOL     OW78379   7.514   6.489   5.731 -0.0292 -0.0396  0.9199
56534SOL    HW178380   7.560   6.442   5.661 -0.0568  0.6785  0.4091
56534SOL    HW278381   7.549   6.578   5.727 -1.0490  0.3742  0.8901
56535SOL     OW78382   1.418   0.489   3.122  0.6932  0.2208 -0.0709
56535SOL    HW178383   1.408   0.398   3.151  4.1108 -0.0469  0.7154
56535SOL    HW278384   1.334   0.530   3.142  0.2741 -1.8466  3.2068
56536SOL     OW78385  10.349  11.479   4.761  0.0671 -0.1361  0.2639
56536SOL    HW178386  10.435  11.439   4.758  0.2985  0.2693  1.0097
56536SOL    HW278387  10.302  11.444   4.686  1.4998  1.0482 -1.2510
56537SOL     OW78388   5.286   8.723   3.864 -0.2913  0.1513  0.4073
56537SOL    HW178389   5.268   8.817   3.875 -1.4304  0.0524 -0.4484
56537SOL    HW278390   5.258   8.704   3.775  0.5306 -0.8801  0.3559
56538SOL     OW78391  11.261  10.295   1.791 -0.1371 -0.7817  0.2828
56538SOL    HW178392  11.241  10.367   1.732  1.0220  1.4043  2.3575
56538SOL    HW278393  11.203  10.224   1.764 -1.5346  1.0021 -1.7101
56539SOL     OW78394   4.067   5.130   8.233 -0.3913 -0.5477  0.7480
56539SOL    HW178395   4.152   5.174   8.230  0.3050 -1.8699  0.1398
56539SOL    HW278396   4.083   5.050   8.283 -0.6612 -1.9726 -1.3248
56540SOL     OW78397   6.217   8.144  10.277  0.1706 -1.0417 -0.3054
56540SOL    HW178398   6.129   8.176  10.258  0.1442 -0.9581 -0.0392
56540SOL    HW278399   6.268   8.167  10.199  0.1912 -0.2025 -0.0549
56541SOL     OW78400   0.945   2.370   7.801  0.1216  0.8455 -0.0788
56541SOL    HW178401   0.923   2.291   7.851 -0.7860  0.7286 -0.6243
56541SOL    HW278402   0.907   2.354   7.714  1.6821  1.0308 -0.8154
56542SOL     OW78403   2.383   7.663   1.676  0.5563  0.0693  0.2229
56542SOL    HW178404   2.308   7.646   1.620  0.4279 -2.2026  0.9608
56542SOL    HW278405   2.457   7.623   1.630  0.8856  0.3210  0.5310
56543SOL     OW78406   4.164   3.928  10.210 -0.0575  0.4077 -0.2335
56543SOL    HW178407   4.080   3.883  10.204 -1.2682  2.3928  0.6764
56543SOL    HW278408   4.210   3.884  10.281 -0.0042 -1.1281 -1.1717
56544SOL     OW78409   8.360  10.580   3.830 -0.0316 -0.1013 -0.3415
56544SOL    HW178410   8.434  10.566   3.888 -0.6069 -2.0041  0.0214
56544SOL    HW278411   8.399  10.615   3.750  0.8523  1.8833  0.8742
56545SOL     OW78412   6.911  11.101   4.085  0.5328  0.4393  0.8263
56545SOL    HW178413   6.979  11.083   4.021 -1.3507  0.1841 -1.2357
56545SOL    HW278414   6.836  11.048   4.057 -0.2196 -0.1386  3.6113
56546SOL     OW78415   5.346  10.031  10.724  0.5680 -0.6308 -0.4506
56546SOL    HW178416   5.273  10.092  10.713  0.4553 -0.8172 -0.7159
56546SOL    HW278417   5.305   9.948  10.746  0.7187 -0.6449 -0.2158
56547SOL     OW78418   7.901   2.552   6.903  0.1910  0.3044 -0.0145
56547SOL    HW178419   7.939   2.466   6.915 -0.9546 -0.0380  1.4526
56547SOL    HW278420   7.810   2.535   6.876  0.1937  1.0613 -0.5541
56548SOL     OW78421  10.556  11.341   0.038 -0.4488 -0.1315  0.0481
56548SOL    HW178422  10.554  11.427   0.081 -1.2506 -0.0088 -0.2084
56548SOL    HW278423  10.470  11.334  -0.004 -0.0666 -0.6813 -0.6703
56549SOL     OW78424   9.510   4.003   1.386 -0.2201  0.2268  0.4502
56549SOL    HW178425   9.453   4.075   1.360 -2.4813 -2.4843 -2.9946
56549SOL    HW278426   9.593   4.023   1.342 -0.8515  0.7121 -0.5897
56550SOL     OW78427   7.122   1.098   4.925 -0.2094 -0.4554  0.4922
56550SOL    HW178428   7.133   1.157   4.851 -1.5302 -0.5057  0.2267
56550SOL    HW278429   7.029   1.077   4.925  0.1783 -2.3510  0.7159
56551SOL     OW78430   5.333   7.979  10.768  0.0495 -0.1945 -0.0447
56551SOL    HW178431   5.245   7.985  10.806  0.0442 -0.0768 -0.0778
56551SOL    HW278432   5.362   7.890  10.790 -0.5977 -0.7072 -1.1799
56552SOL     OW78433   6.172   4.442   6.346 -0.5393  0.0790  0.4203
56552SOL    HW178434   6.139   4.411   6.262 -1.4299 -0.2004  0.8627
56552SOL    HW278435   6.112   4.511   6.372 -0.1869  0.2587  0.7608
56553SOL     OW78436   1.295   3.569   0.925  0.5727  0.1691 -0.1820
56553SOL    HW178437   1.360   3.623   0.879 -0.9296  1.3079 -1.0802
56553SOL    HW278438   1.254   3.629   0.987  0.5762 -0.6209  0.6041
56554SOL     OW78439   8.125   7.719   0.020  1.2415 -0.0691 -0.2859
56554SOL    HW178440   8.050   7.666  -0.006  0.5710  0.9656 -0.5240
56554SOL    HW278441   8.130   7.708   0.115  1.2364 -0.7102 -0.3556
56555SOL     OW78442   0.671   2.706   5.872  0.2104  0.0851 -0.0700
56555SOL    HW178443   0.687   2.681   5.781  1.0908  0.9955 -0.1803
56555SOL    HW278444   0.702   2.631   5.923 -1.2860 -0.8896 -0.5271
56556SOL     OW78445   4.787   6.979   8.563 -0.1602  0.3275 -0.3989
56556SOL    HW178446   4.847   6.905   8.549  2.1223  2.1313 -0.6366
56556SOL    HW278447   4.841   7.047   8.603 -2.6080  1.3079  1.5315
56557SOL     OW78448  10.763  10.033   4.373 -0.5814 -0.0193 -0.2191
56557SOL    HW178449  10.807   9.996   4.450  0.6884  4.5527  1.5850
56557SOL    HW278450  10.670  10.023   4.392 -0.2942  0.3084  1.5877
56558SOL     OW78451   3.627   9.581  10.360  0.1293  0.2334  0.2216
56558SOL    HW178452   3.670   9.500  10.389  0.7598  0.8582  1.1025
56558SOL    HW278453   3.687   9.619  10.296  0.7949  0.9530  1.2294
56559SOL     OW78454   4.243   9.993   8.025 -0.3028 -0.0294  0.5397
56559SOL    HW178455   4.333   9.969   8.048  0.9468  4.0158  0.7008
56559SOL    HW278456   4.249  10.027   7.936 -0.7541  3.4072  1.6356
56560SOL     OW78457   6.724   4.226   1.242  0.5710  0.0595 -0.3801
56560SOL    HW178458   6.651   4.164   1.234  2.0538 -1.8926  0.3135
56560SOL    HW278459   6.740   4.256   1.153 -0.1263 -0.6307 -0.7518
56561SOL     OW78460   7.470   5.111   0.694  0.0648 -0.1612 -0.3632
56561SOL    HW178461   7.415   5.070   0.627 -0.8335 -0.1894  0.3688
56561SOL    HW278462   7.483   5.201   0.662  0.9528 -0.5965 -1.3233
56562SOL     OW78463   2.779   8.507  12.223  0.7327 -0.1515  0.1750
56562SOL    HW178464   2.840   8.571  12.259  0.8480 -0.3415  0.3182
56562SOL    HW278465   2.753   8.544  12.138 -0.7198  1.0699  1.0822
56563SOL     OW78466  11.928   9.810   5.067 -0.6591  0.1353 -0.3912
56563SOL    HW178467  11.977   9.885   5.032 -0.9757  0.4141 -0.2390
56563SOL    HW278468  11.920   9.750   4.993  0.3039 -0.1188 -0.3028
56564SOL     OW78469   7.415  10.983   2.039 -0.4319 -0.1894 -0.2884
56564SOL    HW178470   7.437  10.900   1.995  2.3642  0.6073 -0.6240
56564SOL    HW278471   7.413  11.048   1.969 -1.5288  0.2331  0.1109
56565SOL     OW78472  12.121  11.001   7.818 -0.5881  0.2987 -0.0323
56565SOL    HW178473  12.041  11.018   7.769  0.1006  0.8000 -1.0191
56565SOL    HW278474  12.119  10.907   7.838 -0.8061  0.0453 -1.1840
56566SOL     OW78475  11.015   2.217  11.159  0.3987  0.0607  0.6905
56566SOL    HW178476  10.955   2.164  11.211  1.9775 -2.2398  0.3413
56566SOL    HW278477  11.006   2.305  11.193 -1.9607 -0.5101  1.7040
56567SOL     OW78478   7.420   0.503  10.416  0.7503  0.4466  0.0113
56567SOL    HW178479   7.374   0.458  10.346  1.2281  0.3735 -0.2581
56567SOL    HW278480   7.407   0.447  10.493  0.9856  0.0669 -0.2228
56568SOL     OW78481   8.761   3.332   3.124  0.0695  0.0885  0.2368
56568SOL    HW178482   8.707   3.253   3.125  1.1457 -0.6615  0.6507
56568SOL    HW278483   8.698   3.404   3.118 -0.9207 -0.7980 -0.4423
56569SOL     OW78484   9.804   4.044   6.574 -0.1703 -0.0423  0.1836
56569SOL    HW178485   9.868   4.091   6.629  0.8782 -0.4229 -0.6729
56569SOL    HW278486   9.742   4.111   6.546 -0.5293  0.2203  1.5371
56570SOL     OW78487   4.731   2.900   8.681  0.7818  0.4990 -0.0155
56570SOL    HW178488   4.719   2.995   8.684  3.3604  0.8586  0.7997
56570SOL    HW278489   4.823   2.886   8.702  0.2345 -2.2693  0.9499
56571SOL     OW78490   6.934   0.048   9.638  0.3608 -0.2539  0.8635
56571SOL    HW178491   6.897  -0.026   9.687  0.5300  0.7781  2.6484
56571SOL    HW278492   6.941   0.118   9.703  0.4673  1.2533 -0.7102
56572SOL     OW78493   6.965   3.267   2.612  0.0577  0.6393 -0.1223
56572SOL    HW178494   7.055   3.284   2.585 -0.1837  0.5077 -1.0482
56572SOL    HW278495   6.912   3.286   2.535 -0.6178 -0.2267  0.0982
56573SOL     OW78496   1.689   1.219   8.986 -0.2444 -0.3431 -0.4600
56573SOL    HW178497   1.685   1.282   9.058  1.5369 -0.6860  0.0033
56573SOL    HW278498   1.752   1.258   8.924 -1.0823 -0.4732 -1.4289
56574SOL     OW78499   7.736   0.732   5.202 -0.1521 -0.1798  0.5559
56574SOL    HW178500   7.720   0.826   5.200 -0.1582 -0.1688  1.2177
56574SOL    HW278501   7.789   0.716   5.124  2.9093  0.9325  2.2402
56575SOL     OW78502   1.723   7.230   5.953  0.5061  0.2178 -0.2774
56575SOL    HW178503   1.738   7.138   5.974 -0.0120  0.7776  3.1820
56575SOL    HW278504   1.631   7.233   5.926 -0.3408 -0.0123  2.3162
56576SOL     OW78505   7.394   4.902  10.297  0.2865  0.0874 -0.2954
56576SOL    HW178506   7.466   4.879  10.238  1.1348 -0.7950  1.0374
56576SOL    HW278507   7.386   4.997  10.289  1.5072  0.1795 -0.5653
56577SOL     OW78508   4.751   7.583  11.584  0.4417 -0.0533 -0.3544
56577SOL    HW178509   4.740   7.634  11.665 -0.3663 -1.6996  0.6189
56577SOL    HW278510   4.744   7.492  11.611 -0.9687 -0.6522 -2.4132
56578SOL     OW78511   5.473  11.989   9.798 -0.1388  0.6360 -0.4225
56578SOL    HW178512   5.465  12.053   9.727 -1.2219 -0.5685 -1.4365
56578SOL    HW278513   5.392  11.937   9.793  0.5183 -0.5452  0.6134
56579SOL     OW78514   9.336   6.674  11.644 -0.5277  0.2519  0.0240
56579SOL    HW178515   9.417   6.722  11.629 -0.8693  0.9634  0.3384
56579SOL    HW278516   9.346   6.637  11.732  0.3218 -1.5106 -0.7707
56580SOL     OW78517  11.893   7.412   9.398 -0.1225  0.2601 -0.1986
56580SOL    HW178518  11.860   7.349   9.462 -1.9886  0.3456 -1.0146
56580SOL    HW278519  11.835   7.401   9.322  1.0186  1.2910 -1.2513
56581SOL     OW78520  11.047   8.378  10.747 -0.1374  0.2482 -0.3367
56581SOL    HW178521  10.953   8.386  10.728 -0.2434  2.0453  0.6402
56581SOL    HW278522  11.066   8.285  10.738 -2.6532 -0.6586  2.0756
56582SOL     OW78523   2.708   8.710   3.899  0.2493 -0.5198  0.2656
56582SOL    HW178524   2.675   8.727   3.987 -0.8871  1.4755 -0.4945
56582SOL    HW278525   2.795   8.750   3.898 -0.4484  1.0460 -0.0209
56583SOL     OW78526   7.507   0.661   8.951 -0.2291 -0.4092 -0.1019
56583SOL    HW178527   7.515   0.739   9.005 -0.5821 -0.8227  0.5587
56583SOL    HW278528   7.536   0.689   8.864  2.6529 -0.3389  0.7925
56584SOL     OW78529   7.555   6.056   6.735 -0.7974  0.1990  0.2941
56584SOL    HW178530   7.594   6.085   6.653  0.2790 -0.4664  0.5438
56584SOL    HW278531   7.480   6.114   6.749 -2.7223 -1.3370 -2.5345
56585SOL     OW78532   1.119  10.742   0.959 -0.2193  0.1613 -0.3380
56585SOL    HW178533   1.142  10.835   0.951  1.0982 -0.2724 -2.9738
56585SOL    HW278534   1.100  10.715   0.869 -2.1590 -1.7878  0.5748
56586SOL     OW78535   6.931   0.410   7.537 -0.0374 -0.2277 -0.4069
56586SOL    HW178536   6.885   0.487   7.570 -2.2726 -0.3361 -2.9694
56586SOL    HW278537   7.017   0.414   7.579 -1.2562  1.7195  2.1935
56587SOL     OW78538   2.113   7.037  10.645  0.2551 -0.0216 -0.4356
56587SOL    HW178539   2.136   6.991  10.726 -0.9598 -0.1164 -0.1214
56587SOL    HW278540   2.176   7.109  10.640 -0.0443  0.3817  0.9539
56588SOL     OW78541   9.664   5.150   0.283 -0.3031  0.1958  0.0735
56588SOL    HW178542   9.682   5.084   0.217 -0.0639 -0.8943  1.1976
56588SOL    HW278543   9.594   5.204   0.245  0.7593  0.4515 -1.6138
56589SOL     OW78544  10.559  11.160   1.889  0.1729  0.7156 -0.4926
56589SOL    HW178545  10.617  11.214   1.943 -1.4326  3.3329 -1.1987
56589SOL    HW278546  10.617  11.118   1.826  1.7056  0.1334  1.2205
56590SOL     OW78547   9.994   3.776   0.536 -0.1650  0.5114 -0.3315
56590SOL    HW178548  10.068   3.724   0.568 -1.2725 -1.2806 -0.5807
56590SOL    HW278549   9.955   3.814   0.615 -0.9676 -1.2967  0.1937
56591SOL     OW78550   7.229   7.498  10.648 -0.2460  0.3421 -0.5223
56591SOL    HW178551   7.225   7.580  10.698  0.8085 -0.2274  0.5749
56591SOL    HW278552   7.247   7.525  10.558  1.1886  1.3075  0.0103
56592SOL     OW78553   7.135   1.355   9.219 -0.4122  0.5391 -0.2231
56592SOL    HW178554   7.094   1.295   9.281  1.9847  0.3976  1.3324
56592SOL    HW278555   7.199   1.301   9.173  1.0525  1.6447  0.4624
56593SOL     OW78556   2.675   6.383   9.735 -0.1564  0.0706 -0.3353
56593SOL    HW178557   2.583   6.369   9.712  0.2429 -0.6441 -1.5511
56593SOL    HW278558   2.692   6.474   9.711 -0.0010 -0.3905 -2.1104
56594SOL     OW78559   9.881   9.242   2.041  0.0555  0.3650 -0.4686
56594SOL    HW178560   9.809   9.292   2.002 -0.4424 -1.2190 -1.7000
56594SOL    HW278561   9.839   9.166   2.080  0.8386  0.6666  1.0084
56595SOL     OW78562   5.852   2.338   9.321 -0.1346 -0.4643 -0.0294
56595SOL    HW178563   5.906   2.407   9.360 -1.0452  1.0474 -1.3395
56595SOL    HW278564   5.915   2.279   9.279  0.5735  0.4369 -0.2571
56596SOL     OW78565   2.397   6.192   3.236  0.1745 -0.0890  0.3835
56596SOL    HW178566   2.343   6.207   3.313 -0.8546  1.2779 -0.5615
56596SOL    HW278567   2.426   6.279   3.209  1.9386 -0.6937  0.1915
56597SOL     OW78568   2.436   5.241  10.679 -0.6302 -0.7971  0.5317
56597SOL    HW178569   2.354   5.207  10.643 -1.6266 -0.0498  1.9789
56597SOL    HW278570   2.456   5.183  10.752  0.2674 -1.0933  0.0682
56598SOL     OW78571   4.989  11.875  10.642 -0.2103  0.0001 -0.0205
56598SOL    HW178572   5.013  11.965  10.663  1.5830 -0.1706 -1.1224
56598SOL    HW278573   4.935  11.847  10.716  0.5350  1.4495  1.1336
56599SOL     OW78574   5.204  11.521  10.358  1.0989 -0.2669  0.6745
56599SOL    HW178575   5.287  11.560  10.332  1.7049 -0.9310  1.5293
56599SOL    HW278576   5.173  11.575  10.431  0.8530 -0.1043  0.4498
56600SOL     OW78577  10.970  11.418   5.145 -0.0515  0.0428 -0.1863
56600SOL    HW178578  10.994  11.369   5.067  0.1663  0.3938 -0.3439
56600SOL    HW278579  10.998  11.508   5.126 -1.0110  0.3650 -0.1710
56601SOL     OW78580   2.950   7.956   9.636 -0.1869  0.0767  0.1162
56601SOL    HW178581   3.016   7.989   9.574  0.8550 -1.9856  0.0322
56601SOL    HW278582   2.899   7.893   9.585 -1.0208  0.2787  0.6889
56602SOL     OW78583  12.340   5.119  10.057  0.4369  0.6244 -0.1724
56602SOL    HW178584  12.300   5.180   9.995  0.4081  0.7576 -0.0212
56602SOL    HW278585  12.285   5.123  10.135 -0.2904 -0.5144 -0.5999
56603SOL     OW78586   3.349  10.978   5.384  0.4980 -0.5375 -0.2485
56603SOL    HW178587   3.346  10.992   5.478 -0.8093  0.2814 -0.3804
56603SOL    HW278588   3.330  10.885   5.372  3.6312 -1.3631  0.3904
56604SOL     OW78589   7.913  10.478   0.345  0.0828 -0.5571  0.4397
56604SOL    HW178590   7.908  10.509   0.254  0.2018 -1.6313  0.0496
56604SOL    HW278591   7.979  10.533   0.385 -0.1742  0.1221 -0.0426
56605SOL     OW78592   5.454   1.912   5.818 -0.0343  0.1061 -0.1256
56605SOL    HW178593   5.468   1.861   5.897 -2.2735 -1.5474 -0.7000
56605SOL    HW278594   5.485   2.000   5.840 -0.3085 -0.3737  2.4811
56606SOL     OW78595   3.551  11.994   0.491  0.2170  0.8557 -0.0216
56606SOL    HW178596   3.578  12.078   0.528 -0.2813  1.6903 -1.4663
56606SOL    HW278597   3.469  12.013   0.444  1.5173  0.2401 -2.7576
56607SOL     OW78598   5.728   0.490  11.775  0.6346 -0.0305 -0.4917
56607SOL    HW178599   5.650   0.435  11.785  0.7302 -0.2807 -1.0859
56607SOL    HW278600   5.697   0.579  11.792  0.2057 -0.1191 -0.7805
56608SOL     OW78601   8.889   6.240   1.092  0.1665  0.0266  0.3285
56608SOL    HW178602   8.816   6.271   1.145  0.3054 -0.6680  0.9467
56608SOL    HW278603   8.938   6.319   1.070 -0.9253  0.5264 -0.3394
56609SOL     OW78604   5.025   0.161   2.265  0.0136 -0.2791 -0.2879
56609SOL    HW178605   5.115   0.180   2.240  0.1177 -0.2943  0.0603
56609SOL    HW278606   5.034   0.097   2.336 -0.1659  1.4351  1.3630
56610SOL     OW78607  10.741   7.312   2.103 -0.3694  0.2069 -0.0386
56610SOL    HW178608  10.774   7.251   2.169 -0.8171  0.3465  0.3156
56610SOL    HW278609  10.751   7.398   2.143  1.3504  0.4912 -0.9876
56611SOL     OW78610  10.933   9.563   2.563  0.3282  0.3241  0.2996
56611SOL    HW178611  10.969   9.616   2.491  0.0803 -0.3625 -0.3470
56611SOL    HW278612  11.006   9.554   2.625  0.9240 -0.0825 -0.4407
56612SOL     OW78613  12.390   3.111  11.824  0.1806 -0.1378  0.3220
56612SOL    HW178614  12.387   3.149  11.912  0.0702 -1.1047  0.7563
56612SOL    HW278615  12.399   3.017  11.840 -0.7276 -0.4096 -0.6945
56613SOL     OW78616   2.539   3.058   3.560  0.5118 -0.1567  0.0268
56613SOL    HW178617   2.446   3.037   3.565  0.8761 -1.6143  1.6219
56613SOL    HW278618   2.558   3.060   3.466 -1.4406  1.8894 -0.4062
56614SOL     OW78619   0.591   5.226   0.072 -0.2018 -0.4268  0.3815
56614SOL    HW178620   0.591   5.153   0.135 -0.3498 -1.0844 -0.3705
56614SOL    HW278621   0.506   5.219   0.027  0.0868 -0.2331 -0.2004
56615SOL     OW78622   8.945  10.532   5.863  0.0919 -0.0090  0.0450
56615SOL    HW178623   8.920  10.440   5.877  0.2944 -0.0955 -0.1458
56615SOL    HW278624   8.863  10.580   5.865 -0.1381 -0.3378 -0.9500
56616SOL     OW78625  10.869   5.092   5.348  0.1989 -0.5075 -0.0684
56616SOL    HW178626  10.787   5.128   5.381  0.8163 -0.4087  1.4486
56616SOL    HW278627  10.879   5.008   5.394  0.5118 -0.9555 -0.9228
56617SOL     OW78628   7.152   2.419  11.892  0.3809 -0.4438 -0.3891
56617SOL    HW178629   7.224   2.357  11.877 -0.2247 -0.5111 -3.7255
56617SOL    HW278630   7.192   2.505  11.883  0.2425 -0.4752 -1.4849
56618SOL     OW78631  11.022  11.949   2.281  0.5490  0.3527 -0.3198
56618SOL    HW178632  11.046  11.857   2.288 -1.9753 -0.6433 -2.9260
56618SOL    HW278633  11.047  11.987   2.365  2.4057 -2.4898  0.5340
56619SOL     OW78634   1.546   0.201   7.262 -0.0349 -0.0711  0.1986
56619SOL    HW178635   1.480   0.143   7.224  0.7029  0.7184 -2.5372
56619SOL    HW278636   1.502   0.286   7.272 -0.6530 -0.5989  2.7050
56620SOL     OW78637  12.384   8.079  11.097  0.6041  0.3328 -0.0735
56620SOL    HW178638  12.423   8.055  11.013 -0.6386  1.1607 -0.9195
56620SOL    HW278639  12.308   8.022  11.106 -0.0415  1.1487 -0.1866
56621SOL     OW78640   1.112   0.517  11.047 -0.0540 -0.1180 -0.0905
56621SOL    HW178641   1.162   0.530  11.128 -0.0081 -0.7431 -0.0141
56621SOL    HW278642   1.044   0.583  11.050  1.2408  1.2997 -0.5754
56622SOL     OW78643  12.020   2.605   2.759  0.0672 -0.3860  0.3387
56622SOL    HW178644  11.983   2.651   2.834 -3.1441  0.7956 -1.7751
56622SOL    HW278645  11.971   2.524   2.753  1.6646 -1.4258  0.5662
56623SOL     OW78646   4.825   8.272  11.394  0.4492 -0.3901  0.0237
56623SOL    HW178647   4.819   8.177  11.388 -3.9386 -0.3804  0.4574
56623SOL    HW278648   4.796   8.304  11.309 -1.5954  0.3886  0.9230
56624SOL     OW78649   3.459   6.852   1.383 -0.3653  0.0615  0.1440
56624SOL    HW178650   3.438   6.817   1.297 -1.1596  1.3200 -0.1921
56624SOL    HW278651   3.473   6.946   1.369 -0.6456  0.3173  1.4037
56625SOL     OW78652   9.044   3.454   0.144 -0.0603  0.0310  0.2884
56625SOL    HW178653   9.067   3.527   0.086  2.1362  0.2225  1.2967
56625SOL    HW278654   9.072   3.483   0.231 -1.9891 -0.8149  1.2730
56626SOL     OW78655   9.490   9.589   8.264 -0.3869 -0.3767  0.0106
56626SOL    HW178656   9.479   9.513   8.206 -1.3521  0.3110 -0.7346
56626SOL    HW278657   9.425   9.652   8.233 -0.8109  0.0828  1.7318
56627SOL     OW78658   7.457   6.369  10.691 -0.4260 -0.2471 -0.0763
56627SOL    HW178659   7.493   6.379  10.779 -0.4029  0.5661 -0.1714
56627SOL    HW278660   7.530   6.391  10.633 -0.8839  0.7907 -0.2741
56628SOL     OW78661   5.172   6.953   2.167 -0.1383 -0.3883  0.1684
56628SOL    HW178662   5.185   7.017   2.098 -1.2283 -0.1137  0.2018
56628SOL    HW278663   5.112   6.888   2.130 -0.7761 -0.2119  0.8463
56629SOL     OW78664   5.452   2.859   3.820 -0.6089 -0.0820 -0.2607
56629SOL    HW178665   5.375   2.885   3.872  0.1991 -0.1060  1.0018
56629SOL    HW278666   5.516   2.927   3.839 -0.2303 -0.2010 -1.1082
56630SOL     OW78667   1.678   2.185   4.477 -0.2583  0.0662  0.4596
56630SOL    HW178668   1.773   2.178   4.484 -0.4045 -0.0435  3.9187
56630SOL    HW278669   1.657   2.269   4.519 -1.6686  0.5597 -1.1222
56631SOL     OW78670   4.971   7.692   3.954  0.2992 -0.5277 -0.0065
56631SOL    HW178671   4.879   7.674   3.970  0.3281 -0.8336 -0.1746
56631SOL    HW278672   4.976   7.711   3.860  0.1449  1.1763  0.2987
56632SOL     OW78673   1.884   1.279   7.937 -0.2332 -0.6361  0.2474
56632SOL    HW178674   1.904   1.295   7.845  0.7985 -1.2641  0.3489
56632SOL    HW278675   1.942   1.337   7.985 -1.9086  0.8997  0.5103
56633SOL     OW78676   4.737  12.258   7.350  0.2715  0.1625  0.5561
56633SOL    HW178677   4.746  12.333   7.408 -1.0347 -0.3505  1.4626
56633SOL    HW278678   4.772  12.184   7.399  0.8117  0.0167 -0.0232
56634SOL     OW78679  12.357  12.162   6.778  0.0851 -0.7779 -0.1461
56634SOL    HW178680  12.384  12.076   6.744  0.7777 -1.4236  1.8914
56634SOL    HW278681  12.306  12.142   6.857 -0.5061  0.6731 -0.1309
56635SOL     OW78682   9.645   3.287   6.682 -0.0235 -0.5170  0.0158
56635SOL    HW178683   9.660   3.368   6.730  1.2239  0.4965 -1.9749
56635SOL    HW278684   9.558   3.299   6.643 -0.1575 -0.4693  0.3221
56636SOL     OW78685   1.249   8.721   8.631 -0.0703 -0.3515  0.4284
56636SOL    HW178686   1.313   8.792   8.627  0.1624 -0.5307  0.9359
56636SOL    HW278687   1.179   8.755   8.686 -0.0973 -0.4070  0.4281
56637SOL     OW78688   6.061   3.635   4.066 -0.5389  0.0351 -0.1276
56637SOL    HW178689   6.099   3.722   4.072 -0.6168 -0.0158  1.2642
56637SOL    HW278690   5.974   3.650   4.028 -1.3449  0.8369  1.8924
56638SOL     OW78691  11.227  11.063   4.111 -0.1744 -0.1184 -0.4015
56638SOL    HW178692  11.274  11.064   4.028  0.5733  1.1923  0.0003
56638SOL    HW278693  11.295  11.047   4.177 -0.6404 -0.4103  0.0223
56639SOL     OW78694   7.615   9.691  11.202  0.1311  0.2504 -0.3532
56639SOL    HW178695   7.552   9.710  11.271  0.0230  0.1289 -0.4179
56639SOL    HW278696   7.563   9.647  11.134  0.6283 -1.5072  0.3553
56640SOL     OW78697   4.870  11.093  11.386 -0.8962  0.2700  0.1834
56640SOL    HW178698   4.865  11.186  11.365 -1.7597  0.0117 -0.8354
56640SOL    HW278699   4.950  11.084  11.436  0.2835  1.2490 -1.4334
56641SOL     OW78700   7.510  12.204   9.518  0.1774  0.4125 -0.2898
56641SOL    HW178701   7.435  12.156   9.484  0.6480 -0.6871  0.1682
56641SOL    HW278702   7.474  12.263   9.583 -0.7134  2.3558 -2.4173
56642SOL     OW78703  12.072   1.929   0.585  0.0285 -0.3021 -0.0324
56642SOL    HW178704  12.106   1.848   0.622  0.1686 -0.3772 -0.3241
56642SOL    HW278705  11.982   1.908   0.559  0.0249 -0.3281  0.0002
56643SOL     OW78706   3.209  10.921  10.470 -0.0649  0.2611  0.5745
56643SOL    HW178707   3.164  10.837  10.466 -0.5306  0.5445 -0.3142
56643SOL    HW278708   3.183  10.967  10.390  1.6486  0.5081  0.1057
56644SOL     OW78709   4.318   6.907   7.806  0.7421 -0.5685 -0.1444
56644SOL    HW178710   4.363   6.978   7.853  0.2387  2.4137 -3.6681
56644SOL    HW278711   4.385   6.870   7.748  0.2495 -0.7121 -0.6335
56645SOL     OW78712   1.328   1.177   3.557  0.5329 -0.1438  0.3460
56645SOL    HW178713   1.366   1.139   3.636 -0.9973  1.1345  1.7812
56645SOL    HW278714   1.274   1.107   3.520 -0.1040 -0.2463  1.4255
56646SOL     OW78715   0.543   6.505   5.272  0.4073  0.4497 -0.6609
56646SOL    HW178716   0.478   6.525   5.205  0.9238 -1.7190 -1.9196
56646SOL    HW278717   0.599   6.439   5.232  0.7318 -0.9831  1.9073
56647SOL     OW78718   3.112   7.231   1.511 -0.2773  0.5203 -0.2002
56647SOL    HW178719   3.139   7.180   1.587  0.8063  1.0217 -0.2347
56647SOL    HW278720   3.098   7.320   1.546 -1.3639  0.4045 -0.2928
56648SOL     OW78721  10.665  11.018   3.397 -0.2361 -0.6261  0.1767
56648SOL    HW178722  10.593  11.049   3.452  0.3864  0.6016  0.3425
56648SOL    HW278723  10.732  11.086   3.406  1.0044 -1.8148  0.1483
56649SOL     OW78724   4.440   2.329   1.274  0.2335 -0.2433 -0.1103
56649SOL    HW178725   4.478   2.241   1.285  1.4732  0.3035  0.2092
56649SOL    HW278726   4.349   2.313   1.250  0.6571 -1.6389 -0.9518
56650SOL     OW78727   1.209   5.888   3.523  0.1131  0.6381 -0.7795
56650SOL    HW178728   1.286   5.928   3.563 -0.3303  0.5005  0.2543
56650SOL    HW278729   1.150   5.961   3.505 -0.5269  0.5373  0.7317
56651SOL     OW78730  11.821   2.324   1.249 -0.0803  0.1598 -0.5325
56651SOL    HW178731  11.902   2.291   1.289 -0.0710  1.1195  0.2932
56651SOL    HW278732  11.775   2.245   1.220 -0.4713 -0.7212  2.1236
56652SOL     OW78733   4.375   4.268   0.484  0.5019  0.1645 -0.1436
56652SOL    HW178734   4.449   4.279   0.543  0.2015  1.0743  0.0731
56652SOL    HW278735   4.337   4.184   0.510  4.1971 -2.9026 -3.3469
56653SOL     OW78736   5.402  10.814   2.750 -0.2810  0.5437  0.6665
56653SOL    HW178737   5.438  10.902   2.763 -1.0151  0.9005  0.3306
56653SOL    HW278738   5.313  10.829   2.718 -0.6819 -0.3209  1.3382
56654SOL     OW78739   3.896   4.884   8.905 -0.1620  0.1310 -0.2163
56654SOL    HW178740   3.904   4.871   8.811  2.4054  2.0319 -0.3742
56654SOL    HW278741   3.930   4.972   8.920  1.6938 -0.9276  2.7004
56655SOL     OW78742   0.004   4.045  11.345 -0.1156  0.2782 -0.5887
56655SOL    HW178743   0.000   3.952  11.370 -0.0857  0.0207 -1.4868
56655SOL    HW278744  -0.010   4.093  11.427  1.4169 -0.4979  0.1765
56656SOL     OW78745   4.470   8.461   8.726  0.7063  0.1844  0.0561
56656SOL    HW178746   4.562   8.441   8.708  0.5596  0.5334 -1.1462
56656SOL    HW278747   4.456   8.430   8.816  1.4974 -1.5443 -0.3886
56657SOL     OW78748   3.372  12.590   7.036 -0.0089 -0.4583  0.5477
56657SOL    HW178749   3.355  12.522   7.101 -0.2856 -1.0717 -0.1463
56657SOL    HW278750   3.467  12.603   7.039 -0.1308  0.2786  1.7986
56658SOL     OW78751   4.628   6.026   1.593  0.2668  0.3016 -0.1011
56658SOL    HW178752   4.644   6.116   1.564 -0.6210  0.3002 -0.6294
56658SOL    HW278753   4.631   5.974   1.512  0.1613 -0.0472  0.1179
56659SOL     OW78754   7.534   3.795   3.236 -0.4942  0.2352  0.2036
56659SOL    HW178755   7.497   3.877   3.203 -0.6130 -1.3722 -4.2490
56659SOL    HW278756   7.458   3.740   3.253 -0.3514 -0.0613 -0.1126
56660SOL     OW78757   5.345   9.682   2.354  0.1129 -0.3863 -0.8445
56660SOL    HW178758   5.282   9.754   2.359  1.4789  0.7650  0.3534
56660SOL    HW278759   5.400   9.703   2.278  1.9582  1.1099  0.8276
56661SOL     OW78760  11.063   0.672   4.464  0.0252  0.3645 -0.3001
56661SOL    HW178761  11.075   0.731   4.389  1.4747  2.0504  1.1747
56661SOL    HW278762  10.972   0.643   4.457  0.3748 -0.4447 -3.3002
56662SOL     OW78763   8.626  10.659   0.817  0.4924  0.0003 -0.3441
56662SOL    HW178764   8.531  10.656   0.808  0.4552 -0.2521  0.0903
56662SOL    HW278765   8.653  10.733   0.762  0.1142 -0.3325 -0.9959
56663SOL     OW78766   8.849   4.529   3.757 -0.1864 -0.3972 -0.2234
56663SOL    HW178767   8.856   4.590   3.683 -0.2720 -1.1646 -0.8811
56663SOL    HW278768   8.840   4.443   3.716 -1.3719 -0.7192  0.6793
56664SOL     OW78769   3.702   5.159   1.135  0.1771  0.1338  0.1211
56664SOL    HW178770   3.653   5.116   1.065 -0.1919  0.3976  0.2087
56664SOL    HW278771   3.634   5.203   1.187  0.3487 -0.7902  1.1587
56665SOL     OW78772   2.824   0.771   4.015  0.3038  0.4512  0.1489
56665SOL    HW178773   2.850   0.862   4.001 -2.5724  1.0453 -2.3190
56665SOL    HW278774   2.907   0.722   4.010  1.7064  2.7147 -0.4197
56666SOL     OW78775  10.842   5.591  10.591 -0.5563  0.2803  0.2183
56666SOL    HW178776  10.820   5.582  10.684  0.2504 -1.3608  0.2956
56666SOL    HW278777  10.936   5.610  10.591 -0.7105  1.0699 -0.2554
56667SOL     OW78778   0.642   4.841   5.152  0.5498 -0.0979 -0.0562
56667SOL    HW178779   0.721   4.851   5.099  1.2485 -0.9474  0.7947
56667SOL    HW278780   0.605   4.929   5.157  0.1003 -0.0688 -2.4573
56668SOL     OW78781   6.841  12.095   1.705  0.4006 -0.1013  0.3312
56668SOL    HW178782   6.767  12.037   1.727  0.1173  0.2077  0.2066
56668SOL    HW278783   6.839  12.162   1.773 -0.5265  0.9020 -0.6413
56669SOL     OW78784   3.574   0.508   6.554 -0.0990  0.3940 -0.1495
56669SOL    HW178785   3.515   0.443   6.592 -0.3503  0.7820  0.1273
56669SOL    HW278786   3.640   0.456   6.507  0.3534 -0.1024  1.0036
56670SOL     OW78787   0.028   6.229   6.376  0.5727  0.0499 -0.5287
56670SOL    HW178788  -0.037   6.271   6.319 -0.7413 -0.8832  0.2219
56670SOL    HW278789   0.081   6.176   6.316 -0.1922 -0.1830 -1.0279
56671SOL     OW78790   3.333   3.785   3.533  0.3487 -0.1483  0.1896
56671SOL    HW178791   3.255   3.807   3.584  1.2530  0.5170  1.3441
56671SOL    HW278792   3.347   3.861   3.477 -0.1168 -0.4785 -0.3704
56672SOL     OW78793  12.193  11.606  12.077 -0.3558 -0.1513 -0.0630
56672SOL    HW178794  12.145  11.688  12.089  1.0495  0.7235 -0.1612
56672SOL    HW278795  12.245  11.620  11.998  2.1682  0.0421  1.5237
56673SOL     OW78796   8.240   6.146  12.486 -0.0400 -0.2238 -0.2322
56673SOL    HW178797   8.292   6.161  12.407 -0.5631 -1.5085 -0.8373
56673SOL    HW278798   8.155   6.185  12.467  0.6769  2.0588  0.8350
56674SOL     OW78799  10.686   6.297  11.031 -0.2297  0.5642 -0.1980
56674SOL    HW178800  10.765   6.316  11.082  0.0785 -1.1615  0.0308
56674SOL    HW278801  10.717   6.245  10.957 -0.8779  1.7603 -1.3376
56675SOL     OW78802   5.218   6.286  10.669 -0.4573  0.2678 -0.1966
56675SOL    HW178803   5.247   6.212  10.723  0.5647  1.0725  0.4106
56675SOL    HW278804   5.220   6.253  10.580  2.0527  0.1263 -0.1623
56676SOL     OW78805   3.622   1.526   2.977 -0.0180  0.1642 -0.1796
56676SOL    HW178806   3.617   1.614   3.014 -1.1553 -0.2117  0.6120
56676SOL    HW278807   3.693   1.484   3.027 -0.1181  0.3381  0.1145
56677SOL     OW78808  10.698   0.651   0.227  0.5105 -0.4604  0.1570
56677SOL    HW178809  10.774   0.687   0.273 -1.6745  2.5655  1.7549
56677SOL    HW278810  10.678   0.716   0.159 -0.2577 -1.5672 -0.7182
56678SOL     OW78811   6.219   0.798  11.120 -0.5251 -0.3316  0.2669
56678SOL    HW178812   6.231   0.892  11.135  1.2905 -0.2900 -1.0937
56678SOL    HW278813   6.246   0.757  11.202 -0.9608  0.3159  0.7419
56679SOL     OW78814   5.240  11.379   0.304  0.0146  0.6640 -0.2300
56679SOL    HW178815   5.302  11.382   0.231  1.7254  2.5715  1.1919
56679SOL    HW278816   5.161  11.341   0.266  1.1536  0.6371 -2.8068
56680SOL     OW78817   5.115   7.628   6.285  0.4528  0.2574  0.0431
56680SOL    HW178818   5.045   7.578   6.243  0.8677  0.0571 -0.4246
56680SOL    HW278819   5.160   7.564   6.341  0.5155  0.2868  0.0266
56681SOL     OW78820   8.791   9.099   8.269 -0.0549 -0.7698  0.0477
56681SOL    HW178821   8.821   9.190   8.273 -0.5771 -0.4187 -2.4412
56681SOL    HW278822   8.770   9.076   8.360  2.8099  0.6049  1.1729
56682SOL     OW78823   9.630   9.095   3.572  0.4042  0.0939  0.0271
56682SOL    HW178824   9.600   9.039   3.501 -2.1307  0.5004  0.6869
56682SOL    HW278825   9.659   9.035   3.640 -1.2272 -0.4390  0.2869
56683SOL     OW78826  12.383   5.048   6.107 -0.0231 -0.1700  0.0951
56683SOL    HW178827  12.469   5.058   6.067 -0.3580 -0.4390 -0.7147
56683SOL    HW278828  12.342   5.134   6.099 -0.4167 -0.4438 -0.9373
56684SOL     OW78829   5.780   9.920   8.975  0.1992  0.0486  0.0672
56684SOL    HW178830   5.732   9.930   8.893 -0.8945  0.7298  0.7670
56684SOL    HW278831   5.868   9.952   8.956  0.0924 -0.2409 -0.9508
56685SOL     OW78832   9.731  10.545   3.042 -0.1540 -0.0259  0.1739
56685SOL    HW178833   9.687  10.476   2.991 -1.4213  1.5033 -0.8891
56685SOL    HW278834   9.734  10.620   2.983  1.3474  0.8089  1.2513
56686SOL     OW78835   4.677   9.914   6.007 -0.1594 -0.4342 -0.6516
56686SOL    HW178836   4.734   9.890   6.080 -0.0596 -0.6707 -0.8058
56686SOL    HW278837   4.697  10.006   5.988  0.6964 -0.7245 -1.1845
56687SOL     OW78838   8.542   1.051  10.379 -0.1283 -0.1975  0.2518
56687SOL    HW178839   8.614   1.018  10.432  1.1197  1.5246 -0.2914
56687SOL    HW278840   8.489   1.103  10.439  0.5800  0.7213  0.0863
56688SOL     OW78841  12.520   1.382   3.706  0.0917 -0.1618 -0.0390
56688SOL    HW178842  12.560   1.399   3.791 -3.2690  3.9603  1.0879
56688SOL    HW278843  12.473   1.299   3.717 -1.0628  0.7228  2.6249
56689SOL     OW78844   7.790   6.033   7.606 -0.2538  0.5440  0.5918
56689SOL    HW178845   7.730   5.977   7.557 -0.1955  0.3817  0.7054
56689SOL    HW278846   7.749   6.044   7.691  0.0777  0.0851  0.8164
56690SOL     OW78847   1.421   4.854  10.727  0.7721  0.1038  0.0497
56690SOL    HW178848   1.379   4.929  10.770  2.1142 -0.2653  2.1949
56690SOL    HW278849   1.450   4.799  10.800  2.0868 -1.2250 -1.4087
56691SOL     OW78850  10.034   7.031   8.390  0.6205  0.0663  0.0384
56691SOL    HW178851  10.024   7.122   8.362 -1.1429 -0.7910 -2.5595
56691SOL    HW278852  10.119   7.004   8.353 -0.4683 -0.2661 -2.4437
56692SOL     OW78853   6.507   5.832   8.240 -0.1219 -0.3113  0.0525
56692SOL    HW178854   6.521   5.927   8.240  0.0407 -0.3349  0.2420
56692SOL    HW278855   6.476   5.813   8.328  0.3250 -0.5048  0.1693
56693SOL     OW78856   7.524  10.229   7.437 -0.1413 -0.1875 -0.1521
56693SOL    HW178857   7.517  10.278   7.519 -0.2426  0.4901 -0.5611
56693SOL    HW278858   7.493  10.141   7.460 -0.3330  0.0379  0.4944
56694SOL     OW78859  10.995   0.984   3.835  0.2910 -0.4835  0.1939
56694SOL    HW178860  11.041   1.010   3.755  0.6517  0.2520  0.6268
56694SOL    HW278861  11.023   0.894   3.851  0.9178 -0.3299 -0.0179
56695SOL     OW78862   3.064   7.530   6.701 -0.0906 -1.0683 -0.0422
56695SOL    HW178863   3.126   7.573   6.641 -0.3359  1.7309  1.5367
56695SOL    HW278864   2.989   7.507   6.646  0.5740 -0.5418 -1.1991
56696SOL     OW78865   1.327   6.978   8.909 -0.4802 -0.0891  0.5550
56696SOL    HW178866   1.364   6.926   8.839 -1.9495  0.7551 -0.9309
56696SOL    HW278867   1.391   7.047   8.926 -0.3243 -0.0181 -0.3131
56697SOL     OW78868   4.301   9.048   8.957 -0.8381 -0.2531 -0.1220
56697SOL    HW178869   4.239   9.114   8.988 -0.6019 -0.2283  0.3017
56697SOL    HW278870   4.248   8.970   8.942 -0.8586 -0.4610  0.9617
56698SOL     OW78871  11.344   0.366   9.162 -0.1266 -0.5228  0.1062
56698SOL    HW178872  11.337   0.274   9.189 -0.9566 -0.8820 -1.2151
56698SOL    HW278873  11.437   0.387   9.172  0.2570 -1.8102 -0.4348
56699SOL     OW78874   9.615  12.382  10.756  0.5276  0.1231  0.0791
56699SOL    HW178875   9.676  12.428  10.699 -1.2714  2.2129 -0.3125
56699SOL    HW278876   9.650  12.396  10.844  2.7972 -2.2989 -0.3374
56700SOL     OW78877   6.468  12.551   5.412 -0.2573  0.0554  0.3505
56700SOL    HW178878   6.408  12.600   5.356  0.5362 -0.9271 -1.4481
56700SOL    HW278879   6.539  12.613   5.429 -1.0438  0.7348  1.2703
56701SOL     OW78880   1.715   4.984   8.786 -0.3151  0.0796 -0.2739
56701SOL    HW178881   1.623   4.960   8.797 -0.1758 -1.2910 -1.7088
56701SOL    HW278882   1.712   5.073   8.750 -1.0337  0.3457  0.3980
56702SOL     OW78883   6.834  10.277   6.584 -0.2491  0.3679  0.5299
56702SOL    HW178884   6.755  10.223   6.590 -0.9190  1.2160 -0.3846
56702SOL    HW278885   6.807  10.353   6.533  0.8229  1.3066  1.3167
56703SOL     OW78886   1.626   1.666  11.339  0.4187 -0.1852  0.3839
56703SOL    HW178887   1.644   1.676  11.245 -0.1836 -0.0570  0.2791
56703SOL    HW278888   1.623   1.756  11.372 -1.5370 -0.1068  0.1028
56704SOL     OW78889   2.194   5.087   4.912  0.3116  0.0330 -0.3166
56704SOL    HW178890   2.219   5.171   4.873 -0.7982  0.7040  0.3541
56704SOL    HW278891   2.134   5.048   4.849  1.4302 -0.6443 -0.9930
56705SOL     OW78892   4.263   7.279  12.193  0.4918 -0.2631  0.6097
56705SOL    HW178893   4.221   7.230  12.122 -2.7750  0.9865  1.5208
56705SOL    HW278894   4.331   7.330  12.149 -3.3267  2.8880 -2.4726
56706SOL     OW78895   9.464   4.260   2.455 -0.2339  0.5169  0.0602
56706SOL    HW178896   9.375   4.255   2.490  0.6584 -0.2285  2.3423
56706SOL    HW278897   9.506   4.329   2.506  0.4103  1.1887 -1.3093
56707SOL     OW78898  12.241  11.688   5.545  0.1976 -0.2024 -0.0642
56707SOL    HW178899  12.184  11.735   5.607  0.5470 -0.7788  0.7073
56707SOL    HW278900  12.187  11.679   5.466 -0.1881  0.7158  0.0733
56708SOL     OW78901   4.305  10.898   7.373 -0.3536  0.4417  0.1990
56708SOL    HW178902   4.338  10.985   7.395 -1.2887  0.6307  0.9331
56708SOL    HW278903   4.230  10.914   7.316 -1.3966  0.2167  1.4412
56709SOL     OW78904   2.541   5.632   7.425 -0.0373 -0.7963 -0.0214
56709SOL    HW178905   2.594   5.552   7.426  1.3622  0.0102 -2.2319
56709SOL    HW278906   2.514   5.644   7.516 -1.2999 -4.3655  0.2460
56710SOL     OW78907   8.337   6.716   3.038 -0.2425  0.4924  1.1327
56710SOL    HW178908   8.255   6.671   3.061 -0.8957  1.4053  0.6715
56710SOL    HW278909   8.377   6.661   2.971 -1.5631  1.0863 -0.2103
56711SOL     OW78910   5.148   2.158   5.933 -0.0494  0.3307  0.4281
56711SOL    HW178911   5.150   2.087   5.868 -0.2047  0.8945 -0.1964
56711SOL    HW278912   5.111   2.117   6.011  0.2376 -0.3836  0.2037
56712SOL     OW78913   7.242   0.644   6.888 -0.0961 -1.1935 -0.4380
56712SOL    HW178914   7.166   0.636   6.829  0.0916 -0.3480 -0.8032
56712SOL    HW278915   7.302   0.576   6.858 -0.2635 -1.1738 -0.8266
56713SOL     OW78916   2.058   9.220   3.784  0.1929  0.1096 -0.3267
56713SOL    HW178917   2.084   9.142   3.735  0.6040 -1.1123  1.7025
56713SOL    HW278918   2.130   9.282   3.770  0.2751 -0.1775 -1.2603
56714SOL     OW78919   5.555   0.865  10.239  0.1212 -0.1462 -0.3050
56714SOL    HW178920   5.484   0.916  10.277 -0.5442 -0.9710 -0.4150
56714SOL    HW278921   5.525   0.845  10.150  1.2301  0.9257 -0.9531
56715SOL     OW78922  11.916  12.544   7.645  0.3319  0.2084 -0.1483
56715SOL    HW178923  11.984  12.490   7.684 -1.1616 -1.8009 -0.1887
56715SOL    HW278924  11.837  12.490   7.649 -1.3051  2.4593 -0.0301
56716SOL     OW78925   4.200  11.849   0.960  0.1486 -0.2591  0.3501
56716SOL    HW178926   4.260  11.808   0.898 -1.6754 -1.9876 -0.3937
56716SOL    HW278927   4.115  11.847   0.916 -0.4067  2.8104  1.0181
56717SOL     OW78928   0.381   4.602   4.548 -0.3609 -0.0579 -0.6047
56717SOL    HW178929   0.291   4.597   4.517 -1.2704  0.7381  1.6651
56717SOL    HW278930   0.388   4.688   4.589  1.3214 -0.2487 -0.4071
56718SOL     OW78931   7.146   5.165   1.589  0.4676  0.7925 -0.4175
56718SOL    HW178932   7.172   5.073   1.593  3.1234  1.4264 -1.2750
56718SOL    HW278933   7.051   5.164   1.603  0.4687 -2.0291 -0.1451
56719SOL     OW78934   5.759  10.317  10.565 -0.2249 -0.0488  0.0916
56719SOL    HW178935   5.790  10.282  10.648  1.0752 -1.7202 -1.0139
56719SOL    HW278936   5.677  10.270  10.548  1.6092 -2.9731 -1.4792
56720SOL     OW78937   2.858   0.951  11.459 -0.4421 -0.0337 -0.8506
56720SOL    HW178938   2.861   0.860  11.488 -1.5232  0.1648 -0.0200
56720SOL    HW278939   2.838   0.945  11.365  0.8260 -0.6545 -1.1021
56721SOL     OW78940   8.822   8.065   2.875  0.3574 -0.1465 -0.0837
56721SOL    HW178941   8.773   8.081   2.956 -1.5513  1.2478 -1.4214
56721SOL    HW278942   8.849   7.973   2.881 -3.6748 -1.5161  0.2265
56722SOL     OW78943   6.377   3.760   8.261  0.0498 -0.2586  0.3575
56722SOL    HW178944   6.471   3.755   8.276  0.0185 -0.3647  0.5139
56722SOL    HW278945   6.353   3.849   8.284  0.2548  0.0212 -0.4733
56723SOL     OW78946  11.988  11.146   0.848 -0.2618 -0.1794  0.2322
56723SOL    HW178947  11.957  11.117   0.934  1.7868 -2.7044  0.2745
56723SOL    HW278948  12.077  11.110   0.843  0.4219  1.6772 -2.1353
56724SOL     OW78949  11.909   6.108   0.719 -0.0149 -0.3464  0.3414
56724SOL    HW178950  11.927   6.201   0.733  0.6781 -0.3870 -0.2310
56724SOL    HW278951  11.814   6.104   0.708  0.0725  0.5152 -1.1270
56725SOL     OW78952   2.716  11.906   8.871 -0.7521  0.1507 -0.0653
56725SOL    HW178953   2.672  11.898   8.956  1.5828  0.1277  1.2356
56725SOL    HW278954   2.726  11.816   8.841 -1.4267  0.1479 -0.2973
56726SOL     OW78955  11.759   1.908   1.676  0.2620 -0.2546  0.1579
56726SOL    HW178956  11.742   1.892   1.769  1.1101  1.3840  0.6293
56726SOL    HW278957  11.729   1.829   1.633  0.9735 -1.5713  1.9413
56727SOL     OW78958   0.683   8.077   9.740 -0.5146 -0.4390 -0.2431
56727SOL    HW178959   0.694   8.169   9.765 -1.6878 -0.2125 -0.5280
56727SOL    HW278960   0.683   8.029   9.822 -0.4588 -0.1221 -0.0575
56728SOL     OW78961  10.560  11.059   6.416 -0.0220 -0.1394  0.3627
56728SOL    HW178962  10.604  11.020   6.491  1.4653  0.1321 -0.3274
56728SOL    HW278963  10.607  11.141   6.399  2.2400 -1.8620 -3.0392
56729SOL     OW78964   5.996  12.225   9.788 -0.3154  0.1878 -0.0174
56729SOL    HW178965   5.957  12.292   9.733 -2.4524 -1.9115 -1.2746
56729SOL    HW278966   5.933  12.213   9.859 -0.9374 -1.6549 -0.8088
56730SOL     OW78967   1.301  11.005   9.292  0.3702 -0.0223  0.0076
56730SOL    HW178968   1.208  10.985   9.303  0.0194  0.6606 -1.4786
56730SOL    HW278969   1.302  11.091   9.250  1.7012  0.3300  0.7137
56731SOL     OW78970   8.136   5.422  10.912 -0.0115 -0.4119 -0.2019
56731SOL    HW178971   8.141   5.490  10.846 -2.0703 -0.9469 -0.9951
56731SOL    HW278972   8.052   5.378  10.896  0.8714 -2.6397  0.7464
56732SOL     OW78973   5.211   2.246  11.500  0.3290 -0.5637  0.3469
56732SOL    HW178974   5.263   2.318  11.535  1.5061 -1.4788  0.5071
56732SOL    HW278975   5.122   2.283  11.493  0.5881  0.4307  1.8534
56733SOL     OW78976   1.530  11.171   8.454 -0.1620  0.1509  0.1319
56733SOL    HW178977   1.471  11.104   8.419  0.7239 -0.8409  0.4637
56733SOL    HW278978   1.617  11.145   8.422  0.2051  1.1377  0.2924
56734SOL     OW78979   3.778   2.661   5.236  0.6245 -0.5354 -0.0575
56734SOL    HW178980   3.795   2.643   5.144  0.6343 -0.0241 -0.1621
56734SOL    HW278981   3.780   2.757   5.243 -4.2988 -0.0967 -0.5609
56735SOL     OW78982  10.839   2.272   8.313 -0.2486  0.5585  0.0469
56735SOL    HW178983  10.831   2.272   8.408  2.3749  0.3685  0.3283
56735SOL    HW278984  10.848   2.179   8.289  0.0419  0.6672 -0.2777
56736SOL     OW78985   0.180   8.142   8.222 -0.6951  0.1836 -0.6541
56736SOL    HW178986   0.203   8.051   8.241  0.4425  0.7876  1.0745
56736SOL    HW278987   0.259   8.179   8.182  0.2908  1.3497  2.1329
56737SOL     OW78988   6.433   2.915   8.383  0.2110 -0.4334 -0.5959
56737SOL    HW178989   6.424   2.971   8.460 -1.5718 -0.3234 -0.8264
56737SOL    HW278990   6.488   2.964   8.322  1.7736 -0.5903  0.6261
56738SOL     OW78991   4.832   4.893   3.446  0.0537  0.2467  0.5056
56738SOL    HW178992   4.897   4.961   3.462 -0.0997  0.2870  0.9617
56738SOL    HW278993   4.856   4.857   3.360  0.1346  0.8749  0.2537
56739SOL     OW78994   2.890   1.492   5.854 -0.1911  0.1493 -0.0129
56739SOL    HW178995   2.925   1.444   5.779  3.1272 -0.0013  1.4794
56739SOL    HW278996   2.874   1.424   5.920 -1.0636  0.5184  0.1738
56740SOL     OW78997  11.023   5.705  12.357 -0.2412 -0.1807  1.0234
56740SOL    HW178998  10.942   5.747  12.329 -0.5401  0.3069  2.5559
56740SOL    HW278999  10.996   5.622  12.396  0.3452 -1.9240 -1.9522
56741SOL     OW79000   7.773   8.155   0.520 -0.2431  0.4993  0.4943
56741SOL    HW179001   7.695   8.175   0.572  0.4847 -0.7079  2.1690
56741SOL    HW279002   7.792   8.236   0.474 -0.8419  1.7451  2.3043
56742SOL     OW79003   0.274   7.434   7.028  0.4258  0.2774 -0.2662
56742SOL    HW179004   0.359   7.398   7.002  0.3786  0.3988 -0.5943
56742SOL    HW279005   0.210   7.382   6.979  0.3834  1.1796 -1.2101
56743SOL     OW79006   4.148   8.028   1.456 -0.4412 -0.1738 -0.8223
56743SOL    HW179007   4.153   8.089   1.383  0.2220 -0.4064 -0.9719
56743SOL    HW279008   4.054   8.017   1.471 -0.5784  0.0827 -1.4650
56744SOL     OW79009  11.346   5.025   0.234  0.0427  0.0227  0.5789
56744SOL    HW179010  11.293   5.038   0.156  0.5806  0.3491  0.2630
56744SOL    HW279011  11.339   4.931   0.252 -1.0558  0.1385  0.8519
56745SOL     OW79012  11.200   2.372   0.190  0.2278 -0.3124  0.0169
56745SOL    HW179013  11.137   2.407   0.253  0.2578 -0.6215  0.2155
56745SOL    HW279014  11.146   2.327   0.125  0.1188  0.7845 -0.6940
56746SOL     OW79015   1.523   0.699   3.577  0.1649 -0.1707  0.5416
56746SOL    HW179016   1.529   0.608   3.550 -0.4025 -0.6530  1.9474
56746SOL    HW279017   1.505   0.747   3.496  0.9449 -1.2376 -0.2853
56747SOL     OW79018   1.472  11.651  10.121  0.1823 -0.6550  0.0573
56747SOL    HW179019   1.453  11.558  10.116 -2.4497 -0.3201  2.0509
56747SOL    HW279020   1.451  11.676  10.211  0.5995  1.9143 -0.4625
56748SOL     OW79021  10.154  12.357   3.174 -0.8438 -0.1319  0.1133
56748SOL    HW179022  10.112  12.307   3.244 -0.6568 -1.7429 -0.8616
56748SOL    HW279023  10.248  12.344   3.189 -0.7631  0.6842  0.3555
56749SOL     OW79024   2.367  11.362   9.501  0.3838 -0.2505  0.0216
56749SOL    HW179025   2.344  11.364   9.594  1.7219 -1.6814  0.4279
56749SOL    HW279026   2.443  11.419   9.494 -0.3521  0.7066 -0.4253
56750SOL     OW79027   5.562   1.222   7.623  0.1982  0.0183 -0.4197
56750SOL    HW179028   5.565   1.142   7.676 -0.2377  0.1066 -0.2582
56750SOL    HW279029   5.627   1.208   7.555  0.0940 -0.4947 -0.4166
56751SOL     OW79030   0.382   5.105   1.997  0.5178  0.1297  0.9164
56751SOL    HW179031   0.387   5.192   2.036  2.4546 -0.0711  1.2112
56751SOL    HW279032   0.472   5.072   2.000 -0.2098 -1.9877  1.0415
56752SOL     OW79033   5.312   7.033  11.812  0.4221  0.1713  0.4007
56752SOL    HW179034   5.337   7.049  11.721 -0.9504 -1.2231 -0.2927
56752SOL    HW279035   5.314   6.937  11.820 -0.8087  0.2069  1.4078
56753SOL     OW79036   7.565   3.166  11.276  0.2238  0.1193 -0.1335
56753SOL    HW179037   7.649   3.134  11.310  0.3806  0.1143 -0.5226
56753SOL    HW279038   7.552   3.249  11.322  0.5214  0.1988 -0.1902
56754SOL     OW79039   8.012   5.722   7.678 -0.3664  0.2700  0.7032
56754SOL    HW179040   7.948   5.721   7.608  0.3920 -0.5929  0.0012
56754SOL    HW279041   8.059   5.639   7.670  0.5381  0.6792  1.4743
56755SOL     OW79042   7.644   9.091   0.381 -0.0652  0.5892  0.1787
56755SOL    HW179043   7.621   9.001   0.355  1.7746  0.0397  0.3383
56755SOL    HW279044   7.593   9.146   0.322 -1.2553 -0.5471  0.0854
56756SOL     OW79045  12.020   1.534   2.190  0.7870 -0.8746 -0.0489
56756SOL    HW179046  12.094   1.478   2.214  2.2567  0.8515 -0.3128
56756SOL    HW279047  12.059   1.604   2.137 -0.6481  1.2944  1.5764
56757SOL     OW79048   7.812   5.651   8.174 -0.1916  0.3747  0.4024
56757SOL    HW179049   7.737   5.595   8.153 -0.4894 -0.3091  2.9155
56757SOL    HW279050   7.817   5.713   8.101 -0.6962 -2.0128 -1.8058
56758SOL     OW79051   6.227   8.043   9.414 -0.5577 -0.2702  0.2196
56758SOL    HW179052   6.300   7.993   9.451 -0.7343 -0.6955  0.0052
56758SOL    HW279053   6.155   8.028   9.475 -0.3287  0.5567  0.6966
56759SOL     OW79054   5.177   4.885   0.071 -0.2616  0.0129 -0.1603
56759SOL    HW179055   5.257   4.938   0.076 -0.7611  0.9159 -1.2418
56759SOL    HW279056   5.106   4.949   0.066 -1.0550 -0.7814  0.6748
56760SOL     OW79057   0.707   6.763   5.095  0.5016  0.5494 -0.5130
56760SOL    HW179058   0.716   6.689   5.035 -1.1968  0.0192 -0.1639
56760SOL    HW279059   0.797   6.789   5.114  1.1779 -1.6674 -0.3576
56761SOL     OW79060   1.325  10.514  11.975  0.4173 -0.8277  0.2794
56761SOL    HW179061   1.332  10.418  11.967  1.1073 -0.6835 -1.2293
56761SOL    HW279062   1.299  10.543  11.887 -1.3056  0.2624  1.1056
56762SOL     OW79063   1.028   9.092   6.612  0.5353  0.2936  0.3271
56762SOL    HW179064   1.092   9.036   6.656 -0.1151 -0.8631 -0.1376
56762SOL    HW279065   1.014   9.050   6.526 -0.8121  0.5151  0.4104
56763SOL     OW79066   6.777   6.705   1.002 -0.0452 -0.0401  0.1551
56763SOL    HW179067   6.867   6.734   0.988 -0.3589  0.8360 -0.1295
56763SOL    HW279068   6.773   6.685   1.096  0.0504  1.4328  0.5082
56764SOL     OW79069  12.137   3.030   0.221 -0.1316  0.0184 -0.6508
56764SOL    HW179070  12.200   3.099   0.246 -0.6817  0.0695  0.6700
56764SOL    HW279071  12.171   2.996   0.138  0.5901  1.3356 -0.9271
56765SOL     OW79072   3.901   1.320   0.298 -0.3214 -0.0692  0.2124
56765SOL    HW179073   3.877   1.408   0.271  1.1940  0.3051 -0.0351
56765SOL    HW279074   3.901   1.269   0.216  1.0969  0.2911 -0.0426
56766SOL     OW79075   7.969   2.654   8.776 -0.1575 -0.4712 -0.4736
56766SOL    HW179076   7.931   2.612   8.699 -1.2363 -1.5154  0.5905
56766SOL    HW279077   7.907   2.636   8.846  0.0461  1.7338  0.3563
56767SOL     OW79078  10.985   1.559   8.538  0.2989 -0.6862 -0.1705
56767SOL    HW179079  10.980   1.556   8.443  3.1251 -3.4932 -0.3933
56767SOL    HW279080  10.986   1.468   8.566  0.5547  0.0238  2.4797
56768SOL     OW79081  10.834   3.035  12.493  0.1390  0.1541 -0.1397
56768SOL    HW179082  10.783   3.090  12.553 -0.4899 -1.9889  1.4282
56768SOL    HW279083  10.922   3.037  12.529 -0.1096 -0.6520  0.5462
56769SOL     OW79084   4.703  11.795   6.752  0.4827 -0.7176 -0.3554
56769SOL    HW179085   4.611  11.782   6.728  0.6412 -0.9132 -0.8766
56769SOL    HW279086   4.719  11.889   6.737  0.3049 -0.6332 -0.0273
56770SOL     OW79087   0.760   1.118   7.749  0.0604  0.2884 -0.1827
56770SOL    HW179088   0.752   1.084   7.839 -3.1144  1.7086  0.1997
56770SOL    HW279089   0.823   1.190   7.756 -0.2094  0.4302  0.9048
56771SOL     OW79090   1.849   2.445   1.254 -0.0154  0.0743 -0.3829
56771SOL    HW179091   1.872   2.460   1.162 -0.4103  2.3558 -0.1650
56771SOL    HW279092   1.759   2.413   1.251 -0.2686  0.7830 -0.7993
56772SOL     OW79093  11.914   1.087   6.851  0.0772 -0.2761  0.3274
56772SOL    HW179094  11.899   1.076   6.945  1.5499 -2.1213  0.4154
56772SOL    HW279095  11.868   1.013   6.811 -1.2766  0.9715 -0.5449
56773SOL     OW79096   8.700   0.382   1.209 -0.3745  0.2732  0.3102
56773SOL    HW179097   8.636   0.313   1.224  0.3448 -0.5656 -0.3551
56773SOL    HW279098   8.783   0.336   1.197  0.7748  1.4105  3.0853
56774SOL     OW79099   8.275   5.315   4.197 -0.7815  0.2615  0.1255
56774SOL    HW179100   8.243   5.304   4.107 -1.1420  2.1439 -0.0066
56774SOL    HW279101   8.368   5.291   4.192 -0.5703  1.2540 -0.9630
56775SOL     OW79102   0.684  10.722   0.801  0.0818 -0.3076  0.4714
56775SOL    HW179103   0.760  10.772   0.829 -1.0955  2.1087 -0.3841
56775SOL    HW279104   0.611  10.758   0.851 -1.2823  0.9561 -2.1649
56776SOL     OW79105   8.095   3.281  10.020  0.3278  0.2814  0.1174
56776SOL    HW179106   8.001   3.299  10.019  0.4189  0.9728 -2.5923
56776SOL    HW279107   8.109   3.234  10.102 -2.5282 -0.6754  0.1758
56777SOL     OW79108   1.176  11.683   7.315  0.0155  0.0634  0.1164
56777SOL    HW179109   1.102  11.639   7.275  0.5658 -0.4719 -0.3412
56777SOL    HW279110   1.195  11.632   7.394 -0.3129  0.4036  0.4200
56778SOL     OW79111  10.566   0.947   1.219  1.1718 -0.1464  0.0595
56778SOL    HW179112  10.577   0.868   1.272 -1.4674 -1.8084 -1.6191
56778SOL    HW279113  10.510   1.003   1.272 -1.2396 -1.6928 -0.6601
56779SOL     OW79114   7.805   9.158   4.353  0.3104  0.4132 -0.1350
56779SOL    HW179115   7.723   9.202   4.373  0.1383 -0.0308  0.1649
56779SOL    HW279116   7.786   9.065   4.365  1.2731  0.3834  1.6168
56780SOL     OW79117   8.276   2.828   9.461  0.2532  0.7387 -0.2803
56780SOL    HW179118   8.267   2.923   9.462  0.1221  0.7532  1.5992
56780SOL    HW279119   8.189   2.796   9.439  0.0499  1.0502  0.0563
56781SOL     OW79120   7.093   1.437  10.468 -0.4238  0.2174 -0.3642
56781SOL    HW179121   7.076   1.516  10.416 -0.4496  0.9190  0.6860
56781SOL    HW279122   7.186   1.420  10.455  0.4088  2.3661  1.9515
56782SOL     OW79123   0.946   6.387  11.855  0.1636 -0.5008  0.0155
56782SOL    HW179124   1.038   6.412  11.841  0.3549 -0.5895  1.0276
56782SOL    HW279125   0.951   6.300  11.895 -0.2988  0.0834  1.3798
56783SOL     OW79126   4.691  10.514  10.454  0.4042 -0.4220 -0.7183
56783SOL    HW179127   4.758  10.579  10.433 -1.5053  1.6289 -0.8356
56783SOL    HW279128   4.653  10.545  10.536 -1.3350 -0.7399 -1.3757
56784SOL     OW79129   1.391  11.720  11.961  0.1468  0.8533 -0.0194
56784SOL    HW179130   1.379  11.674  12.045  0.0029  0.1755 -0.4080
56784SOL    HW279131   1.485  11.725  11.950  0.1735 -0.4563 -0.5637
56785SOL     OW79132   4.567  11.395  10.408 -0.3089  0.0263 -0.2227
56785SOL    HW179133   4.482  11.426  10.377 -0.4999 -1.4760 -1.3008
56785SOL    HW279134   4.631  11.443  10.355 -0.4578  1.1972  0.6277
56786SOL     OW79135   7.670   7.282  10.324 -0.0238 -0.0024  0.2618
56786SOL    HW179136   7.716   7.350  10.275  0.9327 -0.9043 -0.1493
56786SOL    HW279137   7.703   7.290  10.414  0.0858  0.0710  0.2143
56787SOL     OW79138   3.425  10.968  12.225  0.1404 -0.4843 -0.4579
56787SOL    HW179139   3.400  10.972  12.317  0.0337 -0.2001 -0.4960
56787SOL    HW279140   3.343  10.983  12.178  0.1390 -0.9412 -0.6034
56788SOL     OW79141   5.912   0.200   2.614  0.2033  0.2199 -0.8101
56788SOL    HW179142   6.006   0.185   2.627  0.2120  0.7361 -0.2350
56788SOL    HW279143   5.876   0.201   2.702 -0.0939  1.5899 -0.9212
56789SOL     OW79144  12.453   9.970   4.962 -0.7067  0.3229 -0.5498
56789SOL    HW179145  12.431   9.978   4.869  1.5521  0.6072 -1.1065
56789SOL    HW279146  12.404   9.893   4.991 -0.9494 -0.1652 -2.1423
56790SOL     OW79147  10.752   1.370   4.751 -0.4896  0.1945  0.2346
56790SOL    HW179148  10.753   1.462   4.725  2.2270  0.4046  0.7982
56790SOL    HW279149  10.664   1.340   4.728 -1.4128  2.8606 -0.1148
56791SOL     OW79150   4.761   2.814   3.885 -0.3947 -0.6888  0.7601
56791SOL    HW179151   4.728   2.767   3.809 -1.4384  1.0748  0.0679
56791SOL    HW279152   4.854   2.826   3.867 -0.8519  0.7663 -0.8732
56792SOL     OW79153   0.215   9.517   9.534 -0.0011 -0.2573  0.2892
56792SOL    HW179154   0.270   9.495   9.609  1.2503  1.5117 -0.0440
56792SOL    HW279155   0.150   9.579   9.568 -0.1365 -0.3190  0.1458
56793SOL     OW79156   3.882   5.863   6.359 -0.1055 -0.0135  0.3523
56793SOL    HW179157   3.915   5.773   6.360  0.7698  0.2991  0.6253
56793SOL    HW279158   3.865   5.882   6.267  2.7895  0.6104 -0.1505
56794SOL     OW79159   2.123   8.503   8.498  1.1210 -0.4133  0.1283
56794SOL    HW179160   2.163   8.557   8.430  0.0184 -0.0324 -0.2537
56794SOL    HW279161   2.029   8.519   8.488  0.9302 -0.3104  1.7693
56795SOL     OW79162  11.173   1.734   8.589  0.1091  0.1719  0.0550
56795SOL    HW179163  11.079   1.721   8.586 -0.2687  2.5415 -0.2178
56795SOL    HW279164  11.206   1.684   8.514 -0.9622 -0.3014 -0.1205
56796SOL     OW79165  11.886  11.816   5.642  0.4464 -0.2428 -0.2301
56796SOL    HW179166  11.917  11.867   5.567  0.9542  0.8511  0.6971
56796SOL    HW279167  11.954  11.827   5.708 -0.4524 -0.3698  0.7410
56797SOL     OW79168   2.599   9.264   5.595  0.7160  0.1280  0.2657
56797SOL    HW179169   2.602   9.353   5.632  2.5713  0.4344 -0.4960
56797SOL    HW279170   2.671   9.218   5.637 -0.4787 -1.1902  0.9552
56798SOL     OW79171  10.372   6.637   0.263 -0.1439  0.1347 -0.1302
56798SOL    HW179172  10.396   6.702   0.196 -1.1419  0.0506 -0.5851
56798SOL    HW279173  10.442   6.572   0.259  0.1193  0.4427 -0.6845
56799SOL     OW79174  11.403   0.920   7.334 -0.1499  0.3990  0.7113
56799SOL    HW179175  11.480   0.865   7.318 -0.3786  0.3944 -0.4095
56799SOL    HW279176  11.439   1.008   7.348  0.0832  0.3249  0.5894
56800SOL     OW79177   0.682   3.605  10.689 -0.1057  0.3305  0.0111
56800SOL    HW179178   0.690   3.645  10.603  0.8725  0.2149  0.0291
56800SOL    HW279179   0.634   3.524  10.674 -0.0143  0.3535 -0.4181
56801SOL     OW79180   1.857   0.443   4.843 -0.2288 -0.1659 -0.1208
56801SOL    HW179181   1.793   0.502   4.804  0.7098 -0.0100 -1.4943
56801SOL    HW279182   1.817   0.414   4.925 -1.4156  1.0563 -0.2447
56802SOL     OW79183   1.301   0.581   0.175  0.0246 -0.1616  0.0992
56802SOL    HW179184   1.280   0.642   0.105 -1.3011 -0.1551  0.4865
56802SOL    HW279185   1.217   0.549   0.206  0.4575  1.0455  2.7775
56803SOL     OW79186   2.111   1.858  11.630  0.6916  0.1213  0.2562
56803SOL    HW179187   2.103   1.795  11.559 -0.7516 -0.6438  1.0467
56803SOL    HW279188   2.125   1.806  11.708 -4.4512  0.2125  1.6157
56804SOL     OW79189   3.773   4.512   4.741  0.0145  0.3185 -0.2754
56804SOL    HW179190   3.682   4.493   4.719 -0.2567  0.6310  0.5290
56804SOL    HW279191   3.777   4.504   4.836  0.5937  1.2329 -0.2056
56805SOL     OW79192   5.150  10.975  12.007  0.5993 -0.0013  0.2072
56805SOL    HW179193   5.068  10.971  11.959  0.3947  0.7214  0.4855
56805SOL    HW279194   5.206  11.032  11.954  1.0586 -0.7893 -0.1735
56806SOL     OW79195   3.831   4.215   6.913  0.0063  0.1257 -0.3144
56806SOL    HW179196   3.762   4.175   6.861  0.0887 -1.3274  0.6460
56806SOL    HW279197   3.788   4.288   6.957 -0.7477 -0.3464 -0.2497
56807SOL     OW79198   2.750   9.979  11.270 -0.2506 -0.0712 -0.9060
56807SOL    HW179199   2.812   9.929  11.324  0.7242  1.1023 -0.8969
56807SOL    HW279200   2.665   9.941  11.290  0.4428 -1.7912 -0.9602
56808SOL     OW79201  11.399   6.663   9.634  0.4435 -0.0762 -0.7150
56808SOL    HW179202  11.451   6.719   9.692  1.0888 -0.6052 -0.7675
56808SOL    HW279203  11.368   6.593   9.691 -1.1998  0.8397 -0.4251
56809SOL     OW79204   6.789  12.367   3.333 -0.0749 -0.5550 -0.3493
56809SOL    HW179205   6.829  12.367   3.246 -1.0621 -0.0203 -0.8139
56809SOL    HW279206   6.740  12.285   3.337  1.8627 -1.7613  0.6388
56810SOL     OW79207   3.951   9.760   3.680 -0.0434  0.0881 -0.1249
56810SOL    HW179208   3.905   9.730   3.758  0.9186  0.3834  0.5750
56810SOL    HW279209   3.954   9.856   3.689  0.4416  0.0958 -0.2945
56811SOL     OW79210   1.060   2.797  11.356  0.1188  0.2098  0.1383
56811SOL    HW179211   1.104   2.736  11.297  0.9857 -1.6731  2.5674
56811SOL    HW279212   0.967   2.776  11.347  0.3581 -1.0384  0.4541
56812SOL     OW79213   5.310   5.235   4.865  0.0203  0.2072  0.0347
56812SOL    HW179214   5.340   5.260   4.778  0.6315  0.3676  0.2824
56812SOL    HW279215   5.291   5.318   4.909  0.6823  0.1874  0.3809
56813SOL     OW79216   1.658   5.686   6.225 -0.3743  0.0970 -0.2303
56813SOL    HW179217   1.700   5.765   6.258 -0.1963 -0.8496  1.9570
56813SOL    HW279218   1.657   5.626   6.299 -0.2372 -2.0901 -1.8799
56814SOL     OW79219   6.760   8.268   9.275 -0.1202  0.1459 -0.3243
56814SOL    HW179220   6.778   8.293   9.185 -1.0232  2.0138 -0.0385
56814SOL    HW279221   6.754   8.351   9.322 -0.2761 -0.7635  1.3465
56815SOL     OW79222  11.012   6.517   8.134  0.5675  0.1103 -0.3592
56815SOL    HW179223  11.100   6.550   8.116  0.9069 -0.1099  0.7887
56815SOL    HW279224  10.985   6.563   8.213 -1.1319  1.5569 -1.7282
56816SOL     OW79225   4.121   7.549   9.511  0.2966  0.4518 -0.3273
56816SOL    HW179226   4.065   7.481   9.472 -0.3906  0.1513  1.1298
56816SOL    HW279227   4.190   7.562   9.446 -0.9218  0.1551 -1.7525
56817SOL     OW79228  12.132   7.950  11.101  0.2830  0.4264  0.2018
56817SOL    HW179229  12.046   7.980  11.072 -0.1035 -0.3232  0.5467
56817SOL    HW279230  12.113   7.896  11.178  0.9074 -1.1395 -0.7003
56818SOL     OW79231   7.286  12.378  11.686 -0.2194  0.4259 -0.5550
56818SOL    HW179232   7.299  12.399  11.779 -1.9322  0.6763 -0.3303
56818SOL    HW279233   7.249  12.458  11.649 -1.0407 -0.1909 -1.0952
56819SOL     OW79234   1.046   5.737   3.027 -0.7924 -0.1253  0.0771
56819SOL    HW179235   0.991   5.668   3.065 -1.1048  0.4309  0.6420
56819SOL    HW279236   1.125   5.690   2.999  0.0311 -0.3959  2.6135
56820SOL     OW79237  12.111   7.068   6.814 -0.0860 -0.4689  0.1804
56820SOL    HW179238  12.033   7.054   6.867 -0.2159 -1.3737 -0.2328
56820SOL    HW279239  12.077   7.094   6.728  0.1254  1.2423  0.5641
56821SOL     OW79240   4.040   5.777   0.841  0.0389 -0.3038 -0.1295
56821SOL    HW179241   4.066   5.869   0.838 -0.4463 -0.0790  1.6913
56821SOL    HW279242   4.123   5.729   0.851  0.1309  0.1454  1.6336
56822SOL     OW79243  12.394   0.386   6.791  0.2645 -0.1847 -0.1113
56822SOL    HW179244  12.320   0.334   6.759  1.0635  0.1222 -2.6461
56822SOL    HW279245  12.439   0.416   6.712  2.4719  0.5772  1.3300
56823SOL     OW79246   3.321  10.959   7.253 -0.4486  0.0529  0.0240
56823SOL    HW179247   3.265  11.022   7.297  1.1430  0.3845  1.7216
56823SOL    HW279248   3.288  10.955   7.163 -2.6307  0.7980  0.7380
56824SOL     OW79249   3.988   9.557  10.861  0.2150  0.2685 -0.3973
56824SOL    HW179250   4.058   9.504  10.824  0.1187  1.0613 -1.8014
56824SOL    HW279251   3.937   9.586  10.785 -0.2091  1.6742  0.3768
56825SOL     OW79252   6.216   9.272   0.403 -0.2244 -0.1602  0.7050
56825SOL    HW179253   6.226   9.177   0.405  0.3411 -0.1035  0.8805
56825SOL    HW279254   6.272   9.301   0.331  0.6801  0.1440  1.4992
56826SOL     OW79255   4.681   4.870  11.806  0.2263 -0.3693 -0.2512
56826SOL    HW179256   4.742   4.895  11.737  0.4047 -2.3647 -0.8637
56826SOL    HW279257   4.620   4.811  11.764 -1.7287  0.9838  0.5385
56827SOL     OW79258   0.386   4.134   2.898 -0.3995 -0.4277 -0.0116
56827SOL    HW179259   0.343   4.081   2.965 -0.9622  1.5731  1.3039
56827SOL    HW279260   0.314   4.175   2.851  0.0216 -0.0308 -0.3138
56828SOL     OW79261  10.965   7.101   6.226  0.6502  0.0411  0.2673
56828SOL    HW179262  11.054   7.119   6.195 -0.1769  1.2368 -1.5555
56828SOL    HW279263  10.918   7.069   6.149 -0.2370 -1.6925  1.4654
56829SOL     OW79264   6.097   4.122  12.575  0.2193  0.3526 -0.1402
56829SOL    HW179265   6.020   4.149  12.625  0.1616  0.5983 -0.3598
56829SOL    HW279266   6.168   4.121  12.639 -0.0818 -0.4825  0.2045
56830SOL     OW79267   9.405   6.639  11.240  0.6270 -0.4201 -0.0902
56830SOL    HW179268   9.415   6.734  11.251 -0.6823 -0.4314  1.4701
56830SOL    HW279269   9.493   6.605  11.254  0.8747  0.4707  0.6742
56831SOL     OW79270   6.235   1.871  12.308  0.6256 -0.1797 -0.2705
56831SOL    HW179271   6.256   1.962  12.290  0.5404 -0.3087 -1.0981
56831SOL    HW279272   6.303   1.842  12.368  1.8523 -0.1099 -1.5530
56832SOL     OW79273   9.210   2.785   0.494 -0.2515  0.7871  0.2129
56832SOL    HW179274   9.294   2.828   0.477  0.1117 -0.4908 -1.5100
56832SOL    HW279275   9.148   2.832   0.438 -0.1108 -0.0187 -0.6489
56833SOL     OW79276   4.452   2.896   8.377 -0.4295  0.0534  0.3715
56833SOL    HW179277   4.503   2.819   8.351 -0.3438  0.0280  0.6188
56833SOL    HW279278   4.372   2.890   8.324 -0.6996 -0.5392  0.8392
56834SOL     OW79279   2.855   4.688   9.311  0.0737 -0.3716 -0.0906
56834SOL    HW179280   2.945   4.664   9.286 -0.0729 -0.5368 -0.4697
56834SOL    HW279281   2.801   4.654   9.240 -0.5656 -2.5381  1.3381
56835SOL     OW79282  11.692   6.935  10.295  0.2190 -0.2619  0.0768
56835SOL    HW179283  11.727   6.868  10.355  0.4852  1.1103  1.5378
56835SOL    HW279284  11.620   6.974  10.344  0.1878  0.6288 -0.6734
56836SOL     OW79285  11.975  11.190   8.112 -0.3582  0.1045 -1.2281
56836SOL    HW179286  12.043  11.229   8.058 -0.0461 -1.1141 -1.7404
56836SOL    HW279287  12.022  11.146   8.183 -0.6481 -0.1898 -1.2142
56837SOL     OW79288   3.658   2.583   3.793  0.4425  0.0806  0.0462
56837SOL    HW179289   3.660   2.599   3.699  0.8309 -1.5334 -0.2584
56837SOL    HW279290   3.633   2.491   3.800 -1.4489  0.6365  1.5923
56838SOL     OW79291   5.065   4.595   7.264  0.1171  0.3978  0.2272
56838SOL    HW179292   5.112   4.537   7.204  1.0183  0.9701  0.3583
56838SOL    HW279293   5.085   4.683   7.232 -1.1362  0.6550  0.0984
56839SOL     OW79294   6.757  11.924   0.228 -0.3163  0.2265  0.3254
56839SOL    HW179295   6.720  11.963   0.307 -0.3065 -0.4198  0.6559
56839SOL    HW279296   6.848  11.953   0.226 -0.5347  0.9031  0.1151
56840SOL     OW79297   8.894   5.877   7.762 -0.7517 -0.3512  0.2275
56840SOL    HW179298   8.976   5.916   7.791 -0.9089 -0.1285  0.3792
56840SOL    HW279299   8.826   5.924   7.811 -1.0483  0.2847 -0.7578
56841SOL     OW79300   3.374  10.259   4.489 -0.4416 -0.2707  0.2672
56841SOL    HW179301   3.306  10.213   4.440 -0.0735  0.4463 -0.9686
56841SOL    HW279302   3.379  10.213   4.572 -3.2533  0.3345  0.8846
56842SOL     OW79303  10.223   3.525   7.498  0.0739  0.0213 -0.1444
56842SOL    HW179304  10.314   3.541   7.474  0.1237 -0.5683 -0.3670
56842SOL    HW279305  10.228   3.470   7.577 -0.0909  1.1176  0.6565
56843SOL     OW79306   3.364   9.507   6.615  0.4971  0.6299 -0.1282
56843SOL    HW179307   3.327   9.594   6.599  1.9656  1.5699  1.2800
56843SOL    HW279308   3.291   9.455   6.648  0.2467  2.2946  2.1055
56844SOL     OW79309   5.531   5.421   5.438  0.3292  0.3022  0.2375
56844SOL    HW179310   5.578   5.466   5.368  2.5070 -0.8959  0.8594
56844SOL    HW279311   5.494   5.343   5.395 -0.4893  0.8396 -0.0738
56845SOL     OW79312   1.848   7.477   4.329  0.4559 -0.0560 -0.4284
56845SOL    HW179313   1.842   7.449   4.420  0.0227 -0.2140 -0.5021
56845SOL    HW279314   1.758   7.471   4.296  0.3697  1.2729 -0.4954
56846SOL     OW79315   2.826   5.000   6.033 -0.4743  0.2450  1.0368
56846SOL    HW179316   2.741   4.973   6.067 -0.8902 -0.8752 -0.7250
56846SOL    HW279317   2.853   4.927   5.977  1.3019  0.9154  0.9555
56847SOL     OW79318   8.984   2.442   0.148 -0.2329  0.0221  0.0477
56847SOL    HW179319   8.923   2.499   0.101  1.0275 -0.1571 -1.9047
56847SOL    HW279320   9.070   2.482   0.136  0.3341 -0.8567  0.9490
56848SOL     OW79321   2.709   8.885  11.553 -0.0118  0.5415  0.0932
56848SOL    HW179322   2.775   8.824  11.521  1.2129  2.0256 -0.3564
56848SOL    HW279323   2.686   8.938  11.476 -0.8955  0.7829  0.5091
56849SOL     OW79324   1.532   8.532   0.825  0.2853  0.0761 -0.3615
56849SOL    HW179325   1.583   8.457   0.855 -0.4636 -0.7527 -1.0848
56849SOL    HW279326   1.583   8.569   0.753 -0.9079 -1.8989 -2.3851
56850SOL     OW79327   0.333   7.863   5.220 -0.1610  0.1532  0.0310
56850SOL    HW179328   0.424   7.863   5.250 -0.0199  0.7503 -0.3813
56850SOL    HW279329   0.299   7.778   5.248  0.2216  0.3304  1.0905
56851SOL     OW79330   9.280   2.843  12.267  0.1590  0.1050 -0.0320
56851SOL    HW179331   9.329   2.826  12.347  2.0623 -1.8091 -1.5232
56851SOL    HW279332   9.295   2.936  12.250  0.9377  0.1942  1.0297
56852SOL     OW79333   7.525  11.533   0.470 -0.4001  0.0506  0.2148
56852SOL    HW179334   7.514  11.583   0.551 -1.1746 -0.1989  0.2667
56852SOL    HW279335   7.556  11.598   0.406 -1.2899  0.5794  0.3113
56853SOL     OW79336   5.964   4.779  10.956 -0.0922 -0.2881  0.2979
56853SOL    HW179337   6.004   4.767  11.042  0.3935 -0.4081  0.0599
56853SOL    HW279338   5.893   4.715  10.953  0.2572 -0.6839  0.3878
56854SOL     OW79339   3.296   2.264   8.423  0.0078  0.4453 -0.1363
56854SOL    HW179340   3.236   2.334   8.400 -1.4752 -0.4442  0.8324
56854SOL    HW279341   3.242   2.201   8.472  1.9511  0.1033  1.7084
56855SOL     OW79342   3.474   4.890   5.328 -0.1565  0.1306  0.0427
56855SOL    HW179343   3.423   4.810   5.313 -0.6800  0.5560 -0.5125
56855SOL    HW279344   3.495   4.888   5.421 -2.6467  0.7698  0.6956
56856SOL     OW79345   1.312   7.015  12.608  0.1595  0.2265 -0.3155
56856SOL    HW179346   1.366   6.988  12.682  1.5213  2.0866 -0.5556
56856SOL    HW279347   1.355   6.977  12.531 -1.3286 -1.8182 -0.2429
56857SOL     OW79348   1.427   2.217   2.790  0.6703 -0.0274 -0.2603
56857SOL    HW179349   1.402   2.308   2.806  0.8815  0.0483 -0.3554
56857SOL    HW279350   1.520   2.222   2.769  0.5016 -0.1714 -1.0694
56858SOL     OW79351   2.542   8.246  11.845  0.6421 -0.1541 -0.3952
56858SOL    HW179352   2.479   8.174  11.853  0.3710 -0.1223 -1.8751
56858SOL    HW279353   2.582   8.253  11.931 -0.0744 -1.3904  0.0634
56859SOL     OW79354   4.781   3.049   4.441 -0.5259 -0.2790 -0.1491
56859SOL    HW179355   4.734   3.094   4.371 -0.7208  0.6568  0.5711
56859SOL    HW279356   4.864   3.022   4.401 -0.5391  0.4403 -0.6706
56860SOL     OW79357   8.811   7.866   4.458  0.0330 -0.0014 -0.1362
56860SOL    HW179358   8.815   7.876   4.553 -2.2826 -2.4306  0.3461
56860SOL    HW279359   8.718   7.859   4.439  0.4626  0.0751 -2.5530
56861SOL     OW79360   4.578   4.356   2.730  0.0433 -0.3340  0.3088
56861SOL    HW179361   4.545   4.276   2.690 -1.6861  0.8143 -0.6940
56861SOL    HW279362   4.582   4.337   2.823  0.8218 -1.9452 -0.0183
56862SOL     OW79363   7.000   3.189   1.550  0.7408 -0.3656 -0.4290
56862SOL    HW179364   6.966   3.153   1.632 -0.3725  0.5982 -0.4380
56862SOL    HW279365   6.971   3.280   1.550  1.9399  0.0339 -1.2475
56863SOL     OW79366   5.145  11.285   4.419 -0.3222  0.5931  0.9392
56863SOL    HW179367   5.124  11.201   4.379  0.7134  0.9541 -0.4289
56863SOL    HW279368   5.162  11.343   4.346 -0.1272  1.7712  1.8866
56864SOL     OW79369  10.228   5.734   2.353  0.0043 -0.0358 -0.6774
56864SOL    HW179370  10.264   5.819   2.377 -1.1624  0.2608  0.1001
56864SOL    HW279371  10.285   5.671   2.398 -0.3217  0.4214  0.4226
56865SOL     OW79372  11.016   5.147   4.948  0.3947  0.2648 -0.3587
56865SOL    HW179373  11.069   5.199   4.888  1.8623  0.4635  1.0465
56865SOL    HW279374  11.062   5.063   4.954 -0.8904 -0.5292 -1.0935
56866SOL     OW79375   0.537   0.026  10.525 -0.3199  0.5782  0.9381
56866SOL    HW179376   0.444   0.041  10.543 -1.0089 -1.1067 -0.8999
56866SOL    HW279377   0.558  -0.055  10.570 -0.0420  0.3765  0.4566
56867SOL     OW79378   4.781   3.306   8.718 -0.1246 -0.2309  0.1840
56867SOL    HW179379   4.721   3.378   8.739 -0.7638 -1.4650  3.2042
56867SOL    HW279380   4.865   3.333   8.755 -0.5403 -1.1942  2.0152
56868SOL     OW79381   8.382   3.692   5.564 -0.2538  0.2572 -0.1808
56868SOL    HW179382   8.461   3.720   5.518  1.2551 -1.0947  1.4685
56868SOL    HW279383   8.361   3.765   5.623  0.6075  0.0672  0.3756
56869SOL     OW79384   0.428   5.126   4.107  0.1025 -0.3250  0.9047
56869SOL    HW179385   0.415   5.220   4.121 -0.8672 -0.1255 -0.9572
56869SOL    HW279386   0.422   5.087   4.194 -4.8432  0.7698  1.3404
56870SOL     OW79387   4.362  10.890   4.931  0.0731  0.1389  0.2203
56870SOL    HW179388   4.385  10.852   4.846 -2.1536 -1.3310  0.1628
56870SOL    HW279389   4.430  10.860   4.991  0.4220 -0.7665 -0.6089
56871SOL     OW79390   5.866   8.100   5.383  0.1558  0.3975 -0.9251
56871SOL    HW179391   5.793   8.150   5.422  1.4489  2.9940 -1.6248
56871SOL    HW279392   5.880   8.027   5.444  0.6394  3.0058  2.3915
56872SOL     OW79393  12.506  11.324   0.991 -0.1371  0.0673 -0.1087
56872SOL    HW179394  12.518  11.400   1.048  0.5137 -1.2132  1.5544
56872SOL    HW279395  12.454  11.357   0.918  2.0024  2.6478 -0.6218
56873SOL     OW79396   1.073   4.402   2.632  0.5713  0.0038  0.3809
56873SOL    HW179397   1.022   4.398   2.713 -0.0969  1.2339  0.0575
56873SOL    HW279398   1.018   4.453   2.572  0.7209 -1.5049 -1.1039
56874SOL     OW79399   0.608   1.992   5.582 -0.1068 -0.4628  1.0464
56874SOL    HW179400   0.582   1.901   5.565 -0.4581 -0.0571 -0.8712
56874SOL    HW279401   0.539   2.027   5.638 -1.0143 -0.8336  0.1851
56875SOL     OW79402  10.961  11.123  10.092 -0.4424 -0.6486 -0.2217
56875SOL    HW179403  11.003  11.063  10.153  0.6127 -0.1432 -0.4389
56875SOL    HW279404  11.031  11.154  10.035 -0.5353  2.2286  1.0371
56876SOL     OW79405   4.240   6.755  10.109 -0.2625 -0.2209 -0.3223
56876SOL    HW179406   4.185   6.744  10.032 -0.5297  1.1998 -0.3537
56876SOL    HW279407   4.316   6.698  10.092 -1.4074 -1.7591 -0.5312
56877SOL     OW79408   1.389   7.719  10.171  0.4159 -0.4080  0.6488
56877SOL    HW179409   1.477   7.752  10.153  0.0833  0.3818  0.3984
56877SOL    HW279410   1.368   7.665  10.095 -0.3120  1.5231 -0.6048
56878SOL     OW79411   3.296  11.236   7.515  0.0625  0.2840  0.3463
56878SOL    HW179412   3.319  11.322   7.548 -2.5513  1.2783 -0.1801
56878SOL    HW279413   3.259  11.190   7.590  1.7643 -0.5555  0.7106
56879SOL     OW79414  12.545   2.409   0.872 -0.0170 -0.0835 -0.0295
56879SOL    HW179415  12.473   2.405   0.809  0.9767 -0.3238 -1.1868
56879SOL    HW279416  12.502   2.421   0.957 -1.3468  1.8647 -0.8931
56880SOL     OW79417   2.884   8.586   8.562  0.7336 -0.0643  0.3652
56880SOL    HW179418   2.851   8.675   8.547  0.2088  0.0955  2.2367
56880SOL    HW279419   2.975   8.589   8.530 -0.6235 -0.3254 -4.2232
56881SOL     OW79420   2.990   4.617  10.161 -0.4062  0.3761  0.2991
56881SOL    HW179421   3.057   4.589  10.223  0.2104  1.5356  0.1803
56881SOL    HW279422   3.014   4.575  10.079  0.1027  0.6608  0.2966
56882SOL     OW79423   7.801  10.765   7.303  0.1608  0.0752  0.5627
56882SOL    HW179424   7.756  10.730   7.227 -0.1217 -1.6015  1.4708
56882SOL    HW279425   7.750  10.842   7.328  0.3856  0.7860 -1.0298
56883SOL     OW79426   1.959   4.684  10.007  0.1245 -0.2065 -0.5056
56883SOL    HW179427   1.950   4.778   9.995 -1.7586 -0.3289 -0.4269
56883SOL    HW279428   1.953   4.648   9.919 -0.4366 -0.3064 -0.4339
56884SOL     OW79429   8.196   2.687  11.009 -0.0931  0.0064 -0.4131
56884SOL    HW179430   8.113   2.734  10.999  0.0875  0.1976 -1.0671
56884SOL    HW279431   8.263   2.755  11.010  0.0444 -0.1370  0.2967
56885SOL     OW79432  11.603   8.329   1.002 -0.2574 -0.4758  0.4640
56885SOL    HW179433  11.598   8.392   1.074 -0.5107 -0.5660  0.5274
56885SOL    HW279434  11.672   8.268   1.028  0.8767  0.4923 -0.1779
56886SOL     OW79435  11.624  10.825   8.547 -0.4534 -0.2688 -0.8368
56886SOL    HW179436  11.603  10.795   8.635  0.3235 -0.7894 -0.8192
56886SOL    HW279437  11.693  10.766   8.517  0.9489  1.3258 -0.9065
56887SOL     OW79438  12.470   0.803   0.831 -0.3349 -0.3712 -0.3839
56887SOL    HW179439  12.378   0.804   0.805  0.2230 -0.3363 -2.5008
56887SOL    HW279440  12.487   0.712   0.856 -0.8348 -0.4613 -0.3656
56888SOL     OW79441   9.174   0.921  12.262 -0.0949  0.3169  0.8536
56888SOL    HW179442   9.267   0.932  12.240  0.0188 -0.1628  1.0986
56888SOL    HW279443   9.163   0.969  12.344 -0.0638  0.3743  0.8246
56889SOL     OW79444   9.656   4.212   7.966  0.5841 -0.0302 -0.4634
56889SOL    HW179445   9.596   4.139   7.955  1.9148 -1.5807  1.8292
56889SOL    HW279446   9.641   4.243   8.056  1.7349  0.9206 -0.5643
56890SOL     OW79447  11.987  11.376  11.344 -0.3364  0.7890  0.4789
56890SOL    HW179448  12.046  11.409  11.276 -1.0678  2.1047  0.4590
56890SOL    HW279449  11.989  11.281  11.332 -0.7484  0.9976 -1.6493
56891SOL     OW79450   4.630   8.504  10.603  0.1772  0.1811  0.1530
56891SOL    HW179451   4.621   8.475  10.693 -1.0594  1.5724  0.5374
56891SOL    HW279452   4.540   8.521  10.574  0.6951  3.2413 -0.0781
56892SOL     OW79453   1.706   2.933   6.492 -0.0524  0.1759 -0.5982
56892SOL    HW179454   1.701   2.930   6.588 -1.0200  2.2294 -0.5246
56892SOL    HW279455   1.622   2.970   6.465  0.6181  0.6270 -2.1605
56893SOL     OW79456   6.039  11.097  10.038 -0.1438 -0.1928  0.4110
56893SOL    HW179457   6.029  11.181   9.993  0.8185 -0.7228 -0.8642
56893SOL    HW279458   5.990  11.035   9.984  2.7469 -1.2356 -1.2231
56894SOL     OW79459   9.648   0.859   9.378  0.4589 -0.5494  0.0039
56894SOL    HW179460   9.697   0.937   9.354  0.5130 -0.4157  0.5450
56894SOL    HW279461   9.625   0.871   9.470  2.1831 -2.0788  0.6930
56895SOL     OW79462   5.357   5.270   4.596 -0.2846  0.0702  0.2888
56895SOL    HW179463   5.447   5.299   4.580  0.5596 -1.6834  1.5675
56895SOL    HW279464   5.303   5.341   4.562  1.5845  1.4648  0.0647
56896SOL     OW79465   2.640   6.289   6.103 -0.0590 -0.1553 -0.2057
56896SOL    HW179466   2.562   6.267   6.154 -1.0567  1.7780 -0.8057
56896SOL    HW279467   2.695   6.340   6.163 -0.5714  0.8838 -0.5981
56897SOL     OW79468  10.528  11.381   5.842 -1.2376  0.5665  0.1683
56897SOL    HW179469  10.536  11.308   5.781  0.8550  0.3563  0.6330
56897SOL    HW279470  10.435  11.385   5.862 -1.4102 -2.1387  0.3212
56898SOL     OW79471   9.502   1.771  11.180  0.2039 -0.5506  0.1883
56898SOL    HW179472   9.447   1.739  11.108 -0.9703 -1.0785  1.2846
56898SOL    HW279473   9.466   1.857  11.201  0.7583 -0.2541 -0.0688
56899SOL     OW79474  12.438   6.118  10.325 -0.4017  0.0768  0.5457
56899SOL    HW179475  12.480   6.198  10.355 -0.4900 -0.4646  2.1755
56899SOL    HW279476  12.374   6.097  10.393  0.6490 -2.1813  0.9362
56900SOL     OW79477   9.547  12.612   2.614 -0.1762 -0.6256 -0.2357
56900SOL    HW179478   9.489  12.665   2.560  0.9125 -0.3818 -1.2119
56900SOL    HW279479   9.491  12.577   2.683 -1.1343  0.9194 -0.1895
56901SOL     OW79480   7.519   9.742  12.291  0.4622 -0.0194  0.0163
56901SOL    HW179481   7.568   9.809  12.242 -0.6667  0.2559 -0.7599
56901SOL    HW279482   7.429   9.751  12.261 -0.0145 -0.7674  1.1628
56902SOL     OW79483   1.365   7.702   6.961  0.0434 -0.1501 -0.0196
56902SOL    HW179484   1.378   7.613   6.929 -0.8421 -0.4781  0.4996
56902SOL    HW279485   1.311   7.744   6.894 -1.5688 -0.7503  0.8563
56903SOL     OW79486   8.081   5.996   2.251 -0.0460 -0.2927  0.1280
56903SOL    HW179487   7.997   6.024   2.287  0.1093 -0.1211  0.3616
56903SOL    HW279488   8.079   6.024   2.159 -1.0524 -2.0553 -0.4177
56904SOL     OW79489   8.328   7.040   1.888  0.5392  0.1508 -0.2065
56904SOL    HW179490   8.282   6.976   1.942 -0.4124 -1.3479 -2.6162
56904SOL    HW279491   8.367   7.101   1.951 -2.1053 -0.2893  2.0896
56905SOL     OW79492   1.763   7.990   6.068 -0.2067 -0.1082  0.2986
56905SOL    HW179493   1.799   8.055   6.129  1.5313 -1.8255  1.2303
56905SOL    HW279494   1.669   8.002   6.073  0.0402  1.8851  0.9319
56906SOL     OW79495   8.088   3.887   6.118  0.1832 -0.3465 -0.6821
56906SOL    HW179496   8.077   3.909   6.025 -2.1077  1.3468 -0.0995
56906SOL    HW279497   8.059   3.796   6.124  0.7822 -0.6292 -1.6635
56907SOL     OW79498   6.389   4.415  11.223  0.2289  0.3288  0.1141
56907SOL    HW179499   6.361   4.400  11.133  0.4086 -0.9736  0.2520
56907SOL    HW279500   6.320   4.373  11.276  0.6386  0.1951  0.5424
56908SOL     OW79501   9.820   8.825   5.655 -0.2796 -0.2547  0.6024
56908SOL    HW179502   9.802   8.877   5.576 -0.4016 -1.9563 -0.5505
56908SOL    HW279503   9.877   8.881   5.708  0.4910  0.6296 -1.0672
56909SOL     OW79504   9.658   9.938   0.337 -0.6983 -0.7402  0.2013
56909SOL    HW179505   9.722   9.875   0.302  0.0326  0.4198 -0.6257
56909SOL    HW279506   9.692   9.960   0.424  0.2766  0.1301 -0.3643
56910SOL     OW79507   3.762   7.908   0.445  0.1118  0.0599  0.3362
56910SOL    HW179508   3.671   7.934   0.461 -0.4482 -1.4958 -0.1511
56910SOL    HW279509   3.806   7.921   0.529 -0.8313 -0.2250  0.8910
56911SOL     OW79510  10.267   7.159   2.450 -0.3459  0.5789  0.3428
56911SOL    HW179511  10.266   7.091   2.382 -1.0005 -1.2609  2.0975
56911SOL    HW279512  10.200   7.221   2.422 -2.7498 -1.6692  0.6705
56912SOL     OW79513   0.963   7.459   9.651 -0.2650 -0.0183  0.0747
56912SOL    HW179514   1.015   7.385   9.683 -0.1642 -0.4515 -1.0512
56912SOL    HW279515   0.872   7.429   9.658 -0.2980  0.2254  0.7668
56913SOL     OW79516  10.122  12.536   9.663 -0.0043  0.2440 -0.5922
56913SOL    HW179517  10.193  12.483   9.698  1.0149  0.9428 -1.5319
56913SOL    HW279518  10.139  12.624   9.697 -2.2772 -0.1219  1.8487
56914SOL     OW79519  12.429   4.303   6.824  0.7219 -0.0660  0.0328
56914SOL    HW179520  12.391   4.217   6.836  0.3818  0.0960  0.1339
56914SOL    HW279521  12.505   4.289   6.768  0.0745 -0.2917 -0.8100
56915SOL     OW79522   7.345   9.906   4.920  0.4912 -0.3329  0.4358
56915SOL    HW179523   7.351   9.846   4.995  1.5463 -0.7123  0.0617
56915SOL    HW279524   7.355   9.993   4.959  0.9390 -0.5215  0.7540
56916SOL     OW79525   2.073   6.603  10.918  0.1923 -0.0673 -0.3012
56916SOL    HW179526   2.136   6.533  10.933 -0.8203 -0.9457 -0.0757
56916SOL    HW279527   2.017   6.603  10.996  0.4607  1.3150 -0.0747
56917SOL     OW79528   8.065   4.036   2.091  0.3492 -0.7211 -0.1560
56917SOL    HW179529   8.079   4.112   2.035  0.6050 -0.2653  0.5266
56917SOL    HW279530   8.074   4.069   2.180 -1.2984 -1.1848  0.2099
56918SOL     OW79531   2.662   0.844  10.553 -0.2171  0.0933  0.3764
56918SOL    HW179532   2.596   0.911  10.536 -0.3864  0.0245  0.7390
56918SOL    HW279533   2.721   0.848  10.478 -0.1513  0.7368  0.4516
56919SOL     OW79534   7.628   2.008   8.951  0.6244  0.0231  0.3154
56919SOL    HW179535   7.626   2.091   8.903  1.2143 -0.1396  0.0065
56919SOL    HW279536   7.543   1.967   8.931  0.4330  0.4393  0.2711
56920SOL     OW79537  11.532   8.827   3.432  0.4780 -0.4353 -0.1923
56920SOL    HW179538  11.504   8.797   3.345  0.0668  1.3883 -0.7314
56920SOL    HW279539  11.453   8.865   3.471  0.8037 -0.6980  0.7439
56921SOL     OW79540   3.466  11.506  10.050  0.0442 -0.3960  0.2347
56921SOL    HW179541   3.550  11.482  10.011 -0.7115 -0.0529 -1.7406
56921SOL    HW279542   3.489  11.563  10.123  1.5192 -0.0591 -0.4480
56922SOL     OW79543   2.049   3.062   6.854  0.0466 -0.2777 -0.0688
56922SOL    HW179544   2.083   2.987   6.806  0.7433 -0.7072  1.0396
56922SOL    HW279545   2.089   3.138   6.813  1.2372 -0.6877  0.2909
56923SOL     OW79546   8.190   7.131   8.806 -0.4809 -0.0299  0.8307
56923SOL    HW179547   8.141   7.059   8.845  1.5625 -1.3155  1.1373
56923SOL    HW279548   8.141   7.209   8.831 -1.9559 -1.1809  1.7230
56924SOL     OW79549  10.693   9.248   4.046 -0.5780 -0.0727 -0.1768
56924SOL    HW179550  10.746   9.281   3.973 -0.4905 -0.5837 -0.3526
56924SOL    HW279551  10.605   9.242   4.010 -0.4544 -0.7329 -0.3765
56925SOL     OW79552   2.297   4.223   0.057  0.4388 -0.2171 -0.4471
56925SOL    HW179553   2.287   4.300   0.112 -1.0642  0.2780 -1.3560
56925SOL    HW279554   2.282   4.255  -0.032  2.9508 -0.9628 -1.2388
56926SOL     OW79555   0.308   3.664  12.215 -0.3642  0.0951  0.4828
56926SOL    HW179556   0.307   3.683  12.121 -2.0755  2.2375  0.8698
56926SOL    HW279557   0.362   3.732  12.253 -0.0060 -0.5290  1.1176
56927SOL     OW79558   4.314  12.287   0.413  0.2594  0.1727  0.1799
56927SOL    HW179559   4.318  12.268   0.507 -2.2453  0.3175  0.3925
56927SOL    HW279560   4.285  12.378   0.408 -0.5577 -0.1186 -0.7155
56928SOL     OW79561   0.562  12.118   7.961  0.2116 -0.5187  0.2642
56928SOL    HW179562   0.557  12.172   7.882  0.1056 -0.4133  0.3426
56928SOL    HW279563   0.487  12.144   8.013 -1.3098 -2.5039 -0.7939
56929SOL     OW79564   5.803  11.343  10.161  0.5218  0.3434 -0.5317
56929SOL    HW179565   5.715  11.359  10.126 -0.7700 -1.0645  1.7608
56929SOL    HW279566   5.860  11.401  10.111 -1.8983  2.3381 -1.1970
56930SOL     OW79567   6.125   1.620   6.755  0.4977  0.0753 -0.5223
56930SOL    HW179568   6.173   1.702   6.741 -0.5727  0.7000 -0.6016
56930SOL    HW279569   6.168   1.580   6.831  0.5254  1.1049  0.0204
56931SOL     OW79570   0.528   4.648   9.488 -0.4218  0.1309  0.3054
56931SOL    HW179571   0.533   4.682   9.577 -1.3906  1.1115  0.0153
56931SOL    HW279572   0.510   4.555   9.499  2.0933 -0.3233  1.1290
56932SOL     OW79573   7.029  11.589   9.658 -0.5671 -0.4772  0.1792
56932SOL    HW179574   6.936  11.605   9.645 -0.3222  0.1931 -0.8632
56932SOL    HW279575   7.067  11.676   9.667 -0.1335 -0.7744  1.3348
56933SOL     OW79576   3.957  11.223   3.085  0.5288  0.1184 -0.4457
56933SOL    HW179577   3.882  11.166   3.068 -0.5932  1.8116 -1.4978
56933SOL    HW279578   4.030  11.163   3.099 -0.6596 -1.5726 -1.1689
56934SOL     OW79579   8.594   6.429  12.498 -0.3926  0.4194 -0.2617
56934SOL    HW179580   8.524   6.491  12.475 -0.5842  0.0817 -0.5951
56934SOL    HW279581   8.564   6.345  12.463 -1.0208 -0.2677  1.7763
56935SOL     OW79582   1.380   6.397  10.069 -0.3152 -0.1380  0.4747
56935SOL    HW179583   1.460   6.374  10.022 -0.8944 -0.7795 -0.2141
56935SOL    HW279584   1.338   6.313  10.086 -1.0870  0.2278  0.3853
56936SOL     OW79585   1.437   4.759   4.536  0.4446  0.2542  0.0659
56936SOL    HW179586   1.481   4.844   4.548  2.6255 -0.7676 -0.1944
56936SOL    HW279587   1.397   4.765   4.449  2.7941  0.1972 -1.1276
56937SOL     OW79588   0.026   5.720   6.184 -0.3675 -0.0692  0.0404
56937SOL    HW179589   0.114   5.684   6.177 -0.8215 -1.6146  1.3742
56937SOL    HW279590   0.018   5.748   6.275 -1.8080 -1.7039  0.4864
56938SOL     OW79591   6.073   1.237   7.963 -0.0162 -0.0403 -0.0335
56938SOL    HW179592   5.993   1.288   7.957 -0.5232 -0.8621 -0.4969
56938SOL    HW279593   6.096   1.238   8.056 -1.7808 -1.5675  0.4747
56939SOL     OW79594   4.754   0.650   3.904 -0.4702  0.4038 -0.4615
56939SOL    HW179595   4.817   0.602   3.957 -0.9500  0.3339  0.0497
56939SOL    HW279596   4.780   0.630   3.813  0.2811  0.4426 -0.2637
56940SOL     OW79597  11.499   5.382   7.467  0.4109 -0.3570 -0.4146
56940SOL    HW179598  11.507   5.355   7.559  1.1092 -1.1214 -0.6848
56940SOL    HW279599  11.580   5.432   7.451  0.0260  0.2643 -0.4670
56941SOL     OW79600   3.620   1.639   1.594  0.2220 -0.6073 -0.0308
56941SOL    HW179601   3.538   1.594   1.615 -0.9141  1.8224  1.2006
56941SOL    HW279602   3.671   1.634   1.675 -0.3237  1.0174  0.4554
56942SOL     OW79603   1.380   5.727   7.265  0.3773 -0.0707  0.2963
56942SOL    HW179604   1.309   5.780   7.227  0.3779 -0.9910 -1.0617
56942SOL    HW279605   1.388   5.653   7.205  1.3509 -0.8561  1.3784
56943SOL     OW79606   6.971   8.167  12.175 -0.2067 -0.2593  0.3020
56943SOL    HW179607   6.995   8.178  12.083  0.8408  1.9346  0.7778
56943SOL    HW279608   7.001   8.248  12.218 -4.0072  0.5207  1.8979
56944SOL     OW79609   9.443  12.082   6.063 -0.6532 -0.3014  0.4723
56944SOL    HW179610   9.399  12.053   5.983 -0.7775 -0.8651  0.7335
56944SOL    HW279611   9.376  12.131   6.111 -0.7228 -0.3737  0.4493
56945SOL     OW79612   2.914   1.149  10.299 -0.5351  0.2856 -0.2496
56945SOL    HW179613   2.906   1.139  10.204 -0.9268 -2.5180 -0.0000
56945SOL    HW279614   2.919   1.059  10.333  2.0224  1.1915  2.2189
56946SOL     OW79615  11.938   8.475   2.760 -0.0247 -0.5077  0.4013
56946SOL    HW179616  12.027   8.478   2.724 -0.7136 -0.0885 -1.3751
56946SOL    HW279617  11.938   8.541   2.829  0.7164  0.3535 -0.3982
56947SOL     OW79618   1.213   7.805  12.544 -0.1582  0.4931  0.2183
56947SOL    HW179619   1.128   7.827  12.507  0.1123  0.2600 -0.5571
56947SOL    HW279620   1.276   7.827  12.475  0.2611 -1.0243  0.0840
56948SOL     OW79621   1.409   1.634   5.064  0.0359  0.1621  0.8496
56948SOL    HW179622   1.473   1.587   5.012 -0.9995 -0.0123 -0.3387
56948SOL    HW279623   1.344   1.568   5.088 -2.1562  1.0597 -1.9831
56949SOL     OW79624  12.227  12.314   0.033  0.7878  0.4149  0.1790
56949SOL    HW179625  12.174  12.343   0.107 -0.9996 -1.4497 -0.2871
56949SOL    HW279626  12.176  12.338  -0.044  2.1950  1.5031 -0.4482
56950SOL     OW79627   1.579   3.910  11.186  0.7907  0.3026 -0.3999
56950SOL    HW179628   1.512   3.978  11.190 -0.0830 -0.3799 -2.0965
56950SOL    HW279629   1.640   3.931  11.256 -0.7438  1.4461  0.6611
56951SOL     OW79630  12.113   0.428   8.906 -0.0010 -0.6101  0.2078
56951SOL    HW179631  12.188   0.426   8.847 -1.4713  0.1706 -1.8449
56951SOL    HW279632  12.040   0.397   8.852 -1.0753 -1.8888  2.2851
56952SOL     OW79633   8.090   7.166   8.236 -0.1032 -0.2399 -0.6730
56952SOL    HW179634   8.177   7.133   8.260 -0.6939 -1.0515  0.4689
56952SOL    HW279635   8.054   7.200   8.319 -0.6822  0.5658 -1.2356
56953SOL     OW79636   7.318   3.143   7.435  0.5179 -0.3690  0.1050
56953SOL    HW179637   7.292   3.203   7.505 -1.1398  0.0562 -0.8311
56953SOL    HW279638   7.395   3.098   7.471  0.1844  0.3634  1.8916
56954SOL     OW79639   1.849   3.144   3.254  0.0739  0.2758 -0.3398
56954SOL    HW179640   1.917   3.112   3.313  0.5522 -0.0412 -1.0371
56954SOL    HW279641   1.836   3.072   3.192 -2.9396 -0.8824  1.3896
56955SOL     OW79642   8.227   2.738  12.365 -0.0856 -0.3406 -0.5916
56955SOL    HW179643   8.156   2.683  12.397  0.1731 -1.0126 -1.1395
56955SOL    HW279644   8.189   2.825  12.359 -0.3478 -0.3271  0.8285
56956SOL     OW79645   8.757   7.743   4.124  0.2025  0.4912 -0.5448
56956SOL    HW179646   8.726   7.715   4.210 -1.2759 -1.7993 -1.7290
56956SOL    HW279647   8.686   7.721   4.064  1.4035  1.5115 -2.4463
56957SOL     OW79648   0.954   0.300   4.248  0.4471 -0.4862 -0.3856
56957SOL    HW179649   0.883   0.246   4.281 -0.1460  0.3918 -0.2051
56957SOL    HW279650   0.992   0.248   4.177 -1.1790 -0.4504 -1.3436
56958SOL     OW79651   8.324   5.749   4.915 -0.1332 -0.5660 -0.5686
56958SOL    HW179652   8.318   5.669   4.968  2.6322 -1.8970 -2.0205
56958SOL    HW279653   8.383   5.725   4.843  0.1165  2.5750 -1.5527
56959SOL     OW79654   5.221   7.883   6.177 -0.0726 -0.6751 -0.0055
56959SOL    HW179655   5.205   7.952   6.241  0.1653 -1.6552  1.1440
56959SOL    HW279656   5.244   7.807   6.229  1.4585 -1.1646 -1.3026
56960SOL     OW79657   0.040  11.311  10.588 -0.4314 -0.8044  0.1854
56960SOL    HW179658   0.113  11.366  10.558  0.1468 -0.6563  1.8029
56960SOL    HW279659  -0.035  11.371  10.592  0.3877  0.1318  2.7610
56961SOL     OW79660   3.095   3.343   1.235 -0.1690  0.2450  0.0259
56961SOL    HW179661   3.004   3.373   1.225  0.3057  1.9823  0.6789
56961SOL    HW279662   3.115   3.301   1.151 -1.8984 -1.1631  0.2431
56962SOL     OW79663   7.035   8.465  10.056 -0.1363  0.0160  0.5889
56962SOL    HW179664   7.028   8.370  10.046 -0.2708  0.2097 -1.7424
56962SOL    HW279665   6.970   8.501   9.995  2.5539  1.5810 -1.5967
56963SOL     OW79666   1.718   8.311   0.823 -0.2620 -0.3686 -0.1625
56963SOL    HW179667   1.804   8.281   0.854 -0.6084 -0.3789  0.8319
56963SOL    HW279668   1.702   8.259   0.744  0.1345 -1.2174  0.3005
56964SOL     OW79669   0.117   0.082  12.015  0.2737  0.0491 -0.5724
56964SOL    HW179670   0.188   0.097  12.078 -0.1509  1.3328 -0.3805
56964SOL    HW279671   0.131  -0.008  11.985  1.6112  0.0693 -0.0748
56965SOL     OW79672   0.422   7.963   2.391  0.0126 -0.4177 -0.0487
56965SOL    HW179673   0.371   7.891   2.427 -1.4958 -0.0910 -1.3876
56965SOL    HW279674   0.356   8.021   2.352  1.2908  0.9862 -0.2147
56966SOL     OW79675  10.921  12.357   5.982 -0.3880 -0.0419 -0.8145
56966SOL    HW179676  10.920  12.452   5.998 -1.1651 -0.2871  0.8789
56966SOL    HW279677  10.832  12.328   6.001 -0.0207 -1.1866 -0.7368
56967SOL     OW79678   4.240   4.005   3.004  0.1130  0.1059 -0.2186
56967SOL    HW179679   4.291   3.936   2.961 -2.0159 -0.6752 -1.6573
56967SOL    HW279680   4.239   3.981   3.096 -0.8314 -2.0118 -0.7240
56968SOL     OW79681   8.558   2.625   4.911  0.3367  0.1069  0.7952
56968SOL    HW179682   8.607   2.561   4.859 -0.2427  1.5420 -1.6810
56968SOL    HW279683   8.622   2.662   4.971  0.7952 -2.3841  1.9719
56969SOL     OW79684   5.734   2.145  11.463  0.1790  0.3637 -0.7209
56969SOL    HW179685   5.695   2.192  11.536  0.3264  2.1324 -1.7328
56969SOL    HW279686   5.813   2.106  11.500 -0.7485 -0.4107  0.5095
56970SOL     OW79687   3.643   0.887   7.700 -0.7603  0.2383  0.0806
56970SOL    HW179688   3.735   0.864   7.708 -0.5927  1.0881  0.8353
56970SOL    HW279689   3.600   0.807   7.670  0.3075  0.0028 -0.8716
56971SOL     OW79690   2.851   2.485   3.773 -0.3272  0.8245 -0.5857
56971SOL    HW179691   2.927   2.433   3.745  1.5892  2.8338  0.6121
56971SOL    HW279692   2.862   2.569   3.728 -1.6972  1.2725 -0.1292
56972SOL     OW79693   1.337  10.701   8.537  0.5727 -0.2029 -0.0195
56972SOL    HW179694   1.295  10.773   8.583 -1.0438 -1.0002 -0.1786
56972SOL    HW279695   1.426  10.698   8.573 -0.3734 -0.2758  2.4759
56973SOL     OW79696   7.412   7.332   8.844 -0.1690  0.5472  0.0332
56973SOL    HW179697   7.408   7.427   8.829 -0.5102  0.3940 -0.9353
56973SOL    HW279698   7.334   7.312   8.895  0.0480  0.8247  0.4783
56974SOL     OW79699   8.841   3.676   8.449 -0.5549 -0.2856 -0.0666
56974SOL    HW179700   8.828   3.611   8.380 -2.2289 -0.4604  0.3735
56974SOL    HW279701   8.773   3.741   8.433  1.1079  1.4183 -0.5140
56975SOL     OW79702  12.514  12.472   8.679 -0.5226  0.6503  0.0738
56975SOL    HW179703  12.492  12.565   8.682 -2.1992  0.2637  0.9903
56975SOL    HW279704  12.478  12.441   8.596 -0.7730  0.6375  0.1865
56976SOL     OW79705  12.126   8.620   7.170  0.2321 -0.3242  0.2560
56976SOL    HW179706  12.046   8.661   7.138  0.2806 -0.8949 -0.6463
56976SOL    HW279707  12.098   8.533   7.200  0.3296 -0.1066  0.9845
56977SOL     OW79708   1.094   2.967  10.827 -0.5001  0.6507 -0.2276
56977SOL    HW179709   1.172   3.018  10.808  1.2513 -1.8936 -0.3482
56977SOL    HW279710   1.045   2.967  10.745  0.1775  0.9667 -0.6398
56978SOL     OW79711   3.364   4.791   0.594  0.3065 -0.1130  0.2663
56978SOL    HW179712   3.296   4.854   0.569  1.7816  0.9439 -1.3313
56978SOL    HW279713   3.381   4.810   0.686 -0.8487  0.2880  0.4180
56979SOL     OW79714   3.223  10.309   0.806  0.5229  0.0746 -0.0608
56979SOL    HW179715   3.145  10.305   0.860  0.7730 -1.0422  0.2490
56979SOL    HW279716   3.277  10.236   0.836  1.9215  1.1271  0.0825
56980SOL     OW79717   5.330  12.156  11.836  0.1557  0.0741  0.3452
56980SOL    HW179718   5.376  12.117  11.761 -0.4341 -0.4048  0.2269
56980SOL    HW279719   5.258  12.096  11.853  1.0162 -0.5402  2.1047
56981SOL     OW79720   0.776   8.644   4.819  0.0502  0.0922  0.5286
56981SOL    HW179721   0.759   8.559   4.861  1.0334  0.9720  2.9129
56981SOL    HW279722   0.708   8.701   4.854  0.7245  0.7877  0.7324
56982SOL     OW79723   1.569   3.082   8.641 -0.5677 -0.0397  0.1806
56982SOL    HW179724   1.652   3.124   8.664 -0.4955  0.3563 -0.7396
56982SOL    HW279725   1.570   3.079   8.545  0.2836 -3.9380  0.1540
56983SOL     OW79726   6.659  11.857  11.165 -0.5150  0.4482  0.6543
56983SOL    HW179727   6.715  11.822  11.096  0.4675  0.9440  1.1670
56983SOL    HW279728   6.604  11.922  11.121 -1.8605 -1.1808 -0.1652
56984SOL     OW79729   5.505   1.329   6.486  0.1548  0.6279 -0.0804
56984SOL    HW179730   5.540   1.412   6.517  0.4479  0.7312 -0.6778
56984SOL    HW279731   5.554   1.310   6.406 -0.1002  0.0194 -0.0994
56985SOL     OW79732   5.125   4.905   4.023  0.2230  0.3835  0.2100
56985SOL    HW179733   5.163   4.992   4.025  0.9351  0.0615  1.6743
56985SOL    HW279734   5.045   4.912   4.076  0.5496  0.0344  0.7556
56986SOL     OW79735  11.537  10.489   6.293 -0.5126  0.1152 -0.6927
56986SOL    HW179736  11.566  10.481   6.384  1.6773 -0.5132 -1.3807
56986SOL    HW279737  11.529  10.583   6.278 -1.7285  0.2087  0.3430
56987SOL     OW79738   1.052  12.228   4.451 -0.2483 -0.2736  0.2807
56987SOL    HW179739   1.068  12.175   4.373 -0.9383 -0.9989  0.6186
56987SOL    HW279740   1.059  12.319   4.421  1.1811 -0.5320 -0.2663
56988SOL     OW79741   1.039   5.972   5.084  0.2286 -0.0814  0.1644
56988SOL    HW179742   0.948   6.002   5.091  0.4687  0.5659  0.7288
56988SOL    HW279743   1.078   6.030   5.019  0.9383  1.5678  1.9283
56989SOL     OW79744  12.325   0.643   5.777  0.6761 -0.0566  0.2583
56989SOL    HW179745  12.297   0.554   5.754  3.4111 -1.1683  0.7823
56989SOL    HW279746  12.361   0.678   5.695  0.5532  0.1752  0.3041
56990SOL     OW79747   1.371  12.389   3.848 -0.6016  0.0708 -0.1522
56990SOL    HW179748   1.371  12.420   3.758  0.2757 -2.3250 -1.0814
56990SOL    HW279749   1.450  12.427   3.887  0.5415 -1.0071 -1.2962
56991SOL     OW79750  10.987   4.205   4.708 -0.1628  0.0823  0.0451
56991SOL    HW179751  11.031   4.122   4.689  1.0854  0.4012  1.3030
56991SOL    HW279752  10.930   4.185   4.782 -1.1153 -0.0102 -0.7006
56992SOL     OW79753   2.051  10.393   1.137 -0.1149  0.2209  0.4228
56992SOL    HW179754   2.068  10.305   1.168  0.1517 -0.8919 -2.5516
56992SOL    HW279755   1.970  10.419   1.181  1.0958 -0.4235  3.2420
56993SOL     OW79756   2.014  10.670   5.062  0.3723  0.3220 -0.0882
56993SOL    HW179757   1.990  10.763   5.066 -0.4048  0.1012  0.5262
56993SOL    HW279758   1.931  10.625   5.049  0.8608 -0.2294 -1.4674
56994SOL     OW79759  11.848   9.672   8.432  0.0580 -0.7606  0.1518
56994SOL    HW179760  11.771   9.677   8.489  0.1349 -2.1448  0.3952
56994SOL    HW279761  11.823   9.612   8.362  0.4738 -0.2007 -0.4875
56995SOL     OW79762   9.944   5.010   5.350  0.4357  0.1288 -0.5408
56995SOL    HW179763   9.978   4.986   5.264  0.4362 -0.0737 -0.4853
56995SOL    HW279764   9.866   5.062   5.332 -0.8318 -1.7155 -0.6705
56996SOL     OW79765   4.291  12.250   3.752  0.4142  0.6151 -0.3587
56996SOL    HW179766   4.217  12.288   3.799  1.2591  0.3953  1.1972
56996SOL    HW279767   4.255  12.228   3.665 -0.7204  2.5991 -0.4406
56997SOL     OW79768   0.180   4.537  12.502 -0.2690  0.0920 -0.2068
56997SOL    HW179769   0.126   4.512  12.428  0.4074  0.6913 -0.9185
56997SOL    HW279770   0.264   4.562  12.463  0.3450 -0.2914  0.8219
56998SOL     OW79771   5.858   4.227   3.676 -0.2876  0.0243 -0.2646
56998SOL    HW179772   5.798   4.294   3.644 -0.3928  0.2235  0.3391
56998SOL    HW279773   5.926   4.276   3.723 -0.1870 -0.2637 -0.1072
56999SOL     OW79774   3.975   9.486   2.419  0.1929 -0.0693  0.1097
56999SOL    HW179775   3.946   9.574   2.397  1.0616 -0.0788 -1.1736
56999SOL    HW279776   3.977   9.439   2.335  0.2638 -1.1601  0.6935
57000SOL     OW79777   3.841   4.715   8.116 -0.2379 -0.2165  0.0458
57000SOL    HW179778   3.887   4.722   8.033  0.2420 -1.6517  0.1456
57000SOL    HW279779   3.764   4.770   8.107  0.5202  0.7160 -0.8370
57001SOL     OW79780   4.697   4.838  12.072  0.3707 -0.7505 -0.3777
57001SOL    HW179781   4.684   4.862  11.979  1.0174  0.8079 -0.1051
57001SOL    HW279782   4.762   4.768  12.070  1.0430 -0.1338 -1.0773
57002SOL     OW79783   2.456   5.051   6.772 -0.2815  0.1959  0.3627
57002SOL    HW179784   2.435   5.095   6.690 -1.1110 -0.7546  0.0462
57002SOL    HW279785   2.378   5.062   6.826 -0.6480 -1.1779  0.1367
57003SOL     OW79786  10.695   0.517   7.487 -0.1933  0.3202 -0.1956
57003SOL    HW179787  10.716   0.480   7.573 -1.5490  1.1312  0.5142
57003SOL    HW279788  10.739   0.603   7.487  0.5113 -0.0327 -0.6660
57004SOL     OW79789   1.039  10.144   0.894 -0.0032  0.2877  0.4646
57004SOL    HW179790   1.116  10.189   0.927 -0.8489  0.6689  2.0047
57004SOL    HW279791   0.976  10.147   0.966 -2.0345  1.2961 -1.2245
57005SOL     OW79792  12.352   1.631   8.992  0.4597 -0.2642  0.2921
57005SOL    HW179793  12.372   1.597   8.905  1.1301 -2.7200  1.3075
57005SOL    HW279794  12.264   1.668   8.985  0.0805 -1.3674 -1.1801
57006SOL     OW79795   9.605   5.559  10.041 -0.1539 -0.3456 -0.0795
57006SOL    HW179796   9.618   5.503   9.964  0.0738  0.9636 -1.0174
57006SOL    HW279797   9.634   5.646  10.013 -1.7442  0.5501  0.9032
57007SOL     OW79798   8.751   2.941   6.979  0.0642  0.0173  0.5788
57007SOL    HW179799   8.704   2.914   6.900  0.2373 -0.7048  0.7211
57007SOL    HW279800   8.830   2.887   6.981  0.6990  0.9216  0.5759
57008SOL     OW79801   8.619   8.494   5.194 -0.1546  0.1069 -0.0516
57008SOL    HW179802   8.543   8.494   5.251 -0.5708 -3.5710 -0.3708
57008SOL    HW279803   8.694   8.486   5.254 -0.5061 -2.3714  0.1742
57009SOL     OW79804   7.884   1.071   3.712  0.1348 -0.5107 -0.1681
57009SOL    HW179805   7.835   0.996   3.679 -1.6977  0.6650 -0.2526
57009SOL    HW279806   7.939   1.098   3.638 -0.1737 -0.9615 -0.5657
57010SOL     OW79807  10.157   7.026  11.244 -0.6204 -0.4001 -0.0247
57010SOL    HW179808  10.085   6.995  11.298  0.1574 -0.4575  1.0078
57010SOL    HW279809  10.146   7.121  11.243 -1.3579 -0.4821 -0.8256
57011SOL     OW79810   7.553   6.905   2.421 -0.0923  0.0457 -0.0628
57011SOL    HW179811   7.513   6.951   2.494  1.0349 -0.0389  0.6385
57011SOL    HW279812   7.640   6.943   2.413  0.6681 -1.5352  0.1681
57012SOL     OW79813   9.756  10.835  11.194  0.4155  0.0209  0.1692
57012SOL    HW179814   9.768  10.761  11.253 -0.8733 -1.0865 -0.8993
57012SOL    HW279815   9.675  10.876  11.224  0.6163  0.4403  0.1537
57013SOL     OW79816   4.100   7.009   6.324 -0.1504  0.1516  0.0981
57013SOL    HW179817   4.123   7.016   6.232 -0.0121  1.2515  0.2021
57013SOL    HW279818   4.097   6.915   6.341  0.7079 -0.0543 -0.8000
57014SOL     OW79819   0.993   7.868   7.432  0.4285 -0.3618 -0.0666
57014SOL    HW179820   1.060   7.898   7.370 -0.0992  0.7167 -0.1525
57014SOL    HW279821   1.041   7.823   7.501  1.0153 -1.7279 -1.3258
57015SOL     OW79822   0.112   6.976   5.490 -0.0211  0.0824  0.2204
57015SOL    HW179823   0.152   6.892   5.471 -0.2430  0.3662 -1.7095
57015SOL    HW279824   0.067   6.963   5.573  0.8785 -1.3566  0.5145
57016SOL     OW79825   8.248   7.241  11.722 -0.1178  0.1482  0.5883
57016SOL    HW179826   8.317   7.181  11.750  0.7257  0.6680 -0.2703
57016SOL    HW279827   8.198   7.260  11.801 -0.6619 -1.9775  0.8101
57017SOL     OW79828   9.078  10.966   2.312  0.0008 -0.6454  0.1536
57017SOL    HW179829   9.003  10.972   2.371  0.6797 -0.5628  1.0443
57017SOL    HW279830   9.042  10.937   2.229 -1.4876  2.3409 -0.3855
57018SOL     OW79831   0.994  10.470  12.397  0.4639  0.3883  1.2073
57018SOL    HW179832   0.971  10.562  12.410  1.2582  0.9729 -1.0811
57018SOL    HW279833   0.921  10.433  12.348  0.8495  0.2282  0.7403
57019SOL     OW79834  11.159   9.037   0.071 -0.4424  0.0184  0.0041
57019SOL    HW179835  11.119   9.011  -0.013  0.3489 -1.3344  0.0103
57019SOL    HW279836  11.249   9.060   0.048 -0.1275 -0.6798  0.5159
57020SOL     OW79837  12.321   9.607  10.685  0.3420 -0.5894 -0.2464
57020SOL    HW179838  12.396   9.554  10.659  0.7124  0.1033 -0.6455
57020SOL    HW279839  12.358   9.676  10.739 -0.0247 -0.3216 -0.3290
57021SOL     OW79840   4.391  12.195   2.721 -0.0688  0.4378 -0.1048
57021SOL    HW179841   4.311  12.185   2.773 -0.4947 -0.6409 -0.9286
57021SOL    HW279842   4.458  12.221   2.785 -0.1469 -2.5739  1.3942
57022SOL     OW79843   7.858   1.240   7.880  0.1513 -0.3503  0.0738
57022SOL    HW179844   7.893   1.247   7.969  1.2444  0.0359 -0.3713
57022SOL    HW279845   7.764   1.255   7.890  0.2057 -0.6710  1.2090
57023SOL     OW79846   8.740   5.163   8.511 -0.0555  0.4611  0.0249
57023SOL    HW179847   8.830   5.146   8.482 -0.4188  0.3137 -1.0762
57023SOL    HW279848   8.746   5.166   8.606  1.0930  0.3168 -0.0222
57024SOL     OW79849   1.321   7.774   9.108  0.2329  0.2869 -0.0243
57024SOL    HW179850   1.416   7.781   9.096  0.4638 -1.4007  0.5457
57024SOL    HW279851   1.298   7.691   9.068 -0.8367  0.1530  0.8260
57025SOL     OW79852   8.630   3.902   1.203 -0.1905  0.0323 -0.1130
57025SOL    HW179853   8.548   3.852   1.207 -0.4299  0.2595 -1.5299
57025SOL    HW279854   8.698   3.836   1.191 -0.1886 -0.1308  0.7187
57026SOL     OW79855   7.371   1.794   9.699  0.2576  0.4073  0.5300
57026SOL    HW179856   7.390   1.797   9.793 -1.9407  2.6261  0.9790
57026SOL    HW279857   7.441   1.846   9.659 -0.5107  2.1097  1.3190
57027SOL     OW79858   0.306   6.431   0.796 -0.0003 -0.4450 -0.4935
57027SOL    HW179859   0.291   6.349   0.750  0.3239  0.1330 -1.6955
57027SOL    HW279860   0.244   6.492   0.756  0.1968  0.0436 -0.0667
57028SOL     OW79861  12.260   8.823   4.147 -0.3075 -0.3501 -0.1000
57028SOL    HW179862  12.344   8.797   4.110 -0.4546  0.8679 -1.3645
57028SOL    HW279863  12.196   8.804   4.079 -1.1187 -1.4451  0.9232
57029SOL     OW79864   5.970   1.701  12.032  0.3754 -0.1490 -0.3928
57029SOL    HW179865   5.962   1.607  12.049  0.6956 -0.1162 -0.0453
57029SOL    HW279866   5.965   1.741  12.119 -4.4390  0.5686 -0.7334
57030SOL     OW79867   6.774  10.099   8.594 -0.2938  1.0702  0.3817
57030SOL    HW179868   6.818  10.077   8.512  2.1540 -0.4233  1.9455
57030SOL    HW279869   6.711  10.028   8.608  1.2714 -0.2501  1.0723
57031SOL     OW79870   0.965  11.139  10.195  0.5301  0.3474  0.7313
57031SOL    HW179871   0.891  11.079  10.199  1.1748 -0.6178 -0.8204
57031SOL    HW279872   1.029  11.104  10.256  1.1038 -0.8967 -0.5225
57032SOL     OW79873   5.182   7.038   4.954  0.0073  0.4893 -0.2030
57032SOL    HW179874   5.236   7.029   4.876 -1.1509  0.3752 -1.0106
57032SOL    HW279875   5.243   7.064   5.023  1.2236 -0.4957 -0.8827
57033SOL     OW79876   9.385   1.254   2.137  0.5946 -0.6392 -0.3303
57033SOL    HW179877   9.354   1.252   2.228 -0.4215  0.1586 -0.6413
57033SOL    HW279878   9.391   1.348   2.116  3.7826 -0.6709 -0.1398
57034SOL     OW79879   6.619   2.598   5.364 -0.1807 -0.2415  0.0823
57034SOL    HW179880   6.565   2.549   5.426  0.0833  2.4194  2.6306
57034SOL    HW279881   6.557   2.634   5.301 -1.4581  2.0468  2.4600
57035SOL     OW79882   1.074   2.276   6.783 -0.5918  0.1020 -0.8691
57035SOL    HW179883   1.158   2.238   6.755  0.6632  3.3369 -2.0753
57035SOL    HW279884   1.044   2.325   6.706 -2.2398  1.1310  0.3710
57036SOL     OW79885   0.297   0.094   7.195  0.3583  0.1985 -0.2633
57036SOL    HW179886   0.341   0.035   7.134  0.3331  0.2779 -0.3583
57036SOL    HW279887   0.219   0.046   7.223  0.0850  0.3759 -0.7059
57037SOL     OW79888   2.463   9.835   7.034  0.0781  0.0399  0.1895
57037SOL    HW179889   2.480   9.911   7.090  0.3762 -2.0201  3.1050
57037SOL    HW279890   2.550   9.810   7.002  0.1315  0.2353  0.1784
57038SOL     OW79891   8.302   7.004  10.938 -0.1315  0.2804 -0.2098
57038SOL    HW179892   8.369   6.943  10.968 -0.6044 -1.5947 -2.6336
57038SOL    HW279893   8.312   7.081  10.995  3.6080 -0.1397 -0.0612
57039SOL     OW79894  11.355   3.047   8.260 -0.4879 -0.0037 -0.0626
57039SOL    HW179895  11.414   3.038   8.186  1.4366  1.3840  1.2017
57039SOL    HW279896  11.405   3.014   8.335 -1.5992  0.5263  0.9540
57040SOL     OW79897   5.780  10.259   0.114  0.6200  0.2533 -0.0062
57040SOL    HW179898   5.866  10.301   0.115  0.6162  0.2621  0.9346
57040SOL    HW279899   5.767  10.230   0.205  0.3842 -1.2843 -0.5098
57041SOL     OW79900   7.338   0.574   0.392 -0.2702 -0.0401 -0.4656
57041SOL    HW179901   7.274   0.554   0.460 -1.3891  1.8736 -0.8739
57041SOL    HW279902   7.287   0.578   0.311  0.8236 -1.0171 -1.2412
57042SOL     OW79903   3.674  11.918   1.265  0.7122  0.1281  0.1768
57042SOL    HW179904   3.666  11.998   1.214 -1.9117 -1.3959 -2.1090
57042SOL    HW279905   3.584  11.887   1.276  1.6139 -2.5842  0.8068
57043SOL     OW79906   5.180   3.142   3.560  0.6220  0.2953  0.3900
57043SOL    HW179907   5.167   3.176   3.649 -1.6060  0.7086 -0.0320
57043SOL    HW279908   5.205   3.051   3.573  0.4689  0.3860  1.4568
57044SOL     OW79909   5.646   3.140   2.034  0.3849  0.0199  0.0220
57044SOL    HW179910   5.597   3.222   2.031  0.4502  0.0808  0.4660
57044SOL    HW279911   5.597   3.084   2.094  0.9808  0.1761  0.6794
57045SOL     OW79912   9.757   2.404  11.981 -0.1314 -0.3465 -0.2374
57045SOL    HW179913   9.674   2.375  11.941 -0.7906  1.4655 -0.2493
57045SOL    HW279914   9.824   2.363  11.926 -1.0102 -0.5904 -1.1874
57046SOL     OW79915   2.588   8.039   0.055  0.2769 -0.2951 -0.6319
57046SOL    HW179916   2.521   8.017  -0.011  0.4609  0.2602 -1.0111
57046SOL    HW279917   2.550   8.009   0.137 -0.5248  0.1650 -0.8178
57047SOL     OW79918   3.738  11.687   6.421  0.0231  0.5893  0.5770
57047SOL    HW179919   3.788  11.635   6.358 -2.4258 -2.3889  0.8567
57047SOL    HW279920   3.766  11.656   6.507 -1.0419  0.1484  0.7728
57048SOL     OW79921  12.531   6.943   6.539 -0.1744 -0.1232  0.4685
57048SOL    HW179922  12.579   6.987   6.468  0.8680 -1.1105  0.5210
57048SOL    HW279923  12.599   6.923   6.604 -0.7929 -0.8741  0.9006
57049SOL     OW79924   4.739  12.439   5.370  0.2461  0.0200 -0.3761
57049SOL    HW179925   4.647  12.458   5.385  0.4453  0.4045  0.3781
57049SOL    HW279926   4.771  12.406   5.454  0.8402  0.0586 -0.5819
57050SOL     OW79927   3.129   6.450   6.238 -0.1300 -0.5069 -0.2476
57050SOL    HW179928   3.196   6.519   6.232 -0.3030 -0.3509 -0.3964
57050SOL    HW279929   3.170   6.374   6.196 -0.1198 -0.3524 -0.5215
57051SOL     OW79930   8.800  12.013   0.066 -0.3203  0.0799  0.1125
57051SOL    HW179931   8.856  11.968   0.001 -0.8612  1.2723 -1.2355
57051SOL    HW279932   8.712  11.984   0.045 -0.5351  0.7403  0.0964
57052SOL     OW79933   2.869  11.038   5.986 -0.2770  0.1579  0.3856
57052SOL    HW179934   2.900  11.094   5.915 -1.7767  0.1119 -0.3404
57052SOL    HW279935   2.862  10.951   5.946  2.3670 -0.7183  1.5881
57053SOL     OW79936   0.754  11.819   9.342 -0.7824  0.3668 -0.4578
57053SOL    HW179937   0.737  11.763   9.418  1.2535  0.2287 -0.0460
57053SOL    HW279938   0.667  11.850   9.316 -1.7421 -1.1797  0.6740
57054SOL     OW79939   3.460   9.520   0.659 -0.0427  0.0392 -0.2379
57054SOL    HW179940   3.536   9.498   0.605  0.3839  0.1730  0.3080
57054SOL    HW279941   3.392   9.542   0.595  0.3610 -0.1115 -0.7306
57055SOL     OW79942   8.852   4.646   3.485 -0.9233  0.6837 -0.0211
57055SOL    HW179943   8.764   4.638   3.450 -0.1828  2.4627 -2.5554
57055SOL    HW279944   8.909   4.612   3.416  0.4095 -1.1545  1.8663
57056SOL     OW79945  11.573  10.859   5.106 -0.1538 -0.7487 -0.6359
57056SOL    HW179946  11.487  10.839   5.069 -0.5246 -0.1661 -0.0983
57056SOL    HW279947  11.606  10.933   5.054 -0.5069 -0.1840 -0.0665
57057SOL     OW79948   0.681   1.269   9.856 -0.4689  0.1587  0.1933
57057SOL    HW179949   0.652   1.178   9.853  0.1469 -0.0282 -0.6306
57057SOL    HW279950   0.775   1.263   9.877 -0.7936  0.7040  1.9695
57058SOL     OW79951  12.117   3.051   3.353  0.1600  0.5037 -0.2015
57058SOL    HW179952  12.203   3.034   3.392  1.3033  2.1454 -1.8767
57058SOL    HW279953  12.132   3.120   3.289 -2.0221 -0.6221 -2.0845
57059SOL     OW79954   1.168   8.147   2.732 -0.1886  0.2870 -0.1788
57059SOL    HW179955   1.255   8.121   2.764 -0.2881 -0.0799 -0.2037
57059SOL    HW279956   1.124   8.065   2.714 -1.0009  0.4439  1.0351
57060SOL     OW79957   9.534  12.525   9.935 -0.1513  0.2607  0.2971
57060SOL    HW179958   9.567  12.512   9.846 -1.3447  1.4771 -0.3800
57060SOL    HW279959   9.611  12.543   9.988  0.6286 -0.9915 -0.3830
57061SOL     OW79960   1.613   9.739   5.799  0.1755  0.0405 -0.0670
57061SOL    HW179961   1.558   9.810   5.832 -0.4365  0.2992 -1.5693
57061SOL    HW279962   1.666   9.780   5.730 -0.1697 -0.9276 -0.9434
57062SOL     OW79963   8.725   1.959   3.923  0.0316 -0.2345 -0.1945
57062SOL    HW179964   8.759   1.870   3.931  1.3126  0.2766  0.4274
57062SOL    HW279965   8.798   2.009   3.886  0.8699  1.3528  3.1928
57063SOL     OW79966   1.658   0.668   5.459 -0.1186 -0.1216  0.0730
57063SOL    HW179967   1.752   0.672   5.479  0.1791 -1.6761 -0.8285
57063SOL    HW279968   1.635   0.756   5.430  0.9388  0.4015  0.7657
57064SOL     OW79969   3.238   4.361   9.776  0.1704 -0.6743 -0.0179
57064SOL    HW179970   3.199   4.425   9.716  0.7588 -0.4693 -0.1867
57064SOL    HW279971   3.210   4.276   9.742  0.0011 -0.5388 -0.2250
57065SOL     OW79972  10.963   6.774   1.537  0.3135 -0.1748 -0.5394
57065SOL    HW179973  11.039   6.747   1.486 -0.1331  0.3214 -1.4974
57065SOL    HW279974  11.000   6.814   1.617  1.1061  0.9880 -1.4508
57066SOL     OW79975   0.233   7.525   2.349 -0.1975 -0.4621  1.0798
57066SOL    HW179976   0.288   7.550   2.275 -2.6347 -0.4439 -0.8442
57066SOL    HW279977   0.237   7.600   2.408  0.9353 -0.0230  0.4689
57067SOL     OW79978   9.626   7.201   7.052 -0.2935  0.6771  0.2135
57067SOL    HW179979   9.564   7.254   7.103 -1.8676 -1.1374  0.3136
57067SOL    HW279980   9.587   7.196   6.965  0.4484  0.6609 -0.1239
57068SOL     OW79981  10.792   1.201   0.735  0.4388 -0.2775  0.4126
57068SOL    HW179982  10.779   1.110   0.762  0.7245 -0.1135  1.1141
57068SOL    HW279983  10.755   1.204   0.647 -0.1745 -0.9161  0.6263
57069SOL     OW79984   3.825   0.952  12.051 -0.2245 -0.4185 -0.3115
57069SOL    HW179985   3.744   0.986  12.014  0.3717  2.2970  0.6855
57069SOL    HW279986   3.880   0.931  11.976 -1.0506 -0.2067 -0.9769
57070SOL     OW79987   4.599   8.999  11.508 -0.3908 -0.0125 -0.2623
57070SOL    HW179988   4.657   8.923  11.514 -0.6934 -0.2015  0.3736
57070SOL    HW279989   4.635   9.062  11.571 -0.7491 -0.0556 -0.0042
57071SOL     OW79990   5.930   9.191  11.764  0.2252 -0.1819  0.5182
57071SOL    HW179991   5.992   9.134  11.719 -1.4548 -0.8672 -1.0378
57071SOL    HW279992   5.984   9.261  11.801  1.9309 -0.8859 -0.5566
57072SOL     OW79993   1.002   4.442   3.500 -0.2426 -0.4691  0.1199
57072SOL    HW179994   1.014   4.400   3.415 -0.2738 -1.1775  0.4595
57072SOL    HW279995   1.090   4.445   3.537 -0.1152  0.4954 -0.2306
57073SOL     OW79996   6.247   6.636  11.988 -0.1491 -0.8369 -0.4949
57073SOL    HW179997   6.246   6.717  12.040 -0.0800 -0.8295 -0.5047
57073SOL    HW279998   6.231   6.665  11.898 -1.3062 -0.9514 -0.3429
57074SOL     OW79999  11.246   2.614   9.352  0.1477  0.1788 -0.3510
57074SOL    HW180000  11.218   2.612   9.444 -0.9825  0.6256 -0.6704
57074SOL    HW280001  11.329   2.661   9.354 -0.3522  1.0778  0.3343
57075SOL     OW80002   0.112  11.038   3.187  0.1844 -0.1923  0.3217
57075SOL    HW180003   0.050  11.090   3.239 -0.7974 -2.1234  1.2106
57075SOL    HW280004   0.149  11.100   3.125 -0.5958  1.6404  1.5877
57076SOL     OW80005  12.456   7.053   3.785  0.5351 -0.4943 -0.0978
57076SOL    HW180006  12.394   7.019   3.850  1.4609  1.7709  2.0906
57076SOL    HW280007  12.400   7.092   3.717 -0.4636 -0.4210  0.7430
57077SOL     OW80008  11.138   3.139   0.383  0.1810 -0.1090 -0.0589
57077SOL    HW180009  11.223   3.100   0.403  0.6270  0.8702  0.0079
57077SOL    HW280010  11.153   3.188   0.302 -0.5506 -0.6472 -0.5329
57078SOL     OW80011   8.434   9.414   2.920  0.1989  0.4504  0.1681
57078SOL    HW180012   8.339   9.410   2.909  0.1639 -0.0151  0.5754
57078SOL    HW280013   8.448   9.488   2.980  0.0985  0.5771  0.0338
57079SOL     OW80014   4.291   7.285  10.765  0.7589 -0.7568  0.1633
57079SOL    HW180015   4.220   7.323  10.817  0.1162  0.1063 -1.2948
57079SOL    HW280016   4.275   7.191  10.767 -1.3729 -0.4923 -1.4023
57080SOL     OW80017  11.900   5.363   6.711 -0.1338 -0.2684 -0.6032
57080SOL    HW180018  11.992   5.349   6.732 -0.3082  0.4892  0.7617
57080SOL    HW280019  11.861   5.394   6.792 -1.6072 -0.5849 -1.1626
57081SOL     OW80020   5.576   8.960   9.499 -0.0438 -0.1536  0.1970
57081SOL    HW180021   5.646   8.958   9.564 -1.2689  0.0032  1.5752
57081SOL    HW280022   5.619   8.938   9.416  1.4580 -0.9809  1.1507
57082SOL     OW80023   0.324   1.267   4.717 -0.2510  1.0174  0.1850
57082SOL    HW180024   0.416   1.287   4.738  0.2576  0.5759 -1.4813
57082SOL    HW280025   0.278   1.280   4.800  1.2384  1.6842  0.9603
57083SOL     OW80026   1.262   9.570   4.944  0.6152 -0.4762  0.0710
57083SOL    HW180027   1.248   9.480   4.971  0.7145 -0.4629  0.1677
57083SOL    HW280028   1.330   9.566   4.877 -0.7868 -0.7009 -1.4230
57084SOL     OW80029   1.881   9.075   1.581  0.1999  0.0314  0.1269
57084SOL    HW180030   1.974   9.061   1.562 -0.2987 -1.7373 -1.2451
57084SOL    HW280031   1.866   9.167   1.561  2.2686  1.2550  3.3286
57085SOL     OW80032  10.358   1.310  12.446  0.0914  0.3255 -0.1171
57085SOL    HW180033  10.359   1.277  12.536 -1.0949 -1.9014 -0.8508
57085SOL    HW280034  10.450   1.331  12.428  0.8557 -1.9780  0.6941
57086SOL     OW80035  11.058   1.130  10.474 -0.2944 -0.0631  0.0478
57086SOL    HW180036  11.107   1.202  10.515  1.8384 -1.9383  0.9969
57086SOL    HW280037  11.088   1.129  10.383  0.6633 -0.5155  0.3545
57087SOL     OW80038  12.144   6.310   1.298 -0.1552  0.0066 -0.0178
57087SOL    HW180039  12.092   6.230   1.304 -0.4540  0.1705 -0.4210
57087SOL    HW280040  12.113   6.353   1.219  1.4279 -0.4775 -0.9321
57088SOL     OW80041  10.089   9.214   0.144 -0.4624 -0.1933  0.5710
57088SOL    HW180042  10.033   9.286   0.171 -0.0434 -0.2256  1.5772
57088SOL    HW280043  10.177   9.242   0.168 -0.3009 -1.0530  1.0470
57089SOL     OW80044   7.585   4.519   5.176 -0.3421  0.1528  0.2694
57089SOL    HW180045   7.526   4.445   5.193  0.4899 -0.8888 -1.1350
57089SOL    HW280046   7.601   4.557   5.262 -2.8392  0.3221  0.7314
57090SOL     OW80047   5.062   6.824   3.002  0.4129  0.4191 -0.8032
57090SOL    HW180048   5.047   6.904   2.952 -1.1231  0.1188 -0.8740
57090SOL    HW280049   5.013   6.757   2.954  0.4988 -0.2626  0.0466
57091SOL     OW80050   4.558   4.164   9.335  0.0387  0.1436  0.2473
57091SOL    HW180051   4.495   4.106   9.378  0.2558  0.1506  0.5780
57091SOL    HW280052   4.619   4.189   9.404 -0.4387  1.3180  0.2814
57092SOL     OW80053  10.558  10.607   0.341 -0.2477 -0.3530  0.4074
57092SOL    HW180054  10.523  10.547   0.407  0.0928  0.0311  0.9527
57092SOL    HW280055  10.575  10.552   0.265 -3.5186 -0.3095 -0.5032
57093SOL     OW80056   0.095   9.932  10.875  0.5630  0.0666  0.0557
57093SOL    HW180057   0.130   9.983  10.802 -1.8189 -1.4979 -2.3997
57093SOL    HW280058   0.129   9.844  10.861 -1.4324 -0.6903 -0.4122
57094SOL     OW80059   7.503  12.177  10.332 -0.6789 -0.0718  0.1677
57094SOL    HW180060   7.590  12.214  10.346 -0.6598 -0.4117  0.9879
57094SOL    HW280061   7.514  12.116  10.259 -0.2471 -0.0852  0.2455
57095SOL     OW80062   4.757   1.653  12.089 -0.1646 -0.8226 -0.4311
57095SOL    HW180063   4.836   1.635  12.038 -1.0549 -2.0330 -1.4415
57095SOL    HW280064   4.695   1.688  12.025  0.1038  2.0396  0.6966
57096SOL     OW80065  10.931   8.206   7.487  0.1963 -0.0638  0.3209
57096SOL    HW180066  10.962   8.296   7.500 -2.0633  1.4720 -3.3010
57096SOL    HW280067  10.939   8.191   7.393 -3.4147 -1.9852  0.1267
57097SOL     OW80068   5.278   9.123   1.967 -0.4943 -0.0899  0.0027
57097SOL    HW180069   5.320   9.178   1.901 -0.5201 -0.1784 -0.0878
57097SOL    HW280070   5.318   9.037   1.956 -0.7394 -0.1905 -0.1234
57098SOL     OW80071  11.851   2.268   0.977 -0.3925 -0.3316  0.1783
57098SOL    HW180072  11.778   2.329   0.970 -0.0002  0.1266  0.0920
57098SOL    HW280073  11.863   2.235   0.888  0.1422  0.3349 -0.0008
57099SOL     OW80074   0.489  11.435   1.010  0.1355 -0.4106 -0.2672
57099SOL    HW180075   0.476  11.524   1.045  1.6822 -0.1450 -0.2926
57099SOL    HW280076   0.473  11.378   1.085  1.8378  0.0725  0.5170
57100SOL     OW80077   5.667  12.302   3.523  0.5199  0.5109 -0.4918
57100SOL    HW180078   5.676  12.380   3.468  1.0393  0.6549 -0.2104
57100SOL    HW280079   5.647  12.336   3.610  0.8252  0.3419 -0.3511
57101SOL     OW80080   4.050   9.049   2.940 -0.0965  0.5872 -0.6509
57101SOL    HW180081   4.032   9.050   2.846 -0.5577  0.5926 -0.5650
57101SOL    HW280082   3.971   9.011   2.980  0.2874  0.1331 -0.3061
57102SOL     OW80083   4.953   9.332   9.624 -0.1138  0.9371  0.1270
57102SOL    HW180084   4.908   9.314   9.707  1.8641  0.6622  1.2101
57102SOL    HW280085   4.995   9.418   9.638 -0.6159  1.3813 -0.9922
57103SOL     OW80086   5.998   6.957   1.980 -0.0844  0.5887  0.1858
57103SOL    HW180087   6.078   6.906   1.967 -0.9626 -0.3626 -1.9133
57103SOL    HW280088   5.975   6.942   2.071  1.2419 -0.4461  0.3879
57104SOL     OW80089   2.165   4.717   6.130 -0.4894  0.3079 -0.6367
57104SOL    HW180090   2.199   4.758   6.209 -0.1089 -0.2889 -0.4813
57104SOL    HW280091   2.188   4.777   6.060  0.9282 -0.0845 -0.5413
57105SOL     OW80092   2.496   2.368  11.464  0.2728  0.2161 -0.1888
57105SOL    HW180093   2.477   2.302  11.531  0.2773  1.0496  0.6517
57105SOL    HW280094   2.412   2.386  11.423 -0.1899  1.4624  1.2535
57106SOL     OW80095   1.986   2.045   2.535 -0.2304 -0.1595 -0.0842
57106SOL    HW180096   2.031   2.057   2.451 -0.1170  1.3692  0.1781
57106SOL    HW280097   1.913   2.107   2.533  0.6204  0.9486  1.5219
57107SOL     OW80098   6.220   2.361   0.107 -0.4455 -0.8171  0.3780
57107SOL    HW180099   6.140   2.387   0.061 -1.1044 -3.4121 -0.1354
57107SOL    HW280100   6.192   2.291   0.166  0.9783  0.2445  2.4327
57108SOL     OW80101   3.643   1.916  11.228 -0.5690 -0.1884 -0.2462
57108SOL    HW180102   3.663   2.009  11.226  2.9495 -0.8063 -0.2746
57108SOL    HW280103   3.570   1.908  11.290  0.2002  2.3991  1.1167
57109SOL     OW80104   2.395   0.063   1.181 -0.4704 -0.1788 -0.1021
57109SOL    HW180105   2.479   0.018   1.174  0.4195  1.5094 -0.9410
57109SOL    HW280106   2.330  -0.002   1.153  0.3573 -1.9798  1.9575
57110SOL     OW80107   7.684   6.705  10.763  0.7398 -0.4651 -0.0436
57110SOL    HW180108   7.686   6.736  10.853 -0.5840 -1.0908  0.2308
57110SOL    HW280109   7.604   6.652  10.758  0.8302 -0.4987 -1.5582
57111SOL     OW80110   6.194   7.841   0.153  0.2421  0.7014  0.3046
57111SOL    HW180111   6.110   7.876   0.182  0.3923  2.2474 -0.9533
57111SOL    HW280112   6.185   7.833   0.058  1.1750 -0.0630  0.2623
57112SOL     OW80113   5.101   0.559  11.737 -0.0772  0.3380 -0.1748
57112SOL    HW180114   5.138   0.605  11.662  1.3367 -2.2694 -1.1912
57112SOL    HW280115   5.020   0.521  11.703 -0.0849  0.2034 -0.0032
57113SOL     OW80116  10.942   3.913  10.937 -0.3879  0.1325  0.5390
57113SOL    HW180117  10.904   3.841  10.988 -0.0463  0.5495  1.4101
57113SOL    HW280118  11.025   3.879  10.905 -0.8154 -0.2907 -0.1462
57114SOL     OW80119   1.253  11.822  10.084 -0.5883 -0.2771  0.4513
57114SOL    HW180120   1.329  11.770  10.059  0.4231  1.0269  0.6706
57114SOL    HW280121   1.177  11.768  10.061  0.3589 -0.6898 -1.9013
57115SOL     OW80122   5.414   5.329  12.588  0.2252  0.3914  0.2357
57115SOL    HW180123   5.344   5.358  12.646 -0.9498  2.0413 -1.8599
57115SOL    HW280124   5.405   5.384  12.510  1.3805 -2.0406 -1.7673
57116SOL     OW80125   6.670   0.444   2.667 -0.2670 -0.2388 -0.1714
57116SOL    HW180126   6.687   0.535   2.642 -1.7114  0.1444  0.1280
57116SOL    HW280127   6.679   0.395   2.585  0.6384  0.1402 -0.3129
57117SOL     OW80128   5.055   5.969   2.556 -0.2835  0.3085  0.0186
57117SOL    HW180129   4.994   5.927   2.495  0.4656 -0.2875 -0.3444
57117SOL    HW280130   5.113   5.897   2.584  1.1745  1.1247 -0.7834
57118SOL     OW80131   6.123   8.982   1.764 -0.1823 -0.3517 -0.7205
57118SOL    HW180132   6.180   8.905   1.765  0.2295 -0.2626  3.6997
57118SOL    HW280133   6.035   8.948   1.781 -0.4773 -0.0416 -1.5907
57119SOL     OW80134   8.180   4.176   3.502 -0.2409 -0.2814  0.3830
57119SOL    HW180135   8.135   4.219   3.574 -0.5875 -0.4106  0.2427
57119SOL    HW280136   8.147   4.220   3.423  1.7495  1.3867  0.3982
57120SOL     OW80137  10.573   7.426  11.221  0.2391 -0.4475  0.0836
57120SOL    HW180138  10.650   7.418  11.277  0.2553 -3.8174 -0.2324
57120SOL    HW280139  10.534   7.338  11.221 -3.0103  0.8480 -0.6417
57121SOL     OW80140   2.481   0.887   4.511 -0.0313 -0.0636  0.4534
57121SOL    HW180141   2.495   0.979   4.535  0.9013 -0.2814  0.7756
57121SOL    HW280142   2.561   0.842   4.538  0.0518 -0.7566 -0.8742
57122SOL     OW80143   3.482  11.777   4.505  0.3037 -0.4982 -0.3168
57122SOL    HW180144   3.552  11.711   4.508  0.4178 -0.3602  0.1280
57122SOL    HW280145   3.421  11.751   4.574  1.4094  1.0296  1.3157
57123SOL     OW80146   9.798   1.094  11.069 -0.5027  0.6239 -0.0419
57123SOL    HW180147   9.725   1.032  11.067 -1.2103  1.0849  3.7715
57123SOL    HW280148   9.859   1.058  11.133  0.1332  2.6872  0.6091
57124SOL     OW80149  11.269   4.819   1.254 -0.0152 -0.0882 -0.1531
57124SOL    HW180150  11.313   4.734   1.259 -0.3926 -0.2271  1.6592
57124SOL    HW280151  11.337   4.883   1.275 -0.1348 -0.1052  0.2995
57125SOL     OW80152   3.703   1.807   9.192 -0.8144  0.5369  0.6360
57125SOL    HW180153   3.687   1.899   9.213 -1.2115  0.7692 -0.5804
57125SOL    HW280154   3.762   1.777   9.260 -1.7761  1.3137  1.8486
57126SOL     OW80155   4.460   5.927   5.132  0.1212  0.5159 -0.0090
57126SOL    HW180156   4.389   5.883   5.178  0.1637  0.1754 -0.2630
57126SOL    HW280157   4.507   5.975   5.200 -0.6755  1.1966  0.0753
57127SOL     OW80158   9.797   0.911   5.397  0.1124  0.0648  0.3573
57127SOL    HW180159   9.795   1.005   5.379  0.2314  0.4366  2.0869
57127SOL    HW280160   9.791   0.869   5.311  1.4428  1.6585 -0.5483
57128SOL     OW80161   2.203   2.613   9.603  0.3645  0.7180  0.1261
57128SOL    HW180162   2.269   2.544   9.591  0.1080  0.6530 -1.0767
57128SOL    HW280163   2.200   2.628   9.697  0.5609 -0.7837  0.3927
57129SOL     OW80164   2.798   7.567  11.447  0.2410 -0.3845 -0.2237
57129SOL    HW180165   2.785   7.661  11.456 -1.0511 -0.3545 -2.0313
57129SOL    HW280166   2.881   7.558  11.400  1.0114 -0.2150  1.0665
57130SOL     OW80167  10.323   7.540   3.533 -0.3993  0.1459 -0.2841
57130SOL    HW180168  10.389   7.483   3.573  1.9094  1.8552 -1.3866
57130SOL    HW280169  10.253   7.481   3.506 -0.0535 -1.5803  2.2708
57131SOL     OW80170   2.235   2.431  11.367 -0.0280  0.4511 -0.0538
57131SOL    HW180171   2.152   2.386  11.383  0.7464 -0.8494  0.4471
57131SOL    HW280172   2.261   2.404  11.279  0.8783 -0.8779  0.5796
57132SOL     OW80173   3.145   2.120   2.323 -0.2110  0.5661  0.1198
57132SOL    HW180174   3.150   2.100   2.416 -3.0027 -0.8868  0.0720
57132SOL    HW280175   3.143   2.034   2.280  1.1804  1.2067 -1.3250
57133SOL     OW80176   8.880   7.755  11.144 -0.1125 -0.2085  0.3948
57133SOL    HW180177   8.878   7.790  11.055 -0.8643 -0.7996  0.1644
57133SOL    HW280178   8.893   7.661  11.131  0.6805 -0.1785  0.9509
57134SOL     OW80179  12.090   2.289   1.090  0.1930 -0.3696 -0.0798
57134SOL    HW180180  12.096   2.288   1.186  0.2822 -2.4449 -0.0508
57134SOL    HW280181  11.997   2.298   1.072  0.0854 -0.7890  0.2435
57135SOL     OW80182   5.041   1.814   2.584  0.7109 -0.6203 -0.4039
57135SOL    HW180183   4.980   1.747   2.613  1.3515 -0.8963  0.3575
57135SOL    HW280184   5.017   1.892   2.634 -1.0230  0.2059 -2.3993
57136SOL     OW80185   0.935   4.298   1.541 -0.2875  0.1225  0.3068
57136SOL    HW180186   0.974   4.328   1.624  0.5905  0.8654 -0.3621
57136SOL    HW280187   0.983   4.346   1.473  1.0530 -2.6288 -0.8351
57137SOL     OW80188   8.235   8.805   2.983  0.2439  0.2911  0.1317
57137SOL    HW180189   8.291   8.775   2.911 -0.1955  1.4495 -0.7264
57137SOL    HW280190   8.288   8.790   3.062  0.3945 -1.8173 -0.3144
57138SOL     OW80191   0.183   0.709  12.381  0.1558  0.3040 -0.2487
57138SOL    HW180192   0.175   0.804  12.367 -0.0836  0.5068  1.1334
57138SOL    HW280193   0.107   0.672  12.337  0.3869  0.7252 -1.0263
57139SOL     OW80194   6.929   7.740   7.749  0.1023 -0.0664 -0.4937
57139SOL    HW180195   6.855   7.792   7.779  0.2122 -0.2400  0.0830
57139SOL    HW280196   6.988   7.735   7.824 -0.9935 -2.9999  0.3103
57140SOL     OW80197   0.036   1.491  11.387 -0.1721 -0.4882  0.8614
57140SOL    HW180198   0.064   1.480  11.478  1.2341 -1.7024  0.3358
57140SOL    HW280199   0.117   1.478  11.336 -1.0126 -0.2709 -0.5736
57141SOL     OW80200   2.546   7.195   4.363 -0.4491  0.6693 -0.2242
57141SOL    HW180201   2.508   7.282   4.347  0.1706  0.6406 -2.1200
57141SOL    HW280202   2.636   7.213   4.389 -0.3613  0.6061 -0.4813
57142SOL     OW80203   2.033   2.897   1.014 -0.4250 -0.1602  0.4777
57142SOL    HW180204   2.027   2.992   1.025 -1.3716  0.2227 -2.3881
57142SOL    HW280205   1.945   2.865   1.031 -0.0167 -0.6337  1.8427
57143SOL     OW80206   6.275   8.146   5.674  0.0276 -0.0678  0.9071
57143SOL    HW180207   6.286   8.071   5.733 -0.7380 -1.6113 -0.8222
57143SOL    HW280208   6.232   8.213   5.728 -0.3982 -1.3217  2.1778
57144SOL     OW80209   4.186   9.025   6.171  0.3791  0.2803 -0.2063
57144SOL    HW180210   4.120   9.094   6.168 -0.5845 -0.2825  3.0352
57144SOL    HW280211   4.198   8.998   6.080 -1.3493  2.7056 -1.2544
57145SOL     OW80212   6.464  11.513   0.773 -0.2095 -0.3005 -0.0437
57145SOL    HW180213   6.539  11.501   0.831 -0.6732  0.7683  0.8104
57145SOL    HW280214   6.407  11.575   0.819 -0.5340  0.7122 -1.7113
57146SOL     OW80215   5.855   0.387   3.906  0.4230  0.7116  0.3076
57146SOL    HW180216   5.891   0.343   3.982 -1.1991  1.2661  1.4574
57146SOL    HW280217   5.789   0.447   3.942  0.1808  1.5792 -1.4688
57147SOL     OW80218   6.656   7.603   9.123 -0.2224 -0.0402 -0.0883
57147SOL    HW180219   6.600   7.614   9.046 -0.5511 -0.3099  0.1134
57147SOL    HW280220   6.737   7.567   9.088  0.5715  2.1184 -0.6621
57148SOL     OW80221  11.921   4.023   4.570 -0.3313  0.6372 -0.1704
57148SOL    HW180222  11.975   4.083   4.622  0.4156  0.1314 -0.3551
57148SOL    HW280223  11.836   4.022   4.615  0.3238  0.1429  1.1096
57149SOL     OW80224  10.750   7.061   1.898  0.3021 -0.7220 -0.3848
57149SOL    HW180225  10.675   7.083   1.843 -0.5069  0.3644  1.1007
57149SOL    HW280226  10.766   7.139   1.951  0.1518 -2.1483  1.9088
57150SOL     OW80227  10.117   2.452  11.770 -0.0315 -0.2634  0.1924
57150SOL    HW180228  10.144   2.525  11.715  0.7353 -0.5227  0.2105
57150SOL    HW280229  10.129   2.483  11.860 -0.8586  0.0034  0.2195
57151SOL     OW80230   9.986  11.033   3.522 -0.3020 -0.2419  0.1261
57151SOL    HW180231  10.069  11.080   3.525 -1.4335  1.9141 -0.4912
57151SOL    HW280232  10.003  10.951   3.568  1.7577  0.7671  1.2884
57152SOL     OW80233   9.404  10.673   6.326  0.1556  0.3843  0.6206
57152SOL    HW180234   9.324  10.708   6.287  0.7763  1.0527 -0.1108
57152SOL    HW280235   9.415  10.587   6.285 -0.9250 -0.3356  1.7878
57153SOL     OW80236   9.489   9.306  12.045  0.6058  0.0470  0.1701
57153SOL    HW180237   9.571   9.261  12.065  0.2622 -0.0778  1.3792
57153SOL    HW280238   9.515   9.394  12.021  1.1068 -0.0138  0.4727
57154SOL     OW80239   0.416   1.820   2.860  0.0597 -0.3473 -0.1234
57154SOL    HW180240   0.375   1.905   2.846  0.4215 -0.1411  0.0482
57154SOL    HW280241   0.343   1.759   2.872 -0.2099 -0.1429 -0.6836
57155SOL     OW80242   4.838   3.401   1.462 -0.0334  0.0442 -0.1820
57155SOL    HW180243   4.867   3.447   1.541  0.1908 -0.8042  0.2432
57155SOL    HW280244   4.786   3.328   1.495 -0.8224  0.2750 -0.8645
57156SOL     OW80245   3.145  11.594  11.708  0.1307  0.6434 -0.0326
57156SOL    HW180246   3.113  11.642  11.632 -0.7393  0.0799 -0.0414
57156SOL    HW280247   3.098  11.633  11.782 -0.1040  0.2448  0.0333
57157SOL     OW80248  11.584  10.655   9.529 -0.0007 -0.2153 -0.1828
57157SOL    HW180249  11.604  10.731   9.584 -0.6618  2.0352 -2.8568
57157SOL    HW280250  11.668  10.609   9.520  0.3455 -0.0231  1.7043
57158SOL     OW80251   8.625   6.023  11.225 -0.2028  0.0777  0.2940
57158SOL    HW180252   8.641   6.117  11.213 -0.4609 -0.0990 -1.9066
57158SOL    HW280253   8.532   6.013  11.210  0.0035 -0.6506 -0.5760
57159SOL     OW80254   5.564  11.166   8.845 -0.6476 -1.0209 -0.3594
57159SOL    HW180255   5.551  11.251   8.885 -0.3628 -1.2992  0.3314
57159SOL    HW280256   5.475  11.134   8.827 -0.7410 -0.2556 -1.3445
57160SOL     OW80257   0.675   8.159   4.713  0.2132 -0.8807  0.6998
57160SOL    HW180258   0.703   8.239   4.757 -2.5613  0.9542 -0.6163
57160SOL    HW280259   0.748   8.098   4.727  3.1015  2.2338  0.6272
57161SOL     OW80260   4.213  10.167  12.360 -0.2436 -1.2799 -0.1188
57161SOL    HW180261   4.269  10.239  12.334 -2.4057  0.6852  0.3057
57161SOL    HW280262   4.272  10.103  12.400  1.7234  0.4016 -0.1961
57162SOL     OW80263   6.541  11.503   8.638  0.2346 -0.2160 -0.2805
57162SOL    HW180264   6.460  11.481   8.591 -0.6822  1.3767  0.4636
57162SOL    HW280265   6.576  11.578   8.590  0.4276  0.0811  0.3172
57163SOL     OW80266   6.971   0.254   8.931  0.4228 -0.3160 -0.2088
57163SOL    HW180267   7.049   0.199   8.943  0.3867 -0.6127 -1.2240
57163SOL    HW280268   6.980   0.323   8.997  0.4082 -1.5993  1.1833
57164SOL     OW80269   9.270   9.808   1.127  0.2246 -0.4128 -0.0824
57164SOL    HW180270   9.290   9.716   1.111 -1.4443 -0.7234 -0.4939
57164SOL    HW280271   9.336   9.856   1.077  1.1465 -1.3616  0.1825
57165SOL     OW80272   0.487   6.650   0.436 -0.1549 -0.0330 -0.1311
57165SOL    HW180273   0.422   6.673   0.503  0.2596  0.1760  0.2032
57165SOL    HW280274   0.561   6.708   0.454 -0.1860  0.3039 -1.0150
57166SOL     OW80275   3.453  10.255   6.410  0.0788 -0.0561  0.4783
57166SOL    HW180276   3.398  10.186   6.373  2.5158 -2.2896  0.7379
57166SOL    HW280277   3.489  10.301   6.334 -1.0106  0.5315  0.2949
57167SOL     OW80278   0.203   4.262   3.640  0.1123 -0.0483  0.1540
57167SOL    HW180279   0.144   4.204   3.593  0.9852  0.3499 -1.5130
57167SOL    HW280280   0.167   4.350   3.625  0.5440  0.1040 -0.0154
57168SOL     OW80281   3.639   9.338  11.108 -0.1879 -0.5501  0.3516
57168SOL    HW180282   3.612   9.364  11.196  0.9279 -1.5535  1.0239
57168SOL    HW280283   3.565   9.363  11.052  0.0456  2.2783  1.1655
57169SOL     OW80284  12.545   4.705   1.897  0.0037  0.2096 -0.1048
57169SOL    HW180285  12.551   4.701   1.802  0.3346  0.8666 -0.1194
57169SOL    HW280286  12.632   4.679   1.928  0.2354  1.0618 -0.0232
57170SOL     OW80287   7.514   0.742   0.299  0.8307 -0.2432 -0.5414
57170SOL    HW180288   7.557   0.682   0.237  1.3793 -0.0755 -0.3317
57170SOL    HW280289   7.429   0.702   0.315  0.9049 -0.5871 -0.9691
57171SOL     OW80290   7.140   6.859   6.300 -0.0093 -0.4109  0.2292
57171SOL    HW180291   7.136   6.900   6.386 -1.4788  0.5212 -0.2628
57171SOL    HW280292   7.148   6.765   6.319  1.4162 -0.0954  1.3518
57172SOL     OW80293   0.504  11.434   2.647 -0.4612  0.1001 -0.2300
57172SOL    HW180294   0.418  11.394   2.663 -0.2470 -0.4273 -0.3730
57172SOL    HW280295   0.538  11.453   2.734  0.2214 -1.7351 -0.0450
57173SOL     OW80296   1.588  10.084  10.342  0.4490 -0.2276  0.7574
57173SOL    HW180297   1.624  10.001  10.373  0.6127  0.5706  2.8387
57173SOL    HW280298   1.496  10.081  10.368  0.0669 -0.3811 -0.5513
57174SOL     OW80299   9.791  11.858   1.199  0.0573 -0.1771 -0.4692
57174SOL    HW180300   9.803  11.774   1.155 -1.6523  0.0486 -1.4323
57174SOL    HW280301   9.789  11.922   1.128  0.2500  0.5672  0.1803
57175SOL     OW80302   1.726   5.671   1.756 -0.1374  0.4335 -0.5143
57175SOL    HW180303   1.794   5.605   1.751  0.7262  1.2558  0.0556
57175SOL    HW280304   1.646   5.622   1.778  0.2444 -0.5396 -1.2339
57176SOL     OW80305   5.024   2.534   9.098 -0.0259 -0.2777  0.0302
57176SOL    HW180306   5.016   2.447   9.138  2.2990 -0.6844 -0.2899
57176SOL    HW280307   4.988   2.594   9.163  1.1937 -1.1942  1.6013
57177SOL     OW80308   8.689  11.542   8.349 -0.1528  0.3514  0.2053
57177SOL    HW180309   8.601  11.528   8.314  0.1808 -0.6079 -0.3078
57177SOL    HW280310   8.731  11.598   8.284  1.2021 -3.2417 -2.3365
57178SOL     OW80311   0.373  10.343   5.285  0.0457 -0.4212  0.1903
57178SOL    HW180312   0.467  10.339   5.268  0.1743 -1.5335  1.0942
57178SOL    HW280313   0.343  10.252   5.278 -0.6753 -0.2973  1.4309
57179SOL     OW80314  10.672   7.393   4.877  0.4018 -0.1355  0.0479
57179SOL    HW180315  10.711   7.423   4.795  1.4861 -2.0473 -0.2006
57179SOL    HW280316  10.647   7.302   4.860  0.4564 -0.5063  1.7559
57180SOL     OW80317   5.332   7.445  11.073 -0.0016  0.0600  0.0919
57180SOL    HW180318   5.344   7.401  10.988 -0.1200  1.9298 -0.9659
57180SOL    HW280319   5.287   7.527  11.051 -1.2389 -0.0061  2.1590
57181SOL     OW80320   6.693   5.354   3.358 -0.5136  0.0234 -0.3546
57181SOL    HW180321   6.650   5.323   3.437 -1.8237  0.2385 -0.9646
57181SOL    HW280322   6.744   5.280   3.327  2.2019  0.6846  2.1039
57182SOL     OW80323  11.293   5.177  12.261  0.0620  0.1146 -0.1371
57182SOL    HW180324  11.284   5.174  12.166  0.1299  0.9092 -0.1754
57182SOL    HW280325  11.220   5.125  12.294 -0.2381  0.2368 -0.6129
57183SOL     OW80326   5.173   2.253  10.912  0.0446 -0.1829  0.0536
57183SOL    HW180327   5.108   2.312  10.950 -1.2715 -1.9272  0.6396
57183SOL    HW280328   5.251   2.264  10.967 -0.2659  0.7506  0.3332
57184SOL     OW80329   4.609   0.247  11.546  0.3423  0.1389 -0.1471
57184SOL    HW180330   4.685   0.213  11.593 -0.3585 -1.2455  0.0458
57184SOL    HW280331   4.535   0.228  11.604 -0.3316 -0.0215 -1.0455
57185SOL     OW80332  10.830   2.441   9.512  0.1371  0.3494 -0.3008
57185SOL    HW180333  10.870   2.513   9.560  0.1930  0.9751 -1.2660
57185SOL    HW280334  10.820   2.371   9.577  1.4835  0.6809  0.2771
57186SOL     OW80335  10.171   0.898   9.422  0.5400 -0.5369 -0.4157
57186SOL    HW180336  10.176   0.993   9.410  1.5223 -0.7451 -1.8789
57186SOL    HW280337  10.096   0.886   9.480 -0.6044  1.0334 -1.4834
57187SOL     OW80338   1.436   2.165  12.383  0.0764  0.0880 -0.5075
57187SOL    HW180339   1.501   2.131  12.445  0.7469 -0.1566 -1.3217
57187SOL    HW280340   1.366   2.199  12.438  0.5092 -0.4149  0.3763
57188SOL     OW80341   6.458   5.399   0.440  0.0914 -0.0929  0.3393
57188SOL    HW180342   6.385   5.450   0.404 -2.0724 -2.1829  1.4989
57188SOL    HW280343   6.496   5.356   0.364 -1.4746 -0.8434 -0.0763
57189SOL     OW80344   6.272   2.637   9.606  0.5164  0.0079  0.7209
57189SOL    HW180345   6.351   2.632   9.553  1.4602 -1.2970  2.1749
57189SOL    HW280346   6.289   2.579   9.681 -2.6067 -2.0465  0.0443
57190SOL     OW80347  11.796  11.385   3.039  0.2133 -0.2834 -0.5802
57190SOL    HW180348  11.709  11.413   3.010  0.4607 -0.5536 -1.6065
57190SOL    HW280349  11.851  11.461   3.026  0.3149 -0.3875 -0.7542
57191SOL     OW80350   9.516  11.267   0.279  0.2406  0.2357  0.1873
57191SOL    HW180351   9.601  11.294   0.245  0.6882 -0.6883  0.5499
57191SOL    HW280352   9.465  11.348   0.284  1.0560  0.7754 -0.1404
57192SOL     OW80353   8.560   3.620  10.004  0.2765 -0.2286 -0.1493
57192SOL    HW180354   8.495   3.582   9.946  1.5463 -3.1733  0.1691
57192SOL    HW280355   8.644   3.606   9.961  0.9079  2.2639  0.0676
57193SOL     OW80356   9.968   2.233  11.834  0.1542  0.5350 -0.3555
57193SOL    HW180357  10.038   2.298  11.829  1.3828 -0.8194 -2.3338
57193SOL    HW280358   9.960   2.200  11.745 -2.5527  0.1126 -0.0191
57194SOL     OW80359   2.798   7.709   5.720  0.0020  0.7607 -0.1421
57194SOL    HW180360   2.879   7.758   5.706  1.1960 -1.3555 -1.1745
57194SOL    HW280361   2.767   7.686   5.632 -0.4809 -0.3398  0.2829
57195SOL     OW80362   0.205   8.000   4.399  0.7195 -0.0392 -0.0857
57195SOL    HW180363   0.285   8.045   4.426  1.3551 -1.0026 -0.3190
57195SOL    HW280364   0.202   7.920   4.452 -0.2613  0.1373  0.1484
57196SOL     OW80365   8.589   3.200  10.082 -0.2578  0.1569  0.3355
57196SOL    HW180366   8.611   3.289  10.109 -3.2051  0.5675  1.7412
57196SOL    HW280367   8.574   3.153  10.164 -0.5759 -1.1354 -0.4364
57197SOL     OW80368   0.031   8.173   2.119 -0.3416  0.3517 -0.1542
57197SOL    HW180369  -0.004   8.259   2.095 -1.0986  0.2895  0.6882
57197SOL    HW280370  -0.028   8.110   2.078 -2.3140  0.2295  2.6048
57198SOL     OW80371   5.684   1.412   8.555  0.0477 -0.6658  0.2444
57198SOL    HW180372   5.770   1.414   8.597  0.0873 -1.1765  0.1924
57198SOL    HW280373   5.685   1.488   8.496  0.9877 -1.4206 -0.7504
57199SOL     OW80374   8.466   4.230   2.169 -0.4815  0.5991  0.3186
57199SOL    HW180375   8.543   4.265   2.125 -0.8916  0.5265 -0.4691
57199SOL    HW280376   8.471   4.266   2.258  1.1452 -0.4724  0.6955
57200SOL     OW80377   5.660  12.531   8.670 -0.0569  0.1609  0.2430
57200SOL    HW180378   5.664  12.502   8.579  1.1054 -0.1233  0.3727
57200SOL    HW280379   5.704  12.462   8.719 -2.0309 -0.4772  1.2473
57201SOL     OW80380  11.573   4.752   3.628 -0.2614  0.5070  0.6458
57201SOL    HW180381  11.538   4.725   3.543  0.5639  0.1167  0.4109
57201SOL    HW280382  11.550   4.681   3.687 -0.4094  0.5467  0.6360
57202SOL     OW80383   1.491   9.883   8.394 -0.4109 -0.2173 -0.3539
57202SOL    HW180384   1.468   9.825   8.467 -0.7863  1.0032  0.5298
57202SOL    HW280385   1.585   9.869   8.381 -0.8056 -2.3179 -1.3534
57203SOL     OW80386   6.074   4.878   6.850  0.4822  0.0932 -0.1984
57203SOL    HW180387   6.027   4.946   6.897  0.2053 -0.5500  0.4751
57203SOL    HW280388   6.042   4.884   6.760 -0.6835 -0.1403  0.1810
57204SOL     OW80389   5.081  10.787   1.592  0.2875  0.3593 -0.3052
57204SOL    HW180390   5.169  10.767   1.624  0.5678 -0.0808 -1.3079
57204SOL    HW280391   5.094  10.813   1.500 -0.6414  0.1174 -0.5159
57205SOL     OW80392  11.717   4.474   4.284  0.4300  0.0706 -0.1858
57205SOL    HW180393  11.710   4.563   4.320  1.4327  0.2911 -0.5087
57205SOL    HW280394  11.629   4.437   4.296  0.0073  1.0816  0.0074
57206SOL     OW80395   3.472  12.310   9.714 -0.1568 -0.0695  0.5445
57206SOL    HW180396   3.390  12.343   9.678  0.0722  1.4266  1.3046
57206SOL    HW280397   3.452  12.222   9.744 -1.5822  0.4117  1.0517
57207SOL     OW80398   5.736   0.648   4.214 -0.2606 -0.0311  0.1221
57207SOL    HW180399   5.828   0.625   4.219 -0.4874 -1.4429 -1.2591
57207SOL    HW280400   5.692   0.592   4.278 -0.2412  0.0969  0.2466
57208SOL     OW80401   2.132   7.942  10.858  0.6248 -0.1829 -0.2457
57208SOL    HW180402   2.216   7.944  10.813  1.8695 -1.4050  1.9028
57208SOL    HW280403   2.094   8.029  10.841  1.3647 -0.2785 -2.8660
57209SOL     OW80404  10.840   6.438   3.390  0.1023  0.0086 -0.0469
57209SOL    HW180405  10.771   6.465   3.451 -0.3639 -1.3514  0.0630
57209SOL    HW280406  10.894   6.377   3.440  0.5073 -0.0800 -0.5839
57210SOL     OW80407   6.947   3.867   8.057 -0.1863  0.8003 -0.3187
57210SOL    HW180408   6.974   3.779   8.032 -2.6331 -0.5488  1.3907
57210SOL    HW280409   7.021   3.901   8.108 -0.1905 -1.3309  1.2510
57211SOL     OW80410  12.405   2.525   1.471  0.2106 -0.5109 -0.0785
57211SOL    HW180411  12.487   2.545   1.427 -0.0704  0.0675 -0.3426
57211SOL    HW280412  12.430   2.462   1.539  1.0666  0.4745  0.5629
57212SOL     OW80413   7.959   0.218   7.595 -0.3476 -0.0213 -0.3878
57212SOL    HW180414   7.938   0.153   7.528  1.6795  0.5671 -1.6718
57212SOL    HW280415   7.889   0.283   7.588 -0.7411 -0.5187 -1.1927
57213SOL     OW80416  11.200   6.624  10.341 -0.0798 -0.3800  0.0663
57213SOL    HW180417  11.211   6.587  10.253  1.3523  0.5211 -0.1718
57213SOL    HW280418  11.249   6.706  10.338 -0.0234 -0.3243  1.6999
57214SOL     OW80419  11.010   1.769  11.708  0.4264 -0.0587 -0.5724
57214SOL    HW180420  11.029   1.678  11.729 -1.1299 -0.1670  0.6408
57214SOL    HW280421  11.095   1.812  11.703  1.3065 -1.8989 -3.0213
57215SOL     OW80422   3.627  12.498  11.101  0.3191 -0.1129 -0.3643
57215SOL    HW180423   3.720  12.476  11.104  0.5970  0.9085 -1.0429
57215SOL    HW280424   3.608  12.530  11.189  0.6839 -0.0445 -0.3066
57216SOL     OW80425   8.006   3.073   4.828  0.4500 -0.0296 -0.2292
57216SOL    HW180426   7.925   3.113   4.798  1.1009  1.5854  0.0771
57216SOL    HW280427   8.010   3.092   4.921  0.1047 -2.0819  0.2526
57217SOL     OW80428   1.352  11.936   2.473  0.5453  0.2019  0.0257
57217SOL    HW180429   1.414  12.002   2.506 -0.1110  0.3287  1.0251
57217SOL    HW280430   1.285  11.987   2.428  0.4536  0.1531  0.1086
57218SOL     OW80431   1.287   7.199   4.608 -0.1361 -0.0724  0.0173
57218SOL    HW180432   1.365   7.160   4.646 -0.2462 -0.5997 -0.2907
57218SOL    HW280433   1.217   7.136   4.625 -0.0402 -0.7040 -1.7164
57219SOL     OW80434  12.183   5.784   0.514 -0.1599  0.3895  0.4282
57219SOL    HW180435  12.193   5.724   0.439 -0.3363  0.4917  0.3228
57219SOL    HW280436  12.268   5.782   0.557  0.2585  1.0691 -0.3285
57220SOL     OW80437   7.531   2.515  10.491 -0.2589  0.4741 -0.6291
57220SOL    HW180438   7.577   2.591  10.526 -0.1115  0.4533 -0.7791
57220SOL    HW280439   7.452   2.508  10.546 -0.4047  0.8870 -0.7770
57221SOL     OW80440   9.467   5.758  12.292 -0.1805 -0.4709  0.2040
57221SOL    HW180441   9.505   5.809  12.221 -1.2914 -0.9795 -0.7903
57221SOL    HW280442   9.406   5.698  12.249 -1.8610  0.0828  1.6719
57222SOL     OW80443   2.780  11.878   6.737 -0.2624 -0.2234  0.6264
57222SOL    HW180444   2.686  11.869   6.750 -0.6963  0.6435 -1.5152
57222SOL    HW280445   2.811  11.922   6.816 -1.4111 -1.6351  1.9218
57223SOL     OW80446   9.160   1.017   2.381 -0.8461  0.3917  0.2702
57223SOL    HW180447   9.223   0.946   2.381 -0.9310  0.3129  0.5611
57223SOL    HW280448   9.173   1.061   2.465  0.3542  1.7640 -0.5906
57224SOL     OW80449   8.911   0.765   5.526 -0.1584 -0.1857  0.0178
57224SOL    HW180450   8.864   0.683   5.543 -1.1364  0.4840  0.6336
57224SOL    HW280451   8.855   0.813   5.465 -0.5937  0.8704  1.2015
57225SOL     OW80452   9.613   0.572  10.238  0.2221  0.0863 -0.3699
57225SOL    HW180453   9.633   0.605  10.151  1.3871 -1.0865 -0.5654
57225SOL    HW280454   9.576   0.485  10.224  3.3893 -1.5331  0.3493
57226SOL     OW80455   1.462   1.581   0.768  0.5462 -0.0429  0.0130
57226SOL    HW180456   1.437   1.489   0.761  0.5079 -0.4516  3.6062
57226SOL    HW280457   1.544   1.580   0.818  0.9258  1.8766 -0.4619
57227SOL     OW80458   1.852   8.605  10.193 -0.1776 -0.4560  0.4271
57227SOL    HW180459   1.876   8.637  10.280 -1.2488 -0.9778  0.9314
57227SOL    HW280460   1.928   8.554  10.164  0.1630 -0.3136  1.0641
57228SOL     OW80461  12.550   1.644   3.962 -0.3223 -0.3332  0.0567
57228SOL    HW180462  12.551   1.552   3.985 -0.3353 -0.6769 -1.2497
57228SOL    HW280463  12.641   1.666   3.941 -0.6008 -0.5968 -1.5918
57229SOL     OW80464   8.065   6.643   3.718 -0.0340 -0.3024  0.3501
57229SOL    HW180465   8.001   6.572   3.705  0.3699 -0.6407  0.1765
57229SOL    HW280466   8.139   6.601   3.762 -1.1644  0.7101  3.4514
57230SOL     OW80467   4.643   0.404  10.342  0.1201  0.5609 -0.0057
57230SOL    HW180468   4.589   0.351  10.282  0.0650  0.2686  0.2951
57230SOL    HW280469   4.587   0.477  10.366  0.5693  1.3574 -1.2659
57231SOL     OW80470   7.931   8.861   0.145  0.2664  0.1475 -0.3403
57231SOL    HW180471   7.943   8.820   0.231  2.1786  2.5860  0.6878
57231SOL    HW280472   7.836   8.875   0.139 -0.2995 -2.8577 -0.1215
57232SOL     OW80473   8.115   7.960   1.435  0.5981  0.2356  0.1653
57232SOL    HW180474   8.165   7.985   1.357 -1.0559  2.2504 -0.3425
57232SOL    HW280475   8.092   8.043   1.476 -0.4790 -0.7120  1.5692
57233SOL     OW80476   9.496  11.083   1.331 -0.1622  0.5174  0.1984
57233SOL    HW180477   9.404  11.110   1.333 -0.2023  0.5448 -1.0784
57233SOL    HW280478   9.533  11.117   1.413 -1.0045  1.5566  0.1720
57234SOL     OW80479   9.073   3.318  10.904  0.4363 -0.5493 -0.1527
57234SOL    HW180480   9.087   3.413  10.913 -0.6421 -0.5205  1.6443
57234SOL    HW280481   9.149   3.279  10.948 -0.3055 -0.4683  1.2539
57235SOL     OW80482  10.630  11.394  10.935  0.0422  0.0367 -1.1199
57235SOL    HW180483  10.614  11.316  10.989 -2.4406  1.9017  1.1141
57235SOL    HW280484  10.560  11.392  10.870 -0.1806  0.4675 -0.9018
57236SOL     OW80485  10.509   2.226   1.178  0.6366  0.0555 -0.2032
57236SOL    HW180486  10.561   2.201   1.102  0.7187  2.4938 -1.0486
57236SOL    HW280487  10.474   2.144   1.212  0.5201 -1.1250 -2.9339
57237SOL     OW80488  10.762   6.414   5.593  0.5379 -0.0084 -0.0407
57237SOL    HW180489  10.736   6.327   5.624  0.6227  0.0364  0.1541
57237SOL    HW280490  10.681   6.466   5.597  0.9571  0.5594  2.0203
57238SOL     OW80491   3.762   1.885   0.057  0.0862  0.3606 -0.3520
57238SOL    HW180492   3.842   1.833   0.069  0.0019  0.2854 -0.1010
57238SOL    HW280493   3.786   1.973   0.086  0.3538  0.5671 -1.1860
57239SOL     OW80494  11.472   2.720   5.711 -0.1991 -0.0234  0.0115
57239SOL    HW180495  11.431   2.768   5.639 -2.3097  1.2541  1.9611
57239SOL    HW280496  11.468   2.628   5.684 -1.4036  0.3776 -1.2738
57240SOL     OW80497   5.387   0.832  11.506 -0.8732 -0.1242  0.0055
57240SOL    HW180498   5.437   0.752  11.522 -1.8205 -0.9489 -1.0246
57240SOL    HW280499   5.300   0.813  11.540 -0.6930  1.0776  1.2234
57241SOL     OW80500  11.073   8.024   3.930 -0.0882 -1.3213  0.5911
57241SOL    HW180501  11.141   7.966   3.895 -1.1653 -2.2219 -0.0750
57241SOL    HW280502  11.121   8.101   3.962  1.4994 -2.9692  2.4144
57242SOL     OW80503   6.944   1.493   0.813 -0.2438  0.0133  0.3722
57242SOL    HW180504   7.008   1.433   0.851 -1.7798 -0.3647  2.6077
57242SOL    HW280505   6.994   1.550   0.755  1.5208 -2.3648 -0.5705
57243SOL     OW80506  12.039   1.874   2.279 -0.0450  0.0462  0.2816
57243SOL    HW180507  11.952   1.898   2.311 -0.3699 -0.0900 -0.4855
57243SOL    HW280508  12.098   1.894   2.352 -0.8706 -1.0518  1.2811
57244SOL     OW80509  10.333  12.098   3.264 -0.3524  0.4349 -0.2357
57244SOL    HW180510  10.272  12.119   3.333  0.4112 -0.3471  0.7089
57244SOL    HW280511  10.399  12.167   3.267  0.8163 -0.6663  1.2438
57245SOL     OW80512  12.030   5.016  11.764  0.1863  0.1705  0.4135
57245SOL    HW180513  12.079   4.945  11.723 -0.5127  0.0509 -0.2257
57245SOL    HW280514  12.059   5.015  11.855  0.1620 -0.9593  0.4228
57246SOL     OW80515   3.091   8.134   9.493  0.2944  0.0500  0.4611
57246SOL    HW180516   3.148   8.118   9.418  1.8660  0.5907  1.5047
57246SOL    HW280517   3.060   8.224   9.480 -0.3815 -0.2529 -0.1173
57247SOL     OW80518   2.376   0.146  11.394  0.6795  0.3218 -0.8109
57247SOL    HW180519   2.426   0.066  11.375 -0.2388 -0.3319 -0.5464
57247SOL    HW280520   2.365   0.145  11.489 -1.5802 -0.6579 -1.0214
57248SOL     OW80521   1.554   2.630   2.168 -0.1173 -0.1122 -0.4547
57248SOL    HW180522   1.528   2.614   2.077  1.3156 -0.2144 -0.8736
57248SOL    HW280523   1.533   2.549   2.213 -1.2763  0.0995 -0.5673
57249SOL     OW80524   5.084   5.102   4.832  0.4364 -0.2096 -0.1791
57249SOL    HW180525   5.173   5.136   4.842  0.1093  0.2962  1.1741
57249SOL    HW280526   5.072   5.045   4.908 -1.0861  1.3192  0.8031
57250SOL     OW80527   6.631   2.489   1.409 -0.3363  0.4711 -0.6723
57250SOL    HW180528   6.556   2.459   1.461  0.2657  1.8071  1.0245
57250SOL    HW280529   6.595   2.559   1.354 -0.6099  0.2043 -0.8381
57251SOL     OW80530   3.889   0.776   5.670  0.5863 -0.2686 -0.0936
57251SOL    HW180531   3.895   0.710   5.739  2.4791 -0.1278 -0.0764
57251SOL    HW280532   3.960   0.837   5.689 -0.1810  0.9542 -0.9861
57252SOL     OW80533  10.637   3.379   3.676 -0.1908 -0.6867  0.3719
57252SOL    HW180534  10.654   3.301   3.623  0.9419 -1.5315  1.8880
57252SOL    HW280535  10.548   3.405   3.653 -0.5712 -2.3769 -0.2385
57253SOL     OW80536   2.659   2.977   7.574  0.0170 -0.5399 -0.0457
57253SOL    HW180537   2.625   2.968   7.485  0.0621 -1.1839 -0.0018
57253SOL    HW280538   2.638   2.894   7.616  0.7960 -0.5827  0.2719
57254SOL     OW80539   6.200   1.204   4.282  0.0428  0.1896 -0.0126
57254SOL    HW180540   6.153   1.179   4.203 -1.6435  1.3621  0.5527
57254SOL    HW280541   6.260   1.132   4.299 -0.2993 -0.5498 -1.7753
57255SOL     OW80542   1.197   2.462   5.802  0.2405  0.2575 -0.3467
57255SOL    HW180543   1.200   2.430   5.892 -0.7282  0.1692 -0.3308
57255SOL    HW280544   1.140   2.539   5.805 -0.7067 -0.3925 -1.0542
57256SOL     OW80545  11.325   5.707   4.160  0.3010 -0.0522  0.0101
57256SOL    HW180546  11.289   5.773   4.101 -0.8695 -0.6774  0.0072
57256SOL    HW280547  11.418   5.728   4.165 -0.0453  1.6237  0.0263
57257SOL     OW80548   1.035   8.125   3.417  0.5674  0.4929 -0.2415
57257SOL    HW180549   1.061   8.175   3.340  0.0156  0.0937 -0.7025
57257SOL    HW280550   0.944   8.152   3.433  0.4996  0.1700 -0.0694
57258SOL     OW80551  10.792   2.998   6.200  0.4510 -0.1425 -0.3967
57258SOL    HW180552  10.852   3.072   6.195  0.0829  0.1188 -1.0063
57258SOL    HW280553  10.774   2.975   6.108  0.8352 -1.2089 -0.2282
57259SOL     OW80554   2.191   3.903   9.870  0.4492  0.0175  0.2373
57259SOL    HW180555   2.174   3.996   9.884  2.9940  0.7984 -1.0624
57259SOL    HW280556   2.105   3.862   9.869 -0.6784  2.1531  2.0227
57260SOL     OW80557   0.873  11.219   4.544  0.3358 -0.3761 -0.6060
57260SOL    HW180558   0.778  11.207   4.548 -0.0442  2.4132  1.6564
57260SOL    HW280559   0.886  11.299   4.494  1.5689 -0.9558 -1.2769
57261SOL     OW80560   5.204   7.730  11.414 -0.2125  0.0771  0.4433
57261SOL    HW180561   5.123   7.757  11.456 -1.0803  0.0504 -1.1581
57261SOL    HW280562   5.185   7.644  11.376  0.1630  0.5799 -0.9509
57262SOL     OW80563   1.080  10.320  11.367  0.1112 -0.4394  0.3658
57262SOL    HW180564   1.045  10.309  11.456 -2.4861  1.6130 -0.2787
57262SOL    HW280565   1.164  10.366  11.380 -1.0390  1.4412  1.7710
57263SOL     OW80566   1.147   6.032  12.383  0.5993  0.1854  0.2636
57263SOL    HW180567   1.122   6.081  12.462  3.4360  1.1303  0.7089
57263SOL    HW280568   1.087   5.957  12.381 -1.6603  1.8434  1.4750
57264SOL     OW80569   4.622   7.736   0.208 -0.3191  0.2999  0.2136
57264SOL    HW180570   4.664   7.676   0.270 -0.2147 -0.1398 -0.2793
57264SOL    HW280571   4.668   7.819   0.220 -0.1168  0.1440  0.5314
57265SOL     OW80572   4.659   4.778   6.234  0.4766  0.0035  0.2275
57265SOL    HW180573   4.585   4.832   6.261  0.0692 -0.8530  0.8375
57265SOL    HW280574   4.718   4.778   6.309  1.1891  0.7939 -0.3006
57266SOL     OW80575   6.995   7.368   5.233 -0.8405  0.5010 -0.0693
57266SOL    HW180576   7.089   7.384   5.235 -0.9784  1.2839  0.9327
57266SOL    HW280577   6.960   7.418   5.306 -2.1314  0.7547 -0.8201
57267SOL     OW80578   4.501   3.782   5.281 -0.1309  0.9174  0.0040
57267SOL    HW180579   4.491   3.763   5.374 -0.7108  0.9081 -0.0592
57267SOL    HW280580   4.436   3.850   5.262 -0.3709  0.5521 -0.5061
57268SOL     OW80581   3.090   0.645  11.605 -0.4409  0.0003 -0.4249
57268SOL    HW180582   3.184   0.658  11.598 -0.5836  0.8382 -0.8732
57268SOL    HW280583   3.055   0.729  11.633 -1.2403  0.2564 -2.0700
57269SOL     OW80584   8.615   7.717   3.863  0.2014  0.0689  0.6518
57269SOL    HW180585   8.623   7.807   3.833  0.9000 -0.6613 -1.5643
57269SOL    HW280586   8.526   7.711   3.898 -0.8791  0.9584 -1.7509
57270SOL     OW80587   9.612   3.998   5.068 -0.6951  0.2683 -0.2620
57270SOL    HW180588   9.561   4.074   5.040 -0.4260  0.8004  0.6480
57270SOL    HW280589   9.690   4.035   5.108 -0.5990 -0.4886  0.2797
57271SOL     OW80590  12.046   3.557   0.373  0.6131  0.7865 -0.7904
57271SOL    HW180591  11.981   3.590   0.311 -0.8641 -0.4867  0.0079
57271SOL    HW280592  12.027   3.464   0.381  2.4599  0.4010 -0.3885
57272SOL     OW80593   3.420   3.195  11.069  0.1116 -0.2426 -0.2388
57272SOL    HW180594   3.463   3.206  11.154 -0.7569 -0.7788  0.2876
57272SOL    HW280595   3.492   3.187  11.007  0.7717  1.0673  0.3048
57273SOL     OW80596  11.461  11.901   2.033 -0.5306  0.1642  0.7368
57273SOL    HW180597  11.405  11.969   1.997  0.1917  0.6127  0.4469
57273SOL    HW280598  11.477  11.928   2.123 -0.2907  0.3544  0.6385
57274SOL     OW80599   5.332   0.986  10.343 -0.2249 -0.8305 -0.8340
57274SOL    HW180600   5.309   1.070  10.303  0.3618 -0.4421 -0.3701
57274SOL    HW280601   5.248   0.946  10.365 -0.5721 -1.0250 -2.3687
57275SOL     OW80602   1.993   9.030   8.321 -0.5428 -0.2088 -0.3848
57275SOL    HW180603   1.927   9.001   8.259  0.9938 -2.4608 -1.0835
57275SOL    HW280604   2.061   9.069   8.267 -0.7904  1.1584  0.2406
57276SOL     OW80605  11.779   0.802   2.162 -0.3290 -0.4807 -0.1560
57276SOL    HW180606  11.859   0.798   2.215 -0.2870 -0.3786 -0.2109
57276SOL    HW280607  11.717   0.745   2.208  0.2877 -1.8676 -1.0059
57277SOL     OW80608   0.360   5.633   3.085  0.7195  0.2186  0.5327
57277SOL    HW180609   0.358   5.604   2.994  0.7415  0.5757  0.4194
57277SOL    HW280610   0.268   5.652   3.106  0.7748  0.6012  0.4355
57278SOL     OW80611   7.368   5.378   9.694 -0.2123  0.4067 -0.1487
57278SOL    HW180612   7.433   5.330   9.643  0.1205  0.5747  0.1183
57278SOL    HW280613   7.325   5.310   9.747 -0.8941  0.1559 -0.9941
57279SOL     OW80614  11.872  12.598  12.006  0.8051 -0.3602 -0.5510
57279SOL    HW180615  11.811  12.670  11.994  0.5221 -0.1651  1.6294
57279SOL    HW280616  11.907  12.580  11.919 -1.4696  0.3066 -1.6590
57280SOL     OW80617   7.314   1.292   3.016  0.1656 -0.0952 -0.3176
57280SOL    HW180618   7.275   1.377   3.037  1.3723  0.6964 -1.0703
57280SOL    HW280619   7.323   1.294   2.921 -0.8783 -1.5944 -0.4726
57281SOL     OW80620   0.408   1.083   3.246 -0.0154 -0.0231 -0.2000
57281SOL    HW180621   0.434   1.072   3.337 -0.4454  1.9328  0.2100
57281SOL    HW280622   0.394   0.994   3.214  1.6383 -0.8287  1.1725
57282SOL     OW80623   3.168   4.602   7.047 -0.5987 -0.1152 -0.1669
57282SOL    HW180624   3.205   4.649   6.973  0.9955 -0.6247  0.2814
57282SOL    HW280625   3.130   4.523   7.008 -0.5696  0.0489 -0.5361
57283SOL     OW80626   1.504   9.326   3.874 -0.4199  0.3014  0.1243
57283SOL    HW180627   1.591   9.297   3.843 -0.5417 -1.7338  1.4562
57283SOL    HW280628   1.512   9.326   3.969 -1.8351  0.2052  0.2588
57284SOL     OW80629   9.639   5.745  11.565  0.7773 -0.3479 -0.3656
57284SOL    HW180630   9.702   5.798  11.516 -1.4018  2.2565 -0.5942
57284SOL    HW280631   9.571   5.723  11.501 -0.1080 -0.4099  0.5739
57285SOL     OW80632  10.573   2.970   1.602 -0.7101  0.3053  0.2364
57285SOL    HW180633  10.589   3.051   1.650  1.3641 -0.7199  1.3680
57285SOL    HW280634  10.580   2.901   1.668 -1.0521 -0.9015 -0.9551
57286SOL     OW80635   2.073   4.830   1.591 -0.0128  0.1517 -0.1658
57286SOL    HW180636   2.116   4.906   1.551  0.4284 -0.4185 -0.7897
57286SOL    HW280637   2.096   4.757   1.534  1.1939 -0.8208  1.4910
57287SOL     OW80638   3.639   7.661   3.442 -0.3904  0.3844  0.7402
57287SOL    HW180639   3.722   7.698   3.410 -1.3092  1.5029 -0.4366
57287SOL    HW280640   3.662   7.572   3.468  0.9690  0.2962 -0.5929
57288SOL     OW80641   0.851   5.089  10.278 -0.3843 -0.1414  0.1237
57288SOL    HW180642   0.940   5.060  10.263 -0.7637 -1.0965 -0.3873
57288SOL    HW280643   0.858   5.154  10.347  1.0711  2.1189 -1.9774
57289SOL     OW80644  10.606   4.987   9.589 -0.0738 -0.0439 -0.1895
57289SOL    HW180645  10.592   5.075   9.553  0.2646 -0.8059 -2.3519
57289SOL    HW280646  10.522   4.962   9.627 -0.7809  0.4438 -1.3815
57290SOL     OW80647  10.435   6.844   9.452  0.6209 -0.3496  0.4519
57290SOL    HW180648  10.476   6.927   9.476  0.2788 -0.3256  0.9845
57290SOL    HW280649  10.344   6.867   9.433  0.9526 -0.3235 -1.2261
57291SOL     OW80650   3.232  12.039   1.051 -0.0580  0.3302  0.1045
57291SOL    HW180651   3.174  11.995   0.988  0.6697 -0.9850  0.3217
57291SOL    HW280652   3.173  12.076   1.116 -0.7201  0.1239 -0.3659
57292SOL     OW80653   6.157  12.501   1.235 -0.0272 -0.3854  0.3138
57292SOL    HW180654   6.092  12.566   1.262 -0.1687 -0.3001 -0.2017
57292SOL    HW280655   6.193  12.537   1.154 -1.3752 -1.7628 -0.9771
57293SOL     OW80656   1.086   2.188   4.517 -0.4718  0.0055 -0.4150
57293SOL    HW180657   1.070   2.260   4.456  0.7488  0.8205  0.1886
57293SOL    HW280658   1.004   2.177   4.564 -0.9921  0.2946 -1.2295
57294SOL     OW80659   5.546   6.213  10.440 -0.0326 -0.3389 -0.0559
57294SOL    HW180660   5.543   6.125  10.480  1.3180 -1.6712 -2.6479
57294SOL    HW280661   5.611   6.206  10.371  1.5028  3.2939  0.8042
57295SOL     OW80662   3.486   9.207   0.871  0.4664  0.0783  0.2723
57295SOL    HW180663   3.522   9.258   0.799  0.3702  1.5556  1.2303
57295SOL    HW280664   3.393   9.232   0.874  0.8418  1.4187  2.0013
57296SOL     OW80665   5.589   5.650   9.266 -0.2692  0.1620 -0.2832
57296SOL    HW180666   5.589   5.695   9.350  1.3668  0.4633 -0.4209
57296SOL    HW280667   5.529   5.702   9.212 -0.3777  0.6833  0.3202
57297SOL     OW80668   0.871   0.289   2.194  0.0986 -0.1661 -0.3290
57297SOL    HW180669   0.959   0.254   2.180 -0.2360 -0.9381 -0.5126
57297SOL    HW280670   0.869   0.315   2.286  0.1518 -1.2104 -0.0218
57298SOL     OW80671  11.018   6.935   5.280 -0.3661 -0.0768  0.1796
57298SOL    HW180672  11.042   6.957   5.190 -0.1558  0.4417  0.3530
57298SOL    HW280673  10.931   6.972   5.292 -1.5771 -2.4549 -0.6269
57299SOL     OW80674   7.071   4.253  10.340  0.3963 -0.5467 -0.3333
57299SOL    HW180675   7.002   4.311  10.309 -0.6407 -1.1065  0.8427
57299SOL    HW280676   7.152   4.299  10.320 -0.3853  1.3451  0.6351
57300SOL     OW80677   3.301   5.679  12.175  0.7062 -0.0930  0.2421
57300SOL    HW180678   3.244   5.636  12.239  0.0244  1.3064  0.5942
57300SOL    HW280679   3.248   5.686  12.096  1.0824 -0.5670 -0.0633
57301SOL     OW80680   0.443  10.961   6.146  0.1780 -0.7843  0.0996
57301SOL    HW180681   0.403  10.906   6.078 -0.2868 -0.5837  0.2040
57301SOL    HW280682   0.440  11.050   6.110  0.0131 -0.6907  0.3388
57302SOL     OW80683   7.727  12.335   5.542 -0.1574 -0.0930  0.7978
57302SOL    HW180684   7.747  12.422   5.507 -1.0664  0.0836  0.6896
57302SOL    HW280685   7.660  12.351   5.608 -0.0968 -0.6777  1.0049
57303SOL     OW80686   4.954   8.683   4.534 -0.7921  0.2454  0.4050
57303SOL    HW180687   5.021   8.693   4.467 -1.9438 -1.5548 -1.1179
57303SOL    HW280688   4.873   8.711   4.492 -1.5366 -0.9237  1.0057
57304SOL     OW80689   0.634   6.313   2.633 -0.2576  0.1100 -0.6505
57304SOL    HW180690   0.663   6.355   2.714 -2.3026  2.1118 -0.8467
57304SOL    HW280691   0.694   6.346   2.566  0.4798 -0.3217 -0.2181
57305SOL     OW80692   0.967   0.067   7.532  0.2498  0.2941  0.3831
57305SOL    HW180693   0.913   0.053   7.609 -0.7457  1.7282 -0.0260
57305SOL    HW280694   0.911   0.114   7.471  1.0068 -0.7931 -1.2407
57306SOL     OW80695  11.731   4.969   4.772 -0.1451  0.0082  0.1417
57306SOL    HW180696  11.692   5.014   4.848 -1.1409 -0.3803 -0.1289
57306SOL    HW280697  11.818   5.008   4.764 -1.4738  3.0390 -0.9989
57307SOL     OW80698   2.791   5.045   0.206 -0.1569  0.1104 -0.1424
57307SOL    HW180699   2.701   5.038   0.239 -0.0562  3.8755  1.4977
57307SOL    HW280700   2.788   5.119   0.145  1.8856  0.5992  0.2872
57308SOL     OW80701   8.766   7.719   3.113 -0.4865 -0.4019  0.2457
57308SOL    HW180702   8.732   7.807   3.131  2.4224  1.5018 -2.5580
57308SOL    HW280703   8.809   7.693   3.195 -0.1234  1.4620  0.6920
57309SOL     OW80704  10.332   0.918   5.143  0.2916  0.0945 -0.5032
57309SOL    HW180705  10.277   0.856   5.096 -0.5587  1.2884 -1.1340
57309SOL    HW280706  10.379   0.865   5.207 -0.7318 -1.1260 -0.7262
57310SOL     OW80707  11.207   1.105   9.828 -0.1021  0.3175  0.2106
57310SOL    HW180708  11.129   1.076   9.780 -0.3648  0.6075  0.4602
57310SOL    HW280709  11.182   1.099   9.920  0.7341 -1.2291  0.3791
57311SOL     OW80710   4.167   7.931   3.835 -0.0247  0.5126 -0.0008
57311SOL    HW180711   4.112   7.894   3.905  0.3459  2.4628  1.4344
57311SOL    HW280712   4.228   7.862   3.813 -0.9660 -0.5894  0.7171
57312SOL     OW80713   4.587  12.449  11.466  0.7928 -0.4107  0.1070
57312SOL    HW180714   4.555  12.477  11.552  3.8629 -0.2819  1.3568
57312SOL    HW280715   4.557  12.359  11.457 -2.2511  0.5342 -0.2229
57313SOL     OW80716   3.275   7.663   8.219 -0.8023  0.2808 -0.0224
57313SOL    HW180717   3.210   7.601   8.185 -0.4915 -0.1788  0.2146
57313SOL    HW280718   3.243   7.749   8.190 -0.9134 -0.0337 -0.8801
57314SOL     OW80719   0.639   0.208   1.043 -0.1080 -0.7689  1.2662
57314SOL    HW180720   0.620   0.115   1.049  0.5953 -1.0918 -0.7713
57314SOL    HW280721   0.735   0.214   1.046 -0.0032 -0.3985 -1.0800
57315SOL     OW80722   7.535   6.635   1.958  0.2532  0.0203 -0.1815
57315SOL    HW180723   7.554   6.677   2.041  0.0972 -0.9225  0.3446
57315SOL    HW280724   7.543   6.705   1.893  0.3464  0.7700  0.6222
57316SOL     OW80725   1.228  10.101   4.823  0.3771 -0.0291  0.5946
57316SOL    HW180726   1.185  10.144   4.897  0.8887  1.3224  0.1223
57316SOL    HW280727   1.167  10.032   4.797  0.5466 -1.1094  2.7834
57317SOL     OW80728   2.404  11.827   3.602 -1.0726  0.3552  0.3262
57317SOL    HW180729   2.403  11.880   3.682  0.3705 -0.9655  1.2853
57317SOL    HW280730   2.490  11.785   3.602 -0.5736  1.1212 -2.5087
57318SOL     OW80731  11.085  12.042  12.083  0.0356 -0.3722  0.0091
57318SOL    HW180732  11.085  12.039  11.987 -0.8618 -0.2640 -0.0093
57318SOL    HW280733  11.177  12.045  12.108  0.3031 -1.2211 -0.8303
57319SOL     OW80734   1.743   8.880  11.159 -0.2965  0.3877 -0.9941
57319SOL    HW180735   1.821   8.931  11.138 -0.5418  0.6119 -1.3845
57319SOL    HW280736   1.686   8.942  11.206  0.1515 -0.0444  0.1507
57320SOL     OW80737   5.465   5.704   9.796 -0.4212  0.0526 -0.1862
57320SOL    HW180738   5.437   5.644   9.866 -0.8040  2.2046  1.6252
57320SOL    HW280739   5.384   5.723   9.747 -0.8034  0.8752  0.7231
57321SOL     OW80740   9.082   2.582  10.867 -0.0102 -0.0956 -0.1518
57321SOL    HW180741   9.020   2.639  10.913 -1.6836 -1.4400 -0.6325
57321SOL    HW280742   9.131   2.539  10.936 -0.0945  0.4610  0.2648
57322SOL     OW80743   5.154   9.433   7.143  0.2408 -0.0705  0.1962
57322SOL    HW180744   5.133   9.522   7.113 -0.5902 -0.4430 -0.3570
57322SOL    HW280745   5.237   9.442   7.189  2.3569  0.3175 -3.3740
57323SOL     OW80746   6.577  11.543  11.856  0.5698  0.2652  0.2617
57323SOL    HW180747   6.488  11.577  11.849  0.6510  0.2578 -1.1493
57323SOL    HW280748   6.632  11.622  11.859  0.6081  0.2921 -0.6766
57324SOL     OW80749   6.296   1.090  11.268  0.3388 -0.4241 -0.1579
57324SOL    HW180750   6.359   1.108  11.338 -0.0400 -0.0396  0.0851
57324SOL    HW280751   6.230   1.158  11.277  0.8188  0.2682 -1.5483
57325SOL     OW80752  12.194   9.503  11.861  0.7861 -0.2011 -0.5361
57325SOL    HW180753  12.214   9.482  11.770 -0.5221  0.0487 -0.9084
57325SOL    HW280754  12.198   9.599  11.864 -0.4831 -0.1246 -0.6865
57326SOL     OW80755  12.112   4.463   1.134  1.0290  0.1250  0.2205
57326SOL    HW180756  12.040   4.419   1.180  0.4001 -0.6965 -1.4843
57326SOL    HW280757  12.093   4.556   1.145 -0.4588 -0.0738 -0.4136
57327SOL     OW80758   0.259   9.895   8.939 -0.3925  0.3453 -0.6042
57327SOL    HW180759   0.199   9.821   8.950 -1.5324  1.2258 -0.7646
57327SOL    HW280760   0.271   9.902   8.844  0.5066 -0.2408 -0.5423
57328SOL     OW80761   4.426  11.970   9.971 -0.4250 -0.0613 -0.4244
57328SOL    HW180762   4.380  11.982   9.888 -0.5285  0.3420 -0.3115
57328SOL    HW280763   4.477  11.890   9.959 -0.9320 -0.3604 -0.6562
57329SOL     OW80764   8.767  10.449   1.686 -0.0924  0.3354  0.4610
57329SOL    HW180765   8.858  10.478   1.693 -0.4234  2.0240 -1.2253
57329SOL    HW280766   8.770  10.375   1.624  0.1362  0.3863  0.4124
57330SOL     OW80767   7.962   2.540  11.177 -0.0381  0.0774  0.1019
57330SOL    HW180768   8.057   2.538  11.167  0.1050  1.7361  0.8144
57330SOL    HW280769   7.946   2.609  11.241 -1.6473 -1.2004  1.1758
57331SOL     OW80770   3.776   2.424   8.096 -0.6056  0.5113 -0.3666
57331SOL    HW180771   3.862   2.402   8.131 -0.6369  1.2906  0.2108
57331SOL    HW280772   3.774   2.382   8.009  0.4089  0.6238 -0.4511
57332SOL     OW80773   6.081   7.174   6.167  0.2857 -0.2556  0.3990
57332SOL    HW180774   6.078   7.153   6.260  0.1884  0.6233  0.5983
57332SOL    HW280775   6.014   7.240   6.154  0.3772 -0.2831 -0.2765
57333SOL     OW80776   8.799   5.771   1.245 -0.5600 -0.3831 -0.0438
57333SOL    HW180777   8.738   5.700   1.222 -1.1161  0.0160  0.1860
57333SOL    HW280778   8.753   5.851   1.220  0.7983 -0.1407 -2.0580
57334SOL     OW80779   6.843  12.183   2.301  0.5230  0.4327  0.4747
57334SOL    HW180780   6.790  12.110   2.269 -1.8923  1.9752  0.7109
57334SOL    HW280781   6.817  12.193   2.393  0.2801  1.9741  0.2601
57335SOL     OW80782   6.228   8.591  11.501  0.1103 -0.1206 -0.1476
57335SOL    HW180783   6.185   8.610  11.418  1.9449 -0.8025 -1.2967
57335SOL    HW280784   6.297   8.529  11.479  2.2102  1.5022  1.4831
57336SOL     OW80785   0.880   1.722   7.584 -0.0807 -0.1884 -0.5748
57336SOL    HW180786   0.814   1.778   7.543 -0.5509 -0.5639 -0.3475
57336SOL    HW280787   0.901   1.657   7.517 -0.9894 -0.9174 -0.1788
57337SOL     OW80788   4.015   3.309   8.017 -0.3440 -0.3820  0.0117
57337SOL    HW180789   3.941   3.260   7.980 -0.3696 -0.0432 -0.3914
57337SOL    HW280790   4.093   3.266   7.980 -0.3302 -0.7891  0.4985
57338SOL     OW80791   9.555   4.961   0.043  0.2905  0.5582  0.6417
57338SOL    HW180792   9.619   4.905   0.086  2.2241  1.9534 -0.2828
57338SOL    HW280793   9.514   4.904  -0.023 -1.4865 -1.1084  2.9965
57339SOL     OW80794   1.683   1.317   8.602  0.1452  0.4014  0.0606
57339SOL    HW180795   1.726   1.329   8.517  1.1668 -0.2638  0.4669
57339SOL    HW280796   1.681   1.222   8.614 -0.1248  0.4880  0.7098
57340SOL     OW80797   7.110   6.029  12.347  0.4333 -0.1960  0.1393
57340SOL    HW180798   7.104   6.060  12.437  1.4672  1.0834 -0.2063
57340SOL    HW280799   7.190   6.068  12.313  0.5295 -1.3635 -1.0811
57341SOL     OW80800   3.915   9.219  10.463 -0.3654  0.0098 -0.4201
57341SOL    HW180801   3.920   9.275  10.385 -0.0664 -1.4940 -1.5420
57341SOL    HW280802   3.962   9.268  10.531  0.4795  0.8306 -1.5464
57342SOL     OW80803   3.935   2.567   5.967 -0.7055 -0.5633  0.1016
57342SOL    HW180804   3.871   2.539   5.902 -2.9405  1.6078  1.1478
57342SOL    HW280805   3.883   2.578   6.047  0.9283  1.5466  0.9588
57343SOL     OW80806   6.845  11.088   9.578 -0.3422  0.1143 -0.0208
57343SOL    HW180807   6.841  11.157   9.511  0.5189 -0.0995 -0.2994
57343SOL    HW280808   6.809  11.130   9.657 -0.0847  0.7968 -0.2564
57344SOL     OW80809   2.425   4.810   8.335 -0.2313  0.5088 -0.3531
57344SOL    HW180810   2.359   4.827   8.402  0.6692  0.4345  0.5806
57344SOL    HW280811   2.503   4.855   8.367  0.1453  0.6847 -1.4879
57345SOL     OW80812   8.724   5.280   0.532  0.0613 -0.2574  0.9546
57345SOL    HW180813   8.654   5.265   0.595 -2.2638  1.1179 -1.1150
57345SOL    HW280814   8.723   5.375   0.517  0.6229 -0.5168 -0.9951
57346SOL     OW80815   4.171   3.174   2.554  0.3714  0.1147  0.4870
57346SOL    HW180816   4.162   3.156   2.648  0.6921 -0.2790  0.4465
57346SOL    HW280817   4.247   3.233   2.549  1.0991 -0.7976  0.3863
57347SOL     OW80818  10.379  11.755  11.771  0.0846 -0.0133  0.7908
57347SOL    HW180819  10.315  11.776  11.705 -0.7652 -0.7585  1.3520
57347SOL    HW280820  10.357  11.666  11.799  1.0825 -0.1199  1.3139
57348SOL     OW80821  10.774   5.161   5.083  0.1664 -0.1183 -0.0689
57348SOL    HW180822  10.797   5.127   5.170 -0.7487 -0.0532  0.2122
57348SOL    HW280823  10.858   5.167   5.036  0.3365 -3.9432 -0.5791
57349SOL     OW80824   6.782  10.641   7.842  0.4316  0.1001 -0.5240
57349SOL    HW180825   6.865  10.649   7.795  0.6589  0.9011  0.0015
57349SOL    HW280826   6.745  10.558   7.811  1.0152  0.1547 -1.4069
57350SOL     OW80827   9.749   6.284   0.736 -0.1356 -0.6469 -0.0214
57350SOL    HW180828   9.701   6.348   0.683 -0.7425  0.6451  1.9493
57350SOL    HW280829   9.693   6.270   0.813  2.1826  0.2706  1.9606
57351SOL     OW80830   9.241   2.700   4.861  0.2023  0.0016  0.3067
57351SOL    HW180831   9.308   2.746   4.912  0.7695  0.0372 -0.4427
57351SOL    HW280832   9.260   2.607   4.875  1.3125  0.0006 -1.0125
57352SOL     OW80833   7.381  10.470   1.547  0.3229  0.1385 -0.0790
57352SOL    HW180834   7.469  10.504   1.561  0.7107 -0.3085 -1.3324
57352SOL    HW280835   7.368  10.406   1.616  1.4272 -0.6298 -0.5706
57353SOL     OW80836  11.839   0.665   0.401  0.4036 -0.1001 -0.3753
57353SOL    HW180837  11.867   0.676   0.310  3.1036 -0.8470  0.2533
57353SOL    HW280838  11.829   0.570   0.412  1.5834 -0.1615  0.4323
57354SOL     OW80839   7.289   9.328   6.200  0.1701 -0.0471  0.5598
57354SOL    HW180840   7.360   9.264   6.212 -0.5331 -0.8555  0.5243
57354SOL    HW280841   7.212   9.285   6.237 -0.0793  1.3051  1.6788
57355SOL     OW80842   9.990   2.874  11.846  0.3991  0.0558 -0.5383
57355SOL    HW180843   9.905   2.848  11.882  0.4435 -0.6141 -0.8870
57355SOL    HW280844   9.971   2.954  11.796  0.0525  0.1378 -0.2809
57356SOL     OW80845  12.068   9.422   5.301  0.4232 -0.1296 -0.4186
57356SOL    HW180846  12.036   9.365   5.231 -0.5493  0.0741 -0.1474
57356SOL    HW280847  12.139   9.472   5.261  0.1380 -0.2972 -1.1441
57357SOL     OW80848  12.124  10.979   5.628 -0.1528  0.0339  0.5258
57357SOL    HW180849  12.132  10.958   5.535  2.1418 -0.2990  0.7480
57357SOL    HW280850  12.074  10.906   5.665 -0.7727 -0.0071 -0.3545
57358SOL     OW80851   1.644  12.104   1.593  0.0172  0.4378 -0.1111
57358SOL    HW180852   1.721  12.085   1.647 -0.9517  0.6887  1.4161
57358SOL    HW280853   1.638  12.030   1.532  1.2501  0.2509 -0.0183
57359SOL     OW80854   6.553   2.612  12.336 -0.1749 -0.0950  0.1031
57359SOL    HW180855   6.478   2.671  12.348 -0.4004 -0.3267 -0.1611
57359SOL    HW280856   6.628   2.663  12.367 -0.5100 -0.0522  0.8613
57360SOL     OW80857   5.453   4.550   6.433 -0.4956  0.5197 -0.1870
57360SOL    HW180858   5.392   4.622   6.440 -1.2620  0.0788 -1.9007
57360SOL    HW280859   5.458   4.514   6.521 -0.8351  2.0467  0.4830
57361SOL     OW80860   8.063   4.907  11.932  0.3736  0.0499 -0.1995
57361SOL    HW180861   8.101   4.899  11.844  1.6439  1.8893  0.1219
57361SOL    HW280862   7.974   4.940  11.917  0.2490 -0.5353 -0.8060
57362SOL     OW80863   0.480  11.695  10.172  0.0509  0.1719 -0.3924
57362SOL    HW180864   0.512  11.616  10.127 -2.4941 -2.6257  2.2050
57362SOL    HW280865   0.440  11.747  10.102  0.6526 -1.4552 -2.0446
57363SOL     OW80866   8.815   5.177   1.310  0.5012 -0.0651  0.2906
57363SOL    HW180867   8.759   5.255   1.310  0.1764 -0.2710  1.7020
57363SOL    HW280868   8.904   5.211   1.305  0.3167  0.3300 -0.4571
57364SOL     OW80869   3.698   2.981   6.878 -0.4418  0.3120  0.1097
57364SOL    HW180870   3.698   2.885   6.886  0.3072  0.3276  0.3898
57364SOL    HW280871   3.671   2.997   6.788  1.7990 -0.2716 -0.7438
57365SOL     OW80872  12.430   7.209  11.407  0.3525 -0.3146  0.5140
57365SOL    HW180873  12.455   7.225  11.498  1.1346  3.4502 -0.1623
57365SOL    HW280874  12.511   7.224  11.357 -0.6068  0.3231 -0.9201
57366SOL     OW80875   4.644   6.878   6.070 -0.2328  0.2644  0.4257
57366SOL    HW180876   4.675   6.956   6.115 -0.3911  1.0357 -0.7488
57366SOL    HW280877   4.723   6.838   6.034 -0.3394  1.2437 -1.0262
57367SOL     OW80878   8.979   4.034   4.037  0.4276  0.2113  0.0413
57367SOL    HW180879   8.922   4.052   3.963  2.1299 -0.3212 -1.4656
57367SOL    HW280880   9.022   4.117   4.056 -0.2654  0.4346  0.7057
57368SOL     OW80881   1.860   1.729   0.658  0.0048 -0.0779 -0.1915
57368SOL    HW180882   1.838   1.676   0.735  0.2567 -0.4163 -0.3485
57368SOL    HW280883   1.952   1.710   0.642  0.4694  1.4227  0.5378
57369SOL     OW80884   1.677   4.736   1.103  0.1083 -0.1708  0.3071
57369SOL    HW180885   1.664   4.653   1.149 -0.1348  0.3640  1.2265
57369SOL    HW280886   1.598   4.786   1.121  0.5017  0.4862  0.2472
57370SOL     OW80887  10.286   8.176  10.890 -0.9252  0.3971  0.1022
57370SOL    HW180888  10.192   8.165  10.905 -0.7195  0.9700  2.2036
57370SOL    HW280889  10.294   8.260  10.844 -1.4648  0.2699 -0.2206
57371SOL     OW80890   7.796   6.162   4.357  0.0836 -0.9132  0.0826
57371SOL    HW180891   7.766   6.234   4.412  1.5210  0.2243 -0.5466
57371SOL    HW280892   7.733   6.158   4.285 -0.3390 -0.6839  0.4407
57372SOL     OW80893   6.285   6.858   9.663  0.2351  0.1649  0.0149
57372SOL    HW180894   6.274   6.831   9.754  1.7419 -2.3170 -0.4477
57372SOL    HW280895   6.314   6.949   9.669 -1.2877  0.6007  1.8941
57373SOL     OW80896   9.424   6.163   3.203  0.0569 -0.0447 -0.5537
57373SOL    HW180897   9.471   6.094   3.156  0.1717 -2.2563  2.4540
57373SOL    HW280898   9.491   6.206   3.255 -0.4012  0.7124 -0.5872
57374SOL     OW80899   0.278   7.746   4.114 -0.4560 -0.4458 -0.1063
57374SOL    HW180900   0.274   7.705   4.200  2.9087  0.0270  0.4034
57374SOL    HW280901   0.214   7.817   4.119  0.5772  0.4239  2.5615
57375SOL     OW80902  12.043   9.043   0.747 -0.2661 -0.1612 -0.0122
57375SOL    HW180903  12.114   9.098   0.779 -0.9648  0.8231 -0.1092
57375SOL    HW280904  12.046   9.054   0.652  0.7689 -1.7946 -0.2218
57376SOL     OW80905   6.532   3.447   3.391 -0.0584 -0.3338  0.0579
57376SOL    HW180906   6.511   3.368   3.340  0.8217 -0.1605 -0.5955
57376SOL    HW280907   6.612   3.480   3.351  1.5805 -1.0584  2.5779
57377SOL     OW80908   6.383   0.312   4.537 -0.1571  1.2719 -0.1846
57377SOL    HW180909   6.348   0.249   4.600  1.6170  0.6081  0.2038
57377SOL    HW280910   6.306   0.355   4.501 -1.3071  0.4730  1.2032
57378SOL     OW80911   4.039  10.847  10.696  0.2987  0.5015  0.2150
57378SOL    HW180912   4.063  10.758  10.720  1.9425  0.2667 -1.9818
57378SOL    HW280913   3.951  10.859  10.733  0.4576 -1.6337  1.4275
57379SOL     OW80914  11.344   0.998  11.810  0.0148 -0.0029  0.6158
57379SOL    HW180915  11.328   0.912  11.849 -0.0912 -0.7266 -0.9679
57379SOL    HW280916  11.435   1.018  11.833  0.9927 -1.8247 -1.2515
57380SOL     OW80917   1.661   5.429   9.425  0.3306 -0.2705 -0.1524
57380SOL    HW180918   1.668   5.521   9.451  0.1110 -0.4851  0.7122
57380SOL    HW280919   1.570   5.418   9.398 -0.3052 -0.7576  1.9807
57381SOL     OW80920   6.634   2.212  11.792 -0.1196  0.5813  0.4158
57381SOL    HW180921   6.701   2.145  11.779  0.2193  0.9515  0.2603
57381SOL    HW280922   6.620   2.249  11.705 -1.8452 -0.7323  0.0613
57382SOL     OW80923   2.772   5.161  10.583  0.3752 -0.4009  0.1799
57382SOL    HW180924   2.735   5.072  10.579  0.2197 -0.3498  0.4320
57382SOL    HW280925   2.831   5.166  10.508 -1.0999 -0.0464 -1.0162
57383SOL     OW80926   5.714   5.472   6.106 -0.0606 -0.9985 -0.3846
57383SOL    HW180927   5.646   5.411   6.136 -0.2900 -0.5828 -0.0394
57383SOL    HW280928   5.766   5.422   6.043  0.8804 -2.1324  1.2350
57384SOL     OW80929  11.308   5.908   4.397 -0.2362 -0.3454  0.7647
57384SOL    HW180930  11.381   5.954   4.355  0.8674  0.8270  3.6468
57384SOL    HW280931  11.230   5.951   4.363  0.4566 -0.5717 -1.2307
57385SOL     OW80932  10.384   2.572   4.684 -0.2103 -0.2606  0.4684
57385SOL    HW180933  10.361   2.590   4.775 -0.9776 -1.7589  0.5966
57385SOL    HW280934  10.410   2.657   4.649  0.4107  0.2867  2.1614
57386SOL     OW80935  10.380   1.971  11.876 -0.3309 -0.3907 -0.2119
57386SOL    HW180936  10.317   2.043  11.883  0.2880 -0.0062  1.9042
57386SOL    HW280937  10.465   2.013  11.876  0.1276 -1.1167  2.9412
57387SOL     OW80938  10.528   8.929   0.161 -0.1079 -0.0912 -0.0294
57387SOL    HW180939  10.460   8.873   0.123  1.0409 -1.5615 -0.0243
57387SOL    HW280940  10.480   9.005   0.194 -1.8402 -1.3551  0.5579
57388SOL     OW80941   3.787   2.720   7.815  0.0234 -0.3993 -0.4687
57388SOL    HW180942   3.835   2.766   7.884 -0.0312  0.6734 -1.1165
57388SOL    HW280943   3.778   2.785   7.745 -0.3888 -1.2933 -1.2705
57389SOL     OW80944   9.718   2.405   1.265 -0.6186  0.1231 -0.3050
57389SOL    HW180945   9.766   2.392   1.347  0.2575  0.7396 -0.6930
57389SOL    HW280946   9.634   2.443   1.291  0.2451  1.7778  0.2455
57390SOL     OW80947  11.539   3.978  12.286  0.4637  0.1028 -0.2544
57390SOL    HW180948  11.448   3.960  12.263  0.3346  0.6195 -0.1666
57390SOL    HW280949  11.555   3.928  12.365  0.2688 -0.0233 -0.2950
57391SOL     OW80950   2.420   2.564  11.116  0.0368 -0.4492  0.2815
57391SOL    HW180951   2.458   2.553  11.029 -0.1384 -0.3264  0.1912
57391SOL    HW280952   2.408   2.474  11.148 -0.9364 -0.5263 -0.2699
57392SOL     OW80953  10.721   2.201   2.763  0.8264  0.8813 -0.3167
57392SOL    HW180954  10.660   2.127   2.760  0.4072  1.1969  0.2716
57392SOL    HW280955  10.750   2.211   2.672  1.4246 -0.4361 -0.2922
57393SOL     OW80956   1.563   4.572  11.867  0.3200 -0.1342  0.1812
57393SOL    HW180957   1.491   4.571  11.804 -0.6307  1.5987  1.1432
57393SOL    HW280958   1.611   4.653  11.847  0.9247 -0.3545  0.6979
57394SOL     OW80959  12.054  10.549   5.848 -0.5570  0.1107 -0.6189
57394SOL    HW180960  12.061  10.532   5.942 -1.1066  1.4618 -0.3216
57394SOL    HW280961  12.089  10.470   5.807 -0.5907 -0.6226  0.7166
57395SOL     OW80962   5.833   1.332   3.741  0.3598 -0.1214  0.2724
57395SOL    HW180963   5.773   1.400   3.774  1.8646  0.5375  1.8688
57395SOL    HW280964   5.780   1.279   3.682 -1.4437  1.1712  0.6395
57396SOL     OW80965   3.385  10.797  10.794 -0.1684 -0.1199  0.5314
57396SOL    HW180966   3.321  10.729  10.769  0.0335 -0.3346  0.5990
57396SOL    HW280967   3.455  10.788  10.730 -0.4746  0.5048  0.0990
57397SOL     OW80968   0.242   4.952   1.802  0.1627  0.7384 -0.0673
57397SOL    HW180969   0.183   4.887   1.841  1.2147 -0.4552 -0.4161
57397SOL    HW280970   0.291   4.989   1.876  2.0163 -1.3780 -0.1519
57398SOL     OW80971   5.113  10.341   4.683 -0.1922  0.3566  0.0201
57398SOL    HW180972   5.022  10.316   4.699  0.2347 -0.5627  1.1869
57398SOL    HW280973   5.119  10.432   4.715 -0.4193  0.0041  1.1240
57399SOL     OW80974   0.231   3.074   3.409 -0.4701 -0.0736 -0.8566
57399SOL    HW180975   0.259   3.021   3.334  0.5058 -1.0855  0.1808
57399SOL    HW280976   0.220   3.162   3.374  3.3988  0.2881 -1.5572
57400SOL     OW80977   3.319   5.732   7.640 -0.1021  0.0772  0.1134
57400SOL    HW180978   3.405   5.704   7.609  0.0006  1.1696 -0.6506
57400SOL    HW280979   3.307   5.819   7.601 -0.1640  1.3755  2.7828
57401SOL     OW80980  12.495   6.050   4.782  0.1488  0.6314 -0.1771
57401SOL    HW180981  12.511   6.121   4.721  0.7342  1.6071  1.0713
57401SOL    HW280982  12.410   6.013   4.755  1.8637 -1.2563 -3.6841
57402SOL     OW80983   8.098   3.665   3.051 -0.2469 -0.2202 -0.7160
57402SOL    HW180984   8.136   3.749   3.078 -0.4950 -0.6248  1.0467
57402SOL    HW280985   8.008   3.668   3.084 -0.6160 -0.7291 -1.6555
57403SOL     OW80986   0.636   0.592   2.376 -0.0851  0.3184  0.5298
57403SOL    HW180987   0.680   0.523   2.328  0.4226  0.5638  0.6313
57403SOL    HW280988   0.608   0.551   2.458 -0.1899  0.1207  0.3943
57404SOL     OW80989   3.446   9.927  12.348  0.1253 -0.3126 -0.4115
57404SOL    HW180990   3.366   9.880  12.326 -0.3295  1.1793 -2.2385
57404SOL    HW280991   3.478   9.961  12.264 -1.2673  5.1308  0.8521
57405SOL     OW80992   6.668  11.112   3.322 -0.5330  0.1537 -0.0786
57405SOL    HW180993   6.745  11.167   3.318 -0.9451  0.7818  0.4086
57405SOL    HW280994   6.594  11.173   3.328 -0.8871 -0.3927  2.4946
57406SOL     OW80995   3.650   3.743   6.779  0.0867  0.2670  0.0973
57406SOL    HW180996   3.628   3.795   6.702 -0.8323 -1.6202 -0.9715
57406SOL    HW280997   3.745   3.750   6.787  0.0207  1.9372 -0.0788
57407SOL     OW80998   9.608   2.887   3.692 -0.6125 -0.2173  0.3087
57407SOL    HW180999   9.590   2.829   3.765 -0.9254 -0.0212  0.3899
57407SOL    HW281000   9.590   2.975   3.726  3.2593  0.3687  1.3427
57408SOL     OW81001   3.123  11.359   1.747 -0.3184  0.0717  0.2134
57408SOL    HW181002   3.043  11.327   1.787 -1.7369  1.5814 -1.2870
57408SOL    HW281003   3.096  11.434   1.695  2.0812  0.6450 -0.3333
57409SOL     OW81004   2.548   4.001   5.578 -0.7582  0.0202  0.0427
57409SOL    HW181005   2.593   4.056   5.514  0.9845 -1.1433  0.2110
57409SOL    HW281006   2.501   3.936   5.526  1.8703 -1.8666 -0.1332
57410SOL     OW81007  11.527   2.545   2.477 -0.1835  0.2949  0.5872
57410SOL    HW181008  11.528   2.453   2.504  1.8978 -0.3695 -1.3706
57410SOL    HW281009  11.609   2.581   2.513 -0.0066  0.8116 -0.3058
57411SOL     OW81010   0.666   8.615   3.585 -0.2982  0.1921 -0.0064
57411SOL    HW181011   0.597   8.554   3.613  0.0383 -0.9280 -1.4984
57411SOL    HW281012   0.715   8.633   3.665 -1.3879 -0.2127  0.7831
57412SOL     OW81013   0.410   9.590   1.075 -0.7698 -0.7621  0.5850
57412SOL    HW181014   0.318   9.617   1.069 -0.7795 -1.0875 -0.9848
57412SOL    HW281015   0.456   9.669   1.103 -1.5065 -0.5764  1.3100
57413SOL     OW81016  11.889   1.420   8.487  0.7445 -0.0001  0.3598
57413SOL    HW181017  11.909   1.492   8.427  0.2738 -1.5158 -1.7290
57413SOL    HW281018  11.793   1.421   8.494  0.7918  0.1257  1.0692
57414SOL     OW81019   0.057   5.692   6.756 -0.0000  0.0558  0.3187
57414SOL    HW181020   0.149   5.716   6.761 -0.1118  0.4578  0.5239
57414SOL    HW281021   0.010   5.774   6.770 -0.3885  0.0358 -0.7856
57415SOL     OW81022   7.660   0.643  10.338  0.5178  0.3812 -0.1157
57415SOL    HW181023   7.691   0.725  10.377  0.1537  0.9864 -1.0549
57415SOL    HW281024   7.582   0.620  10.390  0.9653  0.3031  0.5284
57416SOL     OW81025  10.607   7.089   5.156  0.3724 -0.1482 -0.3722
57416SOL    HW181026  10.589   7.066   5.247 -2.2656 -1.0811 -1.0323
57416SOL    HW281027  10.691   7.134   5.159  0.7731 -0.8809  2.3948
57417SOL     OW81028  12.201   5.702   6.800  0.1321  0.4371  0.4529
57417SOL    HW181029  12.159   5.708   6.714  0.2615  0.7379  0.4084
57417SOL    HW281030  12.287   5.742   6.787  0.8507 -1.0933  0.2811
57418SOL     OW81031   4.318  10.287   6.815 -0.1997 -0.3114 -0.2967
57418SOL    HW181032   4.341  10.368   6.861 -1.2221 -0.5892  0.7649
57418SOL    HW281033   4.222  10.287   6.813 -0.2990 -2.1302  1.0062
57419SOL     OW81034   6.286   3.660  11.046 -0.0636 -0.0327 -0.0057
57419SOL    HW181035   6.324   3.741  11.080 -0.2516 -0.6827  1.8598
57419SOL    HW281036   6.343   3.591  11.080 -1.6693 -0.8789  1.0580
57420SOL     OW81037   7.537   9.627   9.340 -0.5211 -0.2533  0.9862
57420SOL    HW181038   7.444   9.645   9.352 -0.1987  0.9348  1.8915
57420SOL    HW281039   7.548   9.535   9.366 -1.4497 -0.4392  0.7464
57421SOL     OW81040   1.245   6.174   2.195  0.4258 -0.6461  0.2685
57421SOL    HW181041   1.264   6.083   2.216  0.8626 -0.6288 -0.0558
57421SOL    HW281042   1.193   6.205   2.270  2.0791 -0.5371  1.4289
57422SOL     OW81043   8.303   4.226  12.099  0.2254 -1.1326 -0.5749
57422SOL    HW181044   8.387   4.229  12.055  0.8153 -0.9994  0.5225
57422SOL    HW281045   8.317   4.169  12.175  0.0038  0.7043  0.9181
57423SOL     OW81046   4.453   6.492   1.220  0.1261  0.2762 -1.1993
57423SOL    HW181047   4.381   6.431   1.234  0.6728 -0.3339 -0.9620
57423SOL    HW281048   4.532   6.439   1.234  0.6110  1.3323  0.3787
57424SOL     OW81049   5.599   0.936  10.919  0.5335 -0.4710  0.2455
57424SOL    HW181050   5.511   0.917  10.950  0.6732 -0.8972  0.3958
57424SOL    HW281051   5.656   0.880  10.973  0.6811 -2.2164 -1.5902
57425SOL     OW81052  12.251   8.925   0.290  0.5667  0.0911 -0.3267
57425SOL    HW181053  12.184   8.919   0.223 -0.4782  0.9256  0.5978
57425SOL    HW281054  12.290   8.838   0.293 -0.0342 -0.2270 -1.3263
57426SOL     OW81055   6.892   3.272   2.345 -0.2494  0.9512  0.0906
57426SOL    HW181056   6.877   3.240   2.256  1.0034  0.0317  0.1832
57426SOL    HW281057   6.847   3.209   2.402 -2.4886  2.4381  0.1093
57427SOL     OW81058  12.316   8.236  12.118  0.2380  0.0866 -0.2922
57427SOL    HW181059  12.227   8.249  12.086 -0.7169 -2.9025  0.7514
57427SOL    HW281060  12.344   8.322  12.149 -3.3608  0.7040  1.7812
57428SOL     OW81061  11.918   2.530   8.628  0.5179  0.0093  0.1509
57428SOL    HW181062  11.877   2.586   8.562  2.0427  0.8202 -0.1750
57428SOL    HW281063  11.916   2.442   8.590 -0.9102  0.0157  0.1694
57429SOL     OW81064   8.893  11.422   0.550  0.0716  0.1510 -0.1148
57429SOL    HW181065   8.850  11.389   0.629 -0.3780 -0.0117 -0.4250
57429SOL    HW281066   8.825  11.422   0.483  0.6196 -0.3532 -0.6814
57430SOL     OW81067   6.003   6.100   2.110 -0.3912 -0.0921 -0.2011
57430SOL    HW181068   5.954   6.179   2.132 -1.0433 -0.6046  0.2432
57430SOL    HW281069   6.069   6.092   2.180 -0.3799  0.0171 -0.2005
57431SOL     OW81070   9.318   9.287   2.957  0.2189  1.1643  0.3032
57431SOL    HW181071   9.304   9.376   2.925 -0.4085  0.6212 -1.0061
57431SOL    HW281072   9.310   9.232   2.880 -0.2105 -0.1119  1.2162
57432SOL     OW81073   0.374   7.091   9.152 -0.4597  0.5476  0.3452
57432SOL    HW181074   0.305   7.063   9.091 -1.2531  1.4446  0.8027
57432SOL    HW281075   0.334   7.163   9.202  0.3979  0.2645  1.4720
57433SOL     OW81076   4.958   2.836   6.521 -0.1458  0.1534  0.1700
57433SOL    HW181077   4.926   2.807   6.607  1.7752 -1.8245  0.2865
57433SOL    HW281078   4.899   2.908   6.497 -1.5280 -0.0812  2.5476
57434SOL     OW81079   8.454   7.749   7.075  0.1193 -0.2901 -0.1224
57434SOL    HW181080   8.452   7.689   7.000  3.3712  0.7756 -1.2479
57434SOL    HW281081   8.509   7.705   7.140  0.0506  0.2243  0.2902
57435SOL     OW81082  10.636   0.401  11.592  0.1097 -0.2775  0.3356
57435SOL    HW181083  10.542   0.385  11.588  0.1947 -0.7633  0.2031
57435SOL    HW281084  10.669   0.335  11.654  0.2855  0.2458  0.8089
57436SOL     OW81085   7.996   1.096   5.660  0.0741 -0.0134  0.2300
57436SOL    HW181086   8.029   1.167   5.605 -1.3232  0.2696 -0.2740
57436SOL    HW281087   7.925   1.057   5.609  1.1535 -2.1750  0.2372
57437SOL     OW81088   7.555   4.251   1.120  0.1028  0.0621  0.0149
57437SOL    HW181089   7.616   4.257   1.046 -0.0610  1.8442 -0.0360
57437SOL    HW281090   7.558   4.338   1.160 -2.4708  0.2501 -0.0342
57438SOL     OW81091  11.620   2.858  10.536 -0.5769 -0.2191  0.1072
57438SOL    HW181092  11.633   2.764  10.528  1.7100  0.0331  0.3004
57438SOL    HW281093  11.693   2.897  10.489 -2.1004  1.5120 -0.9694
57439SOL     OW81094   8.605   3.594   6.015  0.1906 -0.1138 -0.4881
57439SOL    HW181095   8.660   3.635   5.948 -1.5739  0.1679 -1.8568
57439SOL    HW281096   8.524   3.646   6.014 -0.8084 -1.5903  0.1258
57440SOL     OW81097   9.826   8.618  11.301  0.4354 -0.2258 -0.6304
57440SOL    HW181098   9.894   8.677  11.269 -0.8954  0.8576 -1.5812
57440SOL    HW281099   9.744   8.661  11.278 -0.5923 -1.8800 -0.2508
57441SOL     OW81100  11.546  10.086   2.115 -0.0921  0.5007  0.0692
57441SOL    HW181101  11.591  10.020   2.167 -1.3999 -2.3272 -2.1112
57441SOL    HW281102  11.464  10.101   2.162  0.0495  0.2823  0.3936
57442SOL     OW81103   5.731  10.724   1.224 -0.0588  0.4028  0.0791
57442SOL    HW181104   5.808  10.763   1.183 -1.6677  0.6416 -3.0798
57442SOL    HW281105   5.658  10.752   1.169 -2.3721 -0.2984  2.5640
57443SOL     OW81106  12.355   6.769  10.877 -0.3520 -0.2376 -0.1983
57443SOL    HW181107  12.305   6.781  10.958 -0.3096  0.6034 -0.2930
57443SOL    HW281108  12.321   6.835  10.817  1.2343  0.7186 -0.0871
57444SOL     OW81109   2.396  12.545   9.581 -0.4340 -0.2138 -0.1663
57444SOL    HW181110   2.366  12.455   9.592  1.2007 -0.7687  0.0497
57444SOL    HW281111   2.372  12.589   9.663  0.6195 -1.0220  0.5979
57445SOL     OW81112  11.451  10.943   2.073  0.0886  0.2363  0.0332
57445SOL    HW181113  11.517  10.902   2.128  0.9658  1.1504 -0.3226
57445SOL    HW281114  11.468  11.037   2.080 -1.2482  0.5088  0.0271
57446SOL     OW81115   7.107   6.738   5.228  0.3660 -0.4379 -0.3235
57446SOL    HW181116   7.026   6.704   5.265 -1.1157  0.5486 -2.4389
57446SOL    HW281117   7.176   6.691   5.274 -1.2939 -0.0486  2.8097
57447SOL     OW81118   6.567   6.391   4.517  0.3174 -0.2271 -0.4230
57447SOL    HW181119   6.593   6.382   4.425  2.2880 -2.4000  0.2630
57447SOL    HW281120   6.478   6.357   4.520 -0.7215  2.0358 -1.8414
57448SOL     OW81121   0.669   0.545   4.276 -0.1240 -0.0554 -0.1768
57448SOL    HW181122   0.721   0.571   4.200  0.0483 -0.2511 -0.1270
57448SOL    HW281123   0.720   0.475   4.318 -0.0689  0.2547  0.2864
57449SOL     OW81124   6.071  10.918   0.568 -0.5367  0.3249 -0.1574
57449SOL    HW181125   5.987  10.874   0.558 -0.3428  0.1223 -0.9793
57449SOL    HW281126   6.078  10.974   0.491 -0.3448  1.0691  0.3893
57450SOL     OW81127   8.185   4.988   6.869  0.1445 -0.3835 -0.0817
57450SOL    HW181128   8.188   4.963   6.961 -2.3197 -0.6929 -0.0080
57450SOL    HW281129   8.231   4.917   6.823 -0.5253 -1.3743  0.7360
57451SOL     OW81130   3.605   6.258   6.684 -0.1282  0.3408 -0.2239
57451SOL    HW181131   3.676   6.193   6.683 -1.4675 -1.2048 -1.0337
57451SOL    HW281132   3.648   6.341   6.663  1.2627 -0.7779 -2.2100
57452SOL     OW81133   7.828   5.111   2.450  0.1725  0.3847 -0.5313
57452SOL    HW181134   7.913   5.091   2.413  0.9407  1.2574  0.6918
57452SOL    HW281135   7.797   5.188   2.401  1.1085  1.4289  0.4409
57453SOL     OW81136   2.588  10.159   3.404  0.1353  0.2231 -0.1006
57453SOL    HW181137   2.682  10.151   3.421  0.0868  0.8473  0.4642
57453SOL    HW281138   2.548  10.159   3.490 -0.1591  2.7854 -0.1668
57454SOL     OW81139   6.058   4.290   2.492  0.1684  0.1546 -0.1664
57454SOL    HW181140   6.119   4.218   2.486  1.2055  0.8399  1.6501
57454SOL    HW281141   5.990   4.260   2.552 -0.1800  0.1539 -0.5577
57455SOL     OW81142   0.350   4.058  10.962  0.1619 -0.3898 -0.2434
57455SOL    HW181143   0.364   4.151  10.948  0.0102 -0.4586 -0.9067
57455SOL    HW281144   0.430   4.016  10.929 -0.7231 -0.6451 -2.2241
57456SOL     OW81145   5.372  12.546   7.538  0.0944 -0.2034  0.1883
57456SOL    HW181146   5.363  12.640   7.524 -1.4281  0.1685  2.9726
57456SOL    HW281147   5.285  12.510   7.521 -0.3078 -0.5077  2.5706
57457SOL     OW81148   8.616   3.405   3.415 -0.1709 -0.1080 -0.5371
57457SOL    HW181149   8.611   3.437   3.505 -0.3681  1.7436 -1.1701
57457SOL    HW281150   8.710   3.399   3.398 -0.1241 -1.2784  0.0436
57458SOL     OW81151   2.362   9.975   6.282 -0.7017 -0.0281 -0.1910
57458SOL    HW181152   2.383   9.913   6.352  0.5881  0.8734  0.2499
57458SOL    HW281153   2.273  10.003   6.300 -1.0804 -1.2701 -0.0422
57459SOL     OW81154   8.581   4.476   3.865  0.7103 -0.3622 -0.5482
57459SOL    HW181155   8.648   4.541   3.847 -0.7540  1.4594  0.1758
57459SOL    HW281156   8.549   4.449   3.779  2.7824 -1.8068 -0.9287
57460SOL     OW81157   7.563   2.655   0.956  0.2546  0.1549 -0.2044
57460SOL    HW181158   7.520   2.570   0.949 -0.3976  0.5469 -1.3519
57460SOL    HW281159   7.583   2.664   1.049 -1.6712 -0.3056  0.3144
57461SOL     OW81160   8.050   1.530   8.614 -0.3182  0.4954  0.0125
57461SOL    HW181161   8.032   1.622   8.598 -0.3137  0.9606  2.4042
57461SOL    HW281162   8.116   1.530   8.683  1.7231 -1.3002 -1.7527
57462SOL     OW81163   0.770   4.120   1.416 -0.1424  0.3358 -0.6284
57462SOL    HW181164   0.681   4.152   1.430  0.3873  1.2869  0.7405
57462SOL    HW281165   0.826   4.185   1.459  1.0516 -1.7934  1.2239
57463SOL     OW81166   6.128   2.070  10.820  0.0653  0.2184  0.0135
57463SOL    HW181167   6.152   2.162  10.817 -0.8838  0.4822  0.0338
57463SOL    HW281168   6.198   2.027  10.869  2.0026  0.4399 -2.3595
57464SOL     OW81169   2.347   0.322   3.599  0.6935  0.7020 -0.3152
57464SOL    HW181170   2.378   0.359   3.681  2.2873 -0.8496 -0.1466
57464SOL    HW281171   2.356   0.392   3.535 -0.1958  1.8022  0.7275
57465SOL     OW81172   3.992   9.690  11.071 -0.3627  0.1377 -0.1882
57465SOL    HW181173   3.977   9.633  10.996  0.1229 -1.5582  0.9577
57465SOL    HW281174   4.074   9.736  11.051  0.2263 -0.9541 -0.3337
57466SOL     OW81175   9.666   3.190   5.468 -0.2226  0.0202 -0.0101
57466SOL    HW181176   9.703   3.240   5.540  0.3494 -0.1839 -0.1574
57466SOL    HW281177   9.654   3.253   5.397 -0.9398  0.2561  0.3061
57467SOL     OW81178   9.012   9.132  11.355  0.8249  0.4539  0.1114
57467SOL    HW181179   9.070   9.060  11.332 -0.5553 -0.5740 -0.3566
57467SOL    HW281180   8.929   9.089  11.378  0.6067  1.7591  2.0530
57468SOL     OW81181   6.251   1.999  11.919 -0.0763 -0.3305  0.1984
57468SOL    HW181182   6.323   1.936  11.929 -0.0367 -0.2089  0.7073
57468SOL    HW281183   6.245   2.042  12.004  0.0132  0.4784 -0.1858
57469SOL     OW81184   4.382  12.264   3.208 -0.5995  0.4958 -0.4989
57469SOL    HW181185   4.305  12.307   3.170 -1.5471 -1.6275 -1.1017
57469SOL    HW281186   4.347  12.191   3.258  1.0424 -0.9031 -1.2967
57470SOL     OW81187   5.437   5.717   6.133  0.5753 -0.1892  0.2579
57470SOL    HW181188   5.450   5.706   6.039  0.3429  0.5642  0.1294
57470SOL    HW281189   5.435   5.628   6.168 -2.5130 -0.7198 -0.8937
57471SOL     OW81190   3.378  12.258   8.897 -0.1176  0.1452 -0.2526
57471SOL    HW181191   3.312  12.190   8.914  0.8710 -1.0311 -0.9612
57471SOL    HW281192   3.427  12.265   8.978 -0.1440 -0.0782 -0.2168
57472SOL     OW81193   1.764   4.259  11.076 -0.2074  0.0444 -0.6441
57472SOL    HW181194   1.807   4.203  11.011 -0.4285 -1.8677  0.7529
57472SOL    HW281195   1.768   4.208  11.157  0.6100  2.5889  1.0291
57473SOL     OW81196   4.020   3.862   3.243  0.2468  0.0033 -0.0614
57473SOL    HW181197   4.028   3.823   3.330 -0.3315  0.1897  0.0794
57473SOL    HW281198   4.014   3.786   3.184  0.7198 -0.1240  0.0472
57474SOL     OW81199   8.663   2.690   7.772 -0.1209  0.6349  0.3389
57474SOL    HW181200   8.740   2.643   7.804  0.2290  1.3979  0.6261
57474SOL    HW281201   8.698   2.754   7.709 -0.5552  0.7474  0.2052
57475SOL     OW81202   5.290   5.360   5.894 -0.2106 -0.3410 -0.1643
57475SOL    HW181203   5.319   5.429   5.834 -0.7904  0.3165  0.3071
57475SOL    HW281204   5.336   5.378   5.976 -1.2053  0.1625  0.3031
57476SOL     OW81205   9.572   3.699   2.287 -0.4515 -0.3361  0.2876
57476SOL    HW181206   9.659   3.667   2.311  1.4047  2.4699 -2.0465
57476SOL    HW281207   9.547   3.646   2.212  0.2595  0.2070 -0.3513
57477SOL     OW81208   4.916   5.901  11.079  0.5866 -0.4742  0.3522
57477SOL    HW181209   4.907   5.994  11.100  0.9641 -0.0875 -1.0722
57477SOL    HW281210   4.933   5.859  11.164  0.8992  0.8163  0.9576
57478SOL     OW81211   1.530   2.686  11.370  0.2023 -0.3274 -0.2347
57478SOL    HW181212   1.558   2.624  11.438  0.5413  1.4866  1.3655
57478SOL    HW281213   1.595   2.756  11.372  0.1213 -0.1247 -2.3671
57479SOL     OW81214   2.710   5.946   3.745 -0.4117  0.0896  0.5313
57479SOL    HW181215   2.700   5.988   3.659  2.6301  0.6938  0.3349
57479SOL    HW281216   2.706   6.019   3.807 -0.1627 -0.0102  0.6645
57480SOL     OW81217   5.187   0.662   6.723 -0.0334 -0.4507  0.1401
57480SOL    HW181218   5.131   0.677   6.646 -0.9463 -0.4362  0.7920
57480SOL    HW281219   5.140   0.704   6.795 -0.1976 -2.1793  1.0892
57481SOL     OW81220  10.786   6.551  10.129 -0.1770  0.1805  0.1694
57481SOL    HW181221  10.736   6.608  10.187  0.1689  1.8667 -1.0921
57481SOL    HW281222  10.858   6.518  10.183 -1.3137 -0.3843  1.3643
57482SOL     OW81223   3.879  10.296   6.820  0.5397  0.1222 -0.2897
57482SOL    HW181224   3.883  10.201   6.812  0.8981  0.3070 -3.3767
57482SOL    HW281225   3.953  10.319   6.875 -0.1256 -1.4024  1.3454
57483SOL     OW81226   2.013   0.438  10.988 -0.4553 -0.0083 -0.4136
57483SOL    HW181227   2.011   0.481  10.903 -0.9012  0.0213 -0.3873
57483SOL    HW281228   2.014   0.344  10.967  2.5615 -0.0522 -0.5413
57484SOL     OW81229  12.605   4.170  10.850  0.0481  0.0618 -0.0943
57484SOL    HW181230  12.649   4.085  10.860  1.9898  0.9751 -0.5392
57484SOL    HW281231  12.564   4.165  10.763  1.5960  0.1650 -0.8641
57485SOL     OW81232   9.693  12.279   5.702  0.2328  0.3579 -0.2620
57485SOL    HW181233   9.601  12.264   5.722  0.6191  1.0877  2.4494
57485SOL    HW281234   9.699  12.374   5.688  0.5141  0.2451 -0.9629
57486SOL     OW81235   6.242   3.898  12.362 -0.0954  0.2748  0.3602
57486SOL    HW181236   6.321   3.914  12.413 -0.5001 -0.9866  1.4559
57486SOL    HW281237   6.205   3.985  12.347  1.2912  0.8464  0.1427
57487SOL     OW81238  12.362   0.097  10.056  0.0123 -0.4335  0.4383
57487SOL    HW181239  12.343   0.059  10.142 -1.7947 -0.8306 -0.0806
57487SOL    HW281240  12.306   0.175  10.051 -0.5015 -0.8441 -0.6391
57488SOL     OW81241   0.672  10.375   0.113  0.0026 -0.3107 -0.6605
57488SOL    HW181242   0.607  10.316   0.151 -0.6163  0.4497 -0.5072
57488SOL    HW281243   0.756  10.331   0.127 -0.3885 -0.8552  0.0119
57489SOL     OW81244   4.181   4.411   4.919  0.3592  0.0637  0.0999
57489SOL    HW181245   4.118   4.404   4.847 -0.3840 -2.3810  0.8890
57489SOL    HW281246   4.200   4.320   4.943  1.7831  0.7941  1.9831
57490SOL     OW81247   2.974   9.531   5.796  0.7891 -0.0993  0.5071
57490SOL    HW181248   2.940   9.585   5.867  0.7568 -0.5394  0.8254
57490SOL    HW281249   3.050   9.487   5.833  1.1435  0.1410  0.0830
57491SOL     OW81250   0.004   8.008   8.896 -0.1492  1.0341  0.3405
57491SOL    HW181251   0.079   7.970   8.850 -1.5692  1.4097 -2.5089
57491SOL    HW281252   0.040   8.082   8.944  1.6947 -0.3607  1.2031
57492SOL     OW81253  10.898   1.314   8.785  0.3254  0.1468  0.2198
57492SOL    HW181254  10.895   1.320   8.880  0.3174  1.4957  0.1523
57492SOL    HW281255  10.991   1.305   8.764  0.2947 -0.5255  0.3707
57493SOL     OW81256   7.881   4.033  12.565 -0.5889 -0.0392  0.0016
57493SOL    HW181257   7.919   4.073  12.643  1.0889 -1.3181 -0.1059
57493SOL    HW281258   7.934   4.066  12.493 -0.3974 -0.9400 -0.2852
57494SOL     OW81259  10.195   1.531   8.541 -0.0234 -0.4439 -0.0880
57494SOL    HW181260  10.117   1.525   8.596 -0.1610  0.2502 -0.2002
57494SOL    HW281261  10.242   1.607   8.575 -0.5964  0.6044 -1.5449
57495SOL     OW81262   7.757   5.286   8.183 -0.0095 -0.0761 -0.1387
57495SOL    HW181263   7.691   5.323   8.126  0.6157  2.2217  0.5258
57495SOL    HW281264   7.789   5.208   8.137 -2.7075 -0.9212 -0.7206
57496SOL     OW81265   1.585  12.246  10.280 -0.5367 -0.3629  0.0454
57496SOL    HW181266   1.643  12.212  10.213  1.3033  1.9409  0.3337
57496SOL    HW281267   1.638  12.246  10.360 -1.9027 -0.8440  0.9990
57497SOL     OW81268  12.307   6.250   4.524  0.5416 -0.6066  0.1082
57497SOL    HW181269  12.344   6.223   4.440 -0.4232  0.5668 -0.7393
57497SOL    HW281270  12.215   6.225   4.519 -0.1615  1.7988 -0.3232
57498SOL     OW81271   1.837   8.624   6.956 -0.4440 -0.1619  0.5438
57498SOL    HW181272   1.760   8.681   6.953  0.1966  0.7191  0.7277
57498SOL    HW281273   1.861   8.611   6.864 -0.2782  0.3013  0.5190
57499SOL     OW81274   9.191   5.209   8.875 -0.3566  0.1853 -0.3231
57499SOL    HW181275   9.141   5.219   8.793 -0.1752 -0.1204 -0.4727
57499SOL    HW281276   9.128   5.231   8.944 -0.3094  1.1625 -0.5752
57500SOL     OW81277   6.771  11.412   5.228  0.2794  0.6167  0.4009
57500SOL    HW181278   6.717  11.351   5.279 -0.4956  1.3663  0.4920
57500SOL    HW281279   6.744  11.395   5.137  0.4496  0.4547  0.3801
57501SOL     OW81280   5.042   8.286   7.942  0.0346  0.4410  0.2288
57501SOL    HW181281   5.057   8.303   7.849 -0.8171  0.6713  0.1292
57501SOL    HW281282   5.128   8.298   7.983  0.1561  1.5791 -0.3388
57502SOL     OW81283  10.218  10.998  10.598 -0.1183  0.3828 -0.4313
57502SOL    HW181284  10.224  11.057  10.674  0.1548 -0.2811  0.0710
57502SOL    HW281285  10.129  11.011  10.565 -1.0337 -0.9201  1.3390
57503SOL     OW81286   8.234  11.041  11.592 -0.6256 -0.3832  0.4340
57503SOL    HW181287   8.149  11.012  11.626  0.2492 -0.4155  2.7773
57503SOL    HW281288   8.236  11.008  11.503 -1.7625 -3.2089  1.3409
57504SOL     OW81289   3.705  11.786   2.573  0.0446 -0.1598  0.1881
57504SOL    HW181290   3.617  11.799   2.538  0.9080  0.5183 -1.8620
57504SOL    HW281291   3.690  11.757   2.663 -2.2899 -1.2826 -0.4668
57505SOL     OW81292   4.321   6.477   8.771  0.3031  0.2342 -0.4143
57505SOL    HW181293   4.324   6.476   8.676  1.6546 -0.4889 -0.3868
57505SOL    HW281294   4.248   6.419   8.794  0.9777 -0.8767 -1.0019
57506SOL     OW81295   5.192   2.607   5.514 -0.1663  0.1146  0.5210
57506SOL    HW181296   5.179   2.557   5.433  0.5249  0.6152  0.0886
57506SOL    HW281297   5.131   2.681   5.507 -0.6897 -0.2761  0.8427
57507SOL     OW81298   2.436   9.040   7.319 -0.7116 -0.3213  0.1090
57507SOL    HW181299   2.531   9.032   7.325 -0.6461  0.2839 -0.1035
57507SOL    HW281300   2.404   8.950   7.330 -0.1150 -0.5384  0.1114
57508SOL     OW81301   1.644   7.264   8.088  0.5036 -0.2967 -0.6814
57508SOL    HW181302   1.681   7.261   8.000 -0.2099  0.1893 -1.0017
57508SOL    HW281303   1.699   7.327   8.135  0.0901  0.4305 -1.1576
57509SOL     OW81304   7.696   4.703  10.604  0.1983  0.2672  0.6848
57509SOL    HW181305   7.715   4.657  10.686  1.0800 -5.2892 -2.1583
57509SOL    HW281306   7.608   4.673  10.581 -0.3511  2.3800 -0.1138
57510SOL     OW81307   0.105   5.934  10.933  0.7486 -0.3661  0.2668
57510SOL    HW181308   0.178   5.920  10.872 -0.0081  1.6972 -1.2288
57510SOL    HW281309   0.127   6.015  10.979 -0.3852  0.0646  0.0794
57511SOL     OW81310   1.700   3.526   4.951  0.2064 -0.2114 -0.0595
57511SOL    HW181311   1.638   3.568   4.890 -0.9964 -0.9386  0.6121
57511SOL    HW281312   1.783   3.523   4.903 -0.5852 -0.3324 -1.4840
57512SOL     OW81313   2.791  11.374   0.330  0.1738 -0.2753 -0.0117
57512SOL    HW181314   2.705  11.375   0.288  1.1253  0.5700 -2.0523
57512SOL    HW281315   2.819  11.466   0.330  0.5689 -0.3521  1.8144
57513SOL     OW81316   1.464   3.650   9.082 -0.2313  0.2743 -0.1633
57513SOL    HW181317   1.441   3.741   9.103 -0.9589  0.0973 -0.1785
57513SOL    HW281318   1.383   3.601   9.094 -0.0994 -0.2100 -1.1537
57514SOL     OW81319   1.212   9.694   5.582 -1.1566  0.4677  0.5163
57514SOL    HW181320   1.302   9.660   5.582 -0.9103  0.9293 -1.9700
57514SOL    HW281321   1.222   9.788   5.570 -1.9291  0.3705 -1.2753
57515SOL     OW81322  11.023  11.989   0.653 -0.0316 -0.2018  0.0203
57515SOL    HW181323  11.031  11.906   0.700 -1.2694 -0.6467 -0.5085
57515SOL    HW281324  11.104  11.996   0.603 -0.6875 -2.0420 -1.3928
57516SOL     OW81325   3.562  12.586  10.309  0.1671 -0.4372 -0.0220
57516SOL    HW181326   3.607  12.542  10.238  1.8448 -1.1351  1.4079
57516SOL    HW281327   3.616  12.663  10.328 -0.2313 -0.2791  0.5120
57517SOL     OW81328   1.463   8.503   3.390  0.2610  0.5295  0.5567
57517SOL    HW181329   1.403   8.577   3.400  0.2414  0.4961  0.6889
57517SOL    HW281330   1.545   8.533   3.429 -0.5454 -0.5126  3.2824
57518SOL     OW81331   3.328   4.760   8.574  0.0164  0.4290  0.2712
57518SOL    HW181332   3.311   4.771   8.480 -0.8729  3.5883  0.6713
57518SOL    HW281333   3.256   4.807   8.616  0.4722 -0.8092  2.5574
57519SOL     OW81334   4.349  10.773   2.449  0.1175  0.2789  0.0926
57519SOL    HW181335   4.360  10.845   2.388  0.3698 -0.8701 -1.2584
57519SOL    HW281336   4.258  10.745   2.438  0.4381 -0.5713 -0.5157
57520SOL     OW81337   7.744   5.094   8.718  0.6034 -0.0039 -0.2744
57520SOL    HW181338   7.662   5.051   8.697  1.1274 -0.9692 -0.4017
57520SOL    HW281339   7.740   5.177   8.671  0.6614 -1.0058 -2.1641
57521SOL     OW81340   6.694   7.797   3.058  0.2389  0.2048  0.2648
57521SOL    HW181341   6.757   7.725   3.065 -0.3930 -0.3315  0.4883
57521SOL    HW281342   6.690   7.835   3.145  1.9244  1.7008 -0.2384
57522SOL     OW81343   0.817   2.865   6.652 -0.2091  0.2187  0.1057
57522SOL    HW181344   0.900   2.858   6.605 -0.7872 -1.1544 -0.7911
57522SOL    HW281345   0.752   2.882   6.583 -0.6781  1.2967  0.7984
57523SOL     OW81346   2.477   4.295   3.575 -0.3935  0.0973 -0.3707
57523SOL    HW181347   2.482   4.311   3.669 -1.4002 -0.4507 -0.2117
57523SOL    HW281348   2.383   4.286   3.557 -0.2544  0.8433 -1.5391
57524SOL     OW81349   9.011   3.654  11.847  0.4148  0.1503 -0.2745
57524SOL    HW181350   8.994   3.624  11.757  2.3887 -0.7433 -0.4152
57524SOL    HW281351   8.939   3.619  11.898 -0.3768  0.0855 -1.4063
57525SOL     OW81352   4.617  11.652  10.928  0.2974  0.3607 -0.1655
57525SOL    HW181353   4.553  11.698  10.982 -0.2114  1.2354 -1.4399
57525SOL    HW281354   4.595  11.560  10.936  0.5139  0.4141  1.4209
57526SOL     OW81355   8.100   1.255   6.500  0.2337  0.5110 -0.4727
57526SOL    HW181356   8.033   1.282   6.437 -0.5775  0.5837  0.4062
57526SOL    HW281357   8.172   1.223   6.446 -1.3188 -1.5796 -1.4424
57527SOL     OW81358   0.962  12.454  11.118  0.6665 -0.2378 -0.3282
57527SOL    HW181359   0.923  12.541  11.128  0.0255 -0.5316 -0.1997
57527SOL    HW281360   0.921  12.417  11.040 -1.4239 -1.6103  1.2910
57528SOL     OW81361   8.945   4.805   4.038  0.0104  0.1499 -0.4677
57528SOL    HW181362   8.858   4.802   4.076  0.5762  1.3754  1.0476
57528SOL    HW281363   8.974   4.714   4.034 -1.0279 -0.1954 -0.2647
57529SOL     OW81364   5.962   6.931   5.208 -0.4413 -0.6497  0.5119
57529SOL    HW181365   5.947   7.015   5.164 -0.6648 -1.1856 -0.4745
57529SOL    HW281366   6.024   6.950   5.278 -0.1275  0.2462 -0.0064
57530SOL     OW81367   7.528   2.987  12.292 -0.5392 -0.3246  0.1507
57530SOL    HW181368   7.533   2.933  12.213  1.3539 -1.5762  1.0353
57530SOL    HW281369   7.443   3.031  12.287 -0.1889  0.2112 -2.9128
57531SOL     OW81370  10.338   2.316   7.782  0.4088  0.5936  0.2402
57531SOL    HW181371  10.281   2.262   7.836 -0.8727  1.4170 -0.2578
57531SOL    HW281372  10.389   2.253   7.730  1.4036 -0.2020  2.0940
57532SOL     OW81373   7.935  12.023  11.120 -0.2878  0.1675 -0.4338
57532SOL    HW181374   7.932  12.012  11.215 -0.0381 -0.1449 -0.4583
57532SOL    HW281375   8.002  12.091  11.107  0.3127 -0.4109 -0.4255
57533SOL     OW81376   9.496   0.630  12.533  0.4062  0.9788  0.3657
57533SOL    HW181377   9.536   0.714  12.557  0.3149  0.1883  3.9909
57533SOL    HW281378   9.402   0.646  12.538  0.3425  1.0696 -0.8458
57534SOL     OW81379  11.138   8.465   5.240  0.0965 -0.3020  0.3103
57534SOL    HW181380  11.202   8.531   5.213  0.5050 -0.6087  0.5075
57534SOL    HW281381  11.191   8.387   5.260 -0.5689 -1.7001 -2.7940
57535SOL     OW81382   9.262  10.219   1.868  1.0280  0.9646 -0.7439
57535SOL    HW181383   9.314  10.295   1.844  1.8026  1.0911  1.1268
57535SOL    HW281384   9.219  10.245   1.950  1.6919 -0.7612  0.1861
57536SOL     OW81385   1.647   9.026   8.264  0.0891 -0.2589 -0.2533
57536SOL    HW181386   1.563   8.994   8.233 -0.4527  1.0295 -0.1416
57536SOL    HW281387   1.663   8.977   8.345  0.2661 -1.7202 -1.1369
57537SOL     OW81388   6.379   9.415  10.166  0.4537  0.6857  0.2472
57537SOL    HW181389   6.317   9.377  10.103 -2.2088  2.1510  1.8155
57537SOL    HW281390   6.406   9.341  10.220 -0.8401  0.1744  0.2357
57538SOL     OW81391  10.224   3.892  11.281 -0.3639  0.2288  0.2031
57538SOL    HW181392  10.263   3.809  11.309 -0.0853  0.3900  0.2980
57538SOL    HW281393  10.153   3.867  11.223 -2.5496 -0.2403  2.8597
57539SOL     OW81394  10.974   6.646   4.729  0.8701 -0.0446  0.0159
57539SOL    HW181395  11.056   6.696   4.726  1.3504 -0.6936  1.4169
57539SOL    HW281396  10.920   6.684   4.660  1.3683  2.1110  0.7391
57540SOL     OW81397   0.653   6.249   9.612  0.1877  0.3938 -0.0025
57540SOL    HW181398   0.685   6.301   9.686  0.0046  0.9553 -0.3078
57540SOL    HW281399   0.596   6.309   9.564  1.7348  0.6475 -1.6339
57541SOL     OW81400   8.146   8.668  10.973 -0.5066  0.3028  0.1072
57541SOL    HW181401   8.052   8.685  10.977 -0.4236  1.3486 -1.6689
57541SOL    HW281402   8.166   8.660  10.880  1.1691  0.0248  0.4502
57542SOL     OW81403   5.947   8.807   6.804 -0.1218  0.2877 -0.6066
57542SOL    HW181404   5.896   8.812   6.723 -4.0485  1.6096  1.6577
57542SOL    HW281405   5.886   8.770   6.868  1.6710  2.2497  2.4649
57543SOL     OW81406   2.193  11.703   4.577 -0.4843  0.2914 -0.1254
57543SOL    HW181407   2.150  11.777   4.533 -0.5665  0.5375  0.3695
57543SOL    HW281408   2.232  11.740   4.656 -1.7815 -0.4447  0.9034
57544SOL     OW81409   3.877   4.056   8.026  0.3052  0.7996 -0.0446
57544SOL    HW181410   3.827   4.018   7.953 -1.2958  1.1953  0.7984
57544SOL    HW281411   3.963   4.015   8.019 -0.7344 -1.5433 -0.3387
57545SOL     OW81412   3.281   6.863  11.463  0.0278 -0.1529 -0.1197
57545SOL    HW181413   3.322   6.778  11.480  1.5859  0.4265 -0.7440
57545SOL    HW281414   3.351   6.927  11.481 -0.6696  0.9072 -1.0557
57546SOL     OW81415   8.107  11.338   1.101  0.1502  0.0382 -0.0228
57546SOL    HW181416   8.105  11.414   1.159 -1.7334  0.0043  0.0120
57546SOL    HW281417   8.163  11.275   1.146 -0.0408  0.5823  1.0152
57547SOL     OW81418   1.988   5.885   0.511  0.0842 -0.1803  0.2454
57547SOL    HW181419   2.075   5.877   0.550 -0.1613  0.1181  0.8575
57547SOL    HW281420   1.982   5.977   0.486  0.9739 -0.7178 -2.2598
57548SOL     OW81421  12.252   6.290   7.566  0.5758  0.1322  0.2622
57548SOL    HW181422  12.325   6.330   7.613  0.0228  0.8012  0.5836
57548SOL    HW281423  12.241   6.345   7.488  0.9461 -0.4661 -0.2164
57549SOL     OW81424   0.711   1.937   7.480 -0.0191  0.2167  0.5149
57549SOL    HW181425   0.753   1.997   7.418 -1.0311  1.0443  0.6072
57549SOL    HW281426   0.664   1.994   7.541 -2.2229 -0.6739 -0.2573
57550SOL     OW81427   7.774   5.835   5.865 -0.3539 -0.2806  0.4568
57550SOL    HW181428   7.806   5.760   5.914  0.1408  2.0787  4.1494
57550SOL    HW281429   7.722   5.885   5.928  0.7886  3.3687 -1.2003
57551SOL     OW81430  11.204   5.587   2.443  0.4142 -0.3373 -0.0969
57551SOL    HW181431  11.247   5.672   2.430 -2.6551  1.8340  2.3929
57551SOL    HW281432  11.154   5.574   2.362  0.2105  0.7204 -0.1593
57552SOL     OW81433   7.668   1.789  10.979  0.0556 -0.3033 -0.0369
57552SOL    HW181434   7.678   1.859  10.914  0.2393 -1.9096 -1.8278
57552SOL    HW281435   7.589   1.742  10.952 -1.4000  0.4984  2.4824
57553SOL     OW81436   7.291   3.425   5.966  0.1719  0.9194 -0.4750
57553SOL    HW181437   7.209   3.447   5.922  0.1379  1.5823 -0.0990
57553SOL    HW281438   7.265   3.360   6.031  0.0659  0.6080 -0.8269
57554SOL     OW81439   1.492   6.556  10.792 -0.0101 -0.5700 -0.4231
57554SOL    HW181440   1.544   6.590  10.866  1.0041  0.1927 -1.4516
57554SOL    HW281441   1.427   6.625  10.776  0.7248 -0.0389 -1.1823
57555SOL     OW81442   8.773   5.180   9.663  0.5503 -0.0232  0.0150
57555SOL    HW181443   8.678   5.168   9.662  0.4424  0.7933 -0.6813
57555SOL    HW281444   8.807   5.096   9.630  0.0481 -0.1162 -0.2845
57556SOL     OW81445  10.939   6.150   7.285 -0.3801 -0.0481 -0.4739
57556SOL    HW181446  10.888   6.072   7.266 -1.5629  1.0129 -1.8755
57556SOL    HW281447  10.883   6.202   7.342  0.0392  0.1667 -0.2537
57557SOL     OW81448   9.307   5.178   5.060  0.3185  0.4711 -0.3572
57557SOL    HW181449   9.284   5.265   5.027 -0.3983  1.1524  1.7990
57557SOL    HW281450   9.300   5.121   4.984 -4.0641  1.4383 -0.9040
57558SOL     OW81451  12.351   5.203   4.620 -0.0441  0.0983  0.3859
57558SOL    HW181452  12.268   5.170   4.586 -0.0078 -0.2326  0.6098
57558SOL    HW281453  12.339   5.298   4.625  0.1428  0.2205 -1.0500
57559SOL     OW81454   0.844   1.800   5.506 -0.3950 -0.1239  0.3568
57559SOL    HW181455   0.912   1.812   5.572 -0.5841  0.0820  0.5171
57559SOL    HW281456   0.772   1.757   5.554 -0.4757 -0.1067  0.2506
57560SOL     OW81457   8.551   8.513  10.720  0.0050  0.4140 -0.3076
57560SOL    HW181458   8.524   8.425  10.695  1.3094 -0.6594  1.8367
57560SOL    HW281459   8.476   8.568  10.697 -1.3609 -1.4348 -0.5013
57561SOL     OW81460   6.110  10.673   5.494 -0.2038 -0.1472  0.5013
57561SOL    HW181461   6.099  10.732   5.419  0.2926  0.5821  0.9890
57561SOL    HW281462   6.140  10.730   5.565  0.5142 -1.0271  0.9202
57562SOL     OW81463   6.144   6.378   0.584  0.3160  0.0497  0.5205
57562SOL    HW181464   6.178   6.310   0.641  1.5234  0.0616 -0.1493
57562SOL    HW281465   6.221   6.417   0.544 -0.4747  0.2130 -0.9287
57563SOL     OW81466   3.894   3.419   3.607 -0.0762 -0.2200  0.3085
57563SOL    HW181467   3.831   3.489   3.591  0.5883  0.6709  1.3833
57563SOL    HW281468   3.845   3.338   3.593 -1.1181  0.4536 -0.0389
57564SOL     OW81469   7.210   2.618   4.430  0.5048 -0.1875 -0.2062
57564SOL    HW181470   7.304   2.608   4.418  0.4196 -0.2153 -0.8759
57564SOL    HW281471   7.172   2.546   4.380  0.0745  0.6210 -1.0746
57565SOL     OW81472   4.346   5.437   4.057  0.3732 -0.0012  0.4661
57565SOL    HW181473   4.319   5.511   4.001  1.9084  1.5572  1.6762
57565SOL    HW281474   4.412   5.391   4.005 -0.2604 -0.2670 -0.1153
57566SOL     OW81475   8.432   2.405   8.198  0.2450 -0.1044  0.0983
57566SOL    HW181476   8.355   2.369   8.242 -0.0391 -1.3665 -1.3692
57566SOL    HW281477   8.396   2.461   8.130  0.4834 -2.2480 -1.9156
57567SOL     OW81478   4.792   0.597   4.968  0.0669 -0.5794 -0.0179
57567SOL    HW181479   4.780   0.678   4.918  0.7251  0.6063  1.6766
57567SOL    HW281480   4.743   0.611   5.048  0.6968 -1.6098  0.5634
57568SOL     OW81481  12.058   1.638  10.110  0.0256 -0.4421  0.4271
57568SOL    HW181482  11.980   1.596  10.147 -0.3864 -0.0060  0.0748
57568SOL    HW281483  12.130   1.607  10.164 -0.2943 -1.4426  0.2933
57569SOL     OW81484  10.733   4.384   8.822 -0.5398 -0.0071  0.5839
57569SOL    HW181485  10.740   4.295   8.786 -1.0158 -0.0147  0.5065
57569SOL    HW281486  10.820   4.422   8.809  0.0457 -0.8816  1.7616
57570SOL     OW81487   9.390   3.354   2.964  0.3060 -0.0813 -0.3271
57570SOL    HW181488   9.351   3.336   3.050 -1.0434 -1.0419 -1.1050
57570SOL    HW281489   9.466   3.296   2.959  0.2384 -0.2096  0.1126
57571SOL     OW81490  10.855   3.765  12.172 -0.0416 -0.2541  0.1090
57571SOL    HW181491  10.764   3.786  12.150  0.2918  0.7256 -0.3367
57571SOL    HW281492  10.873   3.817  12.250 -0.2012 -1.3055  0.8781
57572SOL     OW81493   7.949   5.146   3.718 -0.3460 -0.5080  0.1139
57572SOL    HW181494   7.880   5.192   3.766  2.3144  2.3677  1.5539
57572SOL    HW281495   7.943   5.181   3.629 -0.6668 -0.1837  0.2611
57573SOL     OW81496   2.021  11.603   9.570 -0.3077 -0.0189  0.5933
57573SOL    HW181497   1.928  11.611   9.550 -0.0828 -1.9192 -1.6968
57573SOL    HW281498   2.033  11.510   9.592  1.1619  0.0350  0.1134
57574SOL     OW81499   7.181   8.382   3.162 -0.0860  0.1279  0.0312
57574SOL    HW181500   7.233   8.373   3.242 -1.2698 -0.1410  0.7900
57574SOL    HW281501   7.105   8.434   3.189 -0.9975 -0.8092 -0.6708
57575SOL     OW81502   7.713   1.329   3.459  0.2798  0.1321 -0.3961
57575SOL    HW181503   7.624   1.315   3.426 -0.4147  0.4408  1.2406
57575SOL    HW281504   7.768   1.273   3.404 -0.6250  1.3079 -2.6672
57576SOL     OW81505   2.715   3.674   4.772 -0.8783  0.1822  0.0332
57576SOL    HW181506   2.707   3.700   4.864 -0.7994  2.2319 -0.4983
57576SOL    HW281507   2.659   3.597   4.764  1.0208 -1.6140  2.3481
57577SOL     OW81508   4.266   8.257   5.044  0.5117  0.1463  0.4566
57577SOL    HW181509   4.351   8.223   5.018  0.0409 -0.2440 -0.6101
57577SOL    HW281510   4.285   8.315   5.118  1.5991 -0.5777  0.7645
57578SOL     OW81511   1.480   7.669   3.915 -0.9348  0.3175  0.6201
57578SOL    HW181512   1.404   7.636   3.963  0.3317 -1.4693  1.5236
57578SOL    HW281513   1.444   7.701   3.832 -2.7378  0.1116  1.2759
57579SOL     OW81514   2.945   4.174   5.008 -0.1339  0.3890  0.6314
57579SOL    HW181515   3.005   4.241   4.974  0.8120 -0.1444  1.1888
57579SOL    HW281516   2.998   4.126   5.072 -1.1108 -0.2309  0.9868
57580SOL     OW81517   2.297   0.867   2.232 -0.8032 -0.5292 -0.4355
57580SOL    HW181518   2.298   0.931   2.161  1.5415 -0.8066 -0.7595
57580SOL    HW281519   2.331   0.915   2.307  1.4496 -1.4242 -0.8060
57581SOL     OW81520  12.139   2.114  11.185 -0.0307  0.2171  0.2412
57581SOL    HW181521  12.045   2.117  11.171 -0.4349 -1.3098  2.2236
57581SOL    HW281522  12.150   2.076  11.272  2.3876  1.7631  0.7313
57582SOL     OW81523   2.296  10.596   7.283 -0.5424  0.0369  0.2213
57582SOL    HW181524   2.307  10.556   7.197  1.6068  1.6069 -0.3262
57582SOL    HW281525   2.204  10.619   7.287 -0.6769  0.0428 -1.7288
57583SOL     OW81526   1.742   0.876   2.220 -0.0024 -0.7409  0.3351
57583SOL    HW181527   1.738   0.789   2.259  1.5820 -0.6249  0.7989
57583SOL    HW281528   1.752   0.935   2.294  0.5613 -0.3016 -0.0875
57584SOL     OW81529  12.085   3.772  12.363  0.0364  0.6976 -0.6970
57584SOL    HW181530  12.048   3.837  12.302  0.3116  1.1303 -0.4057
57584SOL    HW281531  12.088   3.691  12.312 -3.0570  0.1349 -0.2197
57585SOL     OW81532   1.439   9.240   3.624  0.0316 -0.3436 -0.1085
57585SOL    HW181533   1.464   9.279   3.708 -0.9195  1.4481 -0.6167
57585SOL    HW281534   1.361   9.287   3.597  0.9106 -0.0930 -2.5193
57586SOL     OW81535   4.218   5.955   4.472 -0.2412  0.4134 -0.2428
57586SOL    HW181536   4.223   5.930   4.564  2.2245 -1.4378 -0.7823
57586SOL    HW281537   4.305   5.990   4.452  0.1392 -1.5557 -2.4268
57587SOL     OW81538   3.292   2.526  11.664 -0.3687  0.6822  0.1223
57587SOL    HW181539   3.215   2.577  11.639  0.5420  1.3034 -1.5859
57587SOL    HW281540   3.346   2.524  11.585  1.6405  0.7446  1.4256
57588SOL     OW81541  12.259  10.522   8.997 -0.5179  0.0667  0.5359
57588SOL    HW181542  12.329  10.574   8.957  0.4553 -1.8193 -0.4021
57588SOL    HW281543  12.235  10.570   9.076  0.4561  1.7783 -0.1494
57589SOL     OW81544   1.225  10.440   1.271 -0.2094 -0.1430  0.2838
57589SOL    HW181545   1.318  10.434   1.246 -0.0656  2.6819 -0.2461
57589SOL    HW281546   1.226  10.433   1.367  0.4459 -0.8675  0.2390
57590SOL     OW81547   4.740  12.062   6.751 -1.0514 -0.0242  0.2591
57590SOL    HW181548   4.721  12.135   6.691  0.3274  0.5169  0.4234
57590SOL    HW281549   4.717  12.095   6.837  0.0312  0.4465  0.3963
57591SOL     OW81550   5.033  10.595   5.649 -0.1526  0.2221 -0.0472
57591SOL    HW181551   4.952  10.623   5.691 -1.5962  2.2434 -3.7437
57591SOL    HW281552   5.093  10.668   5.660  0.3866 -0.3053  0.6357
57592SOL     OW81553   6.513   2.551  11.191 -0.0521  0.5153  0.4192
57592SOL    HW181554   6.438   2.592  11.149 -0.7723 -1.3489 -0.2090
57592SOL    HW281555   6.588   2.577  11.137 -0.3011  1.8658  0.6883
57593SOL     OW81556   4.532   4.938  10.726 -0.4158 -0.2254 -0.3433
57593SOL    HW181557   4.443   4.915  10.697 -0.6199  1.2190 -0.9228
57593SOL    HW281558   4.589   4.896  10.662 -0.7709  0.6877 -1.2774
57594SOL     OW81559  11.413   0.758  10.557  0.3244 -0.2861  0.0389
57594SOL    HW181560  11.318   0.750  10.551  0.1383  0.3568  1.7405
57594SOL    HW281561  11.434   0.835  10.503 -0.0075 -0.8600 -0.9351
57595SOL     OW81562   1.905   1.744   4.123  0.1692  0.0039 -0.1006
57595SOL    HW181563   1.932   1.707   4.039 -0.9966 -0.5263 -0.2635
57595SOL    HW281564   1.814   1.771   4.109  0.2895  0.8730  0.6944
57596SOL     OW81565  10.479   6.846   2.778 -0.1177  0.5703 -0.1700
57596SOL    HW181566  10.409   6.828   2.715  1.4663 -1.4635 -1.4839
57596SOL    HW281567  10.441   6.822   2.862  0.3852 -6.2053 -1.2791
57597SOL     OW81568   0.236   7.748   4.523  0.2681 -0.3844 -0.0272
57597SOL    HW181569   0.287   7.756   4.603  2.3701  0.6936 -1.3683
57597SOL    HW281570   0.268   7.668   4.482 -0.2542 -0.5342 -0.1471
57598SOL     OW81571  11.323   6.770   3.112  0.1840 -0.7913 -0.3467
57598SOL    HW181572  11.351   6.832   3.044 -0.3381 -0.0281  0.1209
57598SOL    HW281573  11.351   6.809   3.194  1.6730 -2.1719 -0.1340
57599SOL     OW81574   6.367   8.558   7.234  0.2356  0.5116 -0.2137
57599SOL    HW181575   6.275   8.565   7.210  0.1499 -1.5619 -0.6941
57599SOL    HW281576   6.414   8.604   7.165 -0.3707  0.2372 -0.8263
57600SOL     OW81577   1.196   4.583   4.946 -0.3282  0.2274  0.1407
57600SOL    HW181578   1.111   4.554   4.979 -0.2517  2.1732  2.3290
57600SOL    HW281579   1.204   4.674   4.976  1.9470  0.5526 -1.1776
57601SOL     OW81580   8.138   9.630   1.925  0.3113 -0.5997 -0.3204
57601SOL    HW181581   8.064   9.583   1.887 -0.6839  1.8533 -1.5705
57601SOL    HW281582   8.194   9.652   1.851  0.1181  1.2121  0.0276
57602SOL     OW81583   7.294   6.552  11.330 -0.1028  0.8737 -0.2551
57602SOL    HW181584   7.211   6.506  11.330  0.3860 -0.0349  0.7088
57602SOL    HW281585   7.275   6.636  11.372 -0.6359  0.8917 -0.5248
57603SOL     OW81586   4.860   6.718   2.462  0.1679 -0.1788 -0.1350
57603SOL    HW181587   4.811   6.709   2.380 -0.7870  0.8567  0.2909
57603SOL    HW281588   4.795   6.749   2.525  0.5918 -2.0833  1.3391
57604SOL     OW81589   2.004   7.880   8.238  0.0614  0.4820 -0.5884
57604SOL    HW181590   1.978   7.971   8.248 -1.3561  0.1758 -1.2716
57604SOL    HW281591   1.980   7.838   8.320  0.4629  0.6496 -0.3803
57605SOL     OW81592   9.093   0.032  12.255  0.1843 -0.1531 -0.0316
57605SOL    HW181593   9.161   0.092  12.284  0.5412  0.7111 -2.4267
57605SOL    HW281594   9.044   0.081  12.188 -1.3926 -1.5180  0.0334
57606SOL     OW81595   4.745   2.028   3.363  0.2968 -0.0481  0.2334
57606SOL    HW181596   4.672   2.039   3.423  0.8015 -1.1614  1.0849
57606SOL    HW281597   4.789   1.948   3.393  1.4420  0.2086 -0.6978
57607SOL     OW81598  10.154   4.791  12.525  0.4126  0.0401  0.0071
57607SOL    HW181599  10.070   4.757  12.495  0.6678  1.0755 -2.0380
57607SOL    HW281600  10.135   4.881  12.553  0.5816 -0.2195  0.9898
57608SOL     OW81601  10.522  12.499   8.088 -0.0851  0.3476 -0.0009
57608SOL    HW181602  10.441  12.544   8.112  0.9437  2.2547  0.0759
57608SOL    HW281603  10.585  12.527   8.154  0.4964 -1.6872  0.3756
57609SOL     OW81604   6.116   6.834   6.352  0.9838  0.8448 -0.6019
57609SOL    HW181605   6.046   6.800   6.407  0.4098  3.0967  0.1685
57609SOL    HW281606   6.184   6.767   6.355 -0.0103 -0.1385  0.9083
57610SOL     OW81607  11.868   8.370   7.875 -0.0593 -0.1027 -0.4614
57610SOL    HW181608  11.831   8.286   7.848 -0.2315  0.5150 -2.3093
57610SOL    HW281609  11.962   8.361   7.858 -0.0456 -0.0133 -0.4355
57611SOL     OW81610  11.328   4.401   5.565 -0.0996  0.0163  0.1173
57611SOL    HW181611  11.376   4.416   5.484  0.6290  0.2812  0.5792
57611SOL    HW281612  11.285   4.317   5.553  1.3250 -0.7424  0.0467
57612SOL     OW81613   2.757   0.481   3.374 -0.1728  0.1887 -0.0556
57612SOL    HW181614   2.743   0.575   3.357 -1.5631  0.1766  0.9100
57612SOL    HW281615   2.695   0.437   3.316 -0.0174 -0.1069  0.0019
57613SOL     OW81616   6.791  11.000   2.125  0.3950 -0.1644 -0.1875
57613SOL    HW181617   6.767  10.908   2.127  2.0873 -0.6411  0.1322
57613SOL    HW281618   6.802  11.024   2.217  2.2130 -0.3325 -0.3127
57614SOL     OW81619   7.863   2.959  10.405 -0.2813 -0.4381 -0.0482
57614SOL    HW181620   7.812   3.012  10.343 -1.1293 -0.3810  0.6793
57614SOL    HW281621   7.863   3.010  10.486 -0.1205 -1.0211  0.3235
57615SOL     OW81622   6.517  12.029  11.034  0.9480 -0.1921  0.1184
57615SOL    HW181623   6.474  12.002  10.953 -1.4950 -1.1887  1.6366
57615SOL    HW281624   6.531  12.123  11.023  0.4381 -0.2516 -1.3314
57616SOL     OW81625   9.229   3.336   4.668 -0.0789 -0.8998  0.2127
57616SOL    HW181626   9.264   3.249   4.648 -0.1594 -0.5703 -1.5185
57616SOL    HW281627   9.307   3.392   4.672 -0.1757 -0.6910 -0.7226
57617SOL     OW81628   0.583   3.113   8.171  0.1047 -0.2173 -0.2725
57617SOL    HW181629   0.546   3.064   8.245  1.1984 -0.5989  0.0354
57617SOL    HW281630   0.539   3.198   8.174 -1.2309 -0.8867 -0.3219
57618SOL     OW81631   6.536   5.805  10.187 -0.2455  0.0099 -0.6537
57618SOL    HW181632   6.493   5.721  10.204 -0.3240  0.2026  0.1322
57618SOL    HW281633   6.489   5.868  10.241 -0.4988  0.6631 -1.5993
57619SOL     OW81634   6.498   1.778   1.975 -0.1914 -0.4405  0.4385
57619SOL    HW181635   6.536   1.703   2.021 -2.0175 -0.4636  2.0028
57619SOL    HW281636   6.556   1.790   1.899  1.2658 -2.1959  1.1779
57620SOL     OW81637  12.087   7.610   1.373 -0.1988  0.1174  0.1965
57620SOL    HW181638  12.020   7.639   1.310  0.7975 -0.6281 -1.2565
57620SOL    HW281639  12.168   7.651   1.342  0.4241 -0.7634  0.6310
57621SOL     OW81640   4.888   4.647   4.547 -0.1594 -0.3253  0.2455
57621SOL    HW181641   4.850   4.725   4.588  0.0864  0.2612 -0.6038
57621SOL    HW281642   4.827   4.626   4.476 -0.6098 -1.3579  0.9146
57622SOL     OW81643   4.050   8.929   5.475 -0.0950 -0.0003  0.3669
57622SOL    HW181644   4.022   8.943   5.384  1.8983 -0.7019 -0.4256
57622SOL    HW281645   4.094   9.010   5.499 -0.6413  0.1926  0.7283
57623SOL     OW81646   8.266  10.332  12.466  0.0478  0.3093  0.2719
57623SOL    HW181647   8.186  10.324  12.518  0.4025 -1.3861  0.6180
57623SOL    HW281648   8.322  10.391  12.517 -0.2232 -0.0920  1.0439
57624SOL     OW81649   0.438   6.095   9.219  0.3449  0.8487  0.9163
57624SOL    HW181650   0.519   6.122   9.264  0.8569 -2.7934  2.5560
57624SOL    HW281651   0.368   6.120   9.280  0.3743  2.0385  0.4966
57625SOL     OW81652   1.984   8.761   2.844 -0.4507  0.1433  0.7074
57625SOL    HW181653   1.950   8.820   2.911  0.1769  1.4119 -0.0359
57625SOL    HW281654   2.076   8.748   2.868  0.0656  1.4537 -0.4306
57626SOL     OW81655   6.005   2.126   2.375  0.3875  0.1324  0.1356
57626SOL    HW181656   5.983   2.067   2.303  0.0448 -0.5759  0.8151
57626SOL    HW281657   6.077   2.083   2.421  1.6517  1.3007 -0.6519
57627SOL     OW81658   0.218   1.828   9.687 -0.2958 -0.2590  0.3815
57627SOL    HW181659   0.207   1.866   9.774 -2.0638 -0.5034  0.3053
57627SOL    HW281660   0.132   1.837   9.645  0.7802  0.8703 -1.7896
57628SOL     OW81661  10.920   3.755   2.284 -0.0427  0.1438  0.3840
57628SOL    HW181662  11.002   3.718   2.316 -0.2665  0.2171  1.0455
57628SOL    HW281663  10.882   3.686   2.229 -0.1342 -0.3654  1.0729
57629SOL     OW81664   2.087   5.040   2.094 -0.2127  0.2753 -0.1606
57629SOL    HW181665   2.109   5.053   2.186 -0.1741  1.3101 -0.2989
57629SOL    HW281666   2.089   4.945   2.081 -0.3046  0.1163  0.9220
57630SOL     OW81667   7.640   5.977   7.823  0.1596 -0.0105  0.1615
57630SOL    HW181668   7.559   6.015   7.788  0.4184  0.5316  0.1308
57630SOL    HW281669   7.617   5.944   7.909 -0.3449 -0.8174 -0.2753
57631SOL     OW81670   1.123   5.279   7.508 -0.2047  0.0363  0.1145
57631SOL    HW181671   1.093   5.238   7.427  0.5608  0.4930 -0.4176
57631SOL    HW281672   1.055   5.344   7.528 -0.6889 -0.4803  0.1657
57632SOL     OW81673   4.428   0.630   0.342  0.7517  0.0277 -0.3494
57632SOL    HW181674   4.384   0.698   0.394  0.4485 -1.0867  0.9236
57632SOL    HW281675   4.400   0.647   0.252  1.6341  2.2955 -0.2712
57633SOL     OW81676   3.537   1.634   0.309  0.0542  0.7536  0.2849
57633SOL    HW181677   3.549   1.644   0.215 -1.8094 -1.2113 -0.2324
57633SOL    HW281678   3.625   1.626   0.344  0.9204  3.6247 -0.9425
57634SOL     OW81679   7.265   9.811   2.348  0.1444  0.2961  0.0328
57634SOL    HW181680   7.254   9.899   2.384  1.6584  0.5002  0.0621
57634SOL    HW281681   7.344   9.817   2.294  2.0189 -1.6739  2.2909
57635SOL     OW81682   3.406   0.200   7.231 -0.0968  0.2850 -0.5346
57635SOL    HW181683   3.367   0.145   7.163 -0.1867  0.5090 -0.6657
57635SOL    HW281684   3.387   0.290   7.203 -0.8615  0.3669  0.2076
57636SOL     OW81685   7.476   6.675   7.295 -0.3484  0.0670 -0.5332
57636SOL    HW181686   7.388   6.637   7.288 -0.5210  0.0104  1.4527
57636SOL    HW281687   7.460   6.768   7.312 -0.0396  0.0484 -0.1271
57637SOL     OW81688   1.547   1.918   9.723 -0.1587 -0.0172 -0.6128
57637SOL    HW181689   1.459   1.899   9.691 -0.6350 -0.5230  0.9289
57637SOL    HW281690   1.548   1.886   9.813  1.0085  1.6402  0.0299
57638SOL     OW81691   5.484   1.166   0.949  0.1003 -0.0132  0.3222
57638SOL    HW181692   5.490   1.254   0.912  1.0226 -0.3251 -0.3127
57638SOL    HW281693   5.436   1.177   1.031  1.0744  1.2289  0.7497
57639SOL     OW81694   9.875   2.788   3.645  0.6902  0.1460 -0.5023
57639SOL    HW181695   9.789   2.829   3.636  0.5033  0.2847  1.4678
57639SOL    HW281696   9.868   2.706   3.597 -0.3490  0.4409 -0.8785
57640SOL     OW81697   5.555   7.395   5.911 -0.2131  0.3458 -0.4861
57640SOL    HW181698   5.551   7.490   5.903 -0.0894  0.5255  1.2535
57640SOL    HW281699   5.509   7.375   5.992  0.0474 -1.0538 -0.6490
57641SOL     OW81700   8.861   3.174   7.278  0.0066  0.0471  0.1684
57641SOL    HW181701   8.862   3.235   7.204  0.2545  0.1616  0.2682
57641SOL    HW281702   8.771   3.139   7.278  0.4381 -1.1732 -1.1973
57642SOL     OW81703   2.681   2.807   8.854 -0.4870  0.3208 -0.2559
57642SOL    HW181704   2.722   2.722   8.873  0.3618  0.8151  0.2039
57642SOL    HW281705   2.731   2.869   8.907 -0.0030  1.3531 -1.8489
57643SOL     OW81706   3.631   0.224  11.226 -0.4610  0.1899  0.3125
57643SOL    HW181707   3.576   0.257  11.155  1.0959  0.6538 -0.7120
57643SOL    HW281708   3.613   0.130  11.227 -3.5361  0.6546  2.0448
57644SOL     OW81709   6.370  11.777   0.561  0.0205  0.2575  0.5537
57644SOL    HW181710   6.441  11.834   0.530 -0.9718  1.3038  0.1100
57644SOL    HW281711   6.333  11.825   0.635 -2.5937  1.6385 -1.4772
57645SOL     OW81712  11.289  11.920   2.900  0.0298  0.1352 -0.0021
57645SOL    HW181713  11.328  11.909   2.813  0.5116 -2.6210  0.4829
57645SOL    HW281714  11.363  11.934   2.959 -0.2707  1.6333  0.0610
57646SOL     OW81715   6.544  11.852   4.057  1.0653  0.6667 -0.3902
57646SOL    HW181716   6.545  11.948   4.054  1.8340  0.6437 -2.2897
57646SOL    HW281717   6.635  11.828   4.072  1.0970  0.2274 -1.2385
57647SOL     OW81718   3.696   4.753   6.477  0.4204  0.2212 -0.6078
57647SOL    HW181719   3.749   4.780   6.553 -0.7886 -3.3288  1.7500
57647SOL    HW281720   3.606   4.772   6.503 -0.1588 -2.5207 -0.2651
57648SOL     OW81721   5.503   1.778   0.142  0.6924 -0.4439  0.3844
57648SOL    HW181722   5.481   1.688   0.165  0.2077  0.1914  2.6785
57648SOL    HW281723   5.427   1.809   0.092  1.1897 -1.4893 -1.0777
57649SOL     OW81724   7.473   6.221   0.676 -0.0348  0.5529  0.2592
57649SOL    HW181725   7.527   6.265   0.742 -0.5634  1.4749  0.0986
57649SOL    HW281726   7.390   6.268   0.679  0.1831  1.1235 -1.5798
57650SOL     OW81727   8.336   9.041   0.770 -0.2935  0.3579 -0.3012
57650SOL    HW181728   8.361   8.950   0.785  0.0405  0.1372 -2.0827
57650SOL    HW281729   8.324   9.076   0.859  0.7462 -1.0744  0.4624
57651SOL     OW81730   9.667   6.162   8.652 -0.0300  0.2547  0.4674
57651SOL    HW181731   9.677   6.106   8.575 -0.1161 -0.3628  0.9060
57651SOL    HW281732   9.727   6.126   8.717  2.2221  2.4786 -0.2189
57652SOL     OW81733   7.460  12.362   3.903  0.3027  0.0655 -0.2334
57652SOL    HW181734   7.506  12.283   3.933  0.7737 -0.2563 -1.7081
57652SOL    HW281735   7.529  12.423   3.880 -0.0093 -0.0160 -1.4414
57653SOL     OW81736   0.329  12.595   2.974 -0.0587  0.1383  0.2648
57653SOL    HW181737   0.326  12.666   3.038  0.9647  1.3832 -1.0038
57653SOL    HW281738   0.297  12.634   2.893  0.3417 -0.9137 -0.4196
57654SOL     OW81739   5.841   1.436   6.312  0.2196 -0.2200  0.1164
57654SOL    HW181740   5.880   1.425   6.225  2.5096 -0.2818  1.0962
57654SOL    HW281741   5.748   1.416   6.298  0.6926 -1.2741 -2.1084
57655SOL     OW81742   7.236   0.629   6.350  0.6672  0.1478  0.5808
57655SOL    HW181743   7.273   0.548   6.385  1.3895 -0.0515 -0.5822
57655SOL    HW281744   7.160   0.601   6.299 -0.9791  0.5265  2.6856
57656SOL     OW81745   3.012   3.105   7.867  0.2277 -0.6815  0.3128
57656SOL    HW181746   3.061   3.165   7.812  0.4700  0.6150  1.8663
57656SOL    HW281747   3.008   3.024   7.817  2.2517 -0.2208 -0.7000
57657SOL     OW81748   7.412   0.536   2.213  0.1357  0.3744 -0.0985
57657SOL    HW181749   7.362   0.559   2.291  0.9820  1.9489  0.0211
57657SOL    HW281750   7.387   0.601   2.148  0.1113 -0.3825 -0.8686
57658SOL     OW81751   9.806   1.899  11.244 -0.2965 -0.4134 -0.5572
57658SOL    HW181752   9.828   1.806  11.258  0.2548 -0.4144 -1.3712
57658SOL    HW281753   9.785   1.905  11.151  4.1323  1.0854 -1.7013
57659SOL     OW81754   4.907   9.056   6.388  0.2252 -0.5723  0.1014
57659SOL    HW181755   4.909   8.970   6.429  1.4908 -0.5796  0.0737
57659SOL    HW281756   4.849   9.046   6.313 -0.1098 -1.2400  0.4480
57660SOL     OW81757   5.927   3.949   2.595 -0.3636 -0.2747 -0.2936
57660SOL    HW181758   6.018   3.979   2.588 -1.3168  2.7711 -1.4062
57660SOL    HW281759   5.876   4.030   2.601 -3.1774 -1.7676 -2.0081
57661SOL     OW81760  11.809   5.678   6.222  0.1978  1.2211  0.7087
57661SOL    HW181761  11.742   5.670   6.290 -0.0799  1.0079  0.4152
57661SOL    HW281762  11.786   5.758   6.175  0.7125  1.6737  1.2048
57662SOL     OW81763   7.031   9.976   1.920  0.0002  0.2357 -0.4974
57662SOL    HW181764   6.967   9.939   1.860  0.6267 -0.1149 -0.9545
57662SOL    HW281765   7.014   9.932   2.003 -0.4620  0.2746 -0.5661
57663SOL     OW81766  10.382   5.788   4.329 -0.0354  0.0321 -0.6033
57663SOL    HW181767  10.323   5.815   4.400 -0.3706 -1.5109 -0.2566
57663SOL    HW281768  10.409   5.870   4.288 -2.2979  0.8287 -0.6709
57664SOL     OW81769   0.931   9.793   1.520  0.1861 -0.2375 -0.1621
57664SOL    HW181770   1.019   9.764   1.542  0.3133 -0.7173 -1.2457
57664SOL    HW281771   0.928   9.884   1.549  1.3113  0.0328 -0.8212
57665SOL     OW81772   4.305   0.863   3.567  0.1895  0.0520 -0.1990
57665SOL    HW181773   4.312   0.888   3.475  3.4901  0.0203 -0.0740
57665SOL    HW281774   4.392   0.831   3.590 -1.3003 -2.7633  2.1999
57666SOL     OW81775  10.905   0.615   1.643  0.4787 -0.4729 -0.0470
57666SOL    HW181776  10.956   0.655   1.713 -0.8936  0.0950  0.6551
57666SOL    HW281777  10.870   0.534   1.681 -1.3791  0.5001  0.4128
57667SOL     OW81778   6.986   7.211   9.947  0.7596 -0.0023  0.3917
57667SOL    HW181779   7.011   7.120   9.960  1.9319  0.3265  0.5293
57667SOL    HW281780   6.940   7.211   9.862  1.4870 -0.5861 -0.0143
57668SOL     OW81781   4.988   2.218   6.503  0.7889  0.2717 -0.4980
57668SOL    HW181782   4.894   2.207   6.489  0.7112  0.8307 -0.4275
57668SOL    HW281783   5.014   2.286   6.441  1.4368 -0.8898 -1.5692
57669SOL     OW81784   0.836   9.220   9.923  0.2656  0.5888 -0.1085
57669SOL    HW181785   0.773   9.262   9.864  0.3473  0.3446 -0.3749
57669SOL    HW281786   0.890   9.292   9.955  0.3765  0.7010 -0.5324
57670SOL     OW81787   6.346   4.919   2.069 -0.5265  0.3298 -0.0936
57670SOL    HW181788   6.252   4.903   2.059 -0.3379 -0.6792 -0.3499
57670SOL    HW281789   6.362   4.910   2.163 -0.8265  1.3419  0.0597
57671SOL     OW81790  11.571   0.221   9.454  0.1235  0.2926 -0.5280
57671SOL    HW181791  11.521   0.195   9.376  0.6054  1.5388 -1.2794
57671SOL    HW281792  11.519   0.188   9.527 -1.5853  1.1294 -1.3041
57672SOL     OW81793   6.494  12.286   4.799  0.3589  0.2690 -0.2179
57672SOL    HW181794   6.454  12.370   4.776 -0.7828 -0.6857 -1.9831
57672SOL    HW281795   6.530  12.253   4.717 -0.8936 -1.7875 -0.0375
57673SOL     OW81796   2.318   5.804   3.738 -0.3854  0.4435 -0.3534
57673SOL    HW181797   2.317   5.874   3.673 -0.5322  0.1111 -0.7196
57673SOL    HW281798   2.340   5.847   3.820 -0.2052  0.8740 -0.6232
57674SOL     OW81799   7.283   2.027   8.548  0.1562 -0.2787 -0.5592
57674SOL    HW181800   7.310   1.936   8.545  2.1995  0.2957 -2.5576
57674SOL    HW281801   7.302   2.061   8.460  1.4215  2.5636  0.6769
57675SOL     OW81802  11.430   7.115   8.664  0.2912  0.4447  0.0243
57675SOL    HW181803  11.495   7.137   8.598  0.8191  2.0330  1.0217
57675SOL    HW281804  11.346   7.136   8.624  0.2346 -2.3262 -1.5537
57676SOL     OW81805   5.099  11.639   5.364  0.2457 -0.2594 -0.1512
57676SOL    HW181806   5.169  11.575   5.381 -1.1278 -1.1211  3.2479
57676SOL    HW281807   5.029  11.588   5.324 -0.1744 -0.5321  0.8949
57677SOL     OW81808  11.762   9.876   2.748 -0.3618  0.4316 -0.1071
57677SOL    HW181809  11.778   9.919   2.664  0.4067  1.7395  0.6760
57677SOL    HW281810  11.668   9.883   2.762 -0.2742  1.8219 -0.0518
57678SOL     OW81811   1.043   4.576   2.986  0.4491  0.0940 -0.3759
57678SOL    HW181812   0.996   4.495   2.968 -0.0616 -0.0943  1.5301
57678SOL    HW281813   1.025   4.594   3.079  1.7191  1.6198 -0.3771
57679SOL     OW81814   1.729   0.787   4.991 -0.1772  0.6758 -0.1795
57679SOL    HW181815   1.797   0.812   4.928  0.3625 -1.0868 -0.3724
57679SOL    HW281816   1.766   0.809   5.076  2.4872 -3.5558  0.0939
57680SOL     OW81817   9.756   9.063  11.111  0.3467 -0.1603 -0.3358
57680SOL    HW181818   9.832   9.007  11.123  0.4653 -0.1633 -1.0588
57680SOL    HW281819   9.709   9.058  11.194  0.7108 -0.7958 -0.1634
57681SOL     OW81820   2.158   9.055   5.275 -0.3319  0.4603 -0.4519
57681SOL    HW181821   2.189   9.130   5.325 -1.7493  0.8880 -0.1722
57681SOL    HW281822   2.195   8.979   5.319  2.5981  0.9779 -1.7575
57682SOL     OW81823   3.087   9.967   2.417 -0.3003  0.0792  0.0581
57682SOL    HW181824   3.078   9.876   2.447  1.0776  0.0009  0.3305
57682SOL    HW281825   3.080  10.019   2.498  0.3343  0.0931  0.1141
57683SOL     OW81826   9.524   8.478  12.468  0.0468 -0.7851  0.4403
57683SOL    HW181827   9.430   8.490  12.458 -0.1043 -2.2086 -0.0786
57683SOL    HW281828   9.542   8.506  12.558 -0.9978 -1.1303  0.7786
57684SOL     OW81829   6.774   5.750   1.933  0.6491 -0.5536  0.7530
57684SOL    HW181830   6.777   5.725   1.840  1.4575  0.7375  0.4047
57684SOL    HW281831   6.800   5.672   1.980  1.2340 -0.9311 -0.1733
57685SOL     OW81832   5.936   9.301   1.140 -0.2748  0.6534  0.2281
57685SOL    HW181833   5.994   9.337   1.207  1.8790 -1.3987 -0.4281
57685SOL    HW281834   5.892   9.227   1.183  0.7855 -0.3956 -0.4278
57686SOL     OW81835   0.427   1.838   2.110  0.0036 -0.1569  0.0815
57686SOL    HW181836   0.402   1.882   2.029 -2.8773  0.1421  1.0338
57686SOL    HW281837   0.368   1.763   2.117  1.5081 -1.3218  0.9756
57687SOL     OW81838   6.072   0.564  10.193 -0.3322  0.7350  0.2416
57687SOL    HW181839   5.979   0.555  10.215 -0.2408 -1.1710  0.0769
57687SOL    HW281840   6.097   0.476  10.163  1.5881  1.1484  0.5502
57688SOL     OW81841   4.733   3.811   8.088 -0.4682  0.2141 -0.1416
57688SOL    HW181842   4.782   3.770   8.159  1.5436  0.3149 -1.3838
57688SOL    HW281843   4.651   3.761   8.083  0.8333 -2.0787  0.0058
57689SOL     OW81844   4.080   1.306   9.518  0.1186 -0.0233  0.5419
57689SOL    HW181845   4.060   1.214   9.537 -0.6334 -0.0465 -0.3239
57689SOL    HW281846   3.999   1.353   9.538  0.7134  0.5715  1.6750
57690SOL     OW81847   2.631   6.869   1.244 -0.3005  0.0810 -0.1783
57690SOL    HW181848   2.665   6.819   1.170 -0.7992 -2.5084  1.2148
57690SOL    HW281849   2.588   6.945   1.204  0.0210 -0.8628 -2.4796
57691SOL     OW81850  12.383   2.121   7.975  0.9130 -0.3675  0.7404
57691SOL    HW181851  12.357   2.109   7.884 -0.1982  1.9074  0.6751
57691SOL    HW281852  12.353   2.042   8.019  0.9601 -1.2561 -0.7406
57692SOL     OW81853   1.005   4.330  12.445  0.1083 -0.7918  0.2809
57692SOL    HW181854   0.995   4.327  12.540  0.2086 -1.2902  0.2811
57692SOL    HW281855   0.941   4.266  12.412  0.1622 -0.7146  0.0238
57693SOL     OW81856  11.570  12.046  11.849  0.2055 -0.4260 -0.5239
57693SOL    HW181857  11.486  12.016  11.885 -0.2685  0.2528 -1.0281
57693SOL    HW281858  11.563  12.029  11.756 -0.4934  2.0390 -1.0121
57694SOL     OW81859   0.280   5.787   8.010  0.1693 -0.4791  0.2248
57694SOL    HW181860   0.298   5.867   7.960 -2.9986  1.2848  1.6315
57694SOL    HW281861   0.343   5.789   8.082  0.1313  0.7687  0.2396
57695SOL     OW81862   8.011   3.475   1.821 -0.2377 -0.1526 -0.1408
57695SOL    HW181863   7.917   3.486   1.810 -0.5883 -0.3556  2.1313
57695SOL    HW281864   8.040   3.428   1.742 -2.3186 -1.5332 -0.1406
57696SOL     OW81865   4.707   8.714  12.132  0.5957  0.0296  0.2183
57696SOL    HW181866   4.695   8.781  12.064 -2.7990 -1.4151 -0.8303
57696SOL    HW281867   4.687   8.759  12.214  1.2368  0.9664 -0.1298
57697SOL     OW81868   1.318   3.507  10.905 -0.3326  0.2038  0.0910
57697SOL    HW181869   1.367   3.515  10.823 -0.2662  0.8180  0.1827
57697SOL    HW281870   1.317   3.596  10.940 -0.5077 -0.0239  0.6718
57698SOL     OW81871   7.609   5.887   8.094  0.2152  0.1534  0.0692
57698SOL    HW181872   7.538   5.951   8.088  1.1398  1.1598 -0.7704
57698SOL    HW281873   7.566   5.802   8.096 -1.0096  0.5072 -3.6573
57699SOL     OW81874   8.712  11.497  10.721  0.6342 -0.5058 -0.1578
57699SOL    HW181875   8.797  11.478  10.682  0.1362 -0.8769 -1.0878
57699SOL    HW281876   8.670  11.411  10.728  0.7724 -0.4780  1.3803
57700SOL     OW81877   3.061   6.159   9.148  0.4409 -0.0557 -0.5594
57700SOL    HW181878   2.969   6.150   9.175  0.4249  0.6891 -0.3309
57700SOL    HW281879   3.085   6.247   9.176  1.9965 -1.0946  1.6638
57701SOL     OW81880  12.111   3.307  11.676 -0.1495 -0.1760 -0.3342
57701SOL    HW181881  12.175   3.261  11.622 -0.0841 -1.0561  0.4662
57701SOL    HW281882  12.037   3.323  11.617  0.7369  0.7518 -1.2391
57702SOL     OW81883   0.009   5.298  12.088  1.0717  0.7190 -0.0928
57702SOL    HW181884   0.079   5.349  12.047 -1.1350  2.4029 -2.0613
57702SOL    HW281885  -0.011   5.344  12.169  0.9777  1.3384 -0.4657
57703SOL     OW81886   5.085   1.201   3.592  0.2162 -0.4554 -0.2733
57703SOL    HW181887   5.038   1.274   3.633 -0.1435 -0.6633 -0.3077
57703SOL    HW281888   5.015   1.142   3.562  0.5083 -0.8541 -0.1694
57704SOL     OW81889   1.949   7.536   2.140  0.1966 -0.7298  0.5543
57704SOL    HW181890   1.981   7.609   2.088 -0.4951 -0.5492  0.3764
57704SOL    HW281891   1.867   7.567   2.178 -0.4222 -1.6060 -0.0044
57705SOL     OW81892   6.555  11.733   9.589 -0.1133 -0.1030  0.1910
57705SOL    HW181893   6.650  11.745   9.582 -0.1230  1.1342  1.6635
57705SOL    HW281894   6.519  11.773   9.511  0.5764 -0.8720 -0.5452
57706SOL     OW81895   4.624   0.423   9.836  0.2062  0.1031  1.0501
57706SOL    HW181896   4.692   0.370   9.877  1.5560  0.7050 -0.2897
57706SOL    HW281897   4.652   0.430   9.745 -1.4897  0.6780  0.5449
57707SOL     OW81898   9.890   6.961   9.812 -0.4367  0.1233 -0.0955
57707SOL    HW181899   9.831   6.912   9.868 -1.8615  2.1257  0.2796
57707SOL    HW281900   9.833   7.001   9.746  0.8973 -0.2148 -1.5303
57708SOL     OW81901   8.204   5.707   0.397  0.1845  0.8956  0.0390
57708SOL    HW181902   8.119   5.728   0.359  0.6815  1.6834 -0.6732
57708SOL    HW281903   8.206   5.611   0.399 -1.6599  0.8279  2.2671
57709SOL     OW81904   1.848   2.321   1.903 -0.5120  0.2861 -0.5331
57709SOL    HW181905   1.879   2.316   1.813  0.3019  1.1063 -0.3203
57709SOL    HW281906   1.811   2.235   1.921  0.7365 -0.4023 -1.1436
57710SOL     OW81907   8.977   0.177   9.154  1.0017 -0.1245  0.9112
57710SOL    HW181908   9.029   0.229   9.216  0.9014 -0.3786  1.2084
57710SOL    HW281909   8.958   0.096   9.200  1.6139 -0.6559  0.2439
57711SOL     OW81910   8.057   0.251   2.373 -0.2541  0.1672  0.0153
57711SOL    HW181911   8.063   0.248   2.278  1.4338 -2.4302  0.1061
57711SOL    HW281912   7.966   0.227   2.392 -0.2734 -0.6207 -0.9512
57712SOL     OW81913   5.171   9.602  10.335  0.2660 -0.8633  0.5120
57712SOL    HW181914   5.143   9.685  10.295 -0.4148 -1.4950 -0.3417
57712SOL    HW281915   5.254   9.624  10.379  0.1440  0.2450  0.2211
57713SOL     OW81916  12.324   6.306  11.439 -0.1941 -0.2354  0.0293
57713SOL    HW181917  12.374   6.241  11.389  0.8946  0.7651 -0.2262
57713SOL    HW281918  12.243   6.261  11.462  0.2008 -1.4252 -0.7960
57714SOL     OW81919   6.510   1.909   4.290  0.4742  0.0536  0.5044
57714SOL    HW181920   6.453   1.966   4.341  1.0767  0.2733  0.9416
57714SOL    HW281921   6.596   1.951   4.293  0.7765 -0.5307  0.2685
57715SOL     OW81922   4.234   4.133   7.717 -0.1259 -0.2704  0.9682
57715SOL    HW181923   4.320   4.150   7.679  0.3666 -0.8146  1.8239
57715SOL    HW281924   4.188   4.217   7.712  0.3418 -0.0494  0.2485
57716SOL     OW81925   5.304  11.160   3.840  0.4585  0.0194 -0.5909
57716SOL    HW181926   5.333  11.091   3.779  1.3826 -0.0603 -0.0847
57716SOL    HW281927   5.334  11.241   3.800 -0.3659  0.1042 -1.0398
57717SOL     OW81928   1.484   4.157   8.594 -0.1980  0.5670  0.0496
57717SOL    HW181929   1.465   4.250   8.587 -0.1670  0.4867 -1.3827
57717SOL    HW281930   1.398   4.115   8.597 -0.2272  0.5525 -0.8474
57718SOL     OW81931   1.547   1.063  10.440 -0.0704  0.0847 -0.2542
57718SOL    HW181932   1.548   1.082  10.346 -0.3845 -1.4556 -0.5942
57718SOL    HW281933   1.539   1.149  10.482  0.0311  0.7903 -1.6272
57719SOL     OW81934   9.201   6.408   5.969 -0.1912 -0.0995  0.5847
57719SOL    HW181935   9.237   6.474   5.910 -2.6611  1.6274  0.8491
57719SOL    HW281936   9.217   6.443   6.057 -1.4482  0.1719  0.7269
57720SOL     OW81937  11.693   9.165   5.583  0.3222  0.2082 -0.4521
57720SOL    HW181938  11.665   9.190   5.495 -1.1051  0.1181 -0.0445
57720SOL    HW281939  11.761   9.228   5.605  0.1183  0.7412 -1.2940
57721SOL     OW81940   7.345   1.327   5.939  0.0994 -0.4991 -0.1214
57721SOL    HW181941   7.371   1.238   5.963  1.3138 -0.2751 -0.5238
57721SOL    HW281942   7.332   1.323   5.844 -1.8534 -0.7026  0.1051
57722SOL     OW81943   7.500  11.572   2.234 -0.0468 -0.0024 -0.1160
57722SOL    HW181944   7.449  11.651   2.255 -1.2285 -1.0072  0.9433
57722SOL    HW281945   7.547  11.552   2.314 -0.3438 -0.8006 -0.1358
57723SOL     OW81946   3.855   0.691   4.608  0.4080 -0.5207 -0.1113
57723SOL    HW181947   3.774   0.743   4.613 -0.8042 -2.2677 -0.7566
57723SOL    HW281948   3.879   0.695   4.515 -0.0951 -1.6660 -0.3016
57724SOL     OW81949   6.241   3.988  11.892 -0.6792  0.2294 -0.0746
57724SOL    HW181950   6.208   3.906  11.929 -0.0844 -0.3048 -0.7007
57724SOL    HW281951   6.174   4.016  11.830 -0.4184 -0.3183 -0.6034
57725SOL     OW81952   1.751   2.813  10.943 -0.5034 -0.3189  0.4810
57725SOL    HW181953   1.845   2.824  10.958 -0.6361  0.3350  0.8758
57725SOL    HW281954   1.736   2.719  10.956  0.7324 -1.2146 -3.3742
57726SOL     OW81955  11.987   1.335   5.851  0.1863  0.0294  0.1292
57726SOL    HW181956  12.001   1.312   5.759  0.4224  1.1692 -0.1372
57726SOL    HW281957  11.951   1.255   5.890  1.1938 -0.8545 -0.6706
57727SOL     OW81958   6.724   0.656   4.417 -0.0871 -0.1094 -0.1061
57727SOL    HW181959   6.650   0.685   4.471 -2.0572 -1.2396 -2.0506
57727SOL    HW281960   6.725   0.716   4.343  1.5768  0.4254  0.2902
57728SOL     OW81961   1.343   5.021   5.459 -0.0750 -0.2516 -0.2119
57728SOL    HW181962   1.260   5.067   5.452 -0.0593 -0.1876  0.0450
57728SOL    HW281963   1.408   5.082   5.423 -0.3826 -0.9988 -2.1940
57729SOL     OW81964   4.538   1.040   0.271  0.4400  0.5761  0.2268
57729SOL    HW181965   4.484   1.118   0.282  0.9536  0.7585  1.6833
57729SOL    HW281966   4.477   0.973   0.239 -0.6976  0.7529  1.8888
57730SOL     OW81967   7.957   3.606  11.436 -0.1970 -0.4722  0.4861
57730SOL    HW181968   7.997   3.520  11.444  1.4655 -0.1622 -2.7255
57730SOL    HW281969   8.023   3.667  11.469  0.1456 -0.2576 -0.5458
57731SOL     OW81970   0.951   1.953   0.991  0.3967 -0.0957 -0.2060
57731SOL    HW181971   1.022   2.015   1.007 -0.8389  1.4543 -0.4335
57731SOL    HW281972   0.963   1.926   0.899  1.3296 -0.7588  0.0902
57732SOL     OW81973   5.759   7.180   7.391 -0.2688 -0.0524  0.2076
57732SOL    HW181974   5.680   7.221   7.357 -0.0936  1.0719  1.1038
57732SOL    HW281975   5.831   7.220   7.343 -0.1038  0.6734  1.0247
57733SOL     OW81976   6.130   6.299  11.865  0.0668 -0.0148  0.4454
57733SOL    HW181977   6.145   6.227  11.804 -0.4965 -1.6193  2.0985
57733SOL    HW281978   6.196   6.365  11.842  1.0260 -1.3234 -0.7153
57734SOL     OW81979   5.111  12.234   4.836 -0.0821 -0.5963 -0.4810
57734SOL    HW181980   5.133  12.327   4.822 -0.7314 -0.4934 -0.8593
57734SOL    HW281981   5.096  12.227   4.930  1.7846 -0.7263 -0.1460
57735SOL     OW81982   2.647   8.014   1.852 -0.2004 -0.0100 -0.2224
57735SOL    HW181983   2.696   8.042   1.775 -1.3315  1.7556 -0.3514
57735SOL    HW281984   2.562   7.987   1.817  0.0217 -1.3388  0.1981
57736SOL     OW81985   5.639   7.398  11.886  0.2805  0.4632 -0.5648
57736SOL    HW181986   5.563   7.445  11.851 -0.1841  1.7323  1.9582
57736SOL    HW281987   5.602   7.319  11.926  0.3466  0.8334  0.2312
57737SOL     OW81988   5.452   5.847   6.535  0.2005  0.2515  0.7590
57737SOL    HW181989   5.440   5.896   6.616 -0.9357 -1.3216  1.5882
57737SOL    HW281990   5.465   5.756   6.564  0.1158 -0.2853 -0.8132
57738SOL     OW81991   8.739   6.632  12.323  0.6466 -0.7450  0.4586
57738SOL    HW181992   8.693   6.557  12.361  0.4242 -1.6058 -1.4105
57738SOL    HW281993   8.676   6.670  12.262  0.2278  1.8784  2.3153
57739SOL     OW81994  11.878   2.584  10.901 -0.3770 -0.6440  0.0588
57739SOL    HW181995  11.873   2.607  10.994 -0.7343 -1.2672  0.1999
57739SOL    HW281996  11.955   2.528  10.894  2.5619  3.0505 -0.8460
57740SOL     OW81997  11.159   3.239   0.836 -0.0314  0.4102 -0.3118
57740SOL    HW181998  11.237   3.266   0.788 -0.0682  0.0525 -0.5755
57740SOL    HW281999  11.193   3.183   0.906  0.1345  1.8448  0.7955
57741SOL     OW82000   2.244   4.077   8.038  0.0606 -0.4614  0.9528
57741SOL    HW182001   2.270   3.990   8.008  0.0534 -0.5705  1.2505
57741SOL    HW282002   2.286   4.138   7.978 -1.5548 -0.7054 -0.5030
57742SOL     OW82003  10.168   9.196  11.187  0.2129  0.0148 -0.7341
57742SOL    HW182004  10.165   9.145  11.268  1.2302  0.0001 -0.6938
57742SOL    HW282005  10.131   9.138  11.120  0.6633 -0.5046 -0.5419
57743SOL     OW82006   5.443   6.652   3.875  0.5175  0.1974 -0.1017
57743SOL    HW182007   5.523   6.606   3.901  1.6500  2.2793  0.2546
57743SOL    HW282008   5.456   6.742   3.904 -1.7555  0.7175 -0.5055
57744SOL     OW82009   0.972  11.218   9.933 -0.4621  0.5087  0.1731
57744SOL    HW182010   0.981  11.199  10.026 -0.4267 -1.9733 -0.2741
57744SOL    HW282011   1.061  11.221   9.900 -0.5150 -0.2780 -0.0586
57745SOL     OW82012   2.538   3.772  10.492  0.1299 -0.2276 -0.4348
57745SOL    HW182013   2.529   3.677  10.500 -0.0783 -0.2793 -1.1616
57745SOL    HW282014   2.537   3.788  10.397 -0.6590  0.5680 -0.3097
57746SOL     OW82015   1.299   0.813   0.023 -0.4348 -0.0979 -0.0322
57746SOL    HW182016   1.324   0.905   0.036 -1.7753  0.4581 -1.1022
57746SOL    HW282017   1.226   0.817  -0.038 -1.1306 -1.8256  0.6216
57747SOL     OW82018   2.490   3.556   9.693 -0.0928  0.4199  0.4105
57747SOL    HW182019   2.447   3.549   9.778 -0.0668  1.5900  0.5372
57747SOL    HW282020   2.554   3.627   9.704 -0.6139  1.1105 -0.7916
57748SOL     OW82021   6.231   9.868   4.531 -0.1633 -0.2124 -0.2785
57748SOL    HW182022   6.157   9.808   4.541 -0.4763  0.4427  1.7332
57748SOL    HW282023   6.205   9.947   4.577  1.0883  0.7165 -1.0830
57749SOL     OW82024   4.900   1.682   9.594 -0.0634  0.4333 -0.4459
57749SOL    HW182025   4.953   1.762   9.593  0.1022  0.3863  1.5238
57749SOL    HW282026   4.810   1.713   9.584 -0.1524  1.0558  1.8723
57750SOL     OW82027   2.090  10.000   0.036  0.1034  0.5250 -0.0617
57750SOL    HW182028   2.168  10.053   0.057  0.7245 -0.6731  0.7973
57750SOL    HW282029   2.123   9.930  -0.020 -0.4154  0.2162  0.0098
57751SOL     OW82030   4.941  12.206   6.939  0.0005  0.3973 -0.3784
57751SOL    HW182031   4.873  12.270   6.922 -1.1802 -1.3566 -2.9949
57751SOL    HW282032   4.896  12.135   6.985  0.7052  0.3621  0.2748
57752SOL     OW82033   3.824   2.769   9.963  0.3475 -0.6154  0.1069
57752SOL    HW182034   3.829   2.863   9.948  0.3645 -0.6705 -0.2390
57752SOL    HW282035   3.797   2.732   9.879 -1.5968 -0.7409  0.7345
57753SOL     OW82036   7.082   4.900   1.894 -0.3823 -0.2618  0.3432
57753SOL    HW182037   7.140   4.854   1.955 -1.0570 -0.4453  0.8522
57753SOL    HW282038   7.125   4.892   1.809 -0.1874 -1.3050  0.5336
57754SOL     OW82039   5.308  11.201   9.459 -0.1200 -0.3855  0.1047
57754SOL    HW182040   5.337  11.163   9.542  1.0367 -1.5515 -0.8078
57754SOL    HW282041   5.355  11.153   9.392  0.4980  1.8526 -1.1750
57755SOL     OW82042  11.665   6.870  10.037  0.4951  0.3297  0.5526
57755SOL    HW182043  11.671   6.883  10.132  1.4742 -0.8908  0.6825
57755SOL    HW282044  11.754   6.844  10.011 -0.3826 -2.0968 -0.2496
57756SOL     OW82045  11.536  10.480  12.554  0.8414 -1.0247  0.2432
57756SOL    HW182046  11.605  10.505  12.615 -0.0487  0.6484  0.6097
57756SOL    HW282047  11.494  10.562  12.529 -2.0033 -2.0733  1.1785
57757SOL     OW82048   4.999   4.772   2.711  0.3025  0.1612 -0.0199
57757SOL    HW182049   5.086   4.811   2.707  0.6210 -0.3958  0.9323
57757SOL    HW282050   5.016   4.678   2.714 -0.4101 -0.0278 -1.3564
57758SOL     OW82051   9.756   4.981   1.406  0.1589 -0.0100  0.0407
57758SOL    HW182052   9.843   4.962   1.371  0.9137 -1.6068  2.5181
57758SOL    HW282053   9.761   5.071   1.438  0.2256  0.5989 -1.6088
57759SOL     OW82054   5.080   2.234  10.005 -0.3140  0.0633  0.1020
57759SOL    HW182055   4.991   2.266   9.995 -0.6157 -0.3227  1.4347
57759SOL    HW282056   5.075   2.140   9.984 -0.6293 -0.3887  2.0327
57760SOL     OW82057   6.248   2.864  11.295  0.5737  0.0393 -0.9089
57760SOL    HW182058   6.292   2.939  11.255  2.8909 -2.1388 -2.7374
57760SOL    HW282059   6.290   2.854  11.380 -2.0957  2.6819  0.9383
57761SOL     OW82060   3.188   9.038  12.054  0.4669 -0.3674  0.2403
57761SOL    HW182061   3.177   9.045  11.960 -1.2864  0.5348  0.4810
57761SOL    HW282062   3.282   9.054  12.068  0.2681  2.6981 -1.1122
57762SOL     OW82063   8.983  12.371   2.132  0.4619  0.0401 -0.2190
57762SOL    HW182064   8.891  12.398   2.130  0.0517 -1.3399 -0.7924
57762SOL    HW282065   9.026  12.437   2.187 -0.5394  1.6604 -1.2973
57763SOL     OW82066   1.579   8.167   3.906 -0.4536 -0.8628 -0.3822
57763SOL    HW182067   1.651   8.201   3.853  1.9510 -1.1911  2.4118
57763SOL    HW282068   1.589   8.072   3.902  0.4081 -0.8899  1.3060
57764SOL     OW82069   4.160   7.236   4.940  0.4853  0.1795 -0.0669
57764SOL    HW182070   4.115   7.321   4.933 -1.0904 -0.5790  0.4434
57764SOL    HW282071   4.164   7.204   4.850  1.2066  0.8325 -0.2821
57765SOL     OW82072  11.032   1.332   0.358 -0.5243 -0.6226  0.1750
57765SOL    HW182073  10.980   1.402   0.397  1.6970 -0.0061  2.2989
57765SOL    HW282074  11.042   1.267   0.428  1.8014 -0.5127  0.0367
57766SOL     OW82075   8.754   9.300   9.755  0.3509  0.0226  0.3865
57766SOL    HW182076   8.832   9.348   9.729  0.6286 -0.9782 -0.7022
57766SOL    HW282077   8.763   9.215   9.712 -0.1713 -0.9799  2.1795
57767SOL     OW82078   1.982   8.979   9.806  0.4297  0.0043 -0.4333
57767SOL    HW182079   1.956   8.890   9.785  0.3680 -0.0234 -0.2421
57767SOL    HW282080   1.997   9.021   9.721 -0.0286 -0.0423 -0.5360
57768SOL     OW82081   5.329   1.420   8.428 -0.1427 -0.4003 -0.0760
57768SOL    HW182082   5.304   1.421   8.521 -2.7766  0.8922 -0.7154
57768SOL    HW282083   5.247   1.433   8.381  1.3820  1.0393 -2.5477
57769SOL     OW82084   9.750   9.663   1.640 -0.0931 -0.1695 -0.2949
57769SOL    HW182085   9.660   9.643   1.666 -0.1896  0.5729 -0.0107
57769SOL    HW282086   9.766   9.750   1.678  1.5441 -1.2578  1.6794
57770SOL     OW82087   4.861   5.243   6.376 -0.1966  0.0247 -0.1221
57770SOL    HW182088   4.892   5.154   6.360 -1.0253 -0.3853  0.4745
57770SOL    HW282089   4.786   5.253   6.318 -0.0675  0.3652 -0.2351
57771SOL     OW82090   4.968   0.846  11.857 -0.2329  0.5035  0.0659
57771SOL    HW182091   5.003   0.762  11.889  1.4489  0.7286 -1.0419
57771SOL    HW282092   4.924   0.823  11.775 -2.9242  0.2125  1.4848
57772SOL     OW82093   6.929  12.084   9.449 -0.4249 -0.4506  0.1967
57772SOL    HW182094   7.018  12.117   9.446 -0.7381  0.4192  0.0554
57772SOL    HW282095   6.881  12.149   9.500 -0.9970 -0.8416  0.1645
57773SOL     OW82096   6.124   3.130   7.439 -0.2871 -0.1765  0.5528
57773SOL    HW182097   6.184   3.117   7.512  0.9473  0.0018 -0.3987
57773SOL    HW282098   6.144   3.059   7.378 -1.2057 -0.2493  0.3177
57774SOL     OW82099   3.743   8.106  12.494  0.0583  0.5855 -0.2697
57774SOL    HW182100   3.809   8.040  12.471 -0.4023  0.1908 -0.4732
57774SOL    HW282101   3.695   8.067  12.567 -1.4609 -0.1568 -1.5961
57775SOL     OW82102  12.374   6.038  11.633 -0.1778 -0.4999 -0.1503
57775SOL    HW182103  12.389   6.127  11.600 -5.2366 -0.0927 -2.4290
57775SOL    HW282104  12.332   6.050  11.718 -1.3669 -0.5833 -0.7020
57776SOL     OW82105   0.479   5.735  10.075 -0.3052 -0.4004  0.1950
57776SOL    HW182106   0.567   5.716  10.043  0.4290  0.7604  1.4333
57776SOL    HW282107   0.456   5.819  10.035 -0.5825 -0.3826  0.3905
57777SOL     OW82108   0.032   1.847   8.666  0.0730 -0.2831 -0.2762
57777SOL    HW182109   0.107   1.906   8.673  0.2539 -0.5674  0.2429
57777SOL    HW282110  -0.028   1.875   8.736  0.7224 -1.4990  0.8034
57778SOL     OW82111  10.387   7.724   2.934 -0.1412  0.4549  0.2763
57778SOL    HW182112  10.368   7.744   3.025 -0.5882  0.4458  0.1881
57778SOL    HW282113  10.475   7.687   2.935 -0.5941 -0.6477  0.8549
57779SOL     OW82114   5.524  11.540   0.506  0.1213 -0.4130  0.5075
57779SOL    HW182115   5.436  11.512   0.482 -0.8179  3.1764 -0.7591
57779SOL    HW282116   5.517  11.565   0.598 -1.3058  3.2446 -0.4436
57780SOL     OW82117   7.177   3.997   8.137  0.1535  0.2278  0.6101
57780SOL    HW182118   7.208   4.043   8.216 -0.0899 -0.4975  1.1381
57780SOL    HW282119   7.257   3.960   8.098  0.0454 -1.3530  1.7849
57781SOL     OW82120   2.285   6.841   0.057 -0.5261  0.0392  0.1212
57781SOL    HW182121   2.354   6.879   0.113 -1.0816 -0.7207  1.3490
57781SOL    HW282122   2.331   6.778   0.002 -0.0831  0.2803  0.2085
57782SOL     OW82123   6.705  11.098   4.449  0.0354  0.3200  0.2908
57782SOL    HW182124   6.718  11.018   4.501 -0.2661  0.2597  0.2765
57782SOL    HW282125   6.619  11.130   4.476  0.9380  1.6817  1.6818
57783SOL     OW82126   8.481   2.401   9.441  0.3890  0.2432  0.1305
57783SOL    HW182127   8.501   2.322   9.491 -1.6723  0.9967  2.3426
57783SOL    HW282128   8.565   2.429   9.405  1.2721 -2.5506 -0.1627
57784SOL     OW82129  12.376   8.722  11.011 -0.0134 -0.1650  0.4002
57784SOL    HW182130  12.323   8.792  11.050  1.7085  1.9611 -0.8213
57784SOL    HW282131  12.365   8.648  11.071 -1.8292  1.1632  1.8511
57785SOL     OW82132   5.229   4.880   0.973 -0.1231 -0.1103 -0.0206
57785SOL    HW182133   5.290   4.952   0.986 -0.4766  0.3530 -0.8199
57785SOL    HW282134   5.149   4.908   1.018 -0.0224 -0.3345  0.2988
57786SOL     OW82135   0.299   8.994  11.930 -0.1157 -0.2365  0.1823
57786SOL    HW182136   0.388   8.973  11.902 -0.1548 -0.0014 -0.1152
57786SOL    HW282137   0.299   9.089  11.942 -0.0115 -0.3569  1.2822
57787SOL     OW82138   6.651   3.056   1.744 -0.0697  0.1889 -0.3770
57787SOL    HW182139   6.746   3.057   1.760 -0.0476 -2.9005  0.2456
57787SOL    HW282140   6.642   3.020   1.656 -0.6552 -0.8536  0.0875
57788SOL     OW82141   1.334  10.347   4.778 -0.0283  0.0832  0.2640
57788SOL    HW182142   1.305  10.257   4.795 -2.3544  1.0105  1.6643
57788SOL    HW282143   1.303  10.366   4.690 -0.0660 -0.2970  0.1932
57789SOL     OW82144   6.727   2.544   8.809 -0.3961  0.4212  0.1320
57789SOL    HW182145   6.688   2.620   8.851  0.3322  1.1341 -0.4631
57789SOL    HW282146   6.733   2.567   8.717 -0.5566 -0.5315 -0.1285
57790SOL     OW82147   8.078   6.853   1.058  0.1048  0.0569  0.3529
57790SOL    HW182148   8.052   6.829   0.969  0.9453 -1.4443  0.4808
57790SOL    HW282149   8.018   6.804   1.115  0.4380 -0.0644  0.6062
57791SOL     OW82150   7.900   5.933   7.278 -0.1396 -0.1185 -0.1177
57791SOL    HW182151   7.954   5.997   7.231 -0.3849  0.5395  0.4768
57791SOL    HW282152   7.853   5.886   7.210  0.4026  0.0192 -0.5895
57792SOL     OW82153  12.475  10.273   2.296  0.0439 -0.2392  0.1746
57792SOL    HW182154  12.530  10.195   2.308 -1.5086 -1.3594  0.2162
57792SOL    HW282155  12.487  10.323   2.377 -0.3669 -1.3587  0.9423
57793SOL     OW82156   5.312   2.444   8.543 -0.3544  0.3694 -0.3107
57793SOL    HW182157   5.238   2.468   8.598 -1.1498 -0.6343 -0.9118
57793SOL    HW282158   5.339   2.526   8.501 -0.9149  0.8027  0.1603
57794SOL     OW82159   3.433   3.661   5.232  0.1668  0.2222 -0.0833
57794SOL    HW182160   3.416   3.685   5.323  1.7280 -0.1680  0.3332
57794SOL    HW282161   3.430   3.565   5.231  0.7550  0.2013 -0.3098
57795SOL     OW82162   0.735   4.084  10.680  0.3156  0.5446  0.8287
57795SOL    HW182163   0.804   4.018  10.676  0.0479  0.3287 -0.5562
57795SOL    HW282164   0.782   4.167  10.677  0.5339  0.4032  0.2555
57796SOL     OW82165   2.645   5.693  11.458  0.0576 -0.8221  0.8246
57796SOL    HW182166   2.583   5.694  11.384 -1.4159 -2.5889  1.9379
57796SOL    HW282167   2.634   5.778  11.499 -0.5973 -0.5675  0.1590
57797SOL     OW82168   1.708  11.813   8.508 -0.3043 -0.0711 -0.3252
57797SOL    HW182169   1.694  11.781   8.419 -0.3747  1.3760 -0.8581
57797SOL    HW282170   1.772  11.753   8.546  0.1560 -0.3749 -1.5411
57798SOL     OW82171  10.292   0.070   4.150 -0.1444  0.0589 -0.2159
57798SOL    HW182172  10.383   0.047   4.130 -0.5170 -0.9173 -0.8357
57798SOL    HW282173  10.240   0.001   4.109 -1.1086 -0.2113  1.3792
57799SOL     OW82174   9.818   7.331   1.775 -0.3975 -0.2902 -0.5376
57799SOL    HW182175   9.870   7.404   1.809  0.5106 -0.8841 -0.6286
57799SOL    HW282176   9.796   7.278   1.851 -1.0230  0.0389 -0.4774
57800SOL     OW82177   9.106  10.068   2.714  0.3884 -0.5033  0.0502
57800SOL    HW182178   9.194  10.031   2.702  0.5326  0.2129 -1.3141
57800SOL    HW282179   9.047   9.997   2.691  0.5977 -0.9771  0.9343
57801SOL     OW82180   6.637   6.345  11.806  0.6895  0.0165  0.6130
57801SOL    HW182181   6.696   6.270  11.808  1.1836  0.4119  0.9014
57801SOL    HW282182   6.556   6.310  11.769  1.0533 -0.5625  0.3466
57802SOL     OW82183   6.088   8.107   8.866  0.2055 -0.1636  0.4764
57802SOL    HW182184   6.141   8.045   8.917  1.8000 -0.5156 -1.4797
57802SOL    HW282185   6.113   8.090   8.775 -2.3469  0.6037 -0.4421
57803SOL     OW82186   8.957   1.882   2.782 -0.6264  0.0826 -0.5756
57803SOL    HW182187   8.912   1.905   2.863  1.4880 -1.0698  1.0643
57803SOL    HW282188   8.977   1.965   2.740 -0.6655  0.7852  0.7610
57804SOL     OW82189   8.327   0.906   2.313  0.1598 -0.0552 -0.4793
57804SOL    HW182190   8.262   0.907   2.384 -1.3119 -0.9660 -1.7543
57804SOL    HW282191   8.352   0.814   2.307  1.2207  0.2162 -0.3372
57805SOL     OW82192   9.431   3.452   7.028 -0.4879 -0.7590 -0.3793
57805SOL    HW182193   9.379   3.429   7.105  0.1481  0.3311  0.4068
57805SOL    HW282194   9.497   3.383   7.021  0.2488 -0.2064  0.8363
57806SOL     OW82195  12.126   5.709   9.480  0.0615  0.2039  0.2634
57806SOL    HW182196  12.163   5.661   9.554  0.6451 -1.9625 -1.3140
57806SOL    HW282197  12.132   5.801   9.505  2.6367 -0.2868  1.8403
57807SOL     OW82198   7.802   2.942   2.225  0.0030  0.3594 -0.0969
57807SOL    HW182199   7.852   2.911   2.301  0.6904  1.1985 -0.1833
57807SOL    HW282200   7.869   2.975   2.165 -0.6118  0.8223 -0.5378
57808SOL     OW82201  11.492   0.172  11.288  0.0298 -0.1472 -0.1769
57808SOL    HW182202  11.469   0.248  11.342 -0.3899 -1.9043  2.2962
57808SOL    HW282203  11.422   0.167  11.223 -0.3575  1.1091  0.1139
57809SOL     OW82204   6.013   2.180   1.501 -0.0363 -0.0198  0.2301
57809SOL    HW182205   5.983   2.224   1.421  2.2056 -0.1495 -0.7512
57809SOL    HW282206   6.036   2.252   1.560  2.4815  0.2349 -0.9306
57810SOL     OW82207   9.512   5.431   1.561 -0.3877  0.4937 -0.3754
57810SOL    HW182208   9.563   5.394   1.634 -1.5602 -0.7946 -0.1770
57810SOL    HW282209   9.552   5.517   1.546  1.0289  0.0513  0.5945
57811SOL     OW82210  12.011   4.830  10.422  0.4351  0.5919 -0.0745
57811SOL    HW182211  11.940   4.766  10.418 -0.9579  2.1289 -1.2397
57811SOL    HW282212  11.971   4.910  10.456  1.6748  1.4063 -0.4095
57812SOL     OW82213   0.778   7.864   3.367  0.3012  0.1738 -0.8368
57812SOL    HW182214   0.790   7.771   3.345 -0.6013 -0.1545  0.0003
57812SOL    HW282215   0.845   7.909   3.315  1.2463 -1.0054 -0.7076
57813SOL     OW82216   2.067   4.633   5.745 -0.2593 -0.3225 -0.4832
57813SOL    HW182217   2.090   4.720   5.713 -1.7975  0.4160  0.3253
57813SOL    HW282218   2.147   4.599   5.784  0.4699  0.5415 -1.1924
57814SOL     OW82219   7.371   3.176   1.218  0.2667  0.5696  0.0417
57814SOL    HW182220   7.461   3.192   1.246  0.7023  0.9538 -1.4668
57814SOL    HW282221   7.368   3.083   1.197  0.2960  0.5438  0.1532
57815SOL     OW82222   1.808  10.046   7.208  0.3491 -0.5446 -0.2909
57815SOL    HW182223   1.791   9.958   7.243  0.4015 -0.0864  0.9397
57815SOL    HW282224   1.723  10.089   7.212  0.4322 -0.3706 -0.4121
57816SOL     OW82225   8.710   1.533   8.851  1.2813  0.3791 -0.7401
57816SOL    HW182226   8.653   1.457   8.864 -0.0212  1.1531 -1.6934
57816SOL    HW282227   8.796   1.504   8.882  0.2480 -0.5946  1.4545
57817SOL     OW82228   6.926  10.131  12.187  0.0593  0.6466 -0.1588
57817SOL    HW182229   6.949  10.221  12.163 -0.4476  0.2926 -2.2320
57817SOL    HW282230   6.916  10.086  12.103  1.8101 -1.7760  0.8262
57818SOL     OW82231   1.149   5.398   2.471 -0.0513 -0.5021  0.4087
57818SOL    HW182232   1.079   5.341   2.504  0.4495 -1.5987 -0.3972
57818SOL    HW282233   1.217   5.393   2.538 -0.3716 -0.1252  0.7709
57819SOL     OW82234   8.861   9.015  11.688  0.0310 -0.0863 -0.1796
57819SOL    HW182235   8.838   9.063  11.767 -1.6028 -1.9380  0.5286
57819SOL    HW282236   8.918   8.944  11.719  0.3662 -0.1116 -0.8407
57820SOL     OW82237   4.621   2.748  11.296 -0.2472 -0.3250  0.5397
57820SOL    HW182238   4.553   2.724  11.234  0.3256  0.8780 -0.6085
57820SOL    HW282239   4.601   2.838  11.321 -0.9624 -1.0576  2.8263
57821SOL     OW82240   0.048   7.823  11.000  0.1427  0.1418 -0.2588
57821SOL    HW182241   0.045   7.851  11.091 -0.1513  1.3209 -0.6220
57821SOL    HW282242  -0.042   7.801  10.979 -0.1097  1.6243 -0.7901
57822SOL     OW82243   0.870  12.284   1.738 -0.8788  0.6574  0.3136
57822SOL    HW182244   0.781  12.281   1.772 -0.6588  1.6815  1.0322
57822SOL    HW282245   0.908  12.363   1.777  0.6717 -0.3023  0.8564
57823SOL     OW82246  12.170   9.061   3.269  0.3979  0.0697  0.3356
57823SOL    HW182247  12.254   9.070   3.314  0.1807  0.2579  0.7049
57823SOL    HW282248  12.110   9.117   3.318 -0.2101 -0.9043  0.7247
57824SOL     OW82249   4.537   8.185   2.527 -0.0021 -0.3389  0.1154
57824SOL    HW182250   4.482   8.255   2.561 -2.0042 -2.2904  1.1162
57824SOL    HW282251   4.553   8.128   2.602 -0.4761 -2.2119 -1.1359
57825SOL     OW82252   6.126   3.061   5.960 -0.3330  0.9628 -0.9104
57825SOL    HW182253   6.170   3.024   6.037 -0.0838  2.2764 -0.3957
57825SOL    HW282254   6.044   3.014   5.953 -0.8247  1.5169  0.7897
57826SOL     OW82255  12.413   3.696   3.856  0.1670 -0.5076 -0.1536
57826SOL    HW182256  12.428   3.772   3.911  0.9983 -0.1372 -0.8718
57826SOL    HW282257  12.377   3.732   3.774 -1.5900 -1.0923  0.3091
57827SOL     OW82258   1.842   5.532   2.931 -0.1453 -0.9025 -0.4657
57827SOL    HW182259   1.765   5.547   2.985  0.2291 -0.7582  0.0354
57827SOL    HW282260   1.887   5.458   2.973  1.4202  0.7185  0.8768
57828SOL     OW82261  11.855   0.306   1.042 -0.0069  0.3324 -0.2351
57828SOL    HW182262  11.886   0.382   1.090 -0.7410  1.6766 -1.7943
57828SOL    HW282263  11.760   0.318   1.037 -0.8438 -2.8812  3.1062
57829SOL     OW82264  10.819   1.200   1.521 -0.4104 -0.3107  0.1706
57829SOL    HW182265  10.771   1.127   1.560 -1.0506 -0.2519 -0.4947
57829SOL    HW282266  10.823   1.266   1.591  0.8461 -1.2555  1.0305
57830SOL     OW82267   0.204   9.902   8.674  0.1849  0.1068 -0.2617
57830SOL    HW182268   0.242   9.822   8.638 -0.4644 -1.3028  1.9772
57830SOL    HW282269   0.110   9.884   8.679  0.1602  0.5330  1.3272
57831SOL     OW82270   1.991   2.173   2.289  0.2540  0.1238  0.3160
57831SOL    HW182271   1.914   2.117   2.278 -0.2645  0.6866  0.9190
57831SOL    HW282272   1.955   2.262   2.294  1.1234  0.5985 -1.3936
57832SOL     OW82273  11.043   1.931   6.437  0.0558 -0.1800 -0.7258
57832SOL    HW182274  11.008   1.902   6.521 -0.0123  2.1824  0.1372
57832SOL    HW282275  10.966   1.941   6.381 -0.1348  0.2218 -0.4006
57833SOL     OW82276   8.148  10.342   3.006  0.2005  0.4826 -0.2677
57833SOL    HW182277   8.157  10.371   3.097  0.6233 -0.7031  0.0822
57833SOL    HW282278   8.235  10.359   2.968  0.5306 -0.5296  0.0096
57834SOL     OW82279  12.270   1.225   5.310 -0.1770 -0.2221  0.1393
57834SOL    HW182280  12.226   1.243   5.226  1.1132 -2.1894 -1.0359
57834SOL    HW282281  12.293   1.312   5.343 -1.6890  0.6634 -0.9763
57835SOL     OW82282   1.183   4.359  10.350 -0.6326 -0.6304 -0.1427
57835SOL    HW182283   1.115   4.413  10.311 -0.0355 -0.0164 -0.3521
57835SOL    HW282284   1.202   4.292  10.284 -0.8112 -0.6134 -0.2106
57836SOL     OW82285   9.840   7.298   2.687  0.1201 -0.3409 -0.2668
57836SOL    HW182286   9.773   7.301   2.755 -0.2075 -2.9952 -0.3909
57836SOL    HW282287   9.923   7.299   2.735 -0.0641 -0.0255  0.0497
57837SOL     OW82288   3.170   3.493   6.982 -0.4220  0.0911  0.2146
57837SOL    HW182289   3.126   3.560   6.930 -0.9797 -0.0844  0.4540
57837SOL    HW282290   3.217   3.440   6.917 -2.1794 -0.9252 -0.2849
57838SOL     OW82291   0.502   0.736   4.126  0.1139 -0.1323 -0.4221
57838SOL    HW182292   0.550   0.688   4.193  2.1087  0.4427 -1.3532
57838SOL    HW282293   0.430   0.778   4.174  1.2921  0.0354  1.3218
57839SOL     OW82294   0.130   2.956   7.298  0.2409  0.2029 -0.3513
57839SOL    HW182295   0.182   3.035   7.309 -0.6992  0.9646 -1.2386
57839SOL    HW282296   0.188   2.896   7.251  0.8518  0.4742  0.0513
57840SOL     OW82297   2.349   1.739   1.913  0.1654 -0.1150  0.0028
57840SOL    HW182298   2.254   1.736   1.907 -0.4014  3.0764  3.5542
57840SOL    HW282299   2.375   1.811   1.856 -0.0668  1.2357  1.5152
57841SOL     OW82300   5.645  11.631   4.133 -0.3907  0.2009  0.1856
57841SOL    HW182301   5.668  11.565   4.068 -0.8136  0.9198 -0.7158
57841SOL    HW282302   5.727  11.675   4.153 -0.2783  0.0487  0.0585
57842SOL     OW82303   9.261   7.304   6.481  0.2363  0.3773  0.0520
57842SOL    HW182304   9.246   7.316   6.388  1.0190 -0.9731 -0.2810
57842SOL    HW282305   9.328   7.368   6.504  0.9317 -0.1116 -0.5923
57843SOL     OW82306   6.845   3.427   3.815 -0.3383 -0.6613 -0.2834
57843SOL    HW182307   6.882   3.435   3.903  0.3173  0.3699 -0.6245
57843SOL    HW282308   6.784   3.354   3.820 -1.0262 -0.0048  1.2710
57844SOL     OW82309   9.406   3.076   5.502 -0.3408 -0.2024  0.5078
57844SOL    HW182310   9.366   3.150   5.456  0.8135  0.8068  1.0731
57844SOL    HW282311   9.498   3.099   5.509 -0.4200 -0.4067  3.1396
57845SOL     OW82312   2.974  10.388   6.201  0.2230 -0.0925 -0.3418
57845SOL    HW182313   3.025  10.310   6.226 -0.6194 -0.6234 -0.2374
57845SOL    HW282314   3.031  10.462   6.223  2.0375 -0.6916 -2.6136
57846SOL     OW82315   9.581   4.460   9.299 -0.1837  0.1633  0.0268
57846SOL    HW182316   9.593   4.542   9.253 -3.2063  0.1984 -0.8979
57846SOL    HW282317   9.564   4.485   9.390 -1.7359  0.6481 -0.3765
57847SOL     OW82318   8.107   0.178   4.904  0.5554 -0.2694  0.0812
57847SOL    HW182319   8.043   0.234   4.860  1.2632  0.4434 -0.0717
57847SOL    HW282320   8.056   0.125   4.965  0.1398  2.6422  2.4600
57848SOL     OW82321   1.782   0.722   6.190  0.1171  0.0489 -0.1950
57848SOL    HW182322   1.692   0.696   6.205  0.6702 -1.8748  0.0271
57848SOL    HW282323   1.784   0.815   6.212 -1.5818 -0.0948  0.7102
57849SOL     OW82324   5.638  12.559   3.361 -0.1796  0.6113 -0.9894
57849SOL    HW182325   5.628  12.593   3.450 -0.0121  0.0997 -0.7725
57849SOL    HW282326   5.658  12.637   3.308 -2.0047  1.1828 -0.8988
57850SOL     OW82327  11.136  10.854   3.122 -0.4963 -0.3317  0.3165
57850SOL    HW182328  11.190  10.905   3.181  0.9891  0.2190 -1.4191
57850SOL    HW282329  11.053  10.843   3.168 -0.2887  2.2312  1.4443
57851SOL     OW82330   2.853  11.010   4.553 -0.2287 -0.4025  0.0442
57851SOL    HW182331   2.798  10.968   4.619  1.2843 -0.5356  1.2632
57851SOL    HW282332   2.863  10.943   4.485 -1.8329 -0.2463 -0.3918
57852SOL     OW82333   1.223   7.565   9.408  0.2634  0.0202  0.4716
57852SOL    HW182334   1.282   7.635   9.436  0.8484 -0.0602 -0.5161
57852SOL    HW282335   1.136   7.604   9.411  0.5918  0.8155 -0.1082
57853SOL     OW82336   2.475   7.973   8.852  0.0320 -0.1603 -0.0149
57853SOL    HW182337   2.442   7.911   8.917  0.1419  0.6132  0.8041
57853SOL    HW282338   2.403   8.035   8.840  0.0750 -0.2036 -0.5183
57854SOL     OW82339   9.617   6.004   2.377 -0.1466 -0.1792 -0.1156
57854SOL    HW182340   9.622   5.944   2.452 -1.0334 -2.1212 -1.5392
57854SOL    HW282341   9.529   6.041   2.383 -1.0086 -1.9217 -1.2928
57855SOL     OW82342   8.559   5.171   6.912  0.2288 -0.5719 -0.0011
57855SOL    HW182343   8.620   5.141   6.845  0.3877 -2.8489  1.0903
57855SOL    HW282344   8.480   5.195   6.864  0.6864 -1.1877 -1.0806
57856SOL     OW82345   8.869   9.329   2.366 -0.4405  0.3670 -0.1234
57856SOL    HW182346   8.823   9.413   2.362  1.7683  1.6206 -1.9711
57856SOL    HW282347   8.954   9.350   2.406 -1.0299 -1.7104  2.5280
57857SOL     OW82348   2.782   3.761   2.365 -0.4345  0.1805  0.2891
57857SOL    HW182349   2.743   3.731   2.283  0.3141 -0.8219  0.2878
57857SOL    HW282350   2.801   3.854   2.349 -2.4257  0.6234  0.1616
57858SOL     OW82351   9.761   8.153   0.003 -0.1696  0.5817 -0.4518
57858SOL    HW182352   9.789   8.064  -0.017  0.9298  0.8260 -0.1029
57858SOL    HW282353   9.677   8.163  -0.042  0.0405 -0.3858 -1.0925
57859SOL     OW82354   1.463   8.048   5.777 -0.3107 -0.1623  0.4000
57859SOL    HW182355   1.368   8.060   5.767 -0.8568 -3.8982 -0.3397
57859SOL    HW282356   1.477   8.056   5.872 -1.2750  0.7592  0.4931
57860SOL     OW82357   2.229   8.429   9.055  0.2353 -0.1544 -0.4229
57860SOL    HW182358   2.267   8.410   8.969  1.6185  0.6723 -0.0224
57860SOL    HW282359   2.192   8.516   9.046  1.8261  0.6365  0.2316
57861SOL     OW82360   9.496   3.753   8.147  0.4158 -0.9350  0.7866
57861SOL    HW182361   9.466   3.662   8.152 -0.8462 -0.5172  1.1225
57861SOL    HW282362   9.542   3.758   8.063 -1.5900 -1.3041 -0.4191
57862SOL     OW82363  12.224  11.070   2.377  0.2173 -0.2370 -0.3743
57862SOL    HW182364  12.138  11.102   2.351  0.3435  0.0197 -0.4865
57862SOL    HW282365  12.285  11.134   2.340  0.3973  0.2147  0.6677
57863SOL     OW82366   9.753   5.223   1.549 -0.0585  0.1236  0.5319
57863SOL    HW182367   9.826   5.269   1.591  0.6658  0.9725 -1.5144
57863SOL    HW282368   9.707   5.292   1.501 -0.3385 -0.9272 -0.7400
57864SOL     OW82369   6.184   4.861   4.020  0.2979  0.0957 -0.1453
57864SOL    HW182370   6.116   4.867   4.088  1.4050 -1.1515  1.1286
57864SOL    HW282371   6.171   4.940   3.967 -0.9853  0.8147  1.1480
57865SOL     OW82372   4.786   4.003   2.674 -0.0311 -0.5808 -0.0311
57865SOL    HW182373   4.859   4.058   2.703 -1.0156  1.3522 -1.0465
57865SOL    HW282374   4.828   3.926   2.636  1.4700  0.2153 -0.0750
57866SOL     OW82375   2.581   1.766   7.673  0.1043 -0.3361 -0.0307
57866SOL    HW182376   2.636   1.692   7.646 -2.0110 -1.4501 -1.5579
57866SOL    HW282377   2.492   1.732   7.669 -0.8340  1.8479  0.9006
57867SOL     OW82378   5.733  11.471   7.895  0.5981  0.4142 -0.4096
57867SOL    HW182379   5.747  11.420   7.815 -2.6824 -2.7776  0.7736
57867SOL    HW282380   5.749  11.408   7.965 -1.8486  1.5180  1.2378
57868SOL     OW82381   7.797   6.130   2.294 -0.5867 -0.0026  0.0001
57868SOL    HW182382   7.741   6.194   2.336  2.4281  1.3122  2.4531
57868SOL    HW282383   7.760   6.045   2.318 -1.3612  0.7943  1.7426
57869SOL     OW82384   2.684   3.311   0.036 -0.0890  0.2016  0.9095
57869SOL    HW182385   2.598   3.348   0.058  0.5397  0.6582  2.8110
57869SOL    HW282386   2.667   3.252  -0.037 -1.7434  1.4983  0.1719
57870SOL     OW82387  12.339   1.072   9.861  0.4126 -0.3617  0.0943
57870SOL    HW182388  12.385   1.022   9.793  2.2567 -0.2151  1.1795
57870SOL    HW282389  12.397   1.145   9.880  0.4355 -0.9598  2.5520
57871SOL     OW82390  12.365   3.999   0.964 -0.2399  0.3000  0.0787
57871SOL    HW182391  12.459   4.018   0.968 -0.0625 -0.7207  1.7838
57871SOL    HW282392  12.335   4.041   0.883  1.2211  2.6655  0.6627
57872SOL     OW82393   1.689  10.462   4.161  0.0115 -0.0067  0.3559
57872SOL    HW182394   1.647  10.526   4.102  0.7203 -0.3349 -0.5346
57872SOL    HW282395   1.645  10.379   4.141 -1.0173  0.1986  1.6250
57873SOL     OW82396   4.524   6.975   4.701  0.7600 -0.0410 -1.0565
57873SOL    HW182397   4.522   6.918   4.624 -0.4411  1.1468 -1.9512
57873SOL    HW282398   4.613   6.966   4.734  1.1972 -0.8914 -2.3468
57874SOL     OW82399   7.240   6.412   0.210 -0.9988  0.2615  0.2245
57874SOL    HW182400   7.283   6.353   0.272 -4.3012 -1.1467  1.3918
57874SOL    HW282401   7.159   6.439   0.254 -1.3666  2.8147 -1.7530
57875SOL     OW82402   4.424  12.385   2.456 -0.4465  0.3519  0.2459
57875SOL    HW182403   4.367  12.308   2.457 -0.0894  0.0863  0.7799
57875SOL    HW282404   4.430  12.409   2.363  1.2754 -1.6405 -0.2313
57876SOL     OW82405   4.723   3.483   0.352  0.0273 -0.0256  0.2533
57876SOL    HW182406   4.718   3.405   0.407 -1.0079 -1.3330 -1.5930
57876SOL    HW282407   4.810   3.478   0.313 -0.3565 -0.7655 -0.5356
57877SOL     OW82408   6.543   6.191  10.374  0.0525 -0.5686  0.1164
57877SOL    HW182409   6.534   6.250  10.300  0.9957  1.0709  1.2467
57877SOL    HW282410   6.616   6.227  10.425 -1.7325 -0.4971  2.8348
57878SOL     OW82411  10.914   0.150   6.924 -0.3328 -0.2548 -0.3291
57878SOL    HW182412  10.890   0.074   6.977 -2.1190  0.4336 -0.0703
57878SOL    HW282413  10.949   0.214   6.986 -0.6713 -0.1503 -0.2411
57879SOL     OW82414   8.136   7.376   4.673  0.3661  0.0608 -0.1691
57879SOL    HW182415   8.207   7.408   4.728 -0.2912 -0.8773  1.2929
57879SOL    HW282416   8.062   7.434   4.692  0.0246 -0.5012  0.2606
57880SOL     OW82417   4.801   0.125   6.139  0.4773  0.0325  0.0651
57880SOL    HW182418   4.795   0.030   6.129  0.5134  0.1424 -1.2416
57880SOL    HW282419   4.886   0.147   6.100 -0.8692  0.9147 -2.5675
57881SOL     OW82420  10.387  11.825   1.885 -0.8703  0.3275 -0.3426
57881SOL    HW182421  10.440  11.890   1.930 -0.9480 -0.1060  0.3803
57881SOL    HW282422  10.331  11.788   1.953  0.5172 -1.8912 -0.3075
57882SOL     OW82423   3.681   6.563   6.035 -0.0184 -0.3912  0.8848
57882SOL    HW182424   3.747   6.507   6.075  2.3222  1.6480  0.1707
57882SOL    HW282425   3.731   6.637   6.000 -2.7009  1.2132  0.1493
57883SOL     OW82426   5.577  12.543  11.572 -0.0964 -0.3028  0.2006
57883SOL    HW182427   5.525  12.593  11.508  1.8354  0.1518 -1.1204
57883SOL    HW282428   5.526  12.547  11.653 -2.2558 -0.2051 -1.0809
57884SOL     OW82429   3.050  11.233   3.010  0.4100 -0.9716 -0.3937
57884SOL    HW182430   3.128  11.177   3.006  1.0850 -0.0235 -1.0469
57884SOL    HW282431   3.085  11.322   3.022 -0.6843 -0.8488  2.7303
57885SOL     OW82432   6.562   7.317   8.077 -0.2462 -0.4474 -0.6591
57885SOL    HW182433   6.568   7.388   8.012  1.5358 -1.2807 -1.4694
57885SOL    HW282434   6.495   7.347   8.138 -1.4677  0.7145 -2.4616
57886SOL     OW82435  10.544  10.864  10.188  0.1640  0.1616  0.5474
57886SOL    HW182436  10.526  10.897  10.100 -0.2736  0.5529  0.7837
57886SOL    HW282437  10.606  10.928  10.225  2.3620 -1.2995 -0.3556
57887SOL     OW82438   5.546   1.830   1.427  0.4064  0.0537  0.4523
57887SOL    HW182439   5.517   1.867   1.511  1.9070  0.7450  0.7176
57887SOL    HW282440   5.642   1.829   1.434  0.5041 -2.0132 -0.3748
57888SOL     OW82441   1.069  11.257   8.742 -0.1874  0.5994 -0.1453
57888SOL    HW182442   1.036  11.194   8.806 -2.3836  1.1025 -0.6748
57888SOL    HW282443   1.127  11.314   8.792  0.7160 -0.9636  0.6448
57889SOL     OW82444   1.671   9.781   8.106  0.2149 -0.2770 -0.0620
57889SOL    HW182445   1.627   9.720   8.165  1.5197  0.6272  1.9803
57889SOL    HW282446   1.762   9.751   8.104 -0.0217 -1.0587 -2.7485
57890SOL     OW82447   1.299   4.059   6.236 -0.2666 -0.9882  0.5913
57890SOL    HW182448   1.303   4.011   6.153  0.4086 -1.2846  0.7851
57890SOL    HW282449   1.215   4.035   6.274  0.1914 -2.2772  0.8269
57891SOL     OW82450   6.714   3.400  10.870 -0.2044 -0.1951 -0.4189
57891SOL    HW182451   6.805   3.426  10.884 -0.6377  1.6014 -0.6446
57891SOL    HW282452   6.718   3.336  10.799  0.7765  1.1137 -1.6226
57892SOL     OW82453   8.700  10.515   3.154 -0.0609 -0.0924 -0.0058
57892SOL    HW182454   8.669  10.506   3.064 -2.2266  1.6534  0.4604
57892SOL    HW282455   8.770  10.451   3.162 -0.0543 -0.5567 -2.8056
57893SOL     OW82456   5.738   5.577  11.168 -0.0808 -0.1087 -0.4766
57893SOL    HW182457   5.807   5.517  11.140  0.4477  0.3849 -0.2488
57893SOL    HW282458   5.741   5.649  11.105 -0.1618  0.0776 -0.2709
57894SOL     OW82459   5.362   3.934   5.572  0.0305 -0.0062 -0.1122
57894SOL    HW182460   5.361   3.877   5.649 -0.4241 -0.2230 -0.2707
57894SOL    HW282461   5.286   3.905   5.520  0.7726 -0.3861 -1.0248
57895SOL     OW82462   3.332  10.644  10.210  0.1730 -0.0110 -0.6436
57895SOL    HW182463   3.268  10.592  10.160 -1.1039  2.6545 -1.9905
57895SOL    HW282464   3.389  10.682  10.143 -0.3605  2.0886  0.0234
57896SOL     OW82465   9.356   6.720   4.285 -0.5509 -0.1293  0.1020
57896SOL    HW182466   9.402   6.664   4.347 -1.1630 -0.8167 -0.0574
57896SOL    HW282467   9.313   6.786   4.340  1.2263  1.0097  0.2077
57897SOL     OW82468  12.422   0.396   0.182  0.4021 -0.5518 -0.0568
57897SOL    HW182469  12.437   0.461   0.113 -0.7826 -1.1481 -0.9277
57897SOL    HW282470  12.413   0.313   0.134  0.3496 -1.1028  0.8905
57898SOL     OW82471   8.619   3.658   1.596  0.3355 -0.1462  0.0590
57898SOL    HW182472   8.539   3.649   1.649  0.5605  1.3497  0.6905
57898SOL    HW282473   8.619   3.749   1.568  1.0484 -0.5241 -1.2286
57899SOL     OW82474   0.582   0.276   4.134  0.4976  0.2204  0.5110
57899SOL    HW182475   0.515   0.209   4.119  0.8955 -0.1649  0.4319
57899SOL    HW282476   0.533   0.359   4.136  0.1834  0.0974 -0.9695
57900SOL     OW82477   1.965  12.118   7.784  0.2771 -0.2670 -0.2644
57900SOL    HW182478   1.925  12.053   7.842 -1.2269  0.3508 -0.5695
57900SOL    HW282479   1.989  12.068   7.706  1.0402 -0.8332  0.3054
57901SOL     OW82480  11.638  12.065   7.924  0.7847 -0.6870  0.2377
57901SOL    HW182481  11.582  11.989   7.907  0.5772 -0.3243 -0.8012
57901SOL    HW282482  11.725  12.037   7.895  0.3287  0.1182 -2.1905
57902SOL     OW82483  11.151  11.088   1.638 -0.2336 -0.0684 -0.4190
57902SOL    HW182484  11.203  11.107   1.716  0.0623  0.5378 -0.7634
57902SOL    HW282485  11.123  11.174   1.606  0.0831 -0.2780 -1.2777
57903SOL     OW82486   4.684  12.161   4.338 -0.0047  0.1310  0.3245
57903SOL    HW182487   4.762  12.150   4.393  0.6190 -0.2347 -0.5969
57903SOL    HW282488   4.646  12.244   4.365  0.1887 -0.1348  1.4270
57904SOL     OW82489   2.394   1.330   1.631  0.0150  0.1172  0.4368
57904SOL    HW182490   2.421   1.384   1.706  0.5619  0.4020  0.0390
57904SOL    HW282491   2.299   1.327   1.637  0.1041 -1.4392  2.2482
57905SOL     OW82492   0.591  11.953   3.099 -0.2276  0.2150  0.4333
57905SOL    HW182493   0.514  11.984   3.052  0.0777 -0.2642 -0.3913
57905SOL    HW282494   0.580  11.858   3.103 -0.6687  0.3040  2.0792
57906SOL     OW82495  12.104   2.396   2.127  0.0297  0.3176  0.1490
57906SOL    HW182496  12.151   2.474   2.096 -2.0621  1.7300  0.3340
57906SOL    HW282497  12.043   2.376   2.056  2.1351 -2.7667 -1.0258
57907SOL     OW82498   2.029   7.693   6.640  0.2134 -0.4380 -0.0571
57907SOL    HW182499   2.046   7.599   6.634  0.3512 -0.3707 -0.8963
57907SOL    HW282500   2.081   7.722   6.715  0.9038 -0.8775 -0.3513
57908SOL     OW82501  10.241   6.825  12.454  0.7888 -0.6282  0.2718
57908SOL    HW182502  10.257   6.738  12.491 -2.4336 -0.5782  2.2023
57908SOL    HW282503  10.211   6.808  12.365  0.2892 -1.5016  0.5951
57909SOL     OW82504   0.669  12.098   1.441 -0.4271 -0.0500  0.8239
57909SOL    HW182505   0.660  12.015   1.395 -0.5707  1.0667 -1.2741
57909SOL    HW282506   0.747  12.088   1.495  0.3914 -1.0901 -0.4899
57910SOL     OW82507   7.028   9.715   9.597 -0.5632  0.5515  0.3654
57910SOL    HW182508   6.964   9.699   9.666 -0.8771  0.0969 -0.0215
57910SOL    HW282509   6.994   9.790   9.549 -0.9925  0.1023 -0.0472
57911SOL     OW82510   2.554   6.692   0.688  0.3404  0.3602  0.0690
57911SOL    HW182511   2.470   6.651   0.709 -0.3097  1.7478  0.2873
57911SOL    HW282512   2.620   6.631   0.721 -0.5907 -0.4172  0.5253
57912SOL     OW82513   3.701  12.464   3.099 -0.3029 -0.1451  0.1114
57912SOL    HW182514   3.748  12.524   3.158  0.3259  0.2030 -0.7273
57912SOL    HW282515   3.655  12.522   3.038 -0.1518 -0.5086 -0.3503
57913SOL     OW82516   4.469   5.383   5.419 -0.0950  0.5357 -0.2954
57913SOL    HW182517   4.423   5.299   5.407  0.3445  0.4637 -1.7869
57913SOL    HW282518   4.411   5.435   5.475 -0.5994 -0.5905  0.2658
57914SOL     OW82519   1.558  10.646   3.890  0.4009  0.0149  0.0943
57914SOL    HW182520   1.471  10.631   3.927  0.6381  0.9683  1.0830
57914SOL    HW282521   1.542  10.674   3.800 -0.2510 -0.9642 -0.1066
57915SOL     OW82522   4.207  11.004   9.479  0.1530 -0.3528  0.2732
57915SOL    HW182523   4.218  11.030   9.388  1.5285  1.2148  0.8242
57915SOL    HW282524   4.235  11.081   9.529  1.3252 -1.8202  2.0277
57916SOL     OW82525   0.081   8.634   9.890 -0.3707  0.9270  0.3991
57916SOL    HW182526   0.055   8.547   9.862  0.0146  0.7798  0.4916
57916SOL    HW282527   0.175   8.628   9.903 -0.5732  0.8758  2.0838
57917SOL     OW82528   1.162   6.675   2.829 -0.4407  0.0311 -0.1215
57917SOL    HW182529   1.184   6.766   2.849  0.4465  0.5525 -3.0144
57917SOL    HW282530   1.150   6.634   2.915  0.6920  2.4701  1.3133
57918SOL     OW82531  12.437   2.387   8.516 -0.0724 -0.2131 -0.1494
57918SOL    HW182532  12.350   2.425   8.500 -0.0248  0.0460  0.1992
57918SOL    HW282533  12.452   2.329   8.442 -1.0670 -1.1902  0.3823
57919SOL     OW82534   2.665   2.577   8.295  0.0014  0.4848 -0.0252
57919SOL    HW182535   2.741   2.590   8.239 -1.1714  2.0094 -1.3483
57919SOL    HW282536   2.662   2.655   8.351 -2.1660  1.9289 -1.9939
57920SOL     OW82537   6.609   9.053   8.226 -0.5090 -0.5632 -0.1731
57920SOL    HW182538   6.668   9.011   8.163 -2.0426 -2.9062 -0.1810
57920SOL    HW282539   6.576   9.130   8.180  0.8516 -0.4176 -0.9703
57921SOL     OW82540   0.862   8.728   1.891  0.4378 -0.1856  0.4255
57921SOL    HW182541   0.949   8.760   1.915 -0.2895  1.6365  0.7802
57921SOL    HW282542   0.813   8.725   1.973 -0.1105 -0.2607  0.1039
57922SOL     OW82543   1.186  10.064  12.612  0.2984 -0.1157 -0.3266
57922SOL    HW182544   1.193  10.026  12.699 -1.0768 -1.3763 -0.7040
57922SOL    HW282545   1.137  10.145  12.625  3.5737  1.9033  0.5386
57923SOL     OW82546   3.068   7.622   5.156 -0.1039 -0.3016 -0.5662
57923SOL    HW182547   3.030   7.600   5.241 -1.4280 -1.9804 -1.5194
57923SOL    HW282548   3.059   7.717   5.149 -0.7028 -0.2344  0.8443
57924SOL     OW82549   7.785   2.542   7.436 -0.1831 -0.1025  0.5568
57924SOL    HW182550   7.833   2.614   7.394 -0.9062  0.5516  0.8288
57924SOL    HW282551   7.694   2.555   7.409 -0.1791 -1.4999 -0.1850
57925SOL     OW82552   0.903   4.151  10.094  0.1807  0.2506 -0.0571
57925SOL    HW182553   0.873   4.077  10.040  0.0509  0.7284 -0.6507
57925SOL    HW282554   0.945   4.210  10.032 -2.3642  2.1248 -0.1876
57926SOL     OW82555   9.325  12.352  10.054 -0.1864 -0.5383  0.0521
57926SOL    HW182556   9.330  12.392  10.140  0.1411  0.3497 -0.3667
57926SOL    HW282557   9.401  12.385  10.007 -1.0133 -0.0243 -0.9738
57927SOL     OW82558  11.578   4.414   5.692 -0.5333 -0.0215  0.8221
57927SOL    HW182559  11.604   4.360   5.617 -1.6064 -1.9443  1.7834
57927SOL    HW282560  11.491   4.445   5.669 -0.6057 -0.0872  1.0115
57928SOL     OW82561  11.051   6.366   4.787  0.3546  0.0400 -0.1704
57928SOL    HW182562  11.000   6.438   4.750  2.2538  0.9628 -1.1440
57928SOL    HW282563  11.140   6.401   4.794  1.7236 -2.6395 -2.2139
57929SOL     OW82564  12.325   9.661   9.277  0.1344  0.6765 -0.8663
57929SOL    HW182565  12.307   9.634   9.367 -1.6631 -3.1597 -2.1493
57929SOL    HW282566  12.395   9.725   9.284  1.5485 -1.0198  3.1410
57930SOL     OW82567   1.041   5.155   1.780 -0.0558 -0.1350  0.1251
57930SOL    HW182568   1.046   5.233   1.836 -0.4879  0.4403 -0.6275
57930SOL    HW282569   1.006   5.187   1.697  0.9175 -0.9109 -0.6073
57931SOL     OW82570  11.102   0.323   1.771 -0.0627  0.2046 -0.1718
57931SOL    HW182571  11.162   0.386   1.811 -0.4608 -0.0716  0.9076
57931SOL    HW282572  11.098   0.251   1.834  0.6222 -1.0581 -1.5225
57932SOL     OW82573   2.605   6.368  12.280 -0.5958  0.1052 -0.1759
57932SOL    HW182574   2.548   6.441  12.255 -0.1705  0.9213  1.1365
57932SOL    HW282575   2.637   6.391  12.367 -1.7982 -2.4616  1.0472
57933SOL     OW82576   7.448   4.918  12.428  0.1102 -0.2278 -0.9562
57933SOL    HW182577   7.389   4.894  12.356  0.0986 -0.8020 -0.7666
57933SOL    HW282578   7.425   4.856  12.498  0.0368  0.4052 -0.4181
57934SOL     OW82579  10.499   7.776   1.136  0.1247  0.5799  0.1052
57934SOL    HW182580  10.469   7.734   1.217 -0.9023  0.0309 -0.5369
57934SOL    HW282581  10.594   7.782   1.146  0.0231  0.4220  1.2996
57935SOL     OW82582  10.683   5.157   6.826 -0.2811  0.2928 -0.4923
57935SOL    HW182583  10.632   5.084   6.862  1.7594 -1.4151 -0.8589
57935SOL    HW282584  10.739   5.116   6.759  0.6429  2.2786 -0.9981
57936SOL     OW82585   3.799   4.464  11.344  0.3843 -0.1254 -1.0620
57936SOL    HW182586   3.882   4.423  11.369  0.4293  0.6665  0.1575
57936SOL    HW282587   3.819   4.557  11.338 -0.8066  0.3828  1.3262
57937SOL     OW82588   9.646  12.578   6.446  0.2768  0.3428  0.1227
57937SOL    HW182589   9.692  12.493   6.447 -2.0098 -1.0001  1.4806
57937SOL    HW282590   9.700  12.634   6.392  2.3387 -1.7522 -0.1563
57938SOL     OW82591  10.251   6.801   1.552  0.5228 -0.0168  0.2566
57938SOL    HW182592  10.195   6.876   1.531 -0.5701 -0.9747 -0.3519
57938SOL    HW282593  10.304   6.789   1.473 -0.0652 -0.5369 -0.0671
57939SOL     OW82594   7.214   9.382  10.200  0.2809  0.2666  0.4276
57939SOL    HW182595   7.283   9.401  10.263  0.7992 -0.6048  0.1258
57939SOL    HW282596   7.240   9.300  10.158 -1.1204 -0.2823  0.5728
57940SOL     OW82597   4.035   2.676  10.288 -0.0251  0.0892 -0.2105
57940SOL    HW182598   3.982   2.740  10.337 -1.9611  0.2322 -2.3550
57940SOL    HW282599   4.125   2.705  10.303 -0.5617  0.6575  2.4636
57941SOL     OW82600  11.699   2.235  12.589 -0.4165  0.1399  0.5706
57941SOL    HW182601  11.610   2.201  12.600 -0.3819 -0.5566 -0.9940
57941SOL    HW282602  11.697   2.281  12.505  0.4094  1.1649  1.0888
57942SOL     OW82603   7.472   7.506   9.671 -0.7429  0.2177  0.3566
57942SOL    HW182604   7.405   7.478   9.733 -0.6820 -0.9887 -0.0997
57942SOL    HW282605   7.433   7.489   9.585 -0.2916  0.5882  0.0772
57943SOL     OW82606   8.619   1.533   6.119  0.0873  0.3419 -0.6597
57943SOL    HW182607   8.598   1.623   6.142  0.5659  0.4255 -0.5465
57943SOL    HW282608   8.542   1.502   6.072  0.1472  0.9999 -1.2135
57944SOL     OW82609   1.257   0.754   2.921  0.0966 -0.5427 -0.0838
57944SOL    HW182610   1.350   0.736   2.904  0.3735 -0.2106  1.0334
57944SOL    HW282611   1.256   0.841   2.961 -0.9585  0.7411 -2.6054
57945SOL     OW82612  10.508   0.891  12.424 -0.3335 -0.4295  0.2857
57945SOL    HW182613  10.576   0.877  12.489  0.2477  2.8924  0.5414
57945SOL    HW282614  10.431   0.848  12.461  1.0301 -2.5184  0.9321
57946SOL     OW82615  11.901   2.807   5.713  0.4860 -0.1532  0.7783
57946SOL    HW182616  11.944   2.831   5.795  0.6819  1.0993  0.3261
57946SOL    HW282617  11.842   2.880   5.694  1.8224  0.4904 -1.1724
57947SOL     OW82618  12.186   8.594   3.160 -0.3157 -0.1659  0.3685
57947SOL    HW182619  12.216   8.616   3.248  1.7399  0.9146 -0.5125
57947SOL    HW282620  12.151   8.676   3.126  0.7161 -0.0424 -0.4572
57948SOL     OW82621   3.286   4.056   5.488 -0.4389  0.5690  0.0187
57948SOL    HW182622   3.298   4.105   5.570  0.9615  3.0673 -1.5440
57948SOL    HW282623   3.373   4.020   5.470 -1.4143 -2.7198  1.1038
57949SOL     OW82624   4.397   0.885   8.961 -0.4100  0.2571  0.0946
57949SOL    HW182625   4.338   0.828   9.010  0.5228  0.0264  0.9722
57949SOL    HW282626   4.359   0.972   8.970 -0.5734  0.1215  0.7177
57950SOL     OW82627  10.646   3.209   0.542 -0.2537 -0.6242 -0.9130
57950SOL    HW182628  10.729   3.203   0.589 -0.2624  2.6268 -0.2488
57950SOL    HW282629  10.591   3.141   0.581  2.2068 -3.4978 -1.9758
57951SOL     OW82630  10.442  11.140   0.242  0.3113  0.0717  0.3794
57951SOL    HW182631  10.402  11.223   0.217  0.2219 -0.0646  0.0611
57951SOL    HW282632  10.501  11.162   0.314 -2.0710 -0.1104  2.4829
57952SOL     OW82633   5.691   4.098   1.675 -0.0184  0.2143  0.1648
57952SOL    HW182634   5.622   4.033   1.661 -0.0802  0.4635 -0.7610
57952SOL    HW282635   5.677   4.129   1.765 -0.1776 -0.8203  0.5056
57953SOL     OW82636   3.190   8.613  10.657  0.0006  0.1801  0.2113
57953SOL    HW182637   3.184   8.707  10.639 -0.2250 -0.3026 -2.6067
57953SOL    HW282638   3.128   8.573  10.597  1.4114 -1.9014  0.0656
57954SOL     OW82639  12.560   1.290   0.926  1.0094 -0.4756 -1.1383
57954SOL    HW182640  12.528   1.223   0.866  0.0211 -0.8896 -0.1730
57954SOL    HW282641  12.574   1.244   1.009  0.3920  0.4738 -0.4763
57955SOL     OW82642   5.421   2.252   1.100  0.1425  0.0388  0.1833
57955SOL    HW182643   5.460   2.204   1.173  0.6660 -0.6579 -0.5316
57955SOL    HW282644   5.351   2.194   1.068  0.5441 -0.0987 -0.4617
57956SOL     OW82645   5.274   3.829   0.674  0.0010 -0.5777 -0.6376
57956SOL    HW182646   5.302   3.738   0.671 -1.0002 -0.8738 -1.5112
57956SOL    HW282647   5.184   3.826   0.707 -0.1764  0.0522 -1.0415
57957SOL     OW82648   7.278   2.901   9.381 -0.3739 -0.1177  0.0763
57957SOL    HW182649   7.276   2.894   9.476  0.3939 -1.8659 -0.0110
57957SOL    HW282650   7.217   2.834   9.350 -1.2304  0.9652 -0.6751
57958SOL     OW82651   5.377   7.382   1.233 -0.1304  0.1454  0.1440
57958SOL    HW182652   5.378   7.329   1.154 -2.3997  0.7667 -0.3832
57958SOL    HW282653   5.427   7.460   1.211  1.0716 -0.6194  0.0820
57959SOL     OW82654   1.488   8.067   6.043 -0.2411 -0.1095 -0.0060
57959SOL    HW182655   1.476   8.155   6.079 -1.4485  0.5567 -1.8494
57959SOL    HW282656   1.419   8.015   6.082 -0.3410  0.1126  0.1146
57960SOL     OW82657  11.593   3.246  10.143 -0.2488  0.5132  0.3453
57960SOL    HW182658  11.637   3.163  10.123 -1.3710 -0.3276  1.2271
57960SOL    HW282659  11.554   3.233  10.229 -1.4948  1.5152 -0.0267
57961SOL     OW82660   5.027   7.066   1.558  0.2346  0.0798 -0.1836
57961SOL    HW182661   5.059   6.999   1.497  0.4923 -0.8460  0.9274
57961SOL    HW282662   4.986   7.132   1.502  0.0809 -0.9486 -1.3244
57962SOL     OW82663  11.561  12.088   1.176  0.1239 -0.4824  0.2661
57962SOL    HW182664  11.540  12.152   1.108  2.0461  1.5033  1.4036
57962SOL    HW282665  11.642  12.120   1.215  1.7650 -4.1706  0.2936
57963SOL     OW82666   7.539   0.862   7.621  0.3165 -0.4286  0.1620
57963SOL    HW182667   7.584   0.940   7.653 -0.3093 -0.5278  1.3164
57963SOL    HW282668   7.447   0.877   7.639  0.1933 -1.4691  0.5012
57964SOL     OW82669   9.873   0.124   4.815 -0.1173 -0.0150  0.5623
57964SOL    HW182670   9.823   0.182   4.758 -2.1528 -2.4706 -0.3528
57964SOL    HW282671   9.869   0.165   4.901 -0.9610  1.4607 -0.1429
57965SOL     OW82672   7.577   1.002   6.896  0.1338  0.0621 -0.0203
57965SOL    HW182673   7.631   1.007   6.975 -3.8031  1.8438  2.8624
57965SOL    HW282674   7.528   0.920   6.906 -1.8977  1.2797  0.6461
57966SOL     OW82675   2.996   1.890  11.424  0.2957  0.4928  0.1060
57966SOL    HW182676   2.972   1.890  11.516  0.9506  0.3292  0.2864
57966SOL    HW282677   2.913   1.883  11.377 -0.0021 -0.0476  0.6969
57967SOL     OW82678   4.577   3.217   3.900  0.3340 -0.4199  0.2625
57967SOL    HW182679   4.531   3.177   3.974 -0.5293  0.5954  0.3021
57967SOL    HW282680   4.624   3.291   3.938  1.1135 -0.7859  0.0320
57968SOL     OW82681   7.946  12.326   6.643  0.2806 -0.2047 -0.1623
57968SOL    HW182682   7.916  12.257   6.702 -0.9167  1.2047  0.9556
57968SOL    HW282683   8.019  12.367   6.689 -0.0290  0.2904 -0.1188
57969SOL     OW82684   3.256   2.941   4.523 -0.1828  0.2584 -0.5397
57969SOL    HW182685   3.342   2.920   4.559 -0.3347 -1.3807 -1.0741
57969SOL    HW282686   3.272   2.955   4.429 -0.6665 -1.2510 -0.8605
57970SOL     OW82687  11.303   0.728   3.944 -0.0881  0.5561 -0.0210
57970SOL    HW182688  11.217   0.750   3.907 -1.4866 -2.1200  1.3638
57970SOL    HW282689  11.342   0.667   3.882 -1.0818 -1.4844  1.2547
57971SOL     OW82690   0.778   5.509   2.173  0.2102  0.0824  0.4827
57971SOL    HW182691   0.821   5.445   2.231  1.8676 -0.2708 -1.0328
57971SOL    HW282692   0.798   5.477   2.084 -1.8548  0.8509 -0.3057
57972SOL     OW82693   2.743   9.733   7.004  0.1357  0.6997  0.1606
57972SOL    HW182694   2.782   9.714   6.918 -1.0422 -0.7544 -0.0863
57972SOL    HW282695   2.814   9.720   7.066  0.4037 -0.6690 -0.3951
57973SOL     OW82696   0.798   9.807   0.985  0.1105 -0.2389 -0.8171
57973SOL    HW182697   0.707   9.827   0.964 -0.2803 -0.1606  0.8087
57973SOL    HW282698   0.846   9.822   0.904 -0.6407  3.9014 -0.7078
57974SOL     OW82699   4.546   6.843   2.176 -0.1565 -0.3860  0.3982
57974SOL    HW182700   4.495   6.762   2.176 -0.8030  0.0181  0.4336
57974SOL    HW282701   4.513   6.893   2.101  1.5965 -0.9827 -0.8274
57975SOL     OW82702   2.563   4.397   4.317  0.9225 -0.1919 -0.6255
57975SOL    HW182703   2.539   4.309   4.345  0.9960 -0.9788 -2.8000
57975SOL    HW282704   2.658   4.402   4.331  0.5278  0.7173  2.3295
57976SOL     OW82705   2.089   0.821  10.974  0.2765 -0.3493  0.9501
57976SOL    HW182706   2.041   0.797  11.053 -0.0540  1.4268  1.3236
57976SOL    HW282707   2.028   0.803  10.903 -0.8155  1.4200  1.3893
57977SOL     OW82708   3.581   0.448  11.917 -0.9503  0.4633  0.2975
57977SOL    HW182709   3.669   0.413  11.903 -0.2455  1.4236  2.0269
57977SOL    HW282710   3.595   0.532  11.962 -2.7665 -0.9621  3.9183
57978SOL     OW82711  11.832   1.433   7.526 -0.0274 -0.7020  0.1666
57978SOL    HW182712  11.853   1.446   7.434  2.5555 -0.8224  0.6626
57978SOL    HW282713  11.909   1.467   7.573 -2.0404  1.0894  2.3824
57979SOL     OW82714   8.624   0.188   6.171  0.0591 -0.0442  0.4520
57979SOL    HW182715   8.594   0.278   6.187  1.4208  1.3181 -3.5039
57979SOL    HW282716   8.705   0.181   6.221 -0.0508  0.9386  0.8005
57980SOL     OW82717   2.908   8.639   1.968  0.4371 -0.0707  0.0061
57980SOL    HW182718   2.858   8.665   2.045  0.9126 -1.1941  0.7259
57980SOL    HW282719   2.998   8.664   1.988  0.6851 -1.0312  0.1598
57981SOL     OW82720  11.327   2.737  11.069 -0.0913 -0.1598 -0.5360
57981SOL    HW182721  11.388   2.681  11.116 -1.7254  0.0773  2.0094
57981SOL    HW282722  11.243   2.692  11.075 -0.9871  1.4703 -0.3851
57982SOL     OW82723   1.704  12.218   2.906 -0.4857  0.0375  0.4073
57982SOL    HW182724   1.627  12.211   2.961  0.4553  2.0951  2.1477
57982SOL    HW282725   1.773  12.250   2.965  1.2106  0.0137 -1.4534
57983SOL     OW82726  12.164  11.513   0.346  0.2804  0.0514  0.3365
57983SOL    HW182727  12.235  11.465   0.303  3.0997  1.1460  3.3298
57983SOL    HW282728  12.100  11.445   0.368  0.7591 -1.1418 -1.7122
57984SOL     OW82729   2.612   6.337   7.358  0.4487  0.6961 -0.0027
57984SOL    HW182730   2.579   6.249   7.340  2.5484  0.2080 -1.9931
57984SOL    HW282731   2.683   6.324   7.421  0.2126  1.0719  0.3450
57985SOL     OW82732   2.694   6.884   6.323 -0.7175  0.0470  0.3457
57985SOL    HW182733   2.662   6.796   6.343  1.5334 -1.1030 -0.7724
57985SOL    HW282734   2.718   6.921   6.408 -2.3001 -0.1147  0.8956
57986SOL     OW82735  10.840   5.341   6.300 -0.0371  0.0435 -0.1632
57986SOL    HW182736  10.845   5.393   6.220 -3.4289  1.6602  0.5233
57986SOL    HW282737  10.882   5.395   6.367 -1.2770  0.8035  0.0265
57987SOL     OW82738  11.667   7.523  11.013 -0.1748  0.1291  0.1040
57987SOL    HW182739  11.635   7.447  10.963 -0.4538  0.2955  0.0288
57987SOL    HW282740  11.645   7.502  11.104 -1.0864  0.5271 -0.0106
57988SOL     OW82741  12.267   1.005   0.586 -0.2927 -0.2885  0.9767
57988SOL    HW182742  12.352   1.017   0.544 -0.4479 -0.4358  0.6215
57988SOL    HW282743  12.207   1.059   0.536 -1.0280 -2.5242 -0.7456
57989SOL     OW82744   7.780  12.176   2.652 -1.0897  0.4842  0.0404
57989SOL    HW182745   7.862  12.224   2.651  0.2849 -1.7248 -1.3585
57989SOL    HW282746   7.800  12.094   2.695 -2.1463 -0.6830 -1.5599
57990SOL     OW82747  11.313  11.308   2.639 -0.3571  0.1890  0.5008
57990SOL    HW182748  11.269  11.231   2.674 -1.3572  0.9512  0.9684
57990SOL    HW282749  11.298  11.376   2.704  0.7230  0.7247  0.2155
57991SOL     OW82750   6.503   3.056   5.299  0.2413  0.0764 -1.3084
57991SOL    HW182751   6.464   3.124   5.354 -0.2752 -0.3035 -1.1953
57991SOL    HW282752   6.496   2.976   5.351  2.0264  0.1477 -0.8940
57992SOL     OW82753   3.503   5.340   7.556  0.9424  0.0668 -0.3041
57992SOL    HW182754   3.408   5.337   7.566  0.9550  1.8519  0.7341
57992SOL    HW282755   3.519   5.402   7.484  1.3248  1.0793  0.6177
57993SOL     OW82756   5.726   2.738   4.313 -0.8495  0.0896 -0.0205
57993SOL    HW182757   5.773   2.805   4.264  0.2345 -1.5554 -1.3589
57993SOL    HW282758   5.792   2.697   4.368 -1.5721  0.3025  1.0510
57994SOL     OW82759   8.615   0.564   3.307  0.4404  0.1140  0.3995
57994SOL    HW182760   8.641   0.553   3.215  2.7336 -0.2294  1.0192
57994SOL    HW282761   8.534   0.615   3.303 -0.4040 -1.2475 -1.8535
57995SOL     OW82762   4.073   4.935  10.826  0.0127 -0.5253  0.2147
57995SOL    HW182763   4.034   4.908  10.743 -0.3383  1.3659 -0.2649
57995SOL    HW282764   4.158   4.891  10.828  0.3616  0.0246 -1.5138
57996SOL     OW82765  10.154   4.714   9.229  0.0762  0.3491 -0.1154
57996SOL    HW182766  10.089   4.710   9.160  0.2278  1.6386 -0.3567
57996SOL    HW282767  10.237   4.731   9.184  0.2258  0.8926  0.3460
57997SOL     OW82768   0.017  11.090   2.357 -0.4390 -0.4093 -0.6043
57997SOL    HW182769   0.069  11.051   2.287  0.6309 -1.4590  0.7055
57997SOL    HW282770  -0.025  11.015   2.400 -0.1385  0.0783  0.5827
57998SOL     OW82771   5.846   4.140   7.576  0.3691 -0.3741  0.2833
57998SOL    HW182772   5.932   4.099   7.592  1.1311  1.3695  0.8571
57998SOL    HW282773   5.811   4.155   7.663 -0.0057 -0.0352  0.0750
57999SOL     OW82774   8.221   3.007   1.701 -0.4120 -0.5831  0.0892
57999SOL    HW182775   8.226   3.045   1.788 -0.1855  1.7862 -0.8693
57999SOL    HW282776   8.140   2.956   1.701 -1.5286  1.1021  1.0774
58000SOL     OW82777   1.164  10.064  12.145 -0.2083  0.0807  0.3886
58000SOL    HW182778   1.216  10.137  12.109  0.3674  0.8569  2.6098
58000SOL    HW282779   1.195   9.987  12.097  1.5631  0.8298  0.2536
58001SOL     OW82780   9.203   4.068   4.303  0.3879  0.5494 -0.2997
58001SOL    HW182781   9.283   4.066   4.252  1.7637 -0.8498  1.7482
58001SOL    HW282782   9.164   3.982   4.290  0.0535  0.6580 -0.0363
58002SOL     OW82783   3.391  10.177   1.250  0.0140 -0.2676 -0.3931
58002SOL    HW182784   3.406  10.237   1.176  1.0621 -2.1609 -1.7952
58002SOL    HW282785   3.320  10.120   1.221 -0.1016 -0.5419  0.4023
58003SOL     OW82786   9.915   3.575   0.279 -0.7965  0.4282  0.3022
58003SOL    HW182787   9.880   3.518   0.348  0.7665  1.3153  1.8898
58003SOL    HW282788  10.007   3.588   0.302 -0.8466  2.7769 -0.5711
58004SOL     OW82789   5.868   7.998  12.081  0.3499  0.0291  0.2726
58004SOL    HW182790   5.931   7.951  12.134  0.3563  1.9800  2.1669
58004SOL    HW282791   5.800   8.026  12.143 -2.5059 -2.0337 -1.6621
58005SOL     OW82792   4.353   0.508   4.358 -0.2074  0.4784 -0.2942
58005SOL    HW182793   4.429   0.451   4.348 -0.8769 -0.7386  1.0752
58005SOL    HW282794   4.323   0.492   4.448 -1.5959  1.5290 -0.5382
58006SOL     OW82795  10.281   3.994   2.544 -0.5166 -0.3435  0.2737
58006SOL    HW182796  10.357   4.043   2.512 -0.8647  0.3608  0.5076
58006SOL    HW282797  10.234   3.968   2.464  0.0890 -0.9850  0.1204
58007SOL     OW82798   1.441  10.705   3.649 -0.0710  0.5556 -0.3801
58007SOL    HW182799   1.379  10.778   3.638 -1.0055 -0.2015 -0.2438
58007SOL    HW282800   1.517  10.730   3.596  1.4423  3.5813  2.7766
58008SOL     OW82801   5.779  11.627  10.591 -0.4547 -0.3585  0.3417
58008SOL    HW182802   5.742  11.707  10.627  0.8934  0.1053  0.7625
58008SOL    HW282803   5.745  11.558  10.648  1.2938  0.3250  2.3680
58009SOL     OW82804   0.520   6.914   1.379  0.2397  0.4986  0.4352
58009SOL    HW182805   0.601   6.892   1.425 -0.4918 -0.1489  1.4541
58009SOL    HW282806   0.544   6.911   1.286  0.8135 -2.2251  0.5821
58010SOL     OW82807   9.761   7.429   1.070  0.0381  0.0493  0.2319
58010SOL    HW182808   9.711   7.364   1.120 -1.2045  1.6012  1.1277
58010SOL    HW282809   9.842   7.441   1.119  0.9587 -1.8024 -0.7193
58011SOL     OW82810   0.505   5.607   0.170  0.2129 -0.3400 -0.1783
58011SOL    HW182811   0.477   5.673   0.234 -0.2237  0.6002 -1.3094
58011SOL    HW282812   0.491   5.524   0.215 -3.0817  0.1139 -0.0661
58012SOL     OW82813   4.129   5.869   7.821  0.3419 -0.3695  0.1044
58012SOL    HW182814   4.130   5.827   7.907 -1.9109  1.3045  1.0514
58012SOL    HW282815   4.053   5.831   7.777  0.8514 -0.4253 -0.7332
58013SOL     OW82816   3.637  11.974   4.716  0.7572  0.3926 -0.5323
58013SOL    HW182817   3.603  11.889   4.742  0.5452 -0.4451 -3.2923
58013SOL    HW282818   3.626  12.029   4.794 -2.0013 -1.2439  0.3579
58014SOL     OW82819   1.882  12.029   8.040  0.1171 -0.2192  0.0720
58014SOL    HW182820   1.924  12.105   8.080 -0.4952  0.9626 -1.4338
58014SOL    HW282821   1.878  11.965   8.111 -0.5166  1.5871  1.7910
58015SOL     OW82822   6.174   7.363   9.592  0.0752  0.3220  0.4590
58015SOL    HW182823   6.214   7.449   9.610  2.3495 -0.4727 -0.5142
58015SOL    HW282824   6.202   7.308   9.665  2.1857 -0.6457 -0.9799
58016SOL     OW82825   6.405   0.290   7.948 -0.3213 -0.0418  0.1771
58016SOL    HW182826   6.328   0.347   7.953 -1.2104 -1.2022  0.1119
58016SOL    HW282827   6.413   0.268   7.856 -0.7128 -0.9617  0.3508
58017SOL     OW82828   0.886   5.569   1.787 -0.1535  0.3284 -0.1966
58017SOL    HW182829   0.856   5.556   1.697 -2.4924 -0.5659  0.6121
58017SOL    HW282830   0.813   5.614   1.830  0.4825 -0.1394  1.4671
58018SOL     OW82831   7.617   6.072   7.116  0.1675 -0.2379 -0.5501
58018SOL    HW182832   7.684   6.088   7.050  1.5746  0.3356  0.9500
58018SOL    HW282833   7.634   5.983   7.148  1.4211  0.5342  1.0835
58019SOL     OW82834   6.517  12.292  10.970 -0.3284  0.3110  0.3715
58019SOL    HW182835   6.595  12.340  10.942 -0.6762  0.2925 -0.6581
58019SOL    HW282836   6.459  12.292  10.894  0.1561 -2.8296 -0.1479
58020SOL     OW82837  12.335   2.748   6.274 -0.0489  0.7650  0.2745
58020SOL    HW182838  12.295   2.818   6.223  0.1731  0.6946  0.0049
58020SOL    HW282839  12.260   2.697   6.307 -0.1698  0.3411 -0.6389
58021SOL     OW82840   5.799   7.886   3.985  0.5853  0.1789 -0.0903
58021SOL    HW182841   5.742   7.823   3.940  1.1724  0.9547 -2.0136
58021SOL    HW282842   5.744   7.923   4.054 -0.4817 -0.7755 -0.3897
58022SOL     OW82843   7.938  10.365   1.120  0.4522 -0.9213 -0.3103
58022SOL    HW182844   8.008  10.301   1.108 -0.6355 -2.1353 -0.3428
58022SOL    HW282845   7.983  10.446   1.142  1.7710 -2.2664  2.3582
58023SOL     OW82846   4.947   0.444   2.774  0.0940  0.7495  0.3011
58023SOL    HW182847   4.903   0.372   2.729  1.9810 -0.9320  0.9485
58023SOL    HW282848   4.985   0.403   2.852 -0.9572  3.0304  2.1312
58024SOL     OW82849  11.316  11.299   4.804  0.0744  0.4875 -0.0947
58024SOL    HW182850  11.314  11.394   4.790  2.8695  0.9740  1.9567
58024SOL    HW282851  11.403  11.272   4.772 -0.1614 -1.1571  0.5625
58025SOL     OW82852   8.920   9.347   0.988  0.3449  0.5018  0.4102
58025SOL    HW182853   8.830   9.337   0.957  0.1011 -1.2977  1.5572
58025SOL    HW282854   8.914   9.405   1.063  0.3412  1.4294 -0.2944
58026SOL     OW82855   5.079   9.062   1.751 -0.2926  0.3910 -0.0325
58026SOL    HW182856   5.169   9.095   1.753 -0.1625  0.0351 -0.0932
58026SOL    HW282857   5.035   9.117   1.686  0.0139  0.2251 -0.3862
58027SOL     OW82858   0.422   7.396   2.884 -0.4374 -0.1476  0.2584
58027SOL    HW182859   0.330   7.370   2.889  0.0295 -1.9237  0.1674
58027SOL    HW282860   0.449   7.405   2.975 -1.2018  2.4614  0.3059
58028SOL     OW82861   7.877   3.825  11.964 -0.5891 -0.3025 -0.1480
58028SOL    HW182862   7.790   3.834  12.002 -0.0344  0.5029  0.9996
58028SOL    HW282863   7.894   3.910  11.923 -0.3029 -0.4185 -0.2726
58029SOL     OW82864   2.612   0.654   0.261  0.3275  0.0116  0.1626
58029SOL    HW182865   2.621   0.676   0.168 -1.0902 -1.5459 -0.3876
58029SOL    HW282866   2.679   0.707   0.305  1.1682  0.6212 -1.7573
58030SOL     OW82867   8.943   6.795   9.806 -0.3423 -0.0083 -0.7148
58030SOL    HW182868   8.864   6.740   9.811 -0.8381  0.5890 -1.8395
58030SOL    HW282869   8.925   6.867   9.866  0.5647 -1.3197  1.2559
58031SOL     OW82870   3.392   3.173   2.332  0.3917 -0.4209 -0.6629
58031SOL    HW182871   3.411   3.135   2.417 -0.0590  0.5342 -0.1205
58031SOL    HW282872   3.311   3.130   2.304 -0.2578  0.2987  0.0646
58032SOL     OW82873   4.602   8.822   3.914 -0.2513 -0.1607 -0.3611
58032SOL    HW182874   4.577   8.821   4.006 -0.1222 -0.0618 -0.3250
58032SOL    HW282875   4.632   8.733   3.896  1.1738  0.2136  0.0918
58033SOL     OW82876   6.934   1.750   6.798  0.3336  0.0143  0.7831
58033SOL    HW182877   7.019   1.732   6.839  0.4894 -1.4205 -0.0995
58033SOL    HW282878   6.952   1.747   6.704 -0.6222  0.1128  0.5875
58034SOL     OW82879   2.106   4.124   5.190  0.4281 -0.7269 -0.1552
58034SOL    HW182880   2.155   4.176   5.254  0.3644 -0.4874 -0.2966
58034SOL    HW282881   2.124   4.033   5.213  0.8692 -0.6394 -0.1549
58035SOL     OW82882  10.269  12.595   0.950 -0.1232 -0.1132  0.1252
58035SOL    HW182883  10.232  12.549   1.025  0.8562 -1.1220  0.0057
58035SOL    HW282884  10.364  12.586   0.961  0.0699  1.0873 -0.3957
58036SOL     OW82885   2.594   8.250   2.910 -0.4920 -0.3928 -0.8390
58036SOL    HW182886   2.528   8.208   2.966 -1.0126  2.5327  0.9584
58036SOL    HW282887   2.672   8.197   2.922 -1.5291 -1.8235 -0.0729
58037SOL     OW82888   8.267   4.406   1.534 -0.1398  0.7293  0.1299
58037SOL    HW182889   8.309   4.482   1.574  1.5025 -0.6087  1.1039
58037SOL    HW282890   8.339   4.357   1.494 -1.3044  0.2531 -1.4957
58038SOL     OW82891   9.109   9.657   3.266  0.0438  0.0067  0.0706
58038SOL    HW182892   9.121   9.611   3.183 -0.0608  1.2361 -0.6442
58038SOL    HW282893   9.137   9.747   3.249 -0.2187  0.3480  1.3000
58039SOL     OW82894  12.208   3.377  12.308  0.1485  0.0550  0.0966
58039SOL    HW182895  12.130   3.322  12.308 -0.2986  0.6804 -0.7417
58039SOL    HW282896  12.275   3.324  12.352 -0.0614 -1.4550 -1.3218
58040SOL     OW82897   9.610   1.121   8.328  0.2580  0.3547 -0.2439
58040SOL    HW182898   9.671   1.192   8.308  0.7879  0.3893  1.3909
58040SOL    HW282899   9.560   1.151   8.403  0.9688 -1.2357  0.9233
58041SOL     OW82900   2.340   7.881   6.707  0.0446 -0.1587  0.4849
58041SOL    HW182901   2.343   7.827   6.628  1.4565  0.3182  0.1765
58041SOL    HW282902   2.313   7.821   6.776  1.9399 -1.3981  0.2238
58042SOL     OW82903   9.167   6.870   0.252 -0.2821  0.0576 -0.2958
58042SOL    HW182904   9.252   6.828   0.270 -0.1381 -0.1352 -1.3627
58042SOL    HW282905   9.187   6.963   0.248 -0.8691  0.5400  3.7183
58043SOL     OW82906  11.124   9.219  12.209  0.4526 -0.1430  0.4880
58043SOL    HW182907  11.040   9.258  12.186  0.4577 -0.9260 -1.0367
58043SOL    HW282908  11.177   9.292  12.240 -0.3581  0.5962  0.1779
58044SOL     OW82909   1.227  12.086   0.725 -0.2867  0.2893  0.2729
58044SOL    HW182910   1.208  12.173   0.760  0.5944  0.4216  0.4458
58044SOL    HW282911   1.322  12.077   0.734 -0.4206 -0.8708  0.6849
58045SOL     OW82912   3.517   5.033   9.789  0.1761  0.1258 -0.2783
58045SOL    HW182913   3.534   5.128   9.787  2.8558 -0.2771 -0.3909
58045SOL    HW282914   3.552   5.005   9.874 -0.6519 -0.7745 -0.2225
58046SOL     OW82915   6.125  12.368   4.474 -0.1248 -0.1366 -0.1806
58046SOL    HW182916   6.085  12.417   4.546  2.1421  1.2375  0.2472
58046SOL    HW282917   6.096  12.278   4.488 -2.7973  0.6992  0.1716
58047SOL     OW82918   9.878  11.567   3.728  0.3348  0.3438  0.1107
58047SOL    HW182919   9.953  11.510   3.744  1.2097  0.9522 -1.6315
58047SOL    HW282920   9.802  11.508   3.736  1.1794 -0.9939 -1.1362
58048SOL     OW82921   4.061   0.655   1.512  0.2367  0.0492  0.6451
58048SOL    HW182922   4.011   0.666   1.431 -0.5378  0.9725  1.2229
58048SOL    HW282923   4.151   0.641   1.484 -0.1704 -0.6200 -0.3951
58049SOL     OW82924   6.894   5.727   8.163 -0.0966  0.6679  0.2569
58049SOL    HW182925   6.922   5.782   8.236  2.4967  0.6857 -0.6384
58049SOL    HW282926   6.955   5.653   8.163 -1.2703 -0.3590 -0.7245
58050SOL     OW82927   9.647   1.955  11.810 -0.0258  0.7236  0.4616
58050SOL    HW182928   9.611   1.916  11.890  0.7047  0.3999  0.6327
58050SOL    HW282929   9.580   2.019  11.783 -0.3906  0.6610  1.1905
58051SOL     OW82930  10.409   6.466   6.284 -0.5003 -0.0327  0.3505
58051SOL    HW182931  10.416   6.472   6.189 -1.3660 -0.8376  0.2159
58051SOL    HW282932  10.488   6.508   6.317 -0.7609  1.3536 -0.6891
58052SOL     OW82933  11.496   3.430  11.221  0.3710 -0.6495 -0.0196
58052SOL    HW182934  11.430   3.375  11.263 -0.1019 -0.4070 -0.4325
58052SOL    HW282935  11.532   3.376  11.151  0.0357 -0.5073 -0.3075
58053SOL     OW82936   4.869   4.193   1.562  0.5263  0.0676  0.2105
58053SOL    HW182937   4.876   4.275   1.514  0.7043  0.6801  1.2581
58053SOL    HW282938   4.812   4.138   1.507  1.2238  0.5088 -0.9919
58054SOL     OW82939   9.886   1.408   5.381 -0.2481 -0.8744 -0.6426
58054SOL    HW182940   9.970   1.453   5.389 -1.1698  1.0141 -0.9276
58054SOL    HW282941   9.888   1.368   5.295 -0.4695  1.1331 -1.6486
58055SOL     OW82942  10.543   3.339   6.849  0.1369 -0.0566  0.1468
58055SOL    HW182943  10.498   3.323   6.932  0.6452  0.6649  0.5758
58055SOL    HW282944  10.619   3.392   6.873  0.3593  0.0537 -0.7652
58056SOL     OW82945   1.741   0.241   4.295 -0.2712 -0.3322 -0.4353
58056SOL    HW182946   1.797   0.214   4.367 -1.9345 -1.5001  0.4731
58056SOL    HW282947   1.711   0.329   4.320 -0.5026 -0.5596  0.0997
58057SOL     OW82948   3.728   3.462   2.903  0.6299  0.0482 -0.1284
58057SOL    HW182949   3.812   3.493   2.869 -0.2995  1.8443 -0.9286
58057SOL    HW282950   3.670   3.463   2.827 -0.5425  0.5561  0.7418
58058SOL     OW82951   3.557   1.107   2.553  0.6206  0.3418 -0.4908
58058SOL    HW182952   3.623   1.160   2.598  1.4940  1.6193 -3.1109
58058SOL    HW282953   3.495   1.170   2.516  0.3223 -0.5892 -1.6616
58059SOL     OW82954   9.412   2.684   8.743 -0.3958  0.0907 -0.6288
58059SOL    HW182955   9.504   2.661   8.756  0.2946  2.6492 -0.5364
58059SOL    HW282956   9.396   2.667   8.650 -0.1347 -1.1811 -0.4683
58060SOL     OW82957  12.541   9.822   8.680 -0.0069 -0.2887 -0.4298
58060SOL    HW182958  12.473   9.762   8.711 -1.3073  0.6714 -1.2894
58060SOL    HW282959  12.499   9.908   8.680  1.5899  0.5413  0.1072
58061SOL     OW82960   2.234   2.463   3.627 -0.7660 -0.2279  0.1564
58061SOL    HW182961   2.209   2.389   3.572 -0.5763 -1.7121  1.9742
58061SOL    HW282962   2.151   2.495   3.663 -0.6682 -1.0599  1.1666
58062SOL     OW82963   4.496   5.882  11.825  0.4385 -0.1974 -0.0723
58062SOL    HW182964   4.409   5.922  11.838  0.5761 -0.2923  1.2649
58062SOL    HW282965   4.551   5.954  11.794 -0.1797 -0.2110 -1.2605
58063SOL     OW82966   2.898  12.323   2.870 -0.0471  0.0624  0.0785
58063SOL    HW182967   2.817  12.373   2.857  0.5255  0.7557 -0.9445
58063SOL    HW282968   2.904  12.268   2.792  1.1103  0.9536 -0.4904
58064SOL     OW82969   7.162   7.220   1.128 -0.0181 -0.0150 -0.1228
58064SOL    HW182970   7.231   7.278   1.097  1.7046 -1.0620  1.5270
58064SOL    HW282971   7.139   7.253   1.214 -0.2040 -0.7676  0.1288
58065SOL     OW82972   4.438   2.932   6.552 -0.8307  0.4651 -0.4217
58065SOL    HW182973   4.454   2.961   6.642 -0.3172 -1.2541  0.0761
58065SOL    HW282974   4.375   2.995   6.517  0.7880  2.6208  0.3115
58066SOL     OW82975   3.142   6.248   1.937  0.3729  0.2107  0.1587
58066SOL    HW182976   3.201   6.215   1.869 -0.9927  0.1411 -1.0556
58066SOL    HW282977   3.128   6.339   1.914  0.8904  0.5375  1.1050
58067SOL     OW82978   7.035   2.888   6.526 -0.3427 -0.2924 -0.1524
58067SOL    HW182979   6.985   2.836   6.463 -1.0418  0.0856  0.0845
58067SOL    HW282980   6.969   2.923   6.586  0.1668  0.4728 -0.0228
58068SOL     OW82981   3.679   9.310   8.155 -0.4548  0.0089  0.8024
58068SOL    HW182982   3.700   9.224   8.191 -1.9350 -1.0555 -0.7206
58068SOL    HW282983   3.763   9.356   8.151  0.5793 -1.8302  0.4938
58069SOL     OW82984   6.729   1.631   6.115 -0.2371 -0.0947 -0.4683
58069SOL    HW182985   6.784   1.558   6.142  0.3415  0.3935 -0.2982
58069SOL    HW282986   6.713   1.617   6.022  0.3147 -0.1580 -0.5562
58070SOL     OW82987  11.070   4.907   2.572 -0.0937  0.2044  0.6850
58070SOL    HW182988  11.017   4.839   2.613  1.4211 -1.6292 -0.2737
58070SOL    HW282989  11.026   4.924   2.489  0.5982 -1.0671  0.0407
58071SOL     OW82990   7.308   8.418  12.347 -0.1174  0.2810 -0.6516
58071SOL    HW182991   7.354   8.398  12.429  2.1398  0.3782 -1.8098
58071SOL    HW282992   7.328   8.510  12.330 -2.3582  0.8914 -0.2894
58072SOL     OW82993   9.281   9.518  11.889  0.3354  0.2129  0.2795
58072SOL    HW182994   9.311   9.432  11.917 -0.9753  0.4554  2.6441
58072SOL    HW282995   9.304   9.522  11.796  2.8414 -1.5922  0.7176
58073SOL     OW82996   3.358   2.748   6.875  0.2489  0.2063 -0.1812
58073SOL    HW182997   3.357   2.781   6.785 -2.5045 -0.2526 -0.4061
58073SOL    HW282998   3.268   2.721   6.891  0.7059  0.1388  2.6944
58074SOL     OW82999   2.932   2.022  10.523  0.0823  0.2652  0.3054
58074SOL    HW183000   2.894   2.058  10.603  0.8387  2.1093 -0.1093
58074SOL    HW283001   2.857   1.993  10.471 -0.5580  0.9812  0.8097
58075SOL     OW83002   7.350   4.209   9.155 -0.2494  0.0592  0.2813
58075SOL    HW183003   7.320   4.242   9.070 -0.6590 -0.4828  0.2109
58075SOL    HW283004   7.432   4.163   9.135 -1.0241 -1.2078 -0.0400
58076SOL     OW83005   5.226   7.894   8.508 -0.7172  0.1398  0.4077
58076SOL    HW183006   5.283   7.963   8.471  0.6808 -1.4682 -0.6220
58076SOL    HW283007   5.235   7.903   8.602  2.4403 -0.8584  0.3210
58077SOL     OW83008   0.622   6.961   3.909 -0.2564 -0.7299 -0.3145
58077SOL    HW183009   0.628   6.890   3.846  1.5755 -0.1195 -0.8776
58077SOL    HW283010   0.611   6.917   3.994 -1.8047 -1.5690 -0.9047
58078SOL     OW83011   5.973   0.994  11.795 -0.1236 -0.1416 -0.4598
58078SOL    HW183012   5.919   1.040  11.859 -0.4799 -0.3581 -0.5963
58078SOL    HW283013   5.979   1.055  11.721 -1.0179 -0.5009 -0.8458
58079SOL     OW83014  12.546   2.272  12.088  0.2057  0.8311  0.2092
58079SOL    HW183015  12.585   2.332  12.152 -2.5451  1.9460  0.9736
58079SOL    HW283016  12.496   2.210  12.141  0.3838 -0.1693 -0.7596
58080SOL     OW83017   4.872   7.344   4.476  0.0893  0.4569  0.2746
58080SOL    HW183018   4.818   7.422   4.481  0.6830  1.0427 -1.5581
58080SOL    HW283019   4.810   7.271   4.474 -0.5734  1.0206 -0.1392
58081SOL     OW83020   6.242   5.241   0.917 -0.2087  0.0875 -0.1088
58081SOL    HW183021   6.208   5.320   0.959  1.6087  0.2976  1.0984
58081SOL    HW283022   6.302   5.274   0.850  0.5640 -0.2242  0.4071
58082SOL     OW83023   6.144  10.281   7.477 -0.5779  0.7228  0.4179
58082SOL    HW183024   6.231  10.322   7.474  0.1005 -0.6782 -1.8126
58082SOL    HW283025   6.083  10.354   7.480  0.6450  1.7628  1.5920
58083SOL     OW83026   3.652  12.547   1.123  0.5329  0.1675  0.1754
58083SOL    HW183027   3.571  12.535   1.072  0.0098  2.4414  0.3650
58083SOL    HW283028   3.717  12.571   1.057  0.3013  1.3001  0.3464
58084SOL     OW83029   8.669   8.608   4.288  0.4304  0.8642 -0.0361
58084SOL    HW183030   8.719   8.659   4.224  1.9030  0.4905  0.7597
58084SOL    HW283031   8.714   8.523   4.291 -0.3859  0.4405  0.5708
58085SOL     OW83032   7.510   7.637  12.403 -0.6962 -0.3055 -0.1518
58085SOL    HW183033   7.478   7.547  12.413  0.2734 -0.5016  1.5074
58085SOL    HW283034   7.472   7.666  12.320 -0.0422 -2.6397 -1.3606
58086SOL     OW83035   4.474   8.113  10.257 -0.3468 -0.5103 -0.4176
58086SOL    HW183036   4.389   8.073  10.277  0.0442 -1.1879 -0.0727
58086SOL    HW283037   4.503   8.151  10.340 -0.8637  0.8224 -0.8123
58087SOL     OW83038   5.171  11.284   8.208 -0.1536 -0.3132  0.5186
58087SOL    HW183039   5.223  11.249   8.136 -0.1880 -0.4353  0.5515
58087SOL    HW283040   5.191  11.377   8.211 -0.7463 -0.1553 -0.1536
58088SOL     OW83041   7.155   2.040   3.995 -0.3407 -0.5283 -0.4382
58088SOL    HW183042   7.131   2.131   3.976 -0.2391  0.4078  3.1964
58088SOL    HW283043   7.072   1.993   3.999 -0.4272 -0.5343 -1.8923
58089SOL     OW83044  11.673  12.539   3.233 -0.2113  0.3232 -0.1277
58089SOL    HW183045  11.758  12.563   3.195  0.3349 -1.9088 -0.4620
58089SOL    HW283046  11.696  12.486   3.309 -1.3148 -0.1433 -0.1062
58090SOL     OW83047   6.729  11.626   6.430 -0.1782  0.5457 -0.5622
58090SOL    HW183048   6.722  11.721   6.422 -1.8291  0.4428 -0.5837
58090SOL    HW283049   6.643  11.593   6.407  0.3234 -0.9668 -0.4112
58091SOL     OW83050   6.302  11.603  11.842 -0.0638 -0.1709 -0.0972
58091SOL    HW183051   6.207  11.598  11.835 -0.1570 -0.1623  0.9718
58091SOL    HW283052   6.321  11.697  11.836 -0.2600 -0.0437  0.9977
58092SOL     OW83053   5.252   2.907   2.082  0.3726  0.3909 -0.3595
58092SOL    HW183054   5.255   2.817   2.052  1.9070  0.5362 -0.7203
58092SOL    HW283055   5.238   2.901   2.176 -1.2482 -0.1560 -0.6079
58093SOL     OW83056  10.341   9.642  10.271  0.2981  0.3555  0.3731
58093SOL    HW183057  10.415   9.590  10.302 -0.1431 -0.3141  0.3186
58093SOL    HW283058  10.322   9.608  10.183 -0.8075 -0.2872  0.8349
58094SOL     OW83059   3.586   6.724   9.387 -0.5098 -0.3204 -0.0467
58094SOL    HW183060   3.676   6.693   9.388 -0.3221  0.1638 -0.9717
58094SOL    HW283061   3.534   6.645   9.403 -0.0142 -1.0493 -1.7549
58095SOL     OW83062   5.627   2.129   8.289  0.5844 -0.5161 -0.2170
58095SOL    HW183063   5.590   2.124   8.377 -0.8138 -0.0816 -0.7553
58095SOL    HW283064   5.658   2.040   8.271  2.2191 -0.2969  1.2373
58096SOL     OW83065  12.505   6.408   2.966  0.1304  0.6419  0.7544
58096SOL    HW183066  12.446   6.480   2.941 -0.4291  0.7106  2.1451
58096SOL    HW283067  12.502   6.348   2.892 -0.0245  1.6613 -0.1015
58097SOL     OW83068  11.405   7.020  10.080  0.0419  0.2400  0.2309
58097SOL    HW183069  11.384   7.075  10.156  1.6931 -0.0811  0.9436
58097SOL    HW283070  11.482   7.061  10.040 -0.6173  0.2346 -1.1310
58098SOL     OW83071   6.199  10.246  12.374 -0.1401 -0.0834 -1.0222
58098SOL    HW183072   6.235  10.246  12.463 -2.1692 -2.2280 -0.0973
58098SOL    HW283073   6.246  10.317  12.330  1.3068  0.7386  1.5796
58099SOL     OW83074   2.576   9.972   9.855  0.3470 -0.0934  0.1513
58099SOL    HW183075   2.630   9.936   9.783 -0.6357  0.7361 -1.0432
58099SOL    HW283076   2.634  10.034   9.899  0.5921  0.3332 -0.7327
58100SOL     OW83077   1.582  12.472   4.763  0.4175  0.2923  0.0383
58100SOL    HW183078   1.568  12.557   4.721 -2.8360 -0.0810  0.0990
58100SOL    HW283079   1.595  12.411   4.690  0.0927  0.4429 -0.1479
58101SOL     OW83080   1.969   7.261   5.878 -0.0525 -0.1721  0.4537
58101SOL    HW183081   1.874   7.266   5.881  0.0205  1.3901  0.8075
58101SOL    HW283082   1.993   7.213   5.957 -0.5349 -0.6165  0.3353
58102SOL     OW83083   5.645   9.673   6.195 -0.8271 -0.0994 -0.0139
58102SOL    HW183084   5.625   9.647   6.105  0.1446 -0.7079 -0.0746
58102SOL    HW283085   5.631   9.768   6.196  0.0550  0.0649 -1.0666
58103SOL     OW83086   2.249   9.251   4.835 -0.1176  0.7811  0.3987
58103SOL    HW183087   2.179   9.296   4.881 -0.0563  1.5336 -0.2242
58103SOL    HW283088   2.309   9.223   4.905 -0.9664  0.2214  0.9226
58104SOL     OW83089   0.586   5.754   3.176  0.0681  0.0774 -0.0496
58104SOL    HW183090   0.502   5.717   3.149  0.4617  0.1253 -1.3846
58104SOL    HW283091   0.636   5.678   3.207  0.7923 -0.5910 -2.5731
58105SOL     OW83092   2.107   6.370   8.880 -0.2158 -0.1575  0.1098
58105SOL    HW183093   2.160   6.333   8.950 -1.4267 -0.7977  0.7197
58105SOL    HW283094   2.049   6.299   8.853  1.3732 -0.4914 -2.7908
58106SOL     OW83095   5.253   8.783   2.534 -0.1163 -0.2228  0.4073
58106SOL    HW183096   5.165   8.816   2.517  0.3026  1.0162  0.5139
58106SOL    HW283097   5.309   8.832   2.473  0.8468  1.1236  2.2655
58107SOL     OW83098   3.606   2.969   4.261 -0.1949  0.2130  0.4418
58107SOL    HW183099   3.670   3.021   4.311 -1.0022  2.2961 -0.5640
58107SOL    HW283100   3.547   2.934   4.327 -0.6649  2.1002  1.0874
58108SOL     OW83101  11.233   5.069   5.808  0.0058  0.0793 -0.0417
58108SOL    HW183102  11.296   5.016   5.760 -0.1447  0.4525 -0.6720
58108SOL    HW283103  11.219   5.146   5.751  0.4228  0.9195  0.9566
58109SOL     OW83104   7.348  12.129   2.649  0.3415 -0.2518  0.0638
58109SOL    HW183105   7.336  12.176   2.567 -1.3007 -0.9817 -0.1613
58109SOL    HW283106   7.428  12.166   2.687  1.9328 -0.8501 -2.4765
58110SOL     OW83107   6.962   4.210   1.386 -0.4794  1.0611 -0.1073
58110SOL    HW183108   6.976   4.300   1.417 -0.8120  0.6747  1.2292
58110SOL    HW283109   6.876   4.214   1.343 -1.5922  0.9364  1.9638
58111SOL     OW83110   0.724   7.791  11.247  0.6350  0.0421  0.4126
58111SOL    HW183111   0.721   7.697  11.230 -0.9930 -0.0379  0.9732
58111SOL    HW283112   0.642   7.825  11.210  0.5981  1.0364  1.3409
58112SOL     OW83113  10.997   3.278   8.794  0.2119 -0.5284  0.1845
58112SOL    HW183114  10.999   3.250   8.702  1.0224 -1.9721  0.6130
58112SOL    HW283115  10.941   3.214   8.837  1.1119 -0.8070  0.9712
58113SOL     OW83116   3.121   7.939   4.491  0.9832 -0.0994 -0.1140
58113SOL    HW183117   3.152   7.925   4.402 -0.1017 -0.3646 -0.4614
58113SOL    HW283118   3.044   7.994   4.481  0.1871 -1.0672  0.5590
58114SOL     OW83119   3.786  10.819   5.724 -0.7186 -0.0894 -0.8342
58114SOL    HW183120   3.790  10.752   5.656 -1.6425  0.1117 -1.1075
58114SOL    HW283121   3.694  10.820   5.750 -0.2508 -0.6762  0.9541
58115SOL     OW83122   2.514   3.485   4.707 -0.3983  0.8047  0.6616
58115SOL    HW183123   2.454   3.494   4.633 -1.1289  1.4759  1.3180
58115SOL    HW283124   2.559   3.402   4.691 -0.8302  0.7426 -0.3224
58116SOL     OW83125   1.724   2.470   4.915 -0.2817 -0.0427  0.5440
58116SOL    HW183126   1.769   2.508   4.990 -1.5419  1.0755  0.7756
58116SOL    HW283127   1.694   2.384   4.946  2.8267 -1.4755 -0.0737
58117SOL     OW83128   5.561  10.806   7.995 -0.8216  0.3832 -0.0636
58117SOL    HW183129   5.515  10.844   7.920 -0.5630  0.8088 -0.0130
58117SOL    HW283130   5.648  10.783   7.962 -0.2447  1.7499  0.3846
58118SOL     OW83131   3.511   3.950   2.360  0.3961  0.5839  0.8247
58118SOL    HW183132   3.443   3.895   2.323  1.3989  0.6879 -1.3557
58118SOL    HW283133   3.526   3.915   2.448  0.9762 -2.6626 -0.4198
58119SOL     OW83134  12.446   3.122   0.906 -0.0009  0.0712  0.2632
58119SOL    HW183135  12.537   3.134   0.877 -0.2969 -0.3462 -0.8772
58119SOL    HW283136  12.400   3.199   0.873 -0.2625 -0.2269 -0.0870
58120SOL     OW83137   3.659   7.775   2.028 -0.5708  0.5342 -0.2163
58120SOL    HW183138   3.568   7.780   1.999 -1.0496  0.4098  1.1528
58120SOL    HW283139   3.663   7.693   2.078 -0.5610  2.0087  2.3614
58121SOL     OW83140   3.751   0.113   3.208  0.5088  0.0014  0.1257
58121SOL    HW183141   3.687   0.152   3.268 -0.0461 -0.3586 -0.2288
58121SOL    HW283142   3.836   0.136   3.246  0.2422  2.2821 -0.4970
58122SOL     OW83143   4.231   1.094   9.795 -0.6212  0.3952  0.3342
58122SOL    HW183144   4.264   1.030   9.859  0.2878  2.0248  1.5665
58122SOL    HW283145   4.142   1.065   9.776 -0.5609 -0.7089  1.5884
58123SOL     OW83146   3.675   7.009   1.695 -0.2006 -0.4166  0.0571
58123SOL    HW183147   3.759   7.054   1.700  0.9674 -2.5054  0.7075
58123SOL    HW283148   3.697   6.916   1.697 -2.5584 -1.0551  0.9665
58124SOL     OW83149   1.937   6.867   9.636  0.2208 -0.5127  0.3137
58124SOL    HW183150   2.007   6.802   9.640 -0.3349 -1.1146  0.3688
58124SOL    HW283151   1.879   6.835   9.567 -0.9871 -1.0210  1.5219
58125SOL     OW83152   6.773   5.746   6.280 -0.2354  0.2576 -0.2081
58125SOL    HW183153   6.801   5.675   6.338 -1.3828  1.0231  1.3807
58125SOL    HW283154   6.773   5.707   6.193 -1.0411 -1.7936  0.6297
58126SOL     OW83155   9.244   6.265   5.447  0.3569 -0.0691  0.5192
58126SOL    HW183156   9.202   6.351   5.448 -1.2322 -0.8056  2.2492
58126SOL    HW283157   9.325   6.277   5.496  1.0630  0.8078 -0.7858
58127SOL     OW83158   9.248  12.250   4.216  0.6283  0.2598 -0.4265
58127SOL    HW183159   9.215  12.223   4.130 -2.3428  2.3319 -0.1033
58127SOL    HW283160   9.201  12.195   4.278  1.0651  0.3036 -0.0574
58128SOL     OW83161   9.601   1.529   0.601  0.1048 -0.3519 -0.1170
58128SOL    HW183162   9.674   1.538   0.539 -0.8751 -0.8229 -1.3780
58128SOL    HW283163   9.526   1.565   0.555 -0.8717 -1.6877  0.3729
58129SOL     OW83164   0.620  12.506   8.881 -0.5945  0.0025  0.0480
58129SOL    HW183165   0.539  12.513   8.830 -0.2365  0.9010 -0.4113
58129SOL    HW283166   0.687  12.544   8.825 -0.1237  0.6578  1.0307
58130SOL     OW83167  11.642   2.573   5.131 -0.5803 -0.0205  0.6082
58130SOL    HW183168  11.608   2.580   5.221  0.2064  1.4741  0.8192
58130SOL    HW283169  11.566   2.546   5.079 -1.8242  2.0130  1.2609
58131SOL     OW83170  10.450   0.440   6.918  0.2966  0.7334 -0.6256
58131SOL    HW183171  10.400   0.381   6.862 -0.5059  1.1888 -0.4048
58131SOL    HW283172  10.386   0.475   6.980  0.7309  1.8698 -0.7825
58132SOL     OW83173   9.350   5.066   3.107  0.2392  0.3640 -0.2685
58132SOL    HW183174   9.427   5.085   3.054 -0.5187  0.9719 -1.1739
58132SOL    HW283175   9.321   4.980   3.077 -0.2257  0.7360 -0.8788
58133SOL     OW83176  10.620  10.489   5.448 -0.3350  0.4446 -0.1632
58133SOL    HW183177  10.586  10.400   5.446  0.1449  0.2513  0.1914
58133SOL    HW283178  10.681  10.491   5.522 -1.3588  1.4437  0.6963
58134SOL     OW83179   4.346  11.936  11.102 -0.9534 -0.2883  0.2146
58134SOL    HW183180   4.350  12.032  11.107  1.2975 -0.2399 -1.2507
58134SOL    HW283181   4.306  11.918  11.016 -1.7099 -0.6930  0.6378
58135SOL     OW83182   7.438   5.566   1.524  0.0896 -0.4910  0.1484
58135SOL    HW183183   7.448   5.607   1.610 -0.9501  0.5790 -0.2086
58135SOL    HW283184   7.468   5.476   1.537  2.3611  0.3000  1.0022
58136SOL     OW83185   0.844   5.909  11.574  0.2917 -0.0596  0.0966
58136SOL    HW183186   0.790   5.985  11.595 -0.0840 -0.8143  2.0527
58136SOL    HW283187   0.793   5.861  11.509 -1.5229 -0.7905  1.9335
58137SOL     OW83188   7.584   5.491   8.061  0.5912  0.8021 -0.2865
58137SOL    HW183189   7.490   5.481   8.076  0.1773  2.0014 -1.8273
58137SOL    HW283190   7.590   5.524   7.972  2.5078  0.4721 -0.3070
58138SOL     OW83191   5.087  10.253   0.584 -0.5312  0.5612  0.2366
58138SOL    HW183192   5.123  10.273   0.498 -0.2595  0.9302  0.4330
58138SOL    HW283193   5.125  10.168   0.606 -0.0420  0.7863  0.2889
58139SOL     OW83194   2.674  11.399   8.503  0.7576  0.4968 -0.6406
58139SOL    HW183195   2.735  11.405   8.576  1.4485  0.4897 -1.2046
58139SOL    HW283196   2.684  11.310   8.470 -0.8525 -0.0955  0.3390
58140SOL     OW83197   6.611   2.141   5.106  0.3557  0.1777  0.1115
58140SOL    HW183198   6.570   2.106   5.027  1.9548 -1.2049 -0.1774
58140SOL    HW283199   6.705   2.133   5.089  0.7454  1.0242  1.6739
58141SOL     OW83200  11.299   6.631   8.115 -0.0245 -0.2791  0.3969
58141SOL    HW183201  11.375   6.657   8.063  0.1167 -0.4842  0.4961
58141SOL    HW283202  11.225   6.678   8.077  0.4966  1.6893  1.6815
58142SOL     OW83203   5.753   5.107  10.731  0.0428  0.1879 -0.0875
58142SOL    HW183204   5.790   5.020  10.721 -0.6496 -0.0216 -0.9881
58142SOL    HW283205   5.659   5.095  10.716 -0.4797  0.6572  2.3763
58143SOL     OW83206   3.129  12.336   5.142  0.1614  0.0886 -0.6085
58143SOL    HW183207   3.174  12.395   5.202  0.4848 -0.1826 -0.5827
58143SOL    HW283208   3.109  12.391   5.066  0.8092  0.1372 -0.7469
58144SOL     OW83209  12.294   9.686   5.792 -0.2233 -0.5547 -0.6964
58144SOL    HW183210  12.211   9.714   5.755  0.4439  0.9857 -1.1002
58144SOL    HW283211  12.347   9.765   5.796  1.4842 -1.6130 -1.1341
58145SOL     OW83212   0.763   4.220   0.468 -0.3768  0.4184 -0.3824
58145SOL    HW183213   0.700   4.289   0.486 -1.7383 -1.0285  0.5815
58145SOL    HW283214   0.711   4.145   0.441  0.8599 -0.9891  0.9368
58146SOL     OW83215   8.499   4.227   7.092  0.2216  0.5822  0.2538
58146SOL    HW183216   8.439   4.301   7.086 -0.1792  0.1515 -2.0958
58146SOL    HW283217   8.586   4.265   7.084 -0.0180  0.7895 -1.9168
58147SOL     OW83218  12.208  11.437   4.870 -0.3002  0.3848  0.4844
58147SOL    HW183219  12.142  11.494   4.911 -0.0519  1.0127  0.0345
58147SOL    HW283220  12.281  11.495   4.851 -0.7716  0.3546 -1.7182
58148SOL     OW83221   4.600   6.670   0.072 -0.1298 -0.0812  0.1852
58148SOL    HW183222   4.624   6.697   0.161  0.3861 -1.9048  0.6375
58148SOL    HW283223   4.637   6.739   0.016  0.3080  0.6336  1.3103
58149SOL     OW83224   3.433   6.287   0.069  0.5325 -0.5544  0.9586
58149SOL    HW183225   3.444   6.261   0.160  0.7979 -0.3739  0.9776
58149SOL    HW283226   3.518   6.322   0.043  0.6732 -1.2645  0.4239
58150SOL     OW83227   9.106   4.635   8.342 -0.3679 -0.2165 -0.2605
58150SOL    HW183228   9.155   4.647   8.423  1.6429  1.8432 -1.6305
58150SOL    HW283229   9.018   4.666   8.362 -0.0873 -0.3509  1.2868
58151SOL     OW83230   2.952   9.126  12.370 -0.4234 -0.3845 -0.3090
58151SOL    HW183231   2.971   9.038  12.338  0.1169 -0.2176 -0.4506
58151SOL    HW283232   2.874   9.115  12.425 -0.4579 -0.9203 -0.4614
58152SOL     OW83233   0.012  10.034   0.937 -0.6327  0.1357 -0.2662
58152SOL    HW183234  -0.067  10.071   0.898 -1.6929 -2.8116 -1.1808
58152SOL    HW283235   0.058   9.994   0.863  0.0043 -1.0707  0.7642
58153SOL     OW83236  11.470   7.329   2.544 -0.3209  0.1526 -0.0562
58153SOL    HW183237  11.452   7.329   2.638 -2.0525 -1.1421 -0.3291
58153SOL    HW283238  11.389   7.361   2.505  0.2296  0.2581 -1.1488
58154SOL     OW83239   6.654   0.519  11.933 -0.3013 -0.2433 -0.6075
58154SOL    HW183240   6.645   0.521  11.837  1.7487 -0.7210 -0.8509
58154SOL    HW283241   6.637   0.609  11.960 -1.2913 -0.1821 -1.3674
58155SOL     OW83242   7.467   8.419  10.440 -0.1332  0.1817 -0.0047
58155SOL    HW183243   7.550   8.399  10.396 -0.4863 -0.6355 -0.3129
58155SOL    HW283244   7.411   8.344  10.421 -0.7367  0.4356  0.7374
58156SOL     OW83245   1.369   6.807   8.153 -0.4477 -0.1009  0.0976
58156SOL    HW183246   1.371   6.712   8.150  0.8339 -0.1018  0.3186
58156SOL    HW283247   1.376   6.835   8.062 -2.4009 -0.1980 -0.1200
58157SOL     OW83248   5.519  10.194  10.549  0.3084 -0.3073  0.7233
58157SOL    HW183249   5.479  10.118  10.591 -0.1165 -0.5735 -0.1439
58157SOL    HW283250   5.454  10.263  10.556  0.0358 -0.4905  0.0906
58158SOL     OW83251   2.499   7.345   0.530 -0.4844  0.2028 -0.2656
58158SOL    HW183252   2.558   7.420   0.526  3.3979 -2.5394 -0.2840
58158SOL    HW283253   2.557   7.270   0.544 -4.1701 -2.7242  0.8604
58159SOL     OW83254   3.256   9.633  10.792 -0.1284 -0.3266  0.2195
58159SOL    HW183255   3.344   9.660  10.768  0.0158 -0.6318  0.3980
58159SOL    HW283256   3.225   9.701  10.853  0.2965 -0.6506  0.8066
58160SOL     OW83257   1.433  10.740   0.685  0.5269  0.5218 -0.2747
58160SOL    HW183258   1.411  10.712   0.774 -0.2873 -0.8935 -0.8765
58160SOL    HW283259   1.361  10.796   0.659  0.2130  0.0617 -0.4127
58161SOL     OW83260   0.197   5.457   5.732 -0.2648 -0.4355  0.1565
58161SOL    HW183261   0.268   5.403   5.768  0.2971  1.3539  1.8945
58161SOL    HW283262   0.183   5.525   5.797 -1.8286  0.7833 -1.3599
58162SOL     OW83263   6.453   7.360  11.898 -0.1668 -0.9095  0.0531
58162SOL    HW183264   6.410   7.436  11.859 -2.4337 -0.7192  2.6045
58162SOL    HW283265   6.412   7.285  11.855 -1.6135 -0.6819  0.9496
58163SOL     OW83266  11.374   0.747  10.105  0.4028  0.2922 -0.2652
58163SOL    HW183267  11.344   0.762  10.015  1.0561 -1.1252 -0.7510
58163SOL    HW283268  11.465   0.776  10.105  0.3397  0.4890  0.0014
58164SOL     OW83269   2.280   7.243   9.537  0.8401 -0.1975  0.7280
58164SOL    HW183270   2.347   7.185   9.502  2.2147 -0.1209  3.0457
58164SOL    HW283271   2.217   7.185   9.579 -0.3422 -0.2328 -0.9886
58165SOL     OW83272   1.772   5.275  11.879 -0.7035 -0.9245  0.1900
58165SOL    HW183273   1.796   5.185  11.900 -0.7180 -0.8348  0.6067
58165SOL    HW283274   1.688   5.288  11.924 -1.0891 -0.9534 -0.5174
58166SOL     OW83275   6.025   6.434   1.091 -0.0353  0.2880  0.2746
58166SOL    HW183276   5.941   6.445   1.048 -0.3915  1.3737  1.2026
58166SOL    HW283277   6.014   6.473   1.178  0.9911 -0.8438  0.9596
58167SOL     OW83278   9.904  11.132  12.168 -0.3830 -0.0847 -0.1246
58167SOL    HW183279   9.860  11.187  12.232  1.2261  0.6337  0.4246
58167SOL    HW283280   9.893  11.177  12.085 -1.0249 -0.1259 -0.0612
58168SOL     OW83281   5.933   8.745   5.902  0.3545 -0.1476 -0.1970
58168SOL    HW183282   5.892   8.819   5.857  0.1053 -0.7977 -1.0633
58168SOL    HW283283   5.885   8.739   5.985  1.4642  1.6633  0.6212
58169SOL     OW83284  11.440   1.748  10.406  0.1052  0.1104 -0.4085
58169SOL    HW183285  11.522   1.703  10.426  0.4727  1.2449  0.8067
58169SOL    HW283286  11.440   1.825  10.464 -1.1165  0.9414 -1.4477
58170SOL     OW83287   2.116  10.652   1.347  0.3221 -0.0311  0.7348
58170SOL    HW183288   2.096  10.743   1.368 -1.0643 -0.7786  2.8567
58170SOL    HW283289   2.032  10.607   1.350  1.1117 -1.5733  0.6532
58171SOL     OW83290  11.520  10.832   0.241  0.4912  0.2658 -0.2307
58171SOL    HW183291  11.561  10.876   0.315 -0.4140  1.7303 -0.5550
58171SOL    HW283292  11.577  10.852   0.167 -0.0430  1.1656 -0.4241
58172SOL     OW83293   6.212   6.560   9.715  0.6386 -0.2503  0.1309
58172SOL    HW183294   6.139   6.516   9.760  0.7861 -0.2418  0.3805
58172SOL    HW283295   6.188   6.653   9.715  1.6830  0.0710  2.2280
58173SOL     OW83296   0.469   7.057  10.084  0.1352 -0.2771  0.8372
58173SOL    HW183297   0.535   7.118  10.050 -0.5648 -0.3264 -0.6659
58173SOL    HW283298   0.473   7.069  10.179  2.5211 -0.5184  0.8303
58174SOL     OW83299   8.764   5.638   7.734 -0.4408  0.0236  0.3126
58174SOL    HW183300   8.810   5.722   7.737  0.1453 -0.2936  0.3984
58174SOL    HW283301   8.678   5.659   7.698  0.1863  0.4515 -1.0041
58175SOL     OW83302  11.991   0.920  11.129 -0.4826 -0.4529  0.5777
58175SOL    HW183303  11.925   0.857  11.160  0.4545 -1.5848  0.3671
58175SOL    HW283304  12.068   0.900  11.182  0.1476 -0.1996 -0.2389
58176SOL     OW83305   1.209   2.294   2.144  0.5577 -0.7527 -0.1308
58176SOL    HW183306   1.289   2.322   2.101  0.9412 -0.7622  0.5660
58176SOL    HW283307   1.201   2.351   2.220  1.0751 -2.1491  1.0220
58177SOL     OW83308  11.197   0.371   9.805 -0.4574 -0.1116  0.3137
58177SOL    HW183309  11.134   0.412   9.864 -1.1692 -0.8202  0.0641
58177SOL    HW283310  11.282   0.394   9.842 -0.8310  1.1722  0.4540
58178SOL     OW83311   3.681   7.215   3.931 -0.4257 -0.1277 -0.3200
58178SOL    HW183312   3.589   7.237   3.915 -0.4512  1.4968  1.7116
58178SOL    HW283313   3.679   7.121   3.953 -1.6328 -0.0468 -0.0013
58179SOL     OW83314  10.309  11.859  12.053  0.0617 -0.1455  0.4477
58179SOL    HW183315  10.229  11.854  12.001 -0.4845 -1.3321  1.3235
58179SOL    HW283316  10.373  11.899  11.996 -0.7296 -0.6688 -0.8559
58180SOL     OW83317   1.156  12.409   7.261  0.0368 -0.2374  0.1434
58180SOL    HW183318   1.237  12.367   7.290  0.0040 -0.7339 -0.4797
58180SOL    HW283319   1.087  12.353   7.297 -0.0064 -0.7470 -0.7168
58181SOL     OW83320   9.633   7.246   9.378  0.2424  0.2725  0.0241
58181SOL    HW183321   9.630   7.275   9.287  0.3888  1.6735  0.4305
58181SOL    HW283322   9.548   7.203   9.393 -0.1970  0.9331 -0.5047
58182SOL     OW83323   1.860  12.384   7.763 -0.2231  0.5757 -0.0713
58182SOL    HW183324   1.795  12.349   7.702  0.8164 -0.4754 -0.6151
58182SOL    HW283325   1.923  12.313   7.774  1.0991  1.7324  0.0752
58183SOL     OW83326   2.394   8.440   2.608 -0.1699  1.0463 -0.0872
58183SOL    HW183327   2.485   8.435   2.636 -0.7890  1.3172  2.2320
58183SOL    HW283328   2.368   8.531   2.626 -1.0797  0.7766  0.0214
58184SOL     OW83329   2.848  11.094   4.889  0.2756  0.4051 -0.0748
58184SOL    HW183330   2.804  11.020   4.847  1.0981 -0.8697  1.2140
58184SOL    HW283331   2.776  11.153   4.914 -0.6104 -0.9282  0.6721
58185SOL     OW83332   7.186   6.752   7.529 -0.0502 -0.3266 -0.0786
58185SOL    HW183333   7.108   6.781   7.576 -1.5721 -0.8868 -2.1134
58185SOL    HW283334   7.229   6.692   7.589 -0.4702  0.9376  1.5697
58186SOL     OW83335   3.173   7.995   3.326  0.0744  0.4165 -0.0798
58186SOL    HW183336   3.158   8.080   3.367  0.5496 -0.9229  3.1689
58186SOL    HW283337   3.263   7.972   3.351 -0.5556 -1.6812  0.4274
58187SOL     OW83338   8.707   9.447  11.598  0.0893 -0.1814  0.0101
58187SOL    HW183339   8.691   9.386  11.669  0.0550  0.7969  0.8766
58187SOL    HW283340   8.797   9.430  11.570  0.2570 -0.2772  0.6020
58188SOL     OW83341   3.041   2.332   1.355 -0.0348 -0.1031 -0.1687
58188SOL    HW183342   3.103   2.276   1.307 -1.4363 -0.7873 -1.2344
58188SOL    HW283343   2.961   2.280   1.361 -0.7604  1.0525  0.5261
58189SOL     OW83344   9.851   3.395   6.455  0.1463  0.0654 -0.5721
58189SOL    HW183345   9.796   3.439   6.521  2.9787  2.4014  0.4663
58189SOL    HW283346   9.870   3.309   6.493  1.1775  1.1120  1.4739
58190SOL     OW83347   1.841  11.499   4.910  0.1139 -0.4211 -0.1865
58190SOL    HW183348   1.748  11.496   4.890  0.3625 -1.7887 -1.2508
58190SOL    HW283349   1.882  11.528   4.829  0.5152  2.0011  0.7903
58191SOL     OW83350   7.024   4.287   6.790  0.8383  0.0910  0.0290
58191SOL    HW183351   6.979   4.240   6.720 -0.0391 -0.1387  0.7298
58191SOL    HW283352   7.117   4.267   6.776  0.6186 -0.4983 -0.6628
58192SOL     OW83353   8.236   4.697  11.236 -0.4171  0.1380 -0.4238
58192SOL    HW183354   8.260   4.727  11.148 -0.1544 -1.2230 -0.8370
58192SOL    HW283355   8.226   4.603  11.227 -0.6833  0.0175  0.9570
58193SOL     OW83356   9.677   1.336   3.432  0.2518  0.8081  0.1181
58193SOL    HW183357   9.667   1.413   3.488 -1.3925 -0.4541  1.6611
58193SOL    HW283358   9.661   1.261   3.490 -1.3694 -0.5917 -1.9884
58194SOL     OW83359  10.081   4.875  11.353  0.2932  0.0880 -0.3299
58194SOL    HW183360  10.162   4.868  11.403 -0.4320  0.1538  0.8691
58194SOL    HW283361  10.033   4.795  11.372 -1.7487  1.7778  2.3083
58195SOL     OW83362   7.948  12.010   5.547 -0.1298 -0.6178 -0.3822
58195SOL    HW183363   7.941  11.937   5.485 -1.2959 -0.7688 -0.0956
58195SOL    HW283364   7.942  12.088   5.492 -0.0110 -0.7431 -0.5749
58196SOL     OW83365   8.159   8.101   0.149  0.0912 -0.2698 -0.6195
58196SOL    HW183366   8.254   8.090   0.155 -0.1039 -2.1146 -0.4034
58196SOL    HW283367   8.124   8.056   0.225 -0.9245  1.7105  0.1690
58197SOL     OW83368   0.941   1.045   7.389  0.2340  0.6086  0.7846
58197SOL    HW183369   0.905   0.979   7.449 -0.6784 -0.4049 -0.8138
58197SOL    HW283370   0.872   1.111   7.381  0.3404  0.7248  0.8233
58198SOL     OW83371   0.762  12.244   4.112 -0.5657 -0.4962 -0.3249
58198SOL    HW183372   0.791  12.155   4.134 -1.0069 -1.1095 -2.0663
58198SOL    HW283373   0.698  12.232   4.043 -0.1474  1.2268 -1.0728
58199SOL     OW83374  10.727   5.987   1.331 -0.0276  0.5324 -0.2892
58199SOL    HW183375  10.706   5.904   1.288  2.1744 -0.9957  1.3849
58199SOL    HW283376  10.676   5.985   1.413  1.6644 -0.2592  0.7933
58200SOL     OW83377   0.795  11.215   3.699  0.5190  0.4457  0.0582
58200SOL    HW183378   0.759  11.296   3.732  1.1015  0.1004  1.6135
58200SOL    HW283379   0.728  11.180   3.640 -1.0627  0.5252  1.7570
58201SOL     OW83380   1.872  10.226   3.107  0.2348 -0.4425 -0.7312
58201SOL    HW183381   1.884  10.309   3.152  0.5430 -1.1345  0.5015
58201SOL    HW283382   1.959  10.188   3.102  0.1111 -0.6550 -1.3678
58202SOL     OW83383  11.448  11.070   1.699 -0.7249  0.0009  0.4144
58202SOL    HW183384  11.450  11.139   1.633  1.6820  0.0101  0.4320
58202SOL    HW283385  11.458  11.116   1.782 -0.6654 -0.2599  0.5521
58203SOL     OW83386   8.241   1.977  11.474  0.3040 -0.1270  0.2075
58203SOL    HW183387   8.210   1.944  11.558  2.0792  2.3750  1.9788
58203SOL    HW283388   8.249   1.899  11.419 -1.2561 -1.7983  2.2008
58204SOL     OW83389  10.568   8.302  10.932 -0.6426  0.1114 -0.5245
58204SOL    HW183390  10.506   8.374  10.945 -1.1554 -0.5043  0.6954
58204SOL    HW283391  10.512   8.226  10.913 -0.1926 -0.2001 -0.6089
58205SOL     OW83392   5.866   7.088   1.138 -0.4900  0.0059 -0.1158
58205SOL    HW183393   5.932   7.026   1.105  0.1936  0.0277  1.1571
58205SOL    HW283394   5.915   7.145   1.197 -1.5846  0.2849  0.5370
58206SOL     OW83395   3.650   2.139  12.415  0.2632  0.0990 -0.7002
58206SOL    HW183396   3.560   2.127  12.444 -0.1051  0.4079 -1.6669
58206SOL    HW283397   3.645   2.134  12.319  1.4854 -1.3070 -0.7257
58207SOL     OW83398   4.070   2.112   5.918 -0.1732 -0.1499  0.4605
58207SOL    HW183399   4.114   2.188   5.957  3.1597 -2.5809  1.9337
58207SOL    HW283400   4.007   2.084   5.984 -0.0266  0.2197  0.7658
58208SOL     OW83401   0.912  12.339  11.595  0.1775 -0.0795  0.4257
58208SOL    HW183402   0.883  12.350  11.504 -0.2375 -0.3843  0.5199
58208SOL    HW283403   0.960  12.419  11.614 -0.8860  0.5942  0.3745
58209SOL     OW83404   3.947  11.492  12.044 -0.2184 -0.4212  0.2971
58209SOL    HW183405   3.940  11.455  11.956  1.5724  2.1943 -1.0444
58209SOL    HW283406   3.906  11.578  12.038 -1.7351 -0.8719  2.5754
58210SOL     OW83407   0.541   5.263   4.620 -0.6674  0.6041  0.4025
58210SOL    HW183408   0.533   5.223   4.533 -0.4637 -0.7430  0.9804
58210SOL    HW283409   0.623   5.312   4.615 -0.1105 -0.3291  0.1533
58211SOL     OW83410   0.472  11.947   8.420 -0.4796  0.4058 -0.1423
58211SOL    HW183411   0.405  11.983   8.479 -2.2098  0.3876 -1.9926
58211SOL    HW283412   0.550  11.939   8.475 -2.5996 -1.9962  2.8936
58212SOL     OW83413   6.751   1.106   6.226  0.0541  0.2421  0.8532
58212SOL    HW183414   6.831   1.156   6.245  0.7555 -0.2593 -0.6163
58212SOL    HW283415   6.697   1.116   6.304  0.5665  2.5130  0.9926
58213SOL     OW83416   1.778   3.968  10.021 -0.2329 -0.4732  0.3295
58213SOL    HW183417   1.796   4.030  10.092 -0.1612  0.8325 -0.7927
58213SOL    HW283418   1.682   3.967  10.014 -0.2858 -1.2496  0.9712
58214SOL     OW83419   0.956   3.366   8.476 -0.0114  0.5589  0.1952
58214SOL    HW183420   0.951   3.448   8.427 -0.3435  0.2732 -0.2634
58214SOL    HW283421   1.003   3.306   8.418  0.3558  0.4665  0.5881
58215SOL     OW83422  12.342   1.997   4.989 -0.3343 -0.0873  0.4502
58215SOL    HW183423  12.404   2.061   5.025 -0.0267 -0.7414  1.1157
58215SOL    HW283424  12.284   1.978   5.062 -1.0889  0.2271 -0.0587
58216SOL     OW83425   6.024   4.333   1.570  0.0305 -0.2013 -0.4462
58216SOL    HW183426   5.981   4.415   1.594  0.1646  0.1833 -1.4773
58216SOL    HW283427   5.952   4.270   1.564 -0.3997  0.3884 -1.9579
58217SOL     OW83428   0.592   3.505   7.184 -0.6260 -0.1140  0.1647
58217SOL    HW183429   0.687   3.499   7.197 -0.6479  0.2794  0.5157
58217SOL    HW283430   0.577   3.462   7.100  0.1683  1.9130 -1.0977
58218SOL     OW83431   0.352  11.380   6.917 -0.7260  0.2375 -0.2379
58218SOL    HW183432   0.448  11.383   6.917 -0.6858 -0.7472 -0.2732
58218SOL    HW283433   0.328  11.385   7.010 -0.6383  0.3317 -0.2204
58219SOL     OW83434  12.407   2.497   9.545 -0.4542  0.4870 -0.2903
58219SOL    HW183435  12.397   2.592   9.537 -1.2510  0.6139  1.6643
58219SOL    HW283436  12.319   2.466   9.567 -0.0968 -0.6521 -0.4171
58220SOL     OW83437   1.240   8.826  11.904 -0.0150  0.1591 -0.0070
58220SOL    HW183438   1.321   8.837  11.954  0.5717  1.1037 -1.1107
58220SOL    HW283439   1.246   8.737  11.868  0.6192  0.2787 -0.2079
58221SOL     OW83440   4.796   3.454  10.999  0.1962 -0.4184  0.1627
58221SOL    HW183441   4.885   3.488  11.013 -0.3663  0.9054  0.6501
58221SOL    HW283442   4.745   3.489  11.072 -1.3704  1.2846 -1.6279
58222SOL     OW83443   4.023   8.035  11.553 -0.3868 -0.7445  1.1563
58222SOL    HW183444   3.954   8.068  11.610  0.0451  0.2573  1.1194
58222SOL    HW283445   3.980   8.021  11.468 -0.3797  0.6795  0.8987
58223SOL     OW83446   1.863   0.348   2.591 -0.1979  0.5606  0.0447
58223SOL    HW183447   1.826   0.377   2.508 -1.1683  0.8352  0.5567
58223SOL    HW283448   1.921   0.275   2.568 -1.5345 -0.2984 -0.7276
58224SOL     OW83449   5.529   5.929   1.423 -0.0203  0.2410  0.0198
58224SOL    HW183450   5.585   5.859   1.456 -0.1195 -0.1795 -0.7026
58224SOL    HW283451   5.473   5.952   1.498  1.6874  1.2980  1.0612
58225SOL     OW83452   4.584   9.393   5.798  0.0834  1.0446 -0.5200
58225SOL    HW183453   4.679   9.403   5.792  0.3511 -1.0483 -0.5379
58225SOL    HW283454   4.550   9.448   5.728  1.2260  2.2849 -0.1455
58226SOL     OW83455   4.075   4.961   5.314 -0.3723  0.0595 -0.4278
58226SOL    HW183456   4.085   4.874   5.353 -1.7690 -0.1531 -0.4762
58226SOL    HW283457   4.047   4.943   5.224 -1.9209  0.5316 -0.0722
58227SOL     OW83458  11.739   6.725   1.548 -0.8144  0.1509  0.1186
58227SOL    HW183459  11.815   6.781   1.534  0.2944 -0.9245  1.6118
58227SOL    HW283460  11.671   6.762   1.490  0.6570  1.4314 -0.8613
58228SOL     OW83461   4.670   8.607   9.859 -0.3988 -0.6619  0.7657
58228SOL    HW183462   4.616   8.601   9.938 -0.0902 -0.8337  0.9673
58228SOL    HW283463   4.651   8.527   9.811 -0.2931 -0.7439  0.8585
58229SOL     OW83464  10.427   3.920  12.469  0.1471  0.0326  0.6216
58229SOL    HW183465  10.479   3.845  12.440 -0.0006 -0.0728  0.6291
58229SOL    HW283466  10.404   3.901  12.560 -3.2262 -1.8391 -0.4282
58230SOL     OW83467   5.075   7.213   7.761 -0.0361 -0.0714 -0.1048
58230SOL    HW183468   5.110   7.180   7.678 -1.7377 -1.4999 -0.3110
58230SOL    HW283469   5.107   7.303   7.766  0.8419 -0.2388 -1.8675
58231SOL     OW83470   6.487   2.635  11.608 -0.0973 -0.5985 -0.7327
58231SOL    HW183471   6.517   2.617  11.697  0.9693  0.9456 -0.7405
58231SOL    HW283472   6.561   2.611  11.552  0.2198  0.8669 -0.9691
58232SOL     OW83473   6.075   2.385   1.652 -0.0954 -0.3221  0.0689
58232SOL    HW183474   6.138   2.383   1.724  0.2286  0.3234 -0.1906
58232SOL    HW283475   6.105   2.456   1.596  1.2213 -2.5102 -2.1656
58233SOL     OW83476   9.916  11.850   0.924  0.0038 -0.5763 -0.1905
58233SOL    HW183477   9.829  11.886   0.907 -0.6401 -1.7252  0.5049
58233SOL    HW283478   9.973  11.926   0.929 -0.8186  0.1488 -1.4191
58234SOL     OW83479   1.335  12.190   2.782 -0.4625 -0.1027 -0.4100
58234SOL    HW183480   1.398  12.119   2.794 -0.8729 -0.3230  0.5448
58234SOL    HW283481   1.383  12.257   2.734  0.8925  0.2273  1.3113
58235SOL     OW83482   5.237   9.692   3.611 -0.3595 -0.3004  0.6968
58235SOL    HW183483   5.248   9.733   3.525 -1.0884  0.1093  0.7920
58235SOL    HW283484   5.208   9.763   3.668  0.4363 -0.4966  1.3670
58236SOL     OW83485   6.431   0.551   4.736 -0.3938  0.0058 -0.0143
58236SOL    HW183486   6.500   0.493   4.703 -0.0218  1.4485 -1.9291
58236SOL    HW283487   6.355   0.494   4.745  0.2543 -1.0181 -0.7732
58237SOL     OW83488   7.818  10.392   6.980  0.3767 -0.5639  0.2488
58237SOL    HW183489   7.810  10.402   6.885  0.0873  1.0896  0.4043
58237SOL    HW283490   7.913  10.387   6.995  0.4723  0.1043 -0.0710
58238SOL     OW83491   1.004   2.916   4.842  0.1938 -0.2225  0.1061
58238SOL    HW183492   1.025   2.971   4.766 -1.4119 -0.8656 -0.8584
58238SOL    HW283493   1.003   2.827   4.807 -1.2148 -0.4669  0.7347
58239SOL     OW83494   5.332  11.004   1.587  0.1374 -0.5841 -0.3976
58239SOL    HW183495   5.340  10.908   1.586  0.6054 -0.6207  1.8981
58239SOL    HW283496   5.274  11.022   1.661  0.7117  0.9538 -0.2991
58240SOL     OW83497   6.068   7.081  10.385 -0.2525  0.1260  0.2572
58240SOL    HW183498   5.990   7.036  10.414  1.2400 -1.6005  1.8667
58240SOL    HW283499   6.114   7.106  10.466  0.9526  0.9344 -0.6211
58241SOL     OW83500   5.925   8.296   2.479  0.0943  0.1155 -0.3949
58241SOL    HW183501   5.933   8.206   2.449  1.1985  0.6175 -1.7098
58241SOL    HW283502   5.867   8.291   2.556 -2.0824 -1.3651 -2.0023
58242SOL     OW83503   9.399   1.308  11.050 -0.2952 -0.3034  0.2119
58242SOL    HW183504   9.416   1.394  11.012 -1.8489  0.1721  0.5094
58242SOL    HW283505   9.435   1.246  10.987  4.0691  0.5014  1.5604
58243SOL     OW83506   8.364   2.398  10.528 -0.1647  0.2992 -0.0929
58243SOL    HW183507   8.345   2.321  10.582 -0.0004 -0.6015 -1.2719
58243SOL    HW283508   8.305   2.466  10.561 -0.6008 -0.4487  0.7129
58244SOL     OW83509   9.317   6.551   1.813 -0.4720  0.9017 -0.6040
58244SOL    HW183510   9.242   6.502   1.845  0.5856 -0.8804 -0.7006
58244SOL    HW283511   9.384   6.539   1.881  1.1719 -1.3327 -2.4460
58245SOL     OW83512   5.481   8.507   1.254 -0.0464 -0.0444 -0.9428
58245SOL    HW183513   5.391   8.495   1.226  0.3426 -0.7412 -1.9806
58245SOL    HW283514   5.478   8.499   1.350 -1.4052  2.3362 -0.7302
58246SOL     OW83515   6.627  11.911   1.750  0.3682  0.0189  0.7262
58246SOL    HW183516   6.670  11.826   1.757 -0.8988 -0.6374  0.7053
58246SOL    HW283517   6.537  11.895   1.778 -0.5597  0.8108 -1.5873
58247SOL     OW83518   1.526   9.749   2.958 -0.3785 -0.0660  0.3373
58247SOL    HW183519   1.520   9.656   2.982  1.6636  0.2187  2.2218
58247SOL    HW283520   1.609   9.756   2.910 -0.2762  0.8658  0.6389
58248SOL     OW83521   1.633   4.615   2.107 -0.4831  0.8219  0.0400
58248SOL    HW183522   1.625   4.658   2.021 -0.3614  0.4509 -0.1595
58248SOL    HW283523   1.655   4.524   2.086 -0.2666  0.7735  0.4707
58249SOL     OW83524   5.218   4.344   6.032  0.1723  0.3972 -0.0819
58249SOL    HW183525   5.276   4.378   6.100  1.2240  2.3914 -1.8406
58249SOL    HW283526   5.235   4.250   6.031  2.9629  0.7990 -0.0665
58250SOL     OW83527   4.525   3.090  10.278  0.3107  0.0494  0.2578
58250SOL    HW183528   4.447   3.054  10.236  0.4487 -0.3122  0.3050
58250SOL    HW283529   4.520   3.184  10.263  1.1071 -0.1903 -1.8772
58251SOL     OW83530   9.436   1.918  12.031 -0.0051  0.0337  0.2410
58251SOL    HW183531   9.388   1.856  12.086 -0.2691 -0.0387 -0.0688
58251SOL    HW283532   9.367   1.966  11.985  0.2260 -1.1086 -1.3695
58252SOL     OW83533   0.420  12.277   4.261  0.3664  0.1491 -0.1634
58252SOL    HW183534   0.431  12.216   4.189 -0.6764  1.4231 -1.4749
58252SOL    HW283535   0.401  12.361   4.219 -1.8583  0.6260  1.5776
58253SOL     OW83536   5.214   5.208   1.310 -0.1604 -0.2343  0.3412
58253SOL    HW183537   5.301   5.236   1.336 -1.1427  2.2779  1.2440
58253SOL    HW283538   5.177   5.165   1.388  0.1523 -1.0717  0.0390
58254SOL     OW83539   1.594   3.859   4.873 -0.0655 -0.0672  0.2690
58254SOL    HW183540   1.576   3.769   4.845 -1.3464  0.0532  0.6829
58254SOL    HW283541   1.509   3.903   4.869  0.3029  0.7708  1.3846
58255SOL     OW83542   0.753   5.873   7.033  0.3471 -0.2991 -0.1817
58255SOL    HW183543   0.732   5.963   7.055 -0.5254 -0.4801 -0.2383
58255SOL    HW283544   0.760   5.872   6.937 -2.7915 -0.8859 -0.5039
58256SOL     OW83545   5.065   7.578   1.726 -0.0468 -0.2740  0.0867
58256SOL    HW183546   5.000   7.636   1.686 -0.3023 -0.6834 -0.0980
58256SOL    HW283547   5.116   7.636   1.783 -0.2455  0.1488 -0.1538
58257SOL     OW83548  12.117  11.123   8.421  0.5900  0.3067 -0.1042
58257SOL    HW183549  12.066  11.042   8.414 -1.0447  1.2158  0.7512
58257SOL    HW283550  12.155  11.119   8.509 -0.5992  1.0655  0.4609
58258SOL     OW83551   7.677   4.654  11.817  0.4139 -0.1448  0.2224
58258SOL    HW183552   7.772   4.645  11.818  0.4793  0.4161 -0.7893
58258SOL    HW283553   7.650   4.619  11.732 -0.4347 -1.6070  1.0327
58259SOL     OW83554   8.607   0.555   7.271  0.6844  0.0210  0.1784
58259SOL    HW183555   8.527   0.607   7.275  1.5174  1.4616 -0.9317
58259SOL    HW283556   8.602   0.499   7.349 -0.1162  2.0027  1.6591
58260SOL     OW83557   9.259  11.358   0.781  0.3202  0.3009  0.4420
58260SOL    HW183558   9.265  11.435   0.837 -2.0167  0.4358  0.5828
58260SOL    HW283559   9.199  11.382   0.711 -0.5958 -1.4168  0.5727
58261SOL     OW83560   0.926   5.220   8.243  0.3852 -0.2421  0.4614
58261SOL    HW183561   0.934   5.125   8.243  2.9186 -0.2933 -3.8066
58261SOL    HW283562   0.843   5.237   8.198  0.8554 -0.5240 -0.5440
58262SOL     OW83563   0.443   9.496   0.143  0.0835 -0.1817 -0.4276
58262SOL    HW183564   0.388   9.564   0.181 -0.2601 -0.5568 -0.2314
58262SOL    HW283565   0.500   9.468   0.214  0.7366  0.4095 -0.7117
58263SOL     OW83566   0.487  12.078   4.796  0.5396 -0.3678  0.3124
58263SOL    HW183567   0.439  12.012   4.746 -2.0876  0.8597  1.0237
58263SOL    HW283568   0.502  12.149   4.733 -0.6875  0.2002  0.6302
58264SOL     OW83569   6.716   2.537   6.705 -0.0497 -0.2250 -0.2657
58264SOL    HW183570   6.715   2.441   6.708 -1.1283 -0.2375 -0.4272
58264SOL    HW283571   6.689   2.558   6.616 -0.9850  0.2191  0.1115
58265SOL     OW83572   0.615   6.179  11.222 -0.0557  0.1976  0.3212
58265SOL    HW183573   0.607   6.084  11.235 -1.7310  0.3532  0.6241
58265SOL    HW283574   0.680   6.207  11.286  0.2747 -0.7043  0.3948
58266SOL     OW83575   3.416   4.163   2.560  0.4190 -0.4094  0.2609
58266SOL    HW183576   3.352   4.207   2.617  0.2722 -1.1664  0.6908
58266SOL    HW283577   3.363   4.115   2.497  0.5832  0.3444 -0.4609
58267SOL     OW83578   9.896   8.247  12.173 -0.1814  0.1529 -0.6026
58267SOL    HW183579   9.827   8.208  12.119 -0.5006  1.3624 -1.1155
58267SOL    HW283580   9.856   8.327  12.207  0.6800  0.4048 -0.1703
58268SOL     OW83581   4.806   0.345   7.912  0.5090 -0.2145 -0.4264
58268SOL    HW183582   4.832   0.429   7.875  1.0987 -0.3286 -0.2919
58268SOL    HW283583   4.881   0.318   7.965  0.3870 -0.8930 -0.5851
58269SOL     OW83584  10.636   0.251   8.171 -0.6597 -0.2763 -0.5230
58269SOL    HW183585  10.634   0.344   8.196  0.6574  0.2048 -2.0399
58269SOL    HW283586  10.629   0.204   8.254  1.0667  1.1989  0.5405
58270SOL     OW83587   0.972   6.818   6.076 -0.3036  0.5955  0.0228
58270SOL    HW183588   1.015   6.856   5.999 -0.3268  0.4050 -0.0844
58270SOL    HW283589   0.902   6.764   6.039  0.6214 -0.7095  0.1132
58271SOL     OW83590   1.619   1.434  12.405  0.4162 -0.1020  0.7233
58271SOL    HW183591   1.640   1.398  12.319 -0.0644  1.5424 -0.1260
58271SOL    HW283592   1.524   1.426  12.412  0.5428 -1.1071  1.5419
58272SOL     OW83593   6.033   1.605   1.973  0.2382 -0.5009 -0.6114
58272SOL    HW183594   6.120   1.595   1.934  0.9153 -0.8091  0.9071
58272SOL    HW283595   5.979   1.640   1.902  2.1196  1.9077 -0.9917
58273SOL     OW83596   8.451   4.305   2.474  0.1975  0.2973 -0.5930
58273SOL    HW183597   8.357   4.312   2.489  0.1227 -1.6359  0.1098
58273SOL    HW283598   8.471   4.213   2.490  2.3561  0.8240  0.0508
58274SOL     OW83599  12.605   1.130   1.806 -0.5151  0.4081 -0.3546
58274SOL    HW183600  12.515   1.117   1.777 -1.5485  0.2007  2.6683
58274SOL    HW283601  12.606   1.218   1.843  0.2024 -0.0344  0.7336
58275SOL     OW83602   5.868  12.072   0.528 -0.2784  0.9289  0.2825
58275SOL    HW183603   5.917  12.102   0.451 -0.9423  2.1037  0.2943
58275SOL    HW283604   5.786  12.038   0.491 -0.7090  1.7332  0.4685
58276SOL     OW83605   5.073   0.323   4.960  0.1796 -0.6129  0.6138
58276SOL    HW183606   5.070   0.295   5.051  1.2936 -1.1874  0.4850
58276SOL    HW283607   5.111   0.411   4.962  1.5364 -1.1916  0.5918
58277SOL     OW83608   0.813   2.007  10.116  0.6893  0.2417  0.2747
58277SOL    HW183609   0.801   2.018  10.211  0.3344 -0.2520  0.2902
58277SOL    HW283610   0.872   1.932  10.108  0.3652  0.0034  0.0961
58278SOL     OW83611   8.445   4.373   8.795  0.4611 -0.2616 -0.0509
58278SOL    HW183612   8.412   4.392   8.707  0.2380 -0.3698  0.0097
58278SOL    HW283613   8.496   4.450   8.819  0.2788 -0.1086 -0.1558
58279SOL     OW83614   1.962   8.276   0.934  0.0107  0.1995 -0.5247
58279SOL    HW183615   1.960   8.181   0.920 -1.1575  0.3968 -1.7793
58279SOL    HW283616   1.991   8.285   1.025  1.9115 -1.2925 -0.8981
58280SOL     OW83617   6.421   0.147  10.495 -0.1917  0.4689 -0.0015
58280SOL    HW183618   6.477   0.070  10.491 -0.3412  0.2660  1.3455
58280SOL    HW283619   6.370   0.136  10.576 -1.3154  1.2310 -0.5838
58281SOL     OW83620  11.029   4.746  11.104 -0.5942  0.1504  0.2531
58281SOL    HW183621  10.952   4.740  11.049 -1.1843 -0.1810  1.0942
58281SOL    HW283622  11.066   4.657  11.105  0.2089  0.4544 -0.7015
58282SOL     OW83623   4.529   2.348  12.156  0.2061  0.1446  0.2111
58282SOL    HW183624   4.567   2.404  12.223 -1.1032  2.9958 -1.2280
58282SOL    HW283625   4.584   2.361  12.079 -1.1913  1.0361 -0.6891
58283SOL     OW83626   4.946   6.822   8.936 -0.4613  0.4014  0.5440
58283SOL    HW183627   4.983   6.876   9.005  0.7565 -0.4864  0.6187
58283SOL    HW283628   4.878   6.770   8.979  0.6805 -0.5684  1.2306
58284SOL     OW83629   8.764   1.727   5.411  0.0968 -0.7370 -0.3856
58284SOL    HW183630   8.835   1.775   5.369  0.1502 -2.3826 -2.3026
58284SOL    HW283631   8.780   1.740   5.505  1.9793  0.2499 -0.7728
58285SOL     OW83632   2.913   8.261  12.230  0.0352 -0.3404  0.4260
58285SOL    HW183633   2.861   8.340  12.216 -2.1583 -1.3231  2.3113
58285SOL    HW283634   2.849   8.196  12.260  1.9843 -2.4357  0.2572
58286SOL     OW83635   1.326  10.023   0.268 -0.1794  0.3934  0.3146
58286SOL    HW183636   1.374   9.964   0.209 -0.3963 -0.5485  1.0528
58286SOL    HW283637   1.361  10.110   0.249  1.3233 -0.1755  0.3255
58287SOL     OW83638   8.973   4.644  10.965  0.5722 -0.5497  0.5873
58287SOL    HW183639   8.898   4.701  10.979  0.8574  0.0596 -0.2365
58287SOL    HW283640   8.951   4.563  11.009 -0.1013 -0.0048  1.2763
58288SOL     OW83641   5.891   7.959   3.553 -0.2176  0.2753  0.4896
58288SOL    HW183642   5.838   7.968   3.474  1.2132 -2.1443 -0.8543
58288SOL    HW283643   5.894   8.048   3.590 -2.6452  1.0763 -0.9735
58289SOL     OW83644   0.969  10.898   0.443 -0.1954 -0.4228  0.3677
58289SOL    HW183645   1.031  10.896   0.370 -0.2323 -0.9416  0.3462
58289SOL    HW283646   0.922  10.816   0.436 -2.4708  0.8909 -0.9513
58290SOL     OW83647   8.335   8.822  10.026 -0.1214  0.5963  0.4626
58290SOL    HW183648   8.288   8.848  10.105  1.0381  0.1514  1.3383
58290SOL    HW283649   8.423   8.798  10.057  0.0191 -0.6800 -0.7976
58291SOL     OW83650   0.138   4.986   7.166  0.3693 -0.3398 -0.6119
58291SOL    HW183651   0.045   4.998   7.146 -0.4442 -4.4039 -0.2896
58291SOL    HW283652   0.141   4.986   7.262  0.6799 -0.2987 -0.6225
58292SOL     OW83653   9.351   2.102   3.045 -0.2257 -0.1297 -0.2585
58292SOL    HW183654   9.444   2.095   3.024 -0.4408 -1.3222 -0.9386
58292SOL    HW283655   9.329   2.015   3.079 -1.5259 -0.5622 -2.0490
58293SOL     OW83656   7.679   8.797   7.641 -0.3885 -0.0908  0.0683
58293SOL    HW183657   7.759   8.842   7.616 -0.3659 -0.4532 -0.5231
58293SOL    HW283658   7.679   8.800   7.737  1.1475 -1.4685  0.1712
58294SOL     OW83659  12.378   4.004   0.651 -0.2698 -0.3383 -0.6083
58294SOL    HW183660  12.442   3.952   0.698 -1.0565 -0.0904  0.7889
58294SOL    HW283661  12.409   4.004   0.560  2.3769  0.7819  0.1868
58295SOL     OW83662   8.822   1.484   3.903  0.5260  0.3914 -0.0039
58295SOL    HW183663   8.791   1.479   3.813  0.8563  0.2375 -0.1112
58295SOL    HW283664   8.767   1.422   3.951  0.7549  0.0166 -0.2201
58296SOL     OW83665  12.570   3.338  10.580  0.8285  0.1554  0.1091
58296SOL    HW183666  12.632   3.324  10.508  0.8470  2.2798 -0.3665
58296SOL    HW283667  12.579   3.431  10.601 -1.4503  0.2948  0.7454
58297SOL     OW83668  10.133   0.225  10.969  0.0674  0.2797  0.1285
58297SOL    HW183669  10.098   0.309  10.939  0.3211  0.7988  1.2079
58297SOL    HW283670  10.192   0.249  11.041  1.0979 -0.7310 -0.3461
58298SOL     OW83671   6.854   2.811  11.370  0.2718  0.1283 -0.2814
58298SOL    HW183672   6.853   2.730  11.319 -1.4848  0.7352 -1.3025
58298SOL    HW283673   6.840   2.880  11.305  0.9403  1.1957  0.6725
58299SOL     OW83674  11.208   5.764   6.037  0.1709  0.7137 -0.4937
58299SOL    HW183675  11.204   5.675   6.072 -1.9203  0.6101 -0.8370
58299SOL    HW283676  11.294   5.797   6.062  0.7059 -1.1606  0.2428
58300SOL     OW83677   6.823   4.690   9.477  0.3877  0.1058  0.4214
58300SOL    HW183678   6.916   4.669   9.479  0.6604  1.0721 -0.7122
58300SOL    HW283679   6.811   4.738   9.395 -1.2843 -0.7639  0.1126
58301SOL     OW83680   7.778   9.392   1.430 -0.8000  0.1201 -0.9217
58301SOL    HW183681   7.860   9.344   1.420  0.0508  1.0848  0.8832
58301SOL    HW283682   7.779   9.457   1.360 -0.6023 -0.6329 -1.6296
58302SOL     OW83683  12.440   3.511   7.228 -0.3142 -0.0257  0.0341
58302SOL    HW183684  12.534   3.523   7.246 -0.7993 -1.3092  5.0879
58302SOL    HW283685  12.406   3.600   7.221  1.2027  0.4672 -1.9222
58303SOL     OW83686  12.290   0.859   8.949  0.0092 -0.3707  0.1718
58303SOL    HW183687  12.219   0.843   8.886  0.6926  0.1337 -0.7624
58303SOL    HW283688  12.370   0.845   8.898  0.6496  2.8667  0.0536
58304SOL     OW83689   0.702   3.432   5.793 -0.1595  0.8114  0.0822
58304SOL    HW183690   0.609   3.452   5.809 -0.1623 -0.0020  1.2618
58304SOL    HW283691   0.725   3.372   5.864  0.4753 -1.4198 -1.8864
58305SOL     OW83692   2.876   1.675   0.209  0.1474  0.4152  0.2627
58305SOL    HW183693   2.924   1.651   0.130  1.9173 -2.1003  1.9469
58305SOL    HW283694   2.912   1.619   0.277 -2.6773  1.0392  2.4797
58306SOL     OW83695   9.778   7.112  11.608 -0.4948 -0.4963  0.3203
58306SOL    HW183696   9.738   7.071  11.685 -2.2617 -0.2927 -0.4544
58306SOL    HW283697   9.716   7.180  11.582  0.6305  0.2027 -0.6213
58307SOL     OW83698   9.084   0.082   1.748 -0.1360 -0.2978 -0.0538
58307SOL    HW183699   9.100  -0.012   1.743 -0.1687 -0.2552 -1.0277
58307SOL    HW283700   9.073   0.099   1.842  0.2764 -1.1920  0.1659
58308SOL     OW83701  12.008   7.928   0.290 -0.5348 -0.1630  0.1489
58308SOL    HW183702  11.960   7.851   0.260 -0.2964  0.1538 -1.1024
58308SOL    HW283703  11.953   7.967   0.358 -1.0578 -0.9448  0.1798
58309SOL     OW83704  12.140  10.289   5.726  0.5235  0.3176  0.6869
58309SOL    HW183705  12.218  10.344   5.735 -0.0953  1.1664  1.0075
58309SOL    HW283706  12.170  10.213   5.677  1.0064  1.7787 -1.4436
58310SOL     OW83707   1.052  10.655   4.254 -0.9120 -0.3163  0.1774
58310SOL    HW183708   1.023  10.704   4.177  1.0998 -1.5134 -1.4172
58310SOL    HW283709   1.024  10.565   4.238 -0.3964 -0.6011  0.8237
58311SOL     OW83710   6.661   0.248   7.969  0.1955 -0.0652 -0.1643
58311SOL    HW183711   6.678   0.178   7.906  0.2276  1.4868 -1.9801
58311SOL    HW283712   6.566   0.260   7.967  0.3919  1.6408 -1.8830
58312SOL     OW83713   5.027   8.057   6.536 -0.0109  0.7545 -0.1350
58312SOL    HW183714   5.010   7.996   6.465 -1.2723  1.4612 -0.4697
58312SOL    HW283715   4.961   8.037   6.602  0.3028  0.9872  0.2606
58313SOL     OW83716   2.087  10.332   2.543 -0.3154  0.0934  0.5951
58313SOL    HW183717   2.097  10.329   2.638 -0.5235  0.0917  0.6164
58313SOL    HW283718   2.030  10.259   2.522  1.4489 -1.2469  0.2405
58314SOL     OW83719   9.364   5.884  10.791  0.3435 -0.0892  0.1407
58314SOL    HW183720   9.287   5.922  10.834  1.7428  1.2602  1.6311
58314SOL    HW283721   9.399   5.955  10.738  0.3248 -0.8339 -0.8902
58315SOL     OW83722   6.055   2.172   7.980  0.1499  0.4092 -0.2190
58315SOL    HW183723   5.996   2.099   7.964  1.4227 -0.7419  0.0938
58315SOL    HW283724   6.113   2.174   7.903  1.9791 -0.8342  1.0343
58316SOL     OW83725   3.120   9.653   5.184  0.3087  0.9667 -0.5310
58316SOL    HW183726   3.125   9.586   5.252 -0.3661 -0.3844 -1.7591
58316SOL    HW283727   3.119   9.735   5.232  1.3639  0.1251  1.0261
58317SOL     OW83728  12.171  12.375   0.795  0.1292 -0.2342 -0.8446
58317SOL    HW183729  12.221  12.445   0.753 -1.4371  0.8177 -1.0522
58317SOL    HW283730  12.169  12.304   0.731  3.4137 -1.3610  0.1139
58318SOL     OW83731   5.890   6.072   7.882 -0.2495 -0.0239  0.1141
58318SOL    HW183732   5.920   5.982   7.871 -0.0218  0.0037  0.5089
58318SOL    HW283733   5.936   6.104   7.960 -0.7950  0.2374  0.3339
58319SOL     OW83734   0.360   0.084   3.262 -0.4835 -0.2870  0.3178
58319SOL    HW183735   0.409   0.019   3.212 -1.7597 -0.8459 -0.2537
58319SOL    HW283736   0.424   0.120   3.324  0.4423 -1.5134  0.1066
58320SOL     OW83737   9.179  12.192   9.513 -0.0216 -0.2394  0.4415
58320SOL    HW183738   9.208  12.278   9.542  1.2387 -0.1700 -0.9250
58320SOL    HW283739   9.084  12.194   9.523  0.1284  0.7170  1.9290
58321SOL     OW83740   3.123  12.005   1.593 -0.1255 -0.1488 -0.3983
58321SOL    HW183741   3.095  11.968   1.677 -1.5575  0.6860 -0.4820
58321SOL    HW283742   3.161  11.931   1.545  0.7301 -0.6383  0.9645
58322SOL     OW83743   3.227   4.733   4.352 -0.2844  0.1647 -0.0127
58322SOL    HW183744   3.203   4.817   4.392  0.6611  0.7478 -0.6368
58322SOL    HW283745   3.322   4.728   4.362 -0.5139 -1.8117  1.8463
58323SOL     OW83746   2.797   8.496  10.630  0.4622 -0.1819  0.8653
58323SOL    HW183747   2.778   8.587  10.607 -1.3977 -0.4943  1.0246
58323SOL    HW283748   2.871   8.473  10.574  0.2483  1.0832  0.0083
58324SOL     OW83749  12.079  11.350  11.593  0.6567  0.0681  0.4607
58324SOL    HW183750  12.152  11.292  11.573  0.3670  0.1918 -1.0699
58324SOL    HW283751  12.030  11.357  11.512 -0.8598  0.3008  1.3502
58325SOL     OW83752   1.320   6.391   8.420  0.3306 -0.0923  0.5714
58325SOL    HW183753   1.249   6.329   8.404  1.3944 -0.9744 -0.9374
58325SOL    HW283754   1.359   6.362   8.502 -1.1251  0.5277  1.5370
58326SOL     OW83755   5.196   5.281   9.769 -0.4125 -0.0403  0.0748
58326SOL    HW183756   5.193   5.375   9.784  0.5874 -0.1593  1.1914
58326SOL    HW283757   5.116   5.261   9.720 -2.0595  0.9694  2.2069
58327SOL     OW83758   1.130   6.202   1.403 -0.8085  0.4685  0.6021
58327SOL    HW183759   1.183   6.222   1.481  1.3377 -0.6825 -0.4540
58327SOL    HW283760   1.134   6.107   1.396  0.7950  0.6116 -1.9576
58328SOL     OW83761   2.593   0.396   1.148 -0.3213  0.7479  0.3103
58328SOL    HW183762   2.638   0.473   1.185 -1.5809  2.2054 -1.0380
58328SOL    HW283763   2.595   0.410   1.054 -0.0459 -1.2427 -0.0189
58329SOL     OW83764   7.525   4.164   5.798  0.7664  0.2764 -0.0293
58329SOL    HW183765   7.585   4.193   5.867  2.1757 -3.5510  0.6259
58329SOL    HW283766   7.580   4.111   5.740 -1.3662 -0.6190 -1.3420
58330SOL     OW83767   7.389   6.086   8.038 -0.2413 -0.8988  0.2936
58330SOL    HW183768   7.317   6.116   7.983 -0.5732  1.3202  1.7867
58330SOL    HW283769   7.350   6.072   8.125  0.6636 -2.1896  0.5310
58331SOL     OW83770   9.985   1.386   9.421  0.4120 -0.4409 -0.1910
58331SOL    HW183771   9.987   1.332   9.342 -0.8082 -0.5298 -0.1682
58331SOL    HW283772  10.017   1.327   9.490 -0.0310 -0.8506 -0.3318
58332SOL     OW83773   8.039  11.664  11.782  0.3543 -0.1169 -0.2045
58332SOL    HW183774   7.984  11.617  11.845 -2.1839  0.7360 -1.6290
58332SOL    HW283775   8.049  11.752  11.820 -1.7264  0.6046 -1.1668
58333SOL     OW83776   8.266  10.381   1.575 -0.0461 -0.4954 -0.3176
58333SOL    HW183777   8.253  10.311   1.511  1.9619 -1.5503  0.3362
58333SOL    HW283778   8.220  10.351   1.653 -0.8541 -0.1289 -0.6448
58334SOL     OW83779   9.938   1.461   2.341 -0.0002  0.7119  0.5904
58334SOL    HW183780   9.912   1.379   2.300  1.8905 -0.0674  0.8287
58334SOL    HW283781   9.871   1.524   2.314 -1.1383 -0.7420 -0.1299
58335SOL     OW83782   4.600   6.461   2.620  0.1580  0.2897 -0.1457
58335SOL    HW183783   4.551   6.406   2.681 -0.6873  0.8180 -0.3197
58335SOL    HW283784   4.584   6.422   2.534  0.7019 -0.0006 -0.1154
58336SOL     OW83785   5.845   7.503  11.047  0.1866 -0.1085 -0.0959
58336SOL    HW183786   5.881   7.418  11.022  0.4680  0.2846 -1.0835
58336SOL    HW283787   5.861   7.559  10.971  0.2256  0.8949  0.6321
58337SOL     OW83788  11.009   5.704   4.549  0.2880  0.1089 -0.9481
58337SOL    HW183789  10.952   5.648   4.496  0.4599 -0.7562 -0.2442
58337SOL    HW283790  11.093   5.658   4.551  0.1313 -0.1795  0.5144
58338SOL     OW83791   4.645   9.510   6.631  0.3742  0.2520 -0.2178
58338SOL    HW183792   4.675   9.476   6.547 -1.0478 -1.7768  0.0307
58338SOL    HW283793   4.594   9.587   6.609  1.8669  1.0715 -0.9937
58339SOL     OW83794  11.657   4.105   7.880  0.1840  0.1667  0.1911
58339SOL    HW183795  11.682   4.159   7.955  0.7056 -1.4474  1.2440
58339SOL    HW283796  11.730   4.114   7.819 -0.0884  1.2380  0.0193
58340SOL     OW83797   8.617   4.874   6.099  0.5130 -0.1593 -0.4838
58340SOL    HW183798   8.671   4.908   6.170  2.4609  0.9977 -2.4052
58340SOL    HW283799   8.674   4.812   6.053 -0.6541 -0.7940 -1.1232
58341SOL     OW83800   1.197  10.002   0.501  0.0901  0.3449 -0.2818
58341SOL    HW183801   1.270   9.973   0.556  1.4981  1.9357 -1.2247
58341SOL    HW283802   1.238  10.030   0.419 -1.5306  1.6048 -0.7195
58342SOL     OW83803   5.714   4.716   3.688  0.3009 -0.4285 -0.0817
58342SOL    HW183804   5.785   4.755   3.738  0.2233 -1.0880  0.5709
58342SOL    HW283805   5.639   4.718   3.748 -0.3678  0.6981 -0.9315
58343SOL     OW83806   6.159  10.137   0.150 -0.3143  0.3772 -0.0533
58343SOL    HW183807   6.136  10.126   0.242 -0.2491  2.5687  0.2820
58343SOL    HW283808   6.109  10.214   0.122  1.3100  1.0533 -1.2329
58344SOL     OW83809   4.462   6.678   7.939  1.0120 -0.7296  0.6694
58344SOL    HW183810   4.530   6.744   7.952  0.7596 -0.6276  1.5043
58344SOL    HW283811   4.393   6.725   7.892  1.6700 -0.9397 -0.5551
58345SOL     OW83812   0.737  11.637   6.586 -0.4412  0.3708 -0.1264
58345SOL    HW183813   0.779  11.719   6.560 -2.5033  1.7572  0.6192
58345SOL    HW283814   0.681  11.615   6.511 -0.7232  0.2553  0.1178
58346SOL     OW83815   0.642   9.963   8.636  0.3398 -0.1622  0.2128
58346SOL    HW183816   0.666  10.049   8.603  0.3941  0.6758  2.2974
58346SOL    HW283817   0.584   9.981   8.711 -0.9092 -1.9741 -0.2436
58347SOL     OW83818   3.042   5.362  11.333  0.2331 -1.0609  0.1810
58347SOL    HW183819   2.955   5.372  11.295  0.2970 -0.6912  0.1339
58347SOL    HW283820   3.026   5.344  11.425  0.1369  0.5132  0.4978
58348SOL     OW83821   9.994  10.065   2.791  0.0483 -0.0176  0.3138
58348SOL    HW183822   9.902  10.054   2.767  0.2303 -0.3730 -0.2389
58348SOL    HW283823  10.013  10.158   2.775  0.4386 -0.4339 -1.9718
58349SOL     OW83824  12.121   4.951   4.848 -0.1014 -0.4200  1.2134
58349SOL    HW183825  12.153   5.003   4.922  1.9054 -2.7832  2.1564
58349SOL    HW283826  12.196   4.945   4.789 -1.1747  0.0611 -0.2284
58350SOL     OW83827   1.049   5.771   1.941 -0.6558  0.1352 -0.4597
58350SOL    HW183828   1.007   5.700   1.892 -0.2888  0.8744 -1.8962
58350SOL    HW283829   1.042   5.848   1.884  0.0702  0.9547  0.5157
58351SOL     OW83830   2.927  10.869   5.296 -1.0231 -0.1752 -0.3385
58351SOL    HW183831   2.965  10.944   5.251 -0.4250  0.3325  0.9492
58351SOL    HW283832   2.887  10.906   5.375 -0.1945 -1.2686  0.6241
58352SOL     OW83833   1.306   3.600   3.799  0.2459 -0.3422  0.1493
58352SOL    HW183834   1.229   3.625   3.850  1.0532 -3.2398  3.1115
58352SOL    HW283835   1.376   3.656   3.833  0.2447 -0.4173  0.2750
58353SOL     OW83836  10.816   6.091   4.019 -0.0712  0.0022  0.1897
58353SOL    HW183837  10.818   6.000   4.050 -1.7137 -0.1340  0.0365
58353SOL    HW283838  10.723   6.108   4.003 -0.1731  2.5654  2.6569
58354SOL     OW83839   7.067   5.258   3.777 -0.7538  0.3878  0.2217
58354SOL    HW183840   7.087   5.274   3.869 -1.7836 -0.0266  0.5309
58354SOL    HW283841   7.151   5.232   3.738 -0.4495 -0.1524  1.2076
58355SOL     OW83842   3.718  10.329   1.705 -0.1724  0.0553 -0.2170
58355SOL    HW183843   3.721  10.320   1.610 -1.8763 -2.0083 -0.1808
58355SOL    HW283844   3.794  10.280   1.737  0.0508  0.2241 -0.4878
58356SOL     OW83845   9.519   1.761   7.164 -0.5828 -0.1808 -0.6653
58356SOL    HW183846   9.436   1.724   7.136 -0.4279 -0.5708 -0.6136
58356SOL    HW283847   9.580   1.740   7.094 -0.2085 -1.1096 -0.0768
58357SOL     OW83848   4.005   6.508   0.956  0.6936 -0.4435 -0.1549
58357SOL    HW183849   3.922   6.494   0.911  0.4983 -1.5332  0.4999
58357SOL    HW283850   3.987   6.578   1.018  0.6324  0.2178 -0.8999
58358SOL     OW83851   0.657  12.473  11.800  0.6654  0.1036  0.0793
58358SOL    HW183852   0.665  12.474  11.704  0.7187  0.9859  0.0810
58358SOL    HW283853   0.699  12.554  11.828 -0.1508  0.2998  0.7868
58359SOL     OW83854  10.616   1.569   7.292 -0.1568 -0.1425  0.3140
58359SOL    HW183855  10.710   1.574   7.274 -0.2358  3.7602  0.0640
58359SOL    HW283856  10.610   1.564   7.387  0.3074 -0.3672  0.3329
58360SOL     OW83857   3.745   0.329   6.429  0.6034  0.1240  0.0218
58360SOL    HW183858   3.829   0.293   6.456  0.2484  0.5266  1.7404
58360SOL    HW283859   3.695   0.253   6.399  1.4658 -0.1456 -0.7838
58361SOL     OW83860  11.933   1.185   3.685  0.2864  0.1013  0.3993
58361SOL    HW183861  11.972   1.271   3.665  0.8057 -0.3049 -0.4170
58361SOL    HW283862  11.998   1.142   3.741  0.5047 -0.1561 -0.0508
58362SOL     OW83863   4.210   4.624   1.570 -0.0098 -0.2448  0.3589
58362SOL    HW183864   4.248   4.656   1.489 -0.2350 -1.9796 -0.4779
58362SOL    HW283865   4.137   4.683   1.588  0.2970  0.3963 -0.4795
58363SOL     OW83866   6.004   1.355   2.964 -0.3255  0.2711 -0.3316
58363SOL    HW183867   6.066   1.416   3.004 -1.8939  0.3740  2.1057
58363SOL    HW283868   6.002   1.280   3.023 -3.7449  1.0223  0.7184
58364SOL     OW83869  11.116   2.480  10.749  0.1057  0.2784 -0.0374
58364SOL    HW183870  11.023   2.482  10.728 -0.0411 -0.5542  0.4938
58364SOL    HW283871  11.121   2.508  10.840  0.3870  0.4220 -0.0947
58365SOL     OW83872   0.163  10.736   8.237 -0.1204 -0.7603  0.5040
58365SOL    HW183873   0.093  10.683   8.277 -0.1330 -0.6490  0.6328
58365SOL    HW283874   0.141  10.739   8.144 -0.8413  0.0950  0.6832
58366SOL     OW83875  11.536   1.693   6.342 -0.3726 -0.7226  0.1008
58366SOL    HW183876  11.457   1.712   6.291 -1.0753 -1.3758  0.8998
58366SOL    HW283877  11.562   1.605   6.314 -0.5626 -0.9424  0.5889
58367SOL     OW83878   4.858  12.485   1.223 -0.5061 -0.2887 -0.2337
58367SOL    HW183879   4.820  12.542   1.291 -2.1407  1.6437 -2.5930
58367SOL    HW283880   4.953  12.487   1.241 -0.6767  1.8696  0.7723
58368SOL     OW83881   3.002  10.372  11.591  0.0295  0.0502 -0.5319
58368SOL    HW183882   3.076  10.360  11.531  1.5589  0.8964  1.0515
58368SOL    HW283883   2.991  10.286  11.632 -0.8578 -0.4631 -1.8071
58369SOL     OW83884   9.434   0.896   7.568 -0.4028  0.3250 -0.1508
58369SOL    HW183885   9.439   0.933   7.480  0.8068 -0.2319 -0.3453
58369SOL    HW283886   9.464   0.806   7.557  0.0407  0.3357  0.8713
58370SOL     OW83887   5.912   8.793  10.139 -0.4869  0.2057 -0.2332
58370SOL    HW183888   5.829   8.761  10.176 -0.8079  0.5530 -0.6506
58370SOL    HW283889   5.891   8.880  10.105  0.9035  1.9210  2.9149
58371SOL     OW83890   9.111  10.432   5.016 -0.0271  0.3076 -0.1845
58371SOL    HW183891   9.057  10.366   5.059  0.0071  0.1080 -0.4440
58371SOL    HW283892   9.059  10.512   5.018 -0.0197  0.3033  0.2344
58372SOL     OW83893  10.588   4.485   2.010 -0.3795 -0.0013 -0.1807
58372SOL    HW183894  10.531   4.421   1.968  0.0902 -0.0347 -0.7857
58372SOL    HW283895  10.676   4.460   1.983 -0.0938  0.1902  0.5542
58373SOL     OW83896   7.847  10.552   2.460 -0.0741  0.0233 -0.3592
58373SOL    HW183897   7.911  10.513   2.400  0.4301 -1.5609  1.1369
58373SOL    HW283898   7.876  10.643   2.470  0.6990 -0.0943 -1.3455
58374SOL     OW83899   0.007   4.695  11.958 -0.3484 -0.3366  0.8177
58374SOL    HW183900  -0.026   4.782  11.936  1.1231  0.4943  1.7458
58374SOL    HW283901  -0.004   4.688  12.053  0.6489 -0.6552  0.9232
58375SOL     OW83902   6.790   9.177   1.498  0.1445  0.4156 -0.0610
58375SOL    HW183903   6.812   9.084   1.500 -0.4033  0.1406 -2.6516
58375SOL    HW283904   6.767   9.194   1.406 -2.1665  2.5634  0.7910
58376SOL     OW83905   1.693   5.401  11.204  0.4266  0.2858 -0.0227
58376SOL    HW183906   1.671   5.494  11.200 -0.9937 -0.0657 -1.6747
58376SOL    HW283907   1.610   5.357  11.187  1.3834 -1.2456 -0.9306
58377SOL     OW83908  12.401   3.158   7.039  0.3506 -0.1871 -0.3280
58377SOL    HW183909  12.477   3.211   7.015  1.2307 -0.6064  1.3750
58377SOL    HW283910  12.375   3.192   7.125 -1.3973 -0.0661 -0.8722
58378SOL     OW83911  12.345  10.022   8.797 -0.1479 -0.0203  0.1276
58378SOL    HW183912  12.354  10.115   8.814  0.5770 -0.1001  0.1836
58378SOL    HW283913  12.251  10.006   8.802 -0.0852  0.0580  3.4811
58379SOL     OW83914   9.221   4.968   7.145  0.7800  0.1640  0.0508
58379SOL    HW183915   9.206   5.028   7.072 -0.2047 -1.5618 -1.2600
58379SOL    HW283916   9.196   5.017   7.223 -1.1661  1.0660 -1.0746
58380SOL     OW83917   9.186  10.059  11.130 -0.2999  0.1023 -0.2678
58380SOL    HW183918   9.169   9.967  11.108 -2.2472  0.8185 -2.1025
58380SOL    HW283919   9.196  10.060  11.225  3.4323 -2.4846 -0.4147
58381SOL     OW83920  10.112   4.624  10.796  0.2834 -0.0309 -0.2598
58381SOL    HW183921  10.037   4.583  10.755  0.5362 -1.1394  0.3492
58381SOL    HW283922  10.095   4.718  10.790 -2.1952 -0.2390  1.7314
58382SOL     OW83923   9.458   7.272   1.764 -0.2975  0.0879 -1.0061
58382SOL    HW183924   9.500   7.192   1.792 -0.2290 -0.0516 -1.4930
58382SOL    HW283925   9.502   7.342   1.813 -0.5057 -0.1856 -0.4227
58383SOL     OW83926   4.751   5.061   8.589  0.5117 -0.4965  0.1952
58383SOL    HW183927   4.821   5.112   8.549 -0.3355  1.4517  1.1024
58383SOL    HW283928   4.796   4.999   8.647  1.5833 -1.4001 -1.5098
58384SOL     OW83929   4.667   3.250   9.150 -0.5821  0.1378 -0.4519
58384SOL    HW183930   4.647   3.301   9.229  0.6026 -0.5023  0.2798
58384SOL    HW283931   4.586   3.253   9.099 -1.4484  0.3613  0.8924
58385SOL     OW83932   5.784  11.974   6.957  0.2868 -0.1555 -0.7830
58385SOL    HW183933   5.738  12.021   6.888 -1.7098  0.1536  0.6581
58385SOL    HW283934   5.838  12.040   7.000 -0.8122  0.3912 -0.1774
58386SOL     OW83935   2.608   7.009   9.201 -0.1356  0.5012 -0.4196
58386SOL    HW183936   2.613   6.915   9.183 -0.1404  0.6671 -1.3345
58386SOL    HW283937   2.514   7.026   9.212 -0.4795  0.8925 -3.2290
58387SOL     OW83938   1.416   6.461  12.372 -0.0711 -0.6592 -0.1364
58387SOL    HW183939   1.388   6.383  12.421  1.3754 -0.8132  0.4830
58387SOL    HW283940   1.334   6.504  12.347 -0.8816 -0.6482  2.2723
58388SOL     OW83941  11.374   7.624  10.071  0.0318  0.0018  0.2207
58388SOL    HW183942  11.469   7.627  10.076 -0.0105 -0.3611  2.0864
58388SOL    HW283943  11.347   7.576  10.150 -1.7143  0.5669  0.0218
58389SOL     OW83944   0.944  11.653   3.967  0.2847 -0.2983  0.5723
58389SOL    HW183945   0.904  11.733   3.932 -1.9614 -1.5765  0.0440
58389SOL    HW283946   0.995  11.617   3.894  3.1183  1.6277  1.4089
58390SOL     OW83947   7.417   0.175   3.882  0.0333 -0.8145  0.2773
58390SOL    HW183948   7.415   0.129   3.966  0.5219 -1.2223  0.0723
58390SOL    HW283949   7.325   0.194   3.862 -0.3133 -2.8432 -0.2435
58391SOL     OW83950   0.899  11.825   1.473  0.7376 -0.1624  0.1375
58391SOL    HW183951   0.924  11.780   1.553  1.0449 -0.9992 -0.4249
58391SOL    HW283952   0.923  11.917   1.489 -1.1178  0.1034  1.8052
58392SOL     OW83953   7.923   4.641   0.297 -0.3434 -0.2585 -0.4921
58392SOL    HW183954   7.977   4.655   0.220 -1.2739 -0.3248 -1.1828
58392SOL    HW283955   7.855   4.708   0.292 -1.6830 -1.5708 -0.9347
58393SOL     OW83956  10.431   9.678  11.406 -0.0787  0.1291  0.4211
58393SOL    HW183957  10.356   9.712  11.358  0.2600  0.3712  0.0626
58393SOL    HW283958  10.394   9.607  11.460 -0.4893 -0.0403 -0.0692
58394SOL     OW83959   9.497   9.064   2.084 -0.2431  0.7350  0.1267
58394SOL    HW183960   9.530   8.975   2.098  1.4031  1.3402  0.3071
58394SOL    HW283961   9.549   9.099   2.012 -0.6550  1.6625  0.2557
58395SOL     OW83962   5.911   3.113   1.081 -0.3150 -0.5622  0.2618
58395SOL    HW183963   5.938   3.074   0.998 -1.0766 -0.8576  0.1452
58395SOL    HW283964   5.816   3.101   1.084 -0.2513 -0.9382  1.3651
58396SOL     OW83965   9.370   7.931   2.124  0.6359  0.6838  0.3853
58396SOL    HW183966   9.462   7.952   2.112  1.1721  0.8570  3.9975
58396SOL    HW283967   9.367   7.873   2.200 -2.0880 -1.2556 -1.0005
58397SOL     OW83968   0.882   6.910   8.072  0.2858 -0.5145 -0.6910
58397SOL    HW183969   0.853   7.002   8.074  1.9328  0.0818 -1.9440
58397SOL    HW283970   0.801   6.860   8.081 -0.4850  0.9979  2.0788
58398SOL     OW83971  11.921   2.712   1.977 -0.0818  0.1091  0.2400
58398SOL    HW183972  11.886   2.750   1.896  0.2035 -0.7140 -0.2913
58398SOL    HW283973  11.862   2.640   1.996  1.2411 -1.2967 -0.6625
58399SOL     OW83974   4.211   7.701   9.069 -0.4683  0.3185  0.1422
58399SOL    HW183975   4.291   7.670   9.026 -0.7486 -1.0778  0.5575
58399SOL    HW283976   4.227   7.688   9.162 -0.9189  0.6959  0.2774
58400SOL     OW83977   3.932   7.332   2.857 -0.2487 -0.3370 -0.1168
58400SOL    HW183978   3.922   7.278   2.935  1.4741  0.4370  0.6855
58400SOL    HW283979   3.878   7.409   2.874 -2.6956 -1.6780 -1.2554
58401SOL     OW83980  12.225   9.258   4.886  0.0084 -0.2183 -0.5369
58401SOL    HW183981  12.203   9.191   4.823  0.2578  2.1802 -3.3911
58401SOL    HW283982  12.312   9.233   4.919 -0.7392 -2.2507  0.0397
58402SOL     OW83983  11.986  12.053   5.527 -0.0567  0.1522 -0.0999
58402SOL    HW183984  12.016  12.132   5.483  1.1167 -0.6908 -0.8936
58402SOL    HW283985  11.915  12.020   5.472 -0.4650  0.5774  0.1659
58403SOL     OW83986  10.463   7.146   7.474 -0.1715 -0.2847 -0.1241
58403SOL    HW183987  10.434   7.219   7.419 -1.5899 -2.7426 -2.8920
58403SOL    HW283988  10.555   7.133   7.449 -0.3505 -0.3736 -0.7494
58404SOL     OW83989   6.112   0.235  10.739  0.2015  0.3590  0.8089
58404SOL    HW183990   6.192   0.238  10.792  0.1217 -0.1672  0.9671
58404SOL    HW283991   6.124   0.303  10.673  1.3825 -0.6365 -0.0349
58405SOL     OW83992   5.742   8.525  11.193  0.5001 -0.3137 -0.0046
58405SOL    HW183993   5.653   8.558  11.179  0.3846 -0.1665  0.9916
58405SOL    HW283994   5.796   8.572  11.129 -0.0102  0.1722 -0.0823
58406SOL     OW83995   2.382   0.158   2.561  0.5503 -0.0905  0.4130
58406SOL    HW183996   2.443   0.131   2.493 -0.8631 -0.3868 -0.8041
58406SOL    HW283997   2.330   0.228   2.520 -0.5677 -0.5176  1.0487
58407SOL     OW83998   0.252   6.456  11.582  0.3492 -0.6100  0.4788
58407SOL    HW183999   0.284   6.404  11.656 -1.1857 -1.6112  0.4774
58407SOL    HW284000   0.173   6.498  11.615  1.8324  2.2695  0.6610
58408SOL     OW84001   5.249  11.095   8.460  0.0562 -0.2898  0.2056
58408SOL    HW184002   5.333  11.096   8.415  1.5559  1.9955  2.7216
58408SOL    HW284003   5.209  11.180   8.438 -1.5161 -1.2366 -0.7358
58409SOL     OW84004   0.846   0.073  11.115  0.5506 -0.5011 -0.4130
58409SOL    HW184005   0.843   0.078  11.210 -1.4134 -1.3649 -0.3816
58409SOL    HW284006   0.889   0.153  11.088  1.0514 -0.1943  1.1998
58410SOL     OW84007  11.434  10.708   2.534  0.3344  0.2609  0.2243
58410SOL    HW184008  11.349  10.678   2.568 -0.3421  0.6786 -1.0490
58410SOL    HW284009  11.495  10.638   2.559 -0.6784 -0.8106 -0.1970
58411SOL     OW84010   9.116   3.772   8.409  0.3473 -0.6705  0.9553
58411SOL    HW184011   9.103   3.824   8.330  1.6850  0.6557  1.5612
58411SOL    HW284012   9.036   3.720   8.417  0.2820 -1.0429 -1.3989
58412SOL     OW84013   6.771   9.891  12.184  0.7319 -0.0475  0.3880
58412SOL    HW184014   6.694   9.912  12.237  1.1026 -1.2731  1.4743
58412SOL    HW284015   6.825   9.970  12.188 -1.1283  1.4413 -1.7265
58413SOL     OW84016   8.604  11.171   4.589  0.7998  0.2831  0.3690
58413SOL    HW184017   8.596  11.248   4.646  0.7180  0.7573 -0.2725
58413SOL    HW284018   8.567  11.099   4.640 -2.5211  1.3225 -0.3435
58414SOL     OW84019   1.575  12.098   2.396 -0.3625 -0.3106  0.0726
58414SOL    HW184020   1.586  12.160   2.323 -1.4209  0.5191  0.5910
58414SOL    HW284021   1.606  12.014   2.361 -1.0713  0.0152 -1.4203
58415SOL     OW84022   3.670  11.898   3.432 -0.2037  0.1289 -0.0665
58415SOL    HW184023   3.598  11.945   3.389 -1.2094 -1.0177  0.2977
58415SOL    HW284024   3.669  11.931   3.522 -0.5100 -0.1280  0.0280
58416SOL     OW84025   1.858   6.933   1.126  0.1793  0.1429 -0.1970
58416SOL    HW184026   1.851   6.967   1.215  0.5435  0.0361 -0.1280
58416SOL    HW284027   1.939   6.970   1.092 -0.9247  1.8072 -1.1927
58417SOL     OW84028   8.174  11.522   4.556  0.0359 -0.2078 -0.5846
58417SOL    HW184029   8.225  11.487   4.629 -0.4111 -0.8237 -0.5613
58417SOL    HW284030   8.229  11.507   4.479  0.0319 -0.5609 -0.5176
58418SOL     OW84031  12.298  12.556   2.200 -0.1326 -0.2501  0.1361
58418SOL    HW184032  12.312  12.563   2.294  1.0202 -0.0290 -0.0465
58418SOL    HW284033  12.281  12.646   2.171  1.6547  0.0071 -0.1858
58419SOL     OW84034   8.151   3.403   7.153 -0.3997 -0.2320  0.2741
58419SOL    HW184035   8.176   3.386   7.243  0.6779 -0.3566 -0.0386
58419SOL    HW284036   8.077   3.344   7.137 -1.6331  0.9190  1.5425
58420SOL     OW84037   1.824  12.569   4.996  0.1709  0.4298  0.2622
58420SOL    HW184038   1.883  12.512   4.947  0.4919  1.3222 -0.4189
58420SOL    HW284039   1.766  12.509   5.044  0.3533 -0.4555 -0.6067
58421SOL     OW84040   9.639   0.213   6.128  0.3593  0.2422 -0.3670
58421SOL    HW184041   9.653   0.132   6.078  0.1282  0.0014 -0.0423
58421SOL    HW284042   9.707   0.273   6.095  0.1727  0.1091 -1.0191
58422SOL     OW84043   9.094  11.777  11.096 -0.0701 -0.0164  0.0672
58422SOL    HW184044   9.130  11.863  11.118  1.2109 -0.7907  1.1120
58422SOL    HW284045   9.003  11.782  11.125 -0.0022  0.9652  0.1536
58423SOL     OW84046   1.944   5.211   8.433 -0.0024 -0.0727  0.2970
58423SOL    HW184047   1.894   5.138   8.396 -1.7169  0.8715  0.6788
58423SOL    HW284048   1.879   5.280   8.448  1.4564  1.2859  0.6157
58424SOL     OW84049  12.073   7.892   5.833 -0.2365 -0.0865  0.2545
58424SOL    HW184050  12.138   7.822   5.839  1.1699  0.7493 -2.9238
58424SOL    HW284051  11.996   7.851   5.795  0.3186 -0.1040 -0.8878
58425SOL     OW84052  11.619   5.143   0.933 -0.0732 -0.4794 -0.5913
58425SOL    HW184053  11.577   5.121   1.016 -1.1194  0.2535 -0.8988
58425SOL    HW284054  11.553   5.122   0.867  0.2620  0.1557 -1.1347
58426SOL     OW84055   7.469   2.693  10.156  0.4498 -0.8037  0.3634
58426SOL    HW184056   7.559   2.725  10.144  1.0438 -1.6770  2.0732
58426SOL    HW284057   7.417   2.772  10.166  1.1606 -0.2975  0.1439
58427SOL     OW84058  10.073  11.778   2.965  0.2168 -0.3734  0.8684
58427SOL    HW184059  10.042  11.786   3.055 -0.5755 -0.5449  0.6232
58427SOL    HW284060  10.137  11.848   2.955 -1.1071  0.9227  0.9992
58428SOL     OW84061   4.810   3.439  11.912 -0.0102  0.3753 -0.1379
58428SOL    HW184062   4.846   3.528  11.920 -0.7774  0.7917 -1.0702
58428SOL    HW284063   4.805   3.424  11.818  2.1840 -1.5483 -0.0320
58429SOL     OW84064   3.188  11.411   2.231 -0.0563  0.4324  0.0560
58429SOL    HW184065   3.251  11.430   2.300 -0.6776  0.4856  0.6173
58429SOL    HW284066   3.237  11.423   2.149  0.6383  0.5258  0.4814
58430SOL     OW84067  11.243   5.228   6.041  0.3946  0.2601 -0.3423
58430SOL    HW184068  11.154   5.207   6.011  0.1998  0.5203  0.0439
58430SOL    HW284069  11.294   5.149   6.021  0.5585  0.8585 -2.4875
58431SOL     OW84070   3.789   7.159   0.642 -0.0170 -0.0350  0.1339
58431SOL    HW184071   3.842   7.084   0.615  0.9799  0.5753  0.3456
58431SOL    HW284072   3.818   7.230   0.586 -1.6862 -0.0256 -0.7767
58432SOL     OW84073   6.671   8.870   3.000 -0.3586  0.3529  0.1675
58432SOL    HW184074   6.728   8.915   3.062 -0.0840  1.7337 -1.0389
58432SOL    HW284075   6.631   8.940   2.948  1.9555 -0.7329 -3.4547
58433SOL     OW84076   2.236   8.969  11.375  0.0639  0.0681  0.2514
58433SOL    HW184077   2.237   8.873  11.374 -0.2171  0.0656 -0.0532
58433SOL    HW284078   2.328   8.994  11.370  0.0773 -0.1801 -1.3759
58434SOL     OW84079   3.840   4.921   6.654 -0.0915  0.3169 -0.0648
58434SOL    HW184080   3.911   4.869   6.691  0.2456 -0.6294 -1.9048
58434SOL    HW284081   3.883   4.999   6.620  0.0073 -0.0269 -0.7423
58435SOL     OW84082   9.692   6.061   0.201  0.0714 -0.9628 -0.1483
58435SOL    HW184083   9.675   5.981   0.152  1.9473 -0.8690 -1.0135
58435SOL    HW284084   9.786   6.075   0.194 -0.0756  0.8334  0.7613
58436SOL     OW84085  11.361   1.278   1.944 -0.3304  0.1811 -0.3152
58436SOL    HW184086  11.418   1.243   1.875 -0.9328 -2.1286  0.2506
58436SOL    HW284087  11.356   1.372   1.926  1.8407  0.1192 -1.6812
58437SOL     OW84088   3.108  12.451  10.211 -0.0648 -0.2281  0.1057
58437SOL    HW184089   3.172  12.515  10.241  0.0211 -0.0315 -0.4909
58437SOL    HW284090   3.136  12.369  10.253 -0.1864  0.1206  0.8803
58438SOL     OW84091  10.122   9.081   2.515  0.3480 -0.3898 -0.1359
58438SOL    HW184092  10.178   9.044   2.447  0.0898 -0.7444 -0.1589
58438SOL    HW284093  10.039   9.034   2.506 -0.5465  1.3258 -1.2469
58439SOL     OW84094  10.180   6.977   9.178  0.0794 -0.1972  0.2526
58439SOL    HW184095  10.180   7.058   9.127 -0.5708 -0.3555 -0.0106
58439SOL    HW284096  10.144   7.002   9.263 -1.7042 -0.5161 -0.3681
58440SOL     OW84097   3.546   0.144   4.130 -0.3840  0.1449  0.3656
58440SOL    HW184098   3.585   0.062   4.160  2.0507  0.9612 -0.3527
58440SOL    HW284099   3.460   0.117   4.095  0.8012 -2.3047 -0.9393
58441SOL     OW84100   0.670   6.288   4.759  0.6711  0.2010  0.1749
58441SOL    HW184101   0.676   6.194   4.775  1.7519  0.3878  0.9808
58441SOL    HW284102   0.758   6.321   4.778 -0.2265  1.6822  2.0253
58442SOL     OW84103   3.524   1.295   6.374  0.1655  0.2139  0.1963
58442SOL    HW184104   3.482   1.352   6.438  0.5868  1.9821 -1.0049
58442SOL    HW284105   3.536   1.351   6.297  0.2108 -1.6413 -1.2275
58443SOL     OW84106   1.397   6.018  12.571  0.1170  0.1133 -0.1712
58443SOL    HW184107   1.483   5.977  12.573  0.0270 -0.0603  0.3113
58443SOL    HW284108   1.340   5.952  12.531 -0.1356 -0.4726  1.0806
58444SOL     OW84109  12.532  11.027   1.854  0.3744 -0.7680 -0.7231
58444SOL    HW184110  12.577  11.108   1.880 -3.2426  0.9387  0.8382
58444SOL    HW284111  12.529  11.031   1.759 -0.4611  1.4468 -0.6599
58445SOL     OW84112   0.131   6.564   2.334  0.1787  0.8854 -0.0050
58445SOL    HW184113   0.138   6.472   2.308 -0.5299  0.4419  1.2596
58445SOL    HW284114   0.076   6.604   2.267 -0.8240 -0.0014  0.2615
58446SOL     OW84115   3.721  11.802   0.491  0.3708 -0.2750 -0.4256
58446SOL    HW184116   3.641  11.856   0.495  2.0956  2.3962  1.7160
58446SOL    HW284117   3.788  11.861   0.458  2.1241 -1.4997  0.7688
58447SOL     OW84118  11.402   9.639  11.857 -0.6690 -0.9069  0.1861
58447SOL    HW184119  11.456   9.591  11.919 -0.0071  1.2568  1.4043
58447SOL    HW284120  11.444   9.625  11.772  0.8944 -0.5518  0.8758
58448SOL     OW84121  11.283   6.008   5.377  0.4381  0.0065 -0.4188
58448SOL    HW184122  11.335   6.087   5.363  0.3842 -0.0975 -1.2757
58448SOL    HW284123  11.192   6.038   5.372  0.3930 -0.3377 -2.3529
58449SOL     OW84124   2.792   4.327   7.947 -0.6692 -0.2192 -0.4384
58449SOL    HW184125   2.871   4.285   7.913 -0.3226  1.8500 -2.4160
58449SOL    HW284126   2.723   4.262   7.936  0.4978 -1.6367  0.2231
58450SOL     OW84127   0.973   2.119  11.577  0.4922  0.0452 -0.3628
58450SOL    HW184128   1.033   2.105  11.504  2.4020  0.1319  1.1089
58450SOL    HW284129   0.937   2.033  11.595  1.4434 -0.3424 -0.2509
58451SOL     OW84130   9.305   3.902  10.100 -0.3798 -0.1155 -0.7739
58451SOL    HW184131   9.260   3.986  10.095  0.3898  0.3317 -0.3488
58451SOL    HW284132   9.363   3.901  10.023 -1.5917 -0.9921 -1.7180
58452SOL     OW84133   6.176   3.753   4.633 -0.6490 -0.2041 -0.5035
58452SOL    HW184134   6.232   3.830   4.644 -1.4490  0.3354 -0.1675
58452SOL    HW284135   6.223   3.699   4.568 -0.0733  0.5452 -0.7280
58453SOL     OW84136   4.327  12.143   8.595  0.1207  0.3957  0.1996
58453SOL    HW184137   4.275  12.063   8.601  0.5380  0.1477  0.6174
58453SOL    HW284138   4.273  12.204   8.545 -0.6720  0.2249  0.8362
58454SOL     OW84139   2.749   3.215   8.542  0.2292 -0.1115  0.5768
58454SOL    HW184140   2.716   3.275   8.475 -1.4735 -1.5313  0.0771
58454SOL    HW284141   2.670   3.184   8.587  1.2474 -0.1439  2.4482
58455SOL     OW84142   8.351   6.037   3.958  0.8764 -0.4497  0.2928
58455SOL    HW184143   8.312   6.106   3.905 -0.4834 -0.2397  1.5063
58455SOL    HW284144   8.359   5.962   3.898  0.7612  0.2248 -0.5809
58456SOL     OW84145   9.060  10.065   1.753 -0.1626 -0.3969 -0.2947
58456SOL    HW184146   9.141  10.108   1.779 -0.5734  0.4472 -0.4011
58456SOL    HW284147   9.038  10.103   1.668  0.1275 -1.7227 -0.9959
58457SOL     OW84148   0.121   7.887  12.230 -0.2608  0.4155 -0.3395
58457SOL    HW184149   0.203   7.847  12.260  2.0876  2.8566 -2.8667
58457SOL    HW284150   0.068   7.894  12.310  2.4668 -0.2338  1.7124
58458SOL     OW84151   3.660   1.271   7.612 -0.0410 -0.1628 -0.3506
58458SOL    HW184152   3.614   1.353   7.629 -1.2260 -0.9166  0.2016
58458SOL    HW284153   3.631   1.212   7.681  0.1045 -1.3276 -1.2517
58459SOL     OW84154   2.684   2.270   0.267 -0.0955  0.6873 -0.1899
58459SOL    HW184155   2.698   2.363   0.250 -0.5470  0.8180  0.1436
58459SOL    HW284156   2.771   2.236   0.285 -0.0116  1.2043  0.4507
58460SOL     OW84157   6.628  11.742   8.510 -0.2247  0.4960 -0.2692
58460SOL    HW184158   6.609  11.826   8.552  0.5794  1.3102 -1.4618
58460SOL    HW284159   6.707  11.759   8.458  0.3096 -1.1746 -0.0458
58461SOL     OW84160  10.910   0.208   3.834 -0.2007 -0.1724 -0.0429
58461SOL    HW184161  10.943   0.218   3.745 -1.9055 -0.7255 -0.7871
58461SOL    HW284162  10.932   0.118   3.857  0.8946  0.1951  0.4054
58462SOL     OW84163   3.988   1.003  10.948 -1.0008 -0.2488  0.1156
58462SOL    HW184164   3.969   1.071  11.013 -0.4663  0.4714 -0.4571
58462SOL    HW284165   4.004   0.924  10.999  1.1760  0.6762  1.0019
58463SOL     OW84166   7.624   2.506   4.389 -0.4796  0.4228  0.1552
58463SOL    HW184167   7.705   2.467   4.422 -1.7379 -1.3450  1.3308
58463SOL    HW284168   7.586   2.548   4.467 -1.3086  0.1183 -0.0816
58464SOL     OW84169  12.543  10.250   7.921 -0.4478 -0.1502  0.3413
58464SOL    HW184170  12.630  10.284   7.943 -1.0697  0.9687  1.1578
58464SOL    HW284171  12.508  10.313   7.857  0.5954 -2.3612 -2.6453
58465SOL     OW84172   9.822   2.807  10.643 -0.4768  0.7049  0.0723
58465SOL    HW184173   9.867   2.891  10.633  1.1851 -0.3574 -2.1014
58465SOL    HW284174   9.887   2.750  10.683 -0.6791 -0.2395 -0.9214
58466SOL     OW84175  10.525   3.979   3.904  0.1425  0.6291  0.2374
58466SOL    HW184176  10.618   3.989   3.923  0.2022 -0.6252  0.6944
58466SOL    HW284177  10.497   4.066   3.874  1.5499  0.9096 -0.3435
58467SOL     OW84178   6.477   9.541   2.104  0.3722 -0.1640  0.4372
58467SOL    HW184179   6.537   9.497   2.164  0.6958  0.0428  0.2665
58467SOL    HW284180   6.534   9.587   2.042  0.0555 -0.5295 -0.1454
58468SOL     OW84181   5.658   4.695   4.413  0.5113 -0.4615  0.1475
58468SOL    HW184182   5.644   4.786   4.442  2.0169 -1.1456  3.3917
58468SOL    HW284183   5.573   4.668   4.379 -1.1341  1.0130  2.7323
58469SOL     OW84184   8.631   8.558   9.595  0.6442 -0.2147 -0.6742
58469SOL    HW184185   8.663   8.555   9.685 -0.3026  1.9682 -0.2015
58469SOL    HW284186   8.696   8.509   9.545  1.4088 -1.1327  1.1227
58470SOL     OW84187   5.524  10.583   7.003 -0.3341 -0.1516  0.5760
58470SOL    HW184188   5.506  10.671   7.037 -3.4805  0.6955 -2.6320
58470SOL    HW284189   5.608  10.592   6.957 -1.1715  1.5985 -0.7202
58471SOL     OW84190   8.052   0.345   5.541  0.0607  0.2288  0.3531
58471SOL    HW184191   8.112   0.277   5.570  0.7374  0.3849 -0.6480
58471SOL    HW284192   8.000   0.304   5.472  0.9970  0.9232 -0.7978
58472SOL     OW84193   8.905   1.123   9.974 -0.0829 -0.3268 -0.3997
58472SOL    HW184194   8.977   1.171  10.015 -0.4974  0.7130 -0.8520
58472SOL    HW284195   8.826   1.163  10.010 -0.4419 -0.1895 -1.3105
58473SOL     OW84196  10.387   3.641   5.117 -0.0885  0.0359 -0.5363
58473SOL    HW184197  10.297   3.609   5.111  0.5610 -1.7250 -1.7358
58473SOL    HW284198  10.412   3.628   5.208 -0.4167 -1.3250 -0.6260
58474SOL     OW84199  11.715   7.730   4.029  0.3471 -0.1819 -0.1490
58474SOL    HW184200  11.720   7.766   4.118 -2.0643  0.5661 -0.2172
58474SOL    HW284201  11.719   7.808   3.973 -2.0437 -0.1657 -0.4321
58475SOL     OW84202   6.937  10.329   8.305 -0.9910 -0.2442 -0.2458
58475SOL    HW184203   7.003  10.377   8.354 -0.9908 -1.4205  0.9926
58475SOL    HW284204   6.985  10.288   8.234 -0.7597  0.5107 -0.5305
58476SOL     OW84205   8.340   9.160   5.760  0.4510  0.0188  0.2668
58476SOL    HW184206   8.284   9.221   5.809 -0.4171 -1.2270  0.8660
58476SOL    HW284207   8.379   9.104   5.827 -1.3261 -2.1874 -0.4221
58477SOL     OW84208  11.004   3.654   1.463  0.1093  0.2520  0.2019
58477SOL    HW184209  11.089   3.644   1.506 -0.3149 -1.1085  0.7901
58477SOL    HW284210  10.992   3.749   1.456  0.6062  0.5227  2.2954
58478SOL     OW84211   0.627   8.159   5.572 -0.3078 -0.3998  0.3095
58478SOL    HW184212   0.645   8.141   5.479  2.3537  1.9756  0.2324
58478SOL    HW284213   0.587   8.246   5.571  0.8945  0.1950  1.4039
58479SOL     OW84214   0.854   2.777   8.915 -0.5062  0.4499 -0.3560
58479SOL    HW184215   0.878   2.749   8.826 -0.0080  1.2972 -0.4944
58479SOL    HW284216   0.904   2.719   8.972  0.0971  0.6784 -0.6387
58480SOL     OW84217   4.641   7.417   8.752  0.2740 -0.0658  0.5952
58480SOL    HW184218   4.666   7.413   8.659 -0.1435  0.5689  0.4470
58480SOL    HW284219   4.686   7.343   8.792 -1.2981 -1.6919 -0.5251
58481SOL     OW84220   7.030   1.002   6.040  0.0591 -0.9990 -0.4569
58481SOL    HW184221   6.956   0.945   6.062 -0.8274  0.3192  0.0366
58481SOL    HW284222   7.072   1.021   6.124 -0.6718  0.4358 -0.3970
58482SOL     OW84223   1.466   9.336   1.931  0.5132  0.1916 -0.2899
58482SOL    HW184224   1.421   9.421   1.930  1.6750  0.8263 -0.5211
58482SOL    HW284225   1.437   9.294   2.012  0.5402  1.1419  0.2175
58483SOL     OW84226   7.392   6.281   8.646  0.0560 -0.1519 -0.2432
58483SOL    HW184227   7.382   6.320   8.560 -1.5898  0.5156  0.2259
58483SOL    HW284228   7.427   6.193   8.629  0.4075  0.2190 -1.5181
58484SOL     OW84229   6.489   4.317   3.104 -0.4090 -0.3202  0.1178
58484SOL    HW184230   6.476   4.389   3.166  0.4659 -1.3027  1.4904
58484SOL    HW284231   6.431   4.247   3.135 -0.8474 -0.4166 -0.8845
58485SOL     OW84232   8.361   6.000   0.068 -0.0171  0.2771  0.2899
58485SOL    HW184233   8.354   6.044  -0.017  0.3985 -0.6680 -0.2487
58485SOL    HW284234   8.270   5.995   0.099 -0.4128 -0.9994 -0.9685
58486SOL     OW84235   8.607   2.397  11.087 -0.3759 -0.2276 -0.0977
58486SOL    HW184236   8.550   2.396  11.010 -1.3236 -1.8636  0.5681
58486SOL    HW284237   8.684   2.347  11.061 -0.3955 -0.2165 -0.1785
58487SOL     OW84238   0.574   2.430   2.178  0.7032  0.4203  0.5090
58487SOL    HW184239   0.562   2.381   2.260 -0.8353 -0.7500 -0.3603
58487SOL    HW284240   0.487   2.467   2.159  0.1312 -1.9325 -2.1366
58488SOL     OW84241   8.931   2.331   5.907  0.1155 -0.1965 -0.2444
58488SOL    HW184242   8.900   2.349   5.818  2.3667  0.7457 -0.9155
58488SOL    HW284243   8.886   2.251   5.932 -0.8275 -0.3088 -2.1015
58489SOL     OW84244   3.658   7.725  11.254  0.3636  0.7651 -0.1824
58489SOL    HW184245   3.571   7.755  11.227 -0.7507 -0.8347  1.3918
58489SOL    HW284246   3.658   7.737  11.349  1.1932 -0.8656  0.0540
58490SOL     OW84247  11.675   6.383  10.780  0.6261  0.5253  0.2112
58490SOL    HW184248  11.759   6.416  10.747  0.6503 -1.7819 -2.4217
58490SOL    HW284249  11.609   6.439  10.738  0.7938  0.2590 -0.4276
58491SOL     OW84250   0.573   5.547  11.722  0.3252  0.0712  0.3773
58491SOL    HW184251   0.612   5.505  11.645  0.1221 -0.9962  0.8398
58491SOL    HW284252   0.544   5.633  11.690  3.2477  1.0604  0.0711
58492SOL     OW84253  10.669   4.855   2.413  0.3994  0.3010 -0.1056
58492SOL    HW184254  10.722   4.812   2.480 -0.1357  1.6730  1.2310
58492SOL    HW284255  10.630   4.782   2.364  1.2933 -0.7221  0.6420
58493SOL     OW84256   2.931   8.200   1.549 -0.4572 -0.0658 -1.2623
58493SOL    HW184257   2.873   8.273   1.571 -1.2975 -0.7502 -1.1098
58493SOL    HW284258   2.921   8.189   1.454 -1.1175 -0.6025 -1.1431
58494SOL     OW84259   8.283  11.520   9.039  0.3498 -0.1862 -0.2440
58494SOL    HW184260   8.195  11.531   9.004  0.5144 -0.0677 -0.6216
58494SOL    HW284261   8.296  11.425   9.041 -0.3913 -0.2852  1.3346
58495SOL     OW84262   1.522  11.412   9.707  0.5059  0.6321 -0.4305
58495SOL    HW184263   1.509  11.323   9.672  0.7343  0.1880  0.5617
58495SOL    HW284264   1.517  11.400   9.802  1.2383  1.5743 -0.2637
58496SOL     OW84265   3.398   2.097  12.540  0.5077 -0.6362 -0.0183
58496SOL    HW184266   3.381   2.072  12.631 -0.1213 -1.4759 -0.3508
58496SOL    HW284267   3.321   2.149  12.515  0.1014 -1.3880 -0.4078
58497SOL     OW84268  11.619   5.680   6.410 -0.6135 -0.0189 -0.5902
58497SOL    HW184269  11.643   5.662   6.500 -0.8855  0.5484 -0.3946
58497SOL    HW284270  11.539   5.629   6.395 -0.7534  0.1468 -0.4043
58498SOL     OW84271   0.410   7.431  11.053 -0.3439 -1.1036  0.5489
58498SOL    HW184272   0.383   7.523  11.062 -2.8999 -1.4560 -2.0482
58498SOL    HW284273   0.408   7.397  11.142 -2.7095  0.5479  1.2342
58499SOL     OW84274  10.064   6.424   4.348  0.2031  0.5632  0.1029
58499SOL    HW184275  10.008   6.472   4.286 -0.4269 -0.5523 -0.2347
58499SOL    HW284276  10.017   6.428   4.431 -1.2096 -1.5525 -0.4726
58500SOL     OW84277   3.931   1.793   2.839 -0.2711 -0.6830  0.2627
58500SOL    HW184278   3.991   1.775   2.766 -0.9039  2.5637 -1.2304
58500SOL    HW284279   3.847   1.812   2.798 -1.2155 -0.8247  2.0252
58501SOL     OW84280   2.204   9.217  10.339 -0.0871  0.9140  0.4191
58501SOL    HW184281   2.208   9.271  10.260  1.2409  0.7965  0.3788
58501SOL    HW284282   2.267   9.147  10.323  0.6629  1.2302  1.8299
58502SOL     OW84283   2.522   3.774  10.200  0.3113  0.4642  0.2615
58502SOL    HW184284   2.576   3.804  10.128  1.8963 -0.8363  0.8555
58502SOL    HW284285   2.432   3.792  10.172  0.9162  0.5596 -1.7355
58503SOL     OW84286   6.865   3.281   5.412 -0.3770 -0.0527  0.3555
58503SOL    HW184287   6.943   3.253   5.366 -1.4177 -0.9940 -0.9047
58503SOL    HW284288   6.839   3.206   5.465 -0.0642  0.4946  1.3176
58504SOL     OW84289   6.469   0.211   8.601  0.1104 -0.0840 -0.0604
58504SOL    HW184290   6.553   0.238   8.564 -0.0687  1.1053  0.3538
58504SOL    HW284291   6.407   0.224   8.529  0.1647 -0.2376 -0.1353
58505SOL     OW84292   5.484   2.681   3.231  0.5733  0.0128 -0.5610
58505SOL    HW184293   5.573   2.692   3.264 -0.3880  1.7106  1.7408
58505SOL    HW284294   5.430   2.668   3.309 -1.6469  2.6419 -1.4446
58506SOL     OW84295  10.074   6.831   9.699  0.0615  0.5074  0.1937
58506SOL    HW184296  10.020   6.892   9.748 -0.4539  0.3541 -0.1775
58506SOL    HW284297  10.036   6.745   9.718  2.4506 -0.1360  3.0283
58507SOL     OW84298   7.072   0.142   7.070 -0.1379 -0.3381 -0.0198
58507SOL    HW184299   7.015   0.173   7.000 -0.5133 -0.3673  0.2664
58507SOL    HW284300   7.031   0.175   7.150  0.6539  0.2834  0.1510
58508SOL     OW84301   9.501  11.741  11.226  0.3061  0.3505  0.4520
58508SOL    HW184302   9.535  11.664  11.270 -1.6693 -2.6348 -2.6563
58508SOL    HW284303   9.432  11.774  11.284  0.2819 -1.1097  1.2908
58509SOL     OW84304   4.203   8.703   5.266 -0.1552 -0.5830  0.0700
58509SOL    HW184305   4.245   8.753   5.196 -0.5726 -1.8191 -1.1102
58509SOL    HW284306   4.239   8.615   5.258 -2.8669 -1.6973 -0.9774
58510SOL     OW84307   1.017  10.759   7.302  0.0323  0.3209 -0.2512
58510SOL    HW184308   1.102  10.796   7.324 -0.8181  2.1016  0.2760
58510SOL    HW284309   0.983  10.818   7.234  0.2725 -1.8690 -2.4097
58511SOL     OW84310   6.376   8.470   0.058 -0.1217  0.3357 -0.0248
58511SOL    HW184311   6.469   8.480   0.038 -0.5718 -0.0869 -2.7867
58511SOL    HW284312   6.356   8.541   0.118  1.6873  1.2728 -0.4649
58512SOL     OW84313  11.272   6.882   2.420 -0.1407 -0.0671 -0.0654
58512SOL    HW184314  11.202   6.875   2.355  0.9856 -2.9503 -1.1531
58512SOL    HW284315  11.351   6.857   2.372  0.9918 -0.7242  2.0364
58513SOL     OW84316   8.915   1.341   1.861 -0.0418 -0.1396 -0.0088
58513SOL    HW184317   8.980   1.285   1.903  1.1825  0.6996 -0.7437
58513SOL    HW284318   8.956   1.427   1.856 -1.8156  0.8281  0.9301
58514SOL     OW84319   2.460   8.493  10.141 -0.2221 -0.8359 -0.3236
58514SOL    HW184320   2.444   8.417  10.086  1.3747 -2.3710  1.1887
58514SOL    HW284321   2.525   8.463  10.205  1.4448  2.1548 -0.4061
58515SOL     OW84322  10.354   4.887   3.581  0.5391  0.0050  0.0460
58515SOL    HW184323  10.373   4.901   3.488  0.2816  2.1311  0.2597
58515SOL    HW284324  10.420   4.825   3.610 -0.5025 -2.1687 -1.9469
58516SOL     OW84325  10.629   2.832   3.057  0.3125  0.1938 -0.5480
58516SOL    HW184326  10.661   2.909   3.104 -0.7197 -0.4615  1.3427
58516SOL    HW284327  10.540   2.819   3.090  0.0212 -1.0787 -1.7609
58517SOL     OW84328   2.826  12.350   8.102  0.0798  0.3273 -0.0608
58517SOL    HW184329   2.813  12.347   8.197 -0.3513  5.3818  0.3126
58517SOL    HW284330   2.756  12.296   8.066 -1.4747  0.4973  2.4564
58518SOL     OW84331  11.464   7.459   3.723  0.2109 -0.5856 -0.0824
58518SOL    HW184332  11.386   7.430   3.772 -0.8749 -1.4394 -2.1950
58518SOL    HW284333  11.484   7.386   3.665  0.9127  0.7083 -1.5136
58519SOL     OW84334   9.176   9.536   0.993  0.1751  0.2183 -0.1955
58519SOL    HW184335   9.151   9.516   1.083  2.0927 -0.5042  0.2191
58519SOL    HW284336   9.159   9.454   0.945 -0.4997  0.4896 -0.4366
58520SOL     OW84337   3.409   3.460  12.186  0.2977  0.4466 -0.1634
58520SOL    HW184338   3.350   3.534  12.171  0.4108  0.4015 -0.8772
58520SOL    HW284339   3.373   3.390  12.132  2.1036  1.0030 -2.2234
58521SOL     OW84340  12.132   7.500   0.246 -0.0364  0.5819  0.3048
58521SOL    HW184341  12.209   7.444   0.255  0.3849  1.3009  1.4130
58521SOL    HW284342  12.076   7.454   0.184  0.9174 -0.3639  0.1176
58522SOL     OW84343   5.153  10.367   0.818  0.1658  0.3702  0.5742
58522SOL    HW184344   5.144  10.307   0.743 -0.2148 -1.3332  1.9031
58522SOL    HW284345   5.072  10.418   0.817 -1.1480 -1.5542  1.3456
58523SOL     OW84346  12.319   5.788   7.554 -0.5885  0.0999  0.0455
58523SOL    HW184347  12.349   5.872   7.518 -0.3745  1.0492  2.2202
58523SOL    HW284348  12.354   5.722   7.495  1.1480  1.4537 -0.5301
58524SOL     OW84349   3.351   6.453  10.232  0.0801  0.1769 -0.2447
58524SOL    HW184350   3.273   6.421  10.186 -0.3186  0.6061  0.1085
58524SOL    HW284351   3.316   6.518  10.293  0.3308 -1.5803  1.9104
58525SOL     OW84352   0.677   9.712   6.603 -0.4104  0.1864  0.2506
58525SOL    HW184353   0.696   9.722   6.696  1.8472  1.1826 -0.2462
58525SOL    HW284354   0.685   9.801   6.568 -0.7417 -0.2531 -0.9803
58526SOL     OW84355   4.698  10.334   9.830  0.2442  0.2536  0.0710
58526SOL    HW184356   4.656  10.331   9.917  0.8485 -0.1148  0.3557
58526SOL    HW284357   4.684  10.424   9.800 -1.3226 -0.0313 -0.1332
58527SOL     OW84358   8.139  11.530   9.440  0.1135  0.0341 -0.2407
58527SOL    HW184359   8.099  11.544   9.353  0.4439 -1.9346 -0.7389
58527SOL    HW284360   8.233  11.531   9.424  0.1875  0.1671  0.1881
58528SOL     OW84361   9.049   9.124  12.096  0.1189 -0.2098  0.3120
58528SOL    HW184362   9.004   9.150  12.176 -0.7657  0.3369 -0.3364
58528SOL    HW284363   9.139   9.152  12.108 -0.3968  1.4870  0.4049
58529SOL     OW84364   4.323   9.747   0.134 -0.4327 -0.2644  0.1411
58529SOL    HW184365   4.324   9.654   0.155  0.0025 -1.0319 -2.7879
58529SOL    HW284366   4.232   9.765   0.110 -0.4375 -0.0282  0.3368
58530SOL     OW84367   2.031   9.118   4.090  0.1096  0.1811  0.2319
58530SOL    HW184368   2.117   9.156   4.108  0.7478 -1.8233  1.7782
58530SOL    HW284369   2.045   9.064   4.013  0.0569  0.3580  0.0962
58531SOL     OW84370   3.832   0.217   8.186  0.1529 -0.1043 -0.1165
58531SOL    HW184371   3.883   0.143   8.153  2.0443  1.0389  0.0952
58531SOL    HW284372   3.844   0.285   8.120 -0.9855  0.2431  0.0249
58532SOL     OW84373   4.392   9.151  10.317  0.1283 -0.2943 -0.3932
58532SOL    HW184374   4.419   9.120  10.231  0.6192 -0.0293 -0.3346
58532SOL    HW284375   4.375   9.071  10.367 -1.5920 -0.4672 -1.1631
58533SOL     OW84376   9.841   6.171   2.351  0.0255 -0.2142 -0.0192
58533SOL    HW184377   9.923   6.136   2.386 -0.8262 -1.3030  0.9556
58533SOL    HW284378   9.775   6.106   2.375 -0.7958 -0.5080 -2.7667
58534SOL     OW84379  11.906  10.771   5.767 -0.0171 -0.2277  0.0580
58534SOL    HW184380  11.899  10.729   5.682  3.9731  0.2590 -0.7000
58534SOL    HW284381  11.954  10.708   5.821 -0.8599  0.2233  1.3809
58535SOL     OW84382   5.836  10.464  11.469  0.6562  0.5353 -0.2036
58535SOL    HW184383   5.767  10.500  11.413  0.3425 -0.7242 -0.6531
58535SOL    HW284384   5.798  10.386  11.507  2.0009 -0.4793 -0.8624
58536SOL     OW84385   3.452   1.835   8.261 -0.3336  0.0730 -0.2036
58536SOL    HW184386   3.529   1.865   8.308 -1.9811  2.6309  1.0942
58536SOL    HW284387   3.413   1.769   8.318  0.5695 -0.8410 -0.6182
58537SOL     OW84388   4.402   9.633   6.057  0.7599  0.0817 -0.0102
58537SOL    HW184389   4.409   9.538   6.065  1.1149 -0.0020 -1.1756
58537SOL    HW284390   4.314   9.648   6.022  0.3101  0.2648  1.1457
58538SOL     OW84391  10.336   6.772  10.574  0.1649  0.0251  0.2602
58538SOL    HW184392  10.263   6.751  10.632  0.5530  0.5907  0.9648
58538SOL    HW284393  10.398   6.701  10.586 -1.1656 -1.6827 -1.9999
58539SOL     OW84394   4.832   9.249   8.208 -0.4196 -0.0853 -0.2109
58539SOL    HW184395   4.808   9.160   8.182 -0.9450 -0.0200  0.0448
58539SOL    HW284396   4.927   9.246   8.219 -0.1658 -0.1200 -2.1243
58540SOL     OW84397   0.481   0.301   4.823  0.1640 -0.1835 -0.6184
58540SOL    HW184398   0.480   0.229   4.760 -0.7943 -0.3796 -0.4028
58540SOL    HW284399   0.476   0.257   4.908 -1.6552  0.1561 -0.5217
58541SOL     OW84400   7.407   0.781  10.108  0.6051 -0.4055 -0.5379
58541SOL    HW184401   7.495   0.793  10.073  1.5267 -0.4858  1.6315
58541SOL    HW284402   7.382   0.869  10.139  0.7200 -0.7557  0.5796
58542SOL     OW84403   5.704   9.697   7.683  0.0459  0.0714  0.4234
58542SOL    HW184404   5.756   9.771   7.713  0.9714 -0.7562  0.9465
58542SOL    HW284405   5.658   9.729   7.606  0.6914  1.0869  0.4392
58543SOL     OW84406   0.328   3.526  11.194 -0.3983  0.0936  0.6846
58543SOL    HW184407   0.408   3.502  11.148 -0.0110  0.3870  1.1911
58543SOL    HW284408   0.320   3.621  11.181  1.3972  0.8133  3.6845
58544SOL     OW84409   0.509   4.487  12.013 -0.1410 -0.2292 -0.1528
58544SOL    HW184410   0.527   4.580  12.010 -0.5785 -0.0356  1.9344
58544SOL    HW284411   0.586   4.448  12.054 -0.1389 -0.7526 -0.6269
58545SOL     OW84412  11.141   6.671   2.568 -0.1387  0.2473  0.4954
58545SOL    HW184413  11.054   6.708   2.584 -0.1928 -0.3759  1.7942
58545SOL    HW284414  11.188   6.740   2.521 -1.3131  0.6080 -0.1862
58546SOL     OW84415   4.143   2.046   2.413  0.1506 -0.3675  0.2506
58546SOL    HW184416   4.198   2.123   2.430  1.0186 -0.9729  0.2119
58546SOL    HW284417   4.169   2.017   2.326 -1.6725  0.5176 -0.6593
58547SOL     OW84418   5.040   5.069   6.748 -0.5757  0.2130 -0.4956
58547SOL    HW184419   4.978   4.997   6.761 -0.1937 -0.0782 -0.2803
58547SOL    HW284420   5.061   5.099   6.836  2.7004 -2.3463 -0.2338
58548SOL     OW84421   9.730   1.182   4.309  0.2057 -0.0407 -0.3699
58548SOL    HW184422   9.721   1.092   4.342  1.9300 -0.3810 -0.7292
58548SOL    HW284423   9.669   1.186   4.235 -0.6691 -0.5582  0.2883
58549SOL     OW84424  11.242  11.694   9.356  0.0470  0.3380 -0.2852
58549SOL    HW184425  11.170  11.754   9.374 -2.1702 -2.6217  1.8424
58549SOL    HW284426  11.202  11.622   9.307  1.8748 -0.7322 -0.2981
58550SOL     OW84427   3.410   3.988   0.671 -0.2630 -0.5896  0.4851
58550SOL    HW184428   3.351   4.034   0.610  0.0942  0.5660  0.9801
58550SOL    HW284429   3.400   3.896   0.649 -2.1149 -0.4100  0.4186
58551SOL     OW84430  12.522   2.712   6.456  0.2738 -0.8450 -0.2414
58551SOL    HW184431  12.469   2.703   6.376 -1.0053 -0.7223  0.5574
58551SOL    HW284432  12.467   2.674   6.525  0.4934  0.8248  0.9099
58552SOL     OW84433   0.914   0.128   5.147 -0.0425 -0.5759 -0.6043
58552SOL    HW184434   0.954   0.213   5.128 -1.5387  1.0018  2.4755
58552SOL    HW284435   0.834   0.127   5.095  0.5319 -0.6261 -1.4984
58553SOL     OW84436  12.209  12.456  10.520  0.3912 -0.1769 -0.2533
58553SOL    HW184437  12.277  12.465  10.587  0.2647  1.1357 -0.2725
58553SOL    HW284438  12.128  12.439  10.570  0.5751 -0.8920 -0.1845
58554SOL     OW84439   0.811   7.634   7.091  0.5575  0.6933  0.3319
58554SOL    HW184440   0.765   7.695   7.149  1.3257  1.1746  0.4392
58554SOL    HW284441   0.834   7.560   7.147  1.4734  1.2460  0.7069
58555SOL     OW84442   6.488  11.366  11.339  0.7104 -0.0588 -0.0313
58555SOL    HW184443   6.406  11.366  11.289  0.7238  1.6501 -0.1137
58555SOL    HW284444   6.542  11.433  11.298  1.6053 -0.1869  0.8889
58556SOL     OW84445   2.515   4.150   6.677 -0.0701 -0.0942  0.1655
58556SOL    HW184446   2.553   4.070   6.640  0.5666 -0.2936  1.2178
58556SOL    HW284447   2.560   4.221   6.631 -0.1702 -0.3294 -0.3104
58557SOL     OW84448   3.241   4.357  12.526  0.1763 -0.0361 -0.2537
58557SOL    HW184449   3.312   4.296  12.507 -1.0613 -1.3746 -0.7110
58557SOL    HW284450   3.235   4.411  12.447 -0.0710 -0.6958 -0.6974
58558SOL     OW84451   2.887  12.371   6.446  0.3689 -0.0103 -0.1099
58558SOL    HW184452   2.942  12.432   6.495 -2.1646  0.7400  2.0347
58558SOL    HW284453   2.901  12.394   6.354  0.3827  3.1197  0.5506
58559SOL     OW84454  11.629  12.502   7.007 -0.3627  0.1235  0.5119
58559SOL    HW184455  11.713  12.485   7.050 -0.4090  0.6508  0.8126
58559SOL    HW284456  11.601  12.416   6.976 -0.2673 -0.2550  1.4370
58560SOL     OW84457  10.891   5.571   5.588  0.1517  0.7315  0.2144
58560SOL    HW184458  10.842   5.531   5.660  0.1816 -0.2414 -0.2929
58560SOL    HW284459  10.968   5.610   5.630  0.5084 -0.4029  0.6391
58561SOL     OW84460   1.250   1.926   5.404  0.4719  0.8404 -0.0725
58561SOL    HW184461   1.206   1.841   5.405 -0.1413  1.1225 -1.2513
58561SOL    HW284462   1.205   1.977   5.471 -0.2084  0.7319 -0.4340
58562SOL     OW84463   6.850   5.212   9.739  0.2481  0.6421 -0.1330
58562SOL    HW184464   6.839   5.120   9.717  0.0890  0.7546 -0.5460
58562SOL    HW284465   6.838   5.258   9.655 -1.0428  1.1424  0.3078
58563SOL     OW84466   3.207  10.245   0.361 -0.5364  0.1862  0.5223
58563SOL    HW184467   3.168  10.244   0.274 -0.1121 -0.2333  0.3309
58563SOL    HW284468   3.162  10.175   0.408 -2.7671  2.1938  1.5626
58564SOL     OW84469   5.603   3.637   2.561 -0.4323 -0.1013  0.0603
58564SOL    HW184470   5.654   3.560   2.534 -0.3042 -0.4112  1.1022
58564SOL    HW284471   5.657   3.677   2.630 -0.7546  0.6108 -0.1009
58565SOL     OW84472   8.805   1.955   6.938 -0.3302  0.5241 -0.4085
58565SOL    HW184473   8.782   1.881   6.882 -0.2774  1.5286 -1.8267
58565SOL    HW284474   8.744   2.024   6.911  0.2740  1.2964  0.1719
58566SOL     OW84475   7.524   3.840   2.241  0.5888  0.0469  0.7472
58566SOL    HW184476   7.559   3.751   2.240  0.5198 -0.1068  3.7227
58566SOL    HW284477   7.442   3.833   2.291  0.8357  1.8481  1.4800
58567SOL     OW84478   8.239   7.993  11.157  0.2242  0.2452  0.5616
58567SOL    HW184479   8.157   8.008  11.204 -1.7564 -1.1496 -2.1995
58567SOL    HW284480   8.247   7.897  11.154  1.4917  0.3584  0.0204
58568SOL     OW84481   1.481   8.948   5.046  0.3281  0.0169  0.0515
58568SOL    HW184482   1.442   9.032   5.071  0.7585  0.0474  0.6636
58568SOL    HW284483   1.558   8.973   4.994  1.3641  0.0829  1.5366
58569SOL     OW84484  10.447   6.580   7.750 -0.2200 -0.2894 -0.3250
58569SOL    HW184485  10.369   6.544   7.792 -0.2460 -0.1398 -0.2425
58569SOL    HW284486  10.508   6.507   7.745 -1.1616 -1.0156 -2.3970
58570SOL     OW84487   6.403   4.999   5.034 -0.2211 -0.0517  0.2550
58570SOL    HW184488   6.404   4.904   5.021 -0.5933  0.2265 -2.4417
58570SOL    HW284489   6.468   5.015   5.102  2.0892 -1.9998 -1.3512
58571SOL     OW84490   5.379   3.265  10.553 -0.0938 -0.2694 -0.3911
58571SOL    HW184491   5.395   3.205  10.479  1.4186  3.9312 -3.9396
58571SOL    HW284492   5.284   3.273  10.557 -0.2185 -0.7429 -1.8134
58572SOL     OW84493   5.291   8.423   3.880 -0.5881 -0.5048  0.0061
58572SOL    HW184494   5.213   8.422   3.825 -1.9036 -1.0491  1.7914
58572SOL    HW284495   5.290   8.508   3.922 -1.1368 -1.0901  1.2276
58573SOL     OW84496   7.522   2.466  10.929  0.4204  0.3401 -0.2390
58573SOL    HW184497   7.508   2.486  11.022  0.1980  0.7376 -0.3549
58573SOL    HW284498   7.548   2.374  10.928 -2.1022 -0.4290  0.0010
58574SOL     OW84499   1.456   6.924   7.705  0.4840  0.2014 -0.0620
58574SOL    HW184500   1.405   6.926   7.787 -0.8270  2.5807 -0.8530
58574SOL    HW284501   1.540   6.963   7.729  0.9605 -1.1776  0.6203
58575SOL     OW84502   3.095  11.466   0.171  0.3944  0.2304  0.0135
58575SOL    HW184503   3.152  11.508   0.107  3.1287 -2.8139  0.2099
58575SOL    HW284504   3.006  11.485   0.140  1.2697  5.1667 -0.3179
58576SOL     OW84505   6.580   7.331   1.932 -0.6206  0.3412  0.4905
58576SOL    HW184506   6.492   7.294   1.935 -0.7729  0.3932 -1.5583
58576SOL    HW284507   6.601   7.336   1.838  1.7296 -0.0443  0.9202
58577SOL     OW84508   4.958  10.733   6.544 -0.1743 -0.5406 -0.0593
58577SOL    HW184509   4.876  10.720   6.496 -0.1401 -0.5425 -0.1168
58577SOL    HW284510   5.025  10.743   6.476 -0.0059 -1.2799 -0.0186
58578SOL     OW84511  12.357   5.165  12.045 -0.5149 -0.2950  0.1594
58578SOL    HW184512  12.389   5.076  12.063 -0.7656 -0.7391 -1.3828
58578SOL    HW284513  12.430   5.222  12.070  0.2281 -1.0565 -0.2055
58579SOL     OW84514   0.176   1.201   9.377 -0.2953  0.4051  0.2728
58579SOL    HW184515   0.209   1.250   9.452 -0.8927  1.3231 -0.0498
58579SOL    HW284516   0.128   1.127   9.415  1.1106 -0.2873  0.7543
58580SOL     OW84517   5.250   1.111   8.134 -0.6820  0.1107  0.1851
58580SOL    HW184518   5.280   1.133   8.046 -1.4818 -0.5559 -0.2753
58580SOL    HW284519   5.175   1.054   8.120 -0.8888  0.0778  1.3073
58581SOL     OW84520  11.486  11.465   7.285 -0.0184 -0.0741  0.0853
58581SOL    HW184521  11.572  11.431   7.261 -0.5528 -0.4071 -1.4815
58581SOL    HW284522  11.482  11.456   7.380  2.3159  1.4852  0.4156
58582SOL     OW84523   5.969  11.934   3.219  0.3538  0.2657  0.0567
58582SOL    HW184524   6.027  11.869   3.259 -0.2712 -0.1745  0.2598
58582SOL    HW284525   5.924  11.974   3.293 -1.6101 -1.3028 -0.2142
58583SOL     OW84526   4.347   2.900   4.000  0.3557 -0.4421  0.0651
58583SOL    HW184527   4.301   2.830   3.952 -0.0896 -0.4112  0.4416
58583SOL    HW284528   4.422   2.856   4.040 -0.2099 -0.8238  0.7333
58584SOL     OW84529   3.846  11.804   8.611 -0.0870  0.1282 -0.5333
58584SOL    HW184530   3.806  11.738   8.668 -1.6600  0.9631 -0.5914
58584SOL    HW284531   3.815  11.887   8.647  2.1406  0.8884 -0.2498
58585SOL     OW84532  10.822  11.434  10.515  0.2494  0.0844 -0.1959
58585SOL    HW184533  10.845  11.369  10.449  0.2332  0.7703 -0.8886
58585SOL    HW284534  10.726  11.431  10.519  0.1811  0.8013 -1.0040
58586SOL     OW84535   1.460   7.333   0.766 -0.5383 -0.1007 -0.1173
58586SOL    HW184536   1.402   7.262   0.739 -0.1524 -0.9749  1.2625
58586SOL    HW284537   1.517   7.294   0.833  1.1666  0.9221 -0.8960
58587SOL     OW84538   9.467   9.315   3.651 -0.4051  0.6611  0.1238
58587SOL    HW184539   9.440   9.358   3.570 -1.6853 -0.1621  0.0993
58587SOL    HW284540   9.537   9.256   3.624 -0.0772  1.1788 -0.1844
58588SOL     OW84541  11.233   7.284   0.382  0.2543 -0.1995  0.3510
58588SOL    HW184542  11.275   7.311   0.300  0.0041 -1.5146 -0.2314
58588SOL    HW284543  11.251   7.190   0.388  0.0314 -0.1725  1.6705
58589SOL     OW84544   0.898   2.898   1.288  0.1624  0.1501 -0.3656
58589SOL    HW184545   0.977   2.907   1.235  1.4039  0.6698  1.4889
58589SOL    HW284546   0.826   2.922   1.229  1.3601 -0.3183 -2.0885
58590SOL     OW84547  11.691   8.013   5.333 -0.1690  0.4503 -0.4073
58590SOL    HW184548  11.605   8.036   5.299 -0.0837 -0.3155 -1.1944
58590SOL    HW284549  11.723   7.945   5.273  0.8264  0.4637  0.0840
58591SOL     OW84550   5.371   4.917   6.530  0.1076 -0.5818  0.1080
58591SOL    HW184551   5.282   4.891   6.509  0.0341  0.6952 -1.2923
58591SOL    HW284552   5.424   4.880   6.460  0.7541 -1.5853  1.0833
58592SOL     OW84553   1.006  11.981   9.091  0.2790  0.2111  0.0050
58592SOL    HW184554   1.092  12.010   9.063 -0.7113  1.5414 -1.9181
58592SOL    HW284555   1.000  12.006   9.183  1.7164  0.5782  0.0193
58593SOL     OW84556   3.763   0.734  12.210 -0.3288 -0.5579 -0.5443
58593SOL    HW184557   3.680   0.779  12.225  0.3748  0.1805  1.3373
58593SOL    HW284558   3.797   0.774  12.131 -1.4197 -0.3824 -0.9531
58594SOL     OW84559   8.008   1.514  12.336 -0.3625 -0.5393 -0.0574
58594SOL    HW184560   7.955   1.435  12.344  0.0948 -0.8865 -0.4032
58594SOL    HW284561   7.975   1.572  12.404 -0.6636 -1.0516  0.2393
58595SOL     OW84562   0.175   2.916   8.641  0.2610 -0.6420  0.8998
58595SOL    HW184563   0.083   2.921   8.665 -0.6985  0.2195 -2.5082
58595SOL    HW284564   0.213   2.997   8.675 -0.8325  0.1574  0.2802
58596SOL     OW84565   2.110   8.753   4.458  0.8084 -0.1488  0.4414
58596SOL    HW184566   2.037   8.813   4.471  0.9291 -0.1746  1.2793
58596SOL    HW284567   2.113   8.739   4.363  0.6120  0.9518  0.2559
58597SOL     OW84568   0.589  10.495   3.158  0.2552  0.3744  0.4528
58597SOL    HW184569   0.682  10.495   3.137 -0.2327  0.6879 -2.0624
58597SOL    HW284570   0.577  10.423   3.219  1.7907 -1.2463 -1.0667
58598SOL     OW84571   5.185   5.472   3.716  0.4991  0.1647  0.0489
58598SOL    HW184572   5.122   5.541   3.735 -2.5149 -2.3210 -0.1392
58598SOL    HW284573   5.257   5.487   3.777 -0.8291  2.4524  1.1619
58599SOL     OW84574   2.570  12.295   6.092  0.6101  0.0734 -0.4715
58599SOL    HW184575   2.562  12.199   6.088  0.2842  0.1467 -1.7526
58599SOL    HW284576   2.660  12.310   6.121  0.3616 -0.6205  0.7329
58600SOL     OW84577   7.643   0.340   9.896  0.2768 -0.7624  0.2551
58600SOL    HW184578   7.612   0.401   9.963 -0.1749  0.0597 -0.6808
58600SOL    HW284579   7.738   0.352   9.896  0.2820 -0.7656  0.7370
58601SOL     OW84580   5.929   1.951   4.837  0.1088 -0.2175 -0.2463
58601SOL    HW184581   5.852   2.008   4.833  0.1257 -0.2332 -0.9147
58601SOL    HW284582   6.002   2.009   4.816  0.4116  0.0162  1.3435
58602SOL     OW84583   2.355  11.844   4.775  0.4840  0.2307 -0.2551
58602SOL    HW184584   2.354  11.918   4.715  1.9115 -1.0198 -1.9098
58602SOL    HW284585   2.443  11.807   4.767  0.7269 -0.0292  2.6101
58603SOL     OW84586   4.574   6.476  10.533  0.2015 -0.4847  0.3081
58603SOL    HW184587   4.666   6.479  10.559  0.0730  0.5946  0.7014
58603SOL    HW284588   4.550   6.384  10.538  1.7229 -1.0468 -1.4458
58604SOL     OW84589   9.933   5.148   4.138  0.0814  0.6014  0.1294
58604SOL    HW184590  10.016   5.191   4.159  0.9074  0.4605 -2.4681
58604SOL    HW284591   9.953   5.055   4.140  0.0292  0.5693 -0.5837
58605SOL     OW84592   2.489   0.991   3.389 -0.2229 -0.0992 -0.0927
58605SOL    HW184593   2.432   1.051   3.436  0.4064  0.2066  0.2916
58605SOL    HW284594   2.555   0.964   3.453  0.1341 -0.3579 -0.5567
58606SOL     OW84595   7.387   8.583   3.822  0.3759 -0.0134 -0.0013
58606SOL    HW184596   7.400   8.618   3.734  0.6781  0.8981  0.3879
58606SOL    HW284597   7.293   8.566   3.827  0.2459  0.5856 -0.2808
58607SOL     OW84598   9.900   5.112   6.518  0.0084  0.3567  0.0154
58607SOL    HW184599   9.923   5.045   6.582 -1.6394 -2.5630 -2.2144
58607SOL    HW284600   9.972   5.109   6.454  0.0887  1.0057  0.0658
58608SOL     OW84601  11.234   0.298   5.504 -0.6206 -0.3959  0.7386
58608SOL    HW184602  11.307   0.356   5.480 -1.8027  0.6418 -0.5107
58608SOL    HW284603  11.276   0.225   5.550  1.1295  0.4885  0.6373
58609SOL     OW84604   7.771   2.619  10.940  0.3962 -0.2704  0.4972
58609SOL    HW184605   7.696   2.561  10.923 -2.3975  2.6842  1.7562
58609SOL    HW284606   7.817   2.577  11.013  0.3233 -2.3835 -0.5863
58610SOL     OW84607  10.752  11.105   1.168  0.5651  0.1748  0.1423
58610SOL    HW184608  10.790  11.188   1.140 -0.1099  0.0416 -1.2481
58610SOL    HW284609  10.827  11.048   1.185  1.0480  1.2356  1.7110
58611SOL     OW84610   1.083   1.269   1.280  0.0932  0.2609  0.4872
58611SOL    HW184611   1.081   1.359   1.312 -0.0246  0.1391  0.8229
58611SOL    HW284612   1.133   1.221   1.345  2.1611  0.5136 -0.8100
58612SOL     OW84613  11.431   2.451   4.982 -0.2386 -0.0508  0.2526
58612SOL    HW184614  11.504   2.449   4.920  0.4132  1.7793  0.9018
58612SOL    HW284615  11.357   2.415   4.933  0.8527 -1.0440 -0.7372
58613SOL     OW84616  11.496   7.825   1.458  0.3325 -0.4182 -0.0992
58613SOL    HW184617  11.488   7.759   1.526 -0.0344 -1.7624 -1.4043
58613SOL    HW284618  11.406   7.854   1.442  0.5143  0.6578  0.6691
58614SOL     OW84619   5.612   5.785   7.784  0.1560 -0.2364  0.0881
58614SOL    HW184620   5.666   5.719   7.741  1.5535  0.0194  1.3400
58614SOL    HW284621   5.595   5.851   7.717  1.8308 -0.0998 -0.2369
58615SOL     OW84622   1.382   0.385   1.278 -0.3027 -0.6025  0.1233
58615SOL    HW184623   1.343   0.363   1.363 -0.2600 -1.5071 -0.0911
58615SOL    HW284624   1.434   0.463   1.296 -0.3995 -0.7094  0.9028
58616SOL     OW84625   0.620   2.386   7.920  0.9118 -0.3616  0.3013
58616SOL    HW184626   0.646   2.448   7.852  1.4944  0.2180  1.0259
58616SOL    HW284627   0.525   2.377   7.910  0.7852  0.8215  0.3206
58617SOL     OW84628  10.930   8.082   1.257 -0.0959  0.6784 -0.4258
58617SOL    HW184629  10.917   8.142   1.330  0.8247  0.6356 -0.2156
58617SOL    HW284630  10.969   8.004   1.296 -0.5031  0.2720 -0.8224
58618SOL     OW84631  10.624   1.856   3.505  0.1049  0.2196  1.1845
58618SOL    HW184632  10.645   1.789   3.440  0.6283  0.8843  0.6522
58618SOL    HW284633  10.607   1.935   3.454  0.9348  0.8600  1.8604
58619SOL     OW84634   1.544   7.115   6.556 -0.4220  0.2625  0.4644
58619SOL    HW184635   1.581   7.118   6.645 -0.4166 -0.6925  0.5154
58619SOL    HW284636   1.487   7.191   6.551  0.2513  0.8112  0.9865
58620SOL     OW84637  12.212   6.482  11.957  0.2845 -0.1642  0.1416
58620SOL    HW184638  12.271   6.421  12.000  0.8417 -0.0263 -0.4088
58620SOL    HW284639  12.248   6.569  11.977 -0.6095  0.0148  1.0864
58621SOL     OW84640   9.535   7.027  10.518 -0.0857 -1.3081  0.7250
58621SOL    HW184641   9.493   6.942  10.531  1.7741 -2.4910 -0.4894
58621SOL    HW284642   9.572   7.022  10.430  1.4667  0.1263  1.2385
58622SOL     OW84643   0.760   4.077  11.688  0.4364 -1.0458 -0.6959
58622SOL    HW184644   0.746   4.123  11.605 -0.0221  0.3305  0.1053
58622SOL    HW284645   0.672   4.055  11.718  0.2883  1.4147  0.9742
58623SOL     OW84646  10.320   7.766  10.312 -0.3329 -0.0646  0.1024
58623SOL    HW184647  10.243   7.712  10.333 -1.0061  1.1548  0.9068
58623SOL    HW284648  10.368   7.773  10.394 -0.0759  0.2901 -0.0763
58624SOL     OW84649   9.976   2.495   2.762 -0.3858 -0.1661  0.8618
58624SOL    HW184650   9.974   2.422   2.700 -0.9329  0.1096  0.5438
58624SOL    HW284651   9.967   2.573   2.707 -2.3322  0.0206  1.3527
58625SOL     OW84652   9.911   3.246   2.573 -0.1788 -0.1798  0.2723
58625SOL    HW184653   9.971   3.269   2.643  0.1109 -0.1839  0.0284
58625SOL    HW284654   9.950   3.169   2.531 -0.0486  0.1581 -0.2480
58626SOL     OW84655   6.454   8.473   2.840 -0.1521  0.1112 -0.5536
58626SOL    HW184656   6.467   8.451   2.932  1.2988 -0.5262 -0.8769
58626SOL    HW284657   6.370   8.519   2.837  0.6048  1.7696  1.3475
58627SOL     OW84658   2.143   1.177   2.623  0.1651  0.0294 -0.8289
58627SOL    HW184659   2.068   1.234   2.606 -0.7880 -0.8155  0.4380
58627SOL    HW284660   2.106   1.090   2.631  1.4377 -0.5826 -1.2757
58628SOL     OW84661   1.715   8.805   8.407  0.0100 -0.1691  0.1444
58628SOL    HW184662   1.659   8.731   8.386  0.9410 -0.6573 -0.6781
58628SOL    HW284663   1.803   8.777   8.383  0.5118  0.8673  0.6843
58629SOL     OW84664   7.228   3.782  10.737 -0.3147 -0.8280  0.0832
58629SOL    HW184665   7.260   3.799  10.826 -2.4712 -0.1590  0.7978
58629SOL    HW284666   7.294   3.822  10.680  0.4959 -0.1736  1.4068
58630SOL     OW84667   4.949   3.725   1.924  0.4229  0.1746 -0.3650
58630SOL    HW184668   5.040   3.709   1.950  0.6228  0.7126 -0.7209
58630SOL    HW284669   4.953   3.805   1.872 -0.7014  2.2447  2.4615
58631SOL     OW84670   2.020   2.577   5.893 -0.8234  0.4678 -0.2467
58631SOL    HW184671   2.023   2.525   5.973  1.0114  2.0039  0.7453
58631SOL    HW284672   2.039   2.513   5.823  2.9694 -0.0850  1.0724
58632SOL     OW84673   2.980   7.020   7.007  0.5451 -0.3469 -0.0507
58632SOL    HW184674   2.923   7.040   6.932  1.6638  0.5690 -0.6888
58632SOL    HW284675   3.055   6.975   6.968  0.9719 -0.1696  0.5538
58633SOL     OW84676   6.915   4.439  12.223 -0.0728 -0.3948 -0.5867
58633SOL    HW184677   6.977   4.426  12.151  0.6963  0.7311 -0.1565
58633SOL    HW284678   6.892   4.531  12.218 -0.1272 -0.3430  0.5209
58634SOL     OW84679   1.869   5.230   2.215 -0.1043  0.5136 -0.3438
58634SOL    HW184680   1.844   5.211   2.306  0.6235 -0.0657 -0.2488
58634SOL    HW284681   1.876   5.144   2.174  0.6001  0.7126 -0.6613
58635SOL     OW84682   2.608   0.135  11.710 -0.1570 -0.0984 -0.2681
58635SOL    HW184683   2.518   0.142  11.678 -0.6985 -1.1238  0.9581
58635SOL    HW284684   2.662   0.154  11.633 -1.4069  1.0586 -0.9035
58636SOL     OW84685  11.247   1.950   8.731 -0.7948 -0.4576  0.7812
58636SOL    HW184686  11.238   1.867   8.684 -0.4312 -0.7970  1.2826
58636SOL    HW284687  11.204   2.015   8.676 -0.1107 -0.7863 -0.1561
58637SOL     OW84688   9.869   3.746   2.016  0.0458 -0.1270  0.0739
58637SOL    HW184689   9.853   3.657   1.985 -0.1284 -0.1051  0.1022
58637SOL    HW284690   9.910   3.734   2.102 -1.0876 -0.1711  0.6213
58638SOL     OW84691   0.960   0.198   1.045  0.4012  0.4964 -0.2157
58638SOL    HW184692   0.959   0.113   1.087 -0.1076  0.6836  0.1669
58638SOL    HW284693   0.992   0.258   1.113  1.3570  0.5250 -0.6712
58639SOL     OW84694   4.730   3.994   0.168  0.8068  0.3800 -0.4222
58639SOL    HW184695   4.728   4.010   0.074 -0.6914  1.9858 -0.1730
58639SOL    HW284696   4.798   4.052   0.202  0.5762  0.6424 -0.4019
58640SOL     OW84697   7.102   4.518   5.084  0.2549  0.1430 -0.1996
58640SOL    HW184698   7.155   4.572   5.142  0.2729 -1.1965  1.0753
58640SOL    HW284699   7.012   4.549   5.097 -0.0701 -1.5612  2.2992
58641SOL     OW84700   2.521   4.379   9.175 -0.4120 -0.1658  0.1177
58641SOL    HW184701   2.457   4.404   9.107  0.3428  0.8915 -0.2336
58641SOL    HW284702   2.569   4.306   9.137 -1.9557 -1.5579  0.7310
58642SOL     OW84703   0.251   9.653  11.801 -0.1182  0.2158 -0.1712
58642SOL    HW184704   0.287   9.737  11.775 -0.8864  0.9287  0.9714
58642SOL    HW284705   0.190   9.630  11.731  0.9815 -0.0173 -1.0970
58643SOL     OW84706  10.091   0.642   5.148 -0.4703 -0.1795 -0.1171
58643SOL    HW184707  10.100   0.551   5.175  1.7478 -0.0462 -0.2391
58643SOL    HW284708  10.095   0.693   5.229 -1.3313 -0.1454 -0.0833
58644SOL     OW84709  12.105   4.741   0.842 -0.2979 -0.0628 -0.0098
58644SOL    HW184710  12.108   4.802   0.916 -1.6390 -0.7789  0.6545
58644SOL    HW284711  12.014   4.715   0.836 -0.2288  0.0011 -1.9628
58645SOL     OW84712   1.180  12.003   5.272 -0.5754  0.1505 -0.0193
58645SOL    HW184713   1.087  11.995   5.293 -1.1276  1.8308 -1.5177
58645SOL    HW284714   1.191  12.095   5.250  1.3791 -0.1035 -0.2193
58646SOL     OW84715   6.369   3.888   6.001 -0.3210  0.6063  0.0300
58646SOL    HW184716   6.460   3.875   6.026  0.1111  0.3150 -1.5634
58646SOL    HW284717   6.319   3.872   6.081  0.8879 -1.2000  0.4721
58647SOL     OW84718   2.584   8.894   6.716 -0.0296  0.3888  0.0091
58647SOL    HW184719   2.503   8.879   6.668 -0.7821 -3.5769  2.0748
58647SOL    HW284720   2.649   8.914   6.649 -1.8949 -0.3211 -2.1371
58648SOL     OW84721  10.121   6.285   3.297  0.5724  0.3629  0.3136
58648SOL    HW184722  10.117   6.380   3.306  0.9518  0.3299  0.8733
58648SOL    HW284723  10.182   6.270   3.225  0.3724  0.5520  0.1070
58649SOL     OW84724   7.425   9.362   3.528  0.9881  0.4574  0.2591
58649SOL    HW184725   7.493   9.418   3.565  0.5329  0.3077  1.3775
58649SOL    HW284726   7.422   9.385   3.436  0.6062  2.5082  0.7437
58650SOL     OW84727   4.153  10.850  11.131  0.5878 -0.1347 -0.0573
58650SOL    HW184728   4.130  10.763  11.098  1.0839 -0.4717  0.4687
58650SOL    HW284729   4.241  10.866  11.096  0.3658  0.3096 -0.4329
58651SOL     OW84730   6.910   5.095   2.267 -0.0557  0.1595  0.6100
58651SOL    HW184731   6.976   5.056   2.324 -3.7347 -1.6045  4.2245
58651SOL    HW284732   6.920   5.190   2.279  0.7420 -0.1213  2.4992
58652SOL     OW84733  11.295   2.148  12.131 -0.0218  0.3576  0.3966
58652SOL    HW184734  11.237   2.223  12.142  0.6285  0.8611  0.5021
58652SOL    HW284735  11.383   2.185  12.138  0.3151 -0.3460 -0.0081
58653SOL     OW84736   6.992   3.028  12.262  0.1388 -0.0225  0.5651
58653SOL    HW184737   6.972   2.934  12.264  0.7198 -0.1722 -0.2503
58653SOL    HW284738   6.918   3.069  12.306 -0.7033 -0.7692 -0.1159
58654SOL     OW84739   0.153   1.125   2.083 -0.4399  0.0495  0.0275
58654SOL    HW184740   0.185   1.052   2.030  0.2778  0.8356 -0.6487
58654SOL    HW284741   0.059   1.108   2.093 -0.1769 -1.2602  0.3714
58655SOL     OW84742   2.327   1.785   2.891  0.4173  0.0258 -0.3779
58655SOL    HW184743   2.337   1.744   2.805 -0.1907 -1.2933  0.1539
58655SOL    HW284744   2.326   1.711   2.953  0.2371  0.9098  0.7064
58656SOL     OW84745   4.868   8.518  10.474 -0.1941 -0.0311 -0.1671
58656SOL    HW184746   4.852   8.598  10.423 -1.4435 -0.7223 -0.9094
58656SOL    HW284747   4.797   8.517  10.538  0.5200  0.0567  0.6497
58657SOL     OW84748   7.889   8.981   0.542 -0.6019 -0.1051  0.3891
58657SOL    HW184749   7.816   9.018   0.492  0.2411  2.5999  0.9558
58657SOL    HW284750   7.850   8.956   0.626 -1.1871 -0.4074  0.0340
58658SOL     OW84751   4.457  12.120   1.026 -0.1396 -0.6720  0.1461
58658SOL    HW184752   4.493  12.031   1.027  1.2379 -0.1892 -1.8179
58658SOL    HW284753   4.521  12.171   0.977 -1.6126  1.1069 -0.0142
58659SOL     OW84754   2.400  10.851  12.519 -0.4567  0.2613  0.2394
58659SOL    HW184755   2.479  10.896  12.489 -0.3397  0.7466  1.2658
58659SOL    HW284756   2.328  10.905  12.485 -0.3188  1.4695  1.7636
58660SOL     OW84757   7.949   0.638   8.461  0.0421 -0.3901 -0.2994
58660SOL    HW184758   8.038   0.658   8.490  0.5079  0.1007 -1.9969
58660SOL    HW284759   7.898   0.634   8.542  0.8973  2.7520  0.5041
58661SOL     OW84760   2.420   9.872   4.927  0.0785  0.4170 -0.7369
58661SOL    HW184761   2.391   9.791   4.884 -1.4034 -0.0992  1.1021
58661SOL    HW284762   2.347   9.932   4.917  1.1399  1.5731 -2.0121
58662SOL     OW84763   1.377   7.245   8.054  0.4358  0.1469  0.0276
58662SOL    HW184764   1.461   7.250   8.101 -0.2112  1.2056  1.1208
58662SOL    HW284765   1.322   7.190   8.109 -0.4743  1.7593  0.7919
58663SOL     OW84766   9.349   5.608   1.053  0.2760 -0.0472 -0.0588
58663SOL    HW184767   9.364   5.608   1.148 -0.7796 -1.1717  0.1330
58663SOL    HW284768   9.428   5.569   1.016  0.7237  0.4636  0.3494
58664SOL     OW84769  10.860   5.784   2.530 -0.2711 -0.1411 -0.4831
58664SOL    HW184770  10.849   5.693   2.505 -0.8934 -0.3574  0.4996
58664SOL    HW284771  10.909   5.824   2.458  1.5713 -1.6504 -0.1508
58665SOL     OW84772   5.667  12.141  11.311  0.3882 -0.7190 -0.2030
58665SOL    HW184773   5.575  12.134  11.289  0.4373 -0.3588 -0.5274
58665SOL    HW284774   5.686  12.062  11.362  0.0197 -1.0277 -0.5425
58666SOL     OW84775   9.006   6.367   9.554  0.2427 -0.5202 -0.5862
58666SOL    HW184776   8.946   6.305   9.595 -1.5432  0.9781 -0.7758
58666SOL    HW284777   8.966   6.385   9.469  0.5589  1.0351 -0.4292
58667SOL     OW84778   1.338   6.246   7.159  0.2124 -0.4068 -0.3310
58667SOL    HW184779   1.385   6.168   7.128 -1.0950 -1.5698  0.5224
58667SOL    HW284780   1.270   6.212   7.217  0.6468  1.4828  1.4058
58668SOL     OW84781   5.866   1.425   7.830 -0.6446 -0.1196  0.3045
58668SOL    HW184782   5.833   1.434   7.741 -1.8000  1.6135  0.8515
58668SOL    HW284783   5.822   1.347   7.865 -1.0288 -0.1684 -0.2856
58669SOL     OW84784   5.566   4.984  10.446 -0.6691  0.4762  0.2430
58669SOL    HW184785   5.560   4.891  10.466  1.1112  0.1706 -0.4643
58669SOL    HW284786   5.475   5.014  10.444 -1.2177 -0.8672  2.1226
58670SOL     OW84787   6.817   6.443  10.871 -0.1517  0.5790  0.5788
58670SOL    HW184788   6.890   6.398  10.828 -1.8142 -2.8556  0.9733
58670SOL    HW284789   6.740   6.416  10.821 -1.3593  3.0593  0.9474
58671SOL     OW84790   9.967   4.449   8.257  0.1254  0.0040 -0.0911
58671SOL    HW184791   9.933   4.421   8.172  0.6257  1.4868 -0.8215
58671SOL    HW284792  10.060   4.431   8.253 -0.1395 -1.7822  0.9583
58672SOL     OW84793   2.611   8.890   4.571  0.1434  0.2311  0.0685
58672SOL    HW184794   2.556   8.861   4.499  0.4180  2.2179 -1.0175
58672SOL    HW284795   2.697   8.853   4.552 -0.3064 -1.1750  0.6657
58673SOL     OW84796   8.356   5.745  12.537  0.0734  0.2108 -0.0084
58673SOL    HW184797   8.349   5.832  12.577  0.3862 -0.6220  2.0061
58673SOL    HW284798   8.347   5.761  12.443  1.9492  2.6199  0.1179
58674SOL     OW84799  11.531  12.351   5.656 -0.2366 -0.0510 -0.4768
58674SOL    HW184800  11.591  12.419   5.624  1.3333 -1.6284 -1.0640
58674SOL    HW284801  11.514  12.297   5.579 -1.4915 -0.3080 -0.0346
58675SOL     OW84802   5.328   2.935   3.121  0.3097  0.5365  0.3051
58675SOL    HW184803   5.347   3.025   3.147  0.7475  0.8331 -0.9675
58675SOL    HW284804   5.400   2.884   3.157  0.6939  0.8745  0.0211
58676SOL     OW84805   7.462  12.604   7.331  0.1114  0.6971  0.0468
58676SOL    HW184806   7.376  12.617   7.372 -0.4102  0.6139 -0.9981
58676SOL    HW284807   7.454  12.643   7.244  0.4180 -1.2116 -0.8968
58677SOL     OW84808   8.193   2.809   1.282  0.0001 -0.1122 -0.1165
58677SOL    HW184809   8.231   2.885   1.326 -1.2050  0.2265  0.3814
58677SOL    HW284810   8.125   2.847   1.225  0.5912 -0.6691 -1.2285
58678SOL     OW84811   8.129   0.287   9.428 -0.3239 -0.5954  0.0078
58678SOL    HW184812   8.178   0.345   9.369 -0.1124  0.1947  0.9283
58678SOL    HW284813   8.197   0.233   9.470 -0.2524  0.1677  0.9245
58679SOL     OW84814  10.478   9.687   7.208  0.1369  0.2073 -0.1500
58679SOL    HW184815  10.391   9.673   7.244  0.2897 -1.2163 -0.2732
58679SOL    HW284816  10.463   9.703   7.115  0.0935 -2.3987 -0.6666
58680SOL     OW84817   1.254   7.994   6.205  0.2168 -0.2683 -0.4640
58680SOL    HW184818   1.250   8.085   6.233  0.8211 -0.1529 -0.7371
58680SOL    HW284819   1.322   7.955   6.261 -0.4098 -0.6839  0.0176
58681SOL     OW84820  11.783   1.219   3.089  0.8179  0.0402  0.4171
58681SOL    HW184821  11.781   1.134   3.046 -1.4658 -0.7646  1.9038
58681SOL    HW284822  11.805   1.281   3.019 -3.0849 -1.1040 -2.1728
58682SOL     OW84823   3.943   1.406   4.419  0.0815  0.2554 -0.2761
58682SOL    HW184824   4.018   1.378   4.366  0.1574 -0.2348  0.0850
58682SOL    HW284825   3.869   1.361   4.379 -0.1259  1.2287 -1.0224
58683SOL     OW84826   1.378   2.846  11.723 -0.8044  0.3269  0.2392
58683SOL    HW184827   1.376   2.795  11.642  1.1666  0.1343  0.2704
58683SOL    HW284828   1.364   2.936  11.695 -2.9023  0.0007  0.0337
58684SOL     OW84829   2.407  11.365   1.006  0.0212  0.2247  0.0742
58684SOL    HW184830   2.378  11.445   1.050 -0.6680  2.0861 -3.3772
58684SOL    HW284831   2.326  11.327   0.971  0.7308  0.2100 -1.6273
58685SOL     OW84832   3.561   2.410   5.578 -0.6929 -0.0117 -0.3531
58685SOL    HW184833   3.528   2.377   5.662  1.2246  1.0069  0.8595
58685SOL    HW284834   3.646   2.368   5.567  0.0290  1.4946 -0.7194
58686SOL     OW84835   9.328   6.858   9.628  0.0307  0.0082  0.0035
58686SOL    HW184836   9.405   6.835   9.576 -0.0584 -2.9124  1.0071
58686SOL    HW284837   9.254   6.839   9.570  0.0093 -0.3048  0.1299
58687SOL     OW84838   5.361   7.756  11.204 -0.3090 -0.2619  0.0211
58687SOL    HW184839   5.444   7.779  11.246 -0.3993 -0.6593  0.4208
58687SOL    HW284840   5.294   7.776  11.269 -0.8360  2.9712 -1.3501
58688SOL     OW84841   5.143   5.342   2.974  0.9516  0.6892  0.8315
58688SOL    HW184842   5.048   5.355   2.969  1.0176  1.1552  0.7627
58688SOL    HW284843   5.167   5.382   3.058  0.8312 -1.0187  1.7221
58689SOL     OW84844   1.567   6.254   7.524  0.2820  0.3932 -0.0735
58689SOL    HW184845   1.524   6.185   7.473  0.2351 -1.7482  2.6415
58689SOL    HW284846   1.621   6.300   7.460  0.8298 -2.5874 -1.9591
58690SOL     OW84847  10.369   3.387  11.191 -0.4195  0.3652  0.2585
58690SOL    HW184848  10.400   3.324  11.127  0.6690  1.1557 -0.0199
58690SOL    HW284849  10.417   3.367  11.271 -0.3739  0.5744  0.2855
58691SOL     OW84850   0.079   8.668   0.739  0.0713  0.1336  0.1214
58691SOL    HW184851   0.011   8.710   0.791  1.1726  0.2938  1.4961
58691SOL    HW284852   0.031   8.615   0.675 -1.3213  1.2169  0.2374
58692SOL     OW84853   8.279   1.890  10.459  0.3269  0.1563  0.0757
58692SOL    HW184854   8.339   1.901  10.384 -0.7423  1.0272 -0.6741
58692SOL    HW284855   8.201   1.851  10.420  0.4150 -1.0759  1.0703
58693SOL     OW84856   0.737   0.122   5.941 -0.0684  0.6745 -0.5548
58693SOL    HW184857   0.642   0.115   5.947 -0.0323  0.8221  0.2486
58693SOL    HW284858   0.762   0.053   5.880 -0.6337  0.2120 -0.2723
58694SOL     OW84859   4.473  11.524   6.163 -0.3548  0.7618  0.3368
58694SOL    HW184860   4.528  11.455   6.126  0.5500  1.5513  0.1601
58694SOL    HW284861   4.402  11.534   6.100 -0.9486 -0.5642  0.7811
58695SOL     OW84862   1.066   8.402   8.185 -0.2275 -0.0335  0.0810
58695SOL    HW184863   1.035   8.428   8.272 -0.3121  0.7136 -0.1707
58695SOL    HW284864   0.986   8.381   8.137 -0.2947  0.9999 -0.2781
58696SOL     OW84865   7.849   3.303   8.934  0.4869  0.1941  0.0394
58696SOL    HW184866   7.806   3.245   8.997 -0.4392  1.7947  0.9150
58696SOL    HW284867   7.936   3.319   8.973  0.0688  0.8509  0.7275
58697SOL     OW84868  10.976   5.126   6.474  0.3183  0.4910  0.1338
58697SOL    HW184869  10.900   5.163   6.428  1.1346  0.9662 -0.8671
58697SOL    HW284870  11.019   5.071   6.409  1.4044  1.0429  0.3540
58698SOL     OW84871   3.113   6.711   9.738 -0.3867  0.1248  0.0407
58698SOL    HW184872   3.142   6.800   9.761 -1.6711  0.8919 -1.0996
58698SOL    HW284873   3.045   6.725   9.672 -3.1122 -1.5136  2.2509
58699SOL     OW84874   6.665   4.083   0.123  0.4259 -0.6472  0.5618
58699SOL    HW184875   6.737   4.046   0.071  0.7596  0.5082  0.1591
58699SOL    HW284876   6.701   4.090   0.211  0.7467 -0.2854  0.4099
58700SOL     OW84877  12.430   4.940   7.871 -0.0200 -0.2269 -0.4560
58700SOL    HW184878  12.403   4.867   7.816  0.9530  0.5487 -2.0428
58700SOL    HW284879  12.523   4.925   7.887  0.4433  1.1311 -1.6510
58701SOL     OW84880   1.902   3.113   5.949 -0.6304  0.0171 -0.1089
58701SOL    HW184881   1.931   3.099   6.039  0.5301 -0.3143 -0.5115
58701SOL    HW284882   1.820   3.065   5.942  0.0769 -1.2997  0.3353
58702SOL     OW84883   8.355   3.825   6.994  0.4633 -0.3128  0.7103
58702SOL    HW184884   8.316   3.757   7.049 -1.7085  0.7921  0.6719
58702SOL    HW284885   8.348   3.905   7.047 -0.5302  0.5458 -0.6271
58703SOL     OW84886  12.580   2.498  12.481  0.2004  0.1178 -0.0329
58703SOL    HW184887  12.650   2.439  12.452  1.4630  0.5224  1.9446
58703SOL    HW284888  12.626   2.574  12.516 -1.2364  0.5651  0.9788
58704SOL     OW84889   6.301   9.598  10.346 -0.1238 -0.8160  0.1039
58704SOL    HW184890   6.232   9.655  10.313  1.0118  0.7026  0.2541
58704SOL    HW284891   6.321   9.540  10.273 -0.7528 -0.5133 -0.3216
58705SOL     OW84892   5.913   2.029  11.650  0.2187  0.4555  0.5865
58705SOL    HW184893   5.998   2.041  11.609 -0.6328  1.1267 -1.0548
58705SOL    HW284894   5.932   1.982  11.731  1.9963 -0.6774 -0.4258
58706SOL     OW84895   6.874   6.265   2.866 -0.2936  0.2347  0.0540
58706SOL    HW184896   6.952   6.210   2.858  0.4860  1.2751  0.2296
58706SOL    HW284897   6.816   6.236   2.796  0.8892  0.4327 -1.0379
58707SOL     OW84898   1.935   9.934   0.231 -0.0183 -0.0416  0.2368
58707SOL    HW184899   1.987   9.987   0.171 -1.9637  1.7147  0.0164
58707SOL    HW284900   1.891   9.997   0.288 -1.0682 -1.5008  1.1139
58708SOL     OW84901  11.007   3.837   6.871  0.0033 -0.2981 -0.3559
58708SOL    HW184902  10.933   3.797   6.917  0.7243 -1.2219  0.0296
58708SOL    HW284903  11.015   3.787   6.790  1.4844 -1.6273  0.5379
58709SOL     OW84904   6.259   2.948   2.062 -0.1944  0.4096  0.2639
58709SOL    HW184905   6.212   2.901   2.131 -2.8434  1.0904 -0.9306
58709SOL    HW284906   6.264   2.885   1.990 -0.4844  0.7741 -0.0773
58710SOL     OW84907   1.156  10.291   2.302  0.4710 -0.6459  0.3748
58710SOL    HW184908   1.119  10.346   2.233  2.0401  2.8442  2.0599
58710SOL    HW284909   1.219  10.235   2.256 -0.3450 -0.2569 -1.3030
58711SOL     OW84910   3.630   9.093   0.136  0.2039 -0.0983 -0.3798
58711SOL    HW184911   3.627   9.143   0.217 -0.3417 -0.5461 -0.1143
58711SOL    HW284912   3.618   9.002   0.164 -1.4857 -0.1154 -1.0939
58712SOL     OW84913   5.503   7.975  10.555  0.0952 -0.1484 -0.1786
58712SOL    HW184914   5.567   8.039  10.587 -0.2439  0.2347 -0.2599
58712SOL    HW284915   5.440   7.967  10.627 -0.6066  0.6321 -0.6825
58713SOL     OW84916   4.062  10.051   8.187  0.0412  0.1477 -0.2832
58713SOL    HW184917   4.067   9.989   8.259 -1.4398 -0.3728 -0.5892
58713SOL    HW284918   4.123  10.017   8.121  2.5744  1.4493  1.2437
58714SOL     OW84919   5.197   7.148   7.535  0.4963 -0.4351 -0.9187
58714SOL    HW184920   5.154   7.217   7.485  0.7573 -1.3166 -2.4157
58714SOL    HW284921   5.175   7.067   7.489 -0.1098 -1.4242  1.0071
58715SOL     OW84922   5.670   3.264  11.049  0.3491 -0.1075  0.4233
58715SOL    HW184923   5.710   3.349  11.070  1.1312 -0.1019 -0.9320
58715SOL    HW284924   5.643   3.272  10.958  0.2895 -1.2612  0.3211
58716SOL     OW84925   2.977   7.883  11.609  0.6522 -0.5232  0.1785
58716SOL    HW184926   2.925   7.919  11.537 -0.2089 -1.1315  0.4852
58716SOL    HW284927   3.043   7.950  11.626  0.4389 -0.0642 -0.7138
58717SOL     OW84928   4.407  10.079   1.475  0.2962 -0.0285 -0.4785
58717SOL    HW184929   4.498  10.090   1.447  1.0236 -1.7439  0.9789
58717SOL    HW284930   4.404   9.989   1.508 -2.1144 -0.2222 -1.0889
58718SOL     OW84931  12.383   1.296  12.190  0.4682 -0.2852 -0.1273
58718SOL    HW184932  12.342   1.380  12.211  0.9675  0.1871 -0.9982
58718SOL    HW284933  12.473   1.318  12.169 -0.1511 -0.5295 -3.6676
58719SOL     OW84934   4.732  10.368   5.668  0.0486 -0.3473  0.1115
58719SOL    HW184935   4.678  10.391   5.593 -1.2215 -1.1094  0.7577
58719SOL    HW284936   4.781  10.291   5.639  0.9534  0.4541 -0.5388
58720SOL     OW84937   9.939   8.780   7.733  0.6424  0.2244 -0.3388
58720SOL    HW184938   9.987   8.833   7.796 -0.0401  1.8537 -1.1168
58720SOL    HW284939   9.855   8.762   7.776  1.8921 -2.8146  1.1137
58721SOL     OW84940   2.380  11.501   6.425 -0.6747 -0.6757 -0.9265
58721SOL    HW184941   2.420  11.418   6.399 -0.0732 -1.2485  1.5675
58721SOL    HW284942   2.443  11.541   6.484 -2.1646  0.2027  0.1355
58722SOL     OW84943   3.903  10.764   0.567 -0.1138  0.6931 -0.9317
58722SOL    HW184944   3.913  10.688   0.508  0.8909 -0.2629  0.4101
58722SOL    HW284945   3.894  10.725   0.654  0.0387  2.1285 -0.2595
58723SOL     OW84946   1.043   7.618  10.229 -0.6760 -0.3083  0.2315
58723SOL    HW184947   0.970   7.639  10.170 -2.2437  0.3332  2.3074
58723SOL    HW284948   1.108   7.686  10.211 -1.4491  0.3277 -0.2399
58724SOL     OW84949   4.848   0.143  12.059 -0.4215 -0.1626  0.0680
58724SOL    HW184950   4.920   0.158  12.120 -1.4319 -1.5421  1.7073
58724SOL    HW284951   4.853   0.215  11.997  1.1858  0.8361  1.2905
58725SOL     OW84952   2.050   2.394   7.317  0.5923 -0.2694  0.2069
58725SOL    HW184953   2.030   2.453   7.390 -1.4447  0.3503 -0.7687
58725SOL    HW284954   2.080   2.453   7.247  1.2697 -0.7119  0.1226
58726SOL     OW84955   1.304  11.907   3.957 -0.2161  0.3867 -0.4077
58726SOL    HW184956   1.348  11.824   3.940 -0.2192  0.8499 -3.1391
58726SOL    HW284957   1.316  11.922   4.051  4.6764  0.0445 -0.7485
58727SOL     OW84958   1.788   4.977   1.460 -0.1817  0.3698  0.0932
58727SOL    HW184959   1.861   5.033   1.484  0.8902 -0.2181 -1.6129
58727SOL    HW284960   1.800   4.898   1.514  0.3233  0.3592 -0.0291
58728SOL     OW84961   5.474   8.043   6.147 -0.3889  0.4886  0.3538
58728SOL    HW184962   5.403   8.043   6.082 -0.9160  1.2700  0.9103
58728SOL    HW284963   5.480   8.135   6.174  0.9315  0.4566  0.2221
58729SOL     OW84964   1.916  12.582   2.405  0.1476  0.2815 -0.0877
58729SOL    HW184965   1.881  12.629   2.330 -1.1802  0.4779  0.6345
58729SOL    HW284966   1.902  12.490   2.385 -2.1076  0.3866  0.7772
58730SOL     OW84967   8.422   7.363   0.016  0.5150  0.1905 -0.1189
58730SOL    HW184968   8.384   7.298  -0.044  0.4192 -0.2682  0.4295
58730SOL    HW284969   8.352   7.383   0.077  0.7180  0.4019  0.0441
58731SOL     OW84970   6.347   2.049   7.536 -0.3039  0.3426  0.5123
58731SOL    HW184971   6.339   2.101   7.616  0.2276  0.5414  0.4368
58731SOL    HW284972   6.256   2.038   7.506 -0.6381 -0.9929  1.9309
58732SOL     OW84973   2.674  10.842   9.017  0.3495  0.1261 -0.4679
58732SOL    HW184974   2.624  10.915   9.052 -1.0766 -1.8159  1.9456
58732SOL    HW284975   2.609  10.774   8.999  1.8396 -1.6491  0.4278
58733SOL     OW84976   5.692   2.660  10.432  0.2943 -0.5097  0.0256
58733SOL    HW184977   5.739   2.585  10.469 -1.1497 -0.9495  1.0771
58733SOL    HW284978   5.633   2.688  10.502  1.6733  2.4738  0.1473
58734SOL     OW84979   6.955  11.692   0.861 -0.2706  0.0105 -0.1949
58734SOL    HW184980   6.909  11.745   0.926  0.4013  1.3501 -0.7757
58734SOL    HW284981   7.048  11.711   0.875  0.0635 -1.6014  0.0607
58735SOL     OW84982   9.876   0.516   5.597  0.0100 -0.1623  0.1175
58735SOL    HW184983   9.837   0.463   5.666 -0.7926  1.2354  0.7875
58735SOL    HW284984   9.962   0.540   5.630  0.0962 -0.4784  0.1185
58736SOL     OW84985   5.038  11.549   8.316 -0.3893 -0.4954 -0.0003
58736SOL    HW184986   4.949  11.574   8.292 -0.6066  0.1599  1.3969
58736SOL    HW284987   5.093  11.618   8.278 -0.5156 -0.6135 -0.4060
58737SOL     OW84988   1.284   5.781  12.467  0.1200 -0.1750 -0.0961
58737SOL    HW184989   1.284   5.777  12.371 -0.4660 -0.6870 -0.0814
58737SOL    HW284990   1.194   5.808  12.489  0.0274 -0.8064  0.3308
58738SOL     OW84991  11.273   2.686   5.020 -0.7850 -0.4642 -0.2798
58738SOL    HW184992  11.334   2.613   5.009 -0.6391 -0.0733 -2.5514
58738SOL    HW284993  11.265   2.724   4.932 -0.4789  2.5608  0.8706
58739SOL     OW84994   0.543   7.362  10.554 -0.2529 -0.3368 -0.6435
58739SOL    HW184995   0.505   7.285  10.598 -0.3235 -0.9785 -1.7734
58739SOL    HW284996   0.468   7.419  10.537 -0.4827 -0.8452 -1.3891
58740SOL     OW84997   1.425  12.121   4.980  0.1061 -0.0277 -0.6770
58740SOL    HW184998   1.426  12.176   5.058  0.7193  0.5273 -1.0591
58740SOL    HW284999   1.370  12.169   4.917 -0.3586 -0.4542 -0.5971
58741SOL     OW85000   8.588   0.337   2.610  0.3993  0.3856 -0.5778
58741SOL    HW185001   8.574   0.425   2.645  0.4721 -0.1701  0.9347
58741SOL    HW285002   8.501   0.309   2.581 -0.1044  0.0921  1.1037
58742SOL     OW85003   9.778   8.911  12.292  0.7100  0.6301  0.0617
58742SOL    HW185004   9.713   8.869  12.348  0.5847  0.9576  0.1676
58742SOL    HW285005   9.822   8.839  12.246  1.1360  0.3246  0.9297
58743SOL     OW85006   5.842   3.509  12.382 -0.4813 -0.2587 -0.4874
58743SOL    HW185007   5.885   3.435  12.425 -0.8529 -0.6407 -0.7629
58743SOL    HW285008   5.910   3.575  12.374 -0.3370 -0.2824  0.4507
58744SOL     OW85009   1.278  11.936   9.076  0.5665 -0.1449 -0.5767
58744SOL    HW185010   1.336  11.938   9.152  1.6456 -1.3027 -1.3176
58744SOL    HW285011   1.264  11.843   9.059 -0.2120  0.1056 -1.3769
58745SOL     OW85012   8.229   7.970   2.850 -0.0501 -0.0105 -0.5391
58745SOL    HW185013   8.243   7.892   2.796  0.5752 -1.4239  1.5437
58745SOL    HW285014   8.317   8.005   2.865 -0.0690 -0.4221  0.6222
58746SOL     OW85015   4.370  10.447   7.825  0.1473 -0.0999 -0.3930
58746SOL    HW185016   4.439  10.387   7.852 -0.8613 -0.4637  1.5989
58746SOL    HW285017   4.292  10.418   7.874 -0.6644  2.0889 -0.2464
58747SOL     OW85018   6.424  10.727   6.106  0.3954 -0.1339 -0.4022
58747SOL    HW185019   6.337  10.727   6.147  0.8435 -1.6488  0.6029
58747SOL    HW285020   6.408  10.690   6.019 -0.2610  1.4521 -1.0058
58748SOL     OW85021   6.367   4.324   5.592 -0.1915  0.5443  0.1478
58748SOL    HW185022   6.409   4.243   5.622  0.7029  1.3767  1.2470
58748SOL    HW285023   6.430   4.362   5.530 -0.3315  0.7146  0.1077
58749SOL     OW85024   1.266  10.481   3.644  0.2907  0.2360  0.2104
58749SOL    HW185025   1.264  10.445   3.556 -0.2322  1.0421 -0.1220
58749SOL    HW285026   1.337  10.546   3.642 -0.1217  0.6956  0.1942
58750SOL     OW85027   3.104   5.058   9.081 -0.5853 -0.4262 -0.2113
58750SOL    HW185028   3.183   5.109   9.100 -1.0450  0.0399  0.5058
58750SOL    HW285029   3.087   5.073   8.988 -0.1171 -0.1277 -0.2525
58751SOL     OW85030  12.285   2.627   2.047 -0.4642  0.4837  0.9055
58751SOL    HW185031  12.325   2.628   1.960 -0.3803 -1.0886  0.8980
58751SOL    HW285032  12.285   2.718   2.075  0.7645  0.8346 -0.1733
58752SOL     OW85033  11.570  12.261  10.755  0.3454 -0.2227 -0.5999
58752SOL    HW185034  11.512  12.218  10.817  0.2355  0.3333 -0.3127
58752SOL    HW285035  11.618  12.189  10.713 -0.9610 -0.7517 -1.2704
58753SOL     OW85036  10.083   2.005   2.755 -0.5277  0.2879 -0.3865
58753SOL    HW185037  10.174   1.992   2.729 -0.5079 -0.6395  0.1010
58753SOL    HW285038  10.053   1.918   2.782 -1.4242  0.6681 -0.1190
58754SOL     OW85039  12.345  10.636  11.336 -0.8149  0.0197 -0.0257
58754SOL    HW185040  12.408  10.703  11.362 -1.3652  0.4107  0.3182
58754SOL    HW285041  12.368  10.614  11.246 -0.7487  0.8068 -0.2048
58755SOL     OW85042   0.592   9.217   2.291  0.1542 -0.4649  0.3624
58755SOL    HW185043   0.647   9.286   2.329 -0.4877  0.6240 -0.6255
58755SOL    HW285044   0.552   9.258   2.214  0.8080 -2.3568 -1.0575
58756SOL     OW85045   7.225   9.348   6.844  0.3285 -0.2910  0.5299
58756SOL    HW185046   7.318   9.330   6.856  0.2401 -1.8582 -0.8366
58756SOL    HW285047   7.183   9.305   6.919  0.6137 -0.4761  0.5839
58757SOL     OW85048   8.563  12.061   0.303 -0.2074  0.1120 -0.3420
58757SOL    HW185049   8.562  12.040   0.209 -0.4426  2.4185 -0.9057
58757SOL    HW285050   8.543  11.977   0.346  2.0752 -1.5055 -2.2005
58758SOL     OW85051   9.332  11.740   9.912  0.4496 -0.1120  0.6064
58758SOL    HW185052   9.300  11.792   9.987 -2.4686 -0.5764 -0.1712
58758SOL    HW285053   9.252  11.713   9.867  2.0671 -1.2655 -1.7492
58759SOL     OW85054   3.141  10.674   9.558 -0.7451  0.2256  0.1049
58759SOL    HW185055   3.109  10.642   9.474 -0.3594 -2.4193  0.8592
58759SOL    HW285056   3.073  10.648   9.620 -0.6161  1.3578  0.7411
58760SOL     OW85057   5.966  10.222   8.874 -0.4138 -0.3526  0.2810
58760SOL    HW185058   6.043  10.279   8.871 -0.6185 -0.0175  1.1312
58760SOL    HW285059   5.991  10.151   8.933 -0.8225 -0.1457  0.7051
58761SOL     OW85060   3.080   3.286   7.643 -0.4207  0.2639 -0.1559
58761SOL    HW185061   2.988   3.310   7.650 -0.1839  1.2277 -0.3136
58761SOL    HW285062   3.096   3.277   7.549 -0.2047  0.6838 -0.1598
58762SOL     OW85063  10.447   7.146  10.679  0.0485  0.5385  0.0142
58762SOL    HW185064  10.456   7.063  10.632  1.4333  1.2105 -0.9758
58762SOL    HW285065  10.533   7.188  10.671 -0.3624  1.6938  1.2322
58763SOL     OW85066   5.227   5.608   1.436 -0.4687  0.0560  0.7441
58763SOL    HW185067   5.268   5.671   1.376 -0.4241  1.6215  2.3375
58763SOL    HW285068   5.298   5.550   1.463 -0.0922  0.4807  0.6738
58764SOL     OW85069   6.562   2.082   3.402  0.4283 -0.3250  0.6531
58764SOL    HW185070   6.508   2.161   3.392 -1.2892 -1.6188 -1.1923
58764SOL    HW285071   6.511   2.026   3.462  1.7275 -0.0266  2.1118
58765SOL     OW85072   1.357  12.302   6.867  0.3463  0.1729  0.0793
58765SOL    HW185073   1.395  12.320   6.953  0.0413  1.0077  0.0502
58765SOL    HW285074   1.322  12.212   6.874 -0.3447  0.5008  1.0757
58766SOL     OW85075   7.619  11.710   9.689  0.7687 -0.1363 -1.0327
58766SOL    HW185076   7.610  11.722   9.595 -1.7517  3.2300 -0.5641
58766SOL    HW285077   7.534  11.737   9.725  1.7522 -0.9022  2.2378
58767SOL     OW85078  11.378   6.156   9.421  0.8376 -0.1488 -0.0953
58767SOL    HW185079  11.445   6.135   9.485  1.5042 -0.5734 -0.9196
58767SOL    HW285080  11.354   6.072   9.382 -0.8725 -0.1493  0.8400
58768SOL     OW85081   0.101  11.184   0.200 -0.2706 -0.1394  0.0665
58768SOL    HW185082   0.088  11.237   0.278 -1.3109  1.4602 -1.1032
58768SOL    HW285083   0.075  11.096   0.226  1.0866 -0.0269  1.9684
58769SOL     OW85084   5.283   6.661   4.710  0.4506 -0.4848 -0.3511
58769SOL    HW185085   5.325   6.577   4.727 -0.2180 -0.5216  1.2501
58769SOL    HW285086   5.203   6.658   4.761  0.0235  0.8239 -0.9147
58770SOL     OW85087   3.252   9.374   1.643  0.4189  0.2778  0.3668
58770SOL    HW185088   3.157   9.359   1.645  0.4751 -0.0219  1.0266
58770SOL    HW285089   3.290   9.291   1.670  0.9256 -0.0229 -1.2034
58771SOL     OW85090   5.792   8.201   3.214 -0.4389  0.6116  0.0895
58771SOL    HW185091   5.796   8.177   3.307  0.2539  1.6844  0.3453
58771SOL    HW285092   5.699   8.217   3.198 -0.9390 -1.9466 -0.0513
58772SOL     OW85093   6.566   6.479   2.747 -0.3350  0.1704  0.0223
58772SOL    HW185094   6.508   6.436   2.684 -0.4397 -1.3019  1.0535
58772SOL    HW285095   6.644   6.503   2.697 -0.2034 -1.4290 -0.5956
58773SOL     OW85096   6.108   2.516   1.038  0.2421 -0.0879  0.0693
58773SOL    HW185097   6.186   2.564   1.066 -0.5483  1.5528 -0.4568
58773SOL    HW285098   6.077   2.563   0.961 -1.2845 -0.7173  0.2687
58774SOL     OW85099  11.784   0.427   2.734 -0.1589 -0.0013 -0.4856
58774SOL    HW185100  11.741   0.495   2.786 -0.6327 -1.4754  1.1661
58774SOL    HW285101  11.756   0.345   2.775 -0.1091 -1.2364 -2.7914
58775SOL     OW85102  12.004   9.549   5.836  0.0452 -0.6199  0.0209
58775SOL    HW185103  12.044   9.519   5.917 -0.2216  0.6859  0.6682
58775SOL    HW285104  12.037   9.638   5.825 -0.4431 -0.5416 -0.9523
58776SOL     OW85105  11.053   4.212   8.942 -0.1216  0.0148 -0.0492
58776SOL    HW185106  10.978   4.162   8.911 -0.6618  1.1728 -0.6608
58776SOL    HW285107  11.017   4.296   8.969  0.9573  0.6177 -0.4181
58777SOL     OW85108   9.899   4.823   0.854  0.8540  0.0819 -0.5069
58777SOL    HW185109   9.907   4.918   0.852  0.4030  0.1780  1.2406
58777SOL    HW285110   9.813   4.807   0.891  1.9749 -0.9916  1.8018
58778SOL     OW85111   2.915   7.760   6.002  0.2188  0.4782  0.3606
58778SOL    HW185112   2.942   7.836   5.951  0.9360 -0.8117 -1.2873
58778SOL    HW285113   2.821   7.752   5.986 -0.1910  1.8884  1.8245
58779SOL     OW85114  11.975  11.816   1.741  0.3999 -0.0319  0.8146
58779SOL    HW185115  11.958  11.884   1.807 -0.1653 -0.3061  0.9590
58779SOL    HW285116  12.070  11.818   1.729  0.4378  0.4895  1.1342
58780SOL     OW85117   5.920   4.667   9.912 -0.2029 -0.1930 -0.4987
58780SOL    HW185118   5.897   4.728   9.842 -0.9135 -0.5415 -0.5845
58780SOL    HW285119   5.958   4.722   9.980 -0.3031  0.2657 -0.8080
58781SOL     OW85120   0.165   9.692  11.190  0.8428  0.2566 -0.1327
58781SOL    HW185121   0.088   9.644  11.158  0.9425  0.7234 -1.1086
58781SOL    HW285122   0.158   9.778  11.148  1.1096  0.8246  0.9382
58782SOL     OW85123   4.874   5.545   4.645 -0.2402  0.6536  1.0245
58782SOL    HW185124   4.881   5.632   4.605 -0.3511 -0.0641 -0.6441
58782SOL    HW285125   4.783   5.538   4.672 -0.5423  0.6381  0.0650
58783SOL     OW85126  12.051  11.012   3.962 -0.1298 -0.3966  0.1336
58783SOL    HW185127  12.124  11.061   3.998 -0.9728  1.1595 -0.1873
58783SOL    HW285128  12.053  11.030   3.868  0.7734 -2.6955 -0.3557
58784SOL     OW85129   5.266   9.464   0.617 -0.2338 -0.0682 -0.4011
58784SOL    HW185130   5.355   9.437   0.594  0.6017 -0.6721  3.0229
58784SOL    HW285131   5.272   9.559   0.624 -0.0919 -0.0320 -0.9030
58785SOL     OW85132  10.324   8.809   8.024 -0.0727 -0.2314 -0.4979
58785SOL    HW185133  10.395   8.858   7.981  0.5330  1.1677  1.9055
58785SOL    HW285134  10.316   8.729   7.973  1.6725  0.5907 -2.2089
58786SOL     OW85135   3.188   8.585   2.028  0.6863  0.1937 -0.2790
58786SOL    HW185136   3.251   8.522   1.993  1.4665  0.9536 -0.3107
58786SOL    HW285137   3.237   8.629   2.098 -0.0303  0.3713  0.1145
58787SOL     OW85138   1.240   6.546   9.791 -0.3476  0.4750 -0.0965
58787SOL    HW185139   1.257   6.519   9.701  1.5369 -1.1710  0.6938
58787SOL    HW285140   1.170   6.488   9.821  0.3253 -0.2676  0.0642
58788SOL     OW85141   8.517   3.260   7.359 -0.9675 -0.1225  0.1039
58788SOL    HW185142   8.518   3.218   7.274 -2.6168  0.5640 -0.2781
58788SOL    HW285143   8.503   3.353   7.341 -0.9704  0.0931  1.1083
58789SOL     OW85144   3.453   4.822   6.596  0.1097  0.4678  0.3444
58789SOL    HW185145   3.422   4.734   6.617 -0.6294  0.8308  0.8257
58789SOL    HW285146   3.383   4.861   6.543 -0.0212  1.0936  0.9515
58790SOL     OW85147   5.764  10.705  11.071 -0.0564  0.5877  0.0803
58790SOL    HW185148   5.856  10.725  11.057  0.0568  0.5647  0.7476
58790SOL    HW285149   5.764  10.621  11.117 -0.5206 -1.0535 -2.6799
58791SOL     OW85150   2.270   6.157   1.797 -0.2713 -0.5897  0.4406
58791SOL    HW185151   2.340   6.110   1.843 -0.1390 -1.0361 -0.2043
58791SOL    HW285152   2.212   6.089   1.766 -0.4234 -0.2869  0.0496
58792SOL     OW85153   2.205  10.905  11.978 -0.1805 -0.2311 -0.2886
58792SOL    HW185154   2.185  10.979  11.922 -2.4644  0.4028  1.2391
58792SOL    HW285155   2.290  10.927  12.018  0.1760  0.5286 -1.4292
58793SOL     OW85156   6.300   5.560   7.578 -0.1074  0.0469  0.3795
58793SOL    HW185157   6.315   5.471   7.611  0.0120  0.3024  1.0260
58793SOL    HW285158   6.371   5.575   7.517 -0.4419 -0.5074 -0.1549
58794SOL     OW85159   5.411   4.296   1.637  0.1769  0.0252 -0.4390
58794SOL    HW185160   5.433   4.261   1.724 -0.6081 -0.0549 -0.2659
58794SOL    HW285161   5.334   4.245   1.610  1.2970 -1.0051 -1.8449
58795SOL     OW85162   2.480   1.952   1.743  0.4032  0.4125  0.0671
58795SOL    HW185163   2.531   2.006   1.803 -0.3236 -0.4506  1.5150
58795SOL    HW285164   2.397   2.000   1.733  0.3995  0.3970  0.0252
58796SOL     OW85165   0.790   5.075   2.486 -0.8914  0.4333 -0.5181
58796SOL    HW185166   0.733   5.038   2.553  0.3433 -0.2386  0.2020
58796SOL    HW285167   0.742   5.064   2.404 -1.8793  0.0951  0.0899
58797SOL     OW85168   8.198   2.477   2.092 -0.2980  0.7864  0.3931
58797SOL    HW185169   8.244   2.437   2.019  1.2841  1.6683  0.8628
58797SOL    HW285170   8.246   2.449   2.170  0.9722  3.5739  0.7388
58798SOL     OW85171   6.863   3.660   5.282  0.5300 -0.4395 -0.2414
58798SOL    HW185172   6.901   3.584   5.238 -0.3079 -1.7105  1.1429
58798SOL    HW285173   6.834   3.717   5.210  3.4318 -0.1590 -1.3451
58799SOL     OW85174  10.733   0.363   1.097 -0.2307  0.2336  0.1253
58799SOL    HW185175  10.761   0.406   1.178 -0.8509 -0.1630  0.5639
58799SOL    HW285176  10.785   0.404   1.028  1.7039 -0.7405  0.9314
58800SOL     OW85177   0.653   8.738   2.545  0.0643  0.2615  0.2302
58800SOL    HW185178   0.612   8.813   2.503  0.2299  0.1446 -0.1455
58800SOL    HW285179   0.740   8.732   2.505  0.8101  1.0484  1.6449
58801SOL     OW85180   7.400   9.469   6.458 -0.0179 -0.2474  0.1975
58801SOL    HW185181   7.358   9.539   6.509  0.8546  1.7467 -1.6704
58801SOL    HW285182   7.328   9.421   6.419 -0.6575  1.4853 -0.8541
58802SOL     OW85183   7.958   9.851  12.555 -0.0102 -0.4116  0.0523
58802SOL    HW185184   7.863   9.860  12.565  0.0636  1.4156 -0.5488
58802SOL    HW285185   7.994   9.908  12.623  0.6088  0.3456 -0.8851
58803SOL     OW85186  10.523  10.337  11.484  0.4660 -0.2057  0.0864
58803SOL    HW185187  10.530  10.392  11.562 -0.8283 -1.1065  0.8913
58803SOL    HW285188  10.587  10.268  11.498  1.0407  0.2619 -0.2077
58804SOL     OW85189   6.515   5.640   3.911  0.0132 -0.1776  0.0866
58804SOL    HW185190   6.579   5.570   3.921  1.0382  0.7148  0.0027
58804SOL    HW285191   6.439   5.610   3.961  0.0149 -1.8096 -0.8184
58805SOL     OW85192   3.112  12.504   8.158  0.3863 -0.5742 -0.1267
58805SOL    HW185193   3.142  12.573   8.216  0.5524 -0.1181 -0.7390
58805SOL    HW285194   3.178  12.435   8.167  0.0794 -0.7716  0.6831
58806SOL     OW85195   3.877   8.276  10.733 -0.2068  0.7851  0.3534
58806SOL    HW185196   3.882   8.252  10.641  1.6093 -2.3239  1.1197
58806SOL    HW285197   3.796   8.326  10.741 -1.4129 -0.4895 -2.5864
58807SOL     OW85198   7.381   2.581   8.523 -0.5569 -0.3981  0.6328
58807SOL    HW185199   7.370   2.580   8.618 -1.6661 -1.9751  0.5137
58807SOL    HW285200   7.448   2.515   8.505 -0.3484 -0.1057  0.2964
58808SOL     OW85201   3.019   1.444   1.150 -0.4165  0.2199  0.3390
58808SOL    HW185202   3.088   1.486   1.203 -0.1802  0.2481  0.0127
58808SOL    HW285203   3.066   1.382   1.094 -0.5471  0.9033 -0.5450
58809SOL     OW85204   4.483   8.980   0.520  0.2040 -0.9103  0.3037
58809SOL    HW185205   4.479   9.065   0.477 -1.5003 -0.6429  0.9223
58809SOL    HW285206   4.551   8.990   0.587  0.9651 -0.4846 -0.5211
58810SOL     OW85207   4.791   0.701   8.358 -0.1205  0.2785 -0.0477
58810SOL    HW185208   4.723   0.767   8.343 -0.0969  0.2071 -0.4794
58810SOL    HW285209   4.819   0.715   8.449  0.0108  0.9745 -0.1944
58811SOL     OW85210   0.001   1.017   9.493 -0.2437  0.2550 -0.1752
58811SOL    HW185211  -0.093   1.021   9.514 -0.3360 -1.8632 -0.0345
58811SOL    HW285212   0.044   1.054   9.571 -0.9327  0.6502  0.0290
58812SOL     OW85213  12.475   3.272   2.635  0.4108 -0.6112  0.6649
58812SOL    HW185214  12.485   3.281   2.540 -0.9640 -1.0109  0.4528
58812SOL    HW285215  12.489   3.360   2.669  2.8024 -0.7954  0.3251
58813SOL     OW85216  11.933   2.984   7.984  0.2984 -0.3730 -0.1498
58813SOL    HW185217  11.838   2.975   7.986  0.3567 -0.9797  0.4090
58813SOL    HW285218  11.961   2.932   7.909  0.2772 -1.1959  0.4031
58814SOL     OW85219   5.378   6.748   5.977  0.2363 -0.2752  0.0244
58814SOL    HW185220   5.366   6.821   6.038  2.0125  0.4106 -0.3759
58814SOL    HW285221   5.322   6.770   5.903 -2.0455 -1.1834  1.3687
58815SOL     OW85222   7.048  10.684  10.403 -0.1729  0.1387  0.7244
58815SOL    HW185223   6.977  10.638  10.359 -1.1610 -2.3710  4.4438
58815SOL    HW285224   7.128  10.644  10.368 -0.9039 -1.7117  1.0439
58816SOL     OW85225  11.995   4.668   1.479 -0.8587  0.6766 -0.2657
58816SOL    HW185226  11.925   4.612   1.443 -1.2034  1.1643 -0.3580
58816SOL    HW285227  11.950   4.725   1.541 -0.1757 -0.5671  1.4475
58817SOL     OW85228   4.890   5.854  11.434  0.4242 -0.2081 -0.0976
58817SOL    HW185229   4.935   5.932  11.402  1.1908  0.1439  1.7477
58817SOL    HW285230   4.880   5.868  11.528 -1.8260 -1.1530 -0.1146
58818SOL     OW85231   5.077   3.218   7.710 -0.1774  0.5168 -0.4476
58818SOL    HW185232   5.017   3.257   7.774  1.5769  1.1748  0.8909
58818SOL    HW285233   5.021   3.193   7.637 -2.1383  0.6986  0.8945
58819SOL     OW85234   6.397   3.767  11.789  0.2726 -0.5039 -0.0196
58819SOL    HW185235   6.342   3.787  11.865  0.9701  0.5294  0.2338
58819SOL    HW285236   6.335   3.763  11.715 -0.1178  1.0177  0.1952
58820SOL     OW85237   0.230  12.511   8.503 -0.8214  0.2791 -0.4294
58820SOL    HW185238   0.170  12.437   8.519 -0.4767 -0.1451 -1.0530
58820SOL    HW285239   0.285  12.481   8.431  3.5263 -1.4244  3.1415
58821SOL     OW85240   2.156   2.986   5.021 -0.3875 -0.5121 -0.2469
58821SOL    HW185241   2.199   2.903   5.042 -0.3219 -0.5551 -0.5405
58821SOL    HW285242   2.104   3.006   5.098  1.3546  0.3399  0.7561
58822SOL     OW85243   0.100   0.449   6.168 -0.1129  0.1677  0.0947
58822SOL    HW185244   0.005   0.455   6.173 -0.4856 -1.9104 -2.2148
58822SOL    HW285245   0.120   0.463   6.075  1.7214 -0.4795  0.3445
58823SOL     OW85246   3.920   5.635  11.905 -0.0862  0.2055 -0.0852
58823SOL    HW185247   3.912   5.700  11.975 -0.5944 -0.8366  0.8507
58823SOL    HW285248   3.881   5.556  11.941 -0.4443 -0.3326 -1.5967
58824SOL     OW85249   9.444   3.404   9.749  0.1926  0.3977  0.0936
58824SOL    HW185250   9.398   3.321   9.738  0.8217 -0.2156  1.7883
58824SOL    HW285251   9.514   3.401   9.684  0.8500 -0.8887  0.8211
58825SOL     OW85252   5.747   3.673   9.691 -0.5511 -0.3929  0.7126
58825SOL    HW185253   5.838   3.665   9.661 -1.1719 -1.3713 -1.0565
58825SOL    HW285254   5.740   3.763   9.723  0.7194  0.0766 -0.2361
58826SOL     OW85255   7.689   2.874   0.907  0.2612  0.1415 -0.2272
58826SOL    HW185256   7.675   2.888   1.000 -3.3642  1.7385 -0.8242
58826SOL    HW285257   7.621   2.812   0.881  0.5130  0.5169 -1.9509
58827SOL     OW85258   5.284   1.987   7.821  0.4591 -0.3740  0.1064
58827SOL    HW185259   5.265   1.894   7.816  0.0731 -0.2635 -0.5580
58827SOL    HW285260   5.370   1.992   7.863 -0.0473 -0.9740  1.2435
58828SOL     OW85261   5.162   1.722  10.889 -0.4300  0.2831  0.5348
58828SOL    HW185262   5.225   1.779  10.844  0.1813  0.6073  1.7603
58828SOL    HW285263   5.179   1.635  10.853  0.1747  0.4980  0.2777
58829SOL     OW85264   6.860   5.896   1.075 -0.0726  0.0972 -0.1497
58829SOL    HW185265   6.827   5.820   1.026 -0.3708 -0.3577  0.7388
58829SOL    HW285266   6.932   5.929   1.021 -0.1998 -0.5703 -0.7523
58830SOL     OW85267   2.523  10.389   0.033 -0.1460 -0.4522  0.0067
58830SOL    HW185268   2.515  10.367  -0.059 -0.2316  0.7716 -0.2940
58830SOL    HW285269   2.586  10.461   0.036 -0.7789  0.0937  0.7974
58831SOL     OW85270   7.678   0.085   1.467 -0.1883 -0.3532  0.1058
58831SOL    HW185271   7.585   0.101   1.449 -0.6524 -2.3413  0.5380
58831SOL    HW285272   7.708   0.166   1.509 -1.5453  0.5536 -0.5857
58832SOL     OW85273   6.886   8.166   7.148 -0.0049 -0.7480  0.4061
58832SOL    HW185274   6.899   8.107   7.074 -0.4751  1.7669 -1.8240
58832SOL    HW285275   6.972   8.172   7.190  1.2138  0.3302 -2.0340
58833SOL     OW85276   2.227   1.593   6.547 -0.2038 -0.4644 -0.1685
58833SOL    HW185277   2.166   1.661   6.517  1.0261  1.6797  1.8116
58833SOL    HW285278   2.178   1.544   6.613 -0.5014 -0.1935 -0.1857
58834SOL     OW85279   2.251   8.529   0.607  0.0172 -0.2470 -0.2162
58834SOL    HW185280   2.211   8.477   0.538  0.2744 -2.9434  1.5222
58834SOL    HW285281   2.229   8.484   0.688  0.8738  2.0051  1.3983
58835SOL     OW85282  11.687   9.417   6.423  0.2097 -0.2574  0.5714
58835SOL    HW185283  11.706   9.448   6.511 -0.5684 -0.4703  0.8266
58835SOL    HW285284  11.669   9.497   6.373 -1.3719 -0.2298  1.1220
58836SOL     OW85285  10.645   1.193  11.688 -0.0574  0.3520  0.3372
58836SOL    HW185286  10.666   1.128  11.756 -0.4715  0.0183  0.1519
58836SOL    HW285287  10.619   1.140  11.613  0.2341  0.7252 -0.0257
58837SOL     OW85288   2.154   0.886  10.569 -0.1561  0.0788  1.1596
58837SOL    HW185289   2.100   0.941  10.625  0.9242  0.9518  1.3971
58837SOL    HW285290   2.244   0.902  10.599  0.2494 -1.3569  0.8242
58838SOL     OW85291  10.324   8.296   8.817  0.0263  0.0407  0.6110
58838SOL    HW185292  10.328   8.375   8.763 -1.8589 -2.5161 -3.8267
58838SOL    HW285293  10.410   8.255   8.807  0.2270  0.3477  1.0120
58839SOL     OW85294   4.617   4.769   2.146 -0.0815 -0.2464 -0.4459
58839SOL    HW185295   4.577   4.771   2.060 -0.4140 -0.9567 -0.3110
58839SOL    HW285296   4.580   4.844   2.192 -1.0212 -0.7145 -0.4282
58840SOL     OW85297   1.321  11.674   2.357 -0.0385  0.4708  0.0953
58840SOL    HW185298   1.233  11.639   2.370  0.7142 -0.9861  1.5377
58840SOL    HW285299   1.321  11.756   2.406 -0.7769  0.8487 -0.5004
58841SOL     OW85300   0.716   2.869   0.471 -0.2458 -0.2170 -0.6609
58841SOL    HW185301   0.713   2.894   0.564  0.7596  2.7304 -1.2955
58841SOL    HW285302   0.627   2.885   0.440 -0.2545  0.1361 -0.4713
58842SOL     OW85303   8.742   5.847   0.002  0.6266 -0.0586 -0.1622
58842SOL    HW185304   8.767   5.916  -0.060 -0.1629 -1.4593 -2.1473
58842SOL    HW285305   8.717   5.774  -0.054 -2.1266 -0.7334  1.8013
58843SOL     OW85306   7.826   2.583   2.263  0.5046  0.0060  0.5032
58843SOL    HW185307   7.737   2.594   2.229  1.2476 -1.2597 -2.1398
58843SOL    HW285308   7.819   2.605   2.356 -2.2785  1.1877  0.1274
58844SOL     OW85309  10.441   1.917   9.428  0.0595 -0.4180  0.7122
58844SOL    HW185310  10.441   1.958   9.515 -0.1666 -0.1515  0.5871
58844SOL    HW285311  10.410   1.828   9.444  0.0241 -0.3721  0.9067
58845SOL     OW85312   5.676   5.661   4.516  0.0761 -0.0536  0.1487
58845SOL    HW185313   5.762   5.650   4.556  0.0121 -1.1054  0.0094
58845SOL    HW285314   5.692   5.658   4.422 -0.0003  0.7066  0.1014
58846SOL     OW85315   2.719   9.134  12.535  0.1167 -0.0245 -0.2610
58846SOL    HW185316   2.758   9.217  12.562  1.6270 -0.6956 -0.2683
58846SOL    HW285317   2.689   9.094  12.617  0.4692  0.0056 -0.1153
58847SOL     OW85318   6.889  10.112  11.585  0.8637 -0.1551 -0.0795
58847SOL    HW185319   6.845  10.068  11.513  1.1163 -0.0693 -0.2863
58847SOL    HW285320   6.922  10.193  11.548 -1.2439  1.1624  0.7423
58848SOL     OW85321   0.328   9.427   9.787 -0.2877 -0.0120 -0.1308
58848SOL    HW185322   0.319   9.335   9.809  1.6802 -0.1782  0.1255
58848SOL    HW285323   0.275   9.473   9.853 -1.8266 -0.9490 -0.6661
58849SOL     OW85324   4.290   4.218   8.419  0.6480 -0.1462 -0.2228
58849SOL    HW185325   4.363   4.275   8.396 -0.0801  0.5104 -0.9998
58849SOL    HW285326   4.270   4.170   8.339  0.4466 -0.5745  0.0782
58850SOL     OW85327   5.839  12.167  11.729 -0.3729 -0.6013 -0.4028
58850SOL    HW185328   5.757  12.159  11.777 -1.1806 -0.5042 -1.7353
58850SOL    HW285329   5.880  12.080  11.736 -1.4558 -1.2012 -1.2476
58851SOL     OW85330   9.899   0.287  12.290  0.1108 -0.0626  0.1813
58851SOL    HW185331   9.857   0.231  12.355 -1.3612  0.4280 -0.2967
58851SOL    HW285332   9.907   0.232  12.212  0.4950 -0.2001  0.3167
58852SOL     OW85333   8.401   5.264   1.191  0.0112 -0.0461 -0.7103
58852SOL    HW185334   8.489   5.297   1.210  0.4175 -1.3450 -0.2401
58852SOL    HW285335   8.402   5.243   1.098 -0.0318  0.5758 -0.8582
58853SOL     OW85336   5.135   1.420   9.278 -0.0296 -0.4256  0.2293
58853SOL    HW185337   5.207   1.398   9.338  1.2975  0.1415 -1.1216
58853SOL    HW285338   5.138   1.515   9.269  0.3953 -0.5705 -1.4526
58854SOL     OW85339   0.937   8.582  11.857  0.0500 -0.1953 -0.2903
58854SOL    HW185340   0.862   8.549  11.905 -0.0480 -0.5908 -0.7013
58854SOL    HW285341   0.951   8.670  11.890 -0.3386 -0.2715  0.0780
58855SOL     OW85342   9.996   9.817   4.514 -0.2282 -0.0564 -0.3527
58855SOL    HW185343   9.915   9.827   4.564  0.0428 -0.3045  0.1451
58855SOL    HW285344   9.991   9.884   4.446 -0.9217 -0.1703 -0.4203
58856SOL     OW85345   3.936   8.032   8.861  0.4699 -1.0175 -0.0460
58856SOL    HW185346   4.010   8.001   8.808  2.3326  2.6534  0.1067
58856SOL    HW285347   3.956   8.001   8.949  1.8245 -0.1588 -0.0254
58857SOL     OW85348   1.101   8.204   0.085 -0.1039  0.1478  0.7196
58857SOL    HW185349   1.019   8.199   0.134 -0.5397 -0.0640 -0.0066
58857SOL    HW285350   1.073   8.204  -0.007  0.7395 -0.5213  0.4559
58858SOL     OW85351   1.661   3.569   7.820  0.7145 -0.6489  0.0235
58858SOL    HW185352   1.647   3.621   7.899 -1.1853 -0.3236 -0.4881
58858SOL    HW285353   1.637   3.480   7.846 -0.6836 -0.4079 -0.3591
58859SOL     OW85354   7.926   3.757   1.176 -0.3804 -0.7499 -0.1479
58859SOL    HW185355   7.907   3.816   1.249  0.7901  0.0256 -0.4509
58859SOL    HW285356   8.014   3.781   1.148  0.3690 -3.0253  0.0595
58860SOL     OW85357   2.551   5.541   7.050 -0.0779  0.1420  0.2022
58860SOL    HW185358   2.560   5.480   7.123  1.8531  0.1500  0.0022
58860SOL    HW285359   2.471   5.512   7.005  0.3611 -1.7438  0.5642
58861SOL     OW85360  10.949   3.429  11.344 -0.0930 -0.3411 -0.0976
58861SOL    HW185361  10.962   3.363  11.411  1.4517 -0.8272 -0.8384
58861SOL    HW285362  11.011   3.499  11.366 -0.6204  0.1715 -0.1961
58862SOL     OW85363   3.163   6.042   4.390  0.1054 -0.1858 -0.2273
58862SOL    HW185364   3.220   6.080   4.456  5.7273 -2.5816 -3.0589
58862SOL    HW285365   3.139   6.115   4.333 -0.5946  1.0287  1.5533
58863SOL     OW85366  12.008   8.142   5.176 -0.1122 -0.4566 -0.3562
58863SOL    HW185367  12.026   8.162   5.268 -0.2162 -1.2900 -0.1535
58863SOL    HW285368  11.915   8.166   5.165  0.0556  0.2056 -0.4095
58864SOL     OW85369   3.188  10.609   5.107  0.0655  0.4530  0.0377
58864SOL    HW185370   3.192  10.520   5.142 -0.1282  0.8798  1.2209
58864SOL    HW285371   3.274  10.624   5.069  0.5262  0.1694  0.9304
58865SOL     OW85372   9.750   1.920   8.255  0.2285  0.3474  0.6542
58865SOL    HW185373   9.663   1.881   8.260 -0.3219  1.5371  0.6261
58865SOL    HW285374   9.737   2.012   8.279  0.5899  1.8694 -3.9868
58866SOL     OW85375   7.679  12.223   9.161  0.4721 -0.3286 -0.4651
58866SOL    HW185376   7.595  12.266   9.174  0.2606 -1.2090  1.4887
58866SOL    HW285377   7.730  12.247   9.239  1.0502 -1.9865 -0.3003
58867SOL     OW85378   3.428   3.306  10.619 -0.2104 -0.5941 -0.3396
58867SOL    HW185379   3.400   3.219  10.593  2.3314 -1.5617 -0.0687
58867SOL    HW285380   3.445   3.352  10.537  0.4918 -1.0901 -0.4761
58868SOL     OW85381  11.808   9.661  11.641 -0.3133  0.3738  0.0995
58868SOL    HW185382  11.808   9.595  11.710 -0.5183  0.9688  0.6888
58868SOL    HW285383  11.755   9.623  11.571  1.9256 -1.2769 -0.8080
58869SOL     OW85384   3.733   5.798   7.205 -0.0481  0.1983 -0.4804
58869SOL    HW185385   3.828   5.787   7.213 -0.2671 -0.9826  1.1663
58869SOL    HW285386   3.701   5.711   7.180 -0.6486  0.8039 -1.9359
58870SOL     OW85387   8.423  11.978   1.718  0.0290  0.7257  0.0939
58870SOL    HW185388   8.462  12.056   1.757 -0.3246  0.9325  0.0337
58870SOL    HW285389   8.436  11.909   1.784 -0.0497  0.9362  0.3318
58871SOL     OW85390  10.034  11.170   1.295 -0.1232  0.1524 -0.2737
58871SOL    HW185391   9.992  11.096   1.251  1.5012  0.0046 -1.6471
58871SOL    HW285392  10.098  11.203   1.232  0.4044  1.6508  0.9756
58872SOL     OW85393  11.581   5.792   0.829  0.2173  0.4097 -0.1434
58872SOL    HW185394  11.517   5.861   0.847  0.2409 -0.2346  2.9154
58872SOL    HW285395  11.633   5.826   0.756 -1.1188  2.6714 -0.1419
58873SOL     OW85396   5.911   9.281   4.650 -0.4989  0.8509 -0.5279
58873SOL    HW185397   5.827   9.236   4.648  0.3194 -0.9058  1.4837
58873SOL    HW285398   5.893   9.367   4.611 -2.8234 -0.0470 -1.5891
58874SOL     OW85399   0.473   9.292   1.066  0.5039  0.1793 -0.0583
58874SOL    HW185400   0.530   9.215   1.062  0.8672  0.4495 -0.2522
58874SOL    HW285401   0.401   9.272   1.006 -0.4867 -0.8411  1.3939
58875SOL     OW85402   0.008   9.672   9.658 -0.0878 -0.3431 -0.1553
58875SOL    HW185403   0.003   9.759   9.697  1.6729 -0.1586 -0.2592
58875SOL    HW285404  -0.044   9.617   9.715 -0.0036  0.4960  0.7603
58876SOL     OW85405   6.375   3.422   4.136  0.1250  0.1201 -0.1134
58876SOL    HW185406   6.325   3.500   4.159  1.3402  0.9285 -0.1139
58876SOL    HW285407   6.351   3.358   4.202  0.8409  1.2534  1.3038
58877SOL     OW85408   2.803  11.124   0.480  0.6360  0.0907  0.1457
58877SOL    HW185409   2.848  11.129   0.564  0.8942  0.2121 -0.0004
58877SOL    HW285410   2.813  11.211   0.442 -0.0517  0.2365  0.2802
58878SOL     OW85411   7.028   1.392   5.773 -0.4274  0.5276  0.6325
58878SOL    HW185412   6.970   1.327   5.812 -0.2573 -0.0576 -0.0803
58878SOL    HW285413   6.975   1.435   5.707  0.4960 -1.4464 -1.5216
58879SOL     OW85414   5.468   0.605  10.435 -0.0946  0.0369  0.3055
58879SOL    HW185415   5.505   0.694  10.433  1.0139 -0.3103  2.5391
58879SOL    HW285416   5.534   0.553  10.482  0.2864 -2.4937 -2.7078
58880SOL     OW85417  12.099   4.444   3.241  0.3331  0.1926 -0.6660
58880SOL    HW185418  12.057   4.512   3.293  0.5408 -0.0938 -0.1177
58880SOL    HW285419  12.132   4.381   3.305 -2.2999 -1.9139 -1.1714
58881SOL     OW85420   3.925  12.222  10.640  0.0054  0.4626  0.2465
58881SOL    HW185421   3.967  12.221  10.554 -0.0347  0.9104  0.2196
58881SOL    HW285422   3.865  12.147  10.638 -0.8918  1.1778 -0.5680
58882SOL     OW85423  12.342  10.526   9.522  0.6900  0.3083 -0.6542
58882SOL    HW185424  12.259  10.573   9.523  0.7907  0.5680  1.7401
58882SOL    HW285425  12.317  10.433   9.522  0.4071  0.3823 -0.4200
58883SOL     OW85426   5.115   9.163   3.843  0.2159  0.1033 -0.2082
58883SOL    HW185427   5.134   9.125   3.758 -0.1844  0.0913 -0.2906
58883SOL    HW285428   5.199   9.199   3.872  0.4894 -0.4314 -0.3307
58884SOL     OW85429   8.459   0.476   8.370 -0.3147  0.0099 -0.1187
58884SOL    HW185430   8.463   0.549   8.308 -1.6770 -0.5154 -0.8683
58884SOL    HW285431   8.415   0.406   8.322  2.1660 -1.8252  0.1270
58885SOL     OW85432  12.066   1.392   9.518 -0.2345  0.7021  0.1723
58885SOL    HW185433  11.980   1.391   9.562  0.0176 -0.5823  0.6753
58885SOL    HW285434  12.046   1.411   9.427 -1.0522  0.4376  0.2894
58886SOL     OW85435   8.443   5.817   3.771 -0.9284 -0.1042 -0.2239
58886SOL    HW185436   8.367   5.803   3.713 -2.0825  0.1019  1.1860
58886SOL    HW285437   8.496   5.738   3.760 -2.0679 -0.9004 -0.1995
58887SOL     OW85438   6.596  11.331   2.713  0.0762  0.2043  0.1097
58887SOL    HW185439   6.580  11.283   2.631  0.6998 -0.1790  0.2007
58887SOL    HW285440   6.623  11.418   2.685  2.2097 -0.4971 -0.1783
58888SOL     OW85441  10.021   8.643  10.166 -0.0678  0.1180 -0.0399
58888SOL    HW185442   9.949   8.606  10.116 -1.0335 -1.2240  2.1724
58888SOL    HW285443  10.099   8.625  10.113 -0.9713 -1.5738 -0.8876
58889SOL     OW85444   9.049   4.712   5.673  0.4502 -0.1999 -0.2539
58889SOL    HW185445   8.984   4.642   5.681  1.3577 -1.2125 -1.4038
58889SOL    HW285446   9.081   4.725   5.763 -0.7174 -0.2848  0.1851
58890SOL     OW85447   4.722   5.536  10.227 -0.2920  1.0505 -0.3293
58890SOL    HW185448   4.742   5.485  10.306 -1.5844  1.1805  0.0992
58890SOL    HW285449   4.764   5.488  10.156  1.5267  1.3224  0.5061
58891SOL     OW85450   2.257   6.536   0.748 -0.8830  0.5325 -0.3676
58891SOL    HW185451   2.177   6.557   0.796 -1.1848  0.8163 -0.9802
58891SOL    HW285452   2.247   6.581   0.664  0.2093  1.1207 -0.2046
58892SOL     OW85453   3.742   5.158   5.203  0.2472 -0.1195 -0.1150
58892SOL    HW185454   3.759   5.093   5.271  2.3965  0.9403  0.4648
58892SOL    HW285455   3.659   5.132   5.164 -0.9131 -0.9511  2.6986
58893SOL     OW85456   6.192   3.822   9.725 -0.0136 -0.3591  0.1623
58893SOL    HW185457   6.243   3.811   9.644  2.0340  1.2770  1.1330
58893SOL    HW285458   6.125   3.886   9.702 -1.1599 -1.8889 -0.9104
58894SOL     OW85459  10.090   1.249   0.330 -0.1120  0.6157 -0.7355
58894SOL    HW185460  10.002   1.238   0.367 -0.7722  0.1772 -2.3335
58894SOL    HW285461  10.132   1.164   0.341  0.1671  0.8535  0.1175
58895SOL     OW85462   3.004   0.968   1.510  0.3165  0.1229  0.0886
58895SOL    HW185463   2.982   0.931   1.596  0.0699 -0.3529 -0.1760
58895SOL    HW285464   3.080   0.918   1.481 -0.3487 -0.5687 -0.5127
58896SOL     OW85465   1.282   4.288  12.373 -0.3106 -0.2047  0.0901
58896SOL    HW185466   1.284   4.192  12.366  0.5328 -0.1102 -1.4870
58896SOL    HW285467   1.202   4.307  12.421  0.6485 -1.7788  2.5182
58897SOL     OW85468   6.944   7.030  12.297  0.5542  0.4334  0.0803
58897SOL    HW185469   6.904   7.027  12.210 -0.5896 -1.7693  0.6171
58897SOL    HW285470   6.985   6.944  12.308  1.5781  1.0461  1.3410
58898SOL     OW85471   3.562   8.556  11.077 -0.3761  0.3569  0.5799
58898SOL    HW185472   3.514   8.599  11.148  0.3633 -0.3879  1.5508
58898SOL    HW285473   3.637   8.613  11.061 -1.2139  1.2092 -0.5329
58899SOL     OW85474  12.440   6.810   9.978  0.3271  0.4071  0.0597
58899SOL    HW185475  12.528   6.843   9.961  0.1329  1.3477  0.8222
58899SOL    HW285476  12.440   6.789  10.072 -1.1163  3.1978  0.7713
58900SOL     OW85477   1.315   9.641   9.289  0.4398  0.0824 -0.6818
58900SOL    HW185478   1.382   9.597   9.236  0.8377  0.2085 -0.2862
58900SOL    HW285479   1.271   9.699   9.227  1.0951  0.4459 -0.8163
58901SOL     OW85480   8.912   6.339   0.650 -0.0562 -0.1842  0.1757
58901SOL    HW185481   8.828   6.322   0.691 -0.2078 -0.1709 -0.1268
58901SOL    HW285482   8.909   6.432   0.626  0.4405  0.0684  1.0672
58902SOL     OW85483   8.513   9.156   8.204 -0.5799  0.1054 -0.1727
58902SOL    HW185484   8.594   9.116   8.173 -0.9866  0.5804 -1.9766
58902SOL    HW285485   8.539   9.241   8.239 -0.1411 -0.3351  0.5997
58903SOL     OW85486   5.299   7.151   7.169  0.0051  0.1514 -0.5814
58903SOL    HW185487   5.362   7.164   7.240 -0.6588 -0.4488  0.1365
58903SOL    HW285488   5.284   7.239   7.135 -0.2475  0.5693  0.5387
58904SOL     OW85489   9.986  12.378   4.631  0.1109 -0.1785  0.5084
58904SOL    HW185490   9.943  12.306   4.584 -1.2367 -0.7357  2.4866
58904SOL    HW285491  10.054  12.335   4.684  1.0628  0.3535 -0.2320
58905SOL     OW85492   3.171   9.656   3.467  0.1955  0.3501  0.5592
58905SOL    HW185493   3.206   9.705   3.542 -0.1389 -0.8502  1.5460
58905SOL    HW285494   3.076   9.670   3.473  0.2590  1.4280 -0.5315
58906SOL     OW85495   5.053   9.553   3.901 -0.2215  0.0577  0.1047
58906SOL    HW185496   4.994   9.493   3.855 -0.8863  0.3936  0.4973
58906SOL    HW285497   5.126   9.567   3.841  0.7600 -2.3791  0.6071
58907SOL     OW85498   1.815   9.792  12.066 -0.3930 -0.3719 -0.0574
58907SOL    HW185499   1.908   9.768  12.068  0.3196  2.0399 -0.9490
58907SOL    HW285500   1.798   9.830  12.152 -0.2405  0.1451 -0.2484
58908SOL     OW85501   8.517   1.813  12.494 -0.6975  0.3915  0.1104
58908SOL    HW185502   8.594   1.841  12.544  0.1514 -1.1247 -0.2974
58908SOL    HW285503   8.496   1.889  12.439  0.7140  0.7228 -0.0258
58909SOL     OW85504  10.899   7.899   0.675  0.0500 -1.0430 -0.1570
58909SOL    HW185505  10.956   7.824   0.691 -0.8126 -1.7997 -0.5491
58909SOL    HW285506  10.954   7.961   0.627  0.9796 -1.1192  0.7806
58910SOL     OW85507   0.066   1.730  10.248 -0.4385 -0.1616  0.4513
58910SOL    HW185508   0.149   1.683  10.248 -1.1412 -1.4876 -0.4858
58910SOL    HW285509   0.022   1.701  10.328 -1.0667 -1.5747 -0.3476
58911SOL     OW85510   3.157   5.816   9.170  0.2551 -0.4487  0.3265
58911SOL    HW185511   3.253   5.815   9.177  0.2339 -0.5186  0.6279
58911SOL    HW285512   3.129   5.737   9.217  0.0563 -0.4878  0.1417
58912SOL     OW85513   4.874   6.855   7.817 -0.3264 -0.3166  0.0155
58912SOL    HW185514   4.810   6.853   7.889 -0.4760 -1.1454 -0.1352
58912SOL    HW285515   4.873   6.767   7.781  1.3655 -0.5313  0.4088
58913SOL     OW85516   1.458  10.702   0.416 -0.5624 -0.2022 -0.3328
58913SOL    HW185517   1.436  10.683   0.508 -1.5042 -0.5644 -0.6146
58913SOL    HW285518   1.375  10.690   0.370 -1.0147  3.5023 -0.7486
58914SOL     OW85519   4.587   0.819   3.624  0.2869  0.6553  0.1283
58914SOL    HW185520   4.613   0.755   3.559  0.2273 -0.0462  0.7786
58914SOL    HW285521   4.669   0.857   3.657  0.2863  1.7585 -1.0606
58915SOL     OW85522  12.429  10.852   3.232  0.5803  0.1631  0.0800
58915SOL    HW185523  12.510  10.864   3.183  1.4319 -1.5299  0.9775
58915SOL    HW285524  12.445  10.776   3.287 -1.7034 -0.3458  0.1576
58916SOL     OW85525   1.065   7.891   3.694 -0.2524  0.1706 -0.2767
58916SOL    HW185526   1.059   7.796   3.698 -1.3860  0.2435  0.0391
58916SOL    HW285527   1.077   7.918   3.785 -0.0354  0.3464 -0.3545
58917SOL     OW85528  10.393   1.722   6.711 -1.2198  0.1883  0.5170
58917SOL    HW185529  10.316   1.743   6.660 -1.1117  0.1323  0.3309
58917SOL    HW285530  10.445   1.803   6.712 -0.1523 -0.4168 -1.3361
58918SOL     OW85531   8.607   3.510   3.693 -0.2606  0.1595 -0.1931
58918SOL    HW185532   8.649   3.520   3.779 -0.2509 -0.9234 -0.0596
58918SOL    HW285533   8.654   3.571   3.636 -0.5551  1.2165  0.6625
58919SOL     OW85534   9.652   6.817   0.405  0.5704 -0.4765  0.2624
58919SOL    HW185535   9.662   6.882   0.336  0.3470  0.3490  0.9903
58919SOL    HW285536   9.728   6.830   0.462  0.1581 -0.3856  0.7945
58920SOL     OW85537   6.519   1.883   8.173 -0.3829  0.4421  0.2000
58920SOL    HW185538   6.553   1.966   8.140 -0.9012  1.0909  1.2496
58920SOL    HW285539   6.431   1.877   8.135  0.0179 -0.1190 -0.6671
58921SOL     OW85540   0.112  11.841   3.669 -0.0589  0.3244 -0.0385
58921SOL    HW185541   0.195  11.876   3.703  0.3339 -0.5032 -0.1251
58921SOL    HW285542   0.136  11.759   3.627 -1.2517 -1.1825  2.0564
58922SOL     OW85543   9.753  11.083   7.513  0.1984 -0.4322 -0.0226
58922SOL    HW185544   9.696  11.009   7.489 -0.3227  0.3068 -1.1854
58922SOL    HW285545   9.834  11.042   7.543 -0.8731 -1.5140  1.5305
58923SOL     OW85546   5.298  10.939   5.226 -0.3087  0.2119 -0.1895
58923SOL    HW185547   5.350  10.859   5.216  0.6624  0.8576 -0.4551
58923SOL    HW285548   5.362  11.010   5.223 -1.0718  0.9742  0.7796
58924SOL     OW85549   9.054   8.853   1.363  0.2196  0.1192 -0.5711
58924SOL    HW185550   9.098   8.840   1.279  2.7454  1.6146  0.3969
58924SOL    HW285551   9.094   8.788   1.421  2.0278  2.0774  0.5506
58925SOL     OW85552   1.306   6.066   8.665 -0.3889 -0.3292  0.1137
58925SOL    HW185553   1.258   6.005   8.609 -0.0325 -1.3127  0.8494
58925SOL    HW285554   1.238   6.115   8.712 -0.6975 -1.2979  0.7112
58926SOL     OW85555   5.420   4.951  11.776 -0.4262  0.2902  0.2467
58926SOL    HW185556   5.424   4.871  11.723 -1.0100 -0.4341  1.2697
58926SOL    HW285557   5.345   4.999  11.740 -1.8316 -0.9513  1.3926
58927SOL     OW85558   6.782  10.389   0.153  0.3535  0.3542  0.3638
58927SOL    HW185559   6.770  10.445   0.076  1.0689  0.2335  0.1583
58927SOL    HW285560   6.750  10.443   0.226 -0.6571  0.3384 -0.0444
58928SOL     OW85561   7.477  10.978   0.763 -0.1132 -0.2899  0.1299
58928SOL    HW185562   7.517  11.046   0.708 -1.7422  0.0779 -0.6691
58928SOL    HW285563   7.480  11.014   0.851  0.2844  0.2093 -0.0790
58929SOL     OW85564   1.936   6.728   8.463  0.1123  0.2700  0.3920
58929SOL    HW185565   1.888   6.714   8.381  0.0497 -0.6751  0.5802
58929SOL    HW285566   1.977   6.643   8.481  0.7726  0.6956  0.9260
58930SOL     OW85567   8.747   7.967  11.255 -0.0608 -0.8991 -0.3949
58930SOL    HW185568   8.677   7.970  11.190 -0.5354 -1.2601  0.0972
58930SOL    HW285569   8.804   7.896  11.226  0.5404 -0.1064 -1.2241
58931SOL     OW85570  10.571   6.303  12.299 -0.0803 -0.0079  0.6939
58931SOL    HW185571  10.650   6.249  12.287 -0.4590 -0.1955 -1.1805
58931SOL    HW285572  10.548   6.290  12.391  2.7420  1.0037  1.6605
58932SOL     OW85573   9.118   3.812  12.248  0.6312 -0.1292  0.6448
58932SOL    HW185574   9.174   3.841  12.176 -0.3802 -1.0101 -0.5618
58932SOL    HW285575   9.046   3.875  12.249  0.7714  0.0235  1.0482
58933SOL     OW85576  11.195  12.523   9.775  0.2841 -0.5684 -0.6448
58933SOL    HW185577  11.252  12.478   9.713  1.8804  0.4438  0.0194
58933SOL    HW285578  11.211  12.480   9.859  1.5077  0.8620 -0.0900
58934SOL     OW85579   6.678   0.454   3.310  0.7474 -0.0685 -0.0879
58934SOL    HW185580   6.617   0.385   3.336 -0.3301  1.6484  2.2664
58934SOL    HW285581   6.627   0.511   3.253  0.6025  0.5442  0.6454
58935SOL     OW85582   6.147   6.965   4.678 -0.0632 -0.5671  0.1945
58935SOL    HW185583   6.186   7.017   4.608 -1.0765  0.5339  0.4159
58935SOL    HW285584   6.167   6.875   4.655  1.2217 -0.1304 -0.5206
58936SOL     OW85585   1.605   4.715   3.952  0.0263 -0.2646 -0.1300
58936SOL    HW185586   1.569   4.804   3.952 -1.2534 -0.7521 -1.1089
58936SOL    HW285587   1.621   4.696   3.860  1.7988 -0.4980  0.1915
58937SOL     OW85588   6.673  11.288  12.232 -0.0784 -0.0053  0.5084
58937SOL    HW185589   6.729  11.300  12.308 -0.3068 -0.2567  0.7174
58937SOL    HW285590   6.622  11.368  12.227  0.3411  0.2521  0.2797
58938SOL     OW85591   2.368   6.136  11.609  0.3470  0.0060 -0.1632
58938SOL    HW185592   2.316   6.122  11.530  0.6256 -1.1777 -0.1588
58938SOL    HW285593   2.303   6.148  11.679  0.1010  1.0631 -0.5489
58939SOL     OW85594   2.522   1.749   9.113 -0.0665  0.0895 -0.0016
58939SOL    HW185595   2.519   1.816   9.046 -1.1274  0.2360  0.1706
58939SOL    HW285596   2.463   1.680   9.081  2.1000 -1.4741 -0.8859
58940SOL     OW85597   3.234   4.204   8.108  0.2602  0.3704  0.4150
58940SOL    HW185598   3.203   4.286   8.069  0.3378  0.2196  0.0244
58940SOL    HW285599   3.323   4.222   8.135 -0.1927  0.8436  1.6538
58941SOL     OW85600   7.587   4.592   6.284 -0.5411 -0.0243 -0.3612
58941SOL    HW185601   7.565   4.550   6.201  1.3385  0.4084 -1.1378
58941SOL    HW285602   7.656   4.537   6.320 -1.2587 -0.1350  0.8820
58942SOL     OW85603   1.913   7.544   4.060 -0.0004  0.7455  0.1633
58942SOL    HW185604   1.982   7.478   4.059 -0.7760 -0.1099  1.1385
58942SOL    HW285605   1.890   7.555   4.152 -0.8351  1.3746 -0.0955
58943SOL     OW85606  11.498   0.381   4.729  0.1430 -0.3738 -0.0332
58943SOL    HW185607  11.543   0.434   4.663  1.4189  0.0308  1.1336
58943SOL    HW285608  11.405   0.386   4.704  0.5137  0.3348 -1.3868
58944SOL     OW85609   9.198  12.606  12.560  0.4877  0.2644 -0.0633
58944SOL    HW185610   9.138  12.680  12.553  1.1765  0.6935 -2.1113
58944SOL    HW285611   9.279  12.636  12.518  0.8759 -1.5271 -0.7170
58945SOL     OW85612   0.173   6.451  10.157 -0.2028  0.3770  0.2176
58945SOL    HW185613   0.227   6.395  10.213 -0.4988 -0.6233 -0.4582
58945SOL    HW285614   0.236   6.501  10.106  0.1220 -0.7256 -0.5111
58946SOL     OW85615   8.590   1.355   9.506  0.2518  0.0582 -0.0006
58946SOL    HW185616   8.510   1.333   9.554  1.6187 -1.6827  1.6501
58946SOL    HW285617   8.655   1.375   9.574  1.9848 -1.4405 -1.0957
58947SOL     OW85618  11.313   8.998  12.253  0.3587 -0.2476 -0.5578
58947SOL    HW185619  11.249   8.932  12.281  1.7071 -1.5998 -0.5329
58947SOL    HW285620  11.260   9.072  12.223 -1.2257 -1.4666 -0.8996
58948SOL     OW85621   4.285   0.922  11.081 -0.6415 -0.4583 -0.4799
58948SOL    HW185622   4.208   0.879  11.042 -0.4978 -0.4429 -0.7833
58948SOL    HW285623   4.284   1.010  11.044 -1.0727 -0.1145  0.3299
58949SOL     OW85624   3.022   1.338   5.667  0.0399  0.3023 -0.0079
58949SOL    HW185625   3.117   1.325   5.664 -0.2309 -2.3438  0.3282
58949SOL    HW285626   2.989   1.300   5.586 -0.7755  0.6826  0.1311
58950SOL     OW85627   5.188   9.827   8.020  0.1433  0.6531 -0.0885
58950SOL    HW185628   5.122   9.760   8.034 -0.3567  1.1016 -0.2752
58950SOL    HW285629   5.140   9.910   8.023  0.3191  0.8941 -2.4204
58951SOL     OW85630   0.006   7.133   6.362 -0.0575 -0.0741  0.2456
58951SOL    HW185631   0.041   7.206   6.412  0.6137 -0.7568  0.8007
58951SOL    HW285632   0.027   7.153   6.271  2.1083 -0.5979  0.5692
58952SOL     OW85633   7.220  12.187   9.474 -0.2202  0.1377  0.4016
58952SOL    HW185634   7.230  12.210   9.382  0.6485 -0.5282  0.3201
58952SOL    HW285635   7.162  12.254   9.510 -0.9635  0.1204 -0.7355
58953SOL     OW85636  11.017   4.835   7.339 -0.5377  0.1298  0.5627
58953SOL    HW185637  11.022   4.930   7.334 -1.5529  0.1239 -1.8733
58953SOL    HW285638  11.104   4.804   7.312 -0.5778  0.3534  0.1793
58954SOL     OW85639   2.190   5.620   9.627 -0.5175  0.2020  0.1255
58954SOL    HW185640   2.249   5.690   9.656  0.6860 -1.0012  0.6941
58954SOL    HW285641   2.232   5.540   9.658 -2.6584 -0.6849  0.8729
58955SOL     OW85642   9.741   1.617   2.208 -0.0912  0.7735 -0.3701
58955SOL    HW185643   9.752   1.685   2.142 -2.0273  0.5299 -1.0042
58955SOL    HW285644   9.669   1.563   2.175 -0.0051 -0.3308  1.1467
58956SOL     OW85645  10.012   7.914   1.535 -0.2644 -0.2950 -0.1159
58956SOL    HW185646  10.036   7.846   1.598  0.6904 -0.1077 -0.2751
58956SOL    HW285647   9.992   7.866   1.455 -0.1352 -0.4307 -0.0689
58957SOL     OW85648  12.307   4.731  12.367 -0.6031  0.3120  0.5232
58957SOL    HW185649  12.212   4.736  12.379 -0.8000 -0.1407 -0.7090
58957SOL    HW285650  12.322   4.644  12.330  0.2116  0.6360  0.0601
58958SOL     OW85651   0.266   2.810  10.562 -0.0548 -0.2154  0.5519
58958SOL    HW185652   0.216   2.892  10.553  0.6130  0.2324  0.8856
58958SOL    HW285653   0.204   2.742  10.536 -0.8305  0.3359  0.9127
58959SOL     OW85654   0.190   0.173   8.173 -0.1474 -0.4104 -0.2248
58959SOL    HW185655   0.181   0.093   8.121  0.0575 -0.1112 -0.7261
58959SOL    HW285656   0.263   0.220   8.133 -0.5451  0.2386 -0.2080
58960SOL     OW85657   7.086  10.254  11.121 -0.2568 -0.1078  0.2779
58960SOL    HW185658   7.168  10.268  11.168 -0.6392 -0.4653  1.0741
58960SOL    HW285659   7.064  10.162  11.137 -2.3127  0.6734  2.5974
58961SOL     OW85660  11.747  11.483   8.427 -0.5952  0.1341 -0.1976
58961SOL    HW185661  11.700  11.534   8.362  1.5183  0.7602 -1.3387
58961SOL    HW285662  11.741  11.535   8.507 -1.4561  0.3937 -0.4199
58962SOL     OW85663  10.855   6.191   4.272  0.3068 -0.6741  0.4610
58962SOL    HW185664  10.778   6.143   4.300 -0.6114  0.3591 -0.1921
58962SOL    HW285665  10.856   6.182   4.177  0.5728 -0.0849  0.3999
58963SOL     OW85666   2.458   8.704   1.076 -0.2207 -0.2494  0.1462
58963SOL    HW185667   2.533   8.650   1.050 -0.3416  0.2258 -1.2783
58963SOL    HW285668   2.493   8.763   1.142  0.6777 -0.0095 -0.5215
58964SOL     OW85669   2.652   2.038   6.756 -0.0460 -0.7106 -0.5461
58964SOL    HW185670   2.580   1.989   6.717 -0.6272  0.3847 -0.8801
58964SOL    HW285671   2.729   2.012   6.706 -0.0447 -2.4496  0.2783
58965SOL     OW85672  11.689   4.502  10.825 -0.3477  0.0009  0.0303
58965SOL    HW185673  11.703   4.449  10.903 -1.1264 -0.3610 -0.0682
58965SOL    HW285674  11.641   4.445  10.766  1.9646 -0.4483 -1.5562
58966SOL     OW85675   8.903   7.955  10.925 -0.3418 -0.3929 -0.3808
58966SOL    HW185676   8.958   7.996  10.992 -0.5817  3.0880 -2.0603
58966SOL    HW285677   8.954   7.965  10.844 -2.5566  1.3538 -1.6964
58967SOL     OW85678   6.662   5.061   2.175 -0.0379 -0.0242 -0.1022
58967SOL    HW185679   6.747   5.098   2.197 -1.0011  0.9538  2.4722
58967SOL    HW285680   6.677   4.967   2.168  1.3989  0.2305 -0.6013
58968SOL     OW85681  11.208   5.864  10.418 -0.3378 -0.6420  0.2783
58968SOL    HW185682  11.252   5.875  10.502 -0.3171  0.6337  0.1158
58968SOL    HW285683  11.278   5.865  10.353 -0.3824 -1.2951  0.2155
58969SOL     OW85684  10.867   7.777   6.889  0.3956 -0.1419  0.2999
58969SOL    HW185685  10.949   7.812   6.854  0.4281  0.0197  0.5429
58969SOL    HW285686  10.871   7.683   6.869  0.9429 -0.2535  0.9146
58970SOL     OW85687   8.346   2.138   3.328  0.1744  0.5228  0.4140
58970SOL    HW185688   8.368   2.210   3.269  0.5191  1.3328  1.4933
58970SOL    HW285689   8.280   2.087   3.282  0.7723  0.8633 -0.8543
58971SOL     OW85690  11.524   6.045   1.176  0.6101  0.1085  0.3519
58971SOL    HW185691  11.495   6.131   1.207 -0.3084  0.0264 -0.2424
58971SOL    HW285692  11.609   6.032   1.217  1.0441  1.5707 -0.0153
58972SOL     OW85693  11.908  10.981   4.210 -0.0510  0.0714 -0.4694
58972SOL    HW185694  11.941  11.003   4.297 -0.0128  0.4980 -0.5904
58972SOL    HW285695  11.918  11.061   4.159 -0.4825 -0.0437 -0.7453
58973SOL     OW85696   8.038   8.193   5.235 -0.2286  0.3757  0.2501
58973SOL    HW185697   7.965   8.250   5.258  0.1304  0.9567 -0.0483
58973SOL    HW285698   8.110   8.252   5.217  0.2354 -0.1863  0.2345
58974SOL     OW85699   2.837  11.622  10.274  0.0098  0.3105  0.0405
58974SOL    HW185700   2.819  11.616  10.367 -0.7817 -2.1117 -0.1996
58974SOL    HW285701   2.754  11.598  10.232  1.0446 -1.2938 -1.2133
58975SOL     OW85702  10.130  11.702  10.292  0.7545 -0.3304 -0.4381
58975SOL    HW185703  10.115  11.708  10.197  1.3733  0.6569 -0.4940
58975SOL    HW285704  10.221  11.673  10.300  0.7794 -0.1773 -0.1539
58976SOL     OW85705   5.755   0.638   3.115  0.6430 -0.2754  0.3082
58976SOL    HW185706   5.695   0.708   3.142 -0.7585 -1.8994  1.6620
58976SOL    HW285707   5.833   0.650   3.169  0.5031  0.3426  0.3826
58977SOL     OW85708   9.961   5.277  10.467  0.0421  0.7591  0.3517
58977SOL    HW185709   9.976   5.248  10.557  0.6371 -1.1032 -0.3063
58977SOL    HW285710  10.047   5.305  10.436  0.4877 -1.3888 -0.5300
58978SOL     OW85711   2.081   7.766  12.446 -0.0075 -0.5861 -0.0627
58978SOL    HW185712   2.010   7.825  12.471  0.3092 -0.6830  1.1353
58978SOL    HW285713   2.160   7.816  12.463  0.3033 -1.5988  1.8051
58979SOL     OW85714  12.541  11.339   4.122 -0.0648  0.0483  0.1078
58979SOL    HW185715  12.557  11.423   4.165 -0.8580 -0.5559  1.6956
58979SOL    HW285716  12.456  11.350   4.078 -0.4863 -0.0943  0.8615
58980SOL     OW85717  12.404   9.340   3.610  0.8561 -0.2989 -0.1297
58980SOL    HW185718  12.447   9.364   3.692 -0.4902 -1.6643  1.0596
58980SOL    HW285719  12.449   9.390   3.543  1.2267  1.8105  1.5841
58981SOL     OW85720   2.201  10.143   6.965  0.7619  0.6867 -0.6217
58981SOL    HW185721   2.165  10.065   6.923 -0.3883  1.0916 -0.4264
58981SOL    HW285722   2.296  10.137   6.950  1.1357 -2.2709  1.8716
58982SOL     OW85723   2.968  10.907   7.150  0.0821 -0.2433 -0.3830
58982SOL    HW185724   3.049  10.892   7.100  0.9151  1.3673  0.4096
58982SOL    HW285725   2.975  10.998   7.179 -0.9941 -0.7366  1.5559
58983SOL     OW85726   3.895   7.781   5.211 -0.2809 -0.8772 -0.6143
58983SOL    HW185727   3.895   7.701   5.158  2.1111 -2.1970  1.1845
58983SOL    HW285728   3.983   7.818   5.199  0.4930 -1.4054  2.5216
58984SOL     OW85729  11.864   3.860  11.397 -0.0164 -0.2984 -0.1586
58984SOL    HW185730  11.869   3.932  11.461 -2.4783  1.0680 -1.3474
58984SOL    HW285731  11.809   3.795  11.440 -1.8799  0.7278 -0.8924
58985SOL     OW85732   5.979   5.352   4.298 -0.2625 -0.0625  1.0067
58985SOL    HW185733   6.025   5.420   4.347 -1.1109  0.0847  1.6080
58985SOL    HW285734   6.043   5.281   4.290  0.8485  1.0171 -0.1626
58986SOL     OW85735   6.488  11.639   1.745 -0.3837 -0.2097  0.0497
58986SOL    HW185736   6.422  11.595   1.692 -0.8256  0.1569  0.2947
58986SOL    HW285737   6.441  11.708   1.792  0.0435 -0.3646  0.7287
58987SOL     OW85738   7.147   6.923   2.196  0.3757  0.0933 -0.5192
58987SOL    HW185739   7.102   7.008   2.195 -0.1734 -0.1897 -1.4057
58987SOL    HW285740   7.081   6.861   2.226  0.9394  0.0421  0.6819
58988SOL     OW85741   0.421   5.351   5.826  0.2756  0.6719  0.0408
58988SOL    HW185742   0.469   5.328   5.905 -0.5024 -0.7918  0.1369
58988SOL    HW285743   0.470   5.423   5.788  2.1552 -0.2907  0.4877
58989SOL     OW85744   2.571  10.652   8.091 -0.4434  0.3915  0.3204
58989SOL    HW185745   2.500  10.604   8.048  0.7269 -0.3359 -0.8485
58989SOL    HW285746   2.651  10.608   8.063  0.4388  0.2257  2.8521
58990SOL     OW85747  11.431   8.177  10.844 -0.1237 -0.2344  0.7664
58990SOL    HW185748  11.391   8.090  10.847 -0.4292 -0.0817  1.0606
58990SOL    HW285749  11.486   8.180  10.923 -0.5764  0.0661  1.0695
58991SOL     OW85750   7.676   1.676   9.561 -0.0184 -0.7557 -0.3818
58991SOL    HW185751   7.620   1.635   9.496 -1.2003 -0.2358  0.2773
58991SOL    HW285752   7.660   1.770   9.551  0.1556 -0.6424  0.3205
58992SOL     OW85753   8.446  10.602   2.006 -0.2515  0.0806 -0.6574
58992SOL    HW185754   8.507  10.672   1.983 -0.4635  0.8595  1.0553
58992SOL    HW285755   8.363  10.628   1.967 -0.3813  0.9133  0.1426
58993SOL     OW85756   3.504   8.347   7.222 -0.2218  0.1465  0.2108
58993SOL    HW185757   3.473   8.353   7.132  1.8713  1.2012 -0.5206
58993SOL    HW285758   3.438   8.392   7.274 -1.1580  0.0693 -0.8757
58994SOL     OW85759   8.208  12.269   1.261 -0.1440 -0.6797  0.0297
58994SOL    HW185760   8.122  12.284   1.220 -0.0478 -2.1466 -0.7975
58994SOL    HW285761   8.210  12.174   1.276  1.1147 -0.5789  0.5555
58995SOL     OW85762   7.121  11.889   8.708  0.1662  0.5664 -0.0840
58995SOL    HW185763   7.064  11.920   8.638 -1.3005 -0.9305  0.3805
58995SOL    HW285764   7.147  11.801   8.682 -0.5137 -0.0697  1.2874
58996SOL     OW85765   9.799   4.236   4.289  0.0545 -0.0219  0.1849
58996SOL    HW185766   9.849   4.295   4.233 -2.6552  2.8268  0.4910
58996SOL    HW285767   9.845   4.238   4.373  1.7015 -0.9132 -0.6347
58997SOL     OW85768  10.568  11.943  11.718  0.1967  0.2201 -0.2171
58997SOL    HW185769  10.519  11.862  11.732 -1.5505  0.9225 -1.8483
58997SOL    HW285770  10.545  11.999  11.792 -1.0379  0.3083 -0.6466
58998SOL     OW85771   3.641   1.789   7.676 -0.1761  0.0738  0.1435
58998SOL    HW185772   3.599   1.806   7.760 -1.3932  0.1936 -0.4652
58998SOL    HW285773   3.634   1.695   7.664 -1.0406  0.1900 -0.3346
58999SOL     OW85774   7.843   6.969   2.452  0.2705  0.4259  0.0133
58999SOL    HW185775   7.930   6.931   2.442  0.3050  0.8469 -1.5560
58999SOL    HW285776   7.858   7.049   2.502  0.7268  0.3160  0.0615
59000SOL     OW85777  11.403   6.537   0.983 -0.0983  0.2638 -0.3119
59000SOL    HW185778  11.473   6.476   0.959 -1.4300 -1.5569  0.1894
59000SOL    HW285779  11.388   6.590   0.904  3.4045  2.4271  0.2647
59001SOL     OW85780  12.338   7.885   9.201  0.1481 -0.6292 -0.3643
59001SOL    HW185781  12.331   7.979   9.220  0.9488 -0.4144 -1.0745
59001SOL    HW285782  12.432   7.866   9.209  0.3974 -0.7729 -2.8886
59002SOL     OW85783   1.875   9.173  12.348  0.1136  0.1779 -0.1385
59002SOL    HW185784   1.827   9.166  12.430  0.1539 -0.1057 -0.1396
59002SOL    HW285785   1.853   9.260  12.315 -0.4882  0.0139 -0.1879
59003SOL     OW85786   0.950   9.503   0.766  0.3593  0.3231  0.3434
59003SOL    HW185787   0.885   9.536   0.829  0.4199 -0.2766  0.7277
59003SOL    HW285788   0.987   9.425   0.808  0.0137 -0.4058 -0.6750
59004SOL     OW85789   1.830  10.178   9.373  0.0355  0.1919 -0.7255
59004SOL    HW185790   1.853  10.243   9.439  0.0493 -1.7586  1.2958
59004SOL    HW285791   1.834  10.226   9.290  0.6506  2.5790  0.5933
59005SOL     OW85792   1.427  10.709   1.180  0.7104 -0.2149 -0.2348
59005SOL    HW185793   1.423  10.625   1.227  1.1658  0.1146  0.4081
59005SOL    HW285794   1.400  10.774   1.245  1.2425  0.2351 -0.4579
59006SOL     OW85795  10.588  11.055   5.748 -0.5939  0.7549  0.1169
59006SOL    HW185796  10.534  10.976   5.749  1.1915 -0.5354 -0.1790
59006SOL    HW285797  10.537  11.119   5.698 -1.4938 -0.6544 -0.8330
59007SOL     OW85798  12.247  11.135   9.706 -0.0312 -0.2717  0.4333
59007SOL    HW185799  12.263  11.143   9.612 -0.4564 -0.0300  0.3823
59007SOL    HW285800  12.235  11.225   9.736  0.6199 -0.3030  0.8144
59008SOL     OW85801   3.513   8.832   7.698  0.1958  0.0221 -0.1623
59008SOL    HW185802   3.520   8.738   7.712 -1.0511 -0.1693 -0.6590
59008SOL    HW285803   3.450   8.841   7.627 -2.4118  1.2948  2.0886
59009SOL     OW85804   2.408   1.999   3.726  0.5337 -0.2052 -0.2055
59009SOL    HW185805   2.466   1.955   3.664  0.4645  0.6058 -0.8660
59009SOL    HW285806   2.417   2.092   3.705  0.0898  0.0411  0.6469
59010SOL     OW85807   0.799   6.019   8.341 -0.1496  0.1788  0.4105
59010SOL    HW185808   0.842   6.087   8.392 -0.6155  0.8363 -0.0503
59010SOL    HW285809   0.855   6.006   8.265 -0.9295  1.3003 -0.3784
59011SOL     OW85810   7.368  12.323  12.512 -0.3060 -0.0914 -0.5344
59011SOL    HW185811   7.350  12.414  12.488 -1.5995 -0.7365 -2.1995
59011SOL    HW285812   7.348  12.319  12.606  2.3104  1.9001  0.2555
59012SOL     OW85813   8.487   3.055   4.251 -0.0047  0.3444  0.4517
59012SOL    HW185814   8.403   3.081   4.214  0.3258 -0.1667 -0.7051
59012SOL    HW285815   8.465   3.008   4.331 -0.9294 -1.1755 -0.6322
59013SOL     OW85816   9.753   7.236   4.503  0.5050 -0.7710  0.0904
59013SOL    HW185817   9.755   7.155   4.553  1.0276 -0.9299 -0.1832
59013SOL    HW285818   9.672   7.231   4.451  0.8663 -1.4150 -0.4173
59014SOL     OW85819  11.218   5.889   3.953 -0.8982  0.0693 -0.7632
59014SOL    HW185820  11.140   5.833   3.956 -2.0026  1.5635 -0.7228
59014SOL    HW285821  11.185   5.975   3.926  0.3686  1.3864  1.6181
59015SOL     OW85822   2.742   2.303  10.147  0.2808  0.2657  1.0270
59015SOL    HW185823   2.790   2.232  10.190 -0.2863 -0.2715  0.7866
59015SOL    HW285824   2.764   2.295  10.054 -0.4626 -0.1406  0.8798
59016SOL     OW85825   4.352   7.246   5.452 -0.0210  0.0999 -0.2539
59016SOL    HW185826   4.368   7.338   5.431  0.6259 -0.4450 -2.4214
59016SOL    HW285827   4.394   7.232   5.536  3.6407  0.8391 -1.7904
59017SOL     OW85828   3.906   4.143   0.113 -0.0238  0.5274  0.1322
59017SOL    HW185829   3.944   4.230   0.123  0.0929  0.5187 -0.2379
59017SOL    HW285830   3.961   4.086   0.167  0.1018  0.6241  0.1062
59018SOL     OW85831   2.429   8.535  10.844 -0.2035 -0.1865 -0.2915
59018SOL    HW185832   2.496   8.539  10.912 -0.9890  0.0420  0.4769
59018SOL    HW285833   2.460   8.596  10.777 -0.1695  0.7138  0.5330
59019SOL     OW85834   8.748  11.675  10.926  0.1079  0.7400  0.2387
59019SOL    HW185835   8.735  11.612  10.855  0.4008  1.7278 -0.7127
59019SOL    HW285836   8.684  11.743  10.909 -1.5223 -0.1465  2.3238
59020SOL     OW85837   5.226   9.181   7.105 -0.2399  0.1679 -0.6139
59020SOL    HW185838   5.311   9.210   7.137  0.9587  0.8690 -4.0817
59020SOL    HW285839   5.180   9.261   7.080 -1.5455 -0.2752  0.2543
59021SOL     OW85840   0.737  11.274   3.387  0.0785 -0.2081 -0.0692
59021SOL    HW185841   0.687  11.224   3.323 -1.2955  0.6856  0.2851
59021SOL    HW285842   0.676  11.292   3.459  1.0098  0.5399  0.5757
59022SOL     OW85843   3.561   8.247  11.053  0.2442  0.2143 -0.0358
59022SOL    HW185844   3.573   8.342  11.044 -4.9082  0.9898 -3.1041
59022SOL    HW285845   3.570   8.214  10.963  2.7201 -2.5026  1.0784
59023SOL     OW85846   7.663  11.002   2.447 -0.4994 -0.0906  0.1830
59023SOL    HW185847   7.738  10.958   2.408  0.5658  1.2341  0.6249
59023SOL    HW285848   7.648  10.955   2.529 -0.5273 -0.7275 -0.1836
59024SOL     OW85849   8.797   1.494   6.615 -0.2950 -0.7813  0.1786
59024SOL    HW185850   8.754   1.570   6.577  1.9150  1.0027  0.9868
59024SOL    HW285851   8.733   1.457   6.674 -1.7083 -0.0376 -0.8265
59025SOL     OW85852   4.004   6.147   7.813 -0.0754  0.0186 -0.3256
59025SOL    HW185853   3.996   6.188   7.899 -0.0465  3.3089 -1.7377
59025SOL    HW285854   4.095   6.119   7.807  0.0610  0.2701  0.4979
59026SOL     OW85855  11.282   8.088   9.765  0.2770  0.2540 -0.1171
59026SOL    HW185856  11.215   8.084   9.697  1.0183 -2.1471 -0.8048
59026SOL    HW285857  11.291   7.997   9.795  0.5158  1.1187  2.6727
59027SOL     OW85858   9.307   0.945   0.905  0.1747 -0.7639 -0.6185
59027SOL    HW185859   9.275   0.879   0.844 -0.1524 -1.2159  0.0344
59027SOL    HW285860   9.306   0.902   0.991  0.8793 -0.2256 -0.3255
59028SOL     OW85861   6.685  10.352   9.487  0.0321 -0.8981  0.5089
59028SOL    HW185862   6.639  10.388   9.562 -0.2120 -0.0488 -0.0335
59028SOL    HW285863   6.688  10.424   9.424 -0.8123 -1.9312 -0.7636
59029SOL     OW85864   2.516  12.328   9.955 -0.6443 -0.2168 -0.2163
59029SOL    HW185865   2.439  12.374   9.989 -0.7602 -0.6855  0.1758
59029SOL    HW285866   2.551  12.386   9.888 -0.7408  0.4751  0.3242
59030SOL     OW85867   9.289   5.893   2.479 -0.1983 -0.3591 -0.1930
59030SOL    HW185868   9.304   5.859   2.567  0.6658 -0.2894 -0.2973
59030SOL    HW285869   9.313   5.819   2.422  2.1904  0.5166 -0.4408
59031SOL     OW85870  12.146  10.097   1.755  0.1167  0.0737 -0.1264
59031SOL    HW185871  12.134  10.002   1.764  2.9181 -0.4150 -0.6071
59031SOL    HW285872  12.159  10.128   1.845  0.7920 -0.3061 -0.0799
59032SOL     OW85873  12.386  11.772   0.498 -0.0121 -0.0042 -0.1071
59032SOL    HW185874  12.461  11.741   0.550  0.7399 -0.6909 -1.5252
59032SOL    HW285875  12.413  11.758   0.407 -2.2859 -1.2607 -0.6634
59033SOL     OW85876   4.414  10.673   8.321 -0.3640 -0.3527  0.5348
59033SOL    HW185877   4.443  10.664   8.412  0.2625 -0.6491  0.3112
59033SOL    HW285878   4.447  10.759   8.294 -2.6164  0.8308  1.3162
59034SOL     OW85879   8.384  11.401  12.559 -0.0101 -0.1270 -0.2272
59034SOL    HW185880   8.350  11.454  12.632 -0.4156 -2.4757  1.4214
59034SOL    HW285881   8.316  11.335  12.545  0.4699 -0.2357 -2.1955
59035SOL     OW85882  11.086   3.678   9.095  0.3734 -0.1134  0.2341
59035SOL    HW185883  11.085   3.657   9.002  3.4184  1.5307 -0.3213
59035SOL    HW285884  11.024   3.751   9.104 -0.1209 -0.4451 -0.4276
59036SOL     OW85885   5.996   6.439   9.806 -0.3733 -0.1733 -0.5015
59036SOL    HW185886   5.920   6.496   9.820 -0.4357  0.1190 -1.8851
59036SOL    HW285887   5.966   6.374   9.742  0.1859 -0.8014 -0.1460
59037SOL     OW85888   5.350  11.814   8.836  0.3961 -0.7423  0.4429
59037SOL    HW185889   5.270  11.815   8.784  1.5825 -1.0466 -1.4687
59037SOL    HW285890   5.333  11.877   8.906 -0.6043  1.0948 -1.3404
59038SOL     OW85891   9.297   9.164  12.164  0.0814  0.3422 -0.2084
59038SOL    HW185892   9.354   9.204  12.098  0.5511  1.8083  1.0103
59038SOL    HW285893   9.353   9.152  12.240  0.5249 -4.6771 -1.0391
59039SOL     OW85894   3.152  10.816   2.951  0.1673 -0.0202 -0.0930
59039SOL    HW185895   3.130  10.872   2.877 -1.4286 -1.6651 -0.9444
59039SOL    HW285896   3.076  10.820   3.009  1.0525  0.5794  1.0861
59040SOL     OW85897   6.648   1.476   6.869 -0.0966  0.0460  0.5122
59040SOL    HW185898   6.641   1.454   6.962 -1.0581  0.3792  0.5314
59040SOL    HW285899   6.704   1.408   6.832  0.0892 -0.2315  1.2817
59041SOL     OW85900   7.741   5.278   6.682  0.1230  0.1883 -0.4455
59041SOL    HW185901   7.741   5.193   6.726  1.1739  0.0589 -0.6569
59041SOL    HW285902   7.749   5.342   6.753 -0.6671  0.1157 -0.2863
59042SOL     OW85903   0.190   8.889   3.168 -0.3705  0.3103 -0.1760
59042SOL    HW185904   0.169   8.830   3.240 -1.7137  0.4033 -0.4587
59042SOL    HW285905   0.198   8.975   3.209  0.5278  0.1046  0.0873
59043SOL     OW85906   0.453   6.838   6.084 -0.5028  0.7084  0.3273
59043SOL    HW185907   0.519   6.905   6.103 -0.7396  1.3262 -0.8695
59043SOL    HW285908   0.428   6.855   5.992 -1.0748 -0.5913  0.2209
59044SOL     OW85909  10.805   1.405  11.746 -0.0151 -0.2205 -0.5215
59044SOL    HW185910  10.756   1.327  11.720 -1.3959  0.0657  0.9936
59044SOL    HW285911  10.753   1.478  11.713  0.4180  0.0787 -0.5486
59045SOL     OW85912   8.656  11.998   9.700  0.1712 -0.0386  0.3986
59045SOL    HW185913   8.617  12.043   9.625  1.1941 -2.4412 -1.7446
59045SOL    HW285914   8.746  12.031   9.703 -0.4723  1.7707  2.1566
59046SOL     OW85915   5.031   9.207   9.404 -0.4344  0.3443  0.9297
59046SOL    HW185916   4.983   9.286   9.378  0.5202  0.8268  0.5975
59046SOL    HW285917   5.006   9.193   9.496 -0.8616  0.8390  0.8948
59047SOL     OW85918   6.542   5.550   9.280  0.2776 -0.8719 -0.2147
59047SOL    HW185919   6.602   5.607   9.329  1.6229 -0.6264 -2.0408
59047SOL    HW285920   6.501   5.607   9.216 -1.6039 -1.1490  0.6737
59048SOL     OW85921   4.727   2.025  11.755  0.2704 -0.0330  0.2043
59048SOL    HW185922   4.682   1.943  11.774 -0.6699  0.3180 -0.4648
59048SOL    HW285923   4.739   2.025  11.660  1.7327 -0.1281  0.3569
59049SOL     OW85924  10.761   6.633  12.423  0.4294  0.0437  0.0720
59049SOL    HW185925  10.821   6.622  12.497 -0.3628  0.1345  0.7413
59049SOL    HW285926  10.818   6.652  12.349  1.1936  1.0459  0.8799
59050SOL     OW85927   4.293   3.278   0.707  0.0005 -0.5517  0.3829
59050SOL    HW185928   4.378   3.263   0.748 -0.8547 -1.5032  1.8599
59050SOL    HW285929   4.279   3.372   0.715 -0.7570 -0.8504  3.6417
59051SOL     OW85930   9.330   1.598  10.139  0.6481 -0.2487 -0.3637
59051SOL    HW185931   9.338   1.641  10.224  2.3996  1.1794 -1.1767
59051SOL    HW285932   9.236   1.577  10.131 -0.3353  3.2729  0.2156
59052SOL     OW85933  12.222   3.921   6.173 -0.2879 -0.3784  0.1176
59052SOL    HW185934  12.312   3.896   6.152  0.0694  0.6024  0.4149
59052SOL    HW285935  12.201   3.870   6.250  0.0683 -0.5151  0.1291
59053SOL     OW85936   4.994   4.754   0.348 -0.2033 -0.0631  0.2454
59053SOL    HW185937   5.049   4.730   0.273 -0.7401 -0.5342 -0.0059
59053SOL    HW285938   5.043   4.725   0.424  0.3581  0.4367  0.0809
59054SOL     OW85939   6.349   0.038   6.889  0.6531  0.5205 -0.1493
59054SOL    HW185940   6.431   0.001   6.923  0.1031 -1.0033 -0.4079
59054SOL    HW285941   6.326  -0.018   6.815 -0.8415  0.6575  0.1819
59055SOL     OW85942   5.909   0.147   4.095 -0.1865 -0.1522  0.0921
59055SOL    HW185943   6.002   0.140   4.117 -0.2637 -1.9706 -0.0519
59055SOL    HW285944   5.867   0.074   4.140 -1.7970  1.4173  1.2695
59056SOL     OW85945   4.865  12.017   7.448 -0.6773 -0.0905 -0.4602
59056SOL    HW185946   4.793  11.965   7.483 -2.5166  0.1884 -3.4296
59056SOL    HW285947   4.907  11.960   7.384 -0.9904  1.0961 -1.7813
59057SOL     OW85948  12.381   9.213   0.607  0.1712  0.5362  0.0872
59057SOL    HW185949  12.410   9.304   0.612 -0.2103  0.6180  0.9883
59057SOL    HW285950  12.452   9.163   0.648  0.6078  0.3574 -0.8426
59058SOL     OW85951   9.280   5.986   6.885 -0.4973  0.2353 -0.7144
59058SOL    HW185952   9.364   5.939   6.884 -0.7040 -0.1572 -0.0437
59058SOL    HW285953   9.303   6.074   6.913 -0.6135 -0.5409  2.0607
59059SOL     OW85954   3.704   4.303   3.763 -0.0232  0.5979 -0.1023
59059SOL    HW185955   3.745   4.378   3.807  3.0551 -0.5123 -0.8658
59059SOL    HW285956   3.653   4.343   3.692  1.4612  2.0116 -0.4360
59060SOL     OW85957   4.294   1.099   9.262 -0.0392  0.0618  0.4445
59060SOL    HW185958   4.304   1.043   9.339 -1.5647 -3.0644 -1.4305
59060SOL    HW285959   4.217   1.064   9.217 -0.7024  3.3455 -1.2759
59061SOL     OW85960   5.384   8.694   9.179 -0.0700  0.4290  0.6446
59061SOL    HW185961   5.366   8.758   9.247  0.1627  1.4881 -0.2577
59061SOL    HW285962   5.313   8.706   9.116 -0.2124 -0.4484  0.6291
59062SOL     OW85963  12.284   3.350  10.063 -0.0860 -0.7101 -0.0974
59062SOL    HW185964  12.274   3.347  10.158  0.8151 -1.1485 -0.0046
59062SOL    HW285965  12.368   3.394  10.050 -0.9161  0.7421 -0.7456
59063SOL     OW85966   6.260   1.143   9.400 -0.2836 -0.4180 -0.1952
59063SOL    HW185967   6.184   1.146   9.342 -1.2145  2.4871  0.9705
59063SOL    HW285968   6.304   1.061   9.378 -0.4968  0.4528 -5.0063
59064SOL     OW85969   2.436  10.433   6.402  0.6267  0.1329  0.5976
59064SOL    HW185970   2.462  10.383   6.325 -0.5200 -2.1261  1.5615
59064SOL    HW285971   2.483  10.516   6.395  1.4825 -0.4948 -1.8724
59065SOL     OW85972   3.494   0.078   8.073  0.0585  0.0332 -0.1856
59065SOL    HW185973   3.443   0.128   8.010  0.9532  1.7876  0.4292
59065SOL    HW285974   3.502   0.136   8.149  0.9622 -1.1308  0.6373
59066SOL     OW85975   5.059   4.344   9.238 -0.6137  0.0197  0.1187
59066SOL    HW185976   5.092   4.322   9.151 -2.5169  1.3953 -1.0111
59066SOL    HW285977   4.965   4.353   9.227 -0.9857 -0.3095  2.4669
59067SOL     OW85978   5.513   8.632  12.003 -0.0301 -0.0489  0.0292
59067SOL    HW185979   5.460   8.556  12.028  1.1098 -0.4449  1.3576
59067SOL    HW285980   5.532   8.619  11.910 -1.5701 -0.2979 -0.2838
59068SOL     OW85981   8.410   0.377   6.450  0.4267 -0.1149  0.2452
59068SOL    HW185982   8.479   0.376   6.517  0.7004 -0.3213 -0.0351
59068SOL    HW285983   8.329   0.390   6.499  0.7629  1.2099  0.4902
59069SOL     OW85984   6.519   5.534   6.399 -0.0847 -0.1364  0.5200
59069SOL    HW185985   6.489   5.599   6.335 -0.5705 -1.0324 -0.1842
59069SOL    HW285986   6.614   5.531   6.387 -0.2650 -1.0791 -0.9602
59070SOL     OW85987   3.143  11.081   9.817 -0.0950 -0.1470  0.3101
59070SOL    HW185988   3.061  11.126   9.838 -1.0435 -0.6253 -1.9913
59070SOL    HW285989   3.181  11.134   9.746  1.3860 -0.1801  1.0433
59071SOL     OW85990   6.018   2.591   0.285  0.7490 -0.2381  0.4574
59071SOL    HW185991   6.088   2.622   0.343  0.2112 -2.1153  2.2346
59071SOL    HW285992   6.025   2.495   0.289 -1.5714 -0.4722  0.2797
59072SOL     OW85993   7.803   1.672   1.559 -0.0608  0.0912  0.2330
59072SOL    HW185994   7.762   1.709   1.481  0.5725  0.1167 -0.0928
59072SOL    HW285995   7.800   1.742   1.623 -0.2577  0.1899  0.1167
59073SOL     OW85996   6.849   9.885   0.136  0.5852  0.5547  0.7789
59073SOL    HW185997   6.850   9.886   0.041 -4.3787 -2.7054  0.3244
59073SOL    HW285998   6.800   9.964   0.160  1.9814  1.4647  0.7412
59074SOL     OW85999   8.383   7.147   8.252  0.4685 -0.6330  0.2846
59074SOL    HW186000   8.369   7.204   8.176  0.6748  0.5012  1.0736
59074SOL    HW286001   8.456   7.188   8.299  1.4831 -2.2687  0.2094
59075SOL     OW86002   7.281  11.833   3.055 -0.0093 -0.1074 -0.1604
59075SOL    HW186003   7.370  11.818   3.086  0.1187  1.9310  0.6035
59075SOL    HW286004   7.289  11.839   2.960  0.5500 -0.5914 -0.1494
59076SOL     OW86005   6.033   0.316  11.269 -0.3493  0.2900  0.1947
59076SOL    HW186006   5.937   0.307  11.264 -0.4279  1.6323 -3.3414
59076SOL    HW286007   6.052   0.311  11.363 -3.8548 -0.1528  1.0372
59077SOL     OW86008   0.483  10.702  11.525 -0.1162 -0.1358  0.3170
59077SOL    HW186009   0.498  10.759  11.449  0.2151 -1.0438 -0.3145
59077SOL    HW286010   0.450  10.761  11.592 -1.8062  0.4610 -0.9599
59078SOL     OW86011   6.807  10.454   6.298 -0.1965 -0.0377 -0.3364
59078SOL    HW186012   6.848  10.373   6.267  0.1033  0.5142 -1.4064
59078SOL    HW286013   6.725  10.459   6.250 -0.7330 -0.2465  0.5306
59079SOL     OW86014  12.598   6.686   5.231  0.7888  0.3029  0.3884
59079SOL    HW186015  12.561   6.761   5.278 -2.0576 -0.3295 -0.6360
59079SOL    HW286016  12.577   6.611   5.286  3.4756  0.1189  1.3235
59080SOL     OW86017   5.899   7.601   0.638 -0.5400  0.0749  0.1622
59080SOL    HW186018   5.926   7.528   0.584 -0.0481  0.1373  0.3211
59080SOL    HW286019   5.976   7.622   0.691 -0.3955  1.2546 -0.4793
59081SOL     OW86020  10.091  12.473   6.741 -0.2222  0.4874  0.1697
59081SOL    HW186021  10.165  12.528   6.717 -0.9208  2.0359  1.4146
59081SOL    HW286022  10.130  12.398   6.786  0.5818  2.4431  3.0090
59082SOL     OW86023   7.930   9.186   0.988  0.2673  0.3768  0.0792
59082SOL    HW186024   7.909   9.259   0.930  0.2641  0.0792 -0.3003
59082SOL    HW286025   8.020   9.201   1.015  0.2730  0.5070 -0.0144
59083SOL     OW86026   0.522  10.208   9.564 -0.1378 -0.2796 -0.5725
59083SOL    HW186027   0.540  10.274   9.632  0.0382  0.0350 -0.9148
59083SOL    HW286028   0.562  10.245   9.485  1.5792 -1.6332 -0.3882
59084SOL     OW86029   0.280   4.391   3.048  0.7807 -0.3500  0.1820
59084SOL    HW186030   0.331   4.313   3.026  1.6208  0.3573 -0.4922
59084SOL    HW286031   0.299   4.406   3.140  2.0955  0.0756 -0.1297
59085SOL     OW86032   6.629   8.937  11.231 -0.1316  0.0310 -0.1828
59085SOL    HW186033   6.669   8.959  11.315  1.1204 -1.6092 -0.2930
59085SOL    HW286034   6.575   9.013  11.210  1.4791  1.5758  0.8872
59086SOL     OW86035   8.663   5.002   0.632 -0.3200  0.2897  0.1813
59086SOL    HW186036   8.592   5.047   0.585 -0.2908  1.5018  1.2597
59086SOL    HW286037   8.638   4.910   0.629 -1.7824  0.6507  0.2418
59087SOL     OW86038   5.154  12.015   7.100 -0.0589 -0.1356 -0.5446
59087SOL    HW186039   5.084  11.994   7.039  0.5351  1.0238 -1.6641
59087SOL    HW286040   5.217  12.067   7.049  1.7438 -1.3222  0.3545
59088SOL     OW86041   6.066   8.204  12.058 -0.0201 -0.0829  0.2548
59088SOL    HW186042   5.997   8.144  12.031  0.1329 -0.4230  0.6222
59088SOL    HW286043   6.143   8.149  12.074 -0.0695  0.1173  1.2625
59089SOL     OW86044   5.757   9.904   9.874 -0.2662  0.1261 -0.5533
59089SOL    HW186045   5.844   9.906   9.835 -0.3701 -0.4234 -0.8204
59089SOL    HW286046   5.729   9.996   9.875  0.4808  0.3511 -0.0761
59090SOL     OW86047   1.216   0.450   0.717 -0.4820 -0.1891 -0.0013
59090SOL    HW186048   1.260   0.437   0.801 -1.6496 -2.4990  0.3348
59090SOL    HW286049   1.248   0.378   0.662 -0.2651  0.8842 -1.3303
59091SOL     OW86050  12.393   8.663   4.494  0.2397 -0.0850  0.2651
59091SOL    HW186051  12.308   8.620   4.493  0.4503 -0.5150  0.5631
59091SOL    HW286052  12.439   8.628   4.417 -0.0326  0.5268 -0.1868
59092SOL     OW86053   9.964   0.536  10.923  0.6622  0.7317 -0.2526
59092SOL    HW186054   9.982   0.581  10.841 -0.6743  0.6466 -0.6170
59092SOL    HW286055   9.915   0.601  10.975  1.6392  0.8511  0.5668
59093SOL     OW86056   0.529  12.591   2.499  0.0092  0.3259 -0.2809
59093SOL    HW186057   0.482  12.634   2.427 -0.5334 -2.5299 -1.7754
59093SOL    HW286058   0.572  12.663   2.545 -2.7865  2.7355 -1.0576
59094SOL     OW86059   4.008   6.933   0.371 -0.2656  0.2585 -0.2553
59094SOL    HW186060   3.965   6.945   0.455 -1.5236  0.1171 -0.8662
59094SOL    HW286061   3.983   7.010   0.319  0.3737  0.2704 -0.5559
59095SOL     OW86062   2.817   5.188   3.676 -0.1401  0.2687  0.1809
59095SOL    HW186063   2.786   5.100   3.656  3.2713 -0.5377 -2.7170
59095SOL    HW286064   2.779   5.244   3.609  0.8083  0.1740 -0.4588
59096SOL     OW86065   3.500   9.259   8.685 -0.4973  0.2509  0.0031
59096SOL    HW186066   3.560   9.295   8.750  0.1294 -1.3171  0.3514
59096SOL    HW286067   3.555   9.240   8.610 -0.3893 -1.7457  0.5353
59097SOL     OW86068   1.037   7.929   4.325  0.0246  0.2460  0.4604
59097SOL    HW186069   0.990   7.867   4.270 -0.0118  2.2223 -1.8965
59097SOL    HW286070   1.020   7.900   4.415  0.4663 -3.3972 -0.4846
59098SOL     OW86071   9.738   4.963   3.235 -0.4791 -0.5009  0.2119
59098SOL    HW186072   9.749   4.870   3.215 -2.8463 -0.4756 -1.7655
59098SOL    HW286073   9.646   4.970   3.262  0.2390  0.9772  2.4721
59099SOL     OW86074   2.271   6.544   5.578  0.5476 -0.1916 -0.2050
59099SOL    HW186075   2.220   6.625   5.582  0.6957 -0.1363  0.6959
59099SOL    HW286076   2.305   6.532   5.667  0.1448 -1.4880 -0.2052
59100SOL     OW86077   2.500   7.599   7.148  0.3663  0.3293  0.0094
59100SOL    HW186078   2.542   7.665   7.094 -0.2973  0.1401 -0.7622
59100SOL    HW286079   2.554   7.521   7.139 -0.0479  0.1323 -0.8538
59101SOL     OW86080   1.462   8.819  12.516 -0.2021  0.6637 -0.1472
59101SOL    HW186081   1.455   8.896  12.461 -0.5549  0.4857 -0.3535
59101SOL    HW286082   1.488   8.853  12.602  0.2780  0.9467 -0.3990
59102SOL     OW86083   6.055   1.771   9.059 -0.0101  0.5198  0.4619
59102SOL    HW186084   5.983   1.738   9.112 -1.7999  3.1663 -0.0863
59102SOL    HW286085   6.018   1.779   8.971  1.2282  1.0879 -0.0331
59103SOL     OW86086   4.133   0.844   8.431 -0.1407  0.0262 -0.4076
59103SOL    HW186087   4.197   0.844   8.359  0.2312 -1.5559 -0.1207
59103SOL    HW286088   4.185   0.822   8.508 -0.8916 -0.4493 -0.0284
59104SOL     OW86089   6.802   1.135   5.272  0.1962  0.2470 -0.1270
59104SOL    HW186090   6.868   1.067   5.284  0.0975  0.0010 -0.9469
59104SOL    HW286091   6.738   1.119   5.342  0.0961 -0.5971 -0.4020
59105SOL     OW86092   6.365  12.039   2.555  0.4000 -0.5221  0.4068
59105SOL    HW186093   6.290  12.057   2.611  1.5112  1.7306  1.3134
59105SOL    HW286094   6.441  12.049   2.613  1.6017  1.9825 -1.3955
59106SOL     OW86095   3.609  11.690  12.438  0.3323 -0.2296  0.0581
59106SOL    HW186096   3.616  11.777  12.398 -0.2988  0.5908  1.6317
59106SOL    HW286097   3.612  11.629  12.364 -0.9094  1.2081 -1.2513
59107SOL     OW86098   6.484   9.316   5.463 -0.4532 -0.4297 -0.0122
59107SOL    HW186099   6.470   9.408   5.443  0.3923 -0.4537 -0.7953
59107SOL    HW286100   6.474   9.271   5.380 -1.0667 -1.0783  0.4030
59108SOL     OW86101   5.216   0.788   3.490  0.1626 -0.1625  0.5046
59108SOL    HW186102   5.204   0.803   3.396  0.1691 -1.3961  0.2857
59108SOL    HW286103   5.174   0.703   3.506  2.3032 -1.1847  1.1052
59109SOL     OW86104   2.232   0.447   6.912  0.1220  0.6008  0.6545
59109SOL    HW186105   2.244   0.400   6.830 -1.2522 -1.3606  1.5027
59109SOL    HW286106   2.157   0.505   6.896 -0.6779 -0.3832  0.7345
59110SOL     OW86107   6.791   0.091   3.716  0.3187  0.6324  0.2502
59110SOL    HW186108   6.849   0.028   3.759  0.1700  0.6925  0.5441
59110SOL    HW286109   6.804   0.076   3.622  1.1168  0.9294  0.3081
59111SOL     OW86110  11.236   3.291   8.923 -0.3453 -0.0383 -0.4529
59111SOL    HW186111  11.290   3.282   8.845  0.7377  1.0078  0.1364
59111SOL    HW286112  11.147   3.306   8.889 -0.1363 -0.9344 -1.4476
59112SOL     OW86113   9.624   4.570   8.267 -0.4561 -0.0112 -0.0996
59112SOL    HW186114   9.592   4.530   8.348 -0.3199 -1.4429 -0.7130
59112SOL    HW286115   9.545   4.590   8.216 -0.4955 -0.5334 -0.2489
59113SOL     OW86116   3.380   8.060   8.560  0.0864 -0.4139  0.5433
59113SOL    HW186117   3.447   8.128   8.557 -0.0736 -0.2786 -1.1252
59113SOL    HW286118   3.365   8.044   8.653  1.5980  0.3700  0.9480
59114SOL     OW86119   2.646  11.289   7.567 -0.0273 -0.3924  0.1049
59114SOL    HW186120   2.625  11.196   7.564 -0.3222 -0.3267  0.1188
59114SOL    HW286121   2.634  11.314   7.658 -2.0776  0.1351 -0.2581
59115SOL     OW86122  10.944   4.971   2.348  0.1176  0.2691 -0.3751
59115SOL    HW186123  10.849   4.982   2.354  0.2630  1.7559 -0.5385
59115SOL    HW286124  10.977   5.058   2.324  1.7148  0.3612  1.8418
59116SOL     OW86125   7.332  10.881   8.856 -0.1906  0.1574  0.6184
59116SOL    HW186126   7.360  10.814   8.919  1.2394 -0.4753 -0.6480
59116SOL    HW286127   7.279  10.942   8.909 -0.8954 -1.5253  1.9571
59117SOL     OW86128   3.689  10.214   4.128  0.1390 -0.2747 -0.1720
59117SOL    HW186129   3.716  10.267   4.054  0.1106 -0.3892 -0.2649
59117SOL    HW286130   3.716  10.125   4.105 -0.3912 -0.4076 -0.3050
59118SOL     OW86131   2.123  11.537   0.827 -0.4144 -0.5102  0.0473
59118SOL    HW186132   2.130  11.515   0.920 -0.8070 -0.8580 -0.0020
59118SOL    HW286133   2.029  11.551   0.812 -0.2802  0.2672 -0.1387
59119SOL     OW86134  12.004   7.336   1.783  0.5179 -0.2930  0.3131
59119SOL    HW186135  12.043   7.339   1.695  1.3943 -1.6160  0.6239
59119SOL    HW286136  11.915   7.303   1.769 -0.5000  2.4914 -0.3749
59120SOL     OW86137   4.364  11.069   8.468  0.0364 -0.1029 -0.2916
59120SOL    HW186138   4.269  11.082   8.468  0.1137  0.4880 -0.0708
59120SOL    HW286139   4.390  11.081   8.560  0.4435  0.6309 -0.4974
59121SOL     OW86140   7.037  11.342   5.306 -0.2637  0.5937 -0.1917
59121SOL    HW186141   6.952  11.361   5.265 -0.6057  2.5759  1.2999
59121SOL    HW286142   7.100  11.348   5.234 -1.0590  2.1408 -0.7884
59122SOL     OW86143   1.381  10.535   4.281 -0.0961  0.0025 -0.0724
59122SOL    HW186144   1.399  10.629   4.284  1.8897 -0.3439 -0.2536
59122SOL    HW286145   1.370  10.515   4.188  2.0728 -0.3583 -0.2917
59123SOL     OW86146   1.994   0.623   6.890  0.0191  0.3028 -0.2422
59123SOL    HW186147   1.934   0.555   6.859  0.8077 -0.6708  0.3263
59123SOL    HW286148   1.938   0.685   6.936 -0.4182 -1.3627  1.6172
59124SOL     OW86149  10.427   2.400   0.558 -0.5298  0.0502 -0.1746
59124SOL    HW186150  10.394   2.475   0.507  0.1381  1.2756  1.1148
59124SOL    HW286151  10.353   2.373   0.612 -0.9519 -0.6236 -1.0761
59125SOL     OW86152   2.786   8.056   9.373  0.3764  0.0111  0.6012
59125SOL    HW186153   2.710   8.044   9.316  1.4192 -0.5076 -0.7392
59125SOL    HW286154   2.750   8.091   9.454 -1.1531  0.9171 -0.4155
59126SOL     OW86155   1.008   2.408   8.675 -0.1226 -0.7758  0.2051
59126SOL    HW186156   0.968   2.328   8.708 -1.5893 -0.5233 -0.9078
59126SOL    HW286157   1.017   2.394   8.581 -2.4387  1.1397 -0.3970
59127SOL     OW86158   2.083   3.111   5.746 -0.1632 -0.3274  0.2996
59127SOL    HW186159   2.156   3.162   5.783 -0.7313  0.9386 -0.2530
59127SOL    HW286160   2.034   3.082   5.823  0.9218 -1.2298  0.6810
59128SOL     OW86161   1.594   2.326   1.335 -0.1530 -0.1231 -0.4172
59128SOL    HW186162   1.646   2.318   1.415 -1.0490 -0.2114  0.1695
59128SOL    HW286163   1.550   2.411   1.344 -1.8650 -1.0296  0.1909
59129SOL     OW86164   2.075   8.821   1.596  0.2172  0.3206  0.1538
59129SOL    HW186165   2.138   8.762   1.556  1.7144  2.0261 -0.1436
59129SOL    HW286166   1.994   8.807   1.546  0.7819 -0.7968 -0.4939
59130SOL     OW86167   0.489   7.606  11.514 -0.8329  0.1043 -0.2676
59130SOL    HW186168   0.529   7.549  11.448 -1.4899 -0.9769  0.2346
59130SOL    HW286169   0.432   7.664  11.464 -0.9688 -0.3978 -0.7088
59131SOL     OW86170   7.559   3.161   2.970  0.1944 -0.3812  0.2128
59131SOL    HW186171   7.541   3.215   3.047  2.3351 -0.1319  0.5773
59131SOL    HW286172   7.494   3.190   2.905 -0.2361  0.9371  1.1929
59132SOL     OW86173  11.130   8.643   0.024 -0.2210  0.2387 -0.2619
59132SOL    HW186174  11.069   8.713  -0.001  0.7926  1.3927  0.3353
59132SOL    HW286175  11.103   8.619   0.113 -0.6101 -0.1697 -0.4915
59133SOL     OW86176   7.321   0.404  11.795  0.4672  0.1302  0.0996
59133SOL    HW186177   7.337   0.309  11.801 -0.0391 -0.0200 -0.7157
59133SOL    HW286178   7.317   0.421  11.701  2.3950  1.2896  0.1841
59134SOL     OW86179   8.476   3.924   7.842 -0.5404 -0.1183  0.2515
59134SOL    HW186180   8.453   3.999   7.898  1.6539  0.2930  0.7125
59134SOL    HW286181   8.572   3.920   7.847 -0.5983 -3.2961  0.6848
59135SOL     OW86182   3.471   1.912   5.094 -0.5692  0.1550  0.1802
59135SOL    HW186183   3.385   1.916   5.136 -0.8030 -0.3737 -0.2244
59135SOL    HW286184   3.480   1.997   5.050 -1.0425  0.0782 -0.0710
59136SOL     OW86185   4.308   5.089  11.104  0.4182  0.7463  0.1420
59136SOL    HW186186   4.371   5.143  11.151  0.3807  0.1924  0.8499
59136SOL    HW286187   4.250   5.151  11.061 -0.0023  1.2874  1.4492
59137SOL     OW86188   0.474   8.223  10.061  0.0539 -0.1045 -0.9916
59137SOL    HW186189   0.518   8.152  10.013 -0.2160  0.0261 -1.4439
59137SOL    HW286190   0.462   8.188  10.149  1.5209  0.0480 -0.7095
59138SOL     OW86191   5.823  11.944   5.699  0.3474 -0.5051 -0.4675
59138SOL    HW186192   5.901  11.889   5.694  1.8194  1.5332 -1.3357
59138SOL    HW286193   5.854  12.031   5.676 -2.0314  0.5661  0.1091
59139SOL     OW86194   9.169  11.017  10.807  0.0901  0.0468  0.3095
59139SOL    HW186195   9.081  11.043  10.779  0.0750 -1.0210 -0.6465
59139SOL    HW286196   9.166  11.027  10.903 -0.3941  2.0280  0.1524
59140SOL     OW86197  12.510   3.224  11.158  0.8758 -0.0659 -0.5530
59140SOL    HW186198  12.602   3.242  11.138  0.6160 -1.2567 -3.2051
59140SOL    HW286199  12.481   3.166  11.088 -1.9396  0.3486  0.1532
59141SOL     OW86200   6.955  11.723   1.579 -0.0877  0.4028 -0.0134
59141SOL    HW186201   6.994  11.732   1.492 -0.6933 -0.8398 -0.4393
59141SOL    HW286202   6.876  11.671   1.564 -0.4169  0.5153  1.2296
59142SOL     OW86203   4.454   8.025   2.329 -0.2585 -0.6283 -0.5232
59142SOL    HW186204   4.417   7.965   2.393 -0.5167 -1.0946 -1.0945
59142SOL    HW286205   4.486   8.099   2.380 -1.2655 -0.5821  0.0604
59143SOL     OW86206   6.637   7.610   7.659 -0.0327  0.2377 -0.0282
59143SOL    HW186207   6.640   7.703   7.681 -1.3154  0.7683 -1.8437
59143SOL    HW286208   6.597   7.608   7.572 -2.4028 -2.1770  0.9968
59144SOL     OW86209  12.035   4.160   5.885 -0.7688 -0.3156  0.1985
59144SOL    HW186210  12.002   4.083   5.931  0.1684 -0.8104  0.0596
59144SOL    HW286211  12.032   4.135   5.792 -2.4488  0.5977 -0.0274
59145SOL     OW86212   1.197   3.810   1.867 -0.3017 -0.0913  0.3378
59145SOL    HW186213   1.195   3.882   1.804  5.1328  0.2645  0.1307
59145SOL    HW286214   1.179   3.852   1.951  1.7665  1.4555  0.0956
59146SOL     OW86215  10.026   5.225  12.447 -0.4204  0.9219  0.6479
59146SOL    HW186216   9.932   5.231  12.466 -0.6335  0.2289 -0.1164
59146SOL    HW286217  10.039   5.286  12.374 -0.6283 -0.2289 -0.3893
59147SOL     OW86218   2.468   6.960   3.768 -0.1250 -0.0935  0.2061
59147SOL    HW186219   2.463   6.865   3.759  3.2094 -0.4238  0.5653
59147SOL    HW286220   2.442   6.978   3.858  0.7131 -0.8578  0.6067
59148SOL     OW86221   5.859  12.317   3.264 -0.1179  0.2013 -0.1020
59148SOL    HW186222   5.818  12.267   3.193  2.5931 -1.4231 -0.6655
59148SOL    HW286223   5.834  12.271   3.344 -1.5171  0.8335 -0.1442
59149SOL     OW86224   5.188   2.208   8.867 -0.1474 -0.5990  0.1776
59149SOL    HW186225   5.251   2.280   8.874  0.0769 -0.6475 -1.0991
59149SOL    HW286226   5.107   2.243   8.905  0.6494 -0.5695  1.9185
59150SOL     OW86227   1.475   0.727   8.366  0.2117 -0.4792 -0.5699
59150SOL    HW186228   1.528   0.680   8.302 -0.3317 -0.9852 -0.6564
59150SOL    HW286229   1.387   0.691   8.356  0.2728 -1.1740  1.0149
59151SOL     OW86230  11.761   9.169   9.652 -0.0819 -0.0472  0.0523
59151SOL    HW186231  11.854   9.152   9.662  0.1258  1.3177  0.7380
59151SOL    HW286232  11.729   9.183   9.741 -0.4481  1.7891 -0.3307
59152SOL     OW86233   4.485   2.187   8.826 -0.7362 -0.5310  0.0747
59152SOL    HW186234   4.406   2.235   8.801  0.1639  0.5307 -0.8528
59152SOL    HW286235   4.536   2.250   8.878  1.0392  0.0432 -2.1945
59153SOL     OW86236   2.908   9.378   7.762  0.0645 -0.2735 -0.4086
59153SOL    HW186237   2.932   9.314   7.829 -0.9466  0.0914  0.3228
59153SOL    HW286238   2.973   9.448   7.773 -0.8974  0.4329  1.1613
59154SOL     OW86239   6.814   4.383   2.518 -0.2958  0.1812 -0.3524
59154SOL    HW186240   6.874   4.423   2.455  0.6389 -0.6427 -0.0282
59154SOL    HW286241   6.839   4.422   2.602  0.3711 -0.7695 -0.0922
59155SOL     OW86242   2.893   0.702   4.364 -0.0063  0.4448  0.4151
59155SOL    HW186243   2.900   0.618   4.318 -1.1459  1.5073 -1.8589
59155SOL    HW286244   2.932   0.765   4.303 -0.6285  1.7875  1.3737
59156SOL     OW86245   3.142   0.887   9.366  0.4519 -0.0004 -0.2350
59156SOL    HW186246   3.130   0.881   9.460 -0.4745 -0.4931 -0.3633
59156SOL    HW286247   3.186   0.971   9.352 -0.7690  0.8089  0.5376
59157SOL     OW86248   2.606   8.169   7.542  0.2028 -0.3277 -0.3607
59157SOL    HW186249   2.681   8.228   7.540  0.9399 -0.8432  4.0110
59157SOL    HW286250   2.533   8.224   7.571 -0.4870 -0.4522 -1.7818
59158SOL     OW86251  12.564   8.252   3.501 -0.2021 -0.0974  0.0282
59158SOL    HW186252  12.634   8.263   3.436 -0.1043  0.0073  0.1494
59158SOL    HW286253  12.554   8.157   3.509 -1.1039 -0.1137 -1.0817
59159SOL     OW86254   9.442   8.590  11.786  0.2587 -0.0862 -0.4984
59159SOL    HW186255   9.447   8.637  11.703 -0.7556  0.8213 -0.0685
59159SOL    HW286256   9.529   8.602  11.825  0.4672  0.2142 -1.0422
59160SOL     OW86257   4.450   1.610   7.343 -0.0955 -0.4093 -0.2277
59160SOL    HW186258   4.493   1.641   7.264  0.8008 -0.9756  0.0296
59160SOL    HW286259   4.375   1.559   7.311  1.5948 -2.6991 -0.8511
59161SOL     OW86260   2.348  10.825   3.391 -0.1834 -0.3960 -0.8441
59161SOL    HW186261   2.339  10.793   3.301  1.2892 -1.3548 -0.6718
59161SOL    HW286262   2.340  10.920   3.383 -2.5249 -0.5970 -1.6345
59162SOL     OW86263   5.220   4.690   6.470  0.2148  0.1647  0.1183
59162SOL    HW186264   5.168   4.689   6.390 -1.0898  3.1461  0.8035
59162SOL    HW286265   5.189   4.614   6.519 -0.8142 -0.2250 -1.0817
59163SOL     OW86266   2.648   2.546   6.549 -0.1954  0.0271  0.5696
59163SOL    HW186267   2.650   2.630   6.504 -0.6215 -1.3230 -2.2099
59163SOL    HW286268   2.564   2.544   6.594 -0.2593  1.0147  0.5027
59164SOL     OW86269   5.827   0.984   5.424 -0.1900 -0.1365 -0.3270
59164SOL    HW186270   5.830   1.062   5.478  0.3067 -1.1860  1.2103
59164SOL    HW286271   5.906   0.989   5.370  0.7949 -0.4626  1.0557
59165SOL     OW86272   4.245   3.394   2.912 -0.0658  0.2154  0.2620
59165SOL    HW186273   4.283   3.415   2.998 -1.8179  0.0051  1.1302
59165SOL    HW286274   4.271   3.303   2.896 -0.2041  0.0743  0.8317
59166SOL     OW86275  11.624  12.464   1.469  0.4214 -0.5624  0.4491
59166SOL    HW186276  11.669  12.499   1.546 -0.4878 -1.0881  1.2460
59166SOL    HW286277  11.624  12.536   1.406 -0.5982  0.5764  1.6989
59167SOL     OW86278   3.117   6.038   4.031 -0.4927 -0.1160  0.3640
59167SOL    HW186279   3.168   6.096   4.088 -1.9566  0.6327  0.9729
59167SOL    HW286280   3.094   6.092   3.956  1.4074 -1.0938 -0.9878
59168SOL     OW86281   7.298   5.737   0.680  0.2782  0.2370  0.5650
59168SOL    HW186282   7.358   5.807   0.653  1.8550 -1.5862 -0.8754
59168SOL    HW286283   7.255   5.710   0.599 -0.4973 -0.3154  1.1464
59169SOL     OW86284  12.081   2.409   0.311 -0.3230  0.0893  0.4149
59169SOL    HW186285  12.001   2.431   0.265 -2.4323  0.8714  4.0500
59169SOL    HW286286  12.076   2.315   0.325  0.0128 -0.0494 -0.3628
59170SOL     OW86287   7.191   0.022  10.761  0.5925 -0.1222 -0.5833
59170SOL    HW186288   7.203  -0.028  10.680 -2.2095  0.7625 -1.6835
59170SOL    HW286289   7.223   0.110  10.740  0.8140 -0.1530 -0.3751
59171SOL     OW86290   1.512  10.081  12.271  0.3125  0.0487 -0.1054
59171SOL    HW186291   1.544  10.118  12.189 -2.5273  1.0047 -0.8751
59171SOL    HW286292   1.497   9.988  12.250  2.1632 -0.3627  0.2019
59172SOL     OW86293  11.155   1.780  10.178 -0.5059  0.3393  0.1708
59172SOL    HW186294  11.244   1.748  10.164 -0.8222 -0.2219 -0.6062
59172SOL    HW286295  11.110   1.707  10.221 -0.5844  0.6461  0.6219
59173SOL     OW86296   9.288   5.569   3.333  0.6293 -0.2044  0.2240
59173SOL    HW186297   9.330   5.530   3.257  1.2722  0.6748  0.1040
59173SOL    HW286298   9.353   5.632   3.366 -0.5163  1.0816  0.1181
59174SOL     OW86299   5.244  10.281  10.454  0.5323 -0.7863  0.1395
59174SOL    HW186300   5.213  10.364  10.491  1.9142 -0.3890  0.4755
59174SOL    HW286301   5.244  10.295  10.360  1.2899 -0.1841  0.2168
59175SOL     OW86302   4.614   7.644   8.501  0.1513  0.0164  0.5571
59175SOL    HW186303   4.697   7.672   8.542 -0.2119 -0.3488  1.5793
59175SOL    HW286304   4.554   7.716   8.518  0.6371  0.9620 -1.5121
59176SOL     OW86305   1.272   6.066   8.174  0.6756  0.0568 -0.6006
59176SOL    HW186306   1.316   6.129   8.118  0.8407  1.0978  0.6633
59176SOL    HW286307   1.309   5.981   8.149  0.3935  0.4086 -2.3733
59177SOL     OW86308   0.150   7.643   5.246  0.0564 -0.3743  0.2534
59177SOL    HW186309   0.108   7.696   5.178  0.9059  1.3398  0.9991
59177SOL    HW286310   0.105   7.668   5.327  0.2627 -1.0423  0.5810
59178SOL     OW86311   7.857   6.777   0.913 -0.1218 -0.2631 -0.7441
59178SOL    HW186312   7.796   6.846   0.940 -1.2872 -0.7762 -1.9536
59178SOL    HW286313   7.890   6.807   0.828  1.2505 -0.0567 -0.1639
59179SOL     OW86314   4.670   5.228   0.099  0.4200 -0.4914  0.3347
59179SOL    HW186315   4.704   5.237   0.188  0.7018 -0.2691  0.2058
59179SOL    HW286316   4.743   5.251   0.042  0.5854 -1.7240  0.0138
59180SOL     OW86317   6.761   6.800   6.860  0.0710  0.2524 -0.6095
59180SOL    HW186318   6.832   6.794   6.923 -0.2238  1.9335 -0.0767
59180SOL    HW286319   6.729   6.710   6.851  1.7102 -0.3900 -0.2463
59181SOL     OW86320  11.063   6.983   9.590 -0.2556 -0.3721 -0.2370
59181SOL    HW186321  11.090   6.892   9.600  0.5970  0.1192  3.4797
59181SOL    HW286322  11.145   7.032   9.584 -0.6830  0.2919 -0.9619
59182SOL     OW86323   7.499   5.140   0.365 -0.2156  0.1263  0.4583
59182SOL    HW186324   7.488   5.045   0.374  0.4333 -0.4192 -2.9497
59182SOL    HW286325   7.435   5.178   0.424 -0.9715 -2.4302  1.4176
59183SOL     OW86326   2.137  11.308   0.256 -0.1216  0.2392 -0.1559
59183SOL    HW186327   2.200  11.371   0.221 -0.5411  0.9761  0.3981
59183SOL    HW286328   2.074  11.361   0.304 -0.8754 -0.5376 -0.2591
59184SOL     OW86329   0.803   3.462   8.138 -0.4967  0.0853 -0.1384
59184SOL    HW186330   0.832   3.513   8.214 -0.6985 -0.4381  0.2939
59184SOL    HW286331   0.832   3.513   8.063  0.9491 -0.0796  0.2790
59185SOL     OW86332   8.801   2.798  11.399  0.3897 -0.2262  0.2278
59185SOL    HW186333   8.762   2.727  11.349  1.1003  0.7607 -1.8656
59185SOL    HW286334   8.877   2.759  11.442  1.9063 -0.4542 -2.4099
59186SOL     OW86335   0.764  11.451   2.286  0.1041  0.1748  0.6575
59186SOL    HW186336   0.805  11.488   2.364  0.6278  0.6147  0.1817
59186SOL    HW286337   0.685  11.407   2.319  0.1617  0.6020  1.3941
59187SOL     OW86338   7.903   2.989   4.023 -0.1211 -0.1618 -0.1390
59187SOL    HW186339   7.884   2.903   3.985 -0.3920  0.5295 -1.6348
59187SOL    HW286340   7.998   2.987   4.039 -0.0537 -0.6082 -0.5404
59188SOL     OW86341   8.169  11.232   5.635  0.1685  0.3726  0.4422
59188SOL    HW186342   8.235  11.301   5.624  1.0442 -0.2453  1.6151
59188SOL    HW286343   8.186  11.171   5.562 -0.7089  1.4400 -0.6913
59189SOL     OW86344   9.078   4.742   1.026  0.5190  0.0050 -0.6616
59189SOL    HW186345   9.107   4.825   1.062  0.3277 -0.4780  0.6616
59189SOL    HW286346   9.012   4.766   0.961  1.1039  0.9161 -0.9305
59190SOL     OW86347   6.903   4.482   9.775 -0.0636  0.0247  0.2821
59190SOL    HW186348   6.891   4.443   9.688 -1.0103  0.1733  0.3354
59190SOL    HW286349   6.995   4.511   9.776 -0.9670  3.8092 -2.2714
59191SOL     OW86350   9.784   9.531  10.961 -0.0185 -0.0792  0.3575
59191SOL    HW186351   9.798   9.561  10.871 -1.7420  0.0376  0.0988
59191SOL    HW286352   9.779   9.435  10.954 -1.7022  0.0031  0.0556
59192SOL     OW86353   8.932   5.039  10.810 -0.0252 -0.0300  0.1097
59192SOL    HW186354   8.989   5.095  10.863 -0.1505  1.5171 -1.3266
59192SOL    HW286355   8.843   5.061  10.839 -0.0586  0.1634 -0.1502
59193SOL     OW86356   6.941   4.756  11.636 -0.1317 -0.5473 -0.2272
59193SOL    HW186357   6.875   4.824  11.647  0.8551  0.1763  1.5709
59193SOL    HW286358   6.896   4.688  11.585 -1.5614  0.8264 -0.8953
59194SOL     OW86359   5.407  12.360   3.886  0.4561  0.5609 -0.2401
59194SOL    HW186360   5.500  12.378   3.873  0.7151 -0.0109  0.6984
59194SOL    HW286361   5.402  12.264   3.895 -0.0706  0.6649  0.7623
59195SOL     OW86362   4.040   0.799   9.802  0.1274  0.1419 -0.4901
59195SOL    HW186363   4.057   0.738   9.730  0.2009  0.6731 -0.9344
59195SOL    HW286364   3.952   0.832   9.785  0.1305  0.2377 -0.3179
59196SOL     OW86365   6.649   3.083  12.370  0.2777 -0.2820  0.0491
59196SOL    HW186366   6.617   3.159  12.323 -1.9033 -0.7175  0.7140
59196SOL    HW286367   6.718   3.117  12.427 -0.1126  1.0375 -0.2358
59197SOL     OW86368   7.313   9.082   4.791  0.5964  0.0164  0.9076
59197SOL    HW186369   7.226   9.042   4.789  0.4994  0.2162  1.1085
59197SOL    HW286370   7.296   9.175   4.804  0.7183  0.4501 -1.4556
59198SOL     OW86371   0.553   1.622   9.443 -0.0554  0.1052 -0.3955
59198SOL    HW186372   0.647   1.612   9.458  0.2938  1.8880 -1.1661
59198SOL    HW286373   0.542   1.715   9.420 -2.2410  0.3637  1.3721
59199SOL     OW86374   2.047   2.959   8.639 -0.4058  0.4526 -0.2067
59199SOL    HW186375   2.117   2.893   8.645 -0.2133  0.4154 -2.1533
59199SOL    HW286376   2.055   3.011   8.719  0.4295 -0.9163  0.6393
59200SOL     OW86377   6.134  10.132   0.848  0.3572  0.3501  0.2997
59200SOL    HW186378   6.139  10.099   0.938 -3.6372  0.0322  0.5973
59200SOL    HW286379   6.158  10.058   0.793 -1.7645 -1.0257  1.1058
59201SOL     OW86380  10.924   7.855   4.056 -0.3278 -0.4415  0.1097
59201SOL    HW186381  10.971   7.911   3.995 -0.6035 -1.1806 -0.7990
59201SOL    HW286382  10.946   7.890   4.142  1.6128 -0.5493 -0.2968
59202SOL     OW86383   8.666  12.477   1.839  0.4441  0.7254 -0.4633
59202SOL    HW186384   8.598  12.544   1.836 -0.2775 -0.0413 -2.1688
59202SOL    HW286385   8.743  12.521   1.802  1.2011  1.8412  2.1797
59203SOL     OW86386   5.180   8.150   0.022 -0.1792 -0.0255 -0.0760
59203SOL    HW186387   5.236   8.150  -0.056 -0.2981  1.0228 -0.1742
59203SOL    HW286388   5.228   8.200   0.087  0.1610 -1.3481  0.7299
59204SOL     OW86389  11.151   1.037   0.963  0.8400  0.6278 -0.5476
59204SOL    HW186390  11.112   0.950   0.956  0.7606  0.4153  1.9673
59204SOL    HW286391  11.095   1.084   1.024  0.9961  2.4227 -1.7121
59205SOL     OW86392  11.503  11.741   9.308 -0.3551  0.0820  0.3735
59205SOL    HW186393  11.409  11.751   9.320 -0.6421 -0.0248 -1.5424
59205SOL    HW286394  11.522  11.651   9.334 -0.9739 -0.2313 -0.2450
59206SOL     OW86395   4.669   3.354   9.777 -0.4662  0.2913 -0.3697
59206SOL    HW186396   4.623   3.286   9.727 -1.1157  0.3995  0.0711
59206SOL    HW286397   4.612   3.371   9.852  0.0132  0.8553 -0.1296
59207SOL     OW86398   0.567   1.216   0.526 -0.0845  0.0805 -0.2256
59207SOL    HW186399   0.644   1.188   0.576 -0.2296  0.0853  0.0026
59207SOL    HW286400   0.493   1.192   0.582 -0.1760  2.1386  0.6086
59208SOL     OW86401   0.927  10.818   1.413  0.4036  0.0792  0.0978
59208SOL    HW186402   0.952  10.768   1.335 -2.3318  0.3332 -1.0678
59208SOL    HW286403   0.892  10.752   1.473  1.6952  0.0007  0.8069
59209SOL     OW86404  11.181   1.479   6.510 -0.2945  0.2498  0.1982
59209SOL    HW186405  11.157   1.529   6.432  0.8211  1.1143  0.3841
59209SOL    HW286406  11.196   1.390   6.479  0.5131  0.6673 -0.6373
59210SOL     OW86407   4.055   9.385  12.251  0.2434  0.4523 -0.1621
59210SOL    HW186408   4.002   9.378  12.331  1.5502 -0.3774  0.6636
59210SOL    HW286409   4.143   9.357  12.277  0.6913  0.0750 -1.9149
59211SOL     OW86410   1.354   3.208  10.809 -0.2349  0.3009 -0.6098
59211SOL    HW186411   1.330   3.273  10.875 -1.8249 -3.0678  2.4517
59211SOL    HW286412   1.448   3.194  10.823 -0.1876  0.8811 -0.3017
59212SOL     OW86413   4.551   6.506   8.468 -0.3524  0.4008 -0.0006
59212SOL    HW186414   4.571   6.416   8.495  0.1128  0.7299  0.7798
59212SOL    HW286415   4.543   6.555   8.551 -1.1683  0.9628 -0.3951
59213SOL     OW86416   0.702   3.722   1.350 -0.0239  0.4091  0.0325
59213SOL    HW186417   0.752   3.770   1.284 -0.0655  1.7221  0.9135
59213SOL    HW286418   0.636   3.784   1.381 -2.3177 -1.2875 -1.1394
59214SOL     OW86419   1.910   8.235  12.550 -0.1507 -0.3630 -0.1671
59214SOL    HW186420   1.821   8.223  12.582  0.2415  1.2973  1.7904
59214SOL    HW286421   1.901   8.291  12.473 -0.8602 -1.0962 -0.6258
59215SOL     OW86422   4.123   4.861   0.888 -0.4058  0.1635  0.3364
59215SOL    HW186423   4.197   4.835   0.942 -0.4333 -1.6965 -0.4366
59215SOL    HW286424   4.102   4.782   0.837 -2.3557  0.9027 -0.0877
59216SOL     OW86425   6.503   2.368   2.549  0.3384  0.2590 -0.2365
59216SOL    HW186426   6.488   2.342   2.458  1.2383  3.7001 -1.5521
59216SOL    HW286427   6.442   2.315   2.600  0.8839 -2.9394 -2.5906
59217SOL     OW86428   6.628   5.580   9.784  0.3449 -0.1320 -0.0425
59217SOL    HW186429   6.578   5.659   9.805  0.5184  0.8111 -2.7643
59217SOL    HW286430   6.661   5.549   9.868 -0.7323  1.9979  1.2486
59218SOL     OW86431   9.982   7.038   4.869  0.5335 -0.1919  0.1800
59218SOL    HW186432   9.962   6.946   4.856  0.2726  0.1918 -2.6243
59218SOL    HW286433  10.073   7.048   4.838 -0.0394  0.7695 -1.3253
59219SOL     OW86434   2.783   0.330   7.670 -0.0717  0.4117  0.0495
59219SOL    HW186435   2.725   0.256   7.681  0.2866  0.3243  1.5886
59219SOL    HW286436   2.726   0.402   7.641 -0.7234 -0.0034  0.2916
59220SOL     OW86437   9.468   0.795   5.501  0.2474  0.0584 -0.2134
59220SOL    HW186438   9.548   0.749   5.474  0.4170  0.7293 -0.9126
59220SOL    HW286439   9.426   0.818   5.418 -0.2016  0.5206  0.1421
59221SOL     OW86440   1.474   9.824   3.926 -0.6513  0.3113 -0.2897
59221SOL    HW186441   1.467   9.764   4.000 -0.3431  0.0789 -0.4423
59221SOL    HW286442   1.532   9.779   3.864 -1.6738  0.0712 -1.1032
59222SOL     OW86443   2.226  12.089   0.947  0.3377  0.2032  0.1706
59222SOL    HW186444   2.175  12.019   0.907  0.4413  1.0582 -1.5551
59222SOL    HW286445   2.229  12.067   1.040 -0.8989 -1.2662 -0.1055
59223SOL     OW86446   1.668   2.883  11.792 -0.4324 -0.2498  0.3478
59223SOL    HW186447   1.572   2.888  11.788 -0.3609  0.4834 -1.1148
59223SOL    HW286448   1.695   2.973  11.812 -0.0094 -0.0190 -1.1348
59224SOL     OW86449   1.019   2.986   6.885 -0.0706 -1.0369 -0.3543
59224SOL    HW186450   1.109   3.013   6.871 -0.3478  0.7677  0.9413
59224SOL    HW286451   0.981   2.980   6.797  1.1071 -1.1709 -0.8723
59225SOL     OW86452   2.901  10.230   2.354 -0.1729 -0.4873 -0.1870
59225SOL    HW186453   2.935  10.319   2.347 -2.9988  0.8051  1.0981
59225SOL    HW286454   2.912  10.208   2.446 -2.7629  0.0306  0.3013
59226SOL     OW86455   1.394   7.476  11.312 -0.1561  0.1475 -0.0541
59226SOL    HW186456   1.377   7.460  11.405  0.9451  0.6525  0.2615
59226SOL    HW286457   1.426   7.393  11.278 -0.0858  0.0923  0.1483
59227SOL     OW86458   3.947  10.354   0.077  0.7956 -0.3274  0.2694
59227SOL    HW186459   4.025  10.387   0.034  0.6990 -1.5676 -0.9319
59227SOL    HW286460   3.885  10.427   0.075  1.4182  0.1990 -0.0842
59228SOL     OW86461   8.206  12.545   5.190 -0.7895 -0.2148 -0.1886
59228SOL    HW186462   8.191  12.516   5.280  0.2669 -1.1669 -0.2897
59228SOL    HW286463   8.124  12.585   5.163 -1.2229 -0.2173  1.0924
59229SOL     OW86464   4.695   1.642   5.879 -0.1332 -0.0574  0.2091
59229SOL    HW186465   4.733   1.728   5.865 -0.3725 -0.0737 -0.5970
59229SOL    HW286466   4.724   1.590   5.804  0.1704 -0.7370  0.7907
59230SOL     OW86467  11.870  12.055   5.016 -0.3103  0.4507 -0.1089
59230SOL    HW186468  11.804  12.101   5.067  1.6291  1.9698  1.1725
59230SOL    HW286469  11.869  12.099   4.931  1.1545  2.6880  0.9293
59231SOL     OW86470   1.708   6.744  12.050 -0.1376  0.3520  0.0141
59231SOL    HW186471   1.774   6.807  12.022  1.0100  0.1793  2.1302
59231SOL    HW286472   1.629   6.796  12.064 -0.3774  0.6402 -2.0390
59232SOL     OW86473  11.265   7.251  11.059 -0.3875  0.1735  0.4192
59232SOL    HW186474  11.175   7.254  11.091 -0.9630  2.3889 -1.1315
59232SOL    HW286475  11.258   7.217  10.970  0.5022 -0.8971  0.7320
59233SOL     OW86476   5.630   2.770   1.052  0.0822 -0.6025 -0.0263
59233SOL    HW186477   5.623   2.865   1.060 -0.7009 -0.6384 -0.1553
59233SOL    HW286478   5.658   2.740   1.138  0.9762 -0.2057 -0.1678
59234SOL     OW86479   6.440   1.885   6.966 -0.3049 -0.0729 -0.0676
59234SOL    HW186480   6.357   1.880   6.918 -1.2987 -4.4221  1.6906
59234SOL    HW286481   6.505   1.854   6.903 -0.5258  0.2855 -0.4807
59235SOL     OW86482   9.854  12.284  11.909  0.0684 -0.1584 -0.2781
59235SOL    HW186483   9.793  12.265  11.837  0.1809  0.3313 -0.5046
59235SOL    HW286484   9.853  12.379  11.917  2.6359  0.1068 -1.9183
59236SOL     OW86485   1.993   1.546  10.084 -0.1279  0.6903 -0.4817
59236SOL    HW186486   2.011   1.529  10.177 -0.6616  3.3129  0.2041
59236SOL    HW286487   2.022   1.467  10.039  1.0431 -0.3007  1.8131
59237SOL     OW86488  11.348   6.284   3.340 -0.2989 -0.1117  0.3094
59237SOL    HW186489  11.254   6.283   3.324 -0.2742  0.1219  0.1284
59237SOL    HW286490  11.372   6.192   3.350 -0.4829 -0.2006 -0.0370
59238SOL     OW86491  10.914   2.678   8.366  0.1656  0.3217 -0.1956
59238SOL    HW186492  10.882   2.705   8.452 -1.6732 -0.2783 -0.6540
59238SOL    HW286493  10.948   2.758   8.326 -1.7521  1.2275 -0.0814
59239SOL     OW86494   0.604   6.614   7.298 -0.1144  0.1632 -0.0031
59239SOL    HW186495   0.645   6.700   7.307  1.4226 -0.6030  0.6509
59239SOL    HW286496   0.551   6.621   7.219  0.2519  1.5999 -0.1514
59240SOL     OW86497   2.929   1.040   6.723  0.6149 -0.1094  0.0984
59240SOL    HW186498   2.903   0.948   6.713  2.0485 -0.4324 -1.0079
59240SOL    HW286499   3.014   1.045   6.680  0.4885  1.7849  0.0064
59241SOL     OW86500   9.115   3.690  10.060  0.3663  0.0850  0.1696
59241SOL    HW186501   9.166   3.768  10.082  0.4489 -0.2910  1.4188
59241SOL    HW286502   9.179   3.630  10.021  0.4363  0.3809 -0.1814
59242SOL     OW86503   4.690   1.060   6.536  0.0990  0.4525 -0.7174
59242SOL    HW186504   4.623   1.112   6.492 -0.3017 -0.0533 -0.7276
59242SOL    HW286505   4.708   1.106   6.618 -1.2709 -0.1134 -0.0675
59243SOL     OW86506   2.113   5.905   1.794  0.1675  0.3496 -0.0697
59243SOL    HW186507   2.057   5.962   1.846 -0.2605 -0.5215  0.4603
59243SOL    HW286508   2.077   5.912   1.705  0.1953  0.9856 -0.0348
59244SOL     OW86509  11.051   1.443   3.287 -0.2595  0.3070 -0.0934
59244SOL    HW186510  10.983   1.432   3.352 -0.5863 -0.4716 -0.5621
59244SOL    HW286511  11.074   1.354   3.260  2.9099  0.2982  2.0446
59245SOL     OW86512   1.624   8.015   7.681  0.1612 -0.2647  0.1557
59245SOL    HW186513   1.639   8.108   7.664  0.2915 -0.3002  0.0776
59245SOL    HW286514   1.596   8.012   7.773 -2.2668  0.1278 -0.4905
59246SOL     OW86515   5.806   7.918   7.020 -0.0120  0.4775  0.1241
59246SOL    HW186516   5.820   7.959   6.934 -0.1062  1.0289  0.3644
59246SOL    HW286517   5.894   7.902   7.053  0.0252  0.3139 -0.0524
59247SOL     OW86518   2.228  12.358   9.778 -0.1747  0.4287 -0.1728
59247SOL    HW186519   2.184  12.386   9.858  0.3349  0.7701 -0.0021
59247SOL    HW286520   2.174  12.392   9.707  0.0309  1.1965  0.0337
59248SOL     OW86521   2.445  10.132   6.795  0.2465  0.2531 -0.4728
59248SOL    HW186522   2.399  10.067   6.741  0.1535 -1.3277  1.4212
59248SOL    HW286523   2.418  10.217   6.758  0.5587 -0.7205 -3.1689
59249SOL     OW86524   7.497  11.831   3.833  0.1984  0.4253  0.3804
59249SOL    HW186525   7.533  11.892   3.897  0.9775 -0.9631  1.3107
59249SOL    HW286526   7.562  11.760   3.827 -1.1732 -0.8794  0.1841
59250SOL     OW86527   1.968   2.225   3.154 -0.2075 -0.4187 -0.5004
59250SOL    HW186528   2.036   2.256   3.214  0.9375 -1.2696 -1.3125
59250SOL    HW286529   1.893   2.281   3.172  0.7928  0.7354  0.2414
59251SOL     OW86530   9.924   2.435  11.351 -0.2120 -0.0181  0.1158
59251SOL    HW186531   9.864   2.367  11.320 -2.0456  0.7012  1.8513
59251SOL    HW286532   9.892   2.515  11.309  0.8245  0.0783 -0.5184
59252SOL     OW86533   0.146  10.693   9.867  0.1482 -0.2189 -0.5218
59252SOL    HW186534   0.096  10.765   9.907  0.3215 -1.1535  1.5326
59252SOL    HW286535   0.079  10.631   9.837 -0.0308 -0.9917  1.3091
59253SOL     OW86536   5.610  10.612   8.971 -0.1236  0.2083  0.8219
59253SOL    HW186537   5.516  10.596   8.966 -0.0698  0.1293 -0.1987
59253SOL    HW286538   5.647  10.528   9.000 -0.3081 -0.0009  0.4662
59254SOL     OW86539   8.657   3.150   8.834  0.3163  0.1632 -0.1214
59254SOL    HW186540   8.587   3.086   8.816 -0.5156  1.3503 -1.2898
59254SOL    HW286541   8.634   3.186   8.920  1.0534 -1.3927  0.7752
59255SOL     OW86542  11.580   8.474   0.766 -0.4275 -0.0275 -0.3078
59255SOL    HW186543  11.568   8.434   0.852 -1.8812 -0.2847 -0.6123
59255SOL    HW286544  11.630   8.554   0.784  0.9251 -1.0138  0.5226
59256SOL     OW86545   6.308   5.779   3.106 -0.2638  0.2373 -0.1968
59256SOL    HW186546   6.317   5.820   3.192  1.5131 -1.5720  0.5491
59256SOL    HW286547   6.383   5.813   3.057 -1.0643  0.9710 -0.9515
59257SOL     OW86548  11.544   7.527   4.022  0.5726 -0.6155  0.0272
59257SOL    HW186549  11.615   7.589   4.005 -0.6540  0.9707  0.4232
59257SOL    HW286550  11.561   7.454   3.963  2.9040 -0.6131  0.6239
59258SOL     OW86551  11.204   6.869  10.988  0.1665  0.0666  0.1349
59258SOL    HW186552  11.234   6.934  10.925  1.2578  0.0942  0.6512
59258SOL    HW286553  11.119   6.902  11.018  0.6499  1.2042  0.3059
59259SOL     OW86554  10.938   8.325   0.432 -0.0033  0.0936  0.7940
59259SOL    HW186555  10.857   8.327   0.381 -0.8570 -0.4322  2.0798
59259SOL    HW286556  10.910   8.301   0.520  1.6443 -0.8517  1.0981
59260SOL     OW86557   8.722  10.123   5.267 -0.1133  0.0190 -0.0261
59260SOL    HW186558   8.645  10.179   5.276 -0.5712 -0.0536 -2.5528
59260SOL    HW286559   8.695  10.056   5.204  1.8598 -0.2625 -0.6456
59261SOL     OW86560   7.071   0.704   0.499  0.2251  0.2624 -0.1062
59261SOL    HW186561   7.076   0.654   0.417 -0.0025  0.2774 -0.1298
59261SOL    HW286562   7.053   0.793   0.471  2.4061  0.7416 -0.1793
59262SOL     OW86563   8.708   3.632   4.371  0.0039 -0.1189 -0.2239
59262SOL    HW186564   8.630   3.608   4.321 -0.5257 -1.2597  1.0902
59262SOL    HW286565   8.695   3.725   4.392 -0.9186 -0.2540 -0.1602
59263SOL     OW86566  10.442   6.545  12.219 -0.1471  0.0200 -0.4474
59263SOL    HW186567  10.357   6.515  12.251  0.1620  1.0870  1.4971
59263SOL    HW286568  10.505   6.488  12.261  0.1551 -0.2808 -1.2918
59264SOL     OW86569   5.148  11.070   9.018 -0.3949  0.2091  0.0659
59264SOL    HW186570   5.121  11.056   8.927 -0.1678  2.6492 -0.4396
59264SOL    HW286571   5.065  11.077   9.066 -0.5188 -0.6457 -0.0020
59265SOL     OW86572  11.245   9.912   3.702 -0.1220  0.2901  0.1324
59265SOL    HW186573  11.295   9.993   3.688  0.1630  0.5035  2.1161
59265SOL    HW286574  11.181   9.911   3.630  2.2601  0.3234 -2.1509
59266SOL     OW86575   4.570   8.845   7.866 -0.0218  0.9139  0.1486
59266SOL    HW186576   4.645   8.881   7.913 -0.8231  2.3419  0.3818
59266SOL    HW286577   4.595   8.850   7.774  1.1368 -0.9451  0.3072
59267SOL     OW86578   1.494   8.628   5.652 -0.4009  0.4952  0.0961
59267SOL    HW186579   1.560   8.600   5.715  0.5052 -0.7290 -1.3180
59267SOL    HW286580   1.479   8.551   5.598 -0.6142  1.6953 -1.6328
59268SOL     OW86581   4.193   0.409   5.683  0.1685 -0.4249 -0.3050
59268SOL    HW186582   4.252   0.422   5.608 -0.0234 -1.3881 -0.6383
59268SOL    HW286583   4.250   0.422   5.759  0.4548  0.1845 -0.6087
59269SOL     OW86584   7.424   5.164  11.846  0.0887  0.5062  0.2723
59269SOL    HW186585   7.469   5.180  11.929  1.0372 -0.8598  0.0536
59269SOL    HW286586   7.398   5.072  11.850 -0.7544  0.6876 -0.5420
59270SOL     OW86587   8.324  12.274  11.281  0.3952 -0.3438  0.3522
59270SOL    HW186588   8.274  12.223  11.345 -0.1998 -1.3453 -0.8791
59270SOL    HW286589   8.347  12.354  11.328 -2.3383  0.1599  0.9809
59271SOL     OW86590   1.654   4.166   0.477  0.3877  0.0235 -0.1817
59271SOL    HW186591   1.608   4.236   0.432  1.9212  0.4139 -1.2288
59271SOL    HW286592   1.683   4.206   0.560 -2.3991 -0.6855  1.2448
59272SOL     OW86593  12.348   3.732   5.027  0.2944 -0.0097 -0.1865
59272SOL    HW186594  12.306   3.650   5.050 -2.7707  1.8236  1.3504
59272SOL    HW286595  12.305   3.759   4.945  0.4569  0.6014 -0.0775
59273SOL     OW86596  11.992   2.145   0.352 -0.4282  1.3131  0.3366
59273SOL    HW186597  11.905   2.108   0.338  0.0277  0.8210 -1.4466
59273SOL    HW286598  12.023   2.105   0.434 -0.4682 -1.3173 -0.8651
59274SOL     OW86599   9.828   5.947  11.125  0.4241 -0.0683  0.5265
59274SOL    HW186600   9.907   5.980  11.168  0.2230 -1.4826  2.0646
59274SOL    HW286601   9.861   5.902  11.047  0.9935  0.5883  0.3730
59275SOL     OW86602   5.989   3.005   8.171  0.6679  0.3875 -0.0303
59275SOL    HW186603   5.948   3.071   8.227  1.1973  1.3263 -0.7355
59275SOL    HW286604   5.982   3.040   8.082  2.7457  0.4727 -0.2114
59276SOL     OW86605   6.857  12.552   6.693 -0.4421 -0.0715 -0.2168
59276SOL    HW186606   6.787  12.615   6.707 -1.6346 -1.2125 -0.7616
59276SOL    HW286607   6.920  12.597   6.636  0.6367  1.8834  2.3545
59277SOL     OW86608   5.326   6.187   6.789  0.0516 -0.3215  0.0535
59277SOL    HW186609   5.347   6.094   6.774  0.0584 -0.1823 -0.8954
59277SOL    HW286610   5.408   6.225   6.820  0.5644 -0.2837 -1.2704
59278SOL     OW86611   6.511   2.880   3.696 -0.2838  0.6145 -0.3667
59278SOL    HW186612   6.464   2.797   3.705  1.6159 -0.4198  0.5453
59278SOL    HW286613   6.475   2.935   3.765  0.6348 -0.5900  1.1367
59279SOL     OW86614   2.680   3.606   3.912  0.7220 -0.0214 -0.3293
59279SOL    HW186615   2.649   3.666   3.980  0.3312  0.0030 -0.5268
59279SOL    HW286616   2.667   3.653   3.830  3.0761  0.7796 -0.3312
59280SOL     OW86617   9.819   1.180   7.810 -0.3403 -0.0596 -0.0204
59280SOL    HW186618   9.785   1.260   7.770 -0.6022 -0.2972 -0.2758
59280SOL    HW286619   9.884   1.148   7.747  2.1673  1.6660  1.5158
59281SOL     OW86620   3.153   0.125   1.580  0.0136  0.0847  0.5810
59281SOL    HW186621   3.192   0.211   1.566 -0.4488  0.8162  3.2125
59281SOL    HW286622   3.222   0.073   1.620  0.3423 -0.8964 -1.1427
59282SOL     OW86623   5.029   2.286   2.097  0.6688 -0.3851 -0.4018
59282SOL    HW186624   5.011   2.370   2.054 -2.1090 -0.2597  0.7516
59282SOL    HW286625   5.079   2.236   2.033  0.9449  1.5399 -1.7770
59283SOL     OW86626   1.092   7.635  11.434  0.0921 -0.6204 -0.2651
59283SOL    HW186627   1.069   7.707  11.375 -1.7778  0.7126  1.8914
59283SOL    HW286628   1.166   7.670  11.485 -1.4025  0.3001  1.4252
59284SOL     OW86629   0.722  11.089   3.920 -0.2149 -0.0726 -0.1024
59284SOL    HW186630   0.764  11.111   3.836  0.9263 -2.1883 -0.1607
59284SOL    HW286631   0.735  11.167   3.974  4.7175 -0.7195  0.1632
59285SOL     OW86632   5.545   5.187   5.258 -0.3191  0.1582  0.3081
59285SOL    HW186633   5.462   5.153   5.292 -0.8174  1.6678  0.6690
59285SOL    HW286634   5.539   5.173   5.163 -0.3983 -0.9398  0.4585
59286SOL     OW86635   0.916   7.927   6.232 -0.2235  0.1144 -0.2660
59286SOL    HW186636   0.839   7.873   6.214 -1.8139  1.9195  0.7394
59286SOL    HW286637   0.983   7.864   6.259 -2.1223 -1.3828  1.3356
59287SOL     OW86638  10.941   3.367   3.974 -0.4017  0.2473  0.3622
59287SOL    HW186639  11.030   3.402   3.970  0.2874 -1.4513 -0.1906
59287SOL    HW286640  10.921   3.362   4.068 -0.4808  1.8969  0.4649
59288SOL     OW86641   7.038   1.783   7.893  1.1214  0.2859  0.1442
59288SOL    HW186642   7.096   1.726   7.945  0.5802  0.8284  1.3800
59288SOL    HW286643   7.052   1.870   7.930 -1.6776  0.2119  1.6445
59289SOL     OW86644   6.702   7.237   9.562  0.1619 -0.2681 -0.4175
59289SOL    HW186645   6.725   7.300   9.631 -0.8737 -1.9415  1.5770
59289SOL    HW286646   6.780   7.184   9.550 -0.0630 -0.8154  0.4672
59290SOL     OW86647   2.141   9.912   7.434  0.2899 -0.1487 -0.8459
59290SOL    HW186648   2.122   9.933   7.342  0.6724  1.2385 -0.6262
59290SOL    HW286649   2.162   9.996   7.474 -0.2689 -0.6840  0.6249
59291SOL     OW86650   8.892   3.390   1.048  0.3067 -0.2762  0.1038
59291SOL    HW186651   8.888   3.315   1.107 -0.1448 -1.3251 -1.1951
59291SOL    HW286652   8.985   3.412   1.043  0.3627 -0.2554  1.0818
59292SOL     OW86653   7.439   1.351   3.392  0.4203  0.1759 -0.0985
59292SOL    HW186654   7.400   1.291   3.328  0.8196  2.3581 -2.5758
59292SOL    HW286655   7.389   1.432   3.381  1.8662  1.2354  0.8784
59293SOL     OW86656   8.395   5.934   5.151 -0.0728 -0.5495 -0.1883
59293SOL    HW186657   8.460   5.879   5.195  0.5163  0.6227  0.4609
59293SOL    HW286658   8.325   5.873   5.127  0.1964 -1.4670  1.1920
59294SOL     OW86659   9.640   6.164   2.966 -0.0523  0.0424  0.1443
59294SOL    HW186660   9.647   6.228   3.037 -0.5198  0.7983 -0.4875
59294SOL    HW286661   9.646   6.215   2.886 -0.3699 -0.7112 -0.3704
59295SOL     OW86662   4.402   4.339   1.904  0.3261 -0.3088 -0.2006
59295SOL    HW186663   4.386   4.418   1.853 -0.7165 -1.0984 -1.1491
59295SOL    HW286664   4.481   4.301   1.865 -1.9242 -2.3654 -3.2594
59296SOL     OW86665  10.571   7.511   7.356  0.7146 -0.1774 -0.2870
59296SOL    HW186666  10.636   7.477   7.417  1.7680  0.9701 -0.7276
59296SOL    HW286667  10.594   7.603   7.345 -1.2285  0.3577 -0.1621
59297SOL     OW86668   7.409   7.952   4.495  0.1768 -0.5990  0.0063
59297SOL    HW186669   7.330   7.903   4.519  1.2182 -1.5627  1.6284
59297SOL    HW286670   7.480   7.906   4.539  1.4427  1.2887  0.0269
59298SOL     OW86671   8.127   5.009   9.144  0.5798 -0.6346 -0.1263
59298SOL    HW186672   8.158   4.920   9.156 -1.5356 -1.4102  0.0080
59298SOL    HW286673   8.043   4.999   9.100  0.4967  1.3293 -0.5031
59299SOL     OW86674  10.237   9.706   3.759 -0.1369  0.3072  0.2231
59299SOL    HW186675  10.244   9.644   3.687  0.7377 -1.4893  1.7706
59299SOL    HW286676  10.151   9.688   3.798  0.2089 -0.1214  0.8087
59300SOL     OW86677  11.729  10.414   4.108  0.1783  0.1323 -0.0878
59300SOL    HW186678  11.718  10.348   4.176  0.9019 -3.3238 -2.9900
59300SOL    HW286679  11.812  10.456   4.129  0.6861 -1.2636  0.9002
59301SOL     OW86680  10.766   7.175   7.967 -0.2991 -0.2127  0.3735
59301SOL    HW186681  10.848   7.212   8.000  0.2084 -0.0336 -1.0440
59301SOL    HW286682  10.763   7.087   8.005  1.1036 -0.6319 -0.4103
59302SOL     OW86683   2.549   7.242   3.778 -0.2859 -0.2529 -0.0054
59302SOL    HW186684   2.552   7.147   3.769 -1.1251 -0.2397 -0.5386
59302SOL    HW286685   2.633   7.272   3.746 -0.0463 -0.8059  0.0880
59303SOL     OW86686  10.859   6.304   6.481  1.3702  0.5441  0.1411
59303SOL    HW186687  10.860   6.272   6.390  0.7296  1.0884 -0.0673
59303SOL    HW286688  10.941   6.271   6.519  0.7746 -1.2927 -0.0695
59304SOL     OW86689   8.957   7.037   8.868  0.2165 -0.1840  0.0161
59304SOL    HW186690   8.973   6.993   8.784 -1.0395  1.2794 -1.0557
59304SOL    HW286691   8.865   7.061   8.865  0.6191  1.6456  0.9290
59305SOL     OW86692   4.317   5.256   8.913 -0.1348 -0.4358 -0.3189
59305SOL    HW186693   4.320   5.257   9.008 -1.4615  1.8533 -0.2223
59305SOL    HW286694   4.406   5.276   8.885  0.0318 -0.0426  0.4771
59306SOL     OW86695   5.924   2.538   5.866  0.1056 -0.3451  0.1396
59306SOL    HW186696   6.002   2.512   5.818  0.5733  0.9407  0.1661
59306SOL    HW286697   5.943   2.515   5.957  0.1469 -0.6906  0.0472
59307SOL     OW86698   3.357   1.707   8.882  0.0445  0.2308 -0.0446
59307SOL    HW186699   3.333   1.738   8.794  0.3510 -0.7955 -0.5070
59307SOL    HW286700   3.278   1.719   8.934 -0.0903  1.0148 -0.4117
59308SOL     OW86701   1.932  11.036   9.730  0.2418 -0.4055 -0.3675
59308SOL    HW186702   1.960  10.995   9.811  0.0509  1.9164  0.9602
59308SOL    HW286703   2.013  11.061   9.686  0.3467 -1.7373 -0.9903
59309SOL     OW86704   7.985   2.793  10.910  0.7149  0.2529 -0.3280
59309SOL    HW186705   7.939   2.868  10.948  0.2507 -0.8284  1.4111
59309SOL    HW286706   7.916   2.729  10.892  1.2409 -0.3068 -0.3946
59310SOL     OW86707   4.441   3.064   7.246 -0.1789 -0.3224  0.2970
59310SOL    HW186708   4.381   3.042   7.175 -0.3126 -1.5703  0.7716
59310SOL    HW286709   4.526   3.070   7.204 -0.5697  1.2845 -0.3520
59311SOL     OW86710   6.057  12.054   9.053 -0.1778 -0.2987  0.5338
59311SOL    HW186711   6.065  12.085   9.143  0.6903 -0.3043  0.4676
59311SOL    HW286712   5.963  12.059   9.034 -0.0322  3.1612  0.2163
59312SOL     OW86713   6.119   9.509  11.399 -0.0834  0.0594 -0.0538
59312SOL    HW186714   6.187   9.469  11.452  0.1705 -1.2507 -1.3130
59312SOL    HW286715   6.159   9.521  11.313 -1.3158 -0.4226 -0.7207
59313SOL     OW86716   3.479   7.601  12.395 -1.1423 -0.1091 -0.3555
59313SOL    HW186717   3.520   7.556  12.321 -1.6936 -1.2785  0.0317
59313SOL    HW286718   3.544   7.666  12.421 -0.3624 -0.5940 -1.0027
59314SOL     OW86719   5.435   6.596   8.870 -0.0598 -0.4910 -0.0510
59314SOL    HW186720   5.465   6.683   8.843 -0.6037 -0.6602 -1.2733
59314SOL    HW286721   5.347   6.612   8.905 -0.5139 -0.6489 -1.0880
59315SOL     OW86722  11.493   2.395  10.732  0.2207 -0.1174 -0.0576
59315SOL    HW186723  11.586   2.393  10.710  0.9277 -0.2197  2.6131
59315SOL    HW286724  11.474   2.487  10.748 -0.4503  0.0433 -1.5884
59316SOL     OW86725   6.719   3.208   6.298 -0.1888  0.1213  0.1967
59316SOL    HW186726   6.726   3.265   6.374 -1.1019  0.5429 -0.0274
59316SOL    HW286727   6.805   3.213   6.256  0.2383  0.0883  1.0488
59317SOL     OW86728   4.423   5.689  11.205  0.7290  0.0866 -0.1307
59317SOL    HW186729   4.513   5.658  11.194  0.7496 -0.2359  0.8269
59317SOL    HW286730   4.417   5.767  11.150  0.5700 -1.7599 -2.9544
59318SOL     OW86731   9.938   2.413  12.227  0.5315  0.2428  0.4374
59318SOL    HW186732   9.899   2.325  12.229  0.9306  0.0614  0.2958
59318SOL    HW286733   9.865   2.471  12.249 -0.2412  0.0554 -1.4264
59319SOL     OW86734   6.524   6.091   4.626  0.2319  0.2294 -0.0111
59319SOL    HW186735   6.462   6.038   4.574  0.0766 -0.1755  0.5740
59319SOL    HW286736   6.482   6.176   4.634  0.2002  0.2568 -0.4442
59320SOL     OW86737   2.762   7.276   8.174  0.0265 -0.4109 -0.3267
59320SOL    HW186738   2.796   7.332   8.244  0.5073 -0.1889 -0.7352
59320SOL    HW286739   2.837   7.226   8.144 -0.0064  0.0638 -1.2215
59321SOL     OW86740   2.106   7.124   5.443 -0.0816  0.3493  0.3960
59321SOL    HW186741   2.195   7.100   5.469  0.5122  0.3821 -1.4422
59321SOL    HW286742   2.072   7.175   5.516  1.0754 -0.4176  1.5100
59322SOL     OW86743   4.358   2.178   9.298  0.0746  0.7933  0.2777
59322SOL    HW186744   4.377   2.104   9.356  1.1608  0.4584 -0.4741
59322SOL    HW286745   4.430   2.178   9.235  0.3297  2.7730  0.5250
59323SOL     OW86746   8.365   9.847   5.220 -0.3835 -0.0975  0.4403
59323SOL    HW186747   8.402   9.771   5.176  1.7284  0.4964  1.0619
59323SOL    HW286748   8.303   9.884   5.157  2.2239  0.5022 -1.9904
59324SOL     OW86749   6.526   9.959  10.722  0.3979 -0.5870  0.4364
59324SOL    HW186750   6.431   9.963  10.727  0.3506  1.4310 -0.8721
59324SOL    HW286751   6.548   9.870  10.750 -1.8951 -1.2966  0.1764
59325SOL     OW86752   7.971  12.573  10.021  0.8369 -0.3193 -0.2650
59325SOL    HW186753   7.900  12.617  10.068  1.2155  1.5163 -1.3228
59325SOL    HW286754   8.012  12.642   9.970  0.9076 -2.0812 -2.7371
59326SOL     OW86755  10.466   2.886   8.833 -0.1470 -0.5067 -0.2371
59326SOL    HW186756  10.444   2.962   8.778  1.3616 -1.6722 -2.5890
59326SOL    HW286757  10.398   2.821   8.812 -0.5038 -0.3979  0.5529
59327SOL     OW86758   8.737   6.654   1.292 -0.3599  0.0569  0.0016
59327SOL    HW186759   8.740   6.690   1.380  2.4177 -1.4590  0.6440
59327SOL    HW286760   8.822   6.612   1.280 -1.9496 -2.9722 -2.0370
59328SOL     OW86761   5.622   0.459  10.589  0.3077  0.0313  0.3014
59328SOL    HW186762   5.716   0.474  10.597  0.7611 -0.9609 -2.1814
59328SOL    HW286763   5.615   0.377  10.540 -1.8469  0.2759  0.0914
59329SOL     OW86764   7.586   5.163   1.981 -0.3341  0.4138  0.7852
59329SOL    HW186765   7.492   5.177   1.995 -0.7113 -1.9681  1.0339
59329SOL    HW286766   7.613   5.107   2.053  1.4458  1.4861  1.0099
59330SOL     OW86767   8.124   1.977   6.687 -0.1908 -0.1505 -0.0912
59330SOL    HW186768   8.125   2.070   6.709 -0.4827 -0.3373  0.7995
59330SOL    HW286769   8.084   1.972   6.601 -0.3492  0.5380 -0.0586
59331SOL     OW86770  12.070  10.100   0.918  0.1773 -0.2078 -0.4102
59331SOL    HW186771  12.160  10.128   0.936 -0.1770  0.8016 -0.1187
59331SOL    HW286772  12.068  10.088   0.823 -0.5078  4.3514 -1.2097
59332SOL     OW86773   1.507   2.262   4.247 -0.5206  0.5000 -0.2866
59332SOL    HW186774   1.581   2.289   4.193 -1.3075  2.5547 -0.4422
59332SOL    HW286775   1.547   2.233   4.329  0.4678  2.2461 -0.1030
59333SOL     OW86776   0.144   2.591   9.201 -0.0432  0.3804 -0.0692
59333SOL    HW186777   0.183   2.676   9.179 -2.0272  1.4211  0.1148
59333SOL    HW286778   0.051   2.611   9.214 -0.9894 -2.1821 -2.0493
59334SOL     OW86779   1.248   4.301   8.208 -0.4646 -0.3907  0.4662
59334SOL    HW186780   1.305   4.302   8.132 -1.0523  1.6435 -0.0241
59334SOL    HW286781   1.171   4.351   8.181 -1.4400 -1.0783  1.8560
59335SOL     OW86782   2.617   1.466   4.709  0.2725  0.6373 -0.3881
59335SOL    HW186783   2.523   1.479   4.709  0.3186  1.4759 -2.6542
59335SOL    HW286784   2.648   1.504   4.791 -1.4048 -0.3951  0.7823
59336SOL     OW86785   8.976  11.852  10.783  0.1273 -0.5842  0.0499
59336SOL    HW186786   8.992  11.815  10.870 -0.2131  0.4772  0.5733
59336SOL    HW286787   9.003  11.943  10.790 -1.1809 -0.1262 -0.5689
59337SOL     OW86788   7.939   8.268  11.265  0.1792 -0.2192  0.0471
59337SOL    HW186789   7.996   8.212  11.317  0.5819  0.5521  0.4563
59337SOL    HW286790   7.998   8.332  11.225 -0.6390  2.6977  3.0983
59338SOL     OW86791   6.952  12.185   9.181  0.0254 -0.0999 -0.3075
59338SOL    HW186792   6.908  12.140   9.253 -0.1904  0.0007 -0.3752
59338SOL    HW286793   6.903  12.158   9.103 -0.7919  1.0907 -0.2340
59339SOL     OW86794   9.734   5.504   5.916  0.1317 -0.8765  0.3957
59339SOL    HW186795   9.830   5.506   5.921  0.1191  0.1347  0.3024
59339SOL    HW286796   9.714   5.411   5.901  1.0983 -1.0858  0.2834
59340SOL     OW86797   9.810   3.118   8.233  0.5847 -0.7565  0.1842
59340SOL    HW186798   9.766   3.188   8.281 -0.2213  0.2901 -1.9621
59340SOL    HW286799   9.784   3.038   8.278  0.3455  0.1954  1.8170
59341SOL     OW86800  12.323   0.032   1.926  0.0986  0.4853 -0.6933
59341SOL    HW186801  12.379  -0.007   1.858  1.2908  0.3495  0.3471
59341SOL    HW286802  12.343   0.125   1.923  0.5251  0.4098 -0.1872
59342SOL     OW86803   7.701  12.328   0.580 -0.1800 -0.1345  0.3813
59342SOL    HW186804   7.753  12.252   0.606 -1.6924 -0.6231  2.1590
59342SOL    HW286805   7.766  12.394   0.557  1.1882 -1.8838 -1.1756
59343SOL     OW86806  12.215   7.363   5.475 -0.0491 -0.1721  0.2134
59343SOL    HW186807  12.213   7.269   5.494  0.8730 -0.7264 -2.1349
59343SOL    HW286808  12.296   7.376   5.426 -2.0498  1.0626 -3.0517
59344SOL     OW86809   0.792  12.077  11.552  0.2962  0.4166  0.2120
59344SOL    HW186810   0.809  12.122  11.469 -0.4657  2.2415  0.9877
59344SOL    HW286811   0.723  12.014  11.531  0.9106  0.0515 -0.7680
59345SOL     OW86812   6.635   0.681  12.237 -0.0081 -0.1412  0.3607
59345SOL    HW186813   6.657   0.607  12.293 -1.1384  0.0153  1.0471
59345SOL    HW286814   6.539   0.685  12.238 -0.2325 -1.2275 -3.0085
59346SOL     OW86815   5.344   3.644   3.861  0.2839 -0.0965 -0.3377
59346SOL    HW186816   5.265   3.686   3.828 -0.6010 -0.9693  0.6110
59346SOL    HW286817   5.412   3.713   3.855 -1.0630  1.4222  1.0211
59347SOL     OW86818   7.704   4.148   4.978  0.1219  0.3649 -0.2109
59347SOL    HW186819   7.626   4.102   4.948  1.1718 -1.1255 -0.8244
59347SOL    HW286820   7.700   4.142   5.073  0.5441 -1.6919 -0.2669
59348SOL     OW86821   2.734   1.032   2.989 -0.4210  0.0452  0.2937
59348SOL    HW186822   2.726   0.997   3.077 -2.5856  1.7399  0.8597
59348SOL    HW286823   2.744   0.955   2.933 -1.9227 -1.2808  1.7387
59349SOL     OW86824   3.040   4.683   7.843  0.0665 -0.5307  0.2359
59349SOL    HW186825   3.072   4.713   7.758  0.4439 -0.0666  0.5411
59349SOL    HW286826   2.952   4.650   7.824  0.0611 -0.2310 -0.2989
59350SOL     OW86827   3.393   7.060   5.101 -0.3010 -0.1530 -0.3350
59350SOL    HW186828   3.352   7.143   5.077 -0.5320 -0.1598  0.0206
59350SOL    HW286829   3.402   7.065   5.197 -2.4610 -1.4878  0.0121
59351SOL     OW86830  11.775   2.582   1.159 -0.3151  0.5557  0.0256
59351SOL    HW186831  11.774   2.562   1.065  2.3489 -1.7514  0.3406
59351SOL    HW286832  11.797   2.499   1.201  2.9321  2.3139  2.3041
59352SOL     OW86833   0.160   4.194   3.218  0.0836 -0.0250 -0.0505
59352SOL    HW186834   0.083   4.182   3.162 -0.2826  1.4308  0.1093
59352SOL    HW286835   0.130   4.253   3.287  1.2167  0.1569  0.3008
59353SOL     OW86836   9.439   5.642   2.320  0.1787  0.2110  0.7136
59353SOL    HW186837   9.515   5.651   2.378  0.5133 -1.1003  0.5199
59353SOL    HW286838   9.467   5.580   2.253  0.0790  2.2917 -1.3790
59354SOL     OW86839  10.669   2.253   9.185 -0.0175  0.2164 -0.0329
59354SOL    HW186840  10.755   2.255   9.227 -0.6773  0.4249  1.3704
59354SOL    HW286841  10.607   2.261   9.257 -1.2694 -1.4088 -0.8634
59355SOL     OW86842   0.272   6.573   7.482  0.7022  0.9485 -0.7284
59355SOL    HW186843   0.213   6.644   7.507 -2.2918 -1.7142  0.5928
59355SOL    HW286844   0.268   6.571   7.386 -1.3123  0.9795 -0.6884
59356SOL     OW86845   0.147   6.931   3.224  0.0313 -0.1083  0.5649
59356SOL    HW186846   0.148   7.026   3.238  0.7440  0.0968 -0.7629
59356SOL    HW286847   0.112   6.920   3.136 -2.4244 -1.2456  1.5953
59357SOL     OW86848   8.538  12.474   0.166  0.3284  0.4035 -0.2595
59357SOL    HW186849   8.580  12.395   0.133 -2.3677 -1.6197  0.7420
59357SOL    HW286850   8.491  12.510   0.090 -0.5828 -0.5091 -0.1443
59358SOL     OW86851   4.936   2.422   4.193  0.1206  0.7546  0.0004
59358SOL    HW186852   5.013   2.466   4.157  0.3566  0.0147 -0.4115
59358SOL    HW286853   4.882   2.493   4.228  0.9227  1.2914  0.1675
59359SOL     OW86854   1.522   9.965  10.784  0.2360  0.3036 -0.5920
59359SOL    HW186855   1.531   9.999  10.873  2.3991 -1.2921 -0.1165
59359SOL    HW286856   1.570  10.028  10.730  0.7457  0.1710 -0.3021
59360SOL     OW86857   1.451   3.068   9.676 -0.2347  0.3489 -0.1634
59360SOL    HW186858   1.537   3.083   9.713 -0.7103  1.5639  0.5139
59360SOL    HW286859   1.464   3.070   9.581  0.3872  1.0826 -0.0632
59361SOL     OW86860   4.779   9.393  11.358 -0.0977 -0.4962 -0.7851
59361SOL    HW186861   4.846   9.348  11.306  0.7591  0.3219 -0.4252
59361SOL    HW286862   4.797   9.486  11.345  1.5582 -0.1873  2.6019
59362SOL     OW86863  10.376   6.090   3.327  0.1239  0.4885 -0.1929
59362SOL    HW186864  10.452   6.083   3.270 -0.2708 -0.1833 -0.6494
59362SOL    HW286865  10.336   6.003   3.325  0.1512  0.4238  1.1712
59363SOL     OW86866   8.670   4.584   2.402 -0.4160  0.2459 -0.5890
59363SOL    HW186867   8.703   4.515   2.460  1.3431  2.0056  0.6378
59363SOL    HW286868   8.713   4.566   2.318  1.5966  0.8811  0.2429
59364SOL     OW86869   5.955   5.343   2.449  0.2145  0.1580  0.1023
59364SOL    HW186870   6.021   5.400   2.489  0.8500 -1.7352  1.9457
59364SOL    HW286871   5.872   5.385   2.472  0.6865  1.4601 -0.4459
59365SOL     OW86872  11.642   3.126   4.153 -0.1211 -0.1937 -0.1232
59365SOL    HW186873  11.606   3.199   4.204 -1.4664 -0.1328 -1.1141
59365SOL    HW286874  11.606   3.048   4.194 -0.2085 -0.2090 -0.2301
59366SOL     OW86875   4.661   1.136   0.654  0.4581 -0.3879 -0.4545
59366SOL    HW186876   4.622   1.204   0.601  0.2666  0.0985  0.2966
59366SOL    HW286877   4.686   1.068   0.592 -0.0232  0.0417 -1.1243
59367SOL     OW86878   7.807  12.522  10.779 -0.1395 -0.0858 -0.1984
59367SOL    HW186879   7.730  12.578  10.789 -1.0226 -1.3075  0.1846
59367SOL    HW286880   7.806  12.468  10.859 -0.0688 -1.4984 -1.1251
59368SOL     OW86881   2.226  11.793   5.088  0.4016  1.1350  0.2100
59368SOL    HW186882   2.277  11.829   5.015 -0.1942  1.6878  0.0516
59368SOL    HW286883   2.135  11.805   5.060  0.1579  1.7658  1.2450
59369SOL     OW86884  12.597   2.019   9.351 -0.3335  0.1737  0.2688
59369SOL    HW186885  12.571   2.112   9.351 -0.5153  0.1235  0.2741
59369SOL    HW286886  12.684   2.019   9.391 -0.9781  0.1628  1.7366
59370SOL     OW86887  10.012  10.163   8.260  0.9154 -0.1761 -0.0347
59370SOL    HW186888   9.989  10.074   8.287 -0.2300 -0.1128 -0.7294
59370SOL    HW286889  10.035  10.155   8.167  0.0357  0.3595 -0.3119
59371SOL     OW86890   7.600   2.118   1.790  0.1377 -0.2806  0.2985
59371SOL    HW186891   7.554   2.198   1.817 -3.0293 -2.2641  1.3138
59371SOL    HW286892   7.601   2.122   1.695  1.2393  1.5075  0.3258
59372SOL     OW86893   3.430   7.157   5.867  0.2549 -0.2413 -0.0179
59372SOL    HW186894   3.365   7.210   5.914 -0.7009 -0.2637 -1.2494
59372SOL    HW286895   3.499   7.219   5.844  0.3189 -0.0531  0.6562
59373SOL     OW86896   2.312  11.822   6.496  0.2395 -0.0944  0.5389
59373SOL    HW186897   2.332  11.782   6.580  0.5298 -1.8671 -0.3401
59373SOL    HW286898   2.217  11.831   6.495  0.1742 -0.7703  0.7364
59374SOL     OW86899   4.355   1.353   9.526  0.2516 -0.2147 -0.1827
59374SOL    HW186900   4.260   1.356   9.542  0.2205 -1.5509  0.0491
59374SOL    HW286901   4.365   1.291   9.453  0.9230  0.2466 -0.4937
59375SOL     OW86902   2.539   5.219   2.696 -0.1406  0.6467 -0.2262
59375SOL    HW186903   2.592   5.275   2.639  2.1900  1.2620  2.3305
59375SOL    HW286904   2.564   5.130   2.672  0.7068  0.8947 -0.2878
59376SOL     OW86905  10.273   0.924   5.586  0.0840 -0.5466 -0.0773
59376SOL    HW186906  10.344   0.913   5.649 -1.1166 -0.4441  1.3637
59376SOL    HW286907  10.205   0.863   5.616 -0.8153  0.0663 -0.8179
59377SOL     OW86908  10.308  10.829   5.372 -0.1457 -0.4867  0.4443
59377SOL    HW186909  10.273  10.918   5.377  0.3552 -0.3162  1.1253
59377SOL    HW286910  10.262  10.789   5.299  0.6940  0.7989 -0.8328
59378SOL     OW86911   3.660   0.974   4.571 -0.2691  0.0815 -0.0078
59378SOL    HW186912   3.598   0.980   4.643 -1.1808  0.0984 -0.7638
59378SOL    HW286913   3.629   0.899   4.520  0.5387 -0.1149 -0.2147
59379SOL     OW86914   1.233  10.485   3.242  0.2943  0.4278 -0.0006
59379SOL    HW186915   1.258  10.430   3.316  1.0662  0.5647 -0.1616
59379SOL    HW286916   1.169  10.547   3.279 -0.8709 -0.7994  0.0994
59380SOL     OW86917   0.052   2.855   8.367  0.1315  0.1230  0.5371
59380SOL    HW186918   0.145   2.845   8.346  0.3558 -0.9681  1.8836
59380SOL    HW286919   0.042   2.947   8.390  0.3952  0.7619 -1.6775
59381SOL     OW86920  12.205  10.009   5.197 -0.2961  0.3458 -0.1850
59381SOL    HW186921  12.261   9.935   5.174  1.2200  1.5886 -0.6773
59381SOL    HW286922  12.168  10.038   5.114 -2.0237 -0.6621  0.1714
59382SOL     OW86923   5.316  11.976  12.602  0.9161  0.1218  0.6050
59382SOL    HW186924   5.249  11.917  12.568 -0.9537  0.9547  2.6402
59382SOL    HW286925   5.365  11.923  12.665  1.6032 -0.2219 -0.1987
59383SOL     OW86926  11.714   5.139   1.926  0.3943 -0.1856 -0.0567
59383SOL    HW186927  11.806   5.136   1.902  0.6122 -1.3755  0.8229
59383SOL    HW286928  11.693   5.049   1.953 -1.1088 -0.0163 -0.5446
59384SOL     OW86929   2.622   6.394   6.595 -0.4501  0.5545  0.3011
59384SOL    HW186930   2.684   6.448   6.643 -0.2047  0.5897 -0.0497
59384SOL    HW286931   2.546   6.387   6.653  0.4624 -0.7631  1.3726
59385SOL     OW86932   9.177   5.200   6.227 -0.2343  0.0738 -0.8537
59385SOL    HW186933   9.194   5.280   6.276  2.6686 -0.6067 -0.5769
59385SOL    HW286934   9.094   5.167   6.262 -0.9300  2.3563 -0.2142
59386SOL     OW86935   4.080   0.544   3.080  0.0636 -0.6232 -0.0261
59386SOL    HW186936   4.045   0.455   3.083  0.8611 -0.9357  1.8692
59386SOL    HW286937   4.018   0.593   3.027 -1.7018 -1.7769  0.8838
59387SOL     OW86938   5.756   9.716   8.390 -0.0681 -0.4874 -0.6882
59387SOL    HW186939   5.820   9.769   8.343  0.5108 -0.1934  0.4087
59387SOL    HW286940   5.807   9.641   8.423 -0.4320 -0.6042 -0.3875
59388SOL     OW86941   0.428  12.043  12.563 -0.3313 -0.3262 -0.0139
59388SOL    HW186942   0.415  11.980  12.493 -1.5083 -0.4418  0.2886
59388SOL    HW286943   0.457  12.123  12.519 -0.1800 -0.6669 -0.5351
59389SOL     OW86944   4.267   3.562   6.008 -0.1699 -0.4907 -0.2140
59389SOL    HW186945   4.173   3.581   5.999 -0.0897 -0.0743 -0.1907
59389SOL    HW286946   4.293   3.609   6.087 -0.1279 -1.3154  0.2750
59390SOL     OW86947   5.815   3.982  12.344 -0.4469  0.2979 -0.0073
59390SOL    HW186948   5.831   3.941  12.429 -0.0774  0.9065  0.2232
59390SOL    HW286949   5.762   4.059  12.364 -2.8410 -1.0786 -0.6304
59391SOL     OW86950   8.320   1.210   5.322  0.1858  0.6472  0.2401
59391SOL    HW186951   8.410   1.186   5.346 -0.1224  0.5516  1.3512
59391SOL    HW286952   8.304   1.162   5.240  0.5090 -0.8511  1.0178
59392SOL     OW86953   7.193  11.195   8.362 -0.4757  0.3979  0.5538
59392SOL    HW186954   7.174  11.164   8.450  0.6173 -1.0620  0.2959
59392SOL    HW286955   7.224  11.285   8.374  4.3353 -1.1811  2.2780
59393SOL     OW86956  10.251   0.147  10.688  0.5437 -0.5097 -0.2470
59393SOL    HW186957  10.250   0.223  10.745 -0.6751 -1.2430  0.7763
59393SOL    HW286958  10.342   0.117  10.688  0.8287  0.3492  0.1363
59394SOL     OW86959  11.234   5.280   6.438 -0.0012  0.2540 -0.1814
59394SOL    HW186960  11.268   5.233   6.514 -0.0697  0.1346 -0.2233
59394SOL    HW286961  11.139   5.274   6.448 -0.0114  0.4821 -0.1273
59395SOL     OW86962   5.702   8.720   1.425  0.2953  0.2737 -0.6584
59395SOL    HW186963   5.664   8.805   1.403  1.3196  0.9126 -0.0469
59395SOL    HW286964   5.723   8.727   1.518  1.1756 -0.3449 -0.8006
59396SOL     OW86965   0.848   7.228   2.340 -0.4475  0.9152  0.0992
59396SOL    HW186966   0.923   7.182   2.378  0.8282  1.2045 -1.9419
59396SOL    HW286967   0.822   7.291   2.407 -0.8880 -1.2412  2.1066
59397SOL     OW86968   7.852   8.367   2.095 -0.3800 -0.5081 -0.0989
59397SOL    HW186969   7.845   8.462   2.095 -0.4898 -0.5157 -0.2142
59397SOL    HW286970   7.881   8.345   2.183 -2.9944 -0.5574  0.8427
59398SOL     OW86971   3.104   9.157  10.270 -0.3823 -0.4468  0.3062
59398SOL    HW186972   3.065   9.081  10.228  1.4695 -0.2408 -1.9966
59398SOL    HW286973   3.067   9.232  10.222  2.0801 -0.2223 -1.4353
59399SOL     OW86974   6.463   7.528  11.223 -0.0037 -0.2219 -0.2326
59399SOL    HW186975   6.474   7.607  11.275  0.6060 -0.4892  0.0432
59399SOL    HW286976   6.493   7.552  11.135 -0.8465  0.1701 -0.4212
59400SOL     OW86977   1.995   6.699   7.792  0.5836  0.2953 -0.8139
59400SOL    HW186978   1.985   6.735   7.703  1.7164 -1.3043 -1.6428
59400SOL    HW286979   1.906   6.698   7.827  0.3254  2.5003 -1.2676
59401SOL     OW86980   1.307  10.122   8.413 -0.2854 -0.2604  0.2890
59401SOL    HW186981   1.367  10.048   8.411 -0.9556 -0.8371  1.1037
59401SOL    HW286982   1.325  10.166   8.496  0.0066  0.4163 -0.1211
59402SOL     OW86983   1.433   3.878   9.808  0.1677  0.5063 -0.7147
59402SOL    HW186984   1.503   3.895   9.744 -0.4319  1.7146 -1.0915
59402SOL    HW286985   1.376   3.954   9.800  0.0518  0.6681  1.2510
59403SOL     OW86986   7.271   4.363   8.934 -0.6769  0.2281 -0.2965
59403SOL    HW186987   7.194   4.415   8.910 -0.0418  1.0768 -0.5279
59403SOL    HW286988   7.334   4.426   8.968  0.3254 -0.2990 -1.0976
59404SOL     OW86989   7.408   4.760   8.557 -0.0790  0.2509  0.3019
59404SOL    HW186990   7.315   4.781   8.557  0.1661  1.5566  1.6169
59404SOL    HW286991   7.432   4.756   8.650  1.4304  1.2202 -0.0053
59405SOL     OW86992   5.113   9.387  10.198 -0.8398  0.1236  0.1804
59405SOL    HW186993   5.189   9.352  10.245 -0.8365  0.6348  0.5727
59405SOL    HW286994   5.108   9.478  10.227 -2.7046 -0.3780  1.5793
59406SOL     OW86995   1.409   3.968  11.640 -0.1999  0.5570 -0.2660
59406SOL    HW186996   1.458   3.886  11.632 -0.3042  0.4041  0.5976
59406SOL    HW286997   1.400   4.000  11.550  1.7947  0.7792 -0.4204
59407SOL     OW86998   9.104   6.989   9.092 -0.4089 -0.4113  0.0064
59407SOL    HW186999   9.066   7.026   9.012 -0.2638 -1.3437 -0.5185
59407SOL    HW287000   9.055   6.907   9.106 -0.9806  0.1359  1.3448
59408SOL     OW87001   1.441  11.498   2.165  0.8910 -0.6010 -0.4678
59408SOL    HW187002   1.366  11.474   2.110  0.4639  0.3329 -0.3067
59408SOL    HW287003   1.403  11.538   2.243  1.5411 -0.6788 -0.1004
59409SOL     OW87004   6.897  10.117   6.300  0.1845 -0.2435  0.1324
59409SOL    HW187005   6.814  10.097   6.257  0.4908 -1.0566 -0.1011
59409SOL    HW287006   6.950  10.159   6.231  0.5284 -1.1737 -0.1810
59410SOL     OW87007   6.971   6.779   3.310  0.8721  0.8780  0.2477
59410SOL    HW187008   6.978   6.872   3.290  0.6010  0.8780  0.1561
59410SOL    HW287009   6.957   6.738   3.225  1.9457  0.6573  0.1610
59411SOL     OW87010   8.934   7.056   1.082  0.2136  0.2768  0.2838
59411SOL    HW187011   8.944   7.013   1.167 -0.4852 -0.1662  0.1536
59411SOL    HW287012   8.865   7.121   1.096  0.3049  0.4067  0.1301
59412SOL     OW87013   5.966   1.178   7.680 -0.0016 -0.1829  0.0798
59412SOL    HW187014   6.045   1.207   7.725  0.3167 -1.0531  0.0950
59412SOL    HW287015   5.905   1.157   7.750  1.4257 -4.2921  0.3804
59413SOL     OW87016  11.992   8.000   9.758  0.1772 -0.2026 -0.3474
59413SOL    HW187017  12.070   7.962   9.799  0.2884 -0.5056 -0.8383
59413SOL    HW287018  11.943   8.038   9.831  0.8952  0.1920 -0.0616
59414SOL     OW87019   4.269   6.630   6.073 -0.6279  0.0188 -0.7423
59414SOL    HW187020   4.345   6.604   6.020  0.5410  2.5855 -0.4750
59414SOL    HW287021   4.299   6.623   6.163 -2.3863 -3.6270 -0.2272
59415SOL     OW87022  11.857   1.764   5.514  0.4258  0.0762 -0.5662
59415SOL    HW187023  11.892   1.810   5.591 -3.3613  1.4456  0.5799
59415SOL    HW287024  11.785   1.711   5.549 -0.1410 -0.8370 -2.9493
59416SOL     OW87025   8.292   7.807  10.618 -0.3917  0.0028 -0.4346
59416SOL    HW187026   8.331   7.720  10.613  0.4739  0.3631 -0.0667
59416SOL    HW287027   8.197   7.791  10.615 -0.2535 -0.9921  0.2163
59417SOL     OW87028   2.154   4.306   6.414  0.6195 -0.5152 -0.1651
59417SOL    HW187029   2.204   4.305   6.332 -1.2201 -0.2134 -1.3490
59417SOL    HW287030   2.188   4.232   6.463  0.9643 -1.4388 -1.7169
59418SOL     OW87031  10.544   9.085   3.690 -0.3097  0.0817 -0.4989
59418SOL    HW187032  10.620   9.136   3.664  1.1572 -2.1165 -0.7653
59418SOL    HW287033  10.538   9.016   3.625 -1.7484 -0.5709  0.2717
59419SOL     OW87034   1.674  12.482   7.941 -0.2486  0.4066 -0.0071
59419SOL    HW187035   1.743  12.434   7.895 -0.0317  0.2956  0.4294
59419SOL    HW287036   1.634  12.418   7.999 -0.9486  0.3898 -0.5063
59420SOL     OW87037   4.880   3.591   6.368  0.2049  0.9322  0.3050
59420SOL    HW187038   4.798   3.562   6.408  0.2254  2.0611  1.2085
59420SOL    HW287039   4.922   3.510   6.340  0.2263  0.0375  2.6939
59421SOL     OW87040   6.636   4.405  10.605  0.0365 -0.5776 -0.6267
59421SOL    HW187041   6.687   4.327  10.584  1.0347 -0.2566  0.4612
59421SOL    HW287042   6.650   4.418  10.699 -0.4639  0.6472 -0.7015
59422SOL     OW87043   4.715   0.102   3.668 -0.9181  0.2542 -0.0318
59422SOL    HW187044   4.695   0.043   3.596 -1.2311 -1.3775  1.3261
59422SOL    HW287045   4.634   0.108   3.718 -0.5239  0.8151  0.5592
59423SOL     OW87046   1.919  11.515   3.526 -0.1916  0.1503 -0.1256
59423SOL    HW187047   1.949  11.574   3.457 -0.2420  0.4888  0.1426
59423SOL    HW287048   1.999  11.490   3.573  0.2500 -2.1175 -1.8531
59424SOL     OW87049   3.455   8.049   3.355  0.4232 -0.2949 -0.1435
59424SOL    HW187050   3.539   8.059   3.400 -0.2810 -0.3956  1.2297
59424SOL    HW287051   3.443   8.132   3.308  0.7383  0.1881  0.6179
59425SOL     OW87052   2.714   5.182   8.934 -0.4418 -0.4791 -0.2819
59425SOL    HW187053   2.656   5.257   8.947  1.9223  1.3719  0.2379
59425SOL    HW287054   2.738   5.153   9.022  1.1948  0.3025 -0.4263
59426SOL     OW87055  11.119   3.354   6.278 -0.2030 -0.1721  0.1701
59426SOL    HW187056  11.039   3.319   6.238  1.5756 -1.9917 -2.0671
59426SOL    HW287057  11.161   3.278   6.318  1.6078  0.1706 -0.9553
59427SOL     OW87058   9.853   6.365   8.783 -0.6553 -0.0213  0.1912
59427SOL    HW187059   9.847   6.398   8.873 -1.6351  2.2411 -0.6324
59427SOL    HW287060   9.777   6.309   8.774 -1.7108  1.3396  0.2226
59428SOL     OW87061   4.297   4.955   8.718 -0.1749  0.5538 -0.1581
59428SOL    HW187062   4.387   4.989   8.718  0.4513 -0.9763 -1.1262
59428SOL    HW287063   4.296   4.892   8.790 -0.7477  1.2019  0.4090
59429SOL     OW87064   3.433   7.437   7.581 -0.3455 -0.4234  0.5777
59429SOL    HW187065   3.489   7.463   7.508  0.0377 -1.9854  0.2661
59429SOL    HW287066   3.494   7.418   7.652 -0.5176 -1.3146  0.5008
59430SOL     OW87067   1.171   8.638   2.035 -0.2854  0.1802 -0.1977
59430SOL    HW187068   1.214   8.679   1.960  0.4167 -0.2227 -0.0220
59430SOL    HW287069   1.120   8.567   1.997  0.5507 -0.4062 -0.2412
59431SOL     OW87070   0.005   0.513   8.582 -0.5564 -0.0812  0.0132
59431SOL    HW187071   0.079   0.452   8.593 -0.6572 -0.3182 -0.5761
59431SOL    HW287072   0.046   0.595   8.553 -0.4412  0.0596  0.5755
59432SOL     OW87073   9.436   5.977   2.944  0.3791  0.4084 -0.3641
59432SOL    HW187074   9.442   5.895   2.992  1.5536 -0.0934 -1.3080
59432SOL    HW287075   9.520   6.020   2.959 -0.1607  1.3706 -0.0115
59433SOL     OW87076   2.221  12.231   7.723  0.6338 -0.4308 -0.0855
59433SOL    HW187077   2.216  12.326   7.718  1.8762 -0.2935  0.6746
59433SOL    HW287078   2.130  12.202   7.731  0.2681  0.7268  0.1490
59434SOL     OW87079   1.779   3.553   6.664  0.3549  0.2397 -0.3844
59434SOL    HW187080   1.836   3.518   6.596 -0.8792  0.1917 -1.4385
59434SOL    HW287081   1.694   3.512   6.648 -0.0604  0.5131  0.9663
59435SOL     OW87082   1.948  11.773   3.728  0.0553  0.0822 -0.7039
59435SOL    HW187083   1.910  11.845   3.679 -0.0766  1.6403  1.5363
59435SOL    HW287084   1.949  11.700   3.666 -0.5737  1.7476 -2.8027
59436SOL     OW87085  10.758   3.516   9.077  0.1184  0.5116  0.1696
59436SOL    HW187086  10.800   3.544   9.159  0.2073  1.1816 -0.0985
59436SOL    HW287087  10.822   3.537   9.009  0.6189 -1.3136  0.0377
59437SOL     OW87088   6.948  10.299   5.401  0.2266 -0.5062 -0.0027
59437SOL    HW187089   6.892  10.226   5.426 -0.3720 -0.3077 -0.7337
59437SOL    HW287090   7.032  10.279   5.442  0.7702 -2.7815 -1.9846
59438SOL     OW87091   2.523   9.266   3.835  0.2289  0.7947 -0.1067
59438SOL    HW187092   2.499   9.292   3.746  0.9752  1.4540 -0.1271
59438SOL    HW287093   2.612   9.231   3.826  0.3826  1.0487  0.4043
59439SOL     OW87094   3.477   1.407   0.454  0.0475 -0.1720  0.0612
59439SOL    HW187095   3.503   1.481   0.399  0.1661 -0.1380  0.1618
59439SOL    HW287096   3.549   1.345   0.447 -0.3003 -0.5202 -0.4596
59440SOL     OW87097   7.232   9.080   2.814 -0.1011  0.2928  0.6526
59440SOL    HW187098   7.187   9.009   2.859 -1.4402  0.2064 -0.7589
59440SOL    HW287099   7.239   9.050   2.723  1.5807  0.9179  0.5366
59441SOL     OW87100  11.160  12.231   6.011  0.1252 -0.4978 -0.2760
59441SOL    HW187101  11.073  12.269   6.004 -0.9838 -2.5327  1.2734
59441SOL    HW287102  11.216  12.289   5.960 -2.2198  0.5528 -1.8364
59442SOL     OW87103   1.869   6.114   7.724  0.0116  0.3937  0.0299
59442SOL    HW187104   1.860   6.020   7.707 -0.5258  0.1166  1.7115
59442SOL    HW287105   1.921   6.146   7.650 -1.3875 -0.8635 -1.5861
59443SOL     OW87106   7.358   2.566   5.304 -0.4545  0.1170 -0.0428
59443SOL    HW187107   7.350   2.654   5.268 -0.5012  0.2448  0.2791
59443SOL    HW287108   7.452   2.553   5.318 -0.4928  0.3382  0.4532
59444SOL     OW87109   6.307  10.763  12.241  0.2024 -0.1511 -0.3126
59444SOL    HW187110   6.316  10.808  12.157  2.0662 -0.1276 -0.1540
59444SOL    HW287111   6.353  10.819  12.303 -2.5768  0.7179  1.1462
59445SOL     OW87112   5.476   4.742  10.540 -0.0814  0.7492  0.4367
59445SOL    HW187113   5.556   4.694  10.519  0.1717  1.0048  0.7985
59445SOL    HW287114   5.410   4.705  10.482  0.4160  0.8948 -0.2400
59446SOL     OW87115  11.209   4.334   2.476 -0.2802  0.3311 -0.5150
59446SOL    HW187116  11.267   4.259   2.490 -1.2954 -0.2238  0.8748
59446SOL    HW287117  11.232   4.366   2.388  1.3221 -0.5654 -0.4566
59447SOL     OW87118   9.195   5.050   9.776 -0.4265 -0.3267 -0.3250
59447SOL    HW187119   9.254   5.048   9.851 -0.4657  0.3241 -0.2750
59447SOL    HW287120   9.164   4.960   9.768  0.3318 -0.6161 -0.1608
59448SOL     OW87121   3.662   9.357  12.284 -0.4793 -0.9595 -0.2964
59448SOL    HW187122   3.618   9.333  12.366 -0.3532 -1.4141 -0.3569
59448SOL    HW287123   3.743   9.305  12.285  1.3823  1.7266  1.0404
59449SOL     OW87124  11.025   1.831   4.908  0.2229 -0.3611  0.2179
59449SOL    HW187125  10.984   1.853   4.992 -0.2266  0.0267 -0.0956
59449SOL    HW287126  11.112   1.871   4.913  1.2438 -2.5913  1.5523
59450SOL     OW87127   1.956   9.597  10.934  0.4884 -0.6580 -0.0358
59450SOL    HW187128   2.037   9.636  10.966  0.0513 -0.7211  1.2376
59450SOL    HW287129   1.963   9.599  10.839  1.3960  0.5716  0.0348
59451SOL     OW87130  10.459   9.722   5.293 -0.1262 -0.2385  0.2575
59451SOL    HW187131  10.531   9.711   5.355  1.0581 -1.2587 -1.2302
59451SOL    HW287132  10.482   9.666   5.219 -2.3341 -0.3769 -0.3933
59452SOL     OW87133   2.329   5.900   3.435  0.6394 -0.1871 -0.2498
59452SOL    HW187134   2.308   5.942   3.352 -0.0893  0.6535  0.3507
59452SOL    HW287135   2.256   5.841   3.452 -0.3594  1.3066  0.8830
59453SOL     OW87136   1.602   3.325   2.152 -0.0431  0.1363 -0.1090
59453SOL    HW187137   1.607   3.237   2.113  0.8231 -0.1148  0.5305
59453SOL    HW287138   1.536   3.370   2.100  1.1556 -0.1415 -1.9963
59454SOL     OW87139   9.428  10.620   4.449 -0.6392  0.1731  0.1233
59454SOL    HW187140   9.454  10.703   4.488  2.1212 -0.8210  0.6640
59454SOL    HW287141   9.485  10.612   4.372  0.6603 -2.0496  1.2112
59455SOL     OW87142   8.361   5.376  10.604  0.9125 -0.0494  0.2012
59455SOL    HW187143   8.330   5.466  10.604 -0.1159 -0.3874  0.0992
59455SOL    HW287144   8.283   5.324  10.585  1.9518 -0.8292 -2.2809
59456SOL     OW87145  11.034   3.191  10.606 -0.3674  0.6715 -0.2393
59456SOL    HW187146  11.066   3.101  10.610 -1.4521  0.2403 -0.9031
59456SOL    HW287147  11.035   3.221  10.697  1.6226  0.5935 -0.2035
59457SOL     OW87148   3.466  10.787   8.705  0.0155  0.1395  0.4681
59457SOL    HW187149   3.442  10.736   8.783 -0.0634  0.6941  0.8118
59457SOL    HW287150   3.395  10.771   8.643  0.5749 -1.1137  0.1172
59458SOL     OW87151   7.345   9.306   0.662 -0.1765  0.5175  0.3692
59458SOL    HW187152   7.328   9.227   0.714 -0.5063  0.4456  0.1592
59458SOL    HW287153   7.282   9.370   0.695  0.7562  1.0145  1.2218
59459SOL     OW87154   9.100   3.537   8.022 -0.3188  0.1511 -0.1114
59459SOL    HW187155   9.172   3.600   8.017  1.0259 -1.1708  1.2446
59459SOL    HW287156   9.138   3.455   7.991 -1.0069 -0.7440  1.2825
59460SOL     OW87157   3.658  11.249   2.036 -0.0281 -0.1547 -0.1744
59460SOL    HW187158   3.722  11.264   2.106  2.2157  0.5301 -2.2431
59460SOL    HW287159   3.661  11.328   1.983 -1.0527 -0.9887 -1.5279
59461SOL     OW87160   4.922   3.365  10.744  0.0984 -0.6790  0.3207
59461SOL    HW187161   4.917   3.348  10.838 -0.6780 -0.6293  0.2923
59461SOL    HW287162   4.925   3.461  10.737 -2.6525 -0.5028  0.2203
59462SOL     OW87163   8.014   4.650  10.316  0.2314 -0.0843 -0.1233
59462SOL    HW187164   8.049   4.671  10.403  0.6422  1.3306 -0.6081
59462SOL    HW287165   8.092   4.636  10.262 -0.0227 -0.8900 -0.3034
59463SOL     OW87166   6.735   2.386  11.126 -0.8182  0.1251  0.0134
59463SOL    HW187167   6.827   2.360  11.128 -0.8963 -0.1143  1.1080
59463SOL    HW287168   6.695   2.336  11.198 -1.7740  0.3202 -0.3757
59464SOL     OW87169   0.728   4.687   7.009  0.2890  0.1527 -0.0501
59464SOL    HW187170   0.709   4.594   6.998  2.3334 -0.1439 -1.6893
59464SOL    HW287171   0.648   4.731   6.981  0.0348 -1.0898 -1.4342
59465SOL     OW87172   8.284  11.255   4.576  0.3343  0.4677  0.2857
59465SOL    HW187173   8.297  11.298   4.661  0.5077  0.9180  0.0339
59465SOL    HW287174   8.294  11.162   4.595 -0.4779  0.4945  0.9196
59466SOL     OW87175   6.777   0.535   8.751  0.4459  0.3954  0.1688
59466SOL    HW187176   6.698   0.586   8.768 -0.8325 -1.2841 -0.4703
59466SOL    HW287177   6.747   0.461   8.698  1.8197 -2.1638  2.6822
59467SOL     OW87178   6.645   1.875   9.059 -0.7518 -0.1882 -0.3440
59467SOL    HW187179   6.678   1.935   9.126  1.1401 -1.4023 -0.1053
59467SOL    HW287180   6.593   1.811   9.108 -1.4873  0.3579 -0.3969
59468SOL     OW87181   9.512   0.423   2.710  0.2216 -0.1559 -0.0087
59468SOL    HW187182   9.564   0.472   2.774  2.5524  0.0542 -1.9178
59468SOL    HW287183   9.563   0.428   2.629 -3.4543  1.1967 -2.4751
59469SOL     OW87184   6.363   2.912  10.945 -0.3446 -0.2593  0.1683
59469SOL    HW187185   6.456   2.923  10.928 -0.5171 -0.9069 -1.3099
59469SOL    HW287186   6.335   2.997  10.979  0.3031  0.7837 -1.7511
59470SOL     OW87187   4.654   5.359  11.586 -0.0926 -0.4580  0.2136
59470SOL    HW187188   4.613   5.273  11.595  0.5047 -0.8742 -0.8645
59470SOL    HW287189   4.678   5.384  11.675 -0.9073 -1.0899  0.6180
59471SOL     OW87190   0.097   5.002   9.514  0.3163  0.3390 -0.1657
59471SOL    HW187191   0.082   4.945   9.439  1.0313  1.3833 -1.1446
59471SOL    HW287192   0.010   5.029   9.542  0.0046 -0.7229 -0.0603
59472SOL     OW87193   6.459  11.363   2.043 -0.0960  0.1145  0.1104
59472SOL    HW187194   6.504  11.359   1.959  0.2006  2.4022  0.1003
59472SOL    HW287195   6.524  11.334   2.107  0.1598 -0.1934 -0.2841
59473SOL     OW87196  10.707   0.913   3.959 -0.1337  0.0532 -0.0871
59473SOL    HW187197  10.632   0.972   3.959 -0.0006  0.2300  0.2577
59473SOL    HW287198  10.768   0.951   3.896  0.3595  0.8339  0.8231
59474SOL     OW87199   8.038  10.953   4.547  0.0244  0.0342 -0.4301
59474SOL    HW187200   8.123  10.943   4.590  0.8127  1.0775 -1.6654
59474SOL    HW287201   7.988  10.875   4.572  1.9316 -1.4207 -0.9747
59475SOL     OW87202   4.223   2.859  11.619  0.0936  0.5641  0.1391
59475SOL    HW187203   4.267   2.939  11.648  0.7664 -0.3370  1.7084
59475SOL    HW287204   4.252   2.848  11.528 -1.6742  3.2025 -0.8646
59476SOL     OW87205  12.140  11.878   8.335  0.5058 -0.0718  0.0868
59476SOL    HW187206  12.182  11.961   8.314  0.6959 -0.1377  0.2124
59476SOL    HW287207  12.171  11.818   8.268 -0.6961  0.2864 -0.8424
59477SOL     OW87208   5.241  11.198   6.729 -0.0938 -0.0805 -0.3120
59477SOL    HW187209   5.182  11.273   6.715 -1.0163 -1.1390 -2.6352
59477SOL    HW287210   5.195  11.144   6.793  0.1362  0.8506  0.6759
59478SOL     OW87211   8.381   2.693   1.746 -0.1977 -0.0437  0.4719
59478SOL    HW187212   8.456   2.658   1.699  0.0983 -1.0860  1.6638
59478SOL    HW287213   8.418   2.740   1.820 -0.6874  0.4610  0.4057
59479SOL     OW87214   3.537   2.009   4.552 -0.3420 -0.2527  0.1898
59479SOL    HW187215   3.614   1.977   4.598 -0.8850  1.3709  2.3857
59479SOL    HW287216   3.509   1.935   4.497  2.6147 -0.9241 -0.5519
59480SOL     OW87217   6.327   0.531  11.904 -0.6830  0.6528  0.0347
59480SOL    HW187218   6.276   0.450  11.907 -0.6703  0.6684  2.0019
59480SOL    HW287219   6.415   0.505  11.934 -0.5256  1.2739  0.1241
59481SOL     OW87220  12.111   9.259   3.624 -0.5903 -0.3343 -0.1139
59481SOL    HW187221  12.067   9.293   3.702 -1.2263 -1.5689  0.0933
59481SOL    HW287222  12.204   9.254   3.649 -0.6927 -0.0631  0.3265
59482SOL     OW87223   4.841   5.983   9.692  0.6823 -0.4042 -0.2230
59482SOL    HW187224   4.779   5.978   9.619  0.0409 -3.7437  0.4070
59482SOL    HW287225   4.790   6.017   9.765  0.2677 -0.7520 -0.3502
59483SOL     OW87226  10.498   2.032   9.672  0.5831 -0.1333 -0.3764
59483SOL    HW187227  10.581   2.026   9.624  1.0776 -1.7725  0.5990
59483SOL    HW287228  10.506   1.965   9.740 -0.5501  1.3489  1.2748
59484SOL     OW87229   0.715   8.965   0.194  0.4980  0.0487  0.0813
59484SOL    HW187230   0.724   9.018   0.273  0.0686 -0.8557  0.7629
59484SOL    HW287231   0.624   8.979   0.166 -0.7213 -2.7546  2.1459
59485SOL     OW87232   3.030   9.291   4.731  0.5737 -0.1333 -0.1021
59485SOL    HW187233   3.019   9.345   4.809  1.1023  0.0053 -0.1233
59485SOL    HW287234   2.953   9.234   4.730 -0.1042  0.7666 -0.1958
59486SOL     OW87235   0.361  12.198   0.987  0.2303  0.0611  0.5333
59486SOL    HW187236   0.297  12.128   0.979 -2.0392  2.0996 -0.4897
59486SOL    HW287237   0.392  12.192   1.078  0.6821 -2.6478  0.2630
59487SOL     OW87238   3.650  11.499   4.077 -0.5499 -0.1667 -0.2357
59487SOL    HW187239   3.565  11.457   4.092 -0.4765 -1.0137 -1.9532
59487SOL    HW287240   3.704  11.430   4.040  0.2832  0.8796 -1.0081
59488SOL     OW87241   7.006   6.951   5.478 -0.6301  0.1907 -0.0806
59488SOL    HW187242   7.099   6.935   5.467 -0.4164 -0.0396  1.7428
59488SOL    HW287243   6.981   7.002   5.401  1.1060  0.6919 -0.3520
59489SOL     OW87244   8.048   6.536   8.022  0.1537 -0.0753 -0.0600
59489SOL    HW187245   8.015   6.624   8.043  0.0182 -0.4187  1.2268
59489SOL    HW287246   7.995   6.477   8.074  1.1072 -0.8334  0.0833
59490SOL     OW87247   0.269   7.022   1.067 -0.1309  0.0625  0.3669
59490SOL    HW187248   0.225   6.953   1.117 -0.5043  0.4316  0.5457
59490SOL    HW287249   0.198   7.068   1.021  0.0897  0.4987  0.4600
59491SOL     OW87250   6.857   4.540   3.087  1.1348  0.5027  0.2892
59491SOL    HW187251   6.763   4.525   3.101  1.4128 -2.7860 -0.5656
59491SOL    HW287252   6.862   4.632   3.058 -1.8460  0.6966  0.0582
59492SOL     OW87253  11.886  12.172   0.754 -0.5276 -0.8615 -0.4354
59492SOL    HW187254  11.890  12.190   0.848  0.4336 -0.2435 -0.5754
59492SOL    HW287255  11.815  12.109   0.745 -2.5737  1.1706  0.3648
59493SOL     OW87256   6.651  10.797  10.377  0.2732 -0.9087  0.2311
59493SOL    HW187257   6.687  10.869  10.428  0.1786 -0.9934  0.4163
59493SOL    HW287258   6.612  10.839  10.300  1.4413 -0.8719 -0.3618
59494SOL     OW87259  11.286   9.038   3.351  0.4342  0.4434 -0.0203
59494SOL    HW187260  11.226   9.002   3.416 -2.1669  1.3663 -1.7719
59494SOL    HW287261  11.260   8.998   3.269  1.6937  1.5235 -0.9916
59495SOL     OW87262   4.662   8.441   1.922 -0.0815 -0.5254 -0.0772
59495SOL    HW187263   4.745   8.455   1.876  0.0272 -0.8548  0.0180
59495SOL    HW287264   4.687   8.405   2.007 -0.1898  1.3636  0.8155
59496SOL     OW87265   3.295   1.458   5.888 -0.7300  0.6144 -0.4107
59496SOL    HW187266   3.343   1.404   5.825 -2.5599 -1.9406  0.1797
59496SOL    HW287267   3.243   1.518   5.834 -0.1718  0.4034 -1.2014
59497SOL     OW87268   0.641   5.065   1.933  0.0105  0.0469  0.0068
59497SOL    HW187269   0.620   5.013   1.856  0.1498  0.1707 -0.1165
59497SOL    HW287270   0.699   5.134   1.900  1.8981 -1.1766  0.5729
59498SOL     OW87271   4.416   5.927   4.071 -0.0263 -0.1157  0.2413
59498SOL    HW187272   4.359   5.874   4.126 -1.2822  0.0916 -0.8002
59498SOL    HW287273   4.505   5.904   4.098 -0.5510 -2.1328  0.3956
59499SOL     OW87274   7.818   9.441  12.524  0.2030 -0.9429  0.4695
59499SOL    HW187275   7.912   9.437  12.506 -0.0780 -1.2636 -1.1484
59499SOL    HW287276   7.811   9.461  12.617  1.8889  1.3036  0.2043
59500SOL     OW87277   3.790   8.222   8.318 -0.5508 -0.0686 -0.0932
59500SOL    HW187278   3.875   8.223   8.363 -0.9684  0.5957  0.7030
59500SOL    HW287279   3.726   8.239   8.387 -1.3395 -0.5155 -0.6916
59501SOL     OW87280   5.480   0.932  12.151  0.5764 -0.0171  0.5090
59501SOL    HW187281   5.385   0.935  12.152  0.6010  1.5989  1.2756
59501SOL    HW287282   5.507   0.970  12.234  1.9037 -1.1402  0.6416
59502SOL     OW87283   2.717   5.586   4.305  0.1185  0.2280 -0.2694
59502SOL    HW187284   2.712   5.658   4.242  1.1350  0.9292  0.4380
59502SOL    HW287285   2.756   5.514   4.255  1.1340  0.8489 -0.4046
59503SOL     OW87286   3.307   7.499  10.395  0.2262 -0.4502  0.1229
59503SOL    HW187287   3.301   7.457  10.309 -1.8853  2.7055 -1.4471
59503SOL    HW287288   3.217   7.499  10.428  0.6275  0.4011  1.2667
59504SOL     OW87289   3.269   3.973  10.035 -0.0168  0.3739  0.2894
59504SOL    HW187290   3.252   4.036  10.104  0.3486  0.9978 -0.1757
59504SOL    HW287291   3.364   3.977  10.022 -0.0076 -0.1620  0.1491
59505SOL     OW87292   2.068   4.350   5.605 -0.2829 -0.1613  0.3271
59505SOL    HW187293   2.052   4.430   5.655  0.1235  0.9232 -1.1851
59505SOL    HW287294   2.039   4.371   5.516 -1.1071 -2.0560  0.1021
59506SOL     OW87295   9.307   0.838   5.252 -0.2256  0.2463 -0.8208
59506SOL    HW187296   9.244   0.894   5.207 -1.5913 -0.4363  0.1545
59506SOL    HW287297   9.261   0.755   5.263  1.2298 -0.6013 -0.9592
59507SOL     OW87298   8.546   0.965  11.047  0.0434 -0.3325  0.3791
59507SOL    HW187299   8.465   0.914  11.055  0.4228 -1.0483 -0.2859
59507SOL    HW287300   8.616   0.905  11.073  0.4753 -0.0983 -0.2223
59508SOL     OW87301   3.519   9.786   6.854 -0.0965  0.5499  0.6126
59508SOL    HW187302   3.519   9.798   6.759  0.2808 -0.3270  0.4953
59508SOL    HW287303   3.500   9.873   6.889 -1.8187  0.5670 -0.2908
59509SOL     OW87304   0.069   9.498  10.829 -0.0236  0.2950  0.1245
59509SOL    HW187305   0.004   9.511  10.898 -1.1852 -3.4087 -0.0961
59509SOL    HW287306   0.108   9.413  10.847  1.7204  0.5005 -2.1847
59510SOL     OW87307   6.515   1.500   2.147 -0.2117  0.7451  0.3098
59510SOL    HW187308   6.544   1.445   2.074 -0.5735  1.7582 -0.6232
59510SOL    HW287309   6.420   1.488   2.150 -0.5004  2.3341 -0.8191
59511SOL     OW87310   3.215   7.133   6.837  0.4451 -0.2793 -0.0160
59511SOL    HW187311   3.292   7.077   6.830  0.2889 -0.3133 -2.3181
59511SOL    HW287312   3.143   7.072   6.855  0.5736 -0.5990 -0.5467
59512SOL     OW87313   3.994   5.615   2.127 -0.0253 -0.3720 -0.2280
59512SOL    HW187314   3.995   5.521   2.148 -0.2530 -0.1637  0.7690
59512SOL    HW287315   3.951   5.656   2.202 -1.3619  0.3756 -1.3429
59513SOL     OW87316   7.564   1.161   3.841  0.4036  0.6637 -0.0769
59513SOL    HW187317   7.638   1.215   3.814  0.6243  0.2734 -0.2720
59513SOL    HW287318   7.491   1.222   3.848  0.6943  1.0173 -0.0934
59514SOL     OW87319   4.780   5.884  12.232  0.5330  0.0698 -0.2026
59514SOL    HW187320   4.693   5.874  12.271  0.4867 -0.8204 -0.5135
59514SOL    HW287321   4.839   5.890  12.308  0.1341  1.5334  0.0199
59515SOL     OW87322   6.072   1.483   4.953  0.5781 -0.3104  0.4649
59515SOL    HW187323   6.133   1.545   4.914  1.9474 -2.1469 -0.4604
59515SOL    HW287324   6.126   1.408   4.977 -0.9449 -0.9954  1.9440
59516SOL     OW87325   8.030   2.188   4.090 -0.3275  0.2627  0.5794
59516SOL    HW187326   7.968   2.121   4.118  0.6866 -0.5228  1.0259
59516SOL    HW287327   8.055   2.233   4.171  0.6030 -0.2472  0.5907
59517SOL     OW87328   6.689   6.168   2.014 -0.1402  0.3476  0.1886
59517SOL    HW187329   6.739   6.090   2.036  0.0129  0.3725 -0.0782
59517SOL    HW287330   6.716   6.191   1.925  1.0762  1.6802  0.8565
59518SOL     OW87331   1.662   6.718   8.370 -0.3371 -0.5959  0.3545
59518SOL    HW187332   1.658   6.635   8.417  2.8096 -0.8511  0.3934
59518SOL    HW287333   1.704   6.696   8.287 -0.2006  0.8277  0.0154
59519SOL     OW87334   8.185   8.724  11.618 -0.2352 -0.8376 -0.5247
59519SOL    HW187335   8.276   8.694  11.613 -0.3671 -1.3004 -0.1950
59519SOL    HW287336   8.186   8.796  11.680  0.4623  1.3064 -2.8496
59520SOL     OW87337  10.275   0.536   4.561  0.3253  0.2446 -0.2108
59520SOL    HW187338  10.342   0.499   4.503  0.3244  1.8686 -1.2780
59520SOL    HW287339  10.284   0.631   4.552 -1.8497  0.5107 -0.0388
59521SOL     OW87340  10.462   3.961   2.881  0.3543  0.3870 -0.5368
59521SOL    HW187341  10.462   3.866   2.892  0.3369  0.5316  0.9190
59521SOL    HW287342  10.554   3.983   2.863  0.9765  0.3493  2.1573
59522SOL     OW87343  10.040   2.928  10.206 -0.6045 -0.3652 -0.1666
59522SOL    HW187344  10.133   2.945  10.223 -0.0113 -4.0841  1.1510
59522SOL    HW287345   9.994   2.976  10.276  0.5951 -1.0553  1.1441
59523SOL     OW87346  10.476   0.006   5.106 -0.6239 -0.3933 -0.6227
59523SOL    HW187347  10.463  -0.052   5.031 -0.3197  0.3118 -1.2360
59523SOL    HW287348  10.456   0.094   5.072  0.7281  0.0904 -0.2294
59524SOL     OW87349   4.167  12.280   2.898  0.0997  0.2665  0.2564
59524SOL    HW187350   4.082  12.297   2.939 -0.0736 -3.3141  1.7947
59524SOL    HW287351   4.226  12.344   2.938 -1.2393  0.5629  1.8752
59525SOL     OW87352   6.584   6.229   5.274 -0.6378 -0.1388 -0.0405
59525SOL    HW187353   6.543   6.298   5.326 -0.4297  0.2301 -0.3617
59525SOL    HW287354   6.654   6.273   5.227 -1.0125 -0.3992 -0.8712
59526SOL     OW87355   3.913   3.812  10.665  0.3746  0.4246  0.6029
59526SOL    HW187356   3.888   3.746  10.729  0.1286  2.0519  2.2645
59526SOL    HW287357   3.836   3.823  10.609  0.1363 -0.1101  0.8233
59527SOL     OW87358   2.103   2.943   7.123 -0.3297 -0.1111  0.3304
59527SOL    HW187359   2.174   3.006   7.133  0.2976 -0.7637  0.1323
59527SOL    HW287360   2.050   2.976   7.051  1.5335 -1.1591 -1.6553
59528SOL     OW87361   6.987   9.134   9.959 -0.3213  0.0313  0.0432
59528SOL    HW187362   7.072   9.176   9.971 -0.1336 -0.0872 -0.7951
59528SOL    HW287363   6.923   9.202   9.984  0.0145  0.0770  0.7914
59529SOL     OW87364   2.611  12.291   5.470  0.3554  0.1613 -0.5020
59529SOL    HW187365   2.629  12.205   5.432  0.7002  0.1883 -0.4054
59529SOL    HW287366   2.652  12.287   5.556  0.6920  0.5558 -0.6455
59530SOL     OW87367   1.719   6.595  11.302 -0.0348 -0.6931 -0.7092
59530SOL    HW187368   1.708   6.666  11.365  0.6420 -1.0098 -0.2308
59530SOL    HW287369   1.669   6.522  11.339  0.4492 -0.9120 -0.4807
59531SOL     OW87370  11.011   8.434   1.025  0.1616  0.4423 -0.2455
59531SOL    HW187371  10.975   8.464   1.109 -0.0812  1.2500 -0.6297
59531SOL    HW287372  10.973   8.347   1.013 -1.0035  0.9219 -0.2278
59532SOL     OW87373   4.884   3.080  12.486 -0.4215  0.4260 -0.0519
59532SOL    HW187374   4.857   3.130  12.409  0.3560 -1.0214 -1.3017
59532SOL    HW287375   4.977   3.065  12.475 -0.7426 -1.9663 -0.1611
59533SOL     OW87376   7.276   6.876   1.754 -0.2639  0.4284 -0.2209
59533SOL    HW187377   7.234   6.855   1.838 -0.6510  1.8214 -0.0388
59533SOL    HW287378   7.369   6.869   1.771 -0.3530 -1.1107 -0.1921
59534SOL     OW87379   6.698  10.942   3.940  0.3934  0.0284 -0.4511
59534SOL    HW187380   6.744  10.972   3.861 -0.6311 -1.3596 -1.6209
59534SOL    HW287381   6.610  10.921   3.909 -0.3605  0.5041  1.3028
59535SOL     OW87382  10.376   8.858   8.658 -0.4345  0.4591 -0.1790
59535SOL    HW187383  10.351   8.891   8.572 -2.0241 -0.2044  0.0038
59535SOL    HW287384  10.412   8.935   8.703 -2.5307  1.5961 -0.3264
59536SOL     OW87385   4.285   9.635   4.146  0.3554 -0.2003 -0.4465
59536SOL    HW187386   4.235   9.710   4.179 -0.7073 -1.2014  0.2879
59536SOL    HW287387   4.350   9.618   4.214  0.7076  0.1349 -0.6901
59537SOL     OW87388   6.896   4.192   9.215 -0.0158 -0.1348  0.3167
59537SOL    HW187389   6.843   4.268   9.188  0.1268 -0.9669 -2.6291
59537SOL    HW287390   6.833   4.120   9.218  0.6710 -1.0152 -2.6841
59538SOL     OW87391   9.719   1.977   8.750 -0.4805  0.4879 -0.6103
59538SOL    HW187392   9.764   2.055   8.782 -0.4485 -0.4461  1.7930
59538SOL    HW287393   9.788   1.926   8.707  0.8401 -0.6819  2.5756
59539SOL     OW87394  10.843   5.331  10.144 -0.3885  0.0087  0.2740
59539SOL    HW187395  10.807   5.411  10.183  0.0259 -0.8318  2.4765
59539SOL    HW287396  10.773   5.267  10.155  0.5184 -0.7835  1.6048
59540SOL     OW87397   5.018   7.719  10.997  1.1696 -0.1959  0.4391
59540SOL    HW187398   5.007   7.795  11.055  0.2243 -0.1847  0.2518
59540SOL    HW287399   4.941   7.665  11.013  0.6486  0.0267 -1.1439
59541SOL     OW87400   9.889  12.508   5.096 -0.4169 -0.1854  0.0915
59541SOL    HW187401   9.977  12.516   5.059 -0.0294 -1.1153  0.7493
59541SOL    HW287402   9.892  12.561   5.176 -1.1624  1.5844 -1.0051
59542SOL     OW87403   0.959   9.924   4.109 -0.3825 -0.5122 -0.1818
59542SOL    HW187404   1.011   9.847   4.085  1.3911  1.0010 -1.4828
59542SOL    HW287405   0.997   9.996   4.058  0.1983  1.9604  3.3795
59543SOL     OW87406   4.303   7.160   4.701  0.3680 -0.1042 -0.3465
59543SOL    HW187407   4.275   7.173   4.610  0.7581 -1.6793 -0.7109
59543SOL    HW287408   4.366   7.089   4.697  0.7870  0.1540  1.1073
59544SOL     OW87409   3.881   8.800   8.060  0.1778 -0.2362 -0.5824
59544SOL    HW187410   3.857   8.732   8.122 -0.2456 -1.7167 -2.2685
59544SOL    HW287411   3.969   8.827   8.086  0.0986 -0.9956  0.4887
59545SOL     OW87412   3.910   4.249   5.638  0.2528 -0.0964  0.2647
59545SOL    HW187413   3.827   4.205   5.660  1.1377 -1.2406  1.5314
59545SOL    HW287414   3.913   4.324   5.698 -0.2471  0.4500 -0.3797
59546SOL     OW87415   1.253   7.813   6.717  0.3186  0.0447  0.4690
59546SOL    HW187416   1.319   7.805   6.648  0.5072  1.4854  0.4521
59546SOL    HW287417   1.172   7.831   6.670 -0.1630 -1.9290  0.4765
59547SOL     OW87418  11.174   3.116   6.900 -0.0267 -0.1640 -0.5325
59547SOL    HW187419  11.210   3.030   6.880  0.0987  0.1905 -2.0122
59547SOL    HW287420  11.249   3.175   6.897 -0.4284  0.3237 -1.9322
59548SOL     OW87421  10.582   2.446   2.593 -0.6754  0.1475 -0.3676
59548SOL    HW187422  10.571   2.535   2.561  2.2955  1.1669  1.0741
59548SOL    HW287423  10.667   2.418   2.558 -1.7414 -2.3647 -1.1831
59549SOL     OW87424   1.583   5.768   1.300  0.0875  0.3483  0.1431
59549SOL    HW187425   1.660   5.819   1.274 -0.4681  1.1608  0.0502
59549SOL    HW287426   1.509   5.823   1.274 -0.5191 -0.3621  0.3626
59550SOL     OW87427  11.466  11.037  11.120 -0.2389  0.6792  0.4888
59550SOL    HW187428  11.516  10.960  11.149 -0.1821  0.2096 -0.7902
59550SOL    HW287429  11.523  11.111  11.139 -0.4182  0.4584  2.0203
59551SOL     OW87430   0.213   8.674   2.715 -0.7280  0.4127  0.1129
59551SOL    HW187431   0.263   8.656   2.794 -0.1555 -1.0481 -0.5425
59551SOL    HW287432   0.127   8.634   2.731 -1.8689  3.0705  1.3093
59552SOL     OW87433  12.532   3.908   7.091 -0.2317  0.9408 -0.4909
59552SOL    HW187434  12.554   3.906   6.998  1.1155 -0.5593 -0.1925
59552SOL    HW287435  12.603   3.957   7.132  0.5914 -0.5904  0.0127
59553SOL     OW87436   3.738  10.213   4.450 -0.2440 -0.3044 -0.6833
59553SOL    HW187437   3.688  10.143   4.410  0.3745 -0.6995 -0.7875
59553SOL    HW287438   3.717  10.209   4.543  0.7950 -1.5085 -0.4734
59554SOL     OW87439   8.233   0.152   1.973 -0.1629 -0.3943 -0.2674
59554SOL    HW187440   8.263   0.222   2.032 -0.6795 -0.9225  0.6345
59554SOL    HW287441   8.139   0.166   1.965 -0.9812 -3.0578  2.8460
59555SOL     OW87442   9.048   8.572  11.013 -0.2535  0.3852  0.6702
59555SOL    HW187443   8.992   8.620  11.075 -1.9622 -3.1220  2.1068
59555SOL    HW287444   9.020   8.602  10.927 -2.0338  1.1077  1.4520
59556SOL     OW87445   9.615   6.664  10.249  0.1023  0.7026  0.1579
59556SOL    HW187446   9.669   6.593  10.215  0.5792  0.4666  1.3299
59556SOL    HW287447   9.542   6.672  10.187  0.0988 -0.7297 -0.0513
59557SOL     OW87448   2.482  10.086   6.039  0.4829  0.7393 -0.2315
59557SOL    HW187449   2.448  10.175   6.045 -2.0722 -0.2603  1.4029
59557SOL    HW287450   2.454  10.043   6.120 -1.6464 -2.6000 -2.4991
59558SOL     OW87451   4.502   4.256   9.629 -0.5438  0.1784 -0.3029
59558SOL    HW187452   4.455   4.175   9.649 -1.3815 -0.0935 -2.9758
59558SOL    HW287453   4.587   4.227   9.597 -0.9787  0.2953 -1.6164
59559SOL     OW87454   5.027   6.178   5.640 -0.5342  0.0305 -0.5608
59559SOL    HW187455   5.105   6.159   5.693 -0.6758 -1.2075 -0.7712
59559SOL    HW287456   5.059   6.182   5.550 -0.5167  0.7897 -0.5268
59560SOL     OW87457   3.405   3.402  10.356  0.3858 -0.0573 -0.1780
59560SOL    HW187458   3.324   3.418  10.307  0.3113  0.6193  0.1458
59560SOL    HW287459   3.460   3.353  10.296  0.4313  1.0427 -1.0744
59561SOL     OW87460  10.075   7.771   0.903  0.0533  0.3345 -0.2261
59561SOL    HW187461  10.055   7.832   0.832 -0.5048 -0.1460 -0.4818
59561SOL    HW287462  10.170   7.760   0.898  0.0486  0.5000 -0.7348
59562SOL     OW87463   5.334  10.243   9.268 -0.4253  0.3143 -0.1824
59562SOL    HW187464   5.341  10.155   9.233  1.2469 -0.1323  1.1382
59562SOL    HW287465   5.280  10.234   9.346 -0.3153  0.4596 -0.0878
59563SOL     OW87466   6.773   7.835  12.611  0.1254  0.2830  0.2011
59563SOL    HW187467   6.763   7.742  12.593 -1.8308  0.1968  1.3770
59563SOL    HW287468   6.842   7.840  12.677 -0.2804 -0.4209  0.6917
59564SOL     OW87469   1.434   2.388   6.579  0.4656  0.0973 -0.2997
59564SOL    HW187470   1.453   2.479   6.556 -1.8773  0.5812 -0.5866
59564SOL    HW287471   1.355   2.367   6.530  1.4095 -2.4231 -0.9175
59565SOL     OW87472   8.459   5.997  12.095 -0.4446 -0.0467  0.4474
59565SOL    HW187473   8.415   6.082  12.094 -1.5575 -0.6043  0.0813
59565SOL    HW287474   8.549   6.016  12.068 -0.9892  0.8645 -0.8282
59566SOL     OW87475   7.012  10.296   1.895  0.5628  0.0055 -0.4862
59566SOL    HW187476   6.972  10.215   1.926 -1.8106  0.4971 -2.0048
59566SOL    HW287477   7.078  10.317   1.961 -0.1014 -2.1141  0.9545
59567SOL     OW87478   7.029   1.949  10.309 -0.6693  0.4602 -0.0096
59567SOL    HW187479   7.111   1.906  10.283  0.0070  1.2326  0.8040
59567SOL    HW287480   7.046   2.042  10.297 -1.6066  0.6111 -0.2787
59568SOL     OW87481   6.914   5.367   9.948  0.5145  0.6729 -0.1102
59568SOL    HW187482   6.979   5.315   9.995 -0.5669  0.8586  1.6716
59568SOL    HW287483   6.881   5.309   9.880 -1.1082 -1.3049  2.2004
59569SOL     OW87484   7.854   1.392   9.479  0.4277 -0.1552 -0.1490
59569SOL    HW187485   7.936   1.410   9.434  0.5371  0.4506  0.2845
59569SOL    HW287486   7.826   1.476   9.515  0.4799 -0.6550  1.1416
59570SOL     OW87487   3.993   7.433   1.095 -0.1657 -0.2443 -0.1724
59570SOL    HW187488   4.013   7.395   1.009 -0.0335 -0.6351  0.0301
59570SOL    HW287489   3.897   7.441   1.095 -0.3355 -1.8761  0.3090
59571SOL     OW87490   5.682   5.222   8.611  0.2022  0.4096 -0.4991
59571SOL    HW187491   5.773   5.200   8.633 -0.0209 -0.5958 -0.5359
59571SOL    HW287492   5.646   5.258   8.692  0.2854 -0.3645 -0.1048
59572SOL     OW87493   4.520   7.033   1.269  0.2913  0.3873  0.0110
59572SOL    HW187494   4.559   6.949   1.245  2.0557  1.4856 -1.1923
59572SOL    HW287495   4.584   7.072   1.329  0.8250  1.9695 -1.5139
59573SOL     OW87496   6.440   1.123   3.350  0.2488 -0.1989 -0.5958
59573SOL    HW187497   6.409   1.037   3.324 -0.7188  0.5779 -2.2232
59573SOL    HW287498   6.530   1.126   3.318  0.3820 -0.7055 -0.2741
59574SOL     OW87499  11.101   9.779   7.086  0.3996  0.0500 -0.4751
59574SOL    HW187500  11.087   9.863   7.128  0.5928  1.2699 -2.6624
59574SOL    HW287501  11.078   9.714   7.152 -2.2358  1.8087  0.5099
59575SOL     OW87502   6.413   9.167   5.659  0.4336  0.5353 -0.0070
59575SOL    HW187503   6.424   9.246   5.606 -0.0009  0.8477  0.3562
59575SOL    HW287504   6.339   9.121   5.619  0.8661  0.1708 -0.3878
59576SOL     OW87505   8.593   2.302   6.258 -0.1382  0.1070  0.0985
59576SOL    HW187506   8.551   2.229   6.304  2.1765  0.4715  3.0839
59576SOL    HW287507   8.654   2.260   6.197 -0.2341 -0.4216  0.3642
59577SOL     OW87508   8.442   2.321   3.946  0.4037  0.1920 -0.2531
59577SOL    HW187509   8.425   2.296   4.037  0.1998 -1.1951 -0.6484
59577SOL    HW287510   8.535   2.306   3.934  0.9177  2.5245  0.3312
59578SOL     OW87511   6.691   1.918   8.422  0.1580 -0.4404  0.1964
59578SOL    HW187512   6.646   1.890   8.343  0.1602  0.6631 -0.2131
59578SOL    HW287513   6.621   1.955   8.477  0.4801  0.8317 -0.2373
59579SOL     OW87514  10.531   2.663   8.262  0.2837 -0.6040  0.7055
59579SOL    HW187515  10.621   2.636   8.241  0.5642  0.2342  0.7806
59579SOL    HW287516  10.491   2.586   8.301  0.5765 -1.3801 -0.4712
59580SOL     OW87517   5.497  10.842   9.392  0.1750  0.0236 -0.4703
59580SOL    HW187518   5.537  10.779   9.453 -2.2074 -2.7384 -1.5644
59580SOL    HW287519   5.556  10.843   9.317 -0.1712 -1.6965 -0.8169
59581SOL     OW87520   3.017   7.940   1.580 -0.3549  0.9080  0.3340
59581SOL    HW187521   2.930   7.900   1.577 -0.3199  0.9040 -1.2358
59581SOL    HW287522   3.001   8.034   1.576 -0.2625  0.8739 -2.2219
59582SOL     OW87523   3.127  11.946  10.973  0.0249  0.3921  0.6722
59582SOL    HW187524   3.151  11.930  10.882  0.2929  0.4996  0.7225
59582SOL    HW287525   3.152  11.866  11.019 -1.1626 -0.1191  0.4611
59583SOL     OW87526   3.379   5.932   6.580 -0.0648  0.5572  0.0719
59583SOL    HW187527   3.407   5.940   6.671  1.6881 -0.2672 -0.3504
59583SOL    HW287528   3.452   5.888   6.536 -1.5499 -0.5698 -1.4056
59584SOL     OW87529   6.056   4.470   6.749 -0.2179  0.0039  0.4179
59584SOL    HW187530   6.042   4.481   6.843  0.7397  1.8833  0.3902
59584SOL    HW287531   6.130   4.528   6.729 -1.1553  0.5700 -1.6991
59585SOL     OW87532   4.190   4.728  11.969 -0.3583 -0.2582 -0.2604
59585SOL    HW187533   4.218   4.818  11.984 -3.8915  1.2824 -1.7949
59585SOL    HW287534   4.233   4.678  12.038  0.0290  2.9701  2.0803
59586SOL     OW87535   3.712   7.873   6.960 -0.0778  0.1750  0.4495
59586SOL    HW187536   3.740   7.964   6.952  1.1010 -0.3150 -2.0611
59586SOL    HW287537   3.779   7.823   6.912  0.3877 -2.2673  3.3214
59587SOL     OW87538  11.497   6.023   6.396 -0.0311 -0.7646 -0.7925
59587SOL    HW187539  11.422   5.969   6.368 -0.6810 -0.9865  1.2217
59587SOL    HW287540  11.527   5.982   6.477  0.9080  0.5848 -0.4312
59588SOL     OW87541  11.233   7.039   9.224 -0.2801 -0.4535  0.2296
59588SOL    HW187542  11.267   6.961   9.267  2.6393 -0.0212 -1.0044
59588SOL    HW287543  11.203   7.009   9.138 -1.0460 -0.4930  0.5027
59589SOL     OW87544   7.170   4.477   3.751 -0.1508  0.7295 -0.6633
59589SOL    HW187545   7.088   4.496   3.705 -0.3066 -0.7568 -1.0269
59589SOL    HW287546   7.235   4.466   3.681 -0.4753 -1.9652 -0.6371
59590SOL     OW87547   0.036   0.455   8.851  0.3745 -0.4870 -0.4402
59590SOL    HW187548  -0.004   0.373   8.822 -0.7741 -0.4942  1.0394
59590SOL    HW287549   0.026   0.514   8.776 -2.4813 -0.5047 -0.2068
59591SOL     OW87550   1.946   6.582   3.666  0.1581 -0.2914  0.0567
59591SOL    HW187551   1.944   6.674   3.694 -1.8381 -0.3067  0.0916
59591SOL    HW287552   1.892   6.536   3.730  0.6985 -1.4069 -0.2750
59592SOL     OW87553   8.451   7.682   2.262 -0.0282 -0.1178 -0.0115
59592SOL    HW187554   8.541   7.715   2.266  0.1917 -0.8036  1.2216
59592SOL    HW287555   8.410   7.734   2.193  1.6140 -0.5368 -1.3850
59593SOL     OW87556   6.940   2.531  12.042 -0.7612 -0.2620  0.5743
59593SOL    HW187557   7.008   2.478  12.000 -1.2137  0.4487 -1.1331
59593SOL    HW287558   6.955   2.518  12.136 -0.6241 -3.1009  0.2598
59594SOL     OW87559   4.887   9.365   0.703 -0.3888  0.0122 -0.3298
59594SOL    HW187560   4.867   9.292   0.644  0.6153 -0.0680 -0.5878
59594SOL    HW287561   4.803   9.409   0.714 -1.2280 -1.7075  0.5837
59595SOL     OW87562   0.296  10.450   2.697  0.5080  0.1807  0.1238
59595SOL    HW187563   0.369  10.490   2.745  0.2721  0.3526  0.3417
59595SOL    HW287564   0.324  10.360   2.682 -0.4883 -0.7266  2.9764
59596SOL     OW87565  10.381   4.019  11.992  0.6114  0.2322  0.5519
59596SOL    HW187566  10.397   3.931  11.957  0.4932 -0.1086  1.3394
59596SOL    HW287567  10.394   4.077  11.917  0.8680 -0.4406  0.0650
59597SOL     OW87568   7.814   3.212   9.761 -0.2921 -0.4114 -0.1701
59597SOL    HW187569   7.822   3.304   9.786  0.5807 -0.3374 -0.7010
59597SOL    HW287570   7.740   3.180   9.813 -0.6062  0.5814  0.0243
59598SOL     OW87571   7.349  11.795  12.280 -0.3962  0.3124  0.1299
59598SOL    HW187572   7.261  11.829  12.265  0.4333  1.6849 -1.9827
59598SOL    HW287573   7.406  11.849  12.225  1.7417 -0.7719  1.1554
59599SOL     OW87574   7.191   9.769  12.199 -0.2743 -0.1721 -0.1897
59599SOL    HW187575   7.200   9.804  12.110  0.4246 -1.4217 -0.6429
59599SOL    HW287576   7.149   9.683  12.187  2.4561 -1.7077  0.3185
59600SOL     OW87577   1.127  10.563  10.987 -0.0707 -0.2680 -0.2612
59600SOL    HW187578   1.161  10.482  11.026 -0.4322  0.1080  0.8737
59600SOL    HW287579   1.173  10.570  10.903  1.1532 -0.8253  0.3315
59601SOL     OW87580   8.021   1.703   9.837 -0.2001  0.0779  0.0265
59601SOL    HW187581   8.034   1.620   9.791  1.3422  1.9729 -3.3774
59601SOL    HW287582   7.927   1.720   9.831 -0.2268 -0.4340 -1.2395
59602SOL     OW87583   0.761   9.917   2.526 -0.1666 -0.0601 -0.0335
59602SOL    HW187584   0.724   9.996   2.566 -1.4720 -0.9011  0.4551
59602SOL    HW287585   0.695   9.888   2.463  0.5277 -0.4952 -0.5818
59603SOL     OW87586  12.183   5.910   3.773  0.4749  0.0827 -0.6952
59603SOL    HW187587  12.168   5.974   3.703 -0.6238 -1.1156 -1.5892
59603SOL    HW287588  12.211   5.963   3.848 -1.6953  1.7595 -0.9946
59604SOL     OW87589   6.747   2.270  10.434 -0.9127 -0.0535  0.2603
59604SOL    HW187590   6.824   2.319  10.406  0.1947 -0.2600  2.6256
59604SOL    HW287591   6.768   2.179  10.412  0.0619 -0.2495  1.7939
59605SOL     OW87592   5.766  11.799   9.793 -0.0578 -0.0551 -0.1250
59605SOL    HW187593   5.764  11.769   9.884  1.3247 -0.3988 -0.1734
59605SOL    HW287594   5.688  11.853   9.783 -0.4486 -0.3557  1.1444
59606SOL     OW87595   4.557   6.768   9.941 -0.2325  0.3395  0.2186
59606SOL    HW187596   4.638   6.807   9.909  0.2108 -1.2409 -0.6846
59606SOL    HW287597   4.515   6.838   9.992  1.2660  1.4511 -0.0136
59607SOL     OW87598   3.848   9.897  12.516 -0.0426  0.3163 -0.6722
59607SOL    HW187599   3.867   9.981  12.558  0.9629  0.3524 -1.1739
59607SOL    HW287600   3.767   9.868  12.558 -0.0222  1.1878  0.0211
59608SOL     OW87601   0.259  11.707   6.816  0.2719  0.5285 -0.3289
59608SOL    HW187602   0.327  11.775   6.819  1.2562 -0.4674  1.4904
59608SOL    HW287603   0.296  11.638   6.761  0.1793  0.5384 -0.4041
59609SOL     OW87604  10.189   3.675  12.116  0.5827  0.3144 -0.0152
59609SOL    HW187605  10.146   3.676  12.202 -0.4621  0.6798 -0.5216
59609SOL    HW287606  10.169   3.589  12.080  0.7380  0.2856 -0.0339
59610SOL     OW87607  12.106  11.655   0.930  0.0006  0.3502  0.0043
59610SOL    HW187608  12.133  11.742   0.961  0.7644  0.3006 -0.4744
59610SOL    HW287609  12.041  11.673   0.862  2.7099  0.7945 -2.6958
59611SOL     OW87610   4.648   9.932   2.426 -0.1330 -0.0551 -0.2626
59611SOL    HW187611   4.567   9.881   2.438  0.2278 -0.8322 -1.0180
59611SOL    HW287612   4.718   9.871   2.452  0.3651 -0.2774 -1.9763
59612SOL     OW87613   1.959   6.571   2.999 -0.5324 -0.0169  0.0241
59612SOL    HW187614   1.871   6.534   2.986 -1.3993  0.9095  2.6444
59612SOL    HW287615   2.000   6.567   2.912 -3.0160 -0.8200 -1.1983
59613SOL     OW87616   5.063   3.689   5.141  0.1595 -0.4184 -0.7948
59613SOL    HW187617   5.008   3.620   5.180 -0.4745 -0.4642 -1.7412
59613SOL    HW287618   5.100   3.649   5.063  1.9350 -0.5321  0.0486
59614SOL     OW87619   8.683   8.827  11.207 -0.2519 -0.0860  0.1427
59614SOL    HW187620   8.699   8.739  11.173  2.2758  0.2802  0.1521
59614SOL    HW287621   8.725   8.827  11.293 -0.9755  0.8785  0.5121
59615SOL     OW87622  11.155   2.838   1.731 -0.1140 -0.4014 -0.2382
59615SOL    HW187623  11.152   2.775   1.659 -0.4459  1.2759 -1.7394
59615SOL    HW287624  11.118   2.919   1.695  0.7463  0.8203  1.4734
59616SOL     OW87625  10.114  11.797   5.456  0.3534 -0.8708 -0.0777
59616SOL    HW187626  10.126  11.816   5.549  1.0169  0.9416 -0.4810
59616SOL    HW287627  10.039  11.738   5.452 -0.0217 -0.5439  1.5664
59617SOL     OW87628   3.065  10.855   0.452  0.1230 -0.0375 -0.2420
59617SOL    HW187629   3.098  10.783   0.398  2.4030  0.9018 -0.2383
59617SOL    HW287630   2.981  10.824   0.485 -0.7352 -1.1824 -3.2081
59618SOL     OW87631  11.389   8.484  11.015 -0.4174 -0.3575 -0.0307
59618SOL    HW187632  11.337   8.413  11.053  0.1563 -0.1849  1.1312
59618SOL    HW287633  11.378   8.474  10.921 -0.0228 -2.2436  0.0870
59619SOL     OW87634  11.886   4.224   1.140 -0.0591 -0.1930  0.0141
59619SOL    HW187635  11.888   4.314   1.108  1.1354 -0.6974 -1.4106
59619SOL    HW287636  11.812   4.184   1.094 -1.9956  0.5383  2.2310
59620SOL     OW87637   0.217   4.845  10.111 -0.2234 -0.1820  0.3700
59620SOL    HW187638   0.196   4.903  10.184 -0.1948 -0.6597  0.7578
59620SOL    HW287639   0.233   4.905  10.037  0.4551  0.3357  0.9244
59621SOL     OW87640   2.896   4.777   0.164  0.1359  0.2682  0.5326
59621SOL    HW187641   2.892   4.872   0.156  1.2412  0.3238  0.4697
59621SOL    HW287642   2.978   4.753   0.120 -1.5661 -1.0323 -2.2450
59622SOL     OW87643  10.273   6.874   5.909 -0.2449 -0.2226  0.6030
59622SOL    HW187644  10.349   6.898   5.855 -0.7399  0.9019  0.3865
59622SOL    HW287645  10.204   6.934   5.882 -0.5167  0.3704  2.4624
59623SOL     OW87646   0.364   6.244   8.115 -0.2489 -0.1929 -0.3659
59623SOL    HW187647   0.386   6.201   8.033 -0.8833 -0.7588 -0.2472
59623SOL    HW287648   0.279   6.286   8.098 -0.1428  0.1138 -0.1503
59624SOL     OW87649   1.715   6.109   1.459 -0.0319  0.1577 -0.4705
59624SOL    HW187650   1.768   6.061   1.522 -0.1362  0.0405 -0.4714
59624SOL    HW287651   1.626   6.075   1.470 -0.0604  0.1689 -0.6471
59625SOL     OW87652   2.543   5.298  11.857  0.7928 -0.1966  0.5858
59625SOL    HW187653   2.523   5.368  11.794 -1.4800 -0.3991  0.9926
59625SOL    HW287654   2.637   5.307  11.873  0.9069  1.6431 -0.6944
59626SOL     OW87655  11.639   1.699   9.252 -0.1036  0.1573 -0.0532
59626SOL    HW187656  11.649   1.681   9.158 -0.3727 -0.2596 -0.0060
59626SOL    HW287657  11.698   1.773   9.269  2.1207 -1.5019 -0.0118
59627SOL     OW87658  10.437   7.462   5.046 -0.2469  0.2516 -0.1625
59627SOL    HW187659  10.509   7.501   4.998 -1.7364  1.2002 -1.7662
59627SOL    HW287660  10.440   7.502   5.132  2.7957 -1.8470  0.8704
59628SOL     OW87661  12.593   7.745   3.541  0.4411  0.2397 -0.0390
59628SOL    HW187662  12.649   7.693   3.483  0.1913  0.6612 -0.6627
59628SOL    HW287663  12.599   7.700   3.626  1.5596  0.1547 -0.1428
59629SOL     OW87664   0.580   0.146   8.168 -0.4974  0.4844 -0.0563
59629SOL    HW187665   0.644   0.091   8.121  0.2127  0.8007  0.5324
59629SOL    HW287666   0.532   0.191   8.098  0.2906  0.6596 -0.5005
59630SOL     OW87667   0.938   7.449   9.107  0.5980 -0.2303  0.0199
59630SOL    HW187668   0.954   7.354   9.108 -0.6723 -0.4561  0.1158
59630SOL    HW287669   0.927   7.472   9.199  1.1126  0.0539  0.0115
59631SOL     OW87670   6.505   6.750   8.666  0.2208 -0.3595  0.2372
59631SOL    HW187671   6.457   6.828   8.641 -0.3460 -1.1455 -1.2590
59631SOL    HW287672   6.577   6.782   8.720 -1.2949  0.9631  1.6116
59632SOL     OW87673   5.996  11.356   2.593  0.3009 -0.2872 -0.4636
59632SOL    HW187674   5.995  11.439   2.641 -0.4864 -0.4339 -0.2011
59632SOL    HW287675   6.088  11.336   2.581  0.5007  0.8595 -0.9405
59633SOL     OW87676   1.827   6.770   1.624  0.7148 -0.6515 -0.7985
59633SOL    HW187677   1.798   6.841   1.567 -0.4587 -1.1948 -0.9113
59633SOL    HW287678   1.920   6.785   1.636  0.9219 -0.3049 -2.5567
59634SOL     OW87679   9.978   1.773  10.604 -0.6906 -0.1956  0.0541
59634SOL    HW187680   9.908   1.809  10.659  0.2233  1.1389  0.4204
59634SOL    HW287681  10.059   1.800  10.649  0.0731 -0.0485 -1.3424
59635SOL     OW87682   7.186  11.967   6.537 -0.4291  0.9061 -0.5600
59635SOL    HW187683   7.177  11.932   6.626 -0.8520 -0.1405 -0.9952
59635SOL    HW287684   7.142  12.053   6.541  0.7205  1.4782  0.5569
59636SOL     OW87685   2.085   3.080   3.413 -0.3061 -0.3348 -0.2167
59636SOL    HW187686   2.115   3.008   3.357 -0.1814 -1.2488  0.9827
59636SOL    HW287687   2.147   3.151   3.395 -0.3085 -0.5787 -1.2717
59637SOL     OW87688   7.425  12.378   8.731 -0.3277 -0.7291  0.5035
59637SOL    HW187689   7.459  12.432   8.802 -1.8655  0.8694  0.0670
59637SOL    HW287690   7.503  12.335   8.696  0.9826  1.1960  0.8768
59638SOL     OW87691   3.474   0.571  11.404  0.4535 -0.5217 -0.0020
59638SOL    HW187692   3.396   0.618  11.374  0.1832 -1.0079 -0.0739
59638SOL    HW287693   3.455   0.548  11.495  0.9047  0.1751  0.2731
59639SOL     OW87694   8.915   4.566   4.550 -0.3079  0.1690  0.1401
59639SOL    HW187695   8.952   4.518   4.475 -0.1720  1.8013 -0.8973
59639SOL    HW287696   8.821   4.549   4.545 -0.0169 -2.3513  1.5807
59640SOL     OW87697   2.990   0.164   9.300 -0.6903  0.3502  0.0095
59640SOL    HW187698   2.911   0.114   9.277  0.2600 -0.8439 -0.7333
59640SOL    HW287699   2.975   0.251   9.263 -1.6394  0.1270 -0.1559
59641SOL     OW87700   5.561   1.081   0.223  0.4969 -0.1938  0.0331
59641SOL    HW187701   5.620   1.154   0.243  0.6581 -0.0844 -0.8220
59641SOL    HW287702   5.480   1.122   0.193  0.4036 -0.3621  0.0498
59642SOL     OW87703   7.847   0.625   5.439 -0.4819 -0.0152  0.2433
59642SOL    HW187704   7.885   0.679   5.508  1.0918  0.4663 -0.9399
59642SOL    HW287705   7.815   0.688   5.374 -0.3181 -0.4854 -0.2988
59643SOL     OW87706  12.020  10.800   9.700 -0.7952 -0.6455 -0.2248
59643SOL    HW187707  11.964  10.875   9.719 -0.2211 -0.5670  1.3360
59643SOL    HW287708  12.055  10.775   9.786  1.1035 -1.0377 -1.0792
59644SOL     OW87709   5.174   4.260   2.809  0.5315 -0.2302  0.2905
59644SOL    HW187710   5.118   4.221   2.743  0.0958 -0.6357  0.8861
59644SOL    HW287711   5.263   4.246   2.778  0.3449  2.5811 -1.9233
59645SOL     OW87712   0.899   7.176  10.870 -0.0277  0.2651  0.0699
59645SOL    HW187713   0.814   7.217  10.885 -0.7555 -1.5248  1.0991
59645SOL    HW287714   0.923   7.137  10.954  0.9861 -0.7471 -0.6541
59646SOL     OW87715   3.519  10.521  11.777  0.1142 -0.2278  0.0477
59646SOL    HW187716   3.428  10.511  11.748  0.3981 -0.0471 -0.9358
59646SOL    HW287717   3.531  10.453  11.842 -0.7252 -0.2623  0.1843
59647SOL     OW87718   8.173   1.948  10.001 -0.3050 -0.3326  0.3704
59647SOL    HW187719   8.081   1.946  10.027 -0.7994  0.3994 -1.1752
59647SOL    HW287720   8.204   2.035  10.026 -0.1011 -0.4863  0.6583
59648SOL     OW87721  10.138   3.308   0.417  0.1670 -0.0995  0.0155
59648SOL    HW187722  10.157   3.247   0.346  0.0457  0.2275 -0.3041
59648SOL    HW287723  10.183   3.271   0.494 -0.7612 -1.1316  0.0869
59649SOL     OW87724  10.102   5.181   1.360 -0.5252  0.1381  0.0774
59649SOL    HW187725  10.071   5.153   1.446  0.5281 -1.5803 -0.0624
59649SOL    HW287726  10.023   5.206   1.313 -1.1819  0.4381  1.2992
59650SOL     OW87727   8.739   3.419  10.240 -0.0664  0.0733  0.0929
59650SOL    HW187728   8.808   3.485  10.227  1.1285 -0.2952  3.5016
59650SOL    HW287729   8.782   3.350  10.291 -2.8902 -0.1798  2.4030
59651SOL     OW87730  10.983  10.541   1.861 -0.4456 -0.0813 -0.0921
59651SOL    HW187731  11.018  10.564   1.774  0.5163 -1.1783 -0.0278
59651SOL    HW287732  11.027  10.601   1.921  0.4309 -0.6402 -0.1542
59652SOL     OW87733   9.364  11.138   8.760 -0.0238  0.0150  0.2753
59652SOL    HW187734   9.452  11.107   8.777  0.9656  1.3188 -2.0230
59652SOL    HW287735   9.366  11.231   8.784 -0.1518  0.5221 -1.4782
59653SOL     OW87736   9.448  11.145   0.776 -0.1317  0.3442 -0.2791
59653SOL    HW187737   9.373  11.204   0.771  0.2775  1.0168  1.0020
59653SOL    HW287738   9.470  11.125   0.685 -0.3419  2.0817 -0.7386
59654SOL     OW87739   8.191   4.627   3.944  0.2465  0.2647 -0.1650
59654SOL    HW187740   8.130   4.579   4.000  0.1704  1.1054  0.4966
59654SOL    HW287741   8.168   4.719   3.956  0.5777  0.5007 -1.1849
59655SOL     OW87742   3.482   4.817   6.102  0.2789 -0.6174 -0.2448
59655SOL    HW187743   3.513   4.894   6.054 -0.1447 -0.6697 -0.6104
59655SOL    HW287744   3.435   4.853   6.177  0.0495 -0.5145 -0.4360
59656SOL     OW87745   4.280   5.589   8.438  0.5826  0.2331  0.6706
59656SOL    HW187746   4.275   5.683   8.416  2.7598  0.9477  2.7722
59656SOL    HW287747   4.330   5.550   8.366  0.5911  0.9064  0.3015
59657SOL     OW87748  11.758   3.689   7.292  0.0603  0.3561 -0.1221
59657SOL    HW187749  11.842   3.651   7.267  0.5136  1.5023 -0.4231
59657SOL    HW287750  11.766   3.782   7.268 -1.3174  0.4650 -0.2143
59658SOL     OW87751  10.451   1.572   3.759  0.0479  0.1839  0.8793
59658SOL    HW187752  10.386   1.501   3.755  1.2835 -0.9896  0.5847
59658SOL    HW287753  10.461   1.590   3.852  0.4717 -0.7960  1.0442
59659SOL     OW87754   0.076   5.004  10.287  0.1420  0.0518 -0.1045
59659SOL    HW187755  -0.016   4.994  10.261  0.5930 -0.0237 -1.7510
59659SOL    HW287756   0.075   4.991  10.382 -1.2812 -1.8947 -0.3220
59660SOL     OW87757   3.904   7.686   3.323 -0.1297  0.1436 -0.1615
59660SOL    HW187758   3.891   7.689   3.228 -0.3172 -0.7728 -0.1748
59660SOL    HW287759   3.923   7.777   3.347 -0.9840  0.5550 -0.9458
59661SOL     OW87760   6.158  11.867   5.117 -0.4862 -0.0455 -0.0111
59661SOL    HW187761   6.093  11.818   5.168  1.2330 -1.5975  0.8100
59661SOL    HW287762   6.117  11.952   5.101 -1.9188 -0.2484  2.1822
59662SOL     OW87763   2.169   2.078   4.815  0.1152  0.0055  0.3797
59662SOL    HW187764   2.100   2.087   4.881 -0.4450 -0.1313 -0.1879
59662SOL    HW287765   2.240   2.133   4.848 -0.0254 -0.3220  1.2733
59663SOL     OW87766   5.849   1.093   9.450 -0.7966 -0.0683 -0.8962
59663SOL    HW187767   5.908   1.082   9.375 -0.4136 -0.0146 -0.6063
59663SOL    HW287768   5.809   1.008   9.462  1.4512 -0.9886  0.7584
59664SOL     OW87769   7.460  12.120   4.240 -0.4318 -0.2848  0.6150
59664SOL    HW187770   7.381  12.123   4.187 -0.5643 -2.1656  0.6487
59664SOL    HW287771   7.456  12.036   4.285  0.0708  0.8854  3.0347
59665SOL     OW87772   0.143   1.328   4.122  0.6170  0.0712 -0.4002
59665SOL    HW187773   0.233   1.307   4.097  0.8060 -0.8612  0.9222
59665SOL    HW287774   0.147   1.418   4.155  0.8347  0.4229 -1.3693
59666SOL     OW87775   7.734   9.847  11.756  0.7902  0.0219  0.0897
59666SOL    HW187776   7.795   9.774  11.747  0.2733 -0.3221 -0.7618
59666SOL    HW287777   7.767   9.897  11.830  1.6279 -0.6197  0.1631
59667SOL     OW87778   6.091  11.759   8.413  0.1925 -0.7698  0.2533
59667SOL    HW187779   6.123  11.697   8.347  0.4058  1.8714 -2.3602
59667SOL    HW287780   5.997  11.763   8.398 -0.0385 -1.4230  1.3804
59668SOL     OW87781   0.450   1.515  10.697  0.4879 -0.0011  0.7091
59668SOL    HW187782   0.493   1.504  10.782 -0.8259  1.1785  1.5912
59668SOL    HW287783   0.480   1.602  10.667  1.1880 -0.5416 -0.2109
59669SOL     OW87784   2.161   5.376  10.360 -0.0161  0.8140  0.1846
59669SOL    HW187785   2.068   5.398  10.356  0.2449  1.9374 -0.3711
59669SOL    HW287786   2.173   5.336  10.446 -1.2127 -0.4320 -0.1948
59670SOL     OW87787   6.888   9.331   5.481  0.1225  0.2289 -0.0070
59670SOL    HW187788   6.914   9.333   5.389 -2.3590  1.2916 -0.7665
59670SOL    HW287789   6.816   9.268   5.485 -0.3608  0.8232  1.0206
59671SOL     OW87790   8.882   6.744   6.460  0.4135  0.2095 -0.1502
59671SOL    HW187791   8.962   6.717   6.504 -0.2684 -1.1273  0.3511
59671SOL    HW287792   8.887   6.702   6.374 -0.2741 -0.9334  0.3321
59672SOL     OW87793   4.899   9.120   4.039  0.6504 -0.2836  0.0966
59672SOL    HW187794   4.952   9.092   3.964 -1.0666  0.0365 -1.2941
59672SOL    HW287795   4.933   9.207   4.061  0.1186  0.3156 -1.3751
59673SOL     OW87796   1.477   1.224  10.225 -0.0164 -0.4145 -0.5087
59673SOL    HW187797   1.494   1.318  10.230 -0.4699 -0.3583  0.1178
59673SOL    HW287798   1.399   1.211  10.279 -1.3850 -0.8064 -2.4943
59674SOL     OW87799  10.630   4.271   6.666 -0.1397 -0.0813 -0.1341
59674SOL    HW187800  10.550   4.250   6.713 -0.1588 -2.2155 -0.9867
59674SOL    HW287801  10.689   4.198   6.686  1.7579  1.5703  0.7223
59675SOL     OW87802   4.625  11.591   3.315  0.1536  0.1398  0.3624
59675SOL    HW187803   4.547  11.644   3.330  0.0231  0.2705 -0.6723
59675SOL    HW287804   4.617  11.518   3.375 -1.4140 -0.5259 -0.5973
59676SOL     OW87805   8.554   2.451   5.476  0.3034 -0.2739 -0.0864
59676SOL    HW187806   8.507   2.440   5.394  0.6694  0.8838 -0.4713
59676SOL    HW287807   8.489   2.484   5.537  0.4512  0.6963 -0.4395
59677SOL     OW87808   1.133   0.108   0.313  0.1931  0.1803 -0.2476
59677SOL    HW187809   1.105   0.199   0.301 -1.1576 -0.3740 -1.7787
59677SOL    HW287810   1.203   0.095   0.248 -0.5020 -0.2005 -0.9395
59678SOL     OW87811   0.344   9.810   9.689 -0.5430  0.1083 -0.0538
59678SOL    HW187812   0.365   9.893   9.731 -0.1302 -0.0396  0.0368
59678SOL    HW287813   0.283   9.767   9.748 -2.9016  1.4970 -1.3494
59679SOL     OW87814  10.513  11.170  12.210  0.0308 -0.9293  0.2684
59679SOL    HW187815  10.571  11.167  12.286 -1.3539  1.2111  1.4952
59679SOL    HW287816  10.431  11.131  12.242 -0.6899  0.3500  0.0512
59680SOL     OW87817   7.484  11.498  10.730  0.1659  0.0375  0.2014
59680SOL    HW187818   7.572  11.521  10.702 -0.2067  0.1927 -0.9088
59680SOL    HW287819   7.446  11.452  10.655 -0.5934 -0.2954  0.7753
59681SOL     OW87820  10.961   5.498   6.503  0.2687  0.4179 -0.7585
59681SOL    HW187821  10.953   5.587   6.538 -1.0357  0.2113 -0.4825
59681SOL    HW287822  10.991   5.445   6.577 -0.5849  0.3345 -0.4666
59682SOL     OW87823  10.430   2.746   5.870 -0.1337 -0.3251 -0.5683
59682SOL    HW187824  10.516   2.729   5.907 -0.4834 -0.7339  0.0641
59682SOL    HW287825  10.443   2.737   5.776  0.3197 -1.2617 -0.4278
59683SOL     OW87826  11.751   9.327   0.741 -0.0298  0.0267 -0.3838
59683SOL    HW187827  11.671   9.328   0.688  0.1276 -0.2323 -0.6322
59683SOL    HW287828  11.806   9.260   0.700 -0.1868 -0.6771  0.5264
59684SOL     OW87829  11.830   5.763   7.352 -0.5456 -0.1713  0.4463
59684SOL    HW187830  11.897   5.830   7.338 -0.5340 -0.4872 -1.2614
59684SOL    HW287831  11.768   5.775   7.280 -0.7336 -1.7362  0.3093
59685SOL     OW87832   5.594   0.300   2.558 -0.0836 -0.4129 -0.4556
59685SOL    HW187833   5.685   0.284   2.581 -0.3917 -0.4583  0.8114
59685SOL    HW287834   5.553   0.330   2.639 -0.7290  1.7075 -1.4676
59686SOL     OW87835   9.285  11.760  11.419 -0.5299  0.2508 -0.4490
59686SOL    HW187836   9.236  11.828  11.464 -1.1424 -0.2148 -0.4024
59686SOL    HW287837   9.348  11.728  11.485  0.3461  1.3300 -0.7243
59687SOL     OW87838   6.249   0.415   5.886 -0.3259 -0.1756  0.6003
59687SOL    HW187839   6.261   0.463   5.803  2.0631 -0.0673  0.9242
59687SOL    HW287840   6.311   0.342   5.880  1.1683  0.7973  2.9607
59688SOL     OW87841   0.471   0.340   3.734  0.3974  0.0624 -0.1955
59688SOL    HW187842   0.481   0.418   3.788  2.4107 -0.2661 -0.0026
59688SOL    HW287843   0.441   0.272   3.794 -0.7294  0.5120 -0.2322
59689SOL     OW87844  10.214   5.538   2.167  0.0115  0.0057 -0.3721
59689SOL    HW187845  10.201   5.563   2.076  0.5475  1.9907  0.0582
59689SOL    HW287846  10.215   5.620   2.215 -0.6299 -1.0105  1.5011
59690SOL     OW87847   1.911  10.429   7.838  0.3692  0.1749 -0.3979
59690SOL    HW187848   1.872  10.359   7.891  1.9772 -0.5220 -0.0713
59690SOL    HW287849   1.882  10.510   7.881  2.5664 -0.3591  2.3908
59691SOL     OW87850   9.164   8.742  10.625 -0.0083 -0.5693 -0.3387
59691SOL    HW187851   9.142   8.701  10.542  1.4329 -1.0660 -0.4970
59691SOL    HW287852   9.171   8.670  10.687  1.5352 -0.4874 -0.3905
59692SOL     OW87853   1.054   6.313   6.481 -0.0309  0.1231 -0.2605
59692SOL    HW187854   1.054   6.408   6.473 -0.7793  0.0569 -1.1341
59692SOL    HW287855   1.025   6.281   6.396 -0.5454 -0.8620  0.2624
59693SOL     OW87856   5.258   9.421   6.851 -0.1682 -0.3354  0.6699
59693SOL    HW187857   5.279   9.331   6.828 -0.9809 -1.0746  2.5724
59693SOL    HW287858   5.172   9.437   6.812  1.0300  0.5595 -1.8260
59694SOL     OW87859   8.418   1.138   9.652 -0.6282  0.6094 -0.1525
59694SOL    HW187860   8.348   1.075   9.666 -0.9746  1.3653  1.7243
59694SOL    HW287861   8.491   1.106   9.705 -0.4486  1.2397 -0.0134
59695SOL     OW87862   5.420   4.284   2.422  0.3595 -0.6030 -0.2656
59695SOL    HW187863   5.513   4.279   2.400  0.1387  0.5679 -1.6010
59695SOL    HW287864   5.390   4.365   2.381 -0.9910 -0.3279  1.1691
59696SOL     OW87865   7.004   2.016   8.299 -0.1913 -0.3150  0.0106
59696SOL    HW187866   7.080   1.961   8.319 -0.8776 -1.1103  0.5222
59696SOL    HW287867   6.970   2.042   8.384 -1.0556 -0.7748 -0.1838
59697SOL     OW87868   9.092   4.001   1.368  0.3544  0.1553 -0.4455
59697SOL    HW187869   9.049   3.995   1.453  0.9930 -2.9187 -0.1878
59697SOL    HW287870   9.149   4.077   1.375 -2.0420  1.9527  0.6082
59698SOL     OW87871   3.126   0.062   7.923  0.7817 -0.4286 -0.3687
59698SOL    HW187872   3.201   0.014   7.958  0.9913 -0.7910 -1.2655
59698SOL    HW287873   3.164   0.124   7.861  0.3117 -1.0461 -1.3044
59699SOL     OW87874   5.970  12.544   6.981  0.2828  0.1920  0.4092
59699SOL    HW187875   6.025  12.484   7.031  1.2499  0.5806 -0.1657
59699SOL    HW287876   5.940  12.608   7.045 -0.3388 -0.5943  0.9239
59700SOL     OW87877   5.188   7.628   5.048 -0.4396 -0.0252  0.0297
59700SOL    HW187878   5.141   7.608   5.129  1.1888 -0.1344  0.9878
59700SOL    HW287879   5.212   7.720   5.057  2.2340 -0.7411  1.0536
59701SOL     OW87880   8.353   0.922   1.305 -0.2060 -0.1261  0.1093
59701SOL    HW187881   8.297   0.998   1.323 -0.2494 -0.0632 -0.2707
59701SOL    HW287882   8.408   0.914   1.382 -0.6192 -0.0773  0.4110
59702SOL     OW87883   1.607  10.532   1.409  0.0224 -0.6429 -0.6472
59702SOL    HW187884   1.599  10.438   1.395  1.6403 -1.0592  0.8962
59702SOL    HW287885   1.535  10.554   1.468 -1.0140 -0.6600 -1.8518
59703SOL     OW87886   7.151   4.218   7.259  0.3554 -0.3236 -0.2142
59703SOL    HW187887   7.136   4.132   7.219  1.3453  0.3869 -2.2265
59703SOL    HW287888   7.086   4.223   7.330 -2.0098 -1.3731 -2.1703
59704SOL     OW87889   6.344  12.314  11.429 -0.1185 -0.5358  0.1859
59704SOL    HW187890   6.301  12.398  11.412  0.3477 -0.5080 -0.9116
59704SOL    HW287891   6.273  12.256  11.456 -0.3895  0.3102  1.4232
59705SOL     OW87892   5.458   7.032   5.106 -0.1745 -0.7662 -0.0024
59705SOL    HW187893   5.508   6.951   5.107  0.0503 -0.6392  1.5067
59705SOL    HW287894   5.508   7.092   5.161 -1.6879 -0.4759  1.1375
59706SOL     OW87895   8.613  11.672   3.231 -0.0143 -0.3197  0.4613
59706SOL    HW187896   8.564  11.597   3.198 -0.6095  0.1681  0.2282
59706SOL    HW287897   8.681  11.687   3.165 -0.0377 -0.5078  0.3926
59707SOL     OW87898  11.589  11.859   6.923  0.2738 -0.2076  0.1148
59707SOL    HW187899  11.540  11.869   6.842 -0.4107 -0.3974  0.5018
59707SOL    HW287900  11.557  11.777   6.961 -0.0010  0.2824  0.9701
59708SOL     OW87901  12.133   7.625   5.442  0.5195  0.0192 -0.4901
59708SOL    HW187902  12.152   7.533   5.460  2.0070  0.2232 -0.8610
59708SOL    HW287903  12.109   7.626   5.349  1.1595  0.0926 -0.6558
59709SOL     OW87904   2.901  12.308   4.827  0.1517  0.3398  0.2697
59709SOL    HW187905   2.971  12.272   4.772 -0.1464  0.5884 -0.2803
59709SOL    HW287906   2.832  12.241   4.824  0.1693  0.3137  0.4210
59710SOL     OW87907  11.571   4.234   2.986 -0.3713 -0.3220 -0.4221
59710SOL    HW187908  11.485   4.261   2.953 -0.3499  0.9000  0.4748
59710SOL    HW287909  11.553   4.197   3.072  0.2242  2.3062  0.9266
59711SOL     OW87910   6.003   1.382   5.267  0.0189 -0.6335  0.5702
59711SOL    HW187911   6.086   1.343   5.296  1.3323  0.6779 -1.1763
59711SOL    HW287912   6.003   1.469   5.306 -0.8240 -0.8163  0.9946
59712SOL     OW87913  12.518  11.152   5.999  0.5874 -0.1197  0.1491
59712SOL    HW187914  12.585  11.089   6.026 -0.3324 -0.7279  1.0418
59712SOL    HW287915  12.445  11.098   5.969  0.2961  0.5410 -0.3585
59713SOL     OW87916   6.091   9.633   0.137  0.5687 -0.6853  0.3856
59713SOL    HW187917   6.151   9.568   0.101  1.4461  0.0062  0.5650
59713SOL    HW287918   6.070   9.601   0.225  0.0988 -1.2864  0.0669
59714SOL     OW87919   6.335   8.631  10.518 -0.0050  0.0081  0.1855
59714SOL    HW187920   6.368   8.595  10.600  0.2398  0.4627  0.2908
59714SOL    HW287921   6.252   8.585  10.503 -1.4134  1.7268  2.0465
59715SOL     OW87922   3.612   5.830   0.906  0.4127  0.3339 -0.5010
59715SOL    HW187923   3.590   5.772   0.833  1.0851 -0.9875  0.2860
59715SOL    HW287924   3.644   5.770   0.974 -0.9877  1.4350  1.1954
59716SOL     OW87925   0.465   7.234   2.165 -0.5138  0.3965 -0.5130
59716SOL    HW187926   0.437   7.172   2.098  0.3099  0.5418 -0.9969
59716SOL    HW287927   0.518   7.298   2.118 -1.2772  1.4314 -0.0088
59717SOL     OW87928   7.471   6.332   3.905 -0.0951 -0.3185  0.1775
59717SOL    HW187929   7.384   6.293   3.910 -0.6306  0.7979 -0.0402
59717SOL    HW287930   7.486   6.343   3.811  1.4373 -2.9239  0.0184
59718SOL     OW87931   6.757   6.186   4.150  0.2644  0.1804  0.5462
59718SOL    HW187932   6.845   6.196   4.113 -0.2936  1.0037 -0.6298
59718SOL    HW287933   6.744   6.265   4.202 -0.2464  0.7107 -0.3489
59719SOL     OW87934   7.780   9.418   8.503  0.0880  0.3205 -0.1652
59719SOL    HW187935   7.863   9.372   8.494 -0.7465 -1.8173  2.0858
59719SOL    HW287936   7.730   9.392   8.425  0.9314  0.3492 -0.7279
59720SOL     OW87937   2.197   5.135   2.673  0.0552  0.0488 -0.4838
59720SOL    HW187938   2.116   5.129   2.724 -1.6303 -2.4512 -3.1461
59720SOL    HW287939   2.259   5.082   2.722 -1.0321 -0.9857 -0.1617
59721SOL     OW87940   8.019   5.157   8.754  0.0288  0.3588  0.0520
59721SOL    HW187941   8.062   5.123   8.676  1.5020 -0.3949  1.1430
59721SOL    HW287942   7.929   5.125   8.748  0.4930 -0.8603 -0.6407
59722SOL     OW87943   5.915   4.832   5.503  0.2229  0.7380  0.1676
59722SOL    HW187944   5.837   4.836   5.558  0.3028  0.0248  0.3477
59722SOL    HW287945   5.988   4.824   5.565  0.4285  1.2221 -0.0039
59723SOL     OW87946  12.540   7.981   1.300 -0.2467 -0.0682  0.7143
59723SOL    HW187947  12.615   8.030   1.333 -0.2506  1.3049 -1.1194
59723SOL    HW287948  12.577   7.906   1.254 -0.0227  0.2305  0.4034
59724SOL     OW87949   2.116   2.422   3.994  0.4445 -0.5070  0.2175
59724SOL    HW187950   2.147   2.456   4.078 -0.6959 -0.3973  0.6041
59724SOL    HW287951   2.084   2.500   3.947 -1.2438 -0.8753  0.7039
59725SOL     OW87952   1.853   1.647   0.013 -0.3277  0.0304  0.2643
59725SOL    HW187953   1.944   1.618   0.014 -0.1502  0.3644 -1.7592
59725SOL    HW287954   1.801   1.567   0.002 -0.0438  0.0993 -1.9194
59726SOL     OW87955   7.908   5.798   0.917 -0.2094 -0.1963 -0.3328
59726SOL    HW187956   7.973   5.728   0.923 -2.4632 -2.3922  0.1276
59726SOL    HW287957   7.903   5.835   1.005  1.1331  0.7821 -0.6252
59727SOL     OW87958   1.139   5.910   9.543 -0.0937  0.1372 -0.1686
59727SOL    HW187959   1.214   5.892   9.487  0.0817  1.1271 -0.2617
59727SOL    HW287960   1.175   5.914   9.631 -0.1593 -0.1095 -0.1291
59728SOL     OW87961   5.363   7.316   0.136 -0.0646 -0.3600 -0.5292
59728SOL    HW187962   5.278   7.271   0.130  0.0863 -1.2200  2.2120
59728SOL    HW287963   5.340   7.409   0.134 -1.2669 -0.5617  1.3888
59729SOL     OW87964   8.710   1.542   9.303  0.3799  0.0094  0.1075
59729SOL    HW187965   8.665   1.480   9.361 -0.8265  0.7380 -0.0278
59729SOL    HW287966   8.755   1.487   9.240 -0.6587 -0.7428 -0.0035
59730SOL     OW87967  12.071   3.793   7.612  0.0255 -0.1280 -0.1499
59730SOL    HW187968  12.090   3.714   7.663 -0.4190  0.1613  0.4652
59730SOL    HW287969  12.098   3.770   7.523  0.8268 -0.6321  0.2041
59731SOL     OW87970   4.567   9.425   8.080  0.3729 -0.1347  0.7280
59731SOL    HW187971   4.584   9.355   8.143 -2.0582  1.7169  3.7590
59731SOL    HW287972   4.611   9.501   8.117 -1.4538  1.1012  0.5142
59732SOL     OW87973  10.204  11.022   2.780  0.3399 -0.2334 -0.2133
59732SOL    HW187974  10.170  10.940   2.816 -2.0502  0.2081 -1.2555
59732SOL    HW287975  10.180  11.019   2.687  0.5369  1.4665 -0.3592
59733SOL     OW87976   0.061  10.456   4.549 -0.6670 -0.1489 -0.2754
59733SOL    HW187977   0.131  10.415   4.600 -0.2439 -0.6930 -1.2704
59733SOL    HW287978   0.042  10.537   4.596 -1.6449 -1.5020  1.8465
59734SOL     OW87979   9.970   1.328  12.479 -0.2959 -0.4214  0.3433
59734SOL    HW187980   9.936   1.298  12.564 -1.1463 -0.0964  0.1214
59734SOL    HW287981  10.065   1.327  12.491 -0.4026 -0.2280  1.3595
59735SOL     OW87982  10.338   7.570  11.793 -0.5303  0.2492 -0.0191
59735SOL    HW187983  10.267   7.569  11.729  0.2634 -1.8738 -0.9661
59735SOL    HW287984  10.320   7.496  11.850  0.9335 -0.4214 -0.3624
59736SOL     OW87985   3.814   7.722   8.120 -0.5383  0.1958 -0.1513
59736SOL    HW187986   3.833   7.657   8.187  0.1949  1.1903  0.6373
59736SOL    HW287987   3.828   7.806   8.164 -0.2934  0.8743 -1.4872
59737SOL     OW87988   3.435  12.219   5.527 -0.9106  0.5219 -0.4285
59737SOL    HW187989   3.500  12.274   5.483 -0.6363  1.1421  0.7216
59737SOL    HW287990   3.352  12.266   5.515 -1.0241  0.1591 -1.1579
59738SOL     OW87991  12.533   6.888   1.627  0.1494 -0.4057 -0.0748
59738SOL    HW187992  12.533   6.816   1.564  1.2732 -0.7760  0.3263
59738SOL    HW287993  12.506   6.848   1.710 -1.1712  0.0471 -0.2641
59739SOL     OW87994   5.479   7.947   2.526 -0.5018  0.1506  0.3366
59739SOL    HW187995   5.489   7.947   2.621  0.5359  1.3084  0.2463
59739SOL    HW287996   5.407   7.885   2.510 -0.8653  0.1267  1.8789
59740SOL     OW87997   6.618   5.107   6.399 -0.1511 -0.1418  0.0840
59740SOL    HW187998   6.705   5.073   6.420 -0.2383 -0.0213  0.6683
59740SOL    HW287999   6.566   5.029   6.381 -0.2680 -0.3113  1.1034
59741SOL     OW88000  11.234   0.334   7.481  0.6858 -0.4225 -0.1525
59741SOL    HW188001  11.310   0.383   7.449  0.1309  0.1725 -0.5745
59741SOL    HW288002  11.206   0.382   7.559  1.0191 -0.9119  0.2761
59742SOL     OW88003  11.926   2.030  10.222  0.5045 -0.3803  0.0497
59742SOL    HW188004  11.834   2.003  10.218 -0.1934  1.8225 -0.6450
59742SOL    HW288005  11.956   2.003  10.309 -0.2181 -2.7186 -0.3714
59743SOL     OW88006   5.448   8.630   3.361 -0.0073 -0.6190  0.1328
59743SOL    HW188007   5.510   8.573   3.406 -0.4180  0.4612  2.1788
59743SOL    HW288008   5.500   8.707   3.336 -0.2972 -0.1234  1.0191
59744SOL     OW88009   7.021   0.440   1.608  0.2325 -0.0360 -0.0234
59744SOL    HW188010   7.006   0.455   1.701 -1.4349  1.2658 -0.4665
59744SOL    HW288011   7.107   0.398   1.604  1.7690  2.6631  1.8751
59745SOL     OW88012   2.249  11.222  10.853  0.2587 -0.3956  0.2873
59745SOL    HW188013   2.255  11.262  10.766  0.0965  0.0816  0.4883
59745SOL    HW288014   2.252  11.128  10.837  1.4007 -0.3044 -0.1514
59746SOL     OW88015   5.436  10.896   3.172  0.5245 -0.0880  0.0310
59746SOL    HW188016   5.366  10.831   3.161  0.4660  0.2787 -2.0843
59746SOL    HW288017   5.506  10.865   3.115  0.7706  1.3189 -0.4647
59747SOL     OW88018   1.456   4.499   3.754  1.0091 -0.2765  0.4976
59747SOL    HW188019   1.500   4.571   3.707 -0.3742  0.6804  0.5853
59747SOL    HW288020   1.404   4.455   3.687  1.7356 -1.1268  0.4761
59748SOL     OW88021   7.954   5.453   5.067  0.4864 -0.2269  0.5688
59748SOL    HW188022   7.921   5.372   5.106  2.1779 -0.0350  2.5833
59748SOL    HW288023   7.907   5.523   5.113  0.3528 -0.0256  0.1314
59749SOL     OW88024  10.338   2.175  10.119 -0.3451  0.0150  0.6590
59749SOL    HW188025  10.391   2.123  10.059 -0.0570 -0.9264  1.6975
59749SOL    HW288026  10.250   2.140  10.112 -0.3895  0.1555  0.5101
59750SOL     OW88027   9.429  12.238   7.781 -0.3978 -0.1978  0.1289
59750SOL    HW188028   9.384  12.165   7.739  1.7110 -0.9074 -1.0251
59750SOL    HW288029   9.485  12.199   7.847 -2.6896  0.8217  2.8899
59751SOL     OW88030   9.448   4.562   5.860 -0.1263  0.2880 -0.0862
59751SOL    HW188031   9.465   4.655   5.879  1.2642  0.1146 -0.3447
59751SOL    HW288032   9.427   4.560   5.767  0.1789  0.3145 -0.1579
59752SOL     OW88033   1.991   8.418   7.648 -0.6997 -0.8843  0.8963
59752SOL    HW188034   2.020   8.355   7.714 -0.7775 -0.2177  1.5711
59752SOL    HW288035   1.954   8.364   7.578 -0.6640 -1.5948  1.4190
59753SOL     OW88036   7.772   5.465   3.064  0.3617 -0.0325 -0.4820
59753SOL    HW188037   7.824   5.390   3.093  0.8012 -0.0879 -1.3939
59753SOL    HW288038   7.758   5.516   3.144 -0.1103 -1.1618  0.1971
59754SOL     OW88039   0.758   2.770   3.574  0.1747 -0.0949 -0.0201
59754SOL    HW188040   0.740   2.860   3.599 -1.7542 -1.0936  2.6252
59754SOL    HW288041   0.672   2.734   3.550  0.8333 -1.3455 -0.6183
59755SOL     OW88042   3.104   9.679   6.875 -0.1154 -0.4338 -0.3596
59755SOL    HW188043   3.174   9.641   6.928  0.2272 -0.5856 -0.9100
59755SOL    HW288044   3.119   9.773   6.878 -1.0429 -0.3095  1.1176
59756SOL     OW88045   8.667   2.969   2.332  0.1337 -0.3736  0.2313
59756SOL    HW188046   8.747   2.950   2.381  0.2540 -2.9130 -0.7677
59756SOL    HW288047   8.693   3.038   2.270  0.8729  0.5007  1.4854
59757SOL     OW88048   9.708   1.046   5.078 -0.2776  0.0734 -0.1343
59757SOL    HW188049   9.665   1.125   5.044  1.7657  1.0009 -0.6872
59757SOL    HW288050   9.729   0.995   5.000  0.0079 -0.1758  0.1040
59758SOL     OW88051   1.918   2.464   4.713 -0.7956 -0.3425  0.2384
59758SOL    HW188052   1.854   2.486   4.645 -2.5534 -0.8816  1.6221
59758SOL    HW288053   1.866   2.460   4.794  0.9098 -1.3698  1.3436
59759SOL     OW88054   6.222   2.058  11.651  0.4259  0.5168 -0.0468
59759SOL    HW188055   6.244   2.151  11.650 -1.0953  0.9130 -1.7864
59759SOL    HW288056   6.212   2.037  11.744  1.1723  1.9701  0.4049
59760SOL     OW88057   0.373   2.369   0.695 -0.3850  0.2393  0.2139
59760SOL    HW188058   0.399   2.409   0.613 -1.0253  0.5519  0.1592
59760SOL    HW288059   0.378   2.440   0.759  0.0655  0.0089  0.4375
59761SOL     OW88060   1.480   5.038  11.745 -0.4724 -0.7327  0.3850
59761SOL    HW188061   1.435   5.054  11.662 -0.4201 -2.1997  0.0538
59761SOL    HW288062   1.414   5.054  11.812 -0.6176  0.0892  0.0631
59762SOL     OW88063   9.538   8.996   3.016 -0.2621  0.1705  0.3685
59762SOL    HW188064   9.516   8.903   3.017  0.1827  0.0521  2.2307
59762SOL    HW288065   9.453   9.041   3.025 -0.3028 -0.1246  1.5777
59763SOL     OW88066   2.501   9.486   4.420  0.0020 -0.6431 -0.1320
59763SOL    HW188067   2.460   9.571   4.403 -0.6308 -0.6840  1.0530
59763SOL    HW288068   2.462   9.457   4.502  0.8622 -1.6822 -0.0678
59764SOL     OW88069  10.425   5.141   1.163  0.2808 -0.2032 -0.0188
59764SOL    HW188070  10.417   5.158   1.069 -0.3660  3.2074  0.5241
59764SOL    HW288071  10.371   5.063   1.178  1.3858 -1.5840 -2.5862
59765SOL     OW88072  11.622   6.298   4.854  0.3576 -0.3263  0.3675
59765SOL    HW188073  11.698   6.257   4.812 -0.2725 -1.8838  0.6751
59765SOL    HW288074  11.638   6.392   4.845  2.2440 -0.6079  0.2947
59766SOL     OW88075  12.240   8.422   5.497  0.2116 -0.3237  0.2450
59766SOL    HW188076  12.193   8.464   5.569  0.7271  1.3830 -0.3829
59766SOL    HW288077  12.330   8.452   5.505  0.3657 -0.4317 -0.8764
59767SOL     OW88078   9.891   4.125  10.384 -0.1646 -0.3487 -0.5094
59767SOL    HW188079   9.953   4.157  10.318 -1.2255 -1.4258 -2.0928
59767SOL    HW288080   9.937   4.052  10.426 -0.2033 -0.8853 -1.3917
59768SOL     OW88081   5.165   7.473   1.490 -0.1168 -0.7352 -0.0968
59768SOL    HW188082   5.251   7.512   1.506 -0.2910 -0.7392  0.9178
59768SOL    HW288083   5.111   7.506   1.561 -1.8413  1.8296 -2.4194
59769SOL     OW88084   0.461   6.963   0.884  0.4348  0.9289 -0.3604
59769SOL    HW188085   0.446   6.869   0.891  3.0568  0.5636  2.7601
59769SOL    HW288086   0.390   7.002   0.936  0.2295  0.5746 -0.3699
59770SOL     OW88087  10.965   2.888   9.816 -0.5765 -0.0891  0.1680
59770SOL    HW188088  11.056   2.915   9.812 -0.3891 -0.7584 -0.1690
59770SOL    HW288089  10.952   2.857   9.905 -0.5319  0.1833  0.2711
59771SOL     OW88090  12.038   2.033   3.138  0.0010 -0.2198  0.1687
59771SOL    HW188091  12.069   2.117   3.172  0.2679 -0.9386  1.7704
59771SOL    HW288092  12.080   1.968   3.193 -1.6359 -1.3526  0.1248
59772SOL     OW88093  10.930  12.451  11.857 -0.4947  0.5678  0.3643
59772SOL    HW188094  10.937  12.543  11.832  0.2999  0.4125 -0.0041
59772SOL    HW288095  10.983  12.405  11.793 -1.9004 -0.2964 -0.2244
59773SOL     OW88096   9.540   3.489  12.304  0.1038  0.2253  0.7476
59773SOL    HW188097   9.576   3.416  12.355  1.3793 -0.3013 -0.8064
59773SOL    HW288098   9.606   3.558  12.311 -0.8759  1.0994  1.8134
59774SOL     OW88099  10.940   9.505   8.063 -0.4319  0.1335  0.0115
59774SOL    HW188100  10.965   9.578   8.007  0.4473  1.5003  2.0678
59774SOL    HW288101  10.894   9.545   8.136 -1.8661 -1.6245  0.1414
59775SOL     OW88102   4.209   0.499   8.180  0.1263 -0.2268 -0.5121
59775SOL    HW188103   4.265   0.427   8.207  1.3653  0.5914 -0.8211
59775SOL    HW288104   4.199   0.488   8.085  0.1109 -0.1252 -0.5229
59776SOL     OW88105   0.959   4.908   2.098  0.2323  0.0274 -0.1992
59776SOL    HW188106   1.017   4.834   2.117 -0.3326  0.2309  2.8958
59776SOL    HW288107   0.912   4.882   2.019  1.0002 -2.3322  0.0299
59777SOL     OW88108  11.525   9.598  11.582 -0.1158 -0.0994  0.0358
59777SOL    HW188109  11.460   9.528  11.587 -2.5255  1.5207 -3.8717
59777SOL    HW288110  11.583   9.572  11.510 -0.3919  1.3546 -0.7491
59778SOL     OW88111   1.117  10.570   8.044  0.1912  0.3516 -0.4331
59778SOL    HW188112   1.073  10.634   7.988  0.5714  0.3758 -0.7133
59778SOL    HW288113   1.130  10.615   8.127 -2.9172 -0.6052  0.6784
59779SOL     OW88114   1.187  11.363   2.667 -0.3426  0.6629  0.3903
59779SOL    HW188115   1.129  11.436   2.641  0.9749  2.0496  1.1636
59779SOL    HW288116   1.271  11.406   2.687  0.4005 -1.0641  1.1152
59780SOL     OW88117   4.265   5.061   4.703  0.3189 -0.7207 -0.5562
59780SOL    HW188118   4.355   5.090   4.716 -0.0141 -0.8739  2.6965
59780SOL    HW288119   4.218   5.141   4.677  1.2782 -0.6047 -2.0969
59781SOL     OW88120   8.782  11.792  10.184  0.4437 -0.2155 -0.1112
59781SOL    HW188121   8.829  11.783  10.102  1.0725  1.1955  0.0716
59781SOL    HW288122   8.798  11.882  10.212 -0.7315 -0.3052  0.9651
59782SOL     OW88123   6.031  10.139   6.392 -0.1471 -0.3205 -0.2325
59782SOL    HW188124   6.058  10.123   6.482  0.9814 -0.3862 -0.5681
59782SOL    HW288125   5.978  10.219   6.396 -0.6045 -0.6561  0.5608
59783SOL     OW88126   8.743  10.832   0.631 -0.0771  0.2103 -0.1118
59783SOL    HW188127   8.718  10.798   0.546  0.1681 -1.0197  0.2899
59783SOL    HW288128   8.693  10.913   0.640 -0.3151  0.2104 -1.2929
59784SOL     OW88129   1.176  10.213   7.564 -0.7493 -0.9629 -0.0524
59784SOL    HW188130   1.132  10.234   7.482  0.5554  2.4066 -0.0569
59784SOL    HW288131   1.109  10.226   7.632 -1.2573 -1.6527 -0.4120
59785SOL     OW88132   0.902   7.589   2.283 -0.4742 -0.8796  0.3088
59785SOL    HW188133   0.880   7.526   2.215 -0.7939 -1.1648  0.6643
59785SOL    HW288134   0.882   7.543   2.365 -1.0636 -0.1917  0.5615
59786SOL     OW88135  11.986   7.777   2.722 -0.1692 -0.4096 -0.2060
59786SOL    HW188136  11.896   7.758   2.694  0.4251 -2.1699 -1.0352
59786SOL    HW288137  12.026   7.692   2.734  0.9476  0.3267  1.7992
59787SOL     OW88138   5.387   1.743  11.911  0.2707 -0.2540  0.4397
59787SOL    HW188139   5.465   1.784  11.874 -1.2518  0.7224 -1.9272
59787SOL    HW288140   5.354   1.806  11.973  0.7329 -0.1732  0.6113
59788SOL     OW88141  10.388   5.309  11.972 -0.0739  0.1793 -0.3861
59788SOL    HW188142  10.482   5.291  11.975 -0.3186 -1.1763 -0.5310
59788SOL    HW288143  10.352   5.268  12.050 -0.5484  0.7647 -0.2810
59789SOL     OW88144   0.333  12.315   9.030 -0.1478 -0.2875  0.2892
59789SOL    HW188145   0.308  12.370   8.956  0.9256 -2.1045 -1.5282
59789SOL    HW288146   0.429  12.318   9.030 -0.1122 -1.1413  0.9310
59790SOL     OW88147   6.211   3.280   0.069  0.3872 -0.0919 -0.5274
59790SOL    HW188148   6.194   3.348   0.136  2.3232  0.2016 -0.2613
59790SOL    HW288149   6.208   3.198   0.118  0.1340 -0.0161 -0.4131
59791SOL     OW88150   0.163   2.785   9.543 -1.2057 -0.3335  0.0867
59791SOL    HW188151   0.126   2.706   9.582 -0.9701 -0.9646 -0.9277
59791SOL    HW288152   0.251   2.791   9.578 -0.7384 -1.2979 -0.8559
59792SOL     OW88153   4.259   7.765   3.466 -0.6418 -0.1790 -0.0915
59792SOL    HW188154   4.203   7.696   3.501 -1.4824  0.8774  0.7079
59792SOL    HW288155   4.341   7.756   3.514 -0.4573 -1.1080 -0.5588
59793SOL     OW88156  10.395   2.644   1.247  0.3396 -0.0194  0.3289
59793SOL    HW188157  10.344   2.720   1.220  0.5362 -0.0432 -0.1233
59793SOL    HW288158  10.446   2.674   1.321  0.9327  0.4950 -0.2725
59794SOL     OW88159   2.763   0.865   1.366 -0.7280  0.6348 -0.1697
59794SOL    HW188160   2.855   0.848   1.390  0.6072  3.8227 -2.3026
59794SOL    HW288161   2.716   0.857   1.449  1.6945  0.1364  1.2859
59795SOL     OW88162   9.493   4.600   3.263  0.1834  0.4314  0.5299
59795SOL    HW188163   9.496   4.634   3.174  1.2776  0.8793  0.7122
59795SOL    HW288164   9.575   4.550   3.272 -1.2262 -2.1087  0.3545
59796SOL     OW88165   9.521   0.752   4.047  0.0958  0.5073  0.0348
59796SOL    HW188166   9.496   0.669   4.088 -0.5739  1.3413  1.4108
59796SOL    HW288167   9.586   0.728   3.981 -1.5547 -1.3175 -1.0001
59797SOL     OW88168   2.437  10.562   4.985 -0.4118 -0.4744 -0.4179
59797SOL    HW188169   2.342  10.557   5.000 -0.3447 -0.3500  0.0587
59797SOL    HW288170   2.476  10.536   5.068 -0.0279 -0.0060 -0.4488
59798SOL     OW88171   9.347   0.144   5.871 -0.4859  0.3069  0.4484
59798SOL    HW188172   9.397   0.076   5.916 -0.3151 -0.4816 -0.8644
59798SOL    HW288173   9.409   0.183   5.811 -0.9473  0.6577  0.1942
59799SOL     OW88174   0.155   0.242   7.532  0.2324  0.3233 -0.1111
59799SOL    HW188175   0.187   0.184   7.463 -1.1859 -1.8229  0.9099
59799SOL    HW288176   0.232   0.260   7.586  0.8685  0.0934 -0.9296
59800SOL     OW88177   9.370  10.388  11.568 -0.4912  0.4961 -0.0680
59800SOL    HW188178   9.348  10.298  11.589  1.5485  0.1934  1.0808
59800SOL    HW288179   9.353  10.396  11.474 -0.5002 -1.1483 -0.2343
59801SOL     OW88180   7.326   2.422   4.991 -0.2779  0.1646  0.2355
59801SOL    HW188181   7.360   2.336   4.967 -1.0852 -0.6559  1.8382
59801SOL    HW288182   7.308   2.415   5.085 -2.2052  1.4211  0.0221
59802SOL     OW88183   5.851   5.622   8.224 -0.3327 -0.1182  0.0438
59802SOL    HW188184   5.782   5.687   8.209  0.5274  0.5188 -1.3162
59802SOL    HW288185   5.920   5.645   8.162  0.0671 -2.2588 -0.3897
59803SOL     OW88186   7.250   5.270  11.626 -0.1551 -0.5429 -0.4364
59803SOL    HW188187   7.302   5.216  11.685 -0.0404 -0.3774 -0.3871
59803SOL    HW288188   7.247   5.356  11.668 -2.0683 -1.0372  0.5360
59804SOL     OW88189   9.632   4.595   1.487 -0.3707  0.5215  0.2028
59804SOL    HW188190   9.704   4.651   1.516  0.4067 -0.6866  0.6675
59804SOL    HW288191   9.553   4.642   1.515  0.1496  2.4545 -1.3905
59805SOL     OW88192   1.488  10.426   5.639 -0.3438  0.1551  0.3601
59805SOL    HW188193   1.471  10.382   5.722 -3.9915 -1.1535 -0.8888
59805SOL    HW288194   1.546  10.368   5.592 -0.7165 -0.6197  0.8430
59806SOL     OW88195  12.574  10.266  11.332  0.4139  0.1150 -0.3406
59806SOL    HW188196  12.479  10.256  11.326  0.1788  1.2873  0.9061
59806SOL    HW288197  12.587  10.332  11.400  2.1243  0.0815 -0.5852
59807SOL     OW88198   1.279   9.971   5.549 -0.5567  0.0940  0.1378
59807SOL    HW188199   1.234   9.972   5.465 -1.7941  0.4609  0.7787
59807SOL    HW288200   1.216  10.009   5.610  1.5735  3.1409  0.6133
59808SOL     OW88201   9.998   0.043   9.312  0.3468  0.0078  0.2802
59808SOL    HW188202  10.005   0.135   9.336  2.5433  0.1380 -0.6305
59808SOL    HW288203  10.048   0.035   9.231  0.2212 -1.9896  0.3394
59809SOL     OW88204   7.081   6.864   4.649 -0.4578  0.5664 -0.2871
59809SOL    HW188205   7.132   6.791   4.684 -0.7379 -0.3943 -1.7644
59809SOL    HW288206   7.003   6.868   4.705  0.0460  0.3925  0.4267
59810SOL     OW88207   7.607   0.523   3.281  0.6984  0.2909  0.2780
59810SOL    HW188208   7.542   0.578   3.326  0.1755  0.5207 -0.7165
59810SOL    HW288209   7.682   0.521   3.340 -0.8707 -1.5998  2.4231
59811SOL     OW88210   0.707   4.428   8.543  0.0324  0.1595 -0.2779
59811SOL    HW188211   0.791   4.468   8.524 -0.0095  0.5369  0.3059
59811SOL    HW288212   0.714   4.400   8.634 -0.0310 -0.9404 -0.5941
59812SOL     OW88213   0.473   7.995  10.231 -0.0784 -0.4105  0.1688
59812SOL    HW188214   0.395   7.946  10.205  0.2319 -0.1362 -1.4372
59812SOL    HW288215   0.542   7.929  10.237  1.5114 -0.1325 -6.4822
59813SOL     OW88216   1.310   3.406   0.228 -0.3527 -0.0187 -0.5478
59813SOL    HW188217   1.278   3.495   0.216  0.5532  0.1547 -1.8554
59813SOL    HW288218   1.240   3.351   0.193 -0.8742  0.1668  0.1798
59814SOL     OW88219   3.992  12.155   4.014 -0.5823  0.4032 -0.0508
59814SOL    HW188220   3.966  12.184   3.927 -2.8273  2.3286  1.1262
59814SOL    HW288221   4.003  12.236   4.064  1.7371 -0.6035  1.2268
59815SOL     OW88222   9.841   4.109   2.913 -0.6856 -0.4627  0.1912
59815SOL    HW188223   9.746   4.109   2.899 -0.5293  1.6269 -1.3844
59815SOL    HW288224   9.868   4.020   2.893 -2.0435 -0.5124 -1.7144
59816SOL     OW88225   7.145   1.765  11.815 -0.6365  0.2696  0.0645
59816SOL    HW188226   7.069   1.778  11.872 -0.3064  1.4976  0.2631
59816SOL    HW288227   7.142   1.672  11.792 -1.3511 -0.0362  1.2652
59817SOL     OW88228  10.896   9.141  10.842  0.2095  0.1912  0.0887
59817SOL    HW188229  10.814   9.176  10.876  0.4048 -0.6732  1.5927
59817SOL    HW288230  10.964   9.193  10.886  0.4680 -0.4050  0.4075
59818SOL     OW88231   7.844   0.720   4.503  0.4119 -0.2826 -0.4206
59818SOL    HW188232   7.918   0.676   4.546  0.7950 -0.1347 -0.9065
59818SOL    HW288233   7.822   0.792   4.561  0.0932 -0.8274  0.1483
59819SOL     OW88234   9.597   9.470   7.533 -0.0782  0.2055  0.1242
59819SOL    HW188235   9.649   9.533   7.583  0.5662 -0.9651  0.9724
59819SOL    HW288236   9.662   9.414   7.490 -0.5562  1.8168 -3.0165
59820SOL     OW88237   7.852   9.740  10.806  0.1174  0.5193  0.1078
59820SOL    HW188238   7.766   9.699  10.799 -1.1933  2.8679  1.3843
59820SOL    HW288239   7.881   9.750  10.715 -0.8639 -0.4710 -0.3377
59821SOL     OW88240   4.624  10.834   0.106 -0.4460 -0.3620 -0.3544
59821SOL    HW188241   4.622  10.837   0.010  0.7339  0.3198 -0.3876
59821SOL    HW288242   4.603  10.924   0.133 -0.6873 -0.5306  0.0227
59822SOL     OW88243   2.038   5.366   5.721 -0.0612  0.2032  0.4777
59822SOL    HW188244   1.989   5.448   5.718 -0.2715  0.0515 -0.4792
59822SOL    HW288245   1.971   5.298   5.736  0.1441  0.2171  1.5753
59823SOL     OW88246   0.734   2.247   2.976 -0.4131 -0.6198  0.3392
59823SOL    HW188247   0.711   2.187   3.047 -0.4389 -0.2010  0.6893
59823SOL    HW288248   0.699   2.205   2.897 -3.4609  0.4938  0.9454
59824SOL     OW88249   0.131   7.350   6.591 -0.0293  0.4171  0.5760
59824SOL    HW188250   0.177   7.363   6.508 -0.1185 -0.7072  0.3227
59824SOL    HW288251   0.078   7.428   6.603 -0.5800  0.2816 -0.8024
59825SOL     OW88252   8.956   4.048   2.902  0.2320  0.0528 -0.4895
59825SOL    HW188253   8.910   4.090   2.975  0.1611  1.0279 -1.0902
59825SOL    HW288254   9.027   4.107   2.881  1.0552 -0.8696 -0.3649
59826SOL     OW88255   2.940   5.429   9.969  0.6271 -0.3363  0.1873
59826SOL    HW188256   3.027   5.390   9.961  0.0544 -2.2871  2.2295
59826SOL    HW288257   2.953   5.507  10.024  1.2191  0.0332 -0.4637
59827SOL     OW88258   7.537   5.417   5.749  0.3739  0.0119  0.1162
59827SOL    HW188259   7.558   5.493   5.803 -1.6349 -0.1695  1.2263
59827SOL    HW288260   7.513   5.349   5.811 -0.0913 -0.8297 -0.9471
59828SOL     OW88261   4.123   7.452   8.418  0.1984 -0.2391  0.0364
59828SOL    HW188262   4.193   7.500   8.461  2.1210 -2.9348  0.1471
59828SOL    HW288263   4.112   7.372   8.470 -1.8465 -0.6696 -0.9222
59829SOL     OW88264  10.984   5.086  10.086  0.0521  0.0637  0.0236
59829SOL    HW188265  11.037   5.155  10.044  1.7366 -0.3231  1.4128
59829SOL    HW288266  10.910   5.133  10.124  1.6796  1.3180  1.8122
59830SOL     OW88267   8.794   0.990   4.496 -0.1257  0.3335 -0.0116
59830SOL    HW188268   8.814   0.979   4.403  1.1828 -1.5721  0.4389
59830SOL    HW288269   8.699   0.980   4.501 -0.0669 -1.0127 -0.9872
59831SOL     OW88270  10.889   2.573   9.973  0.6348  0.3352  0.0998
59831SOL    HW188271  10.886   2.480   9.997 -0.7695  0.0619 -0.9825
59831SOL    HW288272  10.807   2.588   9.926  1.1311  1.9780 -0.3087
59832SOL     OW88273   3.538   5.120   2.388  0.0253 -0.2349  0.1403
59832SOL    HW188274   3.576   5.043   2.344 -1.1388 -0.0593 -1.2281
59832SOL    HW288275   3.495   5.084   2.465 -0.9644 -1.0534 -0.7628
59833SOL     OW88276   0.382   0.377   7.185  0.0530 -0.2439  0.0162
59833SOL    HW188277   0.348   0.288   7.182 -1.1389  0.1659  0.5775
59833SOL    HW288278   0.344   0.420   7.109  0.0389 -0.0148  0.1523
59834SOL     OW88279   2.921   1.717   4.688  0.0579  0.2125  0.7682
59834SOL    HW188280   2.875   1.663   4.752  1.5411  0.4211  2.0945
59834SOL    HW288281   2.894   1.807   4.709 -0.4744  0.1891  0.2105
59835SOL     OW88282   7.268   5.727   4.478  0.0083 -0.4732 -0.0420
59835SOL    HW188283   7.216   5.653   4.510  0.4165 -0.6552  0.2067
59835SOL    HW288284   7.358   5.697   4.484  0.1839  0.0790  0.1417
59836SOL     OW88285   2.842   8.389   0.806 -0.1659 -0.1932 -0.3191
59836SOL    HW188286   2.884   8.340   0.736  0.1191  0.3450 -0.5355
59836SOL    HW288287   2.869   8.346   0.887  0.2407 -0.2625 -0.4929
59837SOL     OW88288   3.481  11.776   7.745 -0.4202  0.1358  0.6573
59837SOL    HW188289   3.497  11.745   7.656 -0.3012  0.5811  0.5215
59837SOL    HW288290   3.517  11.707   7.802 -0.1033  0.0570  0.3619
59838SOL     OW88291   6.682   5.619   0.511 -0.3566 -0.3733  0.7109
59838SOL    HW188292   6.634   5.699   0.493 -3.1950 -1.6196  2.1038
59838SOL    HW288293   6.615   5.551   0.514  1.6125 -2.4021  2.0394
59839SOL     OW88294   6.549   5.182   5.157 -0.3105 -0.5860  0.2980
59839SOL    HW188295   6.585   5.180   5.246 -1.1298 -0.5407  0.6478
59839SOL    HW288296   6.603   5.245   5.110  1.1961 -1.8479  0.2727
59840SOL     OW88297   0.151   7.410   8.041  0.4643 -0.1670  0.4607
59840SOL    HW188298   0.130   7.416   8.135  0.0935 -0.1660  0.3777
59840SOL    HW288299   0.112   7.328   8.013  0.6566 -0.2123  0.3260
59841SOL     OW88300   5.114   1.602   3.573 -0.4898  0.2634 -0.3105
59841SOL    HW188301   5.125   1.635   3.662  1.5116  0.0844 -0.4398
59841SOL    HW288302   5.105   1.681   3.519  1.9396  0.6031 -0.3331
59842SOL     OW88303  11.271   8.513   1.067  0.7069  0.1499 -0.4018
59842SOL    HW188304  11.295   8.599   1.033 -0.0247  2.1417  3.4799
59842SOL    HW288305  11.176   8.518   1.080  0.6102 -1.3566 -0.3579
59843SOL     OW88306   5.973   5.277  12.372  0.4209  0.1196 -0.0524
59843SOL    HW188307   5.938   5.226  12.299  0.1349 -1.1546  0.9361
59843SOL    HW288308   6.067   5.281  12.356  0.2087  1.1737 -1.2611
59844SOL     OW88309   9.582   8.967   6.959 -0.3634  0.5649 -0.4027
59844SOL    HW188310   9.499   8.922   6.974 -0.5861  1.5958  1.7357
59844SOL    HW288311   9.648   8.898   6.969 -0.8415  0.1396 -0.1033
59845SOL     OW88312   2.184   6.045   7.315  0.1026  0.5488  0.2217
59845SOL    HW188313   2.090   6.040   7.297  0.1169 -0.4511  0.3833
59845SOL    HW288314   2.220   6.094   7.241 -0.6406  1.6361  0.5496
59846SOL     OW88315   2.944   3.031   3.590  0.9240  0.0901  0.0943
59846SOL    HW188316   3.031   3.065   3.609  0.3391  1.1625  0.9377
59846SOL    HW288317   2.887   3.107   3.594 -0.2973 -0.8387  1.1699
59847SOL     OW88318   9.182   5.303   5.982  0.1705 -0.5259  0.3101
59847SOL    HW188319   9.182   5.257   6.067 -0.6026 -1.5575 -0.2215
59847SOL    HW288320   9.145   5.389   6.002 -1.3480 -1.2462  0.8014
59848SOL     OW88321   0.752  10.116   6.926 -0.2711 -0.1889 -0.2810
59848SOL    HW188322   0.739  10.074   6.841 -1.5705  0.5815 -0.4810
59848SOL    HW288323   0.817  10.184   6.909 -1.0445  0.4277 -0.8320
59849SOL     OW88324   3.251  10.818   1.015 -0.1711  0.1353 -0.3940
59849SOL    HW188325   3.313  10.747   1.036 -1.6959 -2.1914 -3.1353
59849SOL    HW288326   3.303  10.898   1.025  1.3174 -1.0772  4.0969
59850SOL     OW88327   5.778   7.027   3.626 -0.4375  0.5347  0.8599
59850SOL    HW188328   5.713   7.075   3.576 -1.1955  1.6269  2.7837
59850SOL    HW288329   5.739   6.939   3.637 -0.5248  0.4699  0.0598
59851SOL     OW88330   2.609   3.606  11.786 -0.0822 -0.1731 -0.5114
59851SOL    HW188331   2.637   3.538  11.848  0.5047 -0.2525 -0.8581
59851SOL    HW288332   2.664   3.592  11.709 -2.6298 -1.8662 -2.2097
59852SOL     OW88333   5.842  10.002   6.242  0.1699 -0.1509 -0.4620
59852SOL    HW188334   5.898  10.035   6.313  0.9071 -0.0100 -1.0918
59852SOL    HW288335   5.875   9.914   6.224 -0.2213 -0.3067 -0.4158
59853SOL     OW88336   9.022   5.211   2.970  0.0247 -0.0075  0.1681
59853SOL    HW188337   9.007   5.134   3.025  0.2641  0.8275  1.4449
59853SOL    HW288338   9.106   5.194   2.927  1.1870  0.4568  2.1417
59854SOL     OW88339   9.538   7.339   5.622  0.2812  0.3352 -0.6197
59854SOL    HW188340   9.469   7.387   5.575 -0.1107  0.2684 -0.1221
59854SOL    HW288341   9.500   7.321   5.708 -0.0101 -1.8488 -1.1511
59855SOL     OW88342   1.566   9.633  11.139 -0.3076  0.4233  0.5407
59855SOL    HW188343   1.601   9.568  11.078 -0.3259  0.9475 -0.0397
59855SOL    HW288344   1.629   9.705  11.135 -0.5248  0.6290  0.8311
59856SOL     OW88345   8.475   4.982  11.092 -0.2529  0.1605 -0.4818
59856SOL    HW188346   8.461   4.887  11.101  0.9856 -0.0098 -0.1936
59856SOL    HW288347   8.444   5.019  11.174 -0.4012 -0.0295 -0.4505
59857SOL     OW88348  10.955   1.553   6.901  0.2724  0.1132 -0.5804
59857SOL    HW188349  10.922   1.565   6.812 -1.3251 -0.2742 -0.0827
59857SOL    HW288350  10.931   1.634   6.947 -0.3515 -0.3239 -0.1149
59858SOL     OW88351   4.737   2.018   4.973  0.3657  0.2917  0.6525
59858SOL    HW188352   4.771   1.971   4.896  1.3110  1.6787  0.1730
59858SOL    HW288353   4.778   1.975   5.048  2.2999  1.1520  0.1487
59859SOL     OW88354   0.739   1.165  12.072 -0.2799  0.0986 -0.2753
59859SOL    HW188355   0.820   1.159  12.022 -0.3561  0.0446 -0.3919
59859SOL    HW288356   0.686   1.230  12.026 -1.0762 -1.2228 -1.2922
59860SOL     OW88357   7.201   0.749  10.720 -0.5547  0.0488  0.3799
59860SOL    HW188358   7.212   0.793  10.635 -0.8729 -1.5847 -0.5529
59860SOL    HW288359   7.106   0.736  10.727 -0.6068  0.8466  1.3670
59861SOL     OW88360   7.562   1.878   3.839  0.1656 -0.1709 -0.6126
59861SOL    HW188361   7.639   1.883   3.896  1.1625  0.4986 -1.9642
59861SOL    HW288362   7.553   1.784   3.820 -0.4578 -0.4626  0.9595
59862SOL     OW88363   6.785   5.288   7.390  0.1979  0.2068  0.2637
59862SOL    HW188364   6.723   5.216   7.398  1.5741 -1.3038 -1.6881
59862SOL    HW288365   6.855   5.268   7.451  1.0823 -0.7159 -1.0125
59863SOL     OW88366   3.813  11.564   9.110  0.0297 -0.2113 -0.5948
59863SOL    HW188367   3.738  11.622   9.098 -1.1059 -1.4251  0.2591
59863SOL    HW288368   3.876  11.616   9.160 -1.3541  0.0179  1.0120
59864SOL     OW88369   0.516  12.153   2.360 -0.0771  0.2328  0.0473
59864SOL    HW188370   0.570  12.232   2.369 -0.5814  0.5834  0.0658
59864SOL    HW288371   0.471  12.164   2.276  0.6314 -0.5361 -0.4489
59865SOL     OW88372   6.640  11.180  10.349 -0.6587 -0.3157  0.4867
59865SOL    HW188373   6.631  11.244  10.420 -0.6709  0.8939 -0.5773
59865SOL    HW288374   6.704  11.117  10.382 -1.6405 -0.5210  2.0883
59866SOL     OW88375   6.128   3.153   9.807  0.1732 -0.0310  0.2692
59866SOL    HW188376   6.085   3.235   9.784  0.4710  0.2477  0.7033
59866SOL    HW288377   6.213   3.157   9.764 -0.7300 -1.2045 -1.7993
59867SOL     OW88378  12.265  10.943   7.236 -0.4839 -0.3083  0.8002
59867SOL    HW188379  12.316  10.876   7.191 -1.1629 -1.3545  1.5362
59867SOL    HW288380  12.289  10.934   7.329  1.4711  2.3211  0.6614
59868SOL     OW88381   6.976   7.810   0.193  0.1913  0.0757  0.4586
59868SOL    HW188382   7.015   7.876   0.250  1.6915  0.6807 -1.1745
59868SOL    HW288383   7.050   7.773   0.146 -0.9046 -1.0547 -0.4270
59869SOL     OW88384  11.737   3.458   8.517  0.5587 -0.1787 -0.4492
59869SOL    HW188385  11.814   3.446   8.572  1.1536  1.4512 -0.8764
59869SOL    HW288386  11.716   3.370   8.485 -0.0934 -1.2717  2.6956
59870SOL     OW88387  11.299   7.664   4.529 -0.0191 -0.1744 -0.5696
59870SOL    HW188388  11.324   7.711   4.450 -2.3729 -0.4662 -1.5447
59870SOL    HW288389  11.247   7.726   4.580  0.1285 -0.5066  0.0017
59871SOL     OW88390   1.528  12.593   3.092 -0.3152  0.6668  0.5306
59871SOL    HW188391   1.516  12.602   2.997  1.1331 -0.4910  0.2011
59871SOL    HW288392   1.623  12.597   3.105 -0.4337 -0.0161  1.8240
59872SOL     OW88393  10.992   3.687   3.539 -0.1965  0.2221  0.1904
59872SOL    HW188394  10.962   3.618   3.599  0.7732 -0.5839 -0.2078
59872SOL    HW288395  11.088   3.687   3.550  0.1968 -1.0906 -2.5012
59873SOL     OW88396  12.606   5.769   1.867  1.0430  0.1656  0.1217
59873SOL    HW188397  12.677   5.760   1.804  0.7180 -0.8026 -0.1267
59873SOL    HW288398  12.534   5.806   1.816  0.0688 -2.5812 -0.6971
59874SOL     OW88399   3.679   4.643   7.156 -0.6961 -0.4385 -0.4718
59874SOL    HW188400   3.587   4.666   7.167 -0.3877  0.1211  1.1650
59874SOL    HW288401   3.724   4.687   7.228  0.9786 -0.0203 -1.6944
59875SOL     OW88402   4.107   4.179   9.865 -0.1274  0.1735  0.3344
59875SOL    HW188403   4.134   4.263   9.827  0.1178  0.2019  0.5647
59875SOL    HW288404   4.020   4.196   9.901 -0.4372  0.0980 -0.3620
59876SOL     OW88405   9.587  12.152  11.376 -0.2015  0.0574  0.1108
59876SOL    HW188406   9.502  12.182  11.343  0.4182  1.0876 -0.6170
59876SOL    HW288407   9.633  12.121  11.298  0.4765  0.4940  0.3297
59877SOL     OW88408  10.522   6.529   8.612  0.0060  0.3265 -0.0045
59877SOL    HW188409  10.602   6.478   8.594  0.5604  1.4538 -0.9192
59877SOL    HW288410  10.455   6.464   8.630  1.2557 -0.6398  1.3275
59878SOL     OW88411   0.583   5.498   6.837  0.0805  0.0110  0.0036
59878SOL    HW188412   0.626   5.482   6.753 -0.1604  0.3529 -0.1887
59878SOL    HW288413   0.490   5.500   6.816 -0.0930 -1.4919  0.5422
59879SOL     OW88414   1.097   3.996   3.365 -0.0157  0.3474 -0.3293
59879SOL    HW188415   1.021   3.939   3.371 -1.6621  2.2679 -1.4316
59879SOL    HW288416   1.115   4.022   3.455  0.0450 -0.9962  0.0534
59880SOL     OW88417   6.274   4.672   0.311  0.6983  0.0959 -0.0394
59880SOL    HW188418   6.217   4.618   0.365 -0.4931 -0.4651 -1.7824
59880SOL    HW288419   6.309   4.613   0.245  0.5837  1.1244 -1.0592
59881SOL     OW88420   0.986   4.622  12.520  0.0899  0.2184 -0.3451
59881SOL    HW188421   0.895   4.641  12.494 -0.9035 -0.6258  2.2307
59881SOL    HW288422   0.995   4.527  12.506  0.5850  0.2943 -0.5611
59882SOL     OW88423   4.098   5.292  10.803  0.2297  0.2999  0.7664
59882SOL    HW188424   4.025   5.283  10.864 -0.2818 -0.5438  0.0512
59882SOL    HW288425   4.104   5.206  10.760  0.8712  0.7309 -0.0290
59883SOL     OW88426  11.005  11.350   1.858  0.1140 -0.1410 -0.7148
59883SOL    HW188427  11.069  11.329   1.790  1.9603  1.1695  0.5147
59883SOL    HW288428  11.010  11.445   1.867  0.6556 -0.3427  1.8925
59884SOL     OW88429  11.797  10.132  10.735  0.8693 -0.0256  0.0530
59884SOL    HW188430  11.878  10.124  10.684  1.7508  0.9912  1.2292
59884SOL    HW288431  11.728  10.139  10.669  1.7260 -0.9395 -0.9776
59885SOL     OW88432   5.419   1.111   4.521 -0.3460 -0.6127  0.3194
59885SOL    HW188433   5.489   1.096   4.585  0.8307  2.5606 -0.0609
59885SOL    HW288434   5.356   1.167   4.567 -0.2585  0.4201 -0.7784
59886SOL     OW88435   7.348   7.635   0.848  0.1961  0.2081 -0.2214
59886SOL    HW188436   7.406   7.689   0.901  1.5840 -1.0877 -0.3457
59886SOL    HW288437   7.261   7.675   0.859  0.9422  1.6797  0.6713
59887SOL     OW88438   0.341   4.003   0.599  0.2487 -0.3618  0.1097
59887SOL    HW188439   0.249   3.989   0.577 -0.2240  1.6204  0.6123
59887SOL    HW288440   0.339   4.072   0.666  2.0968 -0.2302  0.0742
59888SOL     OW88441  11.286   7.660   1.286  0.2897 -0.2783 -0.2412
59888SOL    HW188442  11.255   7.742   1.324  1.9022 -0.1022  0.8026
59888SOL    HW288443  11.211   7.602   1.289 -1.1507  1.3666 -1.7652
59889SOL     OW88444  12.190   8.259   8.261 -0.4691  0.0269  0.1764
59889SOL    HW188445  12.119   8.324   8.267 -0.2708  0.4423 -1.4372
59889SOL    HW288446  12.198   8.224   8.350 -0.1330  2.6937  1.2867
59890SOL     OW88447   9.918   4.139   7.339  0.7285 -0.3715 -0.1627
59890SOL    HW188448   9.918   4.141   7.435  0.5734 -0.7207 -0.1527
59890SOL    HW288449   9.975   4.211   7.313 -0.5047  0.7392  0.1606
59891SOL     OW88450   6.809   0.221   1.184 -0.2908 -0.7188  0.2677
59891SOL    HW188451   6.770   0.188   1.265  0.4944 -1.4154  0.3776
59891SOL    HW288452   6.780   0.312   1.179  0.3107 -0.4115  1.7720
59892SOL     OW88453   7.550   0.284   2.785  0.0216 -0.1714  0.0285
59892SOL    HW188454   7.547   0.371   2.823  1.6887  0.2604 -0.7351
59892SOL    HW288455   7.602   0.232   2.846  0.0405 -0.3212 -0.1123
59893SOL     OW88456   3.563   6.425   1.268  0.0702  0.0687  0.3065
59893SOL    HW188457   3.628   6.424   1.198 -1.7985  1.4792 -1.6203
59893SOL    HW288458   3.488   6.378   1.232 -1.7108  2.5903  0.4365
59894SOL     OW88459   0.193   6.372   1.343 -0.2493 -0.1467  0.0674
59894SOL    HW188460   0.162   6.430   1.273  1.0746  1.7234  0.9341
59894SOL    HW288461   0.254   6.426   1.393 -0.6355 -1.6307  2.2725
59895SOL     OW88462   8.612  11.589   4.203 -0.1509 -0.0055  0.3183
59895SOL    HW188463   8.574  11.544   4.128  2.6739 -1.1178 -0.5723
59895SOL    HW288464   8.593  11.681   4.188 -1.6872 -0.4152 -0.4688
59896SOL     OW88465   0.274   7.216   7.177 -0.0425  0.2860  0.4143
59896SOL    HW188466   0.238   7.171   7.101 -0.7344  1.0544  0.2694
59896SOL    HW288467   0.285   7.307   7.149 -0.6936  0.6677  1.3401
59897SOL     OW88468   5.035   1.669  12.596  0.0159 -0.3646 -0.4429
59897SOL    HW188469   5.020   1.576  12.616 -0.3727 -0.1892  0.0948
59897SOL    HW288470   5.020   1.674  12.501 -1.1798 -0.6330 -0.2875
59898SOL     OW88471   5.420   5.661  11.054  0.4669 -0.5519 -0.0296
59898SOL    HW188472   5.456   5.734  11.003 -3.6647  1.1184 -0.9331
59898SOL    HW288473   5.366   5.704  11.121 -1.5130 -2.7502 -0.1172
59899SOL     OW88474   5.666   7.263   1.966  0.0128  0.5769  0.0860
59899SOL    HW188475   5.734   7.324   1.935 -0.1809  0.4209 -0.6529
59899SOL    HW288476   5.620   7.312   2.034 -0.2608  1.3387 -0.6319
59900SOL     OW88477   8.568   1.795   1.992 -0.5831  0.5825  0.0291
59900SOL    HW188478   8.655   1.774   2.025 -0.5036  1.9476  0.7833
59900SOL    HW288479   8.514   1.720   2.016  0.7041 -1.0936 -1.9976
59901SOL     OW88480   3.272   5.087   1.961 -0.1540  0.3398  0.1176
59901SOL    HW188481   3.343   5.048   1.910  0.2070  0.1022  0.7815
59901SOL    HW288482   3.315   5.156   2.013 -0.2347 -0.3856  1.1726
59902SOL     OW88483   8.430   1.312   5.705  0.1105 -0.1364 -0.9966
59902SOL    HW188484   8.381   1.367   5.644 -1.2316 -2.9922 -2.7098
59902SOL    HW288485   8.519   1.348   5.704 -0.3431  1.0873 -3.1485
59903SOL     OW88486   1.311   3.729   6.262  0.0379  0.5351 -0.2624
59903SOL    HW188487   1.318   3.672   6.185  0.3509 -2.7478  1.9772
59903SOL    HW288488   1.235   3.696   6.309 -0.9143  3.2877  0.3242
59904SOL     OW88489   0.024  10.752   4.619 -0.1615  0.2324  0.0629
59904SOL    HW188490  -0.051  10.757   4.559 -0.5503 -1.0780  0.4220
59904SOL    HW288491   0.021  10.835   4.667 -1.1574  0.3525 -0.1815
59905SOL     OW88492   9.689   6.457   0.493  0.1119  0.2441 -0.2461
59905SOL    HW188493   9.637   6.536   0.506  0.7847  0.6851 -0.2394
59905SOL    HW288494   9.774   6.476   0.532  0.3745 -0.3773 -0.4977
59906SOL     OW88495   7.942   1.405   6.329 -0.5650 -0.7935  0.2822
59906SOL    HW188496   7.923   1.377   6.239 -0.9475 -2.2039  0.7698
59906SOL    HW288497   7.856   1.405   6.372 -0.8778  2.8160 -0.0540
59907SOL     OW88498   1.366   3.475   4.671 -0.5409 -0.0732 -0.0329
59907SOL    HW188499   1.299   3.489   4.604  0.1014  0.7422 -0.5212
59907SOL    HW288500   1.316   3.465   4.753 -1.2543  0.8828 -0.3300
59908SOL     OW88501  10.186   3.672   3.530 -0.1177 -0.2229 -0.1152
59908SOL    HW188502  10.230   3.637   3.607  0.9133  0.6319 -0.2872
59908SOL    HW288503  10.137   3.748   3.563 -0.3553 -0.3585 -0.1563
59909SOL     OW88504   5.839   7.695   1.920 -0.0418  0.4092  0.8375
59909SOL    HW188505   5.906   7.760   1.899  0.9559 -0.8914 -0.1792
59909SOL    HW288506   5.836   7.694   2.015  1.1416  0.7417  0.8943
59910SOL     OW88507   4.915   6.421   7.118  0.0700  0.1045 -0.6750
59910SOL    HW188508   4.878   6.507   7.098  0.4267  0.7094  1.0943
59910SOL    HW288509   4.962   6.396   7.038 -2.1396  0.3626 -2.1443
59911SOL     OW88510  11.123   7.836   6.849  0.2372  0.3738  0.2277
59911SOL    HW188511  11.148   7.914   6.800  0.0511  1.1606  1.3372
59911SOL    HW288512  11.141   7.859   6.941 -0.8290 -0.4822  0.6716
59912SOL     OW88513   8.711   3.902   3.670 -0.3514 -0.2491  0.3138
59912SOL    HW188514   8.634   3.914   3.614 -1.2344 -0.3145  1.4850
59912SOL    HW288515   8.727   3.808   3.669  0.0424 -0.1817 -0.3420
59913SOL     OW88516   1.285   5.616   9.561 -0.4602  0.1390  0.4187
59913SOL    HW188517   1.337   5.669   9.501 -0.6926 -0.9192 -0.7577
59913SOL    HW288518   1.255   5.678   9.627  0.6423  1.1446  0.0232
59914SOL     OW88519   2.974   3.212   6.823  0.1987 -0.0051 -0.5236
59914SOL    HW188520   3.066   3.188   6.808  0.6730  1.7637 -0.6790
59914SOL    HW288521   2.954   3.275   6.753 -1.2271 -0.5767 -0.6587
59915SOL     OW88522   4.059   5.572   4.300 -0.3157 -0.5934  0.2199
59915SOL    HW188523   4.042   5.501   4.238  0.4251 -1.3874  0.8949
59915SOL    HW288524   3.987   5.633   4.287 -0.7009 -1.2258 -0.7304
59916SOL     OW88525   0.907  12.099   2.266  0.2168 -0.0792 -0.2872
59916SOL    HW188526   0.836  12.050   2.225  0.6571 -0.7393 -0.2824
59916SOL    HW288527   0.882  12.191   2.256 -0.0946 -0.2611 -1.2824
59917SOL     OW88528   6.746   1.409   9.080  0.4149  0.1334 -0.6553
59917SOL    HW188529   6.772   1.466   9.152  0.9654  1.9812 -2.2139
59917SOL    HW288530   6.818   1.415   9.017 -0.5123 -0.5398 -1.8383
59918SOL     OW88531  10.143   7.990   5.284  0.4425  0.0235 -0.2755
59918SOL    HW188532  10.145   7.922   5.217  1.2255 -0.6869  0.4321
59918SOL    HW288533  10.177   8.068   5.240 -0.9196  0.1091 -1.2316
59919SOL     OW88534   4.379   8.923  11.962 -0.1552 -0.1559 -0.2197
59919SOL    HW188535   4.347   8.845  12.007 -0.2544 -0.3051 -0.5439
59919SOL    HW288536   4.330   8.924  11.879 -1.1494  0.9818  0.3408
59920SOL     OW88537   3.049  11.381   0.823  0.0072 -0.8818  0.0592
59920SOL    HW188538   2.976  11.344   0.774 -0.0745 -2.0452  1.0229
59920SOL    HW288539   3.074  11.313   0.884  1.4258 -0.2124  0.2626
59921SOL     OW88540   9.493   4.374  10.410 -0.1184  0.1119  0.0646
59921SOL    HW188541   9.469   4.443  10.472  0.2354  0.9222 -0.6756
59921SOL    HW288542   9.457   4.294  10.448 -1.2558  0.8201  0.5274
59922SOL     OW88543   4.278  10.885   0.376  0.5498  0.1135 -1.1461
59922SOL    HW188544   4.339  10.813   0.362 -0.2191 -0.7281 -0.3430
59922SOL    HW288545   4.192  10.848   0.356  0.0275  0.4726  0.2862
59923SOL     OW88546   7.566   0.483   1.853 -0.1000 -0.2281 -0.1234
59923SOL    HW188547   7.533   0.491   1.764 -0.3369  2.0489  0.1060
59923SOL    HW288548   7.634   0.551   1.860 -0.4267 -0.0095  1.5483
59924SOL     OW88549   8.514   9.644   2.702  0.0676 -0.4941  0.3876
59924SOL    HW188550   8.494   9.717   2.760  1.4963  2.3544 -2.3870
59924SOL    HW288551   8.434   9.632   2.650  0.4810  0.5357 -0.5130
59925SOL     OW88552   1.541   7.206  11.459  0.5330 -1.0810 -0.4391
59925SOL    HW188553   1.544   7.162  11.374  1.5207 -0.1263 -0.9259
59925SOL    HW288554   1.632   7.231  11.476  0.1223  0.0227  0.2061
59926SOL     OW88555  12.137   9.459   2.725 -0.0583  0.0916  0.3654
59926SOL    HW188556  12.135   9.440   2.819 -1.6433  1.3844  0.6535
59926SOL    HW288557  12.230   9.459   2.703  0.3767  0.0953  2.0152
59927SOL     OW88558  11.500   4.219  11.798  0.2401  0.6628 -0.1579
59927SOL    HW188559  11.507   4.289  11.862 -0.4943 -0.0117  0.6885
59927SOL    HW288560  11.541   4.144  11.839 -2.2097 -0.4033  0.5158
59928SOL     OW88561   0.352   0.530   4.886 -0.7275  0.4404 -0.1901
59928SOL    HW188562   0.428   0.588   4.893 -0.4054 -0.1503  2.3449
59928SOL    HW288563   0.389   0.443   4.870 -1.0606  0.5342 -1.5615
59929SOL     OW88564   9.580   3.559  11.111 -0.3786 -0.1733  0.3135
59929SOL    HW188565   9.617   3.641  11.078 -0.8095 -0.1061 -0.0067
59929SOL    HW288566   9.502   3.585  11.159  0.5523 -0.2119  1.9064
59930SOL     OW88567  11.132  10.522   4.176  0.6213  0.3003 -0.0279
59930SOL    HW188568  11.172  10.435   4.179 -1.0935 -0.5532 -0.0492
59930SOL    HW288569  11.040  10.505   4.152  0.3338  2.1562 -0.4445
59931SOL     OW88570   4.726   6.097   8.596 -0.5545  0.1923  0.4825
59931SOL    HW188571   4.782   6.054   8.532  0.1577  1.7355  0.0298
59931SOL    HW288572   4.767   6.182   8.612 -2.2683  1.0214  0.8228
59932SOL     OW88573   4.801  10.260   4.434  0.3545 -0.1054 -0.0734
59932SOL    HW188574   4.780  10.338   4.381 -2.0882 -1.3517 -1.1177
59932SOL    HW288575   4.792  10.290   4.524 -1.9046  0.6149 -0.4517
59933SOL     OW88576   1.468   5.054   7.725 -0.5281 -0.3505  0.0474
59933SOL    HW188577   1.385   5.095   7.747 -0.1936  0.2774  0.1539
59933SOL    HW288578   1.453   5.015   7.638 -0.8417  0.0204 -0.0681
59934SOL     OW88579   4.104  11.134  10.849  0.1640  0.0206 -0.4453
59934SOL    HW188580   4.014  11.153  10.823 -0.3245 -0.6618  0.6770
59934SOL    HW288581   4.110  11.039  10.845  0.5791  0.0094  0.2932
59935SOL     OW88582  10.671   2.655   5.997 -0.3578 -0.3539  0.6702
59935SOL    HW188583  10.734   2.588   5.970 -0.4978  0.2663 -1.3215
59935SOL    HW288584  10.662   2.642   6.091  1.5916 -1.4420  0.7599
59936SOL     OW88585  10.709   2.030   9.459 -0.2022  0.1595 -0.4689
59936SOL    HW188586  10.656   1.960   9.421 -0.3944  1.0992 -2.0210
59936SOL    HW288587  10.790   1.987   9.486 -1.1097 -1.0157  0.5314
59937SOL     OW88588   3.466   1.902  10.250 -0.2001  0.0192 -0.3172
59937SOL    HW188589   3.433   1.862  10.169  0.1619 -0.8438 -0.0506
59937SOL    HW288590   3.410   1.866  10.319 -0.2884  0.4867 -0.1441
59938SOL     OW88591   0.887   1.450   0.866 -0.0723 -0.0750 -0.0663
59938SOL    HW188592   0.977   1.430   0.892  1.1644  2.5513 -1.8396
59938SOL    HW288593   0.838   1.451   0.948  2.1252  1.1379  1.3382
59939SOL     OW88594   2.509   4.210   4.511 -0.2294  0.4870 -0.3455
59939SOL    HW188595   2.551   4.160   4.441  2.4834  0.6349  1.0271
59939SOL    HW288596   2.431   4.160   4.533  1.1438 -1.9529 -0.6077
59940SOL     OW88597   4.695   8.214   0.290  1.1128 -0.2383  0.5247
59940SOL    HW188598   4.684   8.257   0.374 -0.7536  2.5829 -1.0003
59940SOL    HW288599   4.729   8.282   0.232  0.1286 -1.4019 -1.5463
59941SOL     OW88600   6.200  10.195   0.428 -0.0890 -0.4820 -0.2008
59941SOL    HW188601   6.262  10.122   0.433  0.7286  0.2488  0.4894
59941SOL    HW288602   6.255  10.274   0.433 -1.0534  0.1780  0.1698
59942SOL     OW88603   5.603   3.156  11.280 -0.3902 -0.2607  0.2609
59942SOL    HW188604   5.616   3.190  11.192 -1.7817  0.7251  0.4019
59942SOL    HW288605   5.683   3.181  11.327  0.6925 -1.4311 -0.8614
59943SOL     OW88606   0.579   4.024   4.177 -0.0318  0.0956 -0.4556
59943SOL    HW188607   0.594   4.109   4.218 -1.5457  0.3099 -0.2691
59943SOL    HW288608   0.659   3.975   4.192  0.6298  1.2758 -0.0172
59944SOL     OW88609   1.953   6.427   7.390 -0.3033  0.1772  0.3872
59944SOL    HW188610   1.889   6.412   7.321  0.6950 -0.4458 -0.4275
59944SOL    HW288611   1.905   6.475   7.457 -1.7412 -0.6548 -0.0046
59945SOL     OW88612  10.994  12.214   3.616  0.3527  0.1153 -0.1058
59945SOL    HW188613  11.051  12.268   3.671 -2.3697  2.1089  0.9827
59945SOL    HW288614  10.941  12.277   3.566 -0.2730 -1.6229 -1.7753
59946SOL     OW88615  12.241  10.488   4.071  0.1229 -0.0848 -0.1682
59946SOL    HW188616  12.189  10.425   4.021  1.2047 -0.5024 -0.8091
59946SOL    HW288617  12.276  10.438   4.144  1.2107 -0.3155 -0.8316
59947SOL     OW88618   5.420   8.034   0.358  0.2950 -0.1559  0.0731
59947SOL    HW188619   5.341   7.980   0.357  1.1192 -1.4102  0.9149
59947SOL    HW288620   5.492   7.972   0.356  1.2763  0.9362  0.4488
59948SOL     OW88621   7.948   7.847   1.615 -0.7616 -0.3204 -0.2689
59948SOL    HW188622   7.935   7.757   1.584 -0.9806  0.0087 -1.1577
59948SOL    HW288623   8.023   7.879   1.567  0.3139 -0.5291  1.2036
59949SOL     OW88624   4.024   9.193   4.599 -0.5172 -0.3385  0.2598
59949SOL    HW188625   3.965   9.199   4.524  1.4270  2.0792 -1.1914
59949SOL    HW288626   4.091   9.130   4.571 -0.8355 -0.9415  0.8087
59950SOL     OW88627   7.046   4.186   8.937  0.0401  0.5892  0.2242
59950SOL    HW188628   7.123   4.238   8.959 -0.5608  1.8084 -0.4612
59950SOL    HW288629   6.990   4.192   9.015 -0.4271  1.7635 -0.1789
59951SOL     OW88630   7.660   2.126   9.936 -0.5011 -0.0526 -0.1113
59951SOL    HW188631   7.677   2.211   9.975 -0.9214 -0.7008  1.5766
59951SOL    HW288632   7.567   2.129   9.912 -0.7056 -0.2712  0.6228
59952SOL     OW88633   1.004   5.152   0.169  0.2869  0.3055  0.5484
59952SOL    HW188634   0.959   5.236   0.167  0.0160  0.2090  1.7603
59952SOL    HW288635   0.958   5.102   0.236  2.7729  0.5526  2.5512
59953SOL     OW88636   9.916   0.838  12.166  0.0790  0.6374  0.3120
59953SOL    HW188637   9.990   0.800  12.118 -0.3152  0.1586  0.0760
59953SOL    HW288638   9.935   0.932  12.170  1.9571  0.2455  2.4258
59954SOL     OW88639   5.969  10.557   8.212  0.2097  0.1615 -0.2442
59954SOL    HW188640   5.958  10.544   8.306 -0.1203  0.2199 -0.2733
59954SOL    HW288641   5.974  10.652   8.201  1.8960  0.1051 -0.1099
59955SOL     OW88642   5.574   4.867   4.995 -0.3505  0.4886  0.1369
59955SOL    HW188643   5.658   4.826   4.973 -0.4590  0.1309  0.3814
59955SOL    HW288644   5.593   4.961   4.997  0.1790  0.3782  0.7437
59956SOL     OW88645   8.529   0.811   0.545 -0.0319  0.1219  0.2354
59956SOL    HW188646   8.609   0.759   0.536  0.9247  1.7291 -0.8816
59956SOL    HW288647   8.477   0.789   0.468  0.0384  0.2445  0.1522
59957SOL     OW88648   3.711  10.723   8.161 -0.0669  0.5640 -0.1781
59957SOL    HW188649   3.787  10.666   8.162 -0.7945 -0.5201 -2.1252
59957SOL    HW288650   3.673  10.714   8.249  1.7457  0.8050  0.6886
59958SOL     OW88651   8.800   7.420  10.596  0.6114 -0.1198 -0.7053
59958SOL    HW188652   8.819   7.338  10.550 -0.0304 -0.6316 -0.0996
59958SOL    HW288653   8.740   7.466  10.538  1.2694  0.0959 -1.2200
59959SOL     OW88654   4.618   1.634   4.416 -0.0128  0.3627  0.0598
59959SOL    HW188655   4.568   1.662   4.340  0.0745 -0.1729 -0.2016
59959SOL    HW288656   4.606   1.704   4.481 -2.0302 -0.2799  0.4331
59960SOL     OW88657   9.960   4.791   3.453 -0.1798  0.0092  0.1755
59960SOL    HW188658   9.958   4.808   3.547  1.5668  1.8047 -0.0377
59960SOL    HW288659  10.047   4.754   3.437 -0.1438  0.4926 -0.8202
59961SOL     OW88660   0.289   3.578   1.248  0.1229 -0.3220  0.0506
59961SOL    HW188661   0.340   3.522   1.307  1.9871  0.9158 -0.2660
59961SOL    HW288662   0.286   3.662   1.293 -3.2770 -0.7759  0.8722
59962SOL     OW88663   7.455   3.526   4.693 -0.6777 -0.6863  0.5071
59962SOL    HW188664   7.491   3.489   4.775  0.3960  0.4703  0.5845
59962SOL    HW288665   7.363   3.543   4.713 -0.2893  0.1624  1.7102
59963SOL     OW88666   3.266   6.667   7.347 -0.2686  0.3333 -0.1070
59963SOL    HW188667   3.198   6.611   7.310 -0.8191 -1.1952  2.8565
59963SOL    HW288668   3.217   6.736   7.393  0.2267  0.2946  0.4908
59964SOL     OW88669   0.144   7.679   9.339  0.6221 -0.0780  0.1092
59964SOL    HW188670   0.210   7.625   9.296  2.0538  1.6535  0.0325
59964SOL    HW288671   0.103   7.728   9.268 -2.0610 -2.3497 -0.0875
59965SOL     OW88672   9.095   1.496   3.934 -0.0192 -0.1405 -0.0796
59965SOL    HW188673   9.000   1.497   3.921  0.2620  0.1634 -2.8428
59965SOL    HW288674   9.115   1.408   3.965 -1.3898  0.6057  3.4042
59966SOL     OW88675   3.340   9.902   7.160 -0.1598  0.2861 -0.1773
59966SOL    HW188676   3.337   9.814   7.122 -0.7261 -0.2940  1.1465
59966SOL    HW288677   3.267   9.949   7.119 -1.4246 -0.6551  0.8995
59967SOL     OW88678   8.262   4.566   6.757  0.3780 -0.2897  0.3718
59967SOL    HW188679   8.176   4.607   6.749 -0.1804 -1.3427  0.7279
59967SOL    HW288680   8.260   4.494   6.694  1.2564  0.0807 -0.0936
59968SOL     OW88681   2.664  12.132   0.976  0.0011  0.6884 -0.4340
59968SOL    HW188682   2.599  12.146   0.907 -0.6689  1.7132  0.3786
59968SOL    HW288683   2.722  12.207   0.970  1.0755 -0.1618 -1.0749
59969SOL     OW88684   3.369   9.679  10.035 -0.3350 -0.1092  0.2684
59969SOL    HW188685   3.411   9.733  10.102  1.3465 -1.1025  0.0655
59969SOL    HW288686   3.341   9.600  10.082  0.0955 -0.4382 -0.0122
59970SOL     OW88687  11.517   3.573   7.056 -0.1642  0.6860 -0.5496
59970SOL    HW188688  11.564   3.503   7.102  1.1754  1.0158 -1.3631
59970SOL    HW288689  11.434   3.533   7.031 -0.2156 -0.0213  0.6420
59971SOL     OW88690   4.728   6.567   0.717 -0.5982 -0.0186  0.0141
59971SOL    HW188691   4.667   6.591   0.647 -0.9675  0.7607  0.5892
59971SOL    HW288692   4.677   6.512   0.776 -0.5668  0.1392  0.1875
59972SOL     OW88693   9.069  12.553   8.550 -0.3269 -0.4684 -0.0820
59972SOL    HW188694   9.155  12.524   8.519 -0.0762  0.7216 -0.5808
59972SOL    HW288695   9.081  12.647   8.566 -0.7695 -0.7709  2.5221
59973SOL     OW88696   7.117   8.051   0.800 -0.0558  0.0278  0.1965
59973SOL    HW188697   7.143   7.963   0.773 -1.6096 -0.2376 -0.5620
59973SOL    HW288698   7.117   8.048   0.896  2.0183 -0.1078  0.2319
59974SOL     OW88699   8.960   6.159   0.201  0.2422  0.1241 -0.3930
59974SOL    HW188700   9.038   6.212   0.191 -2.1548  4.1122 -0.2810
59974SOL    HW288701   8.924   6.152   0.113  0.1159 -0.6321 -0.2849
59975SOL     OW88702   2.961   4.145   8.218  0.4371  0.2130  0.1195
59975SOL    HW188703   2.983   4.134   8.126 -0.7660 -0.7399 -0.0800
59975SOL    HW288704   3.042   4.125   8.265  0.4082 -1.9467 -0.6297
59976SOL     OW88705  12.457   6.116   6.568  0.0855  0.5633  0.0760
59976SOL    HW188706  12.367   6.139   6.546  0.5086 -0.2020 -2.8762
59976SOL    HW288707  12.506   6.128   6.486  1.5963 -4.2597 -0.0509
59977SOL     OW88708   0.369   7.229   8.128  0.2196 -0.1272  0.0610
59977SOL    HW188709   0.319   7.229   8.047  0.2105  1.5844  0.0453
59977SOL    HW288710   0.349   7.144   8.168 -1.3013 -0.1968 -0.7809
59978SOL     OW88711   0.919   1.833   4.400 -0.5085  0.4089  0.3491
59978SOL    HW188712   0.997   1.887   4.383  0.7166 -0.7674  1.8788
59978SOL    HW288713   0.954   1.752   4.437 -2.5128  0.1900  1.9488
59979SOL     OW88714   7.321   9.859  11.768 -0.3722  0.2083 -0.0381
59979SOL    HW188715   7.244   9.911  11.748  1.0271  2.3919 -0.0686
59979SOL    HW288716   7.357   9.898  11.848  0.8989 -0.5124 -0.2270
59980SOL     OW88717  12.541   7.625   2.727  0.0155  0.4469 -0.0180
59980SOL    HW188718  12.611   7.559   2.730 -2.0264 -1.7943  1.4698
59980SOL    HW288719  12.529   7.651   2.818 -0.7270  1.2083 -0.3310
59981SOL     OW88720  12.328  10.079   4.723 -0.7171 -1.0184  0.1874
59981SOL    HW188721  12.272  10.152   4.747 -0.5389 -0.2700 -1.5497
59981SOL    HW288722  12.308  10.062   4.631  2.2573 -0.3600 -0.6865
59982SOL     OW88723  10.663   5.809   8.715  0.3650 -0.2472  0.0528
59982SOL    HW188724  10.578   5.791   8.675  0.3848  3.1561 -1.9055
59982SOL    HW288725  10.722   5.744   8.677 -0.6139 -0.1384 -1.7442
59983SOL     OW88726   5.460   0.690   6.658 -0.4877 -0.5604 -0.0260
59983SOL    HW188727   5.510   0.675   6.738 -1.3562  1.7652  1.0375
59983SOL    HW288728   5.375   0.649   6.675 -0.0949 -1.6161 -0.5108
59984SOL     OW88729   1.010   2.065   1.839 -0.5532  0.2396  0.2533
59984SOL    HW188730   0.959   2.137   1.803 -0.8701 -0.7471 -1.3243
59984SOL    HW288731   0.947   1.995   1.855 -0.0471 -0.1694  0.5186
59985SOL     OW88732   4.741   8.971   6.972 -0.2489 -0.6834  0.3729
59985SOL    HW188733   4.665   8.939   6.924  0.1719 -1.0534 -0.0588
59985SOL    HW288734   4.804   8.994   6.904 -0.6800  1.4937  0.6350
59986SOL     OW88735   6.793   1.048   3.476 -0.5645  0.6001 -0.0802
59986SOL    HW188736   6.881   1.014   3.494 -0.2775  2.4926  2.9554
59986SOL    HW288737   6.803   1.101   3.397  0.5126 -0.8356 -0.9501
59987SOL     OW88738   8.855   1.373   9.116  0.6472 -0.5876 -0.2270
59987SOL    HW188739   8.885   1.395   9.028  0.3573  1.4413  0.1352
59987SOL    HW288740   8.933   1.383   9.171 -0.1200  3.1564  0.4661
59988SOL     OW88741   0.099   7.618  12.036 -0.0872 -0.2276 -0.8911
59988SOL    HW188742   0.015   7.663  12.031 -0.9717 -1.5519  1.0603
59988SOL    HW288743   0.152   7.672  12.094 -0.6799 -0.8918  0.3266
59989SOL     OW88744   4.040   6.016   5.130  0.4118 -0.2009 -0.4305
59989SOL    HW188745   4.000   5.994   5.046  0.0791  0.1439 -0.3670
59989SOL    HW288746   4.096   6.091   5.111  0.9054 -0.5764 -0.4842
59990SOL     OW88747  12.106   8.636   4.438  0.5634  0.8736 -0.1166
59990SOL    HW188748  12.057   8.558   4.412  1.2102 -0.2340  1.7850
59990SOL    HW288749  12.066   8.707   4.388 -1.0329 -0.4421 -0.8147
59991SOL     OW88750   3.188   6.180  10.647 -0.4090 -0.1553 -0.3875
59991SOL    HW188751   3.251   6.211  10.712 -0.4583  1.5729 -1.1143
59991SOL    HW288752   3.216   6.219  10.565  0.1219 -2.9555 -1.6410
59992SOL     OW88753  12.430   9.413   7.225  0.1233 -0.0604  0.5156
59992SOL    HW188754  12.405   9.397   7.133 -0.9098 -2.5819  1.1457
59992SOL    HW288755  12.518   9.376   7.233 -0.1533 -0.7000  0.7194
59993SOL     OW88756   3.486   7.854   3.576 -0.1746  0.3176  0.5006
59993SOL    HW188757   3.554   7.791   3.553  0.8329  1.6943 -0.4670
59993SOL    HW288758   3.533   7.937   3.587 -1.5970  1.1543  0.5261
59994SOL     OW88759   5.274   7.992   1.828 -0.2196  0.0052  0.1950
59994SOL    HW188760   5.359   7.991   1.873 -0.3918 -1.1163  0.5362
59994SOL    HW288761   5.211   7.968   1.896 -0.5631 -1.1323 -0.5086
59995SOL     OW88762  12.187   5.718   6.328  0.1318 -0.1190 -0.3672
59995SOL    HW188763  12.109   5.759   6.290  0.4655  1.7625  0.8196
59995SOL    HW288764  12.159   5.630   6.351 -0.6569 -0.6567 -2.9796
59996SOL     OW88765   0.623   6.491   3.418  0.2584  0.4303 -0.5305
59996SOL    HW188766   0.604   6.477   3.511  1.7890  2.2814  0.1480
59996SOL    HW288767   0.555   6.552   3.389  0.5106  0.8498 -0.2574
59997SOL     OW88768   3.821   1.416   8.952  0.2312 -0.1501  0.6160
59997SOL    HW188769   3.852   1.481   8.889 -1.8434 -0.0338 -0.3988
59997SOL    HW288770   3.730   1.442   8.969  0.5114 -0.6160  3.1267
59998SOL     OW88771   3.269  11.130   6.539  0.1915  0.0648 -0.2311
59998SOL    HW188772   3.249  11.224   6.539  0.1848  0.0773 -1.4920
59998SOL    HW288773   3.203  11.092   6.598  1.0362  0.9978  1.3771
59999SOL     OW88774  11.379   1.004   4.059  0.3679  0.2621  0.0305
59999SOL    HW188775  11.466   1.024   4.093  0.8226 -0.0793 -0.8872
59999SOL    HW288776  11.393   0.930   4.000 -0.6004 -0.0034  0.1168
60000SOL     OW88777   5.462   2.416   6.941 -0.3515 -0.1444 -0.3626
60000SOL    HW188778   5.422   2.415   7.028 -1.2163  0.3414 -0.7423
60000SOL    HW288779   5.464   2.508   6.916 -1.7609 -0.4039 -1.5799
60001SOL     OW88780   3.570   2.558   9.313 -0.2176 -0.2844 -0.0152
60001SOL    HW188781   3.650   2.544   9.263 -1.2470 -2.0741 -1.2381
60001SOL    HW288782   3.573   2.493   9.383 -0.0738  0.4117  0.6369
60002SOL     OW88783   2.182   0.591   6.284  0.1756 -0.0334  0.3383
60002SOL    HW188784   2.178   0.628   6.372 -0.2391 -0.3036  0.4353
60002SOL    HW288785   2.180   0.667   6.226  1.4655  0.2047  0.5683
60003SOL     OW88786   2.497   6.913   1.690 -0.3581 -0.0359  0.3372
60003SOL    HW188787   2.513   6.851   1.760  1.1794 -0.6158 -0.4768
60003SOL    HW288788   2.542   6.876   1.614 -0.3288  1.5204 -0.4494
60004SOL     OW88789   5.812   0.287   5.274 -0.5788 -0.2916  0.0580
60004SOL    HW188790   5.856   0.371   5.260 -1.2416 -0.1911 -1.7542
60004SOL    HW288791   5.739   0.307   5.332 -0.4643  0.2957  0.0048
60005SOL     OW88792   1.874   0.162   1.595 -0.1851 -0.0505 -0.1096
60005SOL    HW188793   1.916   0.248   1.597  1.1411 -0.6859  1.2495
60005SOL    HW288794   1.834   0.153   1.682 -1.3760 -0.3175 -0.6704
60006SOL     OW88795   2.049   7.042   4.139  0.2160  0.7944  0.2476
60006SOL    HW188796   2.144   7.034   4.151  0.2136  1.2520  0.6118
60006SOL    HW288797   2.023   7.112   4.199 -0.4550  0.2339  0.6329
60007SOL     OW88798   6.661   5.791   8.864  0.5154 -0.1834 -0.0088
60007SOL    HW188799   6.741   5.750   8.895  0.5894  1.0058  1.4991
60007SOL    HW288800   6.605   5.719   8.838  1.9347 -1.0526 -0.7809
60008SOL     OW88801  11.755   4.747   6.968  1.1931 -0.2093 -0.2446
60008SOL    HW188802  11.674   4.723   6.923  2.5022  1.9958 -4.1851
60008SOL    HW288803  11.769   4.675   7.030 -3.9810 -0.4244  1.2041
60009SOL     OW88804   0.115   2.066  10.957  0.8700 -0.3997 -0.4061
60009SOL    HW188805   0.070   1.992  10.915 -0.5588  0.8235 -1.1026
60009SOL    HW288806   0.164   2.108  10.886  0.5911  0.1130 -0.2981
60010SOL     OW88807   6.116   1.994   3.455 -0.2303  0.1993  0.8166
60010SOL    HW188808   6.129   2.068   3.514 -0.6991  1.3138 -0.4227
60010SOL    HW288809   6.122   2.032   3.367  0.4403 -1.4006  0.1291
60011SOL     OW88810   2.187   8.549   6.719  0.2948  0.2563 -0.1712
60011SOL    HW188811   2.242   8.500   6.780 -1.8531 -1.6222  0.3866
60011SOL    HW288812   2.139   8.610   6.775  0.4401  0.5757 -0.3955
60012SOL     OW88813  11.053   0.265   4.715  0.5473  0.1059  0.3484
60012SOL    HW188814  10.986   0.266   4.647  1.5302  1.1033 -0.6503
60012SOL    HW288815  11.053   0.175   4.748  0.6551 -0.6561 -1.6019
60013SOL     OW88816   2.252   7.036   1.186  0.1434  0.2254  0.3519
60013SOL    HW188817   2.207   7.026   1.102 -0.0716  0.3578  0.4501
60013SOL    HW288818   2.217   6.965   1.241  2.1212 -1.4765 -0.4449
60014SOL     OW88819   0.873   0.543   3.051  0.9107  0.3190  0.1771
60014SOL    HW188820   0.815   0.472   3.080 -2.3442  2.6905  0.0484
60014SOL    HW288821   0.875   0.536   2.956 -0.0389  0.7639  0.1080
60015SOL     OW88822   7.271   9.640   5.453  0.4541  0.1021 -0.0073
60015SOL    HW188823   7.278   9.711   5.517  1.2057 -0.8879  1.0651
60015SOL    HW288824   7.277   9.560   5.506  1.5531 -0.7523 -1.3697
60016SOL     OW88825   7.221   5.007   6.586  0.2190  0.1740  0.1378
60016SOL    HW188826   7.182   5.087   6.620  0.6660 -0.0256  1.1457
60016SOL    HW288827   7.283   4.980   6.653 -0.1365 -1.1874 -0.0512
60017SOL     OW88828  12.525   4.836   5.812 -0.2707 -0.4601 -0.0188
60017SOL    HW188829  12.561   4.774   5.876  0.7767  0.7850  0.6564
60017SOL    HW288830  12.434   4.809   5.801  0.0734 -1.9067  0.4954
60018SOL     OW88831   1.684   8.414  10.290 -0.1525  0.5060  0.0352
60018SOL    HW188832   1.746   8.472  10.247  1.4288 -2.4437 -1.9515
60018SOL    HW288833   1.618   8.395  10.223 -0.6585  0.0310  0.6558
60019SOL     OW88834   4.571   2.993   4.592  0.2457 -0.0328  0.5986
60019SOL    HW188835   4.594   3.005   4.684 -0.1546 -1.5514  0.9361
60019SOL    HW288836   4.651   3.012   4.544  0.2250  1.6424  1.1670
60020SOL     OW88837   0.988   4.854   9.626  0.8078 -0.0990 -0.7262
60020SOL    HW188838   0.940   4.922   9.578  1.2015  2.9362  2.7453
60020SOL    HW288839   0.921   4.792   9.652  0.3845 -1.0825 -3.7426
60021SOL     OW88840   4.896  10.961  11.073  0.5307  0.6721  0.3343
60021SOL    HW188841   4.987  10.934  11.059  0.0968 -0.6301 -0.1915
60021SOL    HW288842   4.876  10.930  11.162  0.0798 -0.6944 -0.2128
60022SOL     OW88843  10.991   5.420   7.928  0.2717 -0.3063  0.8005
60022SOL    HW188844  11.038   5.502   7.944  0.2687 -0.3612  1.1021
60022SOL    HW288845  11.028   5.386   7.847 -0.7508  0.7285 -0.1266
60023SOL     OW88846   9.554   2.705   6.044 -0.1343  0.0468 -0.5663
60023SOL    HW188847   9.622   2.694   6.111 -0.1936  0.8755 -0.3636
60023SOL    HW288848   9.495   2.631   6.058 -0.2343  0.3053  0.4031
60024SOL     OW88849   9.230   0.884   0.152 -0.3364  0.0384  0.1118
60024SOL    HW188850   9.216   0.825   0.078  0.6858  0.0110 -0.0727
60024SOL    HW288851   9.247   0.969   0.112  1.5542 -0.2351  0.2158
60025SOL     OW88852   0.632   5.423  11.459  0.7401  0.3493 -0.2548
60025SOL    HW188853   0.580   5.346  11.435  0.3023  0.7919 -0.7596
60025SOL    HW288854   0.723   5.392  11.456  0.5673 -0.1569 -0.4101
60026SOL     OW88855  11.583   7.206   5.976 -0.6543  0.0962  0.0922
60026SOL    HW188856  11.640   7.264   5.926  1.0299 -2.5745 -1.3474
60026SOL    HW288857  11.496   7.245   5.968  0.6744  3.7916  1.5290
60027SOL     OW88858   1.965   5.425   7.844 -0.4170 -0.5593 -0.0364
60027SOL    HW188859   2.024   5.354   7.817 -0.7584  0.2666 -3.4719
60027SOL    HW288860   1.882   5.381   7.861  0.2688 -1.3394  1.4400
60028SOL     OW88861   1.626   2.534   0.161  0.3021  0.3657 -0.1812
60028SOL    HW188862   1.541   2.489   0.161  0.1066  0.7329  0.0947
60028SOL    HW288863   1.666   2.508   0.244  0.9186 -0.6579 -0.7819
60029SOL     OW88864   8.467   1.530  10.477  0.1388 -0.3698  0.4778
60029SOL    HW188865   8.372   1.525  10.470 -0.1694 -1.8205  3.7345
60029SOL    HW288866   8.482   1.581  10.556  2.0546 -0.7300  0.3980
60030SOL     OW88867   9.448   5.883   9.158  0.3302 -0.2196 -0.1866
60030SOL    HW188868   9.483   5.794   9.171  0.0610 -0.3313 -0.2152
60030SOL    HW288869   9.376   5.871   9.095 -0.3846 -0.1377  0.5946
60031SOL     OW88870  10.819   1.599   9.129 -0.1858  0.3122 -0.0406
60031SOL    HW188871  10.838   1.668   9.193  0.8694 -0.8647  0.9721
60031SOL    HW288872  10.783   1.527   9.180  0.7116 -0.6732 -0.7312
60032SOL     OW88873   7.167   5.219   4.039 -0.4323  0.2353 -0.5940
60032SOL    HW188874   7.203   5.132   4.058  0.6695  0.9397  0.8542
60032SOL    HW288875   7.244   5.277   4.042 -1.3795  1.5059  0.4545
60033SOL     OW88876   7.890  11.615   4.168  0.5266 -0.2992 -0.0081
60033SOL    HW188877   7.968  11.665   4.144 -0.5686  1.7493  0.4651
60033SOL    HW288878   7.924  11.531   4.198  2.5111  0.3914 -0.1633
60034SOL     OW88879   4.234   3.264   6.267 -0.3164 -0.1342 -0.4002
60034SOL    HW188880   4.315   3.300   6.230  1.0011 -1.5998  0.9228
60034SOL    HW288881   4.217   3.185   6.215 -0.0220 -0.6555  0.2751
60035SOL     OW88882   7.079   1.218  12.448 -0.2255 -0.0876 -0.3287
60035SOL    HW188883   7.099   1.169  12.527 -1.5542  0.2739  0.2534
60035SOL    HW288884   7.137   1.181  12.381 -1.3849 -2.7106  0.0032
60036SOL     OW88885   3.112   9.988   3.479  0.0010  0.3274  0.1274
60036SOL    HW188886   3.169  10.028   3.414 -1.8614  1.2879 -1.0011
60036SOL    HW288887   3.063  10.061   3.516 -1.3625 -0.5746  0.1738
60037SOL     OW88888   2.226  11.064   9.608  0.1558  0.1449  0.2187
60037SOL    HW188889   2.277  11.044   9.687  0.7953  1.3436  0.1463
60037SOL    HW288890   2.265  11.145   9.575 -1.9428  1.2436  0.2663
60038SOL     OW88891  10.375   6.551   1.984 -0.1028 -0.1029 -0.0676
60038SOL    HW188892  10.400   6.635   2.024 -0.9837  0.2241 -0.1844
60038SOL    HW288893  10.282   6.562   1.962  0.2740 -0.3757 -1.9534
60039SOL     OW88894   3.798   5.155  11.396 -0.1351  0.1107 -0.1621
60039SOL    HW188895   3.780   5.220  11.328  0.3898 -0.1819 -0.5837
60039SOL    HW288896   3.802   5.207  11.477 -0.3724  0.5142 -0.4048
60040SOL     OW88897   0.265   3.249   2.180 -0.3568 -0.0750  0.0725
60040SOL    HW188898   0.321   3.234   2.104 -2.0167  1.4556 -1.5724
60040SOL    HW288899   0.231   3.162   2.202  1.0385 -0.7085 -0.1864
60041SOL     OW88900   1.548   9.709   4.188  0.2338 -0.0484  0.5403
60041SOL    HW188901   1.556   9.614   4.190 -2.1380 -0.5121 -2.7412
60041SOL    HW288902   1.507   9.731   4.271  1.5494 -1.7366  1.7116
60042SOL     OW88903   4.902   0.601  10.010  0.1292 -0.3082  0.0911
60042SOL    HW188904   4.832   0.537  10.020 -1.0669  0.6945 -1.3263
60042SOL    HW288905   4.953   0.595  10.091 -1.1573 -1.5747  0.8470
60043SOL     OW88906   2.956   1.024   5.874  0.2672  0.0908 -0.0399
60043SOL    HW188907   2.997   1.108   5.895  0.8971 -0.2973  0.3176
60043SOL    HW288908   3.027   0.972   5.838  0.3356 -0.9231  1.4750
60044SOL     OW88909   0.650   9.643  11.433 -0.0721 -0.1429  0.0535
60044SOL    HW188910   0.649   9.548  11.417  1.4449 -0.0628 -0.6793
60044SOL    HW288911   0.599   9.654  11.514 -0.7341 -1.5154 -0.1470
60045SOL     OW88912  10.546   9.627   5.898  0.3841 -0.3188  0.7442
60045SOL    HW188913  10.485   9.563   5.860  0.5433  0.2594 -0.5227
60045SOL    HW288914  10.615   9.573   5.937  0.3653 -0.9439 -0.0444
60046SOL     OW88915   3.537   3.380   8.635 -0.5618 -0.2960  0.1378
60046SOL    HW188916   3.516   3.290   8.611 -1.3346 -0.2965  0.7766
60046SOL    HW288917   3.453   3.424   8.638 -0.2448  0.2994  0.4237
60047SOL     OW88918   5.242   9.727   0.240 -0.0546 -0.1072 -0.0526
60047SOL    HW188919   5.330   9.720   0.277 -0.1295  0.0659  0.1570
60047SOL    HW288920   5.207   9.809   0.275  0.5386  0.9973 -1.8996
60048SOL     OW88921   5.709   0.399   2.994  0.2031  0.3385  0.6143
60048SOL    HW188922   5.764   0.469   3.029  2.0122 -0.1085 -1.1837
60048SOL    HW288923   5.640   0.444   2.946  0.3898  0.8898  0.8501
60049SOL     OW88924   1.863   9.124   7.335  0.5075 -0.2002 -0.1072
60049SOL    HW188925   1.928   9.176   7.382 -0.3947 -0.1053  1.0651
60049SOL    HW288926   1.815   9.188   7.282  0.4484 -0.0694  0.1039
60050SOL     OW88927   4.978   2.867   7.075 -0.2327  0.4514  0.2658
60050SOL    HW188928   5.049   2.859   7.139 -0.7055 -0.6210  0.6655
60050SOL    HW288929   4.926   2.788   7.086  0.0626 -0.1281 -1.9203
60051SOL     OW88930   2.748   4.378   7.027 -0.3480  0.3229 -0.0628
60051SOL    HW188931   2.678   4.386   6.963  0.3632  0.9734 -0.7728
60051SOL    HW288932   2.734   4.292   7.067 -1.8101  0.6228  0.1383
60052SOL     OW88933   0.826   3.929   7.529 -0.0088  0.2254  0.2077
60052SOL    HW188934   0.797   4.020   7.523 -1.1941 -0.0535  1.2628
60052SOL    HW288935   0.748   3.880   7.555  1.2502 -0.6334  2.7091
60053SOL     OW88936   6.273   8.994  11.344  0.6138  0.2349  0.3564
60053SOL    HW188937   6.334   8.978  11.417  2.0033 -0.5226 -0.9109
60053SOL    HW288938   6.306   9.074  11.303  0.3270  0.2192  0.0976
60054SOL     OW88939   8.278   4.935   7.837 -0.3565  0.2371  0.7583
60054SOL    HW188940   8.256   5.023   7.868  0.1924  0.6528  0.0104
60054SOL    HW288941   8.371   4.925   7.858  0.1889  0.7619 -1.2179
60055SOL     OW88942   4.728   4.586   6.459  0.5336  0.1857 -0.0131
60055SOL    HW188943   4.714   4.584   6.554 -1.3115 -0.2296 -0.2536
60055SOL    HW288944   4.771   4.503   6.439  0.0519 -0.1637  0.3570
60056SOL     OW88945   6.876   5.386   0.518 -0.0702  0.5141  0.0554
60056SOL    HW188946   6.819   5.461   0.528 -0.9265 -0.0327 -0.5855
60056SOL    HW288947   6.818   5.315   0.491  0.6493 -0.4852  1.0257
60057SOL     OW88948   8.565  11.760   9.782 -0.3337  0.3151 -0.5315
60057SOL    HW188949   8.611  11.839   9.753  0.0111  0.5547  0.6158
60057SOL    HW288950   8.482  11.792   9.818  0.4896  0.3704  1.4463
60058SOL     OW88951   9.785  12.611   5.434 -0.1076 -0.4410 -0.2025
60058SOL    HW188952   9.726  12.592   5.360  2.1417 -1.7179 -1.7763
60058SOL    HW288953   9.872  12.615   5.395  0.9943  0.5975  2.1650
60059SOL     OW88954   9.078   1.379   9.272  0.0413  0.0442 -0.4408
60059SOL    HW188955   9.154   1.340   9.228  0.9958 -0.8837  1.8596
60059SOL    HW288956   9.070   1.329   9.354 -3.1055  0.0953 -0.6225
60060SOL     OW88957   2.723  10.263   5.245  0.2881 -0.6794 -0.3321
60060SOL    HW188958   2.758  10.274   5.156 -3.1515  0.8084 -1.6867
60060SOL    HW288959   2.792  10.297   5.302  1.4851  1.1049 -2.6604
60061SOL     OW88960   3.526   5.348   4.417 -0.1776  0.2021 -0.6718
60061SOL    HW188961   3.442   5.375   4.453  0.5139  0.5086  0.8058
60061SOL    HW288962   3.558   5.426   4.370 -0.2512  0.4369 -0.3354
60062SOL     OW88963   4.830   9.740   7.378  0.0038 -0.2138  0.5137
60062SOL    HW188964   4.861   9.664   7.329 -0.3219 -0.1228  0.1578
60062SOL    HW288965   4.759   9.706   7.433 -0.7889  0.0031 -0.3474
60063SOL     OW88966   7.982  10.547  11.960  0.5078  0.0489  0.0195
60063SOL    HW188967   7.896  10.584  11.977  1.5879  2.0803  1.6474
60063SOL    HW288968   8.019  10.602  11.891  1.4490  0.9703  1.2018
60064SOL     OW88969   8.526   9.456  12.250  0.1363 -0.0042 -0.3633
60064SOL    HW188970   8.519   9.363  12.270  0.6558  0.4767  2.5670
60064SOL    HW288971   8.582   9.460  12.172  0.7527 -2.1229 -0.0942
60065SOL     OW88972   9.728   8.418  11.874  0.3336  0.2854  0.5646
60065SOL    HW188973   9.656   8.400  11.814 -0.3072 -0.1143  1.4207
60065SOL    HW288974   9.737   8.337  11.925  0.2248  0.9138  1.6314
60066SOL     OW88975  11.579   0.761   9.182  0.6317  0.1381  0.0384
60066SOL    HW188976  11.591   0.667   9.167  2.2276  0.2937  0.1938
60066SOL    HW288977  11.628   0.779   9.262  0.6565  1.1751 -0.1975
60067SOL     OW88978  12.442   2.311   5.769 -0.1894  0.2473 -0.0663
60067SOL    HW188979  12.418   2.274   5.684  0.4997 -1.0823  0.2921
60067SOL    HW288980  12.516   2.368   5.750  1.0626 -1.3210 -0.1899
60068SOL     OW88981  10.134   8.092   6.847  0.1333  0.0824  0.3916
60068SOL    HW188982  10.043   8.077   6.820  0.1165  0.1602  0.4061
60068SOL    HW288983  10.142   8.187   6.851 -0.1050  0.0721  1.4678
60069SOL     OW88984   5.000   2.044   6.131 -0.1875  0.4065  0.0733
60069SOL    HW188985   4.962   2.122   6.172 -0.9824  1.5610 -2.6543
60069SOL    HW288986   4.930   1.979   6.134  0.4344 -0.2488  2.2419
60070SOL     OW88987   8.488  12.274   0.603  0.1923 -0.1284 -0.0917
60070SOL    HW188988   8.556  12.280   0.535  0.5564 -0.8107  0.1972
60070SOL    HW288989   8.509  12.344   0.665  2.3877 -2.0484  1.5184
60071SOL     OW88990   6.542  12.265   2.933 -0.0640  0.2766  0.0243
60071SOL    HW188991   6.622  12.308   2.905 -0.4529  0.9863  0.0036
60071SOL    HW288992   6.498  12.239   2.852 -0.2929  0.6949  0.0117
60072SOL     OW88993   9.364   9.979   2.665  0.6944 -0.4257 -0.2099
60072SOL    HW188994   9.442   9.925   2.682 -1.1712 -3.6963 -1.1753
60072SOL    HW288995   9.357   9.981   2.569 -0.9523 -1.1629 -0.1360
60073SOL     OW88996  10.638   1.320   9.590 -0.0488  0.2562  0.6735
60073SOL    HW188997  10.574   1.277   9.533 -0.2589  3.0354 -1.3944
60073SOL    HW288998  10.720   1.273   9.574 -0.2506  0.5278 -1.5382
60074SOL     OW88999  11.186   7.401   6.996  0.6586  0.4109  0.2681
60074SOL    HW189000  11.186   7.399   6.900 -1.6457  0.2627  0.2254
60074SOL    HW289001  11.256   7.462   7.018  1.7267 -0.0928 -1.4621
60075SOL     OW89002   3.514   2.674  10.609 -0.1132 -0.0859 -0.1040
60075SOL    HW189003   3.493   2.731  10.682 -1.0056  0.8628 -1.0703
60075SOL    HW289004   3.491   2.586  10.639 -1.3937  0.4098  0.4036
60076SOL     OW89005   6.881   4.710   5.255  0.1574  0.2323 -0.3725
60076SOL    HW189006   6.916   4.626   5.285 -0.2001 -0.2394 -1.2454
60076SOL    HW289007   6.852   4.754   5.334 -1.2753 -1.2112 -0.0589
60077SOL     OW89008   2.092   9.678   3.385 -0.7946 -0.6199 -0.0788
60077SOL    HW189009   2.060   9.589   3.371 -1.1989 -0.8128  1.8252
60077SOL    HW289010   2.013   9.732   3.386 -0.4430  0.3060 -3.9966
60078SOL     OW89011  11.721   0.713   1.513  0.0221 -0.0053  0.5904
60078SOL    HW189012  11.812   0.743   1.513  1.1277 -2.6252  3.8035
60078SOL    HW289013  11.692   0.727   1.603 -1.4813 -2.4880  0.5752
60079SOL     OW89014   0.282   3.383   3.344 -0.0362 -0.1522 -0.1100
60079SOL    HW189015   0.310   3.424   3.262  0.0806 -1.3769 -0.7131
60079SOL    HW289016   0.364   3.351   3.383 -0.2264 -0.8614 -0.2621
60080SOL     OW89017  12.040   1.021  10.193  0.2955 -0.2662  0.0851
60080SOL    HW189018  12.114   1.009  10.253  0.9656  1.0032 -0.4475
60080SOL    HW289019  12.012   0.932  10.171  1.9689 -0.7995 -0.0544
60081SOL     OW89020  10.299  10.488   9.401  0.2859 -0.2294 -0.1692
60081SOL    HW189021  10.322  10.415   9.344 -2.1160 -1.7452  0.6360
60081SOL    HW289022  10.230  10.453   9.458 -1.8635  3.0025 -0.5350
60082SOL     OW89023   2.169   5.277   9.161  0.0973 -0.2098  0.3645
60082SOL    HW189024   2.209   5.236   9.238 -0.3767 -1.4115 -0.0051
60082SOL    HW289025   2.165   5.370   9.182 -0.5156 -0.5781  2.0350
60083SOL     OW89026  12.157   7.809   9.582  0.3775  0.4669 -0.1899
60083SOL    HW189027  12.248   7.815   9.611  0.3963  0.0031 -0.1395
60083SOL    HW289028  12.111   7.875   9.634  0.1465 -1.3034  2.0123
60084SOL     OW89029   8.454   5.164   5.965 -0.5537  0.5754  0.8477
60084SOL    HW189030   8.447   5.223   6.040  0.7347 -0.6202  1.9523
60084SOL    HW289031   8.443   5.076   6.002  0.4212 -0.0616 -0.3095
60085SOL     OW89032   8.245   1.626   9.281  0.0467  0.0138  0.1093
60085SOL    HW189033   8.196   1.708   9.275  1.5113  0.8443 -1.0249
60085SOL    HW289034   8.322   1.640   9.227  0.9411 -1.6941  0.8727
60086SOL     OW89035   6.157  10.133  10.430  0.4134  0.6105  0.5079
60086SOL    HW189036   6.163  10.104  10.520  1.4912  1.3680  0.6990
60086SOL    HW289037   6.246  10.157  10.406  0.2818 -0.2453 -0.9957
60087SOL     OW89038   9.390   5.296   9.093  0.3488  0.4253 -0.4230
60087SOL    HW189039   9.395   5.338   9.007 -0.8999  3.0976  0.6831
60087SOL    HW289040   9.350   5.362   9.149  1.2472 -1.1701  2.2745
60088SOL     OW89041   7.248   9.523   2.756 -0.1102 -0.0043  0.2046
60088SOL    HW189042   7.158   9.554   2.771 -0.0611 -0.2972  1.1859
60088SOL    HW289043   7.258   9.450   2.817  1.0456  0.4892  0.6242
60089SOL     OW89044   6.728   0.091  11.048 -0.3253 -0.4568  0.5136
60089SOL    HW189045   6.682   0.105  10.966  1.4221 -0.0892 -0.4560
60089SOL    HW289046   6.779   0.171  11.062  0.3671 -1.0038  1.2918
60090SOL     OW89047   0.054   7.199   4.885 -0.1252  0.0293  0.2632
60090SOL    HW189048  -0.017   7.225   4.826 -0.1115 -0.1279  0.1768
60090SOL    HW289049   0.088   7.118   4.846  0.7443  0.6252 -0.2337
60091SOL     OW89050   2.522  10.119   0.544  0.0581 -0.3258 -0.5129
60091SOL    HW189051   2.431  10.101   0.568  0.2079  1.8506  2.1161
60091SOL    HW289052   2.519  10.206   0.504  0.8699 -0.7590 -1.5686
60092SOL     OW89053   0.787   2.530   6.045 -0.2370  0.1418  0.2454
60092SOL    HW189054   0.763   2.559   6.133 -0.9364 -0.5340  0.2973
60092SOL    HW289055   0.844   2.455   6.059 -1.5578 -0.9244  0.1609
60093SOL     OW89056   4.523  12.128  12.041 -0.1794  0.2255 -0.1291
60093SOL    HW189057   4.570  12.155  11.962 -0.4018 -0.8995 -0.6704
60093SOL    HW289058   4.473  12.206  12.067  1.0721  1.0764 -0.1987
60094SOL     OW89059   3.931   0.822   0.248  0.4277  0.6494  0.2159
60094SOL    HW189060   3.894   0.855   0.166 -0.5485 -1.1635 -0.1085
60094SOL    HW289061   4.025   0.834   0.238  0.5512 -1.4975 -2.1469
60095SOL     OW89062   0.243   8.759   1.448  0.5735  0.1853 -0.0987
60095SOL    HW189063   0.266   8.808   1.527  2.2433  0.9331 -1.0002
60095SOL    HW289064   0.191   8.821   1.396 -4.1909 -1.5730  2.0435
60096SOL     OW89065   7.888   7.808   1.881 -0.0638 -0.6268  0.2077
60096SOL    HW189066   7.914   7.813   1.790 -0.8930 -0.0524 -0.0088
60096SOL    HW289067   7.969   7.824   1.930  0.0821  0.7464 -0.4315
60097SOL     OW89068   3.006   5.686  12.422  0.1313 -0.0745  0.8222
60097SOL    HW189069   2.943   5.613  12.424  0.1974 -0.2313 -0.9466
60097SOL    HW289070   3.083   5.651  12.466 -0.4433 -0.4435  1.5796
60098SOL     OW89071   3.193  12.168   0.060 -0.0504 -0.0689  0.3987
60098SOL    HW189072   3.230  12.247   0.100 -1.4183  0.6950  0.2306
60098SOL    HW289073   3.267  12.128   0.014  0.9653  0.4183  1.5361
60099SOL     OW89074  11.971   9.362   2.534 -0.1845 -0.1564 -0.3531
60099SOL    HW189075  11.999   9.386   2.622  0.8843 -1.7735 -0.2116
60099SOL    HW289076  12.048   9.379   2.479 -0.3352 -0.6324 -0.7154
60100SOL     OW89077   5.701  11.408   4.006  0.7871  0.1627 -0.4727
60100SOL    HW189078   5.771  11.398   3.942  1.2181 -0.1478  0.0420
60100SOL    HW289079   5.635  11.343   3.979 -0.1388  1.6658 -2.0199
60101SOL     OW89080   8.425   8.188   2.511  0.0373  0.2015 -0.2583
60101SOL    HW189081   8.497   8.240   2.475  2.1654 -2.7156 -0.5065
60101SOL    HW289082   8.466   8.130   2.575 -2.1365 -1.4096 -0.2081
60102SOL     OW89083   8.023   5.606   1.294 -0.2613 -0.2784 -0.4131
60102SOL    HW189084   8.090   5.583   1.229 -1.4537 -0.5035 -1.6165
60102SOL    HW289085   7.956   5.539   1.283 -2.1401  1.6544 -1.4463
60103SOL     OW89086   3.091   4.021   0.443  0.1007  0.4573  0.0152
60103SOL    HW189087   3.159   3.971   0.397  0.5147  0.5313  0.5294
60103SOL    HW289088   3.135   4.103   0.468 -0.5609  1.0845 -0.8057
60104SOL     OW89089   3.660  10.418   0.553 -0.7378  0.4054 -0.2407
60104SOL    HW189090   3.609  10.451   0.627 -0.7313 -0.9567  0.3857
60104SOL    HW289091   3.595  10.379   0.494 -0.4780 -1.0962  0.4348
60105SOL     OW89092   3.384   3.046   7.004  0.3039 -0.4053 -1.1033
60105SOL    HW189093   3.371   2.951   7.005 -0.4991 -0.3113 -0.3395
60105SOL    HW289094   3.472   3.059   7.038 -0.3367 -0.8130  0.8337
60106SOL     OW89095   5.583  10.407   0.876  0.4220 -0.4515 -0.1038
60106SOL    HW189096   5.524  10.366   0.812 -0.2810 -0.9637  0.8516
60106SOL    HW289097   5.544  10.387   0.961  0.4175  1.6276  0.4369
60107SOL     OW89098   4.072   9.750   8.615 -0.0737  0.4262 -0.0728
60107SOL    HW189099   4.126   9.672   8.614 -0.6858 -0.0330  0.9503
60107SOL    HW289100   3.985   9.720   8.589 -0.2403  0.8226  0.0070
60108SOL     OW89101   7.907   7.671   3.792 -0.5187  0.3693 -0.1897
60108SOL    HW189102   7.963   7.719   3.731 -1.8100  1.2326 -0.7493
60108SOL    HW289103   7.962   7.601   3.826  0.8247  1.0628 -0.8624
60109SOL     OW89104  12.535   4.160   5.977 -0.0424 -0.5658 -0.0810
60109SOL    HW189105  12.631   4.159   5.977 -0.0324  0.0253 -0.7890
60109SOL    HW289106  12.511   4.157   5.885 -0.7038 -0.4232  0.0854
60110SOL     OW89107   8.345   0.996   2.752  0.2151 -0.0765  0.0017
60110SOL    HW189108   8.349   1.087   2.781  0.6928  0.2989 -1.1997
60110SOL    HW289109   8.435   0.976   2.724  0.4926 -1.4282  1.7272
60111SOL     OW89110   5.171   4.186   1.550 -1.1013 -0.1336 -0.2418
60111SOL    HW189111   5.104   4.118   1.549 -1.6255  0.3036  1.7140
60111SOL    HW289112   5.125   4.266   1.525 -1.7530  0.4553  2.4890
60112SOL     OW89113  11.188   6.444   5.695 -0.0972 -0.5059 -0.1104
60112SOL    HW189114  11.278   6.453   5.727 -0.4013 -0.1013  0.6636
60112SOL    HW289115  11.149   6.531   5.707 -0.7051 -0.7748 -0.0882
60113SOL     OW89116   6.345   5.429  11.593 -0.7578  0.2313 -0.2278
60113SOL    HW189117   6.377   5.339  11.586 -0.0527  0.3867  0.7275
60113SOL    HW289118   6.322   5.454  11.504 -0.0017 -0.5504 -0.6516
60114SOL     OW89119   9.678  10.896  10.712 -0.4349 -0.1311  0.0168
60114SOL    HW189120   9.763  10.856  10.730 -0.7876 -2.0384 -2.0846
60114SOL    HW289121   9.633  10.895  10.796  0.8990 -0.9193  0.7552
60115SOL     OW89122   7.898   9.078   2.005  0.3559  0.4300  0.0995
60115SOL    HW189123   7.890   9.114   1.916  2.3826 -1.8899 -1.1465
60115SOL    HW289124   7.990   9.053   2.013  0.0313 -0.2318  2.5499
60116SOL     OW89125   3.602   8.394   0.585 -0.4573  0.6983  0.4396
60116SOL    HW189126   3.607   8.474   0.533  1.4724  1.2838  1.4561
60116SOL    HW289127   3.622   8.421   0.675 -2.0555 -0.5667  1.2277
60117SOL     OW89128  11.880   4.519   7.031 -0.2394  0.0423 -0.1277
60117SOL    HW189129  11.889   4.444   6.973 -0.1157  1.5594 -2.1691
60117SOL    HW289130  11.967   4.532   7.069 -0.0933 -0.4141 -0.3026
60118SOL     OW89131   9.589   6.716   2.713 -0.1244 -0.3197  0.1363
60118SOL    HW189132   9.545   6.688   2.633 -0.4041 -2.5906  1.0044
60118SOL    HW289133   9.531   6.781   2.751 -0.6867 -0.2647 -0.7887
60119SOL     OW89134   6.221   3.753  12.052  0.2677 -0.4743 -0.2620
60119SOL    HW189135   6.204   3.674  12.104  0.8179  0.2552  1.0901
60119SOL    HW289136   6.298   3.792  12.093 -0.3487  1.0781 -0.5046
60120SOL     OW89137   1.937   3.386   5.971  0.5247 -0.1460  0.0426
60120SOL    HW189138   1.843   3.399   5.957  0.7274  1.0735 -0.2434
60120SOL    HW289139   1.947   3.290   5.974 -0.4555 -0.3669 -1.8238
60121SOL     OW89140  12.273   3.199   1.467  0.1005  0.2862  0.3110
60121SOL    HW189141  12.346   3.209   1.404  0.9469 -1.1634  1.0205
60121SOL    HW289142  12.213   3.139   1.424 -0.7611  1.5514 -0.3112
60122SOL     OW89143   5.168   0.511   0.400  0.0610  0.4516  0.4590
60122SOL    HW189144   5.126   0.450   0.461 -1.0405  0.8860  0.1678
60122SOL    HW289145   5.158   0.597   0.441 -1.2414  0.8362 -0.5557
60123SOL     OW89146  11.441   1.646   7.549  0.3520 -0.5905 -0.0019
60123SOL    HW189147  11.348   1.624   7.544 -0.1690  1.2337  0.8764
60123SOL    HW289148  11.469   1.615   7.635 -0.2174  1.4877  0.9643
60124SOL     OW89149   8.599  12.058   4.576 -0.2029 -0.0035  0.0899
60124SOL    HW189150   8.597  12.084   4.484  1.8477  0.1493  0.0387
60124SOL    HW289151   8.574  12.137   4.624  0.0634  0.3196 -0.2959
60125SOL     OW89152   8.238   7.024   3.872 -0.1010  0.0169 -0.3805
60125SOL    HW189153   8.154   7.064   3.897 -0.1560  0.1663 -0.7868
60125SOL    HW289154   8.254   7.056   3.783  0.7141  0.5108 -0.0653
60126SOL     OW89155   9.410   0.242   9.513 -0.2506  0.6778  0.4987
60126SOL    HW189156   9.393   0.183   9.440 -3.4526  1.2581  0.6144
60126SOL    HW289157   9.436   0.324   9.472 -2.2985  1.0814 -0.0833
60127SOL     OW89158   3.484   1.082   1.448  0.0027  0.7419 -0.5953
60127SOL    HW189159   3.489   1.176   1.429  1.3445  1.1205  1.3024
60127SOL    HW289160   3.493   1.076   1.543 -0.2214 -1.3196 -0.6518
60128SOL     OW89161  10.707   6.301  11.363 -0.5155  0.2805  0.4585
60128SOL    HW189162  10.649   6.342  11.427 -1.4756  1.1253 -0.8954
60128SOL    HW289163  10.756   6.374  11.324 -1.2202  0.0343 -0.9848
60129SOL     OW89164   4.581   0.809  12.182  0.7260  0.0959  0.3787
60129SOL    HW189165   4.655   0.846  12.136  1.4562 -1.5461  0.1504
60129SOL    HW289166   4.553   0.877  12.243  1.4517  1.2857 -0.5839
60130SOL     OW89167   1.573   3.729  10.483  0.1741 -0.0036  0.4127
60130SOL    HW189168   1.658   3.686  10.493  0.3406  0.2936  0.2982
60130SOL    HW289169   1.563   3.783  10.561  0.3322  0.3655  0.1848
60131SOL     OW89170   3.944   1.435   6.688  0.2209  0.5032  0.6680
60131SOL    HW189171   3.869   1.493   6.675  0.0673  0.0967 -0.3248
60131SOL    HW289172   3.931   1.363   6.626  2.2070  1.1854 -0.6425
60132SOL     OW89173  11.953  12.485   9.845  0.2011 -0.9024 -0.4616
60132SOL    HW189174  11.936  12.396   9.816  0.7763 -0.2701 -2.9522
60132SOL    HW289175  12.006  12.524   9.775  2.1305  0.6538  1.6953
60133SOL     OW89176   4.616   9.933  12.239 -0.5491 -0.1884  0.7403
60133SOL    HW189177   4.548   9.957  12.175 -0.5312 -0.7361  0.5140
60133SOL    HW289178   4.642  10.017  12.278  0.5358  0.3635 -1.0587
60134SOL     OW89179  10.794   8.869   0.132  0.1878 -0.4225  0.2084
60134SOL    HW189180  10.784   8.788   0.184 -1.3848 -0.5515 -0.2300
60134SOL    HW289181  10.705   8.906   0.129  0.4613  0.1801 -1.4275
60135SOL     OW89182  10.074   2.744   7.144 -0.7256 -0.0999  0.7767
60135SOL    HW189183   9.993   2.705   7.176 -0.1941 -0.4111  1.7678
60135SOL    HW289184  10.126   2.761   7.222 -0.4784  1.6068  0.2920
60136SOL     OW89185   2.275  10.631   3.762  0.6446  0.1897 -0.0079
60136SOL    HW189186   2.271  10.673   3.848  1.3493  0.3757 -0.0643
60136SOL    HW289187   2.246  10.698   3.701 -2.0778 -0.5866  0.2595
60137SOL     OW89188   4.994  10.528   2.850  0.3053  0.5329 -0.0042
60137SOL    HW189189   5.059  10.485   2.907  0.2299  0.3496 -0.0536
60137SOL    HW289190   5.012  10.621   2.859 -0.5008  0.5869  1.2874
60138SOL     OW89191   0.455   1.813   1.197 -0.0312  0.6133  0.0918
60138SOL    HW189192   0.424   1.878   1.260  2.6176  0.9663  1.1688
60138SOL    HW289193   0.488   1.865   1.124 -0.8477  0.3072 -0.5057
60139SOL     OW89194  12.542   4.283   9.241 -0.7364  0.5493  0.1948
60139SOL    HW189195  12.476   4.227   9.200 -0.3820  1.0218 -1.0571
60139SOL    HW289196  12.579   4.334   9.169  1.1916  0.1263  0.8296
60140SOL     OW89197  11.437   4.523   0.012  0.2269 -1.0440 -0.1827
60140SOL    HW189198  11.477   4.576   0.080 -0.2655 -2.5488  1.3341
60140SOL    HW289199  11.355   4.492   0.050  0.3801 -2.6801 -1.0762
60141SOL     OW89200   7.380  10.127   5.709 -0.4993 -0.1041 -0.5303
60141SOL    HW189201   7.319  10.189   5.749  1.7317  1.7553  0.1646
60141SOL    HW289202   7.414  10.172   5.632  1.0566 -0.4751 -0.1031
60142SOL     OW89203   6.024   7.474  12.084  0.0469  0.4082  0.2569
60142SOL    HW189204   5.939   7.469  12.127  0.0349 -3.5530  0.1400
60142SOL    HW289205   6.004   7.469  11.990  0.4028  0.8865  0.1466
60143SOL     OW89206   0.894   8.446   8.406 -0.5487 -0.2127 -0.4612
60143SOL    HW189207   0.899   8.410   8.494  0.9702 -0.4570 -0.6244
60143SOL    HW289208   0.897   8.540   8.418 -0.8042 -0.2320 -0.2353
60144SOL     OW89209   5.951  10.441   0.996 -0.6274  0.5228 -0.4383
60144SOL    HW189210   6.039  10.479   1.006  0.4807 -1.8356 -0.5376
60144SOL    HW289211   5.918  10.436   1.086 -0.6933  1.4401 -0.4003
60145SOL     OW89212   7.346   8.233  11.768 -0.0666  0.3768  0.0720
60145SOL    HW189213   7.335   8.154  11.820  2.0167 -1.0136 -1.4334
60145SOL    HW289214   7.348   8.304  11.833  1.8805 -1.1972  1.9129
60146SOL     OW89215   2.441   4.486   9.414  0.1036  0.0304 -0.0908
60146SOL    HW189216   2.527   4.523   9.433  0.0343  0.7094 -1.0226
60146SOL    HW289217   2.452   4.443   9.329 -0.6982  0.9215 -0.6621
60147SOL     OW89218   5.240  11.895   0.456 -0.4879 -0.3359  0.3829
60147SOL    HW189219   5.178  11.834   0.415  0.3857 -0.9171 -0.1105
60147SOL    HW289220   5.187  11.945   0.518 -2.4116  2.2097 -2.9845
60148SOL     OW89221   2.304  10.286   6.596 -0.1808 -0.2129  0.1772
60148SOL    HW189222   2.271  10.216   6.540  1.9754 -1.4617  0.3317
60148SOL    HW289223   2.357  10.341   6.537  1.1033 -0.8377  0.7174
60149SOL     OW89224  11.548   5.063   2.234 -0.4364 -0.6244  0.2116
60149SOL    HW189225  11.557   5.153   2.267 -1.3892 -0.3927 -0.1386
60149SOL    HW289226  11.606   5.012   2.290  2.0718  0.5677 -1.1558
60150SOL     OW89227   2.050  11.134   1.495  0.7109 -0.4252  0.4689
60150SOL    HW189228   2.092  11.214   1.462  0.0922  0.1298  1.0122
60150SOL    HW289229   2.029  11.154   1.586 -0.5133 -0.7784  0.2812
60151SOL     OW89230   2.977   0.338   1.372 -0.4632 -0.2554 -0.1865
60151SOL    HW189231   3.065   0.317   1.341 -0.4894 -2.4669  0.9946
60151SOL    HW289232   2.919   0.278   1.324 -1.0815 -0.1241  0.3745
60152SOL     OW89233  10.904  10.261   4.485 -1.0149  0.4952  0.2752
60152SOL    HW189234  10.887  10.175   4.446 -0.4892 -0.7288  2.5782
60152SOL    HW289235  10.999  10.273   4.476 -0.7622 -0.1725  1.8219
60153SOL     OW89236  10.530   9.079   6.384  0.8014 -0.2795 -0.3950
60153SOL    HW189237  10.550   9.135   6.459  0.9698  1.4794 -1.6914
60153SOL    HW289238  10.434   9.077   6.380  0.7937 -0.1485 -0.2827
60154SOL     OW89239  12.138   7.569   3.060 -0.1162  0.1256 -0.6174
60154SOL    HW189240  12.048   7.539   3.048 -0.1900 -0.0240  0.3060
60154SOL    HW289241  12.130   7.664   3.072 -0.2877 -0.0596  0.8473
60155SOL     OW89242   6.497   1.118   7.040 -0.4148 -0.4550 -0.0852
60155SOL    HW189243   6.454   1.204   7.039  0.8399  0.2072  0.4677
60155SOL    HW289244   6.457   1.073   7.114 -1.7972 -0.7603 -0.9744
60156SOL     OW89245  11.636   7.403   6.961  0.2949  0.1728  0.1497
60156SOL    HW189246  11.652   7.477   7.020  0.6504  0.9891 -0.9339
60156SOL    HW289247  11.675   7.430   6.878 -1.2780 -0.4309 -0.8260
60157SOL     OW89248   2.957   9.670   5.444 -0.0791  0.1499  0.2517
60157SOL    HW189249   2.928   9.684   5.353  0.6224 -0.8596 -0.1379
60157SOL    HW289250   2.903   9.597   5.475 -0.1061  0.2984  0.5613
60158SOL     OW89251   9.505   2.518   8.206 -0.2250  0.1365 -0.0932
60158SOL    HW189252   9.526   2.473   8.288 -3.8723 -0.6337  0.5735
60158SOL    HW289253   9.571   2.487   8.145  0.7088 -1.7952  1.7613
60159SOL     OW89254   4.182   1.134   4.746  0.0968 -0.7734  0.3747
60159SOL    HW189255   4.096   1.116   4.708 -0.9780 -0.2332  2.4248
60159SOL    HW289256   4.242   1.132   4.671 -2.1102  1.8792 -1.6948
60160SOL     OW89257   6.211   1.919   9.239  0.2922  0.5912  0.3276
60160SOL    HW189258   6.233   1.870   9.318  0.7396 -0.6904 -0.5700
60160SOL    HW289259   6.173   1.854   9.180  1.9243  1.0653 -1.3146
60161SOL     OW89260   8.020   8.723  10.634  0.1171  0.3915 -0.0311
60161SOL    HW189261   7.951   8.710  10.699  0.9209  1.4571  1.0817
60161SOL    HW289262   7.999   8.661  10.564 -1.4820  0.1009  0.6591
60162SOL     OW89263   6.495   3.703   4.022 -0.1947  0.4845  0.1382
60162SOL    HW189264   6.578   3.655   4.029 -1.1668 -1.3520 -0.1541
60162SOL    HW289265   6.475   3.731   4.112 -0.2821 -0.9335  0.5832
60163SOL     OW89266   8.232   9.077   5.135 -0.0603 -0.0348  0.5449
60163SOL    HW189267   8.183   9.157   5.116 -0.8302 -0.6358 -0.0306
60163SOL    HW289268   8.311   9.084   5.081 -0.0053  0.4352  0.6735
60164SOL     OW89269  10.676   1.526  11.493 -0.0481  0.2492  0.1716
60164SOL    HW189270  10.629   1.496  11.570 -0.2066  1.6776  0.6481
60164SOL    HW289271  10.668   1.453  11.430 -2.2053  0.1323  0.5093
60165SOL     OW89272   7.390   9.076   3.531  0.1194  0.0017  0.1477
60165SOL    HW189273   7.408   9.159   3.574  2.2503 -0.3559  0.0659
60165SOL    HW289274   7.322   9.035   3.584  0.9460  0.6457  1.7811
60166SOL     OW89275   7.056   4.607   5.921  0.6763  0.0590 -0.2127
60166SOL    HW189276   6.967   4.585   5.895  0.2912  1.2665  0.0204
60166SOL    HW289277   7.084   4.534   5.976 -0.4119 -0.0138  0.2604
60167SOL     OW89278   9.713   8.498   3.376  0.7909 -0.2619  0.0931
60167SOL    HW189279   9.782   8.531   3.318  0.7644  0.1894  0.3166
60167SOL    HW289280   9.727   8.403   3.378  2.0393 -0.0679  0.9576
60168SOL     OW89281   5.482   2.346  11.669 -0.6413  0.2226  0.2633
60168SOL    HW189282   5.400   2.393  11.650  0.3539  1.8643 -0.1586
60168SOL    HW289283   5.480   2.332  11.763 -0.8676  1.3550  0.4422
60169SOL     OW89284   1.235   0.226   1.461  0.2660  0.6681  0.1587
60169SOL    HW189285   1.221   0.305   1.513 -0.8683  1.5182 -1.3670
60169SOL    HW289286   1.195   0.156   1.512  0.8220  1.1392  1.2830
60170SOL     OW89287  12.412   9.529   9.776  0.6236 -0.1188  0.0730
60170SOL    HW189288  12.323   9.506   9.749 -0.8162  1.8916  2.6016
60170SOL    HW289289  12.461   9.447   9.771 -2.1343 -1.9880  1.2962
60171SOL     OW89290  10.846   0.024  11.591  0.7189  0.0841 -0.0551
60171SOL    HW189291  10.905   0.059  11.658  1.6372  0.9313 -1.2513
60171SOL    HW289292  10.785   0.096  11.573 -2.0335 -1.3747  2.5101
60172SOL     OW89293   9.165   8.094   4.764 -0.2188  0.0476  0.7479
60172SOL    HW189294   9.108   8.017   4.760 -0.1917  0.0798 -0.6870
60172SOL    HW289295   9.118   8.156   4.820 -2.1896  0.5116 -1.3103
60173SOL     OW89296  12.275   7.030  12.210 -0.0245  0.9061  0.5283
60173SOL    HW189297  12.207   7.063  12.152 -1.3063 -2.5295 -0.1412
60173SOL    HW289298  12.356   7.038  12.160 -1.0027 -1.3498 -1.6676
60174SOL     OW89299   6.923   3.236   6.701  0.3472 -0.0093 -0.0257
60174SOL    HW189300   6.931   3.290   6.780  1.2777 -0.1798  0.0038
60174SOL    HW289301   6.955   3.292   6.631 -0.7609  0.2493 -0.3462
60175SOL     OW89302   4.084  10.832  11.558 -0.7778  0.1790 -0.1395
60175SOL    HW189303   4.041  10.766  11.613  0.8781 -1.7986 -1.1018
60175SOL    HW289304   4.155  10.866  11.612  0.4403 -1.2898 -0.7659
60176SOL     OW89305   2.705   1.899  10.822 -0.4862 -0.2588 -0.0061
60176SOL    HW189306   2.691   1.878  10.914  0.0416  0.2938  0.2060
60176SOL    HW289307   2.717   1.994  10.820 -0.6377 -0.2445 -0.6638
60177SOL     OW89308   5.963  11.326   3.329  0.3647  0.7688 -0.3024
60177SOL    HW189309   5.982  11.260   3.262  0.0961  1.9421 -1.5859
60177SOL    HW289310   5.958  11.276   3.411 -0.8405 -0.9660 -1.3587
60178SOL     OW89311   6.709   4.598   3.526 -0.5017 -0.2704  0.4950
60178SOL    HW189312   6.630   4.640   3.558 -0.1099  0.5839  0.3704
60178SOL    HW289313   6.687   4.505   3.519 -1.7274  0.0623 -0.2814
60179SOL     OW89314   3.188   4.552   2.859 -0.5270  0.2714  0.0995
60179SOL    HW189315   3.207   4.572   2.950  1.6106 -0.2823 -0.1587
60179SOL    HW289316   3.095   4.571   2.848 -0.8615  0.1790  2.4193
60180SOL     OW89317  11.178   3.900   5.231  0.0634 -0.4178  0.1733
60180SOL    HW189318  11.224   3.835   5.178 -0.6238 -0.1974 -0.7113
60180SOL    HW289319  11.185   3.867   5.321  1.9631 -0.3761  0.0954
60181SOL     OW89320   9.334   0.732   5.722 -0.2128 -0.0388 -0.6058
60181SOL    HW189321   9.339   0.643   5.688 -1.5661 -0.6680  0.7503
60181SOL    HW289322   9.361   0.787   5.648  1.0907 -1.5632 -1.3298
60182SOL     OW89323   9.887   5.319   5.078  0.3566 -0.1021 -0.1803
60182SOL    HW189324   9.964   5.368   5.050 -0.5107 -0.6411 -4.0189
60182SOL    HW289325   9.813   5.377   5.061 -0.4125 -1.3684 -1.3446
60183SOL     OW89326  11.190   8.056  12.161  0.3235  0.2340 -0.2851
60183SOL    HW189327  11.268   8.001  12.159  0.2289  0.0273  0.7300
60183SOL    HW289328  11.136   8.025  12.088  0.2261 -1.1187  0.3224
60184SOL     OW89329  12.229   9.018  11.504 -0.1036 -0.5926 -0.2665
60184SOL    HW189330  12.152   8.973  11.539  0.4528 -0.0378  1.8379
60184SOL    HW289331  12.301   8.984  11.557  0.8180  0.2825 -0.9321
60185SOL     OW89332  11.067   8.919   1.539  0.6217 -0.5185  0.8194
60185SOL    HW189333  10.971   8.922   1.532  0.6128  0.2686  1.1784
60185SOL    HW289334  11.086   8.956   1.626  1.3106  0.5344  0.2406
60186SOL     OW89335   6.829   0.590   3.718 -0.4867 -0.2243  0.2970
60186SOL    HW189336   6.873   0.505   3.718 -1.2924 -0.6511  1.1364
60186SOL    HW289337   6.886   0.647   3.769  0.5676  0.0467 -1.0920
60187SOL     OW89338   1.087   4.262   4.708 -0.2428 -0.0822 -0.4290
60187SOL    HW189339   1.004   4.263   4.755 -0.6899  0.4639 -1.2197
60187SOL    HW289340   1.152   4.288   4.773 -0.8178  0.4070 -0.0471
60188SOL     OW89341   8.375  11.883  10.267 -0.1723 -0.3997  0.1183
60188SOL    HW189342   8.339  11.864  10.353  0.5489  0.2808  0.5834
60188SOL    HW289343   8.308  11.853  10.206 -1.3860  0.4888  0.9510
60189SOL     OW89344   2.557   4.978   4.707  0.0125 -0.0829  0.1296
60189SOL    HW189345   2.573   4.910   4.640  1.4717  0.2172  0.1421
60189SOL    HW289346   2.477   4.949   4.751  1.1864 -2.4566  0.9112
60190SOL     OW89347   4.906   8.773   7.657  0.0898 -0.0106  0.4227
60190SOL    HW189348   4.946   8.819   7.583  0.7108 -0.8084  0.2513
60190SOL    HW289349   4.980   8.742   7.709 -0.3437  0.3529  1.2665
60191SOL     OW89350  10.904   9.047  12.356 -0.8990  0.1766  0.0229
60191SOL    HW189351  10.978   9.103  12.334  0.0540 -0.2802  1.8332
60191SOL    HW289352  10.829   9.088  12.313 -0.1092  2.4032  0.6323
60192SOL     OW89353   6.951   3.456   3.545  0.8014 -0.4337  0.0059
60192SOL    HW189354   6.886   3.526   3.549 -0.2834 -1.4097 -0.1269
60192SOL    HW289355   6.947   3.414   3.630 -0.1106 -1.6768 -0.6153
60193SOL     OW89356   7.904   4.582   5.442  0.0997 -0.9036 -0.4494
60193SOL    HW189357   7.812   4.579   5.469  0.5905 -1.6485  1.2798
60193SOL    HW289358   7.934   4.669   5.470  0.3957 -1.3727  0.7487
60194SOL     OW89359   3.229   6.747  11.928 -0.1947 -0.4323  0.5467
60194SOL    HW189360   3.182   6.691  11.866  0.4777 -1.0851  0.6148
60194SOL    HW289361   3.306   6.696  11.953  0.5335  0.5998  0.4718
60195SOL     OW89362   7.905   0.523   3.007 -0.1362  0.0574 -0.3383
60195SOL    HW189363   7.954   0.494   3.084  1.0563  1.3308 -0.5837
60195SOL    HW289364   7.847   0.591   3.041  0.1707  0.4037 -0.5002
60196SOL     OW89365   6.235   9.878   0.050  0.1147 -0.7665 -0.1361
60196SOL    HW189366   6.184   9.945   0.096 -0.3444 -1.9407  1.1087
60196SOL    HW289367   6.191   9.796   0.069  2.1986 -1.7950  0.6530
60197SOL     OW89368   2.640   3.741   3.407 -0.0809 -0.1615  0.4457
60197SOL    HW189369   2.610   3.673   3.346  0.7596  0.2902 -0.5061
60197SOL    HW289370   2.731   3.717   3.427 -0.0039  0.2959  0.6559
60198SOL     OW89371  11.838  12.270   2.651  0.2856  0.2346 -0.2731
60198SOL    HW189372  11.876  12.219   2.723  1.8944  1.8784  0.1010
60198SOL    HW289373  11.748  12.285   2.678  0.0951 -1.4023  0.1258
60199SOL     OW89374   3.343   4.854  11.453 -0.7961 -0.5754 -0.2344
60199SOL    HW189375   3.351   4.771  11.500  0.7108 -1.0716 -1.2769
60199SOL    HW289376   3.430   4.870  11.418 -0.2883  2.8325  2.0808
60200SOL     OW89377   1.831   8.221   2.967 -0.1094  0.8297  0.7723
60200SOL    HW189378   1.773   8.146   2.981  1.5298 -1.0355 -1.5901
60200SOL    HW289379   1.791   8.292   3.017 -2.0566 -1.4450  2.6860
60201SOL     OW89380  12.513  11.937   9.622  0.2173 -0.1040 -0.5807
60201SOL    HW189381  12.504  11.891   9.706  0.2479  0.2515 -0.3810
60201SOL    HW289382  12.542  12.025   9.646  0.2249  0.0001 -0.9659
60202SOL     OW89383   6.514  12.106   4.119 -0.3164 -0.2467  0.2931
60202SOL    HW189384   6.574  12.168   4.077  1.6110 -1.0375  1.7053
60202SOL    HW289385   6.429  12.148   4.113  0.4568  1.2411 -1.2541
60203SOL     OW89386   7.863   0.272   1.743  0.0817 -0.5399 -0.0327
60203SOL    HW189387   7.816   0.322   1.676  1.2921  1.4031  0.5043
60203SOL    HW289388   7.857   0.326   1.822  2.7898 -0.4065  0.1750
60204SOL     OW89389  11.883  10.090   7.428 -0.1512  0.1649  0.8804
60204SOL    HW189390  11.843  10.085   7.515  0.0263  0.0225  0.9554
60204SOL    HW289391  11.890  10.184   7.411  0.5794  0.2156  1.3836
60205SOL     OW89392   2.245   7.504   7.749 -0.1710  0.0984  0.3007
60205SOL    HW189393   2.171   7.529   7.805 -0.4443 -1.5760  0.7294
60205SOL    HW289394   2.296   7.444   7.803  0.9647  0.4384 -0.3641
60206SOL     OW89395   7.849   3.063  10.674  0.2389 -0.4067 -0.1822
60206SOL    HW189396   7.895   3.127  10.728  0.2183  0.5808 -1.2947
60206SOL    HW289397   7.756   3.085  10.684  0.2576  0.0237 -0.9007
60207SOL     OW89398  10.707   9.833   0.430  0.2279 -0.1594 -0.3414
60207SOL    HW189399  10.723   9.799   0.342 -0.5380 -1.5968  0.0541
60207SOL    HW289400  10.629   9.889   0.419  0.1556 -0.3047 -0.5810
60208SOL     OW89401  12.483  10.063  11.548  1.0976 -0.2108  0.3991
60208SOL    HW189402  12.473  10.112  11.629  0.8809 -1.5690  1.2031
60208SOL    HW289403  12.508  10.130  11.483 -1.7019  1.4156  0.8489
60209SOL     OW89404  11.693  10.229  11.330  0.0273 -0.2023  0.3664
60209SOL    HW189405  11.691  10.284  11.252 -0.2062  1.0242  1.1965
60209SOL    HW289406  11.656  10.284  11.399  2.0145 -0.5085  1.7867
60210SOL     OW89407   2.640  12.475   5.239 -0.1129  0.8873  0.3530
60210SOL    HW189408   2.629  12.409   5.171  0.3243  0.3412  0.8065
60210SOL    HW289409   2.630  12.428   5.321 -2.3265  1.8252  0.7096
60211SOL     OW89410   0.963   4.602   3.883  0.0839  0.5154  0.2720
60211SOL    HW189411   1.021   4.526   3.873 -0.8749 -0.2280  0.1309
60211SOL    HW289412   0.878   4.571   3.851 -0.1614  1.8879 -0.4427
60212SOL     OW89413   7.120   5.657   2.219  0.0957 -0.5562  0.2791
60212SOL    HW189414   7.105   5.579   2.167 -1.5647  0.7495 -1.3324
60212SOL    HW289415   7.059   5.651   2.292  0.0519 -0.8087  0.2188
60213SOL     OW89416   0.535   6.253  12.019  0.4572  0.0371  0.1353
60213SOL    HW189417   0.536   6.330  11.963  0.0399 -0.9581 -1.3274
60213SOL    HW289418   0.442   6.230  12.026  0.6098 -0.5993  0.1497
60214SOL     OW89419   4.423   6.870   6.230  0.5989  0.1343 -0.5127
60214SOL    HW189420   4.500   6.898   6.181  0.3113  3.1112  0.5422
60214SOL    HW289421   4.349   6.894   6.175  0.3370 -1.2910 -0.8330
60215SOL     OW89422  11.582  12.028  10.373 -0.2849 -0.5101 -0.3651
60215SOL    HW189423  11.632  12.026  10.291  0.5530 -1.5869  0.1552
60215SOL    HW289424  11.513  12.092  10.357 -0.7450 -1.4015 -2.2910
60216SOL     OW89425   3.071   7.840   2.231  0.0337  0.5470  0.4207
60216SOL    HW189426   3.084   7.747   2.248 -1.0393  0.3947  0.5023
60216SOL    HW289427   2.975   7.851   2.229  0.1210  1.3887 -0.9397
60217SOL     OW89428  10.631   6.766   7.466  0.4123 -0.2006 -0.1958
60217SOL    HW189429  10.617   6.852   7.506  0.4220 -0.1694 -0.2590
60217SOL    HW289430  10.544   6.741   7.433  0.6241  0.2732 -1.1420
60218SOL     OW89431   9.308   3.846   7.022  0.2557  0.3681  0.1933
60218SOL    HW189432   9.327   3.752   7.026 -2.0539 -0.2722 -1.7057
60218SOL    HW289433   9.314   3.867   6.929 -0.4990  1.8144  0.4539
60219SOL     OW89434  11.912   3.292   6.482 -0.4210 -0.0098  0.3124
60219SOL    HW189435  11.859   3.280   6.561 -0.4129 -1.2977  0.1425
60219SOL    HW289436  11.949   3.205   6.465  0.9978  0.6424 -0.1073
60220SOL     OW89437   6.962  11.354   7.699 -0.6612  0.4177  0.0092
60220SOL    HW189438   7.051  11.345   7.668 -0.7277 -0.3358  0.0255
60220SOL    HW289439   6.956  11.294   7.774 -1.0383  0.8220  0.3093
60221SOL     OW89440   3.447   6.638   5.465 -0.4132 -0.7573 -0.3298
60221SOL    HW189441   3.510   6.584   5.418 -1.9310 -2.0710 -0.9228
60221SOL    HW289442   3.465   6.621   5.558 -1.1167 -2.6551 -0.5028
60222SOL     OW89443   0.236  11.365   2.674  0.1284  0.1042  0.1694
60222SOL    HW189444   0.154  11.408   2.696 -0.1967 -0.3940 -0.0453
60222SOL    HW289445   0.210  11.284   2.629  0.6455 -1.3814  2.3732
60223SOL     OW89446   6.156  10.023   1.430 -0.8541 -0.2247  0.4773
60223SOL    HW189447   6.102  10.036   1.508  0.0254  2.2242  0.7744
60223SOL    HW289448   6.095   9.993   1.363 -1.7910 -1.4959  1.8483
60224SOL     OW89449   6.087   9.055   9.625 -0.1736  0.3853 -0.3104
60224SOL    HW189450   6.030   9.074   9.699  0.8617  0.8658  0.3984
60224SOL    HW289451   6.135   9.137   9.611 -1.0210  0.6137 -2.1514
60225SOL     OW89452   9.961   0.685   0.061  0.2390  0.2287 -0.7364
60225SOL    HW189453   9.891   0.629   0.096 -0.0747  1.1840  0.2022
60225SOL    HW289454   9.948   0.683  -0.034 -0.9725  0.2747 -0.5890
60226SOL     OW89455   6.206   3.467   3.068 -0.2944 -0.4244  0.3391
60226SOL    HW189456   6.179   3.456   2.977 -1.9134  1.0045  0.5906
60226SOL    HW289457   6.295   3.502   3.063 -1.1240  1.6617 -0.7913
60227SOL     OW89458   5.620   0.518   7.586 -0.0044  0.1018  0.0866
60227SOL    HW189459   5.582   0.468   7.514 -1.3801 -0.1563  0.9557
60227SOL    HW289460   5.640   0.452   7.653  0.0782  0.4867  0.4436
60228SOL     OW89461   8.059   4.193   9.905 -0.1978 -0.1801  0.3996
60228SOL    HW189462   8.124   4.224   9.841 -0.6527  0.2018  0.1150
60228SOL    HW289463   7.978   4.238   9.880  0.0201  1.4216  2.3631
60229SOL     OW89464   9.137  11.381  12.155 -0.1710 -0.0144  0.5385
60229SOL    HW189465   9.132  11.306  12.213 -1.9730  0.0908  0.5893
60229SOL    HW289466   9.186  11.350  12.079  0.2590 -0.8235  1.1360
60230SOL     OW89467  11.330   9.804   4.337 -0.3324  0.1295 -0.4749
60230SOL    HW189468  11.375   9.736   4.387 -0.7460 -0.5348 -0.9794
60230SOL    HW289469  11.398   9.844   4.284 -0.1902 -0.3456 -0.6617
60231SOL     OW89470  11.409   2.460   4.429  0.0598 -0.3025  0.1773
60231SOL    HW189471  11.453   2.405   4.365 -2.3026 -0.3926 -1.5190
60231SOL    HW289472  11.352   2.400   4.477  1.4196 -0.1489  2.1161
60232SOL     OW89473   8.396  11.775  11.233  0.1668  0.2450 -0.2318
60232SOL    HW189474   8.433  11.854  11.273 -0.4685 -0.2186  1.3484
60232SOL    HW289475   8.315  11.760  11.281 -0.0784 -0.9819 -0.9895
60233SOL     OW89476  11.384   3.890   7.088  0.7042  0.2669  0.1836
60233SOL    HW189477  11.453   3.869   7.024 -0.0770 -0.8150 -0.3333
60233SOL    HW289478  11.421   3.962   7.139  0.9236  1.9931 -2.2093
60234SOL     OW89479  10.693   9.431   7.505  0.3256  0.1323  0.2486
60234SOL    HW189480  10.690   9.408   7.598  2.8381  0.3157  0.4241
60234SOL    HW289481  10.667   9.523   7.502 -0.6006 -0.0990  0.6276
60235SOL     OW89482   0.290   1.026   7.978  0.4570  0.1411  0.7019
60235SOL    HW189483   0.278   1.117   7.950  1.0537 -0.0225 -0.1203
60235SOL    HW289484   0.329   0.982   7.903  1.5944 -0.4478  1.5989
60236SOL     OW89485  12.276   0.527   9.370  0.2984 -0.2565 -0.2438
60236SOL    HW189486  12.257   0.468   9.297  2.2699  1.1551 -2.0638
60236SOL    HW289487  12.261   0.615   9.333  0.2745  0.4633  1.4148
60237SOL     OW89488   8.744   5.675  11.459  0.1528  0.1585 -0.1227
60237SOL    HW189489   8.825   5.628  11.440 -0.2309 -0.6601  0.1813
60237SOL    HW289490   8.677   5.627  11.411 -0.4409 -0.4126  1.2172
60238SOL     OW89491   0.965   9.680   6.733 -0.4131 -0.4299  0.1034
60238SOL    HW189492   1.045   9.654   6.780 -0.3936 -1.6810 -0.5597
60238SOL    HW289493   0.917   9.734   6.795  0.4450 -0.5593  0.9112
60239SOL     OW89494   8.142   5.489  11.186  0.3875 -0.2060  0.1802
60239SOL    HW189495   8.168   5.476  11.095  1.2336 -2.4195  0.6765
60239SOL    HW289496   8.135   5.401  11.222 -1.9332  0.5236  1.7614
60240SOL     OW89497  11.767  11.539   6.494 -0.5917  0.1914 -0.5778
60240SOL    HW189498  11.850  11.586   6.499 -0.2462 -0.5253  1.3637
60240SOL    HW289499  11.770  11.492   6.411  0.7646  0.4891 -0.7136
60241SOL     OW89500   6.503   8.700  10.068  0.3388 -0.0069 -0.0029
60241SOL    HW189501   6.535   8.619  10.029  0.3635 -0.9506  1.9069
60241SOL    HW289502   6.546   8.705  10.153 -0.4594  1.4931  0.3488
60242SOL     OW89503   5.769   5.699   6.254  0.2728 -0.1137  0.4198
60242SOL    HW189504   5.761   5.607   6.228 -1.0384  0.0760  0.0835
60242SOL    HW289505   5.698   5.743   6.207 -0.0738  0.8086  1.7539
60243SOL     OW89506   4.054   9.883   8.848 -0.0305  0.4065 -0.1073
60243SOL    HW189507   4.037   9.841   8.764  1.5084 -0.6981  0.0983
60243SOL    HW289508   4.107   9.820   8.896  0.2271  1.5726  1.1921
60244SOL     OW89509   8.953   7.445   7.034  0.2138 -0.2791 -1.1453
60244SOL    HW189510   9.014   7.506   6.995  1.3362 -0.8339 -0.3056
60244SOL    HW289511   9.004   7.397   7.099 -1.1344 -0.6782 -0.3267
60245SOL     OW89512   0.699  10.204   1.643 -0.1923 -0.1905 -0.3058
60245SOL    HW189513   0.678  10.269   1.710  1.0955 -2.0613  2.0421
60245SOL    HW289514   0.666  10.243   1.562 -2.1285  2.0461  1.3946
60246SOL     OW89515  11.487   6.160   4.302  0.8107 -0.5776  0.2171
60246SOL    HW189516  11.469   6.250   4.327 -0.7028 -1.0352  0.9060
60246SOL    HW289517  11.524   6.166   4.214  0.7098  0.7003  0.2469
60247SOL     OW89518   9.602  12.434   4.380  0.0095  0.0592 -0.4726
60247SOL    HW189519   9.616  12.366   4.314  1.7812  0.2641 -0.3786
60247SOL    HW289520   9.627  12.392   4.463 -1.4579  0.0338 -0.0279
60248SOL     OW89521   7.298   8.789   2.757  0.2766  0.3923  0.4164
60248SOL    HW189522   7.215   8.752   2.726  0.3477  0.8221 -0.3155
60248SOL    HW289523   7.304   8.760   2.848 -0.0720 -0.7028  0.1190
60249SOL     OW89524   5.828   2.999   9.813 -0.1186  0.5869  0.0268
60249SOL    HW189525   5.854   3.091   9.822 -4.1730  2.1231 -1.4269
60249SOL    HW289526   5.849   2.976   9.723 -0.3769  0.5766 -0.0322
60250SOL     OW89527   9.935   4.072   1.975 -0.3880  0.6253  0.0113
60250SOL    HW189528   9.889   4.023   2.044  1.0003  0.2464  0.7216
60250SOL    HW289529   9.975   4.146   2.022  0.7021  0.2757 -0.3354
60251SOL     OW89530   4.955   1.818   4.841 -0.2213 -0.1170  0.2242
60251SOL    HW189531   5.012   1.802   4.916  0.9163  2.0290 -0.1172
60251SOL    HW289532   5.015   1.837   4.769 -1.3170 -1.1314 -1.0171
60252SOL     OW89533   4.568   4.425   5.824  0.1358 -0.5841 -0.2990
60252SOL    HW189534   4.587   4.334   5.849 -1.5439 -1.2916 -1.3831
60252SOL    HW289535   4.580   4.427   5.729 -0.8383  0.0400 -0.4269
60253SOL     OW89536   9.204   1.785   2.275 -0.2657  0.0800  0.0014
60253SOL    HW189537   9.176   1.804   2.185  0.7580  0.1342 -0.3261
60253SOL    HW289538   9.134   1.820   2.330 -1.0062 -0.1318 -0.7754
60254SOL     OW89539   0.219   3.186   0.972 -0.0741  0.2003 -0.6800
60254SOL    HW189540   0.281   3.176   1.044 -1.4638  0.5126  0.6091
60254SOL    HW289541   0.209   3.281   0.962  0.7800  0.1803 -1.9087
60255SOL     OW89542  11.700  11.844   2.463  0.2930 -0.6043  0.1785
60255SOL    HW189543  11.639  11.807   2.527 -0.2616  0.8827  0.5423
60255SOL    HW289544  11.769  11.884   2.517 -0.8588  1.8449 -0.0249
60256SOL     OW89545  11.697   3.463  10.575 -0.1623  0.1501 -0.1071
60256SOL    HW189546  11.605   3.440  10.582 -0.2746  0.8745  1.2396
60256SOL    HW289547  11.744   3.385  10.607 -0.4487  0.7776  2.0120
60257SOL     OW89548   5.366   9.794   3.175 -0.7359 -0.1704 -0.1083
60257SOL    HW189549   5.352   9.823   3.265 -0.8257 -1.6405  0.3827
60257SOL    HW289550   5.442   9.844   3.145 -1.0920  0.7917  0.5646
60258SOL     OW89551   6.431   3.289   6.217 -0.4465  0.4136  0.2047
60258SOL    HW189552   6.515   3.335   6.220  0.0485 -0.4251 -0.5430
60258SOL    HW289553   6.426   3.242   6.300  0.0243  0.1116  0.0609
60259SOL     OW89554  11.237   2.549   7.700  0.4725  0.3924  0.3154
60259SOL    HW189555  11.220   2.512   7.787 -0.5701  0.2558  0.0614
60259SOL    HW289556  11.246   2.643   7.716 -0.0548  0.4101  0.5292
60260SOL     OW89557   1.430   0.240   9.140  0.1269 -0.3656 -0.0909
60260SOL    HW189558   1.471   0.175   9.197  1.4728  0.8765  0.4515
60260SOL    HW289559   1.464   0.220   9.053 -0.2312 -0.9640 -0.0980
60261SOL     OW89560   3.919   7.978   8.468  0.0392 -0.1915 -0.2060
60261SOL    HW189561   3.917   7.897   8.519  1.1524  0.6962  1.3164
60261SOL    HW289562   4.009   8.008   8.474 -0.5062  1.5065 -0.1820
60262SOL     OW89563   4.754   4.456   1.837  0.2751 -0.5778 -0.3901
60262SOL    HW189564   4.704   4.388   1.791 -0.8873  0.8870 -1.3848
60262SOL    HW289565   4.692   4.528   1.848  0.5042 -0.7724  3.4952
60263SOL     OW89566   9.997   1.746  10.305  0.3539 -0.0983  0.4182
60263SOL    HW189567   9.963   1.662  10.274  2.9559 -1.0660 -0.0714
60263SOL    HW289568   9.994   1.740  10.400  1.4202 -1.1657  0.3960
60264SOL     OW89569  11.843  11.918   4.216  0.6218 -0.2447 -0.5742
60264SOL    HW189570  11.863  11.849   4.154 -2.1628 -1.8606  0.1587
60264SOL    HW289571  11.750  11.937   4.202  0.6193  1.3624  1.1583
60265SOL     OW89572   2.981  12.171   0.257  0.6251  0.7172  0.0782
60265SOL    HW189573   2.938  12.255   0.240 -0.9007 -0.0028  0.1826
60265SOL    HW289574   3.042  12.160   0.184  1.1586  2.0956  0.2910
60266SOL     OW89575   2.428   1.061   8.512 -0.0415  0.4412  0.0362
60266SOL    HW189576   2.456   1.073   8.421 -2.0137  0.8365 -0.5666
60266SOL    HW289577   2.466   1.135   8.559 -1.7748  2.1917 -1.1781
60267SOL     OW89578  12.123   6.794  12.349  0.0152  0.2522  0.4945
60267SOL    HW189579  12.169   6.873  12.379  0.0249  0.7476 -0.7806
60267SOL    HW289580  12.080   6.821  12.269  1.0599 -1.3843 -0.6744
60268SOL     OW89581   4.434   1.784   8.241  0.2491  0.0850  0.4780
60268SOL    HW189582   4.486   1.711   8.274 -0.3971  0.1226  1.6243
60268SOL    HW289583   4.428   1.844   8.315 -0.1627  0.7782 -0.1121
60269SOL     OW89584  11.885   3.318   5.803  0.1092 -0.2067  0.4941
60269SOL    HW189585  11.856   3.343   5.890 -1.4801 -0.9778  0.2363
60269SOL    HW289586  11.851   3.229   5.791 -0.5699  0.2433 -1.2619
60270SOL     OW89587   7.510  12.291   7.263  0.1425  0.1596  0.5692
60270SOL    HW189588   7.594  12.309   7.303  0.1250  0.9753  0.2554
60270SOL    HW289589   7.526  12.216   7.205  1.2089  1.6749 -1.1919
60271SOL     OW89590   1.801   9.443  10.538 -0.2448  0.3864  0.3802
60271SOL    HW189591   1.832   9.353  10.545 -2.6382 -0.5919 -0.3227
60271SOL    HW289592   1.878   9.497  10.554  1.5837 -1.7779 -0.5458
60272SOL     OW89593   7.526   4.005   6.129  0.0402 -0.1527  0.1100
60272SOL    HW189594   7.595   3.970   6.186  0.8627  2.2200  0.6702
60272SOL    HW289595   7.565   4.004   6.041  0.5851  0.6203  0.3346
60273SOL     OW89596  12.027   1.636   6.450  0.4849  0.5132 -0.1860
60273SOL    HW189597  11.983   1.713   6.416  0.3175  1.1021  1.2933
60273SOL    HW289598  11.956   1.574   6.469  0.5586  0.2826 -0.6376
60274SOL     OW89599   7.568   7.257   2.180 -0.2056 -0.3805 -0.2004
60274SOL    HW189600   7.563   7.175   2.228 -2.4522  0.1784  0.6491
60274SOL    HW289601   7.595   7.322   2.245 -1.3586  0.0380 -0.1074
60275SOL     OW89602   6.822   5.924   2.311 -0.0689  0.1959  0.1340
60275SOL    HW189603   6.804   5.950   2.401 -1.7648  1.5211 -0.5195
60275SOL    HW289604   6.824   5.829   2.312  2.5027  0.1849  1.9855
60276SOL     OW89605   5.043   9.277   1.262  0.2699 -0.9293 -0.5231
60276SOL    HW189606   5.115   9.300   1.320 -0.6838 -1.3240  0.8834
60276SOL    HW289607   5.084   9.252   1.180  1.6013  1.0017 -0.5089
60277SOL     OW89608   4.137  12.030  12.075  0.5112 -0.1288 -0.5990
60277SOL    HW189609   4.141  11.981  11.993  0.5815  1.0098 -1.2881
60277SOL    HW289610   4.121  12.120  12.049 -3.0059 -0.1901  0.7362
60278SOL     OW89611   3.602   4.521   5.078  0.0593  0.1027  0.3719
60278SOL    HW189612   3.511   4.500   5.060  0.2117 -1.8420  1.6113
60278SOL    HW289613   3.651   4.444   5.051  0.9701 -0.1782  2.5805
60279SOL     OW89614   7.665  10.310   4.659  0.2287 -0.1830 -0.3696
60279SOL    HW189615   7.617  10.366   4.599  0.2165  1.1917  0.8615
60279SOL    HW289616   7.688  10.367   4.732  0.3738 -1.7400  0.8654
60280SOL     OW89617   7.257   5.247   5.979 -0.2923  0.7467 -0.1883
60280SOL    HW189618   7.245   5.179   5.913 -0.5642  0.7536 -0.1477
60280SOL    HW289619   7.352   5.256   5.987 -0.2585  1.3464 -1.1863
60281SOL     OW89620  12.480  10.309   4.931 -0.4455  0.2541  0.2895
60281SOL    HW189621  12.484  10.398   4.966 -0.6980  0.1047  0.7115
60281SOL    HW289622  12.401  10.308   4.877 -1.3049 -0.1290  1.5035
60282SOL     OW89623   2.714   3.779   3.690 -0.0089 -0.1526 -0.2321
60282SOL    HW189624   2.641   3.722   3.665 -0.0625  0.1308 -0.7344
60282SOL    HW289625   2.756   3.801   3.607  1.6194 -1.5924  0.1710
60283SOL     OW89626   3.462   7.277   3.408 -0.2692 -0.0461  0.0182
60283SOL    HW189627   3.454   7.372   3.416 -0.9406  0.0462 -1.4171
60283SOL    HW289628   3.422   7.242   3.488 -3.1228  0.8190 -0.9232
60284SOL     OW89629   1.852   7.895  12.546  0.2990 -0.0164 -0.0037
60284SOL    HW189630   1.872   7.851  12.629  0.3770 -0.3965 -0.2278
60284SOL    HW289631   1.824   7.983  12.573  0.3251 -0.1363  0.4276
60285SOL     OW89632   3.359   3.678   7.111  0.2777  0.6104 -0.0854
60285SOL    HW189633   3.311   3.689   7.193 -1.0182  2.0941 -0.9881
60285SOL    HW289634   3.306   3.617   7.060  0.9453 -0.0962  0.0286
60286SOL     OW89635   6.825  12.194  10.911  0.3614  0.1388  0.3003
60286SOL    HW189636   6.795  12.274  10.867  0.0386 -0.0761  0.1243
60286SOL    HW289637   6.881  12.225  10.982  1.3733  0.4854 -0.6196
60287SOL     OW89638  11.780   9.219   8.945 -0.0055 -0.3065 -0.7899
60287SOL    HW189639  11.859   9.208   8.998 -0.7355  0.2593  0.4469
60287SOL    HW289640  11.716   9.260   9.004 -1.4835 -1.4520 -1.5269
60288SOL     OW89641  12.366   2.252   2.238 -0.2768 -0.4107  0.1850
60288SOL    HW189642  12.396   2.316   2.301 -0.0978  0.2474 -0.5479
60288SOL    HW289643  12.271   2.265   2.233 -0.0645  0.8157 -1.0338
60289SOL     OW89644   8.007   3.226   0.764 -0.3037 -0.6870  0.0771
60289SOL    HW189645   8.035   3.244   0.854  1.3764 -0.2873 -0.4909
60289SOL    HW289646   7.962   3.142   0.770  1.5859 -1.7037  1.0087
60290SOL     OW89647   6.152  11.615  11.020  0.1887 -0.1707 -0.0123
60290SOL    HW189648   6.112  11.675  10.958  1.0804 -1.6813 -2.1530
60290SOL    HW289649   6.092  11.540  11.022  0.1715 -0.1437  0.9837
60291SOL     OW89650  11.340   4.694   2.245  1.0578  0.2465  0.6850
60291SOL    HW189651  11.276   4.634   2.206 -0.2936  1.8733  0.3023
60291SOL    HW289652  11.342   4.769   2.186  0.9730  1.6023  2.3296
60292SOL     OW89653   2.036   3.762   8.231 -0.1734  0.2231 -0.2543
60292SOL    HW189654   2.002   3.694   8.173  0.1749  0.4130 -0.6908
60292SOL    HW289655   1.996   3.744   8.316 -1.6936  0.6608 -0.8296
60293SOL     OW89656   1.250   1.236  10.382 -0.2516  0.3764  0.1142
60293SOL    HW189657   1.212   1.306  10.436  1.1901  1.0219  0.3383
60293SOL    HW289658   1.267   1.165  10.444  0.9430  0.9311  0.4499
60294SOL     OW89659   5.821   8.781  11.537 -0.1178 -0.3479 -0.5948
60294SOL    HW189660   5.861   8.695  11.522  1.6249 -0.2398  2.5422
60294SOL    HW289661   5.876   8.821  11.604 -2.3736  2.2009 -0.0995
60295SOL     OW89662   0.921   0.407   8.346 -0.1879 -0.2924 -0.2584
60295SOL    HW189663   0.842   0.415   8.400  0.7434  1.1410  0.9853
60295SOL    HW289664   0.963   0.326   8.375 -0.1746 -0.0105  0.5302
60296SOL     OW89665   0.100  11.053   0.576  0.4282 -0.2308  0.0268
60296SOL    HW189666   0.170  11.114   0.602  0.0089  0.0194  0.5873
60296SOL    HW289667   0.036  11.108   0.531 -0.7567  0.0960  1.9821
60297SOL     OW89668   0.545   6.079   8.898  0.4037 -0.1846 -0.4322
60297SOL    HW189669   0.540   6.105   8.990  0.0856 -2.2334  0.1665
60297SOL    HW289670   0.639   6.068   8.881  0.5149  0.8828 -0.5864
60298SOL     OW89671   1.448   8.547   7.022  0.2613 -0.1359 -0.0640
60298SOL    HW189672   1.472   8.639   7.031 -0.9806  0.2071  0.0251
60298SOL    HW289673   1.530   8.499   7.029  0.8973  0.9549  0.1138
60299SOL     OW89674   4.197   0.544   9.637  0.1540 -0.2403  0.3128
60299SOL    HW189675   4.287   0.520   9.613 -0.1083 -0.2436 -0.6831
60299SOL    HW289676   4.180   0.494   9.717  0.2396 -2.0611 -0.7360
60300SOL     OW89677   6.488   0.828  11.270  0.5822  0.0648 -0.1052
60300SOL    HW189678   6.532   0.812  11.353 -0.2919 -0.6441  0.2320
60300SOL    HW289679   6.513   0.917  11.246 -0.5196  0.9199  1.7672
60301SOL     OW89680   9.871   2.556   8.923 -0.1413 -0.2497  0.0536
60301SOL    HW189681   9.791   2.505   8.937 -0.8790  0.7664 -0.3271
60301SOL    HW289682   9.842   2.634   8.876  1.0208  0.3183  0.2327
60302SOL     OW89683   9.099   3.408   6.349  0.0188 -0.7601 -0.4013
60302SOL    HW189684   9.089   3.421   6.444 -0.8072 -1.8673 -0.3175
60302SOL    HW289685   9.015   3.437   6.312 -0.0409 -1.2980 -0.6882
60303SOL     OW89686   7.322   4.243   5.539 -0.7712 -0.3817 -0.3554
60303SOL    HW189687   7.296   4.276   5.625  4.1059  1.4772  0.7205
60303SOL    HW289688   7.272   4.297   5.477 -0.3822  2.1556  1.3803
60304SOL     OW89689   0.046   6.813   2.515  0.0474  0.1192  0.7936
60304SOL    HW189690   0.057   6.722   2.489 -3.2954  0.3160 -1.9030
60304SOL    HW289691   0.116   6.860   2.468  0.8246 -0.8251  0.9731
60305SOL     OW89692   6.058   1.117   1.332 -0.4030  0.0137  0.4349
60305SOL    HW189693   6.018   1.035   1.362 -1.8927 -0.1515 -1.7899
60305SOL    HW289694   6.021   1.184   1.389 -0.9303 -0.5898  0.8152
60306SOL     OW89695   0.158   9.799   1.867  0.2387 -0.0423 -0.4748
60306SOL    HW189696   0.236   9.850   1.891  0.8212 -0.3637 -1.5955
60306SOL    HW289697   0.141   9.823   1.776  1.4683 -2.8997 -1.6044
60307SOL     OW89698   8.874   0.267   5.420  0.1744  0.0892  0.8052
60307SOL    HW189699   8.942   0.259   5.353  1.6824  1.9898  1.9766
60307SOL    HW289700   8.895   0.198   5.483  1.0940  0.6991  1.1890
60308SOL     OW89701   5.780   8.418   8.546  0.1284 -0.2952  0.3242
60308SOL    HW189702   5.755   8.353   8.611 -0.8996  0.7824  1.0500
60308SOL    HW289703   5.863   8.386   8.510  0.4671 -1.1696  1.8074
60309SOL     OW89704  11.248   9.305  11.923 -0.1282  1.1295  0.2380
60309SOL    HW189705  11.177   9.329  11.863 -0.9457  0.7437  1.0266
60309SOL    HW289706  11.207   9.246  11.986  0.5305  2.0559  1.5882
60310SOL     OW89707   3.739   9.278   1.876 -0.2914  0.0485  0.1808
60310SOL    HW189708   3.668   9.274   1.940 -0.6607  0.9166 -0.1513
60310SOL    HW289709   3.752   9.188   1.848 -0.3441 -0.2992  1.2345
60311SOL     OW89710   0.974   6.716   1.621  0.1179  0.0711 -0.4044
60311SOL    HW189711   0.904   6.654   1.642  0.3283 -0.4118 -1.1003
60311SOL    HW289712   0.973   6.778   1.694  0.0754 -0.8958  0.4471
60312SOL     OW89713   4.352   6.304  10.357  0.0951 -0.1212 -0.3277
60312SOL    HW189714   4.391   6.331  10.273 -1.7907  1.1010 -0.8708
60312SOL    HW289715   4.361   6.382  10.412 -0.1254 -0.3800  0.0700
60313SOL     OW89716   6.098   4.662   0.900  0.5352 -0.1471 -0.4339
60313SOL    HW189717   6.169   4.722   0.876 -1.1457  1.8671 -0.5824
60313SOL    HW289718   6.036   4.716   0.948 -0.6118 -2.0127  0.2687
60314SOL     OW89719   3.729  10.877   2.762 -0.4447 -0.5146  0.3794
60314SOL    HW189720   3.689  10.860   2.847 -1.2505  0.2204  0.1515
60314SOL    HW289721   3.672  10.832   2.699 -1.6210  1.4831 -0.0586
60315SOL     OW89722  11.472   0.155   8.961 -0.0361  0.3433  0.2036
60315SOL    HW189723  11.545   0.172   9.021  1.4724  0.3557 -1.5424
60315SOL    HW289724  11.449   0.242   8.927  1.1419  0.0620 -1.4247
60316SOL     OW89725   2.660   9.408   5.383  0.3494 -0.2575  0.2224
60316SOL    HW189726   2.717   9.467   5.434  0.2077 -1.3122  1.6851
60316SOL    HW289727   2.619   9.352   5.449 -1.0441 -0.6877 -0.9633
60317SOL     OW89728   7.489   7.127   8.641  0.3612 -0.2914  0.1365
60317SOL    HW189729   7.433   7.189   8.686 -0.1609 -0.3504 -0.4151
60317SOL    HW289730   7.470   7.141   8.548  2.0508  0.4455 -0.1309
60318SOL     OW89731   6.331   6.273   4.621  0.1003 -0.4280 -0.1406
60318SOL    HW189732   6.316   6.349   4.677 -0.6793 -0.2692 -0.5556
60318SOL    HW289733   6.277   6.204   4.659 -0.3234 -0.3593 -0.6148
60319SOL     OW89734   7.442   0.075   8.233  0.2240  0.1619 -0.4432
60319SOL    HW189735   7.422   0.026   8.313 -2.6765  0.8644 -0.6115
60319SOL    HW289736   7.402   0.025   8.163  1.3234  0.3975 -1.2700
60320SOL     OW89737   5.369   1.908   0.997  0.1370 -0.0458 -0.5704
60320SOL    HW189738   5.384   1.837   0.934  0.1020 -0.9527  0.4078
60320SOL    HW289739   5.453   1.920   1.041 -0.0548  0.0020 -0.2128
60321SOL     OW89740   6.446  10.873   6.429  0.2914  0.4686  0.4653
60321SOL    HW189741   6.535  10.891   6.398  0.2755 -0.7814 -0.3640
60321SOL    HW289742   6.459  10.833   6.515  0.4919  0.7611  0.5757
60322SOL     OW89743   1.409   5.009  10.495  0.1535 -0.1390 -0.7950
60322SOL    HW189744   1.483   5.064  10.523 -1.5361  1.3537  0.9963
60322SOL    HW289745   1.391   4.952  10.569 -1.3565  0.5139 -0.6189
60323SOL     OW89746   3.066   3.050   8.144 -0.0780 -0.3125 -0.0319
60323SOL    HW189747   2.978   3.033   8.178 -0.0612 -0.4056 -0.0346
60323SOL    HW289748   3.054   3.052   8.049 -0.2050  0.3989 -0.0079
60324SOL     OW89749  12.327   5.907   1.577 -0.9144  0.3196  0.4429
60324SOL    HW189750  12.268   5.972   1.615 -0.7251  1.0390 -0.4490
60324SOL    HW289751  12.319   5.920   1.482 -0.6408 -0.7573  0.2565
60325SOL     OW89752   5.688   9.221   6.084 -0.3567  0.5904  0.2786
60325SOL    HW189753   5.597   9.192   6.083 -0.9736  1.8450  4.2564
60325SOL    HW289754   5.684   9.311   6.050 -0.4746  0.4539 -0.0809
60326SOL     OW89755   7.056  10.084   5.565  0.1827  0.1612  0.3264
60326SOL    HW189756   7.081  10.122   5.649  0.9815  1.5231 -0.4932
60326SOL    HW289757   6.960  10.084   5.567  0.1776 -1.0206  1.7258
60327SOL     OW89758   6.890   7.476  12.366 -0.3617  0.6059  0.4454
60327SOL    HW189759   6.834   7.464  12.442  1.1571  0.8123  1.6389
60327SOL    HW289760   6.897   7.571  12.357 -1.0992  0.5978 -0.4201
60328SOL     OW89761  11.226   1.502   6.923 -0.4585 -0.4743  0.1690
60328SOL    HW189762  11.257   1.559   6.853 -0.1777 -0.8615 -0.0279
60328SOL    HW289763  11.134   1.487   6.904 -0.6861  0.3981  0.5578
60329SOL     OW89764  10.426   0.259   8.534 -0.7283  0.3084  0.6679
60329SOL    HW189765  10.432   0.354   8.535 -1.3972  0.3652 -0.1837
60329SOL    HW289766  10.336   0.240   8.561 -1.5108  0.0400 -1.9044
60330SOL     OW89767   9.218   5.143  11.428 -0.1648 -0.6508 -0.4330
60330SOL    HW189768   9.300   5.129  11.379  0.5242 -2.7743  1.1666
60330SOL    HW289769   9.247   5.177  11.513 -1.2437  1.7623 -0.9631
60331SOL     OW89770   3.201  12.220   1.436 -0.3801  0.0680  0.0402
60331SOL    HW189771   3.274  12.221   1.499 -0.2550  0.3859 -0.1056
60331SOL    HW289772   3.135  12.163   1.476  0.7663 -1.9158 -0.7621
60332SOL     OW89773   4.538   0.412   5.603 -0.5357  0.2487  0.1812
60332SOL    HW189774   4.617   0.451   5.566  0.1577 -0.9070  0.3865
60332SOL    HW289775   4.478   0.404   5.529 -0.9105  2.1470  0.2339
60333SOL     OW89776   3.116   9.063   4.056  0.2220  0.1285  0.1240
60333SOL    HW189777   3.045   9.093   4.112  0.7944  2.1221 -0.1454
60333SOL    HW289778   3.143   9.140   4.007  0.7947 -1.1854 -1.7690
60334SOL     OW89779   3.348   6.040   0.017 -0.2576 -0.3377 -0.2060
60334SOL    HW189780   3.367   6.118   0.070 -2.5532  0.0080  0.1881
60334SOL    HW289781   3.411   6.045  -0.055  0.1200  1.4875  0.1827
60335SOL     OW89782   4.588  12.474  12.379 -0.1871 -0.0043 -0.2086
60335SOL    HW189783   4.585  12.535  12.305  0.8527  2.1940  1.4363
60335SOL    HW289784   4.496  12.448  12.392 -0.6019  0.8398 -1.2705
60336SOL     OW89785   6.939   9.681   7.266  0.0956 -0.1686  0.4062
60336SOL    HW189786   6.881   9.689   7.190  1.2635 -1.3642 -0.6490
60336SOL    HW289787   7.026   9.700   7.232  0.3664  1.6665  1.9855
60337SOL     OW89788  12.322   8.129   3.938  0.0530  0.1956  0.3427
60337SOL    HW189789  12.393   8.155   3.879  0.5035  2.3167  1.7215
60337SOL    HW289790  12.242   8.160   3.895 -0.0539 -1.5715 -0.8681
60338SOL     OW89791   7.545   4.801   4.175  0.2798  0.0170  0.9273
60338SOL    HW189792   7.546   4.738   4.103 -2.0720 -1.3534  1.9677
60338SOL    HW289793   7.631   4.792   4.216  1.1384 -0.1900 -0.7959
60339SOL     OW89794   3.380   4.488   5.378 -0.3447 -0.0876  0.3628
60339SOL    HW189795   3.318   4.432   5.332 -0.4408 -1.0444  1.5922
60339SOL    HW289796   3.360   4.577   5.348 -0.7430 -0.6158 -1.0060
60340SOL     OW89797   5.158  12.518  11.460  0.8239 -0.4284 -0.0466
60340SOL    HW189798   5.149  12.435  11.506 -1.2731 -0.3454 -0.2199
60340SOL    HW289799   5.107  12.507  11.380 -0.6710  1.4753  0.5705
60341SOL     OW89800   1.568   3.895   7.936 -0.2420  0.0728 -0.3541
60341SOL    HW189801   1.557   3.821   7.995  2.9971  1.5554  2.4881
60341SOL    HW289802   1.549   3.972   7.990  0.4921  1.4389 -1.9305
60342SOL     OW89803   2.162   7.731   2.324  0.1136  0.4044  0.0370
60342SOL    HW189804   2.091   7.706   2.383  0.2214  0.0075  0.0029
60342SOL    HW289805   2.118   7.774   2.250 -0.1146 -0.0825 -0.1117
60343SOL     OW89806   2.964   3.553   3.909  0.4670  0.3160  0.3525
60343SOL    HW189807   2.982   3.465   3.942  0.6668  0.5159  0.7842
60343SOL    HW289808   2.874   3.570   3.936 -0.5246 -0.7611 -1.9794
60344SOL     OW89809   4.803   8.568  10.895 -0.0655  0.7477 -0.6820
60344SOL    HW189810   4.708   8.576  10.889 -0.2474 -1.1126 -0.6243
60344SOL    HW289811   4.825   8.493  10.840  1.1751  0.0945  0.6506
60345SOL     OW89812   7.576  11.389  10.335  0.0598  0.5178  0.4629
60345SOL    HW189813   7.481  11.393  10.320  0.4092 -1.3628 -3.3468
60345SOL    HW289814   7.614  11.428  10.256  2.3809 -2.3722 -0.0185
60346SOL     OW89815   4.838  11.128   7.547 -0.9309 -0.2614 -0.1519
60346SOL    HW189816   4.768  11.077   7.505 -1.6360  0.3102  0.3198
60346SOL    HW289817   4.911  11.122   7.485 -1.6057 -0.3246 -0.9695
60347SOL     OW89818   1.148   1.407   7.213 -0.0047 -0.1570  0.0523
60347SOL    HW189819   1.103   1.322   7.207  0.0339 -0.1585 -0.1937
60347SOL    HW289820   1.241   1.384   7.217 -0.0148 -0.1470  0.4297
60348SOL     OW89821   2.085   6.536   0.101 -0.0620 -0.4933 -0.1295
60348SOL    HW189822   2.028   6.598   0.145 -0.1485 -0.5452 -0.1689
60348SOL    HW289823   2.166   6.537   0.152 -0.0527 -0.3262 -0.1473
60349SOL     OW89824  11.430   9.537   2.235 -0.7867  0.4733  0.2985
60349SOL    HW189825  11.381   9.491   2.166 -0.5446  0.7395 -0.0562
60349SOL    HW289826  11.510   9.485   2.246  0.2308  1.6151 -1.2033
60350SOL     OW89827   0.461   8.606   1.415 -0.2118 -0.6981 -0.2003
60350SOL    HW189828   0.533   8.664   1.441 -0.5356 -1.0600  1.6046
60350SOL    HW289829   0.382   8.656   1.434 -0.4802 -0.4335 -1.8676
60351SOL     OW89830   6.697   5.010   5.876 -0.3532  0.0609 -0.2270
60351SOL    HW189831   6.774   4.964   5.909 -1.1575  0.4484  2.4179
60351SOL    HW289832   6.624   4.969   5.921 -1.5494  0.8118 -1.4262
60352SOL     OW89833  10.523  10.797   0.556 -0.2161 -0.5179  1.0111
60352SOL    HW189834  10.493  10.748   0.479  2.5143 -1.3798  0.3625
60352SOL    HW289835  10.596  10.849   0.523  0.2039  0.0757  2.7888
60353SOL     OW89836   0.047  10.316   9.226  0.1100 -0.0865 -0.4463
60353SOL    HW189837   0.122  10.279   9.273  0.3628  1.0810  0.1096
60353SOL    HW289838   0.044  10.268   9.144 -0.0812 -1.9007  0.5634
60354SOL     OW89839   3.643  11.984   3.707 -0.6469 -0.3847  0.1748
60354SOL    HW189840   3.576  12.010   3.770  0.3248  0.9204  0.7338
60354SOL    HW289841   3.697  11.920   3.754  0.5096  1.1201  1.0037
60355SOL     OW89842   9.686   9.272  10.962  0.2060  0.4896  0.3848
60355SOL    HW189843   9.713   9.189  11.002  0.6470  0.1961 -0.4949
60355SOL    HW289844   9.615   9.304  11.018 -2.2344 -2.0859 -1.0082
60356SOL     OW89845   6.440   9.191   6.505 -0.6739 -0.1512  0.4117
60356SOL    HW189846   6.389   9.114   6.481  0.5180 -0.3068 -1.8861
60356SOL    HW289847   6.519   9.156   6.547 -0.5117 -0.1424  0.1156
60357SOL     OW89848   2.920   1.270   7.423  0.6287 -0.1063  0.2636
60357SOL    HW189849   2.968   1.353   7.417  0.5673  0.3159  3.9333
60357SOL    HW289850   2.987   1.205   7.444  0.4296 -0.7800 -1.0165
60358SOL     OW89851   6.252   9.252  11.220 -0.0689 -0.2078 -0.1798
60358SOL    HW189852   6.235   9.346  11.214  1.3779  0.0004 -1.9306
60358SOL    HW289853   6.165   9.211  11.216 -0.6772  1.0288 -0.0317
60359SOL     OW89854  12.326   3.404   2.205  0.1135  0.2040 -0.3746
60359SOL    HW189855  12.367   3.464   2.142  2.6924 -1.8233 -0.8053
60359SOL    HW289856  12.399   3.371   2.258 -1.3400 -1.6713  0.5822
60360SOL     OW89857   1.784  11.001   2.686 -0.0976 -0.3017 -0.2089
60360SOL    HW189858   1.696  10.979   2.654 -1.2471  0.5496  2.1145
60360SOL    HW289859   1.820  10.918   2.715 -0.6116 -0.4857 -0.0803
60361SOL     OW89860  11.914   8.664   1.474 -0.1598  0.0613  1.1606
60361SOL    HW189861  11.849   8.594   1.461  0.3475 -0.4080  1.0892
60361SOL    HW289862  11.864   8.745   1.462 -1.1200 -0.2341  2.8075
60362SOL     OW89863   6.485   0.180   3.387  0.1678 -0.3003  0.2373
60362SOL    HW189864   6.423   0.209   3.454 -0.7190 -0.3275 -0.5527
60362SOL    HW289865   6.509   0.091   3.414  1.2236  0.3406  1.4849
60363SOL     OW89866   6.873   3.156   2.836 -0.1581  0.0325  0.6044
60363SOL    HW189867   6.786   3.130   2.806 -0.6917  0.5682  1.6235
60363SOL    HW289868   6.913   3.199   2.760 -0.1946 -1.5368 -0.3350
60364SOL     OW89869   7.472   4.479   6.061 -0.2275 -0.1946 -0.2753
60364SOL    HW189870   7.408   4.416   6.027  1.4793 -0.7042 -2.7488
60364SOL    HW289871   7.433   4.565   6.043 -0.8144 -0.4984 -0.4877
60365SOL     OW89872  11.138   8.749   4.130  0.0381 -0.1914  0.0529
60365SOL    HW189873  11.196   8.734   4.056 -0.1711 -1.7098  0.1710
60365SOL    HW289874  11.099   8.664   4.148 -1.2776  0.5241  0.7772
60366SOL     OW89875   2.858   2.447   7.540  0.1290  0.1411  0.3121
60366SOL    HW189876   2.773   2.446   7.497  0.0960 -1.6866  0.3737
60366SOL    HW289877   2.919   2.479   7.473 -0.1894 -1.1218 -0.6145
60367SOL     OW89878  11.997   8.880   3.442 -0.0106 -0.0875 -0.3479
60367SOL    HW189879  12.067   8.925   3.396  1.4535 -3.5956 -1.9490
60367SOL    HW289880  11.917   8.912   3.400  0.9182  0.9381 -1.4303
60368SOL     OW89881   7.202  11.122  11.399 -0.0198 -0.2463  0.2749
60368SOL    HW189882   7.254  11.151  11.324 -0.0753  0.0980  0.3679
60368SOL    HW289883   7.259  11.135  11.475 -0.0012 -0.4945  0.3010
60369SOL     OW89884  12.406   2.096   8.640  1.0081 -0.4726  0.2466
60369SOL    HW189885  12.329   2.066   8.592  1.6716  0.8200 -1.7715
60369SOL    HW289886  12.375   2.115   8.728 -0.4386 -2.2473  0.1652
60370SOL     OW89887   7.071   2.319   5.195 -0.4836  0.1443 -0.1650
60370SOL    HW189888   7.152   2.298   5.241 -0.5560  2.0428  0.9496
60370SOL    HW289889   7.063   2.252   5.128  1.4191 -0.7392  0.4262
60371SOL     OW89890   7.154   1.216  10.779 -0.0107  0.0165  0.0530
60371SOL    HW189891   7.244   1.184  10.779 -0.2281 -0.8445  2.4463
60371SOL    HW289892   7.124   1.202  10.690  2.0602 -0.1276 -0.6797
60372SOL     OW89893   1.639   4.953   6.487  0.0579 -0.3929 -0.0103
60372SOL    HW189894   1.620   4.912   6.571  0.2702  0.8872  0.6731
60372SOL    HW289895   1.556   4.991   6.459 -0.2768 -1.7131 -0.9140
60373SOL     OW89896   4.314   0.350   0.617  0.2582  0.3773  0.6656
60373SOL    HW189897   4.339   0.323   0.529 -0.1622  0.5710  0.4835
60373SOL    HW289898   4.225   0.382   0.608 -0.1229 -0.4528  1.3341
60374SOL     OW89899   6.773  11.055   5.955 -0.0996 -0.4438 -0.1124
60374SOL    HW189900   6.835  11.010   5.898  0.6868  0.2280  0.1788
60374SOL    HW289901   6.751  10.991   6.022  1.2185 -0.3300  0.4588
60375SOL     OW89902   5.831   9.770  12.192 -0.2106 -0.6774 -0.1542
60375SOL    HW189903   5.814   9.704  12.125  2.7714 -1.1993 -0.5156
60375SOL    HW289904   5.850   9.849  12.143  0.7114 -0.7312  0.1099
60376SOL     OW89905   9.125  11.746   3.130  0.7956  0.6165 -0.3913
60376SOL    HW189906   9.136  11.729   3.036 -0.4977  0.5367 -0.5556
60376SOL    HW289907   9.066  11.821   3.133  0.0816  0.0464  0.3473
60377SOL     OW89908   7.308   6.578   1.729 -0.8822  0.4442 -0.1637
60377SOL    HW189909   7.358   6.545   1.804 -1.6391 -1.0908 -0.3040
60377SOL    HW289910   7.265   6.657   1.761 -0.7696  0.1005  0.8630
60378SOL     OW89911  10.391   0.670   3.287 -0.4141  0.0684 -0.0610
60378SOL    HW189912  10.445   0.591   3.279  1.1528  1.0697  0.2033
60378SOL    HW289913  10.330   0.651   3.358 -1.0933 -1.4485 -1.0023
60379SOL     OW89914  11.699   9.107  11.003 -0.3676 -0.1609 -0.5371
60379SOL    HW189915  11.769   9.169  10.983  0.1548 -1.2444 -2.3010
60379SOL    HW289916  11.743   9.033  11.045 -0.8097  0.0967  0.4112
60380SOL     OW89917  10.231   6.846  12.158 -0.5233  0.1542 -0.0719
60380SOL    HW189918  10.279   6.867  12.078  0.8969  0.9030  0.9214
60380SOL    HW289919  10.152   6.899  12.154  0.5553  1.8405 -0.0157
60381SOL     OW89920   8.022   3.179   2.321 -0.0207  0.8151  0.2372
60381SOL    HW189921   8.019   3.214   2.232 -0.2708  0.0672 -0.0529
60381SOL    HW289922   7.937   3.202   2.359 -0.0998  0.7158  0.1215
60382SOL     OW89923   2.247   2.749   0.084  0.4327 -0.2174  0.5029
60382SOL    HW189924   2.315   2.689   0.051  0.9646  0.5183  0.2372
60382SOL    HW289925   2.247   2.821   0.021  1.5396  1.2858  2.1361
60383SOL     OW89926   7.989   0.060   5.120  0.1956  0.0974  0.2984
60383SOL    HW189927   7.902   0.025   5.100  0.6554 -0.9636  0.0964
60383SOL    HW289928   7.974   0.124   5.189 -0.6538 -0.6296  0.8081
60384SOL     OW89929  11.849   6.756   8.775 -0.2278 -0.0030 -0.0012
60384SOL    HW189930  11.821   6.737   8.864 -2.7760 -1.3700 -0.9810
60384SOL    HW289931  11.808   6.687   8.722  0.0210  1.5628 -2.3799
60385SOL     OW89932   6.880   9.494   6.949  0.5694  0.1325  0.3746
60385SOL    HW189933   6.827   9.562   6.989 -0.3562  0.2082 -0.9290
60385SOL    HW289934   6.828   9.462   6.875  1.2579 -1.5444  0.5557
60386SOL     OW89935   7.766   3.040   0.464 -0.3188 -0.5228  0.0399
60386SOL    HW189936   7.786   3.005   0.550 -2.4917 -0.1589  0.7591
60386SOL    HW289937   7.750   2.963   0.410  0.6171 -0.7403  0.0575
60387SOL     OW89938   8.486   4.749  11.962  0.0624 -0.1725 -0.2726
60387SOL    HW189939   8.545   4.676  11.981  0.6058  0.4549  0.5165
60387SOL    HW289940   8.428   4.753  12.037 -2.0912 -1.8036 -1.7560
60388SOL     OW89941   3.056   5.935  12.290 -1.0849  0.0878  0.0022
60388SOL    HW189942   3.050   5.965  12.380  2.7786 -0.5842  0.6282
60388SOL    HW289943   3.068   5.840  12.296  1.1644  0.2331 -0.9799
60389SOL     OW89944   1.372   0.220  10.089 -0.1583 -0.2187 -0.0259
60389SOL    HW189945   1.291   0.174  10.113  1.6713 -2.6104  2.1352
60389SOL    HW289946   1.382   0.205   9.995 -2.9848  1.5931 -0.7283
60390SOL     OW89947   8.661   6.460   0.240 -0.0960  0.6595  0.2808
60390SOL    HW189948   8.649   6.547   0.201 -0.7510 -0.2139 -1.5526
60390SOL    HW289949   8.698   6.407   0.170  1.0529 -0.3906  1.6029
60391SOL     OW89950   0.833   9.169   3.006  0.3594 -0.2377  0.0428
60391SOL    HW189951   0.846   9.104   2.937 -1.4066  0.3411 -0.8895
60391SOL    HW289952   0.767   9.130   3.063  1.5632 -0.5652  1.2810
60392SOL     OW89953   1.122   2.632   4.165  0.4363  0.2855 -0.0947
60392SOL    HW189954   1.115   2.660   4.073 -2.3207 -0.8588 -0.3450
60392SOL    HW289955   1.035   2.599   4.186  1.4590 -1.0764  2.4335
60393SOL     OW89956   1.179   5.051  10.373  0.4211 -0.0955 -0.1405
60393SOL    HW189957   1.273   5.032  10.385  0.5383 -0.1970 -1.0928
60393SOL    HW289958   1.155   5.104  10.449  1.0804 -0.6671  0.4803
60394SOL     OW89959   0.143  10.175   8.068 -0.0328  0.1002 -0.0121
60394SOL    HW189960   0.184  10.089   8.065 -0.7346 -0.2635 -4.1469
60394SOL    HW289961   0.061  10.160   8.115  0.2963 -1.2606  0.1876
60395SOL     OW89962   1.184   1.366  10.624  0.2839 -0.0655  0.4428
60395SOL    HW189963   1.095   1.355  10.657 -0.9004  3.1125 -1.2660
60395SOL    HW289964   1.225   1.426  10.686 -0.6837  2.7930 -1.4514
60396SOL     OW89965  11.540  11.847   9.593 -0.1944  0.4302  0.7770
60396SOL    HW189966  11.507  11.821   9.508 -1.4074  0.6334  1.1649
60396SOL    HW289967  11.463  11.880   9.640  0.2962 -0.3192  2.1915
60397SOL     OW89968  11.415   8.473   7.170 -0.0129 -0.0874  0.0412
60397SOL    HW189969  11.416   8.377   7.164 -0.6714 -0.0155 -1.8653
60397SOL    HW289970  11.504   8.499   7.149  0.2617 -0.2703  0.9229
60398SOL     OW89971   9.112   1.637   0.892 -0.1684 -0.0261 -0.2944
60398SOL    HW189972   9.025   1.596   0.892  0.1118 -0.7834  1.9061
60398SOL    HW289973   9.173   1.563   0.903  0.7366  0.5392 -1.3373
60399SOL     OW89974   1.992   9.109   2.565  0.4630 -0.3128  0.6305
60399SOL    HW189975   2.080   9.147   2.559  0.7138 -1.0930 -1.9410
60399SOL    HW289976   2.002   9.022   2.525 -1.3014 -0.7988  1.1756
60400SOL     OW89977   0.088  11.555   9.712  0.4798  0.2359  0.3833
60400SOL    HW189978   0.012  11.498   9.723  0.5791 -0.8009 -3.1872
60400SOL    HW289979   0.156  11.499   9.675  1.2793  2.1658 -1.3225
60401SOL     OW89980   4.556   8.518   7.846 -0.7106  0.1563 -0.2201
60401SOL    HW189981   4.638   8.565   7.828 -0.3262 -0.4135  0.0195
60401SOL    HW289982   4.500   8.537   7.771  0.5830 -1.6036 -1.7009
60402SOL     OW89983   4.632   0.396   3.376 -0.0338  0.2155  0.0264
60402SOL    HW189984   4.689   0.320   3.390 -0.8050 -0.3041  0.4288
60402SOL    HW289985   4.653   0.426   3.288  0.7025 -0.1034  0.0853
60403SOL     OW89986   0.380   6.403   2.606  0.0634 -0.2832  0.1538
60403SOL    HW189987   0.470   6.371   2.605 -0.5821 -2.1831 -1.0406
60403SOL    HW289988   0.351   6.391   2.696  1.1242  0.7981  0.6672
60404SOL     OW89989   3.978   1.108   2.891 -0.1779 -0.1648  0.2110
60404SOL    HW189990   3.991   1.203   2.893  0.7002 -0.2919  1.1272
60404SOL    HW289991   3.958   1.089   2.799  2.7239  0.5261 -0.6752
60405SOL     OW89992   8.860   6.156   9.759 -0.2388  0.1455 -0.1715
60405SOL    HW189993   8.795   6.110   9.812  1.6796 -0.1360  2.0506
60405SOL    HW289994   8.870   6.241   9.802  1.0798  0.0671 -0.2806
60406SOL     OW89995   1.485   8.395   7.812 -0.3531  0.1674 -0.5684
60406SOL    HW189996   1.408   8.396   7.870  1.4022 -0.4722  1.9163
60406SOL    HW289997   1.481   8.479   7.766 -1.7930  0.7587  0.5519
60407SOL     OW89998  10.240   6.168   4.391  0.3014 -0.1791 -0.1530
60407SOL    HW189999  10.202   6.093   4.437  1.0681  0.6854  2.0169
60407SOL    HW290000  10.166   6.207   4.344 -0.7093 -0.6952  0.9551
60408SOL     OW90001   9.664   3.805   4.696  0.0240 -0.4331  0.1793
60408SOL    HW190002   9.590   3.766   4.650  0.9465 -0.5733 -1.2281
60408SOL    HW290003   9.632   3.890   4.725 -0.3161  0.0311 -1.4976
60409SOL     OW90004   3.367   8.581   4.329  0.1644 -0.0751 -0.3576
60409SOL    HW190005   3.285   8.535   4.309  1.4166 -2.5801 -0.1524
60409SOL    HW290006   3.343   8.674   4.329 -2.4279 -0.6499 -1.3509
60410SOL     OW90007   1.762   1.977   1.080  0.1637  0.4253 -0.1230
60410SOL    HW190008   1.689   1.915   1.083 -0.1197  0.8027  2.2321
60410SOL    HW290009   1.782   1.985   0.986 -3.1323  0.7211 -0.9256
60411SOL     OW90010   7.348   8.672   4.089  0.3022 -0.1222 -0.1501
60411SOL    HW190011   7.424   8.626   4.125  0.1258 -1.2441 -1.1588
60411SOL    HW290012   7.352   8.655   3.995 -0.7027  0.5517 -0.3267
60412SOL     OW90013   7.759   4.827   1.945 -0.1229 -0.4376  0.2761
60412SOL    HW190014   7.803   4.750   1.908  0.7677 -0.9848  2.3254
60412SOL    HW290015   7.821   4.861   2.010 -1.4366  0.6591  1.0088
60413SOL     OW90016  11.231   3.749   9.309  0.0352  0.2637 -0.2510
60413SOL    HW190017  11.190   3.713   9.230 -0.7831  0.0639  0.2495
60413SOL    HW290018  11.216   3.683   9.377  1.4029  0.0897 -0.0944
60414SOL     OW90019   4.362   0.081   2.334 -0.4122  0.4882 -0.2373
60414SOL    HW190020   4.291   0.119   2.283 -0.5503  0.6306  0.0558
60414SOL    HW290021   4.339   0.101   2.425 -0.5294 -0.3511 -0.0729
60415SOL     OW90022   6.289   3.443   6.531  0.3980  0.2949 -0.2715
60415SOL    HW190023   6.226   3.512   6.512  1.2686  0.8923 -1.1236
60415SOL    HW290024   6.245   3.362   6.506 -0.4671  0.5826  0.2985
60416SOL     OW90025   4.458   7.112   1.598 -0.2381 -0.3337  0.2868
60416SOL    HW190026   4.456   7.153   1.684  1.1786  2.3154 -0.8388
60416SOL    HW290027   4.552   7.101   1.579 -0.4803  0.0695 -1.2906
60417SOL     OW90028   5.933   7.825   8.571  0.2623 -0.2569  0.2903
60417SOL    HW190029   5.956   7.917   8.584  1.9070 -0.3333 -1.4834
60417SOL    HW290030   5.893   7.822   8.484  0.7497 -1.2735  0.0787
60418SOL     OW90031  12.592   7.136   9.335 -0.5414 -0.3937  0.2308
60418SOL    HW190032  12.536   7.129   9.412 -2.4721  2.4122 -0.7673
60418SOL    HW290033  12.618   7.228   9.331  1.1531 -0.8630 -1.4158
60419SOL     OW90034   4.316   8.046   8.370  0.4615 -0.0908 -0.2753
60419SOL    HW190035   4.339   7.967   8.419  0.1943 -0.2752 -0.4365
60419SOL    HW290036   4.330   8.022   8.279  0.5619  0.1106 -0.3117
60420SOL     OW90037   1.070   5.222   1.255  0.1180 -0.2609  0.6860
60420SOL    HW190038   1.156   5.262   1.240 -0.2953  0.8337  1.1331
60420SOL    HW290039   1.061   5.218   1.350 -1.0537  1.3028  0.6676
60421SOL     OW90040   6.689   6.833   7.588 -0.1908 -0.4021 -0.0818
60421SOL    HW190041   6.606   6.842   7.635 -0.4334 -0.2570 -0.5325
60421SOL    HW290042   6.664   6.807   7.500  0.1016  1.7353 -0.8472
60422SOL     OW90043   8.168   2.408  10.238 -0.0526  0.1621  0.5102
60422SOL    HW190044   8.233   2.408  10.309  1.3654  1.0727 -0.7229
60422SOL    HW290045   8.178   2.323  10.197 -1.2672 -0.5928  1.6823
60423SOL     OW90046   9.711   0.305   1.113 -0.1969  0.3511 -0.5431
60423SOL    HW190047   9.680   0.333   1.200 -0.3760 -2.6659  0.4821
60423SOL    HW290048   9.732   0.387   1.068 -2.5036  2.1909  1.4031
60424SOL     OW90049   2.219  10.432   9.373  0.5874  0.5607 -0.0189
60424SOL    HW190050   2.280  10.442   9.447 -0.2126 -0.2381  0.7686
60424SOL    HW290051   2.200  10.338   9.370 -0.3719  0.7553 -0.4447
60425SOL     OW90052  12.319   5.332   4.299 -0.1008 -0.0139  0.4207
60425SOL    HW190053  12.301   5.372   4.384 -0.1724 -0.3542  0.5658
60425SOL    HW290054  12.233   5.306   4.266  0.0279 -0.7961  0.6957
60426SOL     OW90055  11.911  11.890   8.833 -0.9742 -0.4255  0.3100
60426SOL    HW190056  11.986  11.836   8.808 -0.7716 -0.0352  0.0788
60426SOL    HW290057  11.946  11.949   8.900 -0.5907  1.0370 -1.1267
60427SOL     OW90058   5.619   1.174  10.217 -0.1784  0.3904 -0.3185
60427SOL    HW190059   5.628   1.265  10.244 -0.0075  0.4673 -0.6216
60427SOL    HW290060   5.597   1.180  10.124 -1.3007  0.1532 -0.0820
60428SOL     OW90061   6.622   8.798   0.059  0.3966 -0.7034 -0.7316
60428SOL    HW190062   6.707   8.827   0.091 -0.6415 -1.1161  2.7781
60428SOL    HW290063   6.562   8.868   0.084 -0.3592 -0.2302 -3.5077
60429SOL     OW90064   6.535  12.115  11.416  0.1075  0.2912 -0.5048
60429SOL    HW190065   6.479  12.192  11.417  0.2583  0.4229 -1.3418
60429SOL    HW290066   6.610  12.140  11.364  0.5641 -0.1526 -0.0733
60430SOL     OW90067  11.557  11.737   8.407 -0.2581 -0.7174 -0.0062
60430SOL    HW190068  11.547  11.689   8.489  0.0390 -0.4575  0.1820
60430SOL    HW290069  11.604  11.817   8.431 -0.6827 -0.3688 -0.3354
60431SOL     OW90070   3.145   8.075   0.453  0.3280  0.2126 -0.5122
60431SOL    HW190071   3.160   8.160   0.494 -0.8177  0.4355 -0.5112
60431SOL    HW290072   3.160   8.090   0.360  1.2076  0.1410 -0.3855
60432SOL     OW90073   2.024   2.305   5.394  0.1639 -0.0831 -0.1718
60432SOL    HW190074   1.932   2.301   5.369 -0.0211 -0.7917  0.5699
60432SOL    HW290075   2.028   2.373   5.462 -0.0709 -0.9720  0.7621
60433SOL     OW90076   0.421   3.499  11.456 -0.3395 -0.9405 -0.3129
60433SOL    HW190077   0.355   3.472  11.519 -0.5682 -0.2090 -0.2269
60433SOL    HW290078   0.377   3.493  11.371 -1.5277  2.2135 -0.0774
60434SOL     OW90079   2.991  10.831   6.310  0.8072 -0.4588  0.2328
60434SOL    HW190080   2.938  10.876   6.245  1.9318  2.9906  1.4308
60434SOL    HW290081   3.072  10.808   6.264  0.2273 -1.2237 -0.4052
60435SOL     OW90082   1.440   4.217   4.659 -0.0418 -1.0399  0.1501
60435SOL    HW190083   1.358   4.264   4.646 -1.1805 -3.0768 -0.4606
60435SOL    HW290084   1.480   4.258   4.736  0.1398  2.2902 -1.5424
60436SOL     OW90085   4.414   3.290   1.186  0.1346 -0.1612  0.0662
60436SOL    HW190086   4.503   3.253   1.192  0.3214  0.0405 -1.1408
60436SOL    HW290087   4.428   3.383   1.170 -0.3152  0.0549  0.9018
60437SOL     OW90088   8.013   5.212  10.330 -0.0203  0.7312 -0.7074
60437SOL    HW190089   8.066   5.132  10.339 -0.9002 -0.1166 -2.4531
60437SOL    HW290090   7.933   5.182  10.287 -1.6178  2.1194  1.1246
60438SOL     OW90091  11.705  12.055  10.617 -0.4053 -0.1525 -0.3542
60438SOL    HW190092  11.799  12.066  10.603  0.1099 -2.7098  0.4787
60438SOL    HW290093  11.667  12.057  10.530  0.2514  1.7263 -0.6570
60439SOL     OW90094   5.569   1.447   2.163  0.5937  0.2611  0.5632
60439SOL    HW190095   5.564   1.529   2.116 -0.7131 -0.5748 -0.8310
60439SOL    HW290096   5.507   1.457   2.236  0.6961  0.6130  0.6046
60440SOL     OW90097   2.337   7.051   7.100  0.6543  0.4137 -0.1138
60440SOL    HW190098   2.299   7.124   7.149 -0.1020 -0.1642  0.1808
60440SOL    HW290099   2.330   6.977   7.159 -3.9381 -1.3152 -2.2912
60441SOL     OW90100   3.833   7.364  11.412 -0.8447  0.1225  0.4201
60441SOL    HW190101   3.871   7.276  11.408 -2.5019 -0.6701  0.8199
60441SOL    HW290102   3.823   7.382  11.506 -0.5736  0.7078  0.3390
60442SOL     OW90103  10.164   0.908   0.682  0.2405 -0.1619 -0.3378
60442SOL    HW190104  10.231   0.885   0.747 -0.0889 -0.3907 -0.0755
60442SOL    HW290105  10.148   0.827   0.634  0.4788  0.0053 -0.7072
60443SOL     OW90106   0.291  10.558   8.562 -0.2235  0.6853 -0.1807
60443SOL    HW190107   0.240  10.520   8.490  1.0116  0.3745 -0.9246
60443SOL    HW290108   0.300  10.486   8.625 -0.2556  0.5801 -0.2949
60444SOL     OW90109  10.707   5.251   2.021  0.0952  0.2835  0.2153
60444SOL    HW190110  10.636   5.188   2.017  0.0665  0.3756 -0.8689
60444SOL    HW290111  10.766   5.226   1.950 -0.2994  1.9150 -0.7358
60445SOL     OW90112   3.818   9.816   6.607 -0.1274  0.2691  0.0720
60445SOL    HW190113   3.837   9.727   6.637  0.4188  0.1389 -0.6303
60445SOL    HW290114   3.902   9.862   6.612 -0.6857  1.2228  1.9121
60446SOL     OW90115   1.190   8.984   3.474  0.3413 -0.5241 -0.0455
60446SOL    HW190116   1.157   9.067   3.438 -0.4745 -0.9248 -0.2375
60446SOL    HW290117   1.187   8.996   3.569 -1.0231 -0.7930 -0.0357
60447SOL     OW90118   5.170   1.383  12.488  0.1150  0.0855  0.2418
60447SOL    HW190119   5.135   1.295  12.475 -2.2015  0.7719  1.2468
60447SOL    HW290120   5.132   1.435  12.417  1.9774  0.2113 -0.7301
60448SOL     OW90121   4.092   8.116  10.855 -0.0573  0.1527  0.4774
60448SOL    HW190122   4.170   8.142  10.806  0.0374 -0.5289  0.2584
60448SOL    HW290123   4.019   8.156  10.808  0.1248  0.4244  0.4259
60449SOL     OW90124   6.254   3.888   3.521 -0.1407 -0.3170 -0.3704
60449SOL    HW190125   6.228   3.875   3.430  1.3477  0.5324 -0.9509
60449SOL    HW290126   6.313   3.816   3.540  1.9130  1.0848 -1.0857
60450SOL     OW90127   4.666   0.953  10.482  0.6573 -0.1625 -0.4163
60450SOL    HW190128   4.678   0.966  10.576  0.4924  0.8475 -0.5232
60450SOL    HW290129   4.599   1.017  10.458  2.3719  1.2211 -1.6460
60451SOL     OW90130   2.305   9.402   0.201  0.2153  0.1382  0.1500
60451SOL    HW190131   2.391   9.415   0.239  0.3286  0.5606 -0.2391
60451SOL    HW290132   2.254   9.359   0.269  0.6206  0.2398  0.5170
60452SOL     OW90133   0.602   2.401   3.310  0.0625 -0.6774 -0.2291
60452SOL    HW190134   0.621   2.407   3.404 -0.3333 -0.1963 -0.1781
60452SOL    HW290135   0.562   2.315   3.300 -2.4051  0.3091  0.5047
60453SOL     OW90136   7.094   2.982   1.364  0.3201 -0.2288  0.1496
60453SOL    HW190137   7.057   3.049   1.422 -1.2389 -0.9522  0.0441
60453SOL    HW290138   7.032   2.977   1.291  0.8422 -1.2090 -0.2434
60454SOL     OW90139   5.968  10.575   1.871  0.7630  0.0941 -0.3254
60454SOL    HW190140   5.904  10.543   1.807  0.8621  0.0106 -0.3838
60454SOL    HW290141   5.990  10.498   1.924 -1.3852  0.7325  1.6169
60455SOL     OW90142   8.125  11.472  12.265  0.5140  0.1901 -0.1674
60455SOL    HW190143   8.204  11.492  12.315  0.0306  1.7181  0.0687
60455SOL    HW290144   8.110  11.551  12.212 -0.3312 -0.4395 -0.8981
60456SOL     OW90145   1.989   8.877   9.077  0.5322 -0.3429 -0.5525
60456SOL    HW190146   1.943   8.959   9.098 -2.1845 -1.0235 -3.1257
60456SOL    HW290147   1.932   8.808   9.110  1.8034 -1.2405 -0.1651
60457SOL     OW90148   6.767   2.021   2.121  0.1382 -0.3694 -0.0368
60457SOL    HW190149   6.731   2.009   2.209  0.7803 -1.1388  0.1372
60457SOL    HW290150   6.784   1.932   2.090 -1.4595 -0.1927 -1.5387
60458SOL     OW90151   9.856   5.117  11.091 -0.2829 -0.0307 -0.0972
60458SOL    HW190152   9.924   5.146  11.152 -1.5331  0.1832  1.2524
60458SOL    HW290153   9.868   5.174  11.015 -0.3585  1.5811  1.0257
60459SOL     OW90154  11.622   1.013   1.105  0.2671 -0.0679 -0.3386
60459SOL    HW190155  11.685   0.946   1.132 -0.3956 -1.4192 -1.9346
60459SOL    HW290156  11.665   1.059   1.033 -0.2422 -0.5318 -0.9635
60460SOL     OW90157   5.383  10.348   2.239  0.0926 -0.0160 -0.2940
60460SOL    HW190158   5.427  10.313   2.161  1.9245 -1.6618  1.3448
60460SOL    HW290159   5.413  10.438   2.246 -1.3865  0.6887 -2.3306
60461SOL     OW90160   3.729   8.899   2.973 -0.3339 -0.2502  0.0138
60461SOL    HW190161   3.636   8.882   2.961 -0.6379  1.3692 -0.1600
60461SOL    HW290162   3.740   8.991   2.949  1.3829 -0.5156 -0.3388
60462SOL     OW90163   2.173   0.833   1.744 -0.8088  0.5884 -0.1478
60462SOL    HW190164   2.108   0.778   1.788 -0.1626 -0.5705 -0.6251
60462SOL    HW290165   2.122   0.883   1.680 -1.3444  0.2764  0.0271
60463SOL     OW90166   8.617   2.833   4.718 -0.5608 -0.8976 -0.5229
60463SOL    HW190167   8.567   2.914   4.730  1.0316  0.0254  0.1731
60463SOL    HW290168   8.592   2.778   4.792  1.4048  0.6332  1.3786
60464SOL     OW90169   6.372   8.958   4.124  0.2597 -0.0134  0.3924
60464SOL    HW190170   6.310   8.956   4.051 -0.7375 -0.3749  1.2249
60464SOL    HW290171   6.414   9.043   4.116 -1.1849  0.7484  0.4637
60465SOL     OW90172   1.969   6.475   8.310 -0.2712  0.3832 -0.1287
60465SOL    HW190173   1.917   6.413   8.360  1.0057 -0.4704  0.1956
60465SOL    HW290174   2.022   6.421   8.251  0.7144  1.1637  0.0063
60466SOL     OW90175   2.122   6.326   2.114 -0.1227  0.6701  0.4807
60466SOL    HW190176   2.155   6.284   2.193  4.6262  1.5400 -0.7227
60466SOL    HW290177   2.117   6.419   2.136 -1.9231  0.5781  0.5918
60467SOL     OW90178   8.466   1.495   1.689  0.0325 -0.1541  0.4379
60467SOL    HW190179   8.514   1.452   1.617 -0.8465  1.5416 -1.2285
60467SOL    HW290180   8.374   1.479   1.669 -0.2262 -0.5557  1.8201
60468SOL     OW90181  12.293   9.134   3.929 -0.3569 -0.3994  0.1357
60468SOL    HW190182  12.227   9.073   3.897  0.2701 -0.3167 -1.4091
60468SOL    HW290183  12.305   9.111   4.021 -1.7985 -1.0655  0.1746
60469SOL     OW90184  11.899   9.650   0.971 -0.4339 -0.2860 -0.0630
60469SOL    HW190185  11.954   9.581   0.934 -1.4637 -0.6178 -1.0292
60469SOL    HW290186  11.820   9.605   1.000 -0.7694  0.3634  0.0559
60470SOL     OW90187   6.096   5.971   9.136 -0.1144  0.7378  0.0941
60470SOL    HW190188   6.167   6.035   9.143  1.1098 -0.6401  0.6828
60470SOL    HW290189   6.043   5.985   9.214  2.4377 -1.5419  2.4606
60471SOL     OW90190  10.277  11.105  12.399  0.0449 -0.4475  0.2515
60471SOL    HW190191  10.206  11.097  12.336 -1.0503 -0.5388  1.4445
60471SOL    HW290192  10.268  11.028  12.455  0.0134  0.4064  1.4592
60472SOL     OW90193   4.391   3.250   7.800 -0.1605  0.2644  0.4166
60472SOL    HW190194   4.313   3.226   7.750  0.3415 -0.1370 -0.1902
60472SOL    HW290195   4.393   3.188   7.872  1.2446 -1.7727 -1.2588
60473SOL     OW90196  10.235   7.200   4.519 -0.7253  0.4548 -0.2352
60473SOL    HW190197  10.208   7.228   4.431 -0.0819  1.3077 -0.1838
60473SOL    HW290198  10.311   7.256   4.538 -1.1105  0.5610  1.0265
60474SOL     OW90199  11.397  11.916   0.707 -0.0278  0.3151 -0.0973
60474SOL    HW190200  11.375  11.891   0.797  1.0750 -2.2789 -0.4615
60474SOL    HW290201  11.453  11.845   0.676  0.8512  1.9116 -2.3558
60475SOL     OW90202   6.111   3.382   7.735  0.1281  0.0056 -0.4075
60475SOL    HW190203   6.206   3.389   7.745  0.3044 -0.7401 -1.3517
60475SOL    HW290204   6.084   3.321   7.805  0.3713  0.0825 -0.2463
60476SOL     OW90205   0.618   0.674  11.687 -0.5472  0.3625 -0.6485
60476SOL    HW190206   0.599   0.634  11.773  0.0482 -2.5035 -1.7243
60476SOL    HW290207   0.712   0.691  11.689 -0.4774  0.0118 -0.8154
60477SOL     OW90208  10.126   3.470   2.425 -0.0363  0.1791  0.1853
60477SOL    HW190209  10.126   3.454   2.520 -0.2743 -1.5759 -0.0671
60477SOL    HW290210  10.153   3.386   2.387 -0.8403  0.5735 -1.3465
60478SOL     OW90211   9.882   2.167   9.538 -0.4930 -0.0804 -0.3070
60478SOL    HW190212   9.843   2.084   9.562  0.1416 -0.3985 -0.3614
60478SOL    HW290213   9.863   2.176   9.444  0.8846 -0.9901 -0.7097
60479SOL     OW90214   4.367   0.017  10.752  0.1409  0.1069 -0.1872
60479SOL    HW190215   4.289  -0.010  10.800 -0.5788  1.3880 -0.5869
60479SOL    HW290216   4.383  -0.055  10.691  0.2676 -0.9174  1.0095
60480SOL     OW90217   0.510   4.503   6.857 -0.3984 -0.2037 -0.0124
60480SOL    HW190218   0.468   4.581   6.821 -2.0725 -0.6471  0.8620
60480SOL    HW290219   0.502   4.437   6.789  1.0067  0.3498 -0.7492
60481SOL     OW90220   4.425   8.139   6.189 -0.7964 -0.1366 -0.3474
60481SOL    HW190221   4.497   8.189   6.152 -0.8728 -1.3129 -2.2431
60481SOL    HW290222   4.355   8.203   6.203  0.5608  1.0199  1.5408
60482SOL     OW90223   3.497  11.917   0.992 -0.2568  0.2452 -0.0956
60482SOL    HW190224   3.412  11.960   0.988  0.0527  1.0035  0.8836
60482SOL    HW290225   3.482  11.836   1.041 -0.3178  0.6602  0.5819
60483SOL     OW90226   6.574   8.501   1.565 -0.4157 -0.0915 -0.2858
60483SOL    HW190227   6.591   8.459   1.649  0.9005 -1.1167 -1.0293
60483SOL    HW290228   6.504   8.449   1.526 -1.6886  0.9517  0.5459
60484SOL     OW90229   7.536   0.300   3.537  0.1018 -0.1230  0.2061
60484SOL    HW190230   7.594   0.348   3.596 -0.1309 -1.1907  1.3512
60484SOL    HW290231   7.465   0.270   3.594 -2.1552  1.9886 -1.3306
60485SOL     OW90232   1.790   7.288  10.561  0.8776 -0.4408 -0.6819
60485SOL    HW190233   1.718   7.321  10.507  0.7570  0.8516  0.2169
60485SOL    HW290234   1.828   7.367  10.601  2.2611 -1.1742 -0.4766
60486SOL     OW90235   1.014   0.333  10.870  0.1392 -0.0616 -0.4831
60486SOL    HW190236   1.057   0.375  10.943  0.5877  0.8346 -1.2403
60486SOL    HW290237   1.030   0.240  10.882  0.0375  0.0521  0.6456
60487SOL     OW90238   1.936   4.367   7.211  0.3173 -0.1903 -0.7354
60487SOL    HW190239   2.017   4.404   7.248  0.6075 -1.3248 -0.1841
60487SOL    HW290240   1.904   4.435   7.152  1.8470  0.1647 -1.2200
60488SOL     OW90241  10.707   9.157   7.477 -0.2299  0.3122 -0.1775
60488SOL    HW190242  10.716   9.251   7.463  4.4793  0.2213  0.5310
60488SOL    HW290243  10.731   9.144   7.569 -0.0717 -1.5892 -0.4345
60489SOL     OW90244   7.663   6.590   6.116  0.1899  0.0583 -0.5003
60489SOL    HW190245   7.583   6.642   6.126 -0.2593 -0.7516  0.1773
60489SOL    HW290246   7.730   6.641   6.163 -0.3226 -0.1272  0.4566
60490SOL     OW90247   0.178   7.218   8.734 -0.3253 -0.0020 -0.2546
60490SOL    HW190248   0.246   7.172   8.685  0.1518 -0.7278  1.0459
60490SOL    HW290249   0.103   7.221   8.674  0.6588  0.3372 -1.5092
60491SOL     OW90250   0.893   6.395   3.363  0.2266  0.3426 -0.1207
60491SOL    HW190251   0.901   6.339   3.440  3.4193  0.7723  0.0157
60491SOL    HW290252   0.800   6.395   3.342 -0.3499 -2.1953  1.9242
60492SOL     OW90253   5.493   9.506  11.639 -0.3525  0.2412  0.6249
60492SOL    HW190254   5.430   9.521  11.710  0.4900  1.2400  1.1958
60492SOL    HW290255   5.572   9.474  11.683 -0.2251 -0.3355 -0.0049
60493SOL     OW90256  11.783   0.316   7.191  0.0431  0.0236 -0.3758
60493SOL    HW190257  11.698   0.273   7.193 -0.4193  0.9090 -0.6389
60493SOL    HW290258  11.824   0.284   7.111  0.0027 -0.4635 -0.2089
60494SOL     OW90259   1.348  11.290   4.981  0.2997 -0.0633  0.2271
60494SOL    HW190260   1.328  11.223   5.046 -0.5878  1.1353  1.2186
60494SOL    HW290261   1.286  11.274   4.910 -0.7097  0.4270  0.9869
60495SOL     OW90262   6.386   9.414   3.942 -0.2919 -0.4292 -0.0960
60495SOL    HW190263   6.363   9.486   3.883  1.0496  1.0172  1.0613
60495SOL    HW290264   6.338   9.432   4.023  0.6881 -0.3734  0.4847
60496SOL     OW90265  11.789  11.739   9.657 -0.8934  0.0656  0.2503
60496SOL    HW190266  11.852  11.807   9.632  0.9139 -1.5865  0.0846
60496SOL    HW290267  11.704  11.783   9.654  0.2923  2.6246  1.3059
60497SOL     OW90268  11.211   6.209   1.423 -0.2989  0.0827  0.1219
60497SOL    HW190269  11.124   6.189   1.389 -0.1068 -0.6786  0.0611
60497SOL    HW290270  11.223   6.147   1.495 -0.4139  1.2001  1.1270
60498SOL     OW90271   3.981   6.695  12.154  0.2691 -0.3038 -0.0350
60498SOL    HW190272   4.014   6.620  12.203 -0.5933 -0.9192 -0.3617
60498SOL    HW290273   3.942   6.752  12.220  1.5889  0.2369  0.3045
60499SOL     OW90274   3.858   3.724   4.554 -0.5084 -0.5166  0.6044
60499SOL    HW190275   3.892   3.791   4.613  1.5568 -0.8887 -0.0453
60499SOL    HW290276   3.862   3.765   4.467  0.0798 -1.2115  0.2915
60500SOL     OW90277   0.201  12.498   9.211 -0.1246  0.1049 -0.1259
60500SOL    HW190278   0.237  12.443   9.141  0.3605  0.7496 -0.4015
60500SOL    HW290279   0.133  12.549   9.168 -0.6499 -0.3504  0.1537
60501SOL     OW90280   0.955   4.067   5.321 -0.4192 -0.0240  0.1955
60501SOL    HW190281   1.034   4.057   5.268 -1.4718 -0.7394 -1.2922
60501SOL    HW290282   0.957   3.994   5.382  0.6175  0.6018  0.9529
60502SOL     OW90283   8.833   2.300   5.325  0.1775 -0.0949 -0.3799
60502SOL    HW190284   8.796   2.216   5.352 -0.6929  0.2445 -0.4711
60502SOL    HW290285   8.764   2.341   5.274  0.9415  0.2865 -1.1280
60503SOL     OW90286   6.869   7.100   6.482 -0.5079  0.1067  0.3151
60503SOL    HW190287   6.805   7.070   6.417  1.8632 -0.6147 -1.8591
60503SOL    HW290288   6.865   7.034   6.551  1.3089 -2.9482 -2.2018
60504SOL     OW90289   5.875   0.055  11.797  0.0457 -0.4870  0.8013
60504SOL    HW190290   5.886   0.102  11.714  0.3079 -0.0499  1.0819
60504SOL    HW290291   5.848  -0.033  11.771  1.0921 -0.6505  0.2055
60505SOL     OW90292  10.782   6.194   1.992  0.1911 -0.0598 -0.1268
60505SOL    HW190293  10.850   6.130   1.970  0.3000 -0.2435  0.7223
60505SOL    HW290294  10.825   6.256   2.051 -0.4062 -0.2335  0.4990
60506SOL     OW90295  10.660  10.783   3.596  0.2595 -0.9534 -0.4757
60506SOL    HW190296  10.594  10.716   3.576  1.2957 -1.9525 -0.6341
60506SOL    HW290297  10.721  10.779   3.522  0.0163  0.6114 -0.7931
60507SOL     OW90298   0.281  10.516  10.153 -0.0293  0.4607 -0.0743
60507SOL    HW190299   0.336  10.455  10.103  0.2631 -0.0891  0.8969
60507SOL    HW290300   0.299  10.495  10.244  0.8023  2.6414  0.3153
60508SOL     OW90301   1.503  11.031   4.841  0.5710 -0.5201  0.2178
60508SOL    HW190302   1.425  11.028   4.896 -0.3457 -0.3177 -1.0168
60508SOL    HW290303   1.510  10.944   4.803 -0.2738  0.0050 -1.2470
60509SOL     OW90304  11.649   7.769   4.709 -0.3149  0.0930  0.3738
60509SOL    HW190305  11.693   7.825   4.773  1.0610 -2.1909  1.5764
60509SOL    HW290306  11.617   7.694   4.760  0.8986 -1.8654 -1.5576
60510SOL     OW90307   3.675  10.263   5.000  0.0284  0.4726  0.2533
60510SOL    HW190308   3.615  10.275   5.073  0.6628  0.8807  0.7120
60510SOL    HW290309   3.749  10.319   5.020  0.8669 -0.5277  0.0191
60511SOL     OW90310  11.121   5.878   7.090 -0.1015 -0.4567  0.1177
60511SOL    HW190311  11.093   5.847   7.176 -0.3836  1.1486  0.6431
60511SOL    HW290312  11.174   5.956   7.108  0.5769 -0.5924 -1.1251
60512SOL     OW90313   9.195  12.267   1.992  0.2447 -0.7677 -0.6362
60512SOL    HW190314   9.158  12.193   1.945  0.5358 -0.9375 -0.5966
60512SOL    HW290315   9.125  12.296   2.051  0.3130 -1.3532 -0.2587
60513SOL     OW90316   9.867  10.583   2.273  0.0093 -0.1933  0.0793
60513SOL    HW190317   9.927  10.608   2.343 -0.1973 -2.2667  1.0632
60513SOL    HW290318   9.797  10.648   2.279  1.3768  1.3728 -0.1283
60514SOL     OW90319   8.047   9.177   2.474  0.4153  0.1816  0.5581
60514SOL    HW190320   8.097   9.224   2.541 -1.5516  1.5700  1.1237
60514SOL    HW290321   7.972   9.233   2.456  0.2215 -0.7660 -1.9345
60515SOL     OW90322   7.584  11.039   3.400  0.1988  0.2317  0.4490
60515SOL    HW190323   7.565  11.056   3.308  0.0105  2.2063  0.8122
60515SOL    HW290324   7.564  10.946   3.412  0.4855 -0.1368 -1.5470
60516SOL     OW90325   6.227  11.413   1.489 -0.4516  0.7259 -0.3021
60516SOL    HW190326   6.138  11.443   1.506 -0.4731 -0.4066  2.0505
60516SOL    HW290327   6.258  11.380   1.574  1.4294 -0.9317 -1.5309
60517SOL     OW90328  10.815   1.936   9.788 -0.6188 -0.5011 -0.1456
60517SOL    HW190329  10.847   1.924   9.699  0.7646 -0.7434  0.3520
60517SOL    HW290330  10.894   1.950   9.840 -1.4614  0.6323  0.8993
60518SOL     OW90331  10.887   1.511   4.394  0.0368  0.1924  0.3438
60518SOL    HW190332  10.847   1.556   4.468  0.2425  1.2548 -0.1791
60518SOL    HW290333  10.909   1.580   4.332 -0.4275 -0.6961 -0.8701
60519SOL     OW90334   2.482   4.131   8.921  0.0265 -0.2066  0.4974
60519SOL    HW190335   2.511   4.041   8.910  0.2355 -0.1569  0.6422
60519SOL    HW290336   2.430   4.130   9.001 -0.2929 -0.2769  0.2870
60520SOL     OW90337  11.030   4.402   8.421  0.1622 -0.1227 -0.0931
60520SOL    HW190338  10.956   4.380   8.364  0.2350 -1.3016  0.2467
60520SOL    HW290339  11.017   4.348   8.499  0.3671  1.0541  0.7890
60521SOL     OW90340   1.053   2.926   3.909 -0.5083 -0.4890  0.8094
60521SOL    HW190341   1.135   2.939   3.862  0.3132 -0.1606  2.2755
60521SOL    HW290342   1.068   2.966   3.994 -2.3051 -0.1583  1.0021
60522SOL     OW90343   2.336  12.323   1.540  0.2065  0.0772 -0.2648
60522SOL    HW190344   2.305  12.287   1.457  0.9638 -1.4506  0.0804
60522SOL    HW290345   2.330  12.251   1.602  0.4504  0.9525  0.8212
60523SOL     OW90346   5.167   9.260   6.366  0.0645 -0.2481 -0.1556
60523SOL    HW190347   5.184   9.352   6.387 -1.3762 -0.0553  0.2963
60523SOL    HW290348   5.085   9.261   6.317  0.5645 -1.2148 -1.0485
60524SOL     OW90349   0.905   4.741   1.810  0.6060 -0.7720  0.1748
60524SOL    HW190350   0.837   4.789   1.763 -0.2356 -0.1133  1.9878
60524SOL    HW290351   0.982   4.797   1.805  0.2359 -0.2371  0.4567
60525SOL     OW90352   4.998   0.916   0.363  0.2148 -0.8193  0.6437
60525SOL    HW190353   4.984   0.969   0.442  0.0255  0.3083 -0.1163
60525SOL    HW290354   4.915   0.920   0.317  1.0095  0.5461 -0.7626
60526SOL     OW90355  10.843   4.614   0.343 -0.2665 -0.0424 -0.2577
60526SOL    HW190356  10.901   4.650   0.409 -1.4707  0.2214  0.6829
60526SOL    HW290357  10.760   4.660   0.356 -1.1830 -1.5608 -0.4879
60527SOL     OW90358   6.415   5.684  11.983  0.2892  0.2905 -0.3206
60527SOL    HW190359   6.350   5.626  11.942 -1.0742  0.9572  0.8034
60527SOL    HW290360   6.487   5.687  11.920  0.1147 -2.0331 -0.7317
60528SOL     OW90361   0.363  11.471   6.662  0.1907  0.2338  0.1121
60528SOL    HW190362   0.438  11.437   6.613  0.8173 -0.1653  1.3244
60528SOL    HW290363   0.366  11.426   6.746 -1.3715  0.2691  0.2218
60529SOL     OW90364  10.690   4.476   8.090 -0.1430 -0.1865  0.3643
60529SOL    HW190365  10.641   4.554   8.062  0.2627 -0.0574  0.0025
60529SOL    HW290366  10.750   4.459   8.018 -2.0208 -2.4400 -0.7839
60530SOL     OW90367   0.274  10.327   9.623 -0.3253 -0.4485 -0.2022
60530SOL    HW190368   0.338  10.284   9.566 -1.4770 -1.1132 -1.0414
60530SOL    HW290369   0.234  10.394   9.567 -0.1369  0.1950  0.4196
60531SOL     OW90370   9.205  12.361   6.493  0.4241 -0.2129  0.1054
60531SOL    HW190371   9.193  12.323   6.580  0.4847 -0.6439 -0.0728
60531SOL    HW290372   9.146  12.437   6.492  2.2867  1.3505  1.4277
60532SOL     OW90373   8.254   3.779  12.505 -0.1289  0.0506 -0.8432
60532SOL    HW190374   8.181   3.809  12.559  0.8262  0.9501 -0.0279
60532SOL    HW290375   8.304   3.858  12.486  1.5374 -0.7622 -0.0228
60533SOL     OW90376   4.238   7.727   5.950  0.0548  0.3372 -0.0325
60533SOL    HW190377   4.153   7.751   5.912  0.1574  0.4543 -0.1925
60533SOL    HW290378   4.260   7.800   6.007 -0.4619 -0.1905  0.8671
60534SOL     OW90379   6.180  10.392   6.085  0.5797 -0.2087  0.1670
60534SOL    HW190380   6.149  10.468   6.036  3.1346  1.1343  0.4776
60534SOL    HW290381   6.141  10.403   6.172  1.9507  1.5224  0.6059
60535SOL     OW90382   1.944   8.440  10.535 -0.0030  0.2620 -0.3784
60535SOL    HW190383   1.999   8.456  10.612 -0.9930  3.1752 -0.1554
60535SOL    HW290384   1.981   8.496  10.467  0.5957 -1.9585 -1.9789
60536SOL     OW90385  12.101   2.715   0.986  0.1679 -0.2405 -0.3412
60536SOL    HW190386  12.132   2.626   0.967 -1.5270 -0.9277 -0.0482
60536SOL    HW290387  12.129   2.767   0.911  0.6424 -1.1568 -0.8140
60537SOL     OW90388  10.343  12.388   9.388  0.3826 -0.5451 -0.4750
60537SOL    HW190389  10.367  12.459   9.448  1.1812 -1.4807  0.3315
60537SOL    HW290390  10.301  12.323   9.444  1.9723 -1.8482 -0.7235
60538SOL     OW90391   4.284  10.878  10.512  0.2312 -0.0753  0.1541
60538SOL    HW190392   4.336  10.884  10.592  2.6929 -1.6590 -1.2088
60538SOL    HW290393   4.269  10.784  10.500 -1.2140  0.2224 -0.5985
60539SOL     OW90394  10.874  12.251  10.557 -0.0744  0.0062  0.4253
60539SOL    HW190395  10.904  12.229  10.645  0.9036 -0.1938  0.0538
60539SOL    HW290396  10.853  12.167  10.517 -2.6846  0.2143  1.1821
60540SOL     OW90397   6.649   4.715   1.723 -0.2920 -0.4059 -0.2178
60540SOL    HW190398   6.706   4.764   1.781  0.0664 -0.7562 -0.2694
60540SOL    HW290399   6.706   4.683   1.653 -0.4015 -1.3814  0.1213
60541SOL     OW90400   6.112   2.166   9.258  0.2771 -0.9053 -0.0668
60541SOL    HW190401   6.124   2.160   9.164 -1.0067 -1.6575 -0.2005
60541SOL    HW290402   6.143   2.082   9.292 -0.3859 -1.1089  0.0453
60542SOL     OW90403   1.230   5.139   7.082  0.2840 -0.2438 -0.6937
60542SOL    HW190404   1.189   5.138   7.168 -0.2123  0.3387 -0.9137
60542SOL    HW290405   1.318   5.104   7.097  0.3973  0.3628  0.1520
60543SOL     OW90406   3.976   9.473   8.873  0.5485 -0.4233 -0.5297
60543SOL    HW190407   4.003   9.487   8.782 -1.3745 -0.5904 -1.1672
60543SOL    HW290408   3.988   9.559   8.914 -0.8966  0.3480 -1.6094
60544SOL     OW90409  10.635   7.546   8.304 -0.4650  0.1509 -0.3328
60544SOL    HW190410  10.629   7.492   8.225  1.9808  0.5649 -0.8868
60544SOL    HW290411  10.709   7.604   8.288 -0.8654  1.3267  1.6666
60545SOL     OW90412  12.325   3.275   0.594 -0.0125 -0.1662 -0.0033
60545SOL    HW190413  12.233   3.285   0.620 -0.0644 -0.1141 -0.2057
60545SOL    HW290414  12.369   3.351   0.631 -0.2662  0.4229 -0.9001
60546SOL     OW90415  12.277   8.844   9.919 -0.5102 -0.1841  0.9743
60546SOL    HW190416  12.363   8.837   9.959 -0.2444 -0.1684  0.4093
60546SOL    HW290417  12.256   8.937   9.923  0.1942  0.0512 -0.3110
60547SOL     OW90418   9.560   7.348  11.626 -0.0609 -0.5500 -0.3138
60547SOL    HW190419   9.654   7.346  11.640 -0.0806  0.1083 -0.0719
60547SOL    HW290420   9.525   7.287  11.691  0.1796 -0.5998 -0.2306
60548SOL     OW90421   4.636   1.149   9.750  0.3031 -0.3812 -0.0454
60548SOL    HW190422   4.701   1.200   9.700  2.4743 -0.3473  2.5771
60548SOL    HW290423   4.613   1.077   9.692  2.3311 -0.1060 -1.3262
60549SOL     OW90424   2.246  10.704   4.284 -0.3804  0.2283  0.2570
60549SOL    HW190425   2.267  10.765   4.355 -1.9499  0.7009  0.3446
60549SOL    HW290426   2.258  10.618   4.323  3.2549  0.3417 -0.2698
60550SOL     OW90427  11.092  12.354   7.696 -0.2183 -0.3119  0.2649
60550SOL    HW190428  11.028  12.391   7.635 -0.7272  1.0259  1.5618
60550SOL    HW290429  11.058  12.375   7.783  1.2921 -0.7659  1.0040
60551SOL     OW90430  10.183   0.430   4.777 -0.4730 -0.0481  0.1926
60551SOL    HW190431  10.200   0.476   4.694  0.6698  0.1358  0.5098
60551SOL    HW290432  10.270   0.406   4.809 -0.8295  0.6401  1.7783
60552SOL     OW90433   0.742   6.945  10.237  0.0166  0.1027 -0.5425
60552SOL    HW190434   0.815   6.920  10.179 -0.6213  0.6662 -1.6155
60552SOL    HW290435   0.665   6.907  10.196 -0.3239 -0.4562  0.5736
60553SOL     OW90436   4.839  11.227   2.621 -0.1444  0.3317  0.1041
60553SOL    HW190437   4.915  11.258   2.571  0.3611  0.2954  0.8381
60553SOL    HW290438   4.873  11.213   2.710 -0.9328 -0.0097  0.3560
60554SOL     OW90439   5.964   6.494  11.004 -0.3430  0.1107  0.2834
60554SOL    HW190440   5.936   6.568  10.950 -1.7718 -2.1900 -2.3900
60554SOL    HW290441   5.915   6.419  10.969  1.0499 -2.1408  2.8040
60555SOL     OW90442   0.027   1.132   8.553  0.4585  0.0851 -0.1917
60555SOL    HW190443  -0.025   1.140   8.633  0.4866  2.5807 -0.3225
60555SOL    HW290444  -0.029   1.083   8.493  0.2622 -1.4394  1.1692
60556SOL     OW90445   1.759   2.605   3.999  0.1862  0.1435 -0.2145
60556SOL    HW190446   1.677   2.570   3.964  0.5059 -1.7474  0.8119
60556SOL    HW290447   1.744   2.612   4.093  1.5691 -1.3549  0.1456
60557SOL     OW90448   7.819   5.036  11.864 -0.0041  0.4785 -0.1817
60557SOL    HW190449   7.790   5.107  11.808 -0.2591  1.5444  1.2490
60557SOL    HW290450   7.739   4.989  11.887  0.1452 -0.1984 -0.9950
60558SOL     OW90451   1.804   1.045  10.921  0.0852 -0.4971  0.0237
60558SOL    HW190452   1.882   1.053  10.867  0.3334 -1.1325  0.2772
60558SOL    HW290453   1.757   0.970  10.885 -0.7044  0.2264 -0.4849
60559SOL     OW90454   1.021   3.364   3.084 -0.1103 -0.7664 -0.1912
60559SOL    HW190455   0.926   3.375   3.085 -0.0789  0.3022 -2.4056
60559SOL    HW290456   1.052   3.409   3.163 -1.3935 -0.7427  0.3140
60560SOL     OW90457  10.524   3.340   9.339  0.2587 -0.4530 -0.3970
60560SOL    HW190458  10.476   3.276   9.286 -0.5123  0.8874 -1.3936
60560SOL    HW290459  10.604   3.295   9.365  1.0762 -0.9738 -3.4050
60561SOL     OW90460   6.909   5.044  11.099  0.0648  0.3831  1.3765
60561SOL    HW190461   6.943   5.129  11.127 -0.9353  0.3299  2.8531
60561SOL    HW290462   6.843   5.065  11.033  0.0628  0.7261  1.4868
60562SOL     OW90463   7.570  11.528   3.781  0.2260  0.0457 -0.4821
60562SOL    HW190464   7.639  11.573   3.829  1.0406 -2.0312  0.4164
60562SOL    HW290465   7.581  11.556   3.690  1.4537  0.7110 -0.1443
60563SOL     OW90466   3.346   7.012   5.656 -0.0032  0.0251  0.5283
60563SOL    HW190467   3.368   7.057   5.737  0.5932  1.3396 -0.3211
60563SOL    HW290468   3.351   6.919   5.677 -1.8073  0.3072  2.4880
60564SOL     OW90469   6.726   5.718   0.881  0.3901 -0.2025 -0.0822
60564SOL    HW190470   6.788   5.646   0.894  0.1501 -0.8424 -2.1363
60564SOL    HW290471   6.653   5.679   0.833  0.7630  1.5987 -2.2728
60565SOL     OW90472   7.046   8.499   7.132 -0.3722  0.1011  0.3791
60565SOL    HW190473   7.098   8.482   7.210 -0.1965 -0.3112  0.1761
60565SOL    HW290474   6.959   8.522   7.165  0.2181  1.9434  0.7588
60566SOL     OW90475   0.793   1.114   1.493 -1.0364  0.2057  0.2766
60566SOL    HW190476   0.888   1.125   1.501 -0.8929 -0.8167  0.0908
60566SOL    HW290477   0.769   1.062   1.570 -1.2611 -0.5202 -0.2716
60567SOL     OW90478  11.719   6.581   0.313 -0.0063 -0.4353  0.1870
60567SOL    HW190479  11.649   6.614   0.258 -0.7334 -0.7268  0.9173
60567SOL    HW290480  11.786   6.549   0.251  0.4547  1.7872 -0.5335
60568SOL     OW90481   5.074   6.282   2.197  0.1590  0.1653 -0.1306
60568SOL    HW190482   5.051   6.373   2.218  2.5576  0.9355 -0.5941
60568SOL    HW290483   5.046   6.233   2.275  1.0756  1.6824  1.2236
60569SOL     OW90484   4.106   2.820   6.302  0.2057  1.0044  0.7293
60569SOL    HW190485   4.060   2.870   6.370 -1.7678 -0.1587  0.3330
60569SOL    HW290486   4.105   2.877   6.226 -2.2773  0.3732  0.1992
60570SOL     OW90487   2.494  10.665   5.694  0.6319  0.0759  0.3892
60570SOL    HW190488   2.487  10.634   5.604  0.6144  0.3391  0.2972
60570SOL    HW290489   2.493  10.761   5.686 -0.3893  0.1085  0.7499
60571SOL     OW90490   3.757   9.991  12.093  0.3362 -0.0594  0.4671
60571SOL    HW190491   3.826  10.002  12.158  2.5010 -1.8293 -1.3712
60571SOL    HW290492   3.771  10.063  12.031 -0.2417  0.2552  0.6928
60572SOL     OW90493   1.158  11.674   1.786  0.5695  0.2522  0.2984
60572SOL    HW190494   1.233  11.707   1.736  0.9293 -0.3800  0.4053
60572SOL    HW290495   1.174  11.580   1.793 -1.0721 -0.1784 -1.0924
60573SOL     OW90496  11.007   4.572   0.096  0.1354  0.1393  0.9133
60573SOL    HW190497  10.948   4.565   0.171 -0.0567 -0.2001  0.7332
60573SOL    HW290498  10.994   4.491   0.048  0.2254  0.3767  0.4863
60574SOL     OW90499   7.056   8.034   2.603  0.4350  0.3391 -1.0764
60574SOL    HW190500   7.036   8.098   2.671  0.9922 -1.1205  0.5506
60574SOL    HW290501   7.004   7.957   2.627  1.4511 -0.5630 -1.6918
60575SOL     OW90502  10.313   7.616   6.064  1.0643  0.1260 -0.0943
60575SOL    HW190503  10.365   7.679   6.013 -0.7700  2.5490  0.8261
60575SOL    HW290504  10.290   7.547   6.002 -0.2473  2.4378 -2.3560
60576SOL     OW90505   9.824   2.212   8.891  0.4109 -0.2936  0.2583
60576SOL    HW190506   9.915   2.234   8.909  0.8404  0.2416 -2.1753
60576SOL    HW290507   9.806   2.138   8.948  2.5024 -0.6988  0.4846
60577SOL     OW90508   1.095   2.523   8.119  0.3567  0.4780 -1.0003
60577SOL    HW190509   1.003   2.500   8.131  0.2945  1.3349  0.2600
60577SOL    HW290510   1.128   2.456   8.059 -0.5103 -1.2206  0.3302
60578SOL     OW90511   6.363  11.863   1.829  0.1903 -0.2808 -0.8854
60578SOL    HW190512   6.276  11.829   1.810 -0.3906  0.3990  0.4384
60578SOL    HW290513   6.352  11.915   1.909  1.2576  2.1049 -2.1799
60579SOL     OW90514  12.149   3.130  10.445  0.4581 -0.5651 -0.4685
60579SOL    HW190515  12.206   3.184  10.500  0.7686 -0.0266 -1.3040
60579SOL    HW290516  12.206   3.098  10.376 -0.1520 -0.4277 -1.0417
60580SOL     OW90517   7.357   4.298   8.653  0.0694 -0.4033  0.2437
60580SOL    HW190518   7.382   4.366   8.590 -1.3558 -0.4814 -0.4394
60580SOL    HW290519   7.363   4.341   8.738  1.9392 -0.2700  0.0936
60581SOL     OW90520   5.193  10.457   3.012  0.4815  0.1715  0.0142
60581SOL    HW190521   5.267  10.419   3.059  0.0369 -0.8394 -0.0768
60581SOL    HW290522   5.199  10.420   2.923 -0.0577  0.1632 -0.0250
60582SOL     OW90523   3.682   5.149   3.701  0.1054  0.1718 -0.1375
60582SOL    HW190524   3.659   5.144   3.609  1.9439 -0.4678 -0.5959
60582SOL    HW290525   3.734   5.070   3.717  3.0102  2.0706  0.4852
60583SOL     OW90526   8.879   7.669   1.058 -1.0723  0.4966 -0.3310
60583SOL    HW190527   8.958   7.690   1.108  0.0354  0.6170 -2.0672
60583SOL    HW290528   8.828   7.614   1.117  0.2862  0.4339  0.8509
60584SOL     OW90529   0.126   8.741   9.340 -0.3716  0.3022  0.4038
60584SOL    HW190530   0.168   8.745   9.254 -0.2152 -0.1986  0.4550
60584SOL    HW290531   0.198   8.740   9.402 -0.4051 -1.3416  0.4673
60585SOL     OW90532   2.329  12.312   5.359 -0.0300 -0.0516 -0.0300
60585SOL    HW190533   2.419  12.291   5.382  0.7427  2.0989 -0.8618
60585SOL    HW290534   2.292  12.229   5.328  1.8014 -0.8685 -0.1422
60586SOL     OW90535   4.131   5.405   1.719  0.0116 -0.0532 -0.1611
60586SOL    HW190536   4.091   5.382   1.803 -2.5794 -1.4998 -1.6404
60586SOL    HW290537   4.108   5.497   1.706  0.5154  0.2056  0.7450
60587SOL     OW90538   3.019  11.769  11.539  0.2424 -0.1017 -0.2295
60587SOL    HW190539   3.008  11.713  11.462  2.8899 -0.9310 -0.1120
60587SOL    HW290540   2.975  11.851  11.516 -0.1879 -0.8041 -2.0624
60588SOL     OW90541   7.811   7.060   5.415  0.3621  0.5720 -0.5888
60588SOL    HW190542   7.823   7.133   5.476 -0.2599  0.8620 -0.8076
60588SOL    HW290543   7.737   7.086   5.361 -1.7982 -1.4847  1.2023
60589SOL     OW90544  11.723   8.714   0.758  0.0747 -0.8285  0.0877
60589SOL    HW190545  11.687   8.743   0.674  0.4409  0.8356  0.4707
60589SOL    HW290546  11.775   8.788   0.789  2.1159 -2.3542  0.5655
60590SOL     OW90547   1.159   1.247   2.902 -0.0113  0.1588 -0.3180
60590SOL    HW190548   1.137   1.333   2.939 -1.0206 -0.0778 -0.3347
60590SOL    HW290549   1.225   1.266   2.836 -2.4913  1.4165 -2.6603
60591SOL     OW90550   4.963   0.021   0.656 -0.2143  0.2338 -0.3293
60591SOL    HW190551   4.881   0.072   0.652 -0.7892 -0.5515  0.9092
60591SOL    HW290552   4.936  -0.069   0.642  0.5336  0.0429 -0.5663
60592SOL     OW90553   0.337  11.265   3.776 -0.4905 -0.3647  0.4450
60592SOL    HW190554   0.368  11.175   3.790  1.1618  0.3545  1.7980
60592SOL    HW290555   0.243  11.260   3.790 -0.2966 -1.7160  1.5550
60593SOL     OW90556  12.351   4.358   8.310 -0.0157  0.0311  0.7326
60593SOL    HW190557  12.339   4.263   8.309  0.6925 -0.1001 -1.5572
60593SOL    HW290558  12.268   4.392   8.275  0.2896  0.1238  0.0719
60594SOL     OW90559   0.275   6.174   2.470  0.6825  0.0708 -0.4846
60594SOL    HW190560   0.237   6.128   2.545  0.4092  0.7026 -0.2291
60594SOL    HW290561   0.294   6.262   2.503 -1.2847  0.9993 -1.6957
60595SOL     OW90562   3.525   9.482   7.998 -0.2645 -0.5369  0.0890
60595SOL    HW190563   3.527   9.568   8.039  0.6520 -0.1250 -0.7871
60595SOL    HW290564   3.583   9.428   8.053  0.2556 -0.2247 -0.1511
60596SOL     OW90565   7.458  12.004   0.448 -0.2864 -0.0670 -0.1313
60596SOL    HW190566   7.508  11.993   0.529  1.6946  1.5954 -1.0258
60596SOL    HW290567   7.411  12.086   0.460  1.5895  1.2895 -1.2947
60597SOL     OW90568   7.007   3.724   4.880  0.5797  0.0109 -0.4116
60597SOL    HW190569   7.006   3.797   4.941 -0.3783 -0.0860 -0.3017
60597SOL    HW290570   6.953   3.752   4.807 -1.2213 -1.2106  0.3939
60598SOL     OW90571   9.146   7.200   3.353 -0.0592 -0.9382 -0.1179
60598SOL    HW190572   9.208   7.175   3.422 -1.7381 -1.6882  1.1768
60598SOL    HW290573   9.074   7.241   3.400 -0.1390  0.8356 -1.6890
60599SOL     OW90574   0.782   1.992   0.735  0.2804  0.0956  0.1578
60599SOL    HW190575   0.769   1.976   0.829 -1.6966 -0.1882 -0.1369
60599SOL    HW290576   0.866   1.950   0.716 -0.2018 -1.5583  1.4134
60600SOL     OW90577   4.032   0.767  11.031 -0.5499  0.4265  0.0771
60600SOL    HW190578   4.073   0.689  10.994  1.5388  1.6139 -0.2806
60600SOL    HW290579   3.957   0.734  11.080 -0.2178 -1.7047 -0.7411
60601SOL     OW90580   3.094   4.786   9.031 -0.0402 -0.4154 -0.6120
60601SOL    HW190581   3.014   4.758   8.987  0.3829 -1.3795 -0.7853
60601SOL    HW290582   3.076   4.877   9.057 -0.4145  0.0961 -2.5071
60602SOL     OW90583   2.259   9.929  10.164 -0.6215  0.5497  0.0649
60602SOL    HW190584   2.322   9.907  10.095  0.1542  0.9323  0.6336
60602SOL    HW290585   2.200   9.854  10.167 -0.0808  0.0930 -0.3581
60603SOL     OW90586   6.802   6.481   3.158 -0.3859 -0.2110  1.0920
60603SOL    HW190587   6.848   6.538   3.096 -1.0429 -0.6220  0.1926
60603SOL    HW290588   6.868   6.416   3.183 -0.1085 -0.0452  0.8120
60604SOL     OW90589   9.787   1.867   4.854 -0.2776 -0.0797  0.3334
60604SOL    HW190590   9.748   1.833   4.935 -1.5110  1.6760  0.5345
60604SOL    HW290591   9.873   1.825   4.849 -0.0716 -0.0509  2.6898
60605SOL     OW90592  10.057   5.966   4.317 -0.0648  0.5205 -0.1217
60605SOL    HW190593  10.077   5.969   4.224 -0.3474  0.5978 -0.1802
60605SOL    HW290594   9.964   5.988   4.323 -1.3880 -4.1717 -0.2280
60606SOL     OW90595   2.993   6.510   9.882 -0.4171  0.9305 -0.2984
60606SOL    HW190596   2.999   6.490   9.789 -1.1300 -0.0859 -0.1436
60606SOL    HW290597   3.037   6.595   9.892 -0.1494  0.9433 -1.5155
60607SOL     OW90598  11.332  12.397   8.036  0.3564 -0.1405 -0.3811
60607SOL    HW190599  11.427  12.404   8.038  0.5417 -1.8205 -1.7502
60607SOL    HW290600  11.313  12.308   8.065 -1.0087  0.8933  2.3730
60608SOL     OW90601   6.283   9.088   6.089 -0.0650  0.1475 -0.0879
60608SOL    HW190602   6.229   9.026   6.039  0.5560 -1.0167  0.6483
60608SOL    HW290603   6.358   9.105   6.033  1.2482 -2.1076  0.8574
60609SOL     OW90604   0.068   1.540   9.496 -0.1545  0.3853  0.7704
60609SOL    HW190605   0.153   1.497   9.507 -0.7799 -0.7773  1.2439
60609SOL    HW290606   0.047   1.529   9.404 -1.1816 -2.1252  1.2187
60610SOL     OW90607   1.587   3.203  10.298  0.1676  0.7607 -0.4197
60610SOL    HW190608   1.590   3.257  10.219 -0.0939  0.2269 -0.8021
60610SOL    HW290609   1.549   3.260  10.365  1.8248  1.7258 -0.2566
60611SOL     OW90610   1.041   9.776   7.782 -0.4240 -0.1724 -0.6503
60611SOL    HW190611   1.036   9.868   7.759 -0.8102 -0.3483 -1.3110
60611SOL    HW290612   0.962   9.759   7.832 -0.2933 -0.1177 -0.4248
60612SOL     OW90613  11.252   0.302  12.128  0.0615 -0.0190  0.2917
60612SOL    HW190614  11.197   0.254  12.189  1.4565 -0.7648  1.0248
60612SOL    HW290615  11.341   0.292  12.163  0.6776  1.1172 -0.8437
60613SOL     OW90616   4.189  11.821   5.271  0.5109  0.0337 -0.9320
60613SOL    HW190617   4.169  11.893   5.211 -1.1003  2.5833  2.3111
60613SOL    HW290618   4.109  11.767   5.272 -0.1958  1.0374  0.1314
60614SOL     OW90619   8.431   6.634  12.448 -0.1986  0.0951  0.2749
60614SOL    HW190620   8.347   6.591  12.463 -0.1613  0.6071  2.2076
60614SOL    HW290621   8.420   6.722  12.485  1.6579 -0.3444  2.0410
60615SOL     OW90622   2.672   5.213  10.974 -0.2129  0.2128  0.2040
60615SOL    HW190623   2.691   5.179  11.062 -0.4181  0.1826  0.2377
60615SOL    HW290624   2.609   5.151  10.937  2.0091 -1.4084 -1.0864
60616SOL     OW90625   6.206  10.009  11.985  0.1170  0.1004  0.7557
60616SOL    HW190626   6.191  10.103  11.981 -1.3941 -0.1513 -0.6242
60616SOL    HW290627   6.172   9.982  12.070 -0.0097  0.7193  0.9025
60617SOL     OW90628   0.205   8.593   2.298 -0.2869  0.7507  0.1422
60617SOL    HW190629   0.146   8.636   2.237 -0.7206  0.2216  0.1823
60617SOL    HW290630   0.230   8.511   2.254 -0.1195  0.6523  0.4161
60618SOL     OW90631   1.424   5.602   2.490 -0.3987 -0.0892 -0.0360
60618SOL    HW190632   1.508   5.630   2.528 -0.7744  0.9297  0.0838
60618SOL    HW290633   1.399   5.525   2.540 -0.7778  1.1018  1.6805
60619SOL     OW90634   3.742   4.549   5.994 -0.4956 -0.8305  0.3873
60619SOL    HW190635   3.699   4.580   6.074 -2.2793  0.3683 -0.9596
60619SOL    HW290636   3.681   4.485   5.958 -0.4852 -0.2028 -0.7918
60620SOL     OW90637   1.551   3.336   6.778 -0.4677 -0.0640 -0.6276
60620SOL    HW190638   1.637   3.346   6.818 -1.1059  1.5971  0.4636
60620SOL    HW290639   1.496   3.299   6.847 -1.0294  0.5778 -0.7163
60621SOL     OW90640   7.507   0.432   0.710  0.1911 -0.4792  0.2162
60621SOL    HW190641   7.462   0.465   0.788 -2.4178  0.3849 -1.5180
60621SOL    HW290642   7.567   0.503   0.686 -0.0922 -0.0993  0.6040
60622SOL     OW90643   5.050  11.776  11.431  0.2535 -0.0945 -0.2401
60622SOL    HW190644   4.967  11.731  11.440 -0.6995  1.5313 -0.5266
60622SOL    HW290645   5.082  11.787  11.520  0.3140 -0.9677 -0.1489
60623SOL     OW90646   7.699  11.446   1.878 -0.9487  0.7622 -0.0372
60623SOL    HW190647   7.681  11.442   1.784 -1.2771 -0.2736  0.0568
60623SOL    HW290648   7.615  11.426   1.919 -0.6380  0.4755  0.4660
60624SOL     OW90649  11.424   4.298   3.668  0.1785  1.4584 -0.4199
60624SOL    HW190650  11.446   4.383   3.707  1.4407  1.0798 -0.2396
60624SOL    HW290651  11.329   4.293   3.671 -0.0076  3.3663 -1.4759
60625SOL     OW90652   0.393   5.168   7.548  0.7466  0.5519 -0.8647
60625SOL    HW190653   0.302   5.181   7.524  0.9439 -0.0617 -2.0353
60625SOL    HW290654   0.439   5.243   7.509  0.7202  0.9500 -0.1328
60626SOL     OW90655   5.671   4.890   4.711  0.1785 -0.2455 -0.5213
60626SOL    HW190656   5.690   4.977   4.747 -0.2182 -0.1235 -0.5991
60626SOL    HW290657   5.632   4.908   4.625 -1.7946 -0.4170  0.2925
60627SOL     OW90658   7.385   5.851  11.037  0.2418 -0.0527 -0.2381
60627SOL    HW190659   7.342   5.864  10.952  1.5827  2.1814 -0.6541
60627SOL    HW290660   7.316   5.864  11.101 -0.6030 -0.8682 -0.9553
60628SOL     OW90661   3.354   5.198   8.141 -0.1478 -0.3127  0.0482
60628SOL    HW190662   3.373   5.111   8.106 -1.5020 -0.9010  0.7059
60628SOL    HW290663   3.260   5.197   8.159 -0.2649  1.4342 -0.2923
60629SOL     OW90664  11.079   0.365   2.390 -0.2503  0.0209 -0.2431
60629SOL    HW190665  11.164   0.347   2.431 -0.0709 -0.9643 -1.0205
60629SOL    HW290666  11.034   0.281   2.391 -0.9440  0.3900 -0.4586
60630SOL     OW90667   3.130   9.343   5.938 -0.3392  0.3459  0.2425
60630SOL    HW190668   3.170   9.370   6.021  1.2521  1.5217 -0.8346
60630SOL    HW290669   3.100   9.253   5.953 -0.0468  0.5159  2.0492
60631SOL     OW90670   5.582   9.079   0.623  0.2908 -0.2945 -0.2406
60631SOL    HW190671   5.678   9.073   0.622  0.4077  0.9759  0.6344
60631SOL    HW290672   5.560   9.113   0.536  0.6896 -0.1124 -0.2763
60632SOL     OW90673   6.061   4.115  12.306  0.1259  0.4230  0.3636
60632SOL    HW190674   5.977   4.069  12.314  0.7690 -0.8119  0.2365
60632SOL    HW290675   6.086   4.136  12.396  1.0275 -1.7631  0.6823
60633SOL     OW90676   1.045   6.369   3.820 -0.0537 -0.3763  0.5356
60633SOL    HW190677   1.098   6.348   3.743 -1.3065 -0.2263 -0.4041
60633SOL    HW290678   1.106   6.361   3.894  1.6421  1.2553 -0.6018
60634SOL     OW90679   4.764  10.314   9.145 -0.4820  0.4556  0.6524
60634SOL    HW190680   4.726  10.387   9.194  0.1673  0.5586  1.0047
60634SOL    HW290681   4.856  10.338   9.134 -0.3775 -0.0829  0.3399
60635SOL     OW90682   2.030   6.373   5.596  1.1065  0.1396  0.1488
60635SOL    HW190683   2.089   6.327   5.536  0.2091 -1.7658  0.6619
60635SOL    HW290684   2.087   6.404   5.667  1.7218 -0.2395 -0.1721
60636SOL     OW90685  12.066  11.459   6.553 -0.2211 -0.2537 -0.3179
60636SOL    HW190686  12.048  11.372   6.517  0.2252 -0.5440  0.1486
60636SOL    HW290687  12.039  11.520   6.483 -2.4227 -0.6643  0.0994
60637SOL     OW90688  11.683   8.248  11.897 -0.4087  0.6990  0.2350
60637SOL    HW190689  11.742   8.273  11.969  0.3333  0.7029 -0.3577
60637SOL    HW290690  11.741   8.241  11.821 -1.4872  2.8730 -0.8646
60638SOL     OW90691  12.248  11.265   1.487  0.3260 -0.6418 -0.0215
60638SOL    HW190692  12.207  11.351   1.494 -0.3282 -0.9842  0.4187
60638SOL    HW290693  12.283  11.248   1.575 -0.5823 -1.3297  0.2215
60639SOL     OW90694   9.826   3.765   0.783 -0.1657 -0.2521 -0.1613
60639SOL    HW190695   9.913   3.748   0.819  1.2003  2.8790 -1.5899
60639SOL    HW290696   9.768   3.758   0.858  1.5333 -0.8812  1.1745
60640SOL     OW90697   6.419  10.429   1.307  0.1687 -0.1227 -0.1055
60640SOL    HW190698   6.505  10.393   1.329  0.9491  1.3021 -0.6530
60640SOL    HW290699   6.434  10.523   1.298 -1.0585 -0.0390 -2.0153
60641SOL     OW90700   9.898   8.087   2.800 -0.6650  0.3285 -0.4194
60641SOL    HW190701   9.867   8.046   2.880 -1.3029 -0.0846 -0.8688
60641SOL    HW290702   9.984   8.048   2.785 -1.2157 -0.7865 -0.7809
60642SOL     OW90703   4.573   1.965   6.005 -0.2100  0.3591 -0.3069
60642SOL    HW190704   4.529   2.022   6.068  0.8109 -0.7433  1.5230
60642SOL    HW290705   4.506   1.901   5.980  0.1505 -1.1668  2.2706
60643SOL     OW90706   5.106  11.208   5.349 -0.4040  0.3392  0.4315
60643SOL    HW190707   5.074  11.178   5.434 -2.9629 -0.0483 -0.5770
60643SOL    HW290708   5.050  11.164   5.285  1.7020  0.3011 -1.5008
60644SOL     OW90709   7.065  11.992   2.863  0.3311 -0.1439  0.2389
60644SOL    HW190710   7.134  11.950   2.812  2.3299  0.6878  2.0816
60644SOL    HW290711   7.052  11.934   2.938 -0.4581  0.0795  0.2806
60645SOL     OW90712  12.064   8.261   1.718  0.0437  0.0981 -0.2522
60645SOL    HW190713  12.061   8.350   1.683 -0.3195  0.1655 -0.0548
60645SOL    HW290714  11.973   8.240   1.739  0.3129  0.2337  1.1048
60646SOL     OW90715   4.082  10.961   9.161  0.5661  0.1307  0.0845
60646SOL    HW190716   4.034  10.925   9.236  2.4576 -2.6387  0.0746
60646SOL    HW290717   4.015  10.972   9.093 -0.7441  0.3296  1.3503
60647SOL     OW90718  11.513  10.652  10.063  0.3489 -0.2292 -0.0000
60647SOL    HW190719  11.576  10.709  10.107  1.0181 -1.5115  0.7658
60647SOL    HW290720  11.453  10.712  10.018  1.1512  1.0523  0.5887
60648SOL     OW90721   5.393   7.612   6.999  0.0504  0.6635  0.3355
60648SOL    HW190722   5.436   7.532   6.969 -0.4564 -0.0724  1.4881
60648SOL    HW290723   5.453   7.683   6.972  0.2744 -0.0365 -1.1222
60649SOL     OW90724   6.165   9.686   5.987 -0.7394 -0.1519  0.1496
60649SOL    HW190725   6.189   9.666   5.897 -0.3076 -2.1442  0.6728
60649SOL    HW290726   6.194   9.611   6.037 -0.1618  1.2969  2.1112
60650SOL     OW90727   5.300   3.924   0.958  0.0012  0.3151 -0.6103
60650SOL    HW190728   5.252   4.003   0.984  0.1544 -0.2364  1.5322
60650SOL    HW290729   5.263   3.901   0.873 -0.6755  2.1721 -0.8769
60651SOL     OW90730  11.860  12.073   2.913  0.0099 -0.1970  0.3396
60651SOL    HW190731  11.768  12.097   2.909 -0.2279 -0.6590  2.2473
60651SOL    HW290732  11.866  12.010   2.984  1.7627 -0.4129  0.0594
60652SOL     OW90733   9.922  12.047   2.681  0.0918 -0.1436  1.2821
60652SOL    HW190734   9.886  12.114   2.739  0.0677 -0.0356  1.1428
60652SOL    HW290735   9.848  11.992   2.658 -0.3080  0.9841 -0.2497
60653SOL     OW90736  11.236   7.156   2.967 -0.0294 -0.4353 -0.2566
60653SOL    HW190737  11.169   7.185   3.029  1.5290  1.3923  0.6879
60653SOL    HW290738  11.207   7.069   2.939 -1.8177 -0.4756  1.4942
60654SOL     OW90739   6.918   2.271  11.870 -0.1914  0.0708 -0.0949
60654SOL    HW190740   6.863   2.348  11.884 -0.1302  0.1225 -0.1398
60654SOL    HW290741   7.006   2.306  11.854 -0.0429 -0.0281  0.4650
60655SOL     OW90742   8.891   0.548  11.902  0.2317 -0.0366 -0.0384
60655SOL    HW190743   8.798   0.567  11.888  0.0439 -0.4525  0.5781
60655SOL    HW290744   8.933   0.633  11.913  0.1347  0.2243 -1.5158
60656SOL     OW90745   7.348   4.194  10.752 -0.1402 -0.3728 -0.0978
60656SOL    HW190746   7.286   4.202  10.680  0.9212 -0.8596 -1.0935
60656SOL    HW290747   7.311   4.126  10.808  0.6196 -2.4062 -1.9196
60657SOL     OW90748  12.432   0.513  10.206 -0.3319 -0.2551  0.0672
60657SOL    HW190749  12.481   0.528  10.126 -0.8665  0.3631 -0.1578
60657SOL    HW290750  12.344   0.491  10.176 -1.5203  3.2892  0.4171
60658SOL     OW90751   3.132   5.668   7.262 -0.7607  0.2159  0.3888
60658SOL    HW190752   3.048   5.623   7.250 -0.8398  0.1768  1.0343
60658SOL    HW290753   3.107   5.757   7.288 -0.6232 -0.2137  2.1014
60659SOL     OW90754   9.658   6.594   4.055 -0.5016  0.3262  0.0732
60659SOL    HW190755   9.584   6.565   4.001 -1.4574  1.8961  0.4869
60659SOL    HW290756   9.642   6.687   4.070  0.7896  0.3631  1.4276
60660SOL     OW90757   7.781   2.008   3.955 -0.4512 -0.1445  0.0611
60660SOL    HW190758   7.784   2.093   3.911  0.4471  0.3218  0.9970
60660SOL    HW290759   7.857   1.960   3.921 -0.1050 -0.0106  0.6384
60661SOL     OW90760   4.889  10.470   0.517 -0.1558 -0.0125 -0.0948
60661SOL    HW190761   4.799  10.440   0.504  0.4050 -1.7192 -0.2723
60661SOL    HW290762   4.932  10.399   0.566  1.4040  0.2148 -1.0508
60662SOL     OW90763  11.563   9.376   0.383  0.1678  0.2489  0.4382
60662SOL    HW190764  11.537   9.361   0.474  2.5334 -1.5171  0.9208
60662SOL    HW290765  11.656   9.357   0.381 -0.0393 -1.1022 -2.6184
60663SOL     OW90766   0.561  10.170   4.046  0.2750  0.1167 -0.5396
60663SOL    HW190767   0.493  10.112   4.012  1.2470 -1.9929  0.9485
60663SOL    HW290768   0.513  10.234   4.100 -0.6782 -0.2261 -0.9695
60664SOL     OW90769  11.511   2.510   8.929  0.2409  0.6578  0.3952
60664SOL    HW190770  11.426   2.537   8.895  0.8877 -0.4658 -2.4008
60664SOL    HW290771  11.492   2.439   8.990 -0.8321  0.2992 -0.3287
60665SOL     OW90772   4.251   2.553  11.332 -0.3060 -0.0167 -0.2126
60665SOL    HW190773   4.299   2.473  11.351 -0.7668 -0.5918 -1.3590
60665SOL    HW290774   4.310   2.603  11.275 -0.5888 -0.2007 -0.6728
60666SOL     OW90775   6.190   9.884   0.700 -0.5278  0.2554 -0.5453
60666SOL    HW190776   6.150   9.819   0.758 -1.5692  0.2091 -1.2794
60666SOL    HW290777   6.282   9.856   0.692 -0.6701 -0.4188  0.1210
60667SOL     OW90778   9.852   8.279   4.089 -0.4514 -0.1672  0.3065
60667SOL    HW190779   9.917   8.348   4.101 -0.5836 -0.2457  1.7545
60667SOL    HW290780   9.888   8.224   4.019  1.0319 -0.1715  1.0139
60668SOL     OW90781   8.949   8.766   2.594 -0.0295 -0.1688  0.1360
60668SOL    HW190782   8.860   8.800   2.605 -1.0874 -1.8774 -2.2701
60668SOL    HW290783   8.937   8.676   2.562  2.5653 -0.5702  0.0623
60669SOL     OW90784  11.963   7.641   5.998 -0.4692 -0.1105 -0.9870
60669SOL    HW190785  12.025   7.649   5.925 -1.2869 -1.0782 -1.8028
60669SOL    HW290786  11.877   7.640   5.956 -0.9866  0.0375  0.0548
60670SOL     OW90787  10.409  11.966   5.759  0.0505  0.1271 -0.3342
60670SOL    HW190788  10.385  11.873   5.753  0.1906 -0.3811  3.6381
60670SOL    HW290789  10.326  12.012   5.769  0.0661  0.1363 -0.2410
60671SOL     OW90790   5.887   1.955  10.799 -0.0597 -0.5709  0.2670
60671SOL    HW190791   5.836   1.996  10.729  0.7144 -0.7397 -0.4064
60671SOL    HW290792   5.968   2.006  10.803  0.2691 -1.0981  0.4566
60672SOL     OW90793   8.231   6.210   3.769  0.4928  0.3047  0.1623
60672SOL    HW190794   8.293   6.170   3.708  0.2507 -0.7741  0.5898
60672SOL    HW290795   8.147   6.203   3.725  0.4716  0.4955  0.1731
60673SOL     OW90796   7.249   9.094  10.572  0.1078  0.3027  0.2854
60673SOL    HW190797   7.268   9.163  10.508 -0.9537  0.0412 -0.3424
60673SOL    HW290798   7.215   9.142  10.649  1.1003  0.5970  0.5530
60674SOL     OW90799   1.038   6.342   0.785  0.0658 -0.6472 -0.5742
60674SOL    HW190800   0.984   6.276   0.828  0.0028  0.2029  0.7052
60674SOL    HW290801   1.113   6.293   0.751  0.1629 -1.3525  0.5974
60675SOL     OW90802   0.219   6.984   2.037  0.2916 -0.2829  0.3606
60675SOL    HW190803   0.194   7.060   2.089  1.7382 -0.4171  1.3368
60675SOL    HW290804   0.314   6.994   2.025  0.1920 -0.8927 -1.2466
60676SOL     OW90805   3.360   7.865   4.923 -0.6610 -0.1193  0.3397
60676SOL    HW190806   3.339   7.894   5.011 -1.4740 -1.2475  0.5517
60676SOL    HW290807   3.301   7.915   4.866 -3.6763 -2.6654  0.8655
60677SOL     OW90808   4.642  11.712   1.874  0.3184  0.2964  0.2096
60677SOL    HW190809   4.691  11.649   1.927  1.3724  0.0851 -0.9646
60677SOL    HW290810   4.651  11.795   1.921  0.1097 -0.1351  1.0390
60678SOL     OW90811  12.426   0.629  10.947 -0.2584 -0.5417 -0.0702
60678SOL    HW190812  12.513   0.612  10.913  0.0884 -1.3627  1.1412
60678SOL    HW290813  12.432   0.716  10.987 -0.2948 -0.1531 -0.9091
60679SOL     OW90814   7.686   5.362   8.882  0.3491  0.0908  0.0411
60679SOL    HW190815   7.619   5.357   8.813 -0.4241  0.2414  0.7613
60679SOL    HW290816   7.745   5.290   8.863 -0.0717 -0.1041 -0.5659
60680SOL     OW90817   3.877   9.068   0.004 -0.6602 -0.1205 -0.3332
60680SOL    HW190818   3.938   9.053   0.076 -1.5846 -0.4440  0.4061
60680SOL    HW290819   3.790   9.065   0.045 -1.1276  2.6083 -0.9208
60681SOL     OW90820   9.681   8.254   4.352 -0.1157  0.2662 -0.2782
60681SOL    HW190821   9.714   8.185   4.409 -0.9468  0.0769 -0.0096
60681SOL    HW290822   9.732   8.245   4.271  0.7984  0.2878  0.2782
60682SOL     OW90823  10.035   2.165   9.080  0.1135  0.1720  0.3826
60682SOL    HW190824  10.009   2.180   9.170  1.8220 -1.1422  1.1516
60682SOL    HW290825  10.105   2.100   9.085 -1.4603 -1.9399 -2.0706
60683SOL     OW90826   7.209   9.285   0.969 -0.2543  0.4218 -0.2584
60683SOL    HW190827   7.191   9.338   1.046 -0.7453  0.2093 -0.2259
60683SOL    HW290828   7.181   9.339   0.895  2.2944  1.5915 -0.4942
60684SOL     OW90829   7.897   0.657   9.119  0.3093  0.0291  0.3505
60684SOL    HW190830   7.905   0.747   9.086 -0.1089  0.7040  1.9508
60684SOL    HW290831   7.835   0.615   9.060 -0.8016  1.3199  0.5435
60685SOL     OW90832  10.284   3.845   7.004  0.0396  0.2414  0.3357
60685SOL    HW190833  10.255   3.884   7.087  0.4923  1.3077  0.0183
60685SOL    HW290834  10.202   3.830   6.956 -0.1907  0.1555  0.7461
60686SOL     OW90835  12.113   2.948   0.787 -0.1136  0.2796  0.6805
60686SOL    HW190836  12.114   2.915   0.697 -2.2992 -0.9892  1.0380
60686SOL    HW290837  12.039   3.008   0.789 -0.9302 -0.7077  1.9061
60687SOL     OW90838   0.535   7.101   2.843 -0.2140 -0.2916 -0.3717
60687SOL    HW190839   0.493   7.165   2.899  0.2789 -0.2242 -0.0777
60687SOL    HW290840   0.581   7.042   2.903 -1.9918 -1.9153 -0.5101
60688SOL     OW90841  11.343   0.845   6.552  0.0951  0.1211  0.0691
60688SOL    HW190842  11.366   0.756   6.525 -1.3448  0.2132 -1.6069
60688SOL    HW290843  11.293   0.880   6.479 -1.2558  1.5520  1.5999
60689SOL     OW90844   0.647   1.194   9.489 -0.0606  0.6708  0.2195
60689SOL    HW190845   0.653   1.142   9.409  0.2625  0.7243  0.2051
60689SOL    HW290846   0.704   1.148   9.551 -1.6073 -0.3319  0.9603
60690SOL     OW90847   4.070   7.805   7.284 -0.1679  0.3002  0.2179
60690SOL    HW190848   4.014   7.754   7.226  0.7243  0.9382 -1.2699
60690SOL    HW290849   4.009   7.851   7.343 -1.0426 -1.1618  0.5096
60691SOL     OW90850   5.634   5.316   7.457  0.4766 -0.4427  0.3743
60691SOL    HW190851   5.542   5.323   7.484  0.0444  1.2672 -1.3142
60691SOL    HW290852   5.675   5.264   7.526 -0.9521  1.7848  3.1103
60692SOL     OW90853   3.030   0.700   7.198 -0.2128  0.0116 -0.4722
60692SOL    HW190854   2.998   0.737   7.280  0.4736 -0.1399 -0.1294
60692SOL    HW290855   2.971   0.627   7.179 -0.8091  0.5015 -0.4947
60693SOL     OW90856  10.591   1.018   1.596 -0.2647 -0.6770  0.0072
60693SOL    HW190857  10.670   0.980   1.634 -1.2906 -1.8958  1.0251
60693SOL    HW290858  10.547   0.944   1.553 -0.6160  0.0790 -0.9713
60694SOL     OW90859  10.920  12.219   2.980 -0.1778 -0.2912  0.3034
60694SOL    HW190860  10.958  12.259   2.902 -0.9121  0.5201  0.3560
60694SOL    HW290861  10.978  12.245   3.051  0.3066 -0.7603  0.0922
60695SOL     OW90862   1.919  11.120   7.526 -0.1856 -0.3066 -0.2094
60695SOL    HW190863   1.951  11.162   7.446 -1.6157  2.1003  0.3673
60695SOL    HW290864   1.992  11.127   7.587  0.8484 -1.9796 -1.1710
60696SOL     OW90865   2.189   4.383   3.186 -0.1038  0.0634  0.1135
60696SOL    HW190866   2.228   4.298   3.208 -0.6633  0.1006  1.2976
60696SOL    HW290867   2.114   4.361   3.131  1.8824  0.0228 -2.7966
60697SOL     OW90868   7.048   8.449   2.531 -0.3064 -0.0101  0.9514
60697SOL    HW190869   7.013   8.361   2.513  0.6654 -0.3692  0.7522
60697SOL    HW290870   7.138   8.433   2.560  0.4818  1.0041 -0.7658
60698SOL     OW90871   5.849   3.028   5.814  0.3646 -0.1377  0.8704
60698SOL    HW190872   5.894   3.101   5.771 -0.4049  0.7835  1.6057
60698SOL    HW290873   5.865   2.953   5.755 -2.1131  1.3945 -2.0307
60699SOL     OW90874   2.299   4.735  10.228  0.2652  0.0614  0.9893
60699SOL    HW190875   2.243   4.665  10.195 -1.4984  1.9997 -0.3780
60699SOL    HW290876   2.384   4.693  10.241 -1.2373 -2.8509  2.4805
60700SOL     OW90877  11.658   2.443   7.394  0.5082  1.1239 -0.0180
60700SOL    HW190878  11.701   2.463   7.477 -0.3062 -0.1420  0.7359
60700SOL    HW290879  11.660   2.347   7.389 -1.4546  1.0723 -0.3546
60701SOL     OW90880   1.006   4.232   6.274  0.5272  0.3055  0.2285
60701SOL    HW190881   0.929   4.178   6.258 -0.8965  1.4123  2.7065
60701SOL    HW290882   1.052   4.234   6.190 -2.4464  0.1066 -1.5434
60702SOL     OW90883   8.332   2.499   9.086  0.1061 -0.0936 -0.8246
60702SOL    HW190884   8.364   2.580   9.124 -0.1911 -0.1896 -0.3559
60702SOL    HW290885   8.410   2.455   9.052  0.4343 -0.2196  0.0892
60703SOL     OW90886  10.234   3.100   1.646 -0.1095 -0.4821  0.5279
60703SOL    HW190887  10.265   3.061   1.564 -0.1918  0.5485 -0.0153
60703SOL    HW290888  10.305   3.086   1.708  0.2228 -0.7137  0.1043
60704SOL     OW90889   6.905  11.197   3.443 -0.0055  0.0082  0.3206
60704SOL    HW190890   6.951  11.170   3.364 -1.2052 -1.0555 -0.0416
60704SOL    HW290891   6.964  11.260   3.484  2.3891 -2.2265  0.5770
60705SOL     OW90892   6.029   7.878   6.047  0.3991  0.4505 -0.0530
60705SOL    HW190893   6.092   7.934   6.093  0.1636  2.2601 -1.7490
60705SOL    HW290894   5.944   7.901   6.085  0.1660  2.1661 -1.4374
60706SOL     OW90895   6.234   3.833   6.240 -0.5196 -0.7656  0.7125
60706SOL    HW190896   6.297   3.780   6.289 -0.7703 -1.0620  0.7130
60706SOL    HW290897   6.187   3.881   6.308 -2.9956 -3.4452  1.0671
60707SOL     OW90898   8.348   4.663   6.281 -0.4751 -0.2618 -0.6044
60707SOL    HW190899   8.280   4.686   6.218  0.0627 -1.8735 -1.8582
60707SOL    HW290900   8.308   4.595   6.336  0.0906 -1.2090 -1.3411
60708SOL     OW90901   8.677   6.881   0.421  0.1800  0.1260  0.5602
60708SOL    HW190902   8.702   6.973   0.428 -1.6221  0.7523 -0.6893
60708SOL    HW290903   8.734   6.846   0.353  1.1662  0.1617  1.3328
60709SOL     OW90904   5.032   0.775   4.870  0.2180  0.1100  0.0203
60709SOL    HW190905   4.946   0.813   4.848  0.8253  0.4613 -1.9143
60709SOL    HW290906   5.073   0.842   4.925 -0.7458 -0.0876  1.0259
60710SOL     OW90907   0.014   2.762   1.748  0.1212 -0.0600 -0.2380
60710SOL    HW190908   0.069   2.834   1.777 -0.5682  0.2287  0.3881
60710SOL    HW290909  -0.031   2.795   1.670  0.4360 -0.1144 -0.4447
60711SOL     OW90910   4.662   3.820  12.498 -0.1022 -0.8172  0.1487
60711SOL    HW190911   4.738   3.785  12.544  0.9357  0.4470 -0.5342
60711SOL    HW290912   4.679   3.800  12.406  0.8954  1.9782 -0.3666
60712SOL     OW90913   5.705   4.044   3.858 -0.1780  0.0447 -0.9184
60712SOL    HW190914   5.629   4.095   3.886  0.0372 -0.1548  0.0709
60712SOL    HW290915   5.755   4.104   3.802 -0.1221  0.8134 -0.0714
60713SOL     OW90916   2.932  12.518   9.443 -0.1961  0.0423  0.4594
60713SOL    HW190917   2.845  12.528   9.481 -0.1073  1.0016  0.4196
60713SOL    HW290918   2.972  12.604   9.450 -0.1663  0.2675 -1.7576
60714SOL     OW90919   2.034  10.799   2.487  0.1046 -0.3417  0.0398
60714SOL    HW190920   1.981  10.730   2.527 -0.2223 -0.2794 -0.2808
60714SOL    HW290921   2.124  10.770   2.500 -0.0525 -1.4700 -1.2183
60715SOL     OW90922   7.826   8.141   2.894 -0.4319 -0.4199  0.4574
60715SOL    HW190923   7.739   8.118   2.925 -0.0303  0.2500  2.2002
60715SOL    HW290924   7.811   8.210   2.829 -1.2573 -1.3134 -0.3290
60716SOL     OW90925   1.415   8.022   8.661  0.0616  0.1297  0.3140
60716SOL    HW190926   1.379   7.936   8.684 -0.9246  0.7439  1.1993
60716SOL    HW290927   1.452   8.055   8.743  0.3435  0.5965  0.0054
60717SOL     OW90928   9.326   7.758   2.319  0.5073  0.4935 -0.9935
60717SOL    HW190929   9.388   7.760   2.392  0.2858  0.0289 -0.7842
60717SOL    HW290930   9.336   7.670   2.283 -3.6801 -1.6629  2.2837
60718SOL     OW90931   8.722   4.358   2.538 -0.2876  0.1309  0.0785
60718SOL    HW190932   8.632   4.329   2.525 -0.3980  0.3191  0.4080
60718SOL    HW290933   8.771   4.278   2.554 -0.3128 -0.0144 -0.5596
60719SOL     OW90934   2.250  11.552  10.309 -0.1553  0.2046 -0.2859
60719SOL    HW190935   2.204  11.614  10.253 -0.7830  0.9991  1.0707
60719SOL    HW290936   2.317  11.605  10.353 -1.6751  0.3148  2.0413
60720SOL     OW90937   4.549   9.087   9.084 -0.4150  0.4869  0.7779
60720SOL    HW190938   4.555   9.023   9.155  0.6774 -0.1051  0.1742
60720SOL    HW290939   4.458   9.082   9.055 -0.7637  0.4185  1.8296
60721SOL     OW90940  12.131   7.254  10.361 -0.3807  0.4488  0.1695
60721SOL    HW190941  12.181   7.290  10.288 -0.8936  1.9746  0.5455
60721SOL    HW290942  12.118   7.327  10.421 -2.2795 -0.1085  0.5180
60722SOL     OW90943  11.756   3.977  10.344 -0.2006 -0.3602  0.1873
60722SOL    HW190944  11.678   4.025  10.373 -0.6177  0.3124 -1.8589
60722SOL    HW290945  11.741   3.887  10.373 -0.5711  0.2301  1.9402
60723SOL     OW90946   4.284   3.920   0.345  0.5103  0.1827  0.1033
60723SOL    HW190947   4.305   3.828   0.328  1.0995  0.4873 -0.9609
60723SOL    HW290948   4.357   3.969   0.305 -0.2485  1.1417 -0.1526
60724SOL     OW90949   4.844   4.118   6.285  0.0665 -0.0573  0.1529
60724SOL    HW190950   4.934   4.148   6.281  0.2026 -0.2611  1.2297
60724SOL    HW290951   4.850   4.023   6.273 -0.1888  0.0996 -1.4693
60725SOL     OW90952   2.129   3.359   2.232  0.4264  0.0795 -0.2871
60725SOL    HW190953   2.107   3.269   2.209  3.8920 -0.8035 -0.6894
60725SOL    HW290954   2.177   3.351   2.315  1.7789  1.3938 -0.9029
60726SOL     OW90955   5.207   0.288   4.116  0.4265  0.1246 -0.1093
60726SOL    HW190956   5.198   0.338   4.197  0.4986 -1.6758  1.0552
60726SOL    HW290957   5.123   0.300   4.071 -0.2954 -0.2493  1.0863
60727SOL     OW90958  10.734   4.413   6.338  0.4342 -0.2329 -0.3821
60727SOL    HW190959  10.720   4.449   6.250  0.4097 -1.0832 -0.7393
60727SOL    HW290960  10.646   4.393   6.370  0.3606  1.0097  0.2638
60728SOL     OW90961   5.810  11.516  12.129  0.5078 -0.6877  0.0802
60728SOL    HW190962   5.778  11.565  12.205 -0.7309 -0.8161 -0.3407
60728SOL    HW290963   5.865  11.447  12.167  2.1143  0.8448  0.6908
60729SOL     OW90964  11.366   0.977   6.959 -0.4143 -0.0434  1.0032
60729SOL    HW190965  11.271   0.983   6.956 -0.4753 -1.0610  0.4630
60729SOL    HW290966  11.384   0.884   6.972  0.4829  0.3792  3.1976
60730SOL     OW90967   9.226   9.582   2.591 -0.1464 -0.0491 -0.1883
60730SOL    HW190968   9.166   9.643   2.548 -0.7968 -0.8686 -0.4766
60730SOL    HW290969   9.170   9.510   2.621  0.8830 -1.8275 -2.2041
60731SOL     OW90970   9.967  12.489   1.445 -0.4853 -0.5334 -0.1198
60731SOL    HW190971   9.974  12.404   1.401  2.1257  0.1077 -1.1433
60731SOL    HW290972  10.002  12.474   1.533  0.3118 -0.4736 -0.4172
60732SOL     OW90973  11.911   7.836  10.506 -0.1993 -0.6184 -0.0947
60732SOL    HW190974  11.848   7.777  10.467 -1.5847  0.9242 -0.2825
60732SOL    HW290975  11.985   7.837  10.445 -1.6855  0.5929 -2.0010
60733SOL     OW90976   6.997  10.360   4.699 -0.4618 -0.0878 -0.1977
60733SOL    HW190977   7.087  10.336   4.719 -0.1354  1.1959 -0.0095
60733SOL    HW290978   6.991  10.355   4.603  0.2433  1.1791 -0.3299
60734SOL     OW90979  10.765  11.555   3.467  0.0457 -0.4719  0.0349
60734SOL    HW190980  10.845  11.565   3.416 -0.8457  1.3547 -1.1340
60734SOL    HW290981  10.738  11.464   3.454  1.2784 -0.7706 -0.5374
60735SOL     OW90982   3.075   9.959   1.384  0.3418  0.0130 -0.1329
60735SOL    HW190983   3.093   9.991   1.295 -1.3101  0.4858 -0.3263
60735SOL    HW290984   3.032  10.032   1.428 -2.1433 -1.3686 -0.0956
60736SOL     OW90985   3.657   4.099   6.743 -1.1627  0.4553 -0.0857
60736SOL    HW190986   3.683   4.007   6.737  2.2727  1.1242  1.7060
60736SOL    HW290987   3.649   4.128   6.652 -0.7746 -1.2331 -0.6953
60737SOL     OW90988   2.888   6.915   2.366 -0.8015 -0.1280 -0.1312
60737SOL    HW190989   2.893   6.996   2.416 -1.4783 -0.2701  0.1707
60737SOL    HW290990   2.887   6.846   2.432 -0.1828 -0.3979 -0.3852
60738SOL     OW90991  10.787   5.616   8.563  0.4597 -0.3384 -0.4644
60738SOL    HW190992  10.763   5.623   8.470 -0.3066  1.2737 -0.1667
60738SOL    HW290993  10.741   5.538   8.594 -0.4061 -0.1030 -1.1147
60739SOL     OW90994  10.270   6.183   9.827  0.2907  0.2091  0.1405
60739SOL    HW190995  10.223   6.158   9.748 -0.4869  3.6815 -0.6745
60739SOL    HW290996  10.338   6.244   9.796  0.2621  1.3160  2.0592
60740SOL     OW90997  11.551   4.522   8.911  0.3990  0.2213  0.0660
60740SOL    HW190998  11.536   4.522   8.816  1.6103  0.8314 -0.1520
60740SOL    HW290999  11.499   4.596   8.943  1.2066  0.9879 -0.3573
60741SOL     OW91000   6.859   7.153   8.527 -0.4617  0.0187 -0.2393
60741SOL    HW191001   6.795   7.082   8.524 -1.9088  1.2505  0.2668
60741SOL    HW291002   6.913   7.133   8.603  0.1482 -1.3166 -0.9799
60742SOL     OW91003   5.256   4.127   9.361 -0.0938  0.6740 -0.1831
60742SOL    HW191004   5.310   4.145   9.284 -0.0505 -1.3566 -0.6849
60742SOL    HW291005   5.190   4.065   9.330 -0.4119  0.2377  1.2887
60743SOL     OW91006  12.531   5.696   8.379 -0.2671  0.2462  0.5477
60743SOL    HW191007  12.595   5.757   8.344 -0.1486 -0.5134 -0.6028
60743SOL    HW291008  12.583   5.628   8.423 -0.0192 -1.7534 -2.5352
60744SOL     OW91009   7.663  11.655  12.134  0.0805  0.1553  0.2450
60744SOL    HW191010   7.574  11.623  12.146 -0.0367  0.3676 -0.0312
60744SOL    HW291011   7.702  11.594  12.072 -0.4364  1.0374 -1.0103
60745SOL     OW91012   7.658   5.429   5.247  0.0612  0.1621  0.6191
60745SOL    HW191013   7.730   5.469   5.294  0.0895 -1.2739  1.8866
60745SOL    HW291014   7.698   5.358   5.197 -0.0986  1.1237 -0.9356
60746SOL     OW91015  10.007  10.346   0.946 -0.1896  0.2409 -0.3892
60746SOL    HW191016   9.975  10.386   1.027 -0.1405 -2.3065  0.9845
60746SOL    HW291017   9.927  10.320   0.899 -0.2438 -1.2538  0.4708
60747SOL     OW91018   3.691  10.969   4.810  0.2174 -0.1913  0.0167
60747SOL    HW191019   3.694  10.902   4.878  1.9614  0.8421  1.0315
60747SOL    HW291020   3.708  11.051   4.856  0.1980  0.7061 -1.4977
60748SOL     OW91021   1.610   6.833  10.682  0.5221 -0.7718 -0.1971
60748SOL    HW191022   1.646   6.921  10.671  1.0574 -0.9673 -0.0187
60748SOL    HW291023   1.676   6.786  10.732  0.2206 -1.2688 -0.2619
60749SOL     OW91024  10.595   5.649   9.206 -0.3462 -0.1368  0.4543
60749SOL    HW191025  10.633   5.623   9.122 -0.4267  0.1047  0.3416
60749SOL    HW291026  10.609   5.743   9.210 -1.8975  0.1477 -0.0882
60750SOL     OW91027   8.419   4.171  12.352 -0.2790 -0.2314 -0.3435
60750SOL    HW191028   8.397   4.264  12.346  1.1835  0.1839  0.1448
60750SOL    HW291029   8.378   4.142  12.434 -1.4219 -0.2451 -0.9013
60751SOL     OW91030  10.673   5.305   8.202  1.0917 -0.8141 -0.0063
60751SOL    HW191031  10.618   5.228   8.220  1.6611 -1.3542 -0.5099
60751SOL    HW291032  10.659   5.322   8.109  0.2371  0.2942  0.3048
60752SOL     OW91033   7.859   3.915   9.044  0.9002 -0.0715  0.9027
60752SOL    HW191034   7.831   4.005   9.063 -2.8656 -0.9612  0.4494
60752SOL    HW291035   7.856   3.871   9.129 -0.1555 -0.3688  0.7340
60753SOL     OW91036   4.736  12.120   1.711 -0.2052 -0.4735 -0.5113
60753SOL    HW191037   4.678  12.190   1.681 -0.4651 -0.6700 -0.4718
60753SOL    HW291038   4.732  12.054   1.642 -0.0203 -0.4855 -0.5127
60754SOL     OW91039   2.626   7.981   7.755 -0.0851  0.5161  0.7536
60754SOL    HW191040   2.561   8.021   7.813 -0.9955  1.2263 -0.7076
60754SOL    HW291041   2.610   8.021   7.670 -0.3760 -2.2026 -0.5805
60755SOL     OW91042   7.634  10.149   3.255 -0.3944 -0.3278 -0.0392
60755SOL    HW191043   7.639  10.066   3.302 -1.9699 -2.5754 -3.3943
60755SOL    HW291044   7.541  10.159   3.236 -0.5755  3.3887  1.9032
60756SOL     OW91045  10.871   5.605  11.532  0.2483 -0.1115 -0.5341
60756SOL    HW191046  10.925   5.585  11.609 -0.7119 -0.2167  0.1268
60756SOL    HW291047  10.792   5.552  11.543  0.4893 -0.8628 -2.0836
60757SOL     OW91048   3.716   9.746   1.928 -0.3543  0.2748  0.1130
60757SOL    HW191049   3.679   9.751   2.016  1.3769  1.2128  0.8397
60757SOL    HW291050   3.806   9.718   1.941  0.2569  1.4784 -1.2598
60758SOL     OW91051   5.106   5.201   5.433  0.4057 -0.5349 -1.2367
60758SOL    HW191052   5.107   5.229   5.341  1.7666 -0.0738 -1.1084
60758SOL    HW291053   5.062   5.272   5.479  1.6354  0.2764 -1.2617
60759SOL     OW91054   1.480   3.329   0.430  0.2358  0.1114 -0.1071
60759SOL    HW191055   1.415   3.363   0.368 -0.0689  0.7280  0.5462
60759SOL    HW291056   1.476   3.234   0.417  2.1760  0.2820 -3.0359
60760SOL     OW91057   7.686   0.194   3.845 -0.1336  0.0746  0.5150
60760SOL    HW191058   7.593   0.197   3.867 -0.5438 -0.3729 -1.0535
60760SOL    HW291059   7.715   0.285   3.852 -1.7740  1.0579 -3.1581
60761SOL     OW91060  10.022   3.834   8.662 -0.5058 -0.2774  0.6984
60761SOL    HW191061   9.993   3.913   8.616  1.3162  1.5805  2.5761
60761SOL    HW291062   9.948   3.811   8.719 -0.4823  1.0273  1.2845
60762SOL     OW91063   8.634   7.302   7.347 -0.0196 -0.3615  0.0714
60762SOL    HW191064   8.597   7.229   7.397 -0.1000  0.3002  1.0048
60762SOL    HW291065   8.642   7.268   7.257 -1.2758 -1.0796  0.2110
60763SOL     OW91066   0.461   6.122   1.396  0.0476 -0.0494 -0.6818
60763SOL    HW191067   0.442   6.149   1.486 -0.4506 -0.3405 -0.6963
60763SOL    HW291068   0.376   6.101   1.359 -0.0187  2.0312 -1.8731
60764SOL     OW91069   4.135   2.581  12.284  0.0475  0.0995 -0.1028
60764SOL    HW191070   4.196   2.654  12.288  0.9644 -0.6189 -0.5536
60764SOL    HW291071   4.186   2.505  12.311 -0.8632 -0.3930  0.2883
60765SOL     OW91072   8.182   3.905   0.622  0.0218 -0.4018 -0.3675
60765SOL    HW191073   8.252   3.893   0.558 -1.1182 -2.6773 -1.2813
60765SOL    HW291074   8.112   3.948   0.573 -0.6886 -1.7549 -0.5859
60766SOL     OW91075   2.588   7.559   8.873  0.2698 -0.0530  0.1577
60766SOL    HW191076   2.621   7.649   8.869 -1.5834  0.8085  2.1637
60766SOL    HW291077   2.496   7.566   8.849  0.6908 -1.9279 -2.3961
60767SOL     OW91078   2.254   3.471   1.998 -0.2727 -1.0672 -0.2757
60767SOL    HW191079   2.217   3.430   2.076  0.2190 -2.2056 -0.6229
60767SOL    HW291080   2.233   3.564   2.008 -1.6104 -1.4135  0.4227
60768SOL     OW91081   7.483   5.329   9.382 -0.0196 -0.0313 -0.2232
60768SOL    HW191082   7.544   5.285   9.442  0.8870  1.3364 -0.1013
60768SOL    HW291083   7.480   5.272   9.305 -1.1516 -1.7940  1.0227
60769SOL     OW91084   9.850  11.649   5.418 -0.1109 -0.3902 -0.0769
60769SOL    HW191085   9.875  11.663   5.327 -0.0835 -0.2996 -0.0553
60769SOL    HW291086   9.881  11.560   5.438 -2.1695 -1.3464 -0.8595
60770SOL     OW91087   0.921  11.163   6.704  0.1551  0.4348  0.2725
60770SOL    HW191088   0.932  11.240   6.761  0.3753  0.0609  0.7478
60770SOL    HW291089   0.878  11.197   6.626 -1.3064  0.7476  1.1779
60771SOL     OW91090   7.098   8.767   4.455  0.4693 -0.1802 -0.0783
60771SOL    HW191091   7.165   8.816   4.408 -0.2523  0.5258 -0.4015
60771SOL    HW291092   7.079   8.692   4.399  0.4026  0.0664 -0.3881
60772SOL     OW91093   2.674   7.742  10.340  0.3812 -0.7357 -0.5899
60772SOL    HW191094   2.636   7.691  10.268  0.6026 -1.2969 -0.3110
60772SOL    HW291095   2.765   7.755  10.315  0.5664 -1.2958 -0.2133
60773SOL     OW91096   9.613  10.908  12.591  0.1833 -0.0621 -0.2837
60773SOL    HW191097   9.692  10.920  12.539 -0.3245 -2.2929 -1.6906
60773SOL    HW291098   9.597  10.814  12.590 -3.1788  0.3851 -1.1311
60774SOL     OW91099   2.300   5.147   7.752  0.2608  0.5633 -0.2721
60774SOL    HW191100   2.227   5.104   7.707  2.1541 -0.9033 -2.1665
60774SOL    HW291101   2.262   5.181   7.833 -2.3853 -0.5727 -0.9341
60775SOL     OW91102   4.260   7.227  11.678 -0.3996 -0.2251 -0.0633
60775SOL    HW191103   4.257   7.314  11.720 -2.3967  0.1727 -0.8911
60775SOL    HW291104   4.202   7.173  11.733 -0.4846 -0.5718 -0.4923
60776SOL     OW91105   7.564  11.177   9.379 -0.3769 -0.2000  0.3114
60776SOL    HW191106   7.524  11.252   9.424 -0.2663  0.2804 -0.3771
60776SOL    HW291107   7.564  11.107   9.444 -1.7026 -0.0008  0.5427
60777SOL     OW91108   7.083   2.332   1.814 -0.2093 -0.4484 -0.1044
60777SOL    HW191109   7.150   2.368   1.756 -1.3349  1.5769 -0.2458
60777SOL    HW291110   7.100   2.373   1.899 -0.5851 -0.7711  0.1306
60778SOL     OW91111   2.328   3.039   1.709  0.5614  0.6473 -0.0290
60778SOL    HW191112   2.419   3.017   1.731  0.3202 -0.5015 -0.1369
60778SOL    HW291113   2.276   2.995   1.776 -0.0176 -0.3954 -1.1420
60779SOL     OW91114   5.742   5.908   6.040 -0.0647  0.3950 -0.2283
60779SOL    HW191115   5.679   5.922   6.111 -0.1433  1.7366 -0.5366
60779SOL    HW291116   5.689   5.876   5.967 -0.2601  0.6369 -0.1956
60780SOL     OW91117   8.334   1.347   0.508 -0.7226  0.1680 -0.1800
60780SOL    HW191118   8.329   1.434   0.548 -0.8496  1.0870 -2.1043
60780SOL    HW291119   8.244   1.329   0.480 -1.0076 -1.2724  1.5214
60781SOL     OW91120   7.232  12.593   0.255 -0.1685  0.6065  0.7311
60781SOL    HW191121   7.274  12.557   0.333  0.6416 -1.7319 -0.6921
60781SOL    HW291122   7.138  12.587   0.272 -0.0099  1.1298  1.9085
60782SOL     OW91123  10.580   0.591   1.813  0.2373 -0.0446  0.0614
60782SOL    HW191124  10.541   0.675   1.838 -0.1275  0.0056 -0.6566
60782SOL    HW291125  10.669   0.595   1.848  0.1012  0.4829  0.3644
60783SOL     OW91126  12.052  11.218  10.035 -0.2724  0.3968 -0.1097
60783SOL    HW191127  12.099  11.137  10.054 -1.5995 -0.3349  0.1860
60783SOL    HW291128  11.959  11.193  10.037 -0.7355  2.0296  0.5085
60784SOL     OW91129   5.062   6.489  10.717  0.4251 -0.0352  0.1459
60784SOL    HW191130   5.105   6.554  10.773  0.9320 -0.8017  0.6724
60784SOL    HW291131   5.127   6.419  10.709 -0.4691 -0.9082  0.3760
60785SOL     OW91132   6.022   7.911   1.971 -0.6170 -0.1276 -0.1045
60785SOL    HW191133   6.111   7.920   1.937 -0.9925  0.6958 -0.8819
60785SOL    HW291134   6.031   7.930   2.065  0.2751 -1.6093  0.1506
60786SOL     OW91135   5.000  10.432   6.013 -0.2077 -0.2416 -0.2307
60786SOL    HW191136   4.943  10.356   6.020 -1.6598  0.9319  1.2505
60786SOL    HW291137   5.007  10.466   6.102 -0.2042  1.7938 -0.9557
60787SOL     OW91138   8.967  11.945   3.230 -0.2088 -0.1140 -0.4472
60787SOL    HW191139   8.930  11.998   3.301  0.4759 -0.9474  0.5482
60787SOL    HW291140   8.911  11.966   3.154 -1.7185 -0.1277  0.6137
60788SOL     OW91141   1.176   2.236   7.649 -0.1274  0.4314  0.3251
60788SOL    HW191142   1.130   2.308   7.606 -2.2010 -0.2435  1.3153
60788SOL    HW291143   1.129   2.223   7.731  0.8250 -1.3967  0.6298
60789SOL     OW91144   4.406   0.354   5.845 -0.1324 -0.9852 -0.0563
60789SOL    HW191145   4.462   0.352   5.923 -0.3501 -0.3089  0.1267
60789SOL    HW291146   4.464   0.386   5.775 -0.3131 -0.1265  0.1690
60790SOL     OW91147   3.026   2.403  10.792 -0.0654 -0.5929 -0.1679
60790SOL    HW191148   3.000   2.473  10.850 -0.0562  0.3680 -1.2792
60790SOL    HW291149   3.017   2.323  10.844 -0.0975  0.2183  1.1097
60791SOL     OW91150   3.859  11.073   4.448  0.3145 -0.2180 -0.0016
60791SOL    HW191151   3.818  10.997   4.407 -1.2347 -0.3360  1.6417
60791SOL    HW291152   3.826  11.148   4.400  0.3057 -0.4774 -0.3988
60792SOL     OW91153   2.063   6.404   6.598 -0.4108  0.0189  0.1143
60792SOL    HW191154   2.046   6.466   6.528 -2.0156  0.1255  0.5543
60792SOL    HW291155   2.004   6.330   6.581  0.0754 -0.5136  0.6607
60793SOL     OW91156   1.582   9.224   5.880 -0.3399  0.5971  0.5848
60793SOL    HW191157   1.507   9.265   5.923 -0.6040 -0.2896  0.9967
60793SOL    HW291158   1.653   9.232   5.943 -0.6756 -0.5277  1.1167
60794SOL     OW91159  12.390   9.849   3.749 -0.2891 -0.3767 -0.3355
60794SOL    HW191160  12.377   9.754   3.752 -0.5169 -0.5002 -3.1661
60794SOL    HW291161  12.413   9.868   3.658 -1.9148  2.5031 -0.2751
60795SOL     OW91162   5.725   3.934   5.941 -0.6007 -0.4629  0.0591
60795SOL    HW191163   5.646   3.986   5.956 -1.4247 -1.9837  1.3149
60795SOL    HW291164   5.693   3.844   5.931  0.6558 -0.7171 -3.0777
60796SOL     OW91165   4.601   6.558   9.269  0.3788 -0.8620 -0.3472
60796SOL    HW191166   4.510   6.571   9.294  0.2719 -2.1238 -0.0259
60796SOL    HW291167   4.624   6.472   9.304  1.5143 -0.8275 -0.9477
60797SOL     OW91168  12.472   3.695   7.953  0.2205  0.5968  0.3655
60797SOL    HW191169  12.476   3.686   8.048  1.5134 -0.4439  0.2427
60797SOL    HW291170  12.406   3.762   7.938 -1.6840 -0.8315  1.8959
60798SOL     OW91171   6.222   7.286   0.254  0.0726  0.3970  0.0244
60798SOL    HW191172   6.130   7.292   0.229  0.6721  0.6272 -2.3989
60798SOL    HW291173   6.270   7.325   0.180  2.0913  0.9829  1.5470
60799SOL     OW91174   0.972  10.461   4.491  0.5388 -0.4318 -0.5947
60799SOL    HW191175   0.893  10.495   4.450  0.1781 -0.9029 -0.2916
60799SOL    HW291176   1.031  10.536   4.494 -0.1754  0.1227 -0.1233
60800SOL     OW91177   1.036  11.334   5.636  0.2372  0.5711  0.0489
60800SOL    HW191178   1.047  11.420   5.675  1.0734 -0.6361  2.7457
60800SOL    HW291179   1.124  11.296   5.637  0.1366  0.1083 -2.3440
60801SOL     OW91180  10.588   6.951   8.273 -0.6569  0.0468 -0.5336
60801SOL    HW191181  10.643   6.923   8.346 -1.1940 -0.1763 -0.2012
60801SOL    HW291182  10.648   6.961   8.200  0.3493  2.8521  0.5525
60802SOL     OW91183   8.810   7.096   3.223  0.5876 -0.5917 -0.4692
60802SOL    HW191184   8.842   7.016   3.264 -0.4753 -1.3050 -0.9640
60802SOL    HW291185   8.815   7.162   3.292 -1.3409 -1.8032  0.9465
60803SOL     OW91186   9.536   4.240   4.240  0.3426 -0.0730 -0.3460
60803SOL    HW191187   9.489   4.160   4.220  0.6687 -0.4880  0.5011
60803SOL    HW291188   9.623   4.211   4.267  0.1917  0.4926  0.8130
60804SOL     OW91189   5.523   9.135   3.915 -0.2398  0.0729 -0.4017
60804SOL    HW191190   5.579   9.163   3.987  0.5888 -0.1210 -0.9606
60804SOL    HW291191   5.558   9.180   3.838  0.2830 -1.3987 -1.0808
60805SOL     OW91192   8.032   5.616   8.858 -0.0646  0.2581  0.0582
60805SOL    HW191193   8.054   5.526   8.832  1.6598  1.2381 -2.2964
60805SOL    HW291194   7.959   5.640   8.801 -1.9937 -0.2622  2.1720
60806SOL     OW91195   7.740   7.648   0.547  0.1121  0.1128 -0.3660
60806SOL    HW191196   7.770   7.583   0.610 -0.5783 -1.4392 -1.5716
60806SOL    HW291197   7.648   7.626   0.531 -0.4287  2.0240 -0.0700
60807SOL     OW91198   4.462   5.993   5.864  0.4736 -0.0088 -0.0393
60807SOL    HW191199   4.429   5.904   5.873  2.3000 -0.4894  3.1430
60807SOL    HW291200   4.557   5.985   5.871  0.7125  2.1770  0.0102
60808SOL     OW91201   0.789   4.287  11.862 -0.1547  0.4031 -0.1135
60808SOL    HW191202   0.875   4.259  11.892  0.1627 -0.2326 -1.5332
60808SOL    HW291203   0.767   4.226  11.792 -1.6532  0.7098  0.0572
60809SOL     OW91204  12.119   7.907   1.776  0.3649 -0.2570  1.1315
60809SOL    HW191205  12.076   7.893   1.861  0.0516  0.3258  1.0770
60809SOL    HW291206  12.166   7.990   1.787 -0.2194  0.1616  0.5273
60810SOL     OW91207   1.522   4.336   7.411  0.1358  0.2477  0.0135
60810SOL    HW191208   1.531   4.271   7.481 -0.5784  0.1810  0.0488
60810SOL    HW291209   1.532   4.286   7.330  0.7295  0.2888  0.0515
60811SOL     OW91210  11.885   2.197   7.301  0.1042  0.0570  0.3154
60811SOL    HW191211  11.825   2.160   7.235  0.1586 -1.1295  0.8964
60811SOL    HW291212  11.961   2.226   7.251  0.6972 -1.9755 -0.0753
60812SOL     OW91213   5.381   7.908  11.746 -1.0299 -0.2177 -0.2532
60812SOL    HW191214   5.370   7.816  11.723 -2.0220 -0.8697  2.4576
60812SOL    HW291215   5.293   7.939  11.767 -0.6651  1.2666 -0.7727
60813SOL     OW91216   8.054   5.138  11.196  0.1467  0.0045  0.1898
60813SOL    HW191217   7.964   5.109  11.183  0.7299 -1.6560 -0.3748
60813SOL    HW291218   8.063   5.145  11.291 -0.2646 -0.9422  0.3154
60814SOL     OW91219  10.666   8.601   5.177  0.4010 -0.3198 -0.2945
60814SOL    HW191220  10.702   8.606   5.089  1.1028 -1.8401 -0.1345
60814SOL    HW291221  10.588   8.546   5.168 -1.0546  1.6683 -0.3710
60815SOL     OW91222   2.740   7.136   1.813  0.6879  0.4013 -0.2221
60815SOL    HW191223   2.778   7.116   1.728 -1.2711  1.1136 -1.3205
60815SOL    HW291224   2.720   7.051   1.851  0.7608  0.0916 -0.8638
60816SOL     OW91225   0.368   6.092  12.319  0.3380 -0.4634  0.1266
60816SOL    HW191226   0.365   6.092  12.223 -0.7068 -0.7866  0.1410
60816SOL    HW291227   0.453   6.128  12.341  0.4293 -0.0144 -0.9261
60817SOL     OW91228   7.819   1.803  10.491  0.4162  0.4668 -0.1952
60817SOL    HW191229   7.724   1.800  10.507  0.1197 -0.7486 -1.8695
60817SOL    HW291230   7.845   1.892  10.515 -0.7475  0.2506  2.1913
60818SOL     OW91231  12.311   4.131   4.558 -0.0551 -0.4660 -0.5986
60818SOL    HW191232  12.300   4.151   4.465  0.9681  0.8512 -0.4662
60818SOL    HW291233  12.300   4.215   4.602  0.1849 -0.9422  0.4037
60819SOL     OW91234  11.969  11.524   1.785  0.4409 -0.0499  0.3692
60819SOL    HW191235  12.045  11.522   1.726 -0.0564  0.7846 -0.3169
60819SOL    HW291236  11.959  11.616   1.810 -0.3024 -0.1572  0.5019
60820SOL     OW91237   4.159   0.439   1.854  0.5053  0.8599 -0.3657
60820SOL    HW191238   4.201   0.355   1.837  0.1084  0.5164  0.3287
60820SOL    HW291239   4.067   0.418   1.869  0.3989  1.4152 -0.1964
60821SOL     OW91240   9.486   3.235   8.038 -0.5895  0.1043  0.0512
60821SOL    HW191241   9.415   3.293   8.008 -0.2080  0.8806  0.6072
60821SOL    HW291242   9.551   3.295   8.074  1.4713 -0.3413 -2.6095
60822SOL     OW91243  11.948  10.191  12.291  0.3231  0.4965  0.5222
60822SOL    HW191244  12.027  10.240  12.268 -0.4661  2.1971  1.2469
60822SOL    HW291245  11.883  10.219  12.226  0.4086 -1.2811 -0.3851
60823SOL     OW91246   6.523   1.598   5.449  0.3413 -0.1372  0.2341
60823SOL    HW191247   6.508   1.555   5.533 -0.9744 -0.6777 -0.2543
60823SOL    HW291248   6.502   1.532   5.383  1.0947  0.3597 -0.5322
60824SOL     OW91249   5.257  11.771   5.640  0.5582  0.4376  0.6610
60824SOL    HW191250   5.279  11.725   5.721  1.6059  0.0446  0.1761
60824SOL    HW291251   5.188  11.717   5.600  1.5941 -0.6396  0.2250
60825SOL     OW91252  11.914   9.291   3.969  0.0509 -0.0104  0.0117
60825SOL    HW191253  11.963   9.369   3.996  1.5485 -1.9100  3.4462
60825SOL    HW291254  11.970   9.218   3.994 -2.5925 -2.2711 -0.2083
60826SOL     OW91255   5.482   7.747   2.213 -0.3613 -0.8275 -0.4114
60826SOL    HW191256   5.559   7.763   2.267  0.2628 -0.5498 -1.3574
60826SOL    HW291257   5.491   7.808   2.140 -2.4864  0.5934  0.4285
60827SOL     OW91258   1.237   7.947   8.163 -0.4748  0.3694 -0.6224
60827SOL    HW191259   1.310   7.918   8.107  1.2940 -0.8076  2.0856
60827SOL    HW291260   1.270   8.026   8.206 -1.4625  0.7675 -0.5728
60828SOL     OW91261   6.393   4.018   8.321  0.0119 -0.1074  0.4555
60828SOL    HW191262   6.312   4.063   8.342 -0.1166  0.0479 -0.3215
60828SOL    HW291263   6.462   4.076   8.351 -0.0590  2.0252 -2.9060
60829SOL     OW91264   0.000  11.771   8.377 -1.1244  0.4254 -0.0797
60829SOL    HW191265   0.002  11.703   8.310  1.3600 -2.1500  2.3000
60829SOL    HW291266  -0.081  11.755   8.426 -0.9969 -0.2775 -0.0906
60830SOL     OW91267   4.769   0.489   8.196 -0.4029  0.0002  0.9870
60830SOL    HW191268   4.725   0.537   8.126  1.0488 -0.3732 -0.2434
60830SOL    HW291269   4.776   0.552   8.267 -0.6314  0.8625  0.2678
60831SOL     OW91270   0.796   4.390  10.955 -0.3547  0.3179  0.4680
60831SOL    HW191271   0.817   4.422  10.867  0.5752 -0.1316  0.5231
60831SOL    HW291272   0.703   4.412  10.966  0.1211  2.6072  0.3379
60832SOL     OW91273   0.056   4.348   4.876  0.4644 -0.0599 -0.5458
60832SOL    HW191274   0.151   4.357   4.883  0.2911  0.8484  1.4442
60832SOL    HW291275   0.030   4.411   4.810  1.1500  0.4638 -0.3240
60833SOL     OW91276  12.111   9.453  12.132  0.0233  0.6021 -0.0323
60833SOL    HW191277  12.204   9.473  12.134  0.1607  0.1052 -0.9719
60833SOL    HW291278  12.076   9.506  12.061 -0.2985  0.3279 -0.0820
60834SOL     OW91279   3.303   1.829   5.982 -0.0245  0.3578  0.4794
60834SOL    HW191280   3.396   1.849   5.991  0.4374 -1.1099 -0.6228
60834SOL    HW291281   3.291   1.748   6.032 -0.3540 -0.3136 -0.6518
60835SOL     OW91282   4.725  11.863   0.790 -0.0092  0.2577 -0.5839
60835SOL    HW191283   4.682  11.937   0.749  1.0688  1.0214 -0.3718
60835SOL    HW291284   4.745  11.803   0.718  0.0697  0.6608 -0.8950
60836SOL     OW91285   7.046   0.948   3.616  0.0243  0.2228 -0.5376
60836SOL    HW191286   7.081   1.013   3.555  0.5133 -0.1940 -0.7168
60836SOL    HW291287   7.024   0.997   3.695 -0.5849  0.7658 -1.0338
60837SOL     OW91288   5.023   3.251   9.810  0.0122 -0.2681  0.8247
60837SOL    HW191289   5.007   3.169   9.763 -0.1003  0.7752 -1.0681
60837SOL    HW291290   4.997   3.319   9.749 -0.7023  1.1958  2.6637
60838SOL     OW91291   3.221   8.106  11.158  0.0645  0.5229  0.2059
60838SOL    HW191292   3.313   8.130  11.155  0.9560 -2.5044 -0.0387
60838SOL    HW291293   3.203   8.068  11.072 -1.2017  0.3584  0.5155
60839SOL     OW91294   2.048   6.226   9.683 -0.3309  0.4681  0.4209
60839SOL    HW191295   2.066   6.280   9.760 -0.4506 -0.0793  0.8336
60839SOL    HW291296   2.097   6.269   9.613 -0.5273  1.1848  0.7166
60840SOL     OW91297   0.978   1.882   2.272 -0.4048  0.0004 -0.0215
60840SOL    HW191298   0.887   1.864   2.247 -1.0386  0.9763  1.4370
60840SOL    HW291299   1.003   1.957   2.218  0.0371 -1.1229 -1.4289
60841SOL     OW91300   6.518   1.731   7.325 -0.0999 -0.0026  0.2583
60841SOL    HW191301   6.487   1.723   7.415 -0.2822 -0.0968  0.1894
60841SOL    HW291302   6.555   1.645   7.305  0.2707  0.1329  0.3635
60842SOL     OW91303   5.816   0.571  12.435 -0.4963  0.1880 -0.0222
60842SOL    HW191304   5.894   0.601  12.482 -2.1578  0.1588  2.9847
60842SOL    HW291305   5.757   0.540  12.504 -2.1051 -2.4169 -2.3636
60843SOL     OW91306   6.856   5.440   3.024  0.3777 -0.6421  0.2244
60843SOL    HW191307   6.834   5.532   3.010  0.5196 -0.7374 -0.6512
60843SOL    HW291308   6.952   5.437   3.021  0.3544 -0.9394 -0.6216
60844SOL     OW91309   2.796   5.482  11.235 -0.1336  0.2983  0.5025
60844SOL    HW191310   2.765   5.567  11.264  0.9672  0.9131 -0.0390
60844SOL    HW291311   2.809   5.493  11.140  1.9688  0.2089  0.7233
60845SOL     OW91312  10.031   7.465   1.465  0.0697 -0.1960 -1.0527
60845SOL    HW191313   9.998   7.376   1.451  1.9144 -0.9527 -0.8973
60845SOL    HW291314  10.007   7.512   1.385  0.2930 -1.2221 -1.7515
60846SOL     OW91315   5.931  11.950   1.383  0.1591  0.5038 -0.2937
60846SOL    HW191316   5.991  11.931   1.455 -1.2869 -0.0846  0.8031
60846SOL    HW291317   5.845  11.920   1.414 -0.3000 -1.0526 -2.7866
60847SOL     OW91318  10.233   7.031   2.974  0.6034  0.3636 -0.0448
60847SOL    HW191319  10.212   7.043   2.881  0.3330 -1.0159 -0.1795
60847SOL    HW291320  10.250   6.938   2.983  0.0305  0.3730  1.4102
60848SOL     OW91321  12.024   3.529  10.400  0.1709 -0.0584  0.8118
60848SOL    HW191322  11.954   3.593  10.411 -0.0468  0.0420 -0.8350
60848SOL    HW291323  12.100   3.580  10.372  0.3279 -0.3753  0.6466
60849SOL     OW91324   4.973   5.696   9.729  0.1989  0.1216 -0.5440
60849SOL    HW191325   4.890   5.666   9.693 -0.0572  2.0131 -1.6062
60849SOL    HW291326   4.953   5.776   9.777  1.0248 -0.7693  1.4562
60850SOL     OW91327   7.759  12.076  10.800  0.3499  0.1631  0.2064
60850SOL    HW191328   7.854  12.085  10.796  0.4881 -1.2434 -0.4760
60850SOL    HW291329   7.734  12.120  10.881  1.7439 -0.4871  1.0368
60851SOL     OW91330  11.591   6.041   4.546 -0.0075 -0.0650  0.7703
60851SOL    HW191331  11.525   6.034   4.615 -0.1255 -0.4087  0.6274
60851SOL    HW291332  11.546   6.086   4.474  0.5309  1.5760  1.4162
60852SOL     OW91333   8.547  11.258   2.356  0.1063  0.0463 -0.0553
60852SOL    HW191334   8.556  11.353   2.346 -0.2080 -0.0215 -1.0961
60852SOL    HW291335   8.550  11.224   2.266  1.6855 -1.0719  0.3737
60853SOL     OW91336   7.187   2.437   1.166 -0.3704 -0.3276 -0.3133
60853SOL    HW191337   7.194   2.532   1.151  0.7807 -0.4272 -0.4895
60853SOL    HW291338   7.259   2.400   1.116  1.1259 -1.0222  2.1811
60854SOL     OW91339   4.494   9.171   8.194 -0.5985  0.5142  0.3658
60854SOL    HW191340   4.436   9.107   8.154 -2.0410  1.5672  0.7100
60854SOL    HW291341   4.576   9.123   8.209 -1.2563 -0.9081 -0.4207
60855SOL     OW91342   8.080   6.572   8.740 -0.0300 -0.4574 -0.2690
60855SOL    HW191343   8.003   6.602   8.788 -0.8844 -1.5102 -0.9636
60855SOL    HW291344   8.076   6.477   8.744 -0.2966 -0.6032 -2.6548
60856SOL     OW91345   4.240  10.259  12.028 -0.0261 -0.2917 -0.0418
60856SOL    HW191346   4.248  10.302  12.113  0.2970  0.4674 -0.4536
60856SOL    HW291347   4.146  10.262  12.008 -0.3002 -1.6516  0.8803
60857SOL     OW91348   3.703  12.594   3.763 -0.0330 -0.2147  0.2034
60857SOL    HW191349   3.624  12.628   3.805  1.0623  1.1369  1.2840
60857SOL    HW291350   3.676  12.571   3.675 -1.6617  0.0591  0.6061
60858SOL     OW91351   5.356   6.096  10.801  0.1581 -0.1995 -0.1779
60858SOL    HW191352   5.391   6.029  10.743 -2.0946 -0.8243 -0.9377
60858SOL    HW291353   5.278   6.055  10.839 -0.8836  1.7450 -0.1156
60859SOL     OW91354   2.772   0.351   2.171  0.2581 -0.0617  0.7799
60859SOL    HW191355   2.684   0.315   2.175 -0.5422  1.7566  0.1127
60859SOL    HW291356   2.797   0.343   2.078  0.6805 -0.2494  0.9029
60860SOL     OW91357  11.945   3.121   6.135 -0.1327 -0.2837  0.3232
60860SOL    HW191358  12.026   3.088   6.173 -0.6800 -1.0839  0.8328
60860SOL    HW291359  11.937   3.076   6.051 -1.1208 -1.8870  1.2274
60861SOL     OW91360   0.237  12.243   5.750 -0.2499  0.1062 -0.0884
60861SOL    HW191361   0.252  12.311   5.685 -0.0078 -0.3667 -0.5374
60861SOL    HW291362   0.319  12.238   5.800  0.1065 -0.5478 -0.7188
60862SOL     OW91363   0.488   4.855   6.959  0.4282  0.1110  0.4073
60862SOL    HW191364   0.457   4.936   7.000 -0.6236  0.5916 -1.2465
60862SOL    HW291365   0.421   4.790   6.981  1.6029 -0.5417  2.2970
60863SOL     OW91366  10.874   8.559  12.400 -0.0218 -0.2322 -0.0922
60863SOL    HW191367  10.935   8.630  12.378  1.0259 -1.0591  0.0387
60863SOL    HW291368  10.867   8.508  12.319 -0.4086 -0.2424 -0.0533
60864SOL     OW91369   1.119   3.649   3.980 -0.3569 -0.3054 -0.0351
60864SOL    HW191370   1.101   3.742   3.975  0.4606 -0.0744  0.9886
60864SOL    HW291371   1.063   3.617   4.051  1.6527  0.0410  1.7953
60865SOL     OW91372   6.854   8.324   5.482  0.1741  0.4367 -0.5646
60865SOL    HW191373   6.804   8.270   5.421  1.6322 -2.7047  0.7487
60865SOL    HW291374   6.903   8.260   5.535  1.8781  3.1133  1.3474
60866SOL     OW91375   5.164   5.445   1.216 -0.5590  0.1713 -0.0661
60866SOL    HW191376   5.189   5.496   1.293  0.5193 -1.0071  0.3737
60866SOL    HW291377   5.151   5.356   1.248  0.2096 -0.4063 -1.2978
60867SOL     OW91378   1.366   2.347   0.777 -0.1157  0.2171 -0.8465
60867SOL    HW191379   1.435   2.401   0.738  1.0000 -0.8439 -0.3825
60867SOL    HW291380   1.300   2.339   0.707  0.6663  0.4608 -1.6370
60868SOL     OW91381  11.941   9.207  11.339  0.1139 -0.0873  0.1179
60868SOL    HW191382  11.980   9.240  11.420 -1.0174 -1.2589  1.1900
60868SOL    HW291383  11.997   9.242  11.270  0.7578  1.4576  1.3504
60869SOL     OW91384  10.593   1.122   2.095  0.6926  0.5079 -0.3139
60869SOL    HW191385  10.599   1.205   2.046 -0.5100  0.7037 -0.1556
60869SOL    HW291386  10.560   1.059   2.030  1.3932  0.1953 -0.3747
60870SOL     OW91387   3.301  10.878   1.324  0.1802 -1.1133 -0.0302
60870SOL    HW191388   3.211  10.910   1.330  0.4601 -0.1788 -0.5537
60870SOL    HW291389   3.294  10.783   1.332 -0.6428 -0.9304  1.9889
60871SOL     OW91390   0.970   4.493   4.511  0.0250 -0.1160  0.0134
60871SOL    HW191391   0.970   4.404   4.546 -0.7281 -0.3379 -0.5337
60871SOL    HW291392   1.023   4.543   4.574 -1.1324 -0.5456  1.3877
60872SOL     OW91393  10.337   1.148   6.032  0.4437  0.2210 -0.0778
60872SOL    HW191394  10.268   1.084   6.015  1.6842 -0.6207 -2.3302
60872SOL    HW291395  10.310   1.226   5.985  0.8653 -0.0156 -0.7247
60873SOL     OW91396   6.786  10.339   7.761 -0.0361  0.0890  0.2278
60873SOL    HW191397   6.797  10.251   7.726 -0.7888 -0.0259  0.2823
60873SOL    HW291398   6.836  10.339   7.843 -1.5346 -0.8566  1.1699
60874SOL     OW91399  12.541   9.284   5.733  0.7303 -0.5003  0.0621
60874SOL    HW191400  12.623   9.295   5.782  0.2942 -1.2454  1.0111
60874SOL    HW291401  12.499   9.209   5.775 -0.4518 -0.1132 -0.3940
60875SOL     OW91402   2.306   6.361   5.039 -0.5380  0.3788 -0.1111
60875SOL    HW191403   2.296   6.347   5.133 -2.5490  0.5630 -0.2388
60875SOL    HW291404   2.327   6.454   5.030  0.8860  0.1017  0.1912
60876SOL     OW91405   1.310   4.544   7.148  0.0929  0.0047  0.2497
60876SOL    HW191406   1.260   4.571   7.071  2.3964 -0.7181 -1.6293
60876SOL    HW291407   1.324   4.450   7.136  1.3630  0.0745  0.9714
60877SOL     OW91408   4.416  10.830   1.738  0.5201 -0.2058 -0.3731
60877SOL    HW191409   4.347  10.828   1.804 -0.6822 -3.0207 -1.5627
60877SOL    HW291410   4.497  10.840   1.788 -0.5009 -0.0026  1.3155
60878SOL     OW91411   6.314   8.601   9.402 -0.3292  0.0914 -0.3556
60878SOL    HW191412   6.341   8.612   9.311  1.6065  0.6490  0.2477
60878SOL    HW291413   6.296   8.689   9.433 -0.7293 -0.0707 -0.1210
60879SOL     OW91414   9.341   3.508   1.040 -0.0402  0.3692 -0.1193
60879SOL    HW191415   9.277   3.537   1.105  0.7606  1.0686  0.3754
60879SOL    HW291416   9.294   3.442   0.989 -0.6776 -0.2409  1.1862
60880SOL     OW91417   0.815  11.584   5.483 -0.3559  0.2622 -0.5491
60880SOL    HW191418   0.837  11.644   5.411  0.4362  3.8455  2.3365
60880SOL    HW291419   0.723  11.561   5.468  0.0265  0.0985 -3.1118
60881SOL     OW91420   2.151  12.523   0.242  0.2333  0.6758 -0.2491
60881SOL    HW191421   2.151  12.608   0.286 -0.3085  1.3642 -1.5103
60881SOL    HW291422   2.226  12.477   0.278 -0.5999  0.9041  1.8989
60882SOL     OW91423   4.993   2.837   0.101 -0.0445 -0.4613 -0.0485
60882SOL    HW191424   5.065   2.781   0.070 -0.6052 -0.7976 -0.7710
60882SOL    HW291425   4.926   2.829   0.033 -0.9820 -0.5570  0.8713
60883SOL     OW91426   9.518   4.838  10.302  1.0645 -0.0500  0.6698
60883SOL    HW191427   9.477   4.909  10.351  0.1963  0.4823 -0.7549
60883SOL    HW291428   9.610   4.840  10.329  1.6196  3.1472 -0.9489
60884SOL     OW91429   6.059   9.039   4.080 -0.7283 -0.1675 -0.5616
60884SOL    HW191430   6.108   9.088   4.014 -1.9046  0.8888 -0.6799
60884SOL    HW291431   6.065   8.948   4.052 -0.8255  0.2083 -1.8733
60885SOL     OW91432   6.582   9.449   2.534  0.1970 -0.1613 -0.2338
60885SOL    HW191433   6.600   9.438   2.627  0.6844 -0.9103 -0.4059
60885SOL    HW291434   6.600   9.363   2.496 -2.3002 -0.5738 -0.6635
60886SOL     OW91435   5.298  10.095   8.712 -0.5591 -0.6857 -0.0656
60886SOL    HW191436   5.262  10.143   8.787 -1.7112 -0.9587 -0.4222
60886SOL    HW291437   5.282  10.003   8.732 -0.6390 -0.7754 -0.5257
60887SOL     OW91438   7.933   1.123   0.266 -0.1122 -0.0260  0.0157
60887SOL    HW191439   7.852   1.139   0.315 -0.8863 -0.6705 -1.0133
60887SOL    HW291440   7.988   1.074   0.327 -1.4113 -1.6319 -0.0312
60888SOL     OW91441   4.138   7.370   5.986  0.4061 -0.1204  0.7333
60888SOL    HW191442   4.211   7.323   6.026  0.9892  1.6883  1.8898
60888SOL    HW291443   4.168   7.461   5.979 -2.5846  1.3013  3.6875
60889SOL     OW91444  12.339   7.015   4.181  0.7462 -0.0777  0.7233
60889SOL    HW191445  12.314   6.971   4.263  1.1636 -0.5644  0.5968
60889SOL    HW291446  12.421   6.972   4.155 -0.1023 -0.9346 -0.6957
60890SOL     OW91447  11.331   2.050  11.859  0.4430  0.4989  0.0033
60890SOL    HW191448  11.298   2.091  11.939  0.4139  1.0110 -0.2694
60890SOL    HW291449  11.376   1.971  11.890  0.7995  0.9128  0.5553
60891SOL     OW91450   1.275   3.301   4.043 -0.0818 -0.4805 -0.4342
60891SOL    HW191451   1.314   3.217   4.068 -0.7484 -1.0514 -1.2811
60891SOL    HW291452   1.325   3.330   3.967 -1.6613 -1.5406 -1.9447
60892SOL     OW91453   5.426  11.115   9.236  0.3243 -0.2572  0.5109
60892SOL    HW191454   5.451  11.023   9.243  0.5689 -0.1140  1.7948
60892SOL    HW291455   5.368  11.119   9.160  0.1277 -1.5072  0.5839
60893SOL     OW91456  11.730   7.743  10.319  0.1661  0.0095  0.1432
60893SOL    HW191457  11.701   7.661  10.279  0.9992 -0.4726  0.5117
60893SOL    HW291458  11.714   7.809  10.252 -0.3556 -0.4770 -0.2227
60894SOL     OW91459  11.418   2.110  10.302  0.1139 -0.0550 -0.0497
60894SOL    HW191460  11.387   2.134  10.215 -0.8413 -0.6007  0.1223
60894SOL    HW291461  11.340   2.077  10.347  0.6271  0.0526  0.9547
60895SOL     OW91462   8.268   6.778  10.503  0.0315 -0.5900  0.1685
60895SOL    HW191463   8.193   6.804  10.556  0.3959 -0.7980  0.8017
60895SOL    HW291464   8.235   6.777  10.413 -1.1079 -1.9874  0.5645
60896SOL     OW91465   6.363  11.807  10.413 -0.4076  0.0553 -0.3585
60896SOL    HW191466   6.322  11.736  10.463 -0.0160  0.2266  0.2263
60896SOL    HW291467   6.436  11.767  10.368  0.5244  0.2953  0.8976
60897SOL     OW91468   4.036   4.224   2.280  0.6256 -0.2767 -0.0836
60897SOL    HW191469   4.054   4.193   2.191 -0.5699 -2.5225  0.3792
60897SOL    HW291470   4.052   4.148   2.336  0.2772  0.7652  1.5020
60898SOL     OW91471   3.395   6.604   5.994  0.3266 -0.6695  0.8089
60898SOL    HW191472   3.379   6.514   5.966  0.5978 -0.7583  0.9306
60898SOL    HW291473   3.489   6.606   6.015  0.1498 -0.5737  1.6060
60899SOL     OW91474   2.547   2.056   8.247 -0.2439 -0.0004 -0.1168
60899SOL    HW191475   2.639   2.067   8.225 -0.4358  1.6333 -0.2127
60899SOL    HW291476   2.521   1.976   8.202  1.0976 -0.4356 -0.1555
60900SOL     OW91477   0.528   5.288   9.107 -0.0553 -0.1947  0.2272
60900SOL    HW191478   0.452   5.232   9.092 -0.8943  0.8733  0.4104
60900SOL    HW291479   0.492   5.371   9.138  1.0670  1.0069 -1.5195
60901SOL     OW91480   3.127   0.471  11.010 -0.0499  0.9389 -0.0019
60901SOL    HW191481   3.036   0.479  11.039 -1.0924  0.5319 -2.8601
60901SOL    HW291482   3.157   0.562  11.000 -0.5566  1.0901 -0.1868
60902SOL     OW91483   3.959  10.681   4.907  0.0559  0.7810 -0.2314
60902SOL    HW191484   3.866  10.672   4.928  0.5229 -1.4160  1.2955
60902SOL    HW291485   3.975  10.775   4.908 -1.7248  1.1450  1.5580
60903SOL     OW91486  12.117   2.625   3.206  0.1637 -0.0901 -0.3719
60903SOL    HW191487  12.102   2.679   3.284 -0.3946 -1.1792  0.2956
60903SOL    HW291488  12.064   2.667   3.138 -1.0267 -0.3260  0.3787
60904SOL     OW91489   7.191   0.446   9.435 -0.2740 -0.4665 -0.7222
60904SOL    HW191490   7.256   0.486   9.377 -0.3804  0.6694 -0.0731
60904SOL    HW291491   7.115   0.503   9.431 -0.6134 -0.8601 -0.1587
60905SOL     OW91492   9.587   1.122   5.907 -0.1662 -0.1242 -0.1668
60905SOL    HW191493   9.499   1.084   5.898 -1.0899  0.9910  2.9685
60905SOL    HW291494   9.571   1.216   5.916  1.5968  0.3834 -1.6825
60906SOL     OW91495   5.713   4.177   7.162  0.0752 -0.0328 -0.3505
60906SOL    HW191496   5.705   4.120   7.239 -1.3046 -0.7800 -1.0125
60906SOL    HW291497   5.808   4.183   7.147  0.2869 -1.9314 -0.0693
60907SOL     OW91498   6.167  11.109   2.241  0.0126  0.5184  0.2331
60907SOL    HW191499   6.135  11.068   2.161 -2.3568 -1.6886  2.1140
60907SOL    HW291500   6.164  11.203   2.223 -2.0874  0.1558 -1.7408
60908SOL     OW91501   7.748   5.801  11.511 -0.3584  0.1460  0.5388
60908SOL    HW191502   7.825   5.749  11.487 -1.7852 -2.1513  0.6150
60908SOL    HW291503   7.740   5.789  11.606  0.6411  2.6064  1.0328
60909SOL     OW91504   2.144   9.073  12.487 -0.8970 -0.3963 -0.3905
60909SOL    HW191505   2.107   9.105  12.404  0.0936  0.3931 -0.5451
60909SOL    HW291506   2.181   8.988  12.465 -0.4053 -0.0785 -0.8396
60910SOL     OW91507  12.411   2.304   3.442  0.2891 -0.2942  0.6775
60910SOL    HW191508  12.360   2.376   3.480  1.5654  0.9870  0.0622
60910SOL    HW291509  12.481   2.288   3.507  0.2470 -0.7008  0.6231
60911SOL     OW91510   0.739   3.528   3.350  0.5361  0.0004 -0.4688
60911SOL    HW191511   0.689   3.525   3.432  0.2515  1.7165 -0.5345
60911SOL    HW291512   0.688   3.587   3.293  0.6996 -1.1902 -1.9143
60912SOL     OW91513   8.452  11.310   8.475 -0.0208  0.3728 -0.6321
60912SOL    HW191514   8.460  11.378   8.408 -0.3240 -1.7478 -2.9688
60912SOL    HW291515   8.543  11.286   8.494  0.1678  2.3668  1.3487
60913SOL     OW91516   1.401  10.276   8.615  0.4758  0.4766 -0.8710
60913SOL    HW191517   1.386  10.218   8.690  0.9674  0.0476 -1.0997
60913SOL    HW291518   1.495  10.275   8.602  0.2422 -1.3820 -2.9818
60914SOL     OW91519   0.421   5.088   1.224  0.4043 -0.0548 -0.4805
60914SOL    HW191520   0.392   5.165   1.274  0.2434 -0.2811 -0.2200
60914SOL    HW291521   0.392   5.105   1.135  0.3571  0.1828 -0.4209
60915SOL     OW91522   1.805   8.946   6.801 -0.1696  0.0721 -0.1676
60915SOL    HW191523   1.844   8.974   6.883  0.4216 -0.8333 -0.1261
60915SOL    HW291524   1.712   8.969   6.809  0.0604  0.8624  0.3466
60916SOL     OW91525   9.325   0.646   8.707  0.2611 -0.1249 -0.0105
60916SOL    HW191526   9.248   0.684   8.749  0.9691  0.3498  0.8828
60916SOL    HW291527   9.371   0.720   8.668 -1.0231 -0.6788 -2.8006
60917SOL     OW91528   8.544   1.002   6.831 -0.2285 -0.4765  0.5034
60917SOL    HW191529   8.622   0.972   6.876 -0.0209  1.4751  1.5045
60917SOL    HW291530   8.483   1.025   6.901 -0.6536  0.6691 -0.2233
60918SOL     OW91531   0.859   8.218   7.364 -1.1570 -0.1606 -0.6099
60918SOL    HW191532   0.869   8.193   7.273  0.2674  0.0723 -0.5478
60918SOL    HW291533   0.932   8.278   7.380 -2.5549  1.4440  0.1253
60919SOL     OW91534   0.170   8.123   6.807 -0.5476 -0.1228  0.1399
60919SOL    HW191535   0.258   8.112   6.842 -0.8342  2.0116  1.7260
60919SOL    HW291536   0.126   8.040   6.824  1.1721 -1.3191 -0.9074
60920SOL     OW91537   2.026   1.585   1.837  0.2752  0.0526  0.8792
60920SOL    HW191538   2.031   1.564   1.744  2.0156  0.1534  0.9292
60920SOL    HW291539   2.047   1.678   1.842 -2.1545  0.6521  1.1838
60921SOL     OW91540   5.400   1.793   4.841 -0.2675  0.0195 -0.4678
60921SOL    HW191541   5.368   1.876   4.805  2.6372  0.8997 -1.3103
60921SOL    HW291542   5.474   1.818   4.897  0.2776 -1.9488 -0.2283
60922SOL     OW91543   6.763   9.040   8.816 -1.0396 -0.0460  0.7061
60922SOL    HW191544   6.670   9.019   8.819 -1.2236  0.5350 -0.3032
60922SOL    HW291545   6.769   9.129   8.850 -0.7788 -0.2858  1.2905
60923SOL     OW91546   0.882   5.357   3.311 -0.0900  0.5912 -0.5318
60923SOL    HW191547   0.864   5.308   3.391 -0.9196  1.4610 -0.1630
60923SOL    HW291548   0.885   5.290   3.242 -0.8888 -0.0211  0.0063
60924SOL     OW91549   0.273   6.074   6.849 -0.1676 -0.6971 -0.3679
60924SOL    HW191550   0.202   6.022   6.886 -0.2977 -1.7624 -1.9878
60924SOL    HW291551   0.241   6.100   6.762  0.1484  1.6186  0.1443
60925SOL     OW91552   6.571  11.854   2.206 -0.1395  0.1099  0.6888
60925SOL    HW191553   6.637  11.815   2.148  1.8423  0.4142  2.5686
60925SOL    HW291554   6.494  11.867   2.151  1.5843  0.3358 -1.8270
60926SOL     OW91555   8.146   8.144   2.488 -0.7393 -0.4293  0.6175
60926SOL    HW191556   8.100   8.149   2.571 -1.6270  2.6575  0.0534
60926SOL    HW291557   8.239   8.150   2.511 -0.9617 -0.0347  1.4291
60927SOL     OW91558   5.523   2.236   8.048  0.1775 -0.0387 -0.1492
60927SOL    HW191559   5.547   2.220   8.139  0.0255 -0.2225 -0.1411
60927SOL    HW291560   5.434   2.201   8.040  0.4346 -0.5985 -0.5401
60928SOL     OW91561   5.327   4.136   6.647 -0.3698 -0.3210 -0.2445
60928SOL    HW191562   5.396   4.176   6.700  0.9226 -3.3849  0.5696
60928SOL    HW291563   5.309   4.052   6.689 -2.2847 -1.0817 -2.3479
60929SOL     OW91564  11.160   7.650   9.426 -0.1728  0.2060 -0.0257
60929SOL    HW191565  11.239   7.615   9.466 -0.8375 -0.4292  0.7530
60929SOL    HW291566  11.088   7.608   9.473 -1.0018 -0.9008 -2.1173
60930SOL     OW91567  12.182   0.857   1.007  0.3671  0.2045 -0.3400
60930SOL    HW191568  12.275   0.880   1.003  0.8426 -1.6766 -1.5551
60930SOL    HW291569  12.136   0.936   0.981  1.5964  1.2390  0.5016
60931SOL     OW91570  11.661   9.688   7.230  0.1663  0.3900  0.1151
60931SOL    HW191571  11.663   9.776   7.193  0.6855  0.5590  0.5273
60931SOL    HW291572  11.711   9.695   7.311 -0.8386 -0.0078  0.7860
60932SOL     OW91573   9.730  11.627   9.849 -0.2602  0.5237 -0.5273
60932SOL    HW191574   9.733  11.566   9.922 -0.3579 -0.3270 -1.2174
60932SOL    HW291575   9.707  11.711   9.889 -3.8640 -0.5683  0.0588
60933SOL     OW91576   1.743   1.999  10.966  0.6206  0.3703  0.2852
60933SOL    HW191577   1.678   2.069  10.977  1.4029  1.1349  0.1987
60933SOL    HW291578   1.714   1.930  11.026 -0.7155  0.3538 -0.3554
60934SOL     OW91579   5.610   8.079  12.168  0.3737  0.2972  0.1564
60934SOL    HW191580   5.565   8.021  12.230 -0.4022 -0.6101 -1.1897
60934SOL    HW291581   5.540   8.111  12.111  1.1978  0.2240 -0.9149
60935SOL     OW91582   9.260   5.626   7.076  0.1639  0.3230  0.0891
60935SOL    HW191583   9.183   5.593   7.030  0.4034  0.2594 -0.2671
60935SOL    HW291584   9.318   5.658   7.007  0.2280  0.8664  0.3887
60936SOL     OW91585   1.186   2.156   1.008 -0.1423  0.5555  0.8176
60936SOL    HW191586   1.274   2.194   1.008  0.6551 -0.8732 -2.7043
60936SOL    HW291587   1.128   2.231   1.020  1.4741  1.7900  1.4007
60937SOL     OW91588   7.669   0.960   5.577  0.0702 -0.1700 -0.2107
60937SOL    HW191589   7.735   0.988   5.514  0.1507  0.2870  0.0713
60937SOL    HW291590   7.656   1.036   5.633  0.8759 -0.9413  1.0710
60938SOL     OW91591   0.647   7.043   1.777  0.1244 -0.0854  0.0411
60938SOL    HW191592   0.645   7.102   1.702  1.1951  0.5146  0.4565
60938SOL    HW291593   0.618   6.959   1.743 -2.6509  0.8936 -0.3218
60939SOL     OW91594   0.795   3.661   2.572  0.1680 -0.5766 -0.4628
60939SOL    HW191595   0.765   3.584   2.524  1.6949 -0.2071 -2.1181
60939SOL    HW291596   0.759   3.735   2.523 -0.6195 -0.2000  0.6443
60940SOL     OW91597   7.588   2.655   2.140 -0.0073 -0.2219  0.0805
60940SOL    HW191598   7.540   2.671   2.059  2.2716  0.9661 -1.1415
60940SOL    HW291599   7.530   2.687   2.210 -1.2298  0.5547 -1.2473
60941SOL     OW91600   4.996   5.185  11.532  0.3747 -0.0795  0.3239
60941SOL    HW191601   4.958   5.158  11.448 -0.1276 -1.5482  0.9877
60941SOL    HW291602   4.978   5.279  11.538 -0.3163 -0.1238 -0.8305
60942SOL     OW91603  11.156  10.226   0.417  0.0011 -0.1229  0.4895
60942SOL    HW191604  11.164  10.165   0.491 -0.1787  0.1706  0.7558
60942SOL    HW291605  11.177  10.311   0.456  0.3401 -0.0273  0.1012
60943SOL     OW91606   8.466  11.689   2.554 -0.3429  0.1655 -0.6052
60943SOL    HW191607   8.456  11.776   2.516  0.5487  0.1334 -0.9312
60943SOL    HW291608   8.410  11.690   2.632  0.6810  1.4845  0.1594
60944SOL     OW91609  10.743   7.170   3.733 -0.4064  0.2539  0.0079
60944SOL    HW191610  10.838   7.161   3.723 -0.6037 -0.6656 -1.3182
60944SOL    HW291611  10.732   7.250   3.784  1.0728  0.5762 -0.1250
60945SOL     OW91612   5.160   9.652   5.204  0.4016 -0.0102  0.6061
60945SOL    HW191613   5.085   9.608   5.246  1.3284 -0.8795  1.3973
60945SOL    HW291614   5.184   9.722   5.265 -0.7188  1.3047 -0.3900
60946SOL     OW91615   6.041   7.525   0.397  0.3554  0.8868 -0.2367
60946SOL    HW191616   6.061   7.538   0.304 -1.0251 -0.5788 -0.7886
60946SOL    HW291617   6.067   7.434   0.414 -1.5087  0.4005  0.1817
60947SOL     OW91618   2.505   1.910   2.529 -0.6882 -0.1720 -0.4937
60947SOL    HW191619   2.572   1.842   2.530 -0.7598 -0.2693  1.5113
60947SOL    HW291620   2.547   1.985   2.487  0.5484 -0.3844  0.3083
60948SOL     OW91621   7.273   6.033   1.504  0.4032  0.8995  0.1500
60948SOL    HW191622   7.183   6.059   1.485  0.9847  3.3922  0.5327
60948SOL    HW291623   7.311   6.013   1.418 -1.0611 -2.5580  0.1215
60949SOL     OW91624   3.557   5.427   5.360  0.0670  0.2781  0.7797
60949SOL    HW191625   3.620   5.418   5.432  0.0876 -1.0192  0.6293
60949SOL    HW291626   3.491   5.360   5.378  1.6258 -2.2213 -1.9268
60950SOL     OW91627   5.124  10.811   1.279 -0.1671  0.6653 -0.1766
60950SOL    HW191628   5.095  10.722   1.261  0.0730 -0.1857  2.9677
60950SOL    HW291629   5.138  10.850   1.193  1.9928 -3.0367 -1.7338
60951SOL     OW91630   5.847   2.262   1.287 -0.1211  0.3524  0.6076
60951SOL    HW191631   5.849   2.341   1.234  0.8134 -0.6617 -0.9539
60951SOL    HW291632   5.822   2.193   1.226 -0.2726 -0.6544  1.7789
60952SOL     OW91633   2.537   1.766   9.479  0.4987  0.5114  0.3162
60952SOL    HW191634   2.481   1.713   9.422  0.1438  1.0772  0.1285
60952SOL    HW291635   2.477   1.809   9.539  0.9896 -1.6256  2.5158
60953SOL     OW91636   0.483  11.841  11.298 -0.4163  0.1807 -0.4862
60953SOL    HW191637   0.389  11.821  11.293 -0.3770 -0.2023  0.1860
60953SOL    HW291638   0.496  11.867  11.389  0.1006  0.4166 -0.6269
60954SOL     OW91639   5.962   6.981   2.715 -0.1017 -0.5243 -0.3171
60954SOL    HW191640   5.891   7.006   2.774  0.9051  2.2851 -0.1587
60954SOL    HW291641   6.021   6.930   2.770 -0.4409 -0.1362  0.4307
60955SOL     OW91642   6.203   8.215  10.896  0.7446 -0.0460  0.3750
60955SOL    HW191643   6.202   8.121  10.914  1.5922 -0.0481  0.4240
60955SOL    HW291644   6.291   8.233  10.865  0.4087  0.6347 -0.2128
60956SOL     OW91645  10.599   1.071   0.967 -0.6988  0.4027  0.1206
60956SOL    HW191646  10.612   1.162   0.992  1.8833  0.0690  0.2383
60956SOL    HW291647  10.595   1.023   1.050 -0.7020  0.2386  0.0267
60957SOL     OW91648   2.742   4.804   9.711 -0.2109  0.6108 -0.1816
60957SOL    HW191649   2.761   4.735   9.775  1.0087  0.6671 -0.4600
60957SOL    HW291650   2.689   4.867   9.760  0.5672  0.5731  0.7541
60958SOL     OW91651   6.499  11.299   8.058 -0.0669 -0.5148 -0.5862
60958SOL    HW191652   6.426  11.280   8.116  0.1764 -0.8647 -0.3900
60958SOL    HW291653   6.538  11.214   8.039  1.1500 -0.2296  0.4549
60959SOL     OW91654  10.223   7.893   0.173 -0.4956  0.4848 -0.0307
60959SOL    HW191655  10.311   7.865   0.199 -1.6587 -3.8023 -0.0056
60959SOL    HW291656  10.235   7.935   0.088  1.4842 -0.9938 -0.5440
60960SOL     OW91657   1.728   2.866   2.091  0.4883  0.3635  0.3567
60960SOL    HW191658   1.667   2.916   2.036  1.3548  0.4507 -0.5538
60960SOL    HW291659   1.673   2.799   2.131 -0.2467  0.5344 -0.3199
60961SOL     OW91660   9.718  10.362   0.763 -0.1291  0.1278 -0.2856
60961SOL    HW191661   9.695  10.373   0.855 -0.1665  2.3527 -0.5085
60961SOL    HW291662   9.748  10.448   0.735 -0.8437 -0.2789 -2.5579
60962SOL     OW91663   2.108   9.601   7.077  0.2792  0.5157 -0.1346
60962SOL    HW191664   2.064   9.598   7.161 -0.0085  1.3977 -0.2500
60962SOL    HW291665   2.038   9.595   7.012  0.6145 -2.4198 -0.3704
60963SOL     OW91666   1.652  11.834   0.986 -0.6831 -0.2781 -0.2554
60963SOL    HW191667   1.587  11.861   0.920 -3.0386  0.9635  2.3608
60963SOL    HW291668   1.631  11.743   1.004 -0.3769 -0.4629 -0.7914
60964SOL     OW91669  12.044   3.543   6.213 -0.1056  0.1524  0.5058
60964SOL    HW191670  12.038   3.554   6.308 -0.0437  0.3037  0.4922
60964SOL    HW291671  12.112   3.477   6.201 -0.9874 -0.8076  0.6168
60965SOL     OW91672   4.645   5.294   5.785 -0.1847 -0.3136  0.0735
60965SOL    HW191673   4.611   5.209   5.756 -0.2564 -0.1060 -0.4647
60965SOL    HW291674   4.723   5.309   5.732 -1.4845  1.0393 -1.6058
60966SOL     OW91675   1.586  10.457   9.332  0.3326 -0.1083 -0.0474
60966SOL    HW191676   1.596  10.492   9.420 -1.1405 -0.1835  0.1734
60966SOL    HW291677   1.544  10.372   9.345  0.3711 -0.2526 -0.8190
60967SOL     OW91678   1.962  10.957   8.262 -0.0187 -0.5522  0.0017
60967SOL    HW191679   1.953  10.863   8.271  0.1266 -0.5079  0.6734
60967SOL    HW291680   2.012  10.969   8.182 -0.1533 -1.0362 -0.1588
60968SOL     OW91681  11.717   0.283   9.065 -0.3415 -0.9949  0.0183
60968SOL    HW191682  11.719   0.312   8.974  0.8844  0.7336  0.5442
60968SOL    HW291683  11.804   0.245   9.080  0.4958  1.1827  1.1427
60969SOL     OW91684  11.711  11.567   4.696 -0.0830  0.1476  0.2618
60969SOL    HW191685  11.751  11.492   4.740 -0.0580  0.8904  1.5559
60969SOL    HW291686  11.716  11.546   4.602  1.8651 -0.5040  0.4745
60970SOL     OW91687   1.952   0.536   9.357  0.2180 -0.1863  0.6233
60970SOL    HW191688   1.934   0.464   9.297  1.5550  0.1061 -0.1871
60970SOL    HW291689   1.962   0.612   9.300  2.1551 -0.0231  1.1078
60971SOL     OW91690   5.776   7.335   6.798  0.2440  0.3269 -0.1609
60971SOL    HW191691   5.697   7.382   6.772  1.7192  2.4792 -1.0535
60971SOL    HW291692   5.818   7.393   6.862  0.9515 -0.9304  0.5577
60972SOL     OW91693   2.232   1.391  11.508 -0.3989 -0.2317 -0.2563
60972SOL    HW191694   2.177   1.356  11.578 -1.8609  2.0831 -0.1312
60972SOL    HW291695   2.208   1.341  11.430  0.5683 -2.1960  0.6281
60973SOL     OW91696   3.770   9.539   2.620  0.4698  0.8822 -0.1541
60973SOL    HW191697   3.680   9.517   2.595 -0.3710 -1.4435  3.9613
60973SOL    HW291698   3.825   9.484   2.564 -0.9525 -0.7394 -0.0348
60974SOL     OW91699  10.181   6.915  10.021  0.2952  0.0358 -0.3674
60974SOL    HW191700  10.246   6.845  10.029 -2.3547 -2.5622  0.2190
60974SOL    HW291701  10.152   6.910   9.930  0.8896  1.2017 -0.6351
60975SOL     OW91702   7.082   4.702   2.112 -0.1004 -0.0973  0.9094
60975SOL    HW191703   7.160   4.658   2.146  1.0771  2.4361  1.6893
60975SOL    HW291704   7.026   4.712   2.188 -2.2191 -3.5705  0.0497
60976SOL     OW91705   4.886  11.459   4.600  0.4907  0.3793  0.1286
60976SOL    HW191706   4.933  11.378   4.620 -3.4387 -2.5919 -1.2202
60976SOL    HW291707   4.924  11.489   4.517  0.6408 -1.4028 -0.4902
60977SOL     OW91708  10.454   5.081   3.981  0.2013 -0.3185  0.1082
60977SOL    HW191709  10.399   5.079   3.902 -0.7042 -1.5168  0.7242
60977SOL    HW291710  10.525   5.141   3.960  0.2510 -0.9838 -1.7950
60978SOL     OW91711  12.197   5.980   1.094 -0.1035  0.4180 -0.1266
60978SOL    HW191712  12.283   5.947   1.121 -0.2925 -1.5776 -1.7391
60978SOL    HW291713  12.147   5.986   1.175  0.6599 -1.1832  0.5027
60979SOL     OW91714   2.667   1.543   2.884 -0.0444  0.1311  0.0039
60979SOL    HW191715   2.600   1.478   2.906 -0.6458  0.9021  0.5392
60979SOL    HW291716   2.716   1.505   2.812 -1.2225 -0.3547 -0.5623
60980SOL     OW91717   0.998   1.751   3.108  0.0199  0.4122  0.1682
60980SOL    HW191718   0.912   1.739   3.149 -0.6583 -0.3246 -1.3738
60980SOL    HW291719   0.990   1.832   3.058  0.9842  1.5433  1.7213
60981SOL     OW91720   1.768  11.788   3.159 -0.0840  0.2559  0.3124
60981SOL    HW191721   1.827  11.831   3.098 -1.4019 -0.0932 -1.2573
60981SOL    HW291722   1.713  11.858   3.192 -1.1341  0.0700 -0.9789
60982SOL     OW91723  10.780   2.280   4.264  0.1006 -0.2140  0.0617
60982SOL    HW191724  10.784   2.374   4.251  1.1840 -0.3997 -1.1794
60982SOL    HW291725  10.869   2.250   4.246 -0.7335 -1.7352 -1.8971
60983SOL     OW91726  11.955   8.855   4.159  0.9671  0.1503 -0.3804
60983SOL    HW191727  11.909   8.910   4.223  1.7215  0.5963 -0.2211
60983SOL    HW291728  12.011   8.798   4.212  0.4075 -0.5984 -0.5610
60984SOL     OW91729  10.830   5.118  10.778  0.3761  0.2735  0.2492
60984SOL    HW191730  10.765   5.144  10.713 -0.7641  0.7475  1.5074
60984SOL    HW291731  10.830   5.023  10.777 -0.4485  0.2702  0.3216
60985SOL     OW91732   4.437   9.974  11.200  0.0586  0.5962 -0.2794
60985SOL    HW191733   4.392   9.963  11.284  0.3259  0.5184 -0.1470
60985SOL    HW291734   4.435  10.068  11.183 -1.9160  0.4395 -1.2372
60986SOL     OW91735   4.798  12.100  11.379  0.3017  0.1933  0.2210
60986SOL    HW191736   4.893  12.112  11.382  0.4871 -1.2213  0.2789
60986SOL    HW291737   4.779  12.076  11.289  0.2085 -1.1309  0.5836
60987SOL     OW91738   5.392   3.276   7.453  0.0377  0.1024 -0.7971
60987SOL    HW191739   5.302   3.308   7.447 -0.1866 -0.5186 -0.8930
60987SOL    HW291740   5.444   3.338   7.401 -0.5637 -0.3568 -1.9837
60988SOL     OW91741  10.137   9.706   2.311 -0.3221 -0.5888  0.8750
60988SOL    HW191742  10.157   9.777   2.371  1.9707 -0.7772  0.4354
60988SOL    HW291743  10.115   9.631   2.367  3.1255 -1.1581  1.6663
60989SOL     OW91744   5.705  12.321   0.907 -0.0512  0.3465  0.0883
60989SOL    HW191745   5.691  12.308   0.813  2.9453 -2.6324 -0.1199
60989SOL    HW291746   5.764  12.396   0.913 -0.1508  0.4637 -0.3830
60990SOL     OW91747  10.949   2.714   3.125  0.6432 -0.0669 -0.3367
60990SOL    HW191748  11.000   2.718   3.206  2.2669 -0.1469 -1.3072
60990SOL    HW291749  10.974   2.631   3.085 -1.3756 -0.7985 -0.1700
60991SOL     OW91750   2.731   7.264  12.171 -0.0122 -0.1100 -0.0067
60991SOL    HW191751   2.723   7.266  12.075 -0.0342  1.9412 -0.0055
60991SOL    HW291752   2.797   7.330  12.191  0.2408 -0.7524  1.4018
60992SOL     OW91753   4.678  11.618  10.318  0.3382 -0.3301  0.1027
60992SOL    HW191754   4.642  11.681  10.381 -0.4396 -0.1380 -0.5219
60992SOL    HW291755   4.662  11.658  10.233 -0.2244 -1.3890 -0.3051
60993SOL     OW91756  10.893  11.165  11.493  0.2046  0.3333 -0.8263
60993SOL    HW191757  10.826  11.171  11.561 -1.5258  0.2614 -2.4372
60993SOL    HW291758  10.927  11.254  11.484  0.3972  0.3558  0.0540
60994SOL     OW91759   9.998   5.502   7.400 -0.1449 -0.2070  0.3622
60994SOL    HW191760   9.973   5.508   7.492  0.3778  2.9008  0.4109
60994SOL    HW291761   9.920   5.527   7.352  0.5372  1.8703  0.2063
60995SOL     OW91762   7.912   2.509  10.475  0.0744 -0.1630 -0.4501
60995SOL    HW191763   7.838   2.569  10.488  0.0687  0.3855 -2.5785
60995SOL    HW291764   7.973   2.558  10.421  1.7284 -0.8593  0.7127
60996SOL     OW91765   1.348   8.873  10.707 -0.0867 -0.1149 -0.1287
60996SOL    HW191766   1.270   8.923  10.733 -0.6798 -1.2168  0.2951
60996SOL    HW291767   1.408   8.883  10.781 -0.0577  0.2590 -0.2004
60997SOL     OW91768  12.609   5.213  10.041  0.6021  0.0496 -0.5241
60997SOL    HW191769  12.525   5.169  10.059  0.2350  0.7624 -0.4843
60997SOL    HW291770  12.586   5.286   9.984  1.1484  0.4941 -0.1805
60998SOL     OW91771   8.697   0.991   0.266  0.3085 -0.4221 -0.0644
60998SOL    HW191772   8.619   1.027   0.308 -0.1362 -0.7133 -0.6319
60998SOL    HW291773   8.770   1.035   0.310 -0.1981  0.8162 -0.4076
60999SOL     OW91774   7.618   5.288   7.846 -0.3170 -0.0422  0.3393
60999SOL    HW191775   7.713   5.278   7.844 -0.4537 -1.4128 -0.5929
60999SOL    HW291776   7.586   5.209   7.889 -1.0604  0.2632  0.3692
61000SOL     OW91777   2.376   8.705   2.710  0.5746  0.2682 -0.4267
61000SOL    HW191778   2.395   8.709   2.804  1.5044 -0.8878 -0.5516
61000SOL    HW291779   2.312   8.774   2.696  0.6761  0.6804  1.0029
61001SOL     OW91780  12.538   6.429   0.417  0.1797  0.0368 -0.1249
61001SOL    HW191781  12.583   6.491   0.474  1.8703 -0.9912 -0.2806
61001SOL    HW291782  12.545   6.345   0.462  0.8963 -0.6545 -1.4752
61002SOL     OW91783   4.381  12.397  10.304  0.1491  0.0108  0.0357
61002SOL    HW191784   4.426  12.411  10.220 -0.2829  1.5249  0.0205
61002SOL    HW291785   4.314  12.331  10.285 -0.1517  0.5668 -0.9041
61003SOL     OW91786  12.096   1.017   7.737 -0.2656  0.1921 -0.2822
61003SOL    HW191787  12.065   0.960   7.667  0.4874 -1.0138  0.3185
61003SOL    HW291788  12.183   0.982   7.759 -0.2472  0.8949  0.8560
61004SOL     OW91789   5.715   9.161   2.027  0.2391  0.2309 -0.5355
61004SOL    HW191790   5.689   9.157   1.935  2.7997 -0.5894 -1.3210
61004SOL    HW291791   5.708   9.071   2.058 -2.0300  0.7213  0.5949
61005SOL     OW91792  11.783  10.889   2.737 -0.1778 -0.1169 -0.2020
61005SOL    HW191793  11.857  10.850   2.782  0.2262  0.7287 -0.1235
61005SOL    HW291794  11.706  10.862   2.788  0.1514 -0.2703  0.2124
61006SOL     OW91795   8.259   4.386  11.460  0.6881 -0.0730  0.4367
61006SOL    HW191796   8.344   4.430  11.472  0.2666  0.3850  2.0155
61006SOL    HW291797   8.238   4.398  11.367  2.0355  0.3720  0.1696
61007SOL     OW91798  11.171   3.345   8.228  0.1721  0.3146  0.0949
61007SOL    HW191799  11.169   3.432   8.267 -0.9089 -0.1396  1.1149
61007SOL    HW291800  11.256   3.309   8.253 -0.2184  0.2980  1.4439
61008SOL     OW91801   8.563   7.550   7.241 -0.6245 -0.2707  0.5293
61008SOL    HW191802   8.659   7.548   7.240 -0.5566 -2.7635 -1.5919
61008SOL    HW291803   8.539   7.462   7.272 -2.2369  0.3204  1.0105
61009SOL     OW91804   2.210   0.278   4.711  0.3677  0.6559 -0.3200
61009SOL    HW191805   2.303   0.269   4.691  0.3773 -2.6290  0.5638
61009SOL    HW291806   2.170   0.304   4.628  2.0204  1.8102 -0.7852
61010SOL     OW91807   1.125   9.534   3.141 -0.5201  0.2198  0.3875
61010SOL    HW191808   1.090   9.459   3.093 -0.5773  0.2827  0.3317
61010SOL    HW291809   1.129   9.604   3.076  0.7836 -0.1016  0.1046
61011SOL     OW91810   7.561  12.518   6.334  0.1205  0.2429 -0.3705
61011SOL    HW191811   7.519  12.467   6.265 -0.2795 -0.2492  0.2278
61011SOL    HW291812   7.654  12.495   6.327  0.1585  0.5798 -1.0610
61012SOL     OW91813   0.572   5.026  10.619 -0.1151  0.0847  0.2703
61012SOL    HW191814   0.600   4.970  10.547 -0.3983  0.0579  0.1778
61012SOL    HW291815   0.480   5.045  10.599  0.3378  1.6869 -0.4202
61013SOL     OW91816  11.798   5.736   1.644 -0.2924 -0.6568 -0.2647
61013SOL    HW191817  11.741   5.689   1.706 -1.7429 -0.4422 -1.3789
61013SOL    HW291818  11.763   5.825   1.642  0.9307 -0.1511  0.0022
61014SOL     OW91819   2.325   9.707   7.696  0.1709 -0.2293  0.7203
61014SOL    HW191820   2.381   9.784   7.703  1.4956 -0.9377 -1.1929
61014SOL    HW291821   2.247   9.738   7.652 -0.2564  0.4180  1.8843
61015SOL     OW91822  11.047   6.448   1.631  0.0778 -0.0329  0.0661
61015SOL    HW191823  11.099   6.489   1.562  0.6257  0.1069  0.5495
61015SOL    HW291824  11.024   6.520   1.690 -1.3961  0.0462 -0.5902
61016SOL     OW91825  10.572   9.495   3.571  0.2079  0.3777  0.1497
61016SOL    HW191826  10.508   9.483   3.501  2.8844 -2.2279 -2.0712
61016SOL    HW291827  10.612   9.580   3.552 -0.7923  0.8594  0.0975
61017SOL     OW91828  10.171  11.447   5.417 -0.2311 -1.0240  0.2570
61017SOL    HW191829  10.195  11.516   5.355 -1.2980 -0.4046  0.5044
61017SOL    HW291830  10.084  11.418   5.388 -0.0480 -1.8670  0.5092
61018SOL     OW91831   4.434   4.592   4.420 -0.3509  0.4193  0.5699
61018SOL    HW191832   4.352   4.543   4.426  0.6633 -1.1916  2.2644
61018SOL    HW291833   4.453   4.618   4.510  0.5093  1.6594  0.0549
61019SOL     OW91834   5.400  12.351   9.270  0.5244 -0.7115  0.3596
61019SOL    HW191835   5.342  12.408   9.220  1.6416 -0.9040 -1.2566
61019SOL    HW291836   5.478  12.404   9.286  2.3904 -2.1898 -2.8248
61020SOL     OW91837  11.533   6.715   0.162 -0.0415  0.0925 -0.0580
61020SOL    HW191838  11.524   6.693   0.069 -1.7267 -2.9017  0.6577
61020SOL    HW291839  11.467   6.783   0.176 -0.5584 -0.2237 -0.8459
61021SOL     OW91840   7.191   2.272  11.297  0.2823  0.2058 -0.6588
61021SOL    HW191841   7.271   2.239  11.257  0.6823 -0.8688  0.9246
61021SOL    HW291842   7.216   2.354  11.339  1.6115 -1.7824  2.9060
61022SOL     OW91843   4.671  11.735  10.076  0.6361  0.3339 -0.1775
61022SOL    HW191844   4.760  11.759  10.051  0.4497  1.0764 -0.1616
61022SOL    HW291845   4.624  11.725   9.993  0.2499  1.8892 -0.1844
61023SOL     OW91846   5.664   8.966   7.787  0.5360 -0.0364  0.7009
61023SOL    HW191847   5.721   8.893   7.761 -0.9475 -0.6539 -1.0369
61023SOL    HW291848   5.717   9.044   7.772  0.6950 -0.5354 -1.7534
61024SOL     OW91849   7.105   9.535   7.437  0.1225  0.3630 -0.4821
61024SOL    HW191850   7.069   9.447   7.426 -0.3018  0.5339 -0.4810
61024SOL    HW291851   7.034   9.593   7.411 -0.0550  0.7303  0.7482
61025SOL     OW91852   3.302   4.357   4.140 -0.1303  0.6258 -0.4539
61025SOL    HW191853   3.219   4.331   4.102  1.1855 -2.1473 -1.6774
61025SOL    HW291854   3.324   4.287   4.201  0.9614  1.7187  0.4775
61026SOL     OW91855   4.358   7.845   9.574 -0.2401 -0.4068  0.4303
61026SOL    HW191856   4.418   7.796   9.631  0.8933 -0.8385 -1.0653
61026SOL    HW291857   4.292   7.880   9.634  0.3606 -1.6155  1.8815
61027SOL     OW91858   2.762   6.893   2.717 -0.0703  0.4440 -0.0131
61027SOL    HW191859   2.708   6.944   2.658  1.8034  1.6582 -0.7766
61027SOL    HW291860   2.816   6.958   2.763 -0.6297 -0.5484  2.2235
61028SOL     OW91861   5.910   6.046   6.496  0.1500  0.6070 -0.0535
61028SOL    HW191862   5.931   5.972   6.439  0.2498 -0.7043  1.6040
61028SOL    HW291863   5.945   6.022   6.582  0.9220  2.9699  0.3702
61029SOL     OW91864  10.704   2.967   5.955  0.3779  0.6775 -0.2573
61029SOL    HW191865  10.686   3.050   5.910 -0.4357  0.7742  0.2180
61029SOL    HW291866  10.699   2.901   5.887 -0.9937  0.8061 -0.3047
61030SOL     OW91867  11.188  12.406   7.076 -0.4918  0.1884  0.2811
61030SOL    HW191868  11.201  12.497   7.048 -2.3460  0.0261 -1.2710
61030SOL    HW291869  11.146  12.363   7.002  1.4569 -2.3228  0.4819
61031SOL     OW91870  11.558  11.377   0.309  0.6183  0.1106 -0.0294
61031SOL    HW191871  11.617  11.435   0.261 -0.6922  0.8884 -0.7356
61031SOL    HW291872  11.485  11.362   0.250 -0.2013 -0.3245  1.0623
61032SOL     OW91873   2.140   7.927  11.168 -0.4448 -0.2376  0.4804
61032SOL    HW191874   2.170   7.839  11.191 -0.2800 -0.1468  0.6182
61032SOL    HW291875   2.114   7.921  11.076  2.1085  0.2092 -0.3386
61033SOL     OW91876   1.101   2.550  11.150  0.1823  0.6268 -0.1149
61033SOL    HW191877   1.020   2.533  11.101 -0.0462  0.4179  0.3293
61033SOL    HW291878   1.135   2.631  11.112 -1.5267  2.0912  1.3306
61034SOL     OW91879   1.195   7.697   5.209  0.4516  0.0501 -0.4561
61034SOL    HW191880   1.209   7.722   5.117 -1.9080  1.5556 -0.4818
61034SOL    HW291881   1.103   7.672   5.213  0.5958 -0.2929  1.4590
61035SOL     OW91882   5.877  12.394   9.303  0.1101  0.3729  0.3755
61035SOL    HW191883   5.921  12.310   9.317  0.1497  0.2651 -0.3335
61035SOL    HW291884   5.947  12.459   9.309 -0.0357  0.4292  1.6236
61036SOL     OW91885   9.546   6.846   3.589  0.1456 -0.6893 -0.0681
61036SOL    HW191886   9.533   6.940   3.578  1.1090 -0.4394  0.7747
61036SOL    HW291887   9.462   6.813   3.620  0.4981  0.3506  2.2377
61037SOL     OW91888   7.701  10.584  12.458  0.6700  0.3994 -0.6846
61037SOL    HW191889   7.773  10.533  12.420  0.6063 -1.0258  0.9786
61037SOL    HW291890   7.658  10.523  12.518 -0.9209  1.7267 -0.4229
61038SOL     OW91891   7.760   5.755   5.608  0.1384  0.3334 -0.4637
61038SOL    HW191892   7.748   5.778   5.700  1.8011 -2.5139  0.5896
61038SOL    HW291893   7.853   5.736   5.599  0.3989  2.2041 -3.2572
61039SOL     OW91894   4.223   2.128   1.456  0.5938  0.0642  0.3807
61039SOL    HW191895   4.187   2.097   1.373  0.1795 -0.4246  0.7420
61039SOL    HW291896   4.216   2.224   1.450 -0.5915 -0.0035  0.3542
61040SOL     OW91897  10.409   8.403   1.396 -0.0845 -0.2171 -0.0563
61040SOL    HW191898  10.406   8.402   1.492 -0.9119 -0.5562 -0.0766
61040SOL    HW291899  10.344   8.338   1.369  1.0056 -1.0194 -0.8502
61041SOL     OW91900   4.449  12.072   1.571 -0.5410 -0.0063  0.1109
61041SOL    HW191901   4.436  12.094   1.479 -1.2333  0.0354  0.2137
61041SOL    HW291902   4.534  12.026   1.573 -0.0905  0.7755 -0.4064
61042SOL     OW91903   3.266   4.097  11.559  0.1433  0.1474 -0.2674
61042SOL    HW191904   3.335   4.033  11.540 -0.0211 -0.1473  0.1277
61042SOL    HW291905   3.185   4.053  11.535 -0.0654 -0.2092  1.0144
61043SOL     OW91906   4.297   7.008   8.590  0.4055  0.0728  0.0525
61043SOL    HW191907   4.350   6.929   8.597 -0.1435 -0.2261  0.9792
61043SOL    HW291908   4.342   7.072   8.645  1.3570  0.7238 -1.4096
61044SOL     OW91909   6.321   2.598   2.351 -0.4931  0.3901 -0.6531
61044SOL    HW191910   6.293   2.530   2.289 -0.1093 -1.4084  1.0609
61044SOL    HW291911   6.261   2.589   2.425 -0.5640  2.1001 -0.4641
61045SOL     OW91912   1.529   1.492  10.247 -0.9337 -0.4693  0.2570
61045SOL    HW191913   1.570   1.504  10.162 -0.3774 -0.9928  0.4465
61045SOL    HW291914   1.600   1.506  10.310 -1.6277  1.3437  0.7118
61046SOL     OW91915   4.379   1.107  11.541  0.6786  0.1379 -0.0915
61046SOL    HW191916   4.324   1.046  11.492 -0.7523  0.4131  1.0826
61046SOL    HW291917   4.317   1.173  11.574  1.3797 -0.5212  2.7880
61047SOL     OW91918   4.244   3.967  11.378 -0.2681  0.0811  0.0441
61047SOL    HW191919   4.182   4.028  11.338  1.0881  1.7379  0.3620
61047SOL    HW291920   4.273   3.912  11.306  0.6615  1.7436 -0.8954
61048SOL     OW91921   2.172   2.888   3.196  0.2017 -0.0213  0.0205
61048SOL    HW191922   2.116   2.812   3.178 -0.2628 -0.0312  1.4188
61048SOL    HW291923   2.258   2.851   3.216  0.5543 -0.0421 -1.3996
61049SOL     OW91924   3.341  10.370   9.949 -0.7471  0.4662  0.1185
61049SOL    HW191925   3.379  10.422   9.879 -1.0173 -1.9105 -1.9214
61049SOL    HW291926   3.253  10.405   9.961 -0.1456  1.9323  0.4605
61050SOL     OW91927  11.463  11.224   2.186 -0.1951  0.6398  0.1413
61050SOL    HW191928  11.396  11.284   2.218 -0.2020  0.0961  1.1656
61050SOL    HW291929  11.536  11.234   2.246  1.5330  2.7408 -2.0917
61051SOL     OW91930   5.536   5.334   3.785  0.0625  0.0809 -0.1295
61051SOL    HW191931   5.489   5.392   3.844 -1.2943 -0.8477 -0.2456
61051SOL    HW291932   5.474   5.264   3.766  0.7674 -0.0909 -1.9779
61052SOL     OW91933   4.620   8.774   1.083  0.0265 -0.1562 -0.9960
61052SOL    HW191934   4.668   8.694   1.059  0.5988 -0.5118  1.1472
61052SOL    HW291935   4.562   8.747   1.154  0.4030  1.3579 -0.0638
61053SOL     OW91936   8.874   6.804   0.236 -0.2993  0.0545  0.0033
61053SOL    HW191937   8.854   6.720   0.195 -1.1518  0.5417 -0.6134
61053SOL    HW291938   8.969   6.806   0.241 -0.0685  0.3415 -2.8138
61054SOL     OW91939   1.652  10.919   7.015 -0.1706  0.2012  0.7811
61054SOL    HW191940   1.746  10.929   7.001  0.1512 -1.6159  1.2886
61054SOL    HW291941   1.644  10.904   7.110 -0.7470 -1.4116  0.5093
61055SOL     OW91942   4.757   6.153   9.884 -0.5730 -0.4493 -0.0816
61055SOL    HW191943   4.684   6.216   9.885  0.1088  0.3661 -0.1514
61055SOL    HW291944   4.802   6.169   9.966 -0.0460 -0.4243 -0.3741
61056SOL     OW91945   4.988   5.527   1.566  0.1693  0.1473 -0.4566
61056SOL    HW191946   5.046   5.497   1.637 -0.0811 -0.4990 -0.5205
61056SOL    HW291947   5.034   5.602   1.528 -0.6599  1.9069  1.7571
61057SOL     OW91948   5.472   8.088   1.594 -0.1751  0.1804  0.0698
61057SOL    HW191949   5.510   8.152   1.655 -1.7017  2.1360 -0.9235
61057SOL    HW291950   5.378   8.102   1.600 -0.5098 -1.5882 -0.6498
61058SOL     OW91951   7.554  10.516   5.454  0.4209 -0.5106  0.2791
61058SOL    HW191952   7.594  10.497   5.369  1.6497 -0.8121  0.8984
61058SOL    HW291953   7.592  10.600   5.480  0.2189 -0.5278  0.6385
61059SOL     OW91954   5.794   3.844   9.407  0.6183 -0.0525  0.3313
61059SOL    HW191955   5.794   3.937   9.431  1.1647  0.3305 -1.0284
61059SOL    HW291956   5.887   3.819   9.410  0.5779 -0.2912 -0.2045
61060SOL     OW91957   1.476   9.368  12.310 -0.5465 -0.2856 -0.3213
61060SOL    HW191958   1.380   9.373  12.313 -0.5453 -0.5187  0.1948
61060SOL    HW291959   1.500   9.416  12.230 -0.8882  2.3854  1.0826
61061SOL     OW91960   8.447   2.280   4.792  0.3483  0.1769 -0.1128
61061SOL    HW191961   8.523   2.339   4.794  1.2102 -0.7869 -1.8277
61061SOL    HW291962   8.376   2.333   4.756  0.6175  0.6692  0.0735
61062SOL     OW91963   5.278   2.722   0.542 -0.2984  0.2510 -0.2493
61062SOL    HW191964   5.258   2.789   0.608 -0.3805 -0.6380  0.6595
61062SOL    HW291965   5.193   2.698   0.506 -0.7629 -1.8305  1.9354
61063SOL     OW91966   3.464   7.892   0.518 -0.0927 -0.2447 -0.5686
61063SOL    HW191967   3.429   7.980   0.502  2.0052  0.7926  0.2045
61063SOL    HW291968   3.430   7.868   0.604 -0.3504 -0.0368 -0.6108
61064SOL     OW91969   4.734   1.934  11.127 -0.2902  0.4424 -0.6740
61064SOL    HW191970   4.747   2.007  11.187 -0.4703  0.3934 -0.5752
61064SOL    HW291971   4.699   1.974  11.047  1.6713  0.7616 -1.4429
61065SOL     OW91972   8.506   5.580  11.041  0.2374 -0.4880  0.2555
61065SOL    HW191973   8.488   5.488  11.022 -0.3428 -0.5093  0.8807
61065SOL    HW291974   8.473   5.628  10.965  0.9413 -0.8255 -0.2705
61066SOL     OW91975  11.363   1.655   9.022  0.6868  0.4039  0.1642
61066SOL    HW191976  11.423   1.650   9.097  2.3382  0.6878 -1.0685
61066SOL    HW291977  11.313   1.735   9.037  1.0898  0.5230  0.9246
61067SOL     OW91978   1.502   9.791   4.435 -0.0740 -0.0079  0.5050
61067SOL    HW191979   1.482   9.858   4.500  3.7336  1.8853  0.0417
61067SOL    HW291980   1.549   9.724   4.484 -0.9417 -0.7209  0.3840
61068SOL     OW91981   4.016  10.528   4.417  0.5006 -0.4776  0.7287
61068SOL    HW191982   4.085  10.487   4.470  0.6280 -0.4320  0.5963
61068SOL    HW291983   4.046  10.618   4.404  0.5526 -0.5377  0.4306
61069SOL     OW91984   1.656   2.675   8.426 -0.1385  0.0231 -0.0667
61069SOL    HW191985   1.715   2.655   8.353 -1.6897  0.8143 -1.5939
61069SOL    HW291986   1.660   2.597   8.482 -0.4381 -1.4894 -2.0495
61070SOL     OW91987   2.600   8.257   2.040  0.3240 -0.7081  0.0726
61070SOL    HW191988   2.593   8.166   2.069  0.9919 -0.5945  0.6081
61070SOL    HW291989   2.644   8.251   1.955 -0.1013 -0.9192 -0.1369
61071SOL     OW91990   7.246   5.215   0.449  0.1607  0.3010  0.4597
61071SOL    HW191991   7.219   5.291   0.500  0.3753  0.1712  0.7703
61071SOL    HW291992   7.224   5.237   0.359  0.1281  0.6884  0.5620
61072SOL     OW91993  11.028   1.509  11.006 -0.1519  0.2908  0.1064
61072SOL    HW191994  11.008   1.561  10.927 -0.2208  0.1017 -0.0016
61072SOL    HW291995  10.942   1.492  11.045 -0.1483  0.0577  0.0136
61073SOL     OW91996   9.958  11.902   1.924  0.2332 -0.6374 -0.1116
61073SOL    HW191997   9.966  11.848   2.003  0.0912 -0.5696 -0.0518
61073SOL    HW291998   9.868  11.891   1.896 -0.0452  0.2569  0.3931
61074SOL     OW91999   8.080   2.888   8.671 -0.0171  0.3541  0.2198
61074SOL    HW192000   8.030   2.821   8.718 -0.3699 -0.3412 -1.0870
61074SOL    HW292001   8.162   2.895   8.719 -0.3821 -0.2826  0.9678
61075SOL     OW92002   0.188   5.261   6.433  0.3970  0.0718 -0.2960
61075SOL    HW192003   0.262   5.201   6.438  0.4166  0.1340  0.3432
61075SOL    HW292004   0.170   5.284   6.525 -0.9844 -0.6523 -0.3542
61076SOL     OW92005   7.102   2.338  12.270  0.6126  0.0862 -0.0517
61076SOL    HW192006   7.096   2.262  12.327 -0.4910 -0.1093 -0.4158
61076SOL    HW292007   7.079   2.412  12.327 -0.9941 -0.1632 -0.3383
61077SOL     OW92008  11.094   3.014   8.578 -0.2651 -0.4239 -0.3902
61077SOL    HW192009  11.184   3.037   8.602 -0.6772 -0.3623  1.2228
61077SOL    HW292010  11.068   3.080   8.515 -0.0328  1.1314  1.0769
61078SOL     OW92011   7.491   8.433   5.165  0.1015  0.0263  0.0062
61078SOL    HW192012   7.429   8.362   5.187  0.0491  0.4159  1.2010
61078SOL    HW292013   7.563   8.388   5.120  0.5821 -0.9905  1.6905
61079SOL     OW92014   2.438   9.433   9.023 -0.5537  0.2397  0.3999
61079SOL    HW192015   2.443   9.422   9.118 -0.6946  0.5944  0.4514
61079SOL    HW292016   2.381   9.509   9.011 -0.7937 -0.0007  0.0210
61080SOL     OW92017  11.705   9.735   4.269  0.2372  1.0703  0.1707
61080SOL    HW192018  11.790   9.693   4.254  0.3341  1.3500 -0.0656
61080SOL    HW292019  11.654   9.669   4.316  0.7941  1.1160  0.8735
61081SOL     OW92020   7.410   3.736   2.863 -0.7422 -0.2758  0.0358
61081SOL    HW192021   7.445   3.795   2.796 -0.1932 -0.8307 -0.1780
61081SOL    HW292022   7.328   3.703   2.827 -1.4981  1.0133  0.5228
61082SOL     OW92023   4.955   3.500   3.062 -0.4255 -0.2576  0.7601
61082SOL    HW192024   5.033   3.509   3.116 -0.6550  1.3948  0.8684
61082SOL    HW292025   4.963   3.568   2.996 -1.9075  0.1675  0.9710
61083SOL     OW92026  11.259   4.321   8.202  0.0639 -0.1242  0.1731
61083SOL    HW192027  11.284   4.235   8.167 -3.1853 -0.1271 -2.6299
61083SOL    HW292028  11.185   4.303   8.259  1.0571  0.6455  1.7804
61084SOL     OW92029   9.280   7.139   2.434  0.5916  0.4727  0.2574
61084SOL    HW192030   9.193   7.100   2.425  0.1316  1.7714 -1.4675
61084SOL    HW292031   9.281   7.177   2.521 -1.7211  2.9729 -0.6778
61085SOL     OW92032   4.956   2.472   5.823 -0.3495 -0.1834 -0.3563
61085SOL    HW192033   4.990   2.398   5.773  0.3509 -0.6630  0.7978
61085SOL    HW292034   4.913   2.433   5.898  0.1664  0.5741  0.3547
61086SOL     OW92035   7.613   1.746  12.224 -0.4742 -0.1069 -0.6522
61086SOL    HW192036   7.667   1.801  12.281 -1.1219  0.4872 -0.5981
61086SOL    HW292037   7.653   1.754  12.138 -1.3233  1.5259 -0.9284
61087SOL     OW92038   7.147  11.425   2.872  0.0099 -0.1430  0.2738
61087SOL    HW192039   7.175  11.378   2.951  1.7102 -0.6974 -0.5996
61087SOL    HW292040   7.140  11.516   2.900  0.0313 -0.4056  1.1907
61088SOL     OW92041   0.691   4.311  12.149 -0.0277  0.0905  0.3537
61088SOL    HW192042   0.652   4.227  12.172 -1.7601  0.5569 -0.7269
61088SOL    HW292043   0.712   4.303  12.055 -3.1835  1.8721 -0.6249
61089SOL     OW92044   0.685   3.209   7.227  0.3319 -0.7500 -0.5762
61089SOL    HW192045   0.713   3.146   7.160  1.3318 -0.6395 -0.2856
61089SOL    HW292046   0.708   3.294   7.190  1.4463 -0.7192  0.1330
61090SOL     OW92047   8.246  11.822   0.001  0.4685 -0.1252  0.1482
61090SOL    HW192048   8.244  11.862   0.088 -1.4147  0.5527 -0.1601
61090SOL    HW292049   8.273  11.894  -0.057  0.0396 -0.1095 -0.0349
61091SOL     OW92050   9.774   1.156   6.993 -0.2312 -0.1022 -0.0851
61091SOL    HW192051   9.810   1.070   7.012 -0.4207 -0.8155 -2.6014
61091SOL    HW292052   9.846   1.217   7.009 -0.1117 -0.6668  1.7574
61092SOL     OW92053   1.121   8.328   8.570 -0.7082  0.0952  0.3201
61092SOL    HW192054   1.125   8.234   8.551 -0.2638 -0.0291  0.9822
61092SOL    HW292055   1.098   8.332   8.663  0.2951  0.6119  0.5635
61093SOL     OW92056  12.081   2.921  11.558 -0.0282 -0.4138  0.0755
61093SOL    HW192057  12.146   2.973  11.511  0.8855  0.3796  2.0987
61093SOL    HW292058  12.000   2.972  11.549  0.3338  0.1846  0.1043
61094SOL     OW92059   1.405   1.259   8.368  0.0009 -0.1666 -0.6082
61094SOL    HW192060   1.417   1.164   8.371 -0.7078 -0.2999 -1.4838
61094SOL    HW292061   1.342   1.277   8.439 -0.4712 -0.4623 -0.9456
61095SOL     OW92062  11.669   1.211   2.030 -0.0607  0.4062  0.4765
61095SOL    HW192063  11.588   1.259   2.017 -0.4829 -0.2048  0.8044
61095SOL    HW292064  11.728   1.273   2.074  0.3742  1.5311 -1.5600
61096SOL     OW92065   2.038   3.132  11.842 -0.0748 -0.2800 -0.1401
61096SOL    HW192066   2.004   3.058  11.793  2.0154 -2.2603  1.2295
61096SOL    HW292067   2.062   3.197  11.775 -0.8946 -1.2796 -1.4369
61097SOL     OW92068   7.226   2.415   9.318  0.1076 -0.6575 -0.2208
61097SOL    HW192069   7.311   2.447   9.288 -0.8694 -0.5328 -3.2793
61097SOL    HW292070   7.175   2.406   9.237 -2.2070 -2.4468  1.3181
61098SOL     OW92071   3.237   3.120   7.438  0.0574  0.3323 -0.1439
61098SOL    HW192072   3.282   3.060   7.497 -0.4653 -1.2077 -1.2461
61098SOL    HW292073   3.193   3.063   7.375  1.0024  1.8868 -2.3365
61099SOL     OW92074   5.073  11.330   4.810  0.5475  0.5990  0.5987
61099SOL    HW192075   5.115  11.327   4.896  0.1078 -0.9697  0.7938
61099SOL    HW292076   5.094  11.417   4.776  1.2268  1.0288  2.0364
61100SOL     OW92077   1.292   8.002  12.092 -0.0125 -0.9456  0.0013
61100SOL    HW192078   1.295   8.095  12.112 -0.9701 -0.6182 -1.2364
61100SOL    HW292079   1.383   7.977  12.076  0.0701  0.3258 -1.8542
61101SOL     OW92080   6.225   9.989  10.673  0.5001  0.4326 -0.0245
61101SOL    HW192081   6.258   9.936  10.600 -1.1525 -1.8414  0.7774
61101SOL    HW292082   6.183   9.926  10.731 -2.1278  2.7107  0.7263
61102SOL     OW92083   4.366   4.071  10.877  0.1759  0.3416 -0.6111
61102SOL    HW192084   4.355   4.034  10.789 -0.7892 -0.2288 -0.2622
61102SOL    HW292085   4.290   4.128  10.888  0.4900  0.7021 -0.2833
61103SOL     OW92086  12.501  11.568   8.849 -0.0353 -0.2669  0.0409
61103SOL    HW192087  12.534  11.499   8.907 -0.2501 -1.9193 -1.6950
61103SOL    HW292088  12.461  11.521   8.776 -2.4442  1.7054 -0.0326
61104SOL     OW92089   5.841   8.620   8.901 -0.1478 -0.1396 -0.8151
61104SOL    HW192090   5.757   8.617   8.946  0.2634 -2.0257 -0.0819
61104SOL    HW292091   5.882   8.701   8.933 -0.9365 -0.1284  0.2337
61105SOL     OW92092   4.493   3.388   1.538 -0.5469 -0.0257 -0.2094
61105SOL    HW192093   4.570   3.332   1.528 -0.0261  0.6697 -0.1684
61105SOL    HW292094   4.524   3.462   1.589 -1.3719  0.0265  0.2338
61106SOL     OW92095   4.118   4.740  11.694 -0.1551 -0.1564  0.1745
61106SOL    HW192096   4.136   4.742  11.788  0.3210  0.8746  0.0656
61106SOL    HW292097   4.076   4.823  11.675  1.1466  0.3215 -0.7916
61107SOL     OW92098   2.226  10.127   7.764 -0.0575 -0.1055  0.6298
61107SOL    HW192099   2.302  10.069   7.768 -0.0582 -0.1043  0.6649
61107SOL    HW292100   2.219  10.151   7.672 -1.1615 -1.6302  0.2658
61108SOL     OW92101   3.042   6.024   7.713 -0.8760 -0.5755 -0.4180
61108SOL    HW192102   2.960   6.070   7.692 -0.3282  0.7052  0.1435
61108SOL    HW292103   3.072   5.990   7.629 -2.2924 -1.6137 -0.5340
61109SOL     OW92104   4.143   3.280  12.035  0.2766  0.0290 -0.6250
61109SOL    HW192105   4.085   3.286  11.959 -1.2003  1.3680  0.5488
61109SOL    HW292106   4.153   3.186  12.049 -0.4736 -0.2365 -1.6824
61110SOL     OW92107   9.999   2.844   8.546  0.1691  0.1941  0.4344
61110SOL    HW192108  10.005   2.753   8.576 -1.8961  0.1762  0.9112
61110SOL    HW292109  10.057   2.847   8.470  1.0646 -1.2449  0.9993
61111SOL     OW92110   5.343   6.504   7.423  0.1427  0.4138  0.0439
61111SOL    HW192111   5.334   6.575   7.487  1.0871  2.0497 -1.5392
61111SOL    HW292112   5.396   6.542   7.354 -0.8126 -1.2953 -1.7102
61112SOL     OW92113   9.219   6.206  11.436  0.1371 -0.4507 -0.0967
61112SOL    HW192114   9.192   6.202  11.345  1.2049  0.4929 -0.4846
61112SOL    HW292115   9.221   6.300  11.457  2.0271 -0.5042  0.1922
61113SOL     OW92116   6.564   6.209   3.921 -0.2760  0.0407  0.4722
61113SOL    HW192117   6.638   6.200   3.981  1.9698 -2.0299 -2.3372
61113SOL    HW292118   6.566   6.300   3.893  1.6737 -0.1061  0.0024
61114SOL     OW92119  11.645   2.158   0.689  0.5205  0.5333  0.4200
61114SOL    HW192120  11.673   2.084   0.743 -0.7934  0.3327  0.8502
61114SOL    HW292121  11.554   2.140   0.669  0.3780  1.7050 -0.0411
61115SOL     OW92122   9.366   3.860   2.384 -1.0202  0.2916  0.6045
61115SOL    HW192123   9.325   3.858   2.298  0.3842  1.0257 -0.1172
61115SOL    HW292124   9.455   3.829   2.369 -1.0826 -0.6699  2.0172
61116SOL     OW92125   2.023   0.235   7.358 -0.0199  0.2458  0.3353
61116SOL    HW192126   2.119   0.234   7.361 -0.0329 -0.2439  0.5961
61116SOL    HW292127   2.002   0.283   7.278  0.4536 -0.2264 -0.0782
61117SOL     OW92128   4.230   8.232   2.788 -0.3515 -0.1769  0.3786
61117SOL    HW192129   4.320   8.207   2.809  1.1737  1.4842 -3.2007
61117SOL    HW292130   4.218   8.203   2.697 -2.3993  2.0564 -0.1629
61118SOL     OW92131   6.038  11.907   6.147  0.2024 -0.2281 -0.4334
61118SOL    HW192132   5.946  11.881   6.145  0.2688 -0.6630  0.9077
61118SOL    HW292133   6.044  11.981   6.087 -0.6004 -1.4599 -2.0942
61119SOL     OW92134   9.433   1.600   8.314  0.2386 -0.4300  0.3841
61119SOL    HW192135   9.454   1.642   8.397  0.1809 -0.3043  0.3364
61119SOL    HW292136   9.505   1.624   8.256  0.2131 -0.4099  0.3614
61120SOL     OW92137   9.904  11.700   2.757  0.4743  0.4832  0.4199
61120SOL    HW192138   9.977  11.736   2.807  2.0484 -1.2895 -0.4449
61120SOL    HW292139   9.934  11.700   2.666 -0.3109 -0.9147  0.1232
61121SOL     OW92140   9.354   7.088   8.131  0.5610  0.0032  0.2035
61121SOL    HW192141   9.292   7.029   8.173  2.2790 -1.4840  0.8073
61121SOL    HW292142   9.359   7.057   8.041 -0.0499  0.5460 -0.0210
61122SOL     OW92143   4.771   8.780  11.450 -0.1452 -0.1624 -0.4994
61122SOL    HW192144   4.801   8.802  11.362  0.7640  0.1134 -0.1289
61122SOL    HW292145   4.743   8.689  11.443  1.2422 -0.5955 -0.7564
61123SOL     OW92146  10.426  11.936   9.468 -0.1911 -0.4134 -0.1732
61123SOL    HW192147  10.468  12.000   9.526  2.8037 -3.0425  0.8939
61123SOL    HW292148  10.333  11.943   9.487  0.1091  2.6966  0.7321
61124SOL     OW92149   4.738   0.760  10.813 -0.2314 -0.0747 -0.1100
61124SOL    HW192150   4.744   0.840  10.760 -1.0079 -0.5095 -0.9008
61124SOL    HW292151   4.684   0.785  10.888  0.0858  0.3095 -0.0049
61125SOL     OW92152  11.361   7.711   0.270  0.0581  0.2083 -0.0371
61125SOL    HW192153  11.409   7.642   0.316 -0.5465 -0.8596 -0.9659
61125SOL    HW292154  11.280   7.721   0.321  1.4954  2.5870  2.0161
61126SOL     OW92155  10.157   3.798   2.680  0.3798 -0.0556 -0.2611
61126SOL    HW192156  10.226   3.859   2.708  1.4485 -1.3827  0.0878
61126SOL    HW292157  10.143   3.819   2.588 -0.7111  2.0414  0.2997
61127SOL     OW92158  11.558   5.310   7.723  0.5795 -0.0443  0.0242
61127SOL    HW192159  11.590   5.226   7.756  2.6518  0.2374 -1.0969
61127SOL    HW292160  11.547   5.364   7.801  1.4603 -0.6415  0.5770
61128SOL     OW92161   9.134   1.016   3.885 -0.1743  0.1192  0.0793
61128SOL    HW192162   9.229   1.021   3.869 -0.3096  0.8435 -0.5739
61128SOL    HW292163   9.109   0.929   3.854  0.3217 -0.1856  0.5208
61129SOL     OW92164   5.606   5.000   3.034 -0.9483 -0.2933 -0.0822
61129SOL    HW192165   5.685   4.995   3.088 -0.6155 -0.3088 -0.5712
61129SOL    HW292166   5.578   5.091   3.041  1.2939  0.7566 -2.9847
61130SOL     OW92167   0.295   6.071   1.018  0.2700  0.4037  0.4871
61130SOL    HW192168   0.212   6.119   1.026 -0.7701 -1.1790 -0.2416
61130SOL    HW292169   0.291   6.032   0.931  0.7391 -1.5768  1.3180
61131SOL     OW92170   3.053   5.528   6.417 -0.3011  0.1425 -0.1209
61131SOL    HW192171   3.109   5.561   6.487 -2.7626  0.4232  1.8651
61131SOL    HW292172   3.056   5.432   6.427 -0.4705  0.1721  0.2084
61132SOL     OW92173   0.361   6.711   0.897  0.0800  0.1716  0.1766
61132SOL    HW192174   0.277   6.721   0.942 -0.7343  2.1739 -1.5995
61132SOL    HW292175   0.393   6.625   0.925 -3.1213 -1.2118  0.0347
61133SOL     OW92176   2.550   7.462  10.472 -0.3484  0.5472  0.5211
61133SOL    HW192177   2.462   7.479  10.439 -0.2254 -0.2221 -0.2182
61133SOL    HW292178   2.572   7.374  10.440  0.7932  0.8380  0.4553
61134SOL     OW92179   3.278   1.628  10.819 -0.1443 -0.3508 -0.3152
61134SOL    HW192180   3.365   1.666  10.806 -1.2247  2.4000 -0.1902
61134SOL    HW292181   3.217   1.699  10.798 -2.3252 -1.0279  2.9484
61135SOL     OW92182   2.868   4.152  11.174 -0.1492 -0.1498  0.3685
61135SOL    HW192183   2.902   4.073  11.216 -0.4605 -0.5501 -0.1212
61135SOL    HW292184   2.938   4.217  11.185 -0.9498  0.3481  3.1584
61136SOL     OW92185   2.372   1.706   6.009 -0.1746  0.2439  0.0568
61136SOL    HW192186   2.382   1.799   6.029 -1.2436  0.4819 -0.4471
61136SOL    HW292187   2.460   1.678   5.982 -0.0204  1.3236 -0.6376
61137SOL     OW92188  10.651   0.963  11.868 -0.1922 -0.3884 -0.1548
61137SOL    HW192189  10.581   0.997  11.924 -0.4770 -0.4086 -0.4917
61137SOL    HW292190  10.693   0.895  11.921 -0.3908 -0.3359  0.0736
61138SOL     OW92191   2.881   1.867   1.583  0.0172 -0.2299  0.0957
61138SOL    HW192192   2.822   1.793   1.570  2.3406 -2.3780  0.7867
61138SOL    HW292193   2.902   1.896   1.494 -2.2161  0.7757 -0.1490
61139SOL     OW92194   7.439   1.556   7.020 -0.0683  0.1620 -0.1391
61139SOL    HW192195   7.489   1.634   6.998  1.3923 -0.0180  2.1338
61139SOL    HW292196   7.349   1.585   7.026  0.2850  1.3827 -0.5523
61140SOL     OW92197   7.285   3.056   7.157 -0.3994 -0.3323 -0.4947
61140SOL    HW192198   7.300   3.085   7.247 -1.9586 -0.5402 -0.1410
61140SOL    HW292199   7.357   2.994   7.140  0.3195  0.2504  0.3413
61141SOL     OW92200   8.292  12.045  12.424 -0.0838  0.1543 -0.1826
61141SOL    HW192201   8.211  12.081  12.388 -0.4747 -0.8079 -0.3057
61141SOL    HW292202   8.317  12.107  12.492 -1.9632 -0.4616  1.1717
61142SOL     OW92203   5.075   9.332   1.611  0.2653  0.2479  0.2677
61142SOL    HW192204   5.151   9.327   1.554 -1.7084  2.1242 -2.8211
61142SOL    HW292205   5.102   9.387   1.684  2.4915 -1.1156  0.5558
61143SOL     OW92206   4.518   3.336  12.342  0.1348 -0.0208  0.0750
61143SOL    HW192207   4.544   3.371  12.257  1.5320 -0.1037  0.4397
61143SOL    HW292208   4.592   3.356  12.400 -0.6138 -0.3236  1.1748
61144SOL     OW92209   6.145   2.627   2.924  0.5841  0.8243  0.0787
61144SOL    HW192210   6.115   2.557   2.866  0.6442  0.9822 -0.1441
61144SOL    HW292211   6.152   2.704   2.867  0.5401  1.0050  0.3175
61145SOL     OW92212   9.113   9.361   0.793 -0.1839 -0.5564 -0.0340
61145SOL    HW192213   9.152   9.275   0.776 -0.1371 -0.6779  0.6245
61145SOL    HW292214   9.027   9.341   0.830 -0.2966 -0.3110 -0.1652
61146SOL     OW92215   6.363   9.237   2.133  0.1545  0.0225 -0.0642
61146SOL    HW192216   6.365   9.145   2.157  0.1557 -0.2077 -0.9207
61146SOL    HW292217   6.306   9.278   2.198  0.0509 -0.5977  0.2379
61147SOL     OW92218   6.814   6.001  10.808 -0.0768  0.0432  0.1267
61147SOL    HW192219   6.828   5.999  10.713 -1.3051  0.4307 -0.0772
61147SOL    HW292220   6.856   6.082  10.837 -2.9998  2.0098 -0.7036
61148SOL     OW92221   8.522   2.867   4.031  0.1168 -0.3878 -0.4710
61148SOL    HW192222   8.436   2.846   3.995 -0.4911 -2.6794  2.0175
61148SOL    HW292223   8.505   2.922   4.106  0.9152 -0.1241 -0.4674
61149SOL     OW92224   3.994   3.256  11.285 -0.0137  0.5455 -1.1597
61149SOL    HW192225   4.002   3.349  11.304 -2.9597  0.4838  1.3245
61149SOL    HW292226   4.038   3.213  11.359 -2.3543  0.1330  0.0992
61150SOL     OW92227   0.084  11.339   6.933  0.5443  0.6385  0.3273
61150SOL    HW192228   0.172  11.355   6.898  0.1896  1.5313 -0.1736
61150SOL    HW292229   0.100  11.307   7.022  1.3578  1.7563  0.6076
61151SOL     OW92230   4.129   8.835   8.114  0.2014 -0.6591 -0.1901
61151SOL    HW192231   4.203   8.775   8.122 -0.3598 -1.1469  2.2065
61151SOL    HW292232   4.121   8.874   8.201 -0.8925  1.1850 -1.0583
61152SOL     OW92233   1.326   6.454   1.481  0.1844 -0.0394 -0.4486
61152SOL    HW192234   1.323   6.451   1.577 -3.6740  0.0119 -0.4101
61152SOL    HW292235   1.264   6.524   1.458 -0.9315 -1.7409 -2.9724
61153SOL     OW92236   0.962   1.016  10.104 -0.1855 -0.3927 -0.2304
61153SOL    HW192237   0.949   0.927  10.072  1.5448 -0.7813  0.0474
61153SOL    HW292238   0.917   1.017  10.189 -1.5350 -0.4968 -0.9076
61154SOL     OW92239   9.356   2.602   6.538 -0.0755  0.2099 -0.1783
61154SOL    HW192240   9.267   2.600   6.505  0.2150  2.8117 -1.3756
61154SOL    HW292241   9.408   2.641   6.467  1.9813 -0.8874  0.6096
61155SOL     OW92242  12.048  12.288   5.068 -0.0525  0.0373 -0.4847
61155SOL    HW192243  12.065  12.231   4.993  0.5562 -0.2612 -0.1184
61155SOL    HW292244  11.955  12.273   5.088 -0.7571  1.4976 -2.3263
61156SOL     OW92245  10.201   9.303   3.271 -0.2650  0.3414 -0.2902
61156SOL    HW192246  10.216   9.299   3.366  0.9752  2.2212 -0.3460
61156SOL    HW292247  10.270   9.249   3.234  0.1846  0.8186 -0.1617
61157SOL     OW92248   4.331   4.969  11.950  0.3562 -0.0297 -0.6445
61157SOL    HW192249   4.401   5.008  12.003 -2.3392  2.9990  1.0713
61157SOL    HW292250   4.348   5.000  11.862  0.9061  1.1092 -0.1632
61158SOL     OW92251   5.230   3.305   4.960 -0.4103  0.1324  0.1605
61158SOL    HW192252   5.302   3.366   4.941 -0.0406 -0.1179  0.7464
61158SOL    HW292253   5.151   3.353   4.934 -0.0108  0.2535 -0.8818
61159SOL     OW92254   2.147   5.346   8.580  0.1128 -0.2610  0.5023
61159SOL    HW192255   2.099   5.270   8.547  1.7715 -0.4935 -1.5958
61159SOL    HW292256   2.153   5.405   8.505  1.0942  0.7729  1.3613
61160SOL     OW92257   5.536   8.392   9.694 -0.3498  0.0758  0.1567
61160SOL    HW192258   5.631   8.399   9.708 -0.3752  0.2547  0.2343
61160SOL    HW292259   5.498   8.458   9.752 -0.5848 -0.7077  0.9077
61161SOL     OW92260  10.913   1.540   2.999  0.2469  0.3916 -0.0520
61161SOL    HW192261  10.894   1.464   3.054  0.6156  0.1932 -0.1958
61161SOL    HW292262  11.008   1.541   2.991  0.1680  0.0281 -1.2303
61162SOL     OW92263  12.603   0.652   4.620 -0.0955  0.5277  0.4284
61162SOL    HW192264  12.611   0.691   4.707  0.6766 -1.4920  1.3434
61162SOL    HW292265  12.510   0.633   4.611 -0.2860  1.4165  0.5055
61163SOL     OW92266  11.998   0.051   4.440  0.0934 -0.5078  0.1341
61163SOL    HW192267  11.957   0.037   4.525  1.0561  1.1792  0.9158
61163SOL    HW292268  11.944  -0.000   4.379  0.7447 -3.6751  2.0187
61164SOL     OW92269  10.855   0.093  11.104 -0.3249  0.0861 -0.1955
61164SOL    HW192270  10.764   0.096  11.135 -0.2136  0.0112  0.1516
61164SOL    HW292271  10.907   0.097  11.185 -0.0344 -1.2414 -0.2963
61165SOL     OW92272   5.367   7.137  10.238 -0.2845 -0.1821  0.2892
61165SOL    HW192273   5.358   7.071  10.307 -0.6503 -0.1680  0.2599
61165SOL    HW292274   5.379   7.220  10.284 -0.5483 -0.1701  0.3378
61166SOL     OW92275  12.156   5.887   6.603  0.9395  0.3301  0.4218
61166SOL    HW192276  12.123   5.972   6.573 -2.1474 -1.1069 -0.7665
61166SOL    HW292277  12.159   5.833   6.524  1.4721 -1.0414  1.3320
61167SOL     OW92278   5.090   2.421   7.533  0.0719 -0.6574  0.0617
61167SOL    HW192279   5.164   2.458   7.486 -0.2578 -0.2826 -0.1743
61167SOL    HW292280   5.053   2.494   7.583 -0.6686 -0.6172 -0.5172
61168SOL     OW92281   0.755   0.536   8.034  0.4428 -0.0253 -0.3918
61168SOL    HW192282   0.699   0.458   8.023  2.7261 -2.0950  1.5208
61168SOL    HW292283   0.694   0.605   8.060 -1.9389 -0.5667 -3.8379
61169SOL     OW92284   1.655   9.926   1.567  0.1871 -0.1842  0.4998
61169SOL    HW192285   1.709   9.988   1.518 -0.3182 -0.3683 -0.2984
61169SOL    HW292286   1.565   9.952   1.548 -0.1084 -2.2128 -1.3064
61170SOL     OW92287   5.575   4.517   1.943 -0.7089  0.5319 -0.3646
61170SOL    HW192288   5.615   4.598   1.974  1.1004 -0.9550  1.4718
61170SOL    HW292289   5.497   4.507   1.997  0.1522  0.1029  0.8615
61171SOL     OW92290   6.079   2.427   2.758  0.1987 -0.2612 -0.1076
61171SOL    HW192291   6.072   2.470   2.672 -1.7171 -1.2910 -0.5145
61171SOL    HW292292   6.009   2.362   2.758  1.8299 -2.1276  1.2214
61172SOL     OW92293   4.783   6.235   5.750  0.2565 -0.6505 -0.0505
61172SOL    HW192294   4.866   6.189   5.735 -0.0188 -0.8975 -0.8278
61172SOL    HW292295   4.808   6.312   5.802  0.6764 -1.8171  1.5451
61173SOL     OW92296   9.178   4.493   0.935  0.8562 -0.1141  0.2848
61173SOL    HW192297   9.265   4.469   0.967  0.2555 -0.8966  1.3679
61173SOL    HW292298   9.168   4.585   0.960  1.3459 -0.0221  0.1666
61174SOL     OW92299  10.500   1.912  10.063 -0.0126  0.1760 -0.3975
61174SOL    HW192300  10.523   1.860   9.986  1.7889 -1.5780  1.2046
61174SOL    HW292301  10.423   1.870  10.099 -1.5135  1.6407 -1.7429
61175SOL     OW92302   0.449   2.634   6.961  0.0468 -0.3636  0.1974
61175SOL    HW192303   0.509   2.625   6.887 -0.1190  0.3620 -0.0298
61175SOL    HW292304   0.485   2.706   7.013 -1.3303  0.9911 -0.6444
61176SOL     OW92305   1.174   5.023   0.616 -0.1543  0.2879  0.2526
61176SOL    HW192306   1.264   5.054   0.625 -0.6479  1.3914  1.9776
61176SOL    HW292307   1.121   5.102   0.626 -1.4061 -0.7620  2.7804
61177SOL     OW92308   1.416   3.901   7.271 -0.3324  0.3201 -0.0117
61177SOL    HW192309   1.476   3.975   7.265  0.3865 -0.1425  1.2699
61177SOL    HW292310   1.463   3.834   7.320 -2.0882  0.1714  1.5940
61178SOL     OW92311  11.328   2.888   7.384  0.3455 -0.2612  0.2006
61178SOL    HW192312  11.235   2.892   7.406  0.2761  1.7935 -0.2325
61178SOL    HW292313  11.331   2.846   7.298 -0.2419 -0.0109  0.0522
61179SOL     OW92314   3.684  10.245   5.859  0.4538  0.4942 -0.5634
61179SOL    HW192315   3.765  10.200   5.833  0.8082  1.4240 -1.1089
61179SOL    HW292316   3.679  10.321   5.802 -1.8657 -0.5739 -1.9727
61180SOL     OW92317  10.384  12.352   2.919 -0.0046  0.5029 -0.0645
61180SOL    HW192318  10.355  12.392   2.838  1.2475  2.0656  0.2144
61180SOL    HW292319  10.372  12.420   2.985  1.6575  0.2607  0.5319
61181SOL     OW92320   3.299   5.638   7.051  0.4643  0.0909 -0.0469
61181SOL    HW192321   3.353   5.589   7.113  0.6839  1.5328  0.9488
61181SOL    HW292322   3.231   5.679   7.104 -1.1166 -0.9482 -1.1674
61182SOL     OW92323   4.193   4.849   3.006 -0.6712  0.2866  0.1981
61182SOL    HW192324   4.270   4.794   2.993  0.3123  0.9888  2.5154
61182SOL    HW292325   4.146   4.844   2.923  1.8655 -0.1632 -1.3255
61183SOL     OW92326   4.486  11.401   5.738 -0.3710  0.0400 -0.2529
61183SOL    HW192327   4.502  11.383   5.831  2.1258  3.0078  0.0577
61183SOL    HW292328   4.428  11.478   5.738 -2.7146 -1.5933 -1.3163
61184SOL     OW92329  10.894   6.822   0.996 -1.1952 -0.4948  0.3209
61184SOL    HW192330  10.813   6.803   0.949  0.1602  0.6171 -2.6678
61184SOL    HW292331  10.875   6.796   1.087 -4.6630 -0.7985 -0.3500
61185SOL     OW92332   0.866   7.337   2.097 -0.7315 -0.1032  0.4086
61185SOL    HW192333   0.959   7.356   2.088 -1.3603  3.1806 -0.6142
61185SOL    HW292334   0.858   7.289   2.179  1.8724 -0.9410  0.2481
61186SOL     OW92335   0.693   1.247   8.912 -0.4484 -0.4882 -0.4185
61186SOL    HW192336   0.783   1.243   8.945 -0.9215 -2.0938  0.7831
61186SOL    HW292337   0.701   1.225   8.819  0.4185 -0.4460 -0.3654
61187SOL     OW92338  10.803   5.541   5.220  0.5365  0.9571 -0.0945
61187SOL    HW192339  10.882   5.505   5.259  0.1039 -0.1511 -0.2079
61187SOL    HW292340  10.800   5.632   5.251  2.3268  1.3038 -0.8166
61188SOL     OW92341   8.393   0.636  11.164 -0.0838 -0.0530 -0.3646
61188SOL    HW192342   8.456   0.694  11.208 -0.0147 -1.6283  1.8309
61188SOL    HW292343   8.346   0.594  11.236  0.4366 -3.2949 -1.7210
61189SOL     OW92344   0.522  12.295   7.281 -0.9906 -0.0466  0.3658
61189SOL    HW192345   0.433  12.321   7.303 -1.2842 -2.1469  2.0176
61189SOL    HW292346   0.523  12.200   7.296  0.7616 -0.5854 -2.3291
61190SOL     OW92347   3.308   7.094   2.247 -0.7704 -0.2985 -0.1430
61190SOL    HW192348   3.256   7.015   2.258 -0.7320 -0.7700 -2.7298
61190SOL    HW292349   3.278   7.153   2.316 -2.5218 -1.6877  0.3414
61191SOL     OW92350   3.095   3.495   9.569 -0.1648 -0.4302  0.7883
61191SOL    HW192351   3.049   3.482   9.486 -0.5811  0.2403  0.9020
61191SOL    HW292352   3.183   3.461   9.553  0.4201  1.5576 -0.6229
61192SOL     OW92353   3.725  12.042   3.029  0.3711  0.3064  0.2450
61192SOL    HW192354   3.745  11.957   2.989 -0.8336  0.1518 -0.0660
61192SOL    HW292355   3.784  12.048   3.104  0.8862 -0.5402 -0.0802
61193SOL     OW92356   2.838   6.584   4.290  0.8242  0.6333  0.0951
61193SOL    HW192357   2.903   6.515   4.305 -1.6089 -1.8406  0.1353
61193SOL    HW292358   2.767   6.540   4.244 -1.0068  3.0963  0.3587
61194SOL     OW92359   9.039   5.920   5.078 -0.7809 -0.2040  0.3875
61194SOL    HW192360   9.018   5.828   5.091  0.6218 -0.3699  1.7611
61194SOL    HW292361   9.077   5.948   5.161 -1.8637  1.8341  0.2797
61195SOL     OW92362   5.299   8.750   3.576 -0.8336  0.6196 -0.0442
61195SOL    HW192363   5.241   8.748   3.499 -0.4895 -0.8762 -0.2931
61195SOL    HW292364   5.375   8.698   3.550 -1.1870 -0.8580  1.6709
61196SOL     OW92365   4.014   3.963  12.133 -0.1106 -0.4754 -0.3670
61196SOL    HW192366   4.030   4.020  12.058 -1.1484  0.3788  0.0376
61196SOL    HW292367   4.082   3.895  12.127  0.5772  0.2820 -1.3674
61197SOL     OW92368   6.643   5.809   3.436 -0.6364  0.0512 -0.3331
61197SOL    HW192369   6.698   5.772   3.367 -0.4802  0.1941 -0.2855
61197SOL    HW292370   6.608   5.733   3.482 -1.7413 -0.0889 -1.3453
61198SOL     OW92371   0.395   3.683  10.877 -0.0839  0.2907 -0.3164
61198SOL    HW192372   0.437   3.600  10.899  0.7473  0.4678 -1.2114
61198SOL    HW292373   0.451   3.750  10.917 -0.5468  0.4549  0.0786
61199SOL     OW92374   4.333   5.885   6.269 -0.0008  0.0528 -0.4697
61199SOL    HW192375   4.318   5.790   6.265  1.7800 -0.4983  2.7758
61199SOL    HW292376   4.419   5.897   6.228  0.8274 -0.1175  1.1626
61200SOL     OW92377   2.686   7.342   2.143  0.3516 -0.1592  0.1296
61200SOL    HW192378   2.628   7.284   2.094 -0.1744 -0.1156  0.6867
61200SOL    HW292379   2.642   7.427   2.143 -0.2925 -0.4419  1.6965
61201SOL     OW92380   4.971   4.307   1.783 -0.0968  0.1921  0.7464
61201SOL    HW192381   4.915   4.377   1.817 -0.2216 -0.3903  1.7846
61201SOL    HW292382   4.923   4.272   1.708 -1.3042 -0.5136  1.8135
61202SOL     OW92383   5.196   3.368   0.475 -0.0543 -0.6516 -0.4555
61202SOL    HW192384   5.261   3.385   0.408  0.8167  0.3500  0.5947
61202SOL    HW292385   5.238   3.394   0.557 -1.8535  0.2925  0.2400
61203SOL     OW92386   7.170   1.967   6.293  0.6807 -0.4293  0.1372
61203SOL    HW192387   7.261   1.940   6.288  1.1452  1.1377 -3.3816
61203SOL    HW292388   7.122   1.896   6.250  1.0863  1.0935 -3.1228
61204SOL     OW92389   0.531   1.047  10.014 -0.1351 -0.6007 -0.3101
61204SOL    HW192390   0.538   1.140  10.038 -0.7352 -0.1160 -1.8927
61204SOL    HW292391   0.441   1.023  10.039 -0.1943 -0.5778 -0.5036
61205SOL     OW92392   0.266   6.656   1.736 -0.3341 -0.5575  0.3334
61205SOL    HW192393   0.293   6.662   1.644  0.5711  0.2667  0.6412
61205SOL    HW292394   0.341   6.617   1.780 -0.9469 -1.3985  0.6612
61206SOL     OW92395   6.694  12.051   5.515 -0.4608 -0.3257 -0.0412
61206SOL    HW192396   6.664  12.139   5.491 -0.6597 -0.4014 -0.0697
61206SOL    HW292397   6.643  11.992   5.459 -0.5623 -0.4748  0.2055
61207SOL     OW92398   7.059   1.654  12.202 -0.0574  0.4482  0.9745
61207SOL    HW192399   7.024   1.623  12.119 -0.0517 -0.4636  1.3019
61207SOL    HW292400   7.134   1.596  12.219  0.2449  0.9492  1.3665
61208SOL     OW92401   6.315  10.791   8.325  0.1808  0.4494 -0.1556
61208SOL    HW192402   6.298  10.835   8.408 -1.9302  1.1977 -0.8947
61208SOL    HW292403   6.257  10.835   8.262  1.7259 -0.0557 -2.0535
61209SOL     OW92404   1.380   0.083   2.203 -0.1744  0.0167 -0.1009
61209SOL    HW192405   1.441   0.038   2.261  3.1162  1.8143 -1.8566
61209SOL    HW292406   1.360   0.020   2.134  0.0171 -0.4566  0.2754
61210SOL     OW92407   1.048  11.735   2.388 -0.1095  0.3189  0.3259
61210SOL    HW192408   1.014  11.823   2.403 -2.7363 -0.6148  0.3844
61210SOL    HW292409   1.055  11.697   2.476 -3.6543 -1.0377  0.1809
61211SOL     OW92410  12.460   0.198   9.012 -0.8776 -0.2380  0.5421
61211SOL    HW192411  12.472   0.215   8.919 -0.9123 -2.0774  0.1461
61211SOL    HW292412  12.473   0.282   9.055 -2.1009  0.9038 -1.2202
61212SOL     OW92413   8.343   7.778  12.485 -0.0157 -0.2573 -1.0236
61212SOL    HW192414   8.273   7.759  12.547  0.1587  1.3666 -0.2816
61212SOL    HW292415   8.405   7.705  12.495  0.0972  0.0645  0.8666
61213SOL     OW92416   7.071   4.592   9.462  0.3100  0.2376  0.2339
61213SOL    HW192417   7.111   4.645   9.394  1.0578  1.4847  1.5969
61213SOL    HW292418   7.133   4.594   9.534 -0.4194 -1.1274  0.9477
61214SOL     OW92419   5.656   7.556   7.771  0.0308  0.1774 -0.5550
61214SOL    HW192420   5.668   7.519   7.858 -0.5972  2.9197  0.8000
61214SOL    HW292421   5.745   7.571   7.739  0.2731  0.0877  0.0548
61215SOL     OW92422   6.373   9.715   3.326  0.1791  0.6488  0.2307
61215SOL    HW192423   6.314   9.689   3.256  1.9302 -1.9745 -0.4108
61215SOL    HW292424   6.448   9.754   3.280 -0.1323  2.1545  0.9202
61216SOL     OW92425   0.351   1.211   6.976 -0.3052 -0.4516  0.3770
61216SOL    HW192426   0.394   1.146   7.030 -0.8299 -0.6364  0.5830
61216SOL    HW292427   0.258   1.191   6.984 -0.4044 -0.3219 -0.3938
61217SOL     OW92428   3.767   1.307   5.682  0.0265  0.2069  0.3035
61217SOL    HW192429   3.777   1.213   5.663  1.3293  0.3337  0.3304
61217SOL    HW292430   3.832   1.350   5.627 -0.0326  1.0457  0.8793
61218SOL     OW92431   2.280   9.387   6.065  0.1704 -0.3895  0.5540
61218SOL    HW192432   2.252   9.314   6.010 -2.0192  0.3334  0.6424
61218SOL    HW292433   2.258   9.359   6.154 -2.4848  1.0613  0.4397
61219SOL     OW92434   5.303  10.225   7.205 -0.1098 -0.0581 -0.2773
61219SOL    HW192435   5.391  10.255   7.182 -0.1113  0.8947  0.8863
61219SOL    HW292436   5.316  10.168   7.280 -0.5729  0.9667  0.6013
61220SOL     OW92437  11.546   7.374  10.613  0.2855 -0.2477 -0.3543
61220SOL    HW192438  11.525   7.354  10.704  1.6049 -1.3274 -0.2588
61220SOL    HW292439  11.539   7.291  10.568  0.2900  0.1566 -1.1156
61221SOL     OW92440   4.401  11.673   0.197 -0.2445 -0.2853 -0.0168
61221SOL    HW192441   4.308  11.687   0.179  0.1451  1.0680 -1.1683
61221SOL    HW292442   4.423  11.743   0.259  0.0019 -0.6361  0.2943
61222SOL     OW92443   3.499   6.239   6.182 -0.0647 -0.3109  0.1842
61222SOL    HW192444   3.503   6.207   6.272 -1.2202 -2.2739 -0.3967
61222SOL    HW292445   3.582   6.211   6.143 -0.5627 -1.6323  0.0201
61223SOL     OW92446   0.953   1.752  10.077  0.6791 -0.3945  0.1965
61223SOL    HW192447   0.937   1.762   9.983 -0.2232 -1.1586  0.2585
61223SOL    HW292448   1.048   1.764  10.086  1.1291 -2.4628 -1.1226
61224SOL     OW92449   2.501   1.079   9.558 -0.2923 -0.1267  0.0463
61224SOL    HW192450   2.475   1.168   9.536 -0.0366  0.4438  1.9592
61224SOL    HW292451   2.462   1.063   9.644  3.6414 -0.0694  2.0313
61225SOL     OW92452  11.105  10.950  10.234 -0.4590  0.3908  0.1554
61225SOL    HW192453  11.195  10.982  10.222 -0.6891  0.9802 -0.0230
61225SOL    HW292454  11.093  10.949  10.329 -0.4625  0.8906  0.1652
61226SOL     OW92455   0.384   6.344   0.435  0.2417 -0.1586  0.1283
61226SOL    HW192456   0.426   6.367   0.518 -0.3725 -0.2958  0.4852
61226SOL    HW292457   0.396   6.421   0.379  2.2446 -0.7255 -0.3016
61227SOL     OW92458   5.923   2.451   3.663 -0.5386  0.1421 -0.0017
61227SOL    HW192459   5.852   2.501   3.705 -0.6878  0.3894 -0.5358
61227SOL    HW292460   5.945   2.502   3.585  1.1909  0.8016  0.8612
61228SOL     OW92461   4.787   5.294   0.338 -0.3262 -0.5844 -0.0347
61228SOL    HW192462   4.753   5.381   0.361 -0.1128 -0.4732 -0.1300
61228SOL    HW292463   4.803   5.251   0.422  0.3320 -0.2284  0.0331
61229SOL     OW92464  10.177   1.861  11.074 -0.1474 -0.6099  0.1243
61229SOL    HW192465  10.211   1.827  10.991  0.8331  0.1827  0.1767
61229SOL    HW292466  10.110   1.925  11.049 -0.2200 -0.7510 -0.0410
61230SOL     OW92467   2.658  10.603   1.009  0.1922  0.8455 -0.0732
61230SOL    HW192468   2.574  10.646   0.993 -1.0869 -1.3078  0.3432
61230SOL    HW292469   2.717  10.639   0.943 -1.2420  1.9545 -0.8100
61231SOL     OW92470  11.330   8.544  11.290  0.4063  0.1730  0.3594
61231SOL    HW192471  11.404   8.576  11.342  0.9519  0.6059 -0.6529
61231SOL    HW292472  11.369   8.522  11.205 -0.1244 -2.1782  0.6489
61232SOL     OW92473   9.720  12.440  12.552 -0.1991  1.0756 -0.5290
61232SOL    HW192474   9.710  12.347  12.572  1.0248  1.0528  0.0711
61232SOL    HW292475   9.766  12.476  12.628 -0.5590  2.1550 -0.8067
61233SOL     OW92476   1.921   3.755   9.235  0.2643  0.2698 -0.4781
61233SOL    HW192477   1.920   3.850   9.241  0.7419  0.2541 -0.1349
61233SOL    HW292478   1.839   3.727   9.276  0.3260  0.5146 -0.1844
61234SOL     OW92479  10.317  10.732   9.516 -0.4232  0.3582 -0.3495
61234SOL    HW192480  10.381  10.778   9.461 -1.4808  1.1583 -0.9759
61234SOL    HW292481  10.283  10.663   9.459 -0.4545  0.2406 -0.1864
61235SOL     OW92482  10.370   7.026   6.902 -0.1337  0.5174 -0.4989
61235SOL    HW192483  10.379   6.931   6.912  0.4323  0.5077 -1.0316
61235SOL    HW292484  10.397   7.062   6.987 -1.7300  0.1504  0.2028
61236SOL     OW92485   5.659   3.942   4.635  0.3699  0.5492  0.4167
61236SOL    HW192486   5.752   3.944   4.658  0.5846 -1.8167 -0.0516
61236SOL    HW292487   5.658   3.940   4.540 -0.1898  0.8892  0.4095
61237SOL     OW92488   2.481   6.940  11.583 -0.1163 -0.3177 -0.2428
61237SOL    HW192489   2.518   6.859  11.549 -1.2568 -1.0782  0.2602
61237SOL    HW292490   2.472   6.996  11.505  2.9095  0.3078 -0.2591
61238SOL     OW92491   9.911   4.292   8.026 -0.2238 -0.2174 -0.0889
61238SOL    HW192492   9.956   4.209   8.044 -1.9238 -1.2682 -0.4265
61238SOL    HW292493   9.818   4.269   8.023 -0.5973  1.2413 -2.5735
61239SOL     OW92494   2.392   0.748   4.738 -0.2561  0.5562  0.2788
61239SOL    HW192495   2.435   0.774   4.657  2.4558 -1.5201  0.9058
61239SOL    HW292496   2.343   0.670   4.715 -0.7081  0.8223  0.3343
61240SOL     OW92497   1.931   5.462  11.334 -0.3965 -0.0335  0.7341
61240SOL    HW192498   1.900   5.535  11.389  1.7129 -0.2055  2.2600
61240SOL    HW292499   1.851   5.426  11.296 -1.8370  1.0118  2.5771
61241SOL     OW92500   0.764  12.327   6.321  0.3976 -0.1513 -0.1124
61241SOL    HW192501   0.806  12.412   6.328  0.7819 -0.3616  0.1908
61241SOL    HW292502   0.818  12.269   6.375 -0.5204 -0.3478  0.6017
61242SOL     OW92503   4.096   2.284   9.222 -0.4120 -0.2011  0.0115
61242SOL    HW192504   4.176   2.261   9.270 -0.8898 -1.4389  0.2400
61242SOL    HW292505   4.047   2.203   9.216  0.2376 -0.4945 -3.8785
61243SOL     OW92506   7.390   0.581   9.320 -0.0478  0.3330 -0.2092
61243SOL    HW192507   7.445   0.658   9.306 -1.2350  1.1336 -0.5745
61243SOL    HW292508   7.405   0.558   9.412  0.7981  0.5890 -0.2678
61244SOL     OW92509   8.027   3.080   9.419 -0.0541  0.5859 -0.3292
61244SOL    HW192510   8.060   3.170   9.422  1.7193  0.0167 -1.6618
61244SOL    HW292511   8.015   3.061   9.326 -1.1902 -0.3135 -0.0330
61245SOL     OW92512   3.029   7.441   4.923  0.4467 -0.0960  0.1415
61245SOL    HW192513   3.056   7.481   5.006 -1.1038 -0.8561  1.0579
61245SOL    HW292514   3.063   7.500   4.856  3.0856 -0.2578  1.2044
61246SOL     OW92515   9.133   0.519   0.743 -0.3870  0.0495  1.1164
61246SOL    HW192516   9.095   0.479   0.821 -0.2479 -1.2011  0.5581
61246SOL    HW292517   9.112   0.459   0.672 -0.0543  0.9094  0.2655
61247SOL     OW92518   5.116   4.131   6.317 -0.1762  0.4523 -0.4740
61247SOL    HW192519   5.190   4.127   6.256  0.6630  0.7252  0.4907
61247SOL    HW292520   5.144   4.077   6.391 -1.1497  0.1726 -0.3042
61248SOL     OW92521  12.423   7.287   5.793 -0.2634  0.1795  0.4736
61248SOL    HW192522  12.336   7.308   5.825 -0.8306  0.5751 -1.2518
61248SOL    HW292523  12.421   7.192   5.779 -1.0792  0.4308 -1.3531
61249SOL     OW92524   3.404   9.900   0.643 -0.5215 -0.3170  0.3421
61249SOL    HW192525   3.363   9.814   0.631 -1.6515  0.4825 -2.2423
61249SOL    HW292526   3.497   9.884   0.630 -0.5241 -1.3635  1.4291
61250SOL     OW92527   1.042   6.733   4.335 -0.1615 -0.5335  0.2724
61250SOL    HW192528   0.957   6.694   4.357  0.4199 -2.3955 -0.6274
61250SOL    HW292529   1.082   6.671   4.275  1.2279  1.0480 -0.5071
61251SOL     OW92530   6.206   0.020  10.030  0.3817 -0.1283 -0.2928
61251SOL    HW192531   6.153  -0.053  10.061  0.6373 -0.1155  0.1837
61251SOL    HW292532   6.243   0.058  10.109  1.0293 -0.0789 -0.6131
61252SOL     OW92533   2.870   2.281   7.789 -0.1816  0.0095 -0.2474
61252SOL    HW192534   2.881   2.289   7.694  1.9091 -0.6133 -0.1151
61252SOL    HW292535   2.960   2.282   7.823 -0.8119 -1.2777  1.5897
61253SOL     OW92536   0.892   1.138  11.089  0.0613  0.5983  0.3666
61253SOL    HW192537   0.916   1.230  11.094  0.9272  0.3474  1.1431
61253SOL    HW292538   0.953   1.100  11.025 -1.4040  0.8718 -1.2726
61254SOL     OW92539   1.324   2.422  12.034 -0.0541  0.3556 -0.5008
61254SOL    HW192540   1.273   2.388  11.961 -0.7298  1.8205 -0.7430
61254SOL    HW292541   1.357   2.506  12.004  1.7261 -0.1089  0.0178
61255SOL     OW92542   2.145  10.150   3.004  0.1272  0.8496 -0.3129
61255SOL    HW192543   2.188  10.107   2.930  1.0660 -0.2588  0.8385
61255SOL    HW292544   2.215  10.168   3.066 -0.8393  0.3272  0.9810
61256SOL     OW92545   9.298   2.802   7.637  0.2984 -0.6128 -0.3089
61256SOL    HW192546   9.293   2.885   7.684  1.0717 -0.9133  0.3168
61256SOL    HW292547   9.213   2.761   7.654  0.6932 -0.8923  1.1933
61257SOL     OW92548   6.794   0.935   2.061 -0.0030 -0.1179 -0.6699
61257SOL    HW192549   6.813   1.024   2.090  1.9299 -0.5556 -0.4651
61257SOL    HW292550   6.711   0.942   2.014  0.0564  1.7584 -0.5537
61258SOL     OW92551   7.130  11.088   8.628  0.2435 -0.2522 -0.0375
61258SOL    HW192552   7.133  11.003   8.673 -1.2879 -0.4605 -0.2880
61258SOL    HW292553   7.043  11.123   8.648  0.1781  0.4394 -1.4329
61259SOL     OW92554   1.107   6.772   8.043  0.3394 -0.5259  0.2706
61259SOL    HW192555   1.030   6.829   8.052  1.1548  0.5689  0.6072
61259SOL    HW292556   1.105   6.717   8.121  0.1421 -0.1785  0.5189
61260SOL     OW92557   2.588   5.561   6.343 -0.2376  0.2189  0.0358
61260SOL    HW192558   2.588   5.514   6.260  0.9276  0.3613 -0.0661
61260SOL    HW292559   2.558   5.497   6.407 -1.0223  0.0687 -0.4702
61261SOL     OW92560   5.676   4.523   9.886 -0.4693  0.0886  0.1789
61261SOL    HW192561   5.672   4.443   9.832 -1.0701  1.5681 -2.1087
61261SOL    HW292562   5.757   4.565   9.860 -1.5939  1.6820 -0.9320
61262SOL     OW92563   1.174   9.621   7.298 -0.1742 -0.3747  0.0594
61262SOL    HW192564   1.132   9.698   7.337  0.5314  1.1916 -2.1071
61262SOL    HW292565   1.103   9.573   7.256 -0.1536  1.4091 -2.2021
61263SOL     OW92566   6.442   6.223   5.015 -0.7089  0.0472 -0.4814
61263SOL    HW192567   6.503   6.200   5.084 -0.4263  0.7010 -0.5018
61263SOL    HW292568   6.403   6.306   5.044 -3.1316 -1.3480  0.5219
61264SOL     OW92569  12.224   1.087   5.713  0.8278  0.6040  0.4353
61264SOL    HW192570  12.178   1.148   5.656 -0.3574 -0.6986 -0.0465
61264SOL    HW292571  12.157   1.056   5.774  1.3665 -0.3358  0.5675
61265SOL     OW92572   9.320   9.102   0.530 -0.1642  0.2427 -0.0220
61265SOL    HW192573   9.261   9.163   0.485  0.7358  1.9539  0.9838
61265SOL    HW292574   9.262   9.051   0.587 -0.7687  1.8055  0.8594
61266SOL     OW92575   0.272   4.741   3.709  0.0697  0.1649 -0.2250
61266SOL    HW192576   0.275   4.814   3.646  0.9293 -0.3331 -0.7855
61266SOL    HW292577   0.341   4.762   3.772  1.0596 -0.6675 -0.9904
61267SOL     OW92578   1.575   1.753   9.358 -0.4647  0.2276 -1.0740
61267SOL    HW192579   1.581   1.665   9.395  0.4847  0.0521 -1.6277
61267SOL    HW292580   1.485   1.758   9.324 -0.3636 -0.7362 -1.5257
61268SOL     OW92581  12.245  10.359   4.781  0.0559  0.3187  0.1396
61268SOL    HW192582  12.176  10.373   4.715 -1.8435  0.1750  1.9906
61268SOL    HW292583  12.279  10.446   4.799  0.0067  0.4574 -0.4196
61269SOL     OW92584   2.311   5.508   1.039  0.1757 -0.2538 -0.2115
61269SOL    HW192585   2.271   5.519   0.953  0.8104  0.4868 -0.4166
61269SOL    HW292586   2.331   5.597   1.069  0.4726 -0.5339  0.4570
61270SOL     OW92587   9.111   4.378   7.266  0.2310 -0.1128 -0.4656
61270SOL    HW192588   9.152   4.299   7.301  1.5752  0.2661 -1.1093
61270SOL    HW292589   9.149   4.387   7.178  0.3093  1.3930 -0.2904
61271SOL     OW92590   1.786  10.362   5.769 -1.1154 -0.4473  0.4927
61271SOL    HW192591   1.854  10.413   5.812  1.9052 -1.1201 -2.9745
61271SOL    HW292592   1.714  10.423   5.756  0.6484  1.7272  0.3639
61272SOL     OW92593   4.563   3.586   1.752 -0.6107 -0.6351 -0.1626
61272SOL    HW192594   4.560   3.509   1.809 -0.3434  0.6172  1.6204
61272SOL    HW292595   4.473   3.619   1.751 -0.3471  0.1552  0.7356
61273SOL     OW92596   5.620   3.593   8.468  0.6503 -0.0738 -0.0958
61273SOL    HW192597   5.664   3.585   8.553  1.5155  2.5367 -0.1833
61273SOL    HW292598   5.690   3.588   8.404  0.3592  0.5284 -0.4749
61274SOL     OW92599   6.669   9.151   7.123  0.4898  0.0364  0.7625
61274SOL    HW192600   6.653   9.243   7.100  2.2047  0.1912  0.0203
61274SOL    HW292601   6.757   9.151   7.161 -0.1528 -1.0705  2.3838
61275SOL     OW92602   3.093  11.090   2.499 -0.0468 -0.1806 -0.0356
61275SOL    HW192603   3.110  11.158   2.564 -1.5453  0.6808 -0.4947
61275SOL    HW292604   3.154  11.019   2.521 -0.0738  0.3497  1.8939
61276SOL     OW92605   5.525  10.363   3.330  0.0468 -0.0246  0.2101
61276SOL    HW192606   5.514  10.326   3.417  0.3499 -0.8598 -0.0996
61276SOL    HW292607   5.619  10.356   3.312 -0.0342  0.0034 -0.2458
61277SOL     OW92608   8.816   8.764   1.534 -0.2605  0.2831  0.1547
61277SOL    HW192609   8.784   8.713   1.459  0.9507  0.4041 -0.4602
61277SOL    HW292610   8.900   8.724   1.556 -0.6297  0.1951  1.5277
61278SOL     OW92611   1.845   0.781   4.126 -0.4993  0.4495  0.1402
61278SOL    HW192612   1.803   0.700   4.154  0.5884 -0.2105 -0.0655
61278SOL    HW292613   1.889   0.758   4.044 -1.6915  1.7426 -0.8974
61279SOL     OW92614   8.433   9.804   2.940  0.1206  0.2681  0.0224
61279SOL    HW192615   8.432   9.898   2.959 -0.9530  0.2455  0.1555
61279SOL    HW292616   8.377   9.765   3.007 -0.3803 -0.3176 -0.7123
61280SOL     OW92617   9.979   0.667   1.958 -0.4603  0.1348  0.3559
61280SOL    HW192618   9.916   0.692   1.890 -0.1146 -0.8915 -0.3550
61280SOL    HW292619   9.956   0.722   2.032 -1.1342  0.9640 -0.4408
61281SOL     OW92620   1.835   1.705   9.933 -0.2456  0.5294 -0.1386
61281SOL    HW192621   1.858   1.797   9.946 -1.7086  1.2748 -2.3445
61281SOL    HW292622   1.880   1.659  10.005 -0.5715  3.0677  1.8322
61282SOL     OW92623   8.925   7.681   1.365  0.1566 -0.7681  0.2067
61282SOL    HW192624   9.020   7.672   1.364  0.2414  0.0242 -0.5756
61282SOL    HW292625   8.909   7.762   1.412 -0.0144  0.0279 -1.1706
61283SOL     OW92626   7.788   3.431   0.262  0.5945  0.3153  0.1406
61283SOL    HW192627   7.855   3.445   0.195  0.0357  0.9812 -0.3009
61283SOL    HW292628   7.705   3.447   0.216  0.1451 -0.3548  0.7137
61284SOL     OW92629   5.649   1.182   3.599 -0.6981  0.5203 -0.1761
61284SOL    HW192630   5.654   1.098   3.643  0.0073  1.0457  0.8025
61284SOL    HW292631   5.559   1.189   3.568 -0.2282 -1.5397 -2.2471
61285SOL     OW92632  11.706   0.396   6.738  0.2097  0.3995 -0.1036
61285SOL    HW192633  11.748   0.379   6.822 -2.2074  0.4121  1.1956
61285SOL    HW292634  11.678   0.488   6.743  1.1425  0.8035 -1.4832
61286SOL     OW92635   4.805   3.154  11.382 -0.2618  0.4770 -0.2798
61286SOL    HW192636   4.769   3.135  11.296  0.8616  0.7314 -0.8194
61286SOL    HW292637   4.824   3.069  11.420 -1.4356  0.3393  0.0239
61287SOL     OW92638   9.764   5.322  11.726  0.0118 -0.4061 -0.1640
61287SOL    HW192639   9.752   5.240  11.677 -0.1143 -0.1583 -0.5575
61287SOL    HW292640   9.823   5.374  11.671  1.6613 -0.9839  0.9917
61288SOL     OW92641   1.319   0.957   9.071 -0.5747  0.2068 -0.4283
61288SOL    HW192642   1.411   0.951   9.046 -0.6425  1.4317 -1.0414
61288SOL    HW292643   1.288   1.036   9.027 -1.7218  0.2377  0.4143
61289SOL     OW92644   1.162   9.501  11.062 -0.3032  0.6565 -0.5301
61289SOL    HW192645   1.228   9.566  11.039  0.3570  0.1668 -0.0899
61289SOL    HW292646   1.211   9.433  11.109 -0.7761 -0.6588 -1.8574
61290SOL     OW92647   4.319   0.894   0.435 -0.3547 -0.7226  0.4644
61290SOL    HW192648   4.331   0.973   0.488 -1.2327 -0.2787  0.0150
61290SOL    HW292649   4.260   0.920   0.364 -1.0745 -1.8960  0.5894
61291SOL     OW92650   8.294  12.420   1.710  0.3865  0.3642  0.2407
61291SOL    HW192651   8.210  12.379   1.691 -0.3057  1.3469  1.0806
61291SOL    HW292652   8.320  12.462   1.629  0.9351 -1.3765 -0.5351
61292SOL     OW92653   4.161   8.153   5.933  0.0324 -0.0542 -0.6935
61292SOL    HW192654   4.205   8.228   5.972 -1.4918  0.0415  0.9554
61292SOL    HW292655   4.225   8.082   5.940  0.9005  0.6951 -0.8262
61293SOL     OW92656   3.973  11.470   1.132  0.7821 -0.1266 -0.6775
61293SOL    HW192657   4.040  11.533   1.157  1.2593 -0.4341 -1.1686
61293SOL    HW292658   4.015  11.385   1.142  0.1113 -0.3859  0.0641
61294SOL     OW92659   5.227  11.486   4.231  0.5789  0.1241 -0.1133
61294SOL    HW192660   5.212  11.494   4.137  0.9986 -0.4478 -0.2357
61294SOL    HW292661   5.275  11.404   4.241 -0.0205 -0.1569  0.6599
61295SOL     OW92662  11.352   2.599   3.507 -0.0465 -0.2328 -0.2197
61295SOL    HW192663  11.436   2.555   3.518 -0.0132 -0.0791  0.1642
61295SOL    HW292664  11.374   2.692   3.515  0.0278 -0.0731 -1.8883
61296SOL     OW92665   7.727   4.879  12.432  0.6338  0.1206  0.1630
61296SOL    HW192666   7.740   4.863  12.338 -0.0968 -1.8844  0.3530
61296SOL    HW292667   7.638   4.912  12.438  1.4325  2.5150 -0.0120
61297SOL     OW92668   7.361   7.403   2.060  0.6924 -0.0715  0.2435
61297SOL    HW192669   7.429   7.341   2.087 -1.0145 -3.3536 -2.2953
61297SOL    HW292670   7.312   7.357   1.991 -2.2270  3.2636 -0.1958
61298SOL     OW92671   5.496   4.725   9.700  0.3918 -0.0360 -0.2898
61298SOL    HW192672   5.483   4.784   9.626  0.9347  0.9132  0.3364
61298SOL    HW292673   5.564   4.664   9.670  0.1985 -0.0222 -0.7662
61299SOL     OW92674  11.726   4.182   6.207  0.6418 -0.0135  0.1580
61299SOL    HW192675  11.781   4.241   6.156  2.0377 -0.4256  1.1252
61299SOL    HW292676  11.666   4.143   6.144  1.6292  0.2653 -0.9724
61300SOL     OW92677   5.907   8.051   9.805  0.4624  0.4649 -0.2860
61300SOL    HW192678   5.821   8.057   9.848 -0.0576 -0.4294 -1.1594
61300SOL    HW292679   5.939   7.963   9.827  1.4176  0.9727  0.4625
61301SOL     OW92680   1.163  10.908   0.271  0.0355 -0.4163  0.6257
61301SOL    HW192681   1.192  10.825   0.233  0.1298 -0.8297  1.5741
61301SOL    HW292682   1.190  10.974   0.208  1.0112 -1.0015  0.4121
61302SOL     OW92683   8.762   9.101   6.577  0.2957 -0.3113  0.5163
61302SOL    HW192684   8.773   9.121   6.670 -1.2168  1.4393  0.3713
61302SOL    HW292685   8.850   9.111   6.540  0.3696  2.3151  1.2152
61303SOL     OW92686   8.252   0.771   7.548  0.0703 -0.0938 -0.4573
61303SOL    HW192687   8.243   0.832   7.476 -0.3412 -0.1774 -0.4803
61303SOL    HW292688   8.163   0.738   7.563  0.1479 -0.0728  0.0891
61304SOL     OW92689   5.883  11.781   4.205 -0.2553  0.3639  0.3474
61304SOL    HW192690   5.845  11.868   4.218  2.8408  1.9120  0.0275
61304SOL    HW292691   5.938  11.768   4.281  0.7699 -0.4591 -0.5065
61305SOL     OW92692   2.611   9.704   0.536  0.2686  0.6034  0.7668
61305SOL    HW192693   2.654   9.726   0.619  1.2932  2.2724 -0.1332
61305SOL    HW292694   2.525   9.746   0.542 -0.2377 -0.5161  1.5398
61306SOL     OW92695   1.962   8.656   5.002 -0.0012  0.4525 -0.4773
61306SOL    HW192696   2.024   8.589   5.030 -0.6988 -0.5493 -1.2988
61306SOL    HW292697   2.017   8.730   4.977  0.8863 -0.4569 -1.2937
61307SOL     OW92698   6.617  11.163  11.046 -0.3040 -0.1979 -0.2277
61307SOL    HW192699   6.688  11.228  11.048  1.0849 -1.5685 -1.5810
61307SOL    HW292700   6.644  11.096  11.108 -1.1202 -0.0915  0.2570
61308SOL     OW92701   9.633   3.142  11.406 -0.1080  0.6761 -0.2801
61308SOL    HW192702   9.725   3.165  11.422 -0.3124  1.8037 -0.6346
61308SOL    HW292703   9.601   3.114  11.492  0.8248 -0.7300 -0.3621
61309SOL     OW92704   8.543   7.282   2.695 -0.4147  0.0894  0.6397
61309SOL    HW192705   8.511   7.223   2.763 -0.2964 -1.3902 -0.5407
61309SOL    HW292706   8.633   7.255   2.679 -0.7910 -0.3878 -0.8873
61310SOL     OW92707   6.340   3.671  12.288  0.4617 -0.2250  0.5052
61310SOL    HW192708   6.316   3.759  12.317 -1.6794 -0.6511  0.1946
61310SOL    HW292709   6.332   3.617  12.366 -0.7411 -0.5703  0.1535
61311SOL     OW92710   0.249   4.330   2.415 -0.2748  0.3202  0.6211
61311SOL    HW192711   0.323   4.352   2.358  0.8483  0.4367  2.0774
61311SOL    HW292712   0.173   4.369   2.371  0.9669  3.0455  0.6718
61312SOL     OW92713   7.085   2.532   7.045  0.1323  0.6103 -0.2241
61312SOL    HW192714   7.078   2.489   7.130 -0.4080  0.6241 -0.2584
61312SOL    HW292715   7.018   2.599   7.046 -0.1865  0.3144 -0.8358
61313SOL     OW92716   8.581   1.005   7.738  0.0888 -0.0680 -0.4095
61313SOL    HW192717   8.522   0.935   7.770  0.0498 -0.3740 -1.1367
61313SOL    HW292718   8.554   1.019   7.648 -0.4795  1.5156 -0.0205
61314SOL     OW92719  10.986   5.313   8.178  0.3320  0.2005 -0.6908
61314SOL    HW192720  10.998   5.336   8.086  1.3103 -2.7552 -1.4314
61314SOL    HW292721  10.892   5.304   8.189  0.2546 -0.5834 -1.7883
61315SOL     OW92722   4.615   6.343   3.882  0.1114 -0.8692 -0.1532
61315SOL    HW192723   4.646   6.433   3.889 -1.2725 -0.3061 -1.0250
61315SOL    HW292724   4.628   6.307   3.970  0.0151  0.3907  0.4020
61316SOL     OW92725   6.595   5.102   9.180  0.8789  0.6385 -0.0683
61316SOL    HW192726   6.523   5.084   9.241  0.8622 -1.5054 -0.6110
61316SOL    HW292727   6.553   5.146   9.106 -0.0780 -1.2149 -0.6998
61317SOL     OW92728   8.418   5.046   5.481  0.5424  0.0373 -0.1535
61317SOL    HW192729   8.423   4.959   5.443  2.3031 -0.1870  0.5339
61317SOL    HW292730   8.493   5.093   5.444 -0.2661  1.2130 -0.3654
61318SOL     OW92731   4.466  12.534   0.471 -0.3216  0.3777 -0.5073
61318SOL    HW192732   4.408  12.534   0.394  0.0261  0.4205 -0.7712
61318SOL    HW292733   4.433  12.605   0.526 -0.8693  0.0346 -0.3891
61319SOL     OW92734  12.599   3.248   6.607 -0.0211 -0.2117 -0.2042
61319SOL    HW192735  12.592   3.225   6.514 -1.0396  0.9985 -0.4650
61319SOL    HW292736  12.535   3.191   6.650 -0.5334  0.1664 -0.4512
61320SOL     OW92737   4.547   9.965   2.040  0.3059  0.6829 -0.3005
61320SOL    HW192738   4.493   9.993   1.966 -2.5010  0.9624  1.6725
61320SOL    HW292739   4.570  10.045   2.086  2.9878  0.6085 -1.3877
61321SOL     OW92740   3.459   2.095   5.710  0.2606 -0.3504  0.4551
61321SOL    HW192741   3.446   2.179   5.754 -1.5298  0.1740 -0.9327
61321SOL    HW292742   3.380   2.045   5.730  0.8385 -1.3083  0.4047
61322SOL     OW92743   1.320   4.738   4.263 -0.0805 -0.2818 -0.3306
61322SOL    HW192744   1.318   4.689   4.180 -0.8484 -0.9511  0.0638
61322SOL    HW292745   1.232   4.726   4.299  0.1461  0.2851  0.4221
61323SOL     OW92746   3.643   7.694   4.173  0.4609 -0.0970  0.0258
61323SOL    HW192747   3.694   7.626   4.128  0.4912 -0.0442 -0.0205
61323SOL    HW292748   3.633   7.763   4.107  0.9956  0.2309  0.2814
61324SOL     OW92749   5.467   3.113   1.348 -0.2503  0.0030 -0.3716
61324SOL    HW192750   5.376   3.099   1.374 -0.1812 -1.1546 -0.7103
61324SOL    HW292751   5.517   3.052   1.403  0.2683  0.2594 -0.5524
61325SOL     OW92752   0.144   9.840   5.581  0.0950  0.2391 -0.2019
61325SOL    HW192753   0.089   9.762   5.575  0.1263  0.1576  0.4874
61325SOL    HW292754   0.197   9.826   5.659 -1.3481  1.8432  1.1630
61326SOL     OW92755   9.270   0.203  12.374 -0.4907  0.0684 -0.4399
61326SOL    HW192756   9.351   0.213  12.324 -0.3894  1.5442 -0.0304
61326SOL    HW292757   9.246   0.292  12.399 -2.3679 -0.3216 -0.7204
61327SOL     OW92758   3.010   0.651   0.086  0.0186  0.0248 -0.2653
61327SOL    HW192759   3.072   0.584   0.117 -1.2784 -0.7901  0.6583
61327SOL    HW292760   2.954   0.605   0.024 -2.1082 -0.3571  1.7841
61328SOL     OW92761   6.800   2.902   8.307  0.2725 -0.0889  0.2752
61328SOL    HW192762   6.713   2.924   8.274  0.3082 -0.4910 -0.0955
61328SOL    HW292763   6.857   2.904   8.230  0.9804  2.0457  0.7903
61329SOL     OW92764   0.991  10.205  10.594  0.2431 -0.2552 -0.0267
61329SOL    HW192765   0.971  10.125  10.546 -1.4410 -1.3681  2.3098
61329SOL    HW292766   1.040  10.259  10.532 -1.7742 -1.5190 -2.9381
61330SOL     OW92767  10.194  10.383   2.039 -0.2275  0.3559 -0.5737
61330SOL    HW192768  10.259  10.420   1.980 -0.0764  2.4568  0.8190
61330SOL    HW292769  10.110  10.416   2.006 -0.3018  0.1927 -0.5504
61331SOL     OW92770   3.614   6.729   9.926  0.0629 -0.2515  0.1353
61331SOL    HW192771   3.542   6.701   9.869 -0.4681  0.0931  0.6339
61331SOL    HW292772   3.636   6.817   9.895 -0.0497 -0.1678  0.2948
61332SOL     OW92773   3.528   7.663   5.345  0.0375 -0.6037  0.5691
61332SOL    HW192774   3.573   7.621   5.272 -1.0191 -0.1705 -0.3545
61332SOL    HW292775   3.594   7.720   5.385  0.7621 -1.2188  0.2693
61333SOL     OW92776   2.666   4.796   0.571 -0.3133 -0.3991 -0.2793
61333SOL    HW192777   2.748   4.846   0.570  0.7155 -2.0327 -1.4123
61333SOL    HW292778   2.672   4.738   0.495 -2.4691 -0.6803 -0.2963
61334SOL     OW92779   7.089   7.696  11.653 -0.4943 -0.1348 -0.4241
61334SOL    HW192780   7.114   7.702  11.745 -0.8596  0.9356 -0.3815
61334SOL    HW292781   7.106   7.605  11.629  1.0903 -0.0414  0.2636
61335SOL     OW92782   1.695   8.259   1.707  0.6979  0.6092  0.0970
61335SOL    HW192783   1.635   8.305   1.648  1.1014  0.6856 -0.2679
61335SOL    HW292784   1.643   8.189   1.745  0.0897  1.3149  0.5974
61336SOL     OW92785  10.960  12.505   2.019  0.4139 -0.6930 -0.5862
61336SOL    HW192786  10.907  12.571   2.064 -1.0094 -0.5222 -2.4143
61336SOL    HW292787  10.917  12.422   2.039  1.7118 -1.0527  1.0060
61337SOL     OW92788   6.594  11.137   9.870 -0.5940  0.2756  0.0096
61337SOL    HW192789   6.549  11.188   9.802 -0.6303 -0.3058 -0.4059
61337SOL    HW292790   6.551  11.164   9.951  0.9306  2.6496  0.1283
61338SOL     OW92791   2.169  11.154   7.634  0.0677 -0.1781  0.0255
61338SOL    HW192792   2.185  11.187   7.722 -0.2979 -1.1699  0.4873
61338SOL    HW292793   2.239  11.192   7.581  0.9316 -0.4033  0.9633
61339SOL     OW92794   3.187   6.979   9.061  0.6725 -0.1149 -0.5661
61339SOL    HW192795   3.217   6.946   9.146  0.0351 -1.4026 -0.8074
61339SOL    HW292796   3.202   7.073   9.064  0.2753 -0.0773  1.1427
61340SOL     OW92797   4.711   8.499   5.718 -0.3865  0.0585  0.0098
61340SOL    HW192798   4.622   8.465   5.724  0.0287 -0.7884  1.7335
61340SOL    HW292799   4.731   8.531   5.806  1.7538 -1.6894  0.2446
61341SOL     OW92800   6.158  11.104   7.727 -0.0503  0.5601 -0.3280
61341SOL    HW192801   6.122  11.171   7.786 -1.5560 -1.3454  1.0254
61341SOL    HW292802   6.253  11.120   7.729 -0.1787  1.4027  1.5851
61342SOL     OW92803   0.152   5.633   6.427  0.1825 -0.2524  0.3018
61342SOL    HW192804   0.232   5.579   6.429  0.7554  0.5884  0.6757
61342SOL    HW292805   0.180   5.718   6.460 -0.3634  0.7115 -1.5419
61343SOL     OW92806   8.820   7.133   0.443  0.1029 -0.0137  0.8254
61343SOL    HW192807   8.782   7.220   0.429  0.3402 -0.1058 -0.5074
61343SOL    HW292808   8.914   7.146   0.428  0.0367 -0.6604 -0.2098
61344SOL     OW92809   6.488   5.756   0.338  0.1497  0.5321  0.1300
61344SOL    HW192810   6.510   5.735   0.247 -0.8796  0.5436 -0.1238
61344SOL    HW292811   6.556   5.819   0.363  1.2909 -0.5345 -0.1536
61345SOL     OW92812   5.178   5.127   7.032  0.1201  0.3964 -0.4343
61345SOL    HW192813   5.141   5.215   7.040 -1.9571 -0.0873 -3.0249
61345SOL    HW292814   5.264   5.141   6.992  0.3770  1.3001  0.4036
61346SOL     OW92815  10.799  10.251   1.565 -0.5958  0.3680 -0.0857
61346SOL    HW192816  10.819  10.345   1.570  0.3102  0.1336  1.2860
61346SOL    HW292817  10.705  10.248   1.546 -0.5768  1.5504 -0.4678
61347SOL     OW92818   6.285   9.169  10.431 -0.0444  0.0037 -0.0217
61347SOL    HW192819   6.334   9.236  10.478 -1.8399  0.5904  1.1072
61347SOL    HW292820   6.344   9.142  10.360  1.9000  0.6200  1.2650
61348SOL     OW92821   4.281   8.398  11.346  0.0872 -0.0720 -0.0878
61348SOL    HW192822   4.192   8.427  11.328  0.3927 -0.2671 -2.0679
61348SOL    HW292823   4.310   8.354  11.266  1.6475 -0.8461  0.8290
61349SOL     OW92824   8.529  11.788   4.593 -0.0043  0.6759  0.5644
61349SOL    HW192825   8.440  11.794   4.558  1.2638 -0.4667 -3.3449
61349SOL    HW292826   8.560  11.878   4.596 -0.8300  0.9661  0.6706
61350SOL     OW92827   9.223   1.373   0.918  0.1163 -0.2134 -0.0511
61350SOL    HW192828   9.253   1.374   0.828 -1.5871 -1.7031 -0.7159
61350SOL    HW292829   9.297   1.340   0.968  1.1128  0.7193 -0.8742
61351SOL     OW92830  11.015   2.985  11.565 -0.0238 -0.1138  0.3232
61351SOL    HW192831  10.946   3.037  11.605  1.3046  2.1973 -0.2571
61351SOL    HW292832  10.998   2.991  11.470  1.5031  1.3208  0.1141
61352SOL     OW92833   2.321   4.418   8.038 -0.2342  0.5434 -0.2004
61352SOL    HW192834   2.275   4.453   7.962  1.1457  0.0836 -1.2868
61352SOL    HW292835   2.373   4.491   8.072  0.6837  0.2416 -0.9254
61353SOL     OW92836   1.247  11.100  12.346  0.8280  0.5338 -0.4088
61353SOL    HW192837   1.227  11.192  12.330 -0.3559  0.5399  0.8989
61353SOL    HW292838   1.170  11.053  12.315  1.7198 -0.1139 -1.7334
61354SOL     OW92839   8.954   6.143   4.842  0.3657  0.0415 -0.2265
61354SOL    HW192840   8.997   6.119   4.924  0.6364  1.3028  0.0228
61354SOL    HW292841   8.918   6.230   4.859 -1.3151 -0.4960 -0.8031
61355SOL     OW92842   1.581   9.963   7.941 -0.2865 -0.1606 -0.2362
61355SOL    HW192843   1.628   9.897   7.991 -0.6781 -1.5933 -1.6995
61355SOL    HW292844   1.521   9.914   7.885 -0.6594  1.4346 -1.3254
61356SOL     OW92845   1.405   8.081   2.844 -0.0102  0.2074  0.0709
61356SOL    HW192846   1.469   8.012   2.827 -1.9773 -1.8406  0.5111
61356SOL    HW292847   1.407   8.093   2.939  0.3207  0.7787 -0.0032
61357SOL     OW92848   6.924  10.620  10.636 -0.0337  0.0368  0.1543
61357SOL    HW192849   6.835  10.598  10.611 -0.1522  0.4677  0.1842
61357SOL    HW292850   6.962  10.661  10.558 -0.1129  0.5591  0.3852
61358SOL     OW92851   5.569   5.599   7.375 -0.2801  0.2725 -0.3847
61358SOL    HW192852   5.593   5.513   7.411  2.8100  0.9887 -0.4185
61358SOL    HW292853   5.593   5.661   7.444  0.2113  1.2808 -1.4326
61359SOL     OW92854   1.316   2.115   6.740  0.4892 -0.2620  0.1924
61359SOL    HW192855   1.346   2.030   6.774  2.2549 -0.3115 -1.3520
61359SOL    HW292856   1.358   2.179   6.797  0.5551 -0.3826  0.2824
61360SOL     OW92857   5.511   2.171   5.809 -0.7273 -0.4069 -0.1016
61360SOL    HW192858   5.560   2.198   5.887 -0.4301  0.7850 -0.6777
61360SOL    HW292859   5.429   2.220   5.813 -1.0665 -0.9674 -0.1166
61361SOL     OW92860   2.001   5.691  11.950 -0.1165  0.3114  0.1882
61361SOL    HW192861   1.985   5.785  11.951 -0.6336  0.2602 -1.0711
61361SOL    HW292862   2.092   5.681  11.979 -0.6501  1.0206  2.2959
61362SOL     OW92863   3.657  11.547  12.215 -0.3129 -0.2126  0.1141
61362SOL    HW192864   3.676  11.453  12.207  0.0631 -0.1208 -0.1192
61362SOL    HW292865   3.722  11.589  12.159  1.2651  0.3492  2.2494
61363SOL     OW92866   6.636   4.370   9.415 -0.1106 -0.1227  0.1396
61363SOL    HW192867   6.713   4.366   9.472 -0.9946  1.4274  1.5497
61363SOL    HW292868   6.661   4.431   9.346  0.5346 -1.0396 -0.4578
61364SOL     OW92869   1.452  12.012   9.290  0.0789 -0.1306  0.4165
61364SOL    HW192870   1.531  12.026   9.238  0.6449 -1.6345  0.8131
61364SOL    HW292871   1.465  12.065   9.369 -0.0582  0.8952 -0.2363
61365SOL     OW92872   4.974   5.050   0.024 -0.9359 -0.3365 -0.1798
61365SOL    HW192873   4.967   5.146   0.017  0.4122 -0.1399  0.7334
61365SOL    HW292874   4.888   5.022   0.056 -0.9212  0.7439  0.8964
61366SOL     OW92875  11.226   8.266  11.072  0.0472  0.5318 -0.2990
61366SOL    HW192876  11.132   8.279  11.057 -0.3865 -1.4630  0.3285
61366SOL    HW292877  11.258   8.228  10.990 -0.0714 -0.3662  0.0582
61367SOL     OW92878   8.981   2.755   7.651 -0.1585  0.0924 -0.2134
61367SOL    HW192879   8.983   2.704   7.570  0.8679  0.6540 -0.5648
61367SOL    HW292880   8.932   2.834   7.629  1.9924  1.2937 -0.9805
61368SOL     OW92881   3.281   5.529   5.914 -0.4084  0.0948 -0.0996
61368SOL    HW192882   3.332   5.609   5.928  1.4739 -1.1082  0.2416
61368SOL    HW292883   3.273   5.522   5.819 -1.0462  0.9508 -0.1194
61369SOL     OW92884  10.036   5.312   2.202  0.0677  0.0236 -0.2146
61369SOL    HW192885  10.094   5.237   2.216 -0.3263 -0.1133  0.8400
61369SOL    HW292886  10.093   5.381   2.171  1.0834  0.2862  2.0332
61370SOL     OW92887   4.446   9.390   2.399 -0.5763  0.0097 -0.3021
61370SOL    HW192888   4.411   9.389   2.310 -0.5773 -0.7187 -0.3012
61370SOL    HW292889   4.372   9.417   2.454 -0.9028 -0.6785 -0.3967
61371SOL     OW92890   5.318  10.438   4.468 -0.0831 -0.0013 -0.3446
61371SOL    HW192891   5.269  10.365   4.505  1.0642 -0.2806  0.6721
61371SOL    HW292892   5.391  10.397   4.422  1.2277  0.5045  1.2094
61372SOL     OW92893   2.473   1.298   8.893 -0.4936  0.1643 -0.0155
61372SOL    HW192894   2.561   1.281   8.927 -1.2012 -0.9113  1.3811
61372SOL    HW292895   2.446   1.378   8.938  0.3301  1.4277 -1.6483
61373SOL     OW92896   3.705  12.456   0.079 -0.7532  0.2029 -0.1851
61373SOL    HW192897   3.769  12.494   0.019 -0.9973 -1.0244 -1.2700
61373SOL    HW292898   3.628  12.439   0.024 -0.5571 -2.0744  0.1317
61374SOL     OW92899   0.147  10.492   9.458  0.3375 -0.2288 -0.0142
61374SOL    HW192900   0.153  10.468   9.365  2.9008 -1.4517  0.3795
61374SOL    HW292901   0.127  10.585   9.457 -1.8828 -0.6281 -1.7162
61375SOL     OW92902   9.923   0.633   9.901  0.1248  0.1015  0.3313
61375SOL    HW192903  10.004   0.619   9.853  0.2526  2.3264 -0.2084
61375SOL    HW292904   9.884   0.546   9.909  2.0691 -0.8738 -0.2392
61376SOL     OW92905   4.716   0.511   4.541 -0.1792 -0.7726  0.9768
61376SOL    HW192906   4.657   0.443   4.575 -0.1254 -1.4178 -0.1359
61376SOL    HW292907   4.658   0.585   4.522 -0.6767 -1.3890 -0.0760
61377SOL     OW92908  10.316   3.758  11.000 -0.1298 -0.2123 -0.1752
61377SOL    HW192909  10.273   3.839  10.973  2.6930  0.9412 -1.6392
61377SOL    HW292910  10.406   3.783  11.019  0.0770 -2.4778  2.7209
61378SOL     OW92911   6.318   2.834   1.807  0.1117  0.3764  0.2576
61378SOL    HW192912   6.332   2.820   1.714  2.2812  1.5078  0.3605
61378SOL    HW292913   6.403   2.818   1.847 -0.3196  1.6677  1.8123
61379SOL     OW92914   9.197   9.755  12.035  0.5361 -0.3933 -0.3593
61379SOL    HW192915   9.204   9.681  11.975  0.3453 -1.5884  1.0159
61379SOL    HW292916   9.106   9.752  12.065  0.5674  0.3211 -0.1894
61380SOL     OW92917   5.618   4.990   1.139  0.3953  0.7918 -0.0407
61380SOL    HW192918   5.562   4.918   1.167  1.0205  0.0888 -0.5326
61380SOL    HW292919   5.559   5.052   1.096  0.0767 -0.3245 -1.2890
61381SOL     OW92920   6.154   2.952   3.755 -0.0699 -0.5785  0.0373
61381SOL    HW192921   6.088   3.021   3.760 -0.8647 -1.2821 -0.5505
61381SOL    HW292922   6.222   2.980   3.817 -1.1330 -0.0970  1.0287
61382SOL     OW92923   6.755  11.972   9.124  0.1812 -0.2933  0.1668
61382SOL    HW192924   6.780  11.970   9.031  1.0515 -1.0221  0.4010
61382SOL    HW292925   6.674  11.922   9.128 -0.8565  1.2455 -0.4512
61383SOL     OW92926   0.231  11.664   8.910 -0.0470  0.3094 -0.1630
61383SOL    HW192927   0.305  11.703   8.862 -1.2453 -0.4188 -2.8067
61383SOL    HW292928   0.269  11.587   8.953  1.0417  0.8637 -0.0702
61384SOL     OW92929   4.440   4.036  12.537  0.4357  0.0634  0.0031
61384SOL    HW192930   4.362   3.982  12.527 -0.4723  1.3665 -0.1037
61384SOL    HW292931   4.512   3.972  12.543 -0.5043 -1.1286 -0.8879
61385SOL     OW92932   3.069  11.083  11.036 -0.5151  0.5700 -0.0035
61385SOL    HW192933   3.147  11.031  11.016  0.9159  2.7145 -0.3088
61385SOL    HW292934   3.037  11.111  10.950 -1.3273  0.1746  0.1556
61386SOL     OW92935   6.697  11.525  11.474  0.1748  0.5055 -0.0242
61386SOL    HW192936   6.668  11.589  11.539  0.0415 -1.2977  1.7730
61386SOL    HW292937   6.627  11.524  11.409 -0.3064  1.4139  0.4590
61387SOL     OW92938  12.454   6.482   3.821 -0.0106  0.8284  0.1667
61387SOL    HW192939  12.389   6.451   3.759  1.4827 -1.1856 -0.5107
61387SOL    HW292940  12.506   6.545   3.772 -0.7587  1.6444  0.3920
61388SOL     OW92941  10.608  11.831   6.425  0.2138  0.4242  0.1377
61388SOL    HW192942  10.644  11.749   6.459  2.6633  0.8438 -1.1877
61388SOL    HW292943  10.521  11.807   6.394 -0.0870 -1.0971  1.9054
61389SOL     OW92944   0.595   2.898   1.823 -0.1009  0.1998 -0.3164
61389SOL    HW192945   0.522   2.874   1.766 -1.1110 -1.3243  1.5095
61389SOL    HW292946   0.657   2.826   1.815  1.0316  1.2348 -1.4446
61390SOL     OW92947   5.015   5.246   3.727 -0.1132 -0.4737 -0.0008
61390SOL    HW192948   5.008   5.207   3.815  0.0248 -1.7350 -0.5338
61390SOL    HW292949   5.071   5.323   3.740  1.0988 -1.4492  0.7788
61391SOL     OW92950  11.744   8.399   0.106 -0.5647 -0.2465 -0.1377
61391SOL    HW192951  11.797   8.409   0.185 -0.1997  0.3228 -0.4462
61391SOL    HW292952  11.758   8.308   0.080 -0.8657 -0.5017  0.5744
61392SOL     OW92953  10.726  10.627  10.757 -0.8481  0.2477 -0.2484
61392SOL    HW192954  10.807  10.576  10.756 -1.4764 -0.7745  0.0142
61392SOL    HW292955  10.703  10.637  10.664 -1.0608 -0.5335 -0.2931
61393SOL     OW92956   6.379   2.957   9.736  0.3127 -0.3557 -0.8530
61393SOL    HW192957   6.320   2.901   9.685 -1.1787  1.2950 -1.0517
61393SOL    HW292958   6.456   2.968   9.680  0.4590 -1.8270 -0.9798
61394SOL     OW92959   9.393  10.120  12.472 -0.4469  0.0475 -0.0872
61394SOL    HW192960   9.431  10.199  12.511  1.0462 -0.3073 -0.7544
61394SOL    HW292961   9.468  10.072  12.437 -1.1923 -2.1522  1.1096
61395SOL     OW92962  11.294   6.288  12.329 -0.8219 -0.0194 -0.0927
61395SOL    HW192963  11.216   6.245  12.363 -0.4580 -1.4250 -0.9430
61395SOL    HW292964  11.367   6.236  12.362 -0.1111  1.9551  1.6946
61396SOL     OW92965  12.189   7.510   2.071  0.4509 -0.6721  0.1451
61396SOL    HW192966  12.209   7.491   1.979  0.0904 -1.9558  0.3087
61396SOL    HW292967  12.259   7.569   2.099 -0.0038  0.5655 -1.2196
61397SOL     OW92968   1.414   8.087   3.099  0.1454 -0.0017 -0.2589
61397SOL    HW192969   1.502   8.084   3.135 -0.6082  0.0633  1.6848
61397SOL    HW292970   1.368   8.152   3.153 -1.6058 -1.4007  0.0233
61398SOL     OW92971  11.477   9.260   0.908 -0.0378 -0.5831 -0.1719
61398SOL    HW192972  11.399   9.210   0.935 -0.2943 -1.0737 -1.7070
61398SOL    HW292973  11.514   9.293   0.990 -1.8206 -0.3992  0.6042
61399SOL     OW92974   7.150   5.602   2.738 -0.1567 -0.5662 -0.0904
61399SOL    HW192975   7.138   5.515   2.778 -1.3499 -0.0480  0.7339
61399SOL    HW292976   7.062   5.627   2.710  0.4212 -0.2699 -1.7613
61400SOL     OW92977   1.867   5.002   5.520  0.0134  0.3995 -0.0879
61400SOL    HW192978   1.793   4.971   5.572  0.0313  1.1593  0.3914
61400SOL    HW292979   1.861   5.097   5.523  1.7731  0.5041  1.0532
61401SOL     OW92980   7.712   5.157  10.662 -0.1961  0.5134 -0.3325
61401SOL    HW192981   7.677   5.207  10.588  0.0779  0.4783 -0.4887
61401SOL    HW292982   7.638   5.104  10.691 -0.1940  0.2050 -0.8644
61402SOL     OW92983   9.470  10.318   8.127 -0.4194 -0.2634  0.1901
61402SOL    HW192984   9.450  10.299   8.035 -0.9719  0.9333  0.0464
61402SOL    HW292985   9.451  10.237   8.173 -2.8058 -0.0919 -0.3690
61403SOL     OW92986   2.437  12.397   5.767  0.0090 -0.6665 -0.4017
61403SOL    HW192987   2.506  12.335   5.741 -0.6032 -1.1589 -0.8721
61403SOL    HW292988   2.483  12.480   5.778  0.7646 -1.0900 -0.2426
61404SOL     OW92989  11.667   5.567  10.654  0.2546 -0.3427 -0.1020
61404SOL    HW192990  11.607   5.503  10.694  0.1059  0.2810  0.7034
61404SOL    HW292991  11.754   5.537  10.681  0.0947  0.8556  1.9583
61405SOL     OW92992  11.299   5.927   3.584 -0.2724  0.4400 -0.1671
61405SOL    HW192993  11.342   5.965   3.508 -3.2156  1.4637 -1.4604
61405SOL    HW292994  11.370   5.886   3.634  2.1099  1.8770 -2.1505
61406SOL     OW92995   6.106  11.803   5.671 -0.1651  0.7279 -0.2232
61406SOL    HW192996   6.155  11.742   5.727 -0.3832  0.0383 -0.7714
61406SOL    HW292997   6.170  11.831   5.605 -0.8916 -1.5212 -2.0054
61407SOL     OW92998   0.688   0.996   9.295  0.2503 -0.7096  0.1716
61407SOL    HW192999   0.613   0.961   9.343 -1.1452  0.0303 -1.4031
61407SOL    HW293000   0.653   1.022   9.210  2.1437  0.3724 -0.3326
61408SOL     OW93001   3.562   9.122   4.451 -0.2552 -0.1752 -0.1186
61408SOL    HW193002   3.554   9.212   4.481  0.3837  0.2888 -1.2903
61408SOL    HW293003   3.497   9.113   4.382 -1.2061 -1.0196  0.8388
61409SOL     OW93004   7.206  11.294   6.303  0.2243  0.2524  0.4865
61409SOL    HW193005   7.162  11.354   6.243 -0.4076  0.3584  1.0404
61409SOL    HW293006   7.150  11.292   6.380  0.7929 -0.2267  0.8993
61410SOL     OW93007   5.148   5.216  10.622  0.1548  0.3191  0.1508
61410SOL    HW193008   5.081   5.208  10.690 -1.2706  3.0811 -0.7946
61410SOL    HW293009   5.106   5.265  10.552  2.7614  0.9875 -1.0762
61411SOL     OW93010   2.598   5.340  10.496  0.0916 -0.3154  0.1670
61411SOL    HW193011   2.659   5.276  10.533  0.1681 -0.6866 -0.5895
61411SOL    HW293012   2.514   5.318  10.536  0.5877  0.7701  1.9193
61412SOL     OW93013  11.394   2.562   6.259  0.1669  0.0724 -0.2869
61412SOL    HW193014  11.338   2.584   6.185  1.0969  0.0783 -0.9964
61412SOL    HW293015  11.385   2.637   6.319 -1.3954 -0.3904  0.1256
61413SOL     OW93016   8.089   1.614  10.111 -0.0491 -0.3330 -0.1045
61413SOL    HW193017   8.030   1.617  10.035  0.6490 -0.0756 -0.6464
61413SOL    HW293018   8.125   1.526  10.110 -1.5885 -1.0226  1.1508
61414SOL     OW93019   4.498   3.117   5.043 -0.6032  0.2519  0.2543
61414SOL    HW193020   4.501   3.209   5.019 -0.5652  0.2239  0.1463
61414SOL    HW293021   4.488   3.116   5.138 -0.6476  0.3670  0.2506
61415SOL     OW93022   2.485   8.693   1.941 -0.1885 -0.2023 -0.2726
61415SOL    HW193023   2.548   8.724   1.876  0.7873 -0.9541  0.2737
61415SOL    HW293024   2.401   8.730   1.914  0.3454  0.1608 -1.4879
61416SOL     OW93025   9.619   5.085   4.368 -0.1321 -0.0561 -0.0763
61416SOL    HW193026   9.679   5.090   4.293 -0.3510 -0.0629 -0.2534
61416SOL    HW293027   9.532   5.075   4.328 -0.3709  0.9837  0.1566
61417SOL     OW93028   4.734   2.896   6.724  0.0668 -0.2822  0.1018
61417SOL    HW193029   4.802   2.952   6.763  0.3724 -0.9497  0.5358
61417SOL    HW293030   4.655   2.949   6.730  0.3831  0.1765  0.3559
61418SOL     OW93031   9.749   3.347  11.143  0.1907  0.3370 -0.5603
61418SOL    HW193032   9.805   3.394  11.206 -0.6687  0.6491 -0.0115
61418SOL    HW293033   9.697   3.416  11.102  0.6652  0.1199 -1.5588
61419SOL     OW93034  12.175  10.792   8.808  0.2112  0.0597  0.1752
61419SOL    HW193035  12.221  10.735   8.869  0.2274 -0.1781 -0.0599
61419SOL    HW293036  12.153  10.736   8.734  0.3870  0.4003 -0.1390
61420SOL     OW93037   9.619  11.136   1.037 -0.0084  0.2070  0.4558
61420SOL    HW193038   9.597  11.227   1.019 -0.1449  0.7251  2.8934
61420SOL    HW293039   9.538  11.098   1.072 -1.0445 -1.9335 -3.6456
61421SOL     OW93040  10.803   0.878   0.814 -0.6391  0.3171  0.2805
61421SOL    HW193041  10.763   0.808   0.762 -0.5721 -1.4874  2.5270
61421SOL    HW293042  10.732   0.910   0.870 -0.2053  0.7225  0.6047
61422SOL     OW93043  10.626   5.688   9.694 -0.2323 -0.1457  0.0322
61422SOL    HW193044  10.604   5.702   9.786 -2.0978 -3.1639  0.1914
61422SOL    HW293045  10.577   5.755   9.647  1.1779  1.7950  1.1688
61423SOL     OW93046   0.164   3.289   8.831  0.2860  0.7683 -0.1628
61423SOL    HW193047   0.205   3.357   8.778  1.2185 -0.1018 -0.5913
61423SOL    HW293048   0.213   3.210   8.810  0.1966  0.2548  1.4431
61424SOL     OW93049   4.258   3.347  10.247  0.0129  0.0953 -0.6383
61424SOL    HW193050   4.227   3.436  10.229  0.2644  0.5713  1.1029
61424SOL    HW293051   4.350   3.358  10.270 -0.3794 -0.3606  1.2880
61425SOL     OW93052  11.926   0.997   5.703  0.6334  0.0025  0.2153
61425SOL    HW193053  11.847   1.050   5.706 -1.4203 -2.8213  0.3176
61425SOL    HW293054  11.956   1.002   5.613 -1.2166 -0.8981 -0.4909
61426SOL     OW93055   8.751   0.619   9.587 -1.0625  0.0013  0.0536
61426SOL    HW193056   8.780   0.710   9.578 -1.6005  0.3242  1.3219
61426SOL    HW293057   8.656   0.624   9.582 -1.0916 -0.5013  0.0616
61427SOL     OW93058   7.780  11.858   7.088  0.0682 -0.1205  0.1436
61427SOL    HW193059   7.735  11.773   7.087 -0.5659  0.2127 -0.6422
61427SOL    HW293060   7.868  11.838   7.119  0.0191 -1.1132 -0.3151
61428SOL     OW93061   4.988   4.478   0.295  0.4750  0.1634 -0.1735
61428SOL    HW193062   5.038   4.465   0.375  0.3221  1.1473  0.0969
61428SOL    HW293063   4.919   4.540   0.319 -1.4172 -1.7561 -0.3184
61429SOL     OW93064   8.214   8.904  10.690  0.8741  0.5372 -0.1579
61429SOL    HW193065   8.177   8.991  10.706  2.6974  1.1988  0.8466
61429SOL    HW293066   8.141   8.852  10.658 -0.5189  2.1534  0.2416
61430SOL     OW93067   2.894   2.083   4.251 -0.2560  0.0382  0.2704
61430SOL    HW193068   2.865   2.046   4.168 -1.9377 -0.1035  0.8918
61430SOL    HW293069   2.831   2.052   4.316  0.4843  0.8931  1.4574
61431SOL     OW93070   5.016   0.645  10.474  0.8317  0.0561 -0.3627
61431SOL    HW193071   4.963   0.602  10.541  2.2936 -2.0782 -0.4510
61431SOL    HW293072   4.977   0.617  10.391  0.2736  0.9932 -0.4228
61432SOL     OW93073  11.916   0.790  12.123  0.3921  0.6141 -0.3120
61432SOL    HW193074  12.008   0.765  12.130  0.7038  1.8130  0.1195
61432SOL    HW293075  11.900   0.842  12.202 -0.7681  0.1103 -0.1954
61433SOL     OW93076   6.758   8.457   3.114  0.1735  0.2210  0.1347
61433SOL    HW193077   6.733   8.369   3.084 -0.2401  0.6952 -0.9381
61433SOL    HW293078   6.752   8.512   3.036  2.5409  0.8084  0.2781
61434SOL     OW93079  11.758   0.105  10.267 -0.6664 -0.5872  0.6530
61434SOL    HW193080  11.698   0.140  10.333 -2.0425  0.8026 -1.2264
61434SOL    HW293081  11.737   0.011  10.264 -2.7438 -0.1572  0.0996
61435SOL     OW93082   9.907   2.949   1.913 -0.0700 -0.2912 -0.3412
61435SOL    HW193083   9.861   2.897   1.847 -1.1191  2.6319 -2.1189
61435SOL    HW293084   9.838   2.975   1.974  0.4926 -1.1556  0.6808
61436SOL     OW93085  10.181   4.762   4.823 -0.7741  0.6025  0.5748
61436SOL    HW193086  10.128   4.800   4.753 -2.3089 -0.6981  0.9932
61436SOL    HW293087  10.184   4.668   4.802  0.8373  0.5450  0.9273
61437SOL     OW93088  10.063   5.780   6.368  0.5067  0.3390  0.0911
61437SOL    HW193089  10.033   5.862   6.329 -2.5388  0.3795  2.2150
61437SOL    HW293090  10.135   5.806   6.425 -0.6128  1.6440  0.9683
61438SOL     OW93091   7.748   7.536   3.039  0.3828 -0.1182 -0.1500
61438SOL    HW193092   7.687   7.598   3.079  0.7115 -0.0762  0.2961
61438SOL    HW293093   7.831   7.583   3.037  0.5178 -0.3621 -0.2733
61439SOL     OW93094  10.017   4.428   4.280  0.4932  0.5230  0.7094
61439SOL    HW193095   9.955   4.487   4.323  1.0776  2.4043 -0.8219
61439SOL    HW293096  10.099   4.440   4.328  0.3482  0.1481  1.0492
61440SOL     OW93097   1.838   9.042   5.812 -0.5105 -0.3021 -0.0802
61440SOL    HW193098   1.802   9.090   5.737  0.8221 -0.8602 -1.1257
61440SOL    HW293099   1.789   8.960   5.814 -0.0684 -0.5915 -0.8073
61441SOL     OW93100   5.777   4.511   1.388 -0.6324  0.1728  0.1789
61441SOL    HW193101   5.824   4.540   1.466  0.7510 -0.5885 -0.3412
61441SOL    HW293102   5.711   4.449   1.421 -0.6263  0.4994  0.8146
61442SOL     OW93103   1.466   7.256   0.364  0.2964  0.7079  0.1748
61442SOL    HW193104   1.506   7.233   0.448  0.3408  0.1087  0.0008
61442SOL    HW293105   1.496   7.186   0.304 -0.4084  0.6649 -0.1342
61443SOL     OW93106  10.706   8.952   4.884  0.1225 -0.2341 -0.3043
61443SOL    HW193107  10.776   8.936   4.820  0.2779  0.4980 -0.3232
61443SOL    HW293108  10.748   9.002   4.954 -0.1298 -0.7365  0.2082
61444SOL     OW93109   6.705   7.133   1.219 -0.4953 -0.6279 -0.3118
61444SOL    HW193110   6.758   7.133   1.298 -1.4669 -1.6700  0.3752
61444SOL    HW293111   6.628   7.081   1.242 -0.3699 -1.7692 -2.2300
61445SOL     OW93112   4.507   0.816   9.850 -0.4834 -0.0169  0.0424
61445SOL    HW193113   4.601   0.816   9.872 -0.3124 -0.2977 -0.6549
61445SOL    HW293114   4.468   0.878   9.912  0.4623  1.5194 -0.8380
61446SOL     OW93115   3.255   6.751   6.185  0.5019 -0.4955  0.4225
61446SOL    HW193116   3.330   6.808   6.168  1.2632 -1.3988  0.6474
61446SOL    HW293117   3.278   6.668   6.141 -1.5052 -0.0051 -1.7421
61447SOL     OW93118   6.761  10.774   8.924 -0.2865  0.1346 -0.0475
61447SOL    HW193119   6.811  10.856   8.928 -1.5725  0.9111  1.9209
61447SOL    HW293120   6.775  10.741   8.835  1.2929  1.8225 -0.4839
61448SOL     OW93121  12.461   3.513   0.255  0.1650  0.0808  0.4204
61448SOL    HW193122  12.442   3.547   0.167  1.4291  0.2838  0.2084
61448SOL    HW293123  12.449   3.588   0.313  0.5193  0.2595  0.2641
61449SOL     OW93124   1.415   6.566   3.749  0.4384 -0.1335  0.2172
61449SOL    HW193125   1.486   6.618   3.786  0.7071  0.8519 -1.5531
61449SOL    HW293126   1.356   6.550   3.822 -0.2872  3.6796  0.6724
61450SOL     OW93127   3.755   2.032   9.577  0.0180  0.5792 -0.4976
61450SOL    HW193128   3.728   2.088   9.649 -0.7639 -2.8617  2.1389
61450SOL    HW293129   3.851   2.029   9.583 -0.0160  0.6568  0.0955
61451SOL     OW93130   6.557   2.342   9.389  0.2835 -0.7644  0.3238
61451SOL    HW193131   6.579   2.322   9.297  0.2136  2.4501 -0.5223
61451SOL    HW293132   6.462   2.354   9.389  0.4883  1.2024  0.2868
61452SOL     OW93133   9.554   2.399   5.441 -0.0783 -0.0440  0.4491
61452SOL    HW193134   9.488   2.331   5.430 -0.2830  0.3177 -0.6815
61452SOL    HW293135   9.507   2.481   5.426  0.7009  0.1952 -0.8161
61453SOL     OW93136   8.353   3.833   2.652 -0.3716  0.0981  0.6710
61453SOL    HW193137   8.376   3.745   2.683  1.1979  0.0881 -0.4585
61453SOL    HW293138   8.316   3.819   2.565 -0.0946  0.5648  0.4778
61454SOL     OW93139   5.688   6.054   1.981 -0.2092  0.0240  0.2633
61454SOL    HW193140   5.747   6.126   1.956  0.7293 -0.6970  0.3568
61454SOL    HW293141   5.745   5.978   1.990 -1.2461 -0.8446 -0.2361
61455SOL     OW93142   0.357   9.297   4.022  0.1948  0.1195 -0.4626
61455SOL    HW193143   0.446   9.323   3.997  0.3569  1.0175  0.9092
61455SOL    HW293144   0.361   9.203   4.035  0.9612  0.1626 -0.3741
61456SOL     OW93145   2.955  11.548   5.724 -0.2970  0.0828  0.4398
61456SOL    HW193146   2.865  11.527   5.749 -0.4583 -1.5313 -1.2753
61456SOL    HW293147   2.964  11.515   5.634  2.9363 -2.7989  1.5963
61457SOL     OW93148   0.358   8.498   9.961  0.1073  0.1444 -0.4178
61457SOL    HW193149   0.401   8.413   9.971 -0.4099 -0.0819 -0.0876
61457SOL    HW293150   0.424   8.553   9.919  0.1124 -0.7107 -1.5931
61458SOL     OW93151   0.299   3.837   5.720  0.3514  0.8588  0.3272
61458SOL    HW193152   0.240   3.781   5.771  0.3756  1.3628  0.9212
61458SOL    HW293153   0.344   3.890   5.785  1.0301  0.8960 -0.1660
61459SOL     OW93154  12.278   7.057   8.625 -0.2704  0.1527  0.0976
61459SOL    HW193155  12.269   7.147   8.657  2.0832  0.0541  1.2754
61459SOL    HW293156  12.246   7.003   8.697  0.0133  0.0236  0.1278
61460SOL     OW93157   5.637  11.965   3.359  0.4998 -0.2482 -0.4845
61460SOL    HW193158   5.706  11.975   3.425  0.5815  0.0627 -0.6151
61460SOL    HW293159   5.559  12.003   3.399  0.8591  1.2116 -1.0625
61461SOL     OW93160   0.796   4.896   3.956 -0.1166 -0.2001  0.5131
61461SOL    HW193161   0.881   4.881   3.914 -0.9435  1.1034 -1.8335
61461SOL    HW293162   0.814   4.965   4.021  0.6641 -0.0375  0.1419
61462SOL     OW93163   4.999   8.629   5.277  0.5825 -0.3527  0.2862
61462SOL    HW193164   5.024   8.722   5.271  2.1434 -0.6776  1.1979
61462SOL    HW293165   4.906   8.628   5.255  0.4231  1.4922  0.7142
61463SOL     OW93166   4.912   5.229  10.050 -0.1017 -0.0826 -0.1522
61463SOL    HW193167   4.828   5.242  10.005  0.3937  0.5503 -0.9104
61463SOL    HW293168   4.965   5.179   9.988  0.5169  0.6198 -0.2031
61464SOL     OW93169   4.647   6.175   6.276  0.2169 -0.1893 -0.4288
61464SOL    HW193170   4.666   6.227   6.199  2.4783 -1.9978 -1.1983
61464SOL    HW293171   4.631   6.086   6.242  1.3694 -1.0489  1.1560
61465SOL     OW93172  10.792   8.186   4.531  0.0603 -0.1659 -0.3492
61465SOL    HW193173  10.791   8.280   4.512 -0.4296 -0.3808 -1.4501
61465SOL    HW293174  10.706   8.155   4.502 -1.3904 -0.3395  3.4817
61466SOL     OW93175   7.928   5.251  10.847  0.8478 -0.0630  0.2373
61466SOL    HW193176   7.876   5.258  10.767  0.4746  1.7862  0.6113
61466SOL    HW293177   7.954   5.159  10.850 -1.2564 -0.7558 -0.6831
61467SOL     OW93178  11.594   9.999   8.127 -0.6197 -0.0151  0.2183
61467SOL    HW193179  11.537  10.060   8.175 -1.2328  0.1512 -0.7042
61467SOL    HW293180  11.677  10.046   8.117 -0.1738 -0.3693  1.8287
61468SOL     OW93181   3.239   2.539  11.927 -0.2161  0.1752  0.2823
61468SOL    HW193182   3.274   2.553  11.839 -1.3533  0.9067 -0.0807
61468SOL    HW293183   3.187   2.617  11.945 -0.5913 -0.2898  1.3191
61469SOL     OW93184   8.050   6.887   7.565 -0.3804 -0.0111  0.1089
61469SOL    HW193185   8.137   6.862   7.595  0.4316  0.1868 -1.9742
61469SOL    HW293186   7.994   6.813   7.590  0.9744 -1.5713 -1.2243
61470SOL     OW93187   7.389   7.638   7.772 -0.2729 -0.2943 -0.1512
61470SOL    HW193188   7.426   7.593   7.847 -0.6280 -0.1913  0.0900
61470SOL    HW293189   7.333   7.573   7.730 -1.5383  0.1797  0.7412
61471SOL     OW93190   5.349  11.011   4.260 -0.4859  0.2661 -0.2068
61471SOL    HW193191   5.390  10.928   4.237 -0.3893 -0.1971  1.4942
61471SOL    HW293192   5.320  11.000   4.350 -1.3188  1.7659 -0.2458
61472SOL     OW93193   3.153   6.367   0.463  0.1417  0.0421 -0.5490
61472SOL    HW193194   3.120   6.372   0.553 -0.8683  0.6723 -0.9350
61472SOL    HW293195   3.094   6.423   0.413 -0.7982 -2.1308 -2.0515
61473SOL     OW93196   0.867   2.155   1.451  0.1789  0.3466 -0.1871
61473SOL    HW193197   0.845   2.142   1.358 -0.1438  1.3081 -0.2567
61473SOL    HW293198   0.960   2.179   1.450  0.4953 -0.8221 -0.1471
61474SOL     OW93199   4.107   3.167   5.650  0.3152  0.3362  0.4363
61474SOL    HW193200   4.146   3.227   5.714  1.6800 -0.2786  0.2156
61474SOL    HW293201   4.033   3.216   5.613  0.8174  1.5118  0.9429
61475SOL     OW93202   3.293  10.384   6.120 -0.1565 -0.0601  0.3329
61475SOL    HW193203   3.242  10.339   6.053  0.3967  0.7014 -0.6309
61475SOL    HW293204   3.230  10.441   6.164 -0.1647  0.9817 -0.9434
61476SOL     OW93205   1.325   1.434   9.938 -0.5601 -0.0548  0.1188
61476SOL    HW193206   1.386   1.437  10.012  0.0860  1.4271 -0.4345
61476SOL    HW293207   1.283   1.348   9.945 -2.2670  0.9119  3.5547
61477SOL     OW93208   1.840   1.706   1.569  0.0860 -0.4944  0.2053
61477SOL    HW193209   1.774   1.770   1.543  0.2048 -0.4226  0.0769
61477SOL    HW293210   1.912   1.759   1.604  0.2400 -0.5485 -0.0243
61478SOL     OW93211   4.435   0.562   6.889 -0.4132 -0.0668  0.3200
61478SOL    HW193212   4.464   0.620   6.960 -1.0701 -0.6474  1.0930
61478SOL    HW293213   4.351   0.599   6.861 -0.1644  0.1477 -0.1425
61479SOL     OW93214   0.592   7.024   7.812 -0.0784  0.4185 -0.1199
61479SOL    HW193215   0.631   7.083   7.746  0.0737 -0.7306 -1.0935
61479SOL    HW293216   0.517   7.072   7.845 -2.0501 -0.1196 -3.3790
61480SOL     OW93217   9.618   0.137   3.174  0.1375 -0.1839 -0.3219
61480SOL    HW193218   9.618   0.207   3.108 -3.4717 -0.8024 -1.2470
61480SOL    HW293219   9.572   0.064   3.131 -0.1084 -1.5283  2.0497
61481SOL     OW93220  11.262   3.419   9.284 -0.1375 -0.3323 -0.1200
61481SOL    HW193221  11.278   3.325   9.283  2.1916  0.0007 -0.0525
61481SOL    HW293222  11.285   3.448   9.195 -0.3226  0.2548  0.0161
61482SOL     OW93223   4.173   6.209   2.012 -0.2383 -0.1712  0.1165
61482SOL    HW193224   4.115   6.268   2.062 -0.9847 -0.3762 -0.4804
61482SOL    HW293225   4.113   6.158   1.958  0.4054 -1.4858  0.6130
61483SOL     OW93226   4.594   4.660  12.381 -0.0996 -0.5879  0.2373
61483SOL    HW193227   4.502   4.680  12.366 -0.1402 -1.9679 -1.6808
61483SOL    HW293228   4.612   4.584  12.326  2.6538  0.6921 -0.8175
61484SOL     OW93229  11.691   4.265   0.384 -0.4512  0.4490  0.5902
61484SOL    HW193230  11.614   4.316   0.358 -0.9682  0.1627  1.5057
61484SOL    HW293231  11.670   4.233   0.472  0.9071  0.7649  1.0628
61485SOL     OW93232   9.295   9.089   1.245  0.6028 -0.6539 -0.4618
61485SOL    HW193233   9.273   9.074   1.337  2.3176 -0.1769  0.0628
61485SOL    HW293234   9.324   9.004   1.213  0.4570 -0.7149 -0.4322
61486SOL     OW93235  11.327  12.161  12.187 -0.0280 -0.2275 -0.7194
61486SOL    HW193236  11.416  12.138  12.213 -0.1565  0.1857  0.1082
61486SOL    HW293237  11.338  12.216  12.109  0.5655  1.4316  0.4827
61487SOL     OW93238   5.869   0.615   0.140 -0.9678 -0.0604  0.4334
61487SOL    HW193239   5.925   0.590   0.213  0.3899 -0.6745 -0.7668
61487SOL    HW293240   5.928   0.620   0.065 -2.5457 -1.0406 -0.9525
61488SOL     OW93241   6.811   5.270   0.089 -0.4718  0.2404 -0.3444
61488SOL    HW193242   6.854   5.197   0.044  0.9722 -0.5458  2.1307
61488SOL    HW293243   6.873   5.297   0.157 -2.2291  1.7953  0.7483
61489SOL     OW93244  10.791   4.397   0.221  0.7071 -0.2668 -0.0268
61489SOL    HW193245  10.811   4.479   0.266 -0.9444  0.2797 -0.2189
61489SOL    HW293246  10.734   4.349   0.281 -0.1279 -0.2847 -0.8030
61490SOL     OW93247  10.282   2.796   1.799 -0.2017  0.4106 -0.0067
61490SOL    HW193248  10.222   2.795   1.725  0.8825  2.2082 -0.9946
61490SOL    HW293249  10.361   2.752   1.767  0.8676  2.5821 -0.5638
61491SOL     OW93250  11.927   2.701  10.639 -0.2584  0.5303  0.5814
61491SOL    HW193251  11.992   2.677  10.705 -0.8158 -1.0928  0.5819
61491SOL    HW293252  11.968   2.773  10.590  1.1741  0.1299  1.1368
61492SOL     OW93253  11.328   3.889   8.244 -0.4604  0.3789 -0.1938
61492SOL    HW193254  11.289   3.863   8.327  4.6262 -2.9634  1.6351
61492SOL    HW293255  11.377   3.969   8.265 -0.7749  0.6551 -0.5168
61493SOL     OW93256  12.495   4.588   7.916  0.2122  0.5035 -0.3264
61493SOL    HW193257  12.527   4.528   7.984 -0.9683  0.9504  0.6667
61493SOL    HW293258  12.572   4.608   7.863  0.8191 -1.1846 -0.1577
61494SOL     OW93259   7.504   1.028   3.582  1.0988  0.3605 -0.5014
61494SOL    HW193260   7.500   1.113   3.537  1.7666 -0.0691 -1.4237
61494SOL    HW293261   7.528   1.050   3.672  1.3420  1.1502 -0.7450
61495SOL     OW93262  10.156   2.065   6.405 -0.2793  0.5532 -0.4873
61495SOL    HW193263  10.141   2.152   6.442 -1.3564  0.0279  0.3592
61495SOL    HW293264  10.070   2.035   6.377  0.0574 -0.2936 -0.6630
61496SOL     OW93265   0.822   2.314  11.502 -0.1878  0.0476  0.6984
61496SOL    HW193266   0.884   2.243  11.522  0.4461  0.2855 -0.3151
61496SOL    HW293267   0.774   2.282  11.426 -1.8812 -0.4473  1.9136
61497SOL     OW93268   8.343  10.686  11.027  0.0490 -0.6861 -0.1885
61497SOL    HW193269   8.432  10.674  10.994  0.5648 -0.7533  1.1732
61497SOL    HW293270   8.354  10.715  11.117 -1.3159 -1.1706  0.1636
61498SOL     OW93271   3.556   2.771   1.395 -0.1799 -0.0341 -0.4700
61498SOL    HW193272   3.627   2.710   1.373 -0.4535 -0.1767 -0.9531
61498SOL    HW293273   3.522   2.738   1.478  1.3203  0.9200  0.5722
61499SOL     OW93274  11.421   4.301   0.636  0.2884 -0.1030 -0.0771
61499SOL    HW193275  11.433   4.339   0.549 -1.1530  0.2958 -0.1336
61499SOL    HW293276  11.500   4.249   0.651 -0.2216 -1.7194 -2.4166
61500SOL     OW93277   1.246   1.598   1.417  0.2374 -0.6883 -0.4863
61500SOL    HW193278   1.228   1.672   1.475  1.1575 -0.9401  0.1616
61500SOL    HW293279   1.188   1.529   1.448  1.4194 -1.1388  0.8300
61501SOL     OW93280  11.358   9.159   8.413  0.1651 -0.3658 -0.4316
61501SOL    HW193281  11.420   9.142   8.484 -3.0236 -0.0924  2.6653
61501SOL    HW293282  11.359   9.254   8.403 -0.9844 -0.1732  0.9460
61502SOL     OW93283  10.897   3.302  12.338 -0.0078 -0.0482 -0.0353
61502SOL    HW193284  10.896   3.229  12.277  0.8740 -0.3148  0.2400
61502SOL    HW293285  10.931   3.264  12.420 -1.6052  0.1952  0.7660
61503SOL     OW93286   3.429   3.998   8.641 -0.3865 -0.3059  0.4687
61503SOL    HW193287   3.446   4.063   8.572  2.4688  2.6072  3.5231
61503SOL    HW293288   3.337   4.014   8.665 -0.0242  2.1713  0.5479
61504SOL     OW93289   5.933  11.162   4.509 -0.5668  0.0423 -0.1185
61504SOL    HW193290   5.859  11.139   4.564 -0.3073  0.7541  0.5518
61504SOL    HW293291   5.894  11.196   4.428 -0.9774  0.4508  0.2470
61505SOL     OW93292   1.939   1.930   5.845  0.2212  0.0961  0.0171
61505SOL    HW193293   1.984   1.868   5.902  0.9204 -0.3316 -0.9704
61505SOL    HW293294   2.008   1.967   5.790 -0.4493  0.4111 -0.6363
61506SOL     OW93295   3.639   1.074  11.076  0.0919 -0.0657  0.0805
61506SOL    HW193296   3.549   1.050  11.096  0.1404 -0.3476 -0.0323
61506SOL    HW293297   3.654   1.154  11.126 -0.4713  0.4212 -0.5262
61507SOL     OW93298   0.202   2.035   5.599 -0.4066  0.6210 -0.1968
61507SOL    HW193299   0.171   2.065   5.685  0.5717  1.8220 -0.2481
61507SOL    HW293300   0.259   1.961   5.619  0.0091  1.0462  0.2080
61508SOL     OW93301   9.223   4.137   0.542  0.0646  0.1742  0.6709
61508SOL    HW193302   9.186   4.066   0.595  1.9739 -0.4474  1.2449
61508SOL    HW293303   9.271   4.192   0.604  1.6818 -0.1280 -0.2449
61509SOL     OW93304   7.757   3.437   7.988  0.0746  0.1021 -0.7984
61509SOL    HW193305   7.765   3.483   7.905 -0.5757  2.8518  0.5613
61509SOL    HW293306   7.834   3.463   8.038  0.0585 -0.9069 -0.2086
61510SOL     OW93307   4.880  12.030   4.840 -0.4762  0.5980  0.1973
61510SOL    HW193308   4.798  12.070   4.869 -0.6137 -0.6215  1.6365
61510SOL    HW293309   4.948  12.089   4.872 -0.7251  0.4150  1.0953
61511SOL     OW93310   5.177   6.822  10.015  0.5193 -0.1764  0.0235
61511SOL    HW193311   5.207   6.813  10.106  0.6736 -0.1720 -0.0268
61511SOL    HW293312   5.130   6.905  10.013  0.2047 -0.3503  0.1865
61512SOL     OW93313   0.567   4.335   1.500  0.0443  0.2155 -0.7828
61512SOL    HW193314   0.478   4.350   1.533 -0.4915 -2.4577 -0.7394
61512SOL    HW293315   0.622   4.340   1.578 -0.7669 -2.5967  0.1179
61513SOL     OW93316   8.496  11.256   2.065 -0.2257 -0.2784  0.5106
61513SOL    HW193317   8.408  11.265   2.029 -0.2221  1.5859  0.9089
61513SOL    HW293318   8.534  11.183   2.016 -1.2574  0.2337 -1.1327
61514SOL     OW93319   2.503  11.812   9.542 -0.1540 -0.0270  0.0435
61514SOL    HW193320   2.466  11.797   9.629 -2.1886  0.9036 -0.6008
61514SOL    HW293321   2.549  11.896   9.550 -0.6309  0.2296  0.1551
61515SOL     OW93322   4.058   6.006   1.284  0.3776 -0.0787 -0.1584
61515SOL    HW193323   4.046   6.065   1.209 -1.1269 -1.4459 -1.0572
61515SOL    HW293324   4.010   5.926   1.260  2.1741 -1.6212  1.0885
61516SOL     OW93325   6.508   8.011  10.284  0.5801  0.1369 -0.3693
61516SOL    HW193326   6.600   8.013  10.312  0.7007  0.5105 -0.7851
61516SOL    HW293327   6.459   7.997  10.365  0.9347  1.1031  0.0244
61517SOL     OW93328  11.007   9.946  10.094 -0.5053 -0.3386 -0.0747
61517SOL    HW193329  10.985   9.894  10.017 -0.8926 -2.2419  1.2447
61517SOL    HW293330  11.012   9.882  10.165  1.7490  1.0617  1.1449
61518SOL     OW93331  10.936   8.730   4.440  0.5657 -0.2211  0.4896
61518SOL    HW193332  10.961   8.641   4.468 -0.0212 -0.5976 -0.1366
61518SOL    HW293333  10.841   8.728   4.440  0.5448 -0.0502 -0.9110
61519SOL     OW93334   0.060   3.309   9.662  0.1146 -0.5538 -0.0344
61519SOL    HW193335   0.149   3.328   9.692  0.3674  1.3667 -1.7900
61519SOL    HW293336   0.070   3.240   9.597  0.0941 -1.5194  0.9651
61520SOL     OW93337  10.967  11.104   3.701  0.6150 -0.1349 -0.5049
61520SOL    HW193338  11.032  11.042   3.670 -1.5134 -2.1802 -1.1132
61520SOL    HW293339  10.940  11.071   3.787  0.1983  0.5456 -0.3595
61521SOL     OW93340   6.949   8.663  12.195  0.3648 -0.2514 -0.3556
61521SOL    HW193341   7.006   8.706  12.132  0.1703 -0.3306 -0.5842
61521SOL    HW293342   6.867   8.713  12.193  0.6106  0.2033  0.3766
61522SOL     OW93343   9.588   2.289   4.883  0.2076  0.4848 -0.1650
61522SOL    HW193344   9.664   2.261   4.833  0.6710  0.1002  0.7225
61522SOL    HW293345   9.619   2.293   4.974 -0.9820 -0.2787  0.2977
61523SOL     OW93346   9.761   6.086  12.175  0.5345  0.5066 -0.6107
61523SOL    HW193347   9.676   6.108  12.212  0.9704  1.4583 -0.1483
61523SOL    HW293348   9.810   6.168  12.178  0.9895  0.3156 -2.2043
61524SOL     OW93349   1.459   4.075   9.383  0.0318  0.0570 -0.1016
61524SOL    HW193350   1.470   4.059   9.477 -0.2878 -1.5491 -0.3042
61524SOL    HW293351   1.430   4.166   9.377  0.9669  0.4842  1.2805
61525SOL     OW93352   9.477   1.169  11.871 -0.0136  0.0382  0.4116
61525SOL    HW193353   9.392   1.125  11.864  0.3293 -0.9313  1.7437
61525SOL    HW293354   9.466   1.229  11.945  1.0738 -1.7620  2.1355
61526SOL     OW93355   2.266   9.855   3.937  0.5519  0.3521 -0.6670
61526SOL    HW193356   2.294   9.862   3.846  0.1212 -0.0884 -0.8396
61526SOL    HW293357   2.260   9.946   3.967  0.9811  0.4891 -0.9878
61527SOL     OW93358   8.016   9.544   8.722 -0.4963 -0.0547 -0.2030
61527SOL    HW193359   7.935   9.592   8.737 -1.5477 -1.0712 -2.2539
61527SOL    HW293360   8.027   9.491   8.801 -1.7276  0.2486  0.2003
61528SOL     OW93361   6.214   7.005  11.606  0.4199  0.0822  0.0992
61528SOL    HW193362   6.124   7.026  11.629  0.0111 -1.6000  0.2029
61528SOL    HW293363   6.262   7.087  11.614 -0.8211  0.6951  1.4524
61529SOL     OW93364   8.126   5.715   2.911  0.7768  0.4643  0.3559
61529SOL    HW193365   8.160   5.736   2.824 -0.1565 -1.3330 -0.4953
61529SOL    HW293366   8.200   5.674   2.956  0.3647 -1.6681 -0.8064
61530SOL     OW93367   9.628   8.186   9.995  0.1283  0.2546  0.6043
61530SOL    HW193368   9.624   8.125   9.921  1.2389  1.3020 -0.3452
61530SOL    HW293369   9.620   8.129  10.072 -0.6839 -0.8985 -0.2852
61531SOL     OW93370  11.720   3.584  11.263  0.2959  0.2219 -0.1664
61531SOL    HW193371  11.741   3.560  11.173 -1.4723 -0.5117 -0.4168
61531SOL    HW293372  11.634   3.546  11.279 -0.2563  1.9269  1.2236
61532SOL     OW93373   3.552   9.208   7.224  0.9947  0.1694  0.3239
61532SOL    HW193374   3.624   9.225   7.162 -0.3704 -0.7919 -1.6327
61532SOL    HW293375   3.561   9.116   7.246  1.0390  0.3347  1.0244
61533SOL     OW93376   7.960  11.974   1.464  0.2928  0.1832 -0.4814
61533SOL    HW193377   8.043  12.012   1.494 -0.2713  0.3404  0.9477
61533SOL    HW293378   7.973  11.879   1.473 -0.1537  0.2479  1.1363
61534SOL     OW93379   3.829   6.325   3.132  0.2287 -0.5043  0.1783
61534SOL    HW193380   3.840   6.286   3.219 -0.7063 -2.3318 -0.4823
61534SOL    HW293381   3.891   6.278   3.076 -0.2158 -0.3766 -0.4401
61535SOL     OW93382   8.913  10.752   2.625  0.7723 -0.7503  0.4188
61535SOL    HW193383   8.984  10.803   2.586 -0.3484  0.7807  0.3041
61535SOL    HW293384   8.859  10.725   2.551 -0.9328  1.5026  0.7494
61536SOL     OW93385  11.025   7.018  10.324  0.7100 -0.4641 -0.7385
61536SOL    HW193386  10.978   6.935  10.321 -2.7801  1.2538  0.5507
61536SOL    HW293387  11.043   7.032  10.417  2.0231 -0.1220 -1.0228
61537SOL     OW93388   4.092   7.252  12.405 -0.3068  0.2138  0.2012
61537SOL    HW193389   4.147   7.260  12.327  0.0789 -1.4808  0.2631
61537SOL    HW293390   4.003   7.266  12.373 -0.3732 -2.2507 -0.9841
61538SOL     OW93391   1.316  12.321   7.509 -0.5491 -0.3341 -0.2273
61538SOL    HW193392   1.400  12.366   7.500 -0.3854 -0.5245  0.2704
61538SOL    HW293393   1.339  12.228   7.510 -0.7098 -0.3728  0.4052
61539SOL     OW93394   5.697   7.762   8.373  0.0353  0.1407  0.6659
61539SOL    HW193395   5.673   7.670   8.360  0.9221  0.0602 -0.5954
61539SOL    HW293396   5.714   7.795   8.285 -1.8981  2.0076  0.9348
61540SOL     OW93397   9.995   9.024   2.877  0.6313  0.0719 -0.0878
61540SOL    HW193398  10.085   9.022   2.843  0.2419 -0.4091 -1.1282
61540SOL    HW293399   9.941   8.993   2.804 -0.6361  2.4445 -0.2681
61541SOL     OW93400  10.363   7.265   6.223  0.4834  0.2696  0.5318
61541SOL    HW193401  10.422   7.340   6.231  0.5591  0.1797  0.8234
61541SOL    HW293402  10.406   7.207   6.159 -0.1744  1.0352 -0.6432
61542SOL     OW93403   4.186   9.943   3.997  0.1042 -0.5239 -0.0697
61542SOL    HW193404   4.188   9.939   4.093  0.2537 -1.4976 -0.1042
61542SOL    HW293405   4.192  10.036   3.977 -0.0374 -0.3005  0.8700
61543SOL     OW93406   3.155   7.084   3.365  0.1255  0.3932  0.3226
61543SOL    HW193407   3.214   7.104   3.438 -0.1552  0.6561  0.4796
61543SOL    HW293408   3.099   7.014   3.399  2.2088 -1.9848 -0.7828
61544SOL     OW93409   5.646  10.385   4.268  0.0937  0.3600  0.0760
61544SOL    HW193410   5.614  10.296   4.284  0.6240  0.1539  0.0117
61544SOL    HW293411   5.713  10.374   4.201 -0.3871  0.9124 -0.4994
61545SOL     OW93412  11.839   3.393   6.096  0.0443  0.5707  0.2461
61545SOL    HW193413  11.867   3.304   6.116 -0.5804  0.6449  1.5647
61545SOL    HW293414  11.908   3.449   6.132  0.9834  0.6445 -1.5187
61546SOL     OW93415   0.806   9.443   5.091 -0.1293 -0.0692 -0.9293
61546SOL    HW193416   0.718   9.444   5.055 -1.1070  0.8407  1.2767
61546SOL    HW293417   0.855   9.507   5.040 -0.1231 -1.9704 -3.4550
61547SOL     OW93418   3.391  10.492   7.330  0.2918 -0.1369 -0.3891
61547SOL    HW193419   3.298  10.494   7.353  0.4643 -1.6251  0.5764
61547SOL    HW293420   3.392  10.504   7.235 -0.8988 -0.2718 -0.4350
61548SOL     OW93421   1.826   9.196  11.822 -0.7469  0.0189 -0.8779
61548SOL    HW193422   1.873   9.258  11.766 -1.5893  0.9966 -0.5450
61548SOL    HW293423   1.875   9.115  11.815  0.4149  0.7322 -1.3117
61549SOL     OW93424   4.860   5.207   5.581  0.2749 -0.5859 -0.4372
61549SOL    HW193425   4.784   5.223   5.527  0.1390 -1.3348 -0.4750
61549SOL    HW293426   4.899   5.127   5.546  0.7402 -0.5392 -0.0477
61550SOL     OW93427   3.501   5.908   9.617 -0.4831  0.3712 -0.3432
61550SOL    HW193428   3.414   5.947   9.624 -0.5720 -0.0292  1.0115
61550SOL    HW293429   3.561   5.982   9.611 -0.7214  0.7449  1.3607
61551SOL     OW93430  11.568   1.411   2.329 -0.5524  0.6525 -0.2345
61551SOL    HW193431  11.603   1.474   2.392  0.1078 -0.2480  0.3185
61551SOL    HW293432  11.645   1.377   2.283 -0.8549 -0.0692 -0.2269
61552SOL     OW93433   7.848   3.033   0.747  0.5726  0.6060  0.0759
61552SOL    HW193434   7.906   2.960   0.727 -1.1164 -0.8167  0.1208
61552SOL    HW293435   7.775   2.993   0.796 -0.9158  2.1289 -0.8089
61553SOL     OW93436   8.986   1.440   8.887  0.9510  0.0042 -0.1316
61553SOL    HW193437   8.983   1.377   8.814  0.5137  0.5420 -0.5841
61553SOL    HW293438   9.075   1.474   8.886  0.9993 -0.1258 -0.2991
61554SOL     OW93439   4.348   1.709   5.411  0.2143  0.0912 -0.0026
61554SOL    HW193440   4.316   1.790   5.451 -0.4199  0.1402 -0.5945
61554SOL    HW293441   4.385   1.737   5.327  0.5738 -0.1518  0.0733
61555SOL     OW93442   3.377   7.883  11.643 -0.4085 -0.0575  0.0230
61555SOL    HW193443   3.453   7.926  11.683 -0.4242  0.9068 -0.9355
61555SOL    HW293444   3.406   7.861  11.554 -1.5369  1.1803 -0.6788
61556SOL     OW93445   0.206   0.175   9.053 -0.2618 -0.2442  0.2747
61556SOL    HW193446   0.113   0.154   9.046 -0.1259 -0.7396 -0.0454
61556SOL    HW293447   0.235   0.187   8.963  0.1921 -1.0249  0.3049
61557SOL     OW93448   1.474   1.518  11.740  0.2671  0.2147 -0.3936
61557SOL    HW193449   1.507   1.494  11.653 -0.9391 -2.5655 -0.1916
61557SOL    HW293450   1.426   1.599  11.726 -0.1273 -0.3152 -2.4001
61558SOL     OW93451   0.850   0.808   1.356  0.2562  0.1297 -0.0806
61558SOL    HW193452   0.756   0.813   1.372  0.0995 -0.6932 -0.6363
61558SOL    HW293453   0.880   0.738   1.414  0.2171 -0.7598 -1.1066
61559SOL     OW93454  10.628   6.596   2.805  0.2257 -0.1343 -0.1429
61559SOL    HW193455  10.554   6.654   2.787 -0.0551 -0.6546 -0.7150
61559SOL    HW293456  10.658   6.622   2.892 -2.0285 -1.3582  1.1098
61560SOL     OW93457   3.007   1.993   7.014  0.1365  0.1790 -0.5574
61560SOL    HW193458   2.975   1.905   6.994  0.3764  0.2884 -1.4645
61560SOL    HW293459   3.084   2.004   6.958 -1.8252  2.2493 -3.0943
61561SOL     OW93460   6.640   3.699  10.180 -0.3011  0.1588  0.1329
61561SOL    HW193461   6.621   3.640  10.108  0.4950  1.0691 -0.8744
61561SOL    HW293462   6.606   3.655  10.257  1.8611 -2.5060 -0.2627
61562SOL     OW93463   5.590   1.001   7.767  0.3412 -0.0266  0.4789
61562SOL    HW193464   5.517   0.944   7.745 -0.4487  0.6597  1.2749
61562SOL    HW293465   5.655   0.942   7.805  0.8489 -0.8819 -1.5648
61563SOL     OW93466  10.994   1.271   0.093 -0.5619 -0.0137 -0.0168
61563SOL    HW193467  11.023   1.284   0.183 -3.4491  1.4501  0.8100
61563SOL    HW293468  11.046   1.334   0.042  0.7576 -0.5307  0.6279
61564SOL     OW93469   5.510   1.292   2.896 -0.4322  0.0745  0.1627
61564SOL    HW193470   5.508   1.355   2.968  1.0950 -0.2755  0.5482
61564SOL    HW293471   5.564   1.334   2.829 -0.6712 -0.1905 -0.2003
61565SOL     OW93472   4.745  12.194   8.999  0.7639  0.0412  0.3589
61565SOL    HW193473   4.704  12.252   9.063  0.2604  1.8371 -1.4848
61565SOL    HW293474   4.783  12.253   8.934  0.9614 -1.6955 -1.1781
61566SOL     OW93475   8.255   4.783   8.690  0.2507 -0.1086  0.4399
61566SOL    HW193476   8.305   4.864   8.704 -0.4846  0.4578 -0.1226
61566SOL    HW293477   8.316   4.724   8.646  0.8392  0.0813  0.9838
61567SOL     OW93478   8.102  10.105   6.222 -0.0674 -0.2587  0.1479
61567SOL    HW193479   8.052  10.039   6.270 -0.0202  0.3243  1.0381
61567SOL    HW293480   8.194  10.079   6.233  0.0052  0.3552  1.1689
61568SOL     OW93481   3.471   9.140   6.091 -0.0768  0.5853 -0.5745
61568SOL    HW193482   3.388   9.120   6.134  0.6318  0.6716  0.8992
61568SOL    HW293483   3.498   9.224   6.128 -0.1986  1.5092 -2.4241
61569SOL     OW93484  10.481   0.606   5.254  0.1632 -0.6798 -0.1500
61569SOL    HW193485  10.530   0.618   5.173  0.7300 -1.6917  0.0289
61569SOL    HW293486  10.483   0.692   5.296 -0.1816 -0.1333 -1.2234
61570SOL     OW93487   8.195   2.663   5.404  0.2855  0.0818  0.1230
61570SOL    HW193488   8.248   2.712   5.341 -1.6139  0.1496 -1.5094
61570SOL    HW293489   8.126   2.724   5.430  0.5695 -0.2241  1.7152
61571SOL     OW93490   5.066  10.781   2.881 -0.5019 -0.0446 -0.1134
61571SOL    HW193491   5.103  10.807   2.796 -0.2148 -1.0100 -0.3009
61571SOL    HW293492   5.141  10.780   2.940 -0.2297 -1.7945 -0.4429
61572SOL     OW93493   4.491   5.612   3.681  0.2388  0.0813  0.2410
61572SOL    HW193494   4.407   5.595   3.724  0.4561 -1.7612  0.0049
61572SOL    HW293495   4.516   5.699   3.713 -0.4642 -0.4538  2.4813
61573SOL     OW93496   0.994  10.640   5.958  0.3596  0.1611 -0.1151
61573SOL    HW193497   1.052  10.585   6.012  1.6962  0.5240 -1.1175
61573SOL    HW293498   0.944  10.692   6.021 -0.6720 -1.8993  0.8535
61574SOL     OW93499   4.160  10.437   8.281 -0.2230  0.2073 -0.0775
61574SOL    HW193500   4.141  10.492   8.357 -0.9587  0.8820 -0.7364
61574SOL    HW293501   4.217  10.367   8.315 -1.8813 -0.4559  1.4413
61575SOL     OW93502   7.146   6.598   6.399 -0.2567  0.5619 -0.2582
61575SOL    HW193503   7.129   6.621   6.491  1.3407  2.0314 -0.2795
61575SOL    HW293504   7.169   6.505   6.402 -1.2212  0.3253  0.6634
61576SOL     OW93505   1.313   3.394   6.230 -0.3687 -0.1302 -0.1084
61576SOL    HW193506   1.259   3.318   6.210 -1.1909  0.4489 -0.1145
61576SOL    HW293507   1.251   3.465   6.244  0.3170  0.2401  1.2235
61577SOL     OW93508   4.413   1.955   8.471 -0.1099  0.1446 -0.3607
61577SOL    HW193509   4.337   2.002   8.437 -0.3062  1.2778  1.4958
61577SOL    HW293510   4.471   2.024   8.504  0.9820 -0.7864 -0.2780
61578SOL     OW93511   6.326   4.113   7.982 -0.1464 -0.2095 -0.2042
61578SOL    HW193512   6.300   4.204   7.998 -0.0974 -0.5003  1.8614
61578SOL    HW293513   6.416   4.108   8.015  0.4141 -0.6493 -1.7541
61579SOL     OW93514   2.614   4.945  10.131 -0.7252 -0.1127  0.4244
61579SOL    HW193515   2.614   4.851  10.116 -0.7593 -0.2561  1.2770
61579SOL    HW293516   2.537   4.961  10.185 -0.4000  0.3210  0.7648
61580SOL     OW93517   6.507   2.695   1.309  0.1980 -0.0353 -0.4855
61580SOL    HW193518   6.593   2.730   1.287  0.2179  1.3794  1.5611
61580SOL    HW293519   6.456   2.705   1.228  1.5580  0.3834 -1.3240
61581SOL     OW93520   2.461   8.633   7.766 -0.2124  0.0454 -0.3412
61581SOL    HW193521   2.451   8.604   7.676 -1.0495 -0.4410 -0.1108
61581SOL    HW293522   2.466   8.728   7.761 -1.4964  0.1069 -0.8155
61582SOL     OW93523   4.120   1.545  10.378 -0.1266  0.7225 -0.0745
61582SOL    HW193524   4.206   1.553  10.337  0.0506  2.2048  0.5018
61582SOL    HW293525   4.138   1.548  10.472 -0.7741  0.5436  0.0581
61583SOL     OW93526   8.485   7.263   9.705 -0.1875 -0.2039 -0.1491
61583SOL    HW193527   8.414   7.207   9.674  0.3094 -0.7097 -0.3947
61583SOL    HW293528   8.549   7.262   9.633  0.0070  0.3533  0.0134
61584SOL     OW93529   3.223   6.976   0.193 -0.4371 -0.2574 -0.4952
61584SOL    HW193530   3.223   6.886   0.160 -1.8184 -0.6669  0.5020
61584SOL    HW293531   3.270   7.026   0.127 -0.1177 -1.6240 -1.3443
61585SOL     OW93532  12.580  10.255   1.880  0.1734 -0.6948  0.6632
61585SOL    HW193533  12.589  10.293   1.792 -0.3011 -2.4378 -0.1855
61585SOL    HW293534  12.504  10.301   1.917  1.0706  0.8656  0.6344
61586SOL     OW93535   0.339  10.937   0.750  0.2760 -0.1840 -0.0926
61586SOL    HW193536   0.401  10.970   0.814  0.6752 -1.5757  0.2815
61586SOL    HW293537   0.321  11.011   0.692  3.5101 -0.1155 -1.2125
61587SOL     OW93538   7.696  11.930   9.490 -0.1990 -0.0016 -0.0407
61587SOL    HW193539   7.698  11.935   9.395  0.0707  1.8210  0.0321
61587SOL    HW293540   7.629  11.992   9.516 -0.8756 -1.1060  0.9480
61588SOL     OW93541   9.245   1.322   1.429  0.1018  0.1848  0.5228
61588SOL    HW193542   9.165   1.274   1.448  0.9534 -0.8680  1.6016
61588SOL    HW293543   9.221   1.381   1.358 -2.4309  2.0491  2.7082
61589SOL     OW93544   7.537   9.953  11.507  0.4301  0.4623 -0.4766
61589SOL    HW193545   7.542   9.961  11.602  1.0578 -0.6659 -0.3872
61589SOL    HW293546   7.629   9.949  11.479  0.2528  0.8749 -1.1410
61590SOL     OW93547   0.116   7.061   9.638  0.5459  0.3070 -0.0515
61590SOL    HW193548   0.202   7.098   9.660  1.7025 -2.7920  1.1719
61590SOL    HW293549   0.134   6.969   9.620 -2.8767 -1.4286  3.7869
61591SOL     OW93550   5.940   0.866   8.452 -0.1384  0.2481  0.1461
61591SOL    HW193551   5.850   0.835   8.441 -0.6939  1.7639  0.2069
61591SOL    HW293552   5.988   0.829   8.378 -1.2834  1.0902 -1.0685
61592SOL     OW93553  10.384   1.717   8.247  0.1600  0.9860  0.2501
61592SOL    HW193554  10.323   1.645   8.234  0.9033  0.5649 -1.1527
61592SOL    HW293555  10.409   1.743   8.159  0.2509  2.6825  0.7516
61593SOL     OW93556   0.672   4.608   9.969 -0.7436 -0.0780 -0.4349
61593SOL    HW193557   0.722   4.543  10.019  1.2415 -0.0259 -2.2062
61593SOL    HW293558   0.687   4.690  10.015 -1.5727 -0.5174  0.6513
61594SOL     OW93559   5.664  11.273   4.510  0.3626 -0.5667  0.0640
61594SOL    HW193560   5.650  11.194   4.457 -2.0706 -0.4450  0.3977
61594SOL    HW293561   5.636  11.247   4.598  0.6260  0.3599  0.4320
61595SOL     OW93562   8.221   0.953   7.335 -0.5123 -0.0996 -0.3174
61595SOL    HW193563   8.297   1.006   7.309 -1.3269  1.5126  0.4181
61595SOL    HW293564   8.156   0.972   7.267 -1.2278  0.8322  0.6127
61596SOL     OW93565   0.964   2.377   3.508 -0.4646 -0.7099 -0.1715
61596SOL    HW193566   0.992   2.337   3.426 -1.2740 -1.4967 -0.0832
61596SOL    HW293567   1.007   2.463   3.509 -1.9221  0.1400 -2.3307
61597SOL     OW93568   9.653   5.236  11.366 -0.2523  0.0279  0.3235
61597SOL    HW193569   9.731   5.291  11.359 -1.3292  1.6417  0.4962
61597SOL    HW293570   9.687   5.149  11.387  1.4373  0.9656  1.7535
61598SOL     OW93571   9.343   6.929   8.645 -0.2699  0.2794 -0.6031
61598SOL    HW193572   9.364   6.900   8.556 -0.3468 -1.2272 -0.1685
61598SOL    HW293573   9.249   6.948   8.643  0.3219  3.7346 -1.6942
61599SOL     OW93574   1.556   9.048   6.895  0.2531 -0.6063 -0.1903
61599SOL    HW193575   1.503   9.050   6.815 -0.4205 -0.3594  0.2556
61599SOL    HW293576   1.575   9.140   6.913  0.5866 -0.6760 -0.1848
61600SOL     OW93577   2.233  12.022   1.219  0.5198  0.2224  0.0010
61600SOL    HW193578   2.202  11.951   1.275 -1.4988 -0.5667 -1.9195
61600SOL    HW293579   2.327  12.008   1.212  1.0091  0.8380  3.6842
61601SOL     OW93580   4.264   6.093   6.685  0.5679 -0.2688  0.1878
61601SOL    HW193581   4.256   6.188   6.675  0.1072 -0.1844  1.1737
61601SOL    HW293582   4.239   6.058   6.600  2.1479  0.5293 -0.6429
61602SOL     OW93583   2.119   5.803   5.322  0.2569 -0.5177  0.2596
61602SOL    HW193584   2.146   5.715   5.296  0.0557 -0.2883 -0.7495
61602SOL    HW293585   2.122   5.802   5.418 -0.6827 -1.9152  0.2908
61603SOL     OW93586  10.665  11.738   5.579  0.1324  0.1049 -0.3355
61603SOL    HW193587  10.575  11.769   5.590  0.0146 -1.0751  3.5195
61603SOL    HW293588  10.655  11.653   5.536 -0.7711 -0.4562  0.9044
61604SOL     OW93589   9.644   4.617   5.491  0.0738 -0.1173 -0.2718
61604SOL    HW193590   9.553   4.594   5.513 -0.2094  1.5546  0.5328
61604SOL    HW293591   9.685   4.534   5.468 -1.4549 -1.0326  0.1269
61605SOL     OW93592  11.887   4.887   4.023 -0.1004  0.6810  0.1781
61605SOL    HW193593  11.876   4.960   3.961 -0.4281  0.2932 -0.2278
61605SOL    HW293594  11.901   4.811   3.967  3.7686  0.9073  0.5431
61606SOL     OW93595   0.265   4.673   6.465 -0.1397  0.0152 -0.3621
61606SOL    HW193596   0.186   4.647   6.417 -0.5966 -0.9872  0.8507
61606SOL    HW293597   0.316   4.724   6.403 -2.5599  2.2609 -0.6791
61607SOL     OW93598   1.012   7.560   5.010 -0.0886  0.5936 -0.4903
61607SOL    HW193599   1.080   7.566   4.943  0.4668 -0.0694  0.0032
61607SOL    HW293600   0.952   7.492   4.978  0.3055  0.1066 -0.2169
61608SOL     OW93601   3.551   1.612   2.035  0.4578  0.0147 -0.0613
61608SOL    HW193602   3.505   1.586   2.115  1.5426 -1.9453 -0.0332
61608SOL    HW293603   3.509   1.694   2.010  0.9693  1.5025  3.2823
61609SOL     OW93604  11.686   3.670   8.740 -0.6736  0.2815 -0.2268
61609SOL    HW193605  11.723   3.710   8.819  1.3674  0.7055 -1.3287
61609SOL    HW293606  11.709   3.578   8.747 -1.1642  0.1725  0.0146
61610SOL     OW93607   3.342  12.489   0.366  0.1453  0.0641  0.8702
61610SOL    HW193608   3.342  12.445   0.281  0.2105 -1.6483  1.6990
61610SOL    HW293609   3.263  12.543   0.365 -1.2250 -1.8259  0.6049
61611SOL     OW93610  12.071   2.360  10.921 -0.1831 -0.4580 -0.1841
61611SOL    HW193611  12.117   2.323  10.996  0.5125  2.3617  0.8909
61611SOL    HW293612  12.122   2.438  10.897 -2.4356  0.8041 -1.1948
61612SOL     OW93613  10.579   3.252   8.116 -0.3345  0.7392  0.0610
61612SOL    HW193614  10.639   3.324   8.099 -0.0097  0.9101  1.7364
61612SOL    HW293615  10.616   3.207   8.192 -0.3605 -1.4177 -1.1087
61613SOL     OW93616   1.496   0.989  11.955  0.2257  0.7639  0.0379
61613SOL    HW193617   1.439   1.053  11.997 -0.8448  0.2640 -0.6028
61613SOL    HW293618   1.580   1.035  11.945 -0.0848  1.5530  0.9035
61614SOL     OW93619   8.109   3.449   2.538 -0.5183  0.4925 -0.4645
61614SOL    HW193620   8.020   3.471   2.514 -0.8518 -0.6241 -0.3052
61614SOL    HW293621   8.100   3.392   2.614  0.2992 -0.2586 -0.9133
61615SOL     OW93622  11.741   2.263   1.758  0.1131 -0.0069  0.8378
61615SOL    HW193623  11.665   2.309   1.723  0.6868  0.3387  0.0094
61615SOL    HW293624  11.717   2.170   1.753 -0.5536  0.1333  1.3339
61616SOL     OW93625   1.115  10.333   0.351  0.4342  0.2794 -0.2043
61616SOL    HW193626   1.181  10.342   0.282  0.4270  0.9860 -0.1242
61616SOL    HW293627   1.162  10.355   0.432  0.0814  0.8728 -0.1574
61617SOL     OW93628   5.638   8.955  10.590  0.0070  0.0398 -0.1085
61617SOL    HW193629   5.663   8.887  10.653  0.0316 -0.2849 -0.4693
61617SOL    HW293630   5.718   8.972  10.541  0.1530  0.7421  0.3585
61618SOL     OW93631   0.283   0.937  11.429 -0.1038  0.0838 -0.1590
61618SOL    HW193632   0.233   1.000  11.481 -3.9388 -2.4162 -0.3656
61618SOL    HW293633   0.282   0.857  11.482  0.9506 -0.9427 -1.6193
61619SOL     OW93634   5.422  10.268   5.938 -0.7504  0.6697 -0.3392
61619SOL    HW193635   5.374  10.342   5.902  0.4748  2.1513  0.9375
61619SOL    HW293636   5.451  10.297   6.024  1.6097 -0.4699 -0.6464
61620SOL     OW93637   9.265  12.117   3.609  0.0987 -0.1782 -0.0536
61620SOL    HW193638   9.233  12.056   3.544 -0.6536  1.6255 -1.4611
61620SOL    HW293639   9.204  12.191   3.606  2.3154  1.7832 -0.2741
61621SOL     OW93640   1.777   0.509   5.190  0.0276 -0.1109  0.1513
61621SOL    HW193641   1.815   0.585   5.145 -1.1857  0.7064  0.4468
61621SOL    HW293642   1.821   0.434   5.153  1.5372  0.7625  0.1074
61622SOL     OW93643   7.382   5.551   2.170  0.5974  0.0510 -0.0229
61622SOL    HW193644   7.398   5.532   2.077  0.2371  1.2917 -0.3621
61622SOL    HW293645   7.299   5.599   2.170  0.4617 -0.1796  0.9779
61623SOL     OW93646  11.231   1.843   8.209  0.4062 -0.2051  0.3468
61623SOL    HW193647  11.169   1.907   8.172 -0.2501  0.3387  2.2560
61623SOL    HW293648  11.222   1.766   8.153 -1.2077  0.2463 -0.0756
61624SOL     OW93649   0.782  10.597   7.337 -0.3072 -0.1934  0.6026
61624SOL    HW193650   0.704  10.645   7.364 -0.0479 -0.1086  1.2082
61624SOL    HW293651   0.850  10.664   7.327 -0.8245  0.0537 -2.0758
61625SOL     OW93652  12.033  10.021   7.881  0.0103  0.1285 -0.2819
61625SOL    HW193653  12.019   9.987   7.793  1.2814 -0.0456 -0.4408
61625SOL    HW293654  12.114  10.072   7.874 -1.0096  1.8953  0.3087
61626SOL     OW93655   3.123   8.560   1.627 -0.2998 -0.1303  0.0340
61626SOL    HW193656   3.118   8.614   1.707  0.0070 -3.0437  2.1882
61626SOL    HW293657   3.213   8.572   1.597 -0.5245  1.2960 -0.1371
61627SOL     OW93658  12.600   9.200   8.004 -0.0529  0.2130  0.3468
61627SOL    HW193659  12.663   9.189   8.076 -0.1031 -1.8684  0.1447
61627SOL    HW293660  12.649   9.176   7.925 -0.3033  1.4153 -0.1862
61628SOL     OW93661   4.633   6.937   2.413  0.3446  0.4784  1.0766
61628SOL    HW193662   4.584   6.914   2.335 -2.8522  1.6121  2.5731
61628SOL    HW293663   4.606   6.872   2.478 -0.0821  1.7841  2.2516
61629SOL     OW93664   9.607   6.216   8.315 -0.0390 -0.5410 -0.1373
61629SOL    HW193665   9.565   6.282   8.261  1.3131  0.6347  0.1859
61629SOL    HW293666   9.668   6.171   8.256 -1.1529 -1.7386 -0.4269
61630SOL     OW93667   8.937  11.159  10.755  0.3732 -0.2682  0.1353
61630SOL    HW193668   8.862  11.149  10.696  0.0253 -0.0254  0.5302
61630SOL    HW293669   8.898  11.186  10.839  1.0953  2.4827 -0.3263
61631SOL     OW93670   2.314   7.509  10.099 -0.1321 -0.2552 -0.2125
61631SOL    HW193671   2.329   7.577  10.034 -0.3540 -0.5544 -0.5841
61631SOL    HW293672   2.222   7.484  10.086 -0.1732 -0.3187  0.2109
61632SOL     OW93673   4.325   7.243   0.501 -0.0577 -0.5789 -0.0123
61632SOL    HW193674   4.357   7.224   0.412 -1.4750  0.3462 -0.7505
61632SOL    HW293675   4.345   7.163   0.550  0.8415 -1.0798 -1.1191
61633SOL     OW93676   4.761   9.436  12.485 -0.0229  0.1624  0.1241
61633SOL    HW193677   4.839   9.424  12.539 -0.3863  2.0719  1.1467
61633SOL    HW293678   4.775   9.519  12.441 -0.7337 -0.3065 -1.0399
61634SOL     OW93679   7.881   4.516   4.350  0.1799  0.1351 -0.3748
61634SOL    HW193680   7.882   4.473   4.435 -0.2366  1.1737  0.1779
61634SOL    HW293681   7.971   4.514   4.320  0.2976 -0.3945  0.0080
61635SOL     OW93682   7.886  11.636   3.613 -0.0073  0.3949  0.3685
61635SOL    HW193683   7.926  11.662   3.696  1.8669 -1.3994  0.1249
61635SOL    HW293684   7.873  11.542   3.621  0.8417  0.0585 -1.5824
61636SOL     OW93685   6.122   8.686   5.337 -0.3206 -0.3981 -0.0771
61636SOL    HW193686   6.094   8.777   5.329  0.2936 -0.1118  0.9094
61636SOL    HW293687   6.133   8.657   5.247 -1.0893  0.3243 -0.4185
61637SOL     OW93688  11.373   5.858   7.387  0.4163  0.0503 -0.5719
61637SOL    HW193689  11.307   5.792   7.365  0.3333 -0.2946  0.6407
61637SOL    HW293690  11.322   5.931   7.422  0.4276  1.1728 -2.6896
61638SOL     OW93691   4.440   7.718  12.243 -0.5214 -0.1519 -0.3128
61638SOL    HW193692   4.374   7.782  12.217 -0.0878  0.9066  1.1101
61638SOL    HW293693   4.405   7.678  12.323  1.2545  1.6339  1.4495
61639SOL     OW93694  11.499  11.760  12.380  0.5402 -0.5799  0.0838
61639SOL    HW193695  11.441  11.836  12.368  0.0525 -1.1176 -1.0783
61639SOL    HW293696  11.561  11.765  12.307  1.3100 -0.6095  0.7161
61640SOL     OW93697   7.346  11.348  11.253 -0.6750 -0.3138  0.0965
61640SOL    HW193698   7.262  11.349  11.208 -0.2570 -0.0498 -0.6837
61640SOL    HW293699   7.323  11.356  11.346 -1.7517 -4.3567  0.3447
61641SOL     OW93700   8.763   5.105   0.929 -0.2026  0.0702  0.6436
61641SOL    HW193701   8.724   5.047   0.863  2.0178 -1.2269  0.3689
61641SOL    HW293702   8.724   5.076   1.011 -0.2864 -0.7570  0.3250
61642SOL     OW93703   3.775   9.376   5.465 -0.1498 -1.0772 -0.0996
61642SOL    HW193704   3.753   9.466   5.490  0.0795 -0.9598 -0.3240
61642SOL    HW293705   3.704   9.324   5.501 -0.6738 -0.7275 -0.6101
61643SOL     OW93706   5.752   7.714   8.733 -0.2865  0.0444  0.6508
61643SOL    HW193707   5.818   7.754   8.676 -0.1099 -0.9729  0.1188
61643SOL    HW293708   5.718   7.787   8.785  2.0349  0.4284  1.7620
61644SOL     OW93709  12.093   9.911  12.572  0.2574 -0.2302 -0.5382
61644SOL    HW193710  12.105   9.923  12.666 -0.0182  1.4534 -0.6911
61644SOL    HW293711  12.149   9.978  12.532  1.9242 -2.1655 -1.6601
61645SOL     OW93712   8.938   5.042   0.703 -0.1706 -0.3047 -0.1933
61645SOL    HW193713   8.863   5.023   0.646  0.3247  0.4820 -1.1499
61645SOL    HW293714   8.920   4.994   0.784 -1.7012 -0.1463 -0.4069
61646SOL     OW93715   8.334   6.199  10.277  0.2338  0.2176  0.1955
61646SOL    HW193716   8.422   6.217  10.244 -0.0469  0.3439 -0.4992
61646SOL    HW293717   8.346   6.186  10.371  1.1305 -0.6679 -0.0260
61647SOL     OW93718   4.176  11.864  10.890  0.4022 -0.0833  0.9146
61647SOL    HW193719   4.183  11.772  10.914  0.2416 -0.0947  0.9254
61647SOL    HW293720   4.085  11.887  10.912  0.4281  0.0639  0.8691
61648SOL     OW93721   2.336   3.851   8.448 -0.2455 -0.1297  0.0866
61648SOL    HW193722   2.277   3.925   8.459  0.8825  0.7592  0.4210
61648SOL    HW293723   2.313   3.791   8.519 -0.3740  0.4797  0.5711
61649SOL     OW93724   0.399   1.223   1.762 -0.8957  0.0721  0.0528
61649SOL    HW193725   0.339   1.298   1.763 -2.1099 -0.8402  2.2339
61649SOL    HW293726   0.475   1.254   1.711 -2.1650  2.0832 -0.7422
61650SOL     OW93727   4.577  12.379   4.868 -0.1868 -0.3261  0.3777
61650SOL    HW193728   4.591  12.296   4.912  0.1999 -0.6585 -0.3604
61650SOL    HW293729   4.665  12.413   4.850 -0.3072 -0.7548 -1.1538
61651SOL     OW93730   8.756   5.557   3.235 -0.0005  0.0604  0.4745
61651SOL    HW193731   8.821   5.625   3.256 -0.2622  0.1942  0.8632
61651SOL    HW293732   8.786   5.480   3.283 -0.1220  0.1197  0.6474
61652SOL     OW93733  11.065   4.779   1.489 -0.2186 -0.5025 -0.0380
61652SOL    HW193734  11.133   4.712   1.474 -0.2092 -0.1780 -1.6237
61652SOL    HW293735  11.080   4.843   1.420  0.4021  1.7110  2.0331
61653SOL     OW93736   9.453   3.496   4.719  0.2430 -0.7677 -0.0866
61653SOL    HW193737   9.538   3.453   4.711 -0.7866 -2.7968 -0.8282
61653SOL    HW293738   9.429   3.484   4.811  0.7260 -0.1728  0.1306
61654SOL     OW93739  12.121   4.844   7.799  0.2526 -0.1882 -0.1270
61654SOL    HW193740  12.150   4.849   7.708 -1.2339 -0.9213 -0.6773
61654SOL    HW293741  12.133   4.752   7.823 -0.5313 -0.2629 -0.0032
61655SOL     OW93742   0.654   1.586   6.989  0.0504  0.2376 -0.2608
61655SOL    HW193743   0.595   1.537   6.933 -1.5390  1.4461  0.2869
61655SOL    HW293744   0.713   1.520   7.025 -0.5305 -0.9129 -1.3490
61656SOL     OW93745   6.553  12.485   3.120 -0.2266 -0.4885  0.2935
61656SOL    HW193746   6.497  12.464   3.194  1.7777 -1.2562  1.6650
61656SOL    HW293747   6.564  12.402   3.074  0.3656 -0.4983  0.4519
61657SOL     OW93748   3.691   0.892  11.297 -0.2746  0.0102  0.4053
61657SOL    HW193749   3.618   0.946  11.327  0.8078  1.4630  0.5484
61657SOL    HW293750   3.713   0.927  11.210  0.2767 -0.3782  0.3791
61658SOL     OW93751   6.256   9.262   9.169  0.2823  0.0984  0.1079
61658SOL    HW193752   6.229   9.302   9.251  1.2291 -0.9209  0.9446
61658SOL    HW293753   6.174   9.236   9.127 -0.1638 -0.8743  1.5243
61659SOL     OW93754   3.833   0.010   6.094 -0.3883  0.3098 -0.5596
61659SOL    HW193755   3.816  -0.008   6.002  1.9810  2.2356 -1.4710
61659SOL    HW293756   3.830   0.105   6.102  1.8787  0.3652  0.7526
61660SOL     OW93757   6.258  11.552  10.524  0.3244 -0.1412 -0.7140
61660SOL    HW193758   6.211  11.469  10.516  1.0965 -0.7460  0.6048
61660SOL    HW293759   6.322  11.536  10.594  2.7716  0.4868 -2.6476
61661SOL     OW93760   9.372   0.376   0.351  0.2240  0.0063  0.2002
61661SOL    HW193761   9.383   0.362   0.256  0.3198 -0.9114  0.3382
61661SOL    HW293762   9.369   0.471   0.360  3.2086  0.2674 -0.4216
61662SOL     OW93763   2.756  10.708   4.883  0.3816  0.1711  0.1946
61662SOL    HW193764   2.760  10.695   4.978 -0.8064  1.0595  0.3826
61662SOL    HW293765   2.837  10.668   4.850  0.9156  0.0425  1.5966
61663SOL     OW93766   8.340   9.612   2.336  0.1171 -0.0543 -1.1487
61663SOL    HW193767   8.423   9.644   2.303 -0.2635  0.9686 -1.1311
61663SOL    HW293768   8.274   9.648   2.276 -0.4283  0.3107 -0.3427
61664SOL     OW93769   4.619   5.723  12.002 -0.2762 -0.0433 -0.3802
61664SOL    HW193770   4.586   5.794  11.948  3.2954  0.4077 -2.2501
61664SOL    HW293771   4.658   5.766  12.078 -1.1955 -0.3284  0.2697
61665SOL     OW93772   9.954   6.455   2.339  0.6117  0.5826  0.4461
61665SOL    HW193773   9.908   6.515   2.281  0.4038  0.4832  0.5062
61665SOL    HW293774   9.899   6.376   2.340  0.6641  0.5494  0.7002
61666SOL     OW93775  10.204   1.148   9.560 -0.2764 -0.2711  0.2668
61666SOL    HW193776  10.218   1.071   9.616  1.5363  1.3018  2.1669
61666SOL    HW293777  10.288   1.195   9.564 -1.0276  1.3201 -1.5960
61667SOL     OW93778   3.702   9.748   5.247 -0.0245  0.0922  0.1131
61667SOL    HW193779   3.728   9.840   5.246 -1.9388  0.6580 -0.6584
61667SOL    HW293780   3.663   9.733   5.161  2.1394 -2.0516 -0.6133
61668SOL     OW93781  11.898   7.732  11.078  0.0474  0.2926 -0.5637
61668SOL    HW193782  11.822   7.672  11.079 -0.1458  0.3359 -3.4741
61668SOL    HW293783  11.861   7.817  11.102 -0.4032 -0.0604  0.0437
61669SOL     OW93784   9.363  10.191  12.051  0.1734 -0.4117  0.6958
61669SOL    HW193785   9.268  10.190  12.041  0.3623 -0.0466 -1.6123
61669SOL    HW293786   9.384  10.103  12.082 -0.7207 -1.4940 -1.5558
61670SOL     OW93787   6.140   2.988   9.218  0.0910  0.3118 -0.2804
61670SOL    HW193788   6.206   2.969   9.284  0.1675 -0.4702 -0.5704
61670SOL    HW293789   6.088   2.908   9.212 -0.3568  0.6211 -0.6635
61671SOL     OW93790   1.359   9.452   7.426  0.1872  0.2101 -0.5999
61671SOL    HW193791   1.340   9.488   7.513 -2.7427 -1.9780 -0.1871
61671SOL    HW293792   1.279   9.469   7.375 -0.2096 -2.9925 -1.2273
61672SOL     OW93793  12.119   8.358  12.610  0.1170  0.5243  0.5109
61672SOL    HW193794  12.183   8.335  12.543  0.0483  2.3405 -0.2301
61672SOL    HW293795  12.125   8.287  12.674  1.6892 -0.1805 -0.3579
61673SOL     OW93796   9.317  11.054   3.271 -0.4613 -0.4955 -0.0672
61673SOL    HW193797   9.264  11.080   3.195 -2.5399 -0.8428  1.1906
61673SOL    HW293798   9.334  10.961   3.257 -0.2235 -0.3997 -0.4445
61674SOL     OW93799  10.502   5.150  10.861 -0.4963 -0.1854 -0.2786
61674SOL    HW193800  10.505   5.216  10.929 -3.3781  0.3882 -0.5792
61674SOL    HW293801  10.542   5.073  10.900  1.0703  1.1193  0.7940
61675SOL     OW93802   8.593   0.377   7.470 -0.3005  0.0648  0.5992
61675SOL    HW193803   8.534   0.321   7.521  1.7768 -0.3952  2.7028
61675SOL    HW293804   8.660   0.404   7.533  0.5265  2.3667 -1.1336
61676SOL     OW93805   5.466   3.325   8.126 -0.2245  0.0677 -0.0364
61676SOL    HW193806   5.437   3.414   8.112 -0.5353  0.3081  1.7954
61676SOL    HW293807   5.413   3.272   8.067 -1.8570  0.8637  0.6426
61677SOL     OW93808   3.733   5.805   2.557  0.1446  0.0157 -0.3558
61677SOL    HW193809   3.723   5.734   2.621 -1.3000  0.1001 -0.4496
61677SOL    HW293810   3.685   5.878   2.595 -1.2945 -0.1237 -1.7813
61678SOL     OW93811   6.057   4.505  12.243 -0.3654 -0.1497 -0.2636
61678SOL    HW193812   5.981   4.522  12.299  0.5485 -0.1395  1.0111
61678SOL    HW293813   6.021   4.458  12.168 -2.0837  2.3070 -1.0947
61679SOL     OW93814   6.081  12.111   4.524 -0.5631 -0.5441  0.0236
61679SOL    HW193815   6.109  12.058   4.450 -1.0895  0.3417 -0.8336
61679SOL    HW293816   6.111  12.063   4.601  3.0943  0.1597 -0.7739
61680SOL     OW93817   4.319  11.801   1.880  0.0679 -0.1995  0.2751
61680SOL    HW193818   4.339  11.708   1.875  0.5975 -0.0753 -0.0437
61680SOL    HW293819   4.299  11.826   1.790  1.4072  0.3032  0.0909
61681SOL     OW93820   3.074  10.533   5.641 -0.2718  0.6038 -0.1633
61681SOL    HW193821   3.078  10.576   5.556  0.9986  0.3567 -0.2415
61681SOL    HW293822   3.075  10.440   5.621 -3.2783  0.4503 -0.0076
61682SOL     OW93823   4.469   7.432   3.526  0.1288 -0.3164  0.2907
61682SOL    HW193824   4.467   7.360   3.463  0.6775 -0.4461  0.4116
61682SOL    HW293825   4.517   7.502   3.480  0.2818 -0.3105  0.4603
61683SOL     OW93826   3.100   7.306   3.215  0.2080 -0.0318 -0.0297
61683SOL    HW193827   3.124   7.230   3.269 -0.6948 -0.2863  0.0372
61683SOL    HW293828   3.097   7.379   3.277  2.3063  0.3427 -0.3058
61684SOL     OW93829   4.832   7.125   9.535 -0.0576 -0.3151  0.1787
61684SOL    HW193830   4.898   7.113   9.466 -1.7256 -1.2245 -1.3715
61684SOL    HW293831   4.761   7.171   9.491 -0.9032 -0.3291  1.4916
61685SOL     OW93832   6.739   8.960   5.686  0.7078  0.5232  0.0118
61685SOL    HW193833   6.675   8.950   5.757 -0.0520  0.5271 -0.6641
61685SOL    HW293834   6.819   8.919   5.720  0.3310  0.4559  0.8358
61686SOL     OW93835   2.945   6.948   6.695 -0.0843  0.1868 -0.1173
61686SOL    HW193836   2.883   6.876   6.688 -0.5683  0.5290  0.5397
61686SOL    HW293837   3.014   6.926   6.633 -0.1375 -0.9267  0.1941
61687SOL     OW93838  10.788  10.625   1.477 -0.0548  0.2518  0.5597
61687SOL    HW193839  10.785  10.584   1.563 -1.5058 -0.7501  0.0570
61687SOL    HW293840  10.865  10.586   1.435  0.1859  0.1427  1.0945
61688SOL     OW93841   9.193   6.899   0.647 -0.1794  0.5170  0.3689
61688SOL    HW193842   9.099   6.916   0.643 -0.0259  1.2868 -0.1616
61688SOL    HW293843   9.234   6.981   0.622  0.6071 -0.4546 -1.8170
61689SOL     OW93844   8.732   7.489   1.602  0.5324  0.4214  0.2770
61689SOL    HW193845   8.825   7.485   1.626  1.0459 -0.9128 -1.7116
61689SOL    HW293846   8.721   7.420   1.537 -2.0048  0.2009  0.8689
61690SOL     OW93847   2.663   8.322   1.466  0.4898 -0.2125 -0.1847
61690SOL    HW193848   2.663   8.260   1.538 -0.1041 -0.4437 -0.3795
61690SOL    HW293849   2.638   8.270   1.389 -3.2937  0.7777  0.1489
61691SOL     OW93850  12.503   7.229  11.693  0.4531  0.1530 -0.2695
61691SOL    HW193851  12.446   7.305  11.708  0.5828 -0.0045  1.1160
61691SOL    HW293852  12.578   7.244  11.750  0.4151 -1.0855  0.1190
61692SOL     OW93853   6.161   1.860   0.032  0.1809 -0.1705  0.0330
61692SOL    HW193854   6.243   1.864  -0.017 -0.0667 -0.3227 -0.3943
61692SOL    HW293855   6.108   1.796  -0.015  0.6307 -1.7574  1.5436
61693SOL     OW93856   6.051   5.442  11.871 -0.0385 -0.4127  0.2048
61693SOL    HW193857   5.975   5.500  11.876 -0.1888 -0.7143  2.8246
61693SOL    HW293858   6.052   5.411  11.780 -1.2845  1.8686 -0.6738
61694SOL     OW93859  10.804   4.508   7.568  0.1754 -0.1294  0.1475
61694SOL    HW193860  10.764   4.513   7.481 -1.5402 -0.6771  0.8564
61694SOL    HW293861  10.729   4.507   7.628  1.2423 -1.7940  1.5329
61695SOL     OW93862   4.129   8.245   9.719 -0.7308  0.4054 -0.6620
61695SOL    HW193863   4.081   8.162   9.710  1.1206 -0.5644 -2.2531
61695SOL    HW293864   4.060   8.312   9.718 -2.2363 -1.0485  0.0113
61696SOL     OW93865   7.548   9.782   8.285  0.4465 -0.2794  0.2232
61696SOL    HW193866   7.539   9.743   8.372  1.0177 -0.9996 -0.0314
61696SOL    HW293867   7.501   9.722   8.227 -0.5613  0.5786  0.1209
61697SOL     OW93868  10.359   4.358   7.858 -0.4302  0.2687  0.1200
61697SOL    HW193869  10.351   4.310   7.940 -1.3647  0.0450 -0.0942
61697SOL    HW293870  10.288   4.422   7.860 -1.7059 -1.0289 -1.3544
61698SOL     OW93871   3.490   8.556   7.623  0.2739  0.7789  0.2601
61698SOL    HW193872   3.549   8.482   7.615 -0.0828  0.6899 -3.1468
61698SOL    HW293873   3.407   8.519   7.652  0.7528  0.2535  0.9702
61699SOL     OW93874   1.033   3.128   5.423  0.2828  0.1702 -0.3047
61699SOL    HW193875   1.022   3.035   5.445  1.2934  0.0022 -0.4888
61699SOL    HW293876   1.034   3.130   5.328  1.2727  0.2389 -0.3000
61700SOL     OW93877   8.714   1.404   6.975 -0.1990  0.0087  0.1989
61700SOL    HW193878   8.693   1.362   7.058 -0.3065  0.7826  0.5733
61700SOL    HW293879   8.692   1.339   6.908  2.0343 -1.5418  0.8361
61701SOL     OW93880  12.195  10.431   0.370 -0.0152 -0.1474 -0.1857
61701SOL    HW193881  12.221  10.402   0.458  0.6424 -0.6991 -0.5480
61701SOL    HW293882  12.110  10.472   0.382  0.3432  0.3312  0.8126
61702SOL     OW93883   1.304   4.294   7.909  0.0169 -0.9918  0.0574
61702SOL    HW193884   1.298   4.198   7.914 -1.0235 -0.9390 -0.0925
61702SOL    HW293885   1.215   4.323   7.890  0.7260 -0.1359 -2.3246
61703SOL     OW93886   7.677  12.334   4.764 -0.1885 -0.3785 -0.2999
61703SOL    HW193887   7.720  12.356   4.682 -1.4594  0.7006 -0.7079
61703SOL    HW293888   7.748  12.336   4.829  0.7216 -0.6386 -1.2555
61704SOL     OW93889   2.042   1.172   3.691 -0.0238  0.4226  0.0726
61704SOL    HW193890   2.022   1.185   3.598 -0.4963  0.8504  0.2289
61704SOL    HW293891   1.956   1.171   3.734  0.0881 -1.2086  0.3351
61705SOL     OW93892   1.276   3.496   5.481 -0.0604 -0.0268 -0.0644
61705SOL    HW193893   1.259   3.409   5.517 -0.5742  0.2650  0.4154
61705SOL    HW293894   1.371   3.499   5.470  0.0338 -0.3887  0.5936
61706SOL     OW93895   5.736   8.133   8.140  0.0191 -0.2084  0.4106
61706SOL    HW193896   5.698   8.144   8.053 -0.6513 -0.3180  0.6819
61706SOL    HW293897   5.726   8.219   8.182  1.5657  0.2447 -0.0801
61707SOL     OW93898  11.996   9.066   2.528 -0.0360 -0.0300 -0.5238
61707SOL    HW193899  11.978   9.159   2.520  0.2506  0.6687  4.1150
61707SOL    HW293900  12.084   9.062   2.564 -1.0555 -1.7871  2.1047
61708SOL     OW93901  12.250   2.931  12.325 -0.0398  0.3271  0.0699
61708SOL    HW193902  12.195   2.972  12.257 -0.1721 -1.2805 -0.8493
61708SOL    HW293903  12.339   2.941  12.292 -0.1607 -1.2317 -0.8534
61709SOL     OW93904   3.922  11.803  10.927 -0.3985  0.5927  0.0652
61709SOL    HW193905   3.881  11.744  10.864 -1.3606  1.6204 -0.2987
61709SOL    HW293906   3.849  11.839  10.977  0.1253  1.8829 -0.0773
61710SOL     OW93907   7.168   2.952   9.019  0.1659  0.0340 -0.1142
61710SOL    HW193908   7.112   3.010   9.069 -1.6359 -2.1756  0.6014
61710SOL    HW293909   7.110   2.910   8.955  1.2911 -1.2074 -0.3896
61711SOL     OW93910   1.697   8.079  10.140 -0.6850  1.0067  0.2839
61711SOL    HW193911   1.760   8.144  10.171  0.6684 -0.4019  0.6076
61711SOL    HW293912   1.664   8.115  10.058  0.9621  1.5824 -0.1788
61712SOL     OW93913   9.458   5.909   4.551 -0.1181 -0.6853 -0.5269
61712SOL    HW193914   9.472   5.976   4.618 -0.0544  0.6404 -1.7919
61712SOL    HW293915   9.418   5.836   4.597 -0.1692  0.2196  0.9256
61713SOL     OW93916   3.896   3.666  12.044 -0.5851  0.6179 -0.2713
61713SOL    HW193917   3.975   3.622  12.016 -0.3522  1.2181 -0.5658
61713SOL    HW293918   3.827   3.599  12.037 -0.2131  0.2629 -0.5622
61714SOL     OW93919  12.518   9.272   7.667  0.5443 -0.5849 -0.7611
61714SOL    HW193920  12.531   9.177   7.659 -1.2817 -0.7846 -1.6636
61714SOL    HW293921  12.431   9.282   7.705  0.6514  0.7537 -0.8100
61715SOL     OW93922   3.280  12.540  11.864  1.3319  0.4639  0.2710
61715SOL    HW193923   3.245  12.451  11.876  2.0756  0.1833  0.3668
61715SOL    HW293924   3.256  12.562  11.773  1.6571 -0.0672  0.0494
61716SOL     OW93925   4.463   8.153   7.633 -0.2562 -0.2630 -0.2047
61716SOL    HW193926   4.481   8.206   7.554 -0.8195 -0.4882 -0.4910
61716SOL    HW293927   4.509   8.071   7.617 -0.8531 -0.5341 -0.5741
61717SOL     OW93928   5.094   1.329  11.733 -0.0950  0.7506  0.0681
61717SOL    HW193929   5.148   1.351  11.657 -0.1382  2.8316  0.5831
61717SOL    HW293930   5.056   1.244  11.711  1.0450  0.6088 -1.5805
61718SOL     OW93931   0.645   5.873   2.167 -0.2141  0.3773  0.4802
61718SOL    HW193932   0.722   5.851   2.220 -0.6639 -0.3615  0.8298
61718SOL    HW293933   0.614   5.956   2.204 -0.4686 -0.0847  1.3137
61719SOL     OW93934   7.137   2.133  12.466 -0.6401 -0.2938 -0.1050
61719SOL    HW193935   7.203   2.169  12.525 -0.8667  0.2114 -0.1462
61719SOL    HW293936   7.167   2.045  12.446 -0.7681 -0.6182  1.0740
61720SOL     OW93937   1.283   0.148   7.445 -0.9894 -0.8559 -0.1306
61720SOL    HW193938   1.335   0.169   7.522 -0.8016 -2.0798  0.0980
61720SOL    HW293939   1.251   0.059   7.461 -4.4544  0.3446  0.4405
61721SOL     OW93940   0.369  12.117   7.062 -0.0783 -0.6277 -0.1581
61721SOL    HW193941   0.437  12.097   7.126  0.1993  1.5819  0.3232
61721SOL    HW293942   0.287  12.115   7.112  0.0089 -0.0596  0.0121
61722SOL     OW93943   7.469  11.157   1.018  0.6077  0.7412  0.0216
61722SOL    HW193944   7.452  11.246   0.987 -1.5614  0.9282  1.4900
61722SOL    HW293945   7.528  11.168   1.093  2.5481  0.6334 -1.4056
61723SOL     OW93946  11.450  11.220   4.356 -0.4048 -0.3290  0.2780
61723SOL    HW193947  11.431  11.312   4.376  1.9997  0.1654  0.6934
61723SOL    HW293948  11.531  11.202   4.404  0.0471 -2.1847 -1.0723
61724SOL     OW93949   1.154   6.014   9.064 -0.1493  0.4843 -0.4692
61724SOL    HW193950   1.216   6.083   9.039  0.6914  0.7204  2.0395
61724SOL    HW293951   1.085   6.060   9.113 -2.1864  0.1505 -2.7654
61725SOL     OW93952  10.887   4.802  11.898  0.3956 -0.4874 -0.0230
61725SOL    HW193953  10.856   4.785  11.987  2.3107 -0.7992  0.6412
61725SOL    HW293954  10.982   4.797  11.905  0.5794 -0.8918 -2.1864
61726SOL     OW93955   9.883   8.035   0.470  0.2439 -0.2551  0.1219
61726SOL    HW193956   9.967   8.023   0.426 -1.3212 -0.0716 -3.2221
61726SOL    HW293957   9.880   8.129   0.491  1.6488 -0.6052  2.2834
61727SOL     OW93958   9.262  12.383   3.483 -0.1239 -0.0552  0.2431
61727SOL    HW193959   9.243  12.307   3.428 -0.0253 -0.1622  0.3538
61727SOL    HW293960   9.196  12.378   3.553  1.0809 -1.1683  1.3619
61728SOL     OW93961   6.652   1.613  11.993 -0.0526 -0.3518 -0.0208
61728SOL    HW193962   6.634   1.702  12.023  0.9012  0.1180 -0.7754
61728SOL    HW293963   6.587   1.597  11.925 -0.8536 -0.6200  0.7845
61729SOL     OW93964   2.593   7.301   1.524 -0.3111 -0.1538 -0.1089
61729SOL    HW193965   2.549   7.303   1.609  1.0397  1.6914  0.5974
61729SOL    HW293966   2.651   7.225   1.529 -0.8247 -0.5284  0.2963
61730SOL     OW93967   6.500  10.549   6.885 -0.1679  0.5568  0.9685
61730SOL    HW193968   6.477  10.456   6.882 -1.3418  0.8529 -0.7726
61730SOL    HW293969   6.417  10.593   6.905 -0.5224  1.4294 -1.9632
61731SOL     OW93970   0.010   8.622   5.167 -0.0278 -0.3320  0.1611
61731SOL    HW193971  -0.046   8.699   5.157  1.0024  0.2534 -1.3886
61731SOL    HW293972  -0.002   8.596   5.258 -0.4795  1.5895  0.6960
61732SOL     OW93973   8.377   0.735   0.332 -0.3041 -0.9932  0.1659
61732SOL    HW193974   8.312   0.665   0.330  0.3251 -1.5933 -1.5724
61732SOL    HW293975   8.330   0.812   0.299 -0.7962 -0.7556  1.3729
61733SOL     OW93976   6.548   5.931   5.789 -0.0331 -0.4031  0.2665
61733SOL    HW193977   6.592   6.015   5.799  2.1262 -1.5395  1.2225
61733SOL    HW293978   6.503   5.916   5.872 -1.7625  0.4642 -0.4741
61734SOL     OW93979   7.264   2.861   9.639 -0.0389  0.0374 -0.4791
61734SOL    HW193980   7.230   2.828   9.723 -0.4316  2.0712  0.2159
61734SOL    HW293981   7.358   2.842   9.642 -0.4316 -2.2466 -0.7714
61735SOL     OW93982   9.676   5.490   5.086  0.3340  0.0499 -0.2699
61735SOL    HW193983   9.657   5.554   5.017 -0.0837  0.2446  0.0152
61735SOL    HW293984   9.689   5.544   5.165 -1.1595 -0.2628  0.2171
61736SOL     OW93985  12.392   6.945  10.369 -0.5967  0.1191  0.0261
61736SOL    HW193986  12.398   7.034  10.403  0.4043 -0.8643  2.7036
61736SOL    HW293987  12.477   6.906  10.387 -1.6371 -1.9704  0.8226
61737SOL     OW93988   3.911   0.361   1.072 -0.0230 -0.0959  0.3297
61737SOL    HW193989   3.820   0.375   1.046  0.3070 -0.0439 -0.8715
61737SOL    HW293990   3.958   0.436   1.037  0.6937 -0.8032 -0.2666
61738SOL     OW93991   5.061   9.654  12.175 -0.1446 -0.4136 -0.5004
61738SOL    HW193992   5.118   9.587  12.213 -0.6853 -0.0423  1.0410
61738SOL    HW293993   5.032   9.616  12.092  2.8015 -0.3437 -1.6796
61739SOL     OW93994   5.417   6.713  10.375  0.4527  0.3408 -0.3788
61739SOL    HW193995   5.347   6.648  10.384 -0.1928  0.7323 -2.1202
61739SOL    HW293996   5.489   6.664  10.335  1.3103 -0.1066  1.5800
61740SOL     OW93997   6.832   0.006   2.643 -0.3032  0.0344 -0.8457
61740SOL    HW193998   6.829   0.097   2.613  0.6599 -0.1912 -1.6610
61740SOL    HW293999   6.865   0.012   2.733 -0.1645  0.4832 -0.9225
61741SOL     OW94000  11.745  11.578   2.390 -0.5040  0.6534  0.4766
61741SOL    HW194001  11.738  11.671   2.409 -1.2062  0.1835  2.8614
61741SOL    HW294002  11.797  11.542   2.462  1.4902 -0.5417 -1.4292
61742SOL     OW94003   8.338   6.593  10.220 -0.1238 -0.1869 -0.0273
61742SOL    HW194004   8.255   6.637  10.202 -0.2185 -0.8944 -1.3887
61742SOL    HW294005   8.314   6.512  10.264 -0.1687 -0.4382 -0.5099
61743SOL     OW94006   4.383  11.990  10.745  0.2179 -0.0269  0.2374
61743SOL    HW194007   4.298  11.946  10.749  0.1722 -0.2825 -1.9923
61743SOL    HW294008   4.367  12.078  10.778 -0.5773 -0.4876  1.1376
61744SOL     OW94009  10.005   0.909   9.109 -0.3176  0.2660 -0.2794
61744SOL    HW194010   9.981   0.824   9.145 -2.3837  1.2637  0.8892
61744SOL    HW294011   9.987   0.902   9.015  0.9012 -0.9722 -0.4637
61745SOL     OW94012   3.672   4.687   8.422  0.3163 -0.1304  0.1510
61745SOL    HW194013   3.666   4.691   8.518 -1.6187 -0.2198  0.0608
61745SOL    HW294014   3.763   4.663   8.406  0.6663 -0.2134  1.9764
61746SOL     OW94015   6.895   4.113   8.472  0.2057  0.3186 -0.0737
61746SOL    HW194016   6.804   4.119   8.444  0.2914 -0.1336 -0.4566
61746SOL    HW294017   6.920   4.203   8.491 -0.2303  0.4807 -0.2588
61747SOL     OW94018   8.033   4.130   4.404  0.0388  0.1687 -1.0804
61747SOL    HW194019   8.010   4.223   4.399 -1.1784  0.0097  0.6693
61747SOL    HW294020   7.951   4.084   4.384 -0.1890 -0.4664  1.0592
61748SOL     OW94021   0.473   9.450   9.412 -0.3388 -0.1270 -0.1106
61748SOL    HW194022   0.505   9.384   9.474 -0.1354 -1.0755 -1.1827
61748SOL    HW294023   0.401   9.493   9.458 -0.5123 -1.1415  0.6042
61749SOL     OW94024   5.157  10.633   7.680  0.9197  0.5510  0.2397
61749SOL    HW194025   5.082  10.580   7.652 -2.0380  3.9212  1.0869
61749SOL    HW294026   5.218  10.629   7.606 -0.7244 -1.1650 -1.1150
61750SOL     OW94027   7.495   3.577   1.348 -0.0931  0.2079  0.0764
61750SOL    HW194028   7.477   3.670   1.331 -1.5742  0.0834  0.8439
61750SOL    HW294029   7.574   3.559   1.297  0.0106  1.7898 -0.3893
61751SOL     OW94030   3.836   5.687   6.740  0.0795 -0.2910  0.5137
61751SOL    HW194031   3.877   5.627   6.679 -0.0027 -1.2383  1.3679
61751SOL    HW294032   3.906   5.747   6.766  0.1423  0.0478 -0.4035
61752SOL     OW94033   3.908   8.524   5.794  0.0147  0.3299  0.3805
61752SOL    HW194034   3.938   8.560   5.877  0.4460  0.7395  0.0551
61752SOL    HW294035   3.960   8.570   5.728 -0.0804 -0.2328 -0.0974
61753SOL     OW94036  12.407   7.127   9.051 -0.1932 -0.0719  0.3958
61753SOL    HW194037  12.454   7.044   9.049  0.4909  0.2179  2.3529
61753SOL    HW294038  12.472   7.193   9.027  0.3810  0.2698  2.6047
61754SOL     OW94039   5.776   6.581   8.492  0.0036 -0.3330  0.5792
61754SOL    HW194040   5.767   6.533   8.409  2.2427  1.6358 -0.9504
61754SOL    HW294041   5.694   6.628   8.501 -0.1266 -0.2461 -0.7956
61755SOL     OW94042  12.341   9.586   3.802  0.3034  0.2772 -0.0907
61755SOL    HW194043  12.280   9.521   3.837 -1.7863  1.3779 -1.4855
61755SOL    HW294044  12.428   9.546   3.813 -0.7717 -2.0694  0.4846
61756SOL     OW94045   9.785   5.617  12.402 -0.7973 -0.6272 -0.2059
61756SOL    HW194046   9.767   5.545  12.343 -0.0948 -1.1587  0.2103
61756SOL    HW294047   9.750   5.589  12.486 -1.7213  0.0906 -0.3331
61757SOL     OW94048   6.891   7.029   6.953 -0.2572 -0.3627 -0.1142
61757SOL    HW194049   6.825   7.036   7.023 -1.5694  0.6054 -1.4022
61757SOL    HW294050   6.861   6.955   6.900 -0.0538 -0.2010 -0.4545
61758SOL     OW94051  12.343  10.929   9.427  0.4303  0.3792 -0.1958
61758SOL    HW194052  12.411  10.942   9.361 -1.1965 -0.6019 -2.1819
61758SOL    HW294053  12.384  10.873   9.492  2.6957  2.8953  0.7406
61759SOL     OW94054   1.064   8.115   1.326  0.3001 -1.0422 -0.0193
61759SOL    HW194055   1.032   8.095   1.414  1.5934  0.4533  0.8453
61759SOL    HW294056   1.143   8.062   1.317  0.7272 -0.4461  0.1402
61760SOL     OW94057   5.693  11.812   7.757 -0.0117 -0.2872 -0.0798
61760SOL    HW194058   5.713  11.756   7.681  0.9378  0.8593 -0.7165
61760SOL    HW294059   5.612  11.856   7.733  0.1173 -0.1670 -0.3106
61761SOL     OW94060   6.008  12.549   8.403 -0.4731  0.2432 -0.1232
61761SOL    HW194061   6.071  12.479   8.421  3.3802  3.2843 -0.5463
61761SOL    HW294062   5.989  12.540   8.310 -0.5036 -0.5689 -0.0508
61762SOL     OW94063  10.138  10.484  11.585 -0.2373 -0.1676 -0.1709
61762SOL    HW194064  10.088  10.542  11.527  1.2252  0.6689 -0.6344
61762SOL    HW294065  10.071  10.443  11.640 -1.4298  1.0206 -0.6642
61763SOL     OW94066   0.191  10.487   4.268 -0.0994 -0.6883 -0.1205
61763SOL    HW194067   0.146  10.498   4.351 -0.0799 -0.3432 -0.1557
61763SOL    HW294068   0.284  10.497   4.290 -0.1869  1.1226 -0.4561
61764SOL     OW94069   7.609   7.464   8.498 -0.4423  0.3118  0.2581
61764SOL    HW194070   7.543   7.425   8.441 -0.1816 -0.5204  0.5174
61764SOL    HW294071   7.692   7.447   8.453 -0.3573  1.0503  0.1082
61765SOL     OW94072   1.121   6.216   0.526 -0.4020 -0.4318  0.2054
61765SOL    HW194073   1.150   6.182   0.611  0.5305 -2.3093 -0.7903
61765SOL    HW294074   1.199   6.211   0.471 -1.0398  0.5891 -0.8239
61766SOL     OW94075   6.136   0.567   8.549  0.2543 -0.6682  0.0271
61766SOL    HW194076   6.139   0.485   8.598 -1.4582  0.9412  3.0988
61766SOL    HW294077   6.090   0.628   8.606  1.1650  2.4052 -2.2386
61767SOL     OW94078  11.238   2.483   1.985  0.2402  1.1665 -0.6081
61767SOL    HW194079  11.196   2.520   1.908 -0.0910  1.7117 -0.1676
61767SOL    HW294080  11.169   2.481   2.052 -0.1439 -1.3996 -0.9531
61768SOL     OW94081  11.023   4.453   9.060  0.3475 -0.5783 -0.3786
61768SOL    HW194082  11.098   4.436   9.117 -0.9217 -2.4035  0.8288
61768SOL    HW294083  10.964   4.506   9.112  0.5073  0.3902 -1.1403
61769SOL     OW94084  12.102  12.454   6.320 -0.1120  0.1861  0.4016
61769SOL    HW194085  12.037  12.384   6.329  1.2791 -1.2210  0.0061
61769SOL    HW294086  12.183  12.416   6.354  1.3810  0.5081 -2.4533
61770SOL     OW94087   3.075   0.006   8.489 -0.0416  0.5682 -0.0156
61770SOL    HW194088   3.052   0.025   8.398 -1.8110  1.5364  0.6016
61770SOL    HW294089   3.005  -0.053   8.519 -0.0860  1.1514  1.0420
61771SOL     OW94090  11.568   3.743   5.218 -0.0738 -0.5534  0.4212
61771SOL    HW194091  11.544   3.705   5.303  1.2487 -1.3916  0.4475
61771SOL    HW294092  11.663   3.736   5.215  0.1599  2.0457  0.0335
61772SOL     OW94093  12.307   9.310  10.047  0.3055  0.8969  0.0398
61772SOL    HW194094  12.369   9.353  10.105  0.8776 -0.3792  0.4083
61772SOL    HW294095  12.359   9.286   9.970  1.1828 -2.9387  1.5924
61773SOL     OW94096   0.181   2.174   6.115 -0.5837 -0.4462  0.5443
61773SOL    HW194097   0.141   2.243   6.169 -0.1729  1.4964 -1.4743
61773SOL    HW294098   0.269   2.164   6.150 -1.2989 -1.5087  2.1632
61774SOL     OW94099   1.211   4.015   0.209 -0.0753 -0.5962  0.7250
61774SOL    HW194100   1.208   4.109   0.193  0.2566 -0.7930 -0.7103
61774SOL    HW294101   1.258   4.005   0.291  1.0990  0.4401  0.2020
61775SOL     OW94102   1.874  12.440   6.995 -0.0854 -0.2979 -0.0264
61775SOL    HW194103   1.781  12.462   7.004 -0.2081 -1.0871  0.6669
61775SOL    HW294104   1.878  12.385   6.917 -0.0056  0.7314 -0.7863
61776SOL     OW94105   3.113  11.131   7.728 -0.0696 -0.0131  0.2593
61776SOL    HW194106   3.112  11.170   7.816  1.0385  0.3765  0.1138
61776SOL    HW294107   3.046  11.180   7.680  1.5337  2.0198 -0.0222
61777SOL     OW94108   1.580  10.144  12.023 -0.2305 -0.3226 -0.3192
61777SOL    HW194109   1.610  10.066  11.976 -1.2276 -1.9292  1.5672
61777SOL    HW294110   1.659  10.196  12.036  0.9917 -2.2848  0.6265
61778SOL     OW94111   4.187   8.637  11.116  0.2869  0.2530  0.2235
61778SOL    HW194112   4.148   8.713  11.072  0.5555 -0.0107 -0.4983
61778SOL    HW294113   4.280   8.659  11.123  0.6627 -0.6477 -1.4388
61779SOL     OW94114  11.899   7.249   0.243  0.4418 -0.0506  0.0200
61779SOL    HW194115  11.911   7.290   0.157 -0.4728  0.7915  0.2875
61779SOL    HW294116  11.879   7.322   0.302  1.0642 -0.6212  0.9579
61780SOL     OW94117  10.444   0.884   3.144  0.5319 -0.0178  0.7862
61780SOL    HW194118  10.402   0.966   3.172 -0.7253 -0.6645  0.8731
61780SOL    HW294119  10.424   0.822   3.214  0.0628 -0.8241 -0.0531
61781SOL     OW94120  12.518   0.164   3.854 -0.1525 -0.2832  0.4722
61781SOL    HW194121  12.427   0.135   3.847 -0.0630 -0.5826  0.5495
61781SOL    HW294122  12.512   0.254   3.885 -0.5295  0.5210 -1.7613
61782SOL     OW94123   6.628   4.463  10.302 -0.8197  0.2494  0.2383
61782SOL    HW194124   6.615   4.411  10.381 -3.7368  1.6003  0.7558
61782SOL    HW294125   6.683   4.536  10.330  0.9649 -0.9811  0.1444
61783SOL     OW94126   7.354   5.101   4.802  0.4911  0.0755  0.0406
61783SOL    HW194127   7.406   5.178   4.782 -0.2968  1.0660  1.5395
61783SOL    HW294128   7.417   5.031   4.815  1.2478  0.5550 -0.9955
61784SOL     OW94129   1.100  11.585   5.023 -0.7957 -0.6929 -0.5747
61784SOL    HW194130   1.103  11.668   4.975 -1.7374 -0.5611 -0.4322
61784SOL    HW294131   1.006  11.569   5.036 -0.6288 -1.8633 -0.7451
61785SOL     OW94132   5.434   3.874   0.200 -0.6795 -0.4665 -0.1425
61785SOL    HW194133   5.419   3.837   0.114 -0.6650 -0.2066 -0.2575
61785SOL    HW294134   5.422   3.801   0.261 -0.1305 -0.7768 -0.4044
61786SOL     OW94135   4.960   0.642  10.880  0.0286 -0.4573 -0.1449
61786SOL    HW194136   4.955   0.655  10.975  0.6970  0.1480 -0.1857
61786SOL    HW294137   4.875   0.669  10.848 -0.0757 -0.3173  0.2423
61787SOL     OW94138   4.265   6.289   1.267 -0.0013  0.3189 -0.2025
61787SOL    HW194139   4.298   6.237   1.194 -0.4812  1.5278 -1.3181
61787SOL    HW294140   4.273   6.231   1.343 -2.3747 -2.1949 -1.6651
61788SOL     OW94141   6.255  12.574  11.396  0.0302 -0.1327 -0.7429
61788SOL    HW194142   6.225  12.637  11.462 -0.4025 -0.4343 -0.6397
61788SOL    HW294143   6.186  12.574  11.330 -0.0716 -0.6340 -0.6452
61789SOL     OW94144   6.361  11.210  11.083 -0.0509  0.5410  0.3342
61789SOL    HW194145   6.457  11.203  11.087 -0.2131 -1.9621  1.8125
61789SOL    HW294146   6.333  11.210  11.174 -1.4562  2.8012 -0.0208
61790SOL     OW94147   1.607   1.728   3.802  0.1718  0.2998  0.4683
61790SOL    HW194148   1.536   1.785   3.774 -1.6389 -2.0404 -0.0365
61790SOL    HW294149   1.667   1.725   3.727 -0.4141  0.4572 -0.0117
61791SOL     OW94150   0.486  10.443  10.740 -0.0192 -0.0095  0.1496
61791SOL    HW194151   0.488  10.364  10.794 -0.4030  1.1155  1.9151
61791SOL    HW294152   0.418  10.497  10.779  1.1955  1.7982 -0.0879
61792SOL     OW94153   3.242   8.495   2.766 -0.2800 -0.2676  0.6578
61792SOL    HW194154   3.295   8.515   2.843 -1.4770  1.2834  1.1352
61792SOL    HW294155   3.305   8.465   2.700  1.0123  0.2723  1.6087
61793SOL     OW94156   4.933   2.737  12.439 -0.2516 -0.2053 -0.7024
61793SOL    HW194157   4.914   2.693  12.357 -2.0238 -1.0445  0.1096
61793SOL    HW294158   4.957   2.666  12.499  1.0685  0.4023 -0.4748
61794SOL     OW94159   0.496  10.161   6.346 -0.2873  0.4763  0.2294
61794SOL    HW194160   0.578  10.204   6.320 -0.1895 -0.1047 -0.4578
61794SOL    HW294161   0.428  10.210   6.299 -0.0798 -0.8069 -1.4990
61795SOL     OW94162   7.059   2.957   7.635 -0.5194  0.3514 -0.5712
61795SOL    HW194163   7.077   3.049   7.617 -0.3281  0.4169 -0.0535
61795SOL    HW294164   7.134   2.927   7.686 -1.6703  0.5371  1.3233
61796SOL     OW94165   6.544  10.895   9.023  0.3468  0.0537 -0.3596
61796SOL    HW194166   6.621  10.848   8.991  0.0327 -0.4648 -0.3794
61796SOL    HW294167   6.552  10.983   8.988  1.2006  0.1553  0.0814
61797SOL     OW94168  10.533   3.643   7.719 -0.6123  1.0766  0.1321
61797SOL    HW194169  10.452   3.643   7.768  0.2892 -0.6622  1.7521
61797SOL    HW294170  10.556   3.550   7.710  2.3952  1.5190  1.8886
61798SOL     OW94171   6.868   4.116   3.360  0.2740  0.2953 -0.1832
61798SOL    HW194172   6.868   4.158   3.273 -1.1551  1.7016  0.4297
61798SOL    HW294173   6.822   4.179   3.416  0.5003 -0.9281  1.4324
61799SOL     OW94174   4.760   7.199   0.145  0.1137 -0.0249  0.5294
61799SOL    HW194175   4.839   7.150   0.166  0.3633  0.0724 -0.1508
61799SOL    HW294176   4.786   7.255   0.072 -0.8005 -0.5937 -0.2578
61800SOL     OW94177   2.426   0.470   7.567 -0.1485 -0.1502 -0.3383
61800SOL    HW194178   2.512   0.460   7.525  0.6821  0.0679  1.2182
61800SOL    HW294179   2.447   0.494   7.657 -1.8439  3.1334 -0.6526
61801SOL     OW94180   6.202   1.283   9.685  0.0561  0.4266  0.5759
61801SOL    HW194181   6.240   1.271   9.598  0.3859 -1.0825  0.8951
61801SOL    HW294182   6.276   1.309   9.740 -0.0280  0.7598  0.5317
61802SOL     OW94183   6.483  11.376   3.812 -0.4151 -0.5101  0.1407
61802SOL    HW194184   6.569  11.338   3.795 -0.0611  0.1766  0.3582
61802SOL    HW294185   6.502  11.465   3.842 -1.0938 -1.0531  2.3545
61803SOL     OW94186   7.613   1.531   1.239 -0.3466 -0.0647  0.4771
61803SOL    HW194187   7.689   1.588   1.250 -1.8725  1.9472  1.0774
61803SOL    HW294188   7.609   1.515   1.144  0.9977 -0.4838  0.4730
61804SOL     OW94189   2.854  11.706  11.844 -0.1196 -0.1457  0.1308
61804SOL    HW194190   2.793  11.642  11.880  0.7075 -1.3982 -0.6466
61804SOL    HW294191   2.851  11.691  11.750 -1.1318  2.0747 -0.2555
61805SOL     OW94192   4.063   8.777   6.271  0.3484  0.2533  0.5555
61805SOL    HW194193   4.100   8.863   6.251  0.5590  0.8547  3.2104
61805SOL    HW294194   4.136   8.727   6.306 -0.0049 -0.6863 -0.0197
61806SOL     OW94195   7.564   8.338   4.380  0.3989 -0.5234  0.1637
61806SOL    HW194196   7.615   8.375   4.307  2.2982  0.3219  1.8250
61806SOL    HW294197   7.531   8.255   4.345  0.0916  0.4565 -2.0786
61807SOL     OW94198   7.585  10.487   8.331 -0.1987  0.3111  0.2449
61807SOL    HW194199   7.578  10.430   8.407  0.7010 -1.2175 -0.7669
61807SOL    HW294200   7.670  10.530   8.341  0.1671 -0.3076 -0.1589
61808SOL     OW94201   7.337   6.989   4.758  0.5529 -0.5297  0.4441
61808SOL    HW194202   7.313   6.960   4.846 -0.6965  1.0179  0.6605
61808SOL    HW294203   7.275   6.945   4.700  0.4878 -0.4769  0.4739
61809SOL     OW94204   3.631   1.173   3.561  0.6176  0.3488 -0.1547
61809SOL    HW194205   3.705   1.153   3.504  1.0803  1.5912 -0.0450
61809SOL    HW294206   3.624   1.098   3.620 -0.0622 -1.0876 -1.9869
61810SOL     OW94207  10.266   9.457  11.259  0.2788  0.7116 -0.5343
61810SOL    HW194208  10.221   9.377  11.233 -2.3157  2.4695 -1.8460
61810SOL    HW294209  10.278   9.448  11.353 -0.2969 -1.0300 -0.5894
61811SOL     OW94210  10.577   6.046  11.337  0.3287 -0.0315 -0.5753
61811SOL    HW194211  10.640   5.975  11.352  2.0803  1.4746 -0.4257
61811SOL    HW294212  10.625   6.126  11.361 -2.2299  1.0740  1.3434
61812SOL     OW94213   6.302  10.626   4.641  0.1913  0.0702  0.3615
61812SOL    HW194214   6.329  10.601   4.553  0.1526  1.1876  0.0204
61812SOL    HW294215   6.207  10.613   4.642  0.0027  1.2307 -0.1886
61813SOL     OW94216  11.387   0.771   3.249  0.2524 -0.4933 -0.0471
61813SOL    HW194217  11.295   0.790   3.270  0.4571  1.3672 -0.6320
61813SOL    HW294218  11.410   0.698   3.306 -0.9850  0.4066  1.7049
61814SOL     OW94219  10.296   7.897   1.502 -0.5460 -0.1310 -0.3975
61814SOL    HW194220  10.205   7.928   1.491 -0.4354  0.3137 -0.0903
61814SOL    HW294221  10.349   7.977   1.494 -0.1731 -0.4034 -0.6648
61815SOL     OW94222   9.988   1.408   9.979 -0.1850 -0.3601 -0.2628
61815SOL    HW194223  10.077   1.444   9.967  0.3362 -0.9306  1.5494
61815SOL    HW294224  10.000   1.313   9.974 -0.4124 -0.5013  1.4812
61816SOL     OW94225   4.280   6.553   7.260 -0.1257 -0.5927  0.1329
61816SOL    HW194226   4.210   6.507   7.214 -2.1119  2.2809  0.0212
61816SOL    HW294227   4.257   6.546   7.353 -0.2826 -0.0990  0.1351
61817SOL     OW94228  11.459   1.993   5.106  0.1072  0.3967  0.4020
61817SOL    HW194229  11.548   1.991   5.071 -0.3734  0.5030 -0.9055
61817SOL    HW294230  11.454   2.074   5.156  1.7847 -1.2543  3.5545
61818SOL     OW94231   1.194   3.216   3.482 -0.0358 -0.1038  0.3192
61818SOL    HW194232   1.250   3.247   3.553  0.0026  0.4695  0.0495
61818SOL    HW294233   1.241   3.141   3.446  0.0118 -0.3098  0.8064
61819SOL     OW94234   5.566  11.352   7.448  0.2520  0.4977 -0.1642
61819SOL    HW194235   5.634  11.403   7.491  0.4118  0.5811 -0.5127
61819SOL    HW294236   5.538  11.406   7.374 -1.4922  1.2937  1.0222
61820SOL     OW94237  11.426   5.435   9.831 -0.3959  0.0933  0.1608
61820SOL    HW194238  11.495   5.441   9.765 -0.1255 -2.2238  0.1337
61820SOL    HW294239  11.434   5.515   9.882  1.0032  0.7865 -1.0853
61821SOL     OW94240   4.197   7.281   2.715  0.3268 -0.6516  0.6398
61821SOL    HW194241   4.182   7.240   2.630  0.9655  3.3891 -1.6706
61821SOL    HW294242   4.110   7.302   2.748  0.0358  2.0375 -1.5054
61822SOL     OW94243   5.496   2.977   8.384  0.2154  0.2944  0.1246
61822SOL    HW194244   5.583   2.997   8.349 -0.2550  0.9120 -0.7241
61822SOL    HW294245   5.437   2.993   8.310 -0.3437 -3.1867 -0.3239
61823SOL     OW94246  11.012   0.337  11.590  0.5767  0.0768 -0.5506
61823SOL    HW194247  10.970   0.296  11.666 -1.6965  0.3503 -1.5627
61823SOL    HW294248  11.091   0.285  11.575 -0.3090 -1.6473  0.4098
61824SOL     OW94249   2.461   1.909  10.678  0.3024  0.0689  0.2737
61824SOL    HW194250   2.473   1.885  10.586  0.5916 -0.5778  0.4750
61824SOL    HW294251   2.549   1.909  10.715  0.4071  2.0980  0.1507
61825SOL     OW94252   9.271   0.654  10.530  0.6301  0.1067  0.4899
61825SOL    HW194253   9.263   0.576  10.584 -1.2977  0.0821  0.2342
61825SOL    HW294254   9.246   0.726  10.588 -0.0874  0.2300  0.0442
61826SOL     OW94255   0.311  10.734   4.501 -0.1192 -0.0460 -0.2986
61826SOL    HW194256   0.222  10.722   4.534 -0.8750  0.7674 -1.9472
61826SOL    HW294257   0.329  10.827   4.514  0.5552 -0.2301  0.1353
61827SOL     OW94258   6.358   7.076   7.962  0.3744 -0.0073 -0.1153
61827SOL    HW194259   6.266   7.079   7.986 -0.3016 -1.2317 -2.2688
61827SOL    HW294260   6.394   7.160   7.991 -1.4141  0.5019  0.7171
61828SOL     OW94261   3.902   5.944  10.740 -0.1669  0.0057 -0.1505
61828SOL    HW194262   3.921   5.880  10.809  0.9607  0.6107  0.1360
61828SOL    HW294263   3.981   5.947  10.687 -1.5208 -1.5438 -2.4533
61829SOL     OW94264   7.462   4.607   9.545 -0.4153  0.9833 -0.1476
61829SOL    HW194265   7.385   4.597   9.601 -0.2683 -0.5508 -0.1946
61829SOL    HW294266   7.442   4.557   9.466  0.0386  1.7951 -0.7937
61830SOL     OW94267   0.818   2.915   7.242 -0.4506  0.1476  0.4305
61830SOL    HW194268   0.888   2.850   7.231 -0.7700 -0.0318 -0.6456
61830SOL    HW294269   0.789   2.904   7.333  0.9703  0.2945  0.9308
61831SOL     OW94270   8.212   3.255   9.305  0.4321 -0.4465 -0.4045
61831SOL    HW194271   8.246   3.339   9.337  1.4375 -0.5394 -1.1869
61831SOL    HW294272   8.253   3.190   9.362 -2.0224 -0.3347  1.6228
61832SOL     OW94273   0.772  11.708  11.485  0.4835  0.1066  0.1405
61832SOL    HW194274   0.722  11.653  11.425  0.0826  0.6289 -0.0164
61832SOL    HW294275   0.833  11.648  11.528 -0.7404 -0.6664  0.8480
61833SOL     OW94276   9.506   2.713   4.239 -0.3697  0.2951  0.1563
61833SOL    HW194277   9.460   2.636   4.274  0.8485 -0.7999 -0.5668
61833SOL    HW294278   9.598   2.692   4.251 -0.0143  1.9310  0.4799
61834SOL     OW94279   0.895   0.675   5.234 -0.1393  0.3259  0.4426
61834SOL    HW194280   0.825   0.623   5.194 -1.2724  1.6344  0.6390
61834SOL    HW294281   0.891   0.654   5.327  0.5019 -0.4435  0.3109
61835SOL     OW94282   4.218   9.520   8.697 -0.3991  0.0391 -0.1250
61835SOL    HW194283   4.241   9.433   8.728 -2.0391 -0.6189 -0.6686
61835SOL    HW294284   4.299   9.555   8.661  0.3517 -1.1307  0.3875
61836SOL     OW94285   2.903  10.685   4.187 -0.0490 -0.0041 -0.0410
61836SOL    HW194286   2.957  10.702   4.264 -0.9567 -0.1062  0.6363
61836SOL    HW294287   2.958  10.710   4.113  0.8340  0.1146  0.6374
61837SOL     OW94288   7.021  11.452   4.219 -0.0463 -0.0997 -0.3769
61837SOL    HW194289   7.000  11.458   4.125 -0.2179 -0.0088 -0.3334
61837SOL    HW294290   6.966  11.381   4.251 -0.4098  0.2474 -0.2286
61838SOL     OW94291   1.406   1.261  12.320  0.1959 -0.6351 -0.4725
61838SOL    HW194292   1.481   1.202  12.322  1.3012  0.7144  1.0675
61838SOL    HW294293   1.353   1.236  12.396  1.0922  0.7820  0.6789
61839SOL     OW94294   0.992   7.460   3.290  0.3939 -0.6571 -0.2943
61839SOL    HW194295   1.030   7.409   3.361  0.8290 -1.0754 -0.8200
61839SOL    HW294296   1.015   7.412   3.210 -0.6736 -0.5668 -0.6799
61840SOL     OW94297   6.847  10.700   4.448  0.6658 -0.2327  0.3481
61840SOL    HW194298   6.823  10.776   4.501  1.7950 -0.0447  0.6187
61840SOL    HW294299   6.820  10.723   4.359 -0.1217 -0.0410  0.6229
61841SOL     OW94300   9.997   9.228   7.686  0.1229 -0.2328 -0.0704
61841SOL    HW194301  10.077   9.271   7.718 -0.5466  0.6219  0.4716
61841SOL    HW294302   9.953   9.198   7.765 -0.7609  0.5118 -0.2662
61842SOL     OW94303  11.601   5.651   1.841 -0.0062 -0.9265  0.3680
61842SOL    HW194304  11.507   5.651   1.856  0.1287 -0.6186  1.2920
61842SOL    HW294305  11.621   5.562   1.813 -0.5394 -1.0584  0.3935
61843SOL     OW94306   1.902   8.877   1.819 -0.5429  0.0541 -0.6922
61843SOL    HW194307   1.984   8.830   1.833 -1.7513 -2.3266 -1.0442
61843SOL    HW294308   1.869   8.843   1.736 -1.8325  1.0546 -0.6176
61844SOL     OW94309   3.893   2.554   9.000 -0.5063 -0.3911 -0.0242
61844SOL    HW194310   3.911   2.586   9.088 -2.5266 -0.5048  0.4688
61844SOL    HW294311   3.803   2.523   9.003 -0.6062 -0.4560 -2.1259
61845SOL     OW94312   9.038   1.317   2.813 -1.2052 -0.0246  0.5472
61845SOL    HW194313   8.971   1.371   2.771 -0.5687  0.6369  0.3603
61845SOL    HW294314   9.101   1.380   2.847  0.7202 -0.6621 -1.6119
61846SOL     OW94315   6.163   1.305   0.778  0.3513 -0.0814 -0.0032
61846SOL    HW194316   6.170   1.247   0.854  1.8140 -0.4292 -0.3695
61846SOL    HW294317   6.074   1.292   0.746 -0.4329  0.3778  1.8682
61847SOL     OW94318   5.687   4.098  11.115 -0.2823 -0.0540  0.0465
61847SOL    HW194319   5.718   4.153  11.187 -0.7917  1.7144 -1.0297
61847SOL    HW294320   5.733   4.132  11.038  0.1090 -1.7849 -0.5281
61848SOL     OW94321  12.130  10.216   3.645  0.2380 -0.2267  0.4908
61848SOL    HW194322  12.170  10.143   3.693 -1.2476 -0.2722  1.7458
61848SOL    HW294323  12.036  10.205   3.659 -0.1287  0.8962 -0.8483
61849SOL     OW94324   6.123  12.389   2.965 -0.8373  0.7151  0.0588
61849SOL    HW194325   6.145  12.475   3.000  0.7612  0.5150 -0.3635
61849SOL    HW294326   6.132  12.330   3.040 -0.8446  0.7645  0.0989
61850SOL     OW94327   9.563   4.980   9.286 -0.0798 -0.2871  0.1707
61850SOL    HW194328   9.519   5.015   9.364  0.3172 -1.1582  0.8033
61850SOL    HW294329   9.494   4.978   9.219 -0.7708 -0.7263  0.8718
61851SOL     OW94330   5.341   0.117   1.522 -0.5754 -0.3720  0.4529
61851SOL    HW194331   5.280   0.175   1.568 -1.6770 -0.8490 -0.3727
61851SOL    HW294332   5.328   0.137   1.429 -0.6897 -1.6441  0.1749
61852SOL     OW94333   1.492   4.470   7.752  0.0564  0.2203 -0.6190
61852SOL    HW194334   1.475   4.504   7.664  1.3954 -0.1778 -1.0412
61852SOL    HW294335   1.421   4.407   7.767  0.2863 -0.3397 -1.7605
61853SOL     OW94336   2.381   5.214   8.765  0.1629 -0.6619  0.2740
61853SOL    HW194337   2.459   5.267   8.756 -0.0879 -0.4087 -0.5001
61853SOL    HW294338   2.329   5.234   8.688 -0.3600 -1.3356  0.4353
61854SOL     OW94339   3.401  10.422  12.349 -0.0552  0.1734 -0.3932
61854SOL    HW194340   3.409  10.357  12.419 -0.4394  0.9160  0.3417
61854SOL    HW294341   3.447  10.499  12.382 -3.0790  1.7348  0.5326
61855SOL     OW94342   9.138   4.849  12.424  1.2372 -0.1223  0.0220
61855SOL    HW194343   9.161   4.942  12.421 -0.3980  0.2921 -0.5996
61855SOL    HW294344   9.049   4.848  12.459  0.8911 -1.3884 -0.8557
61856SOL     OW94345   4.407   6.963   7.478 -0.1506 -0.4107  0.5824
61856SOL    HW194346   4.421   6.958   7.383  0.6252 -1.2861  0.7308
61856SOL    HW294347   4.393   7.056   7.495  0.1101 -0.1935 -0.3328
61857SOL     OW94348   6.925   6.005  11.272  0.7769 -0.0125 -0.0124
61857SOL    HW194349   6.996   5.990  11.210  0.7210 -1.2805  0.1940
61857SOL    HW294350   6.967   6.008  11.357  0.6097 -0.7161  0.1053
61858SOL     OW94351   2.631   3.550  10.838 -0.0881  0.2314 -0.4171
61858SOL    HW194352   2.565   3.619  10.851  1.0125  0.9271  1.7922
61858SOL    HW294353   2.690   3.586  10.772  0.4367  1.4241  0.6660
61859SOL     OW94354  11.351   1.202   7.819  0.1876  0.3821 -0.3094
61859SOL    HW194355  11.427   1.245   7.860  0.0983 -0.4196  0.7456
61859SOL    HW294356  11.353   1.232   7.728  3.5791 -1.9028 -1.1848
61860SOL     OW94357   0.496   9.950   3.535 -0.0996  0.3144  0.0035
61860SOL    HW194358   0.500   9.976   3.444  1.7768  1.5171  0.3797
61860SOL    HW294359   0.574   9.897   3.549 -0.3578  0.1448  0.9296
61861SOL     OW94360   2.020  12.279   4.053  0.1442  0.3009 -0.4978
61861SOL    HW194361   2.006  12.194   4.011  0.8434  0.2302 -0.6007
61861SOL    HW294362   1.932  12.313   4.069 -0.1793 -1.0610  0.8114
61862SOL     OW94363   6.577   7.767  11.826  0.1307 -0.4262 -0.1539
61862SOL    HW194364   6.629   7.758  11.746 -0.2163 -0.5422 -0.3677
61862SOL    HW294365   6.605   7.695  11.882 -2.1925 -2.6027 -1.6049
61863SOL     OW94366   3.620   7.480  12.172 -0.0443 -0.3800 -0.0899
61863SOL    HW194367   3.710   7.476  12.139 -0.6895  0.1904 -2.0426
61863SOL    HW294368   3.603   7.393  12.207  0.8806 -0.8331 -0.7426
61864SOL     OW94369  12.427   6.707   8.644 -0.7537 -0.6940 -0.3387
61864SOL    HW194370  12.432   6.623   8.689 -1.0037 -0.1431  0.7503
61864SOL    HW294371  12.357   6.755   8.689  0.8587  0.9442  0.5648
61865SOL     OW94372   4.529  12.177  11.416 -0.6640 -0.5107 -0.6091
61865SOL    HW194373   4.481  12.168  11.334 -0.2605 -1.2787 -0.7695
61865SOL    HW294374   4.617  12.147  11.397  0.0144  1.2395 -0.4028
61866SOL     OW94375   1.250   6.842   7.515 -0.1780 -0.4888  0.0863
61866SOL    HW194376   1.332   6.876   7.550  1.2405 -2.1117 -1.4533
61866SOL    HW294377   1.184   6.865   7.581  1.3477  1.5397  0.9975
61867SOL     OW94378   1.807   0.205   6.875 -0.4640  0.4096  0.2929
61867SOL    HW194379   1.720   0.177   6.846  0.1907 -1.5606  0.1083
61867SOL    HW294380   1.807   0.189   6.969  0.1754 -0.9961  0.0677
61868SOL     OW94381   2.512   8.309   5.584 -0.1046 -0.3817 -0.2126
61868SOL    HW194382   2.480   8.323   5.673  2.1554  0.2812  0.5568
61868SOL    HW294383   2.471   8.227   5.556 -2.4715  0.4229  0.6143
61869SOL     OW94384  11.046  11.326   2.808 -0.2425  0.3151  0.4112
61869SOL    HW194385  11.096  11.257   2.765 -1.0388  0.1597 -0.3005
61869SOL    HW294386  11.056  11.402   2.751 -0.6706  0.3327  0.3584
61870SOL     OW94387   2.567   6.627   8.891 -0.1116 -0.5550 -0.0201
61870SOL    HW194388   2.591   6.711   8.853 -1.2454  0.1254  0.7054
61870SOL    HW294389   2.529   6.577   8.819 -0.8320  0.1440 -0.1411
61871SOL     OW94390   9.750   6.454   9.320  0.1583  0.3050  0.1626
61871SOL    HW194391   9.725   6.361   9.318 -2.0327  0.8210 -2.0396
61871SOL    HW294392   9.777   6.470   9.411 -2.4432 -1.7969  1.4629
61872SOL     OW94393   4.132   9.003  12.456 -0.1714 -0.0193 -0.2990
61872SOL    HW194394   4.062   9.020  12.519  0.7936 -0.6735  1.0041
61872SOL    HW294395   4.086   8.970  12.379 -1.3798  0.5886  0.1311
61873SOL     OW94396   0.242   9.438   3.040  0.2499  0.0077  0.4167
61873SOL    HW194397   0.278   9.486   3.115  1.5438 -0.3446  0.0471
61873SOL    HW294398   0.218   9.506   2.978  0.9072  0.2402  0.4067
61874SOL     OW94399   6.082   6.598   5.104  0.0646 -0.5064  0.2314
61874SOL    HW194400   6.005   6.626   5.152 -1.4340 -1.7537 -1.3224
61874SOL    HW294401   6.112   6.676   5.058 -0.2144  0.0074  0.9102
61875SOL     OW94402   9.217   6.768   6.990 -0.0541  0.6811 -0.3602
61875SOL    HW194403   9.156   6.696   7.003 -0.0060  0.4206 -1.5073
61875SOL    HW294404   9.300   6.726   6.969 -0.0303  1.0689 -1.0588
61876SOL     OW94405   5.940   2.360   2.038 -0.2649  0.2016  0.0723
61876SOL    HW194406   5.897   2.356   2.123  0.1592  0.2549  0.2921
61876SOL    HW294407   5.960   2.268   2.018  0.8552  0.3008  0.6666
61877SOL     OW94408   5.373   5.335   9.559  0.8427  0.1026  0.0999
61877SOL    HW194409   5.408   5.275   9.625 -0.0579 -0.7150 -0.1413
61877SOL    HW294410   5.301   5.380   9.602 -0.7755 -1.5630 -0.7290
61878SOL     OW94411   4.624   9.458   8.509  0.1413 -0.1416  0.0796
61878SOL    HW194412   4.568   9.513   8.564  0.2948 -0.0519  0.1473
61878SOL    HW294413   4.563   9.412   8.452 -0.0930 -0.8523  0.8752
61879SOL     OW94414   1.095   0.701   2.688  0.2850 -0.7792 -0.0171
61879SOL    HW194415   1.050   0.782   2.708  1.1908 -0.6703  1.7020
61879SOL    HW294416   1.063   0.639   2.753  2.6796 -0.6528  1.3577
61880SOL     OW94417  12.038  12.186   7.151  0.7039 -0.6981  0.1534
61880SOL    HW194418  11.944  12.175   7.139  0.2959  0.9861  1.4731
61880SOL    HW294419  12.057  12.140   7.233  1.2606 -1.9307 -0.6351
61881SOL     OW94420   6.773   9.062  12.524  0.3291 -0.4875 -0.0665
61881SOL    HW194421   6.869   9.067  12.527  0.3874  0.0973 -1.7466
61881SOL    HW294422   6.744   9.122  12.593  1.2104  1.9645 -1.6951
61882SOL     OW94423   9.241   3.591   2.400  0.6332  0.1915  0.1246
61882SOL    HW194424   9.266   3.683   2.392 -1.1342  0.5823 -1.9391
61882SOL    HW294425   9.304   3.545   2.345 -0.3996  0.6431 -1.5299
61883SOL     OW94426   5.684   5.572   5.257 -0.1477  0.2545 -0.0883
61883SOL    HW194427   5.766   5.563   5.305 -0.2690 -3.1098 -0.3017
61883SOL    HW294428   5.707   5.621   5.179  1.0826  1.4886  0.9913
61884SOL     OW94429   7.528   2.438  10.222  0.2453 -0.0351 -0.4204
61884SOL    HW194430   7.529   2.446  10.318 -0.2649 -1.1328 -0.3142
61884SOL    HW294431   7.506   2.526  10.191  0.1575  0.2694  0.4770
61885SOL     OW94432   5.489   8.300   6.226 -0.0368  0.1341 -0.4116
61885SOL    HW194433   5.484   8.299   6.322 -0.7205 -1.5983 -0.4354
61885SOL    HW294434   5.583   8.310   6.208  0.4873 -2.2975  0.5238
61886SOL     OW94435   3.977  10.359  11.460  0.3136  0.4005 -0.1751
61886SOL    HW194436   4.041  10.427  11.437 -0.4134  1.3306  0.4913
61886SOL    HW294437   3.967  10.308  11.379  1.8194  0.2761 -0.3232
61887SOL     OW94438   0.041   7.927  12.467  0.3313  0.5210 -0.0679
61887SOL    HW194439   0.111   7.888  12.520  0.5016  0.6761 -0.1757
61887SOL    HW294440  -0.029   7.947  12.529  0.1249 -0.2223 -0.0511
61888SOL     OW94441   1.693  11.353  11.862  0.3447  0.1465 -0.7509
61888SOL    HW194442   1.665  11.390  11.778  0.7954 -0.1624 -1.0397
61888SOL    HW294443   1.693  11.427  11.922 -0.3041  0.3107 -0.9380
61889SOL     OW94444   3.185   9.749   4.016 -0.2590 -0.5488  0.7850
61889SOL    HW194445   3.281   9.753   4.018 -0.3075  2.1228  2.6947
61889SOL    HW294446   3.157   9.837   4.040 -3.2295 -1.1702 -0.0609
61890SOL     OW94447   6.036   3.169  10.316  0.5221 -0.0234 -0.1701
61890SOL    HW194448   6.053   3.249  10.366  0.5290  0.2113 -0.5490
61890SOL    HW294449   6.033   3.100  10.383  0.0310  0.3567  0.2138
61891SOL     OW94450   5.560   2.190   4.156  0.9027 -0.0279  0.5386
61891SOL    HW194451   5.654   2.175   4.141  1.0719  0.7578  0.7332
61891SOL    HW294452   5.518   2.158   4.077  1.3080 -0.6869  0.5831
61892SOL     OW94453   8.714   0.210  12.294  0.3143 -0.5304 -0.0076
61892SOL    HW194454   8.772   0.137  12.314 -0.8126 -1.0631  1.4832
61892SOL    HW294455   8.645   0.172  12.240 -0.8455 -0.8647  1.6304
61893SOL     OW94456   1.688   3.132   5.536 -0.4231 -0.6513 -0.3949
61893SOL    HW194457   1.603   3.175   5.537 -1.0011 -1.5299  3.7728
61893SOL    HW294458   1.668   3.039   5.529  0.0254 -0.9592  1.7932
61894SOL     OW94459   6.584   1.249  11.004 -0.0009 -0.3760 -0.4817
61894SOL    HW194460   6.657   1.194  11.033  0.9672  1.2379  0.2553
61894SOL    HW294461   6.559   1.300  11.081 -1.1181 -0.0295 -1.0434
61895SOL     OW94462   7.811   4.220  10.508 -0.1190 -0.3080  0.1219
61895SOL    HW194463   7.716   4.212  10.496 -0.2175 -0.1278  0.7626
61895SOL    HW294464   7.835   4.298  10.458 -0.3582 -0.1693  0.2246
61896SOL     OW94465   0.285  10.240   0.094 -0.3101 -0.0241 -0.1652
61896SOL    HW194466   0.299  10.299   0.168  1.2791 -0.5779  0.0329
61896SOL    HW294467   0.195  10.209   0.104 -0.5889  1.0231  0.7042
61897SOL     OW94468   5.029   7.477   0.441 -0.0666 -0.7153 -0.2407
61897SOL    HW194469   4.969   7.407   0.468  1.1789 -1.1425  1.5758
61897SOL    HW294470   5.115   7.449   0.472  0.4697  1.6206  0.5546
61898SOL     OW94471   0.621   6.666   2.440  0.5872  0.4365  0.8002
61898SOL    HW194472   0.546   6.671   2.379  0.9133 -0.1263  0.3412
61898SOL    HW294473   0.592   6.714   2.517 -0.6076 -0.5226  0.9942
61899SOL     OW94474   4.169   6.860   2.209  0.2210  0.2042 -0.3645
61899SOL    HW194475   4.238   6.906   2.161 -0.3950  2.1364  0.5283
61899SOL    HW294476   4.120   6.929   2.254 -0.8805 -1.3137  0.8804
61900SOL     OW94477   5.530   1.574   1.774  0.0141 -0.4857  0.0927
61900SOL    HW194478   5.438   1.600   1.777  0.3817  0.9775 -0.3404
61900SOL    HW294479   5.533   1.502   1.712 -0.8789 -0.7114  0.3063
61901SOL     OW94480   4.392   0.262  11.734  0.0288  0.1949  0.0092
61901SOL    HW194481   4.357   0.173  11.736 -0.3150  0.3325  0.2860
61901SOL    HW294482   4.323   0.313  11.693 -0.1131  0.4742  0.5828
61902SOL     OW94483   3.228   8.781  11.620  0.0666 -0.1134  0.4747
61902SOL    HW194484   3.141   8.796  11.583  0.0239 -0.2906  0.5023
61902SOL    HW294485   3.235   8.844  11.692 -0.5873 -1.0388  1.3650
61903SOL     OW94486   4.711   7.997   3.706 -0.0073  0.0988  0.1356
61903SOL    HW194487   4.771   7.923   3.696  0.4638  0.0172  2.8711
61903SOL    HW294488   4.758   8.071   3.667  0.3972 -0.6127 -0.7616
61904SOL     OW94489  10.355   2.925   3.489 -0.5488  0.0544 -0.3995
61904SOL    HW194490  10.260   2.932   3.491 -0.4068  3.5845  0.1783
61904SOL    HW294491  10.381   2.965   3.406  0.4857 -0.1535 -0.1978
61905SOL     OW94492   5.261   8.306   4.337  0.1175 -0.2727  0.4931
61905SOL    HW194493   5.218   8.227   4.305 -1.9417  0.3667  1.4921
61905SOL    HW294494   5.202   8.377   4.312  1.0409  0.7568  1.1640
61906SOL     OW94495   9.737  12.039  11.168 -0.1027 -0.0095  1.2385
61906SOL    HW194496   9.786  11.958  11.157  0.8627  0.4604  1.9614
61906SOL    HW294497   9.787  12.106  11.121 -1.7344 -0.0836 -0.7717
61907SOL     OW94498  11.035  11.773   8.050 -0.0403  0.5652  0.1367
61907SOL    HW194499  11.036  11.857   8.097  1.6381  0.3991  0.4826
61907SOL    HW294500  11.035  11.798   7.957  0.3555  0.9670  0.2369
61908SOL     OW94501  11.945   2.804   1.188  0.6718 -0.2012  0.8952
61908SOL    HW194502  12.010   2.778   1.122  0.0895  2.4877 -0.8714
61908SOL    HW294503  11.861   2.783   1.147  0.2996  1.6245  0.6700
61909SOL     OW94504  10.128   9.248  10.377 -0.3320 -0.3063 -0.7657
61909SOL    HW194505  10.189   9.193  10.426 -0.8830 -0.2961 -0.0537
61909SOL    HW294506  10.141   9.336  10.412 -2.1387 -0.6108  0.8453
61910SOL     OW94507   6.784   0.615   8.439  0.3172 -0.0006 -0.2042
61910SOL    HW194508   6.788   0.519   8.436  3.1006 -0.0630  1.7739
61910SOL    HW294509   6.842   0.644   8.368 -0.1769  0.2539 -0.5162
61911SOL     OW94510   5.250   2.840   7.939 -0.7849  0.2160 -0.1483
61911SOL    HW194511   5.156   2.853   7.953 -1.0414 -1.3941 -0.1077
61911SOL    HW294512   5.274   2.905   7.874 -1.2892  2.5679  1.8480
61912SOL     OW94513   1.949   9.443   0.757 -0.0874  0.0059  0.3619
61912SOL    HW194514   1.884   9.386   0.717 -0.3980  0.8218 -0.3305
61912SOL    HW294515   1.955   9.518   0.698  1.7400 -0.1984  0.2517
61913SOL     OW94516   3.669   3.552  10.083  0.0149  0.2817  0.6924
61913SOL    HW194517   3.691   3.514  10.168  0.6512 -1.0383 -0.0408
61913SOL    HW294518   3.584   3.595  10.097  0.1674  0.1902  2.0099
61914SOL     OW94519   9.513   2.116   1.574 -0.0950  0.1932 -0.8371
61914SOL    HW194520   9.466   2.106   1.492  0.6506 -0.8105 -1.1702
61914SOL    HW294521   9.528   2.026   1.605  0.5576  0.5177 -0.1557
61915SOL     OW94522   4.720  11.099   9.796 -0.1200 -0.0648 -0.1705
61915SOL    HW194523   4.714  11.043   9.719 -0.1702 -0.9910  0.4862
61915SOL    HW294524   4.807  11.080   9.833  0.8277  2.0317 -1.2231
61916SOL     OW94525   0.124   5.936   6.444 -0.3544  0.8242 -0.0300
61916SOL    HW194526   0.149   5.979   6.362 -0.3606 -0.1589 -0.5708
61916SOL    HW294527   0.029   5.925   6.437 -0.2055 -0.3221 -0.4397
61917SOL     OW94528   1.759  10.371   8.342  0.4094  0.4322  0.8031
61917SOL    HW194529   1.674  10.369   8.299  1.0609 -1.1344 -0.5291
61917SOL    HW294530   1.761  10.293   8.397  1.3202 -0.1064  0.0469
61918SOL     OW94531  10.740   4.549   1.198 -0.0598 -0.0533 -0.4715
61918SOL    HW194532  10.668   4.597   1.156 -0.0881  1.9379  1.6887
61918SOL    HW294533  10.721   4.554   1.292  3.0396  0.8085  0.2026
61919SOL     OW94534   8.528   9.893   1.211  0.1104 -0.5154  0.2817
61919SOL    HW194535   8.600   9.892   1.149 -0.3121 -1.9602 -0.2303
61919SOL    HW294536   8.566   9.929   1.291  1.3289 -0.9946 -0.0571
61920SOL     OW94537   7.530   6.324   7.181 -0.5870 -0.0019 -0.0652
61920SOL    HW194538   7.441   6.306   7.152 -0.3627  0.0598 -0.8102
61920SOL    HW294539   7.579   6.245   7.161 -0.7206 -0.5029  1.4601
61921SOL     OW94540   6.518  11.690   3.619 -0.5255 -0.4045 -0.4260
61921SOL    HW194541   6.442  11.635   3.600 -0.2947 -0.2356 -1.9374
61921SOL    HW294542   6.543  11.727   3.535  0.9570 -0.0828  0.1171
61922SOL     OW94543   5.655   6.501   3.958  0.6967 -0.9275 -0.3186
61922SOL    HW194544   5.663   6.480   4.051 -0.4546 -0.8959 -0.1998
61922SOL    HW294545   5.742   6.534   3.934  0.0260  3.0355  1.7538
61923SOL     OW94546  12.291   3.148   5.861  0.7047  0.6319  0.7644
61923SOL    HW194547  12.269   3.239   5.882 -0.7295  0.6052 -0.4677
61923SOL    HW294548  12.262   3.098   5.937 -0.3947  0.9936  0.5981
61924SOL     OW94549   2.252   5.788  12.286  0.2390 -0.2940  0.4031
61924SOL    HW194550   2.273   5.793  12.192 -0.4387  2.8140  0.3220
61924SOL    HW294551   2.189   5.858  12.300  0.3386 -0.6646  3.2302
61925SOL     OW94552   7.023   0.199   5.708 -0.2111  0.2925  0.5774
61925SOL    HW194553   7.040   0.122   5.761 -1.4196  1.6251  3.0723
61925SOL    HW294554   7.085   0.265   5.740  0.0082  0.7251 -0.6841
61926SOL     OW94555   4.472   3.124  11.545 -0.6208 -0.5658  0.4673
61926SOL    HW194556   4.548   3.181  11.554 -0.1868 -0.5498 -2.4076
61926SOL    HW294557   4.397   3.181  11.563 -0.0710  0.0294  0.9166
61927SOL     OW94558  12.547   3.558   8.656  0.2576  0.7495  0.3160
61927SOL    HW194559  12.518   3.605   8.734 -0.2627 -0.5301  0.9388
61927SOL    HW294560  12.639   3.539   8.672  1.1747  3.5500 -1.0102
61928SOL     OW94561   0.027  10.454   7.318  0.0038 -0.2508  0.8247
61928SOL    HW194562  -0.007  10.377   7.272 -0.1410  0.8778 -1.0815
61928SOL    HW294563   0.121  10.452   7.302 -0.0834  0.2994  0.2152
61929SOL     OW94564   0.241   8.248   1.956 -0.3201 -0.7065 -0.1817
61929SOL    HW194565   0.161   8.225   2.003 -2.1859  0.8272 -2.3514
61929SOL    HW294566   0.278   8.321   2.004 -2.0740  0.7002 -0.8370
61930SOL     OW94567  11.284  10.498   1.282  0.2712  0.0192 -0.2250
61930SOL    HW194568  11.343  10.550   1.336 -3.4542  0.8763  3.5673
61930SOL    HW294569  11.319  10.409   1.287  2.2017  0.7500  0.2629
61931SOL     OW94570   0.499   2.336   9.525  0.1563  0.3060  0.1365
61931SOL    HW194571   0.572   2.279   9.501  0.9906  1.3312  0.1796
61931SOL    HW294572   0.486   2.392   9.448 -0.1241  0.5977  0.3927
61932SOL     OW94573   5.893   7.832  10.628 -0.2813 -0.1114 -0.0475
61932SOL    HW194574   5.920   7.769  10.561 -0.1364 -0.0309 -0.0650
61932SOL    HW294575   5.806   7.859  10.601 -1.3284 -2.0344  1.1879
61933SOL     OW94576   7.846   4.030  12.239  0.5185  0.2334  0.2163
61933SOL    HW194577   7.763   4.065  12.208  0.6665 -0.0139 -0.4643
61933SOL    HW294578   7.827   3.939  12.263  0.6497  0.0974 -0.1899
61934SOL     OW94579   9.010   2.673  11.519 -0.1535  0.6061 -0.3669
61934SOL    HW194580   9.102   2.647  11.519  0.1772  1.7224  0.0657
61934SOL    HW294581   8.963   2.597  11.552  0.8455  0.7520  1.5069
61935SOL     OW94582   5.047   4.299   4.356  0.6051  0.4007  0.3690
61935SOL    HW194583   4.954   4.322   4.360 -0.0449 -1.8314 -0.3839
61935SOL    HW294584   5.086   4.343   4.431 -1.1330  1.0664  0.9350
61936SOL     OW94585  10.302   6.578   5.961 -0.0481 -0.1314  0.2562
61936SOL    HW194586  10.348   6.662   5.962 -1.0658  0.4306  0.9891
61936SOL    HW294587  10.235   6.587   5.893  0.0008 -0.4420  0.1631
61937SOL     OW94588   7.138   0.067   3.631  0.1453  0.0605  0.1367
61937SOL    HW194589   7.138   0.137   3.696 -1.1363  0.8682 -0.6892
61937SOL    HW294590   7.050   0.030   3.636  0.3210 -0.4691 -0.5151
61938SOL     OW94591   7.410  12.600   3.647  1.0975  0.4060 -0.2826
61938SOL    HW194592   7.315  12.614   3.648  0.6466 -2.0168  2.1495
61938SOL    HW294593   7.444  12.660   3.713  0.9152 -0.3135  0.4851
61939SOL     OW94594   7.493   4.040   8.319  0.2286 -0.2777 -0.4321
61939SOL    HW194595   7.448   3.988   8.386 -0.2768 -1.2434 -1.5002
61939SOL    HW294596   7.563   3.983   8.288 -0.8550 -0.7034 -2.2325
61940SOL     OW94597   4.452  10.028   2.718  0.7079  0.4565  0.8240
61940SOL    HW194598   4.467  10.029   2.624 -1.7589  1.4363  0.3414
61940SOL    HW294599   4.403   9.947   2.735 -0.9005  1.3687  0.7970
61941SOL     OW94600   1.097   9.675   4.131  0.2977  0.2386  0.3805
61941SOL    HW194601   1.087   9.653   4.224 -0.6852  1.1313  0.5101
61941SOL    HW294602   1.175   9.626   4.103  0.4219 -0.3001  1.5859
61942SOL     OW94603   3.002   7.171   4.994 -0.1771 -0.1366 -0.2594
61942SOL    HW194604   2.916   7.142   4.963  0.2804  0.4843 -2.2084
61942SOL    HW294605   3.014   7.258   4.955  0.0699  1.1495  2.4473
61943SOL     OW94606   8.902   5.649   5.850 -0.2180  0.0884  1.3851
61943SOL    HW194607   8.858   5.733   5.835 -0.0751  0.4427  2.8025
61943SOL    HW294608   8.836   5.583   5.830  0.0601  0.4661 -1.0173
61944SOL     OW94609   2.344   2.951  10.884  0.2511  0.1107  0.1110
61944SOL    HW194610   2.407   2.941  10.813 -2.1349 -0.1740 -2.1541
61944SOL    HW294611   2.339   2.865  10.925 -0.6707 -0.7032 -1.6003
61945SOL     OW94612   2.149   2.912  12.174  0.1416 -0.7515  0.3292
61945SOL    HW194613   2.127   2.884  12.263 -0.4553 -0.3657  0.3051
61945SOL    HW294614   2.117   3.002  12.169 -0.2563 -0.9308 -0.4367
61946SOL     OW94615   8.329   9.392   4.536  0.2979  0.1706 -0.1325
61946SOL    HW194616   8.282   9.313   4.508 -0.6095 -0.0494  1.8398
61946SOL    HW294617   8.338   9.444   4.456 -2.1841 -0.3797 -0.8632
61947SOL     OW94618   9.293  10.686   0.948  0.1428  0.5198 -0.4575
61947SOL    HW194619   9.210  10.642   0.969 -0.1554  0.1540 -2.2026
61947SOL    HW294620   9.279  10.777   0.973  0.3154 -0.0603  2.0303
61948SOL     OW94621   5.791   3.340   6.752  0.0287 -0.0810  0.1275
61948SOL    HW194622   5.857   3.403   6.721 -0.2009  0.5194  0.8296
61948SOL    HW294623   5.833   3.298   6.827  0.7614 -1.8561 -1.1994
61949SOL     OW94624   4.757   7.586   0.824 -0.2785 -0.1017  0.0493
61949SOL    HW194625   4.738   7.643   0.898  1.9183 -0.9785  1.3807
61949SOL    HW294626   4.852   7.594   0.810 -0.3060 -1.5318 -1.3116
61950SOL     OW94627   1.112   2.342   6.043  0.2968 -0.4823  0.6110
61950SOL    HW194628   1.182   2.284   6.014  0.3476 -0.2455  0.2552
61950SOL    HW294629   1.033   2.308   6.001  0.6229  0.8263 -1.1731
61951SOL     OW94630   0.130   8.116   1.412 -0.3814 -0.0489 -0.0218
61951SOL    HW194631   0.203   8.175   1.391 -0.8427  0.4753 -0.1772
61951SOL    HW294632   0.171   8.042   1.456  0.0882  0.9125  1.2190
61952SOL     OW94633   3.470  11.490   0.335 -0.2822  0.4099 -0.2899
61952SOL    HW194634   3.385  11.528   0.356 -1.4879 -0.2399 -3.3726
61952SOL    HW294635   3.501  11.542   0.261  1.0789 -0.5812 -0.4508
61953SOL     OW94636   4.690   2.634  11.547  0.0765  0.3110  0.2602
61953SOL    HW194637   4.676   2.652  11.454  1.9609  0.2227 -0.0892
61953SOL    HW294638   4.703   2.720  11.586 -1.7922  0.4357  0.6800
61954SOL     OW94639  12.305  12.018  11.312  0.0066 -0.0355 -0.5059
61954SOL    HW194640  12.377  12.004  11.373  0.6725 -1.2032 -1.5354
61954SOL    HW294641  12.343  12.002  11.226 -1.7519 -1.9406 -1.0056
61955SOL     OW94642   3.150   4.362   7.793 -0.3929  0.2585  0.3287
61955SOL    HW194643   3.148   4.418   7.871 -0.4011  0.8685 -0.1016
61955SOL    HW294644   3.241   4.369   7.761 -0.2789 -0.3138  0.5104
61956SOL     OW94645   4.974   8.951  10.212 -0.5848  0.2065 -0.5176
61956SOL    HW194646   4.920   8.988  10.142 -0.5498  1.1172 -0.0754
61956SOL    HW294647   5.063   8.954  10.177 -0.8116 -1.5707 -1.3669
61957SOL     OW94648   3.374   2.859   1.195  0.5293 -0.0413 -0.0231
61957SOL    HW194649   3.439   2.826   1.257  1.0573 -0.2889 -0.7033
61957SOL    HW294650   3.371   2.954   1.212  2.9529  0.4167 -1.6906
61958SOL     OW94651   0.107   1.349  12.430 -0.3370 -0.2152 -0.2861
61958SOL    HW194652   0.053   1.271  12.438 -1.2450  0.6253  3.7421
61958SOL    HW294653   0.048   1.417  12.397 -1.0556 -0.0097  1.3348
61959SOL     OW94654   6.029   5.349  11.625  0.1696 -0.2039  0.5667
61959SOL    HW194655   6.063   5.360  11.536  0.3766 -2.9268  0.2365
61959SOL    HW294656   5.935   5.332  11.612  0.1458 -0.3314  0.9092
61960SOL     OW94657   1.028   2.975  12.010 -0.0022  0.4239 -0.5202
61960SOL    HW194658   1.077   3.054  12.032  1.2870  0.1506 -2.1505
61960SOL    HW294659   0.982   2.998  11.929 -1.8304  0.3379  0.4421
61961SOL     OW94660   4.819   5.290   1.478  0.2807  0.6297  0.1455
61961SOL    HW194661   4.891   5.350   1.497 -0.5202  2.1279 -1.2772
61961SOL    HW294662   4.783   5.267   1.563  1.6999  0.7713  0.8106
61962SOL     OW94663   9.745   9.238   3.324  0.2664 -0.5889 -0.2643
61962SOL    HW194664   9.767   9.273   3.238 -0.3719  1.3449  0.3073
61962SOL    HW294665   9.650   9.243   3.329  0.3887  2.3743  1.6639
61963SOL     OW94666   6.501   5.305  11.983  0.1911  0.2833  0.6791
61963SOL    HW194667   6.452   5.223  11.977 -1.1071  1.0210  0.8769
61963SOL    HW294668   6.441   5.371  11.947 -0.2571  1.7452  3.8146
61964SOL     OW94669   3.074   4.168   8.845 -0.4649 -0.2728  0.3817
61964SOL    HW194670   3.121   4.250   8.831  1.5638 -1.2759  0.8865
61964SOL    HW294671   2.991   4.194   8.883 -0.7121  1.6451 -1.3075
61965SOL     OW94672   0.829   0.371  11.514  0.6761 -0.4127 -0.0911
61965SOL    HW194673   0.786   0.450  11.481  1.3695  0.4184  0.9007
61965SOL    HW294674   0.777   0.345  11.589  0.1217 -1.2555 -0.7505
61966SOL     OW94675  10.957   7.733   9.833 -0.1773 -0.7950  0.1214
61966SOL    HW194676  10.911   7.743   9.750 -0.5360  0.1434  0.4198
61966SOL    HW294677  10.899   7.680   9.887 -1.4192  1.1957  0.8380
61967SOL     OW94678  11.614   9.245   9.235  0.1170  0.5331 -0.1309
61967SOL    HW194679  11.559   9.323   9.244  0.9112  0.9495  1.3636
61967SOL    HW294680  11.555   9.173   9.257 -0.1349  0.8726  0.3289
61968SOL     OW94681   4.976   9.257  11.221 -0.0861  0.3974  0.0015
61968SOL    HW194682   5.038   9.276  11.291 -0.8202  0.3705  0.6664
61968SOL    HW294683   5.030   9.218  11.151  0.6178  0.2420  0.6208
61969SOL     OW94684   3.500   2.131  10.937  0.3750 -0.3120 -0.3605
61969SOL    HW194685   3.460   2.130  11.024  0.7095 -0.9027 -0.2089
61969SOL    HW294686   3.426   2.133  10.876  0.1422  0.7930 -0.0652
61970SOL     OW94687   6.838   2.209   1.957  0.5538  0.5073 -0.0565
61970SOL    HW194688   6.813   2.134   2.012 -1.1030  1.1391  0.1132
61970SOL    HW294689   6.868   2.169   1.875  1.9696 -0.4047  0.8646
61971SOL     OW94690  11.208  11.684   3.717  0.0349  0.1059 -0.4332
61971SOL    HW194691  11.253  11.692   3.801 -0.1426 -1.5002 -0.1646
61971SOL    HW294692  11.178  11.773   3.698  1.8923  0.9074  0.1608
61972SOL     OW94693  11.886   7.537   1.083 -0.4574 -0.3425  0.2652
61972SOL    HW194694  11.843   7.529   1.168 -1.3813 -1.4192 -0.2751
61972SOL    HW294695  11.864   7.624   1.052 -1.7052 -0.6283  0.3062
61973SOL     OW94696   9.881   0.911  10.041 -0.1096  0.3176 -0.2201
61973SOL    HW194697   9.786   0.914  10.027 -0.2723 -1.7904  0.0822
61973SOL    HW294698   9.911   0.840   9.985  1.0416 -0.0864  0.8662
61974SOL     OW94699   3.757   1.078   1.145 -0.4121  0.3716 -0.4956
61974SOL    HW194700   3.830   1.021   1.169 -1.1211 -0.8010 -1.0314
61974SOL    HW294701   3.749   1.140   1.217  1.1695  0.5897 -0.4837
61975SOL     OW94702   2.359   3.422   8.895 -0.7535  0.1934  0.0688
61975SOL    HW194703   2.387   3.361   8.964  1.0212  0.8850  0.0058
61975SOL    HW294704   2.440   3.466   8.868 -1.5628  0.5525 -1.8700
61976SOL     OW94705   5.556   1.575   6.146 -0.6143 -0.0967 -0.1984
61976SOL    HW194706   5.576   1.483   6.133 -2.7723 -0.6989  0.3506
61976SOL    HW294707   5.619   1.621   6.090  1.9241 -1.7318  1.1267
61977SOL     OW94708   0.271  10.491  11.502  0.0285 -0.5727 -0.1944
61977SOL    HW194709   0.330  10.566  11.508 -1.1079  0.4782 -1.5293
61977SOL    HW294710   0.185  10.527  11.525 -0.6526 -1.2729 -1.5632
61978SOL     OW94711   6.240   0.167  11.054  0.0168 -0.6405 -0.4124
61978SOL    HW194712   6.254   0.084  11.100 -0.4700  0.5207  1.9832
61978SOL    HW294713   6.171   0.210  11.103 -1.3856  0.2492 -2.9781
61979SOL     OW94714   5.051   7.831   5.944  0.2562  0.2430  0.0519
61979SOL    HW194715   5.084   7.835   6.033  0.0344  0.5084  0.1250
61979SOL    HW294716   4.991   7.906   5.937 -0.2760 -0.1897 -0.0986
61980SOL     OW94717   5.916   1.859   7.488  0.3296  0.1200 -0.2706
61980SOL    HW194718   5.864   1.860   7.407  0.0872 -0.9520 -0.1408
61980SOL    HW294719   5.893   1.941   7.532  1.4307  1.3494 -1.8705
61981SOL     OW94720   6.724   6.611   6.667  0.7299  0.2026  0.2786
61981SOL    HW194721   6.748   6.673   6.597 -1.5826 -0.0603 -0.8256
61981SOL    HW294722   6.753   6.526   6.634 -0.8589 -0.0052 -0.7006
61982SOL     OW94723   7.549   5.071   7.984 -0.2807 -0.0006 -0.6699
61982SOL    HW194724   7.532   4.993   7.932 -0.7442  0.4127 -1.1587
61982SOL    HW294725   7.584   5.039   8.067  3.0585 -0.6112 -2.1574
61983SOL     OW94726   8.423   2.118   3.610  0.5912 -0.6676 -0.0342
61983SOL    HW194727   8.497   2.165   3.650  1.4633 -0.8429 -1.4065
61983SOL    HW294728   8.404   2.167   3.530  0.6268 -1.8773 -0.7958
61984SOL     OW94729   8.108   6.708   5.272  0.2651 -0.1977  0.4618
61984SOL    HW194730   8.132   6.726   5.363  1.7140 -0.7663  0.2163
61984SOL    HW294731   8.188   6.673   5.233 -0.3342  0.0543 -1.0406
61985SOL     OW94732  11.829   0.673   3.130 -0.0532  0.1707 -0.0863
61985SOL    HW194733  11.798   0.729   3.201  2.7362 -0.3906  1.7406
61985SOL    HW294734  11.812   0.584   3.160 -1.4489 -0.0910 -1.4996
61986SOL     OW94735   8.403   5.163   2.442 -0.3779  0.0592 -0.5756
61986SOL    HW194736   8.458   5.231   2.480  0.1483 -1.2034  1.0340
61986SOL    HW294737   8.428   5.083   2.488 -3.1313 -0.6806 -0.1680
61987SOL     OW94738   7.551  11.725   4.843  0.4720  0.3101  0.2802
61987SOL    HW194739   7.508  11.646   4.875  0.9174  0.5744  1.5941
61987SOL    HW294740   7.553  11.784   4.918  0.7553  1.3256 -0.4869
61988SOL     OW94741   2.781   7.528   8.281 -0.3009  0.1606 -0.5197
61988SOL    HW194742   2.837   7.534   8.358  0.6371 -0.2013 -1.1579
61988SOL    HW294743   2.826   7.581   8.215 -1.3186  0.8225 -0.7008
61989SOL     OW94744   9.416   3.380   9.109 -0.5521  0.0065  0.1444
61989SOL    HW194745   9.492   3.413   9.156 -1.1654  1.0855  0.4045
61989SOL    HW294746   9.366   3.333   9.175  0.2381 -1.3558 -0.1905
61990SOL     OW94747   1.301   4.406   9.800 -0.0646 -0.3619  0.1494
61990SOL    HW194748   1.246   4.463   9.745 -0.1191  1.5005  1.9871
61990SOL    HW294749   1.372   4.379   9.742  1.4745  3.8053 -0.3062
61991SOL     OW94750   0.563   7.930  10.649  0.1065  0.3797 -0.1047
61991SOL    HW194751   0.605   7.851  10.616  0.3866  0.4786  0.0115
61991SOL    HW294752   0.472   7.905  10.664  0.2265  0.0466  0.0620
61992SOL     OW94753   2.708   6.451   8.260  0.4486  0.2459  0.3546
61992SOL    HW194754   2.695   6.376   8.317 -0.2033 -0.9633 -1.2922
61992SOL    HW294755   2.769   6.420   8.193  1.0315  1.5486  0.2425
61993SOL     OW94756   9.172   8.057   0.206 -0.7980  0.2269  0.0031
61993SOL    HW194757   9.174   8.048   0.302  0.8744 -2.9207 -0.2311
61993SOL    HW294758   9.131   7.977   0.175  0.1412  0.4798 -2.0093
61994SOL     OW94759   1.408   8.535   0.111  0.3439 -0.6114  0.3454
61994SOL    HW194760   1.501   8.519   0.090  0.3930  0.5853 -0.4497
61994SOL    HW294761   1.409   8.608   0.172 -0.0669 -0.7769  0.5538
61995SOL     OW94762   6.350   6.365  11.107  0.5828 -0.1192  0.2248
61995SOL    HW194763   6.327   6.452  11.072 -0.6794 -1.2928 -2.0762
61995SOL    HW294764   6.366   6.312  11.029  2.3447 -1.7446  1.6075
61996SOL     OW94765   6.349   2.568   0.849 -0.3344  0.1692  0.1863
61996SOL    HW194766   6.254   2.576   0.840 -0.2408 -0.0634 -1.4713
61996SOL    HW294767   6.369   2.484   0.808  0.6778  0.7015 -0.4480
61997SOL     OW94768   1.291   2.273   3.419 -0.3343  0.2894  0.3079
61997SOL    HW194769   1.342   2.217   3.360  1.1220 -2.2740  3.6833
61997SOL    HW294770   1.206   2.283   3.374  0.4058 -2.0765 -1.8716
61998SOL     OW94771  11.917   7.406   0.465  0.0959  0.0641 -0.1197
61998SOL    HW194772  11.876   7.393   0.551  1.3562 -0.7234  0.3966
61998SOL    HW294773  11.979   7.478   0.480 -2.0569  2.2792 -1.2629
61999SOL     OW94774   4.944   9.048   7.983  0.0966  0.3021 -0.1056
61999SOL    HW194775   4.983   9.135   7.986  0.6357  0.0599  0.1050
61999SOL    HW294776   4.860   9.060   7.940  1.1863  0.5339 -2.2813
62000SOL     OW94777  11.080   9.657   4.815  0.5309  0.6847 -0.4173
62000SOL    HW194778  11.051   9.566   4.800 -0.1243  0.8172 -0.0139
62000SOL    HW294779  11.041   9.706   4.743  0.1899  0.7764 -0.1731
62001SOL     OW94780  12.410   3.169   2.085 -0.1079  0.3598  0.7627
62001SOL    HW194781  12.320   3.190   2.110 -1.1474  0.4888 -2.5979
62001SOL    HW294782  12.463   3.207   2.154 -2.5742  1.3476  2.2607
62002SOL     OW94783   8.251   0.389   6.176  0.0509 -0.3908  1.0592
62002SOL    HW194784   8.302   0.470   6.175 -0.0362 -0.3329 -0.1037
62002SOL    HW294785   8.313   0.322   6.203  0.2359 -0.0071  1.5909
62003SOL     OW94786  11.372   6.312   7.906 -0.1184  0.7052 -0.1525
62003SOL    HW194787  11.369   6.253   7.830  0.4203  3.8529 -2.8129
62003SOL    HW294788  11.286   6.355   7.905 -0.1481  0.7060  1.1506
62004SOL     OW94789   1.312   5.040   9.839  0.5603 -0.1882  0.2637
62004SOL    HW194790   1.301   5.065   9.930  1.0399 -1.0663  0.5745
62004SOL    HW294791   1.386   5.092   9.808  0.4880  0.0020  0.4100
62005SOL     OW94792   4.258   6.756   9.586 -0.5047  0.1292  0.1772
62005SOL    HW194793   4.311   6.817   9.535  0.1960 -0.1309  0.5776
62005SOL    HW294794   4.313   6.734   9.661 -0.9943 -0.5168  0.3552
62006SOL     OW94795   1.586  12.596   1.283 -0.0746  0.1726 -0.0756
62006SOL    HW194796   1.616  12.680   1.319 -0.9790  0.2395  0.5745
62006SOL    HW294797   1.511  12.573   1.338  1.0152 -1.7862  0.6679
62007SOL     OW94798   0.509   2.055   8.814 -0.6282 -0.1406 -0.0037
62007SOL    HW194799   0.603   2.067   8.828 -0.4908 -0.2903 -0.7164
62007SOL    HW294800   0.479   2.005   8.890  0.2636 -1.8417 -0.7165
62008SOL     OW94801   0.312  10.903   1.965  0.2707 -0.1284 -0.4162
62008SOL    HW194802   0.390  10.859   1.931  1.1789  0.7082  0.5289
62008SOL    HW294803   0.259  10.832   2.001  0.8897 -0.6456 -0.4979
62009SOL     OW94804   4.891  11.362   8.119  0.2206 -0.3536 -0.1954
62009SOL    HW194805   4.957  11.391   8.057  1.1735  3.2405  2.1902
62009SOL    HW294806   4.941  11.318   8.188 -0.0735  0.6103  0.6537
62010SOL     OW94807   5.783   7.534   7.390 -0.1618 -0.3507  0.0982
62010SOL    HW194808   5.726   7.610   7.385  0.3162 -0.0640 -1.3309
62010SOL    HW294809   5.848   7.547   7.321  2.2606 -0.1802  2.2552
62011SOL     OW94810   2.456  11.318   1.736 -0.4926  0.4179 -0.2994
62011SOL    HW194811   2.533  11.310   1.680  0.8287  0.4536  1.4484
62011SOL    HW294812   2.464  11.405   1.775 -1.8522  0.7318 -0.6614
62012SOL     OW94813   0.689   3.469   1.471  0.4898 -0.2215 -0.4744
62012SOL    HW194814   0.698   3.556   1.431 -0.2842  0.0550 -0.0516
62012SOL    HW294815   0.762   3.464   1.533 -0.1480  0.6120  0.3678
62013SOL     OW94816   6.767   7.876   6.361 -0.1361  0.1277  0.4443
62013SOL    HW194817   6.759   7.786   6.327  0.9715  0.0544  0.3345
62013SOL    HW294818   6.737   7.870   6.452 -1.8282  0.0427 -0.0798
62014SOL     OW94819   6.186   6.894   0.315  0.1021  0.1784 -0.3223
62014SOL    HW194820   6.154   6.966   0.369 -0.5731  0.1520 -0.6816
62014SOL    HW294821   6.136   6.900   0.234  0.3922 -0.3933 -0.5499
62015SOL     OW94822   2.470   8.053   0.638 -0.7502 -0.0831 -0.3992
62015SOL    HW194823   2.410   8.111   0.591  0.8428  2.0153  0.0101
62015SOL    HW294824   2.557   8.089   0.620  0.3501 -2.5395 -0.3135
62016SOL     OW94825   2.548   3.475   1.179  0.0203  0.2060  0.0356
62016SOL    HW194826   2.503   3.556   1.203  0.0106 -0.0336  0.8815
62016SOL    HW294827   2.557   3.479   1.084 -0.3122  1.0236  0.0307
62017SOL     OW94828  10.882   0.369   4.329  0.0533 -0.3491 -0.3088
62017SOL    HW194829  10.902   0.445   4.384 -1.6442  2.3877 -3.1403
62017SOL    HW294830  10.953   0.368   4.264 -1.1781  0.4926 -1.7590
62018SOL     OW94831   0.863   8.869   1.369  0.4540  0.0166 -0.0686
62018SOL    HW194832   0.929   8.918   1.320  0.0336 -1.4746 -2.2246
62018SOL    HW294833   0.889   8.879   1.461  1.4382  2.6668 -0.5481
62019SOL     OW94834   2.841  11.632   1.231 -0.2189  0.1487  0.7432
62019SOL    HW194835   2.930  11.599   1.240 -0.0902  0.8042  2.2558
62019SOL    HW294836   2.831  11.649   1.138  0.8711 -0.9202  0.4071
62020SOL     OW94837   0.210   5.865  10.316 -0.1008  0.5983 -0.2724
62020SOL    HW194838   0.191   5.919  10.393  1.6371 -2.1815  2.3162
62020SOL    HW294839   0.304   5.877  10.301 -0.2586  0.4432 -1.4873
62021SOL     OW94840   0.183   7.625   1.420 -0.1841  0.6449  0.1226
62021SOL    HW194841   0.147   7.650   1.505  0.1457  0.7796  0.2245
62021SOL    HW294842   0.238   7.549   1.439 -0.3586  0.4839 -0.0198
62022SOL     OW94843   7.742   8.893   3.298 -0.5880 -0.5285  0.2945
62022SOL    HW194844   7.808   8.934   3.241 -1.0778  1.2852  0.9701
62022SOL    HW294845   7.782   8.894   3.385 -0.6519 -1.4322  0.3425
62023SOL     OW94846   2.111  12.456   9.557  0.8794  0.2283 -0.0519
62023SOL    HW194847   2.141  12.399   9.486  0.7898  0.4586 -0.2782
62023SOL    HW294848   2.019  12.431   9.570  1.0495 -0.1939  0.3620
62024SOL     OW94849   8.866   7.888   1.547 -0.5711  0.6360  0.5467
62024SOL    HW194850   8.928   7.840   1.600 -1.5865  0.3402  1.4895
62024SOL    HW294851   8.798   7.917   1.608 -2.1874 -0.3857 -0.6675
62025SOL     OW94852   0.270  11.406   9.581 -0.4790  0.1833  0.1700
62025SOL    HW194853   0.254  11.319   9.545  0.2063  0.1264  0.0043
62025SOL    HW294854   0.281  11.462   9.504 -0.5758  0.3523  0.2798
62026SOL     OW94855   6.215   8.701   0.222  0.5651  0.5222  0.2145
62026SOL    HW194856   6.165   8.764   0.273 -1.6699 -2.3518  1.9122
62026SOL    HW294857   6.256   8.645   0.288 -0.1992 -1.7174 -1.0917
62027SOL     OW94858   9.766   7.679   1.712 -0.1640  0.0938  0.9078
62027SOL    HW194859   9.850   7.711   1.678 -0.0955 -0.5727  0.4225
62027SOL    HW294860   9.788   7.600   1.760 -0.5542 -0.2650  0.4993
62028SOL     OW94861   4.994  11.580   4.382 -0.3311  0.2576 -0.5557
62028SOL    HW194862   4.987  11.671   4.353 -1.0331  0.6515  0.7827
62028SOL    HW294863   5.080  11.551   4.349  1.1782  2.2694  1.3008
62029SOL     OW94864   0.277   2.105   1.816 -0.1590 -0.4719 -0.1736
62029SOL    HW194865   0.182   2.110   1.807 -0.0841  0.6927 -0.4217
62029SOL    HW294866   0.295   2.139   1.904 -0.0335 -1.6700  0.2883
62030SOL     OW94867   3.898   9.564   2.870 -0.2677  0.0758  0.4934
62030SOL    HW194868   3.967   9.502   2.893 -2.5774 -2.9748 -0.1755
62030SOL    HW294869   3.865   9.534   2.786 -2.7625  1.0398  1.0242
62031SOL     OW94870   8.031  10.514   1.705 -0.1585  0.1928 -0.7496
62031SOL    HW194871   7.937  10.533   1.699 -0.4078 -0.3782  0.8210
62031SOL    HW294872   8.036  10.418   1.709  0.1878  0.2368  2.2263
62032SOL     OW94873  11.804  11.044   2.059  0.8362  0.1015  0.5249
62032SOL    HW194874  11.755  10.992   2.123  0.5604  0.1339  0.3426
62032SOL    HW294875  11.802  11.133   2.095  0.2073  0.2278  0.2081
62033SOL     OW94876  11.422   7.457   9.052 -0.1607  0.0547 -0.1439
62033SOL    HW194877  11.369   7.409   8.989 -0.7956 -0.6799  0.9043
62033SOL    HW294878  11.369   7.534   9.074  1.0624  1.5740 -2.1777
62034SOL     OW94879   7.582   7.010  10.386 -0.2429  0.3232  0.2598
62034SOL    HW194880   7.587   7.105  10.382  2.7185  0.5518  3.8066
62034SOL    HW294881   7.491   6.991  10.407 -0.9971  2.2629 -1.0274
62035SOL     OW94882   6.015   9.432   0.387 -0.0134 -0.1991 -0.5682
62035SOL    HW194883   6.046   9.509   0.433 -0.5277  1.5160 -2.8682
62035SOL    HW294884   6.086   9.369   0.392  0.4548  0.4396  1.2915
62036SOL     OW94885   9.177   2.106   7.637  0.3674 -0.1505  0.0156
62036SOL    HW194886   9.217   2.170   7.695  1.8234  0.8244 -1.9429
62036SOL    HW294887   9.194   2.140   7.549 -2.1965 -1.2681 -1.0201
62037SOL     OW94888   6.771   2.305   7.213  0.1943 -0.2832 -0.6495
62037SOL    HW194889   6.691   2.255   7.202  0.2332 -0.0682 -2.1573
62037SOL    HW294890   6.781   2.353   7.131  2.3624 -1.0446 -0.9193
62038SOL     OW94891  12.185   5.254   6.055  0.3771 -0.1253  0.5105
62038SOL    HW194892  12.114   5.310   6.088 -0.0245 -0.2447 -0.1303
62038SOL    HW294893  12.175   5.172   6.103 -1.4469 -1.0197 -1.2405
62039SOL     OW94894   5.584   4.780  12.054 -0.4447  0.1715  0.4247
62039SOL    HW194895   5.534   4.753  11.977  0.9117 -0.4667 -0.2516
62039SOL    HW294896   5.538   4.858  12.086 -1.9787 -0.4989 -0.0530
62040SOL     OW94897   2.760   4.195   1.447 -0.0629  0.0964  0.1355
62040SOL    HW194898   2.667   4.203   1.467 -0.0780 -0.3352  0.2595
62040SOL    HW294899   2.778   4.264   1.384 -0.3777  0.4432  0.4188
62041SOL     OW94900   1.878   7.212   1.322 -0.2397 -0.6257 -0.3150
62041SOL    HW194901   1.902   7.201   1.230 -0.6684 -2.5105 -0.2389
62041SOL    HW294902   1.813   7.283   1.321 -0.3972 -0.7624 -1.4914
62042SOL     OW94903  10.263   6.686   4.740  0.7510  0.0764 -0.5381
62042SOL    HW194904  10.273   6.599   4.778  1.7768  0.0210 -0.9050
62042SOL    HW294905  10.222   6.670   4.655  0.5819 -0.0108 -0.4397
62043SOL     OW94906   5.826   4.084   1.952 -0.2053 -0.4142  0.0368
62043SOL    HW194907   5.898   4.029   1.921 -0.3975 -1.1048  0.7870
62043SOL    HW294908   5.845   4.099   2.044 -0.0635  0.9496 -0.1938
62044SOL     OW94909  10.604   0.141   1.140  0.3033 -0.1017 -0.6518
62044SOL    HW194910  10.654   0.223   1.135  0.4210 -0.2355 -2.2583
62044SOL    HW294911  10.655   0.085   1.198  1.1468  0.3517 -0.9353
62045SOL     OW94912  11.928   4.125   9.549  0.0325  0.2989  0.2335
62045SOL    HW194913  11.873   4.162   9.618 -2.1960  0.6169 -1.6075
62045SOL    HW294914  11.926   4.191   9.479  1.3047 -0.5075 -0.5963
62046SOL     OW94915   3.856   9.165   4.386 -1.0525 -0.3785  0.3519
62046SOL    HW194916   3.874   9.236   4.325 -0.2884 -0.9692 -0.1334
62046SOL    HW294917   3.769   9.185   4.421 -0.4011  1.3475  1.0493
62047SOL     OW94918   8.220   9.433   1.304 -0.4855 -0.2986  0.2292
62047SOL    HW194919   8.183   9.514   1.269 -1.3003 -0.7658  0.0059
62047SOL    HW294920   8.313   9.438   1.280 -0.5306  0.5525  0.1932
62048SOL     OW94921   2.897  11.747   8.424 -0.0613  0.1385 -0.2093
62048SOL    HW194922   2.895  11.803   8.502  0.7991 -0.5645  0.3234
62048SOL    HW294923   2.953  11.673   8.448 -0.2280 -0.3648 -1.3106
62049SOL     OW94924   6.916   4.148   2.333  0.1699 -0.4136  0.3514
62049SOL    HW194925   6.827   4.140   2.367 -0.3348 -1.5913 -1.1282
62049SOL    HW294926   6.966   4.190   2.404 -2.1816  3.1403  0.1483
62050SOL     OW94927   1.332  11.370   0.843 -0.6973 -0.9602 -0.8559
62050SOL    HW194928   1.248  11.357   0.887  0.3568 -1.1652  1.2299
62050SOL    HW294929   1.353  11.285   0.805  0.0505 -1.8703  1.4542
62051SOL     OW94930  10.359   3.461   5.920 -0.4832  0.1178 -0.6183
62051SOL    HW194931  10.278   3.500   5.954  0.3166 -0.3181  1.9891
62051SOL    HW294932  10.355   3.370   5.948  0.9801  0.1478 -0.2392
62052SOL     OW94933   4.744   2.107   9.502  0.8156 -0.3896 -0.1416
62052SOL    HW194934   4.760   2.089   9.594  1.1388  1.5958  0.2433
62052SOL    HW294935   4.810   2.173   9.479  1.0547 -1.1986 -1.9358
62053SOL     OW94936   2.564   8.199   6.874  0.4300 -0.1114 -0.2825
62053SOL    HW194937   2.565   8.289   6.841 -0.3704 -0.3251 -0.9162
62053SOL    HW294938   2.587   8.146   6.798 -0.7731 -0.5603 -0.3493
62054SOL     OW94939   4.676   4.645   5.089  0.4732 -0.8591  0.3789
62054SOL    HW194940   4.594   4.683   5.121  0.0223 -2.0008  0.6600
62054SOL    HW294941   4.745   4.693   5.134  0.0194  0.8744 -0.6958
62055SOL     OW94942   9.841   5.089   0.800  0.3488 -0.5417  0.0575
62055SOL    HW194943   9.851   5.096   0.705  1.8204 -1.6052  0.1070
62055SOL    HW294944   9.832   5.180   0.830  0.3707 -0.1681 -1.0428
62056SOL     OW94945  12.002   3.677  10.023 -0.8683 -0.0674  0.5457
62056SOL    HW194946  11.996   3.591   9.982 -0.1995  1.0359 -2.0883
62056SOL    HW294947  11.919   3.688  10.070 -2.8449 -0.5239 -2.5464
62057SOL     OW94948   0.405  10.919   2.482 -0.0187 -0.6038 -0.4584
62057SOL    HW194949   0.346  10.865   2.430 -2.1546  2.3270 -1.3057
62057SOL    HW294950   0.471  10.950   2.420 -1.3705  1.2155 -1.0743
62058SOL     OW94951  11.726   8.637   5.469 -0.5510  0.3297  0.1470
62058SOL    HW194952  11.634   8.609   5.475 -0.1521 -0.9845  0.5188
62058SOL    HW294953  11.742   8.682   5.552 -0.5393 -0.5026  0.6120
62059SOL     OW94954   7.439   4.351   3.045 -0.8329 -0.3634 -0.0505
62059SOL    HW194955   7.464   4.259   3.045 -1.1068 -0.4576  1.0618
62059SOL    HW294956   7.522   4.398   3.047 -0.4913 -0.4128 -4.4211
62060SOL     OW94957   6.815   1.214   8.015 -0.3068  0.0305 -0.5020
62060SOL    HW194958   6.729   1.197   7.977 -1.1418  0.7914  0.9641
62060SOL    HW294959   6.859   1.270   7.950 -0.8310 -0.5166 -1.3504
62061SOL     OW94960   5.001  12.422   2.176 -0.2848 -0.0275  0.1748
62061SOL    HW194961   4.918  12.421   2.224 -1.1799 -2.5518 -1.2103
62061SOL    HW294962   4.983  12.369   2.098  2.1898  0.7537 -1.0024
62062SOL     OW94963   6.386   6.738   4.337 -0.1037 -0.6603  0.1926
62062SOL    HW194964   6.392   6.644   4.353  0.6661 -0.4565  1.2615
62062SOL    HW294965   6.477   6.769   4.346 -0.4287  0.2626  0.4006
62063SOL     OW94966   5.623   6.712  11.310  0.4323 -0.1216 -0.0490
62063SOL    HW194967   5.674   6.644  11.355  0.8032  1.0829  1.4336
62063SOL    HW294968   5.684   6.750  11.247 -0.2159 -2.1106 -1.9832
62064SOL     OW94969   6.827  11.357   9.846 -0.4571  0.1156 -0.4680
62064SOL    HW194970   6.733  11.339   9.839 -0.4727  0.2823 -0.6739
62064SOL    HW294971   6.833  11.428   9.910 -0.5523  0.8620 -1.2773
62065SOL     OW94972   1.889   2.601   2.519  0.1113  0.5777 -0.4531
62065SOL    HW194973   1.796   2.620   2.522  0.1060  0.5310  2.3493
62065SOL    HW294974   1.901   2.554   2.436 -2.6916 -1.0097 -0.0960
62066SOL     OW94975   2.213  10.214   7.507  0.4110 -0.2149 -0.8783
62066SOL    HW194976   2.123  10.233   7.482 -0.0417  0.7222  1.2364
62066SOL    HW294977   2.257  10.300   7.506  1.1302 -0.5789 -1.3237
62067SOL     OW94978   4.003  10.734   2.960  0.5396 -0.0752 -0.2143
62067SOL    HW194979   3.999  10.771   2.872 -0.6545  1.2933  0.3722
62067SOL    HW294980   3.955  10.652   2.954 -0.8627  0.7471 -0.5243
62068SOL     OW94981   2.413  12.565   4.766 -0.0964 -0.5349  0.3517
62068SOL    HW194982   2.451  12.650   4.744 -1.0626 -0.2685 -0.3446
62068SOL    HW294983   2.342  12.553   4.703 -2.1221 -0.3630  2.4766
62069SOL     OW94984   8.006   0.995   1.816 -0.0262 -0.6031 -0.6923
62069SOL    HW194985   7.969   1.025   1.733  1.7829  0.3052 -1.2106
62069SOL    HW294986   7.959   1.045   1.882  2.4168  3.0994 -1.4938
62070SOL     OW94987   8.995   5.062  11.860 -0.3673 -0.3557 -0.3860
62070SOL    HW194988   8.986   5.034  11.769 -1.7602 -0.0585 -0.3620
62070SOL    HW294989   9.009   5.156  11.855  2.4158 -0.7013 -0.3829
62071SOL     OW94990   2.239  12.376  11.687 -0.5341  0.0471  0.4801
62071SOL    HW194991   2.291  12.417  11.756 -0.1449  1.5809 -0.6703
62071SOL    HW294992   2.282  12.292  11.671  0.4915  0.4849  0.8354
62072SOL     OW94993  11.498   5.220  11.799  0.1718 -0.0019 -0.2413
62072SOL    HW194994  11.475   5.290  11.738  0.2132  0.1098 -0.1286
62072SOL    HW294995  11.547   5.264  11.869  3.1255 -0.5722 -1.7834
62073SOL     OW94996   8.091   0.526   3.207 -0.0601  0.0023 -0.0526
62073SOL    HW194997   8.106   0.494   3.296  0.3793 -0.7245 -0.3836
62073SOL    HW294998   8.119   0.617   3.209 -1.0464  0.3153  0.8266
62074SOL     OW94999   3.630   5.971   4.234  0.2087 -0.0294  0.2534
62074SOL    HW195000   3.704   6.031   4.224  0.3518 -0.4838 -2.2167
62074SOL    HW295001   3.557   6.027   4.259  1.1178  0.6007  1.5944
62075SOL     OW95002   5.586   3.722  10.158  0.3714  0.0693 -0.0169
62075SOL    HW195003   5.547   3.796  10.204  1.2026  1.1728 -1.0167
62075SOL    HW295004   5.543   3.720  10.073  1.3017  0.2594 -0.5062
62076SOL     OW95005  10.098   3.405   3.575  0.0905 -0.8481  0.3673
62076SOL    HW195006  10.004   3.406   3.557  0.2378 -0.2491 -0.4071
62076SOL    HW295007  10.116   3.491   3.613  0.4263 -0.7341 -0.0463
62077SOL     OW95008   4.260  12.325   5.270  0.0259 -0.2666  0.4164
62077SOL    HW195009   4.239  12.308   5.178 -0.5661  0.6644  0.3658
62077SOL    HW295010   4.229  12.248   5.317  0.7829 -0.9692 -0.2152
62078SOL     OW95011   5.162   3.966   9.734  0.3500  0.1016 -0.1013
62078SOL    HW195012   5.208   4.044   9.701 -2.1697  1.3157 -0.9752
62078SOL    HW295013   5.151   3.983   9.828  0.5183  0.4205 -0.1380
62079SOL     OW95014   3.648   9.847  11.663  0.0398 -0.0542 -0.0052
62079SOL    HW195015   3.632   9.858  11.569 -3.5073 -0.7993  0.3760
62079SOL    HW295016   3.654   9.937  11.696  2.1856  0.2257 -0.9562
62080SOL     OW95017   9.022   5.982   1.021 -0.5162  0.1493 -0.0633
62080SOL    HW195018   9.113   5.957   1.009 -0.4975 -0.2659  0.8873
62080SOL    HW295019   9.026   6.064   1.071 -0.6216  1.3087 -1.8513
62081SOL     OW95020   7.952   4.992   4.531 -0.0408 -0.3820 -0.1195
62081SOL    HW195021   8.042   4.958   4.529 -0.3591 -1.2239 -0.5994
62081SOL    HW295022   7.903   4.928   4.583 -0.2777  0.3143  0.5344
62082SOL     OW95023  10.629   1.093  10.291  0.2072 -0.7079  0.1404
62082SOL    HW195024  10.553   1.057  10.336  0.2143 -0.1364  0.6186
62082SOL    HW295025  10.658   1.165  10.347  3.0860 -2.8921  1.7617
62083SOL     OW95026   2.144  10.879   5.564 -0.1131  0.3788 -0.2284
62083SOL    HW195027   2.053  10.853   5.549  0.1513 -0.9872  0.3262
62083SOL    HW295028   2.167  10.932   5.488 -0.8302 -0.7358 -1.2679
62084SOL     OW95029  11.774   2.778  11.801 -0.0931  0.1439 -0.0478
62084SOL    HW195030  11.779   2.870  11.776  0.4693 -0.7510 -3.7106
62084SOL    HW295031  11.681   2.764  11.820 -0.4541  1.1286 -0.9756
62085SOL     OW95032   2.073   6.348   8.579 -0.5242 -0.0733  0.1164
62085SOL    HW195033   2.091   6.379   8.667  1.2516 -0.3359 -0.1284
62085SOL    HW295034   2.157   6.352   8.534 -1.1353 -1.1321 -1.1975
62086SOL     OW95035   0.171   8.295  10.001 -1.1246 -0.0321  0.2339
62086SOL    HW195036   0.234   8.366   9.987 -1.1327 -0.6522 -4.9172
62086SOL    HW295037   0.220   8.216   9.979 -2.4848 -1.0451  0.7162
62087SOL     OW95038   3.315   8.206   1.371  0.5900  0.5147 -0.1103
62087SOL    HW195039   3.283   8.130   1.420  2.8342 -0.1325  0.4776
62087SOL    HW295040   3.237   8.245   1.333 -0.6421 -2.2274 -0.6271
62088SOL     OW95041   5.105   1.042   1.670  0.7085  0.3608 -0.5664
62088SOL    HW195042   5.112   0.964   1.725 -1.1977  0.4482 -0.1215
62088SOL    HW295043   5.178   1.097   1.697  0.9603 -0.4662  0.4870
62089SOL     OW95044   9.158  10.633  12.532  0.6509  0.1486 -0.0839
62089SOL    HW195045   9.248  10.623  12.564  0.7221  2.6369  0.7254
62089SOL    HW295046   9.150  10.568  12.462  2.6184 -1.0627  0.7433
62090SOL     OW95047   2.997   9.741  10.176  0.6721  0.5119  0.1877
62090SOL    HW195048   2.916   9.748  10.227  0.3540 -0.1889 -0.2071
62090SOL    HW295049   3.062   9.790  10.227  1.1387 -2.6112  2.9133
62091SOL     OW95050   0.970   2.975   4.300 -0.0792  0.3910  0.0655
62091SOL    HW195051   0.971   3.017   4.214  2.6428  1.1518  0.3881
62091SOL    HW295052   0.949   3.046   4.361  1.1961  0.5860  0.2994
62092SOL     OW95053   4.656   7.859   6.941  0.1020 -0.2572  0.1773
62092SOL    HW195054   4.651   7.954   6.926 -3.7548 -0.4638 -1.0510
62092SOL    HW295055   4.712   7.827   6.871 -0.1614  0.9772 -0.6340
62093SOL     OW95056   5.999  11.566  11.392  0.2510 -0.0816  0.1853
62093SOL    HW195057   6.079  11.606  11.357 -0.5583  1.0322 -0.4314
62093SOL    HW295058   6.030  11.509  11.462  1.7371 -0.7964 -0.9782
62094SOL     OW95059   4.451   6.519   6.697 -0.0669  0.6292  0.4858
62094SOL    HW195060   4.522   6.522   6.760 -0.0795 -3.0599  0.8982
62094SOL    HW295061   4.383   6.466   6.739 -1.1710  0.2433 -1.6181
62095SOL     OW95062   2.204  12.559   5.307  0.2296  0.3495  0.2654
62095SOL    HW195063   2.244  12.472   5.306  0.4576  0.4568 -0.4820
62095SOL    HW295064   2.273  12.618   5.277  0.0168  0.7639  0.5822
62096SOL     OW95065   9.002   4.586  10.064  0.0977 -0.3624 -0.0826
62096SOL    HW195066   8.968   4.498  10.048  1.2570 -0.9200  0.4022
62096SOL    HW295067   9.074   4.573  10.126 -0.1769  1.0107  0.5677
62097SOL     OW95068   3.315   8.668   4.970  0.5565  0.0918  0.4592
62097SOL    HW195069   3.289   8.757   4.995 -0.7674 -0.1472 -0.0201
62097SOL    HW295070   3.348   8.676   4.881  2.7736  0.4922  1.2639
62098SOL     OW95071  12.432   3.352   5.632  0.7773  0.0252 -0.2054
62098SOL    HW195072  12.417   3.354   5.726 -0.7259 -0.0777 -0.4023
62098SOL    HW295073  12.496   3.421   5.616  1.2964 -0.1768  0.9279
62099SOL     OW95074   1.736   5.944   0.215 -0.2487 -0.3797  0.3077
62099SOL    HW195075   1.667   5.877   0.214  0.2167 -0.8541 -1.2481
62099SOL    HW295076   1.688   6.027   0.208 -0.7316 -0.6342  0.5224
62100SOL     OW95077   5.546   4.814  11.013  0.2068 -0.8305 -0.2311
62100SOL    HW195078   5.462   4.831  10.970 -0.7344  1.0346  2.1203
62100SOL    HW295079   5.524   4.764  11.091  1.2775 -0.3140  0.4193
62101SOL     OW95080   6.109   9.388   3.230 -0.1689 -0.4145  0.0843
62101SOL    HW195081   6.080   9.448   3.299 -2.2780 -1.5990  0.3257
62101SOL    HW295082   6.080   9.429   3.148  2.2855  0.9646 -0.1884
62102SOL     OW95083   4.713   2.630   0.706  0.2595 -0.6021  0.2514
62102SOL    HW195084   4.808   2.641   0.713  0.6450 -2.1658 -1.6104
62102SOL    HW295085   4.696   2.547   0.751 -0.4970  0.4101  1.9180
62103SOL     OW95086   9.863   5.654   1.019  0.0662 -0.0041 -0.1517
62103SOL    HW195087   9.882   5.588   0.952 -0.7286  0.7309 -1.1383
62103SOL    HW295088   9.945   5.663   1.067  0.3110 -1.4091 -0.2472
62104SOL     OW95089   1.987   1.635   3.888 -0.3924 -0.0935  0.0532
62104SOL    HW195090   2.020   1.545   3.898  0.4737  0.0023 -1.5762
62104SOL    HW295091   1.946   1.636   3.802 -0.7933  0.9604  0.2434
62105SOL     OW95092   5.793   4.043   4.126  0.7124 -0.1314  0.2274
62105SOL    HW195093   5.743   3.984   4.182  0.5429  0.6922  0.9600
62105SOL    HW295094   5.757   4.030   4.038 -0.5431  0.1648  0.6810
62106SOL     OW95095   7.811   0.053   2.870 -0.1776 -1.1100  0.4385
62106SOL    HW195096   7.821   0.103   2.951  1.6372 -1.8523  0.7104
62106SOL    HW295097   7.742  -0.011   2.891  0.7429 -1.7499  1.6526
62107SOL     OW95098   1.807   0.890   5.237 -0.7253  0.7710  0.6773
62107SOL    HW195099   1.751   0.937   5.299  0.7629  2.2904  0.9430
62107SOL    HW295100   1.891   0.882   5.282 -0.2543 -0.0658 -0.3069
62108SOL     OW95101   7.585   6.281   5.129 -0.0095 -0.5076  0.3487
62108SOL    HW195102   7.661   6.297   5.073  0.0082  0.3784  0.6189
62108SOL    HW295103   7.513   6.262   5.068  0.2763 -0.7202  0.0743
62109SOL     OW95104   8.030   9.311   8.524  0.2792 -0.2601  0.0503
62109SOL    HW195105   8.124   9.307   8.540  0.9838  2.5070 -2.4332
62109SOL    HW295106   8.004   9.398   8.556 -0.9276 -0.0719 -1.3382
62110SOL     OW95107   8.381   4.889   3.709 -0.2892  0.7967  0.0493
62110SOL    HW195108   8.463   4.882   3.756  1.7996  1.4498 -3.1814
62110SOL    HW295109   8.336   4.963   3.749  0.5360  0.2981  2.0192
62111SOL     OW95110   8.191   4.968  11.690 -0.6425  0.5992  0.3771
62111SOL    HW195111   8.225   5.057  11.703  0.2867  0.0759  1.7355
62111SOL    HW295112   8.157   4.969  11.601  0.3427  2.0060 -0.0253
62112SOL     OW95113   2.197   4.291   6.815  0.4692 -0.8648  0.2261
62112SOL    HW195114   2.238   4.373   6.841 -0.3044 -0.6150  0.7106
62112SOL    HW295115   2.224   4.228   6.882  1.1036 -1.0328 -0.1736
62113SOL     OW95116   7.095  12.215   7.630 -0.1358  0.1770 -0.1970
62113SOL    HW195117   7.173  12.271   7.625 -0.1362  0.0751 -2.4689
62113SOL    HW295118   7.066  12.222   7.721  2.7640 -0.1243  0.8670
62114SOL     OW95119   9.003   1.595   6.281 -0.1207 -0.1171  0.4832
62114SOL    HW195120   9.048   1.678   6.266 -0.6824  0.4955  2.0328
62114SOL    HW295121   9.072   1.529   6.271  0.3679  0.5137 -0.6035
62115SOL     OW95122  12.448   5.188  10.511 -0.4495 -0.4896  0.2341
62115SOL    HW195123  12.462   5.230  10.426 -0.2198  0.4610  0.7321
62115SOL    HW295124  12.509   5.115  10.512 -0.7939 -0.8026 -0.6121
62116SOL     OW95125  10.392   8.107   2.885 -0.3648  0.1692 -0.1314
62116SOL    HW195126  10.431   8.159   2.955 -0.5601  0.1608 -0.0179
62116SOL    HW295127  10.467   8.072   2.837 -0.2014  2.2325 -1.4791
62117SOL     OW95128   9.051   8.229   4.985 -0.3383 -0.7770 -0.0601
62117SOL    HW195129   9.042   8.172   5.062 -2.3399  0.7492  0.9176
62117SOL    HW295130   9.134   8.276   4.999  0.4093 -2.0669  0.0311
62118SOL     OW95131   5.601  12.223  11.886 -0.5604  0.2742 -0.3278
62118SOL    HW195132   5.529  12.269  11.844 -1.1306  1.0668  1.4558
62118SOL    HW295133   5.563  12.184  11.965  0.5723 -0.7899 -0.2710
62119SOL     OW95134   0.151  10.069   8.399 -0.1989 -0.5507  0.1933
62119SOL    HW195135   0.176   9.984   8.361  0.0613 -1.1220  1.5841
62119SOL    HW295136   0.078  10.048   8.458  0.0891  0.1452  0.8048
62120SOL     OW95137   1.131   5.586   4.931 -0.7602  0.0135  0.0940
62120SOL    HW195138   1.150   5.554   4.842 -0.3918  0.6703 -0.0715
62120SOL    HW295139   1.106   5.677   4.918 -0.6525  0.1252  0.6730
62121SOL     OW95140   5.264   5.481   0.152 -0.4895 -0.5628 -0.5695
62121SOL    HW195141   5.299   5.563   0.116  2.1451 -2.1162 -1.8821
62121SOL    HW295142   5.173   5.501   0.175 -0.1508  2.4967 -1.4962
62122SOL     OW95143  12.267  12.585   4.245 -0.6133  0.2416  0.1412
62122SOL    HW195144  12.226  12.647   4.305 -0.4847 -1.0440  1.6130
62122SOL    HW295145  12.234  12.499   4.271 -0.3404 -0.3977 -1.4727
62123SOL     OW95146   7.416   0.672   8.399 -0.1728 -0.2449 -0.6245
62123SOL    HW195147   7.321   0.669   8.410 -0.0725 -1.1252  0.1486
62123SOL    HW295148   7.444   0.581   8.405  0.8970  0.1407  0.9850
62124SOL     OW95149   5.651  11.767   7.093  0.3331  0.0105 -0.0737
62124SOL    HW195150   5.698  11.841   7.054  1.5996  0.5286  2.2082
62124SOL    HW295151   5.703  11.690   7.069  1.0241  0.3038  0.4371
62125SOL     OW95152   4.529   3.736   5.854 -0.4188  0.0824 -0.2958
62125SOL    HW195153   4.490   3.656   5.819  0.2583 -0.0629 -0.7471
62125SOL    HW295154   4.510   3.733   5.947  0.8736 -1.3716 -0.0391
62126SOL     OW95155   2.164   1.142   7.892 -0.0598  0.0814  0.3653
62126SOL    HW195156   2.118   1.181   7.818  1.4591 -0.0743 -0.6920
62126SOL    HW295157   2.183   1.215   7.950 -0.1005  0.4116 -0.0344
62127SOL     OW95158   9.602   3.234   7.075 -0.1816 -0.4657 -0.3381
62127SOL    HW195159   9.555   3.173   7.131 -1.9224  0.3104 -0.8839
62127SOL    HW295160   9.684   3.189   7.053 -0.6297 -1.8433  0.6823
62128SOL     OW95161   8.536  10.969   4.767  0.1202  0.2886  0.8665
62128SOL    HW195162   8.563  10.889   4.720 -0.1843  0.2835  0.6945
62128SOL    HW295163   8.605  10.983   4.832  0.1461 -0.1502  0.9370
62129SOL     OW95164   9.773   9.538   1.203  0.2413  0.0278 -0.2265
62129SOL    HW195165   9.735   9.488   1.275  1.3897 -0.9347 -0.2524
62129SOL    HW295166   9.834   9.599   1.244 -1.8019  2.1383 -0.1178
62130SOL     OW95167   1.703  12.533   5.428  0.2445  0.1098  0.0440
62130SOL    HW195168   1.783  12.507   5.383 -0.1622  1.1921 -1.3737
62130SOL    HW295169   1.638  12.542   5.359 -1.5007 -1.9902  1.2995
62131SOL     OW95170  11.909  11.948   1.981  0.3260  0.0813  0.2854
62131SOL    HW195171  11.824  11.924   2.019  0.7507 -0.3721  0.9667
62131SOL    HW295172  11.936  12.025   2.030  0.6401 -0.2058  0.5710
62132SOL     OW95173   7.705  10.212   2.990  0.0665  0.1620 -0.4751
62132SOL    HW195174   7.649  10.285   2.965  0.1728  1.2375  2.1155
62132SOL    HW295175   7.700  10.209   3.086  5.1797  0.9834  0.1078
62133SOL     OW95176   9.449   7.357   4.562  0.1053 -0.2668 -0.1141
62133SOL    HW195177   9.410   7.289   4.617  1.3548 -0.2070  0.8802
62133SOL    HW295178   9.419   7.439   4.600 -0.2430 -0.2377 -0.4458
62134SOL     OW95179   7.364   5.223   9.078 -0.3008 -0.1143 -0.6297
62134SOL    HW195180   7.429   5.177   9.131  0.2117  1.2231 -0.0345
62134SOL    HW295181   7.396   5.313   9.075 -2.4529  0.7342  0.2214
62135SOL     OW95182  12.100   7.068   0.205 -0.2611  0.4789 -0.0423
62135SOL    HW195183  12.018   7.115   0.217 -0.4962 -0.4786  2.6188
62135SOL    HW295184  12.162   7.111   0.263  0.1528 -0.9700  0.6481
62136SOL     OW95185   0.742   0.514  10.384  0.4394  0.3426 -0.1765
62136SOL    HW195186   0.717   0.460  10.309 -2.0577  0.9383  0.1613
62136SOL    HW295187   0.762   0.452  10.453  0.3457 -0.1619 -0.5962
62137SOL     OW95188   1.815   6.297   2.417  0.1975  0.0024  0.6058
62137SOL    HW195189   1.797   6.205   2.437  1.1498 -0.1655  0.7033
62137SOL    HW295190   1.728   6.334   2.401 -0.0647 -1.4551 -1.8730
62138SOL     OW95191   5.847  11.542   0.056  0.4153  0.3429 -0.3113
62138SOL    HW195192   5.906  11.533  -0.019  0.7528  0.1115 -0.0206
62138SOL    HW295193   5.834  11.636   0.065  0.6154  0.3864 -0.4703
62139SOL     OW95194   1.073   1.698   2.615 -0.0850 -0.3381 -0.9798
62139SOL    HW195195   1.009   1.656   2.672  0.5411  1.5245  1.2440
62139SOL    HW295196   1.158   1.673   2.652  0.3323  3.6669  1.3182
62140SOL     OW95197   7.124   8.726   5.005  0.2474  0.2134 -0.2822
62140SOL    HW195198   7.202   8.691   5.047  0.5313  0.3065 -0.7216
62140SOL    HW295199   7.051   8.682   5.048  0.5769 -0.5581 -0.5032
62141SOL     OW95200   5.065   0.140   3.429 -0.1718  0.0314  0.3028
62141SOL    HW195201   5.047   0.047   3.448  0.1873 -0.0184  0.4053
62141SOL    HW295202   5.161   0.146   3.430 -0.0923 -0.0353 -1.7735
62142SOL     OW95203   3.979   6.590   3.199 -0.4326  0.4020 -0.0580
62142SOL    HW195204   3.918   6.609   3.271  0.4589 -0.3064  0.9128
62142SOL    HW295205   3.960   6.500   3.174  1.2324 -0.4063  1.3505
62143SOL     OW95206   6.590  12.503   5.106 -0.0040 -0.1784  0.3356
62143SOL    HW195207   6.680  12.503   5.141 -0.5525 -0.1708  1.8154
62143SOL    HW295208   6.554  12.418   5.132  0.0146 -0.8291 -1.5593
62144SOL     OW95209   2.853   9.955   5.697 -0.1860 -0.1474  0.4695
62144SOL    HW195210   2.775   9.928   5.746 -1.1258 -0.6838 -1.2330
62144SOL    HW295211   2.926   9.935   5.756 -1.1670 -2.0895  1.1382
62145SOL     OW95212   0.275   1.984  11.199 -0.4355 -0.3125 -0.7283
62145SOL    HW195213   0.225   2.022  11.127 -0.8181  0.0766 -0.2616
62145SOL    HW295214   0.244   1.893  11.203 -2.9835  0.5047  1.1149
62146SOL     OW95215  10.661  12.477   7.861  0.7933  0.1075 -0.0192
62146SOL    HW195216  10.612  12.492   7.942  0.1117 -0.7802 -0.2476
62146SOL    HW295217  10.753  12.485   7.888  0.6374  4.4013 -0.1079
62147SOL     OW95218   1.928   4.489  11.129 -0.8914  0.0630  0.0997
62147SOL    HW195219   1.860   4.422  11.129 -0.2403 -0.6165 -0.3960
62147SOL    HW295220   1.939   4.511  11.036  1.7151 -2.0981 -0.2113
62148SOL     OW95221  11.374   9.236   4.234  0.1014  0.4125  0.1341
62148SOL    HW195222  11.354   9.330   4.238  0.4920  0.5429 -0.7586
62148SOL    HW295223  11.316   9.196   4.299 -0.8001  1.1511 -0.2006
62149SOL     OW95224  10.736   1.403  10.220  0.0383 -0.6134  0.1026
62149SOL    HW195225  10.734   1.358  10.305  0.0290  1.9536  1.5504
62149SOL    HW295226  10.726   1.495  10.242  1.3209  0.2566 -2.6121
62150SOL     OW95227   1.340   1.080   0.509  0.3462  0.0995 -0.2563
62150SOL    HW195228   1.266   1.035   0.468 -0.0244  0.0106  0.5028
62150SOL    HW295229   1.418   1.035   0.475  0.0771  0.4545 -1.3691
62151SOL     OW95230  10.080   2.121   4.055 -0.3253  0.4609 -0.6029
62151SOL    HW195231  10.008   2.181   4.073  1.3390  2.1760  0.6458
62151SOL    HW295232  10.095   2.075   4.138 -0.0956 -0.0454 -0.9168
62152SOL     OW95233   4.714   0.415   6.604 -0.1402  0.1959 -0.0758
62152SOL    HW195234   4.726   0.320   6.611 -1.8839  0.0432  1.6883
62152SOL    HW295235   4.758   0.439   6.523  0.5934 -2.0754 -0.4128
62153SOL     OW95236   6.294   9.617   2.296 -0.4040  0.3635  0.0273
62153SOL    HW195237   6.351   9.596   2.223  1.1124  1.9729  0.6794
62153SOL    HW295238   6.353   9.641   2.367 -1.8615  0.4247  1.2846
62154SOL     OW95239   7.493   0.568  11.088 -0.4239  0.0673 -0.3146
62154SOL    HW195240   7.475   0.551  10.996 -1.0660  0.9609 -0.3688
62154SOL    HW295241   7.503   0.481  11.127  0.2825 -0.3128 -1.2993
62155SOL     OW95242   9.839   2.398   7.823 -0.1463 -0.0164  0.2305
62155SOL    HW195243   9.905   2.332   7.842 -0.3723 -0.4385 -0.3950
62155SOL    HW295244   9.774   2.352   7.771 -0.4382  0.6374  0.0041
62156SOL     OW95245   4.031   3.476   6.299 -0.2992 -0.1029 -0.0715
62156SOL    HW195246   4.060   3.385   6.296  0.6753  0.1423  1.1347
62156SOL    HW295247   4.100   3.521   6.348 -0.0226  1.5767 -1.8993
62157SOL     OW95248   9.853   4.352   1.331 -0.3839  0.4518  0.3112
62157SOL    HW195249   9.820   4.361   1.420  0.9701  1.1382  0.7799
62157SOL    HW295250   9.847   4.440   1.294  0.1619  0.4267  0.1486
62158SOL     OW95251   6.671   6.849   9.523 -0.2480 -0.2095 -0.4563
62158SOL    HW195252   6.671   6.807   9.609 -0.5025  0.5442 -0.0777
62158SOL    HW295253   6.726   6.927   9.534 -1.4688  0.7057 -0.5517
62159SOL     OW95254   9.850   6.628   9.603  0.1819  0.1472 -0.5079
62159SOL    HW195255   9.912   6.638   9.530  1.4501 -2.8471 -0.0120
62159SOL    HW295256   9.764   6.636   9.562  0.8351 -1.8916 -2.5218
62160SOL     OW95257   1.936   1.218   4.941  0.3749 -0.2849  0.1896
62160SOL    HW195258   1.943   1.123   4.947  0.4884 -0.3243 -0.5102
62160SOL    HW295259   1.932   1.236   4.847 -1.7290  0.2614  0.3259
62161SOL     OW95260   3.350  10.738   3.262 -0.4630 -0.3348 -0.1497
62161SOL    HW195261   3.416  10.801   3.232 -0.3826 -0.2239  0.2557
62161SOL    HW295262   3.318  10.697   3.182 -1.5258  1.2137 -0.5731
62162SOL     OW95263   9.640   4.251   7.342 -0.0005  0.5683  0.7082
62162SOL    HW195264   9.578   4.254   7.414 -1.0193 -0.2986 -0.1056
62162SOL    HW295265   9.710   4.194   7.373 -0.5706 -0.0270  0.9074
62163SOL     OW95266   6.216   9.145   7.499  0.0054 -0.2384 -0.2681
62163SOL    HW195267   6.228   9.119   7.408  1.4125  2.0210 -0.7970
62163SOL    HW295268   6.300   9.180   7.526 -1.6469  3.9854  0.1796
62164SOL     OW95269   6.631   1.277   0.601  0.1205  0.4156 -0.5016
62164SOL    HW195270   6.646   1.187   0.572  0.7693  0.9828 -1.9909
62164SOL    HW295271   6.536   1.288   0.595  0.1616  0.2627 -1.7124
62165SOL     OW95272   2.010   6.536   6.174  0.5288 -0.2404 -0.9667
62165SOL    HW195273   2.024   6.556   6.266 -1.3225 -0.3305 -0.6379
62165SOL    HW295274   2.054   6.452   6.160 -0.7540 -1.1652  0.3291
62166SOL     OW95275   9.627   4.011  10.386 -0.2692  0.1990  0.1624
62166SOL    HW195276   9.705   4.063  10.402 -0.9751  0.8555  1.6797
62166SOL    HW295277   9.576   4.019  10.467  0.2718 -4.0997  1.1619
62167SOL     OW95278  11.932   4.088   2.930 -0.0610 -0.2489  0.5462
62167SOL    HW195279  11.866   4.049   2.987 -1.0083 -0.6696 -0.8089
62167SOL    HW295280  11.917   4.182   2.937 -0.8705 -0.3484  0.1709
62168SOL     OW95281   2.728   2.647  11.955  0.0424  0.2324 -0.0708
62168SOL    HW195282   2.677   2.594  12.016 -0.7795 -0.9763 -1.7013
62168SOL    HW295283   2.727   2.735  11.991 -1.7494 -0.1347  0.8426
62169SOL     OW95284   4.430   5.300  10.626 -0.5308  0.0313 -0.1831
62169SOL    HW195285   4.385   5.324  10.707 -0.1272  2.5083 -0.6292
62169SOL    HW295286   4.364   5.309  10.558 -1.0269 -2.5920 -0.1443
62170SOL     OW95287  10.511   4.732  11.457  0.0686 -0.7650 -0.3408
62170SOL    HW195288  10.439   4.795  11.466  0.6910  0.0724 -1.1284
62170SOL    HW295289  10.475   4.650  11.490 -1.0912 -0.2388 -0.2606
62171SOL     OW95290  12.497   0.763   0.355 -0.6105 -0.6968  0.3136
62171SOL    HW195291  12.587   0.750   0.323 -1.5840 -1.9541 -2.1876
62171SOL    HW295292  12.488   0.697   0.424  0.2941 -0.7926  0.3619
62172SOL     OW95293   1.076   7.696   0.237 -0.2422 -0.3572 -0.7068
62172SOL    HW195294   1.083   7.620   0.179  0.7003 -0.8138 -0.0100
62172SOL    HW295295   1.166   7.729   0.246 -0.2835 -0.6049  0.8967
62173SOL     OW95296   4.592   1.708   4.826 -0.7606  0.3599 -0.2295
62173SOL    HW195297   4.651   1.733   4.755  0.2121  0.3107  0.5465
62173SOL    HW295298   4.517   1.766   4.817  0.1963  1.6464 -0.1591
62174SOL     OW95299  10.325   4.031   5.230  0.2401  0.0223  0.7506
62174SOL    HW195300  10.293   4.088   5.301  0.5305 -0.5358  1.3405
62174SOL    HW295301  10.337   3.946   5.272  4.4787  0.5892  1.1358
62175SOL     OW95302  11.737   7.273   9.203 -0.2259  0.0465  0.5183
62175SOL    HW195303  11.751   7.190   9.249 -2.2514 -0.5037  0.2110
62175SOL    HW295304  11.787   7.264   9.122  0.3214 -0.4890  0.9058
62176SOL     OW95305   5.761   1.550   3.933 -0.2933  0.5324 -0.0017
62176SOL    HW195306   5.775   1.625   3.990 -0.8377  0.6803 -0.0554
62176SOL    HW295307   5.714   1.487   3.988 -0.8437  0.6860 -0.2853
62177SOL     OW95308   3.966   4.095   4.966  0.6000 -0.6011  0.5912
62177SOL    HW195309   3.931   4.006   4.968 -0.0623 -0.3391  0.9438
62177SOL    HW295310   4.026   4.095   4.891  0.9731 -1.4734  0.8699
62178SOL     OW95311   7.248   0.286   9.152 -0.2104 -0.5127 -0.3870
62178SOL    HW195312   7.271   0.348   9.083 -0.3591  1.6545  1.3976
62178SOL    HW295313   7.159   0.311   9.178  0.0130 -0.9771  0.8687
62179SOL     OW95314   2.305  11.642   3.925  0.0048 -0.4127  0.9613
62179SOL    HW195315   2.375  11.639   3.990  1.3893 -0.0749 -0.4512
62179SOL    HW295316   2.287  11.735   3.913 -1.4421 -0.5228  2.0511
62180SOL     OW95317  10.816   3.977   5.396 -0.5803  0.7766 -0.2437
62180SOL    HW195318  10.856   4.062   5.416  3.4945 -1.1290  0.6263
62180SOL    HW295319  10.827   3.967   5.302 -0.1895  0.7898 -0.1985
62181SOL     OW95320   3.149   5.674   3.541  0.0504  0.4662 -0.7846
62181SOL    HW195321   3.199   5.594   3.556 -1.7782 -0.8282 -1.2892
62181SOL    HW295322   3.150   5.719   3.626  2.5042  0.7955 -0.9292
62182SOL     OW95323   2.256   8.849   5.440 -0.4051  0.1521  0.2620
62182SOL    HW195324   2.191   8.868   5.507  0.7307  0.9115  1.1624
62182SOL    HW295325   2.261   8.753   5.439  0.6349  0.1272  2.3499
62183SOL     OW95326   3.686  12.127   1.087  0.2758 -0.2515  0.5810
62183SOL    HW195327   3.631  12.060   1.046 -1.7455  1.2436  0.7125
62183SOL    HW295328   3.759  12.139   1.025  0.1018 -1.7729  0.0403
62184SOL     OW95329  11.768   1.395  12.422  0.2367  0.2488 -0.3047
62184SOL    HW195330  11.843   1.362  12.470  0.0514 -1.0284 -0.8535
62184SOL    HW295331  11.707   1.426  12.489 -0.3148 -2.1261  0.3539
62185SOL     OW95332   7.200   5.265   6.353 -0.2502 -0.5634 -0.0835
62185SOL    HW195333   7.138   5.253   6.424 -0.2553 -1.0628 -0.1636
62185SOL    HW295334   7.209   5.178   6.314  0.8540 -0.6127  0.2295
62186SOL     OW95335   2.260   6.832   4.611 -0.6328 -0.3760 -0.3210
62186SOL    HW195336   2.255   6.740   4.587 -1.1571 -0.8662  1.5496
62186SOL    HW295337   2.325   6.837   4.680 -1.3026  0.4797  0.2831
62187SOL     OW95338   4.263   6.198   2.862  0.2623 -0.6985  0.1471
62187SOL    HW195339   4.357   6.211   2.853  0.1908  1.1231  1.5078
62187SOL    HW295340   4.224   6.264   2.804 -0.1652 -0.5723  0.5668
62188SOL     OW95341   4.900   5.876  11.980 -0.2142  0.0010 -0.3579
62188SOL    HW195342   4.969   5.939  12.000  0.5475 -1.0069  0.2722
62188SOL    HW295343   4.833   5.892  12.046  0.9850 -1.3263  1.2793
62189SOL     OW95344  11.066   8.515   1.637  0.6598  0.2067  0.0144
62189SOL    HW195345  10.982   8.533   1.679  0.2804 -0.7742 -0.3134
62189SOL    HW295346  11.069   8.420   1.628  0.1945  0.3964 -3.2378
62190SOL     OW95347   8.629   3.066   3.846 -0.4472 -0.0981 -0.4334
62190SOL    HW195348   8.625   2.975   3.875 -2.7791  0.1163  0.0837
62190SOL    HW295349   8.708   3.101   3.887  0.0989 -1.6874 -0.0794
62191SOL     OW95350   9.343   1.168   7.239  0.2481 -0.7312  1.1221
62191SOL    HW195351   9.403   1.098   7.267  1.9394  0.5125  0.7469
62191SOL    HW295352   9.400   1.235   7.203 -1.5021 -0.1926 -0.8398
62192SOL     OW95353   0.569  11.015   7.830 -0.4061  0.5460 -0.0668
62192SOL    HW195354   0.534  11.016   7.918 -0.0984 -0.8966  0.1022
62192SOL    HW295355   0.632  11.087   7.828  1.2575 -0.7672  1.6322
62193SOL     OW95356   7.820  12.547   2.628  0.1358  0.5032  0.4165
62193SOL    HW195357   7.805  12.589   2.713  1.3623  2.2269 -0.1690
62193SOL    HW295358   7.915  12.544   2.619  0.0422 -0.5482 -0.4900
62194SOL     OW95359   3.221   0.656   5.887 -0.3509 -0.4006  0.0061
62194SOL    HW195360   3.230   0.692   5.976 -1.1709 -0.1552 -0.0084
62194SOL    HW295361   3.202   0.563   5.900  1.0597 -0.7069  0.0531
62195SOL     OW95362  12.346   5.759   0.948  0.0981  0.2034  0.6032
62195SOL    HW195363  12.258   5.724   0.962  0.5089 -1.1053  0.0158
62195SOL    HW295364  12.335   5.822   0.876 -0.0067 -1.6378 -1.0744
62196SOL     OW95365   0.077   0.212   5.524  0.3292  0.3990  0.2232
62196SOL    HW195366   0.160   0.259   5.515  0.6863 -0.1875  0.4183
62196SOL    HW295367   0.080   0.176   5.613 -0.6306  1.3112  0.6421
62197SOL     OW95368   1.040   9.002   9.314  0.4211 -0.6077  0.3100
62197SOL    HW195369   1.018   8.913   9.289  0.0705 -0.3208 -0.4150
62197SOL    HW295370   1.136   9.002   9.323  0.4777 -0.8986 -0.2798
62198SOL     OW95371   6.787  10.304  11.361  0.1995  0.4934 -0.4489
62198SOL    HW195372   6.832  10.319  11.278 -0.2620 -0.1431 -0.8248
62198SOL    HW295373   6.760  10.212  11.358  0.3946  0.3873  0.5185
62199SOL     OW95374   0.331   9.205   4.386 -0.7392  0.1060 -0.0560
62199SOL    HW195375   0.323   9.300   4.377  0.5245  0.1563 -0.9276
62199SOL    HW295376   0.284   9.185   4.467  1.7589  1.9630  2.0480
62200SOL     OW95377  11.612   1.129   4.228  0.2178 -0.1008  0.3707
62200SOL    HW195378  11.673   1.181   4.175  0.0356 -1.1305 -0.8780
62200SOL    HW295379  11.557   1.195   4.272  2.2908  0.8553  1.6630
62201SOL     OW95380   2.435   3.608   5.111 -0.2743  0.0280 -0.1576
62201SOL    HW195381   2.523   3.642   5.095 -0.2696  0.6636  1.1005
62201SOL    HW295382   2.433   3.591   5.205 -1.0865 -1.1833 -0.3712
62202SOL     OW95383  11.248   3.261  12.415  0.1006 -0.0674 -0.0694
62202SOL    HW195384  11.200   3.179  12.428  0.4115 -0.6260 -2.0434
62202SOL    HW295385  11.180   3.327  12.404 -0.1559 -0.1222  1.0529
62203SOL     OW95386   6.109   3.330   6.021  0.0659 -0.1082 -0.0594
62203SOL    HW195387   6.106   3.244   5.977  0.4671 -0.3476  0.3677
62203SOL    HW295388   6.135   3.309   6.111  1.0180  0.5421 -0.1772
62204SOL     OW95389   6.272   4.141   9.473  0.1025 -0.1517 -0.5160
62204SOL    HW195390   6.348   4.118   9.526 -0.5685 -1.4407 -0.0663
62204SOL    HW295391   6.295   4.225   9.433  1.5281 -0.2486  0.0393
62205SOL     OW95392   3.203   5.339   9.810  0.1108  0.3102  0.7472
62205SOL    HW195393   3.283   5.387   9.790  0.3815 -0.5445 -0.3233
62205SOL    HW295394   3.164   5.320   9.725  0.1446 -1.5324  1.1016
62206SOL     OW95395   3.924  12.576  10.912  0.3751 -0.7773  0.2823
62206SOL    HW195396   3.944  12.653  10.858 -3.0259  0.7544  0.9283
62206SOL    HW295397   3.955  12.600  10.999 -1.6723  0.5079  0.7402
62207SOL     OW95398   3.317  11.754   0.572  0.0869  0.5995 -0.7634
62207SOL    HW195399   3.293  11.726   0.484  0.6951  0.7559 -0.9831
62207SOL    HW295400   3.289  11.846   0.576  1.9048  1.2438 -1.5353
62208SOL     OW95401   9.269   9.158   2.217  0.4097 -0.3746  0.1387
62208SOL    HW195402   9.302   9.235   2.264  0.3283  1.7209 -2.9389
62208SOL    HW295403   9.334   9.143   2.149 -0.4889 -1.9449 -0.4069
62209SOL     OW95404   5.531   4.186   3.999  0.1759 -0.0554 -0.2503
62209SOL    HW195405   5.519   4.166   4.092  1.4970  0.1714 -0.0090
62209SOL    HW295406   5.460   4.248   3.979  0.1446  0.2423  0.7176
62210SOL     OW95407  11.339  12.158   4.966  0.0251 -0.0968  0.0001
62210SOL    HW195408  11.300  12.111   5.040  0.5532  0.8034  0.8733
62210SOL    HW295409  11.377  12.237   5.005  3.2178 -1.1453 -0.6867
62211SOL     OW95410   2.205   4.337   4.472  0.4871  0.5859  0.2531
62211SOL    HW195411   2.193   4.323   4.566 -0.1836  3.5612  0.6991
62211SOL    HW295412   2.295   4.310   4.455 -0.2623 -3.0010  1.0030
62212SOL     OW95413   3.939   5.332   1.912  0.0487 -0.3973 -0.5985
62212SOL    HW195414   3.903   5.244   1.904 -0.0590 -0.3616 -0.4952
62212SOL    HW295415   3.863   5.390   1.909 -0.3556 -0.4662  3.3796
62213SOL     OW95416   0.151   5.366   4.104 -0.0853  0.0035 -0.1059
62213SOL    HW195417   0.086   5.425   4.065 -0.9749 -2.0643 -1.9141
62213SOL    HW295418   0.100   5.298   4.147  0.8409 -1.7359 -1.6724
62214SOL     OW95419   3.736   4.259  11.015  0.2715 -0.7224 -0.0758
62214SOL    HW195420   3.766   4.297  11.098 -0.6956 -0.8052  0.3288
62214SOL    HW295421   3.652   4.219  11.037 -0.5137  0.1835 -1.3468
62215SOL     OW95422  11.728   5.699   2.085  0.4463  0.2711  0.4990
62215SOL    HW195423  11.706   5.685   1.993 -0.7383 -1.2670  0.9649
62215SOL    HW295424  11.656   5.752   2.119  0.0628 -0.4835  0.8806
62216SOL     OW95425   5.111   7.227   4.572  0.4442  0.2943 -0.2017
62216SOL    HW195426   5.030   7.244   4.525 -1.3890 -1.0408  2.2451
62216SOL    HW295427   5.104   7.278   4.652  1.9463 -0.0331  0.1837
62217SOL     OW95428   6.595   4.355   6.912  0.0524  0.5540  0.2278
62217SOL    HW195429   6.512   4.315   6.938 -0.7867  0.3596 -2.4831
62217SOL    HW295430   6.619   4.410   6.987 -0.4898 -2.3012  2.6922
62218SOL     OW95431   3.830   3.703   3.927 -0.4168 -0.2099 -0.1063
62218SOL    HW195432   3.854   3.722   4.017 -1.1342 -0.3520  0.1220
62218SOL    HW295433   3.734   3.701   3.928 -0.5555  2.1860 -1.3329
62219SOL     OW95434  12.030   5.403   7.641 -0.5203 -0.5448  0.5545
62219SOL    HW195435  11.979   5.347   7.700 -3.7282  0.9139 -0.6419
62219SOL    HW295436  11.998   5.491   7.658  2.3942  0.6637  0.3625
62220SOL     OW95437   4.947  10.065   7.271 -0.5570 -0.4606  0.2981
62220SOL    HW195438   4.852  10.071   7.274 -0.4662  1.0281  1.4453
62220SOL    HW295439   4.975  10.063   7.362  0.5107 -1.4698 -0.0194
62221SOL     OW95440   4.747  10.420   1.134  0.0092  0.1181 -0.6497
62221SOL    HW195441   4.703  10.347   1.178  1.2730 -0.7678 -0.8223
62221SOL    HW295442   4.838  10.394   1.128  0.2233  1.0593 -2.0736
62222SOL     OW95443   7.840   6.317   2.682 -0.4428  0.0559  0.1999
62222SOL    HW195444   7.809   6.407   2.671 -2.4552 -0.4037  1.5668
62222SOL    HW295445   7.913   6.324   2.744 -1.0838  0.6842  0.9008
62223SOL     OW95446   2.181   4.301   4.748 -0.1821  0.1659 -0.0033
62223SOL    HW195447   2.233   4.357   4.806  1.9816 -2.0852  0.4103
62223SOL    HW295448   2.145   4.233   4.806 -1.1841  0.0320 -0.7562
62224SOL     OW95449   2.272   7.058   9.302  0.0891 -0.2452 -0.1034
62224SOL    HW195450   2.299   7.109   9.225  0.2907 -1.2765 -0.7453
62224SOL    HW295451   2.202   7.001   9.269 -0.4781 -0.0311  0.7170
62225SOL     OW95452  11.655   5.035  11.459 -0.0594  0.5532 -0.7702
62225SOL    HW195453  11.736   4.987  11.477  0.4559  2.0304  1.3284
62225SOL    HW295454  11.585   4.979  11.494  0.4491  0.8785  0.8584
62226SOL     OW95455   6.409   7.914   0.289  0.6774 -0.0204 -0.1559
62226SOL    HW195456   6.319   7.903   0.258  0.3536 -0.2381  0.8348
62226SOL    HW295457   6.418   8.008   0.305  1.2801  0.3110 -2.1348
62227SOL     OW95458   0.582  11.526   3.242  0.4778 -0.3806 -0.3967
62227SOL    HW195459   0.663  11.491   3.205  1.5613  2.1947 -0.6704
62227SOL    HW295460   0.526  11.542   3.166  1.4313  1.8257 -0.7037
62228SOL     OW95461   1.107  11.403   7.214  0.9413  0.2466  0.9275
62228SOL    HW195462   1.176  11.337   7.226 -0.2518 -1.0095  1.1266
62228SOL    HW295463   1.036  11.373   7.271 -1.0536 -0.3602 -1.7005
62229SOL     OW95464   3.736   3.113  12.532  0.6496 -0.7326 -0.1600
62229SOL    HW195465   3.806   3.168  12.565  0.4863 -0.3703 -0.4057
62229SOL    HW295466   3.729   3.136  12.439 -1.6105  1.2700  0.3821
62230SOL     OW95467   0.500  10.264   8.096  0.0052  0.2144 -0.3122
62230SOL    HW195468   0.482  10.170   8.093  0.5077  0.1406 -2.0530
62230SOL    HW295469   0.594  10.270   8.077 -0.3036  1.1297 -1.6457
62231SOL     OW95470   4.791   6.456  10.267 -0.1569 -0.2646 -0.1661
62231SOL    HW195471   4.824   6.484  10.352 -0.6414  0.9110 -0.3431
62231SOL    HW295472   4.847   6.500  10.203 -1.1211  0.5701 -0.4564
62232SOL     OW95473   7.260   7.253   1.862 -0.0607 -0.1424 -0.0091
62232SOL    HW195474   7.199   7.183   1.837 -1.4087  0.5529  1.2062
62232SOL    HW295475   7.280   7.298   1.779  0.0242 -1.3153 -0.6504
62233SOL     OW95476   6.662   8.057   9.425  0.2274  0.5989  0.4160
62233SOL    HW195477   6.675   7.977   9.374 -1.2933  0.8462 -0.4219
62233SOL    HW295478   6.689   8.127   9.365 -0.4491  0.8197  0.3563
62234SOL     OW95479   3.146   7.699   9.124  0.4826  0.3540  0.2521
62234SOL    HW195480   3.226   7.745   9.098 -1.0135  2.1219 -1.5383
62234SOL    HW295481   3.148   7.618   9.074  1.5238 -0.0053  0.8446
62235SOL     OW95482  11.405   9.255  11.039 -0.1446  0.1990  0.6618
62235SOL    HW195483  11.450   9.185  11.086 -0.2204 -0.6494 -0.4780
62235SOL    HW295484  11.453   9.264  10.957 -0.5066  1.0796  0.5310
62236SOL     OW95485   3.588   3.951   4.084  0.0773  0.4940 -0.1960
62236SOL    HW195486   3.584   3.872   4.029  2.0190  0.9354 -1.0536
62236SOL    HW295487   3.541   4.017   4.034  1.5287  0.7968 -1.2295
62237SOL     OW95488  10.280   3.060  11.375 -0.4396  0.2970  0.1021
62237SOL    HW195489  10.357   3.016  11.339 -0.4371  0.3275  0.0706
62237SOL    HW295490  10.245   3.111  11.302 -2.2545 -2.0790 -0.8155
62238SOL     OW95491   1.287   3.522   7.704 -0.2603  0.0097  0.0990
62238SOL    HW195492   1.353   3.457   7.679 -0.2425 -0.2109  0.7146
62238SOL    HW295493   1.255   3.556   7.620 -0.3854 -0.9099 -0.2377
62239SOL     OW95494   1.817   9.715   8.962 -0.6944  0.7361  0.0253
62239SOL    HW195495   1.813   9.803   8.999 -3.5918  0.8256 -0.2493
62239SOL    HW295496   1.884   9.670   9.012 -0.5209  2.5317  1.5004
62240SOL     OW95497   6.831   7.867  10.203 -0.0620 -0.1802  0.4895
62240SOL    HW195498   6.736   7.862  10.206 -0.0758 -0.5466 -0.3453
62240SOL    HW295499   6.855   7.915  10.282 -1.0514  1.7284 -0.3034
62241SOL     OW95500   4.099  11.772  10.085 -0.0533 -0.0370 -0.4175
62241SOL    HW195501   4.188  11.796  10.111  0.7206 -1.8398 -1.2505
62241SOL    HW295502   4.084  11.687  10.126 -1.3047  0.1122 -0.5216
62242SOL     OW95503   2.627  11.459   0.869 -0.1911  0.1218 -0.2933
62242SOL    HW195504   2.676  11.493   0.945 -0.1476  0.6896 -0.5746
62242SOL    HW295505   2.545  11.427   0.907 -0.7892  1.7053 -0.1793
62243SOL     OW95506  10.473  10.509   3.292  0.3205  0.5952  0.7414
62243SOL    HW195507  10.531  10.484   3.220  0.5874  0.0023  1.1519
62243SOL    HW295508  10.465  10.430   3.345  1.0838  1.3427  2.0219
62244SOL     OW95509  12.510   6.850   6.049 -0.1186  0.0686 -0.0902
62244SOL    HW195510  12.471   6.774   6.005 -1.7084  0.5341  0.4238
62244SOL    HW295511  12.445   6.919   6.039  0.0272  0.5557  1.8502
62245SOL     OW95512   9.602   3.452   0.429  0.1681 -0.0804 -0.4637
62245SOL    HW195513   9.687   3.453   0.473  0.2880  1.5722 -0.6826
62245SOL    HW295514   9.580   3.544   0.415 -0.9398 -0.5067 -1.8204
62246SOL     OW95515   0.296   9.076   7.122  0.4050  0.3772  0.2068
62246SOL    HW195516   0.255   9.097   7.038 -0.7507 -0.2465  0.5911
62246SOL    HW295517   0.246   9.127   7.186 -0.2924 -0.9804  0.7685
62247SOL     OW95518  11.176   6.049   7.467  0.5188 -0.3797 -0.1159
62247SOL    HW195519  11.136   6.110   7.405  2.2028  1.8100  0.8278
62247SOL    HW295520  11.119   6.050   7.543  1.0915  0.9361  0.3230
62248SOL     OW95521   0.026   0.602   7.884 -0.2334 -0.8020  0.2660
62248SOL    HW195522   0.050   0.511   7.865 -0.6881 -0.6648 -1.0693
62248SOL    HW295523   0.076   0.654   7.821  0.4300 -0.0633  1.3643
62249SOL     OW95524   9.762   8.560   5.736  0.0215  0.0419  0.4717
62249SOL    HW195525   9.772   8.532   5.645  0.3151  0.9982  0.2036
62249SOL    HW295526   9.760   8.655   5.732 -0.0590  0.0908  1.4620
62250SOL     OW95527   6.417  11.650   8.294 -0.1341  0.4118  0.7985
62250SOL    HW195528   6.444  11.728   8.343 -1.9771  1.6107  0.0087
62250SOL    HW295529   6.484  11.640   8.226  0.5732  0.7971  1.4215
62251SOL     OW95530  11.261   3.596   7.813  0.3160 -0.7090 -0.0427
62251SOL    HW195531  11.266   3.673   7.757 -0.4225  0.2446  1.1450
62251SOL    HW295532  11.168   3.574   7.815  0.2556 -0.3888  1.2284
62252SOL     OW95533   4.089   0.140   9.075 -0.0923 -0.9582 -0.3111
62252SOL    HW195534   4.073   0.115   8.984  1.0219  0.1499 -0.8337
62252SOL    HW295535   4.054   0.228   9.083 -0.2386 -1.0689  0.3553
62253SOL     OW95536  12.531   3.242   9.251  0.4902 -0.0352  0.1604
62253SOL    HW195537  12.616   3.229   9.210  0.8941  0.0031  0.9686
62253SOL    HW295538  12.524   3.337   9.264 -0.6776  0.2320 -1.9723
62254SOL     OW95539   0.408   3.480   0.854  0.0175 -0.6127 -0.1360
62254SOL    HW195540   0.477   3.459   0.917 -0.2413  1.1713  0.8114
62254SOL    HW295541   0.433   3.566   0.820 -1.3596 -0.2693 -0.3237
62255SOL     OW95542   2.358   5.892  10.150 -0.0725  0.0186 -0.2583
62255SOL    HW195543   2.421   5.923  10.215 -0.1191  0.2810 -0.3398
62255SOL    HW295544   2.310   5.822  10.196 -0.3862  0.4802  0.1315
62256SOL     OW95545  11.524   1.408   1.480  0.7431 -0.5231 -0.1248
62256SOL    HW195546  11.571   1.361   1.411 -1.6771 -3.1957 -0.1329
62256SOL    HW295547  11.451   1.450   1.435  0.8654  0.2715  0.4097
62257SOL     OW95548   4.666  10.443   3.847 -0.0575  0.3850 -0.3019
62257SOL    HW195549   4.703  10.474   3.930  1.1878  0.8075 -0.9964
62257SOL    HW295550   4.572  10.436   3.865  0.3715 -1.4273  1.7406
62258SOL     OW95551   6.349   9.406  10.542  0.1512 -0.2926 -0.5972
62258SOL    HW195552   6.354   9.470  10.470  0.8196  1.2218  0.7330
62258SOL    HW295553   6.339   9.459  10.621  0.6391 -1.8556  0.5696
62259SOL     OW95554  10.690   4.427   2.349  0.4007  0.1377 -0.2337
62259SOL    HW195555  10.713   4.383   2.431  0.8685 -0.1865 -0.5349
62259SOL    HW295556  10.770   4.470   2.321  0.2262  0.2996 -0.4935
62260SOL     OW95557   2.442   9.820   2.546  0.0117  0.1843 -0.9170
62260SOL    HW195558   2.531   9.843   2.573 -0.5430  0.2336  0.9901
62260SOL    HW295559   2.440   9.724   2.548 -0.2428  0.1947  0.0766
62261SOL     OW95560   2.239  10.315   3.779 -0.4245 -0.0484  0.1708
62261SOL    HW195561   2.176  10.251   3.744 -0.1894 -0.2680  0.1459
62261SOL    HW295562   2.198  10.400   3.763  0.1437 -0.0764 -1.6005
62262SOL     OW95563   1.564  11.717   5.173 -0.1649 -0.2399  0.3621
62262SOL    HW195564   1.491  11.667   5.137  0.0939  0.8468 -1.8476
62262SOL    HW295565   1.637  11.655   5.174 -0.5072 -0.6523  0.2705
62263SOL     OW95566   2.881   2.725   0.994 -0.1858  0.4705 -0.3937
62263SOL    HW195567   2.813   2.750   0.932  0.2520  0.2065 -1.0019
62263SOL    HW295568   2.836   2.675   1.062 -0.3615 -1.3443 -1.7747
62264SOL     OW95569   0.574   7.623   9.499  0.2484 -0.0712 -0.1965
62264SOL    HW195570   0.639   7.565   9.458  2.2166  0.8178  1.4973
62264SOL    HW295571   0.614   7.710   9.496 -1.8283  0.9362 -0.9960
62265SOL     OW95572   6.483   0.011   0.629 -0.0898  0.2844 -0.6660
62265SOL    HW195573   6.508   0.019   0.721 -0.9204 -2.1602 -0.1675
62265SOL    HW295574   6.562  -0.020   0.585  0.4260  1.8377 -0.9032
62266SOL     OW95575  10.799   1.122  12.581  0.3831 -0.3127 -0.0545
62266SOL    HW195576  10.853   1.183  12.630  0.6965  0.1916 -1.0074
62266SOL    HW295577  10.841   1.115  12.496  0.2514 -1.7287 -0.0281
62267SOL     OW95578   7.532   4.761   2.899  0.4657  0.0511  0.1325
62267SOL    HW195579   7.572   4.822   2.836 -1.7444 -0.1266 -1.5810
62267SOL    HW295580   7.527   4.678   2.851  0.4403 -0.6101  1.2486
62268SOL     OW95581  11.196   6.682   5.309 -0.8656 -0.1622 -0.4693
62268SOL    HW195582  11.114   6.732   5.302 -0.2408  0.8996 -0.2780
62268SOL    HW295583  11.256   6.726   5.249  0.2524  0.4457  1.0422
62269SOL     OW95584   7.058   7.052   3.975  0.3266  0.3431 -0.1786
62269SOL    HW195585   7.028   7.137   3.944 -1.1048 -0.0721 -0.0269
62269SOL    HW295586   7.020   7.044   4.062 -0.3712 -0.8391 -0.5683
62270SOL     OW95587   3.944   5.419   3.050  0.0535  0.0960 -0.1858
62270SOL    HW195588   3.928   5.374   3.133 -0.7901 -0.3305 -0.5777
62270SOL    HW295589   3.910   5.360   2.983 -1.2515  1.3805 -0.7051
62271SOL     OW95590   1.981   5.543   2.379 -0.2587 -0.2708 -0.5673
62271SOL    HW195591   1.892   5.507   2.387 -0.2076 -0.3043 -0.1510
62271SOL    HW295592   1.999   5.580   2.465  0.4932 -1.0800 -0.3639
62272SOL     OW95593   0.543   9.000   4.404  0.6170 -0.3361 -0.5325
62272SOL    HW195594   0.477   9.069   4.394  0.5349 -0.4657 -0.8767
62272SOL    HW295595   0.519   8.935   4.339  0.4050 -0.9193  0.1184
62273SOL     OW95596  10.205   1.502   8.278  0.1350 -0.1880 -0.0021
62273SOL    HW195597  10.205   1.494   8.373  1.6865  2.1820  0.2812
62273SOL    HW295598  10.132   1.447   8.249 -2.3070  1.3075  2.7783
62274SOL     OW95599   0.642   1.648   5.312  0.2576 -0.0682 -0.2809
62274SOL    HW195600   0.614   1.661   5.402 -0.3816  0.2081 -0.5071
62274SOL    HW295601   0.653   1.554   5.302  0.8369 -0.0587  0.2224
62275SOL     OW95602   2.090  11.175   5.857 -0.2300 -0.5636 -0.5041
62275SOL    HW195603   2.069  11.236   5.786 -0.1164 -1.1624 -1.0637
62275SOL    HW295604   2.185  11.179   5.866 -0.2579 -0.3750 -0.2794
62276SOL     OW95605   2.558  11.318  12.322  0.5284 -0.0779 -0.2246
62276SOL    HW195606   2.572  11.312  12.227  1.8071  2.0561 -0.2396
62276SOL    HW295607   2.635  11.275  12.360  0.1369 -0.7167 -0.1463
62277SOL     OW95608   8.884   9.543   3.915 -0.6882  0.2746  0.0510
62277SOL    HW195609   8.829   9.618   3.891 -0.0938  0.5438 -0.4804
62277SOL    HW295610   8.888   9.490   3.836  1.2462  1.1408 -0.4958
62278SOL     OW95611  12.499  11.371   6.171  0.0407 -0.1155 -0.3853
62278SOL    HW195612  12.448  11.294   6.197 -2.0800  0.4547 -2.5922
62278SOL    HW295613  12.561  11.383   6.244 -1.5247 -2.1048  1.4328
62279SOL     OW95614   8.690   6.735   5.819  0.2376  0.0485 -0.3387
62279SOL    HW195615   8.620   6.674   5.844 -1.0597  0.9670 -1.5954
62279SOL    HW295616   8.737   6.690   5.749 -0.6636  0.4053 -1.2040
62280SOL     OW95617   6.314   1.031   2.112 -0.5718  0.1051 -0.5983
62280SOL    HW195618   6.377   1.049   2.182 -1.3616 -0.0948  0.1793
62280SOL    HW295619   6.243   1.093   2.126 -1.8058 -1.4094  0.1702
62281SOL     OW95620  11.097  11.340   5.455  0.1059 -0.1216 -0.0262
62281SOL    HW195621  11.139  11.256   5.475  0.1679  0.0874  0.7730
62281SOL    HW295622  11.102  11.348   5.360  1.9947 -0.0555  0.0419
62282SOL     OW95623  11.364   0.460  10.966  0.2436 -0.1421 -0.0876
62282SOL    HW195624  11.398   0.371  10.971 -1.5928 -0.8801  0.0671
62282SOL    HW295625  11.396   0.494  10.882  3.3143  0.1398  1.0783
62283SOL     OW95626  11.763   4.475   1.360 -0.9269  0.1661 -0.4320
62283SOL    HW195627  11.791   4.461   1.270 -1.0171 -0.1509 -0.4132
62283SOL    HW295628  11.734   4.389   1.390  0.2241  0.0128  0.2918
62284SOL     OW95629   3.942  11.371   3.400 -0.2605  0.1767 -0.4105
62284SOL    HW195630   4.024  11.323   3.415 -1.1605 -1.0683  0.8566
62284SOL    HW295631   3.874  11.308   3.424 -1.6032  1.0899 -1.7205
62285SOL     OW95632   2.416   4.404   1.133  0.1052  0.1879  0.9266
62285SOL    HW195633   2.387   4.493   1.112  0.1203 -0.2711 -1.2525
62285SOL    HW295634   2.405   4.355   1.051  2.2658 -1.2336  1.4026
62286SOL     OW95635   3.421   8.213   9.541 -0.2677 -0.5729 -0.3446
62286SOL    HW195636   3.395   8.162   9.619  1.0090 -0.6905  0.0241
62286SOL    HW295637   3.371   8.294   9.549  1.3530  0.3166  1.7479
62287SOL     OW95638  12.001   0.546  10.643  0.1916  0.1560 -0.2954
62287SOL    HW195639  12.034   0.514  10.727  0.4439  0.0329 -0.4403
62287SOL    HW295640  11.996   0.468  10.587 -2.3646 -0.2327  0.3347
62288SOL     OW95641   0.009   0.846   2.061  0.1746 -0.0828 -0.4178
62288SOL    HW195642   0.087   0.833   2.008 -0.4933 -0.6181 -1.2996
62288SOL    HW295643  -0.016   0.759   2.090  0.0035  0.1039  0.0051
62289SOL     OW95644  11.125   4.238   4.122 -0.1707  0.0778  0.3509
62289SOL    HW195645  11.092   4.288   4.047 -1.3273 -0.7361  0.3050
62289SOL    HW295646  11.210   4.278   4.141  0.0785  0.4024 -1.2917
62290SOL     OW95647  11.342  11.755   5.117 -0.9002  0.2964  0.1322
62290SOL    HW195648  11.394  11.683   5.079 -0.4682 -0.6800  2.4129
62290SOL    HW295649  11.377  11.834   5.075  0.1416 -0.6182 -0.8157
62291SOL     OW95650   0.133   9.306   9.118  0.7982 -0.2409  0.0867
62291SOL    HW195651   0.100   9.392   9.144  2.2731  0.3324  0.1441
62291SOL    HW295652   0.086   9.287   9.037 -0.3771  0.0875  0.6647
62292SOL     OW95653  10.141   9.403  10.749  0.6222 -0.0059  0.2067
62292SOL    HW195654  10.152   9.457  10.670  2.3450  0.6178  0.8166
62292SOL    HW295655  10.143   9.467  10.821  0.2659 -0.6704  0.8086
62293SOL     OW95656   8.677   3.237   7.587  0.0943 -0.2722 -0.0590
62293SOL    HW195657   8.633   3.308   7.634  1.4744  1.1066 -0.7633
62293SOL    HW295658   8.641   3.241   7.499 -0.2364 -0.8313  0.0487
62294SOL     OW95659   7.139   2.565   2.686 -0.1837  0.5025  0.0673
62294SOL    HW195660   7.090   2.596   2.763 -0.4856 -0.2094  0.1692
62294SOL    HW295661   7.218   2.525   2.722 -1.8414 -2.8979  0.3506
62295SOL     OW95662   2.475   9.222  11.321 -0.2898 -0.0846 -0.6837
62295SOL    HW195663   2.504   9.131  11.330  0.4768  0.2048 -0.1445
62295SOL    HW295664   2.556   9.273  11.316 -0.6570  0.7786  1.2510
62296SOL     OW95665   7.740   4.198  10.134  0.1186  0.3531  0.3019
62296SOL    HW195666   7.736   4.221  10.227 -2.1496  0.2619  0.2626
62296SOL    HW295667   7.657   4.228  10.097  0.1544 -1.3061 -1.3002
62297SOL     OW95668   3.505  12.279   7.281  0.2294 -0.0246  0.1264
62297SOL    HW195669   3.466  12.367   7.277 -0.7723 -0.2959  2.4298
62297SOL    HW295670   3.445  12.224   7.231 -1.0306  0.0348  1.5101
62298SOL     OW95671   2.963   4.301  12.013  0.3422 -0.6058  0.1200
62298SOL    HW195672   3.050   4.273  11.985  0.1581 -1.3478  0.2801
62298SOL    HW295673   2.977   4.341  12.099  0.4035 -1.5235  0.5435
62299SOL     OW95674   4.690   3.244   1.222 -0.7634 -0.0420  0.7864
62299SOL    HW195675   4.720   3.325   1.263  0.0137  0.2567 -0.3457
62299SOL    HW295676   4.736   3.240   1.138 -1.4271 -1.2340  0.4504
62300SOL     OW95677  11.498   6.639  12.090  0.2008  0.1187 -0.0255
62300SOL    HW195678  11.515   6.553  12.129  0.3648 -0.3483 -1.0971
62300SOL    HW295679  11.583   6.669  12.059 -0.1779 -0.2731 -1.5045
62301SOL     OW95680  10.957   3.714   3.249 -0.7819 -0.2237 -0.0792
62301SOL    HW195681  10.973   3.696   3.342  0.9461 -0.6987 -0.4174
62301SOL    HW295682  10.951   3.627   3.209 -2.4108 -0.0294 -0.3042
62302SOL     OW95683   2.070  10.871   2.824 -0.5798 -0.1314 -0.4236
62302SOL    HW195684   2.049  10.907   2.738  0.5179 -0.5221 -0.8676
62302SOL    HW295685   2.165  10.872   2.828 -0.5839 -1.1124  0.3598
62303SOL     OW95686   9.121   7.472  11.824 -0.1066 -0.1204 -0.1292
62303SOL    HW195687   9.034   7.434  11.838  1.0838 -2.9005  0.2448
62303SOL    HW295688   9.145   7.508  11.909 -0.4703 -0.2457  0.0303
62304SOL     OW95689   5.805  10.282  11.038  0.2892 -0.3578  0.6199
62304SOL    HW195690   5.733  10.293  10.975  1.0505 -1.5167 -0.4817
62304SOL    HW295691   5.787  10.198  11.080 -0.6343  0.7440  2.5769
62305SOL     OW95692  11.728   1.448   9.288  0.3800 -0.3381  0.3755
62305SOL    HW195693  11.684   1.532   9.273  1.8411  0.5135  0.7192
62305SOL    HW295694  11.668   1.400   9.346  0.2081  1.0598  1.3885
62306SOL     OW95695   4.814  10.683   3.766  0.2139 -0.4727 -0.4606
62306SOL    HW195696   4.732  10.636   3.780 -0.0831  0.2899  0.4867
62306SOL    HW295697   4.859  10.634   3.697 -1.8055  0.0443 -2.2874
62307SOL     OW95698  11.756   5.669   4.458 -0.3214 -0.1249 -0.1172
62307SOL    HW195699  11.759   5.713   4.543 -2.9145  0.7386 -0.3813
62307SOL    HW295700  11.806   5.588   4.471  0.6701  0.7166  1.7265
62308SOL     OW95701   1.598   0.545   4.095  0.2687 -0.5802  0.0818
62308SOL    HW195702   1.571   0.637   4.099  2.0264 -0.0305 -0.1929
62308SOL    HW295703   1.544   0.507   4.025  1.3292  0.8961 -1.6101
62309SOL     OW95704  10.505   6.453  11.505  0.0444  0.2881 -0.4018
62309SOL    HW195705  10.414   6.431  11.485  0.5599 -1.6807 -0.8894
62309SOL    HW295706  10.514   6.436  11.599 -0.1050  0.4941 -0.3521
62310SOL     OW95707   4.902   2.870   9.874  0.6390  0.5193 -0.2515
62310SOL    HW195708   4.911   2.934   9.945 -1.0130  1.1731 -0.5676
62310SOL    HW295709   4.924   2.919   9.795  1.0359  0.2113 -0.3325
62311SOL     OW95710   0.713   8.607   8.854 -0.0171  0.1455 -0.3860
62311SOL    HW195711   0.784   8.612   8.918  0.4339  0.3352 -0.8884
62311SOL    HW295712   0.716   8.691   8.808  1.3835 -0.9059 -2.4132
62312SOL     OW95713  10.616   4.351   4.437 -0.0726  0.0354  0.2569
62312SOL    HW195714  10.607   4.305   4.353  0.1162 -0.8008  0.6836
62312SOL    HW295715  10.710   4.364   4.447 -0.1875  1.5322 -0.3828
62313SOL     OW95716   5.480   9.431   1.301  0.5569  0.5313  0.0048
62313SOL    HW195717   5.413   9.365   1.319  0.3310  0.7972  0.1459
62313SOL    HW295718   5.505   9.464   1.387  0.1789  1.1124 -0.1037
62314SOL     OW95719   9.076   9.745   0.837  0.2181 -0.3509 -0.0751
62314SOL    HW195720   9.052   9.699   0.756 -2.1389  0.5888  0.0250
62314SOL    HW295721   9.100   9.675   0.898  1.3366 -1.1148 -1.3241
62315SOL     OW95722   8.228   6.590   4.415 -0.2308  0.5963  0.2486
62315SOL    HW195723   8.217   6.560   4.325 -0.1081 -0.9042  0.7142
62315SOL    HW295724   8.319   6.571   4.435 -0.3683  0.5409  0.8224
62316SOL     OW95725  11.826   7.233   5.006 -0.7638  0.4412  0.4420
62316SOL    HW195726  11.782   7.167   4.953 -0.5488  0.8712 -0.2834
62316SOL    HW295727  11.758   7.267   5.064 -1.9413  2.4205 -1.9100
62317SOL     OW95728   7.660   6.162   3.369  0.2438 -0.5271  0.2165
62317SOL    HW195729   7.611   6.191   3.446 -1.0701 -2.2324  0.1020
62317SOL    HW295730   7.717   6.235   3.347 -0.8875  0.8112  1.5354
62318SOL     OW95731   5.235   0.796   0.461 -0.1184  0.3852  0.3173
62318SOL    HW195732   5.199   0.793   0.373  0.5137 -0.6992  0.0814
62318SOL    HW295733   5.323   0.833   0.450 -0.3299  0.9967  0.6091
62319SOL     OW95734   3.794   2.571   6.844 -0.1202  0.4241 -0.1091
62319SOL    HW195735   3.715   2.533   6.807  0.4012 -0.1953 -0.6287
62319SOL    HW295736   3.857   2.571   6.772  0.3710  0.8505  0.3050
62320SOL     OW95737  12.424   8.519   5.833 -0.3574  0.2128 -0.3360
62320SOL    HW195738  12.368   8.447   5.863  1.4853 -0.9996  0.3974
62320SOL    HW295739  12.493   8.524   5.899  0.3300  1.7410 -1.1246
62321SOL     OW95740   6.945   7.524   5.461  0.0721 -0.0827  0.2287
62321SOL    HW195741   6.974   7.463   5.529 -1.5632 -0.5235  0.5620
62321SOL    HW295742   6.863   7.560   5.494 -0.4715  0.1065 -1.2493
62322SOL     OW95743   1.741   9.955   5.311 -0.1715  0.3819  0.0525
62322SOL    HW195744   1.773   9.911   5.390  0.2800  1.6304  0.5799
62322SOL    HW295745   1.796  10.033   5.302 -0.5400  0.5174 -1.2223
62323SOL     OW95746  10.617   8.176   8.455 -0.3449  0.1235  0.0754
62323SOL    HW195747  10.563   8.109   8.496 -1.5196  0.3507 -1.0508
62323SOL    HW295748  10.590   8.258   8.495 -0.0267  0.1154  0.3155
62324SOL     OW95749   7.331  12.317   2.445 -0.2376  0.1639 -0.5283
62324SOL    HW195750   7.321  12.398   2.496 -1.4789 -0.3219  0.0356
62324SOL    HW295751   7.254  12.315   2.389 -0.5397 -0.9410 -0.0877
62325SOL     OW95752   2.813  11.308   3.655  0.4698  0.0733  0.2583
62325SOL    HW195753   2.726  11.269   3.652 -0.5805  2.3041 -1.6019
62325SOL    HW295754   2.809  11.369   3.729  0.0309  0.9137 -0.4258
62326SOL     OW95755   5.375   7.200   4.426  0.6940  0.3315  0.1523
62326SOL    HW195756   5.290   7.178   4.463  0.1225  1.7143 -0.2777
62326SOL    HW295757   5.423   7.117   4.424 -1.0818 -0.7178 -0.7423
62327SOL     OW95758   4.684   8.012  10.109  0.3705  0.1738  0.8248
62327SOL    HW195759   4.710   7.941  10.168  2.2290  1.3701  1.5049
62327SOL    HW295760   4.606   8.049  10.150  1.9470  1.3574  2.9602
62328SOL     OW95761   5.404   7.609   0.039  0.1877 -0.6416  0.1126
62328SOL    HW195762   5.392   7.692  -0.008  3.3393  0.7046  1.3608
62328SOL    HW295763   5.406   7.634   0.132  0.5923 -2.2134  0.5568
62329SOL     OW95764   3.290   3.262   5.478  0.7698 -0.0261  0.5728
62329SOL    HW195765   3.305   3.231   5.389  0.1165  0.2577  0.3612
62329SOL    HW295766   3.370   3.238   5.525  0.6611 -1.1781  0.1958
62330SOL     OW95767  11.253   1.842   7.838  0.5377  0.0569  0.1907
62330SOL    HW195768  11.332   1.808   7.880 -0.1703  0.9742  2.3566
62330SOL    HW295769  11.268   1.936   7.832  0.4927 -0.0092 -1.4276
62331SOL     OW95770   3.699  10.898  12.223 -0.4393  0.0069  0.1512
62331SOL    HW195771   3.720  10.935  12.309 -0.0310  0.0691  0.0295
62331SOL    HW295772   3.604  10.904  12.216 -0.3615  1.2000  0.0500
62332SOL     OW95773   4.362  10.077   9.511 -0.1399  0.2315 -0.0532
62332SOL    HW195774   4.316   9.995   9.528  0.4249 -0.1924 -0.5108
62332SOL    HW295775   4.392  10.069   9.420 -0.1202  0.9680 -0.1180
62333SOL     OW95776   0.464   2.474   9.283  0.7204  0.0008  0.0454
62333SOL    HW195777   0.458   2.426   9.200  1.3691  0.6520 -0.3929
62333SOL    HW295778   0.430   2.561   9.263 -2.4365 -0.8020  1.3591
62334SOL     OW95779   4.016  11.044   4.150  0.3127  0.3727 -0.2650
62334SOL    HW195780   4.014  11.123   4.204  0.6091  0.6767 -0.6923
62334SOL    HW295781   3.932  11.044   4.105  0.6083  0.8425 -0.8234
62335SOL     OW95782   2.437   6.906   9.463  0.6505 -0.1777 -0.1503
62335SOL    HW195783   2.363   6.934   9.410  1.3507 -0.9440 -1.5962
62335SOL    HW295784   2.404   6.831   9.513  0.4173 -0.4575 -0.7201
62336SOL     OW95785   4.819   0.584   9.542  0.5318  0.5215  0.0932
62336SOL    HW195786   4.860   0.502   9.513  2.6396  2.0537 -1.6058
62336SOL    HW295787   4.735   0.585   9.498  0.5647 -0.6214 -0.0328
62337SOL     OW95788   6.857   0.885   7.032  0.3090  0.1331 -0.1813
62337SOL    HW195789   6.902   0.927   7.105  0.4959 -0.6837  0.1881
62337SOL    HW295790   6.904   0.914   6.954  0.5064  0.5006  0.0727
62338SOL     OW95791   3.478   6.540   3.098 -0.0114  0.1532  0.0923
62338SOL    HW195792   3.448   6.594   3.025 -1.1792 -0.7292 -0.1057
62338SOL    HW295793   3.425   6.461   3.093 -0.8180  0.4709  2.4557
62339SOL     OW95794   6.154  11.703   1.659 -0.1909  0.2611  0.0977
62339SOL    HW195795   6.098  11.674   1.587 -0.3966 -2.2844  1.1502
62339SOL    HW295796   6.164  11.797   1.646 -1.1081  0.0778 -2.5954
62340SOL     OW95797   3.530   2.806   7.462  0.4519 -0.2251 -0.5026
62340SOL    HW195798   3.512   2.822   7.369  1.9592 -0.2898 -0.8282
62340SOL    HW295799   3.481   2.874   7.507 -0.2926 -0.1798 -1.3416
62341SOL     OW95800   9.389   5.359   8.349  0.4218 -0.1373  0.2186
62341SOL    HW195801   9.364   5.346   8.257 -1.5105  2.0370  0.3270
62341SOL    HW295802   9.342   5.290   8.396 -0.0258 -0.1823 -0.2800
62342SOL     OW95803   8.907   3.223   9.884 -0.1597  0.2783  0.0491
62342SOL    HW195804   8.936   3.221   9.975  0.9527 -0.7697 -0.3127
62342SOL    HW295805   8.950   3.148   9.843 -0.2241  1.0454 -1.4763
62343SOL     OW95806  12.297  10.530  10.013 -0.3812  0.0184 -0.6205
62343SOL    HW195807  12.285  10.524  10.108  0.7608  0.3297 -0.4370
62343SOL    HW295808  12.259  10.615   9.989 -1.8286 -0.6055 -0.6701
62344SOL     OW95809   1.656   6.698   2.364 -0.0354  0.0586 -0.0344
62344SOL    HW195810   1.575   6.742   2.389  0.0289  0.8302 -1.1125
62344SOL    HW295811   1.671   6.725   2.273  1.1109 -0.5489 -0.0445
62345SOL     OW95812  10.253   3.199   8.349 -0.1061  0.7665 -0.3568
62345SOL    HW195813  10.212   3.219   8.266  0.8272  0.8643 -0.8097
62345SOL    HW295814  10.183   3.162   8.403 -0.6888  0.5865 -1.2243
62346SOL     OW95815  10.739   6.971   4.392 -0.5395  0.5266 -0.3268
62346SOL    HW195816  10.697   7.020   4.463 -0.2721  0.1346  0.1128
62346SOL    HW295817  10.728   6.879   4.417 -0.5227  0.3827 -0.8445
62347SOL     OW95818   7.701   8.005   1.765 -0.5301 -0.2832 -0.2492
62347SOL    HW195819   7.794   7.987   1.780 -0.4271  0.2381 -0.2479
62347SOL    HW295820   7.698   8.039   1.676 -0.6781  0.0186 -0.1289
62348SOL     OW95821   5.235   0.551   2.731 -0.0745  0.1490  0.0738
62348SOL    HW195822   5.294   0.581   2.662 -0.0655  1.9997  0.8404
62348SOL    HW295823   5.198   0.469   2.697  0.2642  0.7738 -1.9222
62349SOL     OW95824   7.352  10.379   0.644  0.4795  0.0174 -0.7902
62349SOL    HW195825   7.312  10.311   0.590  0.7190  0.2303 -1.2432
62349SOL    HW295826   7.399  10.331   0.712 -0.0354 -0.2474 -0.6151
62350SOL     OW95827   0.570  10.843   1.376  0.2627  0.6773  0.4138
62350SOL    HW195828   0.601  10.779   1.441  0.4221  0.3214 -0.0087
62350SOL    HW295829   0.634  10.914   1.381  0.0356  0.8498  0.9500
62351SOL     OW95830  10.581  10.473  12.148  0.1160 -0.6186  0.2054
62351SOL    HW195831  10.546  10.560  12.131  1.2623  0.2298  1.8806
62351SOL    HW295832  10.504  10.418  12.163 -0.5818  0.3765  0.3529
62352SOL     OW95833   3.519  11.697   9.068  1.0740 -0.0774  0.2718
62352SOL    HW195834   3.427  11.710   9.046  0.9067  0.0183  0.9797
62352SOL    HW295835   3.537  11.607   9.042  1.4347  0.5825 -1.9827
62353SOL     OW95836   9.679  10.438  11.905 -0.6218 -0.3894 -0.2896
62353SOL    HW195837   9.692  10.343  11.907 -0.9549 -0.4288  0.0412
62353SOL    HW295838   9.635  10.458  11.988  0.0469  0.1449 -0.0588
62354SOL     OW95839   7.517  10.106   2.220 -0.2140  0.0590 -0.1171
62354SOL    HW195840   7.452  10.115   2.290 -1.1051  1.2555 -1.0574
62354SOL    HW295841   7.516  10.012   2.199  0.0773 -0.3254  1.4522
62355SOL     OW95842   9.096   8.660   1.112 -0.1105  0.1052 -0.2334
62355SOL    HW195843   9.007   8.642   1.081  0.6851 -0.5373 -2.2911
62355SOL    HW295844   9.125   8.577   1.150 -0.0571  0.0357 -0.4255
62356SOL     OW95845  11.277   9.902  11.862 -0.2933 -0.7242  0.3249
62356SOL    HW195846  11.311   9.910  11.773  1.7484  2.3691  1.2178
62356SOL    HW295847  11.312   9.818  11.894  2.3725 -0.0403 -0.5288
62357SOL     OW95848   2.050  11.020   3.778  0.3882 -0.3663  0.0785
62357SOL    HW195849   2.112  10.975   3.720 -0.3609 -0.9189 -0.3056
62357SOL    HW295850   1.973  10.964   3.779 -0.4853  0.8008 -0.2307
62358SOL     OW95851   6.282   5.007   7.935  0.7341 -0.1292  0.1095
62358SOL    HW195852   6.253   4.916   7.942 -1.7416  0.6956  1.5729
62358SOL    HW295853   6.366   5.008   7.982 -0.6072 -1.1424  2.7255
62359SOL     OW95854   2.074  10.276   2.170 -0.1720  0.6461 -0.2057
62359SOL    HW195855   2.049  10.353   2.220 -1.1197 -0.6830  1.4635
62359SOL    HW295856   2.170  10.282   2.165 -0.0003  0.7083  2.0432
62360SOL     OW95857   6.462   3.908   7.796 -0.3091  0.3200 -0.2605
62360SOL    HW195858   6.512   3.945   7.868  1.5020 -1.3968 -0.5646
62360SOL    HW295859   6.450   3.816   7.820 -1.6388  0.2309 -1.1401
62361SOL     OW95860   7.136   6.620   0.726 -0.4166  0.6534 -0.4763
62361SOL    HW195861   7.166   6.563   0.797  0.2923  0.9831 -0.5017
62361SOL    HW295862   7.043   6.633   0.743 -0.4105  0.1410 -0.0195
62362SOL     OW95863   2.193   6.402   9.509  0.2664  0.2019 -0.0459
62362SOL    HW195864   2.268   6.384   9.566  0.0568 -1.8936 -0.3747
62362SOL    HW295865   2.231   6.413   9.422  0.3807  1.3288  0.1332
62363SOL     OW95866   8.940  10.203   1.954  0.4374  0.6827  0.1480
62363SOL    HW195867   8.968  10.153   1.878  1.0137  0.1258  0.7255
62363SOL    HW295868   9.020  10.240   1.991  0.1371  1.1550  0.3531
62364SOL     OW95869  12.526  10.897   5.012  0.0450  0.1781  0.3603
62364SOL    HW195870  12.464  10.934   5.076  0.2935  1.2679 -0.0028
62364SOL    HW295871  12.604  10.878   5.064 -0.1061  0.1118  0.5657
62365SOL     OW95872   5.123  11.039   6.909 -0.1877 -0.6714 -0.3059
62365SOL    HW195873   5.180  10.962   6.913  1.8073  0.7692  0.9839
62365SOL    HW295874   5.040  11.005   6.877  1.3046 -2.9291 -2.1714
62366SOL     OW95875   1.364   0.720  11.655 -0.0921 -0.0629  0.3373
62366SOL    HW195876   1.366   0.629  11.626  0.8388 -0.6149  1.9627
62366SOL    HW295877   1.373   0.714  11.751  2.5112  1.8026  0.3068
62367SOL     OW95878  11.290   3.308   1.369  0.3608 -0.2585  0.2987
62367SOL    HW195879  11.270   3.376   1.305  1.7176 -0.8449 -0.8016
62367SOL    HW295880  11.339   3.354   1.438 -0.4770  0.2343  0.5839
62368SOL     OW95881  12.291   8.776   6.842 -0.1084  0.2661 -0.2347
62368SOL    HW195882  12.243   8.693   6.843  1.7424 -0.8829  1.3722
62368SOL    HW295883  12.245   8.830   6.778 -2.4928 -1.3188  0.0205
62369SOL     OW95884   1.240   9.971   7.708 -0.1807  0.0107  0.3681
62369SOL    HW195885   1.250   9.994   7.801 -1.0846 -0.0599  0.4927
62369SOL    HW295886   1.295  10.034   7.661  1.6024 -0.9592  1.0409
62370SOL     OW95887   5.854   0.546   8.807 -0.0711  0.0129  0.2257
62370SOL    HW195888   5.937   0.593   8.798  0.4615 -0.9311  0.1803
62370SOL    HW295889   5.829   0.524   8.717  1.1017 -2.2073  0.3761
62371SOL     OW95890   0.565  10.750   8.100  0.0264  0.6882 -0.5974
62371SOL    HW195891   0.560  10.695   8.178 -3.9365  0.5102 -0.8028
62371SOL    HW295892   0.530  10.696   8.030  0.2561  2.0229 -1.7964
62372SOL     OW95893  10.531   6.024   9.950 -0.0659  0.0964 -0.4135
62372SOL    HW195894  10.615   5.989   9.980 -1.1423 -0.8715  1.7281
62372SOL    HW295895  10.492   6.063  10.029 -1.1040  1.6702 -1.6441
62373SOL     OW95896   3.234   4.071  10.911 -0.0699  0.2646 -0.3312
62373SOL    HW195897   3.207   3.989  10.952 -1.7744  1.1153  0.3866
62373SOL    HW295898   3.151   4.117  10.894  0.8449  1.9086 -0.5409
62374SOL     OW95899   3.018   7.225   5.852 -0.0990  0.2289 -0.2451
62374SOL    HW195900   2.922   7.219   5.844 -0.0926  0.5556 -0.6084
62374SOL    HW295901   3.033   7.301   5.908 -0.1005 -1.2090  1.8303
62375SOL     OW95902   7.119   5.085  10.897 -0.0520  0.9438  0.1712
62375SOL    HW195903   7.072   5.048  10.973 -1.7194  0.5963 -0.9629
62375SOL    HW295904   7.207   5.102  10.929  0.5347 -2.9425  1.1661
62376SOL     OW95905   0.166   0.681   1.580  0.1090 -0.3987  0.4149
62376SOL    HW195906   0.160   0.774   1.604  2.6049 -0.3052  0.9127
62376SOL    HW295907   0.259   0.666   1.565 -0.3952 -2.5418 -0.9738
62377SOL     OW95908  10.451   4.606   9.694 -0.2648  0.0840 -0.0035
62377SOL    HW195909  10.468   4.674   9.759 -1.7641  0.3849  0.1063
62377SOL    HW295910  10.418   4.654   9.618  2.7339 -0.1076 -1.5693
62378SOL     OW95911   1.448  10.932  11.457  1.1550  0.3006  0.3933
62378SOL    HW195912   1.412  10.914  11.544 -1.1535 -0.5611 -0.6606
62378SOL    HW295913   1.433  11.026  11.445  1.1570  0.3543  0.7754
62379SOL     OW95914   0.275   3.086  10.747 -0.1174 -0.0605 -0.2943
62379SOL    HW195915   0.365   3.074  10.718 -0.0515  0.3694 -0.2761
62379SOL    HW295916   0.226   3.016  10.703  0.1711 -0.1072 -0.5460
62380SOL     OW95917   7.658   5.785  10.861 -0.1263 -0.6862 -0.1969
62380SOL    HW195918   7.598   5.769  10.934 -1.0912 -0.9766 -1.0328
62380SOL    HW295919   7.675   5.698  10.825  0.7296 -0.5958 -0.0451
62381SOL     OW95920  12.172   5.833   4.892 -0.2779  0.0704  0.0000
62381SOL    HW195921  12.150   5.907   4.836 -1.1838  0.1158  0.3952
62381SOL    HW295922  12.107   5.766   4.871 -1.5755  0.6184  1.9891
62382SOL     OW95923   4.089   9.928   2.928 -0.3652 -0.3450 -0.4219
62382SOL    HW195924   4.109   9.960   3.016 -1.0874 -1.1429  0.0408
62382SOL    HW295925   4.174   9.902   2.892 -0.1502 -0.6602  0.3004
62383SOL     OW95926   4.838   1.509   8.610 -0.7130 -0.1962  0.5707
62383SOL    HW195927   4.843   1.479   8.701 -1.0112  0.0129  0.6594
62383SOL    HW295928   4.771   1.454   8.570  0.1868 -1.0301  0.1750
62384SOL     OW95929   2.116   2.085   2.790 -0.2674  0.3251 -1.1014
62384SOL    HW195930   2.077   2.045   2.713 -0.7196  0.6440 -1.0413
62384SOL    HW295931   2.042   2.113   2.843  0.0273 -0.3361 -0.3097
62385SOL     OW95932  12.347   2.196   2.544 -0.0663 -0.2008 -0.2361
62385SOL    HW195933  12.330   2.229   2.633 -0.1969 -0.4967 -0.1513
62385SOL    HW295934  12.280   2.237   2.490  2.2072  2.9894 -0.9044
62386SOL     OW95935   2.151   9.247  11.958  0.7076  0.1007 -0.5076
62386SOL    HW195936   2.239   9.269  11.990  0.4075 -1.4933  1.6028
62386SOL    HW295937   2.097   9.321  11.986  1.0389  0.1790 -0.0510
62387SOL     OW95938   9.654   7.254   1.266  0.0475  0.0872  0.0712
62387SOL    HW195939   9.635   7.163   1.244  0.9308 -0.2413  0.6107
62387SOL    HW295940   9.669   7.254   1.360  0.4436  0.7163  0.0217
62388SOL     OW95941   6.122   2.872   9.855 -0.0892 -0.0043  0.0243
62388SOL    HW195942   6.108   2.966   9.869 -0.1919 -0.0115 -0.0276
62388SOL    HW295943   6.212   2.866   9.821  0.0357  0.0446  0.3453
62389SOL     OW95944  12.367   0.195   7.391 -0.6315  0.1698 -0.8538
62389SOL    HW195945  12.400   0.114   7.353  1.2556 -0.3823  1.6721
62389SOL    HW295946  12.401   0.195   7.481 -2.2581  2.8007 -0.1225
62390SOL     OW95947   1.914   7.183   9.487 -0.0995  0.0970 -0.0288
62390SOL    HW195948   1.943   7.154   9.400  0.3907  2.6536 -0.8092
62390SOL    HW295949   1.820   7.196   9.477  0.0902  1.2626 -0.5061
62391SOL     OW95950   8.938   2.344  10.638 -0.7374  0.8534 -0.1196
62391SOL    HW195951   8.940   2.416  10.701 -2.3264  0.3500  0.5489
62391SOL    HW295952   9.027   2.308  10.640 -0.2914  1.9432  0.5209
62392SOL     OW95953   6.605   2.330  11.554  0.2332  0.0172  0.2966
62392SOL    HW195954   6.538   2.289  11.500  0.1093 -0.5862  0.8967
62392SOL    HW295955   6.620   2.416  11.513 -1.5864  0.5717  0.7080
62393SOL     OW95956   5.686   5.523   0.731 -0.1678  0.4149 -0.0342
62393SOL    HW195957   5.753   5.582   0.696 -0.4263  1.4833  1.1595
62393SOL    HW295958   5.659   5.565   0.813 -1.0989 -0.8666  0.3397
62394SOL     OW95959  11.696   9.487  11.408  0.3599  0.4899 -0.7234
62394SOL    HW195960  11.707   9.476  11.314 -0.6050 -1.9090 -0.6422
62394SOL    HW295961  11.685   9.398  11.441  0.1581  1.3063  1.6004
62395SOL     OW95962  10.581   6.370  10.044  0.0329  0.0110  0.0549
62395SOL    HW195963  10.573   6.345   9.952 -2.2301  5.0275 -1.5189
62395SOL    HW295964  10.661   6.422  10.048 -0.6995  1.1446  0.4542
62396SOL     OW95965   2.134   6.453  11.736  0.4651  0.0402 -0.2963
62396SOL    HW195966   2.085   6.470  11.656  0.2434  0.6678 -0.0360
62396SOL    HW295967   2.088   6.504  11.803  0.3056 -0.9210  0.3470
62397SOL     OW95968   5.350   8.037   4.545 -0.2684 -0.1615 -0.5929
62397SOL    HW195969   5.315   7.997   4.466  0.1433 -0.5323 -0.5924
62397SOL    HW295970   5.280   8.095   4.576 -0.7089 -0.5691 -0.8218
62398SOL     OW95971   3.159  11.876   4.409 -0.3667 -0.2056  0.1654
62398SOL    HW195972   3.079  11.918   4.377 -2.0427 -3.4270 -0.4048
62398SOL    HW295973   3.139  11.853   4.500  0.1578 -0.4857  0.2114
62399SOL     OW95974   2.109   9.605   1.419 -0.0569 -0.7065  0.4912
62399SOL    HW195975   2.115   9.609   1.324  0.2274 -0.1378  0.5270
62399SOL    HW295976   2.021   9.636   1.439 -0.1061 -0.7976  0.4160
62400SOL     OW95977   3.167   5.647   8.170  0.1792  0.0355 -0.3484
62400SOL    HW195978   3.157   5.718   8.106 -1.6431  1.7891  1.7053
62400SOL    HW295979   3.095   5.587   8.151  0.3561 -0.0815 -0.6598
62401SOL     OW95980   9.111   0.936   5.034 -0.1221 -0.0221 -0.3240
62401SOL    HW195981   9.178   0.995   5.000  1.7389 -0.1471  2.7368
62401SOL    HW295982   9.114   0.860   4.976  1.2983  0.6366 -1.1506
62402SOL     OW95983  10.603   0.001   9.247 -0.3346  0.5805 -0.6667
62402SOL    HW195984  10.667  -0.066   9.224 -0.4843 -0.7170  2.2605
62402SOL    HW295985  10.655   0.077   9.271  0.1077 -0.0096  0.3231
62403SOL     OW95986   3.431   6.801   6.512 -0.0403  0.2248 -0.8253
62403SOL    HW195987   3.449   6.708   6.527  1.3994  0.4223 -1.1096
62403SOL    HW295988   3.491   6.825   6.441  0.0073  1.5019 -0.3749
62404SOL     OW95989   5.657   8.425   5.169 -0.1531  0.2641 -0.2069
62404SOL    HW195990   5.623   8.375   5.095 -1.7628 -0.4689  0.9715
62404SOL    HW295991   5.740   8.383   5.191 -0.6098 -0.7636 -0.3784
62405SOL     OW95992   0.157   0.473  11.972 -0.2111  0.6997  0.0475
62405SOL    HW195993   0.089   0.408  11.990 -0.3457  0.0502 -2.4487
62405SOL    HW295994   0.235   0.440  12.017 -0.7189 -0.2721  0.2401
62406SOL     OW95995   5.404  10.883   8.914  0.2283  0.5699  0.2429
62406SOL    HW195996   5.390  10.917   8.826  0.7113 -0.5782 -0.3060
62406SOL    HW295997   5.319  10.844   8.938  0.7571 -1.3538 -0.7770
62407SOL     OW95998   0.169   5.682  11.641 -0.0465 -0.5814 -0.1148
62407SOL    HW195999   0.142   5.591  11.654  0.6031 -0.9755 -1.3361
62407SOL    HW296000   0.110   5.715  11.573  0.2298 -0.3389 -0.2398
62408SOL     OW96001   2.991  11.273   6.879  0.3198 -0.3189  0.2397
62408SOL    HW196002   2.944  11.299   6.800 -1.0203  0.5464  1.2883
62408SOL    HW296003   2.975  11.178   6.887 -3.7649  0.3020  2.0399
62409SOL     OW96004   9.241   1.149   3.184  0.1964 -0.3038 -0.3542
62409SOL    HW196005   9.180   1.078   3.166  0.3010 -0.3523 -0.5231
62409SOL    HW296006   9.195   1.206   3.245  0.1849 -0.6198 -0.0618
62410SOL     OW96007   1.733   3.465   6.265 -0.3022 -0.4842 -0.4133
62410SOL    HW196008   1.764   3.554   6.250 -1.6579 -0.2704 -2.3998
62410SOL    HW296009   1.705   3.463   6.356 -0.7844  1.3022 -0.4983
62411SOL     OW96010   4.522  11.659   5.098  0.4535 -0.0209  0.1996
62411SOL    HW196011   4.472  11.596   5.149  0.7640 -0.6309 -0.2355
62411SOL    HW296012   4.546  11.612   5.018 -0.2641  1.0073 -0.6520
62412SOL     OW96013  12.036  12.396   3.419  0.5522 -0.1684  0.1186
62412SOL    HW196014  12.032  12.338   3.343  1.2291  0.7481 -0.6322
62412SOL    HW296015  11.958  12.450   3.413 -0.1427 -1.0450  0.8851
62413SOL     OW96016  12.449   2.862   1.547  0.0761 -0.0443 -0.0385
62413SOL    HW196017  12.369   2.809   1.544  0.5464 -0.8051  0.7133
62413SOL    HW296018  12.495   2.840   1.466  0.5796 -1.2842  0.5755
62414SOL     OW96019   6.836   8.960   8.079 -0.1581  0.3196 -0.1041
62414SOL    HW196020   6.817   8.883   8.024  1.1299  0.9333 -1.4812
62414SOL    HW296021   6.862   9.028   8.016 -2.0381  2.1644  1.0171
62415SOL     OW96022   3.211  12.324   2.448  0.1291 -0.1921 -0.1423
62415SOL    HW196023   3.257  12.294   2.370  0.6848 -1.0699  0.5075
62415SOL    HW296024   3.253  12.407   2.470  3.6656 -2.3417  2.1922
62416SOL     OW96025  11.912   5.268   6.149  0.4775 -0.5739 -0.4519
62416SOL    HW196026  11.913   5.264   6.245  0.9927  2.8733 -0.1947
62416SOL    HW296027  11.823   5.242   6.125  0.8181 -3.1698  0.7314
62417SOL     OW96028   4.722  11.507   6.831 -0.6253 -0.2435 -0.6893
62417SOL    HW196029   4.720  11.602   6.843 -2.7166 -0.4567  1.4265
62417SOL    HW296030   4.784  11.476   6.897  0.5612 -0.3660 -1.8116
62418SOL     OW96031   1.680   9.340   1.747 -0.6370 -0.2966  0.4417
62418SOL    HW196032   1.606   9.326   1.807 -1.6715  0.0423 -0.7228
62418SOL    HW296033   1.743   9.272   1.771 -1.3964 -0.7080  1.3491
62419SOL     OW96034   0.351   1.572   1.238  0.4334 -0.0049 -0.8885
62419SOL    HW196035   0.376   1.662   1.219  1.5417 -0.8919 -4.2856
62419SOL    HW296036   0.427   1.535   1.283 -0.5042  0.9625  1.6859
62420SOL     OW96037   0.833   8.414   4.424 -0.8917  0.3584  0.7431
62420SOL    HW196038   0.763   8.440   4.485 -0.4660  0.5363  1.1668
62420SOL    HW296039   0.841   8.488   4.364  1.2349  1.9242  2.7558
62421SOL     OW96040   3.375   2.781   8.424 -0.0285 -0.0342 -0.0761
62421SOL    HW196041   3.280   2.788   8.414  0.1975  0.7549 -2.0544
62421SOL    HW296042   3.387   2.715   8.492 -1.9888 -1.3385 -0.9167
62422SOL     OW96043   5.197  10.411  11.640 -0.6449 -0.0436 -0.2149
62422SOL    HW196044   5.169  10.323  11.615  1.1912 -0.3154 -1.5300
62422SOL    HW296045   5.283  10.398  11.680 -0.7168  1.0964  0.3581
62423SOL     OW96046  11.553   8.483   6.266  0.0783 -0.4214  0.6496
62423SOL    HW196047  11.467   8.515   6.294  0.6587  0.2877  1.7166
62423SOL    HW296048  11.548   8.388   6.277 -0.8155 -0.4724 -0.0488
62424SOL     OW96049   5.230   5.404   9.021  0.0818  0.5919  0.1313
62424SOL    HW196050   5.186   5.486   8.998  1.7440  0.9764 -2.0012
62424SOL    HW296051   5.300   5.431   9.082  1.5765  1.0864 -1.7010
62425SOL     OW96052   6.555   8.786   6.390 -0.2715  0.1163 -0.3640
62425SOL    HW196053   6.506   8.755   6.467  0.7993 -1.9787 -0.4559
62425SOL    HW296054   6.595   8.867   6.418 -1.1826  0.2041  0.7630
62426SOL     OW96055   6.806   0.485   5.229 -0.0297  0.1944 -0.1157
62426SOL    HW196056   6.853   0.566   5.212 -1.2144  0.9930  0.2291
62426SOL    HW296057   6.858   0.441   5.297  0.9078  0.3978 -0.6890
62427SOL     OW96058   9.618  11.526  11.422 -0.1170  0.7848 -0.0249
62427SOL    HW196059   9.566  11.585  11.477 -2.1335 -0.3133 -0.6907
62427SOL    HW296060   9.665  11.471  11.485 -2.1528 -0.2440  0.6596
62428SOL     OW96061   0.936   1.001   3.889 -0.4729  0.2263 -0.1487
62428SOL    HW196062   0.922   1.022   3.796  0.3769 -0.6034 -0.4828
62428SOL    HW296063   0.948   0.906   3.891  0.5438  0.3462  0.6517
62429SOL     OW96064   1.000   1.479   2.909 -0.4258 -0.7749 -0.0623
62429SOL    HW196065   0.933   1.507   2.847 -0.5080 -2.1710 -0.6286
62429SOL    HW296066   0.992   1.541   2.982 -2.2824 -0.8649 -0.1457
62430SOL     OW96067   1.104   8.335  11.878 -0.2012  0.7365  0.1432
62430SOL    HW196068   1.064   8.422  11.869 -1.6572 -0.0132 -0.8718
62430SOL    HW296069   1.116   8.304  11.789  1.7952  0.5038  0.4446
62431SOL     OW96070   5.608   0.476   9.440  0.2289  0.0338  0.0576
62431SOL    HW196071   5.567   0.554   9.402  0.0552 -0.7009 -1.3329
62431SOL    HW296072   5.534   0.422   9.466  0.3079 -0.4862 -0.7541
62432SOL     OW96073   5.658   4.355   4.715  0.0002 -0.0589 -0.2732
62432SOL    HW196074   5.659   4.450   4.726 -0.8085 -0.0291 -0.3757
62432SOL    HW296075   5.741   4.325   4.753  0.4260  0.7178 -0.5710
62433SOL     OW96076   2.099   0.703   6.536 -0.5470 -0.0973  0.1759
62433SOL    HW196077   2.037   0.774   6.550  0.1314  0.9503 -1.7010
62433SOL    HW296078   2.185   0.742   6.551 -0.2451 -1.5933  3.0096
62434SOL     OW96079   5.475   9.668  11.981  0.5333  0.0661 -0.0678
62434SOL    HW196080   5.519   9.730  11.922 -1.1122 -0.2469 -1.7118
62434SOL    HW296081   5.424   9.612  11.922  0.3205 -1.5003  1.5461
62435SOL     OW96082   4.209  10.887  12.084 -0.0151 -0.2777 -0.0349
62435SOL    HW196083   4.216  10.873  12.178  2.6758  0.0247 -0.1059
62435SOL    HW296084   4.239  10.977  12.071  0.1334 -0.4765 -1.2138
62436SOL     OW96085   6.668   0.529   3.945  0.0013  0.6174 -0.1780
62436SOL    HW196086   6.717   0.547   3.865 -1.8926  0.6192 -1.3954
62436SOL    HW296087   6.710   0.452   3.982  0.0665 -0.2270 -1.9237
62437SOL     OW96088   1.526   1.147   6.159 -0.1465  0.0691  0.3269
62437SOL    HW196089   1.436   1.178   6.149 -0.8938 -1.7709  0.8314
62437SOL    HW296090   1.580   1.217   6.123 -1.8302  0.7772 -0.9456
62438SOL     OW96091  11.802   7.571   7.333 -0.1876 -0.5396  0.1188
62438SOL    HW196092  11.787   7.554   7.426 -0.9697  0.7279  0.2568
62438SOL    HW296093  11.871   7.510   7.308  0.7899 -0.1809  1.7867
62439SOL     OW96094   6.482  12.321   9.996  0.2008 -0.2639  0.4602
62439SOL    HW196095   6.553  12.377   9.964 -0.0913  0.3401  0.8285
62439SOL    HW296096   6.410  12.336   9.935  0.0541 -0.0727  0.6763
62440SOL     OW96097   3.325  10.904   4.679  0.1696  0.4201 -0.1308
62440SOL    HW196098   3.407  10.899   4.629 -1.0692  0.5759 -2.3282
62440SOL    HW296099   3.350  10.940   4.764  2.6410 -1.3799 -0.0029
62441SOL     OW96100   5.982   9.939   3.031  0.1652 -0.0568 -0.8012
62441SOL    HW196101   6.074   9.933   3.006 -0.2103  1.0147 -2.5740
62441SOL    HW296102   5.941   9.862   2.992  0.5838 -1.6838  1.6995
62442SOL     OW96103   4.803   3.050   6.385  0.1435  0.5120  0.0686
62442SOL    HW196104   4.783   3.062   6.292 -0.6108 -1.5475 -0.0920
62442SOL    HW296105   4.737   3.103   6.430  0.2808  1.2323 -0.5575
62443SOL     OW96106   0.258   7.321   1.588 -0.1827  0.0531  0.2363
62443SOL    HW196107   0.211   7.296   1.668  0.3451  1.7692  1.1320
62443SOL    HW296108   0.347   7.341   1.618  0.7549 -1.6617 -1.1941
62444SOL     OW96109   5.046   1.871   7.114 -0.1950 -0.1317  0.7002
62444SOL    HW196110   5.055   1.963   7.090 -0.8537  0.0168  1.0007
62444SOL    HW296111   5.012   1.873   7.204 -1.9539 -0.6542  0.0707
62445SOL     OW96112   9.038   3.054  10.089  0.0047 -0.6818 -0.6391
62445SOL    HW196113   9.003   2.965  10.096  1.9243 -1.3941  1.3261
62445SOL    HW296114   9.129   3.046  10.118  0.9535  1.5497 -2.6639
62446SOL     OW96115  11.044   7.258   3.710  0.0615 -0.0376  0.2664
62446SOL    HW196116  11.130   7.284   3.744  0.2788  2.0377 -1.6696
62446SOL    HW296117  11.057   7.168   3.678  1.7649  0.5071 -0.6965
62447SOL     OW96118  11.853   8.925   0.868  0.2153 -0.4742 -0.0888
62447SOL    HW196119  11.930   8.968   0.831 -0.2017 -0.5679 -1.1121
62447SOL    HW296120  11.779   8.973   0.831 -0.2611  0.9800  2.5255
62448SOL     OW96121  10.016   2.251   2.640 -0.1754  0.3827  0.0834
62448SOL    HW196122  10.035   2.170   2.688  0.9290  1.0970  0.9106
62448SOL    HW296123   9.954   2.225   2.572  1.1071 -1.4013 -0.4736
62449SOL     OW96124   4.768   4.013   1.969  0.0850 -0.2517  0.1231
62449SOL    HW196125   4.859   4.032   1.948  0.0649 -0.1117  0.1637
62449SOL    HW296126   4.759   3.919   1.952  0.8824 -0.8032  2.4535
62450SOL     OW96127   1.027   0.470  10.622  0.6728 -0.4245  0.3928
62450SOL    HW196128   1.051   0.436  10.708  4.1022 -1.7345 -0.9166
62450SOL    HW296129   1.078   0.550  10.613  0.5119 -0.4227 -0.5364
62451SOL     OW96130   0.750   6.671   2.030 -0.4654  0.0868 -0.4130
62451SOL    HW196131   0.768   6.763   2.045  1.6267 -0.5718  1.7973
62451SOL    HW296132   0.670   6.653   2.079  0.9053  0.1124  1.9726
62452SOL     OW96133  11.673   5.077   2.897  0.0388 -0.0291 -0.9076
62452SOL    HW196134  11.594   5.058   2.846 -1.1391  3.6769 -0.7911
62452SOL    HW296135  11.711   5.154   2.854  2.6392 -0.6511  0.1038
62453SOL     OW96136   6.616   7.518   9.454 -0.0309  0.4953 -0.3177
62453SOL    HW196137   6.571   7.509   9.370  1.0195  1.2047 -0.9746
62453SOL    HW296138   6.705   7.545   9.432  0.6306 -0.4737  0.9653
62454SOL     OW96139  11.339   6.189   7.671 -0.4922  0.7604 -0.0928
62454SOL    HW196140  11.276   6.260   7.679 -1.1227  0.1020  1.0377
62454SOL    HW296141  11.297   6.125   7.613 -1.8461 -0.6471  2.3172
62455SOL     OW96142   2.363   5.479   2.189 -0.0046 -0.5751 -0.4225
62455SOL    HW196143   2.280   5.436   2.209  0.7364 -1.3249  1.2387
62455SOL    HW296144   2.414   5.412   2.143  0.7674 -1.1870  1.2526
62456SOL     OW96145   8.098   4.565   4.771  0.1289  0.6622  0.0871
62456SOL    HW196146   8.079   4.500   4.839  2.2934  0.1672  0.2920
62456SOL    HW296147   8.105   4.648   4.818 -0.9594  0.7874  0.0621
62457SOL     OW96148   0.225   1.310   0.052 -0.7567  0.1628  0.0282
62457SOL    HW196149   0.303   1.363   0.036  0.1917 -0.7532  1.4440
62457SOL    HW296150   0.186   1.300  -0.035 -0.9373  3.0418 -0.3141
62458SOL     OW96151   6.160   6.137   3.479 -0.1922 -0.3147  0.4775
62458SOL    HW196152   6.070   6.156   3.507 -1.1909 -1.9673 -1.3441
62458SOL    HW296153   6.187   6.215   3.431 -0.7464  0.0854  0.8026
62459SOL     OW96154   8.764   5.437  11.902  0.6959  0.3414 -0.5944
62459SOL    HW196155   8.693   5.499  11.882 -0.4753 -0.6984  0.1763
62459SOL    HW296156   8.812   5.428  11.819 -0.6309  0.3791 -1.3943
62460SOL     OW96157   7.923  11.259   5.834 -0.0687 -0.3829  0.2817
62460SOL    HW196158   7.998  11.228   5.784  0.2779  0.4108  0.2887
62460SOL    HW296159   7.848  11.210   5.800  0.2076 -0.0698 -0.8006
62461SOL     OW96160   2.167   9.390   8.706 -0.2255 -0.3005 -0.1900
62461SOL    HW196161   2.235   9.457   8.703 -0.0166 -0.5342 -0.9241
62461SOL    HW296162   2.191   9.335   8.781  0.6946 -0.6854 -0.7521
62462SOL     OW96163  10.892  12.136  10.204 -0.3501  0.4608  0.3368
62462SOL    HW196164  10.891  12.148  10.299 -1.2483 -0.4575  0.4641
62462SOL    HW296165  10.934  12.215  10.170  0.9509  0.3326  1.5556
62463SOL     OW96166   5.936   1.308   0.135 -0.6949 -0.4897  0.5022
62463SOL    HW196167   5.977   1.392   0.159 -0.2631 -0.3221 -0.7561
62463SOL    HW296168   6.006   1.259   0.092 -1.0943 -1.3064  0.7723
62464SOL     OW96169   8.027  11.677   2.935 -0.3330  0.6222  0.5882
62464SOL    HW196170   7.963  11.629   2.987  0.1550 -0.2362  0.4253
62464SOL    HW296171   8.076  11.729   2.998  0.5992 -0.8037  1.1036
62465SOL     OW96172   6.999   7.979   8.027  0.6629 -0.3404 -0.3890
62465SOL    HW196173   6.914   7.978   7.983 -0.4315 -2.5366  1.5665
62465SOL    HW296174   7.031   8.069   8.014 -1.3070  0.1790 -2.2970
62466SOL     OW96175   4.296   0.085   7.511 -0.5602  0.1886  0.1954
62466SOL    HW196176   4.253   0.030   7.576  0.3318 -2.1637 -1.0592
62466SOL    HW296177   4.353   0.143   7.561 -0.8603 -0.6558  1.5471
62467SOL     OW96178   3.332  12.156   0.352 -0.1694 -0.4242  0.7233
62467SOL    HW196179   3.382  12.142   0.272  0.4583  0.0172  1.0339
62467SOL    HW296180   3.357  12.243   0.381 -0.1846 -0.6926  1.5552
62468SOL     OW96181   3.379   1.034   2.775  0.2656  0.0511 -0.3427
62468SOL    HW196182   3.414   1.052   2.688  0.8948 -0.3161 -0.1736
62468SOL    HW296183   3.428   0.958   2.806 -1.3718 -1.1066 -0.4826
62469SOL     OW96184   6.981   8.813  11.329 -0.8139 -0.4115  0.2706
62469SOL    HW196185   7.041   8.822  11.255 -0.7285 -0.3654  0.3447
62469SOL    HW296186   6.992   8.894  11.378 -2.1008  0.2984 -0.5581
62470SOL     OW96187   6.103   0.675   4.542  0.0847  0.5434 -0.4312
62470SOL    HW196188   6.181   0.649   4.492  1.0305 -0.1622  1.3339
62470SOL    HW296189   6.090   0.604   4.605 -1.6716  0.9280 -0.3146
62471SOL     OW96190   5.741   2.678   3.689 -0.5299 -0.4540 -0.1900
62471SOL    HW196191   5.824   2.716   3.660 -0.5320 -0.5744 -0.3593
62471SOL    HW296192   5.733   2.703   3.781 -0.6842  0.2223 -0.3838
62472SOL     OW96193  12.470   9.888   5.559 -0.0772  0.1398  0.1534
62472SOL    HW196194  12.505   9.913   5.473  0.6438  1.6138  0.8343
62472SOL    HW296195  12.485   9.794   5.565 -0.8561 -0.1459 -1.6400
62473SOL     OW96196   4.363   8.513   2.188  0.0664  0.1457 -0.2088
62473SOL    HW196197   4.280   8.545   2.225  1.6505  2.2316  1.8392
62473SOL    HW296198   4.339   8.481   2.101 -2.8288  0.9783  0.1548
62474SOL     OW96199   5.005   8.389   1.003  0.2892  0.1685  0.0196
62474SOL    HW196200   5.024   8.333   1.078 -0.6516  0.9306  0.8418
62474SOL    HW296201   4.962   8.331   0.940 -3.0040  0.3619  1.8483
62475SOL     OW96202  12.392   4.936   4.753  0.2107 -0.5174  0.2468
62475SOL    HW196203  12.429   4.981   4.677 -0.0434 -0.7090  0.0025
62475SOL    HW296204  12.464   4.927   4.814 -0.1766  2.0144  1.1763
62476SOL     OW96205   0.576  11.433   2.916 -0.0229  0.5306  0.2215
62476SOL    HW196206   0.668  11.428   2.941  0.4641  0.2145 -1.5196
62476SOL    HW296207   0.544  11.343   2.921  0.6276  0.1110 -2.1112
62477SOL     OW96208   9.939   5.486   7.733 -0.9385 -0.4651 -0.0676
62477SOL    HW196209  10.030   5.467   7.711 -1.7468 -0.2940 -4.4567
62477SOL    HW296210   9.899   5.400   7.749 -0.7482 -0.9335 -1.9081
62478SOL     OW96211   2.656   9.057   2.226 -0.0259  0.2799 -0.0601
62478SOL    HW196212   2.667   9.119   2.153 -0.4410  2.0484  1.3196
62478SOL    HW296213   2.563   9.061   2.246 -0.1278 -1.1187 -0.1867
62479SOL     OW96214   9.662   1.024   3.013  0.1138  0.0150  0.6818
62479SOL    HW196215   9.621   0.972   3.082  3.4953 -1.5943  1.7204
62479SOL    HW296216   9.705   1.095   3.061  1.2874 -0.2808  0.0941
62480SOL     OW96217   6.687   8.657   0.465 -0.0147  0.2763 -0.2613
62480SOL    HW196218   6.767   8.710   0.468  0.7693 -0.8444 -0.7653
62480SOL    HW296219   6.648   8.668   0.551  1.9013 -0.9826  0.8415
62481SOL     OW96220   6.382   4.067   2.712 -0.1751  0.2572  0.6801
62481SOL    HW196221   6.428   4.147   2.739 -0.9408  0.6653  0.8108
62481SOL    HW296222   6.320   4.050   2.783 -0.3653 -0.1734  0.4182
62482SOL     OW96223   4.922  12.216  11.711 -0.1430  0.2339  0.1825
62482SOL    HW196224   4.847  12.161  11.691 -0.5362  0.1419  1.7259
62482SOL    HW296225   4.909  12.296  11.659 -1.7933  0.5799  1.0655
62483SOL     OW96226   3.074   0.023   7.218 -0.4458  0.0468  0.0182
62483SOL    HW196227   3.064  -0.029   7.298  0.6297 -1.0583 -0.5302
62483SOL    HW296228   3.055   0.113   7.245  0.4859 -0.2066  1.6560
62484SOL     OW96229   4.737  12.464  10.468 -0.3226  0.0274 -0.3133
62484SOL    HW196230   4.807  12.527  10.481 -0.1722 -0.2959  0.4968
62484SOL    HW296231   4.667  12.514  10.426 -0.4015  0.8644  0.7719
62485SOL     OW96232  12.307  10.371  12.045 -0.4105 -0.7480  0.1606
62485SOL    HW196233  12.379  10.307  12.044 -0.7032 -1.0853  0.2519
62485SOL    HW296234  12.308  10.410  11.957 -1.4003 -2.2211 -0.5556
62486SOL     OW96235   5.946   4.261  10.813 -0.2444 -0.7629  0.3788
62486SOL    HW196236   5.854   4.288  10.802 -0.0489  0.0986  0.7210
62486SOL    HW296237   5.955   4.244  10.907 -0.4707 -2.5133  0.1122
62487SOL     OW96238  10.829   0.458   8.674 -0.8257 -0.4484  0.2300
62487SOL    HW196239  10.792   0.466   8.586  0.3353 -2.6764 -0.5574
62487SOL    HW296240  10.756   0.473   8.733 -2.2946 -1.5660 -1.2003
62488SOL     OW96241   8.718   5.622   5.000  0.1128 -0.0972 -0.0029
62488SOL    HW196242   8.752   5.698   4.953 -0.0657 -0.4495 -0.7031
62488SOL    HW296243   8.791   5.595   5.057  0.5487 -0.0460 -0.5317
62489SOL     OW96244  10.868   1.716   7.655  0.0089  0.0511 -0.3355
62489SOL    HW196245  10.931   1.756   7.595  0.6903 -0.5471 -0.0300
62489SOL    HW296246  10.828   1.791   7.700 -0.3653  0.4928 -1.3783
62490SOL     OW96247   1.473   0.808   4.577  0.3988  0.6334 -0.0850
62490SOL    HW196248   1.517   0.800   4.662  1.9347 -0.3019 -0.9183
62490SOL    HW296249   1.388   0.846   4.598  0.3081 -0.5417  2.0125
62491SOL     OW96250   6.291   2.326   4.574  0.1197 -0.5447 -0.2890
62491SOL    HW196251   6.209   2.298   4.532  0.1026 -0.5436 -0.2566
62491SOL    HW296252   6.360   2.298   4.513  0.1220 -0.9495 -0.1010
62492SOL     OW96253   0.105   4.868  12.257  0.4170  0.0153 -0.6038
62492SOL    HW196254   0.055   4.859  12.338  1.9474 -0.9171  0.2819
62492SOL    HW296255   0.189   4.905  12.285  1.0253 -0.4628 -1.7438
62493SOL     OW96256   2.754   9.872   8.796  0.3103  0.0927  0.1768
62493SOL    HW196257   2.703   9.924   8.734  0.5432  1.5325  1.1293
62493SOL    HW296258   2.717   9.893   8.881 -0.1159 -1.9890  0.5619
62494SOL     OW96259   2.373   9.479   9.602  0.1816  0.4351  0.7748
62494SOL    HW196260   2.412   9.417   9.540 -0.3113  0.7446  0.1395
62494SOL    HW296261   2.422   9.560   9.590  1.2062  0.0354  2.0129
62495SOL     OW96262   4.242   6.374   5.756 -0.1046  0.5430 -0.3903
62495SOL    HW196263   4.280   6.461   5.743 -0.3098  0.7111  0.1395
62495SOL    HW296264   4.271   6.325   5.679 -0.7834  1.3487 -1.1795
62496SOL     OW96265   7.278   9.339   2.957 -0.8840 -0.0443  0.1295
62496SOL    HW196266   7.249   9.248   2.946 -3.8863  0.8839 -0.4472
62496SOL    HW296267   7.373   9.332   2.965 -0.9735 -3.2093 -0.0671
62497SOL     OW96268   3.298  12.256   6.881  0.2555  0.0689 -0.7990
62497SOL    HW196269   3.321  12.255   6.973  1.0269  0.6812 -0.9713
62497SOL    HW296270   3.202  12.258   6.879  0.2466  0.7029 -0.0022
62498SOL     OW96271   0.283   3.590  12.612 -0.0721 -0.2009 -0.1143
62498SOL    HW196272   0.202   3.560  12.572  0.4813  0.1964 -1.6137
62498SOL    HW296273   0.343   3.515  12.604 -0.2567 -0.4819  0.9562
62499SOL     OW96274  11.162   5.296   9.230  0.0340 -0.2224  0.0903
62499SOL    HW196275  11.107   5.289   9.152  1.9563 -1.4792 -1.2457
62499SOL    HW296276  11.219   5.371   9.212  0.4201 -0.4608  0.3140
62500SOL     OW96277   1.926  12.065   2.438  0.0680  0.5461  0.2957
62500SOL    HW196278   1.897  12.055   2.528 -0.4843  0.9088  0.1670
62500SOL    HW296279   1.932  12.159   2.424 -2.2810  0.6259 -0.7527
62501SOL     OW96280   5.441   2.216   9.867 -0.3856 -0.4970 -0.2839
62501SOL    HW196281   5.414   2.132   9.903  0.3448 -0.1173  1.2191
62501SOL    HW296282   5.475   2.265   9.942 -0.1819  0.8966 -1.2396
62502SOL     OW96283  12.110   0.772   5.467  0.0900  0.2755 -0.4743
62502SOL    HW196284  12.052   0.744   5.538  0.3288  1.4998  0.2415
62502SOL    HW296285  12.198   0.752   5.498  0.1038 -1.3082 -1.4364
62503SOL     OW96286   4.078   9.639   5.183  0.2717 -0.1572 -0.3656
62503SOL    HW196287   4.156   9.688   5.159  1.5840 -1.7921  0.3547
62503SOL    HW296288   4.100   9.547   5.166 -1.6893 -0.6343 -0.6303
62504SOL     OW96289   0.291   7.266   1.877  0.0729  0.7362  0.6237
62504SOL    HW196290   0.261   7.177   1.863 -1.5394  1.0957  1.5738
62504SOL    HW296291   0.371   7.273   1.824  0.6737 -1.4772  1.1284
62505SOL     OW96292   4.440   8.596  11.749  0.0688 -0.3174  0.0061
62505SOL    HW196293   4.493   8.516  11.745 -1.1228 -1.2031  1.0166
62505SOL    HW296294   4.429   8.622  11.658  0.7239 -1.1443 -0.3257
62506SOL     OW96295   1.044   8.650   8.019  0.1484  0.1603 -0.0353
62506SOL    HW196296   1.022   8.557   8.012  0.8399  0.0471 -0.7367
62506SOL    HW296297   1.050   8.680   7.928 -0.2125  0.9296  0.1883
62507SOL     OW96298   6.361   2.173   6.603  0.1782  0.3983 -0.7858
62507SOL    HW196299   6.400   2.095   6.643 -1.3927 -1.1061 -2.0211
62507SOL    HW296300   6.270   2.172   6.633 -0.1335  1.1392 -1.6646
62508SOL     OW96301   3.278   3.396   7.420  0.6037 -0.0748  0.3106
62508SOL    HW196302   3.280   3.324   7.483 -1.2537  0.6466  1.2718
62508SOL    HW296303   3.223   3.363   7.349  1.2451 -0.2495 -0.1089
62509SOL     OW96304  12.188   1.843  12.284 -0.3020  0.6306  0.0103
62509SOL    HW196305  12.131   1.919  12.285 -0.0911  0.7974  1.8412
62509SOL    HW296306  12.202   1.821  12.376  1.4004 -0.2953 -0.4147
62510SOL     OW96307  11.641   5.949   1.768 -0.2313 -0.2388  0.3946
62510SOL    HW196308  11.592   5.877   1.807 -2.2702  1.5007  1.2048
62510SOL    HW296309  11.581   6.024   1.771  1.6179  1.3903 -0.8631
62511SOL     OW96310  12.514   5.298   5.742  0.0642  0.0341 -0.2802
62511SOL    HW196311  12.464   5.331   5.816  1.2672 -1.0179  1.0589
62511SOL    HW296312  12.555   5.376   5.705  0.3549  0.4559  0.8820
62512SOL     OW96313   3.639   0.019   2.327  0.3415 -0.1122 -0.1746
62512SOL    HW196314   3.677  -0.008   2.411  0.7233  1.7049  0.2741
62512SOL    HW296315   3.705  -0.008   2.262 -0.3115 -2.2612 -0.0443
62513SOL     OW96316   3.515  12.021   5.162  0.4486  0.3260 -0.3875
62513SOL    HW196317   3.456  12.013   5.087 -0.7350 -0.8782  0.6316
62513SOL    HW296318   3.460  12.004   5.238  1.5152  2.0191  0.8313
62514SOL     OW96319   6.503   7.107   4.774 -0.1910  0.5037  0.4607
62514SOL    HW196320   6.449   7.175   4.734 -1.3640 -0.2808  0.6714
62514SOL    HW296321   6.509   7.038   4.708  1.2170  0.8982  0.1444
62515SOL     OW96322   0.683   9.248   6.108  0.0349  0.4923  0.0415
62515SOL    HW196323   0.647   9.259   6.195  1.8231  3.3590  0.5375
62515SOL    HW296324   0.778   9.245   6.121  0.3068 -0.2586 -1.7201
62516SOL     OW96325   1.714   7.884   4.477  0.4878 -0.1639  0.1009
62516SOL    HW196326   1.774   7.928   4.537  0.5219  0.8338 -0.6329
62516SOL    HW296327   1.656   7.953   4.446  0.2706 -0.7134 -0.7616
62517SOL     OW96328   0.401   1.237  10.934 -0.3754 -0.1794  0.2309
62517SOL    HW196329   0.432   1.298  11.001  0.2039  1.0281 -1.0854
62517SOL    HW296330   0.467   1.168  10.933  0.0587  0.2241  0.3505
62518SOL     OW96331   2.678  11.892   3.481 -0.5036 -0.3632  1.2239
62518SOL    HW196332   2.727  11.859   3.557  3.3004  0.4641 -0.6098
62518SOL    HW296333   2.686  11.987   3.487 -0.9887 -0.2548  0.2488
62519SOL     OW96334   6.772   7.562  11.494  0.4117  0.1793  0.3205
62519SOL    HW196335   6.823   7.537  11.418  0.5010  1.0194  0.0892
62519SOL    HW296336   6.820   7.636  11.532  0.8087 -0.7428  1.6749
62520SOL     OW96337  11.925   7.461  10.829  0.2155  0.1548  0.4104
62520SOL    HW196338  11.966   7.537  10.869 -1.3166  1.5926 -0.6434
62520SOL    HW296339  11.854   7.437  10.890 -0.2090  0.4826  0.0536
62521SOL     OW96340  12.053   5.331   9.679 -0.4741 -0.7660 -0.3036
62521SOL    HW196341  12.136   5.343   9.632  0.7300  3.1056  2.2645
62521SOL    HW296342  11.990   5.385   9.631  0.5650  2.5421  1.7084
62522SOL     OW96343   5.746   6.145   1.373  0.5651 -0.3447 -0.0801
62522SOL    HW196344   5.830   6.132   1.330  0.9885 -0.6912  0.8234
62522SOL    HW296345   5.710   6.057   1.383  0.2661 -0.2295 -0.1313
62523SOL     OW96346   0.612   0.419  11.110 -0.9084 -0.9025  0.0887
62523SOL    HW196347   0.556   0.497  11.119  0.7490  0.2897  0.6732
62523SOL    HW296348   0.568   0.352  11.161 -1.7675  0.0178  0.6104
62524SOL     OW96349   8.822   7.617   1.999  0.0544  0.0075  0.1258
62524SOL    HW196350   8.833   7.536   2.049  0.0211 -0.8797 -1.2284
62524SOL    HW296351   8.784   7.679   2.060 -1.9575 -1.6555  0.6600
62525SOL     OW96352   0.424   1.240   2.391 -0.3166  0.2947 -0.3551
62525SOL    HW196353   0.426   1.146   2.409  2.9684  0.1152 -1.0086
62525SOL    HW296354   0.394   1.248   2.301  1.3678 -0.3461 -1.0015
62526SOL     OW96355  11.577   5.899   3.559  0.2617  0.3412  0.1759
62526SOL    HW196356  11.541   5.849   3.485 -0.9859  2.0380 -0.4064
62526SOL    HW296357  11.561   5.843   3.635  0.9806 -1.1559 -0.7107
62527SOL     OW96358  10.966   2.665   1.134 -0.4126  0.1882 -0.0142
62527SOL    HW196359  10.916   2.688   1.212 -0.7047  0.4187 -0.2687
62527SOL    HW296360  10.906   2.613   1.081 -0.1285 -0.1916  0.0331
62528SOL     OW96361  12.137  12.103   5.748 -0.2294  0.1929 -0.3613
62528SOL    HW196362  12.094  12.069   5.670 -0.0158 -1.4236  0.1908
62528SOL    HW296363  12.067  12.116   5.811 -0.3625  1.1986 -0.7043
62529SOL     OW96364   5.093   6.962   8.637 -0.1666  0.2108  0.5787
62529SOL    HW196365   5.154   6.969   8.711  0.3529 -0.5837  0.2439
62529SOL    HW296366   5.050   7.047   8.634 -0.0760  0.3220  1.6884
62530SOL     OW96367   1.837   7.347   4.571 -0.2153  0.0831 -0.2008
62530SOL    HW196368   1.826   7.253   4.556 -2.2645  0.2848 -0.2611
62530SOL    HW296369   1.890   7.353   4.650 -0.9048 -1.1477  0.3855
62531SOL     OW96370   4.710   9.555   9.325  0.0877  0.8438  0.2556
62531SOL    HW196371   4.693   9.462   9.342  0.4759  0.7762  0.2823
62531SOL    HW296372   4.635   9.600   9.363  0.6206  0.6524  1.5747
62532SOL     OW96373   0.264  12.237   4.494 -0.0335 -0.6175  0.1216
62532SOL    HW196374   0.174  12.204   4.503 -2.2513  4.6669  0.7872
62532SOL    HW296375   0.274  12.252   4.400 -0.1326 -0.4980  0.1302
62533SOL     OW96376   9.201   1.808   8.050  0.1917 -0.0982  0.0637
62533SOL    HW196377   9.153   1.811   8.133  0.2844  1.3044  0.0936
62533SOL    HW296378   9.150   1.863   7.990  0.0606 -1.1931 -0.8629
62534SOL     OW96379  11.213   8.427   1.420 -0.2729  0.0422 -0.3652
62534SOL    HW196380  11.216   8.422   1.515  2.2300 -0.6469 -0.4244
62534SOL    HW296381  11.188   8.518   1.401  0.9623  0.6971  0.9725
62535SOL     OW96382   0.730  11.058  11.558  0.1190  0.7293 -0.2151
62535SOL    HW196383   0.791  10.997  11.517 -1.3315 -0.3545 -0.8295
62535SOL    HW296384   0.785  11.110  11.618  1.7165  0.1777 -1.1429
62536SOL     OW96385   7.045   6.841   3.754 -0.2822 -0.9938  0.5645
62536SOL    HW196386   7.012   6.914   3.701  0.4741 -1.8940 -1.2423
62536SOL    HW296387   7.073   6.881   3.836  1.0067  0.9328 -0.7417
62537SOL     OW96388  10.664  11.370   1.462 -1.0932 -0.5307  0.2585
62537SOL    HW196389  10.575  11.403   1.477 -1.7691 -2.5718  1.1688
62537SOL    HW296390  10.655  11.309   1.389 -0.3942 -0.5596  0.1907
62538SOL     OW96391   9.390   7.564  11.830  0.4352  0.0733  0.3524
62538SOL    HW196392   9.416   7.505  11.900  0.7822  0.3841  0.4910
62538SOL    HW296393   9.307   7.530  11.798 -0.2442  0.5089  1.6074
62539SOL     OW96394   1.204   3.335   9.691 -0.1760  0.1135 -0.1736
62539SOL    HW196395   1.124   3.316   9.740  0.2615 -1.8159 -0.1239
62539SOL    HW296396   1.275   3.314   9.751  0.4050  1.7607 -0.2332
62540SOL     OW96397   2.252   3.642  10.884 -0.9478  0.4971 -0.2430
62540SOL    HW196398   2.305   3.639  10.805  0.0467  1.8480  0.3311
62540SOL    HW296399   2.172   3.687  10.858 -0.9497  0.2686 -0.6392
62541SOL     OW96400   0.824  12.573   8.723 -0.0015  0.4994  0.4258
62541SOL    HW196401   0.902  12.517   8.717 -1.5793 -1.6541 -1.7718
62541SOL    HW296402   0.827  12.626   8.643 -1.1436 -0.1377 -0.0546
62542SOL     OW96403   9.307   0.639   8.212  0.2091  0.2659  0.2054
62542SOL    HW196404   9.300   0.568   8.276  0.4681 -1.0000 -1.1048
62542SOL    HW296405   9.231   0.628   8.155  0.7065  0.4909 -0.5237
62543SOL     OW96406   1.354   7.958   5.215 -1.0238 -0.1051  0.2639
62543SOL    HW196407   1.373   8.048   5.189  0.1326 -0.7011 -1.0824
62543SOL    HW296408   1.331   7.913   5.133  0.0711 -1.4072  0.6212
62544SOL     OW96409  10.675   3.769   2.444  0.4684 -0.6718  0.1698
62544SOL    HW196410  10.735   3.777   2.370 -0.5817  0.7714 -0.5957
62544SOL    HW296411  10.721   3.810   2.517  0.7586 -0.3224 -0.2019
62545SOL     OW96412  10.447   1.755  11.173 -0.5243  0.0738  0.0824
62545SOL    HW196413  10.403   1.835  11.144  1.5416  1.2768  0.0893
62545SOL    HW296414  10.504   1.784  11.245  0.4992 -1.3425 -0.1169
62546SOL     OW96415   5.833   6.838   6.901  0.0751  0.1521  0.3736
62546SOL    HW196416   5.896   6.787   6.951 -1.3733 -2.0765  0.0632
62546SOL    HW296417   5.808   6.910   6.959  1.9559  0.3963  0.9410
62547SOL     OW96418   9.563   6.344  11.502 -0.1510 -0.8447  0.0698
62547SOL    HW196419   9.510   6.422  11.483 -0.7495 -1.0954  0.6752
62547SOL    HW296420   9.641   6.378  11.545  0.1630 -0.4758 -0.7687
62548SOL     OW96421   6.168  12.595   3.645 -0.5291  0.3094  0.5003
62548SOL    HW196422   6.078  12.602   3.677 -0.2721  1.1581  1.0505
62548SOL    HW296423   6.216  12.663   3.692  0.3496  0.0356  0.0177
62549SOL     OW96424   5.888   8.166  10.509 -0.2968  0.6201 -0.3460
62549SOL    HW196425   5.970   8.122  10.530 -0.8134 -1.2474 -1.9276
62549SOL    HW296426   5.910   8.225  10.437 -0.5283 -0.8378 -1.6628
62550SOL     OW96427   7.905  10.356   3.219  0.2661  0.2162  0.1941
62550SOL    HW196428   7.925  10.272   3.259  1.3152  1.6043  2.7802
62550SOL    HW296429   7.950  10.353   3.134 -1.5988 -2.6206 -0.8233
62551SOL     OW96430   3.223   0.248   0.244 -0.1157 -0.1144 -0.4903
62551SOL    HW196431   3.184   0.160   0.244  2.8080 -1.5894 -2.3290
62551SOL    HW296432   3.299   0.240   0.302  1.0066  0.7164 -1.7809
62552SOL     OW96433   2.237   1.436  11.054 -0.5925  0.4998 -0.1159
62552SOL    HW196434   2.198   1.520  11.075  0.0950  1.1343 -1.2758
62552SOL    HW296435   2.193   1.407  10.974  0.3175  0.5737 -0.6660
62553SOL     OW96436   7.623   6.760   5.725 -0.1230  0.2421  0.6544
62553SOL    HW196437   7.712   6.757   5.761 -0.3663 -0.3477  1.2163
62553SOL    HW296438   7.633   6.803   5.640  1.2060 -2.5845 -0.7627
62554SOL     OW96439  10.976   3.105  12.152 -0.1553  0.0340 -0.4442
62554SOL    HW196440  10.999   3.177  12.093  0.4116 -1.0646 -1.6218
62554SOL    HW296441  10.910   3.055  12.105  0.3427 -0.8976 -0.1700
62555SOL     OW96442   4.619  11.102  10.365  0.2597  0.2569  0.2335
62555SOL    HW196443   4.596  11.050  10.442 -1.0812 -3.1908 -2.2078
62555SOL    HW296444   4.536  11.137  10.333  0.2808 -0.9111 -1.2242
62556SOL     OW96445   9.647   3.122   2.724  0.4703  0.6921  0.1787
62556SOL    HW196446   9.665   3.041   2.676  1.6733  0.7519  0.5048
62556SOL    HW296447   9.622   3.184   2.656  1.2955  0.5343 -0.2893
62557SOL     OW96448   8.867   1.263   4.539  0.5005 -0.1368 -0.1422
62557SOL    HW196449   8.892   1.184   4.491 -0.9235 -0.6669 -0.0822
62557SOL    HW296450   8.792   1.235   4.592 -0.3624  1.3698 -0.5203
62558SOL     OW96451   1.072   0.167   8.928 -0.6066 -0.3030  0.3777
62558SOL    HW196452   1.106   0.235   8.987  1.0782  0.6955 -1.6006
62558SOL    HW296453   0.989   0.202   8.897  0.2971  0.9945 -0.7144
62559SOL     OW96454   3.280   6.644   4.183 -0.1799 -0.2244 -0.2592
62559SOL    HW196455   3.339   6.629   4.109  1.0028  1.9732  0.1223
62559SOL    HW296456   3.320   6.596   4.255  1.8846  2.0619  0.2630
62560SOL     OW96457  12.607  11.748   6.772 -0.2240  0.3357  0.0360
62560SOL    HW196458  12.568  11.745   6.859 -2.0336  0.2926 -0.7209
62560SOL    HW296459  12.701  11.758   6.787 -0.6516  2.0476  1.9564
62561SOL     OW96460   2.207   0.149   1.662  0.1887  0.1479  0.0977
62561SOL    HW196461   2.118   0.125   1.684  0.5821 -0.7047  0.8346
62561SOL    HW296462   2.241   0.076   1.611  0.7793 -0.0085  0.6926
62562SOL     OW96463  11.903   9.549   7.080 -0.2515  0.8772  0.7930
62562SOL    HW196464  11.926   9.488   7.150  0.9730 -0.5437 -0.7801
62562SOL    HW296465  11.856   9.619   7.125 -0.4826 -0.5118  2.8698
62563SOL     OW96466  10.840   4.111   6.768  0.6011  0.2263 -0.4677
62563SOL    HW196467  10.870   4.044   6.705  0.4245 -0.2716 -0.0317
62563SOL    HW296468  10.850   4.069   6.853 -1.0989  0.1231 -0.2808
62564SOL     OW96469   5.906   9.859  11.415  0.7665 -0.2355  0.1045
62564SOL    HW196470   6.001   9.847  11.418  0.6638 -1.3714 -0.4977
62564SOL    HW296471   5.871   9.772  11.396 -0.2442  0.6077 -2.3649
62565SOL     OW96472   7.559   1.357   7.211 -0.2016  0.3555  0.2010
62565SOL    HW196473   7.644   1.401   7.208  0.5081 -1.0348 -1.9520
62565SOL    HW296474   7.503   1.410   7.155  1.1716 -2.2119 -4.0399
62566SOL     OW96475   3.425   9.303   9.241  0.1209 -0.2171 -0.3608
62566SOL    HW196476   3.466   9.220   9.216  0.7864 -0.2417  0.7340
62566SOL    HW296477   3.376   9.283   9.320 -0.0278  0.3526 -0.3015
62567SOL     OW96478  10.117   7.969   0.664 -0.1838  0.2713  0.1131
62567SOL    HW196479  10.150   7.977   0.575 -0.6817  0.9556 -0.0169
62567SOL    HW296480  10.174   8.027   0.716 -0.3403  0.4215  0.1171
62568SOL     OW96481   1.777   7.075   4.546  0.3831 -0.3200  0.1992
62568SOL    HW196482   1.743   6.986   4.557  0.7712 -0.3191  1.7667
62568SOL    HW296483   1.871   7.063   4.534  0.1692 -0.2086 -1.8014
62569SOL     OW96484  10.119   2.945   6.958 -0.6760  0.1808  0.4120
62569SOL    HW196485  10.136   3.023   7.012  1.2417  0.3988 -0.4292
62569SOL    HW296486  10.113   2.874   7.022 -0.1664  0.6887  1.0497
62570SOL     OW96487   7.097  11.432   2.148  0.5817 -0.8039  0.1940
62570SOL    HW196488   7.161  11.360   2.150  0.2496 -1.1152 -0.1440
62570SOL    HW296489   7.086  11.456   2.240  2.1519  0.1391  0.1838
62571SOL     OW96490   2.280   5.207   9.385  0.3606  0.4656  0.0437
62571SOL    HW196491   2.354   5.180   9.438  1.5190  1.5641 -0.9683
62571SOL    HW296492   2.233   5.125   9.366  1.1255 -0.1991  0.9423
62572SOL     OW96493   6.316   5.965   3.677 -0.2112  0.2800  0.4850
62572SOL    HW196494   6.345   6.040   3.624  0.1619 -1.3653 -1.7682
62572SOL    HW296495   6.384   5.955   3.743  0.1980  1.3668  0.2442
62573SOL     OW96496  11.958   6.074   1.315 -0.2026 -0.0131 -0.0533
62573SOL    HW196497  11.896   6.012   1.276  0.1741 -1.5071  1.5696
62573SOL    HW296498  11.903   6.136   1.362 -0.5255 -0.1951 -0.1836
62574SOL     OW96499  10.061   9.240   5.985 -0.5925 -0.9339 -0.8504
62574SOL    HW196500  10.105   9.308   6.036 -0.4199 -1.5441 -0.1632
62574SOL    HW296501  10.087   9.158   6.028 -0.0469 -1.5028 -2.2139
62575SOL     OW96502  10.701   5.835  11.710 -0.0927  0.2389 -0.1314
62575SOL    HW196503  10.689   5.828  11.615 -0.9477 -1.9693  0.1028
62575SOL    HW296504  10.623   5.795  11.748  0.1003  1.3262  1.5440
62576SOL     OW96505  11.878   2.017   8.468 -0.1182  0.5824 -0.2527
62576SOL    HW196506  11.793   1.973   8.480 -0.4372  1.3359  0.3487
62576SOL    HW296507  11.941   1.946   8.462 -0.9660 -0.0848 -2.4931
62577SOL     OW96508   5.967   4.982  12.575  0.2894  0.4636 -0.2200
62577SOL    HW196509   5.997   4.952  12.490 -1.1798  0.3326 -0.7231
62577SOL    HW296510   6.023   4.937  12.638  0.4131 -0.6112 -1.0706
62578SOL     OW96511   0.945  10.248   8.379 -0.1788 -0.1425  0.3160
62578SOL    HW196512   1.011  10.295   8.328  1.3257 -2.0990  0.3567
62578SOL    HW296513   0.914  10.178   8.321 -1.8685  0.4035  0.4932
62579SOL     OW96514   5.750   3.139   2.331  0.3046  0.0950 -0.6047
62579SOL    HW196515   5.835   3.105   2.359  1.5429  0.9611 -3.0057
62579SOL    HW296516   5.723   3.081   2.259 -1.3589 -0.3834  0.3374
62580SOL     OW96517   5.461   8.604   5.419 -0.0821  0.2671  0.1562
62580SOL    HW196518   5.507   8.635   5.497  0.3674 -2.1282  0.9268
62580SOL    HW296519   5.518   8.630   5.346  1.0779 -0.1650  0.8845
62581SOL     OW96520   7.283  11.477   5.567  0.2060 -0.1883 -0.5163
62581SOL    HW196521   7.374  11.492   5.593  0.2848  1.3058 -1.5833
62581SOL    HW296522   7.275  11.520   5.482 -0.4868 -3.5297 -2.2975
62582SOL     OW96523   3.400   8.657  10.394 -0.4604 -0.3249  0.3001
62582SOL    HW196524   3.315   8.697  10.375 -0.1717 -0.0196 -0.3691
62582SOL    HW296525   3.436   8.633  10.308  0.2453 -0.2030  0.5501
62583SOL     OW96526   4.126   8.358   4.814 -0.2901  0.3129 -0.3506
62583SOL    HW196527   4.192   8.345   4.882 -1.4859 -2.0665  0.4637
62583SOL    HW296528   4.079   8.437   4.841 -1.2035 -0.9597  2.0687
62584SOL     OW96529  11.442   1.515  11.769 -0.2914  0.2303 -0.0462
62584SOL    HW196530  11.356   1.506  11.728 -0.1141 -0.9138 -0.2105
62584SOL    HW296531  11.476   1.425  11.774  0.9766  0.6779 -0.1729
62585SOL     OW96532   0.649   6.318   2.272  0.4971 -0.0924  0.2176
62585SOL    HW196533   0.740   6.298   2.251 -0.2652 -0.4921 -3.4431
62585SOL    HW296534   0.641   6.413   2.258  0.3120 -0.0799  0.3967
62586SOL     OW96535   5.223   2.554   1.777  0.1292  0.1417  0.2667
62586SOL    HW196536   5.157   2.552   1.708  1.1375  1.4198 -0.7798
62586SOL    HW296537   5.288   2.617   1.747  1.7238 -0.8939  1.3637
62587SOL     OW96538   1.730   5.731  10.793 -0.2198 -0.3437  0.1265
62587SOL    HW196539   1.788   5.693  10.859  2.0058  0.9136 -0.9853
62587SOL    HW296540   1.717   5.821  10.822 -3.0917 -1.0114  1.2247
62588SOL     OW96541   6.892   9.340   7.174  0.7879 -0.2307  0.0328
62588SOL    HW196542   6.868   9.391   7.097 -0.8905  0.9908  1.2999
62588SOL    HW296543   6.966   9.286   7.144  2.5370  2.7133 -1.4572
62589SOL     OW96544   2.900   8.240   0.267  0.3598 -0.2757 -0.3947
62589SOL    HW196545   2.826   8.292   0.236  1.4632  1.0650 -0.8754
62589SOL    HW296546   2.950   8.300   0.323  0.1719 -1.6658  1.3571
62590SOL     OW96547  10.039  10.499   5.289 -0.5160  0.0026 -0.2771
62590SOL    HW196548   9.944  10.506   5.284 -0.5169  0.7020  0.5865
62590SOL    HW296549  10.071  10.577   5.243 -0.4123  1.0243  1.4425
62591SOL     OW96550   5.691   6.403   9.478  0.0659 -0.1972  0.2182
62591SOL    HW196551   5.618   6.462   9.499 -0.2023 -0.3198 -0.3402
62591SOL    HW296552   5.726   6.437   9.395  1.1474  0.3213  0.8698
62592SOL     OW96553   4.711   8.546   6.596  0.2150 -0.5694  0.2246
62592SOL    HW196554   4.728   8.610   6.527 -0.6593  0.2304  0.7202
62592SOL    HW296555   4.737   8.590   6.677  2.2424 -1.8867  0.3481
62593SOL     OW96556   4.817   0.277   9.939 -0.3860  0.3618  0.4172
62593SOL    HW196557   4.839   0.213   9.871  2.0296  0.6032  0.8820
62593SOL    HW296558   4.869   0.250  10.014 -0.4287  2.0242  1.0880
62594SOL     OW96559   3.277   1.758   8.620  0.3645 -0.4053 -0.5698
62594SOL    HW196560   3.304   1.712   8.540 -1.2430  0.2407 -1.5178
62594SOL    HW296561   3.182   1.753   8.620  0.3456 -1.4172  1.9637
62595SOL     OW96562  10.657   2.863   5.356 -0.1366  0.2101  0.7661
62595SOL    HW196563  10.745   2.884   5.325 -0.0191  0.4298  1.2277
62595SOL    HW296564  10.654   2.768   5.359  0.6635  0.2008  2.3077
62596SOL     OW96565   6.305  11.949   9.109  0.1394 -0.0814 -0.0711
62596SOL    HW196566   6.271  12.015   9.049  0.3688 -0.3303 -0.4853
62596SOL    HW296567   6.227  11.912   9.151  0.0321  0.6500  0.3801
62597SOL     OW96568   8.040   8.232   2.725 -0.8541 -0.3089 -0.4424
62597SOL    HW196569   7.964   8.277   2.688 -1.6039 -0.3572  0.9707
62597SOL    HW296570   8.008   8.194   2.807  1.2140  1.4910  1.3150
62598SOL     OW96571   7.094   2.706   0.703  0.4138 -0.2277  0.2241
62598SOL    HW196572   7.076   2.655   0.782 -0.5006  0.6995  0.6459
62598SOL    HW296573   7.013   2.701   0.653  0.7940 -0.3333 -0.3888
62599SOL     OW96574   5.367   3.385  10.929  0.2585 -0.1248  0.0804
62599SOL    HW196575   5.391   3.391  11.021 -0.0573 -2.0203  0.3359
62599SOL    HW296576   5.308   3.310  10.925 -3.0036  2.2799 -1.0625
62600SOL     OW96577   2.537   2.538   5.420  0.1795 -0.7242 -0.0018
62600SOL    HW196578   2.518   2.591   5.497  0.0672  0.6354 -0.9305
62600SOL    HW296579   2.623   2.567   5.392 -0.9237  0.8996 -2.0083
62601SOL     OW96580   0.668  10.966   9.388  0.5648  0.0306  0.1091
62601SOL    HW196581   0.664  10.938   9.297 -1.6339  0.8979 -0.1065
62601SOL    HW296582   0.641  10.889   9.438 -0.5228  0.2243 -0.1546
62602SOL     OW96583   6.488   8.547   5.767 -0.1946 -0.2441 -0.5393
62602SOL    HW196584   6.487   8.637   5.737 -0.6987 -0.2611 -0.5872
62602SOL    HW296585   6.497   8.495   5.687  1.7276 -0.2012 -0.3890
62603SOL     OW96586   5.045   0.841  12.399 -0.3332  0.0640  0.1265
62603SOL    HW196587   5.111   0.822  12.333 -0.5836 -0.9144  0.1542
62603SOL    HW296588   4.982   0.898  12.354 -1.1645 -1.5752 -0.8844
62604SOL     OW96589   7.146   8.557   8.689 -0.5766  0.0752 -0.8383
62604SOL    HW196590   7.199   8.611   8.747 -0.1586 -1.6943  0.5197
62604SOL    HW296591   7.209   8.504   8.641 -1.0157 -0.8669 -0.4190
62605SOL     OW96592   2.027   9.447   8.134  0.0798 -0.3207  0.0511
62605SOL    HW196593   1.962   9.380   8.112  0.3571 -0.5805  0.0032
62605SOL    HW296594   2.063   9.418   8.218 -1.7519  1.2484  1.4502
62606SOL     OW96595   2.400   2.546   7.832  0.1573  0.1901 -0.1720
62606SOL    HW196596   2.390   2.451   7.838  1.5507  0.0429  0.1679
62606SOL    HW296597   2.326   2.574   7.778 -0.9618 -0.9260  0.7139
62607SOL     OW96598  12.041   0.594   2.687  0.1563 -0.3962 -0.4310
62607SOL    HW196599  11.951   0.564   2.677 -0.2986  1.1874 -1.4957
62607SOL    HW296600  12.092   0.536   2.631 -0.1324 -1.4919  0.4149
62608SOL     OW96601  11.324   2.123   5.721  0.5732  0.2161 -0.1204
62608SOL    HW196602  11.321   2.196   5.782  1.6899  0.1934 -0.0138
62608SOL    HW296603  11.249   2.069   5.744 -1.0743  1.9674 -1.0517
62609SOL     OW96604   3.741   9.464   0.969 -0.2181  0.1408  0.5996
62609SOL    HW196605   3.778   9.377   0.959 -1.0554 -0.1906  0.2797
62609SOL    HW296606   3.791   9.519   0.909 -1.4075 -0.6754 -1.2376
62610SOL     OW96607   4.739   3.395  12.496 -0.4137  0.1526  0.2806
62610SOL    HW196608   4.741   3.477  12.546  0.4123 -0.8696  2.0159
62610SOL    HW296609   4.832   3.371  12.488 -0.6537 -0.6364 -0.1608
62611SOL     OW96610   7.930   7.491   0.729 -0.5481 -0.1321 -0.5053
62611SOL    HW196611   7.903   7.415   0.677 -0.8302 -0.3669 -0.0180
62611SOL    HW296612   7.918   7.463   0.820 -1.3011  0.7347 -0.3282
62612SOL     OW96613   3.834  11.903   1.640  0.1398 -0.2261  0.4288
62612SOL    HW196614   3.880  11.851   1.707 -0.7736  0.3522  1.5365
62612SOL    HW296615   3.762  11.847   1.612  0.1372 -0.2086  0.3993
62613SOL     OW96616   5.950   7.305   0.199  0.4771  0.2010  0.0147
62613SOL    HW196617   5.855   7.304   0.210  0.4437 -3.6877  0.9989
62613SOL    HW296618   5.965   7.343   0.113 -1.9120  1.0868 -0.0701
62614SOL     OW96619   8.141   1.845   5.202  0.3083 -0.7535 -0.1061
62614SOL    HW196620   8.190   1.902   5.261  1.9107  0.8035 -2.7580
62614SOL    HW296621   8.076   1.902   5.162 -1.9567 -2.1781  1.3030
62615SOL     OW96622   1.422   2.415   2.336  0.9834 -0.3620 -0.4919
62615SOL    HW196623   1.445   2.322   2.341  0.3031 -0.4889  0.4112
62615SOL    HW296624   1.450   2.452   2.419 -0.7654 -0.2378  0.0790
62616SOL     OW96625   7.479   9.424   1.957 -0.3829 -0.1670 -0.1915
62616SOL    HW196626   7.451   9.339   1.924 -0.0007 -0.0267 -0.9214
62616SOL    HW296627   7.539   9.404   2.029 -3.1596 -0.4627  2.1812
62617SOL     OW96628   4.141  11.899  11.665  0.6284  0.3002 -0.3227
62617SOL    HW196629   4.173  11.960  11.599  0.5591  0.5340 -0.1396
62617SOL    HW296630   4.120  11.820  11.616  2.3704 -0.2038 -0.3355
62618SOL     OW96631   1.928   5.296   6.746  0.0729 -0.0473  0.3157
62618SOL    HW196632   1.835   5.291   6.768  0.0244  0.7724  0.3130
62618SOL    HW296633   1.965   5.213   6.780 -0.3373  0.3594  1.8547
62619SOL     OW96634   0.013   1.405  10.418 -0.1519 -0.5794  0.4011
62619SOL    HW196635   0.092   1.405  10.473  0.3502  0.4381 -0.2876
62619SOL    HW296636  -0.008   1.498  10.407 -0.8773 -0.8133 -0.2340
62620SOL     OW96637   7.048   4.005   9.863 -0.0261  1.0085 -0.1094
62620SOL    HW196638   6.963   3.993   9.819  0.3756  1.4750 -1.0396
62620SOL    HW296639   7.083   3.916   9.872  0.1730  0.9472 -1.3436
62621SOL     OW96640   3.717  11.462   1.194  0.8144  0.7114  0.1361
62621SOL    HW196641   3.705  11.385   1.251  0.7574  1.0336  0.5675
62621SOL    HW296642   3.812  11.466   1.180  0.6587 -0.6337 -1.5848
62622SOL     OW96643   1.995   5.604   6.558  0.2875 -0.0820  0.0893
62622SOL    HW196644   1.909   5.616   6.519 -0.5940 -3.1444  0.7895
62622SOL    HW296645   2.044   5.552   6.494 -0.0308 -2.2433  1.4844
62623SOL     OW96646   3.224   3.456  11.353  0.7479  0.1998  0.0896
62623SOL    HW196647   3.152   3.394  11.367 -0.8279  0.1903 -5.7825
62623SOL    HW296648   3.195   3.536  11.396 -2.4476 -0.1034 -1.2058
62624SOL     OW96649   1.485   2.893   1.613  0.1487 -0.3673 -0.0003
62624SOL    HW196650   1.426   2.881   1.538 -0.4622  0.6348  0.2950
62624SOL    HW296651   1.427   2.886   1.689  0.6878 -0.9230  0.3579
62625SOL     OW96652   2.284   5.072   6.325 -0.1887  0.3095  0.3056
62625SOL    HW196653   2.193   5.055   6.300 -0.2788  0.5626  0.4586
62625SOL    HW296654   2.324   5.108   6.246  0.2359 -1.4158 -0.2960
62626SOL     OW96655  12.439   8.662   7.841  0.1086 -0.4963 -0.2180
62626SOL    HW196656  12.444   8.634   7.750 -0.4431  1.2166 -0.8079
62626SOL    HW296657  12.520   8.629   7.880  0.4366 -1.1035 -1.3628
62627SOL     OW96658   2.592  11.738  11.133 -0.1661  0.0509 -0.0710
62627SOL    HW196659   2.545  11.817  11.106 -1.9629 -0.6157  0.9457
62627SOL    HW296660   2.659  11.726  11.066 -1.3548  1.1300 -1.5221
62628SOL     OW96661   5.192   1.847   5.474  0.0835 -0.3974 -0.1866
62628SOL    HW196662   5.269   1.802   5.438 -0.0151 -0.6243 -0.1176
62628SOL    HW296663   5.121   1.784   5.463  0.1460 -0.6563  0.8536
62629SOL     OW96664   2.694  10.419   1.775 -0.0549  0.5010  0.4423
62629SOL    HW196665   2.741  10.499   1.749  1.8789 -1.0752 -1.2945
62629SOL    HW296666   2.602  10.439   1.760  0.4249  2.2552 -0.4383
62630SOL     OW96667   1.899   6.018  10.119 -0.0391 -0.1576  0.0012
62630SOL    HW196668   1.924   5.935  10.160  2.1463 -0.1238 -1.0791
62630SOL    HW296669   1.834   6.056  10.178  0.6625 -1.5368  1.7569
62631SOL     OW96670   9.682   6.448   7.872  0.3834 -0.1885 -0.0031
62631SOL    HW196671   9.679   6.510   7.799  2.3872  0.2718  0.2514
62631SOL    HW296672   9.660   6.364   7.833 -0.3602  0.3376 -0.7556
62632SOL     OW96673   5.813   3.171   9.532  0.2091 -0.1127 -0.4101
62632SOL    HW196674   5.815   3.185   9.437  2.5628 -0.9147 -0.5239
62632SOL    HW296675   5.890   3.117   9.551 -1.2375 -1.6034  1.7300
62633SOL     OW96676  11.908   3.787   4.423  0.0823 -0.4346 -0.2240
62633SOL    HW196677  11.896   3.878   4.451 -0.4059 -1.1533  2.0983
62633SOL    HW296678  11.852   3.779   4.346 -0.6082  1.0004  0.0844
62634SOL     OW96679  11.544   9.551   2.712  0.3045  1.0396 -0.1355
62634SOL    HW196680  11.488   9.494   2.765 -0.5448  3.4729  1.7855
62634SOL    HW296681  11.633   9.532   2.742 -0.0457  1.2901  1.1320
62635SOL     OW96682  12.064  10.335   8.776 -0.2762 -0.6345 -0.1796
62635SOL    HW196683  12.099  10.296   8.857 -1.2094  0.3361  0.7202
62635SOL    HW296684  12.054  10.428   8.796  0.8202 -0.0975 -1.9130
62636SOL     OW96685   6.530   8.150   6.949 -0.4685  0.0568  0.6540
62636SOL    HW196686   6.490   8.064   6.956  1.1776 -0.9762 -1.4611
62636SOL    HW296687   6.456   8.211   6.949 -1.6791 -1.3365  2.0247
62637SOL     OW96688   4.910   3.572   9.207 -0.2248 -0.1343  0.0777
62637SOL    HW196689   4.981   3.560   9.271 -0.8485 -0.1685  0.7810
62637SOL    HW296690   4.865   3.651   9.236 -0.2810  0.0707 -0.5591
62638SOL     OW96691   7.716  10.401   0.081 -0.5392  0.3637  1.1777
62638SOL    HW196692   7.753  10.313   0.075  0.9525  1.0553 -0.4723
62638SOL    HW296693   7.657  10.396   0.156  1.1492 -1.4400  2.5030
62639SOL     OW96694   5.750   5.460   7.032  0.8141  0.0451 -0.5435
62639SOL    HW196695   5.844   5.477   7.031  0.3243  3.4782  0.1222
62639SOL    HW296696   5.740   5.383   7.088  3.0345  1.5563  2.1858
62640SOL     OW96697   7.878   1.978  10.059 -0.1812  0.3787  0.4149
62640SOL    HW196698   7.829   1.936  10.130  0.1057  0.0598  0.4247
62640SOL    HW296699   7.814   1.988   9.988  0.0980 -1.4238 -0.1335
62641SOL     OW96700   3.388   1.895  10.650  0.0150 -0.4952  0.0301
62641SOL    HW196701   3.370   1.984  10.680 -0.4848 -0.1519 -1.2246
62641SOL    HW296702   3.301   1.859  10.632  0.2939 -0.5338 -1.3689
62642SOL     OW96703   3.053  11.665   6.902 -0.1279 -0.1743  0.1639
62642SOL    HW196704   3.109  11.742   6.913  1.5237 -1.2272 -0.5031
62642SOL    HW296705   3.028  11.667   6.809 -0.3093 -0.2818  0.2113
62643SOL     OW96706   1.374  10.445   8.378 -0.4137  0.4526 -0.3378
62643SOL    HW196707   1.377  10.375   8.443  0.2346  0.5985 -0.2032
62643SOL    HW296708   1.381  10.526   8.429  1.5840  0.5275 -0.6598
62644SOL     OW96709   0.394   7.701   6.249 -0.4083  0.2976 -0.8938
62644SOL    HW196710   0.347   7.624   6.280  0.6942 -0.6127 -1.3999
62644SOL    HW296711   0.351   7.724   6.167  1.5750 -2.1886 -2.8189
62645SOL     OW96712   9.808   8.584  11.613 -0.4299  0.5061  0.0258
62645SOL    HW196713   9.880   8.522  11.632  0.3157  1.1944 -0.4978
62645SOL    HW296714   9.730   8.529  11.610  0.0952 -0.2915  0.4340
62646SOL     OW96715   7.638   0.298  11.627 -0.3604  0.1133  0.6484
62646SOL    HW196716   7.600   0.379  11.592 -1.9277 -0.4404  0.9864
62646SOL    HW296717   7.670   0.251  11.549  1.3189  1.3826  0.5183
62647SOL     OW96718  12.261   9.115  10.491 -0.2648  0.3785 -0.0217
62647SOL    HW196719  12.301   9.169  10.559 -1.1392  0.6073  0.3304
62647SOL    HW296720  12.214   9.178  10.435 -2.8388 -0.0978  1.4313
62648SOL     OW96721   5.973   8.251  10.250 -1.0275  0.2112 -0.1752
62648SOL    HW196722   5.917   8.218  10.181 -0.9420  0.3997 -0.3375
62648SOL    HW296723   5.976   8.346  10.236 -1.3641  0.3044  0.3526
62649SOL     OW96724   5.333   9.379   2.631 -0.1717  0.1516  0.9121
62649SOL    HW196725   5.306   9.349   2.545  0.0741 -0.6285  1.1048
62649SOL    HW296726   5.277   9.454   2.649  0.1152  0.6335 -0.1372
62650SOL     OW96727  11.905   8.070  10.957  0.4045 -0.0933 -0.1692
62650SOL    HW196728  11.851   8.053  11.034 -1.4827  0.8993 -1.1950
62650SOL    HW296729  11.908   7.987  10.910  1.7110 -0.7507  1.0145
62651SOL     OW96730   1.507   3.285  12.189  0.3940  0.3982  0.0300
62651SOL    HW196731   1.505   3.190  12.199 -0.9510  0.2312 -1.5855
62651SOL    HW296732   1.601   3.306  12.185  0.7052 -1.0368 -1.0743
62652SOL     OW96733   0.216   4.096   6.679  0.0054  0.3124 -0.5351
62652SOL    HW196734   0.198   4.018   6.731 -2.2620  0.6549 -0.7019
62652SOL    HW296735   0.129   4.128   6.652  0.9090  2.3093 -1.3196
62653SOL     OW96736   8.151   4.210  10.307 -0.4138 -0.3075 -0.9282
62653SOL    HW196737   8.242   4.198  10.281  0.0478 -1.1374  0.9462
62653SOL    HW296738   8.102   4.153  10.247  0.3017 -0.0204 -1.8089
62654SOL     OW96739   3.190  12.516  12.224  0.1138 -0.0880  0.0035
62654SOL    HW196740   3.135  12.585  12.259  0.6193  0.2790  0.0854
62654SOL    HW296741   3.279  12.550  12.230  0.4364 -0.9852  0.6367
62655SOL     OW96742   2.964   5.820   3.978 -0.1334 -0.6832 -0.5915
62655SOL    HW196743   3.019   5.890   4.012 -2.0541  0.6262 -0.0011
62655SOL    HW296744   2.952   5.761   4.053 -1.4774  0.3540  0.0853
62656SOL     OW96745   5.516   9.718  10.699 -0.5184  0.4334 -0.2114
62656SOL    HW196746   5.425   9.732  10.727  0.0898 -0.2450  2.2982
62656SOL    HW296747   5.565   9.787  10.744  0.6166 -1.1730  1.0810
62657SOL     OW96748   1.732   1.043   2.463 -0.6004 -0.0983  0.0816
62657SOL    HW196749   1.753   1.129   2.499 -0.8342  0.7836 -1.7616
62657SOL    HW296750   1.644   1.024   2.496 -0.8263  0.6883 -0.0431
62658SOL     OW96751  12.010   9.397   0.971  0.0095  0.7895 -0.2973
62658SOL    HW196752  12.033   9.396   1.064 -1.7589 -1.2538  0.1948
62658SOL    HW296753  11.917   9.376   0.969  0.2084 -0.1524 -2.5673
62659SOL     OW96754  10.032   8.277   1.377  0.7078  0.7992  1.0763
62659SOL    HW196755  10.001   8.331   1.304  0.9306 -0.0023  0.3604
62659SOL    HW296756  10.099   8.221   1.338 -0.1406 -0.6136  1.5620
62660SOL     OW96757   1.235   8.625   7.792 -0.3659  0.4574  0.0575
62660SOL    HW196758   1.190   8.635   7.708  0.2872 -0.2487 -0.3876
62660SOL    HW296759   1.218   8.534   7.818  1.8012 -0.2549 -0.7514
62661SOL     OW96760   0.982   2.421   2.763 -0.2752 -0.5276  0.0819
62661SOL    HW196761   1.032   2.378   2.694 -1.9924 -0.6980 -1.1417
62661SOL    HW296762   0.899   2.443   2.721 -1.1984 -0.2010  1.9796
62662SOL     OW96763   3.473   0.975   7.211 -1.1047 -0.0548  0.1675
62662SOL    HW196764   3.502   0.982   7.120 -2.6162 -2.0206 -0.5433
62662SOL    HW296765   3.551   0.947   7.259 -0.6901 -0.6996 -0.8426
62663SOL     OW96766   2.384   6.537  12.141  0.8868  0.4471  0.6987
62663SOL    HW196767   2.299   6.514  12.179  1.2366 -1.1499  0.5557
62663SOL    HW296768   2.372   6.626  12.107 -0.9157  0.0072  0.1105
62664SOL     OW96769   3.508   7.122   1.353 -0.0839 -0.7166 -0.1269
62664SOL    HW196770   3.581   7.183   1.364 -0.8561 -0.0120  1.2979
62664SOL    HW296771   3.455   7.161   1.284 -0.4558  0.1450  0.6222
62665SOL     OW96772   1.485  11.647   9.482  0.4326 -0.4358 -0.6703
62665SOL    HW196773   1.495  11.604   9.567  0.2304  1.2440  0.2534
62665SOL    HW296774   1.448  11.580   9.425  2.1999 -2.1191  0.0638
62666SOL     OW96775   5.272   1.390   3.448 -0.7812  0.4391 -0.0843
62666SOL    HW196776   5.218   1.312   3.457 -0.4087  0.4515  4.1957
62666SOL    HW296777   5.219   1.461   3.485  0.6665  1.2274  0.5779
62667SOL     OW96778   9.418   7.329  12.583  0.5960 -0.0809 -0.1139
62667SOL    HW196779   9.422   7.410  12.636  1.6676 -0.0810 -0.1705
62667SOL    HW296780   9.325   7.317  12.566  0.1621 -0.2327  2.0221
62668SOL     OW96781   5.561   8.761  11.033 -0.0435 -0.5882  0.3492
62668SOL    HW196782   5.550   8.849  11.069  0.6945 -0.4017  0.1352
62668SOL    HW296783   5.547   8.703  11.107  1.2299 -0.2150  0.9001
62669SOL     OW96784  11.488   7.096  10.576 -0.2072  0.3952 -0.6181
62669SOL    HW196785  11.560   7.074  10.634 -0.1215 -0.5161 -1.0559
62669SOL    HW296786  11.410   7.090  10.631  0.0055  1.0789 -0.2227
62670SOL     OW96787   4.384   0.523   8.792  0.3503 -0.1058  0.1994
62670SOL    HW196788   4.468   0.526   8.837  0.2274  0.3003  0.3977
62670SOL    HW296789   4.371   0.429   8.774  0.5935 -0.2279  0.6362
62671SOL     OW96790  10.299   1.347   2.557  0.0192  0.2057  0.3558
62671SOL    HW196791  10.249   1.428   2.549 -0.3429  0.0014  0.5016
62671SOL    HW296792  10.331   1.330   2.468 -0.0592  0.4132  0.2868
62672SOL     OW96793   2.754   6.955   8.064 -0.3554 -0.7763  0.2220
62672SOL    HW196794   2.819   7.023   8.078 -0.2908 -0.5613 -1.0009
62672SOL    HW296795   2.710   6.980   7.983 -1.5450 -1.2468  0.6974
62673SOL     OW96796   6.516   7.345   6.531  0.0725 -0.1102 -0.2608
62673SOL    HW196797   6.507   7.436   6.560  0.9762 -0.1028  0.0489
62673SOL    HW296798   6.440   7.300   6.567 -0.0353  0.3900  0.1522
62674SOL     OW96799   6.525  10.839   8.170 -0.3200 -0.4248 -0.1406
62674SOL    HW196800   6.476  10.791   8.237  1.0553 -1.3984  0.2012
62674SOL    HW296801   6.600  10.784   8.150  1.1660  1.4277  0.0389
62675SOL     OW96802   7.927   5.183   6.458  0.0077  0.1426 -0.2199
62675SOL    HW196803   7.967   5.115   6.511 -0.1795 -0.6372 -1.0503
62675SOL    HW296804   7.898   5.250   6.521  4.4926  1.8712  0.3767
62676SOL     OW96805   0.831   7.597  12.528  0.4532 -0.1037 -0.5640
62676SOL    HW196806   0.810   7.667  12.466 -0.4632  0.4230  0.3038
62676SOL    HW296807   0.925   7.584  12.519  0.1370 -1.1630 -3.2196
62677SOL     OW96808  10.246   2.419   1.275 -0.1591 -0.5868  0.2729
62677SOL    HW196809  10.177   2.467   1.321  0.6453 -0.1398  1.0455
62677SOL    HW296810  10.311   2.486   1.252  0.2789 -1.0854  0.0339
62678SOL     OW96811   3.229   1.259   5.203 -0.1283  0.5670  0.6468
62678SOL    HW196812   3.160   1.311   5.161  0.2690  1.2189  0.7834
62678SOL    HW296813   3.230   1.291   5.294  1.7616  2.0842  0.1511
62679SOL     OW96814   6.546   3.383   8.844  0.0308 -0.5144  0.0307
62679SOL    HW196815   6.548   3.467   8.889 -1.0219 -0.1608 -0.5407
62679SOL    HW296816   6.566   3.318   8.912  0.5651  0.1678  0.5341
62680SOL     OW96817   6.384   9.791   7.697 -0.1462  0.5761  0.4355
62680SOL    HW196818   6.437   9.866   7.669 -0.9519 -0.0375 -3.2938
62680SOL    HW296819   6.415   9.719   7.642 -2.7543 -0.5658  0.3398
62681SOL     OW96820   0.321   6.901  11.975 -0.5515  0.1439 -0.5805
62681SOL    HW196821   0.260   6.902  11.902  1.2725  0.6899 -2.1743
62681SOL    HW296822   0.281   6.959  12.040 -3.3622 -2.1634 -0.0284
62682SOL     OW96823   5.592   3.887   0.692  0.0893  0.3878  0.1070
62682SOL    HW196824   5.637   3.809   0.725 -0.1278  0.7854  1.3740
62682SOL    HW296825   5.500   3.862   0.686  0.2610 -0.0451 -1.3628
62683SOL     OW96826   4.780   7.258   7.567  0.0861  0.1340 -0.1151
62683SOL    HW196827   4.754   7.165   7.571 -1.6901  0.5657 -0.7748
62683SOL    HW296828   4.734   7.298   7.641 -0.2350  0.7302 -0.6355
62684SOL     OW96829  10.497   4.059   5.578  0.2872 -0.1231  0.5550
62684SOL    HW196830  10.582   4.021   5.597 -0.2591 -1.2995  0.7786
62684SOL    HW296831  10.458   4.076   5.664 -0.8809 -2.4185  0.5596
62685SOL     OW96832   3.277   8.602   9.366  0.0949  0.2221  0.1258
62685SOL    HW196833   3.247   8.686   9.330  2.5739 -0.1011 -3.2108
62685SOL    HW296834   3.208   8.540   9.344 -1.1960  1.0965  1.5270
62686SOL     OW96835   9.122   8.979   6.909 -0.0883  0.2281 -0.4935
62686SOL    HW196836   9.109   9.068   6.943 -0.0294  0.0233  0.0800
62686SOL    HW296837   9.045   8.930   6.941 -0.2156  0.1205 -0.9656
62687SOL     OW96838   4.559   7.351   4.583 -0.1678 -0.1059  0.2899
62687SOL    HW196839   4.582   7.259   4.575 -1.0149 -0.2917 -0.0217
62687SOL    HW296840   4.511   7.357   4.666 -0.8721 -0.1043 -0.1120
62688SOL     OW96841   5.007   0.873   3.753  0.2474 -0.0365 -0.4884
62688SOL    HW196842   5.040   0.816   3.684  2.0815 -0.1119  0.3978
62688SOL    HW296843   5.077   0.875   3.818 -0.2882  2.2074  0.1053
62689SOL     OW96844   5.587   2.588   0.152 -0.5046 -0.1948 -0.3899
62689SOL    HW196845   5.545   2.626   0.229 -2.1365  0.4048 -1.5085
62689SOL    HW296846   5.542   2.505   0.138 -0.2113 -0.3075 -0.6879
62690SOL     OW96847  11.507   4.663   6.355 -0.5037 -0.2198 -0.2034
62690SOL    HW196848  11.593   4.702   6.338 -0.3584 -0.2315  0.4551
62690SOL    HW296849  11.519   4.570   6.338 -0.9415  0.0364 -2.1188
62691SOL     OW96850   9.895   1.603   6.673  0.1395  0.0814  0.8332
62691SOL    HW196851   9.916   1.695   6.686  0.0581  0.4164 -1.0931
62691SOL    HW296852   9.938   1.580   6.590 -2.1012 -0.8248 -0.1547
62692SOL     OW96853  12.069   1.261   5.580 -0.7702 -0.1615 -0.4670
62692SOL    HW196854  12.054   1.220   5.495  0.2749 -0.4187 -0.5404
62692SOL    HW296855  12.094   1.351   5.559  1.3443 -0.7164 -0.5766
62693SOL     OW96856   4.284   1.769   2.972  0.1331 -0.3607 -0.4251
62693SOL    HW196857   4.337   1.842   2.940  1.0276 -0.4251  0.8325
62693SOL    HW296858   4.315   1.755   3.062 -1.7415 -0.6777  0.1987
62694SOL     OW96859   8.604   7.630   8.319 -0.0319  0.2896  0.5246
62694SOL    HW196860   8.662   7.704   8.337 -0.6725  1.0274 -0.3333
62694SOL    HW296861   8.650   7.579   8.252  0.1690  0.2038  0.7273
62695SOL     OW96862   9.054   7.005   3.660 -0.7107  0.2612  0.1816
62695SOL    HW196863   9.135   7.056   3.649 -1.0537  0.7359 -0.2174
62695SOL    HW296864   9.057   6.975   3.751 -0.0341  0.1779  0.1392
62696SOL     OW96865   5.953   4.189   2.243 -1.0348 -0.1970  0.6299
62696SOL    HW196866   6.016   4.214   2.311 -0.6067 -0.8887  0.4999
62696SOL    HW296867   5.969   4.251   2.171 -2.2338  1.2426  1.5484
62697SOL     OW96868   8.778   6.983   7.757 -0.8114  0.5577  0.2319
62697SOL    HW196869   8.837   6.911   7.735 -2.1359 -0.0843 -1.4310
62697SOL    HW296870   8.836   7.059   7.769  0.3959 -0.1819 -0.6871
62698SOL     OW96871   5.837   7.575   5.949  0.2375  0.5593  0.3673
62698SOL    HW196872   5.744   7.579   5.927 -0.1026  0.0457  1.6199
62698SOL    HW296873   5.868   7.666   5.942  0.2290  0.4489 -2.2794
62699SOL     OW96874   5.271   7.360   3.139 -0.6092 -0.4723  0.0701
62699SOL    HW196875   5.328   7.426   3.100 -1.7907 -0.0829 -1.0718
62699SOL    HW296876   5.285   7.369   3.234  1.0412 -0.2606 -0.1669
62700SOL     OW96877   0.577   3.602   9.128 -0.3782 -0.4802  0.0822
62700SOL    HW196878   0.523   3.551   9.067 -1.0026 -2.1314  1.8996
62700SOL    HW296879   0.520   3.672   9.158 -0.2397  0.0242 -0.7929
62701SOL     OW96880   1.441   9.576  11.831 -0.4229 -0.5869 -0.2297
62701SOL    HW196881   1.428   9.620  11.747 -0.4135  3.0123  1.4442
62701SOL    HW296882   1.362   9.596  11.881 -0.0414 -1.8559  0.9269
62702SOL     OW96883   6.175   5.638  10.308  0.2098 -0.6253 -0.4667
62702SOL    HW196884   6.179   5.734  10.315 -2.7723 -0.2989 -1.7935
62702SOL    HW296885   6.128   5.610  10.387 -2.8615 -0.4294 -2.0791
62703SOL     OW96886   6.352   2.272  10.986 -0.3037  0.3667  0.4583
62703SOL    HW196887   6.392   2.216  10.919  0.4448  1.5954 -0.1613
62703SOL    HW296888   6.288   2.325  10.937  0.2426  1.2660  0.6888
62704SOL     OW96889   6.989   4.696   1.377 -0.4685 -0.0980 -0.0004
62704SOL    HW196890   7.074   4.654   1.382  0.0795  1.0774  1.4541
62704SOL    HW296891   6.941   4.661   1.452 -0.5380  0.7235  0.3447
62705SOL     OW96892   1.335   5.200   3.524  0.2280  0.5373 -0.3402
62705SOL    HW196893   1.264   5.264   3.524  0.8414  1.2586 -1.6211
62705SOL    HW296894   1.412   5.249   3.554  0.2137 -0.2452  1.0731
62706SOL     OW96895  10.579   0.401   9.376 -0.0837  0.4528 -0.6672
62706SOL    HW196896  10.603   0.442   9.293 -0.2981 -0.0457 -0.9801
62706SOL    HW296897  10.619   0.314   9.372  1.4116  1.0320  0.5082
62707SOL     OW96898   2.163  11.595  10.723 -0.0530  0.1322 -0.3417
62707SOL    HW196899   2.117  11.556  10.648 -0.3090  2.3670 -1.4127
62707SOL    HW296900   2.196  11.678  10.691 -0.1854  1.1932  2.0554
62708SOL     OW96901   4.080   0.273   8.674 -0.5511 -0.2245  0.0021
62708SOL    HW196902   4.069   0.337   8.745 -1.2091 -1.0051  0.6196
62708SOL    HW296903   4.005   0.287   8.617 -1.1992 -1.0354  0.6262
62709SOL     OW96904   4.368   7.409   1.083  0.1329 -0.1677 -0.3725
62709SOL    HW196905   4.438   7.393   1.146 -0.0839  0.8184  0.1279
62709SOL    HW296906   4.318   7.482   1.119 -1.4839 -1.1748 -0.4478
62710SOL     OW96907  11.903   7.311   2.332  0.5056  0.4331 -0.0064
62710SOL    HW196908  11.941   7.225   2.350 -0.4261  0.2438  1.1617
62710SOL    HW296909  11.943   7.369   2.396 -1.8493  0.0239  1.9675
62711SOL     OW96910  11.853  10.079   8.129  0.3100 -0.1179 -0.0183
62711SOL    HW196911  11.929  10.058   8.075 -0.4853 -2.4010 -0.3675
62711SOL    HW296912  11.881  10.059   8.218  0.3322 -0.3558 -0.0771
62712SOL     OW96913   3.701   6.179   7.316 -0.0180 -0.0333 -0.0042
62712SOL    HW196914   3.661   6.103   7.358  0.8862  0.4510  1.8384
62712SOL    HW296915   3.655   6.254   7.354  1.2910  0.4489  0.7017
62713SOL     OW96916  12.551   0.576   5.464 -0.3227  0.6719 -0.6206
62713SOL    HW196917  12.637   0.582   5.421  0.6301  1.9065  1.3300
62713SOL    HW296918  12.519   0.488   5.442  2.8879 -1.1233  1.1644
62714SOL     OW96919   5.898   6.380   5.050 -0.2495  0.0195  0.8109
62714SOL    HW196920   5.967   6.444   5.066 -1.4055  1.1111  1.5479
62714SOL    HW296921   5.836   6.393   5.121 -0.7562 -1.6203  0.7186
62715SOL     OW96922  11.896   6.703  11.564 -0.0686 -0.4398  0.4030
62715SOL    HW196923  11.945   6.622  11.552 -2.3350 -1.7682 -0.5259
62715SOL    HW296924  11.812   6.675  11.600 -1.4519  1.3019 -1.2831
62716SOL     OW96925  11.620  11.681   0.196 -0.2393  0.0474  0.2853
62716SOL    HW196926  11.556  11.708   0.262 -0.8622 -0.8252  0.0503
62716SOL    HW296927  11.568  11.644   0.125  0.4216  0.9299 -0.7030
62717SOL     OW96928   0.024   0.058   4.108 -0.6885 -0.3306 -0.0313
62717SOL    HW196929   0.100   0.047   4.050  0.0470 -0.6192  0.9584
62717SOL    HW296930   0.062   0.064   4.196 -1.8182 -0.4980  0.4826
62718SOL     OW96931   6.976  10.789   3.818  0.3823 -0.0084  0.2989
62718SOL    HW196932   7.047  10.831   3.770  0.4524  0.2475  0.6316
62718SOL    HW296933   7.018  10.749   3.894  0.5000 -1.6301 -0.5703
62719SOL     OW96934   1.824   7.699   0.595 -0.0437 -0.0972  0.2223
62719SOL    HW196935   1.919   7.711   0.586 -0.1752  0.0418 -1.1461
62719SOL    HW296936   1.788   7.788   0.595 -0.3284 -0.1914 -1.3724
62720SOL     OW96937   1.674   4.084   1.566  0.0051 -0.0230 -0.4505
62720SOL    HW196938   1.740   4.060   1.501  1.5341  0.4608  0.8464
62720SOL    HW296939   1.641   4.169   1.537 -0.1591 -0.3310 -1.1842
62721SOL     OW96940  11.852  12.096   7.613 -0.5307  0.3760 -0.2775
62721SOL    HW196941  11.794  12.170   7.632 -0.5990  0.3600 -0.4205
62721SOL    HW296942  11.865  12.053   7.697 -0.8073  0.3244 -0.2579
62722SOL     OW96943  12.033   7.901  11.351  0.1703 -0.5336 -0.4831
62722SOL    HW196944  12.087   7.964  11.398 -0.0573  0.5751 -1.6422
62722SOL    HW296945  12.039   7.820  11.402 -0.0696  0.5995  1.4152
62723SOL     OW96946  11.598  10.227   4.243  0.6413 -0.1442 -0.4394
62723SOL    HW196947  11.593  10.135   4.217 -0.9523 -0.2960  0.2433
62723SOL    HW296948  11.506  10.254   4.251  1.0817  1.2035  0.3882
62724SOL     OW96949  10.415   8.645  10.546  0.0978 -0.3584  0.4271
62724SOL    HW196950  10.406   8.568  10.490 -1.6432  0.9242 -1.2047
62724SOL    HW296951  10.505   8.676  10.531  0.6203 -1.7143  0.6602
62725SOL     OW96952   5.267   1.313   4.660 -0.8923 -0.2088 -0.0046
62725SOL    HW196953   5.337   1.370   4.630 -0.2790 -0.3634  1.0577
62725SOL    HW296954   5.193   1.371   4.676 -2.1054 -0.3739 -3.9975
62726SOL     OW96955  11.842   5.806   8.173  0.3282  0.0252  0.3561
62726SOL    HW196956  11.811   5.831   8.260 -0.8137  0.5681 -0.1859
62726SOL    HW296957  11.912   5.869   8.154  0.2584  0.2074  0.6840
62727SOL     OW96958   3.228   7.170   6.428  0.2029 -0.7793 -0.1185
62727SOL    HW196959   3.144   7.182   6.472 -0.1848 -0.6025 -0.8982
62727SOL    HW296960   3.233   7.077   6.409  0.1759 -0.7845 -0.1001
62728SOL     OW96961   8.730  11.399   8.601  0.4136  0.7222  0.4971
62728SOL    HW196962   8.742  11.461   8.530 -0.5604  1.0837  0.6301
62728SOL    HW296963   8.759  11.315   8.565 -1.8866  0.4990 -1.0445
62729SOL     OW96964   0.774   6.849   3.612  0.1076 -0.0027 -0.5697
62729SOL    HW196965   0.777   6.866   3.517  0.2564 -2.7587 -1.1356
62729SOL    HW296966   0.690   6.806   3.626  0.4255 -0.3276  0.4213
62730SOL     OW96967   2.187   6.207   0.667 -0.2319  0.4990  0.5647
62730SOL    HW196968   2.272   6.248   0.655  0.0422 -0.2509 -0.0998
62730SOL    HW296969   2.197   6.152   0.745  0.1552 -0.2662 -0.0203
62731SOL     OW96970   8.975   6.875  10.422 -0.3755  0.0185  0.5272
62731SOL    HW196971   9.016   6.817  10.486 -1.3437 -0.3696  0.8094
62731SOL    HW296972   9.047   6.903  10.366  0.2205 -0.9144  0.8047
62732SOL     OW96973   9.207   2.917   5.631 -0.1252  0.0541  0.6978
62732SOL    HW196974   9.189   2.987   5.694  1.0816  0.1678  0.9308
62732SOL    HW296975   9.278   2.951   5.577  0.1475 -0.7996  0.5069
62733SOL     OW96976   1.622   9.376  11.545 -0.1648 -0.0425  0.9286
62733SOL    HW196977   1.537   9.336  11.564 -0.6052  1.0218  1.2621
62733SOL    HW296978   1.675   9.304  11.509 -1.6371 -0.4055 -0.6183
62734SOL     OW96979   3.027   5.371   9.558  0.2407 -0.2058 -0.2058
62734SOL    HW196980   2.986   5.436   9.615 -0.3328 -1.4817  0.9061
62734SOL    HW296981   2.964   5.299   9.555  1.4907 -1.3438 -0.1554
62735SOL     OW96982   2.911   4.819  10.343  0.2210  0.0064 -0.3265
62735SOL    HW196983   2.914   4.909  10.311  0.5721 -0.1444 -0.7271
62735SOL    HW296984   2.939   4.766  10.268 -0.9413 -0.5200 -0.4075
62736SOL     OW96985  11.610   9.046   9.871  0.0464 -0.1781  0.4628
62736SOL    HW196986  11.674   8.975   9.866 -0.9674 -1.2274  1.8012
62736SOL    HW296987  11.639   9.099   9.945  0.5598  0.5972 -0.2703
62737SOL     OW96988   9.636  11.833   3.119 -0.3011  0.8696 -0.2856
62737SOL    HW196989   9.671  11.915   3.085  0.3554  0.3793 -0.8150
62737SOL    HW296990   9.545  11.854   3.141 -0.1516  1.7316 -0.4304
62738SOL     OW96991   5.414   8.406  10.529 -0.4397  0.0875 -0.7559
62738SOL    HW196992   5.337   8.463  10.537 -0.0276  0.5273  0.3162
62738SOL    HW296993   5.413   8.354  10.609 -1.0475 -1.7725 -1.9132
62739SOL     OW96994   5.911   5.264   8.288  0.1603 -0.1154  0.6660
62739SOL    HW196995   5.985   5.228   8.239  1.1040 -0.9383  2.5520
62739SOL    HW296996   5.947   5.340   8.334 -0.6701  0.5815  0.2009
62740SOL     OW96997   7.901   7.908   6.745 -0.1002 -0.0135 -0.4055
62740SOL    HW196998   7.918   7.955   6.664 -2.1236  1.7917  0.1280
62740SOL    HW296999   7.886   7.817   6.718  0.9845  0.1890 -1.7977
62741SOL     OW97000   6.229   5.980   8.036  0.0974 -0.5677 -0.5936
62741SOL    HW197001   6.322   6.001   8.029  0.1575  0.9496  2.7171
62741SOL    HW297002   6.184   6.057   7.999  0.2100 -0.2379 -0.0585
62742SOL     OW97003   9.515   2.326   4.388 -0.0060 -0.5799 -0.3830
62742SOL    HW197004   9.459   2.395   4.422  0.6207  0.7042 -1.8012
62742SOL    HW297005   9.602   2.347   4.423  0.6540  0.7838 -2.6273
62743SOL     OW97006   9.908   8.902   8.279 -0.3565 -0.5994 -0.2268
62743SOL    HW197007   9.907   8.934   8.369 -1.1982 -0.3484 -0.3110
62743SOL    HW297008   9.999   8.876   8.263  0.5061  2.1407 -0.2937
62744SOL     OW97009  11.593  10.368   9.730  0.2233  0.2842 -0.2804
62744SOL    HW197010  11.522  10.303   9.739  0.0162  0.7132  1.4440
62744SOL    HW297011  11.616  10.364   9.637  1.2085 -3.3156 -0.0356
62745SOL     OW97012   7.090  12.066   8.909 -0.1144  0.0491  0.1621
62745SOL    HW197013   6.998  12.091   8.904 -0.6221 -1.7905 -0.4779
62745SOL    HW297014   7.104  12.008   8.833  1.6373  0.4937  0.0954
62746SOL     OW97015   9.595   6.898   9.477  0.1008  0.8264 -0.0918
62746SOL    HW197016   9.602   6.805   9.495  0.3812  0.8890  0.1260
62746SOL    HW297017   9.686   6.928   9.471  0.0357  1.3725  1.3056
62747SOL     OW97018   3.786   8.845   9.905 -0.1488 -0.4202  0.0221
62747SOL    HW197019   3.713   8.784   9.897  0.3223 -1.1241  0.9148
62747SOL    HW297020   3.853   8.809   9.847 -0.0317 -0.5023  0.2089
62748SOL     OW97021   2.223  10.892   5.993  0.5655 -0.4603  0.0931
62748SOL    HW197022   2.247  10.976   6.032 -0.4991  0.2676 -0.7556
62748SOL    HW297023   2.141  10.867   6.036 -1.1311  0.8031 -2.1705
62749SOL     OW97024   5.672   4.256   6.436 -0.1255 -0.5408  0.1891
62749SOL    HW197025   5.727   4.283   6.510 -0.7527 -1.3684  0.9838
62749SOL    HW297026   5.642   4.168   6.460  0.9764 -1.5294 -1.8048
62750SOL     OW97027   9.392   1.562   4.908 -0.5161 -0.2581 -0.2633
62750SOL    HW197028   9.318   1.502   4.895  0.1111 -1.1235  0.0288
62750SOL    HW297029   9.375   1.605   4.991 -0.8716 -0.1832 -0.3747
62751SOL     OW97030   8.547   9.404   0.208  0.0808 -0.3451  0.6937
62751SOL    HW197031   8.631   9.430   0.170  0.9106 -2.1864  1.1370
62751SOL    HW297032   8.558   9.418   0.302 -1.1463  2.0138  0.5653
62752SOL     OW97033   9.923   3.637   7.566  0.0442  0.7031 -0.3899
62752SOL    HW197034   9.902   3.683   7.485 -0.1096  0.2765 -0.5979
62752SOL    HW297035  10.019   3.635   7.569  0.0499  1.1663 -0.3018
62753SOL     OW97036   3.279   5.411  10.223 -0.1456  0.3749  0.0361
62753SOL    HW197037   3.362   5.430  10.268 -0.2753  1.2813 -0.1030
62753SOL    HW297038   3.212   5.434  10.287 -0.3027 -1.5956  0.6458
62754SOL     OW97039   6.993   6.202  10.889  0.6080  0.0039  0.1073
62754SOL    HW197040   7.038   6.197  10.974  0.4228 -2.3903  0.1443
62754SOL    HW297041   7.063   6.211  10.825  1.0212 -1.2542  0.3432
62755SOL     OW97042   0.888   0.569   9.855 -0.9139 -0.2241  0.0883
62755SOL    HW197043   0.877   0.592   9.763 -1.4049  3.1025  0.8526
62755SOL    HW297044   0.982   0.576   9.870 -1.0433  1.2916  0.2748
62756SOL     OW97045   4.909   7.869  12.403 -0.3948  0.8083  0.2224
62756SOL    HW197046   4.918   7.931  12.331  0.8953  3.3207  2.3773
62756SOL    HW297047   4.815   7.865  12.421 -0.6101  1.0643 -0.8025
62757SOL     OW97048   5.243   5.581   4.684  1.1478  0.0315  0.2974
62757SOL    HW197049   5.323   5.575   4.737  1.2715  0.5957  0.1861
62757SOL    HW297050   5.178   5.618   4.743  1.3838  1.0104 -0.0302
62758SOL     OW97051   7.386  10.781  10.331  0.2890  0.7797 -0.1839
62758SOL    HW197052   7.381  10.748  10.421  1.7901 -1.4600 -0.8412
62758SOL    HW297053   7.472  10.822  10.325  0.3025  0.6888 -0.6676
62759SOL     OW97054   1.419   7.597   7.592  0.1776 -0.5502 -0.2216
62759SOL    HW197055   1.451   7.553   7.513  0.3647 -0.4724 -0.1889
62759SOL    HW297056   1.377   7.527   7.643 -0.3936 -0.5051 -0.6238
62760SOL     OW97057   8.658  10.111  11.571  0.0477  0.2507 -0.1485
62760SOL    HW197058   8.636  10.203  11.584  0.8357  0.9370 -3.0246
62760SOL    HW297059   8.752  10.106  11.587  0.3343  0.3687 -1.6018
62761SOL     OW97060   7.847   5.920   3.551  0.0380  0.1312  0.3481
62761SOL    HW197061   7.826   5.888   3.639  0.9430  0.5664  0.7341
62761SOL    HW297062   7.764   5.916   3.504 -0.4012 -0.3696  1.1382
62762SOL     OW97063   0.681   7.951   0.167  0.6780 -0.0887 -0.0228
62762SOL    HW197064   0.654   8.043   0.172 -0.3037 -0.0280 -3.5840
62762SOL    HW297065   0.776   7.954   0.161  0.9010  0.4165  2.6344
62763SOL     OW97066  12.322   1.524   1.907 -0.1623  0.6722  0.5115
62763SOL    HW197067  12.278   1.597   1.950 -1.2961  0.3454 -0.0526
62763SOL    HW297068  12.282   1.445   1.945  0.3068  0.3585  0.3674
62764SOL     OW97069   2.930  10.579   9.359  0.0149 -0.4405  0.2252
62764SOL    HW197070   2.895  10.555   9.444 -1.3726 -0.7887 -0.4263
62764SOL    HW297071   2.963  10.497   9.322 -0.0802 -0.4219  0.1002
62765SOL     OW97072   7.266   5.995   4.577 -0.1766  0.5216  0.3349
62765SOL    HW197073   7.196   5.965   4.635  1.5872  0.8469  2.8286
62765SOL    HW297074   7.311   5.915   4.551 -0.8137  0.3933 -0.3984
62766SOL     OW97075   7.820   2.865   5.116  0.3913  0.3560  0.1772
62766SOL    HW197076   7.781   2.898   5.197  1.9846  0.5266  0.9187
62766SOL    HW297077   7.795   2.930   5.049  0.0292  0.8371  0.7651
62767SOL     OW97078   2.844   4.005   6.387 -0.6228  0.1982  0.7181
62767SOL    HW197079   2.778   3.939   6.407  0.0654 -0.4314  0.9471
62767SOL    HW297080   2.793   4.084   6.367 -1.4899 -0.6251 -0.4713
62768SOL     OW97081   7.040   3.792   6.675  0.0249 -0.3927 -0.3348
62768SOL    HW197082   7.024   3.817   6.584  0.0268 -0.0411 -0.2376
62768SOL    HW297083   6.986   3.851   6.727  0.7424  0.0381 -0.0634
62769SOL     OW97084   5.410  10.733   4.239 -0.5738  0.0285 -0.0482
62769SOL    HW197085   5.460  10.717   4.319  0.6039 -0.5370 -0.8670
62769SOL    HW297086   5.470  10.711   4.168 -1.9177 -0.4389 -1.0866
62770SOL     OW97087   6.089   3.936   9.401 -0.2295  0.1104 -0.3189
62770SOL    HW197088   6.077   3.983   9.484 -0.3807  0.4584 -0.5370
62770SOL    HW297089   6.178   3.958   9.374 -0.4302  0.5786 -0.6104
62771SOL     OW97090   9.295   1.547  12.334 -0.5350  0.0157  0.5260
62771SOL    HW197091   9.231   1.488  12.295  0.3274 -0.4911 -0.1644
62771SOL    HW297092   9.378   1.524  12.291  0.1996  0.3268  1.7317
62772SOL     OW97093   9.367   2.674   2.352 -0.1361  0.7974  0.0127
62772SOL    HW197094   9.394   2.617   2.281 -0.6014  1.6654 -0.8765
62772SOL    HW297095   9.282   2.639   2.380  0.0015  0.5158  0.0785
62773SOL     OW97096   5.661   2.897   9.488 -0.1989  0.3774 -0.4949
62773SOL    HW197097   5.604   2.916   9.563 -1.3770  1.9780 -1.7035
62773SOL    HW297098   5.632   2.958   9.420  0.2044 -1.6009 -2.5856
62774SOL     OW97099  11.797  10.706   9.025  0.3274  0.5103 -0.1085
62774SOL    HW197100  11.853  10.774   9.064 -1.7602  1.7014  0.9848
62774SOL    HW297101  11.820  10.626   9.072  0.2457  1.2440  1.2336
62775SOL     OW97102   1.878  10.710   5.631 -0.2184 -0.0571 -0.0901
62775SOL    HW197103   1.947  10.644   5.626 -0.8222 -0.6546 -0.7065
62775SOL    HW297104   1.814  10.673   5.692 -1.3323 -0.7905 -1.6637
62776SOL     OW97105   8.958   7.940   4.761 -0.1527  0.4111  0.2822
62776SOL    HW197106   8.896   7.876   4.797 -0.8182 -0.4074 -2.1249
62776SOL    HW297107   8.903   8.010   4.727  0.1628 -0.2402 -1.7262
62777SOL     OW97108   9.393  12.441   2.439 -0.6269 -0.2641  0.0642
62777SOL    HW197109   9.377  12.535   2.445  2.6658  0.4857 -0.5603
62777SOL    HW297110   9.405  12.424   2.345 -1.1816 -1.3195  0.1657
62778SOL     OW97111   7.272  10.069   1.199  0.2347 -0.2120 -0.2647
62778SOL    HW197112   7.363  10.042   1.208  0.4931  0.2003 -1.4160
62778SOL    HW297113   7.257  10.127   1.273  0.9301 -0.2319 -0.0985
62779SOL     OW97114   2.647   4.264  10.769  0.1797  0.5380 -0.5918
62779SOL    HW197115   2.696   4.182  10.769 -0.8063 -0.0734 -2.0551
62779SOL    HW297116   2.598   4.262  10.851  0.3104 -0.2413 -0.5270
62780SOL     OW97117   3.665   4.626  12.293 -0.6903 -0.2580  0.6272
62780SOL    HW197118   3.694   4.699  12.349  0.2555 -1.0354  1.1837
62780SOL    HW297119   3.738   4.565  12.294 -1.5495 -1.3197  0.3275
62781SOL     OW97120  12.352   2.262  11.022  0.4230  0.1477  0.2134
62781SOL    HW197121  12.283   2.212  11.064  0.5148  0.6226  0.9540
62781SOL    HW297122  12.431   2.243  11.073  0.3813  1.3369  0.7664
62782SOL     OW97123   9.727  11.880   0.156 -0.8167  0.2102 -0.5713
62782SOL    HW197124   9.812  11.920   0.175 -0.9098  0.9499 -1.6572
62782SOL    HW297125   9.669  11.917   0.222 -0.5804  0.7225 -0.6455
62783SOL     OW97126   3.957   0.793   3.365 -0.4252  0.1028 -0.4707
62783SOL    HW197127   4.021   0.742   3.414 -0.7403 -0.7898 -0.9472
62783SOL    HW297128   4.004   0.825   3.288  0.0289  1.3749  0.3086
62784SOL     OW97129   8.044   5.009   2.123  0.2489 -0.2381 -0.7243
62784SOL    HW197130   7.974   5.069   2.099 -0.9761 -1.7278 -1.0325
62784SOL    HW297131   8.066   4.963   2.042  0.9663 -0.4174 -0.4414
62785SOL     OW97132  11.159   8.662  10.344 -0.1870  0.0012 -0.4089
62785SOL    HW197133  11.208   8.731  10.300  0.0927  0.1369  0.1139
62785SOL    HW297134  11.194   8.581  10.307 -0.6698  0.1356 -1.1843
62786SOL     OW97135  11.576   1.429   7.681 -0.8894 -0.5734 -0.1617
62786SOL    HW197136  11.503   1.391   7.633  0.0264 -2.2557 -0.2811
62786SOL    HW297137  11.651   1.418   7.623 -0.3621  0.3663  0.3131
62787SOL     OW97138  12.418   7.527   9.285 -0.0911  0.0413  1.0294
62787SOL    HW197139  12.337   7.488   9.320  0.9501 -2.4409  0.8634
62787SOL    HW297140  12.488   7.475   9.324  1.4069  1.4535  0.3284
62788SOL     OW97141   8.377   3.679   9.460  0.0628 -0.3034 -0.0397
62788SOL    HW197142   8.333   3.594   9.463 -0.5635 -0.0013 -0.3604
62788SOL    HW297143   8.306   3.741   9.441  0.2121  0.4963  1.7911
62789SOL     OW97144   7.199  10.276   2.131 -0.9493 -0.4592  0.2562
62789SOL    HW197145   7.134  10.269   2.201 -2.3543 -0.5818 -1.0224
62789SOL    HW297146   7.240  10.189   2.128 -1.0335 -0.5206  0.7611
62790SOL     OW97147   8.223   7.271   3.289  0.3808  0.1525 -0.6660
62790SOL    HW197148   8.177   7.305   3.212  1.8126  3.0277 -0.4185
62790SOL    HW297149   8.165   7.290   3.363  0.3303  0.2394 -0.7279
62791SOL     OW97150   5.168   2.781  11.318  0.0888 -0.0365 -0.6426
62791SOL    HW197151   5.255   2.790  11.357  0.1747 -0.1192 -0.8160
62791SOL    HW297152   5.159   2.687  11.301 -1.4225 -0.6004  2.5783
62792SOL     OW97153  11.572   1.728   2.290 -1.0779  0.1043  0.1408
62792SOL    HW197154  11.550   1.797   2.228 -0.4881  0.6621  0.5298
62792SOL    HW297155  11.645   1.682   2.250 -1.5120 -0.3343 -0.1467
62793SOL     OW97156   4.918   3.176   7.498  0.4587 -0.3530  0.2292
62793SOL    HW197157   4.831   3.170   7.536  0.1658  0.3964 -0.2994
62793SOL    HW297158   4.905   3.159   7.404  1.0928 -1.6759  0.3619
62794SOL     OW97159   5.091   6.688   6.887  0.2121 -0.1009 -0.4423
62794SOL    HW197160   5.136   6.772   6.897  1.5679 -0.8210 -0.1268
62794SOL    HW297161   5.121   6.655   6.802 -3.4399  1.4596 -2.5595
62795SOL     OW97162   1.786  11.113   8.381  0.3808  0.1826  0.2765
62795SOL    HW197163   1.837  11.052   8.327 -0.1466  0.9997 -1.2158
62795SOL    HW297164   1.850  11.152   8.440  1.0808 -0.3663 -0.1048
62796SOL     OW97165   3.727  11.185   3.429 -0.0930 -0.2800  0.4862
62796SOL    HW197166   3.692  11.101   3.400 -0.7599  0.4579 -0.9938
62796SOL    HW297167   3.649  11.237   3.450  0.2010  0.5521 -0.3888
62797SOL     OW97168   5.641   3.440   3.105  0.2336  0.0821  0.8011
62797SOL    HW197169   5.646   3.347   3.083  0.2298  0.4018 -0.6077
62797SOL    HW297170   5.668   3.444   3.197 -2.0678 -1.6065  1.6518
62798SOL     OW97171   1.290   8.589   4.816 -0.0508 -0.1377 -0.1716
62798SOL    HW197172   1.268   8.678   4.843  0.8157  0.3268 -0.9211
62798SOL    HW297173   1.238   8.575   4.737 -2.3257 -1.3672  1.4225
62799SOL     OW97174   6.901   0.721   7.868 -0.4517  0.8912 -0.4975
62799SOL    HW197175   6.962   0.743   7.797 -0.0185 -1.4615 -0.9565
62799SOL    HW297176   6.818   0.704   7.823 -0.4069  0.2876 -0.3674
62800SOL     OW97177  12.192   3.027   1.240 -0.2186 -0.3801 -0.1870
62800SOL    HW197178  12.225   2.989   1.158  0.2936  0.7462 -0.5357
62800SOL    HW297179  12.119   2.971   1.266 -1.0259 -0.1986 -1.9419
62801SOL     OW97180   3.425   8.307   4.686  0.3029 -0.3133  0.2984
62801SOL    HW197181   3.488   8.294   4.615 -1.5896 -1.7557 -1.2421
62801SOL    HW297182   3.448   8.241   4.751  1.3796  0.2776  0.5352
62802SOL     OW97183   2.948  12.344   5.524  0.6421 -0.0062 -0.2729
62802SOL    HW197184   2.885  12.384   5.465  0.8128  1.1661  0.3135
62802SOL    HW297185   2.930  12.250   5.518 -0.1506  0.1915 -1.2410
62803SOL     OW97186   2.438   9.682   1.146 -0.6700 -0.2984  0.7686
62803SOL    HW197187   2.396   9.762   1.179 -1.0831 -0.6084  0.9970
62803SOL    HW297188   2.404   9.612   1.201 -1.0950 -0.7726 -0.0675
62804SOL     OW97189   3.797  10.056   0.365  0.2406 -0.3453 -0.7811
62804SOL    HW197190   3.721  10.110   0.388  0.5933  0.1561 -0.7608
62804SOL    HW297191   3.865  10.120   0.341  0.5510 -0.7979 -1.1144
62805SOL     OW97192   9.204   6.897   4.427  0.5081 -0.9579  0.3866
62805SOL    HW197193   9.224   6.920   4.518  0.6146 -1.5837  0.5218
62805SOL    HW297194   9.125   6.948   4.407  1.2505  0.2326  0.3848
62806SOL     OW97195   0.994  12.153   6.224 -0.0782 -0.4647  0.1447
62806SOL    HW197196   0.905  12.182   6.205 -0.1064 -0.8694 -0.3682
62806SOL    HW297197   1.037  12.149   6.138  1.3330  2.5610  0.5935
62807SOL     OW97198   1.693   2.285   2.718 -0.3846 -0.1401  0.0806
62807SOL    HW197199   1.750   2.253   2.788 -0.5467  1.5456  1.0305
62807SOL    HW297200   1.703   2.380   2.720 -1.0615  0.0031 -1.6327
62808SOL     OW97201   3.515  11.049   9.115  0.1882 -0.1362 -0.0396
62808SOL    HW197202   3.526  10.958   9.139  2.4541  0.3472  0.9987
62808SOL    HW297203   3.447  11.082   9.174 -0.7047 -1.1285 -0.4791
62809SOL     OW97204   4.183   1.704   8.690 -0.5424  0.2563  0.1613
62809SOL    HW197205   4.254   1.675   8.631 -0.5714 -0.1375  0.3180
62809SOL    HW297206   4.170   1.796   8.667  0.6056  0.5817  0.7102
62810SOL     OW97207  10.024  11.069   7.872 -0.3651 -0.1269  0.1929
62810SOL    HW197208   9.995  11.061   7.963  0.8749  0.5717  0.6706
62810SOL    HW297209  10.118  11.052   7.874 -0.3907 -0.5551 -1.0371
62811SOL     OW97210   7.691   7.270   9.880 -0.2473  0.1815 -0.3971
62811SOL    HW197211   7.615   7.311   9.922 -2.4889 -0.5005 -3.4481
62811SOL    HW297212   7.665   7.179   9.868  1.7779 -0.4872 -0.1033
62812SOL     OW97213   4.080   3.073   3.176  0.6043 -0.0349 -0.0480
62812SOL    HW197214   4.043   3.065   3.264 -0.0601  1.9502 -0.1060
62812SOL    HW297215   4.137   2.997   3.167  1.2870  0.1147  2.4013
62813SOL     OW97216   5.491   0.147   2.873 -0.2785 -0.6235  0.5881
62813SOL    HW197217   5.557   0.108   2.930  0.8118 -1.8976 -1.4374
62813SOL    HW297218   5.532   0.227   2.839 -0.5781 -0.3410  0.8830
62814SOL     OW97219   2.976   7.163   8.070  0.2391  0.4544 -0.1912
62814SOL    HW197220   2.984   7.206   7.985 -0.4274 -1.4235 -1.2593
62814SOL    HW297221   3.064   7.133   8.091  0.0538 -1.0466 -1.3591
62815SOL     OW97222   8.570   3.517   3.023 -0.2547  0.3860 -0.3454
62815SOL    HW197223   8.614   3.587   2.976  2.0689 -0.6342  0.1338
62815SOL    HW297224   8.566   3.444   2.960  0.9690 -0.3035  0.3378
62816SOL     OW97225   1.728   0.794   8.831  0.0059 -0.7566 -0.6366
62816SOL    HW197226   1.721   0.699   8.818  1.1497 -0.5318 -3.8374
62816SOL    HW297227   1.771   0.826   8.752 -1.9641  2.6936 -0.5199
62817SOL     OW97228   7.085   1.145   7.730  0.3992 -0.0868  0.1393
62817SOL    HW197229   7.095   1.089   7.807 -0.0357 -1.1567 -0.5406
62817SOL    HW297230   6.993   1.132   7.703  0.2514  1.0765  0.0410
62818SOL     OW97231   4.646   4.231   1.772 -0.0841  0.0608  0.0025
62818SOL    HW197232   4.608   4.170   1.708 -1.0076 -0.5606  1.0948
62818SOL    HW297233   4.703   4.176   1.826 -0.0832  0.3829  0.3329
62819SOL     OW97234   1.732   1.581  10.385 -0.5998  0.1988  0.0515
62819SOL    HW197235   1.721   1.676  10.383 -0.1822  0.2417 -0.5463
62819SOL    HW297236   1.824   1.568  10.408 -0.1500 -0.0120 -1.7063
62820SOL     OW97237   3.367   8.776  12.090  0.5956 -0.3791  0.1947
62820SOL    HW197238   3.389   8.809  12.004  0.4108  2.4742  1.1407
62820SOL    HW297239   3.451   8.769  12.136  0.4172  2.2990  1.0851
62821SOL     OW97240  10.735   6.188   5.279  0.0353  0.3663 -0.3100
62821SOL    HW197241  10.811   6.187   5.336 -0.2101 -0.1018  0.0194
62821SOL    HW297242  10.738   6.104   5.232 -0.3289  0.2970 -0.2180
62822SOL     OW97243   6.221   3.157  10.100  0.2509  0.2315 -0.5495
62822SOL    HW197244   6.171   3.214  10.042 -0.0537 -0.3742 -0.8854
62822SOL    HW297245   6.175   3.162  10.184 -1.1865 -1.3582 -1.1967
62823SOL     OW97246  11.060   0.271   5.060 -0.1667  0.3087 -0.6704
62823SOL    HW197247  11.081   0.358   5.025  0.0588  0.1240 -1.0076
62823SOL    HW297248  11.009   0.288   5.139  1.5418  0.7990  0.3985
62824SOL     OW97249   7.586   3.270   5.224  0.3389 -0.4140 -0.2482
62824SOL    HW197250   7.670   3.310   5.244  0.8439 -1.6425  0.1631
62824SOL    HW297251   7.535   3.280   5.305  0.8814 -1.6038  0.2666
62825SOL     OW97252   3.919   9.465   8.056 -0.1306  0.1812  0.2880
62825SOL    HW197253   4.001   9.427   8.023  1.5119  0.4724  3.5165
62825SOL    HW297254   3.898   9.534   7.994  1.2522 -0.8581 -1.4449
62826SOL     OW97255   5.154   2.193   1.296 -0.1997  0.0997 -0.3745
62826SOL    HW197256   5.137   2.099   1.294  0.1116  0.0556 -1.5425
62826SOL    HW297257   5.236   2.202   1.345  0.6871 -0.4069 -1.7072
62827SOL     OW97258   6.705   5.871   4.687  0.0531 -0.1534 -0.1259
62827SOL    HW197259   6.750   5.842   4.608 -1.0882  0.1853 -0.9348
62827SOL    HW297260   6.641   5.936   4.656 -0.9463 -0.5708  0.9661
62828SOL     OW97261   1.870   8.554   6.286 -0.2127  0.3014  0.6511
62828SOL    HW197262   1.927   8.492   6.333 -0.9752 -0.1522  0.9872
62828SOL    HW297263   1.781   8.524   6.305 -0.5558  0.5245 -0.5197
62829SOL     OW97264   6.307   6.221   3.091  0.8533 -0.8596 -0.1974
62829SOL    HW197265   6.280   6.162   3.161 -1.0765 -1.2015 -1.1748
62829SOL    HW297266   6.368   6.282   3.133  0.8574 -1.9273  1.4196
62830SOL     OW97267  12.297  11.878   9.395 -0.6470  0.4926 -0.1932
62830SOL    HW197268  12.273  11.956   9.447  1.7934  0.7355  0.7453
62830SOL    HW297269  12.281  11.805   9.454  4.2254  0.8878  2.1442
62831SOL     OW97270  10.663   6.549   8.951 -0.1641 -0.0947 -0.7260
62831SOL    HW197271  10.737   6.608   8.963  0.3427 -1.1341  1.9830
62831SOL    HW297272  10.657   6.537   8.856  0.1393  3.6373 -1.3699
62832SOL     OW97273  10.760   4.712   2.999 -0.4086 -0.2038 -0.2354
62832SOL    HW197274  10.688   4.737   3.057 -1.4097  0.3338 -1.6449
62832SOL    HW297275  10.828   4.778   3.015 -1.4387  1.0914 -1.0333
62833SOL     OW97276   6.839  12.482   6.009 -0.0342  0.5330  0.5131
62833SOL    HW197277   6.903  12.478   6.080 -0.4820 -1.4585  0.8583
62833SOL    HW297278   6.803  12.570   6.014  1.3876  1.0971  1.4527
62834SOL     OW97279   1.133   4.388   3.916  0.6429  0.0925  0.2658
62834SOL    HW197280   1.097   4.305   3.887 -3.0424  0.7836  2.2697
62834SOL    HW297281   1.171   4.370   4.002 -1.0398  0.5336  1.1559
62835SOL     OW97282   9.788   3.636   3.397 -0.8106  0.0356 -0.3991
62835SOL    HW197283   9.803   3.555   3.348 -2.5269 -0.8912  0.4757
62835SOL    HW297284   9.835   3.622   3.480 -0.9752 -0.0098 -0.3123
62836SOL     OW97285   2.618   3.800  12.048  0.0615 -0.0273 -0.9057
62836SOL    HW197286   2.649   3.735  12.111  0.5124  1.2243  0.2085
62836SOL    HW297287   2.619   3.754  11.964 -1.7935 -2.1522  0.1149
62837SOL     OW97288   8.891   6.219  10.345 -0.3274 -0.1090  0.3840
62837SOL    HW197289   8.882   6.221  10.441 -0.2536  2.0145  0.4026
62837SOL    HW297290   8.981   6.245  10.329 -0.4454 -0.0957 -0.2783
62838SOL     OW97291   2.351   0.064   7.806 -0.4857  0.2864  0.1784
62838SOL    HW197292   2.358   0.106   7.891  0.6308 -0.2702  0.3830
62838SOL    HW297293   2.291   0.120   7.756  0.5289  1.8243  0.6140
62839SOL     OW97294   6.154   4.792   5.631  0.0399 -0.3121 -0.3256
62839SOL    HW197295   6.175   4.699   5.644 -0.3544 -0.5373 -1.2205
62839SOL    HW297296   6.226   4.839   5.674 -0.3023 -0.9978  1.0870
62840SOL     OW97297   5.980   1.511   4.636  0.6235 -0.1124 -0.0270
62840SOL    HW197298   5.983   1.442   4.703  1.1233 -0.4299 -0.3681
62840SOL    HW297299   6.022   1.472   4.560 -0.1952  0.1516 -0.6292
62841SOL     OW97300   6.580   3.916   7.329 -0.3043  0.3945  0.0853
62841SOL    HW197301   6.536   3.954   7.405 -0.9103 -0.7254  0.3017
62841SOL    HW297302   6.666   3.960   7.327 -0.6368  1.0991  0.8579
62842SOL     OW97303   1.877   0.487   1.373  0.4911 -0.0307 -0.3331
62842SOL    HW197304   1.923   0.571   1.365  0.7032  0.0619  1.4897
62842SOL    HW297305   1.785   0.511   1.375  0.4233 -0.0451 -1.8765
62843SOL     OW97306   3.958  11.107   4.699 -0.2590 -0.5860  0.2313
62843SOL    HW197307   3.891  11.174   4.710 -0.0513 -0.5484  1.4057
62843SOL    HW297308   3.938  11.067   4.615 -1.0812  0.1693  0.0483
62844SOL     OW97309   9.154   8.256   2.070 -0.1057 -0.1103  0.3673
62844SOL    HW197310   9.211   8.320   2.028  1.2965 -2.2165 -1.0949
62844SOL    HW297311   9.198   8.234   2.152 -0.3099  0.3717  0.6095
62845SOL     OW97312  10.405   3.953   7.746  0.2996 -0.1999 -0.1222
62845SOL    HW197313  10.463   3.896   7.796  1.1990 -0.5079 -1.4835
62845SOL    HW297314  10.460   4.026   7.720  0.2311 -0.7336 -1.8415
62846SOL     OW97315   3.948  10.017   9.866  0.3716 -0.1567  0.2031
62846SOL    HW197316   3.853  10.020   9.875  0.4116 -0.0718  0.6202
62846SOL    HW297317   3.968  10.080   9.796  0.1742  0.2795  0.5414
62847SOL     OW97318   4.141  10.967   0.660 -0.4662 -0.1637 -0.0236
62847SOL    HW197319   4.163  10.944   0.570 -0.5076  1.4521 -0.4767
62847SOL    HW297320   4.221  11.005   0.696 -0.8157  0.3761  0.2030
62848SOL     OW97321   8.981   6.522   1.261 -0.3087 -0.0885  0.0677
62848SOL    HW197322   8.988   6.451   1.325 -1.0272  0.5875  0.9313
62848SOL    HW297323   9.071   6.544   1.240 -0.0765 -1.2305 -0.1893
62849SOL     OW97324   0.548   7.796  12.596  0.3619  0.8260  0.1906
62849SOL    HW197325   0.543   7.841  12.512 -0.1935  0.1303 -0.1486
62849SOL    HW297326   0.592   7.859  12.653 -0.6319  1.9162 -0.2030
62850SOL     OW97327   6.142   9.338   7.922  0.1750  0.6115  0.0465
62850SOL    HW197328   6.177   9.421   7.955 -0.3226  0.0538  2.1307
62850SOL    HW297329   6.048   9.354   7.913 -0.1309 -0.0491  1.6979
62851SOL     OW97330   7.382   8.374   3.981 -0.2116 -1.0700 -0.0110
62851SOL    HW197331   7.413   8.389   4.070 -2.3506 -0.5393  0.7076
62851SOL    HW297332   7.406   8.453   3.933  0.3509 -1.0636  0.2812
62852SOL     OW97333   2.511   9.194   2.592  0.1661  0.6704  0.4575
62852SOL    HW197334   2.579   9.254   2.622  0.9777 -0.3099  0.6706
62852SOL    HW297335   2.553   9.108   2.594 -1.5047 -0.1706  1.9352
62853SOL     OW97336  10.252   6.844   4.202  0.3186 -0.4015  0.6821
62853SOL    HW197337  10.203   6.919   4.171  0.6597  0.2353  1.6179
62853SOL    HW297338  10.274   6.865   4.293  0.5703 -1.5545  0.9151
62854SOL     OW97339  11.517   1.985   3.660 -0.9574 -0.1572 -0.4762
62854SOL    HW197340  11.529   2.063   3.605 -1.5311  0.5311  0.3445
62854SOL    HW297341  11.532   1.912   3.601  0.0210  0.5716 -1.1823
62855SOL     OW97342   7.083   2.294   2.674  0.1491  0.0882 -0.2423
62855SOL    HW197343   7.005   2.304   2.729 -0.1635 -0.1317 -0.6435
62855SOL    HW297344   7.105   2.383   2.647 -0.1277  0.1235 -0.3523
62856SOL     OW97345  11.681  12.366   8.302  0.1182 -0.5987 -0.8854
62856SOL    HW197346  11.770  12.379   8.270  0.1951  0.2595 -0.3405
62856SOL    HW297347  11.644  12.454   8.309 -0.1155 -0.7962  0.7601
62857SOL     OW97348   5.917  12.027   3.472 -0.1387 -0.0661  0.2704
62857SOL    HW197349   5.867  11.986   3.543 -1.2555 -0.7512 -0.8601
62857SOL    HW297350   5.952  12.108   3.509 -1.2603 -0.0850  1.3936
62858SOL     OW97351  10.299  10.308   3.844  0.4305  0.4565  0.3240
62858SOL    HW197352  10.233  10.269   3.786  0.1431  0.8891  0.3542
62858SOL    HW297353  10.298  10.252   3.922 -0.8815  1.2214  0.8927
62859SOL     OW97354   3.856   7.708   9.496  0.2645  0.3020 -0.3534
62859SOL    HW197355   3.849   7.780   9.433 -0.3727  0.4896 -0.0816
62859SOL    HW297356   3.950   7.694   9.505  0.4180  1.3391 -0.1485
62860SOL     OW97357  10.632   8.502  11.707  0.1321  0.4280 -0.1633
62860SOL    HW197358  10.619   8.575  11.768 -0.7176 -1.1941  1.7068
62860SOL    HW297359  10.727   8.495  11.699  0.4934 -0.9847  3.2978
62861SOL     OW97360  11.267   9.517   4.965  0.2462 -0.1296 -0.0196
62861SOL    HW197361  11.311   9.486   4.886  1.7458  0.3013  0.5973
62861SOL    HW297362  11.190   9.564   4.933 -0.3012 -1.6942 -1.1006
62862SOL     OW97363   3.379  10.979   6.090  0.1161 -0.1704  0.0269
62862SOL    HW197364   3.322  10.906   6.110 -0.6416  0.3912 -0.0218
62862SOL    HW297365   3.384  11.030   6.171 -0.6313  0.5545 -0.3608
62863SOL     OW97366  11.748   5.208   7.463 -0.0725  0.2905  0.2717
62863SOL    HW197367  11.760   5.298   7.432  0.5854  0.3801  0.7524
62863SOL    HW297368  11.709   5.219   7.550  2.9750  0.2794  1.7639
62864SOL     OW97369   9.954   6.270  12.272 -0.2077  0.0493  0.9418
62864SOL    HW197370  10.003   6.348  12.249 -0.4015 -0.3177 -0.8261
62864SOL    HW297371   9.904   6.295  12.350 -3.2831  3.0187 -1.7018
62865SOL     OW97372   0.896  12.008   0.243  0.0372 -0.0809  0.2733
62865SOL    HW197373   0.879  11.918   0.214  0.3626 -0.3101  0.7842
62865SOL    HW297374   0.810  12.051   0.239 -0.0666 -0.3276 -0.2587
62866SOL     OW97375  10.580   3.307  10.215 -0.3222 -0.3281 -0.0331
62866SOL    HW197376  10.668   3.314  10.177 -0.7369  0.3511 -0.8712
62866SOL    HW297377  10.562   3.395  10.248  0.7332 -1.2231  3.4018
62867SOL     OW97378   7.010   0.374  12.592  0.3357  0.8933  0.2237
62867SOL    HW197379   7.025   0.454  12.543  0.7841  0.3643 -0.5320
62867SOL    HW297380   7.040   0.304  12.534  0.1839  0.1933  0.9590
62868SOL     OW97381   2.484   2.834  11.419 -0.3318 -0.3520 -0.0150
62868SOL    HW197382   2.526   2.793  11.494 -0.1954  0.1894  0.2066
62868SOL    HW297383   2.405   2.874  11.454 -0.0694  0.2370 -0.0836
62869SOL     OW97384   3.200   4.497   7.548  0.3106 -0.1136 -0.0758
62869SOL    HW197385   3.107   4.522   7.548 -0.0220 -1.2651 -0.3736
62869SOL    HW297386   3.198   4.401   7.549  1.5093 -0.1436  0.4949
62870SOL     OW97387   4.208   6.762  11.077 -0.0847 -0.3685 -0.1726
62870SOL    HW197388   4.115   6.768  11.098 -0.1047 -0.0760 -0.3391
62870SOL    HW297389   4.210   6.738  10.984 -0.0021  1.1316 -0.5853
62871SOL     OW97390   9.276   5.797   9.979  0.3070 -0.0591 -0.4527
62871SOL    HW197391   9.190   5.840   9.978  0.1384 -0.3950 -0.5726
62871SOL    HW297392   9.286   5.761   9.891  0.3443 -0.4670 -0.2809
62872SOL     OW97393   7.498  11.199   2.338  0.1184 -0.2285  0.5420
62872SOL    HW197394   7.531  11.142   2.407  1.4398  1.1809  1.1415
62872SOL    HW297395   7.572  11.211   2.279  0.0562  1.2286  0.7054
62873SOL     OW97396   6.366   3.622   2.265 -0.3286 -0.5152 -0.3370
62873SOL    HW197397   6.369   3.534   2.302  2.7684  0.3266  1.7288
62873SOL    HW297398   6.398   3.612   2.175  1.3590 -1.3863  0.3205
62874SOL     OW97399   0.324   5.908  12.115  0.0862 -0.0343  0.0926
62874SOL    HW197400   0.319   5.995  12.075  0.4130  0.8357  1.8083
62874SOL    HW297401   0.286   5.849  12.050  0.5200  1.2765 -1.4219
62875SOL     OW97402   8.409   4.132   7.984  0.1809 -0.4179  0.3493
62875SOL    HW197403   8.318   4.110   8.008 -0.4689 -1.2778 -2.4761
62875SOL    HW297404   8.407   4.227   7.969 -0.6641 -0.6074 -0.9774
62876SOL     OW97405   2.122   1.862   7.847 -0.3165 -0.2500  0.1509
62876SOL    HW197406   2.051   1.920   7.821 -0.3175  0.4068  1.5102
62876SOL    HW297407   2.193   1.922   7.873  1.4213 -0.8480 -2.7020
62877SOL     OW97408   7.416  10.469   2.721 -0.0625 -0.2461 -0.6513
62877SOL    HW197409   7.330  10.495   2.687  0.9529  0.8455 -2.5692
62877SOL    HW297410   7.416  10.500   2.812 -1.5130  0.1501 -0.7579
62878SOL     OW97411   8.310   3.700   6.313 -0.0921  0.1586 -0.8588
62878SOL    HW197412   8.304   3.605   6.326  0.0923  0.2216 -0.3142
62878SOL    HW297413   8.358   3.710   6.230  1.4334 -0.1988 -0.0460
62879SOL     OW97414   8.129   7.975   7.935  0.4313  0.0314 -0.3179
62879SOL    HW197415   8.132   7.917   8.011 -3.2744  2.2519  1.8147
62879SOL    HW297416   8.203   8.034   7.947  1.4509 -1.2885  0.0705
62880SOL     OW97417  11.043   6.443   4.417 -0.8447  0.3143 -0.4056
62880SOL    HW197418  11.100   6.373   4.448  0.3503  0.1173 -2.8296
62880SOL    HW297419  10.994   6.404   4.344 -3.4686  0.7651  0.9892
62881SOL     OW97420   0.552   3.340   4.891 -0.9309 -0.0157  0.2414
62881SOL    HW197421   0.519   3.262   4.937 -0.0973 -0.9880 -0.7571
62881SOL    HW297422   0.503   3.412   4.929 -0.6281 -0.8315  2.3079
62882SOL     OW97423   1.431   0.284  10.778 -0.6068  0.0205  0.1585
62882SOL    HW197424   1.372   0.225  10.826 -0.9860 -0.3689 -0.7610
62882SOL    HW297425   1.456   0.234  10.700  0.8214  0.2464  0.4450
62883SOL     OW97426   0.969   2.615   3.089 -0.5044  0.1353 -0.4860
62883SOL    HW197427   1.034   2.646   3.152 -0.8081 -0.5430  0.1765
62883SOL    HW297428   0.967   2.520   3.101 -0.7884  0.0308 -1.3087
62884SOL     OW97429   6.490   6.907   4.604 -0.1755 -0.3637 -0.7360
62884SOL    HW197430   6.567   6.902   4.548 -0.4978  0.8101 -1.3121
62884SOL    HW297431   6.427   6.958   4.554 -0.5386  0.5694  0.6195
62885SOL     OW97432   6.462   8.922   0.421  0.9859  0.4033  0.1560
62885SOL    HW197433   6.475   8.949   0.330  0.6547  1.5495  0.4274
62885SOL    HW297434   6.515   8.843   0.430 -0.4202 -0.7853 -1.5086
62886SOL     OW97435   6.807   6.022   6.234  0.8462  0.3737 -0.8959
62886SOL    HW197436   6.897   6.056   6.229  1.1185  0.0467  0.9367
62886SOL    HW297437   6.818   5.929   6.250  0.2429  0.5344  0.6324
62887SOL     OW97438  12.363   3.072   9.382 -0.6006  0.0749 -0.2939
62887SOL    HW197439  12.311   3.124   9.444 -0.7989 -0.9233  0.3882
62887SOL    HW297440  12.432   3.133   9.353 -0.6042  0.6169  0.7704
62888SOL     OW97441   7.430   4.804  11.043 -0.2534  0.3018 -0.3355
62888SOL    HW197442   7.521   4.779  11.030  0.2523  1.9340 -0.1798
62888SOL    HW297443   7.405   4.765  11.126  0.9009  1.3499  0.5344
62889SOL     OW97444  10.345   5.822   3.317 -0.1137  0.1479  0.6603
62889SOL    HW197445  10.296   5.769   3.255  0.4171 -0.1528  0.4897
62889SOL    HW297446  10.307   5.800   3.402  0.1162 -0.5226  0.5916
62890SOL     OW97447   9.667   5.412  11.056  0.5130 -0.2571 -0.1527
62890SOL    HW197448   9.692   5.409  11.149 -1.2422  1.1295  0.4249
62890SOL    HW297449   9.728   5.474  11.017  0.2642  0.3844  0.4496
62891SOL     OW97450   8.260  11.250   4.303 -0.2551 -0.3840 -0.0207
62891SOL    HW197451   8.284  11.341   4.323  0.0982 -0.1683 -1.3474
62891SOL    HW297452   8.223  11.217   4.385  1.1142  0.4410  0.9678
62892SOL     OW97453   3.362  11.004   8.009 -0.7315  0.1692 -0.7391
62892SOL    HW197454   3.417  11.032   7.936 -0.0050  0.0435 -0.2504
62892SOL    HW297455   3.344  11.084   8.058  0.6374 -0.0465  0.1786
62893SOL     OW97456   0.446  10.026   9.816 -0.3295  0.4120 -0.4381
62893SOL    HW197457   0.419  10.086   9.747 -0.3310  0.2968 -0.5382
62893SOL    HW297458   0.462  10.082   9.892 -0.3332  0.5381 -0.5307
62894SOL     OW97459   1.847   2.844   6.751 -0.0124  0.2346 -0.0371
62894SOL    HW197460   1.869   2.794   6.830 -1.5009 -0.4172  0.0204
62894SOL    HW297461   1.816   2.928   6.784  4.4955  2.2159 -0.2098
62895SOL     OW97462  12.109   7.389   3.767  0.7605  0.1346 -0.0424
62895SOL    HW197463  12.087   7.476   3.799 -0.2971  0.0927 -0.6154
62895SOL    HW297464  12.160   7.404   3.688  0.1812  0.2516 -0.4035
62896SOL     OW97465   5.572   6.353   6.611  0.1364 -0.2243 -0.3241
62896SOL    HW197466   5.506   6.415   6.578  0.4389  0.3236  0.0870
62896SOL    HW297467   5.625   6.331   6.535 -0.2961 -0.3816 -0.5820
62897SOL     OW97468   3.702   1.834   0.803 -0.7843  0.1029  0.4624
62897SOL    HW197469   3.674   1.743   0.809 -0.2878 -0.1988 -1.1924
62897SOL    HW297470   3.641   1.873   0.740 -0.7881  0.8456  0.9135
62898SOL     OW97471  11.712   0.218   0.727 -0.2310  0.5215  0.4232
62898SOL    HW197472  11.748   0.246   0.643 -1.7451  1.1747 -0.0303
62898SOL    HW297473  11.775   0.152   0.759  0.6727  0.6933 -0.9237
62899SOL     OW97474   4.663   6.107  11.723  0.7521 -0.4467  0.0263
62899SOL    HW197475   4.683   6.188  11.771  0.3825 -1.2361  1.5732
62899SOL    HW297476   4.668   6.132  11.631  1.0720  1.2348  0.4659
62900SOL     OW97477  10.463   1.936   0.046 -0.4092 -0.9360  0.1766
62900SOL    HW197478  10.502   2.001  -0.013 -0.9166 -0.1138  0.7300
62900SOL    HW297479  10.530   1.867   0.053  0.6456  0.0749  0.4918
62901SOL     OW97480   6.000   9.846   2.037  0.3111  0.3875  0.1116
62901SOL    HW197481   6.070   9.906   2.010 -0.5012  2.0998  1.6355
62901SOL    HW297482   6.032   9.808   2.119  0.3565 -0.4814 -0.2977
62902SOL     OW97483   9.999  12.162   8.436 -0.5559  0.2065  0.5446
62902SOL    HW197484  10.081  12.124   8.403 -0.2690  0.0869  1.3791
62902SOL    HW297485   9.959  12.092   8.487 -1.2418  0.2342  0.0584
62903SOL     OW97486   1.977   5.787   9.818 -0.5974 -0.0121  0.0587
62903SOL    HW197487   2.021   5.786   9.902  0.0999 -2.0802 -0.2743
62903SOL    HW297488   2.028   5.728   9.763 -1.0403  1.2580 -1.8376
62904SOL     OW97489   0.248   7.369   5.191  0.1787 -0.0104  0.3556
62904SOL    HW197490   0.317   7.413   5.240 -0.2271 -0.8471  1.7316
62904SOL    HW297491   0.183   7.438   5.175  0.9573  0.5954 -0.2528
62905SOL     OW97492  10.215   1.262  10.743 -0.0579  0.7106  0.3122
62905SOL    HW197493  10.264   1.254  10.662  0.7643  2.3642  0.6024
62905SOL    HW297494  10.215   1.173  10.780  1.6501  0.4194 -0.2993
62906SOL     OW97495   7.205   2.878   3.638 -0.1474 -0.2289 -0.1240
62906SOL    HW197496   7.208   2.785   3.618  0.3400 -0.1523 -0.4322
62906SOL    HW297497   7.259   2.888   3.717 -0.7975 -0.3098  0.3340
62907SOL     OW97498   7.263   0.570   5.308  0.6877  0.0216  0.4722
62907SOL    HW197499   7.301   0.529   5.386  0.7789 -1.9805 -0.5528
62907SOL    HW297500   7.338   0.586   5.251  0.3748 -1.0139 -0.2647
62908SOL     OW97501   2.400  10.526   7.034 -0.0188 -0.4312 -0.2477
62908SOL    HW197502   2.340  10.523   6.960 -1.9433  0.6023  1.1506
62908SOL    HW297503   2.404  10.436   7.066 -1.9722 -0.3215  0.4285
62909SOL     OW97504   2.395  11.496   7.288 -0.4070 -0.1049 -0.1031
62909SOL    HW197505   2.337  11.459   7.222 -0.6614  0.9763 -0.5068
62909SOL    HW297506   2.482  11.495   7.247 -0.3424 -0.5938  0.0369
62910SOL     OW97507   6.310   1.086   1.820  0.3053 -0.4409  0.5051
62910SOL    HW197508   6.266   1.051   1.897 -0.7569 -0.3918 -0.0567
62910SOL    HW297509   6.297   1.019   1.752 -0.7191  0.4836 -0.2438
62911SOL     OW97510   8.286   3.580  10.477  0.3034  0.4349  0.4172
62911SOL    HW197511   8.347   3.559  10.407  2.1258  1.8083  1.4911
62911SOL    HW297512   8.254   3.668  10.456 -1.0154 -0.0899  0.1047
62912SOL     OW97513  11.541   2.189   5.551 -0.1107  0.4653  0.4681
62912SOL    HW197514  11.465   2.192   5.609  1.0596  0.9185  2.0446
62912SOL    HW297515  11.597   2.121   5.589 -0.1597 -0.6256 -1.2812
62913SOL     OW97516   5.644   5.596   9.002  0.3224  0.3504  0.2328
62913SOL    HW197517   5.600   5.587   9.086  0.5631 -0.1996  0.3075
62913SOL    HW297518   5.703   5.670   9.013 -0.4531  0.9883  0.1850
62914SOL     OW97519   4.499   2.540  10.938  0.7062 -0.1042 -0.2365
62914SOL    HW197520   4.427   2.481  10.913 -0.6724  1.2257  0.4699
62914SOL    HW297521   4.515   2.592  10.859 -2.2264  2.6537  0.7968
62915SOL     OW97522   0.198  12.202   1.707 -0.0598  0.2663  0.4097
62915SOL    HW197523   0.195  12.117   1.752 -0.5695 -0.1312 -0.3632
62915SOL    HW297524   0.274  12.195   1.649 -1.2474 -0.4242 -1.1166
62916SOL     OW97525   8.011  10.286   2.031  0.1309 -0.1389  0.2790
62916SOL    HW197526   7.917  10.299   2.022  0.1902  0.4716  0.5145
62916SOL    HW297527   8.020  10.216   2.096 -0.2372 -2.8310 -2.3429
62917SOL     OW97528   8.013   9.461   8.031 -0.0198 -0.0051  0.0047
62917SOL    HW197529   8.047   9.483   7.944 -0.4798  1.2285  0.1141
62917SOL    HW297530   7.945   9.396   8.014  0.2005 -0.1070 -0.5147
62918SOL     OW97531   0.937   1.519  12.248 -0.2396 -0.3130 -0.2296
62918SOL    HW197532   1.015   1.466  12.229  0.7543  0.2014  2.1250
62918SOL    HW297533   0.876   1.458  12.289 -0.7792 -0.5279 -1.3210
62919SOL     OW97534   5.175   0.722   2.343 -0.1075 -0.6869  0.3375
62919SOL    HW197535   5.111   0.652   2.360  0.9628 -1.3918  1.6464
62919SOL    HW297536   5.254   0.695   2.390  0.8294  0.6826 -0.3728
62920SOL     OW97537  10.905   9.583  10.528  0.2734  0.2465 -0.2156
62920SOL    HW197538  10.814   9.555  10.519  0.2323  0.5795 -0.9728
62920SOL    HW297539  10.956   9.505  10.507  0.1569  0.1726 -0.2209
62921SOL     OW97540   6.137   2.216   1.033 -0.4216  0.1827  0.4599
62921SOL    HW197541   6.193   2.236   1.108 -2.3347  2.7022  1.3722
62921SOL    HW297542   6.102   2.301   1.006 -0.8860 -0.8184 -2.4794
62922SOL     OW97543   1.958   5.142   1.578  0.2490  0.0705  0.1776
62922SOL    HW197544   1.936   5.146   1.671  0.0434  0.7028  0.1087
62922SOL    HW297545   2.049   5.112   1.577 -0.1872 -1.3292  0.5112
62923SOL     OW97546   1.316   4.966   3.651 -0.0906  0.4401  0.3117
62923SOL    HW197547   1.384   4.972   3.719  2.2212  0.2747 -1.8318
62923SOL    HW297548   1.322   5.049   3.604 -0.7909  0.0758 -0.4464
62924SOL     OW97549   7.166   8.010   4.804  0.0476  0.5878  0.3783
62924SOL    HW197550   7.183   8.017   4.898 -0.3510 -0.4076  0.5394
62924SOL    HW297551   7.134   8.096   4.778  1.7193  1.3931  0.8126
62925SOL     OW97552   2.769   5.507  12.456 -0.5972 -0.3641  0.0089
62925SOL    HW197553   2.728   5.467  12.532 -0.9364 -0.4059 -0.1908
62925SOL    HW297554   2.695   5.536  12.402 -0.3621  0.5774  0.1734
62926SOL     OW97555   4.315  11.987   3.266 -0.6561 -0.4437  0.5608
62926SOL    HW197556   4.263  11.955   3.193 -1.0865  1.0214  0.1796
62926SOL    HW297557   4.363  11.911   3.298  0.0030 -1.0022 -1.6246
62927SOL     OW97558   7.685   9.941   2.881  0.5006 -0.0799  0.2959
62927SOL    HW197559   7.777   9.920   2.899  0.8950  0.9101 -0.4580
62927SOL    HW297560   7.675  10.031   2.911  0.3769  0.5557 -1.5338
62928SOL     OW97561   4.130   9.834   2.465  0.7210 -0.2995  0.0165
62928SOL    HW197562   4.081   9.851   2.545 -1.0979 -0.5463 -0.9839
62928SOL    HW297563   4.188   9.761   2.487 -0.6197 -1.1641  0.8047
62929SOL     OW97564   8.911   9.342   8.300 -0.0051  0.5437 -0.0542
62929SOL    HW197565   8.895   9.410   8.236 -1.0694  0.6670  0.3216
62929SOL    HW297566   8.919   9.388   8.384 -1.3695  0.1964  0.3032
62930SOL     OW97567   2.061   5.762   4.073  0.2992  0.2082 -0.3112
62930SOL    HW197568   2.027   5.730   4.157 -0.0736  0.0652 -0.5171
62930SOL    HW297569   2.154   5.777   4.090  0.1858  0.3764  0.1854
62931SOL     OW97570   4.029  10.595  10.386 -0.8845  0.3501 -0.2206
62931SOL    HW197571   4.105  10.592  10.443 -0.4122  0.1860 -0.8538
62931SOL    HW297572   4.059  10.557  10.303 -1.0947  2.0680 -1.1271
62932SOL     OW97573   2.611   4.287   8.652  0.1543 -0.6055  0.1686
62932SOL    HW197574   2.548   4.359   8.646  1.5888  0.5402 -2.2515
62932SOL    HW297575   2.621   4.272   8.746 -0.9179  1.6957  0.7073
62933SOL     OW97576   5.479   1.724  11.302 -0.1199 -0.3590 -0.2919
62933SOL    HW197577   5.541   1.767  11.361 -1.8670 -0.9366  2.1087
62933SOL    HW297578   5.480   1.632  11.328 -0.2966 -0.8284 -1.8099
62934SOL     OW97579   6.897   0.333   3.823 -0.2848 -0.1737 -0.2653
62934SOL    HW197580   6.876   0.290   3.906  1.5612 -0.1520  0.2595
62934SOL    HW297581   6.859   0.277   3.756 -0.5986 -0.9460  0.5424
62935SOL     OW97582   5.548   7.682   3.001 -0.0394  0.4920  0.5547
62935SOL    HW197583   5.487   7.717   3.066 -2.7567 -0.0230 -1.5364
62935SOL    HW297584   5.564   7.755   2.942  0.1343  0.1898  0.2294
62936SOL     OW97585  12.400  10.521   3.553 -0.2698 -0.2438  0.3622
62936SOL    HW197586  12.383  10.453   3.488 -0.1974 -1.0666  1.1862
62936SOL    HW297587  12.327  10.514   3.614 -0.0175  0.1231  0.7080
62937SOL     OW97588   5.623   6.841   7.148  0.2233  0.2760 -0.3998
62937SOL    HW197589   5.621   6.936   7.143 -0.2592  0.2447 -0.8445
62937SOL    HW297590   5.708   6.821   7.188 -0.0479  0.9246  0.5288
62938SOL     OW97591   7.170  11.346   4.831 -0.1425 -0.1343 -0.0879
62938SOL    HW197592   7.234  11.404   4.790  1.5988 -1.8152  0.0885
62938SOL    HW297593   7.216  11.263   4.842 -2.0764 -1.1587  0.9370
62939SOL     OW97594   2.099   3.079   8.176  0.8226 -0.0340  0.7014
62939SOL    HW197595   2.039   3.102   8.247  0.3710  0.8370  0.0621
62939SOL    HW297596   2.084   2.986   8.160 -0.4467  0.1878  0.4930
62940SOL     OW97597   1.753   4.871   5.804  0.4026 -0.0152 -0.2536
62940SOL    HW197598   1.846   4.885   5.787  0.8868  0.8312  2.6091
62940SOL    HW297599   1.718   4.958   5.820 -0.9940 -0.2912 -1.5870
62941SOL     OW97600  12.065   1.855   4.471  0.4794 -0.2518 -0.8878
62941SOL    HW197601  12.076   1.822   4.383  0.2773 -0.0050 -1.0093
62941SOL    HW297602  11.983   1.816   4.502 -0.3504  0.9792 -1.4412
62942SOL     OW97603   7.913   2.609   1.198  0.0459 -0.0427  0.2261
62942SOL    HW197604   7.919   2.651   1.113  1.4878 -0.5350  0.0532
62942SOL    HW297605   7.820   2.614   1.221 -0.3821  0.0652 -1.3853
62943SOL     OW97606   0.782   6.193   1.886  0.2075 -0.1284  0.1429
62943SOL    HW197607   0.825   6.146   1.958  0.8188  0.1107 -0.0602
62943SOL    HW297608   0.691   6.204   1.916  0.0509 -1.4230  0.1910
62944SOL     OW97609  12.058   7.839   0.994 -0.2570  0.1474  0.3453
62944SOL    HW197610  12.008   7.797   1.064 -0.6091  0.3365  0.2084
62944SOL    HW297611  12.063   7.931   1.019  2.4176 -0.2876  1.7812
62945SOL     OW97612   7.695   1.343   5.791  0.0956 -0.2747 -0.2998
62945SOL    HW197613   7.781   1.380   5.774 -0.8999  1.3304 -2.2870
62945SOL    HW297614   7.661   1.394   5.865  0.4595 -0.2480 -0.1522
62946SOL     OW97615   9.520   4.229   0.182  0.4057  0.5264 -0.0394
62946SOL    HW197616   9.461   4.228   0.107  1.9120  1.0344 -1.2973
62946SOL    HW297617   9.488   4.301   0.236  0.6665  1.7220 -1.4060
62947SOL     OW97618   3.171   8.667   9.893 -0.1976  0.2546 -0.1335
62947SOL    HW197619   3.212   8.720   9.825 -0.8249  0.9180 -0.0168
62947SOL    HW297620   3.224   8.587   9.898  0.5483  0.7146 -0.5689
62948SOL     OW97621   9.440  12.031   2.118 -0.1126 -0.3944  0.3028
62948SOL    HW197622   9.521  12.071   2.149 -0.8307  0.1619  1.5333
62948SOL    HW297623   9.370  12.088   2.152 -0.9958 -0.2067 -1.6900
62949SOL     OW97624   3.452   0.290  12.085 -0.6070 -0.5486 -0.0673
62949SOL    HW197625   3.498   0.342  12.019  0.3304 -0.4860  0.6172
62949SOL    HW297626   3.436   0.352  12.157 -0.6036 -0.8927  0.2327
62950SOL     OW97627   4.999   4.644   5.153 -0.2236  0.2204  1.0551
62950SOL    HW197628   5.078   4.607   5.193  0.3350  0.3727  0.1396
62950SOL    HW297629   4.976   4.580   5.085 -1.0299  0.0674  1.4673
62951SOL     OW97630   8.982   8.438   2.565 -0.6170  1.1483 -0.0100
62951SOL    HW197631   8.910   8.486   2.525 -0.2376  1.3260 -0.4923
62951SOL    HW297632   8.963   8.346   2.546 -1.4281  1.0861  1.0594
62952SOL     OW97633   4.253   6.395   6.858 -0.3230 -0.6590  0.0586
62952SOL    HW197634   4.162   6.372   6.842 -0.3982  0.6856 -1.8057
62952SOL    HW297635   4.288   6.322   6.909 -2.9822 -0.1720  2.8717
62953SOL     OW97636  11.183   1.160   2.104 -0.5318  0.0523  0.2039
62953SOL    HW197637  11.222   1.221   2.042 -0.2699 -1.0484 -0.7554
62953SOL    HW297638  11.223   1.183   2.188  0.5076  0.3957 -0.3602
62954SOL     OW97639   2.844   4.474   4.933  0.3410  0.2370  0.6766
62954SOL    HW197640   2.898   4.417   4.880 -0.4633  0.6194 -0.5869
62954SOL    HW297641   2.817   4.545   4.874 -0.7297  0.5722  1.5211
62955SOL     OW97642   6.016   4.709  11.276 -0.1575  0.4235 -0.5065
62955SOL    HW197643   6.030   4.618  11.303  0.4633  0.2891 -1.2713
62955SOL    HW297644   6.001   4.755  11.359 -0.1931 -0.3160 -0.0842
62956SOL     OW97645  11.052   1.026   3.547  0.1408  0.3739  0.6129
62956SOL    HW197646  11.086   1.063   3.466  2.0233 -0.1060  1.1534
62956SOL    HW297647  10.961   1.056   3.551 -0.0995  0.1389 -1.8209
62957SOL     OW97648   8.319   3.891   4.932 -0.8350 -0.0588  0.2447
62957SOL    HW197649   8.330   3.888   5.027 -0.3154  0.3927  0.2017
62957SOL    HW297650   8.290   3.802   4.909 -0.3282 -0.3681  0.7501
62958SOL     OW97651   1.913   4.586   3.777 -0.0337  0.1522 -0.2670
62958SOL    HW197652   1.891   4.499   3.811 -0.4691  0.2240 -0.3677
62958SOL    HW297653   1.841   4.608   3.719  1.0559 -0.3076 -1.8656
62959SOL     OW97654   5.814  11.015   9.266 -0.0637  0.0643 -0.3900
62959SOL    HW197655   5.734  10.986   9.222  0.4103  0.8342 -1.8143
62959SOL    HW297656   5.787  11.092   9.316  0.2104  1.7820 -2.7527
62960SOL     OW97657  11.828   0.608  10.945 -0.4782  0.1366 -0.0391
62960SOL    HW197658  11.846   0.517  10.921 -2.0734 -0.3097  0.3316
62960SOL    HW297659  11.790   0.602  11.033 -0.2373  1.1951  0.1387
62961SOL     OW97660   1.257   9.079   4.402 -0.0767 -0.2174 -0.0115
62961SOL    HW197661   1.230   9.067   4.311 -0.3292 -0.6921  0.1219
62961SOL    HW297662   1.234   8.997   4.445  0.4141 -0.1538  0.3909
62962SOL     OW97663   5.741   1.161  12.577  0.9409  0.6142  0.1897
62962SOL    HW197664   5.809   1.094  12.579 -0.8118 -1.2612  1.6201
62962SOL    HW297665   5.766   1.223  12.646  1.2981  0.0570  0.5661
62963SOL     OW97666   1.832  12.408   3.234  0.0681  0.2431 -0.5061
62963SOL    HW197667   1.879  12.353   3.171  1.4323  1.2131 -0.3718
62963SOL    HW297668   1.837  12.496   3.198  0.5185  0.7582  0.7555
62964SOL     OW97669   3.868   0.461   7.475  0.1886  0.5487  0.0884
62964SOL    HW197670   3.934   0.530   7.463  1.1081 -0.6322 -2.2150
62964SOL    HW297671   3.910   0.398   7.533  1.3236 -0.3684 -1.6394
62965SOL     OW97672   3.579   4.625   1.605  0.1490  0.8989 -0.8892
62965SOL    HW197673   3.650   4.670   1.651 -1.3993  1.1094  1.5154
62965SOL    HW297674   3.614   4.539   1.582  0.7903  0.4425  1.5537
62966SOL     OW97675   7.060  10.416  12.580  0.4119  0.3788  0.1191
62966SOL    HW197676   7.094  10.397  12.667  1.4393 -0.5660 -0.4651
62966SOL    HW297677   7.097  10.502  12.558  1.1862  0.0563  0.1202
62967SOL     OW97678   1.839   7.759   8.031  0.8756  0.0649 -0.3685
62967SOL    HW197679   1.807   7.820   7.965  0.2733  0.5310  0.3402
62967SOL    HW297680   1.886   7.814   8.093  0.6630 -0.2417  0.0663
62968SOL     OW97681  10.982   5.226   2.227 -0.4137  0.2058 -0.2470
62968SOL    HW197682  10.893   5.260   2.218 -0.0582  0.9194 -1.1345
62968SOL    HW297683  11.034   5.301   2.256  0.0255 -0.0422 -0.3769
62969SOL     OW97684  10.707   5.582  11.151 -0.2542  0.3495  0.3187
62969SOL    HW197685  10.645   5.626  11.209 -1.5428 -0.8315 -0.1122
62969SOL    HW297686  10.789   5.629  11.164 -1.2206  1.9436  0.9171
62970SOL     OW97687   5.444  11.346   4.940 -0.0038 -0.2338 -0.0415
62970SOL    HW197688   5.499  11.280   4.983  0.0779 -0.5381 -0.5917
62970SOL    HW297689   5.356  11.309   4.942 -0.1902  0.2501  0.8313
62971SOL     OW97690  10.073   2.653   1.304 -0.4796  0.4258  0.3686
62971SOL    HW197691  10.138   2.686   1.367  0.7145 -0.6318 -0.2551
62971SOL    HW297692  10.055   2.727   1.247 -1.0988  1.2179  1.5492
62972SOL     OW97693  10.881   0.203  10.401  0.0005  0.0811 -0.2625
62972SOL    HW197694  10.973   0.215  10.427  0.4040 -1.2667 -0.9690
62972SOL    HW297695  10.879   0.226  10.308 -0.4726  0.4702 -0.1606
62973SOL     OW97696   8.605   8.003   1.700 -0.2710 -0.0267 -0.4175
62973SOL    HW197697   8.579   7.918   1.735 -0.6537  0.7259  1.2512
62973SOL    HW297698   8.662   8.040   1.768  0.0488  0.9609 -1.2033
62974SOL     OW97699   1.494   9.423   9.115 -0.3585 -0.5953 -0.2795
62974SOL    HW197700   1.574   9.395   9.071 -0.6307 -3.9563  1.1207
62974SOL    HW297701   1.517   9.425   9.208 -1.0841  1.7212 -0.0700
62975SOL     OW97702   4.274   6.179   5.436  0.0587 -0.2192  0.2124
62975SOL    HW197703   4.231   6.094   5.428  0.5702 -0.4546 -0.0133
62975SOL    HW297704   4.357   6.161   5.480  0.9353 -0.0921 -1.3125
62976SOL     OW97705   9.092   7.082   7.050  0.6793 -0.4495 -0.0262
62976SOL    HW197706   9.145   7.064   6.973  2.9660 -1.5438  1.6917
62976SOL    HW297707   9.033   7.006   7.056  1.2839 -0.9333 -0.0724
62977SOL     OW97708  11.247   2.266  10.683  0.3746 -0.8287 -0.7959
62977SOL    HW197709  11.196   2.342  10.711  0.8031 -0.4515 -1.0241
62977SOL    HW297710  11.336   2.299  10.676  0.5772 -1.3778 -0.8165
62978SOL     OW97711   9.812   9.845  11.571 -0.4146 -0.0976  0.1577
62978SOL    HW197712   9.900   9.808  11.576 -0.5099 -0.2094  1.1447
62978SOL    HW297713   9.760   9.776  11.528 -0.0643 -0.1068 -0.2527
62979SOL     OW97714  11.705   6.147  10.497  0.2816 -0.4209 -0.4539
62979SOL    HW197715  11.655   6.115  10.422  0.4880 -0.3496 -0.6237
62979SOL    HW297716  11.781   6.191  10.458  0.6877 -0.8839 -0.1885
62980SOL     OW97717  12.401   8.623  10.257  0.5748 -0.5366  0.8034
62980SOL    HW197718  12.459   8.663  10.192 -0.3513  0.1022  0.3412
62980SOL    HW297719  12.451   8.625  10.339  0.8450  0.8770  0.6326
62981SOL     OW97720   7.852   9.835   0.624  0.2958  0.9392 -0.0429
62981SOL    HW197721   7.806   9.841   0.539 -0.9596  1.2742  0.6307
62981SOL    HW297722   7.820   9.911   0.673 -0.4208 -0.2414  1.3933
62982SOL     OW97723  11.974   6.529   2.371 -1.0513  0.0477  0.4179
62982SOL    HW197724  11.891   6.560   2.335 -1.2687 -0.5571  0.4003
62982SOL    HW297725  12.026   6.609   2.383 -0.9659  0.2727 -1.2266
62983SOL     OW97726   3.551   8.543   3.528 -0.8080  0.3775  0.6217
62983SOL    HW197727   3.564   8.524   3.621 -0.8249 -0.2986  0.4877
62983SOL    HW297728   3.639   8.536   3.490 -0.7230  1.1050  0.6563
62984SOL     OW97729   4.365   6.918   2.004  0.3319  0.1668  0.3273
62984SOL    HW197730   4.339   6.839   1.956 -0.6342 -0.2574  1.5085
62984SOL    HW297731   4.358   6.988   1.939 -1.4636 -0.3144 -0.0648
62985SOL     OW97732   4.256   2.240   0.106  0.1335  0.0857 -0.5630
62985SOL    HW197733   4.309   2.258   0.183 -2.9090 -0.9930  1.9915
62985SOL    HW297734   4.196   2.315   0.100 -1.0147 -0.8090 -0.5724
62986SOL     OW97735   2.238   0.898   5.762 -0.3669 -0.3451  0.6981
62986SOL    HW197736   2.311   0.846   5.727 -1.0801 -0.5826 -0.4497
62986SOL    HW297737   2.166   0.836   5.769 -0.7294  0.1047  0.9780
62987SOL     OW97738   3.641   6.390  12.059  0.0663 -0.3241 -0.3442
62987SOL    HW197739   3.669   6.362  12.146 -0.6201 -0.2973 -0.1041
62987SOL    HW297740   3.621   6.483  12.069  0.5208 -0.1911 -0.6694
62988SOL     OW97741   6.425   5.238   8.529  0.2354  0.6850 -0.0607
62988SOL    HW197742   6.489   5.219   8.598 -0.6547 -0.6285  0.4418
62988SOL    HW297743   6.386   5.321   8.555 -0.3632  0.0230  1.2728
62989SOL     OW97744   6.975   7.254   6.824  0.2757 -0.0119 -0.1021
62989SOL    HW197745   6.906   7.259   6.758  1.1079  1.4533 -0.9256
62989SOL    HW297746   6.951   7.180   6.879 -0.7405 -0.9474 -1.7269
62990SOL     OW97747   7.223   8.507   9.737  0.5564 -0.0978  0.1738
62990SOL    HW197748   7.131   8.529   9.719  1.1602  1.1985 -1.5803
62990SOL    HW297749   7.252   8.460   9.658  1.9322  1.3399 -0.2395
62991SOL     OW97750   5.008   0.694   2.617  0.0803  0.3774  0.4643
62991SOL    HW197751   5.059   0.758   2.667  0.9675 -0.1554  0.2579
62991SOL    HW297752   5.003   0.617   2.674 -1.0689  0.6500  0.7552
62992SOL     OW97753   6.891   3.910   0.222 -0.2089 -0.2989  0.3897
62992SOL    HW197754   6.865   3.862   0.300 -0.0350  0.9488  1.2543
62992SOL    HW297755   6.975   3.949   0.245 -0.2905  0.3261 -0.3173
62993SOL     OW97756   6.430   6.701   5.543  0.4382  0.2366  0.0937
62993SOL    HW197757   6.365   6.676   5.609 -0.4464 -0.1941 -0.8941
62993SOL    HW297758   6.403   6.788   5.515  0.2737  0.0596 -0.3131
62994SOL     OW97759   9.544   2.789  12.389  0.6981 -0.0925 -0.3426
62994SOL    HW197760   9.616   2.733  12.359  1.1490  0.3407 -0.0919
62994SOL    HW297761   9.521   2.754  12.475  0.4926 -0.3414 -0.5004
62995SOL     OW97762  12.347  10.665   5.291 -0.0488 -0.6163  0.1344
62995SOL    HW197763  12.373  10.573   5.300  1.3283 -0.1445  1.3009
62995SOL    HW297764  12.426  10.710   5.264 -0.9164  0.1439 -1.2946
62996SOL     OW97765   5.676   5.791  11.414  0.3518 -0.3600  0.3266
62996SOL    HW197766   5.703   5.835  11.333 -1.3633  0.0392 -0.0710
62996SOL    HW297767   5.638   5.861  11.467 -0.7585 -1.0307  0.4386
62997SOL     OW97768  10.786  11.403   7.705 -0.1266 -0.6916 -0.0314
62997SOL    HW197769  10.713  11.424   7.646 -2.0070 -1.6503  1.8300
62997SOL    HW297770  10.842  11.481   7.701 -1.4439  0.2609 -1.2371
62998SOL     OW97771   3.712   1.512   1.357  0.2517 -0.2802 -0.1322
62998SOL    HW197772   3.717   1.561   1.438 -2.4058 -1.2487  0.7118
62998SOL    HW297773   3.699   1.421   1.384 -0.1418 -0.7076 -1.6356
62999SOL     OW97774   6.073   4.590   2.704  0.0068 -0.3470  0.0639
62999SOL    HW197775   6.088   4.573   2.797  1.4939 -1.3394 -0.3157
62999SOL    HW297776   5.978   4.582   2.693 -0.2958  0.6815  1.6413
63000SOL     OW97777   4.053   5.667  12.335  0.0969  0.4144  0.3462
63000SOL    HW197778   4.099   5.644  12.254  2.6687 -0.8783  2.0110
63000SOL    HW297779   4.002   5.589  12.356  0.0053  0.4797  0.3703
63001SOL     OW97780   4.545   7.586   4.836 -0.9018  0.5092 -0.4586
63001SOL    HW197781   4.483   7.516   4.854  1.0239 -1.0350  0.4861
63001SOL    HW297782   4.626   7.558   4.878  0.3797  2.5825 -1.3972
63002SOL     OW97783  11.183  10.628   9.492  0.2082  0.0521  0.0701
63002SOL    HW197784  11.233  10.681   9.554 -0.1132  0.8607 -0.3355
63002SOL    HW297785  11.241  10.556   9.468 -0.1929 -1.1410  2.4256
63003SOL     OW97786   4.821   7.216   6.009  0.2957 -0.2715 -0.0854
63003SOL    HW197787   4.868   7.218   5.926 -0.4363 -2.3132 -0.6134
63003SOL    HW297788   4.736   7.255   5.989 -0.4508 -2.1388 -0.7437
63004SOL     OW97789   8.084   0.655   2.349 -0.0800 -0.1256  0.2238
63004SOL    HW197790   8.069   0.579   2.405  0.3304 -1.5333 -1.5159
63004SOL    HW297791   8.179   0.665   2.348 -0.1833  1.5481  1.8372
63005SOL     OW97792   2.986  12.472   5.755  0.8433 -0.4421 -0.0032
63005SOL    HW197793   2.974  12.443   5.664 -1.7956 -1.4140  0.5567
63005SOL    HW297794   3.054  12.415   5.790  1.5900 -0.3416 -1.2302
63006SOL     OW97795   4.930   2.315   0.778  0.1153 -0.3530 -0.3452
63006SOL    HW197796   4.960   2.338   0.866 -0.2656 -1.0325 -0.0334
63006SOL    HW297797   4.957   2.224   0.766 -0.4256 -0.4722 -0.6783
63007SOL     OW97798   3.914   9.595   0.570 -0.2066 -0.6165 -0.0113
63007SOL    HW197799   3.898   9.644   0.489  1.9249  5.4117  2.6010
63007SOL    HW297800   4.003   9.562   0.561  0.6188  1.3756  0.2249
63008SOL     OW97801   1.089   9.570   4.370  0.5691 -0.3499  0.2202
63008SOL    HW197802   1.044   9.486   4.358  2.1731 -1.2561  0.2359
63008SOL    HW297803   1.154   9.553   4.438  2.0985  0.4004 -0.9724
63009SOL     OW97804   7.559  10.044   6.943  0.2943 -0.3557 -0.1927
63009SOL    HW197805   7.544  10.057   7.037  1.0476 -0.5296 -0.0424
63009SOL    HW297806   7.560   9.948   6.932 -0.2951 -0.3330 -0.4639
63010SOL     OW97807  10.080   1.739   2.841 -0.1798  0.7079 -0.1483
63010SOL    HW197808  10.175   1.744   2.851 -0.2396  0.5586  0.5578
63010SOL    HW297809  10.050   1.694   2.920 -0.7044 -0.6395 -1.0732
63011SOL     OW97810   8.690   6.145   0.041 -0.2835  0.2887  0.0394
63011SOL    HW197811   8.669   6.116  -0.048  1.2991 -2.4800  0.4290
63011SOL    HW297812   8.629   6.098   0.097 -0.5460  1.1485  0.4783
63012SOL     OW97813   2.702   7.352  11.218 -0.3486 -0.0076  0.6516
63012SOL    HW197814   2.658   7.362  11.134  1.1894  0.5302 -0.1447
63012SOL    HW297815   2.708   7.442  11.253 -1.3005 -0.2664  1.5324
63013SOL     OW97816  12.520   3.856  10.538  0.1451  0.3129  0.3500
63013SOL    HW197817  12.577   3.833  10.464  2.5889  4.4956  0.6312
63013SOL    HW297818  12.437   3.881  10.497  0.3634 -0.4990 -0.6460
63014SOL     OW97819   8.091   7.932   4.600  0.0504 -0.2074 -0.4978
63014SOL    HW197820   8.110   8.010   4.547 -0.8301  0.0034 -0.5271
63014SOL    HW297821   8.013   7.956   4.650  1.3683 -0.0756  1.6018
63015SOL     OW97822   9.447   8.827  12.176 -0.3175  0.0391 -0.7267
63015SOL    HW197823   9.436   8.910  12.222 -1.8909 -0.5218 -0.0015
63015SOL    HW297824   9.426   8.761  12.242  2.1435 -1.0229 -0.9252
63016SOL     OW97825  11.383   7.016  12.479 -0.4757 -0.0482 -0.0345
63016SOL    HW197826  11.381   7.094  12.424  1.0024  0.8215  1.0528
63016SOL    HW297827  11.395   6.943  12.418  1.6723  0.9378 -0.8984
63017SOL     OW97828   9.439  12.510   5.673  0.0904 -0.4121 -0.5376
63017SOL    HW197829   9.440  12.507   5.769 -0.6265  1.1167 -0.4519
63017SOL    HW297830   9.529  12.535   5.649 -0.2569  1.3794 -0.1182
63018SOL     OW97831  12.446   5.423   0.048  0.0071 -0.2684  0.0622
63018SOL    HW197832  12.431   5.329   0.036  1.3630 -0.4808 -0.1530
63018SOL    HW297833  12.400   5.464  -0.025 -0.7096 -0.7363  0.2308
63019SOL     OW97834  12.451   9.887   3.482 -1.2713  0.1439 -0.3560
63019SOL    HW197835  12.537   9.866   3.448 -1.6321  0.3102 -1.4040
63019SOL    HW297836  12.390   9.856   3.416 -1.9707  0.9371 -0.1084
63020SOL     OW97837   4.076   5.952   6.807 -0.6220 -0.1912  0.5213
63020SOL    HW197838   4.113   5.870   6.838 -0.0662 -0.3009 -0.4117
63020SOL    HW297839   4.152   6.007   6.787 -0.9713  0.1241  0.0352
63021SOL     OW97840   0.917   6.222  10.743  0.6286  0.4126  0.5642
63021SOL    HW197841   0.889   6.150  10.799 -1.3136 -0.2129 -1.0817
63021SOL    HW297842   0.872   6.299  10.778 -0.2980  0.0888  0.1268
63022SOL     OW97843   5.174   3.225   8.605 -0.1484 -0.4095  0.0427
63022SOL    HW197844   5.141   3.312   8.584 -0.9225 -0.8764 -0.7241
63022SOL    HW297845   5.266   3.239   8.627  0.9916  0.1015 -4.2287
63023SOL     OW97846   1.523  11.610   7.976  0.3209  0.3824 -0.2787
63023SOL    HW197847   1.603  11.596   7.926 -0.9244  0.2588 -2.3454
63023SOL    HW297848   1.487  11.523   7.988  0.2691  0.4783  0.2788
63024SOL     OW97849  10.498   7.291  11.673  0.2534 -0.0173 -0.5223
63024SOL    HW197850  10.510   7.294  11.767  0.2609  0.9933 -0.5473
63024SOL    HW297851  10.410   7.328  11.659 -0.3681 -1.5069 -0.8117
63025SOL     OW97852   4.829   6.743   3.273  0.0826  0.3346 -0.0676
63025SOL    HW197853   4.894   6.812   3.261 -1.5137  2.2569  1.5878
63025SOL    HW297854   4.876   6.673   3.320  1.1571  1.2842  0.3156
63026SOL     OW97855  11.392   3.049   0.395 -0.0634  0.6411 -0.1609
63026SOL    HW197856  11.419   3.015   0.481 -0.2068 -0.7751 -0.6449
63026SOL    HW297857  11.462   3.109   0.370  0.1652  0.7795  0.7819
63027SOL     OW97858   9.095   6.616   4.503  0.3881 -0.0507 -0.4516
63027SOL    HW197859   9.174   6.565   4.483  0.6107  0.2535 -0.3538
63027SOL    HW297860   9.042   6.609   4.424  0.7414  0.1674 -0.7129
63028SOL     OW97861   9.028   6.711   0.896 -0.2057  0.1764 -0.1328
63028SOL    HW197862   8.978   6.763   0.959 -0.5758 -0.5730  0.2053
63028SOL    HW297863   8.964   6.687   0.829 -1.1607 -3.3215  1.8056
63029SOL     OW97864   6.312   3.380   2.370  0.8651  0.3145 -0.0542
63029SOL    HW197865   6.359   3.390   2.453  1.3408  0.2503 -0.3134
63029SOL    HW297866   6.335   3.293   2.339  1.2790  0.6126 -0.6118
63030SOL     OW97867   2.704   0.037   1.837 -0.4192 -0.9314  0.2870
63030SOL    HW197868   2.750  -0.034   1.881  1.5861 -0.7547 -1.3716
63030SOL    HW297869   2.612   0.027   1.864  0.5652 -0.9831  4.1442
63031SOL     OW97870  11.658   7.727   2.849  0.3988  0.0910 -0.2481
63031SOL    HW197871  11.618   7.755   2.932 -2.0386  0.0830 -1.3126
63031SOL    HW297872  11.669   7.808   2.799  2.3865  0.1615  0.2534
63032SOL     OW97873   1.376   4.982   3.206 -0.4144 -0.0195 -0.4044
63032SOL    HW197874   1.439   4.980   3.278 -0.3495 -1.7195 -0.4745
63032SOL    HW297875   1.332   5.067   3.215  0.7587  0.5114  0.6032
63033SOL     OW97876  10.181   2.122   7.082  0.0473 -0.1949  0.3263
63033SOL    HW197877  10.155   2.192   7.022 -0.8115  0.4647  1.4249
63033SOL    HW297878  10.227   2.058   7.027  0.2917  0.9289 -0.8084
63034SOL     OW97879  10.606   4.010   7.368 -0.7261  0.3786  0.1633
63034SOL    HW197880  10.530   3.955   7.387  0.1475 -0.7343  0.5647
63034SOL    HW297881  10.631   4.046   7.454 -1.1184  1.1809 -0.0521
63035SOL     OW97882  12.254  12.476   3.629 -0.1622 -0.1734  0.2335
63035SOL    HW197883  12.190  12.427   3.577 -0.8899  1.4985 -0.5053
63035SOL    HW297884  12.261  12.427   3.711 -2.9045 -0.0720  0.6017
63036SOL     OW97885   3.384   7.542   4.747 -0.4139  0.1851  0.3454
63036SOL    HW197886   3.391   7.589   4.830 -0.1020  0.7985 -0.0275
63036SOL    HW297887   3.366   7.609   4.682  0.6639 -0.1196 -0.2897
63037SOL     OW97888   1.518   0.876   2.443 -0.5185 -0.0383 -0.3155
63037SOL    HW197889   1.479   0.951   2.397 -0.4525 -0.4282 -1.0213
63037SOL    HW297890   1.457   0.857   2.514 -0.8123  0.3462 -0.4630
63038SOL     OW97891   2.776   4.450   3.404  0.0241 -0.2116  0.5034
63038SOL    HW197892   2.687   4.438   3.373 -0.4112 -1.5454  2.1225
63038SOL    HW297893   2.781   4.543   3.428 -0.3683  0.2623 -1.1349
63039SOL     OW97894  11.030   3.735   4.850  0.0297  0.0828  0.4327
63039SOL    HW197895  11.112   3.699   4.883  1.3566  1.7484 -0.8797
63039SOL    HW297896  10.972   3.659   4.842  2.3540 -1.6414 -1.2561
63040SOL     OW97897   3.230   9.096  11.800 -1.2022 -0.1500 -0.0215
63040SOL    HW197898   3.244   9.162  11.731  0.2436  1.2632  1.5167
63040SOL    HW297899   3.317   9.057  11.813 -1.4898 -0.5051  0.8869
63041SOL     OW97900   8.596   2.517   7.491  0.2577 -0.4080 -0.1309
63041SOL    HW197901   8.533   2.535   7.560 -1.9276  0.9661 -2.3009
63041SOL    HW297902   8.646   2.598   7.482 -0.6803  0.0833 -1.2485
63042SOL     OW97903  11.157   0.715  10.574 -0.1248 -0.0698 -0.4473
63042SOL    HW197904  11.183   0.701  10.666  1.4693  0.5806 -0.7561
63042SOL    HW297905  11.112   0.634  10.550  1.0542 -1.0192  0.3891
63043SOL     OW97906   8.294   0.801   7.026  0.0182 -0.5574  0.0854
63043SOL    HW197907   8.318   0.884   7.067 -1.2916 -0.1816  0.1189
63043SOL    HW297908   8.289   0.739   7.098  0.5934 -0.5816  0.1104
63044SOL     OW97909  12.282   1.009  11.652  0.1689  0.2734 -0.5921
63044SOL    HW197910  12.218   1.047  11.712 -0.5622  1.1183 -1.8769
63044SOL    HW297911  12.344   1.080  11.635  0.7731 -0.1771 -0.3066
63045SOL     OW97912   5.541  11.412   5.353 -0.3736  0.0658 -0.2513
63045SOL    HW197913   5.607  11.400   5.421 -0.8335  0.9293  0.3679
63045SOL    HW297914   5.590  11.412   5.271  0.8252  3.4865  0.3109
63046SOL     OW97915   9.222   2.228  11.677  0.5157 -1.1721 -0.1369
63046SOL    HW197916   9.223   2.161  11.745 -1.4765 -0.3286  0.8013
63046SOL    HW297917   9.165   2.296  11.712  2.9616  1.3822 -0.7359
63047SOL     OW97918  10.859   1.187   9.385  0.2576  0.2086 -0.2537
63047SOL    HW197919  10.861   1.095   9.414  0.0858  0.0787 -0.6429
63047SOL    HW297920  10.951   1.213   9.380  0.4962 -0.8378 -2.8955
63048SOL     OW97921  12.461   1.673  10.082  0.2898  0.4761 -0.2616
63048SOL    HW197922  12.538   1.699  10.132  0.1963  1.0244 -0.3971
63048SOL    HW297923  12.486   1.685   9.991  0.1817  0.2641 -0.3195
63049SOL     OW97924   8.297   9.277  12.116 -0.5547  0.4806 -0.0815
63049SOL    HW197925   8.256   9.197  12.148 -1.3983 -0.2963 -2.8178
63049SOL    HW297926   8.302   9.334  12.192 -2.2812 -1.2178  1.3994
63050SOL     OW97927   6.200   2.891   9.508  0.1541 -0.1543  0.3178
63050SOL    HW197928   6.122   2.945   9.517 -0.5229 -1.3767  2.6435
63050SOL    HW297929   6.176   2.806   9.545  1.8939 -1.3307 -1.0517
63051SOL     OW97930   0.550   5.756   9.036 -0.7755 -0.0865 -0.0878
63051SOL    HW197931   0.609   5.827   9.061  0.7443 -1.2914 -0.0677
63051SOL    HW297932   0.463   5.796   9.032  0.2143  2.0842 -1.5302
63052SOL     OW97933   1.040   5.616   6.255 -0.2679 -0.5489 -0.6757
63052SOL    HW197934   1.059   5.583   6.167  0.5647 -0.4862 -0.5294
63052SOL    HW297935   1.063   5.544   6.313 -1.7641 -0.9588 -0.5491
63053SOL     OW97936   2.297  11.605  12.250 -0.0408 -0.1331  0.0467
63053SOL    HW197937   2.263  11.605  12.160  0.4893 -1.5162 -0.1830
63053SOL    HW297938   2.277  11.693  12.283 -0.4566  0.3275 -1.3373
63054SOL     OW97939   4.774   5.332   3.891 -0.5674 -0.3694 -0.9219
63054SOL    HW197940   4.804   5.286   3.812  0.6803 -0.4071 -0.4504
63054SOL    HW297941   4.685   5.360   3.870 -0.8288 -1.7344 -1.7545
63055SOL     OW97942   8.737   5.801  10.405 -0.6449  0.1619 -0.0109
63055SOL    HW197943   8.673   5.845  10.461 -0.5091  0.5048 -0.1229
63055SOL    HW297944   8.738   5.710  10.436 -1.4771  0.0631 -0.2711
63056SOL     OW97945   4.906   5.882   1.322  0.2114  0.3614  0.3941
63056SOL    HW197946   4.895   5.808   1.262  2.8386  1.2269 -1.3253
63056SOL    HW297947   4.926   5.841   1.406  3.4946 -1.0399 -0.8978
63057SOL     OW97948   2.810   2.034   3.989  0.4673  0.5803 -0.4435
63057SOL    HW197949   2.754   1.961   3.963  0.1406  1.0920 -1.2244
63057SOL    HW297950   2.784   2.106   3.931  1.3621  1.0702 -0.2582
63058SOL     OW97951   5.054  10.905   5.921 -0.2251  0.0821 -0.2747
63058SOL    HW197952   5.037  10.877   6.011  0.6262 -0.3056 -0.2206
63058SOL    HW297953   4.969  10.929   5.886 -0.7711 -1.1526  0.1616
63059SOL     OW97954   3.413   6.619   3.873 -0.1697  0.2434  0.7039
63059SOL    HW197955   3.342   6.560   3.849  1.2071 -0.9122 -0.7405
63059SOL    HW297956   3.380   6.706   3.854 -1.4274 -0.2274  0.6783
63060SOL     OW97957  11.996   8.796  10.545 -0.2460  0.1978  0.5193
63060SOL    HW197958  12.049   8.819  10.468 -0.8257  1.0165  0.3535
63060SOL    HW297959  11.966   8.707  10.527  0.0219  0.2005  0.0276
63061SOL     OW97960   5.946   4.702   7.764 -0.0928 -0.1940  0.1403
63061SOL    HW197961   5.953   4.619   7.716  0.3049 -1.6482  2.5909
63061SOL    HW297962   5.859   4.698   7.804 -0.4298  1.0276 -0.4308
63062SOL     OW97963   0.531   8.962   2.455  0.0637 -0.2178 -0.0230
63062SOL    HW197964   0.443   8.930   2.470  0.0799 -1.5008 -2.1367
63062SOL    HW297965   0.529   9.054   2.483 -1.5336 -0.5732  1.1777
63063SOL     OW97966   5.821   7.879  11.184  0.3868  0.6666 -0.3632
63063SOL    HW197967   5.912   7.861  11.160  0.9011  1.6602  0.7397
63063SOL    HW297968   5.780   7.911  11.104  1.2901  1.2233 -0.6042
63064SOL     OW97969   8.757   0.510   4.607 -0.3411  0.2317  0.5870
63064SOL    HW197970   8.778   0.597   4.639 -2.6162  0.9611  0.2747
63064SOL    HW297971   8.755   0.519   4.512  0.2369 -0.3946  0.5023
63065SOL     OW97972   3.835   1.892   7.192 -0.2271 -0.0397  0.1586
63065SOL    HW197973   3.799   1.905   7.279 -0.7227 -0.6175  0.0439
63065SOL    HW297974   3.773   1.833   7.149  0.0635  0.1631 -0.5507
63066SOL     OW97975  12.199  12.279   4.561 -0.0045  0.2354  0.3506
63066SOL    HW197976  12.197  12.244   4.651 -0.2506  1.4060  0.8173
63066SOL    HW297977  12.211  12.373   4.572 -0.9830  0.5199 -0.8156
63067SOL     OW97978   5.429   9.801   1.892  0.4882  0.1811  0.5567
63067SOL    HW197979   5.448   9.864   1.961  0.2126  0.5716  0.2809
63067SOL    HW297980   5.462   9.842   1.812 -0.3131  0.2855  0.2704
63068SOL     OW97981   6.393   0.763   1.901 -0.1758 -0.0547 -0.5184
63068SOL    HW197982   6.350   0.776   1.817 -1.5598  1.2344  0.3462
63068SOL    HW297983   6.345   0.691   1.942  0.6493 -0.8436 -0.8956
63069SOL     OW97984   6.073   7.166   9.450 -0.5427  0.2779  0.1308
63069SOL    HW197985   6.108   7.243   9.496 -2.0555  0.3183  1.3017
63069SOL    HW297986   6.116   7.167   9.365  0.5953  1.5576  0.6805
63070SOL     OW97987   5.243   8.020   2.888 -0.0041  0.1307  0.0738
63070SOL    HW197988   5.202   8.043   2.805 -1.1794 -2.2495 -0.0961
63070SOL    HW297989   5.337   8.030   2.872 -0.3068  1.6756 -0.8718
63071SOL     OW97990   3.779   1.205   4.304  0.3906 -0.1695  0.4681
63071SOL    HW197991   3.734   1.181   4.224  0.0093  1.0407  0.3021
63071SOL    HW297992   3.807   1.122   4.342 -0.9510 -0.8747 -0.0208
63072SOL     OW97993   6.523   0.744   4.558  0.3323 -0.1888 -0.0397
63072SOL    HW197994   6.503   0.665   4.608  0.0525  0.0065  0.1573
63072SOL    HW297995   6.440   0.789   4.549  0.3412 -0.3166 -0.8570
63073SOL     OW97996   5.164   6.743  12.103  0.1973  0.1869  0.0815
63073SOL    HW197997   5.255   6.715  12.102 -1.0391 -4.6921 -0.6026
63073SOL    HW297998   5.138   6.742  12.010 -0.8426  0.4464  0.3575
63074SOL     OW97999  10.555   6.146   5.964  0.2767 -0.1901 -0.3688
63074SOL    HW198000  10.496   6.222   5.958 -1.7343 -1.4085  1.8704
63074SOL    HW298001  10.574   6.123   5.873 -2.6331  0.4234 -1.2511
63075SOL     OW98002   5.014  12.028   9.031 -0.0217  0.1260  0.5043
63075SOL    HW198003   4.930  11.984   9.041  0.6877 -1.3314  0.3104
63075SOL    HW298004   5.015  12.094   9.100 -0.2409 -1.6272  2.2709
63076SOL     OW98005  12.437   4.709   0.082  0.2126 -0.6379  0.4376
63076SOL    HW198006  12.472   4.765   0.013 -1.5144  2.7258  2.0505
63076SOL    HW298007  12.372   4.654   0.038  1.2470 -0.7127 -1.0596
63077SOL     OW98008   7.847   7.861   4.443  0.0996 -0.0335 -0.1418
63077SOL    HW198009   7.825   7.877   4.351 -0.3106  1.3530  0.1803
63077SOL    HW298010   7.942   7.848   4.443 -0.0689 -1.5050 -0.9327
63078SOL     OW98011  10.341  10.632   3.948  0.1088 -0.3785  0.1679
63078SOL    HW198012  10.420  10.578   3.942 -0.3529 -1.0542  0.0800
63078SOL    HW298013  10.337  10.658   4.040  0.4277 -0.3455  0.1749
63079SOL     OW98014   7.691   6.244   2.066 -0.3011  0.4958  0.2745
63079SOL    HW198015   7.669   6.194   1.987 -0.3726  1.4962 -0.3585
63079SOL    HW298016   7.715   6.177   2.131  1.5998 -0.2977 -1.1521
63080SOL     OW98017   9.780  12.595  11.898  0.9136  0.1473  0.5191
63080SOL    HW198018   9.685  12.596  11.913  1.0356  1.2977  1.4495
63080SOL    HW298019   9.792  12.645  11.817  0.8275  1.8436  1.4930
63081SOL     OW98020  11.428   0.006   2.016  0.0561 -0.1508  0.5175
63081SOL    HW198021  11.375   0.068   2.065 -0.6806 -0.4981  0.1744
63081SOL    HW298022  11.461   0.056   1.941  2.0333  0.6714  1.8526
63082SOL     OW98023   1.255   8.184   8.309  0.6776 -0.1954 -0.2678
63082SOL    HW198024   1.236   8.266   8.264 -3.0963 -1.0611 -0.5319
63082SOL    HW298025   1.180   8.169   8.367  1.9279 -2.7586  0.8843
63083SOL     OW98026   2.716   4.503  11.909 -0.0078  0.0663 -0.2407
63083SOL    HW198027   2.794   4.476  11.957 -1.1879 -2.5383  0.4193
63083SOL    HW298028   2.708   4.438  11.838 -1.8956 -0.1404  0.1221
63084SOL     OW98029   4.471  12.510   4.661  0.7829  0.2897 -0.1195
63084SOL    HW198030   4.376  12.509   4.671  0.6416 -0.1022 -1.3545
63084SOL    HW298031   4.503  12.463   4.738 -0.0146  0.4813  0.3443
63085SOL     OW98032  12.511   5.560   1.358  0.3458  0.3802  0.4253
63085SOL    HW198033  12.479   5.578   1.446  0.1336 -1.1454  0.6875
63085SOL    HW298034  12.508   5.465   1.350 -0.7074  0.5133 -1.6273
63086SOL     OW98035   8.521   1.659   1.255  0.0995  0.4916  0.2499
63086SOL    HW198036   8.565   1.727   1.304 -1.0034  2.1876 -0.9918
63086SOL    HW298037   8.591   1.616   1.205  0.7045  1.3684  0.3187
63087SOL     OW98038  10.354   4.269   3.859 -0.6311 -0.0475  0.0407
63087SOL    HW198039  10.315   4.241   3.943 -1.1763  0.0195 -0.1837
63087SOL    HW298040  10.280   4.271   3.798 -0.2209 -0.1719 -0.4660
63088SOL     OW98041   1.971  12.393   4.557  0.0853  0.0090 -0.1402
63088SOL    HW198042   1.877  12.373   4.551 -0.0600  0.5877  0.1547
63088SOL    HW298043   2.012  12.332   4.496 -0.2770 -1.6460  1.1926
63089SOL     OW98044   3.932   8.476   9.428 -0.4829  0.3810  0.2341
63089SOL    HW198045   3.966   8.393   9.393  0.1430  0.8424 -0.2781
63089SOL    HW298046   4.005   8.514   9.476 -1.4422 -0.4388  2.4985
63090SOL     OW98047   8.014   3.928   6.915 -0.0153 -0.5022  0.0185
63090SOL    HW198048   8.030   4.012   6.958  1.6736  0.2981 -1.9944
63090SOL    HW298049   8.091   3.874   6.937 -0.2475 -0.8964 -0.1206
63091SOL     OW98050   3.888   2.290   6.948 -0.2854  0.3391  0.1588
63091SOL    HW198051   3.894   2.293   7.044 -3.2113 -0.9326  0.4901
63091SOL    HW298052   3.811   2.343   6.927 -0.3207 -0.2886 -1.3979
63092SOL     OW98053   5.188   2.970   2.858 -0.2688  0.5242 -0.3538
63092SOL    HW198054   5.242   2.923   2.921  0.0479  1.3485 -0.0056
63092SOL    HW298055   5.240   3.046   2.833 -0.1973  0.0003 -1.9535
63093SOL     OW98056  10.497   0.080   7.726  0.2360  0.5018 -0.2726
63093SOL    HW198057  10.563   0.144   7.754 -0.9275  1.7269 -0.2357
63093SOL    HW298058  10.530  -0.004   7.758  1.3887  1.1951  0.4200
63094SOL     OW98059   7.421  12.268   5.149  0.2898  0.3315 -0.0853
63094SOL    HW198060   7.473  12.203   5.102  0.6794  0.0494  0.7083
63094SOL    HW298061   7.458  12.352   5.123  1.7608  0.1134  1.1252
63095SOL     OW98062   5.970   1.419   6.602 -0.2473  0.1457  0.2671
63095SOL    HW198063   6.052   1.468   6.608  0.1883 -0.5264 -0.1182
63095SOL    HW298064   5.937   1.440   6.514  0.4856 -1.0793 -0.3223
63096SOL     OW98065   2.459   6.224   0.510 -0.0893  0.3715  0.2905
63096SOL    HW198066   2.445   6.312   0.476 -2.5701  0.0333  0.2335
63096SOL    HW298067   2.510   6.180   0.442 -0.6870  1.1564 -0.6911
63097SOL     OW98068  10.285   9.564   4.040  0.2378  0.4666 -0.0181
63097SOL    HW198069  10.338   9.621   3.983 -1.1596  1.3863 -0.4644
63097SOL    HW298070  10.255   9.494   3.981 -0.1399  0.6949 -0.0994
63098SOL     OW98071   7.385   1.788  11.150  0.2382 -0.2696 -0.3301
63098SOL    HW198072   7.366   1.874  11.113  0.9612  0.0182 -0.0638
63098SOL    HW298073   7.409   1.735  11.075  0.0512 -0.1628 -0.4669
63099SOL     OW98074   3.289  11.311  12.561  0.3026  0.9165  0.4272
63099SOL    HW198075   3.345  11.340  12.489  1.4398  1.3937  1.4654
63099SOL    HW298076   3.285  11.385  12.620 -0.1854  0.3520  1.1174
63100SOL     OW98077   0.439   2.049   7.309 -0.3984  0.2475  0.1450
63100SOL    HW198078   0.520   2.091   7.283  0.8508 -1.9750  0.2029
63100SOL    HW298079   0.370   2.109   7.279  1.2014  1.7388 -0.7314
63101SOL     OW98080  11.404   9.344  11.673  0.3313 -0.6440 -0.3672
63101SOL    HW198081  11.461   9.268  11.666  0.6135 -0.4760  0.0301
63101SOL    HW298082  11.369   9.340  11.762  0.1111 -0.4732 -0.4436
63102SOL     OW98083  11.519  10.639  11.554 -0.5675  0.5150 -0.0911
63102SOL    HW198084  11.507  10.733  11.543 -0.0463  0.5080 -0.7808
63102SOL    HW298085  11.452  10.600  11.497  0.7020  0.4798 -1.6097
63103SOL     OW98086   0.751   8.316   9.948 -0.1967 -0.7955 -0.7357
63103SOL    HW198087   0.827   8.323  10.007  0.8490  2.9800 -2.2304
63103SOL    HW298088   0.675   8.314  10.007  0.9050 -0.0758  0.7934
63104SOL     OW98089   1.483   2.747   5.223  0.6530  0.0576 -0.2277
63104SOL    HW198090   1.446   2.705   5.145 -2.6778  0.6993  0.8583
63104SOL    HW298091   1.462   2.840   5.212 -0.4976  0.0716  1.6814
63105SOL     OW98092   5.859   3.532   7.376 -0.4521  0.3686  0.3044
63105SOL    HW198093   5.923   3.600   7.392 -1.1211  0.7936  1.2693
63105SOL    HW298094   5.776   3.569   7.407 -1.0885 -0.3376 -0.4867
63106SOL     OW98095   2.271   6.090   6.166 -0.2770 -0.2093  0.3892
63106SOL    HW198096   2.340   6.027   6.144 -0.3787 -0.2079  0.0718
63106SOL    HW298097   2.287   6.110   6.259 -0.3782 -0.8639  0.5555
63107SOL     OW98098   1.318   8.261  11.176 -0.1989 -0.1087 -0.3914
63107SOL    HW198099   1.339   8.200  11.247  0.3547  1.0030  0.4422
63107SOL    HW298100   1.367   8.229  11.101  0.9637 -0.0896  0.3276
63108SOL     OW98101  10.828   6.800   4.130 -0.4030  0.4391  0.6927
63108SOL    HW198102  10.885   6.767   4.200 -2.3093 -2.1094  1.1742
63108SOL    HW298103  10.873   6.776   4.049  0.4407  0.8349  1.0269
63109SOL     OW98104   6.724   5.013   0.556 -0.7321  0.0920 -0.2102
63109SOL    HW198105   6.739   5.096   0.602 -1.5598 -0.0031  0.2427
63109SOL    HW298106   6.705   4.950   0.626  0.5909 -0.6562 -0.4906
63110SOL     OW98107   0.466  11.002   7.589 -0.0769 -0.1921  0.3836
63110SOL    HW198108   0.493  11.010   7.680  3.0453  0.8933 -0.5006
63110SOL    HW298109   0.461  10.908   7.573 -1.6823 -0.4023  1.8766
63111SOL     OW98110   1.676  10.158  10.635  0.0804  0.0964 -0.0729
63111SOL    HW198111   1.658  10.189  10.546  0.8226 -0.8005 -0.5462
63111SOL    HW298112   1.653  10.232  10.691 -2.1130  0.0834 -0.8533
63112SOL     OW98113  10.857   2.136  12.063 -0.5205  0.6267  0.4931
63112SOL    HW198114  10.867   2.231  12.055 -3.1706  0.9160 -0.4822
63112SOL    HW298115  10.861   2.104  11.973 -0.9473  0.0124  0.6847
63113SOL     OW98116   7.544   5.890   3.711  0.1015  0.3307 -0.2665
63113SOL    HW198117   7.615   5.828   3.692  0.5825  0.8613 -0.2298
63113SOL    HW298118   7.477   5.870   3.646  0.8952  0.7910 -1.2408
63114SOL     OW98119   6.723   4.040   6.292 -0.0941 -0.2865  0.1116
63114SOL    HW198120   6.748   4.130   6.273 -3.1973  1.0845  1.7200
63114SOL    HW298121   6.739   4.031   6.386  0.3611 -1.5383 -0.0653
63115SOL     OW98122   4.993   8.592   3.948  0.0864  0.3390 -0.1961
63115SOL    HW198123   5.030   8.559   3.866  1.1280  0.0322  0.3865
63115SOL    HW298124   5.028   8.681   3.955  3.6394 -0.9875  1.9911
63116SOL     OW98125   2.784   6.773   9.917  0.1358  0.2940  0.1183
63116SOL    HW198126   2.831   6.814   9.844  0.1974 -1.5486 -0.9246
63116SOL    HW298127   2.729   6.706   9.876 -0.4577 -0.2219  1.6916
63117SOL     OW98128   8.540  10.734   4.101 -0.6158 -0.1668  0.0950
63117SOL    HW198129   8.579  10.646   4.108 -1.7322 -1.0417 -2.9315
63117SOL    HW298130   8.512  10.755   4.190  2.9903 -1.1895  1.6854
63118SOL     OW98131   0.380  11.507   7.580 -0.4018 -0.1886  0.4838
63118SOL    HW198132   0.359  11.509   7.673 -1.1826  0.9879  0.3031
63118SOL    HW298133   0.387  11.599   7.555 -0.7000 -0.4749 -0.7252
63119SOL     OW98134  10.322   0.237   5.060 -0.0897  0.7791  0.1302
63119SOL    HW198135  10.256   0.213   4.995  0.9803  0.3037 -0.8268
63119SOL    HW298136  10.273   0.280   5.130 -1.2387  1.6546 -1.1603
63120SOL     OW98137   5.833   0.906  10.731 -0.4382 -0.1515 -0.4264
63120SOL    HW198138   5.757   0.877  10.781 -0.5838  0.1687 -0.4565
63120SOL    HW298139   5.803   0.910  10.640 -0.8777  1.5632 -0.2297
63121SOL     OW98140   0.559  12.541   3.149 -0.2042 -0.0943  0.4200
63121SOL    HW198141   0.529  12.476   3.086 -0.0732  0.6733 -0.4580
63121SOL    HW298142   0.644  12.570   3.116  0.6817 -0.8930  1.8700
63122SOL     OW98143   8.373  10.790  11.829  0.2112 -0.2342  0.0796
63122SOL    HW198144   8.376  10.882  11.852  1.5482 -0.4909  1.0450
63122SOL    HW298145   8.418  10.745  11.901  0.4548 -1.5373 -0.8369
63123SOL     OW98146   2.526   5.000   7.808  0.1227 -0.2570  0.0199
63123SOL    HW198147   2.455   5.058   7.782 -0.5241 -0.3283  1.5575
63123SOL    HW298148   2.485   4.935   7.865  1.2022 -1.0527 -0.0682
63124SOL     OW98149   0.747  10.437   0.792  0.2162  0.0866 -0.0946
63124SOL    HW198150   0.779  10.522   0.762 -1.7614  0.9468  0.0726
63124SOL    HW298151   0.737  10.447   0.886 -2.7631  0.7611 -0.3693
63125SOL     OW98152  11.546  11.908  10.060 -0.0418  0.0945  0.0781
63125SOL    HW198153  11.641  11.919  10.062  0.1440 -1.0930 -1.0168
63125SOL    HW298154  11.531  11.824  10.102 -0.5858  0.1290 -0.0379
63126SOL     OW98155   1.657  10.424   0.032  0.2709 -0.4209  0.1529
63126SOL    HW198156   1.597  10.494   0.060  1.1781  0.1704  0.6942
63126SOL    HW298157   1.651  10.424  -0.063 -1.0026 -0.7616  0.2132
63127SOL     OW98158   3.224   4.624   3.397 -0.5305  0.5169  0.5094
63127SOL    HW198159   3.191   4.534   3.407  2.8087 -1.1835 -1.7472
63127SOL    HW298160   3.276   4.639   3.476  1.0790 -0.7209 -0.2491
63128SOL     OW98161   2.787   8.723   6.831 -0.0420 -0.1276 -0.8756
63128SOL    HW198162   2.708   8.768   6.805  0.9644  2.2610 -0.1107
63128SOL    HW298163   2.760   8.666   6.903 -0.8607  2.0065  0.6295
63129SOL     OW98164   9.929   3.325   7.310  0.5177 -0.3498  0.4275
63129SOL    HW198165   9.929   3.296   7.401 -1.8613 -1.3300  0.1934
63129SOL    HW298166   9.845   3.369   7.298  1.7164  1.7906 -0.7573
63130SOL     OW98167  12.594   9.433   0.277  0.1819  0.5087  0.1050
63130SOL    HW198168  12.521   9.442   0.215  1.5779  0.6098 -1.6346
63130SOL    HW298169  12.563   9.473   0.357 -1.5224  0.9397 -0.7279
63131SOL     OW98170   2.279   2.263   5.999 -0.3298 -0.2611  0.0843
63131SOL    HW198171   2.186   2.281   6.017  0.3092  0.7254  2.8626
63131SOL    HW298172   2.319   2.252   6.085  1.7782 -2.9693 -1.0958
63132SOL     OW98173   2.201   8.513   8.027  0.1999  0.2740  0.1122
63132SOL    HW198174   2.192   8.559   7.943 -0.1296 -0.0047 -0.0044
63132SOL    HW298175   2.112   8.490   8.051  0.2528  0.7023  0.7388
63133SOL     OW98176   0.151  10.989   4.142 -0.1289 -0.8339  0.0127
63133SOL    HW198177   0.097  10.921   4.182  1.0195 -1.0666  1.1867
63133SOL    HW298178   0.240  10.956   4.146  0.2477 -0.0259 -1.0333
63134SOL     OW98179  10.899   4.336   5.782 -0.0962 -0.5746  0.0704
63134SOL    HW198180  10.954   4.364   5.855  1.8804  0.0145 -1.5411
63134SOL    HW298181  10.936   4.251   5.757 -1.5716 -1.3790  0.5070
63135SOL     OW98182  10.013  10.315   9.343 -0.0423  0.1018  0.5741
63135SOL    HW198183  10.014  10.372   9.266  0.0124 -0.5920  0.0425
63135SOL    HW298184  10.058  10.235   9.314  1.1384  0.3134  1.7201
63136SOL     OW98185   4.530   6.788   8.890 -0.4610 -0.0492 -0.0696
63136SOL    HW198186   4.440   6.764   8.870 -0.2480 -0.3863 -0.6333
63136SOL    HW298187   4.580   6.762   8.813  0.4874 -1.9428  1.0911
63137SOL     OW98188  11.075   0.341   4.102 -0.0235 -0.0124 -0.1019
63137SOL    HW198189  11.148   0.370   4.157 -0.7257  1.0793  0.2785
63137SOL    HW298190  11.097   0.251   4.080  1.4222  0.2757  0.0419
63138SOL     OW98191   0.467  11.051   8.095 -0.0061 -0.5601  0.3636
63138SOL    HW198192   0.409  11.128   8.092  0.0390 -0.5301  0.2651
63138SOL    HW298193   0.547  11.083   8.137  0.2365 -0.4037 -0.2115
63139SOL     OW98194   9.552   5.998   6.881 -0.2601  0.2053  0.3128
63139SOL    HW198195   9.609   6.075   6.882  0.4973 -0.3204 -0.8490
63139SOL    HW298196   9.610   5.925   6.904 -0.0624 -0.5654 -2.3674
63140SOL     OW98197   6.779   7.879   4.420  0.0970  0.1524  0.2557
63140SOL    HW198198   6.834   7.829   4.361 -2.4896 -0.9119 -1.4440
63140SOL    HW298199   6.712   7.918   4.364 -1.5297  0.4868  2.2909
63141SOL     OW98200   5.217   3.710   1.129 -0.4920  0.4369  0.2375
63141SOL    HW198201   5.262   3.767   1.067 -0.1705 -1.4974 -1.4080
63141SOL    HW298202   5.284   3.683   1.192 -0.3410  0.8065  0.2331
63142SOL     OW98203   1.570   6.629   9.270 -0.0755  0.2236  0.1088
63142SOL    HW198204   1.619   6.660   9.194 -0.0436 -0.6265 -0.2248
63142SOL    HW298205   1.631   6.636   9.343  0.4241 -0.4451 -0.2310
63143SOL     OW98206   6.386   3.680   3.769  0.0133 -0.2820 -0.0388
63143SOL    HW198207   6.476   3.677   3.736 -0.0238 -0.2612 -0.1423
63143SOL    HW298208   6.395   3.700   3.862  0.0575  1.5320 -0.3847
63144SOL     OW98209   0.605   2.335   8.607  0.0331  0.2822  0.3498
63144SOL    HW198210   0.677   2.387   8.643  0.6682  0.0778 -0.5861
63144SOL    HW298211   0.528   2.361   8.659  0.8612  0.1422  1.7026
63145SOL     OW98212   0.713   6.853   3.285  0.2429 -0.0449  0.0829
63145SOL    HW198213   0.631   6.891   3.317  0.5587 -0.3130  1.2877
63145SOL    HW298214   0.716   6.874   3.192  0.1257  2.3584  0.5704
63146SOL     OW98215   4.479   6.476  11.239 -0.3562 -0.4394  0.3187
63146SOL    HW198216   4.467   6.550  11.179 -0.8526 -0.9717 -0.2447
63146SOL    HW298217   4.494   6.401  11.181  3.6136 -0.2876  0.8251
63147SOL     OW98218   4.435   1.236   7.924  0.3310 -0.0966  0.6683
63147SOL    HW198219   4.401   1.325   7.920  0.1484 -0.1932 -0.3612
63147SOL    HW298220   4.525   1.243   7.893  0.3993 -0.2243  0.8398
63148SOL     OW98221  10.066   3.722   3.090  0.6146 -0.6208 -0.2781
63148SOL    HW198222  10.085   3.806   3.047  0.8956 -0.3095  0.4404
63148SOL    HW298223   9.972   3.711   3.081  0.6858 -0.6329 -1.0971
63149SOL     OW98224   3.384   5.977   7.551 -0.1356  0.4115 -0.9060
63149SOL    HW198225   3.430   6.009   7.628 -0.1330  1.6030 -1.3796
63149SOL    HW298226   3.442   5.999   7.478 -1.0196  1.1020 -1.4244
63150SOL     OW98227  12.292   1.907   1.532 -0.2470  0.0359 -0.4536
63150SOL    HW198228  12.361   1.883   1.470  1.0707 -1.4247  1.4903
63150SOL    HW298229  12.334   1.967   1.593 -0.4471 -1.3738  1.1368
63151SOL     OW98230  12.484   0.612   0.567  0.4456 -0.0024 -0.1602
63151SOL    HW198231  12.553   0.592   0.631  0.0968  3.9708  1.7215
63151SOL    HW298232  12.404   0.616   0.619 -0.6415 -0.9230 -1.6861
63152SOL     OW98233   1.835   4.522   0.527 -0.5120 -0.5883 -0.1393
63152SOL    HW198234   1.821   4.495   0.436 -0.0966 -1.1648 -0.0408
63152SOL    HW298235   1.930   4.527   0.536 -0.5627 -0.1075  0.1448
63153SOL     OW98236   8.894   2.991   4.436 -0.2944  0.1101  0.4058
63153SOL    HW198237   8.957   2.967   4.369  0.0472  2.2550 -0.1006
63153SOL    HW298238   8.946   3.006   4.515 -0.0644  2.1447 -0.0800
63154SOL     OW98239   9.086   4.961   4.527 -0.3271 -0.6657 -0.1296
63154SOL    HW198240   9.038   4.927   4.602 -0.2215  0.5004  0.4981
63154SOL    HW298241   9.120   4.884   4.482 -1.3032 -1.4193  0.4125
63155SOL     OW98242   2.437   7.718   2.370 -0.1474  0.2630 -0.0157
63155SOL    HW198243   2.350   7.743   2.340  0.2086  2.0500  0.3621
63155SOL    HW298244   2.422   7.681   2.457 -0.2785  3.7652  1.6264
63156SOL     OW98245   5.900   1.161  12.020  0.1242  1.2464 -0.3107
63156SOL    HW198246   5.809   1.166  12.049  0.7815 -1.0917  2.7327
63156SOL    HW298247   5.936   1.248  12.038 -0.4136  0.8908  3.0856
63157SOL     OW98248  11.044   9.785   2.414 -0.2813  0.3338  0.1026
63157SOL    HW198249  11.125   9.739   2.392 -0.2559  0.8229 -0.8439
63157SOL    HW298250  11.034   9.851   2.346 -1.3205  0.4799  0.3787
63158SOL     OW98251   3.100   5.257   3.536  0.1618 -0.0754 -0.3198
63158SOL    HW198252   3.055   5.332   3.575 -0.9620 -0.4429 -0.8686
63158SOL    HW298253   3.084   5.185   3.598  0.4462 -0.0903 -0.2600
63159SOL     OW98254   3.541   0.510   3.623  0.3523 -0.4643 -0.3562
63159SOL    HW198255   3.558   0.566   3.547 -0.5667  1.1448  0.5572
63159SOL    HW298256   3.458   0.466   3.603  0.5224 -0.6631 -0.6243
63160SOL     OW98257   5.818  10.381   7.181 -0.2906 -0.5561 -0.2267
63160SOL    HW198258   5.897  10.372   7.127  0.5796  0.4711  0.8330
63160SOL    HW298259   5.820  10.471   7.211 -1.4766 -0.7372  0.4456
63161SOL     OW98260   7.073   2.406   3.658  0.2786 -0.0720 -0.1548
63161SOL    HW198261   6.983   2.376   3.671 -0.1671  1.6879  1.2517
63161SOL    HW298262   7.068   2.465   3.582  0.1199  0.4489  0.2541
63162SOL     OW98263  12.173   0.498   5.330  0.2824  0.0073  0.2334
63162SOL    HW198264  12.212   0.581   5.360 -0.4151  0.7750 -0.9163
63162SOL    HW298265  12.087   0.523   5.297  0.4407 -1.0289 -1.0217
63163SOL     OW98266   4.321   7.374   6.828 -0.0978 -0.7771  0.2971
63163SOL    HW198267   4.411   7.341   6.829  0.6335  1.1020  0.5647
63163SOL    HW298268   4.285   7.350   6.913  1.3776  1.5477  1.6393
63164SOL     OW98269   3.735   2.105   5.025 -0.2046  0.3287  0.1011
63164SOL    HW198270   3.655   2.122   4.975 -0.6758 -0.1376  0.6796
63164SOL    HW298271   3.731   2.012   5.046  0.7184  0.1954 -0.2374
63165SOL     OW98272   2.349   9.714  11.501 -0.9160 -0.1992 -0.5743
63165SOL    HW198273   2.426   9.658  11.488  0.0100  0.9332 -0.1970
63165SOL    HW298274   2.325   9.700  11.593  1.6169  2.6902  0.6849
63166SOL     OW98275   9.918   7.121   0.731 -0.3252  0.0493 -0.3522
63166SOL    HW198276   9.970   7.157   0.660 -0.8907 -1.1360 -1.3994
63166SOL    HW298277   9.854   7.189   0.751 -1.3904 -0.3160 -2.2942
63167SOL     OW98278   6.972   1.893   0.417  0.1144  0.8928 -0.7329
63167SOL    HW198279   6.935   1.961   0.361 -0.1357  0.4099 -1.1593
63167SOL    HW298280   6.937   1.811   0.382  0.3426  0.5497 -0.1697
63168SOL     OW98281   6.927   1.570   9.944  0.4661 -0.2956 -0.2028
63168SOL    HW198282   6.884   1.510  10.005  1.1369 -0.6917 -0.1072
63168SOL    HW298283   7.020   1.562   9.965  0.5574  0.8787 -0.0990
63169SOL     OW98284   1.109   7.802   3.426  0.2140  0.0216 -0.0181
63169SOL    HW198285   1.089   7.855   3.504  0.0506  0.0044 -0.0493
63169SOL    HW298286   1.067   7.718   3.443 -0.3292  0.2140 -0.3911
63170SOL     OW98287   2.274   2.302   2.888 -1.0747  0.0724  0.3984
63170SOL    HW198288   2.228   2.218   2.893 -1.4541  0.3289  1.7034
63170SOL    HW298289   2.365   2.279   2.872 -1.2535 -0.5648  0.2846
63171SOL     OW98290   8.608   4.770   2.823 -0.0015  0.1635  0.3556
63171SOL    HW198291   8.682   4.710   2.816 -1.9906 -2.9143  2.7557
63171SOL    HW298292   8.621   4.815   2.907 -0.5077  0.0762  0.4852
63172SOL     OW98293   5.168   6.598   6.110  0.3513  0.5332  0.0502
63172SOL    HW198294   5.218   6.646   6.044  0.5954  0.5745  0.2641
63172SOL    HW298295   5.191   6.506   6.096 -1.5072  0.2429 -1.5660
63173SOL     OW98296   8.603   0.281   4.518 -0.2688  0.8004  0.0294
63173SOL    HW198297   8.662   0.242   4.581  0.4885  1.3697 -0.3154
63173SOL    HW298298   8.531   0.317   4.571  0.1899  0.9805  0.5335
63174SOL     OW98299   2.908  10.259   4.701  0.3497 -0.5326  0.1481
63174SOL    HW198300   2.820  10.272   4.666  0.7598 -2.3923 -1.7656
63174SOL    HW298301   2.966  10.274   4.626  1.5379 -1.1689  0.9069
63175SOL     OW98302   6.014   7.014   0.737 -0.2310 -0.0352 -0.4275
63175SOL    HW198303   5.996   7.093   0.788  0.5548 -0.3428  0.3412
63175SOL    HW298304   6.093   7.035   0.688  0.7237 -0.7742  0.7482
63176SOL     OW98305   5.810   3.093   0.204 -0.2203  0.1848 -0.0098
63176SOL    HW198306   5.855   3.054   0.129 -0.0871 -0.9905  0.6606
63176SOL    HW298307   5.843   3.046   0.280 -1.8097 -0.0059  0.6046
63177SOL     OW98308  11.038   0.410   6.551 -0.1012 -0.1205 -0.7286
63177SOL    HW198309  11.029   0.495   6.594  1.4353  0.3558 -1.2773
63177SOL    HW298310  10.981   0.351   6.602 -0.4000  1.0012  0.2854
63178SOL     OW98311  10.445   2.913   5.180  0.3216 -0.1434  0.2401
63178SOL    HW198312  10.375   2.909   5.245  0.5137 -0.5566  0.4207
63178SOL    HW298313  10.520   2.946   5.229  0.2741  0.2371  0.0614
63179SOL     OW98314   3.820  11.752   5.309 -0.0084 -0.3599 -0.4198
63179SOL    HW198315   3.811  11.846   5.290 -0.4165 -0.4512 -0.7023
63179SOL    HW298316   3.784  11.742   5.397  1.1669 -0.0610  0.1142
63180SOL     OW98317   3.431   6.862   9.183 -0.7135 -0.4794 -0.4647
63180SOL    HW198318   3.409   6.946   9.224 -1.7531 -1.6822  1.6171
63180SOL    HW298319   3.516   6.839   9.220 -0.9577 -0.8671 -0.1397
63181SOL     OW98320   3.118   3.798   8.764 -0.2599  0.6916 -0.0252
63181SOL    HW198321   3.046   3.859   8.749  0.6804  2.1694  1.1887
63181SOL    HW298322   3.141   3.766   8.677 -1.4996  1.2188 -0.5654
63182SOL     OW98323   5.176  11.369   8.983 -0.2907 -0.1206  0.7233
63182SOL    HW198324   5.146  11.363   8.892 -1.6412 -1.5866  1.2294
63182SOL    HW298325   5.247  11.434   8.980  0.5447 -1.0183 -1.5827
63183SOL     OW98326   4.134   6.882   8.338  0.5360 -0.7944 -0.4213
63183SOL    HW198327   4.041   6.904   8.344  1.0496  1.5560  0.1728
63183SOL    HW298328   4.151   6.830   8.416 -0.5842 -2.7647 -1.4132
63184SOL     OW98329   8.094   8.064   0.436 -0.4741  0.4927 -0.3883
63184SOL    HW198330   8.026   8.005   0.469 -0.2754  0.0612 -0.7330
63184SOL    HW298331   8.054   8.151   0.440 -1.0370  0.2469 -0.5538
63185SOL     OW98332   7.405   3.782   7.212  0.7410 -0.0909 -0.0412
63185SOL    HW198333   7.428   3.774   7.305  0.1239  1.7961  0.3307
63185SOL    HW298334   7.470   3.842   7.177 -0.3804  1.0589 -0.2381
63186SOL     OW98335   8.530   5.879   2.743  0.2298  0.0875  0.2851
63186SOL    HW198336   8.573   5.869   2.659  1.0022  4.4196 -0.0869
63186SOL    HW298337   8.592   5.929   2.796 -1.4279  0.0746  2.3867
63187SOL     OW98338   0.032  12.608   1.990  0.0284  0.3816  0.3073
63187SOL    HW198339  -0.046  12.608   2.045 -0.6822 -0.7423 -0.6542
63187SOL    HW298340   0.048  12.515   1.972  0.9304  0.6690 -0.4194
63188SOL     OW98341   5.661   6.166   8.826  0.8351  0.0044 -0.4863
63188SOL    HW198342   5.621   6.090   8.868  0.9481  0.0541 -0.2830
63188SOL    HW298343   5.643   6.154   8.733  1.7048 -0.7929 -0.5727
63189SOL     OW98344   8.112   6.811   4.042 -0.3857 -0.3903  0.1182
63189SOL    HW198345   8.082   6.869   4.111  2.7147  0.6045  0.7921
63189SOL    HW298346   8.169   6.865   3.988  0.3454 -2.1101 -0.9187
63190SOL     OW98347   6.876   7.483  11.253 -1.1475 -0.1883  0.2599
63190SOL    HW198348   6.836   7.560  11.213 -3.1819 -1.9569 -1.3343
63190SOL    HW298349   6.929   7.444  11.183 -2.0762 -1.5163  0.2466
63191SOL     OW98350   6.680   8.663   4.981 -0.1975 -0.1259  0.6444
63191SOL    HW198351   6.704   8.715   4.905  0.6004  0.8416  1.5340
63191SOL    HW298352   6.614   8.601   4.948  1.5129 -1.0434 -1.2665
63192SOL     OW98353  11.509   9.187   5.371  0.4762  0.0624 -0.3179
63192SOL    HW198354  11.588   9.178   5.318 -0.6241  1.7555 -2.3987
63192SOL    HW298355  11.480   9.277   5.356 -3.1636 -1.1529 -1.6550
63193SOL     OW98356   4.476   4.718   0.288  0.0023 -0.1565 -0.4688
63193SOL    HW198357   4.408   4.665   0.330 -0.8544  0.5008 -1.0153
63193SOL    HW298358   4.511   4.661   0.219 -1.5884  0.2865 -1.7087
63194SOL     OW98359   3.837  10.022   4.962 -0.3144  0.0680  0.3021
63194SOL    HW198360   3.793  10.102   4.990 -0.0464  0.4023 -0.2176
63194SOL    HW298361   3.775   9.952   4.981 -0.1750  0.2804  1.6507
63195SOL     OW98362   1.815   0.943   4.333 -0.0470 -0.0386 -0.4535
63195SOL    HW198363   1.722   0.963   4.340 -0.4207 -2.0378  1.9144
63195SOL    HW298364   1.821   0.878   4.263 -0.3613  0.3343 -0.8322
63196SOL     OW98365   0.463  10.866  11.789 -0.0390  0.1094  0.6590
63196SOL    HW198366   0.412  10.938  11.826 -1.0019  0.2207 -0.8189
63196SOL    HW298367   0.554  10.888  11.810 -0.3997  1.1627  1.2006
63197SOL     OW98368   3.983   9.064   4.044 -0.2620 -0.0684 -0.4662
63197SOL    HW198369   3.944   9.147   4.071  1.5257  0.8245 -0.5621
63197SOL    HW298370   4.028   9.083   3.962  0.5488 -1.0133 -0.2635
63198SOL     OW98371   1.166   6.543   7.177 -0.4472  0.4447  0.7127
63198SOL    HW198372   1.182   6.498   7.260 -1.3481 -1.1998  0.0413
63198SOL    HW298373   1.142   6.632   7.202 -0.7335 -0.0338  2.2155
63199SOL     OW98374   5.012   9.580   0.224 -0.2400 -0.6356  0.3615
63199SOL    HW198375   4.944   9.642   0.197 -1.1827 -1.4252  0.8290
63199SOL    HW298376   5.092   9.632   0.229 -1.3125  0.9578  2.3933
63200SOL     OW98377   8.552  10.961   9.489  0.8515 -0.5394  0.7908
63200SOL    HW198378   8.594  10.977   9.573  0.9583  0.3578  0.5835
63200SOL    HW298379   8.616  10.912   9.438  0.7168 -1.2442  1.2865
63201SOL     OW98380   0.470  11.674   2.455 -0.1926 -0.1944  0.1055
63201SOL    HW198381   0.442  11.610   2.389  0.3124 -0.3767  0.0628
63201SOL    HW298382   0.487  11.622   2.533 -1.8828  0.1516  0.7444
63202SOL     OW98383   8.728  12.118   4.312 -0.2952 -0.2460 -0.0376
63202SOL    HW198384   8.807  12.063   4.323 -1.1400 -1.4888  0.0419
63202SOL    HW298385   8.753  12.183   4.247  0.7299 -0.7760 -0.1975
63203SOL     OW98386   8.633   6.120   4.438 -0.2882  0.5381  0.0749
63203SOL    HW198387   8.623   6.124   4.343  0.8663  0.1066 -0.0817
63203SOL    HW298388   8.717   6.162   4.456 -0.8393  1.2889  0.9892
63204SOL     OW98389   1.953   1.416   7.249  0.3391  0.0168  0.2702
63204SOL    HW198390   1.894   1.376   7.313 -0.0514  2.7745  1.7602
63204SOL    HW298391   2.026   1.354   7.242 -0.1330 -0.8856  2.5403
63205SOL     OW98392   0.040   5.610  10.361  0.9161 -0.2614 -0.2306
63205SOL    HW198393   0.100   5.674  10.322  2.3389 -1.4166 -0.0573
63205SOL    HW298394   0.040   5.631  10.455 -0.6857  1.0745 -0.4924
63206SOL     OW98395   7.975   6.622   1.214 -0.2458 -0.4916 -0.2817
63206SOL    HW198396   7.882   6.628   1.191 -0.4394 -1.0148  0.3647
63206SOL    HW298397   8.007   6.548   1.163 -0.2476 -0.4871 -0.2894
63207SOL     OW98398   6.120   0.015   2.324 -0.0181  0.1487 -0.5765
63207SOL    HW198399   6.183  -0.038   2.374  0.4087  2.8502  2.0434
63207SOL    HW298400   6.035  -0.024   2.342  0.3412 -0.0398  0.7973
63208SOL     OW98401   3.280   9.346   9.716 -0.2650  0.1993 -0.0560
63208SOL    HW198402   3.317   9.434   9.713  0.0099  0.1211  0.7327
63208SOL    HW298403   3.185   9.359   9.706 -0.5734  0.8840  2.8705
63209SOL     OW98404  11.103  10.621   9.835  0.0976 -0.0614  0.2914
63209SOL    HW198405  11.099  10.577   9.920  0.2886 -0.9516 -0.1473
63209SOL    HW298406  11.157  10.563   9.781 -2.5898 -1.2083 -1.3967
63210SOL     OW98407   1.283  11.728   8.426  0.5280 -0.0312 -0.1854
63210SOL    HW198408   1.353  11.673   8.391  0.7389 -0.3075  0.6302
63210SOL    HW298409   1.328  11.806   8.458  0.4645 -0.1749  0.2697
63211SOL     OW98410   7.465  12.452   3.423  0.2323 -0.2531  0.4729
63211SOL    HW198411   7.463  12.360   3.449 -2.5978 -0.3869  0.1365
63211SOL    HW298412   7.448  12.500   3.504 -1.0861 -0.2321  0.2075
63212SOL     OW98413  12.367   4.039   3.446 -0.0556 -0.4801 -0.5519
63212SOL    HW198414  12.273   4.018   3.447  0.2542 -1.9739  0.1876
63212SOL    HW298415  12.399   4.001   3.364 -0.3768  1.6410 -1.7501
63213SOL     OW98416   1.808   2.304  10.200  0.0647 -0.0717 -0.0003
63213SOL    HW198417   1.826   2.270  10.113 -1.0652  0.1924 -0.3593
63213SOL    HW298418   1.893   2.332  10.234  0.2152  2.6468 -2.2068
63214SOL     OW98419   7.997  10.280   7.182  0.2170 -0.1144 -0.1790
63214SOL    HW198420   7.916  10.280   7.132 -0.4558  1.4546  0.8391
63214SOL    HW298421   8.059  10.329   7.128 -0.3712  1.1649  0.2802
63215SOL     OW98422   2.962   6.968   7.656  0.0226 -0.0317  0.5779
63215SOL    HW198423   2.937   6.905   7.724  0.9160  0.1280  1.0686
63215SOL    HW298424   2.879   6.993   7.616 -0.5548  0.0536  1.7773
63216SOL     OW98425   9.469  11.736   3.754  0.0217 -0.4862  0.2402
63216SOL    HW198426   9.457  11.736   3.659 -0.0858  0.2390  0.2480
63216SOL    HW298427   9.383  11.712   3.789 -0.9350  2.4720  0.2259
63217SOL     OW98428   5.965   9.013   5.535  0.3439  0.5035  0.6026
63217SOL    HW198429   6.006   9.098   5.525  0.7651  0.2597  0.1820
63217SOL    HW298430   6.035   8.956   5.569  0.7463 -0.2089 -1.2763
63218SOL     OW98431  12.150  11.915   0.485  0.2708 -0.1094  0.3305
63218SOL    HW198432  12.238  11.886   0.508  1.0806  1.1176 -0.9959
63218SOL    HW298433  12.122  11.855   0.417  1.4140  1.2805 -1.4788
63219SOL     OW98434   2.475   6.860  11.124 -0.2973  0.2281 -0.1980
63219SOL    HW198435   2.541   6.921  11.157 -0.2750 -0.4473  1.0622
63219SOL    HW298436   2.505   6.774  11.153 -1.5539 -0.1202  0.1017
63220SOL     OW98437   0.317   6.580   0.214  0.5018 -0.1882  0.0321
63220SOL    HW198438   0.386   6.573   0.280  0.2079 -1.2853  0.2369
63220SOL    HW298439   0.365   6.586   0.131  0.9399  2.9156  0.3642
63221SOL     OW98440   3.220   1.816   9.432  0.1832  0.3975  0.1582
63221SOL    HW198441   3.151   1.858   9.381 -0.6462 -2.0536 -0.9126
63221SOL    HW298442   3.192   1.725   9.441  1.7581  0.0347  2.5057
63222SOL     OW98443   4.004  10.065   7.357  0.6060 -0.4199 -0.3249
63222SOL    HW198444   4.093  10.051   7.325 -0.1466  0.1305 -2.9293
63222SOL    HW298445   3.994  10.160   7.358  0.4892 -0.4275  1.3830
63223SOL     OW98446   7.884  11.652   1.778  0.4876 -0.2186 -0.6158
63223SOL    HW198447   7.881  11.718   1.847  2.5435 -1.3311  0.6540
63223SOL    HW298448   7.807  11.597   1.795  0.3816  0.1524  0.1727
63224SOL     OW98449   4.495   0.830   2.081  0.1976 -0.0200  0.0525
63224SOL    HW198450   4.452   0.863   2.160  1.0525  1.6902 -0.1545
63224SOL    HW298451   4.558   0.766   2.113  0.0569  0.1567  0.6948
63225SOL     OW98452   2.962  10.573  11.826 -0.0812  0.7028  0.6308
63225SOL    HW198453   2.883  10.591  11.878 -1.0801  0.1071 -0.6112
63225SOL    HW298454   2.930  10.522  11.752  1.6277 -0.3756  0.5763
63226SOL     OW98455   9.055   3.852   5.162 -0.6275  0.4749  0.0516
63226SOL    HW198456   9.089   3.823   5.077 -1.3530  0.5913 -0.2881
63226SOL    HW298457   9.128   3.839   5.223  0.3773  1.6677 -0.8349
63227SOL     OW98458   0.825   1.351   0.093  0.0746 -0.0708  0.4200
63227SOL    HW198459   0.834   1.353   0.188 -0.0460 -0.3772  0.4393
63227SOL    HW298460   0.812   1.258   0.072  2.4534 -0.3278 -0.1190
63228SOL     OW98461   2.771  11.246  10.040  0.2592  0.2182  0.1740
63228SOL    HW198462   2.711  11.321  10.046  0.9575  0.7934  0.1093
63228SOL    HW298463   2.720  11.172  10.071 -0.7815  0.5288 -0.7307
63229SOL     OW98464  11.528   1.343  10.360  0.1476  0.3851  0.2813
63229SOL    HW198465  11.456   1.365  10.419  0.9911  1.9635  0.7606
63229SOL    HW298466  11.591   1.413  10.372  1.3158 -0.4292 -0.9018
63230SOL     OW98467  11.057   6.541   3.204  0.5130  0.0116  0.1090
63230SOL    HW198468  11.126   6.553   3.269  0.6372  0.3512 -0.0824
63230SOL    HW298469  10.977   6.531   3.256  0.6558 -0.0373  0.3227
63231SOL     OW98470   5.498   1.389   8.774  0.5375  0.1237  0.0221
63231SOL    HW198471   5.408   1.400   8.741  0.2294 -0.6241  0.5944
63231SOL    HW298472   5.488   1.370   8.867  1.2148 -1.2708 -0.1665
63232SOL     OW98473   5.195  12.016   4.692 -0.1132  0.8220  0.6976
63232SOL    HW198474   5.143  12.093   4.715 -2.3461 -0.2586 -0.4360
63232SOL    HW298475   5.136  11.942   4.705  1.6018 -0.6259  0.6697
63233SOL     OW98476   1.523   9.846   0.425 -0.0780 -0.0727  0.3709
63233SOL    HW198477   1.465   9.826   0.351 -0.5253  0.1190  0.6701
63233SOL    HW298478   1.564   9.929   0.401  1.1354 -0.8903 -0.4803
63234SOL     OW98479   3.279   1.358   8.038 -0.2122  0.0901 -0.3095
63234SOL    HW198480   3.253   1.322   7.953 -0.3406 -1.1452  0.2381
63234SOL    HW298481   3.233   1.305   8.102  0.3921  0.5954  0.5637
63235SOL     OW98482  12.012   7.271   6.298 -0.2470  0.2592  0.4121
63235SOL    HW198483  11.921   7.282   6.269  0.2396 -1.4468 -2.1430
63235SOL    HW298484  12.053   7.219   6.228  2.0143 -1.3564  2.7530
63236SOL     OW98485  11.858  12.142   0.073 -0.1881  0.5613 -0.4738
63236SOL    HW198486  11.902  12.120   0.155 -1.0895 -0.0758 -0.1360
63236SOL    HW298487  11.786  12.200   0.100 -1.3487 -0.7606 -0.5988
63237SOL     OW98488   1.252   0.025   4.493  0.1618 -0.0008  0.2948
63237SOL    HW198489   1.225   0.115   4.509  0.5494 -0.3406  3.6255
63237SOL    HW298490   1.210  -0.025   4.564  1.5039 -2.1166 -0.3103
63238SOL     OW98491   6.317   0.884   0.601 -0.2382  0.3271  0.7656
63238SOL    HW198492   6.229   0.891   0.638 -0.6663 -1.6782  0.2565
63238SOL    HW298493   6.361   0.819   0.656 -0.4023 -1.5937 -1.2395
63239SOL     OW98494   4.095   4.705   9.044 -0.1444  0.2249 -0.1012
63239SOL    HW198495   4.188   4.717   9.062  0.2223 -0.9859 -1.0935
63239SOL    HW298496   4.077   4.764   8.971 -0.2036  0.5870  0.2022
63240SOL     OW98497   7.033  12.511   1.842  0.0198 -0.4216 -0.0537
63240SOL    HW198498   7.061  12.466   1.762  1.8788  0.5593  0.0070
63240SOL    HW298499   7.093  12.479   1.909 -0.1933  0.3450  0.5068
63241SOL     OW98500   4.937  11.383   8.741  0.0810  0.5049  0.1109
63241SOL    HW198501   4.881  11.432   8.680  1.6749 -0.8337 -2.6615
63241SOL    HW298502   4.879  11.320   8.782 -0.5524 -1.0613 -2.9014
63242SOL     OW98503   0.218   2.712   9.933  0.0783  0.0615 -0.4664
63242SOL    HW198504   0.228   2.688   9.841  0.5484  0.4799 -0.5288
63242SOL    HW298505   0.218   2.629   9.980 -1.3403 -0.2395 -0.9363
63243SOL     OW98506  11.175   0.411   0.436 -0.4518 -0.8590 -0.2137
63243SOL    HW198507  11.159   0.392   0.529 -0.9825 -0.2225 -0.1681
63243SOL    HW298508  11.091   0.395   0.393 -0.0560 -1.7336 -0.6939
63244SOL     OW98509   6.249   6.581  10.973  0.6682 -0.2172 -0.5816
63244SOL    HW198510   6.161   6.543  10.967 -0.1378  1.4305  0.2491
63244SOL    HW298511   6.281   6.581  10.883 -0.5533 -0.0134 -1.0320
63245SOL     OW98512  10.493   7.317   6.510  0.2827 -0.2536 -0.1615
63245SOL    HW198513  10.468   7.246   6.570 -1.2103  0.2867 -0.0974
63245SOL    HW298514  10.446   7.299   6.429  0.9610 -0.0659 -0.6041
63246SOL     OW98515  10.479   0.569   1.229 -0.0637 -0.3646 -0.0137
63246SOL    HW198516  10.414   0.634   1.204 -0.9791 -0.5654  1.6713
63246SOL    HW298517  10.428   0.497   1.267  1.1046 -0.6217  1.1581
63247SOL     OW98518  11.581   6.948  12.221 -0.5551 -0.1898 -0.2064
63247SOL    HW198519  11.600   6.904  12.137  0.4199 -1.7845  0.7865
63247SOL    HW298520  11.608   6.884  12.287 -0.8449  1.2346  1.3342
63248SOL     OW98521   4.011   2.527  10.775 -0.7334 -0.1245 -0.6690
63248SOL    HW198522   4.049   2.594  10.718  0.3225 -0.4344 -0.3471
63248SOL    HW298523   4.032   2.445  10.732  3.5157 -0.6907  1.9452
63249SOL     OW98524   7.063   5.603   5.149 -0.0998  1.0866 -0.5813
63249SOL    HW198525   7.134   5.640   5.201  0.1560  0.4728 -0.4878
63249SOL    HW298526   7.080   5.633   5.060  0.7318  0.3033 -0.7021
63250SOL     OW98527  10.970  11.658   1.304 -0.2943  0.4728 -0.1417
63250SOL    HW198528  11.052  11.621   1.272 -0.0678 -0.3813  1.2819
63250SOL    HW298529  10.909  11.583   1.305 -0.7863  0.8661 -0.2356
63251SOL     OW98530  11.605   3.508  10.088 -0.0537  0.3013 -0.2038
63251SOL    HW198531  11.634   3.417  10.097  0.9768  0.5977 -0.4053
63251SOL    HW298532  11.531   3.516  10.149  0.3864 -0.4422  0.4456
63252SOL     OW98533   2.750  11.913   6.164 -0.0565  0.0866 -0.3038
63252SOL    HW198534   2.787  11.837   6.209 -0.9547  0.3548  0.9419
63252SOL    HW298535   2.801  11.987   6.196  0.0923  0.1429 -0.6669
63253SOL     OW98536   0.483   8.049   2.059  0.0756  0.0331 -0.3503
63253SOL    HW198537   0.535   8.034   2.138 -0.3505 -0.7189 -0.1968
63253SOL    HW298538   0.506   8.137   2.031 -2.3165  1.7643  2.5626
63254SOL     OW98539   0.285   1.508   8.973 -0.0235 -0.8627 -0.2261
63254SOL    HW198540   0.268   1.414   8.967 -0.3890 -0.8713  0.7138
63254SOL    HW298541   0.336   1.518   9.053 -1.8507 -0.0387  0.9057
63255SOL     OW98542   5.260   0.155   8.837  0.1939 -0.1610  0.1599
63255SOL    HW198543   5.251   0.234   8.891  1.1315  0.1930 -0.1893
63255SOL    HW298544   5.248   0.083   8.899 -3.4364  0.1729  0.0574
63256SOL     OW98545  12.068  10.422   9.302  0.0845  0.1634 -0.2396
63256SOL    HW198546  12.077  10.464   9.387  2.0931  0.9870 -0.7887
63256SOL    HW298547  12.137  10.355   9.301 -0.2601 -0.1901 -1.0137
63257SOL     OW98548  11.217   0.896   4.272  0.8932  0.1308 -0.4418
63257SOL    HW198549  11.276   0.940   4.211  1.1426  0.8356  0.2843
63257SOL    HW298550  11.131   0.934   4.254  1.3720  2.2540  1.3148
63258SOL     OW98551   6.586   7.403   5.525 -0.2702  0.0282 -0.2469
63258SOL    HW198552   6.621   7.435   5.442 -1.3910  0.8298 -0.4346
63258SOL    HW298553   6.500   7.445   5.533  0.0827  0.4821  1.6299
63259SOL     OW98554   5.968  12.329   6.794  0.0772 -0.4340  0.7059
63259SOL    HW198555   6.019  12.346   6.715 -2.0704  0.5172 -0.5833
63259SOL    HW298556   5.944  12.416   6.827 -0.1569 -0.8374  1.6457
63260SOL     OW98557   9.418   2.975   3.084  0.1930 -0.4986  0.1612
63260SOL    HW198558   9.414   3.066   3.114  2.2237  0.0921 -1.1336
63260SOL    HW298559   9.366   2.974   3.004  0.6401 -0.3041 -0.1395
63261SOL     OW98560   8.558   5.878   0.263 -0.0562 -0.4619  0.1184
63261SOL    HW198561   8.602   5.871   0.178  0.4495  2.7736  0.0037
63261SOL    HW298562   8.465   5.871   0.242  0.0294  0.8601 -0.8208
63262SOL     OW98563  10.756   5.104   6.189  0.3287 -0.1287 -0.0194
63262SOL    HW198564  10.720   5.057   6.264 -0.7705  0.9845  0.1826
63262SOL    HW298565  10.772   5.192   6.222 -2.1052  0.9914 -1.5524
63263SOL     OW98566   5.035  11.649   9.489  0.0241  0.4692  0.4147
63263SOL    HW198567   5.087  11.571   9.510  2.6487  1.5366 -1.4461
63263SOL    HW298568   5.101  11.718   9.475 -1.8648  1.9315 -2.2648
63264SOL     OW98569   8.638   1.048   1.653 -0.4706  0.4521  0.2605
63264SOL    HW198570   8.624   1.105   1.729  2.5596 -0.4578  1.6266
63264SOL    HW298571   8.665   0.965   1.690  1.0728 -0.0365 -1.8090
63265SOL     OW98572   8.320   2.012   9.460  0.7285  0.3429  0.2854
63265SOL    HW198573   8.405   1.970   9.475  1.0513  1.0775  0.5390
63265SOL    HW298574   8.294   2.044   9.546 -0.6768 -1.4439  0.5821
63266SOL     OW98575   2.567   4.154   0.106 -0.3431  0.1065 -0.2161
63266SOL    HW198576   2.477   4.170   0.079 -0.2688  1.6990  0.4275
63266SOL    HW298577   2.604   4.104   0.033 -1.4283  0.3903 -0.9917
63267SOL     OW98578   4.631   1.179   4.180 -0.2512  0.1181  0.3621
63267SOL    HW198579   4.657   1.093   4.146 -3.1950 -1.3019  1.3323
63267SOL    HW298580   4.713   1.226   4.191  1.6747 -3.0791  1.1575
63268SOL     OW98581   6.813   9.710   5.530  0.1487 -0.1854 -0.2744
63268SOL    HW198582   6.751   9.666   5.472  1.5083 -1.6125 -0.7214
63268SOL    HW298583   6.847   9.783   5.478  0.5256 -0.7785 -0.8750
63269SOL     OW98584   5.902   0.143   5.940  0.5975 -0.1029 -0.0978
63269SOL    HW198585   5.884   0.056   5.904  1.0891  0.1006 -0.8456
63269SOL    HW298586   5.988   0.134   5.981  0.7119  0.0693 -0.3015
63270SOL     OW98587   9.100   3.756   0.223 -0.2857  0.8683  0.0523
63270SOL    HW198588   9.158   3.748   0.298  0.5168  1.1148 -0.5227
63270SOL    HW298589   9.014   3.729   0.255  0.3707 -0.6232  0.6325
63271SOL     OW98590  10.785   7.010   5.446  0.1699  0.4997  0.0465
63271SOL    HW198591  10.710   7.044   5.496  0.1859 -1.5858  1.6124
63271SOL    HW298592  10.767   6.917   5.436  2.4942 -0.0453  0.4061
63272SOL     OW98593   3.527   9.216   2.336 -0.7367 -0.1868  0.5224
63272SOL    HW198594   3.531   9.187   2.426 -1.0135 -2.9625 -0.2796
63272SOL    HW298595   3.445   9.180   2.302  0.1721 -0.6769 -1.2871
63273SOL     OW98596   3.584   0.888   5.921 -0.4120  0.7419  0.0063
63273SOL    HW198597   3.531   0.841   5.856  0.5669  1.7612 -1.5891
63273SOL    HW298598   3.519   0.935   5.974 -1.2191  0.1236 -0.4007
63274SOL     OW98599   1.031   7.145   6.728  0.1823  0.0183  0.6057
63274SOL    HW198600   0.939   7.164   6.743  0.0545 -0.4619  0.4374
63274SOL    HW298601   1.045   7.165   6.635  0.0922 -0.5196  0.4736
63275SOL     OW98602   6.750   1.811   8.706  0.1038 -0.1561  0.3331
63275SOL    HW198603   6.664   1.801   8.749 -0.0758 -0.3267 -0.0639
63275SOL    HW298604   6.730   1.816   8.613  0.4320  1.0119  0.3106
63276SOL     OW98605   0.793   7.681  11.692  0.4169  0.1745 -0.1177
63276SOL    HW198606   0.719   7.741  11.687 -0.4431 -0.8406  0.0756
63276SOL    HW298607   0.775   7.627  11.769  0.4267 -1.2633 -1.0847
63277SOL     OW98608   6.677   6.253   6.244 -0.2042 -0.2602 -0.2422
63277SOL    HW198609   6.733   6.176   6.246 -0.4827 -0.4533  1.1092
63277SOL    HW298610   6.636   6.251   6.157  0.2321 -1.3064 -0.4376
63278SOL     OW98611   1.475   1.304   8.784 -0.1539  0.4601 -0.6315
63278SOL    HW198612   1.542   1.292   8.717  0.8622 -0.8319  0.5407
63278SOL    HW298613   1.521   1.344   8.858 -0.9810  0.8052 -0.2824
63279SOL     OW98614   7.148   4.031   0.869  0.1840  0.9367 -0.0591
63279SOL    HW198615   7.092   3.960   0.901 -1.3720  3.0456  2.2053
63279SOL    HW298616   7.209   4.047   0.940  0.7807  1.6206 -0.7149
63280SOL     OW98617  12.412  12.470   5.320 -0.1996  0.7043 -0.0679
63280SOL    HW198618  12.428  12.430   5.405  1.1201  1.0807 -0.1070
63280SOL    HW298619  12.380  12.398   5.265  1.6554 -0.2482 -0.0081
63281SOL     OW98620   4.236   6.285  11.160 -0.2272 -0.0020  0.2359
63281SOL    HW198621   4.263   6.277  11.068 -1.0127 -1.6707  0.1247
63281SOL    HW298622   4.144   6.313  11.155  0.2357  1.7390  0.5758
63282SOL     OW98623   5.343   1.748   7.663 -0.1118 -0.2102  0.5003
63282SOL    HW198624   5.270   1.721   7.718  0.8248 -3.7606  0.2342
63282SOL    HW298625   5.303   1.779   7.582 -1.3786 -1.5586  0.5774
63283SOL     OW98626   3.315   0.700  10.976 -0.8952 -0.4884 -0.2204
63283SOL    HW198627   3.325   0.694  10.882  1.5175 -0.0756 -0.0542
63283SOL    HW298628   3.318   0.794  10.995 -2.0077 -0.5222  0.2450
63284SOL     OW98629  12.004   8.691   2.902  0.1892  0.0313  0.3736
63284SOL    HW198630  12.064   8.709   2.830  0.6890  0.6340  0.9374
63284SOL    HW298631  12.026   8.755   2.969 -2.1888  1.4031 -0.0518
63285SOL     OW98632   2.903   4.619   0.584  0.1315  0.2216 -0.3168
63285SOL    HW198633   2.988   4.587   0.553  0.1098  0.9011 -1.0887
63285SOL    HW298634   2.888   4.700   0.536 -1.3671 -0.3418 -0.8586
63286SOL     OW98635   5.179   5.302  11.300 -0.1908  0.1510 -0.5042
63286SOL    HW198636   5.193   5.337  11.388 -0.2788 -0.7724 -0.1051
63286SOL    HW298637   5.086   5.279  11.298  0.5421 -3.8463  0.7682
63287SOL     OW98638   7.291  10.668   9.086  0.0822  0.1064 -0.7846
63287SOL    HW198639   7.272  10.577   9.062  2.2663 -0.2005 -1.5406
63287SOL    HW298640   7.206  10.704   9.110 -0.9026 -2.0257 -0.8015
63288SOL     OW98641   2.730   2.534   0.260 -0.3656  0.5691  0.6496
63288SOL    HW198642   2.680   2.585   0.323  0.6201  1.7909  0.4896
63288SOL    HW298643   2.788   2.598   0.218  0.2645 -0.5309 -0.2120
63289SOL     OW98644   2.031   8.823  10.903  0.3770  0.1901  0.7573
63289SOL    HW198645   1.978   8.767  10.846  1.3164  0.9343 -0.9137
63289SOL    HW298646   1.967   8.874  10.953 -0.4941  0.0540 -0.1837
63290SOL     OW98647   8.993   1.177   8.703  0.0536 -0.5142 -0.2257
63290SOL    HW198648   8.997   1.081   8.703  0.1979 -0.5287 -1.6566
63290SOL    HW298649   9.083   1.204   8.686 -0.4311 -0.2275 -2.8181
63291SOL     OW98650   8.278  12.125   6.885  0.2844 -0.4462  0.4155
63291SOL    HW198651   8.241  12.186   6.949 -0.1258  0.1126 -0.3413
63291SOL    HW298652   8.202  12.091   6.837  0.6183 -0.4698 -0.1085
63292SOL     OW98653   2.126   7.026   0.944  0.1530  0.0810 -0.1134
63292SOL    HW198654   2.124   7.098   0.881 -1.8734 -0.0403 -0.2589
63292SOL    HW298655   2.171   6.955   0.898 -1.4122 -0.0540 -1.5380
63293SOL     OW98656   6.115   0.455   3.656 -0.1750  0.1063 -0.2960
63293SOL    HW198657   6.086   0.527   3.600  1.8133  0.7884 -0.5405
63293SOL    HW298658   6.078   0.476   3.742 -0.1694  1.0779 -0.5151
63294SOL     OW98659   1.297   6.820   6.945  0.5581 -0.7023 -0.2281
63294SOL    HW198660   1.240   6.771   6.885 -2.5929  3.9619 -1.5356
63294SOL    HW298661   1.264   6.799   7.032 -0.4226 -1.2021 -0.7072
63295SOL     OW98662   1.732  11.071  10.610 -0.4353  0.0725  0.1704
63295SOL    HW198663   1.737  11.160  10.646 -1.4497 -0.2708  1.2143
63295SOL    HW298664   1.666  11.027  10.663  0.7880 -1.6369  0.3389
63296SOL     OW98665   8.423   3.427   3.224  0.0339 -0.0370  0.3134
63296SOL    HW198666   8.482   3.473   3.165  1.8611  0.2926  2.2466
63296SOL    HW298667   8.478   3.403   3.299 -1.8043 -1.7325  1.2251
63297SOL     OW98668   5.463   1.088   0.500 -0.3898 -0.3636 -0.6577
63297SOL    HW198669   5.521   1.045   0.437  0.4393 -1.5058  0.7953
63297SOL    HW298670   5.486   1.181   0.495  0.5106 -0.6037 -1.1837
63298SOL     OW98671   2.581  10.197   9.497 -0.0350  0.0937  0.0211
63298SOL    HW198672   2.671  10.166   9.492 -0.4326 -0.9646 -0.8032
63298SOL    HW298673   2.528  10.118   9.510 -0.7644  0.8201  1.9341
63299SOL     OW98674  11.794   1.757   6.396  0.1731  0.1675 -0.0212
63299SOL    HW198675  11.823   1.843   6.426 -0.7643  0.7596 -0.7328
63299SOL    HW298676  11.699   1.763   6.395  0.0856 -0.9665  0.1434
63300SOL     OW98677   3.101   3.428   6.578  0.4986 -0.2797 -0.2538
63300SOL    HW198678   3.097   3.505   6.521  0.0663  0.2709  0.5059
63300SOL    HW298679   3.173   3.445   6.638 -1.2350  0.7691  1.6241
63301SOL     OW98680  12.237   4.259   0.040 -0.0897  0.3318 -0.2416
63301SOL    HW198681  12.219   4.353   0.039 -0.7999  0.1992 -0.1773
63301SOL    HW298682  12.151   4.218   0.030  0.3686 -0.3035 -2.0115
63302SOL     OW98683   7.818   8.653   4.660  0.1819 -0.3517 -0.2603
63302SOL    HW198684   7.802   8.696   4.577 -0.2726 -1.7461 -0.9283
63302SOL    HW298685   7.906   8.615   4.651 -0.8438 -2.7168 -1.1698
63303SOL     OW98686  11.795   6.441   6.941  0.3069  0.0588 -0.4625
63303SOL    HW198687  11.750   6.393   7.010  0.0648 -0.4878 -0.9930
63303SOL    HW298688  11.780   6.390   6.862 -1.1345  1.7203 -1.3264
63304SOL     OW98689   4.091  10.922   2.452  0.0110  0.5293  0.1200
63304SOL    HW198690   4.057  10.964   2.374  0.9813  0.4323 -0.3663
63304SOL    HW298691   4.122  10.994   2.507  0.0836  0.5471  0.0549
63305SOL     OW98692  10.357  12.357   7.046  0.9444  0.0787  0.1178
63305SOL    HW198693  10.442  12.331   7.083  1.8751  1.5122 -0.9265
63305SOL    HW298694  10.313  12.404   7.117 -0.1001 -2.7578  1.5074
63306SOL     OW98695  11.150   2.609   7.337 -0.4933  0.2022  0.1148
63306SOL    HW198696  11.118   2.689   7.378 -1.1512 -0.2834  0.5822
63306SOL    HW298697  11.161   2.631   7.245 -0.3739  0.9110  0.2932
63307SOL     OW98698   1.974   1.580   4.339  0.5300  0.1639  0.1533
63307SOL    HW198699   2.015   1.515   4.282  0.0627  0.7116 -0.8307
63307SOL    HW298700   1.936   1.644   4.279 -0.2038  0.6160  1.0769
63308SOL     OW98701   5.006  10.276   8.335  0.2844  0.1513 -0.3326
63308SOL    HW198702   5.037  10.319   8.255 -2.2451 -0.8815 -1.9784
63308SOL    HW298703   4.933  10.331   8.364 -0.6889 -1.0441 -0.4399
63309SOL     OW98704   9.244   4.771   5.488  1.1259 -0.0299 -0.5078
63309SOL    HW198705   9.207   4.851   5.453  1.4461  0.0213 -0.7262
63309SOL    HW298706   9.177   4.738   5.548  0.7732  0.1209 -0.8155
63310SOL     OW98707  11.230   4.100   0.983 -0.5780 -0.5429 -0.2285
63310SOL    HW198708  11.144   4.068   1.009 -1.3414  0.9166 -0.8306
63310SOL    HW298709  11.246   4.175   1.040 -0.1516 -0.2232 -0.7538
63311SOL     OW98710   6.674  11.689   2.001  0.1424 -0.0508 -0.1183
63311SOL    HW198711   6.729  11.612   2.015 -0.1300 -0.2478 -0.1326
63311SOL    HW298712   6.608  11.660   1.939  0.5886  0.4557 -0.8468
63312SOL     OW98713   3.811  11.227   5.811  0.3381 -0.0459 -0.6425
63312SOL    HW198714   3.838  11.275   5.889  0.7934 -0.1988 -0.7009
63312SOL    HW298715   3.844  11.138   5.826  1.7336  0.2597 -1.6483
63313SOL     OW98716   6.195   7.419   6.102  0.1427 -0.0090 -0.2173
63313SOL    HW198717   6.111   7.445   6.140 -0.6676 -0.2864 -1.7370
63313SOL    HW298718   6.203   7.326   6.124 -0.6512 -0.3399 -1.2535
63314SOL     OW98719   7.571   7.652  10.858 -0.4907 -0.0934 -0.6533
63314SOL    HW198720   7.517   7.576  10.880 -0.2453 -0.1808 -0.3447
63314SOL    HW298721   7.520   7.727  10.886 -0.3626 -0.1860 -0.1678
63315SOL     OW98722   4.339   8.790   5.547 -0.1307  0.4683 -0.0532
63315SOL    HW198723   4.323   8.752   5.460 -0.4169 -2.0699  1.0231
63315SOL    HW298724   4.265   8.849   5.561 -1.5727 -1.1592 -0.4835
63316SOL     OW98725   6.250  11.596   3.540 -0.3663  0.1433  0.2234
63316SOL    HW198726   6.221  11.624   3.627  0.9002  0.5894  0.5292
63316SOL    HW298727   6.268  11.502   3.550 -1.5914 -0.1293  0.0403
63317SOL     OW98728   6.960   8.195   8.505 -0.0926 -0.1580  0.4306
63317SOL    HW198729   6.930   8.140   8.433 -0.2769  0.2268  0.2125
63317SOL    HW298730   6.900   8.270   8.506  0.4657  0.3004  0.3892
63318SOL     OW98731   7.206   5.362   1.774 -0.5343 -0.0143 -0.1361
63318SOL    HW198732   7.116   5.358   1.805 -0.1939  1.4776  1.1825
63318SOL    HW298733   7.216   5.285   1.718 -1.6691 -2.0292  2.2644
63319SOL     OW98734  11.682   6.938   6.254 -0.7435  0.2510  0.1712
63319SOL    HW198735  11.759   6.950   6.198  0.0855  0.0915  1.2595
63319SOL    HW298736  11.654   6.849   6.237 -0.4262  0.1647  0.0924
63320SOL     OW98737   2.140   2.592   6.461 -0.3786 -0.4772  0.4190
63320SOL    HW198738   2.141   2.508   6.415 -0.0244 -1.3593  1.9737
63320SOL    HW298739   2.048   2.606   6.484 -0.6162  0.1495 -0.8256
63321SOL     OW98740   5.251   4.806   5.441  0.5402  0.0361 -0.1516
63321SOL    HW198741   5.270   4.888   5.395  1.2071 -0.3868 -0.6503
63321SOL    HW298742   5.334   4.759   5.443  0.4525 -0.1014  1.2353
63322SOL     OW98743  10.562   0.312   5.171 -0.0063 -0.1195 -0.8505
63322SOL    HW198744  10.568   0.390   5.227 -1.1520  0.5265 -1.6061
63322SOL    HW298745  10.471   0.284   5.179  0.5092 -1.7132 -0.1885
63323SOL     OW98746  11.094   3.614  10.426  0.3779  0.1674  0.2564
63323SOL    HW198747  11.034   3.680  10.461 -1.6258 -1.5969  0.3613
63323SOL    HW298748  11.162   3.664  10.382 -1.1072  2.2994  0.2608
63324SOL     OW98749   3.631  11.438  11.720 -0.3558  0.2385 -0.7609
63324SOL    HW198750   3.631  11.347  11.751 -1.6697  0.8122  1.1170
63324SOL    HW298751   3.540  11.455  11.697 -0.0662  1.0147 -1.3790
63325SOL     OW98752  11.950   6.213  12.534 -0.3325  0.5314  0.5870
63325SOL    HW198753  11.986   6.222  12.446  1.4533  0.4566  1.2738
63325SOL    HW298754  11.925   6.121  12.540  0.4124  0.3127  0.4578
63326SOL     OW98755  11.412   7.603   0.642 -0.9242  0.0325 -0.2689
63326SOL    HW198756  11.344   7.542   0.613 -0.3365 -1.0854  0.6480
63326SOL    HW298757  11.367   7.659   0.706 -0.9043 -0.9698  0.6469
63327SOL     OW98758   2.025   8.837   3.488  0.1379 -0.0331 -0.6125
63327SOL    HW198759   2.000   8.929   3.498  1.2286  0.0332  2.3694
63327SOL    HW298760   1.946   8.794   3.455 -1.0079  1.6287 -0.1378
63328SOL     OW98761   8.273   6.342   0.751 -0.2690  0.1274 -0.2281
63328SOL    HW198762   8.256   6.252   0.723 -0.7737  0.2854 -0.4389
63328SOL    HW298763   8.322   6.333   0.833  1.1903 -0.3488 -1.1046
63329SOL     OW98764   1.773   9.463   1.264 -0.0251  0.1564  0.5023
63329SOL    HW198765   1.799   9.452   1.173  1.4778  1.9412  0.6565
63329SOL    HW298766   1.690   9.510   1.259 -0.1024 -0.0222  0.0483
63330SOL     OW98767   0.887   1.889   1.504 -0.2145 -0.0767  0.0686
63330SOL    HW198768   0.905   1.823   1.437 -1.4214 -1.4232  1.0011
63330SOL    HW298769   0.918   1.972   1.466  0.5686 -1.0381 -1.4781
63331SOL     OW98770   2.850   0.141  12.438  0.2129  0.4885  0.2888
63331SOL    HW198771   2.937   0.162  12.403 -0.2678 -0.9110 -2.0016
63331SOL    HW298772   2.807   0.093  12.367 -1.9174 -0.1442  1.8978
63332SOL     OW98773  11.895   0.677   1.853 -0.1931  0.7167 -0.6119
63332SOL    HW198774  11.902   0.725   1.936  0.2649  3.4712 -2.1059
63332SOL    HW298775  11.812   0.706   1.816 -0.4814 -0.6262 -1.0523
63333SOL     OW98776  12.420   6.894  12.424 -0.0544 -0.6021  0.2536
63333SOL    HW198777  12.388   6.934  12.344  1.5281  1.8623  0.7289
63333SOL    HW298778  12.365   6.932  12.493  1.2986  0.6763  0.6863
63334SOL     OW98779   8.898   4.833   4.684 -0.4826 -0.0507  0.2022
63334SOL    HW198780   8.826   4.859   4.627 -0.4599  0.2490  0.3114
63334SOL    HW298781   8.909   4.739   4.667 -0.0510  0.1652 -0.7533
63335SOL     OW98782  10.788   8.585   4.930 -0.6435  0.4962  0.1161
63335SOL    HW198783  10.748   8.634   4.859 -1.3327 -0.7277 -0.3733
63335SOL    HW298784  10.745   8.499   4.927 -1.2309  0.6311  2.4704
63336SOL     OW98785   9.473  11.114  10.697 -0.1724 -0.4670  0.0713
63336SOL    HW198786   9.546  11.096  10.756  0.1895  0.0758 -0.1993
63336SOL    HW298787   9.395  11.097  10.749  0.1471 -0.2993  0.6100
63337SOL     OW98788   4.082   8.454   7.970 -0.0561 -0.6434 -0.0789
63337SOL    HW198789   4.125   8.539   7.962  0.8244 -1.0490  0.1858
63337SOL    HW298790   4.154   8.390   7.966 -0.5773 -1.3195  0.8177
63338SOL     OW98791   0.312  11.009   9.219  0.0830 -0.0435 -0.2111
63338SOL    HW198792   0.394  11.055   9.236 -0.4503  0.7862  0.2429
63338SOL    HW298793   0.321  10.975   9.130  1.7157 -1.7691  0.5591
63339SOL     OW98794   3.155  11.226   5.612  0.0847 -0.0768  0.7259
63339SOL    HW198795   3.249  11.245   5.609 -0.1026  1.3809  2.2156
63339SOL    HW298796   3.134  11.225   5.706 -1.7225  1.6526  0.4150
63340SOL     OW98797   6.394   1.708  10.429  0.6877  0.2384  0.3499
63340SOL    HW198798   6.344   1.733  10.506  2.6056 -0.7553  2.0112
63340SOL    HW298799   6.424   1.619  10.448  2.0241  0.3401 -1.1180
63341SOL     OW98800   1.659   4.321  11.840 -0.4108  0.4628 -0.0800
63341SOL    HW198801   1.655   4.409  11.803  0.8324  0.2291 -0.8337
63341SOL    HW298802   1.654   4.334  11.935 -0.4809  1.3190 -0.1957
63342SOL     OW98803   7.133  10.146   8.986 -0.1351  0.3193 -0.2015
63342SOL    HW198804   7.109  10.070   8.934 -1.0616 -0.5011  1.3407
63342SOL    HW298805   7.227  10.155   8.974 -0.1011 -0.7432 -0.8255
63343SOL     OW98806   8.245   9.028  12.232 -0.1591 -0.0870 -0.2382
63343SOL    HW198807   8.259   9.090  12.305 -0.0674  0.3842 -0.6485
63343SOL    HW298808   8.290   8.948  12.260 -1.6344 -0.5409  1.0145
63344SOL     OW98809   1.101  10.920  10.611  0.1319 -0.0189  0.0850
63344SOL    HW198810   1.172  10.858  10.596 -0.9529 -1.0045 -1.2488
63344SOL    HW298811   1.038  10.871  10.664 -0.9310 -0.2459 -1.3498
63345SOL     OW98812   0.339   3.641   6.141  0.5385 -0.2778  0.1861
63345SOL    HW198813   0.266   3.587   6.173  0.1540 -0.1269 -0.4178
63345SOL    HW298814   0.411   3.578   6.128  0.4050 -0.4855  0.4497
63346SOL     OW98815   8.673   5.131   5.376 -0.0533  0.1423  0.2909
63346SOL    HW198816   8.649   5.168   5.291 -0.7061 -0.1904  0.3280
63346SOL    HW298817   8.711   5.046   5.356 -1.0519 -0.3414  0.3797
63347SOL     OW98818   5.058   0.075   8.678  0.2001  0.0846  0.1018
63347SOL    HW198819   5.041   0.089   8.585 -0.6662  0.6337  0.3317
63347SOL    HW298820   5.114   0.147   8.705  1.2027 -0.5659 -0.1812
63348SOL     OW98821  11.566   5.536   7.142 -0.6351  0.4779  0.4401
63348SOL    HW198822  11.483   5.513   7.183 -1.9386 -0.8879 -2.6323
63348SOL    HW298823  11.555   5.626   7.112 -0.3372  0.8713  1.4787
63349SOL     OW98824   9.203   5.284   9.621 -0.3190 -0.0218  0.3241
63349SOL    HW198825   9.195   5.199   9.664 -1.1985  1.3889  3.1925
63349SOL    HW298826   9.285   5.320   9.654 -0.2917  0.5482 -0.3373
63350SOL     OW98827   4.560   1.295   7.101 -0.1957  0.1881  0.3950
63350SOL    HW198828   4.611   1.222   7.066  1.4864  1.9707 -1.0352
63350SOL    HW298829   4.581   1.369   7.045 -3.2949  1.4038  0.6218
63351SOL     OW98830   4.211   0.701   2.275  0.1083 -0.5151  0.4908
63351SOL    HW198831   4.296   0.707   2.319 -0.2955 -1.9079  1.5473
63351SOL    HW298832   4.231   0.658   2.191  0.3758 -1.5104  1.0447
63352SOL     OW98833   5.895   2.532   0.545  0.2584 -0.1708  0.4224
63352SOL    HW198834   5.984   2.502   0.561  0.3759 -0.3541 -0.5381
63352SOL    HW298835   5.900   2.579   0.462  0.1081  2.6181  1.8672
63353SOL     OW98836   0.155   9.795  12.195  0.5185 -0.2095 -0.2824
63353SOL    HW198837   0.222   9.838  12.248  0.5723 -0.2154 -0.3457
63353SOL    HW298838   0.146   9.708  12.234  1.9837 -0.9535 -1.4851
63354SOL     OW98839   5.560   7.525   5.528  0.2254  0.0645 -0.3779
63354SOL    HW198840   5.623   7.598   5.531 -0.1704  0.4032 -0.1771
63354SOL    HW298841   5.600   7.462   5.469  4.3610 -3.0729  4.7760
63355SOL     OW98842   0.812   1.682  12.033 -0.1805 -0.4087  0.1943
63355SOL    HW198843   0.719   1.662  12.038 -0.1537 -0.5199  0.2560
63355SOL    HW298844   0.854   1.618  12.091 -0.1408  0.1640  0.8113
63356SOL     OW98845   4.437  10.290   6.043  0.1991 -0.1568 -0.2503
63356SOL    HW198846   4.379  10.364   6.058 -1.5645 -1.3848 -0.6410
63356SOL    HW298847   4.498  10.320   5.975 -0.0240  1.1244  0.0898
63357SOL     OW98848   0.024   0.984   5.394  0.0214  0.0555  1.0895
63357SOL    HW198849  -0.066   1.013   5.410 -0.5384 -1.6868  1.3097
63357SOL    HW298850   0.019   0.929   5.316  1.1274  0.9233  0.3825
63358SOL     OW98851   2.073   4.542   3.383  0.5936  0.6999 -0.2608
63358SOL    HW198852   2.041   4.478   3.446  0.6554  0.5969 -0.3349
63358SOL    HW298853   2.137   4.494   3.330 -0.5234  0.3737 -1.3558
63359SOL     OW98854   0.801   5.948   0.704 -0.3008  0.4883 -0.2817
63359SOL    HW198855   0.873   5.971   0.645  0.7069  1.2425  1.1724
63359SOL    HW298856   0.726   5.996   0.670  0.4118  1.4016 -0.6011
63360SOL     OW98857   1.550   6.801  10.110 -0.1852 -0.4115 -0.0097
63360SOL    HW198858   1.514   6.810  10.198  0.8310 -2.1324  0.6518
63360SOL    HW298859   1.485   6.748  10.063 -0.8004  0.6356 -0.3712
63361SOL     OW98860   1.512   7.515   8.405 -0.1734 -0.0279  0.6619
63361SOL    HW198861   1.564   7.502   8.326 -1.6294 -0.6950 -0.2351
63361SOL    HW298862   1.541   7.599   8.440 -0.4175  0.9506 -1.3436
63362SOL     OW98863   2.576  11.841   5.061 -0.3827 -0.1004  0.2905
63362SOL    HW198864   2.639  11.770   5.076 -0.5182 -0.1767  0.5051
63362SOL    HW298865   2.595  11.872   4.973  0.2844  0.2112  0.5445
63363SOL     OW98866   0.958   5.234  10.000  0.1005 -0.4751  0.5956
63363SOL    HW198867   0.869   5.269   9.993  0.5303  1.1373  2.2143
63363SOL    HW298868   0.984   5.216   9.910 -1.9451 -1.2450  0.1075
63364SOL     OW98869   4.123   0.543  10.947 -0.1950 -0.1783  0.0687
63364SOL    HW198870   4.123   0.448  10.963  2.1679 -0.2512 -0.0016
63364SOL    HW298871   4.172   0.552  10.865 -0.9625  1.0876 -0.2678
63365SOL     OW98872   6.877   1.168   9.986 -0.7542  0.0845 -0.5976
63365SOL    HW198873   6.919   1.231  10.044 -1.4508 -0.5611  0.6515
63365SOL    HW298874   6.950   1.128   9.938 -0.1110  0.2740  0.1921
63366SOL     OW98875   1.111   4.455   7.605  0.3745 -0.2509  0.0580
63366SOL    HW198876   1.201   4.479   7.583  0.3937 -0.7798 -0.4748
63366SOL    HW298877   1.058   4.493   7.535  0.1507  0.2804  0.5095
63367SOL     OW98878   8.007   6.782  10.016 -0.1547  0.0009  0.7580
63367SOL    HW198879   7.960   6.729   9.952  1.8890 -0.7803 -0.1963
63367SOL    HW298880   8.000   6.872   9.984  0.4053 -0.3180 -0.3179
63368SOL     OW98881   9.307   8.774  11.953 -0.3358  0.2436  0.2888
63368SOL    HW198882   9.370   8.801  12.021  0.2371 -0.4641  0.0443
63368SOL    HW298883   9.360   8.729  11.888 -0.8374  1.1499 -0.7888
63369SOL     OW98884   9.943   3.645  10.774  0.6849  0.2648  0.3719
63369SOL    HW198885   9.867   3.685  10.732  1.0058  1.3109  0.7623
63369SOL    HW298886   9.925   3.551  10.772 -0.4035  0.4721  0.0472
63370SOL     OW98887   2.180   5.917   0.166 -0.3282  0.4799  0.4374
63370SOL    HW198888   2.102   5.862   0.167  0.2305 -0.4193 -1.3209
63370SOL    HW298889   2.179   5.961   0.251 -1.8128 -0.7938  1.1352
63371SOL     OW98890   9.892   4.743   3.962  0.5170 -0.1164 -0.0081
63371SOL    HW198891   9.908   4.795   4.041  1.4368 -1.1624  0.5316
63371SOL    HW298892   9.802   4.712   3.971 -0.0273  1.2751 -0.3058
63372SOL     OW98893   6.368   9.894   5.720  0.4785  0.0868 -0.3179
63372SOL    HW198894   6.444   9.848   5.757  2.0497  1.7224 -1.3302
63372SOL    HW298895   6.355   9.969   5.777 -0.4170 -0.1913 -0.1429
63373SOL     OW98896   6.264  10.805   9.454 -0.8322  0.1256  0.0319
63373SOL    HW198897   6.315  10.724   9.467 -3.0642 -1.4449 -0.3677
63373SOL    HW298898   6.307  10.849   9.382 -0.6295 -1.6843 -1.0170
63374SOL     OW98899  11.841   3.871   5.108 -0.5108  0.5266 -0.2268
63374SOL    HW198900  11.903   3.893   5.177  1.5949  1.1669 -2.1968
63374SOL    HW298901  11.895   3.847   5.033 -2.6850 -0.5430 -1.5693
63375SOL     OW98902   9.450  10.353  12.592 -0.3517  0.0740  0.5471
63375SOL    HW198903   9.415  10.369  12.680 -1.7784 -1.3976  0.2900
63375SOL    HW298904   9.502  10.431  12.572 -0.6751  0.7933  2.3607
63376SOL     OW98905   9.140  12.534   5.360 -0.3840 -0.1520  0.4860
63376SOL    HW198906   9.228  12.557   5.332 -1.1181  0.5962 -1.3975
63376SOL    HW298907   9.086  12.546   5.282 -1.9781 -1.6707  1.2841
63377SOL     OW98908   1.903   6.556  10.698 -0.3043  0.2428  0.2415
63377SOL    HW198909   1.847   6.590  10.767 -0.0363  0.5762  0.2952
63377SOL    HW298910   1.989   6.548  10.738 -0.6275 -1.8146  0.6489
63378SOL     OW98911   1.677  10.179   4.920 -0.4741  0.0644  0.3593
63378SOL    HW198912   1.617  10.121   4.966 -0.7073 -0.6991 -0.8622
63378SOL    HW298913   1.635  10.265   4.924 -1.8210 -0.5107 -0.7215
63379SOL     OW98914   2.802  10.790   3.875  0.0448 -0.1564  0.2549
63379SOL    HW198915   2.782  10.744   3.793 -1.4040 -1.2057  1.1470
63379SOL    HW298916   2.892  10.763   3.896 -0.1046 -1.0990 -0.2266
63380SOL     OW98917   6.046  10.324   1.972 -0.5950  0.2826 -0.0015
63380SOL    HW198918   6.098  10.254   1.932  0.4108  1.2406 -0.4681
63380SOL    HW298919   6.085  10.336   2.059 -1.6850 -0.6616  0.6437
63381SOL     OW98920   1.271   3.598   9.470 -0.0082 -0.9541 -0.1689
63381SOL    HW198921   1.292   3.531   9.405  1.6638 -0.3652 -0.2856
63381SOL    HW298922   1.317   3.571   9.549 -0.9115 -0.9361  0.3844
63382SOL     OW98923   1.085  11.425   2.337  0.2719 -0.3577  0.8647
63382SOL    HW198924   1.022  11.449   2.269  2.2202  1.3506 -0.4753
63382SOL    HW298925   1.056  11.474   2.414  0.8088  1.7622 -0.2014
63383SOL     OW98926  11.390   0.967   7.663  0.0185 -0.1166  0.0182
63383SOL    HW198927  11.473   1.015   7.653 -1.0925  1.5786 -1.6967
63383SOL    HW298928  11.379   0.920   7.580 -1.1981  0.4752 -0.1770
63384SOL     OW98929  11.649   0.276   8.590  0.2464 -0.0106 -0.2499
63384SOL    HW198930  11.682   0.192   8.557  0.9055  0.1971 -0.1394
63384SOL    HW298931  11.594   0.310   8.520 -0.9174 -1.0413  0.1355
63385SOL     OW98932  11.554   9.751   3.201 -0.0718 -0.1912 -0.0306
63385SOL    HW198933  11.469   9.708   3.191  0.6588 -1.2256 -3.2531
63385SOL    HW298934  11.616   9.678   3.204  1.0926  0.3712 -4.2411
63386SOL     OW98935   8.591   3.583  11.864  0.4381 -0.0345 -0.2346
63386SOL    HW198936   8.674   3.583  11.912  0.3771 -1.1911 -0.1119
63386SOL    HW298937   8.590   3.500  11.817 -1.3388 -0.7499  0.9774
63387SOL     OW98938   0.106   9.297   3.491  0.3528 -0.1090 -0.2038
63387SOL    HW198939   0.070   9.383   3.512  1.3347  0.5034 -0.9569
63387SOL    HW298940   0.091   9.245   3.571  2.0155  1.4888  1.2487
63388SOL     OW98941   1.101   9.449  11.656 -0.0721 -0.0239  0.0974
63388SOL    HW198942   1.035   9.516  11.639  0.1968  0.4376  0.8139
63388SOL    HW298943   1.151   9.444  11.574 -1.1077 -0.5275 -0.5209
63389SOL     OW98944   9.564   3.806   3.447 -0.3818  0.0288  0.9110
63389SOL    HW198945   9.648   3.761   3.459  0.5616  0.7990 -1.9562
63389SOL    HW298946   9.511   3.745   3.398 -0.7001  0.3701  0.8254
63390SOL     OW98947  10.155   6.045   8.885  0.5940  0.3772  0.4646
63390SOL    HW198948  10.197   5.979   8.829 -0.1849 -1.2829  1.7458
63390SOL    HW298949  10.165   6.012   8.974 -0.7261  1.4696  1.0727
63391SOL     OW98950   3.476   7.373   2.869 -0.0791  0.1886 -0.5577
63391SOL    HW198951   3.474   7.468   2.861 -1.8667  0.0223 -3.0195
63391SOL    HW298952   3.396   7.351   2.917  0.2341 -0.1325 -0.1589
63392SOL     OW98953   6.285   6.988   6.507  1.2038 -0.3363 -0.1320
63392SOL    HW198954   6.301   6.923   6.576 -1.3031  0.3287  1.1861
63392SOL    HW298955   6.258   6.936   6.432 -0.5800 -0.8963  0.8406
63393SOL     OW98956   5.298   1.126   7.860  0.4451  0.0361 -0.6896
63393SOL    HW198957   5.345   1.048   7.829  1.1587  0.3368 -0.3946
63393SOL    HW298958   5.256   1.161   7.781  0.9043 -0.1184 -1.0090
63394SOL     OW98959   3.264  11.431   8.044 -0.1698 -0.0731 -0.3974
63394SOL    HW198960   3.269  11.434   7.948 -2.9413 -4.2600 -0.9339
63394SOL    HW298961   3.182  11.475   8.066  0.5254  1.0048  0.1710
63395SOL     OW98962   8.970   9.441  11.930  0.5467 -0.2931 -0.5741
63395SOL    HW198963   8.994   9.465  12.020  1.1401  0.7696 -1.0069
63395SOL    HW298964   9.054   9.423  11.887  0.4587  1.3925 -1.5226
63396SOL     OW98965   6.384   9.666   4.451 -0.0421 -0.3536  0.2478
63396SOL    HW198966   6.337   9.744   4.482  1.2401  0.2162  0.8575
63396SOL    HW298967   6.375   9.603   4.522 -0.5784 -0.5563  0.0061
63397SOL     OW98968   4.010   2.037   1.188  0.6477  0.4625 -0.3615
63397SOL    HW198969   3.954   1.999   1.120  1.3693 -2.1005  0.4033
63397SOL    HW298970   3.952   2.047   1.263  0.8240 -0.7290 -0.0534
63398SOL     OW98971   9.447   6.659   6.949  0.1918  0.3754  0.3603
63398SOL    HW198972   9.515   6.609   6.995  0.4022  0.6345  0.3348
63398SOL    HW298973   9.480   6.668   6.860  0.2165  0.6670  0.3972
63399SOL     OW98974   2.873  11.929   3.718 -0.2047 -0.9758 -0.0431
63399SOL    HW198975   2.850  11.989   3.648  3.6561 -0.1750 -0.7998
63399SOL    HW298976   2.847  11.975   3.798  1.7350  1.3357 -0.6515
63400SOL     OW98977   5.697   2.683   3.966  0.1812  0.2255 -0.3211
63400SOL    HW198978   5.627   2.644   4.019  0.7667 -0.3830  0.0221
63400SOL    HW298979   5.736   2.749   4.023  0.5099 -0.1099 -0.1485
63401SOL     OW98980  10.947   2.203  11.587  0.3211 -0.5504  0.4664
63401SOL    HW198981  10.852   2.192  11.587  0.2076  0.0285 -1.9344
63401SOL    HW298982  10.967   2.231  11.676 -2.0649  1.6184  0.4405
63402SOL     OW98983   5.272   5.890   7.163  0.3226  0.2785 -0.0467
63402SOL    HW198984   5.284   5.814   7.221  1.9602  0.9822  0.5898
63402SOL    HW298985   5.359   5.907   7.127  0.2797  2.5921  0.7854
63403SOL     OW98986   7.386   1.303  11.312 -0.9527 -0.2622 -0.9302
63403SOL    HW198987   7.424   1.364  11.248  0.0902 -0.2047 -0.2701
63403SOL    HW298988   7.444   1.228  11.311 -1.4294 -0.6399 -0.6705
63404SOL     OW98989   0.797   8.077   3.862  0.9772  0.0224 -0.6997
63404SOL    HW198990   0.885   8.056   3.894  0.5665 -0.5626  0.1167
63404SOL    HW298991   0.740   8.059   3.937  0.2449  1.2002 -0.9478
63405SOL     OW98992   0.018   0.875   6.656 -0.3900  0.1313  0.2750
63405SOL    HW198993   0.089   0.899   6.595  0.1018  2.2078  1.5508
63405SOL    HW298994   0.054   0.803   6.707  0.9425  1.2889  1.0388
63406SOL     OW98995  11.126   7.463   5.088 -0.4504 -0.3645  0.2908
63406SOL    HW198996  11.050   7.418   5.123 -3.1073  1.6430 -2.4232
63406SOL    HW298997  11.173   7.397   5.037 -1.9219 -1.0266 -0.2406
63407SOL     OW98998   4.649   0.939   1.873  0.2600  0.0672  0.2299
63407SOL    HW198999   4.651   1.034   1.862  0.6936  0.0185 -0.1281
63407SOL    HW299000   4.591   0.925   1.949 -0.5951  0.5577 -0.3136
63408SOL     OW99001   6.946   8.871   9.230  0.1597  0.1968  0.0255
63408SOL    HW199002   7.008   8.924   9.179 -1.9264 -0.4802 -3.5859
63408SOL    HW299003   6.942   8.788   9.183 -2.2979 -0.3176  1.0137
63409SOL     OW99004   8.521   3.444   2.059 -0.6702  0.3136  0.3707
63409SOL    HW199005   8.432   3.458   2.025 -1.3088 -1.3952  1.2116
63409SOL    HW299006   8.566   3.398   1.988 -1.2387 -0.9993  0.8191
63410SOL     OW99007  11.727   4.811   4.562 -0.3252 -0.0960 -0.1690
63410SOL    HW199008  11.696   4.866   4.491  1.6034 -0.4849 -1.3730
63410SOL    HW299009  11.714   4.864   4.641 -1.2426  0.8803 -0.9521
63411SOL     OW99010   4.171   5.944  10.917 -0.3062  0.0733  0.4498
63411SOL    HW199011   4.184   6.006  10.846  1.9698 -1.5021 -0.6074
63411SOL    HW299012   4.247   5.887  10.914 -0.0431 -0.0409  4.2252
63412SOL     OW99013   7.561  12.359   5.754 -0.4825  0.2091  0.0674
63412SOL    HW199014   7.566  12.287   5.817  0.1941 -1.2093 -1.5023
63412SOL    HW299015   7.605  12.432   5.796  1.9193 -1.3486  0.4252
63413SOL     OW99016   2.269   7.381  11.215 -0.2846 -0.2625 -0.5470
63413SOL    HW199017   2.303   7.303  11.172 -0.2551 -0.9633  0.7050
63413SOL    HW299018   2.228   7.431  11.145  0.6220 -0.8881 -1.5467
63414SOL     OW99019   2.584   0.802   5.499 -0.0783 -0.1247  0.0420
63414SOL    HW199020   2.658   0.839   5.547  0.4415 -1.3622  0.2543
63414SOL    HW299021   2.608   0.811   5.407 -0.5954  1.3020  0.0360
63415SOL     OW99022   3.391   6.529  11.758  0.2590  0.1399  0.0919
63415SOL    HW199023   3.431   6.444  11.773 -1.3508 -0.5428  0.7337
63415SOL    HW299024   3.309   6.509  11.712 -1.2251  1.1060  2.1755
63416SOL     OW99025   4.501   0.409  11.937  0.4477  0.4079  0.5400
63416SOL    HW199026   4.496   0.358  11.855 -0.1959  1.1498  0.1064
63416SOL    HW299027   4.590   0.445  11.937  1.2800 -1.4652  1.3375
63417SOL     OW99028   4.955   5.373   0.846 -0.2470  0.5762 -0.0420
63417SOL    HW199029   4.938   5.296   0.900 -0.1975 -1.4760 -2.7371
63417SOL    HW299030   4.885   5.374   0.781  1.2939  1.0878 -1.8042
63418SOL     OW99031   0.764   9.108   4.269 -0.0985  0.0111  0.1326
63418SOL    HW199032   0.833   9.051   4.235 -0.7062 -0.3868 -0.4499
63418SOL    HW299033   0.707   9.050   4.318 -2.4570 -0.5649 -2.9878
63419SOL     OW99034  11.499   9.363   1.166  0.0207  0.4833  0.1199
63419SOL    HW199035  11.456   9.304   1.229 -0.8219 -0.2825 -1.1250
63419SOL    HW299036  11.440   9.438   1.161 -1.4951 -0.7285 -1.8641
63420SOL     OW99037   0.812   7.307   0.300 -0.0394  0.2180  0.3390
63420SOL    HW199038   0.899   7.307   0.261 -0.2045 -0.8895 -0.0804
63420SOL    HW299039   0.797   7.397   0.328  2.2759 -0.0239  2.7350
63421SOL     OW99040   2.055  10.028   3.266 -0.1548  0.8595 -0.0491
63421SOL    HW199041   2.145   9.996   3.264 -0.1554  0.8116  0.4184
63421SOL    HW299042   2.026  10.011   3.356 -0.1526  2.2185  0.2187
63422SOL     OW99043   1.678   9.064   6.525 -0.0866 -0.0503 -0.0302
63422SOL    HW199044   1.614   8.993   6.534 -0.2716  0.0271 -0.6929
63422SOL    HW299045   1.626   9.140   6.501  0.1946  0.1401 -0.0421
63423SOL     OW99046   2.495  10.771   2.322 -0.0201 -0.3080  0.2447
63423SOL    HW199047   2.548  10.757   2.401  2.1835 -1.0810 -1.2965
63423SOL    HW299048   2.528  10.707   2.259 -2.9107 -0.9152 -0.8203
63424SOL     OW99049   3.887   2.647   4.567  0.3234  0.1951  0.4012
63424SOL    HW199050   3.972   2.606   4.552  0.5848  1.1578 -1.0166
63424SOL    HW299051   3.866   2.627   4.658  1.3235 -1.3941  0.3248
63425SOL     OW99052  10.188   1.708  12.121  0.2232  0.1141  0.0069
63425SOL    HW199053  10.124   1.639  12.102  1.0165 -0.5549 -0.2802
63425SOL    HW299054  10.192   1.711  12.217  1.4140 -1.4308  0.0400
63426SOL     OW99055   5.926   6.624   1.913 -0.6106  0.1318 -0.6004
63426SOL    HW199056   5.833   6.615   1.890 -0.3786  1.0585 -2.0065
63426SOL    HW299057   5.942   6.719   1.913  0.6210 -0.0429 -1.6662
63427SOL     OW99058   1.953   6.801   5.871 -0.1120  0.1004 -0.0860
63427SOL    HW199059   1.911   6.715   5.879 -3.4373  1.6914  1.5218
63427SOL    HW299060   2.034   6.793   5.922 -1.5002 -1.4724  2.0620
63428SOL     OW99061   6.866   0.212   2.489 -0.4968  0.2202  0.3968
63428SOL    HW199062   6.812   0.265   2.431  0.4992  2.0954  1.1002
63428SOL    HW299063   6.900   0.142   2.433 -1.2121  0.7789 -0.7764
63429SOL     OW99064   8.730   1.634  12.237 -0.5208 -0.4263  0.1738
63429SOL    HW199065   8.724   1.558  12.179 -2.6897  0.5092 -0.9429
63429SOL    HW299066   8.732   1.710  12.178 -0.5713  0.4553  1.2761
63430SOL     OW99067   4.964   1.838   7.663 -0.7386  0.0278 -0.2210
63430SOL    HW199068   4.871   1.857   7.672 -0.5352  1.9233 -1.3722
63430SOL    HW299069   5.007   1.921   7.686  0.6952 -0.8889  0.5513
63431SOL     OW99070   1.824   4.760   1.656  0.2412  0.2482 -0.2264
63431SOL    HW199071   1.904   4.811   1.642  0.8078 -1.0314 -2.0078
63431SOL    HW299072   1.852   4.686   1.709  0.4502 -0.6004 -1.4753
63432SOL     OW99073  11.083   3.490   8.501  0.3296 -0.5486 -0.3592
63432SOL    HW199074  11.086   3.538   8.583 -0.8062 -0.1040 -0.5457
63432SOL    HW299075  11.159   3.521   8.452  1.0247 -0.8373  0.5225
63433SOL     OW99076   7.049   1.134   8.438  0.4402  0.0509  0.3498
63433SOL    HW199077   7.072   1.226   8.426  0.5765  0.0704  0.7385
63433SOL    HW299078   7.000   1.111   8.359  2.6231 -0.2740 -0.9989
63434SOL     OW99079   5.397   2.990   6.694  0.3065  0.2238  0.4281
63434SOL    HW199080   5.426   2.974   6.604  1.8966  2.6252  0.4172
63434SOL    HW299081   5.303   3.006   6.686  0.7232  2.2668 -1.1499
63435SOL     OW99082   4.483   6.600  11.467 -0.3338  0.4087  0.3947
63435SOL    HW199083   4.408   6.572  11.520  1.6485 -1.5580  2.3933
63435SOL    HW299084   4.477   6.548  11.387  0.2484 -1.8090  1.6961
63436SOL     OW99085  10.698   1.043   2.809 -0.1542  0.2579  0.1798
63436SOL    HW199086  10.692   1.068   2.717  1.6571  0.1679  0.0059
63436SOL    HW299087  10.781   1.080   2.839 -0.8990  0.6557  1.9189
63437SOL     OW99088   2.222   2.055   0.175 -0.5150 -0.4172  0.6246
63437SOL    HW199089   2.190   2.110   0.247 -1.2887 -1.1155  0.8424
63437SOL    HW299090   2.316   2.046   0.192 -0.6921 -0.6211  1.6077
63438SOL     OW99091  10.485   9.605   6.930 -0.1324 -0.1070 -0.5232
63438SOL    HW199092  10.462   9.518   6.961  0.4939 -0.5936 -1.3710
63438SOL    HW299093  10.421   9.624   6.861  0.8911 -0.7470 -1.7004
63439SOL     OW99094   9.385   0.291   3.598  0.2075  0.0695  0.1431
63439SOL    HW199095   9.390   0.267   3.691 -2.0400  2.0317  0.8653
63439SOL    HW299096   9.328   0.225   3.559 -0.7489  0.5277  0.7144
63440SOL     OW99097   6.526  12.586   4.316 -0.2316  0.5924  0.0894
63440SOL    HW199098   6.440  12.627   4.328 -0.7671 -0.7421  1.1675
63440SOL    HW299099   6.512  12.495   4.343  0.5658 -0.7224 -3.4634
63441SOL     OW99100  12.190   8.535   7.868 -0.2674 -0.0916  0.2941
63441SOL    HW199101  12.266   8.593   7.878  0.4694 -0.5848 -1.9758
63441SOL    HW299102  12.218   8.453   7.908 -0.1313  0.1396  0.6825
63442SOL     OW99103   0.759  12.535  12.212  0.7795  0.4022  0.3644
63442SOL    HW199104   0.668  12.509  12.193  0.0108  3.1676 -0.1292
63442SOL    HW299105   0.812  12.478  12.156 -0.6311 -1.1749  0.5472
63443SOL     OW99106  11.088   5.343   4.008 -0.4713  0.3375 -0.0981
63443SOL    HW199107  11.007   5.309   3.970 -0.4298 -0.8217  0.8147
63443SOL    HW299108  11.154   5.329   3.940 -0.7076 -0.2042 -0.2184
63444SOL     OW99109   5.849   5.076   1.240 -0.3899  0.6138  0.1112
63444SOL    HW199110   5.761   5.059   1.208 -1.1010 -1.1741  2.6583
63444SOL    HW299111   5.904   5.011   1.195 -0.9141 -0.1879  0.6025
63445SOL     OW99112   0.637   2.348   9.849  0.6514  0.0969  0.0936
63445SOL    HW199113   0.661   2.349   9.942  0.0181 -0.8333  0.2825
63445SOL    HW299114   0.669   2.432   9.815  1.8007  0.0085  0.9144
63446SOL     OW99115  12.573  10.984   7.102 -0.1231  0.0687 -0.5143
63446SOL    HW199116  12.598  10.902   7.143 -0.5059  0.3147  0.2335
63446SOL    HW299117  12.535  11.036   7.173  0.3832  1.0067 -0.9086
63447SOL     OW99118   1.277   8.713   3.441 -0.0976 -0.2621 -0.9130
63447SOL    HW199119   1.260   8.805   3.461  1.1301 -0.1618 -0.2582
63447SOL    HW299120   1.191   8.671   3.447 -0.7954  0.9454 -1.8891
63448SOL     OW99121   8.166   7.950  12.256  0.9474  0.6446  0.0910
63448SOL    HW199122   8.248   7.902  12.249  0.1280 -0.8449  0.3208
63448SOL    HW299123   8.192   8.042  12.256  2.6630  0.1947  0.7969
63449SOL     OW99124  11.842   0.601   7.244  0.0020  0.3487 -0.4741
63449SOL    HW199125  11.805   0.513   7.240  1.1346 -0.1144 -1.2125
63449SOL    HW299126  11.870   0.612   7.335  2.0360 -1.0158 -0.8678
63450SOL     OW99127   5.547   2.999  10.949  0.2835 -0.6381  0.6096
63450SOL    HW199128   5.551   3.093  10.968  0.0740 -0.4034 -0.4329
63450SOL    HW299129   5.620   2.962  10.998  0.7215  0.1603  0.5800
63451SOL     OW99130   7.764   1.036   7.096  0.3178  0.2631  0.2199
63451SOL    HW199131   7.745   1.068   7.184 -0.6699 -1.3742  0.6308
63451SOL    HW299132   7.839   0.977   7.107 -1.3891 -1.9917  0.4651
63452SOL     OW99133  10.084  11.712   1.322  0.0728  0.6522  0.2877
63452SOL    HW199134  10.025  11.654   1.371  1.6625  0.0930  1.6152
63452SOL    HW299135  10.146  11.744   1.388  1.4215  1.0035 -1.1043
63453SOL     OW99136   2.848   4.988   2.974 -0.0639  0.1124  0.2033
63453SOL    HW199137   2.888   4.981   3.061  0.8845  1.2778 -0.1077
63453SOL    HW299138   2.760   5.021   2.992 -0.2929 -0.7776  0.7869
63454SOL     OW99139   4.856   8.801   8.044  0.5463  0.1110 -0.1756
63454SOL    HW199140   4.898   8.886   8.031  1.5105 -0.4053 -0.4528
63454SOL    HW299141   4.864   8.757   7.959 -1.4790  0.3875 -0.5664
63455SOL     OW99142   2.389   8.020   9.429 -0.1094  0.1832 -0.5506
63455SOL    HW199143   2.380   7.957   9.357  0.3234 -0.5124 -0.0132
63455SOL    HW299144   2.322   8.086   9.412  0.6400  0.5818 -2.1421
63456SOL     OW99145   3.502   1.151   1.718  0.3010 -0.4627  0.4617
63456SOL    HW199146   3.541   1.146   1.806  0.0841  0.6165  0.6307
63456SOL    HW299147   3.505   1.244   1.695 -0.1643 -0.6562 -0.4407
63457SOL     OW99148   1.387   8.294   6.193 -0.4260  0.9673  0.1768
63457SOL    HW199149   1.378   8.303   6.288 -0.5184  1.2703  0.1398
63457SOL    HW299150   1.299   8.308   6.159 -0.5558  0.0736  0.1010
63458SOL     OW99151   8.675   6.340   4.070 -0.8884  0.0754  0.1004
63458SOL    HW199152   8.623   6.418   4.089 -0.3051  0.3341  0.6800
63458SOL    HW299153   8.701   6.350   3.979 -0.9918  0.4603  0.1111
63459SOL     OW99154   4.672   3.568   4.885 -0.4181  0.0520  0.2021
63459SOL    HW199155   4.738   3.525   4.939  1.0449  2.8853  0.9120
63459SOL    HW299156   4.632   3.633   4.943 -2.3318 -0.1050 -0.8397
63460SOL     OW99157   1.176   7.115   8.178  0.2980 -0.0356  0.0372
63460SOL    HW199158   1.108   7.181   8.166 -0.4018 -0.8445 -0.5442
63460SOL    HW299159   1.143   7.060   8.249 -0.2036 -1.0917 -0.9859
63461SOL     OW99160   2.175  10.890   1.558 -0.0982  0.4431 -0.1665
63461SOL    HW199161   2.147  10.974   1.521  0.8797  1.4671  1.2946
63461SOL    HW299162   2.267  10.904   1.581 -0.4161 -0.3913  1.8176
63462SOL     OW99163   6.327   1.808   1.122  0.1296  0.2769 -0.4093
63462SOL    HW199164   6.363   1.822   1.035 -1.2973  1.2665 -0.8787
63462SOL    HW299165   6.318   1.713   1.129  0.6610  0.1588 -1.1662
63463SOL     OW99166   9.688   0.991   9.099  0.4717 -0.1858  0.3768
63463SOL    HW199167   9.664   0.966   9.010  0.6613 -1.0832  0.5747
63463SOL    HW299168   9.783   0.996   9.098  0.4444  0.5083  0.3551
63464SOL     OW99169   2.209  10.878  10.399 -0.3619  0.2087  0.0404
63464SOL    HW199170   2.154  10.801  10.411  0.4399 -0.4406 -0.3189
63464SOL    HW299171   2.247  10.866  10.312  0.6105  0.4589  0.4184
63465SOL     OW99172   3.809   2.838   8.438  1.0351  0.7853  0.3507
63465SOL    HW199173   3.735   2.852   8.379  0.3623  2.0818  1.4457
63465SOL    HW299174   3.771   2.795   8.515  1.7934 -0.3465  0.1220
63466SOL     OW99175   0.797   1.897  11.523  0.3821  0.4705 -0.3559
63466SOL    HW199176   0.838   1.813  11.503 -2.7339 -0.9757 -1.2589
63466SOL    HW299177   0.777   1.891  11.617 -0.4943 -0.1504 -0.5697
63467SOL     OW99178   6.007   6.098   3.004  0.4363  0.5683 -0.3525
63467SOL    HW199179   6.058   6.177   3.026  0.4144  0.6205 -0.4906
63467SOL    HW299180   6.004   6.049   3.086 -0.8376  1.4247  0.1523
63468SOL     OW99181   6.664  10.616   1.910 -0.0739  0.5092 -0.0379
63468SOL    HW199182   6.580  10.659   1.894 -0.9368 -0.8928  0.5356
63468SOL    HW299183   6.704  10.666   1.981 -1.9560 -0.7077  2.0160
63469SOL     OW99184   8.165   9.740   2.176 -0.4576 -0.5396  0.1025
63469SOL    HW199185   8.085   9.697   2.205 -0.3969 -0.8895 -0.2423
63469SOL    HW299186   8.179   9.708   2.087  0.2846 -0.7886  0.3017
63470SOL     OW99187  11.839   7.417  10.593  0.4297 -0.7189 -0.4149
63470SOL    HW199188  11.744   7.418  10.605  0.4302 -1.7109 -0.2723
63470SOL    HW299189  11.874   7.421  10.682  0.5744  1.4201 -0.5067
63471SOL     OW99190   4.389   6.013   0.775 -0.2421  0.0525 -0.2409
63471SOL    HW199191   4.371   6.029   0.682 -0.1846  0.6166 -0.1589
63471SOL    HW299192   4.479   6.041   0.787  0.0626 -0.9066 -0.2152
63472SOL     OW99193   9.805   1.627   3.881 -0.3774  0.8295  0.3475
63472SOL    HW199194   9.757   1.622   3.964 -1.1216  1.4295 -0.0443
63472SOL    HW299195   9.749   1.582   3.818  0.0924  0.5609  0.1176
63473SOL     OW99196   4.601   5.137  10.917  0.1753  0.2087  0.2792
63473SOL    HW199197   4.572   5.082  10.845  0.2991  0.2722  0.1810
63473SOL    HW299198   4.550   5.218  10.907 -0.2463 -0.0135  0.6159
63474SOL     OW99199   7.436   6.114   5.951 -0.2248  0.4815  0.4287
63474SOL    HW199200   7.353   6.161   5.944  0.1982  0.9856 -2.1453
63474SOL    HW299201   7.503   6.182   5.950  0.2914 -0.0109  0.6152
63475SOL     OW99202   0.771   8.525  12.064  0.2783 -0.1705  0.4469
63475SOL    HW199203   0.817   8.592  12.115  0.5252  0.3231 -0.4044
63475SOL    HW299204   0.735   8.466  12.130 -0.0055  0.8379  1.2258
63476SOL     OW99205  12.586   3.372  11.904  0.1615  0.0479 -0.6515
63476SOL    HW199206  12.508   3.328  11.937 -1.0431  1.7302 -1.1357
63476SOL    HW299207  12.555   3.457  11.873  1.8349  0.0140 -2.6816
63477SOL     OW99208   7.838  10.767   4.218 -0.1975 -0.1584 -0.1070
63477SOL    HW199209   7.791  10.792   4.139 -0.2561  0.0418 -0.0102
63477SOL    HW299210   7.774  10.721   4.271  0.1926 -1.5056 -0.7564
63478SOL     OW99211   6.943   8.755  10.587  0.1597  0.2861 -0.0117
63478SOL    HW199212   7.033   8.772  10.558 -0.0427  1.5363  0.0564
63478SOL    HW299213   6.889   8.773  10.510  0.0145 -1.2746 -0.3006
63479SOL     OW99214   3.714  10.985   2.146 -0.7062  0.3172 -0.0062
63479SOL    HW199215   3.678  11.072   2.126 -1.0159  0.5222  1.3651
63479SOL    HW299216   3.722  10.943   2.061 -1.2079  1.4394 -0.6334
63480SOL     OW99217   3.831   2.635  10.541 -0.4886  0.1512  0.7752
63480SOL    HW199218   3.887   2.694  10.593 -1.3825 -0.4551  2.4853
63480SOL    HW299219   3.752   2.687  10.524 -0.0990  0.4330 -0.2204
63481SOL     OW99220  12.029   4.024   1.258 -0.2482  0.4833 -0.1656
63481SOL    HW199221  12.078   4.090   1.306 -0.5467 -0.2804  1.2238
63481SOL    HW299222  11.961   4.074   1.211  0.6263  1.3288 -0.5670
63482SOL     OW99223  11.519  11.941   6.402  0.0938  0.4852 -0.7392
63482SOL    HW199224  11.502  11.928   6.495  0.2142 -0.0919 -0.7994
63482SOL    HW299225  11.528  12.036   6.393  3.2894  0.4002  0.4027
63483SOL     OW99226  10.059   5.375   3.307 -0.4623  0.2393  0.6275
63483SOL    HW199227   9.975   5.331   3.320  0.0331 -0.5065  1.4280
63483SOL    HW299228  10.089   5.398   3.395 -0.9133  2.6542  0.2023
63484SOL     OW99229   6.788   5.180  10.510 -0.2228  0.7741  0.1556
63484SOL    HW199230   6.869   5.220  10.543  0.3702  0.0435 -0.3662
63484SOL    HW299231   6.810   5.151  10.422 -0.5620 -0.8475  0.5712
63485SOL     OW99232   4.373   3.564   6.444  0.2654 -0.3961  0.4110
63485SOL    HW199233   4.373   3.615   6.524  0.9373  0.1395  0.0811
63485SOL    HW299234   4.315   3.490   6.462  0.9644 -0.6635  1.6263
63486SOL     OW99235   7.450  12.318   1.429 -0.0072  0.0498  0.0706
63486SOL    HW199236   7.411  12.383   1.488 -0.5187 -0.5817  0.4440
63486SOL    HW299237   7.544  12.322   1.447  0.1135  1.5499 -0.7940
63487SOL     OW99238   1.594   0.940   5.931 -0.0163  0.5061 -0.3161
63487SOL    HW199239   1.527   0.986   5.880 -0.1303 -0.5248 -1.1096
63487SOL    HW299240   1.604   0.994   6.010 -0.2343  1.8228 -1.1533
63488SOL     OW99241  12.168   8.486   2.532 -0.4185 -0.0634 -0.1321
63488SOL    HW199242  12.254   8.475   2.492 -0.4342  0.5593 -0.3507
63488SOL    HW299243  12.181   8.554   2.599 -0.7550  0.0972 -0.2272
63489SOL     OW99244   2.463   9.675   1.684  0.4991  0.3945 -1.0216
63489SOL    HW199245   2.494   9.742   1.625  0.3856  0.3324 -1.1514
63489SOL    HW299246   2.537   9.657   1.742  0.0272  1.8106  0.0847
63490SOL     OW99247   2.423   5.143   6.087  0.4150 -0.3186 -0.0812
63490SOL    HW199248   2.392   5.150   5.997 -0.0248  1.1770  0.1590
63490SOL    HW299249   2.487   5.073   6.085  0.0354 -0.6573 -1.4523
63491SOL     OW99250  11.472  12.564   2.453  0.0671 -0.2163 -0.3160
63491SOL    HW199251  11.521  12.599   2.378 -0.9659 -0.2215 -1.0030
63491SOL    HW299252  11.414  12.498   2.416 -0.9239  0.2353  0.4043
63492SOL     OW99253   2.303   6.212   1.461 -0.1999  0.2827 -0.5742
63492SOL    HW199254   2.342   6.125   1.463 -0.9973 -0.0868 -0.6366
63492SOL    HW299255   2.356   6.264   1.522  1.9914  0.5141 -2.5268
63493SOL     OW99256   6.456   6.254   9.644  0.4405  0.1599  0.0609
63493SOL    HW199257   6.408   6.225   9.566  0.0701 -0.6961  0.5905
63493SOL    HW299258   6.512   6.324   9.613  0.5987 -0.4430 -1.0636
63494SOL     OW99259  10.168   7.075   2.685  0.0504 -0.1935  0.0701
63494SOL    HW199260  10.082   7.049   2.653 -0.9651  2.5244  0.2918
63494SOL    HW299261  10.207   7.125   2.613  0.3886  0.6609  0.8194
63495SOL     OW99262  12.451   0.407   4.899 -0.5041 -0.2269  0.5671
63495SOL    HW199263  12.536   0.449   4.913 -0.6182 -0.3370  1.6648
63495SOL    HW299264  12.409   0.409   4.985 -0.1326 -3.4562  0.9469
63496SOL     OW99265  12.588   4.780  10.881 -0.1324  0.0898 -0.1528
63496SOL    HW199266  12.515   4.779  10.942 -0.7221  0.5407 -0.8275
63496SOL    HW299267  12.657   4.730  10.924 -0.1009  1.4033  1.4041
63497SOL     OW99268  11.091   4.592   8.208  0.5400  0.3055  0.1087
63497SOL    HW199269  11.059   4.558   8.124  1.2763  0.9589 -0.4460
63497SOL    HW299270  11.108   4.513   8.260 -0.6945 -0.0908 -0.0469
63498SOL     OW99271   4.593   2.986   9.195  0.1557  0.2111  0.1781
63498SOL    HW199272   4.637   3.057   9.241 -0.9265 -1.1344  3.6329
63498SOL    HW299273   4.502   2.989   9.226 -0.5186 -1.2491 -1.4430
63499SOL     OW99274   9.132   6.157   9.326 -0.4305 -0.6680 -0.0815
63499SOL    HW199275   9.175   6.146   9.241  0.9198 -0.6032  0.5585
63499SOL    HW299276   9.158   6.244   9.355 -0.3162 -0.9438  0.6851
63500SOL     OW99277   4.497  10.463   5.199  0.0452  0.2787  0.3041
63500SOL    HW199278   4.563  10.406   5.160 -0.1164  0.3495 -0.0850
63500SOL    HW299279   4.460  10.412   5.271 -0.9634 -0.6086 -0.8079
63501SOL     OW99280   4.391  10.936   3.138 -0.5235  0.2699 -0.3138
63501SOL    HW199281   4.355  10.847   3.134  0.8001 -0.2289 -2.7048
63501SOL    HW299282   4.449  10.942   3.063  1.7936  2.1681  1.4603
63502SOL     OW99283   4.606   7.391   0.741 -0.2966  0.2911 -0.9117
63502SOL    HW199284   4.668   7.459   0.766 -0.1452  0.1290 -0.8460
63502SOL    HW299285   4.574   7.418   0.655  2.4032 -1.3378 -2.5420
63503SOL     OW99286   2.636   5.353   0.945  0.3101  0.1573 -0.1172
63503SOL    HW199287   2.570   5.310   1.000  1.4399 -1.1435  0.2590
63503SOL    HW299288   2.716   5.304   0.960  0.4484 -1.0207 -3.8251
63504SOL     OW99289   3.609   4.383   8.716 -0.1870  0.4750 -0.4261
63504SOL    HW199290   3.605   4.478   8.724  2.6014  0.6956 -0.7667
63504SOL    HW299291   3.641   4.368   8.627 -3.0916 -0.9585 -1.3672
63505SOL     OW99292   5.766  12.213   1.162 -0.0941  0.0257 -0.3999
63505SOL    HW199293   5.825  12.240   1.233  0.1872 -2.9477  0.6500
63505SOL    HW299294   5.825  12.186   1.091 -0.1791 -1.1451 -0.0576
63506SOL     OW99295   5.781  10.481   1.714 -0.0242  0.0250 -0.0642
63506SOL    HW199296   5.713  10.548   1.725 -0.7469 -0.7029  0.0136
63506SOL    HW299297   5.814  10.495   1.625  0.4124  1.0030  0.2389
63507SOL     OW99298  11.091   6.826   5.864  0.1852  0.6714 -0.2143
63507SOL    HW199299  11.157   6.877   5.911  2.8841 -2.1207 -0.6338
63507SOL    HW299300  11.039   6.785   5.933  1.2499  0.0933  0.2741
63508SOL     OW99301   0.550   1.761   8.209 -0.1558  0.1434  0.2837
63508SOL    HW199302   0.546   1.832   8.145  0.2026 -2.4456 -2.8964
63508SOL    HW299303   0.481   1.700   8.181  1.5413 -2.1949  0.9000
63509SOL     OW99304   2.848   1.562   1.536  0.0624 -0.2083 -0.4144
63509SOL    HW199305   2.853   1.566   1.440  2.4427  1.6071 -0.2985
63509SOL    HW299306   2.756   1.582   1.555 -0.4344 -0.4545 -2.2919
63510SOL     OW99307   0.367   5.319   9.920  0.0282  0.1699  0.1135
63510SOL    HW199308   0.307   5.344   9.850  1.3356  0.6018 -0.8747
63510SOL    HW299309   0.321   5.344  10.000 -1.7506 -0.8877 -0.5311
63511SOL     OW99310   7.091   9.430   9.458  0.0235  0.4317  0.1754
63511SOL    HW199311   7.081   9.421   9.363  0.7487  1.8526 -0.0578
63511SOL    HW299312   7.016   9.381   9.494 -0.1059 -0.3720 -1.0948
63512SOL     OW99313   8.534   5.765   5.337 -0.0884 -0.5828 -0.1397
63512SOL    HW199314   8.502   5.773   5.427 -0.3082 -1.0462 -0.1725
63512SOL    HW299315   8.484   5.692   5.300 -1.5018  0.8720 -1.2858
63513SOL     OW99316   1.770   2.290   5.709  0.6635 -0.0430 -0.1205
63513SOL    HW199317   1.687   2.269   5.753  0.8799  0.4002  0.5053
63513SOL    HW299318   1.790   2.212   5.657 -0.7585  0.2925 -1.2290
63514SOL     OW99319   7.702   4.638   7.942  0.6642 -0.4051  0.1319
63514SOL    HW199320   7.617   4.594   7.948  1.1535 -1.6417 -1.4386
63514SOL    HW299321   7.736   4.636   8.032 -0.7449 -0.3166  0.6899
63515SOL     OW99322   4.464   3.399   2.181 -0.0472 -0.5547 -0.4703
63515SOL    HW199323   4.448   3.310   2.211 -0.1680 -0.4015 -0.0732
63515SOL    HW299324   4.508   3.389   2.097  1.2629 -0.9990  0.2421
63516SOL     OW99325   9.443   4.338  12.526 -0.0411  0.0920 -0.1564
63516SOL    HW199326   9.414   4.412  12.472 -0.1962  0.2038  0.0805
63516SOL    HW299327   9.362   4.298  12.558 -0.1010 -1.7979 -2.4121
63517SOL     OW99328   9.428   3.050   3.837  0.2391  0.5242  0.3896
63517SOL    HW199329   9.433   3.146   3.834  0.4852  0.4960 -0.0656
63517SOL    HW299330   9.356   3.028   3.778  0.0355  0.4393  0.6665
63518SOL     OW99331   3.326   1.454  12.605  0.3597  0.1129 -0.3124
63518SOL    HW199332   3.292   1.377  12.650  0.8812 -0.7163 -1.2962
63518SOL    HW299333   3.388   1.493  12.667 -0.6797  0.3566  0.5989
63519SOL     OW99334   9.597  12.297   4.960  0.1524 -0.3641 -0.4365
63519SOL    HW199335   9.520  12.269   4.911 -0.4871  0.5453  0.0289
63519SOL    HW299336   9.648  12.349   4.898  0.3039 -0.8145 -0.6919
63520SOL     OW99337   8.688   0.149   0.859 -0.3444  0.4389  0.0375
63520SOL    HW199338   8.719   0.236   0.835 -0.9003  0.8737  0.8292
63520SOL    HW299339   8.767   0.097   0.868  0.2114  1.4820  1.8696
63521SOL     OW99340   8.874   9.917  12.110  0.4279 -0.5370  0.5915
63521SOL    HW199341   8.806   9.849  12.110  2.0263 -2.1975  1.0988
63521SOL    HW299342   8.871   9.952  12.021  0.6432 -2.4167 -0.2003
63522SOL     OW99343   7.038   9.536   3.362 -0.3299  0.3602 -0.1054
63522SOL    HW199344   7.099   9.610   3.365 -0.1945  0.2259  0.4886
63522SOL    HW299345   7.045   9.503   3.272  0.3443  0.4503 -0.0901
63523SOL     OW99346   9.514   8.751   4.056  0.4874  0.8150  0.5819
63523SOL    HW199347   9.568   8.810   4.109  0.1761  1.0892  0.5969
63523SOL    HW299348   9.535   8.774   3.965 -1.5211  2.7790  0.5210
63524SOL     OW99349   7.712   0.320  12.404 -0.8423  0.3346  0.3132
63524SOL    HW199350   7.800   0.284  12.407 -0.3620  1.5126  0.8507
63524SOL    HW299351   7.692   0.343  12.494 -2.1567 -0.9211  0.3819
63525SOL     OW99352  10.331   0.464   5.431  0.7396  0.0587 -0.7175
63525SOL    HW199353  10.379   0.515   5.365  0.8705 -1.1729 -1.6104
63525SOL    HW299354  10.252   0.435   5.386  1.0092 -1.1089 -0.4500
63526SOL     OW99355   2.936   7.071  10.570  0.4338 -0.3052  0.1090
63526SOL    HW199356   2.961   6.979  10.575 -1.3461 -0.8067  0.5805
63526SOL    HW299357   2.961   7.098  10.482 -1.6323 -2.1005 -1.1273
63527SOL     OW99358   5.555   7.654   5.891  0.2139 -0.5119 -0.5848
63527SOL    HW199359   5.527   7.719   5.827 -0.0581  2.0052  1.8913
63527SOL    HW299360   5.526   7.689   5.975  2.6038 -2.4188  1.1935
63528SOL     OW99361  10.376  12.421  12.341  0.4844 -0.0605  0.1733
63528SOL    HW199362  10.429  12.361  12.289  1.6109 -0.1781  1.3917
63528SOL    HW299363  10.285  12.396  12.323  0.5080  2.2441 -4.5433
63529SOL     OW99364   6.287   0.091   4.380  0.2350 -0.1841 -0.1682
63529SOL    HW199365   6.312   0.178   4.349  1.4012  0.6934  2.8788
63529SOL    HW299366   6.207   0.105   4.430 -0.0868 -1.0386 -0.4248
63530SOL     OW99367  12.512   6.241   5.694  0.2588  0.1540  0.3606
63530SOL    HW199368  12.592   6.196   5.720  1.9384  2.7309 -0.0500
63530SOL    HW299369  12.518   6.247   5.599 -0.5341  0.2138  0.3086
63531SOL     OW99370   4.207   1.582   5.948 -0.5833  0.0499 -0.2343
63531SOL    HW199371   4.175   1.562   5.861 -2.0086 -0.9616  0.4924
63531SOL    HW299372   4.166   1.517   6.005 -0.0354  0.9512  1.2579
63532SOL     OW99373   0.315   4.961   5.159  0.1148  0.0424  0.7090
63532SOL    HW199374   0.288   4.988   5.247  1.1649 -0.0701  1.0858
63532SOL    HW299375   0.289   4.869   5.153  1.2145 -0.3376  1.4246
63533SOL     OW99376   1.765   6.995   6.045  0.0587 -0.1475  0.3606
63533SOL    HW199377   1.741   6.960   6.130  0.8085 -0.7361  0.3402
63533SOL    HW299378   1.836   6.938   6.014 -1.5388 -1.2208 -1.5640
63534SOL     OW99379   8.207  10.579   2.617  0.1426 -0.4678 -0.1812
63534SOL    HW199380   8.231  10.498   2.573  0.6207  0.0034 -0.8144
63534SOL    HW299381   8.132  10.556   2.672 -2.0563 -0.6124 -3.0103
63535SOL     OW99382   6.408  11.712   4.678  0.3437  0.2732 -0.0723
63535SOL    HW199383   6.439  11.644   4.618  1.0748  1.2812 -0.8528
63535SOL    HW299384   6.438  11.682   4.764 -0.8213 -1.2432 -0.1535
63536SOL     OW99385  10.409   2.456   6.575 -0.1312  0.3946 -0.6521
63536SOL    HW199386  10.434   2.548   6.567  1.7007  0.0472  0.5297
63536SOL    HW299387  10.405   2.439   6.669 -0.9105 -0.6167 -0.8487
63537SOL     OW99388   7.337   3.184  10.261  0.1473 -0.3628  0.0377
63537SOL    HW199389   7.374   3.161  10.346 -0.4888 -1.9437 -0.0857
63537SOL    HW299390   7.251   3.221  10.281 -0.2047 -1.1893  0.0576
63538SOL     OW99391   2.896   3.225   9.969  0.0036  0.0736  0.0076
63538SOL    HW199392   2.809   3.201   9.936  0.0447  0.4549 -0.3880
63538SOL    HW299393   2.952   3.223   9.892  0.0325  1.3098 -0.0194
63539SOL     OW99394  10.554   1.653   0.635  0.1579  0.3016 -0.5240
63539SOL    HW199395  10.532   1.741   0.666 -2.4102  0.0950 -1.4710
63539SOL    HW299396  10.472   1.604   0.642  1.4632 -2.0082 -0.1841
63540SOL     OW99397   1.240  11.526   7.538  0.7884 -0.5587  0.0270
63540SOL    HW199398   1.218  11.537   7.631 -1.8092  1.0712 -0.6518
63540SOL    HW299399   1.333  11.506   7.537  0.6937 -1.6108  3.0216
63541SOL     OW99400   2.921   2.972   7.452  0.1100 -0.1436 -0.6619
63541SOL    HW199401   2.935   2.878   7.437  0.6127 -0.2125  0.1530
63541SOL    HW299402   2.877   2.976   7.537  1.5278  0.4104  0.0871
63542SOL     OW99403   1.537   3.211   2.995  0.2140  0.0231  0.0988
63542SOL    HW199404   1.629   3.203   2.972  0.8919 -0.6058  2.7316
63542SOL    HW299405   1.535   3.273   3.067 -1.6063  1.0155 -0.7389
63543SOL     OW99406   9.666  11.607   6.679  0.6957  0.6255  0.1382
63543SOL    HW199407   9.739  11.545   6.683 -0.8604 -1.2531  0.7126
63543SOL    HW299408   9.623  11.599   6.764 -0.0656  1.8746 -0.1060
63544SOL     OW99409  11.075   8.443   2.993  0.3714 -0.3203 -0.1781
63544SOL    HW199410  11.033   8.448   2.907  0.5025 -1.1770 -0.2988
63544SOL    HW299411  11.035   8.366   3.035  0.2982  0.0952  0.5374
63545SOL     OW99412  12.330   2.903   4.034 -0.0040  0.1131  0.0628
63545SOL    HW199413  12.282   2.978   4.068 -1.8757 -0.2665 -1.5729
63545SOL    HW299414  12.319   2.908   3.939  0.9049 -1.5185 -0.1690
63546SOL     OW99415   4.334   6.443   8.109  0.0177  0.4752  0.1774
63546SOL    HW199416   4.269   6.497   8.153 -0.5829 -0.0234 -0.0880
63546SOL    HW299417   4.378   6.503   8.049  0.5976  1.0742  1.1798
63547SOL     OW99418   1.491   2.861   8.281  0.0935  0.6039 -0.7283
63547SOL    HW199419   1.424   2.797   8.257  1.3831 -0.1966 -2.3560
63547SOL    HW299420   1.550   2.813   8.339  0.2025  0.7919 -0.6837
63548SOL     OW99421   7.825  10.285   8.670  0.3219  0.0934 -0.5221
63548SOL    HW199422   7.770  10.338   8.611  0.9815  0.3619 -0.9094
63548SOL    HW299423   7.834  10.339   8.748 -0.6704 -0.3215 -0.1034
63549SOL     OW99424   6.208   5.012   3.705  0.4377  0.0372  0.0011
63549SOL    HW199425   6.147   4.949   3.667  0.6473 -0.4729  0.4908
63549SOL    HW299426   6.153   5.079   3.745  0.2133  0.2938 -0.7277
63550SOL     OW99427   1.202   1.163   6.840  0.1352 -0.3731 -0.6359
63550SOL    HW199428   1.115   1.180   6.877  0.2007 -1.4905  0.0773
63550SOL    HW299429   1.263   1.192   6.907  0.2659 -1.6090 -0.1950
63551SOL     OW99430   4.312   5.059   2.090 -1.0553  0.1631 -0.1780
63551SOL    HW199431   4.387   5.045   2.148 -1.7310  0.4052  0.7809
63551SOL    HW299432   4.295   4.973   2.052  1.4205  0.5848 -2.6384
63552SOL     OW99433   4.990   0.391  11.951  0.1715 -0.3054 -0.7232
63552SOL    HW199434   5.029   0.401  12.038 -1.4865  1.7427 -0.1247
63552SOL    HW299435   5.058   0.421  11.891  0.3718  0.9906  0.1071
63553SOL     OW99436   7.575  10.984   4.730  0.4030 -0.1280 -0.0494
63553SOL    HW199437   7.595  10.894   4.706 -0.4769 -0.0629 -1.1180
63553SOL    HW299438   7.542  10.978   4.820 -2.1886 -1.2955 -0.9531
63554SOL     OW99439   6.024   9.432  11.849  0.2745 -0.0675  0.5362
63554SOL    HW199440   6.021   9.509  11.792 -2.0840 -1.8165 -2.0385
63554SOL    HW299441   6.117   9.414  11.861  0.9998  0.2477 -3.2352
63555SOL     OW99442   5.235   3.613   6.401 -0.1544  0.0864 -0.3480
63555SOL    HW199443   5.167   3.628   6.467 -0.1997  0.5262 -0.4910
63555SOL    HW299444   5.242   3.518   6.395 -1.3650  0.0174 -0.9504
63556SOL     OW99445  10.131   6.151   4.069 -0.4205  0.0751 -0.3666
63556SOL    HW199446  10.119   6.246   4.074  2.2133  0.5013 -0.9740
63556SOL    HW299447  10.225   6.139   4.059 -0.8543 -2.4924 -2.5491
63557SOL     OW99448  11.806   2.022  10.698 -0.6178  0.3030  0.3205
63557SOL    HW199449  11.861   1.943  10.699 -1.1549 -0.0882  2.1000
63557SOL    HW299450  11.869   2.095  10.695 -0.0544 -0.1603  0.7187
63558SOL     OW99451   7.630   5.490  10.310 -0.1929  0.2945  0.0360
63558SOL    HW199452   7.711   5.487  10.258 -1.2701 -0.1149 -1.6880
63558SOL    HW299453   7.563   5.519  10.249 -1.8071 -1.6082  0.7816
63559SOL     OW99454   8.264   8.484   3.729 -0.3346  0.2178 -0.2278
63559SOL    HW199455   8.325   8.462   3.658  1.0976  2.1514  0.3243
63559SOL    HW299456   8.231   8.571   3.706 -1.7870 -0.1712  0.2573
63560SOL     OW99457  10.284   5.458   3.772  1.0762 -0.3937 -0.2881
63560SOL    HW199458  10.317   5.446   3.862 -0.0348 -0.9084  0.0685
63560SOL    HW299459  10.350   5.512   3.730  2.3949 -1.4221  0.3835
63561SOL     OW99460   7.161   4.102  10.543 -0.8090 -0.0084  0.1081
63561SOL    HW199461   7.083   4.086  10.597 -0.5366  0.3088  0.5994
63561SOL    HW299462   7.127   4.145  10.465 -1.1927 -0.3651  0.0730
63562SOL     OW99463   9.123  11.777   3.838 -0.6189 -0.3655 -0.7971
63562SOL    HW199464   9.102  11.768   3.745 -1.4125  2.0107 -0.9061
63562SOL    HW299465   9.046  11.741   3.883 -0.7570 -0.4058 -1.0624
63563SOL     OW99466   3.136   9.208   9.206 -0.5044 -0.1734  0.0449
63563SOL    HW199467   3.061   9.208   9.265 -0.3001 -1.3181  0.3384
63563SOL    HW299468   3.141   9.118   9.174  1.6681 -0.5794  1.2658
63564SOL     OW99469   1.058   8.360   2.563 -0.0479  0.4400  0.3487
63564SOL    HW199470   1.099   8.292   2.616 -0.0370 -0.3697 -0.6783
63564SOL    HW299471   1.117   8.435   2.570  1.5371 -0.6339 -0.9411
63565SOL     OW99472   7.892   5.488   3.772  0.0231 -0.0016 -0.5745
63565SOL    HW199473   7.951   5.539   3.717  0.7692 -0.1197  0.1044
63565SOL    HW299474   7.911   5.516   3.861  0.2603 -1.2744 -0.2068
63566SOL     OW99475  12.109   3.802   8.038  0.2103  0.3807  0.9939
63566SOL    HW199476  12.057   3.847   8.104  0.4334 -0.9501  2.1280
63566SOL    HW299477  12.161   3.739   8.087 -0.1840 -1.2160 -0.5066
63567NA      NA99478  11.399   4.021   2.607 -0.0988  0.6332 -0.3162
63568NA      NA99479   3.944   2.092   1.931 -0.2489  0.0469  0.1165
63569NA      NA99480   8.869  11.892   5.045 -0.2924  0.4583  0.3818
63570NA      NA99481   5.695   2.272   9.473 -0.2227 -0.1220 -0.4544
63571NA      NA99482   3.194   2.329   5.957 -0.2233  0.4937  0.0457
63572NA      NA99483  10.255   7.676   6.705  0.3104 -0.4336 -0.1681
63573NA      NA99484   4.217   2.524   0.611 -0.1461 -1.0358 -0.3514
63574NA      NA99485   6.225  11.265   6.852  0.3015 -0.1290  0.2674
63575NA      NA99486   9.715  10.815   0.306 -0.0127  0.1006 -0.1032
63576NA      NA99487   2.254   0.928   0.519  0.1249  0.4726 -0.2512
63577NA      NA99488   7.196  11.867   6.894 -0.1305 -0.2320 -0.1832
63578NA      NA99489  12.039  11.586   9.320 -0.2490  0.4158  0.5118
63579NA      NA99490  12.276   7.157   9.687 -0.1326 -0.0335  0.3907
63580NA      NA99491   3.655   9.283   7.658  0.4782  0.0615 -0.3548
63581NA      NA99492   1.910   0.302   6.734 -0.2349  0.1548 -0.1597
63582NA      NA99493   1.853  10.098   4.844 -0.0089 -0.4174 -0.3990
63583NA      NA99494  10.359   2.382  10.127  0.0008 -0.3238 -0.2442
63584NA      NA99495   8.604  10.399   6.044  0.6192 -0.0761  0.2046
63585NA      NA99496   8.945   3.671   8.829  0.1876  0.8942  0.0610
63586NA      NA99497  12.427   3.191   1.867 -0.0205  0.1736  0.4287
63587NA      NA99498   8.220   8.863  11.126 -0.0292 -0.3368 -0.1387
63588NA      NA99499   4.165   5.465   8.567 -0.1413  0.4882  0.1352
63589NA      NA99500   1.898   3.614   7.449 -0.0044  0.0210  0.0745
63590NA      NA99501   9.089   8.119   3.387  0.4928 -0.1784  0.1307
63591NA      NA99502   3.817   3.850  12.117 -0.4636 -0.1885  0.1090
63592NA      NA99503   0.222   4.620  10.088  0.5781  0.3083  0.1085
63593NA      NA99504   8.779   4.498   6.289 -0.6419  0.1199 -0.0542
63594NA      NA99505   8.652  12.219  10.407  0.3256  0.2921 -0.3985
63595NA      NA99506  10.374   7.200   9.683 -0.1966  0.1205  0.4178
63596NA      NA99507   6.083   1.101  10.128  0.3162 -0.2626 -0.2183
63597NA      NA99508   8.253   1.821   1.559 -0.0854 -0.2888 -0.0874
63598NA      NA99509   5.885   8.430  11.628  0.2704  0.4015 -0.0817
63599NA      NA99510   7.283   6.307   4.943  0.1178  0.2249 -0.0708
63600NA      NA99511   9.601  11.165   9.880  0.1175 -0.1257  0.1884
63601NA      NA99512  12.279   5.021   5.435  0.1751 -0.4870 -0.0736
63602NA      NA99513   9.281   0.052   4.297  0.2882 -0.2210  0.1217
63603NA      NA99514   7.563  10.955   8.419  0.1727  0.1029  0.0149
63604NA      NA99515   1.869   1.856   0.021 -0.2677  0.0049 -0.2240
63605NA      NA99516  11.154   8.661  11.314  0.3620 -0.4897 -0.3606
63606NA      NA99517   3.314   6.860   5.016 -0.1414 -0.5497  0.1618
63607NA      NA99518   5.796   8.344   0.456  0.3614  0.2447  0.1795
63608NA      NA99519   5.583  12.249   1.071  0.2235 -0.4466 -0.3881
63609NA      NA99520   0.750   3.539   9.270  0.1726  0.0116  0.1177
63610NA      NA99521  11.522   1.554   9.994  0.1420 -1.0182  0.2856
63611NA      NA99522   1.780   8.329  10.465  0.1879 -0.1182  0.1991
63612NA      NA99523   7.634  10.936   9.843  0.1353 -0.4077 -0.5451
63613NA      NA99524   2.895   0.840   9.275 -0.0206  0.2640  0.1210
63614NA      NA99525   3.264   9.356   9.103 -0.5815  0.1796 -0.3352
63615NA      NA99526   7.016  10.537  10.811  0.0743 -0.4909  0.1406
63616NA      NA99527   8.209   1.772   3.432 -0.2583 -0.0923 -0.2867
63617NA      NA99528  10.177  12.563   2.576 -0.3537 -0.2560 -0.3669
63618NA      NA99529   1.361   1.441   9.452 -0.0229 -0.1625  0.1582
63619NA      NA99530   0.497   8.584   1.203 -0.0575  0.1359  0.1060
63620NA      NA99531   5.964   6.337  11.984 -0.4523  0.1388 -0.4128
63621NA      NA99532  10.655   6.939   4.185 -0.0145  0.1449 -0.0563
63622NA      NA99533   9.991  11.619   9.570  0.1363  0.7073  0.0968
63623NA      NA99534   5.921  10.527  10.302 -0.3497  0.1712  0.1233
63624NA      NA99535   1.621   0.467   5.337  0.1450  0.5927  0.3153
63625NA      NA99536   5.703   5.567  11.428  0.1470 -0.0397  0.3978
63626NA      NA99537  12.308   9.098   0.439  0.3969  0.1166  0.2821
63627NA      NA99538   8.681  11.711   5.533 -0.1322 -0.6188 -0.2225
63628NA      NA99539  12.323   8.635   9.535  0.1501  0.1259  0.4819
63629NA      NA99540   5.552   1.229   8.647  0.0182  0.0875 -0.0038
63630NA      NA99541   3.354   8.890   5.381 -0.1036  0.4654 -0.4641
63631NA      NA99542   1.588   6.431  10.439 -0.1629 -0.5879 -0.1284
63632NA      NA99543   0.437   2.103   1.668  0.1524  0.1792  0.7015
63633NA      NA99544  11.065  10.543   6.265 -0.2833 -0.2044 -0.2830
63634NA      NA99545   1.090   3.927  11.980  0.3874 -0.6274  0.0609
63635NA      NA99546  11.443  11.691   8.236  0.1557 -0.4950 -0.3619
63636NA      NA99547   5.233   4.687   0.004 -0.8517  0.0852  0.2811
63637NA      NA99548   7.202  12.240   5.102  0.0779  0.3375 -0.2977
63638NA      NA99549  11.660   4.775  12.096  0.5072 -0.1172 -0.3567
63639NA      NA99550   4.537   5.091  12.601 -0.2362 -0.0893 -0.2553
63640NA      NA99551   7.614   1.831   2.465 -0.3980 -0.1165 -0.0043
63641NA      NA99552   1.027   1.542   4.060 -0.3697  0.1389 -0.6035
63642NA      NA99553   8.715  10.104  11.321  0.6160  0.2081 -0.2112
63643NA      NA99554   2.287  12.230  10.530 -0.0699 -0.1454  0.1631
63644NA      NA99555   6.150   3.212   5.003  0.2123 -0.2506  0.4693
63645NA      NA99556   4.390   9.032  11.456  0.4314  0.0110 -0.2521
63646NA      NA99557   2.420   0.293   1.249 -0.2380 -0.3434  0.2259
63647NA      NA99558   4.678   1.743   0.117  0.2111  0.4351  0.3915
63648NA      NA99559   3.884   9.614   3.525 -0.0964  0.4253  0.0979
63649NA      NA99560   8.004   9.651   8.165  0.1466 -0.3005 -0.0114
63650NA      NA99561   5.574   2.697  10.098  0.0062  0.3056  0.3308
63651NA      NA99562   2.116   0.712   7.791  0.5798 -0.1539  0.2436
63652NA      NA99563  11.920   2.920   4.870  0.8822  0.6663 -0.1338
63653NA      NA99564   3.755   5.630   9.316  0.4266 -0.1450  0.0563
63654NA      NA99565   8.938   2.203   9.931  0.5786  0.4116  0.5252
63655NA      NA99566  12.034   9.390   5.505  0.0033  0.1722 -0.3706
63656NA      NA99567   4.067   2.569   0.100 -0.5104 -0.2051 -0.0272
63657NA      NA99568   4.367   7.096   5.307 -0.5247 -0.1222  0.1458
63658NA      NA99569  10.807   9.926   5.128 -0.2471  0.3835  0.0086
63659NA      NA99570   3.036   9.833   1.752 -0.4143 -0.3387  0.0792
63660NA      NA99571   5.320  11.982   5.576  0.3793 -0.6067  0.0295
63661NA      NA99572   6.915   6.730   5.551  0.2116  0.1606 -0.0704
63662NA      NA99573  11.260   9.670  12.219  0.0939 -0.1569  0.2337
63663NA      NA99574   9.288  11.587   7.882 -0.0794 -0.7105 -0.2855
63664NA      NA99575   6.067   1.646   7.143  0.1210  0.2901  0.8566
63665NA      NA99576   6.061   0.688  11.006  0.4409 -0.0440 -0.4369
63666NA      NA99577   5.231   8.310   5.063  0.1314 -0.0826 -1.0080
63667NA      NA99578   9.343  12.453   7.756 -0.7584 -0.4258 -0.3370
63668NA      NA99579   3.112   2.235   4.525 -0.2153  0.4873 -0.6168
63669NA      NA99580   8.421   3.029   6.751 -0.0903  0.2755 -0.2933
63670NA      NA99581  10.918   4.728   9.777  0.3813  0.1458  0.1536
63671NA      NA99582   6.569   3.945  10.752 -0.3167 -0.7134  0.2447
63672NA      NA99583   1.826   0.316   6.194 -0.0476 -0.4846  0.2906
63673NA      NA99584   1.034   8.667  12.574  0.0421 -0.0039  0.6000
63674NA      NA99585   2.242   0.062   2.949  0.0168 -0.0538 -0.0780
63675NA      NA99586  12.381   9.488   7.417  0.1491 -0.0014 -0.0077
63676NA      NA99587   0.476   4.776  12.248  0.5368  0.1860 -0.3209
63677NA      NA99588   2.767  11.202   5.475  0.2099 -0.2851 -0.0172
63678NA      NA99589   7.786   3.594   1.108 -0.3447  0.0118 -0.5348
63679NA      NA99590   0.597   9.545   2.032 -0.5165  0.3588  0.0188
63680NA      NA99591  11.227   4.381   6.756 -0.2413  0.1460 -0.3478
63681NA      NA99592   9.886   4.651  11.114  0.4998 -0.2222  0.1560
63682NA      NA99593   5.706   5.439   8.172  0.0833 -0.1672 -0.3643
63683NA      NA99594   4.229   1.937   5.893  0.0947  0.1632 -0.2068
63684NA      NA99595   2.760   7.133  11.260  0.2286  0.5780  0.1345
63685NA      NA99596   8.882   6.015   9.590 -0.4966  0.2404 -0.0228
63686NA      NA99597   2.959  12.524   8.017  0.5846 -0.7607  0.0633
63687NA      NA99598   2.631   5.857   3.022 -0.0491 -0.2053  0.1913
63688NA      NA99599   4.074   7.172   6.450  0.3080  0.4900 -0.6611
63689NA      NA99600  11.950  10.846   4.035  0.1372 -0.2250  0.4946
63690NA      NA99601   1.204   7.656   7.136  0.4765  0.2444 -0.3591
63691NA      NA99602   0.426   7.728   3.958  0.1893  0.2236  0.6513
63692NA      NA99603   9.298   1.020   7.655  0.1443 -0.0067 -0.3078
63693NA      NA99604   7.862   7.797   7.143  0.0706  0.2325 -0.4689
63694NA      NA99605  11.857   4.242  12.468 -0.1247 -0.3661 -0.2105
63695NA      NA99606   1.409  10.249   7.080 -0.1309 -0.4885  0.0462
63696NA      NA99607   1.050  11.986   0.644 -0.3397 -0.1466 -0.0644
63697NA      NA99608  11.561   7.389   9.190  0.2848 -0.0595  0.1163
63698NA      NA99609  11.440   6.387   3.818 -0.2103  0.0595  0.0782
63699NA      NA99610   9.692   5.782   1.046  0.6843  0.1343 -0.1219
63700NA      NA99611   5.656   2.468   7.468 -0.5856 -0.0620  0.0876
63701NA      NA99612  10.237   5.664   9.917  0.3279 -0.5323 -0.1488
63702NA      NA99613  11.257   1.192   4.027 -0.1355 -0.2862 -0.5291
63703NA      NA99614   1.782   7.908   7.616  0.4907  0.3678  0.5162
63704NA      NA99615   6.924   1.899   8.788  0.1495 -0.2877  0.3175
63705NA      NA99616   7.836   3.147   5.653 -0.1756  0.6111 -0.0287
63706NA      NA99617   5.376   2.670   7.906  0.6967 -0.4177  0.6176
63707NA      NA99618  10.243  10.815   9.693 -0.2186  0.1875 -0.1769
63708NA      NA99619  10.582   9.078   0.783  0.2517 -0.3540 -0.1348
63709NA      NA99620   1.011   1.744   0.040  0.2432  0.0035 -0.1059
63710NA      NA99621   8.723   2.783   4.063 -0.5126  0.1797 -0.3413
63711NA      NA99622  11.421   9.046   9.728 -0.0996  0.1297 -0.0754
63712NA      NA99623  10.048  11.656   0.909 -0.5063  0.1124  0.1034
63713NA      NA99624   3.963  11.563   3.321  0.3716  0.3033 -0.0383
63714NA      NA99625   7.476   8.399   9.991 -0.3915  0.1353  0.1071
63715NA      NA99626   8.073   7.081   6.946 -0.1492 -0.0314  0.4130
63716NA      NA99627   8.420   2.994   8.352 -0.1678  0.0867  0.3439
63717NA      NA99628   7.839   8.941   5.004 -0.1150  0.3148 -0.2815
63718NA      NA99629   5.630   6.427   7.976 -0.6080 -0.0257  0.8999
63719NA      NA99630   0.529   8.404   4.161  0.2922  0.6939  0.2942
63720NA      NA99631   6.686   7.977  12.484  0.1111  0.6102  0.1025
63721NA      NA99632   5.176   4.877   4.426 -0.0224 -0.1374  0.1094
63722NA      NA99633   3.614   4.389   2.261  0.0189  0.0068 -0.0948
63723NA      NA99634   9.475   1.110   6.452  0.2421 -0.2072 -0.3421
63724NA      NA99635   5.899  12.337   8.066 -0.3083  0.4485  0.0910
63725NA      NA99636   1.742   6.329   1.484 -0.1838 -0.0144 -0.0991
63726NA      NA99637   3.113   8.219  12.204  0.0166  0.2915  0.2765
63727NA      NA99638   5.857   3.137   1.966 -0.0101  0.2259 -0.0625
63728NA      NA99639   0.538   9.477   0.963  0.3030  0.1292  0.1146
63729NA      NA99640   3.099   4.326   1.161 -0.1780 -0.0630 -0.1316
63730NA      NA99641   3.712   2.512   3.997 -0.4630  0.4392  0.1153
63731NA      NA99642   8.719  12.579   3.951  0.2175  0.2308 -0.2199
63732NA      NA99643   9.490   7.448  10.231  0.3044 -0.7701 -0.3323
63733NA      NA99644  11.082   0.309   1.547 -0.6802  0.1605 -0.5750
63734NA      NA99645   1.974   8.817   6.412 -0.3227 -0.0554  0.2173
63735NA      NA99646   3.024   6.268  12.502  0.2615  0.1432 -0.5046
63736NA      NA99647   0.840   2.831   2.440 -0.0018  0.0558  0.1370
63737NA      NA99648   3.909   1.161  10.088  0.4700  0.3866  0.2315
63738NA      NA99649   0.585   3.874   5.055 -0.4718  0.0272 -0.3280
63739NA      NA99650   8.245   6.049   2.367 -0.3882  0.4830  0.6259
63740NA      NA99651   0.348   4.277  10.540 -0.6861  0.2859  0.1756
63741NA      NA99652   0.394   5.725  12.220  0.4010  0.2316  0.4783
63742NA      NA99653   6.001   6.217   5.445 -0.6934 -0.3352 -0.1725
63743NA      NA99654   6.052  10.324   0.811 -0.1365 -0.3430 -0.3651
63744NA      NA99655   2.293   6.589   3.862  0.7862 -0.2381  0.0947
63745NA      NA99656   7.689   3.162  12.252  0.7510 -0.5616 -0.0563
63746NA      NA99657   1.075   0.567   0.639  0.3425 -0.2978  0.5376
63747NA      NA99658  11.094  11.253   7.460  0.2105 -0.1330  0.0645
63748NA      NA99659  10.842   3.526   1.446  0.6974  0.7775  0.6773
63749NA      NA99660   7.047   9.217   2.169 -0.1624 -0.6172 -0.2315
63750NA      NA99661  11.389  10.416   2.236 -0.3053  0.0681 -0.0538
63751NA      NA99662   2.842   4.271   8.341  0.0309 -0.4187  0.0684
63752CL      CL99663   9.248   3.330   7.852 -0.1356 -0.1707  0.2421
63753CL      CL99664   4.723  11.999   5.936 -0.1710  0.0113 -0.1761
63754CL      CL99665   2.544   9.347   9.355  0.0027  0.1545 -0.0665
63755CL      CL99666  10.111   0.320   5.262  0.1095 -0.0999 -0.1545
63756CL      CL99667   0.286   8.493   4.184 -0.1917 -0.1961  0.1191
63757CL      CL99668  11.410   4.731   0.258 -0.1514 -0.0109  0.0482
63758CL      CL99669   8.183   1.673   2.276 -0.0085  0.0015  0.1756
63759CL      CL99670   5.028   7.900  11.820  0.0948  0.0467  0.1069
63760CL      CL99671   5.191   6.256   5.368  0.3001 -0.1320  0.0191
63761CL      CL99672   2.311   7.979  12.485  0.1125  0.2991 -0.0808
63762CL      CL99673  10.955  11.536   9.235  0.0975 -0.3635 -0.0410
63763CL      CL99674   8.439  12.513  10.066 -0.2087  0.4011  0.1707
63764CL      CL99675   6.319   9.388   0.121 -0.0876 -0.3927 -0.2337
63765CL      CL99676   7.985   3.912   5.821 -0.2399 -0.3158  0.1053
63766CL      CL99677  11.754  10.846   4.597 -0.1609 -0.1750 -0.1771
63767CL      CL99678   0.613   1.639   5.645  0.5212  0.0667 -0.2337
63768CL      CL99679   0.473   4.589  12.392 -0.4072 -0.0464  0.0049
63769CL      CL99680   9.487   7.124  11.844 -0.2924 -0.1886  0.0923
63770CL      CL99681   6.710   9.207   3.097  0.2174 -0.3563  0.1427
63771CL      CL99682  11.316   4.019  10.545 -0.1020 -0.0103 -0.1057
63772CL      CL99683   2.709   0.594   7.466 -0.2442 -0.2014 -0.0086
63773CL      CL99684   5.514   1.429  11.340 -0.1281  0.0534 -0.1802
63774CL      CL99685   7.340   0.290  10.636  0.0026 -0.4880  0.0518
63775CL      CL99686  11.762   4.956   9.549  0.1321  0.2523 -0.0734
63776CL      CL99687   1.351   2.407   0.252 -0.3723 -0.3467 -0.4697
63777CL      CL99688   6.092  11.693   6.791  0.0532  0.0324 -0.3163
63778CL      CL99689   0.628   9.227  12.508 -0.2083  0.3093 -0.2719
63779CL      CL99690   0.089  11.239   1.347 -0.1636  0.0062 -0.1411
63780CL      CL99691   1.487   5.976   9.989  0.3976  0.3056  0.0485
63781CL      CL99692   6.466   7.917  10.818 -0.1453 -0.2100  0.1033
63782CL      CL99693   7.295   1.788  10.257  0.4496  0.5661  0.0768
63783CL      CL99694   0.971   3.679   8.854 -0.0567 -0.2202 -0.3165
63784CL      CL99695   2.100   1.320  10.805 -0.3056 -0.1591  0.0028
63785CL      CL99696   2.846   5.343  11.842 -0.5140  0.2710  0.4869
63786CL      CL99697  12.517   4.124   5.687 -0.0119 -0.2183  0.0036
63787CL      CL99698  10.764   8.602   1.772 -0.2284 -0.1247  0.2304
63788CL      CL99699   1.585   6.766  11.551 -0.4049  0.3070 -0.0163
63789CL      CL99700   3.191   0.272   3.843 -0.1489  0.0258  0.1342
63790CL      CL99701   8.383   0.789   3.332  0.0129 -0.0578  0.2752
63791CL      CL99702   1.065   8.619   7.530  0.6167  0.1223  0.0867
63792CL      CL99703   0.204   7.890  10.172  0.0389 -0.0229  0.3807
63793CL      CL99704   5.966   4.027   9.691 -0.4015  0.0851  0.0020
63794CL      CL99705   8.891  12.181   9.629  0.0533 -0.1080 -0.0194
63795CL      CL99706   6.338  11.968   8.015 -0.1097  0.0651 -0.2070
63796CL      CL99707   5.558   7.954   2.840 -0.0885 -0.0090 -0.2093
63797CL      CL99708   7.780   8.874   4.443 -0.2999  0.2111 -0.0024
63798CL      CL99709   7.065   9.808  11.405  0.3982  0.1438  0.1076
63799CL      CL99710   5.885   6.687  11.729  0.0587  0.0888  0.0010
63800CL      CL99711   0.555   0.433   2.617  0.3395  0.0163  0.3529
63801CL      CL99712  11.942   4.131   0.034  0.0647 -0.2288  0.3382
63802CL      CL99713   6.483   1.135   5.515 -0.0054 -0.3366  0.1191
63803CL      CL99714   2.110   1.511  10.378 -0.1749 -0.0445 -0.4798
63804CL      CL99715   4.569   7.166   5.180 -0.0371 -0.2853 -0.2665
63805CL      CL99716   2.329   5.202   3.167  0.0619  0.2729  0.2319
63806CL      CL99717   8.615   4.800   9.080  0.0417  0.0743  0.0379
63807CL      CL99718  11.399  11.888   2.621  0.1370 -0.1707 -0.0120
63808CL      CL99719   0.673   6.829   9.694 -0.0894 -0.0579 -0.1612
63809CL      CL99720   0.113   9.253   7.317  0.3864  0.1430 -0.0941
63810CL      CL99721   6.120   5.332  11.338  0.1267 -0.2558  0.1044
63811CL      CL99722  11.243  11.481   1.250 -0.2459  0.2379  0.0619
63812CL      CL99723   7.881   3.204   7.145 -0.5903 -0.4145 -0.1371
63813CL      CL99724  12.210  10.667   7.921 -0.0149  0.3105 -0.3248
63814CL      CL99725   6.106  10.756   6.147  0.1860  0.4802  0.0895
63815CL      CL99726   7.228   4.522   9.711  0.0109 -0.0723  0.2874
63816CL      CL99727  11.478   8.965  11.532  0.5639  0.2352  0.4037
63817CL      CL99728  11.310  12.199   4.495  0.0043  0.4237  0.2493
63818CL      CL99729   4.286  10.013   7.269 -0.1288 -0.0388 -0.4002
63819CL      CL99730   0.599   6.292   3.964  0.1243  0.3789  0.2785
63820CL      CL99731   7.118   1.092   6.939  0.2471 -0.2699 -0.3125
63821CL      CL99732   7.288   3.400  11.615 -0.0478 -0.3532 -0.1023
63822CL      CL99733  12.238   8.727   2.685 -0.3202  0.3925  0.1094
63823CL      CL99734   6.968   4.707   4.045 -0.0399  0.4787  0.4977
63824CL      CL99735   8.414   4.606   8.203 -0.1674  0.3322  0.3348
63825CL      CL99736   3.488   1.005  11.970 -0.4064 -0.0679 -0.0118
63826CL      CL99737   0.294   3.475   8.621  0.2149  0.0176 -0.1555
63827CL      CL99738   8.179  11.720   4.083  0.1131  0.2358  0.2843
63828CL      CL99739   2.596  11.196   5.633 -0.4446  0.1498  0.2519
63829CL      CL99740   9.145   0.167   2.060 -0.1886 -0.0407 -0.0744
63830CL      CL99741   1.745   1.584   0.898 -0.2081  0.2882  0.4182
63831CL      CL99742   4.415  10.518   3.412 -0.1123  0.0591  0.2495
63832CL      CL99743   8.671   8.022   3.139 -0.0722  0.0087 -0.1181
63833CL      CL99744   9.451  10.017   8.206 -0.2731 -0.0199 -0.2537
63834CL      CL99745   1.256   0.226   3.456  0.4278  0.0108 -0.2064
63835CL      CL99746  11.110   3.276   1.835  0.1930 -0.1302 -0.2641
63836CL      CL99747   3.631   4.152   5.687 -0.3565 -0.0176 -0.2311
63837CL      CL99748  11.058   7.906   6.178 -0.2692  0.5126 -0.0485
63838CL      CL99749   8.398   0.329  11.898  0.5358 -0.1317 -0.0297
63839CL      CL99750   9.724   5.475   9.766  0.1886  0.2734  0.5643
63840CL      CL99751   5.502   1.340   9.109  0.1394 -0.1493 -0.5409
63841CL      CL99752   3.210   7.266   9.430  0.5785 -0.6366 -0.0499
63842CL      CL99753   4.392  11.276   5.047 -0.1139  0.3071 -0.0056
63843CL      CL99754  12.421   5.425   4.958  0.1762 -0.0578 -0.2674
63844CL      CL99755   2.058   7.740   7.163  0.0236 -0.4577 -0.2190
63845CL      CL99756   7.435   1.794   4.665 -0.2679 -0.3550  0.3582
63846CL      CL99757   7.660   2.989   1.194  0.0181 -0.0794 -0.0760
63847CL      CL99758  11.681   6.455   3.838 -0.2385  0.0120 -0.6184
63848CL      CL99759   5.386   4.537   2.223  0.1393 -0.1764 -0.0275
63849CL      CL99760   3.383   1.465   1.647  0.3997  0.1882 -0.0143
63850CL      CL99761  10.414   3.733   0.455  0.2011 -0.1235  0.2449
63851CL      CL99762   7.473   9.695   8.589  0.1041 -0.3830  0.0980
63852CL      CL99763   2.907  10.553   9.694 -0.4714  0.2737  0.3191
63853CL      CL99764   2.689   6.760   5.190  0.0022 -0.2968  0.2797
63854CL      CL99765   9.969   6.489   4.661  0.0084  0.1914 -0.4002
63855CL      CL99766   8.620   8.373   1.169  0.0019 -0.1852 -0.2063
63856CL      CL99767   1.050   0.019  11.636 -0.1988  0.3331 -0.4861
63857CL      CL99768   9.754   2.525   4.405 -0.0579 -0.2055  0.4286
63858CL      CL99769   8.367   2.044   6.281  0.2847 -0.1422  0.0695
63859CL      CL99770   4.966   4.411  11.513  0.0920 -0.2003 -0.6977
63860CL      CL99771   7.713   6.926   9.589 -0.0534 -0.1868 -0.3458
63861CL      CL99772   2.552   9.976  10.599 -0.1709  0.3078 -0.3467
63862CL      CL99773   1.732   4.890   0.291 -0.0478 -0.1363 -0.2229
63863CL      CL99774   7.389   7.895  10.953 -0.3148 -0.2534 -0.0615
63864CL      CL99775   1.729  11.592  10.449  0.1706  0.2915 -0.0065
63865CL      CL99776   7.108   6.248   5.952  0.0143  0.3090  0.1706
63866CL      CL99777   1.855   7.977   8.889 -0.0382  0.4242  0.1057
63867CL      CL99778   5.346   4.478   3.984  0.1174 -0.0768  0.4767
63868CL      CL99779   4.352   6.964   4.203  0.2448 -0.1514  0.1753
63869CL      CL99780  12.237   3.027   6.127  0.4876 -0.3740  0.1916
63870CL      CL99781   0.095   2.782  12.568 -0.3348  0.1682  0.0758
63871CL      CL99782   8.302  11.401   4.838 -0.1529  0.0886 -0.1114
63872CL      CL99783   3.088   4.285   2.477 -0.1749  0.1503  0.0989
63873CL      CL99784  10.922   6.201   0.539  0.2260  0.4274  0.1317
63874CL      CL99785  12.231   7.199   4.502 -0.2402 -0.1396  0.2666
63875CL      CL99786   2.805   6.277   7.593 -0.1994  0.1515  0.2550
63876CL      CL99787   5.076   0.147  10.048 -0.2462 -0.0329 -0.0567
63877CL      CL99788   7.448   2.375   1.879  0.0467  0.0766  0.3180
63878CL      CL99789   0.682   8.063   5.269  0.0071  0.0861 -0.1492
63879CL      CL99790   0.723   1.022   4.938 -0.3690  0.2167 -0.3675
63880CL      CL99791   9.115   0.328   2.550  0.3863 -0.2527 -0.0511
63881CL      CL99792  11.995   4.407  12.347  0.0589 -0.3251 -0.3545
63882CL      CL99793  12.138   9.034   4.697  0.0810 -0.1652  0.1999
63883CL      CL99794   0.703  11.278   5.190  0.5827  0.1809 -0.2595
63884CL      CL99795   5.063   3.440  12.491  0.1349  0.0765 -0.1491
63885CL      CL99796   3.696   1.097  10.141 -0.1493 -0.1737 -0.2938
63886CL      CL99797  11.245   7.125  10.788 -0.0377 -0.3553 -0.1978
63887CL      CL99798   8.380   2.994   8.813 -0.1688 -0.1652 -0.1419
63888CL      CL99799  12.240  11.653   1.769  0.1845  0.1421 -0.0547
63889CL      CL99800   5.366   1.776   9.276 -0.0778  0.1393 -0.2102
63890CL      CL99801   2.425   7.051   9.936 -0.0391  0.3844  0.0716
63891CL      CL99802   2.751   9.629   6.340  0.3470 -0.4445 -0.2281
63892CL      CL99803   2.438   0.166  10.440 -0.3305  0.1938 -0.3392
63893CL      CL99804   3.425   2.386   5.854  0.1030 -0.6808  0.3004
63894CL      CL99805   1.456   9.025   0.210 -0.0896  0.0953  0.5957
63895CL      CL99806  10.113  11.745  10.000  0.5477 -0.2496 -0.1693
63896CL      CL99807   1.499   2.793   2.872 -0.0996 -0.2251 -0.0372
63897CL      CL99808   0.216  12.523   8.006  0.2791  0.2769  0.0382
63898CL      CL99809   7.250   5.837   8.502  0.0434  0.3278  0.1043
63899CL      CL99810   4.431   1.732   0.131  0.3740  0.1342 -0.4172
63900CL      CL99811   3.342   8.261   0.938 -0.0032 -0.6478  0.3013
63901CL      CL99812   0.463   4.398  10.938 -0.0208  0.3567 -0.1684
63902CL      CL99813  10.810  10.092   3.046  0.2973  0.3479  0.4615
63903CL      CL99814   5.681  12.454   3.804  0.3542  0.2366  0.1892
63904CL      CL99815   4.907  10.748  10.114  0.2424 -0.3261  0.2039
63905CL      CL99816   0.881  10.318   1.990  0.2894  0.3314 -0.3373
63906CL      CL99817  12.185   9.321   1.765  0.3144  0.3367  0.3698
63907CL      CL99818   9.225   3.352   3.475 -0.0845  0.2075  0.4982
63908CL      CL99819   4.306   3.588   0.689  0.4814  0.0865  0.1230
63909CL      CL99820  11.671   9.995  10.095  0.2900 -0.0752 -0.2304
63910CL      CL99821   3.462  10.127   3.125  0.1926 -0.3146 -0.0024
63911CL      CL99822   9.757   6.599   2.101 -0.1317  0.0436  0.3426
63912CL      CL99823   4.956   2.667   7.689  0.5216 -0.3293  0.2578
63913CL      CL99824   5.472   7.393   6.749 -0.2305  0.0598 -0.2040
63914CL      CL99825   5.677   9.123   1.712 -0.2270  0.0936 -0.0928
63915CL      CL99826   8.117   2.323   8.258  0.1814  0.0702 -0.1938
63916CL      CL99827   8.741   4.321   1.712 -0.1214 -0.7356 -0.3700
63917CL      CL99828  12.541   0.037   0.127 -0.1162  0.0506 -0.1059
63918CL      CL99829   2.056  11.615   9.099 -0.5771  0.0415 -0.4130
63919CL      CL99830   9.362   3.860   6.701 -0.2198  0.3323  0.2637
63920CL      CL99831  10.236  12.324  10.657 -0.3556 -0.0714 -0.0212
63921CL      CL99832  10.853   6.809   8.889 -0.2702 -0.2219  0.0590
63922CL      CL99833  11.518   0.245   8.262  0.0543 -0.0065 -0.4596
63923CL      CL99834   7.256   5.455   8.095  0.1739 -0.1147  0.0488
63924CL      CL99835   5.048   9.323   4.532  0.1096  0.1500 -0.2311
63925CL      CL99836  10.232   9.843  11.830 -0.0159  0.0721 -0.0806
63926CL      CL99837  12.032  11.638   5.306  0.1292 -0.3033 -0.5657
63927CL      CL99838  12.038   7.384   8.160  0.0271 -0.3912  0.2933
63928CL      CL99839   0.686  10.667   1.608 -0.0351 -0.2254  0.0437
63929CL      CL99840   7.743   3.444   6.043  0.1241  0.1158  0.2354
63930CL      CL99841   8.453  11.843   0.489  0.2558  0.4852 -0.0902
63931CL      CL99842   5.833  12.335   8.839  0.0128 -0.0752 -0.1217
63932CL      CL99843   1.081   5.209   5.441  0.3628  0.2787  0.1109
63933CL      CL99844   9.034  12.330   3.650  0.1063  0.0630  0.9037
63934CL      CL99845   2.390   5.813   1.038 -0.4084 -0.8967  0.1192
63935CL      CL99846   3.135   1.633   6.866  0.5938 -0.5368  0.0245
63936CL      CL99847   0.416   2.879  11.329 -0.0625  0.5798 -0.4157
  12.61232  12.61232  12.61232
